Protein in water t=   0.00000 step= 0
325731
    1DC5    H5T    1   6.808   8.857   2.894
    1DC5    O5'    2   6.883   8.848   2.954
    1DC5    C5'    3   6.850   8.868   3.094
    1DC5   H5'1    4   6.830   8.973   3.114
    1DC5   H5'2    5   6.927   8.840   3.165
    1DC5    C4'    6   6.722   8.788   3.109
    1DC5    H4'    7   6.642   8.820   3.042
    1DC5    O4'    8   6.757   8.651   3.091
    1DC5    C1'    9   6.722   8.582   3.204
    1DC5    H1'   10   6.616   8.559   3.209
    1DC5     N1   11   6.787   8.450   3.219
    1DC5     C6   12   6.913   8.428   3.272
    1DC5     H6   13   6.970   8.506   3.320
    1DC5     C5   14   6.962   8.302   3.272
    1DC5     H5   15   7.064   8.293   3.306
    1DC5     C4   16   6.890   8.197   3.198
    1DC5     N4   17   6.945   8.080   3.175
    1DC5    H41   18   6.892   8.014   3.120
    1DC5    H42   19   7.037   8.067   3.214
    1DC5     N3   20   6.776   8.222   3.142
    1DC5     C2   21   6.718   8.346   3.150
    1DC5     O2   22   6.614   8.355   3.084
    1DC5    C3'   23   6.689   8.805   3.255
    1DC5    H3'   24   6.723   8.897   3.303
    1DC5    C2'   25   6.749   8.682   3.317
    1DC5   H2'1   26   6.853   8.691   3.348
    1DC5   H2'2   27   6.694   8.661   3.409
    1DC5    O3'   28   6.544   8.794   3.271
    2DG       P   29   6.465   8.894   3.355
    2DG     O1P   30   6.486   9.026   3.292
    2DG     O2P   31   6.500   8.878   3.494
    2DG     O5'   32   6.312   8.851   3.326
    2DG     C5'   33   6.257   8.848   3.192
    2DG    H5'1   34   6.335   8.800   3.132
    2DG    H5'2   35   6.256   8.946   3.144
    2DG     C4'   36   6.120   8.772   3.178
    2DG     H4'   37   6.079   8.825   3.091
    2DG     O4'   38   6.145   8.640   3.146
    2DG     C1'   39   6.131   8.561   3.265
    2DG     H1'   40   6.061   8.480   3.243
    2DG      N9   41   6.256   8.492   3.291
    2DG      C8   42   6.365   8.535   3.370
    2DG      H8   43   6.376   8.636   3.406
    2DG      N7   44   6.443   8.441   3.406
    2DG      C5   45   6.396   8.329   3.347
    2DG      C6   46   6.446   8.198   3.344
    2DG      O6   47   6.552   8.162   3.399
    2DG      N1   48   6.358   8.107   3.287
    2DG      H1   49   6.384   8.011   3.272
    2DG      C2   50   6.242   8.146   3.216
    2DG      N2   51   6.172   8.055   3.162
    2DG     H21   52   6.202   7.959   3.159
    2DG     H22   53   6.081   8.083   3.126
    2DG      N3   54   6.194   8.274   3.220
    2DG      C4   55   6.280   8.361   3.279
    2DG     C3'   56   6.021   8.773   3.294
    2DG     H3'   57   6.048   8.864   3.348
    2DG     C2'   58   6.065   8.646   3.371
    2DG    H2'1   59   6.139   8.674   3.446
    2DG    H2'2   60   5.980   8.591   3.411
    2DG     O3'   61   5.881   8.760   3.248
    3DC       P   62   5.754   8.758   3.340
    3DC     O1P   63   5.637   8.783   3.258
    3DC     O2P   64   5.762   8.840   3.467
    3DC     O5'   65   5.744   8.610   3.391
    3DC     C5'   66   5.730   8.501   3.294
    3DC    H5'1   67   5.798   8.519   3.211
    3DC    H5'2   68   5.633   8.506   3.246
    3DC     C4'   69   5.752   8.358   3.341
    3DC     H4'   70   5.722   8.291   3.260
    3DC     O4'   71   5.894   8.340   3.371
    3DC     C1'   72   5.901   8.227   3.465
    3DC     H1'   73   5.888   8.139   3.403
    3DC      N1   74   6.029   8.228   3.541
    3DC      C6   75   6.075   8.342   3.605
    3DC      H6   76   6.013   8.430   3.607
    3DC      C5   77   6.205   8.341   3.648
    3DC      H5   78   6.247   8.435   3.677
    3DC      C4   79   6.279   8.221   3.645
    3DC      N4   80   6.397   8.217   3.694
    3DC     H41   81   6.445   8.129   3.702
    3DC     H42   82   6.443   8.301   3.725
    3DC      N3   83   6.226   8.110   3.596
    3DC      C2   84   6.100   8.106   3.547
    3DC      O2   85   6.060   7.994   3.517
    3DC     C3'   86   5.682   8.314   3.469
    3DC     H3'   87   5.651   8.402   3.525
    3DC     C2'   88   5.781   8.236   3.554
    3DC    H2'1   89   5.802   8.305   3.636
    3DC    H2'2   90   5.754   8.133   3.576
    3DC     O3'   91   5.571   8.235   3.425
    4DA       P   92   5.463   8.182   3.532
    4DA     O1P   93   5.349   8.125   3.454
    4DA     O2P   94   5.429   8.289   3.628
    4DA     O5'   95   5.521   8.061   3.616
    4DA     C5'   96   5.511   7.930   3.563
    4DA    H5'1   97   5.551   7.927   3.462
    4DA    H5'2   98   5.405   7.912   3.545
    4DA     C4'   99   5.577   7.824   3.658
    4DA     H4'  100   5.557   7.725   3.617
    4DA     O4'  101   5.716   7.844   3.654
    4DA     C1'  102   5.766   7.806   3.781
    4DA     H1'  103   5.776   7.698   3.782
    4DA      N9  104   5.893   7.879   3.798
    4DA      C8  105   5.910   8.016   3.827
    4DA      H8  106   5.834   8.094   3.831
    4DA      N7  107   6.036   8.045   3.859
    4DA      C5  108   6.096   7.917   3.870
    4DA      C6  109   6.226   7.877   3.898
    4DA      N6  110   6.321   7.956   3.934
    4DA     H61  111   6.406   7.913   3.968
    4DA     H62  112   6.312   8.056   3.922
    4DA      N1  113   6.267   7.755   3.888
    4DA      C2  114   6.173   7.664   3.851
    4DA      H2  115   6.203   7.564   3.825
    4DA      N3  116   6.045   7.682   3.825
    4DA      C4  117   6.010   7.817   3.836
    4DA     C3'  118   5.527   7.820   3.801
    4DA     H3'  119   5.466   7.909   3.815
    4DA     C2'  120   5.656   7.829   3.887
    4DA    H2'1  121   5.668   7.929   3.928
    4DA    H2'2  122   5.657   7.760   3.971
    4DA     O3'  123   5.455   7.696   3.820
    5DT       P  124   5.456   7.599   3.938
    5DT     O1P  125   5.351   7.504   3.910
    5DT     O2P  126   5.450   7.675   4.062
    5DT     O5'  127   5.597   7.513   3.945
    5DT     C5'  128   5.630   7.405   3.857
    5DT    H5'1  129   5.637   7.449   3.757
    5DT    H5'2  130   5.550   7.332   3.856
    5DT     C4'  131   5.761   7.333   3.898
    5DT     H4'  132   5.790   7.254   3.828
    5DT     O4'  133   5.860   7.431   3.920
    5DT     C1'  134   5.921   7.410   4.050
    5DT     H1'  135   5.993   7.329   4.045
    5DT      N1  136   5.982   7.533   4.117
    5DT      C6  137   5.907   7.648   4.129
    5DT      H6  138   5.809   7.661   4.085
    5DT      C5  139   5.957   7.760   4.189
    5DT      C7  140   5.871   7.887   4.209
    5DT     H71  141   5.918   7.963   4.147
    5DT     H72  142   5.771   7.867   4.170
    5DT     H73  143   5.877   7.914   4.314
    5DT      C4  144   6.089   7.756   4.238
    5DT      O4  145   6.141   7.848   4.306
    5DT      N3  146   6.159   7.641   4.220
    5DT      H3  147   6.253   7.623   4.254
    5DT      C2  148   6.110   7.532   4.164
    5DT      O2  149   6.184   7.437   4.157
    5DT     C3'  150   5.737   7.264   4.031
    5DT     H3'  151   5.632   7.256   4.057
    5DT     C2'  152   5.808   7.353   4.131
    5DT    H2'1  153   5.740   7.433   4.161
    5DT    H2'2  154   5.847   7.290   4.211
    5DT     O3'  155   5.791   7.134   4.026
    6DG       P  156   5.778   7.034   4.155
    6DG     O1P  157   5.756   6.897   4.102
    6DG     O2P  158   5.682   7.086   4.249
    6DG     O5'  159   5.919   7.031   4.231
    6DG     C5'  160   6.043   7.037   4.167
    6DG    H5'1  161   6.050   7.136   4.121
    6DG    H5'2  162   6.048   6.974   4.079
    6DG     C4'  163   6.159   6.996   4.251
    6DG     H4'  164   6.228   6.942   4.187
    6DG     O4'  165   6.219   7.115   4.302
    6DG     C1'  166   6.210   7.122   4.441
    6DG     H1'  167   6.306   7.101   4.488
    6DG      N9  168   6.164   7.260   4.481
    6DG      C8  169   6.048   7.327   4.457
    6DG      H8  170   5.967   7.279   4.403
    6DG      N7  171   6.044   7.447   4.510
    6DG      C5  172   6.176   7.468   4.556
    6DG      C6  173   6.233   7.577   4.625
    6DG      O6  174   6.184   7.690   4.648
    6DG      N1  175   6.364   7.554   4.671
    6DG      H1  176   6.403   7.636   4.715
    6DG      C2  177   6.433   7.441   4.655
    6DG      N2  178   6.556   7.425   4.699
    6DG     H21  179   6.601   7.509   4.733
    6DG     H22  180   6.593   7.333   4.714
    6DG      N3  181   6.377   7.330   4.598
    6DG      C4  182   6.248   7.355   4.545
    6DG     C3'  183   6.128   6.901   4.371
    6DG     H3'  184   6.032   6.854   4.348
    6DG     C2'  185   6.119   7.010   4.477
    6DG    H2'1  186   6.016   7.046   4.476
    6DG    H2'2  187   6.149   6.971   4.574
    6DG     O3'  188   6.230   6.801   4.374
    7DT       P  189   6.226   6.693   4.494
    7DT     O1P  190   6.304   6.573   4.451
    7DT     O2P  191   6.086   6.678   4.538
    7DT     O5'  192   6.309   6.772   4.613
    7DT     C5'  193   6.445   6.808   4.596
    7DT    H5'1  194   6.447   6.886   4.520
    7DT    H5'2  195   6.506   6.722   4.567
    7DT     C4'  196   6.504   6.881   4.716
    7DT     H4'  197   6.608   6.900   4.689
    7DT     O4'  198   6.450   7.005   4.731
    7DT     C1'  199   6.437   7.030   4.872
    7DT     H1'  200   6.531   7.077   4.901
    7DT      N1  201   6.333   7.133   4.882
    7DT      C6  202   6.208   7.105   4.835
    7DT      H6  203   6.186   7.006   4.798
    7DT      C5  204   6.113   7.198   4.852
    7DT      C7  205   5.973   7.167   4.811
    7DT     H71  206   5.974   7.065   4.773
    7DT     H72  207   5.915   7.155   4.903
    7DT     H73  208   5.925   7.244   4.751
    7DT      C4  209   6.136   7.335   4.910
    7DT      O4  210   6.061   7.428   4.921
    7DT      N3  211   6.265   7.351   4.956
    7DT      H3  212   6.288   7.434   5.009
    7DT      C2  213   6.364   7.255   4.947
    7DT      O2  214   6.472   7.272   5.002
    7DT     C3'  215   6.482   6.798   4.844
    7DT     H3'  216   6.424   6.708   4.825
    7DT     C2'  217   6.406   6.892   4.935
    7DT    H2'1  218   6.299   6.872   4.934
    7DT    H2'2  219   6.446   6.889   5.037
    7DT     O3'  220   6.612   6.767   4.890
    8DG       P  221   6.630   6.667   5.016
    8DG     O1P  222   6.765   6.610   5.021
    8DG     O2P  223   6.511   6.575   5.023
    8DG     O5'  224   6.611   6.778   5.134
    8DG     C5'  225   6.722   6.858   5.173
    8DG    H5'1  226   6.744   6.930   5.094
    8DG    H5'2  227   6.806   6.788   5.176
    8DG     C4'  228   6.715   6.923   5.314
    8DG     H4'  229   6.810   6.964   5.350
    8DG     O4'  230   6.617   7.024   5.298
    8DG     C1'  231   6.504   6.995   5.389
    8DG     H1'  232   6.517   7.055   5.479
    8DG      N9  233   6.380   7.027   5.324
    8DG      C8  234   6.275   6.949   5.274
    8DG      H8  235   6.276   6.841   5.274
    8DG      N7  236   6.183   7.017   5.228
    8DG      C5  237   6.209   7.151   5.251
    8DG      C6  238   6.132   7.270   5.233
    8DG      O6  239   6.016   7.282   5.199
    8DG      N1  240   6.204   7.388   5.269
    8DG      H1  241   6.155   7.476   5.277
    8DG      C2  242   6.321   7.385   5.331
    8DG      N2  243   6.348   7.488   5.401
    8DG     H21  244   6.293   7.573   5.394
    8DG     H22  245   6.432   7.484   5.456
    8DG      N3  246   6.390   7.272   5.349
    8DG      C4  247   6.333   7.155   5.305
    8DG     C3'  248   6.662   6.832   5.431
    8DG     H3'  249   6.693   6.730   5.408
    8DG     C2'  250   6.514   6.847   5.422
    8DG    H2'1  251   6.471   6.779   5.349
    8DG    H2'2  252   6.463   6.815   5.513
    8DG     O3'  253   6.714   6.876   5.559
    9DC       P  254   6.865   6.851   5.599
    9DC     O1P  255   6.952   6.842   5.485
    9DC     O2P  256   6.865   6.744   5.697
    9DC     O5'  257   6.899   6.975   5.684
    9DC     C5'  258   6.950   7.097   5.633
    9DC    H5'1  259   6.927   7.110   5.527
    9DC    H5'2  260   7.057   7.112   5.650
    9DC     C4'  261   6.883   7.219   5.700
    9DC     H4'  262   6.946   7.300   5.664
    9DC     O4'  263   6.745   7.241   5.665
    9DC     C1'  264   6.671   7.253   5.785
    9DC     H1'  265   6.655   7.358   5.807
    9DC      N1  266   6.541   7.202   5.749
    9DC      C6  267   6.522   7.071   5.732
    9DC      H6  268   6.603   7.001   5.744
    9DC      C5  269   6.397   7.028   5.703
    9DC      H5  270   6.389   6.920   5.698
    9DC      C4  271   6.297   7.124   5.685
    9DC      N4  272   6.177   7.098   5.644
    9DC     H41  273   6.110   7.169   5.620
    9DC     H42  274   6.152   7.003   5.620
    9DC      N3  275   6.313   7.253   5.704
    9DC      C2  276   6.438   7.298   5.725
    9DC      O2  277   6.453   7.422   5.730
    9DC     C3'  278   6.891   7.215   5.852
    9DC     H3'  279   6.958   7.138   5.890
    9DC     C2'  280   6.747   7.187   5.892
    9DC    H2'1  281   6.731   7.080   5.901
    9DC    H2'2  282   6.718   7.226   5.989
    9DC     O3'  283   6.930   7.348   5.894
   10DG       P  284   6.959   7.388   6.044
   10DG     O1P  285   7.062   7.500   6.045
   10DG     O2P  286   6.985   7.259   6.119
   10DG     O5'  287   6.821   7.456   6.085
   10DG     C5'  288   6.775   7.574   6.024
   10DG    H5'1  289   6.845   7.653   6.052
   10DG    H5'2  290   6.781   7.570   5.915
   10DG     C4'  291   6.636   7.613   6.072
   10DG     H4'  292   6.604   7.708   6.029
   10DG     O4'  293   6.542   7.526   6.023
   10DG     C1'  294   6.453   7.492   6.119
   10DG     H1'  295   6.358   7.545   6.118
   10DG      N9  296   6.412   7.352   6.098
   10DG      C8  297   6.480   7.233   6.110
   10DG      H8  298   6.575   7.213   6.157
   10DG      N7  299   6.403   7.132   6.079
   10DG      C5  300   6.285   7.196   6.027
   10DG      C6  301   6.167   7.133   5.960
   10DG      O6  302   6.155   7.011   5.925
   10DG      N1  303   6.065   7.221   5.938
   10DG      H1  304   5.984   7.187   5.888
   10DG      C2  305   6.075   7.355   5.974
   10DG      N2  306   5.974   7.434   5.961
   10DG     H21  307   5.891   7.394   5.920
   10DG     H22  308   5.997   7.533   5.965
   10DG      N3  309   6.178   7.415   6.033
   10DG      C4  310   6.281   7.330   6.054
   10DG     C3'  311   6.628   7.619   6.226
   10DG     H3'  312   6.724   7.589   6.266
   10DG     C2'  313   6.533   7.501   6.245
   10DG    H2'1  314   6.601   7.417   6.258
   10DG    H2'2  315   6.460   7.499   6.326
   10DG     O3'  316   6.589   7.749   6.276
   11DT       P  317   6.534   7.768   6.421
   11DT     O1P  318   6.551   7.910   6.462
   11DT     O2P  319   6.601   7.667   6.505
   11DT     O5'  320   6.380   7.729   6.426
   11DT     C5'  321   6.288   7.798   6.336
   11DT    H5'1  322   6.322   7.783   6.233
   11DT    H5'2  323   6.291   7.903   6.364
   11DT     C4'  324   6.140   7.745   6.341
   11DT     H4'  325   6.075   7.804   6.275
   11DT     O4'  326   6.132   7.612   6.287
   11DT     C1'  327   6.024   7.549   6.348
   11DT     H1'  328   5.940   7.574   6.283
   11DT      N1  329   6.047   7.401   6.358
   11DT      C6  330   6.169   7.353   6.404
   11DT      H6  331   6.237   7.422   6.453
   11DT      C5  332   6.198   7.226   6.380
   11DT      C7  333   6.332   7.177   6.420
   11DT     H71  334   6.326   7.141   6.523
   11DT     H72  335   6.351   7.088   6.360
   11DT     H73  336   6.408   7.251   6.394
   11DT      C4  337   6.107   7.140   6.312
   11DT      O4  338   6.128   7.023   6.274
   11DT      N3  339   5.975   7.183   6.305
   11DT      H3  340   5.911   7.119   6.259
   11DT      C2  341   5.950   7.319   6.308
   11DT      O2  342   5.834   7.354   6.272
   11DT     C3'  343   6.079   7.740   6.481
   11DT     H3'  344   6.163   7.737   6.550
   11DT     C2'  345   6.003   7.608   6.486
   11DT    H2'1  346   6.034   7.540   6.565
   11DT    H2'2  347   5.895   7.622   6.487
   11DT     O3'  348   5.996   7.852   6.490
   12DA       P  349   5.909   7.881   6.622
   12DA     O1P  350   5.892   8.025   6.626
   12DA     O2P  351   5.967   7.821   6.738
   12DA     O5'  352   5.761   7.826   6.601
   12DA     C5'  353   5.680   7.880   6.499
   12DA    H5'1  354   5.728   7.868   6.403
   12DA    H5'2  355   5.655   7.986   6.512
   12DA     C4'  356   5.541   7.813   6.493
   12DA     H4'  357   5.473   7.862   6.424
   12DA     O4'  358   5.545   7.678   6.454
   12DA     C1'  359   5.515   7.590   6.569
   12DA     H1'  360   5.416   7.546   6.559
   12DA      N9  361   5.615   7.478   6.582
   12DA      C8  362   5.734   7.486   6.642
   12DA      H8  363   5.765   7.578   6.690
   12DA      N7  364   5.805   7.373   6.645
   12DA      C5  365   5.726   7.287   6.566
   12DA      C6  366   5.736   7.156   6.505
   12DA      N6  367   5.847   7.086   6.530
   12DA     H61  368   5.868   6.998   6.486
   12DA     H62  369   5.921   7.116   6.592
   12DA      N1  370   5.646   7.108   6.420
   12DA      C2  371   5.536   7.178   6.392
   12DA      H2  372   5.455   7.133   6.337
   12DA      N3  373   5.516   7.299   6.437
   12DA      C4  374   5.614   7.354   6.518
   12DA     C3'  375   5.471   7.818   6.626
   12DA     H3'  376   5.507   7.897   6.691
   12DA     C2'  377   5.506   7.677   6.690
   12DA    H2'1  378   5.594   7.694   6.752
   12DA    H2'2  379   5.435   7.634   6.761
   12DA     O3'  380   5.332   7.841   6.588
   13DT       P  381   5.211   7.816   6.690
   13DT     O1P  382   5.095   7.884   6.638
   13DT     O2P  383   5.263   7.851   6.825
   13DT     O5'  384   5.176   7.652   6.677
   13DT     C5'  385   5.109   7.606   6.561
   13DT    H5'1  386   5.164   7.646   6.476
   13DT    H5'2  387   5.018   7.665   6.551
   13DT     C4'  388   5.112   7.450   6.552
   13DT     H4'  389   5.080   7.417   6.453
   13DT     O4'  390   5.236   7.384   6.583
   13DT     C1'  391   5.213   7.263   6.659
   13DT     H1'  392   5.173   7.185   6.595
   13DT      N1  393   5.337   7.225   6.727
   13DT      C6  394   5.396   7.300   6.827
   13DT      H6  395   5.353   7.397   6.849
   13DT      C5  396   5.518   7.268   6.876
   13DT      C7  397   5.592   7.373   6.961
   13DT     H71  398   5.524   7.449   7.000
   13DT     H72  399   5.639   7.328   7.047
   13DT     H73  400   5.669   7.417   6.898
   13DT      C4  401   5.582   7.143   6.843
   13DT      O4  402   5.682   7.093   6.892
   13DT      N3  403   5.515   7.078   6.746
   13DT      H3  404   5.545   6.982   6.739
   13DT      C2  405   5.393   7.105   6.690
   13DT      O2  406   5.340   7.025   6.616
   13DT     C3'  407   5.007   7.395   6.657
   13DT     H3'  408   4.961   7.479   6.709
   13DT     C2'  409   5.089   7.300   6.743
   13DT    H2'1  410   5.122   7.372   6.818
   13DT    H2'2  411   5.035   7.219   6.791
   13DT     O3'  412   4.914   7.301   6.598
   14DT       P  413   4.781   7.244   6.676
   14DT     O1P  414   4.665   7.255   6.580
   14DT     O2P  415   4.775   7.317   6.807
   14DT     O5'  416   4.814   7.085   6.696
   14DT     C5'  417   4.812   6.985   6.597
   14DT    H5'1  418   4.873   7.009   6.509
   14DT    H5'2  419   4.713   6.990   6.553
   14DT     C4'  420   4.846   6.842   6.654
   14DT     H4'  421   4.832   6.770   6.573
   14DT     O4'  422   4.983   6.852   6.698
   14DT     C1'  423   4.995   6.798   6.829
   14DT     H1'  424   4.998   6.690   6.820
   14DT      N1  425   5.114   6.848   6.899
   14DT      C6  426   5.117   6.978   6.960
   14DT      H6  427   5.038   7.048   6.939
   14DT      C5  428   5.229   7.021   7.026
   14DT      C7  429   5.243   7.161   7.096
   14DT     H71  430   5.166   7.238   7.094
   14DT     H72  431   5.254   7.133   7.201
   14DT     H73  432   5.339   7.209   7.078
   14DT      C4  433   5.343   6.934   7.039
   14DT      O4  434   5.439   6.953   7.114
   14DT      N3  435   5.334   6.813   6.979
   14DT      H3  436   5.415   6.752   6.981
   14DT      C2  437   5.227   6.764   6.911
   14DT      O2  438   5.232   6.653   6.863
   14DT     C3'  439   4.761   6.809   6.776
   14DT     H3'  440   4.666   6.862   6.787
   14DT     C2'  441   4.858   6.841   6.888
   14DT    H2'1  442   4.865   6.947   6.908
   14DT    H2'2  443   4.845   6.782   6.979
   14DT     O3'  444   4.751   6.666   6.775
   15DA       P  445   4.623   6.584   6.716
   15DA     O1P  446   4.618   6.591   6.565
   15DA     O2P  447   4.504   6.624   6.795
   15DA     O5'  448   4.668   6.439   6.766
   15DA     C5'  449   4.762   6.372   6.676
   15DA    H5'1  450   4.830   6.451   6.647
   15DA    H5'2  451   4.712   6.320   6.595
   15DA     C4'  452   4.856   6.266   6.747
   15DA     H4'  453   4.888   6.202   6.665
   15DA     O4'  454   4.957   6.335   6.821
   15DA     C1'  455   4.952   6.298   6.956
   15DA     H1'  456   5.024   6.217   6.974
   15DA      N9  457   4.985   6.411   7.044
   15DA      C8  458   4.905   6.521   7.075
   15DA      H8  459   4.802   6.540   7.046
   15DA      N7  460   4.975   6.610   7.140
   15DA      C5  461   5.096   6.550   7.166
   15DA      C6  462   5.213   6.588   7.237
   15DA      N6  463   5.239   6.706   7.286
   15DA     H61  464   5.326   6.712   7.336
   15DA     H62  465   5.177   6.785   7.275
   15DA      N1  466   5.315   6.507   7.241
   15DA      C2  467   5.302   6.388   7.184
   15DA      H2  468   5.386   6.321   7.193
   15DA      N3  469   5.200   6.336   7.121
   15DA      C4  470   5.100   6.428   7.108
   15DA     C3'  471   4.782   6.169   6.848
   15DA     H3'  472   4.675   6.159   6.831
   15DA     C2'  473   4.805   6.245   6.982
   15DA    H2'1  474   4.736   6.328   6.997
   15DA    H2'2  475   4.806   6.184   7.072
   15DA     O3'  476   4.842   6.041   6.841
   16DT       P  477   4.774   5.911   6.901
   16DT     O1P  478   4.771   5.817   6.791
   16DT     O2P  479   4.641   5.950   6.956
   16DT     O5'  480   4.850   5.848   7.025
   16DT     C5'  481   4.989   5.811   7.013
   16DT    H5'1  482   5.034   5.854   6.924
   16DT    H5'2  483   4.986   5.703   6.998
   16DT     C4'  484   5.072   5.851   7.133
   16DT     H4'  485   5.176   5.829   7.109
   16DT     O4'  486   5.058   5.992   7.167
   16DT     C1'  487   5.108   6.000   7.297
   16DT     H1'  488   5.217   5.993   7.304
   16DT      N1  489   5.076   6.137   7.353
   16DT      C6  490   4.954   6.188   7.331
   16DT      H6  491   4.879   6.132   7.278
   16DT      C5  492   4.921   6.310   7.375
   16DT      C7  493   4.786   6.360   7.350
   16DT     H71  494   4.791   6.460   7.308
   16DT     H72  495   4.737   6.295   7.277
   16DT     H73  496   4.726   6.356   7.442
   16DT      C4  497   5.013   6.397   7.442
   16DT      O4  498   4.996   6.510   7.496
   16DT      N3  499   5.135   6.347   7.449
   16DT      H3  500   5.202   6.414   7.484
   16DT      C2  501   5.173   6.216   7.415
   16DT      O2  502   5.282   6.164   7.451
   16DT     C3'  503   5.047   5.782   7.264
   16DT     H3'  504   4.946   5.741   7.263
   16DT     C2'  505   5.052   5.888   7.377
   16DT    H2'1  506   4.952   5.914   7.414
   16DT    H2'2  507   5.112   5.854   7.461
   16DT     O3'  508   5.144   5.679   7.286
   17DA       P  509   5.104   5.546   7.377
   17DA     O1P  510   5.184   5.432   7.328
   17DA     O2P  511   4.956   5.544   7.380
   17DA     O5'  512   5.155   5.584   7.524
   17DA     C5'  513   5.291   5.589   7.560
   17DA    H5'1  514   5.338   5.626   7.468
   17DA    H5'2  515   5.328   5.487   7.576
   17DA     C4'  516   5.322   5.677   7.688
   17DA     H4'  517   5.427   5.668   7.717
   17DA     O4'  518   5.294   5.810   7.663
   17DA     C1'  519   5.221   5.864   7.773
   17DA     H1'  520   5.283   5.882   7.861
   17DA      N9  521   5.151   5.992   7.753
   17DA      C8  522   5.021   6.014   7.706
   17DA      H8  523   4.961   5.943   7.651
   17DA      N7  524   4.981   6.140   7.703
   17DA      C5  525   5.085   6.204   7.767
   17DA      C6  526   5.113   6.337   7.809
   17DA      N6  527   5.034   6.439   7.801
   17DA     H61  528   5.061   6.520   7.855
   17DA     H62  529   4.943   6.442   7.756
   17DA      N1  530   5.221   6.368   7.880
   17DA      C2  531   5.312   6.271   7.901
   17DA      H2  532   5.398   6.302   7.958
   17DA      N3  533   5.298   6.141   7.873
   17DA      C4  534   5.188   6.115   7.799
   17DA     C3'  535   5.232   5.643   7.806
   17DA     H3'  536   5.184   5.547   7.786
   17DA     C2'  537   5.125   5.752   7.806
   17DA    H2'1  538   5.055   5.749   7.723
   17DA    H2'2  539   5.068   5.765   7.897
   17DA     O3'  540   5.305   5.638   7.927
   18DC       P  541   5.374   5.504   7.977
   18DC     O1P  542   5.472   5.464   7.873
   18DC     O2P  543   5.256   5.414   8.000
   18DC     O5'  544   5.442   5.560   8.115
   18DC     C5'  545   5.577   5.596   8.117
   18DC    H5'1  546   5.612   5.626   8.019
   18DC    H5'2  547   5.635   5.517   8.165
   18DC     C4'  548   5.608   5.719   8.214
   18DC     H4'  549   5.714   5.744   8.223
   18DC     O4'  550   5.543   5.837   8.171
   18DC     C1'  551   5.452   5.889   8.263
   18DC     H1'  552   5.505   5.965   8.321
   18DC      N1  553   5.333   5.955   8.201
   18DC      C6  554   5.232   5.889   8.134
   18DC      H6  555   5.244   5.786   8.103
   18DC      C5  556   5.121   5.954   8.099
   18DC      H5  557   5.034   5.903   8.061
   18DC      C4  558   5.117   6.096   8.121
   18DC      N4  559   5.018   6.169   8.080
   18DC     H41  560   5.027   6.269   8.075
   18DC     H42  561   4.935   6.123   8.045
   18DC      N3  562   5.211   6.159   8.186
   18DC      C2  563   5.318   6.088   8.232
   18DC      O2  564   5.394   6.151   8.304
   18DC     C3'  565   5.567   5.705   8.362
   18DC     H3'  566   5.565   5.601   8.395
   18DC     C2'  567   5.426   5.767   8.356
   18DC    H2'1  568   5.359   5.699   8.304
   18DC    H2'2  569   5.383   5.800   8.451
   18DC     O3'  570   5.647   5.779   8.452
   19DA       P  571   5.610   5.803   8.609
   19DA     O1P  572   5.737   5.804   8.683
   19DA     O2P  573   5.505   5.703   8.653
   19DA     O5'  574   5.546   5.949   8.625
   19DA     C5'  575   5.624   6.062   8.632
   19DA    H5'1  576   5.642   6.110   8.535
   19DA    H5'2  577   5.727   6.046   8.661
   19DA     C4'  578   5.575   6.170   8.735
   19DA     H4'  579   5.663   6.232   8.753
   19DA     O4'  580   5.479   6.257   8.685
   19DA     C1'  581   5.357   6.227   8.747
   19DA     H1'  582   5.324   6.311   8.807
   19DA      N9  583   5.259   6.198   8.642
   19DA      C8  584   5.245   6.083   8.568
   19DA      H8  585   5.314   6.002   8.584
   19DA      N7  586   5.138   6.074   8.495
   19DA      C5  587   5.082   6.200   8.519
   19DA      C6  588   4.963   6.267   8.471
   19DA      N6  589   4.880   6.235   8.373
   19DA     H61  590   4.806   6.296   8.342
   19DA     H62  591   4.906   6.160   8.310
   19DA      N1  592   4.934   6.392   8.518
   19DA      C2  593   5.025   6.455   8.589
   19DA      H2  594   4.993   6.552   8.623
   19DA      N3  595   5.134   6.405   8.640
   19DA      C4  596   5.154   6.279   8.603
   19DA     C3'  597   5.531   6.112   8.869
   19DA     H3'  598   5.565   6.010   8.882
   19DA     C2'  599   5.378   6.111   8.849
   19DA    H2'1  600   5.346   6.013   8.816
   19DA    H2'2  601   5.326   6.135   8.942
   19DA     O3'  602   5.575   6.179   8.990
   20DT       P  603   5.512   6.183   9.132
   20DT     O1P  604   5.630   6.212   9.215
   20DT     O2P  605   5.443   6.056   9.158
   20DT     O5'  606   5.413   6.306   9.135
   20DT     C5'  607   5.446   6.437   9.099
   20DT    H5'1  608   5.502   6.435   9.006
   20DT    H5'2  609   5.500   6.487   9.180
   20DT     C4'  610   5.325   6.522   9.065
   20DT     H4'  611   5.374   6.609   9.022
   20DT     O4'  612   5.238   6.458   8.975
   20DT     C1'  613   5.105   6.503   8.996
   20DT     H1'  614   5.091   6.601   8.951
   20DT      N1  615   5.008   6.407   8.948
   20DT      C6  616   5.039   6.276   8.966
   20DT      H6  617   5.121   6.239   9.026
   20DT      C5  618   4.960   6.180   8.909
   20DT      C7  619   5.000   6.038   8.924
   20DT     H71  620   5.078   6.028   9.000
   20DT     H72  621   4.919   5.967   8.941
   20DT     H73  622   5.062   5.998   8.844
   20DT      C4  623   4.844   6.210   8.823
   20DT      O4  624   4.771   6.128   8.769
   20DT      N3  625   4.812   6.342   8.818
   20DT      H3  626   4.736   6.371   8.758
   20DT      C2  627   4.892   6.440   8.874
   20DT      O2  628   4.854   6.556   8.862
   20DT     C3'  629   5.241   6.554   9.196
   20DT     H3'  630   5.273   6.486   9.275
   20DT     C2'  631   5.097   6.515   9.147
   20DT    H2'1  632   5.073   6.419   9.192
   20DT    H2'2  633   5.020   6.587   9.177
   20DT     O3'  634   5.256   6.693   9.239
   21DT       P  635   5.175   6.753   9.357
   21DT     O1P  636   5.245   6.877   9.394
   21DT     O2P  637   5.160   6.650   9.458
   21DT     O5'  638   5.024   6.798   9.311
   21DT     C5'  639   5.006   6.869   9.185
   21DT    H5'1  640   5.060   6.817   9.106
   21DT    H5'2  641   5.056   6.966   9.197
   21DT     C4'  642   4.848   6.880   9.148
   21DT     H4'  643   4.846   6.949   9.064
   21DT     O4'  644   4.812   6.754   9.101
   21DT     C1'  645   4.688   6.721   9.155
   21DT     H1'  646   4.619   6.765   9.083
   21DT      N1  647   4.676   6.575   9.150
   21DT      C6  648   4.759   6.484   9.214
   21DT      H6  649   4.832   6.517   9.286
   21DT      C5  650   4.748   6.346   9.203
   21DT      C7  651   4.840   6.262   9.285
   21DT     H71  652   4.890   6.202   9.209
   21DT     H72  653   4.910   6.314   9.349
   21DT     H73  654   4.783   6.198   9.352
   21DT      C4  655   4.640   6.291   9.123
   21DT      O4  656   4.615   6.172   9.114
   21DT      N3  657   4.562   6.382   9.058
   21DT      H3  658   4.504   6.340   8.987
   21DT      C2  659   4.568   6.522   9.073
   21DT      O2  660   4.482   6.590   9.017
   21DT     C3'  661   4.758   6.927   9.262
   21DT     H3'  662   4.819   6.962   9.345
   21DT     C2'  663   4.682   6.796   9.290
   21DT    H2'1  664   4.731   6.741   9.370
   21DT    H2'2  665   4.581   6.821   9.319
   21DT     O3'  666   4.672   7.040   9.222
   22DG       P  667   4.554   7.103   9.304
   22DG     O1P  668   4.526   7.238   9.248
   22DG     O2P  669   4.589   7.083   9.449
   22DG     O5'  670   4.430   7.016   9.260
   22DG     C5'  671   4.358   7.044   9.135
   22DG    H5'1  672   4.393   6.976   9.058
   22DG    H5'2  673   4.399   7.137   9.096
   22DG     C4'  674   4.209   7.030   9.146
   22DG     H4'  675   4.168   7.098   9.071
   22DG     O4'  676   4.164   6.898   9.111
   22DG     C1'  677   4.116   6.835   9.221
   22DG     H1'  678   4.012   6.812   9.194
   22DG      N9  679   4.196   6.710   9.248
   22DG      C8  680   4.318   6.697   9.303
   22DG      H8  681   4.383   6.778   9.332
   22DG      N7  682   4.358   6.578   9.326
   22DG      C5  683   4.257   6.502   9.264
   22DG      C6  684   4.249   6.364   9.243
   22DG      O6  685   4.326   6.280   9.292
   22DG      N1  686   4.135   6.323   9.176
   22DG      H1  687   4.137   6.230   9.136
   22DG      C2  688   4.037   6.403   9.139
   22DG      N2  689   3.964   6.358   9.043
   22DG     H21  690   3.984   6.265   9.010
   22DG     H22  691   3.881   6.408   9.013
   22DG      N3  692   4.039   6.537   9.163
   22DG      C4  693   4.152   6.584   9.228
   22DG     C3'  694   4.146   7.069   9.276
   22DG     H3'  695   4.200   7.139   9.341
   22DG     C2'  696   4.131   6.926   9.341
   22DG    H2'1  697   4.215   6.911   9.408
   22DG    H2'2  698   4.043   6.916   9.405
   22DG     O3'  699   4.017   7.134   9.254
   23DT       P  700   3.911   7.149   9.377
   23DT     O1P  701   3.838   7.279   9.351
   23DT     O2P  702   3.985   7.139   9.504
   23DT     O5'  703   3.805   7.028   9.379
   23DT     C5'  704   3.711   7.029   9.275
   23DT    H5'1  705   3.759   7.046   9.178
   23DT    H5'2  706   3.635   7.106   9.285
   23DT     C4'  707   3.644   6.892   9.273
   23DT     H4'  708   3.587   6.885   9.180
   23DT     O4'  709   3.729   6.782   9.298
   23DT     C1'  710   3.681   6.706   9.410
   23DT     H1'  711   3.609   6.638   9.366
   23DT      N1  712   3.793   6.631   9.466
   23DT      C6  713   3.900   6.691   9.535
   23DT      H6  714   3.906   6.798   9.548
   23DT      C5  715   4.004   6.610   9.569
   23DT      C7  716   4.133   6.676   9.630
   23DT     H71  717   4.134   6.685   9.738
   23DT     H72  718   4.220   6.617   9.601
   23DT     H73  719   4.141   6.773   9.581
   23DT      C4  720   4.013   6.466   9.539
   23DT      O4  721   4.113   6.394   9.554
   23DT      N3  722   3.903   6.417   9.484
   23DT      H3  723   3.916   6.324   9.446
   23DT      C2  724   3.801   6.495   9.426
   23DT      O2  725   3.716   6.441   9.358
   23DT     C3'  726   3.541   6.883   9.382
   23DT     H3'  727   3.510   6.985   9.407
   23DT     C2'  728   3.612   6.811   9.492
   23DT    H2'1  729   3.669   6.889   9.544
   23DT    H2'2  730   3.536   6.772   9.559
   23DT     O3'  731   3.429   6.806   9.340
   24DA       P  732   3.304   6.861   9.263
   24DA     O1P  733   3.318   6.823   9.126
   24DA     O2P  734   3.288   7.002   9.301
   24DA     O5'  735   3.176   6.775   9.320
   24DA     C5'  736   3.159   6.641   9.280
   24DA    H5'1  737   3.240   6.612   9.214
   24DA    H5'2  738   3.065   6.625   9.227
   24DA     C4'  739   3.177   6.532   9.392
   24DA     H4'  740   3.162   6.434   9.348
   24DA     O4'  741   3.312   6.534   9.443
   24DA     C1'  742   3.296   6.492   9.573
   24DA     H1'  743   3.261   6.389   9.573
   24DA      N9  744   3.419   6.508   9.649
   24DA      C8  745   3.449   6.606   9.737
   24DA      H8  746   3.385   6.690   9.761
   24DA      N7  747   3.571   6.589   9.791
   24DA      C5  748   3.612   6.469   9.736
   24DA      C6  749   3.716   6.374   9.759
   24DA      N6  750   3.807   6.387   9.852
   24DA     H61  751   3.878   6.316   9.859
   24DA     H62  752   3.794   6.455   9.926
   24DA      N1  753   3.723   6.255   9.692
   24DA      C2  754   3.625   6.232   9.605
   24DA      H2  755   3.633   6.141   9.548
   24DA      N3  756   3.519   6.306   9.575
   24DA      C4  757   3.519   6.421   9.647
   24DA     C3'  758   3.082   6.545   9.509
   24DA     H3'  759   3.011   6.627   9.503
   24DA     C2'  760   3.180   6.574   9.628
   24DA    H2'1  761   3.204   6.680   9.636
   24DA    H2'2  762   3.149   6.535   9.725
   24DA     O3'  763   3.024   6.415   9.532
   25DC       P  764   2.872   6.405   9.563
   25DC     O1P  765   2.787   6.454   9.454
   25DC     O2P  766   2.853   6.444   9.704
   25DC     O5'  767   2.842   6.245   9.564
   25DC     C5'  768   2.900   6.167   9.458
   25DC    H5'1  769   2.966   6.226   9.394
   25DC    H5'2  770   2.820   6.124   9.398
   25DC     C4'  771   2.990   6.056   9.505
   25DC     H4'  772   3.011   5.995   9.417
   25DC     O4'  773   3.103   6.112   9.566
   25DC     C1'  774   3.119   6.045   9.695
   25DC     H1'  775   3.172   5.951   9.677
   25DC      N1  776   3.201   6.131   9.782
   25DC      C6  777   3.150   6.248   9.836
   25DC      H6  778   3.053   6.280   9.801
   25DC      C5  779   3.225   6.320   9.921
   25DC      H5  780   3.187   6.417   9.948
   25DC      C4  781   3.354   6.273   9.959
   25DC      N4  782   3.439   6.346  10.021
   25DC     H41  783   3.525   6.306  10.056
   25DC     H42  784   3.407   6.428  10.070
   25DC      N3  785   3.404   6.163   9.912
   25DC      C2  786   3.327   6.083   9.833
   25DC      O2  787   3.367   5.972   9.791
   25DC     C3'  788   2.920   5.956   9.607
   25DC     H3'  789   2.812   5.969   9.613
   25DC     C2'  790   2.977   6.015   9.737
   25DC    H2'1  791   2.932   6.109   9.769
   25DC    H2'2  792   2.974   5.939   9.815
   25DC     O3'  793   2.957   5.818   9.592
   26DG       P  794   2.888   5.697   9.678
   26DG     O1P  795   2.824   5.604   9.583
   26DG     O2P  796   2.803   5.758   9.783
   26DG     O5'  797   3.010   5.628   9.760
   26DG     C5'  798   3.103   5.542   9.700
   26DG    H5'1  799   3.177   5.596   9.641
   26DG    H5'2  800   3.048   5.465   9.645
   26DG     C4'  801   3.186   5.468   9.807
   26DG     H4'  802   3.240   5.388   9.756
   26DG     O4'  803   3.284   5.549   9.870
   26DG     C1'  804   3.242   5.568   9.998
   26DG     H1'  805   3.318   5.505  10.044
   26DG      N9  806   3.248   5.712  10.030
   26DG      C8  807   3.167   5.815   9.991
   26DG      H8  808   3.095   5.789   9.916
   26DG      N7  809   3.187   5.926  10.047
   26DG      C5  810   3.289   5.901  10.134
   26DG      C6  811   3.351   5.983  10.238
   26DG      O6  812   3.329   6.097  10.268
   26DG      N1  813   3.455   5.927  10.300
   26DG      H1  814   3.512   5.983  10.363
   26DG      C2  815   3.490   5.796  10.281
   26DG      N2  816   3.589   5.741  10.342
   26DG     H21  817   3.639   5.783  10.418
   26DG     H22  818   3.617   5.646  10.321
   26DG      N3  819   3.429   5.715  10.194
   26DG      C4  820   3.325   5.772  10.124
   26DG     C3'  821   3.117   5.390   9.922
   26DG     H3'  822   3.014   5.361   9.898
   26DG     C2'  823   3.105   5.497  10.028
   26DG    H2'1  824   3.024   5.563   9.998
   26DG    H2'2  825   3.098   5.455  10.128
   26DG     O3'  826   3.189   5.277   9.955
   27DC       P  827   3.152   5.177  10.069
   27DC     O1P  828   3.170   5.041  10.022
   27DC     O2P  829   3.018   5.211  10.117
   27DC     O5'  830   3.254   5.213  10.188
   27DC     C5'  831   3.394   5.192  10.181
   27DC    H5'1  832   3.434   5.254  10.101
   27DC    H5'2  833   3.412   5.086  10.164
   27DC     C4'  834   3.461   5.225  10.317
   27DC     H4'  835   3.568   5.208  10.313
   27DC     O4'  836   3.446   5.359  10.343
   27DC     C1'  837   3.404   5.378  10.480
   27DC     H1'  838   3.487   5.375  10.550
   27DC      N1  839   3.339   5.505  10.488
   27DC      C6  840   3.221   5.529  10.418
   27DC      H6  841   3.179   5.452  10.354
   27DC      C5  842   3.163   5.651  10.423
   27DC      H5  843   3.073   5.679  10.369
   27DC      C4  844   3.219   5.748  10.510
   27DC      N4  845   3.168   5.868  10.514
   27DC     H41  846   3.206   5.935  10.579
   27DC     H42  847   3.095   5.902  10.453
   27DC      N3  848   3.328   5.733  10.587
   27DC      C2  849   3.387   5.606  10.574
   27DC      O2  850   3.487   5.589  10.646
   27DC     C3'  851   3.403   5.148  10.434
   27DC     H3'  852   3.346   5.065  10.392
   27DC     C2'  853   3.313   5.250  10.506
   27DC    H2'1  854   3.217   5.262  10.456
   27DC    H2'2  855   3.296   5.227  10.611
   27DC     O3'  856   3.511   5.098  10.513
   28DA       P  857   3.490   5.023  10.656
   28DA     O1P  858   3.597   4.929  10.687
   28DA     O2P  859   3.346   4.975  10.657
   28DA     O5'  860   3.505   5.150  10.761
   28DA     C5'  861   3.626   5.223  10.778
   28DA    H5'1  862   3.638   5.304  10.706
   28DA    H5'2  863   3.709   5.153  10.775
   28DA     C4'  864   3.641   5.286  10.918
   28DA     H4'  865   3.747   5.297  10.943
   28DA     O4'  866   3.598   5.421  10.929
   28DA     C1'  867   3.489   5.433  11.022
   28DA     H1'  868   3.521   5.486  11.112
   28DA      N9  869   3.369   5.496  10.955
   28DA      C8  870   3.290   5.438  10.861
   28DA      H8  871   3.300   5.336  10.828
   28DA      N7  872   3.203   5.526  10.805
   28DA      C5  873   3.225   5.643  10.874
   28DA      C6  874   3.162   5.766  10.880
   28DA      N6  875   3.063   5.797  10.800
   28DA     H61  876   3.021   5.887  10.816
   28DA     H62  877   3.043   5.741  10.718
   28DA      N1  878   3.204   5.857  10.969
   28DA      C2  879   3.306   5.831  11.051
   28DA      H2  880   3.322   5.906  11.127
   28DA      N3  881   3.364   5.717  11.060
   28DA      C4  882   3.322   5.625  10.967
   28DA     C3'  883   3.578   5.201  11.034
   28DA     H3'  884   3.543   5.106  10.994
   28DA     C2'  885   3.458   5.286  11.059
   28DA    H2'1  886   3.387   5.246  10.987
   28DA    H2'2  887   3.410   5.273  11.156
   28DA     O3'  888   3.662   5.191  11.145
   29DT       P  889   3.624   5.113  11.282
   29DT     O1P  890   3.748   5.074  11.342
   29DT     O2P  891   3.510   5.019  11.259
   29DT     O5'  892   3.563   5.227  11.377
   29DT     C5'  893   3.626   5.354  11.392
   29DT    H5'1  894   3.677   5.385  11.301
   29DT    H5'2  895   3.712   5.343  11.457
   29DT     C4'  896   3.542   5.465  11.444
   29DT     H4'  897   3.608   5.549  11.463
   29DT     O4'  898   3.442   5.509  11.355
   29DT     C1'  899   3.320   5.521  11.428
   29DT     H1'  900   3.320   5.612  11.488
   29DT      N1  901   3.205   5.517  11.324
   29DT      C6  902   3.163   5.404  11.254
   29DT      H6  903   3.202   5.307  11.282
   29DT      C5  904   3.056   5.415  11.165
   29DT      C7  905   3.018   5.287  11.091
   29DT     H71  906   3.085   5.204  11.115
   29DT     H72  907   2.911   5.265  11.092
   29DT     H73  908   3.037   5.303  10.985
   29DT      C4  909   2.994   5.544  11.126
   29DT      O4  910   2.900   5.567  11.045
   29DT      N3  911   3.040   5.646  11.199
   29DT      H3  912   2.989   5.733  11.199
   29DT      C2  913   3.141   5.639  11.290
   29DT      O2  914   3.167   5.747  11.349
   29DT     C3'  915   3.471   5.436  11.580
   29DT     H3'  916   3.521   5.351  11.627
   29DT     C2'  917   3.334   5.403  11.520
   29DT    H2'1  918   3.334   5.301  11.482
   29DT    H2'2  919   3.258   5.403  11.597
   29DT     O3'  920   3.463   5.541  11.676
   30DA       P  921   3.466   5.505  11.831
   30DA     O1P  922   3.600   5.489  11.876
   30DA     O2P  923   3.369   5.392  11.843
   30DA     O5'  924   3.403   5.626  11.916
   30DA     C5'  925   3.471   5.753  11.910
   30DA    H5'1  926   3.495   5.769  11.805
   30DA    H5'2  927   3.562   5.747  11.971
   30DA     C4'  928   3.386   5.871  11.958
   30DA     H4'  929   3.454   5.955  11.970
   30DA     O4'  930   3.286   5.889  11.864
   30DA     C1'  931   3.166   5.843  11.916
   30DA     H1'  932   3.115   5.938  11.933
   30DA      N9  933   3.090   5.757  11.821
   30DA      C8  934   3.098   5.624  11.805
   30DA      H8  935   3.160   5.560  11.866
   30DA      N7  936   3.019   5.567  11.719
   30DA      C5  937   2.965   5.677  11.657
   30DA      C6  938   2.879   5.697  11.548
   30DA      N6  939   2.803   5.605  11.482
   30DA     H61  940   2.753   5.632  11.398
   30DA     H62  941   2.809   5.513  11.525
   30DA      N1  942   2.851   5.823  11.508
   30DA      C2  943   2.899   5.924  11.570
   30DA      H2  944   2.887   6.021  11.525
   30DA      N3  945   2.988   5.920  11.672
   30DA      C4  946   3.020   5.795  11.711
   30DA     C3'  947   3.319   5.843  12.092
   30DA     H3'  948   3.367   5.763  12.148
   30DA     C2'  949   3.183   5.785  12.050
   30DA    H2'1  950   3.177   5.676  12.060
   30DA    H2'2  951   3.109   5.834  12.113
   30DA     O3'  952   3.323   5.954  12.181
   31DT       P  953   3.219   5.990  12.292
   31DT     O1P  954   3.283   6.098  12.367
   31DT     O2P  955   3.189   5.865  12.359
   31DT     O5'  956   3.075   6.034  12.231
   31DT     C5'  957   3.068   6.147  12.144
   31DT    H5'1  958   3.150   6.137  12.072
   31DT    H5'2  959   3.088   6.235  12.204
   31DT     C4'  960   2.930   6.167  12.072
   31DT     H4'  961   2.931   6.264  12.022
   31DT     O4'  962   2.902   6.060  11.982
   31DT     C1'  963   2.766   6.016  12.002
   31DT     H1'  964   2.708   6.093  11.951
   31DT      N1  965   2.742   5.881  11.944
   31DT      C6  966   2.803   5.766  11.999
   31DT      H6  967   2.847   5.764  12.098
   31DT      C5  968   2.785   5.646  11.941
   31DT      C7  969   2.815   5.522  12.026
   31DT     H71  970   2.893   5.459  11.984
   31DT     H72  971   2.852   5.550  12.125
   31DT     H73  972   2.724   5.462  12.026
   31DT      C4  973   2.715   5.628  11.814
   31DT      O4  974   2.688   5.523  11.753
   31DT      N3  975   2.666   5.745  11.759
   31DT      H3  976   2.603   5.735  11.681
   31DT      C2  977   2.668   5.872  11.825
   31DT      O2  978   2.613   5.963  11.765
   31DT     C3'  979   2.817   6.163  12.180
   31DT     H3'  980   2.850   6.170  12.284
   31DT     C2'  981   2.749   6.031  12.151
   31DT    H2'1  982   2.796   5.953  12.212
   31DT    H2'2  983   2.644   6.034  12.180
   31DT     O3'  984   2.724   6.266  12.143
   32DG       P  985   2.625   6.343  12.248
   32DG     O1P  986   2.664   6.486  12.265
   32DG     O2P  987   2.607   6.265  12.375
   32DG     O5'  988   2.487   6.338  12.164
   32DG     C5'  989   2.454   6.439  12.063
   32DG    H5'1  990   2.518   6.412  11.979
   32DG    H5'2  991   2.466   6.538  12.106
   32DG     C4'  992   2.313   6.428  12.008
   32DG     H4'  993   2.288   6.515  11.946
   32DG     O4'  994   2.303   6.305  11.943
   32DG     C1'  995   2.220   6.213  12.011
   32DG     H1'  996   2.122   6.200  11.966
   32DG      N9  997   2.281   6.077  12.046
   32DG      C8  998   2.381   6.035  12.133
   32DG      H8  999   2.440   6.107  12.188
   32DG      N7 1000   2.402   5.905  12.140
   32DG      C5 1001   2.309   5.846  12.057
   32DG      C6 1002   2.276   5.716  12.021
   32DG      O6 1003   2.324   5.608  12.062
   32DG      N1 1004   2.167   5.707  11.945
   32DG      H1 1005   2.141   5.618  11.904
   32DG      C2 1006   2.101   5.813  11.887
   32DG      N2 1007   2.004   5.786  11.802
   32DG     H21 1008   1.997   5.689  11.775
   32DG     H22 1009   1.953   5.860  11.757
   32DG      N3 1010   2.132   5.940  11.914
   32DG      C4 1011   2.240   5.952  11.994
   32DG     C3' 1012   2.208   6.424  12.118
   32DG     H3' 1013   2.243   6.476  12.207
   32DG     C2' 1014   2.194   6.271  12.148
   32DG    H2'1 1015   2.257   6.238  12.230
   32DG    H2'2 1016   2.095   6.251  12.189
   32DG     O3' 1017   2.089   6.469  12.066
   33DC3      P 1018   1.963   6.501  12.162
   33DC3    O1P 1019   1.886   6.623  12.118
   33DC3    O2P 1020   2.003   6.479  12.302
   33DC3    O5' 1021   1.880   6.366  12.121
   33DC3    C5' 1022   1.830   6.351  11.987
   33DC3   H5'1 1023   1.916   6.341  11.922
   33DC3   H5'2 1024   1.761   6.431  11.963
   33DC3    C4' 1025   1.755   6.215  11.972
   33DC3    H4' 1026   1.720   6.203  11.869
   33DC3    O4' 1027   1.841   6.106  12.004
   33DC3    C1' 1028   1.771   6.025  12.093
   33DC3    H1' 1029   1.715   5.957  12.029
   33DC3     N1 1030   1.874   5.942  12.167
   33DC3     C6 1031   1.941   5.992  12.276
   33DC3     H6 1032   1.926   6.096  12.300
   33DC3     C5 1033   2.036   5.916  12.333
   33DC3     H5 1034   2.097   5.950  12.415
   33DC3     C4 1035   2.044   5.783  12.293
   33DC3     N4 1036   2.137   5.713  12.344
   33DC3    H41 1037   2.147   5.614  12.322
   33DC3    H42 1038   2.205   5.762  12.400
   33DC3     N3 1039   1.973   5.722  12.201
   33DC3     C2 1040   1.880   5.805  12.144
   33DC3     O2 1041   1.809   5.748  12.059
   33DC3    C3' 1042   1.636   6.213  12.063
   33DC3    H3' 1043   1.614   6.316  12.091
   33DC3    C2' 1044   1.676   6.115  12.170
   33DC3   H2'1 1045   1.731   6.162  12.251
   33DC3   H2'2 1046   1.590   6.055  12.199
   33DC3    O3' 1047   1.523   6.162  11.993
   33DC3    H3T 1048   1.446   6.159  12.049
   34DG5    H5T 1049   1.953   4.474  11.962
   34DG5    O5' 1050   1.969   4.544  11.898
   34DG5    C5' 1051   1.960   4.667  11.966
   34DG5   H5'1 1052   2.043   4.683  12.035
   34DG5   H5'2 1053   1.863   4.672  12.016
   34DG5    C4' 1054   1.948   4.788  11.867
   34DG5    H4' 1055   1.853   4.774  11.814
   34DG5    O4' 1056   1.941   4.903  11.950
   34DG5    C1' 1057   2.056   4.988  11.914
   34DG5    H1' 1058   2.028   5.062  11.839
   34DG5     N9 1059   2.105   5.073  12.028
   34DG5     C8 1060   2.192   5.043  12.132
   34DG5     H8 1061   2.235   4.945  12.147
   34DG5     N7 1062   2.211   5.141  12.216
   34DG5     C5 1063   2.128   5.244  12.171
   34DG5     C6 1064   2.109   5.385  12.208
   34DG5     O6 1065   2.171   5.445  12.293
   34DG5     N1 1066   2.010   5.443  12.128
   34DG5     H1 1067   2.007   5.543  12.143
   34DG5     C2 1068   1.942   5.381  12.022
   34DG5     N2 1069   1.846   5.444  11.962
   34DG5    H21 1070   1.824   5.542  11.974
   34DG5    H22 1071   1.788   5.396  11.895
   34DG5     N3 1072   1.959   5.262  11.981
   34DG5     C4 1073   2.057   5.200  12.060
   34DG5    C3' 1074   2.070   4.808  11.773
   34DG5    H3' 1075   2.121   4.713  11.755
   34DG5    C2' 1076   2.162   4.896  11.849
   34DG5   H2'1 1077   2.214   4.835  11.923
   34DG5   H2'2 1078   2.232   4.950  11.786
   34DG5    O3' 1079   2.028   4.878  11.657
   35DC       P 1080   2.013   4.820  11.513
   35DC     O1P 1081   1.939   4.693  11.526
   35DC     O2P 1082   2.151   4.813  11.468
   35DC     O5' 1083   1.928   4.929  11.435
   35DC     C5' 1084   1.800   4.971  11.483
   35DC    H5'1 1085   1.781   4.930  11.583
   35DC    H5'2 1086   1.731   4.909  11.426
   35DC     C4' 1087   1.772   5.122  11.480
   35DC     H4' 1088   1.666   5.139  11.501
   35DC     O4' 1089   1.851   5.185  11.580
   35DC     C1' 1090   1.934   5.287  11.533
   35DC     H1' 1091   1.877   5.380  11.525
   35DC      N1 1092   2.054   5.303  11.626
   35DC      C6 1093   2.150   5.208  11.633
   35DC      H6 1094   2.141   5.121  11.570
   35DC      C5 1095   2.257   5.233  11.706
   35DC      H5 1096   2.340   5.164  11.704
   35DC      C4 1097   2.264   5.360  11.776
   35DC      N4 1098   2.372   5.379  11.844
   35DC     H41 1099   2.378   5.477  11.870
   35DC     H42 1100   2.436   5.305  11.866
   35DC      N3 1101   2.174   5.456  11.768
   35DC      C2 1102   2.065   5.431  11.693
   35DC      O2 1103   1.981   5.519  11.678
   35DC     C3' 1104   1.824   5.181  11.351
   35DC     H3' 1105   1.833   5.115  11.265
   35DC     C2' 1106   1.965   5.239  11.396
   35DC    H2'1 1107   2.042   5.161  11.392
   35DC    H2'2 1108   1.996   5.318  11.327
   35DC     O3' 1109   1.743   5.294  11.311
   36DA       P 1110   1.758   5.375  11.173
   36DA     O1P 1111   1.617   5.392  11.121
   36DA     O2P 1112   1.852   5.298  11.088
   36DA     O5' 1113   1.823   5.519  11.202
   36DA     C5' 1114   1.791   5.602  11.310
   36DA    H5'1 1115   1.846   5.570  11.400
   36DA    H5'2 1116   1.685   5.586  11.330
   36DA     C4' 1117   1.814   5.753  11.290
   36DA     H4' 1118   1.723   5.806  11.318
   36DA     O4' 1119   1.916   5.796  11.380
   36DA     C1' 1120   2.038   5.788  11.315
   36DA     H1' 1121   2.095   5.879  11.338
   36DA      N9 1122   2.117   5.676  11.352
   36DA      C8 1123   2.129   5.554  11.291
   36DA      H8 1124   2.073   5.521  11.204
   36DA      N7 1125   2.229   5.482  11.335
   36DA      C5 1126   2.287   5.567  11.429
   36DA      C6 1127   2.404   5.561  11.514
   36DA      N6 1128   2.502   5.470  11.509
   36DA     H61 1129   2.568   5.473  11.586
   36DA     H62 1130   2.491   5.389  11.450
   36DA      N1 1131   2.432   5.657  11.603
   36DA      C2 1132   2.347   5.757  11.609
   36DA      H2 1133   2.371   5.826  11.688
   36DA      N3 1134   2.241   5.785  11.535
   36DA      C4 1135   2.218   5.685  11.444
   36DA     C3' 1136   1.852   5.800  11.153
   36DA     H3' 1137   1.821   5.718  11.089
   36DA     C2' 1138   2.004   5.792  11.165
   36DA    H2'1 1139   2.030   5.704  11.107
   36DA    H2'2 1140   2.056   5.878  11.123
   36DA     O3' 1141   1.794   5.925  11.123
   37DT       P 1142   1.846   6.023  11.005
   37DT     O1P 1143   1.728   6.107  10.984
   37DT     O2P 1144   1.910   5.946  10.895
   37DT     O5' 1145   1.961   6.115  11.071
   37DT     C5' 1146   1.940   6.191  11.188
   37DT    H5'1 1147   1.890   6.140  11.271
   37DT    H5'2 1148   1.895   6.285  11.157
   37DT     C4' 1149   2.074   6.220  11.247
   37DT     H4' 1150   2.044   6.275  11.337
   37DT     O4' 1151   2.153   6.100  11.286
   37DT     C1' 1152   2.290   6.136  11.261
   37DT     H1' 1153   2.320   6.216  11.328
   37DT      N1 1154   2.378   6.017  11.266
   37DT      C6 1155   2.355   5.911  11.180
   37DT      H6 1156   2.272   5.919  11.111
   37DT      C5 1157   2.437   5.805  11.178
   37DT      C7 1158   2.416   5.695  11.065
   37DT     H71 1159   2.415   5.600  11.117
   37DT     H72 1160   2.326   5.705  11.005
   37DT     H73 1161   2.507   5.701  11.004
   37DT      C4 1162   2.550   5.792  11.270
   37DT      O4 1163   2.620   5.695  11.276
   37DT      N3 1164   2.561   5.899  11.358
   37DT      H3 1165   2.640   5.883  11.419
   37DT      C2 1166   2.483   6.014  11.363
   37DT      O2 1167   2.502   6.112  11.440
   37DT     C3' 1168   2.164   6.298  11.152
   37DT     H3' 1169   2.120   6.312  11.053
   37DT     C2' 1170   2.281   6.208  11.126
   37DT    H2'1 1171   2.258   6.136  11.047
   37DT    H2'2 1172   2.374   6.263  11.119
   37DT     O3' 1173   2.206   6.421  11.213
   38DA       P 1174   2.279   6.533  11.131
   38DA     O1P 1175   2.227   6.653  11.191
   38DA     O2P 1176   2.264   6.503  10.985
   38DA     O5' 1177   2.438   6.518  11.177
   38DA     C5' 1178   2.467   6.518  11.315
   38DA    H5'1 1179   2.425   6.433  11.369
   38DA    H5'2 1180   2.423   6.601  11.370
   38DA     C4' 1181   2.614   6.520  11.358
   38DA     H4' 1182   2.624   6.551  11.461
   38DA     O4' 1183   2.671   6.389  11.352
   38DA     C1' 1184   2.773   6.385  11.262
   38DA     H1' 1185   2.871   6.366  11.305
   38DA      N9 1186   2.747   6.266  11.173
   38DA      C8 1187   2.641   6.242  11.089
   38DA      H8 1188   2.559   6.310  11.071
   38DA      N7 1189   2.643   6.119  11.030
   38DA      C5 1190   2.752   6.058  11.087
   38DA      C6 1191   2.816   5.930  11.078
   38DA      N6 1192   2.780   5.828  11.001
   38DA     H61 1193   2.830   5.741  11.002
   38DA     H62 1194   2.703   5.840  10.936
   38DA      N1 1195   2.930   5.906  11.140
   38DA      C2 1196   2.972   5.992  11.228
   38DA      H2 1197   3.056   5.960  11.289
   38DA      N3 1198   2.923   6.113  11.256
   38DA      C4 1199   2.816   6.147  11.177
   38DA     C3' 1200   2.697   6.616  11.271
   38DA     H3' 1201   2.623   6.675  11.217
   38DA     C2' 1202   2.775   6.515  11.181
   38DA    H2'1 1203   2.746   6.503  11.077
   38DA    H2'2 1204   2.879   6.547  11.170
   38DA     O3' 1205   2.775   6.705  11.354
   39DT       P 1206   2.878   6.810  11.287
   39DT     O1P 1207   2.886   6.926  11.380
   39DT     O2P 1208   2.845   6.820  11.144
   39DT     O5' 1209   3.008   6.731  11.313
   39DT     C5' 1210   3.121   6.754  11.231
   39DT    H5'1 1211   3.166   6.851  11.253
   39DT    H5'2 1212   3.092   6.763  11.126
   39DT     C4' 1213   3.210   6.641  11.253
   39DT     H4' 1214   3.235   6.639  11.359
   39DT     O4' 1215   3.137   6.532  11.211
   39DT     C1' 1216   3.221   6.431  11.159
   39DT     H1' 1217   3.259   6.378  11.246
   39DT      N1 1218   3.154   6.349  11.056
   39DT      C6 1219   3.060   6.407  10.969
   39DT      H6 1220   3.039   6.512  10.983
   39DT      C5 1221   3.001   6.327  10.881
   39DT      C7 1222   2.894   6.392  10.794
   39DT     H71 1223   2.884   6.499  10.807
   39DT     H72 1224   2.902   6.369  10.687
   39DT     H73 1225   2.801   6.349  10.833
   39DT      C4 1226   3.021   6.188  10.871
   39DT      O4 1227   2.954   6.108  10.807
   39DT      N3 1228   3.120   6.136  10.953
   39DT      H3 1229   3.156   6.043  10.943
   39DT      C2 1230   3.183   6.209  11.048
   39DT      O2 1231   3.255   6.155  11.127
   39DT     C3' 1232   3.337   6.647  11.164
   39DT     H3' 1233   3.327   6.730  11.094
   39DT     C2' 1234   3.327   6.514  11.094
   39DT    H2'1 1235   3.298   6.533  10.990
   39DT    H2'2 1236   3.423   6.463  11.105
   39DT     O3' 1237   3.457   6.663  11.230
   40DG       P 1238   3.586   6.705  11.134
   40DG     O1P 1239   3.668   6.792  11.214
   40DG     O2P 1240   3.546   6.742  11.002
   40DG     O5' 1241   3.663   6.560  11.127
   40DG     C5' 1242   3.685   6.482  11.242
   40DG    H5'1 1243   3.585   6.462  11.279
   40DG    H5'2 1244   3.726   6.535  11.328
   40DG     C4' 1245   3.770   6.357  11.213
   40DG     H4' 1246   3.798   6.312  11.309
   40DG     O4' 1247   3.686   6.268  11.140
   40DG     C1' 1248   3.734   6.235  11.015
   40DG     H1' 1249   3.792   6.143  11.008
   40DG      N9 1250   3.622   6.246  10.917
   40DG      C8 1251   3.549   6.349  10.874
   40DG      H8 1252   3.580   6.452  10.885
   40DG      N7 1253   3.439   6.316  10.810
   40DG      C5 1254   3.444   6.177  10.809
   40DG      C6 1255   3.364   6.082  10.739
   40DG      O6 1256   3.262   6.100  10.674
   40DG      N1 1257   3.410   5.951  10.745
   40DG      H1 1258   3.368   5.877  10.691
   40DG      C2 1259   3.521   5.921  10.813
   40DG      N2 1260   3.558   5.794  10.811
   40DG     H21 1261   3.509   5.732  10.748
   40DG     H22 1262   3.637   5.770  10.869
   40DG      N3 1263   3.596   6.011  10.884
   40DG      C4 1264   3.554   6.134  10.872
   40DG     C3' 1265   3.895   6.374  11.129
   40DG     H3' 1266   3.939   6.473  11.140
   40DG     C2' 1267   3.842   6.343  10.987
   40DG    H2'1 1268   3.809   6.442  10.955
   40DG    H2'2 1269   3.916   6.301  10.919
   40DG     O3' 1270   3.986   6.271  11.160
   41DC       P 1271   4.139   6.263  11.111
   41DC     O1P 1272   4.219   6.206  11.215
   41DC     O2P 1273   4.181   6.391  11.052
   41DC     O5' 1274   4.125   6.157  10.994
   41DC     C5' 1275   4.094   6.018  11.018
   41DC    H5'1 1276   4.002   6.005  11.075
   41DC    H5'2 1277   4.171   5.972  11.080
   41DC     C4' 1278   4.071   5.943  10.888
   41DC     H4' 1279   4.076   5.836  10.910
   41DC     O4' 1280   3.940   5.970  10.840
   41DC     C1' 1281   3.957   5.972  10.700
   41DC     H1' 1282   3.976   5.867  10.677
   41DC      N1 1283   3.841   6.038  10.624
   41DC      C6 1284   3.826   6.173  10.643
   41DC      H6 1285   3.890   6.218  10.717
   41DC      C5 1286   3.734   6.247  10.568
   41DC      H5 1287   3.725   6.354  10.574
   41DC      C4 1288   3.654   6.173  10.476
   41DC      N4 1289   3.570   6.242  10.411
   41DC     H41 1290   3.498   6.192  10.360
   41DC     H42 1291   3.548   6.335  10.445
   41DC      N3 1292   3.663   6.041  10.459
   41DC      C2 1293   3.756   5.973  10.530
   41DC      O2 1294   3.767   5.849  10.523
   41DC     C3' 1295   4.176   5.965  10.782
   41DC     H3' 1296   4.261   6.021  10.823
   41DC     C2' 1297   4.090   6.048  10.688
   41DC    H2'1 1298   4.084   6.148  10.731
   41DC    H2'2 1299   4.134   6.045  10.589
   41DC     O3' 1300   4.225   5.841  10.736
   42DG       P 1301   4.310   5.814  10.599
   42DG     O1P 1302   4.403   5.705  10.616
   42DG     O2P 1303   4.362   5.943  10.540
   42DG     O5' 1304   4.198   5.768  10.493
   42DG     C5' 1305   4.109   5.661  10.518
   42DG    H5'1 1306   4.027   5.693  10.581
   42DG    H5'2 1307   4.158   5.585  10.579
   42DG     C4' 1308   4.059   5.583  10.398
   42DG     H4' 1309   4.029   5.482  10.425
   42DG     O4' 1310   3.949   5.643  10.334
   42DG     C1' 1311   3.994   5.702  10.208
   42DG     H1' 1312   3.939   5.662  10.123
   42DG      N9 1313   3.952   5.842  10.207
   42DG      C8 1314   4.000   5.951  10.279
   42DG      H8 1315   4.085   5.941  10.345
   42DG      N7 1316   3.934   6.063  10.262
   42DG      C5 1317   3.838   6.035  10.168
   42DG      C6 1318   3.731   6.111  10.118
   42DG      O6 1319   3.699   6.232  10.126
   42DG      N1 1320   3.649   6.042  10.028
   42DG      H1 1321   3.572   6.091   9.985
   42DG      C2 1322   3.657   5.907  10.006
   42DG      N2 1323   3.572   5.855   9.914
   42DG     H21 1324   3.505   5.913   9.865
   42DG     H22 1325   3.575   5.755   9.902
   42DG      N3 1326   3.750   5.824  10.066
   42DG      C4 1327   3.841   5.897  10.141
   42DG     C3' 1328   4.170   5.574  10.294
   42DG     H3' 1329   4.270   5.584  10.338
   42DG     C2' 1330   4.145   5.688  10.199
   42DG    H2'1 1331   4.200   5.777  10.231
   42DG    H2'2 1332   4.187   5.666  10.101
   42DG     O3' 1333   4.167   5.447  10.232
   43DT       P 1334   4.256   5.410  10.100
   43DT     O1P 1335   4.266   5.260  10.091
   43DT     O2P 1336   4.373   5.502  10.093
   43DT     O5' 1337   4.151   5.455   9.996
   43DT     C5' 1338   4.025   5.385   9.990
   43DT    H5'1 1339   3.974   5.395  10.086
   43DT    H5'2 1340   4.042   5.280   9.964
   43DT     C4' 1341   3.929   5.455   9.886
   43DT     H4' 1342   3.838   5.396   9.879
   43DT     O4' 1343   3.897   5.592   9.911
   43DT     C1' 1344   3.895   5.662   9.789
   43DT     H1' 1345   3.795   5.657   9.746
   43DT      N1 1346   3.939   5.802   9.809
   43DT      C6 1347   4.060   5.829   9.876
   43DT      H6 1348   4.117   5.743   9.910
   43DT      C5 1349   4.094   5.959   9.892
   43DT      C7 1350   4.227   5.982   9.969
   43DT     H71 1351   4.219   5.933  10.066
   43DT     H72 1352   4.312   5.936   9.918
   43DT     H73 1353   4.244   6.089   9.986
   43DT      C4 1354   4.004   6.068   9.859
   43DT      O4 1355   4.017   6.185   9.897
   43DT      N3 1356   3.897   6.033   9.794
   43DT      H3 1357   3.836   6.108   9.765
   43DT      C2 1358   3.864   5.909   9.756
   43DT      O2 1359   3.778   5.871   9.673
   43DT     C3' 1360   3.992   5.438   9.748
   43DT     H3' 1361   4.096   5.405   9.750
   43DT     C2' 1362   3.985   5.584   9.693
   43DT    H2'1 1363   4.082   5.634   9.695
   43DT    H2'2 1364   3.949   5.600   9.592
   43DT     O3' 1365   3.929   5.335   9.674
   44DA       P 1366   3.963   5.296   9.526
   44DA     O1P 1367   3.900   5.166   9.493
   44DA     O2P 1368   4.111   5.318   9.502
   44DA     O5' 1369   3.893   5.404   9.439
   44DA     C5' 1370   3.754   5.407   9.414
   44DA    H5'1 1371   3.726   5.304   9.390
   44DA    H5'2 1372   3.696   5.441   9.500
   44DA     C4' 1373   3.711   5.490   9.287
   44DA     H4' 1374   3.605   5.468   9.276
   44DA     O4' 1375   3.736   5.626   9.310
   44DA     C1' 1376   3.835   5.669   9.223
   44DA     H1' 1377   3.794   5.742   9.153
   44DA      N9 1378   3.933   5.741   9.301
   44DA      C8 1379   4.040   5.693   9.376
   44DA      H8 1380   4.080   5.593   9.382
   44DA      N7 1381   4.099   5.789   9.443
   44DA      C5 1382   4.031   5.907   9.413
   44DA      C6 1383   4.045   6.043   9.451
   44DA      N6 1384   4.129   6.096   9.535
   44DA     H61 1385   4.110   6.193   9.555
   44DA     H62 1386   4.180   6.033   9.596
   44DA      N1 1387   3.957   6.126   9.407
   44DA      C2 1388   3.860   6.085   9.326
   44DA      H2 1389   3.786   6.160   9.301
   44DA      N3 1390   3.834   5.966   9.277
   44DA      C4 1391   3.928   5.876   9.329
   44DA     C3' 1392   3.785   5.460   9.159
   44DA     H3' 1393   3.834   5.362   9.163
   44DA     C2' 1394   3.898   5.553   9.146
   44DA    H2'1 1395   3.990   5.520   9.193
   44DA    H2'2 1396   3.915   5.582   9.042
   44DA     O3' 1397   3.689   5.457   9.050
   45DC       P 1398   3.734   5.394   8.909
   45DC     O1P 1399   3.618   5.325   8.851
   45DC     O2P 1400   3.864   5.325   8.926
   45DC     O5' 1401   3.769   5.529   8.827
   45DC     C5' 1402   3.677   5.627   8.791
   45DC    H5'1 1403   3.612   5.660   8.873
   45DC    H5'2 1404   3.620   5.581   8.710
   45DC     C4' 1405   3.744   5.749   8.740
   45DC     H4' 1406   3.664   5.807   8.693
   45DC     O4' 1407   3.804   5.823   8.852
   45DC     C1' 1408   3.934   5.867   8.809
   45DC     H1' 1409   3.914   5.960   8.756
   45DC      N1 1410   4.022   5.891   8.924
   45DC      C6 1411   4.111   5.800   8.976
   45DC      H6 1412   4.134   5.705   8.930
   45DC      C5 1413   4.193   5.830   9.077
   45DC      H5 1414   4.270   5.763   9.111
   45DC      C4 1415   4.194   5.961   9.130
   45DC      N4 1416   4.274   5.993   9.230
   45DC     H41 1417   4.276   6.089   9.262
   45DC     H42 1418   4.348   5.930   9.257
   45DC      N3 1419   4.113   6.053   9.081
   45DC      C2 1420   4.023   6.020   8.983
   45DC      O2 1421   3.937   6.103   8.959
   45DC     C3' 1422   3.848   5.725   8.625
   45DC     H3' 1423   3.851   5.627   8.579
   45DC     C2' 1424   3.970   5.754   8.709
   45DC    H2'1 1425   4.001   5.659   8.754
   45DC    H2'2 1426   4.054   5.772   8.642
   45DC     O3' 1427   3.844   5.827   8.518
   46DA       P 1428   3.730   5.823   8.417
   46DA     O1P 1429   3.600   5.782   8.466
   46DA     O2P 1430   3.781   5.760   8.297
   46DA     O5' 1431   3.706   5.979   8.386
   46DA     C5' 1432   3.673   6.075   8.486
   46DA    H5'1 1433   3.578   6.116   8.452
   46DA    H5'2 1434   3.657   6.023   8.581
   46DA     C4' 1435   3.783   6.176   8.513
   46DA     H4' 1436   3.737   6.262   8.560
   46DA     O4' 1437   3.889   6.132   8.592
   46DA     C1' 1438   4.006   6.189   8.537
   46DA     H1' 1439   4.007   6.293   8.572
   46DA      N9 1440   4.125   6.130   8.600
   46DA      C8 1441   4.190   6.010   8.564
   46DA      H8 1442   4.164   5.950   8.477
   46DA      N7 1443   4.289   5.984   8.640
   46DA      C5 1444   4.290   6.087   8.735
   46DA      C6 1445   4.376   6.130   8.836
   46DA      N6 1446   4.480   6.060   8.878
   46DA     H61 1447   4.537   6.107   8.946
   46DA     H62 1448   4.511   5.973   8.837
   46DA      N1 1449   4.358   6.247   8.904
   46DA      C2 1450   4.254   6.323   8.869
   46DA      H2 1451   4.254   6.421   8.915
   46DA      N3 1452   4.176   6.303   8.763
   46DA      C4 1453   4.196   6.183   8.704
   46DA     C3' 1454   3.841   6.230   8.379
   46DA     H3' 1455   3.784   6.183   8.299
   46DA     C2' 1456   3.987   6.190   8.387
   46DA    H2'1 1457   4.003   6.091   8.345
   46DA    H2'2 1458   4.066   6.246   8.337
   46DA     O3' 1459   3.819   6.370   8.378
   47DA       P 1460   3.857   6.462   8.247
   47DA     O1P 1461   3.727   6.501   8.190
   47DA     O2P 1462   3.955   6.387   8.165
   47DA     O5' 1463   3.934   6.589   8.310
   47DA     C5' 1464   3.871   6.675   8.404
   47DA    H5'1 1465   3.829   6.630   8.493
   47DA    H5'2 1466   3.798   6.732   8.347
   47DA     C4' 1467   3.976   6.772   8.460
   47DA     H4' 1468   3.930   6.850   8.522
   47DA     O4' 1469   4.068   6.694   8.543
   47DA     C1' 1470   4.201   6.706   8.500
   47DA     H1' 1471   4.244   6.772   8.575
   47DA      N9 1472   4.261   6.571   8.504
   47DA      C8 1473   4.225   6.458   8.429
   47DA      H8 1474   4.137   6.467   8.367
   47DA      N7 1475   4.297   6.348   8.452
   47DA      C5 1476   4.391   6.402   8.544
   47DA      C6 1477   4.507   6.354   8.602
   47DA      N6 1478   4.551   6.231   8.576
   47DA     H61 1479   4.645   6.212   8.608
   47DA     H62 1480   4.503   6.165   8.518
   47DA      N1 1481   4.587   6.431   8.677
   47DA      C2 1482   4.545   6.552   8.705
   47DA      H2 1483   4.607   6.607   8.775
   47DA      N3 1484   4.442   6.614   8.658
   47DA      C4 1485   4.369   6.533   8.576
   47DA     C3' 1486   4.058   6.845   8.352
   47DA     H3' 1487   4.008   6.842   8.255
   47DA     C2' 1488   4.185   6.766   8.355
   47DA    H2'1 1489   4.183   6.686   8.281
   47DA    H2'2 1490   4.271   6.822   8.319
   47DA     O3' 1491   4.084   6.979   8.383
   48DT       P 1492   4.169   7.084   8.287
   48DT     O1P 1493   4.118   7.224   8.308
   48DT     O2P 1494   4.169   7.031   8.149
   48DT     O5' 1495   4.319   7.082   8.345
   48DT     C5' 1496   4.335   7.100   8.483
   48DT    H5'1 1497   4.276   7.032   8.543
   48DT    H5'2 1498   4.308   7.204   8.498
   48DT     C4' 1499   4.481   7.088   8.530
   48DT     H4' 1500   4.494   7.127   8.632
   48DT     O4' 1501   4.523   6.955   8.528
   48DT     C1' 1502   4.650   6.936   8.476
   48DT     H1' 1503   4.729   6.949   8.550
   48DT      N1 1504   4.648   6.798   8.420
   48DT      C6 1505   4.569   6.770   8.314
   48DT      H6 1506   4.505   6.843   8.267
   48DT      C5 1507   4.576   6.647   8.258
   48DT      C7 1508   4.487   6.616   8.140
   48DT     H71 1509   4.429   6.703   8.111
   48DT     H72 1510   4.546   6.574   8.059
   48DT     H73 1511   4.413   6.542   8.170
   48DT      C4 1512   4.651   6.538   8.313
   48DT      O4 1513   4.661   6.426   8.269
   48DT      N3 1514   4.746   6.583   8.396
   48DT      H3 1515   4.822   6.524   8.425
   48DT      C2 1516   4.738   6.697   8.467
   48DT      O2 1517   4.823   6.715   8.557
   48DT     C3' 1518   4.586   7.162   8.444
   48DT     H3' 1519   4.532   7.214   8.365
   48DT     C2' 1520   4.664   7.048   8.379
   48DT    H2'1 1521   4.616   7.028   8.283
   48DT    H2'2 1522   4.768   7.073   8.358
   48DT     O3' 1523   4.667   7.250   8.519
   49DG       P 1524   4.787   7.340   8.459
   49DG     O1P 1525   4.799   7.462   8.539
   49DG     O2P 1526   4.773   7.353   8.310
   49DG     O5' 1527   4.915   7.252   8.486
   49DG     C5' 1528   4.955   7.209   8.610
   49DG    H5'1 1529   4.867   7.171   8.661
   49DG    H5'2 1530   5.000   7.289   8.670
   49DG     C4' 1531   5.065   7.096   8.589
   49DG     H4' 1532   5.093   7.066   8.690
   49DG     O4' 1533   5.022   6.975   8.523
   49DG     C1' 1534   5.127   6.929   8.447
   49DG     H1' 1535   5.208   6.879   8.501
   49DG      N9 1536   5.065   6.831   8.350
   49DG      C8 1537   4.982   6.865   8.248
   49DG      H8 1538   4.938   6.963   8.241
   49DG      N7 1539   4.941   6.755   8.177
   49DG      C5 1540   5.024   6.647   8.226
   49DG      C6 1541   5.044   6.508   8.194
   49DG      O6 1542   4.988   6.441   8.109
   49DG      N1 1543   5.148   6.447   8.258
   49DG      H1 1544   5.159   6.347   8.245
   49DG      C2 1545   5.232   6.505   8.338
   49DG      N2 1546   5.322   6.426   8.382
   49DG     H21 1547   5.330   6.330   8.351
   49DG     H22 1548   5.383   6.469   8.450
   49DG      N3 1549   5.207   6.626   8.391
   49DG      C4 1550   5.107   6.702   8.331
   49DG     C3' 1551   5.192   7.148   8.505
   49DG     H3' 1552   5.186   7.252   8.473
   49DG     C2' 1553   5.178   7.054   8.384
   49DG    H2'1 1554   5.099   7.100   8.325
   49DG    H2'2 1555   5.276   7.034   8.341
   49DG     O3' 1556   5.310   7.129   8.583
   50DT       P 1557   5.455   7.176   8.535
   50DT     O1P 1558   5.526   7.239   8.649
   50DT     O2P 1559   5.440   7.263   8.421
   50DT     O5' 1560   5.531   7.042   8.484
   50DT     C5' 1561   5.540   6.925   8.558
   50DT    H5'1 1562   5.447   6.909   8.614
   50DT    H5'2 1563   5.609   6.930   8.642
   50DT     C4' 1564   5.576   6.804   8.470
   50DT     H4' 1565   5.584   6.721   8.540
   50DT     O4' 1566   5.484   6.770   8.373
   50DT     C1' 1567   5.556   6.720   8.262
   50DT     H1' 1568   5.585   6.615   8.275
   50DT      N1 1569   5.453   6.721   8.157
   50DT      C6 1570   5.391   6.836   8.117
   50DT      H6 1571   5.407   6.931   8.165
   50DT      C5 1572   5.285   6.844   8.032
   50DT      C7 1573   5.215   6.976   8.010
   50DT     H71 1574   5.111   6.961   8.037
   50DT     H72 1575   5.258   7.055   8.071
   50DT     H73 1576   5.214   7.006   7.905
   50DT      C4 1577   5.240   6.720   7.967
   50DT      O4 1578   5.146   6.716   7.891
   50DT      N3 1579   5.308   6.605   8.006
   50DT      H3 1580   5.279   6.514   7.972
   50DT      C2 1581   5.414   6.600   8.091
   50DT      O2 1582   5.475   6.498   8.106
   50DT     C3' 1583   5.703   6.829   8.396
   50DT     H3' 1584   5.742   6.930   8.405
   50DT     C2' 1585   5.675   6.815   8.247
   50DT    H2'1 1586   5.635   6.908   8.208
   50DT    H2'2 1587   5.748   6.773   8.178
   50DT     O3' 1588   5.803   6.743   8.436
   51DA       P 1589   5.955   6.756   8.372
   51DA     O1P 1590   6.039   6.681   8.469
   51DA     O2P 1591   5.983   6.901   8.363
   51DA     O5' 1592   5.963   6.675   8.227
   51DA     C5' 1593   5.917   6.543   8.219
   51DA    H5'1 1594   5.827   6.530   8.280
   51DA    H5'2 1595   6.003   6.492   8.262
   51DA     C4' 1596   5.874   6.496   8.076
   51DA     H4' 1597   5.865   6.388   8.079
   51DA     O4' 1598   5.748   6.552   8.036
   51DA     C1' 1599   5.748   6.538   7.899
   51DA     H1' 1600   5.732   6.435   7.867
   51DA      N9 1601   5.637   6.626   7.836
   51DA      C8 1602   5.600   6.759   7.855
   51DA      H8 1603   5.659   6.832   7.909
   51DA      N7 1604   5.493   6.792   7.787
   51DA      C5 1605   5.447   6.666   7.725
   51DA      C6 1606   5.338   6.621   7.643
   51DA      N6 1607   5.245   6.700   7.600
   51DA     H61 1608   5.176   6.660   7.538
   51DA     H62 1609   5.255   6.799   7.620
   51DA      N1 1610   5.335   6.502   7.595
   51DA      C2 1611   5.437   6.425   7.624
   51DA      H2 1612   5.434   6.325   7.584
   51DA      N3 1613   5.537   6.447   7.708
   51DA      C4 1614   5.537   6.572   7.757
   51DA     C3' 1615   5.980   6.541   7.973
   51DA     H3' 1616   6.051   6.616   8.006
   51DA     C2' 1617   5.886   6.586   7.859
   51DA    H2'1 1618   5.889   6.694   7.851
   51DA    H2'2 1619   5.918   6.548   7.762
   51DA     O3' 1620   6.062   6.428   7.946
   52DT       P 1621   6.184   6.438   7.833
   52DT     O1P 1622   6.297   6.350   7.879
   52DT     O2P 1623   6.206   6.584   7.820
   52DT     O5' 1624   6.136   6.390   7.679
   52DT     C5' 1625   6.098   6.254   7.649
   52DT    H5'1 1626   6.010   6.239   7.713
   52DT    H5'2 1627   6.172   6.181   7.681
   52DT     C4' 1628   6.065   6.243   7.501
   52DT     H4' 1629   6.064   6.136   7.480
   52DT     O4' 1630   5.934   6.287   7.476
   52DT     C1' 1631   5.943   6.382   7.368
   52DT     H1' 1632   5.933   6.334   7.271
   52DT      N1 1633   5.836   6.484   7.386
   52DT      C6 1634   5.859   6.609   7.441
   52DT      H6 1635   5.959   6.640   7.469
   52DT      C5 1636   5.760   6.699   7.457
   52DT      C7 1637   5.788   6.834   7.521
   52DT     H71 1638   5.704   6.865   7.583
   52DT     H72 1639   5.871   6.827   7.591
   52DT     H73 1640   5.814   6.909   7.447
   52DT      C4 1641   5.626   6.668   7.412
   52DT      O4 1642   5.533   6.748   7.418
   52DT      N3 1643   5.608   6.541   7.352
   52DT      H3 1644   5.521   6.507   7.316
   52DT      C2 1645   5.704   6.441   7.353
   52DT      O2 1646   5.669   6.325   7.334
   52DT     C3' 1647   6.166   6.309   7.404
   52DT     H3' 1648   6.260   6.325   7.456
   52DT     C2' 1649   6.086   6.440   7.374
   52DT    H2'1 1650   6.108   6.518   7.447
   52DT    H2'2 1651   6.127   6.474   7.279
   52DT     O3' 1652   6.174   6.242   7.278
   53DA       P 1653   6.317   6.173   7.236
   53DA     O1P 1654   6.343   6.073   7.338
   53DA     O2P 1655   6.414   6.285   7.211
   53DA     O5' 1656   6.292   6.092   7.098
   53DA     C5' 1657   6.188   5.997   7.092
   53DA    H5'1 1658   6.171   5.954   7.190
   53DA    H5'2 1659   6.233   5.911   7.041
   53DA     C4' 1660   6.064   6.045   7.012
   53DA     H4' 1661   5.993   5.962   7.015
   53DA     O4' 1662   6.002   6.156   7.074
   53DA     C1' 1663   5.954   6.240   6.968
   53DA     H1' 1664   5.862   6.194   6.933
   53DA      N9 1665   5.925   6.386   6.986
   53DA      C8 1666   6.011   6.490   7.019
   53DA      H8 1667   6.117   6.469   7.022
   53DA      N7 1668   5.953   6.599   7.060
   53DA      C5 1669   5.814   6.572   7.027
   53DA      C6 1670   5.693   6.646   7.039
   53DA      N6 1671   5.677   6.761   7.110
   53DA     H61 1672   5.587   6.805   7.123
   53DA     H62 1673   5.759   6.818   7.127
   53DA      N1 1674   5.577   6.588   7.016
   53DA      C2 1675   5.575   6.462   6.969
   53DA      H2 1676   5.475   6.424   6.957
   53DA      N3 1677   5.676   6.381   6.945
   53DA      C4 1678   5.798   6.445   6.976
   53DA     C3' 1679   6.106   6.083   6.870
   53DA     H3' 1680   6.211   6.073   6.842
   53DA     C2' 1681   6.063   6.233   6.858
   53DA    H2'1 1682   6.154   6.290   6.880
   53DA    H2'2 1683   6.022   6.258   6.760
   53DA     O3' 1684   6.028   5.986   6.791
   54DA       P 1685   5.957   6.013   6.654
   54DA     O1P 1686   5.921   5.882   6.598
   54DA     O2P 1687   6.049   6.099   6.579
   54DA     O5' 1688   5.822   6.097   6.671
   54DA     C5' 1689   5.693   6.042   6.698
   54DA    H5'1 1690   5.664   6.071   6.799
   54DA    H5'2 1691   5.696   5.934   6.688
   54DA     C4' 1692   5.587   6.091   6.591
   54DA     H4' 1693   5.502   6.024   6.603
   54DA     O4' 1694   5.541   6.221   6.624
   54DA     C1' 1695   5.593   6.306   6.532
   54DA     H1' 1696   5.505   6.355   6.489
   54DA      N9 1697   5.668   6.418   6.589
   54DA      C8 1698   5.799   6.422   6.625
   54DA      H8 1699   5.858   6.331   6.624
   54DA      N7 1700   5.833   6.536   6.677
   54DA      C5 1701   5.723   6.616   6.660
   54DA      C6 1702   5.691   6.747   6.704
   54DA      N6 1703   5.772   6.831   6.775
   54DA     H61 1704   5.735   6.923   6.791
   54DA     H62 1705   5.870   6.813   6.794
   54DA      N1 1706   5.562   6.793   6.689
   54DA      C2 1707   5.466   6.709   6.643
   54DA      H2 1708   5.365   6.748   6.646
   54DA      N3 1709   5.490   6.585   6.610
   54DA      C4 1710   5.615   6.543   6.621
   54DA     C3' 1711   5.646   6.084   6.449
   54DA     H3' 1712   5.742   6.034   6.441
   54DA     C2' 1713   5.672   6.233   6.426
   54DA    H2'1 1714   5.779   6.250   6.442
   54DA    H2'2 1715   5.638   6.271   6.330
   54DA     O3' 1716   5.551   6.020   6.365
   55DT       P 1717   5.500   6.046   6.213
   55DT     O1P 1718   5.382   5.960   6.196
   55DT     O2P 1719   5.615   6.029   6.121
   55DT     O5' 1720   5.443   6.195   6.197
   55DT     C5' 1721   5.321   6.226   6.263
   55DT    H5'1 1722   5.328   6.212   6.371
   55DT    H5'2 1723   5.244   6.156   6.228
   55DT     C4' 1724   5.269   6.371   6.246
   55DT     H4' 1725   5.177   6.388   6.302
   55DT     O4' 1726   5.363   6.452   6.305
   55DT     C1' 1727   5.392   6.562   6.217
   55DT     H1' 1728   5.313   6.635   6.235
   55DT      N1 1729   5.526   6.626   6.247
   55DT      C6 1730   5.636   6.546   6.253
   55DT      H6 1731   5.624   6.444   6.220
   55DT      C5 1732   5.754   6.601   6.303
   55DT      C7 1733   5.879   6.509   6.309
   55DT     H71 1734   5.929   6.519   6.406
   55DT     H72 1735   5.869   6.403   6.288
   55DT     H73 1736   5.955   6.546   6.241
   55DT      C4 1737   5.760   6.740   6.356
   55DT      O4 1738   5.860   6.794   6.405
   55DT      N3 1739   5.644   6.811   6.340
   55DT      H3 1740   5.653   6.907   6.370
   55DT      C2 1741   5.527   6.758   6.294
   55DT      O2 1742   5.422   6.831   6.293
   55DT     C3' 1743   5.252   6.410   6.097
   55DT     H3' 1744   5.269   6.317   6.042
   55DT     C2' 1745   5.378   6.499   6.082
   55DT    H2'1 1746   5.463   6.435   6.059
   55DT    H2'2 1747   5.377   6.569   5.998
   55DT     O3' 1748   5.123   6.466   6.080
   56DA       P 1749   5.056   6.483   5.936
   56DA     O1P 1750   4.917   6.517   5.964
   56DA     O2P 1751   5.084   6.361   5.855
   56DA     O5' 1752   5.128   6.607   5.869
   56DA     C5' 1753   5.088   6.742   5.884
   56DA    H5'1 1754   5.054   6.753   5.987
   56DA    H5'2 1755   5.017   6.783   5.812
   56DA     C4' 1756   5.200   6.840   5.863
   56DA     H4' 1757   5.162   6.937   5.895
   56DA     O4' 1758   5.310   6.809   5.944
   56DA     C1' 1759   5.425   6.840   5.866
   56DA     H1' 1760   5.429   6.948   5.861
   56DA      N9 1761   5.552   6.799   5.924
   56DA      C8 1762   5.618   6.681   5.921
   56DA      H8 1763   5.573   6.598   5.868
   56DA      N7 1764   5.742   6.680   5.965
   56DA      C5 1765   5.751   6.816   6.012
   56DA      C6 1766   5.847   6.893   6.078
   56DA      N6 1767   5.968   6.849   6.103
   56DA     H61 1768   6.018   6.910   6.165
   56DA     H62 1769   5.999   6.755   6.083
   56DA      N1 1770   5.827   7.015   6.119
   56DA      C2 1771   5.705   7.063   6.096
   56DA      H2 1772   5.690   7.164   6.133
   56DA      N3 1773   5.601   7.011   6.030
   56DA      C4 1774   5.632   6.886   5.992
   56DA     C3' 1775   5.255   6.838   5.719
   56DA     H3' 1776   5.192   6.771   5.661
   56DA     C2' 1777   5.399   6.788   5.724
   56DA    H2'1 1778   5.399   6.679   5.718
   56DA    H2'2 1779   5.470   6.830   5.653
   56DA     O3' 1780   5.266   6.974   5.677
   57DC       P 1781   5.153   7.032   5.583
   57DC     O1P 1782   5.023   7.017   5.646
   57DC     O2P 1783   5.178   6.981   5.448
   57DC     O5' 1784   5.184   7.178   5.572
   57DC     C5' 1785   5.183   7.265   5.684
   57DC    H5'1 1786   5.172   7.204   5.774
   57DC    H5'2 1787   5.093   7.325   5.677
   57DC     C4' 1788   5.296   7.367   5.714
   57DC     H4' 1789   5.262   7.438   5.790
   57DC     O4' 1790   5.418   7.301   5.752
   57DC     C1' 1791   5.515   7.338   5.662
   57DC     H1' 1792   5.553   7.435   5.692
   57DC      N1 1793   5.617   7.233   5.677
   57DC      C6 1794   5.600   7.108   5.614
   57DC      H6 1795   5.510   7.100   5.555
   57DC      C5 1796   5.699   7.013   5.626
   57DC      H5 1797   5.699   6.921   5.571
   57DC      C4 1798   5.803   7.047   5.716
   57DC      N4 1799   5.884   6.952   5.755
   57DC     H41 1800   5.962   6.978   5.813
   57DC     H42 1801   5.895   6.868   5.699
   57DC      N3 1802   5.811   7.160   5.786
   57DC      C2 1803   5.721   7.256   5.771
   57DC      O2 1804   5.729   7.360   5.837
   57DC     C3' 1805   5.326   7.442   5.580
   57DC     H3' 1806   5.240   7.443   5.513
   57DC     C2' 1807   5.438   7.354   5.528
   57DC    H2'1 1808   5.397   7.260   5.492
   57DC    H2'2 1809   5.496   7.401   5.449
   57DC     O3' 1810   5.379   7.570   5.601
   58DG       P 1811   5.354   7.676   5.488
   58DG     O1P 1812   5.214   7.735   5.503
   58DG     O2P 1813   5.394   7.616   5.362
   58DG     O5' 1814   5.460   7.793   5.532
   58DG     C5' 1815   5.424   7.888   5.632
   58DG    H5'1 1816   5.371   7.851   5.720
   58DG    H5'2 1817   5.381   7.975   5.584
   58DG     C4' 1818   5.562   7.933   5.696
   58DG     H4' 1819   5.543   7.994   5.784
   58DG     O4' 1820   5.653   7.827   5.723
   58DG     C1' 1821   5.764   7.826   5.636
   58DG     H1' 1822   5.849   7.875   5.683
   58DG      N9 1823   5.794   7.695   5.572
   58DG      C8 1824   5.717   7.618   5.486
   58DG      H8 1825   5.626   7.659   5.446
   58DG      N7 1826   5.762   7.499   5.465
   58DG      C5 1827   5.883   7.494   5.535
   58DG      C6 1828   5.979   7.392   5.566
   58DG      O6 1829   5.975   7.271   5.543
   58DG      N1 1830   6.089   7.436   5.632
   58DG      H1 1831   6.164   7.375   5.660
   58DG      C2 1832   6.102   7.558   5.680
   58DG      N2 1833   6.218   7.593   5.737
   58DG     H21 1834   6.298   7.531   5.739
   58DG     H22 1835   6.229   7.687   5.772
   58DG      N3 1836   6.016   7.652   5.660
   58DG      C4 1837   5.904   7.615   5.590
   58DG     C3' 1838   5.628   8.026   5.594
   58DG     H3' 1839   5.553   8.074   5.530
   58DG     C2' 1840   5.735   7.944   5.529
   58DG    H2'1 1841   5.704   7.904   5.432
   58DG    H2'2 1842   5.827   8.002   5.519
   58DG     O3' 1843   5.684   8.133   5.663
   59DC       P 1844   5.742   8.270   5.587
   59DC     O1P 1845   5.762   8.370   5.692
   59DC     O2P 1846   5.647   8.297   5.475
   59DC     O5' 1847   5.888   8.241   5.535
   59DC     C5' 1848   5.996   8.208   5.617
   59DC    H5'1 1849   5.970   8.133   5.692
   59DC    H5'2 1850   6.018   8.300   5.671
   59DC     C4' 1851   6.113   8.157   5.540
   59DC     H4' 1852   6.203   8.169   5.600
   59DC     O4' 1853   6.097   8.010   5.509
   59DC     C1' 1854   6.125   7.996   5.375
   59DC     H1' 1855   6.233   7.985   5.367
   59DC      N1 1856   6.052   7.875   5.322
   59DC      C6 1857   5.942   7.887   5.246
   59DC      H6 1858   5.916   7.987   5.216
   59DC      C5 1859   5.876   7.777   5.195
   59DC      H5 1860   5.800   7.792   5.120
   59DC      C4 1861   5.940   7.653   5.229
   59DC      N4 1862   5.896   7.540   5.187
   59DC     H41 1863   5.947   7.456   5.208
   59DC     H42 1864   5.804   7.534   5.147
   59DC      N3 1865   6.051   7.639   5.295
   59DC      C2 1866   6.114   7.753   5.336
   59DC      O2 1867   6.221   7.740   5.404
   59DC     C3' 1868   6.147   8.230   5.410
   59DC     H3' 1869   6.116   8.335   5.410
   59DC     C2' 1870   6.087   8.133   5.312
   59DC    H2'1 1871   5.979   8.146   5.309
   59DC    H2'2 1872   6.144   8.146   5.220
   59DC     O3' 1873   6.288   8.233   5.403
   60DA       P 1874   6.359   8.366   5.430
   60DA     O1P 1875   6.331   8.408   5.570
   60DA     O2P 1876   6.323   8.464   5.323
   60DA     O5' 1877   6.511   8.327   5.414
   60DA     C5' 1878   6.596   8.259   5.505
   60DA    H5'1 1879   6.541   8.233   5.596
   60DA    H5'2 1880   6.678   8.320   5.544
   60DA     C4' 1881   6.661   8.136   5.442
   60DA     H4' 1882   6.715   8.088   5.524
   60DA     O4' 1883   6.576   8.047   5.375
   60DA     C1' 1884   6.620   8.017   5.244
   60DA     H1' 1885   6.691   7.934   5.252
   60DA      N9 1886   6.501   7.976   5.161
   60DA      C8 1887   6.393   8.055   5.121
   60DA      H8 1888   6.385   8.156   5.156
   60DA      N7 1889   6.300   7.986   5.057
   60DA      C5 1890   6.346   7.855   5.070
   60DA      C6 1891   6.288   7.723   5.033
   60DA      N6 1892   6.176   7.700   4.979
   60DA     H61 1893   6.153   7.601   4.974
   60DA     H62 1894   6.114   7.776   4.958
   60DA      N1 1895   6.352   7.608   5.061
   60DA      C2 1896   6.470   7.621   5.124
   60DA      H2 1897   6.512   7.524   5.147
   60DA      N3 1898   6.532   7.729   5.158
   60DA      C4 1899   6.466   7.844   5.134
   60DA     C3' 1900   6.764   8.183   5.331
   60DA     H3' 1901   6.776   8.291   5.342
   60DA     C2' 1902   6.692   8.146   5.199
   60DA    H2'1 1903   6.614   8.218   5.172
   60DA    H2'2 1904   6.758   8.134   5.114
   60DA     O3' 1905   6.892   8.123   5.336
   61DC       P 1906   7.014   8.167   5.241
   61DC     O1P 1907   7.134   8.161   5.326
   61DC     O2P 1908   6.975   8.291   5.175
   61DC     O5' 1909   7.027   8.060   5.124
   61DC     C5' 1910   7.049   7.925   5.143
   61DC    H5'1 1911   6.982   7.896   5.224
   61DC    H5'2 1912   7.151   7.915   5.180
   61DC     C4' 1913   7.013   7.836   5.023
   61DC     H4' 1914   7.046   7.740   5.062
   61DC     O4' 1915   6.868   7.834   4.990
   61DC     C1' 1916   6.850   7.838   4.852
   61DC     H1' 1917   6.867   7.740   4.808
   61DC      N1 1918   6.709   7.877   4.823
   61DC      C6 1919   6.665   8.008   4.818
   61DC      H6 1920   6.729   8.090   4.848
   61DC      C5 1921   6.538   8.031   4.777
   61DC      H5 1922   6.496   8.131   4.771
   61DC      C4 1923   6.455   7.921   4.747
   61DC      N4 1924   6.340   7.938   4.685
   61DC     H41 1925   6.303   7.852   4.645
   61DC     H42 1926   6.311   8.028   4.650
   61DC      N3 1927   6.490   7.797   4.764
   61DC      C2 1928   6.619   7.772   4.796
   61DC      O2 1929   6.653   7.653   4.796
   61DC     C3' 1930   7.082   7.874   4.886
   61DC     H3' 1931   7.163   7.947   4.888
   61DC     C2' 1932   6.965   7.930   4.803
   61DC    H2'1 1933   6.945   8.034   4.833
   61DC    H2'2 1934   6.971   7.916   4.695
   61DC     O3' 1935   7.134   7.761   4.819
   62DA       P 1936   7.240   7.773   4.699
   62DA     O1P 1937   7.374   7.752   4.755
   62DA     O2P 1938   7.207   7.892   4.617
   62DA     O5' 1939   7.188   7.654   4.610
   62DA     C5' 1940   7.194   7.520   4.659
   62DA    H5'1 1941   7.161   7.512   4.762
   62DA    H5'2 1942   7.297   7.486   4.661
   62DA     C4' 1943   7.109   7.427   4.571
   62DA     H4' 1944   7.116   7.322   4.599
   62DA     O4' 1945   6.970   7.460   4.583
   62DA     C1' 1946   6.914   7.483   4.463
   62DA     H1' 1947   6.877   7.392   4.416
   62DA      N9 1948   6.807   7.586   4.475
   62DA      C8 1949   6.829   7.716   4.510
   62DA      H8 1950   6.927   7.748   4.543
   62DA      N7 1951   6.726   7.798   4.487
   62DA      C5 1952   6.633   7.711   4.428
   62DA      C6 1953   6.495   7.717   4.383
   62DA      N6 1954   6.418   7.820   4.397
   62DA     H61 1955   6.321   7.816   4.368
   62DA     H62 1956   6.447   7.902   4.447
   62DA      N1 1957   6.433   7.616   4.328
   62DA      C2 1958   6.494   7.500   4.320
   62DA      H2 1959   6.445   7.414   4.275
   62DA      N3 1960   6.615   7.473   4.367
   62DA      C4 1961   6.680   7.581   4.420
   62DA     C3' 1962   7.150   7.437   4.426
   62DA     H3' 1963   7.246   7.486   4.410
   62DA     C2' 1964   7.036   7.523   4.377
   62DA    H2'1 1965   7.062   7.626   4.402
   62DA    H2'2 1966   7.008   7.515   4.272
   62DA     O3' 1967   7.159   7.298   4.373
   63DT       P 1968   7.131   7.257   4.218
   63DT     O1P 1969   7.170   7.111   4.210
   63DT     O2P 1970   7.200   7.354   4.128
   63DT     O5' 1971   6.977   7.273   4.197
   63DT     C5' 1972   6.881   7.176   4.228
   63DT    H5'1 1973   6.850   7.209   4.327
   63DT    H5'2 1974   6.926   7.077   4.222
   63DT     C4' 1975   6.762   7.158   4.129
   63DT     H4' 1976   6.701   7.071   4.150
   63DT     O4' 1977   6.687   7.278   4.121
   63DT     C1' 1978   6.678   7.323   3.996
   63DT     H1' 1979   6.594   7.270   3.952
   63DT      N1 1980   6.654   7.465   4.000
   63DT      C6 1981   6.751   7.550   4.051
   63DT      H6 1982   6.847   7.508   4.077
   63DT      C5 1983   6.725   7.686   4.071
   63DT      C7 1984   6.830   7.775   4.137
   63DT     H71 1985   6.849   7.864   4.077
   63DT     H72 1986   6.813   7.806   4.240
   63DT     H73 1987   6.919   7.712   4.138
   63DT      C4 1988   6.592   7.734   4.041
   63DT      O4 1989   6.546   7.852   4.056
   63DT      N3 1990   6.498   7.639   3.997
   63DT      H3 1991   6.413   7.672   3.953
   63DT      C2 1992   6.528   7.511   3.959
   63DT      O2 1993   6.443   7.444   3.892
   63DT     C3' 1994   6.820   7.136   3.980
   63DT     H3' 1995   6.920   7.092   3.985
   63DT     C2' 1996   6.804   7.273   3.919
   63DT    H2'1 1997   6.894   7.332   3.940
   63DT    H2'2 1998   6.779   7.276   3.814
   63DT     O3' 1999   6.731   7.048   3.914
   64DG       P 2000   6.765   6.964   3.780
   64DG     O1P 2001   6.665   6.855   3.776
   64DG     O2P 2002   6.908   6.929   3.791
   64DG     O5' 2003   6.733   7.060   3.668
   64DG     C5' 2004   6.606   7.065   3.605
   64DG    H5'1 2005   6.519   7.041   3.666
   64DG    H5'2 2006   6.609   6.993   3.523
   64DG     C4' 2007   6.573   7.191   3.523
   64DG     H4' 2008   6.473   7.172   3.484
   64DG     O4' 2009   6.577   7.313   3.593
   64DG     C1' 2010   6.625   7.413   3.511
   64DG     H1' 2011   6.558   7.427   3.427
   64DG      N9 2012   6.649   7.539   3.585
   64DG      C8 2013   6.751   7.593   3.660
   64DG      H8 2014   6.839   7.536   3.687
   64DG      N7 2015   6.734   7.712   3.700
   64DG      C5 2016   6.607   7.743   3.662
   64DG      C6 2017   6.537   7.866   3.659
   64DG      O6 2018   6.567   7.979   3.702
   64DG      N1 2019   6.406   7.858   3.598
   64DG      H1 2020   6.356   7.945   3.585
   64DG      C2 2021   6.357   7.743   3.543
   64DG      N2 2022   6.241   7.737   3.488
   64DG     H21 2023   6.186   7.822   3.493
   64DG     H22 2024   6.200   7.651   3.454
   64DG      N3 2025   6.425   7.629   3.531
   64DG      C4 2026   6.555   7.637   3.581
   64DG     C3' 2027   6.688   7.220   3.416
   64DG     H3' 2028   6.767   7.146   3.408
   64DG     C2' 2029   6.761   7.343   3.461
   64DG    H2'1 2030   6.820   7.307   3.545
   64DG    H2'2 2031   6.818   7.401   3.388
   64DG     O3' 2032   6.621   7.258   3.298
   65DC       P 2033   6.628   7.169   3.168
   65DC     O1P 2034   6.621   7.028   3.206
   65DC     O2P 2035   6.741   7.217   3.085
   65DC     O5' 2036   6.498   7.211   3.086
   65DC     C5' 2037   6.364   7.183   3.135
   65DC    H5'1 2038   6.352   7.161   3.241
   65DC    H5'2 2039   6.326   7.094   3.085
   65DC     C4' 2040   6.278   7.307   3.103
   65DC     H4' 2041   6.172   7.288   3.116
   65DC     O4' 2042   6.326   7.422   3.178
   65DC     C1' 2043   6.331   7.533   3.096
   65DC     H1' 2044   6.236   7.585   3.104
   65DC      N1 2045   6.432   7.633   3.142
   65DC      C6 2046   6.559   7.595   3.176
   65DC      H6 2047   6.598   7.498   3.151
   65DC      C5 2048   6.646   7.684   3.228
   65DC      H5 2049   6.747   7.652   3.252
   65DC      C4 2050   6.606   7.815   3.254
   65DC      N4 2051   6.679   7.894   3.323
   65DC     H41 2052   6.637   7.981   3.352
   65DC     H42 2053   6.769   7.869   3.360
   65DC      N3 2054   6.484   7.857   3.221
   65DC      C2 2055   6.400   7.767   3.161
   65DC      O2 2056   6.294   7.813   3.119
   65DC     C3' 2057   6.292   7.346   2.953
   65DC     H3' 2058   6.359   7.281   2.897
   65DC     C2' 2059   6.342   7.493   2.950
   65DC    H2'1 2060   6.446   7.495   2.916
   65DC    H2'2 2061   6.274   7.559   2.895
   65DC     O3' 2062   6.164   7.344   2.894
   66DG3      P 2063   6.150   7.319   2.733
   66DG3    O1P 2064   6.013   7.282   2.701
   66DG3    O2P 2065   6.261   7.230   2.689
   66DG3    O5' 2066   6.175   7.462   2.664
   66DG3    C5' 2067   6.069   7.553   2.669
   66DG3   H5'1 2068   6.045   7.569   2.774
   66DG3   H5'2 2069   5.974   7.520   2.626
   66DG3    C4' 2070   6.100   7.693   2.627
   66DG3    H4' 2071   6.007   7.750   2.622
   66DG3    O4' 2072   6.190   7.759   2.710
   66DG3    C1' 2073   6.311   7.793   2.640
   66DG3    H1' 2074   6.314   7.898   2.609
   66DG3     N9 2075   6.427   7.771   2.724
   66DG3     C8 2076   6.525   7.673   2.722
   66DG3     H8 2077   6.530   7.585   2.660
   66DG3     N7 2078   6.616   7.685   2.815
   66DG3     C5 2079   6.589   7.811   2.872
   66DG3     C6 2080   6.670   7.900   2.953
   66DG3     O6 2081   6.780   7.884   2.996
   66DG3     N1 2082   6.609   8.023   2.982
   66DG3     H1 2083   6.657   8.083   3.048
   66DG3     C2 2084   6.491   8.060   2.932
   66DG3     N2 2085   6.444   8.182   2.956
   66DG3    H21 2086   6.504   8.243   3.009
   66DG3    H22 2087   6.354   8.209   2.919
   66DG3     N3 2088   6.422   7.987   2.844
   66DG3     C4 2089   6.471   7.859   2.819
   66DG3    C3' 2090   6.156   7.693   2.477
   66DG3    H3' 2091   6.134   7.601   2.423
   66DG3    C2' 2092   6.305   7.700   2.518
   66DG3   H2'1 2093   6.344   7.603   2.546
   66DG3   H2'2 2094   6.368   7.745   2.442
   66DG3    O3' 2095   6.118   7.806   2.396
   66DG3    H3T 2096   6.023   7.805   2.380
   67SOL     OW 2097   9.418  11.232   8.733
   67SOL    HW1 2098   9.504  11.274   8.730
   67SOL    HW2 2099   9.381  11.258   8.817
   68SOL     OW 2100   2.004   6.368  12.818
   68SOL    HW1 2101   2.049   6.452  12.819
   68SOL    HW2 2102   1.965   6.362  12.730
   69SOL     OW 2103   4.591  12.810   6.085
   69SOL    HW1 2104   4.633  12.883   6.038
   69SOL    HW2 2105   4.537  12.852   6.152
   70SOL     OW 2106   1.883  11.806   8.549
   70SOL    HW1 2107   1.912  11.841   8.633
   70SOL    HW2 2108   1.823  11.873   8.515
   71SOL     OW 2109   0.514  11.635   8.359
   71SOL    HW1 2110   0.534  11.544   8.379
   71SOL    HW2 2111   0.587  11.664   8.304
   72SOL     OW 2112   3.727  12.683   6.414
   72SOL    HW1 2113   3.738  12.638   6.330
   72SOL    HW2 2114   3.633  12.677   6.432
   73SOL     OW 2115  13.608   0.400   8.067
   73SOL    HW1 2116  13.560   0.406   8.150
   73SOL    HW2 2117  13.606   0.489   8.032
   74SOL     OW 2118  14.163   0.255  13.870
   74SOL    HW1 2119  14.162   0.240  13.776
   74SOL    HW2 2120  14.075   0.288  13.890
   75SOL     OW 2121   9.953   0.625   9.211
   75SOL    HW1 2122   9.911   0.542   9.236
   75SOL    HW2 2123  10.046   0.605   9.207
   76SOL     OW 2124   6.047   1.413   0.128
   76SOL    HW1 2125   5.992   1.488   0.153
   76SOL    HW2 2126   6.127   1.423   0.180
   77SOL     OW 2127  10.114  10.556   7.908
   77SOL    HW1 2128  10.206  10.582   7.911
   77SOL    HW2 2129  10.066  10.632   7.941
   78SOL     OW 2130   6.360   0.833   8.944
   78SOL    HW1 2131   6.336   0.768   8.878
   78SOL    HW2 2132   6.312   0.912   8.919
   79SOL     OW 2133   5.351  10.570   0.140
   79SOL    HW1 2134   5.363  10.556   0.046
   79SOL    HW2 2135   5.362  10.665   0.152
   80SOL     OW 2136   5.286   0.370  11.387
   80SOL    HW1 2137   5.365   0.318  11.377
   80SOL    HW2 2138   5.243   0.335  11.465
   81SOL     OW 2139  11.986  13.180  10.066
   81SOL    HW1 2140  12.070  13.225  10.072
   81SOL    HW2 2141  11.926  13.232  10.118
   82SOL     OW 2142  14.498   4.837   7.291
   82SOL    HW1 2143  14.403   4.850   7.291
   82SOL    HW2 2144  14.514   4.774   7.360
   83SOL     OW 2145   9.341   6.242  14.495
   83SOL    HW1 2146   9.415   6.257  14.436
   83SOL    HW2 2147   9.299   6.163  14.463
   84SOL     OW 2148   5.311   8.931   6.221
   84SOL    HW1 2149   5.344   8.961   6.136
   84SOL    HW2 2150   5.341   8.840   6.228
   85SOL     OW 2151  14.358   8.886   6.589
   85SOL    HW1 2152  14.416   8.867   6.515
   85SOL    HW2 2153  14.276   8.842   6.566
   86SOL     OW 2154  13.345   6.057  12.576
   86SOL    HW1 2155  13.356   6.075  12.482
   86SOL    HW2 2156  13.288   5.980  12.578
   87SOL     OW 2157   4.118   9.107   6.331
   87SOL    HW1 2158   4.195   9.163   6.339
   87SOL    HW2 2159   4.129   9.042   6.401
   88SOL     OW 2160  13.269   6.376  12.998
   88SOL    HW1 2161  13.190   6.424  13.021
   88SOL    HW2 2162  13.336   6.443  12.987
   89SOL     OW 2163   0.232   5.148   4.492
   89SOL    HW1 2164   0.290   5.217   4.526
   89SOL    HW2 2165   0.284   5.104   4.425
   90SOL     OW 2166   0.827   3.318   9.216
   90SOL    HW1 2167   0.811   3.326   9.122
   90SOL    HW2 2168   0.746   3.279   9.250
   91SOL     OW 2169  14.410   4.856  13.558
   91SOL    HW1 2170  14.494   4.888  13.524
   91SOL    HW2 2171  14.373   4.931  13.605
   92SOL     OW 2172  12.912   8.450   0.599
   92SOL    HW1 2173  12.826   8.410   0.615
   92SOL    HW2 2174  12.974   8.379   0.612
   93SOL     OW 2175   0.898   9.045  10.731
   93SOL    HW1 2176   0.883   8.950  10.733
   93SOL    HW2 2177   0.853   9.078  10.808
   94SOL     OW 2178   3.617  10.646   5.471
   94SOL    HW1 2179   3.656  10.571   5.516
   94SOL    HW2 2180   3.526  10.646   5.500
   95SOL     OW 2181   5.754   2.338   3.639
   95SOL    HW1 2182   5.815   2.411   3.628
   95SOL    HW2 2183   5.802   2.273   3.689
   96SOL     OW 2184  11.047   4.743  10.336
   96SOL    HW1 2185  11.049   4.788  10.421
   96SOL    HW2 2186  10.965   4.694  10.338
   97SOL     OW 2187  13.193   1.646   4.444
   97SOL    HW1 2188  13.097   1.653   4.445
   97SOL    HW2 2189  13.217   1.666   4.354
   98SOL     OW 2190   2.740  12.493   4.472
   98SOL    HW1 2191   2.821  12.446   4.453
   98SOL    HW2 2192   2.682  12.473   4.399
   99SOL     OW 2193   7.312   9.195  12.284
   99SOL    HW1 2194   7.299   9.142  12.363
   99SOL    HW2 2195   7.227   9.192  12.239
  100SOL     OW 2196   8.787   6.028  13.038
  100SOL    HW1 2197   8.751   6.091  12.975
  100SOL    HW2 2198   8.797   6.078  13.119
  101SOL     OW 2199   2.377  12.516   9.251
  101SOL    HW1 2200   2.441  12.512   9.322
  101SOL    HW2 2201   2.308  12.574   9.283
  102SOL     OW 2202  13.444   6.916  14.073
  102SOL    HW1 2203  13.539   6.926  14.085
  102SOL    HW2 2204  13.406   6.982  14.131
  103SOL     OW 2205  10.377  10.845   9.260
  103SOL    HW1 2206  10.328  10.764   9.267
  103SOL    HW2 2207  10.314  10.909   9.228
  104SOL     OW 2208   8.932   6.047  13.964
  104SOL    HW1 2209   8.917   6.024  14.055
  104SOL    HW2 2210   8.901   6.138  13.956
  105SOL     OW 2211  13.321   2.946   5.571
  105SOL    HW1 2212  13.347   3.022   5.623
  105SOL    HW2 2213  13.267   2.982   5.501
  106SOL     OW 2214  10.109   3.763   3.408
  106SOL    HW1 2215  10.184   3.705   3.400
  106SOL    HW2 2216  10.047   3.732   3.342
  107SOL     OW 2217   7.358  11.948   4.678
  107SOL    HW1 2218   7.437  11.896   4.690
  107SOL    HW2 2219   7.383  12.037   4.703
  108SOL     OW 2220  14.589   2.313  11.589
  108SOL    HW1 2221  14.523   2.321  11.521
  108SOL    HW2 2222  14.614   2.404  11.609
  109SOL     OW 2223   3.836  13.714   1.917
  109SOL    HW1 2224   3.931  13.714   1.902
  109SOL    HW2 2225   3.799  13.686   1.833
  110SOL     OW 2226   3.493   0.498   2.635
  110SOL    HW1 2227   3.538   0.527   2.714
  110SOL    HW2 2228   3.550   0.430   2.598
  111SOL     OW 2229  12.783  11.497  14.491
  111SOL    HW1 2230  12.726  11.505  14.415
  111SOL    HW2 2231  12.857  11.444  14.460
  112SOL     OW 2232   6.114   0.089  10.745
  112SOL    HW1 2233   6.058   0.121  10.674
  112SOL    HW2 2234   6.157   0.168  10.778
  113SOL     OW 2235  14.577  10.743   1.299
  113SOL    HW1 2236  14.609  10.654   1.283
  113SOL    HW2 2237  14.623  10.772   1.377
  114SOL     OW 2238   3.082  11.848  14.445
  114SOL    HW1 2239   3.122  11.789  14.382
  114SOL    HW2 2240   3.016  11.795  14.490
  115SOL     OW 2241  14.045   9.715   0.929
  115SOL    HW1 2242  14.099   9.764   0.867
  115SOL    HW2 2243  14.053   9.624   0.902
  116SOL     OW 2244   7.742  14.707   7.052
  116SOL    HW1 2245   7.723  14.619   7.085
  116SOL    HW2 2246   7.745  14.696   6.957
  117SOL     OW 2247   8.360   2.946  14.342
  117SOL    HW1 2248   8.422   2.881  14.375
  117SOL    HW2 2249   8.414   3.011  14.297
  118SOL     OW 2250   4.659   6.188  11.728
  118SOL    HW1 2251   4.671   6.101  11.688
  118SOL    HW2 2252   4.709   6.247  11.671
  119SOL     OW 2253   3.799   4.836   5.150
  119SOL    HW1 2254   3.766   4.746   5.151
  119SOL    HW2 2255   3.778   4.868   5.062
  120SOL     OW 2256   3.488   9.441  12.997
  120SOL    HW1 2257   3.463   9.350  13.013
  120SOL    HW2 2258   3.560   9.435  12.933
  121SOL     OW 2259   1.699   2.512  10.747
  121SOL    HW1 2260   1.737   2.530  10.661
  121SOL    HW2 2261   1.606   2.528  10.736
  122SOL     OW 2262   3.183   3.211   1.472
  122SOL    HW1 2263   3.120   3.145   1.500
  122SOL    HW2 2264   3.218   3.247   1.553
  123SOL     OW 2265  12.411   0.553   5.314
  123SOL    HW1 2266  12.325   0.524   5.342
  123SOL    HW2 2267  12.393   0.617   5.245
  124SOL     OW 2268   5.667  13.379   8.924
  124SOL    HW1 2269   5.665  13.470   8.894
  124SOL    HW2 2270   5.724  13.381   9.001
  125SOL     OW 2271   0.869   3.840  11.233
  125SOL    HW1 2272   0.950   3.826  11.282
  125SOL    HW2 2273   0.863   3.763  11.175
  126SOL     OW 2274  14.311   4.746   1.783
  126SOL    HW1 2275  14.363   4.727   1.705
  126SOL    HW2 2276  14.374   4.778   1.847
  127SOL     OW 2277   0.343   7.746   0.365
  127SOL    HW1 2278   0.289   7.667   0.357
  127SOL    HW2 2279   0.282   7.814   0.394
  128SOL     OW 2280   4.088   0.950  13.362
  128SOL    HW1 2281   4.022   0.955  13.293
  128SOL    HW2 2282   4.144   0.876  13.337
  129SOL     OW 2283  12.588  12.370  13.449
  129SOL    HW1 2284  12.642  12.379  13.528
  129SOL    HW2 2285  12.628  12.430  13.386
  130SOL     OW 2286   9.303  12.212  11.822
  130SOL    HW1 2287   9.394  12.228  11.796
  130SOL    HW2 2288   9.257  12.291  11.793
  131SOL     OW 2289   7.065   4.291  10.437
  131SOL    HW1 2290   7.052   4.344  10.358
  131SOL    HW2 2291   7.133   4.338  10.486
  132SOL     OW 2292   1.965   0.025   2.289
  132SOL    HW1 2293   1.906   0.036   2.215
  132SOL    HW2 2294   2.047  14.873   2.250
  133SOL     OW 2295   7.459  13.954   7.559
  133SOL    HW1 2296   7.415  13.961   7.644
  133SOL    HW2 2297   7.540  13.907   7.577
  134SOL     OW 2298   0.107   8.527   1.300
  134SOL    HW1 2299   0.023   8.559   1.333
  134SOL    HW2 2300   0.161   8.520   1.379
  135SOL     OW 2301   6.147   5.985   1.851
  135SOL    HW1 2302   6.063   5.950   1.881
  135SOL    HW2 2303   6.199   5.993   1.930
  136SOL     OW 2304   8.285   0.101   0.328
  136SOL    HW1 2305   8.201   0.058   0.341
  136SOL    HW2 2306   8.311   0.076   0.239
  137SOL     OW 2307   5.941  13.716   8.023
  137SOL    HW1 2308   5.935  13.622   8.042
  137SOL    HW2 2309   6.033  13.730   8.001
  138SOL     OW 2310  11.156   7.838   6.944
  138SOL    HW1 2311  11.133   7.805   7.031
  138SOL    HW2 2312  11.097   7.793   6.884
  139SOL     OW 2313   1.614  14.709   2.741
  139SOL    HW1 2314   1.700  14.668   2.746
  139SOL    HW2 2315   1.630  14.792   2.696
  140SOL     OW 2316   7.848   7.812  14.521
  140SOL    HW1 2317   7.816   7.894  14.559
  140SOL    HW2 2318   7.848   7.750  14.593
  141SOL     OW 2319   3.224  13.442   7.974
  141SOL    HW1 2320   3.302  13.481   8.012
  141SOL    HW2 2321   3.181  13.514   7.928
  142SOL     OW 2322   0.540   6.455  14.604
  142SOL    HW1 2323   0.590   6.432  14.526
  142SOL    HW2 2324   0.460   6.402  14.598
  143SOL     OW 2325  12.815   0.790  13.867
  143SOL    HW1 2326  12.896   0.754  13.903
  143SOL    HW2 2327  12.814   0.759  13.776
  144SOL     OW 2328   8.518   2.815   5.835
  144SOL    HW1 2329   8.463   2.852   5.904
  144SOL    HW2 2330   8.485   2.854   5.754
  145SOL     OW 2331  14.406  10.823  11.057
  145SOL    HW1 2332  14.458  10.794  11.132
  145SOL    HW2 2333  14.329  10.865  11.096
  146SOL     OW 2334   7.060  14.642  12.049
  146SOL    HW1 2335   7.131  14.705  12.038
  146SOL    HW2 2336   6.980  14.695  12.045
  147SOL     OW 2337   8.786   0.429  14.127
  147SOL    HW1 2338   8.733   0.467  14.058
  147SOL    HW2 2339   8.788   0.496  14.196
  148SOL     OW 2340   6.707  11.231   7.465
  148SOL    HW1 2341   6.614  11.247   7.480
  148SOL    HW2 2342   6.717  11.239   7.370
  149SOL     OW 2343   2.582   9.801  11.338
  149SOL    HW1 2344   2.636   9.758  11.404
  149SOL    HW2 2345   2.568   9.734  11.271
  150SOL     OW 2346  13.050   5.506   9.931
  150SOL    HW1 2347  13.006   5.461  10.004
  150SOL    HW2 2348  13.141   5.479   9.938
  151SOL     OW 2349   2.736  10.567  11.512
  151SOL    HW1 2350   2.679  10.641  11.492
  151SOL    HW2 2351   2.718  10.504  11.441
  152SOL     OW 2352   1.310   1.227  13.539
  152SOL    HW1 2353   1.286   1.293  13.474
  152SOL    HW2 2354   1.381   1.268  13.589
  153SOL     OW 2355   2.637   5.791   4.279
  153SOL    HW1 2356   2.683   5.763   4.358
  153SOL    HW2 2357   2.631   5.712   4.225
  154SOL     OW 2358   7.523   9.203   2.096
  154SOL    HW1 2359   7.477   9.195   2.013
  154SOL    HW2 2360   7.460   9.245   2.155
  155SOL     OW 2361  13.900  13.323   8.892
  155SOL    HW1 2362  13.837  13.383   8.933
  155SOL    HW2 2363  13.869  13.314   8.802
  156SOL     OW 2364   8.701   3.666   1.448
  156SOL    HW1 2365   8.700   3.571   1.460
  156SOL    HW2 2366   8.654   3.680   1.365
  157SOL     OW 2367   5.623   2.609   7.923
  157SOL    HW1 2368   5.680   2.674   7.882
  157SOL    HW2 2369   5.648   2.609   8.015
  158SOL     OW 2370   3.156   3.956   6.961
  158SOL    HW1 2371   3.077   3.988   6.918
  158SOL    HW2 2372   3.150   3.992   7.050
  159SOL     OW 2373  12.283   3.793   1.504
  159SOL    HW1 2374  12.326   3.808   1.420
  159SOL    HW2 2375  12.229   3.872   1.517
  160SOL     OW 2376   0.066   7.655   4.549
  160SOL    HW1 2377   0.004   7.606   4.495
  160SOL    HW2 2378   0.022   7.666   4.633
  161SOL     OW 2379  14.127   0.072   5.155
  161SOL    HW1 2380  14.069   0.093   5.229
  161SOL    HW2 2381  14.187   0.007   5.190
  162SOL     OW 2382  14.259   6.433  14.180
  162SOL    HW1 2383  14.191   6.374  14.148
  162SOL    HW2 2384  14.213   6.515  14.200
  163SOL     OW 2385  11.719   5.722   1.256
  163SOL    HW1 2386  11.675   5.653   1.206
  163SOL    HW2 2387  11.658   5.742   1.328
  164SOL     OW 2388  11.254   8.955   7.756
  164SOL    HW1 2389  11.204   8.908   7.822
  164SOL    HW2 2390  11.260   8.894   7.683
  165SOL     OW 2391   9.886   5.358  10.713
  165SOL    HW1 2392   9.917   5.346  10.803
  165SOL    HW2 2393   9.860   5.451  10.709
  166SOL     OW 2394  13.459  12.435  11.782
  166SOL    HW1 2395  13.478  12.359  11.836
  166SOL    HW2 2396  13.538  12.449  11.731
  167SOL     OW 2397   0.314   5.791  10.638
  167SOL    HW1 2398   0.281   5.704  10.662
  167SOL    HW2 2399   0.356   5.778  10.553
  168SOL     OW 2400  12.096   5.171   4.628
  168SOL    HW1 2401  12.127   5.084   4.653
  168SOL    HW2 2402  12.155   5.231   4.673
  169SOL     OW 2403  13.197   9.683   2.667
  169SOL    HW1 2404  13.140   9.744   2.619
  169SOL    HW2 2405  13.137   9.635   2.724
  170SOL     OW 2406   2.049  14.519   6.964
  170SOL    HW1 2407   2.092  14.560   6.889
  170SOL    HW2 2408   1.997  14.590   7.003
  171SOL     OW 2409   6.504  10.866   2.012
  171SOL    HW1 2410   6.502  10.889   1.919
  171SOL    HW2 2411   6.580  10.913   2.046
  172SOL     OW 2412   9.686   6.077   1.410
  172SOL    HW1 2413   9.672   6.084   1.315
  172SOL    HW2 2414   9.747   6.148   1.430
  173SOL     OW 2415   2.347   9.082   7.233
  173SOL    HW1 2416   2.256   9.059   7.213
  173SOL    HW2 2417   2.365   9.156   7.175
  174SOL     OW 2418  12.125  13.803   8.985
  174SOL    HW1 2419  12.044  13.844   9.015
  174SOL    HW2 2420  12.193  13.865   9.013
  175SOL     OW 2421   2.621   6.447   3.538
  175SOL    HW1 2422   2.533   6.474   3.513
  175SOL    HW2 2423   2.623   6.353   3.520
  176SOL     OW 2424   0.432  11.042   7.001
  176SOL    HW1 2425   0.346  11.048   7.041
  176SOL    HW2 2426   0.418  10.989   6.922
  177SOL     OW 2427   6.605   3.861   2.511
  177SOL    HW1 2428   6.573   3.885   2.597
  177SOL    HW2 2429   6.526   3.855   2.457
  178SOL     OW 2430   4.380   4.126   6.500
  178SOL    HW1 2431   4.377   4.078   6.417
  178SOL    HW2 2432   4.289   4.151   6.516
  179SOL     OW 2433  11.118  13.881   2.057
  179SOL    HW1 2434  11.108  13.797   2.013
  179SOL    HW2 2435  11.205  13.912   2.030
  180SOL     OW 2436  13.689  14.176  12.891
  180SOL    HW1 2437  13.674  14.218  12.806
  180SOL    HW2 2438  13.761  14.115  12.874
  181SOL     OW 2439   1.672   1.070   4.964
  181SOL    HW1 2440   1.619   1.114   4.898
  181SOL    HW2 2441   1.610   1.040   5.029
  182SOL     OW 2442   4.938  11.903  11.260
  182SOL    HW1 2443   4.934  11.807  11.255
  182SOL    HW2 2444   5.014  11.920  11.315
  183SOL     OW 2445   6.280  13.299  13.906
  183SOL    HW1 2446   6.267  13.328  13.815
  183SOL    HW2 2447   6.193  13.268  13.933
  184SOL     OW 2448  10.688   7.495  11.736
  184SOL    HW1 2449  10.776   7.479  11.770
  184SOL    HW2 2450  10.689   7.587  11.708
  185SOL     OW 2451   8.231  14.012   1.137
  185SOL    HW1 2452   8.284  14.088   1.160
  185SOL    HW2 2453   8.261  13.988   1.049
  186SOL     OW 2454  11.047   4.717   1.777
  186SOL    HW1 2455  10.985   4.648   1.799
  186SOL    HW2 2456  11.028   4.738   1.686
  187SOL     OW 2457   6.438  13.044   3.557
  187SOL    HW1 2458   6.470  13.007   3.474
  187SOL    HW2 2459   6.361  13.095   3.532
  188SOL     OW 2460   3.464   3.891   6.063
  188SOL    HW1 2461   3.520   3.825   6.104
  188SOL    HW2 2462   3.446   3.954   6.133
  189SOL     OW 2463  11.044  14.199   3.371
  189SOL    HW1 2464  11.102  14.267   3.406
  189SOL    HW2 2465  11.016  14.149   3.447
  190SOL     OW 2466   0.125  14.276   8.768
  190SOL    HW1 2467   0.180  14.280   8.690
  190SOL    HW2 2468   0.045  14.323   8.743
  191SOL     OW 2469   5.414   9.549   3.428
  191SOL    HW1 2470   5.387   9.589   3.511
  191SOL    HW2 2471   5.348   9.482   3.411
  192SOL     OW 2472  14.395   0.719  14.147
  192SOL    HW1 2473  14.402   0.624  14.151
  192SOL    HW2 2474  14.411   0.740  14.055
  193SOL     OW 2475   1.732  13.671   2.044
  193SOL    HW1 2476   1.821  13.651   2.014
  193SOL    HW2 2477   1.731  13.766   2.052
  194SOL     OW 2478   7.841   9.817   8.774
  194SOL    HW1 2479   7.843   9.892   8.714
  194SOL    HW2 2480   7.910   9.759   8.742
  195SOL     OW 2481   8.105  13.342   8.836
  195SOL    HW1 2482   8.139  13.425   8.868
  195SOL    HW2 2483   8.170  13.277   8.864
  196SOL     OW 2484  13.851   8.803  13.196
  196SOL    HW1 2485  13.896   8.856  13.261
  196SOL    HW2 2486  13.827   8.866  13.127
  197SOL     OW 2487   8.322   1.538   5.134
  197SOL    HW1 2488   8.272   1.518   5.213
  197SOL    HW2 2489   8.411   1.553   5.165
  198SOL     OW 2490   7.525   3.685   0.529
  198SOL    HW1 2491   7.522   3.590   0.522
  198SOL    HW2 2492   7.538   3.702   0.623
  199SOL     OW 2493   6.392  12.587   1.387
  199SOL    HW1 2494   6.458  12.519   1.401
  199SOL    HW2 2495   6.420  12.660   1.442
  200SOL     OW 2496   6.047   6.500  13.507
  200SOL    HW1 2497   6.096   6.418  13.510
  200SOL    HW2 2498   6.040   6.520  13.414
  201SOL     OW 2499   7.484   6.259  11.731
  201SOL    HW1 2500   7.531   6.177  11.744
  201SOL    HW2 2501   7.540   6.326  11.770
  202SOL     OW 2502  11.824  12.279  10.042
  202SOL    HW1 2503  11.797  12.255   9.953
  202SOL    HW2 2504  11.812  12.373  10.046
  203SOL     OW 2505  14.569   5.544  11.144
  203SOL    HW1 2506  14.608   5.629  11.126
  203SOL    HW2 2507  14.643   5.483  11.147
  204SOL     OW 2508  10.033   9.213   2.260
  204SOL    HW1 2509   9.966   9.149   2.283
  204SOL    HW2 2510  10.003   9.249   2.177
  205SOL     OW 2511   0.248   3.057  14.157
  205SOL    HW1 2512   0.189   3.133  14.160
  205SOL    HW2 2513   0.251   3.032  14.065
  206SOL     OW 2514   9.017   2.164  13.139
  206SOL    HW1 2515   9.050   2.249  13.111
  206SOL    HW2 2516   8.923   2.168  13.121
  207SOL     OW 2517   3.790   9.910   8.338
  207SOL    HW1 2518   3.812   9.924   8.246
  207SOL    HW2 2519   3.761   9.819   8.343
  208SOL     OW 2520   9.835   9.528   1.863
  208SOL    HW1 2521   9.798   9.588   1.798
  208SOL    HW2 2522   9.893   9.471   1.812
  209SOL     OW 2523   9.269  14.713  13.366
  209SOL    HW1 2524   9.271  14.620  13.387
  209SOL    HW2 2525   9.185  14.725  13.321
  210SOL     OW 2526   3.301   7.422  12.626
  210SOL    HW1 2527   3.363   7.366  12.673
  210SOL    HW2 2528   3.354   7.468  12.561
  211SOL     OW 2529  11.375  10.147  12.411
  211SOL    HW1 2530  11.435  10.221  12.404
  211SOL    HW2 2531  11.432  10.070  12.399
  212SOL     OW 2532   0.891  11.159   6.891
  212SOL    HW1 2533   0.962  11.219   6.865
  212SOL    HW2 2534   0.851  11.200   6.967
  213SOL     OW 2535  11.746   5.414  12.109
  213SOL    HW1 2536  11.796   5.338  12.078
  213SOL    HW2 2537  11.660   5.379  12.130
  214SOL     OW 2538   1.509  14.561   4.434
  214SOL    HW1 2539   1.492  14.557   4.528
  214SOL    HW2 2540   1.566  14.486   4.417
  215SOL     OW 2541   1.949   7.922   5.142
  215SOL    HW1 2542   1.886   7.873   5.090
  215SOL    HW2 2543   1.896   7.968   5.208
  216SOL     OW 2544  14.230   1.761   3.570
  216SOL    HW1 2545  14.165   1.692   3.579
  216SOL    HW2 2546  14.314   1.716   3.571
  217SOL     OW 2547   6.692  12.492   8.250
  217SOL    HW1 2548   6.745  12.549   8.306
  217SOL    HW2 2549   6.632  12.551   8.205
  218SOL     OW 2550  14.168   8.340   2.848
  218SOL    HW1 2551  14.179   8.246   2.834
  218SOL    HW2 2552  14.135   8.348   2.937
  219SOL     OW 2553   1.936   6.374   2.449
  219SOL    HW1 2554   1.844   6.394   2.430
  219SOL    HW2 2555   1.953   6.293   2.399
  220SOL     OW 2556   7.383   5.186   0.417
  220SOL    HW1 2557   7.302   5.226   0.386
  220SOL    HW2 2558   7.449   5.211   0.352
  221SOL     OW 2559   5.483   8.728   4.906
  221SOL    HW1 2560   5.534   8.662   4.953
  221SOL    HW2 2561   5.421   8.677   4.853
  222SOL     OW 2562   1.238  14.204   9.395
  222SOL    HW1 2563   1.305  14.252   9.443
  222SOL    HW2 2564   1.171  14.183   9.461
  223SOL     OW 2565   9.982  12.454   1.813
  223SOL    HW1 2566   9.977  12.377   1.757
  223SOL    HW2 2567   9.911  12.441   1.876
  224SOL     OW 2568  11.348  14.060   0.778
  224SOL    HW1 2569  11.304  14.074   0.694
  224SOL    HW2 2570  11.353  14.147   0.818
  225SOL     OW 2571  12.119   2.255   9.230
  225SOL    HW1 2572  12.181   2.324   9.205
  225SOL    HW2 2573  12.044   2.303   9.267
  226SOL     OW 2574   6.571  10.747  13.076
  226SOL    HW1 2575   6.548  10.716  12.989
  226SOL    HW2 2576   6.656  10.790  13.065
  227SOL     OW 2577   5.746  14.338   7.736
  227SOL    HW1 2578   5.770  14.401   7.804
  227SOL    HW2 2579   5.745  14.254   7.781
  228SOL     OW 2580  11.988   0.701  13.359
  228SOL    HW1 2581  12.003   0.794  13.377
  228SOL    HW2 2582  11.916   0.700  13.297
  229SOL     OW 2583  12.032  12.215   4.389
  229SOL    HW1 2584  11.954  12.198   4.336
  229SOL    HW2 2585  12.057  12.305   4.367
  230SOL     OW 2586   6.855   4.581  12.429
  230SOL    HW1 2587   6.870   4.568  12.523
  230SOL    HW2 2588   6.761   4.599  12.423
  231SOL     OW 2589   4.236   7.635   6.568
  231SOL    HW1 2590   4.311   7.582   6.593
  231SOL    HW2 2591   4.266   7.686   6.493
  232SOL     OW 2592   2.210  10.806   4.998
  232SOL    HW1 2593   2.231  10.723   5.040
  232SOL    HW2 2594   2.120  10.824   5.022
  233SOL     OW 2595   5.921   6.306   0.846
  233SOL    HW1 2596   5.956   6.218   0.831
  233SOL    HW2 2597   5.928   6.319   0.940
  234SOL     OW 2598  10.028  13.958   7.760
  234SOL    HW1 2599   9.963  14.012   7.805
  234SOL    HW2 2600  10.025  13.874   7.806
  235SOL     OW 2601  12.434   1.686   3.886
  235SOL    HW1 2602  12.483   1.703   3.967
  235SOL    HW2 2603  12.373   1.759   3.879
  236SOL     OW 2604   8.671  10.114   6.097
  236SOL    HW1 2605   8.754  10.156   6.073
  236SOL    HW2 2606   8.628  10.179   6.153
  237SOL     OW 2607  10.466   9.353   7.003
  237SOL    HW1 2608  10.372   9.336   7.001
  237SOL    HW2 2609  10.505   9.271   7.035
  238SOL     OW 2610   7.429  11.583  10.289
  238SOL    HW1 2611   7.521  11.563  10.303
  238SOL    HW2 2612   7.410  11.655  10.350
  239SOL     OW 2613   1.561   8.971  12.022
  239SOL    HW1 2614   1.589   8.986  11.932
  239SOL    HW2 2615   1.468   8.994  12.022
  240SOL     OW 2616   7.222   4.824  11.910
  240SOL    HW1 2617   7.274   4.744  11.915
  240SOL    HW2 2618   7.277   4.892  11.950
  241SOL     OW 2619  10.534   8.801   4.053
  241SOL    HW1 2620  10.547   8.844   3.968
  241SOL    HW2 2621  10.602   8.840   4.109
  242SOL     OW 2622  10.578  10.399   7.786
  242SOL    HW1 2623  10.641  10.358   7.727
  242SOL    HW2 2624  10.517  10.328   7.808
  243SOL     OW 2625  13.661   8.167   8.686
  243SOL    HW1 2626  13.665   8.228   8.611
  243SOL    HW2 2627  13.726   8.100   8.665
  244SOL     OW 2628   8.814  13.335  12.179
  244SOL    HW1 2629   8.751  13.305  12.244
  244SOL    HW2 2630   8.836  13.257  12.128
  245SOL     OW 2631   1.611   6.896  10.794
  245SOL    HW1 2632   1.655   6.948  10.862
  245SOL    HW2 2633   1.653   6.810  10.798
  246SOL     OW 2634   8.392   2.149  14.557
  246SOL    HW1 2635   8.332   2.216  14.588
  246SOL    HW2 2636   8.335   2.075  14.534
  247SOL     OW 2637  11.251   2.793   6.450
  247SOL    HW1 2638  11.222   2.800   6.359
  247SOL    HW2 2639  11.172   2.770   6.499
  248SOL     OW 2640  11.059   7.218   5.961
  248SOL    HW1 2641  10.993   7.150   5.948
  248SOL    HW2 2642  11.128   7.197   5.898
  249SOL     OW 2643   3.818   1.818   9.115
  249SOL    HW1 2644   3.866   1.736   9.131
  249SOL    HW2 2645   3.863   1.858   9.041
  250SOL     OW 2646   4.001  14.170  11.996
  250SOL    HW1 2647   4.014  14.261  11.970
  250SOL    HW2 2648   3.980  14.174  12.089
  251SOL     OW 2649   4.640   9.372  12.806
  251SOL    HW1 2650   4.702   9.320  12.754
  251SOL    HW2 2651   4.687   9.390  12.888
  252SOL     OW 2652   4.934   3.794   6.256
  252SOL    HW1 2653   4.917   3.722   6.318
  252SOL    HW2 2654   4.927   3.753   6.170
  253SOL     OW 2655  14.723  14.000   9.235
  253SOL    HW1 2656  14.772  14.039   9.162
  253SOL    HW2 2657  14.756  13.911   9.242
  254SOL     OW 2658  12.202   7.446  10.325
  254SOL    HW1 2659  12.208   7.361  10.281
  254SOL    HW2 2660  12.157   7.427  10.408
  255SOL     OW 2661  13.583   1.010   7.369
  255SOL    HW1 2662  13.520   0.972   7.429
  255SOL    HW2 2663  13.533   1.030   7.291
  256SOL     OW 2664  14.679  14.042   5.501
  256SOL    HW1 2665  14.606  14.003   5.454
  256SOL    HW2 2666  14.742  13.971   5.512
  257SOL     OW 2667   2.674   6.647   2.016
  257SOL    HW1 2668   2.687   6.681   1.928
  257SOL    HW2 2669   2.625   6.566   2.004
  258SOL     OW 2670   7.219  10.014   9.867
  258SOL    HW1 2671   7.215   9.920   9.850
  258SOL    HW2 2672   7.135  10.047   9.835
  259SOL     OW 2673   2.802   2.480   8.242
  259SOL    HW1 2674   2.877   2.426   8.219
  259SOL    HW2 2675   2.809   2.492   8.337
  260SOL     OW 2676   0.968  11.613   4.483
  260SOL    HW1 2677   0.935  11.603   4.573
  260SOL    HW2 2678   0.926  11.543   4.434
  261SOL     OW 2679   9.469  13.168   7.281
  261SOL    HW1 2680   9.563  13.172   7.264
  261SOL    HW2 2681   9.456  13.085   7.327
  262SOL     OW 2682   9.748  10.280   8.220
  262SOL    HW1 2683   9.793  10.365   8.220
  262SOL    HW2 2684   9.655  10.302   8.212
  263SOL     OW 2685  11.640  12.055   9.516
  263SOL    HW1 2686  11.659  12.077   9.425
  263SOL    HW2 2687  11.568  12.113   9.540
  264SOL     OW 2688   0.599   2.415   8.688
  264SOL    HW1 2689   0.548   2.446   8.613
  264SOL    HW2 2690   0.654   2.490   8.713
  265SOL     OW 2691   6.317   8.659   8.673
  265SOL    HW1 2692   6.232   8.638   8.635
  265SOL    HW2 2693   6.311   8.626   8.763
  266SOL     OW 2694   0.412   9.084   7.681
  266SOL    HW1 2695   0.410   8.989   7.673
  266SOL    HW2 2696   0.489   9.103   7.734
  267SOL     OW 2697   8.176   7.765  12.575
  267SOL    HW1 2698   8.252   7.773  12.518
  267SOL    HW2 2699   8.105   7.807  12.527
  268SOL     OW 2700   2.364  14.613   3.305
  268SOL    HW1 2701   2.366  14.641   3.213
  268SOL    HW2 2702   2.447  14.565   3.317
  269SOL     OW 2703   4.954   4.388  13.453
  269SOL    HW1 2704   4.895   4.365  13.525
  269SOL    HW2 2705   5.033   4.337  13.471
  270SOL     OW 2706   5.096   3.762   5.512
  270SOL    HW1 2707   5.123   3.715   5.590
  270SOL    HW2 2708   5.001   3.771   5.521
  271SOL     OW 2709   5.774  10.922   7.003
  271SOL    HW1 2710   5.734  10.979   7.068
  271SOL    HW2 2711   5.715  10.927   6.927
  272SOL     OW 2712   4.865   7.467   5.071
  272SOL    HW1 2713   4.838   7.454   4.980
  272SOL    HW2 2714   4.954   7.499   5.065
  273SOL     OW 2715  12.123  11.639  11.621
  273SOL    HW1 2716  12.167  11.721  11.643
  273SOL    HW2 2717  12.030  11.656  11.637
  274SOL     OW 2718  12.680  14.063   7.232
  274SOL    HW1 2719  12.754  14.011   7.261
  274SOL    HW2 2720  12.694  14.076   7.139
  275SOL     OW 2721   4.016  13.971   1.163
  275SOL    HW1 2722   3.974  13.945   1.080
  275SOL    HW2 2723   4.052  14.058   1.145
  276SOL     OW 2724   4.723  10.223   9.067
  276SOL    HW1 2725   4.666  10.207   8.992
  276SOL    HW2 2726   4.805  10.178   9.045
  277SOL     OW 2727  11.131  11.053   0.930
  277SOL    HW1 2728  11.082  10.972   0.920
  277SOL    HW2 2729  11.078  11.106   0.990
  278SOL     OW 2730   5.276  10.062   0.311
  278SOL    HW1 2731   5.190  10.094   0.283
  278SOL    HW2 2732   5.268  10.051   0.405
  279SOL     OW 2733   8.112   3.174   5.624
  279SOL    HW1 2734   8.182   3.231   5.594
  279SOL    HW2 2735   8.095   3.115   5.550
  280SOL     OW 2736   6.660   3.475  11.017
  280SOL    HW1 2737   6.590   3.430  10.969
  280SOL    HW2 2738   6.734   3.474  10.957
  281SOL     OW 2739   3.073   2.758  13.970
  281SOL    HW1 2740   3.110   2.838  14.007
  281SOL    HW2 2741   3.026   2.717  14.043
  282SOL     OW 2742   2.115  14.079  11.743
  282SOL    HW1 2743   2.129  14.143  11.813
  282SOL    HW2 2744   2.151  14.121  11.665
  283SOL     OW 2745  10.104  11.447   0.510
  283SOL    HW1 2746  10.087  11.449   0.604
  283SOL    HW2 2747  10.195  11.475   0.501
  284SOL     OW 2748   1.613   5.378   3.543
  284SOL    HW1 2749   1.629   5.409   3.632
  284SOL    HW2 2750   1.578   5.455   3.498
  285SOL     OW 2751   9.976   1.617   4.188
  285SOL    HW1 2752   9.936   1.704   4.194
  285SOL    HW2 2753   9.920   1.569   4.128
  286SOL     OW 2754   9.534  14.858  11.446
  286SOL    HW1 2755   9.622   0.009  11.466
  286SOL    HW2 2756   9.531  14.770  11.486
  287SOL     OW 2757  14.760  12.063   4.326
  287SOL    HW1 2758  14.675  12.019   4.338
  287SOL    HW2 2759  14.762  12.085   4.233
  288SOL     OW 2760   9.205   2.840  12.097
  288SOL    HW1 2761   9.154   2.776  12.048
  288SOL    HW2 2762   9.197   2.811  12.188
  289SOL     OW 2763   6.587   6.812   7.083
  289SOL    HW1 2764   6.677   6.828   7.111
  289SOL    HW2 2765   6.558   6.738   7.136
  290SOL     OW 2766   0.655  10.803   7.395
  290SOL    HW1 2767   0.671  10.813   7.301
  290SOL    HW2 2768   0.621  10.714   7.405
  291SOL     OW 2769   8.993   7.081  14.605
  291SOL    HW1 2770   9.004   6.986  14.605
  291SOL    HW2 2771   8.982   7.104  14.512
  292SOL     OW 2772   8.905   6.652  14.475
  292SOL    HW1 2773   8.972   6.705  14.518
  292SOL    HW2 2774   8.834   6.646  14.538
  293SOL     OW 2775   4.388   6.647   1.180
  293SOL    HW1 2776   4.382   6.647   1.275
  293SOL    HW2 2777   4.466   6.699   1.161
  294SOL     OW 2778  11.272   6.214   1.156
  294SOL    HW1 2779  11.293   6.307   1.165
  294SOL    HW2 2780  11.324   6.184   1.081
  295SOL     OW 2781   5.735   9.546   2.606
  295SOL    HW1 2782   5.725   9.634   2.643
  295SOL    HW2 2783   5.817   9.551   2.557
  296SOL     OW 2784  12.662   9.827  11.579
  296SOL    HW1 2785  12.613   9.823  11.661
  296SOL    HW2 2786  12.706   9.912  11.582
  297SOL     OW 2787   3.991  13.883  12.198
  297SOL    HW1 2788   4.044  13.837  12.134
  297SOL    HW2 2789   3.955  13.957  12.149
  298SOL     OW 2790  13.255  10.329   7.615
  298SOL    HW1 2791  13.178  10.312   7.561
  298SOL    HW2 2792  13.328  10.298   7.563
  299SOL     OW 2793   8.808   3.078   6.145
  299SOL    HW1 2794   8.808   3.018   6.220
  299SOL    HW2 2795   8.886   3.052   6.095
  300SOL     OW 2796   5.176   7.532   9.353
  300SOL    HW1 2797   5.212   7.450   9.389
  300SOL    HW2 2798   5.254   7.584   9.331
  301SOL     OW 2799   8.813  11.349   6.427
  301SOL    HW1 2800   8.791  11.411   6.496
  301SOL    HW2 2801   8.765  11.269   6.450
  302SOL     OW 2802  14.878   1.350   4.631
  302SOL    HW1 2803  14.786   1.366   4.612
  302SOL    HW2 2804  14.878   1.302   4.714
  303SOL     OW 2805   7.269  11.497   3.215
  303SOL    HW1 2806   7.195  11.521   3.160
  303SOL    HW2 2807   7.346  11.531   3.169
  304SOL     OW 2808   0.985   7.774   4.125
  304SOL    HW1 2809   0.971   7.745   4.215
  304SOL    HW2 2810   1.080   7.784   4.118
  305SOL     OW 2811  10.027  12.905   4.362
  305SOL    HW1 2812  10.029  12.811   4.344
  305SOL    HW2 2813  10.011  12.911   4.456
  306SOL     OW 2814   3.446   1.705  13.841
  306SOL    HW1 2815   3.522   1.721  13.897
  306SOL    HW2 2816   3.392   1.644  13.890
  307SOL     OW 2817   2.549  11.803  11.494
  307SOL    HW1 2818   2.466  11.812  11.448
  307SOL    HW2 2819   2.526  11.758  11.576
  308SOL     OW 2820  12.002   5.679   4.736
  308SOL    HW1 2821  12.019   5.701   4.827
  308SOL    HW2 2822  11.913   5.710   4.720
  309SOL     OW 2823   5.800   5.782   4.972
  309SOL    HW1 2824   5.746   5.831   4.911
  309SOL    HW2 2825   5.890   5.810   4.953
  310SOL     OW 2826  14.132  13.799  13.426
  310SOL    HW1 2827  14.104  13.743  13.499
  310SOL    HW2 2828  14.222  13.822  13.448
  311SOL     OW 2829  13.264   4.922   5.927
  311SOL    HW1 2830  13.267   4.831   5.957
  311SOL    HW2 2831  13.179   4.931   5.884
  312SOL     OW 2832   9.040  12.905   6.723
  312SOL    HW1 2833   9.005  12.994   6.723
  312SOL    HW2 2834   8.966  12.850   6.697
  313SOL     OW 2835   9.144  12.501   4.590
  313SOL    HW1 2836   9.073  12.458   4.637
  313SOL    HW2 2837   9.217  12.439   4.596
  314SOL     OW 2838   8.654   2.762  12.471
  314SOL    HW1 2839   8.685   2.853  12.472
  314SOL    HW2 2840   8.643   2.739  12.563
  315SOL     OW 2841  13.462   9.502   1.176
  315SOL    HW1 2842  13.408   9.554   1.236
  315SOL    HW2 2843  13.399   9.452   1.125
  316SOL     OW 2844   5.294  12.716  11.362
  316SOL    HW1 2845   5.248  12.800  11.353
  316SOL    HW2 2846   5.387  12.740  11.363
  317SOL     OW 2847   3.325  12.052   4.786
  317SOL    HW1 2848   3.283  12.057   4.700
  317SOL    HW2 2849   3.417  12.075   4.769
  318SOL     OW 2850   4.089   2.866  14.491
  318SOL    HW1 2851   4.144   2.794  14.523
  318SOL    HW2 2852   4.004   2.825  14.475
  319SOL     OW 2853   3.409   5.009   9.073
  319SOL    HW1 2854   3.468   4.940   9.041
  319SOL    HW2 2855   3.341   4.961   9.120
  320SOL     OW 2856   2.069   2.552   4.204
  320SOL    HW1 2857   2.010   2.514   4.139
  320SOL    HW2 2858   2.043   2.644   4.209
  321SOL     OW 2859   2.803   1.580   0.227
  321SOL    HW1 2860   2.798   1.643   0.155
  321SOL    HW2 2861   2.716   1.581   0.267
  322SOL     OW 2862   1.477   6.076  10.926
  322SOL    HW1 2863   1.463   6.163  10.890
  322SOL    HW2 2864   1.571   6.072  10.946
  323SOL     OW 2865   3.502   4.674  12.329
  323SOL    HW1 2866   3.494   4.722  12.411
  323SOL    HW2 2867   3.423   4.697  12.280
  324SOL     OW 2868  10.400  11.812   5.066
  324SOL    HW1 2869  10.321  11.789   5.018
  324SOL    HW2 2870  10.464  11.834   4.998
  325SOL     OW 2871  11.900   4.619  10.775
  325SOL    HW1 2872  11.878   4.530  10.745
  325SOL    HW2 2873  11.962   4.651  10.709
  326SOL     OW 2874  10.701  11.350   2.042
  326SOL    HW1 2875  10.662  11.398   1.968
  326SOL    HW2 2876  10.637  11.282   2.063
  327SOL     OW 2877   9.688   8.926   6.615
  327SOL    HW1 2878   9.759   8.990   6.618
  327SOL    HW2 2879   9.646   8.933   6.701
  328SOL     OW 2880   4.235  14.642   9.564
  328SOL    HW1 2881   4.266  14.553   9.548
  328SOL    HW2 2882   4.265  14.662   9.653
  329SOL     OW 2883   7.422   3.458  12.462
  329SOL    HW1 2884   7.359   3.495  12.400
  329SOL    HW2 2885   7.371   3.395  12.513
  330SOL     OW 2886  13.620   5.738   1.187
  330SOL    HW1 2887  13.663   5.776   1.110
  330SOL    HW2 2888  13.562   5.671   1.151
  331SOL     OW 2889  11.843  12.707   4.440
  331SOL    HW1 2890  11.861  12.674   4.352
  331SOL    HW2 2891  11.750  12.688   4.453
  332SOL     OW 2892   6.113  11.473  14.784
  332SOL    HW1 2893   6.148  11.384  14.792
  332SOL    HW2 2894   6.136  11.515  14.867
  333SOL     OW 2895   4.760   8.951   0.898
  333SOL    HW1 2896   4.672   8.978   0.870
  333SOL    HW2 2897   4.764   8.976   0.990
  334SOL     OW 2898   7.044  12.534   9.043
  334SOL    HW1 2899   7.139  12.529   9.056
  334SOL    HW2 2900   7.019  12.446   9.015
  335SOL     OW 2901  11.454   5.844  12.538
  335SOL    HW1 2902  11.512   5.894  12.596
  335SOL    HW2 2903  11.418   5.909  12.478
  336SOL     OW 2904   0.268   6.366   4.923
  336SOL    HW1 2905   0.348   6.377   4.974
  336SOL    HW2 2906   0.236   6.455   4.908
  337SOL     OW 2907   1.689   6.743  11.576
  337SOL    HW1 2908   1.739   6.667  11.606
  337SOL    HW2 2909   1.692   6.739  11.481
  338SOL     OW 2910   1.410   6.996  13.772
  338SOL    HW1 2911   1.326   7.042  13.783
  338SOL    HW2 2912   1.427   7.001  13.678
  339SOL     OW 2913  14.714   1.293   2.746
  339SOL    HW1 2914  14.784   1.229   2.734
  339SOL    HW2 2915  14.634   1.244   2.729
  340SOL     OW 2916   5.622   0.952   2.038
  340SOL    HW1 2917   5.577   0.873   2.007
  340SOL    HW2 2918   5.709   0.921   2.063
  341SOL     OW 2919   7.500   8.998   4.168
  341SOL    HW1 2920   7.589   8.968   4.157
  341SOL    HW2 2921   7.468   9.015   4.080
  342SOL     OW 2922   0.794   0.222   0.349
  342SOL    HW1 2923   0.835   0.136   0.346
  342SOL    HW2 2924   0.727   0.215   0.418
  343SOL     OW 2925  12.503   3.634   2.328
  343SOL    HW1 2926  12.574   3.679   2.374
  343SOL    HW2 2927  12.433   3.699   2.323
  344SOL     OW 2928   3.457   0.220   4.310
  344SOL    HW1 2929   3.465   0.125   4.303
  344SOL    HW2 2930   3.538   0.247   4.353
  345SOL     OW 2931  10.875  12.678  11.160
  345SOL    HW1 2932  10.970  12.664  11.165
  345SOL    HW2 2933  10.851  12.708  11.248
  346SOL     OW 2934   7.971  12.797   3.176
  346SOL    HW1 2935   7.994  12.812   3.268
  346SOL    HW2 2936   8.056  12.783   3.132
  347SOL     OW 2937   8.606   2.635   5.613
  347SOL    HW1 2938   8.518   2.627   5.576
  347SOL    HW2 2939   8.604   2.716   5.663
  348SOL     OW 2940   1.028  13.996  11.630
  348SOL    HW1 2941   1.070  14.048  11.698
  348SOL    HW2 2942   1.010  13.912  11.671
  349SOL     OW 2943   1.302   4.937   8.001
  349SOL    HW1 2944   1.210   4.956   7.984
  349SOL    HW2 2945   1.314   4.954   8.094
  350SOL     OW 2946  11.721   8.116   4.988
  350SOL    HW1 2947  11.808   8.155   4.987
  350SOL    HW2 2948  11.702   8.096   4.896
  351SOL     OW 2949   6.541   5.625   5.601
  351SOL    HW1 2950   6.518   5.618   5.694
  351SOL    HW2 2951   6.510   5.712   5.576
  352SOL     OW 2952   3.720  11.166   0.124
  352SOL    HW1 2953   3.676  11.250   0.139
  352SOL    HW2 2954   3.790  11.185   0.063
  353SOL     OW 2955   3.039   9.590  10.946
  353SOL    HW1 2956   2.973   9.636  10.894
  353SOL    HW2 2957   3.011   9.603  11.036
  354SOL     OW 2958  11.219   0.369   9.020
  354SOL    HW1 2959  11.240   0.287   8.976
  354SOL    HW2 2960  11.297   0.388   9.073
  355SOL     OW 2961   1.555  11.637   8.641
  355SOL    HW1 2962   1.591  11.552   8.615
  355SOL    HW2 2963   1.545  11.684   8.558
  356SOL     OW 2964   3.116   0.297   7.352
  356SOL    HW1 2965   3.089   0.212   7.316
  356SOL    HW2 2966   3.045   0.356   7.330
  357SOL     OW 2967   7.971   0.068  14.238
  357SOL    HW1 2968   7.974  14.874  14.299
  357SOL    HW2 2969   7.879   0.096  14.240
  358SOL     OW 2970   2.227  14.718   6.006
  358SOL    HW1 2971   2.315  14.692   5.979
  358SOL    HW2 2972   2.222  14.811   5.988
  359SOL     OW 2973   7.017  12.033   8.875
  359SOL    HW1 2974   7.049  12.113   8.832
  359SOL    HW2 2975   7.060  12.032   8.960
  360SOL     OW 2976  11.372   1.402  14.220
  360SOL    HW1 2977  11.346   1.311  14.209
  360SOL    HW2 2978  11.381   1.435  14.130
  361SOL     OW 2979  12.787   3.467   2.288
  361SOL    HW1 2980  12.807   3.439   2.199
  361SOL    HW2 2981  12.784   3.563   2.283
  362SOL     OW 2982  11.568   7.775   1.093
  362SOL    HW1 2983  11.662   7.769   1.105
  362SOL    HW2 2984  11.533   7.784   1.182
  363SOL     OW 2985   8.609  12.826   9.323
  363SOL    HW1 2986   8.628  12.920   9.313
  363SOL    HW2 2987   8.676  12.794   9.384
  364SOL     OW 2988   7.332   4.685  10.660
  364SOL    HW1 2989   7.292   4.751  10.604
  364SOL    HW2 2990   7.423   4.680  10.631
  365SOL     OW 2991   9.978   7.642   4.289
  365SOL    HW1 2992  10.046   7.655   4.355
  365SOL    HW2 2993   9.922   7.719   4.297
  366SOL     OW 2994  14.075  13.134   8.958
  366SOL    HW1 2995  14.132  13.165   8.887
  366SOL    HW2 2996  14.007  13.202   8.965
  367SOL     OW 2997   9.301  10.257   8.690
  367SOL    HW1 2998   9.271  10.332   8.638
  367SOL    HW2 2999   9.228  10.238   8.749
  368SOL     OW 3000  14.351   9.131   5.657
  368SOL    HW1 3001  14.301   9.170   5.729
  368SOL    HW2 3002  14.365   9.040   5.684
  369SOL     OW 3003   4.800   7.397  13.805
  369SOL    HW1 3004   4.874   7.365  13.754
  369SOL    HW2 3005   4.739   7.323  13.807
  370SOL     OW 3006   2.992  13.259  13.024
  370SOL    HW1 3007   3.061  13.315  12.987
  370SOL    HW2 3008   2.920  13.268  12.962
  371SOL     OW 3009  12.311   5.647   8.128
  371SOL    HW1 3010  12.278   5.583   8.065
  371SOL    HW2 3011  12.381   5.602   8.175
  372SOL     OW 3012  10.313  14.450   7.042
  372SOL    HW1 3013  10.242  14.390   7.018
  372SOL    HW2 3014  10.393  14.405   7.012
  373SOL     OW 3015   3.514   6.608   4.130
  373SOL    HW1 3016   3.587   6.654   4.171
  373SOL    HW2 3017   3.479   6.670   4.065
  374SOL     OW 3018   7.876   7.245  14.512
  374SOL    HW1 3019   7.896   7.338  14.507
  374SOL    HW2 3020   7.935   7.211  14.579
  375SOL     OW 3021  14.618   1.892   7.194
  375SOL    HW1 3022  14.691   1.948   7.166
  375SOL    HW2 3023  14.615   1.822   7.128
  376SOL     OW 3024  11.988   3.081   6.121
  376SOL    HW1 3025  11.961   3.169   6.149
  376SOL    HW2 3026  12.031   3.095   6.037
  377SOL     OW 3027   8.845   3.557   5.540
  377SOL    HW1 3028   8.797   3.593   5.465
  377SOL    HW2 3029   8.907   3.626   5.564
  378SOL     OW 3030   0.370   2.690   1.527
  378SOL    HW1 3031   0.346   2.668   1.617
  378SOL    HW2 3032   0.287   2.689   1.479
  379SOL     OW 3033   8.879   7.199  11.575
  379SOL    HW1 3034   8.820   7.265  11.539
  379SOL    HW2 3035   8.945   7.185  11.507
  380SOL     OW 3036   5.867   5.938   7.574
  380SOL    HW1 3037   5.919   5.866   7.541
  380SOL    HW2 3038   5.837   5.910   7.660
  381SOL     OW 3039   2.287   1.254   0.625
  381SOL    HW1 3040   2.210   1.303   0.598
  381SOL    HW2 3041   2.284   1.173   0.574
  382SOL     OW 3042   6.966   2.433   7.316
  382SOL    HW1 3043   6.880   2.416   7.276
  382SOL    HW2 3044   6.948   2.435   7.410
  383SOL     OW 3045   9.826  12.500   7.922
  383SOL    HW1 3046   9.838  12.512   7.827
  383SOL    HW2 3047   9.895  12.439   7.948
  384SOL     OW 3048  14.823   8.786   3.017
  384SOL    HW1 3049  14.801   8.719   2.953
  384SOL    HW2 3050  14.742   8.801   3.066
  385SOL     OW 3051   8.760   9.320   5.091
  385SOL    HW1 3052   8.833   9.382   5.088
  385SOL    HW2 3053   8.800   9.238   5.118
  386SOL     OW 3054  10.106  11.672  10.440
  386SOL    HW1 3055  10.061  11.663  10.523
  386SOL    HW2 3056  10.039  11.705  10.380
  387SOL     OW 3057   2.858   1.855   8.680
  387SOL    HW1 3058   2.902   1.832   8.599
  387SOL    HW2 3059   2.822   1.772   8.712
  388SOL     OW 3060   3.621   6.214  11.936
  388SOL    HW1 3061   3.550   6.227  12.000
  388SOL    HW2 3062   3.577   6.175  11.860
  389SOL     OW 3063   2.037   6.527   4.679
  389SOL    HW1 3064   2.074   6.601   4.728
  389SOL    HW2 3065   2.060   6.450   4.730
  390SOL     OW 3066   4.700   5.988  12.314
  390SOL    HW1 3067   4.674   6.009  12.403
  390SOL    HW2 3068   4.775   5.929  12.323
  391SOL     OW 3069   2.642   3.043  12.655
  391SOL    HW1 3070   2.561   3.006  12.620
  391SOL    HW2 3071   2.659   2.991  12.734
  392SOL     OW 3072   6.275  10.898   6.125
  392SOL    HW1 3073   6.334  10.973   6.121
  392SOL    HW2 3074   6.201  10.928   6.178
  393SOL     OW 3075  14.106  13.723  14.050
  393SOL    HW1 3076  14.081  13.775  13.974
  393SOL    HW2 3077  14.053  13.758  14.122
  394SOL     OW 3078   0.909   5.129  12.260
  394SOL    HW1 3079   0.913   5.102  12.352
  394SOL    HW2 3080   0.840   5.075  12.222
  395SOL     OW 3081   0.163  11.890   4.359
  395SOL    HW1 3082   0.147  11.799   4.334
  395SOL    HW2 3083   0.084  11.917   4.405
  396SOL     OW 3084  11.988  11.546  12.001
  396SOL    HW1 3085  12.014  11.558  12.092
  396SOL    HW2 3086  11.947  11.460  11.999
  397SOL     OW 3087   0.618   3.948  14.820
  397SOL    HW1 3088   0.568   4.018  14.778
  397SOL    HW2 3089   0.661   3.902  14.747
  398SOL     OW 3090   1.837   2.775   4.692
  398SOL    HW1 3091   1.889   2.698   4.667
  398SOL    HW2 3092   1.753   2.763   4.647
  399SOL     OW 3093   1.393  12.711  11.281
  399SOL    HW1 3094   1.396  12.655  11.359
  399SOL    HW2 3095   1.472  12.765  11.287
  400SOL     OW 3096   7.726   6.318   3.460
  400SOL    HW1 3097   7.695   6.392   3.511
  400SOL    HW2 3098   7.662   6.249   3.476
  401SOL     OW 3099   7.392   2.814  13.285
  401SOL    HW1 3100   7.392   2.797  13.191
  401SOL    HW2 3101   7.413   2.907  13.293
  402SOL     OW 3102   0.679  11.657   3.736
  402SOL    HW1 3103   0.678  11.671   3.830
  402SOL    HW2 3104   0.656  11.742   3.699
  403SOL     OW 3105  14.451   5.203   8.337
  403SOL    HW1 3106  14.445   5.298   8.347
  403SOL    HW2 3107  14.510   5.175   8.407
  404SOL     OW 3108   1.197  10.122   2.670
  404SOL    HW1 3109   1.192  10.085   2.758
  404SOL    HW2 3110   1.219  10.214   2.683
  405SOL     OW 3111   6.981  10.757   1.295
  405SOL    HW1 3112   6.948  10.668   1.279
  405SOL    HW2 3113   6.906  10.813   1.274
  406SOL     OW 3114  13.121   2.891  14.109
  406SOL    HW1 3115  13.035   2.859  14.136
  406SOL    HW2 3116  13.178   2.872  14.184
  407SOL     OW 3117   0.588  12.148   5.175
  407SOL    HW1 3118   0.621  12.145   5.085
  407SOL    HW2 3119   0.650  12.205   5.221
  408SOL     OW 3120   8.910   4.037  11.788
  408SOL    HW1 3121   8.968   3.976  11.742
  408SOL    HW2 3122   8.955   4.055  11.871
  409SOL     OW 3123  10.961   3.536  13.310
  409SOL    HW1 3124  10.935   3.614  13.359
  409SOL    HW2 3125  11.051   3.518  13.339
  410SOL     OW 3126   6.832   0.139   8.770
  410SOL    HW1 3127   6.856   0.047   8.782
  410SOL    HW2 3128   6.864   0.162   8.683
  411SOL     OW 3129   6.744   9.039   8.490
  411SOL    HW1 3130   6.787   8.962   8.528
  411SOL    HW2 3131   6.666   9.004   8.448
  412SOL     OW 3132   0.158   3.347  14.470
  412SOL    HW1 3133   0.076   3.311  14.504
  412SOL    HW2 3134   0.175   3.423  14.525
  413SOL     OW 3135   8.808  14.207   1.784
  413SOL    HW1 3136   8.888  14.248   1.818
  413SOL    HW2 3137   8.828  14.113   1.783
  414SOL     OW 3138   2.720  13.412  12.459
  414SOL    HW1 3139   2.769  13.462  12.394
  414SOL    HW2 3140   2.628  13.418  12.431
  415SOL     OW 3141   1.314   2.133   8.354
  415SOL    HW1 3142   1.293   2.190   8.281
  415SOL    HW2 3143   1.384   2.178   8.401
  416SOL     OW 3144  11.851   5.184  14.111
  416SOL    HW1 3145  11.921   5.160  14.172
  416SOL    HW2 3146  11.840   5.107  14.055
  417SOL     OW 3147  14.754   4.092  11.429
  417SOL    HW1 3148  14.760   4.046  11.346
  417SOL    HW2 3149  14.808   4.170  11.418
  418SOL     OW 3150  13.004   9.226   7.960
  418SOL    HW1 3151  12.968   9.203   8.045
  418SOL    HW2 3152  13.090   9.263   7.979
  419SOL     OW 3153   3.232   2.307   3.891
  419SOL    HW1 3154   3.293   2.380   3.898
  419SOL    HW2 3155   3.148   2.342   3.922
  420SOL     OW 3156   8.254   9.198   7.986
  420SOL    HW1 3157   8.320   9.262   7.961
  420SOL    HW2 3158   8.289   9.157   8.065
  421SOL     OW 3159   1.165   0.189   1.754
  421SOL    HW1 3160   1.231   0.180   1.822
  421SOL    HW2 3161   1.179   0.277   1.719
  422SOL     OW 3162  10.338   8.183   9.431
  422SOL    HW1 3163  10.270   8.204   9.367
  422SOL    HW2 3164  10.311   8.099   9.469
  423SOL     OW 3165   9.928   3.102   9.209
  423SOL    HW1 3166   9.973   3.140   9.285
  423SOL    HW2 3167   9.958   3.154   9.135
  424SOL     OW 3168   1.345   0.587  12.370
  424SOL    HW1 3169   1.327   0.538  12.449
  424SOL    HW2 3170   1.428   0.632  12.387
  425SOL     OW 3171   0.260  10.125   5.368
  425SOL    HW1 3172   0.183  10.087   5.411
  425SOL    HW2 3173   0.234  10.133   5.276
  426SOL     OW 3174  13.505   8.260  10.054
  426SOL    HW1 3175  13.515   8.272   9.960
  426SOL    HW2 3176  13.567   8.190  10.076
  427SOL     OW 3177  11.552  13.479   2.840
  427SOL    HW1 3178  11.475  13.528   2.871
  427SOL    HW2 3179  11.626  13.523   2.880
  428SOL     OW 3180   1.001   8.617   6.765
  428SOL    HW1 3181   0.981   8.524   6.765
  428SOL    HW2 3182   1.010   8.640   6.857
  429SOL     OW 3183   9.101  13.545   4.128
  429SOL    HW1 3184   9.161  13.494   4.182
  429SOL    HW2 3185   9.060  13.481   4.070
  430SOL     OW 3186   5.607  14.121  14.346
  430SOL    HW1 3187   5.634  14.072  14.424
  430SOL    HW2 3188   5.512  14.131  14.356
  431SOL     OW 3189   5.452   8.956   8.526
  431SOL    HW1 3190   5.516   9.001   8.470
  431SOL    HW2 3191   5.469   8.990   8.614
  432SOL     OW 3192  10.877   8.266  10.063
  432SOL    HW1 3193  10.789   8.231  10.082
  432SOL    HW2 3194  10.864   8.324   9.988
  433SOL     OW 3195   5.405   3.567  10.708
  433SOL    HW1 3196   5.336   3.603  10.764
  433SOL    HW2 3197   5.486   3.591  10.753
  434SOL     OW 3198   9.791  10.424   6.617
  434SOL    HW1 3199   9.713  10.470   6.587
  434SOL    HW2 3200   9.864  10.479   6.589
  435SOL     OW 3201   1.251   8.787   5.743
  435SOL    HW1 3202   1.327   8.733   5.723
  435SOL    HW2 3203   1.229   8.830   5.661
  436SOL     OW 3204   4.001   6.509  14.802
  436SOL    HW1 3205   3.973   6.438  14.859
  436SOL    HW2 3206   3.924   6.529  14.749
  437SOL     OW 3207   8.411   0.171  13.240
  437SOL    HW1 3208   8.403   0.076  13.233
  437SOL    HW2 3209   8.407   0.188  13.334
  438SOL     OW 3210   9.735  14.265   7.054
  438SOL    HW1 3211   9.691  14.259   6.969
  438SOL    HW2 3212   9.665  14.285   7.116
  439SOL     OW 3213   1.762   6.320  11.460
  439SOL    HW1 3214   1.694   6.349  11.400
  439SOL    HW2 3215   1.780   6.396  11.516
  440SOL     OW 3216   0.186  11.130   4.191
  440SOL    HW1 3217   0.170  11.136   4.096
  440SOL    HW2 3218   0.224  11.214   4.214
  441SOL     OW 3219  13.970   6.178   4.312
  441SOL    HW1 3220  14.056   6.217   4.298
  441SOL    HW2 3221  13.911   6.228   4.254
  442SOL     OW 3222  11.536  10.915   5.409
  442SOL    HW1 3223  11.582  10.923   5.325
  442SOL    HW2 3224  11.588  10.852   5.458
  443SOL     OW 3225   2.226   8.156   8.431
  443SOL    HW1 3226   2.186   8.080   8.390
  443SOL    HW2 3227   2.295   8.183   8.370
  444SOL     OW 3228  12.357  12.335  10.917
  444SOL    HW1 3229  12.349  12.354  11.010
  444SOL    HW2 3230  12.451  12.324  10.902
  445SOL     OW 3231   1.907   6.933   3.324
  445SOL    HW1 3232   1.963   6.862   3.291
  445SOL    HW2 3233   1.841   6.888   3.376
  446SOL     OW 3234   5.142   2.730  12.730
  446SOL    HW1 3235   5.067   2.731  12.789
  446SOL    HW2 3236   5.152   2.821  12.702
  447SOL     OW 3237   4.002   1.690   3.572
  447SOL    HW1 3238   4.028   1.639   3.495
  447SOL    HW2 3239   3.956   1.626   3.628
  448SOL     OW 3240   1.898   1.979   8.100
  448SOL    HW1 3241   1.904   1.968   8.005
  448SOL    HW2 3242   1.811   1.946   8.123
  449SOL     OW 3243  13.111   1.427   5.731
  449SOL    HW1 3244  13.167   1.503   5.717
  449SOL    HW2 3245  13.117   1.410   5.825
  450SOL     OW 3246   0.749  10.513   5.127
  450SOL    HW1 3247   0.750  10.495   5.221
  450SOL    HW2 3248   0.814  10.582   5.115
  451SOL     OW 3249  12.797   2.872   0.845
  451SOL    HW1 3250  12.760   2.886   0.758
  451SOL    HW2 3251  12.796   2.958   0.886
  452SOL     OW 3252  13.755  11.434   6.390
  452SOL    HW1 3253  13.829  11.398   6.341
  452SOL    HW2 3254  13.750  11.380   6.469
  453SOL     OW 3255  12.416   4.380   9.067
  453SOL    HW1 3256  12.338   4.327   9.047
  453SOL    HW2 3257  12.414   4.450   9.001
  454SOL     OW 3258   0.087   0.420   5.509
  454SOL    HW1 3259   0.009   0.447   5.459
  454SOL    HW2 3260   0.080   0.467   5.592
  455SOL     OW 3261   5.587   4.403  13.713
  455SOL    HW1 3262   5.649   4.472  13.739
  455SOL    HW2 3263   5.569   4.355  13.794
  456SOL     OW 3264   4.032  11.183   0.561
  456SOL    HW1 3265   3.993  11.162   0.476
  456SOL    HW2 3266   4.027  11.101   0.611
  457SOL     OW 3267  10.627   4.463  13.675
  457SOL    HW1 3268  10.644   4.542  13.624
  457SOL    HW2 3269  10.532   4.451  13.671
  458SOL     OW 3270   4.676  10.551   1.905
  458SOL    HW1 3271   4.609  10.551   1.972
  458SOL    HW2 3272   4.630  10.574   1.824
  459SOL     OW 3273   2.854   0.711   4.595
  459SOL    HW1 3274   2.770   0.741   4.559
  459SOL    HW2 3275   2.916   0.781   4.573
  460SOL     OW 3276   8.566   6.318   3.593
  460SOL    HW1 3277   8.531   6.403   3.621
  460SOL    HW2 3278   8.633   6.297   3.658
  461SOL     OW 3279   7.870   9.939   1.817
  461SOL    HW1 3280   7.956   9.957   1.853
  461SOL    HW2 3281   7.864   9.995   1.739
  462SOL     OW 3282   3.686  11.841  14.092
  462SOL    HW1 3283   3.761  11.792  14.126
  462SOL    HW2 3284   3.702  11.845  13.998
  463SOL     OW 3285   2.699   7.350   1.938
  463SOL    HW1 3286   2.641   7.404   1.992
  463SOL    HW2 3287   2.647   7.328   1.861
  464SOL     OW 3288  11.841  14.731   4.913
  464SOL    HW1 3289  11.917  14.789   4.912
  464SOL    HW2 3290  11.802  14.743   4.999
  465SOL     OW 3291   7.655   5.731   2.525
  465SOL    HW1 3292   7.561   5.725   2.507
  465SOL    HW2 3293   7.674   5.652   2.576
  466SOL     OW 3294  10.133   3.512   4.972
  466SOL    HW1 3295  10.100   3.482   5.057
  466SOL    HW2 3296  10.203   3.450   4.950
  467SOL     OW 3297  13.752  11.445  11.706
  467SOL    HW1 3298  13.663  11.474  11.689
  467SOL    HW2 3299  13.771  11.383  11.635
  468SOL     OW 3300  12.729   0.912   9.536
  468SOL    HW1 3301  12.688   0.996   9.515
  468SOL    HW2 3302  12.703   0.895   9.627
  469SOL     OW 3303  14.379   8.534   7.931
  469SOL    HW1 3304  14.362   8.443   7.956
  469SOL    HW2 3305  14.402   8.529   7.838
  470SOL     OW 3306   9.740   6.548  10.790
  470SOL    HW1 3307   9.756   6.459  10.757
  470SOL    HW2 3308   9.827   6.589  10.788
  471SOL     OW 3309   7.821   6.511   4.811
  471SOL    HW1 3310   7.758   6.573   4.848
  471SOL    HW2 3311   7.770   6.457   4.751
  472SOL     OW 3312  11.861   2.396   4.139
  472SOL    HW1 3313  11.795   2.429   4.200
  472SOL    HW2 3314  11.902   2.475   4.103
  473SOL     OW 3315   0.611   8.890  12.630
  473SOL    HW1 3316   0.701   8.915  12.654
  473SOL    HW2 3317   0.557   8.962  12.661
  474SOL     OW 3318  10.850   8.421  11.542
  474SOL    HW1 3319  10.784   8.468  11.592
  474SOL    HW2 3320  10.800   8.375  11.474
  475SOL     OW 3321  10.043   3.917  13.943
  475SOL    HW1 3322  10.055   4.012  13.948
  475SOL    HW2 3323   9.948   3.906  13.941
  476SOL     OW 3324   4.971   0.763   9.698
  476SOL    HW1 3325   4.990   0.702   9.626
  476SOL    HW2 3326   4.962   0.707   9.775
  477SOL     OW 3327   5.273   5.544   9.620
  477SOL    HW1 3328   5.223   5.587   9.690
  477SOL    HW2 3329   5.210   5.486   9.578
  478SOL     OW 3330   2.260   7.162  11.882
  478SOL    HW1 3331   2.287   7.180  11.972
  478SOL    HW2 3332   2.263   7.066  11.874
  479SOL     OW 3333  13.362   8.886  10.154
  479SOL    HW1 3334  13.405   8.963  10.192
  479SOL    HW2 3335  13.268   8.901  10.168
  480SOL     OW 3336   4.805   7.935  13.630
  480SOL    HW1 3337   4.758   7.885  13.697
  480SOL    HW2 3338   4.893   7.897  13.629
  481SOL     OW 3339   2.401   0.862   4.465
  481SOL    HW1 3340   2.375   0.795   4.528
  481SOL    HW2 3341   2.356   0.941   4.494
  482SOL     OW 3342  13.590  11.028   2.111
  482SOL    HW1 3343  13.631  11.115   2.116
  482SOL    HW2 3344  13.628  10.980   2.185
  483SOL     OW 3345   7.452  10.670   5.828
  483SOL    HW1 3346   7.372  10.637   5.788
  483SOL    HW2 3347   7.507  10.592   5.838
  484SOL     OW 3348  12.219  14.618   4.979
  484SOL    HW1 3349  12.250  14.701   4.943
  484SOL    HW2 3350  12.133  14.639   5.016
  485SOL     OW 3351  11.732  11.189   9.035
  485SOL    HW1 3352  11.768  11.278   9.031
  485SOL    HW2 3353  11.771  11.144   8.959
  486SOL     OW 3354   2.804   4.567   8.688
  486SOL    HW1 3355   2.796   4.483   8.733
  486SOL    HW2 3356   2.759   4.554   8.604
  487SOL     OW 3357  11.752   3.240  12.695
  487SOL    HW1 3358  11.708   3.321  12.719
  487SOL    HW2 3359  11.819   3.267  12.632
  488SOL     OW 3360  13.319   4.009  13.181
  488SOL    HW1 3361  13.227   4.005  13.156
  488SOL    HW2 3362  13.360   4.062  13.113
  489SOL     OW 3363   7.536   7.756  12.472
  489SOL    HW1 3364   7.559   7.753  12.379
  489SOL    HW2 3365   7.600   7.699  12.515
  490SOL     OW 3366   4.987  13.454   9.625
  490SOL    HW1 3367   4.910  13.439   9.570
  490SOL    HW2 3368   5.036  13.521   9.578
  491SOL     OW 3369   4.342   3.004   6.505
  491SOL    HW1 3370   4.337   2.923   6.555
  491SOL    HW2 3371   4.434   3.031   6.511
  492SOL     OW 3372   7.261   4.084   2.943
  492SOL    HW1 3373   7.197   4.066   2.875
  492SOL    HW2 3374   7.337   4.030   2.919
  493SOL     OW 3375   5.776   3.409  11.939
  493SOL    HW1 3376   5.707   3.461  11.980
  493SOL    HW2 3377   5.835   3.388  12.011
  494SOL     OW 3378   9.175   3.535  10.266
  494SOL    HW1 3379   9.092   3.530  10.218
  494SOL    HW2 3380   9.240   3.551  10.198
  495SOL     OW 3381   7.305  12.114  13.768
  495SOL    HW1 3382   7.313  12.202  13.731
  495SOL    HW2 3383   7.352  12.058  13.708
  496SOL     OW 3384   2.742   8.822   9.097
  496SOL    HW1 3385   2.728   8.807   9.004
  496SOL    HW2 3386   2.721   8.738   9.138
  497SOL     OW 3387   0.610   1.074   6.829
  497SOL    HW1 3388   0.621   1.101   6.921
  497SOL    HW2 3389   0.684   1.114   6.784
  498SOL     OW 3390   0.196   5.735  14.785
  498SOL    HW1 3391   0.112   5.711  14.746
  498SOL    HW2 3392   0.178   5.742  14.879
  499SOL     OW 3393   3.262   4.774  10.796
  499SOL    HW1 3394   3.284   4.858  10.756
  499SOL    HW2 3395   3.285   4.784  10.888
  500SOL     OW 3396   6.336  14.844   6.809
  500SOL    HW1 3397   6.263  14.784   6.827
  500SOL    HW2 3398   6.299   0.029   6.750
  501SOL     OW 3399  12.086   8.581   0.984
  501SOL    HW1 3400  12.006   8.615   1.023
  501SOL    HW2 3401  12.142   8.658   0.973
  502SOL     OW 3402   2.968   6.790  12.557
  502SOL    HW1 3403   2.919   6.708  12.560
  502SOL    HW2 3404   2.902   6.859  12.553
  503SOL     OW 3405   4.428   7.874   9.530
  503SOL    HW1 3406   4.412   7.922   9.611
  503SOL    HW2 3407   4.512   7.830   9.544
  504SOL     OW 3408   9.112   2.034  12.780
  504SOL    HW1 3409   9.149   1.995  12.701
  504SOL    HW2 3410   9.184   2.085  12.818
  505SOL     OW 3411   8.644   0.826   5.309
  505SOL    HW1 3412   8.697   0.833   5.230
  505SOL    HW2 3413   8.586   0.751   5.293
  506SOL     OW 3414   8.052   1.607   1.437
  506SOL    HW1 3415   8.028   1.698   1.455
  506SOL    HW2 3416   8.147   1.604   1.450
  507SOL     OW 3417   4.347   7.542   7.867
  507SOL    HW1 3418   4.386   7.468   7.912
  507SOL    HW2 3419   4.415   7.572   7.806
  508SOL     OW 3420   5.667   3.705   3.664
  508SOL    HW1 3421   5.758   3.732   3.677
  508SOL    HW2 3422   5.624   3.720   3.748
  509SOL     OW 3423   4.051   5.434  11.122
  509SOL    HW1 3424   3.993   5.360  11.139
  509SOL    HW2 3425   4.134   5.410  11.163
  510SOL     OW 3426   3.055  14.217   0.311
  510SOL    HW1 3427   3.128  14.228   0.251
  510SOL    HW2 3428   3.012  14.302   0.313
  511SOL     OW 3429  12.508  12.455  13.055
  511SOL    HW1 3430  12.430  12.420  13.098
  511SOL    HW2 3431  12.480  12.473  12.965
  512SOL     OW 3432   6.210  14.765  12.166
  512SOL    HW1 3433   6.159  14.751  12.245
  512SOL    HW2 3434   6.260  14.684  12.156
  513SOL     OW 3435  12.420  14.425   8.014
  513SOL    HW1 3436  12.431  14.517   7.991
  513SOL    HW2 3437  12.338  14.399   7.972
  514SOL     OW 3438  12.476  14.162   7.355
  514SOL    HW1 3439  12.551  14.107   7.335
  514SOL    HW2 3440  12.404  14.100   7.369
  515SOL     OW 3441   7.998   4.568  13.156
  515SOL    HW1 3442   8.003   4.556  13.061
  515SOL    HW2 3443   7.933   4.505  13.185
  516SOL     OW 3444   3.141   1.888   3.660
  516SOL    HW1 3445   3.102   1.812   3.617
  516SOL    HW2 3446   3.232   1.889   3.630
  517SOL     OW 3447   9.941   8.121   3.858
  517SOL    HW1 3448   9.854   8.095   3.829
  517SOL    HW2 3449  10.001   8.072   3.802
  518SOL     OW 3450   1.075   3.976   7.010
  518SOL    HW1 3451   1.122   4.048   6.967
  518SOL    HW2 3452   1.076   3.905   6.946
  519SOL     OW 3453  13.700  13.673   6.018
  519SOL    HW1 3454  13.693  13.707   5.929
  519SOL    HW2 3455  13.754  13.594   6.009
  520SOL     OW 3456   5.109   1.468  13.602
  520SOL    HW1 3457   5.045   1.402  13.629
  520SOL    HW2 3458   5.077   1.549  13.642
  521SOL     OW 3459   0.510   2.726   5.746
  521SOL    HW1 3460   0.514   2.649   5.802
  521SOL    HW2 3461   0.455   2.787   5.794
  522SOL     OW 3462  14.546   3.866  12.576
  522SOL    HW1 3463  14.558   3.888  12.484
  522SOL    HW2 3464  14.561   3.772  12.580
  523SOL     OW 3465   1.974   5.898   1.580
  523SOL    HW1 3466   2.053   5.911   1.633
  523SOL    HW2 3467   2.002   5.840   1.509
  524SOL     OW 3468   8.524  14.041  14.385
  524SOL    HW1 3469   8.434  14.052  14.416
  524SOL    HW2 3470   8.522  13.960  14.334
  525SOL     OW 3471  10.527   6.492   8.229
  525SOL    HW1 3472  10.588   6.427   8.263
  525SOL    HW2 3473  10.536   6.487   8.134
  526SOL     OW 3474   1.187   3.152   1.868
  526SOL    HW1 3475   1.096   3.124   1.872
  526SOL    HW2 3476   1.218   3.122   1.783
  527SOL     OW 3477   2.525   8.791   2.268
  527SOL    HW1 3478   2.548   8.818   2.357
  527SOL    HW2 3479   2.477   8.709   2.280
  528SOL     OW 3480   2.494   2.531  10.692
  528SOL    HW1 3481   2.439   2.518  10.769
  528SOL    HW2 3482   2.490   2.447  10.645
  529SOL     OW 3483   2.510   0.425   6.417
  529SOL    HW1 3484   2.432   0.390   6.459
  529SOL    HW2 3485   2.482   0.507   6.378
  530SOL     OW 3486  11.219   9.630   6.228
  530SOL    HW1 3487  11.184   9.713   6.196
  530SOL    HW2 3488  11.313   9.647   6.241
  531SOL     OW 3489   9.491  14.823   9.591
  531SOL    HW1 3490   9.542  14.793   9.666
  531SOL    HW2 3491   9.545  14.803   9.515
  532SOL     OW 3492   2.422  11.703  10.417
  532SOL    HW1 3493   2.504  11.720  10.463
  532SOL    HW2 3494   2.385  11.627  10.460
  533SOL     OW 3495  12.974  10.602  12.866
  533SOL    HW1 3496  13.039  10.533  12.852
  533SOL    HW2 3497  12.974  10.616  12.961
  534SOL     OW 3498   6.449  13.867   7.449
  534SOL    HW1 3499   6.408  13.798   7.398
  534SOL    HW2 3500   6.425  13.948   7.403
  535SOL     OW 3501   3.686  11.361   8.090
  535SOL    HW1 3502   3.700  11.297   8.160
  535SOL    HW2 3503   3.632  11.315   8.026
  536SOL     OW 3504   3.013  11.649  14.199
  536SOL    HW1 3505   3.018  11.720  14.134
  536SOL    HW2 3506   2.920  11.624  14.200
  537SOL     OW 3507  13.219   9.914   7.436
  537SOL    HW1 3508  13.137   9.933   7.482
  537SOL    HW2 3509  13.262   9.846   7.487
  538SOL     OW 3510   1.767  13.700   0.270
  538SOL    HW1 3511   1.773  13.739   0.183
  538SOL    HW2 3512   1.682  13.657   0.271
  539SOL     OW 3513   5.811  12.171  13.032
  539SOL    HW1 3514   5.805  12.235  12.961
  539SOL    HW2 3515   5.733  12.187  13.086
  540SOL     OW 3516  11.321   5.684   9.340
  540SOL    HW1 3517  11.267   5.630   9.398
  540SOL    HW2 3518  11.407   5.641   9.341
  541SOL     OW 3519   2.357   3.359   7.564
  541SOL    HW1 3520   2.266   3.371   7.535
  541SOL    HW2 3521   2.350   3.346   7.659
  542SOL     OW 3522   9.256  10.023  14.785
  542SOL    HW1 3523   9.300   9.939  14.794
  542SOL    HW2 3524   9.326  10.086  14.771
  543SOL     OW 3525   7.492   8.759   9.844
  543SOL    HW1 3526   7.474   8.665   9.833
  543SOL    HW2 3527   7.507   8.769   9.938
  544SOL     OW 3528  11.245   6.839  10.302
  544SOL    HW1 3529  11.279   6.750  10.297
  544SOL    HW2 3530  11.152   6.829  10.319
  545SOL     OW 3531   7.803   7.540   9.348
  545SOL    HW1 3532   7.769   7.580   9.428
  545SOL    HW2 3533   7.805   7.446   9.367
  546SOL     OW 3534  11.528   3.263   7.333
  546SOL    HW1 3535  11.581   3.190   7.365
  546SOL    HW2 3536  11.444   3.252   7.378
  547SOL     OW 3537   0.223   3.775  10.279
  547SOL    HW1 3538   0.297   3.718  10.259
  547SOL    HW2 3539   0.231   3.793  10.372
  548SOL     OW 3540  11.540   8.697  11.225
  548SOL    HW1 3541  11.570   8.718  11.137
  548SOL    HW2 3542  11.493   8.775  11.254
  549SOL     OW 3543   4.742   6.113   2.944
  549SOL    HW1 3544   4.797   6.188   2.919
  549SOL    HW2 3545   4.678   6.106   2.873
  550SOL     OW 3546   4.929   8.357  10.001
  550SOL    HW1 3547   5.006   8.413   9.996
  550SOL    HW2 3548   4.899   8.365  10.091
  551SOL     OW 3549   5.633   5.793   0.445
  551SOL    HW1 3550   5.670   5.769   0.360
  551SOL    HW2 3551   5.665   5.882   0.461
  552SOL     OW 3552  11.738   8.830  13.133
  552SOL    HW1 3553  11.722   8.897  13.200
  552SOL    HW2 3554  11.777   8.757  13.181
  553SOL     OW 3555   7.311  13.087   4.272
  553SOL    HW1 3556   7.251  13.052   4.206
  553SOL    HW2 3557   7.256  13.111   4.345
  554SOL     OW 3558   0.607   5.722  11.093
  554SOL    HW1 3559   0.664   5.763  11.027
  554SOL    HW2 3560   0.542   5.674  11.042
  555SOL     OW 3561  11.284   6.314   0.353
  555SOL    HW1 3562  11.369   6.297   0.395
  555SOL    HW2 3563  11.225   6.250   0.392
  556SOL     OW 3564   2.796   3.740   3.673
  556SOL    HW1 3565   2.700   3.741   3.674
  556SOL    HW2 3566   2.821   3.787   3.752
  557SOL     OW 3567  10.085   8.615  13.725
  557SOL    HW1 3568  10.138   8.558  13.669
  557SOL    HW2 3569  10.126   8.609  13.811
  558SOL     OW 3570  11.619   3.199  10.552
  558SOL    HW1 3571  11.573   3.229  10.630
  558SOL    HW2 3572  11.678   3.271  10.529
  559SOL     OW 3573  13.235  14.725   4.238
  559SOL    HW1 3574  13.261  14.781   4.165
  559SOL    HW2 3575  13.313  14.673   4.258
  560SOL     OW 3576  14.060  12.824  12.571
  560SOL    HW1 3577  14.050  12.920  12.568
  560SOL    HW2 3578  14.150  12.810  12.600
  561SOL     OW 3579   5.853  11.592   3.670
  561SOL    HW1 3580   5.835  11.553   3.755
  561SOL    HW2 3581   5.928  11.543   3.636
  562SOL     OW 3582   4.507   0.227  13.239
  562SOL    HW1 3583   4.583   0.285  13.247
  562SOL    HW2 3584   4.522   0.178  13.158
  563SOL     OW 3585  13.581   9.519   6.494
  563SOL    HW1 3586  13.620   9.436   6.522
  563SOL    HW2 3587  13.591   9.576   6.570
  564SOL     OW 3588   5.084  14.243   3.961
  564SOL    HW1 3589   5.089  14.324   3.909
  564SOL    HW2 3590   5.012  14.258   4.022
  565SOL     OW 3591   9.982   3.163   4.081
  565SOL    HW1 3592   9.927   3.134   4.154
  565SOL    HW2 3593   9.945   3.119   4.005
  566SOL     OW 3594  10.628   9.794   4.217
  566SOL    HW1 3595  10.612   9.744   4.296
  566SOL    HW2 3596  10.719   9.823   4.225
  567SOL     OW 3597  10.214  12.310   4.444
  567SOL    HW1 3598  10.212  12.298   4.539
  567SOL    HW2 3599  10.213  12.221   4.408
  568SOL     OW 3600   6.086   2.124  13.338
  568SOL    HW1 3601   6.041   2.107  13.256
  568SOL    HW2 3602   6.081   2.219  13.349
  569SOL     OW 3603   8.000  13.808   0.204
  569SOL    HW1 3604   7.936  13.845   0.143
  569SOL    HW2 3605   8.081  13.856   0.184
  570SOL     OW 3606   1.743   1.884  13.907
  570SOL    HW1 3607   1.749   1.908  13.815
  570SOL    HW2 3608   1.832   1.855  13.930
  571SOL     OW 3609   0.834   0.599   6.419
  571SOL    HW1 3610   0.866   0.648   6.494
  571SOL    HW2 3611   0.907   0.541   6.396
  572SOL     OW 3612  11.111  12.869   3.743
  572SOL    HW1 3613  11.068  12.876   3.658
  572SOL    HW2 3614  11.075  12.942   3.794
  573SOL     OW 3615   5.155  11.572   1.341
  573SOL    HW1 3616   5.168  11.522   1.421
  573SOL    HW2 3617   5.243  11.598   1.314
  574SOL     OW 3618   2.266   9.034   4.523
  574SOL    HW1 3619   2.299   9.042   4.613
  574SOL    HW2 3620   2.178   9.072   4.527
  575SOL     OW 3621   7.735   3.615   9.560
  575SOL    HW1 3622   7.707   3.643   9.473
  575SOL    HW2 3623   7.758   3.696   9.605
  576SOL     OW 3624   3.686   3.334   8.594
  576SOL    HW1 3625   3.699   3.245   8.627
  576SOL    HW2 3626   3.692   3.326   8.499
  577SOL     OW 3627   3.778   0.539  13.765
  577SOL    HW1 3628   3.685   0.551  13.743
  577SOL    HW2 3629   3.777   0.500  13.853
  578SOL     OW 3630   5.618   1.913   4.892
  578SOL    HW1 3631   5.645   1.927   4.801
  578SOL    HW2 3632   5.525   1.937   4.893
  579SOL     OW 3633  12.315   4.362  12.423
  579SOL    HW1 3634  12.364   4.285  12.454
  579SOL    HW2 3635  12.375   4.435  12.438
  580SOL     OW 3636   7.126  11.615  14.329
  580SOL    HW1 3637   7.135  11.669  14.250
  580SOL    HW2 3638   7.188  11.544  14.316
  581SOL     OW 3639   5.423   6.385   3.097
  581SOL    HW1 3640   5.411   6.306   3.045
  581SOL    HW2 3641   5.387   6.455   3.043
  582SOL     OW 3642   8.495  12.616   7.597
  582SOL    HW1 3643   8.402  12.592   7.589
  582SOL    HW2 3644   8.543  12.539   7.568
  583SOL     OW 3645   8.302   8.997   5.578
  583SOL    HW1 3646   8.326   9.057   5.508
  583SOL    HW2 3647   8.385   8.969   5.616
  584SOL     OW 3648   5.789   0.583  11.522
  584SOL    HW1 3649   5.699   0.553  11.507
  584SOL    HW2 3650   5.844   0.520  11.474
  585SOL     OW 3651   5.143  12.843   9.428
  585SOL    HW1 3652   5.157  12.885   9.344
  585SOL    HW2 3653   5.062  12.881   9.462
  586SOL     OW 3654  10.944   1.616  10.298
  586SOL    HW1 3655  10.896   1.695  10.321
  586SOL    HW2 3656  11.020   1.647  10.249
  587SOL     OW 3657   8.830   5.476   8.014
  587SOL    HW1 3658   8.772   5.409   8.050
  587SOL    HW2 3659   8.772   5.531   7.960
  588SOL     OW 3660   3.519  11.307   1.138
  588SOL    HW1 3661   3.532  11.319   1.044
  588SOL    HW2 3662   3.568  11.228   1.159
  589SOL     OW 3663   3.078  12.975   6.869
  589SOL    HW1 3664   3.058  13.027   6.947
  589SOL    HW2 3665   3.013  13.002   6.804
  590SOL     OW 3666   6.922   2.047   0.838
  590SOL    HW1 3667   6.915   1.957   0.805
  590SOL    HW2 3668   6.922   2.101   0.759
  591SOL     OW 3669   5.056   9.102   0.795
  591SOL    HW1 3670   5.043   9.009   0.778
  591SOL    HW2 3671   5.004   9.119   0.874
  592SOL     OW 3672  10.036   7.176   0.985
  592SOL    HW1 3673  10.128   7.166   1.008
  592SOL    HW2 3674  10.027   7.267   0.958
  593SOL     OW 3675  14.387   5.969   5.897
  593SOL    HW1 3676  14.322   6.010   5.953
  593SOL    HW2 3677  14.401   6.031   5.825
  594SOL     OW 3678   9.138   5.784   8.362
  594SOL    HW1 3679   9.183   5.742   8.436
  594SOL    HW2 3680   9.070   5.721   8.337
  595SOL     OW 3681   8.793  12.607   0.796
  595SOL    HW1 3682   8.805  12.680   0.736
  595SOL    HW2 3683   8.727  12.637   0.858
  596SOL     OW 3684  11.607  12.905  12.788
  596SOL    HW1 3685  11.571  12.990  12.816
  596SOL    HW2 3686  11.642  12.921  12.701
  597SOL     OW 3687   6.707   3.416   7.516
  597SOL    HW1 3688   6.760   3.491   7.544
  597SOL    HW2 3689   6.726   3.348   7.581
  598SOL     OW 3690   0.088  14.809   8.497
  598SOL    HW1 3691   0.024  14.802   8.427
  598SOL    HW2 3692   0.169  14.835   8.453
  599SOL     OW 3693  11.363  12.063   5.581
  599SOL    HW1 3694  11.302  12.060   5.507
  599SOL    HW2 3695  11.427  12.130   5.558
  600SOL     OW 3696  11.141   4.893   2.904
  600SOL    HW1 3697  11.103   4.832   2.967
  600SOL    HW2 3698  11.233   4.899   2.929
  601SOL     OW 3699  12.341   6.339  11.381
  601SOL    HW1 3700  12.348   6.343  11.476
  601SOL    HW2 3701  12.334   6.246  11.361
  602SOL     OW 3702  11.873   0.811  10.790
  602SOL    HW1 3703  11.851   0.862  10.868
  602SOL    HW2 3704  11.880   0.721  10.822
  603SOL     OW 3705  13.329   3.731   5.773
  603SOL    HW1 3706  13.277   3.788   5.716
  603SOL    HW2 3707  13.408   3.783   5.791
  604SOL     OW 3708   6.789  11.607   4.402
  604SOL    HW1 3709   6.827  11.695   4.394
  604SOL    HW2 3710   6.694  11.623   4.403
  605SOL     OW 3711   1.867   0.367   6.691
  605SOL    HW1 3712   1.801   0.433   6.668
  605SOL    HW2 3713   1.831   0.285   6.657
  606SOL     OW 3714   4.456  12.471  10.006
  606SOL    HW1 3715   4.383  12.429   9.962
  606SOL    HW2 3716   4.502  12.519   9.937
  607SOL     OW 3717   0.859   5.563  12.206
  607SOL    HW1 3718   0.774   5.521  12.192
  607SOL    HW2 3719   0.920   5.491  12.217
  608SOL     OW 3720   9.513   3.134   6.696
  608SOL    HW1 3721   9.522   3.222   6.734
  608SOL    HW2 3722   9.473   3.082   6.766
  609SOL     OW 3723   1.495   5.904   0.184
  609SOL    HW1 3724   1.525   5.959   0.257
  609SOL    HW2 3725   1.408   5.874   0.211
  610SOL     OW 3726  10.877  13.121   0.453
  610SOL    HW1 3727  10.930  13.162   0.385
  610SOL    HW2 3728  10.932  13.123   0.531
  611SOL     OW 3729  14.528   0.111   7.923
  611SOL    HW1 3730  14.545   0.018   7.939
  611SOL    HW2 3731  14.473   0.139   7.996
  612SOL     OW 3732   5.470  12.520   9.516
  612SOL    HW1 3733   5.413  12.518   9.593
  612SOL    HW2 3734   5.559  12.512   9.551
  613SOL     OW 3735   6.187  14.497  12.796
  613SOL    HW1 3736   6.107  14.461  12.834
  613SOL    HW2 3737   6.252  14.490  12.866
  614SOL     OW 3738   4.608  11.299  11.757
  614SOL    HW1 3739   4.582  11.267  11.844
  614SOL    HW2 3740   4.627  11.220  11.707
  615SOL     OW 3741   4.389   4.503   5.671
  615SOL    HW1 3742   4.355   4.519   5.583
  615SOL    HW2 3743   4.458   4.569   5.682
  616SOL     OW 3744   8.737  14.207   4.905
  616SOL    HW1 3745   8.703  14.284   4.861
  616SOL    HW2 3746   8.668  14.141   4.895
  617SOL     OW 3747   1.304   0.576   5.409
  617SOL    HW1 3748   1.372   0.591   5.343
  617SOL    HW2 3749   1.254   0.658   5.412
  618SOL     OW 3750  14.666   3.468   7.428
  618SOL    HW1 3751  14.646   3.446   7.519
  618SOL    HW2 3752  14.674   3.384   7.384
  619SOL     OW 3753   6.780   7.871   9.984
  619SOL    HW1 3754   6.851   7.913   9.935
  619SOL    HW2 3755   6.712   7.855   9.918
  620SOL     OW 3756   4.582  10.068   6.348
  620SOL    HW1 3757   4.594  10.089   6.256
  620SOL    HW2 3758   4.652  10.116   6.393
  621SOL     OW 3759   9.982   0.013   9.695
  621SOL    HW1 3760   9.922  14.851   9.757
  621SOL    HW2 3761  10.063   0.023   9.745
  622SOL     OW 3762   4.981  13.593   5.040
  622SOL    HW1 3763   4.973  13.566   5.132
  622SOL    HW2 3764   4.990  13.512   4.992
  623SOL     OW 3765   0.263   1.301   6.106
  623SOL    HW1 3766   0.193   1.244   6.073
  623SOL    HW2 3767   0.341   1.273   6.058
  624SOL     OW 3768   9.602   3.194  14.387
  624SOL    HW1 3769   9.546   3.130  14.432
  624SOL    HW2 3770   9.629   3.255  14.455
  625SOL     OW 3771   3.809   8.470   4.441
  625SOL    HW1 3772   3.854   8.542   4.396
  625SOL    HW2 3773   3.738   8.514   4.489
  626SOL     OW 3774   0.159   7.398   8.221
  626SOL    HW1 3775   0.076   7.353   8.238
  626SOL    HW2 3776   0.219   7.329   8.193
  627SOL     OW 3777   9.992   6.033   7.005
  627SOL    HW1 3778   9.900   6.007   7.000
  627SOL    HW2 3779   9.991   6.123   7.036
  628SOL     OW 3780   0.190  10.038   2.307
  628SOL    HW1 3781   0.129  10.015   2.237
  628SOL    HW2 3782   0.165   9.983   2.380
  629SOL     OW 3783  11.460   3.501  10.377
  629SOL    HW1 3784  11.411   3.475  10.455
  629SOL    HW2 3785  11.493   3.419  10.341
  630SOL     OW 3786   5.740  14.640   8.483
  630SOL    HW1 3787   5.686  14.587   8.542
  630SOL    HW2 3788   5.773  14.711   8.538
  631SOL     OW 3789   4.231   0.012   9.442
  631SOL    HW1 3790   4.200   0.078   9.504
  631SOL    HW2 3791   4.223  14.809   9.490
  632SOL     OW 3792   9.032   2.251  13.487
  632SOL    HW1 3793   8.983   2.173  13.511
  632SOL    HW2 3794   9.108   2.251  13.545
  633SOL     OW 3795   7.067  12.796   3.406
  633SOL    HW1 3796   7.010  12.801   3.330
  633SOL    HW2 3797   7.065  12.884   3.444
  634SOL     OW 3798   5.246   1.364   3.962
  634SOL    HW1 3799   5.207   1.280   3.988
  634SOL    HW2 3800   5.207   1.383   3.877
  635SOL     OW 3801  14.415  11.431  12.555
  635SOL    HW1 3802  14.436  11.350  12.508
  635SOL    HW2 3803  14.373  11.487  12.490
  636SOL     OW 3804   0.129  13.588  14.748
  636SOL    HW1 3805   0.187  13.664  14.743
  636SOL    HW2 3806   0.088  13.595  14.835
  637SOL     OW 3807   4.300   8.551   2.830
  637SOL    HW1 3808   4.352   8.481   2.869
  637SOL    HW2 3809   4.215   8.546   2.873
  638SOL     OW 3810   3.875   1.677  11.023
  638SOL    HW1 3811   3.857   1.716  11.108
  638SOL    HW2 3812   3.916   1.593  11.044
  639SOL     OW 3813  11.165   8.538   1.296
  639SOL    HW1 3814  11.130   8.593   1.366
  639SOL    HW2 3815  11.117   8.455   1.305
  640SOL     OW 3816   7.538  11.998  12.949
  640SOL    HW1 3817   7.620  12.031  12.985
  640SOL    HW2 3818   7.529  11.910  12.986
  641SOL     OW 3819  12.050   1.934   9.946
  641SOL    HW1 3820  12.031   2.005   9.884
  641SOL    HW2 3821  11.964   1.900   9.971
  642SOL     OW 3822   9.503   8.699  14.224
  642SOL    HW1 3823   9.569   8.745  14.171
  642SOL    HW2 3824   9.553   8.645  14.284
  643SOL     OW 3825  12.576   2.293  12.325
  643SOL    HW1 3826  12.508   2.333  12.271
  643SOL    HW2 3827  12.587   2.354  12.398
  644SOL     OW 3828   3.446   0.915   3.528
  644SOL    HW1 3829   3.390   0.865   3.587
  644SOL    HW2 3830   3.489   0.849   3.474
  645SOL     OW 3831  10.803   0.108  13.029
  645SOL    HW1 3832  10.869   0.058  13.075
  645SOL    HW2 3833  10.846   0.136  12.948
  646SOL     OW 3834   4.983   2.095   5.394
  646SOL    HW1 3835   4.996   2.051   5.310
  646SOL    HW2 3836   5.069   2.127   5.418
  647SOL     OW 3837  14.719   3.459  12.436
  647SOL    HW1 3838  14.733   3.470  12.342
  647SOL    HW2 3839  14.685   3.370  12.445
  648SOL     OW 3840   4.140   0.663   0.308
  648SOL    HW1 3841   4.120   0.570   0.302
  648SOL    HW2 3842   4.206   0.678   0.241
  649SOL     OW 3843   6.514   6.555   1.971
  649SOL    HW1 3844   6.418   6.553   1.971
  649SOL    HW2 3845   6.537   6.548   2.064
  650SOL     OW 3846   2.430   5.866   7.996
  650SOL    HW1 3847   2.426   5.961   7.988
  650SOL    HW2 3848   2.511   5.842   7.953
  651SOL     OW 3849  11.452   0.490  12.649
  651SOL    HW1 3850  11.498   0.562  12.693
  651SOL    HW2 3851  11.412   0.531  12.572
  652SOL     OW 3852  11.381  10.996  10.665
  652SOL    HW1 3853  11.330  11.077  10.662
  652SOL    HW2 3854  11.318  10.928  10.690
  653SOL     OW 3855  11.052   5.296   0.353
  653SOL    HW1 3856  10.967   5.274   0.314
  653SOL    HW2 3857  11.036   5.376   0.403
  654SOL     OW 3858  10.037   2.203  12.905
  654SOL    HW1 3859  10.110   2.258  12.936
  654SOL    HW2 3860   9.971   2.266  12.875
  655SOL     OW 3861   9.351  10.765  13.812
  655SOL    HW1 3862   9.275  10.713  13.841
  655SOL    HW2 3863   9.394  10.709  13.747
  656SOL     OW 3864   4.232   2.174  12.327
  656SOL    HW1 3865   4.257   2.262  12.296
  656SOL    HW2 3866   4.166   2.145  12.265
  657SOL     OW 3867   2.966   3.845   8.653
  657SOL    HW1 3868   2.916   3.908   8.601
  657SOL    HW2 3869   2.954   3.761   8.607
  658SOL     OW 3870  12.507   5.554  13.516
  658SOL    HW1 3871  12.575   5.621  13.521
  658SOL    HW2 3872  12.536   5.496  13.446
  659SOL     OW 3873   0.340   5.520   4.127
  659SOL    HW1 3874   0.318   5.433   4.094
  659SOL    HW2 3875   0.435   5.526   4.115
  660SOL     OW 3876   7.643   7.746   0.203
  660SOL    HW1 3877   7.666   7.785   0.287
  660SOL    HW2 3878   7.676   7.656   0.208
  661SOL     OW 3879  11.446   5.991   5.792
  661SOL    HW1 3880  11.482   5.986   5.704
  661SOL    HW2 3881  11.459   6.082   5.819
  662SOL     OW 3882   7.375   5.839   7.544
  662SOL    HW1 3883   7.312   5.888   7.492
  662SOL    HW2 3884   7.369   5.876   7.632
  663SOL     OW 3885   4.757  14.154   6.854
  663SOL    HW1 3886   4.824  14.094   6.886
  663SOL    HW2 3887   4.708  14.180   6.932
  664SOL     OW 3888   7.048   6.469  10.198
  664SOL    HW1 3889   7.114   6.537  10.205
  664SOL    HW2 3890   7.070   6.406  10.267
  665SOL     OW 3891   9.604  10.845   0.181
  665SOL    HW1 3892   9.633  10.902   0.251
  665SOL    HW2 3893   9.671  10.854   0.113
  666SOL     OW 3894   0.580   4.779  12.161
  666SOL    HW1 3895   0.605   4.851  12.103
  666SOL    HW2 3896   0.620   4.702  12.122
  667SOL     OW 3897   5.689  11.250   9.157
  667SOL    HW1 3898   5.724  11.239   9.068
  667SOL    HW2 3899   5.766  11.244   9.214
  668SOL     OW 3900   2.198  10.015   6.643
  668SOL    HW1 3901   2.167   9.992   6.555
  668SOL    HW2 3902   2.217   9.931   6.684
  669SOL     OW 3903   5.511   9.576   1.653
  669SOL    HW1 3904   5.476   9.647   1.599
  669SOL    HW2 3905   5.567   9.527   1.593
  670SOL     OW 3906  12.252   0.828   4.006
  670SOL    HW1 3907  12.250   0.733   4.014
  670SOL    HW2 3908  12.268   0.860   4.095
  671SOL     OW 3909   8.402   3.004   8.759
  671SOL    HW1 3910   8.473   3.026   8.820
  671SOL    HW2 3911   8.413   3.065   8.686
  672SOL     OW 3912  10.936   0.620   3.265
  672SOL    HW1 3913  10.962   0.557   3.332
  672SOL    HW2 3914  10.847   0.646   3.289
  673SOL     OW 3915   4.209   2.878   8.605
  673SOL    HW1 3916   4.259   2.831   8.672
  673SOL    HW2 3917   4.122   2.838   8.606
  674SOL     OW 3918  11.596   5.721  10.493
  674SOL    HW1 3919  11.632   5.792  10.440
  674SOL    HW2 3920  11.616   5.746  10.583
  675SOL     OW 3921   2.032   0.982   9.429
  675SOL    HW1 3922   2.017   1.035   9.350
  675SOL    HW2 3923   2.104   1.026   9.473
  676SOL     OW 3924   8.997   3.157   0.568
  676SOL    HW1 3925   9.063   3.095   0.598
  676SOL    HW2 3926   8.973   3.208   0.645
  677SOL     OW 3927  13.992   2.445   0.248
  677SOL    HW1 3928  13.956   2.513   0.304
  677SOL    HW2 3929  13.953   2.364   0.280
  678SOL     OW 3930   6.132   3.222   6.214
  678SOL    HW1 3931   6.170   3.142   6.251
  678SOL    HW2 3932   6.041   3.197   6.194
  679SOL     OW 3933   0.967  14.432  13.040
  679SOL    HW1 3934   0.974  14.339  13.064
  679SOL    HW2 3935   1.018  14.478  13.107
  680SOL     OW 3936   2.944   1.288  10.132
  680SOL    HW1 3937   2.872   1.248  10.180
  680SOL    HW2 3938   2.957   1.230  10.057
  681SOL     OW 3939   1.466   9.962   3.974
  681SOL    HW1 3940   1.446  10.047   4.014
  681SOL    HW2 3941   1.409   9.900   4.019
  682SOL     OW 3942   0.048   5.503   7.372
  682SOL    HW1 3943   0.016   5.528   7.459
  682SOL    HW2 3944   0.127   5.555   7.360
  683SOL     OW 3945   0.330   9.674   6.958
  683SOL    HW1 3946   0.270   9.742   6.928
  683SOL    HW2 3947   0.284   9.631   7.030
  684SOL     OW 3948  13.715  14.277   9.083
  684SOL    HW1 3949  13.664  14.226   9.146
  684SOL    HW2 3950  13.805  14.246   9.094
  685SOL     OW 3951   8.569  10.493   7.891
  685SOL    HW1 3952   8.491  10.482   7.837
  685SOL    HW2 3953   8.608  10.405   7.894
  686SOL     OW 3954  12.965   3.770   4.663
  686SOL    HW1 3955  13.009   3.689   4.639
  686SOL    HW2 3956  13.032   3.822   4.707
  687SOL     OW 3957   4.762  14.195   6.577
  687SOL    HW1 3958   4.844  14.149   6.563
  687SOL    HW2 3959   4.745  14.185   6.671
  688SOL     OW 3960   4.526  14.690  14.428
  688SOL    HW1 3961   4.531  14.713  14.521
  688SOL    HW2 3962   4.617  14.685  14.400
  689SOL     OW 3963  13.319   0.136   6.375
  689SOL    HW1 3964  13.295   0.125   6.467
  689SOL    HW2 3965  13.338   0.047   6.344
  690SOL     OW 3966   0.162   0.137   2.182
  690SOL    HW1 3967   0.154   0.100   2.270
  690SOL    HW2 3968   0.240   0.096   2.145
  691SOL     OW 3969  13.009   6.309   7.612
  691SOL    HW1 3970  12.980   6.366   7.541
  691SOL    HW2 3971  13.070   6.363   7.662
  692SOL     OW 3972   3.035  11.461   0.949
  692SOL    HW1 3973   2.983  11.519   0.894
  692SOL    HW2 3974   3.115  11.445   0.898
  693SOL     OW 3975  12.101   5.350   6.750
  693SOL    HW1 3976  12.039   5.301   6.697
  693SOL    HW2 3977  12.048   5.394   6.816
  694SOL     OW 3978   9.261  14.727   9.324
  694SOL    HW1 3979   9.264  14.684   9.409
  694SOL    HW2 3980   9.309  14.669   9.265
  695SOL     OW 3981   7.160   2.642   0.324
  695SOL    HW1 3982   7.217   2.718   0.328
  695SOL    HW2 3983   7.198   2.586   0.256
  696SOL     OW 3984   4.623   8.699   6.886
  696SOL    HW1 3985   4.619   8.664   6.797
  696SOL    HW2 3986   4.571   8.779   6.882
  697SOL     OW 3987  14.715   8.317   8.603
  697SOL    HW1 3988  14.636   8.368   8.587
  697SOL    HW2 3989  14.686   8.226   8.600
  698SOL     OW 3990   6.832   4.824   1.588
  698SOL    HW1 3991   6.863   4.908   1.552
  698SOL    HW2 3992   6.772   4.791   1.521
  699SOL     OW 3993   3.552  14.813   9.075
  699SOL    HW1 3994   3.571  14.832   8.983
  699SOL    HW2 3995   3.637  14.790   9.113
  700SOL     OW 3996   2.187  14.562   1.426
  700SOL    HW1 3997   2.216  14.632   1.484
  700SOL    HW2 3998   2.225  14.584   1.341
  701SOL     OW 3999  12.820   1.886   8.202
  701SOL    HW1 4000  12.770   1.845   8.273
  701SOL    HW2 4001  12.861   1.962   8.243
  702SOL     OW 4002  13.970   5.916   7.923
  702SOL    HW1 4003  13.920   5.860   7.864
  702SOL    HW2 4004  14.059   5.881   7.919
  703SOL     OW 4005   1.512  12.774   8.576
  703SOL    HW1 4006   1.554  12.718   8.641
  703SOL    HW2 4007   1.576  12.781   8.505
  704SOL     OW 4008  11.108   4.237   0.260
  704SOL    HW1 4009  11.120   4.218   0.167
  704SOL    HW2 4010  11.140   4.159   0.305
  705SOL     OW 4011   8.317   7.461   4.540
  705SOL    HW1 4012   8.290   7.490   4.453
  705SOL    HW2 4013   8.338   7.368   4.529
  706SOL     OW 4014  11.937   6.794   8.432
  706SOL    HW1 4015  11.953   6.750   8.349
  706SOL    HW2 4016  11.996   6.752   8.494
  707SOL     OW 4017   8.031   4.711   1.177
  707SOL    HW1 4018   8.019   4.723   1.271
  707SOL    HW2 4019   7.943   4.718   1.140
  708SOL     OW 4020   9.112  11.103  11.584
  708SOL    HW1 4021   9.102  11.089  11.490
  708SOL    HW2 4022   9.023  11.114  11.616
  709SOL     OW 4023   7.295   2.373  14.074
  709SOL    HW1 4024   7.265   2.352  13.986
  709SOL    HW2 4025   7.372   2.318  14.087
  710SOL     OW 4026   8.301  13.483   8.358
  710SOL    HW1 4027   8.358  13.428   8.304
  710SOL    HW2 4028   8.253  13.420   8.412
  711SOL     OW 4029   1.249   5.117   2.395
  711SOL    HW1 4030   1.313   5.145   2.460
  711SOL    HW2 4031   1.178   5.077   2.445
  712SOL     OW 4032  11.378   0.712   0.454
  712SOL    HW1 4033  11.314   0.777   0.481
  712SOL    HW2 4034  11.460   0.741   0.494
  713SOL     OW 4035  10.693   7.794   1.924
  713SOL    HW1 4036  10.700   7.699   1.937
  713SOL    HW2 4037  10.757   7.831   1.985
  714SOL     OW 4038  11.556   5.017  12.586
  714SOL    HW1 4039  11.581   5.070  12.662
  714SOL    HW2 4040  11.558   4.927  12.618
  715SOL     OW 4041   1.071   6.190   4.086
  715SOL    HW1 4042   1.084   6.251   4.159
  715SOL    HW2 4043   0.984   6.211   4.053
  716SOL     OW 4044   5.058   6.543  14.613
  716SOL    HW1 4045   5.018   6.484  14.549
  716SOL    HW2 4046   5.037   6.631  14.582
  717SOL     OW 4047   4.066   4.897  13.178
  717SOL    HW1 4048   4.131   4.856  13.122
  717SOL    HW2 4049   3.989   4.906  13.122
  718SOL     OW 4050   8.890   6.891   2.651
  718SOL    HW1 4051   8.814   6.867   2.598
  718SOL    HW2 4052   8.921   6.973   2.613
  719SOL     OW 4053   4.318   6.500   4.638
  719SOL    HW1 4054   4.336   6.525   4.729
  719SOL    HW2 4055   4.234   6.455   4.642
  720SOL     OW 4056   1.108  13.798   6.834
  720SOL    HW1 4057   1.078  13.726   6.889
  720SOL    HW2 4058   1.190  13.828   6.875
  721SOL     OW 4059   2.985  11.885   2.599
  721SOL    HW1 4060   2.966  11.978   2.607
  721SOL    HW2 4061   2.942  11.859   2.518
  722SOL     OW 4062   7.493   3.933   3.085
  722SOL    HW1 4063   7.486   3.838   3.082
  722SOL    HW2 4064   7.559   3.955   3.019
  723SOL     OW 4065   7.885   6.471  11.898
  723SOL    HW1 4066   7.920   6.392  11.858
  723SOL    HW2 4067   7.962   6.518  11.931
  724SOL     OW 4068   0.613   0.062  12.925
  724SOL    HW1 4069   0.579   0.029  12.842
  724SOL    HW2 4070   0.609   0.157  12.917
  725SOL     OW 4071   8.052   0.927   3.438
  725SOL    HW1 4072   7.996   0.850   3.448
  725SOL    HW2 4073   8.068   0.933   3.344
  726SOL     OW 4074   1.439   1.906   8.561
  726SOL    HW1 4075   1.461   1.986   8.512
  726SOL    HW2 4076   1.348   1.918   8.588
  727SOL     OW 4077   6.944   6.477   3.662
  727SOL    HW1 4078   6.893   6.404   3.699
  727SOL    HW2 4079   6.894   6.555   3.685
  728SOL     OW 4080   3.339   5.261   3.672
  728SOL    HW1 4081   3.294   5.235   3.592
  728SOL    HW2 4082   3.432   5.263   3.648
  729SOL     OW 4083   4.127   7.501   2.364
  729SOL    HW1 4084   4.202   7.546   2.324
  729SOL    HW2 4085   4.065   7.570   2.385
  730SOL     OW 4086   2.841   3.960  11.476
  730SOL    HW1 4087   2.877   4.034  11.524
  730SOL    HW2 4088   2.916   3.903  11.459
  731SOL     OW 4089   2.005   0.259   3.374
  731SOL    HW1 4090   2.009   0.194   3.444
  731SOL    HW2 4091   2.059   0.223   3.304
  732SOL     OW 4092   7.219  13.400   2.145
  732SOL    HW1 4093   7.264  13.342   2.084
  732SOL    HW2 4094   7.272  13.395   2.225
  733SOL     OW 4095  10.924  11.000   7.814
  733SOL    HW1 4096  10.896  10.953   7.893
  733SOL    HW2 4097  10.843  11.037   7.779
  734SOL     OW 4098  10.707  14.310  10.160
  734SOL    HW1 4099  10.631  14.368  10.167
  734SOL    HW2 4100  10.679  14.229  10.203
  735SOL     OW 4101   8.075  11.053   0.416
  735SOL    HW1 4102   8.047  11.013   0.499
  735SOL    HW2 4103   8.140  10.992   0.381
  736SOL     OW 4104   0.856   1.002   0.911
  736SOL    HW1 4105   0.783   1.060   0.934
  736SOL    HW2 4106   0.934   1.057   0.919
  737SOL     OW 4107   9.953  11.263   6.661
  737SOL    HW1 4108   9.998  11.347   6.667
  737SOL    HW2 4109   9.980  11.227   6.576
  738SOL     OW 4110  11.013   1.186   9.320
  738SOL    HW1 4111  11.080   1.154   9.379
  738SOL    HW2 4112  11.061   1.234   9.252
  739SOL     OW 4113   4.827  10.332   1.811
  739SOL    HW1 4114   4.781  10.403   1.857
  739SOL    HW2 4115   4.790  10.334   1.722
  740SOL     OW 4116   5.027  12.927  10.739
  740SOL    HW1 4117   5.112  12.950  10.775
  740SOL    HW2 4118   5.029  12.960  10.649
  741SOL     OW 4119   5.229  10.212  14.077
  741SOL    HW1 4120   5.301  10.167  14.033
  741SOL    HW2 4121   5.268  10.293  14.110
  742SOL     OW 4122   2.817   2.770  11.848
  742SOL    HW1 4123   2.851   2.806  11.930
  742SOL    HW2 4124   2.722   2.767  11.861
  743SOL     OW 4125   6.072  12.973   7.929
  743SOL    HW1 4126   6.004  12.960   7.996
  743SOL    HW2 4127   6.154  12.957   7.975
  744SOL     OW 4128  13.027  14.049   8.250
  744SOL    HW1 4129  13.003  13.993   8.324
  744SOL    HW2 4130  12.959  14.033   8.185
  745SOL     OW 4131  11.204   3.364  11.204
  745SOL    HW1 4132  11.259   3.369  11.127
  745SOL    HW2 4133  11.123   3.410  11.179
  746SOL     OW 4134  11.049   4.732   6.394
  746SOL    HW1 4135  11.017   4.775   6.473
  746SOL    HW2 4136  10.979   4.671   6.370
  747SOL     OW 4137   4.774   9.737  14.052
  747SOL    HW1 4138   4.747   9.774  14.136
  747SOL    HW2 4139   4.865   9.765  14.041
  748SOL     OW 4140  12.878   2.247   1.059
  748SOL    HW1 4141  12.826   2.317   1.019
  748SOL    HW2 4142  12.813   2.189   1.099
  749SOL     OW 4143   8.343   0.276   7.496
  749SOL    HW1 4144   8.267   0.295   7.551
  749SOL    HW2 4145   8.306   0.262   7.409
  750SOL     OW 4146   2.241   3.965  11.562
  750SOL    HW1 4147   2.212   4.044  11.515
  750SOL    HW2 4148   2.275   3.908  11.494
  751SOL     OW 4149   9.984   8.282   2.531
  751SOL    HW1 4150  10.024   8.361   2.567
  751SOL    HW2 4151  10.037   8.261   2.454
  752SOL     OW 4152  14.180   8.281   4.397
  752SOL    HW1 4153  14.131   8.350   4.353
  752SOL    HW2 4154  14.237   8.246   4.329
  753SOL     OW 4155  13.446   4.186   3.457
  753SOL    HW1 4156  13.524   4.169   3.511
  753SOL    HW2 4157  13.415   4.099   3.432
  754SOL     OW 4158  13.719  11.220   5.418
  754SOL    HW1 4159  13.716  11.254   5.507
  754SOL    HW2 4160  13.644  11.261   5.374
  755SOL     OW 4161   2.430   4.984   7.916
  755SOL    HW1 4162   2.515   4.941   7.923
  755SOL    HW2 4163   2.449   5.070   7.879
  756SOL     OW 4164  10.389   2.515   1.044
  756SOL    HW1 4165  10.442   2.495   1.121
  756SOL    HW2 4166  10.363   2.430   1.010
  757SOL     OW 4167   6.625  12.210  10.902
  757SOL    HW1 4168   6.551  12.151  10.886
  757SOL    HW2 4169   6.606  12.249  10.988
  758SOL     OW 4170   2.805   2.428   6.964
  758SOL    HW1 4171   2.717   2.441   6.999
  758SOL    HW2 4172   2.862   2.470   7.028
  759SOL     OW 4173  13.238   9.820  13.454
  759SOL    HW1 4174  13.301   9.816  13.526
  759SOL    HW2 4175  13.282   9.777  13.381
  760SOL     OW 4176  14.576  14.872  10.760
  760SOL    HW1 4177  14.481  14.860  10.762
  760SOL    HW2 4178  14.610  14.809  10.823
  761SOL     OW 4179  14.701  12.020   1.868
  761SOL    HW1 4180  14.637  11.959   1.905
  761SOL    HW2 4181  14.695  12.006   1.774
  762SOL     OW 4182   6.878   1.348   1.776
  762SOL    HW1 4183   6.906   1.258   1.762
  762SOL    HW2 4184   6.900   1.366   1.868
  763SOL     OW 4185   1.489   4.778   4.687
  763SOL    HW1 4186   1.445   4.794   4.604
  763SOL    HW2 4187   1.425   4.732   4.741
  764SOL     OW 4188  11.417   5.470   7.861
  764SOL    HW1 4189  11.422   5.538   7.928
  764SOL    HW2 4190  11.329   5.480   7.823
  765SOL     OW 4191   3.787  12.075  12.797
  765SOL    HW1 4192   3.854  12.033  12.852
  765SOL    HW2 4193   3.706  12.032  12.823
  766SOL     OW 4194  11.181   8.130   5.407
  766SOL    HW1 4195  11.221   8.177   5.333
  766SOL    HW2 4196  11.109   8.187   5.436
  767SOL     OW 4197  14.535   8.472   5.389
  767SOL    HW1 4198  14.602   8.422   5.436
  767SOL    HW2 4199  14.512   8.417   5.315
  768SOL     OW 4200   9.591   1.363   3.444
  768SOL    HW1 4201   9.506   1.368   3.400
  768SOL    HW2 4202   9.571   1.336   3.533
  769SOL     OW 4203   0.098  14.447   0.200
  769SOL    HW1 4204   0.137  14.402   0.125
  769SOL    HW2 4205   0.165  14.508   0.229
  770SOL     OW 4206   5.470   6.153   1.401
  770SOL    HW1 4207   5.548   6.165   1.347
  770SOL    HW2 4208   5.402   6.205   1.358
  771SOL     OW 4209   8.802  14.686  12.953
  771SOL    HW1 4210   8.792  14.775  12.922
  771SOL    HW2 4211   8.895  14.679  12.976
  772SOL     OW 4212   6.477  14.656   0.161
  772SOL    HW1 4213   6.392  14.683   0.128
  772SOL    HW2 4214   6.462  14.571   0.202
  773SOL     OW 4215  12.598   9.035   7.819
  773SOL    HW1 4216  12.631   9.048   7.908
  773SOL    HW2 4217  12.579   9.123   7.787
  774SOL     OW 4218   7.680   6.484   6.515
  774SOL    HW1 4219   7.679   6.554   6.450
  774SOL    HW2 4220   7.771   6.479   6.545
  775SOL     OW 4221   6.927   2.928  13.656
  775SOL    HW1 4222   6.913   2.858  13.719
  775SOL    HW2 4223   6.990   2.986  13.699
  776SOL     OW 4224   1.877  12.447   4.942
  776SOL    HW1 4225   1.939  12.390   4.987
  776SOL    HW2 4226   1.907  12.449   4.851
  777SOL     OW 4227   3.169   5.601   5.802
  777SOL    HW1 4228   3.075   5.618   5.808
  777SOL    HW2 4229   3.210   5.677   5.843
  778SOL     OW 4230   8.905  12.787  13.262
  778SOL    HW1 4231   8.957  12.785  13.342
  778SOL    HW2 4232   8.831  12.729  13.281
  779SOL     OW 4233  13.777   9.347  11.737
  779SOL    HW1 4234  13.712   9.353  11.667
  779SOL    HW2 4235  13.781   9.436  11.773
  780SOL     OW 4236   0.085   9.218  10.846
  780SOL    HW1 4237   0.096   9.155  10.774
  780SOL    HW2 4238  14.872   9.212  10.868
  781SOL     OW 4239  11.912   4.854  11.654
  781SOL    HW1 4240  11.853   4.828  11.583
  781SOL    HW2 4241  12.000   4.835  11.621
  782SOL     OW 4242   8.839  10.679  12.064
  782SOL    HW1 4243   8.897  10.736  12.013
  782SOL    HW2 4244   8.889  10.661  12.144
  783SOL     OW 4245  11.282   3.739  14.196
  783SOL    HW1 4246  11.331   3.753  14.277
  783SOL    HW2 4247  11.236   3.822  14.182
  784SOL     OW 4248   7.826  14.453   7.376
  784SOL    HW1 4249   7.777  14.388   7.427
  784SOL    HW2 4250   7.908  14.464   7.423
  785SOL     OW 4251  13.775   2.363  10.622
  785SOL    HW1 4252  13.856   2.402  10.591
  785SOL    HW2 4253  13.797   2.271  10.638
  786SOL     OW 4254   5.006   9.717   0.609
  786SOL    HW1 4255   4.982   9.633   0.647
  786SOL    HW2 4256   5.056   9.761   0.678
  787SOL     OW 4257   6.369   1.355   0.462
  787SOL    HW1 4258   6.372   1.284   0.398
  787SOL    HW2 4259   6.365   1.312   0.547
  788SOL     OW 4260  13.461   5.348  11.971
  788SOL    HW1 4261  13.488   5.440  11.962
  788SOL    HW2 4262  13.491   5.323  12.058
  789SOL     OW 4263   9.083   6.434   3.948
  789SOL    HW1 4264   9.043   6.363   3.897
  789SOL    HW2 4265   9.078   6.404   4.038
  790SOL     OW 4266   7.362   2.812  12.079
  790SOL    HW1 4267   7.378   2.819  12.173
  790SOL    HW2 4268   7.374   2.718  12.060
  791SOL     OW 4269  11.426   0.592   7.213
  791SOL    HW1 4270  11.357   0.637   7.262
  791SOL    HW2 4271  11.401   0.603   7.121
  792SOL     OW 4272   1.379   3.244  13.721
  792SOL    HW1 4273   1.343   3.332  13.709
  792SOL    HW2 4274   1.305   3.192  13.753
  793SOL     OW 4275  11.570   8.592   7.177
  793SOL    HW1 4276  11.652   8.634   7.201
  793SOL    HW2 4277  11.597   8.509   7.136
  794SOL     OW 4278  13.913   1.166   6.516
  794SOL    HW1 4279  13.852   1.094   6.502
  794SOL    HW2 4280  13.999   1.124   6.523
  795SOL     OW 4281   0.456   8.100   1.107
  795SOL    HW1 4282   0.470   8.029   1.044
  795SOL    HW2 4283   0.461   8.180   1.055
  796SOL     OW 4284   0.935  12.636   0.440
  796SOL    HW1 4285   1.022  12.611   0.469
  796SOL    HW2 4286   0.942  12.728   0.417
  797SOL     OW 4287   7.936   1.027   4.678
  797SOL    HW1 4288   7.888   0.956   4.636
  797SOL    HW2 4289   8.025   0.991   4.690
  798SOL     OW 4290   2.714   3.170   5.247
  798SOL    HW1 4291   2.681   3.257   5.225
  798SOL    HW2 4292   2.769   3.146   5.172
  799SOL     OW 4293   4.576   2.154   4.923
  799SOL    HW1 4294   4.644   2.219   4.906
  799SOL    HW2 4295   4.551   2.121   4.837
  800SOL     OW 4296   3.247  14.860  10.277
  800SOL    HW1 4297   3.252   0.072  10.303
  800SOL    HW2 4298   3.247  14.862  10.181
  801SOL     OW 4299   5.724   8.743   0.046
  801SOL    HW1 4300   5.741   8.817   0.105
  801SOL    HW2 4301   5.660   8.777  14.863
  802SOL     OW 4302   9.845  12.898   1.596
  802SOL    HW1 4303   9.863  12.965   1.662
  802SOL    HW2 4304   9.762  12.925   1.557
  803SOL     OW 4305   0.521  13.464  13.536
  803SOL    HW1 4306   0.464  13.489  13.464
  803SOL    HW2 4307   0.510  13.370  13.545
  804SOL     OW 4308   6.499   8.283   1.727
  804SOL    HW1 4309   6.520   8.196   1.694
  804SOL    HW2 4310   6.584   8.320   1.752
  805SOL     OW 4311   1.484   6.644   4.107
  805SOL    HW1 4312   1.462   6.681   4.192
  805SOL    HW2 4313   1.501   6.720   4.051
  806SOL     OW 4314   9.367  11.441  10.615
  806SOL    HW1 4315   9.360  11.362  10.669
  806SOL    HW2 4316   9.461  11.461  10.616
  807SOL     OW 4317   6.211  12.357   9.033
  807SOL    HW1 4318   6.137  12.328   8.980
  807SOL    HW2 4319   6.261  12.277   9.051
  808SOL     OW 4320  12.402   8.205   6.881
  808SOL    HW1 4321  12.325   8.179   6.830
  808SOL    HW2 4322  12.380   8.183   6.971
  809SOL     OW 4323  10.953   4.009   9.098
  809SOL    HW1 4324  10.886   3.980   9.036
  809SOL    HW2 4325  11.029   3.954   9.078
  810SOL     OW 4326   6.725  10.475   8.332
  810SOL    HW1 4327   6.647  10.489   8.386
  810SOL    HW2 4328   6.735  10.558   8.284
  811SOL     OW 4329   3.678  13.481   8.370
  811SOL    HW1 4330   3.691  13.540   8.295
  811SOL    HW2 4331   3.669  13.540   8.445
  812SOL     OW 4332   4.337  10.851  13.217
  812SOL    HW1 4333   4.373  10.907  13.286
  812SOL    HW2 4334   4.391  10.869  13.140
  813SOL     OW 4335   7.222   6.550   7.757
  813SOL    HW1 4336   7.153   6.520   7.698
  813SOL    HW2 4337   7.222   6.645   7.747
  814SOL     OW 4338   0.014   0.440   8.026
  814SOL    HW1 4339   0.005   0.504   8.096
  814SOL    HW2 4340   0.049   0.490   7.952
  815SOL     OW 4341  11.985   0.009   8.487
  815SOL    HW1 4342  11.929   0.017   8.564
  815SOL    HW2 4343  11.929   0.036   8.414
  816SOL     OW 4344  14.509   2.948  11.470
  816SOL    HW1 4345  14.478   2.863  11.439
  816SOL    HW2 4346  14.583   2.970  11.413
  817SOL     OW 4347  13.911  14.252  13.729
  817SOL    HW1 4348  13.847  14.186  13.700
  817SOL    HW2 4349  13.986  14.200  13.759
  818SOL     OW 4350   7.767   3.870   2.516
  818SOL    HW1 4351   7.748   3.963   2.509
  818SOL    HW2 4352   7.681   3.827   2.506
  819SOL     OW 4353   3.780   8.685   7.952
  819SOL    HW1 4354   3.782   8.596   7.987
  819SOL    HW2 4355   3.698   8.722   7.984
  820SOL     OW 4356  10.838  11.973   5.078
  820SOL    HW1 4357  10.834  11.885   5.114
  820SOL    HW2 4358  10.924  12.006   5.104
  821SOL     OW 4359   0.687   6.669  10.309
  821SOL    HW1 4360   0.763   6.724  10.293
  821SOL    HW2 4361   0.718   6.579  10.297
  822SOL     OW 4362   6.131   6.381  14.659
  822SOL    HW1 4363   6.044   6.345  14.671
  822SOL    HW2 4364   6.147   6.434  14.736
  823SOL     OW 4365  13.345   4.341   9.673
  823SOL    HW1 4366  13.390   4.340   9.757
  823SOL    HW2 4367  13.276   4.275   9.682
  824SOL     OW 4368   9.262   6.223  10.653
  824SOL    HW1 4369   9.267   6.234  10.558
  824SOL    HW2 4370   9.339   6.269  10.686
  825SOL     OW 4371  13.446  11.695  14.352
  825SOL    HW1 4372  13.475  11.606  14.376
  825SOL    HW2 4373  13.367  11.681  14.300
  826SOL     OW 4374   4.052   8.573   6.731
  826SOL    HW1 4375   4.114   8.600   6.799
  826SOL    HW2 4376   4.006   8.498   6.769
  827SOL     OW 4377   1.655   9.945   4.243
  827SOL    HW1 4378   1.715   9.884   4.286
  827SOL    HW2 4379   1.690   9.955   4.154
  828SOL     OW 4380   1.878   2.166   2.765
  828SOL    HW1 4381   1.825   2.087   2.753
  828SOL    HW2 4382   1.856   2.222   2.690
  829SOL     OW 4383  14.127  10.400   5.821
  829SOL    HW1 4384  14.102  10.421   5.731
  829SOL    HW2 4385  14.212  10.442   5.832
  830SOL     OW 4386   4.980   2.619   4.219
  830SOL    HW1 4387   4.895   2.575   4.230
  830SOL    HW2 4388   5.031   2.559   4.164
  831SOL     OW 4389   2.243   1.712   7.989
  831SOL    HW1 4390   2.273   1.631   8.029
  831SOL    HW2 4391   2.322   1.766   7.982
  832SOL     OW 4392   5.965   2.110  10.946
  832SOL    HW1 4393   5.877   2.099  10.982
  832SOL    HW2 4394   5.968   2.201  10.918
  833SOL     OW 4395  10.406  13.043  11.767
  833SOL    HW1 4396  10.457  13.122  11.749
  833SOL    HW2 4397  10.434  13.016  11.854
  834SOL     OW 4398   0.491   6.060  10.000
  834SOL    HW1 4399   0.474   5.977  10.044
  834SOL    HW2 4400   0.443   6.125  10.051
  835SOL     OW 4401  11.395   2.209   1.613
  835SOL    HW1 4402  11.351   2.188   1.695
  835SOL    HW2 4403  11.488   2.193   1.631
  836SOL     OW 4404   3.528   5.607   1.469
  836SOL    HW1 4405   3.508   5.526   1.516
  836SOL    HW2 4406   3.623   5.615   1.472
  837SOL     OW 4407   0.476   8.000   6.343
  837SOL    HW1 4408   0.494   7.906   6.339
  837SOL    HW2 4409   0.455   8.018   6.434
  838SOL     OW 4410   0.592  14.235   9.516
  838SOL    HW1 4411   0.654  14.282   9.571
  838SOL    HW2 4412   0.506  14.269   9.541
  839SOL     OW 4413   6.516   5.324   4.335
  839SOL    HW1 4414   6.513   5.351   4.426
  839SOL    HW2 4415   6.442   5.370   4.294
  840SOL     OW 4416   8.016   7.597   7.259
  840SOL    HW1 4417   7.986   7.516   7.299
  840SOL    HW2 4418   7.965   7.605   7.178
  841SOL     OW 4419  13.073   7.016  10.327
  841SOL    HW1 4420  13.112   7.052  10.407
  841SOL    HW2 4421  12.979   7.032  10.336
  842SOL     OW 4422   1.616   9.405   3.694
  842SOL    HW1 4423   1.652   9.438   3.776
  842SOL    HW2 4424   1.651   9.464   3.627
  843SOL     OW 4425   0.844   1.359   7.602
  843SOL    HW1 4426   0.909   1.300   7.641
  843SOL    HW2 4427   0.885   1.389   7.521
  844SOL     OW 4428   3.615  14.275  10.817
  844SOL    HW1 4429   3.578  14.354  10.778
  844SOL    HW2 4430   3.551  14.248  10.883
  845SOL     OW 4431   9.540  10.419   1.956
  845SOL    HW1 4432   9.477  10.417   2.028
  845SOL    HW2 4433   9.511  10.492   1.901
  846SOL     OW 4434   6.503   1.633  11.610
  846SOL    HW1 4435   6.543   1.674  11.533
  846SOL    HW2 4436   6.424   1.592  11.576
  847SOL     OW 4437   3.600  11.251   6.477
  847SOL    HW1 4438   3.602  11.325   6.538
  847SOL    HW2 4439   3.648  11.182   6.521
  848SOL     OW 4440  12.341  10.030   0.050
  848SOL    HW1 4441  12.320   9.941   0.080
  848SOL    HW2 4442  12.278  10.085   0.096
  849SOL     OW 4443   1.650  13.563   7.922
  849SOL    HW1 4444   1.738  13.598   7.906
  849SOL    HW2 4445   1.593  13.639   7.920
  850SOL     OW 4446   2.713  14.771   6.508
  850SOL    HW1 4447   2.632  14.721   6.500
  850SOL    HW2 4448   2.721  14.817   6.424
  851SOL     OW 4449   6.499  11.657   5.400
  851SOL    HW1 4450   6.442  11.587   5.430
  851SOL    HW2 4451   6.568  11.662   5.466
  852SOL     OW 4452  10.045  10.154   3.874
  852SOL    HW1 4453  10.114  10.216   3.900
  852SOL    HW2 4454   9.996  10.200   3.806
  853SOL     OW 4455   3.192   0.007   7.954
  853SOL    HW1 4456   3.161   0.068   8.021
  853SOL    HW2 4457   3.116  14.874   7.897
  854SOL     OW 4458   9.535   8.191   3.573
  854SOL    HW1 4459   9.493   8.209   3.657
  854SOL    HW2 4460   9.471   8.137   3.525
  855SOL     OW 4461   5.810   1.748  12.981
  855SOL    HW1 4462   5.724   1.749  13.022
  855SOL    HW2 4463   5.871   1.763  13.053
  856SOL     OW 4464  10.378  10.438  13.250
  856SOL    HW1 4465  10.309  10.504  13.256
  856SOL    HW2 4466  10.359  10.390  13.170
  857SOL     OW 4467   0.780   7.220   0.323
  857SOL    HW1 4468   0.758   7.231   0.230
  857SOL    HW2 4469   0.835   7.141   0.325
  858SOL     OW 4470   5.768   6.968  10.889
  858SOL    HW1 4471   5.805   6.880  10.879
  858SOL    HW2 4472   5.728   6.968  10.976
  859SOL     OW 4473   2.635   6.444  13.239
  859SOL    HW1 4474   2.689   6.406  13.309
  859SOL    HW2 4475   2.638   6.379  13.169
  860SOL     OW 4476   3.953  10.123   3.458
  860SOL    HW1 4477   3.876  10.068   3.444
  860SOL    HW2 4478   3.921  10.213   3.444
  861SOL     OW 4479  14.848   4.102   7.208
  861SOL    HW1 4480   0.051   4.150   7.213
  861SOL    HW2 4481  14.810   4.127   7.124
  862SOL     OW 4482   9.480   3.420   2.337
  862SOL    HW1 4483   9.570   3.429   2.369
  862SOL    HW2 4484   9.438   3.360   2.397
  863SOL     OW 4485  12.870   0.615   4.819
  863SOL    HW1 4486  12.913   0.649   4.897
  863SOL    HW2 4487  12.825   0.535   4.848
  864SOL     OW 4488   3.986   4.261   6.845
  864SOL    HW1 4489   4.018   4.322   6.778
  864SOL    HW2 4490   4.015   4.299   6.928
  865SOL     OW 4491   2.108   6.149  13.322
  865SOL    HW1 4492   2.124   6.055  13.312
  865SOL    HW2 4493   2.189   6.190  13.292
  866SOL     OW 4494   2.441   8.091   2.674
  866SOL    HW1 4495   2.426   8.046   2.591
  866SOL    HW2 4496   2.517   8.047   2.712
  867SOL     OW 4497  14.846   6.156  12.242
  867SOL    HW1 4498  14.841   6.211  12.320
  867SOL    HW2 4499  14.756   6.129  12.226
  868SOL     OW 4500   7.998  12.825   4.424
  868SOL    HW1 4501   7.963  12.736   4.428
  868SOL    HW2 4502   8.093  12.814   4.422
  869SOL     OW 4503  14.389  12.392   5.615
  869SOL    HW1 4504  14.331  12.379   5.540
  869SOL    HW2 4505  14.353  12.468   5.660
  870SOL     OW 4506   3.991   1.463   0.638
  870SOL    HW1 4507   3.949   1.542   0.671
  870SOL    HW2 4508   4.079   1.491   0.613
  871SOL     OW 4509  13.856   2.343   9.389
  871SOL    HW1 4510  13.917   2.293   9.444
  871SOL    HW2 4511  13.773   2.339   9.436
  872SOL     OW 4512  14.846   5.228   1.835
  872SOL    HW1 4513  14.787   5.202   1.905
  872SOL    HW2 4514   0.053   5.208   1.869
  873SOL     OW 4515   3.520  14.159  14.592
  873SOL    HW1 4516   3.610  14.138  14.616
  873SOL    HW2 4517   3.517  14.145  14.498
  874SOL     OW 4518   4.255   6.357   2.360
  874SOL    HW1 4519   4.335   6.332   2.314
  874SOL    HW2 4520   4.285   6.406   2.437
  875SOL     OW 4521  13.166   3.311   4.181
  875SOL    HW1 4522  13.226   3.262   4.125
  875SOL    HW2 4523  13.177   3.271   4.267
  876SOL     OW 4524  13.401  11.041   7.687
  876SOL    HW1 4525  13.446  11.072   7.766
  876SOL    HW2 4526  13.471  11.009   7.630
  877SOL     OW 4527   6.921   6.316  13.782
  877SOL    HW1 4528   6.912   6.265  13.701
  877SOL    HW2 4529   6.946   6.251  13.848
  878SOL     OW 4530   0.467  10.540   4.778
  878SOL    HW1 4531   0.454  10.634   4.789
  878SOL    HW2 4532   0.395  10.513   4.721
  879SOL     OW 4533   6.433   6.535   2.937
  879SOL    HW1 4534   6.525   6.554   2.957
  879SOL    HW2 4535   6.437   6.477   2.861
  880SOL     OW 4536  14.077  12.790  12.921
  880SOL    HW1 4537  14.056  12.878  12.953
  880SOL    HW2 4538  14.000  12.737  12.942
  881SOL     OW 4539   1.643  13.063   5.193
  881SOL    HW1 4540   1.711  13.013   5.148
  881SOL    HW2 4541   1.575  13.076   5.127
  882SOL     OW 4542   8.810   2.198  14.774
  882SOL    HW1 4543   8.846   2.286  14.755
  882SOL    HW2 4544   8.807   2.193  14.869
  883SOL     OW 4545  12.690   5.791   0.940
  883SOL    HW1 4546  12.635   5.735   0.885
  883SOL    HW2 4547  12.776   5.750   0.938
  884SOL     OW 4548   1.681   6.377  12.425
  884SOL    HW1 4549   1.597   6.331  12.420
  884SOL    HW2 4550   1.683   6.433  12.348
  885SOL     OW 4551   2.433  13.230  13.890
  885SOL    HW1 4552   2.519  13.270  13.902
  885SOL    HW2 4553   2.446  13.138  13.912
  886SOL     OW 4554   2.122   8.180   2.489
  886SOL    HW1 4555   2.202   8.129   2.498
  886SOL    HW2 4556   2.051   8.117   2.502
  887SOL     OW 4557  14.167   1.713   5.045
  887SOL    HW1 4558  14.206   1.703   4.959
  887SOL    HW2 4559  14.177   1.806   5.066
  888SOL     OW 4560  12.757  14.250   7.435
  888SOL    HW1 4561  12.723  14.339   7.440
  888SOL    HW2 4562  12.718  14.214   7.355
  889SOL     OW 4563  11.202  11.514   0.896
  889SOL    HW1 4564  11.275  11.512   0.834
  889SOL    HW2 4565  11.155  11.594   0.875
  890SOL     OW 4566   1.317  11.993   7.718
  890SOL    HW1 4567   1.326  11.943   7.799
  890SOL    HW2 4568   1.233  11.965   7.682
  891SOL     OW 4569   5.787   0.804   5.531
  891SOL    HW1 4570   5.796   0.769   5.620
  891SOL    HW2 4571   5.770   0.727   5.477
  892SOL     OW 4572   6.184  10.571  14.627
  892SOL    HW1 4573   6.166  10.660  14.599
  892SOL    HW2 4574   6.100  10.538  14.659
  893SOL     OW 4575   5.824   3.951   2.762
  893SOL    HW1 4576   5.761   3.943   2.691
  893SOL    HW2 4577   5.884   3.877   2.749
  894SOL     OW 4578   0.588  10.636  14.443
  894SOL    HW1 4579   0.657  10.572  14.429
  894SOL    HW2 4580   0.550  10.613  14.528
  895SOL     OW 4581  14.374   8.628   2.856
  895SOL    HW1 4582  14.340   8.621   2.945
  895SOL    HW2 4583  14.469   8.617   2.866
  896SOL     OW 4584  12.028   1.144   1.526
  896SOL    HW1 4585  11.957   1.095   1.569
  896SOL    HW2 4586  12.043   1.219   1.583
  897SOL     OW 4587   4.002  10.817  12.206
  897SOL    HW1 4588   4.007  10.730  12.245
  897SOL    HW2 4589   3.953  10.804  12.125
  898SOL     OW 4590  12.581   8.585   2.370
  898SOL    HW1 4591  12.562   8.543   2.453
  898SOL    HW2 4592  12.495   8.608   2.334
  899SOL     OW 4593   2.809   4.315  13.515
  899SOL    HW1 4594   2.858   4.382  13.563
  899SOL    HW2 4595   2.802   4.242  13.577
  900SOL     OW 4596   4.309   1.276   0.516
  900SOL    HW1 4597   4.396   1.280   0.477
  900SOL    HW2 4598   4.258   1.224   0.454
  901SOL     OW 4599   4.068   8.002  13.930
  901SOL    HW1 4600   4.123   8.026  14.005
  901SOL    HW2 4601   4.128   8.004  13.855
  902SOL     OW 4602   7.553  11.685   1.609
  902SOL    HW1 4603   7.514  11.614   1.557
  902SOL    HW2 4604   7.620  11.722   1.553
  903SOL     OW 4605   2.253   2.133  14.849
  903SOL    HW1 4606   2.274   2.226  14.839
  903SOL    HW2 4607   2.326   2.097   0.019
  904SOL     OW 4608   4.974   8.112  11.437
  904SOL    HW1 4609   4.890   8.071  11.457
  904SOL    HW2 4610   5.015   8.125  11.523
  905SOL     OW 4611   2.142   4.394   5.133
  905SOL    HW1 4612   2.145   4.453   5.208
  905SOL    HW2 4613   2.171   4.447   5.059
  906SOL     OW 4614   6.023   4.590   2.565
  906SOL    HW1 4615   6.066   4.560   2.486
  906SOL    HW2 4616   6.016   4.511   2.620
  907SOL     OW 4617   1.567  14.875  10.225
  907SOL    HW1 4618   1.575  14.846  10.316
  907SOL    HW2 4619   1.493   0.055  10.225
  908SOL     OW 4620   0.560  13.813  14.260
  908SOL    HW1 4621   0.568  13.886  14.197
  908SOL    HW2 4622   0.490  13.759  14.224
  909SOL     OW 4623  10.386   3.093   1.852
  909SOL    HW1 4624  10.454   3.057   1.909
  909SOL    HW2 4625  10.389   3.037   1.774
  910SOL     OW 4626   5.599  10.033   1.573
  910SOL    HW1 4627   5.507  10.056   1.557
  910SOL    HW2 4628   5.617   9.963   1.511
  911SOL     OW 4629   0.101   1.381   5.818
  911SOL    HW1 4630   0.141   1.299   5.848
  911SOL    HW2 4631   0.009   1.374   5.844
  912SOL     OW 4632   4.010  10.793   5.378
  912SOL    HW1 4633   3.965  10.801   5.294
  912SOL    HW2 4634   4.046  10.880   5.394
  913SOL     OW 4635  11.958   2.582   3.469
  913SOL    HW1 4636  11.889   2.586   3.535
  913SOL    HW2 4637  11.945   2.497   3.426
  914SOL     OW 4638   5.811   0.070  10.546
  914SOL    HW1 4639   5.888   0.123  10.525
  914SOL    HW2 4640   5.788   0.096  10.636
  915SOL     OW 4641   0.770   7.703  13.669
  915SOL    HW1 4642   0.822   7.690  13.749
  915SOL    HW2 4643   0.832   7.686  13.598
  916SOL     OW 4644   0.693   7.518   1.839
  916SOL    HW1 4645   0.756   7.566   1.892
  916SOL    HW2 4646   0.670   7.578   1.768
  917SOL     OW 4647  13.271   8.504  12.110
  917SOL    HW1 4648  13.316   8.589  12.104
  917SOL    HW2 4649  13.178   8.527  12.109
  918SOL     OW 4650   2.928   8.034   9.959
  918SOL    HW1 4651   3.004   8.063  10.010
  918SOL    HW2 4652   2.865   8.006  10.024
  919SOL     OW 4653   1.392   1.910   9.833
  919SOL    HW1 4654   1.344   1.977   9.785
  919SOL    HW2 4655   1.471   1.895   9.780
  920SOL     OW 4656  13.849   1.678   8.717
  920SOL    HW1 4657  13.825   1.643   8.802
  920SOL    HW2 4658  13.823   1.770   8.721
  921SOL     OW 4659  14.694  10.814  13.638
  921SOL    HW1 4660  14.704  10.832  13.545
  921SOL    HW2 4661  14.599  10.812  13.652
  922SOL     OW 4662   0.681   2.342   9.316
  922SOL    HW1 4663   0.703   2.260   9.360
  922SOL    HW2 4664   0.679   2.319   9.223
  923SOL     OW 4665   0.451   6.072  12.146
  923SOL    HW1 4666   0.366   6.033  12.164
  923SOL    HW2 4667   0.431   6.152  12.097
  924SOL     OW 4668   5.236   9.067   5.422
  924SOL    HW1 4669   5.152   9.078   5.378
  924SOL    HW2 4670   5.232   9.127   5.497
  925SOL     OW 4671  11.723   8.401  11.108
  925SOL    HW1 4672  11.762   8.431  11.026
  925SOL    HW2 4673  11.798   8.374  11.161
  926SOL     OW 4674   9.136   7.300  11.683
  926SOL    HW1 4675   9.122   7.295  11.777
  926SOL    HW2 4676   9.055   7.266  11.644
  927SOL     OW 4677  13.738   7.615   8.610
  927SOL    HW1 4678  13.676   7.546   8.591
  927SOL    HW2 4679  13.824   7.574   8.600
  928SOL     OW 4680   1.505   6.277   3.709
  928SOL    HW1 4681   1.485   6.338   3.781
  928SOL    HW2 4682   1.425   6.275   3.657
  929SOL     OW 4683   0.824   0.816   3.984
  929SOL    HW1 4684   0.751   0.754   3.978
  929SOL    HW2 4685   0.881   0.780   4.052
  930SOL     OW 4686   8.613  12.085  12.922
  930SOL    HW1 4687   8.677  12.098  12.992
  930SOL    HW2 4688   8.621  11.992  12.900
  931SOL     OW 4689   5.374   2.420  14.321
  931SOL    HW1 4690   5.456   2.469  14.326
  931SOL    HW2 4691   5.307   2.486  14.301
  932SOL     OW 4692   5.509   1.831   9.979
  932SOL    HW1 4693   5.514   1.738  10.003
  932SOL    HW2 4694   5.597   1.864   9.995
  933SOL     OW 4695   8.461  13.433   7.452
  933SOL    HW1 4696   8.370  13.432   7.480
  933SOL    HW2 4697   8.506  13.487   7.518
  934SOL     OW 4698   8.210  10.116   6.639
  934SOL    HW1 4699   8.131  10.068   6.661
  934SOL    HW2 4700   8.232  10.165   6.718
  935SOL     OW 4701   2.235   5.023   8.597
  935SOL    HW1 4702   2.144   5.048   8.612
  935SOL    HW2 4703   2.277   5.032   8.682
  936SOL     OW 4704  10.048   7.736   6.878
  936SOL    HW1 4705  10.001   7.809   6.919
  936SOL    HW2 4706  10.115   7.712   6.942
  937SOL     OW 4707  11.130  13.612  11.459
  937SOL    HW1 4708  11.185  13.681  11.423
  937SOL    HW2 4709  11.189  13.538  11.471
  938SOL     OW 4710  14.057  12.544   5.309
  938SOL    HW1 4711  14.136  12.490   5.316
  938SOL    HW2 4712  14.085  12.623   5.263
  939SOL     OW 4713  11.218  14.359   3.885
  939SOL    HW1 4714  11.198  14.409   3.965
  939SOL    HW2 4715  11.265  14.282   3.916
  940SOL     OW 4716   2.670   5.617  13.475
  940SOL    HW1 4717   2.687   5.705  13.508
  940SOL    HW2 4718   2.642   5.568  13.552
  941SOL     OW 4719   9.162   9.296   5.392
  941SOL    HW1 4720   9.167   9.379   5.344
  941SOL    HW2 4721   9.109   9.315   5.469
  942SOL     OW 4722  12.571   6.816   7.301
  942SOL    HW1 4723  12.584   6.782   7.389
  942SOL    HW2 4724  12.511   6.890   7.312
  943SOL     OW 4725   0.557   8.926   3.394
  943SOL    HW1 4726   0.629   8.984   3.373
  943SOL    HW2 4727   0.485   8.957   3.339
  944SOL     OW 4728   2.035   4.101  13.811
  944SOL    HW1 4729   1.990   4.180  13.841
  944SOL    HW2 4730   2.121   4.106  13.851
  945SOL     OW 4731   8.793   6.947   7.204
  945SOL    HW1 4732   8.787   6.867   7.151
  945SOL    HW2 4733   8.767   6.920   7.292
  946SOL     OW 4734   2.855   0.805   8.625
  946SOL    HW1 4735   2.817   0.823   8.539
  946SOL    HW2 4736   2.869   0.710   8.626
  947SOL     OW 4737   6.999   0.540   1.419
  947SOL    HW1 4738   6.981   0.564   1.328
  947SOL    HW2 4739   7.075   0.593   1.442
  948SOL     OW 4740   6.376  11.587   9.929
  948SOL    HW1 4741   6.452  11.554   9.882
  948SOL    HW2 4742   6.301  11.564   9.873
  949SOL     OW 4743   1.949   6.130   4.878
  949SOL    HW1 4744   1.885   6.197   4.856
  949SOL    HW2 4745   1.985   6.158   4.963
  950SOL     OW 4746   1.734   9.534  11.797
  950SOL    HW1 4747   1.794   9.548  11.870
  950SOL    HW2 4748   1.677   9.463  11.826
  951SOL     OW 4749  11.657  14.503   0.305
  951SOL    HW1 4750  11.700  14.529   0.387
  951SOL    HW2 4751  11.677  14.573   0.244
  952SOL     OW 4752   3.979  11.838  12.859
  952SOL    HW1 4753   3.975  11.742  12.857
  952SOL    HW2 4754   4.055  11.860  12.805
  953SOL     OW 4755  10.816   4.433   9.260
  953SOL    HW1 4756  10.725   4.464   9.251
  953SOL    HW2 4757  10.835   4.443   9.353
  954SOL     OW 4758   0.119   5.156   3.225
  954SOL    HW1 4759   0.147   5.230   3.170
  954SOL    HW2 4760   0.064   5.197   3.292
  955SOL     OW 4761   2.632   4.055  12.010
  955SOL    HW1 4762   2.699   4.074  12.076
  955SOL    HW2 4763   2.609   4.141  11.974
  956SOL     OW 4764   8.632  10.635   5.087
  956SOL    HW1 4765   8.633  10.609   4.994
  956SOL    HW2 4766   8.631  10.553   5.135
  957SOL     OW 4767   4.323   7.607   6.135
  957SOL    HW1 4768   4.236   7.642   6.113
  957SOL    HW2 4769   4.305   7.528   6.186
  958SOL     OW 4770   5.910   4.407   7.728
  958SOL    HW1 4771   5.972   4.409   7.656
  958SOL    HW2 4772   5.942   4.472   7.790
  959SOL     OW 4773  10.136  10.605  12.375
  959SOL    HW1 4774  10.197  10.669  12.412
  959SOL    HW2 4775  10.141  10.530  12.436
  960SOL     OW 4776   5.077   1.418  10.747
  960SOL    HW1 4777   4.984   1.402  10.760
  960SOL    HW2 4778   5.093   1.502  10.788
  961SOL     OW 4779  10.490   9.031   3.156
  961SOL    HW1 4780  10.407   8.995   3.185
  961SOL    HW2 4781  10.536   9.053   3.237
  962SOL     OW 4782   2.883   3.632   5.841
  962SOL    HW1 4783   2.867   3.567   5.772
  962SOL    HW2 4784   2.978   3.643   5.842
  963SOL     OW 4785   3.972  12.195  13.618
  963SOL    HW1 4786   4.062  12.195  13.650
  963SOL    HW2 4787   3.962  12.280  13.574
  964SOL     OW 4788  12.162   9.352   8.335
  964SOL    HW1 4789  12.254   9.367   8.356
  964SOL    HW2 4790  12.164   9.305   8.251
  965SOL     OW 4791   8.480   2.778   0.740
  965SOL    HW1 4792   8.467   2.712   0.808
  965SOL    HW2 4793   8.470   2.729   0.658
  966SOL     OW 4794   5.555  12.752   5.499
  966SOL    HW1 4795   5.497  12.691   5.545
  966SOL    HW2 4796   5.638  12.704   5.490
  967SOL     OW 4797   0.306   0.947   8.257
  967SOL    HW1 4798   0.273   0.869   8.212
  967SOL    HW2 4799   0.389   0.965   8.213
  968SOL     OW 4800   6.385   1.473  10.977
  968SOL    HW1 4801   6.378   1.422  10.897
  968SOL    HW2 4802   6.298   1.468  11.017
  969SOL     OW 4803   1.471   0.789   5.655
  969SOL    HW1 4804   1.493   0.810   5.745
  969SOL    HW2 4805   1.381   0.821   5.644
  970SOL     OW 4806   7.351   5.059   3.006
  970SOL    HW1 4807   7.328   5.115   3.080
  970SOL    HW2 4808   7.318   4.973   3.030
  971SOL     OW 4809   3.163   4.890  12.408
  971SOL    HW1 4810   3.069   4.895  12.426
  971SOL    HW2 4811   3.179   4.798  12.388
  972SOL     OW 4812   1.240   8.372   1.098
  972SOL    HW1 4813   1.299   8.302   1.069
  972SOL    HW2 4814   1.172   8.375   1.031
  973SOL     OW 4815  14.636   5.676   3.202
  973SOL    HW1 4816  14.636   5.708   3.112
  973SOL    HW2 4817  14.551   5.701   3.237
  974SOL     OW 4818   7.973  11.175   1.445
  974SOL    HW1 4819   7.897  11.121   1.428
  974SOL    HW2 4820   7.996  11.156   1.536
  975SOL     OW 4821  10.700   7.536   8.479
  975SOL    HW1 4822  10.607   7.529   8.459
  975SOL    HW2 4823  10.735   7.449   8.462
  976SOL     OW 4824  14.413   1.375   9.522
  976SOL    HW1 4825  14.418   1.326   9.604
  976SOL    HW2 4826  14.503   1.374   9.488
  977SOL     OW 4827  12.365   0.077   9.493
  977SOL    HW1 4828  12.298   0.008   9.494
  977SOL    HW2 4829  12.393   0.084   9.584
  978SOL     OW 4830  14.425   3.491  10.203
  978SOL    HW1 4831  14.495   3.439  10.164
  978SOL    HW2 4832  14.393   3.545  10.131
  979SOL     OW 4833   2.073   8.346   7.641
  979SOL    HW1 4834   2.052   8.273   7.699
  979SOL    HW2 4835   2.031   8.422   7.682
  980SOL     OW 4836  11.411   7.261  11.590
  980SOL    HW1 4837  11.424   7.177  11.545
  980SOL    HW2 4838  11.442   7.327  11.527
  981SOL     OW 4839   6.224   5.368   2.325
  981SOL    HW1 4840   6.270   5.329   2.400
  981SOL    HW2 4841   6.282   5.352   2.251
  982SOL     OW 4842   8.480   2.921   9.897
  982SOL    HW1 4843   8.575   2.909   9.908
  982SOL    HW2 4844   8.446   2.831   9.891
  983SOL     OW 4845   3.566  11.238   4.669
  983SOL    HW1 4846   3.636  11.175   4.650
  983SOL    HW2 4847   3.525  11.256   4.585
  984SOL     OW 4848  13.489   2.422  11.518
  984SOL    HW1 4849  13.433   2.350  11.489
  984SOL    HW2 4850  13.559   2.426  11.453
  985SOL     OW 4851  10.459   1.024  13.186
  985SOL    HW1 4852  10.554   1.026  13.178
  985SOL    HW2 4853  10.441   1.055  13.275
  986SOL     OW 4854   8.456   0.477   8.446
  986SOL    HW1 4855   8.430   0.438   8.529
  986SOL    HW2 4856   8.395   0.440   8.382
  987SOL     OW 4857  12.445   6.109   7.911
  987SOL    HW1 4858  12.511   6.054   7.868
  987SOL    HW2 4859  12.381   6.047   7.944
  988SOL     OW 4860   2.651  12.466   1.065
  988SOL    HW1 4861   2.611  12.419   1.139
  988SOL    HW2 4862   2.705  12.533   1.107
  989SOL     OW 4863   3.557   3.410   5.932
  989SOL    HW1 4864   3.571   3.368   5.847
  989SOL    HW2 4865   3.567   3.340   5.996
  990SOL     OW 4866   6.238   9.726   3.715
  990SOL    HW1 4867   6.234   9.775   3.798
  990SOL    HW2 4868   6.307   9.661   3.729
  991SOL     OW 4869   7.524  13.807   3.492
  991SOL    HW1 4870   7.446  13.861   3.493
  991SOL    HW2 4871   7.548  13.801   3.399
  992SOL     OW 4872   8.646  11.499  12.747
  992SOL    HW1 4873   8.585  11.573  12.755
  992SOL    HW2 4874   8.649  11.461  12.835
  993SOL     OW 4875   6.863   6.404   3.229
  993SOL    HW1 4876   6.839   6.363   3.312
  993SOL    HW2 4877   6.941   6.456   3.249
  994SOL     OW 4878   1.196   7.797   2.258
  994SOL    HW1 4879   1.121   7.794   2.318
  994SOL    HW2 4880   1.267   7.833   2.311
  995SOL     OW 4881  14.497  11.641   0.424
  995SOL    HW1 4882  14.538  11.573   0.371
  995SOL    HW2 4883  14.460  11.595   0.499
  996SOL     OW 4884   8.192  13.532   4.791
  996SOL    HW1 4885   8.260  13.579   4.840
  996SOL    HW2 4886   8.136  13.493   4.858
  997SOL     OW 4887   6.058   6.144  13.941
  997SOL    HW1 4888   6.097   6.133  14.028
  997SOL    HW2 4889   5.980   6.199  13.957
  998SOL     OW 4890   2.229   4.800  14.105
  998SOL    HW1 4891   2.141   4.797  14.068
  998SOL    HW2 4892   2.283   4.838  14.035
  999SOL     OW 4893  14.299   8.977  12.843
  999SOL    HW1 4894  14.294   8.896  12.894
  999SOL    HW2 4895  14.330   8.950  12.757
 1000SOL     OW 4896   2.048   4.161   5.267
 1000SOL    HW1 4897   2.090   4.215   5.200
 1000SOL    HW2 4898   2.052   4.073   5.232
 1001SOL     OW 4899   4.744   5.627   0.077
 1001SOL    HW1 4900   4.659   5.600   0.043
 1001SOL    HW2 4901   4.753   5.718   0.049
 1002SOL     OW 4902   5.494   6.917   4.207
 1002SOL    HW1 4903   5.511   6.893   4.116
 1002SOL    HW2 4904   5.552   6.991   4.224
 1003SOL     OW 4905  12.879   4.274  11.394
 1003SOL    HW1 4906  12.881   4.218  11.472
 1003SOL    HW2 4907  12.871   4.363  11.430
 1004SOL     OW 4908  13.314   7.566  12.111
 1004SOL    HW1 4909  13.357   7.509  12.047
 1004SOL    HW2 4910  13.228   7.584  12.072
 1005SOL     OW 4911   9.882   0.138   3.746
 1005SOL    HW1 4912   9.856   0.228   3.761
 1005SOL    HW2 4913   9.817   0.104   3.685
 1006SOL     OW 4914   0.851   8.678  14.469
 1006SOL    HW1 4915   0.934   8.703  14.429
 1006SOL    HW2 4916   0.817   8.608  14.413
 1007SOL     OW 4917   4.797   1.740  11.459
 1007SOL    HW1 4918   4.744   1.779  11.528
 1007SOL    HW2 4919   4.887   1.764  11.481
 1008SOL     OW 4920   9.971  10.076   9.533
 1008SOL    HW1 4921   9.976  10.000   9.475
 1008SOL    HW2 4922   9.943  10.148   9.477
 1009SOL     OW 4923   6.647  10.000   4.529
 1009SOL    HW1 4924   6.654   9.952   4.447
 1009SOL    HW2 4925   6.728   9.980   4.576
 1010SOL     OW 4926   6.230   3.917   7.310
 1010SOL    HW1 4927   6.164   3.884   7.371
 1010SOL    HW2 4928   6.217   4.011   7.308
 1011SOL     OW 4929   1.470   0.924   0.037
 1011SOL    HW1 4930   1.526   0.859   0.078
 1011SOL    HW2 4931   1.391   0.927   0.091
 1012SOL     OW 4932  14.348   2.063   6.533
 1012SOL    HW1 4933  14.386   2.049   6.620
 1012SOL    HW2 4934  14.335   2.157   6.527
 1013SOL     OW 4935   9.263  14.398  13.799
 1013SOL    HW1 4936   9.218  14.425  13.879
 1013SOL    HW2 4937   9.273  14.303  13.808
 1014SOL     OW 4938   0.672  11.794  14.717
 1014SOL    HW1 4939   0.639  11.835  14.797
 1014SOL    HW2 4940   0.761  11.827  14.708
 1015SOL     OW 4941  12.749   7.479   3.306
 1015SOL    HW1 4942  12.731   7.435   3.389
 1015SOL    HW2 4943  12.706   7.564   3.314
 1016SOL     OW 4944   1.848  14.516   0.374
 1016SOL    HW1 4945   1.886  14.578   0.312
 1016SOL    HW2 4946   1.809  14.448   0.319
 1017SOL     OW 4947  11.886   5.810  13.289
 1017SOL    HW1 4948  11.808   5.799  13.235
 1017SOL    HW2 4949  11.860   5.874  13.356
 1018SOL     OW 4950  13.966   1.197   8.153
 1018SOL    HW1 4951  14.022   1.125   8.124
 1018SOL    HW2 4952  13.926   1.230   8.072
 1019SOL     OW 4953   0.477   5.533  10.596
 1019SOL    HW1 4954   0.390   5.506  10.627
 1019SOL    HW2 4955   0.508   5.594  10.664
 1020SOL     OW 4956   8.486  14.748   8.582
 1020SOL    HW1 4957   8.539  14.819   8.621
 1020SOL    HW2 4958   8.475  14.685   8.654
 1021SOL     OW 4959   6.861   3.916  11.834
 1021SOL    HW1 4960   6.862   4.011  11.840
 1021SOL    HW2 4961   6.908   3.886  11.912
 1022SOL     OW 4962  11.515   6.250   6.128
 1022SOL    HW1 4963  11.545   6.168   6.090
 1022SOL    HW2 4964  11.558   6.318   6.076
 1023SOL     OW 4965   3.365  11.422  10.300
 1023SOL    HW1 4966   3.422  11.474  10.243
 1023SOL    HW2 4967   3.313  11.488  10.347
 1024SOL     OW 4968  14.391  13.678   3.878
 1024SOL    HW1 4969  14.362  13.736   3.807
 1024SOL    HW2 4970  14.486  13.673   3.866
 1025SOL     OW 4971   2.619  12.437   8.165
 1025SOL    HW1 4972   2.636  12.358   8.217
 1025SOL    HW2 4973   2.702  12.453   8.119
 1026SOL     OW 4974  14.003  11.113  10.413
 1026SOL    HW1 4975  14.047  11.179  10.359
 1026SOL    HW2 4976  13.941  11.071  10.353
 1027SOL     OW 4977  10.893  14.025   6.436
 1027SOL    HW1 4978  10.976  14.020   6.484
 1027SOL    HW2 4979  10.826  14.007   6.501
 1028SOL     OW 4980   2.363   4.043  10.470
 1028SOL    HW1 4981   2.354   4.115  10.533
 1028SOL    HW2 4982   2.457   4.042  10.449
 1029SOL     OW 4983   6.570   1.002  10.419
 1029SOL    HW1 4984   6.530   0.982  10.334
 1029SOL    HW2 4985   6.626   0.927  10.438
 1030SOL     OW 4986   9.700  12.205  13.283
 1030SOL    HW1 4987   9.657  12.231  13.365
 1030SOL    HW2 4988   9.768  12.271  13.271
 1031SOL     OW 4989   5.879  13.872   3.105
 1031SOL    HW1 4990   5.912  13.931   3.173
 1031SOL    HW2 4991   5.784  13.885   3.105
 1032SOL     OW 4992   0.147   9.956   1.585
 1032SOL    HW1 4993   0.070   9.913   1.622
 1032SOL    HW2 4994   0.175   9.899   1.514
 1033SOL     OW 4995   2.433  10.630   6.082
 1033SOL    HW1 4996   2.516  10.672   6.058
 1033SOL    HW2 4997   2.383  10.699   6.124
 1034SOL     OW 4998  13.310  11.887  12.802
 1034SOL    HW1 4999  13.329  11.953  12.735
 1034SOL    HW2 5000  13.236  11.923  12.852
 1035SOL     OW 5001   7.943  12.869  14.003
 1035SOL    HW1 5002   7.866  12.877  13.947
 1035SOL    HW2 5003   7.911  12.883  14.092
 1036SOL     OW 5004   5.795  13.645   8.912
 1036SOL    HW1 5005   5.767  13.685   8.829
 1036SOL    HW2 5006   5.777  13.712   8.978
 1037SOL     OW 5007   3.580  11.171  11.492
 1037SOL    HW1 5008   3.579  11.202  11.401
 1037SOL    HW2 5009   3.609  11.080  11.487
 1038SOL     OW 5010  10.758   1.238   5.154
 1038SOL    HW1 5011  10.784   1.292   5.229
 1038SOL    HW2 5012  10.769   1.295   5.078
 1039SOL     OW 5013   6.020  10.150   5.418
 1039SOL    HW1 5014   5.960  10.135   5.345
 1039SOL    HW2 5015   5.974  10.210   5.477
 1040SOL     OW 5016  13.645   8.616   1.456
 1040SOL    HW1 5017  13.635   8.570   1.540
 1040SOL    HW2 5018  13.725   8.667   1.466
 1041SOL     OW 5019  12.055   3.521   9.848
 1041SOL    HW1 5020  12.032   3.613   9.861
 1041SOL    HW2 5021  12.142   3.524   9.807
 1042SOL     OW 5022   5.680   1.507   0.871
 1042SOL    HW1 5023   5.591   1.476   0.886
 1042SOL    HW2 5024   5.668   1.590   0.823
 1043SOL     OW 5025   1.182   0.769   8.857
 1043SOL    HW1 5026   1.170   0.824   8.780
 1043SOL    HW2 5027   1.095   0.763   8.896
 1044SOL     OW 5028   9.760   6.885  10.008
 1044SOL    HW1 5029   9.827   6.832  10.051
 1044SOL    HW2 5030   9.691   6.822   9.986
 1045SOL     OW 5031  11.352   4.558  14.705
 1045SOL    HW1 5032  11.406   4.618  14.756
 1045SOL    HW2 5033  11.385   4.566  14.616
 1046SOL     OW 5034  12.302  13.305   3.430
 1046SOL    HW1 5035  12.252  13.227   3.408
 1046SOL    HW2 5036  12.356  13.279   3.505
 1047SOL     OW 5037  14.809  13.760   6.860
 1047SOL    HW1 5038  14.868  13.699   6.905
 1047SOL    HW2 5039  14.799  13.832   6.923
 1048SOL     OW 5040  13.261   9.133  11.744
 1048SOL    HW1 5041  13.320   9.063  11.715
 1048SOL    HW2 5042  13.252   9.120  11.838
 1049SOL     OW 5043   6.779  12.453  14.554
 1049SOL    HW1 5044   6.758  12.380  14.613
 1049SOL    HW2 5045   6.802  12.525  14.613
 1050SOL     OW 5046   6.594   7.399   1.443
 1050SOL    HW1 5047   6.548   7.483   1.438
 1050SOL    HW2 5048   6.526   7.334   1.426
 1051SOL     OW 5049   6.496   2.095  11.140
 1051SOL    HW1 5050   6.504   2.098  11.044
 1051SOL    HW2 5051   6.560   2.158  11.171
 1052SOL     OW 5052   4.048   2.434   0.474
 1052SOL    HW1 5053   4.021   2.488   0.548
 1052SOL    HW2 5054   4.001   2.352   0.486
 1053SOL     OW 5055   9.257  10.607  11.843
 1053SOL    HW1 5056   9.329  10.569  11.794
 1053SOL    HW2 5057   9.232  10.539  11.906
 1054SOL     OW 5058  13.533   7.444   1.600
 1054SOL    HW1 5059  13.479   7.367   1.618
 1054SOL    HW2 5060  13.586   7.419   1.524
 1055SOL     OW 5061  12.618   3.623   1.073
 1055SOL    HW1 5062  12.621   3.614   0.978
 1055SOL    HW2 5063  12.525   3.636   1.093
 1056SOL     OW 5064   7.746  10.105   8.763
 1056SOL    HW1 5065   7.792  10.141   8.687
 1056SOL    HW2 5066   7.654  10.127   8.748
 1057SOL     OW 5067   9.711  12.523  13.090
 1057SOL    HW1 5068   9.756  12.481  13.164
 1057SOL    HW2 5069   9.702  12.454  13.025
 1058SOL     OW 5070   2.566   9.086   4.926
 1058SOL    HW1 5071   2.653   9.057   4.950
 1058SOL    HW2 5072   2.536   9.023   4.860
 1059SOL     OW 5073  12.127  13.132  12.560
 1059SOL    HW1 5074  12.105  13.192  12.631
 1059SOL    HW2 5075  12.221  13.118  12.569
 1060SOL     OW 5076   9.031  12.413  13.647
 1060SOL    HW1 5077   9.060  12.322  13.649
 1060SOL    HW2 5078   9.077  12.450  13.571
 1061SOL     OW 5079   9.374  14.813   1.874
 1061SOL    HW1 5080   9.406  14.807   1.964
 1061SOL    HW2 5081   9.280  14.822   1.882
 1062SOL     OW 5082   2.178   9.582   7.090
 1062SOL    HW1 5083   2.086   9.604   7.100
 1062SOL    HW2 5084   2.224   9.664   7.108
 1063SOL     OW 5085   3.478   5.669   8.226
 1063SOL    HW1 5086   3.492   5.702   8.315
 1063SOL    HW2 5087   3.566   5.669   8.187
 1064SOL     OW 5088   1.895  10.601   8.711
 1064SOL    HW1 5089   1.907  10.620   8.618
 1064SOL    HW2 5090   1.903  10.686   8.754
 1065SOL     OW 5091  11.991   9.167   0.080
 1065SOL    HW1 5092  12.021   9.076   0.074
 1065SOL    HW2 5093  11.905   9.162   0.121
 1066SOL     OW 5094  11.629  12.748   5.855
 1066SOL    HW1 5095  11.659  12.691   5.926
 1066SOL    HW2 5096  11.649  12.700   5.775
 1067SOL     OW 5097  14.255   2.609  10.973
 1067SOL    HW1 5098  14.278   2.518  10.952
 1067SOL    HW2 5099  14.169   2.603  11.013
 1068SOL     OW 5100  14.450   7.845   1.252
 1068SOL    HW1 5101  14.470   7.846   1.159
 1068SOL    HW2 5102  14.480   7.759   1.282
 1069SOL     OW 5103  14.064  13.615  13.665
 1069SOL    HW1 5104  14.022  13.532  13.688
 1069SOL    HW2 5105  14.154  13.606  13.697
 1070SOL     OW 5106   9.396  13.277   8.634
 1070SOL    HW1 5107   9.342  13.265   8.712
 1070SOL    HW2 5108   9.342  13.329   8.575
 1071SOL     OW 5109   6.239   8.955  12.952
 1071SOL    HW1 5110   6.237   8.879  13.010
 1071SOL    HW2 5111   6.205   9.027  13.005
 1072SOL     OW 5112   0.602   4.200   3.144
 1072SOL    HW1 5113   0.535   4.269   3.149
 1072SOL    HW2 5114   0.685   4.248   3.143
 1073SOL     OW 5115   7.199  11.363   6.084
 1073SOL    HW1 5116   7.141  11.362   6.160
 1073SOL    HW2 5117   7.209  11.271   6.061
 1074SOL     OW 5118   7.734  14.222  13.708
 1074SOL    HW1 5119   7.679  14.300  13.702
 1074SOL    HW2 5120   7.812  14.244  13.657
 1075SOL     OW 5121   7.430   8.084  10.069
 1075SOL    HW1 5122   7.349   8.070  10.117
 1075SOL    HW2 5123   7.472   7.998  10.068
 1076SOL     OW 5124   0.037   0.624   8.618
 1076SOL    HW1 5125   0.051   0.532   8.639
 1076SOL    HW2 5126   0.123   0.664   8.624
 1077SOL     OW 5127   6.926   1.610  13.513
 1077SOL    HW1 5128   6.973   1.557  13.578
 1077SOL    HW2 5129   6.883   1.546  13.456
 1078SOL     OW 5130   4.457   6.192   6.491
 1078SOL    HW1 5131   4.416   6.258   6.436
 1078SOL    HW2 5132   4.536   6.167   6.443
 1079SOL     OW 5133   8.759   7.392  12.127
 1079SOL    HW1 5134   8.772   7.301  12.152
 1079SOL    HW2 5135   8.694   7.389  12.057
 1080SOL     OW 5136   7.619  14.229   3.299
 1080SOL    HW1 5137   7.559  14.236   3.225
 1080SOL    HW2 5138   7.645  14.319   3.318
 1081SOL     OW 5139  12.130   4.680   4.672
 1081SOL    HW1 5140  12.196   4.618   4.641
 1081SOL    HW2 5141  12.177   4.762   4.681
 1082SOL     OW 5142   1.094   5.133   3.084
 1082SOL    HW1 5143   1.156   5.065   3.111
 1082SOL    HW2 5144   1.119   5.154   2.995
 1083SOL     OW 5145  11.015   5.043   4.249
 1083SOL    HW1 5146  11.064   5.125   4.239
 1083SOL    HW2 5147  10.936   5.057   4.196
 1084SOL     OW 5148   6.581   7.180  12.317
 1084SOL    HW1 5149   6.537   7.096  12.312
 1084SOL    HW2 5150   6.531   7.230  12.381
 1085SOL     OW 5151   7.116   7.436   6.907
 1085SOL    HW1 5152   7.067   7.391   6.976
 1085SOL    HW2 5153   7.111   7.529   6.931
 1086SOL     OW 5154   5.561  13.025  13.860
 1086SOL    HW1 5155   5.492  13.041  13.924
 1086SOL    HW2 5156   5.630  12.981  13.909
 1087SOL     OW 5157  10.350  14.439  12.289
 1087SOL    HW1 5158  10.313  14.462  12.374
 1087SOL    HW2 5159  10.377  14.348  12.298
 1088SOL     OW 5160  13.924  11.046   8.349
 1088SOL    HW1 5161  14.001  11.095   8.377
 1088SOL    HW2 5162  13.853  11.079   8.403
 1089SOL     OW 5163   1.525   1.689   3.800
 1089SOL    HW1 5164   1.511   1.677   3.894
 1089SOL    HW2 5165   1.543   1.602   3.767
 1090SOL     OW 5166  14.020   6.278   1.370
 1090SOL    HW1 5167  13.925   6.270   1.374
 1090SOL    HW2 5168  14.038   6.301   1.278
 1091SOL     OW 5169   5.118  13.560   3.557
 1091SOL    HW1 5170   5.117  13.648   3.518
 1091SOL    HW2 5171   5.029  13.549   3.591
 1092SOL     OW 5172   3.129  14.816   2.973
 1092SOL    HW1 5173   3.133  14.738   3.029
 1092SOL    HW2 5174   3.218  14.828   2.941
 1093SOL     OW 5175  14.259   8.705   6.217
 1093SOL    HW1 5176  14.279   8.692   6.310
 1093SOL    HW2 5177  14.174   8.664   6.204
 1094SOL     OW 5178  13.948   9.131   1.325
 1094SOL    HW1 5179  13.993   9.215   1.333
 1094SOL    HW2 5180  13.862   9.153   1.289
 1095SOL     OW 5181   9.126  13.465   1.786
 1095SOL    HW1 5182   9.182  13.543   1.791
 1095SOL    HW2 5183   9.067  13.473   1.861
 1096SOL     OW 5184   4.776   2.889   9.889
 1096SOL    HW1 5185   4.757   2.959   9.951
 1096SOL    HW2 5186   4.868   2.868   9.904
 1097SOL     OW 5187  11.700   0.394   2.906
 1097SOL    HW1 5188  11.650   0.457   2.958
 1097SOL    HW2 5189  11.713   0.438   2.822
 1098SOL     OW 5190  10.612  13.994   8.074
 1098SOL    HW1 5191  10.548  14.057   8.043
 1098SOL    HW2 5192  10.563  13.912   8.084
 1099SOL     OW 5193   7.139   4.137   7.870
 1099SOL    HW1 5194   7.140   4.221   7.917
 1099SOL    HW2 5195   7.059   4.094   7.899
 1100SOL     OW 5196  13.292  10.634  14.820
 1100SOL    HW1 5197  13.328  10.690  14.752
 1100SOL    HW2 5198  13.315  10.545  14.793
 1101SOL     OW 5199   2.495   3.513   2.210
 1101SOL    HW1 5200   2.429   3.444   2.213
 1101SOL    HW2 5201   2.505   3.541   2.301
 1102SOL     OW 5202  13.274   5.452   1.814
 1102SOL    HW1 5203  13.311   5.424   1.899
 1102SOL    HW2 5204  13.240   5.371   1.775
 1103SOL     OW 5205   1.484   5.532   7.436
 1103SOL    HW1 5206   1.480   5.440   7.461
 1103SOL    HW2 5207   1.441   5.579   7.507
 1104SOL     OW 5208  10.041   6.862   2.262
 1104SOL    HW1 5209  10.041   6.950   2.223
 1104SOL    HW2 5210   9.949   6.843   2.278
 1105SOL     OW 5211   6.256   9.506   1.623
 1105SOL    HW1 5212   6.191   9.548   1.680
 1105SOL    HW2 5213   6.232   9.534   1.535
 1106SOL     OW 5214   2.634  12.321   5.953
 1106SOL    HW1 5215   2.548  12.345   5.989
 1106SOL    HW2 5216   2.624  12.229   5.928
 1107SOL     OW 5217   7.022   9.460  12.324
 1107SOL    HW1 5218   6.976   9.413  12.395
 1107SOL    HW2 5219   7.010   9.553  12.345
 1108SOL     OW 5220   7.916  14.546   6.305
 1108SOL    HW1 5221   7.991  14.512   6.257
 1108SOL    HW2 5222   7.864  14.469   6.328
 1109SOL     OW 5223   6.889  14.345   6.650
 1109SOL    HW1 5224   6.968  14.305   6.687
 1109SOL    HW2 5225   6.896  14.438   6.672
 1110SOL     OW 5226   0.195   2.302  10.153
 1110SOL    HW1 5227   0.240   2.238  10.097
 1110SOL    HW2 5228   0.237   2.294  10.238
 1111SOL     OW 5229   5.938  10.947   6.115
 1111SOL    HW1 5230   5.892  11.005   6.054
 1111SOL    HW2 5231   5.992  10.892   6.058
 1112SOL     OW 5232   4.104  11.134  14.554
 1112SOL    HW1 5233   4.158  11.163  14.628
 1112SOL    HW2 5234   4.075  11.214  14.512
 1113SOL     OW 5235   9.398   3.865  12.001
 1113SOL    HW1 5236   9.425   3.820  11.921
 1113SOL    HW2 5237   9.345   3.801  12.048
 1114SOL     OW 5238   8.256  13.184   9.748
 1114SOL    HW1 5239   8.313  13.119   9.708
 1114SOL    HW2 5240   8.178  13.134   9.776
 1115SOL     OW 5241  10.725  12.291   0.703
 1115SOL    HW1 5242  10.644  12.261   0.661
 1115SOL    HW2 5243  10.732  12.383   0.679
 1116SOL     OW 5244   1.198   8.868  11.394
 1116SOL    HW1 5245   1.147   8.870  11.475
 1116SOL    HW2 5246   1.189   8.956  11.357
 1117SOL     OW 5247  11.051  11.683  12.995
 1117SOL    HW1 5248  11.119  11.749  13.008
 1117SOL    HW2 5249  10.969  11.733  12.995
 1118SOL     OW 5250   8.586  11.870   0.586
 1118SOL    HW1 5251   8.550  11.957   0.603
 1118SOL    HW2 5252   8.510  11.815   0.567
 1119SOL     OW 5253  13.477   8.942   7.751
 1119SOL    HW1 5254  13.549   8.931   7.813
 1119SOL    HW2 5255  13.453   8.852   7.727
 1120SOL     OW 5256   4.947   9.912  14.650
 1120SOL    HW1 5257   4.908   9.863  14.722
 1120SOL    HW2 5258   4.872   9.938  14.596
 1121SOL     OW 5259  12.657   7.982   1.483
 1121SOL    HW1 5260  12.677   8.035   1.405
 1121SOL    HW2 5261  12.564   7.998   1.499
 1122SOL     OW 5262   5.531  13.163   4.380
 1122SOL    HW1 5263   5.571  13.154   4.467
 1122SOL    HW2 5264   5.540  13.077   4.340
 1123SOL     OW 5265   2.017   9.143  11.687
 1123SOL    HW1 5266   2.109   9.171  11.689
 1123SOL    HW2 5267   1.985   9.172  11.601
 1124SOL     OW 5268   8.051  14.127   6.862
 1124SOL    HW1 5269   8.093  14.051   6.823
 1124SOL    HW2 5270   7.957  14.110   6.852
 1125SOL     OW 5271  12.592  12.310   0.262
 1125SOL    HW1 5272  12.506  12.276   0.235
 1125SOL    HW2 5273  12.655  12.260   0.210
 1126SOL     OW 5274  12.401  10.014   9.393
 1126SOL    HW1 5275  12.366   9.984   9.309
 1126SOL    HW2 5276  12.486   9.971   9.400
 1127SOL     OW 5277   4.809   7.482  11.048
 1127SOL    HW1 5278   4.717   7.504  11.058
 1127SOL    HW2 5279   4.813   7.388  11.064
 1128SOL     OW 5280  14.678   4.980  13.563
 1128SOL    HW1 5281  14.652   5.070  13.578
 1128SOL    HW2 5282  14.754   4.987  13.505
 1129SOL     OW 5283   0.114  13.316   3.628
 1129SOL    HW1 5284   0.191  13.271   3.594
 1129SOL    HW2 5285   0.148  13.375   3.695
 1130SOL     OW 5286  10.077   7.916   2.885
 1130SOL    HW1 5287  10.169   7.934   2.869
 1130SOL    HW2 5288  10.049   7.863   2.811
 1131SOL     OW 5289  10.180  11.668   7.613
 1131SOL    HW1 5290  10.207  11.576   7.614
 1131SOL    HW2 5291  10.085  11.665   7.626
 1132SOL     OW 5292  13.472   3.212   0.683
 1132SOL    HW1 5293  13.505   3.165   0.606
 1132SOL    HW2 5294  13.521   3.294   0.683
 1133SOL     OW 5295  14.209  10.794   8.464
 1133SOL    HW1 5296  14.140  10.780   8.399
 1133SOL    HW2 5297  14.271  10.723   8.448
 1134SOL     OW 5298   2.561  12.873   7.315
 1134SOL    HW1 5299   2.488  12.918   7.356
 1134SOL    HW2 5300   2.595  12.936   7.251
 1135SOL     OW 5301   1.263   9.759   9.518
 1135SOL    HW1 5302   1.291   9.832   9.573
 1135SOL    HW2 5303   1.197   9.713   9.570
 1136SOL     OW 5304  10.825   9.336   6.943
 1136SOL    HW1 5305  10.767   9.342   6.867
 1136SOL    HW2 5306  10.767   9.349   7.018
 1137SOL     OW 5307   5.563   0.238   1.518
 1137SOL    HW1 5308   5.598   0.154   1.546
 1137SOL    HW2 5309   5.639   0.290   1.494
 1138SOL     OW 5310  12.783  14.396  11.039
 1138SOL    HW1 5311  12.711  14.390  11.102
 1138SOL    HW2 5312  12.740  14.415  10.956
 1139SOL     OW 5313  12.261  12.064  13.964
 1139SOL    HW1 5314  12.308  12.056  13.881
 1139SOL    HW2 5315  12.169  12.061  13.940
 1140SOL     OW 5316  12.611   9.727  13.253
 1140SOL    HW1 5317  12.684   9.709  13.313
 1140SOL    HW2 5318  12.583   9.816  13.276
 1141SOL     OW 5319   6.483   5.834   5.046
 1141SOL    HW1 5320   6.529   5.918   5.038
 1141SOL    HW2 5321   6.430   5.843   5.125
 1142SOL     OW 5322   5.072   1.165   4.019
 1142SOL    HW1 5323   5.101   1.081   3.982
 1142SOL    HW2 5324   4.980   1.152   4.039
 1143SOL     OW 5325   8.402   6.018   0.013
 1143SOL    HW1 5326   8.474   6.077  14.873
 1143SOL    HW2 5327   8.323   6.072  14.880
 1144SOL     OW 5328   1.965   4.162   4.919
 1144SOL    HW1 5329   1.943   4.219   4.845
 1144SOL    HW2 5330   1.904   4.188   4.988
 1145SOL     OW 5331  14.210  12.324   6.256
 1145SOL    HW1 5332  14.123  12.285   6.262
 1145SOL    HW2 5333  14.204  12.406   6.304
 1146SOL     OW 5334   3.156  14.523   1.765
 1146SOL    HW1 5335   3.159  14.429   1.751
 1146SOL    HW2 5336   3.158  14.533   1.860
 1147SOL     OW 5337  14.563  14.434   4.317
 1147SOL    HW1 5338  14.604  14.466   4.397
 1147SOL    HW2 5339  14.636  14.402   4.263
 1148SOL     OW 5340   2.642   4.337   4.040
 1148SOL    HW1 5341   2.650   4.327   4.135
 1148SOL    HW2 5342   2.649   4.431   4.024
 1149SOL     OW 5343   8.535  10.097   7.557
 1149SOL    HW1 5344   8.607  10.069   7.500
 1149SOL    HW2 5345   8.462  10.112   7.496
 1150SOL     OW 5346   1.215   6.395   5.111
 1150SOL    HW1 5347   1.268   6.334   5.163
 1150SOL    HW2 5348   1.273   6.422   5.039
 1151SOL     OW 5349  12.688   7.825  13.611
 1151SOL    HW1 5350  12.669   7.761  13.542
 1151SOL    HW2 5351  12.604   7.866  13.629
 1152SOL     OW 5352  12.562   7.359   3.125
 1152SOL    HW1 5353  12.565   7.440   3.075
 1152SOL    HW2 5354  12.632   7.369   3.189
 1153SOL     OW 5355   9.904   0.539  14.026
 1153SOL    HW1 5356   9.859   0.607  13.976
 1153SOL    HW2 5357   9.891   0.565  14.118
 1154SOL     OW 5358   3.820  13.635   2.907
 1154SOL    HW1 5359   3.899  13.686   2.923
 1154SOL    HW2 5360   3.791  13.661   2.820
 1155SOL     OW 5361   3.970   4.048   0.917
 1155SOL    HW1 5362   3.954   3.968   0.868
 1155SOL    HW2 5363   4.019   4.104   0.857
 1156SOL     OW 5364  11.857  10.126  14.697
 1156SOL    HW1 5365  11.881  10.135  14.790
 1156SOL    HW2 5366  11.884  10.038  14.674
 1157SOL     OW 5367   5.266   4.514  11.002
 1157SOL    HW1 5368   5.200   4.573  11.038
 1157SOL    HW2 5369   5.232   4.426  11.019
 1158SOL     OW 5370   0.094   4.830   5.523
 1158SOL    HW1 5371   0.078   4.792   5.610
 1158SOL    HW2 5372   0.189   4.841   5.518
 1159SOL     OW 5373   6.181   3.266  12.749
 1159SOL    HW1 5374   6.147   3.179  12.728
 1159SOL    HW2 5375   6.244   3.250  12.820
 1160SOL     OW 5376   5.043  14.549   5.452
 1160SOL    HW1 5377   5.056  14.455   5.464
 1160SOL    HW2 5378   5.124  14.579   5.409
 1161SOL     OW 5379   0.140   4.550  11.339
 1161SOL    HW1 5380   0.114   4.640  11.358
 1161SOL    HW2 5381   0.217   4.535  11.394
 1162SOL     OW 5382   5.739   5.547   2.189
 1162SOL    HW1 5383   5.765   5.487   2.258
 1162SOL    HW2 5384   5.654   5.515   2.159
 1163SOL     OW 5385  12.312   3.582   9.761
 1163SOL    HW1 5386  12.335   3.675   9.765
 1163SOL    HW2 5387  12.391   3.536   9.787
 1164SOL     OW 5388   3.708   9.375  13.456
 1164SOL    HW1 5389   3.748   9.297  13.418
 1164SOL    HW2 5390   3.764   9.447  13.428
 1165SOL     OW 5391   3.675   4.845   6.660
 1165SOL    HW1 5392   3.719   4.922   6.623
 1165SOL    HW2 5393   3.619   4.813   6.589
 1166SOL     OW 5394   1.617   8.788   5.222
 1166SOL    HW1 5395   1.542   8.745   5.263
 1166SOL    HW2 5396   1.606   8.880   5.243
 1167SOL     OW 5397   1.202   5.563   0.035
 1167SOL    HW1 5398   1.227   5.485  14.865
 1167SOL    HW2 5399   1.254   5.634  14.877
 1168SOL     OW 5400   4.690  11.464   9.580
 1168SOL    HW1 5401   4.756  11.397   9.601
 1168SOL    HW2 5402   4.723  11.505   9.500
 1169SOL     OW 5403   3.732   9.436   6.241
 1169SOL    HW1 5404   3.664   9.447   6.174
 1169SOL    HW2 5405   3.806   9.397   6.195
 1170SOL     OW 5406   2.618  12.140   8.756
 1170SOL    HW1 5407   2.711  12.161   8.761
 1170SOL    HW2 5408   2.588  12.148   8.847
 1171SOL     OW 5409   3.921   1.599  12.554
 1171SOL    HW1 5410   3.827   1.605  12.536
 1171SOL    HW2 5411   3.961   1.662  12.494
 1172SOL     OW 5412  12.352   8.789   0.469
 1172SOL    HW1 5413  12.305   8.832   0.542
 1172SOL    HW2 5414  12.437   8.832   0.467
 1173SOL     OW 5415   3.655  14.830  14.018
 1173SOL    HW1 5416   3.677  14.851  13.927
 1173SOL    HW2 5417   3.732  14.783  14.050
 1174SOL     OW 5418   2.204   6.752   8.016
 1174SOL    HW1 5419   2.279   6.694   8.008
 1174SOL    HW2 5420   2.236   6.837   7.986
 1175SOL     OW 5421   9.906   2.222   4.695
 1175SOL    HW1 5422   9.878   2.131   4.700
 1175SOL    HW2 5423   9.836   2.266   4.647
 1176SOL     OW 5424   2.612   7.280  14.872
 1176SOL    HW1 5425   2.551   7.242  14.809
 1176SOL    HW2 5426   2.638   7.207   0.047
 1177SOL     OW 5427   2.878  10.876   9.405
 1177SOL    HW1 5428   2.825  10.841   9.477
 1177SOL    HW2 5429   2.929  10.802   9.375
 1178SOL     OW 5430   8.505   5.188  14.303
 1178SOL    HW1 5431   8.510   5.095  14.282
 1178SOL    HW2 5432   8.423   5.197  14.353
 1179SOL     OW 5433   3.824  11.820   4.410
 1179SOL    HW1 5434   3.826  11.880   4.336
 1179SOL    HW2 5435   3.762  11.751   4.383
 1180SOL     OW 5436   8.761  10.344   4.599
 1180SOL    HW1 5437   8.779  10.251   4.609
 1180SOL    HW2 5438   8.848  10.384   4.589
 1181SOL     OW 5439  12.139   7.864  11.476
 1181SOL    HW1 5440  12.048   7.890  11.489
 1181SOL    HW2 5441  12.176   7.860  11.565
 1182SOL     OW 5442   4.291   3.768   1.671
 1182SOL    HW1 5443   4.202   3.752   1.641
 1182SOL    HW2 5444   4.342   3.783   1.591
 1183SOL     OW 5445  14.089  11.994   5.555
 1183SOL    HW1 5446  14.033  11.921   5.526
 1183SOL    HW2 5447  14.084  11.991   5.650
 1184SOL     OW 5448   9.197  12.110   9.194
 1184SOL    HW1 5449   9.216  12.072   9.279
 1184SOL    HW2 5450   9.161  12.037   9.143
 1185SOL     OW 5451   4.433   2.180   6.024
 1185SOL    HW1 5452   4.412   2.087   6.010
 1185SOL    HW2 5453   4.369   2.227   5.971
 1186SOL     OW 5454   6.529   0.472  14.136
 1186SOL    HW1 5455   6.518   0.482  14.231
 1186SOL    HW2 5456   6.441   0.451  14.104
 1187SOL     OW 5457   2.726   4.722   5.197
 1187SOL    HW1 5458   2.679   4.784   5.143
 1187SOL    HW2 5459   2.666   4.648   5.208
 1188SOL     OW 5460  11.611   6.857   3.829
 1188SOL    HW1 5461  11.661   6.848   3.910
 1188SOL    HW2 5462  11.535   6.799   3.841
 1189SOL     OW 5463   4.217  14.465   3.149
 1189SOL    HW1 5464   4.272  14.515   3.088
 1189SOL    HW2 5465   4.146  14.431   3.095
 1190SOL     OW 5466   9.163   0.879   7.191
 1190SOL    HW1 5467   9.255   0.890   7.212
 1190SOL    HW2 5468   9.139   0.959   7.144
 1191SOL     OW 5469  12.452   2.135  14.671
 1191SOL    HW1 5470  12.421   2.221  14.699
 1191SOL    HW2 5471  12.477   2.147  14.579
 1192SOL     OW 5472   2.912   7.858  12.616
 1192SOL    HW1 5473   2.913   7.897  12.529
 1192SOL    HW2 5474   2.925   7.764  12.601
 1193SOL     OW 5475   4.977   3.001  13.826
 1193SOL    HW1 5476   4.904   3.021  13.884
 1193SOL    HW2 5477   4.938   3.002  13.738
 1194SOL     OW 5478  14.418   6.621   0.366
 1194SOL    HW1 5479  14.476   6.546   0.359
 1194SOL    HW2 5480  14.337   6.593   0.322
 1195SOL     OW 5481  13.848   5.723   7.780
 1195SOL    HW1 5482  13.918   5.676   7.734
 1195SOL    HW2 5483  13.777   5.659   7.788
 1196SOL     OW 5484   7.275  12.877  13.800
 1196SOL    HW1 5485   7.260  12.814  13.729
 1196SOL    HW2 5486   7.234  12.837  13.876
 1197SOL     OW 5487   1.412  10.707   4.749
 1197SOL    HW1 5488   1.339  10.648   4.732
 1197SOL    HW2 5489   1.478  10.652   4.791
 1198SOL     OW 5490  12.009   0.217   6.519
 1198SOL    HW1 5491  12.025   0.160   6.594
 1198SOL    HW2 5492  11.914   0.229   6.518
 1199SOL     OW 5493   9.215   8.096   0.587
 1199SOL    HW1 5494   9.289   8.047   0.551
 1199SOL    HW2 5495   9.161   8.030   0.631
 1200SOL     OW 5496   6.363  13.576  14.191
 1200SOL    HW1 5497   6.437  13.563  14.250
 1200SOL    HW2 5498   6.342  13.669  14.198
 1201SOL     OW 5499   2.679   4.772  11.082
 1201SOL    HW1 5500   2.706   4.863  11.094
 1201SOL    HW2 5501   2.672   4.737  11.171
 1202SOL     OW 5502   9.622  14.133   8.184
 1202SOL    HW1 5503   9.647  14.105   8.272
 1202SOL    HW2 5504   9.544  14.081   8.164
 1203SOL     OW 5505   1.515   8.070   1.427
 1203SOL    HW1 5506   1.576   8.052   1.499
 1203SOL    HW2 5507   1.438   8.107   1.470
 1204SOL     OW 5508   4.620   1.096   5.755
 1204SOL    HW1 5509   4.714   1.113   5.755
 1204SOL    HW2 5510   4.588   1.142   5.677
 1205SOL     OW 5511   1.376   2.784   4.993
 1205SOL    HW1 5512   1.283   2.806   4.997
 1205SOL    HW2 5513   1.389   2.755   4.903
 1206SOL     OW 5514   2.368  12.581   6.234
 1206SOL    HW1 5515   2.314  12.651   6.272
 1206SOL    HW2 5516   2.403  12.534   6.310
 1207SOL     OW 5517  14.007   7.170   5.509
 1207SOL    HW1 5518  14.032   7.262   5.513
 1207SOL    HW2 5519  14.001   7.150   5.416
 1208SOL     OW 5520   7.597  12.086   9.892
 1208SOL    HW1 5521   7.584  12.165   9.945
 1208SOL    HW2 5522   7.570  12.014   9.950
 1209SOL     OW 5523  11.682   7.239   0.948
 1209SOL    HW1 5524  11.762   7.229   0.896
 1209SOL    HW2 5525  11.645   7.150   0.951
 1210SOL     OW 5526   8.905  13.423   8.478
 1210SOL    HW1 5527   8.837  13.356   8.486
 1210SOL    HW2 5528   8.987  13.374   8.480
 1211SOL     OW 5529   8.324   1.781   2.130
 1211SOL    HW1 5530   8.274   1.713   2.085
 1211SOL    HW2 5531   8.362   1.833   2.059
 1212SOL     OW 5532  13.795   2.094   7.809
 1212SOL    HW1 5533  13.702   2.115   7.818
 1212SOL    HW2 5534  13.801   2.052   7.723
 1213SOL     OW 5535   2.682   5.898   7.840
 1213SOL    HW1 5536   2.733   5.856   7.908
 1213SOL    HW2 5537   2.661   5.828   7.778
 1214SOL     OW 5538   5.574   3.217  11.855
 1214SOL    HW1 5539   5.581   3.183  11.765
 1214SOL    HW2 5540   5.656   3.264  11.869
 1215SOL     OW 5541   9.240  10.558   8.719
 1215SOL    HW1 5542   9.306  10.492   8.741
 1215SOL    HW2 5543   9.221  10.602   8.802
 1216SOL     OW 5544   7.888   1.151  10.845
 1216SOL    HW1 5545   7.979   1.148  10.816
 1216SOL    HW2 5546   7.846   1.078  10.800
 1217SOL     OW 5547  13.567   4.417   9.091
 1217SOL    HW1 5548  13.626   4.400   9.164
 1217SOL    HW2 5549  13.572   4.512   9.078
 1218SOL     OW 5550   3.491   4.498   3.230
 1218SOL    HW1 5551   3.494   4.537   3.317
 1218SOL    HW2 5552   3.405   4.458   3.224
 1219SOL     OW 5553  11.744   2.429  11.150
 1219SOL    HW1 5554  11.761   2.447  11.242
 1219SOL    HW2 5555  11.736   2.515  11.110
 1220SOL     OW 5556   7.449   8.360   5.079
 1220SOL    HW1 5557   7.426   8.449   5.106
 1220SOL    HW2 5558   7.458   8.311   5.160
 1221SOL     OW 5559  12.528  13.854  14.410
 1221SOL    HW1 5560  12.460  13.793  14.383
 1221SOL    HW2 5561  12.598  13.842  14.345
 1222SOL     OW 5562  13.449   6.591   8.837
 1222SOL    HW1 5563  13.487   6.525   8.895
 1222SOL    HW2 5564  13.484   6.569   8.750
 1223SOL     OW 5565  12.563  11.056  14.808
 1223SOL    HW1 5566  12.593  11.130  14.755
 1223SOL    HW2 5567  12.585  10.978  14.756
 1224SOL     OW 5568   7.497   2.312  13.592
 1224SOL    HW1 5569   7.474   2.248  13.524
 1224SOL    HW2 5570   7.585   2.342  13.568
 1225SOL     OW 5571  10.635   7.601   5.180
 1225SOL    HW1 5572  10.676   7.567   5.260
 1225SOL    HW2 5573  10.621   7.523   5.126
 1226SOL     OW 5574   3.837   7.247  11.978
 1226SOL    HW1 5575   3.907   7.228  12.041
 1226SOL    HW2 5576   3.780   7.310  12.023
 1227SOL     OW 5577   2.234  11.388  10.581
 1227SOL    HW1 5578   2.142  11.379  10.603
 1227SOL    HW2 5579   2.270  11.300  10.591
 1228SOL     OW 5580   7.710   6.064   8.601
 1228SOL    HW1 5581   7.744   6.079   8.690
 1228SOL    HW2 5582   7.734   5.973   8.582
 1229SOL     OW 5583  10.063  14.123  11.816
 1229SOL    HW1 5584   9.988  14.064  11.818
 1229SOL    HW2 5585  10.025  14.210  11.809
 1230SOL     OW 5586  10.523  12.008   7.552
 1230SOL    HW1 5587  10.523  12.052   7.637
 1230SOL    HW2 5588  10.611  11.974   7.542
 1231SOL     OW 5589   0.939  14.770   3.759
 1231SOL    HW1 5590   0.863  14.774   3.817
 1231SOL    HW2 5591   0.986  14.691   3.788
 1232SOL     OW 5592   0.032   9.381   3.434
 1232SOL    HW1 5593   0.117   9.386   3.479
 1232SOL    HW2 5594   0.011   9.471   3.412
 1233SOL     OW 5595   7.114   5.177   2.844
 1233SOL    HW1 5596   7.151   5.095   2.877
 1233SOL    HW2 5597   7.063   5.211   2.918
 1234SOL     OW 5598  10.569  10.768   8.570
 1234SOL    HW1 5599  10.663  10.772   8.586
 1234SOL    HW2 5600  10.555  10.830   8.498
 1235SOL     OW 5601  14.321   9.771   8.801
 1235SOL    HW1 5602  14.401   9.815   8.829
 1235SOL    HW2 5603  14.251   9.834   8.817
 1236SOL     OW 5604  13.326  11.095   8.696
 1236SOL    HW1 5605  13.254  11.091   8.759
 1236SOL    HW2 5606  13.403  11.068   8.746
 1237SOL     OW 5607  10.671   0.003   3.417
 1237SOL    HW1 5608  10.725  14.819   3.462
 1237SOL    HW2 5609  10.733   0.060   3.372
 1238SOL     OW 5610  14.855  14.439  13.081
 1238SOL    HW1 5611  14.879  14.384  13.006
 1238SOL    HW2 5612  14.855  14.379  13.156
 1239SOL     OW 5613  13.297   4.877   4.048
 1239SOL    HW1 5614  13.291   4.806   4.113
 1239SOL    HW2 5615  13.390   4.881   4.025
 1240SOL     OW 5616   1.059   6.623   7.063
 1240SOL    HW1 5617   1.087   6.577   6.984
 1240SOL    HW2 5618   1.141   6.640   7.110
 1241SOL     OW 5619   1.246  13.027   9.313
 1241SOL    HW1 5620   1.220  13.036   9.221
 1241SOL    HW2 5621   1.182  12.967   9.350
 1242SOL     OW 5622  11.866   9.138   3.106
 1242SOL    HW1 5623  11.903   9.220   3.137
 1242SOL    HW2 5624  11.929   9.107   3.041
 1243SOL     OW 5625  13.154   7.986   8.115
 1243SOL    HW1 5626  13.080   8.035   8.151
 1243SOL    HW2 5627  13.189   8.042   8.046
 1244SOL     OW 5628  12.368   0.820  10.949
 1244SOL    HW1 5629  12.426   0.866  11.009
 1244SOL    HW2 5630  12.377   0.728  10.974
 1245SOL     OW 5631   6.323  12.710   3.402
 1245SOL    HW1 5632   6.402  12.669   3.436
 1245SOL    HW2 5633   6.268  12.725   3.479
 1246SOL     OW 5634   4.472   7.335   7.319
 1246SOL    HW1 5635   4.557   7.321   7.361
 1246SOL    HW2 5636   4.490   7.331   7.225
 1247SOL     OW 5637   5.729   2.173  12.430
 1247SOL    HW1 5638   5.695   2.258  12.402
 1247SOL    HW2 5639   5.818   2.170  12.393
 1248SOL     OW 5640  13.568   3.990  12.171
 1248SOL    HW1 5641  13.480   4.022  12.148
 1248SOL    HW2 5642  13.563   3.895  12.155
 1249SOL     OW 5643   1.669  14.336   4.392
 1249SOL    HW1 5644   1.650  14.276   4.319
 1249SOL    HW2 5645   1.762  14.321   4.411
 1250SOL     OW 5646   4.492  12.667   8.708
 1250SOL    HW1 5647   4.557  12.735   8.729
 1250SOL    HW2 5648   4.524  12.628   8.627
 1251SOL     OW 5649   9.868   7.028   0.816
 1251SOL    HW1 5650   9.915   7.043   0.734
 1251SOL    HW2 5651   9.898   7.097   0.875
 1252SOL     OW 5652   9.177   9.808   6.341
 1252SOL    HW1 5653   9.195   9.808   6.435
 1252SOL    HW2 5654   9.160   9.899   6.320
 1253SOL     OW 5655   9.281   2.589   5.863
 1253SOL    HW1 5656   9.251   2.500   5.880
 1253SOL    HW2 5657   9.211   2.628   5.809
 1254SOL     OW 5658  13.150  13.617  11.036
 1254SOL    HW1 5659  13.057  13.592  11.035
 1254SOL    HW2 5660  13.177  13.613  10.945
 1255SOL     OW 5661   1.256  11.942  14.531
 1255SOL    HW1 5662   1.176  11.936  14.479
 1255SOL    HW2 5663   1.260  12.034  14.557
 1256SOL     OW 5664   2.825   9.693   9.467
 1256SOL    HW1 5665   2.833   9.754   9.394
 1256SOL    HW2 5666   2.763   9.735   9.527
 1257SOL     OW 5667  11.250   5.971  14.609
 1257SOL    HW1 5668  11.303   5.908  14.657
 1257SOL    HW2 5669  11.165   5.970  14.654
 1258SOL     OW 5670  10.857   3.612   9.269
 1258SOL    HW1 5671  10.853   3.640   9.360
 1258SOL    HW2 5672  10.951   3.599   9.252
 1259SOL     OW 5673   5.038  11.308   7.715
 1259SOL    HW1 5674   4.990  11.344   7.640
 1259SOL    HW2 5675   5.092  11.238   7.677
 1260SOL     OW 5676  10.395  13.902   2.856
 1260SOL    HW1 5677  10.457  13.829   2.859
 1260SOL    HW2 5678  10.310  13.860   2.870
 1261SOL     OW 5679  12.667   5.201   2.110
 1261SOL    HW1 5680  12.692   5.288   2.079
 1261SOL    HW2 5681  12.734   5.177   2.174
 1262SOL     OW 5682   1.550   9.407   6.777
 1262SOL    HW1 5683   1.561   9.435   6.686
 1262SOL    HW2 5684   1.472   9.455   6.807
 1263SOL     OW 5685  12.131   2.328   4.340
 1263SOL    HW1 5686  12.218   2.325   4.300
 1263SOL    HW2 5687  12.073   2.353   4.268
 1264SOL     OW 5688  11.271   0.271   2.048
 1264SOL    HW1 5689  11.356   0.296   2.085
 1264SOL    HW2 5690  11.262   0.327   1.971
 1265SOL     OW 5691   4.024   9.503  14.554
 1265SOL    HW1 5692   3.966   9.427  14.547
 1265SOL    HW2 5693   3.964   9.578  14.557
 1266SOL     OW 5694  10.946   0.904   9.606
 1266SOL    HW1 5695  11.014   0.839   9.618
 1266SOL    HW2 5696  10.982   0.965   9.542
 1267SOL     OW 5697   3.822   2.695   4.139
 1267SOL    HW1 5698   3.807   2.785   4.167
 1267SOL    HW2 5699   3.868   2.654   4.212
 1268SOL     OW 5700   2.843  13.514  12.685
 1268SOL    HW1 5701   2.883  13.586  12.637
 1268SOL    HW2 5702   2.771  13.483  12.629
 1269SOL     OW 5703   7.787   3.079   2.586
 1269SOL    HW1 5704   7.785   2.992   2.626
 1269SOL    HW2 5705   7.740   3.135   2.648
 1270SOL     OW 5706  14.861   0.853   7.889
 1270SOL    HW1 5707  14.828   0.914   7.823
 1270SOL    HW2 5708   0.067   0.888   7.912
 1271SOL     OW 5709  10.700   5.520   2.069
 1271SOL    HW1 5710  10.726   5.480   1.986
 1271SOL    HW2 5711  10.609   5.492   2.082
 1272SOL     OW 5712   8.761   1.642   2.519
 1272SOL    HW1 5713   8.772   1.712   2.583
 1272SOL    HW2 5714   8.684   1.668   2.467
 1273SOL     OW 5715   2.900   3.215  11.161
 1273SOL    HW1 5716   2.970   3.159  11.129
 1273SOL    HW2 5717   2.945   3.294  11.191
 1274SOL     OW 5718  11.415   7.284   1.019
 1274SOL    HW1 5719  11.380   7.344   0.953
 1274SOL    HW2 5720  11.509   7.282   1.002
 1275SOL     OW 5721  10.895  14.318  14.632
 1275SOL    HW1 5722  10.962  14.274  14.684
 1275SOL    HW2 5723  10.875  14.398  14.681
 1276SOL     OW 5724   5.373   0.474   8.280
 1276SOL    HW1 5725   5.335   0.409   8.221
 1276SOL    HW2 5726   5.413   0.423   8.350
 1277SOL     OW 5727   5.758   0.474   9.019
 1277SOL    HW1 5728   5.721   0.387   9.033
 1277SOL    HW2 5729   5.681   0.531   9.006
 1278SOL     OW 5730   4.495   6.984  12.563
 1278SOL    HW1 5731   4.575   7.012  12.607
 1278SOL    HW2 5732   4.453   6.924  12.625
 1279SOL     OW 5733  14.393   8.173  10.095
 1279SOL    HW1 5734  14.387   8.164   9.999
 1279SOL    HW2 5735  14.353   8.258  10.113
 1280SOL     OW 5736   0.309  12.668   3.089
 1280SOL    HW1 5737   0.267  12.744   3.129
 1280SOL    HW2 5738   0.317  12.604   3.161
 1281SOL     OW 5739   5.096   9.085   9.088
 1281SOL    HW1 5740   5.050   9.070   9.006
 1281SOL    HW2 5741   5.107   8.998   9.127
 1282SOL     OW 5742   6.582   8.707   4.048
 1282SOL    HW1 5743   6.562   8.640   4.114
 1282SOL    HW2 5744   6.496   8.737   4.017
 1283SOL     OW 5745  12.862   8.430   2.399
 1283SOL    HW1 5746  12.780   8.471   2.427
 1283SOL    HW2 5747  12.835   8.371   2.329
 1284SOL     OW 5748  12.519  10.595   4.114
 1284SOL    HW1 5749  12.466  10.529   4.158
 1284SOL    HW2 5750  12.605  10.588   4.156
 1285SOL     OW 5751   9.534   3.844   4.751
 1285SOL    HW1 5752   9.576   3.807   4.674
 1285SOL    HW2 5753   9.544   3.776   4.818
 1286SOL     OW 5754  12.053   3.746   4.019
 1286SOL    HW1 5755  11.962   3.722   4.036
 1286SOL    HW2 5756  12.090   3.670   3.974
 1287SOL     OW 5757  10.603   0.077   3.772
 1287SOL    HW1 5758  10.670   0.094   3.706
 1287SOL    HW2 5759  10.614   0.147   3.836
 1288SOL     OW 5760   2.248   3.853  12.494
 1288SOL    HW1 5761   2.197   3.934  12.506
 1288SOL    HW2 5762   2.235   3.804  12.575
 1289SOL     OW 5763  12.795  10.806   1.174
 1289SOL    HW1 5764  12.822  10.745   1.243
 1289SOL    HW2 5765  12.711  10.840   1.204
 1290SOL     OW 5766   6.755  14.213   1.271
 1290SOL    HW1 5767   6.764  14.119   1.290
 1290SOL    HW2 5768   6.724  14.250   1.353
 1291SOL     OW 5769   6.987   2.258  13.855
 1291SOL    HW1 5770   6.971   2.281  13.947
 1291SOL    HW2 5771   7.040   2.178  13.859
 1292SOL     OW 5772  14.237  10.662   5.288
 1292SOL    HW1 5773  14.275  10.603   5.223
 1292SOL    HW2 5774  14.155  10.691   5.248
 1293SOL     OW 5775   9.680  14.208   2.864
 1293SOL    HW1 5776   9.674  14.263   2.942
 1293SOL    HW2 5777   9.602  14.230   2.813
 1294SOL     OW 5778  13.513   1.345   0.881
 1294SOL    HW1 5779  13.492   1.405   0.952
 1294SOL    HW2 5780  13.504   1.398   0.801
 1295SOL     OW 5781   3.226   9.850  10.245
 1295SOL    HW1 5782   3.279   9.928  10.257
 1295SOL    HW2 5783   3.141   9.873  10.281
 1296SOL     OW 5784   9.626   4.071   2.462
 1296SOL    HW1 5785   9.559   4.068   2.531
 1296SOL    HW2 5786   9.607   4.152   2.414
 1297SOL     OW 5787  13.526   5.620  12.022
 1297SOL    HW1 5788  13.579   5.654  12.094
 1297SOL    HW2 5789  13.567   5.654  11.943
 1298SOL     OW 5790   1.814   8.875   2.448
 1298SOL    HW1 5791   1.893   8.926   2.465
 1298SOL    HW2 5792   1.783   8.907   2.363
 1299SOL     OW 5793  14.836   5.782   0.109
 1299SOL    HW1 5794  14.795   5.722   0.047
 1299SOL    HW2 5795  14.869   5.726   0.179
 1300SOL     OW 5796   3.643   4.518   2.565
 1300SOL    HW1 5797   3.728   4.560   2.551
 1300SOL    HW2 5798   3.652   4.476   2.651
 1301SOL     OW 5799   8.253   5.875   0.530
 1301SOL    HW1 5800   8.224   5.898   0.442
 1301SOL    HW2 5801   8.303   5.951   0.559
 1302SOL     OW 5802   8.676   2.463  11.641
 1302SOL    HW1 5803   8.747   2.490  11.700
 1302SOL    HW2 5804   8.721   2.438  11.561
 1303SOL     OW 5805   0.427  14.671  11.762
 1303SOL    HW1 5806   0.515  14.642  11.737
 1303SOL    HW2 5807   0.368  14.625  11.702
 1304SOL     OW 5808  10.552   5.302   3.951
 1304SOL    HW1 5809  10.634   5.330   3.992
 1304SOL    HW2 5810  10.504   5.257   4.020
 1305SOL     OW 5811   4.427  13.136   3.891
 1305SOL    HW1 5812   4.350  13.120   3.946
 1305SOL    HW2 5813   4.501  13.129   3.952
 1306SOL     OW 5814   6.653   8.194   8.994
 1306SOL    HW1 5815   6.611   8.160   9.073
 1306SOL    HW2 5816   6.676   8.284   9.016
 1307SOL     OW 5817   8.471   1.658   9.628
 1307SOL    HW1 5818   8.408   1.590   9.651
 1307SOL    HW2 5819   8.508   1.629   9.545
 1308SOL     OW 5820   8.942   5.374   4.742
 1308SOL    HW1 5821   8.935   5.297   4.686
 1308SOL    HW2 5822   9.022   5.359   4.793
 1309SOL     OW 5823  12.895   5.826   8.693
 1309SOL    HW1 5824  12.971   5.868   8.652
 1309SOL    HW2 5825  12.833   5.814   8.621
 1310SOL     OW 5826   2.557   7.298   9.825
 1310SOL    HW1 5827   2.569   7.369   9.889
 1310SOL    HW2 5828   2.637   7.246   9.833
 1311SOL     OW 5829   4.241   2.399   6.428
 1311SOL    HW1 5830   4.287   2.422   6.508
 1311SOL    HW2 5831   4.179   2.331   6.455
 1312SOL     OW 5832  14.868   1.013   5.026
 1312SOL    HW1 5833   0.056   0.998   5.091
 1312SOL    HW2 5834  14.787   0.992   5.071
 1313SOL     OW 5835   1.308   2.119  13.627
 1313SOL    HW1 5836   1.256   2.163  13.560
 1313SOL    HW2 5837   1.266   2.144  13.710
 1314SOL     OW 5838   2.776   4.907  12.825
 1314SOL    HW1 5839   2.823   4.881  12.904
 1314SOL    HW2 5840   2.689   4.932  12.857
 1315SOL     OW 5841  14.747   8.129   6.896
 1315SOL    HW1 5842  14.760   8.101   6.806
 1315SOL    HW2 5843  14.810   8.078   6.947
 1316SOL     OW 5844  11.324   7.254  12.274
 1316SOL    HW1 5845  11.308   7.263  12.180
 1316SOL    HW2 5846  11.240   7.278  12.314
 1317SOL     OW 5847  12.443   7.047   6.640
 1317SOL    HW1 5848  12.390   6.980   6.684
 1317SOL    HW2 5849  12.508   7.072   6.705
 1318SOL     OW 5850   0.984   0.955  11.450
 1318SOL    HW1 5851   0.888   0.957  11.453
 1318SOL    HW2 5852   1.009   0.897  11.522
 1319SOL     OW 5853  10.005  11.218  10.654
 1319SOL    HW1 5854  10.003  11.147  10.590
 1319SOL    HW2 5855   9.969  11.179  10.734
 1320SOL     OW 5856  14.014   7.418   3.008
 1320SOL    HW1 5857  13.934   7.366   3.016
 1320SOL    HW2 5858  13.988   7.506   3.032
 1321SOL     OW 5859   5.404   0.030   2.387
 1321SOL    HW1 5860   5.436   0.077   2.464
 1321SOL    HW2 5861   5.448   0.072   2.314
 1322SOL     OW 5862   5.582   7.077   2.057
 1322SOL    HW1 5863   5.647   7.015   2.023
 1322SOL    HW2 5864   5.609   7.162   2.023
 1323SOL     OW 5865  10.529   7.550   3.217
 1323SOL    HW1 5866  10.505   7.573   3.307
 1323SOL    HW2 5867  10.624   7.543   3.219
 1324SOL     OW 5868   1.621   7.665  14.157
 1324SOL    HW1 5869   1.565   7.643  14.232
 1324SOL    HW2 5870   1.704   7.692  14.196
 1325SOL     OW 5871   4.128  12.178   8.548
 1325SOL    HW1 5872   4.163  12.142   8.629
 1325SOL    HW2 5873   4.111  12.101   8.493
 1326SOL     OW 5874   0.222  14.864  12.670
 1326SOL    HW1 5875   0.287  14.808  12.712
 1326SOL    HW2 5876   0.253  14.875  12.580
 1327SOL     OW 5877   2.306  11.985  11.002
 1327SOL    HW1 5878   2.227  12.034  11.025
 1327SOL    HW2 5879   2.376  12.050  11.008
 1328SOL     OW 5880   0.796   1.516  11.203
 1328SOL    HW1 5881   0.804   1.430  11.160
 1328SOL    HW2 5882   0.822   1.499  11.293
 1329SOL     OW 5883  12.838  12.446  14.257
 1329SOL    HW1 5884  12.847  12.439  14.352
 1329SOL    HW2 5885  12.927  12.431  14.224
 1330SOL     OW 5886  12.476  14.797   2.802
 1330SOL    HW1 5887  12.411  14.738   2.838
 1330SOL    HW2 5888  12.555  14.782   2.854
 1331SOL     OW 5889  11.625   0.676  13.240
 1331SOL    HW1 5890  11.604   0.614  13.170
 1331SOL    HW2 5891  11.619   0.762  13.199
 1332SOL     OW 5892  12.547   5.309   4.675
 1332SOL    HW1 5893  12.543   5.214   4.683
 1332SOL    HW2 5894  12.461   5.339   4.705
 1333SOL     OW 5895  14.743  11.649  10.812
 1333SOL    HW1 5896  14.756  11.554  10.814
 1333SOL    HW2 5897  14.785  11.677  10.731
 1334SOL     OW 5898  13.816   0.275  10.828
 1334SOL    HW1 5899  13.759   0.333  10.878
 1334SOL    HW2 5900  13.853   0.330  10.759
 1335SOL     OW 5901   5.750  12.492  10.803
 1335SOL    HW1 5902   5.806  12.447  10.866
 1335SOL    HW2 5903   5.750  12.435  10.726
 1336SOL     OW 5904   4.087   0.682   3.545
 1336SOL    HW1 5905   4.068   0.759   3.599
 1336SOL    HW2 5906   4.179   0.693   3.520
 1337SOL     OW 5907   4.383   7.839  14.585
 1337SOL    HW1 5908   4.439   7.911  14.558
 1337SOL    HW2 5909   4.432   7.760  14.564
 1338SOL     OW 5910   8.627   6.574   2.729
 1338SOL    HW1 5911   8.630   6.478   2.725
 1338SOL    HW2 5912   8.571   6.593   2.804
 1339SOL     OW 5913   7.122   8.758   9.006
 1339SOL    HW1 5914   7.175   8.730   9.081
 1339SOL    HW2 5915   7.185   8.783   8.940
 1340SOL     OW 5916   2.151   5.412   2.425
 1340SOL    HW1 5917   2.192   5.450   2.348
 1340SOL    HW2 5918   2.067   5.378   2.394
 1341SOL     OW 5919   8.829   1.253  13.631
 1341SOL    HW1 5920   8.785   1.328  13.672
 1341SOL    HW2 5921   8.867   1.289  13.551
 1342SOL     OW 5922   5.141   7.730  14.394
 1342SOL    HW1 5923   5.152   7.636  14.377
 1342SOL    HW2 5924   5.211   7.772  14.345
 1343SOL     OW 5925   0.038  11.869  12.382
 1343SOL    HW1 5926   0.019  11.935  12.316
 1343SOL    HW2 5927   0.132  11.879  12.399
 1344SOL     OW 5928  10.134   7.734  13.491
 1344SOL    HW1 5929  10.059   7.689  13.530
 1344SOL    HW2 5930  10.150   7.688  13.408
 1345SOL     OW 5931   0.512   4.238  11.398
 1345SOL    HW1 5932   0.583   4.253  11.336
 1345SOL    HW2 5933   0.454   4.177  11.352
 1346SOL     OW 5934  11.886   2.805   3.019
 1346SOL    HW1 5935  11.905   2.806   2.925
 1346SOL    HW2 5936  11.954   2.859   3.058
 1347SOL     OW 5937  10.417   1.424   5.651
 1347SOL    HW1 5938  10.364   1.444   5.574
 1347SOL    HW2 5939  10.364   1.454   5.725
 1348SOL     OW 5940   3.859   5.607   7.385
 1348SOL    HW1 5941   3.873   5.523   7.342
 1348SOL    HW2 5942   3.917   5.605   7.461
 1349SOL     OW 5943   2.398   1.319   2.994
 1349SOL    HW1 5944   2.475   1.349   2.945
 1349SOL    HW2 5945   2.395   1.225   2.978
 1350SOL     OW 5946   3.076   7.342   6.684
 1350SOL    HW1 5947   2.999   7.335   6.741
 1350SOL    HW2 5948   3.051   7.295   6.605
 1351SOL     OW 5949  12.084   5.236   4.028
 1351SOL    HW1 5950  11.994   5.254   4.003
 1351SOL    HW2 5951  12.125   5.323   4.031
 1352SOL     OW 5952   0.949   8.490   9.541
 1352SOL    HW1 5953   0.854   8.482   9.549
 1352SOL    HW2 5954   0.978   8.524   9.626
 1353SOL     OW 5955   8.852   3.476   6.375
 1353SOL    HW1 5956   8.876   3.569   6.370
 1353SOL    HW2 5957   8.888   3.446   6.458
 1354SOL     OW 5958   4.841  14.078   5.620
 1354SOL    HW1 5959   4.755  14.105   5.589
 1354SOL    HW2 5960   4.869  14.148   5.678
 1355SOL     OW 5961   8.616   8.811  11.429
 1355SOL    HW1 5962   8.625   8.880  11.494
 1355SOL    HW2 5963   8.608   8.858  11.346
 1356SOL     OW 5964   1.247   3.074   2.927
 1356SOL    HW1 5965   1.318   3.018   2.958
 1356SOL    HW2 5966   1.239   3.142   2.994
 1357SOL     OW 5967   0.304  13.084   9.361
 1357SOL    HW1 5968   0.385  13.132   9.383
 1357SOL    HW2 5969   0.266  13.133   9.288
 1358SOL     OW 5970   0.012   4.361  12.716
 1358SOL    HW1 5971   0.020   4.456  12.722
 1358SOL    HW2 5972   0.037   4.340  12.626
 1359SOL     OW 5973  14.836  10.962   2.204
 1359SOL    HW1 5974  14.862  11.053   2.214
 1359SOL    HW2 5975   0.008  10.930   2.131
 1360SOL     OW 5976  13.253   4.412  13.473
 1360SOL    HW1 5977  13.162   4.435  13.494
 1360SOL    HW2 5978  13.279   4.476  13.407
 1361SOL     OW 5979   3.759  11.945   1.881
 1361SOL    HW1 5980   3.752  12.040   1.890
 1361SOL    HW2 5981   3.830  11.920   1.940
 1362SOL     OW 5982   9.794   5.759  11.572
 1362SOL    HW1 5983   9.733   5.728  11.505
 1362SOL    HW2 5984   9.880   5.736  11.538
 1363SOL     OW 5985   3.737   7.184   2.988
 1363SOL    HW1 5986   3.815   7.231   3.018
 1363SOL    HW2 5987   3.712   7.229   2.907
 1364SOL     OW 5988  10.246  10.096   0.300
 1364SOL    HW1 5989  10.222  10.189   0.301
 1364SOL    HW2 5990  10.304  10.087   0.225
 1365SOL     OW 5991   7.402   0.255   1.782
 1365SOL    HW1 5992   7.471   0.266   1.847
 1365SOL    HW2 5993   7.324   0.234   1.833
 1366SOL     OW 5994   2.457   9.396   4.230
 1366SOL    HW1 5995   2.497   9.344   4.299
 1366SOL    HW2 5996   2.415   9.469   4.276
 1367SOL     OW 5997   5.807  13.515   2.977
 1367SOL    HW1 5998   5.739  13.501   2.912
 1367SOL    HW2 5999   5.813  13.432   3.024
 1368SOL     OW 6000   8.195   2.146   8.878
 1368SOL    HW1 6001   8.254   2.190   8.939
 1368SOL    HW2 6002   8.189   2.206   8.803
 1369SOL     OW 6003  14.282  11.041   4.799
 1369SOL    HW1 6004  14.374  11.033   4.826
 1369SOL    HW2 6005  14.235  10.983   4.860
 1370SOL     OW 6006   3.544   5.286  14.662
 1370SOL    HW1 6007   3.540   5.287  14.757
 1370SOL    HW2 6008   3.481   5.219  14.636
 1371SOL     OW 6009   1.253  13.668   6.008
 1371SOL    HW1 6010   1.315  13.680   5.936
 1371SOL    HW2 6011   1.277  13.583   6.046
 1372SOL     OW 6012   9.482  11.116  13.140
 1372SOL    HW1 6013   9.391  11.128  13.167
 1372SOL    HW2 6014   9.525  11.198  13.164
 1373SOL     OW 6015  12.776   1.503  13.190
 1373SOL    HW1 6016  12.760   1.597  13.181
 1373SOL    HW2 6017  12.689   1.464  13.196
 1374SOL     OW 6018   0.468   7.635  11.465
 1374SOL    HW1 6019   0.467   7.721  11.505
 1374SOL    HW2 6020   0.377   7.604  11.471
 1375SOL     OW 6021  14.415   5.833  11.373
 1375SOL    HW1 6022  14.360   5.874  11.439
 1375SOL    HW2 6023  14.361   5.830  11.294
 1376SOL     OW 6024  12.233   3.162   1.513
 1376SOL    HW1 6025  12.316   3.118   1.495
 1376SOL    HW2 6026  12.166   3.095   1.500
 1377SOL     OW 6027  11.157   0.473  13.713
 1377SOL    HW1 6028  11.232   0.491  13.658
 1377SOL    HW2 6029  11.104   0.412  13.662
 1378SOL     OW 6030   8.005   8.444   0.260
 1378SOL    HW1 6031   8.038   8.359   0.232
 1378SOL    HW2 6032   8.009   8.498   0.181
 1379SOL     OW 6033   4.084  13.699   2.943
 1379SOL    HW1 6034   4.137  13.704   2.864
 1379SOL    HW2 6035   4.082  13.606   2.965
 1380SOL     OW 6036  12.906  13.340  12.831
 1380SOL    HW1 6037  12.893  13.399  12.905
 1380SOL    HW2 6038  12.830  13.281  12.834
 1381SOL     OW 6039  11.032  11.408   8.223
 1381SOL    HW1 6040  11.010  11.320   8.194
 1381SOL    HW2 6041  11.057  11.454   8.143
 1382SOL     OW 6042  12.334  11.888   2.793
 1382SOL    HW1 6043  12.266  11.950   2.768
 1382SOL    HW2 6044  12.357  11.843   2.711
 1383SOL     OW 6045   4.295   3.453   5.492
 1383SOL    HW1 6046   4.347   3.500   5.426
 1383SOL    HW2 6047   4.234   3.519   5.525
 1384SOL     OW 6048   8.971   6.301  13.185
 1384SOL    HW1 6049   8.974   6.212  13.217
 1384SOL    HW2 6050   9.036   6.303  13.115
 1385SOL     OW 6051   9.779  12.353   0.786
 1385SOL    HW1 6052   9.786  12.403   0.867
 1385SOL    HW2 6053   9.835  12.277   0.799
 1386SOL     OW 6054  13.409   4.028   8.423
 1386SOL    HW1 6055  13.467   4.001   8.352
 1386SOL    HW2 6056  13.322   3.999   8.395
 1387SOL     OW 6057  14.774   2.850  14.682
 1387SOL    HW1 6058  14.739   2.864  14.770
 1387SOL    HW2 6059  14.865   2.879  14.688
 1388SOL     OW 6060   0.808   5.204   2.902
 1388SOL    HW1 6061   0.834   5.291   2.871
 1388SOL    HW2 6062   0.818   5.208   2.997
 1389SOL     OW 6063  12.960   4.258   4.139
 1389SOL    HW1 6064  13.024   4.261   4.211
 1389SOL    HW2 6065  12.948   4.165   4.122
 1390SOL     OW 6066  14.333   0.368  10.190
 1390SOL    HW1 6067  14.385   0.293  10.218
 1390SOL    HW2 6068  14.248   0.330  10.165
 1391SOL     OW 6069  13.100   9.500   3.676
 1391SOL    HW1 6070  13.079   9.590   3.652
 1391SOL    HW2 6071  13.164   9.472   3.610
 1392SOL     OW 6072   8.027   0.053   1.647
 1392SOL    HW1 6073   8.062   0.079   1.561
 1392SOL    HW2 6074   8.092   0.083   1.709
 1393SOL     OW 6075   9.228   7.246   6.710
 1393SOL    HW1 6076   9.222   7.185   6.637
 1393SOL    HW2 6077   9.189   7.200   6.784
 1394SOL     OW 6078  10.551   5.726   6.482
 1394SOL    HW1 6079  10.561   5.752   6.390
 1394SOL    HW2 6080  10.535   5.632   6.478
 1395SOL     OW 6081  12.917   5.409   6.824
 1395SOL    HW1 6082  12.955   5.410   6.912
 1395SOL    HW2 6083  12.942   5.494   6.787
 1396SOL     OW 6084   4.144   4.939  10.737
 1396SOL    HW1 6085   4.049   4.942  10.729
 1396SOL    HW2 6086   4.176   4.997  10.668
 1397SOL     OW 6087   2.027   4.732   3.644
 1397SOL    HW1 6088   2.013   4.676   3.720
 1397SOL    HW2 6089   2.103   4.786   3.668
 1398SOL     OW 6090  14.392  12.451   2.671
 1398SOL    HW1 6091  14.454  12.378   2.668
 1398SOL    HW2 6092  14.408  12.500   2.590
 1399SOL     OW 6093  12.196   3.775   8.764
 1399SOL    HW1 6094  12.137   3.702   8.748
 1399SOL    HW2 6095  12.139   3.851   8.773
 1400SOL     OW 6096   4.676   6.851  12.299
 1400SOL    HW1 6097   4.652   6.929  12.248
 1400SOL    HW2 6098   4.678   6.880  12.390
 1401SOL     OW 6099   0.300   0.160   1.035
 1401SOL    HW1 6100   0.274   0.108   1.111
 1401SOL    HW2 6101   0.289   0.251   1.063
 1402SOL     OW 6102   0.573   7.746  14.213
 1402SOL    HW1 6103   0.607   7.702  14.291
 1402SOL    HW2 6104   0.518   7.679  14.171
 1403SOL     OW 6105  12.667   1.826   2.106
 1403SOL    HW1 6106  12.733   1.892   2.127
 1403SOL    HW2 6107  12.718   1.748   2.082
 1404SOL     OW 6108   3.518   5.877   3.213
 1404SOL    HW1 6109   3.535   5.812   3.145
 1404SOL    HW2 6110   3.429   5.859   3.242
 1405SOL     OW 6111  14.387   3.812  11.228
 1405SOL    HW1 6112  14.473   3.771  11.224
 1405SOL    HW2 6113  14.397   3.884  11.291
 1406SOL     OW 6114  13.353   4.598   1.417
 1406SOL    HW1 6115  13.407   4.554   1.482
 1406SOL    HW2 6116  13.279   4.539   1.403
 1407SOL     OW 6117  14.355  10.498  14.426
 1407SOL    HW1 6118  14.267  10.486  14.390
 1407SOL    HW2 6119  14.364  10.430  14.492
 1408SOL     OW 6120   0.382   7.684   6.871
 1408SOL    HW1 6121   0.334   7.748   6.925
 1408SOL    HW2 6122   0.325   7.608   6.868
 1409SOL     OW 6123   8.175   1.889   4.717
 1409SOL    HW1 6124   8.156   1.917   4.628
 1409SOL    HW2 6125   8.091   1.891   4.762
 1410SOL     OW 6126   9.725   0.476   5.135
 1410SOL    HW1 6127   9.795   0.421   5.100
 1410SOL    HW2 6128   9.665   0.489   5.061
 1411SOL     OW 6129  12.393  14.476   1.309
 1411SOL    HW1 6130  12.349  14.560   1.291
 1411SOL    HW2 6131  12.362  14.452   1.396
 1412SOL     OW 6132  10.997   2.321   7.143
 1412SOL    HW1 6133  10.906   2.353   7.143
 1412SOL    HW2 6134  11.049   2.397   7.171
 1413SOL     OW 6135   9.854   8.562   7.036
 1413SOL    HW1 6136   9.788   8.596   6.975
 1413SOL    HW2 6137   9.936   8.601   7.006
 1414SOL     OW 6138   5.554   6.301   2.751
 1414SOL    HW1 6139   5.587   6.372   2.806
 1414SOL    HW2 6140   5.496   6.251   2.808
 1415SOL     OW 6141   2.096   7.264  11.585
 1415SOL    HW1 6142   2.049   7.323  11.644
 1415SOL    HW2 6143   2.087   7.304  11.498
 1416SOL     OW 6144   2.528   3.105   1.536
 1416SOL    HW1 6145   2.484   3.067   1.612
 1416SOL    HW2 6146   2.477   3.073   1.461
 1417SOL     OW 6147   5.444   4.059   9.698
 1417SOL    HW1 6148   5.514   4.124   9.695
 1417SOL    HW2 6149   5.371   4.100   9.653
 1418SOL     OW 6150  13.993   5.993   0.411
 1418SOL    HW1 6151  13.957   5.987   0.499
 1418SOL    HW2 6152  13.916   6.005   0.355
 1419SOL     OW 6153  12.964   8.163   8.166
 1419SOL    HW1 6154  12.952   8.161   8.261
 1419SOL    HW2 6155  12.877   8.141   8.131
 1420SOL     OW 6156  13.397  11.192   7.971
 1420SOL    HW1 6157  13.482  11.226   7.943
 1420SOL    HW2 6158  13.415  11.142   8.050
 1421SOL     OW 6159  13.560  13.275   1.715
 1421SOL    HW1 6160  13.556  13.251   1.622
 1421SOL    HW2 6161  13.471  13.263   1.747
 1422SOL     OW 6162   4.152  14.273   6.703
 1422SOL    HW1 6163   4.194  14.353   6.671
 1422SOL    HW2 6164   4.128  14.225   6.624
 1423SOL     OW 6165  10.970  14.767  13.567
 1423SOL    HW1 6166  10.917  14.733  13.640
 1423SOL    HW2 6167  11.035  14.698  13.552
 1424SOL     OW 6168   5.098   3.355   5.736
 1424SOL    HW1 6169   5.040   3.396   5.672
 1424SOL    HW2 6170   5.063   3.382   5.821
 1425SOL     OW 6171  13.644  14.716   2.458
 1425SOL    HW1 6172  13.607  14.710   2.546
 1425SOL    HW2 6173  13.697  14.638   2.449
 1426SOL     OW 6174  14.255  12.702   9.533
 1426SOL    HW1 6175  14.208  12.694   9.616
 1426SOL    HW2 6176  14.191  12.739   9.472
 1427SOL     OW 6177   3.118   1.255  11.742
 1427SOL    HW1 6178   3.146   1.246  11.833
 1427SOL    HW2 6179   3.135   1.169  11.703
 1428SOL     OW 6180   3.756  10.989  12.503
 1428SOL    HW1 6181   3.762  10.896  12.483
 1428SOL    HW2 6182   3.736  10.992  12.597
 1429SOL     OW 6183   8.131   4.143  10.109
 1429SOL    HW1 6184   8.109   4.215  10.169
 1429SOL    HW2 6185   8.061   4.080  10.120
 1430SOL     OW 6186   0.981  14.332   2.064
 1430SOL    HW1 6187   0.951  14.293   2.146
 1430SOL    HW2 6188   1.067  14.293   2.049
 1431SOL     OW 6189   2.806   1.313   3.081
 1431SOL    HW1 6190   2.786   1.247   3.015
 1431SOL    HW2 6191   2.823   1.393   3.032
 1432SOL     OW 6192  10.506   3.707   0.341
 1432SOL    HW1 6193  10.421   3.667   0.358
 1432SOL    HW2 6194  10.545   3.720   0.428
 1433SOL     OW 6195  13.255  12.427  12.477
 1433SOL    HW1 6196  13.293  12.461  12.558
 1433SOL    HW2 6197  13.293  12.340  12.466
 1434SOL     OW 6198   2.698  12.550  11.336
 1434SOL    HW1 6199   2.753  12.628  11.326
 1434SOL    HW2 6200   2.747  12.480  11.292
 1435SOL     OW 6201   6.155  11.963   5.563
 1435SOL    HW1 6202   6.136  12.014   5.642
 1435SOL    HW2 6203   6.208  11.889   5.594
 1436SOL     OW 6204  12.809   3.761  12.709
 1436SOL    HW1 6205  12.832   3.753  12.802
 1436SOL    HW2 6206  12.803   3.670  12.678
 1437SOL     OW 6207   7.588  13.845   3.237
 1437SOL    HW1 6208   7.517  13.809   3.184
 1437SOL    HW2 6209   7.621  13.919   3.185
 1438SOL     OW 6210   5.603   5.317   6.541
 1438SOL    HW1 6211   5.596   5.408   6.572
 1438SOL    HW2 6212   5.672   5.279   6.595
 1439SOL     OW 6213   7.125   3.464   7.659
 1439SOL    HW1 6214   7.130   3.414   7.578
 1439SOL    HW2 6215   7.044   3.434   7.701
 1440SOL     OW 6216   7.776   9.330   3.954
 1440SOL    HW1 6217   7.705   9.360   3.899
 1440SOL    HW2 6218   7.818   9.260   3.903
 1441SOL     OW 6219   7.560   6.970   9.703
 1441SOL    HW1 6220   7.568   7.066   9.701
 1441SOL    HW2 6221   7.476   6.952   9.661
 1442SOL     OW 6222   4.236  10.347   2.574
 1442SOL    HW1 6223   4.141  10.357   2.571
 1442SOL    HW2 6224   4.251  10.274   2.634
 1443SOL     OW 6225   2.541   3.240  10.476
 1443SOL    HW1 6226   2.512   3.325  10.508
 1443SOL    HW2 6227   2.508   3.177  10.540
 1444SOL     OW 6228   7.502   9.471  13.070
 1444SOL    HW1 6229   7.591   9.441  13.052
 1444SOL    HW2 6230   7.482   9.436  13.157
 1445SOL     OW 6231  13.156   7.469   2.191
 1445SOL    HW1 6232  13.085   7.436   2.136
 1445SOL    HW2 6233  13.164   7.403   2.260
 1446SOL     OW 6234  14.379  14.501   3.308
 1446SOL    HW1 6235  14.357  14.527   3.219
 1446SOL    HW2 6236  14.355  14.576   3.363
 1447SOL     OW 6237   6.147   6.150   3.593
 1447SOL    HW1 6238   6.190   6.070   3.563
 1447SOL    HW2 6239   6.219   6.210   3.615
 1448SOL     OW 6240  11.079   7.743   6.250
 1448SOL    HW1 6241  11.133   7.679   6.296
 1448SOL    HW2 6242  10.991   7.706   6.252
 1449SOL     OW 6243  10.801   5.027   8.280
 1449SOL    HW1 6244  10.819   5.052   8.189
 1449SOL    HW2 6245  10.886   5.002   8.316
 1450SOL     OW 6246   4.099   0.655   6.646
 1450SOL    HW1 6247   4.114   0.605   6.727
 1450SOL    HW2 6248   4.184   0.657   6.603
 1451SOL     OW 6249   4.976   8.582   8.290
 1451SOL    HW1 6250   5.006   8.556   8.202
 1451SOL    HW2 6251   5.034   8.536   8.349
 1452SOL     OW 6252  11.276   5.732   9.639
 1452SOL    HW1 6253  11.264   5.794   9.711
 1452SOL    HW2 6254  11.206   5.668   9.650
 1453SOL     OW 6255   0.900   7.782   4.390
 1453SOL    HW1 6256   0.813   7.743   4.376
 1453SOL    HW2 6257   0.891   7.872   4.359
 1454SOL     OW 6258   6.911   9.853   2.859
 1454SOL    HW1 6259   6.947   9.766   2.875
 1454SOL    HW2 6260   6.974   9.894   2.799
 1455SOL     OW 6261   6.946  10.121   0.131
 1455SOL    HW1 6262   6.911  10.193   0.182
 1455SOL    HW2 6263   6.878  10.101   0.067
 1456SOL     OW 6264  10.116   6.003  12.112
 1456SOL    HW1 6265  10.036   6.044  12.080
 1456SOL    HW2 6266  10.152   6.065  12.175
 1457SOL     OW 6267   3.700   8.567  11.583
 1457SOL    HW1 6268   3.716   8.544  11.491
 1457SOL    HW2 6269   3.630   8.632  11.580
 1458SOL     OW 6270   9.180   0.625   6.645
 1458SOL    HW1 6271   9.221   0.676   6.715
 1458SOL    HW2 6272   9.125   0.688   6.598
 1459SOL     OW 6273   7.698   1.720  11.223
 1459SOL    HW1 6274   7.623   1.669  11.254
 1459SOL    HW2 6275   7.672   1.811  11.238
 1460SOL     OW 6276   4.530   8.494  13.245
 1460SOL    HW1 6277   4.617   8.531  13.231
 1460SOL    HW2 6278   4.477   8.530  13.174
 1461SOL     OW 6279  13.245   1.839  13.271
 1461SOL    HW1 6280  13.269   1.833  13.363
 1461SOL    HW2 6281  13.313   1.791  13.225
 1462SOL     OW 6282   4.790   9.815   3.124
 1462SOL    HW1 6283   4.881   9.825   3.098
 1462SOL    HW2 6284   4.779   9.873   3.199
 1463SOL     OW 6285   6.115   2.401   1.093
 1463SOL    HW1 6286   6.200   2.358   1.086
 1463SOL    HW2 6287   6.095   2.402   1.186
 1464SOL     OW 6288  12.660   7.522  14.791
 1464SOL    HW1 6289  12.721   7.594  14.777
 1464SOL    HW2 6290  12.707   7.460  14.846
 1465SOL     OW 6291  10.234  13.081   5.353
 1465SOL    HW1 6292  10.302  13.099   5.288
 1465SOL    HW2 6293  10.279  13.034   5.423
 1466SOL     OW 6294   5.733   7.210  12.534
 1466SOL    HW1 6295   5.680   7.271  12.587
 1466SOL    HW2 6296   5.802   7.182  12.594
 1467SOL     OW 6297   4.405   3.612   4.937
 1467SOL    HW1 6298   4.498   3.613   4.961
 1467SOL    HW2 6299   4.399   3.552   4.863
 1468SOL     OW 6300  13.281   8.578  12.558
 1468SOL    HW1 6301  13.223   8.606  12.487
 1468SOL    HW2 6302  13.270   8.646  12.625
 1469SOL     OW 6303   3.217   4.321   8.399
 1469SOL    HW1 6304   3.188   4.393   8.455
 1469SOL    HW2 6305   3.157   4.325   8.324
 1470SOL     OW 6306  14.125   5.186  13.372
 1470SOL    HW1 6307  14.090   5.118  13.315
 1470SOL    HW2 6308  14.218   5.188  13.352
 1471SOL     OW 6309   7.720  10.378  10.091
 1471SOL    HW1 6310   7.657  10.394  10.161
 1471SOL    HW2 6311   7.785  10.447  10.100
 1472SOL     OW 6312   4.284   0.777  13.629
 1472SOL    HW1 6313   4.364   0.772  13.682
 1472SOL    HW2 6314   4.230   0.704  13.660
 1473SOL     OW 6315  14.471   6.334   4.212
 1473SOL    HW1 6316  14.438   6.244   4.206
 1473SOL    HW2 6317  14.524   6.334   4.292
 1474SOL     OW 6318  13.750  12.271   5.193
 1474SOL    HW1 6319  13.769  12.184   5.158
 1474SOL    HW2 6320  13.715  12.319   5.118
 1475SOL     OW 6321   4.694  13.267   6.710
 1475SOL    HW1 6322   4.670  13.318   6.633
 1475SOL    HW2 6323   4.635  13.297   6.779
 1476SOL     OW 6324   2.444   4.621  12.039
 1476SOL    HW1 6325   2.444   4.716  12.049
 1476SOL    HW2 6326   2.528   4.602  11.996
 1477SOL     OW 6327   9.884   7.754   8.752
 1477SOL    HW1 6328   9.962   7.785   8.798
 1477SOL    HW2 6329   9.916   7.733   8.664
 1478SOL     OW 6330  12.116   3.159  10.129
 1478SOL    HW1 6331  12.165   3.227  10.175
 1478SOL    HW2 6332  12.119   3.186  10.037
 1479SOL     OW 6333  13.783   6.788   0.851
 1479SOL    HW1 6334  13.842   6.715   0.834
 1479SOL    HW2 6335  13.734   6.799   0.769
 1480SOL     OW 6336   0.650   8.045   8.059
 1480SOL    HW1 6337   0.617   7.978   8.119
 1480SOL    HW2 6338   0.694   8.108   8.116
 1481SOL     OW 6339   1.571  10.911  11.602
 1481SOL    HW1 6340   1.483  10.927  11.570
 1481SOL    HW2 6341   1.622  10.890  11.524
 1482SOL     OW 6342  14.530   1.028  12.027
 1482SOL    HW1 6343  14.583   0.953  12.052
 1482SOL    HW2 6344  14.480   1.050  12.105
 1483SOL     OW 6345   8.727   3.775   9.639
 1483SOL    HW1 6346   8.679   3.771   9.556
 1483SOL    HW2 6347   8.660   3.763   9.706
 1484SOL     OW 6348   1.902   8.312  13.784
 1484SOL    HW1 6349   1.991   8.292  13.755
 1484SOL    HW2 6350   1.889   8.404  13.759
 1485SOL     OW 6351   7.687  11.142  14.505
 1485SOL    HW1 6352   7.759  11.086  14.532
 1485SOL    HW2 6353   7.654  11.180  14.587
 1486SOL     OW 6354  13.648   2.114  10.838
 1486SOL    HW1 6355  13.581   2.058  10.800
 1486SOL    HW2 6356  13.713   2.124  10.768
 1487SOL     OW 6357   6.421  11.457   6.354
 1487SOL    HW1 6358   6.392  11.365   6.348
 1487SOL    HW2 6359   6.355  11.506   6.306
 1488SOL     OW 6360  12.058   4.239   7.503
 1488SOL    HW1 6361  12.124   4.292   7.548
 1488SOL    HW2 6362  12.108   4.190   7.438
 1489SOL     OW 6363   0.529   4.182   1.667
 1489SOL    HW1 6364   0.474   4.219   1.736
 1489SOL    HW2 6365   0.619   4.206   1.692
 1490SOL     OW 6366  10.655   7.038   2.669
 1490SOL    HW1 6367  10.748   7.024   2.688
 1490SOL    HW2 6368  10.627   7.102   2.736
 1491SOL     OW 6369   0.619   7.392   5.522
 1491SOL    HW1 6370   0.551   7.414   5.586
 1491SOL    HW2 6371   0.682   7.463   5.528
 1492SOL     OW 6372   4.821   2.685  14.633
 1492SOL    HW1 6373   4.784   2.615  14.686
 1492SOL    HW2 6374   4.763   2.760  14.646
 1493SOL     OW 6375   5.840   3.733  11.232
 1493SOL    HW1 6376   5.923   3.768  11.266
 1493SOL    HW2 6377   5.820   3.790  11.157
 1494SOL     OW 6378  14.451   6.627   3.668
 1494SOL    HW1 6379  14.381   6.563   3.653
 1494SOL    HW2 6380  14.515   6.580   3.722
 1495SOL     OW 6381  12.968   0.074   5.522
 1495SOL    HW1 6382  13.031   0.104   5.587
 1495SOL    HW2 6383  12.904   0.024   5.573
 1496SOL     OW 6384   9.293  12.783   8.121
 1496SOL    HW1 6385   9.290  12.755   8.030
 1496SOL    HW2 6386   9.201  12.800   8.144
 1497SOL     OW 6387   2.579   8.184   2.064
 1497SOL    HW1 6388   2.526   8.116   2.108
 1497SOL    HW2 6389   2.653   8.198   2.122
 1498SOL     OW 6390  14.332  11.899   8.385
 1498SOL    HW1 6391  14.362  11.902   8.476
 1498SOL    HW2 6392  14.310  11.807   8.369
 1499SOL     OW 6393  11.623  13.137   2.560
 1499SOL    HW1 6394  11.680  13.210   2.535
 1499SOL    HW2 6395  11.639  13.070   2.493
 1500SOL     OW 6396   0.781   2.314  13.813
 1500SOL    HW1 6397   0.739   2.373  13.751
 1500SOL    HW2 6398   0.718   2.307  13.885
 1501SOL     OW 6399  10.801   8.554   4.416
 1501SOL    HW1 6400  10.727   8.531   4.472
 1501SOL    HW2 6401  10.779   8.641   4.383
 1502SOL     OW 6402   2.348  14.134   5.666
 1502SOL    HW1 6403   2.356  14.130   5.761
 1502SOL    HW2 6404   2.261  14.172   5.651
 1503SOL     OW 6405  14.831   8.917   1.934
 1503SOL    HW1 6406   0.028   8.965   1.966
 1503SOL    HW2 6407  14.780   8.984   1.888
 1504SOL     OW 6408   7.216   1.679   2.541
 1504SOL    HW1 6409   7.172   1.712   2.619
 1504SOL    HW2 6410   7.298   1.643   2.573
 1505SOL     OW 6411   4.341   5.192   9.548
 1505SOL    HW1 6412   4.368   5.206   9.458
 1505SOL    HW2 6413   4.252   5.228   9.553
 1506SOL     OW 6414  12.672   8.097   0.454
 1506SOL    HW1 6415  12.756   8.119   0.412
 1506SOL    HW2 6416  12.615   8.072   0.381
 1507SOL     OW 6417  13.393  13.967   5.164
 1507SOL    HW1 6418  13.471  13.921   5.196
 1507SOL    HW2 6419  13.428  14.048   5.126
 1508SOL     OW 6420   3.100  12.455   9.122
 1508SOL    HW1 6421   3.081  12.378   9.069
 1508SOL    HW2 6422   3.024  12.464   9.180
 1509SOL     OW 6423   9.715   2.174   5.974
 1509SOL    HW1 6424   9.792   2.119   5.987
 1509SOL    HW2 6425   9.697   2.211   6.061
 1510SOL     OW 6426   3.970   7.599  10.715
 1510SOL    HW1 6427   3.986   7.539  10.642
 1510SOL    HW2 6428   3.965   7.686  10.673
 1511SOL     OW 6429   6.729  12.687   6.111
 1511SOL    HW1 6430   6.635  12.682   6.124
 1511SOL    HW2 6431   6.752  12.604   6.067
 1512SOL     OW 6432   9.049   3.159   8.934
 1512SOL    HW1 6433   8.964   3.204   8.937
 1512SOL    HW2 6434   9.051   3.108   9.016
 1513SOL     OW 6435  12.059   3.715   5.913
 1513SOL    HW1 6436  11.976   3.671   5.931
 1513SOL    HW2 6437  12.097   3.666   5.840
 1514SOL     OW 6438   5.234   7.532  12.100
 1514SOL    HW1 6439   5.298   7.471  12.062
 1514SOL    HW2 6440   5.186   7.567  12.024
 1515SOL     OW 6441  11.543  13.790  12.323
 1515SOL    HW1 6442  11.502  13.877  12.316
 1515SOL    HW2 6443  11.470  13.729  12.332
 1516SOL     OW 6444   8.716   0.494  14.503
 1516SOL    HW1 6445   8.797   0.493  14.555
 1516SOL    HW2 6446   8.672   0.412  14.527
 1517SOL     OW 6447   2.443  13.971   3.339
 1517SOL    HW1 6448   2.404  13.919   3.269
 1517SOL    HW2 6449   2.497  13.910   3.389
 1518SOL     OW 6450   1.698   0.979  13.634
 1518SOL    HW1 6451   1.738   0.909  13.582
 1518SOL    HW2 6452   1.669   0.934  13.714
 1519SOL     OW 6453  11.912  14.342   6.334
 1519SOL    HW1 6454  11.993  14.393   6.337
 1519SOL    HW2 6455  11.939  14.256   6.303
 1520SOL     OW 6456  14.529   0.570   2.799
 1520SOL    HW1 6457  14.568   0.537   2.718
 1520SOL    HW2 6458  14.604   0.579   2.859
 1521SOL     OW 6459   3.241   0.448   3.371
 1521SOL    HW1 6460   3.266   0.411   3.456
 1521SOL    HW2 6461   3.325   0.463   3.326
 1522SOL     OW 6462  12.057   3.249   2.525
 1522SOL    HW1 6463  12.147   3.241   2.555
 1522SOL    HW2 6464  12.005   3.220   2.600
 1523SOL     OW 6465   8.712   4.824  10.233
 1523SOL    HW1 6466   8.650   4.866  10.174
 1523SOL    HW2 6467   8.693   4.731  10.227
 1524SOL     OW 6468   1.639  12.544   0.914
 1524SOL    HW1 6469   1.710  12.564   0.853
 1524SOL    HW2 6470   1.625  12.626   0.962
 1525SOL     OW 6471   4.876  11.515  14.230
 1525SOL    HW1 6472   4.819  11.533  14.305
 1525SOL    HW2 6473   4.960  11.490  14.270
 1526SOL     OW 6474   4.710   4.329  11.619
 1526SOL    HW1 6475   4.745   4.354  11.705
 1526SOL    HW2 6476   4.779   4.353  11.557
 1527SOL     OW 6477  12.841  13.037   1.626
 1527SOL    HW1 6478  12.835  13.131   1.644
 1527SOL    HW2 6479  12.921  13.028   1.574
 1528SOL     OW 6480  13.730   0.946   9.677
 1528SOL    HW1 6481  13.812   0.943   9.628
 1528SOL    HW2 6482  13.663   0.920   9.613
 1529SOL     OW 6483  11.755   6.669  11.443
 1529SOL    HW1 6484  11.786   6.646  11.355
 1529SOL    HW2 6485  11.664   6.696  11.430
 1530SOL     OW 6486  10.574   0.359   1.106
 1530SOL    HW1 6487  10.479   0.367   1.117
 1530SOL    HW2 6488  10.585   0.331   1.015
 1531SOL     OW 6489   0.156   8.590   9.550
 1531SOL    HW1 6490   0.161   8.582   9.454
 1531SOL    HW2 6491   0.218   8.659   9.571
 1532SOL     OW 6492   8.244   7.231   9.825
 1532SOL    HW1 6493   8.217   7.317   9.856
 1532SOL    HW2 6494   8.176   7.205   9.763
 1533SOL     OW 6495   0.955   9.747   8.980
 1533SOL    HW1 6496   1.020   9.677   8.985
 1533SOL    HW2 6497   0.897   9.721   8.908
 1534SOL     OW 6498  10.996  11.324   1.643
 1534SOL    HW1 6499  10.915  11.293   1.603
 1534SOL    HW2 6500  10.990  11.298   1.734
 1535SOL     OW 6501   6.100  12.058   7.305
 1535SOL    HW1 6502   6.163  12.101   7.247
 1535SOL    HW2 6503   6.084  12.121   7.375
 1536SOL     OW 6504   3.830   2.912  11.044
 1536SOL    HW1 6505   3.855   2.998  11.009
 1536SOL    HW2 6506   3.876   2.907  11.128
 1537SOL     OW 6507   9.894   5.706   3.769
 1537SOL    HW1 6508   9.868   5.691   3.678
 1537SOL    HW2 6509   9.850   5.638   3.818
 1538SOL     OW 6510   3.790   0.766   1.993
 1538SOL    HW1 6511   3.864   0.804   2.041
 1538SOL    HW2 6512   3.745   0.711   2.058
 1539SOL     OW 6513   5.065  12.399  12.691
 1539SOL    HW1 6514   5.015  12.480  12.683
 1539SOL    HW2 6515   5.146  12.425  12.735
 1540SOL     OW 6516  10.786  10.243   4.724
 1540SOL    HW1 6517  10.869  10.197   4.743
 1540SOL    HW2 6518  10.719  10.179   4.745
 1541SOL     OW 6519  14.552   0.592   8.041
 1541SOL    HW1 6520  14.575   0.543   8.119
 1541SOL    HW2 6521  14.586   0.680   8.057
 1542SOL     OW 6522   2.984   3.186   9.680
 1542SOL    HW1 6523   3.049   3.193   9.610
 1542SOL    HW2 6524   3.023   3.233   9.754
 1543SOL     OW 6525  13.051  12.001   8.696
 1543SOL    HW1 6526  13.140  11.965   8.703
 1543SOL    HW2 6527  13.053  12.080   8.751
 1544SOL     OW 6528  14.479   6.854   9.786
 1544SOL    HW1 6529  14.436   6.850   9.701
 1544SOL    HW2 6530  14.440   6.930   9.830
 1545SOL     OW 6531   8.142   4.004   0.912
 1545SOL    HW1 6532   8.218   4.026   0.966
 1545SOL    HW2 6533   8.070   3.995   0.974
 1546SOL     OW 6534   4.902   9.312   7.037
 1546SOL    HW1 6535   4.844   9.286   6.965
 1546SOL    HW2 6536   4.894   9.407   7.040
 1547SOL     OW 6537   9.415   7.830   3.125
 1547SOL    HW1 6538   9.472   7.906   3.135
 1547SOL    HW2 6539   9.328   7.866   3.112
 1548SOL     OW 6540   1.489  12.666   9.398
 1548SOL    HW1 6541   1.513  12.743   9.347
 1548SOL    HW2 6542   1.437  12.701   9.470
 1549SOL     OW 6543   8.001   1.929   3.077
 1549SOL    HW1 6544   7.949   1.901   3.152
 1549SOL    HW2 6545   7.935   1.950   3.010
 1550SOL     OW 6546   5.302   9.973  11.222
 1550SOL    HW1 6547   5.244   9.925  11.164
 1550SOL    HW2 6548   5.269   9.956  11.310
 1551SOL     OW 6549   4.344  13.756   4.149
 1551SOL    HW1 6550   4.304  13.841   4.168
 1551SOL    HW2 6551   4.305  13.729   4.066
 1552SOL     OW 6552   3.864   3.202   5.463
 1552SOL    HW1 6553   3.903   3.284   5.433
 1552SOL    HW2 6554   3.862   3.147   5.385
 1553SOL     OW 6555   7.183   6.745   6.689
 1553SOL    HW1 6556   7.089   6.743   6.710
 1553SOL    HW2 6557   7.205   6.838   6.687
 1554SOL     OW 6558   0.512   5.171  13.465
 1554SOL    HW1 6559   0.564   5.111  13.517
 1554SOL    HW2 6560   0.570   5.245  13.448
 1555SOL     OW 6561   1.358   5.637   7.644
 1555SOL    HW1 6562   1.374   5.732   7.647
 1555SOL    HW2 6563   1.271   5.626   7.681
 1556SOL     OW 6564  13.564  11.169  13.086
 1556SOL    HW1 6565  13.487  11.223  13.103
 1556SOL    HW2 6566  13.563  11.154  12.992
 1557SOL     OW 6567  13.063   7.666  13.783
 1557SOL    HW1 6568  13.056   7.594  13.721
 1557SOL    HW2 6569  13.050   7.626  13.869
 1558SOL     OW 6570   8.741  13.726   3.105
 1558SOL    HW1 6571   8.712  13.691   3.021
 1558SOL    HW2 6572   8.803  13.795   3.082
 1559SOL     OW 6573   4.632   1.834  11.642
 1559SOL    HW1 6574   4.555   1.844  11.586
 1559SOL    HW2 6575   4.605   1.872  11.726
 1560SOL     OW 6576  13.006   6.446  14.505
 1560SOL    HW1 6577  12.978   6.356  14.485
 1560SOL    HW2 6578  13.034   6.443  14.597
 1561SOL     OW 6579   6.822   9.900  14.038
 1561SOL    HW1 6580   6.848   9.831  14.099
 1561SOL    HW2 6581   6.787   9.969  14.094
 1562SOL     OW 6582   3.236  14.704   3.234
 1562SOL    HW1 6583   3.318  14.725   3.279
 1562SOL    HW2 6584   3.252  14.619   3.193
 1563SOL     OW 6585  12.857   3.152   8.133
 1563SOL    HW1 6586  12.930   3.121   8.079
 1563SOL    HW2 6587  12.780   3.106   8.099
 1564SOL     OW 6588   1.658  14.121   4.205
 1564SOL    HW1 6589   1.685  14.040   4.163
 1564SOL    HW2 6590   1.563  14.125   4.190
 1565SOL     OW 6591   6.833  12.895  11.360
 1565SOL    HW1 6592   6.867  12.981  11.383
 1565SOL    HW2 6593   6.802  12.905  11.270
 1566SOL     OW 6594   8.466  14.167  10.310
 1566SOL    HW1 6595   8.556  14.140  10.329
 1566SOL    HW2 6596   8.473  14.219  10.230
 1567SOL     OW 6597   7.799   7.187   2.861
 1567SOL    HW1 6598   7.750   7.243   2.800
 1567SOL    HW2 6599   7.883   7.171   2.817
 1568SOL     OW 6600   8.709   2.151  10.043
 1568SOL    HW1 6601   8.616   2.165  10.060
 1568SOL    HW2 6602   8.735   2.224   9.988
 1569SOL     OW 6603   3.600   2.708   5.103
 1569SOL    HW1 6604   3.533   2.753   5.052
 1569SOL    HW2 6605   3.567   2.710   5.193
 1570SOL     OW 6606   2.733   2.918   1.058
 1570SOL    HW1 6607   2.738   2.912   1.153
 1570SOL    HW2 6608   2.799   2.857   1.026
 1571SOL     OW 6609   0.206   1.935   6.108
 1571SOL    HW1 6610   0.190   2.027   6.127
 1571SOL    HW2 6611   0.249   1.901   6.186
 1572SOL     OW 6612   7.035   6.086   3.631
 1572SOL    HW1 6613   7.065   6.062   3.719
 1572SOL    HW2 6614   6.989   6.169   3.644
 1573SOL     OW 6615  11.523   2.822   3.796
 1573SOL    HW1 6616  11.494   2.867   3.717
 1573SOL    HW2 6617  11.454   2.757   3.813
 1574SOL     OW 6618   8.428   1.989  12.546
 1574SOL    HW1 6619   8.334   1.972  12.558
 1574SOL    HW2 6620   8.459   2.018  12.632
 1575SOL     OW 6621   5.660   9.025  10.572
 1575SOL    HW1 6622   5.668   9.080  10.494
 1575SOL    HW2 6623   5.634   9.086  10.641
 1576SOL     OW 6624   6.668   1.714  11.842
 1576SOL    HW1 6625   6.732   1.785  11.845
 1576SOL    HW2 6626   6.583   1.759  11.837
 1577SOL     OW 6627   7.729  11.542  13.675
 1577SOL    HW1 6628   7.726  11.523  13.582
 1577SOL    HW2 6629   7.664  11.482  13.714
 1578SOL     OW 6630  13.077   7.388   5.973
 1578SOL    HW1 6631  13.055   7.477   5.945
 1578SOL    HW2 6632  13.050   7.385   6.065
 1579SOL     OW 6633   5.531   8.294   6.812
 1579SOL    HW1 6634   5.535   8.294   6.907
 1579SOL    HW2 6635   5.580   8.371   6.785
 1580SOL     OW 6636  13.383   3.937   3.378
 1580SOL    HW1 6637  13.310   3.880   3.400
 1580SOL    HW2 6638  13.442   3.882   3.327
 1581SOL     OW 6639   0.619   7.215   5.297
 1581SOL    HW1 6640   0.614   7.300   5.253
 1581SOL    HW2 6641   0.626   7.237   5.390
 1582SOL     OW 6642  11.072   5.992   6.975
 1582SOL    HW1 6643  11.073   5.908   6.930
 1582SOL    HW2 6644  11.140   5.984   7.043
 1583SOL     OW 6645   6.810   8.631   2.065
 1583SOL    HW1 6646   6.812   8.549   2.015
 1583SOL    HW2 6647   6.807   8.602   2.156
 1584SOL     OW 6648   4.632  11.778   2.688
 1584SOL    HW1 6649   4.693  11.796   2.617
 1584SOL    HW2 6650   4.549  11.758   2.644
 1585SOL     OW 6651   2.281   6.628   9.361
 1585SOL    HW1 6652   2.312   6.718   9.374
 1585SOL    HW2 6653   2.359   6.580   9.332
 1586SOL     OW 6654  11.659  10.844   4.036
 1586SOL    HW1 6655  11.584  10.827   3.979
 1586SOL    HW2 6656  11.673  10.938   4.028
 1587SOL     OW 6657   5.087   4.593  14.259
 1587SOL    HW1 6658   5.115   4.542  14.184
 1587SOL    HW2 6659   5.157   4.658  14.272
 1588SOL     OW 6660   0.943   4.419  14.077
 1588SOL    HW1 6661   0.915   4.504  14.044
 1588SOL    HW2 6662   0.871   4.390  14.134
 1589SOL     OW 6663  13.907   5.173   0.544
 1589SOL    HW1 6664  13.893   5.125   0.462
 1589SOL    HW2 6665  13.895   5.265   0.520
 1590SOL     OW 6666  10.121  12.590  13.688
 1590SOL    HW1 6667  10.027  12.601  13.706
 1590SOL    HW2 6668  10.129  12.599  13.593
 1591SOL     OW 6669   0.405  13.676   6.597
 1591SOL    HW1 6670   0.388  13.595   6.548
 1591SOL    HW2 6671   0.466  13.725   6.542
 1592SOL     OW 6672  10.773  13.042  11.417
 1592SOL    HW1 6673  10.700  13.020  11.475
 1592SOL    HW2 6674  10.739  13.026  11.328
 1593SOL     OW 6675   6.550   3.829  12.376
 1593SOL    HW1 6676   6.519   3.804  12.463
 1593SOL    HW2 6677   6.471   3.841  12.324
 1594SOL     OW 6678  10.452   9.353  14.146
 1594SOL    HW1 6679  10.490   9.439  14.133
 1594SOL    HW2 6680  10.499   9.317  14.221
 1595SOL     OW 6681   2.302   4.505  13.990
 1595SOL    HW1 6682   2.245   4.441  14.033
 1595SOL    HW2 6683   2.260   4.589  14.006
 1596SOL     OW 6684   3.742   3.531  12.905
 1596SOL    HW1 6685   3.680   3.598  12.874
 1596SOL    HW2 6686   3.689   3.452  12.914
 1597SOL     OW 6687   5.054   7.453  10.328
 1597SOL    HW1 6688   4.985   7.516  10.348
 1597SOL    HW2 6689   5.009   7.382  10.283
 1598SOL     OW 6690   0.840   5.752  10.167
 1598SOL    HW1 6691   0.779   5.804  10.220
 1598SOL    HW2 6692   0.791   5.673  10.144
 1599SOL     OW 6693  10.945   3.703   1.164
 1599SOL    HW1 6694  10.944   3.743   1.077
 1599SOL    HW2 6695  10.865   3.650   1.167
 1600SOL     OW 6696   0.102   4.312   4.215
 1600SOL    HW1 6697   0.034   4.374   4.242
 1600SOL    HW2 6698   0.175   4.331   4.274
 1601SOL     OW 6699  14.038  12.536   1.858
 1601SOL    HW1 6700  14.103  12.604   1.839
 1601SOL    HW2 6701  14.046  12.474   1.786
 1602SOL     OW 6702  11.493   3.863   2.686
 1602SOL    HW1 6703  11.465   3.946   2.725
 1602SOL    HW2 6704  11.547   3.822   2.754
 1603SOL     OW 6705  11.220   0.567   3.780
 1603SOL    HW1 6706  11.247   0.627   3.710
 1603SOL    HW2 6707  11.221   0.621   3.859
 1604SOL     OW 6708   7.703   7.645   6.834
 1604SOL    HW1 6709   7.609   7.661   6.844
 1604SOL    HW2 6710   7.735   7.722   6.786
 1605SOL     OW 6711   1.272   8.403   1.779
 1605SOL    HW1 6712   1.226   8.394   1.862
 1605SOL    HW2 6713   1.218   8.463   1.727
 1606SOL     OW 6714   0.639   1.360   0.931
 1606SOL    HW1 6715   0.659   1.452   0.916
 1606SOL    HW2 6716   0.559   1.361   0.984
 1607SOL     OW 6717   8.508  11.932   4.866
 1607SOL    HW1 6718   8.518  11.881   4.946
 1607SOL    HW2 6719   8.588  11.985   4.861
 1608SOL     OW 6720  13.438   3.687   0.137
 1608SOL    HW1 6721  13.436   3.669   0.043
 1608SOL    HW2 6722  13.508   3.752   0.147
 1609SOL     OW 6723   0.478   5.306   6.251
 1609SOL    HW1 6724   0.503   5.355   6.173
 1609SOL    HW2 6725   0.560   5.295   6.299
 1610SOL     OW 6726  12.541   4.954   8.924
 1610SOL    HW1 6727  12.465   4.913   8.965
 1610SOL    HW2 6728  12.616   4.915   8.968
 1611SOL     OW 6729   8.895   5.506  14.659
 1611SOL    HW1 6730   8.926   5.456  14.734
 1611SOL    HW2 6731   8.800   5.493  14.660
 1612SOL     OW 6732   6.870  11.269  13.814
 1612SOL    HW1 6733   6.792  11.325  13.812
 1612SOL    HW2 6734   6.854  11.205  13.744
 1613SOL     OW 6735   8.832   4.517   3.800
 1613SOL    HW1 6736   8.843   4.479   3.713
 1613SOL    HW2 6737   8.919   4.550   3.824
 1614SOL     OW 6738   7.451  12.466   8.298
 1614SOL    HW1 6739   7.540  12.465   8.332
 1614SOL    HW2 6740   7.399  12.424   8.367
 1615SOL     OW 6741   1.155  14.159   0.010
 1615SOL    HW1 6742   1.195  14.238   0.045
 1615SOL    HW2 6743   1.065  14.162   0.041
 1616SOL     OW 6744   7.460  11.766  10.511
 1616SOL    HW1 6745   7.406  11.823  10.567
 1616SOL    HW2 6746   7.544  11.810  10.506
 1617SOL     OW 6747   6.732   4.475  13.710
 1617SOL    HW1 6748   6.682   4.492  13.630
 1617SOL    HW2 6749   6.724   4.380  13.724
 1618SOL     OW 6750  11.285   8.084   2.659
 1618SOL    HW1 6751  11.353   8.061   2.721
 1618SOL    HW2 6752  11.304   8.174   2.634
 1619SOL     OW 6753  12.792   1.026   2.880
 1619SOL    HW1 6754  12.885   1.003   2.868
 1619SOL    HW2 6755  12.778   1.102   2.824
 1620SOL     OW 6756   2.220   7.890  12.330
 1620SOL    HW1 6757   2.295   7.841  12.297
 1620SOL    HW2 6758   2.243   7.912  12.420
 1621SOL     OW 6759   6.165   9.936   9.429
 1621SOL    HW1 6760   6.153  10.026   9.460
 1621SOL    HW2 6761   6.076   9.904   9.414
 1622SOL     OW 6762   1.957   7.841  12.896
 1622SOL    HW1 6763   1.974   7.912  12.834
 1622SOL    HW2 6764   1.863   7.848  12.915
 1623SOL     OW 6765  14.014   8.829   0.073
 1623SOL    HW1 6766  13.968   8.885   0.136
 1623SOL    HW2 6767  13.983   8.858  14.868
 1624SOL     OW 6768   1.987  12.411   1.185
 1624SOL    HW1 6769   2.002  12.317   1.175
 1624SOL    HW2 6770   2.039  12.436   1.262
 1625SOL     OW 6771   3.269   4.082  12.540
 1625SOL    HW1 6772   3.297   4.167  12.574
 1625SOL    HW2 6773   3.350   4.036  12.517
 1626SOL     OW 6774  12.255   9.037  13.206
 1626SOL    HW1 6775  12.186   9.098  13.182
 1626SOL    HW2 6776  12.331   9.064  13.155
 1627SOL     OW 6777   5.746   9.975   0.635
 1627SOL    HW1 6778   5.793  10.052   0.666
 1627SOL    HW2 6779   5.752   9.979   0.540
 1628SOL     OW 6780   1.310   2.389   6.139
 1628SOL    HW1 6781   1.379   2.454   6.133
 1628SOL    HW2 6782   1.240   2.433   6.188
 1629SOL     OW 6783   9.157  14.788  11.637
 1629SOL    HW1 6784   9.092  14.799  11.568
 1629SOL    HW2 6785   9.107  14.790  11.718
 1630SOL     OW 6786   8.110   7.567   2.889
 1630SOL    HW1 6787   8.142   7.646   2.847
 1630SOL    HW2 6788   8.066   7.597   2.968
 1631SOL     OW 6789  11.011  11.933  11.116
 1631SOL    HW1 6790  10.952  11.876  11.067
 1631SOL    HW2 6791  10.954  11.998  11.157
 1632SOL     OW 6792   3.089  10.103  13.143
 1632SOL    HW1 6793   3.155  10.169  13.165
 1632SOL    HW2 6794   3.013  10.153  13.116
 1633SOL     OW 6795   8.418  13.759   7.849
 1633SOL    HW1 6796   8.329  13.757   7.884
 1633SOL    HW2 6797   8.457  13.837   7.889
 1634SOL     OW 6798   9.606   4.959   9.162
 1634SOL    HW1 6799   9.655   4.877   9.157
 1634SOL    HW2 6800   9.665   5.024   9.125
 1635SOL     OW 6801  12.409   8.070   9.366
 1635SOL    HW1 6802  12.359   8.025   9.297
 1635SOL    HW2 6803  12.386   8.024   9.447
 1636SOL     OW 6804   9.035  11.732  14.410
 1636SOL    HW1 6805   8.961  11.674  14.393
 1636SOL    HW2 6806   9.024  11.760  14.501
 1637SOL     OW 6807  13.407   1.138  10.377
 1637SOL    HW1 6808  13.338   1.151  10.443
 1637SOL    HW2 6809  13.374   1.184  10.299
 1638SOL     OW 6810   0.905  13.530   9.485
 1638SOL    HW1 6811   0.879  13.557   9.573
 1638SOL    HW2 6812   0.961  13.601   9.453
 1639SOL     OW 6813   0.769  11.112  11.909
 1639SOL    HW1 6814   0.703  11.112  11.977
 1639SOL    HW2 6815   0.849  11.142  11.952
 1640SOL     OW 6816  14.396   2.172   8.667
 1640SOL    HW1 6817  14.368   2.096   8.719
 1640SOL    HW2 6818  14.462   2.216   8.721
 1641SOL     OW 6819   3.455   6.817  14.877
 1641SOL    HW1 6820   3.376   6.769  14.852
 1641SOL    HW2 6821   3.446   6.901  14.833
 1642SOL     OW 6822   0.141   2.941   8.071
 1642SOL    HW1 6823   0.068   2.987   8.031
 1642SOL    HW2 6824   0.213   2.952   8.008
 1643SOL     OW 6825   0.294   2.923   7.868
 1643SOL    HW1 6826   0.232   2.861   7.829
 1643SOL    HW2 6827   0.320   2.979   7.795
 1644SOL     OW 6828   4.777  12.381  12.341
 1644SOL    HW1 6829   4.730  12.319  12.397
 1644SOL    HW2 6830   4.743  12.467  12.366
 1645SOL     OW 6831   5.080  13.741  14.709
 1645SOL    HW1 6832   4.996  13.712  14.746
 1645SOL    HW2 6833   5.099  13.823  14.753
 1646SOL     OW 6834  10.036  14.600   7.752
 1646SOL    HW1 6835  10.082  14.677   7.786
 1646SOL    HW2 6836  10.070  14.588   7.664
 1647SOL     OW 6837   0.154  11.751  14.123
 1647SOL    HW1 6838   0.130  11.660  14.104
 1647SOL    HW2 6839   0.244  11.747  14.153
 1648SOL     OW 6840  13.131   9.019  10.224
 1648SOL    HW1 6841  13.115   9.026  10.318
 1648SOL    HW2 6842  13.059   9.067  10.184
 1649SOL     OW 6843   4.480  11.751  13.206
 1649SOL    HW1 6844   4.446  11.797  13.283
 1649SOL    HW2 6845   4.459  11.808  13.132
 1650SOL     OW 6846   7.062  13.002   1.595
 1650SOL    HW1 6847   7.052  12.975   1.504
 1650SOL    HW2 6848   7.018  13.087   1.599
 1651SOL     OW 6849   3.010   1.849   2.063
 1651SOL    HW1 6850   2.928   1.863   2.110
 1651SOL    HW2 6851   3.031   1.935   2.027
 1652SOL     OW 6852   4.608   5.335   0.159
 1652SOL    HW1 6853   4.557   5.414   0.140
 1652SOL    HW2 6854   4.545   5.275   0.199
 1653SOL     OW 6855  12.283   6.201   8.591
 1653SOL    HW1 6856  12.267   6.257   8.667
 1653SOL    HW2 6857  12.196   6.182   8.557
 1654SOL     OW 6858   1.121   2.115  11.324
 1654SOL    HW1 6859   1.202   2.095  11.276
 1654SOL    HW2 6860   1.083   2.189  11.278
 1655SOL     OW 6861   8.190  10.731   2.030
 1655SOL    HW1 6862   8.133  10.672   2.080
 1655SOL    HW2 6863   8.154  10.818   2.046
 1656SOL     OW 6864  11.545   0.048   8.517
 1656SOL    HW1 6865  11.457   0.017   8.493
 1656SOL    HW2 6866  11.568   0.110   8.447
 1657SOL     OW 6867   6.484   5.157   1.089
 1657SOL    HW1 6868   6.482   5.252   1.086
 1657SOL    HW2 6869   6.392   5.131   1.094
 1658SOL     OW 6870   3.861   4.519  10.719
 1658SOL    HW1 6871   3.830   4.604  10.752
 1658SOL    HW2 6872   3.912   4.541  10.641
 1659SOL     OW 6873   8.275   7.839   5.095
 1659SOL    HW1 6874   8.205   7.840   5.160
 1659SOL    HW2 6875   8.305   7.930   5.090
 1660SOL     OW 6876   3.508   5.145   2.215
 1660SOL    HW1 6877   3.586   5.162   2.267
 1660SOL    HW2 6878   3.447   5.215   2.239
 1661SOL     OW 6879  11.681   1.808  12.005
 1661SOL    HW1 6880  11.728   1.825  12.086
 1661SOL    HW2 6881  11.678   1.713  11.997
 1662SOL     OW 6882  12.524   1.999  12.309
 1662SOL    HW1 6883  12.515   1.949  12.228
 1662SOL    HW2 6884  12.514   2.090  12.283
 1663SOL     OW 6885  10.433   5.773   8.691
 1663SOL    HW1 6886  10.421   5.849   8.748
 1663SOL    HW2 6887  10.522   5.783   8.657
 1664SOL     OW 6888   5.899  11.811   4.089
 1664SOL    HW1 6889   5.867  11.880   4.030
 1664SOL    HW2 6890   5.918  11.737   4.031
 1665SOL     OW 6891  11.598  11.629  14.071
 1665SOL    HW1 6892  11.643  11.580  14.002
 1665SOL    HW2 6893  11.524  11.575  14.095
 1666SOL     OW 6894   8.113   7.019   0.585
 1666SOL    HW1 6895   8.082   6.929   0.599
 1666SOL    HW2 6896   8.207   7.010   0.572
 1667SOL     OW 6897   8.511  14.763   3.022
 1667SOL    HW1 6898   8.548  14.729   3.104
 1667SOL    HW2 6899   8.575  14.738   2.955
 1668SOL     OW 6900   8.028   7.545  13.874
 1668SOL    HW1 6901   8.112   7.564  13.832
 1668SOL    HW2 6902   7.981   7.628  13.873
 1669SOL     OW 6903  13.538  14.149  11.017
 1669SOL    HW1 6904  13.580  14.232  10.995
 1669SOL    HW2 6905  13.449  14.157  10.984
 1670SOL     OW 6906   9.547   7.258   3.069
 1670SOL    HW1 6907   9.468   7.311   3.060
 1670SOL    HW2 6908   9.582   7.281   3.155
 1671SOL     OW 6909   4.881   0.607  13.401
 1671SOL    HW1 6910   4.855   0.611  13.309
 1671SOL    HW2 6911   4.837   0.529  13.435
 1672SOL     OW 6912   5.515   0.680   0.646
 1672SOL    HW1 6913   5.543   0.589   0.643
 1672SOL    HW2 6914   5.422   0.675   0.670
 1673SOL     OW 6915  13.370  14.591  10.901
 1673SOL    HW1 6916  13.458  14.597  10.865
 1673SOL    HW2 6917  13.367  14.660  10.968
 1674SOL     OW 6918   9.426   5.421  13.926
 1674SOL    HW1 6919   9.351   5.430  13.867
 1674SOL    HW2 6920   9.447   5.511  13.951
 1675SOL     OW 6921   5.722  11.580   7.361
 1675SOL    HW1 6922   5.779  11.635   7.415
 1675SOL    HW2 6923   5.693  11.511   7.420
 1676SOL     OW 6924   4.476   4.188   0.440
 1676SOL    HW1 6925   4.506   4.277   0.460
 1676SOL    HW2 6926   4.473   4.185   0.345
 1677SOL     OW 6927   0.363  11.979   9.624
 1677SOL    HW1 6928   0.349  11.935   9.708
 1677SOL    HW2 6929   0.282  12.027   9.608
 1678SOL     OW 6930   4.013   3.349   8.598
 1678SOL    HW1 6931   3.960   3.270   8.587
 1678SOL    HW2 6932   4.098   3.317   8.629
 1679SOL     OW 6933   4.946  13.809   9.544
 1679SOL    HW1 6934   5.009  13.742   9.519
 1679SOL    HW2 6935   4.979  13.889   9.504
 1680SOL     OW 6936   2.864  10.588  12.861
 1680SOL    HW1 6937   2.816  10.648  12.918
 1680SOL    HW2 6938   2.956  10.605  12.880
 1681SOL     OW 6939  13.893   6.488  12.866
 1681SOL    HW1 6940  13.907   6.500  12.960
 1681SOL    HW2 6941  13.798   6.494  12.854
 1682SOL     OW 6942  14.583   3.112  12.250
 1682SOL    HW1 6943  14.573   3.193  12.200
 1682SOL    HW2 6944  14.499   3.067  12.241
 1683SOL     OW 6945   7.581   0.881   1.725
 1683SOL    HW1 6946   7.552   0.964   1.763
 1683SOL    HW2 6947   7.584   0.820   1.800
 1684SOL     OW 6948  11.077   1.410   1.235
 1684SOL    HW1 6949  11.043   1.490   1.275
 1684SOL    HW2 6950  10.999   1.358   1.215
 1685SOL     OW 6951   2.289  10.872   1.525
 1685SOL    HW1 6952   2.290  10.939   1.593
 1685SOL    HW2 6953   2.285  10.921   1.443
 1686SOL     OW 6954   2.901   7.737  10.961
 1686SOL    HW1 6955   2.852   7.814  10.934
 1686SOL    HW2 6956   2.884   7.673  10.892
 1687SOL     OW 6957   8.477  10.034  14.849
 1687SOL    HW1 6958   8.408  10.067  14.793
 1687SOL    HW2 6959   8.432   9.988   0.040
 1688SOL     OW 6960   5.704   4.095   7.910
 1688SOL    HW1 6961   5.724   4.010   7.951
 1688SOL    HW2 6962   5.789   4.127   7.880
 1689SOL     OW 6963  14.131  13.213   3.098
 1689SOL    HW1 6964  14.043  13.215   3.059
 1689SOL    HW2 6965  14.190  13.235   3.026
 1690SOL     OW 6966   7.322  12.187   1.317
 1690SOL    HW1 6967   7.273  12.149   1.244
 1690SOL    HW2 6968   7.278  12.155   1.395
 1691SOL     OW 6969  13.085   5.981   1.465
 1691SOL    HW1 6970  13.140   5.903   1.454
 1691SOL    HW2 6971  13.052   5.974   1.555
 1692SOL     OW 6972   2.868  13.865   4.820
 1692SOL    HW1 6973   2.902  13.851   4.908
 1692SOL    HW2 6974   2.868  13.960   4.808
 1693SOL     OW 6975   7.026   1.203   3.992
 1693SOL    HW1 6976   7.045   1.149   3.915
 1693SOL    HW2 6977   7.072   1.159   4.063
 1694SOL     OW 6978   4.712   4.618  14.584
 1694SOL    HW1 6979   4.715   4.705  14.625
 1694SOL    HW2 6980   4.646   4.626  14.516
 1695SOL     OW 6981  11.182  13.279  14.340
 1695SOL    HW1 6982  11.203  13.214  14.407
 1695SOL    HW2 6983  11.225  13.359  14.369
 1696SOL     OW 6984  10.352   0.065   3.129
 1696SOL    HW1 6985  10.440   0.057   3.091
 1696SOL    HW2 6986  10.301   0.107   3.059
 1697SOL     OW 6987   3.701  11.386  11.298
 1697SOL    HW1 6988   3.745  11.461  11.337
 1697SOL    HW2 6989   3.724  11.390  11.205
 1698SOL     OW 6990   8.729  10.902   0.289
 1698SOL    HW1 6991   8.681  10.972   0.333
 1698SOL    HW2 6992   8.661  10.842   0.258
 1699SOL     OW 6993  11.230   9.597   1.721
 1699SOL    HW1 6994  11.192   9.682   1.696
 1699SOL    HW2 6995  11.266   9.612   1.808
 1700SOL     OW 6996  10.479   7.003   4.505
 1700SOL    HW1 6997  10.427   7.060   4.561
 1700SOL    HW2 6998  10.523   7.062   4.444
 1701SOL     OW 6999   5.995  10.110   4.645
 1701SOL    HW1 7000   6.024  10.019   4.653
 1701SOL    HW2 7001   6.059  10.149   4.585
 1702SOL     OW 7002   5.037  10.474   9.244
 1702SOL    HW1 7003   5.114  10.471   9.301
 1702SOL    HW2 7004   4.972  10.522   9.295
 1703SOL     OW 7005   9.941   1.816  14.576
 1703SOL    HW1 7006   9.979   1.901  14.601
 1703SOL    HW2 7007   9.897   1.833  14.493
 1704SOL     OW 7008   7.190  11.570   6.576
 1704SOL    HW1 7009   7.189  11.482   6.615
 1704SOL    HW2 7010   7.205  11.628   6.651
 1705SOL     OW 7011   6.677  10.286   5.116
 1705SOL    HW1 7012   6.590  10.263   5.146
 1705SOL    HW2 7013   6.735  10.261   5.188
 1706SOL     OW 7014   8.210  10.721   8.896
 1706SOL    HW1 7015   8.285  10.665   8.876
 1706SOL    HW2 7016   8.199  10.775   8.818
 1707SOL     OW 7017   1.693  13.556   8.993
 1707SOL    HW1 7018   1.606  13.559   9.034
 1707SOL    HW2 7019   1.721  13.647   8.990
 1708SOL     OW 7020  13.880  12.713  11.305
 1708SOL    HW1 7021  13.967  12.745  11.326
 1708SOL    HW2 7022  13.832  12.717  11.388
 1709SOL     OW 7023   1.334   7.205   7.637
 1709SOL    HW1 7024   1.343   7.171   7.726
 1709SOL    HW2 7025   1.312   7.297   7.650
 1710SOL     OW 7026   1.288   6.950  12.915
 1710SOL    HW1 7027   1.215   6.998  12.876
 1710SOL    HW2 7028   1.294   6.870  12.864
 1711SOL     OW 7029   9.645  14.765   9.337
 1711SOL    HW1 7030   9.592  14.818   9.276
 1711SOL    HW2 7031   9.732  14.804   9.333
 1712SOL     OW 7032   8.138  11.696   1.758
 1712SOL    HW1 7033   8.194  11.642   1.813
 1712SOL    HW2 7034   8.165  11.675   1.668
 1713SOL     OW 7035   5.215   7.089  13.949
 1713SOL    HW1 7036   5.218   6.994  13.934
 1713SOL    HW2 7037   5.147   7.100  14.016
 1714SOL     OW 7038   2.417  13.741   8.969
 1714SOL    HW1 7039   2.505  13.720   8.937
 1714SOL    HW2 7040   2.358  13.687   8.915
 1715SOL     OW 7041  13.611  14.683   6.782
 1715SOL    HW1 7042  13.584  14.735   6.706
 1715SOL    HW2 7043  13.534  14.630   6.803
 1716SOL     OW 7044   8.800   3.894  13.312
 1716SOL    HW1 7045   8.773   3.964  13.371
 1716SOL    HW2 7046   8.772   3.922  13.225
 1717SOL     OW 7047   0.167   9.895   4.377
 1717SOL    HW1 7048   0.105   9.868   4.446
 1717SOL    HW2 7049   0.218   9.966   4.417
 1718SOL     OW 7050  14.065   2.779  12.432
 1718SOL    HW1 7051  14.078   2.865  12.392
 1718SOL    HW2 7052  13.971   2.773  12.448
 1719SOL     OW 7053  10.024   7.279   9.094
 1719SOL    HW1 7054  10.095   7.218   9.115
 1719SOL    HW2 7055   9.974   7.288   9.175
 1720SOL     OW 7056   6.966   9.859   5.209
 1720SOL    HW1 7057   6.884   9.809   5.207
 1720SOL    HW2 7058   7.022   9.812   5.270
 1721SOL     OW 7059   8.185   6.174   9.622
 1721SOL    HW1 7060   8.191   6.264   9.592
 1721SOL    HW2 7061   8.254   6.164   9.687
 1722SOL     OW 7062   7.258   1.329   7.917
 1722SOL    HW1 7063   7.272   1.266   7.847
 1722SOL    HW2 7064   7.218   1.278   7.987
 1723SOL     OW 7065   0.728   3.763  12.599
 1723SOL    HW1 7066   0.815   3.791  12.571
 1723SOL    HW2 7067   0.680   3.748  12.518
 1724SOL     OW 7068   4.678  12.441   7.824
 1724SOL    HW1 7069   4.594  12.401   7.804
 1724SOL    HW2 7070   4.656  12.527   7.859
 1725SOL     OW 7071  14.720   8.203   2.272
 1725SOL    HW1 7072  14.635   8.246   2.259
 1725SOL    HW2 7073  14.736   8.211   2.365
 1726SOL     OW 7074   6.862   8.698  11.333
 1726SOL    HW1 7075   6.935   8.753  11.304
 1726SOL    HW2 7076   6.885   8.610  11.306
 1727SOL     OW 7077   7.430   4.454   5.006
 1727SOL    HW1 7078   7.465   4.377   4.961
 1727SOL    HW2 7079   7.433   4.524   4.941
 1728SOL     OW 7080  10.117  10.938   2.692
 1728SOL    HW1 7081  10.070  11.000   2.636
 1728SOL    HW2 7082  10.111  10.976   2.780
 1729SOL     OW 7083   0.197   5.305  11.032
 1729SOL    HW1 7084   0.155   5.241  10.974
 1729SOL    HW2 7085   0.140   5.309  11.108
 1730SOL     OW 7086   4.928  11.620  11.247
 1730SOL    HW1 7087   4.864  11.588  11.311
 1730SOL    HW2 7088   5.002  11.560  11.255
 1731SOL     OW 7089   6.563   4.224   1.708
 1731SOL    HW1 7090   6.615   4.203   1.631
 1731SOL    HW2 7091   6.560   4.320   1.711
 1732SOL     OW 7092   7.327  14.072   9.526
 1732SOL    HW1 7093   7.311  14.081   9.620
 1732SOL    HW2 7094   7.240  14.061   9.488
 1733SOL     OW 7095   6.822  10.859  14.852
 1733SOL    HW1 7096   6.882  10.804   0.021
 1733SOL    HW2 7097   6.785  10.802  14.785
 1734SOL     OW 7098  14.879   2.597   1.784
 1734SOL    HW1 7099  14.790   2.564   1.792
 1734SOL    HW2 7100  14.880   2.643   1.700
 1735SOL     OW 7101   6.089   0.439  13.178
 1735SOL    HW1 7102   5.996   0.428  13.159
 1735SOL    HW2 7103   6.099   0.533  13.196
 1736SOL     OW 7104   7.054   0.038   9.571
 1736SOL    HW1 7105   7.090   0.107   9.627
 1736SOL    HW2 7106   7.076  14.837   9.616
 1737SOL     OW 7107  11.681   4.347   1.829
 1737SOL    HW1 7108  11.633   4.331   1.911
 1737SOL    HW2 7109  11.613   4.356   1.763
 1738SOL     OW 7110  14.604  12.232   7.638
 1738SOL    HW1 7111  14.532  12.295   7.627
 1738SOL    HW2 7112  14.681  12.287   7.653
 1739SOL     OW 7113   8.962   5.540   0.438
 1739SOL    HW1 7114   8.934   5.570   0.351
 1739SOL    HW2 7115   8.889   5.486   0.470
 1740SOL     OW 7116   9.126   7.562   3.256
 1740SOL    HW1 7117   9.190   7.493   3.273
 1740SOL    HW2 7118   9.167   7.642   3.289
 1741SOL     OW 7119   3.727   2.854   3.482
 1741SOL    HW1 7120   3.781   2.777   3.496
 1741SOL    HW2 7121   3.637   2.823   3.494
 1742SOL     OW 7122   0.657  14.574   5.858
 1742SOL    HW1 7123   0.562  14.577   5.841
 1742SOL    HW2 7124   0.679  14.663   5.884
 1743SOL     OW 7125  12.001   3.926   9.264
 1743SOL    HW1 7126  12.081   3.887   9.228
 1743SOL    HW2 7127  12.015   4.020   9.258
 1744SOL     OW 7128   3.560   9.993  10.229
 1744SOL    HW1 7129   3.480  10.039  10.256
 1744SOL    HW2 7130   3.608  10.057  10.176
 1745SOL     OW 7131   3.154   8.896   7.208
 1745SOL    HW1 7132   3.204   8.822   7.174
 1745SOL    HW2 7133   3.095   8.920   7.137
 1746SOL     OW 7134  11.287   2.793   2.216
 1746SOL    HW1 7135  11.352   2.810   2.285
 1746SOL    HW2 7136  11.203   2.798   2.261
 1747SOL     OW 7137  12.954   6.138   0.632
 1747SOL    HW1 7138  12.890   6.178   0.574
 1747SOL    HW2 7139  12.937   6.177   0.718
 1748SOL     OW 7140  13.000   3.651   9.242
 1748SOL    HW1 7141  13.062   3.612   9.182
 1748SOL    HW2 7142  12.944   3.706   9.186
 1749SOL     OW 7143   9.366  12.212   9.000
 1749SOL    HW1 7144   9.365  12.308   8.999
 1749SOL    HW2 7145   9.309  12.188   9.073
 1750SOL     OW 7146   8.631  12.004  13.532
 1750SOL    HW1 7147   8.590  12.045  13.608
 1750SOL    HW2 7148   8.704  11.954  13.568
 1751SOL     OW 7149   6.599  12.229  10.010
 1751SOL    HW1 7150   6.563  12.165   9.949
 1751SOL    HW2 7151   6.670  12.183  10.055
 1752SOL     OW 7152   0.869   3.265   0.198
 1752SOL    HW1 7153   0.876   3.177   0.163
 1752SOL    HW2 7154   0.935   3.316   0.151
 1753SOL     OW 7155   1.132   0.151   0.769
 1753SOL    HW1 7156   1.099   0.201   0.694
 1753SOL    HW2 7157   1.211   0.197   0.797
 1754SOL     OW 7158   9.445  14.351  12.965
 1754SOL    HW1 7159   9.355  14.379  12.978
 1754SOL    HW2 7160   9.451  14.267  13.012
 1755SOL     OW 7161  14.050  10.945   3.522
 1755SOL    HW1 7162  14.121  10.890   3.490
 1755SOL    HW2 7163  14.021  10.903   3.603
 1756SOL     OW 7164   6.265  14.696  12.514
 1756SOL    HW1 7165   6.200  14.706  12.445
 1756SOL    HW2 7166   6.270  14.783  12.556
 1757SOL     OW 7167   4.960  13.696  13.474
 1757SOL    HW1 7168   5.053  13.695  13.497
 1757SOL    HW2 7169   4.925  13.616  13.513
 1758SOL     OW 7170   4.013   5.007   2.028
 1758SOL    HW1 7171   3.926   5.011   2.069
 1758SOL    HW2 7172   4.030   5.098   2.002
 1759SOL     OW 7173   6.837  13.663   9.516
 1759SOL    HW1 7174   6.761  13.643   9.461
 1759SOL    HW2 7175   6.912  13.633   9.466
 1760SOL     OW 7176   6.722  13.241   8.626
 1760SOL    HW1 7177   6.708  13.146   8.631
 1760SOL    HW2 7178   6.750  13.256   8.535
 1761SOL     OW 7179   8.022  12.786   6.494
 1761SOL    HW1 7180   7.947  12.770   6.552
 1761SOL    HW2 7181   8.080  12.711   6.508
 1762SOL     OW 7182  10.650  10.976   7.641
 1762SOL    HW1 7183  10.730  10.937   7.606
 1762SOL    HW2 7184  10.582  10.910   7.628
 1763SOL     OW 7185   7.632   1.841   3.636
 1763SOL    HW1 7186   7.683   1.913   3.674
 1763SOL    HW2 7187   7.552   1.838   3.689
 1764SOL     OW 7188   2.268   8.605  12.019
 1764SOL    HW1 7189   2.209   8.581  12.090
 1764SOL    HW2 7190   2.319   8.678  12.053
 1765SOL     OW 7191  13.334   5.178   8.493
 1765SOL    HW1 7192  13.315   5.174   8.399
 1765SOL    HW2 7193  13.429   5.167   8.499
 1766SOL     OW 7194   2.821   1.480   0.560
 1766SOL    HW1 7195   2.767   1.426   0.502
 1766SOL    HW2 7196   2.911   1.459   0.534
 1767SOL     OW 7197  12.601   5.685   4.447
 1767SOL    HW1 7198  12.528   5.694   4.508
 1767SOL    HW2 7199  12.633   5.595   4.460
 1768SOL     OW 7200   5.703   9.087  13.089
 1768SOL    HW1 7201   5.698   9.161  13.149
 1768SOL    HW2 7202   5.654   9.017  13.132
 1769SOL     OW 7203   3.501   6.831   0.975
 1769SOL    HW1 7204   3.533   6.769   0.909
 1769SOL    HW2 7205   3.471   6.776   1.047
 1770SOL     OW 7206  13.427  13.740  11.147
 1770SOL    HW1 7207  13.453  13.817  11.096
 1770SOL    HW2 7208  13.476  13.748  11.228
 1771SOL     OW 7209   9.592  10.786  11.593
 1771SOL    HW1 7210   9.580  10.693  11.576
 1771SOL    HW2 7211   9.511  10.813  11.638
 1772SOL     OW 7212   8.312   2.946  13.660
 1772SOL    HW1 7213   8.300   3.015  13.595
 1772SOL    HW2 7214   8.234   2.951  13.715
 1773SOL     OW 7215  10.950   9.034   3.480
 1773SOL    HW1 7216  10.954   9.129   3.483
 1773SOL    HW2 7217  10.910   9.013   3.396
 1774SOL     OW 7218   7.136   4.513  12.058
 1774SOL    HW1 7219   7.108   4.449  12.123
 1774SOL    HW2 7220   7.160   4.460  11.981
 1775SOL     OW 7221   9.900  14.249   3.923
 1775SOL    HW1 7222   9.973  14.227   3.981
 1775SOL    HW2 7223   9.917  14.199   3.843
 1776SOL     OW 7224  13.767   4.087   6.008
 1776SOL    HW1 7225  13.815   4.022   5.957
 1776SOL    HW2 7226  13.830   4.119   6.073
 1777SOL     OW 7227   4.611   3.708  11.809
 1777SOL    HW1 7228   4.534   3.658  11.784
 1777SOL    HW2 7229   4.653   3.732  11.727
 1778SOL     OW 7230  13.237  13.129   6.400
 1778SOL    HW1 7231  13.248  13.034   6.402
 1778SOL    HW2 7232  13.308  13.159   6.343
 1779SOL     OW 7233   8.864   1.898   0.654
 1779SOL    HW1 7234   8.869   1.994   0.658
 1779SOL    HW2 7235   8.778   1.877   0.690
 1780SOL     OW 7236  13.056   8.220  10.837
 1780SOL    HW1 7237  13.016   8.294  10.790
 1780SOL    HW2 7238  13.059   8.248  10.928
 1781SOL     OW 7239   6.028   5.579   2.279
 1781SOL    HW1 7240   6.097   5.517   2.303
 1781SOL    HW2 7241   5.955   5.558   2.336
 1782SOL     OW 7242  11.761   8.068   7.251
 1782SOL    HW1 7243  11.801   8.078   7.165
 1782SOL    HW2 7244  11.679   8.118   7.246
 1783SOL     OW 7245  13.043   2.555   1.500
 1783SOL    HW1 7246  12.973   2.581   1.440
 1783SOL    HW2 7247  13.002   2.554   1.586
 1784SOL     OW 7248  13.036   4.387  10.304
 1784SOL    HW1 7249  13.045   4.357  10.214
 1784SOL    HW2 7250  13.048   4.309  10.357
 1785SOL     OW 7251   6.220   0.733  10.248
 1785SOL    HW1 7252   6.229   0.732  10.344
 1785SOL    HW2 7253   6.125   0.738  10.234
 1786SOL     OW 7254   1.021   7.286  12.299
 1786SOL    HW1 7255   1.099   7.235  12.275
 1786SOL    HW2 7256   1.025   7.364  12.244
 1787SOL     OW 7257  12.184   2.387   8.067
 1787SOL    HW1 7258  12.251   2.319   8.074
 1787SOL    HW2 7259  12.205   2.432   7.985
 1788SOL     OW 7260  10.534  11.594   2.416
 1788SOL    HW1 7261  10.567  11.552   2.496
 1788SOL    HW2 7262  10.596  11.665   2.399
 1789SOL     OW 7263   2.114  12.494   5.274
 1789SOL    HW1 7264   2.091  12.415   5.226
 1789SOL    HW2 7265   2.085  12.566   5.217
 1790SOL     OW 7266   9.372   5.353   0.815
 1790SOL    HW1 7267   9.432   5.279   0.810
 1790SOL    HW2 7268   9.398   5.410   0.742
 1791SOL     OW 7269   3.469  11.878   1.091
 1791SOL    HW1 7270   3.555  11.838   1.083
 1791SOL    HW2 7271   3.410  11.806   1.115
 1792SOL     OW 7272   8.229   0.162   2.749
 1792SOL    HW1 7273   8.169   0.229   2.782
 1792SOL    HW2 7274   8.180   0.118   2.680
 1793SOL     OW 7275   8.441   1.202   3.516
 1793SOL    HW1 7276   8.409   1.117   3.485
 1793SOL    HW2 7277   8.459   1.252   3.437
 1794SOL     OW 7278   7.166  14.552   2.913
 1794SOL    HW1 7279   7.096  14.489   2.895
 1794SOL    HW2 7280   7.160  14.616   2.843
 1795SOL     OW 7281  13.802  13.757  10.767
 1795SOL    HW1 7282  13.786  13.787  10.678
 1795SOL    HW2 7283  13.741  13.808  10.821
 1796SOL     OW 7284  12.683   2.388   6.806
 1796SOL    HW1 7285  12.750   2.361   6.744
 1796SOL    HW2 7286  12.601   2.379   6.758
 1797SOL     OW 7287   9.829  11.411   0.833
 1797SOL    HW1 7288   9.925  11.411   0.828
 1797SOL    HW2 7289   9.802  11.334   0.783
 1798SOL     OW 7290  14.540  13.816   7.230
 1798SOL    HW1 7291  14.602  13.791   7.299
 1798SOL    HW2 7292  14.537  13.912   7.234
 1799SOL     OW 7293   1.087   8.289  12.413
 1799SOL    HW1 7294   1.053   8.296  12.324
 1799SOL    HW2 7295   1.171   8.244  12.402
 1800SOL     OW 7296   6.569   1.288  13.933
 1800SOL    HW1 7297   6.536   1.261  13.847
 1800SOL    HW2 7298   6.663   1.271  13.929
 1801SOL     OW 7299  14.540  14.008   4.318
 1801SOL    HW1 7300  14.467  14.069   4.316
 1801SOL    HW2 7301  14.566  13.997   4.227
 1802SOL     OW 7302  11.249   0.465   1.830
 1802SOL    HW1 7303  11.155   0.483   1.823
 1802SOL    HW2 7304  11.272   0.420   1.749
 1803SOL     OW 7305   6.322  12.652  12.285
 1803SOL    HW1 7306   6.410  12.625  12.260
 1803SOL    HW2 7307   6.330  12.680  12.376
 1804SOL     OW 7308  10.285   8.711  13.940
 1804SOL    HW1 7309  10.327   8.661  14.010
 1804SOL    HW2 7310  10.241   8.784  13.985
 1805SOL     OW 7311  11.997   0.243   9.957
 1805SOL    HW1 7312  12.052   0.271   9.885
 1805SOL    HW2 7313  12.029   0.291  10.033
 1806SOL     OW 7314   5.141  10.849  14.067
 1806SOL    HW1 7315   5.143  10.823  14.159
 1806SOL    HW2 7316   5.229  10.831  14.035
 1807SOL     OW 7317  11.725  13.128   8.234
 1807SOL    HW1 7318  11.675  13.153   8.311
 1807SOL    HW2 7319  11.816  13.127   8.263
 1808SOL     OW 7320   9.621   2.646  12.902
 1808SOL    HW1 7321   9.526   2.643  12.891
 1808SOL    HW2 7322   9.643   2.559  12.937
 1809SOL     OW 7323   5.306   8.657   3.924
 1809SOL    HW1 7324   5.351   8.651   4.009
 1809SOL    HW2 7325   5.375   8.682   3.863
 1810SOL     OW 7326  13.033   2.603   7.868
 1810SOL    HW1 7327  13.122   2.623   7.894
 1810SOL    HW2 7328  13.006   2.532   7.926
 1811SOL     OW 7329  12.133   8.442   3.846
 1811SOL    HW1 7330  12.106   8.382   3.776
 1811SOL    HW2 7331  12.058   8.444   3.906
 1812SOL     OW 7332  12.086   6.313   7.238
 1812SOL    HW1 7333  12.167   6.262   7.242
 1812SOL    HW2 7334  12.113   6.397   7.199
 1813SOL     OW 7335   9.977   1.235   9.283
 1813SOL    HW1 7336  10.054   1.271   9.238
 1813SOL    HW2 7337   9.917   1.210   9.214
 1814SOL     OW 7338  11.777  12.167   2.868
 1814SOL    HW1 7339  11.694  12.176   2.820
 1814SOL    HW2 7340  11.821  12.251   2.856
 1815SOL     OW 7341  11.426   4.395  12.472
 1815SOL    HW1 7342  11.472   4.355  12.546
 1815SOL    HW2 7343  11.477   4.369  12.395
 1816SOL     OW 7344  10.147  13.957   2.619
 1816SOL    HW1 7345  10.082  13.959   2.548
 1816SOL    HW2 7346  10.231  13.946   2.575
 1817SOL     OW 7347  12.571  12.964  10.790
 1817SOL    HW1 7348  12.607  12.914  10.717
 1817SOL    HW2 7349  12.502  12.907  10.826
 1818SOL     OW 7350   1.853   5.010   1.738
 1818SOL    HW1 7351   1.929   4.999   1.795
 1818SOL    HW2 7352   1.844   5.105   1.728
 1819SOL     OW 7353   0.758  11.632  12.045
 1819SOL    HW1 7354   0.767  11.631  11.949
 1819SOL    HW2 7355   0.673  11.590  12.061
 1820SOL     OW 7356  10.097  14.281   4.119
 1820SOL    HW1 7357  10.190  14.265   4.101
 1820SOL    HW2 7358  10.077  14.364   4.075
 1821SOL     OW 7359   6.658   9.530  14.799
 1821SOL    HW1 7360   6.599   9.584  14.747
 1821SOL    HW2 7361   6.690   9.463  14.738
 1822SOL     OW 7362   1.899   8.181   6.242
 1822SOL    HW1 7363   1.806   8.190   6.219
 1822SOL    HW2 7364   1.946   8.204   6.161
 1823SOL     OW 7365   7.830  10.919   7.073
 1823SOL    HW1 7366   7.787  10.873   7.001
 1823SOL    HW2 7367   7.830  11.011   7.045
 1824SOL     OW 7368   0.522  11.454   7.089
 1824SOL    HW1 7369   0.544  11.503   7.168
 1824SOL    HW2 7370   0.536  11.517   7.018
 1825SOL     OW 7371   0.703   1.957  11.172
 1825SOL    HW1 7372   0.664   1.933  11.256
 1825SOL    HW2 7373   0.797   1.947  11.186
 1826SOL     OW 7374  10.663  14.669   5.146
 1826SOL    HW1 7375  10.607  14.653   5.222
 1826SOL    HW2 7376  10.603  14.669   5.072
 1827SOL     OW 7377   3.852   3.669   2.621
 1827SOL    HW1 7378   3.901   3.715   2.553
 1827SOL    HW2 7379   3.807   3.738   2.670
 1828SOL     OW 7380   9.511  10.957   4.957
 1828SOL    HW1 7381   9.488  10.924   4.870
 1828SOL    HW2 7382   9.588  11.012   4.942
 1829SOL     OW 7383   1.660   4.825   6.238
 1829SOL    HW1 7384   1.671   4.803   6.331
 1829SOL    HW2 7385   1.581   4.878   6.235
 1830SOL     OW 7386   5.892   0.176   3.219
 1830SOL    HW1 7387   5.846   0.137   3.145
 1830SOL    HW2 7388   5.911   0.266   3.191
 1831SOL     OW 7389   5.385   4.550  11.855
 1831SOL    HW1 7390   5.418   4.519  11.770
 1831SOL    HW2 7391   5.334   4.629  11.834
 1832SOL     OW 7392   8.057   9.369   3.659
 1832SOL    HW1 7393   8.118   9.387   3.587
 1832SOL    HW2 7394   8.004   9.448   3.666
 1833SOL     OW 7395  11.604   4.833   4.334
 1833SOL    HW1 7396  11.573   4.754   4.379
 1833SOL    HW2 7397  11.621   4.896   4.403
 1834SOL     OW 7398   0.566   1.251   0.007
 1834SOL    HW1 7399   0.478   1.282  14.866
 1834SOL    HW2 7400   0.578   1.272   0.099
 1835SOL     OW 7401  12.563  14.373  11.216
 1835SOL    HW1 7402  12.559  14.334  11.303
 1835SOL    HW2 7403  12.565  14.467  11.231
 1836SOL     OW 7404  14.305  11.450  11.655
 1836SOL    HW1 7405  14.348  11.416  11.734
 1836SOL    HW2 7406  14.345  11.401  11.583
 1837SOL     OW 7407  14.469   5.537   8.027
 1837SOL    HW1 7408  14.487   5.526   8.121
 1837SOL    HW2 7409  14.375   5.558   8.024
 1838SOL     OW 7410   2.854   8.793   3.667
 1838SOL    HW1 7411   2.799   8.766   3.594
 1838SOL    HW2 7412   2.793   8.819   3.735
 1839SOL     OW 7413   9.691   6.868   0.673
 1839SOL    HW1 7414   9.745   6.930   0.723
 1839SOL    HW2 7415   9.624   6.922   0.632
 1840SOL     OW 7416  10.432  10.056  12.891
 1840SOL    HW1 7417  10.516  10.016  12.911
 1840SOL    HW2 7418  10.401  10.010  12.812
 1841SOL     OW 7419   6.360   5.739   0.998
 1841SOL    HW1 7420   6.450   5.770   1.010
 1841SOL    HW2 7421   6.324   5.795   0.929
 1842SOL     OW 7422   3.852  10.580  13.663
 1842SOL    HW1 7423   3.917  10.646  13.687
 1842SOL    HW2 7424   3.903  10.501  13.645
 1843SOL     OW 7425   8.023   5.677  10.113
 1843SOL    HW1 7426   8.053   5.606  10.057
 1843SOL    HW2 7427   8.091   5.744  10.107
 1844SOL     OW 7428   4.592  14.172   7.085
 1844SOL    HW1 7429   4.615  14.173   7.178
 1844SOL    HW2 7430   4.530  14.244   7.075
 1845SOL     OW 7431  13.080  14.076  14.066
 1845SOL    HW1 7432  13.151  14.050  14.009
 1845SOL    HW2 7433  13.005  14.089  14.008
 1846SOL     OW 7434  10.907  12.641   3.585
 1846SOL    HW1 7435  10.943  12.682   3.663
 1846SOL    HW2 7436  10.873  12.557   3.615
 1847SOL     OW 7437  13.153   6.763   9.934
 1847SOL    HW1 7438  13.193   6.842   9.971
 1847SOL    HW2 7439  13.212   6.738   9.863
 1848SOL     OW 7440  14.620   9.203   9.832
 1848SOL    HW1 7441  14.528   9.187   9.814
 1848SOL    HW2 7442  14.622   9.232   9.923
 1849SOL     OW 7443   4.256   1.460  10.854
 1849SOL    HW1 7444   4.203   1.520  10.801
 1849SOL    HW2 7445   4.285   1.392  10.793
 1850SOL     OW 7446   0.229   0.014   9.593
 1850SOL    HW1 7447   0.282   0.093   9.583
 1850SOL    HW2 7448   0.161   0.038   9.655
 1851SOL     OW 7449  14.473   9.089  13.651
 1851SOL    HW1 7450  14.435   9.162  13.700
 1851SOL    HW2 7451  14.458   9.013  13.706
 1852SOL     OW 7452  12.987   4.839   3.153
 1852SOL    HW1 7453  13.063   4.893   3.173
 1852SOL    HW2 7454  13.008   4.797   3.070
 1853SOL     OW 7455   3.050  12.436   8.350
 1853SOL    HW1 7456   3.011  12.370   8.293
 1853SOL    HW2 7457   3.024  12.410   8.438
 1854SOL     OW 7458   8.799  12.416   2.658
 1854SOL    HW1 7459   8.713  12.451   2.635
 1854SOL    HW2 7460   8.856  12.440   2.585
 1855SOL     OW 7461  14.872   9.490   2.144
 1855SOL    HW1 7462   0.008   9.491   2.239
 1855SOL    HW2 7463  14.792   9.438   2.134
 1856SOL     OW 7464  12.093  10.142   1.625
 1856SOL    HW1 7465  12.008  10.132   1.582
 1856SOL    HW2 7466  12.146  10.191   1.562
 1857SOL     OW 7467   9.263   8.095  10.656
 1857SOL    HW1 7468   9.267   8.005  10.687
 1857SOL    HW2 7469   9.180   8.100  10.608
 1858SOL     OW 7470  12.122   8.596  11.788
 1858SOL    HW1 7471  12.145   8.651  11.713
 1858SOL    HW2 7472  12.091   8.514  11.749
 1859SOL     OW 7473  11.945  10.085   4.501
 1859SOL    HW1 7474  11.963  10.099   4.408
 1859SOL    HW2 7475  12.029  10.056   4.538
 1860SOL     OW 7476   8.625   7.513  12.960
 1860SOL    HW1 7477   8.668   7.439  13.001
 1860SOL    HW2 7478   8.537   7.482  12.940
 1861SOL     OW 7479   2.539   1.485  12.977
 1861SOL    HW1 7480   2.451   1.458  13.002
 1861SOL    HW2 7481   2.526   1.559  12.919
 1862SOL     OW 7482  12.899   5.728   1.297
 1862SOL    HW1 7483  12.946   5.663   1.245
 1862SOL    HW2 7484  12.961   5.752   1.366
 1863SOL     OW 7485   8.837  10.838  13.499
 1863SOL    HW1 7486   8.832  10.833  13.594
 1863SOL    HW2 7487   8.763  10.785  13.468
 1864SOL     OW 7488   4.079   7.837  10.244
 1864SOL    HW1 7489   4.082   7.873  10.155
 1864SOL    HW2 7490   4.157   7.781  10.250
 1865SOL     OW 7491   2.287   0.638   2.676
 1865SOL    HW1 7492   2.260   0.710   2.618
 1865SOL    HW2 7493   2.213   0.626   2.736
 1866SOL     OW 7494  11.543   0.324  13.904
 1866SOL    HW1 7495  11.496   0.376  13.969
 1866SOL    HW2 7496  11.518   0.233  13.924
 1867SOL     OW 7497   5.506   9.886   6.488
 1867SOL    HW1 7498   5.443   9.901   6.418
 1867SOL    HW2 7499   5.477   9.804   6.529
 1868SOL     OW 7500   5.719   9.320   2.789
 1868SOL    HW1 7501   5.720   9.400   2.736
 1868SOL    HW2 7502   5.634   9.322   2.835
 1869SOL     OW 7503  13.848   6.197  14.344
 1869SOL    HW1 7504  13.771   6.254  14.350
 1869SOL    HW2 7505  13.825   6.132  14.278
 1870SOL     OW 7506  11.098  11.505   8.494
 1870SOL    HW1 7507  11.072  11.451   8.420
 1870SOL    HW2 7508  11.018  11.519   8.545
 1871SOL     OW 7509  12.056  10.854  14.197
 1871SOL    HW1 7510  11.992  10.813  14.255
 1871SOL    HW2 7511  12.087  10.784  14.141
 1872SOL     OW 7512  10.954   0.045  13.355
 1872SOL    HW1 7513  10.959   0.004  13.441
 1872SOL    HW2 7514  11.044   0.072  13.335
 1873SOL     OW 7515   5.982   4.345  10.765
 1873SOL    HW1 7516   6.055   4.308  10.716
 1873SOL    HW2 7517   6.010   4.435  10.785
 1874SOL     OW 7518   2.133   8.858  11.314
 1874SOL    HW1 7519   2.169   8.802  11.383
 1874SOL    HW2 7520   2.038   8.847  11.322
 1875SOL     OW 7521   5.602   3.252   2.952
 1875SOL    HW1 7522   5.584   3.185   3.018
 1875SOL    HW2 7523   5.599   3.205   2.869
 1876SOL     OW 7524  11.050   5.686   6.505
 1876SOL    HW1 7525  11.081   5.630   6.576
 1876SOL    HW2 7526  10.984   5.742   6.547
 1877SOL     OW 7527   8.027   9.267   8.250
 1877SOL    HW1 7528   7.973   9.292   8.325
 1877SOL    HW2 7529   8.075   9.190   8.279
 1878SOL     OW 7530  12.303   0.391   6.982
 1878SOL    HW1 7531  12.388   0.370   6.945
 1878SOL    HW2 7532  12.301   0.344   7.065
 1879SOL     OW 7533   2.273   4.272   4.401
 1879SOL    HW1 7534   2.301   4.229   4.320
 1879SOL    HW2 7535   2.194   4.320   4.376
 1880SOL     OW 7536  10.582   8.896  13.410
 1880SOL    HW1 7537  10.556   8.869  13.322
 1880SOL    HW2 7538  10.579   8.816  13.462
 1881SOL     OW 7539  13.087  10.396  12.221
 1881SOL    HW1 7540  13.041  10.400  12.305
 1881SOL    HW2 7541  13.127  10.309  12.220
 1882SOL     OW 7542  11.726   0.584   1.298
 1882SOL    HW1 7543  11.652   0.622   1.251
 1882SOL    HW2 7544  11.696   0.498   1.327
 1883SOL     OW 7545   4.331   7.744   3.399
 1883SOL    HW1 7546   4.407   7.746   3.341
 1883SOL    HW2 7547   4.358   7.793   3.476
 1884SOL     OW 7548  10.651   5.261   1.079
 1884SOL    HW1 7549  10.725   5.202   1.091
 1884SOL    HW2 7550  10.585   5.229   1.140
 1885SOL     OW 7551  12.695  12.212   3.851
 1885SOL    HW1 7552  12.715  12.300   3.882
 1885SOL    HW2 7553  12.752  12.200   3.774
 1886SOL     OW 7554   4.782   0.123   0.471
 1886SOL    HW1 7555   4.818   0.061   0.408
 1886SOL    HW2 7556   4.690   0.130   0.448
 1887SOL     OW 7557   1.576   7.301   1.740
 1887SOL    HW1 7558   1.545   7.214   1.764
 1887SOL    HW2 7559   1.648   7.285   1.679
 1888SOL     OW 7560   2.866   6.694   9.043
 1888SOL    HW1 7561   2.952   6.708   9.002
 1888SOL    HW2 7562   2.872   6.607   9.082
 1889SOL     OW 7563  10.900   1.200  10.447
 1889SOL    HW1 7564  10.945   1.261  10.506
 1889SOL    HW2 7565  10.925   1.229  10.359
 1890SOL     OW 7566  10.901   4.180  11.655
 1890SOL    HW1 7567  10.806   4.165  11.654
 1890SOL    HW2 7568  10.931   4.146  11.570
 1891SOL     OW 7569   3.014  11.285   4.794
 1891SOL    HW1 7570   3.015  11.238   4.877
 1891SOL    HW2 7571   3.089  11.252   4.746
 1892SOL     OW 7572   8.681   7.546  14.180
 1892SOL    HW1 7573   8.673   7.499  14.097
 1892SOL    HW2 7574   8.760   7.511  14.220
 1893SOL     OW 7575   0.711  12.629  11.718
 1893SOL    HW1 7576   0.683  12.650  11.629
 1893SOL    HW2 7577   0.671  12.545  11.737
 1894SOL     OW 7578   2.876   5.357  13.783
 1894SOL    HW1 7579   2.919   5.442  13.793
 1894SOL    HW2 7580   2.910   5.323  13.700
 1895SOL     OW 7581  14.606  13.493   2.040
 1895SOL    HW1 7582  14.690  13.454   2.014
 1895SOL    HW2 7583  14.542  13.457   1.979
 1896SOL     OW 7584   8.647   8.352   7.288
 1896SOL    HW1 7585   8.710   8.327   7.220
 1896SOL    HW2 7586   8.641   8.275   7.344
 1897SOL     OW 7587   4.725   6.376   4.659
 1897SOL    HW1 7588   4.731   6.391   4.754
 1897SOL    HW2 7589   4.776   6.296   4.644
 1898SOL     OW 7590  12.219   8.889   1.374
 1898SOL    HW1 7591  12.314   8.880   1.368
 1898SOL    HW2 7592  12.204   8.923   1.463
 1899SOL     OW 7593   1.718   1.888   7.888
 1899SOL    HW1 7594   1.778   1.938   7.833
 1899SOL    HW2 7595   1.711   1.803   7.845
 1900SOL     OW 7596   7.249   3.748   9.857
 1900SOL    HW1 7597   7.265   3.667   9.904
 1900SOL    HW2 7598   7.265   3.817   9.922
 1901SOL     OW 7599   6.983  13.381  14.821
 1901SOL    HW1 7600   7.044  13.371  14.748
 1901SOL    HW2 7601   6.976  13.476  14.833
 1902SOL     OW 7602   2.086  12.499   8.699
 1902SOL    HW1 7603   2.164  12.536   8.658
 1902SOL    HW2 7604   2.079  12.546   8.782
 1903SOL     OW 7605   7.093   6.759   1.360
 1903SOL    HW1 7606   7.123   6.827   1.421
 1903SOL    HW2 7607   7.005   6.786   1.335
 1904SOL     OW 7608   1.976  12.739   7.672
 1904SOL    HW1 7609   2.059  12.718   7.631
 1904SOL    HW2 7610   1.926  12.657   7.669
 1905SOL     OW 7611  13.177   2.749   0.520
 1905SOL    HW1 7612  13.142   2.720   0.604
 1905SOL    HW2 7613  13.264   2.711   0.516
 1906SOL     OW 7614   9.419   6.106   5.352
 1906SOL    HW1 7615   9.439   6.115   5.259
 1906SOL    HW2 7616   9.326   6.085   5.355
 1907SOL     OW 7617  10.711   7.929   4.602
 1907SOL    HW1 7618  10.711   7.878   4.683
 1907SOL    HW2 7619  10.721   8.019   4.632
 1908SOL     OW 7620   4.278   8.465   2.314
 1908SOL    HW1 7621   4.316   8.550   2.294
 1908SOL    HW2 7622   4.306   8.446   2.403
 1909SOL     OW 7623   7.458   5.031   9.671
 1909SOL    HW1 7624   7.533   4.980   9.640
 1909SOL    HW2 7625   7.477   5.121   9.645
 1910SOL     OW 7626   3.373   6.326  12.488
 1910SOL    HW1 7627   3.278   6.335  12.496
 1910SOL    HW2 7628   3.385   6.261  12.419
 1911SOL     OW 7629   3.909   3.264  13.269
 1911SOL    HW1 7630   3.973   3.222  13.212
 1911SOL    HW2 7631   3.892   3.348  13.228
 1912SOL     OW 7632   2.184   4.820   4.453
 1912SOL    HW1 7633   2.235   4.760   4.507
 1912SOL    HW2 7634   2.208   4.907   4.485
 1913SOL     OW 7635  11.718   1.037  14.636
 1913SOL    HW1 7636  11.628   1.024  14.607
 1913SOL    HW2 7637  11.748   1.114  14.588
 1914SOL     OW 7638   4.972   4.543   8.736
 1914SOL    HW1 7639   4.881   4.557   8.762
 1914SOL    HW2 7640   4.981   4.592   8.654
 1915SOL     OW 7641   1.450   8.026   1.910
 1915SOL    HW1 7642   1.422   8.080   1.984
 1915SOL    HW2 7643   1.369   8.003   1.865
 1916SOL     OW 7644   5.934   0.442   6.313
 1916SOL    HW1 7645   6.024   0.469   6.295
 1916SOL    HW2 7646   5.916   0.372   6.251
 1917SOL     OW 7647   9.610   7.359   7.427
 1917SOL    HW1 7648   9.665   7.438   7.424
 1917SOL    HW2 7649   9.626   7.315   7.343
 1918SOL     OW 7650   2.855   3.625   0.445
 1918SOL    HW1 7651   2.913   3.579   0.505
 1918SOL    HW2 7652   2.797   3.675   0.502
 1919SOL     OW 7653   0.052  13.851   0.758
 1919SOL    HW1 7654   0.122  13.880   0.699
 1919SOL    HW2 7655   0.019  13.932   0.797
 1920SOL     OW 7656   1.558  14.564   2.973
 1920SOL    HW1 7657   1.554  14.625   2.900
 1920SOL    HW2 7658   1.524  14.613   3.048
 1921SOL     OW 7659   3.751   5.556  10.585
 1921SOL    HW1 7660   3.657   5.557  10.605
 1921SOL    HW2 7661   3.769   5.644  10.552
 1922SOL     OW 7662  11.050   9.914   0.748
 1922SOL    HW1 7663  11.030   9.887   0.838
 1922SOL    HW2 7664  10.996   9.858   0.693
 1923SOL     OW 7665   9.607  11.349   1.517
 1923SOL    HW1 7666   9.520  11.349   1.478
 1923SOL    HW2 7667   9.596  11.305   1.601
 1924SOL     OW 7668  12.570   5.844   2.346
 1924SOL    HW1 7669  12.541   5.829   2.256
 1924SOL    HW2 7670  12.528   5.776   2.397
 1925SOL     OW 7671   3.169   5.941   5.650
 1925SOL    HW1 7672   3.120   5.973   5.725
 1925SOL    HW2 7673   3.105   5.933   5.579
 1926SOL     OW 7674   8.219   6.759  10.653
 1926SOL    HW1 7675   8.217   6.854  10.648
 1926SOL    HW2 7676   8.127   6.732  10.646
 1927SOL     OW 7677   7.629   4.515  12.997
 1927SOL    HW1 7678   7.661   4.474  13.077
 1927SOL    HW2 7679   7.705   4.561  12.961
 1928SOL     OW 7680   3.197   7.696   5.163
 1928SOL    HW1 7681   3.229   7.740   5.084
 1928SOL    HW2 7682   3.258   7.723   5.232
 1929SOL     OW 7683  10.497   1.164   1.471
 1929SOL    HW1 7684  10.456   1.145   1.386
 1929SOL    HW2 7685  10.582   1.202   1.448
 1930SOL     OW 7686   4.236   2.627  11.951
 1930SOL    HW1 7687   4.315   2.664  11.912
 1930SOL    HW2 7688   4.183   2.599  11.876
 1931SOL     OW 7689   0.882  10.032   8.721
 1931SOL    HW1 7690   0.908  10.122   8.741
 1931SOL    HW2 7691   0.952   9.978   8.757
 1932SOL     OW 7692   1.567  11.872   5.820
 1932SOL    HW1 7693   1.604  11.958   5.840
 1932SOL    HW2 7694   1.477  11.877   5.854
 1933SOL     OW 7695   3.714   5.312   4.599
 1933SOL    HW1 7696   3.759   5.244   4.550
 1933SOL    HW2 7697   3.727   5.392   4.548
 1934SOL     OW 7698   7.534  13.780  10.981
 1934SOL    HW1 7699   7.591  13.730  11.039
 1934SOL    HW2 7700   7.480  13.714  10.937
 1935SOL     OW 7701  10.058  13.754  12.858
 1935SOL    HW1 7702  10.067  13.797  12.943
 1935SOL    HW2 7703  10.108  13.809  12.798
 1936SOL     OW 7704  13.219   7.297   4.349
 1936SOL    HW1 7705  13.192   7.279   4.439
 1936SOL    HW2 7706  13.143   7.340   4.309
 1937SOL     OW 7707  14.082  11.801   6.783
 1937SOL    HW1 7708  14.171  11.788   6.815
 1937SOL    HW2 7709  14.057  11.887   6.816
 1938SOL     OW 7710   7.681   3.602  14.122
 1938SOL    HW1 7711   7.621   3.647  14.063
 1938SOL    HW2 7712   7.652   3.511  14.121
 1939SOL     OW 7713   3.296  13.394   1.041
 1939SOL    HW1 7714   3.282  13.469   0.982
 1939SOL    HW2 7715   3.375  13.351   1.008
 1940SOL     OW 7716   7.644  13.608   8.818
 1940SOL    HW1 7717   7.605  13.531   8.776
 1940SOL    HW2 7718   7.585  13.628   8.891
 1941SOL     OW 7719   3.572   3.592   0.801
 1941SOL    HW1 7720   3.599   3.648   0.874
 1941SOL    HW2 7721   3.478   3.583   0.811
 1942SOL     OW 7722   2.667   3.189   2.482
 1942SOL    HW1 7723   2.670   3.272   2.434
 1942SOL    HW2 7724   2.648   3.123   2.415
 1943SOL     OW 7725   8.627  10.223   7.862
 1943SOL    HW1 7726   8.694  10.180   7.915
 1943SOL    HW2 7727   8.604  10.158   7.796
 1944SOL     OW 7728   2.600   5.657   7.777
 1944SOL    HW1 7729   2.644   5.629   7.696
 1944SOL    HW2 7730   2.507   5.654   7.756
 1945SOL     OW 7731   3.220   0.646  11.964
 1945SOL    HW1 7732   3.315   0.653  11.970
 1945SOL    HW2 7733   3.202   0.553  11.980
 1946SOL     OW 7734  14.150  10.676   9.896
 1946SOL    HW1 7735  14.154  10.719   9.981
 1946SOL    HW2 7736  14.241  10.669   9.868
 1947SOL     OW 7737  13.878   4.300   0.269
 1947SOL    HW1 7738  13.806   4.240   0.250
 1947SOL    HW2 7739  13.867   4.322   0.361
 1948SOL     OW 7740   4.917   8.436   0.212
 1948SOL    HW1 7741   4.833   8.424   0.256
 1948SOL    HW2 7742   4.967   8.356   0.233
 1949SOL     OW 7743  11.654   8.161   5.880
 1949SOL    HW1 7744  11.601   8.160   5.960
 1949SOL    HW2 7745  11.696   8.076   5.877
 1950SOL     OW 7746   0.769   2.696  14.509
 1950SOL    HW1 7747   0.837   2.688  14.442
 1950SOL    HW2 7748   0.773   2.613  14.557
 1951SOL     OW 7749   8.162  10.685   6.539
 1951SOL    HW1 7750   8.182  10.594   6.515
 1951SOL    HW2 7751   8.070  10.682   6.566
 1952SOL     OW 7752   2.137   6.462  10.544
 1952SOL    HW1 7753   2.143   6.456  10.640
 1952SOL    HW2 7754   2.223   6.494  10.516
 1953SOL     OW 7755   4.528   2.257   0.972
 1953SOL    HW1 7756   4.497   2.251   0.882
 1953SOL    HW2 7757   4.449   2.275   1.024
 1954SOL     OW 7758   9.933   7.906  11.620
 1954SOL    HW1 7759   9.952   7.868  11.534
 1954SOL    HW2 7760   9.894   7.834  11.670
 1955SOL     OW 7761   4.628  12.188  12.513
 1955SOL    HW1 7762   4.715  12.193  12.553
 1955SOL    HW2 7763   4.616  12.095  12.493
 1956SOL     OW 7764  10.837  11.389   9.157
 1956SOL    HW1 7765  10.781  11.314   9.177
 1956SOL    HW2 7766  10.790  11.436   9.088
 1957SOL     OW 7767   5.420   9.236   6.898
 1957SOL    HW1 7768   5.362   9.180   6.949
 1957SOL    HW2 7769   5.498   9.182   6.883
 1958SOL     OW 7770  13.751  13.320   5.605
 1958SOL    HW1 7771  13.703  13.266   5.542
 1958SOL    HW2 7772  13.723  13.409   5.586
 1959SOL     OW 7773   8.010   2.305  11.410
 1959SOL    HW1 7774   8.056   2.305  11.326
 1959SOL    HW2 7775   8.058   2.367  11.464
 1960SOL     OW 7776  14.527   8.057   2.850
 1960SOL    HW1 7777  14.538   8.152   2.851
 1960SOL    HW2 7778  14.559   8.028   2.935
 1961SOL     OW 7779   5.526   9.886   3.394
 1961SOL    HW1 7780   5.592   9.821   3.371
 1961SOL    HW2 7781   5.576   9.957   3.436
 1962SOL     OW 7782   5.185   0.068   1.182
 1962SOL    HW1 7783   5.183   0.143   1.241
 1962SOL    HW2 7784   5.166  14.873   1.238
 1963SOL     OW 7785   4.793   5.042   0.513
 1963SOL    HW1 7786   4.849   5.111   0.547
 1963SOL    HW2 7787   4.783   5.062   0.420
 1964SOL     OW 7788  12.936   8.683   2.479
 1964SOL    HW1 7789  12.930   8.592   2.450
 1964SOL    HW2 7790  12.879   8.731   2.420
 1965SOL     OW 7791  11.141   6.770   8.189
 1965SOL    HW1 7792  11.102   6.792   8.274
 1965SOL    HW2 7793  11.084   6.813   8.125
 1966SOL     OW 7794   6.830  10.801   6.103
 1966SOL    HW1 7795   6.789  10.827   6.186
 1966SOL    HW2 7796   6.906  10.858   6.095
 1967SOL     OW 7797   0.220  13.880   8.059
 1967SOL    HW1 7798   0.245  13.886   7.966
 1967SOL    HW2 7799   0.151  13.945   8.069
 1968SOL     OW 7800   1.908  11.878  14.637
 1968SOL    HW1 7801   1.977  11.872  14.571
 1968SOL    HW2 7802   1.953  11.915  14.714
 1969SOL     OW 7803   1.992   1.951   8.402
 1969SOL    HW1 7804   1.964   1.860   8.411
 1969SOL    HW2 7805   1.959   1.977   8.316
 1970SOL     OW 7806   7.190   0.811  11.575
 1970SOL    HW1 7807   7.124   0.742  11.586
 1970SOL    HW2 7808   7.254   0.774  11.515
 1971SOL     OW 7809   4.297   5.011   0.750
 1971SOL    HW1 7810   4.382   4.991   0.712
 1971SOL    HW2 7811   4.314   5.019   0.844
 1972SOL     OW 7812   9.549   4.645   9.310
 1972SOL    HW1 7813   9.635   4.686   9.309
 1972SOL    HW2 7814   9.493   4.703   9.259
 1973SOL     OW 7815   4.133   9.894   8.553
 1973SOL    HW1 7816   4.223   9.913   8.582
 1973SOL    HW2 7817   4.121   9.950   8.476
 1974SOL     OW 7818   2.906  13.490  13.228
 1974SOL    HW1 7819   2.869  13.510  13.142
 1974SOL    HW2 7820   2.998  13.468  13.210
 1975SOL     OW 7821   6.332   8.963   6.303
 1975SOL    HW1 7822   6.287   8.879   6.294
 1975SOL    HW2 7823   6.262   9.028   6.304
 1976SOL     OW 7824   7.310   1.791   8.517
 1976SOL    HW1 7825   7.319   1.707   8.562
 1976SOL    HW2 7826   7.400   1.819   8.501
 1977SOL     OW 7827  14.217   9.964   8.975
 1977SOL    HW1 7828  14.259   9.932   9.055
 1977SOL    HW2 7829  14.127   9.982   9.000
 1978SOL     OW 7830   4.402   2.565   1.152
 1978SOL    HW1 7831   4.325   2.509   1.140
 1978SOL    HW2 7832   4.444   2.567   1.066
 1979SOL     OW 7833  10.699   1.929   3.642
 1979SOL    HW1 7834  10.744   1.844   3.639
 1979SOL    HW2 7835  10.606   1.906   3.648
 1980SOL     OW 7836   9.114   0.535   1.394
 1980SOL    HW1 7837   9.060   0.539   1.315
 1980SOL    HW2 7838   9.189   0.482   1.368
 1981SOL     OW 7839  13.002  13.790   4.225
 1981SOL    HW1 7840  13.092  13.798   4.192
 1981SOL    HW2 7841  12.974  13.880   4.239
 1982SOL     OW 7842   0.543   5.791  13.688
 1982SOL    HW1 7843   0.579   5.724  13.631
 1982SOL    HW2 7844   0.475   5.746  13.739
 1983SOL     OW 7845   3.052  11.595   8.580
 1983SOL    HW1 7846   3.088  11.521   8.629
 1983SOL    HW2 7847   3.078  11.672   8.630
 1984SOL     OW 7848  13.019   3.235  10.496
 1984SOL    HW1 7849  13.104   3.218  10.536
 1984SOL    HW2 7850  12.956   3.213  10.564
 1985SOL     OW 7851  10.363  14.774  14.562
 1985SOL    HW1 7852  10.324  14.699  14.517
 1985SOL    HW2 7853  10.432  14.805  14.503
 1986SOL     OW 7854  14.655  11.866   2.655
 1986SOL    HW1 7855  14.737  11.914   2.641
 1986SOL    HW2 7856  14.671  11.780   2.616
 1987SOL     OW 7857  11.877   6.094   4.623
 1987SOL    HW1 7858  11.792   6.053   4.637
 1987SOL    HW2 7859  11.879   6.113   4.529
 1988SOL     OW 7860  14.681   6.742  11.804
 1988SOL    HW1 7861  14.749   6.808  11.787
 1988SOL    HW2 7862  14.660   6.706  11.717
 1989SOL     OW 7863   3.386   7.520   0.602
 1989SOL    HW1 7864   3.410   7.572   0.525
 1989SOL    HW2 7865   3.308   7.471   0.574
 1990SOL     OW 7866   6.535   7.118  11.648
 1990SOL    HW1 7867   6.535   7.024  11.633
 1990SOL    HW2 7868   6.592   7.153  11.580
 1991SOL     OW 7869  12.521   6.496  14.347
 1991SOL    HW1 7870  12.439   6.545  14.347
 1991SOL    HW2 7871  12.496   6.407  14.321
 1992SOL     OW 7872   9.591  12.452   3.989
 1992SOL    HW1 7873   9.627  12.404   3.914
 1992SOL    HW2 7874   9.516  12.499   3.953
 1993SOL     OW 7875   5.419  13.440  12.270
 1993SOL    HW1 7876   5.332  13.409  12.296
 1993SOL    HW2 7877   5.472  13.434  12.350
 1994SOL     OW 7878  12.148   6.882  13.889
 1994SOL    HW1 7879  12.233   6.899  13.929
 1994SOL    HW2 7880  12.166   6.882  13.795
 1995SOL     OW 7881   9.742   3.937   8.579
 1995SOL    HW1 7882   9.780   3.935   8.667
 1995SOL    HW2 7883   9.795   3.874   8.530
 1996SOL     OW 7884   0.041   6.314  12.488
 1996SOL    HW1 7885   0.088   6.244  12.533
 1996SOL    HW2 7886   0.109   6.363  12.442
 1997SOL     OW 7887   0.835  10.257  14.137
 1997SOL    HW1 7888   0.873  10.234  14.052
 1997SOL    HW2 7889   0.746  10.283  14.116
 1998SOL     OW 7890   6.176   1.264  11.849
 1998SOL    HW1 7891   6.137   1.344  11.884
 1998SOL    HW2 7892   6.147   1.262  11.757
 1999SOL     OW 7893   4.936   0.546   9.540
 1999SOL    HW1 7894   4.889   0.582   9.464
 1999SOL    HW2 7895   5.013   0.503   9.502
 2000SOL     OW 7896   4.647  14.421  12.840
 2000SOL    HW1 7897   4.669  14.366  12.915
 2000SOL    HW2 7898   4.570  14.379  12.802
 2001SOL     OW 7899   0.648  12.125  13.911
 2001SOL    HW1 7900   0.632  12.163  13.825
 2001SOL    HW2 7901   0.717  12.059  13.896
 2002SOL     OW 7902   6.620   9.041   1.136
 2002SOL    HW1 7903   6.672   9.004   1.065
 2002SOL    HW2 7904   6.643   8.987   1.212
 2003SOL     OW 7905  10.544   3.542   2.679
 2003SOL    HW1 7906  10.492   3.606   2.631
 2003SOL    HW2 7907  10.635   3.569   2.665
 2004SOL     OW 7908   7.422   6.671  12.870
 2004SOL    HW1 7909   7.443   6.579  12.886
 2004SOL    HW2 7910   7.386   6.671  12.781
 2005SOL     OW 7911   3.471   7.018  11.357
 2005SOL    HW1 7912   3.502   7.037  11.446
 2005SOL    HW2 7913   3.523   6.942  11.330
 2006SOL     OW 7914   9.301   0.524  10.897
 2006SOL    HW1 7915   9.236   0.593  10.881
 2006SOL    HW2 7916   9.253   0.443  10.878
 2007SOL     OW 7917   8.991  12.947  12.481
 2007SOL    HW1 7918   8.962  12.916  12.567
 2007SOL    HW2 7919   8.943  12.893  12.418
 2008SOL     OW 7920  11.980  14.166  11.903
 2008SOL    HW1 7921  12.010  14.173  11.993
 2008SOL    HW2 7922  12.054  14.130  11.855
 2009SOL     OW 7923  13.798   8.865  10.914
 2009SOL    HW1 7924  13.803   8.934  10.980
 2009SOL    HW2 7925  13.707   8.836  10.915
 2010SOL     OW 7926   8.814   6.249   2.455
 2010SOL    HW1 7927   8.859   6.201   2.524
 2010SOL    HW2 7928   8.721   6.234   2.472
 2011SOL     OW 7929  12.925   8.605   1.355
 2011SOL    HW1 7930  13.014   8.634   1.338
 2011SOL    HW2 7931  12.929   8.564   1.441
 2012SOL     OW 7932   0.909   0.521   1.778
 2012SOL    HW1 7933   0.940   0.581   1.846
 2012SOL    HW2 7934   0.815   0.536   1.772
 2013SOL     OW 7935  14.753   3.975   9.148
 2013SOL    HW1 7936  14.662   3.985   9.175
 2013SOL    HW2 7937  14.801   3.964   9.229
 2014SOL     OW 7938   4.189   2.098   1.054
 2014SOL    HW1 7939   4.252   2.027   1.046
 2014SOL    HW2 7940   4.122   2.078   0.988
 2015SOL     OW 7941   6.408  11.438   4.972
 2015SOL    HW1 7942   6.500  11.464   4.975
 2015SOL    HW2 7943   6.408  11.357   4.921
 2016SOL     OW 7944  10.135  13.714  14.508
 2016SOL    HW1 7945  10.193  13.692  14.436
 2016SOL    HW2 7946  10.194  13.735  14.581
 2017SOL     OW 7947   3.912   3.439   0.159
 2017SOL    HW1 7948   3.883   3.499   0.227
 2017SOL    HW2 7949   3.838   3.435   0.097
 2018SOL     OW 7950   9.748   6.362   0.349
 2018SOL    HW1 7951   9.668   6.414   0.338
 2018SOL    HW2 7952   9.810   6.399   0.286
 2019SOL     OW 7953   5.823   9.655   6.801
 2019SOL    HW1 7954   5.849   9.746   6.788
 2019SOL    HW2 7955   5.795   9.625   6.714
 2020SOL     OW 7956   6.576   0.184   4.135
 2020SOL    HW1 7957   6.527   0.112   4.096
 2020SOL    HW2 7958   6.583   0.161   4.228
 2021SOL     OW 7959   2.332   3.076  12.659
 2021SOL    HW1 7960   2.305   3.163  12.629
 2021SOL    HW2 7961   2.273   3.016  12.613
 2022SOL     OW 7962   9.294  11.542  12.250
 2022SOL    HW1 7963   9.270  11.468  12.306
 2022SOL    HW2 7964   9.244  11.529  12.170
 2023SOL     OW 7965   4.201   2.203   9.152
 2023SOL    HW1 7966   4.274   2.265   9.160
 2023SOL    HW2 7967   4.187   2.195   9.058
 2024SOL     OW 7968   9.729  13.136  13.595
 2024SOL    HW1 7969   9.804  13.177  13.553
 2024SOL    HW2 7970   9.700  13.070  13.532
 2025SOL     OW 7971   0.051   4.027   6.296
 2025SOL    HW1 7972   0.114   3.962   6.326
 2025SOL    HW2 7973   0.100   4.081   6.234
 2026SOL     OW 7974   3.758   5.287  11.785
 2026SOL    HW1 7975   3.848   5.320  11.778
 2026SOL    HW2 7976   3.703   5.365  11.781
 2027SOL     OW 7977   9.938   5.430   8.974
 2027SOL    HW1 7978   9.917   5.399   9.062
 2027SOL    HW2 7979  10.018   5.482   8.985
 2028SOL     OW 7980   5.086   6.917  12.284
 2028SOL    HW1 7981   5.142   6.859  12.336
 2028SOL    HW2 7982   5.084   6.876  12.197
 2029SOL     OW 7983   0.268   6.505   0.214
 2029SOL    HW1 7984   0.189   6.547   0.246
 2029SOL    HW2 7985   0.240   6.456   0.137
 2030SOL     OW 7986   1.887  14.406   8.100
 2030SOL    HW1 7987   1.847  14.463   8.034
 2030SOL    HW2 7988   1.865  14.446   8.184
 2031SOL     OW 7989  12.432   0.031   8.577
 2031SOL    HW1 7990  12.361   0.042   8.639
 2031SOL    HW2 7991  12.473   0.117   8.571
 2032SOL     OW 7992   1.047   9.200   2.018
 2032SOL    HW1 7993   1.003   9.144   2.082
 2032SOL    HW2 7994   1.141   9.182   2.030
 2033SOL     OW 7995   5.496   9.149   7.215
 2033SOL    HW1 7996   5.423   9.205   7.241
 2033SOL    HW2 7997   5.459   9.089   7.150
 2034SOL     OW 7998  11.413  10.981   7.738
 2034SOL    HW1 7999  11.486  11.001   7.796
 2034SOL    HW2 8000  11.335  11.000   7.791
 2035SOL     OW 8001  11.664  14.639   1.913
 2035SOL    HW1 8002  11.629  14.550   1.907
 2035SOL    HW2 8003  11.757  14.627   1.931
 2036SOL     OW 8004   8.336  11.631  12.281
 2036SOL    HW1 8005   8.415  11.623  12.335
 2036SOL    HW2 8006   8.349  11.565  12.212
 2037SOL     OW 8007   0.132  13.435  12.378
 2037SOL    HW1 8008   0.136  13.519  12.423
 2037SOL    HW2 8009   0.185  13.448  12.299
 2038SOL     OW 8010   1.553  10.500   8.946
 2038SOL    HW1 8011   1.505  10.519   8.865
 2038SOL    HW2 8012   1.626  10.445   8.919
 2039SOL     OW 8013   9.879   2.041  14.134
 2039SOL    HW1 8014   9.919   1.985  14.200
 2039SOL    HW2 8015   9.786   2.019  14.138
 2040SOL     OW 8016  10.686  12.760   2.243
 2040SOL    HW1 8017  10.678  12.851   2.215
 2040SOL    HW2 8018  10.694  12.764   2.338
 2041SOL     OW 8019  10.213   3.719  13.500
 2041SOL    HW1 8020  10.298   3.692  13.465
 2041SOL    HW2 8021  10.228   3.733  13.593
 2042SOL     OW 8022  14.173  13.740   9.740
 2042SOL    HW1 8023  14.096  13.686   9.721
 2042SOL    HW2 8024  14.248  13.684   9.719
 2043SOL     OW 8025   4.946   2.976   1.108
 2043SOL    HW1 8026   4.980   2.949   1.023
 2043SOL    HW2 8027   4.869   2.921   1.121
 2044SOL     OW 8028   8.548   1.519   1.671
 2044SOL    HW1 8029   8.458   1.490   1.686
 2044SOL    HW2 8030   8.542   1.576   1.594
 2045SOL     OW 8031   9.918   6.797   7.135
 2045SOL    HW1 8032   9.872   6.874   7.168
 2045SOL    HW2 8033   9.899   6.729   7.200
 2046SOL     OW 8034  14.838  10.238  14.667
 2046SOL    HW1 8035  14.785  10.176  14.617
 2046SOL    HW2 8036  14.816  10.324  14.630
 2047SOL     OW 8037   2.310  13.868  10.552
 2047SOL    HW1 8038   2.329  13.816  10.474
 2047SOL    HW2 8039   2.311  13.805  10.624
 2048SOL     OW 8040   1.011   2.484   6.906
 2048SOL    HW1 8041   0.941   2.420   6.919
 2048SOL    HW2 8042   1.017   2.531   6.989
 2049SOL     OW 8043   3.979   4.792   9.261
 2049SOL    HW1 8044   3.926   4.870   9.273
 2049SOL    HW2 8045   3.979   4.776   9.167
 2050SOL     OW 8046   2.927   9.698   4.527
 2050SOL    HW1 8047   2.837   9.724   4.546
 2050SOL    HW2 8048   2.958   9.659   4.609
 2051SOL     OW 8049   5.463  12.302   7.805
 2051SOL    HW1 8050   5.384  12.351   7.785
 2051SOL    HW2 8051   5.486  12.326   7.894
 2052SOL     OW 8052  13.263   8.976   5.746
 2052SOL    HW1 8053  13.240   9.034   5.819
 2052SOL    HW2 8054  13.251   9.030   5.668
 2053SOL     OW 8055   9.250   8.778   7.379
 2053SOL    HW1 8056   9.196   8.813   7.450
 2053SOL    HW2 8057   9.201   8.702   7.347
 2054SOL     OW 8058  12.571  11.055   8.290
 2054SOL    HW1 8059  12.539  10.980   8.239
 2054SOL    HW2 8060  12.664  11.036   8.303
 2055SOL     OW 8061   8.616  14.613   1.166
 2055SOL    HW1 8062   8.584  14.547   1.104
 2055SOL    HW2 8063   8.705  14.585   1.187
 2056SOL     OW 8064   5.248   4.210   5.191
 2056SOL    HW1 8065   5.334   4.253   5.194
 2056SOL    HW2 8066   5.266   4.126   5.148
 2057SOL     OW 8067  13.406   0.091  10.796
 2057SOL    HW1 8068  13.363   0.015  10.834
 2057SOL    HW2 8069  13.481   0.056  10.748
 2058SOL     OW 8070  12.154   7.405   6.021
 2058SOL    HW1 8071  12.203   7.345   6.077
 2058SOL    HW2 8072  12.114   7.349   5.955
 2059SOL     OW 8073   6.083  10.488   0.845
 2059SOL    HW1 8074   6.068  10.563   0.902
 2059SOL    HW2 8075   6.083  10.412   0.904
 2060SOL     OW 8076   3.776  10.682  12.513
 2060SOL    HW1 8077   3.691  10.651  12.480
 2060SOL    HW2 8078   3.836  10.673  12.439
 2061SOL     OW 8079  11.819   3.394  11.852
 2061SOL    HW1 8080  11.840   3.449  11.927
 2061SOL    HW2 8081  11.767   3.322  11.889
 2062SOL     OW 8082   7.126   6.070   4.425
 2062SOL    HW1 8083   7.135   5.984   4.465
 2062SOL    HW2 8084   7.094   6.127   4.495
 2063SOL     OW 8085   3.239   2.672   8.672
 2063SOL    HW1 8086   3.333   2.677   8.655
 2063SOL    HW2 8087   3.217   2.580   8.657
 2064SOL     OW 8088  13.035   9.988   8.655
 2064SOL    HW1 8089  12.988  10.071   8.658
 2064SOL    HW2 8090  13.115  10.004   8.705
 2065SOL     OW 8091   0.466  13.243   7.573
 2065SOL    HW1 8092   0.436  13.289   7.652
 2065SOL    HW2 8093   0.550  13.284   7.552
 2066SOL     OW 8094   9.449  12.810  14.185
 2066SOL    HW1 8095   9.421  12.756  14.259
 2066SOL    HW2 8096   9.369  12.824  14.134
 2067SOL     OW 8097  14.420   7.076  12.342
 2067SOL    HW1 8098  14.501   7.070  12.393
 2067SOL    HW2 8099  14.415   6.991  12.298
 2068SOL     OW 8100   6.571  14.599   5.312
 2068SOL    HW1 8101   6.477  14.584   5.304
 2068SOL    HW2 8102   6.579  14.674   5.370
 2069SOL     OW 8103   3.253  11.408   0.800
 2069SOL    HW1 8104   3.238  11.320   0.765
 2069SOL    HW2 8105   3.246  11.465   0.723
 2070SOL     OW 8106   5.583   8.518   0.447
 2070SOL    HW1 8107   5.513   8.452   0.443
 2070SOL    HW2 8108   5.619   8.520   0.358
 2071SOL     OW 8109   7.735   1.687   8.525
 2071SOL    HW1 8110   7.706   1.623   8.460
 2071SOL    HW2 8111   7.812   1.647   8.565
 2072SOL     OW 8112   3.837   3.410   3.481
 2072SOL    HW1 8113   3.877   3.463   3.412
 2072SOL    HW2 8114   3.786   3.344   3.435
 2073SOL     OW 8115   6.861  10.587  11.864
 2073SOL    HW1 8116   6.934  10.643  11.836
 2073SOL    HW2 8117   6.882  10.563  11.954
 2074SOL     OW 8118   7.200   7.277  11.685
 2074SOL    HW1 8119   7.249   7.300  11.764
 2074SOL    HW2 8120   7.113   7.253  11.717
 2075SOL     OW 8121   8.262   5.180  12.303
 2075SOL    HW1 8122   8.318   5.123  12.354
 2075SOL    HW2 8123   8.186   5.127  12.281
 2076SOL     OW 8124   2.605   8.515   4.104
 2076SOL    HW1 8125   2.620   8.528   4.198
 2076SOL    HW2 8126   2.640   8.428   4.086
 2077SOL     OW 8127  11.394   6.961   3.327
 2077SOL    HW1 8128  11.397   6.872   3.292
 2077SOL    HW2 8129  11.358   7.014   3.256
 2078SOL     OW 8130  12.067   0.397   4.345
 2078SOL    HW1 8131  12.150   0.396   4.393
 2078SOL    HW2 8132  12.036   0.307   4.349
 2079SOL     OW 8133   9.369   5.651  13.114
 2079SOL    HW1 8134   9.312   5.615  13.046
 2079SOL    HW2 8135   9.309   5.696  13.174
 2080SOL     OW 8136   8.996   8.579   7.005
 2080SOL    HW1 8137   8.952   8.519   6.945
 2080SOL    HW2 8138   9.025   8.651   6.948
 2081SOL     OW 8139  13.774   7.278   4.951
 2081SOL    HW1 8140  13.752   7.259   4.860
 2081SOL    HW2 8141  13.690   7.298   4.992
 2082SOL     OW 8142   7.532  13.864   8.744
 2082SOL    HW1 8143   7.536  13.798   8.676
 2082SOL    HW2 8144   7.624  13.885   8.763
 2083SOL     OW 8145   7.077  11.072  11.160
 2083SOL    HW1 8146   7.036  11.013  11.098
 2083SOL    HW2 8147   7.029  11.155  11.150
 2084SOL     OW 8148   6.019   0.978  11.938
 2084SOL    HW1 8149   5.980   1.031  11.868
 2084SOL    HW2 8150   5.977   0.892  11.929
 2085SOL     OW 8151   4.638   1.974   7.779
 2085SOL    HW1 8152   4.666   2.059   7.744
 2085SOL    HW2 8153   4.556   1.992   7.824
 2086SOL     OW 8154   3.197   2.976   3.365
 2086SOL    HW1 8155   3.214   2.956   3.457
 2086SOL    HW2 8156   3.102   2.974   3.357
 2087SOL     OW 8157   3.136  10.972  11.734
 2087SOL    HW1 8158   3.202  10.949  11.668
 2087SOL    HW2 8159   3.053  10.946  11.695
 2088SOL     OW 8160  13.124  10.435   2.562
 2088SOL    HW1 8161  13.191  10.502   2.578
 2088SOL    HW2 8162  13.123  10.383   2.642
 2089SOL     OW 8163  14.365  10.872  13.241
 2089SOL    HW1 8164  14.281  10.840  13.208
 2089SOL    HW2 8165  14.351  10.964  13.260
 2090SOL     OW 8166   8.238   6.229  13.116
 2090SOL    HW1 8167   8.270   6.299  13.059
 2090SOL    HW2 8168   8.183   6.274  13.180
 2091SOL     OW 8169  12.841  13.356  13.571
 2091SOL    HW1 8170  12.830  13.286  13.635
 2091SOL    HW2 8171  12.802  13.320  13.490
 2092SOL     OW 8172   5.840   8.517  14.816
 2092SOL    HW1 8173   5.831   8.582   0.004
 2092SOL    HW2 8174   5.858   8.435  14.863
 2093SOL     OW 8175   8.027  11.504   9.136
 2093SOL    HW1 8176   7.999  11.510   9.228
 2093SOL    HW2 8177   7.994  11.585   9.096
 2094SOL     OW 8178   6.524  11.089   0.685
 2094SOL    HW1 8179   6.460  11.075   0.615
 2094SOL    HW2 8180   6.500  11.026   0.753
 2095SOL     OW 8181   6.862   9.903  11.646
 2095SOL    HW1 8182   6.830   9.988  11.616
 2095SOL    HW2 8183   6.942   9.888  11.595
 2096SOL     OW 8184  11.719   8.295  14.546
 2096SOL    HW1 8185  11.725   8.215  14.599
 2096SOL    HW2 8186  11.799   8.293  14.493
 2097SOL     OW 8187   0.313   3.551   3.765
 2097SOL    HW1 8188   0.333   3.495   3.840
 2097SOL    HW2 8189   0.390   3.545   3.708
 2098SOL     OW 8190  12.107   4.492  11.949
 2098SOL    HW1 8191  12.121   4.580  11.915
 2098SOL    HW2 8192  12.052   4.448  11.884
 2099SOL     OW 8193   2.259  12.260   5.782
 2099SOL    HW1 8194   2.332  12.234   5.725
 2099SOL    HW2 8195   2.291  12.336   5.830
 2100SOL     OW 8196  12.953   2.372  14.143
 2100SOL    HW1 8197  12.968   2.307  14.075
 2100SOL    HW2 8198  12.970   2.456  14.101
 2101SOL     OW 8199  11.950  11.446  11.336
 2101SOL    HW1 8200  11.878  11.474  11.279
 2101SOL    HW2 8201  11.986  11.527  11.371
 2102SOL     OW 8202   3.558   8.331   0.979
 2102SOL    HW1 8203   3.480   8.375   0.946
 2102SOL    HW2 8204   3.600   8.395   1.036
 2103SOL     OW 8205   5.239   9.427   5.969
 2103SOL    HW1 8206   5.325   9.420   6.008
 2103SOL    HW2 8207   5.180   9.446   6.042
 2104SOL     OW 8208   7.616   8.363   5.464
 2104SOL    HW1 8209   7.570   8.408   5.535
 2104SOL    HW2 8210   7.546   8.324   5.412
 2105SOL     OW 8211   5.502  10.922   6.118
 2105SOL    HW1 8212   5.466  10.979   6.050
 2105SOL    HW2 8213   5.578  10.881   6.076
 2106SOL     OW 8214   2.167   9.913  10.929
 2106SOL    HW1 8215   2.245   9.953  10.891
 2106SOL    HW2 8216   2.117   9.880  10.855
 2107SOL     OW 8217   1.380  14.815   0.353
 2107SOL    HW1 8218   1.318  14.822   0.425
 2107SOL    HW2 8219   1.465  14.834   0.394
 2108SOL     OW 8220  14.492   7.819   7.910
 2108SOL    HW1 8221  14.585   7.800   7.923
 2108SOL    HW2 8222  14.458   7.740   7.868
 2109SOL     OW 8223   6.550   2.687   3.458
 2109SOL    HW1 8224   6.480   2.722   3.513
 2109SOL    HW2 8225   6.524   2.709   3.369
 2110SOL     OW 8226   9.865   3.944  11.476
 2110SOL    HW1 8227   9.888   4.008  11.543
 2110SOL    HW2 8228   9.950   3.906  11.450
 2111SOL     OW 8229   1.396   7.921   9.338
 2111SOL    HW1 8230   1.370   8.002   9.382
 2111SOL    HW2 8231   1.377   7.936   9.245
 2112SOL     OW 8232  10.956  11.086   0.298
 2112SOL    HW1 8233  10.900  11.064   0.224
 2112SOL    HW2 8234  11.035  11.123   0.258
 2113SOL     OW 8235   0.315   3.558  10.597
 2113SOL    HW1 8236   0.304   3.514  10.513
 2113SOL    HW2 8237   0.406   3.540  10.622
 2114SOL     OW 8238   6.255   9.613   8.678
 2114SOL    HW1 8239   6.170   9.655   8.674
 2114SOL    HW2 8240   6.236   9.519   8.672
 2115SOL     OW 8241   5.740   5.240   5.964
 2115SOL    HW1 8242   5.726   5.145   5.963
 2115SOL    HW2 8243   5.750   5.263   5.872
 2116SOL     OW 8244   1.786   4.832   4.195
 2116SOL    HW1 8245   1.701   4.844   4.237
 2116SOL    HW2 8246   1.841   4.901   4.232
 2117SOL     OW 8247   0.408   5.495  10.996
 2117SOL    HW1 8248   0.427   5.483  11.089
 2117SOL    HW2 8249   0.332   5.440  10.980
 2118SOL     OW 8250   2.990  11.344   3.836
 2118SOL    HW1 8251   2.895  11.340   3.824
 2118SOL    HW2 8252   3.003  11.337   3.930
 2119SOL     OW 8253  12.386   2.504   1.633
 2119SOL    HW1 8254  12.336   2.430   1.599
 2119SOL    HW2 8255  12.338   2.582   1.604
 2120SOL     OW 8256   5.201   4.094   5.780
 2120SOL    HW1 8257   5.284   4.123   5.818
 2120SOL    HW2 8258   5.152   4.057   5.853
 2121SOL     OW 8259   9.251   7.978  11.550
 2121SOL    HW1 8260   9.259   8.040  11.478
 2121SOL    HW2 8261   9.225   7.896  11.509
 2122SOL     OW 8262   9.970   4.399  11.823
 2122SOL    HW1 8263  10.009   4.378  11.908
 2122SOL    HW2 8264   9.880   4.368  11.830
 2123SOL     OW 8265   5.265   2.722  12.441
 2123SOL    HW1 8266   5.234   2.677  12.520
 2123SOL    HW2 8267   5.204   2.796  12.430
 2124SOL     OW 8268   9.245  14.494  12.788
 2124SOL    HW1 8269   9.173  14.431  12.783
 2124SOL    HW2 8270   9.318  14.449  12.747
 2125SOL     OW 8271   0.265   7.696   7.946
 2125SOL    HW1 8272   0.348   7.687   7.994
 2125SOL    HW2 8273   0.281   7.652   7.862
 2126SOL     OW 8274   0.099   0.313   4.754
 2126SOL    HW1 8275   0.195   0.318   4.752
 2126SOL    HW2 8276   0.081   0.220   4.739
 2127SOL     OW 8277   4.229   4.927   9.265
 2127SOL    HW1 8278   4.252   4.991   9.333
 2127SOL    HW2 8279   4.139   4.903   9.284
 2128SOL     OW 8280   3.326  11.568   1.282
 2128SOL    HW1 8281   3.368  11.550   1.198
 2128SOL    HW2 8282   3.234  11.545   1.269
 2129SOL     OW 8283  13.265   1.856   7.980
 2129SOL    HW1 8284  13.187   1.813   8.015
 2129SOL    HW2 8285  13.338   1.803   8.014
 2130SOL     OW 8286   0.020   1.254   4.895
 2130SOL    HW1 8287   0.013   1.311   4.972
 2130SOL    HW2 8288  14.870   1.168   4.926
 2131SOL     OW 8289  13.326  12.777   0.229
 2131SOL    HW1 8290  13.381  12.711   0.270
 2131SOL    HW2 8291  13.377  12.809   0.155
 2132SOL     OW 8292   2.267   8.797   3.290
 2132SOL    HW1 8293   2.329   8.801   3.217
 2132SOL    HW2 8294   2.236   8.706   3.289
 2133SOL     OW 8295   8.064   5.962  13.368
 2133SOL    HW1 8296   8.085   5.916  13.450
 2133SOL    HW2 8297   7.986   6.014  13.389
 2134SOL     OW 8298  13.794   4.311   8.707
 2134SOL    HW1 8299  13.740   4.257   8.650
 2134SOL    HW2 8300  13.847   4.364   8.647
 2135SOL     OW 8301   9.232   1.939   6.341
 2135SOL    HW1 8302   9.231   1.972   6.431
 2135SOL    HW2 8303   9.289   2.000   6.294
 2136SOL     OW 8304  12.222   0.203   3.785
 2136SOL    HW1 8305  12.234   0.116   3.824
 2136SOL    HW2 8306  12.203   0.185   3.693
 2137SOL     OW 8307  12.713   1.191   7.087
 2137SOL    HW1 8308  12.800   1.217   7.117
 2137SOL    HW2 8309  12.716   1.198   6.992
 2138SOL     OW 8310   1.630   2.720   4.495
 2138SOL    HW1 8311   1.608   2.628   4.510
 2138SOL    HW2 8312   1.643   2.727   4.400
 2139SOL     OW 8313  11.842   9.978   4.784
 2139SOL    HW1 8314  11.871  10.041   4.718
 2139SOL    HW2 8315  11.922   9.935   4.814
 2140SOL     OW 8316   7.190   5.185  10.160
 2140SOL    HW1 8317   7.178   5.159  10.068
 2140SOL    HW2 8318   7.252   5.257  10.156
 2141SOL     OW 8319   9.456   7.076   8.380
 2141SOL    HW1 8320   9.544   7.112   8.377
 2141SOL    HW2 8321   9.411   7.128   8.447
 2142SOL     OW 8322   6.507   4.299   2.525
 2142SOL    HW1 8323   6.544   4.381   2.493
 2142SOL    HW2 8324   6.581   4.239   2.529
 2143SOL     OW 8325   8.386   4.236   0.201
 2143SOL    HW1 8326   8.453   4.184   0.244
 2143SOL    HW2 8327   8.339   4.279   0.273
 2144SOL     OW 8328  10.560   6.334  11.804
 2144SOL    HW1 8329  10.496   6.289  11.859
 2144SOL    HW2 8330  10.606   6.264  11.759
 2145SOL     OW 8331   1.925   5.202   4.100
 2145SOL    HW1 8332   1.904   5.293   4.080
 2145SOL    HW2 8333   1.858   5.151   4.054
 2146SOL     OW 8334   1.527   0.307   1.222
 2146SOL    HW1 8335   1.570   0.349   1.296
 2146SOL    HW2 8336   1.593   0.249   1.185
 2147SOL     OW 8337   3.241   9.330  11.224
 2147SOL    HW1 8338   3.234   9.298  11.313
 2147SOL    HW2 8339   3.220   9.255  11.169
 2148SOL     OW 8340   7.010  11.982  12.243
 2148SOL    HW1 8341   6.968  12.031  12.313
 2148SOL    HW2 8342   7.102  12.007  12.247
 2149SOL     OW 8343   1.337  12.000   8.593
 2149SOL    HW1 8344   1.289  12.032   8.516
 2149SOL    HW2 8345   1.277  12.014   8.666
 2150SOL     OW 8346   8.113  13.702   7.080
 2150SOL    HW1 8347   8.117  13.642   7.006
 2150SOL    HW2 8348   8.019  13.720   7.091
 2151SOL     OW 8349   4.766   3.387  12.208
 2151SOL    HW1 8350   4.675   3.381  12.236
 2151SOL    HW2 8351   4.763   3.375  12.113
 2152SOL     OW 8352   0.208   4.641   7.254
 2152SOL    HW1 8353   0.114   4.655   7.240
 2152SOL    HW2 8354   0.239   4.604   7.171
 2153SOL     OW 8355   8.136  14.455   6.151
 2153SOL    HW1 8356   8.225  14.488   6.162
 2153SOL    HW2 8357   8.147  14.373   6.102
 2154SOL     OW 8358   0.019   1.689   9.884
 2154SOL    HW1 8359   0.071   1.727   9.814
 2154SOL    HW2 8360  14.832   1.754   9.903
 2155SOL     OW 8361  12.645   5.966  13.291
 2155SOL    HW1 8362  12.646   5.963  13.195
 2155SOL    HW2 8363  12.557   5.999  13.312
 2156SOL     OW 8364   6.845   3.518  10.836
 2156SOL    HW1 8365   6.931   3.560  10.835
 2156SOL    HW2 8366   6.814   3.523  10.746
 2157SOL     OW 8367   1.616   7.093  13.922
 2157SOL    HW1 8368   1.566   7.151  13.979
 2157SOL    HW2 8369   1.552   7.061  13.858
 2158SOL     OW 8370  10.920  12.041   3.214
 2158SOL    HW1 8371  10.919  12.129   3.253
 2158SOL    HW2 8372  10.943  11.983   3.287
 2159SOL     OW 8373  10.398   5.786   6.741
 2159SOL    HW1 8374  10.420   5.874   6.709
 2159SOL    HW2 8375  10.405   5.730   6.663
 2160SOL     OW 8376  13.368   4.411   8.417
 2160SOL    HW1 8377  13.374   4.467   8.339
 2160SOL    HW2 8378  13.315   4.462   8.478
 2161SOL     OW 8379   6.400  12.764   9.918
 2161SOL    HW1 8380   6.449  12.682   9.913
 2161SOL    HW2 8381   6.344  12.764   9.841
 2162SOL     OW 8382   0.483  13.350   7.835
 2162SOL    HW1 8383   0.559  13.291   7.842
 2162SOL    HW2 8384   0.496  13.413   7.905
 2163SOL     OW 8385   6.717  13.717   2.684
 2163SOL    HW1 8386   6.692  13.677   2.768
 2163SOL    HW2 8387   6.714  13.645   2.621
 2164SOL     OW 8388   6.827   9.904  14.811
 2164SOL    HW1 8389   6.750   9.897  14.755
 2164SOL    HW2 8390   6.851   9.814  14.831
 2165SOL     OW 8391  13.188   8.113   6.027
 2165SOL    HW1 8392  13.098   8.142   6.045
 2165SOL    HW2 8393  13.219   8.170   5.957
 2166SOL     OW 8394  13.159   6.328   6.162
 2166SOL    HW1 8395  13.226   6.286   6.108
 2166SOL    HW2 8396  13.204   6.350   6.244
 2167SOL     OW 8397  11.078  14.245   5.952
 2167SOL    HW1 8398  11.071  14.255   5.857
 2167SOL    HW2 8399  10.989  14.225   5.981
 2168SOL     OW 8400  12.094   1.427   2.078
 2168SOL    HW1 8401  12.041   1.383   2.145
 2168SOL    HW2 8402  12.147   1.489   2.127
 2169SOL     OW 8403  14.355   3.292   4.758
 2169SOL    HW1 8404  14.307   3.322   4.681
 2169SOL    HW2 8405  14.445   3.320   4.742
 2170SOL     OW 8406   7.266   4.095   1.515
 2170SOL    HW1 8407   7.177   4.073   1.541
 2170SOL    HW2 8408   7.285   4.036   1.442
 2171SOL     OW 8409   8.222  14.653  14.135
 2171SOL    HW1 8410   8.140  14.648  14.184
 2171SOL    HW2 8411   8.289  14.667  14.202
 2172SOL     OW 8412   3.178  13.052   0.145
 2172SOL    HW1 8413   3.225  12.968   0.141
 2172SOL    HW2 8414   3.086  13.027   0.159
 2173SOL     OW 8415   2.603  11.738  10.839
 2173SOL    HW1 8416   2.633  11.677  10.772
 2173SOL    HW2 8417   2.533  11.787  10.796
 2174SOL     OW 8418   2.461   6.708  14.015
 2174SOL    HW1 8419   2.391   6.740  13.957
 2174SOL    HW2 8420   2.418   6.644  14.071
 2175SOL     OW 8421  11.754   3.521  12.966
 2175SOL    HW1 8422  11.771   3.600  13.016
 2175SOL    HW2 8423  11.837   3.502  12.922
 2176SOL     OW 8424  14.117   1.307   4.980
 2176SOL    HW1 8425  14.083   1.347   4.900
 2176SOL    HW2 8426  14.086   1.217   4.978
 2177SOL     OW 8427  14.090  11.166  11.695
 2177SOL    HW1 8428  14.078  11.190  11.787
 2177SOL    HW2 8429  14.029  11.223  11.647
 2178SOL     OW 8430   9.759   5.363   3.465
 2178SOL    HW1 8431   9.767   5.279   3.420
 2178SOL    HW2 8432   9.736   5.339   3.555
 2179SOL     OW 8433  13.507  13.150  11.724
 2179SOL    HW1 8434  13.431  13.158  11.666
 2179SOL    HW2 8435  13.506  13.232  11.774
 2180SOL     OW 8436   7.639  13.770   8.139
 2180SOL    HW1 8437   7.547  13.748   8.149
 2180SOL    HW2 8438   7.670  13.785   8.229
 2181SOL     OW 8439   0.817   2.754   4.237
 2181SOL    HW1 8440   0.879   2.682   4.225
 2181SOL    HW2 8441   0.803   2.789   4.149
 2182SOL     OW 8442   7.465   0.391  12.611
 2182SOL    HW1 8443   7.476   0.366  12.703
 2182SOL    HW2 8444   7.372   0.410  12.603
 2183SOL     OW 8445  10.078  13.270   6.366
 2183SOL    HW1 8446  10.024  13.194   6.390
 2183SOL    HW2 8447  10.087  13.320   6.447
 2184SOL     OW 8448   9.684   5.249   6.704
 2184SOL    HW1 8449   9.697   5.332   6.750
 2184SOL    HW2 8450   9.596   5.254   6.668
 2185SOL     OW 8451  14.868  13.418   2.470
 2185SOL    HW1 8452  14.835  13.354   2.533
 2185SOL    HW2 8453   0.003  13.368   2.390
 2186SOL     OW 8454   7.551   4.985   0.042
 2186SOL    HW1 8455   7.553   5.071   0.084
 2186SOL    HW2 8456   7.643   4.960   0.035
 2187SOL     OW 8457  11.430  13.790   5.569
 2187SOL    HW1 8458  11.462  13.863   5.516
 2187SOL    HW2 8459  11.465  13.806   5.657
 2188SOL     OW 8460   2.273   8.700   2.046
 2188SOL    HW1 8461   2.281   8.795   2.058
 2188SOL    HW2 8462   2.345   8.678   1.987
 2189SOL     OW 8463  10.053   1.942   8.558
 2189SOL    HW1 8464  10.053   2.031   8.524
 2189SOL    HW2 8465  10.008   1.890   8.491
 2190SOL     OW 8466   6.949   3.346   5.388
 2190SOL    HW1 8467   6.865   3.379   5.419
 2190SOL    HW2 8468   7.000   3.333   5.468
 2191SOL     OW 8469  10.557   8.242   1.232
 2191SOL    HW1 8470  10.625   8.308   1.215
 2191SOL    HW2 8471  10.528   8.260   1.322
 2192SOL     OW 8472  13.913  11.673  14.196
 2192SOL    HW1 8473  13.868  11.755  14.219
 2192SOL    HW2 8474  13.995  11.676  14.245
 2193SOL     OW 8475   8.681   8.920   5.643
 2193SOL    HW1 8476   8.604   8.875   5.609
 2193SOL    HW2 8477   8.645   8.985   5.704
 2194SOL     OW 8478   7.663   4.358   1.201
 2194SOL    HW1 8479   7.639   4.273   1.240
 2194SOL    HW2 8480   7.714   4.336   1.124
 2195SOL     OW 8481   4.950   5.000   5.639
 2195SOL    HW1 8482   4.898   4.932   5.682
 2195SOL    HW2 8483   4.957   5.069   5.705
 2196SOL     OW 8484   2.011   9.040   2.104
 2196SOL    HW1 8485   2.026   9.114   2.163
 2196SOL    HW2 8486   1.947   9.072   2.041
 2197SOL     OW 8487   8.823  12.341   1.053
 2197SOL    HW1 8488   8.820  12.427   1.094
 2197SOL    HW2 8489   8.732  12.314   1.046
 2198SOL     OW 8490   6.087   5.555   8.824
 2198SOL    HW1 8491   6.176   5.584   8.848
 2198SOL    HW2 8492   6.052   5.516   8.905
 2199SOL     OW 8493   9.119   0.426   2.294
 2199SOL    HW1 8494   9.174   0.465   2.226
 2199SOL    HW2 8495   9.131   0.483   2.370
 2200SOL     OW 8496  14.269  14.151  14.010
 2200SOL    HW1 8497  14.326  14.228  14.004
 2200SOL    HW2 8498  14.210  14.170  14.082
 2201SOL     OW 8499   9.054   1.949  11.465
 2201SOL    HW1 8500   8.969   1.992  11.475
 2201SOL    HW2 8501   9.039   1.859  11.493
 2202SOL     OW 8502  14.832  12.873   7.839
 2202SOL    HW1 8503  14.830  12.855   7.745
 2202SOL    HW2 8504  14.750  12.835   7.872
 2203SOL     OW 8505   9.891   7.032   3.517
 2203SOL    HW1 8506   9.804   7.047   3.479
 2203SOL    HW2 8507   9.944   7.001   3.444
 2204SOL     OW 8508  12.836   9.468   7.272
 2204SOL    HW1 8509  12.863   9.555   7.303
 2204SOL    HW2 8510  12.918   9.419   7.267
 2205SOL     OW 8511   7.642  13.337   1.543
 2205SOL    HW1 8512   7.640  13.324   1.638
 2205SOL    HW2 8513   7.722  13.293   1.515
 2206SOL     OW 8514   2.679   0.275   5.785
 2206SOL    HW1 8515   2.741   0.331   5.739
 2206SOL    HW2 8516   2.597   0.286   5.737
 2207SOL     OW 8517  13.009   1.253   4.545
 2207SOL    HW1 8518  13.096   1.274   4.579
 2207SOL    HW2 8519  12.956   1.331   4.561
 2208SOL     OW 8520  11.379   9.772  12.651
 2208SOL    HW1 8521  11.403   9.851  12.699
 2208SOL    HW2 8522  11.347   9.712  12.718
 2209SOL     OW 8523  12.432   5.234  10.757
 2209SOL    HW1 8524  12.470   5.193  10.680
 2209SOL    HW2 8525  12.401   5.320  10.726
 2210SOL     OW 8526   9.808  11.651   8.995
 2210SOL    HW1 8527   9.857  11.657   9.076
 2210SOL    HW2 8528   9.733  11.709   9.008
 2211SOL     OW 8529  14.147   6.071  13.130
 2211SOL    HW1 8530  14.163   6.152  13.179
 2211SOL    HW2 8531  14.229   6.022  13.137
 2212SOL     OW 8532   5.884   9.046   4.056
 2212SOL    HW1 8533   5.942   9.033   4.131
 2212SOL    HW2 8534   5.813   9.100   4.089
 2213SOL     OW 8535  12.934   0.176   6.051
 2213SOL    HW1 8536  12.898   0.210   6.133
 2213SOL    HW2 8537  13.021   0.216   6.045
 2214SOL     OW 8538   5.105   7.479   6.001
 2214SOL    HW1 8539   5.015   7.509   6.011
 2214SOL    HW2 8540   5.102   7.385   6.017
 2215SOL     OW 8541  10.794   5.650   9.009
 2215SOL    HW1 8542  10.807   5.633   8.916
 2215SOL    HW2 8543  10.875   5.692   9.037
 2216SOL     OW 8544   3.778   7.506   2.381
 2216SOL    HW1 8545   3.740   7.517   2.468
 2216SOL    HW2 8546   3.800   7.595   2.353
 2217SOL     OW 8547  11.583  12.788   4.096
 2217SOL    HW1 8548  11.532  12.738   4.160
 2217SOL    HW2 8549  11.642  12.841   4.150
 2218SOL     OW 8550   2.344  11.622   4.332
 2218SOL    HW1 8551   2.376  11.626   4.423
 2218SOL    HW2 8552   2.382  11.699   4.290
 2219SOL     OW 8553   9.582   5.678   8.445
 2219SOL    HW1 8554   9.487   5.668   8.448
 2219SOL    HW2 8555   9.596   5.755   8.389
 2220SOL     OW 8556   2.586   1.758  12.891
 2220SOL    HW1 8557   2.651   1.824  12.915
 2220SOL    HW2 8558   2.518   1.767  12.957
 2221SOL     OW 8559   5.391  10.292   3.450
 2221SOL    HW1 8560   5.315  10.285   3.392
 2221SOL    HW2 8561   5.364  10.251   3.532
 2222SOL     OW 8562  10.489  12.796   6.953
 2222SOL    HW1 8563  10.500  12.882   6.993
 2222SOL    HW2 8564  10.420  12.754   7.005
 2223SOL     OW 8565   5.888   8.820  10.549
 2223SOL    HW1 8566   5.838   8.882  10.602
 2223SOL    HW2 8567   5.975   8.860  10.542
 2224SOL     OW 8568  12.063  10.831   2.956
 2224SOL    HW1 8569  12.093  10.859   3.042
 2224SOL    HW2 8570  12.055  10.911   2.905
 2225SOL     OW 8571  13.333   8.807   3.067
 2225SOL    HW1 8572  13.347   8.713   3.052
 2225SOL    HW2 8573  13.408   8.849   3.023
 2226SOL     OW 8574  14.021  11.866   9.683
 2226SOL    HW1 8575  13.994  11.780   9.717
 2226SOL    HW2 8576  14.024  11.855   9.588
 2227SOL     OW 8577   4.852   6.034  13.643
 2227SOL    HW1 8578   4.828   6.063  13.731
 2227SOL    HW2 8579   4.769   6.012  13.601
 2228SOL     OW 8580   2.127   0.378   8.487
 2228SOL    HW1 8581   2.127   0.452   8.427
 2228SOL    HW2 8582   2.057   0.321   8.455
 2229SOL     OW 8583   5.071  14.164   1.373
 2229SOL    HW1 8584   5.070  14.107   1.296
 2229SOL    HW2 8585   4.985  14.207   1.372
 2230SOL     OW 8586  13.651  11.248   7.984
 2230SOL    HW1 8587  13.731  11.207   8.018
 2230SOL    HW2 8588  13.609  11.287   8.061
 2231SOL     OW 8589  12.863   0.854   1.581
 2231SOL    HW1 8590  12.812   0.822   1.656
 2231SOL    HW2 8591  12.828   0.807   1.506
 2232SOL     OW 8592   9.043   2.407   1.501
 2232SOL    HW1 8593   8.994   2.424   1.421
 2232SOL    HW2 8594   9.080   2.492   1.525
 2233SOL     OW 8595  14.268   5.763   6.762
 2233SOL    HW1 8596  14.219   5.698   6.712
 2233SOL    HW2 8597  14.227   5.846   6.740
 2234SOL     OW 8598  11.614   9.415   3.550
 2234SOL    HW1 8599  11.611   9.326   3.517
 2234SOL    HW2 8600  11.681   9.414   3.618
 2235SOL     OW 8601   6.681   4.459   3.602
 2235SOL    HW1 8602   6.602   4.445   3.550
 2235SOL    HW2 8603   6.649   4.482   3.689
 2236SOL     OW 8604   7.287   6.770   3.847
 2236SOL    HW1 8605   7.276   6.697   3.907
 2236SOL    HW2 8606   7.328   6.839   3.900
 2237SOL     OW 8607   3.727  13.755   4.162
 2237SOL    HW1 8608   3.821  13.753   4.143
 2237SOL    HW2 8609   3.703  13.847   4.158
 2238SOL     OW 8610  11.745  12.236   9.796
 2238SOL    HW1 8611  11.663  12.193   9.773
 2238SOL    HW2 8612  11.741  12.321   9.753
 2239SOL     OW 8613  13.530   5.679   9.859
 2239SOL    HW1 8614  13.590   5.707   9.790
 2239SOL    HW2 8615  13.471   5.753   9.871
 2240SOL     OW 8616   6.058   1.004   7.349
 2240SOL    HW1 8617   6.130   1.006   7.287
 2240SOL    HW2 8618   6.099   0.998   7.435
 2241SOL     OW 8619   4.066   8.831  10.665
 2241SOL    HW1 8620   4.034   8.751  10.706
 2241SOL    HW2 8621   4.082   8.808  10.574
 2242SOL     OW 8622   5.939   6.905   5.085
 2242SOL    HW1 8623   5.874   6.975   5.076
 2242SOL    HW2 8624   6.022   6.951   5.102
 2243SOL     OW 8625  11.022   5.129   1.543
 2243SOL    HW1 8626  11.001   5.218   1.513
 2243SOL    HW2 8627  11.005   5.073   1.467
 2244SOL     OW 8628   4.606   3.492  10.100
 2244SOL    HW1 8629   4.629   3.436  10.175
 2244SOL    HW2 8630   4.683   3.487  10.043
 2245SOL     OW 8631   3.848   3.867   8.157
 2245SOL    HW1 8632   3.832   3.906   8.243
 2245SOL    HW2 8633   3.845   3.773   8.172
 2246SOL     OW 8634   8.214   1.848   7.713
 2246SOL    HW1 8635   8.167   1.782   7.663
 2246SOL    HW2 8636   8.152   1.920   7.722
 2247SOL     OW 8637   7.239   2.823   0.926
 2247SOL    HW1 8638   7.204   2.820   0.837
 2247SOL    HW2 8639   7.166   2.851   0.980
 2248SOL     OW 8640   2.569   9.490   4.636
 2248SOL    HW1 8641   2.609   9.576   4.629
 2248SOL    HW2 8642   2.590   9.460   4.725
 2249SOL     OW 8643   9.280   0.781  12.845
 2249SOL    HW1 8644   9.216   0.840  12.884
 2249SOL    HW2 8645   9.246   0.694  12.861
 2250SOL     OW 8646  10.838   1.218   0.700
 2250SOL    HW1 8647  10.878   1.291   0.748
 2250SOL    HW2 8648  10.866   1.232   0.610
 2251SOL     OW 8649   4.046   0.672   5.809
 2251SOL    HW1 8650   3.985   0.610   5.770
 2251SOL    HW2 8651   3.990   0.738   5.851
 2252SOL     OW 8652   8.060  14.467   9.811
 2252SOL    HW1 8653   8.027  14.425   9.731
 2252SOL    HW2 8654   8.155  14.465   9.801
 2253SOL     OW 8655   3.413  10.791   4.462
 2253SOL    HW1 8656   3.381  10.820   4.377
 2253SOL    HW2 8657   3.406  10.695   4.458
 2254SOL     OW 8658   7.807   4.528   9.058
 2254SOL    HW1 8659   7.711   4.529   9.054
 2254SOL    HW2 8660   7.834   4.532   8.966
 2255SOL     OW 8661  13.385  10.619  10.954
 2255SOL    HW1 8662  13.321  10.633  10.885
 2255SOL    HW2 8663  13.420  10.707  10.973
 2256SOL     OW 8664   6.629  13.263   2.901
 2256SOL    HW1 8665   6.648  13.258   2.808
 2256SOL    HW2 8666   6.535  13.281   2.907
 2257SOL     OW 8667   1.535   7.579   7.334
 2257SOL    HW1 8668   1.567   7.489   7.330
 2257SOL    HW2 8669   1.607   7.631   7.299
 2258SOL     OW 8670   6.047   5.671   5.324
 2258SOL    HW1 8671   5.990   5.717   5.386
 2258SOL    HW2 8672   6.131   5.664   5.369
 2259SOL     OW 8673   8.739   7.554   6.121
 2259SOL    HW1 8674   8.705   7.490   6.059
 2259SOL    HW2 8675   8.765   7.502   6.197
 2260SOL     OW 8676  13.945   7.207  10.725
 2260SOL    HW1 8677  13.972   7.283  10.777
 2260SOL    HW2 8678  13.982   7.223  10.638
 2261SOL     OW 8679   5.606   0.302  12.186
 2261SOL    HW1 8680   5.513   0.284  12.197
 2261SOL    HW2 8681   5.609   0.387  12.142
 2262SOL     OW 8682   3.389   8.939   2.851
 2262SOL    HW1 8683   3.460   8.888   2.890
 2262SOL    HW2 8684   3.312   8.915   2.902
 2263SOL     OW 8685   8.931  13.663   8.357
 2263SOL    HW1 8686   8.843  13.662   8.319
 2263SOL    HW2 8687   8.934  13.585   8.412
 2264SOL     OW 8688  10.462  11.366   6.353
 2264SOL    HW1 8689  10.529  11.325   6.407
 2264SOL    HW2 8690  10.511  11.424   6.294
 2265SOL     OW 8691   0.521  14.257  12.507
 2265SOL    HW1 8692   0.455  14.190  12.489
 2265SOL    HW2 8693   0.587  14.212  12.559
 2266SOL     OW 8694   3.346  14.009   7.057
 2266SOL    HW1 8695   3.268  13.954   7.043
 2266SOL    HW2 8696   3.358  14.055   6.974
 2267SOL     OW 8697   3.942   6.474   8.708
 2267SOL    HW1 8698   4.003   6.418   8.757
 2267SOL    HW2 8699   3.992   6.504   8.632
 2268SOL     OW 8700  12.919   9.369   2.653
 2268SOL    HW1 8701  12.948   9.456   2.681
 2268SOL    HW2 8702  12.825   9.369   2.669
 2269SOL     OW 8703  11.710  14.591   8.573
 2269SOL    HW1 8704  11.694  14.685   8.584
 2269SOL    HW2 8705  11.760  14.585   8.491
 2270SOL     OW 8706   3.093   9.043   4.893
 2270SOL    HW1 8707   3.075   9.110   4.826
 2270SOL    HW2 8708   3.163   8.989   4.856
 2271SOL     OW 8709  14.460  12.864   6.691
 2271SOL    HW1 8710  14.420  12.876   6.604
 2271SOL    HW2 8711  14.386  12.865   6.751
 2272SOL     OW 8712   8.051   0.298   8.298
 2272SOL    HW1 8713   7.992   0.226   8.319
 2272SOL    HW2 8714   8.048   0.304   8.202
 2273SOL     OW 8715   5.185   8.505   4.937
 2273SOL    HW1 8716   5.249   8.525   4.869
 2273SOL    HW2 8717   5.101   8.512   4.893
 2274SOL     OW 8718   9.480  13.712  13.850
 2274SOL    HW1 8719   9.508  13.705  13.941
 2274SOL    HW2 8720   9.384  13.711  13.854
 2275SOL     OW 8721   4.316   4.031   7.242
 2275SOL    HW1 8722   4.243   4.021   7.181
 2275SOL    HW2 8723   4.313   3.952   7.296
 2276SOL     OW 8724  12.356  12.014   6.834
 2276SOL    HW1 8725  12.445  12.050   6.838
 2276SOL    HW2 8726  12.361  11.943   6.770
 2277SOL     OW 8727  11.878  11.687  10.812
 2277SOL    HW1 8728  11.840  11.607  10.777
 2277SOL    HW2 8729  11.807  11.727  10.863
 2278SOL     OW 8730  14.543  12.912   0.499
 2278SOL    HW1 8731  14.497  12.995   0.491
 2278SOL    HW2 8732  14.619  12.932   0.553
 2279SOL     OW 8733  12.250   1.058  11.244
 2279SOL    HW1 8734  12.314   1.008  11.295
 2279SOL    HW2 8735  12.171   1.003  11.245
 2280SOL     OW 8736  14.134   6.761   8.102
 2280SOL    HW1 8737  14.174   6.681   8.137
 2280SOL    HW2 8738  14.171   6.831   8.155
 2281SOL     OW 8739  10.374   6.223  11.946
 2281SOL    HW1 8740  10.417   6.219  12.031
 2281SOL    HW2 8741  10.318   6.301  11.951
 2282SOL     OW 8742   5.624  13.482  14.320
 2282SOL    HW1 8743   5.674  13.449  14.395
 2282SOL    HW2 8744   5.629  13.410  14.256
 2283SOL     OW 8745   8.792  11.324   8.729
 2283SOL    HW1 8746   8.856  11.381   8.686
 2283SOL    HW2 8747   8.812  11.237   8.696
 2284SOL     OW 8748   1.506  10.147   9.752
 2284SOL    HW1 8749   1.496  10.237   9.782
 2284SOL    HW2 8750   1.537  10.154   9.662
 2285SOL     OW 8751   9.415   1.221  10.532
 2285SOL    HW1 8752   9.374   1.167  10.600
 2285SOL    HW2 8753   9.344   1.240  10.470
 2286SOL     OW 8754  14.136   3.323   7.164
 2286SOL    HW1 8755  14.179   3.408   7.161
 2286SOL    HW2 8756  14.203   3.263   7.194
 2287SOL     OW 8757  11.049   5.440   2.582
 2287SOL    HW1 8758  11.144   5.429   2.589
 2287SOL    HW2 8759  11.015   5.350   2.577
 2288SOL     OW 8760   8.436  11.792   4.611
 2288SOL    HW1 8761   8.468  11.851   4.679
 2288SOL    HW2 8762   8.484  11.711   4.624
 2289SOL     OW 8763   8.396   9.134   6.094
 2289SOL    HW1 8764   8.442   9.120   6.176
 2289SOL    HW2 8765   8.308   9.100   6.109
 2290SOL     OW 8766   3.797   3.322   9.787
 2290SOL    HW1 8767   3.820   3.294   9.876
 2290SOL    HW2 8768   3.880   3.354   9.750
 2291SOL     OW 8769   7.756  11.540   5.665
 2291SOL    HW1 8770   7.693  11.537   5.737
 2291SOL    HW2 8771   7.735  11.621   5.617
 2292SOL     OW 8772   0.900   7.742  13.306
 2292SOL    HW1 8773   0.918   7.836  13.295
 2292SOL    HW2 8774   0.813   7.739  13.345
 2293SOL     OW 8775   6.878  11.520   1.999
 2293SOL    HW1 8776   6.852  11.595   2.052
 2293SOL    HW2 8777   6.905  11.454   2.063
 2294SOL     OW 8778   3.878   5.821   5.878
 2294SOL    HW1 8779   3.851   5.734   5.909
 2294SOL    HW2 8780   3.970   5.810   5.855
 2295SOL     OW 8781   7.973   3.705   0.059
 2295SOL    HW1 8782   7.936   3.786   0.092
 2295SOL    HW2 8783   8.054   3.694   0.109
 2296SOL     OW 8784  14.388   7.098   0.956
 2296SOL    HW1 8785  14.472   7.090   1.001
 2296SOL    HW2 8786  14.324   7.065   1.020
 2297SOL     OW 8787  10.355  14.097   5.973
 2297SOL    HW1 8788  10.289  14.052   6.025
 2297SOL    HW2 8789  10.438  14.056   5.998
 2298SOL     OW 8790   5.312   3.300   1.695
 2298SOL    HW1 8791   5.350   3.239   1.632
 2298SOL    HW2 8792   5.276   3.245   1.764
 2299SOL     OW 8793  12.010   6.790   7.407
 2299SOL    HW1 8794  11.961   6.726   7.458
 2299SOL    HW2 8795  11.943   6.842   7.363
 2300SOL     OW 8796   0.933  13.974   6.670
 2300SOL    HW1 8797   0.857  13.930   6.707
 2300SOL    HW2 8798   1.005  13.913   6.683
 2301SOL     OW 8799  10.255   7.161   6.068
 2301SOL    HW1 8800  10.177   7.188   6.020
 2301SOL    HW2 8801  10.286   7.241   6.111
 2302SOL     OW 8802  10.560   0.461   6.733
 2302SOL    HW1 8803  10.491   0.527   6.741
 2302SOL    HW2 8804  10.562   0.418   6.819
 2303SOL     OW 8805   4.785  12.495   4.697
 2303SOL    HW1 8806   4.787  12.548   4.777
 2303SOL    HW2 8807   4.845  12.422   4.716
 2304SOL     OW 8808   3.121   0.886   0.501
 2304SOL    HW1 8809   3.130   0.981   0.503
 2304SOL    HW2 8810   3.147   0.858   0.589
 2305SOL     OW 8811  13.067   7.657   8.564
 2305SOL    HW1 8812  13.072   7.689   8.474
 2305SOL    HW2 8813  13.120   7.718   8.615
 2306SOL     OW 8814  10.942   2.877   5.249
 2306SOL    HW1 8815  11.014   2.940   5.237
 2306SOL    HW2 8816  10.953   2.844   5.338
 2307SOL     OW 8817   1.237  11.251  11.918
 2307SOL    HW1 8818   1.308  11.217  11.972
 2307SOL    HW2 8819   1.247  11.346  11.923
 2308SOL     OW 8820  13.866   8.265  14.613
 2308SOL    HW1 8821  13.772   8.271  14.594
 2308SOL    HW2 8822  13.893   8.182  14.572
 2309SOL     OW 8823  10.173   1.374   5.133
 2309SOL    HW1 8824  10.179   1.388   5.038
 2309SOL    HW2 8825  10.091   1.416   5.159
 2310SOL     OW 8826   7.840  12.596  10.417
 2310SOL    HW1 8827   7.827  12.593  10.323
 2310SOL    HW2 8828   7.872  12.509  10.440
 2311SOL     OW 8829   4.042   2.426  11.409
 2311SOL    HW1 8830   4.048   2.521  11.413
 2311SOL    HW2 8831   4.108   2.400  11.346
 2312SOL     OW 8832  13.567   6.995  11.674
 2312SOL    HW1 8833  13.594   7.082  11.704
 2312SOL    HW2 8834  13.486   7.010  11.626
 2313SOL     OW 8835   0.151   7.150   6.673
 2313SOL    HW1 8836   0.206   7.071   6.668
 2313SOL    HW2 8837   0.071   7.121   6.716
 2314SOL     OW 8838   0.226   7.892   2.796
 2314SOL    HW1 8839   0.176   7.824   2.751
 2314SOL    HW2 8840   0.314   7.884   2.760
 2315SOL     OW 8841  12.107   7.596   5.076
 2315SOL    HW1 8842  12.087   7.509   5.110
 2315SOL    HW2 8843  12.037   7.652   5.110
 2316SOL     OW 8844   0.883  11.153   5.726
 2316SOL    HW1 8845   0.898  11.162   5.632
 2316SOL    HW2 8846   0.940  11.082   5.753
 2317SOL     OW 8847   4.460   4.453  11.914
 2317SOL    HW1 8848   4.420   4.466  11.828
 2317SOL    HW2 8849   4.477   4.359  11.919
 2318SOL     OW 8850   6.504   4.262  13.370
 2318SOL    HW1 8851   6.541   4.228  13.288
 2318SOL    HW2 8852   6.435   4.321  13.341
 2319SOL     OW 8853  11.298  14.805   7.064
 2319SOL    HW1 8854  11.386  14.830   7.095
 2319SOL    HW2 8855  11.313  14.728   7.010
 2320SOL     OW 8856   9.353   0.633   6.072
 2320SOL    HW1 8857   9.408   0.650   5.995
 2320SOL    HW2 8858   9.278   0.690   6.061
 2321SOL     OW 8859   7.578  11.046   6.754
 2321SOL    HW1 8860   7.502  11.015   6.704
 2321SOL    HW2 8861   7.594  10.977   6.819
 2322SOL     OW 8862   7.988  13.194  11.331
 2322SOL    HW1 8863   7.985  13.239  11.416
 2322SOL    HW2 8864   7.896  13.179  11.309
 2323SOL     OW 8865   7.107   3.248   6.684
 2323SOL    HW1 8866   7.092   3.179   6.748
 2323SOL    HW2 8867   7.034   3.240   6.623
 2324SOL     OW 8868   9.356   8.754  14.657
 2324SOL    HW1 8869   9.271   8.755  14.612
 2324SOL    HW2 8870   9.357   8.835  14.708
 2325SOL     OW 8871  11.723   9.942   0.947
 2325SOL    HW1 8872  11.755  10.031   0.958
 2325SOL    HW2 8873  11.769   9.891   1.013
 2326SOL     OW 8874   3.837   1.640   7.761
 2326SOL    HW1 8875   3.797   1.723   7.733
 2326SOL    HW2 8876   3.898   1.666   7.831
 2327SOL     OW 8877  10.496  14.642   5.376
 2327SOL    HW1 8878  10.413  14.677   5.345
 2327SOL    HW2 8879  10.472  14.568   5.432
 2328SOL     OW 8880  10.251   2.842   2.723
 2328SOL    HW1 8881  10.256   2.934   2.748
 2328SOL    HW2 8882  10.159   2.819   2.731
 2329SOL     OW 8883  11.473  11.477   9.429
 2329SOL    HW1 8884  11.538  11.461   9.360
 2329SOL    HW2 8885  11.513  11.441   9.508
 2330SOL     OW 8886   6.744  12.924   3.952
 2330SOL    HW1 8887   6.659  12.880   3.961
 2330SOL    HW2 8888   6.747  12.986   4.025
 2331SOL     OW 8889  10.794   4.621   2.960
 2331SOL    HW1 8890  10.759   4.689   2.903
 2331SOL    HW2 8891  10.720   4.562   2.975
 2332SOL     OW 8892   1.038  13.807  11.829
 2332SOL    HW1 8893   1.124  13.784  11.865
 2332SOL    HW2 8894   0.975  13.766  11.888
 2333SOL     OW 8895   2.471   3.472   9.741
 2333SOL    HW1 8896   2.443   3.553   9.782
 2333SOL    HW2 8897   2.514   3.423   9.811
 2334SOL     OW 8898  14.634   0.495  13.502
 2334SOL    HW1 8899  14.727   0.475  13.512
 2334SOL    HW2 8900  14.605   0.443  13.427
 2335SOL     OW 8901  12.642   9.838   4.469
 2335SOL    HW1 8902  12.731   9.849   4.503
 2335SOL    HW2 8903  12.609   9.928   4.460
 2336SOL     OW 8904  13.925   0.618  13.517
 2336SOL    HW1 8905  13.974   0.658  13.588
 2336SOL    HW2 8906  13.987   0.614  13.444
 2337SOL     OW 8907   9.857  12.006   7.920
 2337SOL    HW1 8908   9.887  11.919   7.945
 2337SOL    HW2 8909   9.832  12.048   8.002
 2338SOL     OW 8910   3.508   2.061   0.542
 2338SOL    HW1 8911   3.572   2.018   0.599
 2338SOL    HW2 8912   3.425   2.052   0.589
 2339SOL     OW 8913  12.241   3.143  13.702
 2339SOL    HW1 8914  12.275   3.107  13.620
 2339SOL    HW2 8915  12.168   3.086  13.725
 2340SOL     OW 8916   0.298   2.461   5.547
 2340SOL    HW1 8917   0.373   2.517   5.527
 2340SOL    HW2 8918   0.328   2.373   5.527
 2341SOL     OW 8919  10.835   0.246  10.896
 2341SOL    HW1 8920  10.904   0.229  10.960
 2341SOL    HW2 8921  10.865   0.203  10.816
 2342SOL     OW 8922   5.757   7.182  10.454
 2342SOL    HW1 8923   5.840   7.155  10.414
 2342SOL    HW2 8924   5.732   7.107  10.508
 2343SOL     OW 8925  11.435  14.257   7.690
 2343SOL    HW1 8926  11.476  14.181   7.648
 2343SOL    HW2 8927  11.369  14.219   7.748
 2344SOL     OW 8928   5.714  14.083   7.868
 2344SOL    HW1 8929   5.781  14.019   7.844
 2344SOL    HW2 8930   5.689  14.059   7.957
 2345SOL     OW 8931   8.208   7.952   5.911
 2345SOL    HW1 8932   8.168   7.865   5.919
 2345SOL    HW2 8933   8.159   8.007   5.971
 2346SOL     OW 8934   6.448   5.685   4.810
 2346SOL    HW1 8935   6.383   5.725   4.752
 2346SOL    HW2 8936   6.468   5.754   4.873
 2347SOL     OW 8937   3.291   5.275  13.554
 2347SOL    HW1 8938   3.296   5.366  13.524
 2347SOL    HW2 8939   3.347   5.227  13.493
 2348SOL     OW 8940   1.232   8.475  11.073
 2348SOL    HW1 8941   1.298   8.517  11.129
 2348SOL    HW2 8942   1.279   8.453  10.993
 2349SOL     OW 8943   5.833   2.555   1.814
 2349SOL    HW1 8944   5.787   2.588   1.737
 2349SOL    HW2 8945   5.812   2.617   1.884
 2350SOL     OW 8946   4.732  14.301   8.349
 2350SOL    HW1 8947   4.814  14.258   8.326
 2350SOL    HW2 8948   4.682  14.234   8.395
 2351SOL     OW 8949   9.648   9.899   8.760
 2351SOL    HW1 8950   9.598   9.977   8.734
 2351SOL    HW2 8951   9.675   9.859   8.677
 2352SOL     OW 8952   2.315   4.703   6.766
 2352SOL    HW1 8953   2.354   4.662   6.843
 2352SOL    HW2 8954   2.249   4.762   6.801
 2353SOL     OW 8955   5.520   0.219  11.765
 2353SOL    HW1 8956   5.530   0.145  11.706
 2353SOL    HW2 8957   5.603   0.225  11.812
 2354SOL     OW 8958  14.058   5.139  12.009
 2354SOL    HW1 8959  14.131   5.195  11.981
 2354SOL    HW2 8960  14.098   5.052  12.017
 2355SOL     OW 8961   0.473   0.654  13.982
 2355SOL    HW1 8962   0.398   0.602  14.009
 2355SOL    HW2 8963   0.471   0.731  14.040
 2356SOL     OW 8964   0.912   0.875   3.122
 2356SOL    HW1 8965   0.912   0.853   3.029
 2356SOL    HW2 8966   0.884   0.794   3.165
 2357SOL     OW 8967   1.732   4.027  13.166
 2357SOL    HW1 8968   1.666   3.993  13.105
 2357SOL    HW2 8969   1.714   3.983  13.248
 2358SOL     OW 8970  14.405   3.817  11.768
 2358SOL    HW1 8971  14.344   3.866  11.714
 2358SOL    HW2 8972  14.350   3.761  11.823
 2359SOL     OW 8973  13.865   5.200   2.854
 2359SOL    HW1 8974  13.884   5.125   2.911
 2359SOL    HW2 8975  13.946   5.250   2.852
 2360SOL     OW 8976   8.357  12.297   5.528
 2360SOL    HW1 8977   8.282  12.262   5.576
 2360SOL    HW2 8978   8.430  12.288   5.590
 2361SOL     OW 8979  12.168   1.109   5.202
 2361SOL    HW1 8980  12.235   1.171   5.175
 2361SOL    HW2 8981  12.117   1.155   5.268
 2362SOL     OW 8982   5.989  12.994  14.065
 2362SOL    HW1 8983   6.077  13.020  14.095
 2362SOL    HW2 8984   6.000  12.972  13.973
 2363SOL     OW 8985   2.599   1.141   3.725
 2363SOL    HW1 8986   2.601   1.194   3.646
 2363SOL    HW2 8987   2.546   1.065   3.702
 2364SOL     OW 8988  12.781   3.873   8.346
 2364SOL    HW1 8989  12.800   3.805   8.281
 2364SOL    HW2 8990  12.688   3.861   8.365
 2365SOL     OW 8991   0.603   9.598  14.384
 2365SOL    HW1 8992   0.696   9.621  14.384
 2365SOL    HW2 8993   0.571   9.624  14.471
 2366SOL     OW 8994   1.422   2.635  12.757
 2366SOL    HW1 8995   1.341   2.680  12.780
 2366SOL    HW2 8996   1.406   2.543  12.779
 2367SOL     OW 8997   3.117  12.763  13.736
 2367SOL    HW1 8998   3.187  12.759  13.671
 2367SOL    HW2 8999   3.109  12.674  13.769
 2368SOL     OW 9000   3.495  10.701   8.261
 2368SOL    HW1 9001   3.421  10.708   8.200
 2368SOL    HW2 9002   3.516  10.791   8.285
 2369SOL     OW 9003   2.648   7.907   4.218
 2369SOL    HW1 9004   2.735   7.942   4.201
 2369SOL    HW2 9005   2.664   7.823   4.262
 2370SOL     OW 9006   3.310   4.762   4.931
 2370SOL    HW1 9007   3.329   4.845   4.888
 2370SOL    HW2 9008   3.340   4.773   5.021
 2371SOL     OW 9009   3.479   8.862  12.707
 2371SOL    HW1 9010   3.555   8.913  12.735
 2371SOL    HW2 9011   3.489   8.855  12.612
 2372SOL     OW 9012   5.343  13.942   9.089
 2372SOL    HW1 9013   5.357  13.951   9.183
 2372SOL    HW2 9014   5.330  13.848   9.075
 2373SOL     OW 9015  13.664   9.372  12.911
 2373SOL    HW1 9016  13.693   9.281  12.915
 2373SOL    HW2 9017  13.635   9.384  12.820
 2374SOL     OW 9018   2.516  12.750   9.673
 2374SOL    HW1 9019   2.597  12.788   9.708
 2374SOL    HW2 9020   2.533  12.742   9.579
 2375SOL     OW 9021  10.989   5.841   5.147
 2375SOL    HW1 9022  10.966   5.919   5.197
 2375SOL    HW2 9023  10.973   5.865   5.056
 2376SOL     OW 9024  14.109   3.467  12.951
 2376SOL    HW1 9025  14.141   3.557  12.946
 2376SOL    HW2 9026  14.188   3.414  12.958
 2377SOL     OW 9027   1.222   4.842  11.646
 2377SOL    HW1 9028   1.227   4.920  11.591
 2377SOL    HW2 9029   1.261   4.773  11.594
 2378SOL     OW 9030   4.408   3.935   6.313
 2378SOL    HW1 9031   4.402   3.847   6.350
 2378SOL    HW2 9032   4.338   3.939   6.248
 2379SOL     OW 9033   4.199   7.049   0.740
 2379SOL    HW1 9034   4.142   7.094   0.802
 2379SOL    HW2 9035   4.140   7.017   0.672
 2380SOL     OW 9036  14.614   1.102   4.085
 2380SOL    HW1 9037  14.657   1.060   4.160
 2380SOL    HW2 9038  14.679   1.165   4.053
 2381SOL     OW 9039  12.919  14.539   9.336
 2381SOL    HW1 9040  12.952  14.629   9.340
 2381SOL    HW2 9041  12.944  14.501   9.420
 2382SOL     OW 9042   2.038  12.567   0.488
 2382SOL    HW1 9043   1.999  12.544   0.403
 2382SOL    HW2 9044   2.128  12.538   0.481
 2383SOL     OW 9045   0.003   3.633  10.977
 2383SOL    HW1 9046   0.051   3.715  10.989
 2383SOL    HW2 9047   0.031   3.579  11.051
 2384SOL     OW 9048   6.570  14.806   9.763
 2384SOL    HW1 9049   6.521  14.761   9.694
 2384SOL    HW2 9050   6.624  14.869   9.716
 2385SOL     OW 9051   3.007   3.522   1.188
 2385SOL    HW1 9052   3.027   3.430   1.176
 2385SOL    HW2 9053   3.057   3.547   1.266
 2386SOL     OW 9054   5.391  10.131  14.823
 2386SOL    HW1 9055   5.339  10.109  14.746
 2386SOL    HW2 9056   5.327  10.159   0.008
 2387SOL     OW 9057  12.738   1.070   5.735
 2387SOL    HW1 9058  12.661   1.015   5.720
 2387SOL    HW2 9059  12.710   1.133   5.801
 2388SOL     OW 9060  11.798   5.528   2.248
 2388SOL    HW1 9061  11.704   5.530   2.264
 2388SOL    HW2 9062  11.823   5.619   2.236
 2389SOL     OW 9063  13.661  13.879   6.950
 2389SOL    HW1 9064  13.748  13.899   6.985
 2389SOL    HW2 9065  13.663  13.785   6.931
 2390SOL     OW 9066  14.044   7.028   9.118
 2390SOL    HW1 9067  13.988   6.954   9.096
 2390SOL    HW2 9068  14.018   7.097   9.057
 2391SOL     OW 9069  12.309   0.578  14.632
 2391SOL    HW1 9070  12.320   0.545  14.721
 2391SOL    HW2 9071  12.336   0.506  14.576
 2392SOL     OW 9072   0.698  13.989   4.509
 2392SOL    HW1 9073   0.784  13.978   4.548
 2392SOL    HW2 9074   0.709  13.964   4.417
 2393SOL     OW 9075  11.569   7.317  14.796
 2393SOL    HW1 9076  11.543   7.405  14.822
 2393SOL    HW2 9077  11.603   7.328  14.707
 2394SOL     OW 9078   8.182   0.977  11.998
 2394SOL    HW1 9079   8.260   0.935  11.963
 2394SOL    HW2 9080   8.113   0.957  11.935
 2395SOL     OW 9081   2.872   8.151   3.713
 2395SOL    HW1 9082   2.920   8.233   3.702
 2395SOL    HW2 9083   2.894   8.122   3.802
 2396SOL     OW 9084   2.086  10.314  14.025
 2396SOL    HW1 9085   2.144  10.345  14.094
 2396SOL    HW2 9086   1.998  10.323  14.062
 2397SOL     OW 9087   5.021  14.808   7.313
 2397SOL    HW1 9088   5.059  14.723   7.291
 2397SOL    HW2 9089   4.990  14.798   7.403
 2398SOL     OW 9090   5.857  14.677   5.857
 2398SOL    HW1 9091   5.769  14.642   5.877
 2398SOL    HW2 9092   5.861  14.676   5.762
 2399SOL     OW 9093  10.421   4.226  14.386
 2399SOL    HW1 9094  10.394   4.137  14.408
 2399SOL    HW2 9095  10.515   4.220  14.369
 2400SOL     OW 9096   0.167  10.779   7.276
 2400SOL    HW1 9097   0.130  10.691   7.271
 2400SOL    HW2 9098   0.258  10.765   7.304
 2401SOL     OW 9099   7.340   9.293  12.931
 2401SOL    HW1 9100   7.328   9.239  13.010
 2401SOL    HW2 9101   7.390   9.369  12.961
 2402SOL     OW 9102   8.007   7.667   9.043
 2402SOL    HW1 9103   8.067   7.593   9.035
 2402SOL    HW2 9104   7.934   7.634   9.094
 2403SOL     OW 9105   7.102  12.370   8.396
 2403SOL    HW1 9106   7.074  12.436   8.460
 2403SOL    HW2 9107   7.186  12.339   8.428
 2404SOL     OW 9108   7.146  14.358  11.493
 2404SOL    HW1 9109   7.195  14.325  11.418
 2404SOL    HW2 9110   7.211  14.368  11.562
 2405SOL     OW 9111   9.469   2.865  10.863
 2405SOL    HW1 9112   9.468   2.809  10.786
 2405SOL    HW2 9113   9.435   2.809  10.933
 2406SOL     OW 9114  14.445   9.519   7.850
 2406SOL    HW1 9115  14.528   9.560   7.875
 2406SOL    HW2 9116  14.462   9.480   7.764
 2407SOL     OW 9117   2.832  11.399  14.213
 2407SOL    HW1 9118   2.888  11.342  14.266
 2407SOL    HW2 9119   2.795  11.461  14.275
 2408SOL     OW 9120   3.469  13.986   6.031
 2408SOL    HW1 9121   3.554  14.024   6.008
 2408SOL    HW2 9122   3.405  14.045   5.991
 2409SOL     OW 9123  11.628  13.847   1.624
 2409SOL    HW1 9124  11.677  13.837   1.705
 2409SOL    HW2 9125  11.543  13.807   1.642
 2410SOL     OW 9126   2.720   8.009   2.780
 2410SOL    HW1 9127   2.685   8.046   2.861
 2410SOL    HW2 9128   2.713   7.914   2.792
 2411SOL     OW 9129   8.136   4.143  14.429
 2411SOL    HW1 9130   8.070   4.107  14.488
 2411SOL    HW2 9131   8.176   4.215  14.478
 2412SOL     OW 9132  11.711  10.816  13.690
 2412SOL    HW1 9133  11.737  10.727  13.666
 2412SOL    HW2 9134  11.670  10.851  13.611
 2413SOL     OW 9135  13.526  13.008  12.292
 2413SOL    HW1 9136  13.573  12.965  12.363
 2413SOL    HW2 9137  13.520  12.941  12.223
 2414SOL     OW 9138   3.336   2.286   3.592
 2414SOL    HW1 9139   3.338   2.259   3.684
 2414SOL    HW2 9140   3.388   2.366   3.589
 2415SOL     OW 9141   5.127   0.155   4.260
 2415SOL    HW1 9142   5.067   0.217   4.300
 2415SOL    HW2 9143   5.095   0.144   4.170
 2416SOL     OW 9144   3.362  12.286   5.077
 2416SOL    HW1 9145   3.372  12.213   5.138
 2416SOL    HW2 9146   3.412  12.358   5.118
 2417SOL     OW 9147   4.772   1.826   7.573
 2417SOL    HW1 9148   4.717   1.889   7.621
 2417SOL    HW2 9149   4.856   1.829   7.618
 2418SOL     OW 9150  12.067  13.546  14.813
 2418SOL    HW1 9151  12.078  13.498  14.731
 2418SOL    HW2 9152  12.139  13.610  14.813
 2419SOL     OW 9153   9.740  10.467  11.717
 2419SOL    HW1 9154   9.814  10.470  11.778
 2419SOL    HW2 9155   9.703  10.556  11.721
 2420SOL     OW 9156   1.420   9.539  10.784
 2420SOL    HW1 9157   1.489   9.580  10.837
 2420SOL    HW2 9158   1.357   9.610  10.769
 2421SOL     OW 9159   6.133   9.493   6.674
 2421SOL    HW1 9160   6.155   9.411   6.719
 2421SOL    HW2 9161   6.146   9.561   6.741
 2422SOL     OW 9162   7.963   1.731   7.510
 2422SOL    HW1 9163   7.884   1.776   7.540
 2422SOL    HW2 9164   7.949   1.639   7.533
 2423SOL     OW 9165   7.076   5.784   3.585
 2423SOL    HW1 9166   7.118   5.805   3.668
 2423SOL    HW2 9167   7.051   5.870   3.549
 2424SOL     OW 9168   0.787   4.597   3.388
 2424SOL    HW1 9169   0.850   4.528   3.410
 2424SOL    HW2 9170   0.789   4.657   3.463
 2425SOL     OW 9171   6.004  13.093   7.690
 2425SOL    HW1 9172   5.969  13.063   7.774
 2425SOL    HW2 9173   5.967  13.181   7.678
 2426SOL     OW 9174   5.050   8.623   3.189
 2426SOL    HW1 9175   5.051   8.542   3.138
 2426SOL    HW2 9176   5.119   8.676   3.150
 2427SOL     OW 9177   4.081   3.221  14.006
 2427SOL    HW1 9178   4.017   3.213  13.935
 2427SOL    HW2 9179   4.042   3.283  14.067
 2428SOL     OW 9180   9.482  11.178   5.397
 2428SOL    HW1 9181   9.565  11.180   5.350
 2428SOL    HW2 9182   9.507  11.177   5.490
 2429SOL     OW 9183   3.951  13.812  11.505
 2429SOL    HW1 9184   3.998  13.788  11.585
 2429SOL    HW2 9185   4.021  13.836  11.443
 2430SOL     OW 9186  10.423   9.519  14.860
 2430SOL    HW1 9187  10.363   9.453   0.013
 2430SOL    HW2 9188  10.411   9.595   0.037
 2431SOL     OW 9189   1.736  11.880   8.204
 2431SOL    HW1 9190   1.706  11.917   8.287
 2431SOL    HW2 9191   1.656  11.864   8.154
 2432SOL     OW 9192   8.659   9.602   7.868
 2432SOL    HW1 9193   8.715   9.641   7.801
 2432SOL    HW2 9194   8.698   9.629   7.951
 2433SOL     OW 9195   8.854   6.709   8.654
 2433SOL    HW1 9196   8.903   6.642   8.702
 2433SOL    HW2 9197   8.803   6.659   8.590
 2434SOL     OW 9198  11.106  12.885  11.724
 2434SOL    HW1 9199  11.115  12.971  11.764
 2434SOL    HW2 9200  11.037  12.842  11.774
 2435SOL     OW 9201   0.961   8.685   2.569
 2435SOL    HW1 9202   0.995   8.689   2.658
 2435SOL    HW2 9203   1.029   8.639   2.519
 2436SOL     OW 9204  13.219   9.447   5.511
 2436SOL    HW1 9205  13.229   9.524   5.567
 2436SOL    HW2 9206  13.124   9.436   5.503
 2437SOL     OW 9207   8.764   3.934   8.889
 2437SOL    HW1 9208   8.796   3.975   8.970
 2437SOL    HW2 9209   8.740   3.845   8.915
 2438SOL     OW 9210  12.015   8.508  14.180
 2438SOL    HW1 9211  11.948   8.480  14.242
 2438SOL    HW2 9212  11.985   8.474  14.096
 2439SOL     OW 9213   7.628   9.904   0.696
 2439SOL    HW1 9214   7.657   9.838   0.633
 2439SOL    HW2 9215   7.537   9.922   0.672
 2440SOL     OW 9216  13.960   2.527   0.768
 2440SOL    HW1 9217  13.949   2.528   0.863
 2440SOL    HW2 9218  13.966   2.434   0.745
 2441SOL     OW 9219   2.598  12.351   0.843
 2441SOL    HW1 9220   2.524  12.293   0.860
 2441SOL    HW2 9221   2.600  12.411   0.917
 2442SOL     OW 9222  12.416   7.168   5.226
 2442SOL    HW1 9223  12.373   7.083   5.214
 2442SOL    HW2 9224  12.504   7.145   5.255
 2443SOL     OW 9225   4.875   2.277  11.017
 2443SOL    HW1 9226   4.919   2.354  10.981
 2443SOL    HW2 9227   4.854   2.302  11.107
 2444SOL     OW 9228   1.979   3.847   9.281
 2444SOL    HW1 9229   2.008   3.885   9.199
 2444SOL    HW2 9230   2.056   3.850   9.338
 2445SOL     OW 9231   7.908   1.714  13.834
 2445SOL    HW1 9232   8.000   1.711  13.860
 2445SOL    HW2 9233   7.910   1.711  13.739
 2446SOL     OW 9234  12.848   6.829   7.729
 2446SOL    HW1 9235  12.831   6.785   7.646
 2446SOL    HW2 9236  12.938   6.860   7.723
 2447SOL     OW 9237   1.818   0.394   7.831
 2447SOL    HW1 9238   1.803   0.474   7.880
 2447SOL    HW2 9239   1.766   0.404   7.751
 2448SOL     OW 9240   7.685   2.384   2.779
 2448SOL    HW1 9241   7.774   2.386   2.813
 2448SOL    HW2 9242   7.670   2.472   2.743
 2449SOL     OW 9243   1.312   9.806  10.695
 2449SOL    HW1 9244   1.402   9.815  10.664
 2449SOL    HW2 9245   1.273   9.892  10.680
 2450SOL     OW 9246   4.742  11.923   3.891
 2450SOL    HW1 9247   4.668  11.926   3.831
 2450SOL    HW2 9248   4.719  11.854   3.954
 2451SOL     OW 9249  11.945   4.714   2.799
 2451SOL    HW1 9250  11.996   4.669   2.732
 2451SOL    HW2 9251  11.911   4.793   2.756
 2452SOL     OW 9252   7.290   0.414   5.249
 2452SOL    HW1 9253   7.242   0.343   5.291
 2452SOL    HW2 9254   7.334   0.373   5.175
 2453SOL     OW 9255  14.787   2.973  13.898
 2453SOL    HW1 9256  14.694   2.973  13.878
 2453SOL    HW2 9257  14.826   3.031  13.833
 2454SOL     OW 9258   9.677   4.728  11.402
 2454SOL    HW1 9259   9.762   4.770  11.391
 2454SOL    HW2 9260   9.689   4.669  11.476
 2455SOL     OW 9261  10.881   2.364  11.577
 2455SOL    HW1 9262  10.964   2.319  11.562
 2455SOL    HW2 9263  10.817   2.315  11.526
 2456SOL     OW 9264   4.475  11.512  11.612
 2456SOL    HW1 9265   4.498  11.431  11.657
 2456SOL    HW2 9266   4.379  11.511  11.608
 2457SOL     OW 9267  12.772   5.388   9.100
 2457SOL    HW1 9268  12.697   5.434   9.136
 2457SOL    HW2 9269  12.829   5.372   9.175
 2458SOL     OW 9270  13.679   2.327  13.296
 2458SOL    HW1 9271  13.717   2.411  13.320
 2458SOL    HW2 9272  13.651   2.288  13.378
 2459SOL     OW 9273  12.782   4.873   8.796
 2459SOL    HW1 9274  12.696   4.915   8.802
 2459SOL    HW2 9275  12.781   4.827   8.712
 2460SOL     OW 9276   1.762   5.019   6.635
 2460SOL    HW1 9277   1.834   4.991   6.691
 2460SOL    HW2 9278   1.722   4.938   6.603
 2461SOL     OW 9279  11.386  13.263  12.545
 2461SOL    HW1 9280  11.306  13.294  12.504
 2461SOL    HW2 9281  11.357  13.218  12.625
 2462SOL     OW 9282   2.678  14.797   9.506
 2462SOL    HW1 9283   2.718  14.729   9.561
 2462SOL    HW2 9284   2.741  14.869   9.507
 2463SOL     OW 9285   6.606  14.048  11.100
 2463SOL    HW1 9286   6.633  14.021  11.012
 2463SOL    HW2 9287   6.548  14.123  11.085
 2464SOL     OW 9288   4.324   4.488   3.362
 2464SOL    HW1 9289   4.356   4.525   3.445
 2464SOL    HW2 9290   4.362   4.400   3.359
 2465SOL     OW 9291   4.250  14.690  13.224
 2465SOL    HW1 9292   4.339  14.702  13.191
 2465SOL    HW2 9293   4.220  14.779  13.244
 2466SOL     OW 9294   4.996   1.670  10.496
 2466SOL    HW1 9295   5.025   1.743  10.551
 2466SOL    HW2 9296   4.903   1.687  10.480
 2467SOL     OW 9297   3.276  11.967   3.941
 2467SOL    HW1 9298   3.243  12.051   3.910
 2467SOL    HW2 9299   3.358  11.954   3.893
 2468SOL     OW 9300  11.605  10.800   1.713
 2468SOL    HW1 9301  11.578  10.878   1.665
 2468SOL    HW2 9302  11.539  10.734   1.690
 2469SOL     OW 9303  11.333   2.362  10.041
 2469SOL    HW1 9304  11.268   2.428  10.065
 2469SOL    HW2 9305  11.412   2.412  10.023
 2470SOL     OW 9306  13.795   2.350   1.777
 2470SOL    HW1 9307  13.833   2.396   1.703
 2470SOL    HW2 9308  13.860   2.283   1.800
 2471SOL     OW 9309  12.657   7.164   9.498
 2471SOL    HW1 9310  12.661   7.144   9.405
 2471SOL    HW2 9311  12.743   7.141   9.532
 2472SOL     OW 9312   9.462  13.252   6.210
 2472SOL    HW1 9313   9.447  13.312   6.283
 2472SOL    HW2 9314   9.386  13.194   6.212
 2473SOL     OW 9315   2.540  11.663  12.854
 2473SOL    HW1 9316   2.581  11.718  12.786
 2473SOL    HW2 9317   2.509  11.726  12.919
 2474SOL     OW 9318   0.228  10.330   5.547
 2474SOL    HW1 9319   0.236  10.266   5.476
 2474SOL    HW2 9320   0.134  10.351   5.549
 2475SOL     OW 9321  14.096   4.619   6.286
 2475SOL    HW1 9322  14.070   4.645   6.375
 2475SOL    HW2 9323  14.154   4.544   6.300
 2476SOL     OW 9324  10.112  14.335  13.497
 2476SOL    HW1 9325  10.109  14.431  13.498
 2476SOL    HW2 9326  10.060  14.308  13.573
 2477SOL     OW 9327  12.295  10.571   0.910
 2477SOL    HW1 9328  12.261  10.499   0.856
 2477SOL    HW2 9329  12.389  10.569   0.897
 2478SOL     OW 9330   0.264  12.104   2.585
 2478SOL    HW1 9331   0.257  12.135   2.675
 2478SOL    HW2 9332   0.315  12.024   2.590
 2479SOL     OW 9333   6.333   9.411   3.512
 2479SOL    HW1 9334   6.261   9.415   3.448
 2479SOL    HW2 9335   6.349   9.503   3.535
 2480SOL     OW 9336   9.439  11.102   8.071
 2480SOL    HW1 9337   9.349  11.112   8.041
 2480SOL    HW2 9338   9.445  11.158   8.148
 2481SOL     OW 9339   9.644   5.424  10.983
 2481SOL    HW1 9340   9.739   5.437  10.990
 2481SOL    HW2 9341   9.624   5.360  11.051
 2482SOL     OW 9342   9.830  10.209   7.963
 2482SOL    HW1 9343   9.797  10.283   7.912
 2482SOL    HW2 9344   9.822  10.238   8.054
 2483SOL     OW 9345  14.426   8.084   5.729
 2483SOL    HW1 9346  14.374   8.159   5.758
 2483SOL    HW2 9347  14.362   8.014   5.716
 2484SOL     OW 9348  13.616   6.976   4.630
 2484SOL    HW1 9349  13.622   6.904   4.693
 2484SOL    HW2 9350  13.524   6.978   4.605
 2485SOL     OW 9351  14.797   6.357   3.278
 2485SOL    HW1 9352  14.866   6.327   3.218
 2485SOL    HW2 9353  14.726   6.384   3.220
 2486SOL     OW 9354  12.840   7.818  10.127
 2486SOL    HW1 9355  12.767   7.772  10.086
 2486SOL    HW2 9356  12.801   7.899  10.161
 2487SOL     OW 9357  14.537   6.380   6.444
 2487SOL    HW1 9358  14.462   6.370   6.501
 2487SOL    HW2 9359  14.534   6.303   6.386
 2488SOL     OW 9360   9.104   3.813   4.312
 2488SOL    HW1 9361   9.179   3.760   4.341
 2488SOL    HW2 9362   9.142   3.899   4.293
 2489SOL     OW 9363   4.902   4.642   0.872
 2489SOL    HW1 9364   4.834   4.656   0.807
 2489SOL    HW2 9365   4.907   4.725   0.920
 2490SOL     OW 9366   2.992   3.605  14.562
 2490SOL    HW1 9367   3.068   3.584  14.616
 2490SOL    HW2 9368   3.025   3.667  14.496
 2491SOL     OW 9369   1.536  12.911   6.431
 2491SOL    HW1 9370   1.466  12.846   6.438
 2491SOL    HW2 9371   1.592  12.879   6.360
 2492SOL     OW 9372   1.244  13.537  11.544
 2492SOL    HW1 9373   1.265  13.467  11.482
 2492SOL    HW2 9374   1.154  13.563  11.521
 2493SOL     OW 9375   2.631  13.172  13.584
 2493SOL    HW1 9376   2.654  13.133  13.499
 2493SOL    HW2 9377   2.678  13.118  13.648
 2494SOL     OW 9378  12.124   8.144   3.173
 2494SOL    HW1 9379  12.152   8.124   3.262
 2494SOL    HW2 9380  12.114   8.239   3.172
 2495SOL     OW 9381  10.838   7.437  13.544
 2495SOL    HW1 9382  10.805   7.518  13.583
 2495SOL    HW2 9383  10.908   7.408  13.602
 2496SOL     OW 9384   8.549  12.759   6.800
 2496SOL    HW1 9385   8.530  12.760   6.707
 2496SOL    HW2 9386   8.549  12.851   6.826
 2497SOL     OW 9387  13.276   9.860  11.371
 2497SOL    HW1 9388  13.228   9.794  11.421
 2497SOL    HW2 9389  13.227   9.941  11.385
 2498SOL     OW 9390   4.297   4.805  13.003
 2498SOL    HW1 9391   4.348   4.845  12.933
 2498SOL    HW2 9392   4.359   4.749  13.050
 2499SOL     OW 9393  13.596   1.514   6.154
 2499SOL    HW1 9394  13.626   1.423   6.158
 2499SOL    HW2 9395  13.517   1.515   6.208
 2500SOL     OW 9396   1.240   1.789   7.547
 2500SOL    HW1 9397   1.285   1.706   7.533
 2500SOL    HW2 9398   1.255   1.838   7.466
 2501SOL     OW 9399   7.565  11.469  12.984
 2501SOL    HW1 9400   7.652  11.432  12.999
 2501SOL    HW2 9401   7.521  11.405  12.929
 2502SOL     OW 9402   6.498  10.631   8.957
 2502SOL    HW1 9403   6.452  10.622   9.040
 2502SOL    HW2 9404   6.438  10.681   8.901
 2503SOL     OW 9405   3.470   8.450  12.869
 2503SOL    HW1 9406   3.470   8.463  12.775
 2503SOL    HW2 9407   3.526   8.374  12.883
 2504SOL     OW 9408  12.818   9.949   0.198
 2504SOL    HW1 9409  12.749  10.015   0.193
 2504SOL    HW2 9410  12.839   9.929   0.107
 2505SOL     OW 9411   8.026   8.506  11.603
 2505SOL    HW1 9412   8.054   8.562  11.530
 2505SOL    HW2 9413   8.060   8.419  11.582
 2506SOL     OW 9414   5.546  11.982  13.446
 2506SOL    HW1 9415   5.568  11.892  13.420
 2506SOL    HW2 9416   5.455  11.993  13.419
 2507SOL     OW 9417  11.375   2.835  11.150
 2507SOL    HW1 9418  11.365   2.773  11.222
 2507SOL    HW2 9419  11.406   2.916  11.192
 2508SOL     OW 9420   9.109   8.560   4.557
 2508SOL    HW1 9421   9.072   8.618   4.490
 2508SOL    HW2 9422   9.040   8.551   4.622
 2509SOL     OW 9423   9.832  13.146   6.951
 2509SOL    HW1 9424   9.755  13.197   6.925
 2509SOL    HW2 9425   9.812  13.057   6.923
 2510SOL     OW 9426   2.307   8.375   2.751
 2510SOL    HW1 9427   2.258   8.300   2.718
 2510SOL    HW2 9428   2.382   8.382   2.691
 2511SOL     OW 9429  12.237   1.527  13.326
 2511SOL    HW1 9430  12.222   1.513  13.233
 2511SOL    HW2 9431  12.331   1.546  13.333
 2512SOL     OW 9432   4.451  12.887   8.205
 2512SOL    HW1 9433   4.367  12.855   8.237
 2512SOL    HW2 9434   4.437  12.903   8.112
 2513SOL     OW 9435   4.978   7.445   5.482
 2513SOL    HW1 9436   5.016   7.466   5.397
 2513SOL    HW2 9437   4.912   7.378   5.463
 2514SOL     OW 9438   1.416   5.521  10.964
 2514SOL    HW1 9439   1.423   5.617  10.966
 2514SOL    HW2 9440   1.471   5.492  11.037
 2515SOL     OW 9441   2.149   9.436   1.676
 2515SOL    HW1 9442   2.172   9.359   1.730
 2515SOL    HW2 9443   2.055   9.446   1.689
 2516SOL     OW 9444   7.928   6.624  12.152
 2516SOL    HW1 9445   7.999   6.685  12.174
 2516SOL    HW2 9446   7.960   6.539  12.182
 2517SOL     OW 9447  12.412  10.766  12.264
 2517SOL    HW1 9448  12.339  10.767  12.202
 2517SOL    HW2 9449  12.370  10.780  12.349
 2518SOL     OW 9450  11.046   9.859   3.217
 2518SOL    HW1 9451  11.047   9.764   3.204
 2518SOL    HW2 9452  11.134   9.879   3.248
 2519SOL     OW 9453   1.617   8.449   7.142
 2519SOL    HW1 9454   1.581   8.531   7.174
 2519SOL    HW2 9455   1.542   8.390   7.138
 2520SOL     OW 9456   9.732  13.163   2.438
 2520SOL    HW1 9457   9.755  13.073   2.461
 2520SOL    HW2 9458   9.723  13.163   2.343
 2521SOL     OW 9459   8.365  10.391  14.018
 2521SOL    HW1 9460   8.362  10.484  14.040
 2521SOL    HW2 9461   8.275  10.368  13.995
 2522SOL     OW 9462   5.239   7.341   3.748
 2522SOL    HW1 9463   5.196   7.410   3.698
 2522SOL    HW2 9464   5.276   7.386   3.824
 2523SOL     OW 9465   0.065  12.543   4.268
 2523SOL    HW1 9466   0.044  12.599   4.343
 2523SOL    HW2 9467   0.008  12.467   4.278
 2524SOL     OW 9468  11.527   5.834  14.100
 2524SOL    HW1 9469  11.531   5.760  14.160
 2524SOL    HW2 9470  11.595   5.894  14.131
 2525SOL     OW 9471  14.836  12.733   5.248
 2525SOL    HW1 9472   0.017  12.705   5.179
 2525SOL    HW2 9473  14.846  12.828   5.251
 2526SOL     OW 9474   6.860   7.775   7.716
 2526SOL    HW1 9475   6.933   7.835   7.730
 2526SOL    HW2 9476   6.821   7.804   7.633
 2527SOL     OW 9477   9.074   3.615  13.404
 2527SOL    HW1 9478   9.041   3.669  13.475
 2527SOL    HW2 9479   9.101   3.679  13.337
 2528SOL     OW 9480   8.225   8.768   4.931
 2528SOL    HW1 9481   8.154   8.729   4.981
 2528SOL    HW2 9482   8.281   8.810   4.996
 2529SOL     OW 9483   1.199   8.440  14.777
 2529SOL    HW1 9484   1.270   8.405  14.830
 2529SOL    HW2 9485   1.239   8.512  14.728
 2530SOL     OW 9486   7.708  13.297  13.535
 2530SOL    HW1 9487   7.726  13.356  13.609
 2530SOL    HW2 9488   7.635  13.339  13.488
 2531SOL     OW 9489  12.857   2.723   3.846
 2531SOL    HW1 9490  12.931   2.677   3.886
 2531SOL    HW2 9491  12.802   2.653   3.810
 2532SOL     OW 9492   9.601  12.120   9.504
 2532SOL    HW1 9493   9.521  12.137   9.554
 2532SOL    HW2 9494   9.590  12.171   9.424
 2533SOL     OW 9495  10.809   9.935   0.476
 2533SOL    HW1 9496  10.841   9.853   0.514
 2533SOL    HW2 9497  10.877   9.961   0.414
 2534SOL     OW 9498  13.885  11.145   8.063
 2534SOL    HW1 9499  13.929  11.084   8.003
 2534SOL    HW2 9500  13.880  11.096   8.146
 2535SOL     OW 9501  11.751   0.365  13.276
 2535SOL    HW1 9502  11.839   0.355  13.241
 2535SOL    HW2 9503  11.718   0.445  13.235
 2536SOL     OW 9504  14.396   5.094  12.435
 2536SOL    HW1 9505  14.310   5.104  12.476
 2536SOL    HW2 9506  14.385   5.130  12.347
 2537SOL     OW 9507  14.171  13.689   2.107
 2537SOL    HW1 9508  14.090  13.637   2.104
 2537SOL    HW2 9509  14.216  13.668   2.025
 2538SOL     OW 9510   3.876  13.582   8.968
 2538SOL    HW1 9511   3.935  13.518   9.008
 2538SOL    HW2 9512   3.864  13.550   8.878
 2539SOL     OW 9513   2.215   4.095   9.363
 2539SOL    HW1 9514   2.145   4.157   9.341
 2539SOL    HW2 9515   2.230   4.047   9.282
 2540SOL     OW 9516  14.263   7.173   1.917
 2540SOL    HW1 9517  14.190   7.112   1.926
 2540SOL    HW2 9518  14.222   7.259   1.913
 2541SOL     OW 9519   8.956   5.521  13.649
 2541SOL    HW1 9520   8.924   5.490  13.564
 2541SOL    HW2 9521   8.992   5.608  13.631
 2542SOL     OW 9522   1.570  10.828  14.707
 2542SOL    HW1 9523   1.601  10.903  14.656
 2542SOL    HW2 9524   1.477  10.820  14.684
 2543SOL     OW 9525   2.993   6.267   4.806
 2543SOL    HW1 9526   2.905   6.244   4.776
 2543SOL    HW2 9527   2.979   6.303   4.894
 2544SOL     OW 9528   9.310   8.535   1.296
 2544SOL    HW1 9529   9.390   8.586   1.281
 2544SOL    HW2 9530   9.317   8.505   1.386
 2545SOL     OW 9531   5.087   0.588  14.664
 2545SOL    HW1 9532   4.993   0.570  14.654
 2545SOL    HW2 9533   5.092   0.682  14.681
 2546SOL     OW 9534   2.353   9.836   2.502
 2546SOL    HW1 9535   2.413   9.899   2.541
 2546SOL    HW2 9536   2.409   9.783   2.445
 2547SOL     OW 9537   5.336  11.716   3.635
 2547SOL    HW1 9538   5.399  11.678   3.573
 2547SOL    HW2 9539   5.305  11.796   3.591
 2548SOL     OW 9540  14.001   4.031   7.535
 2548SOL    HW1 9541  13.920   4.004   7.579
 2548SOL    HW2 9542  14.031   3.951   7.491
 2549SOL     OW 9543   3.726   9.624   6.960
 2549SOL    HW1 9544   3.660   9.683   6.922
 2549SOL    HW2 9545   3.760   9.672   7.036
 2550SOL     OW 9546   4.984  10.156   4.820
 2550SOL    HW1 9547   4.897  10.196   4.820
 2550SOL    HW2 9548   4.988  10.107   4.738
 2551SOL     OW 9549   5.740   4.559  12.187
 2551SOL    HW1 9550   5.718   4.604  12.106
 2551SOL    HW2 9551   5.687   4.602  12.254
 2552SOL     OW 9552  13.654   4.704   1.292
 2552SOL    HW1 9553  13.565   4.688   1.325
 2552SOL    HW2 9554  13.659   4.653   1.211
 2553SOL     OW 9555  10.197   0.531  13.207
 2553SOL    HW1 9556  10.192   0.471  13.133
 2553SOL    HW2 9557  10.191   0.474  13.284
 2554SOL     OW 9558   3.472   1.716   1.161
 2554SOL    HW1 9559   3.496   1.778   1.229
 2554SOL    HW2 9560   3.554   1.696   1.116
 2555SOL     OW 9561  10.832  10.181  12.039
 2555SOL    HW1 9562  10.803  10.263  11.999
 2555SOL    HW2 9563  10.926  10.194  12.054
 2556SOL     OW 9564   6.512   1.675  14.246
 2556SOL    HW1 9565   6.428   1.637  14.271
 2556SOL    HW2 9566   6.533   1.736  14.317
 2557SOL     OW 9567   0.690   3.842  12.038
 2557SOL    HW1 9568   0.735   3.798  11.966
 2557SOL    HW2 9569   0.760   3.880  12.091
 2558SOL     OW 9570  11.238   6.705   7.822
 2558SOL    HW1 9571  11.212   6.672   7.908
 2558SOL    HW2 9572  11.255   6.626   7.771
 2559SOL     OW 9573  10.567  14.784  14.794
 2559SOL    HW1 9574  10.615  14.867  14.792
 2559SOL    HW2 9575  10.581  14.746  14.708
 2560SOL     OW 9576   7.722   9.322  13.450
 2560SOL    HW1 9577   7.675   9.354  13.528
 2560SOL    HW2 9578   7.676   9.241  13.427
 2561SOL     OW 9579   1.410   0.252   6.066
 2561SOL    HW1 9580   1.398   0.177   6.008
 2561SOL    HW2 9581   1.485   0.229   6.120
 2562SOL     OW 9582   5.401   4.157   7.358
 2562SOL    HW1 9583   5.374   4.210   7.283
 2562SOL    HW2 9584   5.444   4.219   7.417
 2563SOL     OW 9585   4.712   4.199   2.117
 2563SOL    HW1 9586   4.728   4.290   2.093
 2563SOL    HW2 9587   4.727   4.150   2.036
 2564SOL     OW 9588   5.195  12.128   0.046
 2564SOL    HW1 9589   5.249  12.084   0.112
 2564SOL    HW2 9590   5.150  12.198   0.094
 2565SOL     OW 9591   0.758   9.372   9.729
 2565SOL    HW1 9592   0.669   9.349   9.755
 2565SOL    HW2 9593   0.750   9.395   9.636
 2566SOL     OW 9594  10.593  10.379  10.898
 2566SOL    HW1 9595  10.546  10.367  10.980
 2566SOL    HW2 9596  10.550  10.319  10.837
 2567SOL     OW 9597   7.686   9.450   7.547
 2567SOL    HW1 9598   7.753   9.386   7.570
 2567SOL    HW2 9599   7.606   9.418   7.588
 2568SOL     OW 9600   6.501  14.146   6.975
 2568SOL    HW1 9601   6.451  14.094   6.912
 2568SOL    HW2 9602   6.590  14.113   6.968
 2569SOL     OW 9603  12.223   6.162  14.364
 2569SOL    HW1 9604  12.169   6.213  14.424
 2569SOL    HW2 9605  12.231   6.218  14.286
 2570SOL     OW 9606   9.674   4.700  12.788
 2570SOL    HW1 9607   9.689   4.741  12.874
 2570SOL    HW2 9608   9.583   4.670  12.791
 2571SOL     OW 9609   4.858   2.953   3.750
 2571SOL    HW1 9610   4.778   2.933   3.702
 2571SOL    HW2 9611   4.854   3.047   3.766
 2572SOL     OW 9612   4.855  11.144  12.904
 2572SOL    HW1 9613   4.795  11.165  12.832
 2572SOL    HW2 9614   4.810  11.075  12.953
 2573SOL     OW 9615   7.864  14.719   2.674
 2573SOL    HW1 9616   7.860  14.624   2.669
 2573SOL    HW2 9617   7.807  14.749   2.604
 2574SOL     OW 9618  14.311   0.741  13.472
 2574SOL    HW1 9619  14.310   0.669  13.409
 2574SOL    HW2 9620  14.386   0.723  13.529
 2575SOL     OW 9621   2.464   6.604  10.212
 2575SOL    HW1 9622   2.525   6.625  10.142
 2575SOL    HW2 9623   2.462   6.508  10.215
 2576SOL     OW 9624   0.517   1.434   6.999
 2576SOL    HW1 9625   0.538   1.462   6.910
 2576SOL    HW2 9626   0.561   1.497   7.055
 2577SOL     OW 9627   1.820   9.218   5.529
 2577SOL    HW1 9628   1.748   9.157   5.512
 2577SOL    HW2 9629   1.860   9.232   5.443
 2578SOL     OW 9630  11.394   7.840   3.956
 2578SOL    HW1 9631  11.464   7.906   3.957
 2578SOL    HW2 9632  11.352   7.851   3.870
 2579SOL     OW 9633   5.754   1.476   7.392
 2579SOL    HW1 9634   5.753   1.383   7.370
 2579SOL    HW2 9635   5.762   1.520   7.307
 2580SOL     OW 9636   7.160   1.164   4.644
 2580SOL    HW1 9637   7.188   1.073   4.656
 2580SOL    HW2 9638   7.111   1.185   4.723
 2581SOL     OW 9639  10.924   8.869   7.618
 2581SOL    HW1 9640  10.996   8.895   7.560
 2581SOL    HW2 9641  10.964   8.864   7.704
 2582SOL     OW 9642   4.280  11.875   7.927
 2582SOL    HW1 9643   4.247  11.964   7.939
 2582SOL    HW2 9644   4.285  11.839   8.015
 2583SOL     OW 9645  12.741  14.227  10.250
 2583SOL    HW1 9646  12.732  14.308  10.299
 2583SOL    HW2 9647  12.836  14.213  10.244
 2584SOL     OW 9648   1.361   5.401   8.703
 2584SOL    HW1 9649   1.404   5.486   8.702
 2584SOL    HW2 9650   1.417   5.347   8.760
 2585SOL     OW 9651   0.745   2.654   8.936
 2585SOL    HW1 9652   0.716   2.703   8.859
 2585SOL    HW2 9653   0.836   2.632   8.918
 2586SOL     OW 9654   9.726   5.442   9.239
 2586SOL    HW1 9655   9.638   5.406   9.252
 2586SOL    HW2 9656   9.767   5.437   9.325
 2587SOL     OW 9657  14.700   7.805   8.499
 2587SOL    HW1 9658  14.772   7.746   8.521
 2587SOL    HW2 9659  14.716   7.830   8.408
 2588SOL     OW 9660  11.217   3.846  13.769
 2588SOL    HW1 9661  11.156   3.849  13.843
 2588SOL    HW2 9662  11.210   3.756  13.737
 2589SOL     OW 9663  10.994  13.526   9.629
 2589SOL    HW1 9664  11.009  13.462   9.699
 2589SOL    HW2 9665  10.988  13.610   9.674
 2590SOL     OW 9666   5.574   1.119   0.589
 2590SOL    HW1 9667   5.536   1.050   0.643
 2590SOL    HW2 9668   5.644   1.076   0.540
 2591SOL     OW 9669   7.527  12.239   2.443
 2591SOL    HW1 9670   7.464  12.276   2.381
 2591SOL    HW2 9671   7.612  12.248   2.400
 2592SOL     OW 9672  10.167   9.954   4.937
 2592SOL    HW1 9673  10.166   9.858   4.927
 2592SOL    HW2 9674  10.206   9.986   4.855
 2593SOL     OW 9675   7.299   0.996  10.019
 2593SOL    HW1 9676   7.372   1.014   9.961
 2593SOL    HW2 9677   7.239   0.943   9.967
 2594SOL     OW 9678  12.868   0.214   4.119
 2594SOL    HW1 9679  12.908   0.266   4.189
 2594SOL    HW2 9680  12.917   0.238   4.040
 2595SOL     OW 9681   5.012   1.872  10.680
 2595SOL    HW1 9682   5.103   1.889  10.703
 2595SOL    HW2 9683   4.976   1.958  10.659
 2596SOL     OW 9684  10.206   5.205   2.646
 2596SOL    HW1 9685  10.207   5.298   2.668
 2596SOL    HW2 9686  10.125   5.172   2.685
 2597SOL     OW 9687  11.093   6.878   7.132
 2597SOL    HW1 9688  11.091   6.783   7.121
 2597SOL    HW2 9689  11.008   6.907   7.100
 2598SOL     OW 9690  10.953   8.728  12.960
 2598SOL    HW1 9691  11.031   8.779  12.940
 2598SOL    HW2 9692  10.890   8.751  12.892
 2599SOL     OW 9693   2.929  13.576   8.395
 2599SOL    HW1 9694   2.878  13.625   8.459
 2599SOL    HW2 9695   2.960  13.642   8.333
 2600SOL     OW 9696  13.508   6.377   0.451
 2600SOL    HW1 9697  13.565   6.418   0.517
 2600SOL    HW2 9698  13.503   6.442   0.381
 2601SOL     OW 9699   4.499  11.263   8.586
 2601SOL    HW1 9700   4.468  11.338   8.637
 2601SOL    HW2 9701   4.594  11.275   8.581
 2602SOL     OW 9702   6.959  12.815   6.185
 2602SOL    HW1 9703   6.997  12.817   6.097
 2602SOL    HW2 9704   6.864  12.813   6.170
 2603SOL     OW 9705  10.193   6.753  13.853
 2603SOL    HW1 9706  10.267   6.728  13.909
 2603SOL    HW2 9707  10.229   6.751  13.764
 2604SOL     OW 9708   7.617   9.739   1.456
 2604SOL    HW1 9709   7.526   9.723   1.432
 2604SOL    HW2 9710   7.666   9.730   1.375
 2605SOL     OW 9711  12.582   6.316  13.307
 2605SOL    HW1 9712  12.669   6.287  13.335
 2605SOL    HW2 9713  12.522   6.249  13.340
 2606SOL     OW 9714   9.193   6.849  11.634
 2606SOL    HW1 9715   9.232   6.767  11.667
 2606SOL    HW2 9716   9.099   6.839  11.651
 2607SOL     OW 9717   3.414   9.708  14.135
 2607SOL    HW1 9718   3.375   9.766  14.200
 2607SOL    HW2 9719   3.433   9.764  14.060
 2608SOL     OW 9720  11.796  11.845  11.031
 2608SOL    HW1 9721  11.704  11.823  11.018
 2608SOL    HW2 9722  11.795  11.938  11.056
 2609SOL     OW 9723   4.574   9.321   2.420
 2609SOL    HW1 9724   4.583   9.354   2.509
 2609SOL    HW2 9725   4.539   9.396   2.370
 2610SOL     OW 9726   1.915   4.093   6.887
 2610SOL    HW1 9727   2.005   4.123   6.898
 2610SOL    HW2 9728   1.890   4.122   6.799
 2611SOL     OW 9729   2.098   1.302  12.008
 2611SOL    HW1 9730   2.158   1.359  12.056
 2611SOL    HW2 9731   2.033   1.362  11.970
 2612SOL     OW 9732  13.393  10.581  12.827
 2612SOL    HW1 9733  13.479  10.549  12.855
 2612SOL    HW2 9734  13.412  10.656  12.771
 2613SOL     OW 9735  12.214   3.587  13.517
 2613SOL    HW1 9736  12.305   3.583  13.488
 2613SOL    HW2 9737  12.212   3.530  13.595
 2614SOL     OW 9738  10.836   1.801  11.745
 2614SOL    HW1 9739  10.760   1.781  11.690
 2614SOL    HW2 9740  10.799   1.826  11.830
 2615SOL     OW 9741   4.348   0.323  13.719
 2615SOL    HW1 9742   4.381   0.366  13.798
 2615SOL    HW2 9743   4.325   0.234  13.749
 2616SOL     OW 9744   0.226   5.163  13.083
 2616SOL    HW1 9745   0.235   5.137  13.175
 2616SOL    HW2 9746   0.296   5.116  13.038
 2617SOL     OW 9747   1.675   8.357   3.976
 2617SOL    HW1 9748   1.714   8.293   4.035
 2617SOL    HW2 9749   1.716   8.340   3.891
 2618SOL     OW 9750   9.767   2.911   5.089
 2618SOL    HW1 9751   9.734   2.866   5.011
 2618SOL    HW2 9752   9.698   2.900   5.154
 2619SOL     OW 9753   5.360   6.804  14.146
 2619SOL    HW1 9754   5.393   6.741  14.210
 2619SOL    HW2 9755   5.338   6.751  14.069
 2620SOL     OW 9756   0.731   2.875   8.455
 2620SOL    HW1 9757   0.734   2.900   8.363
 2620SOL    HW2 9758   0.783   2.942   8.500
 2621SOL     OW 9759   3.294   8.078   4.546
 2621SOL    HW1 9760   3.254   7.991   4.543
 2621SOL    HW2 9761   3.228   8.136   4.508
 2622SOL     OW 9762   7.664   4.890  11.727
 2622SOL    HW1 9763   7.610   4.950  11.675
 2622SOL    HW2 9764   7.738   4.944  11.755
 2623SOL     OW 9765   3.278   4.199  10.229
 2623SOL    HW1 9766   3.329   4.118  10.239
 2623SOL    HW2 9767   3.338   4.259  10.185
 2624SOL     OW 9768  11.747   7.355   5.883
 2624SOL    HW1 9769  11.797   7.405   5.818
 2624SOL    HW2 9770  11.798   7.364   5.964
 2625SOL     OW 9771   0.231   0.029   7.170
 2625SOL    HW1 9772   0.279  14.875   7.245
 2625SOL    HW2 9773   0.256  14.851   7.097
 2626SOL     OW 9774  14.705   4.911   4.876
 2626SOL    HW1 9775  14.645   4.848   4.916
 2626SOL    HW2 9776  14.769   4.930   4.945
 2627SOL     OW 9777  11.418  13.724   1.782
 2627SOL    HW1 9778  11.390  13.815   1.775
 2627SOL    HW2 9779  11.349  13.680   1.832
 2628SOL     OW 9780  13.574   4.849   6.599
 2628SOL    HW1 9781  13.636   4.797   6.651
 2628SOL    HW2 9782  13.531   4.785   6.542
 2629SOL     OW 9783   0.753  14.687   5.298
 2629SOL    HW1 9784   0.701  14.688   5.378
 2629SOL    HW2 9785   0.748  14.596   5.267
 2630SOL     OW 9786   9.651   2.579  14.615
 2630SOL    HW1 9787   9.615   2.577  14.703
 2630SOL    HW2 9788   9.713   2.507  14.613
 2631SOL     OW 9789   1.787   3.587  14.485
 2631SOL    HW1 9790   1.814   3.636  14.563
 2631SOL    HW2 9791   1.837   3.506  14.489
 2632SOL     OW 9792   1.715   7.201   6.343
 2632SOL    HW1 9793   1.727   7.134   6.411
 2632SOL    HW2 9794   1.721   7.284   6.391
 2633SOL     OW 9795  11.558   8.628   1.005
 2633SOL    HW1 9796  11.490   8.671   0.953
 2633SOL    HW2 9797  11.510   8.590   1.079
 2634SOL     OW 9798   1.178   9.582   0.271
 2634SOL    HW1 9799   1.258   9.534   0.292
 2634SOL    HW2 9800   1.117   9.557   0.341
 2635SOL     OW 9801  14.639  10.561  13.775
 2635SOL    HW1 9802  14.631  10.655  13.762
 2635SOL    HW2 9803  14.557  10.535  13.817
 2636SOL     OW 9804   4.001   1.403   8.798
 2636SOL    HW1 9805   4.074   1.433   8.744
 2636SOL    HW2 9806   3.977   1.318   8.761
 2637SOL     OW 9807  13.779   9.498  14.337
 2637SOL    HW1 9808  13.862   9.464  14.303
 2637SOL    HW2 9809  13.804   9.554  14.410
 2638SOL     OW 9810   7.127   9.146   1.951
 2638SOL    HW1 9811   7.109   9.239   1.944
 2638SOL    HW2 9812   7.207   9.132   1.900
 2639SOL     OW 9813   5.954   5.860   0.553
 2639SOL    HW1 9814   5.875   5.911   0.534
 2639SOL    HW2 9815   5.949   5.785   0.495
 2640SOL     OW 9816   1.755   4.823   5.724
 2640SOL    HW1 9817   1.757   4.861   5.812
 2640SOL    HW2 9818   1.846   4.826   5.694
 2641SOL     OW 9819   6.289  12.559  11.698
 2641SOL    HW1 9820   6.316  12.650  11.681
 2641SOL    HW2 9821   6.222  12.567  11.765
 2642SOL     OW 9822  10.204   0.755  14.771
 2642SOL    HW1 9823  10.169   0.707  14.846
 2642SOL    HW2 9824  10.208   0.846  14.801
 2643SOL     OW 9825   7.755   6.617   3.572
 2643SOL    HW1 9826   7.694   6.651   3.636
 2643SOL    HW2 9827   7.730   6.659   3.489
 2644SOL     OW 9828  11.412   4.271   8.909
 2644SOL    HW1 9829  11.351   4.288   8.980
 2644SOL    HW2 9830  11.369   4.306   8.831
 2645SOL     OW 9831   9.984   8.634   5.109
 2645SOL    HW1 9832  10.063   8.662   5.156
 2645SOL    HW2 9833   9.917   8.696   5.136
 2646SOL     OW 9834   3.907   2.335  10.037
 2646SOL    HW1 9835   3.971   2.280   9.991
 2646SOL    HW2 9836   3.863   2.384   9.967
 2647SOL     OW 9837   3.795   0.974   3.363
 2647SOL    HW1 9838   3.774   0.939   3.449
 2647SOL    HW2 9839   3.828   0.900   3.313
 2648SOL     OW 9840   4.344  10.593   6.900
 2648SOL    HW1 9841   4.406  10.588   6.973
 2648SOL    HW2 9842   4.259  10.608   6.942
 2649SOL     OW 9843   7.688   4.353   5.486
 2649SOL    HW1 9844   7.722   4.270   5.519
 2649SOL    HW2 9845   7.706   4.350   5.392
 2650SOL     OW 9846   1.947  13.162   5.498
 2650SOL    HW1 9847   1.985  13.085   5.540
 2650SOL    HW2 9848   1.966  13.151   5.405
 2651SOL     OW 9849   2.791   6.879  10.474
 2651SOL    HW1 9850   2.839   6.961  10.480
 2651SOL    HW2 9851   2.702   6.904  10.450
 2652SOL     OW 9852   3.705   1.548  10.778
 2652SOL    HW1 9853   3.661   1.483  10.832
 2652SOL    HW2 9854   3.756   1.600  10.839
 2653SOL     OW 9855  13.094  10.346   2.811
 2653SOL    HW1 9856  13.084  10.258   2.773
 2653SOL    HW2 9857  13.150  10.331   2.887
 2654SOL     OW 9858   6.137  11.492   4.274
 2654SOL    HW1 9859   6.104  11.516   4.188
 2654SOL    HW2 9860   6.229  11.519   4.273
 2655SOL     OW 9861  12.567  14.478   3.077
 2655SOL    HW1 9862  12.541  14.387   3.093
 2655SOL    HW2 9863  12.621  14.474   2.998
 2656SOL     OW 9864  11.303   9.324  14.263
 2656SOL    HW1 9865  11.378   9.333  14.203
 2656SOL    HW2 9866  11.288   9.413  14.295
 2657SOL     OW 9867   3.199   3.475  13.724
 2657SOL    HW1 9868   3.107   3.449  13.734
 2657SOL    HW2 9869   3.248   3.395  13.740
 2658SOL     OW 9870   4.367  11.330  13.714
 2658SOL    HW1 9871   4.395  11.303  13.802
 2658SOL    HW2 9872   4.423  11.280  13.654
 2659SOL     OW 9873  12.756   1.196  10.860
 2659SOL    HW1 9874  12.798   1.113  10.881
 2659SOL    HW2 9875  12.676   1.171  10.813
 2660SOL     OW 9876  11.522   5.190  13.014
 2660SOL    HW1 9877  11.463   5.116  13.017
 2660SOL    HW2 9878  11.533   5.209  12.921
 2661SOL     OW 9879   8.758   0.698  13.668
 2661SOL    HW1 9880   8.744   0.651  13.586
 2661SOL    HW2 9881   8.719   0.784  13.654
 2662SOL     OW 9882  11.505   3.855  14.071
 2662SOL    HW1 9883  11.525   3.901  14.153
 2662SOL    HW2 9884  11.436   3.793  14.095
 2663SOL     OW 9885   0.471   2.304   6.976
 2663SOL    HW1 9886   0.550   2.250   6.966
 2663SOL    HW2 9887   0.465   2.320   7.070
 2664SOL     OW 9888   6.922   9.288   7.008
 2664SOL    HW1 9889   6.833   9.313   6.983
 2664SOL    HW2 9890   6.958   9.245   6.931
 2665SOL     OW 9891   3.032   4.648  11.775
 2665SOL    HW1 9892   3.082   4.678  11.699
 2665SOL    HW2 9893   2.955   4.606  11.737
 2666SOL     OW 9894   2.134  13.227  11.818
 2666SOL    HW1 9895   2.209  13.177  11.785
 2666SOL    HW2 9896   2.173  13.301  11.865
 2667SOL     OW 9897   2.157   8.518   2.217
 2667SOL    HW1 9898   2.181   8.589   2.157
 2667SOL    HW2 9899   2.079   8.550   2.261
 2668SOL     OW 9900  13.683   5.053   8.726
 2668SOL    HW1 9901  13.671   5.142   8.758
 2668SOL    HW2 9902  13.683   5.061   8.631
 2669SOL     OW 9903  12.811   9.303   4.404
 2669SOL    HW1 9904  12.744   9.261   4.350
 2669SOL    HW2 9905  12.797   9.269   4.492
 2670SOL     OW 9906   9.308   3.657   3.863
 2670SOL    HW1 9907   9.367   3.651   3.938
 2670SOL    HW2 9908   9.366   3.667   3.788
 2671SOL     OW 9909   3.871   7.308   7.541
 2671SOL    HW1 9910   3.816   7.281   7.614
 2671SOL    HW2 9911   3.935   7.367   7.580
 2672SOL     OW 9912  14.277  11.507   4.902
 2672SOL    HW1 9913  14.335  11.432   4.890
 2672SOL    HW2 9914  14.191  11.469   4.917
 2673SOL     OW 9915   9.835   3.423   7.138
 2673SOL    HW1 9916   9.779   3.347   7.156
 2673SOL    HW2 9917   9.776   3.498   7.145
 2674SOL     OW 9918  12.750   7.836   7.246
 2674SOL    HW1 9919  12.752   7.763   7.308
 2674SOL    HW2 9920  12.815   7.897   7.280
 2675SOL     OW 9921   9.046  13.221  12.006
 2675SOL    HW1 9922   9.012  13.169  11.933
 2675SOL    HW2 9923   9.135  13.189  12.018
 2676SOL     OW 9924  10.710  12.558   8.993
 2676SOL    HW1 9925  10.665  12.493   9.048
 2676SOL    HW2 9926  10.752  12.616   9.056
 2677SOL     OW 9927  13.647  11.496   1.279
 2677SOL    HW1 9928  13.559  11.516   1.312
 2677SOL    HW2 9929  13.651  11.538   1.194
 2678SOL     OW 9930   7.993  14.788  13.043
 2678SOL    HW1 9931   8.065  14.789  12.979
 2678SOL    HW2 9932   7.934  14.857  13.014
 2679SOL     OW 9933  13.315   3.871   8.029
 2679SOL    HW1 9934  13.271   3.841   8.109
 2679SOL    HW2 9935  13.279   3.958   8.014
 2680SOL     OW 9936  14.190   9.390   8.629
 2680SOL    HW1 9937  14.240   9.462   8.591
 2680SOL    HW2 9938  14.195   9.320   8.564
 2681SOL     OW 9939   7.908   3.393  11.391
 2681SOL    HW1 9940   7.911   3.451  11.315
 2681SOL    HW2 9941   7.938   3.308  11.358
 2682SOL     OW 9942  11.498   6.991  10.256
 2682SOL    HW1 9943  11.408   6.957  10.255
 2682SOL    HW2 9944  11.531   6.973  10.168
 2683SOL     OW 9945   1.525   1.498  10.925
 2683SOL    HW1 9946   1.610   1.538  10.907
 2683SOL    HW2 9947   1.485   1.486  10.839
 2684SOL     OW 9948   7.163   5.598   6.680
 2684SOL    HW1 9949   7.180   5.672   6.739
 2684SOL    HW2 9950   7.089   5.552   6.719
 2685SOL     OW 9951   5.767   9.061   5.338
 2685SOL    HW1 9952   5.776   8.972   5.372
 2685SOL    HW2 9953   5.710   9.105   5.400
 2686SOL     OW 9954   2.797   2.151   8.090
 2686SOL    HW1 9955   2.822   2.242   8.075
 2686SOL    HW2 9956   2.704   2.147   8.069
 2687SOL     OW 9957  13.209   7.820   7.191
 2687SOL    HW1 9958  13.180   7.766   7.117
 2687SOL    HW2 9959  13.285   7.774   7.226
 2688SOL     OW 9960   0.935  11.134   5.027
 2688SOL    HW1 9961   0.869  11.108   4.963
 2688SOL    HW2 9962   0.983  11.204   4.986
 2689SOL     OW 9963   6.946  14.314   4.585
 2689SOL    HW1 9964   6.987  14.229   4.599
 2689SOL    HW2 9965   6.917  14.342   4.672
 2690SOL     OW 9966   6.780  10.432   0.076
 2690SOL    HW1 9967   6.760  10.522   0.103
 2690SOL    HW2 9968   6.709  10.379   0.113
 2691SOL     OW 9969   9.390  11.510   7.397
 2691SOL    HW1 9970   9.407  11.503   7.491
 2691SOL    HW2 9971   9.308  11.560   7.391
 2692SOL     OW 9972  13.552   3.175   6.254
 2692SOL    HW1 9973  13.597   3.112   6.311
 2692SOL    HW2 9974  13.591   3.161   6.168
 2693SOL     OW 9975   9.984   1.365  13.290
 2693SOL    HW1 9976   9.914   1.400  13.235
 2693SOL    HW2 9977   9.978   1.417  13.371
 2694SOL     OW 9978   0.157   4.005   0.092
 2694SOL    HW1 9979   0.196   4.081   0.050
 2694SOL    HW2 9980   0.225   3.937   0.085
 2695SOL     OW 9981  10.668   3.611  12.564
 2695SOL    HW1 9982  10.648   3.703  12.545
 2695SOL    HW2 9983  10.588   3.564  12.540
 2696SOL     OW 9984  13.495   9.295   4.695
 2696SOL    HW1 9985  13.474   9.361   4.760
 2696SOL    HW2 9986  13.467   9.212   4.734
 2697SOL     OW 9987   9.080  12.674  14.437
 2697SOL    HW1 9988   9.170  12.646  14.424
 2697SOL    HW2 9989   9.043  12.678  14.348
 2698SOL     OW 9990   4.776   0.836   2.330
 2698SOL    HW1 9991   4.851   0.883   2.367
 2698SOL    HW2 9992   4.799   0.823   2.238
 2699SOL     OW 9993  12.250  13.854   5.556
 2699SOL    HW1 9994  12.294  13.828   5.637
 2699SOL    HW2 9995  12.157  13.841   5.574
 2700SOL     OW 9996   6.765  12.356   7.535
 2700SOL    HW1 9997   6.806  12.389   7.616
 2700SOL    HW2 9998   6.837  12.352   7.472
 2701SOL     OW 9999   5.466   4.206  10.553
 2701SOL    HW110000   5.451   4.262  10.630
 2701SOL    HW210001   5.522   4.135  10.586
 2702SOL     OW10002   1.969   7.622  11.565
 2702SOL    HW110003   2.063   7.618  11.584
 2702SOL    HW210004   1.965   7.638  11.471
 2703SOL     OW10005   1.432   9.552   0.575
 2703SOL    HW110006   1.522   9.585   0.567
 2703SOL    HW210007   1.389   9.612   0.635
 2704SOL     OW10008  12.936   9.506   9.645
 2704SOL    HW110009  13.019   9.502   9.692
 2704SOL    HW210010  12.870   9.505   9.714
 2705SOL     OW10011  10.216   3.838   1.639
 2705SOL    HW110012  10.231   3.914   1.695
 2705SOL    HW210013  10.269   3.768   1.677
 2706SOL     OW10014   3.580  14.142   2.487
 2706SOL    HW110015   3.621  14.067   2.443
 2706SOL    HW210016   3.508  14.103   2.537
 2707SOL     OW10017   4.092   0.615   7.168
 2707SOL    HW110018   4.158   0.621   7.237
 2707SOL    HW210019   4.015   0.577   7.212
 2708SOL     OW10020   7.582   4.789   5.639
 2708SOL    HW110021   7.676   4.773   5.645
 2708SOL    HW210022   7.569   4.822   5.550
 2709SOL     OW10023  12.391   5.244   5.332
 2709SOL    HW110024  12.399   5.329   5.290
 2709SOL    HW210025  12.374   5.183   5.259
 2710SOL     OW10026  14.332  11.787  10.092
 2710SOL    HW110027  14.347  11.712  10.035
 2710SOL    HW210028  14.387  11.856  10.055
 2711SOL     OW10029   5.630   5.024  10.722
 2711SOL    HW110030   5.581   4.979  10.790
 2711SOL    HW210031   5.571   5.026  10.647
 2712SOL     OW10032  10.434  11.260  10.587
 2712SOL    HW110033  10.363  11.313  10.624
 2712SOL    HW210034  10.513  11.309  10.609
 2713SOL     OW10035   6.094  12.384   9.268
 2713SOL    HW110036   6.123  12.295   9.285
 2713SOL    HW210037   6.137  12.408   9.186
 2714SOL     OW10038  10.308  10.843  10.964
 2714SOL    HW110039  10.218  10.877  10.965
 2714SOL    HW210040  10.347  10.880  10.885
 2715SOL     OW10041  13.416   3.328  14.845
 2715SOL    HW110042  13.382   3.276   0.038
 2715SOL    HW210043  13.424   3.265  14.773
 2716SOL     OW10044   8.802   5.595  12.299
 2716SOL    HW110045   8.809   5.690  12.300
 2716SOL    HW210046   8.785   5.573  12.208
 2717SOL     OW10047  10.591   5.337   9.005
 2717SOL    HW110048  10.561   5.415   8.958
 2717SOL    HW210049  10.625   5.279   8.936
 2718SOL     OW10050   4.231   1.973  14.027
 2718SOL    HW110051   4.212   2.035  13.956
 2718SOL    HW210052   4.319   1.943  14.009
 2719SOL     OW10053  12.452   5.623  14.254
 2719SOL    HW110054  12.458   5.718  14.255
 2719SOL    HW210055  12.398   5.602  14.330
 2720SOL     OW10056   8.862   6.648   1.332
 2720SOL    HW110057   8.922   6.575   1.317
 2720SOL    HW210058   8.789   6.632   1.271
 2721SOL     OW10059  12.438   5.932  10.415
 2721SOL    HW110060  12.352   5.971  10.397
 2721SOL    HW210061  12.445   5.933  10.511
 2722SOL     OW10062   7.195   1.287   3.640
 2722SOL    HW110063   7.278   1.246   3.616
 2722SOL    HW210064   7.216   1.343   3.714
 2723SOL     OW10065   6.008  11.049   6.980
 2723SOL    HW110066   5.925  11.002   6.974
 2723SOL    HW210067   5.983  11.142   6.975
 2724SOL     OW10068  11.524   0.804   1.597
 2724SOL    HW110069  11.578   0.828   1.521
 2724SOL    HW210070  11.572   0.837   1.672
 2725SOL     OW10071   5.570   5.077  13.854
 2725SOL    HW110072   5.526   5.010  13.802
 2725SOL    HW210073   5.583   5.035  13.940
 2726SOL     OW10074   2.707   1.495   9.722
 2726SOL    HW110075   2.684   1.572   9.671
 2726SOL    HW210076   2.684   1.518   9.812
 2727SOL     OW10077  11.492  12.262  11.383
 2727SOL    HW110078  11.586  12.249  11.377
 2727SOL    HW210079  11.463  12.276  11.293
 2728SOL     OW10080  11.064  13.555   7.267
 2728SOL    HW110081  11.099  13.587   7.350
 2728SOL    HW210082  11.116  13.476   7.249
 2729SOL     OW10083   7.818   5.156   3.284
 2729SOL    HW110084   7.852   5.161   3.195
 2729SOL    HW210085   7.839   5.241   3.323
 2730SOL     OW10086  12.153  11.094   8.386
 2730SOL    HW110087  12.175  11.018   8.331
 2730SOL    HW210088  12.057  11.094   8.389
 2731SOL     OW10089   4.821   9.849   3.951
 2731SOL    HW110090   4.866   9.921   3.997
 2731SOL    HW210091   4.883   9.821   3.884
 2732SOL     OW10092   2.544   5.424   9.465
 2732SOL    HW110093   2.616   5.384   9.415
 2732SOL    HW210094   2.492   5.469   9.399
 2733SOL     OW10095   2.146   4.387   3.345
 2733SOL    HW110096   2.194   4.344   3.274
 2733SOL    HW210097   2.116   4.316   3.401
 2734SOL     OW10098  14.594  13.826  12.847
 2734SOL    HW110099  14.505  13.845  12.817
 2734SOL    HW210100  14.628  13.910  12.878
 2735SOL     OW10101  14.837   8.298  13.926
 2735SOL    HW110102   0.001   8.375  13.892
 2735SOL    HW210103  14.840   8.307  14.021
 2736SOL     OW10104  10.692   6.338   8.371
 2736SOL    HW110105  10.630   6.267   8.390
 2736SOL    HW210106  10.778   6.300   8.389
 2737SOL     OW10107   9.691   2.380   3.902
 2737SOL    HW110108   9.618   2.354   3.847
 2737SOL    HW210109   9.650   2.411   3.983
 2738SOL     OW10110   3.300   9.887   7.401
 2738SOL    HW110111   3.364   9.860   7.467
 2738SOL    HW210112   3.280   9.807   7.353
 2739SOL     OW10113   9.440  10.765   3.468
 2739SOL    HW110114   9.464  10.675   3.491
 2739SOL    HW210115   9.457  10.772   3.374
 2740SOL     OW10116   2.561   9.065   6.207
 2740SOL    HW110117   2.509   9.136   6.169
 2740SOL    HW210118   2.537   9.066   6.300
 2741SOL     OW10119   2.655  12.744   9.385
 2741SOL    HW110120   2.630  12.652   9.392
 2741SOL    HW210121   2.598  12.779   9.316
 2742SOL     OW10122   8.543   3.074   9.494
 2742SOL    HW110123   8.501   3.159   9.508
 2742SOL    HW210124   8.610   3.091   9.428
 2743SOL     OW10125   5.413   8.320   5.557
 2743SOL    HW110126   5.410   8.412   5.583
 2743SOL    HW210127   5.494   8.311   5.507
 2744SOL     OW10128   3.934   1.194   0.670
 2744SOL    HW110129   3.896   1.170   0.585
 2744SOL    HW210130   4.003   1.257   0.648
 2745SOL     OW10131   3.008   9.214   6.906
 2745SOL    HW110132   3.087   9.247   6.947
 2745SOL    HW210133   3.020   9.119   6.905
 2746SOL     OW10134  10.910   1.608   2.962
 2746SOL    HW110135  10.992   1.581   3.004
 2746SOL    HW210136  10.929   1.695   2.927
 2747SOL     OW10137  14.343  13.449   8.724
 2747SOL    HW110138  14.431  13.472   8.751
 2747SOL    HW210139  14.307  13.530   8.688
 2748SOL     OW10140  12.554   2.375  11.620
 2748SOL    HW110141  12.596   2.394  11.536
 2748SOL    HW210142  12.627   2.359  11.680
 2749SOL     OW10143   3.271   9.766   4.493
 2749SOL    HW110144   3.188   9.800   4.458
 2749SOL    HW210145   3.315   9.842   4.529
 2750SOL     OW10146  13.972   4.035  13.711
 2750SOL    HW110147  13.936   4.103  13.769
 2750SOL    HW210148  13.901   4.016  13.649
 2751SOL     OW10149   0.517   9.978  14.054
 2751SOL    HW110150   0.587   9.913  14.063
 2751SOL    HW210151   0.439   9.927  14.032
 2752SOL     OW10152  14.235  11.243   3.314
 2752SOL    HW110153  14.189  11.249   3.397
 2752SOL    HW210154  14.313  11.191   3.334
 2753SOL     OW10155   6.044   1.907  13.509
 2753SOL    HW110156   6.065   1.984  13.456
 2753SOL    HW210157   6.036   1.941  13.598
 2754SOL     OW10158   1.979   2.958   9.939
 2754SOL    HW110159   1.908   2.961   9.875
 2754SOL    HW210160   1.984   3.047   9.974
 2755SOL     OW10161   8.537   3.409  12.066
 2755SOL    HW110162   8.495   3.330  12.032
 2755SOL    HW210163   8.529   3.473  11.996
 2756SOL     OW10164   8.770   3.023  12.443
 2756SOL    HW110165   8.855   3.054  12.412
 2756SOL    HW210166   8.756   3.070  12.525
 2757SOL     OW10167   8.486  12.703  12.043
 2757SOL    HW110168   8.519  12.662  11.963
 2757SOL    HW210169   8.401  12.740  12.018
 2758SOL     OW10170  10.934  11.126   5.223
 2758SOL    HW110171  10.969  11.092   5.305
 2758SOL    HW210172  10.880  11.055   5.188
 2759SOL     OW10173   4.736   3.736   6.839
 2759SOL    HW110174   4.815   3.716   6.788
 2759SOL    HW210175   4.761   3.813   6.891
 2760SOL     OW10176  14.784   5.637   0.548
 2760SOL    HW110177  14.782   5.545   0.573
 2760SOL    HW210178  14.728   5.680   0.613
 2761SOL     OW10179   6.434   2.706   5.458
 2761SOL    HW110180   6.405   2.796   5.477
 2761SOL    HW210181   6.465   2.673   5.543
 2762SOL     OW10182  12.000   8.738  10.481
 2762SOL    HW110183  12.085   8.767  10.446
 2762SOL    HW210184  12.017   8.650  10.513
 2763SOL     OW10185   5.009  10.155   3.827
 2763SOL    HW110186   5.004  10.224   3.761
 2763SOL    HW210187   4.996  10.200   3.910
 2764SOL     OW10188   1.753   2.957   9.781
 2764SOL    HW110189   1.733   3.048   9.760
 2764SOL    HW210190   1.709   2.907   9.712
 2765SOL     OW10191   1.341   8.403   5.335
 2765SOL    HW110192   1.357   8.331   5.274
 2765SOL    HW210193   1.265   8.374   5.387
 2766SOL     OW10194   5.246   8.966   8.814
 2766SOL    HW110195   5.223   8.893   8.871
 2766SOL    HW210196   5.166   8.982   8.763
 2767SOL     OW10197  10.539   4.305   7.447
 2767SOL    HW110198  10.589   4.348   7.516
 2767SOL    HW210199  10.499   4.229   7.489
 2768SOL     OW10200   8.361   9.886  11.255
 2768SOL    HW110201   8.282   9.930  11.223
 2768SOL    HW210202   8.433   9.934  11.214
 2769SOL     OW10203   9.091   3.132  10.684
 2769SOL    HW110204   9.147   3.057  10.664
 2769SOL    HW210205   9.139   3.182  10.749
 2770SOL     OW10206  11.202   7.251  12.610
 2770SOL    HW110207  11.118   7.242  12.657
 2770SOL    HW210208  11.261   7.192  12.655
 2771SOL     OW10209   5.724  12.057   3.692
 2771SOL    HW110210   5.691  12.142   3.664
 2771SOL    HW210211   5.668  11.993   3.647
 2772SOL     OW10212   4.248   7.918   4.082
 2772SOL    HW110213   4.161   7.917   4.123
 2772SOL    HW210214   4.302   7.970   4.143
 2773SOL     OW10215   1.749  13.260   5.641
 2773SOL    HW110216   1.795  13.261   5.725
 2773SOL    HW210217   1.816  13.235   5.577
 2774SOL     OW10218  12.045   4.306   3.433
 2774SOL    HW110219  11.987   4.381   3.432
 2774SOL    HW210220  12.116   4.331   3.492
 2775SOL     OW10221   5.272   8.212  10.681
 2775SOL    HW110222   5.232   8.130  10.710
 2775SOL    HW210223   5.284   8.263  10.762
 2776SOL     OW10224  14.239   8.159   6.593
 2776SOL    HW110225  14.274   8.198   6.514
 2776SOL    HW210226  14.172   8.220   6.624
 2777SOL     OW10227  14.631   7.656   7.103
 2777SOL    HW110228  14.632   7.624   7.194
 2777SOL    HW210229  14.584   7.739   7.108
 2778SOL     OW10230  10.474   2.402   9.668
 2778SOL    HW110231  10.441   2.435   9.752
 2778SOL    HW210232  10.507   2.314   9.689
 2779SOL     OW10233  11.900  10.913   8.270
 2779SOL    HW110234  11.969  10.851   8.296
 2779SOL    HW210235  11.888  10.897   8.177
 2780SOL     OW10236   3.173   2.796   6.097
 2780SOL    HW110237   3.097   2.814   6.041
 2780SOL    HW210238   3.248   2.826   6.045
 2781SOL     OW10239   5.525  13.107  12.258
 2781SOL    HW110240   5.478  13.025  12.244
 2781SOL    HW210241   5.520  13.153  12.175
 2782SOL     OW10242  10.567   5.740  11.609
 2782SOL    HW110243  10.534   5.829  11.599
 2782SOL    HW210244  10.654   5.742  11.570
 2783SOL     OW10245  10.944   8.685  12.332
 2783SOL    HW110246  10.925   8.594  12.354
 2783SOL    HW210247  10.866   8.733  12.359
 2784SOL     OW10248   1.589  14.364   2.811
 2784SOL    HW110249   1.567  14.440   2.865
 2784SOL    HW210250   1.505  14.330   2.781
 2785SOL     OW10251  11.759  10.003  10.445
 2785SOL    HW110252  11.813  10.082  10.445
 2785SOL    HW210253  11.689  10.023  10.383
 2786SOL     OW10254   5.358   5.457  13.861
 2786SOL    HW110255   5.350   5.366  13.890
 2786SOL    HW210256   5.374   5.452  13.767
 2787SOL     OW10257  12.569  11.341  13.464
 2787SOL    HW110258  12.657  11.348  13.427
 2787SOL    HW210259  12.551  11.428  13.499
 2788SOL     OW10260   0.090   9.493   5.774
 2788SOL    HW110261   0.149   9.419   5.786
 2788SOL    HW210262   0.027   9.484   5.846
 2789SOL     OW10263  12.496   1.294  13.723
 2789SOL    HW110264  12.441   1.370  13.741
 2789SOL    HW210265  12.446   1.241  13.661
 2790SOL     OW10266  11.177  12.306   6.829
 2790SOL    HW110267  11.160  12.398   6.852
 2790SOL    HW210268  11.221  12.310   6.744
 2791SOL     OW10269   5.829   0.997  13.575
 2791SOL    HW110270   5.877   0.926  13.617
 2791SOL    HW210271   5.851   1.075  13.627
 2792SOL     OW10272   0.363   2.687  13.460
 2792SOL    HW110273   0.312   2.702  13.381
 2792SOL    HW210274   0.453   2.677  13.429
 2793SOL     OW10275   8.489   4.835  10.448
 2793SOL    HW110276   8.441   4.883  10.381
 2793SOL    HW210277   8.473   4.743  10.427
 2794SOL     OW10278  10.175   1.661  14.628
 2794SOL    HW110279  10.080   1.664  14.617
 2794SOL    HW210280  10.209   1.689  14.543
 2795SOL     OW10281  11.336   9.849   1.809
 2795SOL    HW110282  11.345   9.776   1.871
 2795SOL    HW210283  11.425   9.876   1.791
 2796SOL     OW10284   0.133  10.575   9.336
 2796SOL    HW110285   0.135  10.531   9.421
 2796SOL    HW210286   0.040  10.583   9.314
 2797SOL     OW10287  11.675   2.964   8.269
 2797SOL    HW110288  11.656   2.970   8.363
 2797SOL    HW210289  11.594   2.994   8.227
 2798SOL     OW10290   4.832   2.855  12.623
 2798SOL    HW110291   4.739   2.875  12.624
 2798SOL    HW210292   4.863   2.882  12.710
 2799SOL     OW10293  12.021   1.121  13.050
 2799SOL    HW110294  12.014   1.185  13.121
 2799SOL    HW210295  11.947   1.062  13.064
 2800SOL     OW10296   7.193   8.192   4.942
 2800SOL    HW110297   7.129   8.157   5.004
 2800SOL    HW210298   7.209   8.282   4.971
 2801SOL     OW10299  12.223  14.333   1.030
 2801SOL    HW110300  12.286  14.356   1.099
 2801SOL    HW210301  12.160  14.405   1.031
 2802SOL     OW10302   1.757   8.960   8.356
 2802SOL    HW110303   1.788   9.051   8.349
 2802SOL    HW210304   1.836   8.907   8.351
 2803SOL     OW10305   6.279   0.483   1.819
 2803SOL    HW110306   6.310   0.459   1.731
 2803SOL    HW210307   6.351   0.459   1.877
 2804SOL     OW10308   5.379   7.061   9.881
 2804SOL    HW110309   5.353   6.986   9.934
 2804SOL    HW210310   5.401   7.129   9.945
 2805SOL     OW10311   4.749   1.027   6.548
 2805SOL    HW110312   4.808   0.990   6.613
 2805SOL    HW210313   4.794   1.015   6.464
 2806SOL     OW10314   6.222   5.423  11.232
 2806SOL    HW110315   6.262   5.454  11.313
 2806SOL    HW210316   6.139   5.384  11.260
 2807SOL     OW10317   2.564   1.986  14.794
 2807SOL    HW110318   2.642   2.042  14.799
 2807SOL    HW210319   2.510   2.013  14.869
 2808SOL     OW10320   9.877  11.864  10.492
 2808SOL    HW110321   9.920  11.949  10.483
 2808SOL    HW210322   9.835  11.867  10.578
 2809SOL     OW10323  13.784  14.738   0.182
 2809SOL    HW110324  13.759  14.730   0.090
 2809SOL    HW210325  13.711  14.785   0.223
 2810SOL     OW10326   1.782   8.226   8.309
 2810SOL    HW110327   1.843   8.229   8.383
 2810SOL    HW210328   1.743   8.314   8.306
 2811SOL     OW10329   0.520  10.760  13.622
 2811SOL    HW110330   0.549  10.731  13.709
 2811SOL    HW210331   0.436  10.716  13.609
 2812SOL     OW10332   2.841   2.883   6.587
 2812SOL    HW110333   2.809   2.910   6.673
 2812SOL    HW210334   2.761   2.874   6.534
 2813SOL     OW10335   8.177   3.386   8.822
 2813SOL    HW110336   8.136   3.472   8.827
 2813SOL    HW210337   8.239   3.392   8.749
 2814SOL     OW10338   7.759   0.941   3.591
 2814SOL    HW110339   7.671   0.973   3.615
 2814SOL    HW210340   7.809   0.947   3.672
 2815SOL     OW10341  11.285   4.671   4.248
 2815SOL    HW110342  11.203   4.698   4.206
 2815SOL    HW210343  11.259   4.610   4.317
 2816SOL     OW10344  12.789   6.887   9.768
 2816SOL    HW110345  12.754   6.973   9.794
 2816SOL    HW210346  12.772   6.830   9.843
 2817SOL     OW10347  10.825   8.733   8.717
 2817SOL    HW110348  10.859   8.720   8.628
 2817SOL    HW210349  10.850   8.822   8.740
 2818SOL     OW10350   2.745   8.174  11.586
 2818SOL    HW110351   2.725   8.180  11.680
 2818SOL    HW210352   2.818   8.112  11.581
 2819SOL     OW10353   6.266  10.125   7.170
 2819SOL    HW110354   6.289  10.047   7.118
 2819SOL    HW210355   6.342  10.182   7.163
 2820SOL     OW10356  12.746  14.259  12.374
 2820SOL    HW110357  12.680  14.249  12.305
 2820SOL    HW210358  12.814  14.313  12.335
 2821SOL     OW10359  12.489   4.113   6.898
 2821SOL    HW110360  12.439   4.054   6.841
 2821SOL    HW210361  12.424   4.177   6.929
 2822SOL     OW10362   3.655   0.691   3.786
 2822SOL    HW110363   3.739   0.646   3.785
 2822SOL    HW210364   3.672   0.775   3.743
 2823SOL     OW10365   9.525   4.983   8.460
 2823SOL    HW110366   9.562   4.941   8.383
 2823SOL    HW210367   9.544   4.921   8.531
 2824SOL     OW10368  12.624   5.988   0.094
 2824SOL    HW110369  12.678   5.988   0.174
 2824SOL    HW210370  12.536   5.969   0.125
 2825SOL     OW10371   9.399   8.376   6.094
 2825SOL    HW110372   9.432   8.286   6.089
 2825SOL    HW210373   9.471   8.426   6.132
 2826SOL     OW10374  12.640   7.474   1.430
 2826SOL    HW110375  12.582   7.420   1.376
 2826SOL    HW210376  12.581   7.516   1.493
 2827SOL     OW10377  12.038   8.501   0.258
 2827SOL    HW110378  12.094   8.424   0.244
 2827SOL    HW210379  11.972   8.496   0.189
 2828SOL     OW10380   9.395  12.465   6.402
 2828SOL    HW110381   9.409  12.385   6.352
 2828SOL    HW210382   9.441  12.533   6.353
 2829SOL     OW10383   6.901  11.797  13.406
 2829SOL    HW110384   6.925  11.886  13.382
 2829SOL    HW210385   6.955  11.777  13.482
 2830SOL     OW10386  10.326  10.467  14.368
 2830SOL    HW110387  10.409  10.501  14.335
 2830SOL    HW210388  10.284  10.428  14.292
 2831SOL     OW10389  11.345   5.219  14.088
 2831SOL    HW110390  11.346   5.185  13.998
 2831SOL    HW210391  11.429   5.194  14.125
 2832SOL     OW10392   1.034  13.266   0.370
 2832SOL    HW110393   1.128  13.277   0.355
 2832SOL    HW210394   1.023  13.279   0.464
 2833SOL     OW10395  12.247  14.681   3.773
 2833SOL    HW110396  12.252  14.738   3.850
 2833SOL    HW210397  12.158  14.694   3.739
 2834SOL     OW10398   9.513  13.767   7.485
 2834SOL    HW110399   9.542  13.710   7.556
 2834SOL    HW210400   9.594  13.800   7.446
 2835SOL     OW10401  14.690   2.191   9.501
 2835SOL    HW110402  14.703   2.221   9.591
 2835SOL    HW210403  14.608   2.142   9.504
 2836SOL     OW10404   5.696   5.901   9.115
 2836SOL    HW110405   5.636   5.975   9.121
 2836SOL    HW210406   5.763   5.930   9.052
 2837SOL     OW10407   3.235   9.827   6.805
 2837SOL    HW110408   3.254   9.817   6.712
 2837SOL    HW210409   3.314   9.797   6.849
 2838SOL     OW10410   1.327  14.264   2.013
 2838SOL    HW110411   1.351  14.337   2.070
 2838SOL    HW210412   1.380  14.277   1.934
 2839SOL     OW10413   5.460   9.120   2.711
 2839SOL    HW110414   5.442   9.208   2.746
 2839SOL    HW210415   5.386   9.068   2.739
 2840SOL     OW10416   8.954  14.360   3.972
 2840SOL    HW110417   8.964  14.333   4.064
 2840SOL    HW210418   8.888  14.429   3.975
 2841SOL     OW10419   8.935   5.570   1.436
 2841SOL    HW110420   8.910   5.595   1.347
 2841SOL    HW210421   8.852   5.567   1.484
 2842SOL     OW10422   7.264  11.343   2.017
 2842SOL    HW110423   7.274  11.250   2.038
 2842SOL    HW210424   7.338  11.385   2.061
 2843SOL     OW10425   4.022   5.247   8.470
 2843SOL    HW110426   3.935   5.281   8.448
 2843SOL    HW210427   4.027   5.251   8.565
 2844SOL     OW10428   1.993  10.241   3.604
 2844SOL    HW110429   2.077  10.279   3.627
 2844SOL    HW210430   1.978  10.267   3.513
 2845SOL     OW10431   5.875   3.142   6.147
 2845SOL    HW110432   5.875   3.158   6.052
 2845SOL    HW210433   5.830   3.058   6.157
 2846SOL     OW10434   0.146   2.682   6.023
 2846SOL    HW110435   0.156   2.739   5.947
 2846SOL    HW210436   0.159   2.741   6.098
 2847SOL     OW10437   9.641  13.347   9.839
 2847SOL    HW110438   9.725  13.392   9.833
 2847SOL    HW210439   9.662  13.262   9.878
 2848SOL     OW10440   3.302  10.849   1.880
 2848SOL    HW110441   3.282  10.943   1.875
 2848SOL    HW210442   3.249  10.817   1.953
 2849SOL     OW10443   3.153   6.551  12.427
 2849SOL    HW110444   3.167   6.574  12.519
 2849SOL    HW210445   3.058   6.553  12.416
 2850SOL     OW10446   0.615  11.222   9.889
 2850SOL    HW110447   0.627  11.282   9.963
 2850SOL    HW210448   0.703  11.191   9.868
 2851SOL     OW10449  10.124  11.212   7.043
 2851SOL    HW110450  10.148  11.145   7.107
 2851SOL    HW210451  10.131  11.168   6.958
 2852SOL     OW10452   7.968   6.621   5.092
 2852SOL    HW110453   7.972   6.562   5.166
 2852SOL    HW210454   8.008   6.573   5.020
 2853SOL     OW10455  12.787  12.266   3.152
 2853SOL    HW110456  12.748  12.196   3.100
 2853SOL    HW210457  12.860  12.298   3.100
 2854SOL     OW10458   9.142   5.324   3.667
 2854SOL    HW110459   9.128   5.326   3.761
 2854SOL    HW210460   9.237   5.330   3.657
 2855SOL     OW10461  11.952  10.627   8.936
 2855SOL    HW110462  11.882  10.603   8.875
 2855SOL    HW210463  12.032  10.597   8.893
 2856SOL     OW10464   1.928   3.878   3.656
 2856SOL    HW110465   2.009   3.891   3.606
 2856SOL    HW210466   1.955   3.831   3.734
 2857SOL     OW10467   8.754   0.411  13.511
 2857SOL    HW110468   8.785   0.339  13.566
 2857SOL    HW210469   8.712   0.368  13.437
 2858SOL     OW10470  10.710   9.681  14.371
 2858SOL    HW110471  10.619   9.685  14.343
 2858SOL    HW210472  10.757   9.738  14.309
 2859SOL     OW10473   4.787   6.244  14.221
 2859SOL    HW110474   4.823   6.307  14.159
 2859SOL    HW210475   4.696   6.270  14.231
 2860SOL     OW10476   5.295  10.347   9.759
 2860SOL    HW110477   5.319  10.434   9.792
 2860SOL    HW210478   5.253  10.304   9.833
 2861SOL     OW10479  11.680  14.635  12.082
 2861SOL    HW110480  11.625  14.588  12.019
 2861SOL    HW210481  11.719  14.706  12.031
 2862SOL     OW10482   4.398   1.594   1.934
 2862SOL    HW110483   4.458   1.562   2.001
 2862SOL    HW210484   4.396   1.689   1.948
 2863SOL     OW10485  12.523   5.018   5.121
 2863SOL    HW110486  12.428   5.009   5.117
 2863SOL    HW210487  12.553   4.941   5.169
 2864SOL     OW10488   1.051   0.242  10.738
 2864SOL    HW110489   1.131   0.204  10.702
 2864SOL    HW210490   1.043   0.204  10.825
 2865SOL     OW10491  13.790   0.707   6.160
 2865SOL    HW110492  13.806   0.732   6.069
 2865SOL    HW210493  13.708   0.658   6.159
 2866SOL     OW10494  10.550   6.550  11.234
 2866SOL    HW110495  10.584   6.499  11.307
 2866SOL    HW210496  10.456   6.560  11.253
 2867SOL     OW10497   8.806   7.456  14.568
 2867SOL    HW110498   8.790   7.435  14.660
 2867SOL    HW210499   8.844   7.544  14.570
 2868SOL     OW10500   8.256  13.161   6.073
 2868SOL    HW110501   8.320  13.098   6.042
 2868SOL    HW210502   8.184  13.108   6.107
 2869SOL     OW10503   0.229   4.615  11.050
 2869SOL    HW110504   0.282   4.652  11.121
 2869SOL    HW210505   0.150   4.583  11.093
 2870SOL     OW10506   7.851  11.649   5.306
 2870SOL    HW110507   7.859  11.663   5.212
 2870SOL    HW210508   7.827  11.557   5.316
 2871SOL     OW10509   7.401  13.520   4.542
 2871SOL    HW110510   7.332  13.481   4.488
 2871SOL    HW210511   7.355  13.554   4.619
 2872SOL     OW10512   7.458   8.044   9.587
 2872SOL    HW110513   7.462   7.970   9.648
 2872SOL    HW210514   7.435   8.006   9.503
 2873SOL     OW10515   3.182   6.210   4.634
 2873SOL    HW110516   3.106   6.250   4.675
 2873SOL    HW210517   3.191   6.125   4.678
 2874SOL     OW10518   4.814   7.108  10.568
 2874SOL    HW110519   4.782   7.137  10.482
 2874SOL    HW210520   4.751   7.042  10.596
 2875SOL     OW10521  12.468   8.105  12.982
 2875SOL    HW110522  12.448   8.093  12.889
 2875SOL    HW210523  12.564   8.103  12.986
 2876SOL     OW10524   5.917   0.246   4.574
 2876SOL    HW110525   5.872   0.228   4.492
 2876SOL    HW210526   5.963   0.165   4.594
 2877SOL     OW10527  11.840   4.398   6.745
 2877SOL    HW110528  11.887   4.399   6.828
 2877SOL    HW210529  11.759   4.351   6.763
 2878SOL     OW10530   6.621   0.215   4.823
 2878SOL    HW110531   6.676   0.174   4.757
 2878SOL    HW210532   6.574   0.142   4.864
 2879SOL     OW10533   5.977   6.575  10.782
 2879SOL    HW110534   5.983   6.512  10.709
 2879SOL    HW210535   5.997   6.659  10.742
 2880SOL     OW10536  12.631   0.452   3.026
 2880SOL    HW110537  12.649   0.359   3.011
 2880SOL    HW210538  12.709   0.497   2.993
 2881SOL     OW10539  10.280   9.756   3.973
 2881SOL    HW110540  10.342   9.824   4.000
 2881SOL    HW210541  10.238   9.792   3.895
 2882SOL     OW10542   2.534  11.429  11.393
 2882SOL    HW110543   2.444  11.453  11.370
 2882SOL    HW210544   2.546  11.466  11.480
 2883SOL     OW10545   3.266  13.665   9.549
 2883SOL    HW110546   3.277  13.652   9.643
 2883SOL    HW210547   3.194  13.728   9.542
 2884SOL     OW10548  14.082  11.686   7.241
 2884SOL    HW110549  14.170  11.685   7.202
 2884SOL    HW210550  14.025  11.659   7.169
 2885SOL     OW10551   6.829   2.364   8.949
 2885SOL    HW110552   6.837   2.280   8.994
 2885SOL    HW210553   6.758   2.409   8.995
 2886SOL     OW10554  11.947   4.174  12.847
 2886SOL    HW110555  12.017   4.118  12.880
 2886SOL    HW210556  11.991   4.256  12.824
 2887SOL     OW10557   5.717  13.987   4.247
 2887SOL    HW110558   5.700  13.974   4.340
 2887SOL    HW210559   5.716  14.082   4.236
 2888SOL     OW10560   4.052   0.061   8.562
 2888SOL    HW110561   4.111   0.045   8.635
 2888SOL    HW210562   4.073   0.150   8.534
 2889SOL     OW10563  11.077   7.216   5.091
 2889SOL    HW110564  11.157   7.164   5.083
 2889SOL    HW210565  11.061   7.251   5.003
 2890SOL     OW10566   6.012  14.140   5.213
 2890SOL    HW110567   6.011  14.182   5.299
 2890SOL    HW210568   5.988  14.049   5.229
 2891SOL     OW10569   1.648  12.776   5.487
 2891SOL    HW110570   1.634  12.870   5.475
 2891SOL    HW210571   1.711  12.752   5.419
 2892SOL     OW10572   4.988  10.239   6.317
 2892SOL    HW110573   5.065  10.294   6.333
 2892SOL    HW210574   4.971  10.248   6.224
 2893SOL     OW10575  14.339   9.742  11.791
 2893SOL    HW110576  14.273   9.674  11.778
 2893SOL    HW210577  14.357   9.774  11.702
 2894SOL     OW10578   5.472  10.240   0.251
 2894SOL    HW110579   5.539  10.180   0.283
 2894SOL    HW210580   5.392  10.187   0.248
 2895SOL     OW10581   6.095   0.038   5.021
 2895SOL    HW110582   6.150   0.113   5.044
 2895SOL    HW210583   6.154  14.843   5.023
 2896SOL     OW10584   6.788   0.822   9.662
 2896SOL    HW110585   6.820   0.762   9.729
 2896SOL    HW210586   6.821   0.786   9.580
 2897SOL     OW10587   2.651   2.559  13.254
 2897SOL    HW110588   2.734   2.528  13.292
 2897SOL    HW210589   2.587   2.544  13.323
 2898SOL     OW10590   0.728   5.485   5.221
 2898SOL    HW110591   0.781   5.411   5.248
 2898SOL    HW210592   0.782   5.562   5.238
 2899SOL     OW10593  10.954  14.301   3.776
 2899SOL    HW110594  11.049  14.311   3.782
 2899SOL    HW210595  10.923  14.308   3.866
 2900SOL     OW10596   9.970   8.281   9.611
 2900SOL    HW110597   9.903   8.221   9.578
 2900SOL    HW210598  10.046   8.226   9.628
 2901SOL     OW10599   2.010   5.214   6.884
 2901SOL    HW110600   1.931   5.233   6.936
 2901SOL    HW210601   2.057   5.298   6.883
 2902SOL     OW10602   8.560   5.029  11.464
 2902SOL    HW110603   8.589   5.013  11.554
 2902SOL    HW210604   8.584   4.949  11.417
 2903SOL     OW10605  14.180  14.090   1.181
 2903SOL    HW110606  14.216  14.175   1.155
 2903SOL    HW210607  14.215  14.028   1.118
 2904SOL     OW10608   7.404  14.220   5.087
 2904SOL    HW110609   7.452  14.169   5.153
 2904SOL    HW210610   7.415  14.311   5.115
 2905SOL     OW10611   0.356  11.497   2.370
 2905SOL    HW110612   0.383  11.584   2.401
 2905SOL    HW210613   0.318  11.513   2.284
 2906SOL     OW10614   6.102   6.539   6.691
 2906SOL    HW110615   6.122   6.479   6.619
 2906SOL    HW210616   6.015   6.513   6.721
 2907SOL     OW10617  11.254   2.815   3.399
 2907SOL    HW110618  11.237   2.722   3.388
 2907SOL    HW210619  11.329   2.833   3.342
 2908SOL     OW10620   0.778  11.033   5.438
 2908SOL    HW110621   0.787  11.128   5.426
 2908SOL    HW210622   0.700  11.023   5.493
 2909SOL     OW10623   7.484   5.582   1.571
 2909SOL    HW110624   7.480   5.551   1.481
 2909SOL    HW210625   7.405   5.546   1.612
 2910SOL     OW10626   2.668   3.949   8.933
 2910SOL    HW110627   2.628   4.035   8.944
 2910SOL    HW210628   2.649   3.925   8.842
 2911SOL     OW10629  11.278  12.616   5.885
 2911SOL    HW110630  11.328  12.576   5.956
 2911SOL    HW210631  11.344  12.640   5.820
 2912SOL     OW10632   8.195   2.335   2.806
 2912SOL    HW110633   8.266   2.284   2.766
 2912SOL    HW210634   8.163   2.279   2.877
 2913SOL     OW10635   4.132   9.003   8.110
 2913SOL    HW110636   4.105   9.086   8.149
 2913SOL    HW210637   4.217   9.022   8.069
 2914SOL     OW10638   7.709  10.079   6.194
 2914SOL    HW110639   7.695  10.173   6.189
 2914SOL    HW210640   7.802  10.067   6.174
 2915SOL     OW10641  10.494  10.908   8.059
 2915SOL    HW110642  10.573  10.865   8.025
 2915SOL    HW210643  10.499  10.997   8.024
 2916SOL     OW10644   1.110   9.348   7.880
 2916SOL    HW110645   1.016   9.345   7.863
 2916SOL    HW210646   1.146   9.396   7.806
 2917SOL     OW10647   1.107  13.653   9.786
 2917SOL    HW110648   1.019  13.624   9.763
 2917SOL    HW210649   1.127  13.606   9.867
 2918SOL     OW10650   9.655   9.391   3.662
 2918SOL    HW110651   9.621   9.471   3.702
 2918SOL    HW210652   9.726   9.364   3.720
 2919SOL     OW10653   6.535  14.383   7.732
 2919SOL    HW110654   6.610  14.437   7.707
 2919SOL    HW210655   6.474  14.444   7.773
 2920SOL     OW10656   1.960   6.182   9.334
 2920SOL    HW110657   2.005   6.266   9.341
 2920SOL    HW210658   2.011   6.123   9.391
 2921SOL     OW10659  11.917   4.924   9.185
 2921SOL    HW110660  11.858   5.000   9.186
 2921SOL    HW210661  11.879   4.862   9.247
 2922SOL     OW10662  12.639   3.893  10.118
 2922SOL    HW110663  12.678   3.973  10.153
 2922SOL    HW210664  12.549   3.893  10.151
 2923SOL     OW10665  14.653   8.791   7.515
 2923SOL    HW110666  14.658   8.696   7.519
 2923SOL    HW210667  14.663   8.812   7.422
 2924SOL     OW10668   2.295   4.693   7.476
 2924SOL    HW110669   2.327   4.776   7.512
 2924SOL    HW210670   2.200   4.704   7.473
 2925SOL     OW10671   1.594  12.483   8.425
 2925SOL    HW110672   1.674  12.452   8.468
 2925SOL    HW210673   1.621  12.564   8.381
 2926SOL     OW10674   9.532   7.166   0.841
 2926SOL    HW110675   9.443   7.146   0.812
 2926SOL    HW210676   9.559   7.090   0.892
 2927SOL     OW10677   4.703   3.968   1.222
 2927SOL    HW110678   4.634   4.020   1.262
 2927SOL    HW210679   4.711   4.002   1.133
 2928SOL     OW10680  14.307  10.466   6.675
 2928SOL    HW110681  14.335  10.429   6.591
 2928SOL    HW210682  14.262  10.547   6.653
 2929SOL     OW10683   0.773   1.189   1.992
 2929SOL    HW110684   0.772   1.132   2.069
 2929SOL    HW210685   0.779   1.278   2.028
 2930SOL     OW10686   9.248  14.505   8.125
 2930SOL    HW110687   9.224  14.464   8.042
 2930SOL    HW210688   9.292  14.436   8.175
 2931SOL     OW10689  14.281   2.367   2.356
 2931SOL    HW110690  14.241   2.284   2.381
 2931SOL    HW210691  14.236   2.432   2.408
 2932SOL     OW10692   7.860   9.846   8.339
 2932SOL    HW110693   7.936   9.859   8.284
 2932SOL    HW210694   7.833   9.934   8.365
 2933SOL     OW10695   8.037   1.535   4.736
 2933SOL    HW110696   8.030   1.442   4.758
 2933SOL    HW210697   8.044   1.579   4.820
 2934SOL     OW10698  10.156   4.877   0.041
 2934SOL    HW110699  10.093   4.847  14.856
 2934SOL    HW210700  10.112   4.861   0.125
 2935SOL     OW10701   9.549   3.218   4.475
 2935SOL    HW110702   9.513   3.303   4.499
 2935SOL    HW210703   9.614   3.238   4.408
 2936SOL     OW10704  10.767   7.374  13.092
 2936SOL    HW110705  10.679   7.411  13.100
 2936SOL    HW210706  10.807   7.423  13.020
 2937SOL     OW10707   5.850   7.043   0.345
 2937SOL    HW110708   5.786   7.023   0.413
 2937SOL    HW210709   5.824   7.129   0.311
 2938SOL     OW10710   6.801  12.284   1.662
 2938SOL    HW110711   6.713  12.246   1.660
 2938SOL    HW210712   6.846  12.244   1.587
 2939SOL     OW10713   8.503   0.285  14.526
 2939SOL    HW110714   8.458   0.222  14.470
 2939SOL    HW210715   8.433   0.337  14.565
 2940SOL     OW10716   6.523  14.804  10.831
 2940SOL    HW110717   6.519   0.007  10.785
 2940SOL    HW210718   6.574  14.823  10.910
 2941SOL     OW10719   3.207   0.794  14.557
 2941SOL    HW110720   3.254   0.830  14.482
 2941SOL    HW210721   3.241   0.843  14.632
 2942SOL     OW10722  11.338   4.090  12.801
 2942SOL    HW110723  11.329   4.107  12.707
 2942SOL    HW210724  11.281   4.155  12.842
 2943SOL     OW10725  13.734   1.752   5.872
 2943SOL    HW110726  13.680   1.829   5.888
 2943SOL    HW210727  13.773   1.733   5.957
 2944SOL     OW10728   4.309   6.863  14.401
 2944SOL    HW110729   4.227   6.885  14.445
 2944SOL    HW210730   4.362   6.821  14.469
 2945SOL     OW10731   6.206   9.348   8.637
 2945SOL    HW110732   6.220   9.265   8.682
 2945SOL    HW210733   6.190   9.324   8.545
 2946SOL     OW10734  13.121  11.379  14.075
 2946SOL    HW110735  13.107  11.474  14.070
 2946SOL    HW210736  13.033  11.342  14.067
 2947SOL     OW10737   7.270   9.745  14.813
 2947SOL    HW110738   7.190   9.694  14.807
 2947SOL    HW210739   7.335   9.694  14.764
 2948SOL     OW10740   0.480   6.153   3.771
 2948SOL    HW110741   0.462   6.230   3.826
 2948SOL    HW210742   0.523   6.091   3.830
 2949SOL     OW10743  10.109  12.298  13.082
 2949SOL    HW110744  10.059  12.294  13.163
 2949SOL    HW210745  10.080  12.222  13.032
 2950SOL     OW10746   2.964  11.919  11.921
 2950SOL    HW110747   2.895  11.853  11.928
 2950SOL    HW210748   3.040  11.871  11.888
 2951SOL     OW10749   8.425  12.044   8.103
 2951SOL    HW110750   8.505  12.046   8.155
 2951SOL    HW210751   8.409  11.951   8.087
 2952SOL     OW10752   1.894   9.233   4.163
 2952SOL    HW110753   1.896   9.208   4.070
 2952SOL    HW210754   1.964   9.297   4.172
 2953SOL     OW10755   6.618  10.215  11.339
 2953SOL    HW110756   6.575  10.274  11.400
 2953SOL    HW210757   6.703  10.197  11.378
 2954SOL     OW10758   9.951   7.327   0.479
 2954SOL    HW110759  10.016   7.344   0.411
 2954SOL    HW210760   9.867   7.342   0.435
 2955SOL     OW10761   0.898   2.088  13.714
 2955SOL    HW110762   0.847   2.164  13.741
 2955SOL    HW210763   0.835   2.032  13.668
 2956SOL     OW10764   4.711  11.988  11.867
 2956SOL    HW110765   4.779  12.055  11.857
 2956SOL    HW210766   4.694  11.957  11.778
 2957SOL     OW10767   1.387   0.328   8.806
 2957SOL    HW110768   1.434   0.402   8.845
 2957SOL    HW210769   1.352   0.279   8.880
 2958SOL     OW10770  13.623  10.378   1.864
 2958SOL    HW110771  13.635  10.347   1.775
 2958SOL    HW210772  13.690  10.445   1.876
 2959SOL     OW10773   2.738  11.625  12.449
 2959SOL    HW110774   2.651  11.592  12.471
 2959SOL    HW210775   2.798  11.566  12.495
 2960SOL     OW10776   4.555   3.107  12.442
 2960SOL    HW110777   4.491   3.167  12.404
 2960SOL    HW210778   4.510   3.068  12.518
 2961SOL     OW10779  11.089  10.641   9.385
 2961SOL    HW110780  11.078  10.617   9.477
 2961SOL    HW210781  11.011  10.605   9.342
 2962SOL     OW10782   3.936   5.109   1.302
 2962SOL    HW110783   3.858   5.143   1.347
 2962SOL    HW210784   3.994   5.184   1.295
 2963SOL     OW10785  10.543  12.032   4.178
 2963SOL    HW110786  10.558  12.029   4.084
 2963SOL    HW210787  10.526  12.125   4.196
 2964SOL     OW10788   9.353   2.897   7.204
 2964SOL    HW110789   9.394   2.975   7.241
 2964SOL    HW210790   9.363   2.830   7.272
 2965SOL     OW10791  14.062  12.710   3.580
 2965SOL    HW110792  14.058  12.716   3.676
 2965SOL    HW210793  14.089  12.620   3.563
 2966SOL     OW10794   0.138   6.471   8.227
 2966SOL    HW110795   0.220   6.454   8.275
 2966SOL    HW210796   0.163   6.466   8.135
 2967SOL     OW10797  12.317   9.049  12.915
 2967SOL    HW110798  12.314   9.144  12.905
 2967SOL    HW210799  12.230   9.019  12.888
 2968SOL     OW10800  12.227  13.675   1.985
 2968SOL    HW110801  12.276  13.624   2.049
 2968SOL    HW210802  12.246  13.766   2.008
 2969SOL     OW10803  12.112   6.501   8.004
 2969SOL    HW110804  12.131   6.421   8.054
 2969SOL    HW210805  12.080   6.469   7.919
 2970SOL     OW10806   7.827   5.625   3.895
 2970SOL    HW110807   7.779   5.705   3.914
 2970SOL    HW210808   7.906   5.655   3.850
 2971SOL     OW10809   5.436   8.005   3.245
 2971SOL    HW110810   5.422   8.028   3.337
 2971SOL    HW210811   5.348   8.001   3.207
 2972SOL     OW10812   2.332   1.133   1.198
 2972SOL    HW110813   2.367   1.104   1.282
 2972SOL    HW210814   2.313   1.226   1.211
 2973SOL     OW10815   0.640   4.743   5.487
 2973SOL    HW110816   0.590   4.743   5.405
 2973SOL    HW210817   0.721   4.697   5.466
 2974SOL     OW10818   8.803   1.329   9.433
 2974SOL    HW110819   8.872   1.286   9.484
 2974SOL    HW210820   8.729   1.269   9.438
 2975SOL     OW10821  14.025  10.171   5.690
 2975SOL    HW110822  14.033  10.214   5.776
 2975SOL    HW210823  14.041  10.079   5.709
 2976SOL     OW10824   1.286   0.723  10.809
 2976SOL    HW110825   1.213   0.665  10.787
 2976SOL    HW210826   1.306   0.704  10.900
 2977SOL     OW10827   4.916   6.533   1.571
 2977SOL    HW110828   4.887   6.530   1.480
 2977SOL    HW210829   5.010   6.515   1.567
 2978SOL     OW10830   5.000   2.219   2.017
 2978SOL    HW110831   5.068   2.262   1.965
 2978SOL    HW210832   5.001   2.128   1.987
 2979SOL     OW10833  13.272   9.894  12.527
 2979SOL    HW110834  13.242   9.985  12.521
 2979SOL    HW210835  13.303   9.885  12.617
 2980SOL     OW10836   8.869   7.777  14.849
 2980SOL    HW110837   8.883   7.760  14.756
 2980SOL    HW210838   8.948   7.745   0.012
 2981SOL     OW10839   8.762  11.695   7.251
 2981SOL    HW110840   8.720  11.621   7.209
 2981SOL    HW210841   8.695  11.764   7.250
 2982SOL     OW10842  13.450   7.093   7.518
 2982SOL    HW110843  13.437   7.054   7.432
 2982SOL    HW210844  13.409   7.180   7.512
 2983SOL     OW10845   8.371   6.036   8.434
 2983SOL    HW110846   8.465   6.052   8.435
 2983SOL    HW210847   8.360   5.951   8.477
 2984SOL     OW10848   5.149   2.459   1.503
 2984SOL    HW110849   5.156   2.554   1.493
 2984SOL    HW210850   5.110   2.446   1.589
 2985SOL     OW10851   8.701  12.928   8.217
 2985SOL    HW110852   8.775  12.889   8.170
 2985SOL    HW210853   8.644  12.854   8.239
 2986SOL     OW10854   6.058   9.850  14.397
 2986SOL    HW110855   6.085   9.836  14.306
 2986SOL    HW210856   6.056   9.946  14.406
 2987SOL     OW10857   4.555   8.600   8.787
 2987SOL    HW110858   4.524   8.512   8.765
 2987SOL    HW210859   4.639   8.608   8.741
 2988SOL     OW10860   4.388   7.937  14.857
 2988SOL    HW110861   4.367   7.853   0.018
 2988SOL    HW210862   4.429   7.914  14.774
 2989SOL     OW10863   6.582   3.189   8.360
 2989SOL    HW110864   6.511   3.172   8.422
 2989SOL    HW210865   6.539   3.197   8.275
 2990SOL     OW10866   8.386   0.350  12.868
 2990SOL    HW110867   8.404   0.262  12.901
 2990SOL    HW210868   8.376   0.339  12.773
 2991SOL     OW10869  11.375   6.754   6.065
 2991SOL    HW110870  11.373   6.687   6.133
 2991SOL    HW210871  11.468   6.773   6.053
 2992SOL     OW10872  10.950   2.343   9.722
 2992SOL    HW110873  10.939   2.393   9.802
 2992SOL    HW210874  10.911   2.398   9.654
 2993SOL     OW10875   7.985   5.245  12.099
 2993SOL    HW110876   7.937   5.215  12.175
 2993SOL    HW210877   7.925   5.233  12.026
 2994SOL     OW10878  14.741  11.029   4.669
 2994SOL    HW110879  14.749  10.953   4.611
 2994SOL    HW210880  14.776  11.102   4.618
 2995SOL     OW10881  10.880   8.222   4.889
 2995SOL    HW110882  10.813   8.174   4.938
 2995SOL    HW210883  10.921   8.279   4.953
 2996SOL     OW10884   7.530  12.767   8.764
 2996SOL    HW110885   7.573  12.682   8.750
 2996SOL    HW210886   7.600  12.824   8.796
 2997SOL     OW10887  10.132   1.518   0.669
 2997SOL    HW110888  10.132   1.614   0.663
 2997SOL    HW210889  10.225   1.494   0.668
 2998SOL     OW10890  13.901   0.709   9.755
 2998SOL    HW110891  13.847   0.762   9.697
 2998SOL    HW210892  13.964   0.771   9.793
 2999SOL     OW10893   4.055   8.021  12.229
 2999SOL    HW110894   4.053   8.116  12.244
 2999SOL    HW210895   4.066   7.984  12.317
 3000SOL     OW10896  10.246   5.064   0.355
 3000SOL    HW110897  10.332   5.023   0.362
 3000SOL    HW210898  10.206   5.050   0.441
 3001SOL     OW10899   8.936   1.806  12.476
 3001SOL    HW110900   8.850   1.847  12.478
 3001SOL    HW210901   8.954   1.792  12.383
 3002SOL     OW10902   0.183   4.143   2.844
 3002SOL    HW110903   0.263   4.182   2.809
 3002SOL    HW210904   0.211   4.098   2.924
 3003SOL     OW10905  10.761   4.480  10.783
 3003SOL    HW110906  10.689   4.418  10.774
 3003SOL    HW210907  10.767   4.496  10.877
 3004SOL     OW10908   0.691   6.352   4.374
 3004SOL    HW110909   0.677   6.293   4.448
 3004SOL    HW210910   0.781   6.335   4.346
 3005SOL     OW10911  14.398  11.416   7.187
 3005SOL    HW110912  14.479  11.457   7.220
 3005SOL    HW210913  14.339  11.416   7.263
 3006SOL     OW10914   7.156  11.232  10.197
 3006SOL    HW110915   7.217  11.293  10.155
 3006SOL    HW210916   7.070  11.275  10.190
 3007SOL     OW10917   2.774  11.280   6.135
 3007SOL    HW110918   2.837  11.227   6.183
 3007SOL    HW210919   2.761  11.357   6.190
 3008SOL     OW10920   5.560  14.272   5.849
 3008SOL    HW110921   5.637  14.220   5.871
 3008SOL    HW210922   5.506  14.214   5.795
 3009SOL     OW10923   0.227   0.717   9.975
 3009SOL    HW110924   0.288   0.654   9.936
 3009SOL    HW210925   0.283   0.789  10.003
 3010SOL     OW10926  12.304  14.388  13.050
 3010SOL    HW110927  12.232  14.377  12.987
 3010SOL    HW210928  12.337  14.299  13.063
 3011SOL     OW10929   0.530  10.626   9.917
 3011SOL    HW110930   0.576  10.678   9.983
 3011SOL    HW210931   0.542  10.536   9.945
 3012SOL     OW10932   8.688   7.227  12.419
 3012SOL    HW110933   8.763   7.167  12.419
 3012SOL    HW210934   8.697   7.276  12.501
 3013SOL     OW10935   7.275   3.952  13.154
 3013SOL    HW110936   7.204   3.911  13.204
 3013SOL    HW210937   7.344   3.885  13.153
 3014SOL     OW10938   8.423   1.108  12.122
 3014SOL    HW110939   8.328   1.106  12.132
 3014SOL    HW210940   8.455   1.054  12.195
 3015SOL     OW10941   4.919   0.833   2.781
 3015SOL    HW110942   5.012   0.845   2.760
 3015SOL    HW210943   4.908   0.738   2.785
 3016SOL     OW10944   1.377  10.770   2.872
 3016SOL    HW110945   1.455  10.810   2.834
 3016SOL    HW210946   1.408  10.728   2.952
 3017SOL     OW10947  11.579   3.737   7.870
 3017SOL    HW110948  11.580   3.720   7.775
 3017SOL    HW210949  11.544   3.656   7.908
 3018SOL     OW10950  11.859   3.017   3.626
 3018SOL    HW110951  11.783   3.073   3.641
 3018SOL    HW210952  11.934   3.075   3.640
 3019SOL     OW10953   2.834   7.866  13.548
 3019SOL    HW110954   2.862   7.942  13.496
 3019SOL    HW210955   2.744   7.850  13.519
 3020SOL     OW10956   6.074   4.941   9.665
 3020SOL    HW110957   6.059   4.989   9.746
 3020SOL    HW210958   6.042   4.999   9.596
 3021SOL     OW10959   4.322   2.168   3.114
 3021SOL    HW110960   4.392   2.227   3.088
 3021SOL    HW210961   4.316   2.178   3.209
 3022SOL     OW10962   4.934  14.286   2.836
 3022SOL    HW110963   4.931  14.307   2.929
 3022SOL    HW210964   4.912  14.193   2.832
 3023SOL     OW10965   2.840  10.164   7.434
 3023SOL    HW110966   2.841  10.235   7.498
 3023SOL    HW210967   2.918  10.112   7.454
 3024SOL     OW10968   7.398   6.710   3.296
 3024SOL    HW110969   7.353   6.762   3.229
 3024SOL    HW210970   7.378   6.619   3.273
 3025SOL     OW10971   8.072   5.707   3.432
 3025SOL    HW110972   8.076   5.659   3.515
 3025SOL    HW210973   7.981   5.735   3.424
 3026SOL     OW10974  12.944   7.509   9.962
 3026SOL    HW110975  12.927   7.426  10.006
 3026SOL    HW210976  13.031   7.499   9.925
 3027SOL     OW10977   0.864  12.134  11.687
 3027SOL    HW110978   0.824  12.061  11.735
 3027SOL    HW210979   0.957  12.130  11.709
 3028SOL     OW10980   4.064  13.155   5.714
 3028SOL    HW110981   4.024  13.109   5.640
 3028SOL    HW210982   4.115  13.088   5.760
 3029SOL     OW10983   9.582  12.771  11.354
 3029SOL    HW110984   9.641  12.779  11.279
 3029SOL    HW210985   9.601  12.847  11.408
 3030SOL     OW10986  12.158  10.041   6.121
 3030SOL    HW110987  12.239  10.017   6.166
 3030SOL    HW210988  12.099  10.070   6.191
 3031SOL     OW10989   5.109   4.402  14.055
 3031SOL    HW110990   5.095   4.466  13.985
 3031SOL    HW210991   5.045   4.332  14.037
 3032SOL     OW10992  14.417   3.253  14.503
 3032SOL    HW110993  14.473   3.300  14.440
 3032SOL    HW210994  14.357   3.320  14.536
 3033SOL     OW10995   3.888   8.264   4.005
 3033SOL    HW110996   3.929   8.245   3.920
 3033SOL    HW210997   3.936   8.208   4.066
 3034SOL     OW10998  12.314   7.792   4.742
 3034SOL    HW110999  12.309   7.854   4.669
 3034SOL    HW211000  12.226   7.754   4.747
 3035SOL     OW11001   1.406   6.149  10.356
 3035SOL    HW111002   1.398   6.143  10.451
 3035SOL    HW211003   1.501   6.154  10.340
 3036SOL     OW11004   0.287   3.575   1.863
 3036SOL    HW111005   0.278   3.488   1.823
 3036SOL    HW211006   0.214   3.626   1.828
 3037SOL     OW11007   4.966   5.845   5.460
 3037SOL    HW111008   5.005   5.888   5.536
 3037SOL    HW211009   5.026   5.774   5.439
 3038SOL     OW11010   6.127   2.829   9.203
 3038SOL    HW111011   6.047   2.862   9.162
 3038SOL    HW211012   6.117   2.850   9.296
 3039SOL     OW11013  11.700  12.938   2.346
 3039SOL    HW111014  11.792  12.956   2.369
 3039SOL    HW211015  11.679  13.002   2.278
 3040SOL     OW11016  10.738  10.881  11.915
 3040SOL    HW111017  10.774  10.962  11.951
 3040SOL    HW211018  10.761  10.813  11.979
 3041SOL     OW11019   3.118   7.211  14.086
 3041SOL    HW111020   3.134   7.130  14.037
 3041SOL    HW211021   3.085   7.272  14.020
 3042SOL     OW11022   4.282   1.033  14.613
 3042SOL    HW111023   4.225   1.087  14.559
 3042SOL    HW211024   4.370   1.068  14.598
 3043SOL     OW11025  12.937  13.938   9.422
 3043SOL    HW111026  12.916  13.876   9.352
 3043SOL    HW211027  12.989  13.887   9.484
 3044SOL     OW11028   4.830   0.936   9.338
 3044SOL    HW111029   4.825   0.842   9.356
 3044SOL    HW211030   4.915   0.962   9.374
 3045SOL     OW11031   9.743  13.767   7.039
 3045SOL    HW111032   9.713  13.679   7.017
 3045SOL    HW211033   9.667  13.808   7.080
 3046SOL     OW11034   2.045   7.826   2.090
 3046SOL    HW111035   2.075   7.846   2.001
 3046SOL    HW211036   2.116   7.856   2.146
 3047SOL     OW11037  14.683   8.811  12.596
 3047SOL    HW111038  14.745   8.877  12.566
 3047SOL    HW211039  14.723   8.773  12.674
 3048SOL     OW11040   3.778  11.460  13.906
 3048SOL    HW111041   3.734  11.397  13.963
 3048SOL    HW211042   3.871  11.443  13.918
 3049SOL     OW11043   8.904   8.783   0.468
 3049SOL    HW111044   8.949   8.859   0.432
 3049SOL    HW211045   8.834   8.820   0.522
 3050SOL     OW11046  13.264   3.013  13.083
 3050SOL    HW111047  13.306   3.073  13.145
 3050SOL    HW211048  13.181   3.055  13.061
 3051SOL     OW11049   6.537   4.148  13.118
 3051SOL    HW111050   6.524   4.215  13.051
 3051SOL    HW211051   6.456   4.095  13.115
 3052SOL     OW11052   3.947   2.737   1.182
 3052SOL    HW111053   3.973   2.658   1.135
 3052SOL    HW211054   3.985   2.726   1.270
 3053SOL     OW11055   0.833  14.174  11.143
 3053SOL    HW111056   0.888  14.153  11.219
 3053SOL    HW211057   0.763  14.228  11.179
 3054SOL     OW11058   9.662  12.516   9.061
 3054SOL    HW111059   9.643  12.536   9.152
 3054SOL    HW211060   9.577  12.517   9.017
 3055SOL     OW11061   1.623   0.983  11.150
 3055SOL    HW111062   1.580   0.941  11.076
 3055SOL    HW211063   1.645   1.070  11.118
 3056SOL     OW11064  14.641  10.139  14.501
 3056SOL    HW111065  14.598  10.097  14.576
 3056SOL    HW211066  14.657  10.067  14.440
 3057SOL     OW11067   1.594  14.389   5.130
 3057SOL    HW111068   1.679  14.361   5.163
 3057SOL    HW211069   1.615  14.448   5.058
 3058SOL     OW11070   8.991   5.491  11.686
 3058SOL    HW111071   8.899   5.497  11.659
 3058SOL    HW211072   9.037   5.460  11.608
 3059SOL     OW11073  14.797   3.593   4.942
 3059SOL    HW111074  14.760   3.676   4.912
 3059SOL    HW211075  14.722   3.543   4.974
 3060SOL     OW11076   6.380   0.338   7.909
 3060SOL    HW111077   6.285   0.339   7.900
 3060SOL    HW211078   6.402   0.247   7.926
 3061SOL     OW11079   7.407   2.470  10.684
 3061SOL    HW111080   7.339   2.527  10.648
 3061SOL    HW211081   7.456   2.439  10.608
 3062SOL     OW11082   0.499   7.263   4.357
 3062SOL    HW111083   0.424   7.205   4.347
 3062SOL    HW211084   0.574   7.210   4.329
 3063SOL     OW11085   9.800   8.542   1.752
 3063SOL    HW111086   9.765   8.525   1.665
 3063SOL    HW211087   9.727   8.583   1.799
 3064SOL     OW11088  10.318  12.954   4.198
 3064SOL    HW111089  10.288  12.960   4.288
 3064SOL    HW211090  10.360  13.039   4.181
 3065SOL     OW11091   2.562   5.577  13.232
 3065SOL    HW111092   2.624   5.511  13.201
 3065SOL    HW211093   2.596   5.601  13.319
 3066SOL     OW11094   5.622   7.636  12.115
 3066SOL    HW111095   5.592   7.640  12.206
 3066SOL    HW211096   5.584   7.556  12.081
 3067SOL     OW11097   9.663   7.195   9.727
 3067SOL    HW111098   9.609   7.116   9.720
 3067SOL    HW211099   9.668   7.229   9.638
 3068SOL     OW11100  13.051  10.708  11.594
 3068SOL    HW111101  13.134  10.699  11.642
 3068SOL    HW211102  13.076  10.706  11.502
 3069SOL     OW11103  10.116   5.714  11.877
 3069SOL    HW111104  10.144   5.666  11.799
 3069SOL    HW211105  10.068   5.789  11.842
 3070SOL     OW11106  11.413  14.193  12.105
 3070SOL    HW111107  11.391  14.285  12.091
 3070SOL    HW211108  11.360  14.146  12.041
 3071SOL     OW11109  12.730   9.729  10.155
 3071SOL    HW111110  12.690   9.646  10.129
 3071SOL    HW211111  12.819   9.705  10.182
 3072SOL     OW11112  10.643   2.628  13.508
 3072SOL    HW111113  10.702   2.689  13.463
 3072SOL    HW211114  10.555   2.661  13.489
 3073SOL     OW11115   0.167   6.367   0.018
 3073SOL    HW111116   0.072   6.358   0.016
 3073SOL    HW211117   0.200   6.278   0.008
 3074SOL     OW11118   7.715   2.592   3.231
 3074SOL    HW111119   7.786   2.613   3.292
 3074SOL    HW211120   7.656   2.536   3.282
 3075SOL     OW11121  12.844   7.985   3.996
 3075SOL    HW111122  12.894   7.912   4.032
 3075SOL    HW211123  12.896   8.016   3.922
 3076SOL     OW11124  14.752  12.934   5.998
 3076SOL    HW111125  14.822  12.869   6.008
 3076SOL    HW211126  14.685  12.908   6.060
 3077SOL     OW11127   5.561  11.828   5.151
 3077SOL    HW111128   5.499  11.901   5.148
 3077SOL    HW211129   5.614  11.844   5.229
 3078SOL     OW11130  14.099  14.025   4.999
 3078SOL    HW111131  14.172  14.031   4.937
 3078SOL    HW211132  14.055  14.110   4.994
 3079SOL     OW11133   3.012   0.234   6.274
 3079SOL    HW111134   2.999   0.329   6.279
 3079SOL    HW211135   2.933   0.198   6.314
 3080SOL     OW11136   6.807   0.209   0.275
 3080SOL    HW111137   6.894   0.168   0.282
 3080SOL    HW211138   6.774   0.210   0.365
 3081SOL     OW11139   6.320  14.388  10.688
 3081SOL    HW111140   6.400  14.377  10.638
 3081SOL    HW211141   6.285  14.299  10.698
 3082SOL     OW11142  14.054  12.302   0.867
 3082SOL    HW111143  14.114  12.300   0.941
 3082SOL    HW211144  13.997  12.377   0.883
 3083SOL     OW11145  11.960   9.668   9.945
 3083SOL    HW111146  11.929   9.588   9.903
 3083SOL    HW211147  12.041   9.690   9.900
 3084SOL     OW11148  12.525  11.445  14.804
 3084SOL    HW111149  12.434  11.416  14.790
 3084SOL    HW211150  12.578  11.369  14.780
 3085SOL     OW11151   7.242   7.635   0.845
 3085SOL    HW111152   7.180   7.601   0.782
 3085SOL    HW211153   7.188   7.682   0.909
 3086SOL     OW11154  11.816  13.296   2.424
 3086SOL    HW111155  11.910  13.304   2.442
 3086SOL    HW211156  11.775  13.360   2.482
 3087SOL     OW11157   2.242   7.285   4.678
 3087SOL    HW111158   2.299   7.282   4.601
 3087SOL    HW211159   2.167   7.230   4.654
 3088SOL     OW11160   8.863   2.745  10.402
 3088SOL    HW111161   8.894   2.657  10.423
 3088SOL    HW211162   8.812   2.735  10.322
 3089SOL     OW11163   2.319   1.529   8.333
 3089SOL    HW111164   2.293   1.437   8.339
 3089SOL    HW211165   2.270   1.573   8.402
 3090SOL     OW11166   1.671  13.321   2.621
 3090SOL    HW111167   1.746  13.341   2.566
 3090SOL    HW211168   1.685  13.373   2.701
 3091SOL     OW11169   8.858  12.685   4.377
 3091SOL    HW111170   8.934  12.682   4.435
 3091SOL    HW211171   8.811  12.765   4.403
 3092SOL     OW11172  12.966   5.572   8.703
 3092SOL    HW111173  12.955   5.666   8.719
 3092SOL    HW211174  12.895   5.549   8.643
 3093SOL     OW11175   2.997   0.252  13.323
 3093SOL    HW111176   3.033   0.266  13.411
 3093SOL    HW211177   2.994   0.340  13.284
 3094SOL     OW11178   2.103  10.889   6.358
 3094SOL    HW111179   2.090  10.975   6.318
 3094SOL    HW211180   2.068  10.898   6.447
 3095SOL     OW11181  14.637   8.080   1.298
 3095SOL    HW111182  14.695   8.007   1.323
 3095SOL    HW211183  14.578   8.042   1.233
 3096SOL     OW11184   6.067   9.221   1.320
 3096SOL    HW111185   6.140   9.214   1.381
 3096SOL    HW211186   6.058   9.134   1.281
 3097SOL     OW11187   3.187  13.683  13.936
 3097SOL    HW111188   3.275  13.647  13.928
 3097SOL    HW211189   3.190  13.766  13.888
 3098SOL     OW11190  12.526  10.657   0.043
 3098SOL    HW111191  12.530  10.717  14.849
 3098SOL    HW211192  12.551  10.711   0.118
 3099SOL     OW11193  11.309   2.642  13.337
 3099SOL    HW111194  11.360   2.622  13.259
 3099SOL    HW211195  11.332   2.733  13.357
 3100SOL     OW11196  11.509   7.336   6.066
 3100SOL    HW111197  11.506   7.244   6.040
 3100SOL    HW211198  11.561   7.379   5.999
 3101SOL     OW11199   0.135  13.492   7.518
 3101SOL    HW111200   0.145  13.496   7.423
 3101SOL    HW211201   0.044  13.517   7.533
 3102SOL     OW11202   4.211   5.742   7.705
 3102SOL    HW111203   4.256   5.764   7.786
 3102SOL    HW211204   4.280   5.739   7.639
 3103SOL     OW11205  11.562   9.299   6.993
 3103SOL    HW111206  11.604   9.377   7.030
 3103SOL    HW211207  11.493   9.278   7.055
 3104SOL     OW11208   3.629   2.693  11.289
 3104SOL    HW111209   3.615   2.703  11.194
 3104SOL    HW211210   3.654   2.781  11.318
 3105SOL     OW11211   4.551  12.514   4.964
 3105SOL    HW111212   4.585  12.424   4.967
 3105SOL    HW211213   4.456  12.504   4.975
 3106SOL     OW11214   4.140   0.082   7.654
 3106SOL    HW111215   4.051   0.089   7.688
 3106SOL    HW211216   4.140   0.136   7.574
 3107SOL     OW11217   7.614   0.576   9.254
 3107SOL    HW111218   7.686   0.608   9.199
 3107SOL    HW211219   7.593   0.489   9.218
 3108SOL     OW11220   4.506   1.880   6.248
 3108SOL    HW111221   4.483   1.951   6.308
 3108SOL    HW211222   4.459   1.900   6.167
 3109SOL     OW11223  10.258  13.225   8.438
 3109SOL    HW111224  10.190  13.276   8.482
 3109SOL    HW211225  10.338  13.244   8.487
 3110SOL     OW11226  13.718  14.507  12.411
 3110SOL    HW111227  13.719  14.579  12.475
 3110SOL    HW211228  13.636  14.519  12.364
 3111SOL     OW11229   9.266   3.309  14.430
 3111SOL    HW111230   9.267   3.240  14.363
 3111SOL    HW211231   9.340   3.365  14.407
 3112SOL     OW11232   8.944  14.281  14.436
 3112SOL    HW111233   8.865  14.266  14.385
 3112SOL    HW211234   8.948  14.375  14.448
 3113SOL     OW11235   8.310  12.852  11.902
 3113SOL    HW111236   8.277  12.850  11.813
 3113SOL    HW211237   8.364  12.931  11.906
 3114SOL     OW11238   8.017   8.188   2.229
 3114SOL    HW111239   7.949   8.132   2.267
 3114SOL    HW211240   8.092   8.130   2.218
 3115SOL     OW11241   7.654   6.783   3.358
 3115SOL    HW111242   7.569   6.750   3.330
 3115SOL    HW211243   7.667   6.862   3.305
 3116SOL     OW11244  13.566   8.822  12.644
 3116SOL    HW111245  13.476   8.839  12.670
 3116SOL    HW211246  13.576   8.870  12.561
 3117SOL     OW11247   3.556   1.534  12.059
 3117SOL    HW111248   3.645   1.519  12.090
 3117SOL    HW211249   3.502   1.523  12.138
 3118SOL     OW11250   1.096   3.213   5.194
 3118SOL    HW111251   1.131   3.288   5.146
 3118SOL    HW211252   1.166   3.147   5.189
 3119SOL     OW11253   9.866   4.532   8.633
 3119SOL    HW111254   9.853   4.489   8.549
 3119SOL    HW211255   9.861   4.625   8.614
 3120SOL     OW11256  12.715   6.045   9.119
 3120SOL    HW111257  12.791   6.034   9.062
 3120SOL    HW211258  12.694   6.138   9.115
 3121SOL     OW11259  11.468   9.438   1.279
 3121SOL    HW111260  11.451   9.345   1.296
 3121SOL    HW211261  11.462   9.479   1.365
 3122SOL     OW11262   9.747  12.310   2.852
 3122SOL    HW111263   9.732  12.282   2.762
 3122SOL    HW211264   9.667  12.356   2.877
 3123SOL     OW11265   2.471   2.415   7.422
 3123SOL    HW111266   2.551   2.414   7.371
 3123SOL    HW211267   2.448   2.323   7.435
 3124SOL     OW11268  12.762   2.766  12.551
 3124SOL    HW111269  12.833   2.716  12.510
 3124SOL    HW211270  12.718   2.809  12.478
 3125SOL     OW11271   8.736  10.861   4.581
 3125SOL    HW111272   8.665  10.796   4.582
 3125SOL    HW211273   8.814  10.811   4.556
 3126SOL     OW11274   4.806   3.170   5.665
 3126SOL    HW111275   4.838   3.132   5.583
 3126SOL    HW211276   4.795   3.263   5.645
 3127SOL     OW11277   3.120   2.428   1.117
 3127SOL    HW111278   3.122   2.416   1.022
 3127SOL    HW211279   3.069   2.354   1.149
 3128SOL     OW11280   1.931   0.265  14.227
 3128SOL    HW111281   1.846   0.305  14.211
 3128SOL    HW211282   1.993   0.338  14.217
 3129SOL     OW11283   8.390   6.864   0.908
 3129SOL    HW111284   8.451   6.909   0.850
 3129SOL    HW211285   8.349   6.935   0.958
 3130SOL     OW11286   5.964   5.517   6.083
 3130SOL    HW111287   5.968   5.489   6.174
 3130SOL    HW211288   5.972   5.613   6.086
 3131SOL     OW11289   3.496   0.880   4.929
 3131SOL    HW111290   3.473   0.878   4.836
 3131SOL    HW211291   3.546   0.800   4.943
 3132SOL     OW11292   3.466   2.089   5.702
 3132SOL    HW111293   3.514   2.045   5.773
 3132SOL    HW211294   3.477   2.183   5.721
 3133SOL     OW11295   9.193   3.611  11.939
 3133SOL    HW111296   9.118   3.556  11.960
 3133SOL    HW211297   9.267   3.551  11.933
 3134SOL     OW11298   1.738   2.270  10.876
 3134SOL    HW111299   1.738   2.363  10.854
 3134SOL    HW211300   1.750   2.226  10.792
 3135SOL     OW11301   5.549  11.924  13.050
 3135SOL    HW111302   5.493  11.854  13.018
 3135SOL    HW211303   5.637  11.901  13.020
 3136SOL     OW11304   7.652   6.095   6.245
 3136SOL    HW111305   7.618   6.007   6.262
 3136SOL    HW211306   7.589   6.153   6.288
 3137SOL     OW11307   5.963   2.074   5.368
 3137SOL    HW111308   5.983   2.148   5.311
 3137SOL    HW211309   5.934   2.115   5.450
 3138SOL     OW11310   5.870   6.820  13.114
 3138SOL    HW111311   5.801   6.817  13.180
 3138SOL    HW211312   5.912   6.905  13.128
 3139SOL     OW11313   4.475   0.606   3.085
 3139SOL    HW111314   4.392   0.575   3.049
 3139SOL    HW211315   4.488   0.692   3.047
 3140SOL     OW11316   2.305   7.268   7.693
 3140SOL    HW111317   2.357   7.259   7.774
 3140SOL    HW211318   2.274   7.179   7.675
 3141SOL     OW11319   1.044   1.891   0.071
 3141SOL    HW111320   0.965   1.838   0.078
 3141SOL    HW211321   1.109   1.845   0.122
 3142SOL     OW11322  10.500  13.590   6.810
 3142SOL    HW111323  10.595  13.594   6.797
 3142SOL    HW211324  10.463  13.591   6.722
 3143SOL     OW11325   9.175  10.263  12.830
 3143SOL    HW111326   9.118  10.187  12.817
 3143SOL    HW211327   9.206  10.255  12.920
 3144SOL     OW11328   2.770  10.879  11.829
 3144SOL    HW111329   2.794  10.803  11.777
 3144SOL    HW211330   2.820  10.952  11.790
 3145SOL     OW11331  13.582   1.520   1.898
 3145SOL    HW111332  13.490   1.527   1.873
 3145SOL    HW211333  13.615   1.444   1.850
 3146SOL     OW11334   5.088   1.217  12.354
 3146SOL    HW111335   5.181   1.206  12.333
 3146SOL    HW211336   5.085   1.298  12.406
 3147SOL     OW11337  11.702   3.727  13.920
 3147SOL    HW111338  11.767   3.795  13.940
 3147SOL    HW211339  11.621   3.760  13.958
 3148SOL     OW11340  11.399   7.536   5.104
 3148SOL    HW111341  11.369   7.480   5.033
 3148SOL    HW211342  11.321   7.551   5.157
 3149SOL     OW11343   3.883  13.999   1.573
 3149SOL    HW111344   3.914  14.042   1.653
 3149SOL    HW211345   3.788  14.007   1.578
 3150SOL     OW11346  10.647   7.520  12.058
 3150SOL    HW111347  10.652   7.440  12.004
 3150SOL    HW211348  10.558   7.552  12.046
 3151SOL     OW11349  11.546   8.972  12.455
 3151SOL    HW111350  11.509   8.884  12.452
 3151SOL    HW211351  11.501   9.020  12.385
 3152SOL     OW11352   1.577   6.737   3.095
 3152SOL    HW111353   1.586   6.810   3.156
 3152SOL    HW211354   1.520   6.769   3.026
 3153SOL     OW11355   1.709   3.172   3.924
 3153SOL    HW111356   1.745   3.195   3.839
 3153SOL    HW211357   1.786   3.161   3.980
 3154SOL     OW11358   9.294   9.353   3.872
 3154SOL    HW111359   9.282   9.264   3.840
 3154SOL    HW211360   9.376   9.351   3.921
 3155SOL     OW11361   6.526   2.000  12.121
 3155SOL    HW111362   6.471   2.057  12.174
 3155SOL    HW211363   6.616   2.026  12.143
 3156SOL     OW11364   8.871   0.439   6.211
 3156SOL    HW111365   8.786   0.435   6.169
 3156SOL    HW211366   8.863   0.384   6.289
 3157SOL     OW11367   5.565   4.837  14.593
 3157SOL    HW111368   5.471   4.831  14.611
 3157SOL    HW211369   5.599   4.895  14.662
 3158SOL     OW11370   0.712  10.201   7.606
 3158SOL    HW111371   0.621  10.179   7.622
 3158SOL    HW211372   0.735  10.154   7.526
 3159SOL     OW11373   9.188   5.937   2.549
 3159SOL    HW111374   9.116   5.893   2.594
 3159SOL    HW211375   9.266   5.912   2.598
 3160SOL     OW11376   5.239   1.003  12.016
 3160SOL    HW111377   5.211   1.058  12.090
 3160SOL    HW211378   5.329   0.978  12.039
 3161SOL     OW11379   9.753  12.509   1.011
 3161SOL    HW111380   9.696  12.520   1.087
 3161SOL    HW211381   9.821  12.575   1.023
 3162SOL     OW11382   7.460   7.966   9.098
 3162SOL    HW111383   7.424   7.941   9.183
 3162SOL    HW211384   7.412   8.044   9.072
 3163SOL     OW11385   5.476   3.931  10.403
 3163SOL    HW111386   5.538   3.896  10.339
 3163SOL    HW211387   5.443   4.011  10.363
 3164SOL     OW11388   0.168   4.609   0.394
 3164SOL    HW111389   0.172   4.618   0.299
 3164SOL    HW211390   0.231   4.540   0.415
 3165SOL     OW11391   1.164  10.449   3.484
 3165SOL    HW111392   1.132  10.379   3.541
 3165SOL    HW211393   1.122  10.528   3.518
 3166SOL     OW11394   0.950   4.876   6.526
 3166SOL    HW111395   0.990   4.840   6.447
 3166SOL    HW211396   1.024   4.909   6.577
 3167SOL     OW11397  10.274  10.242  14.194
 3167SOL    HW111398  10.365  10.215  14.207
 3167SOL    HW211399  10.274  10.288  14.110
 3168SOL     OW11400   5.219  10.587  13.252
 3168SOL    HW111401   5.159  10.513  13.240
 3168SOL    HW211402   5.212  10.607  13.345
 3169SOL     OW11403   6.598   9.972   2.436
 3169SOL    HW111404   6.660   9.944   2.503
 3169SOL    HW211405   6.642  10.046   2.392
 3170SOL     OW11406   5.775  10.085   4.034
 3170SOL    HW111407   5.790  10.081   4.128
 3170SOL    HW211408   5.704  10.023   4.019
 3171SOL     OW11409  14.787   2.728   4.877
 3171SOL    HW111410  14.832   2.651   4.912
 3171SOL    HW211411  14.851   2.767   4.817
 3172SOL     OW11412   5.103   9.349   2.450
 3172SOL    HW111413   5.075   9.381   2.536
 3172SOL    HW211414   5.071   9.414   2.388
 3173SOL     OW11415   3.387   2.710   8.006
 3173SOL    HW111416   3.305   2.691   8.051
 3173SOL    HW211417   3.390   2.649   7.933
 3174SOL     OW11418   4.126   9.137   0.584
 3174SOL    HW111419   4.208   9.101   0.551
 3174SOL    HW211420   4.127   9.116   0.678
 3175SOL     OW11421   4.980   8.080   1.298
 3175SOL    HW111422   4.891   8.099   1.268
 3175SOL    HW211423   5.000   8.149   1.361
 3176SOL     OW11424  11.819   6.062  11.118
 3176SOL    HW111425  11.890   6.097  11.172
 3176SOL    HW211426  11.772   6.139  11.086
 3177SOL     OW11427   9.835  14.230  11.629
 3177SOL    HW111428   9.779  14.299  11.664
 3177SOL    HW211429   9.837  14.164  11.698
 3178SOL     OW11430   0.322  11.548   0.429
 3178SOL    HW111431   0.307  11.454   0.440
 3178SOL    HW211432   0.395  11.567   0.488
 3179SOL     OW11433  11.196   1.887   8.695
 3179SOL    HW111434  11.280   1.864   8.655
 3179SOL    HW211435  11.183   1.979   8.673
 3180SOL     OW11436  10.747  11.418   6.689
 3180SOL    HW111437  10.753  11.507   6.654
 3180SOL    HW211438  10.716  11.430   6.779
 3181SOL     OW11439  11.685   3.808  11.418
 3181SOL    HW111440  11.643   3.728  11.387
 3181SOL    HW211441  11.778   3.795  11.398
 3182SOL     OW11442   4.775  12.704   0.358
 3182SOL    HW111443   4.683  12.722   0.377
 3182SOL    HW211444   4.776  12.679   0.266
 3183SOL     OW11445   0.463  10.774   8.444
 3183SOL    HW111446   0.436  10.702   8.387
 3183SOL    HW211447   0.545  10.745   8.483
 3184SOL     OW11448   0.499   7.937   2.648
 3184SOL    HW111449   0.512   7.843   2.635
 3184SOL    HW211450   0.497   7.973   2.559
 3185SOL     OW11451  10.495   8.951  12.741
 3185SOL    HW111452  10.428   8.935  12.675
 3185SOL    HW211453  10.469   9.033  12.782
 3186SOL     OW11454  12.198   7.380   2.549
 3186SOL    HW111455  12.205   7.303   2.493
 3186SOL    HW211456  12.287   7.395   2.581
 3187SOL     OW11457   8.138  12.676   7.185
 3187SOL    HW111458   8.226  12.703   7.214
 3187SOL    HW211459   8.080  12.744   7.219
 3188SOL     OW11460   9.462   6.031  10.898
 3188SOL    HW111461   9.412   5.949  10.907
 3188SOL    HW211462   9.520   6.015  10.824
 3189SOL     OW11463   4.906   6.988   0.892
 3189SOL    HW111464   4.945   6.988   0.804
 3189SOL    HW211465   4.835   6.924   0.886
 3190SOL     OW11466  14.289   8.739  12.966
 3190SOL    HW111467  14.230   8.713  13.037
 3190SOL    HW211468  14.261   8.685  12.892
 3191SOL     OW11469   1.723  12.796   1.056
 3191SOL    HW111470   1.752  12.836   1.138
 3191SOL    HW211471   1.750  12.857   0.988
 3192SOL     OW11472   1.377  12.017  10.769
 3192SOL    HW111473   1.333  12.038  10.687
 3192SOL    HW211474   1.323  11.949  10.808
 3193SOL     OW11475   0.713  12.184   4.899
 3193SOL    HW111476   0.768  12.131   4.957
 3193SOL    HW211477   0.741  12.160   4.811
 3194SOL     OW11478   2.169  14.812   4.801
 3194SOL    HW111479   2.237  14.829   4.736
 3194SOL    HW211480   2.130   0.017   4.818
 3195SOL     OW11481   8.492   8.984  12.448
 3195SOL    HW111482   8.479   8.924  12.375
 3195SOL    HW211483   8.538   8.932  12.514
 3196SOL     OW11484   8.119   4.860   2.323
 3196SOL    HW111485   8.082   4.901   2.402
 3196SOL    HW211486   8.090   4.916   2.251
 3197SOL     OW11487  13.160   3.444   8.291
 3197SOL    HW111488  13.131   3.355   8.308
 3197SOL    HW211489  13.249   3.434   8.257
 3198SOL     OW11490  11.281  14.819   9.655
 3198SOL    HW111491  11.234  14.753   9.605
 3198SOL    HW211492  11.296  14.779   9.740
 3199SOL     OW11493   7.845   6.787  14.170
 3199SOL    HW111494   7.805   6.791  14.083
 3199SOL    HW211495   7.773   6.806  14.230
 3200SOL     OW11496   8.078   4.625  11.029
 3200SOL    HW111497   8.126   4.702  10.997
 3200SOL    HW211498   8.074   4.566  10.954
 3201SOL     OW11499   8.525  13.418   4.910
 3201SOL    HW111500   8.483  13.332   4.912
 3201SOL    HW211501   8.545  13.437   5.002
 3202SOL     OW11502   4.304   9.577  10.248
 3202SOL    HW111503   4.291   9.490  10.211
 3202SOL    HW211504   4.290   9.566  10.342
 3203SOL     OW11505   4.027   7.509   9.896
 3203SOL    HW111506   4.018   7.522   9.801
 3203SOL    HW211507   4.059   7.419   9.905
 3204SOL     OW11508   2.536   2.159   0.442
 3204SOL    HW111509   2.466   2.110   0.485
 3204SOL    HW211510   2.493   2.238   0.409
 3205SOL     OW11511   0.228   8.260  10.516
 3205SOL    HW111512   0.245   8.166  10.503
 3205SOL    HW211513   0.155   8.263  10.578
 3206SOL     OW11514  10.143   5.436   5.488
 3206SOL    HW111515  10.162   5.446   5.581
 3206SOL    HW211516  10.053   5.468   5.478
 3207SOL     OW11517  11.217   2.551  10.711
 3207SOL    HW111518  11.277   2.483  10.682
 3207SOL    HW211519  11.155   2.506  10.768
 3208SOL     OW11520   2.793   0.003   3.419
 3208SOL    HW111521   2.843  14.805   3.396
 3208SOL    HW211522   2.860   0.072   3.426
 3209SOL     OW11523   8.368  14.462   0.409
 3209SOL    HW111524   8.310  14.537   0.423
 3209SOL    HW211525   8.456  14.496   0.426
 3210SOL     OW11526   3.873   3.568   8.696
 3210SOL    HW111527   3.795   3.513   8.700
 3210SOL    HW211528   3.940   3.510   8.659
 3211SOL     OW11529   3.596   6.703  10.047
 3211SOL    HW111530   3.687   6.679  10.060
 3211SOL    HW211531   3.573   6.665   9.962
 3212SOL     OW11532  10.934   7.045   7.657
 3212SOL    HW111533  10.889   7.084   7.732
 3212SOL    HW211534  10.963   6.960   7.688
 3213SOL     OW11535  14.058   0.753   7.140
 3213SOL    HW111536  14.103   0.728   7.221
 3213SOL    HW211537  13.992   0.816   7.168
 3214SOL     OW11538   4.682  13.422  13.243
 3214SOL    HW111539   4.764  13.468  13.228
 3214SOL    HW211540   4.708  13.338  13.280
 3215SOL     OW11541  13.808   8.701   8.607
 3215SOL    HW111542  13.889   8.738   8.641
 3215SOL    HW211543  13.751   8.694   8.683
 3216SOL     OW11544   7.139  10.790   2.875
 3216SOL    HW111545   7.063  10.805   2.818
 3216SOL    HW211546   7.175  10.707   2.844
 3217SOL     OW11547   2.937  10.934  12.736
 3217SOL    HW111548   2.937  10.929  12.832
 3217SOL    HW211549   3.027  10.957  12.713
 3218SOL     OW11550   2.989   9.024  12.415
 3218SOL    HW111551   3.015   8.990  12.501
 3218SOL    HW211552   2.966   8.946  12.365
 3219SOL     OW11553   1.627   8.888  12.754
 3219SOL    HW111554   1.580   8.963  12.719
 3219SOL    HW211555   1.666   8.846  12.677
 3220SOL     OW11556   9.547   9.313   5.413
 3220SOL    HW111557   9.463   9.331   5.455
 3220SOL    HW211558   9.534   9.229   5.368
 3221SOL     OW11559  14.483   6.759  14.255
 3221SOL    HW111560  14.478   6.817  14.331
 3221SOL    HW211561  14.576   6.755  14.234
 3222SOL     OW11562  12.813   7.707   2.207
 3222SOL    HW111563  12.793   7.765   2.280
 3222SOL    HW211564  12.883   7.751   2.159
 3223SOL     OW11565   4.099  13.205  13.757
 3223SOL    HW111566   4.160  13.131  13.760
 3223SOL    HW211567   4.146  13.273  13.709
 3224SOL     OW11568  12.944   5.432   5.825
 3224SOL    HW111569  12.963   5.456   5.734
 3224SOL    HW211570  12.990   5.350   5.838
 3225SOL     OW11571  13.935  11.390   8.039
 3225SOL    HW111572  13.932  11.300   8.071
 3225SOL    HW211573  13.955  11.381   7.946
 3226SOL     OW11574   6.057  13.419  10.779
 3226SOL    HW111575   5.992  13.365  10.732
 3226SOL    HW211576   6.010  13.448  10.858
 3227SOL     OW11577   3.833  12.265   0.217
 3227SOL    HW111578   3.857  12.180   0.253
 3227SOL    HW211579   3.906  12.323   0.240
 3228SOL     OW11580  12.708   8.440  10.219
 3228SOL    HW111581  12.647   8.499  10.174
 3228SOL    HW211582  12.794   8.464  10.184
 3229SOL     OW11583   3.497  12.957   4.225
 3229SOL    HW111584   3.413  12.916   4.206
 3229SOL    HW211585   3.556  12.923   4.157
 3230SOL     OW11586   4.309  13.692   2.736
 3230SOL    HW111587   4.354  13.639   2.670
 3230SOL    HW211588   4.327  13.783   2.710
 3231SOL     OW11589   3.465  10.965   1.221
 3231SOL    HW111590   3.553  11.003   1.223
 3231SOL    HW211591   3.438  10.972   1.129
 3232SOL     OW11592   2.826   8.035  11.965
 3232SOL    HW111593   2.855   7.946  11.943
 3232SOL    HW211594   2.905   8.089  11.959
 3233SOL     OW11595  12.000   0.903  10.218
 3233SOL    HW111596  12.034   0.985  10.183
 3233SOL    HW211597  12.045   0.893  10.303
 3234SOL     OW11598  14.823   8.799   3.347
 3234SOL    HW111599  14.777   8.865   3.399
 3234SOL    HW211600  14.761   8.774   3.279
 3235SOL     OW11601   6.968   0.676   2.231
 3235SOL    HW111602   6.892   0.658   2.176
 3235SOL    HW211603   6.935   0.736   2.299
 3236SOL     OW11604  10.678   5.733   7.914
 3236SOL    HW111605  10.668   5.648   7.871
 3236SOL    HW211606  10.748   5.719   7.978
 3237SOL     OW11607   9.326  10.384   7.122
 3237SOL    HW111608   9.309  10.350   7.034
 3237SOL    HW211609   9.378  10.316   7.165
 3238SOL     OW11610  11.772   6.970  13.150
 3238SOL    HW111611  11.699   7.032  13.149
 3238SOL    HW211612  11.795   6.961  13.242
 3239SOL     OW11613   9.523   7.356  10.883
 3239SOL    HW111614   9.615   7.333  10.899
 3239SOL    HW211615   9.508   7.431  10.940
 3240SOL     OW11616   7.294  12.428  10.317
 3240SOL    HW111617   7.311  12.366  10.388
 3240SOL    HW211618   7.287  12.374  10.239
 3241SOL     OW11619   7.245   3.799   9.021
 3241SOL    HW111620   7.222   3.814   8.930
 3241SOL    HW211621   7.234   3.704   9.033
 3242SOL     OW11622   5.709   8.546   6.858
 3242SOL    HW111623   5.640   8.582   6.803
 3242SOL    HW211624   5.784   8.535   6.799
 3243SOL     OW11625   5.817   7.236  11.438
 3243SOL    HW111626   5.886   7.227  11.504
 3243SOL    HW211627   5.773   7.319  11.461
 3244SOL     OW11628  11.201   2.270   1.853
 3244SOL    HW111629  11.200   2.175   1.868
 3244SOL    HW211630  11.267   2.303   1.913
 3245SOL     OW11631  10.298   5.175  13.609
 3245SOL    HW111632  10.241   5.121  13.554
 3245SOL    HW211633  10.386   5.158  13.576
 3246SOL     OW11634   1.678  10.657   5.074
 3246SOL    HW111635   1.637  10.584   5.027
 3246SOL    HW211636   1.667  10.732   5.017
 3247SOL     OW11637   4.156  11.329   4.706
 3247SOL    HW111638   4.118  11.275   4.637
 3247SOL    HW211639   4.101  11.407   4.709
 3248SOL     OW11640   1.444   1.520   4.218
 3248SOL    HW111641   1.474   1.610   4.226
 3248SOL    HW211642   1.349   1.526   4.222
 3249SOL     OW11643   9.721   9.726  12.249
 3249SOL    HW111644   9.752   9.644  12.288
 3249SOL    HW211645   9.669   9.767  12.317
 3250SOL     OW11646   3.983   2.204   9.808
 3250SOL    HW111647   4.041   2.265   9.764
 3250SOL    HW211648   3.898   2.216   9.766
 3251SOL     OW11649   5.046   9.812   1.630
 3251SOL    HW111650   5.045   9.907   1.642
 3251SOL    HW211651   4.995   9.778   1.703
 3252SOL     OW11652   7.848  10.023   3.131
 3252SOL    HW111653   7.893   9.940   3.121
 3252SOL    HW211654   7.886  10.062   3.210
 3253SOL     OW11655   4.444   7.202   4.603
 3253SOL    HW111656   4.474   7.289   4.576
 3253SOL    HW211657   4.349   7.209   4.605
 3254SOL     OW11658   7.860  14.517  12.812
 3254SOL    HW111659   7.885  14.561  12.894
 3254SOL    HW211660   7.783  14.566  12.782
 3255SOL     OW11661   8.286   1.391   8.371
 3255SOL    HW111662   8.379   1.370   8.362
 3255SOL    HW211663   8.245   1.352   8.293
 3256SOL     OW11664  12.574   5.534   9.244
 3256SOL    HW111665  12.526   5.585   9.179
 3256SOL    HW211666  12.507   5.503   9.304
 3257SOL     OW11667   4.680  13.742   8.598
 3257SOL    HW111668   4.604  13.761   8.544
 3257SOL    HW211669   4.732  13.681   8.545
 3258SOL     OW11670  13.452   3.148   7.177
 3258SOL    HW111671  13.455   3.193   7.261
 3258SOL    HW211672  13.385   3.194   7.127
 3259SOL     OW11673  11.650   4.997   6.741
 3259SOL    HW111674  11.710   5.002   6.816
 3259SOL    HW211675  11.593   5.073   6.751
 3260SOL     OW11676   3.409  13.735   5.838
 3260SOL    HW111677   3.339  13.736   5.902
 3260SOL    HW211678   3.487  13.707   5.886
 3261SOL     OW11679   8.037   2.158   1.992
 3261SOL    HW111680   8.104   2.216   1.956
 3261SOL    HW211681   8.032   2.181   2.085
 3262SOL     OW11682   2.649  11.023   2.193
 3262SOL    HW111683   2.673  11.022   2.100
 3262SOL    HW211684   2.576  10.961   2.199
 3263SOL     OW11685   9.779   1.250   9.068
 3263SOL    HW111686   9.740   1.162   9.065
 3263SOL    HW211687   9.799   1.271   8.977
 3264SOL     OW11688  10.388   7.845   9.079
 3264SOL    HW111689  10.332   7.792   9.136
 3264SOL    HW211690  10.430   7.781   9.022
 3265SOL     OW11691   1.013   4.833   7.208
 3265SOL    HW111692   1.041   4.882   7.285
 3265SOL    HW211693   1.071   4.863   7.138
 3266SOL     OW11694   6.000   9.379  12.915
 3266SOL    HW111695   6.050   9.300  12.940
 3266SOL    HW211696   6.043   9.450  12.963
 3267SOL     OW11697  12.089  13.198   5.003
 3267SOL    HW111698  12.107  13.277   4.952
 3267SOL    HW211699  12.023  13.151   4.951
 3268SOL     OW11700  11.647  13.179  11.720
 3268SOL    HW111701  11.661  13.103  11.776
 3268SOL    HW211702  11.585  13.148  11.653
 3269SOL     OW11703  11.828   3.695   4.617
 3269SOL    HW111704  11.893   3.625   4.609
 3269SOL    HW211705  11.772   3.685   4.540
 3270SOL     OW11706   7.370   5.680  11.590
 3270SOL    HW111707   7.366   5.608  11.527
 3270SOL    HW211708   7.341   5.757  11.541
 3271SOL     OW11709   1.187  13.311   5.969
 3271SOL    HW111710   1.240  13.241   5.932
 3271SOL    HW211711   1.174  13.372   5.897
 3272SOL     OW11712  12.606   3.070   6.473
 3272SOL    HW111713  12.580   3.161   6.491
 3272SOL    HW211714  12.579   3.023   6.552
 3273SOL     OW11715  11.368   5.947  11.406
 3273SOL    HW111716  11.345   5.975  11.317
 3273SOL    HW211717  11.283   5.932  11.448
 3274SOL     OW11718   2.976  14.008  11.079
 3274SOL    HW111719   2.895  13.980  11.122
 3274SOL    HW211720   3.038  13.938  11.098
 3275SOL     OW11721  11.266   8.690  12.691
 3275SOL    HW111722  11.314   8.667  12.771
 3275SOL    HW211723  11.233   8.607  12.658
 3276SOL     OW11724   5.868   2.664   9.752
 3276SOL    HW111725   5.794   2.697   9.702
 3276SOL    HW211726   5.938   2.652   9.688
 3277SOL     OW11727   5.491   9.686   7.432
 3277SOL    HW111728   5.572   9.711   7.388
 3277SOL    HW211729   5.462   9.765   7.477
 3278SOL     OW11730   3.522   3.980   1.857
 3278SOL    HW111731   3.489   3.941   1.938
 3278SOL    HW211732   3.611   3.947   1.848
 3279SOL     OW11733   5.409   3.983  11.703
 3279SOL    HW111734   5.404   4.034  11.622
 3279SOL    HW211735   5.408   4.048  11.773
 3280SOL     OW11736  13.489   3.615   1.777
 3280SOL    HW111737  13.528   3.703   1.785
 3280SOL    HW211738  13.399   3.627   1.806
 3281SOL     OW11739  12.178   5.498  10.389
 3281SOL    HW111740  12.084   5.506  10.406
 3281SOL    HW211741  12.204   5.585  10.358
 3282SOL     OW11742   5.463   6.851   4.501
 3282SOL    HW111743   5.465   6.886   4.412
 3282SOL    HW211744   5.536   6.789   4.504
 3283SOL     OW11745   9.241  12.289   7.707
 3283SOL    HW111746   9.216  12.371   7.665
 3283SOL    HW211747   9.251  12.227   7.634
 3284SOL     OW11748  12.560  14.129   4.914
 3284SOL    HW111749  12.542  14.219   4.940
 3284SOL    HW211750  12.536  14.076   4.990
 3285SOL     OW11751   4.214   4.672  12.237
 3285SOL    HW111752   4.199   4.690  12.144
 3285SOL    HW211753   4.310   4.673  12.246
 3286SOL     OW11754   2.580  11.928   1.591
 3286SOL    HW111755   2.628  11.895   1.515
 3286SOL    HW211756   2.488  11.915   1.569
 3287SOL     OW11757  13.059   7.431   2.736
 3287SOL    HW111758  13.124   7.362   2.749
 3287SOL    HW211759  13.096   7.508   2.781
 3288SOL     OW11760   1.344   2.587   2.610
 3288SOL    HW111761   1.279   2.543   2.665
 3288SOL    HW211762   1.389   2.515   2.564
 3289SOL     OW11763  11.888  12.826   1.117
 3289SOL    HW111764  11.917  12.898   1.062
 3289SOL    HW211765  11.832  12.773   1.061
 3290SOL     OW11766  10.870  14.360   2.840
 3290SOL    HW111767  10.898  14.331   2.927
 3290SOL    HW211768  10.808  14.293   2.811
 3291SOL     OW11769   9.456   7.831   3.554
 3291SOL    HW111770   9.474   7.758   3.495
 3291SOL    HW211771   9.542   7.860   3.584
 3292SOL     OW11772   4.027   5.926   2.544
 3292SOL    HW111773   4.067   5.920   2.631
 3292SOL    HW211774   4.068   6.003   2.504
 3293SOL     OW11775   2.073   0.322  13.151
 3293SOL    HW111776   2.053   0.273  13.071
 3293SOL    HW211777   2.050   0.412  13.131
 3294SOL     OW11778   5.209   8.155   9.767
 3294SOL    HW111779   5.205   8.217   9.839
 3294SOL    HW211780   5.281   8.096   9.788
 3295SOL     OW11781  11.089  13.979  10.217
 3295SOL    HW111782  11.030  13.991  10.291
 3295SOL    HW211783  11.176  13.974  10.256
 3296SOL     OW11784   0.081   5.561   3.981
 3296SOL    HW111785   0.143   5.524   3.918
 3296SOL    HW211786   0.068   5.492   4.046
 3297SOL     OW11787   1.799   0.342  12.564
 3297SOL    HW111788   1.863   0.414  12.565
 3297SOL    HW211789   1.845   0.270  12.520
 3298SOL     OW11790  10.926  13.903   4.073
 3298SOL    HW111791  10.880  13.873   4.152
 3298SOL    HW211792  10.866  13.967   4.034
 3299SOL     OW11793  13.307   8.077   4.788
 3299SOL    HW111794  13.217   8.043   4.798
 3299SOL    HW211795  13.337   8.091   4.878
 3300SOL     OW11796  10.108  13.993   8.169
 3300SOL    HW111797  10.110  13.962   8.078
 3300SOL    HW211798  10.060  13.925   8.216
 3301SOL     OW11799   2.080  10.701  14.374
 3301SOL    HW111800   2.045  10.766  14.434
 3301SOL    HW211801   2.010  10.688  14.310
 3302SOL     OW11802  11.883   2.910   6.647
 3302SOL    HW111803  11.916   2.976   6.708
 3302SOL    HW211804  11.805   2.950   6.609
 3303SOL     OW11805   3.484   6.498   6.579
 3303SOL    HW111806   3.404   6.449   6.596
 3303SOL    HW211807   3.554   6.435   6.591
 3304SOL     OW11808  12.192  13.650   4.054
 3304SOL    HW111809  12.269  13.700   4.028
 3304SOL    HW211810  12.226  13.566   4.084
 3305SOL     OW11811  12.144   8.086   0.885
 3305SOL    HW111812  12.162   8.176   0.856
 3305SOL    HW211813  12.092   8.097   0.964
 3306SOL     OW11814   1.234  14.105   5.094
 3306SOL    HW111815   1.233  14.054   5.175
 3306SOL    HW211816   1.325  14.134   5.085
 3307SOL     OW11817   9.666  12.824   3.851
 3307SOL    HW111818   9.693  12.740   3.890
 3307SOL    HW211819   9.732  12.886   3.883
 3308SOL     OW11820   5.924   8.458   7.125
 3308SOL    HW111821   5.860   8.406   7.075
 3308SOL    HW211822   6.008   8.439   7.084
 3309SOL     OW11823   8.932  12.653   8.654
 3309SOL    HW111824   9.005  12.714   8.655
 3309SOL    HW211825   8.923  12.628   8.562
 3310SOL     OW11826   6.214   1.024   5.463
 3310SOL    HW111827   6.293   1.077   5.460
 3310SOL    HW211828   6.211   0.989   5.552
 3311SOL     OW11829   8.375   0.496  14.109
 3311SOL    HW111830   8.365   0.581  14.066
 3311SOL    HW211831   8.459   0.503  14.156
 3312SOL     OW11832  10.393   7.246   4.667
 3312SOL    HW111833  10.341   7.326   4.661
 3312SOL    HW211834  10.369   7.207   4.751
 3313SOL     OW11835   8.118   0.576   8.343
 3313SOL    HW111836   8.088   0.485   8.350
 3313SOL    HW211837   8.188   0.573   8.279
 3314SOL     OW11838   6.144  11.833   4.223
 3314SOL    HW111839   6.197  11.786   4.159
 3314SOL    HW211840   6.054  11.813   4.199
 3315SOL     OW11841  11.600  11.896   7.592
 3315SOL    HW111842  11.535  11.907   7.523
 3315SOL    HW211843  11.655  11.824   7.561
 3316SOL     OW11844  12.523   7.625   0.908
 3316SOL    HW111845  12.574   7.706   0.904
 3316SOL    HW211846  12.475   7.631   0.991
 3317SOL     OW11847   3.240   5.358  14.025
 3317SOL    HW111848   3.264   5.433  13.971
 3317SOL    HW211849   3.151   5.376  14.055
 3318SOL     OW11850   2.141   4.936  10.952
 3318SOL    HW111851   2.145   5.026  10.983
 3318SOL    HW211852   2.065   4.898  10.997
 3319SOL     OW11853  13.100   7.236   5.075
 3319SOL    HW111854  13.013   7.242   5.116
 3319SOL    HW211855  13.148   7.173   5.129
 3320SOL     OW11856   1.644   9.642   5.440
 3320SOL    HW111857   1.587   9.719   5.446
 3320SOL    HW211858   1.686   9.637   5.525
 3321SOL     OW11859   7.662   3.981  13.873
 3321SOL    HW111860   7.724   4.027  13.930
 3321SOL    HW211861   7.717   3.929  13.814
 3322SOL     OW11862   0.324  14.548  10.076
 3322SOL    HW111863   0.392  14.596  10.124
 3322SOL    HW211864   0.337  14.573   9.985
 3323SOL     OW11865   8.333   2.611   5.887
 3323SOL    HW111866   8.388   2.679   5.847
 3323SOL    HW211867   8.260   2.601   5.826
 3324SOL     OW11868  10.255   8.581   0.065
 3324SOL    HW111869  10.171   8.565   0.109
 3324SOL    HW211870  10.308   8.504   0.085
 3325SOL     OW11871   5.175   0.488   0.437
 3325SOL    HW111872   5.118   0.561   0.462
 3325SOL    HW211873   5.217   0.460   0.518
 3326SOL     OW11874   2.794   3.384   3.952
 3326SOL    HW111875   2.828   3.311   3.899
 3326SOL    HW211876   2.744   3.437   3.890
 3327SOL     OW11877   3.860   0.741   6.034
 3327SOL    HW111878   3.770   0.775   6.028
 3327SOL    HW211879   3.893   0.775   6.117
 3328SOL     OW11880   5.889  11.514   6.707
 3328SOL    HW111881   5.865  11.454   6.637
 3328SOL    HW211882   5.818  11.579   6.709
 3329SOL     OW11883   6.095   9.958   2.867
 3329SOL    HW111884   6.073   9.949   2.774
 3329SOL    HW211885   6.016   9.930   2.913
 3330SOL     OW11886  10.641   7.329   5.086
 3330SOL    HW111887  10.719   7.273   5.091
 3330SOL    HW211888  10.600   7.321   5.173
 3331SOL     OW11889   9.031   1.710   3.001
 3331SOL    HW111890   9.005   1.800   2.985
 3331SOL    HW211891   9.030   1.701   3.096
 3332SOL     OW11892  13.172   5.541  11.485
 3332SOL    HW111893  13.189   5.454  11.449
 3332SOL    HW211894  13.122   5.586  11.417
 3333SOL     OW11895   3.665  14.699  11.149
 3333SOL    HW111896   3.702  14.787  11.144
 3333SOL    HW211897   3.712  14.657  11.221
 3334SOL     OW11898   0.890   8.076  10.730
 3334SOL    HW111899   0.950   8.101  10.659
 3334SOL    HW211900   0.805   8.066  10.687
 3335SOL     OW11901  13.264   6.375   6.449
 3335SOL    HW111902  13.173   6.401   6.459
 3335SOL    HW211903  13.314   6.454   6.467
 3336SOL     OW11904   4.817   4.789   2.950
 3336SOL    HW111905   4.846   4.879   2.933
 3336SOL    HW211906   4.790   4.790   3.042
 3337SOL     OW11907   2.193  13.205  13.996
 3337SOL    HW111908   2.279  13.229  13.961
 3337SOL    HW211909   2.131  13.256  13.945
 3338SOL     OW11910   4.307   7.290   4.329
 3338SOL    HW111911   4.231   7.301   4.386
 3338SOL    HW211912   4.383   7.308   4.385
 3339SOL     OW11913   7.637  10.579   6.712
 3339SOL    HW111914   7.597  10.612   6.631
 3339SOL    HW211915   7.718  10.536   6.683
 3340SOL     OW11916  14.531   3.063   2.706
 3340SOL    HW111917  14.481   3.140   2.729
 3340SOL    HW211918  14.525   3.006   2.783
 3341SOL     OW11919   0.658   2.628  10.925
 3341SOL    HW111920   0.623   2.676  10.851
 3341SOL    HW211921   0.594   2.559  10.941
 3342SOL     OW11922   1.673   3.716   2.100
 3342SOL    HW111923   1.581   3.707   2.075
 3342SOL    HW211924   1.702   3.626   2.116
 3343SOL     OW11925   2.636  12.527  14.714
 3343SOL    HW111926   2.548  12.509  14.681
 3343SOL    HW211927   2.623  12.543  14.808
 3344SOL     OW11928   2.959   3.322   7.917
 3344SOL    HW111929   3.011   3.281   7.987
 3344SOL    HW211930   2.957   3.415   7.940
 3345SOL     OW11931   8.646   9.484   1.761
 3345SOL    HW111932   8.717   9.423   1.780
 3345SOL    HW211933   8.578   9.431   1.719
 3346SOL     OW11934   9.808   4.585  10.916
 3346SOL    HW111935   9.772   4.527  10.849
 3346SOL    HW211936   9.858   4.527  10.974
 3347SOL     OW11937  10.819   8.137   3.455
 3347SOL    HW111938  10.802   8.126   3.549
 3347SOL    HW211939  10.907   8.173   3.451
 3348SOL     OW11940   8.081  13.129  10.201
 3348SOL    HW111941   7.994  13.122  10.163
 3348SOL    HW211942   8.107  13.220  10.186
 3349SOL     OW11943   9.691   1.347  13.865
 3349SOL    HW111944   9.641   1.316  13.941
 3349SOL    HW211945   9.670   1.285  13.795
 3350SOL     OW11946   4.835   9.487   6.464
 3350SOL    HW111947   4.771   9.476   6.394
 3350SOL    HW211948   4.784   9.510   6.541
 3351SOL     OW11949   8.991   6.795  14.030
 3351SOL    HW111950   8.941   6.819  13.951
 3351SOL    HW211951   9.018   6.704  14.015
 3352SOL     OW11952  12.059   4.078   6.216
 3352SOL    HW111953  12.125   4.067   6.147
 3352SOL    HW211954  12.109   4.100   6.294
 3353SOL     OW11955  12.389   5.286  13.669
 3353SOL    HW111956  12.330   5.357  13.694
 3353SOL    HW211957  12.420   5.311  13.581
 3354SOL     OW11958   0.604   6.867   9.982
 3354SOL    HW111959   0.632   6.903  10.066
 3354SOL    HW211960   0.590   6.774   9.999
 3355SOL     OW11961  14.871   2.189   1.410
 3355SOL    HW111962  14.858   2.208   1.317
 3355SOL    HW211963  14.853   2.271   1.454
 3356SOL     OW11964  13.201   5.785  11.882
 3356SOL    HW111965  13.221   5.694  11.860
 3356SOL    HW211966  13.106   5.787  11.892
 3357SOL     OW11967   0.529   2.699   3.407
 3357SOL    HW111968   0.495   2.784   3.435
 3357SOL    HW211969   0.616   2.694   3.447
 3358SOL     OW11970   6.604   8.602   4.819
 3358SOL    HW111971   6.693   8.578   4.793
 3358SOL    HW211972   6.608   8.696   4.836
 3359SOL     OW11973   9.438   5.093   4.555
 3359SOL    HW111974   9.454   5.054   4.469
 3359SOL    HW211975   9.520   5.080   4.602
 3360SOL     OW11976  13.753  13.205   1.907
 3360SOL    HW111977  13.688  13.217   1.838
 3360SOL    HW211978  13.702  13.198   1.988
 3361SOL     OW11979   8.493   2.432   1.887
 3361SOL    HW111980   8.469   2.372   1.816
 3361SOL    HW211981   8.412   2.444   1.936
 3362SOL     OW11982  12.131   7.895   9.856
 3362SOL    HW111983  12.040   7.925   9.857
 3362SOL    HW211984  12.183   7.975   9.852
 3363SOL     OW11985  12.596  14.245  12.140
 3363SOL    HW111986  12.507  14.210  12.144
 3363SOL    HW211987  12.598  14.295  12.059
 3364SOL     OW11988   4.539   8.236   0.755
 3364SOL    HW111989   4.572   8.153   0.789
 3364SOL    HW211990   4.581   8.245   0.669
 3365SOL     OW11991  11.455  13.553   8.730
 3365SOL    HW111992  11.421  13.474   8.773
 3365SOL    HW211993  11.473  13.612   8.803
 3366SOL     OW11994   6.484  11.805   7.383
 3366SOL    HW111995   6.408  11.776   7.333
 3366SOL    HW211996   6.498  11.736   7.447
 3367SOL     OW11997  10.423  14.497   1.637
 3367SOL    HW111998  10.453  14.473   1.725
 3367SOL    HW211999  10.341  14.449   1.625
 3368SOL     OW12000  11.568   1.768   7.950
 3368SOL    HW112001  11.656   1.757   7.987
 3368SOL    HW212002  11.579   1.833   7.880
 3369SOL     OW12003   5.786   5.249   2.732
 3369SOL    HW112004   5.770   5.335   2.772
 3369SOL    HW212005   5.849   5.207   2.790
 3370SOL     OW12006   9.420   4.251   2.055
 3370SOL    HW112007   9.406   4.195   2.131
 3370SOL    HW212008   9.473   4.198   1.995
 3371SOL     OW12009   8.822  10.389  12.307
 3371SOL    HW112010   8.892  10.340  12.350
 3371SOL    HW212011   8.789  10.447  12.376
 3372SOL     OW12012   5.327   9.213   5.796
 3372SOL    HW112013   5.283   9.280   5.847
 3372SOL    HW212014   5.257   9.173   5.744
 3373SOL     OW12015   4.761   8.788   1.880
 3373SOL    HW112016   4.853   8.796   1.857
 3373SOL    HW212017   4.716   8.842   1.815
 3374SOL     OW12018  11.617   7.243   3.236
 3374SOL    HW112019  11.619   7.206   3.324
 3374SOL    HW212020  11.709   7.265   3.218
 3375SOL     OW12021   1.134   3.775  11.373
 3375SOL    HW112022   1.181   3.708  11.324
 3375SOL    HW212023   1.201   3.838  11.399
 3376SOL     OW12024   0.190  13.828  10.183
 3376SOL    HW112025   0.285  13.816  10.174
 3376SOL    HW212026   0.162  13.754  10.238
 3377SOL     OW12027  12.504  12.711   8.283
 3377SOL    HW112028  12.502  12.684   8.191
 3377SOL    HW212029  12.412  12.730   8.304
 3378SOL     OW12030   9.616  10.274  10.873
 3378SOL    HW112031   9.619  10.323  10.791
 3378SOL    HW212032   9.662  10.330  10.936
 3379SOL     OW12033   5.880   0.496   4.419
 3379SOL    HW112034   5.826   0.436   4.471
 3379SOL    HW212035   5.963   0.501   4.468
 3380SOL     OW12036   1.603   0.214   0.396
 3380SOL    HW112037   1.675   0.276   0.407
 3380SOL    HW212038   1.603   0.193   0.303
 3381SOL     OW12039   3.113  13.780   0.153
 3381SOL    HW112040   3.115  13.704   0.095
 3381SOL    HW212041   3.079  13.851   0.099
 3382SOL     OW12042   2.829  14.170   6.122
 3382SOL    HW112043   2.811  14.263   6.108
 3382SOL    HW212044   2.774  14.146   6.198
 3383SOL     OW12045  14.031   0.798  10.626
 3383SOL    HW112046  13.979   0.767  10.700
 3383SOL    HW212047  14.007   0.891  10.617
 3384SOL     OW12048   9.339  11.088   7.564
 3384SOL    HW112049   9.311  11.175   7.594
 3384SOL    HW212050   9.291  11.075   7.482
 3385SOL     OW12051   6.513   4.476  10.009
 3385SOL    HW112052   6.434   4.523  10.037
 3385SOL    HW212053   6.580   4.504  10.072
 3386SOL     OW12054   6.660   5.156   8.706
 3386SOL    HW112055   6.655   5.158   8.801
 3386SOL    HW212056   6.654   5.248   8.680
 3387SOL     OW12057  13.618   0.048   0.022
 3387SOL    HW112058  13.670   0.127   0.006
 3387SOL    HW212059  13.528   0.080   0.031
 3388SOL     OW12060   5.257   4.404   9.139
 3388SOL    HW112061   5.232   4.477   9.082
 3388SOL    HW212062   5.248   4.439   9.227
 3389SOL     OW12063   4.778   4.870  12.955
 3389SOL    HW112064   4.833   4.827  13.020
 3389SOL    HW212065   4.840   4.918  12.900
 3390SOL     OW12066  11.232   0.888   1.987
 3390SOL    HW112067  11.208   0.927   1.903
 3390SOL    HW212068  11.162   0.914   2.047
 3391SOL     OW12069   1.377  13.349   4.636
 3391SOL    HW112070   1.441  13.340   4.565
 3391SOL    HW212071   1.319  13.274   4.625
 3392SOL     OW12072  10.379  12.408  13.043
 3392SOL    HW112073  10.290  12.393  13.010
 3392SOL    HW212074  10.404  12.493  13.006
 3393SOL     OW12075   1.897   0.495   2.796
 3393SOL    HW112076   1.851   0.419   2.831
 3393SOL    HW212077   1.989   0.468   2.792
 3394SOL     OW12078  13.264   3.917   1.971
 3394SOL    HW112079  13.197   3.855   1.941
 3394SOL    HW212080  13.231   4.002   1.943
 3395SOL     OW12081   8.062   6.750  10.127
 3395SOL    HW112082   8.060   6.783  10.038
 3395SOL    HW212083   8.122   6.808  10.173
 3396SOL     OW12084   1.095  14.612   0.321
 3396SOL    HW112085   1.160  14.553   0.357
 3396SOL    HW212086   1.146  14.680   0.277
 3397SOL     OW12087   2.444  10.543  12.288
 3397SOL    HW112088   2.486  10.558  12.204
 3397SOL    HW212089   2.362  10.497  12.266
 3398SOL     OW12090   3.526   4.560   0.284
 3398SOL    HW112091   3.589   4.531   0.351
 3398SOL    HW212092   3.514   4.653   0.301
 3399SOL     OW12093   6.352   3.199   3.203
 3399SOL    HW112094   6.370   3.288   3.233
 3399SOL    HW212095   6.295   3.210   3.127
 3400SOL     OW12096   8.558  10.575  13.105
 3400SOL    HW112097   8.463  10.581  13.116
 3400SOL    HW212098   8.573  10.487  13.070
 3401SOL     OW12099  11.318   3.378   6.219
 3401SOL    HW112100  11.230   3.405   6.243
 3401SOL    HW212101  11.375   3.424   6.281
 3402SOL     OW12102   8.335   1.233  10.899
 3402SOL    HW112103   8.332   1.291  10.823
 3402SOL    HW212104   8.425   1.238  10.930
 3403SOL     OW12105  12.433  10.879  14.494
 3403SOL    HW112106  12.500  10.841  14.437
 3403SOL    HW212107  12.364  10.813  14.497
 3404SOL     OW12108   5.300  13.743  12.653
 3404SOL    HW112109   5.356  13.754  12.730
 3404SOL    HW212110   5.265  13.654  12.661
 3405SOL     OW12111  11.818  11.077  11.992
 3405SOL    HW112112  11.830  11.009  11.926
 3405SOL    HW212113  11.725  11.099  11.987
 3406SOL     OW12114  14.516  12.805  13.092
 3406SOL    HW112115  14.591  12.837  13.142
 3406SOL    HW212116  14.488  12.881  13.041
 3407SOL     OW12117   8.019   2.207   3.487
 3407SOL    HW112118   8.016   2.133   3.548
 3407SOL    HW212119   7.939   2.257   3.507
 3408SOL     OW12120  13.071  10.646   2.813
 3408SOL    HW112121  13.108  10.670   2.898
 3408SOL    HW212122  13.146  10.615   2.763
 3409SOL     OW12123   4.142   7.893  11.994
 3409SOL    HW112124   4.138   7.798  12.004
 3409SOL    HW212125   4.100   7.927  12.074
 3410SOL     OW12126   7.346  11.092  13.250
 3410SOL    HW112127   7.370  11.183  13.232
 3410SOL    HW212128   7.284  11.099  13.323
 3411SOL     OW12129   3.107   8.458  14.080
 3411SOL    HW112130   3.157   8.488  14.156
 3411SOL    HW212131   3.166   8.399  14.034
 3412SOL     OW12132   3.918  11.711   1.259
 3412SOL    HW112133   3.913  11.700   1.354
 3412SOL    HW212134   3.947  11.802   1.247
 3413SOL     OW12135   9.800  11.319   8.948
 3413SOL    HW112136   9.893  11.303   8.934
 3413SOL    HW212137   9.797  11.397   9.003
 3414SOL     OW12138   1.128   2.146  13.244
 3414SOL    HW112139   1.072   2.073  13.218
 3414SOL    HW212140   1.133   2.201  13.166
 3415SOL     OW12141  10.316  12.016  13.616
 3415SOL    HW112142  10.283  11.931  13.647
 3415SOL    HW212143  10.378  12.043  13.684
 3416SOL     OW12144  11.150   8.665   7.249
 3416SOL    HW112145  11.119   8.574   7.253
 3416SOL    HW212146  11.183   8.675   7.160
 3417SOL     OW12147   9.072   3.382  14.224
 3417SOL    HW112148   9.087   3.473  14.198
 3417SOL    HW212149   9.092   3.380  14.318
 3418SOL     OW12150   7.171   2.883  10.774
 3418SOL    HW112151   7.171   2.944  10.701
 3418SOL    HW212152   7.249   2.905  10.824
 3419SOL     OW12153   0.704   9.400   2.686
 3419SOL    HW112154   0.792   9.435   2.699
 3419SOL    HW212155   0.713   9.306   2.705
 3420SOL     OW12156   8.626  14.640   9.024
 3420SOL    HW112157   8.676  14.694   9.085
 3420SOL    HW212158   8.625  14.553   9.064
 3421SOL     OW12159  12.003   9.073   5.319
 3421SOL    HW112160  12.038   8.989   5.348
 3421SOL    HW212161  11.966   9.112   5.398
 3422SOL     OW12162   9.688   5.875  12.515
 3422SOL    HW112163   9.749   5.917  12.454
 3422SOL    HW212164   9.665   5.945  12.577
 3423SOL     OW12165  12.561   7.271   4.233
 3423SOL    HW112166  12.592   7.207   4.297
 3423SOL    HW212167  12.485   7.312   4.276
 3424SOL     OW12168   6.111   5.760   0.751
 3424SOL    HW112169   6.201   5.773   0.722
 3424SOL    HW212170   6.057   5.788   0.677
 3425SOL     OW12171   8.803   8.967   8.238
 3425SOL    HW112172   8.892   8.933   8.228
 3425SOL    HW212173   8.749   8.908   8.185
 3426SOL     OW12174  12.555   1.616   9.112
 3426SOL    HW112175  12.501   1.537   9.110
 3426SOL    HW212176  12.637   1.589   9.153
 3427SOL     OW12177  10.189   4.868  13.851
 3427SOL    HW112178  10.103   4.901  13.877
 3427SOL    HW212179  10.169   4.789  13.800
 3428SOL     OW12180   7.177   0.358   1.043
 3428SOL    HW112181   7.175   0.291   1.112
 3428SOL    HW212182   7.230   0.320   0.973
 3429SOL     OW12183   4.778   9.317  13.815
 3429SOL    HW112184   4.710   9.355  13.759
 3429SOL    HW212185   4.794   9.231  13.778
 3430SOL     OW12186   4.107   6.346   2.065
 3430SOL    HW112187   4.102   6.419   2.127
 3430SOL    HW212188   4.069   6.272   2.112
 3431SOL     OW12189  10.154   3.786   4.860
 3431SOL    HW112190  10.198   3.795   4.775
 3431SOL    HW212191  10.172   3.696   4.887
 3432SOL     OW12192   3.313   4.089   1.236
 3432SOL    HW112193   3.253   4.153   1.199
 3432SOL    HW212194   3.393   4.138   1.253
 3433SOL     OW12195   5.021  10.228  14.695
 3433SOL    HW112196   5.087  10.159  14.692
 3433SOL    HW212197   5.023  10.259  14.786
 3434SOL     OW12198   1.162   9.285   8.381
 3434SOL    HW112199   1.110   9.316   8.306
 3434SOL    HW212200   1.158   9.357   8.444
 3435SOL     OW12201   3.067  11.696   8.014
 3435SOL    HW112202   3.142  11.705   7.954
 3435SOL    HW212203   3.094  11.628   8.075
 3436SOL     OW12204  13.373   2.910   5.093
 3436SOL    HW112205  13.452   2.954   5.125
 3436SOL    HW212206  13.351   2.848   5.162
 3437SOL     OW12207   8.796   2.167   7.168
 3437SOL    HW112208   8.729   2.219   7.212
 3437SOL    HW212209   8.876   2.184   7.217
 3438SOL     OW12210   2.835   8.688   7.596
 3438SOL    HW112211   2.877   8.747   7.533
 3438SOL    HW212212   2.865   8.718   7.681
 3439SOL     OW12213   2.264   1.848   6.054
 3439SOL    HW112214   2.278   1.762   6.015
 3439SOL    HW212215   2.345   1.867   6.102
 3440SOL     OW12216   9.973   9.134  12.890
 3440SOL    HW112217   9.938   9.118  12.803
 3440SOL    HW212218   9.900   9.174  12.938
 3441SOL     OW12219  13.185  10.871   7.463
 3441SOL    HW112220  13.093  10.847   7.458
 3441SOL    HW212221  13.185  10.967   7.463
 3442SOL     OW12222   1.151   5.459   5.169
 3442SOL    HW112223   1.218   5.395   5.145
 3442SOL    HW212224   1.097   5.469   5.091
 3443SOL     OW12225  10.021   5.849   4.595
 3443SOL    HW112226   9.956   5.788   4.628
 3443SOL    HW212227   9.977   5.934   4.597
 3444SOL     OW12228  11.884  10.854   3.506
 3444SOL    HW112229  11.920  10.769   3.531
 3444SOL    HW212230  11.884  10.905   3.587
 3445SOL     OW12231  14.528   8.695   8.783
 3445SOL    HW112232  14.465   8.761   8.754
 3445SOL    HW212233  14.530   8.631   8.713
 3446SOL     OW12234   1.340  14.132   3.608
 3446SOL    HW112235   1.295  14.204   3.564
 3446SOL    HW212236   1.324  14.056   3.551
 3447SOL     OW12237   2.889   0.561  12.006
 3447SOL    HW112238   2.975   0.542  12.045
 3447SOL    HW212239   2.896   0.530  11.916
 3448SOL     OW12240  14.167   0.226   7.363
 3448SOL    HW112241  14.092   0.263   7.317
 3448SOL    HW212242  14.243   0.250   7.309
 3449SOL     OW12243   0.851   4.312   8.663
 3449SOL    HW112244   0.761   4.341   8.649
 3449SOL    HW212245   0.874   4.266   8.582
 3450SOL     OW12246   2.756  12.052  14.482
 3450SOL    HW112247   2.788  12.025  14.396
 3450SOL    HW212248   2.765  12.148  14.482
 3451SOL     OW12249   6.734  10.998  14.417
 3451SOL    HW112250   6.802  11.048  14.370
 3451SOL    HW212251   6.754  10.907  14.398
 3452SOL     OW12252   1.411   1.893  10.120
 3452SOL    HW112253   1.459   1.974  10.136
 3452SOL    HW212254   1.400   1.891  10.025
 3453SOL     OW12255  11.860   6.231   9.726
 3453SOL    HW112256  11.948   6.249   9.694
 3453SOL    HW212257  11.837   6.146   9.689
 3454SOL     OW12258  10.721   1.830  14.311
 3454SOL    HW112259  10.668   1.884  14.369
 3454SOL    HW212260  10.779   1.892  14.267
 3455SOL     OW12261   1.543   6.659   6.746
 3455SOL    HW112262   1.552   6.602   6.670
 3455SOL    HW212263   1.487   6.731   6.717
 3456SOL     OW12264   2.480   6.658   8.609
 3456SOL    HW112265   2.406   6.697   8.655
 3456SOL    HW212266   2.545   6.729   8.604
 3457SOL     OW12267  12.746   0.017   0.551
 3457SOL    HW112268  12.691   0.060   0.616
 3457SOL    HW212269  12.729  14.804   0.563
 3458SOL     OW12270   2.303   1.281   3.980
 3458SOL    HW112271   2.218   1.237   3.967
 3458SOL    HW212272   2.322   1.269   4.073
 3459SOL     OW12273   0.354   0.335   3.864
 3459SOL    HW112274   0.280   0.304   3.813
 3459SOL    HW212275   0.429   0.326   3.805
 3460SOL     OW12276  11.007   3.791   2.907
 3460SOL    HW112277  11.080   3.843   2.941
 3460SOL    HW212278  11.044   3.704   2.893
 3461SOL     OW12279  14.804  10.974   4.042
 3461SOL    HW112280  14.774  11.044   4.100
 3461SOL    HW212281  14.878  10.935   4.089
 3462SOL     OW12282   7.063   4.382   4.173
 3462SOL    HW112283   7.012   4.423   4.103
 3462SOL    HW212284   7.135   4.339   4.129
 3463SOL     OW12285   5.537   3.359   7.563
 3463SOL    HW112286   5.610   3.307   7.531
 3463SOL    HW212287   5.504   3.312   7.640
 3464SOL     OW12288  12.967   0.227   1.382
 3464SOL    HW112289  13.013   0.147   1.409
 3464SOL    HW212290  12.943   0.270   1.465
 3465SOL     OW12291   8.029   5.271   0.022
 3465SOL    HW112292   8.010   5.327  14.826
 3465SOL    HW212293   8.121   5.291   0.043
 3466SOL     OW12294   8.358   2.962   4.075
 3466SOL    HW112295   8.447   2.960   4.109
 3466SOL    HW212296   8.367   2.995   3.985
 3467SOL     OW12297   9.675   9.604  13.357
 3467SOL    HW112298   9.634   9.687  13.332
 3467SOL    HW212299   9.706   9.619  13.447
 3468SOL     OW12300  10.005   3.172  12.839
 3468SOL    HW112301   9.912   3.155  12.824
 3468SOL    HW212302  10.022   3.140  12.927
 3469SOL     OW12303  14.690   3.257   0.190
 3469SOL    HW112304  14.617   3.299   0.235
 3469SOL    HW212305  14.744   3.220   0.260
 3470SOL     OW12306  13.915   3.806   3.024
 3470SOL    HW112307  13.924   3.713   3.044
 3470SOL    HW212308  13.855   3.809   2.949
 3471SOL     OW12309   9.076  14.344  13.991
 3471SOL    HW112310   9.030  14.426  14.011
 3471SOL    HW212311   9.006  14.281  13.975
 3472SOL     OW12312   1.381   0.465   9.640
 3472SOL    HW112313   1.447   0.416   9.688
 3472SOL    HW212314   1.388   0.554   9.673
 3473SOL     OW12315   1.101   2.027   8.841
 3473SOL    HW112316   1.142   2.045   8.756
 3473SOL    HW212317   1.165   1.973   8.887
 3474SOL     OW12318   7.514  13.180  13.762
 3474SOL    HW112319   7.569  13.138  13.696
 3474SOL    HW212320   7.564  13.256  13.790
 3475SOL     OW12321  12.748  10.291   7.012
 3475SOL    HW112322  12.702  10.353   6.956
 3475SOL    HW212323  12.841  10.309   6.997
 3476SOL     OW12324   9.873  13.959   1.182
 3476SOL    HW112325   9.859  13.924   1.094
 3476SOL    HW212326   9.814  14.034   1.188
 3477SOL     OW12327   7.337   8.092  14.353
 3477SOL    HW112328   7.299   8.007  14.332
 3477SOL    HW212329   7.325   8.145  14.274
 3478SOL     OW12330   4.805   5.667  12.696
 3478SOL    HW112331   4.896   5.692  12.684
 3478SOL    HW212332   4.755   5.738  12.655
 3479SOL     OW12333  10.046   0.636   6.769
 3479SOL    HW112334  10.086   0.565   6.820
 3479SOL    HW212335  10.024   0.595   6.685
 3480SOL     OW12336   0.533   0.173  14.468
 3480SOL    HW112337   0.621   0.134  14.474
 3480SOL    HW212338   0.525   0.200  14.377
 3481SOL     OW12339  14.283  12.666  12.763
 3481SOL    HW112340  14.242  12.697  12.845
 3481SOL    HW212341  14.374  12.651  12.786
 3482SOL     OW12342   1.420   7.194   4.407
 3482SOL    HW112343   1.501   7.246   4.410
 3482SOL    HW212344   1.350   7.258   4.419
 3483SOL     OW12345   4.241   3.830   8.463
 3483SOL    HW112346   4.182   3.850   8.536
 3483SOL    HW212347   4.188   3.776   8.404
 3484SOL     OW12348   2.531   7.439  11.270
 3484SOL    HW112349   2.596   7.491  11.222
 3484SOL    HW212350   2.567   7.432  11.358
 3485SOL     OW12351  14.596   1.804  11.869
 3485SOL    HW112352  14.657   1.833  11.801
 3485SOL    HW212353  14.600   1.873  11.935
 3486SOL     OW12354   3.110  13.721   2.773
 3486SOL    HW112355   3.133  13.751   2.685
 3486SOL    HW212356   3.152  13.636   2.781
 3487SOL     OW12357  11.039   2.234   1.413
 3487SOL    HW112358  11.046   2.307   1.353
 3487SOL    HW212359  11.040   2.274   1.500
 3488SOL     OW12360   3.054   7.549   0.706
 3488SOL    HW112361   3.072   7.497   0.628
 3488SOL    HW212362   3.022   7.486   0.771
 3489SOL     OW12363  12.849   2.286   0.666
 3489SOL    HW112364  12.940   2.315   0.670
 3489SOL    HW212365  12.799   2.367   0.654
 3490SOL     OW12366  14.783  10.834   8.376
 3490SOL    HW112367  14.800  10.837   8.282
 3490SOL    HW212368  14.689  10.855   8.383
 3491SOL     OW12369  13.355  12.869   7.830
 3491SOL    HW112370  13.329  12.917   7.751
 3491SOL    HW212371  13.294  12.900   7.897
 3492SOL     OW12372   1.094   4.253   4.826
 3492SOL    HW112373   1.132   4.314   4.763
 3492SOL    HW212374   1.000   4.268   4.820
 3493SOL     OW12375   6.425  11.999   1.035
 3493SOL    HW112376   6.423  12.089   1.068
 3493SOL    HW212377   6.507  11.993   0.987
 3494SOL     OW12378  13.357   3.515   5.258
 3494SOL    HW112379  13.287   3.573   5.287
 3494SOL    HW212380  13.389   3.473   5.338
 3495SOL     OW12381   4.351  11.899   5.479
 3495SOL    HW112382   4.403  11.961   5.428
 3495SOL    HW212383   4.312  11.952   5.548
 3496SOL     OW12384   5.707   0.868   8.924
 3496SOL    HW112385   5.802   0.879   8.915
 3496SOL    HW212386   5.682   0.819   8.846
 3497SOL     OW12387  12.124  13.821   0.826
 3497SOL    HW112388  12.050  13.859   0.780
 3497SOL    HW212389  12.092  13.806   0.915
 3498SOL     OW12390  13.150   4.869  14.855
 3498SOL    HW112391  13.127   4.820   0.054
 3498SOL    HW212392  13.224   4.821  14.817
 3499SOL     OW12393   0.016  13.231   4.482
 3499SOL    HW112394   0.090  13.268   4.531
 3499SOL    HW212395  14.879  13.295   4.413
 3500SOL     OW12396   0.961   2.264  10.102
 3500SOL    HW112397   1.046   2.220  10.094
 3500SOL    HW212398   0.972   2.323  10.176
 3501SOL     OW12399   9.132   9.015   1.423
 3501SOL    HW112400   9.043   9.027   1.454
 3501SOL    HW212401   9.157   9.100   1.387
 3502SOL     OW12402   6.012  13.259  13.917
 3502SOL    HW112403   5.946  13.254  13.986
 3502SOL    HW212404   5.961  13.256  13.836
 3503SOL     OW12405   2.138   7.957   8.239
 3503SOL    HW112406   2.071   8.003   8.189
 3503SOL    HW212407   2.097   7.873   8.260
 3504SOL     OW12408   7.175   6.902   4.622
 3504SOL    HW112409   7.264   6.875   4.646
 3504SOL    HW212410   7.177   6.909   4.526
 3505SOL     OW12411   5.859  14.526  12.371
 3505SOL    HW112412   5.809  14.508  12.292
 3505SOL    HW212413   5.839  14.453  12.429
 3506SOL     OW12414  13.316  12.817   1.081
 3506SOL    HW112415  13.404  12.789   1.054
 3506SOL    HW212416  13.264  12.812   1.001
 3507SOL     OW12417  14.407   9.315  14.399
 3507SOL    HW112418  14.450   9.380  14.343
 3507SOL    HW212419  14.473   9.293  14.465
 3508SOL     OW12420  10.693   4.271   6.963
 3508SOL    HW112421  10.628   4.264   7.034
 3508SOL    HW212422  10.646   4.241   6.885
 3509SOL     OW12423   2.792   6.731   2.537
 3509SOL    HW112424   2.710   6.767   2.571
 3509SOL    HW212425   2.766   6.683   2.458
 3510SOL     OW12426   6.920   8.270  10.481
 3510SOL    HW112427   6.989   8.280  10.415
 3510SOL    HW212428   6.844   8.313  10.443
 3511SOL     OW12429   9.065   1.117  14.625
 3511SOL    HW112430   9.106   1.203  14.633
 3511SOL    HW212431   9.138   1.056  14.612
 3512SOL     OW12432   2.979  10.840   5.390
 3512SOL    HW112433   2.941  10.911   5.443
 3512SOL    HW212434   3.060  10.876   5.356
 3513SOL     OW12435  10.476   4.743   1.959
 3513SOL    HW112436  10.487   4.760   2.053
 3513SOL    HW212437  10.549   4.789   1.918
 3514SOL     OW12438  10.545   3.192  12.584
 3514SOL    HW112439  10.557   3.098  12.572
 3514SOL    HW212440  10.614   3.218  12.645
 3515SOL     OW12441   3.145  12.104   4.986
 3515SOL    HW112442   3.224  12.143   5.023
 3515SOL    HW212443   3.173  12.068   4.902
 3516SOL     OW12444  10.301   9.801   8.721
 3516SOL    HW112445  10.328   9.880   8.673
 3516SOL    HW212446  10.305   9.826   8.813
 3517SOL     OW12447  12.465  13.409   0.203
 3517SOL    HW112448  12.545  13.357   0.206
 3517SOL    HW212449  12.445  13.428   0.294
 3518SOL     OW12450  14.430   8.704   4.462
 3518SOL    HW112451  14.511   8.653   4.472
 3518SOL    HW212452  14.410   8.700   4.369
 3519SOL     OW12453   7.976   4.949   8.142
 3519SOL    HW112454   7.928   4.908   8.070
 3519SOL    HW212455   8.028   5.018   8.101
 3520SOL     OW12456   5.506   1.964   4.620
 3520SOL    HW112457   5.415   1.958   4.591
 3520SOL    HW212458   5.557   1.931   4.546
 3521SOL     OW12459   7.591   5.618   3.506
 3521SOL    HW112460   7.596   5.569   3.588
 3521SOL    HW212461   7.544   5.698   3.528
 3522SOL     OW12462   1.381  10.751  13.459
 3522SOL    HW112463   1.464  10.735  13.416
 3522SOL    HW212464   1.316  10.704  13.406
 3523SOL     OW12465   1.378  14.025  14.064
 3523SOL    HW112466   1.291  13.991  14.045
 3523SOL    HW212467   1.396  13.994  14.153
 3524SOL     OW12468  10.257  11.171  14.134
 3524SOL    HW112469  10.221  11.083  14.137
 3524SOL    HW212470  10.200  11.222  14.192
 3525SOL     OW12471   9.380   5.653   6.761
 3525SOL    HW112472   9.472   5.626   6.760
 3525SOL    HW212473   9.375   5.718   6.831
 3526SOL     OW12474   0.061  11.704   2.335
 3526SOL    HW112475   0.134  11.701   2.274
 3526SOL    HW212476  14.875  11.646   2.297
 3527SOL     OW12477  11.833  11.237   3.751
 3527SOL    HW112478  11.917  11.270   3.717
 3527SOL    HW212479  11.771  11.308   3.734
 3528SOL     OW12480   8.823   7.991   4.258
 3528SOL    HW112481   8.792   7.979   4.169
 3528SOL    HW212482   8.758   7.945   4.312
 3529SOL     OW12483  12.749   9.330   8.511
 3529SOL    HW112484  12.815   9.399   8.523
 3529SOL    HW212485  12.781   9.257   8.563
 3530SOL     OW12486   2.039   3.395   6.383
 3530SOL    HW112487   2.122   3.442   6.371
 3530SOL    HW212488   1.986   3.421   6.307
 3531SOL     OW12489   3.267   3.619   8.398
 3531SOL    HW112490   3.354   3.586   8.422
 3531SOL    HW212491   3.285   3.690   8.336
 3532SOL     OW12492  10.232   3.783   2.274
 3532SOL    HW112493  10.213   3.698   2.313
 3532SOL    HW212494  10.289   3.764   2.200
 3533SOL     OW12495   0.534   6.024  14.800
 3533SOL    HW112496   0.502   5.937  14.773
 3533SOL    HW212497   0.629   6.018  14.789
 3534SOL     OW12498   1.873   5.346   8.808
 3534SOL    HW112499   1.795   5.391   8.842
 3534SOL    HW212500   1.858   5.342   8.713
 3535SOL     OW12501   6.038   7.322  10.316
 3535SOL    HW112502   6.127   7.326  10.282
 3535SOL    HW212503   6.045   7.355  10.406
 3536SOL     OW12504   9.648   0.500   9.173
 3536SOL    HW112505   9.721   0.444   9.199
 3536SOL    HW212506   9.573   0.465   9.221
 3537SOL     OW12507   6.244  14.794  13.245
 3537SOL    HW112508   6.159  14.758  13.219
 3537SOL    HW212509   6.238   0.007  13.225
 3538SOL     OW12510   4.589  11.384   9.844
 3538SOL    HW112511   4.562  11.451   9.781
 3538SOL    HW212512   4.663  11.422   9.891
 3539SOL     OW12513   3.341   6.183   8.622
 3539SOL    HW112514   3.391   6.243   8.677
 3539SOL    HW212515   3.365   6.207   8.532
 3540SOL     OW12516   1.260   6.309  12.032
 3540SOL    HW112517   1.250   6.296  12.126
 3540SOL    HW212518   1.238   6.401  12.018
 3541SOL     OW12519   8.062  12.446   0.620
 3541SOL    HW112520   8.093  12.391   0.549
 3541SOL    HW212521   7.990  12.396   0.660
 3542SOL     OW12522   0.365   4.631   6.120
 3542SOL    HW112523   0.273   4.629   6.095
 3542SOL    HW212524   0.388   4.724   6.123
 3543SOL     OW12525   1.874   1.212   5.079
 3543SOL    HW112526   1.804   1.153   5.051
 3543SOL    HW212527   1.931   1.219   5.003
 3544SOL     OW12528  13.552   2.160   8.913
 3544SOL    HW112529  13.588   2.237   8.869
 3544SOL    HW212530  13.458   2.164   8.894
 3545SOL     OW12531   4.633  12.269  10.022
 3545SOL    HW112532   4.584  12.202  10.070
 3545SOL    HW212533   4.567  12.333   9.996
 3546SOL     OW12534   7.394  12.216  10.722
 3546SOL    HW112535   7.446  12.297  10.726
 3546SOL    HW212536   7.309  12.241  10.758
 3547SOL     OW12537  10.644  13.438   0.026
 3547SOL    HW112538  10.670  13.397  14.824
 3547SOL    HW212539  10.588  13.373   0.070
 3548SOL     OW12540   1.671   4.937  10.257
 3548SOL    HW112541   1.701   4.920  10.347
 3548SOL    HW212542   1.747   4.978  10.215
 3549SOL     OW12543   3.760   8.864   2.818
 3549SOL    HW112544   3.714   8.786   2.851
 3549SOL    HW212545   3.785   8.912   2.896
 3550SOL     OW12546   5.066   1.894   6.917
 3550SOL    HW112547   5.072   1.851   6.832
 3550SOL    HW212548   5.156   1.892   6.951
 3551SOL     OW12549   6.605  13.749   7.648
 3551SOL    HW112550   6.654  13.674   7.615
 3551SOL    HW212551   6.564  13.788   7.571
 3552SOL     OW12552   9.822   2.113   8.001
 3552SOL    HW112553   9.784   2.201   8.007
 3552SOL    HW212554   9.893   2.122   7.937
 3553SOL     OW12555  14.210   6.256   4.590
 3553SOL    HW112556  14.260   6.324   4.544
 3553SOL    HW212557  14.249   6.253   4.678
 3554SOL     OW12558   0.239   7.888   8.294
 3554SOL    HW112559   0.263   7.795   8.293
 3554SOL    HW212560   0.143   7.887   8.291
 3555SOL     OW12561   8.359   9.953  14.196
 3555SOL    HW112562   8.389   9.865  14.172
 3555SOL    HW212563   8.377  10.007  14.119
 3556SOL     OW12564   2.909   8.964   3.185
 3556SOL    HW112565   2.979   8.978   3.121
 3556SOL    HW212566   2.941   8.895   3.242
 3557SOL     OW12567   6.255   5.829  14.263
 3557SOL    HW112568   6.228   5.749  14.308
 3557SOL    HW212569   6.342   5.848  14.297
 3558SOL     OW12570   3.768   5.865   0.122
 3558SOL    HW112571   3.749   5.849   0.030
 3558SOL    HW212572   3.711   5.804   0.169
 3559SOL     OW12573  12.831   7.207   1.207
 3559SOL    HW112574  12.863   7.121   1.182
 3559SOL    HW212575  12.779   7.236   1.132
 3560SOL     OW12576   1.106   7.527   2.364
 3560SOL    HW112577   1.057   7.454   2.402
 3560SOL    HW212578   1.039   7.593   2.346
 3561SOL     OW12579   9.617   7.646   2.718
 3561SOL    HW112580   9.670   7.693   2.653
 3561SOL    HW212581   9.673   7.573   2.745
 3562SOL     OW12582  13.920  13.649   7.924
 3562SOL    HW112583  13.858  13.582   7.953
 3562SOL    HW212584  13.996  13.638   7.981
 3563SOL     OW12585  10.095   0.139   4.801
 3563SOL    HW112586   9.999   0.147   4.802
 3563SOL    HW212587  10.123   0.189   4.724
 3564SOL     OW12588   3.442   1.617   9.085
 3564SOL    HW112589   3.521   1.583   9.125
 3564SOL    HW212590   3.439   1.709   9.112
 3565SOL     OW12591  13.871   7.693  13.862
 3565SOL    HW112592  13.883   7.610  13.816
 3565SOL    HW212593  13.853   7.667  13.952
 3566SOL     OW12594   7.473   0.248  12.827
 3566SOL    HW112595   7.413   0.280  12.894
 3566SOL    HW212596   7.467   0.152  12.833
 3567SOL     OW12597  11.256  13.934   3.870
 3567SOL    HW112598  11.282  14.006   3.928
 3567SOL    HW212599  11.231  13.863   3.929
 3568SOL     OW12600   9.464  10.290   9.052
 3568SOL    HW112601   9.422  10.280   9.137
 3568SOL    HW212602   9.522  10.365   9.062
 3569SOL     OW12603   1.855   6.673  14.725
 3569SOL    HW112604   1.851   6.714  14.639
 3569SOL    HW212605   1.949   6.672  14.746
 3570SOL     OW12606   6.180   9.877  12.540
 3570SOL    HW112607   6.234   9.910  12.613
 3570SOL    HW212608   6.145   9.794  12.572
 3571SOL     OW12609   3.806   9.624   7.412
 3571SOL    HW112610   3.714   9.633   7.436
 3571SOL    HW212611   3.813   9.670   7.329
 3572SOL     OW12612   1.772   2.456   0.514
 3572SOL    HW112613   1.686   2.494   0.497
 3572SOL    HW212614   1.805   2.503   0.590
 3573SOL     OW12615  13.839  13.465   1.634
 3573SOL    HW112616  13.751  13.489   1.604
 3573SOL    HW212617  13.828  13.379   1.675
 3574SOL     OW12618   8.955  10.511   1.962
 3574SOL    HW112619   8.896  10.446   1.923
 3574SOL    HW212620   9.040  10.494   1.920
 3575SOL     OW12621   9.994   3.531   6.330
 3575SOL    HW112622   9.910   3.571   6.310
 3575SOL    HW212623  10.053   3.604   6.344
 3576SOL     OW12624   6.851  14.238   6.404
 3576SOL    HW112625   6.835  14.270   6.494
 3576SOL    HW212626   6.791  14.164   6.395
 3577SOL     OW12627   1.519   8.445  13.986
 3577SOL    HW112628   1.575   8.493  13.925
 3577SOL    HW212629   1.526   8.494  14.068
 3578SOL     OW12630   0.550   1.227  11.779
 3578SOL    HW112631   0.636   1.198  11.810
 3578SOL    HW212632   0.494   1.222  11.856
 3579SOL     OW12633  11.790   4.393   9.628
 3579SOL    HW112634  11.799   4.331   9.701
 3579SOL    HW212635  11.709   4.440   9.646
 3580SOL     OW12636   5.789  14.002   2.577
 3580SOL    HW112637   5.764  14.090   2.605
 3580SOL    HW212638   5.880  13.993   2.606
 3581SOL     OW12639   5.475  12.322   8.099
 3581SOL    HW112640   5.434  12.368   8.172
 3581SOL    HW212641   5.440  12.233   8.103
 3582SOL     OW12642  13.351   6.599   8.439
 3582SOL    HW112643  13.265   6.557   8.449
 3582SOL    HW212644  13.400   6.571   8.516
 3583SOL     OW12645   1.927   4.408   3.590
 3583SOL    HW112646   1.996   4.470   3.612
 3583SOL    HW212647   1.943   4.332   3.646
 3584SOL     OW12648   2.455   0.036  14.008
 3584SOL    HW112649   2.478  14.880  13.923
 3584SOL    HW212650   2.369   0.077  13.994
 3585SOL     OW12651  10.745  13.190  12.170
 3585SOL    HW112652  10.768  13.119  12.230
 3585SOL    HW212653  10.669  13.231  12.209
 3586SOL     OW12654   8.519  11.161  13.224
 3586SOL    HW112655   8.494  11.101  13.154
 3586SOL    HW212656   8.600  11.125  13.260
 3587SOL     OW12657   5.658   2.044  14.009
 3587SOL    HW112658   5.716   2.053  14.085
 3587SOL    HW212659   5.708   1.991  13.947
 3588SOL     OW12660   1.068   6.900   2.374
 3588SOL    HW112661   0.999   6.949   2.419
 3588SOL    HW212662   1.029   6.878   2.289
 3589SOL     OW12663   2.674   4.427   5.627
 3589SOL    HW112664   2.692   4.517   5.654
 3589SOL    HW212665   2.635   4.386   5.705
 3590SOL     OW12666   9.239  13.430   6.734
 3590SOL    HW112667   9.275  13.341   6.741
 3590SOL    HW212668   9.249  13.467   6.822
 3591SOL     OW12669   6.177   7.020   3.464
 3591SOL    HW112670   6.119   6.948   3.487
 3591SOL    HW212671   6.214   6.995   3.380
 3592SOL     OW12672   1.905  14.060   7.698
 3592SOL    HW112673   1.893  14.120   7.771
 3592SOL    HW212674   1.957  13.988   7.734
 3593SOL     OW12675  11.475   4.631   1.645
 3593SOL    HW112676  11.433   4.654   1.728
 3593SOL    HW212677  11.549   4.692   1.638
 3594SOL     OW12678  14.765   9.372  11.353
 3594SOL    HW112679  14.717   9.291  11.371
 3594SOL    HW212680  14.703   9.442  11.374
 3595SOL     OW12681  11.592   4.050   2.177
 3595SOL    HW112682  11.642   3.976   2.143
 3595SOL    HW212683  11.532   4.011   2.240
 3596SOL     OW12684   6.298   2.058   7.307
 3596SOL    HW112685   6.287   2.036   7.399
 3596SOL    HW212686   6.284   2.153   7.303
 3597SOL     OW12687   6.903   8.980   5.548
 3597SOL    HW112688   6.895   8.890   5.516
 3597SOL    HW212689   6.941   9.028   5.474
 3598SOL     OW12690   8.061   0.569  13.302
 3598SOL    HW112691   8.017   0.595  13.221
 3598SOL    HW212692   8.136   0.516  13.273
 3599SOL     OW12693   9.776   1.570   8.079
 3599SOL    HW112694   9.836   1.644   8.074
 3599SOL    HW212695   9.827   1.500   8.118
 3600SOL     OW12696  11.861   6.287  11.375
 3600SOL    HW112697  11.867   6.225  11.448
 3600SOL    HW212698  11.775   6.327  11.384
 3601SOL     OW12699  14.059  11.575  12.979
 3601SOL    HW112700  14.026  11.584  13.068
 3601SOL    HW212701  13.983  11.551  12.927
 3602SOL     OW12702   2.151  14.571  11.840
 3602SOL    HW112703   2.213  14.630  11.796
 3602SOL    HW212704   2.145  14.605  11.929
 3603SOL     OW12705   9.119  12.282  10.196
 3603SOL    HW112706   9.205  12.242  10.210
 3603SOL    HW212707   9.118  12.357  10.255
 3604SOL     OW12708   8.295  10.586  13.633
 3604SOL    HW112709   8.201  10.585  13.616
 3604SOL    HW212710   8.303  10.615  13.724
 3605SOL     OW12711  13.247   6.585   2.562
 3605SOL    HW112712  13.231   6.539   2.480
 3605SOL    HW212713  13.340   6.610   2.557
 3606SOL     OW12714  12.412   1.534   5.702
 3606SOL    HW112715  12.453   1.448   5.693
 3606SOL    HW212716  12.402   1.565   5.612
 3607SOL     OW12717   1.419   1.910   9.512
 3607SOL    HW112718   1.453   1.832   9.469
 3607SOL    HW212719   1.363   1.952   9.446
 3608SOL     OW12720  13.062   3.058   0.182
 3608SOL    HW112721  13.103   3.038   0.266
 3608SOL    HW212722  13.095   2.991   0.123
 3609SOL     OW12723  10.161   0.244  12.098
 3609SOL    HW112724  10.120   0.323  12.135
 3609SOL    HW212725  10.251   0.272  12.077
 3610SOL     OW12726   9.253  12.022  14.673
 3610SOL    HW112727   9.301  12.011  14.756
 3610SOL    HW212728   9.162  12.003  14.695
 3611SOL     OW12729   0.125  14.400   2.717
 3611SOL    HW112730   0.219  14.412   2.702
 3611SOL    HW212731   0.086  14.415   2.631
 3612SOL     OW12732   5.719   9.316  14.311
 3612SOL    HW112733   5.793   9.291  14.367
 3612SOL    HW212734   5.674   9.233  14.292
 3613SOL     OW12735  12.339   9.825  11.427
 3613SOL    HW112736  12.410   9.762  11.439
 3613SOL    HW212737  12.301   9.803  11.343
 3614SOL     OW12738  13.423   9.434  11.771
 3614SOL    HW112739  13.439   9.430  11.866
 3614SOL    HW212740  13.448   9.523  11.746
 3615SOL     OW12741  13.975  12.442   0.459
 3615SOL    HW112742  13.965  12.395   0.377
 3615SOL    HW212743  14.045  12.396   0.505
 3616SOL     OW12744   4.025  12.879   6.695
 3616SOL    HW112745   4.022  12.946   6.763
 3616SOL    HW212746   3.941  12.887   6.650
 3617SOL     OW12747   1.807   7.344   4.763
 3617SOL    HW112748   1.803   7.254   4.795
 3617SOL    HW212749   1.891   7.377   4.796
 3618SOL     OW12750  13.311  12.013   0.407
 3618SOL    HW112751  13.393  12.021   0.456
 3618SOL    HW212752  13.329  12.055   0.323
 3619SOL     OW12753  14.338   7.939  10.219
 3619SOL    HW112754  14.369   8.013  10.167
 3619SOL    HW212755  14.411   7.877  10.218
 3620SOL     OW12756   6.679   9.075   2.181
 3620SOL    HW112757   6.760   9.126   2.187
 3620SOL    HW212758   6.613   9.132   2.221
 3621SOL     OW12759  11.052   4.471   2.235
 3621SOL    HW112760  10.988   4.455   2.165
 3621SOL    HW212761  11.137   4.456   2.194
 3622SOL     OW12762   4.414   8.715   2.327
 3622SOL    HW112763   4.487   8.714   2.388
 3622SOL    HW212764   4.348   8.770   2.369
 3623SOL     OW12765  11.068   3.586  13.734
 3623SOL    HW112766  11.010   3.510  13.737
 3623SOL    HW212767  11.011   3.659  13.713
 3624SOL     OW12768  13.571   4.244   9.496
 3624SOL    HW112769  13.479   4.222   9.510
 3624SOL    HW212770  13.585   4.324   9.547
 3625SOL     OW12771  11.118   8.893   3.645
 3625SOL    HW112772  11.079   8.938   3.570
 3625SOL    HW212773  11.199   8.855   3.612
 3626SOL     OW12774  10.127   3.835   1.959
 3626SOL    HW112775  10.111   3.926   1.984
 3626SOL    HW212776  10.043   3.805   1.923
 3627SOL     OW12777   1.464   2.398   2.783
 3627SOL    HW112778   1.495   2.332   2.845
 3627SOL    HW212779   1.386   2.434   2.825
 3628SOL     OW12780  14.395   4.172   7.242
 3628SOL    HW112781  14.404   4.263   7.270
 3628SOL    HW212782  14.463   4.161   7.176
 3629SOL     OW12783   3.205   7.463  10.855
 3629SOL    HW112784   3.150   7.386  10.841
 3629SOL    HW212785   3.256   7.442  10.933
 3630SOL     OW12786   2.226  10.808   4.202
 3630SOL    HW112787   2.245  10.890   4.247
 3630SOL    HW212788   2.311  10.767   4.190
 3631SOL     OW12789   1.331  11.936   0.200
 3631SOL    HW112790   1.360  12.027   0.198
 3631SOL    HW212791   1.264  11.930   0.132
 3632SOL     OW12792   7.408   0.401   8.586
 3632SOL    HW112793   7.421   0.478   8.642
 3632SOL    HW212794   7.314   0.383   8.592
 3633SOL     OW12795   0.497   9.608   3.239
 3633SOL    HW112796   0.414   9.620   3.193
 3633SOL    HW212797   0.561   9.654   3.185
 3634SOL     OW12798   6.918   6.739   8.548
 3634SOL    HW112799   6.902   6.825   8.589
 3634SOL    HW212800   6.951   6.760   8.461
 3635SOL     OW12801   9.373   7.388   2.552
 3635SOL    HW112802   9.407   7.319   2.609
 3635SOL    HW212803   9.326   7.341   2.483
 3636SOL     OW12804   9.951  10.383  13.471
 3636SOL    HW112805   9.991  10.419  13.392
 3636SOL    HW212806  10.024  10.373  13.532
 3637SOL     OW12807   1.193   8.280   0.351
 3637SOL    HW112808   1.136   8.332   0.294
 3637SOL    HW212809   1.134   8.215   0.390
 3638SOL     OW12810   0.526   9.714   9.626
 3638SOL    HW112811   0.544   9.668   9.709
 3638SOL    HW212812   0.592   9.783   9.622
 3639SOL     OW12813   2.595  10.961   8.556
 3639SOL    HW112814   2.663  11.015   8.517
 3639SOL    HW212815   2.536  10.939   8.484
 3640SOL     OW12816   8.866   3.728   4.743
 3640SOL    HW112817   8.799   3.673   4.701
 3640SOL    HW212818   8.815   3.797   4.788
 3641SOL     OW12819   2.404  13.558   7.203
 3641SOL    HW112820   2.413  13.464   7.187
 3641SOL    HW212821   2.356  13.591   7.127
 3642SOL     OW12822   8.720  14.592   9.908
 3642SOL    HW112823   8.659  14.546   9.966
 3642SOL    HW212824   8.664  14.644   9.851
 3643SOL     OW12825   1.056   4.024  14.846
 3643SOL    HW112826   1.014   3.969   0.031
 3643SOL    HW212827   0.987   4.085  14.819
 3644SOL     OW12828   6.549   0.958   5.118
 3644SOL    HW112829   6.562   1.015   5.042
 3644SOL    HW212830   6.478   1.000   5.167
 3645SOL     OW12831   9.433   9.899   6.308
 3645SOL    HW112832   9.488   9.833   6.350
 3645SOL    HW212833   9.345   9.861   6.311
 3646SOL     OW12834  11.560  11.080  11.872
 3646SOL    HW112835  11.499  11.154  11.872
 3646SOL    HW212836  11.523  11.017  11.934
 3647SOL     OW12837  13.595  14.064  11.823
 3647SOL    HW112838  13.689  14.044  11.816
 3647SOL    HW212839  13.589  14.157  11.804
 3648SOL     OW12840   3.689   1.872   0.787
 3648SOL    HW112841   3.721   1.910   0.869
 3648SOL    HW212842   3.594   1.868   0.798
 3649SOL     OW12843  13.521   8.676   5.435
 3649SOL    HW112844  13.479   8.742   5.381
 3649SOL    HW212845  13.517   8.712   5.524
 3650SOL     OW12846  11.305   2.657   4.950
 3650SOL    HW112847  11.343   2.594   5.010
 3650SOL    HW212848  11.290   2.735   5.003
 3651SOL     OW12849   8.132   0.014   7.600
 3651SOL    HW112850   8.206  14.842   7.570
 3651SOL    HW212851   8.109   0.069   7.525
 3652SOL     OW12852  12.969   9.531  14.260
 3652SOL    HW112853  12.972   9.620  14.224
 3652SOL    HW212854  13.033   9.533  14.331
 3653SOL     OW12855  14.412   2.108  13.852
 3653SOL    HW112856  14.493   2.126  13.900
 3653SOL    HW212857  14.385   2.021  13.883
 3654SOL     OW12858   5.450  14.409   9.862
 3654SOL    HW112859   5.544  14.405   9.844
 3654SOL    HW212860   5.421  14.318   9.854
 3655SOL     OW12861   7.797  11.231   9.748
 3655SOL    HW112862   7.844  11.314   9.757
 3655SOL    HW212863   7.772  11.208   9.838
 3656SOL     OW12864   9.684   3.485  10.083
 3656SOL    HW112865   9.737   3.544  10.030
 3656SOL    HW212866   9.748   3.428  10.127
 3657SOL     OW12867   3.920  10.183  10.815
 3657SOL    HW112868   3.993  10.171  10.877
 3657SOL    HW212869   3.948  10.138  10.736
 3658SOL     OW12870   1.657   6.740   6.201
 3658SOL    HW112871   1.577   6.691   6.219
 3658SOL    HW212872   1.700   6.691   6.131
 3659SOL     OW12873  14.299   3.601   0.681
 3659SOL    HW112874  14.228   3.585   0.743
 3659SOL    HW212875  14.377   3.569   0.726
 3660SOL     OW12876   3.363  13.645  14.869
 3660SOL    HW112877   3.301  13.597   0.043
 3660SOL    HW212878   3.308  13.695  14.808
 3661SOL     OW12879   9.350  14.564  12.338
 3661SOL    HW112880   9.388  14.649  12.316
 3661SOL    HW212881   9.268  14.585  12.382
 3662SOL     OW12882  11.401   0.908  12.868
 3662SOL    HW112883  11.398   0.952  12.953
 3662SOL    HW212884  11.343   0.959  12.812
 3663SOL     OW12885   8.401  13.139   1.238
 3663SOL    HW112886   8.313  13.115   1.210
 3663SOL    HW212887   8.442  13.056   1.263
 3664SOL     OW12888   3.776   6.619  13.552
 3664SOL    HW112889   3.798   6.526  13.550
 3664SOL    HW212890   3.807   6.652  13.467
 3665SOL     OW12891  12.276  12.156   0.562
 3665SOL    HW112892  12.323  12.083   0.603
 3665SOL    HW212893  12.222  12.115   0.495
 3666SOL     OW12894  11.972   5.907  10.449
 3666SOL    HW112895  11.936   5.876  10.365
 3666SOL    HW212896  11.963   5.832  10.507
 3667SOL     OW12897   5.889   0.297   2.138
 3667SOL    HW112898   5.874   0.353   2.062
 3667SOL    HW212899   5.818   0.234   2.136
 3668SOL     OW12900  10.573  10.175   0.378
 3668SOL    HW112901  10.653  10.185   0.325
 3668SOL    HW212902  10.578  10.246   0.442
 3669SOL     OW12903   3.125  13.057   5.460
 3669SOL    HW112904   3.095  13.063   5.370
 3669SOL    HW212905   3.050  13.084   5.513
 3670SOL     OW12906   6.490  10.073  10.819
 3670SOL    HW112907   6.521   9.998  10.871
 3670SOL    HW212908   6.457  10.134  10.884
 3671SOL     OW12909   1.998   3.411   1.529
 3671SOL    HW112910   1.964   3.412   1.618
 3671SOL    HW212911   2.091   3.430   1.539
 3672SOL     OW12912   3.889   4.557   7.255
 3672SOL    HW112913   3.927   4.634   7.297
 3672SOL    HW212914   3.861   4.501   7.328
 3673SOL     OW12915   0.653   3.498   5.325
 3673SOL    HW112916   0.725   3.465   5.378
 3673SOL    HW212917   0.588   3.428   5.326
 3674SOL     OW12918   1.321   6.571  12.519
 3674SOL    HW112919   1.293   6.484  12.546
 3674SOL    HW212920   1.277   6.586  12.435
 3675SOL     OW12921  13.521  10.276  12.916
 3675SOL    HW112922  13.492  10.287  12.825
 3675SOL    HW212923  13.585  10.205  12.912
 3676SOL     OW12924   9.395   2.026   3.690
 3676SOL    HW112925   9.339   2.075   3.629
 3676SOL    HW212926   9.482   2.031   3.651
 3677SOL     OW12927  11.315   6.089   2.262
 3677SOL    HW112928  11.277   6.002   2.276
 3677SOL    HW212929  11.403   6.072   2.230
 3678SOL     OW12930  13.898   1.429   6.328
 3678SOL    HW112931  13.815   1.398   6.293
 3678SOL    HW212932  13.947   1.350   6.349
 3679SOL     OW12933   5.938   5.712  10.702
 3679SOL    HW112934   6.006   5.645  10.712
 3679SOL    HW212935   5.889   5.708  10.785
 3680SOL     OW12936  12.364   2.642   3.969
 3680SOL    HW112937  12.295   2.692   3.923
 3680SOL    HW212938  12.437   2.642   3.908
 3681SOL     OW12939   1.731   9.104  11.755
 3681SOL    HW112940   1.702   9.028  11.704
 3681SOL    HW212941   1.824   9.111  11.735
 3682SOL     OW12942  12.972   5.857  10.438
 3682SOL    HW112943  13.062   5.823  10.444
 3682SOL    HW212944  12.923   5.786  10.396
 3683SOL     OW12945   3.624   3.093  12.859
 3683SOL    HW112946   3.654   3.082  12.949
 3683SOL    HW212947   3.600   3.185  12.853
 3684SOL     OW12948  13.594   0.292   3.414
 3684SOL    HW112949  13.569   0.225   3.478
 3684SOL    HW212950  13.690   0.290   3.414
 3685SOL     OW12951   5.291   8.261   0.838
 3685SOL    HW112952   5.384   8.252   0.821
 3685SOL    HW212953   5.249   8.254   0.752
 3686SOL     OW12954   7.845   5.367   1.328
 3686SOL    HW112955   7.817   5.371   1.420
 3686SOL    HW212956   7.920   5.308   1.328
 3687SOL     OW12957   0.978   7.812   6.110
 3687SOL    HW112958   1.056   7.860   6.138
 3687SOL    HW212959   1.000   7.720   6.125
 3688SOL     OW12960  11.373  12.053  11.510
 3688SOL    HW112961  11.309  12.025  11.444
 3688SOL    HW212962  11.397  12.142  11.484
 3689SOL     OW12963   6.184   6.255  12.095
 3689SOL    HW112964   6.143   6.198  12.160
 3689SOL    HW212965   6.262   6.290  12.139
 3690SOL     OW12966   9.046   7.176   0.218
 3690SOL    HW112967   8.965   7.131   0.241
 3690SOL    HW212968   9.104   7.107   0.186
 3691SOL     OW12969  11.378   8.778   6.461
 3691SOL    HW112970  11.428   8.800   6.540
 3691SOL    HW212971  11.287   8.777   6.490
 3692SOL     OW12972   8.680  13.761   1.555
 3692SOL    HW112973   8.603  13.759   1.498
 3692SOL    HW212974   8.648  13.735   1.641
 3693SOL     OW12975   3.227   1.933   5.699
 3693SOL    HW112976   3.288   1.865   5.669
 3693SOL    HW212977   3.281   2.011   5.706
 3694SOL     OW12978  13.020   4.452   3.957
 3694SOL    HW112979  13.037   4.531   4.008
 3694SOL    HW212980  12.997   4.385   4.022
 3695SOL     OW12981   6.120  10.289  11.672
 3695SOL    HW112982   6.127  10.376  11.711
 3695SOL    HW212983   6.126  10.304  11.577
 3696SOL     OW12984   0.555  12.548   4.277
 3696SOL    HW112985   0.466  12.522   4.302
 3696SOL    HW212986   0.585  12.604   4.349
 3697SOL     OW12987   1.208   9.903   9.166
 3697SOL    HW112988   1.243   9.847   9.235
 3697SOL    HW212989   1.208   9.847   9.088
 3698SOL     OW12990  13.228   0.987  13.513
 3698SOL    HW112991  13.174   1.065  13.501
 3698SOL    HW212992  13.317   1.017  13.493
 3699SOL     OW12993   2.667   5.562   1.066
 3699SOL    HW112994   2.672   5.623   0.992
 3699SOL    HW212995   2.658   5.618   1.143
 3700SOL     OW12996   8.672   5.650  13.254
 3700SOL    HW112997   8.579   5.671  13.264
 3700SOL    HW212998   8.688   5.655  13.160
 3701SOL     OW12999   8.509  11.040   3.735
 3701SOL    HW113000   8.543  10.964   3.688
 3701SOL    HW213001   8.415  11.037   3.721
 3702SOL     OW13002  12.442  14.026   6.405
 3702SOL    HW113003  12.422  14.040   6.312
 3702SOL    HW213004  12.449  14.114   6.441
 3703SOL     OW13005  12.814  12.398   5.544
 3703SOL    HW113006  12.740  12.454   5.520
 3703SOL    HW213007  12.845  12.362   5.460
 3704SOL     OW13008  13.447   4.476   7.160
 3704SOL    HW113009  13.453   4.381   7.171
 3704SOL    HW213010  13.488   4.512   7.238
 3705SOL     OW13011   6.681  14.019  12.217
 3705SOL    HW113012   6.646  14.107  12.233
 3705SOL    HW213013   6.763  14.017  12.267
 3706SOL     OW13014   1.128  13.770   1.241
 3706SOL    HW113015   1.179  13.724   1.175
 3706SOL    HW213016   1.193  13.811   1.298
 3707SOL     OW13017   0.780   5.972   0.654
 3707SOL    HW113018   0.795   6.020   0.573
 3707SOL    HW213019   0.744   6.037   0.715
 3708SOL     OW13020   8.186   6.002   2.490
 3708SOL    HW113021   8.159   5.937   2.425
 3708SOL    HW213022   8.247   5.956   2.547
 3709SOL     OW13023   7.434   0.875   2.025
 3709SOL    HW113024   7.430   0.930   2.103
 3709SOL    HW213025   7.435   0.938   1.952
 3710SOL     OW13026   6.789  12.761   5.833
 3710SOL    HW113027   6.882  12.767   5.856
 3710SOL    HW213028   6.744  12.774   5.916
 3711SOL     OW13029  14.518   1.599   0.236
 3711SOL    HW113030  14.443   1.546   0.207
 3711SOL    HW213031  14.478   1.676   0.277
 3712SOL     OW13032  11.675  12.435  14.170
 3712SOL    HW113033  11.662  12.519  14.125
 3712SOL    HW213034  11.607  12.378  14.134
 3713SOL     OW13035   9.839   0.963   4.323
 3713SOL    HW113036   9.917   1.013   4.348
 3713SOL    HW213037   9.776   0.982   4.392
 3714SOL     OW13038   5.203  13.614   7.420
 3714SOL    HW113039   5.259  13.537   7.433
 3714SOL    HW213040   5.171  13.605   7.330
 3715SOL     OW13041   0.381   2.173   1.927
 3715SOL    HW113042   0.435   2.212   1.858
 3715SOL    HW213043   0.436   2.104   1.963
 3716SOL     OW13044   2.857   0.628   2.593
 3716SOL    HW113045   2.766   0.655   2.580
 3716SOL    HW213046   2.866   0.548   2.541
 3717SOL     OW13047   4.553   1.886   7.211
 3717SOL    HW113048   4.606   1.810   7.234
 3717SOL    HW213049   4.612   1.944   7.163
 3718SOL     OW13050  12.585  13.318   7.183
 3718SOL    HW113051  12.626  13.374   7.117
 3718SOL    HW213052  12.651  13.252   7.204
 3719SOL     OW13053   2.316   0.295  11.059
 3719SOL    HW113054   2.397   0.247  11.074
 3719SOL    HW213055   2.287   0.322  11.147
 3720SOL     OW13056   8.756   8.389   3.161
 3720SOL    HW113057   8.735   8.296   3.172
 3720SOL    HW213058   8.849   8.396   3.184
 3721SOL     OW13059   3.094  10.907  13.942
 3721SOL    HW113060   3.155  10.856  13.890
 3721SOL    HW213061   3.009  10.866  13.927
 3722SOL     OW13062   9.275   2.603  10.288
 3722SOL    HW113063   9.191   2.616  10.244
 3722SOL    HW213064   9.290   2.686  10.335
 3723SOL     OW13065   6.866   9.493  13.610
 3723SOL    HW113066   6.803   9.433  13.570
 3723SOL    HW213067   6.932   9.507  13.542
 3724SOL     OW13068   1.419   4.559  13.079
 3724SOL    HW113069   1.474   4.493  13.038
 3724SOL    HW213070   1.430   4.544  13.173
 3725SOL     OW13071  12.391   8.229   5.970
 3725SOL    HW113072  12.478   8.191   5.982
 3725SOL    HW213073  12.405   8.300   5.907
 3726SOL     OW13074   8.761  14.141   1.498
 3726SOL    HW113075   8.742  14.161   1.590
 3726SOL    HW213076   8.689  14.180   1.450
 3727SOL     OW13077  11.965  13.140  11.728
 3727SOL    HW113078  11.983  13.147  11.821
 3727SOL    HW213079  11.873  13.166  11.718
 3728SOL     OW13080   2.461  13.133   3.243
 3728SOL    HW113081   2.429  13.047   3.271
 3728SOL    HW213082   2.411  13.196   3.296
 3729SOL     OW13083   3.844   4.050  11.825
 3729SOL    HW113084   3.925   4.005  11.848
 3729SOL    HW213085   3.825   4.105  11.901
 3730SOL     OW13086  12.996  14.400   7.799
 3730SOL    HW113087  12.977  14.312   7.833
 3730SOL    HW213088  12.985  14.391   7.704
 3731SOL     OW13089  14.014  11.234   4.075
 3731SOL    HW113090  13.931  11.225   4.027
 3731SOL    HW213091  13.997  11.191   4.159
 3732SOL     OW13092   4.999   8.619   6.175
 3732SOL    HW113093   5.094   8.625   6.191
 3732SOL    HW213094   4.987   8.530   6.141
 3733SOL     OW13095   2.825   6.959  13.053
 3733SOL    HW113096   2.738   6.977  13.089
 3733SOL    HW213097   2.854   7.044  13.018
 3734SOL     OW13098   7.262  12.587   6.185
 3734SOL    HW113099   7.225  12.543   6.109
 3734SOL    HW213100   7.356  12.570   6.180
 3735SOL     OW13101   8.125   9.971  13.540
 3735SOL    HW113102   8.068   9.928  13.604
 3735SOL    HW213103   8.214   9.944  13.565
 3736SOL     OW13104  14.557   9.441  10.442
 3736SOL    HW113105  14.483   9.381  10.442
 3736SOL    HW213106  14.532   9.510  10.503
 3737SOL     OW13107   8.736  13.343   4.459
 3737SOL    HW113108   8.670  13.278   4.435
 3737SOL    HW213109   8.689  13.405   4.515
 3738SOL     OW13110   1.585  11.868   5.058
 3738SOL    HW113111   1.555  11.878   5.148
 3738SOL    HW213112   1.574  11.955   5.019
 3739SOL     OW13113   8.610  12.362   6.382
 3739SOL    HW113114   8.556  12.314   6.444
 3739SOL    HW213115   8.669  12.295   6.346
 3740SOL     OW13116  11.650   3.887   1.523
 3740SOL    HW113117  11.591   3.959   1.545
 3740SOL    HW213118  11.718   3.891   1.591
 3741SOL     OW13119  12.773   0.450   9.372
 3741SOL    HW113120  12.766   0.543   9.348
 3741SOL    HW213121  12.744   0.446   9.463
 3742SOL     OW13122   7.335   9.904   5.901
 3742SOL    HW113123   7.357   9.951   5.981
 3742SOL    HW213124   7.241   9.885   5.910
 3743SOL     OW13125   5.589   7.746  11.188
 3743SOL    HW113126   5.657   7.681  11.207
 3743SOL    HW213127   5.551   7.717  11.105
 3744SOL     OW13128   8.406   0.655  12.132
 3744SOL    HW113129   8.454   0.632  12.053
 3744SOL    HW213130   8.411   0.750  12.137
 3745SOL     OW13131  10.476   6.179   0.488
 3745SOL    HW113132  10.515   6.233   0.419
 3745SOL    HW213133  10.438   6.104   0.441
 3746SOL     OW13134   1.212   7.337   5.673
 3746SOL    HW113135   1.246   7.320   5.761
 3746SOL    HW213136   1.117   7.340   5.685
 3747SOL     OW13137   1.139  12.573  14.605
 3747SOL    HW113138   1.184  12.655  14.627
 3747SOL    HW213139   1.068  12.600  14.547
 3748SOL     OW13140   7.368  13.047   7.336
 3748SOL    HW113141   7.299  13.093   7.384
 3748SOL    HW213142   7.408  12.990   7.401
 3749SOL     OW13143   9.726  14.372  12.867
 3749SOL    HW113144   9.632  14.358  12.862
 3749SOL    HW213145   9.735  14.462  12.898
 3750SOL     OW13146   4.858   1.017   4.919
 3750SOL    HW113147   4.872   0.938   4.972
 3750SOL    HW213148   4.947   1.048   4.900
 3751SOL     OW13149   7.114   4.062  13.522
 3751SOL    HW113150   7.046   4.115  13.480
 3751SOL    HW213151   7.068   4.013  13.591
 3752SOL     OW13152   3.585  11.254   0.553
 3752SOL    HW113153   3.611  11.342   0.527
 3752SOL    HW213154   3.634  11.196   0.494
 3753SOL     OW13155  14.349  13.776   0.103
 3753SOL    HW113156  14.272  13.752   0.154
 3753SOL    HW213157  14.360  13.703   0.041
 3754SOL     OW13158   8.786   6.477  11.862
 3754SOL    HW113159   8.751   6.415  11.926
 3754SOL    HW213160   8.870   6.504  11.899
 3755SOL     OW13161   6.448  12.178   9.496
 3755SOL    HW113162   6.509  12.117   9.538
 3755SOL    HW213163   6.462  12.261   9.542
 3756SOL     OW13164   7.433   9.704  10.509
 3756SOL    HW113165   7.418   9.750  10.591
 3756SOL    HW213166   7.355   9.723  10.456
 3757SOL     OW13167   3.791   7.567  11.217
 3757SOL    HW113168   3.744   7.643  11.251
 3757SOL    HW213169   3.806   7.511  11.293
 3758SOL     OW13170  11.503   3.782   0.608
 3758SOL    HW113171  11.476   3.756   0.520
 3758SOL    HW213172  11.500   3.878   0.606
 3759SOL     OW13173   9.676  13.926  12.003
 3759SOL    HW113174   9.640  14.009  12.035
 3759SOL    HW213175   9.599  13.876  11.977
 3760SOL     OW13176   5.443   2.225  13.937
 3760SOL    HW113177   5.375   2.229  14.003
 3760SOL    HW213178   5.511   2.170  13.975
 3761SOL     OW13179  13.384   4.859  14.525
 3761SOL    HW113180  13.456   4.905  14.570
 3761SOL    HW213181  13.306   4.909  14.549
 3762SOL     OW13182   6.621   3.753  13.061
 3762SOL    HW113183   6.616   3.829  13.002
 3762SOL    HW213184   6.664   3.685  13.009
 3763SOL     OW13185  10.947   9.608   2.080
 3763SOL    HW113186  10.998   9.578   2.005
 3763SOL    HW213187  10.923   9.528   2.127
 3764SOL     OW13188   2.951   4.703  12.723
 3764SOL    HW113189   2.881   4.731  12.782
 3764SOL    HW213190   3.016   4.773  12.728
 3765SOL     OW13191   6.735   5.861   3.202
 3765SOL    HW113192   6.718   5.922   3.130
 3765SOL    HW213193   6.826   5.876   3.226
 3766SOL     OW13194   5.508   4.857   1.880
 3766SOL    HW113195   5.519   4.772   1.922
 3766SOL    HW213196   5.596   4.882   1.852
 3767SOL     OW13197   8.185  10.842  11.933
 3767SOL    HW113198   8.161  10.799  11.851
 3767SOL    HW213199   8.251  10.907  11.907
 3768SOL     OW13200   0.392   7.163   7.779
 3768SOL    HW113201   0.397   7.074   7.747
 3768SOL    HW213202   0.427   7.159   7.868
 3769SOL     OW13203   7.233   4.309   7.596
 3769SOL    HW113204   7.199   4.249   7.663
 3769SOL    HW213205   7.169   4.305   7.526
 3770SOL     OW13206  11.722   4.655   3.755
 3770SOL    HW113207  11.778   4.579   3.767
 3770SOL    HW213208  11.678   4.666   3.839
 3771SOL     OW13209  10.755  13.359   7.033
 3771SOL    HW113210  10.758  13.452   7.057
 3771SOL    HW213211  10.829  13.346   6.974
 3772SOL     OW13212   5.210   7.198  10.995
 3772SOL    HW113213   5.163   7.123  10.957
 3772SOL    HW213214   5.195   7.191  11.089
 3773SOL     OW13215  14.309   7.033   6.118
 3773SOL    HW113216  14.392   7.063   6.082
 3773SOL    HW213217  14.334   6.974   6.189
 3774SOL     OW13218   6.480  13.069   8.243
 3774SOL    HW113219   6.394  13.046   8.210
 3774SOL    HW213220   6.494  13.010   8.317
 3775SOL     OW13221   7.852   3.769   4.171
 3775SOL    HW113222   7.900   3.731   4.245
 3775SOL    HW213223   7.782   3.820   4.213
 3776SOL     OW13224  12.324   2.437   9.220
 3776SOL    HW113225  12.298   2.517   9.175
 3776SOL    HW213226  12.355   2.379   9.151
 3777SOL     OW13227   8.779   5.979   4.319
 3777SOL    HW113228   8.860   5.957   4.273
 3777SOL    HW213229   8.794   5.950   4.409
 3778SOL     OW13230   6.698   8.719   8.828
 3778SOL    HW113231   6.721   8.628   8.812
 3778SOL    HW213232   6.728   8.765   8.749
 3779SOL     OW13233  12.316   3.286   3.697
 3779SOL    HW113234  12.258   3.222   3.655
 3779SOL    HW213235  12.269   3.369   3.690
 3780SOL     OW13236   5.387   0.591  11.273
 3780SOL    HW113237   5.411   0.640  11.352
 3780SOL    HW213238   5.346   0.512  11.307
 3781SOL     OW13239  12.750   3.552   0.207
 3781SOL    HW113240  12.776   3.545   0.115
 3781SOL    HW213241  12.670   3.499   0.213
 3782SOL     OW13242   1.840   4.474   7.052
 3782SOL    HW113243   1.839   4.565   7.022
 3782SOL    HW213244   1.787   4.427   6.988
 3783SOL     OW13245   0.766   5.112   3.259
 3783SOL    HW113246   0.828   5.040   3.243
 3783SOL    HW213247   0.820   5.191   3.251
 3784SOL     OW13248   3.584  11.712  14.761
 3784SOL    HW113249   3.654  11.654  14.731
 3784SOL    HW213250   3.532  11.658  14.821
 3785SOL     OW13251  10.743   1.758  13.992
 3785SOL    HW113252  10.775   1.717  14.073
 3785SOL    HW213253  10.771   1.698  13.923
 3786SOL     OW13254   2.988   7.015   5.145
 3786SOL    HW113255   2.915   6.970   5.187
 3786SOL    HW213256   3.055   6.947   5.134
 3787SOL     OW13257  12.297   1.874   9.567
 3787SOL    HW113258  12.357   1.854   9.639
 3787SOL    HW213259  12.350   1.867   9.488
 3788SOL     OW13260  11.682  10.354  13.789
 3788SOL    HW113261  11.728  10.279  13.827
 3788SOL    HW213262  11.595  10.351  13.828
 3789SOL     OW13263   9.719   1.125   4.811
 3789SOL    HW113264   9.674   1.119   4.895
 3789SOL    HW213265   9.653   1.160   4.750
 3790SOL     OW13266  10.911  13.831   2.311
 3790SOL    HW113267  11.004  13.812   2.324
 3790SOL    HW213268  10.866  13.766   2.365
 3791SOL     OW13269  13.543  14.380   7.256
 3791SOL    HW113270  13.623  14.371   7.306
 3791SOL    HW213271  13.567  14.354   7.167
 3792SOL     OW13272   9.922   7.815   1.553
 3792SOL    HW113273   9.959   7.881   1.495
 3792SOL    HW213274   9.972   7.823   1.634
 3793SOL     OW13275  11.486   1.268  14.413
 3793SOL    HW113276  11.445   1.321  14.345
 3793SOL    HW213277  11.440   1.292  14.494
 3794SOL     OW13278   4.582   1.242   4.278
 3794SOL    HW113279   4.633   1.287   4.211
 3794SOL    HW213280   4.567   1.154   4.243
 3795SOL     OW13281  11.326  11.633   7.402
 3795SOL    HW113282  11.368  11.694   7.463
 3795SOL    HW213283  11.251  11.599   7.450
 3796SOL     OW13284  11.977   9.013   4.749
 3796SOL    HW113285  12.058   9.062   4.766
 3796SOL    HW213286  11.986   8.983   4.659
 3797SOL     OW13287  12.641   2.713  14.026
 3797SOL    HW113288  12.593   2.737  14.105
 3797SOL    HW213289  12.629   2.618  14.019
 3798SOL     OW13290   7.096  13.269   3.159
 3798SOL    HW113291   7.018  13.313   3.125
 3798SOL    HW213292   7.108  13.193   3.100
 3799SOL     OW13293   6.969   3.033   3.975
 3799SOL    HW113294   6.915   2.961   3.942
 3799SOL    HW213295   6.911   3.083   4.033
 3800SOL     OW13296   4.806   4.265   2.403
 3800SOL    HW113297   4.859   4.344   2.394
 3800SOL    HW213298   4.761   4.255   2.319
 3801SOL     OW13299  10.965  12.060  12.939
 3801SOL    HW113300  10.881  12.076  12.983
 3801SOL    HW213301  10.953  12.093  12.850
 3802SOL     OW13302  11.697  10.886   0.712
 3802SOL    HW113303  11.714  10.928   0.796
 3802SOL    HW213304  11.608  10.913   0.689
 3803SOL     OW13305   6.117   9.052   0.071
 3803SOL    HW113306   6.162   9.137   0.071
 3803SOL    HW213307   6.173   8.996   0.124
 3804SOL     OW13308   6.483   2.743  12.670
 3804SOL    HW113309   6.463   2.808  12.603
 3804SOL    HW213310   6.534   2.677  12.623
 3805SOL     OW13311   8.911   9.183   4.856
 3805SOL    HW113312   8.894   9.145   4.942
 3805SOL    HW213313   8.832   9.165   4.805
 3806SOL     OW13314  10.509   3.903   2.847
 3806SOL    HW113315  10.422   3.921   2.882
 3806SOL    HW213316  10.503   3.928   2.755
 3807SOL     OW13317  14.715  13.706  12.342
 3807SOL    HW113318  14.662  13.636  12.379
 3807SOL    HW213319  14.714  13.775  12.408
 3808SOL     OW13320  12.059   8.312  13.279
 3808SOL    HW113321  12.071   8.405  13.297
 3808SOL    HW213322  12.147   8.275  13.285
 3809SOL     OW13323   6.136   7.688  12.790
 3809SOL    HW113324   6.106   7.666  12.702
 3809SOL    HW213325   6.104   7.777  12.805
 3810SOL     OW13326   9.830   2.808   4.027
 3810SOL    HW113327   9.917   2.829   3.991
 3810SOL    HW213328   9.797   2.891   4.060
 3811SOL     OW13329   2.943  10.439   1.129
 3811SOL    HW113330   3.031  10.476   1.128
 3811SOL    HW213331   2.909  10.456   1.041
 3812SOL     OW13332   0.612   9.896   4.453
 3812SOL    HW113333   0.642   9.957   4.385
 3812SOL    HW213334   0.679   9.828   4.454
 3813SOL     OW13335   9.916   6.227   0.149
 3813SOL    HW113336   9.864   6.190   0.078
 3813SOL    HW213337   9.883   6.185   0.228
 3814SOL     OW13338  11.637  11.171  11.276
 3814SOL    HW113339  11.632  11.219  11.358
 3814SOL    HW213340  11.727  11.183  11.247
 3815SOL     OW13341   0.497   6.374  13.308
 3815SOL    HW113342   0.530   6.456  13.271
 3815SOL    HW213343   0.567   6.311  13.294
 3816SOL     OW13344   6.104   4.548   5.818
 3816SOL    HW113345   6.162   4.485   5.774
 3816SOL    HW213346   6.159   4.586   5.887
 3817SOL     OW13347   8.041   5.869   1.071
 3817SOL    HW113348   8.068   5.841   1.158
 3817SOL    HW213349   8.103   5.937   1.047
 3818SOL     OW13350   6.128   8.524   1.745
 3818SOL    HW113351   6.116   8.494   1.655
 3818SOL    HW213352   6.071   8.468   1.797
 3819SOL     OW13353  10.669  10.904   2.642
 3819SOL    HW113354  10.683  10.819   2.685
 3819SOL    HW213355  10.583  10.933   2.673
 3820SOL     OW13356  12.984  13.406   3.891
 3820SOL    HW113357  12.917  13.459   3.934
 3820SOL    HW213358  13.064  13.422   3.941
 3821SOL     OW13359  12.369  11.068  12.286
 3821SOL    HW113360  12.444  11.120  12.314
 3821SOL    HW213361  12.339  11.025  12.366
 3822SOL     OW13362  12.736   1.863   1.665
 3822SOL    HW113363  12.794   1.937   1.685
 3822SOL    HW213364  12.711   1.877   1.574
 3823SOL     OW13365   7.638   6.861   8.064
 3823SOL    HW113366   7.724   6.869   8.105
 3823SOL    HW213367   7.578   6.839   8.135
 3824SOL     OW13368   3.368   9.481   3.445
 3824SOL    HW113369   3.425   9.454   3.373
 3824SOL    HW213370   3.412   9.556   3.484
 3825SOL     OW13371   6.302  12.492   9.707
 3825SOL    HW113372   6.249  12.496   9.628
 3825SOL    HW213373   6.239  12.484   9.778
 3826SOL     OW13374  14.091   1.033  13.973
 3826SOL    HW113375  14.022   0.981  13.932
 3826SOL    HW213376  14.138   1.072  13.899
 3827SOL     OW13377   7.404   1.112   2.544
 3827SOL    HW113378   7.417   1.140   2.635
 3827SOL    HW213379   7.313   1.135   2.526
 3828SOL     OW13380   0.780   5.351   3.548
 3828SOL    HW113381   0.719   5.326   3.618
 3828SOL    HW213382   0.737   5.425   3.504
 3829SOL     OW13383   8.443   4.569  10.402
 3829SOL    HW113384   8.405   4.575  10.490
 3829SOL    HW213385   8.423   4.480  10.373
 3830SOL     OW13386   2.501  10.880   2.895
 3830SOL    HW113387   2.457  10.921   2.821
 3830SOL    HW213388   2.459  10.918   2.972
 3831SOL     OW13389   4.173   3.701   1.044
 3831SOL    HW113390   4.211   3.634   0.988
 3831SOL    HW213391   4.247   3.755   1.072
 3832SOL     OW13392   0.718   0.037  14.288
 3832SOL    HW113393   0.680   0.106  14.233
 3832SOL    HW213394   0.802   0.073  14.316
 3833SOL     OW13395   0.131   6.780   8.561
 3833SOL    HW113396   0.133   6.812   8.471
 3833SOL    HW213397   0.144   6.858   8.615
 3834SOL     OW13398  11.904   3.008  13.355
 3834SOL    HW113399  11.893   2.919  13.389
 3834SOL    HW213400  11.817   3.047  13.363
 3835SOL     OW13401   7.839   3.342  14.582
 3835SOL    HW113402   7.783   3.388  14.645
 3835SOL    HW213403   7.819   3.382  14.498
 3836SOL     OW13404   7.761  11.027   4.792
 3836SOL    HW113405   7.677  11.000   4.827
 3836SOL    HW213406   7.774  11.116   4.827
 3837SOL     OW13407   4.156   6.378   0.595
 3837SOL    HW113408   4.068   6.413   0.607
 3837SOL    HW213409   4.161   6.303   0.654
 3838SOL     OW13410  14.558  11.024   4.861
 3838SOL    HW113411  14.624  11.035   4.793
 3838SOL    HW213412  14.596  11.068   4.938
 3839SOL     OW13413   0.157   1.319   0.250
 3839SOL    HW113414   0.157   1.391   0.314
 3839SOL    HW213415   0.099   1.349   0.180
 3840SOL     OW13416  14.073  11.157  12.193
 3840SOL    HW113417  14.070  11.222  12.123
 3840SOL    HW213418  14.046  11.205  12.271
 3841SOL     OW13419  13.719   9.605  12.173
 3841SOL    HW113420  13.668   9.637  12.247
 3841SOL    HW213421  13.793   9.559  12.212
 3842SOL     OW13422  11.846   3.555   9.129
 3842SOL    HW113423  11.941   3.554   9.113
 3842SOL    HW213424  11.819   3.644   9.108
 3843SOL     OW13425   1.137  11.359   5.044
 3843SOL    HW113426   1.047  11.372   5.074
 3843SOL    HW213427   1.189  11.418   5.099
 3844SOL     OW13428  11.677  14.362   8.703
 3844SOL    HW113429  11.764  14.324   8.696
 3844SOL    HW213430  11.684  14.447   8.659
 3845SOL     OW13431   9.454   3.723  10.500
 3845SOL    HW113432   9.367   3.693  10.472
 3845SOL    HW213433   9.475   3.668  10.576
 3846SOL     OW13434   3.159   8.810  13.504
 3846SOL    HW113435   3.191   8.736  13.555
 3846SOL    HW213436   3.238   8.855  13.474
 3847SOL     OW13437   6.655   7.020   0.689
 3847SOL    HW113438   6.744   7.031   0.723
 3847SOL    HW213439   6.616   6.955   0.747
 3848SOL     OW13440   2.555  11.345  13.556
 3848SOL    HW113441   2.492  11.413  13.532
 3848SOL    HW213442   2.520  11.307  13.636
 3849SOL     OW13443  13.733   9.202   7.182
 3849SOL    HW113444  13.683   9.240   7.254
 3849SOL    HW213445  13.671   9.200   7.109
 3850SOL     OW13446   7.626   8.474   9.597
 3850SOL    HW113447   7.697   8.453   9.537
 3850SOL    HW213448   7.627   8.570   9.603
 3851SOL     OW13449   8.235  13.918   0.080
 3851SOL    HW113450   8.206  14.007   0.062
 3851SOL    HW213451   8.227  13.873  14.876
 3852SOL     OW13452   7.290   2.737  11.018
 3852SOL    HW113453   7.385   2.735  11.023
 3852SOL    HW213454   7.265   2.651  10.985
 3853SOL     OW13455   6.080  12.501   6.071
 3853SOL    HW113456   6.145  12.457   6.127
 3853SOL    HW213457   6.132  12.551   6.009
 3854SOL     OW13458   5.491  14.533   5.556
 3854SOL    HW113459   5.536  14.561   5.636
 3854SOL    HW213460   5.535  14.452   5.530
 3855SOL     OW13461  12.846   8.235   8.971
 3855SOL    HW113462  12.930   8.187   8.973
 3855SOL    HW213463  12.784   8.172   8.933
 3856SOL     OW13464  11.971  12.624   3.619
 3856SOL    HW113465  11.919  12.664   3.689
 3856SOL    HW213466  12.047  12.588   3.664
 3857SOL     OW13467  10.004   2.293  11.922
 3857SOL    HW113468  10.038   2.208  11.949
 3857SOL    HW213469   9.926   2.306  11.977
 3858SOL     OW13470  13.828   5.404   3.221
 3858SOL    HW113471  13.870   5.475   3.270
 3858SOL    HW213472  13.853   5.324   3.268
 3859SOL     OW13473   0.254  14.602   9.483
 3859SOL    HW113474   0.348  14.587   9.479
 3859SOL    HW213475   0.245  14.691   9.519
 3860SOL     OW13476  10.870  12.633   0.375
 3860SOL    HW113477  10.942  12.618   0.314
 3860SOL    HW213478  10.837  12.720   0.353
 3861SOL     OW13479  11.068   2.845  10.870
 3861SOL    HW113480  11.084   2.777  10.935
 3861SOL    HW213481  10.984   2.821  10.830
 3862SOL     OW13482  11.295   5.536   2.961
 3862SOL    HW113483  11.268   5.489   3.040
 3862SOL    HW213484  11.387   5.558   2.976
 3863SOL     OW13485   9.874  10.418   2.568
 3863SOL    HW113486   9.839  10.475   2.499
 3863SOL    HW213487   9.876  10.474   2.646
 3864SOL     OW13488  12.003   1.503  14.584
 3864SOL    HW113489  12.037   1.525  14.671
 3864SOL    HW213490  11.945   1.576  14.562
 3865SOL     OW13491   1.432   5.955   3.465
 3865SOL    HW113492   1.364   5.901   3.425
 3865SOL    HW213493   1.388   6.038   3.484
 3866SOL     OW13494   4.428  14.088  13.759
 3866SOL    HW113495   4.465  14.055  13.677
 3866SOL    HW213496   4.483  14.050  13.827
 3867SOL     OW13497   2.634   4.652   9.334
 3867SOL    HW113498   2.621   4.587   9.403
 3867SOL    HW213499   2.719   4.691   9.354
 3868SOL     OW13500   7.163  11.560   7.869
 3868SOL    HW113501   7.197  11.492   7.811
 3868SOL    HW213502   7.161  11.639   7.814
 3869SOL     OW13503  12.383   3.235   8.259
 3869SOL    HW113504  12.294   3.218   8.229
 3869SOL    HW213505  12.434   3.247   8.178
 3870SOL     OW13506  12.949   6.058   4.447
 3870SOL    HW113507  12.915   5.968   4.443
 3870SOL    HW213508  13.009   6.063   4.372
 3871SOL     OW13509   2.395  13.029   8.334
 3871SOL    HW113510   2.361  13.033   8.245
 3871SOL    HW213511   2.317  13.024   8.389
 3872SOL     OW13512   0.072   1.995  10.614
 3872SOL    HW113513   0.152   1.996  10.562
 3872SOL    HW213514   0.066   1.906  10.648
 3873SOL     OW13515   9.718   1.649   1.235
 3873SOL    HW113516   9.691   1.740   1.250
 3873SOL    HW213517   9.806   1.656   1.198
 3874SOL     OW13518   6.509   5.932  13.062
 3874SOL    HW113519   6.562   5.905  12.988
 3874SOL    HW213520   6.500   5.853  13.116
 3875SOL     OW13521   3.379   0.322   3.944
 3875SOL    HW113522   3.394   0.237   3.986
 3875SOL    HW213523   3.319   0.368   4.004
 3876SOL     OW13524   1.417   9.121   2.656
 3876SOL    HW113525   1.375   9.187   2.712
 3876SOL    HW213526   1.478   9.171   2.602
 3877SOL     OW13527  13.382   1.247   4.229
 3877SOL    HW113528  13.360   1.323   4.283
 3877SOL    HW213529  13.300   1.199   4.220
 3878SOL     OW13530  13.404  13.827   3.670
 3878SOL    HW113531  13.407  13.757   3.735
 3878SOL    HW213532  13.436  13.904   3.716
 3879SOL     OW13533   9.182  11.383  12.974
 3879SOL    HW113534   9.129  11.340  12.907
 3879SOL    HW213535   9.224  11.456  12.928
 3880SOL     OW13536   0.841   3.154   3.498
 3880SOL    HW113537   0.882   3.194   3.421
 3880SOL    HW213538   0.788   3.224   3.537
 3881SOL     OW13539   2.852   5.765   8.010
 3881SOL    HW113540   2.905   5.749   8.088
 3881SOL    HW213541   2.904   5.826   7.957
 3882SOL     OW13542   0.251   1.409   0.558
 3882SOL    HW113543   0.232   1.319   0.587
 3882SOL    HW213544   0.289   1.451   0.635
 3883SOL     OW13545   3.281   0.170   9.540
 3883SOL    HW113546   3.220   0.155   9.612
 3883SOL    HW213547   3.231   0.149   9.461
 3884SOL     OW13548  14.352  10.561   4.693
 3884SOL    HW113549  14.406  10.492   4.653
 3884SOL    HW213550  14.308  10.518   4.766
 3885SOL     OW13551   6.688   7.165   9.814
 3885SOL    HW113552   6.741   7.216   9.754
 3885SOL    HW213553   6.608   7.216   9.825
 3886SOL     OW13554   1.228   8.696   9.842
 3886SOL    HW113555   1.136   8.678   9.821
 3886SOL    HW213556   1.267   8.725   9.760
 3887SOL     OW13557   3.585   6.290   4.746
 3887SOL    HW113558   3.631   6.222   4.797
 3887SOL    HW213559   3.498   6.294   4.786
 3888SOL     OW13560   0.849  14.353   0.822
 3888SOL    HW113561   0.864  14.423   0.884
 3888SOL    HW213562   0.922  14.359   0.760
 3889SOL     OW13563   3.803   2.385   2.392
 3889SOL    HW113564   3.713   2.397   2.362
 3889SOL    HW213565   3.816   2.290   2.390
 3890SOL     OW13566   7.525  14.067  14.780
 3890SOL    HW113567   7.506  14.076  14.687
 3890SOL    HW213568   7.440  14.077  14.823
 3891SOL     OW13569   5.795   3.790   5.249
 3891SOL    HW113570   5.712   3.741   5.253
 3891SOL    HW213571   5.768   3.881   5.235
 3892SOL     OW13572  12.386  12.218  14.168
 3892SOL    HW113573  12.349  12.183  14.086
 3892SOL    HW213574  12.448  12.286  14.139
 3893SOL     OW13575   8.079   0.025   7.904
 3893SOL    HW113576   8.082   0.120   7.907
 3893SOL    HW213577   8.119   0.002   7.819
 3894SOL     OW13578   4.308   4.823   6.702
 3894SOL    HW113579   4.269   4.736   6.707
 3894SOL    HW213580   4.233   4.882   6.693
 3895SOL     OW13581   5.483   4.659  12.285
 3895SOL    HW113582   5.498   4.660  12.380
 3895SOL    HW213583   5.402   4.709  12.273
 3896SOL     OW13584   7.042  11.975   2.160
 3896SOL    HW113585   6.946  11.980   2.154
 3896SOL    HW213586   7.058  11.904   2.222
 3897SOL     OW13587   0.522   8.669   5.696
 3897SOL    HW113588   0.487   8.633   5.777
 3897SOL    HW213589   0.570   8.597   5.656
 3898SOL     OW13590   7.855   2.361   8.783
 3898SOL    HW113591   7.909   2.282   8.781
 3898SOL    HW213592   7.915   2.430   8.812
 3899SOL     OW13593   5.182   8.620   4.264
 3899SOL    HW113594   5.274   8.646   4.268
 3899SOL    HW213595   5.166   8.573   4.346
 3900SOL     OW13596  14.537   6.117   1.147
 3900SOL    HW113597  14.599   6.071   1.204
 3900SOL    HW213598  14.588   6.135   1.067
 3901SOL     OW13599  12.142   2.019   5.069
 3901SOL    HW113600  12.103   1.966   5.000
 3901SOL    HW213601  12.235   2.026   5.045
 3902SOL     OW13602  10.018   3.285   6.165
 3902SOL    HW113603  10.042   3.225   6.235
 3902SOL    HW213604   9.998   3.367   6.210
 3903SOL     OW13605   5.368  14.333   4.545
 3903SOL    HW113606   5.446  14.382   4.570
 3903SOL    HW213607   5.401  14.256   4.498
 3904SOL     OW13608  14.766   8.892   8.790
 3904SOL    HW113609  14.783   8.890   8.696
 3904SOL    HW213610  14.708   8.818   8.806
 3905SOL     OW13611   6.048  14.089   7.500
 3905SOL    HW113612   6.136  14.080   7.536
 3905SOL    HW213613   6.049  14.039   7.419
 3906SOL     OW13614   1.295   5.143   5.517
 3906SOL    HW113615   1.352   5.217   5.497
 3906SOL    HW213616   1.207   5.177   5.506
 3907SOL     OW13617   0.994  14.387   1.170
 3907SOL    HW113618   1.031  14.312   1.123
 3907SOL    HW213619   0.990  14.457   1.104
 3908SOL     OW13620   5.971   3.325   1.364
 3908SOL    HW113621   6.004   3.245   1.405
 3908SOL    HW213622   6.042   3.388   1.374
 3909SOL     OW13623  10.345   2.717  13.527
 3909SOL    HW113624  10.260   2.746  13.562
 3909SOL    HW213625  10.340   2.736  13.434
 3910SOL     OW13626   3.837   9.337  14.811
 3910SOL    HW113627   3.909   9.359  14.871
 3910SOL    HW213628   3.772   9.405  14.826
 3911SOL     OW13629   5.377   6.574  14.377
 3911SOL    HW113630   5.458   6.605  14.419
 3911SOL    HW213631   5.372   6.481  14.401
 3912SOL     OW13632  14.419   3.146   3.126
 3912SOL    HW113633  14.375   3.063   3.147
 3912SOL    HW213634  14.371   3.181   3.051
 3913SOL     OW13635   2.111   8.464  13.384
 3913SOL    HW113636   2.156   8.483  13.302
 3913SOL    HW213637   2.018   8.465  13.361
 3914SOL     OW13638   1.896   6.474   0.057
 3914SOL    HW113639   1.868   6.535  14.869
 3914SOL    HW213640   1.990   6.490   0.067
 3915SOL     OW13641   0.076   4.778  11.512
 3915SOL    HW113642   0.044   4.730  11.588
 3915SOL    HW213643   0.141   4.839  11.548
 3916SOL     OW13644   0.631  11.929  14.104
 3916SOL    HW113645   0.617  12.011  14.056
 3916SOL    HW213646   0.726  11.918  14.104
 3917SOL     OW13647   1.790   6.547   6.049
 3917SOL    HW113648   1.747   6.469   6.014
 3917SOL    HW213649   1.843   6.514   6.122
 3918SOL     OW13650  10.402   7.810   3.666
 3918SOL    HW113651  10.360   7.760   3.735
 3918SOL    HW213652  10.468   7.863   3.712
 3919SOL     OW13653   6.334  13.672  12.163
 3919SOL    HW113654   6.387  13.749  12.187
 3919SOL    HW213655   6.249  13.689  12.202
 3920SOL     OW13656  13.411   3.563   1.253
 3920SOL    HW113657  13.502   3.584   1.274
 3920SOL    HW213658  13.384   3.632   1.192
 3921SOL     OW13659  13.991   9.551  14.007
 3921SOL    HW113660  14.025   9.558  13.918
 3921SOL    HW213661  13.943   9.468  14.008
 3922SOL     OW13662   2.200  13.088   2.913
 3922SOL    HW113663   2.189  13.111   3.005
 3922SOL    HW213664   2.228  13.170   2.871
 3923SOL     OW13665  14.692   5.269  11.800
 3923SOL    HW113666  14.767   5.210  11.815
 3923SOL    HW213667  14.732   5.352  11.774
 3924SOL     OW13668  11.926   0.691   7.291
 3924SOL    HW113669  11.934   0.729   7.204
 3924SOL    HW213670  12.013   0.699   7.330
 3925SOL     OW13671  14.451  14.080   9.825
 3925SOL    HW113672  14.475  14.155   9.880
 3925SOL    HW213673  14.358  14.066   9.842
 3926SOL     OW13674  10.152  10.574   9.733
 3926SOL    HW113675  10.171  10.665   9.757
 3926SOL    HW213676  10.238  10.536   9.715
 3927SOL     OW13677   2.778   1.774   0.005
 3927SOL    HW113678   2.708   1.830   0.037
 3927SOL    HW213679   2.789   1.800  14.794
 3928SOL     OW13680  14.347  12.365   4.863
 3928SOL    HW113681  14.348  12.279   4.904
 3928SOL    HW213682  14.315  12.424   4.932
 3929SOL     OW13683  14.109  10.667  14.029
 3929SOL    HW113684  14.163  10.746  14.017
 3929SOL    HW213685  14.100  10.631  13.941
 3930SOL     OW13686  12.300   7.696   0.742
 3930SOL    HW113687  12.247   7.630   0.785
 3930SOL    HW213688  12.390   7.675   0.767
 3931SOL     OW13689  12.166  11.362  10.441
 3931SOL    HW113690  12.137  11.273  10.417
 3931SOL    HW213691  12.249  11.374  10.396
 3932SOL     OW13692   5.541  13.387   1.649
 3932SOL    HW113693   5.586  13.343   1.577
 3932SOL    HW213694   5.610  13.409   1.712
 3933SOL     OW13695   4.592   5.513  13.519
 3933SOL    HW113696   4.516   5.538  13.467
 3933SOL    HW213697   4.586   5.566  13.598
 3934SOL     OW13698   0.574   0.314  11.651
 3934SOL    HW113699   0.661   0.301  11.689
 3934SOL    HW213700   0.524   0.238  11.679
 3935SOL     OW13701   3.738   5.640  12.822
 3935SOL    HW113702   3.776   5.594  12.896
 3935SOL    HW213703   3.732   5.574  12.753
 3936SOL     OW13704  12.142   2.226  12.413
 3936SOL    HW113705  12.149   2.135  12.383
 3936SOL    HW213706  12.228   2.247  12.447
 3937SOL     OW13707   1.965   3.249   4.456
 3937SOL    HW113708   1.883   3.206   4.480
 3937SOL    HW213709   1.987   3.303   4.532
 3938SOL     OW13710  13.685   9.173   6.503
 3938SOL    HW113711  13.615   9.182   6.569
 3938SOL    HW213712  13.660   9.094   6.454
 3939SOL     OW13713   8.151   3.369   4.619
 3939SOL    HW113714   8.145   3.347   4.712
 3939SOL    HW213715   8.064   3.404   4.597
 3940SOL     OW13716   3.626   6.655   7.012
 3940SOL    HW113717   3.722   6.650   7.005
 3940SOL    HW213718   3.602   6.728   6.955
 3941SOL     OW13719   1.710   2.620   9.974
 3941SOL    HW113720   1.650   2.553  10.008
 3941SOL    HW213721   1.702   2.613   9.879
 3942SOL     OW13722   2.189  13.079   7.366
 3942SOL    HW113723   2.160  13.015   7.432
 3942SOL    HW213724   2.152  13.046   7.284
 3943SOL     OW13725   9.875  10.726   8.459
 3943SOL    HW113726   9.782  10.748   8.461
 3943SOL    HW213727   9.915  10.798   8.410
 3944SOL     OW13728   8.839   7.818   1.567
 3944SOL    HW113729   8.906   7.857   1.624
 3944SOL    HW213730   8.767   7.880   1.568
 3945SOL     OW13731  11.722  14.790  13.217
 3945SOL    HW113732  11.715  14.849  13.292
 3945SOL    HW213733  11.746  14.706  13.255
 3946SOL     OW13734   6.413   6.722  14.819
 3946SOL    HW113735   6.484   6.785  14.831
 3946SOL    HW213736   6.408   6.708  14.725
 3947SOL     OW13737  10.956   2.577   9.528
 3947SOL    HW113738  10.943   2.640   9.598
 3947SOL    HW213739  10.875   2.580   9.477
 3948SOL     OW13740  12.415   9.529   5.292
 3948SOL    HW113741  12.347   9.564   5.350
 3948SOL    HW213742  12.491   9.585   5.309
 3949SOL     OW13743   6.031   3.295   3.261
 3949SOL    HW113744   6.037   3.388   3.236
 3949SOL    HW213745   6.084   3.289   3.341
 3950SOL     OW13746   0.329  14.182  14.212
 3950SOL    HW113747   0.418  14.164  14.240
 3950SOL    HW213748   0.336  14.262  14.160
 3951SOL     OW13749   8.387   6.100   0.666
 3951SOL    HW113750   8.383   6.062   0.754
 3951SOL    HW213751   8.471   6.146   0.664
 3952SOL     OW13752  14.396   6.585  11.582
 3952SOL    HW113753  14.308   6.619  11.561
 3952SOL    HW213754  14.430   6.555  11.498
 3953SOL     OW13755   7.713  10.736   5.696
 3953SOL    HW113756   7.619  10.746   5.679
 3953SOL    HW213757   7.755  10.770   5.617
 3954SOL     OW13758  13.258   6.960  10.100
 3954SOL    HW113759  13.177   7.001  10.134
 3954SOL    HW213760  13.312   7.034  10.073
 3955SOL     OW13761   9.614  11.337   7.264
 3955SOL    HW113762   9.652  11.375   7.185
 3955SOL    HW213763   9.524  11.369   7.265
 3956SOL     OW13764  10.958   3.000   7.216
 3956SOL    HW113765  10.940   2.932   7.151
 3956SOL    HW213766  10.920   2.967   7.297
 3957SOL     OW13767  12.809  10.733   8.661
 3957SOL    HW113768  12.716  10.753   8.647
 3957SOL    HW213769  12.851  10.818   8.669
 3958SOL     OW13770   9.285  10.073  12.580
 3958SOL    HW113771   9.344  10.145  12.603
 3958SOL    HW213772   9.212  10.081  12.642
 3959SOL     OW13773   0.496   6.509   7.126
 3959SOL    HW113774   0.547   6.436   7.092
 3959SOL    HW213775   0.412   6.503   7.081
 3960SOL     OW13776  11.777   3.473   9.864
 3960SOL    HW113777  11.764   3.393   9.814
 3960SOL    HW213778  11.865   3.502   9.841
 3961SOL     OW13779  14.149   3.918   6.074
 3961SOL    HW113780  14.178   3.830   6.099
 3961SOL    HW213781  14.067   3.930   6.121
 3962SOL     OW13782  13.181   3.264   3.620
 3962SOL    HW113783  13.177   3.232   3.530
 3962SOL    HW213784  13.249   3.332   3.618
 3963SOL     OW13785   6.971   5.230   0.585
 3963SOL    HW113786   7.045   5.277   0.547
 3963SOL    HW213787   6.965   5.149   0.534
 3964SOL     OW13788  10.269  12.404   6.797
 3964SOL    HW113789  10.258  12.414   6.892
 3964SOL    HW213790  10.261  12.310   6.781
 3965SOL     OW13791   1.919  12.069   3.491
 3965SOL    HW113792   1.884  12.072   3.402
 3965SOL    HW213793   2.003  12.024   3.482
 3966SOL     OW13794  11.087   3.235  10.095
 3966SOL    HW113795  11.105   3.264  10.185
 3966SOL    HW213796  11.147   3.286  10.041
 3967SOL     OW13797  10.194  10.125  14.549
 3967SOL    HW113798  10.131  10.143  14.479
 3967SOL    HW213799  10.236  10.210  14.565
 3968SOL     OW13800   3.820  13.897  13.402
 3968SOL    HW113801   3.744  13.950  13.377
 3968SOL    HW213802   3.786  13.807  13.406
 3969SOL     OW13803   7.970  14.083   4.122
 3969SOL    HW113804   7.903  14.149   4.104
 3969SOL    HW213805   7.927  14.000   4.103
 3970SOL     OW13806   1.987  11.564  14.625
 3970SOL    HW113807   2.029  11.636  14.577
 3970SOL    HW213808   1.947  11.607  14.701
 3971SOL     OW13809  10.776   6.634   4.597
 3971SOL    HW113810  10.777   6.728   4.616
 3971SOL    HW213811  10.683   6.611   4.597
 3972SOL     OW13812   8.702  11.894   6.458
 3972SOL    HW113813   8.713  11.811   6.413
 3972SOL    HW213814   8.677  11.871   6.547
 3973SOL     OW13815   1.321   5.329  13.944
 3973SOL    HW113816   1.305   5.392  14.014
 3973SOL    HW213817   1.416   5.327  13.935
 3974SOL     OW13818   8.137   5.513   0.606
 3974SOL    HW113819   8.059   5.466   0.637
 3974SOL    HW213820   8.157   5.574   0.677
 3975SOL     OW13821   1.833   0.007  13.574
 3975SOL    HW113822   1.739  14.870  13.580
 3975SOL    HW213823   1.839   0.091  13.528
 3976SOL     OW13824   0.447  10.837   4.086
 3976SOL    HW113825   0.383  10.869   4.022
 3976SOL    HW213826   0.531  10.841   4.040
 3977SOL     OW13827   5.088   5.064   9.634
 3977SOL    HW113828   5.056   5.155   9.635
 3977SOL    HW213829   5.085   5.038   9.542
 3978SOL     OW13830   2.811  12.063   1.641
 3978SOL    HW113831   2.747  12.008   1.596
 3978SOL    HW213832   2.778  12.152   1.632
 3979SOL     OW13833   1.727   1.454  14.149
 3979SOL    HW113834   1.679   1.536  14.141
 3979SOL    HW213835   1.814   1.474  14.115
 3980SOL     OW13836   8.884  13.237   3.321
 3980SOL    HW113837   8.905  13.151   3.357
 3980SOL    HW213838   8.881  13.295   3.398
 3981SOL     OW13839   6.674   8.935   2.780
 3981SOL    HW113840   6.671   8.926   2.684
 3981SOL    HW213841   6.693   9.027   2.795
 3982SOL     OW13842   7.222  12.131  14.572
 3982SOL    HW113843   7.140  12.163  14.536
 3982SOL    HW213844   7.281  12.207  14.571
 3983SOL     OW13845  14.038   7.154  13.061
 3983SOL    HW113846  13.953   7.198  13.062
 3983SOL    HW213847  14.026   7.080  13.000
 3984SOL     OW13848   3.679  13.727   7.338
 3984SOL    HW113849   3.674  13.692   7.249
 3984SOL    HW213850   3.616  13.674   7.388
 3985SOL     OW13851   7.424   2.498  12.759
 3985SOL    HW113852   7.365   2.569  12.735
 3985SOL    HW213853   7.372   2.441  12.816
 3986SOL     OW13854   3.099  12.098   4.198
 3986SOL    HW113855   3.150  12.017   4.196
 3986SOL    HW213856   3.072  12.107   4.289
 3987SOL     OW13857  10.735   0.869   5.178
 3987SOL    HW113858  10.807   0.870   5.240
 3987SOL    HW213859  10.743   0.951   5.130
 3988SOL     OW13860   7.069  12.942   1.340
 3988SOL    HW113861   7.075  12.847   1.336
 3988SOL    HW213862   7.133  12.973   1.276
 3989SOL     OW13863   1.409  13.352  11.976
 3989SOL    HW113864   1.339  13.318  12.032
 3989SOL    HW213865   1.389  13.317  11.889
 3990SOL     OW13866  10.234   8.950  12.545
 3990SOL    HW113867  10.207   9.041  12.549
 3990SOL    HW213868  10.183   8.907  12.614
 3991SOL     OW13869   8.917  10.635  11.447
 3991SOL    HW113870   8.866  10.642  11.528
 3991SOL    HW213871   8.906  10.544  11.420
 3992SOL     OW13872   7.647   4.071   0.081
 3992SOL    HW113873   7.597   3.990   0.080
 3992SOL    HW213874   7.586   4.136   0.118
 3993SOL     OW13875   4.948  10.030   2.627
 3993SOL    HW113876   5.041  10.016   2.647
 3993SOL    HW213877   4.938   9.999   2.537
 3994SOL     OW13878  12.369   2.779   6.350
 3994SOL    HW113879  12.359   2.688   6.375
 3994SOL    HW213880  12.400   2.823   6.429
 3995SOL     OW13881  14.339   1.815  12.008
 3995SOL    HW113882  14.329   1.908  11.986
 3995SOL    HW213883  14.410   1.785  11.951
 3996SOL     OW13884  12.977   1.475   8.433
 3996SOL    HW113885  13.008   1.424   8.358
 3996SOL    HW213886  12.881   1.473   8.425
 3997SOL     OW13887   7.916   4.803   9.525
 3997SOL    HW113888   7.973   4.830   9.452
 3997SOL    HW213889   7.889   4.714   9.502
 3998SOL     OW13890   8.384   4.292  12.661
 3998SOL    HW113891   8.432   4.336  12.731
 3998SOL    HW213892   8.380   4.200  12.689
 3999SOL     OW13893   1.368  11.993   1.676
 3999SOL    HW113894   1.381  11.955   1.763
 3999SOL    HW213895   1.273  12.004   1.669
 4000SOL     OW13896  14.273   3.707   7.656
 4000SOL    HW113897  14.257   3.796   7.686
 4000SOL    HW213898  14.360   3.686   7.690
 4001SOL     OW13899  11.790  12.478   3.862
 4001SOL    HW113900  11.694  12.481   3.860
 4001SOL    HW213901  11.817  12.569   3.851
 4002SOL     OW13902   7.082   1.086  13.906
 4002SOL    HW113903   7.006   1.038  13.939
 4002SOL    HW213904   7.094   1.158  13.969
 4003SOL     OW13905   5.515   9.496  10.943
 4003SOL    HW113906   5.451   9.463  11.007
 4003SOL    HW213907   5.599   9.487  10.988
 4004SOL     OW13908  14.033   2.420  10.503
 4004SOL    HW113909  14.054   2.328  10.484
 4004SOL    HW213910  14.061   2.467  10.425
 4005SOL     OW13911   8.253   3.035   7.542
 4005SOL    HW113912   8.275   3.127   7.528
 4005SOL    HW213913   8.315   2.987   7.487
 4006SOL     OW13914   2.317   0.158   2.692
 4006SOL    HW113915   2.303   0.210   2.771
 4006SOL    HW213916   2.287   0.070   2.715
 4007SOL     OW13917  13.810   6.097  11.688
 4007SOL    HW113918  13.850   6.177  11.653
 4007SOL    HW213919  13.726   6.126  11.723
 4008SOL     OW13920   3.745   2.195   3.973
 4008SOL    HW113921   3.684   2.152   3.913
 4008SOL    HW213922   3.783   2.266   3.922
 4009SOL     OW13923  14.115  13.123   2.484
 4009SOL    HW113924  14.146  13.207   2.448
 4009SOL    HW213925  14.185  13.096   2.544
 4010SOL     OW13926  14.334   7.400   4.433
 4010SOL    HW113927  14.250   7.360   4.456
 4010SOL    HW213928  14.340   7.390   4.338
 4011SOL     OW13929  10.221   9.260   8.391
 4011SOL    HW113930  10.235   9.349   8.361
 4011SOL    HW213931  10.197   9.211   8.312
 4012SOL     OW13932   3.588   7.156  13.630
 4012SOL    HW113933   3.624   7.227  13.683
 4012SOL    HW213934   3.543   7.099  13.693
 4013SOL     OW13935   3.108  10.640   9.209
 4013SOL    HW113936   3.108  10.591   9.292
 4013SOL    HW213937   3.019  10.628   9.175
 4014SOL     OW13938   5.178  10.233   9.966
 4014SOL    HW113939   5.205  10.190  10.047
 4014SOL    HW213940   5.103  10.182   9.935
 4015SOL     OW13941   7.543  13.341  14.568
 4015SOL    HW113942   7.631  13.368  14.543
 4015SOL    HW213943   7.546  13.339  14.664
 4016SOL     OW13944   2.440   6.981   5.193
 4016SOL    HW113945   2.472   6.950   5.108
 4016SOL    HW213946   2.488   7.062   5.209
 4017SOL     OW13947   2.138   1.647   9.972
 4017SOL    HW113948   2.172   1.575   9.919
 4017SOL    HW213949   2.079   1.605  10.034
 4018SOL     OW13950   0.618  14.791   9.702
 4018SOL    HW113951   0.569  14.851   9.646
 4018SOL    HW213952   0.702  14.835   9.717
 4019SOL     OW13953   5.825   5.068   2.530
 4019SOL    HW113954   5.861   5.015   2.602
 4019SOL    HW213955   5.748   5.110   2.568
 4020SOL     OW13956   6.086   3.048   8.066
 4020SOL    HW113957   6.112   3.138   8.046
 4020SOL    HW213958   6.165   3.006   8.100
 4021SOL     OW13959   0.017   5.739   7.603
 4021SOL    HW113960  14.821   5.773   7.557
 4021SOL    HW213961   0.092   5.773   7.554
 4022SOL     OW13962  12.739  10.696   5.328
 4022SOL    HW113963  12.773  10.724   5.413
 4022SOL    HW213964  12.715  10.778   5.284
 4023SOL     OW13965   9.710   3.428   0.782
 4023SOL    HW113966   9.697   3.338   0.810
 4023SOL    HW213967   9.775   3.463   0.844
 4024SOL     OW13968   4.706  14.719   6.629
 4024SOL    HW113969   4.654  14.642   6.607
 4024SOL    HW213970   4.641  14.785   6.655
 4025SOL     OW13971  13.108  13.535  13.644
 4025SOL    HW113972  13.058  13.455  13.623
 4025SOL    HW213973  13.103  13.541  13.740
 4026SOL     OW13974   7.613  11.612  12.266
 4026SOL    HW113975   7.592  11.685  12.325
 4026SOL    HW213976   7.529  11.590  12.225
 4027SOL     OW13977   7.974  12.298  10.253
 4027SOL    HW113978   8.069  12.291  10.259
 4027SOL    HW213979   7.959  12.373  10.195
 4028SOL     OW13980   7.485   9.733  12.966
 4028SOL    HW113981   7.493   9.640  12.987
 4028SOL    HW213982   7.391   9.752  12.973
 4029SOL     OW13983   3.480  13.629  10.583
 4029SOL    HW113984   3.559  13.586  10.617
 4029SOL    HW213985   3.442  13.673  10.659
 4030SOL     OW13986   0.643   1.379  14.112
 4030SOL    HW113987   0.660   1.378  14.206
 4030SOL    HW213988   0.582   1.452  14.099
 4031SOL     OW13989   8.456  13.967  10.681
 4031SOL    HW113990   8.523  13.960  10.613
 4031SOL    HW213991   8.406  14.045  10.657
 4032SOL     OW13992  11.473   4.846   3.392
 4032SOL    HW113993  11.536   4.880   3.328
 4032SOL    HW213994  11.439   4.766   3.352
 4033SOL     OW13995   5.519   2.146   5.660
 4033SOL    HW113996   5.495   2.207   5.589
 4033SOL    HW213997   5.613   2.133   5.650
 4034SOL     OW13998  10.534   1.682  10.933
 4034SOL    HW113999  10.454   1.653  10.890
 4034SOL    HW214000  10.529   1.645  11.021
 4035SOL     OW14001  14.203   5.416   9.523
 4035SOL    HW114002  14.155   5.430   9.605
 4035SOL    HW214003  14.248   5.332   9.535
 4036SOL     OW14004   9.886   3.313   0.056
 4036SOL    HW114005   9.864   3.314  14.843
 4036SOL    HW214006   9.841   3.390   0.092
 4037SOL     OW14007   3.161  11.464   1.587
 4037SOL    HW114008   3.201  11.406   1.522
 4037SOL    HW214009   3.234  11.490   1.643
 4038SOL     OW14010   6.965   6.489  13.164
 4038SOL    HW114011   6.876   6.461  13.144
 4038SOL    HW214012   6.961   6.584  13.163
 4039SOL     OW14013   0.732   6.899  12.215
 4039SOL    HW114014   0.735   6.976  12.271
 4039SOL    HW214015   0.705   6.828  12.274
 4040SOL     OW14016   9.937   4.480   0.712
 4040SOL    HW114017   9.857   4.486   0.660
 4040SOL    HW214018  10.007   4.507   0.651
 4041SOL     OW14019   0.338   0.050  14.657
 4041SOL    HW114020   0.389   0.055  14.576
 4041SOL    HW214021   0.388   0.101  14.720
 4042SOL     OW14022  10.512   6.312  13.353
 4042SOL    HW114023  10.428   6.348  13.380
 4042SOL    HW214024  10.513   6.224  13.390
 4043SOL     OW14025   0.798  13.503  11.974
 4043SOL    HW114026   0.776  13.420  12.016
 4043SOL    HW214027   0.868  13.481  11.912
 4044SOL     OW14028  10.162   1.179   8.686
 4044SOL    HW114029  10.191   1.092   8.716
 4044SOL    HW214030  10.212   1.194   8.606
 4045SOL     OW14031   2.156   7.772   5.050
 4045SOL    HW114032   2.118   7.857   5.068
 4045SOL    HW214033   2.095   7.730   4.989
 4046SOL     OW14034   5.729  10.298  13.099
 4046SOL    HW114035   5.802  10.237  13.107
 4046SOL    HW214036   5.651  10.243  13.095
 4047SOL     OW14037   7.686  14.735   5.446
 4047SOL    HW114038   7.731  14.787   5.512
 4047SOL    HW214039   7.593  14.747   5.466
 4048SOL     OW14040   5.793  12.634   5.403
 4048SOL    HW114041   5.808  12.708   5.344
 4048SOL    HW214042   5.842  12.562   5.364
 4049SOL     OW14043   9.607   9.236   4.511
 4049SOL    HW114044   9.672   9.227   4.441
 4049SOL    HW214045   9.625   9.164   4.570
 4050SOL     OW14046  12.012   5.459   5.317
 4050SOL    HW114047  12.078   5.526   5.303
 4050SOL    HW214048  12.055   5.393   5.371
 4051SOL     OW14049   9.956   0.938  14.020
 4051SOL    HW114050   9.948   1.016  13.964
 4051SOL    HW214051   9.895   0.875  13.982
 4052SOL     OW14052   5.163   2.603   1.165
 4052SOL    HW114053   5.232   2.632   1.106
 4052SOL    HW214054   5.167   2.666   1.238
 4053SOL     OW14055  10.639   3.592   8.514
 4053SOL    HW114056  10.720   3.633   8.545
 4053SOL    HW214057  10.625   3.631   8.428
 4054SOL     OW14058   4.635  12.426   5.799
 4054SOL    HW114059   4.633  12.521   5.807
 4054SOL    HW214060   4.717  12.407   5.754
 4055SOL     OW14061  14.188  12.104   0.031
 4055SOL    HW114062  14.242  12.174  14.874
 4055SOL    HW214063  14.173  12.045  14.838
 4056SOL     OW14064   0.775   5.921   4.383
 4056SOL    HW114065   0.790   5.979   4.308
 4056SOL    HW214066   0.690   5.882   4.366
 4057SOL     OW14067  10.034   0.008   8.748
 4057SOL    HW114068   9.970  14.865   8.680
 4057SOL    HW214069  10.092  14.812   8.753
 4058SOL     OW14070   3.891  11.864  10.303
 4058SOL    HW114071   3.806  11.828  10.330
 4058SOL    HW214072   3.939  11.788  10.270
 4059SOL     OW14073  12.392   1.518  12.000
 4059SOL    HW114074  12.483   1.528  12.029
 4059SOL    HW214075  12.377   1.423  12.002
 4060SOL     OW14076   4.210   6.072   0.143
 4060SOL    HW114077   4.117   6.054   0.154
 4060SOL    HW214078   4.222   6.159   0.180
 4061SOL     OW14079  14.316   0.104   1.739
 4061SOL    HW114080  14.230   0.091   1.697
 4061SOL    HW214081  14.354   0.179   1.693
 4062SOL     OW14082   7.466   1.501  12.837
 4062SOL    HW114083   7.519   1.581  12.838
 4062SOL    HW214084   7.496   1.454  12.759
 4063SOL     OW14085   1.994   8.309   7.121
 4063SOL    HW114086   1.974   8.350   7.037
 4063SOL    HW214087   2.088   8.322   7.133
 4064SOL     OW14088   2.324  12.987   2.687
 4064SOL    HW114089   2.273  13.020   2.760
 4064SOL    HW214090   2.260  12.945   2.630
 4065SOL     OW14091   3.528   1.079  13.717
 4065SOL    HW114092   3.482   1.139  13.775
 4065SOL    HW214093   3.504   1.109  13.629
 4066SOL     OW14094   3.581   1.156   6.173
 4066SOL    HW114095   3.594   1.084   6.235
 4066SOL    HW214096   3.668   1.174   6.139
 4067SOL     OW14097   2.645   2.495   7.664
 4067SOL    HW114098   2.623   2.481   7.571
 4067SOL    HW214099   2.607   2.419   7.709
 4068SOL     OW14100  10.636   6.762  13.860
 4068SOL    HW114101  10.664   6.853  13.851
 4068SOL    HW214102  10.552   6.767  13.905
 4069SOL     OW14103   1.461   3.662  14.471
 4069SOL    HW114104   1.469   3.606  14.547
 4069SOL    HW214105   1.369   3.688  14.469
 4070SOL     OW14106   8.527   3.267   0.337
 4070SOL    HW114107   8.469   3.326   0.289
 4070SOL    HW214108   8.507   3.282   0.429
 4071SOL     OW14109   3.899   9.590  13.404
 4071SOL    HW114110   3.984   9.626  13.429
 4071SOL    HW214111   3.908   9.568  13.312
 4072SOL     OW14112  10.956  12.392   9.382
 4072SOL    HW114113  10.995  12.405   9.295
 4072SOL    HW214114  10.972  12.299   9.402
 4073SOL     OW14115   6.035  11.688   3.160
 4073SOL    HW114116   5.982  11.766   3.174
 4073SOL    HW214117   5.984  11.634   3.100
 4074SOL     OW14118   0.051   6.236  13.114
 4074SOL    HW114119   0.049   6.141  13.126
 4074SOL    HW214120   0.120   6.266  13.173
 4075SOL     OW14121  11.416   6.261   4.093
 4075SOL    HW114122  11.399   6.288   4.003
 4075SOL    HW214123  11.483   6.194   4.086
 4076SOL     OW14124   1.340   9.883   7.404
 4076SOL    HW114125   1.365   9.818   7.338
 4076SOL    HW214126   1.399   9.956   7.390
 4077SOL     OW14127   4.444   0.680   9.911
 4077SOL    HW114128   4.464   0.699  10.003
 4077SOL    HW214129   4.396   0.597   9.913
 4078SOL     OW14130   6.224  12.475   8.411
 4078SOL    HW114131   6.219  12.476   8.315
 4078SOL    HW214132   6.179  12.556   8.437
 4079SOL     OW14133   7.511   3.142  14.658
 4079SOL    HW114134   7.503   3.068  14.718
 4079SOL    HW214135   7.503   3.219  14.715
 4080SOL     OW14136   0.873   4.471   9.207
 4080SOL    HW114137   0.948   4.530   9.200
 4080SOL    HW214138   0.912   4.384   9.220
 4081SOL     OW14139  11.090   2.166  12.481
 4081SOL    HW114140  11.089   2.181  12.387
 4081SOL    HW214141  11.065   2.075  12.492
 4082SOL     OW14142   3.394  13.843   2.560
 4082SOL    HW114143   3.302  13.840   2.532
 4082SOL    HW214144   3.432  13.761   2.527
 4083SOL     OW14145   3.828   3.025  11.587
 4083SOL    HW114146   3.902   3.069  11.629
 4083SOL    HW214147   3.815   2.945  11.638
 4084SOL     OW14148   9.075   9.263  10.598
 4084SOL    HW114149   9.027   9.213  10.664
 4084SOL    HW214150   9.140   9.201  10.564
 4085SOL     OW14151  10.351  11.704   4.552
 4085SOL    HW114152  10.340  11.789   4.595
 4085SOL    HW214153  10.283  11.649   4.590
 4086SOL     OW14154   8.258   9.475   5.445
 4086SOL    HW114155   8.208   9.517   5.375
 4086SOL    HW214156   8.229   9.519   5.525
 4087SOL     OW14157  13.481  12.296   8.754
 4087SOL    HW114158  13.567  12.322   8.723
 4087SOL    HW214159  13.420  12.350   8.703
 4088SOL     OW14160  10.239  14.082   4.726
 4088SOL    HW114161  10.272  14.072   4.637
 4088SOL    HW214162  10.222  13.992   4.755
 4089SOL     OW14163   6.960   9.832   9.556
 4089SOL    HW114164   7.043   9.861   9.517
 4089SOL    HW214165   6.903   9.815   9.482
 4090SOL     OW14166   0.929   4.003  10.685
 4090SOL    HW114167   0.945   4.090  10.647
 4090SOL    HW214168   0.941   4.016  10.779
 4091SOL     OW14169  12.282  10.107   0.660
 4091SOL    HW114170  12.343  10.174   0.692
 4091SOL    HW214171  12.288  10.037   0.725
 4092SOL     OW14172   7.590  13.032   1.426
 4092SOL    HW114173   7.511  12.991   1.462
 4092SOL    HW214174   7.617  13.094   1.493
 4093SOL     OW14175   6.483  13.766  12.921
 4093SOL    HW114176   6.429  13.723  12.855
 4093SOL    HW214177   6.495  13.700  12.989
 4094SOL     OW14178   4.110   1.019   6.535
 4094SOL    HW114179   4.182   1.074   6.502
 4094SOL    HW214180   4.033   1.051   6.489
 4095SOL     OW14181  10.896   8.097  13.535
 4095SOL    HW114182  10.938   8.129  13.455
 4095SOL    HW214183  10.969   8.062  13.587
 4096SOL     OW14184   2.822   6.475   1.559
 4096SOL    HW114185   2.739   6.521   1.572
 4096SOL    HW214186   2.877   6.504   1.633
 4097SOL     OW14187  11.804   3.420  10.831
 4097SOL    HW114188  11.787   3.328  10.850
 4097SOL    HW214189  11.875   3.443  10.890
 4098SOL     OW14190   5.488   8.595  12.402
 4098SOL    HW114191   5.470   8.592  12.308
 4098SOL    HW214192   5.417   8.649  12.438
 4099SOL     OW14193  11.203   0.254   5.893
 4099SOL    HW114194  11.201   0.341   5.932
 4099SOL    HW214195  11.192   0.194   5.967
 4100SOL     OW14196   8.461  14.480   9.311
 4100SOL    HW114197   8.523  14.474   9.238
 4100SOL    HW214198   8.512  14.517   9.383
 4101SOL     OW14199   8.445  14.516  12.449
 4101SOL    HW114200   8.490  14.437  12.421
 4101SOL    HW214201   8.352  14.493  12.449
 4102SOL     OW14202   4.746   7.833   3.571
 4102SOL    HW114203   4.818   7.893   3.587
 4102SOL    HW214204   4.776   7.778   3.499
 4103SOL     OW14205   5.491   8.130  11.104
 4103SOL    HW114206   5.401   8.156  11.125
 4103SOL    HW214207   5.483   8.053  11.048
 4104SOL     OW14208   4.292  14.695   9.851
 4104SOL    HW114209   4.257  14.726   9.934
 4104SOL    HW214210   4.247  14.612   9.835
 4105SOL     OW14211   8.631  11.461   4.935
 4105SOL    HW114212   8.605  11.440   4.845
 4105SOL    HW214213   8.611  11.382   4.985
 4106SOL     OW14214  11.908   1.990   3.433
 4106SOL    HW114215  11.968   1.975   3.360
 4106SOL    HW214216  11.821   1.992   3.392
 4107SOL     OW14217   7.439   5.983  12.695
 4107SOL    HW114218   7.372   5.948  12.754
 4107SOL    HW214219   7.520   5.939  12.721
 4108SOL     OW14220   0.261  13.253  13.136
 4108SOL    HW114221   0.344  13.232  13.094
 4108SOL    HW214222   0.233  13.335  13.095
 4109SOL     OW14223  13.964  11.468   6.706
 4109SOL    HW114224  13.968  11.421   6.789
 4109SOL    HW214225  14.046  11.515   6.701
 4110SOL     OW14226  14.762   7.136  14.452
 4110SOL    HW114227  14.751   7.068  14.518
 4110SOL    HW214228  14.832   7.192  14.487
 4111SOL     OW14229   4.359   4.631   2.867
 4111SOL    HW114230   4.331   4.669   2.784
 4111SOL    HW214231   4.454   4.620   2.858
 4112SOL     OW14232   5.868   1.271   9.725
 4112SOL    HW114233   5.826   1.194   9.764
 4112SOL    HW214234   5.958   1.244   9.709
 4113SOL     OW14235   0.674   6.094   6.521
 4113SOL    HW114236   0.702   6.141   6.600
 4113SOL    HW214237   0.644   6.009   6.553
 4114SOL     OW14238   6.939   5.153   1.177
 4114SOL    HW114239   6.916   5.124   1.266
 4114SOL    HW214240   6.870   5.215   1.154
 4115SOL     OW14241   4.002   2.176  14.048
 4115SOL    HW114242   4.009   2.134  14.133
 4115SOL    HW214243   3.925   2.233  14.055
 4116SOL     OW14244  12.381  13.789   8.010
 4116SOL    HW114245  12.400  13.862   7.951
 4116SOL    HW214246  12.466  13.750   8.028
 4117SOL     OW14247   1.714   0.288   2.996
 4117SOL    HW114248   1.651   0.321   2.932
 4117SOL    HW214249   1.732   0.198   2.968
 4118SOL     OW14250   0.920  10.783   1.204
 4118SOL    HW114251   0.875  10.794   1.288
 4118SOL    HW214252   0.967  10.700   1.212
 4119SOL     OW14253   5.188   1.021   8.001
 4119SOL    HW114254   5.246   1.032   8.076
 4119SOL    HW214255   5.112   0.974   8.037
 4120SOL     OW14256  11.122   1.528   9.738
 4120SOL    HW114257  11.095   1.436   9.738
 4120SOL    HW214258  11.217   1.526   9.734
 4121SOL     OW14259  12.924  11.925   4.813
 4121SOL    HW114260  12.949  11.857   4.751
 4121SOL    HW214261  12.868  11.880   4.877
 4122SOL     OW14262   3.472   1.804  13.300
 4122SOL    HW114263   3.560   1.796  13.264
 4122SOL    HW214264   3.485   1.842  13.387
 4123SOL     OW14265  13.883  14.217   5.475
 4123SOL    HW114266  13.865  14.180   5.388
 4123SOL    HW214267  13.796  14.228   5.514
 4124SOL     OW14268   3.012   8.371   5.691
 4124SOL    HW114269   3.019   8.278   5.708
 4124SOL    HW214270   3.061   8.385   5.610
 4125SOL     OW14271  12.116   1.335   4.830
 4125SOL    HW114272  12.204   1.331   4.792
 4125SOL    HW214273  12.130   1.368   4.919
 4126SOL     OW14274  10.542   2.372  13.952
 4126SOL    HW114275  10.521   2.284  13.920
 4126SOL    HW214276  10.550   2.425  13.873
 4127SOL     OW14277   6.814   8.247   1.435
 4127SOL    HW114278   6.818   8.164   1.482
 4127SOL    HW214279   6.792   8.312   1.502
 4128SOL     OW14280  10.052  10.309   7.763
 4128SOL    HW114281   9.983  10.331   7.700
 4128SOL    HW214282  10.058  10.387   7.818
 4129SOL     OW14283   3.444   0.493   6.713
 4129SOL    HW114284   3.362   0.535   6.740
 4129SOL    HW214285   3.427   0.399   6.726
 4130SOL     OW14286   8.969   2.319   5.014
 4130SOL    HW114287   8.971   2.285   5.103
 4130SOL    HW214288   8.885   2.363   5.006
 4131SOL     OW14289  13.518   3.340   9.537
 4131SOL    HW114290  13.449   3.406   9.532
 4131SOL    HW214291  13.475   3.260   9.505
 4132SOL     OW14292   9.731  14.858   7.292
 4132SOL    HW114293   9.724  14.762   7.292
 4132SOL    HW214294   9.764  14.879   7.204
 4133SOL     OW14295  14.447  13.137  14.253
 4133SOL    HW114296  14.466  13.122  14.161
 4133SOL    HW214297  14.530  13.118  14.298
 4134SOL     OW14298   3.226   2.701   4.731
 4134SOL    HW114299   3.140   2.740   4.720
 4134SOL    HW214300   3.220   2.616   4.689
 4135SOL     OW14301   5.858   8.259   6.463
 4135SOL    HW114302   5.893   8.173   6.488
 4135SOL    HW214303   5.896   8.320   6.527
 4136SOL     OW14304   2.101   0.838   0.551
 4136SOL    HW114305   2.107   0.844   0.647
 4136SOL    HW214306   2.007   0.835   0.534
 4137SOL     OW14307   0.894   1.371   1.125
 4137SOL    HW114308   0.842   1.326   1.058
 4137SOL    HW214309   0.867   1.331   1.207
 4138SOL     OW14310   8.838   2.539   6.838
 4138SOL    HW114311   8.907   2.545   6.773
 4138SOL    HW214312   8.884   2.526   6.921
 4139SOL     OW14313   3.856  12.025   6.424
 4139SOL    HW114314   3.761  12.032   6.414
 4139SOL    HW214315   3.874  12.059   6.512
 4140SOL     OW14316   5.777  11.949   4.331
 4140SOL    HW114317   5.744  11.919   4.415
 4140SOL    HW214318   5.742  11.886   4.267
 4141SOL     OW14319   7.735   2.678   6.774
 4141SOL    HW114320   7.646   2.673   6.739
 4141SOL    HW214321   7.790   2.695   6.697
 4142SOL     OW14322   5.979   5.561  13.126
 4142SOL    HW114323   5.898   5.573  13.078
 4142SOL    HW214324   5.961   5.597  13.213
 4143SOL     OW14325  11.570   7.763  10.772
 4143SOL    HW114326  11.619   7.842  10.796
 4143SOL    HW214327  11.568   7.764  10.676
 4144SOL     OW14328   0.608  10.750   1.899
 4144SOL    HW114329   0.558  10.759   1.818
 4144SOL    HW214330   0.611  10.655   1.914
 4145SOL     OW14331  12.748   9.457   8.973
 4145SOL    HW114332  12.771   9.451   9.065
 4145SOL    HW214333  12.743   9.367   8.943
 4146SOL     OW14334   3.964   8.291   0.128
 4146SOL    HW114335   3.994   8.236   0.199
 4146SOL    HW214336   3.923   8.366   0.171
 4147SOL     OW14337   7.954   0.997  11.565
 4147SOL    HW114338   8.039   1.022  11.603
 4147SOL    HW214339   7.975   0.970  11.475
 4148SOL     OW14340   1.925   8.227   3.014
 4148SOL    HW114341   1.947   8.281   2.938
 4148SOL    HW214342   2.009   8.207   3.054
 4149SOL     OW14343   0.892  12.151   6.065
 4149SOL    HW114344   0.952  12.093   6.020
 4149SOL    HW214345   0.827  12.176   5.999
 4150SOL     OW14346   8.438  11.373   8.078
 4150SOL    HW114347   8.522  11.418   8.073
 4150SOL    HW214348   8.407  11.369   7.988
 4151SOL     OW14349   3.412   3.629   1.213
 4151SOL    HW114350   3.380   3.571   1.282
 4151SOL    HW214351   3.467   3.573   1.158
 4152SOL     OW14352   5.913   3.735   1.297
 4152SOL    HW114353   5.928   3.700   1.385
 4152SOL    HW214354   5.899   3.828   1.311
 4153SOL     OW14355   1.654   1.495   6.667
 4153SOL    HW114356   1.624   1.580   6.635
 4153SOL    HW214357   1.701   1.457   6.593
 4154SOL     OW14358  11.369   2.049  12.450
 4154SOL    HW114359  11.289   2.103  12.446
 4154SOL    HW214360  11.338   1.960  12.432
 4155SOL     OW14361  13.240   1.491   8.612
 4155SOL    HW114362  13.190   1.478   8.532
 4155SOL    HW214363  13.327   1.456   8.592
 4156SOL     OW14364  14.710   9.382  13.997
 4156SOL    HW114365  14.792   9.354  14.039
 4156SOL    HW214366  14.682   9.306  13.947
 4157SOL     OW14367   2.516   7.322   1.270
 4157SOL    HW114368   2.542   7.381   1.342
 4157SOL    HW214369   2.490   7.241   1.314
 4158SOL     OW14370   2.199   0.410   0.347
 4158SOL    HW114371   2.193   0.485   0.289
 4158SOL    HW214372   2.237   0.444   0.428
 4159SOL     OW14373  14.810   8.665  11.393
 4159SOL    HW114374  14.733   8.617  11.362
 4159SOL    HW214375  14.829   8.728  11.323
 4160SOL     OW14376  13.219   7.288   5.463
 4160SOL    HW114377  13.215   7.309   5.557
 4160SOL    HW214378  13.216   7.193   5.460
 4161SOL     OW14379  14.373   2.738  12.135
 4161SOL    HW114380  14.421   2.698  12.208
 4161SOL    HW214381  14.301   2.678  12.118
 4162SOL     OW14382   7.564  11.251  12.616
 4162SOL    HW114383   7.558  11.194  12.693
 4162SOL    HW214384   7.516  11.204  12.548
 4163SOL     OW14385   0.943   3.516   0.433
 4163SOL    HW114386   0.958   3.437   0.485
 4163SOL    HW214387   1.005   3.580   0.467
 4164SOL     OW14388  11.875   8.424   4.412
 4164SOL    HW114389  11.939   8.415   4.342
 4164SOL    HW214390  11.847   8.516   4.407
 4165SOL     OW14391  13.277   4.071  12.046
 4165SOL    HW114392  13.184   4.058  12.064
 4165SOL    HW214393  13.293   4.024  11.964
 4166SOL     OW14394   7.878   8.966   0.022
 4166SOL    HW114395   7.942   9.028   0.056
 4166SOL    HW214396   7.796   9.015   0.017
 4167SOL     OW14397   8.284   0.680   1.651
 4167SOL    HW114398   8.347   0.643   1.588
 4167SOL    HW214399   8.313   0.646   1.736
 4168SOL     OW14400   5.293  14.576  12.773
 4168SOL    HW114401   5.320  14.540  12.689
 4168SOL    HW214402   5.218  14.632  12.753
 4169SOL     OW14403  14.872  10.931   6.816
 4169SOL    HW114404   0.069  10.918   6.871
 4169SOL    HW214405  14.802  10.955   6.877
 4170SOL     OW14406   2.697   6.585  10.506
 4170SOL    HW114407   2.642   6.661  10.484
 4170SOL    HW214408   2.759   6.619  10.571
 4171SOL     OW14409   3.979  14.414   5.402
 4171SOL    HW114410   3.946  14.503   5.409
 4171SOL    HW214411   3.910  14.364   5.359
 4172SOL     OW14412   9.569   1.967   2.282
 4172SOL    HW114413   9.534   1.986   2.369
 4172SOL    HW214414   9.507   2.008   2.222
 4173SOL     OW14415   2.771  12.162  10.750
 4173SOL    HW114416   2.713  12.228  10.711
 4173SOL    HW214417   2.733  12.144  10.836
 4174SOL     OW14418   8.053   4.994  12.244
 4174SOL    HW114419   8.037   4.926  12.178
 4174SOL    HW214420   7.968   5.036  12.256
 4175SOL     OW14421  10.198   1.532   4.875
 4175SOL    HW114422  10.209   1.477   4.798
 4175SOL    HW214423  10.107   1.562   4.870
 4176SOL     OW14424  10.778  13.827   5.185
 4176SOL    HW114425  10.814  13.877   5.111
 4176SOL    HW214426  10.773  13.891   5.257
 4177SOL     OW14427   1.116   0.353  11.494
 4177SOL    HW114428   1.189   0.403  11.531
 4177SOL    HW214429   1.150   0.264  11.485
 4178SOL     OW14430   8.700  14.358   8.031
 4178SOL    HW114431   8.716  14.275   7.986
 4178SOL    HW214432   8.640  14.405   7.973
 4179SOL     OW14433   3.555   6.613   8.743
 4179SOL    HW114434   3.562   6.585   8.652
 4179SOL    HW214435   3.627   6.674   8.755
 4180SOL     OW14436   5.397   7.105   5.012
 4180SOL    HW114437   5.453   7.057   4.950
 4180SOL    HW214438   5.311   7.064   5.004
 4181SOL     OW14439   1.473  10.100   0.179
 4181SOL    HW114440   1.379  10.082   0.181
 4181SOL    HW214441   1.482  10.184   0.224
 4182SOL     OW14442  11.135  10.421  12.931
 4182SOL    HW114443  11.219  10.461  12.908
 4182SOL    HW214444  11.077  10.445  12.860
 4183SOL     OW14445  11.189   6.315   9.797
 4183SOL    HW114446  11.264   6.283   9.748
 4183SOL    HW214447  11.226   6.365   9.870
 4184SOL     OW14448   8.332   8.328  14.198
 4184SOL    HW114449   8.270   8.341  14.127
 4184SOL    HW214450   8.318   8.404  14.256
 4185SOL     OW14451   0.756   4.705   2.597
 4185SOL    HW114452   0.744   4.665   2.511
 4185SOL    HW214453   0.704   4.785   2.594
 4186SOL     OW14454   3.078  10.074  10.902
 4186SOL    HW114455   3.090   9.979  10.902
 4186SOL    HW214456   3.119  10.104  10.820
 4187SOL     OW14457  14.853   3.289   8.814
 4187SOL    HW114458   0.003   3.207   8.853
 4187SOL    HW214459   0.014   3.292   8.728
 4188SOL     OW14460  10.607   5.991   9.176
 4188SOL    HW114461  10.644   6.069   9.136
 4188SOL    HW214462  10.640   5.991   9.266
 4189SOL     OW14463   5.902   2.427   0.000
 4189SOL    HW114464   5.909   2.492  14.811
 4189SOL    HW214465   5.993   2.403   0.019
 4190SOL     OW14466   4.070   7.965   5.206
 4190SOL    HW114467   4.100   8.048   5.243
 4190SOL    HW214468   4.151   7.921   5.179
 4191SOL     OW14469   2.433  14.662   3.923
 4191SOL    HW114470   2.372  14.679   3.994
 4191SOL    HW214471   2.471  14.577   3.944
 4192SOL     OW14472   9.996   6.656  14.095
 4192SOL    HW114473  10.056   6.730  14.091
 4192SOL    HW214474  10.000   6.616  14.008
 4193SOL     OW14475   0.624   0.458  12.655
 4193SOL    HW114476   0.648   0.369  12.631
 4193SOL    HW214477   0.597   0.499  12.572
 4194SOL     OW14478  11.304   8.145   3.729
 4194SOL    HW114479  11.364   8.217   3.749
 4194SOL    HW214480  11.272   8.164   3.641
 4195SOL     OW14481   7.866   1.075   5.525
 4195SOL    HW114482   7.800   1.025   5.575
 4195SOL    HW214483   7.845   1.057   5.434
 4196SOL     OW14484  12.313  13.840   3.206
 4196SOL    HW114485  12.368  13.805   3.136
 4196SOL    HW214486  12.225  13.841   3.169
 4197SOL     OW14487  12.454   1.720   5.941
 4197SOL    HW114488  12.542   1.697   5.973
 4197SOL    HW214489  12.442   1.664   5.864
 4198SOL     OW14490  13.824   2.123   5.849
 4198SOL    HW114491  13.745   2.089   5.806
 4198SOL    HW214492  13.832   2.212   5.816
 4199SOL     OW14493   7.531   2.165   2.054
 4199SOL    HW114494   7.562   2.192   1.967
 4199SOL    HW214495   7.560   2.075   2.063
 4200SOL     OW14496   0.344   0.592  12.252
 4200SOL    HW114497   0.333   0.687  12.250
 4200SOL    HW214498   0.306   0.566  12.336
 4201SOL     OW14499  11.216   0.461  13.010
 4201SOL    HW114500  11.124   0.456  12.985
 4201SOL    HW214501  11.217   0.433  13.102
 4202SOL     OW14502   4.852   1.612  13.467
 4202SOL    HW114503   4.810   1.525  13.467
 4202SOL    HW214504   4.945   1.594  13.483
 4203SOL     OW14505   6.609  13.324  13.452
 4203SOL    HW114506   6.653  13.350  13.532
 4203SOL    HW214507   6.528  13.375  13.451
 4204SOL     OW14508   1.888   7.418  13.802
 4204SOL    HW114509   1.896   7.509  13.831
 4204SOL    HW214510   1.950   7.410  13.730
 4205SOL     OW14511   3.670   9.836  12.664
 4205SOL    HW114512   3.688   9.915  12.613
 4205SOL    HW214513   3.756   9.798  12.682
 4206SOL     OW14514  11.818  12.556  13.502
 4206SOL    HW114515  11.895  12.604  13.532
 4206SOL    HW214516  11.814  12.479  13.558
 4207SOL     OW14517   3.983   0.906   0.321
 4207SOL    HW114518   4.034   0.833   0.357
 4207SOL    HW214519   3.959   0.878   0.233
 4208SOL     OW14520   9.163  11.539  13.352
 4208SOL    HW114521   9.164  11.601  13.278
 4208SOL    HW214522   9.255  11.517  13.366
 4209SOL     OW14523   3.557   0.363   0.825
 4209SOL    HW114524   3.530   0.289   0.772
 4209SOL    HW214525   3.637   0.395   0.783
 4210SOL     OW14526   0.467   6.154   0.631
 4210SOL    HW114527   0.388   6.203   0.608
 4210SOL    HW214528   0.462   6.074   0.579
 4211SOL     OW14529   7.089   5.044   0.070
 4211SOL    HW114530   7.043   4.989   0.134
 4211SOL    HW214531   7.092   4.991  14.871
 4212SOL     OW14532   0.451   6.566  11.974
 4212SOL    HW114533   0.511   6.510  12.025
 4212SOL    HW214534   0.470   6.544  11.883
 4213SOL     OW14535  11.854  14.008   0.251
 4213SOL    HW114536  11.832  13.932   0.197
 4213SOL    HW214537  11.805  13.994   0.332
 4214SOL     OW14538   3.565   1.718   0.225
 4214SOL    HW114539   3.604   1.658   0.288
 4214SOL    HW214540   3.489   1.755   0.270
 4215SOL     OW14541   1.149   5.074  10.141
 4215SOL    HW114542   1.196   4.991  10.150
 4215SOL    HW214543   1.213   5.140  10.166
 4216SOL     OW14544   7.687   2.268   1.856
 4216SOL    HW114545   7.631   2.265   1.778
 4216SOL    HW214546   7.732   2.352   1.850
 4217SOL     OW14547  10.680   9.052   5.299
 4217SOL    HW114548  10.748   9.097   5.348
 4217SOL    HW214549  10.600   9.103   5.315
 4218SOL     OW14550  14.792   6.687   2.116
 4218SOL    HW114551  14.729   6.643   2.059
 4218SOL    HW214552  14.841   6.744   2.058
 4219SOL     OW14553   7.353  11.424   7.210
 4219SOL    HW114554   7.353  11.372   7.129
 4219SOL    HW214555   7.396  11.506   7.186
 4220SOL     OW14556   7.003   3.591   9.517
 4220SOL    HW114557   7.002   3.661   9.583
 4220SOL    HW214558   6.960   3.517   9.561
 4221SOL     OW14559   1.904  14.637  11.762
 4221SOL    HW114560   1.854  14.556  11.758
 4221SOL    HW214561   1.992  14.609  11.788
 4222SOL     OW14562  11.617   1.841   8.353
 4222SOL    HW114563  11.699   1.864   8.396
 4222SOL    HW214564  11.627   1.874   8.263
 4223SOL     OW14565   2.198   0.942   6.846
 4223SOL    HW114566   2.236   0.865   6.805
 4223SOL    HW214567   2.109   0.946   6.813
 4224SOL     OW14568   4.270  14.465  14.640
 4224SOL    HW114569   4.343  14.403  14.638
 4224SOL    HW214570   4.289  14.522  14.714
 4225SOL     OW14571  10.093   5.298   8.755
 4225SOL    HW114572  10.028   5.330   8.817
 4225SOL    HW214573  10.066   5.335   8.670
 4226SOL     OW14574   7.213  13.971   9.096
 4226SOL    HW114575   7.215  13.878   9.077
 4226SOL    HW214576   7.297  14.004   9.063
 4227SOL     OW14577  14.531   6.703   7.024
 4227SOL    HW114578  14.472   6.740   7.090
 4227SOL    HW214579  14.618   6.713   7.062
 4228SOL     OW14580   7.520   4.245  14.606
 4228SOL    HW114581   7.597   4.267  14.553
 4228SOL    HW214582   7.541   4.160  14.644
 4229SOL     OW14583   3.171   5.416   6.617
 4229SOL    HW114584   3.232   5.388   6.549
 4229SOL    HW214585   3.105   5.347   6.621
 4230SOL     OW14586   5.726  11.581   8.632
 4230SOL    HW114587   5.800  11.611   8.579
 4230SOL    HW214588   5.753  11.599   8.722
 4231SOL     OW14589  13.616   1.364  10.113
 4231SOL    HW114590  13.672   1.312  10.056
 4231SOL    HW214591  13.626   1.325  10.200
 4232SOL     OW14592   8.109  12.243   6.477
 4232SOL    HW114593   8.091  12.318   6.421
 4232SOL    HW214594   8.044  12.178   6.450
 4233SOL     OW14595   0.635   4.377   3.993
 4233SOL    HW114596   0.554   4.328   3.983
 4233SOL    HW214597   0.643   4.390   4.088
 4234SOL     OW14598   0.027   5.109   3.971
 4234SOL    HW114599   0.089   5.043   4.001
 4234SOL    HW214600  14.821   5.068   3.986
 4235SOL     OW14601   8.104  12.639  13.363
 4235SOL    HW114602   8.056  12.559  13.381
 4235SOL    HW214603   8.063  12.674  13.283
 4236SOL     OW14604   9.269   6.311   9.857
 4236SOL    HW114605   9.311   6.295   9.773
 4236SOL    HW214606   9.183   6.271   9.850
 4237SOL     OW14607   1.151   5.007  13.506
 4237SOL    HW114608   1.217   5.021  13.438
 4237SOL    HW214609   1.195   5.030  13.588
 4238SOL     OW14610  12.150   9.953   1.293
 4238SOL    HW114611  12.077  10.000   1.252
 4238SOL    HW214612  12.107   9.893   1.355
 4239SOL     OW14613  13.241  10.332   5.793
 4239SOL    HW114614  13.232  10.337   5.698
 4239SOL    HW214615  13.284  10.247   5.808
 4240SOL     OW14616  12.751  10.173   3.266
 4240SOL    HW114617  12.702  10.093   3.245
 4240SOL    HW214618  12.688  10.228   3.312
 4241SOL     OW14619   3.349   7.942  14.037
 4241SOL    HW114620   3.268   7.896  14.017
 4241SOL    HW214621   3.402   7.879  14.085
 4242SOL     OW14622  10.141   3.968   8.294
 4242SOL    HW114623  10.134   3.873   8.303
 4242SOL    HW214624  10.104   4.003   8.375
 4243SOL     OW14625  11.510   5.793   3.338
 4243SOL    HW114626  11.502   5.699   3.357
 4243SOL    HW214627  11.421   5.826   3.344
 4244SOL     OW14628   7.727  14.243   4.175
 4244SOL    HW114629   7.713  14.217   4.267
 4244SOL    HW214630   7.796  14.309   4.179
 4245SOL     OW14631   6.424  10.179   1.159
 4245SOL    HW114632   6.371  10.173   1.080
 4245SOL    HW214633   6.514  10.185   1.126
 4246SOL     OW14634   3.072   6.826   3.217
 4246SOL    HW114635   3.005   6.875   3.169
 4246SOL    HW214636   3.029   6.799   3.298
 4247SOL     OW14637   6.917  13.453   1.940
 4247SOL    HW114638   6.859  13.529   1.944
 4247SOL    HW214639   7.003  13.489   1.919
 4248SOL     OW14640   9.888   1.341   4.754
 4248SOL    HW114641   9.933   1.260   4.731
 4248SOL    HW214642   9.800   1.313   4.780
 4249SOL     OW14643   3.253   7.140   7.427
 4249SOL    HW114644   3.278   7.095   7.346
 4249SOL    HW214645   3.197   7.078   7.473
 4250SOL     OW14646   4.622   0.340  10.289
 4250SOL    HW114647   4.700   0.345  10.234
 4250SOL    HW214648   4.585   0.428  10.286
 4251SOL     OW14649  13.207  12.861  11.476
 4251SOL    HW114650  13.218  12.784  11.532
 4251SOL    HW214651  13.297  12.883  11.450
 4252SOL     OW14652  12.860   2.986   3.827
 4252SOL    HW114653  12.851   2.892   3.845
 4252SOL    HW214654  12.771   3.016   3.807
 4253SOL     OW14655  11.214   2.560   3.349
 4253SOL    HW114656  11.304   2.542   3.321
 4253SOL    HW214657  11.166   2.481   3.327
 4254SOL     OW14658  14.795   8.259   4.575
 4254SOL    HW114659  14.827   8.174   4.605
 4254SOL    HW214660  14.875   8.310   4.559
 4255SOL     OW14661   8.219   9.497   7.645
 4255SOL    HW114662   8.189   9.543   7.567
 4255SOL    HW214663   8.277   9.558   7.689
 4256SOL     OW14664   0.170  13.840   5.443
 4256SOL    HW114665   0.188  13.758   5.397
 4256SOL    HW214666   0.234  13.842   5.514
 4257SOL     OW14667  10.609   8.462  14.196
 4257SOL    HW114668  10.693   8.499  14.168
 4257SOL    HW214669  10.626   8.430  14.284
 4258SOL     OW14670   6.408   8.483  10.768
 4258SOL    HW114671   6.414   8.527  10.684
 4258SOL    HW214672   6.317   8.493  10.794
 4259SOL     OW14673   6.298  13.492  10.329
 4259SOL    HW114674   6.293  13.457  10.240
 4259SOL    HW214675   6.378  13.453  10.365
 4260SOL     OW14676   4.750   0.538   1.672
 4260SOL    HW114677   4.833   0.571   1.639
 4260SOL    HW214678   4.705   0.617   1.704
 4261SOL     OW14679   2.380   0.568   3.772
 4261SOL    HW114680   2.363   0.475   3.782
 4261SOL    HW214681   2.475   0.575   3.763
 4262SOL     OW14682   6.614  10.315   3.732
 4262SOL    HW114683   6.543  10.372   3.764
 4262SOL    HW214684   6.682  10.322   3.798
 4263SOL     OW14685   6.572   3.026   2.958
 4263SOL    HW114686   6.630   2.950   2.960
 4263SOL    HW214687   6.522   3.020   3.039
 4264SOL     OW14688   8.989   8.345   9.325
 4264SOL    HW114689   8.896   8.321   9.330
 4264SOL    HW214690   9.007   8.351   9.231
 4265SOL     OW14691   0.378   0.556   4.547
 4265SOL    HW114692   0.332   0.488   4.497
 4265SOL    HW214693   0.351   0.638   4.507
 4266SOL     OW14694   7.994   4.175   0.321
 4266SOL    HW114695   7.935   4.153   0.394
 4266SOL    HW214696   8.079   4.192   0.363
 4267SOL     OW14697   6.727   2.994   6.931
 4267SOL    HW114698   6.747   2.927   6.996
 4267SOL    HW214699   6.635   2.981   6.911
 4268SOL     OW14700  12.134   5.875   8.476
 4268SOL    HW114701  12.069   5.809   8.454
 4268SOL    HW214702  12.083   5.948   8.512
 4269SOL     OW14703   5.399  11.695  12.924
 4269SOL    HW114704   5.323  11.746  12.951
 4269SOL    HW214705   5.366  11.605  12.917
 4270SOL     OW14706   7.457   1.096   0.347
 4270SOL    HW114707   7.432   1.004   0.351
 4270SOL    HW214708   7.553   1.094   0.343
 4271SOL     OW14709   4.082  13.861   1.426
 4271SOL    HW114710   4.052  13.896   1.342
 4271SOL    HW214711   4.012  13.882   1.488
 4272SOL     OW14712   8.739   9.543   4.599
 4272SOL    HW114713   8.762   9.585   4.682
 4272SOL    HW214714   8.659   9.495   4.618
 4273SOL     OW14715   5.377   4.707   4.664
 4273SOL    HW114716   5.286   4.733   4.682
 4273SOL    HW214717   5.425   4.789   4.657
 4274SOL     OW14718   7.919   3.667   3.567
 4274SOL    HW114719   7.826   3.687   3.582
 4274SOL    HW214720   7.927   3.574   3.587
 4275SOL     OW14721   9.322   9.464   7.162
 4275SOL    HW114722   9.280   9.539   7.204
 4275SOL    HW214723   9.379   9.427   7.229
 4276SOL     OW14724  11.898   8.887   4.960
 4276SOL    HW114725  11.974   8.848   5.003
 4276SOL    HW214726  11.934   8.929   4.881
 4277SOL     OW14727  14.152   1.562   8.144
 4277SOL    HW114728  14.163   1.655   8.161
 4277SOL    HW214729  14.058   1.549   8.136
 4278SOL     OW14730   0.326   3.598  11.859
 4278SOL    HW114731   0.372   3.529  11.810
 4278SOL    HW214732   0.389   3.626  11.926
 4279SOL     OW14733  14.794   9.896   4.495
 4279SOL    HW114734  14.724   9.961   4.506
 4279SOL    HW214735  14.753   9.813   4.516
 4280SOL     OW14736   4.775   7.599   7.435
 4280SOL    HW114737   4.862   7.635   7.420
 4280SOL    HW214738   4.788   7.529   7.499
 4281SOL     OW14739   2.448   5.324   9.774
 4281SOL    HW114740   2.424   5.374   9.852
 4281SOL    HW214741   2.470   5.237   9.808
 4282SOL     OW14742   6.992   3.777   5.793
 4282SOL    HW114743   6.973   3.758   5.885
 4282SOL    HW214744   7.061   3.843   5.796
 4283SOL     OW14745   5.588   2.525   4.715
 4283SOL    HW114746   5.619   2.491   4.798
 4283SOL    HW214747   5.667   2.553   4.669
 4284SOL     OW14748   1.332   2.045   1.227
 4284SOL    HW114749   1.247   2.070   1.264
 4284SOL    HW214750   1.311   1.985   1.155
 4285SOL     OW14751   4.581   3.023   9.481
 4285SOL    HW114752   4.628   3.088   9.429
 4285SOL    HW214753   4.493   3.020   9.442
 4286SOL     OW14754   1.043   4.964   9.516
 4286SOL    HW114755   0.967   4.907   9.498
 4286SOL    HW214756   1.102   4.908   9.566
 4287SOL     OW14757   0.947   1.558   2.986
 4287SOL    HW114758   1.034   1.565   3.025
 4287SOL    HW214759   0.964   1.531   2.895
 4288SOL     OW14760   7.332   1.950   4.619
 4288SOL    HW114761   7.382   1.870   4.636
 4288SOL    HW214762   7.263   1.950   4.686
 4289SOL     OW14763  12.774  14.090   8.702
 4289SOL    HW114764  12.724  14.120   8.627
 4289SOL    HW214765  12.763  14.158   8.768
 4290SOL     OW14766  13.102  14.481   9.576
 4290SOL    HW114767  13.030  14.497   9.637
 4290SOL    HW214768  13.181  14.507   9.623
 4291SOL     OW14769  10.941   7.404  12.737
 4291SOL    HW114770  10.897   7.472  12.788
 4291SOL    HW214771  11.024   7.444  12.710
 4292SOL     OW14772   5.970  14.825   8.004
 4292SOL    HW114773   5.939  14.795   8.090
 4292SOL    HW214774   5.911   0.017   7.982
 4293SOL     OW14775   3.901   6.631   7.032
 4293SOL    HW114776   3.929   6.586   7.112
 4293SOL    HW214777   3.979   6.630   6.976
 4294SOL     OW14778   2.612   5.197  10.902
 4294SOL    HW114779   2.654   5.281  10.883
 4294SOL    HW214780   2.643   5.173  10.989
 4295SOL     OW14781   6.791   6.862   3.337
 4295SOL    HW114782   6.745   6.813   3.406
 4295SOL    HW214783   6.723   6.914   3.295
 4296SOL     OW14784   5.332   0.924   9.433
 4296SOL    HW114785   5.413   0.957   9.473
 4296SOL    HW214786   5.340   0.947   9.341
 4297SOL     OW14787  10.139   4.988  11.751
 4297SOL    HW114788  10.121   4.942  11.833
 4297SOL    HW214789  10.234   4.994  11.748
 4298SOL     OW14790  12.898  12.538   3.649
 4298SOL    HW114791  12.883  12.445   3.636
 4298SOL    HW214792  12.812  12.574   3.671
 4299SOL     OW14793   3.270   3.038  11.904
 4299SOL    HW114794   3.193   3.003  11.859
 4299SOL    HW214795   3.234   3.096  11.971
 4300SOL     OW14796   2.349  11.356   6.745
 4300SOL    HW114797   2.338  11.271   6.702
 4300SOL    HW214798   2.424  11.345   6.803
 4301SOL     OW14799   5.371   5.111  11.776
 4301SOL    HW114800   5.422   5.149  11.705
 4301SOL    HW214801   5.371   5.179  11.844
 4302SOL     OW14802  11.098   6.716  14.120
 4302SOL    HW114803  11.027   6.780  14.112
 4302SOL    HW214804  11.172   6.767  14.153
 4303SOL     OW14805   0.785   2.682   2.100
 4303SOL    HW114806   0.771   2.643   2.014
 4303SOL    HW214807   0.863   2.637   2.134
 4304SOL     OW14808   1.180  11.253   7.451
 4304SOL    HW114809   1.110  11.188   7.449
 4304SOL    HW214810   1.191  11.279   7.359
 4305SOL     OW14811   2.674  10.132  13.471
 4305SOL    HW114812   2.663  10.223  13.497
 4305SOL    HW214813   2.761  10.108  13.504
 4306SOL     OW14814   5.541   7.737   0.912
 4306SOL    HW114815   5.473   7.801   0.934
 4306SOL    HW214816   5.618   7.789   0.890
 4307SOL     OW14817   1.373   9.638   8.641
 4307SOL    HW114818   1.399   9.554   8.603
 4307SOL    HW214819   1.311   9.674   8.577
 4308SOL     OW14820   9.641   9.769   7.793
 4308SOL    HW114821   9.664   9.804   7.707
 4308SOL    HW214822   9.700   9.814   7.854
 4309SOL     OW14823   5.982   2.306  12.712
 4309SOL    HW114824   5.899   2.335  12.751
 4309SOL    HW214825   6.041   2.298  12.787
 4310SOL     OW14826  10.690  14.635  11.533
 4310SOL    HW114827  10.719  14.550  11.499
 4310SOL    HW214828  10.770  14.686  11.542
 4311SOL     OW14829  10.066  14.018   6.681
 4311SOL    HW114830  10.130  14.051   6.618
 4311SOL    HW214831  10.110  13.946   6.725
 4312SOL     OW14832   4.684   5.115   3.584
 4312SOL    HW114833   4.599   5.089   3.549
 4312SOL    HW214834   4.741   5.041   3.567
 4313SOL     OW14835   7.708  10.245   1.319
 4313SOL    HW114836   7.636  10.197   1.359
 4313SOL    HW214837   7.666  10.317   1.272
 4314SOL     OW14838   2.792   2.889  10.662
 4314SOL    HW114839   2.887   2.881  10.664
 4314SOL    HW214840   2.765   2.833  10.588
 4315SOL     OW14841   9.846   6.475   5.683
 4315SOL    HW114842   9.845   6.460   5.778
 4315SOL    HW214843   9.923   6.529   5.668
 4316SOL     OW14844   9.370   5.035   7.904
 4316SOL    HW114845   9.459   5.066   7.915
 4316SOL    HW214846   9.341   5.073   7.821
 4317SOL     OW14847   1.293  10.520   1.826
 4317SOL    HW114848   1.278  10.433   1.790
 4317SOL    HW214849   1.342  10.505   1.907
 4318SOL     OW14850  12.123   3.937   3.084
 4318SOL    HW114851  12.058   3.944   3.153
 4318SOL    HW214852  12.072   3.926   3.004
 4319SOL     OW14853   5.687   1.576  10.394
 4319SOL    HW114854   5.688   1.481  10.381
 4319SOL    HW214855   5.689   1.612  10.305
 4320SOL     OW14856   7.113   7.911  12.476
 4320SOL    HW114857   7.044   7.910  12.542
 4320SOL    HW214858   7.080   7.969  12.407
 4321SOL     OW14859   5.983  12.520   2.989
 4321SOL    HW114860   6.033  12.563   3.058
 4321SOL    HW214861   5.919  12.466   3.036
 4322SOL     OW14862   5.796   8.827  13.424
 4322SOL    HW114863   5.889   8.807  13.412
 4322SOL    HW214864   5.791   8.923  13.420
 4323SOL     OW14865   4.677   0.580   3.743
 4323SOL    HW114866   4.636   0.661   3.712
 4323SOL    HW214867   4.638   0.511   3.688
 4324SOL     OW14868   7.702   9.798  12.186
 4324SOL    HW114869   7.755   9.721  12.168
 4324SOL    HW214870   7.612   9.770  12.167
 4325SOL     OW14871  12.220   7.843   0.957
 4325SOL    HW114872  12.206   7.933   0.929
 4325SOL    HW214873  12.234   7.795   0.876
 4326SOL     OW14874   8.742   8.768   1.155
 4326SOL    HW114875   8.754   8.831   1.084
 4326SOL    HW214876   8.814   8.706   1.145
 4327SOL     OW14877   2.325   8.731   1.450
 4327SOL    HW114878   2.411   8.690   1.451
 4327SOL    HW214879   2.279   8.691   1.524
 4328SOL     OW14880   6.563  11.776   4.866
 4328SOL    HW114881   6.479  11.820   4.878
 4328SOL    HW214882   6.560  11.741   4.777
 4329SOL     OW14883   6.919   6.020   5.075
 4329SOL    HW114884   6.833   6.030   5.034
 4329SOL    HW214885   6.968   6.098   5.048
 4330SOL     OW14886   5.672   1.751   5.643
 4330SOL    HW114887   5.640   1.688   5.578
 4330SOL    HW214888   5.753   1.785   5.605
 4331SOL     OW14889  13.464   4.830   2.960
 4331SOL    HW114890  13.500   4.789   2.881
 4331SOL    HW214891  13.538   4.878   2.998
 4332SOL     OW14892  13.688   0.680   5.697
 4332SOL    HW114893  13.724   0.746   5.638
 4332SOL    HW214894  13.692   0.599   5.646
 4333SOL     OW14895   9.319   6.051   7.117
 4333SOL    HW114896   9.338   6.054   7.023
 4333SOL    HW214897   9.395   6.093   7.158
 4334SOL     OW14898   3.911   8.936   3.438
 4334SOL    HW114899   3.950   8.889   3.365
 4334SOL    HW214900   3.926   9.029   3.418
 4335SOL     OW14901   5.308   5.425   5.938
 4335SOL    HW114902   5.228   5.389   5.974
 4335SOL    HW214903   5.325   5.503   5.991
 4336SOL     OW14904   3.559  13.617   2.496
 4336SOL    HW114905   3.532  13.572   2.576
 4336SOL    HW214906   3.598  13.548   2.442
 4337SOL     OW14907  10.931  10.620  13.724
 4337SOL    HW114908  10.883  10.540  13.746
 4337SOL    HW214909  10.991  10.632  13.798
 4338SOL     OW14910   7.365   9.706  12.397
 4338SOL    HW114911   7.280   9.683  12.434
 4338SOL    HW214912   7.416   9.625  12.398
 4339SOL     OW14913   6.351  11.293   8.296
 4339SOL    HW114914   6.416  11.248   8.241
 4339SOL    HW214915   6.268  11.252   8.273
 4340SOL     OW14916  13.561   5.436   7.262
 4340SOL    HW114917  13.499   5.367   7.287
 4340SOL    HW214918  13.541   5.453   7.170
 4341SOL     OW14919   5.909   1.307   4.809
 4341SOL    HW114920   5.956   1.266   4.882
 4341SOL    HW214921   5.833   1.349   4.850
 4342SOL     OW14922  11.905   7.570   3.966
 4342SOL    HW114923  11.942   7.483   3.950
 4342SOL    HW214924  11.980   7.629   3.966
 4343SOL     OW14925   4.798   9.508   9.500
 4343SOL    HW114926   4.839   9.525   9.415
 4343SOL    HW214927   4.870   9.511   9.562
 4344SOL     OW14928  10.115   2.365   2.257
 4344SOL    HW114929  10.055   2.362   2.332
 4344SOL    HW214930  10.152   2.453   2.260
 4345SOL     OW14931   0.405  11.626   4.639
 4345SOL    HW114932   0.348  11.692   4.599
 4345SOL    HW214933   0.397  11.641   4.733
 4346SOL     OW14934   2.468   7.249   7.890
 4346SOL    HW114935   2.546   7.277   7.843
 4346SOL    HW214936   2.463   7.308   7.965
 4347SOL     OW14937  12.753   4.286   0.924
 4347SOL    HW114938  12.693   4.238   0.866
 4347SOL    HW214939  12.699   4.354   0.964
 4348SOL     OW14940  10.684   1.270   6.223
 4348SOL    HW114941  10.736   1.343   6.191
 4348SOL    HW214942  10.651   1.228   6.144
 4349SOL     OW14943   1.754   5.520   8.981
 4349SOL    HW114944   1.718   5.599   8.941
 4349SOL    HW214945   1.841   5.546   9.012
 4350SOL     OW14946   6.337  14.029   8.060
 4350SOL    HW114947   6.339  13.972   8.137
 4350SOL    HW214948   6.245  14.055   8.052
 4351SOL     OW14949   9.555   2.593   8.910
 4351SOL    HW114950   9.469   2.630   8.889
 4351SOL    HW214951   9.604   2.596   8.828
 4352SOL     OW14952   1.903  14.665  10.115
 4352SOL    HW114953   1.862  14.633  10.195
 4352SOL    HW214954   1.982  14.611  10.106
 4353SOL     OW14955  14.821   3.064   4.482
 4353SOL    HW114956   0.013   3.039   4.424
 4353SOL    HW214957  14.749   3.007   4.457
 4354SOL     OW14958   4.682   3.377  11.952
 4354SOL    HW114959   4.724   3.432  11.886
 4354SOL    HW214960   4.645   3.304  11.902
 4355SOL     OW14961   0.297   1.830  12.493
 4355SOL    HW114962   0.353   1.831  12.415
 4355SOL    HW214963   0.320   1.911  12.539
 4356SOL     OW14964   4.274   9.608  12.085
 4356SOL    HW114965   4.366   9.617  12.111
 4356SOL    HW214966   4.226   9.664  12.145
 4357SOL     OW14967  10.647   7.037   7.757
 4357SOL    HW114968  10.629   6.994   7.673
 4357SOL    HW214969  10.567   7.087   7.775
 4358SOL     OW14970   6.591  13.081   9.510
 4358SOL    HW114971   6.564  13.166   9.544
 4358SOL    HW214972   6.686  13.080   9.522
 4359SOL     OW14973   9.147   1.429   9.606
 4359SOL    HW114974   9.145   1.502   9.544
 4359SOL    HW214975   9.101   1.462   9.683
 4360SOL     OW14976   5.134   5.183   6.406
 4360SOL    HW114977   5.226   5.187   6.381
 4360SOL    HW214978   5.122   5.258   6.464
 4361SOL     OW14979   3.385   6.697  12.233
 4361SOL    HW114980   3.453   6.764  12.221
 4361SOL    HW214981   3.401   6.662  12.321
 4362SOL     OW14982   5.808   3.838  10.697
 4362SOL    HW114983   5.859   3.917  10.714
 4362SOL    HW214984   5.861   3.788  10.634
 4363SOL     OW14985   0.457   4.643   2.329
 4363SOL    HW114986   0.424   4.557   2.306
 4363SOL    HW214987   0.551   4.630   2.343
 4364SOL     OW14988  14.681  12.243   2.938
 4364SOL    HW114989  14.756  12.302   2.941
 4364SOL    HW214990  14.626  12.270   3.012
 4365SOL     OW14991   7.242  10.812   3.716
 4365SOL    HW114992   7.257  10.719   3.734
 4365SOL    HW214993   7.147  10.822   3.719
 4366SOL     OW14994  12.606   6.875   2.220
 4366SOL    HW114995  12.589   6.929   2.297
 4366SOL    HW214996  12.687   6.828   2.240
 4367SOL     OW14997  12.694  11.186  10.796
 4367SOL    HW114998  12.647  11.105  10.780
 4367SOL    HW214999  12.778  11.175  10.751
 4368SOL     OW15000   6.846   3.888   1.829
 4368SOL    HW115001   6.816   3.830   1.758
 4368SOL    HW215002   6.765   3.916   1.872
 4369SOL     OW15003   4.591   0.550   2.761
 4369SOL    HW115004   4.595   0.596   2.677
 4369SOL    HW215005   4.673   0.573   2.805
 4370SOL     OW15006  12.289  14.225   9.000
 4370SOL    HW115007  12.323  14.183   8.921
 4370SOL    HW215008  12.367  14.237   9.055
 4371SOL     OW15009   8.591   0.619   5.906
 4371SOL    HW115010   8.658   0.684   5.883
 4371SOL    HW215011   8.510   0.656   5.871
 4372SOL     OW15012   8.986   6.504   0.834
 4372SOL    HW115013   8.951   6.464   0.914
 4372SOL    HW215014   8.909   6.525   0.782
 4373SOL     OW15015  10.895   3.214  12.457
 4373SOL    HW115016  10.927   3.125  12.468
 4373SOL    HW215017  10.869   3.242  12.544
 4374SOL     OW15018   1.345   3.613  13.709
 4374SOL    HW115019   1.322   3.596  13.801
 4374SOL    HW215020   1.262   3.613  13.663
 4375SOL     OW15021   7.280   4.076  10.590
 4375SOL    HW115022   7.225   4.066  10.512
 4375SOL    HW215023   7.218   4.074  10.663
 4376SOL     OW15024   4.778   7.080   3.171
 4376SOL    HW115025   4.686   7.068   3.147
 4376SOL    HW215026   4.776   7.105   3.263
 4377SOL     OW15027   1.804  12.509  12.877
 4377SOL    HW115028   1.867  12.521  12.948
 4377SOL    HW215029   1.758  12.428  12.899
 4378SOL     OW15030   9.810   0.399   3.640
 4378SOL    HW115031   9.895   0.438   3.623
 4378SOL    HW215032   9.782   0.436   3.723
 4379SOL     OW15033  10.777  12.840  13.060
 4379SOL    HW115034  10.711  12.908  13.050
 4379SOL    HW215035  10.830  12.845  12.981
 4380SOL     OW15036  13.921   2.485   8.874
 4380SOL    HW115037  13.982   2.453   8.807
 4380SOL    HW215038  13.883   2.564   8.835
 4381SOL     OW15039   5.512  13.141   3.828
 4381SOL    HW115040   5.507  13.193   3.748
 4381SOL    HW215041   5.603  13.110   3.831
 4382SOL     OW15042   7.599   8.287   1.594
 4382SOL    HW115043   7.595   8.339   1.514
 4382SOL    HW215044   7.590   8.351   1.665
 4383SOL     OW15045  12.257   0.228  11.745
 4383SOL    HW115046  12.210   0.300  11.787
 4383SOL    HW215047  12.345   0.231  11.784
 4384SOL     OW15048   0.555   8.100  12.311
 4384SOL    HW115049   0.543   8.089  12.216
 4384SOL    HW215050   0.634   8.051  12.331
 4385SOL     OW15051   5.752   3.583   4.012
 4385SOL    HW115052   5.701   3.567   4.092
 4385SOL    HW215053   5.705   3.654   3.968
 4386SOL     OW15054  13.307  11.471  12.463
 4386SOL    HW115055  13.334  11.528  12.535
 4386SOL    HW215056  13.213  11.487  12.453
 4387SOL     OW15057   4.062   2.878   8.081
 4387SOL    HW115058   4.013   2.797   8.069
 4387SOL    HW215059   4.113   2.864   8.161
 4388SOL     OW15060   2.434   0.215   5.584
 4388SOL    HW115061   2.367   0.159   5.543
 4388SOL    HW215062   2.471   0.160   5.653
 4389SOL     OW15063   0.812   6.376   7.442
 4389SOL    HW115064   0.890   6.428   7.463
 4389SOL    HW215065   0.797   6.322   7.520
 4390SOL     OW15066   9.313   2.197  12.880
 4390SOL    HW115067   9.281   2.281  12.848
 4390SOL    HW215068   9.320   2.207  12.975
 4391SOL     OW15069   8.192   6.616   9.263
 4391SOL    HW115070   8.153   6.702   9.248
 4391SOL    HW215071   8.151   6.560   9.196
 4392SOL     OW15072   4.446   7.669  13.176
 4392SOL    HW115073   4.479   7.738  13.233
 4392SOL    HW215074   4.426   7.597  13.236
 4393SOL     OW15075   1.911  13.798  14.786
 4393SOL    HW115076   1.839  13.828  14.730
 4393SOL    HW215077   1.981  13.777  14.725
 4394SOL     OW15078  12.190   0.755   0.495
 4394SOL    HW115079  12.217   0.847   0.495
 4394SOL    HW215080  12.174   0.734   0.403
 4395SOL     OW15081   6.987  10.842   5.833
 4395SOL    HW115082   6.946  10.878   5.755
 4395SOL    HW215083   6.914  10.810   5.886
 4396SOL     OW15084   2.387  10.121  10.435
 4396SOL    HW115085   2.426  10.067  10.366
 4396SOL    HW215086   2.298  10.087  10.445
 4397SOL     OW15087   3.608   3.269  14.252
 4397SOL    HW115088   3.535   3.306  14.301
 4397SOL    HW215089   3.613   3.178  14.281
 4398SOL     OW15090  12.974   8.211   7.828
 4398SOL    HW115091  12.988   8.304   7.813
 4398SOL    HW215092  12.893   8.191   7.780
 4399SOL     OW15093   0.877   5.447   0.760
 4399SOL    HW115094   0.800   5.461   0.705
 4399SOL    HW215095   0.921   5.371   0.721
 4400SOL     OW15096   2.231   3.552   0.566
 4400SOL    HW115097   2.284   3.570   0.644
 4400SOL    HW215098   2.244   3.629   0.510
 4401SOL     OW15099   9.648   6.830  12.532
 4401SOL    HW115100   9.670   6.741  12.559
 4401SOL    HW215101   9.635   6.877  12.614
 4402SOL     OW15102   9.380   3.960  13.973
 4402SOL    HW115103   9.292   3.986  13.945
 4402SOL    HW215104   9.424   4.042  13.994
 4403SOL     OW15105  13.683  11.700  13.050
 4403SOL    HW115106  13.721  11.644  13.118
 4403SOL    HW215107  13.731  11.783  13.057
 4404SOL     OW15108   4.551   5.220   5.225
 4404SOL    HW115109   4.458   5.221   5.245
 4404SOL    HW215110   4.594   5.223   5.310
 4405SOL     OW15111  10.070  12.183   1.725
 4405SOL    HW115112   9.996  12.169   1.666
 4405SOL    HW215113  10.078  12.100   1.772
 4406SOL     OW15114   3.987  13.010   0.476
 4406SOL    HW115115   4.014  12.926   0.439
 4406SOL    HW215116   4.057  13.034   0.537
 4407SOL     OW15117   9.335  13.482  13.212
 4407SOL    HW115118   9.333  13.388  13.234
 4407SOL    HW215119   9.271  13.521  13.272
 4408SOL     OW15120  10.550   2.829   0.680
 4408SOL    HW115121  10.532   2.736   0.693
 4408SOL    HW215122  10.640   2.841   0.711
 4409SOL     OW15123   4.958   1.974   9.409
 4409SOL    HW115124   5.027   2.006   9.467
 4409SOL    HW215125   4.965   1.879   9.412
 4410SOL     OW15126   7.825  10.444   6.160
 4410SOL    HW115127   7.908  10.485   6.182
 4410SOL    HW215128   7.806  10.473   6.071
 4411SOL     OW15129   7.287   4.617   2.131
 4411SOL    HW115130   7.243   4.698   2.105
 4411SOL    HW215131   7.321   4.581   2.049
 4412SOL     OW15132   0.657   3.560   4.837
 4412SOL    HW115133   0.613   3.504   4.902
 4412SOL    HW215134   0.726   3.506   4.800
 4413SOL     OW15135   3.691   9.614   1.024
 4413SOL    HW115136   3.763   9.554   1.006
 4413SOL    HW215137   3.635   9.567   1.086
 4414SOL     OW15138   8.802   2.477   4.566
 4414SOL    HW115139   8.726   2.505   4.514
 4414SOL    HW215140   8.800   2.533   4.643
 4415SOL     OW15141  13.657   7.735   6.531
 4415SOL    HW115142  13.581   7.677   6.537
 4415SOL    HW215143  13.721   7.697   6.591
 4416SOL     OW15144   1.499  14.572  11.646
 4416SOL    HW115145   1.578  14.623  11.628
 4416SOL    HW215146   1.442  14.634  11.693
 4417SOL     OW15147  14.759   3.947  11.212
 4417SOL    HW115148  14.732   3.855  11.208
 4417SOL    HW215149  14.708   3.989  11.143
 4418SOL     OW15150   3.596   7.382  14.139
 4418SOL    HW115151   3.678   7.348  14.102
 4418SOL    HW215152   3.589   7.471  14.105
 4419SOL     OW15153   0.094   0.350   7.712
 4419SOL    HW115154   0.050   0.313   7.789
 4419SOL    HW215155   0.044   0.428   7.691
 4420SOL     OW15156   5.754  11.637  11.509
 4420SOL    HW115157   5.767  11.693  11.586
 4420SOL    HW215158   5.827  11.659  11.451
 4421SOL     OW15159  11.247   7.772   8.046
 4421SOL    HW115160  11.273   7.731   8.128
 4421SOL    HW215161  11.325   7.768   7.991
 4422SOL     OW15162   6.922  11.560  14.033
 4422SOL    HW115163   6.895  11.570  13.942
 4422SOL    HW215164   6.960  11.645  14.057
 4423SOL     OW15165  13.778  11.949   9.379
 4423SOL    HW115166  13.827  11.955   9.298
 4423SOL    HW215167  13.770  11.855   9.395
 4424SOL     OW15168   3.317   4.535  10.217
 4424SOL    HW115169   3.245   4.512  10.159
 4424SOL    HW215170   3.316   4.631  10.220
 4425SOL     OW15171   9.924   3.297  14.655
 4425SOL    HW115172   9.858   3.297  14.586
 4425SOL    HW215173   9.997   3.347  14.619
 4426SOL     OW15174   9.296   7.389   3.993
 4426SOL    HW115175   9.284   7.433   4.076
 4426SOL    HW215176   9.293   7.296   4.014
 4427SOL     OW15177  14.245   8.834   2.246
 4427SOL    HW115178  14.195   8.915   2.234
 4427SOL    HW215179  14.213   8.799   2.329
 4428SOL     OW15180   8.221  14.080   1.838
 4428SOL    HW115181   8.170  14.132   1.776
 4428SOL    HW215182   8.303  14.061   1.792
 4429SOL     OW15183   4.269   5.221   7.381
 4429SOL    HW115184   4.247   5.312   7.402
 4429SOL    HW215185   4.365   5.218   7.384
 4430SOL     OW15186  14.632   9.934  10.029
 4430SOL    HW115187  14.716   9.928   9.983
 4430SOL    HW215188  14.579   9.864   9.991
 4431SOL     OW15189   6.406  13.861   8.680
 4431SOL    HW115190   6.321  13.888   8.645
 4431SOL    HW215191   6.385  13.790   8.740
 4432SOL     OW15192   7.092   2.627   5.263
 4432SOL    HW115193   7.036   2.592   5.332
 4432SOL    HW215194   7.031   2.659   5.197
 4433SOL     OW15195  11.084  11.064   1.912
 4433SOL    HW115196  11.030  11.029   1.841
 4433SOL    HW215197  11.129  10.987   1.948
 4434SOL     OW15198  10.875   4.427   5.423
 4434SOL    HW115199  10.892   4.474   5.341
 4434SOL    HW215200  10.811   4.360   5.399
 4435SOL     OW15201  10.427   6.887   8.152
 4435SOL    HW115202  10.503   6.878   8.094
 4435SOL    HW215203  10.451   6.839   8.231
 4436SOL     OW15204  13.676  10.341  13.737
 4436SOL    HW115205  13.707  10.377  13.821
 4436SOL    HW215206  13.582  10.359  13.736
 4437SOL     OW15207   6.966   7.512   5.213
 4437SOL    HW115208   6.917   7.571   5.270
 4437SOL    HW215209   7.056   7.519   5.242
 4438SOL     OW15210   6.882   3.044   2.330
 4438SOL    HW115211   6.884   3.091   2.413
 4438SOL    HW215212   6.855   3.111   2.266
 4439SOL     OW15213   4.734   7.876   4.910
 4439SOL    HW115214   4.758   7.953   4.859
 4439SOL    HW215215   4.766   7.801   4.859
 4440SOL     OW15216   0.490   5.397   5.291
 4440SOL    HW115217   0.503   5.302   5.285
 4440SOL    HW215218   0.578   5.433   5.277
 4441SOL     OW15219   7.825   4.019  11.640
 4441SOL    HW115220   7.860   3.936  11.609
 4441SOL    HW215221   7.901   4.076  11.650
 4442SOL     OW15222   0.324   6.798   3.536
 4442SOL    HW115223   0.362   6.885   3.528
 4442SOL    HW215224   0.383   6.751   3.594
 4443SOL     OW15225  13.867   3.677  10.194
 4443SOL    HW115226  13.806   3.749  10.209
 4443SOL    HW215227  13.906   3.696  10.108
 4444SOL     OW15228  10.533   8.477  10.807
 4444SOL    HW115229  10.555   8.489  10.900
 4444SOL    HW215230  10.471   8.405  10.807
 4445SOL     OW15231  11.204   8.853   5.364
 4445SOL    HW115232  11.161   8.887   5.442
 4445SOL    HW215233  11.160   8.896   5.291
 4446SOL     OW15234   8.805   5.817   2.962
 4446SOL    HW115235   8.831   5.888   3.021
 4446SOL    HW215236   8.826   5.850   2.875
 4447SOL     OW15237   5.521   9.629   9.710
 4447SOL    HW115238   5.486   9.613   9.798
 4447SOL    HW215239   5.480   9.711   9.683
 4448SOL     OW15240   9.134   2.653   4.736
 4448SOL    HW115241   9.137   2.591   4.663
 4448SOL    HW215242   9.041   2.661   4.757
 4449SOL     OW15243   4.971   7.631   0.128
 4449SOL    HW115244   4.889   7.581   0.130
 4449SOL    HW215245   5.009   7.618   0.215
 4450SOL     OW15246   2.510   2.990   7.768
 4450SOL    HW115247   2.453   3.021   7.698
 4450SOL    HW215248   2.569   3.063   7.786
 4451SOL     OW15249   0.393   3.342   7.611
 4451SOL    HW115250   0.423   3.251   7.608
 4451SOL    HW215251   0.353   3.351   7.697
 4452SOL     OW15252  13.215   4.772   6.270
 4452SOL    HW115253  13.137   4.755   6.323
 4452SOL    HW215254  13.221   4.867   6.265
 4453SOL     OW15255  10.009  12.763   3.578
 4453SOL    HW115256   9.936  12.702   3.563
 4453SOL    HW215257   9.968  12.843   3.610
 4454SOL     OW15258   0.764   5.076   6.563
 4454SOL    HW115259   0.837   5.018   6.539
 4454SOL    HW215260   0.781   5.100   6.654
 4455SOL     OW15261   4.064   0.360   2.418
 4455SOL    HW115262   4.095   0.430   2.475
 4455SOL    HW215263   4.009   0.404   2.354
 4456SOL     OW15264   7.054   6.780   9.319
 4456SOL    HW115265   6.994   6.833   9.266
 4456SOL    HW215266   7.002   6.754   9.395
 4457SOL     OW15267  14.004   8.486   3.412
 4457SOL    HW115268  13.929   8.525   3.458
 4457SOL    HW215269  13.972   8.400   3.383
 4458SOL     OW15270   4.669   4.827   8.076
 4458SOL    HW115271   4.644   4.781   7.996
 4458SOL    HW215272   4.733   4.892   8.048
 4459SOL     OW15273  13.295  11.099   5.026
 4459SOL    HW115274  13.299  11.091   5.121
 4459SOL    HW215275  13.386  11.091   4.997
 4460SOL     OW15276   0.777   6.802  14.779
 4460SOL    HW115277   0.726   6.802  14.699
 4460SOL    HW215278   0.807   6.712  14.789
 4461SOL     OW15279  10.143   5.709   7.066
 4461SOL    HW115280  10.224   5.731   7.019
 4461SOL    HW215281  10.164   5.626   7.110
 4462SOL     OW15282   3.240  14.770   2.627
 4462SOL    HW115283   3.291  14.695   2.657
 4462SOL    HW215284   3.213  14.747   2.538
 4463SOL     OW15285   4.545   4.922   0.828
 4463SOL    HW115286   4.571   4.903   0.737
 4463SOL    HW215287   4.564   4.841   0.875
 4464SOL     OW15288   1.717   1.579  12.999
 4464SOL    HW115289   1.669   1.521  12.939
 4464SOL    HW215290   1.662   1.658  13.005
 4465SOL     OW15291   3.835   5.924   2.161
 4465SOL    HW115292   3.831   6.010   2.205
 4465SOL    HW215293   3.756   5.878   2.190
 4466SOL     OW15294  12.959   9.896  12.273
 4466SOL    HW115295  12.980   9.959  12.204
 4466SOL    HW215296  12.975   9.810  12.233
 4467SOL     OW15297   1.655   3.837   4.346
 4467SOL    HW115298   1.596   3.841   4.422
 4467SOL    HW215299   1.597   3.841   4.270
 4468SOL     OW15300  12.958   1.774  12.867
 4468SOL    HW115301  12.912   1.745  12.788
 4468SOL    HW215302  13.003   1.855  12.840
 4469SOL     OW15303  12.891   4.116  12.333
 4469SOL    HW115304  12.798   4.093  12.331
 4469SOL    HW215305  12.912   4.126  12.425
 4470SOL     OW15306   7.527   4.237   4.818
 4470SOL    HW115307   7.434   4.224   4.836
 4470SOL    HW215308   7.529   4.307   4.753
 4471SOL     OW15309   2.810   1.026   5.344
 4471SOL    HW115310   2.891   1.065   5.311
 4471SOL    HW215311   2.768   0.990   5.266
 4472SOL     OW15312  14.306   1.850  13.911
 4472SOL    HW115313  14.368   1.779  13.928
 4472SOL    HW215314  14.233   1.833  13.970
 4473SOL     OW15315   5.566   4.253  13.941
 4473SOL    HW115316   5.502   4.249  14.012
 4473SOL    HW215317   5.650   4.231  13.982
 4474SOL     OW15318  11.419   9.075  11.195
 4474SOL    HW115319  11.425   9.025  11.276
 4474SOL    HW215320  11.325   9.084  11.180
 4475SOL     OW15321   8.251   8.161   3.716
 4475SOL    HW115322   8.256   8.184   3.623
 4475SOL    HW215323   8.159   8.174   3.739
 4476SOL     OW15324   3.405   6.101   2.917
 4476SOL    HW115325   3.480   6.161   2.916
 4476SOL    HW215326   3.368   6.108   2.829
 4477SOL     OW15327   2.344   7.867  14.684
 4477SOL    HW115328   2.262   7.828  14.713
 4477SOL    HW215329   2.326   7.961  14.680
 4478SOL     OW15330   4.949   1.887  11.679
 4478SOL    HW115331   4.861   1.914  11.701
 4478SOL    HW215332   4.975   1.829  11.751
 4479SOL     OW15333   5.901   1.582   8.660
 4479SOL    HW115334   5.969   1.650   8.652
 4479SOL    HW215335   5.920   1.521   8.589
 4480SOL     OW15336  11.848   7.880  12.422
 4480SOL    HW115337  11.820   7.971  12.431
 4480SOL    HW215338  11.864   7.868  12.329
 4481SOL     OW15339   5.110   5.681  10.268
 4481SOL    HW115340   5.138   5.763  10.227
 4481SOL    HW215341   5.017   5.675  10.249
 4482SOL     OW15342  14.740   2.046   8.480
 4482SOL    HW115343  14.731   2.059   8.575
 4482SOL    HW215344  14.746   1.951   8.470
 4483SOL     OW15345   6.212   4.472   2.430
 4483SOL    HW115346   6.256   4.466   2.346
 4483SOL    HW215347   6.283   4.479   2.494
 4484SOL     OW15348   6.273   9.400  12.660
 4484SOL    HW115349   6.200   9.418  12.601
 4484SOL    HW215350   6.334   9.349  12.607
 4485SOL     OW15351   2.097   0.429  12.859
 4485SOL    HW115352   2.088   0.487  12.934
 4485SOL    HW215353   2.120   0.488  12.786
 4486SOL     OW15354  11.011   8.689   1.474
 4486SOL    HW115355  10.983   8.636   1.549
 4486SOL    HW215356  11.032   8.774   1.512
 4487SOL     OW15357   1.179  14.532   2.446
 4487SOL    HW115358   1.145  14.620   2.426
 4487SOL    HW215359   1.258  14.547   2.498
 4488SOL     OW15360   9.141   2.107  11.881
 4488SOL    HW115361   9.060   2.096  11.830
 4488SOL    HW215362   9.211   2.082  11.820
 4489SOL     OW15363  10.634   7.497   0.401
 4489SOL    HW115364  10.674   7.531   0.481
 4489SOL    HW215365  10.706   7.453   0.355
 4490SOL     OW15366   1.903   7.097   8.675
 4490SOL    HW115367   1.982   7.142   8.705
 4490SOL    HW215368   1.832   7.156   8.697
 4491SOL     OW15369   7.007   1.392   5.277
 4491SOL    HW115370   7.087   1.438   5.254
 4491SOL    HW215371   7.037   1.314   5.324
 4492SOL     OW15372  13.712   2.600   9.042
 4492SOL    HW115373  13.790   2.548   9.062
 4492SOL    HW215374  13.640   2.547   9.075
 4493SOL     OW15375   6.500  11.221   1.970
 4493SOL    HW115376   6.577  11.164   1.970
 4493SOL    HW215377   6.520  11.289   1.906
 4494SOL     OW15378  11.334   4.637   3.657
 4494SOL    HW115379  11.416   4.592   3.638
 4494SOL    HW215380  11.268   4.589   3.606
 4495SOL     OW15381  11.500   3.309  13.654
 4495SOL    HW115382  11.551   3.353  13.586
 4495SOL    HW215383  11.441   3.376  13.687
 4496SOL     OW15384   0.194  11.909  10.514
 4496SOL    HW115385   0.268  11.876  10.463
 4496SOL    HW215386   0.233  11.972  10.575
 4497SOL     OW15387   8.141   8.644   6.714
 4497SOL    HW115388   8.233   8.619   6.705
 4497SOL    HW215389   8.099   8.569   6.755
 4498SOL     OW15390  11.857   8.211  12.907
 4498SOL    HW115391  11.804   8.175  12.836
 4498SOL    HW215392  11.947   8.189  12.883
 4499SOL     OW15393   4.552  13.050   0.241
 4499SOL    HW115394   4.491  12.994   0.289
 4499SOL    HW215395   4.510  13.136   0.239
 4500SOL     OW15396   1.079   1.310   0.234
 4500SOL    HW115397   1.108   1.283   0.322
 4500SOL    HW215398   1.160   1.322   0.185
 4501SOL     OW15399   1.837  10.017   3.599
 4501SOL    HW115400   1.878  10.099   3.628
 4501SOL    HW215401   1.785  10.043   3.522
 4502SOL     OW15402   9.045   0.189  12.504
 4502SOL    HW115403   9.107   0.118  12.485
 4502SOL    HW215404   9.079   0.264  12.454
 4503SOL     OW15405  12.785   6.835   3.546
 4503SOL    HW115406  12.810   6.767   3.484
 4503SOL    HW215407  12.774   6.914   3.493
 4504SOL     OW15408  10.650   4.629   9.523
 4504SOL    HW115409  10.605   4.564   9.577
 4504SOL    HW215410  10.743   4.612   9.537
 4505SOL     OW15411   7.144   1.197   2.517
 4505SOL    HW115412   7.152   1.285   2.479
 4505SOL    HW215413   7.058   1.166   2.488
 4506SOL     OW15414   1.002   6.019  14.584
 4506SOL    HW115415   1.079   6.061  14.622
 4506SOL    HW215416   1.027   5.999  14.494
 4507SOL     OW15417   7.428   3.978  14.566
 4507SOL    HW115418   7.369   3.935  14.627
 4507SOL    HW215419   7.422   3.926  14.485
 4508SOL     OW15420   2.840  14.009  14.004
 4508SOL    HW115421   2.854  13.915  14.009
 4508SOL    HW215422   2.751  14.022  14.037
 4509SOL     OW15423  11.403   7.221  10.763
 4509SOL    HW115424  11.346   7.207  10.838
 4509SOL    HW215425  11.364   7.294  10.716
 4510SOL     OW15426   4.010  11.572   5.844
 4510SOL    HW115427   4.096  11.611   5.856
 4510SOL    HW215428   4.023  11.478   5.859
 4511SOL     OW15429  13.570  12.419   7.042
 4511SOL    HW115430  13.551  12.434   7.134
 4511SOL    HW215431  13.485  12.404   7.001
 4512SOL     OW15432  14.227   8.177   1.211
 4512SOL    HW115433  14.153   8.192   1.153
 4512SOL    HW215434  14.213   8.237   1.284
 4513SOL     OW15435  13.110  12.749   1.571
 4513SOL    HW115436  13.125  12.797   1.489
 4513SOL    HW215437  13.145  12.807   1.639
 4514SOL     OW15438   4.350   3.656  11.752
 4514SOL    HW115439   4.306   3.681  11.671
 4514SOL    HW215440   4.279   3.635  11.812
 4515SOL     OW15441   4.724   5.034   0.231
 4515SOL    HW115442   4.744   5.007   0.141
 4515SOL    HW215443   4.629   5.044   0.231
 4516SOL     OW15444  14.724   0.956   2.589
 4516SOL    HW115445  14.649   0.897   2.593
 4516SOL    HW215446  14.789   0.915   2.647
 4517SOL     OW15447  12.147   4.424  10.075
 4517SOL    HW115448  12.224   4.438  10.020
 4517SOL    HW215449  12.073   4.451  10.020
 4518SOL     OW15450  12.246  13.266  10.106
 4518SOL    HW115451  12.252  13.237  10.197
 4518SOL    HW215452  12.240  13.361  10.111
 4519SOL     OW15453   1.085   3.174  14.183
 4519SOL    HW115454   1.014   3.236  14.169
 4519SOL    HW215455   1.047   3.105  14.238
 4520SOL     OW15456  13.060   8.619   7.508
 4520SOL    HW115457  13.133   8.577   7.462
 4520SOL    HW215458  13.023   8.550   7.562
 4521SOL     OW15459   9.337   3.160   2.891
 4521SOL    HW115460   9.354   3.247   2.853
 4521SOL    HW215461   9.288   3.178   2.971
 4522SOL     OW15462   5.195   8.774  10.767
 4522SOL    HW115463   5.259   8.845  10.770
 4522SOL    HW215464   5.111   8.816  10.782
 4523SOL     OW15465   9.854   2.330  14.323
 4523SOL    HW115466   9.808   2.413  14.310
 4523SOL    HW215467   9.908   2.321  14.244
 4524SOL     OW15468   8.092   3.908   2.770
 4524SOL    HW115469   8.082   3.909   2.866
 4524SOL    HW215470   8.085   3.999   2.744
 4525SOL     OW15471   2.821   3.193  10.489
 4525SOL    HW115472   2.742   3.247  10.487
 4525SOL    HW215473   2.860   3.210  10.575
 4526SOL     OW15474   7.151   2.936   8.210
 4526SOL    HW115475   7.191   2.944   8.297
 4526SOL    HW215476   7.224   2.934   8.150
 4527SOL     OW15477  11.311   5.022   2.644
 4527SOL    HW115478  11.401   5.022   2.612
 4527SOL    HW215479  11.287   4.929   2.648
 4528SOL     OW15480  13.778   3.011   6.738
 4528SOL    HW115481  13.850   2.948   6.734
 4528SOL    HW215482  13.813   3.084   6.789
 4529SOL     OW15483   5.538   9.969   2.196
 4529SOL    HW115484   5.518   9.876   2.184
 4529SOL    HW215485   5.622   9.981   2.152
 4530SOL     OW15486   8.602   9.352   5.699
 4530SOL    HW115487   8.524   9.339   5.753
 4530SOL    HW215488   8.645   9.428   5.737
 4531SOL     OW15489   9.404  14.301   2.778
 4531SOL    HW115490   9.321  14.325   2.820
 4531SOL    HW215491   9.408  14.354   2.699
 4532SOL     OW15492   5.134   0.935   0.889
 4532SOL    HW115493   5.063   0.876   0.914
 4532SOL    HW215494   5.100   0.984   0.814
 4533SOL     OW15495  12.180   3.556  11.994
 4533SOL    HW115496  12.210   3.635  12.038
 4533SOL    HW215497  12.117   3.517  12.055
 4534SOL     OW15498   5.231   2.227   7.709
 4534SOL    HW115499   5.208   2.150   7.659
 4534SOL    HW215500   5.157   2.242   7.767
 4535SOL     OW15501  13.012   6.592  12.087
 4535SOL    HW115502  12.978   6.626  12.004
 4535SOL    HW215503  13.100   6.561  12.066
 4536SOL     OW15504   6.189   6.460   2.457
 4536SOL    HW115505   6.216   6.429   2.371
 4536SOL    HW215506   6.270   6.481   2.502
 4537SOL     OW15507   6.243   3.192   5.356
 4537SOL    HW115508   6.206   3.241   5.430
 4537SOL    HW215509   6.166   3.168   5.303
 4538SOL     OW15510  10.460   5.143  11.241
 4538SOL    HW115511  10.393   5.109  11.301
 4538SOL    HW215512  10.412   5.166  11.162
 4539SOL     OW15513  10.854  10.217   5.446
 4539SOL    HW115514  10.846  10.304   5.406
 4539SOL    HW215515  10.903  10.166   5.381
 4540SOL     OW15516   1.193   1.719  10.941
 4540SOL    HW115517   1.198   1.785  10.872
 4540SOL    HW215518   1.102   1.691  10.940
 4541SOL     OW15519   6.845  10.847   6.948
 4541SOL    HW115520   6.762  10.856   6.994
 4541SOL    HW215521   6.826  10.787   6.876
 4542SOL     OW15522  12.457   1.731   3.509
 4542SOL    HW115523  12.402   1.752   3.584
 4542SOL    HW215524  12.546   1.752   3.537
 4543SOL     OW15525   5.829  14.595   7.903
 4543SOL    HW115526   5.912  14.553   7.882
 4543SOL    HW215527   5.850  14.688   7.907
 4544SOL     OW15528  11.861   9.658   4.374
 4544SOL    HW115529  11.836   9.655   4.467
 4544SOL    HW215530  11.798   9.718   4.335
 4545SOL     OW15531   0.792   3.721  10.794
 4545SOL    HW115532   0.811   3.691  10.883
 4545SOL    HW215533   0.758   3.809  10.805
 4546SOL     OW15534  14.628   7.027   8.552
 4546SOL    HW115535  14.634   6.979   8.469
 4546SOL    HW215536  14.535   7.021   8.576
 4547SOL     OW15537   5.458  11.940   2.301
 4547SOL    HW115538   5.474  12.020   2.251
 4547SOL    HW215539   5.385  11.897   2.256
 4548SOL     OW15540   7.160  13.082   4.867
 4548SOL    HW115541   7.064  13.077   4.868
 4548SOL    HW215542   7.187  13.028   4.942
 4549SOL     OW15543  10.217   7.999   4.736
 4549SOL    HW115544  10.145   7.937   4.745
 4549SOL    HW215545  10.277   7.958   4.673
 4550SOL     OW15546   3.488   1.898  12.753
 4550SOL    HW115547   3.459   1.894  12.662
 4550SOL    HW215548   3.418   1.944  12.798
 4551SOL     OW15549   9.681  12.566   4.811
 4551SOL    HW115550   9.694  12.619   4.733
 4551SOL    HW215551   9.601  12.517   4.793
 4552SOL     OW15552  12.163  14.636   7.653
 4552SOL    HW115553  12.231  14.648   7.587
 4552SOL    HW215554  12.145  14.724   7.686
 4553SOL     OW15555   9.363   2.226  13.138
 4553SOL    HW115556   9.390   2.309  13.178
 4553SOL    HW215557   9.313   2.182  13.206
 4554SOL     OW15558   8.584  14.234  13.779
 4554SOL    HW115559   8.532  14.160  13.809
 4554SOL    HW215560   8.601  14.216  13.686
 4555SOL     OW15561   0.039   7.208   2.122
 4555SOL    HW115562   0.123   7.216   2.077
 4555SOL    HW215563   0.022   7.114   2.126
 4556SOL     OW15564   6.334   5.226   1.740
 4556SOL    HW115565   6.277   5.181   1.801
 4556SOL    HW215566   6.291   5.216   1.655
 4557SOL     OW15567  13.576   6.630   9.186
 4557SOL    HW115568  13.539   6.716   9.206
 4557SOL    HW215569  13.614   6.600   9.269
 4558SOL     OW15570   3.465   8.652   1.771
 4558SOL    HW115571   3.384   8.653   1.720
 4558SOL    HW215572   3.436   8.667   1.861
 4559SOL     OW15573   5.655   0.226   0.500
 4559SOL    HW115574   5.623   0.286   0.567
 4559SOL    HW215575   5.682   0.148   0.549
 4560SOL     OW15576  11.114   5.844  11.291
 4560SOL    HW115577  11.049   5.911  11.312
 4560SOL    HW215578  11.125   5.851  11.196
 4561SOL     OW15579   7.573   5.863   1.936
 4561SOL    HW115580   7.511   5.866   1.863
 4561SOL    HW215581   7.555   5.943   1.986
 4562SOL     OW15582   3.242   7.762   6.688
 4562SOL    HW115583   3.209   7.684   6.732
 4562SOL    HW215584   3.336   7.749   6.683
 4563SOL     OW15585   1.599   3.106   3.223
 4563SOL    HW115586   1.619   3.121   3.130
 4563SOL    HW215587   1.684   3.103   3.265
 4564SOL     OW15588   9.834  11.239   4.294
 4564SOL    HW115589   9.798  11.153   4.273
 4564SOL    HW215590   9.929  11.225   4.297
 4565SOL     OW15591   0.765  12.897  10.515
 4565SOL    HW115592   0.837  12.914  10.454
 4565SOL    HW215593   0.807  12.888  10.600
 4566SOL     OW15594   9.251   7.633  14.503
 4566SOL    HW115595   9.272   7.547  14.540
 4566SOL    HW215596   9.182   7.615  14.439
 4567SOL     OW15597  11.397   9.479  10.758
 4567SOL    HW115598  11.359   9.542  10.697
 4567SOL    HW215599  11.381   9.517  10.844
 4568SOL     OW15600   9.611   3.781   9.555
 4568SOL    HW115601   9.657   3.864   9.549
 4568SOL    HW215602   9.599   3.753   9.464
 4569SOL     OW15603   3.913   3.269   5.140
 4569SOL    HW115604   3.895   3.331   5.210
 4569SOL    HW215605   3.884   3.185   5.175
 4570SOL     OW15606  13.888   2.715   8.711
 4570SOL    HW115607  13.888   2.756   8.798
 4570SOL    HW215608  13.964   2.753   8.667
 4571SOL     OW15609  11.148  10.629   4.578
 4571SOL    HW115610  11.138  10.708   4.631
 4571SOL    HW215611  11.121  10.655   4.490
 4572SOL     OW15612  13.819   4.140  10.695
 4572SOL    HW115613  13.774   4.196  10.631
 4572SOL    HW215614  13.755   4.128  10.765
 4573SOL     OW15615   2.820   9.894   8.839
 4573SOL    HW115616   2.816   9.844   8.758
 4573SOL    HW215617   2.913   9.896   8.861
 4574SOL     OW15618   9.203   1.925  12.522
 4574SOL    HW115619   9.116   1.887  12.529
 4574SOL    HW215620   9.241   1.884  12.444
 4575SOL     OW15621  10.029   5.351   3.738
 4575SOL    HW115622  10.118   5.385   3.745
 4575SOL    HW215623  10.007   5.362   3.645
 4576SOL     OW15624  12.703  13.186  13.762
 4576SOL    HW115625  12.634  13.253  13.761
 4576SOL    HW215626  12.684  13.133  13.839
 4577SOL     OW15627   7.012  14.794  11.083
 4577SOL    HW115628   7.003  14.877  11.036
 4577SOL    HW215629   6.981  14.728  11.021
 4578SOL     OW15630   2.426  13.042   0.046
 4578SOL    HW115631   2.386  13.129   0.044
 4578SOL    HW215632   2.514  13.055   0.011
 4579SOL     OW15633   7.494   0.756   8.468
 4579SOL    HW115634   7.471   0.820   8.400
 4579SOL    HW215635   7.414   0.747   8.520
 4580SOL     OW15636   8.931  14.295   3.038
 4580SOL    HW115637   8.841  14.269   3.016
 4580SOL    HW215638   8.921  14.362   3.106
 4581SOL     OW15639  11.013   1.149   0.333
 4581SOL    HW115640  10.962   1.121   0.258
 4581SOL    HW215641  11.094   1.097   0.328
 4582SOL     OW15642   4.149   7.935   9.349
 4582SOL    HW115643   4.162   7.981   9.431
 4582SOL    HW215644   4.099   7.996   9.294
 4583SOL     OW15645   2.667   8.962  13.245
 4583SOL    HW115646   2.723   9.039  13.256
 4583SOL    HW215647   2.579   8.994  13.264
 4584SOL     OW15648   7.096   7.212   1.313
 4584SOL    HW115649   7.016   7.241   1.356
 4584SOL    HW215650   7.124   7.287   1.261
 4585SOL     OW15651   0.581   8.985  11.908
 4585SOL    HW115652   0.521   8.942  11.848
 4585SOL    HW215653   0.530   9.000  11.987
 4586SOL     OW15654   3.259  10.927  14.616
 4586SOL    HW115655   3.302  10.855  14.569
 4586SOL    HW215656   3.178  10.888  14.649
 4587SOL     OW15657   7.457  10.923   4.749
 4587SOL    HW115658   7.434  11.015   4.735
 4587SOL    HW215659   7.417  10.901   4.833
 4588SOL     OW15660  14.666  13.424   4.957
 4588SOL    HW115661  14.749  13.430   4.911
 4588SOL    HW215662  14.631  13.338   4.935
 4589SOL     OW15663   7.071   1.056   3.750
 4589SOL    HW115664   7.107   1.121   3.690
 4589SOL    HW215665   7.117   0.975   3.729
 4590SOL     OW15666   8.448  11.310   6.658
 4590SOL    HW115667   8.359  11.281   6.637
 4590SOL    HW215668   8.505  11.249   6.610
 4591SOL     OW15669   7.639  11.666   1.890
 4591SOL    HW115670   7.614  11.677   1.798
 4591SOL    HW215671   7.725  11.709   1.897
 4592SOL     OW15672   4.317  13.639   7.336
 4592SOL    HW115673   4.330  13.625   7.430
 4592SOL    HW215674   4.387  13.589   7.295
 4593SOL     OW15675  11.251   4.841   5.396
 4593SOL    HW115676  11.275   4.813   5.485
 4593SOL    HW215677  11.161   4.812   5.385
 4594SOL     OW15678  14.115  13.354   8.000
 4594SOL    HW115679  14.168  13.283   8.036
 4594SOL    HW215680  14.163  13.434   8.023
 4595SOL     OW15681  14.154   0.868  13.645
 4595SOL    HW115682  14.153   0.799  13.712
 4595SOL    HW215683  14.220   0.838  13.582
 4596SOL     OW15684  11.362   8.653  13.665
 4596SOL    HW115685  11.383   8.633  13.756
 4596SOL    HW215686  11.375   8.748  13.658
 4597SOL     OW15687  12.541   3.317  14.624
 4597SOL    HW115688  12.487   3.393  14.601
 4597SOL    HW215689  12.533   3.308  14.719
 4598SOL     OW15690  13.907  14.764   4.396
 4598SOL    HW115691  13.843  14.727   4.457
 4598SOL    HW215692  13.870  14.848   4.370
 4599SOL     OW15693  12.895   6.659  10.692
 4599SOL    HW115694  12.817   6.712  10.678
 4599SOL    HW215695  12.962   6.699  10.638
 4600SOL     OW15696   9.796   1.605  13.923
 4600SOL    HW115697   9.888   1.584  13.941
 4600SOL    HW215698   9.750   1.522  13.933
 4601SOL     OW15699   1.061  12.493  11.904
 4601SOL    HW115700   0.992  12.560  11.899
 4601SOL    HW215701   1.108  12.501  11.821
 4602SOL     OW15702   4.905   2.168  12.040
 4602SOL    HW115703   4.962   2.243  12.018
 4602SOL    HW215704   4.893   2.174  12.134
 4603SOL     OW15705   7.407   8.207   8.917
 4603SOL    HW115706   7.494   8.247   8.919
 4603SOL    HW215707   7.406   8.153   8.838
 4604SOL     OW15708   2.077   0.636   0.174
 4604SOL    HW115709   1.995   0.650   0.220
 4604SOL    HW215710   2.057   0.572   0.106
 4605SOL     OW15711   9.541   9.072   4.189
 4605SOL    HW115712   9.616   9.118   4.227
 4605SOL    HW215713   9.565   8.980   4.192
 4606SOL     OW15714   8.149   2.037  11.059
 4606SOL    HW115715   8.225   1.980  11.069
 4606SOL    HW215716   8.169   2.113  11.114
 4607SOL     OW15717  13.606  14.834   4.248
 4607SOL    HW115718  13.623  14.759   4.191
 4607SOL    HW215719  13.572   0.021   4.189
 4608SOL     OW15720  11.540  11.382   4.744
 4608SOL    HW115721  11.464  11.402   4.798
 4608SOL    HW215722  11.613  11.374   4.807
 4609SOL     OW15723   3.285  12.783   2.227
 4609SOL    HW115724   3.369  12.805   2.268
 4609SOL    HW215725   3.220  12.807   2.293
 4610SOL     OW15726   5.873   8.409   1.788
 4610SOL    HW115727   5.855   8.500   1.813
 4610SOL    HW215728   5.882   8.362   1.871
 4611SOL     OW15729   2.600   5.827  13.062
 4611SOL    HW115730   2.579   5.746  13.109
 4611SOL    HW215731   2.515   5.865  13.041
 4612SOL     OW15732  12.311  11.447   1.571
 4612SOL    HW115733  12.365  11.419   1.645
 4612SOL    HW215734  12.361  11.420   1.494
 4613SOL     OW15735   0.417   7.962  13.348
 4613SOL    HW115736   0.437   7.949  13.441
 4613SOL    HW215737   0.333   7.917  13.335
 4614SOL     OW15738   0.017   9.425   7.820
 4614SOL    HW115739  14.879   9.468   7.904
 4614SOL    HW215740   0.102   9.383   7.833
 4615SOL     OW15741  10.961   8.000   4.146
 4615SOL    HW115742  10.902   8.070   4.176
 4615SOL    HW215743  10.903   7.937   4.105
 4616SOL     OW15744   1.121   6.025   5.673
 4616SOL    HW115745   1.131   6.080   5.595
 4616SOL    HW215746   1.149   6.082   5.745
 4617SOL     OW15747   9.948   8.082  10.929
 4617SOL    HW115748   9.962   8.010  10.867
 4617SOL    HW215749   9.935   8.039  11.013
 4618SOL     OW15750   4.050   1.456  11.091
 4618SOL    HW115751   4.098   1.375  11.104
 4618SOL    HW215752   4.114   1.517  11.056
 4619SOL     OW15753   7.099   6.301   8.438
 4619SOL    HW115754   7.126   6.393   8.435
 4619SOL    HW215755   7.033   6.298   8.507
 4620SOL     OW15756   7.413   9.416   1.385
 4620SOL    HW115757   7.340   9.395   1.443
 4620SOL    HW215758   7.470   9.473   1.437
 4621SOL     OW15759   1.657  11.974   8.461
 4621SOL    HW115760   1.610  12.056   8.477
 4621SOL    HW215761   1.590  11.907   8.464
 4622SOL     OW15762   4.940   0.474  11.672
 4622SOL    HW115763   4.881   0.480  11.597
 4622SOL    HW215764   4.893   0.419  11.735
 4623SOL     OW15765   5.299   5.221   3.204
 4623SOL    HW115766   5.216   5.237   3.249
 4623SOL    HW215767   5.366   5.244   3.267
 4624SOL     OW15768  14.055  10.238   6.122
 4624SOL    HW115769  14.005  10.307   6.166
 4624SOL    HW215770  14.089  10.280   6.043
 4625SOL     OW15771   4.877   4.296  11.842
 4625SOL    HW115772   4.885   4.367  11.906
 4625SOL    HW215773   4.886   4.216  11.893
 4626SOL     OW15774   2.156  13.684   0.606
 4626SOL    HW115775   2.105  13.676   0.526
 4626SOL    HW215776   2.247  13.681   0.577
 4627SOL     OW15777   9.128   7.275  10.955
 4627SOL    HW115778   9.219   7.249  10.942
 4627SOL    HW215779   9.130   7.334  11.030
 4628SOL     OW15780   1.760   5.543   4.648
 4628SOL    HW115781   1.795   5.527   4.736
 4628SOL    HW215782   1.684   5.486   4.642
 4629SOL     OW15783   3.314   9.052  14.445
 4629SOL    HW115784   3.277   9.034  14.531
 4629SOL    HW215785   3.262   8.998  14.385
 4630SOL     OW15786   1.590   6.509   1.643
 4630SOL    HW115787   1.596   6.442   1.575
 4630SOL    HW215788   1.521   6.568   1.613
 4631SOL     OW15789   5.023  12.072  12.122
 4631SOL    HW115790   5.041  12.161  12.092
 4631SOL    HW215791   4.946  12.080  12.178
 4632SOL     OW15792  14.494  10.475   5.421
 4632SOL    HW115793  14.469  10.451   5.510
 4632SOL    HW215794  14.459  10.564   5.410
 4633SOL     OW15795   7.057   3.660  10.884
 4633SOL    HW115796   7.125   3.722  10.855
 4633SOL    HW215797   7.028   3.695  10.968
 4634SOL     OW15798   6.361   4.250  10.892
 4634SOL    HW115799   6.434   4.302  10.924
 4634SOL    HW215800   6.347   4.183  10.959
 4635SOL     OW15801   8.783   4.435   6.477
 4635SOL    HW115802   8.810   4.429   6.569
 4635SOL    HW215803   8.860   4.471   6.433
 4636SOL     OW15804  11.189   6.961  11.296
 4636SOL    HW115805  11.120   6.995  11.239
 4636SOL    HW215806  11.230   6.892  11.245
 4637SOL     OW15807   6.283  14.761   2.188
 4637SOL    HW115808   6.323  14.739   2.104
 4637SOL    HW215809   6.246  14.849   2.175
 4638SOL     OW15810   5.020   5.654  13.018
 4638SOL    HW115811   5.098   5.704  13.042
 4638SOL    HW215812   5.007   5.674  12.925
 4639SOL     OW15813   3.926  10.028   0.432
 4639SOL    HW115814   3.996   9.969   0.460
 4639SOL    HW215815   3.892  10.065   0.513
 4640SOL     OW15816   5.718   6.431  14.280
 4640SOL    HW115817   5.807   6.451  14.310
 4640SOL    HW215818   5.675   6.516  14.274
 4641SOL     OW15819   6.043  11.488   2.842
 4641SOL    HW115820   6.081  11.454   2.923
 4641SOL    HW215821   6.060  11.421   2.777
 4642SOL     OW15822   7.140  11.121   4.541
 4642SOL    HW115823   7.205  11.075   4.488
 4642SOL    HW215824   7.056  11.091   4.508
 4643SOL     OW15825   2.219   6.840   3.872
 4643SOL    HW115826   2.219   6.841   3.776
 4643SOL    HW215827   2.131   6.810   3.895
 4644SOL     OW15828   2.478  10.245  14.836
 4644SOL    HW115829   2.569  10.269  14.818
 4644SOL    HW215830   2.464  10.166  14.784
 4645SOL     OW15831   4.956   6.882   4.309
 4645SOL    HW115832   4.907   6.933   4.245
 4645SOL    HW215833   5.048   6.890   4.282
 4646SOL     OW15834   0.562  11.424   3.612
 4646SOL    HW115835   0.580  11.418   3.518
 4646SOL    HW215836   0.585  11.514   3.635
 4647SOL     OW15837   5.235  10.457  12.908
 4647SOL    HW115838   5.326  10.443  12.935
 4647SOL    HW215839   5.236  10.439  12.813
 4648SOL     OW15840   1.416  11.829   8.789
 4648SOL    HW115841   1.471  11.755   8.764
 4648SOL    HW215842   1.420  11.888   8.714
 4649SOL     OW15843   2.005   0.970   3.198
 4649SOL    HW115844   2.097   0.943   3.191
 4649SOL    HW215845   1.984   1.007   3.112
 4650SOL     OW15846   0.092   7.656   3.051
 4650SOL    HW115847   0.053   7.587   3.104
 4650SOL    HW215848   0.184   7.631   3.043
 4651SOL     OW15849  13.211  10.359   0.899
 4651SOL    HW115850  13.135  10.351   0.956
 4651SOL    HW215851  13.210  10.449   0.868
 4652SOL     OW15852   5.516   0.219   6.524
 4652SOL    HW115853   5.548   0.309   6.516
 4652SOL    HW215854   5.540   0.177   6.442
 4653SOL     OW15855   8.392   0.985   5.936
 4653SOL    HW115856   8.464   1.006   5.877
 4653SOL    HW215857   8.393   1.054   6.002
 4654SOL     OW15858   7.181   8.950   3.724
 4654SOL    HW115859   7.191   8.855   3.734
 4654SOL    HW215860   7.105   8.959   3.666
 4655SOL     OW15861  13.339   7.245   1.638
 4655SOL    HW115862  13.420   7.194   1.646
 4655SOL    HW215863  13.285   7.196   1.576
 4656SOL     OW15864  10.030   1.437   0.925
 4656SOL    HW115865   9.946   1.455   0.883
 4656SOL    HW215866  10.090   1.421   0.852
 4657SOL     OW15867   5.817  10.566   0.242
 4657SOL    HW115868   5.811  10.513   0.321
 4657SOL    HW215869   5.780  10.651   0.266
 4658SOL     OW15870   8.801  12.793   4.766
 4658SOL    HW115871   8.795  12.817   4.859
 4658SOL    HW215872   8.816  12.876   4.721
 4659SOL     OW15873  11.498   9.885   8.434
 4659SOL    HW115874  11.566   9.827   8.399
 4659SOL    HW215875  11.416   9.839   8.415
 4660SOL     OW15876  13.850   6.716   4.672
 4660SOL    HW115877  13.869   6.748   4.760
 4660SOL    HW215878  13.926   6.662   4.649
 4661SOL     OW15879   3.304  11.678   9.905
 4661SOL    HW115880   3.255  11.597   9.899
 4661SOL    HW215881   3.242  11.746   9.880
 4662SOL     OW15882   0.380  10.575   9.215
 4662SOL    HW115883   0.292  10.597   9.247
 4662SOL    HW215884   0.438  10.628   9.268
 4663SOL     OW15885   5.796  12.155   0.932
 4663SOL    HW115886   5.707  12.128   0.953
 4663SOL    HW215887   5.815  12.113   0.848
 4664SOL     OW15888  10.899   9.634   9.742
 4664SOL    HW115889  10.804   9.632   9.730
 4664SOL    HW215890  10.915   9.576   9.816
 4665SOL     OW15891   0.551   6.464  13.813
 4665SOL    HW115892   0.582   6.375  13.828
 4665SOL    HW215893   0.580   6.512  13.891
 4666SOL     OW15894   3.388   0.397  11.428
 4666SOL    HW115895   3.450   0.330  11.400
 4666SOL    HW215896   3.431   0.480  11.406
 4667SOL     OW15897  14.834  12.487   9.646
 4667SOL    HW115898   0.013  12.453   9.578
 4667SOL    HW215899  14.867  12.575   9.665
 4668SOL     OW15900   1.895   2.131  14.855
 4668SOL    HW115901   1.921   2.223  14.848
 4668SOL    HW215902   1.880   2.118   0.069
 4669SOL     OW15903   5.387   4.901   6.904
 4669SOL    HW115904   5.413   4.926   6.993
 4669SOL    HW215905   5.299   4.939   6.894
 4670SOL     OW15906  12.267  12.973   6.700
 4670SOL    HW115907  12.302  12.974   6.611
 4670SOL    HW215908  12.187  13.024   6.695
 4671SOL     OW15909  11.928  14.566  13.277
 4671SOL    HW115910  11.907  14.595  13.189
 4671SOL    HW215911  12.023  14.559  13.278
 4672SOL     OW15912   5.555   2.940   5.027
 4672SOL    HW115913   5.600   2.930   4.944
 4672SOL    HW215914   5.478   2.883   5.019
 4673SOL     OW15915   9.914   8.106   4.521
 4673SOL    HW115916   9.983   8.138   4.464
 4673SOL    HW215917   9.840   8.090   4.463
 4674SOL     OW15918   8.366   5.974   3.735
 4674SOL    HW115919   8.372   5.886   3.698
 4674SOL    HW215920   8.277   6.002   3.713
 4675SOL     OW15921   9.288   2.096  10.193
 4675SOL    HW115922   9.291   2.061  10.104
 4675SOL    HW215923   9.207   2.146  10.196
 4676SOL     OW15924   0.092   8.961  14.175
 4676SOL    HW115925   0.163   8.900  14.155
 4676SOL    HW215926   0.136   9.040  14.204
 4677SOL     OW15927  14.778  10.469   9.934
 4677SOL    HW115928  14.817  10.555   9.950
 4677SOL    HW215929  14.750  10.472   9.842
 4678SOL     OW15930   0.594  10.932  11.650
 4678SOL    HW115931   0.528  10.890  11.595
 4678SOL    HW215932   0.569  11.024  11.651
 4679SOL     OW15933   2.275  12.170  11.835
 4679SOL    HW115934   2.274  12.147  11.742
 4679SOL    HW215935   2.351  12.124  11.871
 4680SOL     OW15936   4.439   2.494   6.965
 4680SOL    HW115937   4.377   2.567   6.973
 4680SOL    HW215938   4.518   2.534   6.930
 4681SOL     OW15939   2.049  11.924  12.094
 4681SOL    HW115940   2.063  12.009  12.051
 4681SOL    HW215941   2.119  11.868  12.062
 4682SOL     OW15942  11.438  11.753   0.991
 4682SOL    HW115943  11.393  11.700   1.057
 4682SOL    HW215944  11.367  11.795   0.943
 4683SOL     OW15945  12.331   2.411  10.024
 4683SOL    HW115946  12.330   2.317  10.042
 4683SOL    HW215947  12.252   2.427   9.973
 4684SOL     OW15948  10.536   4.834  12.640
 4684SOL    HW115949  10.487   4.759  12.674
 4684SOL    HW215950  10.470   4.886  12.594
 4685SOL     OW15951   9.533   8.542  12.401
 4685SOL    HW115952   9.577   8.478  12.457
 4685SOL    HW215953   9.459   8.494  12.364
 4686SOL     OW15954  13.389   0.460   7.788
 4686SOL    HW115955  13.467   0.442   7.736
 4686SOL    HW215956  13.362   0.374   7.821
 4687SOL     OW15957   7.099  12.451   4.574
 4687SOL    HW115958   7.176  12.433   4.627
 4687SOL    HW215959   7.116  12.409   4.490
 4688SOL     OW15960   0.873  13.423  14.575
 4688SOL    HW115961   0.835  13.509  14.557
 4688SOL    HW215962   0.887  13.384  14.489
 4689SOL     OW15963   2.695  10.071   2.232
 4689SOL    HW115964   2.775  10.124   2.241
 4689SOL    HW215965   2.724   9.993   2.185
 4690SOL     OW15966   2.468   1.566   1.693
 4690SOL    HW115967   2.464   1.632   1.624
 4690SOL    HW215968   2.491   1.615   1.772
 4691SOL     OW15969   2.934   2.228   2.759
 4691SOL    HW115970   2.890   2.235   2.674
 4691SOL    HW215971   2.887   2.160   2.806
 4692SOL     OW15972   5.033   3.741  13.619
 4692SOL    HW115973   5.115   3.766  13.661
 4692SOL    HW215974   5.028   3.798  13.541
 4693SOL     OW15975   9.729   8.469  14.038
 4693SOL    HW115976   9.795   8.499  14.100
 4693SOL    HW215977   9.706   8.547  13.987
 4694SOL     OW15978   3.355   8.671   3.215
 4694SOL    HW115979   3.440   8.644   3.179
 4694SOL    HW215980   3.292   8.645   3.148
 4695SOL     OW15981   2.164   0.775   0.813
 4695SOL    HW115982   2.151   0.684   0.839
 4695SOL    HW215983   2.089   0.822   0.849
 4696SOL     OW15984   4.966  11.743   9.533
 4696SOL    HW115985   4.961  11.660   9.581
 4696SOL    HW215986   4.886  11.790   9.557
 4697SOL     OW15987  11.069   7.092   7.390
 4697SOL    HW115988  11.130   7.027   7.353
 4697SOL    HW215989  11.061   7.067   7.482
 4698SOL     OW15990   1.934   9.147   7.926
 4698SOL    HW115991   1.853   9.097   7.924
 4698SOL    HW215992   1.974   9.125   8.010
 4699SOL     OW15993  11.467   8.074   3.453
 4699SOL    HW115994  11.431   8.078   3.364
 4699SOL    HW215995  11.482   7.981   3.469
 4700SOL     OW15996  14.122  14.158  14.794
 4700SOL    HW115997  14.173  14.162  14.875
 4700SOL    HW215998  14.112  14.249  14.767
 4701SOL     OW15999   4.222  13.529  14.518
 4701SOL    HW116000   4.188  13.603  14.469
 4701SOL    HW216001   4.316  13.531  14.503
 4702SOL     OW16002   5.197   3.739   5.146
 4702SOL    HW116003   5.269   3.744   5.210
 4702SOL    HW216004   5.152   3.823   5.155
 4703SOL     OW16005   3.078   7.020   2.705
 4703SOL    HW116006   3.017   7.056   2.769
 4703SOL    HW216007   3.164   7.036   2.742
 4704SOL     OW16008   1.964   0.158  12.454
 4704SOL    HW116009   2.056   0.164  12.481
 4704SOL    HW216010   1.945   0.064  12.455
 4705SOL     OW16011   6.995   5.501   0.268
 4705SOL    HW116012   6.909   5.495   0.312
 4705SOL    HW216013   6.983   5.567   0.201
 4706SOL     OW16014   2.110  12.562   4.372
 4706SOL    HW116015   2.130  12.562   4.278
 4706SOL    HW216016   2.035  12.620   4.381
 4707SOL     OW16017   0.744   3.351   2.569
 4707SOL    HW116018   0.817   3.304   2.529
 4707SOL    HW216019   0.770   3.443   2.565
 4708SOL     OW16020  10.699   5.171   8.808
 4708SOL    HW116021  10.690   5.087   8.853
 4708SOL    HW216022  10.617   5.184   8.761
 4709SOL     OW16023  13.674   1.771   7.173
 4709SOL    HW116024  13.682   1.683   7.212
 4709SOL    HW216025  13.695   1.758   7.081
 4710SOL     OW16026   0.583   9.176  10.371
 4710SOL    HW116027   0.540   9.253  10.334
 4710SOL    HW216028   0.526   9.148  10.442
 4711SOL     OW16029   8.977   6.990   6.427
 4711SOL    HW116030   8.933   7.075   6.433
 4711SOL    HW216031   9.049   6.995   6.490
 4712SOL     OW16032   3.107   3.352   4.449
 4712SOL    HW116033   3.183   3.296   4.463
 4712SOL    HW216034   3.134   3.438   4.480
 4713SOL     OW16035   4.738  10.791  13.246
 4713SOL    HW116036   4.826  10.792  13.283
 4713SOL    HW216037   4.701  10.706  13.272
 4714SOL     OW16038   6.620   4.903   7.062
 4714SOL    HW116039   6.603   4.904   6.968
 4714SOL    HW216040   6.557   4.965   7.099
 4715SOL     OW16041   3.865  12.173  14.226
 4715SOL    HW116042   3.819  12.091  14.242
 4715SOL    HW216043   3.921  12.185  14.303
 4716SOL     OW16044  13.912   6.324  11.391
 4716SOL    HW116045  13.982   6.272  11.351
 4716SOL    HW216046  13.945   6.343  11.479
 4717SOL     OW16047   5.686  14.032  12.599
 4717SOL    HW116048   5.724  14.004  12.683
 4717SOL    HW216049   5.649  13.952  12.562
 4718SOL     OW16050   3.534   3.345  12.856
 4718SOL    HW116051   3.469   3.350  12.927
 4718SOL    HW216052   3.493   3.392  12.783
 4719SOL     OW16053   7.339   8.246   7.481
 4719SOL    HW116054   7.297   8.280   7.560
 4719SOL    HW216055   7.388   8.170   7.511
 4720SOL     OW16056   9.555   4.365   9.763
 4720SOL    HW116057   9.623   4.412   9.811
 4720SOL    HW216058   9.489   4.343   9.829
 4721SOL     OW16059  14.751   4.787   9.180
 4721SOL    HW116060  14.770   4.859   9.121
 4721SOL    HW216061  14.692   4.824   9.246
 4722SOL     OW16062  14.310  14.426  11.442
 4722SOL    HW116063  14.254  14.381  11.504
 4722SOL    HW216064  14.256  14.497  11.407
 4723SOL     OW16065   2.147   8.280   4.599
 4723SOL    HW116066   2.178   8.332   4.674
 4723SOL    HW216067   2.061   8.317   4.579
 4724SOL     OW16068  12.500   3.641  14.743
 4724SOL    HW116069  12.461   3.724  14.715
 4724SOL    HW216070  12.578   3.667  14.792
 4725SOL     OW16071   2.305   1.906   1.737
 4725SOL    HW116072   2.236   1.945   1.790
 4725SOL    HW216073   2.261   1.841   1.683
 4726SOL     OW16074   4.531   8.649   6.335
 4726SOL    HW116075   4.570   8.564   6.355
 4726SOL    HW216076   4.439   8.639   6.357
 4727SOL     OW16077  10.054  14.248  10.344
 4727SOL    HW116078  10.143  14.212  10.335
 4727SOL    HW216079  10.035  14.285  10.258
 4728SOL     OW16080   8.064   0.078  12.678
 4728SOL    HW116081   7.991   0.093  12.738
 4728SOL    HW216082   8.023   0.066  12.593
 4729SOL     OW16083   5.948   3.158  11.163
 4729SOL    HW116084   5.984   3.218  11.228
 4729SOL    HW216085   6.003   3.169  11.086
 4730SOL     OW16086   7.495  13.887   9.389
 4730SOL    HW116087   7.417  13.936   9.416
 4730SOL    HW216088   7.463  13.798   9.373
 4731SOL     OW16089   7.864  13.089   7.041
 4731SOL    HW116090   7.800  13.160   7.037
 4731SOL    HW216091   7.949  13.133   7.045
 4732SOL     OW16092   0.894   8.078   0.151
 4732SOL    HW116093   0.814   8.113   0.112
 4732SOL    HW216094   0.947   8.155   0.170
 4733SOL     OW16095   0.614   6.718  12.395
 4733SOL    HW116096   0.591   6.717  12.488
 4733SOL    HW216097   0.531   6.709  12.349
 4734SOL     OW16098   3.643   8.829   1.047
 4734SOL    HW116099   3.651   8.830   1.142
 4734SOL    HW216100   3.713   8.886   1.016
 4735SOL     OW16101   0.319   6.987   5.134
 4735SOL    HW116102   0.337   6.897   5.104
 4735SOL    HW216103   0.405   7.027   5.140
 4736SOL     OW16104   6.678   8.804  12.427
 4736SOL    HW116105   6.745   8.753  12.474
 4736SOL    HW216106   6.596   8.778  12.468
 4737SOL     OW16107  11.205  11.596   5.684
 4737SOL    HW116108  11.148  11.554   5.620
 4737SOL    HW216109  11.274  11.637   5.631
 4738SOL     OW16110   8.781   1.042   6.287
 4738SOL    HW116111   8.730   0.971   6.325
 4738SOL    HW216112   8.846   1.064   6.355
 4739SOL     OW16113   7.511   3.643   6.287
 4739SOL    HW116114   7.512   3.571   6.224
 4739SOL    HW216115   7.448   3.706   6.250
 4740SOL     OW16116  10.403   3.890  10.007
 4740SOL    HW116117  10.469   3.836   9.963
 4740SOL    HW216118  10.324   3.836  10.009
 4741SOL     OW16119  12.036  10.107  11.931
 4741SOL    HW116120  11.986  10.181  11.966
 4741SOL    HW216121  12.034  10.121  11.836
 4742SOL     OW16122   2.891   5.313  14.357
 4742SOL    HW116123   2.908   5.369  14.282
 4742SOL    HW216124   2.975   5.269  14.373
 4743SOL     OW16125  11.575  13.858   1.041
 4743SOL    HW116126  11.556  13.851   1.135
 4743SOL    HW216127  11.668  13.835   1.034
 4744SOL     OW16128   6.743   4.990   0.736
 4744SOL    HW116129   6.739   4.937   0.657
 4744SOL    HW216130   6.686   4.944   0.798
 4745SOL     OW16131  13.955  10.163   8.033
 4745SOL    HW116132  13.966  10.243   8.084
 4745SOL    HW216133  13.862  10.163   8.008
 4746SOL     OW16134   4.850   2.451  10.711
 4746SOL    HW116135   4.918   2.494  10.762
 4746SOL    HW216136   4.772   2.457  10.766
 4747SOL     OW16137   2.692  12.741   0.492
 4747SOL    HW116138   2.758  12.678   0.462
 4747SOL    HW216139   2.639  12.759   0.414
 4748SOL     OW16140   9.939   6.216   1.927
 4748SOL    HW116141   9.869   6.190   1.867
 4748SOL    HW216142   9.907   6.297   1.968
 4749SOL     OW16143   7.888   3.486   4.591
 4749SOL    HW116144   7.837   3.422   4.541
 4749SOL    HW216145   7.835   3.503   4.669
 4750SOL     OW16146  12.955   7.505   6.824
 4750SOL    HW116147  12.897   7.535   6.895
 4750SOL    HW216148  12.933   7.560   6.750
 4751SOL     OW16149   9.016   9.791   3.342
 4751SOL    HW116150   9.062   9.773   3.424
 4751SOL    HW216151   9.057   9.871   3.309
 4752SOL     OW16152  13.766   4.728   9.448
 4752SOL    HW116153  13.830   4.686   9.506
 4752SOL    HW216154  13.683   4.684   9.468
 4753SOL     OW16155   5.636  13.074   0.260
 4753SOL    HW116156   5.625  13.096   0.167
 4753SOL    HW216157   5.607  13.153   0.306
 4754SOL     OW16158   6.648   9.758   4.805
 4754SOL    HW116159   6.657   9.684   4.865
 4754SOL    HW216160   6.558   9.789   4.819
 4755SOL     OW16161   4.872  11.462  13.341
 4755SOL    HW116162   4.809  11.414  13.287
 4755SOL    HW216163   4.936  11.496  13.279
 4756SOL     OW16164   7.522  11.293   5.804
 4756SOL    HW116165   7.449  11.265   5.749
 4756SOL    HW216166   7.486  11.296   5.893
 4757SOL     OW16167   6.354  12.837   5.698
 4757SOL    HW116168   6.400  12.782   5.635
 4757SOL    HW216169   6.310  12.904   5.645
 4758SOL     OW16170  11.341   9.388   8.050
 4758SOL    HW116171  11.437   9.383   8.049
 4758SOL    HW216172  11.314   9.353   7.966
 4759SOL     OW16173   0.851   8.235   8.146
 4759SOL    HW116174   0.923   8.185   8.184
 4759SOL    HW216175   0.891   8.318   8.120
 4760SOL     OW16176   3.725   4.499   8.982
 4760SOL    HW116177   3.797   4.536   8.930
 4760SOL    HW216178   3.734   4.404   8.971
 4761SOL     OW16179   6.968  10.580  14.446
 4761SOL    HW116180   7.019  10.617  14.517
 4761SOL    HW216181   6.949  10.490  14.474
 4762SOL     OW16182   9.482   8.977  13.174
 4762SOL    HW116183   9.496   8.894  13.128
 4762SOL    HW216184   9.536   8.971  13.252
 4763SOL     OW16185  13.843   5.909   5.178
 4763SOL    HW116186  13.931   5.927   5.209
 4763SOL    HW216187  13.820   5.825   5.219
 4764SOL     OW16188   0.053   9.694   3.716
 4764SOL    HW116189   0.145   9.700   3.743
 4764SOL    HW216190   0.058   9.677   3.622
 4765SOL     OW16191   3.444  11.623  10.551
 4765SOL    HW116192   3.398  11.707  10.554
 4765SOL    HW216193   3.374  11.557  10.556
 4766SOL     OW16194   7.321   0.287  14.205
 4766SOL    HW116195   7.412   0.270  14.179
 4766SOL    HW216196   7.274   0.208  14.178
 4767SOL     OW16197   8.562   9.926   9.711
 4767SOL    HW116198   8.560  10.010   9.666
 4767SOL    HW216199   8.612   9.869   9.653
 4768SOL     OW16200   5.293   1.152   3.769
 4768SOL    HW116201   5.345   1.103   3.832
 4768SOL    HW216202   5.334   1.134   3.685
 4769SOL     OW16203   4.328  10.948   6.769
 4769SOL    HW116204   4.383  11.004   6.713
 4769SOL    HW216205   4.350  10.974   6.858
 4770SOL     OW16206   1.466   3.820   3.334
 4770SOL    HW116207   1.519   3.856   3.263
 4770SOL    HW216208   1.529   3.795   3.401
 4771SOL     OW16209  14.249  14.105   5.292
 4771SOL    HW116210  14.255  14.098   5.197
 4771SOL    HW216211  14.253  14.199   5.310
 4772SOL     OW16212  14.465   4.197  11.156
 4772SOL    HW116213  14.527   4.262  11.120
 4772SOL    HW216214  14.473   4.207  11.251
 4773SOL     OW16215   6.779  12.822   4.385
 4773SOL    HW116216   6.874  12.830   4.389
 4773SOL    HW216217   6.756  12.847   4.295
 4774SOL     OW16218  12.343   6.455   6.435
 4774SOL    HW116219  12.357   6.387   6.501
 4774SOL    HW216220  12.430   6.474   6.400
 4775SOL     OW16221   2.995   6.427   7.993
 4775SOL    HW116222   2.947   6.501   8.031
 4775SOL    HW216223   3.053   6.398   8.063
 4776SOL     OW16224   8.644   6.029  14.606
 4776SOL    HW116225   8.578   5.961  14.594
 4776SOL    HW216226   8.607   6.087  14.673
 4777SOL     OW16227  13.110   2.160  11.757
 4777SOL    HW116228  13.099   2.111  11.676
 4777SOL    HW216229  13.204   2.155  11.775
 4778SOL     OW16230   7.395  14.365   8.621
 4778SOL    HW116231   7.331  14.343   8.688
 4778SOL    HW216232   7.471  14.396   8.670
 4779SOL     OW16233   5.865   4.513  10.397
 4779SOL    HW116234   5.911   4.570  10.459
 4779SOL    HW216235   5.781   4.557  10.382
 4780SOL     OW16236  10.416  12.703   2.141
 4780SOL    HW116237  10.459  12.674   2.221
 4780SOL    HW216238  10.410  12.798   2.151
 4781SOL     OW16239   2.322   9.574   2.244
 4781SOL    HW116240   2.265   9.522   2.301
 4781SOL    HW216241   2.280   9.660   2.242
 4782SOL     OW16242  11.370   1.494   1.585
 4782SOL    HW116243  11.434   1.565   1.586
 4782SOL    HW216244  11.286   1.539   1.576
 4783SOL     OW16245  11.397   3.382  11.912
 4783SOL    HW116246  11.464   3.317  11.934
 4783SOL    HW216247  11.413   3.454  11.974
 4784SOL     OW16248   1.876  10.088   9.304
 4784SOL    HW116249   1.867  10.066   9.396
 4784SOL    HW216250   1.942  10.158   9.301
 4785SOL     OW16251   9.729  10.529   6.120
 4785SOL    HW116252   9.746  10.450   6.171
 4785SOL    HW216253   9.805  10.584   6.135
 4786SOL     OW16254  11.307   5.598  13.357
 4786SOL    HW116255  11.314   5.503  13.346
 4786SOL    HW216256  11.213   5.613  13.368
 4787SOL     OW16257   5.674   9.490   1.454
 4787SOL    HW116258   5.625   9.552   1.400
 4787SOL    HW216259   5.733   9.447   1.393
 4788SOL     OW16260   5.002  11.828   5.661
 4788SOL    HW116261   4.978  11.920   5.646
 4788SOL    HW216262   5.025  11.824   5.754
 4789SOL     OW16263  14.227   5.064  10.895
 4789SOL    HW116264  14.202   4.976  10.922
 4789SOL    HW216265  14.256   5.106  10.976
 4790SOL     OW16266  10.792  14.250  11.834
 4790SOL    HW116267  10.856  14.317  11.811
 4790SOL    HW216268  10.707  14.290  11.818
 4791SOL     OW16269   9.718   8.989  12.174
 4791SOL    HW116270   9.810   8.989  12.149
 4791SOL    HW216271   9.714   8.929  12.249
 4792SOL     OW16272  10.017  11.028   0.193
 4792SOL    HW116273  10.098  10.983   0.167
 4792SOL    HW216274  10.043  11.120   0.202
 4793SOL     OW16275   5.627   4.951  14.092
 4793SOL    HW116276   5.599   4.862  14.114
 4793SOL    HW216277   5.716   4.940  14.058
 4794SOL     OW16278   8.840  11.334   1.887
 4794SOL    HW116279   8.762  11.293   1.924
 4794SOL    HW216280   8.830  11.427   1.907
 4795SOL     OW16281  11.749   2.526   8.896
 4795SOL    HW116282  11.764   2.501   8.987
 4795SOL    HW216283  11.781   2.452   8.845
 4796SOL     OW16284   5.258   0.355   7.681
 4796SOL    HW116285   5.260   0.447   7.707
 4796SOL    HW216286   5.184   0.318   7.729
 4797SOL     OW16287   9.235   7.269   7.783
 4797SOL    HW116288   9.140   7.264   7.775
 4797SOL    HW216289   9.267   7.190   7.739
 4798SOL     OW16290   4.777  11.059   0.831
 4798SOL    HW116291   4.713  11.115   0.788
 4798SOL    HW216292   4.823  11.117   0.892
 4799SOL     OW16293   4.934  13.405  13.860
 4799SOL    HW116294   4.900  13.434  13.945
 4799SOL    HW216295   4.949  13.311  13.871
 4800SOL     OW16296   1.636   4.777  12.504
 4800SOL    HW116297   1.591   4.860  12.496
 4800SOL    HW216298   1.663   4.755  12.415
 4801SOL     OW16299  14.541   0.730   1.880
 4801SOL    HW116300  14.490   0.694   1.952
 4801SOL    HW216301  14.632   0.725   1.910
 4802SOL     OW16302   2.747   8.928   1.085
 4802SOL    HW116303   2.741   8.873   1.164
 4802SOL    HW216304   2.841   8.940   1.071
 4803SOL     OW16305   4.006   9.288   6.566
 4803SOL    HW116306   3.988   9.382   6.561
 4803SOL    HW216307   3.963   9.252   6.488
 4804SOL     OW16308   8.914  12.760   2.346
 4804SOL    HW116309   8.825  12.768   2.312
 4804SOL    HW216310   8.921  12.830   2.410
 4805SOL     OW16311  13.176   6.474  10.272
 4805SOL    HW116312  13.184   6.568  10.256
 4805SOL    HW216313  13.219   6.433  10.197
 4806SOL     OW16314   0.900  14.301   4.623
 4806SOL    HW116315   0.907  14.213   4.660
 4806SOL    HW216316   0.966  14.303   4.554
 4807SOL     OW16317   7.480   9.226   2.873
 4807SOL    HW116318   7.464   9.162   2.803
 4807SOL    HW216319   7.446   9.308   2.839
 4808SOL     OW16320   3.072   1.421  14.251
 4808SOL    HW116321   3.013   1.426  14.326
 4808SOL    HW216322   3.063   1.507  14.209
 4809SOL     OW16323   5.880   6.894   3.006
 4809SOL    HW116324   5.963   6.908   3.053
 4809SOL    HW216325   5.859   6.979   2.969
 4810SOL     OW16326   6.310   3.987   9.292
 4810SOL    HW116327   6.353   4.016   9.372
 4810SOL    HW216328   6.382   3.960   9.234
 4811SOL     OW16329   8.699  13.052   2.504
 4811SOL    HW116330   8.690  13.033   2.411
 4811SOL    HW216331   8.781  13.101   2.512
 4812SOL     OW16332   1.916   6.324   3.957
 4812SOL    HW116333   1.980   6.273   3.907
 4812SOL    HW216334   1.920   6.411   3.919
 4813SOL     OW16335  12.190   6.691   9.023
 4813SOL    HW116336  12.154   6.602   9.020
 4813SOL    HW216337  12.249   6.691   9.098
 4814SOL     OW16338   9.357   2.212   7.158
 4814SOL    HW116339   9.320   2.146   7.100
 4814SOL    HW216340   9.435   2.243   7.113
 4815SOL     OW16341   9.639   2.610  12.118
 4815SOL    HW116342   9.577   2.654  12.060
 4815SOL    HW216343   9.674   2.679  12.174
 4816SOL     OW16344  11.646   9.191   0.515
 4816SOL    HW116345  11.587   9.126   0.477
 4816SOL    HW216346  11.622   9.194   0.608
 4817SOL     OW16347  13.690   9.858   1.432
 4817SOL    HW116348  13.630   9.911   1.379
 4817SOL    HW216349  13.639   9.836   1.510
 4818SOL     OW16350   6.029  14.240  11.034
 4818SOL    HW116351   5.994  14.196  10.956
 4818SOL    HW216352   6.068  14.320  11.000
 4819SOL     OW16353   7.274  13.107   9.960
 4819SOL    HW116354   7.235  13.175   9.904
 4819SOL    HW216355   7.209  13.038   9.962
 4820SOL     OW16356   9.635   9.846  14.372
 4820SOL    HW116357   9.606   9.930  14.407
 4820SOL    HW216358   9.654   9.863  14.280
 4821SOL     OW16359   3.154   7.195   5.268
 4821SOL    HW116360   3.169   7.135   5.342
 4821SOL    HW216361   3.106   7.142   5.204
 4822SOL     OW16362   1.467   2.966   5.185
 4822SOL    HW116363   1.434   2.922   5.263
 4822SOL    HW216364   1.453   2.903   5.114
 4823SOL     OW16365   8.598  13.648  11.649
 4823SOL    HW116366   8.606  13.599  11.731
 4823SOL    HW216367   8.569  13.735  11.677
 4824SOL     OW16368   0.588   7.511  13.722
 4824SOL    HW116369   0.615   7.444  13.659
 4824SOL    HW216370   0.644   7.586  13.704
 4825SOL     OW16371  11.822   2.589   5.518
 4825SOL    HW116372  11.735   2.572   5.554
 4825SOL    HW216373  11.870   2.631   5.590
 4826SOL     OW16374  12.902   4.628   4.605
 4826SOL    HW116375  12.891   4.700   4.668
 4826SOL    HW216376  12.833   4.566   4.627
 4827SOL     OW16377   7.552   8.451  11.480
 4827SOL    HW116378   7.598   8.405  11.411
 4827SOL    HW216379   7.537   8.385  11.548
 4828SOL     OW16380  11.664   2.048   7.814
 4828SOL    HW116381  11.703   2.079   7.733
 4828SOL    HW216382  11.721   2.082   7.883
 4829SOL     OW16383   9.021  12.007  14.291
 4829SOL    HW116384   8.955  12.065  14.331
 4829SOL    HW216385   9.010  11.924  14.337
 4830SOL     OW16386  14.235  13.067   2.174
 4830SOL    HW116387  14.301  13.105   2.117
 4830SOL    HW216388  14.238  13.120   2.253
 4831SOL     OW16389  13.273   0.433   9.736
 4831SOL    HW116390  13.266   0.455   9.828
 4831SOL    HW216391  13.307   0.343   9.735
 4832SOL     OW16392  13.353   4.854   7.177
 4832SOL    HW116393  13.402   4.906   7.242
 4832SOL    HW216394  13.421   4.805   7.130
 4833SOL     OW16395   0.871   7.209   4.551
 4833SOL    HW116396   0.871   7.132   4.495
 4833SOL    HW216397   0.900   7.280   4.494
 4834SOL     OW16398  12.788   1.902   4.809
 4834SOL    HW116399  12.735   1.824   4.822
 4834SOL    HW216400  12.802   1.906   4.714
 4835SOL     OW16401  14.495   8.058   4.835
 4835SOL    HW116402  14.471   8.119   4.765
 4835SOL    HW216403  14.478   7.971   4.798
 4836SOL     OW16404   4.958   9.301  11.029
 4836SOL    HW116405   4.990   9.211  11.035
 4836SOL    HW216406   4.868   9.297  11.061
 4837SOL     OW16407   5.452  12.749   8.212
 4837SOL    HW116408   5.405  12.696   8.147
 4837SOL    HW216409   5.402  12.737   8.293
 4838SOL     OW16410   5.095  12.842   1.438
 4838SOL    HW116411   5.164  12.777   1.438
 4838SOL    HW216412   5.116  12.900   1.511
 4839SOL     OW16413  10.958  13.363   2.335
 4839SOL    HW116414  10.995  13.275   2.338
 4839SOL    HW216415  10.965  13.389   2.243
 4840SOL     OW16416   6.998   6.663   9.985
 4840SOL    HW116417   7.082   6.700   9.961
 4840SOL    HW216418   7.018   6.598  10.053
 4841SOL     OW16419   2.340   8.582   6.341
 4841SOL    HW116420   2.430   8.579   6.309
 4841SOL    HW216421   2.348   8.611   6.432
 4842SOL     OW16422  13.073   3.873   3.418
 4842SOL    HW116423  12.990   3.834   3.446
 4842SOL    HW216424  13.119   3.802   3.373
 4843SOL     OW16425   0.961  14.248   3.884
 4843SOL    HW116426   0.910  14.233   3.964
 4843SOL    HW216427   0.895  14.265   3.817
 4844SOL     OW16428  10.158   6.086   2.011
 4844SOL    HW116429  10.212   6.163   1.996
 4844SOL    HW216430  10.069   6.114   1.992
 4845SOL     OW16431  10.841  10.379  11.383
 4845SOL    HW116432  10.779  10.325  11.432
 4845SOL    HW216433  10.921  10.326  11.379
 4846SOL     OW16434   8.375   1.390   1.252
 4846SOL    HW116435   8.460   1.355   1.224
 4846SOL    HW216436   8.336   1.425   1.171
 4847SOL     OW16437  10.310   7.821   9.782
 4847SOL    HW116438  10.346   7.795   9.697
 4847SOL    HW216439  10.219   7.791   9.779
 4848SOL     OW16440   9.807   4.778   5.492
 4848SOL    HW116441   9.842   4.700   5.536
 4848SOL    HW216442   9.712   4.766   5.495
 4849SOL     OW16443  14.153   9.730  10.750
 4849SOL    HW116444  14.168   9.811  10.798
 4849SOL    HW216445  14.058   9.719  10.751
 4850SOL     OW16446   2.077  13.847   5.548
 4850SOL    HW116447   2.023  13.768   5.554
 4850SOL    HW216448   2.136  13.842   5.623
 4851SOL     OW16449   7.781   4.859   8.472
 4851SOL    HW116450   7.703   4.856   8.528
 4851SOL    HW216451   7.851   4.886   8.531
 4852SOL     OW16452  12.085   2.090  14.394
 4852SOL    HW116453  12.009   2.099  14.336
 4852SOL    HW216454  12.134   2.171  14.380
 4853SOL     OW16455   1.884  13.505   6.511
 4853SOL    HW116456   1.891  13.567   6.438
 4853SOL    HW216457   1.897  13.419   6.470
 4854SOL     OW16458   4.929  12.435  13.855
 4854SOL    HW116459   4.902  12.413  13.766
 4854SOL    HW216460   5.005  12.492  13.843
 4855SOL     OW16461   2.358   6.981   7.647
 4855SOL    HW116462   2.347   6.944   7.559
 4855SOL    HW216463   2.447   7.015   7.648
 4856SOL     OW16464   8.898  10.390   8.561
 4856SOL    HW116465   8.844  10.312   8.572
 4856SOL    HW216466   8.946  10.398   8.643
 4857SOL     OW16467   7.426   7.197  10.291
 4857SOL    HW116468   7.427   7.116  10.341
 4857SOL    HW216469   7.454   7.172  10.203
 4858SOL     OW16470   3.294   7.856  11.563
 4858SOL    HW116471   3.370   7.893  11.607
 4858SOL    HW216472   3.256   7.796  11.628
 4859SOL     OW16473   5.630  10.635   9.233
 4859SOL    HW116474   5.671  10.719   9.213
 4859SOL    HW216475   5.598  10.603   9.148
 4860SOL     OW16476   6.488   5.453   1.012
 4860SOL    HW116477   6.429   5.504   0.956
 4860SOL    HW216478   6.501   5.507   1.090
 4861SOL     OW16479  10.405   6.278   2.010
 4861SOL    HW116480  10.446   6.310   2.090
 4861SOL    HW216481  10.457   6.201   1.985
 4862SOL     OW16482  14.692   0.370   2.154
 4862SOL    HW116483  14.763   0.316   2.121
 4862SOL    HW216484  14.613   0.331   2.117
 4863SOL     OW16485   4.290  10.225  10.298
 4863SOL    HW116486   4.367  10.248  10.350
 4863SOL    HW216487   4.233  10.179  10.359
 4864SOL     OW16488  14.328   9.382   7.106
 4864SOL    HW116489  14.383   9.313   7.069
 4864SOL    HW216490  14.376   9.463   7.089
 4865SOL     OW16491   1.999   4.097   1.308
 4865SOL    HW116492   2.071   4.150   1.343
 4865SOL    HW216493   2.029   4.073   1.220
 4866SOL     OW16494  13.229   4.967   2.854
 4866SOL    HW116495  13.270   4.948   2.938
 4866SOL    HW216496  13.155   4.906   2.849
 4867SOL     OW16497  12.485   1.102   7.956
 4867SOL    HW116498  12.522   1.056   8.032
 4867SOL    HW216499  12.417   1.044   7.923
 4868SOL     OW16500   7.840  13.142   1.514
 4868SOL    HW116501   7.786  13.112   1.586
 4868SOL    HW216502   7.914  13.081   1.512
 4869SOL     OW16503  14.004  11.365   1.106
 4869SOL    HW116504  14.021  11.302   1.036
 4869SOL    HW216505  14.046  11.446   1.078
 4870SOL     OW16506   3.321   0.428   8.304
 4870SOL    HW116507   3.324   0.370   8.381
 4870SOL    HW216508   3.365   0.378   8.235
 4871SOL     OW16509   1.026  14.111   8.573
 4871SOL    HW116510   0.943  14.149   8.542
 4871SOL    HW216511   1.089  14.182   8.565
 4872SOL     OW16512   9.977   8.110   3.492
 4872SOL    HW116513   9.945   8.194   3.525
 4872SOL    HW216514   9.898   8.062   3.468
 4873SOL     OW16515   2.268   8.701   2.595
 4873SOL    HW116516   2.217   8.623   2.571
 4873SOL    HW216517   2.252   8.763   2.525
 4874SOL     OW16518   7.571   8.798   1.430
 4874SOL    HW116519   7.534   8.876   1.389
 4874SOL    HW216520   7.631   8.762   1.365
 4875SOL     OW16521  10.249  12.071  10.690
 4875SOL    HW116522  10.193  12.041  10.618
 4875SOL    HW216523  10.336  12.079  10.651
 4876SOL     OW16524   7.817  12.776   4.916
 4876SOL    HW116525   7.860  12.699   4.954
 4876SOL    HW216526   7.764  12.740   4.845
 4877SOL     OW16527   5.649  14.816   1.523
 4877SOL    HW116528   5.698  14.839   1.444
 4877SOL    HW216529   5.710  14.831   1.595
 4878SOL     OW16530  11.213   6.120   4.867
 4878SOL    HW116531  11.307   6.118   4.883
 4878SOL    HW216532  11.173   6.102   4.952
 4879SOL     OW16533   5.677  11.014   9.446
 4879SOL    HW116534   5.754  11.055   9.486
 4879SOL    HW216535   5.608  11.080   9.456
 4880SOL     OW16536   3.657   0.620  14.368
 4880SOL    HW116537   3.587   0.643  14.306
 4880SOL    HW216538   3.695   0.704  14.394
 4881SOL     OW16539  14.839  13.867  13.828
 4881SOL    HW116540   0.048  13.872  13.862
 4881SOL    HW216541  14.846  13.891  13.736
 4882SOL     OW16542   1.292  14.300   3.224
 4882SOL    HW116543   1.213  14.321   3.175
 4882SOL    HW216544   1.259  14.265   3.308
 4883SOL     OW16545  10.210   0.994   0.058
 4883SOL    HW116546  10.195   1.069   0.116
 4883SOL    HW216547  10.160   0.923   0.098
 4884SOL     OW16548   2.339  14.000   5.342
 4884SOL    HW116549   2.317  13.911   5.314
 4884SOL    HW216550   2.273  14.021   5.408
 4885SOL     OW16551   0.177   8.923   4.904
 4885SOL    HW116552   0.119   8.848   4.894
 4885SOL    HW216553   0.166   8.949   4.996
 4886SOL     OW16554   8.272  13.538   5.491
 4886SOL    HW116555   8.207  13.576   5.551
 4886SOL    HW216556   8.315  13.470   5.542
 4887SOL     OW16557   1.688   6.217  13.974
 4887SOL    HW116558   1.663   6.280  14.041
 4887SOL    HW216559   1.753   6.264  13.921
 4888SOL     OW16560   2.795  13.977   5.580
 4888SOL    HW116561   2.702  14.001   5.577
 4888SOL    HW216562   2.831  14.011   5.498
 4889SOL     OW16563   7.702   5.847   8.945
 4889SOL    HW116564   7.672   5.757   8.931
 4889SOL    HW216565   7.622   5.899   8.951
 4890SOL     OW16566  11.264  13.372   9.701
 4890SOL    HW116567  11.286  13.397   9.611
 4890SOL    HW216568  11.250  13.277   9.697
 4891SOL     OW16569   8.838  12.467   3.974
 4891SOL    HW116570   8.866  12.467   4.065
 4891SOL    HW216571   8.754  12.512   3.974
 4892SOL     OW16572   1.375   2.662   0.221
 4892SOL    HW116573   1.295   2.683   0.268
 4892SOL    HW216574   1.347   2.650   0.130
 4893SOL     OW16575   9.571   0.309   2.966
 4893SOL    HW116576   9.649   0.332   2.914
 4893SOL    HW216577   9.602   0.242   3.027
 4894SOL     OW16578   2.446   7.336  11.761
 4894SOL    HW116579   2.514   7.269  11.762
 4894SOL    HW216580   2.373   7.297  11.808
 4895SOL     OW16581   9.351   7.749  12.042
 4895SOL    HW116582   9.288   7.808  12.083
 4895SOL    HW216583   9.359   7.676  12.103
 4896SOL     OW16584   0.222  14.473  11.617
 4896SOL    HW116585   0.272  14.399  11.652
 4896SOL    HW216586   0.157  14.433  11.560
 4897SOL     OW16587  10.483   2.280   4.898
 4897SOL    HW116588  10.574   2.253   4.902
 4897SOL    HW216589  10.483   2.354   4.836
 4898SOL     OW16590   2.331   0.424   3.154
 4898SOL    HW116591   2.323   0.395   3.245
 4898SOL    HW216592   2.288   0.510   3.152
 4899SOL     OW16593   9.099   0.227   4.978
 4899SOL    HW116594   9.124   0.199   5.067
 4899SOL    HW216595   9.087   0.321   4.985
 4900SOL     OW16596   5.852   5.994  10.745
 4900SOL    HW116597   5.761   6.008  10.719
 4900SOL    HW216598   5.847   5.972  10.838
 4901SOL     OW16599   6.488  14.256   8.054
 4901SOL    HW116600   6.558  14.216   8.003
 4901SOL    HW216601   6.435  14.183   8.084
 4902SOL     OW16602   3.581   2.150  10.420
 4902SOL    HW116603   3.546   2.081  10.364
 4902SOL    HW216604   3.590   2.110  10.506
 4903SOL     OW16605   6.354   2.914   8.969
 4903SOL    HW116606   6.270   2.960   8.957
 4903SOL    HW216607   6.345   2.872   9.055
 4904SOL     OW16608  12.345  11.742   7.960
 4904SOL    HW116609  12.354  11.802   8.034
 4904SOL    HW216610  12.321  11.799   7.887
 4905SOL     OW16611   7.892   7.895   3.705
 4905SOL    HW116612   7.868   7.966   3.646
 4905SOL    HW216613   7.884   7.816   3.653
 4906SOL     OW16614   3.535  12.933  10.018
 4906SOL    HW116615   3.476  13.008  10.009
 4906SOL    HW216616   3.590  12.955  10.093
 4907SOL     OW16617   2.462   6.363   7.603
 4907SOL    HW116618   2.434   6.358   7.695
 4907SOL    HW216619   2.557   6.362   7.607
 4908SOL     OW16620   3.104   2.136   8.850
 4908SOL    HW116621   3.062   2.125   8.765
 4908SOL    HW216622   3.069   2.064   8.903
 4909SOL     OW16623  12.793  10.533   3.538
 4909SOL    HW116624  12.881  10.495   3.529
 4909SOL    HW216625  12.776  10.575   3.454
 4910SOL     OW16626  12.006   8.308   5.935
 4910SOL    HW116627  12.062   8.384   5.954
 4910SOL    HW216628  11.917   8.344   5.933
 4911SOL     OW16629  11.980   4.790  10.516
 4911SOL    HW116630  12.060   4.808  10.467
 4911SOL    HW216631  11.921   4.749  10.452
 4912SOL     OW16632   0.940   5.487  12.962
 4912SOL    HW116633   0.897   5.560  13.007
 4912SOL    HW216634   1.018   5.469  13.015
 4913SOL     OW16635   4.209  12.204   3.236
 4913SOL    HW116636   4.259  12.125   3.214
 4913SOL    HW216637   4.140  12.174   3.294
 4914SOL     OW16638   2.275   1.148  14.634
 4914SOL    HW116639   2.238   1.139  14.722
 4914SOL    HW216640   2.200   1.144  14.575
 4915SOL     OW16641  10.157   9.546   7.164
 4915SOL    HW116642  10.224   9.479   7.173
 4915SOL    HW216643  10.186   9.599   7.090
 4916SOL     OW16644   5.801  13.390  11.445
 4916SOL    HW116645   5.800  13.371  11.539
 4916SOL    HW216646   5.894  13.382  11.420
 4917SOL     OW16647   4.528   1.138  13.709
 4917SOL    HW116648   4.436   1.122  13.729
 4917SOL    HW216649   4.530   1.227  13.673
 4918SOL     OW16650   1.771  14.737   3.143
 4918SOL    HW116651   1.853  14.708   3.105
 4918SOL    HW216652   1.707  14.670   3.118
 4919SOL     OW16653   1.941   5.772   4.924
 4919SOL    HW116654   1.922   5.824   4.846
 4919SOL    HW216655   1.966   5.687   4.891
 4920SOL     OW16656   9.621   0.306  10.079
 4920SOL    HW116657   9.646   0.246  10.008
 4920SOL    HW216658   9.623   0.393  10.039
 4921SOL     OW16659   2.745   8.581   9.616
 4921SOL    HW116660   2.744   8.600   9.709
 4921SOL    HW216661   2.658   8.607   9.585
 4922SOL     OW16662   8.373   9.122  11.242
 4922SOL    HW116663   8.379   9.130  11.337
 4922SOL    HW216664   8.316   9.194  11.216
 4923SOL     OW16665   7.202  13.705  12.783
 4923SOL    HW116666   7.216  13.662  12.699
 4923SOL    HW216667   7.288  13.707  12.824
 4924SOL     OW16668   8.448  10.661   6.908
 4924SOL    HW116669   8.447  10.749   6.869
 4924SOL    HW216670   8.356  10.635   6.909
 4925SOL     OW16671  10.088  10.538  13.262
 4925SOL    HW116672  10.003  10.579  13.275
 4925SOL    HW216673  10.148  10.611  13.249
 4926SOL     OW16674   7.908   6.831  13.047
 4926SOL    HW116675   7.819   6.806  13.022
 4926SOL    HW216676   7.953   6.748  13.062
 4927SOL     OW16677  14.147  13.260  10.729
 4927SOL    HW116678  14.104  13.264  10.815
 4927SOL    HW216679  14.216  13.194  10.739
 4928SOL     OW16680  10.047   1.515  13.953
 4928SOL    HW116681  10.052   1.430  13.995
 4928SOL    HW216682  10.125   1.561  13.983
 4929SOL     OW16683  13.808   5.299   4.430
 4929SOL    HW116684  13.754   5.243   4.486
 4929SOL    HW216685  13.870   5.341   4.490
 4930SOL     OW16686   2.353   0.596  10.066
 4930SOL    HW116687   2.368   0.632   9.979
 4930SOL    HW216688   2.356   0.671  10.125
 4931SOL     OW16689   8.074   5.751   3.816
 4931SOL    HW116690   8.051   5.843   3.806
 4931SOL    HW216691   8.122   5.746   3.898
 4932SOL     OW16692  11.939   7.951   7.758
 4932SOL    HW116693  11.987   8.033   7.747
 4932SOL    HW216694  11.997   7.884   7.722
 4933SOL     OW16695   1.663   0.142   1.488
 4933SOL    HW116696   1.600   0.100   1.429
 4933SOL    HW216697   1.613   0.213   1.529
 4934SOL     OW16698   0.265  14.369   1.697
 4934SOL    HW116699   0.203  14.361   1.624
 4934SOL    HW216700   0.298  14.459   1.689
 4935SOL     OW16701  12.185   9.244   6.817
 4935SOL    HW116702  12.106   9.231   6.764
 4935SOL    HW216703  12.255   9.257   6.753
 4936SOL     OW16704  14.731   7.535   4.448
 4936SOL    HW116705  14.654   7.541   4.505
 4936SOL    HW216706  14.710   7.464   4.387
 4937SOL     OW16707  13.420   3.915   4.731
 4937SOL    HW116708  13.475   3.991   4.747
 4937SOL    HW216709  13.467   3.865   4.664
 4938SOL     OW16710   6.977  13.817  12.095
 4938SOL    HW116711   7.057  13.855  12.131
 4938SOL    HW216712   6.999  13.725  12.082
 4939SOL     OW16713   4.920   8.312  10.883
 4939SOL    HW116714   4.918   8.405  10.858
 4939SOL    HW216715   4.999   8.303  10.936
 4940SOL     OW16716   4.812   5.121  14.136
 4940SOL    HW116717   4.835   5.053  14.200
 4940SOL    HW216718   4.800   5.073  14.054
 4941SOL     OW16719  14.025  13.372  10.961
 4941SOL    HW116720  14.011  13.329  11.045
 4941SOL    HW216721  14.072  13.453  10.982
 4942SOL     OW16722   0.944  13.052   3.524
 4942SOL    HW116723   0.892  13.013   3.594
 4942SOL    HW216724   0.961  13.141   3.554
 4943SOL     OW16725   9.213  11.802   2.107
 4943SOL    HW116726   9.196  11.708   2.120
 4943SOL    HW216727   9.171  11.844   2.182
 4944SOL     OW16728  12.932  10.672   8.232
 4944SOL    HW116729  12.968  10.748   8.278
 4944SOL    HW216730  12.841  10.668   8.262
 4945SOL     OW16731   5.383   8.959   3.717
 4945SOL    HW116732   5.422   9.030   3.767
 4945SOL    HW216733   5.458   8.911   3.682
 4946SOL     OW16734  13.227  14.138  13.700
 4946SOL    HW116735  13.283  14.087  13.640
 4946SOL    HW216736  13.138  14.111  13.677
 4947SOL     OW16737  13.425   6.730   5.996
 4947SOL    HW116738  13.459   6.698   5.912
 4947SOL    HW216739  13.372   6.806   5.973
 4948SOL     OW16740   7.767  14.105   6.228
 4948SOL    HW116741   7.822  14.041   6.273
 4948SOL    HW216742   7.712  14.052   6.169
 4949SOL     OW16743  13.473   0.292   1.892
 4949SOL    HW116744  13.443   0.238   1.819
 4949SOL    HW216745  13.496   0.229   1.961
 4950SOL     OW16746   2.260  13.992   4.200
 4950SOL    HW116747   2.214  13.943   4.132
 4950SOL    HW216748   2.190  14.030   4.253
 4951SOL     OW16749   8.652  13.382  13.775
 4951SOL    HW116750   8.621  13.437  13.847
 4951SOL    HW216751   8.605  13.413  13.698
 4952SOL     OW16752   2.490   2.793  13.519
 4952SOL    HW116753   2.583   2.811  13.504
 4952SOL    HW216754   2.473   2.712  13.470
 4953SOL     OW16755  11.919  11.310  12.087
 4953SOL    HW116756  11.985  11.309  12.157
 4953SOL    HW216757  11.914  11.219  12.058
 4954SOL     OW16758  10.970  10.858   0.773
 4954SOL    HW116759  10.909  10.810   0.830
 4954SOL    HW216760  10.915  10.916   0.721
 4955SOL     OW16761  10.764   9.656   1.619
 4955SOL    HW116762  10.840   9.700   1.659
 4955SOL    HW216763  10.710   9.727   1.586
 4956SOL     OW16764   1.532  12.052  13.787
 4956SOL    HW116765   1.447  12.094  13.800
 4956SOL    HW216766   1.570  12.045  13.875
 4957SOL     OW16767   8.086   2.449   9.747
 4957SOL    HW116768   8.171   2.404   9.747
 4957SOL    HW216769   8.107   2.540   9.729
 4958SOL     OW16770   5.272   4.364   0.460
 4958SOL    HW116771   5.273   4.334   0.551
 4958SOL    HW216772   5.334   4.437   0.458
 4959SOL     OW16773   5.181   4.914   1.641
 4959SOL    HW116774   5.247   4.951   1.699
 4959SOL    HW216775   5.216   4.927   1.553
 4960SOL     OW16776  12.851  14.342   5.461
 4960SOL    HW116777  12.764  14.353   5.499
 4960SOL    HW216778  12.872  14.250   5.475
 4961SOL     OW16779   7.181   9.823   7.533
 4961SOL    HW116780   7.162   9.880   7.607
 4961SOL    HW216781   7.267   9.850   7.503
 4962SOL     OW16782   3.238   4.049  13.195
 4962SOL    HW116783   3.169   4.047  13.130
 4962SOL    HW216784   3.229   3.967  13.243
 4963SOL     OW16785  13.701   0.211  11.425
 4963SOL    HW116786  13.794   0.233  11.418
 4963SOL    HW216787  13.670   0.264  11.498
 4964SOL     OW16788   4.337   9.916   9.141
 4964SOL    HW116789   4.256   9.887   9.183
 4964SOL    HW216790   4.344   9.862   9.062
 4965SOL     OW16791   4.638  14.560   7.860
 4965SOL    HW116792   4.624  14.519   7.946
 4965SOL    HW216793   4.701  14.503   7.816
 4966SOL     OW16794   7.277  14.238   3.387
 4966SOL    HW116795   7.239  14.319   3.352
 4966SOL    HW216796   7.323  14.199   3.314
 4967SOL     OW16797  14.525   5.124   1.533
 4967SOL    HW116798  14.433   5.151   1.532
 4967SOL    HW216799  14.573   5.205   1.512
 4968SOL     OW16800  10.420   4.032   1.087
 4968SOL    HW116801  10.492   4.006   1.144
 4968SOL    HW216802  10.357   3.960   1.094
 4969SOL     OW16803  14.735   7.666   6.136
 4969SOL    HW116804  14.685   7.604   6.189
 4969SOL    HW216805  14.826   7.637   6.144
 4970SOL     OW16806   6.330  12.195   0.800
 4970SOL    HW116807   6.287  12.110   0.805
 4970SOL    HW216808   6.271  12.249   0.747
 4971SOL     OW16809  10.059  14.763   6.189
 4971SOL    HW116810  10.075  14.688   6.133
 4971SOL    HW216811  10.135  14.765   6.248
 4972SOL     OW16812   6.818  12.470   3.145
 4972SOL    HW116813   6.907  12.478   3.179
 4972SOL    HW216814   6.792  12.560   3.125
 4973SOL     OW16815   0.204  14.653   0.850
 4973SOL    HW116816   0.170  14.742   0.858
 4973SOL    HW216817   0.127  14.599   0.832
 4974SOL     OW16818  13.523   9.746  12.831
 4974SOL    HW116819  13.521   9.666  12.779
 4974SOL    HW216820  13.449   9.798  12.799
 4975SOL     OW16821  13.148   8.543  13.657
 4975SOL    HW116822  13.109   8.519  13.741
 4975SOL    HW216823  13.171   8.460  13.616
 4976SOL     OW16824   0.452  14.314   0.088
 4976SOL    HW116825   0.427  14.285   0.000
 4976SOL    HW216826   0.447  14.235   0.141
 4977SOL     OW16827  11.253  11.309   6.340
 4977SOL    HW116828  11.192  11.307   6.413
 4977SOL    HW216829  11.337  11.334   6.378
 4978SOL     OW16830   5.417   0.699  14.390
 4978SOL    HW116831   5.507   0.667  14.401
 4978SOL    HW216832   5.428   0.787  14.355
 4979SOL     OW16833   7.961   3.925  11.155
 4979SOL    HW116834   7.935   3.909  11.246
 4979SOL    HW216835   7.972   4.019  11.149
 4980SOL     OW16836  12.351   5.309  14.276
 4980SOL    HW116837  12.380   5.388  14.322
 4980SOL    HW216838  12.428   5.277  14.230
 4981SOL     OW16839   5.088  14.556   6.987
 4981SOL    HW116840   5.023  14.625   6.982
 4981SOL    HW216841   5.042  14.477   6.958
 4982SOL     OW16842   4.668  14.438   4.500
 4982SOL    HW116843   4.639  14.520   4.539
 4982SOL    HW216844   4.758  14.427   4.532
 4983SOL     OW16845  11.437  12.904   8.922
 4983SOL    HW116846  11.513  12.960   8.940
 4983SOL    HW216847  11.407  12.876   9.009
 4984SOL     OW16848   4.512   1.560   2.831
 4984SOL    HW116849   4.485   1.475   2.796
 4984SOL    HW216850   4.593   1.542   2.877
 4985SOL     OW16851   0.614   7.140   0.824
 4985SOL    HW116852   0.612   7.211   0.889
 4985SOL    HW216853   0.682   7.081   0.857
 4986SOL     OW16854   0.186   7.866   8.605
 4986SOL    HW116855   0.192   7.903   8.517
 4986SOL    HW216856   0.153   7.777   8.592
 4987SOL     OW16857  14.144   1.539   2.352
 4987SOL    HW116858  14.069   1.550   2.293
 4987SOL    HW216859  14.141   1.447   2.378
 4988SOL     OW16860   2.769   4.747   1.176
 4988SOL    HW116861   2.705   4.737   1.247
 4988SOL    HW216862   2.791   4.840   1.177
 4989SOL     OW16863   7.841   3.325  10.138
 4989SOL    HW116864   7.820   3.231  10.137
 4989SOL    HW216865   7.923   3.331  10.089
 4990SOL     OW16866   1.904   1.656   8.038
 4990SOL    HW116867   1.953   1.723   7.989
 4990SOL    HW216868   1.886   1.588   7.974
 4991SOL     OW16869   8.434   9.000  11.855
 4991SOL    HW116870   8.497   9.028  11.922
 4991SOL    HW216871   8.364   8.956  11.904
 4992SOL     OW16872   1.755   6.881   5.150
 4992SOL    HW116873   1.818   6.810   5.160
 4992SOL    HW216874   1.690   6.866   5.219
 4993SOL     OW16875   1.189   9.469   7.658
 4993SOL    HW116876   1.194   9.557   7.621
 4993SOL    HW216877   1.136   9.419   7.596
 4994SOL     OW16878   9.351  12.855  13.336
 4994SOL    HW116879   9.319  12.903  13.412
 4994SOL    HW216880   9.278  12.855  13.275
 4995SOL     OW16881  14.499   1.258   3.486
 4995SOL    HW116882  14.544   1.228   3.564
 4995SOL    HW216883  14.562   1.245   3.415
 4996SOL     OW16884   2.548   3.687   8.436
 4996SOL    HW116885   2.586   3.693   8.349
 4996SOL    HW216886   2.547   3.593   8.456
 4997SOL     OW16887  10.026   2.415   4.265
 4997SOL    HW116888  10.035   2.480   4.335
 4997SOL    HW216889   9.969   2.348   4.302
 4998SOL     OW16890  14.459   4.446  10.475
 4998SOL    HW116891  14.483   4.384  10.406
 4998SOL    HW216892  14.515   4.522  10.461
 4999SOL     OW16893   8.338   5.211  13.925
 4999SOL    HW116894   8.400   5.260  13.871
 4999SOL    HW216895   8.391   5.144  13.968
 5000SOL     OW16896   4.410   5.774   7.489
 5000SOL    HW116897   4.383   5.761   7.398
 5000SOL    HW216898   4.482   5.837   7.484
 5001SOL     OW16899  11.642   3.071   2.555
 5001SOL    HW116900  11.651   3.056   2.649
 5001SOL    HW216901  11.675   2.992   2.514
 5002SOL     OW16902  12.526   2.749  12.713
 5002SOL    HW116903  12.556   2.763  12.802
 5002SOL    HW216904  12.604   2.719  12.665
 5003SOL     OW16905   5.123   7.405  14.207
 5003SOL    HW116906   5.218   7.408  14.197
 5003SOL    HW216907   5.090   7.460  14.136
 5004SOL     OW16908  10.539   8.156  11.752
 5004SOL    HW116909  10.467   8.199  11.798
 5004SOL    HW216910  10.498   8.081  11.709
 5005SOL     OW16911   9.724  13.079   4.670
 5005SOL    HW116912   9.815  13.083   4.699
 5005SOL    HW216913   9.677  13.046   4.746
 5006SOL     OW16914  12.346   5.648   2.420
 5006SOL    HW116915  12.333   5.622   2.329
 5006SOL    HW216916  12.383   5.570   2.462
 5007SOL     OW16917  13.536   0.769  13.953
 5007SOL    HW116918  13.490   0.831  13.896
 5007SOL    HW216919  13.583   0.824  14.016
 5008SOL     OW16920   8.121   6.286   5.043
 5008SOL    HW116921   8.159   6.270   5.129
 5008SOL    HW216922   8.194   6.278   4.982
 5009SOL     OW16923   8.622  10.068   2.603
 5009SOL    HW116924   8.537  10.057   2.561
 5009SOL    HW216925   8.612  10.024   2.688
 5010SOL     OW16926   6.749   8.784  13.398
 5010SOL    HW116927   6.753   8.701  13.350
 5010SOL    HW216928   6.679   8.832  13.356
 5011SOL     OW16929  13.887   2.446   4.367
 5011SOL    HW116930  13.920   2.366   4.327
 5011SOL    HW216931  13.897   2.432   4.461
 5012SOL     OW16932   1.813  10.951   2.491
 5012SOL    HW116933   1.766  10.911   2.418
 5012SOL    HW216934   1.762  11.029   2.514
 5013SOL     OW16935  14.218   6.061   3.634
 5013SOL    HW116936  14.299   6.111   3.647
 5013SOL    HW216937  14.169   6.074   3.715
 5014SOL     OW16938  13.377   3.431   0.357
 5014SOL    HW116939  13.338   3.356   0.311
 5014SOL    HW216940  13.347   3.507   0.307
 5015SOL     OW16941   6.576   9.119  13.937
 5015SOL    HW116942   6.620   9.180  13.996
 5015SOL    HW216943   6.586   9.033  13.979
 5016SOL     OW16944   3.578  10.738   8.581
 5016SOL    HW116945   3.654  10.796   8.588
 5016SOL    HW216946   3.607  10.666   8.526
 5017SOL     OW16947   1.230   8.462   9.649
 5017SOL    HW116948   1.246   8.554   9.671
 5017SOL    HW216949   1.193   8.463   9.562
 5018SOL     OW16950   6.429   2.685  14.534
 5018SOL    HW116951   6.520   2.703  14.511
 5018SOL    HW216952   6.406   2.606  14.485
 5019SOL     OW16953   0.990   6.372   7.855
 5019SOL    HW116954   0.985   6.428   7.778
 5019SOL    HW216955   0.901   6.343   7.870
 5020SOL     OW16956   7.900  13.968   1.843
 5020SOL    HW116957   7.931  13.891   1.890
 5020SOL    HW216958   7.959  13.975   1.767
 5021SOL     OW16959   7.844   7.476  13.185
 5021SOL    HW116960   7.791   7.516  13.117
 5021SOL    HW216961   7.787   7.412  13.227
 5022SOL     OW16962  10.727   1.914   6.399
 5022SOL    HW116963  10.761   1.887   6.484
 5022SOL    HW216964  10.668   1.986   6.418
 5023SOL     OW16965   2.097  14.130   0.859
 5023SOL    HW116966   2.164  14.093   0.918
 5023SOL    HW216967   2.131  14.114   0.771
 5024SOL     OW16968   2.426   5.117   4.934
 5024SOL    HW116969   2.447   5.190   4.993
 5024SOL    HW216970   2.442   5.152   4.847
 5025SOL     OW16971   1.292   3.889   7.473
 5025SOL    HW116972   1.374   3.937   7.459
 5025SOL    HW216973   1.268   3.855   7.386
 5026SOL     OW16974   4.339   2.524  12.832
 5026SOL    HW116975   4.358   2.560  12.919
 5026SOL    HW216976   4.378   2.437  12.833
 5027SOL     OW16977   3.280  13.859  10.472
 5027SOL    HW116978   3.355  13.846  10.531
 5027SOL    HW216979   3.264  13.772  10.434
 5028SOL     OW16980   5.434  10.726   5.697
 5028SOL    HW116981   5.397  10.773   5.772
 5028SOL    HW216982   5.424  10.633   5.719
 5029SOL     OW16983  11.325   2.552   2.140
 5029SOL    HW116984  11.308   2.637   2.180
 5029SOL    HW216985  11.263   2.548   2.066
 5030SOL     OW16986  12.653   6.771   8.587
 5030SOL    HW116987  12.592   6.709   8.629
 5030SOL    HW216988  12.627   6.856   8.622
 5031SOL     OW16989   2.779  12.896  14.339
 5031SOL    HW116990   2.796  12.932  14.426
 5031SOL    HW216991   2.684  12.893  14.333
 5032SOL     OW16992   7.695  14.487  10.535
 5032SOL    HW116993   7.780  14.500  10.576
 5032SOL    HW216994   7.639  14.556  10.573
 5033SOL     OW16995   9.914   7.465   8.446
 5033SOL    HW116996   9.867   7.548   8.443
 5033SOL    HW216997   9.901   7.427   8.359
 5034SOL     OW16998   4.704   2.736   4.603
 5034SOL    HW116999   4.735   2.809   4.550
 5034SOL    HW217000   4.687   2.774   4.689
 5035SOL     OW17001  13.402   9.506   0.545
 5035SOL    HW117002  13.408   9.581   0.605
 5035SOL    HW217003  13.485   9.508   0.497
 5036SOL     OW17004   3.277   8.797  12.903
 5036SOL    HW117005   3.354   8.817  12.849
 5036SOL    HW217006   3.240   8.882  12.924
 5037SOL     OW17007   3.244   7.111  13.398
 5037SOL    HW117008   3.334   7.080  13.409
 5037SOL    HW217009   3.253   7.197  13.357
 5038SOL     OW17010   0.624   7.149   3.983
 5038SOL    HW117011   0.694   7.132   3.921
 5038SOL    HW217012   0.554   7.089   3.957
 5039SOL     OW17013   6.787   1.257   3.586
 5039SOL    HW117014   6.716   1.195   3.602
 5039SOL    HW217015   6.860   1.203   3.557
 5040SOL     OW17016  13.342   2.603   2.367
 5040SOL    HW117017  13.308   2.526   2.414
 5040SOL    HW217018  13.431   2.578   2.342
 5041SOL     OW17019   2.944   6.580   4.787
 5041SOL    HW117020   2.976   6.514   4.848
 5041SOL    HW217021   2.905   6.647   4.842
 5042SOL     OW17022   9.274   6.371   0.098
 5042SOL    HW117023   9.291   6.379   0.004
 5042SOL    HW217024   9.349   6.414   0.140
 5043SOL     OW17025   6.442   7.941   6.095
 5043SOL    HW117026   6.509   7.990   6.047
 5043SOL    HW217027   6.483   7.919   6.179
 5044SOL     OW17028   8.283   3.448  13.289
 5044SOL    HW117029   8.340   3.380  13.255
 5044SOL    HW217030   8.339   3.499  13.348
 5045SOL     OW17031  11.608   4.092   7.655
 5045SOL    HW117032  11.576   4.016   7.704
 5045SOL    HW217033  11.626   4.158   7.722
 5046SOL     OW17034   5.393  11.442   3.367
 5046SOL    HW117035   5.341  11.416   3.443
 5046SOL    HW217036   5.338  11.506   3.322
 5047SOL     OW17037   6.606  13.523  11.141
 5047SOL    HW117038   6.693  13.496  11.169
 5047SOL    HW217039   6.561  13.544  11.223
 5048SOL     OW17040   6.276   5.633  14.452
 5048SOL    HW117041   6.188   5.641  14.488
 5048SOL    HW217042   6.333   5.623  14.528
 5049SOL     OW17043   7.598  11.120   3.206
 5049SOL    HW117044   7.679  11.086   3.244
 5049SOL    HW217045   7.544  11.042   3.192
 5050SOL     OW17046   5.670   4.522  14.829
 5050SOL    HW117047   5.719   4.440  14.828
 5050SOL    HW217048   5.580   4.496  14.806
 5051SOL     OW17049  10.367   1.992   4.170
 5051SOL    HW117050  10.313   1.986   4.249
 5051SOL    HW217051  10.327   2.062   4.119
 5052SOL     OW17052  10.230  11.195   0.417
 5052SOL    HW117053  10.136  11.211   0.405
 5052SOL    HW217054  10.273  11.267   0.372
 5053SOL     OW17055   2.882   2.828  12.501
 5053SOL    HW117056   2.906   2.737  12.514
 5053SOL    HW217057   2.848   2.856  12.587
 5054SOL     OW17058   4.863  13.126   0.937
 5054SOL    HW117059   4.944  13.113   0.986
 5054SOL    HW217060   4.846  13.220   0.943
 5055SOL     OW17061   7.041  13.373   7.705
 5055SOL    HW117062   6.998  13.352   7.622
 5055SOL    HW217063   6.977  13.348   7.772
 5056SOL     OW17064   1.298  12.266   7.522
 5056SOL    HW117065   1.338  12.188   7.562
 5056SOL    HW217066   1.347  12.339   7.560
 5057SOL     OW17067   1.699  11.860   7.700
 5057SOL    HW117068   1.712  11.875   7.794
 5057SOL    HW217069   1.767  11.910   7.657
 5058SOL     OW17070   8.191  10.513   3.611
 5058SOL    HW117071   8.197  10.421   3.585
 5058SOL    HW217072   8.279  10.536   3.638
 5059SOL     OW17073  14.791   3.949   8.446
 5059SOL    HW117074  14.734   3.915   8.377
 5059SOL    HW217075  14.818   4.035   8.415
 5060SOL     OW17076   8.486   1.379  14.568
 5060SOL    HW117077   8.426   1.454  14.561
 5060SOL    HW217078   8.429   1.305  14.589
 5061SOL     OW17079   7.704  12.165  10.545
 5061SOL    HW117080   7.630  12.105  10.557
 5061SOL    HW217081   7.680  12.216  10.467
 5062SOL     OW17082   3.224   3.095  12.973
 5062SOL    HW117083   3.254   3.023  13.029
 5062SOL    HW217084   3.282   3.167  12.994
 5063SOL     OW17085   6.928   9.115   9.700
 5063SOL    HW117086   6.943   9.209   9.704
 5063SOL    HW217087   6.871   9.096   9.775
 5064SOL     OW17088   8.031   0.002   3.021
 5064SOL    HW117089   8.077  14.872   3.105
 5064SOL    HW217090   7.944  14.847   3.037
 5065SOL     OW17091   6.083   1.041  12.891
 5065SOL    HW117092   6.108   0.949  12.881
 5065SOL    HW217093   6.020   1.042  12.963
 5066SOL     OW17094   0.374   9.163   2.655
 5066SOL    HW117095   0.423   9.176   2.574
 5066SOL    HW217096   0.379   9.068   2.671
 5067SOL     OW17097  11.506   2.287   0.429
 5067SOL    HW117098  11.424   2.261   0.388
 5067SOL    HW217099  11.551   2.205   0.449
 5068SOL     OW17100   7.389  14.268   1.825
 5068SOL    HW117101   7.394  14.330   1.752
 5068SOL    HW217102   7.304  14.284   1.865
 5069SOL     OW17103   2.392   6.237  14.293
 5069SOL    HW117104   2.374   6.143  14.292
 5069SOL    HW217105   2.336   6.272  14.363
 5070SOL     OW17106   9.197  10.396   8.983
 5070SOL    HW117107   9.276  10.359   9.021
 5070SOL    HW217108   9.191  10.484   9.021
 5071SOL     OW17109   7.420   6.700   7.333
 5071SOL    HW117110   7.482   6.629   7.350
 5071SOL    HW217111   7.341   6.656   7.300
 5072SOL     OW17112   9.242   4.540   3.758
 5072SOL    HW117113   9.330   4.522   3.726
 5072SOL    HW217114   9.185   4.492   3.698
 5073SOL     OW17115   3.974  11.481   8.311
 5073SOL    HW117116   4.007  11.538   8.380
 5073SOL    HW217117   3.894  11.443   8.347
 5074SOL     OW17118   6.035  13.517   7.444
 5074SOL    HW117119   6.005  13.509   7.354
 5074SOL    HW217120   6.113  13.461   7.449
 5075SOL     OW17121   6.855  13.446  14.076
 5075SOL    HW117122   6.927  13.508  14.084
 5075SOL    HW217123   6.787  13.493  14.027
 5076SOL     OW17124  11.711   5.614   9.825
 5076SOL    HW117125  11.726   5.657   9.741
 5076SOL    HW217126  11.686   5.684   9.884
 5077SOL     OW17127   8.835   7.520   1.051
 5077SOL    HW117128   8.822   7.612   1.075
 5077SOL    HW217129   8.911   7.521   0.994
 5078SOL     OW17130   8.518   8.614  11.001
 5078SOL    HW117131   8.450   8.592  11.065
 5078SOL    HW217132   8.471   8.631  10.920
 5079SOL     OW17133   6.016  12.953  12.954
 5079SOL    HW117134   5.929  12.992  12.954
 5079SOL    HW217135   6.053  12.975  12.869
 5080SOL     OW17136   9.062  14.062   0.814
 5080SOL    HW117137   9.038  13.970   0.803
 5080SOL    HW217138   9.057  14.077   0.908
 5081SOL     OW17139   9.178  14.637  12.543
 5081SOL    HW117140   9.111  14.605  12.604
 5081SOL    HW217141   9.250  14.666  12.600
 5082SOL     OW17142   9.271   6.719   3.280
 5082SOL    HW117143   9.320   6.639   3.297
 5082SOL    HW217144   9.248   6.715   3.187
 5083SOL     OW17145  11.107   1.860  14.350
 5083SOL    HW117146  11.167   1.843  14.277
 5083SOL    HW217147  11.037   1.912  14.312
 5084SOL     OW17148   1.589   3.715   0.218
 5084SOL    HW117149   1.555   3.635   0.177
 5084SOL    HW217150   1.525   3.783   0.196
 5085SOL     OW17151   9.939  14.107   9.323
 5085SOL    HW117152   9.915  14.142   9.408
 5085SOL    HW217153   9.875  14.037   9.307
 5086SOL     OW17154  12.538   8.735  13.277
 5086SOL    HW117155  12.454   8.715  13.237
 5086SOL    HW217156  12.589   8.777  13.207
 5087SOL     OW17157   0.155   3.082   8.777
 5087SOL    HW117158   0.172   3.125   8.693
 5087SOL    HW217159   0.078   3.028   8.762
 5088SOL     OW17160   1.827   8.945   9.505
 5088SOL    HW117161   1.881   8.873   9.471
 5088SOL    HW217162   1.737   8.919   9.483
 5089SOL     OW17163  14.386   4.499  14.339
 5089SOL    HW117164  14.380   4.422  14.283
 5089SOL    HW217165  14.447   4.558  14.295
 5090SOL     OW17166   9.603   6.523  10.544
 5090SOL    HW117167   9.682   6.524  10.490
 5090SOL    HW217168   9.632   6.485  10.627
 5091SOL     OW17169   9.786   6.460  12.779
 5091SOL    HW117170   9.782   6.364  12.781
 5091SOL    HW217171   9.726   6.484  12.708
 5092SOL     OW17172   5.594  10.244  10.251
 5092SOL    HW117173   5.581  10.331  10.290
 5092SOL    HW217174   5.578  10.183  10.323
 5093SOL     OW17175  10.548   7.344   7.677
 5093SOL    HW117176  10.496   7.280   7.726
 5093SOL    HW217177  10.520   7.332   7.586
 5094SOL     OW17178   2.676  12.796   1.867
 5094SOL    HW117179   2.764  12.831   1.875
 5094SOL    HW217180   2.642  12.834   1.786
 5095SOL     OW17181   1.060   3.501   7.759
 5095SOL    HW117182   1.004   3.569   7.797
 5095SOL    HW217183   1.053   3.428   7.821
 5096SOL     OW17184   5.869   1.413   5.723
 5096SOL    HW117185   5.811   1.476   5.764
 5096SOL    HW217186   5.881   1.345   5.789
 5097SOL     OW17187   0.123  10.916  10.160
 5097SOL    HW117188   0.138  10.989  10.221
 5097SOL    HW217189   0.118  10.839  10.216
 5098SOL     OW17190   3.569   3.688  10.949
 5098SOL    HW117191   3.633   3.739  10.998
 5098SOL    HW217192   3.561   3.735  10.865
 5099SOL     OW17193  11.059   0.490  12.478
 5099SOL    HW117194  11.054   0.536  12.395
 5099SOL    HW217195  11.082   0.558  12.542
 5100SOL     OW17196   1.175  10.558  14.496
 5100SOL    HW117197   1.129  10.574  14.414
 5100SOL    HW217198   1.126  10.487  14.537
 5101SOL     OW17199   5.858   5.661   2.923
 5101SOL    HW117200   5.828   5.691   3.009
 5101SOL    HW217201   5.950   5.687   2.920
 5102SOL     OW17202  14.599  10.828   9.590
 5102SOL    HW117203  14.684  10.849   9.550
 5102SOL    HW217204  14.540  10.896   9.558
 5103SOL     OW17205  12.537   1.300   2.021
 5103SOL    HW117206  12.505   1.292   2.111
 5103SOL    HW217207  12.524   1.392   1.999
 5104SOL     OW17208  14.623  14.168   2.886
 5104SOL    HW117209  14.698  14.135   2.836
 5104SOL    HW217210  14.581  14.231   2.827
 5105SOL     OW17211   6.306   7.448   1.878
 5105SOL    HW117212   6.284   7.464   1.970
 5105SOL    HW217213   6.275   7.527   1.832
 5106SOL     OW17214   8.966   8.153   5.906
 5106SOL    HW117215   8.983   8.088   5.838
 5106SOL    HW217216   9.053   8.175   5.940
 5107SOL     OW17217   9.045   2.143   2.046
 5107SOL    HW117218   9.037   2.202   2.121
 5107SOL    HW217219   8.954   2.126   2.020
 5108SOL     OW17220   2.096   2.135  10.691
 5108SOL    HW117221   2.099   2.059  10.634
 5108SOL    HW217222   2.088   2.210  10.630
 5109SOL     OW17223  13.553  10.170  11.669
 5109SOL    HW117224  13.482  10.227  11.699
 5109SOL    HW217225  13.521  10.135  11.585
 5110SOL     OW17226   7.372   1.489   7.338
 5110SOL    HW117227   7.426   1.442   7.402
 5110SOL    HW217228   7.286   1.494   7.378
 5111SOL     OW17229   5.517   6.039   7.496
 5111SOL    HW117230   5.477   5.958   7.466
 5111SOL    HW217231   5.444   6.102   7.498
 5112SOL     OW17232  14.158  13.082  13.735
 5112SOL    HW117233  14.124  13.139  13.805
 5112SOL    HW217234  14.253  13.084  13.746
 5113SOL     OW17235   9.307  13.164   2.363
 5113SOL    HW117236   9.371  13.092   2.363
 5113SOL    HW217237   9.250  13.144   2.289
 5114SOL     OW17238   0.038  13.839   3.852
 5114SOL    HW117239  14.878  13.783   3.784
 5114SOL    HW217240   0.017  13.928   3.824
 5115SOL     OW17241   9.255   5.221   6.197
 5115SOL    HW117242   9.279   5.199   6.107
 5115SOL    HW217243   9.188   5.156   6.220
 5116SOL     OW17244  11.779   1.827  11.334
 5116SOL    HW117245  11.721   1.884  11.283
 5116SOL    HW217246  11.866   1.865  11.321
 5117SOL     OW17247   4.282   0.969   8.108
 5117SOL    HW117248   4.325   0.995   8.026
 5117SOL    HW217249   4.199   1.015   8.107
 5118SOL     OW17250  12.979   2.011   7.715
 5118SOL    HW117251  12.898   2.010   7.664
 5118SOL    HW217252  12.999   1.919   7.730
 5119SOL     OW17253   3.520   8.677   0.850
 5119SOL    HW117254   3.559   8.592   0.870
 5119SOL    HW217255   3.561   8.738   0.912
 5120SOL     OW17256   8.661   6.450   1.053
 5120SOL    HW117257   8.572   6.422   1.030
 5120SOL    HW217258   8.658   6.546   1.051
 5121SOL     OW17259   0.555   1.067   2.235
 5121SOL    HW117260   0.615   0.994   2.216
 5121SOL    HW217261   0.518   1.089   2.150
 5122SOL     OW17262   1.443   1.852   6.112
 5122SOL    HW117263   1.445   1.838   6.207
 5122SOL    HW217264   1.445   1.948   6.102
 5123SOL     OW17265   4.551   7.622   5.918
 5123SOL    HW117266   4.629   7.571   5.898
 5123SOL    HW217267   4.508   7.574   5.989
 5124SOL     OW17268  12.319  13.444   4.161
 5124SOL    HW117269  12.395  13.488   4.197
 5124SOL    HW217270  12.349  13.355   4.142
 5125SOL     OW17271   3.363   4.462   4.879
 5125SOL    HW117272   3.381   4.471   4.785
 5125SOL    HW217273   3.325   4.546   4.904
 5126SOL     OW17274   4.725   6.272   3.503
 5126SOL    HW117275   4.737   6.231   3.588
 5126SOL    HW217276   4.812   6.301   3.477
 5127SOL     OW17277   7.164  11.380  13.015
 5127SOL    HW117278   7.102  11.417  12.953
 5127SOL    HW217279   7.114  11.368  13.095
 5128SOL     OW17280   4.166   8.829  11.427
 5128SOL    HW117281   4.125   8.765  11.370
 5128SOL    HW217282   4.162   8.911  11.378
 5129SOL     OW17283   6.807   4.721  13.807
 5129SOL    HW117284   6.715   4.748  13.812
 5129SOL    HW217285   6.804   4.631  13.776
 5130SOL     OW17286   5.492   4.660   4.938
 5130SOL    HW117287   5.450   4.736   4.898
 5130SOL    HW217288   5.423   4.619   4.990
 5131SOL     OW17289   1.547   9.336  11.809
 5131SOL    HW117290   1.606   9.260  11.802
 5131SOL    HW217291   1.466   9.306  11.769
 5132SOL     OW17292   0.114   3.778   2.917
 5132SOL    HW117293   0.022   3.794   2.941
 5132SOL    HW217294   0.162   3.851   2.956
 5133SOL     OW17295   2.742  10.106   0.034
 5133SOL    HW117296   2.806  10.161  14.868
 5133SOL    HW217297   2.710  10.046  14.847
 5134SOL     OW17298   3.652   5.761   2.264
 5134SOL    HW117299   3.569   5.726   2.298
 5134SOL    HW217300   3.700   5.684   2.234
 5135SOL     OW17301   3.640   9.848   2.555
 5135SOL    HW117302   3.577   9.777   2.565
 5135SOL    HW217303   3.653   9.855   2.460
 5136SOL     OW17304  14.522  14.634   1.418
 5136SOL    HW117305  14.504  14.540   1.422
 5136SOL    HW217306  14.464  14.672   1.484
 5137SOL     OW17307   7.068  11.339   5.839
 5137SOL    HW117308   7.052  11.416   5.785
 5137SOL    HW217309   7.130  11.368   5.906
 5138SOL     OW17310   8.192  12.405   0.868
 5138SOL    HW117311   8.221  12.314   0.865
 5138SOL    HW217312   8.148  12.420   0.785
 5139SOL     OW17313   5.640  11.441   0.712
 5139SOL    HW117314   5.578  11.509   0.685
 5139SOL    HW217315   5.725  11.474   0.684
 5140SOL     OW17316  10.167   9.956   5.277
 5140SOL    HW117317  10.208   9.875   5.308
 5140SOL    HW217318  10.107   9.927   5.208
 5141SOL     OW17319   8.809  11.879   3.110
 5141SOL    HW117320   8.813  11.965   3.154
 5141SOL    HW217321   8.877  11.827   3.153
 5142SOL     OW17322  12.080  11.578  12.544
 5142SOL    HW117323  12.089  11.559  12.637
 5142SOL    HW217324  12.066  11.673  12.540
 5143SOL     OW17325  14.527  11.244  13.537
 5143SOL    HW117326  14.614  11.222  13.501
 5143SOL    HW217327  14.504  11.169  13.591
 5144SOL     OW17328   4.175   8.600   4.933
 5144SOL    HW117329   4.187   8.550   4.852
 5144SOL    HW217330   4.082   8.625   4.933
 5145SOL     OW17331   9.454   3.667   3.646
 5145SOL    HW117332   9.487   3.663   3.556
 5145SOL    HW217333   9.531   3.688   3.698
 5146SOL     OW17334  14.569   6.272   4.807
 5146SOL    HW117335  14.623   6.197   4.780
 5146SOL    HW217336  14.631   6.333   4.847
 5147SOL     OW17337   4.018   3.785   2.432
 5147SOL    HW117338   4.078   3.834   2.489
 5147SOL    HW217339   4.070   3.766   2.354
 5148SOL     OW17340   5.531  14.412   0.417
 5148SOL    HW117341   5.607  14.438   0.365
 5148SOL    HW217342   5.505  14.327   0.381
 5149SOL     OW17343  11.926  13.284  12.788
 5149SOL    HW117344  11.836  13.259  12.768
 5149SOL    HW217345  11.919  13.374  12.820
 5150SOL     OW17346   1.400  13.718   9.787
 5150SOL    HW117347   1.305  13.726   9.774
 5150SOL    HW217348   1.438  13.782   9.728
 5151SOL     OW17349   7.437  12.420  11.133
 5151SOL    HW117350   7.444  12.498  11.189
 5151SOL    HW217351   7.374  12.445  11.065
 5152SOL     OW17352   6.532   5.386  10.816
 5152SOL    HW117353   6.616   5.408  10.857
 5152SOL    HW217354   6.467   5.410  10.882
 5153SOL     OW17355   6.707   3.900   3.303
 5153SOL    HW117356   6.696   3.844   3.379
 5153SOL    HW217357   6.798   3.888   3.277
 5154SOL     OW17358  11.110   1.433   3.034
 5154SOL    HW117359  11.150   1.418   3.119
 5154SOL    HW217360  11.183   1.460   2.978
 5155SOL     OW17361   8.324   3.591   3.275
 5155SOL    HW117362   8.331   3.497   3.293
 5155SOL    HW217363   8.287   3.627   3.356
 5156SOL     OW17364  13.081   4.222   9.472
 5156SOL    HW117365  13.049   4.134   9.449
 5156SOL    HW217366  13.013   4.281   9.440
 5157SOL     OW17367   0.470   7.978  14.697
 5157SOL    HW117368   0.482   7.977  14.792
 5157SOL    HW217369   0.380   7.948  14.684
 5158SOL     OW17370   3.841  13.772   4.844
 5158SOL    HW117371   3.782  13.837   4.806
 5158SOL    HW217372   3.899  13.747   4.773
 5159SOL     OW17373   0.085   0.931   4.638
 5159SOL    HW117374   0.090   0.850   4.687
 5159SOL    HW217375   0.002   0.971   4.665
 5160SOL     OW17376   4.241   9.252  12.524
 5160SOL    HW117377   4.304   9.237  12.594
 5160SOL    HW217378   4.221   9.165  12.490
 5161SOL     OW17379  12.786  11.221   1.618
 5161SOL    HW117380  12.789  11.148   1.556
 5161SOL    HW217381  12.831  11.293   1.574
 5162SOL     OW17382   5.146   8.828   7.274
 5162SOL    HW117383   5.136   8.758   7.209
 5162SOL    HW217384   5.095   8.901   7.239
 5163SOL     OW17385   7.277   2.396   1.513
 5163SOL    HW117386   7.190   2.360   1.496
 5163SOL    HW217387   7.297   2.447   1.435
 5164SOL     OW17388   9.381   9.205  14.158
 5164SOL    HW117389   9.319   9.228  14.228
 5164SOL    HW217390   9.465   9.197  14.203
 5165SOL     OW17391  14.372   6.165   3.269
 5165SOL    HW117392  14.426   6.216   3.331
 5165SOL    HW217393  14.423   6.164   3.188
 5166SOL     OW17394  10.287   5.801  13.966
 5166SOL    HW117395  10.327   5.746  13.899
 5166SOL    HW217396  10.243   5.871  13.916
 5167SOL     OW17397   4.431   2.161  11.356
 5167SOL    HW117398   4.454   2.244  11.315
 5167SOL    HW217399   4.336   2.154  11.346
 5168SOL     OW17400   6.540   7.361   1.792
 5168SOL    HW117401   6.589   7.443   1.801
 5168SOL    HW217402   6.453   7.381   1.827
 5169SOL     OW17403  13.342   7.164   6.734
 5169SOL    HW117404  13.276   7.130   6.794
 5169SOL    HW217405  13.306   7.247   6.704
 5170SOL     OW17406  12.734  11.272  12.404
 5170SOL    HW117407  12.703  11.310  12.322
 5170SOL    HW217408  12.758  11.348  12.458
 5171SOL     OW17409  11.067  11.674  10.923
 5171SOL    HW117410  10.973  11.657  10.922
 5171SOL    HW217411  11.095  11.649  11.012
 5172SOL     OW17412  14.023  12.952   8.110
 5172SOL    HW117413  14.037  13.025   8.170
 5172SOL    HW217414  13.972  12.889   8.161
 5173SOL     OW17415   6.610   8.236   6.771
 5173SOL    HW117416   6.674   8.306   6.760
 5173SOL    HW217417   6.652   8.159   6.733
 5174SOL     OW17418   5.529   4.886  12.033
 5174SOL    HW117419   5.478   4.935  12.098
 5174SOL    HW217420   5.473   4.886  11.955
 5175SOL     OW17421  11.431   1.892  12.793
 5175SOL    HW117422  11.368   1.896  12.865
 5175SOL    HW217423  11.430   1.800  12.767
 5176SOL     OW17424  14.278   2.962   9.322
 5176SOL    HW117425  14.358   3.014   9.332
 5176SOL    HW217426  14.308   2.871   9.330
 5177SOL     OW17427  14.867  11.887  10.301
 5177SOL    HW117428   0.044  11.933  10.362
 5177SOL    HW217429  14.782  11.883  10.347
 5178SOL     OW17430  10.271   1.666   0.130
 5178SOL    HW117431  10.304   1.580   0.104
 5178SOL    HW217432  10.275   1.665   0.225
 5179SOL     OW17433  11.683  14.091   3.401
 5179SOL    HW117434  11.731  14.062   3.324
 5179SOL    HW217435  11.722  14.176   3.422
 5180SOL     OW17436   8.605   8.055   0.925
 5180SOL    HW117437   8.540   8.126   0.923
 5180SOL    HW217438   8.668   8.078   0.857
 5181SOL     OW17439  13.870  12.298  14.739
 5181SOL    HW117440  13.853  12.392  14.745
 5181SOL    HW217441  13.805  12.258  14.798
 5182SOL     OW17442   6.908   7.021  14.851
 5182SOL    HW117443   6.939   6.940  14.811
 5182SOL    HW217444   6.874   7.072  14.778
 5183SOL     OW17445   4.869   1.279  13.607
 5183SOL    HW117446   4.874   1.261  13.701
 5183SOL    HW217447   4.828   1.202  13.569
 5184SOL     OW17448   3.774   9.954   2.763
 5184SOL    HW117449   3.837   9.883   2.764
 5184SOL    HW217450   3.718   9.935   2.688
 5185SOL     OW17451   7.629   4.241   7.749
 5185SOL    HW117452   7.640   4.193   7.831
 5185SOL    HW217453   7.535   4.242   7.734
 5186SOL     OW17454   2.851  13.580  14.492
 5186SOL    HW117455   2.854  13.622  14.578
 5186SOL    HW217456   2.769  13.610  14.453
 5187SOL     OW17457  12.141   9.514   8.054
 5187SOL    HW117458  12.097   9.571   8.117
 5187SOL    HW217459  12.186   9.449   8.108
 5188SOL     OW17460   2.285   7.562   5.210
 5188SOL    HW117461   2.285   7.629   5.142
 5188SOL    HW217462   2.373   7.524   5.207
 5189SOL     OW17463  12.860   4.883   8.287
 5189SOL    HW117464  12.788   4.845   8.338
 5189SOL    HW217465  12.914   4.928   8.352
 5190SOL     OW17466   7.645   6.343   9.962
 5190SOL    HW117467   7.656   6.407  10.033
 5190SOL    HW217468   7.735   6.326   9.931
 5191SOL     OW17469   2.354   6.743   4.846
 5191SOL    HW117470   2.322   6.681   4.911
 5191SOL    HW217471   2.444   6.763   4.874
 5192SOL     OW17472   4.366   0.069   9.003
 5192SOL    HW117473   4.370  14.872   9.060
 5192SOL    HW217474   4.364   0.143   9.064
 5193SOL     OW17475   1.062  13.466  11.872
 5193SOL    HW117476   1.126  13.412  11.919
 5193SOL    HW217477   1.107  13.491  11.791
 5194SOL     OW17478   0.560   7.557   5.955
 5194SOL    HW117479   0.584   7.649   5.966
 5194SOL    HW217480   0.559   7.544   5.860
 5195SOL     OW17481   3.245   6.438   8.142
 5195SOL    HW117482   3.205   6.509   8.194
 5195SOL    HW217483   3.339   6.450   8.155
 5196SOL     OW17484   4.995   8.406  12.212
 5196SOL    HW117485   4.907   8.444  12.216
 5196SOL    HW217486   5.013   8.397  12.118
 5197SOL     OW17487   7.538  11.207   3.610
 5197SOL    HW117488   7.581  11.208   3.525
 5197SOL    HW217489   7.535  11.298   3.637
 5198SOL     OW17490   5.784  14.278  12.505
 5198SOL    HW117491   5.738  14.204  12.544
 5198SOL    HW217492   5.877  14.253  12.508
 5199SOL     OW17493  11.029   7.881   7.507
 5199SOL    HW117494  10.967   7.812   7.531
 5199SOL    HW217495  11.055   7.921   7.590
 5200SOL     OW17496  12.259   5.555  11.480
 5200SOL    HW117497  12.202   5.629  11.463
 5200SOL    HW217498  12.289   5.568  11.571
 5201SOL     OW17499   6.897   0.091   6.039
 5201SOL    HW117500   6.949   0.105   5.960
 5201SOL    HW217501   6.961   0.090   6.110
 5202SOL     OW17502   3.070  14.587   7.048
 5202SOL    HW117503   3.125  14.541   7.111
 5202SOL    HW217504   3.105  14.563   6.963
 5203SOL     OW17505  12.192  11.739   0.976
 5203SOL    HW117506  12.157  11.655   0.946
 5203SOL    HW217507  12.177  11.738   1.071
 5204SOL     OW17508  12.998   3.377   4.430
 5204SOL    HW117509  12.987   3.301   4.374
 5204SOL    HW217510  12.927   3.437   4.405
 5205SOL     OW17511   8.831   5.149   6.336
 5205SOL    HW117512   8.850   5.159   6.243
 5205SOL    HW217513   8.871   5.226   6.377
 5206SOL     OW17514   5.475   7.052   7.665
 5206SOL    HW117515   5.495   6.967   7.703
 5206SOL    HW217516   5.472   7.037   7.571
 5207SOL     OW17517  11.287  12.607   0.578
 5207SOL    HW117518  11.219  12.669   0.603
 5207SOL    HW217519  11.250  12.521   0.599
 5208SOL     OW17520  10.484   7.527   2.214
 5208SOL    HW117521  10.391   7.519   2.234
 5208SOL    HW217522  10.493   7.492   2.125
 5209SOL     OW17523  13.400   7.543   3.348
 5209SOL    HW117524  13.365   7.532   3.260
 5209SOL    HW217525  13.401   7.454   3.384
 5210SOL     OW17526   5.329  14.238   6.769
 5210SOL    HW117527   5.413  14.192   6.771
 5210SOL    HW217528   5.264  14.170   6.786
 5211SOL     OW17529   6.863   0.150  12.290
 5211SOL    HW117530   6.863   0.125  12.198
 5211SOL    HW217531   6.929   0.218  12.297
 5212SOL     OW17532   2.182  13.939   1.052
 5212SOL    HW117533   2.110  13.946   1.114
 5212SOL    HW217534   2.151  13.876   0.986
 5213SOL     OW17535   7.495  10.957  11.993
 5213SOL    HW117536   7.530  10.897  11.927
 5213SOL    HW217537   7.550  10.943  12.070
 5214SOL     OW17538  11.524   0.623   9.445
 5214SOL    HW117539  11.441   0.589   9.477
 5214SOL    HW217540  11.588   0.599   9.513
 5215SOL     OW17541   7.797   4.615   0.554
 5215SOL    HW117542   7.809   4.522   0.539
 5215SOL    HW217543   7.704   4.631   0.539
 5216SOL     OW17544  10.578  13.321  13.771
 5216SOL    HW117545  10.506  13.266  13.741
 5216SOL    HW217546  10.655  13.287  13.725
 5217SOL     OW17547   0.249   6.278   5.933
 5217SOL    HW117548   0.321   6.339   5.945
 5217SOL    HW217549   0.170   6.333   5.939
 5218SOL     OW17550   7.047   4.791   1.774
 5218SOL    HW117551   7.122   4.788   1.716
 5218SOL    HW217552   6.972   4.807   1.716
 5219SOL     OW17553  11.199  13.946   8.774
 5219SOL    HW117554  11.182  14.038   8.752
 5219SOL    HW217555  11.241  13.911   8.695
 5220SOL     OW17556   8.217   7.122   4.273
 5220SOL    HW117557   8.260   7.127   4.188
 5220SOL    HW217558   8.123   7.128   4.253
 5221SOL     OW17559  10.953   0.933   0.167
 5221SOL    HW117560  10.927   0.841   0.163
 5221SOL    HW217561  11.046   0.930   0.189
 5222SOL     OW17562  10.214   1.708   1.763
 5222SOL    HW117563  10.124   1.739   1.755
 5222SOL    HW217564  10.238   1.677   1.676
 5223SOL     OW17565   6.006  14.764   1.985
 5223SOL    HW117566   6.050  14.708   1.922
 5223SOL    HW217567   6.038  14.852   1.966
 5224SOL     OW17568   1.242   1.201  14.806
 5224SOL    HW117569   1.186   1.235  14.736
 5224SOL    HW217570   1.251   1.275  14.866
 5225SOL     OW17571   1.738   4.215   5.958
 5225SOL    HW117572   1.737   4.309   5.942
 5225SOL    HW217573   1.661   4.182   5.910
 5226SOL     OW17574  10.830   3.041  13.391
 5226SOL    HW117575  10.866   3.108  13.332
 5226SOL    HW217576  10.902   2.978  13.401
 5227SOL     OW17577   5.698   1.481  14.199
 5227SOL    HW117578   5.769   1.532  14.159
 5227SOL    HW217579   5.734   1.393  14.209
 5228SOL     OW17580   8.962   3.250  11.094
 5228SOL    HW117581   9.045   3.268  11.139
 5228SOL    HW217582   8.958   3.317  11.026
 5229SOL     OW17583   7.326   6.857   2.586
 5229SOL    HW117584   7.347   6.764   2.576
 5229SOL    HW217585   7.241   6.867   2.544
 5230SOL     OW17586   3.970  11.977   0.175
 5230SOL    HW117587   3.939  11.979   0.265
 5230SOL    HW217588   3.890  11.964   0.123
 5231SOL     OW17589  13.757   3.586   7.302
 5231SOL    HW117590  13.766   3.615   7.212
 5231SOL    HW217591  13.692   3.645   7.340
 5232SOL     OW17592   6.987  11.099  14.315
 5232SOL    HW117593   6.993  11.186  14.277
 5232SOL    HW217594   7.077  11.075  14.336
 5233SOL     OW17595  11.513   8.582   2.436
 5233SOL    HW117596  11.571   8.506   2.443
 5233SOL    HW217597  11.572   8.656   2.422
 5234SOL     OW17598   6.292   4.714   2.231
 5234SOL    HW117599   6.207   4.681   2.201
 5234SOL    HW217600   6.346   4.636   2.243
 5235SOL     OW17601   1.320  12.608  12.472
 5235SOL    HW117602   1.236  12.569  12.497
 5235SOL    HW217603   1.385  12.547  12.505
 5236SOL     OW17604  10.315  14.729  11.893
 5236SOL    HW117605  10.276  14.769  11.815
 5236SOL    HW217606  10.390  14.679  11.860
 5237SOL     OW17607   6.101  12.136   5.837
 5237SOL    HW117608   6.089  12.225   5.803
 5237SOL    HW217609   6.196  12.122   5.833
 5238SOL     OW17610   6.405   5.769   7.870
 5238SOL    HW117611   6.377   5.830   7.938
 5238SOL    HW217612   6.500   5.780   7.865
 5239SOL     OW17613   9.161   6.214   9.565
 5239SOL    HW117614   9.102   6.234   9.638
 5239SOL    HW217615   9.222   6.150   9.601
 5240SOL     OW17616  10.012   6.850   7.659
 5240SOL    HW117617   9.975   6.765   7.682
 5240SOL    HW217618   9.937   6.902   7.628
 5241SOL     OW17619   7.835   9.351  10.208
 5241SOL    HW117620   7.838   9.380  10.300
 5241SOL    HW217621   7.923   9.365  10.175
 5242SOL     OW17622   9.825  10.687   3.049
 5242SOL    HW117623   9.809  10.594   3.063
 5242SOL    HW217624   9.766  10.730   3.111
 5243SOL     OW17625   0.320  14.682  13.817
 5243SOL    HW117626   0.403  14.652  13.854
 5243SOL    HW217627   0.300  14.763  13.864
 5244SOL     OW17628  10.256  12.293  14.233
 5244SOL    HW117629  10.216  12.319  14.316
 5244SOL    HW217630  10.232  12.363  14.172
 5245SOL     OW17631   1.321   7.141   8.190
 5245SOL    HW117632   1.265   7.065   8.206
 5245SOL    HW217633   1.410   7.106   8.193
 5246SOL     OW17634   5.432   5.891   2.927
 5246SOL    HW117635   5.408   5.918   3.016
 5246SOL    HW217636   5.348   5.875   2.884
 5247SOL     OW17637  14.291   9.635   0.090
 5247SOL    HW117638  14.248   9.660   0.172
 5247SOL    HW217639  14.380   9.613   0.117
 5248SOL     OW17640  10.173   5.124  12.681
 5248SOL    HW117641  10.213   5.210  12.685
 5248SOL    HW217642  10.162   5.107  12.588
 5249SOL     OW17643  14.290   5.255   9.014
 5249SOL    HW117644  14.329   5.285   8.932
 5249SOL    HW217645  14.267   5.164   8.998
 5250SOL     OW17646   3.171   7.757  13.585
 5250SOL    HW117647   3.141   7.815  13.514
 5250SOL    HW217648   3.095   7.702  13.604
 5251SOL     OW17649   5.986   4.380   6.475
 5251SOL    HW117650   5.933   4.354   6.550
 5251SOL    HW217651   5.927   4.431   6.420
 5252SOL     OW17652   5.612   0.778   1.680
 5252SOL    HW117653   5.552   0.844   1.716
 5252SOL    HW217654   5.558   0.699   1.673
 5253SOL     OW17655  14.859   9.815   6.938
 5253SOL    HW117656  14.864   9.731   6.892
 5253SOL    HW217657  14.831   9.792   7.026
 5254SOL     OW17658   9.741  14.446  14.689
 5254SOL    HW117659   9.770  14.532  14.659
 5254SOL    HW217660   9.806  14.421  14.755
 5255SOL     OW17661  10.565  12.593   0.297
 5255SOL    HW117662  10.556  12.555   0.210
 5255SOL    HW217663  10.652  12.633   0.297
 5256SOL     OW17664   7.780   0.235   1.647
 5256SOL    HW117665   7.856   0.178   1.634
 5256SOL    HW217666   7.817   0.316   1.684
 5257SOL     OW17667   3.325   2.914   5.889
 5257SOL    HW117668   3.299   2.895   5.799
 5257SOL    HW217669   3.304   3.007   5.901
 5258SOL     OW17670  14.009  13.822   4.821
 5258SOL    HW117671  14.018  13.883   4.894
 5258SOL    HW217672  13.947  13.863   4.761
 5259SOL     OW17673  14.520   3.717   5.644
 5259SOL    HW117674  14.484   3.801   5.675
 5259SOL    HW217675  14.448   3.655   5.656
 5260SOL     OW17676   8.389   9.417   3.093
 5260SOL    HW117677   8.466   9.460   3.131
 5260SOL    HW217678   8.406   9.419   2.999
 5261SOL     OW17679   9.243  11.968   5.541
 5261SOL    HW117680   9.320  11.975   5.484
 5261SOL    HW217681   9.280  11.963   5.629
 5262SOL     OW17682  11.395   5.530   4.716
 5262SOL    HW117683  11.471   5.518   4.659
 5262SOL    HW217684  11.333   5.581   4.663
 5263SOL     OW17685   3.208   0.532   0.039
 5263SOL    HW117686   3.258   0.522  14.839
 5263SOL    HW217687   3.249   0.608   0.082
 5264SOL     OW17688   0.101  12.261   4.342
 5264SOL    HW117689   0.017  12.298   4.371
 5264SOL    HW217690   0.135  12.216   4.420
 5265SOL     OW17691  11.648   6.412   5.955
 5265SOL    HW117692  11.673   6.321   5.940
 5265SOL    HW217693  11.636   6.449   5.867
 5266SOL     OW17694   5.065  14.782  10.216
 5266SOL    HW117695   5.127  14.852  10.236
 5266SOL    HW217696   5.091  14.752  10.128
 5267SOL     OW17697   9.406  12.943   5.842
 5267SOL    HW117698   9.427  13.029   5.807
 5267SOL    HW217699   9.490  12.899   5.850
 5268SOL     OW17700   9.091  13.411   8.066
 5268SOL    HW117701   9.019  13.438   8.122
 5268SOL    HW217702   9.092  13.475   7.995
 5269SOL     OW17703   1.548   7.337   8.566
 5269SOL    HW117704   1.598   7.259   8.541
 5269SOL    HW217705   1.475   7.303   8.619
 5270SOL     OW17706   5.011  12.246  10.510
 5270SOL    HW117707   5.071  12.319  10.498
 5270SOL    HW217708   5.063  12.180  10.556
 5271SOL     OW17709   0.017   1.882  13.444
 5271SOL    HW117710   0.085   1.923  13.392
 5271SOL    HW217711  14.816   1.900  13.396
 5272SOL     OW17712   7.190   4.149   4.637
 5272SOL    HW117713   7.109   4.110   4.671
 5272SOL    HW217714   7.179   4.147   4.542
 5273SOL     OW17715   2.577  12.842   8.264
 5273SOL    HW117716   2.663  12.876   8.238
 5273SOL    HW217717   2.537  12.913   8.313
 5274SOL     OW17718   4.922   1.720  11.077
 5274SOL    HW117719   4.936   1.801  11.125
 5274SOL    HW217720   4.827   1.709  11.074
 5275SOL     OW17721  12.939   7.924   8.467
 5275SOL    HW117722  12.982   7.863   8.406
 5275SOL    HW217723  13.001   7.995   8.478
 5276SOL     OW17724   1.888   2.840  10.368
 5276SOL    HW117725   1.905   2.811  10.278
 5276SOL    HW217726   1.848   2.763  10.410
 5277SOL     OW17727   4.122   8.273   5.840
 5277SOL    HW117728   4.063   8.233   5.776
 5277SOL    HW217729   4.191   8.312   5.786
 5278SOL     OW17730  13.790  11.505   9.284
 5278SOL    HW117731  13.702  11.467   9.276
 5278SOL    HW217732  13.847  11.429   9.299
 5279SOL     OW17733   0.267   4.380   2.289
 5279SOL    HW117734   0.320   4.399   2.212
 5279SOL    HW217735   0.197   4.324   2.256
 5280SOL     OW17736  11.664   5.953  13.406
 5280SOL    HW117737  11.608   5.910  13.342
 5280SOL    HW217738  11.613   5.950  13.487
 5281SOL     OW17739  12.987  13.534   2.323
 5281SOL    HW117740  12.986  13.627   2.299
 5281SOL    HW217741  13.051  13.494   2.264
 5282SOL     OW17742  11.749   3.193  13.871
 5282SOL    HW117743  11.691   3.148  13.809
 5282SOL    HW217744  11.691   3.221  13.941
 5283SOL     OW17745   7.705   1.529   2.473
 5283SOL    HW117746   7.730   1.592   2.541
 5283SOL    HW217747   7.772   1.461   2.478
 5284SOL     OW17748   2.636   8.238  10.829
 5284SOL    HW117749   2.693   8.311  10.806
 5284SOL    HW217750   2.556   8.279  10.861
 5285SOL     OW17751   0.384   0.613   2.348
 5285SOL    HW117752   0.349   0.593   2.435
 5285SOL    HW217753   0.314   0.587   2.288
 5286SOL     OW17754   3.788  13.066  10.910
 5286SOL    HW117755   3.723  13.122  10.868
 5286SOL    HW217756   3.810  13.111  10.991
 5287SOL     OW17757   4.145   6.890   5.768
 5287SOL    HW117758   4.194   6.968   5.743
 5287SOL    HW217759   4.056   6.921   5.785
 5288SOL     OW17760  12.307   6.460   4.765
 5288SOL    HW117761  12.257   6.433   4.688
 5288SOL    HW217762  12.256   6.531   4.803
 5289SOL     OW17763   5.949   2.174  10.036
 5289SOL    HW117764   5.993   2.165   9.952
 5289SOL    HW217765   5.928   2.268  10.041
 5290SOL     OW17766  12.270   4.919  10.693
 5290SOL    HW117767  12.251   4.863  10.768
 5290SOL    HW217768  12.282   4.858  10.620
 5291SOL     OW17769   2.583   5.054  14.617
 5291SOL    HW117770   2.549   4.986  14.559
 5291SOL    HW217771   2.607   5.126  14.558
 5292SOL     OW17772   1.783  10.268  12.384
 5292SOL    HW117773   1.869  10.246  12.347
 5292SOL    HW217774   1.770  10.360  12.363
 5293SOL     OW17775   0.509   3.200   5.734
 5293SOL    HW117776   0.592   3.156   5.750
 5293SOL    HW217777   0.504   3.209   5.639
 5294SOL     OW17778   7.901  13.756   5.867
 5294SOL    HW117779   7.987  13.797   5.864
 5294SOL    HW217780   7.871  13.770   5.957
 5295SOL     OW17781   1.913   6.193   6.074
 5295SOL    HW117782   1.978   6.253   6.036
 5295SOL    HW217783   1.830   6.240   6.067
 5296SOL     OW17784  10.431   2.674  14.320
 5296SOL    HW117785  10.342   2.707  14.307
 5296SOL    HW217786  10.441   2.604  14.256
 5297SOL     OW17787   5.902  10.458  14.239
 5297SOL    HW117788   5.924  10.437  14.149
 5297SOL    HW217789   5.955  10.535  14.260
 5298SOL     OW17790  13.500   4.055  14.258
 5298SOL    HW117791  13.544   3.977  14.223
 5298SOL    HW217792  13.428   4.021  14.311
 5299SOL     OW17793  10.323  13.184  12.399
 5299SOL    HW117794  10.286  13.174  12.311
 5299SOL    HW217795  10.255  13.229  12.448
 5300SOL     OW17796  13.504  13.091   9.288
 5300SOL    HW117797  13.528  12.998   9.293
 5300SOL    HW217798  13.586  13.138   9.298
 5301SOL     OW17799   1.937   8.510   6.173
 5301SOL    HW117800   1.955   8.447   6.243
 5301SOL    HW217801   1.843   8.526   6.178
 5302SOL     OW17802   4.888  14.823   8.330
 5302SOL    HW117803   4.832  14.746   8.317
 5302SOL    HW217804   4.828   0.011   8.359
 5303SOL     OW17805   8.332  13.216   7.134
 5303SOL    HW117806   8.418  13.240   7.169
 5303SOL    HW217807   8.271  13.232   7.206
 5304SOL     OW17808  12.211   8.116   6.579
 5304SOL    HW117809  12.292   8.143   6.536
 5304SOL    HW217810  12.159   8.197   6.585
 5305SOL     OW17811   6.364   6.331   9.228
 5305SOL    HW117812   6.346   6.297   9.140
 5305SOL    HW217813   6.286   6.381   9.250
 5306SOL     OW17814   3.027   3.757  12.624
 5306SOL    HW117815   2.960   3.694  12.598
 5306SOL    HW217816   3.076   3.713  12.694
 5307SOL     OW17817  11.892  10.819   2.275
 5307SOL    HW117818  11.840  10.888   2.318
 5307SOL    HW217819  11.952  10.867   2.219
 5308SOL     OW17820   2.818  12.507   7.780
 5308SOL    HW117821   2.802  12.600   7.767
 5308SOL    HW217822   2.732  12.466   7.766
 5309SOL     OW17823  12.690   5.058  13.537
 5309SOL    HW117824  12.775   5.098  13.553
 5309SOL    HW217825  12.627   5.121  13.571
 5310SOL     OW17826  13.678   4.123   7.761
 5310SOL    HW117827  13.694   4.172   7.842
 5310SOL    HW217828  13.761   4.080   7.743
 5311SOL     OW17829   9.966   6.937   4.950
 5311SOL    HW117830  10.033   6.999   4.979
 5311SOL    HW217831   9.914   6.919   5.029
 5312SOL     OW17832   0.268   3.381  10.361
 5312SOL    HW117833   0.277   3.382  10.265
 5312SOL    HW217834   0.347   3.336  10.392
 5313SOL     OW17835  13.366   9.225   0.516
 5313SOL    HW117836  13.404   9.292   0.572
 5313SOL    HW217837  13.336   9.272   0.438
 5314SOL     OW17838   0.047   1.763   0.851
 5314SOL    HW117839   0.037   1.842   0.904
 5314SOL    HW217840   0.070   1.694   0.914
 5315SOL     OW17841  13.867   1.151   3.835
 5315SOL    HW117842  13.930   1.080   3.850
 5315SOL    HW217843  13.907   1.204   3.767
 5316SOL     OW17844   0.431   2.908  13.591
 5316SOL    HW117845   0.374   2.834  13.571
 5316SOL    HW217846   0.516   2.883  13.555
 5317SOL     OW17847   1.393   8.302   7.171
 5317SOL    HW117848   1.349   8.225   7.205
 5317SOL    HW217849   1.349   8.376   7.213
 5318SOL     OW17850   4.709   1.939  14.587
 5318SOL    HW117851   4.754   1.903  14.511
 5318SOL    HW217852   4.771   1.928  14.659
 5319SOL     OW17853   3.695  14.175   1.759
 5319SOL    HW117854   3.755  14.110   1.797
 5319SOL    HW217855   3.722  14.258   1.797
 5320SOL     OW17856  10.470   7.373   0.930
 5320SOL    HW117857  10.459   7.369   0.835
 5320SOL    HW217858  10.562   7.397   0.943
 5321SOL     OW17859   8.343  13.549   4.366
 5321SOL    HW117860   8.310  13.615   4.427
 5321SOL    HW217861   8.306  13.467   4.398
 5322SOL     OW17862   5.714   2.573  13.336
 5322SOL    HW117863   5.660   2.579  13.414
 5322SOL    HW217864   5.779   2.642  13.346
 5323SOL     OW17865   5.590   4.633   2.025
 5323SOL    HW117866   5.542   4.552   2.008
 5323SOL    HW217867   5.591   4.641   2.120
 5324SOL     OW17868   6.639   6.587   5.687
 5324SOL    HW117869   6.693   6.663   5.709
 5324SOL    HW217870   6.700   6.523   5.652
 5325SOL     OW17871   7.918  14.215  13.517
 5325SOL    HW117872   7.959  14.129  13.522
 5325SOL    HW217873   7.943  14.249  13.431
 5326SOL     OW17874   8.546   3.193  10.528
 5326SOL    HW117875   8.535   3.128  10.459
 5326SOL    HW217876   8.616   3.250  10.497
 5327SOL     OW17877   9.982   4.057  10.272
 5327SOL    HW117878   9.987   4.017  10.186
 5327SOL    HW217879   9.946   3.989  10.329
 5328SOL     OW17880   7.356  10.210  14.020
 5328SOL    HW117881   7.437  10.190  13.973
 5328SOL    HW217882   7.384  10.225  14.110
 5329SOL     OW17883   3.539   7.970   5.013
 5329SOL    HW117884   3.499   7.945   4.930
 5329SOL    HW217885   3.464   7.993   5.069
 5330SOL     OW17886   0.964  13.274  10.501
 5330SOL    HW117887   0.972  13.203  10.565
 5330SOL    HW217888   1.004  13.238  10.421
 5331SOL     OW17889   8.791   2.692  13.938
 5331SOL    HW117890   8.876   2.679  13.896
 5331SOL    HW217891   8.728   2.655  13.876
 5332SOL     OW17892   1.721   3.172   4.566
 5332SOL    HW117893   1.696   3.170   4.658
 5332SOL    HW217894   1.644   3.204   4.520
 5333SOL     OW17895   6.320   9.573   0.240
 5333SOL    HW117896   6.395   9.520   0.213
 5333SOL    HW217897   6.269   9.515   0.297
 5334SOL     OW17898  12.455   3.995   2.178
 5334SOL    HW117899  12.543   4.032   2.169
 5334SOL    HW217900  12.455   3.955   2.265
 5335SOL     OW17901   3.823  12.685   8.881
 5335SOL    HW117902   3.856  12.752   8.820
 5335SOL    HW217903   3.812  12.732   8.964
 5336SOL     OW17904   4.667  13.188   1.977
 5336SOL    HW117905   4.631  13.209   1.891
 5336SOL    HW217906   4.615  13.115   2.009
 5337SOL     OW17907  13.018   4.840  11.513
 5337SOL    HW117908  13.076   4.827  11.438
 5337SOL    HW217909  13.075   4.829  11.589
 5338SOL     OW17910   6.980   1.421   9.680
 5338SOL    HW117911   6.953   1.433   9.771
 5338SOL    HW217912   6.925   1.482   9.630
 5339SOL     OW17913  13.241   2.141   2.316
 5339SOL    HW117914  13.306   2.172   2.379
 5339SOL    HW217915  13.293   2.109   2.242
 5340SOL     OW17916   1.102  14.063   4.136
 5340SOL    HW117917   1.130  14.044   4.046
 5340SOL    HW217918   1.058  13.984   4.165
 5341SOL     OW17919  11.374   6.876   0.533
 5341SOL    HW117920  11.285   6.883   0.567
 5341SOL    HW217921  11.376   6.937   0.459
 5342SOL     OW17922  10.372   4.024   1.380
 5342SOL    HW117923  10.328   4.088   1.323
 5342SOL    HW217924  10.439   3.984   1.325
 5343SOL     OW17925   9.852  12.163   3.407
 5343SOL    HW117926   9.917  12.156   3.337
 5343SOL    HW217927   9.793  12.233   3.379
 5344SOL     OW17928   6.868   9.011  10.868
 5344SOL    HW117929   6.796   9.071  10.851
 5344SOL    HW217930   6.918   9.052  10.938
 5345SOL     OW17931   5.219   4.261   7.206
 5345SOL    HW117932   5.146   4.299   7.255
 5345SOL    HW217933   5.216   4.304   7.121
 5346SOL     OW17934  11.121  11.457   5.455
 5346SOL    HW117935  11.035  11.439   5.493
 5346SOL    HW217936  11.137  11.384   5.395
 5347SOL     OW17937  11.371  13.871  13.810
 5347SOL    HW117938  11.321  13.951  13.825
 5347SOL    HW217939  11.453  13.900  13.772
 5348SOL     OW17940   8.668   4.308   4.875
 5348SOL    HW117941   8.584   4.321   4.830
 5348SOL    HW217942   8.731   4.355   4.820
 5349SOL     OW17943  10.154   6.624   7.419
 5349SOL    HW117944  10.063   6.651   7.406
 5349SOL    HW217945  10.151   6.561   7.490
 5350SOL     OW17946  13.839   9.167   6.755
 5350SOL    HW117947  13.823   9.200   6.666
 5350SOL    HW217948  13.783   9.089   6.761
 5351SOL     OW17949   9.659  13.796   6.581
 5351SOL    HW117950   9.706  13.872   6.546
 5351SOL    HW217951   9.572  13.829   6.603
 5352SOL     OW17952   3.011  14.684   5.981
 5352SOL    HW117953   3.019  14.642   6.066
 5352SOL    HW217954   2.935  14.741   5.989
 5353SOL     OW17955   0.694   6.257   2.323
 5353SOL    HW117956   0.636   6.306   2.381
 5353SOL    HW217957   0.782   6.288   2.344
 5354SOL     OW17958   8.309   8.001  13.555
 5354SOL    HW117959   8.242   7.935  13.541
 5354SOL    HW217960   8.267   8.067  13.610
 5355SOL     OW17961   3.080  11.335   1.813
 5355SOL    HW117962   3.108  11.376   1.731
 5355SOL    HW217963   3.058  11.409   1.870
 5356SOL     OW17964   4.176   2.894   0.097
 5356SOL    HW117965   4.241   2.861   0.160
 5356SOL    HW217966   4.228   2.933   0.027
 5357SOL     OW17967   1.517  14.451  13.058
 5357SOL    HW117968   1.594  14.408  13.020
 5357SOL    HW217969   1.551  14.531  13.097
 5358SOL     OW17970   4.443  12.042   6.842
 5358SOL    HW117971   4.473  12.045   6.932
 5358SOL    HW217972   4.499  12.105   6.796
 5359SOL     OW17973   2.970   0.129   2.750
 5359SOL    HW117974   3.013   0.168   2.826
 5359SOL    HW217975   2.961   0.201   2.688
 5360SOL     OW17976   4.603  10.176   0.681
 5360SOL    HW117977   4.682  10.213   0.721
 5360SOL    HW217978   4.628  10.086   0.661
 5361SOL     OW17979   3.468   2.451   4.713
 5361SOL    HW117980   3.376   2.459   4.687
 5361SOL    HW217981   3.473   2.366   4.755
 5362SOL     OW17982   0.847  12.997  11.957
 5362SOL    HW117983   0.875  13.082  11.991
 5362SOL    HW217984   0.928  12.946  11.952
 5363SOL     OW17985   0.390  12.782  10.144
 5363SOL    HW117986   0.480  12.749  10.133
 5363SOL    HW217987   0.392  12.830  10.226
 5364SOL     OW17988  10.423   8.132   5.985
 5364SOL    HW117989  10.359   8.202   5.998
 5364SOL    HW217990  10.423   8.116   5.891
 5365SOL     OW17991  10.063  13.700  13.437
 5365SOL    HW117992  10.122  13.627  13.456
 5365SOL    HW217993  10.099  13.774  13.486
 5366SOL     OW17994   5.552  10.581   7.436
 5366SOL    HW117995   5.560  10.543   7.524
 5366SOL    HW217996   5.457  10.587   7.422
 5367SOL     OW17997   0.913   1.349  13.542
 5367SOL    HW117998   0.865   1.341  13.625
 5367SOL    HW217999   0.953   1.436  13.546
 5368SOL     OW18000  11.938   0.225   8.276
 5368SOL    HW118001  11.987   0.304   8.297
 5368SOL    HW218002  11.993   0.178   8.214
 5369SOL     OW18003  11.873   3.677   0.143
 5369SOL    HW118004  11.848   3.766   0.167
 5369SOL    HW218005  11.952   3.660   0.194
 5370SOL     OW18006   7.038   0.345   3.037
 5370SOL    HW118007   7.041   0.419   3.098
 5370SOL    HW218008   7.130   0.324   3.021
 5371SOL     OW18009   5.513   2.127  11.865
 5371SOL    HW118010   5.594   2.083  11.893
 5371SOL    HW218011   5.514   2.119  11.770
 5372SOL     OW18012   2.052   5.659   6.254
 5372SOL    HW118013   1.963   5.622   6.258
 5372SOL    HW218014   2.103   5.601   6.311
 5373SOL     OW18015  12.521  10.547  10.522
 5373SOL    HW118016  12.580  10.486  10.566
 5373SOL    HW218017  12.559  10.633  10.539
 5374SOL     OW18018   6.635   0.699   4.270
 5374SOL    HW118019   6.688   0.762   4.221
 5374SOL    HW218020   6.620   0.741   4.355
 5375SOL     OW18021  13.247   6.586  10.913
 5375SOL    HW118022  13.195   6.509  10.892
 5375SOL    HW218023  13.257   6.584  11.008
 5376SOL     OW18024  14.062  11.169   1.446
 5376SOL    HW118025  14.154  11.163   1.421
 5376SOL    HW218026  14.014  11.158   1.364
 5377SOL     OW18027   7.704   6.602   9.260
 5377SOL    HW118028   7.654   6.525   9.232
 5377SOL    HW218029   7.655   6.636   9.334
 5378SOL     OW18030   1.086  14.775   2.340
 5378SOL    HW118031   1.045  14.856   2.310
 5378SOL    HW218032   1.104  14.727   2.259
 5379SOL     OW18033   9.803  10.727   5.069
 5379SOL    HW118034   9.891  10.731   5.031
 5379SOL    HW218035   9.793  10.812   5.113
 5380SOL     OW18036   5.951   8.062  14.696
 5380SOL    HW118037   6.010   8.064  14.771
 5380SOL    HW218038   5.864   8.048  14.734
 5381SOL     OW18039   1.835   2.083   4.313
 5381SOL    HW118040   1.870   2.006   4.357
 5381SOL    HW218041   1.818   2.146   4.384
 5382SOL     OW18042  10.162  11.294   3.703
 5382SOL    HW118043  10.101  11.303   3.776
 5382SOL    HW218044  10.242  11.337   3.734
 5383SOL     OW18045   8.071   7.049  13.674
 5383SOL    HW118046   8.154   7.038  13.629
 5383SOL    HW218047   8.081   7.128  13.727
 5384SOL     OW18048   8.935   4.647   5.649
 5384SOL    HW118049   8.935   4.717   5.714
 5384SOL    HW218050   8.927   4.567   5.701
 5385SOL     OW18051  14.502  10.992  12.084
 5385SOL    HW118052  14.478  11.019  11.995
 5385SOL    HW218053  14.554  11.065  12.119
 5386SOL     OW18054   3.032   2.750  14.463
 5386SOL    HW118055   2.973   2.807  14.513
 5386SOL    HW218056   3.117   2.762  14.504
 5387SOL     OW18057   2.047   6.804   4.844
 5387SOL    HW118058   2.026   6.870   4.910
 5387SOL    HW218059   2.122   6.841   4.797
 5388SOL     OW18060   9.590   6.084  11.602
 5388SOL    HW118061   9.595   5.990  11.587
 5388SOL    HW218062   9.660   6.120  11.548
 5389SOL     OW18063   8.659   0.145  10.861
 5389SOL    HW118064   8.673   0.169  10.953
 5389SOL    HW218065   8.568   0.169  10.844
 5390SOL     OW18066   3.378  13.740  12.329
 5390SOL    HW118067   3.305  13.801  12.343
 5390SOL    HW218068   3.365  13.707  12.240
 5391SOL     OW18069   7.829   8.465   7.167
 5391SOL    HW118070   7.890   8.399   7.135
 5391SOL    HW218071   7.873   8.548   7.148
 5392SOL     OW18072   1.779   7.043  11.484
 5392SOL    HW118073   1.784   7.078  11.573
 5392SOL    HW218074   1.762   6.950  11.495
 5393SOL     OW18075   4.879  11.284   0.920
 5393SOL    HW118076   4.885  11.323   1.008
 5393SOL    HW218077   4.829  11.347   0.869
 5394SOL     OW18078   8.910   7.968  10.699
 5394SOL    HW118079   8.907   7.889  10.645
 5394SOL    HW218080   8.949   8.034  10.642
 5395SOL     OW18081   0.919   4.428  12.568
 5395SOL    HW118082   0.912   4.486  12.644
 5395SOL    HW218083   0.966   4.479  12.503
 5396SOL     OW18084   7.484   5.299   5.746
 5396SOL    HW118085   7.489   5.249   5.827
 5396SOL    HW218086   7.397   5.281   5.712
 5397SOL     OW18087   9.334   8.307   6.988
 5397SOL    HW118088   9.403   8.288   7.052
 5397SOL    HW218089   9.260   8.254   7.016
 5398SOL     OW18090   5.107   6.072  10.897
 5398SOL    HW118091   5.020   6.057  10.860
 5398SOL    HW218092   5.144   5.984  10.906
 5399SOL     OW18093  13.054  13.548   2.585
 5399SOL    HW118094  13.040  13.558   2.490
 5399SOL    HW218095  12.966  13.536   2.621
 5400SOL     OW18096   1.593   5.856   5.109
 5400SOL    HW118097   1.533   5.799   5.060
 5400SOL    HW218098   1.597   5.936   5.056
 5401SOL     OW18099  11.326   4.247  11.877
 5401SOL    HW118100  11.354   4.233  11.967
 5401SOL    HW218101  11.244   4.198  11.869
 5402SOL     OW18102   9.104   8.179   7.808
 5402SOL    HW118103   9.114   8.191   7.713
 5402SOL    HW218104   9.012   8.201   7.825
 5403SOL     OW18105  11.073   9.318  12.800
 5403SOL    HW118106  11.065   9.298  12.894
 5403SOL    HW218107  10.992   9.287  12.762
 5404SOL     OW18108   5.384   2.241   8.513
 5404SOL    HW118109   5.421   2.207   8.432
 5404SOL    HW218110   5.460   2.263   8.567
 5405SOL     OW18111   2.928  13.771  10.388
 5405SOL    HW118112   2.853  13.831  10.388
 5405SOL    HW218113   2.946  13.755  10.480
 5406SOL     OW18114   2.589   2.582   1.178
 5406SOL    HW118115   2.648   2.649   1.213
 5406SOL    HW218116   2.638   2.500   1.187
 5407SOL     OW18117   7.174   2.649   9.590
 5407SOL    HW118118   7.189   2.731   9.543
 5407SOL    HW218119   7.259   2.628   9.630
 5408SOL     OW18120  14.027   0.212   4.667
 5408SOL    HW118121  14.054   0.137   4.614
 5408SOL    HW218122  14.088   0.213   4.741
 5409SOL     OW18123  11.732  11.675   9.362
 5409SOL    HW118124  11.760  11.722   9.284
 5409SOL    HW218125  11.681  11.601   9.330
 5410SOL     OW18126  14.692   2.066   8.916
 5410SOL    HW118127  14.750   2.007   8.869
 5410SOL    HW218128  14.640   2.009   8.972
 5411SOL     OW18129   7.854   4.095   7.598
 5411SOL    HW118130   7.943   4.084   7.562
 5411SOL    HW218131   7.850   4.187   7.624
 5412SOL     OW18132   3.554   2.678   4.106
 5412SOL    HW118133   3.649   2.674   4.114
 5412SOL    HW218134   3.521   2.647   4.190
 5413SOL     OW18135   4.424   4.391   8.480
 5413SOL    HW118136   4.501   4.447   8.491
 5413SOL    HW218137   4.403   4.399   8.387
 5414SOL     OW18138   7.753   7.919   1.984
 5414SOL    HW118139   7.766   8.013   1.975
 5414SOL    HW218140   7.841   7.881   1.980
 5415SOL     OW18141   2.359   1.015  10.947
 5415SOL    HW118142   2.397   1.091  10.903
 5415SOL    HW218143   2.378   0.942  10.890
 5416SOL     OW18144  12.609  10.064   8.986
 5416SOL    HW118145  12.644   9.981   8.954
 5416SOL    HW218146  12.636  10.068   9.077
 5417SOL     OW18147   0.146  11.444   6.437
 5417SOL    HW118148   0.225  11.436   6.384
 5417SOL    HW218149   0.131  11.538   6.444
 5418SOL     OW18150  11.351   8.242   4.865
 5418SOL    HW118151  11.442   8.211   4.864
 5418SOL    HW218152  11.322   8.231   4.955
 5419SOL     OW18153   5.298   2.164  12.023
 5419SOL    HW118154   5.334   2.148  12.110
 5419SOL    HW218155   5.370   2.143  11.964
 5420SOL     OW18156  10.549  12.776   1.176
 5420SOL    HW118157  10.488  12.735   1.114
 5420SOL    HW218158  10.493  12.816   1.243
 5421SOL     OW18159   2.969   5.500   1.054
 5421SOL    HW118160   3.000   5.540   1.136
 5421SOL    HW218161   2.874   5.501   1.061
 5422SOL     OW18162  11.182  11.921  12.998
 5422SOL    HW118163  11.225  11.931  12.913
 5422SOL    HW218164  11.100  11.970  12.989
 5423SOL     OW18165  13.898   8.435   4.564
 5423SOL    HW118166  13.871   8.500   4.629
 5423SOL    HW218167  13.945   8.486   4.498
 5424SOL     OW18168   2.055  10.326   4.087
 5424SOL    HW118169   2.042  10.383   4.011
 5424SOL    HW218170   1.966  10.303   4.114
 5425SOL     OW18171   5.503   2.252   3.727
 5425SOL    HW118172   5.584   2.282   3.685
 5425SOL    HW218173   5.484   2.169   3.684
 5426SOL     OW18174  11.456   3.229   1.043
 5426SOL    HW118175  11.482   3.308   1.092
 5426SOL    HW218176  11.451   3.161   1.109
 5427SOL     OW18177   7.344   3.362   3.611
 5427SOL    HW118178   7.339   3.457   3.601
 5427SOL    HW218179   7.286   3.328   3.543
 5428SOL     OW18180  13.208   9.738   0.341
 5428SOL    HW118181  13.238   9.666   0.285
 5428SOL    HW218182  13.120   9.713   0.367
 5429SOL     OW18183   5.562  10.790   8.411
 5429SOL    HW118184   5.499  10.860   8.394
 5429SOL    HW218185   5.642  10.836   8.437
 5430SOL     OW18186   2.259  10.456   6.812
 5430SOL    HW118187   2.266  10.521   6.741
 5430SOL    HW218188   2.286  10.374   6.771
 5431SOL     OW18189   1.329  11.810   9.769
 5431SOL    HW118190   1.413  11.853   9.753
 5431SOL    HW218191   1.264  11.868   9.730
 5432SOL     OW18192  12.308  13.262   6.793
 5432SOL    HW118193  12.391  13.232   6.830
 5432SOL    HW218194  12.284  13.338   6.846
 5433SOL     OW18195  12.039   0.516   8.880
 5433SOL    HW118196  11.995   0.580   8.824
 5433SOL    HW218197  12.070   0.567   8.954
 5434SOL     OW18198  12.266   0.133   3.030
 5434SOL    HW118199  12.179   0.103   3.004
 5434SOL    HW218200  12.303   0.170   2.950
 5435SOL     OW18201  10.871   7.288  13.902
 5435SOL    HW118202  10.876   7.229  13.977
 5435SOL    HW218203  10.777   7.303  13.890
 5436SOL     OW18204  14.340   9.882   4.285
 5436SOL    HW118205  14.382   9.947   4.229
 5436SOL    HW218206  14.358   9.798   4.243
 5437SOL     OW18207  14.808  13.201  11.940
 5437SOL    HW118208  14.714  13.191  11.926
 5437SOL    HW218209  14.845  13.116  11.915
 5438SOL     OW18210  14.339  12.687   1.190
 5438SOL    HW118211  14.335  12.748   1.263
 5438SOL    HW218212  14.411  12.627   1.212
 5439SOL     OW18213  11.975  13.223   3.105
 5439SOL    HW118214  11.955  13.130   3.096
 5439SOL    HW218215  12.036  13.241   3.033
 5440SOL     OW18216   3.576  10.177   5.648
 5440SOL    HW118217   3.490  10.213   5.625
 5440SOL    HW218218   3.556  10.105   5.708
 5441SOL     OW18219   4.848   9.227  12.683
 5441SOL    HW118220   4.851   9.148  12.629
 5441SOL    HW218221   4.938   9.239  12.714
 5442SOL     OW18222   2.106   4.110  12.494
 5442SOL    HW118223   2.054   4.177  12.450
 5442SOL    HW218224   2.158   4.158  12.559
 5443SOL     OW18225   8.337   6.084  12.438
 5443SOL    HW118226   8.417   6.043  12.406
 5443SOL    HW218227   8.267   6.043  12.388
 5444SOL     OW18228   5.469  12.578   5.806
 5444SOL    HW118229   5.523  12.656   5.818
 5444SOL    HW218230   5.414  12.574   5.884
 5445SOL     OW18231   0.535   2.311   5.361
 5445SOL    HW118232   0.582   2.254   5.300
 5445SOL    HW218233   0.542   2.398   5.322
 5446SOL     OW18234   3.144  10.335   7.162
 5446SOL    HW118235   3.050  10.328   7.179
 5446SOL    HW218236   3.179  10.251   7.191
 5447SOL     OW18237   7.012   5.590   2.907
 5447SOL    HW118238   7.097   5.611   2.946
 5447SOL    HW218239   6.977   5.522   2.964
 5448SOL     OW18240  13.949  12.247   3.030
 5448SOL    HW118241  13.879  12.268   3.092
 5448SOL    HW218242  13.910  12.263   2.944
 5449SOL     OW18243  14.634  10.294  11.818
 5449SOL    HW118244  14.630  10.378  11.772
 5449SOL    HW218245  14.575  10.305  11.893
 5450SOL     OW18246   2.742   6.685  11.830
 5450SOL    HW118247   2.736   6.590  11.827
 5450SOL    HW218248   2.713   6.714  11.744
 5451SOL     OW18249  14.810   9.049   3.849
 5451SOL    HW118250   0.014   9.033   3.805
 5451SOL    HW218251  14.832   9.108   3.921
 5452SOL     OW18252   3.623  13.710  12.504
 5452SOL    HW118253   3.656  13.621  12.494
 5452SOL    HW218254   3.551  13.716  12.442
 5453SOL     OW18255   9.754   0.125   1.957
 5453SOL    HW118256   9.741   0.044   1.908
 5453SOL    HW218257   9.689   0.121   2.028
 5454SOL     OW18258   8.856   8.145   3.720
 5454SOL    HW118259   8.874   8.160   3.813
 5454SOL    HW218260   8.897   8.218   3.675
 5455SOL     OW18261   5.041  14.656  12.693
 5455SOL    HW118262   5.005  14.742  12.714
 5455SOL    HW218263   4.968  14.596  12.706
 5456SOL     OW18264  13.322   7.164  13.578
 5456SOL    HW118265  13.257   7.094  13.577
 5456SOL    HW218266  13.270   7.245  13.576
 5457SOL     OW18267   6.335   5.784   1.298
 5457SOL    HW118268   6.306   5.809   1.210
 5457SOL    HW218269   6.256   5.752   1.341
 5458SOL     OW18270   2.167   2.177   4.040
 5458SOL    HW118271   2.169   2.205   3.948
 5458SOL    HW218272   2.217   2.244   4.086
 5459SOL     OW18273   0.396  14.581   5.785
 5459SOL    HW118274   0.319  14.636   5.801
 5459SOL    HW218275   0.365  14.509   5.731
 5460SOL     OW18276   2.092   9.565   3.272
 5460SOL    HW118277   2.133   9.622   3.207
 5460SOL    HW218278   2.118   9.603   3.356
 5461SOL     OW18279   7.404   5.981   0.087
 5461SOL    HW118280   7.370   6.069   0.067
 5461SOL    HW218281   7.382   5.929   0.010
 5462SOL     OW18282   9.339  12.403   3.320
 5462SOL    HW118283   9.383  12.374   3.240
 5462SOL    HW218284   9.333  12.498   3.310
 5463SOL     OW18285  13.618  14.332   7.010
 5463SOL    HW118286  13.711  14.315   7.003
 5463SOL    HW218287  13.596  14.382   6.931
 5464SOL     OW18288  12.222   3.277   4.925
 5464SOL    HW118289  12.136   3.315   4.938
 5464SOL    HW218290  12.280   3.352   4.909
 5465SOL     OW18291   1.330   4.603   1.559
 5465SOL    HW118292   1.413   4.570   1.526
 5465SOL    HW218293   1.267   4.534   1.538
 5466SOL     OW18294   1.570   5.979   6.065
 5466SOL    HW118295   1.595   5.911   6.003
 5466SOL    HW218296   1.630   5.968   6.139
 5467SOL     OW18297   4.784   9.797   7.411
 5467SOL    HW118298   4.727   9.865   7.447
 5467SOL    HW218299   4.737   9.765   7.333
 5468SOL     OW18300  14.819   2.709   2.108
 5468SOL    HW118301  14.814   2.793   2.062
 5468SOL    HW218302  14.819   2.733   2.201
 5469SOL     OW18303   3.922   4.823   5.391
 5469SOL    HW118304   3.875   4.814   5.308
 5469SOL    HW218305   3.956   4.912   5.391
 5470SOL     OW18306   7.239  10.562   8.472
 5470SOL    HW118307   7.273  10.520   8.393
 5470SOL    HW218308   7.153  10.522   8.485
 5471SOL     OW18309   3.968  14.151   2.596
 5471SOL    HW118310   3.925  14.158   2.511
 5471SOL    HW218311   3.914  14.090   2.646
 5472SOL     OW18312  12.510  11.536   7.943
 5472SOL    HW118313  12.443  11.604   7.955
 5472SOL    HW218314  12.503  11.483   8.022
 5473SOL     OW18315  10.359   0.178  11.527
 5473SOL    HW118316  10.305   0.159  11.450
 5473SOL    HW218317  10.307   0.241  11.578
 5474SOL     OW18318  14.798  11.564   3.476
 5474SOL    HW118319  14.790  11.658   3.457
 5474SOL    HW218320   0.010  11.545   3.460
 5475SOL     OW18321   6.118   0.808   5.311
 5475SOL    HW118322   6.162   0.724   5.295
 5475SOL    HW218323   6.164   0.844   5.388
 5476SOL     OW18324   3.361   7.632   8.860
 5476SOL    HW118325   3.302   7.623   8.785
 5476SOL    HW218326   3.339   7.559   8.917
 5477SOL     OW18327  13.560  11.827  11.136
 5477SOL    HW118328  13.500  11.761  11.101
 5477SOL    HW218329  13.628  11.835  11.069
 5478SOL     OW18330  10.744   1.042   6.347
 5478SOL    HW118331  10.701   0.975   6.294
 5478SOL    HW218332  10.720   1.125   6.305
 5479SOL     OW18333   3.746  13.968   7.439
 5479SOL    HW118334   3.737  13.888   7.387
 5479SOL    HW218335   3.709  13.946   7.524
 5480SOL     OW18336  14.483   6.927  14.507
 5480SOL    HW118337  14.577   6.923  14.527
 5480SOL    HW218338  14.442   6.952  14.590
 5481SOL     OW18339   3.975   2.640   8.870
 5481SOL    HW118340   4.047   2.603   8.921
 5481SOL    HW218341   3.901   2.641   8.932
 5482SOL     OW18342  12.908   7.947  11.056
 5482SOL    HW118343  13.004   7.958  11.057
 5482SOL    HW218344  12.894   7.860  11.092
 5483SOL     OW18345   4.356   5.908   5.581
 5483SOL    HW118346   4.337   5.904   5.487
 5483SOL    HW218347   4.448   5.932   5.586
 5484SOL     OW18348  10.902   2.716   0.225
 5484SOL    HW118349  10.936   2.793   0.270
 5484SOL    HW218350  10.809   2.713   0.249
 5485SOL     OW18351   5.540  10.563   9.004
 5485SOL    HW118352   5.507  10.645   8.965
 5485SOL    HW218353   5.464  10.505   9.004
 5486SOL     OW18354   3.711   2.495   1.908
 5486SOL    HW118355   3.671   2.522   1.825
 5486SOL    HW218356   3.640   2.452   1.956
 5487SOL     OW18357  12.660   6.577   1.924
 5487SOL    HW118358  12.726   6.625   1.975
 5487SOL    HW218359  12.710   6.534   1.855
 5488SOL     OW18360  12.839  12.708   5.635
 5488SOL    HW118361  12.856  12.646   5.706
 5488SOL    HW218362  12.758  12.677   5.596
 5489SOL     OW18363  12.182  12.307   8.673
 5489SOL    HW118364  12.104  12.356   8.648
 5489SOL    HW218365  12.193  12.326   8.766
 5490SOL     OW18366   8.654   7.461   9.098
 5490SOL    HW118367   8.605   7.380   9.112
 5490SOL    HW218368   8.689   7.484   9.184
 5491SOL     OW18369   3.631   8.243  12.917
 5491SOL    HW118370   3.695   8.224  12.849
 5491SOL    HW218371   3.673   8.307  12.974
 5492SOL     OW18372   2.822   5.240  14.815
 5492SOL    HW118373   2.780   5.235  14.729
 5492SOL    HW218374   2.906   5.282  14.798
 5493SOL     OW18375   2.253  10.110   7.642
 5493SOL    HW118376   2.347  10.100   7.623
 5493SOL    HW218377   2.209  10.058   7.576
 5494SOL     OW18378  10.661  13.736   8.685
 5494SOL    HW118379  10.600  13.779   8.746
 5494SOL    HW218380  10.675  13.801   8.616
 5495SOL     OW18381   2.241   2.176  14.174
 5495SOL    HW118382   2.299   2.101  14.162
 5495SOL    HW218383   2.153   2.138  14.171
 5496SOL     OW18384  11.950   8.202   0.228
 5496SOL    HW118385  11.909   8.269   0.174
 5496SOL    HW218386  11.982   8.137   0.166
 5497SOL     OW18387   6.855  11.154   0.227
 5497SOL    HW118388   6.822  11.201   0.304
 5497SOL    HW218389   6.777  11.127   0.180
 5498SOL     OW18390   5.104   8.227   0.265
 5498SOL    HW118391   5.112   8.134   0.283
 5498SOL    HW218392   5.111   8.269   0.351
 5499SOL     OW18393  13.666  11.450  10.976
 5499SOL    HW118394  13.744  11.493  10.940
 5499SOL    HW218395  13.603  11.522  10.988
 5500SOL     OW18396  14.321  11.404  13.200
 5500SOL    HW118397  14.325  11.379  13.107
 5500SOL    HW218398  14.273  11.487  13.200
 5501SOL     OW18399   8.192   1.301   9.177
 5501SOL    HW118400   8.240   1.346   9.107
 5501SOL    HW218401   8.228   1.338   9.257
 5502SOL     OW18402   5.769  10.994   1.343
 5502SOL    HW118403   5.759  10.963   1.433
 5502SOL    HW218404   5.864  11.001   1.330
 5503SOL     OW18405   3.726  12.628   1.488
 5503SOL    HW118406   3.770  12.665   1.411
 5503SOL    HW218407   3.782  12.654   1.562
 5504SOL     OW18408  12.343   7.677   7.094
 5504SOL    HW118409  12.341   7.672   7.189
 5504SOL    HW218410  12.425   7.724   7.074
 5505SOL     OW18411  11.388   6.425   3.401
 5505SOL    HW118412  11.439   6.395   3.477
 5505SOL    HW218413  11.454   6.459   3.340
 5506SOL     OW18414  12.934   5.277  11.888
 5506SOL    HW118415  12.963   5.361  11.924
 5506SOL    HW218416  12.942   5.288  11.793
 5507SOL     OW18417   6.345  11.048   5.147
 5507SOL    HW118418   6.251  11.043   5.132
 5507SOL    HW218419   6.378  11.103   5.076
 5508SOL     OW18420  11.802   2.380   4.676
 5508SOL    HW118421  11.769   2.448   4.734
 5508SOL    HW218422  11.751   2.302   4.697
 5509SOL     OW18423   7.633   3.258   2.719
 5509SOL    HW118424   7.653   3.343   2.759
 5509SOL    HW218425   7.569   3.219   2.778
 5510SOL     OW18426   2.350   6.704  12.639
 5510SOL    HW118427   2.289   6.654  12.584
 5510SOL    HW218428   2.431   6.708  12.588
 5511SOL     OW18429   3.678   9.050   9.412
 5511SOL    HW118430   3.604   9.103   9.440
 5511SOL    HW218431   3.695   8.990   9.484
 5512SOL     OW18432  14.548   9.114  14.813
 5512SOL    HW118433  14.489   9.045  14.841
 5512SOL    HW218434  14.578   9.155   0.013
 5513SOL     OW18435   8.187   4.293   9.667
 5513SOL    HW118436   8.122   4.354   9.632
 5513SOL    HW218437   8.243   4.271   9.592
 5514SOL     OW18438   0.011  12.843   9.055
 5514SOL    HW118439  14.814  12.793   9.030
 5514SOL    HW218440  14.857  12.917   9.105
 5515SOL     OW18441   1.062  11.331  10.548
 5515SOL    HW118442   1.008  11.336  10.627
 5515SOL    HW218443   1.049  11.243  10.515
 5516SOL     OW18444   7.641   4.107   1.306
 5516SOL    HW118445   7.575   4.040   1.288
 5516SOL    HW218446   7.653   4.104   1.401
 5517SOL     OW18447   6.187   5.151   4.146
 5517SOL    HW118448   6.147   5.188   4.225
 5517SOL    HW218449   6.145   5.066   4.135
 5518SOL     OW18450   2.894   8.118  10.353
 5518SOL    HW118451   2.830   8.189  10.354
 5518SOL    HW218452   2.863   8.059  10.285
 5519SOL     OW18453   5.449   2.822   8.186
 5519SOL    HW118454   5.374   2.777   8.225
 5519SOL    HW218455   5.441   2.913   8.215
 5520SOL     OW18456   7.626  12.996   8.062
 5520SOL    HW118457   7.660  12.921   8.111
 5520SOL    HW218458   7.532  12.994   8.077
 5521SOL     OW18459   2.337   9.803  12.707
 5521SOL    HW118460   2.337   9.811  12.612
 5521SOL    HW218461   2.320   9.892  12.738
 5522SOL     OW18462   4.788   7.646   5.258
 5522SOL    HW118463   4.867   7.657   5.312
 5522SOL    HW218464   4.816   7.589   5.186
 5523SOL     OW18465   4.445   0.798  10.253
 5523SOL    HW118466   4.415   0.889  10.247
 5523SOL    HW218467   4.482   0.791  10.341
 5524SOL     OW18468  13.842   7.663   2.676
 5524SOL    HW118469  13.780   7.644   2.747
 5524SOL    HW218470  13.912   7.598   2.687
 5525SOL     OW18471   5.059   2.195   8.699
 5525SOL    HW118472   5.125   2.263   8.713
 5525SOL    HW218473   5.003   2.200   8.776
 5526SOL     OW18474   8.753  11.813  12.332
 5526SOL    HW118475   8.837  11.784  12.296
 5526SOL    HW218476   8.702  11.732  12.342
 5527SOL     OW18477   8.373   3.164   5.891
 5527SOL    HW118478   8.393   3.189   5.800
 5527SOL    HW218479   8.414   3.232   5.944
 5528SOL     OW18480  10.420   4.775  11.361
 5528SOL    HW118481  10.371   4.693  11.366
 5528SOL    HW218482  10.434   4.789  11.268
 5529SOL     OW18483   7.461   1.908  10.430
 5529SOL    HW118484   7.398   1.844  10.463
 5529SOL    HW218485   7.544   1.862  10.428
 5530SOL     OW18486  12.154  11.511  13.821
 5530SOL    HW118487  12.124  11.588  13.772
 5530SOL    HW218488  12.078  11.483  13.872
 5531SOL     OW18489   0.487   7.891   4.141
 5531SOL    HW118490   0.415   7.915   4.084
 5531SOL    HW218491   0.482   7.954   4.214
 5532SOL     OW18492   5.021   1.915  10.027
 5532SOL    HW118493   5.085   1.892   9.960
 5532SOL    HW218494   5.023   1.841  10.088
 5533SOL     OW18495   7.033   8.753   5.197
 5533SOL    HW118496   7.017   8.710   5.281
 5533SOL    HW218497   6.947   8.767   5.160
 5534SOL     OW18498  11.823   8.403   0.073
 5534SOL    HW118499  11.730   8.417   0.084
 5534SOL    HW218500  11.848   8.460   0.001
 5535SOL     OW18501  13.300   5.017   8.716
 5535SOL    HW118502  13.316   5.061   8.632
 5535SOL    HW218503  13.209   5.038   8.737
 5536SOL     OW18504  10.829   2.328   0.696
 5536SOL    HW118505  10.740   2.294   0.697
 5536SOL    HW218506  10.865   2.300   0.612
 5537SOL     OW18507   8.079   2.095   0.638
 5537SOL    HW118508   8.034   2.136   0.712
 5537SOL    HW218509   8.089   2.166   0.574
 5538SOL     OW18510   9.268  13.653   7.516
 5538SOL    HW118511   9.332  13.720   7.495
 5538SOL    HW218512   9.303  13.573   7.479
 5539SOL     OW18513   3.826   2.501   3.729
 5539SOL    HW118514   3.860   2.505   3.640
 5539SOL    HW218515   3.787   2.587   3.744
 5540SOL     OW18516  11.234  11.697   6.029
 5540SOL    HW118517  11.279  11.712   6.112
 5540SOL    HW218518  11.242  11.779   5.981
 5541SOL     OW18519  12.260   5.008   5.759
 5541SOL    HW118520  12.233   4.973   5.674
 5541SOL    HW218521  12.181   5.009   5.812
 5542SOL     OW18522   2.472  14.811   2.174
 5542SOL    HW118523   2.377  14.797   2.164
 5542SOL    HW218524   2.480   0.024   2.192
 5543SOL     OW18525  10.480   5.757  13.334
 5543SOL    HW118526  10.555   5.705  13.363
 5543SOL    HW218527  10.484   5.754  13.239
 5544SOL     OW18528  13.162   6.983   5.172
 5544SOL    HW118529  13.143   6.997   5.264
 5544SOL    HW218530  13.094   6.922   5.142
 5545SOL     OW18531   8.568   8.341   3.624
 5545SOL    HW118532   8.581   8.252   3.592
 5545SOL    HW218533   8.547   8.331   3.717
 5546SOL     OW18534  14.651   2.152  13.337
 5546SOL    HW118535  14.700   2.157  13.419
 5546SOL    HW218536  14.612   2.239  13.327
 5547SOL     OW18537   8.972   9.920   9.816
 5547SOL    HW118538   8.999   9.830   9.797
 5547SOL    HW218539   8.877   9.915   9.829
 5548SOL     OW18540  10.406  11.397  14.064
 5548SOL    HW118541  10.337  11.456  14.093
 5548SOL    HW218542  10.361  11.315  14.044
 5549SOL     OW18543   7.538  11.760  14.692
 5549SOL    HW118544   7.463  11.813  14.665
 5549SOL    HW218545   7.614  11.816  14.675
 5550SOL     OW18546   5.870  10.885   4.134
 5550SOL    HW118547   5.801  10.819   4.138
 5550SOL    HW218548   5.850  10.936   4.056
 5551SOL     OW18549   8.801   6.205   4.170
 5551SOL    HW118550   8.802   6.124   4.221
 5551SOL    HW218551   8.711   6.212   4.138
 5552SOL     OW18552   8.639   9.242  13.390
 5552SOL    HW118553   8.577   9.315  13.389
 5552SOL    HW218554   8.595   9.172  13.340
 5553SOL     OW18555  12.344   4.890   9.280
 5553SOL    HW118556  12.273   4.954   9.290
 5553SOL    HW218557  12.338   4.862   9.189
 5554SOL     OW18558   5.265   9.139  11.069
 5554SOL    HW118559   5.298   9.227  11.087
 5554SOL    HW218560   5.344   9.084  11.071
 5555SOL     OW18561  11.725   8.762   5.877
 5555SOL    HW118562  11.741   8.843   5.924
 5555SOL    HW218563  11.642   8.777   5.832
 5556SOL     OW18564   5.367   3.164   1.473
 5556SOL    HW118565   5.370   3.140   1.381
 5556SOL    HW218566   5.384   3.082   1.520
 5557SOL     OW18567   9.096   6.116   7.278
 5557SOL    HW118568   9.170   6.099   7.221
 5557SOL    HW218569   9.035   6.044   7.262
 5558SOL     OW18570   9.066   8.946   0.328
 5558SOL    HW118571   9.161   8.932   0.327
 5558SOL    HW218572   9.054   9.027   0.278
 5559SOL     OW18573   3.387   7.141   8.124
 5559SOL    HW118574   3.443   7.077   8.168
 5559SOL    HW218575   3.312   7.091   8.093
 5560SOL     OW18576  13.921  14.270   5.002
 5560SOL    HW118577  13.847  14.245   4.947
 5560SOL    HW218578  13.954  14.351   4.963
 5561SOL     OW18579   2.714  11.067   7.861
 5561SOL    HW118580   2.755  10.982   7.876
 5561SOL    HW218581   2.786  11.130   7.867
 5562SOL     OW18582  13.626   9.598  13.548
 5562SOL    HW118583  13.604   9.675  13.496
 5562SOL    HW218584  13.541   9.560  13.571
 5563SOL     OW18585   6.780   0.234  13.323
 5563SOL    HW118586   6.702   0.184  13.346
 5563SOL    HW218587   6.747   0.302  13.263
 5564SOL     OW18588   8.617   4.658   5.203
 5564SOL    HW118589   8.561   4.736   5.203
 5564SOL    HW218590   8.692   4.682   5.257
 5565SOL     OW18591   5.487  13.816   7.917
 5565SOL    HW118592   5.445  13.901   7.931
 5565SOL    HW218593   5.536  13.800   7.998
 5566SOL     OW18594  11.624   2.312  14.851
 5566SOL    HW118595  11.667   2.397  14.859
 5566SOL    HW218596  11.613   2.299  14.757
 5567SOL     OW18597  12.632   2.799   0.607
 5567SOL    HW118598  12.641   2.853   0.529
 5567SOL    HW218599  12.539   2.800   0.627
 5568SOL     OW18600  14.533   4.711  12.385
 5568SOL    HW118601  14.507   4.795  12.422
 5568SOL    HW218602  14.462   4.652  12.409
 5569SOL     OW18603   9.894   7.211  14.642
 5569SOL    HW118604   9.877   7.117  14.653
 5569SOL    HW218605   9.969   7.215  14.583
 5570SOL     OW18606   3.882   6.130   2.916
 5570SOL    HW118607   3.896   6.039   2.891
 5570SOL    HW218608   3.940   6.145   2.990
 5571SOL     OW18609   4.639   7.461   3.410
 5571SOL    HW118610   4.671   7.481   3.498
 5571SOL    HW218611   4.697   7.512   3.353
 5572SOL     OW18612   0.850   1.513   7.863
 5572SOL    HW118613   0.808   1.440   7.908
 5572SOL    HW218614   0.821   1.504   7.772
 5573SOL     OW18615  10.894   5.350   7.633
 5573SOL    HW118616  10.824   5.320   7.575
 5573SOL    HW218617  10.880   5.444   7.640
 5574SOL     OW18618  10.752   8.659  13.163
 5574SOL    HW118619  10.803   8.646  13.243
 5574SOL    HW218620  10.817   8.687  13.098
 5575SOL     OW18621   0.883  13.917   7.120
 5575SOL    HW118622   0.819  13.976   7.162
 5575SOL    HW218623   0.878  13.837   7.171
 5576SOL     OW18624   6.694   9.522   8.068
 5576SOL    HW118625   6.745   9.480   8.138
 5576SOL    HW218626   6.698   9.616   8.088
 5577SOL     OW18627   7.655  11.505  11.255
 5577SOL    HW118628   7.561  11.510  11.241
 5577SOL    HW218629   7.692  11.568  11.193
 5578SOL     OW18630  14.496  13.104  11.513
 5578SOL    HW118631  14.543  13.125  11.432
 5578SOL    HW218632  14.420  13.161  11.511
 5579SOL     OW18633  13.960   4.230   4.669
 5579SOL    HW118634  13.949   4.150   4.720
 5579SOL    HW218635  13.896   4.291   4.705
 5580SOL     OW18636   5.757   6.482   8.798
 5580SOL    HW118637   5.693   6.473   8.728
 5580SOL    HW218638   5.748   6.574   8.827
 5581SOL     OW18639   4.330   2.426   5.544
 5581SOL    HW118640   4.400   2.434   5.479
 5581SOL    HW218641   4.355   2.488   5.613
 5582SOL     OW18642   3.432  13.806  11.078
 5582SOL    HW118643   3.401  13.850  10.999
 5582SOL    HW218644   3.479  13.874  11.126
 5583SOL     OW18645  11.517   3.421   6.803
 5583SOL    HW118646  11.509   3.420   6.899
 5583SOL    HW218647  11.582   3.490   6.786
 5584SOL     OW18648   4.689   9.787   0.198
 5584SOL    HW118649   4.764   9.798   0.256
 5584SOL    HW218650   4.670   9.693   0.201
 5585SOL     OW18651   7.139  14.427   3.763
 5585SOL    HW118652   7.211  14.380   3.722
 5585SOL    HW218653   7.130  14.386   3.849
 5586SOL     OW18654   2.613   4.726  10.809
 5586SOL    HW118655   2.640   4.811  10.774
 5586SOL    HW218656   2.619   4.736  10.904
 5587SOL     OW18657   5.596   1.480   7.908
 5587SOL    HW118658   5.676   1.457   7.859
 5587SOL    HW218659   5.562   1.395   7.938
 5588SOL     OW18660  11.334   2.886  12.784
 5588SOL    HW118661  11.428   2.902  12.787
 5588SOL    HW218662  11.318   2.854  12.695
 5589SOL     OW18663   3.539  13.712   1.534
 5589SOL    HW118664   3.566  13.701   1.443
 5589SOL    HW218665   3.614  13.681   1.586
 5590SOL     OW18666   5.422   1.084  11.367
 5590SOL    HW118667   5.400   1.131  11.447
 5590SOL    HW218668   5.337   1.062  11.327
 5591SOL     OW18669  11.189   1.768  14.095
 5591SOL    HW118670  11.196   1.834  14.025
 5591SOL    HW218671  11.278   1.762  14.131
 5592SOL     OW18672   7.597   9.157   7.073
 5592SOL    HW118673   7.569   9.120   6.989
 5592SOL    HW218674   7.589   9.084   7.135
 5593SOL     OW18675   5.607   3.855  12.177
 5593SOL    HW118676   5.520   3.841  12.214
 5593SOL    HW218677   5.661   3.882  12.252
 5594SOL     OW18678   2.021   0.337   8.080
 5594SOL    HW118679   1.983   0.420   8.109
 5594SOL    HW218680   2.098   0.324   8.136
 5595SOL     OW18681  10.827   7.010   5.859
 5595SOL    HW118682  10.791   6.970   5.780
 5595SOL    HW218683  10.782   7.094   5.867
 5596SOL     OW18684  11.511   6.369  10.371
 5596SOL    HW118685  11.571   6.345  10.442
 5596SOL    HW218686  11.548   6.326  10.293
 5597SOL     OW18687   4.464   6.910   3.979
 5597SOL    HW118688   4.372   6.902   4.005
 5597SOL    HW218689   4.508   6.945   4.057
 5598SOL     OW18690   5.493   6.925   1.751
 5598SOL    HW118691   5.585   6.933   1.726
 5598SOL    HW218692   5.463   6.844   1.709
 5599SOL     OW18693  10.911   8.624   1.732
 5599SOL    HW118694  10.933   8.672   1.812
 5599SOL    HW218695  10.832   8.575   1.754
 5600SOL     OW18696  11.107  11.801   4.831
 5600SOL    HW118697  11.130  11.806   4.738
 5600SOL    HW218698  11.088  11.892   4.856
 5601SOL     OW18699  13.032  11.147   2.348
 5601SOL    HW118700  13.121  11.119   2.329
 5601SOL    HW218701  12.986  11.067   2.373
 5602SOL     OW18702   2.937  10.644   7.565
 5602SOL    HW118703   2.979  10.706   7.625
 5602SOL    HW218704   2.902  10.699   7.495
 5603SOL     OW18705   7.443  13.711  12.921
 5603SOL    HW118706   7.502  13.707  12.846
 5603SOL    HW218707   7.498  13.690  12.996
 5604SOL     OW18708   1.672   5.624  11.675
 5604SOL    HW118709   1.605   5.692  11.663
 5604SOL    HW218710   1.753   5.667  11.648
 5605SOL     OW18711  11.146   0.641   4.392
 5605SOL    HW118712  11.111   0.729   4.378
 5605SOL    HW218713  11.072   0.592   4.430
 5606SOL     OW18714  13.346  11.263  12.296
 5606SOL    HW118715  13.389  11.286  12.214
 5606SOL    HW218716  13.344  11.344  12.347
 5607SOL     OW18717   0.587   2.207   1.601
 5607SOL    HW118718   0.607   2.288   1.648
 5607SOL    HW218719   0.633   2.139   1.650
 5608SOL     OW18720  14.411   3.976  11.010
 5608SOL    HW118721  14.359   3.912  11.059
 5608SOL    HW218722  14.422   4.050  11.070
 5609SOL     OW18723   6.696   7.086  10.822
 5609SOL    HW118724   6.703   6.999  10.862
 5609SOL    HW218725   6.606   7.114  10.842
 5610SOL     OW18726  11.037   2.646  11.064
 5610SOL    HW118727  11.046   2.695  11.146
 5610SOL    HW218728  10.947   2.613  11.067
 5611SOL     OW18729   1.073  10.479   3.214
 5611SOL    HW118730   1.117  10.436   3.288
 5611SOL    HW218731   0.994  10.517   3.253
 5612SOL     OW18732  13.546  13.268   3.193
 5612SOL    HW118733  13.494  13.230   3.121
 5612SOL    HW218734  13.566  13.193   3.249
 5613SOL     OW18735  13.790   5.701   3.938
 5613SOL    HW118736  13.793   5.617   3.892
 5613SOL    HW218737  13.825   5.682   4.025
 5614SOL     OW18738   9.822   0.676   7.868
 5614SOL    HW118739   9.762   0.728   7.815
 5614SOL    HW218740   9.853   0.607   7.810
 5615SOL     OW18741   5.070   6.547   9.951
 5615SOL    HW118742   5.057   6.518  10.042
 5615SOL    HW218743   5.086   6.642   9.959
 5616SOL     OW18744  11.104  13.088  12.454
 5616SOL    HW118745  11.135  13.034  12.527
 5616SOL    HW218746  11.021  13.048  12.429
 5617SOL     OW18747   9.208   5.442   7.598
 5617SOL    HW118748   9.142   5.437   7.528
 5617SOL    HW218749   9.191   5.525   7.641
 5618SOL     OW18750  14.083   5.864   4.930
 5618SOL    HW118751  14.027   5.909   4.867
 5618SOL    HW218752  14.136   5.934   4.969
 5619SOL     OW18753   7.430   3.740   1.689
 5619SOL    HW118754   7.432   3.829   1.724
 5619SOL    HW218755   7.359   3.697   1.737
 5620SOL     OW18756   5.114   2.702   7.970
 5620SOL    HW118757   5.025   2.670   7.984
 5620SOL    HW218758   5.118   2.785   8.018
 5621SOL     OW18759  12.897  13.249   0.958
 5621SOL    HW118760  12.983  13.289   0.945
 5621SOL    HW218761  12.917  13.158   0.980
 5622SOL     OW18762  10.874   7.982   2.389
 5622SOL    HW118763  10.926   8.046   2.340
 5622SOL    HW218764  10.838   8.031   2.463
 5623SOL     OW18765   4.770  14.573   8.320
 5623SOL    HW118766   4.790  14.488   8.359
 5623SOL    HW218767   4.679  14.566   8.293
 5624SOL     OW18768   7.794   8.821  14.585
 5624SOL    HW118769   7.874   8.828  14.532
 5624SOL    HW218770   7.727   8.793  14.523
 5625SOL     OW18771   9.313   3.910   7.978
 5625SOL    HW118772   9.265   3.977   7.930
 5625SOL    HW218773   9.266   3.901   8.061
 5626SOL     OW18774  13.161   8.028  13.948
 5626SOL    HW118775  13.213   7.949  13.960
 5626SOL    HW218776  13.141   8.030  13.854
 5627SOL     OW18777   6.193  13.188   3.451
 5627SOL    HW118778   6.185  13.184   3.356
 5627SOL    HW218779   6.178  13.280   3.473
 5628SOL     OW18780   0.448   8.216   2.452
 5628SOL    HW118781   0.419   8.296   2.495
 5628SOL    HW218782   0.370   8.180   2.411
 5629SOL     OW18783   9.613   8.330   2.789
 5629SOL    HW118784   9.578   8.419   2.784
 5629SOL    HW218785   9.569   8.291   2.864
 5630SOL     OW18786   7.668   3.320   8.083
 5630SOL    HW118787   7.658   3.368   8.165
 5630SOL    HW218788   7.633   3.378   8.015
 5631SOL     OW18789   2.815   8.485   3.229
 5631SOL    HW118790   2.832   8.543   3.156
 5631SOL    HW218791   2.794   8.400   3.189
 5632SOL     OW18792   0.762  11.415   1.116
 5632SOL    HW118793   0.717  11.409   1.032
 5632SOL    HW218794   0.784  11.324   1.137
 5633SOL     OW18795  13.982   3.464  10.558
 5633SOL    HW118796  14.050   3.467  10.491
 5633SOL    HW218797  13.961   3.556  10.575
 5634SOL     OW18798   6.568   3.515   9.826
 5634SOL    HW118799   6.484   3.535   9.868
 5634SOL    HW218800   6.613   3.599   9.820
 5635SOL     OW18801   8.715   6.458   4.017
 5635SOL    HW118802   8.645   6.502   4.065
 5635SOL    HW218803   8.784   6.446   4.082
 5636SOL     OW18804  13.757  13.401  11.638
 5636SOL    HW118805  13.680  13.433  11.686
 5636SOL    HW218806  13.720  13.340  11.574
 5637SOL     OW18807  10.655  10.954   8.949
 5637SOL    HW118808  10.712  10.970   9.024
 5637SOL    HW218809  10.614  11.039   8.931
 5638SOL     OW18810   5.757   6.592   9.163
 5638SOL    HW118811   5.686   6.656   9.158
 5638SOL    HW218812   5.809   6.607   9.084
 5639SOL     OW18813   7.939  13.750  14.102
 5639SOL    HW118814   7.890  13.694  14.163
 5639SOL    HW218815   8.030  13.723  14.114
 5640SOL     OW18816   3.141   2.432   1.411
 5640SOL    HW118817   3.234   2.449   1.429
 5640SOL    HW218818   3.135   2.434   1.315
 5641SOL     OW18819  13.824   0.424   8.664
 5641SOL    HW118820  13.819   0.329   8.680
 5641SOL    HW218821  13.762   0.461   8.727
 5642SOL     OW18822   7.668   2.557  12.096
 5642SOL    HW118823   7.665   2.616  12.172
 5642SOL    HW218824   7.577   2.550  12.068
 5643SOL     OW18825  10.080   1.610   9.271
 5643SOL    HW118826  10.062   1.602   9.365
 5643SOL    HW218827  10.015   1.671   9.239
 5644SOL     OW18828  10.636   3.061   9.522
 5644SOL    HW118829  10.673   3.076   9.435
 5644SOL    HW218830  10.684   3.120   9.579
 5645SOL     OW18831   1.786   9.887  12.061
 5645SOL    HW118832   1.719   9.836  12.109
 5645SOL    HW218833   1.764   9.978  12.081
 5646SOL     OW18834   4.809   2.892   9.610
 5646SOL    HW118835   4.796   2.892   9.705
 5646SOL    HW218836   4.734   2.942   9.576
 5647SOL     OW18837   9.834   0.408   2.870
 5647SOL    HW118838   9.919   0.450   2.858
 5647SOL    HW218839   9.796   0.405   2.783
 5648SOL     OW18840   2.888   6.147   0.807
 5648SOL    HW118841   2.907   6.104   0.890
 5648SOL    HW218842   2.890   6.076   0.743
 5649SOL     OW18843   9.780  11.717   1.421
 5649SOL    HW118844   9.798  11.793   1.476
 5649SOL    HW218845   9.805  11.744   1.333
 5650SOL     OW18846   3.878  14.183  13.353
 5650SOL    HW118847   3.820  14.119  13.310
 5650SOL    HW218848   3.853  14.267  13.315
 5651SOL     OW18849   2.274   8.544   4.390
 5651SOL    HW118850   2.348   8.517   4.444
 5651SOL    HW218851   2.242   8.463   4.351
 5652SOL     OW18852   2.918   5.694   9.059
 5652SOL    HW118853   3.000   5.742   9.072
 5652SOL    HW218854   2.890   5.669   9.147
 5653SOL     OW18855  14.158   3.486  12.203
 5653SOL    HW118856  14.182   3.579  12.214
 5653SOL    HW218857  14.079   3.476  12.255
 5654SOL     OW18858   1.995   6.574   4.137
 5654SOL    HW118859   1.991   6.598   4.229
 5654SOL    HW218860   1.982   6.479   4.136
 5655SOL     OW18861  13.533   2.890  12.728
 5655SOL    HW118862  13.580   2.880  12.811
 5655SOL    HW218863  13.494   2.805  12.712
 5656SOL     OW18864  14.103   0.063   8.618
 5656SOL    HW118865  14.050   0.067   8.697
 5656SOL    HW218866  14.109  14.850   8.597
 5657SOL     OW18867  13.529   4.293  13.445
 5657SOL    HW118868  13.443   4.329  13.423
 5657SOL    HW218869  13.524   4.201  13.420
 5658SOL     OW18870  11.658  14.008   0.035
 5658SOL    HW118871  11.743  14.050   0.019
 5658SOL    HW218872  11.680  13.924   0.077
 5659SOL     OW18873  12.931  13.590  11.295
 5659SOL    HW118874  12.966  13.679  11.299
 5659SOL    HW218875  12.936  13.566  11.202
 5660SOL     OW18876  14.181   2.755   4.975
 5660SOL    HW118877  14.222   2.819   4.916
 5660SOL    HW218878  14.255   2.709   5.015
 5661SOL     OW18879  10.440  10.561   6.645
 5661SOL    HW118880  10.462  10.595   6.732
 5661SOL    HW218881  10.409  10.637   6.596
 5662SOL     OW18882   2.879  11.721  10.839
 5662SOL    HW118883   2.792  11.687  10.860
 5662SOL    HW218884   2.862  11.802  10.793
 5663SOL     OW18885   4.317   9.027   7.844
 5663SOL    HW118886   4.228   9.004   7.871
 5663SOL    HW218887   4.368   8.947   7.856
 5664SOL     OW18888  12.584  13.521   7.757
 5664SOL    HW118889  12.673  13.486   7.757
 5664SOL    HW218890  12.553  13.507   7.668
 5665SOL     OW18891   6.465   3.630   8.774
 5665SOL    HW118892   6.486   3.545   8.736
 5665SOL    HW218893   6.490   3.622   8.866
 5666SOL     OW18894  13.424   2.471  10.054
 5666SOL    HW118895  13.519   2.476  10.061
 5666SOL    HW218896  13.392   2.516  10.132
 5667SOL     OW18897  13.699   8.274   7.985
 5667SOL    HW118898  13.666   8.347   8.037
 5667SOL    HW218899  13.790   8.296   7.968
 5668SOL     OW18900   5.917   0.754  11.791
 5668SOL    HW118901   5.963   0.677  11.825
 5668SOL    HW218902   5.903   0.735  11.699
 5669SOL     OW18903   6.534  10.353   7.599
 5669SOL    HW118904   6.557  10.261   7.613
 5669SOL    HW218905   6.558  10.396   7.681
 5670SOL     OW18906   2.673   4.768  13.573
 5670SOL    HW118907   2.670   4.698  13.508
 5670SOL    HW218908   2.632   4.843  13.529
 5671SOL     OW18909   7.211   2.902   4.025
 5671SOL    HW118910   7.129   2.929   3.982
 5671SOL    HW218911   7.279   2.925   3.962
 5672SOL     OW18912   7.394   5.635   5.483
 5672SOL    HW118913   7.426   5.724   5.495
 5672SOL    HW218914   7.425   5.611   5.395
 5673SOL     OW18915  11.775   1.017   9.375
 5673SOL    HW118916  11.699   0.969   9.409
 5673SOL    HW218917  11.744   1.107   9.366
 5674SOL     OW18918   0.649  11.207   7.044
 5674SOL    HW118919   0.571  11.151   7.037
 5674SOL    HW218920   0.616  11.289   7.082
 5675SOL     OW18921   0.585  13.775   7.128
 5675SOL    HW118922   0.524  13.814   7.191
 5675SOL    HW218923   0.528  13.733   7.064
 5676SOL     OW18924   9.750  13.066   5.787
 5676SOL    HW118925   9.808  13.112   5.848
 5676SOL    HW218926   9.730  12.984   5.831
 5677SOL     OW18927   1.147   9.777  11.763
 5677SOL    HW118928   1.052   9.791  11.762
 5677SOL    HW218929   1.160   9.697  11.712
 5678SOL     OW18930   3.991  14.292   7.435
 5678SOL    HW118931   4.011  14.243   7.515
 5678SOL    HW218932   4.000  14.384   7.460
 5679SOL     OW18933  11.025   0.374   3.505
 5679SOL    HW118934  11.043   0.466   3.523
 5679SOL    HW218935  10.975   0.344   3.581
 5680SOL     OW18936   3.563   0.758   6.980
 5680SOL    HW118937   3.588   0.843   7.016
 5680SOL    HW218938   3.492   0.728   7.037
 5681SOL     OW18939   5.764  10.023   8.754
 5681SOL    HW118940   5.702  10.069   8.811
 5681SOL    HW218941   5.808   9.962   8.813
 5682SOL     OW18942  12.061  14.847   2.154
 5682SOL    HW118943  12.050  14.792   2.232
 5682SOL    HW218944  12.147  14.824   2.120
 5683SOL     OW18945   2.882   6.106   5.071
 5683SOL    HW118946   2.797   6.096   5.029
 5683SOL    HW218947   2.919   6.185   5.033
 5684SOL     OW18948  10.965   8.554   6.481
 5684SOL    HW118949  10.907   8.611   6.430
 5684SOL    HW218950  10.932   8.465   6.464
 5685SOL     OW18951   0.192   6.007   8.352
 5685SOL    HW118952   0.116   6.016   8.409
 5685SOL    HW218953   0.170   5.935   8.293
 5686SOL     OW18954   1.856   8.868   6.192
 5686SOL    HW118955   1.905   8.815   6.255
 5686SOL    HW218956   1.876   8.959   6.216
 5687SOL     OW18957   1.511   7.596   8.600
 5687SOL    HW118958   1.575   7.637   8.542
 5687SOL    HW218959   1.523   7.502   8.587
 5688SOL     OW18960  11.954   6.538   1.290
 5688SOL    HW118961  12.029   6.597   1.300
 5688SOL    HW218962  11.981   6.475   1.223
 5689SOL     OW18963  10.360   4.629   7.806
 5689SOL    HW118964  10.356   4.589   7.893
 5689SOL    HW218965  10.287   4.590   7.758
 5690SOL     OW18966   1.597  12.163   2.798
 5690SOL    HW118967   1.530  12.102   2.768
 5690SOL    HW218968   1.569  12.186   2.887
 5691SOL     OW18969   7.503  13.907   2.608
 5691SOL    HW118970   7.571  13.915   2.540
 5691SOL    HW218971   7.519  13.981   2.666
 5692SOL     OW18972   3.136  12.174   1.986
 5692SOL    HW118973   3.042  12.187   1.984
 5692SOL    HW218974   3.159  12.148   1.897
 5693SOL     OW18975  11.089  13.887   1.609
 5693SOL    HW118976  11.076  13.948   1.536
 5693SOL    HW218977  11.001  13.872   1.644
 5694SOL     OW18978  13.967  13.194  14.828
 5694SOL    HW118979  13.991  13.231  14.743
 5694SOL    HW218980  14.051  13.177  14.871
 5695SOL     OW18981   0.937   1.032  13.051
 5695SOL    HW118982   0.925   0.944  13.088
 5695SOL    HW218983   1.028   1.055  13.073
 5696SOL     OW18984   0.718   7.922  13.084
 5696SOL    HW118985   0.629   7.888  13.095
 5696SOL    HW218986   0.741   7.900  12.994
 5697SOL     OW18987   9.620   7.852  12.937
 5697SOL    HW118988   9.715   7.844  12.932
 5697SOL    HW218989   9.601   7.942  12.913
 5698SOL     OW18990   5.487   7.427  14.304
 5698SOL    HW118991   5.442   7.365  14.362
 5698SOL    HW218992   5.525   7.492  14.363
 5699SOL     OW18993   9.530  10.135  10.549
 5699SOL    HW118994   9.437  10.118  10.566
 5699SOL    HW218995   9.543  10.110  10.458
 5700SOL     OW18996   1.583   0.451  10.024
 5700SOL    HW118997   1.581   0.539  10.063
 5700SOL    HW218998   1.593   0.392  10.099
 5701SOL     OW18999   7.644   6.622   7.892
 5701SOL    HW119000   7.692   6.560   7.947
 5701SOL    HW219001   7.637   6.701   7.945
 5702SOL     OW19002   3.250   6.303  12.800
 5702SOL    HW119003   3.228   6.223  12.751
 5702SOL    HW219004   3.346   6.307  12.795
 5703SOL     OW19005   1.712  13.569   5.373
 5703SOL    HW119006   1.638  13.601   5.425
 5703SOL    HW219007   1.671  13.521   5.301
 5704SOL     OW19008  12.396   1.779   8.568
 5704SOL    HW119009  12.431   1.725   8.639
 5704SOL    HW219010  12.392   1.867   8.605
 5705SOL     OW19011  13.663  11.622   7.385
 5705SOL    HW119012  13.749  11.580   7.383
 5705SOL    HW219013  13.662  11.679   7.308
 5706SOL     OW19014   2.013   2.828   4.409
 5706SOL    HW119015   1.957   2.844   4.486
 5706SOL    HW219016   2.071   2.758   4.436
 5707SOL     OW19017   0.023   3.856   2.650
 5707SOL    HW119018   0.076   3.830   2.725
 5707SOL    HW219019   0.085   3.862   2.578
 5708SOL     OW19020   0.407   7.463   0.510
 5708SOL    HW119021   0.340   7.475   0.578
 5708SOL    HW219022   0.436   7.372   0.521
 5709SOL     OW19023   2.394   1.143   8.018
 5709SOL    HW119024   2.346   1.182   7.945
 5709SOL    HW219025   2.331   1.087   8.062
 5710SOL     OW19026   6.634  14.013  12.751
 5710SOL    HW119027   6.586  14.090  12.781
 5710SOL    HW219028   6.570  13.942  12.758
 5711SOL     OW19029  10.661   5.212   2.051
 5711SOL    HW119030  10.682   5.281   1.988
 5711SOL    HW219031  10.746   5.189   2.089
 5712SOL     OW19032   5.888  12.072   1.181
 5712SOL    HW119033   5.913  11.980   1.178
 5712SOL    HW219034   5.883  12.099   1.089
 5713SOL     OW19035   0.270   5.142   0.534
 5713SOL    HW119036   0.342   5.160   0.473
 5713SOL    HW219037   0.227   5.064   0.498
 5714SOL     OW19038   1.765   8.115  11.547
 5714SOL    HW119039   1.781   8.206  11.572
 5714SOL    HW219040   1.706   8.082  11.615
 5715SOL     OW19041   4.363  12.159  11.645
 5715SOL    HW119042   4.315  12.232  11.607
 5715SOL    HW219043   4.439  12.147  11.588
 5716SOL     OW19044   7.240   4.860   8.071
 5716SOL    HW119045   7.325   4.877   8.113
 5716SOL    HW219046   7.175   4.879   8.139
 5717SOL     OW19047   2.652   2.844   6.129
 5717SOL    HW119048   2.650   2.940   6.135
 5717SOL    HW219049   2.560   2.818   6.129
 5718SOL     OW19050   8.428   9.730  13.268
 5718SOL    HW119051   8.338   9.762  13.263
 5718SOL    HW219052   8.478   9.793  13.216
 5719SOL     OW19053   6.514   9.600   6.601
 5719SOL    HW119054   6.443   9.595   6.537
 5719SOL    HW219055   6.514   9.514   6.643
 5720SOL     OW19056   2.778  11.196   3.433
 5720SOL    HW119057   2.740  11.129   3.376
 5720SOL    HW219058   2.859  11.157   3.464
 5721SOL     OW19059   8.040   3.411   5.381
 5721SOL    HW119060   8.049   3.343   5.314
 5721SOL    HW219061   7.951   3.445   5.370
 5722SOL     OW19062   4.081   1.572   5.531
 5722SOL    HW119063   4.071   1.639   5.463
 5722SOL    HW219064   3.992   1.550   5.556
 5723SOL     OW19065   4.651   8.598   5.937
 5723SOL    HW119066   4.704   8.533   5.891
 5723SOL    HW219067   4.625   8.660   5.869
 5724SOL     OW19068   0.357  13.783   1.597
 5724SOL    HW119069   0.340  13.866   1.552
 5724SOL    HW219070   0.270  13.743   1.606
 5725SOL     OW19071   1.627  11.333  12.152
 5725SOL    HW119072   1.557  11.288  12.105
 5725SOL    HW219073   1.608  11.426  12.140
 5726SOL     OW19074   5.382   4.730   8.626
 5726SOL    HW119075   5.335   4.682   8.558
 5726SOL    HW219076   5.472   4.734   8.594
 5727SOL     OW19077   7.851  12.923  12.007
 5727SOL    HW119078   7.818  12.912  12.095
 5727SOL    HW219079   7.944  12.900  12.013
 5728SOL     OW19080   4.464   1.782   9.072
 5728SOL    HW119081   4.500   1.870   9.084
 5728SOL    HW219082   4.537   1.732   9.036
 5729SOL     OW19083   9.151   2.116   4.294
 5729SOL    HW119084   9.240   2.149   4.305
 5729SOL    HW219085   9.156   2.025   4.326
 5730SOL     OW19086   3.971   5.696   3.059
 5730SOL    HW119087   3.950   5.755   2.987
 5730SOL    HW219088   3.976   5.753   3.136
 5731SOL     OW19089  12.248  14.514  10.600
 5731SOL    HW119090  12.321  14.516  10.662
 5731SOL    HW219091  12.270  14.442  10.540
 5732SOL     OW19092   6.911   2.515   9.625
 5732SOL    HW119093   6.898   2.545   9.535
 5732SOL    HW219094   6.982   2.569   9.659
 5733SOL     OW19095  11.769   1.861  10.053
 5733SOL    HW119096  11.783   1.835  10.144
 5733SOL    HW219097  11.723   1.787  10.014
 5734SOL     OW19098   5.604   3.345   1.354
 5734SOL    HW119099   5.623   3.267   1.302
 5734SOL    HW219100   5.522   3.378   1.317
 5735SOL     OW19101   3.140  12.744   0.798
 5735SOL    HW119102   3.180  12.819   0.753
 5735SOL    HW219103   3.171  12.751   0.888
 5736SOL     OW19104   2.524   0.199   2.075
 5736SOL    HW119105   2.530   0.286   2.036
 5736SOL    HW219106   2.499   0.142   2.003
 5737SOL     OW19107  11.109   6.507   1.996
 5737SOL    HW119108  11.153   6.423   2.009
 5737SOL    HW219109  11.067   6.525   2.080
 5738SOL     OW19110   7.809   7.221   6.865
 5738SOL    HW119111   7.728   7.267   6.845
 5738SOL    HW219112   7.871   7.251   6.798
 5739SOL     OW19113  10.321  12.653   9.202
 5739SOL    HW119114  10.253  12.656   9.135
 5739SOL    HW219115  10.371  12.574   9.182
 5740SOL     OW19116   5.246   6.488  12.671
 5740SOL    HW119117   5.255   6.572  12.626
 5740SOL    HW219118   5.224   6.510  12.761
 5741SOL     OW19119  13.207   1.923   2.902
 5741SOL    HW119120  13.262   1.956   2.832
 5741SOL    HW219121  13.117   1.939   2.872
 5742SOL     OW19122  12.425   3.056  12.784
 5742SOL    HW119123  12.415   3.017  12.697
 5742SOL    HW219124  12.520   3.064  12.796
 5743SOL     OW19125   4.453   3.136   2.396
 5743SOL    HW119126   4.526   3.075   2.403
 5743SOL    HW219127   4.434   3.162   2.486
 5744SOL     OW19128   5.532   0.541   4.298
 5744SOL    HW119129   5.493   0.628   4.307
 5744SOL    HW219130   5.578   0.544   4.214
 5745SOL     OW19131   2.958  10.407   6.819
 5745SOL    HW119132   2.888  10.472   6.811
 5745SOL    HW219133   3.028  10.453   6.866
 5746SOL     OW19134  11.984   9.262   8.539
 5746SOL    HW119135  12.021   9.227   8.620
 5746SOL    HW219136  12.054   9.315   8.501
 5747SOL     OW19137   1.623   7.740   5.547
 5747SOL    HW119138   1.613   7.649   5.576
 5747SOL    HW219139   1.553   7.753   5.484
 5748SOL     OW19140   9.279  11.598  14.790
 5748SOL    HW119141   9.201  11.544  14.800
 5748SOL    HW219142   9.262  11.675  14.844
 5749SOL     OW19143  11.900   6.085  10.204
 5749SOL    HW119144  11.990   6.106  10.230
 5749SOL    HW219145  11.910   6.027  10.129
 5750SOL     OW19146   2.510   1.784  12.210
 5750SOL    HW119147   2.593   1.749  12.243
 5750SOL    HW219148   2.445   1.719  12.236
 5751SOL     OW19149   9.988   7.426   3.630
 5751SOL    HW119150  10.023   7.429   3.719
 5751SOL    HW219151  10.064   7.407   3.575
 5752SOL     OW19152   3.019  10.086  10.329
 5752SOL    HW119153   3.028  10.092  10.234
 5752SOL    HW219154   2.926  10.068  10.343
 5753SOL     OW19155   7.876   3.703   5.737
 5753SOL    HW119156   7.849   3.787   5.774
 5753SOL    HW219157   7.828   3.696   5.655
 5754SOL     OW19158   6.994   3.919   5.416
 5754SOL    HW119159   6.944   3.859   5.471
 5754SOL    HW219160   7.035   3.980   5.477
 5755SOL     OW19161  13.287  11.596   6.416
 5755SOL    HW119162  13.273  11.509   6.454
 5755SOL    HW219163  13.200  11.622   6.384
 5756SOL     OW19164   7.829  12.749  10.648
 5756SOL    HW119165   7.835  12.681  10.581
 5756SOL    HW219166   7.839  12.703  10.731
 5757SOL     OW19167  12.264   2.794   4.986
 5757SOL    HW119168  12.287   2.885   4.963
 5757SOL    HW219169  12.264   2.748   4.902
 5758SOL     OW19170   1.595   2.261   3.552
 5758SOL    HW119171   1.530   2.226   3.490
 5758SOL    HW219172   1.547   2.266   3.635
 5759SOL     OW19173  13.874   9.726   7.253
 5759SOL    HW119174  13.824   9.694   7.178
 5759SOL    HW219175  13.808   9.739   7.321
 5760SOL     OW19176   2.210  14.316   6.374
 5760SOL    HW119177   2.263  14.386   6.337
 5760SOL    HW219178   2.196  14.341   6.465
 5761SOL     OW19179  12.615   2.944  12.397
 5761SOL    HW119180  12.529   2.977  12.422
 5761SOL    HW219181  12.656   3.018  12.351
 5762SOL     OW19182  10.842   4.978   6.857
 5762SOL    HW119183  10.837   4.959   6.951
 5762SOL    HW219184  10.858   5.072   6.852
 5763SOL     OW19185   2.549   8.225  11.856
 5763SOL    HW119186   2.552   8.314  11.892
 5763SOL    HW219187   2.619   8.179  11.902
 5764SOL     OW19188  10.108  10.795   4.126
 5764SOL    HW119189  10.202  10.789   4.143
 5764SOL    HW219190  10.068  10.751   4.202
 5765SOL     OW19191   4.361   3.619   2.780
 5765SOL    HW119192   4.398   3.602   2.693
 5765SOL    HW219193   4.307   3.542   2.799
 5766SOL     OW19194   6.375  14.656   0.529
 5766SOL    HW119195   6.311  14.598   0.488
 5766SOL    HW219196   6.459  14.629   0.491
 5767SOL     OW19197   3.633   1.717  13.642
 5767SOL    HW119198   3.575   1.748  13.711
 5767SOL    HW219199   3.576   1.706  13.566
 5768SOL     OW19200   0.016   3.779   0.840
 5768SOL    HW119201   0.066   3.855   0.809
 5768SOL    HW219202   0.002   3.727   0.761
 5769SOL     OW19203  10.668  10.835   5.966
 5769SOL    HW119204  10.622  10.799   6.042
 5769SOL    HW219205  10.753  10.862   6.001
 5770SOL     OW19206   5.133   3.413  13.886
 5770SOL    HW119207   5.059   3.451  13.839
 5770SOL    HW219208   5.123   3.319  13.874
 5771SOL     OW19209   8.829   2.879  11.521
 5771SOL    HW119210   8.801   2.916  11.605
 5771SOL    HW219211   8.844   2.955  11.465
 5772SOL     OW19212   4.962   8.661   5.162
 5772SOL    HW119213   4.965   8.566   5.160
 5772SOL    HW219214   4.920   8.686   5.080
 5773SOL     OW19215  13.871  13.935   8.247
 5773SOL    HW119216  13.915  13.852   8.268
 5773SOL    HW219217  13.939  13.990   8.209
 5774SOL     OW19218   1.541  10.193   6.132
 5774SOL    HW119219   1.554  10.123   6.067
 5774SOL    HW219220   1.490  10.152   6.202
 5775SOL     OW19221  11.723   2.318  10.894
 5775SOL    HW119222  11.741   2.348  10.984
 5775SOL    HW219223  11.637   2.354  10.874
 5776SOL     OW19224  11.201   5.415   8.469
 5776SOL    HW119225  11.140   5.343   8.483
 5776SOL    HW219226  11.288   5.377   8.482
 5777SOL     OW19227   1.656   9.546   6.148
 5777SOL    HW119228   1.636   9.462   6.189
 5777SOL    HW219229   1.592   9.555   6.077
 5778SOL     OW19230  11.237   9.491  13.444
 5778SOL    HW119231  11.142   9.494  13.458
 5778SOL    HW219232  11.267   9.578  13.470
 5779SOL     OW19233  11.680   8.395   8.553
 5779SOL    HW119234  11.663   8.381   8.460
 5779SOL    HW219235  11.766   8.437   8.556
 5780SOL     OW19236   8.103   4.958   4.005
 5780SOL    HW119237   8.099   5.047   4.039
 5780SOL    HW219238   8.160   4.911   4.066
 5781SOL     OW19239   0.567  10.634  12.103
 5781SOL    HW119240   0.635  10.568  12.090
 5781SOL    HW219241   0.493  10.584  12.139
 5782SOL     OW19242   5.538   1.136  12.626
 5782SOL    HW119243   5.536   1.229  12.603
 5782SOL    HW219244   5.483   1.094  12.560
 5783SOL     OW19245   5.679  14.191   4.005
 5783SOL    HW119246   5.662  14.097   4.005
 5783SOL    HW219247   5.593  14.230   3.993
 5784SOL     OW19248   2.723   4.835   4.640
 5784SOL    HW119249   2.640   4.849   4.595
 5784SOL    HW219250   2.774   4.779   4.581
 5785SOL     OW19251   0.356   6.761  12.228
 5785SOL    HW119252   0.427   6.784  12.167
 5785SOL    HW219253   0.276   6.776  12.177
 5786SOL     OW19254   0.495   5.912   4.901
 5786SOL    HW119255   0.472   5.947   4.815
 5786SOL    HW219256   0.477   5.984   4.962
 5787SOL     OW19257  11.339   5.641  12.390
 5787SOL    HW119258  11.375   5.711  12.444
 5787SOL    HW219259  11.246   5.661  12.381
 5788SOL     OW19260   2.991   3.442   3.486
 5788SOL    HW119261   3.060   3.506   3.469
 5788SOL    HW219262   3.038   3.361   3.507
 5789SOL     OW19263   1.329  12.150   6.228
 5789SOL    HW119264   1.384  12.228   6.228
 5789SOL    HW219265   1.381  12.084   6.181
 5790SOL     OW19266  10.618  13.519   5.710
 5790SOL    HW119267  10.631  13.491   5.801
 5790SOL    HW219268  10.707  13.535   5.678
 5791SOL     OW19269  11.916   4.475   5.936
 5791SOL    HW119270  11.828   4.514   5.932
 5791SOL    HW219271  11.946   4.475   5.845
 5792SOL     OW19272   8.658   8.856   5.939
 5792SOL    HW119273   8.664   8.760   5.938
 5792SOL    HW219274   8.641   8.877   6.031
 5793SOL     OW19275   6.227   9.199  11.601
 5793SOL    HW119276   6.298   9.154  11.555
 5793SOL    HW219277   6.147   9.159  11.567
 5794SOL     OW19278   7.868   6.512  11.468
 5794SOL    HW119279   7.912   6.542  11.388
 5794SOL    HW219280   7.933   6.526  11.537
 5795SOL     OW19281   7.704   2.214   8.078
 5795SOL    HW119282   7.754   2.281   8.124
 5795SOL    HW219283   7.727   2.226   7.986
 5796SOL     OW19284  13.684   5.299   8.830
 5796SOL    HW119285  13.678   5.371   8.893
 5796SOL    HW219286  13.673   5.341   8.744
 5797SOL     OW19287   3.952  12.824   1.777
 5797SOL    HW119288   3.867  12.867   1.789
 5797SOL    HW219289   3.992  12.870   1.703
 5798SOL     OW19290   5.026  12.262   6.708
 5798SOL    HW119291   5.102  12.219   6.747
 5798SOL    HW219292   4.975  12.295   6.782
 5799SOL     OW19293   7.834   1.911   8.784
 5799SOL    HW119294   7.870   1.961   8.711
 5799SOL    HW219295   7.766   1.857   8.744
 5800SOL     OW19296   0.096  11.705   6.511
 5800SOL    HW119297   0.164  11.768   6.488
 5800SOL    HW219298   0.079  11.722   6.604
 5801SOL     OW19299   5.263   8.725   9.393
 5801SOL    HW119300   5.217   8.641   9.384
 5801SOL    HW219301   5.351   8.701   9.422
 5802SOL     OW19302   4.305  10.873   8.393
 5802SOL    HW119303   4.252  10.887   8.314
 5802SOL    HW219304   4.379  10.821   8.363
 5803SOL     OW19305  13.432  14.261   2.412
 5803SOL    HW119306  13.369  14.245   2.482
 5803SOL    HW219307  13.436  14.357   2.405
 5804SOL     OW19308   7.022   0.501   0.481
 5804SOL    HW119309   7.027   0.457   0.566
 5804SOL    HW219310   6.932   0.535   0.478
 5805SOL     OW19311  11.041   8.893   8.387
 5805SOL    HW119312  11.041   8.970   8.443
 5805SOL    HW219313  11.122   8.846   8.411
 5806SOL     OW19314   8.823   0.923   4.084
 5806SOL    HW119315   8.864   0.940   3.999
 5806SOL    HW219316   8.841   0.831   4.101
 5807SOL     OW19317  13.729   2.196   8.398
 5807SOL    HW119318  13.706   2.154   8.481
 5807SOL    HW219319  13.708   2.132   8.331
 5808SOL     OW19320  14.777   0.828  12.613
 5808SOL    HW119321  14.740   0.805  12.528
 5808SOL    HW219322  14.718   0.897  12.646
 5809SOL     OW19323   5.243   8.804  10.415
 5809SOL    HW119324   5.291   8.847  10.486
 5809SOL    HW219325   5.308   8.750  10.372
 5810SOL     OW19326  14.143   6.011   6.008
 5810SOL    HW119327  14.133   6.105   6.025
 5810SOL    HW219328  14.060   5.984   5.970
 5811SOL     OW19329   2.756  11.805   0.474
 5811SOL    HW119330   2.819  11.865   0.514
 5811SOL    HW219331   2.808  11.749   0.417
 5812SOL     OW19332   1.243   5.007  12.323
 5812SOL    HW119333   1.283   5.093  12.309
 5812SOL    HW219334   1.199   5.015  12.408
 5813SOL     OW19335   2.647  13.889   6.743
 5813SOL    HW119336   2.607  13.971   6.712
 5813SOL    HW219337   2.658  13.902   6.837
 5814SOL     OW19338  11.726   5.863   5.750
 5814SOL    HW119339  11.658   5.815   5.797
 5814SOL    HW219340  11.679   5.913   5.683
 5815SOL     OW19341   3.540   3.795   2.481
 5815SOL    HW119342   3.497   3.881   2.479
 5815SOL    HW219343   3.546   3.774   2.575
 5816SOL     OW19344   7.343   4.804  13.866
 5816SOL    HW119345   7.357   4.751  13.788
 5816SOL    HW219346   7.270   4.861  13.844
 5817SOL     OW19347   5.616   5.726   2.635
 5817SOL    HW119348   5.624   5.703   2.543
 5817SOL    HW219349   5.566   5.654   2.674
 5818SOL     OW19350  12.216   9.640  12.644
 5818SOL    HW119351  12.244   9.691  12.569
 5818SOL    HW219352  12.216   9.549  12.614
 5819SOL     OW19353   4.863   9.695   4.688
 5819SOL    HW119354   4.825   9.782   4.674
 5819SOL    HW219355   4.843   9.647   4.608
 5820SOL     OW19356  12.779  13.427   9.753
 5820SOL    HW119357  12.845  13.403   9.688
 5820SOL    HW219358  12.736  13.345   9.775
 5821SOL     OW19359   3.867   9.066   8.549
 5821SOL    HW119360   3.878   9.161   8.551
 5821SOL    HW219361   3.956   9.031   8.557
 5822SOL     OW19362   6.486   2.697   1.877
 5822SOL    HW119363   6.576   2.665   1.870
 5822SOL    HW219364   6.489   2.759   1.950
 5823SOL     OW19365   0.246   8.868  13.874
 5823SOL    HW119366   0.265   8.822  13.956
 5823SOL    HW219367   0.163   8.831  13.844
 5824SOL     OW19368   0.918   9.142  13.720
 5824SOL    HW119369   0.831   9.183  13.724
 5824SOL    HW219370   0.951   9.163  13.632
 5825SOL     OW19371  13.382  12.759  13.118
 5825SOL    HW119372  13.312  12.768  13.183
 5825SOL    HW219373  13.457  12.730  13.169
 5826SOL     OW19374   5.657  10.452   5.627
 5826SOL    HW119375   5.594  10.473   5.696
 5826SOL    HW219376   5.605  10.409   5.559
 5827SOL     OW19377   8.054  11.453   8.568
 5827SOL    HW119378   7.982  11.413   8.521
 5827SOL    HW219379   8.081  11.527   8.513
 5828SOL     OW19380   0.297   6.987   2.388
 5828SOL    HW119381   0.264   7.071   2.420
 5828SOL    HW219382   0.328   6.942   2.466
 5829SOL     OW19383   6.162   8.314   7.093
 5829SOL    HW119384   6.190   8.321   7.002
 5829SOL    HW219385   6.244   8.298   7.141
 5830SOL     OW19386   8.125  12.566   2.185
 5830SOL    HW119387   8.151  12.545   2.095
 5830SOL    HW219388   8.109  12.660   2.184
 5831SOL     OW19389   0.826   3.744   5.632
 5831SOL    HW119390   0.894   3.702   5.686
 5831SOL    HW219391   0.852   3.725   5.542
 5832SOL     OW19392  13.610   6.839  14.845
 5832SOL    HW119393  13.640   6.930  14.844
 5832SOL    HW219394  13.531   6.841   0.019
 5833SOL     OW19395  13.846  11.464  12.844
 5833SOL    HW119396  13.863  11.394  12.907
 5833SOL    HW219397  13.780  11.428  12.784
 5834SOL     OW19398   5.695  11.115   0.533
 5834SOL    HW119399   5.745  11.135   0.454
 5834SOL    HW219400   5.612  11.080   0.501
 5835SOL     OW19401   6.049   1.662  13.390
 5835SOL    HW119402   5.965   1.620  13.409
 5835SOL    HW219403   6.051   1.740  13.445
 5836SOL     OW19404   0.843   0.611   9.555
 5836SOL    HW119405   0.883   0.637   9.637
 5836SOL    HW219406   0.759   0.657   9.553
 5837SOL     OW19407  14.631   9.770  14.737
 5837SOL    HW119408  14.712   9.814  14.762
 5837SOL    HW219409  14.657   9.707  14.670
 5838SOL     OW19410   0.541   8.924  12.975
 5838SOL    HW119411   0.604   8.905  13.045
 5838SOL    HW219412   0.459   8.887  13.006
 5839SOL     OW19413   2.336   9.924   6.319
 5839SOL    HW119414   2.405   9.969   6.271
 5839SOL    HW219415   2.376   9.842   6.347
 5840SOL     OW19416  14.808  10.519   2.711
 5840SOL    HW119417  14.819  10.429   2.682
 5840SOL    HW219418   0.016  10.550   2.728
 5841SOL     OW19419   3.479  10.295  11.798
 5841SOL    HW119420   3.480  10.375  11.746
 5841SOL    HW219421   3.416  10.238  11.754
 5842SOL     OW19422   7.102   2.304   5.208
 5842SOL    HW119423   7.068   2.260   5.285
 5842SOL    HW219424   7.029   2.355   5.174
 5843SOL     OW19425   7.050  10.592   1.599
 5843SOL    HW119426   7.024  10.544   1.677
 5843SOL    HW219427   6.976  10.582   1.539
 5844SOL     OW19428   5.590   2.257   1.310
 5844SOL    HW119429   5.532   2.187   1.339
 5844SOL    HW219430   5.546   2.294   1.233
 5845SOL     OW19431   3.973   1.635   9.814
 5845SOL    HW119432   3.893   1.621   9.764
 5845SOL    HW219433   4.043   1.635   9.747
 5846SOL     OW19434   0.261   5.867   9.288
 5846SOL    HW119435   0.182   5.822   9.315
 5846SOL    HW219436   0.248   5.958   9.317
 5847SOL     OW19437   2.002  12.929   6.735
 5847SOL    HW119438   2.001  12.844   6.691
 5847SOL    HW219439   1.912  12.941   6.765
 5848SOL     OW19440   5.828   0.058   5.989
 5848SOL    HW119441   5.767  14.871   5.957
 5848SOL    HW219442   5.893   0.066   5.919
 5849SOL     OW19443  10.790   4.862   5.047
 5849SOL    HW119444  10.854   4.915   5.094
 5849SOL    HW219445  10.841   4.790   5.009
 5850SOL     OW19446  13.995   4.345  10.827
 5850SOL    HW119447  13.910   4.382  10.850
 5850SOL    HW219448  13.983   4.250  10.832
 5851SOL     OW19449   3.466  11.983   7.432
 5851SOL    HW119450   3.550  12.029   7.429
 5851SOL    HW219451   3.469  11.924   7.356
 5852SOL     OW19452   3.790   8.645   7.395
 5852SOL    HW119453   3.824   8.734   7.390
 5852SOL    HW219454   3.704   8.650   7.353
 5853SOL     OW19455   6.719   2.215  11.665
 5853SOL    HW119456   6.720   2.120  11.680
 5853SOL    HW219457   6.634   2.232  11.624
 5854SOL     OW19458   3.830   1.991   8.056
 5854SOL    HW119459   3.850   1.918   7.998
 5854SOL    HW219460   3.831   2.069   8.000
 5855SOL     OW19461  10.834  12.716   7.865
 5855SOL    HW119462  10.759  12.662   7.838
 5855SOL    HW219463  10.909  12.656   7.862
 5856SOL     OW19464   7.931   7.449   9.748
 5856SOL    HW119465   7.968   7.415   9.667
 5856SOL    HW219466   8.006   7.457   9.807
 5857SOL     OW19467  11.593  12.375   5.274
 5857SOL    HW119468  11.645  12.451   5.246
 5857SOL    HW219469  11.583  12.322   5.195
 5858SOL     OW19470   9.698   4.102   9.240
 5858SOL    HW119471   9.702   4.067   9.151
 5858SOL    HW219472   9.711   4.196   9.230
 5859SOL     OW19473  10.284   8.096   2.484
 5859SOL    HW119474  10.254   8.164   2.424
 5859SOL    HW219475  10.291   8.140   2.568
 5860SOL     OW19476   9.884   3.194  10.920
 5860SOL    HW119477   9.926   3.117  10.883
 5860SOL    HW219478   9.954   3.237  10.970
 5861SOL     OW19479  13.417  14.442   8.519
 5861SOL    HW119480  13.437  14.395   8.438
 5861SOL    HW219481  13.491  14.424   8.576
 5862SOL     OW19482   8.969   5.140  12.819
 5862SOL    HW119483   8.920   5.160  12.898
 5862SOL    HW219484   9.012   5.222  12.795
 5863SOL     OW19485  13.872   0.624   2.955
 5863SOL    HW119486  13.809   0.634   3.027
 5863SOL    HW219487  13.929   0.552   2.982
 5864SOL     OW19488   7.906   7.963  10.548
 5864SOL    HW119489   7.817   7.974  10.517
 5864SOL    HW219490   7.925   8.045  10.595
 5865SOL     OW19491   3.582   2.284   9.227
 5865SOL    HW119492   3.636   2.205   9.216
 5865SOL    HW219493   3.501   2.264   9.180
 5866SOL     OW19494   3.991   8.069  13.544
 5866SOL    HW119495   4.043   8.024  13.611
 5866SOL    HW219496   3.941   8.134  13.593
 5867SOL     OW19497   4.930   5.303  14.299
 5867SOL    HW119498   4.897   5.236  14.239
 5867SOL    HW219499   4.851   5.350  14.327
 5868SOL     OW19500   7.855   9.662   2.709
 5868SOL    HW119501   7.909   9.595   2.667
 5868SOL    HW219502   7.845   9.632   2.799
 5869SOL     OW19503  14.731   6.547  10.045
 5869SOL    HW119504  14.801   6.571   9.984
 5869SOL    HW219505  14.656   6.601  10.019
 5870SOL     OW19506   3.130  14.426  10.477
 5870SOL    HW119507   3.091  14.513  10.471
 5870SOL    HW219508   3.098  14.391  10.560
 5871SOL     OW19509  13.353   0.038   8.682
 5871SOL    HW119510  13.276   0.091   8.703
 5871SOL    HW219511  13.421   0.102   8.659
 5872SOL     OW19512  13.096   6.439   8.483
 5872SOL    HW119513  13.044   6.465   8.407
 5872SOL    HW219514  13.147   6.364   8.453
 5873SOL     OW19515  13.292  11.092   5.557
 5873SOL    HW119516  13.229  11.130   5.618
 5873SOL    HW219517  13.248  11.014   5.523
 5874SOL     OW19518  11.444   8.200  14.741
 5874SOL    HW119519  11.500   8.273  14.718
 5874SOL    HW219520  11.425   8.212  14.834
 5875SOL     OW19521   9.314   2.710  12.849
 5875SOL    HW119522   9.314   2.804  12.865
 5875SOL    HW219523   9.271   2.673  12.926
 5876SOL     OW19524   8.885  12.728  10.399
 5876SOL    HW119525   8.855  12.638  10.406
 5876SOL    HW219526   8.807  12.781  10.417
 5877SOL     OW19527   1.535   9.992   4.788
 5877SOL    HW119528   1.579   9.915   4.823
 5877SOL    HW219529   1.540  10.057   4.858
 5878SOL     OW19530   0.250   9.277   1.085
 5878SOL    HW119531   0.340   9.246   1.088
 5878SOL    HW219532   0.202   9.218   1.143
 5879SOL     OW19533  10.456  10.356  11.815
 5879SOL    HW119534  10.487  10.416  11.882
 5879SOL    HW219535  10.378  10.315  11.853
 5880SOL     OW19536   3.543   4.469   6.749
 5880SOL    HW119537   3.600   4.478   6.673
 5880SOL    HW219538   3.567   4.385   6.788
 5881SOL     OW19539   9.492   6.386   8.619
 5881SOL    HW119540   9.515   6.475   8.592
 5881SOL    HW219541   9.576   6.345   8.639
 5882SOL     OW19542   5.957   9.526  14.193
 5882SOL    HW119543   6.045   9.502  14.165
 5882SOL    HW219544   5.968   9.560  14.282
 5883SOL     OW19545  14.337  12.844  14.369
 5883SOL    HW119546  14.275  12.895  14.316
 5883SOL    HW219547  14.369  12.906  14.435
 5884SOL     OW19548   7.259   9.940   7.043
 5884SOL    HW119549   7.198   9.916   7.112
 5884SOL    HW219550   7.250   9.871   6.977
 5885SOL     OW19551  14.872   5.210   7.939
 5885SOL    HW119552  14.782   5.186   7.960
 5885SOL    HW219553   0.007   5.292   7.986
 5886SOL     OW19554   8.504   3.055  13.365
 5886SOL    HW119555   8.425   3.065  13.312
 5886SOL    HW219556   8.490   2.972  13.412
 5887SOL     OW19557  11.345   6.244   0.876
 5887SOL    HW119558  11.292   6.182   0.826
 5887SOL    HW219559  11.282   6.308   0.909
 5888SOL     OW19560   5.512  13.562   7.406
 5888SOL    HW119561   5.479  13.649   7.386
 5888SOL    HW219562   5.518  13.558   7.501
 5889SOL     OW19563   0.512  14.136   1.468
 5889SOL    HW119564   0.532  14.218   1.424
 5889SOL    HW219565   0.506  14.160   1.561
 5890SOL     OW19566   8.189  12.056   3.622
 5890SOL    HW119567   8.148  12.104   3.550
 5890SOL    HW219568   8.279  12.090   3.625
 5891SOL     OW19569  10.488   0.216  10.201
 5891SOL    HW119570  10.569   0.254  10.233
 5891SOL    HW219571  10.449   0.283  10.146
 5892SOL     OW19572   3.322  12.522   2.057
 5892SOL    HW119573   3.315  12.581   2.132
 5892SOL    HW219574   3.265  12.562   1.990
 5893SOL     OW19575   2.978   7.984  13.744
 5893SOL    HW119576   2.941   7.926  13.677
 5893SOL    HW219577   2.979   7.930  13.823
 5894SOL     OW19578   7.614  14.395   0.596
 5894SOL    HW119579   7.524  14.412   0.566
 5894SOL    HW219580   7.603  14.337   0.671
 5895SOL     OW19581   1.271   2.917   0.938
 5895SOL    HW119582   1.233   3.000   0.908
 5895SOL    HW219583   1.313   2.881   0.859
 5896SOL     OW19584  11.647   1.598   1.274
 5896SOL    HW119585  11.680   1.671   1.326
 5896SOL    HW219586  11.554   1.594   1.294
 5897SOL     OW19587   4.609   0.691  12.591
 5897SOL    HW119588   4.575   0.756  12.530
 5897SOL    HW219589   4.644   0.622  12.534
 5898SOL     OW19590  12.769   2.554   4.347
 5898SOL    HW119591  12.772   2.493   4.421
 5898SOL    HW219592  12.678   2.583   4.344
 5899SOL     OW19593  12.224   5.553  13.940
 5899SOL    HW119594  12.245   5.579  13.851
 5899SOL    HW219595  12.150   5.493  13.932
 5900SOL     OW19596   5.852   8.710  10.204
 5900SOL    HW119597   5.794   8.634  10.197
 5900SOL    HW219598   5.902   8.694  10.284
 5901SOL     OW19599  10.427  10.152   9.619
 5901SOL    HW119600  10.416  10.119   9.708
 5901SOL    HW219601  10.373  10.095   9.565
 5902SOL     OW19602   5.309  12.919   4.643
 5902SOL    HW119603   5.261  13.000   4.629
 5902SOL    HW219604   5.353  12.902   4.559
 5903SOL     OW19605   3.303  13.275   4.202
 5903SOL    HW119606   3.375  13.256   4.261
 5903SOL    HW219607   3.278  13.365   4.221
 5904SOL     OW19608  11.351   8.029   7.002
 5904SOL    HW119609  11.415   7.973   6.959
 5904SOL    HW219610  11.267   7.984   6.988
 5905SOL     OW19611  11.363   2.568   0.463
 5905SOL    HW119612  11.407   2.650   0.440
 5905SOL    HW219613  11.392   2.549   0.552
 5906SOL     OW19614  14.205  12.425   3.126
 5906SOL    HW119615  14.185  12.519   3.133
 5906SOL    HW219616  14.132  12.389   3.075
 5907SOL     OW19617   0.500   9.517   3.614
 5907SOL    HW119618   0.526   9.430   3.585
 5907SOL    HW219619   0.581   9.560   3.639
 5908SOL     OW19620  12.443   3.588   2.838
 5908SOL    HW119621  12.408   3.664   2.884
 5908SOL    HW219622  12.414   3.601   2.747
 5909SOL     OW19623   3.741   5.160   2.639
 5909SOL    HW119624   3.736   5.210   2.558
 5909SOL    HW219625   3.834   5.137   2.647
 5910SOL     OW19626  13.426   0.001  10.226
 5910SOL    HW119627  13.429   0.051  10.144
 5910SOL    HW219628  13.346  14.829  10.220
 5911SOL     OW19629  14.732  10.381  14.050
 5911SOL    HW119630  14.732  10.400  13.957
 5911SOL    HW219631  14.713  10.287  14.055
 5912SOL     OW19632   3.151   9.651   3.160
 5912SOL    HW119633   3.221   9.699   3.206
 5912SOL    HW219634   3.104   9.719   3.111
 5913SOL     OW19635   6.443  11.245   1.088
 5913SOL    HW119636   6.493  11.173   1.050
 5913SOL    HW219637   6.508  11.314   1.102
 5914SOL     OW19638   6.903   9.553   4.458
 5914SOL    HW119639   6.985   9.562   4.507
 5914SOL    HW219640   6.928   9.571   4.367
 5915SOL     OW19641   5.930  10.285   3.471
 5915SOL    HW119642   5.963  10.301   3.383
 5915SOL    HW219643   5.900  10.194   3.469
 5916SOL     OW19644   1.486   3.944   9.317
 5916SOL    HW119645   1.577   3.966   9.336
 5916SOL    HW219646   1.480   3.950   9.222
 5917SOL     OW19647  12.239   5.078   5.159
 5917SOL    HW119648  12.189   4.996   5.153
 5917SOL    HW219649  12.175   5.147   5.144
 5918SOL     OW19650   7.967  10.472   8.793
 5918SOL    HW119651   8.034  10.456   8.726
 5918SOL    HW219652   7.956  10.567   8.794
 5919SOL     OW19653  12.038   8.873  11.774
 5919SOL    HW119654  11.990   8.833  11.846
 5919SOL    HW219655  11.973   8.886  11.705
 5920SOL     OW19656   4.139   4.549  14.726
 5920SOL    HW119657   4.116   4.596  14.645
 5920SOL    HW219658   4.232   4.531  14.718
 5921SOL     OW19659   1.596   4.544   8.956
 5921SOL    HW119660   1.594   4.503   8.870
 5921SOL    HW219661   1.660   4.493   9.006
 5922SOL     OW19662   1.709   4.215   9.707
 5922SOL    HW119663   1.776   4.172   9.653
 5922SOL    HW219664   1.733   4.191   9.797
 5923SOL     OW19665   0.136   9.070   0.679
 5923SOL    HW119666   0.109   8.986   0.715
 5923SOL    HW219667   0.054   9.119   0.666
 5924SOL     OW19668  13.157  11.732   0.974
 5924SOL    HW119669  13.187  11.706   0.886
 5924SOL    HW219670  13.067  11.699   0.979
 5925SOL     OW19671   3.708   1.250   7.103
 5925SOL    HW119672   3.794   1.271   7.139
 5925SOL    HW219673   3.687   1.325   7.047
 5926SOL     OW19674   1.425   4.729   8.510
 5926SOL    HW119675   1.520   4.741   8.505
 5926SOL    HW219676   1.404   4.749   8.602
 5927SOL     OW19677   8.672   8.935   6.216
 5927SOL    HW119678   8.631   8.945   6.302
 5927SOL    HW219679   8.761   8.967   6.228
 5928SOL     OW19680  13.674   9.952  12.442
 5928SOL    HW119681  13.763   9.935  12.413
 5928SOL    HW219682  13.668  10.048  12.446
 5929SOL     OW19683   1.032   9.834   8.070
 5929SOL    HW119684   1.026   9.929   8.077
 5929SOL    HW219685   0.953   9.802   8.114
 5930SOL     OW19686  12.298   4.075  14.406
 5930SOL    HW119687  12.209   4.041  14.402
 5930SOL    HW219688  12.313   4.110  14.318
 5931SOL     OW19689  11.974   7.970  13.595
 5931SOL    HW119690  11.941   8.022  13.521
 5931SOL    HW219691  11.946   8.020  13.672
 5932SOL     OW19692   1.494   8.689  10.199
 5932SOL    HW119693   1.580   8.667  10.235
 5932SOL    HW219694   1.433   8.632  10.246
 5933SOL     OW19695   0.876   3.472   5.500
 5933SOL    HW119696   0.895   3.393   5.450
 5933SOL    HW219697   0.880   3.444   5.592
 5934SOL     OW19698  11.682   5.441   5.492
 5934SOL    HW119699  11.709   5.457   5.402
 5934SOL    HW219700  11.667   5.346   5.496
 5935SOL     OW19701  13.434  13.435   4.849
 5935SOL    HW119702  13.438  13.363   4.787
 5935SOL    HW219703  13.369  13.407   4.914
 5936SOL     OW19704   7.687   3.992  10.433
 5936SOL    HW119705   7.613   3.961  10.486
 5936SOL    HW219706   7.694   3.929  10.362
 5937SOL     OW19707   8.337   8.031   6.889
 5937SOL    HW119708   8.257   7.989   6.920
 5937SOL    HW219709   8.329   8.031   6.793
 5938SOL     OW19710   0.110  12.802   2.246
 5938SOL    HW119711   0.111  12.894   2.217
 5938SOL    HW219712   0.197  12.769   2.223
 5939SOL     OW19713  12.199   2.634  11.180
 5939SOL    HW119714  12.223   2.639  11.272
 5939SOL    HW219715  12.187   2.726  11.153
 5940SOL     OW19716   4.447   7.709  10.809
 5940SOL    HW119717   4.370   7.668  10.848
 5940SOL    HW219718   4.478   7.770  10.877
 5941SOL     OW19719  12.847   7.024   7.147
 5941SOL    HW119720  12.811   6.938   7.126
 5941SOL    HW219721  12.826   7.036   7.240
 5942SOL     OW19722   2.493  14.476   7.851
 5942SOL    HW119723   2.570  14.527   7.825
 5942SOL    HW219724   2.455  14.527   7.923
 5943SOL     OW19725   5.381   6.260  12.716
 5943SOL    HW119726   5.345   6.229  12.799
 5943SOL    HW219727   5.344   6.348  12.705
 5944SOL     OW19728  10.694   4.206   0.704
 5944SOL    HW119729  10.635   4.214   0.779
 5944SOL    HW219730  10.753   4.135   0.727
 5945SOL     OW19731  14.628  12.546  10.815
 5945SOL    HW119732  14.543  12.568  10.776
 5945SOL    HW219733  14.634  12.451  10.807
 5946SOL     OW19734   5.290  11.847   7.539
 5946SOL    HW119735   5.209  11.815   7.501
 5946SOL    HW219736   5.311  11.926   7.488
 5947SOL     OW19737   7.094   4.139   9.302
 5947SOL    HW119738   7.139   4.188   9.232
 5947SOL    HW219739   7.042   4.206   9.347
 5948SOL     OW19740   3.571   2.935   0.513
 5948SOL    HW119741   3.581   2.925   0.608
 5948SOL    HW219742   3.637   3.001   0.489
 5949SOL     OW19743   3.572   6.264  13.049
 5949SOL    HW119744   3.567   6.276  12.954
 5949SOL    HW219745   3.630   6.334  13.079
 5950SOL     OW19746   3.020   1.854   9.522
 5950SOL    HW119747   2.926   1.872   9.525
 5950SOL    HW219748   3.061   1.938   9.539
 5951SOL     OW19749   0.760  13.007   5.015
 5951SOL    HW119750   0.725  13.085   5.057
 5951SOL    HW219751   0.797  12.955   5.087
 5952SOL     OW19752   0.099   3.664   5.391
 5952SOL    HW119753   0.052   3.667   5.474
 5952SOL    HW219754   0.147   3.581   5.393
 5953SOL     OW19755   6.922   1.653   6.070
 5953SOL    HW119756   6.946   1.726   6.013
 5953SOL    HW219757   6.994   1.590   6.059
 5954SOL     OW19758   0.099   0.350   1.809
 5954SOL    HW119759   0.142   0.303   1.737
 5954SOL    HW219760   0.052   0.422   1.765
 5955SOL     OW19761  14.465   9.991  13.636
 5955SOL    HW119762  14.487   9.903  13.606
 5955SOL    HW219763  14.546  10.041  13.627
 5956SOL     OW19764  11.890   2.293   9.356
 5956SOL    HW119765  11.851   2.207   9.343
 5956SOL    HW219766  11.870   2.315   9.447
 5957SOL     OW19767   5.476   1.908   3.353
 5957SOL    HW119768   5.438   1.990   3.385
 5957SOL    HW219769   5.416   1.840   3.384
 5958SOL     OW19770   2.570   4.363   8.053
 5958SOL    HW119771   2.542   4.367   8.145
 5958SOL    HW219772   2.513   4.297   8.014
 5959SOL     OW19773   4.853   7.867   6.751
 5959SOL    HW119774   4.942   7.869   6.717
 5959SOL    HW219775   4.862   7.832   6.840
 5960SOL     OW19776   7.944  14.130   3.743
 5960SOL    HW119777   7.919  14.122   3.651
 5960SOL    HW219778   7.864  14.157   3.788
 5961SOL     OW19779   8.777   6.549   6.330
 5961SOL    HW119780   8.697   6.499   6.341
 5961SOL    HW219781   8.749   6.640   6.330
 5962SOL     OW19782   8.944   3.277  14.505
 5962SOL    HW119783   8.901   3.349  14.551
 5962SOL    HW219784   9.037   3.289  14.522
 5963SOL     OW19785  11.009   5.357   1.399
 5963SOL    HW119786  11.019   5.406   1.316
 5963SOL    HW219787  10.917   5.367   1.421
 5964SOL     OW19788   2.686   6.765   4.537
 5964SOL    HW119789   2.702   6.671   4.551
 5964SOL    HW219790   2.598   6.769   4.501
 5965SOL     OW19791  10.256   0.413   8.476
 5965SOL    HW119792  10.239   0.325   8.445
 5965SOL    HW219793  10.195   0.469   8.428
 5966SOL     OW19794   7.872   2.510   5.069
 5966SOL    HW119795   7.961   2.478   5.057
 5966SOL    HW219796   7.827   2.487   4.988
 5967SOL     OW19797   6.835  12.357  10.498
 5967SOL    HW119798   6.744  12.380  10.517
 5967SOL    HW219799   6.886  12.429  10.536
 5968SOL     OW19800   4.820   1.577   6.560
 5968SOL    HW119801   4.879   1.563   6.486
 5968SOL    HW219802   4.762   1.501   6.560
 5969SOL     OW19803   2.338   9.811   0.518
 5969SOL    HW119804   2.360   9.719   0.503
 5969SOL    HW219805   2.249   9.808   0.553
 5970SOL     OW19806   8.749   7.878   2.917
 5970SOL    HW119807   8.792   7.866   2.832
 5970SOL    HW219808   8.716   7.967   2.914
 5971SOL     OW19809  14.795  12.330  14.180
 5971SOL    HW119810  14.775  12.386  14.255
 5971SOL    HW219811  14.856  12.381  14.127
 5972SOL     OW19812  11.094   3.517   2.872
 5972SOL    HW119813  11.004   3.484   2.872
 5972SOL    HW219814  11.146   3.445   2.905
 5973SOL     OW19815  13.607  11.220   9.538
 5973SOL    HW119816  13.700  11.206   9.554
 5973SOL    HW219817  13.564  11.179   9.613
 5974SOL     OW19818  11.497  12.684   8.129
 5974SOL    HW119819  11.469  12.688   8.220
 5974SOL    HW219820  11.473  12.769   8.092
 5975SOL     OW19821  14.347  14.580   2.204
 5975SOL    HW119822  14.382  14.599   2.291
 5975SOL    HW219823  14.420  14.598   2.144
 5976SOL     OW19824  13.857   2.739   2.750
 5976SOL    HW119825  13.945   2.758   2.782
 5976SOL    HW219826  13.870   2.677   2.678
 5977SOL     OW19827   0.578   1.795  10.466
 5977SOL    HW119828   0.645   1.859  10.493
 5977SOL    HW219829   0.575   1.803  10.370
 5978SOL     OW19830  13.067   4.697   0.174
 5978SOL    HW119831  13.122   4.636   0.224
 5978SOL    HW219832  13.018   4.744   0.241
 5979SOL     OW19833   3.056   3.870   9.592
 5979SOL    HW119834   3.079   3.833   9.507
 5979SOL    HW219835   3.060   3.965   9.579
 5980SOL     OW19836   7.080  11.714   7.461
 5980SOL    HW119837   6.987  11.692   7.464
 5980SOL    HW219838   7.124  11.630   7.445
 5981SOL     OW19839   7.966  13.452  12.439
 5981SOL    HW119840   7.874  13.427  12.436
 5981SOL    HW219841   7.967  13.547  12.426
 5982SOL     OW19842   3.115  10.789   2.122
 5982SOL    HW119843   3.046  10.780   2.057
 5982SOL    HW219844   3.104  10.876   2.158
 5983SOL     OW19845  12.723  11.010  10.248
 5983SOL    HW119846  12.705  10.926  10.205
 5983SOL    HW219847  12.746  11.069  10.176
 5984SOL     OW19848   9.678   9.826   6.611
 5984SOL    HW119849   9.611   9.757   6.614
 5984SOL    HW219850   9.629   9.907   6.606
 5985SOL     OW19851   6.756   0.137  10.611
 5985SOL    HW119852   6.677   0.087  10.592
 5985SOL    HW219853   6.727   0.229  10.613
 5986SOL     OW19854   0.351   9.631  11.427
 5986SOL    HW119855   0.289   9.702  11.441
 5986SOL    HW219856   0.298   9.560  11.390
 5987SOL     OW19857   7.589   7.849  10.438
 5987SOL    HW119858   7.603   7.943  10.449
 5987SOL    HW219859   7.599   7.813  10.526
 5988SOL     OW19860   2.492  10.040  11.493
 5988SOL    HW119861   2.454  10.003  11.572
 5988SOL    HW219862   2.501   9.966  11.433
 5989SOL     OW19863   9.182   8.041   0.101
 5989SOL    HW119864   9.095   8.031   0.140
 5989SOL    HW219865   9.202   8.134   0.111
 5990SOL     OW19866  10.833  14.479   8.947
 5990SOL    HW119867  10.802  14.451   8.860
 5990SOL    HW219868  10.752  14.500   8.995
 5991SOL     OW19869   4.755   4.671  10.254
 5991SOL    HW119870   4.748   4.765  10.237
 5991SOL    HW219871   4.700   4.630  10.188
 5992SOL     OW19872  10.160  14.337   4.795
 5992SOL    HW119873  10.179  14.244   4.784
 5992SOL    HW219874  10.160  14.372   4.706
 5993SOL     OW19875   7.614  12.560   8.581
 5993SOL    HW119876   7.568  12.478   8.596
 5993SOL    HW219877   7.694  12.536   8.536
 5994SOL     OW19878   4.145   3.187   3.320
 5994SOL    HW119879   4.073   3.123   3.323
 5994SOL    HW219880   4.104   3.267   3.289
 5995SOL     OW19881   1.309   3.657   1.101
 5995SOL    HW119882   1.369   3.721   1.061
 5995SOL    HW219883   1.249   3.711   1.153
 5996SOL     OW19884  13.820   8.962  12.176
 5996SOL    HW119885  13.726   8.953  12.159
 5996SOL    HW219886  13.859   8.882  12.141
 5997SOL     OW19887  10.944   1.796   7.845
 5997SOL    HW119888  10.875   1.741   7.807
 5997SOL    HW219889  10.908   1.885   7.843
 5998SOL     OW19890   3.130   7.838   2.116
 5998SOL    HW119891   3.186   7.868   2.043
 5998SOL    HW219892   3.113   7.918   2.167
 5999SOL     OW19893  11.087   1.470  13.540
 5999SOL    HW119894  11.015   1.432  13.488
 5999SOL    HW219895  11.102   1.556  13.502
 6000SOL     OW19896   6.606   8.672  13.781
 6000SOL    HW119897   6.696   8.706  13.780
 6000SOL    HW219898   6.551   8.750  13.780
 6001SOL     OW19899  13.288   0.982   2.435
 6001SOL    HW119900  13.275   0.996   2.341
 6001SOL    HW219901  13.230   0.909   2.457
 6002SOL     OW19902   4.269   5.082  14.445
 6002SOL    HW119903   4.349   5.034  14.424
 6002SOL    HW219904   4.222   5.025  14.506
 6003SOL     OW19905   3.307   1.695   8.852
 6003SOL    HW119906   3.390   1.721   8.813
 6003SOL    HW219907   3.330   1.661   8.939
 6004SOL     OW19908   3.675  13.337  11.941
 6004SOL    HW119909   3.725  13.305  11.865
 6004SOL    HW219910   3.734  13.398  11.984
 6005SOL     OW19911   0.457   9.394  10.268
 6005SOL    HW119912   0.448   9.456  10.339
 6005SOL    HW219913   0.371   9.394  10.225
 6006SOL     OW19914  13.064   4.991  10.995
 6006SOL    HW119915  13.061   4.938  10.915
 6006SOL    HW219916  13.156   5.016  11.004
 6007SOL     OW19917  13.004   5.190   1.995
 6007SOL    HW119918  12.994   5.095   2.004
 6007SOL    HW219919  13.036   5.219   2.080
 6008SOL     OW19920   4.936   7.660   2.166
 6008SOL    HW119921   5.014   7.614   2.196
 6008SOL    HW219922   4.921   7.726   2.233
 6009SOL     OW19923   2.631   8.144   6.905
 6009SOL    HW119924   2.662   8.069   6.854
 6009SOL    HW219925   2.543   8.160   6.873
 6010SOL     OW19926   4.025  14.691   1.260
 6010SOL    HW119927   4.080  14.627   1.305
 6010SOL    HW219928   3.939  14.681   1.302
 6011SOL     OW19929   6.215  10.470  14.383
 6011SOL    HW119930   6.208  10.563  14.363
 6011SOL    HW219931   6.193  10.464  14.476
 6012SOL     OW19932   6.877   7.004   6.159
 6012SOL    HW119933   6.903   6.942   6.091
 6012SOL    HW219934   6.932   7.081   6.144
 6013SOL     OW19935   3.617   3.859   7.127
 6013SOL    HW119936   3.574   3.902   7.054
 6013SOL    HW219937   3.704   3.898   7.130
 6014SOL     OW19938   2.450   7.852   5.141
 6014SOL    HW119939   2.516   7.902   5.092
 6014SOL    HW219940   2.495   7.771   5.165
 6015SOL     OW19941   0.875   7.988   7.910
 6015SOL    HW119942   0.802   7.989   7.972
 6015SOL    HW219943   0.952   7.970   7.963
 6016SOL     OW19944  13.840   2.018   3.586
 6016SOL    HW119945  13.876   1.980   3.666
 6016SOL    HW219946  13.746   2.019   3.601
 6017SOL     OW19947   6.717   3.903   8.323
 6017SOL    HW119948   6.795   3.956   8.306
 6017SOL    HW219949   6.686   3.934   8.408
 6018SOL     OW19950   2.888  11.267  10.296
 6018SOL    HW119951   2.880  11.361  10.310
 6018SOL    HW219952   2.946  11.237  10.366
 6019SOL     OW19953   3.766  11.222  11.026
 6019SOL    HW119954   3.675  11.198  11.011
 6019SOL    HW219955   3.815  11.174  10.959
 6020SOL     OW19956  14.534   7.071  13.162
 6020SOL    HW119957  14.553   6.994  13.108
 6020SOL    HW219958  14.442   7.059  13.187
 6021SOL     OW19959   6.013  10.631   7.211
 6021SOL    HW119960   5.925  10.661   7.235
 6021SOL    HW219961   6.008  10.536   7.216
 6022SOL     OW19962   5.052   3.396  11.994
 6022SOL    HW119963   4.970   3.414  11.948
 6022SOL    HW219964   5.103   3.476  11.983
 6023SOL     OW19965   5.517  12.764  13.471
 6023SOL    HW119966   5.560  12.791  13.390
 6023SOL    HW219967   5.452  12.832  13.488
 6024SOL     OW19968   0.253   3.671   1.552
 6024SOL    HW119969   0.216   3.583   1.550
 6024SOL    HW219970   0.338   3.660   1.594
 6025SOL     OW19971   0.113   0.581   1.300
 6025SOL    HW119972   0.026   0.545   1.318
 6025SOL    HW219973   0.172   0.529   1.354
 6026SOL     OW19974   4.309   9.704   3.476
 6026SOL    HW119975   4.378   9.679   3.538
 6026SOL    HW219976   4.258   9.770   3.524
 6027SOL     OW19977   4.845   7.102   3.687
 6027SOL    HW119978   4.800   7.018   3.701
 6027SOL    HW219979   4.778   7.159   3.649
 6028SOL     OW19980   2.396   4.490   3.475
 6028SOL    HW119981   2.358   4.528   3.395
 6028SOL    HW219982   2.321   4.455   3.523
 6029SOL     OW19983  13.565  14.731   2.054
 6029SOL    HW119984  13.624  14.680   2.110
 6029SOL    HW219985  13.607  14.729   1.968
 6030SOL     OW19986   3.422  13.304  14.650
 6030SOL    HW119987   3.450  13.217  14.677
 6030SOL    HW219988   3.483  13.364  14.692
 6031SOL     OW19989   3.076   7.074   0.844
 6031SOL    HW119990   3.125   7.017   0.903
 6031SOL    HW219991   3.092   7.038   0.756
 6032SOL     OW19992   1.482   9.647   7.059
 6032SOL    HW119993   1.546   9.692   7.005
 6032SOL    HW219994   1.416   9.616   6.997
 6033SOL     OW19995   0.529   3.695   5.729
 6033SOL    HW119996   0.519   3.790   5.729
 6033SOL    HW219997   0.615   3.680   5.689
 6034SOL     OW19998  11.444  14.780   4.420
 6034SOL    HW119999  11.498  14.704   4.399
 6034SOL    HW220000  11.502  14.836   4.472
 6035SOL     OW20001  14.632  10.845   7.887
 6035SOL    HW120002  14.589  10.783   7.828
 6035SOL    HW220003  14.654  10.920   7.831
 6036SOL     OW20004  14.370   9.829   9.156
 6036SOL    HW120005  14.465   9.835   9.144
 6036SOL    HW220006  14.347   9.745   9.118
 6037SOL     OW20007  11.987  13.119  12.323
 6037SOL    HW120008  12.034  13.122  12.406
 6037SOL    HW220009  11.917  13.184  12.332
 6038SOL     OW20010   3.553   7.708   6.658
 6038SOL    HW120011   3.548   7.640   6.591
 6038SOL    HW220012   3.514   7.786   6.618
 6039SOL     OW20013  11.287   4.295   0.785
 6039SOL    HW120014  11.207   4.276   0.736
 6039SOL    HW220015  11.308   4.214   0.831
 6040SOL     OW20016   4.603   1.005   3.342
 6040SOL    HW120017   4.510   1.022   3.353
 6040SOL    HW220018   4.640   1.022   3.429
 6041SOL     OW20019  10.012   5.624  11.001
 6041SOL    HW120020   9.944   5.666  10.949
 6041SOL    HW220021  10.088   5.621  10.943
 6042SOL     OW20022   3.772   2.840   8.312
 6042SOL    HW120023   3.715   2.866   8.240
 6042SOL    HW220024   3.767   2.745   8.314
 6043SOL     OW20025   8.967   4.031  12.061
 6043SOL    HW120026   9.053   4.045  12.102
 6043SOL    HW220027   8.916   3.984  12.127
 6044SOL     OW20028   3.254   4.820   6.290
 6044SOL    HW120029   3.310   4.753   6.251
 6044SOL    HW220030   3.166   4.796   6.262
 6045SOL     OW20031   4.056  10.921   6.040
 6045SOL    HW120032   4.011  10.865   6.103
 6045SOL    HW220033   4.056  10.870   5.959
 6046SOL     OW20034  12.213   2.161  10.007
 6046SOL    HW120035  12.171   2.079  10.033
 6046SOL    HW220036  12.209   2.161   9.912
 6047SOL     OW20037  11.749  10.843   9.323
 6047SOL    HW120038  11.727  10.933   9.347
 6047SOL    HW220039  11.792  10.851   9.238
 6048SOL     OW20040   6.582   6.809  10.188
 6048SOL    HW120041   6.620   6.895  10.202
 6048SOL    HW220042   6.512   6.823  10.124
 6049SOL     OW20043  10.836  10.812   8.787
 6049SOL    HW120044  10.917  10.797   8.836
 6049SOL    HW220045  10.772  10.837   8.853
 6050SOL     OW20046   6.593   5.726   6.774
 6050SOL    HW120047   6.599   5.800   6.835
 6050SOL    HW220048   6.640   5.655   6.817
 6051SOL     OW20049   1.190   4.451  13.887
 6051SOL    HW120050   1.262   4.390  13.903
 6051SOL    HW220051   1.111   4.397  13.890
 6052SOL     OW20052  10.600   2.957   3.880
 6052SOL    HW120053  10.541   3.021   3.839
 6052SOL    HW220054  10.680   3.005   3.897
 6053SOL     OW20055  11.640  14.106   0.605
 6053SOL    HW120056  11.686  14.184   0.573
 6053SOL    HW220057  11.634  14.119   0.700
 6054SOL     OW20058   1.732   9.354  12.556
 6054SOL    HW120059   1.724   9.449  12.561
 6054SOL    HW220060   1.747   9.326  12.646
 6055SOL     OW20061   2.568   7.606   5.135
 6055SOL    HW120062   2.603   7.572   5.053
 6055SOL    HW220063   2.641   7.603   5.196
 6056SOL     OW20064   1.576  12.866   3.996
 6056SOL    HW120065   1.495  12.877   4.046
 6056SOL    HW220066   1.579  12.773   3.976
 6057SOL     OW20067  12.850   3.906   9.170
 6057SOL    HW120068  12.939   3.940   9.163
 6057SOL    HW220069  12.796   3.982   9.191
 6058SOL     OW20070  13.610   5.029   6.360
 6058SOL    HW120071  13.603   4.935   6.370
 6058SOL    HW220072  13.693   5.051   6.402
 6059SOL     OW20073   6.601  11.444   6.886
 6059SOL    HW120074   6.653  11.380   6.934
 6059SOL    HW220075   6.571  11.397   6.808
 6060SOL     OW20076   5.906   5.172  14.835
 6060SOL    HW120077   5.955   5.235   0.007
 6060SOL    HW220078   5.889   5.217  14.752
 6061SOL     OW20079   6.968  13.770   1.676
 6061SOL    HW120080   6.949  13.850   1.627
 6061SOL    HW220081   7.057  13.782   1.708
 6062SOL     OW20082   5.922  12.714   1.517
 6062SOL    HW120083   5.844  12.768   1.509
 6062SOL    HW220084   5.901  12.634   1.468
 6063SOL     OW20085  13.808  11.335   3.141
 6063SOL    HW120086  13.782  11.422   3.171
 6063SOL    HW220087  13.728  11.298   3.104
 6064SOL     OW20088   9.013   4.792   8.327
 6064SOL    HW120089   8.974   4.878   8.340
 6064SOL    HW220090   9.107   4.806   8.344
 6065SOL     OW20091   1.599  11.070   2.260
 6065SOL    HW120092   1.657  11.033   2.193
 6065SOL    HW220093   1.530  11.114   2.210
 6066SOL     OW20094   8.242  12.749  11.230
 6066SOL    HW120095   8.239  12.720  11.139
 6066SOL    HW220096   8.207  12.838  11.228
 6067SOL     OW20097   1.086   9.247   7.402
 6067SOL    HW120098   1.030   9.286   7.334
 6067SOL    HW220099   1.118   9.166   7.362
 6068SOL     OW20100  13.907   9.723   2.128
 6068SOL    HW120101  13.952   9.640   2.111
 6068SOL    HW220102  13.938   9.749   2.214
 6069SOL     OW20103   0.408   7.577   3.100
 6069SOL    HW120104   0.437   7.641   3.035
 6069SOL    HW220105   0.424   7.620   3.184
 6070SOL     OW20106   8.129   6.727   8.400
 6070SOL    HW120107   8.193   6.659   8.426
 6070SOL    HW220108   8.137   6.794   8.468
 6071SOL     OW20109   3.014   5.936   4.620
 6071SOL    HW120110   3.077   5.865   4.607
 6071SOL    HW220111   2.973   5.918   4.704
 6072SOL     OW20112  14.731  10.627  13.420
 6072SOL    HW120113  14.745  10.708  13.372
 6072SOL    HW220114  14.807  10.620  13.479
 6073SOL     OW20115   7.043  12.716   5.050
 6073SOL    HW120116   7.109  12.783   5.033
 6073SOL    HW220117   6.989  12.715   4.971
 6074SOL     OW20118  13.488   5.568   5.940
 6074SOL    HW120119  13.446   5.653   5.925
 6074SOL    HW220120  13.518   5.571   6.031
 6075SOL     OW20121  13.144  14.420  12.548
 6075SOL    HW120122  13.227  14.420  12.595
 6075SOL    HW220123  13.098  14.342  12.580
 6076SOL     OW20124   8.486   5.969   1.183
 6076SOL    HW120125   8.450   6.036   1.242
 6076SOL    HW220126   8.577   5.959   1.211
 6077SOL     OW20127  14.726   4.352   8.451
 6077SOL    HW120128  14.738   4.389   8.538
 6077SOL    HW220129  14.662   4.410   8.408
 6078SOL     OW20130  11.053   1.877   6.419
 6078SOL    HW120131  11.099   1.803   6.379
 6078SOL    HW220132  11.029   1.846   6.506
 6079SOL     OW20133   4.481   1.470  12.758
 6079SOL    HW120134   4.398   1.448  12.715
 6079SOL    HW220135   4.543   1.406  12.724
 6080SOL     OW20136   0.040   7.538   9.235
 6080SOL    HW120137   0.003   7.492   9.310
 6080SOL    HW220138  14.849   7.542   9.171
 6081SOL     OW20139   1.057  14.136   5.509
 6081SOL    HW120140   1.130  14.181   5.467
 6081SOL    HW220141   1.042  14.058   5.454
 6082SOL     OW20142   2.703   1.371   5.870
 6082SOL    HW120143   2.770   1.425   5.829
 6082SOL    HW220144   2.623   1.388   5.820
 6083SOL     OW20145   9.366   6.344   5.151
 6083SOL    HW120146   9.277   6.375   5.133
 6083SOL    HW220147   9.396   6.396   5.225
 6084SOL     OW20148   3.270  11.486   2.394
 6084SOL    HW120149   3.292  11.579   2.404
 6084SOL    HW220150   3.291  11.466   2.303
 6085SOL     OW20151   9.065   0.308  10.814
 6085SOL    HW120152   8.983   0.331  10.771
 6085SOL    HW220153   9.106   0.244  10.756
 6086SOL     OW20154   7.621   8.029  12.846
 6086SOL    HW120155   7.527   8.046  12.838
 6086SOL    HW220156   7.626   7.937  12.873
 6087SOL     OW20157   0.805   2.199  12.325
 6087SOL    HW120158   0.758   2.195  12.408
 6087SOL    HW220159   0.876   2.262  12.341
 6088SOL     OW20160   2.144   5.574   4.589
 6088SOL    HW120161   2.087   5.620   4.526
 6088SOL    HW220162   2.184   5.645   4.640
 6089SOL     OW20163   8.852   7.997   2.045
 6089SOL    HW120164   8.859   8.084   2.006
 6089SOL    HW220165   8.759   7.975   2.038
 6090SOL     OW20166   9.089   2.806   2.218
 6090SOL    HW120167   9.104   2.897   2.245
 6090SOL    HW220168   9.141   2.754   2.279
 6091SOL     OW20169   3.890   0.158   5.086
 6091SOL    HW120170   3.928   0.233   5.133
 6091SOL    HW220171   3.910   0.175   4.994
 6092SOL     OW20172   0.307  10.943   5.144
 6092SOL    HW120173   0.392  10.951   5.101
 6092SOL    HW220174   0.321  10.879   5.214
 6093SOL     OW20175   1.536   3.798  13.079
 6093SOL    HW120176   1.536   3.792  13.174
 6093SOL    HW220177   1.451   3.834  13.057
 6094SOL     OW20178   0.390   3.473   0.589
 6094SOL    HW120179   0.426   3.512   0.511
 6094SOL    HW220180   0.409   3.535   0.659
 6095SOL     OW20181   8.152  12.990  10.435
 6095SOL    HW120182   8.102  13.025  10.509
 6095SOL    HW220183   8.117  13.034  10.359
 6096SOL     OW20184   3.958   2.641   8.595
 6096SOL    HW120185   3.874   2.676   8.568
 6096SOL    HW220186   3.947   2.621   8.689
 6097SOL     OW20187  12.709  12.673  14.193
 6097SOL    HW120188  12.669  12.647  14.110
 6097SOL    HW220189  12.759  12.597  14.221
 6098SOL     OW20190   4.632  14.194   3.368
 6098SOL    HW120191   4.539  14.181   3.349
 6098SOL    HW220192   4.652  14.279   3.328
 6099SOL     OW20193   0.988   6.692   8.258
 6099SOL    HW120194   1.005   6.771   8.207
 6099SOL    HW220195   1.074   6.650   8.267
 6100SOL     OW20196   7.189   6.489  12.120
 6100SOL    HW120197   7.141   6.440  12.054
 6100SOL    HW220198   7.124   6.549  12.157
 6101SOL     OW20199  12.968   0.523   9.976
 6101SOL    HW120200  12.953   0.512   9.882
 6101SOL    HW220201  13.057   0.558   9.982
 6102SOL     OW20202  13.782  12.252  11.210
 6102SOL    HW120203  13.854  12.312  11.225
 6102SOL    HW220204  13.732  12.290  11.138
 6103SOL     OW20205   3.870  13.899   0.957
 6103SOL    HW120206   3.808  13.845   1.006
 6103SOL    HW220207   3.827  13.913   0.873
 6104SOL     OW20208   3.035   0.910   3.622
 6104SOL    HW120209   3.061   0.819   3.635
 6104SOL    HW220210   2.990   0.909   3.537
 6105SOL     OW20211   9.032  11.891   5.143
 6105SOL    HW120212   9.034  11.796   5.135
 6105SOL    HW220213   9.023  11.923   5.053
 6106SOL     OW20214   7.534  13.367  10.900
 6106SOL    HW120215   7.452  13.402  10.866
 6106SOL    HW220216   7.568  13.313  10.829
 6107SOL     OW20217  12.160  13.535   3.037
 6107SOL    HW120218  12.122  13.510   3.122
 6107SOL    HW220219  12.210  13.459   3.010
 6108SOL     OW20220  11.254  10.319  10.269
 6108SOL    HW120221  11.308  10.389  10.232
 6108SOL    HW220222  11.165  10.342  10.244
 6109SOL     OW20223   3.659  10.913   6.834
 6109SOL    HW120224   3.746  10.935   6.800
 6109SOL    HW220225   3.674  10.833   6.884
 6110SOL     OW20226   4.630   4.833   2.672
 6110SOL    HW120227   4.649   4.741   2.654
 6110SOL    HW220228   4.649   4.844   2.765
 6111SOL     OW20229   6.178   8.600   6.854
 6111SOL    HW120230   6.220   8.517   6.833
 6111SOL    HW220231   6.231   8.636   6.925
 6112SOL     OW20232  10.624  12.376  10.253
 6112SOL    HW120233  10.555  12.355  10.189
 6112SOL    HW220234  10.584  12.357  10.338
 6113SOL     OW20235  11.829  12.894   5.637
 6113SOL    HW120236  11.747  12.850   5.616
 6113SOL    HW220237  11.805  12.986   5.648
 6114SOL     OW20238   9.533  14.345  10.425
 6114SOL    HW120239   9.608  14.404  10.411
 6114SOL    HW220240   9.535  14.327  10.519
 6115SOL     OW20241   9.533  11.593   3.648
 6115SOL    HW120242   9.625  11.578   3.667
 6115SOL    HW220243   9.512  11.530   3.579
 6116SOL     OW20244   5.769   2.472  12.883
 6116SOL    HW120245   5.838   2.537  12.895
 6116SOL    HW220246   5.714   2.507  12.813
 6117SOL     OW20247   7.841   4.888   2.934
 6117SOL    HW120248   7.769   4.888   2.997
 6117SOL    HW220249   7.920   4.878   2.987
 6118SOL     OW20250   5.127   9.394   0.153
 6118SOL    HW120251   5.222   9.379   0.155
 6118SOL    HW220252   5.114   9.471   0.209
 6119SOL     OW20253   8.953   9.071  10.759
 6119SOL    HW120254   8.888   9.089  10.827
 6119SOL    HW220255   8.920   8.993  10.713
 6120SOL     OW20256  13.856   6.928  12.663
 6120SOL    HW120257  13.848   6.921  12.568
 6120SOL    HW220258  13.799   7.002  12.686
 6121SOL     OW20259   2.186  10.437  12.266
 6121SOL    HW120260   2.156  10.355  12.305
 6121SOL    HW220261   2.109  10.493  12.264
 6122SOL     OW20262   1.093   4.554   0.781
 6122SOL    HW120263   1.153   4.590   0.846
 6122SOL    HW220264   1.021   4.517   0.833
 6123SOL     OW20265   3.523   0.562  13.597
 6123SOL    HW120266   3.511   0.636  13.655
 6123SOL    HW220267   3.471   0.583  13.519
 6124SOL     OW20268  12.328   7.225   0.429
 6124SOL    HW120269  12.377   7.256   0.352
 6124SOL    HW220270  12.287   7.304   0.464
 6125SOL     OW20271   0.380   5.823  10.917
 6125SOL    HW120272   0.472   5.827  10.890
 6125SOL    HW220273   0.331   5.831  10.835
 6126SOL     OW20274   0.276  10.981  14.192
 6126SOL    HW120275   0.329  10.911  14.229
 6126SOL    HW220276   0.314  11.061  14.229
 6127SOL     OW20277   3.889   5.796  12.405
 6127SOL    HW120278   3.915   5.843  12.325
 6127SOL    HW220279   3.925   5.849  12.476
 6128SOL     OW20280   8.933   9.993  13.418
 6128SOL    HW120281   8.912   9.902  13.395
 6128SOL    HW220282   8.987   9.985  13.497
 6129SOL     OW20283  13.280   5.930   2.009
 6129SOL    HW120284  13.315   5.846   1.980
 6129SOL    HW220285  13.187   5.913   2.024
 6130SOL     OW20286  10.566   3.236   3.774
 6130SOL    HW120287  10.610   3.189   3.703
 6130SOL    HW220288  10.620   3.314   3.788
 6131SOL     OW20289  12.249   7.870   1.249
 6131SOL    HW120290  12.251   7.842   1.157
 6131SOL    HW220291  12.329   7.835   1.287
 6132SOL     OW20292   6.867   3.383   6.014
 6132SOL    HW120293   6.773   3.385   6.033
 6132SOL    HW220294   6.897   3.302   6.055
 6133SOL     OW20295   6.728   8.226  12.440
 6133SOL    HW120296   6.652   8.180  12.475
 6133SOL    HW220297   6.793   8.157  12.425
 6134SOL     OW20298   3.575   0.308  13.537
 6134SOL    HW120299   3.624   0.308  13.455
 6134SOL    HW220300   3.556   0.400  13.554
 6135SOL     OW20301   7.068   1.093  10.626
 6135SOL    HW120302   6.975   1.113  10.634
 6135SOL    HW220303   7.089   1.111  10.534
 6136SOL     OW20304  14.692  11.809   0.544
 6136SOL    HW120305  14.672  11.902   0.549
 6136SOL    HW220306  14.619  11.771   0.495
 6137SOL     OW20307  14.260  13.103   5.594
 6137SOL    HW120308  14.180  13.152   5.614
 6137SOL    HW220309  14.330  13.169   5.599
 6138SOL     OW20310   0.940  11.560   2.378
 6138SOL    HW120311   1.010  11.599   2.430
 6138SOL    HW220312   0.936  11.469   2.406
 6139SOL     OW20313  12.161   2.765   1.050
 6139SOL    HW120314  12.236   2.766   0.991
 6139SOL    HW220315  12.090   2.729   0.997
 6140SOL     OW20316   7.602   0.910   6.156
 6140SOL    HW120317   7.694   0.927   6.178
 6140SOL    HW220318   7.606   0.838   6.093
 6141SOL     OW20319   3.003   7.268   0.109
 6141SOL    HW120320   3.016   7.232   0.021
 6141SOL    HW220321   2.944   7.206   0.152
 6142SOL     OW20322   0.832   7.591   1.043
 6142SOL    HW120323   0.746   7.599   1.002
 6142SOL    HW220324   0.819   7.627   1.131
 6143SOL     OW20325   7.880   4.154   1.454
 6143SOL    HW120326   7.873   4.148   1.549
 6143SOL    HW220327   7.929   4.234   1.438
 6144SOL     OW20328   3.030   1.786   3.931
 6144SOL    HW120329   3.031   1.800   3.836
 6144SOL    HW220330   2.964   1.718   3.944
 6145SOL     OW20331  13.435   9.331   1.583
 6145SOL    HW120332  13.499   9.263   1.561
 6145SOL    HW220333  13.412   9.370   1.498
 6146SOL     OW20334  12.840   3.264   2.727
 6146SOL    HW120335  12.881   3.206   2.792
 6146SOL    HW220336  12.790   3.327   2.780
 6147SOL     OW20337   5.772   9.033  14.505
 6147SOL    HW120338   5.825   9.025  14.585
 6147SOL    HW220339   5.836   9.039  14.434
 6148SOL     OW20340   9.666   7.170   7.638
 6148SOL    HW120341   9.757   7.189   7.659
 6148SOL    HW220342   9.639   7.242   7.581
 6149SOL     OW20343   2.273   1.907   1.355
 6149SOL    HW120344   2.264   1.843   1.426
 6149SOL    HW220345   2.184   1.936   1.337
 6150SOL     OW20346  11.174   3.120   3.886
 6150SOL    HW120347  11.175   3.215   3.871
 6150SOL    HW220348  11.205   3.082   3.804
 6151SOL     OW20349  14.573  10.263   0.402
 6151SOL    HW120350  14.541  10.173   0.404
 6151SOL    HW220351  14.494  10.316   0.392
 6152SOL     OW20352   7.233   0.789   5.684
 6152SOL    HW120353   7.328   0.797   5.692
 6152SOL    HW220354   7.220   0.716   5.623
 6153SOL     OW20355   8.479   7.620   6.181
 6153SOL    HW120356   8.575   7.612   6.178
 6153SOL    HW220357   8.452   7.620   6.090
 6154SOL     OW20358   6.350  10.272  10.927
 6154SOL    HW120359   6.274  10.216  10.940
 6154SOL    HW220360   6.314  10.360  10.917
 6155SOL     OW20361   5.576   3.826   2.165
 6155SOL    HW120362   5.517   3.892   2.202
 6155SOL    HW220363   5.600   3.771   2.239
 6156SOL     OW20364  13.709   9.361   2.163
 6156SOL    HW120365  13.675   9.287   2.212
 6156SOL    HW220366  13.637   9.424   2.162
 6157SOL     OW20367  10.171   9.275   4.429
 6157SOL    HW120368  10.206   9.200   4.477
 6157SOL    HW220369  10.197   9.351   4.481
 6158SOL     OW20370  10.514   7.917   9.336
 6158SOL    HW120371  10.542   8.009   9.340
 6158SOL    HW220372  10.500   7.901   9.243
 6159SOL     OW20373   1.029   1.360   4.078
 6159SOL    HW120374   1.115   1.336   4.044
 6159SOL    HW220375   1.045   1.442   4.125
 6160SOL     OW20376   2.934   0.212   1.169
 6160SOL    HW120377   2.940   0.232   1.075
 6160SOL    HW220378   2.952   0.118   1.175
 6161SOL     OW20379   3.311   3.363   7.980
 6161SOL    HW120380   3.337   3.375   8.072
 6161SOL    HW220381   3.240   3.300   7.983
 6162SOL     OW20382   8.177  13.888   8.193
 6162SOL    HW120383   8.211  13.968   8.153
 6162SOL    HW220384   8.092  13.874   8.151
 6163SOL     OW20385   6.650   5.306   1.838
 6163SOL    HW120386   6.567   5.262   1.822
 6163SOL    HW220387   6.650   5.381   1.777
 6164SOL     OW20388  13.283   9.966   3.599
 6164SOL    HW120389  13.289   9.916   3.680
 6164SOL    HW220390  13.223  10.038   3.619
 6165SOL     OW20391  10.532   7.803   5.585
 6165SOL    HW120392  10.470   7.771   5.519
 6165SOL    HW220393  10.610   7.826   5.535
 6166SOL     OW20394   9.466   0.195  12.585
 6166SOL    HW120395   9.526   0.142  12.638
 6166SOL    HW220396   9.379   0.162  12.608
 6167SOL     OW20397  13.601  11.544   3.033
 6167SOL    HW120398  13.684  11.568   3.075
 6167SOL    HW220399  13.534  11.588   3.087
 6168SOL     OW20400  11.221  14.759   1.025
 6168SOL    HW120401  11.180  14.794   1.104
 6168SOL    HW220402  11.302  14.719   1.056
 6169SOL     OW20403   8.115   3.344   4.904
 6169SOL    HW120404   8.180   3.276   4.885
 6169SOL    HW220405   8.155   3.396   4.974
 6170SOL     OW20406   6.686  11.144  13.266
 6170SOL    HW120407   6.716  11.224  13.310
 6170SOL    HW220408   6.757  11.081  13.278
 6171SOL     OW20409   7.962  11.800   2.398
 6171SOL    HW120410   7.925  11.713   2.412
 6171SOL    HW220411   8.054  11.784   2.375
 6172SOL     OW20412   9.775   0.939   0.866
 6172SOL    HW120413   9.707   1.002   0.889
 6172SOL    HW220414   9.776   0.877   0.939
 6173SOL     OW20415   5.963   9.485  10.956
 6173SOL    HW120416   6.057   9.492  10.975
 6173SOL    HW220417   5.951   9.539  10.878
 6174SOL     OW20418   0.406  11.469  11.124
 6174SOL    HW120419   0.344  11.541  11.122
 6174SOL    HW220420   0.453  11.475  11.040
 6175SOL     OW20421   0.063  14.503  13.408
 6175SOL    HW120422   0.146  14.551  13.404
 6175SOL    HW220423  14.878  14.565  13.377
 6176SOL     OW20424   2.063   2.363   3.591
 6176SOL    HW120425   2.004   2.411   3.533
 6176SOL    HW220426   2.101   2.295   3.535
 6177SOL     OW20427   4.132   4.333   1.197
 6177SOL    HW120428   4.158   4.307   1.108
 6177SOL    HW220429   4.091   4.419   1.186
 6178SOL     OW20430   5.681   6.213  11.077
 6178SOL    HW120431   5.625   6.287  11.099
 6178SOL    HW220432   5.738   6.203  11.153
 6179SOL     OW20433   4.798  11.854   2.500
 6179SOL    HW120434   4.768  11.788   2.438
 6179SOL    HW220435   4.892  11.861   2.485
 6180SOL     OW20436   6.610   1.257   5.880
 6180SOL    HW120437   6.620   1.178   5.933
 6180SOL    HW220438   6.695   1.300   5.884
 6181SOL     OW20439   8.770   0.895  13.381
 6181SOL    HW120440   8.755   0.805  13.409
 6181SOL    HW220441   8.742   0.896  13.290
 6182SOL     OW20442   6.094   6.727   0.583
 6182SOL    HW120443   6.060   6.641   0.607
 6182SOL    HW220444   6.187   6.713   0.565
 6183SOL     OW20445   3.794   7.648   0.473
 6183SOL    HW120446   3.744   7.605   0.543
 6183SOL    HW220447   3.852   7.708   0.519
 6184SOL     OW20448   8.966  12.390   0.818
 6184SOL    HW120449   8.924  12.467   0.779
 6184SOL    HW220450   8.913  12.371   0.896
 6185SOL     OW20451  11.989   6.153   3.513
 6185SOL    HW120452  11.998   6.249   3.505
 6185SOL    HW220453  12.073   6.124   3.548
 6186SOL     OW20454   9.966  10.777  11.757
 6186SOL    HW120455   9.976  10.751  11.666
 6186SOL    HW220456  10.055  10.790  11.789
 6187SOL     OW20457   4.741  13.399   5.261
 6187SOL    HW120458   4.834  13.403   5.282
 6187SOL    HW220459   4.723  13.305   5.250
 6188SOL     OW20460   0.818   5.650   5.973
 6188SOL    HW120461   0.912   5.643   5.990
 6188SOL    HW220462   0.811   5.662   5.878
 6189SOL     OW20463   2.704   4.331   9.225
 6189SOL    HW120464   2.643   4.279   9.277
 6189SOL    HW220465   2.777   4.350   9.284
 6190SOL     OW20466  14.177   5.716  11.538
 6190SOL    HW120467  14.188   5.621  11.542
 6190SOL    HW220468  14.083   5.729  11.531
 6191SOL     OW20469   6.312   8.236   7.625
 6191SOL    HW120470   6.295   8.330   7.634
 6191SOL    HW220471   6.248   8.206   7.560
 6192SOL     OW20472   0.807   6.683   8.911
 6192SOL    HW120473   0.772   6.719   8.993
 6192SOL    HW220474   0.811   6.758   8.852
 6193SOL     OW20475   0.395   7.385   1.723
 6193SOL    HW120476   0.478   7.346   1.696
 6193SOL    HW220477   0.414   7.478   1.734
 6194SOL     OW20478   8.621   2.484   1.016
 6194SOL    HW120479   8.553   2.552   1.012
 6194SOL    HW220480   8.583   2.408   0.974
 6195SOL     OW20481  12.773  14.513  12.022
 6195SOL    HW120482  12.714  14.575  11.978
 6195SOL    HW220483  12.796  14.556  12.105
 6196SOL     OW20484   0.130   5.387   6.331
 6196SOL    HW120485   0.073   5.428   6.395
 6196SOL    HW220486   0.071   5.344   6.270
 6197SOL     OW20487  13.309   3.916   6.357
 6197SOL    HW120488  13.386   3.952   6.312
 6197SOL    HW220489  13.250   3.891   6.286
 6198SOL     OW20490   2.512   1.871   3.541
 6198SOL    HW120491   2.534   1.780   3.518
 6198SOL    HW220492   2.443   1.863   3.607
 6199SOL     OW20493   5.776   5.403   9.348
 6199SOL    HW120494   5.756   5.489   9.311
 6199SOL    HW220495   5.798   5.422   9.440
 6200SOL     OW20496  13.837  13.684   7.434
 6200SOL    HW120497  13.878  13.714   7.353
 6200SOL    HW220498  13.810  13.594   7.416
 6201SOL     OW20499   5.921   8.600   4.359
 6201SOL    HW120500   5.872   8.587   4.279
 6201SOL    HW220501   5.989   8.532   4.358
 6202SOL     OW20502  11.585   3.118   0.422
 6202SOL    HW120503  11.519   3.137   0.488
 6202SOL    HW220504  11.653   3.184   0.437
 6203SOL     OW20505  10.078  11.683  14.656
 6203SOL    HW120506  10.131  11.619  14.703
 6203SOL    HW220507  10.116  11.768  14.679
 6204SOL     OW20508   4.420  13.754   6.473
 6204SOL    HW120509   4.461  13.803   6.402
 6204SOL    HW220510   4.337  13.724   6.437
 6205SOL     OW20511   6.268   9.211   3.857
 6205SOL    HW120512   6.322   9.148   3.809
 6205SOL    HW220513   6.178   9.182   3.842
 6206SOL     OW20514  10.288   3.608   9.188
 6206SOL    HW120515  10.358   3.643   9.243
 6206SOL    HW220516  10.326   3.602   9.101
 6207SOL     OW20517  12.408   7.968  12.730
 6207SOL    HW120518  12.329   7.980  12.677
 6207SOL    HW220519  12.475   8.019  12.685
 6208SOL     OW20520  13.324  13.221   9.089
 6208SOL    HW120521  13.319  13.308   9.128
 6208SOL    HW220522  13.368  13.168   9.155
 6209SOL     OW20523   9.617  10.539   8.098
 6209SOL    HW120524   9.530  10.527   8.135
 6209SOL    HW220525   9.649  10.621   8.136
 6210SOL     OW20526   7.232   6.618  12.653
 6210SOL    HW120527   7.156   6.676  12.649
 6210SOL    HW220528   7.264   6.615  12.563
 6211SOL     OW20529   4.899  11.806  12.551
 6211SOL    HW120530   4.949  11.800  12.632
 6211SOL    HW220531   4.815  11.763  12.571
 6212SOL     OW20532  13.203   4.153  14.681
 6212SOL    HW120533  13.224   4.120  14.593
 6212SOL    HW220534  13.158   4.237  14.665
 6213SOL     OW20535   3.657   3.860  11.678
 6213SOL    HW120536   3.704   3.893  11.754
 6213SOL    HW220537   3.662   3.931  11.614
 6214SOL     OW20538   4.130   6.423   6.848
 6214SOL    HW120539   4.142   6.330   6.830
 6214SOL    HW220540   4.071   6.454   6.780
 6215SOL     OW20541   2.159   2.309  11.227
 6215SOL    HW120542   2.149   2.217  11.202
 6215SOL    HW220543   2.083   2.353  11.188
 6216SOL     OW20544  11.935   6.903   8.713
 6216SOL    HW120545  11.872   6.844   8.754
 6216SOL    HW220546  11.926   6.888   8.619
 6217SOL     OW20547  13.372  14.773   9.154
 6217SOL    HW120548  13.338  14.851   9.198
 6217SOL    HW220549  13.296  14.717   9.141
 6218SOL     OW20550  11.535   6.367   8.304
 6218SOL    HW120551  11.488   6.450   8.309
 6218SOL    HW220552  11.482   6.313   8.245
 6219SOL     OW20553  12.074   8.832  13.179
 6219SOL    HW120554  12.143   8.898  13.187
 6219SOL    HW220555  12.014   8.851  13.251
 6220SOL     OW20556   3.208  13.587  13.235
 6220SOL    HW120557   3.252  13.535  13.169
 6220SOL    HW220558   3.216  13.535  13.315
 6221SOL     OW20559   3.695   9.196   5.364
 6221SOL    HW120560   3.787   9.206   5.385
 6221SOL    HW220561   3.649   9.221   5.445
 6222SOL     OW20562   5.705   7.853   3.260
 6222SOL    HW120563   5.675   7.768   3.229
 6222SOL    HW220564   5.628   7.910   3.253
 6223SOL     OW20565  13.652   9.411  10.483
 6223SOL    HW120566  13.575   9.356  10.497
 6223SOL    HW220567  13.727   9.356  10.506
 6224SOL     OW20568  13.997   0.307   5.573
 6224SOL    HW120569  13.906   0.334   5.584
 6224SOL    HW220570  14.031   0.301   5.663
 6225SOL     OW20571  12.413   4.954  12.290
 6225SOL    HW120572  12.484   4.941  12.353
 6225SOL    HW220573  12.339   4.905  12.326
 6226SOL     OW20574   3.223   2.548   9.308
 6226SOL    HW120575   3.129   2.534   9.316
 6226SOL    HW220576   3.232   2.613   9.239
 6227SOL     OW20577  13.139   1.662   5.291
 6227SOL    HW120578  13.204   1.648   5.360
 6227SOL    HW220579  13.056   1.672   5.337
 6228SOL     OW20580   1.550  11.248   8.815
 6228SOL    HW120581   1.634  11.237   8.861
 6228SOL    HW220582   1.502  11.168   8.836
 6229SOL     OW20583   7.076  12.423   1.697
 6229SOL    HW120584   7.011  12.448   1.763
 6229SOL    HW220585   7.025  12.378   1.630
 6230SOL     OW20586  12.857   3.242   1.194
 6230SOL    HW120587  12.781   3.276   1.242
 6230SOL    HW220588  12.908   3.196   1.260
 6231SOL     OW20589   9.086   9.531   3.837
 6231SOL    HW120590   9.159   9.469   3.832
 6231SOL    HW220591   9.127   9.614   3.862
 6232SOL     OW20592  13.208   2.576   4.922
 6232SOL    HW120593  13.268   2.650   4.929
 6232SOL    HW220594  13.260   2.507   4.881
 6233SOL     OW20595   3.611  10.024   6.805
 6233SOL    HW120596   3.609   9.953   6.740
 6233SOL    HW220597   3.593  10.103   6.754
 6234SOL     OW20598   2.841   2.749   5.049
 6234SOL    HW120599   2.870   2.663   5.017
 6234SOL    HW220600   2.806   2.793   4.972
 6235SOL     OW20601   1.744   2.678  14.628
 6235SOL    HW120602   1.790   2.760  14.642
 6235SOL    HW220603   1.813   2.613  14.616
 6236SOL     OW20604   2.299  11.729   2.206
 6236SOL    HW120605   2.275  11.774   2.287
 6236SOL    HW220606   2.322  11.799   2.145
 6237SOL     OW20607  14.372   8.067   6.224
 6237SOL    HW120608  14.451   8.109   6.192
 6237SOL    HW220609  14.400   7.980   6.253
 6238SOL     OW20610   9.724   9.573  13.890
 6238SOL    HW120611   9.729   9.668  13.878
 6238SOL    HW220612   9.730   9.560  13.985
 6239SOL     OW20613   4.536   8.596  12.039
 6239SOL    HW120614   4.508   8.684  12.061
 6239SOL    HW220615   4.499   8.541  12.108
 6240SOL     OW20616   5.129   2.242   0.751
 6240SOL    HW120617   5.109   2.184   0.678
 6240SOL    HW220618   5.158   2.183   0.821
 6241SOL     OW20619   3.150  11.523   3.717
 6241SOL    HW120620   3.080  11.470   3.756
 6241SOL    HW220621   3.228  11.468   3.721
 6242SOL     OW20622   9.246   2.321   5.942
 6242SOL    HW120623   9.258   2.265   6.019
 6242SOL    HW220624   9.290   2.275   5.871
 6243SOL     OW20625   6.653   0.052   6.164
 6243SOL    HW120626   6.582   0.018   6.108
 6243SOL    HW220627   6.729   0.055   6.107
 6244SOL     OW20628   0.569   1.974   2.770
 6244SOL    HW120629   0.616   1.906   2.818
 6244SOL    HW220630   0.504   2.008   2.831
 6245SOL     OW20631   1.069   0.160  13.218
 6245SOL    HW120632   1.127   0.236  13.216
 6245SOL    HW220633   1.095   0.108  13.142
 6246SOL     OW20634  14.513   4.737   6.956
 6246SOL    HW120635  14.441   4.794   6.984
 6246SOL    HW220636  14.499   4.655   7.004
 6247SOL     OW20637   5.471   1.418   4.698
 6247SOL    HW120638   5.390   1.431   4.748
 6247SOL    HW220639   5.466   1.482   4.627
 6248SOL     OW20640  13.508   6.453   5.263
 6248SOL    HW120641  13.477   6.372   5.305
 6248SOL    HW220642  13.440   6.473   5.198
 6249SOL     OW20643   5.764   5.682   9.271
 6249SOL    HW120644   5.749   5.760   9.218
 6249SOL    HW220645   5.839   5.704   9.326
 6250SOL     OW20646  10.863  10.134   2.205
 6250SOL    HW120647  10.790  10.190   2.229
 6250SOL    HW220648  10.908  10.117   2.288
 6251SOL     OW20649   8.023   1.231   6.398
 6251SOL    HW120650   7.963   1.199   6.466
 6251SOL    HW220651   8.101   1.259   6.446
 6252SOL     OW20652   1.216   0.845   0.879
 6252SOL    HW120653   1.154   0.811   0.815
 6252SOL    HW220654   1.245   0.929   0.843
 6253SOL     OW20655   3.927   9.656   0.725
 6253SOL    HW120656   3.956   9.571   0.691
 6253SOL    HW220657   3.938   9.649   0.819
 6254SOL     OW20658   2.703   4.370   6.623
 6254SOL    HW120659   2.710   4.416   6.706
 6254SOL    HW220660   2.609   4.357   6.611
 6255SOL     OW20661   9.961   6.280   8.982
 6255SOL    HW120662   9.966   6.314   9.071
 6255SOL    HW220663   9.884   6.224   8.982
 6256SOL     OW20664  12.064   1.323  12.797
 6256SOL    HW120665  12.043   1.234  12.824
 6256SOL    HW220666  12.009   1.379  12.852
 6257SOL     OW20667   9.432  13.721   5.768
 6257SOL    HW120668   9.518  13.758   5.748
 6257SOL    HW220669   9.378  13.796   5.791
 6258SOL     OW20670   5.663   5.317   7.405
 6258SOL    HW120671   5.602   5.316   7.478
 6258SOL    HW220672   5.610   5.294   7.329
 6259SOL     OW20673  12.061  13.462   3.276
 6259SOL    HW120674  11.988  13.525   3.270
 6259SOL    HW220675  12.020  13.378   3.256
 6260SOL     OW20676   5.987   6.354   3.863
 6260SOL    HW120677   5.974   6.269   3.904
 6260SOL    HW220678   6.044   6.335   3.788
 6261SOL     OW20679  12.447   0.233   6.658
 6261SOL    HW120680  12.368   0.285   6.673
 6261SOL    HW220681  12.472   0.252   6.568
 6262SOL     OW20682  13.724   3.664   2.720
 6262SOL    HW120683  13.796   3.677   2.658
 6262SOL    HW220684  13.758   3.601   2.783
 6263SOL     OW20685   3.132  10.662   4.424
 6263SOL    HW120686   3.149  10.756   4.424
 6263SOL    HW220687   3.038  10.654   4.408
 6264SOL     OW20688   6.384  10.798  14.792
 6264SOL    HW120689   6.342  10.772  14.710
 6264SOL    HW220690   6.383  10.894  14.789
 6265SOL     OW20691   5.958  11.677  14.867
 6265SOL    HW120692   5.879  11.692  14.815
 6265SOL    HW220693   6.017  11.630  14.809
 6266SOL     OW20694   8.585   9.296   6.438
 6266SOL    HW120695   8.641   9.291   6.515
 6266SOL    HW220696   8.644   9.321   6.367
 6267SOL     OW20697   5.369   8.460  11.167
 6267SOL    HW120698   5.461   8.457  11.191
 6267SOL    HW220699   5.329   8.517  11.233
 6268SOL     OW20700   5.748  10.052   3.477
 6268SOL    HW120701   5.775  10.004   3.398
 6268SOL    HW220702   5.793  10.008   3.549
 6269SOL     OW20703   6.263  14.224  13.568
 6269SOL    HW120704   6.201  14.291  13.595
 6269SOL    HW220705   6.269  14.165  13.643
 6270SOL     OW20706   4.643   2.770  11.908
 6270SOL    HW120707   4.733   2.794  11.933
 6270SOL    HW220708   4.641   2.675  11.914
 6271SOL     OW20709  11.331   9.505   7.070
 6271SOL    HW120710  11.308   9.490   7.162
 6271SOL    HW220711  11.269   9.450   7.021
 6272SOL     OW20712  13.890   4.729  14.596
 6272SOL    HW120713  13.903   4.754  14.687
 6272SOL    HW220714  13.851   4.806  14.555
 6273SOL     OW20715  12.291   3.246   8.518
 6273SOL    HW120716  12.333   3.252   8.432
 6273SOL    HW220717  12.236   3.325   8.523
 6274SOL     OW20718  10.323   3.046   8.429
 6274SOL    HW120719  10.230   3.060   8.445
 6274SOL    HW220720  10.364   3.056   8.514
 6275SOL     OW20721   7.213   2.641  10.608
 6275SOL    HW120722   7.262   2.688  10.541
 6275SOL    HW220723   7.172   2.710  10.660
 6276SOL     OW20724  12.620   0.169   3.409
 6276SOL    HW120725  12.559   0.232   3.448
 6276SOL    HW220726  12.581   0.146   3.325
 6277SOL     OW20727  11.200  11.434  13.995
 6277SOL    HW120728  11.291  11.405  14.002
 6277SOL    HW220729  11.159  11.370  13.936
 6278SOL     OW20730  10.210   5.741   7.718
 6278SOL    HW120731  10.160   5.731   7.637
 6278SOL    HW220732  10.237   5.652   7.741
 6279SOL     OW20733   4.696  12.279  14.559
 6279SOL    HW120734   4.769  12.281  14.620
 6279SOL    HW220735   4.619  12.302  14.612
 6280SOL     OW20736   2.298   8.766  13.704
 6280SOL    HW120737   2.366   8.782  13.639
 6280SOL    HW220738   2.216   8.780  13.657
 6281SOL     OW20739   7.095   2.610   6.046
 6281SOL    HW120740   7.116   2.697   6.080
 6281SOL    HW220741   7.176   2.561   6.052
 6282SOL     OW20742  12.990   4.926   8.049
 6282SOL    HW120743  12.914   4.945   7.994
 6282SOL    HW220744  12.953   4.886   8.128
 6283SOL     OW20745  11.179  13.276   4.010
 6283SOL    HW120746  11.229  13.353   3.983
 6283SOL    HW220747  11.175  13.282   4.105
 6284SOL     OW20748  14.755  14.141  14.295
 6284SOL    HW120749  14.799  14.196  14.360
 6284SOL    HW220750  14.826  14.109  14.239
 6285SOL     OW20751   0.752   0.816   2.740
 6285SOL    HW120752   0.830   0.816   2.794
 6285SOL    HW220753   0.784   0.805   2.651
 6286SOL     OW20754   5.169  11.722   3.297
 6286SOL    HW120755   5.089  11.771   3.280
 6286SOL    HW220756   5.171  11.654   3.230
 6287SOL     OW20757   2.408  11.425   7.436
 6287SOL    HW120758   2.379  11.506   7.479
 6287SOL    HW220759   2.503  11.421   7.453
 6288SOL     OW20760   2.592   8.752   1.641
 6288SOL    HW120761   2.616   8.675   1.590
 6288SOL    HW220762   2.560   8.717   1.724
 6289SOL     OW20763  11.590  13.243  13.408
 6289SOL    HW120764  11.589  13.147  13.408
 6289SOL    HW220765  11.536  13.269  13.334
 6290SOL     OW20766   1.699   8.124   7.194
 6290SOL    HW120767   1.665   8.212   7.176
 6290SOL    HW220768   1.725   8.090   7.108
 6291SOL     OW20769  13.004  14.702   3.544
 6291SOL    HW120770  12.978  14.709   3.452
 6291SOL    HW220771  12.967  14.619   3.574
 6292SOL     OW20772  14.593   3.473   2.786
 6292SOL    HW120773  14.546   3.554   2.771
 6292SOL    HW220774  14.607   3.470   2.881
 6293SOL     OW20775   7.675   6.349   2.359
 6293SOL    HW120776   7.601   6.298   2.391
 6293SOL    HW220777   7.717   6.383   2.438
 6294SOL     OW20778   6.272  14.186   9.265
 6294SOL    HW120779   6.253  14.278   9.279
 6294SOL    HW220780   6.366  14.179   9.276
 6295SOL     OW20781   7.860   5.997  10.864
 6295SOL    HW120782   7.868   6.060  10.793
 6295SOL    HW220783   7.805   6.042  10.929
 6296SOL     OW20784   2.641   5.547   9.903
 6296SOL    HW120785   2.692   5.487   9.957
 6296SOL    HW220786   2.696   5.626   9.897
 6297SOL     OW20787   0.449  11.670  14.624
 6297SOL    HW120788   0.537  11.691  14.656
 6297SOL    HW220789   0.463  11.612  14.550
 6298SOL     OW20790  14.169   1.058   6.574
 6298SOL    HW120791  14.173   1.071   6.669
 6298SOL    HW220792  14.251   1.094   6.542
 6299SOL     OW20793   5.081   1.977   1.257
 6299SOL    HW120794   5.033   2.025   1.323
 6299SOL    HW220795   5.085   2.037   1.182
 6300SOL     OW20796  11.758  14.415   3.950
 6300SOL    HW120797  11.671  14.388   3.978
 6300SOL    HW220798  11.795  14.337   3.908
 6301SOL     OW20799   0.296  11.373  10.119
 6301SOL    HW120800   0.294  11.447  10.180
 6301SOL    HW220801   0.204  11.345  10.112
 6302SOL     OW20802   7.675   7.252   1.041
 6302SOL    HW120803   7.672   7.230   1.134
 6302SOL    HW220804   7.608   7.197   1.001
 6303SOL     OW20805   2.532   3.529   0.103
 6303SOL    HW120806   2.594   3.599   0.122
 6303SOL    HW220807   2.573   3.450   0.139
 6304SOL     OW20808   3.427   3.646  13.151
 6304SOL    HW120809   3.401   3.698  13.227
 6304SOL    HW220810   3.522   3.640  13.159
 6305SOL     OW20811   4.083   3.682   5.458
 6305SOL    HW120812   4.007   3.738   5.443
 6305SOL    HW220813   4.143   3.737   5.509
 6306SOL     OW20814   2.832  13.220   4.638
 6306SOL    HW120815   2.815  13.315   4.638
 6306SOL    HW220816   2.781  13.187   4.712
 6307SOL     OW20817   3.780   1.066   4.247
 6307SOL    HW120818   3.776   1.049   4.341
 6307SOL    HW220819   3.827   0.991   4.211
 6308SOL     OW20820   4.778   9.503   9.008
 6308SOL    HW120821   4.686   9.481   8.992
 6308SOL    HW220822   4.821   9.419   9.023
 6309SOL     OW20823  12.785  11.165   7.061
 6309SOL    HW120824  12.741  11.250   7.060
 6309SOL    HW220825  12.822  11.156   6.973
 6310SOL     OW20826   8.158   8.141   2.855
 6310SOL    HW120827   8.193   8.063   2.810
 6310SOL    HW220828   8.218   8.211   2.831
 6311SOL     OW20829   6.938   5.261   2.129
 6311SOL    HW120830   6.861   5.312   2.104
 6311SOL    HW220831   6.903   5.175   2.154
 6312SOL     OW20832   9.770  12.056   5.813
 6312SOL    HW120833   9.744  12.066   5.721
 6312SOL    HW220834   9.766  12.145   5.848
 6313SOL     OW20835   1.617   9.098   8.674
 6313SOL    HW120836   1.585   9.100   8.764
 6313SOL    HW220837   1.653   9.010   8.663
 6314SOL     OW20838   8.905  10.591   6.981
 6314SOL    HW120839   8.846  10.602   7.056
 6314SOL    HW220840   8.851  10.551   6.913
 6315SOL     OW20841   2.383  14.027  14.272
 6315SOL    HW120842   2.297  14.064  14.253
 6315SOL    HW220843   2.403  14.055  14.361
 6316SOL     OW20844  13.967   7.018   1.516
 6316SOL    HW120845  13.992   7.000   1.606
 6316SOL    HW220846  13.945   6.932   1.479
 6317SOL     OW20847  13.373   2.273  10.505
 6317SOL    HW120848  13.409   2.346  10.555
 6317SOL    HW220849  13.286   2.259  10.542
 6318SOL     OW20850  13.449   0.142   5.038
 6318SOL    HW120851  13.538   0.173   5.024
 6318SOL    HW220852  13.404   0.158   4.955
 6319SOL     OW20853   5.293   4.031   1.144
 6319SOL    HW120854   5.231   4.031   1.217
 6319SOL    HW220855   5.272   4.110   1.094
 6320SOL     OW20856   9.047  13.670  13.327
 6320SOL    HW120857   8.983  13.741  13.323
 6320SOL    HW220858   9.021  13.619  13.404
 6321SOL     OW20859  11.956   9.042  14.677
 6321SOL    HW120860  11.967   9.096  14.755
 6321SOL    HW220861  12.033   8.984  14.678
 6322SOL     OW20862  12.122  14.373  11.366
 6322SOL    HW120863  12.109  14.374  11.272
 6322SOL    HW220864  12.046  14.420  11.401
 6323SOL     OW20865   8.491   2.078   4.062
 6323SOL    HW120866   8.477   2.165   4.098
 6323SOL    HW220867   8.404   2.049   4.035
 6324SOL     OW20868   4.691   1.144   7.235
 6324SOL    HW120869   4.706   1.052   7.211
 6324SOL    HW220870   4.755   1.193   7.184
 6325SOL     OW20871  10.103   4.764   4.807
 6325SOL    HW120872  10.037   4.709   4.763
 6325SOL    HW220873  10.166   4.784   4.738
 6326SOL     OW20874  10.369   0.381   9.988
 6326SOL    HW120875  10.437   0.448   9.982
 6326SOL    HW220876  10.289   0.429  10.007
 6327SOL     OW20877   6.091   6.293   5.297
 6327SOL    HW120878   5.998   6.277   5.314
 6327SOL    HW220879   6.095   6.384   5.268
 6328SOL     OW20880  14.163   4.556   4.205
 6328SOL    HW120881  14.087   4.532   4.258
 6328SOL    HW220882  14.140   4.642   4.168
 6329SOL     OW20883  12.969  12.950   5.575
 6329SOL    HW120884  13.026  12.907   5.510
 6329SOL    HW220885  12.911  12.880   5.605
 6330SOL     OW20886   1.689   1.999   1.229
 6330SOL    HW120887   1.694   2.068   1.295
 6330SOL    HW220888   1.621   2.029   1.169
 6331SOL     OW20889   6.839   3.008   8.407
 6331SOL    HW120890   6.828   2.926   8.453
 6331SOL    HW220891   6.755   3.054   8.419
 6332SOL     OW20892   0.179   4.977  11.645
 6332SOL    HW120893   0.179   5.056  11.590
 6332SOL    HW220894   0.271   4.954  11.654
 6333SOL     OW20895   2.545   6.289   6.513
 6333SOL    HW120896   2.501   6.312   6.595
 6333SOL    HW220897   2.524   6.361   6.454
 6334SOL     OW20898  14.005   2.919   3.955
 6334SOL    HW120899  14.007   2.856   4.027
 6334SOL    HW220900  14.072   2.889   3.894
 6335SOL     OW20901  12.767  12.845   3.063
 6335SOL    HW120902  12.847  12.862   3.013
 6335SOL    HW220903  12.738  12.760   3.031
 6336SOL     OW20904   5.943   4.728  14.417
 6336SOL    HW120905   5.859   4.708  14.376
 6336SOL    HW220906   6.002   4.660  14.386
 6337SOL     OW20907   9.435   2.068   1.389
 6337SOL    HW120908   9.357   2.123   1.397
 6337SOL    HW220909   9.414   2.005   1.320
 6338SOL     OW20910  11.891   9.747  13.462
 6338SOL    HW120911  11.980   9.749  13.497
 6338SOL    HW220912  11.856   9.664  13.493
 6339SOL     OW20913   7.156  13.851   6.829
 6339SOL    HW120914   7.116  13.769   6.800
 6339SOL    HW220915   7.140  13.852   6.924
 6340SOL     OW20916  10.659  12.342   3.090
 6340SOL    HW120917  10.713  12.378   3.160
 6340SOL    HW220918  10.722  12.305   3.028
 6341SOL     OW20919  11.211   1.283  11.776
 6341SOL    HW120920  11.260   1.201  11.781
 6341SOL    HW220921  11.197   1.307  11.867
 6342SOL     OW20922   0.849   8.475  10.630
 6342SOL    HW120923   0.760   8.493  10.663
 6342SOL    HW220924   0.861   8.538  10.559
 6343SOL     OW20925   7.871   1.998   4.320
 6343SOL    HW120926   7.803   2.029   4.379
 6343SOL    HW220927   7.864   1.902   4.323
 6344SOL     OW20928  12.415  11.087   3.513
 6344SOL    HW120929  12.434  11.176   3.481
 6344SOL    HW220930  12.319  11.082   3.514
 6345SOL     OW20931   4.787   2.530   9.740
 6345SOL    HW120932   4.693   2.535   9.721
 6345SOL    HW220933   4.792   2.541   9.835
 6346SOL     OW20934   4.788   5.183  10.751
 6346SOL    HW120935   4.832   5.231  10.821
 6346SOL    HW220936   4.772   5.248  10.683
 6347SOL     OW20937   8.738   5.574  10.631
 6347SOL    HW120938   8.793   5.524  10.571
 6347SOL    HW220939   8.648   5.556  10.603
 6348SOL     OW20940   4.497   8.399   7.827
 6348SOL    HW120941   4.574   8.410   7.883
 6348SOL    HW220942   4.450   8.325   7.865
 6349SOL     OW20943  11.459   6.499  10.753
 6349SOL    HW120944  11.408   6.573  10.720
 6349SOL    HW220945  11.396   6.447  10.803
 6350SOL     OW20946   8.846   9.407  12.519
 6350SOL    HW120947   8.774   9.455  12.478
 6350SOL    HW220948   8.887   9.358  12.448
 6351SOL     OW20949   8.849   2.960  11.869
 6351SOL    HW120950   8.792   2.984  11.796
 6351SOL    HW220951   8.792   2.960  11.946
 6352SOL     OW20952   2.259   3.341   4.750
 6352SOL    HW120953   2.299   3.390   4.822
 6352SOL    HW220954   2.169   3.373   4.747
 6353SOL     OW20955   1.909  11.272   4.563
 6353SOL    HW120956   1.994  11.317   4.570
 6353SOL    HW220957   1.844  11.342   4.572
 6354SOL     OW20958  12.728   3.364   4.936
 6354SOL    HW120959  12.797   3.430   4.932
 6354SOL    HW220960  12.765   3.295   4.992
 6355SOL     OW20961   8.142   7.056   0.240
 6355SOL    HW120962   8.147   7.141   0.284
 6355SOL    HW220963   8.218   7.008   0.273
 6356SOL     OW20964   2.290  14.644  10.292
 6356SOL    HW120965   2.363  14.590  10.325
 6356SOL    HW220966   2.258  14.690  10.370
 6357SOL     OW20967   1.281   9.008  10.902
 6357SOL    HW120968   1.235   8.927  10.879
 6357SOL    HW220969   1.228   9.077  10.861
 6358SOL     OW20970   9.144   0.531  11.210
 6358SOL    HW120971   9.168   0.440  11.191
 6358SOL    HW220972   9.077   0.552  11.144
 6359SOL     OW20973  12.199   3.683  12.929
 6359SOL    HW120974  12.210   3.614  12.995
 6359SOL    HW220975  12.278   3.678  12.876
 6360SOL     OW20976   6.100   2.417  12.162
 6360SOL    HW120977   6.116   2.455  12.248
 6360SOL    HW220978   6.036   2.477  12.122
 6361SOL     OW20979  14.186   7.795  14.743
 6361SOL    HW120980  14.142   7.710  14.749
 6361SOL    HW220981  14.170   7.823  14.653
 6362SOL     OW20982   5.940   3.289  13.281
 6362SOL    HW120983   5.967   3.338  13.204
 6362SOL    HW220984   5.911   3.356  13.343
 6363SOL     OW20985   5.830  13.456  12.994
 6363SOL    HW120986   5.787  13.465  13.079
 6363SOL    HW220987   5.812  13.539  12.949
 6364SOL     OW20988   4.999   3.051   6.271
 6364SOL    HW120989   4.947   3.098   6.206
 6364SOL    HW220990   5.019   3.116   6.338
 6365SOL     OW20991   2.162  12.649  11.031
 6365SOL    HW120992   2.200  12.708  11.096
 6365SOL    HW220993   2.149  12.705  10.954
 6366SOL     OW20994   1.490   2.897   9.226
 6366SOL    HW120995   1.430   2.826   9.200
 6366SOL    HW220996   1.466   2.918   9.316
 6367SOL     OW20997  14.718   5.198   5.146
 6367SOL    HW120998  14.796   5.253   5.140
 6367SOL    HW220999  14.667   5.220   5.068
 6368SOL     OW21000  13.779   9.052  12.635
 6368SOL    HW121001  13.785   8.983  12.569
 6368SOL    HW221002  13.769   9.132  12.585
 6369SOL     OW21003   2.582   6.177   9.631
 6369SOL    HW121004   2.665   6.214   9.602
 6369SOL    HW221005   2.607   6.111   9.696
 6370SOL     OW21006   9.106   8.468   8.191
 6370SOL    HW121007   9.112   8.372   8.192
 6370SOL    HW221008   9.197   8.498   8.182
 6371SOL     OW21009   9.647  10.841  12.196
 6371SOL    HW121010   9.581  10.775  12.176
 6371SOL    HW221011   9.730  10.799  12.175
 6372SOL     OW21012   5.019   1.444   6.850
 6372SOL    HW121013   4.989   1.535   6.854
 6372SOL    HW221014   5.094   1.447   6.790
 6373SOL     OW21015   6.487  14.501   9.002
 6373SOL    HW121016   6.400  14.466   8.984
 6373SOL    HW221017   6.483  14.593   8.974
 6374SOL     OW21018  13.197   8.722  14.755
 6374SOL    HW121019  13.138   8.657  14.716
 6374SOL    HW221020  13.259   8.743  14.685
 6375SOL     OW21021   3.921   8.837   0.154
 6375SOL    HW121022   3.920   8.784   0.075
 6375SOL    HW221023   3.933   8.927   0.122
 6376SOL     OW21024  12.389  11.421   0.481
 6376SOL    HW121025  12.312  11.400   0.429
 6376SOL    HW221026  12.432  11.492   0.434
 6377SOL     OW21027   4.683  11.332  12.752
 6377SOL    HW121028   4.745  11.396  12.788
 6377SOL    HW221029   4.709  11.323  12.661
 6378SOL     OW21030   5.125   8.375  11.959
 6378SOL    HW121031   5.200   8.430  11.934
 6378SOL    HW221032   5.054   8.403  11.902
 6379SOL     OW21033  11.506   9.111   6.036
 6379SOL    HW121034  11.455   9.125   6.115
 6379SOL    HW221035  11.441   9.093   5.968
 6380SOL     OW21036  11.361  13.442   1.106
 6380SOL    HW121037  11.268  13.441   1.128
 6380SOL    HW221038  11.363  13.421   1.012
 6381SOL     OW21039  14.716  10.077  10.834
 6381SOL    HW121040  14.657  10.144  10.799
 6381SOL    HW221041  14.793  10.126  10.863
 6382SOL     OW21042   7.884   0.864  13.625
 6382SOL    HW121043   7.801   0.884  13.670
 6382SOL    HW221044   7.873   0.902  13.538
 6383SOL     OW21045   4.080   6.418  12.423
 6383SOL    HW121046   4.143   6.483  12.392
 6383SOL    HW221047   4.127   6.335  12.419
 6384SOL     OW21048   9.571   2.429   6.776
 6384SOL    HW121049   9.563   2.370   6.701
 6384SOL    HW221050   9.628   2.500   6.746
 6385SOL     OW21051  13.643   5.388   8.574
 6385SOL    HW121052  13.566   5.435   8.543
 6385SOL    HW221053  13.714   5.414   8.515
 6386SOL     OW21054   3.094   8.809   0.151
 6386SOL    HW121055   3.142   8.727   0.137
 6386SOL    HW221056   3.039   8.792   0.227
 6387SOL     OW21057   4.517   5.496   5.757
 6387SOL    HW121058   4.454   5.488   5.686
 6387SOL    HW221059   4.507   5.586   5.788
 6388SOL     OW21060   9.058   8.046   8.421
 6388SOL    HW121061   8.962   8.047   8.425
 6388SOL    HW221062   9.080   7.953   8.409
 6389SOL     OW21063  14.372   4.207   6.919
 6389SOL    HW121064  14.458   4.190   6.956
 6389SOL    HW221065  14.312   4.153   6.971
 6390SOL     OW21066   4.763  14.583   6.064
 6390SOL    HW121067   4.757  14.667   6.018
 6390SOL    HW221068   4.842  14.591   6.118
 6391SOL     OW21069  10.451  14.395   5.517
 6391SOL    HW121070  10.440  14.313   5.469
 6391SOL    HW221071  10.540  14.391   5.552
 6392SOL     OW21072   5.011   4.703   2.729
 6392SOL    HW121073   4.976   4.718   2.817
 6392SOL    HW221074   4.938   4.666   2.680
 6393SOL     OW21075   8.288  14.808   4.863
 6393SOL    HW121076   8.228  14.873   4.900
 6393SOL    HW221077   8.297  14.742   4.931
 6394SOL     OW21078   6.648   3.753   6.691
 6394SOL    HW121079   6.702   3.727   6.766
 6394SOL    HW221080   6.632   3.671   6.644
 6395SOL     OW21081  12.745   0.714   1.326
 6395SOL    HW121082  12.697   0.785   1.284
 6395SOL    HW221083  12.780   0.662   1.253
 6396SOL     OW21084   7.664   8.319  10.703
 6396SOL    HW121085   7.712   8.386  10.752
 6396SOL    HW221086   7.662   8.243  10.761
 6397SOL     OW21087  10.413  12.773   5.307
 6397SOL    HW121088  10.342  12.719   5.272
 6397SOL    HW221089  10.491  12.741   5.262
 6398SOL     OW21090  10.027  10.395   8.922
 6398SOL    HW121091  10.110  10.416   8.879
 6398SOL    HW221092  10.009  10.470   8.978
 6399SOL     OW21093   0.085  10.865   4.988
 6399SOL    HW121094   0.006  10.918   4.999
 6399SOL    HW221095   0.155  10.918   5.027
 6400SOL     OW21096  14.078  10.906   6.622
 6400SOL    HW121097  13.989  10.940   6.622
 6400SOL    HW221098  14.111  10.923   6.710
 6401SOL     OW21099  10.602   3.116  11.673
 6401SOL    HW121100  10.682   3.165  11.653
 6401SOL    HW221101  10.538   3.150  11.611
 6402SOL     OW21102   4.865   0.955   1.308
 6402SOL    HW121103   4.928   0.892   1.342
 6402SOL    HW221104   4.825   0.993   1.387
 6403SOL     OW21105   3.430   7.993   4.770
 6403SOL    HW121106   3.488   7.971   4.697
 6403SOL    HW221107   3.367   8.054   4.733
 6404SOL     OW21108  13.392  11.384   5.759
 6404SOL    HW121109  13.391  11.364   5.852
 6404SOL    HW221110  13.374  11.478   5.754
 6405SOL     OW21111  11.908  10.030   7.682
 6405SOL    HW121112  11.821  10.026   7.643
 6405SOL    HW221113  11.961   9.969   7.631
 6406SOL     OW21114   0.480  10.002   5.687
 6406SOL    HW121115   0.519  10.050   5.759
 6406SOL    HW221116   0.424  10.066   5.642
 6407SOL     OW21117   1.855   8.309  10.996
 6407SOL    HW121118   1.775   8.349  10.963
 6407SOL    HW221119   1.832   8.280  11.085
 6408SOL     OW21120   1.418   9.957   0.597
 6408SOL    HW121121   1.328   9.971   0.568
 6408SOL    HW221122   1.464   9.928   0.518
 6409SOL     OW21123   8.834  13.270   2.253
 6409SOL    HW121124   8.888  13.323   2.312
 6409SOL    HW221125   8.762  13.327   2.228
 6410SOL     OW21126  13.514  12.863   0.534
 6410SOL    HW121127  13.500  12.924   0.606
 6410SOL    HW221128  13.472  12.782   0.562
 6411SOL     OW21129   4.104   8.488  13.593
 6411SOL    HW121130   4.030   8.445  13.549
 6411SOL    HW221131   4.141   8.546  13.527
 6412SOL     OW21132  12.808  11.170  10.022
 6412SOL    HW121133  12.816  11.258   9.986
 6412SOL    HW221134  12.787  11.115   9.947
 6413SOL     OW21135  13.401   9.691   5.285
 6413SOL    HW121136  13.348   9.763   5.317
 6413SOL    HW221137  13.485   9.731   5.262
 6414SOL     OW21138  13.707  14.491  11.132
 6414SOL    HW121139  13.663  14.559  11.184
 6414SOL    HW221140  13.790  14.476  11.178
 6415SOL     OW21141   9.617   1.452   9.609
 6415SOL    HW121142   9.691   1.422   9.555
 6415SOL    HW221143   9.574   1.518   9.555
 6416SOL     OW21144   7.291   1.953   7.565
 6416SOL    HW121145   7.302   1.992   7.478
 6416SOL    HW221146   7.362   1.890   7.572
 6417SOL     OW21147   0.348   9.000  11.698
 6417SOL    HW121148   0.320   8.915  11.733
 6417SOL    HW221149   0.276   9.060  11.720
 6418SOL     OW21150  13.206   1.724  11.418
 6418SOL    HW121151  13.149   1.647  11.420
 6418SOL    HW221152  13.210   1.748  11.325
 6419SOL     OW21153   3.280   0.666   2.138
 6419SOL    HW121154   3.193   0.626   2.140
 6419SOL    HW221155   3.308   0.667   2.229
 6420SOL     OW21156   2.965   4.289   4.479
 6420SOL    HW121157   3.042   4.347   4.479
 6420SOL    HW221158   2.984   4.223   4.545
 6421SOL     OW21159  11.914   5.578   6.172
 6421SOL    HW121160  11.969   5.575   6.094
 6421SOL    HW221161  11.905   5.486   6.199
 6422SOL     OW21162   1.363   5.893   4.003
 6422SOL    HW121163   1.343   5.860   3.916
 6422SOL    HW221164   1.398   5.818   4.051
 6423SOL     OW21165   5.432  10.278   9.490
 6423SOL    HW121166   5.382  10.256   9.568
 6423SOL    HW221167   5.471  10.363   9.509
 6424SOL     OW21168  12.876   7.220   2.915
 6424SOL    HW121169  12.890   7.272   2.995
 6424SOL    HW221170  12.924   7.267   2.848
 6425SOL     OW21171   3.798   6.224   7.970
 6425SOL    HW121172   3.842   6.287   8.026
 6425SOL    HW221173   3.828   6.139   8.001
 6426SOL     OW21174   4.121   3.427  14.827
 6426SOL    HW121175   4.032   3.440  14.858
 6426SOL    HW221176   4.158   3.361   0.007
 6427SOL     OW21177   0.606   4.254  10.319
 6427SOL    HW121178   0.681   4.236  10.263
 6427SOL    HW221179   0.634   4.225  10.406
 6428SOL     OW21180   6.302   8.346   2.241
 6428SOL    HW121181   6.361   8.332   2.167
 6428SOL    HW221182   6.272   8.259   2.265
 6429SOL     OW21183   4.611   2.864   0.382
 6429SOL    HW121184   4.665   2.878   0.304
 6429SOL    HW221185   4.652   2.918   0.449
 6430SOL     OW21186  10.778   9.689  14.714
 6430SOL    HW121187  10.694   9.723  14.685
 6430SOL    HW221188  10.759   9.646  14.797
 6431SOL     OW21189   2.729   9.136   6.942
 6431SOL    HW121190   2.719   9.077   6.867
 6431SOL    HW221191   2.810   9.184   6.925
 6432SOL     OW21192   7.779   9.916  12.461
 6432SOL    HW121193   7.742   9.892  12.546
 6432SOL    HW221194   7.708   9.901  12.399
 6433SOL     OW21195   3.854  10.597  14.705
 6433SOL    HW121196   3.818  10.541  14.635
 6433SOL    HW221197   3.922  10.543  14.746
 6434SOL     OW21198  14.528   5.027   7.548
 6434SOL    HW121199  14.589   5.024   7.474
 6434SOL    HW221200  14.548   5.109   7.593
 6435SOL     OW21201  12.367   3.671  10.275
 6435SOL    HW121202  12.391   3.761  10.299
 6435SOL    HW221203  12.398   3.617  10.347
 6436SOL     OW21204   1.756   0.266   8.202
 6436SOL    HW121205   1.792   0.216   8.129
 6436SOL    HW221206   1.809   0.242   8.278
 6437SOL     OW21207   3.202   1.967   1.385
 6437SOL    HW121208   3.128   2.007   1.432
 6437SOL    HW221209   3.278   2.017   1.414
 6438SOL     OW21210  12.575  13.821   2.389
 6438SOL    HW121211  12.491  13.865   2.377
 6438SOL    HW221212  12.578  13.801   2.483
 6439SOL     OW21213   1.253  14.438   5.021
 6439SOL    HW121214   1.162  14.421   4.997
 6439SOL    HW221215   1.302  14.366   4.982
 6440SOL     OW21216   0.758   4.821   0.756
 6440SOL    HW121217   0.708   4.898   0.782
 6440SOL    HW221218   0.693   4.751   0.749
 6441SOL     OW21219  14.809  14.738  12.385
 6441SOL    HW121220  14.732  14.795  12.380
 6441SOL    HW221221  14.878  14.788  12.342
 6442SOL     OW21222   7.540   8.420   3.058
 6442SOL    HW121223   7.475   8.490   3.059
 6442SOL    HW221224   7.567   8.413   2.967
 6443SOL     OW21225   0.096   8.171   5.297
 6443SOL    HW121226   0.004   8.172   5.271
 6443SOL    HW221227   0.130   8.255   5.267
 6444SOL     OW21228   3.275   5.457   6.074
 6444SOL    HW121229   3.294   5.454   5.980
 6444SOL    HW221230   3.361   5.465   6.115
 6445SOL     OW21231   3.934   8.233   9.879
 6445SOL    HW121232   3.983   8.183   9.814
 6445SOL    HW221233   3.987   8.230   9.958
 6446SOL     OW21234   9.034  11.327  13.457
 6446SOL    HW121235   9.020  11.269  13.383
 6446SOL    HW221236   9.078  11.404  13.420
 6447SOL     OW21237   0.373   8.354   2.073
 6447SOL    HW121238   0.376   8.450   2.068
 6447SOL    HW221239   0.284   8.334   2.102
 6448SOL     OW21240   6.055  11.397   5.248
 6448SOL    HW121241   6.010  11.312   5.250
 6448SOL    HW221242   6.010  11.446   5.179
 6449SOL     OW21243   7.399   6.344   8.414
 6449SOL    HW121244   7.380   6.342   8.508
 6449SOL    HW221245   7.325   6.297   8.374
 6450SOL     OW21246  13.395  11.782  10.733
 6450SOL    HW121247  13.315  11.764  10.782
 6450SOL    HW221248  13.425  11.866  10.768
 6451SOL     OW21249  10.914  13.214  11.573
 6451SOL    HW121250  10.871  13.133  11.544
 6451SOL    HW221251  10.861  13.284  11.537
 6452SOL     OW21252   2.337   3.126   8.839
 6452SOL    HW121253   2.412   3.106   8.894
 6452SOL    HW221254   2.334   3.222   8.835
 6453SOL     OW21255  14.085   0.962   5.242
 6453SOL    HW121256  14.036   1.036   5.278
 6453SOL    HW221257  14.036   0.936   5.164
 6454SOL     OW21258   7.589   7.828  14.206
 6454SOL    HW121259   7.667   7.883  14.206
 6454SOL    HW221260   7.617   7.746  14.165
 6455SOL     OW21261   9.659  14.318   3.108
 6455SOL    HW121262   9.701  14.402   3.130
 6455SOL    HW221263   9.568  14.340   3.091
 6456SOL     OW21264   4.923  14.365   4.596
 6456SOL    HW121265   4.953  14.339   4.683
 6456SOL    HW221266   4.984  14.433   4.569
 6457SOL     OW21267   6.095  12.388   7.785
 6457SOL    HW121268   6.112  12.299   7.815
 6457SOL    HW221269   6.081  12.380   7.691
 6458SOL     OW21270   5.423   4.445  14.698
 6458SOL    HW121271   5.372   4.517  14.736
 6458SOL    HW221272   5.385   4.433  14.611
 6459SOL     OW21273   9.273   6.771   7.204
 6459SOL    HW121274   9.220   6.842   7.240
 6459SOL    HW221275   9.210   6.703   7.180
 6460SOL     OW21276   3.527   0.057  12.913
 6460SOL    HW121277   3.534   0.024  12.823
 6460SOL    HW221278   3.616   0.055  12.946
 6461SOL     OW21279   7.103  12.233   2.064
 6461SOL    HW121280   7.051  12.273   2.133
 6461SOL    HW221281   7.104  12.140   2.085
 6462SOL     OW21282   0.012   8.139   0.534
 6462SOL    HW121283  14.828   8.069   0.521
 6462SOL    HW221284   0.033   8.169   0.446
 6463SOL     OW21285   2.000   9.124   4.600
 6463SOL    HW121286   1.948   9.180   4.543
 6463SOL    HW221287   2.056   9.184   4.648
 6464SOL     OW21288   9.426   7.382   8.467
 6464SOL    HW121289   9.456   7.331   8.542
 6464SOL    HW221290   9.331   7.390   8.479
 6465SOL     OW21291  10.012  12.375   6.996
 6465SOL    HW121292   9.974  12.357   6.911
 6465SOL    HW221293   9.958  12.444   7.034
 6466SOL     OW21294   2.403   3.777  13.913
 6466SOL    HW121295   2.495   3.772  13.937
 6466SOL    HW221296   2.391   3.866  13.880
 6467SOL     OW21297   4.817  14.618   3.800
 6467SOL    HW121298   4.787  14.697   3.846
 6467SOL    HW221299   4.785  14.545   3.853
 6468SOL     OW21300  14.069   8.654  13.090
 6468SOL    HW121301  13.985   8.690  13.118
 6468SOL    HW221302  14.049   8.565  13.061
 6469SOL     OW21303  12.098   4.226   6.435
 6469SOL    HW121304  12.142   4.310   6.425
 6469SOL    HW221305  12.148   4.181   6.503
 6470SOL     OW21306   9.130   8.441   1.519
 6470SOL    HW121307   9.099   8.361   1.478
 6470SOL    HW221308   9.220   8.421   1.546
 6471SOL     OW21309  13.291   4.522   5.674
 6471SOL    HW121310  13.365   4.519   5.736
 6471SOL    HW221311  13.233   4.590   5.710
 6472SOL     OW21312  13.254  12.308   0.253
 6472SOL    HW121313  13.325  12.303   0.190
 6472SOL    HW221314  13.202  12.229   0.238
 6473SOL     OW21315   3.163   3.565  10.304
 6473SOL    HW121316   3.188   3.579  10.395
 6473SOL    HW221317   3.096   3.496  10.309
 6474SOL     OW21318   0.245  12.037   2.040
 6474SOL    HW121319   0.198  11.958   2.014
 6474SOL    HW221320   0.329  12.006   2.073
 6475SOL     OW21321  12.419  10.087  11.457
 6475SOL    HW121322  12.478  10.077  11.383
 6475SOL    HW221323  12.365  10.008  11.455
 6476SOL     OW21324   8.037  10.723  12.914
 6476SOL    HW121325   8.004  10.783  12.847
 6476SOL    HW221326   7.981  10.646  12.907
 6477SOL     OW21327   5.453   3.594   2.701
 6477SOL    HW121328   5.384   3.646   2.659
 6477SOL    HW221329   5.407   3.521   2.742
 6478SOL     OW21330  14.737   3.590  12.922
 6478SOL    HW121331  14.754   3.675  12.963
 6478SOL    HW221332  14.739   3.608  12.828
 6479SOL     OW21333   8.443  13.746   0.453
 6479SOL    HW121334   8.526  13.760   0.408
 6479SOL    HW221335   8.456  13.664   0.501
 6480SOL     OW21336   6.833  14.771   8.668
 6480SOL    HW121337   6.785  14.691   8.650
 6480SOL    HW221338   6.925  14.747   8.657
 6481SOL     OW21339   9.493  11.815  13.389
 6481SOL    HW121340   9.523  11.888  13.444
 6481SOL    HW221341   9.429  11.855  13.330
 6482SOL     OW21342  14.732   1.228   6.133
 6482SOL    HW121343  14.746   1.250   6.226
 6482SOL    HW221344  14.728   1.313   6.089
 6483SOL     OW21345   9.365   5.960   4.611
 6483SOL    HW121346   9.390   5.942   4.520
 6483SOL    HW221347   9.390   6.052   4.625
 6484SOL     OW21348   6.170   6.728  11.688
 6484SOL    HW121349   6.133   6.694  11.606
 6484SOL    HW221350   6.258   6.691  11.692
 6485SOL     OW21351   8.410  12.604  11.544
 6485SOL    HW121352   8.367  12.675  11.592
 6485SOL    HW221353   8.372  12.610  11.456
 6486SOL     OW21354   5.242  10.246   7.009
 6486SOL    HW121355   5.260  10.324   6.957
 6486SOL    HW221356   5.304  10.181   6.976
 6487SOL     OW21357   2.170  14.734   4.405
 6487SOL    HW121358   2.074  14.733   4.407
 6487SOL    HW221359   2.197  14.669   4.470
 6488SOL     OW21360   9.756  12.086  11.154
 6488SOL    HW121361   9.772  12.023  11.083
 6488SOL    HW221362   9.663  12.105  11.149
 6489SOL     OW21363   1.307  13.379   2.996
 6489SOL    HW121364   1.223  13.411   3.028
 6489SOL    HW221365   1.369  13.450   3.015
 6490SOL     OW21366   7.514  10.218   8.996
 6490SOL    HW121367   7.434  10.270   8.994
 6490SOL    HW221368   7.584  10.282   8.985
 6491SOL     OW21369   8.243   3.547   1.743
 6491SOL    HW121370   8.299   3.574   1.816
 6491SOL    HW221371   8.269   3.604   1.671
 6492SOL     OW21372   1.323   1.869  13.868
 6492SOL    HW121373   1.406   1.862  13.820
 6492SOL    HW221374   1.348   1.866  13.960
 6493SOL     OW21375   7.923   0.626  13.071
 6493SOL    HW121376   7.904   0.671  12.989
 6493SOL    HW221377   7.927   0.533  13.046
 6494SOL     OW21378   1.470   4.757   8.836
 6494SOL    HW121379   1.531   4.701   8.883
 6494SOL    HW221380   1.395   4.700   8.817
 6495SOL     OW21381  13.925   2.994  13.237
 6495SOL    HW121382  13.946   2.978  13.328
 6495SOL    HW221383  13.893   3.084  13.235
 6496SOL     OW21384  12.316  12.539   8.566
 6496SOL    HW121385  12.330  12.456   8.612
 6496SOL    HW221386  12.402  12.563   8.532
 6497SOL     OW21387   1.838   4.976   8.094
 6497SOL    HW121388   1.902   5.000   8.162
 6497SOL    HW221389   1.793   5.057   8.073
 6498SOL     OW21390  13.645   5.613   2.426
 6498SOL    HW121391  13.561   5.626   2.381
 6498SOL    HW221392  13.655   5.692   2.480
 6499SOL     OW21393  10.063   6.766   6.845
 6499SOL    HW121394  10.146   6.718   6.836
 6499SOL    HW221395  10.033   6.745   6.933
 6500SOL     OW21396   4.704   0.694   5.342
 6500SOL    HW121397   4.632   0.640   5.309
 6500SOL    HW221398   4.765   0.701   5.269
 6501SOL     OW21399   1.371  12.554   2.272
 6501SOL    HW121400   1.407  12.628   2.321
 6501SOL    HW221401   1.348  12.590   2.187
 6502SOL     OW21402   4.591   0.138  12.721
 6502SOL    HW121403   4.511   0.089  12.701
 6502SOL    HW221404   4.662   0.081  12.690
 6503SOL     OW21405   6.062   2.728  13.157
 6503SOL    HW121406   6.145   2.681  13.163
 6503SOL    HW221407   6.021   2.716  13.243
 6504SOL     OW21408   6.773   4.409   4.711
 6504SOL    HW121409   6.846   4.408   4.772
 6504SOL    HW221410   6.698   4.440   4.762
 6505SOL     OW21411  11.723   3.454   0.043
 6505SOL    HW121412  11.801   3.509   0.051
 6505SOL    HW221413  11.754   3.374  14.879
 6506SOL     OW21414   1.340   4.331  14.682
 6506SOL    HW121415   1.269   4.379  14.637
 6506SOL    HW221416   1.348   4.249  14.634
 6507SOL     OW21417   7.860   5.927   5.301
 6507SOL    HW121418   7.775   5.964   5.276
 6507SOL    HW221419   7.900   5.993   5.358
 6508SOL     OW21420  14.485   0.250   2.021
 6508SOL    HW121421  14.507   0.168   1.978
 6508SOL    HW221422  14.431   0.225   2.095
 6509SOL     OW21423   3.402   1.964   1.760
 6509SOL    HW121424   3.475   1.913   1.796
 6509SOL    HW221425   3.331   1.953   1.823
 6510SOL     OW21426   0.798   6.739  10.607
 6510SOL    HW121427   0.736   6.764  10.539
 6510SOL    HW221428   0.863   6.685  10.561
 6511SOL     OW21429   5.754  14.232  12.081
 6511SOL    HW121430   5.698  14.217  12.157
 6511SOL    HW221431   5.789  14.146  12.060
 6512SOL     OW21432   8.808   8.316   8.286
 6512SOL    HW121433   8.879   8.280   8.232
 6512SOL    HW221434   8.847   8.326   8.373
 6513SOL     OW21435   7.200   4.446   6.705
 6513SOL    HW121436   7.253   4.416   6.779
 6513SOL    HW221437   7.264   4.484   6.644
 6514SOL     OW21438   0.033  10.165   9.659
 6514SOL    HW121439   0.064  10.123   9.579
 6514SOL    HW221440   0.063  10.256   9.652
 6515SOL     OW21441   7.915   1.817  14.805
 6515SOL    HW121442   7.835   1.774  14.776
 6515SOL    HW221443   7.966   1.748  14.848
 6516SOL     OW21444  14.360   0.294   5.393
 6516SOL    HW121445  14.411   0.369   5.363
 6516SOL    HW221446  14.269   0.319   5.375
 6517SOL     OW21447   5.837  12.781  14.573
 6517SOL    HW121448   5.779  12.743  14.640
 6517SOL    HW221449   5.922  12.740  14.590
 6518SOL     OW21450  14.467   6.210   3.005
 6518SOL    HW121451  14.533   6.278   3.022
 6518SOL    HW221452  14.474   6.194   2.911
 6519SOL     OW21453  13.315  13.496   1.641
 6519SOL    HW121454  13.338  13.514   1.732
 6519SOL    HW221455  13.287  13.580   1.606
 6520SOL     OW21456   7.465   1.442   6.882
 6520SOL    HW121457   7.505   1.407   6.962
 6520SOL    HW221458   7.482   1.376   6.815
 6521SOL     OW21459   5.857   3.706   5.902
 6521SOL    HW121460   5.949   3.684   5.888
 6521SOL    HW221461   5.842   3.689   5.995
 6522SOL     OW21462   8.613   4.904   8.382
 6522SOL    HW121463   8.678   4.834   8.382
 6522SOL    HW221464   8.644   4.965   8.449
 6523SOL     OW21465   2.545  11.097  10.115
 6523SOL    HW121466   2.470  11.148  10.143
 6523SOL    HW221467   2.513  11.044  10.041
 6524SOL     OW21468  11.021   5.125  12.887
 6524SOL    HW121469  11.057   5.179  12.816
 6524SOL    HW221470  10.932   5.158  12.898
 6525SOL     OW21471   8.320   8.064  14.084
 6525SOL    HW121472   8.313   8.159  14.087
 6525SOL    HW221473   8.410   8.046  14.109
 6526SOL     OW21474  10.889   3.713   9.514
 6526SOL    HW121475  10.849   3.679   9.595
 6526SOL    HW221476  10.977   3.739   9.540
 6527SOL     OW21477   2.422   5.145   5.962
 6527SOL    HW121478   2.373   5.087   6.020
 6527SOL    HW221479   2.412   5.232   6.000
 6528SOL     OW21480  12.878   4.151   3.149
 6528SOL    HW121481  12.801   4.162   3.094
 6528SOL    HW221482  12.889   4.056   3.156
 6529SOL     OW21483   6.887   5.226   9.635
 6529SOL    HW121484   6.983   5.227   9.643
 6529SOL    HW221485   6.867   5.136   9.610
 6530SOL     OW21486   4.468   9.627  13.690
 6530SOL    HW121487   4.410   9.551  13.693
 6530SOL    HW221488   4.535   9.604  13.626
 6531SOL     OW21489  13.283  10.258   3.605
 6531SOL    HW121490  13.375  10.257   3.632
 6531SOL    HW221491  13.235  10.276   3.686
 6532SOL     OW21492   5.285   6.560   0.689
 6532SOL    HW121493   5.253   6.477   0.723
 6532SOL    HW221494   5.207   6.616   0.684
 6533SOL     OW21495   8.797  12.340   9.041
 6533SOL    HW121496   8.773  12.407   8.978
 6533SOL    HW221497   8.861  12.286   8.996
 6534SOL     OW21498  12.321   3.662  11.166
 6534SOL    HW121499  12.364   3.742  11.137
 6534SOL    HW221500  12.232   3.690  11.189
 6535SOL     OW21501  13.118  12.505  10.662
 6535SOL    HW121502  13.138  12.512  10.568
 6535SOL    HW221503  13.149  12.418  10.687
 6536SOL     OW21504  12.307   9.524   9.843
 6536SOL    HW121505  12.341   9.613   9.841
 6536SOL    HW221506  12.226   9.528   9.793
 6537SOL     OW21507   5.493   9.409  10.685
 6537SOL    HW121508   5.491   9.466  10.762
 6537SOL    HW221509   5.406   9.417  10.647
 6538SOL     OW21510  10.416  13.943   1.140
 6538SOL    HW121511  10.321  13.948   1.135
 6538SOL    HW221512  10.448  13.989   1.063
 6539SOL     OW21513   5.384   0.259   5.581
 6539SOL    HW121514   5.408   0.263   5.673
 6539SOL    HW221515   5.419   0.176   5.550
 6540SOL     OW21516   9.444   4.020   5.614
 6540SOL    HW121517   9.377   4.085   5.593
 6540SOL    HW221518   9.416   3.941   5.567
 6541SOL     OW21519  12.594   6.541  13.462
 6541SOL    HW121520  12.587   6.481  13.389
 6541SOL    HW221521  12.687   6.538  13.488
 6542SOL     OW21522   3.763   3.001   2.928
 6542SOL    HW121523   3.719   2.941   2.988
 6542SOL    HW221524   3.736   2.973   2.841
 6543SOL     OW21525  11.066   7.883   2.551
 6543SOL    HW121526  10.995   7.946   2.539
 6543SOL    HW221527  11.140   7.937   2.581
 6544SOL     OW21528  10.849   7.089   0.512
 6544SOL    HW121529  10.780   7.092   0.577
 6544SOL    HW221530  10.819   7.026   0.447
 6545SOL     OW21531   9.941   9.699   5.886
 6545SOL    HW121532   9.865   9.719   5.831
 6545SOL    HW221533   9.904   9.682   5.972
 6546SOL     OW21534   2.443   7.523  13.859
 6546SOL    HW121535   2.481   7.583  13.795
 6546SOL    HW221536   2.465   7.435  13.827
 6547SOL     OW21537  14.766   0.133  13.414
 6547SOL    HW121538  14.809   0.106  13.494
 6547SOL    HW221539  14.804   0.218  13.393
 6548SOL     OW21540   2.628   6.244  14.116
 6548SOL    HW121541   2.595   6.196  14.192
 6548SOL    HW221542   2.578   6.209  14.042
 6549SOL     OW21543  10.802  12.996   4.446
 6549SOL    HW121544  10.856  13.069   4.417
 6549SOL    HW221545  10.719  13.006   4.399
 6550SOL     OW21546   3.485   2.689   1.005
 6550SOL    HW121547   3.504   2.731   1.088
 6550SOL    HW221548   3.555   2.624   0.994
 6551SOL     OW21549   0.135   6.374   5.243
 6551SOL    HW121550   0.064   6.407   5.188
 6551SOL    HW221551   0.155   6.447   5.302
 6552SOL     OW21552  12.643   7.771   4.594
 6552SOL    HW121553  12.565   7.799   4.643
 6552SOL    HW221554  12.627   7.802   4.505
 6553SOL     OW21555  12.727   4.040  13.673
 6553SOL    HW121556  12.706   3.968  13.732
 6553SOL    HW221557  12.661   4.107  13.692
 6554SOL     OW21558  14.097   2.389   7.592
 6554SOL    HW121559  14.103   2.297   7.568
 6554SOL    HW221560  14.009   2.399   7.628
 6555SOL     OW21561   2.565   1.376   9.420
 6555SOL    HW121562   2.640   1.320   9.402
 6555SOL    HW221563   2.575   1.449   9.360
 6556SOL     OW21564   8.104   0.949   0.575
 6556SOL    HW121565   8.094   0.943   0.670
 6556SOL    HW221566   8.196   0.928   0.559
 6557SOL     OW21567  14.360   9.533   2.611
 6557SOL    HW121568  14.336   9.563   2.524
 6557SOL    HW221569  14.288   9.476   2.637
 6558SOL     OW21570   1.538  12.530   8.892
 6558SOL    HW121571   1.475  12.463   8.866
 6558SOL    HW221572   1.588  12.548   8.813
 6559SOL     OW21573   0.940   5.909   1.683
 6559SOL    HW121574   0.942   5.993   1.636
 6559SOL    HW221575   0.957   5.933   1.774
 6560SOL     OW21576   2.868  14.259   1.147
 6560SOL    HW121577   2.775  14.276   1.162
 6560SOL    HW221578   2.880  14.166   1.164
 6561SOL     OW21579   8.448   2.175   6.411
 6561SOL    HW121580   8.522   2.126   6.377
 6561SOL    HW221581   8.374   2.149   6.355
 6562SOL     OW21582   3.629   5.724   7.473
 6562SOL    HW121583   3.714   5.690   7.447
 6562SOL    HW221584   3.634   5.733   7.568
 6563SOL     OW21585  11.900  13.462   2.817
 6563SOL    HW121586  11.976  13.411   2.845
 6563SOL    HW221587  11.912  13.473   2.722
 6564SOL     OW21588  11.252  14.614  11.518
 6564SOL    HW121589  11.321  14.663  11.473
 6564SOL    HW221590  11.298  14.542  11.562
 6565SOL     OW21591   4.556   6.891   2.704
 6565SOL    HW121592   4.557   6.869   2.611
 6565SOL    HW221593   4.626   6.839   2.742
 6566SOL     OW21594  14.224   8.929   9.536
 6566SOL    HW121595  14.312   8.918   9.501
 6566SOL    HW221596  14.175   8.972   9.466
 6567SOL     OW21597   2.749  10.714  13.093
 6567SOL    HW121598   2.732  10.621  13.109
 6567SOL    HW221599   2.706  10.759  13.165
 6568SOL     OW21600   0.321   7.371   3.566
 6568SOL    HW121601   0.348   7.369   3.657
 6568SOL    HW221602   0.400   7.350   3.517
 6569SOL     OW21603  14.441   7.012   5.112
 6569SOL    HW121604  14.382   7.085   5.131
 6569SOL    HW221605  14.396   6.935   5.147
 6570SOL     OW21606   4.243  10.431   8.686
 6570SOL    HW121607   4.153  10.453   8.660
 6570SOL    HW221608   4.289  10.514   8.683
 6571SOL     OW21609   0.131  14.649   1.992
 6571SOL    HW121610   0.049  14.669   2.037
 6571SOL    HW221611   0.190  14.720   2.017
 6572SOL     OW21612  12.716  12.084   1.425
 6572SOL    HW121613  12.681  12.152   1.482
 6572SOL    HW221614  12.689  12.109   1.337
 6573SOL     OW21615  14.460   4.318  10.736
 6573SOL    HW121616  14.435   4.226  10.724
 6573SOL    HW221617  14.461   4.354  10.647
 6574SOL     OW21618  14.510  12.316  10.643
 6574SOL    HW121619  14.556  12.244  10.687
 6574SOL    HW221620  14.563  12.337  10.567
 6575SOL     OW21621   2.298  14.754  11.575
 6575SOL    HW121622   2.381  14.709  11.560
 6575SOL    HW221623   2.264  14.772  11.487
 6576SOL     OW21624   0.545   3.875  14.034
 6576SOL    HW121625   0.537   3.788  13.995
 6576SOL    HW221626   0.455   3.905  14.047
 6577SOL     OW21627  13.035   1.569   7.808
 6577SOL    HW121628  12.957   1.621   7.788
 6577SOL    HW221629  13.034   1.499   7.743
 6578SOL     OW21630   4.883   9.060  12.066
 6578SOL    HW121631   4.899   9.144  12.110
 6578SOL    HW221632   4.966   9.013  12.074
 6579SOL     OW21633   0.300   5.270   4.002
 6579SOL    HW121634   0.304   5.177   3.980
 6579SOL    HW221635   0.253   5.310   3.929
 6580SOL     OW21636  14.402   4.399   2.895
 6580SOL    HW121637  14.353   4.406   2.977
 6580SOL    HW221638  14.453   4.480   2.890
 6581SOL     OW21639   5.967   5.374  10.077
 6581SOL    HW121640   5.970   5.279  10.089
 6581SOL    HW221641   5.907   5.386  10.003
 6582SOL     OW21642  12.689   3.566  11.915
 6582SOL    HW121643  12.743   3.490  11.894
 6582SOL    HW221644  12.721   3.634  11.855
 6583SOL     OW21645  11.174   7.945  12.738
 6583SOL    HW121646  11.261   7.938  12.699
 6583SOL    HW221647  11.184   7.903  12.824
 6584SOL     OW21648   7.542   1.669  11.827
 6584SOL    HW121649   7.452   1.645  11.806
 6584SOL    HW221650   7.591   1.650  11.747
 6585SOL     OW21651   1.791  13.738  13.935
 6585SOL    HW121652   1.886  13.736  13.939
 6585SOL    HW221653   1.762  13.725  14.025
 6586SOL     OW21654   9.845  14.066   7.222
 6586SOL    HW121655   9.846  14.162   7.221
 6586SOL    HW221656   9.857  14.042   7.130
 6587SOL     OW21657  11.691  10.313   2.423
 6587SOL    HW121658  11.717  10.222   2.437
 6587SOL    HW221659  11.615  10.325   2.480
 6588SOL     OW21660  13.458   7.945  12.754
 6588SOL    HW121661  13.550   7.953  12.779
 6588SOL    HW221662  13.458   7.879  12.684
 6589SOL     OW21663  14.525   7.507   0.660
 6589SOL    HW121664  14.591   7.493   0.727
 6589SOL    HW221665  14.444   7.475   0.699
 6590SOL     OW21666  11.434   6.617   3.784
 6590SOL    HW121667  11.410   6.649   3.871
 6590SOL    HW221668  11.432   6.522   3.792
 6591SOL     OW21669   2.926  13.564   0.691
 6591SOL    HW121670   2.978  13.643   0.682
 6591SOL    HW221671   2.990  13.497   0.719
 6592SOL     OW21672   2.911  13.391   6.918
 6592SOL    HW121673   2.844  13.454   6.944
 6592SOL    HW221674   2.955  13.432   6.844
 6593SOL     OW21675  13.827   7.882  13.249
 6593SOL    HW121676  13.864   7.856  13.165
 6593SOL    HW221677  13.732   7.885  13.234
 6594SOL     OW21678   1.563   3.446  14.019
 6594SOL    HW121679   1.469   3.445  14.035
 6594SOL    HW221680   1.601   3.488  14.096
 6595SOL     OW21681   5.834   7.107   8.720
 6595SOL    HW121682   5.761   7.164   8.741
 6595SOL    HW221683   5.875   7.089   8.805
 6596SOL     OW21684   6.775   9.660   3.742
 6596SOL    HW121685   6.812   9.623   3.823
 6596SOL    HW221686   6.830   9.624   3.673
 6597SOL     OW21687  12.923   3.460   1.046
 6597SOL    HW121688  12.888   3.381   1.085
 6597SOL    HW221689  12.888   3.460   0.957
 6598SOL     OW21690   7.435   7.510   5.755
 6598SOL    HW121691   7.389   7.587   5.791
 6598SOL    HW221692   7.415   7.440   5.816
 6599SOL     OW21693   8.402  11.268  12.569
 6599SOL    HW121694   8.396  11.232  12.657
 6599SOL    HW221695   8.462  11.210  12.522
 6600SOL     OW21696   1.660   2.828   8.654
 6600SOL    HW121697   1.576   2.864   8.680
 6600SOL    HW221698   1.660   2.831   8.559
 6601SOL     OW21699  12.001  12.630   7.125
 6601SOL    HW121700  12.088  12.608   7.157
 6601SOL    HW221701  11.958  12.545   7.112
 6602SOL     OW21702   4.613  13.892   3.097
 6602SOL    HW121703   4.623  13.856   3.186
 6602SOL    HW221704   4.647  13.824   3.040
 6603SOL     OW21705   6.123   2.581   7.460
 6603SOL    HW121706   6.138   2.553   7.370
 6603SOL    HW221707   6.038   2.543   7.483
 6604SOL     OW21708  10.135   0.285   0.448
 6604SOL    HW121709  10.078   0.353   0.413
 6604SOL    HW221710  10.222   0.325   0.450
 6605SOL     OW21711   5.874  14.548   5.505
 6605SOL    HW121712   5.964  14.528   5.533
 6605SOL    HW221713   5.857  14.486   5.433
 6606SOL     OW21714   3.456   8.281   6.553
 6606SOL    HW121715   3.545   8.246   6.546
 6606SOL    HW221716   3.412   8.251   6.474
 6607SOL     OW21717   4.939   3.896   9.657
 6607SOL    HW121718   4.936   3.989   9.679
 6607SOL    HW221719   5.030   3.871   9.668
 6608SOL     OW21720   4.214   0.984  13.071
 6608SOL    HW121721   4.296   1.019  13.106
 6608SOL    HW221722   4.240   0.904  13.024
 6609SOL     OW21723  14.802  13.605   9.709
 6609SOL    HW121724  14.746  13.682   9.720
 6609SOL    HW221725  14.848  13.598   9.793
 6610SOL     OW21726   1.556   2.804   6.326
 6610SOL    HW121727   1.548   2.886   6.375
 6610SOL    HW221728   1.617   2.824   6.255
 6611SOL     OW21729   7.920   5.256  10.290
 6611SOL    HW121730   7.906   5.187  10.355
 6611SOL    HW221731   7.832   5.291  10.273
 6612SOL     OW21732   2.955   3.230   4.782
 6612SOL    HW121733   2.959   3.188   4.696
 6612SOL    HW221734   3.025   3.296   4.780
 6613SOL     OW21735   7.349   2.448   6.097
 6613SOL    HW121736   7.368   2.361   6.064
 6613SOL    HW221737   7.341   2.437   6.192
 6614SOL     OW21738   4.647   1.688  12.725
 6614SOL    HW121739   4.577   1.623  12.730
 6614SOL    HW221740   4.728   1.638  12.731
 6615SOL     OW21741  11.177   0.493   5.679
 6615SOL    HW121742  11.084   0.502   5.657
 6615SOL    HW221743  11.188   0.550   5.755
 6616SOL     OW21744   9.157  13.733  10.272
 6616SOL    HW121745   9.169  13.815  10.224
 6616SOL    HW221746   9.062  13.721  10.276
 6617SOL     OW21747   9.348   9.025   4.000
 6617SOL    HW121748   9.394   8.973   3.934
 6617SOL    HW221749   9.413   9.040   4.068
 6618SOL     OW21750  14.175   5.248   7.493
 6618SOL    HW121751  14.256   5.254   7.442
 6618SOL    HW221752  14.131   5.171   7.457
 6619SOL     OW21753   9.041   0.921   0.319
 6619SOL    HW121754   9.068   0.860   0.250
 6619SOL    HW221755   8.986   0.869   0.377
 6620SOL     OW21756  12.003   9.681  13.807
 6620SOL    HW121757  12.001   9.689  13.712
 6620SOL    HW221758  12.068   9.612  13.824
 6621SOL     OW21759   6.236   4.463   6.400
 6621SOL    HW121760   6.150   4.446   6.440
 6621SOL    HW221761   6.293   4.396   6.438
 6622SOL     OW21762   1.932   6.112  10.689
 6622SOL    HW121763   1.990   6.077  10.757
 6622SOL    HW221764   1.860   6.048  10.684
 6623SOL     OW21765   4.807  11.672   5.520
 6623SOL    HW121766   4.884  11.704   5.567
 6623SOL    HW221767   4.738  11.669   5.586
 6624SOL     OW21768  11.621   8.428  13.285
 6624SOL    HW121769  11.561   8.471  13.346
 6624SOL    HW221770  11.707   8.435  13.326
 6625SOL     OW21771   4.961  11.407  13.795
 6625SOL    HW121772   4.906  11.347  13.744
 6625SOL    HW221773   4.900  11.452  13.853
 6626SOL     OW21774   4.629  11.028  11.614
 6626SOL    HW121775   4.611  10.936  11.633
 6626SOL    HW221776   4.723  11.030  11.594
 6627SOL     OW21777  13.438   2.550  12.999
 6627SOL    HW121778  13.415   2.577  13.087
 6627SOL    HW221779  13.526   2.585  12.985
 6628SOL     OW21780   0.650  11.606  11.357
 6628SOL    HW121781   0.695  11.596  11.441
 6628SOL    HW221782   0.564  11.642  11.380
 6629SOL     OW21783   8.486   1.459  11.109
 6629SOL    HW121784   8.451   1.534  11.061
 6629SOL    HW221785   8.550   1.420  11.049
 6630SOL     OW21786   4.053   6.726   6.139
 6630SOL    HW121787   4.101   6.752   6.060
 6630SOL    HW221788   4.097   6.646   6.169
 6631SOL     OW21789   9.892   0.524   8.164
 6631SOL    HW121790   9.943   0.566   8.094
 6631SOL    HW221791   9.838   0.595   8.199
 6632SOL     OW21792   6.358  13.887   1.025
 6632SOL    HW121793   6.448  13.891   1.055
 6632SOL    HW221794   6.351  13.955   0.958
 6633SOL     OW21795   9.041  12.993   6.298
 6633SOL    HW121796   9.001  13.040   6.224
 6633SOL    HW221797   8.989  13.018   6.374
 6634SOL     OW21798   3.561   1.455   1.795
 6634SOL    HW121799   3.521   1.428   1.712
 6634SOL    HW221800   3.602   1.376   1.829
 6635SOL     OW21801   4.739  13.118   5.233
 6635SOL    HW121802   4.793  13.077   5.301
 6635SOL    HW221803   4.691  13.045   5.193
 6636SOL     OW21804   5.437   8.133   8.649
 6636SOL    HW121805   5.426   8.178   8.732
 6636SOL    HW221806   5.473   8.199   8.590
 6637SOL     OW21807   4.025  14.855   6.522
 6637SOL    HW121808   4.113   0.002   6.495
 6637SOL    HW221809   3.972   0.054   6.513
 6638SOL     OW21810  14.521   5.531  11.604
 6638SOL    HW121811  14.531   5.448  11.650
 6638SOL    HW221812  14.489   5.506  11.517
 6639SOL     OW21813   0.330   5.142   2.665
 6639SOL    HW121814   0.394   5.180   2.725
 6639SOL    HW221815   0.305   5.059   2.706
 6640SOL     OW21816   2.475   9.246   9.646
 6640SOL    HW121817   2.515   9.202   9.572
 6640SOL    HW221818   2.549   9.290   9.690
 6641SOL     OW21819  13.342   2.017   2.685
 6641SOL    HW121820  13.301   2.099   2.658
 6641SOL    HW221821  13.432   2.023   2.652
 6642SOL     OW21822  13.624   2.484   5.494
 6642SOL    HW121823  13.634   2.539   5.571
 6642SOL    HW221824  13.538   2.507   5.459
 6643SOL     OW21825   1.925  12.810   7.241
 6643SOL    HW121826   1.866  12.758   7.186
 6643SOL    HW221827   2.009  12.765   7.236
 6644SOL     OW21828  10.376   2.138  11.727
 6644SOL    HW121829  10.331   2.144  11.643
 6644SOL    HW221830  10.347   2.215  11.775
 6645SOL     OW21831  13.693   4.293   0.898
 6645SOL    HW121832  13.695   4.367   0.958
 6645SOL    HW221833  13.699   4.332   0.811
 6646SOL     OW21834   1.351   2.344  12.095
 6646SOL    HW121835   1.325   2.259  12.131
 6646SOL    HW221836   1.368   2.326  12.002
 6647SOL     OW21837  10.143   6.890   7.253
 6647SOL    HW121838  10.065   6.867   7.202
 6647SOL    HW221839  10.164   6.810   7.301
 6648SOL     OW21840   7.078   7.263   7.788
 6648SOL    HW121841   7.128   7.197   7.740
 6648SOL    HW221842   7.130   7.282   7.865
 6649SOL     OW21843   3.556  12.438  12.714
 6649SOL    HW121844   3.479  12.386  12.692
 6649SOL    HW221845   3.626  12.401  12.660
 6650SOL     OW21846   9.701   4.264   9.526
 6650SOL    HW121847   9.674   4.304   9.609
 6650SOL    HW221848   9.633   4.288   9.464
 6651SOL     OW21849   1.407   1.867   6.858
 6651SOL    HW121850   1.440   1.943   6.906
 6651SOL    HW221851   1.397   1.898   6.768
 6652SOL     OW21852   3.431   8.895   9.580
 6652SOL    HW121853   3.416   8.901   9.674
 6652SOL    HW221854   3.518   8.855   9.571
 6653SOL     OW21855   5.393   8.839  11.691
 6653SOL    HW121856   5.458   8.892  11.737
 6653SOL    HW221857   5.430   8.827  11.604
 6654SOL     OW21858  13.620  14.674  10.752
 6654SOL    HW121859  13.591  14.731  10.681
 6654SOL    HW221860  13.703  14.712  10.781
 6655SOL     OW21861   1.681   5.040   2.626
 6655SOL    HW121862   1.718   4.980   2.562
 6655SOL    HW221863   1.733   5.120   2.617
 6656SOL     OW21864   5.750   7.105   5.166
 6656SOL    HW121865   5.828   7.137   5.212
 6656SOL    HW221866   5.722   7.178   5.112
 6657SOL     OW21867   8.799  11.352   8.210
 6657SOL    HW121868   8.804  11.297   8.132
 6657SOL    HW221869   8.781  11.291   8.281
 6658SOL     OW21870  13.018   1.657  10.610
 6658SOL    HW121871  13.088   1.655  10.545
 6658SOL    HW221872  12.993   1.565  10.622
 6659SOL     OW21873   9.872   3.928   2.431
 6659SOL    HW121874   9.839   3.859   2.374
 6659SOL    HW221875   9.793   3.966   2.471
 6660SOL     OW21876   1.076   9.750   7.755
 6660SOL    HW121877   1.086   9.738   7.849
 6660SOL    HW221878   1.166   9.754   7.721
 6661SOL     OW21879   6.216   2.483   3.419
 6661SOL    HW121880   6.282   2.439   3.473
 6661SOL    HW221881   6.240   2.575   3.422
 6662SOL     OW21882  12.188  12.388   9.629
 6662SOL    HW121883  12.181  12.470   9.580
 6662SOL    HW221884  12.135  12.403   9.707
 6663SOL     OW21885   3.355   7.849   9.645
 6663SOL    HW121886   3.445   7.882   9.638
 6663SOL    HW221887   3.337   7.811   9.559
 6664SOL     OW21888  10.574   5.980  12.846
 6664SOL    HW121889  10.665   5.963  12.868
 6664SOL    HW221890  10.576   6.062  12.795
 6665SOL     OW21891   2.623  12.072   7.007
 6665SOL    HW121892   2.683  12.097   6.937
 6665SOL    HW221893   2.641  12.134   7.078
 6666SOL     OW21894   7.969   5.761   1.520
 6666SOL    HW121895   7.874   5.771   1.518
 6666SOL    HW221896   7.992   5.761   1.613
 6667SOL     OW21897   7.334   8.271  11.318
 6667SOL    HW121898   7.388   8.335  11.271
 6667SOL    HW221899   7.266   8.323  11.360
 6668SOL     OW21900   0.120   4.938   8.843
 6668SOL    HW121901   0.148   4.846   8.837
 6668SOL    HW221902   0.199   4.986   8.867
 6669SOL     OW21903   7.552  10.739   5.129
 6669SOL    HW121904   7.586  10.660   5.089
 6669SOL    HW221905   7.595  10.811   5.082
 6670SOL     OW21906   9.966   4.965  10.304
 6670SOL    HW121907   9.937   4.920  10.225
 6670SOL    HW221908  10.027   5.031  10.272
 6671SOL     OW21909  11.831   5.318   2.066
 6671SOL    HW121910  11.907   5.269   2.099
 6671SOL    HW221911  11.817   5.387   2.130
 6672SOL     OW21912   9.042   8.920   7.931
 6672SOL    HW121913   9.032   8.922   8.026
 6672SOL    HW221914   9.134   8.941   7.916
 6673SOL     OW21915  12.947   9.634  12.628
 6673SOL    HW121916  12.891   9.557  12.627
 6673SOL    HW221917  12.888   9.706  12.652
 6674SOL     OW21918  11.638  14.560   2.597
 6674SOL    HW121919  11.642  14.582   2.504
 6674SOL    HW221920  11.565  14.498   2.603
 6675SOL     OW21921  10.739   7.228   9.803
 6675SOL    HW121922  10.811   7.246   9.743
 6675SOL    HW221923  10.743   7.134   9.817
 6676SOL     OW21924  14.187  10.070   4.045
 6676SOL    HW121925  14.235  10.144   4.010
 6676SOL    HW221926  14.182  10.087   4.139
 6677SOL     OW21927  11.209   3.269   5.395
 6677SOL    HW121928  11.304   3.276   5.406
 6677SOL    HW221929  11.175   3.350   5.432
 6678SOL     OW21930  12.390  11.170   5.147
 6678SOL    HW121931  12.345  11.105   5.201
 6678SOL    HW221932  12.325  11.240   5.135
 6679SOL     OW21933   7.824   8.156   1.697
 6679SOL    HW121934   7.743   8.182   1.652
 6679SOL    HW221935   7.808   8.178   1.789
 6680SOL     OW21936   8.490   9.726  14.445
 6680SOL    HW121937   8.467   9.815  14.473
 6680SOL    HW221938   8.566   9.738  14.387
 6681SOL     OW21939   5.789   4.963   1.333
 6681SOL    HW121940   5.721   4.963   1.400
 6681SOL    HW221941   5.756   5.022   1.265
 6682SOL     OW21942  13.101   5.712   9.765
 6682SOL    HW121943  13.077   5.649   9.833
 6682SOL    HW221944  13.024   5.768   9.756
 6683SOL     OW21945  13.512  13.412   7.461
 6683SOL    HW121946  13.440  13.473   7.442
 6683SOL    HW221947  13.586  13.445   7.409
 6684SOL     OW21948  12.822  10.497   0.838
 6684SOL    HW121949  12.845  10.585   0.865
 6684SOL    HW221950  12.872  10.482   0.758
 6685SOL     OW21951   1.659   5.580   7.719
 6685SOL    HW121952   1.673   5.664   7.676
 6685SOL    HW221953   1.565   5.563   7.708
 6686SOL     OW21954  10.640  10.778   4.931
 6686SOL    HW121955  10.585  10.857   4.929
 6686SOL    HW221956  10.639  10.751   5.023
 6687SOL     OW21957   5.419  11.655   1.274
 6687SOL    HW121958   5.463  11.737   1.296
 6687SOL    HW221959   5.456  11.629   1.190
 6688SOL     OW21960  13.792   4.952  14.391
 6688SOL    HW121961  13.879   4.929  14.359
 6688SOL    HW221962  13.788   5.048  14.385
 6689SOL     OW21963   7.520   9.258  13.934
 6689SOL    HW121964   7.530   9.179  13.881
 6689SOL    HW221965   7.606   9.270  13.975
 6690SOL     OW21966   7.728   4.871  13.591
 6690SOL    HW121967   7.742   4.906  13.503
 6690SOL    HW221968   7.721   4.776  13.579
 6691SOL     OW21969   0.573   3.479   3.260
 6691SOL    HW121970   0.625   3.414   3.212
 6691SOL    HW221971   0.637   3.546   3.286
 6692SOL     OW21972   4.792   9.899   6.963
 6692SOL    HW121973   4.826   9.937   6.883
 6692SOL    HW221974   4.868   9.891   7.021
 6693SOL     OW21975   9.053   5.897  13.535
 6693SOL    HW121976   9.062   5.899  13.630
 6693SOL    HW221977   8.967   5.859  13.519
 6694SOL     OW21978   7.502   6.077  13.257
 6694SOL    HW121979   7.569   6.095  13.191
 6694SOL    HW221980   7.424   6.054  13.207
 6695SOL     OW21981  14.356   0.476   6.708
 6695SOL    HW121982  14.421   0.461   6.776
 6695SOL    HW221983  14.366   0.403   6.647
 6696SOL     OW21984   6.132   0.627   3.694
 6696SOL    HW121985   6.121   0.718   3.667
 6696SOL    HW221986   6.096   0.624   3.783
 6697SOL     OW21987  10.724   6.925  11.631
 6697SOL    HW121988  10.770   6.934  11.548
 6697SOL    HW221989  10.631   6.930  11.607
 6698SOL     OW21990  10.771  12.440   6.020
 6698SOL    HW121991  10.718  12.469   5.945
 6698SOL    HW221992  10.856  12.483   6.007
 6699SOL     OW21993   5.151   8.136   8.499
 6699SOL    HW121994   5.055   8.134   8.496
 6699SOL    HW221995   5.178   8.053   8.460
 6700SOL     OW21996   5.578  12.727  11.356
 6700SOL    HW121997   5.594  12.651  11.411
 6700SOL    HW221998   5.601  12.699  11.268
 6701SOL     OW21999   3.864   9.249   9.351
 6701SOL    HW122000   3.813   9.167   9.351
 6701SOL    HW222001   3.800   9.316   9.376
 6702SOL     OW22002   3.562   0.487  11.797
 6702SOL    HW122003   3.554   0.428  11.872
 6702SOL    HW222004   3.655   0.486  11.776
 6703SOL     OW22005  14.266   1.969   4.783
 6703SOL    HW122006  14.277   2.047   4.730
 6703SOL    HW222007  14.172   1.966   4.803
 6704SOL     OW22008   2.617   3.882   4.673
 6704SOL    HW122009   2.628   3.863   4.766
 6704SOL    HW222010   2.560   3.958   4.671
 6705SOL     OW22011   6.573   6.353   9.504
 6705SOL    HW122012   6.572   6.422   9.438
 6705SOL    HW222013   6.511   6.287   9.471
 6706SOL     OW22014  12.994  10.576  13.146
 6706SOL    HW122015  13.024  10.507  13.206
 6706SOL    HW222016  12.969  10.648  13.204
 6707SOL     OW22017   2.241   0.401  10.426
 6707SOL    HW122018   2.234   0.307  10.408
 6707SOL    HW222019   2.154   0.436  10.405
 6708SOL     OW22020  14.726   0.165   8.947
 6708SOL    HW122021  14.699   0.206   9.030
 6708SOL    HW222022  14.679   0.215   8.880
 6709SOL     OW22023  11.521  12.107   9.794
 6709SOL    HW122024  11.455  12.137   9.731
 6709SOL    HW222025  11.470  12.068   9.865
 6710SOL     OW22026   4.612   0.731   2.538
 6710SOL    HW122027   4.650   0.803   2.588
 6710SOL    HW222028   4.649   0.741   2.450
 6711SOL     OW22029  10.101   5.149   4.398
 6711SOL    HW122030  10.139   5.140   4.485
 6711SOL    HW222031  10.112   5.063   4.357
 6712SOL     OW22032  11.763   6.483   8.156
 6712SOL    HW122033  11.716   6.566   8.166
 6712SOL    HW222034  11.815   6.476   8.237
 6713SOL     OW22035   7.540   4.218  11.330
 6713SOL    HW122036   7.552   4.235  11.236
 6713SOL    HW222037   7.461   4.164  11.334
 6714SOL     OW22038   4.373   0.323   0.411
 6714SOL    HW122039   4.416   0.408   0.426
 6714SOL    HW222040   4.442   0.259   0.427
 6715SOL     OW22041   7.063  13.548  10.267
 6715SOL    HW122042   7.000  13.546  10.339
 6715SOL    HW222043   7.044  13.630  10.221
 6716SOL     OW22044   4.297   8.961  10.577
 6716SOL    HW122045   4.220   8.961  10.633
 6716SOL    HW222046   4.288   9.040  10.524
 6717SOL     OW22047   8.982   9.219   6.245
 6717SOL    HW122048   8.940   9.138   6.275
 6717SOL    HW222049   8.981   9.212   6.150
 6718SOL     OW22050  11.710   7.240   0.509
 6718SOL    HW122051  11.742   7.285   0.588
 6718SOL    HW222052  11.789   7.216   0.462
 6719SOL     OW22053   9.223   6.785   7.875
 6719SOL    HW122054   9.287   6.830   7.930
 6719SOL    HW222055   9.140   6.797   7.920
 6720SOL     OW22056   7.800   2.750   2.505
 6720SOL    HW122057   7.802   2.654   2.503
 6720SOL    HW222058   7.847   2.773   2.585
 6721SOL     OW22059   7.983   0.239  10.062
 6721SOL    HW122060   8.055   0.247   9.999
 6721SOL    HW222061   8.026   0.232  10.147
 6722SOL     OW22062  10.571   7.637  14.721
 6722SOL    HW122063  10.488   7.632  14.769
 6722SOL    HW222064  10.548   7.616  14.630
 6723SOL     OW22065   9.860   1.627   6.507
 6723SOL    HW122066   9.801   1.702   6.508
 6723SOL    HW222067   9.827   1.570   6.577
 6724SOL     OW22068  10.664   5.271   6.928
 6724SOL    HW122069  10.632   5.259   7.018
 6724SOL    HW222070  10.585   5.284   6.876
 6725SOL     OW22071  11.674   7.479   2.196
 6725SOL    HW122072  11.669   7.405   2.136
 6725SOL    HW222073  11.627   7.549   2.152
 6726SOL     OW22074   3.636   3.743   1.047
 6726SOL    HW122075   3.549   3.781   1.051
 6726SOL    HW222076   3.642   3.687   1.124
 6727SOL     OW22077  11.867  10.506   7.003
 6727SOL    HW122078  11.893  10.544   6.919
 6727SOL    HW222079  11.773  10.491   6.994
 6728SOL     OW22080  13.988  11.422   8.771
 6728SOL    HW122081  13.964  11.402   8.861
 6728SOL    HW222082  14.080  11.394   8.764
 6729SOL     OW22083   6.999  12.221   4.706
 6729SOL    HW122084   7.018  12.253   4.794
 6729SOL    HW222085   7.031  12.290   4.648
 6730SOL     OW22086   1.500   6.432   6.281
 6730SOL    HW122087   1.464   6.488   6.212
 6730SOL    HW222088   1.493   6.343   6.246
 6731SOL     OW22089   1.551   5.955   6.955
 6731SOL    HW122090   1.478   5.983   7.010
 6731SOL    HW222091   1.520   5.876   6.912
 6732SOL     OW22092   4.581   0.893   6.195
 6732SOL    HW122093   4.574   0.937   6.110
 6732SOL    HW222094   4.660   0.840   6.189
 6733SOL     OW22095   8.697   5.523   9.889
 6733SOL    HW122096   8.640   5.458   9.930
 6733SOL    HW222097   8.680   5.604   9.938
 6734SOL     OW22098   4.786  11.194  13.668
 6734SOL    HW122099   4.835  11.138  13.608
 6734SOL    HW222100   4.709  11.143  13.692
 6735SOL     OW22101   7.677  14.205   8.204
 6735SOL    HW122102   7.752  14.202   8.263
 6735SOL    HW222103   7.618  14.269   8.243
 6736SOL     OW22104  12.202   9.339  12.886
 6736SOL    HW122105  12.173   9.419  12.931
 6736SOL    HW222106  12.158   9.342  12.801
 6737SOL     OW22107  14.385   1.120   8.967
 6737SOL    HW122108  14.481   1.123   8.966
 6737SOL    HW222109  14.360   1.165   9.048
 6738SOL     OW22110   1.846   6.354  10.746
 6738SOL    HW122111   1.897   6.274  10.755
 6738SOL    HW222112   1.810   6.350  10.658
 6739SOL     OW22113   4.660   5.332   0.488
 6739SOL    HW122114   4.676   5.238   0.496
 6739SOL    HW222115   4.747   5.370   0.479
 6740SOL     OW22116   7.882   0.858   1.162
 6740SOL    HW122117   7.869   0.861   1.257
 6740SOL    HW222118   7.823   0.925   1.127
 6741SOL     OW22119  10.905  14.341   1.774
 6741SOL    HW122120  10.900  14.436   1.780
 6741SOL    HW222121  10.881  14.310   1.861
 6742SOL     OW22122  13.391   5.739   7.802
 6742SOL    HW122123  13.474   5.692   7.791
 6742SOL    HW222124  13.341   5.719   7.723
 6743SOL     OW22125  10.646   3.926   9.126
 6743SOL    HW122126  10.575   3.989   9.141
 6743SOL    HW222127  10.703   3.936   9.202
 6744SOL     OW22128   4.860   2.140   7.488
 6744SOL    HW122129   4.847   2.045   7.484
 6744SOL    HW222130   4.817   2.167   7.569
 6745SOL     OW22131   7.204   6.548   4.395
 6745SOL    HW122132   7.168   6.546   4.484
 6745SOL    HW222133   7.258   6.627   4.393
 6746SOL     OW22134   4.505   1.587   0.571
 6746SOL    HW122135   4.551   1.667   0.599
 6746SOL    HW222136   4.574   1.525   0.549
 6747SOL     OW22137  11.917   6.568  12.846
 6747SOL    HW122138  11.924   6.654  12.887
 6747SOL    HW222139  11.946   6.582  12.756
 6748SOL     OW22140   2.220  12.844   9.683
 6748SOL    HW122141   2.308  12.824   9.653
 6748SOL    HW222142   2.233  12.877   9.773
 6749SOL     OW22143  10.790   2.759   1.756
 6749SOL    HW122144  10.744   2.752   1.840
 6749SOL    HW222145  10.739   2.705   1.696
 6750SOL     OW22146  11.211  14.193   8.679
 6750SOL    HW122147  11.172  14.212   8.594
 6750SOL    HW222148  11.305  14.206   8.666
 6751SOL     OW22149   5.481  10.453   3.737
 6751SOL    HW122150   5.574  10.462   3.715
 6751SOL    HW222151   5.459  10.363   3.714
 6752SOL     OW22152  12.762  11.906   1.855
 6752SOL    HW122153  12.845  11.904   1.807
 6752SOL    HW222154  12.786  11.935   1.943
 6753SOL     OW22155   8.841  14.007   5.968
 6753SOL    HW122156   8.844  13.959   5.886
 6753SOL    HW222157   8.846  13.940   6.036
 6754SOL     OW22158  10.831   2.448   3.963
 6754SOL    HW122159  10.923   2.426   3.977
 6754SOL    HW222160  10.795   2.372   3.918
 6755SOL     OW22161   3.417   4.053   0.395
 6755SOL    HW122162   3.327   4.033   0.371
 6755SOL    HW222163   3.431   4.006   0.478
 6756SOL     OW22164   6.972   4.625   6.975
 6756SOL    HW122165   6.954   4.536   6.946
 6756SOL    HW222166   6.994   4.616   7.068
 6757SOL     OW22167  11.513  11.568   6.807
 6757SOL    HW122168  11.483  11.630   6.874
 6757SOL    HW222169  11.467  11.595   6.727
 6758SOL     OW22170  10.209   4.260   9.570
 6758SOL    HW122171  10.188   4.196   9.638
 6758SOL    HW222172  10.123   4.290   9.539
 6759SOL     OW22173  11.627  10.057   7.509
 6759SOL    HW122174  11.569  10.100   7.446
 6759SOL    HW222175  11.610  10.101   7.592
 6760SOL     OW22176   4.601   7.527   9.670
 6760SOL    HW122177   4.590   7.449   9.725
 6760SOL    HW222178   4.575   7.498   9.583
 6761SOL     OW22179   7.142   2.046   2.743
 6761SOL    HW122180   7.128   2.111   2.674
 6761SOL    HW222181   7.054   2.018   2.769
 6762SOL     OW22182  12.178   5.801   6.232
 6762SOL    HW122183  12.134   5.750   6.300
 6762SOL    HW222184  12.110   5.859   6.198
 6763SOL     OW22185   8.574  10.673   3.369
 6763SOL    HW122186   8.669  10.660   3.367
 6763SOL    HW222187   8.541  10.622   3.295
 6764SOL     OW22188  13.738   3.916   0.755
 6764SOL    HW122189  13.687   3.944   0.679
 6764SOL    HW222190  13.810   3.864   0.717
 6765SOL     OW22191   6.475   7.687   8.855
 6765SOL    HW122192   6.462   7.768   8.905
 6765SOL    HW222193   6.559   7.653   8.885
 6766SOL     OW22194   2.086   6.626   8.998
 6766SOL    HW122195   2.057   6.545   8.956
 6766SOL    HW222196   2.172   6.644   8.959
 6767SOL     OW22197   9.989   6.943   1.261
 6767SOL    HW122198   9.950   6.932   1.348
 6767SOL    HW222199   9.989   7.037   1.246
 6768SOL     OW22200   4.074  13.995  13.344
 6768SOL    HW122201   3.991  13.950  13.331
 6768SOL    HW222202   4.051  14.087  13.354
 6769SOL     OW22203   6.931  10.274   5.658
 6769SOL    HW122204   6.910  10.195   5.608
 6769SOL    HW222205   7.019  10.298   5.628
 6770SOL     OW22206   8.275  10.512   1.110
 6770SOL    HW122207   8.260  10.438   1.168
 6770SOL    HW222208   8.368  10.534   1.123
 6771SOL     OW22209   0.602  13.371   0.236
 6771SOL    HW122210   0.574  13.452   0.278
 6771SOL    HW222211   0.575  13.302   0.296
 6772SOL     OW22212  14.118   1.255   2.437
 6772SOL    HW122213  14.060   1.220   2.369
 6772SOL    HW222214  14.200   1.207   2.426
 6773SOL     OW22215   1.583   2.997   6.565
 6773SOL    HW122216   1.492   3.009   6.588
 6773SOL    HW222217   1.631   3.004   6.648
 6774SOL     OW22218  13.575   5.810  10.343
 6774SOL    HW122219  13.492   5.818  10.297
 6774SOL    HW222220  13.603   5.901  10.359
 6775SOL     OW22221   1.045   8.335  13.853
 6775SOL    HW122222   0.966   8.352  13.800
 6775SOL    HW222223   1.107   8.402  13.825
 6776SOL     OW22224   1.625  13.198   8.302
 6776SOL    HW122225   1.547  13.145   8.287
 6776SOL    HW222226   1.626  13.213   8.396
 6777SOL     OW22227   6.027  11.569  12.901
 6777SOL    HW122228   5.997  11.612  12.821
 6777SOL    HW222229   6.057  11.641  12.957
 6778SOL     OW22230   9.196   6.368   8.239
 6778SOL    HW122231   9.163   6.284   8.271
 6778SOL    HW222232   9.236   6.348   8.155
 6779SOL     OW22233   3.482   7.944   6.570
 6779SOL    HW122234   3.426   8.014   6.604
 6779SOL    HW222235   3.445   7.922   6.485
 6780SOL     OW22236   8.835   5.473   9.651
 6780SOL    HW122237   8.778   5.471   9.728
 6780SOL    HW222238   8.889   5.551   9.663
 6781SOL     OW22239   6.347   6.556  12.076
 6781SOL    HW122240   6.271   6.568  12.020
 6781SOL    HW222241   6.311   6.548  12.164
 6782SOL     OW22242  13.544   2.183   7.293
 6782SOL    HW122243  13.464   2.217   7.332
 6782SOL    HW222244  13.608   2.254   7.302
 6783SOL     OW22245   7.105  14.326  13.877
 6783SOL    HW122246   7.140  14.292  13.794
 6783SOL    HW222247   7.102  14.249  13.935
 6784SOL     OW22248   1.776  13.141   8.961
 6784SOL    HW122249   1.815  13.179   9.040
 6784SOL    HW222250   1.744  13.217   8.912
 6785SOL     OW22251  11.417  11.004  13.375
 6785SOL    HW122252  11.419  10.972  13.285
 6785SOL    HW222253  11.494  10.965  13.417
 6786SOL     OW22254   2.641  13.899   1.848
 6786SOL    HW122255   2.731  13.878   1.821
 6786SOL    HW222256   2.634  13.993   1.834
 6787SOL     OW22257  14.556   0.524   3.148
 6787SOL    HW122258  14.624   0.590   3.139
 6787SOL    HW222259  14.522   0.536   3.237
 6788SOL     OW22260  13.394   5.838  12.914
 6788SOL    HW122261  13.305   5.836  12.949
 6788SOL    HW222262  13.397   5.765  12.852
 6789SOL     OW22263   3.160   3.547   7.773
 6789SOL    HW122264   3.184   3.502   7.692
 6789SOL    HW222265   3.224   3.515   7.837
 6790SOL     OW22266   2.840  13.505   3.762
 6790SOL    HW122267   2.820  13.547   3.678
 6790SOL    HW222268   2.857  13.414   3.739
 6791SOL     OW22269   3.294  13.600  10.783
 6791SOL    HW122270   3.232  13.629  10.849
 6791SOL    HW222271   3.356  13.545  10.831
 6792SOL     OW22272   4.035   2.919  14.067
 6792SOL    HW122273   4.066   2.946  14.153
 6792SOL    HW222274   4.064   2.990  14.008
 6793SOL     OW22275   1.636   3.679   0.472
 6793SOL    HW122276   1.593   3.725   0.400
 6793SOL    HW222277   1.658   3.593   0.436
 6794SOL     OW22278   1.721   6.271   3.555
 6794SOL    HW122279   1.656   6.292   3.622
 6794SOL    HW222280   1.670   6.234   3.483
 6795SOL     OW22281  12.453   9.527  11.400
 6795SOL    HW122282  12.462   9.530  11.495
 6795SOL    HW222283  12.380   9.466  11.385
 6796SOL     OW22284   6.925   4.197  13.368
 6796SOL    HW122285   6.936   4.291  13.377
 6796SOL    HW222286   6.896   4.185  13.277
 6797SOL     OW22287   3.345  14.491   4.230
 6797SOL    HW122288   3.408  14.465   4.163
 6797SOL    HW222289   3.283  14.418   4.234
 6798SOL     OW22290   6.938  10.538   2.879
 6798SOL    HW122291   7.014  10.560   2.825
 6798SOL    HW222292   6.911  10.621   2.918
 6799SOL     OW22293  13.959   1.854  13.186
 6799SOL    HW122294  13.922   1.773  13.151
 6799SOL    HW222295  14.011   1.827  13.261
 6800SOL     OW22296  10.556  14.581   1.410
 6800SOL    HW122297  10.512  14.662   1.385
 6800SOL    HW222298  10.500  14.542   1.477
 6801SOL     OW22299  10.872   6.313  13.684
 6801SOL    HW122300  10.967   6.299  13.687
 6801SOL    HW222301  10.835   6.240  13.734
 6802SOL     OW22302   3.351   9.153  13.893
 6802SOL    HW122303   3.415   9.103  13.843
 6802SOL    HW222304   3.336   9.102  13.972
 6803SOL     OW22305   1.360   4.053   8.005
 6803SOL    HW122306   1.370   4.140   7.966
 6803SOL    HW222307   1.303   4.068   8.081
 6804SOL     OW22308   3.610   5.254   0.970
 6804SOL    HW122309   3.650   5.323   0.918
 6804SOL    HW222310   3.584   5.297   1.052
 6805SOL     OW22311  11.874  13.897  13.607
 6805SOL    HW122312  11.932  13.968  13.580
 6805SOL    HW222313  11.827  13.932  13.683
 6806SOL     OW22314  13.152  10.452  10.018
 6806SOL    HW122315  13.228  10.428   9.965
 6806SOL    HW222316  13.172  10.539  10.051
 6807SOL     OW22317   4.960  14.016   1.863
 6807SOL    HW122318   5.041  14.039   1.909
 6807SOL    HW222319   4.939  13.927   1.894
 6808SOL     OW22320   3.203  10.688  11.680
 6808SOL    HW122321   3.247  10.677  11.764
 6808SOL    HW222322   3.118  10.726  11.703
 6809SOL     OW22323   2.418   0.372   1.686
 6809SOL    HW122324   2.374   0.407   1.763
 6809SOL    HW222325   2.377   0.417   1.612
 6810SOL     OW22326   2.802  10.866  10.687
 6810SOL    HW122327   2.891  10.844  10.661
 6810SOL    HW222328   2.763  10.906  10.609
 6811SOL     OW22329   2.180  13.147  10.328
 6811SOL    HW122330   2.251  13.187  10.377
 6811SOL    HW222331   2.119  13.218  10.311
 6812SOL     OW22332  13.597   0.540  10.624
 6812SOL    HW122333  13.552   0.456  10.619
 6812SOL    HW222334  13.556   0.585  10.698
 6813SOL     OW22335   0.176  14.148   0.398
 6813SOL    HW122336   0.193  14.242   0.407
 6813SOL    HW222337   0.082  14.142   0.380
 6814SOL     OW22338   9.951  12.191   9.119
 6814SOL    HW122339   9.940  12.281   9.086
 6814SOL    HW222340   9.861  12.160   9.131
 6815SOL     OW22341   2.964   7.721   4.383
 6815SOL    HW122342   3.000   7.669   4.454
 6815SOL    HW222343   2.871   7.731   4.405
 6816SOL     OW22344  10.755  14.588   1.219
 6816SOL    HW122345  10.740  14.673   1.178
 6816SOL    HW222346  10.698  14.589   1.296
 6817SOL     OW22347   8.025   6.872   9.225
 6817SOL    HW122348   8.080   6.942   9.259
 6817SOL    HW222349   7.938   6.911   9.218
 6818SOL     OW22350   1.914   0.564  12.043
 6818SOL    HW122351   1.918   0.655  12.070
 6818SOL    HW222352   1.944   0.565  11.952
 6819SOL     OW22353   8.888  13.054   9.187
 6819SOL    HW122354   8.942  13.064   9.265
 6819SOL    HW222355   8.918  13.122   9.128
 6820SOL     OW22356   0.912  11.087  13.984
 6820SOL    HW122357   0.949  11.144  13.918
 6820SOL    HW222358   0.828  11.128  14.007
 6821SOL     OW22359  11.665  10.120  13.185
 6821SOL    HW122360  11.651  10.149  13.275
 6821SOL    HW222361  11.577  10.117  13.147
 6822SOL     OW22362   7.957   3.480   8.486
 6822SOL    HW122363   8.046   3.446   8.496
 6822SOL    HW222364   7.901   3.412   8.523
 6823SOL     OW22365   8.937  13.386   4.895
 6823SOL    HW122366   8.992  13.320   4.938
 6823SOL    HW222367   8.968  13.389   4.805
 6824SOL     OW22368   9.558   1.950   5.192
 6824SOL    HW122369   9.490   1.883   5.185
 6824SOL    HW222370   9.518   2.029   5.158
 6825SOL     OW22371   0.879  13.952   3.838
 6825SOL    HW122372   0.866  13.906   3.921
 6825SOL    HW222373   0.973  13.966   3.831
 6826SOL     OW22374  11.270   2.421   7.699
 6826SOL    HW122375  11.251   2.338   7.654
 6826SOL    HW222376  11.364   2.416   7.717
 6827SOL     OW22377  11.554   1.780  10.449
 6827SOL    HW122378  11.541   1.851  10.512
 6827SOL    HW222379  11.500   1.804  10.374
 6828SOL     OW22380   4.245   4.987   7.774
 6828SOL    HW122381   4.248   4.898   7.807
 6828SOL    HW222382   4.304   4.987   7.698
 6829SOL     OW22383   1.376  10.436   9.978
 6829SOL    HW122384   1.387  10.530   9.969
 6829SOL    HW222385   1.357  10.405   9.890
 6830SOL     OW22386  13.898   1.899   2.387
 6830SOL    HW122387  13.852   1.830   2.435
 6830SOL    HW222388  13.828   1.956   2.354
 6831SOL     OW22389   9.042   8.118   3.293
 6831SOL    HW122390   9.105   8.055   3.260
 6831SOL    HW222391   8.968   8.065   3.324
 6832SOL     OW22392   2.726   5.507   2.750
 6832SOL    HW122393   2.808   5.462   2.731
 6832SOL    HW222394   2.690   5.461   2.826
 6833SOL     OW22395   4.217  14.357   3.885
 6833SOL    HW122396   4.155  14.336   3.815
 6833SOL    HW222397   4.237  14.449   3.873
 6834SOL     OW22398   2.241   2.339  12.552
 6834SOL    HW122399   2.177   2.409  12.541
 6834SOL    HW222400   2.266   2.344  12.644
 6835SOL     OW22401   5.533   3.921   7.778
 6835SOL    HW122402   5.558   3.997   7.831
 6835SOL    HW222403   5.456   3.885   7.823
 6836SOL     OW22404   2.725  14.114   4.102
 6836SOL    HW122405   2.738  14.060   4.181
 6836SOL    HW222406   2.749  14.056   4.030
 6837SOL     OW22407   8.061   7.417   6.934
 6837SOL    HW122408   8.054   7.364   6.855
 6837SOL    HW222409   8.083   7.505   6.903
 6838SOL     OW22410  14.552  13.191  10.051
 6838SOL    HW122411  14.469  13.223  10.088
 6838SOL    HW222412  14.612  13.265  10.061
 6839SOL     OW22413  10.146   6.531   3.212
 6839SOL    HW122414  10.185   6.612   3.180
 6839SOL    HW222415  10.213   6.494   3.270
 6840SOL     OW22416  13.682  14.868  10.285
 6840SOL    HW122417  13.591  14.845  10.270
 6840SOL    HW222418  13.706   0.043  10.210
 6841SOL     OW22419  12.882   8.107  11.893
 6841SOL    HW122420  12.868   8.138  11.983
 6841SOL    HW222421  12.827   8.165  11.840
 6842SOL     OW22422   7.490   1.761   5.184
 6842SOL    HW122423   7.401   1.728   5.179
 6842SOL    HW222424   7.502   1.812   5.104
 6843SOL     OW22425   6.455   5.855   5.528
 6843SOL    HW122426   6.397   5.836   5.455
 6843SOL    HW222427   6.428   5.942   5.558
 6844SOL     OW22428   7.420   9.433  14.123
 6844SOL    HW122429   7.481   9.375  14.077
 6844SOL    HW222430   7.474   9.480  14.187
 6845SOL     OW22431   1.668   1.189   8.279
 6845SOL    HW122432   1.694   1.276   8.249
 6845SOL    HW222433   1.576   1.199   8.304
 6846SOL     OW22434   7.587  14.811  12.938
 6846SOL    HW122435   7.629  14.773  12.860
 6846SOL    HW222436   7.496  14.824  12.912
 6847SOL     OW22437   3.390   6.938   2.947
 6847SOL    HW122438   3.402   6.986   2.865
 6847SOL    HW222439   3.364   7.006   3.010
 6848SOL     OW22440   5.267   0.977   0.579
 6848SOL    HW122441   5.338   0.944   0.525
 6848SOL    HW222442   5.192   0.922   0.556
 6849SOL     OW22443  11.923  13.658   6.997
 6849SOL    HW122444  11.984  13.721   6.957
 6849SOL    HW222445  11.862  13.713   7.046
 6850SOL     OW22446  11.280   3.533   0.682
 6850SOL    HW122447  11.235   3.458   0.720
 6850SOL    HW222448  11.228   3.556   0.605
 6851SOL     OW22449   2.225   5.048   2.097
 6851SOL    HW122450   2.157   5.083   2.040
 6851SOL    HW222451   2.187   4.970   2.136
 6852SOL     OW22452   2.871  13.987  12.515
 6852SOL    HW122453   2.789  14.007  12.469
 6852SOL    HW222454   2.934  14.051  12.481
 6853SOL     OW22455  10.646  10.055   5.161
 6853SOL    HW122456  10.662  10.149   5.162
 6853SOL    HW222457  10.723  10.018   5.206
 6854SOL     OW22458   5.953   0.991  14.345
 6854SOL    HW122459   5.977   0.919  14.287
 6854SOL    HW222460   5.871   1.025  14.308
 6855SOL     OW22461   1.338   8.363   0.746
 6855SOL    HW122462   1.258   8.325   0.710
 6855SOL    HW222463   1.344   8.326   0.834
 6856SOL     OW22464   9.273   9.007   4.339
 6856SOL    HW122465   9.288   8.919   4.303
 6856SOL    HW222466   9.350   9.024   4.393
 6857SOL     OW22467   7.405  11.083  12.413
 6857SOL    HW122468   7.339  11.043  12.470
 6857SOL    HW222469   7.452  11.009  12.375
 6858SOL     OW22470   4.538   2.613   6.672
 6858SOL    HW122471   4.580   2.545   6.620
 6858SOL    HW222472   4.580   2.608   6.758
 6859SOL     OW22473   2.272   3.802   5.477
 6859SOL    HW122474   2.205   3.871   5.477
 6859SOL    HW222475   2.327   3.821   5.552
 6860SOL     OW22476  11.293  11.590  11.280
 6860SOL    HW122477  11.223  11.594  11.346
 6860SOL    HW222478  11.265  11.521  11.220
 6861SOL     OW22479  13.423  10.724   0.364
 6861SOL    HW122480  13.448  10.638   0.331
 6861SOL    HW222481  13.340  10.743   0.321
 6862SOL     OW22482  12.223   8.848   4.083
 6862SOL    HW122483  12.144   8.814   4.126
 6862SOL    HW222484  12.293   8.789   4.113
 6863SOL     OW22485   3.721  10.286   3.986
 6863SOL    HW122486   3.805  10.275   3.943
 6863SOL    HW222487   3.687  10.370   3.953
 6864SOL     OW22488  10.584   2.376   8.591
 6864SOL    HW122489  10.499   2.369   8.635
 6864SOL    HW222490  10.632   2.298   8.618
 6865SOL     OW22491   0.486   7.001   8.625
 6865SOL    HW122492   0.533   7.044   8.553
 6865SOL    HW222493   0.516   6.910   8.623
 6866SOL     OW22494   4.318   9.992   1.566
 6866SOL    HW122495   4.268  10.051   1.511
 6866SOL    HW222496   4.301  10.022   1.655
 6867SOL     OW22497   8.582   0.001   8.802
 6867SOL    HW122498   8.575  14.831   8.883
 6867SOL    HW222499   8.624   0.083   8.828
 6868SOL     OW22500   0.310   7.918  12.220
 6868SOL    HW122501   0.259   7.877  12.290
 6868SOL    HW222502   0.351   7.845  12.174
 6869SOL     OW22503  10.267   7.682   7.343
 6869SOL    HW122504  10.236   7.639   7.423
 6869SOL    HW222505  10.213   7.760   7.335
 6870SOL     OW22506   6.646   2.541  12.843
 6870SOL    HW122507   6.675   2.451  12.857
 6870SOL    HW222508   6.566   2.533  12.790
 6871SOL     OW22509   3.865   7.972   6.320
 6871SOL    HW122510   3.956   7.943   6.321
 6871SOL    HW222511   3.858   8.032   6.393
 6872SOL     OW22512   4.997  14.400  13.440
 6872SOL    HW122513   4.948  14.365  13.514
 6872SOL    HW222514   4.994  14.330  13.374
 6873SOL     OW22515  10.306   6.627  11.286
 6873SOL    HW122516  10.356   6.708  11.274
 6873SOL    HW222517  10.215   6.653  11.276
 6874SOL     OW22518   9.840   1.944  10.014
 6874SOL    HW122519   9.897   1.908   9.945
 6874SOL    HW222520   9.842   2.038  10.000
 6875SOL     OW22521   1.030   3.180   7.103
 6875SOL    HW122522   1.011   3.118   7.033
 6875SOL    HW222523   0.988   3.262   7.074
 6876SOL     OW22524  12.834   2.129  10.712
 6876SOL    HW122525  12.835   2.203  10.773
 6876SOL    HW222526  12.758   2.145  10.656
 6877SOL     OW22527   1.636   4.942  10.766
 6877SOL    HW122528   1.683   4.976  10.842
 6877SOL    HW222529   1.595   5.019  10.726
 6878SOL     OW22530  13.508  12.201   3.028
 6878SOL    HW122531  13.427  12.154   3.047
 6878SOL    HW222532  13.563  12.137   2.984
 6879SOL     OW22533   1.175   8.251   4.103
 6879SOL    HW122534   1.239   8.302   4.153
 6879SOL    HW222535   1.227   8.206   4.036
 6880SOL     OW22536   2.923   2.988  14.576
 6880SOL    HW122537   2.965   3.074  14.583
 6880SOL    HW222538   2.883   2.974  14.662
 6881SOL     OW22539   3.612   8.946  13.298
 6881SOL    HW122540   3.670   8.953  13.374
 6881SOL    HW222541   3.600   8.852  13.286
 6882SOL     OW22542   5.987   2.270  14.614
 6882SOL    HW122543   6.024   2.190  14.652
 6882SOL    HW222544   6.042   2.340  14.649
 6883SOL     OW22545   6.688   1.982  13.706
 6883SOL    HW122546   6.701   1.888  13.721
 6883SOL    HW222547   6.777   2.019  13.711
 6884SOL     OW22548   3.331  13.092  12.986
 6884SOL    HW122549   3.359  13.053  13.069
 6884SOL    HW222550   3.236  13.099  12.993
 6885SOL     OW22551  13.574   0.530   3.573
 6885SOL    HW122552  13.490   0.496   3.606
 6885SOL    HW222553  13.612   0.456   3.524
 6886SOL     OW22554   6.386   6.274   6.639
 6886SOL    HW122555   6.381   6.293   6.732
 6886SOL    HW222556   6.413   6.183   6.633
 6887SOL     OW22557   0.304  13.919   9.090
 6887SOL    HW122558   0.341  13.978   9.156
 6887SOL    HW222559   0.380  13.877   9.050
 6888SOL     OW22560  12.137   5.083   0.833
 6888SOL    HW122561  12.222   5.041   0.848
 6888SOL    HW222562  12.157   5.160   0.780
 6889SOL     OW22563   8.015   6.002   8.657
 6889SOL    HW122564   7.958   5.938   8.614
 6889SOL    HW222565   8.002   6.083   8.609
 6890SOL     OW22566   1.082  12.930   7.643
 6890SOL    HW122567   1.004  12.884   7.611
 6890SOL    HW222568   1.048  13.009   7.685
 6891SOL     OW22569   6.950   9.665   0.569
 6891SOL    HW122570   7.027   9.608   0.565
 6891SOL    HW222571   6.890   9.628   0.503
 6892SOL     OW22572   7.907  12.083   6.388
 6892SOL    HW122573   7.960  12.008   6.414
 6892SOL    HW222574   7.828  12.077   6.442
 6893SOL     OW22575  13.192   5.438  14.558
 6893SOL    HW122576  13.172   5.441  14.652
 6893SOL    HW222577  13.268   5.381  14.551
 6894SOL     OW22578   8.481  10.950   2.432
 6894SOL    HW122579   8.509  10.913   2.515
 6894SOL    HW222580   8.393  10.984   2.448
 6895SOL     OW22581   6.490   0.622   3.469
 6895SOL    HW122582   6.561   0.590   3.414
 6895SOL    HW222583   6.501   0.576   3.552
 6896SOL     OW22584  12.747  12.738   8.881
 6896SOL    HW122585  12.830  12.704   8.914
 6896SOL    HW222586  12.759  12.742   8.786
 6897SOL     OW22587   7.925   1.945   4.827
 6897SOL    HW122588   7.848   2.003   4.830
 6897SOL    HW222589   7.897   1.871   4.774
 6898SOL     OW22590   9.863   1.815   9.561
 6898SOL    HW122591   9.868   1.796   9.468
 6898SOL    HW222592   9.770   1.812   9.582
 6899SOL     OW22593  12.932  13.808   9.743
 6899SOL    HW122594  12.910  13.878   9.805
 6899SOL    HW222595  12.934  13.729   9.797
 6900SOL     OW22596  11.264   0.544   8.179
 6900SOL    HW122597  11.211   0.469   8.206
 6900SOL    HW222598  11.221   0.620   8.219
 6901SOL     OW22599   4.417   2.990   5.767
 6901SOL    HW122600   4.476   3.058   5.800
 6901SOL    HW222601   4.376   3.029   5.690
 6902SOL     OW22602   0.305   9.054  14.370
 6902SOL    HW122603   0.346   8.999  14.304
 6902SOL    HW222604   0.376   9.080  14.429
 6903SOL     OW22605   4.761  10.551  11.201
 6903SOL    HW122606   4.841  10.599  11.220
 6903SOL    HW222607   4.715  10.606  11.138
 6904SOL     OW22608   1.586   6.484  10.069
 6904SOL    HW122609   1.500   6.504  10.032
 6904SOL    HW222610   1.631   6.568  10.071
 6905SOL     OW22611  10.701   4.656   1.342
 6905SOL    HW122612  10.776   4.607   1.307
 6905SOL    HW222613  10.625   4.599   1.325
 6906SOL     OW22614   9.235   9.099   3.293
 6906SOL    HW122615   9.222   9.150   3.213
 6906SOL    HW222616   9.209   9.010   3.269
 6907SOL     OW22617   7.148   5.427   4.187
 6907SOL    HW122618   7.091   5.365   4.231
 6907SOL    HW222619   7.199   5.467   4.258
 6908SOL     OW22620   9.026   6.263  14.701
 6908SOL    HW122621   9.111   6.308  14.698
 6908SOL    HW222622   9.048   6.172  14.720
 6909SOL     OW22623   7.391  14.805   0.153
 6909SOL    HW122624   7.317  14.748   0.130
 6909SOL    HW222625   7.434  14.760   0.226
 6910SOL     OW22626   7.355  14.607  11.598
 6910SOL    HW122627   7.289  14.592  11.666
 6910SOL    HW222628   7.388  14.520  11.576
 6911SOL     OW22629   3.918  11.138   1.825
 6911SOL    HW122630   3.976  11.210   1.851
 6911SOL    HW222631   3.834  11.160   1.864
 6912SOL     OW22632   8.040  10.574   6.216
 6912SOL    HW122633   8.135  10.586   6.210
 6912SOL    HW222634   8.003  10.654   6.178
 6913SOL     OW22635  14.647   2.068   7.577
 6913SOL    HW122636  14.588   2.043   7.648
 6913SOL    HW222637  14.590   2.082   7.502
 6914SOL     OW22638  14.453   7.241   6.476
 6914SOL    HW122639  14.498   7.160   6.501
 6914SOL    HW222640  14.418   7.275   6.559
 6915SOL     OW22641   4.546   0.833   3.705
 6915SOL    HW122642   4.615   0.892   3.672
 6915SOL    HW222643   4.515   0.875   3.785
 6916SOL     OW22644   5.956   9.512   2.924
 6916SOL    HW122645   5.894   9.480   2.990
 6916SOL    HW222646   5.922   9.480   2.841
 6917SOL     OW22647   0.876  11.225   6.472
 6917SOL    HW122648   0.843  11.220   6.382
 6917SOL    HW222649   0.822  11.163   6.521
 6918SOL     OW22650   0.237   2.372   4.513
 6918SOL    HW122651   0.150   2.412   4.516
 6918SOL    HW222652   0.283   2.422   4.445
 6919SOL     OW22653  10.814   9.660  13.096
 6919SOL    HW122654  10.863   9.610  13.030
 6919SOL    HW222655  10.879   9.684  13.161
 6920SOL     OW22656   4.408   8.856   8.116
 6920SOL    HW122657   4.475   8.828   8.053
 6920SOL    HW222658   4.335   8.795   8.101
 6921SOL     OW22659   8.266   4.159   1.799
 6921SOL    HW122660   8.331   4.202   1.744
 6921SOL    HW222661   8.195   4.223   1.808
 6922SOL     OW22662   9.712   4.776   6.374
 6922SOL    HW122663   9.684   4.865   6.393
 6922SOL    HW222664   9.642   4.741   6.318
 6923SOL     OW22665   0.353   0.534   8.789
 6923SOL    HW122666   0.282   0.470   8.785
 6923SOL    HW222667   0.409   0.504   8.860
 6924SOL     OW22668   2.163   4.350  11.633
 6924SOL    HW122669   2.074   4.385  11.635
 6924SOL    HW222670   2.205   4.389  11.710
 6925SOL     OW22671   1.460   6.152   0.679
 6925SOL    HW122672   1.524   6.147   0.750
 6925SOL    HW222673   1.376   6.134   0.720
 6926SOL     OW22674   4.241   8.642   9.610
 6926SOL    HW122675   4.334   8.618   9.611
 6926SOL    HW222676   4.195   8.558   9.605
 6927SOL     OW22677   0.988  13.177   5.706
 6927SOL    HW122678   0.965  13.205   5.617
 6927SOL    HW222679   0.919  13.213   5.761
 6928SOL     OW22680   8.145   3.608   0.709
 6928SOL    HW122681   8.101   3.527   0.732
 6928SOL    HW222682   8.232   3.601   0.749
 6929SOL     OW22683   1.971   0.248   8.765
 6929SOL    HW122684   1.940   0.170   8.719
 6929SOL    HW222685   2.029   0.292   8.703
 6930SOL     OW22686   1.058   3.544   1.998
 6930SOL    HW122687   1.013   3.628   1.989
 6930SOL    HW222688   1.141   3.556   1.951
 6931SOL     OW22689   4.349  12.296   0.411
 6931SOL    HW122690   4.396  12.282   0.493
 6931SOL    HW222691   4.281  12.360   0.432
 6932SOL     OW22692   7.883  10.585   2.652
 6932SOL    HW122693   7.897  10.673   2.689
 6932SOL    HW222694   7.788  10.578   2.644
 6933SOL     OW22695   5.203   2.681  11.417
 6933SOL    HW122696   5.269   2.751  11.419
 6933SOL    HW222697   5.244   2.613  11.363
 6934SOL     OW22698   0.009   5.807   3.893
 6934SOL    HW122699   0.017   5.796   3.798
 6934SOL    HW222700   0.026   5.720   3.928
 6935SOL     OW22701   7.886   4.788   2.668
 6935SOL    HW122702   7.827   4.783   2.593
 6935SOL    HW222703   7.831   4.822   2.739
 6936SOL     OW22704   5.666  12.677   1.116
 6936SOL    HW122705   5.617  12.727   1.050
 6936SOL    HW222706   5.673  12.589   1.079
 6937SOL     OW22707   8.795  14.091   4.402
 6937SOL    HW122708   8.721  14.142   4.369
 6937SOL    HW222709   8.762  14.001   4.406
 6938SOL     OW22710   9.357   3.954   6.929
 6938SOL    HW122711   9.286   4.017   6.916
 6938SOL    HW222712   9.351   3.895   6.853
 6939SOL     OW22713   6.046   5.095   8.024
 6939SOL    HW122714   6.135   5.129   8.020
 6939SOL    HW222715   5.993   5.171   8.050
 6940SOL     OW22716   7.162  12.676  12.808
 6940SOL    HW122717   7.103  12.662  12.882
 6940SOL    HW222718   7.190  12.589  12.782
 6941SOL     OW22719   1.239  13.851  12.315
 6941SOL    HW122720   1.314  13.882  12.365
 6941SOL    HW222721   1.169  13.843  12.379
 6942SOL     OW22722   5.271   0.391  14.671
 6942SOL    HW122723   5.226   0.345  14.741
 6942SOL    HW222724   5.211   0.462  14.646
 6943SOL     OW22725  14.695   6.471   4.094
 6943SOL    HW122726  14.695   6.562   4.123
 6943SOL    HW222727  14.612   6.436   4.126
 6944SOL     OW22728   1.404   9.731  10.222
 6944SOL    HW122729   1.474   9.674  10.254
 6944SOL    HW222730   1.423   9.743  10.129
 6945SOL     OW22731  11.160   0.784   8.263
 6945SOL    HW122732  11.087   0.734   8.301
 6945SOL    HW222733  11.122   0.824   8.185
 6946SOL     OW22734  14.473   0.516  12.027
 6946SOL    HW122735  14.488   0.454  11.955
 6946SOL    HW222736  14.544   0.499  12.088
 6947SOL     OW22737   4.054  12.463  13.986
 6947SOL    HW122738   3.977  12.409  13.971
 6947SOL    HW222739   4.071  12.456  14.080
 6948SOL     OW22740   6.917   2.680  12.745
 6948SOL    HW122741   6.937   2.759  12.695
 6948SOL    HW222742   6.856   2.708  12.812
 6949SOL     OW22743   6.004   7.647   8.406
 6949SOL    HW122744   5.932   7.682   8.459
 6949SOL    HW222745   5.962   7.605   8.331
 6950SOL     OW22746   9.169  12.318   1.553
 6950SOL    HW122747   9.129  12.303   1.467
 6950SOL    HW222748   9.129  12.252   1.610
 6951SOL     OW22749  12.419   6.446  10.789
 6951SOL    HW122750  12.457   6.380  10.731
 6951SOL    HW222751  12.399   6.398  10.870
 6952SOL     OW22752   9.615   8.940   5.608
 6952SOL    HW122753   9.530   8.952   5.650
 6952SOL    HW222754   9.675   8.994   5.659
 6953SOL     OW22755   8.984   6.026   8.553
 6953SOL    HW122756   8.943   5.986   8.476
 6953SOL    HW222757   8.911   6.044   8.613
 6954SOL     OW22758  12.300   7.535  12.900
 6954SOL    HW122759  12.314   7.441  12.891
 6954SOL    HW222760  12.205   7.545  12.905
 6955SOL     OW22761   4.777   0.835  13.526
 6955SOL    HW122762   4.844   0.792  13.473
 6955SOL    HW222763   4.697   0.786  13.507
 6956SOL     OW22764   1.504   7.381   7.026
 6956SOL    HW122765   1.582   7.435   7.039
 6956SOL    HW222766   1.436   7.424   7.078
 6957SOL     OW22767   5.422   3.552   9.743
 6957SOL    HW122768   5.434   3.601   9.662
 6957SOL    HW222769   5.511   3.538   9.776
 6958SOL     OW22770  14.744   3.149  13.389
 6958SOL    HW122771  14.782   3.061  13.396
 6958SOL    HW222772  14.651   3.135  13.408
 6959SOL     OW22773   6.350   1.921   9.883
 6959SOL    HW122774   6.436   1.879   9.880
 6959SOL    HW222775   6.288   1.848   9.874
 6960SOL     OW22776  14.721   7.378   5.010
 6960SOL    HW122777  14.758   7.296   5.042
 6960SOL    HW222778  14.787   7.444   5.030
 6961SOL     OW22779   9.486   1.892   6.774
 6961SOL    HW122780   9.547   1.949   6.728
 6961SOL    HW222781   9.542   1.839   6.831
 6962SOL     OW22782   2.676   1.579   7.524
 6962SOL    HW122783   2.649   1.489   7.511
 6962SOL    HW222784   2.751   1.574   7.583
 6963SOL     OW22785   5.902   9.825   2.338
 6963SOL    HW122786   5.964   9.827   2.411
 6963SOL    HW222787   5.816   9.832   2.379
 6964SOL     OW22788   7.941   3.186   5.008
 6964SOL    HW122789   8.000   3.147   5.072
 6964SOL    HW222790   7.997   3.241   4.954
 6965SOL     OW22791   9.902  11.328  10.317
 6965SOL    HW122792   9.958  11.348  10.242
 6965SOL    HW222793   9.952  11.265  10.368
 6966SOL     OW22794  14.018  13.601   1.496
 6966SOL    HW122795  13.964  13.676   1.472
 6966SOL    HW222796  13.955  13.529   1.508
 6967SOL     OW22797  10.519   7.407  13.197
 6967SOL    HW122798  10.464   7.352  13.141
 6967SOL    HW222799  10.521   7.362  13.281
 6968SOL     OW22800  12.393   0.898   0.026
 6968SOL    HW122801  12.315   0.887  14.853
 6968SOL    HW222802  12.378   0.979   0.075
 6969SOL     OW22803   2.868   0.396  11.010
 6969SOL    HW122804   2.953   0.438  10.998
 6969SOL    HW222805   2.881   0.306  10.980
 6970SOL     OW22806  14.768   1.646  13.136
 6970SOL    HW122807  14.817   1.688  13.065
 6970SOL    HW222808  14.704   1.590  13.091
 6971SOL     OW22809   0.893   6.221   9.638
 6971SOL    HW122810   0.842   6.297   9.665
 6971SOL    HW222811   0.835   6.146   9.654
 6972SOL     OW22812   5.881   9.819   8.925
 6972SOL    HW122813   5.944   9.748   8.942
 6972SOL    HW222814   5.827   9.822   9.004
 6973SOL     OW22815   7.282   3.064   9.730
 6973SOL    HW122816   7.312   3.153   9.711
 6973SOL    HW222817   7.321   3.010   9.661
 6974SOL     OW22818  11.917  11.166  12.857
 6974SOL    HW122819  11.988  11.197  12.801
 6974SOL    HW222820  11.961  11.124  12.930
 6975SOL     OW22821   3.314   5.149   1.324
 6975SOL    HW122822   3.281   5.226   1.277
 6975SOL    HW222823   3.288   5.075   1.269
 6976SOL     OW22824   2.468   3.247  14.535
 6976SOL    HW122825   2.427   3.251  14.449
 6976SOL    HW222826   2.542   3.187  14.523
 6977SOL     OW22827   8.102  13.562   0.581
 6977SOL    HW122828   8.139  13.474   0.588
 6977SOL    HW222829   8.053  13.561   0.499
 6978SOL     OW22830  13.592  10.444  10.490
 6978SOL    HW122831  13.501  10.474  10.486
 6978SOL    HW222832  13.628  10.467  10.404
 6979SOL     OW22833  11.301   0.921  13.381
 6979SOL    HW122834  11.370   0.954  13.438
 6979SOL    HW222835  11.266   0.845  13.428
 6980SOL     OW22836   3.550   2.093  11.798
 6980SOL    HW122837   3.532   2.003  11.826
 6980SOL    HW222838   3.593   2.084  11.713
 6981SOL     OW22839  11.942   8.186   2.133
 6981SOL    HW122840  11.981   8.250   2.192
 6981SOL    HW222841  12.014   8.127   2.110
 6982SOL     OW22842   0.020   9.106  12.004
 6982SOL    HW122843   0.045   9.018  12.033
 6982SOL    HW222844  14.809   9.097  11.978
 6983SOL     OW22845   3.828   5.270   7.779
 6983SOL    HW122846   3.799   5.223   7.857
 6983SOL    HW222847   3.900   5.218   7.745
 6984SOL     OW22848  10.353   3.286   4.954
 6984SOL    HW122849  10.308   3.231   4.890
 6984SOL    HW222850  10.419   3.228   4.992
 6985SOL     OW22851   0.703   3.349   3.646
 6985SOL    HW122852   0.670   3.349   3.735
 6985SOL    HW222853   0.657   3.421   3.603
 6986SOL     OW22854  12.123  14.460   8.842
 6986SOL    HW122855  12.183  14.535   8.834
 6986SOL    HW222856  12.178  14.388   8.870
 6987SOL     OW22857   1.106   9.923  13.921
 6987SOL    HW122858   1.098   9.941  13.827
 6987SOL    HW222859   1.162   9.994  13.953
 6988SOL     OW22860  12.865  10.343  12.811
 6988SOL    HW122861  12.841  10.434  12.791
 6988SOL    HW222862  12.814  10.290  12.750
 6989SOL     OW22863   0.980   8.235   5.718
 6989SOL    HW122864   0.961   8.164   5.780
 6989SOL    HW222865   1.054   8.281   5.757
 6990SOL     OW22866   7.094   4.756  14.448
 6990SOL    HW122867   7.187   4.763  14.425
 6990SOL    HW222868   7.079   4.663  14.461
 6991SOL     OW22869  10.486   2.926   5.457
 6991SOL    HW122870  10.403   2.948   5.498
 6991SOL    HW222871  10.552   2.974   5.508
 6992SOL     OW22872   5.263  12.609  13.568
 6992SOL    HW122873   5.199  12.672  13.535
 6992SOL    HW222874   5.347  12.641  13.536
 6993SOL     OW22875  12.422   0.457   3.205
 6993SOL    HW122876  12.463   0.392   3.262
 6993SOL    HW222877  12.488   0.473   3.137
 6994SOL     OW22878  12.031   1.978  14.015
 6994SOL    HW122879  11.996   1.993  13.927
 6994SOL    HW222880  12.116   1.936  14.000
 6995SOL     OW22881  10.275  13.625   4.013
 6995SOL    HW122882  10.191  13.584   3.994
 6995SOL    HW222883  10.259  13.679   4.091
 6996SOL     OW22884   5.264  14.686   5.601
 6996SOL    HW122885   5.338  14.639   5.563
 6996SOL    HW222886   5.210  14.618   5.642
 6997SOL     OW22887   3.420   5.457   7.721
 6997SOL    HW122888   3.428   5.549   7.694
 6997SOL    HW222889   3.333   5.452   7.761
 6998SOL     OW22890   7.096  13.182   5.169
 6998SOL    HW122891   7.176  13.188   5.220
 6998SOL    HW222892   7.092  13.264   5.121
 6999SOL     OW22893  13.766  12.919   2.736
 6999SOL    HW122894  13.768  12.823   2.730
 6999SOL    HW222895  13.683  12.944   2.695
 7000SOL     OW22896   4.114   3.141   7.578
 7000SOL    HW122897   4.093   3.194   7.655
 7000SOL    HW222898   4.117   3.204   7.506
 7001SOL     OW22899   5.750   7.605  10.425
 7001SOL    HW122900   5.749   7.531  10.364
 7001SOL    HW222901   5.659   7.615  10.453
 7002SOL     OW22902   2.162   7.492   7.620
 7002SOL    HW122903   2.163   7.545   7.699
 7002SOL    HW222904   2.209   7.412   7.643
 7003SOL     OW22905   8.881   1.868   3.762
 7003SOL    HW122906   8.947   1.874   3.693
 7003SOL    HW222907   8.914   1.801   3.821
 7004SOL     OW22908  13.779   8.052   4.596
 7004SOL    HW122909  13.872   8.063   4.580
 7004SOL    HW222910  13.739   8.134   4.567
 7005SOL     OW22911  12.825   2.838  11.168
 7005SOL    HW122912  12.796   2.760  11.119
 7005SOL    HW222913  12.788   2.827  11.255
 7006SOL     OW22914   0.764  12.617   5.300
 7006SOL    HW122915   0.771  12.534   5.253
 7006SOL    HW222916   0.807  12.681   5.243
 7007SOL     OW22917  10.287   7.039   3.954
 7007SOL    HW122918  10.267   6.977   4.024
 7007SOL    HW222919  10.207   7.044   3.902
 7008SOL     OW22920   7.594   3.586   9.840
 7008SOL    HW122921   7.629   3.581   9.751
 7008SOL    HW222922   7.613   3.500   9.879
 7009SOL     OW22923   5.424   3.917  12.525
 7009SOL    HW122924   5.385   3.876  12.448
 7009SOL    HW222925   5.494   3.857  12.552
 7010SOL     OW22926  11.877   9.707   0.630
 7010SOL    HW122927  11.857   9.702   0.724
 7010SOL    HW222928  11.804   9.661   0.588
 7011SOL     OW22929   5.542  14.053   6.752
 7011SOL    HW122930   5.517  13.971   6.795
 7011SOL    HW222931   5.512  14.042   6.662
 7012SOL     OW22932   4.205   1.627   9.619
 7012SOL    HW122933   4.259   1.703   9.597
 7012SOL    HW222934   4.250   1.586   9.694
 7013SOL     OW22935   6.194   9.698   6.859
 7013SOL    HW122936   6.114   9.747   6.878
 7013SOL    HW222937   6.256   9.727   6.926
 7014SOL     OW22938  14.052   0.158   6.765
 7014SOL    HW122939  14.145   0.136   6.751
 7014SOL    HW222940  14.050   0.254   6.763
 7015SOL     OW22941   7.899  10.035   0.003
 7015SOL    HW122942   7.964  10.013  14.816
 7015SOL    HW222943   7.818  10.051  14.835
 7016SOL     OW22944   9.850   2.817  14.249
 7016SOL    HW122945   9.846   2.878  14.176
 7016SOL    HW222946   9.850   2.872  14.327
 7017SOL     OW22947  13.656   1.704   4.916
 7017SOL    HW122948  13.741   1.667   4.941
 7017SOL    HW222949  13.593   1.640   4.949
 7018SOL     OW22950   1.654   7.082  11.225
 7018SOL    HW122951   1.596   7.158  11.220
 7018SOL    HW222952   1.681   7.078  11.317
 7019SOL     OW22953  11.722   1.755  13.530
 7019SOL    HW122954  11.642   1.782  13.577
 7019SOL    HW222955  11.698   1.673  13.487
 7020SOL     OW22956   5.641  11.445  11.754
 7020SOL    HW122957   5.604  11.441  11.842
 7020SOL    HW222958   5.614  11.530  11.720
 7021SOL     OW22959   5.536  13.368   3.256
 7021SOL    HW122960   5.529  13.431   3.184
 7021SOL    HW222961   5.446  13.347   3.278
 7022SOL     OW22962   7.358  10.089   4.157
 7022SOL    HW122963   7.331  10.003   4.189
 7022SOL    HW222964   7.375  10.140   4.236
 7023SOL     OW22965   7.479   6.248  10.359
 7023SOL    HW122966   7.457   6.163  10.397
 7023SOL    HW222967   7.432   6.311  10.414
 7024SOL     OW22968   7.354   7.253   6.460
 7024SOL    HW122969   7.322   7.342   6.448
 7024SOL    HW222970   7.304   7.200   6.398
 7025SOL     OW22971   3.375  11.159  13.883
 7025SOL    HW122972   3.358  11.182  13.792
 7025SOL    HW222973   3.290  11.167  13.926
 7026SOL     OW22974   8.250  13.851  10.084
 7026SOL    HW122975   8.188  13.790  10.044
 7026SOL    HW222976   8.241  13.932  10.034
 7027SOL     OW22977  11.329   0.878  10.245
 7027SOL    HW122978  11.365   0.951  10.295
 7027SOL    HW222979  11.244   0.909  10.215
 7028SOL     OW22980  14.338   5.166   3.865
 7028SOL    HW122981  14.273   5.137   3.802
 7028SOL    HW222982  14.289   5.224   3.925
 7029SOL     OW22983   9.403   9.374   0.457
 7029SOL    HW122984   9.497   9.379   0.445
 7029SOL    HW222985   9.389   9.397   0.549
 7030SOL     OW22986   0.339   4.004   4.436
 7030SOL    HW122987   0.325   4.098   4.425
 7030SOL    HW222988   0.322   3.987   4.528
 7031SOL     OW22989  13.127   5.310  13.139
 7031SOL    HW122990  13.188   5.287  13.069
 7031SOL    HW222991  13.178   5.299  13.220
 7032SOL     OW22992  13.222   7.386   3.851
 7032SOL    HW122993  13.129   7.366   3.856
 7032SOL    HW222994  13.265   7.302   3.869
 7033SOL     OW22995   6.853   5.901   7.194
 7033SOL    HW122996   6.926   5.958   7.218
 7033SOL    HW222997   6.779   5.935   7.243
 7034SOL     OW22998   9.555  11.722  10.108
 7034SOL    HW122999   9.508  11.638  10.115
 7034SOL    HW223000   9.643  11.702  10.142
 7035SOL     OW23001  10.180   9.662   1.470
 7035SOL    HW123002  10.159   9.682   1.561
 7035SOL    HW223003  10.266   9.701   1.455
 7036SOL     OW23004   2.049   3.915   0.542
 7036SOL    HW123005   2.020   3.844   0.484
 7036SOL    HW223006   2.140   3.930   0.516
 7037SOL     OW23007  10.776  11.563   5.044
 7037SOL    HW123008  10.826  11.481   5.047
 7037SOL    HW223009  10.799  11.608   5.125
 7038SOL     OW23010   5.454   2.051  13.325
 7038SOL    HW123011   5.379   2.095  13.284
 7038SOL    HW223012   5.493   2.118  13.381
 7039SOL     OW23013  12.738   4.603  14.312
 7039SOL    HW123014  12.769   4.645  14.392
 7039SOL    HW223015  12.656   4.648  14.291
 7040SOL     OW23016   3.856  14.035   7.192
 7040SOL    HW123017   3.776  14.016   7.143
 7040SOL    HW223018   3.828  14.034   7.284
 7041SOL     OW23019   9.294  12.946   9.673
 7041SOL    HW123020   9.316  13.012   9.739
 7041SOL    HW223021   9.292  12.994   9.591
 7042SOL     OW23022   8.340  10.274   9.207
 7042SOL    HW123023   8.291  10.347   9.245
 7042SOL    HW223024   8.274  10.206   9.194
 7043SOL     OW23025  13.731   5.707   3.602
 7043SOL    HW123026  13.707   5.685   3.692
 7043SOL    HW223027  13.809   5.762   3.610
 7044SOL     OW23028  14.755   2.913   0.297
 7044SOL    HW123029  14.828   2.946   0.245
 7044SOL    HW223030  14.796   2.855   0.361
 7045SOL     OW23031   8.898  13.998  14.805
 7045SOL    HW123032   8.819  13.972  14.757
 7045SOL    HW223033   8.899  14.093  14.799
 7046SOL     OW23034   7.281   1.797  11.296
 7046SOL    HW123035   7.191   1.794  11.264
 7046SOL    HW223036   7.311   1.885  11.273
 7047SOL     OW23037   9.436  11.486   0.122
 7047SOL    HW123038   9.389  11.524   0.049
 7047SOL    HW223039   9.449  11.558   0.183
 7048SOL     OW23040  10.228  10.359   0.813
 7048SOL    HW123041  10.165  10.411   0.864
 7048SOL    HW223042  10.242  10.281   0.866
 7049SOL     OW23043   2.048   6.149   0.241
 7049SOL    HW123044   2.040   6.150   0.145
 7049SOL    HW223045   1.966   6.111   0.272
 7050SOL     OW23046   8.230  11.018   9.258
 7050SOL    HW123047   8.282  11.061   9.326
 7050SOL    HW223048   8.262  11.056   9.176
 7051SOL     OW23049  14.789  11.224   6.902
 7051SOL    HW123050  14.813  11.303   6.853
 7051SOL    HW223051  14.709  11.192   6.860
 7052SOL     OW23052   1.520  10.494   6.912
 7052SOL    HW123053   1.596  10.447   6.878
 7052SOL    HW223054   1.551  10.583   6.928
 7053SOL     OW23055   9.049   0.847   9.671
 7053SOL    HW123056   9.015   0.816   9.587
 7053SOL    HW223057   9.142   0.825   9.668
 7054SOL     OW23058   5.533   7.961   2.973
 7054SOL    HW123059   5.500   7.994   3.057
 7054SOL    HW223060   5.455   7.933   2.926
 7055SOL     OW23061   1.322  14.447   6.483
 7055SOL    HW123062   1.300  14.527   6.532
 7055SOL    HW223063   1.415  14.456   6.462
 7056SOL     OW23064   8.270   2.695   7.717
 7056SOL    HW123065   8.251   2.666   7.807
 7056SOL    HW223066   8.364   2.711   7.717
 7057SOL     OW23067   7.881   6.599  13.323
 7057SOL    HW123068   7.809   6.542  13.299
 7057SOL    HW223069   7.947   6.584  13.256
 7058SOL     OW23070   0.498  10.749   9.386
 7058SOL    HW123071   0.582  10.778   9.350
 7058SOL    HW223072   0.521  10.702   9.466
 7059SOL     OW23073   0.662  10.050  11.391
 7059SOL    HW123074   0.686  10.126  11.339
 7059SOL    HW223075   0.637   9.984  11.326
 7060SOL     OW23076   5.263   1.140  14.168
 7060SOL    HW123077   5.286   1.159  14.077
 7060SOL    HW223078   5.192   1.202  14.187
 7061SOL     OW23079   1.308  11.009  13.152
 7061SOL    HW123080   1.213  11.011  13.167
 7061SOL    HW223081   1.341  10.949  13.219
 7062SOL     OW23082   8.785   3.163  10.018
 7062SOL    HW123083   8.864   3.217  10.012
 7062SOL    HW223084   8.728   3.197   9.949
 7063SOL     OW23085   8.168   1.657   8.437
 7063SOL    HW123086   8.182   1.573   8.394
 7063SOL    HW223087   8.256   1.686   8.462
 7064SOL     OW23088  10.292   0.845  12.128
 7064SOL    HW123089  10.243   0.926  12.142
 7064SOL    HW223090  10.240   0.797  12.063
 7065SOL     OW23091   7.644   1.630   6.818
 7065SOL    HW123092   7.565   1.578   6.802
 7065SOL    HW223093   7.666   1.610   6.909
 7066SOL     OW23094   2.794  11.126   8.409
 7066SOL    HW123095   2.804  11.203   8.465
 7066SOL    HW223096   2.743  11.157   8.334
 7067SOL     OW23097   9.865  13.424   5.820
 7067SOL    HW123098   9.772  13.400   5.831
 7067SOL    HW223099   9.886  13.473   5.899
 7068SOL     OW23100   1.768   3.239   8.530
 7068SOL    HW123101   1.776   3.225   8.624
 7068SOL    HW223102   1.817   3.166   8.491
 7069SOL     OW23103  10.722   5.921   3.943
 7069SOL    HW123104  10.699   6.013   3.934
 7069SOL    HW223105  10.818   5.921   3.944
 7070SOL     OW23106   9.911   6.365   7.525
 7070SOL    HW123107   9.846   6.321   7.580
 7070SOL    HW223108   9.865   6.383   7.443
 7071SOL     OW23109   6.830  12.361   6.913
 7071SOL    HW123110   6.824  12.282   6.858
 7071SOL    HW223111   6.778  12.427   6.867
 7072SOL     OW23112   1.033   6.158   8.002
 7072SOL    HW123113   1.061   6.189   8.088
 7072SOL    HW223114   1.039   6.235   7.946
 7073SOL     OW23115   7.899   3.601   4.971
 7073SOL    HW123116   7.985   3.560   4.972
 7073SOL    HW223117   7.883   3.626   5.062
 7074SOL     OW23118  13.178   6.119   8.735
 7074SOL    HW123119  13.205   6.160   8.653
 7074SOL    HW223120  13.095   6.076   8.714
 7075SOL     OW23121   7.638   8.320   8.153
 7075SOL    HW123122   7.608   8.229   8.143
 7075SOL    HW223123   7.564   8.373   8.123
 7076SOL     OW23124   5.776   4.883  12.140
 7076SOL    HW123125   5.799   4.841  12.222
 7076SOL    HW223126   5.684   4.861  12.127
 7077SOL     OW23127   3.777   0.024  12.419
 7077SOL    HW123128   3.815  14.874  12.502
 7077SOL    HW223129   3.770  14.825  12.365
 7078SOL     OW23130   4.031   6.185   1.025
 7078SOL    HW123131   4.110   6.171   0.972
 7078SOL    HW223132   3.959   6.167   0.965
 7079SOL     OW23133  11.277  14.755   8.487
 7079SOL    HW123134  11.193  14.729   8.451
 7079SOL    HW223135  11.287  14.703   8.567
 7080SOL     OW23136  14.563   0.655  14.649
 7080SOL    HW123137  14.530   0.740  14.675
 7080SOL    HW223138  14.517   0.593  14.706
 7081SOL     OW23139   6.839   9.601   6.930
 7081SOL    HW123140   6.774   9.530   6.922
 7081SOL    HW223141   6.903   9.582   6.862
 7082SOL     OW23142   2.241   5.862  13.870
 7082SOL    HW123143   2.199   5.877  13.786
 7082SOL    HW223144   2.168   5.856  13.932
 7083SOL     OW23145  13.425   7.242  12.059
 7083SOL    HW123146  13.456   7.315  12.006
 7083SOL    HW223147  13.494   7.226  12.123
 7084SOL     OW23148   6.676   5.605  13.848
 7084SOL    HW123149   6.729   5.658  13.788
 7084SOL    HW223150   6.731   5.596  13.926
 7085SOL     OW23151  13.481   2.022  10.460
 7085SOL    HW123152  13.465   2.116  10.460
 7085SOL    HW223153  13.454   1.993  10.372
 7086SOL     OW23154   4.274   5.186   8.733
 7086SOL    HW123155   4.181   5.197   8.714
 7086SOL    HW223156   4.284   5.091   8.746
 7087SOL     OW23157   0.954   1.399  10.649
 7087SOL    HW123158   0.880   1.361  10.602
 7087SOL    HW223159   1.021   1.330  10.650
 7088SOL     OW23160   2.162   6.785   3.597
 7088SOL    HW123161   2.137   6.693   3.610
 7088SOL    HW223162   2.241   6.781   3.543
 7089SOL     OW23163   9.038  13.292   1.386
 7089SOL    HW123164   8.969  13.274   1.450
 7089SOL    HW223165   8.992  13.291   1.302
 7090SOL     OW23166   3.155  11.867   1.636
 7090SOL    HW123167   3.243  11.829   1.625
 7090SOL    HW223168   3.137  11.910   1.552
 7091SOL     OW23169  13.184  14.117  12.378
 7091SOL    HW123170  13.161  14.028  12.353
 7091SOL    HW223171  13.145  14.130  12.464
 7092SOL     OW23172  11.411   1.569   8.258
 7092SOL    HW123173  11.362   1.539   8.182
 7092SOL    HW223174  11.457   1.647   8.228
 7093SOL     OW23175   2.871   7.191   7.101
 7093SOL    HW123176   2.948   7.134   7.095
 7093SOL    HW223177   2.798   7.130   7.115
 7094SOL     OW23178   4.987  12.899   2.978
 7094SOL    HW123179   4.980  12.988   3.014
 7094SOL    HW223180   4.940  12.903   2.894
 7095SOL     OW23181   1.213  11.244   9.464
 7095SOL    HW123182   1.265  11.222   9.387
 7095SOL    HW223183   1.123  11.225   9.439
 7096SOL     OW23184   3.051   4.353  13.904
 7096SOL    HW123185   3.071   4.262  13.883
 7096SOL    HW223186   3.008   4.349  13.990
 7097SOL     OW23187   0.784   4.530   5.137
 7097SOL    HW123188   0.819   4.577   5.212
 7097SOL    HW223189   0.769   4.597   5.071
 7098SOL     OW23190  10.917   5.133   2.134
 7098SOL    HW123191  10.967   5.208   2.166
 7098SOL    HW223192  10.930   5.066   2.201
 7099SOL     OW23193   7.612   0.360   0.484
 7099SOL    HW123194   7.658   0.277   0.470
 7099SOL    HW223195   7.676   0.427   0.462
 7100SOL     OW23196   6.937   4.342   3.931
 7100SOL    HW123197   6.982   4.303   3.856
 7100SOL    HW223198   6.861   4.385   3.893
 7101SOL     OW23199   5.216  12.953   3.604
 7101SOL    HW123200   5.267  13.029   3.576
 7101SOL    HW223201   5.223  12.954   3.700
 7102SOL     OW23202   5.214   4.501   2.837
 7102SOL    HW123203   5.205   4.419   2.886
 7102SOL    HW223204   5.185   4.569   2.899
 7103SOL     OW23205  11.621   1.045   8.969
 7103SOL    HW123206  11.692   0.982   8.980
 7103SOL    HW223207  11.564   1.006   8.903
 7104SOL     OW23208   2.976  13.333   6.518
 7104SOL    HW123209   2.966  13.367   6.606
 7104SOL    HW223210   3.010  13.406   6.467
 7105SOL     OW23211  13.780   5.843   4.221
 7105SOL    HW123212  13.769   5.866   4.313
 7105SOL    HW223213  13.753   5.751   4.216
 7106SOL     OW23214  12.440   5.565   3.694
 7106SOL    HW123215  12.528   5.530   3.689
 7106SOL    HW223216  12.451   5.654   3.728
 7107SOL     OW23217   3.012  14.617   3.677
 7107SOL    HW123218   3.079  14.649   3.617
 7107SOL    HW223219   2.978  14.696   3.720
 7108SOL     OW23220  11.708  14.689   0.490
 7108SOL    HW123221  11.771  14.756   0.462
 7108SOL    HW223222  11.727  14.675   0.583
 7109SOL     OW23223   6.304  12.247   3.346
 7109SOL    HW123224   6.223  12.283   3.312
 7109SOL    HW223225   6.351  12.215   3.269
 7110SOL     OW23226   6.504   4.018  14.441
 7110SOL    HW123227   6.486   4.106  14.473
 7110SOL    HW223228   6.475   4.019  14.350
 7111SOL     OW23229   9.157   8.614   8.934
 7111SOL    HW123230   9.233   8.618   8.875
 7111SOL    HW223231   9.179   8.547   8.998
 7112SOL     OW23232   4.059  11.295   5.868
 7112SOL    HW123233   4.128  11.230   5.879
 7112SOL    HW223234   4.032  11.315   5.958
 7113SOL     OW23235   8.931   1.236  10.626
 7113SOL    HW123236   8.871   1.310  10.635
 7113SOL    HW223237   8.925   1.190  10.709
 7114SOL     OW23238   3.748  13.279   0.353
 7114SOL    HW123239   3.729  13.278   0.447
 7114SOL    HW223240   3.663  13.269   0.311
 7115SOL     OW23241   0.085  14.851   2.540
 7115SOL    HW123242  14.878  14.880   2.569
 7115SOL    HW223243   0.069  14.808   2.456
 7116SOL     OW23244   2.563   6.337   8.321
 7116SOL    HW123245   2.496   6.285   8.277
 7116SOL    HW223246   2.533   6.344   8.411
 7117SOL     OW23247   6.449   5.171   4.867
 7117SOL    HW123248   6.355   5.159   4.876
 7117SOL    HW223249   6.461   5.266   4.870
 7118SOL     OW23250   6.867  10.350  11.709
 7118SOL    HW123251   6.946  10.383  11.667
 7118SOL    HW223252   6.832  10.425  11.757
 7119SOL     OW23253  12.384   5.752   8.457
 7119SOL    HW123254  12.322   5.815   8.495
 7119SOL    HW223255  12.350   5.734   8.370
 7120SOL     OW23256   1.511   5.344   7.087
 7120SOL    HW123257   1.463   5.426   7.102
 7120SOL    HW223258   1.488   5.319   6.997
 7121SOL     OW23259   7.795   6.931   0.987
 7121SOL    HW123260   7.871   6.880   1.016
 7121SOL    HW223261   7.833   6.997   0.928
 7122SOL     OW23262   1.282   3.948   3.182
 7122SOL    HW123263   1.318   3.883   3.243
 7122SOL    HW223264   1.284   3.904   3.097
 7123SOL     OW23265  12.656   5.103  12.981
 7123SOL    HW123266  12.587   5.061  12.929
 7123SOL    HW223267  12.724   5.036  12.988
 7124SOL     OW23268   5.599   7.675   7.534
 7124SOL    HW123269   5.627   7.623   7.459
 7124SOL    HW223270   5.676   7.680   7.591
 7125SOL     OW23271   4.031  11.913   8.377
 7125SOL    HW123272   4.025  11.870   8.462
 7125SOL    HW223273   3.950  11.962   8.369
 7126SOL     OW23274   7.963  11.964   1.454
 7126SOL    HW123275   8.014  11.981   1.534
 7126SOL    HW223276   7.942  12.051   1.421
 7127SOL     OW23277  11.937   6.962   9.901
 7127SOL    HW123278  12.005   7.028   9.914
 7127SOL    HW223279  11.870   7.006   9.850
 7128SOL     OW23280   4.069   0.567  13.829
 7128SOL    HW123281   4.073   0.513  13.908
 7128SOL    HW223282   3.986   0.613  13.835
 7129SOL     OW23283   5.486  12.881   6.587
 7129SOL    HW123284   5.428  12.925   6.525
 7129SOL    HW223285   5.437  12.878   6.669
 7130SOL     OW23286   3.699   8.759   1.317
 7130SOL    HW123287   3.737   8.671   1.326
 7130SOL    HW223288   3.662   8.779   1.403
 7131SOL     OW23289   3.890   6.913   7.102
 7131SOL    HW123290   3.865   6.848   7.036
 7131SOL    HW223291   3.981   6.892   7.122
 7132SOL     OW23292   6.967  13.963   0.643
 7132SOL    HW123293   6.910  13.979   0.568
 7132SOL    HW223294   7.046  13.925   0.606
 7133SOL     OW23295  13.895   9.799   9.491
 7133SOL    HW123296  13.835   9.792   9.417
 7133SOL    HW223297  13.982   9.798   9.452
 7134SOL     OW23298  12.288   6.318   7.809
 7134SOL    HW123299  12.328   6.248   7.861
 7134SOL    HW223300  12.310   6.398   7.856
 7135SOL     OW23301   0.843   9.129   2.765
 7135SOL    HW123302   0.858   9.144   2.672
 7135SOL    HW223303   0.840   9.034   2.774
 7136SOL     OW23304   1.697   3.857  14.424
 7136SOL    HW123305   1.791   3.868  14.408
 7136SOL    HW223306   1.680   3.765  14.404
 7137SOL     OW23307  10.058   0.987   6.408
 7137SOL    HW123308  10.011   0.926   6.465
 7137SOL    HW223309  10.031   0.962   6.319
 7138SOL     OW23310   3.061  10.663   9.489
 7138SOL    HW123311   3.022  10.637   9.572
 7138SOL    HW223312   3.147  10.698   9.512
 7139SOL     OW23313   7.929   5.274   6.527
 7139SOL    HW123314   7.992   5.318   6.470
 7139SOL    HW223315   7.967   5.278   6.614
 7140SOL     OW23316   1.619   7.377  13.777
 7140SOL    HW123317   1.564   7.453  13.795
 7140SOL    HW223318   1.709   7.410  13.785
 7141SOL     OW23319   7.011   9.605   6.445
 7141SOL    HW123320   6.990   9.627   6.354
 7141SOL    HW223321   6.930   9.621   6.492
 7142SOL     OW23322  14.427   0.068   2.479
 7142SOL    HW123323  14.447  14.855   2.484
 7142SOL    HW223324  14.347   0.072   2.427
 7143SOL     OW23325   4.253   4.428   2.389
 7143SOL    HW123326   4.217   4.506   2.348
 7143SOL    HW223327   4.231   4.356   2.329
 7144SOL     OW23328  11.532   8.717   1.782
 7144SOL    HW123329  11.538   8.730   1.687
 7144SOL    HW223330  11.503   8.802   1.816
 7145SOL     OW23331   3.843  12.009   6.761
 7145SOL    HW123332   3.749  12.023   6.772
 7145SOL    HW223333   3.884  12.076   6.815
 7146SOL     OW23334  10.797  11.479  11.754
 7146SOL    HW123335  10.856  11.509  11.823
 7146SOL    HW223336  10.786  11.386  11.770
 7147SOL     OW23337  13.224   9.149  11.450
 7147SOL    HW123338  13.222   9.151  11.546
 7147SOL    HW223339  13.317   9.158  11.428
 7148SOL     OW23340  12.173   2.416   6.332
 7148SOL    HW123341  12.259   2.387   6.300
 7148SOL    HW223342  12.117   2.415   6.255
 7149SOL     OW23343   8.027   1.762   3.890
 7149SOL    HW123344   8.011   1.822   3.817
 7149SOL    HW223345   7.957   1.782   3.952
 7150SOL     OW23346   1.556   1.904   4.647
 7150SOL    HW123347   1.469   1.933   4.677
 7150SOL    HW223348   1.614   1.924   4.721
 7151SOL     OW23349   5.852  13.111   0.669
 7151SOL    HW123350   5.852  13.069   0.583
 7151SOL    HW223351   5.914  13.183   0.660
 7152SOL     OW23352   8.120   7.239   0.877
 7152SOL    HW123353   8.202   7.217   0.921
 7152SOL    HW223354   8.053   7.196   0.929
 7153SOL     OW23355  10.942   4.226  10.705
 7153SOL    HW123356  10.911   4.316  10.696
 7153SOL    HW223357  11.036   4.231  10.693
 7154SOL     OW23358   3.205  12.193   7.213
 7154SOL    HW123359   3.283  12.170   7.264
 7154SOL    HW223360   3.219  12.151   7.129
 7155SOL     OW23361   0.243   0.796   4.899
 7155SOL    HW123362   0.240   0.888   4.873
 7155SOL    HW223363   0.180   0.753   4.843
 7156SOL     OW23364   5.163   6.979   5.035
 7156SOL    HW123365   5.121   7.039   5.096
 7156SOL    HW223366   5.091   6.929   4.997
 7157SOL     OW23367   8.876   6.217   6.793
 7157SOL    HW123368   8.843   6.142   6.843
 7157SOL    HW223369   8.923   6.178   6.720
 7158SOL     OW23370   5.483   2.380  10.366
 7158SOL    HW123371   5.496   2.294  10.405
 7158SOL    HW223372   5.486   2.440  10.441
 7159SOL     OW23373   7.686  12.652   6.904
 7159SOL    HW123374   7.773  12.633   6.868
 7159SOL    HW223375   7.702  12.719   6.970
 7160SOL     OW23376   3.188   0.634   5.159
 7160SOL    HW123377   3.119   0.573   5.132
 7160SOL    HW223378   3.154   0.721   5.137
 7161SOL     OW23379  14.720   2.219   3.220
 7161SOL    HW123380  14.689   2.215   3.310
 7161SOL    HW223381  14.641   2.228   3.167
 7162SOL     OW23382   2.436  13.975   8.078
 7162SOL    HW123383   2.448  13.893   8.125
 7162SOL    HW223384   2.350  14.007   8.105
 7163SOL     OW23385   5.106   0.573   9.286
 7163SOL    HW123386   5.174   0.576   9.353
 7163SOL    HW223387   5.100   0.663   9.253
 7164SOL     OW23388   6.316  10.518   5.662
 7164SOL    HW123389   6.251  10.475   5.718
 7164SOL    HW223390   6.394  10.524   5.717
 7165SOL     OW23391  10.018  12.119   9.381
 7165SOL    HW123392  10.026  12.025   9.371
 7165SOL    HW223393  10.013  12.153   9.291
 7166SOL     OW23394   4.957   1.721   3.244
 7166SOL    HW123395   4.920   1.809   3.242
 7166SOL    HW223396   4.999   1.714   3.329
 7167SOL     OW23397  14.162   4.763   9.821
 7167SOL    HW123398  14.101   4.691   9.840
 7167SOL    HW223399  14.245   4.734   9.859
 7168SOL     OW23400   7.816  14.061   5.874
 7168SOL    HW123401   7.784  13.997   5.937
 7168SOL    HW223402   7.753  14.132   5.876
 7169SOL     OW23403   4.342   8.337   5.645
 7169SOL    HW123404   4.362   8.396   5.572
 7169SOL    HW223405   4.355   8.390   5.723
 7170SOL     OW23406  11.849  14.681  11.669
 7170SOL    HW123407  11.927  14.693  11.723
 7170SOL    HW223408  11.783  14.736  11.711
 7171SOL     OW23409  11.468   8.809   5.698
 7171SOL    HW123410  11.448   8.826   5.606
 7171SOL    HW223411  11.387   8.772   5.733
 7172SOL     OW23412   8.810   8.235  14.731
 7172SOL    HW123413   8.901   8.263  14.722
 7172SOL    HW223414   8.814   8.157  14.787
 7173SOL     OW23415  11.448   3.987  13.846
 7173SOL    HW123416  11.405   3.905  13.823
 7173SOL    HW223417  11.462   3.981  13.940
 7174SOL     OW23418   0.252   1.843   9.214
 7174SOL    HW123419   0.201   1.907   9.165
 7174SOL    HW223420   0.340   1.881   9.220
 7175SOL     OW23421   1.162   8.951  13.763
 7175SOL    HW123422   1.086   8.988  13.807
 7175SOL    HW223423   1.217   8.917  13.834
 7176SOL     OW23424   1.742   5.207   4.372
 7176SOL    HW123425   1.711   5.117   4.365
 7176SOL    HW223426   1.812   5.214   4.307
 7177SOL     OW23427  13.561  12.152   1.952
 7177SOL    HW123428  13.563  12.106   1.868
 7177SOL    HW223429  13.502  12.100   2.006
 7178SOL     OW23430   3.032   1.622  10.677
 7178SOL    HW123431   3.014   1.578  10.760
 7178SOL    HW223432   3.116   1.665  10.691
 7179SOL     OW23433   9.904   1.422   5.971
 7179SOL    HW123434   9.952   1.382   6.043
 7179SOL    HW223435   9.820   1.448   6.009
 7180SOL     OW23436   1.729   1.523  13.357
 7180SOL    HW123437   1.683   1.603  13.329
 7180SOL    HW223438   1.770   1.490  13.278
 7181SOL     OW23439   0.730  11.681   2.519
 7181SOL    HW123440   0.801  11.656   2.460
 7181SOL    HW223441   0.719  11.605   2.577
 7182SOL     OW23442   5.252  14.154   7.339
 7182SOL    HW123443   5.247  14.062   7.315
 7182SOL    HW223444   5.326  14.188   7.289
 7183SOL     OW23445   0.699  14.527  12.627
 7183SOL    HW123446   0.619  14.482  12.601
 7183SOL    HW223447   0.743  14.466  12.686
 7184SOL     OW23448   6.413  11.715  13.331
 7184SOL    HW123449   6.385  11.704  13.422
 7184SOL    HW223450   6.508  11.700  13.334
 7185SOL     OW23451  13.681  10.079   5.109
 7185SOL    HW123452  13.771  10.108   5.126
 7185SOL    HW223453  13.644  10.062   5.195
 7186SOL     OW23454   6.444   6.213   9.779
 7186SOL    HW123455   6.474   6.291   9.734
 7186SOL    HW223456   6.416   6.244   9.865
 7187SOL     OW23457   9.461   0.242   8.376
 7187SOL    HW123458   9.495   0.315   8.325
 7187SOL    HW223459   9.538   0.202   8.416
 7188SOL     OW23460   7.881   5.929  13.970
 7188SOL    HW123461   7.943   6.001  13.955
 7188SOL    HW223462   7.926   5.853  13.933
 7189SOL     OW23463   7.378   6.042   8.181
 7189SOL    HW123464   7.448   6.004   8.234
 7189SOL    HW223465   7.424   6.099   8.119
 7190SOL     OW23466  10.867   7.720   4.263
 7190SOL    HW123467  10.915   7.769   4.329
 7190SOL    HW223468  10.920   7.642   4.247
 7191SOL     OW23469   6.015   0.194   3.664
 7191SOL    HW123470   5.960   0.259   3.621
 7191SOL    HW223471   5.954   0.124   3.688
 7192SOL     OW23472  11.525  10.866   7.503
 7192SOL    HW123473  11.454  10.929   7.496
 7192SOL    HW223474  11.550  10.867   7.595
 7193SOL     OW23475   5.045  10.843  11.402
 7193SOL    HW123476   5.104  10.911  11.434
 7193SOL    HW223477   4.957  10.883  11.408
 7194SOL     OW23478   7.059   0.788  12.715
 7194SOL    HW123479   7.000   0.833  12.776
 7194SOL    HW223480   7.087   0.856  12.654
 7195SOL     OW23481   3.095  14.065  14.083
 7195SOL    HW123482   3.006  14.053  14.050
 7195SOL    HW223483   3.151  14.025  14.016
 7196SOL     OW23484   0.270   5.769   4.094
 7196SOL    HW123485   0.295   5.677   4.100
 7196SOL    HW223486   0.196   5.771   4.034
 7197SOL     OW23487  11.696   0.120  14.699
 7197SOL    HW123488  11.791   0.130  14.702
 7197SOL    HW223489  11.673   0.135  14.607
 7198SOL     OW23490  11.849   0.566   5.794
 7198SOL    HW123491  11.924   0.532   5.744
 7198SOL    HW223492  11.852   0.518   5.877
 7199SOL     OW23493   3.109  11.174   6.137
 7199SOL    HW123494   3.051  11.148   6.208
 7199SOL    HW223495   3.179  11.109   6.137
 7200SOL     OW23496   3.776  14.067  14.543
 7200SOL    HW123497   3.838  14.131  14.510
 7200SOL    HW223498   3.749  14.018  14.466
 7201SOL     OW23499   7.456   8.136   3.853
 7201SOL    HW123500   7.549   8.128   3.831
 7201SOL    HW223501   7.434   8.052   3.893
 7202SOL     OW23502  12.212  11.210   8.872
 7202SOL    HW123503  12.141  11.204   8.936
 7202SOL    HW223504  12.168  11.231   8.790
 7203SOL     OW23505  13.226   9.033   7.630
 7203SOL    HW123506  13.284   8.990   7.693
 7203SOL    HW223507  13.228   8.976   7.554
 7204SOL     OW23508   9.518   2.465   5.850
 7204SOL    HW123509   9.500   2.376   5.819
 7204SOL    HW223510   9.432   2.507   5.853
 7205SOL     OW23511   3.651  11.748   5.595
 7205SOL    HW123512   3.731  11.798   5.573
 7205SOL    HW223513   3.640  11.688   5.521
 7206SOL     OW23514  11.148   1.891   3.939
 7206SOL    HW123515  11.056   1.911   3.958
 7206SOL    HW223516  11.158   1.911   3.846
 7207SOL     OW23517  11.200   0.992   5.112
 7207SOL    HW123518  11.173   0.993   5.020
 7207SOL    HW223519  11.295   1.008   5.109
 7208SOL     OW23520  10.108   2.553   7.082
 7208SOL    HW123521  10.043   2.616   7.115
 7208SOL    HW223522  10.113   2.572   6.988
 7209SOL     OW23523   8.857   9.553   4.123
 7209SOL    HW123524   8.827   9.506   4.045
 7209SOL    HW223525   8.782   9.553   4.182
 7210SOL     OW23526  11.082  14.040   8.150
 7210SOL    HW123527  11.019  14.081   8.090
 7210SOL    HW223528  11.156  14.017   8.095
 7211SOL     OW23529   4.799  14.482   5.746
 7211SOL    HW123530   4.834  14.560   5.702
 7211SOL    HW223531   4.731  14.517   5.804
 7212SOL     OW23532  13.178   8.683   1.293
 7212SOL    HW123533  13.240   8.612   1.311
 7212SOL    HW223534  13.205   8.753   1.352
 7213SOL     OW23535  14.262   4.927  11.287
 7213SOL    HW123536  14.210   4.978  11.225
 7213SOL    HW223537  14.309   4.864  11.233
 7214SOL     OW23538   1.595   9.728   6.806
 7214SOL    HW123539   1.521   9.703   6.751
 7214SOL    HW223540   1.627   9.810   6.767
 7215SOL     OW23541   7.714   9.472   1.833
 7215SOL    HW123542   7.726   9.495   1.925
 7215SOL    HW223543   7.803   9.462   1.799
 7216SOL     OW23544  10.355   4.023  12.324
 7216SOL    HW123545  10.432   3.984  12.283
 7216SOL    HW223546  10.294   4.037  12.251
 7217SOL     OW23547  13.573   0.494   6.637
 7217SOL    HW123548  13.654   0.500   6.689
 7217SOL    HW223549  13.521   0.427   6.681
 7218SOL     OW23550   4.359   8.481   0.231
 7218SOL    HW123551   4.331   8.465   0.140
 7218SOL    HW223552   4.301   8.425   0.283
 7219SOL     OW23553  11.660   8.295   3.081
 7219SOL    HW123554  11.706   8.229   3.134
 7219SOL    HW223555  11.603   8.244   3.024
 7220SOL     OW23556   9.905  13.379   5.223
 7220SOL    HW123557   9.923  13.376   5.129
 7220SOL    HW223558   9.988  13.404   5.262
 7221SOL     OW23559   7.839  13.526   0.724
 7221SOL    HW123560   7.934  13.527   0.738
 7221SOL    HW223561   7.817  13.617   0.704
 7222SOL     OW23562   5.177   5.520   4.367
 7222SOL    HW123563   5.250   5.539   4.426
 7222SOL    HW223564   5.110   5.584   4.390
 7223SOL     OW23565  12.528   9.115  10.893
 7223SOL    HW123566  12.517   9.020  10.894
 7223SOL    HW223567  12.447   9.149  10.857
 7224SOL     OW23568   1.726  10.973   3.667
 7224SOL    HW123569   1.732  11.062   3.702
 7224SOL    HW223570   1.759  10.980   3.577
 7225SOL     OW23571  10.533   5.959   4.387
 7225SOL    HW123572  10.513   5.932   4.297
 7225SOL    HW223573  10.452   5.945   4.435
 7226SOL     OW23574   1.490  13.127   5.758
 7226SOL    HW123575   1.537  13.179   5.693
 7226SOL    HW223576   1.400  13.123   5.725
 7227SOL     OW23577   6.205  11.347   3.953
 7227SOL    HW123578   6.128  11.320   4.002
 7227SOL    HW223579   6.175  11.420   3.899
 7228SOL     OW23580  12.066   6.973   8.103
 7228SOL    HW123581  12.040   7.029   8.176
 7228SOL    HW223582  12.154   7.004   8.079
 7229SOL     OW23583   3.445   9.723   6.170
 7229SOL    HW123584   3.369   9.685   6.125
 7229SOL    HW223585   3.418   9.812   6.192
 7230SOL     OW23586   0.011   8.238   0.774
 7230SOL    HW123587   0.015   8.162   0.832
 7230SOL    HW223588   0.006   8.201   0.686
 7231SOL     OW23589   8.813   5.677   1.200
 7231SOL    HW123590   8.776   5.763   1.219
 7231SOL    HW223591   8.845   5.684   1.111
 7232SOL     OW23592   7.238  10.782   5.382
 7232SOL    HW123593   7.236  10.878   5.376
 7232SOL    HW223594   7.331  10.760   5.384
 7233SOL     OW23595   2.023   6.190   6.644
 7233SOL    HW123596   2.025   6.191   6.548
 7233SOL    HW223597   1.931   6.203   6.666
 7234SOL     OW23598   6.326   2.563  13.460
 7234SOL    HW123599   6.408   2.612  13.464
 7234SOL    HW223600   6.303   2.562  13.367
 7235SOL     OW23601   4.042   9.475   4.354
 7235SOL    HW123602   3.967   9.531   4.374
 7235SOL    HW223603   4.050   9.418   4.430
 7236SOL     OW23604   2.174   6.132  12.993
 7236SOL    HW123605   2.111   6.204  12.986
 7236SOL    HW223606   2.120   6.055  13.014
 7237SOL     OW23607   7.917  11.381  13.337
 7237SOL    HW123608   7.878  11.366  13.251
 7237SOL    HW223609   7.871  11.321  13.395
 7238SOL     OW23610  14.585  11.397   0.664
 7238SOL    HW123611  14.546  11.374   0.749
 7238SOL    HW223612  14.538  11.344   0.601
 7239SOL     OW23613   0.217   4.779   2.251
 7239SOL    HW123614   0.306   4.752   2.276
 7239SOL    HW223615   0.174   4.800   2.333
 7240SOL     OW23616  10.896   5.432   7.988
 7240SOL    HW123617  10.958   5.505   7.982
 7240SOL    HW223618  10.848   5.435   7.906
 7241SOL     OW23619   5.130   0.421   1.466
 7241SOL    HW123620   5.196   0.387   1.526
 7241SOL    HW223621   5.179   0.447   1.388
 7242SOL     OW23622   3.176   5.802   7.973
 7242SOL    HW123623   3.121   5.870   7.933
 7242SOL    HW223624   3.206   5.841   8.055
 7243SOL     OW23625   9.030   2.911   4.103
 7243SOL    HW123626   8.958   2.874   4.052
 7243SOL    HW223627   8.990   2.934   4.187
 7244SOL     OW23628   7.713   0.632   8.354
 7244SOL    HW123629   7.642   0.686   8.388
 7244SOL    HW223630   7.766   0.611   8.431
 7245SOL     OW23631   4.264  14.591  14.408
 7245SOL    HW123632   4.254  14.538  14.488
 7245SOL    HW223633   4.355  14.621  14.411
 7246SOL     OW23634  12.880   4.290   1.532
 7246SOL    HW123635  12.917   4.307   1.445
 7246SOL    HW223636  12.807   4.231   1.516
 7247SOL     OW23637   8.348   2.126  10.784
 7247SOL    HW123638   8.293   2.203  10.764
 7247SOL    HW223639   8.389   2.148  10.867
 7248SOL     OW23640   2.963   7.723   1.728
 7248SOL    HW123641   3.011   7.651   1.768
 7248SOL    HW223642   2.960   7.701   1.635
 7249SOL     OW23643  11.997  14.318  10.765
 7249SOL    HW123644  11.997  14.395  10.709
 7249SOL    HW223645  11.921  14.330  10.823
 7250SOL     OW23646   2.153  11.144   2.870
 7250SOL    HW123647   2.148  11.164   2.963
 7250SOL    HW223648   2.229  11.193   2.838
 7251SOL     OW23649   9.158   2.777   2.818
 7251SOL    HW123650   9.120   2.845   2.873
 7251SOL    HW223651   9.104   2.778   2.738
 7252SOL     OW23652  11.501   9.565   2.873
 7252SOL    HW123653  11.444   9.489   2.865
 7252SOL    HW223654  11.470   9.627   2.807
 7253SOL     OW23655  14.562  10.544   2.350
 7253SOL    HW123656  14.501  10.480   2.315
 7253SOL    HW223657  14.635  10.492   2.382
 7254SOL     OW23658   5.047   1.657   0.134
 7254SOL    HW123659   5.023   1.706   0.055
 7254SOL    HW223660   5.107   1.716   0.181
 7255SOL     OW23661   9.913   4.340   5.131
 7255SOL    HW123662   9.931   4.337   5.037
 7255SOL    HW223663   9.822   4.311   5.139
 7256SOL     OW23664   1.045  13.261   7.317
 7256SOL    HW123665   1.100  13.328   7.358
 7256SOL    HW223666   1.093  13.179   7.331
 7257SOL     OW23667   3.400   2.031   2.451
 7257SOL    HW123668   3.421   2.102   2.512
 7257SOL    HW223669   3.306   2.018   2.462
 7258SOL     OW23670   4.608   1.479  11.508
 7258SOL    HW123671   4.527   1.515  11.544
 7258SOL    HW223672   4.650   1.553  11.464
 7259SOL     OW23673   2.666   0.151   1.632
 7259SOL    HW123674   2.733   0.214   1.605
 7259SOL    HW223675   2.589   0.204   1.650
 7260SOL     OW23676   0.450   6.914   6.817
 7260SOL    HW123677   0.458   7.009   6.813
 7260SOL    HW223678   0.444   6.895   6.911
 7261SOL     OW23679  14.168   5.819  14.555
 7261SOL    HW123680  14.214   5.770  14.487
 7261SOL    HW223681  14.138   5.752  14.617
 7262SOL     OW23682   1.841   2.633  13.459
 7262SOL    HW123683   1.788   2.702  13.499
 7262SOL    HW223684   1.919   2.627  13.514
 7263SOL     OW23685   7.310   9.778   0.702
 7263SOL    HW123686   7.236   9.744   0.752
 7263SOL    HW223687   7.344   9.702   0.655
 7264SOL     OW23688  12.821  14.007  12.592
 7264SOL    HW123689  12.830  13.996  12.498
 7264SOL    HW223690  12.734  13.973  12.612
 7265SOL     OW23691  11.758  14.027   4.324
 7265SOL    HW123692  11.708  14.010   4.404
 7265SOL    HW223693  11.764  13.941   4.281
 7266SOL     OW23694  12.168   1.171   9.607
 7266SOL    HW123695  12.114   1.250   9.609
 7266SOL    HW223696  12.109   1.102   9.579
 7267SOL     OW23697  12.815   1.980  13.956
 7267SOL    HW123698  12.907   2.007  13.964
 7267SOL    HW223699  12.819   1.891  13.921
 7268SOL     OW23700   2.524   6.513   6.022
 7268SOL    HW123701   2.523   6.572   5.947
 7268SOL    HW223702   2.547   6.428   5.984
 7269SOL     OW23703   1.564   5.604   8.666
 7269SOL    HW123704   1.614   5.640   8.740
 7269SOL    HW223705   1.509   5.677   8.637
 7270SOL     OW23706   1.413   9.606   6.614
 7270SOL    HW123707   1.390   9.532   6.557
 7270SOL    HW223708   1.408   9.682   6.557
 7271SOL     OW23709   1.715   9.564   8.011
 7271SOL    HW123710   1.807   9.545   8.026
 7271SOL    HW223711   1.671   9.538   8.092
 7272SOL     OW23712   5.358   5.678   8.886
 7272SOL    HW123713   5.375   5.584   8.890
 7272SOL    HW223714   5.408   5.708   8.810
 7273SOL     OW23715   5.037  12.379   6.961
 7273SOL    HW123716   5.052  12.406   7.051
 7273SOL    HW223717   5.115  12.327   6.938
 7274SOL     OW23718   9.734  12.550  11.102
 7274SOL    HW123719   9.726  12.525  11.194
 7274SOL    HW223720   9.652  12.520  11.062
 7275SOL     OW23721  13.832   5.917   6.884
 7275SOL    HW123722  13.801   5.861   6.814
 7275SOL    HW223723  13.758   5.923   6.945
 7276SOL     OW23724  13.680   6.518   1.844
 7276SOL    HW123725  13.762   6.469   1.837
 7276SOL    HW223726  13.652   6.505   1.935
 7277SOL     OW23727  10.921   7.764  10.637
 7277SOL    HW123728  10.937   7.754  10.544
 7277SOL    HW223729  10.959   7.686  10.677
 7278SOL     OW23730   6.100   6.064  14.300
 7278SOL    HW123731   6.104   5.977  14.338
 7278SOL    HW223732   6.190   6.086  14.278
 7279SOL     OW23733   9.571   5.765  13.887
 7279SOL    HW123734   9.550   5.812  13.806
 7279SOL    HW223735   9.616   5.686  13.857
 7280SOL     OW23736   9.219   8.898   8.908
 7280SOL    HW123737   9.297   8.915   8.960
 7280SOL    HW223738   9.218   8.804   8.895
 7281SOL     OW23739  10.517   3.916   6.316
 7281SOL    HW123740  10.454   3.862   6.363
 7281SOL    HW223741  10.468   3.952   6.243
 7282SOL     OW23742  11.221   4.766   0.904
 7282SOL    HW123743  11.255   4.797   0.820
 7282SOL    HW223744  11.137   4.811   0.914
 7283SOL     OW23745   4.284   9.253   4.814
 7283SOL    HW123746   4.270   9.177   4.872
 7283SOL    HW223747   4.282   9.328   4.873
 7284SOL     OW23748   9.158   1.687   9.422
 7284SOL    HW123749   9.142   1.711   9.330
 7284SOL    HW223750   9.116   1.758   9.472
 7285SOL     OW23751  12.594   5.468   6.169
 7285SOL    HW123752  12.528   5.465   6.099
 7285SOL    HW223753  12.672   5.429   6.129
 7286SOL     OW23754   2.101  10.031   9.833
 7286SOL    HW123755   2.062  10.118   9.834
 7286SOL    HW223756   2.182  10.041   9.782
 7287SOL     OW23757   6.878   0.907   9.132
 7287SOL    HW123758   6.785   0.930   9.138
 7287SOL    HW223759   6.916   0.941   9.213
 7288SOL     OW23760  11.486  13.836   6.540
 7288SOL    HW123761  11.581  13.840   6.526
 7288SOL    HW223762  11.458  13.928   6.542
 7289SOL     OW23763  13.470  10.773  12.660
 7289SOL    HW123764  13.564  10.770  12.680
 7289SOL    HW223765  13.467  10.771  12.564
 7290SOL     OW23766   6.812   9.773  12.020
 7290SOL    HW123767   6.890   9.811  11.980
 7290SOL    HW223768   6.791   9.698  11.965
 7291SOL     OW23769   2.794  11.975  11.276
 7291SOL    HW123770   2.768  11.906  11.216
 7291SOL    HW223771   2.876  12.010  11.239
 7292SOL     OW23772   9.950  11.366   7.192
 7292SOL    HW123773   9.890  11.305   7.236
 7292SOL    HW223774  10.023  11.312   7.163
 7293SOL     OW23775   2.558   1.169  14.498
 7293SOL    HW123776   2.511   1.085  14.499
 7293SOL    HW223777   2.506   1.224  14.440
 7294SOL     OW23778   6.343   0.324  13.457
 7294SOL    HW123779   6.364   0.376  13.379
 7294SOL    HW223780   6.414   0.260  13.462
 7295SOL     OW23781   4.833  13.826   8.830
 7295SOL    HW123782   4.922  13.791   8.832
 7295SOL    HW223783   4.798  13.797   8.746
 7296SOL     OW23784   4.342   2.970   7.788
 7296SOL    HW123785   4.266   3.015   7.826
 7296SOL    HW223786   4.304   2.913   7.721
 7297SOL     OW23787   1.237   2.431  13.099
 7297SOL    HW123788   1.278   2.459  13.182
 7297SOL    HW223789   1.151   2.473  13.100
 7298SOL     OW23790  10.954  12.036   4.751
 7298SOL    HW123791  10.917  12.124   4.742
 7298SOL    HW223792  10.878  11.979   4.758
 7299SOL     OW23793   5.181   0.400   9.587
 7299SOL    HW123794   5.265   0.355   9.594
 7299SOL    HW223795   5.200   0.491   9.611
 7300SOL     OW23796  10.473   1.838  13.985
 7300SOL    HW123797  10.527   1.761  14.005
 7300SOL    HW223798  10.490   1.899  14.056
 7301SOL     OW23799   6.286   9.181   8.389
 7301SOL    HW123800   6.302   9.163   8.297
 7301SOL    HW223801   6.303   9.099   8.434
 7302SOL     OW23802   6.712  13.009   9.235
 7302SOL    HW123803   6.788  13.064   9.217
 7302SOL    HW223804   6.698  13.019   9.329
 7303SOL     OW23805  10.922   2.797   7.407
 7303SOL    HW123806  11.013   2.822   7.422
 7303SOL    HW223807  10.901   2.738   7.479
 7304SOL     OW23808  10.457   2.935  11.383
 7304SOL    HW123809  10.406   2.912  11.461
 7304SOL    HW223810  10.474   3.028  11.392
 7305SOL     OW23811   8.495  10.067   8.111
 7305SOL    HW123812   8.402  10.046   8.111
 7305SOL    HW223813   8.498  10.161   8.126
 7306SOL     OW23814  13.492   0.718  10.090
 7306SOL    HW123815  13.579   0.757  10.076
 7306SOL    HW223816  13.505   0.657  10.163
 7307SOL     OW23817   7.540  13.021   1.134
 7307SOL    HW123818   7.629  13.024   1.099
 7307SOL    HW223819   7.549  13.055   1.224
 7308SOL     OW23820   0.835   2.135   5.962
 7308SOL    HW123821   0.848   2.177   5.876
 7308SOL    HW223822   0.859   2.044   5.947
 7309SOL     OW23823   1.701   3.167   6.392
 7309SOL    HW123824   1.657   3.103   6.448
 7309SOL    HW223825   1.794   3.149   6.405
 7310SOL     OW23826   7.505   1.950   3.340
 7310SOL    HW123827   7.563   1.884   3.303
 7310SOL    HW223828   7.456   1.903   3.407
 7311SOL     OW23829   5.293   1.975  14.097
 7311SOL    HW123830   5.273   2.063  14.128
 7311SOL    HW223831   5.326   1.930  14.174
 7312SOL     OW23832   1.572   7.967   9.062
 7312SOL    HW123833   1.477   7.978   9.058
 7312SOL    HW223834   1.601   7.962   8.971
 7313SOL     OW23835   3.252  13.994   4.916
 7313SOL    HW123836   3.220  14.055   4.982
 7313SOL    HW223837   3.214  13.910   4.941
 7314SOL     OW23838  10.490  10.350   4.500
 7314SOL    HW123839  10.465  10.258   4.489
 7314SOL    HW223840  10.487  10.364   4.595
 7315SOL     OW23841   6.667  13.896  13.065
 7315SOL    HW123842   6.634  13.970  13.116
 7315SOL    HW223843   6.589  13.859  13.023
 7316SOL     OW23844   8.484   5.551   6.566
 7316SOL    HW123845   8.406   5.581   6.520
 7316SOL    HW223846   8.557   5.593   6.521
 7317SOL     OW23847   2.173   8.525   6.763
 7317SOL    HW123848   2.257   8.488   6.792
 7317SOL    HW223849   2.111   8.502   6.832
 7318SOL     OW23850   9.582   3.247  10.324
 7318SOL    HW123851   9.634   3.270  10.247
 7318SOL    HW223852   9.621   3.299  10.395
 7319SOL     OW23853   8.616   1.775   6.120
 7319SOL    HW123854   8.661   1.736   6.195
 7319SOL    HW223855   8.685   1.790   6.056
 7320SOL     OW23856   6.695   4.974   1.065
 7320SOL    HW123857   6.773   5.015   1.028
 7320SOL    HW223858   6.632   5.045   1.072
 7321SOL     OW23859  13.147   1.693   6.265
 7321SOL    HW123860  13.200   1.769   6.288
 7321SOL    HW223861  13.150   1.637   6.343
 7322SOL     OW23862  11.808   7.629   6.689
 7322SOL    HW123863  11.880   7.679   6.651
 7322SOL    HW223864  11.848   7.548   6.720
 7323SOL     OW23865   0.188  12.153   5.866
 7323SOL    HW123866   0.175  12.163   5.772
 7323SOL    HW223867   0.103  12.124   5.899
 7324SOL     OW23868   5.791  14.329  14.365
 7324SOL    HW123869   5.835  14.319  14.280
 7324SOL    HW223870   5.713  14.275  14.358
 7325SOL     OW23871   5.478   2.551   9.539
 7325SOL    HW123872   5.499   2.539   9.632
 7325SOL    HW223873   5.426   2.474   9.516
 7326SOL     OW23874  14.264   8.556   2.157
 7326SOL    HW123875  14.340   8.545   2.100
 7326SOL    HW223876  14.272   8.645   2.190
 7327SOL     OW23877   0.021   1.481   7.152
 7327SOL    HW123878   0.067   1.563   7.133
 7327SOL    HW223879   0.016   1.436   7.067
 7328SOL     OW23880   3.103   3.767  13.871
 7328SOL    HW123881   3.149   3.685  13.887
 7328SOL    HW223882   3.046   3.748  13.796
 7329SOL     OW23883   0.175   0.400   3.324
 7329SOL    HW123884   0.256   0.393   3.273
 7329SOL    HW223885   0.177   0.488   3.361
 7330SOL     OW23886   3.639   0.629   2.882
 7330SOL    HW123887   3.733   0.626   2.899
 7330SOL    HW223888   3.601   0.663   2.963
 7331SOL     OW23889  10.533   7.871   7.119
 7331SOL    HW123890  10.469   7.942   7.127
 7331SOL    HW223891  10.494   7.809   7.057
 7332SOL     OW23892   4.182  12.067  12.970
 7332SOL    HW123893   4.156  11.983  13.009
 7332SOL    HW223894   4.103  12.121  12.974
 7333SOL     OW23895  13.662   9.946  10.804
 7333SOL    HW123896  13.696   9.999  10.877
 7333SOL    HW223897  13.729   9.953  10.736
 7334SOL     OW23898   4.651   5.088   1.970
 7334SOL    HW123899   4.729   5.140   1.988
 7334SOL    HW223900   4.578   5.142   2.002
 7335SOL     OW23901   9.671  10.474   9.397
 7335SOL    HW123902   9.716  10.537   9.453
 7335SOL    HW223903   9.579  10.502   9.398
 7336SOL     OW23904  11.047   3.819   8.462
 7336SOL    HW123905  11.102   3.741   8.453
 7336SOL    HW223906  11.103   3.891   8.432
 7337SOL     OW23907  13.742   6.017   3.801
 7337SOL    HW123908  13.735   5.922   3.801
 7337SOL    HW223909  13.690   6.045   3.877
 7338SOL     OW23910   6.812   2.776   3.425
 7338SOL    HW123911   6.826   2.862   3.467
 7338SOL    HW223912   6.722   2.753   3.448
 7339SOL     OW23913  11.348   9.803  10.634
 7339SOL    HW123914  11.423   9.856  10.662
 7339SOL    HW223915  11.343   9.816  10.539
 7340SOL     OW23916   9.832   3.183   2.108
 7340SOL    HW123917   9.754   3.142   2.146
 7340SOL    HW223918   9.887   3.203   2.184
 7341SOL     OW23919   0.313   6.022   0.814
 7341SOL    HW123920   0.331   6.051   0.725
 7341SOL    HW223921   0.381   6.064   0.867
 7342SOL     OW23922   0.940   8.740   8.726
 7342SOL    HW123923   0.881   8.730   8.801
 7342SOL    HW223924   0.910   8.674   8.663
 7343SOL     OW23925   5.412   4.344   8.019
 7343SOL    HW123926   5.465   4.310   8.092
 7343SOL    HW223927   5.362   4.416   8.057
 7344SOL     OW23928   8.978  12.028   6.184
 7344SOL    HW123929   9.021  11.943   6.200
 7344SOL    HW223930   9.011  12.056   6.099
 7345SOL     OW23931  12.060   0.930   4.559
 7345SOL    HW123932  12.004   0.868   4.606
 7345SOL    HW223933  12.128   0.954   4.621
 7346SOL     OW23934   1.148  11.901  14.821
 7346SOL    HW123935   1.103  11.869  14.743
 7346SOL    HW223936   1.181  11.822  14.865
 7347SOL     OW23937  14.760   9.720   7.176
 7347SOL    HW123938  14.691   9.668   7.137
 7347SOL    HW223939  14.749   9.707   7.271
 7348SOL     OW23940  13.205   6.419   7.005
 7348SOL    HW123941  13.213   6.513   6.987
 7348SOL    HW223942  13.202   6.413   7.100
 7349SOL     OW23943  14.533   3.582   4.731
 7349SOL    HW123944  14.534   3.665   4.779
 7349SOL    HW223945  14.497   3.605   4.645
 7350SOL     OW23946  11.378  11.123  11.186
 7350SOL    HW123947  11.386  11.079  11.102
 7350SOL    HW223948  11.459  11.102  11.233
 7351SOL     OW23949   5.481  10.740   7.106
 7351SOL    HW123950   5.430  10.668   7.142
 7351SOL    HW223951   5.445  10.754   7.018
 7352SOL     OW23952   2.140  12.699  12.560
 7352SOL    HW123953   2.180  12.752  12.491
 7352SOL    HW223954   2.209  12.687  12.625
 7353SOL     OW23955  11.591   5.484   4.541
 7353SOL    HW123956  11.636   5.539   4.477
 7353SOL    HW223957  11.633   5.398   4.532
 7354SOL     OW23958   6.281   1.431  14.606
 7354SOL    HW123959   6.360   1.422  14.553
 7354SOL    HW223960   6.224   1.360  14.577
 7355SOL     OW23961  13.672   7.223  11.728
 7355SOL    HW123962  13.678   7.305  11.680
 7355SOL    HW223963  13.685   7.248  11.820
 7356SOL     OW23964   3.567  14.588   1.192
 7356SOL    HW123965   3.588  14.549   1.107
 7356SOL    HW223966   3.649  14.586   1.240
 7357SOL     OW23967   9.502   2.236   0.033
 7357SOL    HW123968   9.460   2.242  14.827
 7357SOL    HW223969   9.450   2.294   0.088
 7358SOL     OW23970  10.961   6.207   1.503
 7358SOL    HW123971  10.883   6.225   1.450
 7358SOL    HW223972  11.032   6.253   1.458
 7359SOL     OW23973   3.983  13.967  14.251
 7359SOL    HW123974   3.896  13.934  14.275
 7359SOL    HW223975   3.979  13.976  14.155
 7360SOL     OW23976  12.395   4.049   9.237
 7360SOL    HW123977  12.337   3.979   9.206
 7360SOL    HW223978  12.465   4.051   9.172
 7361SOL     OW23979   8.044  11.350   7.027
 7361SOL    HW123980   8.006  11.411   7.090
 7361SOL    HW223981   8.129  11.327   7.064
 7362SOL     OW23982   2.980  13.756   6.448
 7362SOL    HW123983   2.887  13.779   6.457
 7362SOL    HW223984   3.009  13.802   6.370
 7363SOL     OW23985  13.883  14.692  10.996
 7363SOL    HW123986  13.902  14.640  10.918
 7363SOL    HW223987  13.835  14.633  11.054
 7364SOL     OW23988   5.239   4.543  10.565
 7364SOL    HW123989   5.250   4.625  10.614
 7364SOL    HW223990   5.170   4.562  10.501
 7365SOL     OW23991   5.047   7.816   7.205
 7365SOL    HW123992   4.969   7.860   7.238
 7365SOL    HW223993   5.016   7.729   7.179
 7366SOL     OW23994  13.129  12.299  13.833
 7366SOL    HW123995  13.214  12.337  13.810
 7366SOL    HW223996  13.082  12.294  13.749
 7367SOL     OW23997   5.015   2.738  14.817
 7367SOL    HW123998   4.949   2.732  14.748
 7367SOL    HW223999   4.990   2.669  14.879
 7368SOL     OW24000  10.661  14.830   7.367
 7368SOL    HW124001  10.731  14.773   7.398
 7368SOL    HW224002  10.584  14.802   7.416
 7369SOL     OW24003   2.860   1.270   3.349
 7369SOL    HW124004   2.856   1.270   3.253
 7369SOL    HW224005   2.850   1.178   3.373
 7370SOL     OW24006  12.181  12.129   2.951
 7370SOL    HW124007  12.176  12.037   2.975
 7370SOL    HW224008  12.161  12.131   2.857
 7371SOL     OW24009  14.037   7.188   9.764
 7371SOL    HW124010  13.997   7.217   9.681
 7371SOL    HW224011  13.962   7.174   9.822
 7372SOL     OW24012  11.551  12.185   5.838
 7372SOL    HW124013  11.465  12.202   5.799
 7372SOL    HW224014  11.602  12.263   5.819
 7373SOL     OW24015   5.031   6.456  11.758
 7373SOL    HW124016   4.989   6.525  11.810
 7373SOL    HW224017   5.090   6.412  11.820
 7374SOL     OW24018  10.774  12.181   1.666
 7374SOL    HW124019  10.785  12.275   1.678
 7374SOL    HW224020  10.863  12.148   1.648
 7375SOL     OW24021  10.863  13.148   7.998
 7375SOL    HW124022  10.943  13.148   7.945
 7375SOL    HW224023  10.850  13.056   8.022
 7376SOL     OW24024   5.483   5.936  14.758
 7376SOL    HW124025   5.538   5.943  14.679
 7376SOL    HW224026   5.399   5.972  14.731
 7377SOL     OW24027  11.140   1.466   8.659
 7377SOL    HW124028  11.054   1.486   8.623
 7377SOL    HW224029  11.148   1.371   8.649
 7378SOL     OW24030   1.469   6.730   9.724
 7378SOL    HW124031   1.545   6.688   9.765
 7378SOL    HW224032   1.415   6.760   9.798
 7379SOL     OW24033   5.993   8.359  13.518
 7379SOL    HW124034   5.918   8.367  13.577
 7379SOL    HW224035   5.989   8.269  13.486
 7380SOL     OW24036  12.114   8.936   8.515
 7380SOL    HW124037  12.092   8.870   8.580
 7380SOL    HW224038  12.034   8.989   8.507
 7381SOL     OW24039   5.418   5.772   9.146
 7381SOL    HW124040   5.440   5.865   9.147
 7381SOL    HW224041   5.402   5.752   9.054
 7382SOL     OW24042   4.975   3.432   7.607
 7382SOL    HW124043   4.937   3.381   7.536
 7382SOL    HW224044   4.900   3.469   7.653
 7383SOL     OW24045   8.100  12.375   2.407
 7383SOL    HW124046   8.113  12.441   2.339
 7383SOL    HW224047   8.009  12.347   2.396
 7384SOL     OW24048  10.578   7.921   0.780
 7384SOL    HW124049  10.555   7.878   0.698
 7384SOL    HW224050  10.667   7.953   0.768
 7385SOL     OW24051  13.650   5.793   6.742
 7385SOL    HW124052  13.590   5.868   6.734
 7385SOL    HW224053  13.624   5.734   6.672
 7386SOL     OW24054  10.671  11.443   6.980
 7386SOL    HW124055  10.628  11.398   7.053
 7386SOL    HW224056  10.623  11.525   6.969
 7387SOL     OW24057   2.467   1.599  13.860
 7387SOL    HW124058   2.483   1.633  13.948
 7387SOL    HW224059   2.483   1.505  13.868
 7388SOL     OW24060   9.536  12.476  12.497
 7388SOL    HW124061   9.576  12.438  12.419
 7388SOL    HW224062   9.484  12.550  12.465
 7389SOL     OW24063  12.010   4.752   7.057
 7389SOL    HW124064  11.929   4.768   7.105
 7389SOL    HW224065  12.080   4.762   7.122
 7390SOL     OW24066   4.483  13.963   1.808
 7390SOL    HW124067   4.501  13.978   1.716
 7390SOL    HW224068   4.560  13.997   1.854
 7391SOL     OW24069   9.270   2.567  13.097
 7391SOL    HW124070   9.343   2.560  13.159
 7391SOL    HW224071   9.237   2.478  13.089
 7392SOL     OW24072  12.297  12.072  14.821
 7392SOL    HW124073  12.209  12.036  14.806
 7392SOL    HW224074  12.356  11.997  14.812
 7393SOL     OW24075   7.811   6.090  13.718
 7393SOL    HW124076   7.779   6.004  13.743
 7393SOL    HW224077   7.844   6.128  13.800
 7394SOL     OW24078   6.453  10.997   7.503
 7394SOL    HW124079   6.417  11.040   7.581
 7394SOL    HW224080   6.395  11.023   7.432
 7395SOL     OW24081  14.728   2.167   1.145
 7395SOL    HW124082  14.678   2.107   1.199
 7395SOL    HW224083  14.761   2.112   1.073
 7396SOL     OW24084  14.720   4.609   6.454
 7396SOL    HW124085  14.808   4.570   6.456
 7396SOL    HW224086  14.687   4.589   6.366
 7397SOL     OW24087   9.882   3.706   1.027
 7397SOL    HW124088   9.976   3.714   1.013
 7397SOL    HW224089   9.844   3.768   0.964
 7398SOL     OW24090   0.290  11.360   7.906
 7398SOL    HW124091   0.311  11.421   7.836
 7398SOL    HW224092   0.244  11.412   7.972
 7399SOL     OW24093   1.947  12.675   9.851
 7399SOL    HW124094   2.004  12.665   9.927
 7399SOL    HW224095   1.904  12.760   9.865
 7400SOL     OW24096  10.864   5.212  12.477
 7400SOL    HW124097  10.829   5.125  12.496
 7400SOL    HW224098  10.790   5.271  12.488
 7401SOL     OW24099   6.742   9.314  12.266
 7401SOL    HW124100   6.660   9.360  12.246
 7401SOL    HW224101   6.789   9.313  12.183
 7402SOL     OW24102   5.679  12.799   0.460
 7402SOL    HW124103   5.675  12.875   0.403
 7402SOL    HW224104   5.589  12.784   0.489
 7403SOL     OW24105   5.971   1.842   6.031
 7403SOL    HW124106   5.932   1.764   6.072
 7403SOL    HW224107   5.975   1.907   6.102
 7404SOL     OW24108  14.066   1.261  11.521
 7404SOL    HW124109  14.146   1.235  11.475
 7404SOL    HW224110  14.067   1.210  11.602
 7405SOL     OW24111   4.381   1.936   2.983
 7405SOL    HW124112   4.349   2.010   3.036
 7405SOL    HW224113   4.443   1.891   3.041
 7406SOL     OW24114   6.699   3.177  12.573
 7406SOL    HW124115   6.682   3.102  12.516
 7406SOL    HW224116   6.612   3.206  12.601
 7407SOL     OW24117  12.041  12.591  13.111
 7407SOL    HW124118  12.048  12.686  13.121
 7407SOL    HW224119  11.950  12.572  13.133
 7408SOL     OW24120  11.852   9.492  11.676
 7408SOL    HW124121  11.932   9.496  11.624
 7408SOL    HW224122  11.827   9.400  11.676
 7409SOL     OW24123   6.578   9.053  12.350
 7409SOL    HW124124   6.596   8.960  12.358
 7409SOL    HW224125   6.664   9.094  12.345
 7410SOL     OW24126   1.314   4.677   1.833
 7410SOL    HW124127   1.374   4.606   1.812
 7410SOL    HW224128   1.265   4.692   1.752
 7411SOL     OW24129  11.797  11.226   5.136
 7411SOL    HW124130  11.785  11.156   5.201
 7411SOL    HW224131  11.878  11.203   5.091
 7412SOL     OW24132   2.401  10.942  11.494
 7412SOL    HW124133   2.444  11.027  11.493
 7412SOL    HW224134   2.441  10.896  11.568
 7413SOL     OW24135   7.043  14.806   0.368
 7413SOL    HW124136   7.082  14.864   0.303
 7413SOL    HW224137   7.106  14.804   0.440
 7414SOL     OW24138  14.759   1.880  11.681
 7414SOL    HW124139  14.734   1.813  11.616
 7414SOL    HW224140  14.762   1.961  11.631
 7415SOL     OW24141   4.259  14.472  10.134
 7415SOL    HW124142   4.240  14.388  10.093
 7415SOL    HW224143   4.352  14.488  10.115
 7416SOL     OW24144   2.401   9.822   1.140
 7416SOL    HW124145   2.446   9.752   1.092
 7416SOL    HW224146   2.333   9.777   1.190
 7417SOL     OW24147   3.551   6.339   7.073
 7417SOL    HW124148   3.559   6.428   7.038
 7417SOL    HW224149   3.496   6.349   7.151
 7418SOL     OW24150  13.500   5.482   4.607
 7418SOL    HW124151  13.437   5.422   4.647
 7418SOL    HW224152  13.450   5.527   4.538
 7419SOL     OW24153  10.177  10.591  14.734
 7419SOL    HW124154  10.239  10.657  14.704
 7419SOL    HW224155  10.203  10.511  14.688
 7420SOL     OW24156  10.029  13.177  10.197
 7420SOL    HW124157   9.965  13.132  10.253
 7420SOL    HW224158  10.019  13.135  10.111
 7421SOL     OW24159   0.628  13.532  11.448
 7421SOL    HW124160   0.541  13.556  11.479
 7421SOL    HW224161   0.682  13.608  11.469
 7422SOL     OW24162   9.350  13.890   4.695
 7422SOL    HW124163   9.288  13.872   4.625
 7422SOL    HW224164   9.310  13.961   4.745
 7423SOL     OW24165  10.748   0.760   6.744
 7423SOL    HW124166  10.657   0.745   6.720
 7423SOL    HW224167  10.783   0.817   6.675
 7424SOL     OW24168   6.945   3.656  13.186
 7424SOL    HW124169   6.888   3.682  13.259
 7424SOL    HW224170   7.026   3.705  13.201
 7425SOL     OW24171   9.583   6.359   8.961
 7425SOL    HW124172   9.628   6.372   8.878
 7425SOL    HW224173   9.569   6.264   8.966
 7426SOL     OW24174   7.908   4.108  14.565
 7426SOL    HW124175   7.836   4.047  14.581
 7426SOL    HW224176   7.867   4.194  14.558
 7427SOL     OW24177   8.081   6.649   7.034
 7427SOL    HW124178   7.987   6.635   7.030
 7427SOL    HW224179   8.096   6.693   7.118
 7428SOL     OW24180  11.619   7.334   9.838
 7428SOL    HW124181  11.557   7.345   9.911
 7428SOL    HW224182  11.571   7.280   9.775
 7429SOL     OW24183   0.633   8.443   8.585
 7429SOL    HW124184   0.613   8.529   8.622
 7429SOL    HW224185   0.575   8.383   8.633
 7430SOL     OW24186   9.340   3.076  10.405
 7430SOL    HW124187   9.413   3.137  10.401
 7430SOL    HW224188   9.262   3.131  10.390
 7431SOL     OW24189   6.869   4.885   7.228
 7431SOL    HW124190   6.936   4.820   7.253
 7431SOL    HW224191   6.804   4.835   7.179
 7432SOL     OW24192   7.618   6.403   4.654
 7432SOL    HW124193   7.591   6.313   4.636
 7432SOL    HW224194   7.536   6.453   4.653
 7433SOL     OW24195   3.774  13.911   5.201
 7433SOL    HW124196   3.831  13.837   5.183
 7433SOL    HW224197   3.743  13.897   5.291
 7434SOL     OW24198   3.031   2.312   5.076
 7434SOL    HW124199   3.022   2.285   5.168
 7434SOL    HW224200   3.085   2.243   5.036
 7435SOL     OW24201   8.914   5.143   9.758
 7435SOL    HW124202   8.948   5.081   9.822
 7435SOL    HW224203   8.916   5.227   9.803
 7436SOL     OW24204   5.513   5.122  13.372
 7436SOL    HW124205   5.495   5.146  13.281
 7436SOL    HW224206   5.438   5.156  13.422
 7437SOL     OW24207  14.207   2.295   1.770
 7437SOL    HW124208  14.303   2.291   1.766
 7437SOL    HW224209  14.189   2.330   1.857
 7438SOL     OW24210   4.923  10.558   6.304
 7438SOL    HW124211   4.918  10.503   6.382
 7438SOL    HW224212   5.014  10.555   6.277
 7439SOL     OW24213  10.588   0.415   2.635
 7439SOL    HW124214  10.511   0.366   2.604
 7439SOL    HW224215  10.592   0.397   2.729
 7440SOL     OW24216   1.937  13.703   4.923
 7440SOL    HW124217   1.858  13.752   4.902
 7440SOL    HW224218   1.935  13.695   5.019
 7441SOL     OW24219   1.499   1.130  12.390
 7441SOL    HW124220   1.447   1.090  12.321
 7441SOL    HW224221   1.482   1.077  12.467
 7442SOL     OW24222  12.397  13.310  14.366
 7442SOL    HW124223  12.335  13.255  14.317
 7442SOL    HW224224  12.381  13.398  14.333
 7443SOL     OW24225  14.583   6.308   9.095
 7443SOL    HW124226  14.617   6.265   9.016
 7443SOL    HW224227  14.660   6.322   9.150
 7444SOL     OW24228  10.445   1.251  11.633
 7444SOL    HW124229  10.448   1.318  11.702
 7444SOL    HW224230  10.520   1.273  11.577
 7445SOL     OW24231   4.480   1.592   4.047
 7445SOL    HW124232   4.414   1.554   4.106
 7445SOL    HW224233   4.437   1.667   4.008
 7446SOL     OW24234   8.582   8.940   0.267
 7446SOL    HW124235   8.614   8.859   0.308
 7446SOL    HW224236   8.487   8.937   0.280
 7447SOL     OW24237  11.944   3.954   6.670
 7447SOL    HW124238  11.948   4.010   6.593
 7447SOL    HW224239  11.850   3.938   6.684
 7448SOL     OW24240   6.109   1.918   3.897
 7448SOL    HW124241   6.131   1.931   3.804
 7448SOL    HW224242   6.186   1.949   3.944
 7449SOL     OW24243  13.230   4.451  11.372
 7449SOL    HW124244  13.228   4.426  11.464
 7449SOL    HW224245  13.315   4.492  11.359
 7450SOL     OW24246  13.624  10.809   3.025
 7450SOL    HW124247  13.683  10.811   3.100
 7450SOL    HW224248  13.559  10.876   3.044
 7451SOL     OW24249   9.406  11.845  12.871
 7451SOL    HW124250   9.436  11.830  12.961
 7451SOL    HW224251   9.482  11.883  12.826
 7452SOL     OW24252   9.522  13.764   8.586
 7452SOL    HW124253   9.491  13.682   8.625
 7452SOL    HW224254   9.571  13.738   8.508
 7453SOL     OW24255  13.194  11.626   9.931
 7453SOL    HW124256  13.180  11.549   9.876
 7453SOL    HW224257  13.282  11.655   9.910
 7454SOL     OW24258   0.278  10.233   8.935
 7454SOL    HW124259   0.237  10.314   8.904
 7454SOL    HW224260   0.357  10.262   8.979
 7455SOL     OW24261   2.016   6.257   2.135
 7455SOL    HW124262   2.100   6.230   2.099
 7455SOL    HW224263   2.006   6.206   2.215
 7456SOL     OW24264   1.372   6.866   6.493
 7456SOL    HW124265   1.386   6.900   6.582
 7456SOL    HW224266   1.330   6.781   6.507
 7457SOL     OW24267  10.315   1.211  12.193
 7457SOL    HW124268  10.230   1.195  12.233
 7457SOL    HW224269  10.300   1.199  12.099
 7458SOL     OW24270  13.328   8.713   2.010
 7458SOL    HW124271  13.345   8.625   1.977
 7458SOL    HW224272  13.402   8.765   1.978
 7459SOL     OW24273  11.433  14.426  11.573
 7459SOL    HW124274  11.514  14.395  11.613
 7459SOL    HW224275  11.447  14.418  11.479
 7460SOL     OW24276   4.923  14.138  11.197
 7460SOL    HW124277   4.932  14.118  11.104
 7460SOL    HW224278   5.000  14.190  11.218
 7461SOL     OW24279  12.532   7.216  12.825
 7461SOL    HW124280  12.444   7.253  12.831
 7461SOL    HW224281  12.546   7.203  12.731
 7462SOL     OW24282  10.800   4.938  12.570
 7462SOL    HW124283  10.716   4.901  12.597
 7462SOL    HW224284  10.840   4.871  12.516
 7463SOL     OW24285  11.811   0.147  12.945
 7463SOL    HW124286  11.718   0.142  12.923
 7463SOL    HW224287  11.833   0.058  12.974
 7464SOL     OW24288  12.882  11.625  12.221
 7464SOL    HW124289  12.805  11.569  12.208
 7464SOL    HW224290  12.853  11.692  12.283
 7465SOL     OW24291   8.272   1.404   3.056
 7465SOL    HW124292   8.260   1.496   3.078
 7465SOL    HW224293   8.190   1.379   3.013
 7466SOL     OW24294   9.726   6.037   4.370
 7466SOL    HW124295   9.813   6.008   4.398
 7466SOL    HW224296   9.715   6.123   4.412
 7467SOL     OW24297   5.990   3.480   1.888
 7467SOL    HW124298   6.051   3.431   1.833
 7467SOL    HW224299   6.038   3.559   1.913
 7468SOL     OW24300  14.383   3.039  11.891
 7468SOL    HW124301  14.415   2.966  11.837
 7468SOL    HW224302  14.454   3.104  11.888
 7469SOL     OW24303   3.988  10.040   6.673
 7469SOL    HW124304   4.065  10.002   6.713
 7469SOL    HW224305   3.946  10.090   6.743
 7470SOL     OW24306  13.106   1.404  12.590
 7470SOL    HW124307  13.171   1.349  12.632
 7470SOL    HW224308  13.041   1.421  12.659
 7471SOL     OW24309  13.140   3.559   5.473
 7471SOL    HW124310  13.111   3.642   5.511
 7471SOL    HW224311  13.222   3.539   5.518
 7472SOL     OW24312   5.774   7.286  13.951
 7472SOL    HW124313   5.702   7.223  13.958
 7472SOL    HW224314   5.799   7.304  14.042
 7473SOL     OW24315   6.567   8.431  12.106
 7473SOL    HW124316   6.491   8.391  12.149
 7473SOL    HW224317   6.561   8.523  12.129
 7474SOL     OW24318   7.898  12.222   8.653
 7474SOL    HW124319   7.887  12.280   8.578
 7474SOL    HW224320   7.972  12.259   8.701
 7475SOL     OW24321   5.502   3.659   3.883
 7475SOL    HW124322   5.472   3.624   3.966
 7475SOL    HW224323   5.422   3.682   3.835
 7476SOL     OW24324  11.417   2.859   9.055
 7476SOL    HW124325  11.367   2.886   9.132
 7476SOL    HW224326  11.481   2.797   9.090
 7477SOL     OW24327   0.653   5.851   2.387
 7477SOL    HW124328   0.569   5.815   2.415
 7477SOL    HW224329   0.713   5.828   2.457
 7478SOL     OW24330   8.910   5.003   3.465
 7478SOL    HW124331   8.903   5.030   3.557
 7478SOL    HW224332   8.824   4.965   3.445
 7479SOL     OW24333  12.903  12.853   6.832
 7479SOL    HW124334  12.908  12.771   6.882
 7479SOL    HW224335  12.810  12.872   6.826
 7480SOL     OW24336   2.298   4.207   2.110
 7480SOL    HW124337   2.302   4.112   2.098
 7480SOL    HW224338   2.370   4.241   2.057
 7481SOL     OW24339  11.601   2.228   9.758
 7481SOL    HW124340  11.629   2.212   9.849
 7481SOL    HW224341  11.549   2.308   9.763
 7482SOL     OW24342  14.405  14.520   6.624
 7482SOL    HW124343  14.356  14.455   6.573
 7482SOL    HW224344  14.436  14.471   6.700
 7483SOL     OW24345  13.722  10.008   7.391
 7483SOL    HW124346  13.801  10.055   7.416
 7483SOL    HW224347  13.749   9.916   7.386
 7484SOL     OW24348   4.462  12.652  11.246
 7484SOL    HW124349   4.526  12.589  11.280
 7484SOL    HW224350   4.386  12.599  11.222
 7485SOL     OW24351   8.791  12.683   9.467
 7485SOL    HW124352   8.800  12.610   9.406
 7485SOL    HW224353   8.749  12.645   9.544
 7486SOL     OW24354   4.570   7.236   0.057
 7486SOL    HW124355   4.493   7.185   0.035
 7486SOL    HW224356   4.604   7.196   0.138
 7487SOL     OW24357  14.296  11.144   1.305
 7487SOL    HW124358  14.385  11.176   1.320
 7487SOL    HW224359  14.308  11.056   1.269
 7488SOL     OW24360  10.816   4.180  14.582
 7488SOL    HW124361  10.819   4.244  14.653
 7488SOL    HW224362  10.892   4.124  14.597
 7489SOL     OW24363   4.168   6.749   3.912
 7489SOL    HW124364   4.162   6.843   3.894
 7489SOL    HW224365   4.149   6.707   3.828
 7490SOL     OW24366   8.990  11.068   5.990
 7490SOL    HW124367   8.910  11.115   6.012
 7490SOL    HW224368   8.996  11.074   5.894
 7491SOL     OW24369  12.935  11.682  13.346
 7491SOL    HW124370  12.890  11.714  13.268
 7491SOL    HW224371  13.011  11.739  13.356
 7492SOL     OW24372   4.968  10.898   0.920
 7492SOL    HW124373   4.906  10.947   0.866
 7492SOL    HW224374   5.022  10.849   0.857
 7493SOL     OW24375   3.246   7.445   2.427
 7493SOL    HW124376   3.219   7.358   2.399
 7493SOL    HW224377   3.259   7.494   2.346
 7494SOL     OW24378  14.254   3.760   4.067
 7494SOL    HW124379  14.161   3.767   4.046
 7494SOL    HW224380  14.257   3.705   4.145
 7495SOL     OW24381   0.242  12.349  10.587
 7495SOL    HW124382   0.161  12.399  10.580
 7495SOL    HW224383   0.305  12.398  10.533
 7496SOL     OW24384  13.672   7.804   6.930
 7496SOL    HW124385  13.624   7.870   6.879
 7496SOL    HW224386  13.609   7.734   6.945
 7497SOL     OW24387  14.686   5.846  10.075
 7497SOL    HW124388  14.681   5.851  10.171
 7497SOL    HW224389  14.736   5.924  10.050
 7498SOL     OW24390  12.047   1.365   8.648
 7498SOL    HW124391  12.099   1.427   8.698
 7498SOL    HW224392  11.967   1.352   8.699
 7499SOL     OW24393  13.238   6.891  13.892
 7499SOL    HW124394  13.301   6.915  13.961
 7499SOL    HW224395  13.207   6.804  13.918
 7500SOL     OW24396  10.319   8.343   2.649
 7500SOL    HW124397  10.273   8.421   2.618
 7500SOL    HW224398  10.288   8.332   2.739
 7501SOL     OW24399   5.516   7.982   0.501
 7501SOL    HW124400   5.552   8.022   0.421
 7501SOL    HW224401   5.561   7.898   0.507
 7502SOL     OW24402  14.206   8.200   2.136
 7502SOL    HW124403  14.212   8.220   2.229
 7502SOL    HW224404  14.251   8.273   2.093
 7503SOL     OW24405   1.977   4.647   4.577
 7503SOL    HW124406   2.034   4.724   4.569
 7503SOL    HW224407   1.917   4.669   4.648
 7504SOL     OW24408   3.682   4.293   4.739
 7504SOL    HW124409   3.723   4.208   4.750
 7504SOL    HW224410   3.744   4.343   4.686
 7505SOL     OW24411   2.141   9.613  11.556
 7505SOL    HW124412   2.164   9.552  11.627
 7505SOL    HW224413   2.190   9.581  11.481
 7506SOL     OW24414  14.528  10.255   1.831
 7506SOL    HW124415  14.600  10.233   1.890
 7506SOL    HW224416  14.474  10.317   1.881
 7507SOL     OW24417   0.605   8.265  14.465
 7507SOL    HW124418   0.623   8.178  14.430
 7507SOL    HW224419   0.653   8.267  14.548
 7508SOL     OW24420   4.573  14.006  13.304
 7508SOL    HW124421   4.561  13.920  13.264
 7508SOL    HW224422   4.489  14.050  13.292
 7509SOL     OW24423  10.068   4.125   7.130
 7509SOL    HW124424  10.161   4.103   7.138
 7509SOL    HW224425  10.023   4.054   7.176
 7510SOL     OW24426  13.207   9.030   2.089
 7510SOL    HW124427  13.170   8.999   2.172
 7510SOL    HW224428  13.132   9.063   2.040
 7511SOL     OW24429   9.336  13.833   9.620
 7511SOL    HW124430   9.354  13.758   9.564
 7511SOL    HW224431   9.379  13.813   9.703
 7512SOL     OW24432  10.096   0.270   6.586
 7512SOL    HW124433  10.121   0.341   6.527
 7512SOL    HW224434  10.024   0.306   6.637
 7513SOL     OW24435  12.728  13.589   5.344
 7513SOL    HW124436  12.768  13.588   5.431
 7513SOL    HW224437  12.800  13.572   5.284
 7514SOL     OW24438   0.744   4.885   7.212
 7514SOL    HW124439   0.823   4.851   7.169
 7514SOL    HW224440   0.733   4.831   7.290
 7515SOL     OW24441  11.438  14.349   2.684
 7515SOL    HW124442  11.419  14.371   2.775
 7515SOL    HW224443  11.353  14.344   2.641
 7516SOL     OW24444   2.687  14.054   9.304
 7516SOL    HW124445   2.715  14.099   9.224
 7516SOL    HW224446   2.741  14.092   9.373
 7517SOL     OW24447  11.019  13.677   7.032
 7517SOL    HW124448  11.063  13.661   7.116
 7517SOL    HW224449  11.064  13.620   6.970
 7518SOL     OW24450  11.343  10.037   9.244
 7518SOL    HW124451  11.308  10.056   9.331
 7518SOL    HW224452  11.438  10.043   9.255
 7519SOL     OW24453   9.201   5.925   9.500
 7519SOL    HW124454   9.234   5.838   9.522
 7519SOL    HW224455   9.258   5.985   9.549
 7520SOL     OW24456   4.297   8.878  12.564
 7520SOL    HW124457   4.266   8.878  12.655
 7520SOL    HW224458   4.377   8.931  12.565
 7521SOL     OW24459   5.459  12.267  11.647
 7521SOL    HW124460   5.404  12.198  11.609
 7521SOL    HW224461   5.542  12.224  11.666
 7522SOL     OW24462  13.601   7.640  13.959
 7522SOL    HW124463  13.630   7.657  13.869
 7522SOL    HW224464  13.614   7.723  14.005
 7523SOL     OW24465  14.367   3.976  10.325
 7523SOL    HW124466  14.391   3.960  10.417
 7523SOL    HW224467  14.273   3.995  10.329
 7524SOL     OW24468  14.634  11.623   1.531
 7524SOL    HW124469  14.574  11.696   1.548
 7524SOL    HW224470  14.720  11.657   1.554
 7525SOL     OW24471   9.047  10.364   2.887
 7525SOL    HW124472   9.014  10.314   2.961
 7525SOL    HW224473   8.994  10.336   2.813
 7526SOL     OW24474  13.894  14.393   6.081
 7526SOL    HW124475  13.895  14.403   6.176
 7526SOL    HW224476  13.866  14.478   6.048
 7527SOL     OW24477   4.371   1.569   8.249
 7527SOL    HW124478   4.385   1.531   8.335
 7527SOL    HW224479   4.425   1.515   8.190
 7528SOL     OW24480  11.341  10.113   4.568
 7528SOL    HW124481  11.412  10.086   4.626
 7528SOL    HW224482  11.369  10.198   4.534
 7529SOL     OW24483  10.129   0.749  12.739
 7529SOL    HW124484  10.066   0.722  12.805
 7529SOL    HW224485  10.184   0.813  12.784
 7530SOL     OW24486   2.156   1.845   3.497
 7530SOL    HW124487   2.176   1.926   3.450
 7530SOL    HW224488   2.144   1.780   3.428
 7531SOL     OW24489   3.317   9.400   8.572
 7531SOL    HW124490   3.280   9.313   8.560
 7531SOL    HW224491   3.255   9.459   8.530
 7532SOL     OW24492   0.470   6.323   5.342
 7532SOL    HW124493   0.523   6.254   5.384
 7532SOL    HW224494   0.400   6.340   5.405
 7533SOL     OW24495  14.796   1.668   2.370
 7533SOL    HW124496  14.815   1.736   2.305
 7533SOL    HW224497  14.725   1.703   2.423
 7534SOL     OW24498   8.393   9.086   8.181
 7534SOL    HW124499   8.417   8.996   8.201
 7534SOL    HW224500   8.474   9.136   8.191
 7535SOL     OW24501   1.037   6.823   6.448
 7535SOL    HW124502   1.087   6.770   6.510
 7535SOL    HW224503   1.034   6.770   6.369
 7536SOL     OW24504   6.191   7.317  11.185
 7536SOL    HW124505   6.193   7.304  11.280
 7536SOL    HW224506   6.255   7.386  11.169
 7537SOL     OW24507   1.643   2.739   1.620
 7537SOL    HW124508   1.685   2.765   1.701
 7537SOL    HW224509   1.620   2.821   1.577
 7538SOL     OW24510  12.369  12.398  11.548
 7538SOL    HW124511  12.315  12.463  11.593
 7538SOL    HW224512  12.307  12.347  11.495
 7539SOL     OW24513   8.707   4.510  11.083
 7539SOL    HW124514   8.693   4.421  11.116
 7539SOL    HW224515   8.730   4.560  11.161
 7540SOL     OW24516   2.329   3.530   4.574
 7540SOL    HW124517   2.276   3.457   4.606
 7540SOL    HW224518   2.410   3.524   4.625
 7541SOL     OW24519  14.279  10.419   1.570
 7541SOL    HW124520  14.206  10.439   1.512
 7541SOL    HW224521  14.261  10.470   1.649
 7542SOL     OW24522   6.335   7.464   8.780
 7542SOL    HW124523   6.388   7.400   8.827
 7542SOL    HW224524   6.362   7.549   8.817
 7543SOL     OW24525  10.338  14.334  13.909
 7543SOL    HW124526  10.339  14.335  13.814
 7543SOL    HW224527  10.317  14.244  13.932
 7544SOL     OW24528  11.640   1.270   6.691
 7544SOL    HW124529  11.628   1.206   6.621
 7544SOL    HW224530  11.648   1.354   6.645
 7545SOL     OW24531   1.821   5.104   9.366
 7545SOL    HW124532   1.910   5.137   9.373
 7545SOL    HW224533   1.765   5.181   9.379
 7546SOL     OW24534  13.946   6.050   4.547
 7546SOL    HW124535  13.948   6.113   4.475
 7546SOL    HW224536  13.865   6.002   4.534
 7547SOL     OW24537   4.063  12.052   3.974
 7547SOL    HW124538   4.147  12.085   3.942
 7547SOL    HW224539   4.086  11.986   4.039
 7548SOL     OW24540  10.669   9.433  12.938
 7548SOL    HW124541  10.746   9.487  12.953
 7548SOL    HW224542  10.595   9.491  12.956
 7549SOL     OW24543   0.648  11.396   8.295
 7549SOL    HW124544   0.606  11.319   8.256
 7549SOL    HW224545   0.732  11.364   8.327
 7550SOL     OW24546   9.860   6.848  12.361
 7550SOL    HW124547   9.783   6.858  12.417
 7550SOL    HW224548   9.934   6.850  12.421
 7551SOL     OW24549  12.604   3.762  14.143
 7551SOL    HW124550  12.626   3.854  14.127
 7551SOL    HW224551  12.517   3.766  14.183
 7552SOL     OW24552   5.817   0.378   3.599
 7552SOL    HW124553   5.755   0.326   3.547
 7552SOL    HW224554   5.801   0.468   3.572
 7553SOL     OW24555   3.605   8.250   3.511
 7553SOL    HW124556   3.528   8.201   3.539
 7553SOL    HW224557   3.676   8.215   3.565
 7554SOL     OW24558   4.427  14.408   9.030
 7554SOL    HW124559   4.339  14.386   8.998
 7554SOL    HW224560   4.464  14.462   8.960
 7555SOL     OW24561   5.082  10.231   9.562
 7555SOL    HW124562   5.108  10.322   9.571
 7555SOL    HW224563   4.988  10.233   9.542
 7556SOL     OW24564  14.427   4.306   3.407
 7556SOL    HW124565  14.464   4.244   3.469
 7556SOL    HW224566  14.470   4.286   3.324
 7557SOL     OW24567   6.240   0.379   7.583
 7557SOL    HW124568   6.303   0.433   7.630
 7557SOL    HW224569   6.167   0.437   7.564
 7558SOL     OW24570  12.276  14.801   4.789
 7558SOL    HW124571  12.351  14.846   4.828
 7558SOL    HW224572  12.273  14.832   4.699
 7559SOL     OW24573   4.240   7.359   6.197
 7559SOL    HW124574   4.170   7.371   6.133
 7559SOL    HW224575   4.275   7.272   6.178
 7560SOL     OW24576  14.099  10.366   7.359
 7560SOL    HW124577  14.191  10.339   7.356
 7560SOL    HW224578  14.073  10.352   7.450
 7561SOL     OW24579   0.367  12.252   8.190
 7561SOL    HW124580   0.426  12.247   8.265
 7561SOL    HW224581   0.421  12.289   8.120
 7562SOL     OW24582  13.101   2.422   5.500
 7562SOL    HW124583  13.076   2.382   5.417
 7562SOL    HW224584  13.068   2.362   5.567
 7563SOL     OW24585   5.343  11.341   0.570
 7563SOL    HW124586   5.262  11.352   0.621
 7563SOL    HW224587   5.393  11.276   0.619
 7564SOL     OW24588  13.555   0.545  11.334
 7564SOL    HW124589  13.588   0.486  11.266
 7564SOL    HW224590  13.580   0.503  11.416
 7565SOL     OW24591   8.340   8.345  12.484
 7565SOL    HW124592   8.256   8.385  12.465
 7565SOL    HW224593   8.404   8.402  12.441
 7566SOL     OW24594  12.678   7.076  13.849
 7566SOL    HW124595  12.721   7.115  13.773
 7566SOL    HW224596  12.726   7.111  13.924
 7567SOL     OW24597  13.131   4.314  12.980
 7567SOL    HW124598  13.049   4.338  13.023
 7567SOL    HW224599  13.130   4.218  12.978
 7568SOL     OW24600   5.476   1.872  13.837
 7568SOL    HW124601   5.512   1.910  13.756
 7568SOL    HW224602   5.453   1.948  13.891
 7569SOL     OW24603   4.398   9.076   1.887
 7569SOL    HW124604   4.378   8.990   1.924
 7569SOL    HW224605   4.414   9.059   1.794
 7570SOL     OW24606   7.578  14.392   6.550
 7570SOL    HW124607   7.576  14.400   6.646
 7570SOL    HW224608   7.669  14.372   6.530
 7571SOL     OW24609   6.551  11.696   9.659
 7571SOL    HW124610   6.520  11.606   9.668
 7571SOL    HW224611   6.471  11.749   9.657
 7572SOL     OW24612  13.292  14.475   0.920
 7572SOL    HW124613  13.374  14.445   0.960
 7572SOL    HW224614  13.231  14.403   0.933
 7573SOL     OW24615  13.580   3.960  10.545
 7573SOL    HW124616  13.491   3.946  10.513
 7573SOL    HW224617  13.596   4.054  10.533
 7574SOL     OW24618  14.517  14.372   0.830
 7574SOL    HW124619  14.459  14.300   0.853
 7574SOL    HW224620  14.460  14.438   0.790
 7575SOL     OW24621   5.381  13.637   2.632
 7575SOL    HW124622   5.425  13.674   2.555
 7575SOL    HW224623   5.288  13.649   2.614
 7576SOL     OW24624   7.708  13.111  12.634
 7576SOL    HW124625   7.801  13.095  12.618
 7576SOL    HW224626   7.704  13.137  12.726
 7577SOL     OW24627   3.255   2.778   0.075
 7577SOL    HW124628   3.260   2.767   0.169
 7577SOL    HW224629   3.325   2.722   0.040
 7578SOL     OW24630   9.454  13.153   0.670
 7578SOL    HW124631   9.530  13.111   0.630
 7578SOL    HW224632   9.458  13.127   0.762
 7579SOL     OW24633  13.736   0.577  10.976
 7579SOL    HW124634  13.679   0.629  10.919
 7579SOL    HW224635  13.677   0.543  11.044
 7580SOL     OW24636   6.058   9.761   8.472
 7580SOL    HW124637   5.967   9.785   8.452
 7580SOL    HW224638   6.110   9.811   8.409
 7581SOL     OW24639  13.741  10.565   0.407
 7581SOL    HW124640  13.655  10.526   0.389
 7581SOL    HW224641  13.724  10.629   0.476
 7582SOL     OW24642   8.646   1.894   1.333
 7582SOL    HW124643   8.668   1.983   1.362
 7582SOL    HW224644   8.673   1.891   1.242
 7583SOL     OW24645  11.344   9.516   4.526
 7583SOL    HW124646  11.317   9.503   4.436
 7583SOL    HW224647  11.268   9.556   4.569
 7584SOL     OW24648   1.953   1.078  14.042
 7584SOL    HW124649   1.880   1.130  14.009
 7584SOL    HW224650   1.916   0.990  14.055
 7585SOL     OW24651  11.661   8.063   0.132
 7585SOL    HW124652  11.705   7.979   0.142
 7585SOL    HW224653  11.691   8.115   0.207
 7586SOL     OW24654   7.893  14.306  10.253
 7586SOL    HW124655   7.926  14.379  10.201
 7586SOL    HW224656   7.895  14.231  10.194
 7587SOL     OW24657   4.056  13.459  14.723
 7587SOL    HW124658   3.975  13.455  14.672
 7587SOL    HW224659   4.123  13.488  14.661
 7588SOL     OW24660   9.686   6.023   7.227
 7588SOL    HW124661   9.708   5.991   7.140
 7588SOL    HW224662   9.768   6.018   7.276
 7589SOL     OW24663   1.209   9.781   4.536
 7589SOL    HW124664   1.166   9.719   4.478
 7589SOL    HW224665   1.286   9.811   4.487
 7590SOL     OW24666  11.803  11.358   3.073
 7590SOL    HW124667  11.790  11.263   3.076
 7590SOL    HW224668  11.871  11.371   3.007
 7591SOL     OW24669   4.899   4.809   0.357
 7591SOL    HW124670   4.843   4.883   0.331
 7591SOL    HW224671   4.977   4.851   0.394
 7592SOL     OW24672  14.064   1.648   8.462
 7592SOL    HW124673  14.051   1.742   8.448
 7592SOL    HW224674  14.056   1.609   8.375
 7593SOL     OW24675   8.677  12.146   8.863
 7593SOL    HW124676   8.733  12.149   8.785
 7593SOL    HW224677   8.603  12.203   8.841
 7594SOL     OW24678   1.051   5.376   4.628
 7594SOL    HW124679   1.049   5.412   4.539
 7594SOL    HW224680   0.976   5.318   4.632
 7595SOL     OW24681   7.116   1.882   9.744
 7595SOL    HW124682   7.154   1.795   9.736
 7595SOL    HW224683   7.180   1.932   9.795
 7596SOL     OW24684   1.268  13.001  13.534
 7596SOL    HW124685   1.180  13.030  13.511
 7596SOL    HW224686   1.324  13.077  13.520
 7597SOL     OW24687  10.665  13.417   9.022
 7597SOL    HW124688  10.743  13.411   8.967
 7597SOL    HW224689  10.685  13.487   9.084
 7598SOL     OW24690   6.529   9.394   5.646
 7598SOL    HW124691   6.592   9.331   5.611
 7598SOL    HW224692   6.530   9.466   5.582
 7599SOL     OW24693  13.198   5.157  14.358
 7599SOL    HW124694  13.233   5.213  14.427
 7599SOL    HW224695  13.239   5.072  14.372
 7600SOL     OW24696   2.849  14.368  13.760
 7600SOL    HW124697   2.930  14.368  13.709
 7600SOL    HW224698   2.878  14.379  13.851
 7601SOL     OW24699   1.505   3.434   0.153
 7601SOL    HW124700   1.435   3.403   0.209
 7601SOL    HW224701   1.493   3.389   0.069
 7602SOL     OW24702   0.306   5.854   8.624
 7602SOL    HW124703   0.250   5.914   8.574
 7602SOL    HW224704   0.262   5.845   8.709
 7603SOL     OW24705   5.721  10.943  10.200
 7603SOL    HW124706   5.654  10.994  10.246
 7603SOL    HW224707   5.800  10.954  10.253
 7604SOL     OW24708   1.750   5.625  14.586
 7604SOL    HW124709   1.714   5.714  14.586
 7604SOL    HW224710   1.771   5.608  14.678
 7605SOL     OW24711  12.152   0.938  14.772
 7605SOL    HW124712  12.130   0.982  14.854
 7605SOL    HW224713  12.145   1.006  14.705
 7606SOL     OW24714  11.771   1.566  10.734
 7606SOL    HW124715  11.844   1.582  10.794
 7606SOL    HW224716  11.693   1.572  10.789
 7607SOL     OW24717   0.248   6.638   5.499
 7607SOL    HW124718   0.319   6.696   5.527
 7607SOL    HW224719   0.209   6.606   5.580
 7608SOL     OW24720   9.770  13.990   3.102
 7608SOL    HW124721   9.696  14.025   3.053
 7608SOL    HW224722   9.831  13.958   3.035
 7609SOL     OW24723  12.019  11.766   7.556
 7609SOL    HW124724  12.060  11.681   7.568
 7609SOL    HW224725  11.973  11.782   7.639
 7610SOL     OW24726   0.857   1.374   6.360
 7610SOL    HW124727   0.899   1.289   6.374
 7610SOL    HW224728   0.792   1.357   6.292
 7611SOL     OW24729  14.646   8.863  11.787
 7611SOL    HW124730  14.585   8.852  11.861
 7611SOL    HW224731  14.721   8.810  11.811
 7612SOL     OW24732   3.461  14.426  10.591
 7612SOL    HW124733   3.530  14.488  10.611
 7612SOL    HW224734   3.386  14.481  10.568
 7613SOL     OW24735   9.052   9.379  12.950
 7613SOL    HW124736   8.964   9.354  12.923
 7613SOL    HW224737   9.096   9.402  12.868
 7614SOL     OW24738   6.749   2.112  12.230
 7614SOL    HW124739   6.770   2.022  12.258
 7614SOL    HW224740   6.800   2.167  12.289
 7615SOL     OW24741  10.040   0.402  11.301
 7615SOL    HW124742  10.087   0.319  11.304
 7615SOL    HW224743   9.949   0.379  11.322
 7616SOL     OW24744  13.521   9.850   7.607
 7616SOL    HW124745  13.550   9.864   7.697
 7616SOL    HW224746  13.430   9.823   7.615
 7617SOL     OW24747   2.532   0.170  14.579
 7617SOL    HW124748   2.567   0.085  14.606
 7617SOL    HW224749   2.437   0.157  14.578
 7618SOL     OW24750   8.091   9.951  12.119
 7618SOL    HW124751   8.133   9.897  12.185
 7618SOL    HW224752   8.087  10.038  12.158
 7619SOL     OW24753   5.347   4.111   8.237
 7619SOL    HW124754   5.310   4.179   8.293
 7619SOL    HW224755   5.428   4.147   8.203
 7620SOL     OW24756   9.602   6.861  10.315
 7620SOL    HW124757   9.636   6.942  10.279
 7620SOL    HW224758   9.679   6.805  10.327
 7621SOL     OW24759  10.998  14.612  14.407
 7621SOL    HW124760  11.030  14.603  14.496
 7621SOL    HW224761  11.001  14.523  14.371
 7622SOL     OW24762  12.820  13.984   2.302
 7622SOL    HW124763  12.863  13.982   2.387
 7622SOL    HW224764  12.729  13.962   2.321
 7623SOL     OW24765   8.617   9.953  13.763
 7623SOL    HW124766   8.709   9.942  13.786
 7623SOL    HW224767   8.615   9.950  13.668
 7624SOL     OW24768   9.845   6.989  11.505
 7624SOL    HW124769   9.798   6.980  11.588
 7624SOL    HW224770   9.819   6.913  11.454
 7625SOL     OW24771   8.206   2.448   8.853
 7625SOL    HW124772   8.237   2.538   8.861
 7625SOL    HW224773   8.201   2.432   8.759
 7626SOL     OW24774  12.801   0.167   6.482
 7626SOL    HW124775  12.748   0.235   6.441
 7626SOL    HW224776  12.789   0.089   6.427
 7627SOL     OW24777   3.167   1.219  14.634
 7627SOL    HW124778   3.092   1.220  14.575
 7627SOL    HW224779   3.138   1.267  14.711
 7628SOL     OW24780   2.026  12.532   9.608
 7628SOL    HW124781   2.022  12.589   9.685
 7628SOL    HW224782   1.947  12.554   9.558
 7629SOL     OW24783   6.057   0.594   6.578
 7629SOL    HW124784   6.122   0.527   6.557
 7629SOL    HW224785   6.013   0.612   6.495
 7630SOL     OW24786   2.484   1.610  13.409
 7630SOL    HW124787   2.436   1.605  13.492
 7630SOL    HW224788   2.495   1.519  13.382
 7631SOL     OW24789  14.756   4.660   2.313
 7631SOL    HW124790  14.804   4.604   2.374
 7631SOL    HW224791  14.767   4.749   2.347
 7632SOL     OW24792  13.133  13.726   1.567
 7632SOL    HW124793  13.124  13.820   1.552
 7632SOL    HW224794  13.056  13.688   1.526
 7633SOL     OW24795  12.583   1.921   4.031
 7633SOL    HW124796  12.642   1.912   4.106
 7633SOL    HW224797  12.531   1.999   4.050
 7634SOL     OW24798   2.290   2.069  13.846
 7634SOL    HW124799   2.308   2.050  13.938
 7634SOL    HW224800   2.199   2.099  13.846
 7635SOL     OW24801  13.952   8.500  13.496
 7635SOL    HW124802  13.918   8.410  13.497
 7635SOL    HW224803  13.917   8.538  13.416
 7636SOL     OW24804   5.540  10.992  14.581
 7636SOL    HW124805   5.601  11.059  14.551
 7636SOL    HW224806   5.550  10.990  14.676
 7637SOL     OW24807   0.326  13.697  10.567
 7637SOL    HW124808   0.393  13.762  10.548
 7637SOL    HW224809   0.270  13.696  10.489
 7638SOL     OW24810   6.031   0.751   3.166
 7638SOL    HW124811   6.076   0.667   3.160
 7638SOL    HW224812   6.091   0.814   3.127
 7639SOL     OW24813   3.852  10.974  10.077
 7639SOL    HW124814   3.936  10.983  10.032
 7639SOL    HW224815   3.870  10.916  10.150
 7640SOL     OW24816  11.012   3.619  11.965
 7640SOL    HW124817  11.059   3.660  12.037
 7640SOL    HW224818  10.946   3.564  12.008
 7641SOL     OW24819  11.958   1.285  10.445
 7641SOL    HW124820  11.994   1.328  10.522
 7641SOL    HW224821  11.936   1.356  10.385
 7642SOL     OW24822  10.805   6.948  11.905
 7642SOL    HW124823  10.763   6.940  11.820
 7642SOL    HW224824  10.763   6.880  11.959
 7643SOL     OW24825  12.370  12.276   1.208
 7643SOL    HW124826  12.423  12.344   1.167
 7643SOL    HW224827  12.311  12.247   1.138
 7644SOL     OW24828  11.690  13.748  11.165
 7644SOL    HW124829  11.650  13.769  11.250
 7644SOL    HW224830  11.696  13.832  11.120
 7645SOL     OW24831   1.170   8.818   9.042
 7645SOL    HW124832   1.165   8.727   9.013
 7645SOL    HW224833   1.264   8.839   9.038
 7646SOL     OW24834   1.742   6.469   0.470
 7646SOL    HW124835   1.810   6.536   0.458
 7646SOL    HW224836   1.763   6.403   0.404
 7647SOL     OW24837   9.237   1.828   1.306
 7647SOL    HW124838   9.177   1.857   1.237
 7647SOL    HW224839   9.180   1.808   1.380
 7648SOL     OW24840   7.005  14.077  11.958
 7648SOL    HW124841   6.986  14.000  12.011
 7648SOL    HW224842   7.051  14.136  12.018
 7649SOL     OW24843   7.568   7.128  12.763
 7649SOL    HW124844   7.558   7.046  12.716
 7649SOL    HW224845   7.556   7.105  12.855
 7650SOL     OW24846   3.773   7.458   1.533
 7650SOL    HW124847   3.753   7.437   1.442
 7650SOL    HW224848   3.719   7.398   1.584
 7651SOL     OW24849   4.690  14.170   7.334
 7651SOL    HW124850   4.605  14.206   7.362
 7651SOL    HW224851   4.752  14.199   7.401
 7652SOL     OW24852  10.482   7.677  11.096
 7652SOL    HW124853  10.409   7.620  11.119
 7652SOL    HW224854  10.459   7.762  11.134
 7653SOL     OW24855   2.673  11.598   7.238
 7653SOL    HW124856   2.666  11.683   7.194
 7653SOL    HW224857   2.705  11.620   7.325
 7654SOL     OW24858   4.827   7.978  11.716
 7654SOL    HW124859   4.877   7.998  11.796
 7654SOL    HW224860   4.817   7.883  11.718
 7655SOL     OW24861  13.548   7.884  12.505
 7655SOL    HW124862  13.490   7.841  12.442
 7655SOL    HW224863  13.568   7.968  12.464
 7656SOL     OW24864   0.660   4.829  14.441
 7656SOL    HW124865   0.642   4.836  14.348
 7656SOL    HW224866   0.670   4.919  14.471
 7657SOL     OW24867   7.179   8.748  10.042
 7657SOL    HW124868   7.154   8.801   9.967
 7657SOL    HW224869   7.192   8.812  10.113
 7658SOL     OW24870   1.972   4.242   9.360
 7658SOL    HW124871   1.923   4.295   9.423
 7658SOL    HW224872   1.917   4.240   9.282
 7659SOL     OW24873   6.867  14.623  12.362
 7659SOL    HW124874   6.806  14.580  12.303
 7659SOL    HW224875   6.814  14.686  12.410
 7660SOL     OW24876   1.791   9.810   8.667
 7660SOL    HW124877   1.751   9.727   8.639
 7660SOL    HW224878   1.732   9.877   8.633
 7661SOL     OW24879  12.596   4.408   5.476
 7661SOL    HW124880  12.653   4.485   5.483
 7661SOL    HW224881  12.650   4.335   5.504
 7662SOL     OW24882  13.435   9.854   0.453
 7662SOL    HW124883  13.392   9.926   0.501
 7662SOL    HW224884  13.363   9.795   0.429
 7663SOL     OW24885  13.736  10.333   2.659
 7663SOL    HW124886  13.644  10.356   2.644
 7663SOL    HW224887  13.775  10.332   2.572
 7664SOL     OW24888   9.840  11.950  11.604
 7664SOL    HW124889   9.812  11.876  11.658
 7664SOL    HW224890   9.925  11.976  11.641
 7665SOL     OW24891   1.121  13.095   9.065
 7665SOL    HW124892   1.140  13.048   8.984
 7665SOL    HW224893   1.095  13.183   9.036
 7666SOL     OW24894   4.527   2.195  11.907
 7666SOL    HW124895   4.579   2.223  11.832
 7666SOL    HW224896   4.450   2.152  11.869
 7667SOL     OW24897   6.475   5.189   4.097
 7667SOL    HW124898   6.517   5.220   4.177
 7667SOL    HW224899   6.385   5.171   4.122
 7668SOL     OW24900   5.102   7.014  10.202
 7668SOL    HW124901   5.014   6.978  10.213
 7668SOL    HW224902   5.087   7.106  10.178
 7669SOL     OW24903   5.719   0.808  11.364
 7669SOL    HW124904   5.630   0.772  11.368
 7669SOL    HW224905   5.767   0.761  11.431
 7670SOL     OW24906   5.602   2.067   6.476
 7670SOL    HW124907   5.581   2.149   6.520
 7670SOL    HW224908   5.683   2.038   6.518
 7671SOL     OW24909   0.906   9.821   1.099
 7671SOL    HW124910   0.864   9.824   1.184
 7671SOL    HW224911   0.857   9.754   1.050
 7672SOL     OW24912  11.240   8.898   1.798
 7672SOL    HW124913  11.186   8.920   1.722
 7672SOL    HW224914  11.206   8.812   1.826
 7673SOL     OW24915   3.501   0.510   1.299
 7673SOL    HW124916   3.475   0.471   1.216
 7673SOL    HW224917   3.502   0.437   1.361
 7674SOL     OW24918   1.358  10.078   3.726
 7674SOL    HW124919   1.325  10.020   3.794
 7674SOL    HW224920   1.355  10.025   3.646
 7675SOL     OW24921   3.968   5.605   6.482
 7675SOL    HW124922   4.024   5.567   6.414
 7675SOL    HW224923   4.020   5.677   6.519
 7676SOL     OW24924  11.894   5.754   7.603
 7676SOL    HW124925  11.946   5.829   7.632
 7676SOL    HW224926  11.907   5.751   7.508
 7677SOL     OW24927   3.867  14.727   1.884
 7677SOL    HW124928   3.931  14.751   1.951
 7677SOL    HW224929   3.797  14.683   1.933
 7678SOL     OW24930   3.801   2.244   6.837
 7678SOL    HW124931   3.745   2.279   6.906
 7678SOL    HW224932   3.765   2.280   6.756
 7679SOL     OW24933   9.474   9.791  10.516
 7679SOL    HW124934   9.422   9.871  10.524
 7679SOL    HW224935   9.428   9.739  10.450
 7680SOL     OW24936  14.403  13.221   0.479
 7680SOL    HW124937  14.320  13.259   0.448
 7680SOL    HW224938  14.410  13.249   0.570
 7681SOL     OW24939  13.717   2.858   4.430
 7681SOL    HW124940  13.800   2.874   4.475
 7681SOL    HW224941  13.742   2.810   4.351
 7682SOL     OW24942   8.354   9.672   6.407
 7682SOL    HW124943   8.368   9.634   6.320
 7682SOL    HW224944   8.422   9.631   6.461
 7683SOL     OW24945   6.091   0.576   8.521
 7683SOL    HW124946   6.068   0.489   8.490
 7683SOL    HW224947   6.187   0.580   8.513
 7684SOL     OW24948  13.849   3.607  12.605
 7684SOL    HW124949  13.937   3.636  12.631
 7684SOL    HW224950  13.828   3.661  12.528
 7685SOL     OW24951   0.383   1.747   9.929
 7685SOL    HW124952   0.427   1.832   9.940
 7685SOL    HW224953   0.310   1.765   9.870
 7686SOL     OW24954   4.779  11.538   0.034
 7686SOL    HW124955   4.747  11.540  14.824
 7686SOL    HW224956   4.850  11.473   0.033
 7687SOL     OW24957  11.416   9.681   8.700
 7687SOL    HW124958  11.509   9.682   8.676
 7687SOL    HW224959  11.397   9.770   8.728
 7688SOL     OW24960   0.929   0.770  13.129
 7688SOL    HW124961   0.924   0.734  13.217
 7688SOL    HW224962   0.939   0.694  13.072
 7689SOL     OW24963   5.651  12.671   3.468
 7689SOL    HW124964   5.580  12.616   3.502
 7689SOL    HW224965   5.664  12.641   3.378
 7690SOL     OW24966  13.022   7.197   4.808
 7690SOL    HW124967  12.926   7.203   4.804
 7690SOL    HW224968  13.042   7.188   4.901
 7691SOL     OW24969   9.061   6.165  10.811
 7691SOL    HW124970   9.091   6.147  10.900
 7691SOL    HW224971   9.141   6.186  10.763
 7692SOL     OW24972   9.157  14.366   4.747
 7692SOL    HW124973   9.073  14.326   4.724
 7692SOL    HW224974   9.138  14.460   4.750
 7693SOL     OW24975   9.599   2.653   4.665
 7693SOL    HW124976   9.548   2.633   4.586
 7693SOL    HW224977   9.542   2.627   4.737
 7694SOL     OW24978  13.228   9.065   2.987
 7694SOL    HW124979  13.250   8.994   3.047
 7694SOL    HW224980  13.168   9.024   2.924
 7695SOL     OW24981  13.933   1.942   3.136
 7695SOL    HW124982  13.985   1.945   3.216
 7695SOL    HW224983  13.844   1.926   3.166
 7696SOL     OW24984  12.413  11.689   6.531
 7696SOL    HW124985  12.339  11.631   6.513
 7696SOL    HW224986  12.491  11.634   6.521
 7697SOL     OW24987   3.163   9.336  13.019
 7697SOL    HW124988   3.167   9.431  13.006
 7697SOL    HW224989   3.178   9.324  13.113
 7698SOL     OW24990  13.372  12.368  13.726
 7698SOL    HW124991  13.461  12.371  13.763
 7698SOL    HW224992  13.379  12.418  13.644
 7699SOL     OW24993  13.966  14.096   4.396
 7699SOL    HW124994  13.967  14.188   4.371
 7699SOL    HW224995  13.875  14.079   4.420
 7700SOL     OW24996   6.544   6.519  14.403
 7700SOL    HW124997   6.508   6.606  14.421
 7700SOL    HW224998   6.606   6.533  14.332
 7701SOL     OW24999   4.581  11.944   0.326
 7701SOL    HW125000   4.616  11.943   0.415
 7701SOL    HW225001   4.537  11.860   0.317
 7702SOL     OW25002   2.368  11.892  13.746
 7702SOL    HW125003   2.458  11.913  13.771
 7702SOL    HW225004   2.364  11.796  13.749
 7703SOL     OW25005   5.982   6.897   7.051
 7703SOL    HW125006   5.990   6.801   7.049
 7703SOL    HW225007   6.011   6.921   7.139
 7704SOL     OW25008  14.335  11.791   6.861
 7704SOL    HW125009  14.380  11.851   6.921
 7704SOL    HW225010  14.405  11.736   6.826
 7705SOL     OW25011   9.329   2.425   9.304
 7705SOL    HW125012   9.356   2.418   9.396
 7705SOL    HW225013   9.312   2.335   9.277
 7706SOL     OW25014  12.556   5.283  14.137
 7706SOL    HW125015  12.651   5.292  14.136
 7706SOL    HW225016  12.523   5.371  14.120
 7707SOL     OW25017   8.153   3.536   5.873
 7707SOL    HW125018   8.079   3.558   5.817
 7707SOL    HW225019   8.113   3.495   5.950
 7708SOL     OW25020   7.425   3.812   6.684
 7708SOL    HW125021   7.369   3.884   6.655
 7708SOL    HW225022   7.395   3.791   6.772
 7709SOL     OW25023  10.572   6.181  12.457
 7709SOL    HW125024  10.625   6.232  12.518
 7709SOL    HW225025  10.483   6.189  12.489
 7710SOL     OW25026  12.545   1.928  14.006
 7710SOL    HW125027  12.527   1.962  14.093
 7710SOL    HW225028  12.634   1.959  13.986
 7711SOL     OW25029  14.579   6.993   9.213
 7711SOL    HW125030  14.666   7.008   9.250
 7711SOL    HW225031  14.536   7.079   9.219
 7712SOL     OW25032   5.438  10.778   9.369
 7712SOL    HW125033   5.508  10.730   9.324
 7712SOL    HW225034   5.362  10.766   9.313
 7713SOL     OW25035   6.935  11.864  10.907
 7713SOL    HW125036   6.987  11.840  10.984
 7713SOL    HW225037   6.844  11.863  10.937
 7714SOL     OW25038  14.878   0.330   0.515
 7714SOL    HW125039  14.875   0.397   0.584
 7714SOL    HW225040  14.807   0.270   0.538
 7715SOL     OW25041   4.282   2.312   6.790
 7715SOL    HW125042   4.214   2.274   6.846
 7715SOL    HW225043   4.331   2.370   6.848
 7716SOL     OW25044   5.703  10.631  12.812
 7716SOL    HW125045   5.768  10.694  12.846
 7716SOL    HW225046   5.753  10.577  12.750
 7717SOL     OW25047  13.376   6.238  14.071
 7717SOL    HW125048  13.291   6.196  14.063
 7717SOL    HW225049  13.392   6.243  14.166
 7718SOL     OW25050   3.220   4.145  13.857
 7718SOL    HW125051   3.299   4.199  13.858
 7718SOL    HW225052   3.239   4.074  13.919
 7719SOL     OW25053   2.029  12.233   8.750
 7719SOL    HW125054   2.017  12.250   8.843
 7719SOL    HW225055   2.085  12.304   8.719
 7720SOL     OW25056  13.591   2.454   1.312
 7720SOL    HW125057  13.518   2.422   1.364
 7720SOL    HW225058  13.550   2.501   1.239
 7721SOL     OW25059   1.921   9.726  10.715
 7721SOL    HW125060   1.870   9.802  10.743
 7721SOL    HW225061   2.001   9.764  10.678
 7722SOL     OW25062   2.102  12.715   8.330
 7722SOL    HW125063   2.087  12.691   8.421
 7722SOL    HW225064   2.156  12.645   8.294
 7723SOL     OW25065   9.030  13.138   7.460
 7723SOL    HW125066   9.005  13.164   7.549
 7723SOL    HW225067   9.124  13.154   7.456
 7724SOL     OW25068   7.719   2.568  10.432
 7724SOL    HW125069   7.682   2.653  10.457
 7724SOL    HW225070   7.646   2.507  10.445
 7725SOL     OW25071  14.357   9.070   6.800
 7725SOL    HW125072  14.354   8.997   6.739
 7725SOL    HW225073  14.265   9.092   6.815
 7726SOL     OW25074   7.490  14.083   0.340
 7726SOL    HW125075   7.504  14.055   0.431
 7726SOL    HW225076   7.552  14.032   0.289
 7727SOL     OW25077  12.227   0.245  13.053
 7727SOL    HW125078  12.277   0.166  13.031
 7727SOL    HW225079  12.230   0.297  12.973
 7728SOL     OW25080  14.823   9.351   9.310
 7728SOL    HW125081  14.852   9.265   9.278
 7728SOL    HW225082  14.812   9.339   9.404
 7729SOL     OW25083  11.065  11.152   0.676
 7729SOL    HW125084  10.974  11.137   0.653
 7729SOL    HW225085  11.071  11.127   0.768
 7730SOL     OW25086   7.875  10.651   6.542
 7730SOL    HW125087   7.859  10.738   6.579
 7730SOL    HW225088   7.835  10.655   6.455
 7731SOL     OW25089  13.186   8.331  13.491
 7731SOL    HW125090  13.244   8.262  13.459
 7731SOL    HW225091  13.098   8.296  13.475
 7732SOL     OW25092   8.482   8.888  12.956
 7732SOL    HW125093   8.403   8.856  12.912
 7732SOL    HW225094   8.476   8.853  13.045
 7733SOL     OW25095  14.830   4.662  14.320
 7733SOL    HW125096   0.041   4.691  14.310
 7733SOL    HW225097  14.825   4.582  14.268
 7734SOL     OW25098   3.574  13.817  14.810
 7734SOL    HW125099   3.595  13.848   0.018
 7734SOL    HW225100   3.506  13.751  14.823
 7735SOL     OW25101   5.400  14.768   1.046
 7735SOL    HW125102   5.337  14.723   0.988
 7735SOL    HW225103   5.384  14.861   1.031
 7736SOL     OW25104   9.618  11.054   6.554
 7736SOL    HW125105   9.697  11.051   6.501
 7736SOL    HW225106   9.647  11.088   6.638
 7737SOL     OW25107   8.838  10.593  13.153
 7737SOL    HW125108   8.744  10.608  13.140
 7737SOL    HW225109   8.879  10.638  13.078
 7738SOL     OW25110   5.187   6.878  10.427
 7738SOL    HW125111   5.171   6.940  10.498
 7738SOL    HW225112   5.141   6.914  10.352
 7739SOL     OW25113   9.529  10.905   6.965
 7739SOL    HW125114   9.601  10.961   6.992
 7739SOL    HW225115   9.529  10.833   7.027
 7740SOL     OW25116  12.619  10.329   4.855
 7740SOL    HW125117  12.635  10.313   4.948
 7740SOL    HW225118  12.643  10.247   4.812
 7741SOL     OW25119   5.720   2.591   5.887
 7741SOL    HW125120   5.626   2.611   5.884
 7741SOL    HW225121   5.726   2.501   5.858
 7742SOL     OW25122   3.645   5.926  11.135
 7742SOL    HW125123   3.592   5.974  11.197
 7742SOL    HW225124   3.623   5.964  11.050
 7743SOL     OW25125   9.612  12.755  12.178
 7743SOL    HW125126   9.629  12.756  12.272
 7743SOL    HW225127   9.698  12.742  12.138
 7744SOL     OW25128   2.214  14.223   4.690
 7744SOL    HW125129   2.242  14.314   4.674
 7744SOL    HW225130   2.185  14.222   4.781
 7745SOL     OW25131  13.786   8.310   2.502
 7745SOL    HW125132  13.846   8.336   2.432
 7745SOL    HW225133  13.832   8.240   2.548
 7746SOL     OW25134  14.526   5.052   0.897
 7746SOL    HW125135  14.531   5.001   0.817
 7746SOL    HW225136  14.539   4.988   0.967
 7747SOL     OW25137  10.797   6.625   8.450
 7747SOL    HW125138  10.772   6.587   8.366
 7747SOL    HW225139  10.864   6.690   8.428
 7748SOL     OW25140  11.260  12.663   3.160
 7748SOL    HW125141  11.321  12.633   3.227
 7748SOL    HW225142  11.197  12.591   3.151
 7749SOL     OW25143   3.421  14.193   3.392
 7749SOL    HW125144   3.490  14.192   3.326
 7749SOL    HW225145   3.452  14.132   3.459
 7750SOL     OW25146   2.723   7.380  13.847
 7750SOL    HW125147   2.645   7.340  13.809
 7750SOL    HW225148   2.731   7.463  13.801
 7751SOL     OW25149  14.315   4.880  10.264
 7751SOL    HW125150  14.368   4.879  10.343
 7751SOL    HW225151  14.258   4.957  10.275
 7752SOL     OW25152  13.411  10.339  10.040
 7752SOL    HW125153  13.462  10.282   9.981
 7752SOL    HW225154  13.371  10.280  10.103
 7753SOL     OW25155  10.938   8.196  11.113
 7753SOL    HW125156  10.952   8.200  11.019
 7753SOL    HW225157  10.866   8.256  11.129
 7754SOL     OW25158   5.321  12.800  12.428
 7754SOL    HW125159   5.346  12.785  12.337
 7754SOL    HW225160   5.274  12.720  12.453
 7755SOL     OW25161  13.589   5.069  11.671
 7755SOL    HW125162  13.657   5.135  11.683
 7755SOL    HW225163  13.509   5.110  11.704
 7756SOL     OW25164   4.449   0.869  12.969
 7756SOL    HW125165   4.527   0.859  13.023
 7756SOL    HW225166   4.453   0.960  12.938
 7757SOL     OW25167   9.525   4.994   7.656
 7757SOL    HW125168   9.573   4.915   7.682
 7757SOL    HW225169   9.455   4.961   7.599
 7758SOL     OW25170  13.989  14.660  13.786
 7758SOL    HW125171  14.047  14.732  13.812
 7758SOL    HW225172  13.901  14.693  13.802
 7759SOL     OW25173  13.660   3.964  12.878
 7759SOL    HW125174  13.608   3.963  12.797
 7759SOL    HW225175  13.743   3.923  12.853
 7760SOL     OW25176  14.394  14.843   3.217
 7760SOL    HW125177  14.453  14.768   3.210
 7760SOL    HW225178  14.427   0.013   3.291
 7761SOL     OW25179   7.493   4.888   4.457
 7761SOL    HW125180   7.541   4.825   4.403
 7761SOL    HW225181   7.474   4.961   4.398
 7762SOL     OW25182   4.597   7.804   8.966
 7762SOL    HW125183   4.515   7.756   8.950
 7762SOL    HW225184   4.664   7.750   8.924
 7763SOL     OW25185   0.889   1.712   2.570
 7763SOL    HW125186   0.931   1.718   2.484
 7763SOL    HW225187   0.872   1.803   2.594
 7764SOL     OW25188  14.650  11.543   0.995
 7764SOL    HW125189  14.583  11.558   1.061
 7764SOL    HW225190  14.616  11.470   0.943
 7765SOL     OW25191   8.847  12.093   0.383
 7765SOL    HW125192   8.895  12.017   0.416
 7765SOL    HW225193   8.831  12.147   0.460
 7766SOL     OW25194  11.549  14.125   6.767
 7766SOL    HW125195  11.577  14.210   6.801
 7766SOL    HW225196  11.504  14.144   6.685
 7767SOL     OW25197   6.896   0.893   4.977
 7767SOL    HW125198   6.902   0.911   4.883
 7767SOL    HW225199   6.833   0.822   4.984
 7768SOL     OW25200  13.599   0.774   4.793
 7768SOL    HW125201  13.666   0.758   4.726
 7768SOL    HW225202  13.575   0.866   4.781
 7769SOL     OW25203  13.711   8.899   6.813
 7769SOL    HW125204  13.660   8.848   6.876
 7769SOL    HW225205  13.783   8.841   6.788
 7770SOL     OW25206   6.442   8.536   0.317
 7770SOL    HW125207   6.536   8.523   0.299
 7770SOL    HW225208   6.439   8.612   0.376
 7771SOL     OW25209   8.507  11.640   2.911
 7771SOL    HW125210   8.519  11.712   2.972
 7771SOL    HW225211   8.567  11.572   2.941
 7772SOL     OW25212   1.220   9.173   5.802
 7772SOL    HW125213   1.311   9.145   5.791
 7772SOL    HW225214   1.226   9.262   5.836
 7773SOL     OW25215  11.334  13.727   9.178
 7773SOL    HW125216  11.304  13.720   9.269
 7773SOL    HW225217  11.344  13.636   9.150
 7774SOL     OW25218   2.805   2.892   9.264
 7774SOL    HW125219   2.729   2.943   9.233
 7774SOL    HW225220   2.881   2.940   9.230
 7775SOL     OW25221  12.621   9.022  13.787
 7775SOL    HW125222  12.677   9.070  13.847
 7775SOL    HW225223  12.669   8.942  13.768
 7776SOL     OW25224  11.185   0.220   1.656
 7776SOL    HW125225  11.235   0.152   1.611
 7776SOL    HW225226  11.155   0.279   1.586
 7777SOL     OW25227  12.003   0.688   0.685
 7777SOL    HW125228  12.070   0.687   0.617
 7777SOL    HW225229  12.003   0.599   0.721
 7778SOL     OW25230   1.121  10.649   1.996
 7778SOL    HW125231   1.179  10.607   1.933
 7778SOL    HW225232   1.176  10.713   2.040
 7779SOL     OW25233   3.134   6.506   3.111
 7779SOL    HW125234   3.113   6.572   3.044
 7779SOL    HW225235   3.049   6.469   3.135
 7780SOL     OW25236  11.755  14.339   4.436
 7780SOL    HW125237  11.812  14.303   4.369
 7780SOL    HW225238  11.806  14.333   4.517
 7781SOL     OW25239   3.338  12.668  14.298
 7781SOL    HW125240   3.254  12.698  14.333
 7781SOL    HW225241   3.374  12.744  14.253
 7782SOL     OW25242   5.911   7.066  12.704
 7782SOL    HW125243   5.980   7.037  12.644
 7782SOL    HW225244   5.941   7.035  12.790
 7783SOL     OW25245   8.726   4.839   9.861
 7783SOL    HW125246   8.761   4.793   9.937
 7783SOL    HW225247   8.802   4.851   9.804
 7784SOL     OW25248  12.059  11.716   0.297
 7784SOL    HW125249  11.965  11.731   0.304
 7784SOL    HW225250  12.078  11.650   0.363
 7785SOL     OW25251   2.379   9.758   3.070
 7785SOL    HW125252   2.459   9.724   3.110
 7785SOL    HW225253   2.410   9.824   3.008
 7786SOL     OW25254  11.026   3.757   7.694
 7786SOL    HW125255  11.012   3.847   7.663
 7786SOL    HW225256  10.954   3.707   7.655
 7787SOL     OW25257  14.617   2.228   2.307
 7787SOL    HW125258  14.537   2.178   2.326
 7787SOL    HW225259  14.674   2.212   2.382
 7788SOL     OW25260   2.332  10.099   9.706
 7788SOL    HW125261   2.313  10.163   9.775
 7788SOL    HW225262   2.419  10.124   9.675
 7789SOL     OW25263  10.173   2.003  14.371
 7789SOL    HW125264  10.240   2.044  14.316
 7789SOL    HW225265  10.205   1.914  14.386
 7790SOL     OW25266   4.274   4.671   9.596
 7790SOL    HW125267   4.232   4.756   9.588
 7790SOL    HW225268   4.264   4.631   9.509
 7791SOL     OW25269  13.470   6.848   6.777
 7791SOL    HW125270  13.414   6.924   6.765
 7791SOL    HW225271  13.558   6.884   6.791
 7792SOL     OW25272   1.352   7.501  12.414
 7792SOL    HW125273   1.366   7.411  12.444
 7792SOL    HW225274   1.332   7.550  12.493
 7793SOL     OW25275   5.789   3.997   4.333
 7793SOL    HW125276   5.753   4.075   4.374
 7793SOL    HW225277   5.884   4.009   4.337
 7794SOL     OW25278   1.529  11.607   4.971
 7794SOL    HW125279   1.547  11.700   4.987
 7794SOL    HW225280   1.606  11.575   4.924
 7795SOL     OW25281   1.230   1.366   6.656
 7795SOL    HW125282   1.190   1.435   6.603
 7795SOL    HW225283   1.218   1.286   6.604
 7796SOL     OW25284   4.649  12.027   3.572
 7796SOL    HW125285   4.566  11.997   3.608
 7796SOL    HW225286   4.673  12.102   3.625
 7797SOL     OW25287   9.709  11.346   6.966
 7797SOL    HW125288   9.755  11.428   6.953
 7797SOL    HW225289   9.733  11.293   6.889
 7798SOL     OW25290   7.487  12.948   2.742
 7798SOL    HW125291   7.425  12.949   2.670
 7798SOL    HW225292   7.472  13.031   2.788
 7799SOL     OW25293   6.098  10.067   0.702
 7799SOL    HW125294   6.122  10.075   0.610
 7799SOL    HW225295   6.027  10.131   0.713
 7800SOL     OW25296   4.497   7.386  14.627
 7800SOL    HW125297   4.508   7.481  14.619
 7800SOL    HW225298   4.410   7.374  14.664
 7801SOL     OW25299   3.194  14.132   6.318
 7801SOL    HW125300   3.244  14.164   6.243
 7801SOL    HW225301   3.247  14.060   6.353
 7802SOL     OW25302  11.841   1.775  13.764
 7802SOL    HW125303  11.798   1.729  13.692
 7802SOL    HW225304  11.874   1.855  13.725
 7803SOL     OW25305   4.780   2.086   6.128
 7803SOL    HW125306   4.739   2.166   6.097
 7803SOL    HW225307   4.746   2.074   6.217
 7804SOL     OW25308   3.011   8.055   9.695
 7804SOL    HW125309   2.965   8.044   9.778
 7804SOL    HW225310   3.048   8.143   9.699
 7805SOL     OW25311   6.977  13.354   0.524
 7805SOL    HW125312   6.934  13.438   0.542
 7805SOL    HW225313   6.937  13.324   0.442
 7806SOL     OW25314   8.893   5.287   9.427
 7806SOL    HW125315   8.882   5.194   9.406
 7806SOL    HW225316   8.917   5.289   9.519
 7807SOL     OW25317   5.872   0.022   2.305
 7807SOL    HW125318   5.963  14.870   2.302
 7807SOL    HW225319   5.824  14.842   2.248
 7808SOL     OW25320   3.064   0.810   7.957
 7808SOL    HW125321   3.106   0.724   7.963
 7808SOL    HW225322   3.056   0.839   8.048
 7809SOL     OW25323   4.558   9.769  13.897
 7809SOL    HW125324   4.546   9.719  13.816
 7809SOL    HW225325   4.646   9.747  13.926
 7810SOL     OW25326   8.389  11.728   0.491
 7810SOL    HW125327   8.394  11.735   0.396
 7810SOL    HW225328   8.299  11.701   0.508
 7811SOL     OW25329   2.801   8.769   7.163
 7811SOL    HW125330   2.717   8.737   7.196
 7811SOL    HW225331   2.804   8.861   7.189
 7812SOL     OW25332   6.582   1.107   2.405
 7812SOL    HW125333   6.592   1.013   2.395
 7812SOL    HW225334   6.504   1.129   2.355
 7813SOL     OW25335   3.714   1.981  11.037
 7813SOL    HW125336   3.730   1.926  10.960
 7813SOL    HW225337   3.714   2.070  11.003
 7814SOL     OW25338   2.569  10.558   8.552
 7814SOL    HW125339   2.520  10.639   8.563
 7814SOL    HW225340   2.502  10.491   8.538
 7815SOL     OW25341  12.066   7.279   3.842
 7815SOL    HW125342  12.100   7.341   3.778
 7815SOL    HW225343  11.990   7.240   3.799
 7816SOL     OW25344   5.811  13.748   6.705
 7816SOL    HW125345   5.859  13.679   6.751
 7816SOL    HW225346   5.780  13.706   6.624
 7817SOL     OW25347   6.697   2.951  11.569
 7817SOL    HW125348   6.754   3.027  11.576
 7817SOL    HW225349   6.752   2.884  11.528
 7818SOL     OW25350  12.586  11.320   5.771
 7818SOL    HW125351  12.607  11.348   5.682
 7818SOL    HW225352  12.583  11.224   5.767
 7819SOL     OW25353   4.777   5.311   9.686
 7819SOL    HW125354   4.819   5.359   9.613
 7819SOL    HW225355   4.713   5.373   9.721
 7820SOL     OW25356   6.052   8.119   4.998
 7820SOL    HW125357   6.005   8.046   4.956
 7820SOL    HW225358   6.133   8.079   5.029
 7821SOL     OW25359   6.829   2.681   9.408
 7821SOL    HW125360   6.786   2.619   9.349
 7821SOL    HW225361   6.783   2.764   9.393
 7822SOL     OW25362   0.982   2.875   5.965
 7822SOL    HW125363   0.966   2.854   5.873
 7822SOL    HW225364   0.995   2.970   5.966
 7823SOL     OW25365  14.688  11.429   3.807
 7823SOL    HW125366  14.682  11.426   3.712
 7823SOL    HW225367  14.640  11.508   3.831
 7824SOL     OW25368   9.281   3.650  12.884
 7824SOL    HW125369   9.355   3.611  12.838
 7824SOL    HW225370   9.271   3.736  12.844
 7825SOL     OW25371  13.038  13.793  10.087
 7825SOL    HW125372  13.054  13.758  10.174
 7825SOL    HW225373  12.996  13.722  10.040
 7826SOL     OW25374   0.127  14.170   1.097
 7826SOL    HW125375   0.086  14.181   1.011
 7826SOL    HW225376   0.207  14.222   1.092
 7827SOL     OW25377   1.382   8.132   8.082
 7827SOL    HW125378   1.376   8.100   7.992
 7827SOL    HW225379   1.454   8.195   8.081
 7828SOL     OW25380   4.835  13.869  12.413
 7828SOL    HW125381   4.760  13.872  12.353
 7828SOL    HW225382   4.903  13.919  12.368
 7829SOL     OW25383   1.964  14.359   6.290
 7829SOL    HW125384   1.915  14.289   6.332
 7829SOL    HW225385   2.053  14.349   6.324
 7830SOL     OW25386   4.011   2.498   7.386
 7830SOL    HW125387   3.999   2.448   7.466
 7830SOL    HW225388   3.943   2.566   7.390
 7831SOL     OW25389   7.912  10.039   5.504
 7831SOL    HW125390   7.917   9.950   5.470
 7831SOL    HW225391   7.853  10.033   5.578
 7832SOL     OW25392   2.635   8.939   3.251
 7832SOL    HW125393   2.722   8.914   3.219
 7832SOL    HW225394   2.633   9.035   3.245
 7833SOL     OW25395  13.322   1.181   9.012
 7833SOL    HW125396  13.415   1.164   8.999
 7833SOL    HW225397  13.282   1.164   8.927
 7834SOL     OW25398   0.122   1.488   2.496
 7834SOL    HW125399   0.109   1.560   2.434
 7834SOL    HW225400   0.068   1.512   2.571
 7835SOL     OW25401   3.700   7.516   0.896
 7835SOL    HW125402   3.779   7.546   0.942
 7835SOL    HW225403   3.630   7.523   0.961
 7836SOL     OW25404  12.560  14.077  11.686
 7836SOL    HW125405  12.620  14.035  11.748
 7836SOL    HW225406  12.598  14.058  11.600
 7837SOL     OW25407  11.935   9.138   7.246
 7837SOL    HW125408  11.982   9.077   7.302
 7837SOL    HW225409  11.844   9.134   7.275
 7838SOL     OW25410   2.941   0.015   1.546
 7838SOL    HW125411   2.883  14.846   1.487
 7838SOL    HW225412   2.951   0.101   1.504
 7839SOL     OW25413  12.240  11.181   0.073
 7839SOL    HW125414  12.261  11.104   0.021
 7839SOL    HW225415  12.290  11.252   0.032
 7840SOL     OW25416  10.801  12.903  13.479
 7840SOL    HW125417  10.863  12.951  13.534
 7840SOL    HW225418  10.729  12.964  13.466
 7841SOL     OW25419   7.191  14.477   9.463
 7841SOL    HW125420   7.119  14.438   9.413
 7841SOL    HW225421   7.147  14.526   9.533
 7842SOL     OW25422   8.585  12.788   1.637
 7842SOL    HW125423   8.676  12.766   1.659
 7842SOL    HW225424   8.582  12.883   1.641
 7843SOL     OW25425  14.767   4.393   6.701
 7843SOL    HW125426  14.698   4.458   6.688
 7843SOL    HW225427  14.831   4.412   6.633
 7844SOL     OW25428   0.413   6.334   9.205
 7844SOL    HW125429   0.462   6.258   9.237
 7844SOL    HW225430   0.438   6.405   9.265
 7845SOL     OW25431  10.859   3.368   8.617
 7845SOL    HW125432  10.814   3.436   8.567
 7845SOL    HW225433  10.876   3.409   8.702
 7846SOL     OW25434  14.381  13.297   2.774
 7846SOL    HW125435  14.420  13.211   2.756
 7846SOL    HW225436  14.439  13.359   2.729
 7847SOL     OW25437   6.546   1.341   6.554
 7847SOL    HW125438   6.637   1.368   6.570
 7847SOL    HW225439   6.554   1.258   6.506
 7848SOL     OW25440   9.484   0.764   0.608
 7848SOL    HW125441   9.469   0.691   0.669
 7848SOL    HW225442   9.579   0.771   0.602
 7849SOL     OW25443   9.174   5.229   8.686
 7849SOL    HW125444   9.114   5.299   8.662
 7849SOL    HW225445   9.185   5.237   8.780
 7850SOL     OW25446   5.301   0.512   7.157
 7850SOL    HW125447   5.308   0.535   7.065
 7850SOL    HW225448   5.376   0.455   7.174
 7851SOL     OW25449   4.235   4.993  11.446
 7851SOL    HW125450   4.303   5.011  11.382
 7851SOL    HW225451   4.165   4.952  11.396
 7852SOL     OW25452  12.913   5.739  13.188
 7852SOL    HW125453  12.926   5.706  13.277
 7852SOL    HW225454  12.999   5.729  13.146
 7853SOL     OW25455  10.397   2.291   3.198
 7853SOL    HW125456  10.317   2.245   3.221
 7853SOL    HW225457  10.378   2.383   3.220
 7854SOL     OW25458   3.483  10.970   9.667
 7854SOL    HW125459   3.530  10.984   9.749
 7854SOL    HW225460   3.521  11.033   9.606
 7855SOL     OW25461  14.774   0.270   4.528
 7855SOL    HW125462  14.803   0.190   4.571
 7855SOL    HW225463  14.824   0.340   4.571
 7856SOL     OW25464   1.887   4.095   8.851
 7856SOL    HW125465   1.843   4.052   8.778
 7856SOL    HW225466   1.871   4.037   8.926
 7857SOL     OW25467  12.103   0.546   6.615
 7857SOL    HW125468  12.074   0.496   6.691
 7857SOL    HW225469  12.139   0.480   6.555
 7858SOL     OW25470  12.254   8.326  12.961
 7858SOL    HW125471  12.215   8.250  13.003
 7858SOL    HW225472  12.180   8.372  12.921
 7859SOL     OW25473   3.666   1.166   9.780
 7859SOL    HW125474   3.699   1.210   9.858
 7859SOL    HW225475   3.720   1.087   9.772
 7860SOL     OW25476   3.620  13.573   1.320
 7860SOL    HW125477   3.530  13.541   1.308
 7860SOL    HW225478   3.674  13.494   1.318
 7861SOL     OW25479   2.780   6.470  14.044
 7861SOL    HW125480   2.718   6.408  14.082
 7861SOL    HW225481   2.747   6.556  14.069
 7862SOL     OW25482   7.139   4.762   8.791
 7862SOL    HW125483   7.096   4.794   8.871
 7862SOL    HW225484   7.074   4.777   8.722
 7863SOL     OW25485  14.412   3.421  11.188
 7863SOL    HW125486  14.408   3.424  11.092
 7863SOL    HW225487  14.350   3.488  11.217
 7864SOL     OW25488   6.596   6.579   0.557
 7864SOL    HW125489   6.686   6.546   0.568
 7864SOL    HW225490   6.544   6.501   0.540
 7865SOL     OW25491  13.459   5.127  13.830
 7865SOL    HW125492  13.394   5.059  13.809
 7865SOL    HW225493  13.543   5.079  13.833
 7866SOL     OW25494  10.336   8.745   5.124
 7866SOL    HW125495  10.297   8.662   5.151
 7866SOL    HW225496  10.422   8.746   5.166
 7867SOL     OW25497  13.861  13.406  14.640
 7867SOL    HW125498  13.955  13.387  14.637
 7867SOL    HW225499  13.821  13.321  14.659
 7868SOL     OW25500   5.118   4.755   4.596
 7868SOL    HW125501   5.128   4.729   4.505
 7868SOL    HW225502   5.085   4.845   4.592
 7869SOL     OW25503   4.014   3.251   0.473
 7869SOL    HW125504   4.010   3.336   0.429
 7869SOL    HW225505   4.054   3.271   0.558
 7870SOL     OW25506  12.106   3.143  11.490
 7870SOL    HW125507  12.160   3.072  11.525
 7870SOL    HW225508  12.027   3.100  11.457
 7871SOL     OW25509   1.943  11.006   8.524
 7871SOL    HW125510   1.987  11.043   8.601
 7871SOL    HW225511   2.006  11.015   8.453
 7872SOL     OW25512  14.305   4.876   2.160
 7872SOL    HW125513  14.209   4.875   2.157
 7872SOL    HW225514  14.326   4.934   2.233
 7873SOL     OW25515  11.298   6.158  12.141
 7873SOL    HW125516  11.320   6.139  12.050
 7873SOL    HW225517  11.223   6.217  12.136
 7874SOL     OW25518   8.216   5.313   8.794
 7874SOL    HW125519   8.295   5.270   8.761
 7874SOL    HW225520   8.206   5.391   8.739
 7875SOL     OW25521  13.356  14.528   6.984
 7875SOL    HW125522  13.383  14.560   7.071
 7875SOL    HW225523  13.349  14.433   6.994
 7876SOL     OW25524   0.392   4.496  11.579
 7876SOL    HW125525   0.345   4.444  11.644
 7876SOL    HW225526   0.412   4.433  11.509
 7877SOL     OW25527   2.800  12.659  14.188
 7877SOL    HW125528   2.783  12.692  14.276
 7877SOL    HW225529   2.837  12.734  14.141
 7878SOL     OW25530  12.346  12.962   2.341
 7878SOL    HW125531  12.268  12.994   2.295
 7878SOL    HW225532  12.341  12.867   2.332
 7879SOL     OW25533  11.250  11.682  14.288
 7879SOL    HW125534  11.207  11.698  14.372
 7879SOL    HW225535  11.204  11.607  14.251
 7880SOL     OW25536  13.121  14.441   5.730
 7880SOL    HW125537  13.034  14.465   5.761
 7880SOL    HW225538  13.180  14.470   5.800
 7881SOL     OW25539   6.532  11.756  12.451
 7881SOL    HW125540   6.441  11.773  12.475
 7881SOL    HW225541   6.583  11.785  12.527
 7882SOL     OW25542   7.024   7.837   9.021
 7882SOL    HW125543   7.025   7.742   9.029
 7882SOL    HW225544   6.958   7.855   8.955
 7883SOL     OW25545   8.969   4.871   5.235
 7883SOL    HW125546   8.896   4.813   5.259
 7883SOL    HW225547   9.013   4.891   5.317
 7884SOL     OW25548   1.580  13.944   2.761
 7884SOL    HW125549   1.501  13.974   2.717
 7884SOL    HW225550   1.548  13.898   2.839
 7885SOL     OW25551   3.648  13.803   9.435
 7885SOL    HW125552   3.562  13.779   9.400
 7885SOL    HW225553   3.704  13.810   9.358
 7886SOL     OW25554   0.169  11.696   8.741
 7886SOL    HW125555   0.214  11.717   8.659
 7886SOL    HW225556   0.200  11.609   8.764
 7887SOL     OW25557   4.376  13.932   2.607
 7887SOL    HW125558   4.307  13.988   2.571
 7887SOL    HW225559   4.444  13.993   2.635
 7888SOL     OW25560   7.635   9.113   0.995
 7888SOL    HW125561   7.705   9.173   0.968
 7888SOL    HW225562   7.577   9.167   1.048
 7889SOL     OW25563   9.825   4.315  13.896
 7889SOL    HW125564   9.755   4.300  13.959
 7889SOL    HW225565   9.780   4.332  13.813
 7890SOL     OW25566   9.837   7.787   0.594
 7890SOL    HW125567   9.894   7.713   0.574
 7890SOL    HW225568   9.799   7.766   0.679
 7891SOL     OW25569  11.398   2.515  12.686
 7891SOL    HW125570  11.346   2.489  12.610
 7891SOL    HW225571  11.486   2.532  12.650
 7892SOL     OW25572   4.399   9.728   7.459
 7892SOL    HW125573   4.384   9.800   7.397
 7892SOL    HW225574   4.334   9.742   7.528
 7893SOL     OW25575   6.819   0.771  12.551
 7893SOL    HW125576   6.788   0.785  12.461
 7893SOL    HW225577   6.911   0.795  12.549
 7894SOL     OW25578   5.876   4.067   6.082
 7894SOL    HW125579   5.894   3.974   6.066
 7894SOL    HW225580   5.885   4.077   6.177
 7895SOL     OW25581   5.386   4.212  12.859
 7895SOL    HW125582   5.325   4.213  12.933
 7895SOL    HW225583   5.346   4.153  12.796
 7896SOL     OW25584   2.470   3.805  12.931
 7896SOL    HW125585   2.432   3.772  13.012
 7896SOL    HW225586   2.501   3.727  12.885
 7897SOL     OW25587   5.794   2.762   0.599
 7897SOL    HW125588   5.702   2.761   0.573
 7897SOL    HW225589   5.835   2.825   0.540
 7898SOL     OW25590  10.421   6.592  12.043
 7898SOL    HW125591  10.500   6.590  11.991
 7898SOL    HW225592  10.391   6.683  12.038
 7899SOL     OW25593   0.378   1.861   7.537
 7899SOL    HW125594   0.372   1.774   7.576
 7899SOL    HW225595   0.345   1.920   7.604
 7900SOL     OW25596  10.167   4.778   9.510
 7900SOL    HW125597  10.260   4.802   9.507
 7900SOL    HW225598  10.123   4.858   9.539
 7901SOL     OW25599   2.712   8.722  14.141
 7901SOL    HW125600   2.701   8.655  14.073
 7901SOL    HW225601   2.644   8.787  14.122
 7902SOL     OW25602  12.234   7.548  10.823
 7902SOL    HW125603  12.259   7.618  10.882
 7902SOL    HW225604  12.192   7.483  10.879
 7903SOL     OW25605  13.531   5.389   1.645
 7903SOL    HW125606  13.448   5.433   1.665
 7903SOL    HW225607  13.512   5.333   1.570
 7904SOL     OW25608   0.779   2.638   3.842
 7904SOL    HW125609   0.750   2.706   3.903
 7904SOL    HW225610   0.872   2.627   3.861
 7905SOL     OW25611   6.440  14.214   1.353
 7905SOL    HW125612   6.357  14.190   1.312
 7905SOL    HW225613   6.504  14.211   1.281
 7906SOL     OW25614  12.367   9.066  13.814
 7906SOL    HW125615  12.461   9.050  13.811
 7906SOL    HW225616  12.348   9.077  13.908
 7907SOL     OW25617   0.326  13.345   8.333
 7907SOL    HW125618   0.288  13.327   8.247
 7907SOL    HW225619   0.255  13.384   8.384
 7908SOL     OW25620   5.451   7.010   7.411
 7908SOL    HW125621   5.472   6.917   7.405
 7908SOL    HW225622   5.448   7.040   7.320
 7909SOL     OW25623   4.856   7.182   5.467
 7909SOL    HW125624   4.932   7.138   5.504
 7909SOL    HW225625   4.800   7.202   5.542
 7910SOL     OW25626   4.119  10.887   8.793
 7910SOL    HW125627   4.124  10.938   8.873
 7910SOL    HW225628   4.181  10.929   8.734
 7911SOL     OW25629   7.310   8.088   0.954
 7911SOL    HW125630   7.260   8.067   0.876
 7911SOL    HW225631   7.244   8.095   1.023
 7912SOL     OW25632   2.195  11.299  12.888
 7912SOL    HW125633   2.192  11.333  12.978
 7912SOL    HW225634   2.108  11.316  12.853
 7913SOL     OW25635   0.007   2.729  12.608
 7913SOL    HW125636  14.797   2.752  12.628
 7913SOL    HW225637   0.054   2.813  12.609
 7914SOL     OW25638   0.798  10.512  12.850
 7914SOL    HW125639   0.806  10.431  12.900
 7914SOL    HW225640   0.762  10.575  12.913
 7915SOL     OW25641  13.140   6.141  13.959
 7915SOL    HW125642  13.068   6.101  14.007
 7915SOL    HW225643  13.098   6.201  13.897
 7916SOL     OW25644  11.519   4.559  11.598
 7916SOL    HW125645  11.560   4.610  11.667
 7916SOL    HW225646  11.428   4.549  11.627
 7917SOL     OW25647   8.475  13.097   4.917
 7917SOL    HW125648   8.432  13.109   4.832
 7917SOL    HW225649   8.566  13.078   4.895
 7918SOL     OW25650   9.585  10.136  12.282
 7918SOL    HW125651   9.641  10.213  12.274
 7918SOL    HW225652   9.567  10.110  12.192
 7919SOL     OW25653  14.073  14.355  10.212
 7919SOL    HW125654  14.015  14.280  10.199
 7919SOL    HW225655  14.144  14.342  10.149
 7920SOL     OW25656  11.331   7.273   2.056
 7920SOL    HW125657  11.388   7.348   2.069
 7920SOL    HW225658  11.360   7.209   2.122
 7921SOL     OW25659   7.355  14.639   9.295
 7921SOL    HW125660   7.307  14.675   9.220
 7921SOL    HW225661   7.291  14.582   9.338
 7922SOL     OW25662  13.814  10.476  12.738
 7922SOL    HW125663  13.837  10.384  12.752
 7922SOL    HW225664  13.778  10.479  12.650
 7923SOL     OW25665  11.690   9.389  12.714
 7923SOL    HW125666  11.682   9.463  12.774
 7923SOL    HW225667  11.770   9.408  12.664
 7924SOL     OW25668   0.641   1.950   0.482
 7924SOL    HW125669   0.644   1.941   0.387
 7924SOL    HW225670   0.727   1.985   0.505
 7925SOL     OW25671   1.323  12.762   0.125
 7925SOL    HW125672   1.253  12.704   0.155
 7925SOL    HW225673   1.332  12.827   0.195
 7926SOL     OW25674   4.254   9.857  10.395
 7926SOL    HW125675   4.200   9.887  10.322
 7926SOL    HW225676   4.336   9.905  10.385
 7927SOL     OW25677   3.243   3.931  14.018
 7927SOL    HW125678   3.185   3.865  13.979
 7927SOL    HW225679   3.319   3.881  14.048
 7928SOL     OW25680   3.470  12.317  13.372
 7928SOL    HW125681   3.561  12.305  13.345
 7928SOL    HW225682   3.448  12.405  13.343
 7929SOL     OW25683   1.891   1.308   2.221
 7929SOL    HW125684   1.901   1.402   2.239
 7929SOL    HW225685   1.869   1.270   2.306
 7930SOL     OW25686  11.623  12.739  14.787
 7930SOL    HW125687  11.638  12.646  14.805
 7930SOL    HW225688  11.532  12.742  14.755
 7931SOL     OW25689  12.480   8.734   6.264
 7931SOL    HW125690  12.386   8.719   6.258
 7931SOL    HW225691  12.492   8.773   6.351
 7932SOL     OW25692   1.771   3.557   1.007
 7932SOL    HW125693   1.773   3.650   0.985
 7932SOL    HW225694   1.689   3.525   0.969
 7933SOL     OW25695   7.720  12.620   9.398
 7933SOL    HW125696   7.710  12.558   9.470
 7933SOL    HW225697   7.649  12.683   9.409
 7934SOL     OW25698   4.248   4.332   9.947
 7934SOL    HW125699   4.313   4.265   9.926
 7934SOL    HW225700   4.263   4.353  10.039
 7935SOL     OW25701   0.462  12.680   8.045
 7935SOL    HW125702   0.489  12.733   7.971
 7935SOL    HW225703   0.380  12.720   8.075
 7936SOL     OW25704  13.546   9.470  13.128
 7936SOL    HW125705  13.632   9.492  13.165
 7936SOL    HW225706  13.566   9.444  13.038
 7937SOL     OW25707  11.665   0.060  10.312
 7937SOL    HW125708  11.639  14.858  10.271
 7937SOL    HW225709  11.717   0.033  10.389
 7938SOL     OW25710   0.716   3.830  14.303
 7938SOL    HW125711   0.666   3.840  14.222
 7938SOL    HW225712   0.739   3.738  14.306
 7939SOL     OW25713   1.214   6.973   6.999
 7939SOL    HW125714   1.138   7.029   7.017
 7939SOL    HW225715   1.283   7.010   7.055
 7940SOL     OW25716   7.693  10.091  11.217
 7940SOL    HW125717   7.684  10.067  11.309
 7940SOL    HW225718   7.655  10.178  11.210
 7941SOL     OW25719   4.225   3.461  14.580
 7941SOL    HW125720   4.182   3.452  14.665
 7941SOL    HW225721   4.154   3.481  14.519
 7942SOL     OW25722  13.496   5.136   0.712
 7942SOL    HW125723  13.405   5.135   0.741
 7942SOL    HW225724  13.494   5.104   0.622
 7943SOL     OW25725   9.936   0.862  11.882
 7943SOL    HW125726   9.969   0.941  11.923
 7943SOL    HW225727   9.844   0.857  11.909
 7944SOL     OW25728   9.113  13.611   3.518
 7944SOL    HW125729   9.032  13.608   3.467
 7944SOL    HW225730   9.153  13.526   3.504
 7945SOL     OW25731  13.945   0.494   4.671
 7945SOL    HW125732  13.918   0.409   4.637
 7945SOL    HW225733  13.869   0.551   4.654
 7946SOL     OW25734  10.571   6.465  14.104
 7946SOL    HW125735  10.575   6.416  14.021
 7946SOL    HW225736  10.632   6.418  14.161
 7947SOL     OW25737   2.206   3.074   4.963
 7947SOL    HW125738   2.290   3.108   4.931
 7947SOL    HW225739   2.151   3.072   4.885
 7948SOL     OW25740  13.695   3.372   9.336
 7948SOL    HW125741  13.628   3.352   9.401
 7948SOL    HW225742  13.777   3.340   9.374
 7949SOL     OW25743   6.512   3.644   5.591
 7949SOL    HW125744   6.594   3.692   5.604
 7949SOL    HW225745   6.449   3.689   5.648
 7950SOL     OW25746  10.288   7.599   3.066
 7950SOL    HW125747  10.362   7.569   3.117
 7950SOL    HW225748  10.323   7.670   3.012
 7951SOL     OW25749   1.558   3.717   3.934
 7951SOL    HW125750   1.490   3.753   3.991
 7951SOL    HW225751   1.640   3.754   3.968
 7952SOL     OW25752   7.778  14.390   7.995
 7952SOL    HW125753   7.725  14.340   8.058
 7952SOL    HW225754   7.796  14.473   8.039
 7953SOL     OW25755   0.374   6.731  10.534
 7953SOL    HW125756   0.385   6.751  10.441
 7953SOL    HW225757   0.279   6.730  10.547
 7954SOL     OW25758   5.021   6.933  13.089
 7954SOL    HW125759   4.952   6.873  13.059
 7954SOL    HW225760   4.977   7.018  13.094
 7955SOL     OW25761   4.537   1.553   5.520
 7955SOL    HW125762   4.515   1.635   5.477
 7955SOL    HW225763   4.517   1.485   5.455
 7956SOL     OW25764  12.762   3.201   7.649
 7956SOL    HW125765  12.814   3.140   7.702
 7956SOL    HW225766  12.756   3.159   7.563
 7957SOL     OW25767   9.533   8.386  13.800
 7957SOL    HW125768   9.587   8.379  13.879
 7957SOL    HW225769   9.564   8.466  13.757
 7958SOL     OW25770   5.855   3.825   9.881
 7958SOL    HW125771   5.868   3.915   9.909
 7958SOL    HW225772   5.910   3.816   9.803
 7959SOL     OW25773   2.795  11.210   2.322
 7959SOL    HW125774   2.782  11.198   2.416
 7959SOL    HW225775   2.721  11.165   2.282
 7960SOL     OW25776   7.205   7.342   8.022
 7960SOL    HW125777   7.299   7.325   8.021
 7960SOL    HW225778   7.171   7.287   8.092
 7961SOL     OW25779  13.605   6.719   5.326
 7961SOL    HW125780  13.577   6.632   5.295
 7961SOL    HW225781  13.678   6.743   5.269
 7962SOL     OW25782  10.531   6.934   9.487
 7962SOL    HW125783  10.501   6.893   9.405
 7962SOL    HW225784  10.626   6.917   9.489
 7963SOL     OW25785  10.879   9.419   1.649
 7963SOL    HW125786  10.835   9.503   1.655
 7963SOL    HW225787  10.927   9.423   1.566
 7964SOL     OW25788   8.430   1.161   8.046
 7964SOL    HW125789   8.339   1.190   8.046
 7964SOL    HW225790   8.472   1.211   7.976
 7965SOL     OW25791   7.184   5.809   6.872
 7965SOL    HW125792   7.231   5.890   6.891
 7965SOL    HW225793   7.100   5.818   6.916
 7966SOL     OW25794   5.030   9.315   5.399
 7966SOL    HW125795   5.060   9.405   5.407
 7966SOL    HW225796   5.043   9.294   5.306
 7967SOL     OW25797  13.638   2.192   2.051
 7967SOL    HW125798  13.725   2.222   2.026
 7967SOL    HW225799  13.578   2.246   2.000
 7968SOL     OW25800   7.052   2.176  10.804
 7968SOL    HW125801   7.144   2.179  10.778
 7968SOL    HW225802   7.055   2.154  10.897
 7969SOL     OW25803  12.174   4.845   4.438
 7969SOL    HW125804  12.248   4.788   4.417
 7969SOL    HW225805  12.212   4.914   4.493
 7970SOL     OW25806  10.995   3.432   4.592
 7970SOL    HW125807  10.921   3.407   4.537
 7970SOL    HW225808  10.956   3.481   4.664
 7971SOL     OW25809   1.011   6.976   9.115
 7971SOL    HW125810   1.065   6.923   9.174
 7971SOL    HW225811   1.032   6.943   9.027
 7972SOL     OW25812   0.242   1.980  11.768
 7972SOL    HW125813   0.299   1.942  11.834
 7972SOL    HW225814   0.208   1.905  11.719
 7973SOL     OW25815  13.177   1.381   1.506
 7973SOL    HW125816  13.110   1.358   1.569
 7973SOL    HW225817  13.180   1.306   1.446
 7974SOL     OW25818   7.644   7.199  10.553
 7974SOL    HW125819   7.610   7.206  10.642
 7974SOL    HW225820   7.614   7.279  10.510
 7975SOL     OW25821  12.980   9.504  10.094
 7975SOL    HW125822  13.043   9.522  10.165
 7975SOL    HW225823  13.032   9.461  10.026
 7976SOL     OW25824   7.749  13.865   5.044
 7976SOL    HW125825   7.777  13.784   5.002
 7976SOL    HW225826   7.656  13.850   5.064
 7977SOL     OW25827   0.755   6.699  13.130
 7977SOL    HW125828   0.798   6.702  13.215
 7977SOL    HW225829   0.671   6.742  13.144
 7978SOL     OW25830  12.605   6.716  10.853
 7978SOL    HW125831  12.678   6.670  10.894
 7978SOL    HW225832  12.534   6.708  10.916
 7979SOL     OW25833   2.314   5.364   3.196
 7979SOL    HW125834   2.233   5.359   3.145
 7979SOL    HW225835   2.349   5.275   3.193
 7980SOL     OW25836   0.205   1.377   3.950
 7980SOL    HW125837   0.125   1.349   3.905
 7980SOL    HW225838   0.177   1.448   4.008
 7981SOL     OW25839  14.020  11.630  13.294
 7981SOL    HW125840  14.014  11.568  13.367
 7981SOL    HW225841  13.977  11.709  13.327
 7982SOL     OW25842   2.437   0.048   8.529
 7982SOL    HW125843   2.442   0.074   8.621
 7982SOL    HW225844   2.396  14.842   8.530
 7983SOL     OW25845   3.754   2.381   8.985
 7983SOL    HW125846   3.744   2.471   9.017
 7983SOL    HW225847   3.844   2.358   9.005
 7984SOL     OW25848   4.116   4.281  11.431
 7984SOL    HW125849   4.078   4.203  11.471
 7984SOL    HW225850   4.208   4.259  11.416
 7985SOL     OW25851   8.729  12.604   0.007
 7985SOL    HW125852   8.690  12.519   0.027
 7985SOL    HW225853   8.776  12.629   0.087
 7986SOL     OW25854   4.308   7.612   4.179
 7986SOL    HW125855   4.323   7.606   4.085
 7986SOL    HW225856   4.382   7.664   4.212
 7987SOL     OW25857   4.199   2.692   1.891
 7987SOL    HW125858   4.234   2.604   1.903
 7987SOL    HW225859   4.106   2.684   1.912
 7988SOL     OW25860   5.202  14.206   9.359
 7988SOL    HW125861   5.118  14.189   9.315
 7988SOL    HW225862   5.248  14.122   9.354
 7989SOL     OW25863   0.337   4.231  11.695
 7989SOL    HW125864   0.427   4.208  11.718
 7989SOL    HW225865   0.289   4.149  11.700
 7990SOL     OW25866   9.231   9.387  14.394
 7990SOL    HW125867   9.308   9.431  14.430
 7990SOL    HW225868   9.167   9.389  14.465
 7991SOL     OW25869   2.507   2.198   6.154
 7991SOL    HW125870   2.412   2.206   6.149
 7991SOL    HW225871   2.522   2.105   6.170
 7992SOL     OW25872  11.772  12.630  12.618
 7992SOL    HW125873  11.782  12.553  12.675
 7992SOL    HW225874  11.795  12.598  12.531
 7993SOL     OW25875  11.931   3.260  14.475
 7993SOL    HW125876  11.913   3.202  14.402
 7993SOL    HW225877  12.002   3.317  14.444
 7994SOL     OW25878  13.912   1.881   0.597
 7994SOL    HW125879  13.837   1.930   0.630
 7994SOL    HW225880  13.927   1.917   0.509
 7995SOL     OW25881   0.036  13.308  14.856
 7995SOL    HW125882   0.001  13.276   0.059
 7995SOL    HW225883   0.081  13.389  14.879
 7996SOL     OW25884  12.870   9.168  14.216
 7996SOL    HW125885  12.852   9.130  14.130
 7996SOL    HW225886  12.945   9.227  14.201
 7997SOL     OW25887   6.394   1.003  10.840
 7997SOL    HW125888   6.332   1.004  10.913
 7997SOL    HW225889   6.340   0.982  10.764
 7998SOL     OW25890   7.219   0.885   4.636
 7998SOL    HW125891   7.299   0.833   4.633
 7998SOL    HW225892   7.189   0.878   4.727
 7999SOL     OW25893   9.521  14.610   4.926
 7999SOL    HW125894   9.455  14.653   4.872
 7999SOL    HW225895   9.576  14.563   4.864
 8000SOL     OW25896  11.202   9.392   2.035
 8000SOL    HW125897  11.137   9.373   2.103
 8000SOL    HW225898  11.245   9.307   2.019
 8001SOL     OW25899  11.674  13.265  12.701
 8001SOL    HW125900  11.633  13.220  12.627
 8001SOL    HW225901  11.611  13.333  12.725
 8002SOL     OW25902  13.172   3.312   0.975
 8002SOL    HW125903  13.167   3.235   1.032
 8002SOL    HW225904  13.116   3.377   1.018
 8003SOL     OW25905   4.083  13.059   9.310
 8003SOL    HW125906   4.036  13.096   9.235
 8003SOL    HW225907   4.151  13.004   9.272
 8004SOL     OW25908   2.433  10.814   5.800
 8004SOL    HW125909   2.467  10.873   5.867
 8004SOL    HW225910   2.345  10.847   5.781
 8005SOL     OW25911   9.466   8.752   4.841
 8005SOL    HW125912   9.402   8.809   4.883
 8005SOL    HW225913   9.533   8.737   4.908
 8006SOL     OW25914  13.731   7.392  14.263
 8006SOL    HW125915  13.823   7.390  14.237
 8006SOL    HW225916  13.688   7.329  14.204
 8007SOL     OW25917  13.574  11.099  11.676
 8007SOL    HW125918  13.649  11.053  11.638
 8007SOL    HW225919  13.498  11.055  11.637
 8008SOL     OW25920   9.350   9.766  14.705
 8008SOL    HW125921   9.422   9.812  14.661
 8008SOL    HW225922   9.390   9.726  14.782
 8009SOL     OW25923   3.936   7.119   4.313
 8009SOL    HW125924   3.914   7.208   4.340
 8009SOL    HW225925   3.852   7.073   4.314
 8010SOL     OW25926  12.365   2.497  12.906
 8010SOL    HW125927  12.459   2.482  12.894
 8010SOL    HW225928  12.352   2.588  12.879
 8011SOL     OW25929   5.576   2.321  10.872
 8011SOL    HW125930   5.558   2.413  10.890
 8011SOL    HW225931   5.623   2.322  10.788
 8012SOL     OW25932   1.352  11.656   6.911
 8012SOL    HW125933   1.278  11.712   6.934
 8012SOL    HW225934   1.344  11.580   6.969
 8013SOL     OW25935   2.757  12.505  13.825
 8013SOL    HW125936   2.849  12.516  13.803
 8013SOL    HW225937   2.712  12.575  13.777
 8014SOL     OW25938   9.401   7.714   5.025
 8014SOL    HW125939   9.445   7.733   5.108
 8014SOL    HW225940   9.467   7.733   4.958
 8015SOL     OW25941   7.200   6.444   2.591
 8015SOL    HW125942   7.281   6.423   2.545
 8015SOL    HW225943   7.228   6.496   2.666
 8016SOL     OW25944   6.792  11.008  10.737
 8016SOL    HW125945   6.794  11.101  10.714
 8016SOL    HW225946   6.766  10.963  10.657
 8017SOL     OW25947   6.343   0.432   5.347
 8017SOL    HW125948   6.277   0.494   5.315
 8017SOL    HW225949   6.398   0.484   5.405
 8018SOL     OW25950   5.264   0.799   4.215
 8018SOL    HW125951   5.248   0.777   4.307
 8018SOL    HW225952   5.274   0.894   4.214
 8019SOL     OW25953   0.021   2.595  14.553
 8019SOL    HW125954   0.022   2.598  14.457
 8019SOL    HW225955   0.012   2.687  14.579
 8020SOL     OW25956   2.362   1.737   0.170
 8020SOL    HW125957   2.384   1.656   0.124
 8020SOL    HW225958   2.293   1.776   0.118
 8021SOL     OW25959   1.914   2.271   8.329
 8021SOL    HW125960   1.925   2.362   8.304
 8021SOL    HW225961   2.000   2.231   8.315
 8022SOL     OW25962   4.095  10.608  10.891
 8022SOL    HW125963   4.024  10.613  10.955
 8022SOL    HW225964   4.066  10.662  10.818
 8023SOL     OW25965   3.365   6.208  13.957
 8023SOL    HW125966   3.320   6.128  13.983
 8023SOL    HW225967   3.396   6.190  13.868
 8024SOL     OW25968   9.123   9.379   2.682
 8024SOL    HW125969   9.126   9.296   2.729
 8024SOL    HW225970   9.044   9.373   2.627
 8025SOL     OW25971   6.480   9.116   3.033
 8025SOL    HW125972   6.503   9.074   3.116
 8025SOL    HW225973   6.562   9.153   3.001
 8026SOL     OW25974  10.558   5.441   8.272
 8026SOL    HW125975  10.574   5.439   8.366
 8026SOL    HW225976  10.465   5.465   8.264
 8027SOL     OW25977  10.133   8.216   7.735
 8027SOL    HW125978  10.122   8.137   7.683
 8027SOL    HW225979  10.224   8.212   7.766
 8028SOL     OW25980  11.984   2.202  12.788
 8028SOL    HW125981  12.000   2.189  12.695
 8028SOL    HW225982  12.015   2.291  12.806
 8029SOL     OW25983  10.183   4.853   6.381
 8029SOL    HW125984  10.236   4.932   6.378
 8029SOL    HW225985  10.181   4.822   6.290
 8030SOL     OW25986  10.530  14.551   9.636
 8030SOL    HW125987  10.583  14.629   9.655
 8030SOL    HW225988  10.595  14.484   9.611
 8031SOL     OW25989  10.145  14.855   0.251
 8031SOL    HW125990  10.113   0.054   0.208
 8031SOL    HW225991  10.147  14.789   0.182
 8032SOL     OW25992   6.579   7.174   4.448
 8032SOL    HW125993   6.495   7.199   4.487
 8032SOL    HW225994   6.618   7.257   4.420
 8033SOL     OW25995   4.467  14.835  14.186
 8033SOL    HW125996   4.501  14.802  14.269
 8033SOL    HW225997   4.431   0.041  14.208
 8034SOL     OW25998   1.585   2.096   3.197
 8034SOL    HW125999   1.662   2.106   3.253
 8034SOL    HW226000   1.564   2.003   3.203
 8035SOL     OW26001   3.659   4.747  13.965
 8035SOL    HW126002   3.604   4.767  13.889
 8035SOL    HW226003   3.711   4.672  13.937
 8036SOL     OW26004   3.314   4.203  14.210
 8036SOL    HW126005   3.350   4.278  14.162
 8036SOL    HW226006   3.377   4.133  14.195
 8037SOL     OW26007  14.196  14.245   6.913
 8037SOL    HW126008  14.186  14.336   6.886
 8037SOL    HW226009  14.290  14.233   6.923
 8038SOL     OW26010  14.146  10.584   9.509
 8038SOL    HW126011  14.178  10.668   9.543
 8038SOL    HW226012  14.110  10.539   9.586
 8039SOL     OW26013   2.930   3.780   2.802
 8039SOL    HW126014   2.852   3.830   2.782
 8039SOL    HW226015   2.998   3.817   2.746
 8040SOL     OW26016   9.205   3.358  11.246
 8040SOL    HW126017   9.200   3.355  11.342
 8040SOL    HW226018   9.260   3.434  11.227
 8041SOL     OW26019   1.679   5.786   2.123
 8041SOL    HW126020   1.701   5.878   2.107
 8041SOL    HW226021   1.588   5.788   2.154
 8042SOL     OW26022   6.622  12.627   2.474
 8042SOL    HW126023   6.595  12.620   2.565
 8042SOL    HW226024   6.619  12.722   2.456
 8043SOL     OW26025  12.031   0.721   6.390
 8043SOL    HW126026  12.099   0.788   6.400
 8043SOL    HW226027  12.037   0.669   6.470
 8044SOL     OW26028   6.965   3.593   7.139
 8044SOL    HW126029   7.004   3.644   7.069
 8044SOL    HW226030   6.978   3.502   7.112
 8045SOL     OW26031   2.080   9.120   8.173
 8045SOL    HW126032   2.160   9.140   8.222
 8045SOL    HW226033   2.014   9.179   8.211
 8046SOL     OW26034   1.217   2.956   3.942
 8046SOL    HW126035   1.140   2.987   3.989
 8046SOL    HW226036   1.271   2.916   4.010
 8047SOL     OW26037   2.552   3.326   4.521
 8047SOL    HW126038   2.632   3.330   4.573
 8047SOL    HW226039   2.525   3.418   4.511
 8048SOL     OW26040   1.531   2.448   9.569
 8048SOL    HW126041   1.474   2.482   9.638
 8048SOL    HW226042   1.481   2.378   9.529
 8049SOL     OW26043   9.571  12.259  14.762
 8049SOL    HW126044   9.580  12.164  14.776
 8049SOL    HW226045   9.555  12.295  14.849
 8050SOL     OW26046  10.402   4.696   4.916
 8050SOL    HW126047  10.441   4.775   4.878
 8050SOL    HW226048  10.348   4.728   4.988
 8051SOL     OW26049   5.031   1.296   3.418
 8051SOL    HW126050   5.109   1.276   3.366
 8051SOL    HW226051   4.959   1.291   3.355
 8052SOL     OW26052  14.196   1.474   0.803
 8052SOL    HW126053  14.286   1.468   0.834
 8052SOL    HW226054  14.185   1.399   0.745
 8053SOL     OW26055   8.041   8.790   9.581
 8053SOL    HW126056   8.073   8.763   9.495
 8053SOL    HW226057   8.101   8.859   9.609
 8054SOL     OW26058  12.975   8.114   2.325
 8054SOL    HW126059  12.912   8.171   2.281
 8054SOL    HW226060  12.973   8.142   2.417
 8055SOL     OW26061   1.723   7.766  10.882
 8055SOL    HW126062   1.679   7.684  10.905
 8055SOL    HW226063   1.651   7.830  10.876
 8056SOL     OW26064   8.321  10.480   7.734
 8056SOL    HW126065   8.291  10.561   7.694
 8056SOL    HW226066   8.242  10.438   7.768
 8057SOL     OW26067   1.085   3.190   0.374
 8057SOL    HW126068   1.112   3.181   0.283
 8057SOL    HW226069   1.003   3.239   0.371
 8058SOL     OW26070  10.529   8.944   7.701
 8058SOL    HW126071  10.567   8.857   7.710
 8058SOL    HW226072  10.508   8.969   7.791
 8059SOL     OW26073  12.080   7.725  11.023
 8059SOL    HW126074  11.997   7.677  11.012
 8059SOL    HW226075  12.079   7.789  10.952
 8060SOL     OW26076  10.198  14.403  12.814
 8060SOL    HW126077  10.111  14.387  12.778
 8060SOL    HW226078  10.197  14.359  12.899
 8061SOL     OW26079   3.628   7.631  13.967
 8061SOL    HW126080   3.597   7.705  14.019
 8061SOL    HW226081   3.717   7.656  13.940
 8062SOL     OW26082  12.353   8.372  13.996
 8062SOL    HW126083  12.324   8.325  14.074
 8062SOL    HW226084  12.426   8.320  13.963
 8063SOL     OW26085   4.758  11.337  13.129
 8063SOL    HW126086   4.726  11.301  13.046
 8063SOL    HW226087   4.719  11.425  13.132
 8064SOL     OW26088   9.460   5.430   3.950
 8064SOL    HW126089   9.413   5.466   3.874
 8064SOL    HW226090   9.526   5.496   3.970
 8065SOL     OW26091   3.445  13.799   6.227
 8065SOL    HW126092   3.449  13.854   6.150
 8065SOL    HW226093   3.411  13.856   6.296
 8066SOL     OW26094  11.594  13.581   6.281
 8066SOL    HW126095  11.514  13.614   6.323
 8066SOL    HW226096  11.570  13.569   6.189
 8067SOL     OW26097  10.523  12.688   5.659
 8067SOL    HW126098  10.586  12.740   5.709
 8067SOL    HW226099  10.548  12.700   5.568
 8068SOL     OW26100  11.487   1.950  14.873
 8068SOL    HW126101  11.434   1.908  14.805
 8068SOL    HW226102  11.555   1.997  14.825
 8069SOL     OW26103   6.339   6.470   8.333
 8069SOL    HW126104   6.367   6.417   8.408
 8069SOL    HW226105   6.267   6.421   8.294
 8070SOL     OW26106   8.108   1.993  10.262
 8070SOL    HW126107   8.073   1.921  10.209
 8070SOL    HW226108   8.146   2.053  10.197
 8071SOL     OW26109  10.152   5.850   1.840
 8071SOL    HW126110  10.121   5.803   1.917
 8071SOL    HW226111  10.190   5.931   1.875
 8072SOL     OW26112   4.786   0.075   7.924
 8072SOL    HW126113   4.729   0.035   7.989
 8072SOL    HW226114   4.779   0.018   7.848
 8073SOL     OW26115  10.677   4.481   0.364
 8073SOL    HW126116  10.754   4.468   0.310
 8073SOL    HW226117  10.696   4.560   0.414
 8074SOL     OW26118  10.176   4.270   5.035
 8074SOL    HW126119  10.089   4.272   5.075
 8074SOL    HW226120  10.172   4.333   4.963
 8075SOL     OW26121   7.546  11.219   1.465
 8075SOL    HW126122   7.611  11.149   1.455
 8075SOL    HW226123   7.531  11.224   1.560
 8076SOL     OW26124   4.160   6.218   4.547
 8076SOL    HW126125   4.098   6.156   4.585
 8076SOL    HW226126   4.209   6.252   4.621
 8077SOL     OW26127  13.551   8.284  10.450
 8077SOL    HW126128  13.578   8.232  10.374
 8077SOL    HW226129  13.502   8.222  10.504
 8078SOL     OW26130   7.649  11.486   9.946
 8078SOL    HW126131   7.608  11.468   9.862
 8078SOL    HW226132   7.633  11.408   9.998
 8079SOL     OW26133   8.038  14.652  14.387
 8079SOL    HW126134   8.100  14.682  14.454
 8079SOL    HW226135   8.029  14.558  14.402
 8080SOL     OW26136   2.495   9.990  12.060
 8080SOL    HW126137   2.588   9.977  12.079
 8080SOL    HW226138   2.483  10.084  12.063
 8081SOL     OW26139  12.136   6.959   5.393
 8081SOL    HW126140  12.215   6.948   5.447
 8081SOL    HW226141  12.095   7.038   5.427
 8082SOL     OW26142   6.247   5.820   4.667
 8082SOL    HW126143   6.252   5.907   4.705
 8082SOL    HW226144   6.228   5.834   4.575
 8083SOL     OW26145   7.330   0.214   0.867
 8083SOL    HW126146   7.403   0.247   0.815
 8083SOL    HW226147   7.357   0.127   0.895
 8084SOL     OW26148  12.659  13.657   0.820
 8084SOL    HW126149  12.657  13.562   0.829
 8084SOL    HW226150  12.583  13.678   0.765
 8085SOL     OW26151  14.737   7.991  14.527
 8085SOL    HW126152  14.808   8.010  14.588
 8085SOL    HW226153  14.658   7.992  14.581
 8086SOL     OW26154   6.088  13.608  12.770
 8086SOL    HW126155   6.050  13.655  12.845
 8086SOL    HW226156   6.182  13.613  12.784
 8087SOL     OW26157   9.500   5.226  11.456
 8087SOL    HW126158   9.518   5.132  11.466
 8087SOL    HW226159   9.584   5.268  11.475
 8088SOL     OW26160   4.780   4.265   0.690
 8088SOL    HW126161   4.686   4.283   0.696
 8088SOL    HW226162   4.794   4.191   0.749
 8089SOL     OW26163   2.989  11.080   9.821
 8089SOL    HW126164   3.083  11.060   9.822
 8089SOL    HW226165   2.976  11.137   9.897
 8090SOL     OW26166  11.865   9.986   9.460
 8090SOL    HW126167  11.918  10.034   9.524
 8090SOL    HW226168  11.875   9.894   9.486
 8091SOL     OW26169   6.272   3.127  12.380
 8091SOL    HW126170   6.202   3.189  12.397
 8091SOL    HW226171   6.247   3.084  12.298
 8092SOL     OW26172   0.618   1.237   4.252
 8092SOL    HW126173   0.697   1.217   4.202
 8092SOL    HW226174   0.576   1.153   4.266
 8093SOL     OW26175   2.003   9.808   8.530
 8093SOL    HW126176   1.927   9.832   8.582
 8093SOL    HW226177   2.043   9.735   8.577
 8094SOL     OW26178   9.841  10.055   5.166
 8094SOL    HW126179   9.853  10.003   5.245
 8094SOL    HW226180   9.748  10.076   5.164
 8095SOL     OW26181   8.601   0.974   4.228
 8095SOL    HW126182   8.675   0.956   4.171
 8095SOL    HW226183   8.530   0.998   4.168
 8096SOL     OW26184   3.315   2.979  11.542
 8096SOL    HW126185   3.292   2.943  11.627
 8096SOL    HW226186   3.246   3.042  11.522
 8097SOL     OW26187  10.824   2.562   6.899
 8097SOL    HW126188  10.918   2.556   6.916
 8097SOL    HW226189  10.797   2.644   6.941
 8098SOL     OW26190   1.113   9.525   9.060
 8098SOL    HW126191   1.138   9.560   9.145
 8098SOL    HW226192   1.128   9.431   9.066
 8099SOL     OW26193  10.767   9.263   4.984
 8099SOL    HW126194  10.771   9.307   5.069
 8099SOL    HW226195  10.801   9.176   5.000
 8100SOL     OW26196   6.526  10.147  11.656
 8100SOL    HW126197   6.475  10.204  11.598
 8100SOL    HW226198   6.462  10.085  11.692
 8101SOL     OW26199   0.043   8.802  10.495
 8101SOL    HW126200   0.038   8.868  10.564
 8101SOL    HW226201  14.836   8.761  10.494
 8102SOL     OW26202   0.446   9.489   5.998
 8102SOL    HW126203   0.462   9.580   6.024
 8102SOL    HW226204   0.378   9.459   6.058
 8103SOL     OW26205   5.061  10.570   1.338
 8103SOL    HW126206   5.122  10.599   1.406
 8103SOL    HW226207   5.115  10.561   1.259
 8104SOL     OW26208   1.079   0.405  12.083
 8104SOL    HW126209   1.093   0.421  11.989
 8104SOL    HW226210   1.143   0.338  12.105
 8105SOL     OW26211   0.442   3.114   6.142
 8105SOL    HW126212   0.471   3.188   6.089
 8105SOL    HW226213   0.452   3.145   6.232
 8106SOL     OW26214   5.224  13.548   3.161
 8106SOL    HW126215   5.261  13.479   3.216
 8106SOL    HW226216   5.288  13.561   3.092
 8107SOL     OW26217   3.461  13.511   5.356
 8107SOL    HW126218   3.454  13.521   5.451
 8107SOL    HW226219   3.385  13.557   5.322
 8108SOL     OW26220  13.875  14.120   6.077
 8108SOL    HW126221  13.912  14.076   6.154
 8108SOL    HW226222  13.887  14.214   6.095
 8109SOL     OW26223  12.774   1.615  12.024
 8109SOL    HW126224  12.866   1.593  12.038
 8109SOL    HW226225  12.772   1.653  11.936
 8110SOL     OW26226  12.072  12.161  12.863
 8110SOL    HW126227  12.145  12.128  12.915
 8110SOL    HW226228  12.094  12.253  12.847
 8111SOL     OW26229   4.946   6.324   9.779
 8111SOL    HW126230   4.853   6.311   9.797
 8111SOL    HW226231   4.970   6.401   9.830
 8112SOL     OW26232   0.083   0.840   6.054
 8112SOL    HW126233  14.877   0.858   6.091
 8112SOL    HW226234   0.087   0.744   6.048
 8113SOL     OW26235  10.009   3.256   2.326
 8113SOL    HW126236  10.075   3.205   2.373
 8113SOL    HW226237  10.057   3.331   2.292
 8114SOL     OW26238  12.785   8.747   8.487
 8114SOL    HW126239  12.831   8.669   8.457
 8114SOL    HW226240  12.840   8.820   8.459
 8115SOL     OW26241   8.616  14.241  13.481
 8115SOL    HW126242   8.619  14.269  13.390
 8115SOL    HW226243   8.703  14.259  13.515
 8116SOL     OW26244   5.726   5.183  11.884
 8116SOL    HW126245   5.756   5.154  11.798
 8116SOL    HW226246   5.793   5.151  11.945
 8117SOL     OW26247   4.397  11.704   5.176
 8117SOL    HW126248   4.424  11.623   5.132
 8117SOL    HW226249   4.465  11.719   5.242
 8118SOL     OW26250   6.600   8.480  12.423
 8118SOL    HW126251   6.616   8.388  12.403
 8118SOL    HW226252   6.588   8.522  12.338
 8119SOL     OW26253   1.242   8.212  10.778
 8119SOL    HW126254   1.194   8.189  10.858
 8119SOL    HW226255   1.190   8.282  10.738
 8120SOL     OW26256  13.611   9.160   9.298
 8120SOL    HW126257  13.639   9.074   9.264
 8120SOL    HW226258  13.552   9.193   9.231
 8121SOL     OW26259  13.338   6.191   3.546
 8121SOL    HW126260  13.301   6.261   3.492
 8121SOL    HW226261  13.417   6.165   3.500
 8122SOL     OW26262   7.125  10.422   0.639
 8122SOL    HW126263   7.064  10.401   0.709
 8122SOL    HW226264   7.133  10.342   0.588
 8123SOL     OW26265   9.436  12.467   4.460
 8123SOL    HW126266   9.449  12.374   4.444
 8123SOL    HW226267   9.433  12.506   4.373
 8124SOL     OW26268   2.335  10.695   8.333
 8124SOL    HW126269   2.313  10.681   8.425
 8124SOL    HW226270   2.369  10.784   8.330
 8125SOL     OW26271   3.208  13.382  12.896
 8125SOL    HW126272   3.259  13.412  12.972
 8125SOL    HW226273   3.274  13.365  12.828
 8126SOL     OW26274   5.608   1.027   9.462
 8126SOL    HW126275   5.653   1.015   9.379
 8126SOL    HW226276   5.677   1.056   9.523
 8127SOL     OW26277  10.757   5.750  12.272
 8127SOL    HW126278  10.748   5.684  12.203
 8127SOL    HW226279  10.762   5.700  12.353
 8128SOL     OW26280   7.841  14.718   1.915
 8128SOL    HW126281   7.767  14.700   1.858
 8128SOL    HW226282   7.908  14.655   1.888
 8129SOL     OW26283  13.712   4.623  10.623
 8129SOL    HW126284  13.806   4.635  10.631
 8129SOL    HW226285  13.677   4.711  10.608
 8130SOL     OW26286   2.518   8.457   8.149
 8130SOL    HW126287   2.427   8.428   8.150
 8130SOL    HW226288   2.513   8.552   8.151
 8131SOL     OW26289   8.708  10.913   7.626
 8131SOL    HW126290   8.800  10.940   7.632
 8131SOL    HW226291   8.701  10.871   7.541
 8132SOL     OW26292   3.221   7.200   4.374
 8132SOL    HW126293   3.271   7.132   4.420
 8132SOL    HW226294   3.142   7.155   4.344
 8133SOL     OW26295  11.408  10.795   4.966
 8133SOL    HW126296  11.421  10.703   4.989
 8133SOL    HW226297  11.488  10.820   4.920
 8134SOL     OW26298   0.891  13.965   3.175
 8134SOL    HW126299   0.805  14.004   3.158
 8134SOL    HW226300   0.923  14.011   3.253
 8135SOL     OW26301  13.141   3.342   1.412
 8135SOL    HW126302  13.226   3.355   1.454
 8135SOL    HW226303  13.159   3.285   1.338
 8136SOL     OW26304  13.198   1.650  14.017
 8136SOL    HW126305  13.147   1.572  13.993
 8136SOL    HW226306  13.289   1.621  14.013
 8137SOL     OW26307   8.807  13.933  14.061
 8137SOL    HW126308   8.718  13.966  14.050
 8137SOL    HW226309   8.834  13.904  13.974
 8138SOL     OW26310   9.040  14.035   2.192
 8138SOL    HW126311   9.115  13.975   2.195
 8138SOL    HW226312   9.020  14.054   2.283
 8139SOL     OW26313   7.419   9.562   8.976
 8139SOL    HW126314   7.484   9.632   8.984
 8139SOL    HW226315   7.468   9.482   8.998
 8140SOL     OW26316  13.282   9.112  13.200
 8140SOL    HW126317  13.277   9.208  13.198
 8140SOL    HW226318  13.322   9.089  13.116
 8141SOL     OW26319   6.980   0.654   2.969
 8141SOL    HW126320   6.902   0.654   2.914
 8141SOL    HW226321   6.954   0.702   3.048
 8142SOL     OW26322   3.374   6.015  14.403
 8142SOL    HW126323   3.387   5.926  14.372
 8142SOL    HW226324   3.301   6.009  14.465
 8143SOL     OW26325  14.642  14.780   7.112
 8143SOL    HW126326  14.719  14.832   7.135
 8143SOL    HW226327  14.667  14.690   7.133
 8144SOL     OW26328   2.312   9.248   1.368
 8144SOL    HW126329   2.314   9.275   1.460
 8144SOL    HW226330   2.358   9.319   1.322
 8145SOL     OW26331   7.668   1.720   9.542
 8145SOL    HW126332   7.730   1.693   9.610
 8145SOL    HW226333   7.680   1.815   9.535
 8146SOL     OW26334   2.375  11.702   3.976
 8146SOL    HW126335   2.387  11.659   4.060
 8146SOL    HW226336   2.463  11.730   3.950
 8147SOL     OW26337  12.283   4.370   3.930
 8147SOL    HW126338  12.217   4.321   3.880
 8147SOL    HW226339  12.302   4.447   3.876
 8148SOL     OW26340   6.829   7.684  14.344
 8148SOL    HW126341   6.874   7.738  14.410
 8148SOL    HW226342   6.754   7.737  14.318
 8149SOL     OW26343   4.587  12.154  11.483
 8149SOL    HW126344   4.548  12.107  11.409
 8149SOL    HW226345   4.660  12.203  11.444
 8150SOL     OW26346   3.454  12.726   8.082
 8150SOL    HW126347   3.443  12.817   8.053
 8150SOL    HW226348   3.378  12.709   8.138
 8151SOL     OW26349  12.394   1.105  12.706
 8151SOL    HW126350  12.456   1.176  12.691
 8151SOL    HW226351  12.447   1.034  12.742
 8152SOL     OW26352  10.047   7.060   5.376
 8152SOL    HW126353   9.966   7.055   5.325
 8152SOL    HW226354  10.111   7.096   5.316
 8153SOL     OW26355   8.827   0.271   3.095
 8153SOL    HW126356   8.818   0.285   3.001
 8153SOL    HW226357   8.794   0.351   3.135
 8154SOL     OW26358   4.833   1.863   8.189
 8154SOL    HW126359   4.900   1.930   8.176
 8154SOL    HW226360   4.818   1.827   8.102
 8155SOL     OW26361   7.193   7.163  11.305
 8155SOL    HW126362   7.171   7.151  11.213
 8155SOL    HW226363   7.246   7.086  11.326
 8156SOL     OW26364  13.964   3.135  14.665
 8156SOL    HW126365  13.931   3.148  14.754
 8156SOL    HW226366  13.885   3.121  14.612
 8157SOL     OW26367   1.624   8.935   7.685
 8157SOL    HW126368   1.682   8.977   7.621
 8157SOL    HW226369   1.536   8.956   7.654
 8158SOL     OW26370  12.663  12.806  10.284
 8158SOL    HW126371  12.667  12.839  10.194
 8158SOL    HW226372  12.749  12.823  10.321
 8159SOL     OW26373   1.931  12.728  12.230
 8159SOL    HW126374   1.841  12.757  12.244
 8159SOL    HW226375   1.983  12.780  12.292
 8160SOL     OW26376   3.360   9.770   3.266
 8160SOL    HW126377   3.422   9.800   3.199
 8160SOL    HW226378   3.404   9.696   3.308
 8161SOL     OW26379  10.687  14.181  13.394
 8161SOL    HW126380  10.723  14.242  13.330
 8161SOL    HW226381  10.595  14.172  13.369
 8162SOL     OW26382  13.356  10.394  14.679
 8162SOL    HW126383  13.445  10.361  14.674
 8162SOL    HW226384  13.339  10.430  14.592
 8163SOL     OW26385  12.413  13.355   3.071
 8163SOL    HW126386  12.431  13.300   3.147
 8163SOL    HW226387  12.432  13.299   2.996
 8164SOL     OW26388   9.469   2.188   5.831
 8164SOL    HW126389   9.468   2.098   5.798
 8164SOL    HW226390   9.547   2.192   5.887
 8165SOL     OW26391   2.968   6.535  11.498
 8165SOL    HW126392   3.037   6.523  11.432
 8165SOL    HW226393   2.903   6.590  11.454
 8166SOL     OW26394   2.218  13.547   8.422
 8166SOL    HW126395   2.272  13.525   8.346
 8166SOL    HW226396   2.243  13.636   8.445
 8167SOL     OW26397   2.928  14.386   3.248
 8167SOL    HW126398   2.853  14.345   3.291
 8167SOL    HW226399   3.004  14.346   3.291
 8168SOL     OW26400  12.356  10.606   1.757
 8168SOL    HW126401  12.386  10.588   1.846
 8168SOL    HW226402  12.366  10.700   1.747
 8169SOL     OW26403   3.531   3.871   7.773
 8169SOL    HW126404   3.539   3.967   7.772
 8169SOL    HW226405   3.463   3.853   7.708
 8170SOL     OW26406  10.587  10.959  10.743
 8170SOL    HW126407  10.652  10.960  10.673
 8170SOL    HW226408  10.629  10.909  10.813
 8171SOL     OW26409   3.138  13.073  14.400
 8171SOL    HW126410   3.058  13.126  14.391
 8171SOL    HW226411   3.206  13.126  14.357
 8172SOL     OW26412   7.591  12.277   7.441
 8172SOL    HW126413   7.547  12.193   7.429
 8172SOL    HW226414   7.678  12.264   7.404
 8173SOL     OW26415   6.407  12.692   3.752
 8173SOL    HW126416   6.328  12.688   3.698
 8173SOL    HW226417   6.448  12.775   3.730
 8174SOL     OW26418   6.066   2.040   2.639
 8174SOL    HW126419   6.126   1.972   2.609
 8174SOL    HW226420   5.989   1.993   2.671
 8175SOL     OW26421   9.938   8.111  14.093
 8175SOL    HW126422   9.932   8.198  14.131
 8175SOL    HW226423   9.909   8.122  14.003
 8176SOL     OW26424   7.152   7.268   7.432
 8176SOL    HW126425   7.204   7.316   7.367
 8176SOL    HW226426   7.135   7.183   7.392
 8177SOL     OW26427   9.932  14.565   1.148
 8177SOL    HW126428   9.926  14.474   1.175
 8177SOL    HW226429   9.916  14.564   1.054
 8178SOL     OW26430   4.880  14.138   0.232
 8178SOL    HW126431   4.855  14.154   0.323
 8178SOL    HW226432   4.976  14.139   0.234
 8179SOL     OW26433   5.557  11.501  12.197
 8179SOL    HW126434   5.510  11.458  12.126
 8179SOL    HW226435   5.507  11.582  12.213
 8180SOL     OW26436   3.149   3.106  12.171
 8180SOL    HW126437   3.106   3.058  12.242
 8180SOL    HW226438   3.193   3.179  12.214
 8181SOL     OW26439  11.429  11.824   6.547
 8181SOL    HW126440  11.386  11.813   6.632
 8181SOL    HW226441  11.380  11.767   6.487
 8182SOL     OW26442  10.187   5.954  14.640
 8182SOL    HW126443  10.187   5.860  14.655
 8182SOL    HW226444  10.186   5.992  14.728
 8183SOL     OW26445   3.265   2.914   3.053
 8183SOL    HW126446   3.184   2.872   3.082
 8183SOL    HW226447   3.319   2.919   3.133
 8184SOL     OW26448  13.794  14.876   9.406
 8184SOL    HW126449  13.737   0.070   9.425
 8184SOL    HW226450  13.737  14.810   9.367
 8185SOL     OW26451   9.739  11.135   6.769
 8185SOL    HW126452   9.762  11.077   6.842
 8185SOL    HW226453   9.822  11.176   6.744
 8186SOL     OW26454   2.559  13.521   7.705
 8186SOL    HW126455   2.545  13.473   7.787
 8186SOL    HW226456   2.473  13.557   7.683
 8187SOL     OW26457   1.495   7.028   6.052
 8187SOL    HW126458   1.543   6.945   6.056
 8187SOL    HW226459   1.436   7.025   6.127
 8188SOL     OW26460   4.038  11.458   1.214
 8188SOL    HW126461   3.979  11.533   1.213
 8188SOL    HW226462   4.097  11.473   1.140
 8189SOL     OW26463  13.368  13.118   5.679
 8189SOL    HW126464  13.377  13.059   5.604
 8189SOL    HW226465  13.358  13.204   5.640
 8190SOL     OW26466   0.786  10.055   1.336
 8190SOL    HW126467   0.729  10.081   1.408
 8190SOL    HW226468   0.798  10.135   1.285
 8191SOL     OW26469   5.344   3.013   2.336
 8191SOL    HW126470   5.323   3.078   2.269
 8191SOL    HW226471   5.290   3.037   2.411
 8192SOL     OW26472   6.102  10.039  10.116
 8192SOL    HW126473   6.013  10.066  10.092
 8192SOL    HW226474   6.158  10.083  10.052
 8193SOL     OW26475  12.688  14.456   7.096
 8193SOL    HW126476  12.769  14.416   7.126
 8193SOL    HW226477  12.638  14.383   7.059
 8194SOL     OW26478   8.390  14.843  12.613
 8194SOL    HW126479   8.399   0.056  12.592
 8194SOL    HW226480   8.325  14.811  12.550
 8195SOL     OW26481   8.784   3.967  13.019
 8195SOL    HW126482   8.856   3.971  12.955
 8195SOL    HW226483   8.709   3.936  12.968
 8196SOL     OW26484   6.501  12.594   5.853
 8196SOL    HW126485   6.481  12.588   5.760
 8196SOL    HW226486   6.555  12.517   5.871
 8197SOL     OW26487  13.044   7.903   2.188
 8197SOL    HW126488  13.064   7.842   2.260
 8197SOL    HW226489  13.019   7.984   2.232
 8198SOL     OW26490   7.111   1.996   6.772
 8198SOL    HW126491   7.066   2.080   6.761
 8198SOL    HW226492   7.105   1.979   6.866
 8199SOL     OW26493  12.691  12.996  13.460
 8199SOL    HW126494  12.707  13.090  13.448
 8199SOL    HW226495  12.741  12.954  13.390
 8200SOL     OW26496   0.273   7.254  14.210
 8200SOL    HW126497   0.363   7.224  14.223
 8200SOL    HW226498   0.220   7.176  14.224
 8201SOL     OW26499  13.579   4.984   5.138
 8201SOL    HW126500  13.492   4.966   5.101
 8201SOL    HW226501  13.601   5.071   5.104
 8202SOL     OW26502   8.112  10.369   8.586
 8202SOL    HW126503   8.092  10.422   8.509
 8202SOL    HW226504   8.151  10.289   8.551
 8203SOL     OW26505  13.628   7.169  12.940
 8203SOL    HW126506  13.670   7.172  12.854
 8203SOL    HW226507  13.535   7.161  12.921
 8204SOL     OW26508   9.838  11.110  14.185
 8204SOL    HW126509   9.858  11.182  14.125
 8204SOL    HW226510   9.919  11.099  14.236
 8205SOL     OW26511   8.271   1.951   3.993
 8205SOL    HW126512   8.184   1.970   4.029
 8205SOL    HW226513   8.281   1.857   4.005
 8206SOL     OW26514   9.338   7.357   0.163
 8206SOL    HW126515   9.262   7.327   0.114
 8206SOL    HW226516   9.412   7.308   0.126
 8207SOL     OW26517   0.936   2.681  10.120
 8207SOL    HW126518   0.877   2.756  10.127
 8207SOL    HW226519   0.924   2.648  10.031
 8208SOL     OW26520  10.011   1.406   4.395
 8208SOL    HW126521  10.058   1.420   4.313
 8208SOL    HW226522   9.928   1.452   4.383
 8209SOL     OW26523   5.917  12.210   7.004
 8209SOL    HW126524   5.971  12.278   6.963
 8209SOL    HW226525   5.961  12.128   6.983
 8210SOL     OW26526   4.106   4.655  12.875
 8210SOL    HW126527   4.176   4.698  12.925
 8210SOL    HW226528   4.060   4.726  12.831
 8211SOL     OW26529  14.863   6.401   5.963
 8211SOL    HW126530  14.863   6.380   6.056
 8211SOL    HW226531  14.792   6.347   5.926
 8212SOL     OW26532  13.421   0.081   1.662
 8212SOL    HW126533  13.446   0.109   1.574
 8212SOL    HW226534  13.326   0.077   1.660
 8213SOL     OW26535   7.502   1.899   6.390
 8213SOL    HW126536   7.541   1.883   6.303
 8213SOL    HW226537   7.572   1.941   6.439
 8214SOL     OW26538   4.144   3.012   9.924
 8214SOL    HW126539   4.230   3.021   9.883
 8214SOL    HW226540   4.109   3.101   9.927
 8215SOL     OW26541   7.766   0.024   5.633
 8215SOL    HW126542   7.771   0.116   5.656
 8215SOL    HW226543   7.829  14.862   5.691
 8216SOL     OW26544   6.782   9.720  12.456
 8216SOL    HW126545   6.703   9.735  12.509
 8216SOL    HW226546   6.748   9.696  12.370
 8217SOL     OW26547   1.838  10.334  14.152
 8217SOL    HW126548   1.752  10.327  14.111
 8217SOL    HW226549   1.837  10.268  14.222
 8218SOL     OW26550   4.532  11.256  12.479
 8218SOL    HW126551   4.490  11.236  12.395
 8218SOL    HW226552   4.610  11.307  12.455
 8219SOL     OW26553  13.084   9.310   2.987
 8219SOL    HW126554  13.011   9.260   3.023
 8219SOL    HW226555  13.154   9.246   2.973
 8220SOL     OW26556  10.911  13.780   6.742
 8220SOL    HW126557  10.832  13.733   6.772
 8220SOL    HW226558  10.949  13.723   6.676
 8221SOL     OW26559   2.233   9.854   1.691
 8221SOL    HW126560   2.292   9.860   1.616
 8221SOL    HW226561   2.266   9.918   1.754
 8222SOL     OW26562  11.071  10.949  11.258
 8222SOL    HW126563  11.116  10.992  11.185
 8222SOL    HW226564  11.022  11.020  11.300
 8223SOL     OW26565   7.467   9.740   7.492
 8223SOL    HW126566   7.409   9.664   7.494
 8223SOL    HW226567   7.473   9.768   7.583
 8224SOL     OW26568   4.983   7.244   8.125
 8224SOL    HW126569   5.012   7.267   8.213
 8224SOL    HW226570   4.896   7.206   8.138
 8225SOL     OW26571   4.548  13.821  14.696
 8225SOL    HW126572   4.492  13.797  14.770
 8225SOL    HW226573   4.559  13.916  14.704
 8226SOL     OW26574   4.492  12.586   6.429
 8226SOL    HW126575   4.398  12.594   6.445
 8226SOL    HW226576   4.532  12.643   6.494
 8227SOL     OW26577  10.782   1.791   4.706
 8227SOL    HW126578  10.759   1.868   4.758
 8227SOL    HW226579  10.874   1.774   4.729
 8228SOL     OW26580  13.609   3.867   2.884
 8228SOL    HW126581  13.623   3.834   2.795
 8228SOL    HW226582  13.620   3.961   2.877
 8229SOL     OW26583   4.393   5.794   3.956
 8229SOL    HW126584   4.487   5.806   3.967
 8229SOL    HW226585   4.359   5.785   4.045
 8230SOL     OW26586   3.306   1.699   8.189
 8230SOL    HW126587   3.266   1.651   8.117
 8230SOL    HW226588   3.249   1.774   8.202
 8231SOL     OW26589  11.997   2.669   0.381
 8231SOL    HW126590  11.953   2.664   0.296
 8231SOL    HW226591  12.055   2.745   0.373
 8232SOL     OW26592   3.068   7.624   7.438
 8232SOL    HW126593   3.089   7.534   7.413
 8232SOL    HW226594   3.152   7.665   7.454
 8233SOL     OW26595   0.432   9.173  12.799
 8233SOL    HW126596   0.404   9.190  12.889
 8233SOL    HW226597   0.393   9.089  12.777
 8234SOL     OW26598   2.992   0.239  10.303
 8234SOL    HW126599   2.914   0.270  10.349
 8234SOL    HW226600   2.960   0.179  10.236
 8235SOL     OW26601   5.421   9.986   3.999
 8235SOL    HW126602   5.341   9.934   4.000
 8235SOL    HW226603   5.492   9.921   3.997
 8236SOL     OW26604   0.780   7.274  12.794
 8236SOL    HW126605   0.696   7.252  12.833
 8236SOL    HW226606   0.836   7.199  12.813
 8237SOL     OW26607   6.029   4.690  13.814
 8237SOL    HW126608   6.011   4.613  13.868
 8237SOL    HW226609   6.042   4.654  13.726
 8238SOL     OW26610   3.355  14.525   6.123
 8238SOL    HW126611   3.398  14.607   6.149
 8238SOL    HW226612   3.396  14.502   6.040
 8239SOL     OW26613  14.360  13.602   9.050
 8239SOL    HW126614  14.405  13.518   9.044
 8239SOL    HW226615  14.276  13.588   9.008
 8240SOL     OW26616   2.996  14.248   4.007
 8240SOL    HW126617   3.017  14.190   3.933
 8240SOL    HW226618   2.920  14.207   4.047
 8241SOL     OW26619   6.287   4.958   3.354
 8241SOL    HW126620   6.290   4.973   3.448
 8241SOL    HW226621   6.343   5.027   3.317
 8242SOL     OW26622   5.668   8.895   7.944
 8242SOL    HW126623   5.654   8.924   7.854
 8242SOL    HW226624   5.613   8.953   7.997
 8243SOL     OW26625  14.459   8.459   1.987
 8243SOL    HW126626  14.516   8.533   1.965
 8243SOL    HW226627  14.465   8.401   1.912
 8244SOL     OW26628   1.504  14.157  14.621
 8244SOL    HW126629   1.469  14.183  14.536
 8244SOL    HW226630   1.596  14.138  14.605
 8245SOL     OW26631  11.844   7.443   9.318
 8245SOL    HW126632  11.767   7.480   9.361
 8245SOL    HW226633  11.898   7.520   9.296
 8246SOL     OW26634   6.833  11.055   8.884
 8246SOL    HW126635   6.871  11.075   8.969
 8246SOL    HW226636   6.752  11.105   8.880
 8247SOL     OW26637   9.722  11.781   4.631
 8247SOL    HW126638   9.666  11.792   4.554
 8247SOL    HW226639   9.747  11.688   4.629
 8248SOL     OW26640   9.218  12.996   9.048
 8248SOL    HW126641   9.227  13.090   9.064
 8248SOL    HW226642   9.219  12.956   9.135
 8249SOL     OW26643   0.416   2.847   5.320
 8249SOL    HW126644   0.445   2.798   5.243
 8249SOL    HW226645   0.326   2.818   5.335
 8250SOL     OW26646   1.680  10.402   3.534
 8250SOL    HW126647   1.718  10.472   3.586
 8250SOL    HW226648   1.586  10.407   3.551
 8251SOL     OW26649   8.994  12.238   2.939
 8251SOL    HW126650   8.903  12.210   2.935
 8251SOL    HW226651   8.992  12.318   2.992
 8252SOL     OW26652  12.868   4.407  11.906
 8252SOL    HW126653  12.782   4.440  11.879
 8252SOL    HW226654  12.850   4.349  11.980
 8253SOL     OW26655   3.205   0.884   9.788
 8253SOL    HW126656   3.294   0.920   9.788
 8253SOL    HW226657   3.166   0.914   9.706
 8254SOL     OW26658  11.428  13.947  11.569
 8254SOL    HW126659  11.421  13.923  11.661
 8254SOL    HW226660  11.522  13.948  11.552
 8255SOL     OW26661  13.758   1.199  14.817
 8255SOL    HW126662  13.789   1.110  14.798
 8255SOL    HW226663  13.663   1.195  14.801
 8256SOL     OW26664   7.659   7.332  12.457
 8256SOL    HW126665   7.571   7.313  12.487
 8256SOL    HW226666   7.705   7.248  12.461
 8257SOL     OW26667   2.448   3.157   6.805
 8257SOL    HW126668   2.369   3.197   6.766
 8257SOL    HW226669   2.497   3.232   6.840
 8258SOL     OW26670   7.277  13.559  13.136
 8258SOL    HW126671   7.228  13.641  13.141
 8258SOL    HW226672   7.368  13.585  13.151
 8259SOL     OW26673  12.809   6.436   6.912
 8259SOL    HW126674  12.862   6.356   6.915
 8259SOL    HW226675  12.850   6.494   6.975
 8260SOL     OW26676   2.171   8.899  11.045
 8260SOL    HW126677   2.154   8.898  11.139
 8260SOL    HW226678   2.259   8.936  11.036
 8261SOL     OW26679   8.512   4.696   8.982
 8261SOL    HW126680   8.594   4.745   8.975
 8261SOL    HW226681   8.468   4.711   8.898
 8262SOL     OW26682   5.794  10.075  12.714
 8262SOL    HW126683   5.887  10.090  12.728
 8262SOL    HW226684   5.778  10.103  12.624
 8263SOL     OW26685   9.816   3.045   6.984
 8263SOL    HW126686   9.802   2.957   7.020
 8263SOL    HW226687   9.902   3.040   6.942
 8264SOL     OW26688   4.484  12.561   9.158
 8264SOL    HW126689   4.433  12.526   9.231
 8264SOL    HW226690   4.420  12.610   9.106
 8265SOL     OW26691   7.334   5.259   4.381
 8265SOL    HW126692   7.429   5.253   4.385
 8265SOL    HW226693   7.315   5.351   4.397
 8266SOL     OW26694   2.554   8.230  13.926
 8266SOL    HW126695   2.606   8.184  13.861
 8266SOL    HW226696   2.581   8.193  14.010
 8267SOL     OW26697   1.875   2.550   8.527
 8267SOL    HW126698   1.923   2.519   8.450
 8267SOL    HW226699   1.783   2.546   8.502
 8268SOL     OW26700  13.217   1.895   8.553
 8268SOL    HW126701  13.148   1.909   8.618
 8268SOL    HW226702  13.292   1.864   8.603
 8269SOL     OW26703  14.699   7.942   6.077
 8269SOL    HW126704  14.769   7.984   6.027
 8269SOL    HW226705  14.745   7.884   6.138
 8270SOL     OW26706  11.020   1.393   2.027
 8270SOL    HW126707  10.999   1.454   2.097
 8270SOL    HW226708  10.936   1.352   2.004
 8271SOL     OW26709   8.245  10.949   8.707
 8271SOL    HW126710   8.167  11.002   8.688
 8271SOL    HW226711   8.283  10.932   8.621
 8272SOL     OW26712   2.470   4.168   4.949
 8272SOL    HW126713   2.381   4.138   4.966
 8272SOL    HW226714   2.525   4.106   4.997
 8273SOL     OW26715   9.850  12.582   8.498
 8273SOL    HW126716   9.820  12.673   8.503
 8273SOL    HW226717   9.923  12.584   8.436
 8274SOL     OW26718   4.770  13.558   6.989
 8274SOL    HW126719   4.744  13.614   7.062
 8274SOL    HW226720   4.798  13.476   7.031
 8275SOL     OW26721   3.446   3.692  10.600
 8275SOL    HW126722   3.430   3.769  10.545
 8275SOL    HW226723   3.514   3.720  10.661
 8276SOL     OW26724   8.037  13.419  14.343
 8276SOL    HW126725   7.995  13.411  14.257
 8276SOL    HW226726   8.067  13.331  14.364
 8277SOL     OW26727  13.714  10.662  10.269
 8277SOL    HW126728  13.714  10.636  10.177
 8277SOL    HW226729  13.805  10.657  10.296
 8278SOL     OW26730  11.189   4.449   6.929
 8278SOL    HW126731  11.116   4.457   6.991
 8278SOL    HW226732  11.172   4.515   6.862
 8279SOL     OW26733  10.606  12.911   8.328
 8279SOL    HW126734  10.540  12.863   8.378
 8279SOL    HW226735  10.557  12.952   8.257
 8280SOL     OW26736   3.785   2.930   4.266
 8280SOL    HW126737   3.864   2.929   4.321
 8280SOL    HW226738   3.715   2.907   4.326
 8281SOL     OW26739   4.289   5.497  12.790
 8281SOL    HW126740   4.292   5.413  12.835
 8281SOL    HW226741   4.204   5.534  12.812
 8282SOL     OW26742   4.312   1.520   9.839
 8282SOL    HW126743   4.328   1.427   9.825
 8282SOL    HW226744   4.308   1.530   9.934
 8283SOL     OW26745  11.803   1.119  11.236
 8283SOL    HW126746  11.780   1.144  11.325
 8283SOL    HW226747  11.761   1.185  11.181
 8284SOL     OW26748  12.217   3.776   8.440
 8284SOL    HW126749  12.165   3.772   8.360
 8284SOL    HW226750  12.161   3.820   8.504
 8285SOL     OW26751   3.499   3.006   9.837
 8285SOL    HW126752   3.539   2.925   9.807
 8285SOL    HW226753   3.419   3.015   9.785
 8286SOL     OW26754  12.585   6.890   4.140
 8286SOL    HW126755  12.680   6.889   4.126
 8286SOL    HW226756  12.549   6.933   4.063
 8287SOL     OW26757  12.354   1.151   7.609
 8287SOL    HW126758  12.410   1.118   7.539
 8287SOL    HW226759  12.291   1.080   7.624
 8288SOL     OW26760  10.607   9.433  13.349
 8288SOL    HW126761  10.603   9.514  13.299
 8288SOL    HW226762  10.545   9.375  13.305
 8289SOL     OW26763  10.477   8.800  11.118
 8289SOL    HW126764  10.483   8.847  11.202
 8289SOL    HW226765  10.412   8.851  11.068
 8290SOL     OW26766   4.461  13.295   5.433
 8290SOL    HW126767   4.447  13.312   5.340
 8290SOL    HW226768   4.373  13.298   5.471
 8291SOL     OW26769   1.348  11.158   9.224
 8291SOL    HW126770   1.360  11.250   9.204
 8291SOL    HW226771   1.326  11.118   9.139
 8292SOL     OW26772   8.818  11.923   7.551
 8292SOL    HW126773   8.868  11.875   7.617
 8292SOL    HW226774   8.855  11.896   7.468
 8293SOL     OW26775   9.178  13.074   4.457
 8293SOL    HW126776   9.107  13.032   4.506
 8293SOL    HW226777   9.157  13.058   4.365
 8294SOL     OW26778   0.645   5.801   7.157
 8294SOL    HW126779   0.597   5.745   7.095
 8294SOL    HW226780   0.683   5.739   7.220
 8295SOL     OW26781   1.802   5.872   5.337
 8295SOL    HW126782   1.739   5.907   5.274
 8295SOL    HW226783   1.794   5.777   5.328
 8296SOL     OW26784  12.562   3.490  13.603
 8296SOL    HW126785  12.598   3.435  13.534
 8296SOL    HW226786  12.549   3.575  13.563
 8297SOL     OW26787   7.740  12.872  12.268
 8297SOL    HW126788   7.689  12.898  12.344
 8297SOL    HW226789   7.692  12.797  12.232
 8298SOL     OW26790   0.968   7.419   0.183
 8298SOL    HW126791   0.935   7.480   0.248
 8298SOL    HW226792   0.907   7.428   0.109
 8299SOL     OW26793   8.740   6.299   1.561
 8299SOL    HW126794   8.743   6.327   1.470
 8299SOL    HW226795   8.655   6.329   1.593
 8300SOL     OW26796   9.560  14.282  10.703
 8300SOL    HW126797   9.492  14.288  10.770
 8300SOL    HW226798   9.641  14.300  10.749
 8301SOL     OW26799   2.879   9.995   3.946
 8301SOL    HW126800   2.885   9.912   3.899
 8301SOL    HW226801   2.812  10.044   3.899
 8302SOL     OW26802  11.370   7.072  12.713
 8302SOL    HW126803  11.456   7.030  12.715
 8302SOL    HW226804  11.317   7.022  12.775
 8303SOL     OW26805   3.074   0.374  14.152
 8303SOL    HW126806   3.029   0.405  14.231
 8303SOL    HW226807   3.004   0.364  14.087
 8304SOL     OW26808  13.804   3.648   0.343
 8304SOL    HW126809  13.864   3.647   0.417
 8304SOL    HW226810  13.775   3.557   0.334
 8305SOL     OW26811   0.047  14.635   9.022
 8305SOL    HW126812   0.047  14.646   8.927
 8305SOL    HW226813  14.841  14.666   9.050
 8306SOL     OW26814  13.836   2.788  11.587
 8306SOL    HW126815  13.848   2.875  11.624
 8306SOL    HW226816  13.753   2.757  11.624
 8307SOL     OW26817   8.093   5.729   2.658
 8307SOL    HW126818   8.177   5.748   2.701
 8307SOL    HW226819   8.033   5.711   2.730
 8308SOL     OW26820   4.498   5.051  13.446
 8308SOL    HW126821   4.453   5.135  13.434
 8308SOL    HW226822   4.510   5.044  13.541
 8309SOL     OW26823  14.310  14.864   5.871
 8309SOL    HW126824  14.386   0.037   5.848
 8309SOL    HW226825  14.348  14.786   5.912
 8310SOL     OW26826  12.911  13.471  11.946
 8310SOL    HW126827  12.954  13.404  11.999
 8310SOL    HW226828  12.818  13.460  11.963
 8311SOL     OW26829  13.282   4.238   2.830
 8311SOL    HW126830  13.357   4.297   2.824
 8311SOL    HW226831  13.258   4.239   2.922
 8312SOL     OW26832   1.788   2.888   0.614
 8312SOL    HW126833   1.803   2.939   0.693
 8312SOL    HW226834   1.872   2.890   0.568
 8313SOL     OW26835  11.158   4.515  13.607
 8313SOL    HW126836  11.199   4.502  13.521
 8313SOL    HW226837  11.070   4.478  13.597
 8314SOL     OW26838  12.153   9.529   5.638
 8314SOL    HW126839  12.145   9.585   5.715
 8314SOL    HW226840  12.246   9.507   5.634
 8315SOL     OW26841   6.408   7.298  10.937
 8315SOL    HW126842   6.443   7.387  10.926
 8315SOL    HW226843   6.315   7.307  10.916
 8316SOL     OW26844   4.169  14.462   9.816
 8316SOL    HW126845   4.241  14.403   9.837
 8316SOL    HW226846   4.094  14.404   9.802
 8317SOL     OW26847  12.387   7.012   7.381
 8317SOL    HW126848  12.423   7.022   7.469
 8317SOL    HW226849  12.428   7.081   7.329
 8318SOL     OW26850   2.261   3.548   6.406
 8318SOL    HW126851   2.247   3.560   6.500
 8318SOL    HW226852   2.329   3.612   6.385
 8319SOL     OW26853   5.200  12.346   3.505
 8319SOL    HW126854   5.111  12.382   3.507
 8319SOL    HW226855   5.256  12.422   3.489
 8320SOL     OW26856  10.886   2.084   9.998
 8320SOL    HW126857  10.895   2.164   9.946
 8320SOL    HW226858  10.846   2.021   9.938
 8321SOL     OW26859   3.755  14.102   0.193
 8321SOL    HW126860   3.757  14.114   0.098
 8321SOL    HW226861   3.709  14.019   0.206
 8322SOL     OW26862   1.368   5.916   2.856
 8322SOL    HW126863   1.280   5.882   2.872
 8322SOL    HW226864   1.368   6.002   2.898
 8323SOL     OW26865  13.939   4.586   3.216
 8323SOL    HW126866  13.903   4.609   3.130
 8323SOL    HW226867  13.875   4.526   3.254
 8324SOL     OW26868   5.789   7.535   2.143
 8324SOL    HW126869   5.748   7.621   2.134
 8324SOL    HW226870   5.828   7.536   2.231
 8325SOL     OW26871   5.193  11.166  12.404
 8325SOL    HW126872   5.269  11.132  12.358
 8325SOL    HW226873   5.190  11.117  12.486
 8326SOL     OW26874   8.515   7.577   7.945
 8326SOL    HW126875   8.536   7.663   7.981
 8326SOL    HW226876   8.565   7.572   7.864
 8327SOL     OW26877   8.130   3.449   2.003
 8327SOL    HW126878   8.206   3.464   1.947
 8327SOL    HW226879   8.135   3.518   2.070
 8328SOL     OW26880   0.888   5.382   0.433
 8328SOL    HW126881   0.939   5.318   0.483
 8328SOL    HW226882   0.810   5.398   0.485
 8329SOL     OW26883  14.632  14.400   3.720
 8329SOL    HW126884  14.638  14.491   3.750
 8329SOL    HW226885  14.541  14.391   3.691
 8330SOL     OW26886  13.918   5.441   9.298
 8330SOL    HW126887  13.961   5.418   9.216
 8330SOL    HW226888  13.844   5.380   9.305
 8331SOL     OW26889   2.606   9.047  14.408
 8331SOL    HW126890   2.530   8.991  14.418
 8331SOL    HW226891   2.680   8.992  14.435
 8332SOL     OW26892   7.398   9.431  12.415
 8332SOL    HW126893   7.476   9.435  12.359
 8332SOL    HW226894   7.350   9.354  12.383
 8333SOL     OW26895   3.094   4.505   1.822
 8333SOL    HW126896   3.186   4.478   1.824
 8333SOL    HW226897   3.057   4.467   1.902
 8334SOL     OW26898   9.243   1.234   7.404
 8334SOL    HW126899   9.289   1.178   7.341
 8334SOL    HW226900   9.222   1.176   7.477
 8335SOL     OW26901   5.168  13.333   0.145
 8335SOL    HW126902   5.075  13.343   0.165
 8335SOL    HW226903   5.178  13.240   0.125
 8336SOL     OW26904  10.858   7.440   3.884
 8336SOL    HW126905  10.873   7.353   3.920
 8336SOL    HW226906  10.827   7.492   3.958
 8337SOL     OW26907   5.949   1.065  13.960
 8337SOL    HW126908   6.044   1.082  13.959
 8337SOL    HW226909   5.941   0.976  13.928
 8338SOL     OW26910  14.801   7.601  11.589
 8338SOL    HW126911  14.707   7.590  11.574
 8338SOL    HW226912  14.816   7.563  11.676
 8339SOL     OW26913   6.500   3.568  11.622
 8339SOL    HW126914   6.580   3.526  11.591
 8339SOL    HW226915   6.477   3.519  11.701
 8340SOL     OW26916   3.545   0.747   1.783
 8340SOL    HW126917   3.627   0.742   1.733
 8340SOL    HW226918   3.489   0.680   1.743
 8341SOL     OW26919  12.766   3.449   7.739
 8341SOL    HW126920  12.763   3.364   7.695
 8341SOL    HW226921  12.797   3.429   7.827
 8342SOL     OW26922   5.584  14.264   8.728
 8342SOL    HW126923   5.539  14.342   8.696
 8342SOL    HW226924   5.527  14.229   8.796
 8343SOL     OW26925   0.998   2.788   1.827
 8343SOL    HW126926   1.024   2.776   1.736
 8343SOL    HW226927   0.909   2.753   1.831
 8344SOL     OW26928   4.427   0.599   8.492
 8344SOL    HW126929   4.407   0.625   8.402
 8344SOL    HW226930   4.411   0.505   8.494
 8345SOL     OW26931  13.713  11.417   3.611
 8345SOL    HW126932  13.784  11.432   3.673
 8345SOL    HW226933  13.646  11.371   3.661
 8346SOL     OW26934   7.320  11.571   1.269
 8346SOL    HW126935   7.351  11.598   1.182
 8346SOL    HW226936   7.307  11.654   1.316
 8347SOL     OW26937  11.021   0.048   9.434
 8347SOL    HW126938  11.061  14.852   9.392
 8347SOL    HW226939  11.000   0.108   9.362
 8348SOL     OW26940   7.597   6.542   1.831
 8348SOL    HW126941   7.545   6.593   1.894
 8348SOL    HW226942   7.608   6.457   1.873
 8349SOL     OW26943   5.582   7.418  12.645
 8349SOL    HW126944   5.490   7.442  12.636
 8349SOL    HW226945   5.595   7.408  12.739
 8350SOL     OW26946   5.585  11.871   3.542
 8350SOL    HW126947   5.500  11.907   3.518
 8350SOL    HW226948   5.572  11.777   3.542
 8351SOL     OW26949  11.232   1.437   7.998
 8351SOL    HW126950  11.220   1.528   8.023
 8351SOL    HW226951  11.177   1.426   7.920
 8352SOL     OW26952   8.365   4.891  12.850
 8352SOL    HW126953   8.301   4.962  12.844
 8352SOL    HW226954   8.335   4.837  12.923
 8353SOL     OW26955   9.206   2.251   3.663
 8353SOL    HW126956   9.149   2.291   3.598
 8353SOL    HW226957   9.155   2.250   3.743
 8354SOL     OW26958   6.264  12.674   9.056
 8354SOL    HW126959   6.327  12.698   8.988
 8354SOL    HW226960   6.209  12.607   9.015
 8355SOL     OW26961  12.927   9.181  10.084
 8355SOL    HW126962  13.007   9.209  10.040
 8355SOL    HW226963  12.890   9.261  10.121
 8356SOL     OW26964   3.957  12.151   4.660
 8356SOL    HW126965   3.907  12.231   4.641
 8356SOL    HW226966   3.897  12.080   4.637
 8357SOL     OW26967   6.076   9.808   6.444
 8357SOL    HW126968   6.122   9.724   6.436
 8357SOL    HW226969   5.983   9.785   6.441
 8358SOL     OW26970   9.811   5.810  14.671
 8358SOL    HW126971   9.868   5.737  14.698
 8358SOL    HW226972   9.731   5.768  14.642
 8359SOL     OW26973   7.391   5.661   2.367
 8359SOL    HW126974   7.406   5.585   2.422
 8359SOL    HW226975   7.435   5.640   2.285
 8360SOL     OW26976   0.610   8.204   6.687
 8360SOL    HW126977   0.554   8.282   6.687
 8360SOL    HW226978   0.552   8.133   6.660
 8361SOL     OW26979   5.817   7.846   9.686
 8361SOL    HW126980   5.883   7.850   9.616
 8361SOL    HW226981   5.763   7.923   9.672
 8362SOL     OW26982   7.390  11.412   9.029
 8362SOL    HW126983   7.474  11.375   9.002
 8362SOL    HW226984   7.375  11.485   8.969
 8363SOL     OW26985   4.404   3.872   4.764
 8363SOL    HW126986   4.341   3.806   4.793
 8363SOL    HW226987   4.441   3.906   4.846
 8364SOL     OW26988   3.341   5.557   1.024
 8364SOL    HW126989   3.427   5.582   1.059
 8364SOL    HW226990   3.359   5.531   0.934
 8365SOL     OW26991  12.402   8.517  14.334
 8365SOL    HW126992  12.416   8.552  14.246
 8365SOL    HW226993  12.483   8.469  14.353
 8366SOL     OW26994  12.064   2.696   7.736
 8366SOL    HW126995  12.141   2.655   7.775
 8366SOL    HW226996  12.010   2.622   7.706
 8367SOL     OW26997   3.396   4.892  11.661
 8367SOL    HW126998   3.469   4.953  11.676
 8367SOL    HW226999   3.334   4.942  11.608
 8368SOL     OW27000   5.106   6.057   3.980
 8368SOL    HW127001   5.012   6.075   3.984
 8368SOL    HW227002   5.147   6.132   4.022
 8369SOL     OW27003  11.557   3.152   3.423
 8369SOL    HW127004  11.465   3.174   3.432
 8369SOL    HW227005  11.561   3.058   3.440
 8370SOL     OW27006   7.442   9.981   3.355
 8370SOL    HW127007   7.499   9.955   3.282
 8370SOL    HW227008   7.417   9.898   3.396
 8371SOL     OW27009   9.277   5.305   8.931
 8371SOL    HW127010   9.299   5.242   9.000
 8371SOL    HW227011   9.351   5.365   8.927
 8372SOL     OW27012   2.866  10.370   6.472
 8372SOL    HW127013   2.849  10.408   6.385
 8372SOL    HW227014   2.861  10.276   6.458
 8373SOL     OW27015   5.888   6.722  14.137
 8373SOL    HW127016   5.866   6.754  14.224
 8373SOL    HW227017   5.875   6.798  14.080
 8374SOL     OW27018   0.899   2.090   4.538
 8374SOL    HW127019   0.942   2.130   4.614
 8374SOL    HW227020   0.814   2.061   4.572
 8375SOL     OW27021  13.261   3.032  11.613
 8375SOL    HW127022  13.266   3.118  11.654
 8375SOL    HW227023  13.352   3.010  11.591
 8376SOL     OW27024   1.287  12.779   6.559
 8376SOL    HW127025   1.286  12.797   6.653
 8376SOL    HW227026   1.313  12.687   6.553
 8377SOL     OW27027   5.861   5.932   4.526
 8377SOL    HW127028   5.887   6.024   4.518
 8377SOL    HW227029   5.767   5.932   4.510
 8378SOL     OW27030   3.884  10.805  12.989
 8378SOL    HW127031   3.817  10.813  13.057
 8378SOL    HW227032   3.967  10.815  13.035
 8379SOL     OW27033  11.800   3.007   1.017
 8379SOL    HW127034  11.758   2.969   0.939
 8379SOL    HW227035  11.786   2.943   1.086
 8380SOL     OW27036   3.313  13.914   8.973
 8380SOL    HW127037   3.321  13.996   8.926
 8380SOL    HW227038   3.374  13.854   8.930
 8381SOL     OW27039   0.999  14.511  14.241
 8381SOL    HW127040   1.010  14.491  14.334
 8381SOL    HW227041   0.908  14.489  14.222
 8382SOL     OW27042  12.769   1.213   2.128
 8382SOL    HW127043  12.685   1.217   2.084
 8382SOL    HW227044  12.771   1.292   2.182
 8383SOL     OW27045   2.067  10.372  14.594
 8383SOL    HW127046   1.991  10.377  14.652
 8383SOL    HW227047   2.104  10.285  14.611
 8384SOL     OW27048   8.494   2.090   7.071
 8384SOL    HW127049   8.472   1.997   7.072
 8384SOL    HW227050   8.558   2.101   7.141
 8385SOL     OW27051  14.308  13.124  13.393
 8385SOL    HW127052  14.365  13.139  13.468
 8385SOL    HW227053  14.314  13.030  13.377
 8386SOL     OW27054  10.763  11.031   2.384
 8386SOL    HW127055  10.722  10.960   2.433
 8386SOL    HW227056  10.710  11.108   2.404
 8387SOL     OW27057   8.667  11.246   2.146
 8387SOL    HW127058   8.690  11.155   2.124
 8387SOL    HW227059   8.620  11.239   2.229
 8388SOL     OW27060   4.545   2.341  14.112
 8388SOL    HW127061   4.559   2.424  14.068
 8388SOL    HW227062   4.451   2.322  14.100
 8389SOL     OW27063   6.091   6.912   0.080
 8389SOL    HW127064   6.009   6.926   0.129
 8389SOL    HW227065   6.070   6.842   0.018
 8390SOL     OW27066   2.024  13.319   9.441
 8390SOL    HW127067   2.094  13.302   9.503
 8390SOL    HW227068   2.046  13.403   9.401
 8391SOL     OW27069   4.160   9.696   3.008
 8391SOL    HW127070   4.234   9.683   3.067
 8391SOL    HW227071   4.108   9.765   3.049
 8392SOL     OW27072   7.901   4.836   6.204
 8392SOL    HW127073   7.837   4.768   6.223
 8392SOL    HW227074   7.864   4.884   6.129
 8393SOL     OW27075  11.580  11.103   4.039
 8393SOL    HW127076  11.534  11.167   3.986
 8393SOL    HW227077  11.555  11.123   4.129
 8394SOL     OW27078   8.730   9.660   7.526
 8394SOL    HW127079   8.777   9.576   7.527
 8394SOL    HW227080   8.799   9.726   7.541
 8395SOL     OW27081  13.057  10.815   2.431
 8395SOL    HW127082  12.986  10.879   2.439
 8395SOL    HW227083  13.015  10.731   2.447
 8396SOL     OW27084   7.415  11.826   7.840
 8396SOL    HW127085   7.349  11.872   7.893
 8396SOL    HW227086   7.370  11.749   7.807
 8397SOL     OW27087   8.448   9.839  10.711
 8397SOL    HW127088   8.436   9.811  10.620
 8397SOL    HW227089   8.370   9.807  10.757
 8398SOL     OW27090   5.802   3.528  12.388
 8398SOL    HW127091   5.720   3.482  12.371
 8398SOL    HW227092   5.856   3.465  12.436
 8399SOL     OW27093  14.649  12.157  14.390
 8399SOL    HW127094  14.743  12.174  14.387
 8399SOL    HW227095  14.609  12.243  14.403
 8400SOL     OW27096   6.129   4.106   6.480
 8400SOL    HW127097   6.224   4.116   6.467
 8400SOL    HW227098   6.095   4.196   6.481
 8401SOL     OW27099   4.586  11.003  10.115
 8401SOL    HW127100   4.668  10.997  10.065
 8401SOL    HW227101   4.552  10.913  10.115
 8402SOL     OW27102   0.403  14.091   4.693
 8402SOL    HW127103   0.425  14.168   4.641
 8402SOL    HW227104   0.323  14.057   4.652
 8403SOL     OW27105   4.771   5.873   8.670
 8403SOL    HW127106   4.678   5.851   8.669
 8403SOL    HW227107   4.774   5.964   8.699
 8404SOL     OW27108   7.334   3.300   7.912
 8404SOL    HW127109   7.324   3.207   7.930
 8404SOL    HW227110   7.252   3.325   7.868
 8405SOL     OW27111   7.756   0.747  13.284
 8405SOL    HW127112   7.807   0.820  13.320
 8405SOL    HW227113   7.814   0.708  13.218
 8406SOL     OW27114   2.512   9.010   0.788
 8406SOL    HW127115   2.471   9.066   0.722
 8406SOL    HW227116   2.577   8.959   0.740
 8407SOL     OW27117  11.060   6.175  10.889
 8407SOL    HW127118  11.003   6.181  10.966
 8407SOL    HW227119  11.042   6.256  10.841
 8408SOL     OW27120  11.532   2.062  11.882
 8408SOL    HW127121  11.533   2.035  11.974
 8408SOL    HW227122  11.625   2.068  11.858
 8409SOL     OW27123   8.747   9.718  11.219
 8409SOL    HW127124   8.765   9.624  11.217
 8409SOL    HW227125   8.803   9.755  11.152
 8410SOL     OW27126   0.452  14.457   3.870
 8410SOL    HW127127   0.448  14.542   3.913
 8410SOL    HW227128   0.475  14.478   3.779
 8411SOL     OW27129   3.670  12.995   3.697
 8411SOL    HW127130   3.754  12.981   3.740
 8411SOL    HW227131   3.686  12.971   3.605
 8412SOL     OW27132   9.018   0.191   1.935
 8412SOL    HW127133   9.024   0.220   2.026
 8412SOL    HW227134   8.993   0.098   1.941
 8413SOL     OW27135  14.102   3.435   6.763
 8413SOL    HW127136  14.016   3.404   6.794
 8413SOL    HW227137  14.121   3.511   6.818
 8414SOL     OW27138   5.896  11.260   0.729
 8414SOL    HW127139   5.836  11.202   0.680
 8414SOL    HW227140   5.850  11.279   0.811
 8415SOL     OW27141  11.267   2.798   8.131
 8415SOL    HW127142  11.259   2.738   8.057
 8415SOL    HW227143  11.354   2.837   8.121
 8416SOL     OW27144  14.493   6.127   5.688
 8416SOL    HW127145  14.458   6.215   5.702
 8416SOL    HW227146  14.560   6.139   5.621
 8417SOL     OW27147   5.679   7.101   3.594
 8417SOL    HW127148   5.609   7.154   3.554
 8417SOL    HW227149   5.638   7.063   3.672
 8418SOL     OW27150  12.836   6.968   4.937
 8418SOL    HW127151  12.881   6.902   4.990
 8418SOL    HW227152  12.810   7.035   5.001
 8419SOL     OW27153   5.081   3.694   0.909
 8419SOL    HW127154   4.997   3.736   0.889
 8419SOL    HW227155   5.146   3.761   0.887
 8420SOL     OW27156   1.566  13.895   6.016
 8420SOL    HW127157   1.521  13.850   6.087
 8420SOL    HW227158   1.601  13.974   6.056
 8421SOL     OW27159   7.473  14.571   9.592
 8421SOL    HW127160   7.525  14.643   9.555
 8421SOL    HW227161   7.425  14.536   9.516
 8422SOL     OW27162  12.246  10.728   1.124
 8422SOL    HW127163  12.290  10.668   1.062
 8422SOL    HW227164  12.279  10.701   1.210
 8423SOL     OW27165   3.111  12.400   4.979
 8423SOL    HW127166   3.169  12.346   5.034
 8423SOL    HW227167   3.169  12.437   4.912
 8424SOL     OW27168  14.306  14.544   9.881
 8424SOL    HW127169  14.214  14.567   9.897
 8424SOL    HW227170  14.352  14.575   9.959
 8425SOL     OW27171   8.509   3.783   4.510
 8425SOL    HW127172   8.490   3.861   4.563
 8425SOL    HW227173   8.575   3.813   4.447
 8426SOL     OW27174   6.937   1.789   0.792
 8426SOL    HW127175   6.999   1.755   0.727
 8426SOL    HW227176   6.972   1.760   0.876
 8427SOL     OW27177  14.346  12.127   7.820
 8427SOL    HW127178  14.421  12.075   7.851
 8427SOL    HW227179  14.281  12.061   7.794
 8428SOL     OW27180  13.907   5.174   8.265
 8428SOL    HW127181  13.841   5.221   8.214
 8428SOL    HW227182  13.976   5.154   8.202
 8429SOL     OW27183   7.427   5.157   2.749
 8429SOL    HW127184   7.394   5.247   2.755
 8429SOL    HW227185   7.434   5.127   2.840
 8430SOL     OW27186   6.380   4.987   6.493
 8430SOL    HW127187   6.454   5.004   6.435
 8430SOL    HW227188   6.309   5.039   6.458
 8431SOL     OW27189   4.057   5.976  14.571
 8431SOL    HW127190   4.007   5.900  14.601
 8431SOL    HW227191   4.139   5.940  14.539
 8432SOL     OW27192  13.779   6.458   0.247
 8432SOL    HW127193  13.847   6.525   0.237
 8432SOL    HW227194  13.697   6.508   0.254
 8433SOL     OW27195  13.019   0.346   8.460
 8433SOL    HW127196  12.953   0.395   8.411
 8433SOL    HW227197  12.982   0.339   8.548
 8434SOL     OW27198   2.792   5.337   9.751
 8434SOL    HW127199   2.870   5.296   9.716
 8434SOL    HW227200   2.821   5.382   9.830
 8435SOL     OW27201   6.292   3.917  14.674
 8435SOL    HW127202   6.382   3.937  14.701
 8435SOL    HW227203   6.287   3.822  14.674
 8436SOL     OW27204   9.695   5.170   0.621
 8436SOL    HW127205   9.720   5.260   0.600
 8436SOL    HW227206   9.633   5.178   0.694
 8437SOL     OW27207   8.065   0.142  10.421
 8437SOL    HW127208   8.010   0.085  10.368
 8437SOL    HW227209   8.059   0.227  10.379
 8438SOL     OW27210   4.256   4.983   2.859
 8438SOL    HW127211   4.215   5.048   2.801
 8438SOL    HW227212   4.334   4.954   2.811
 8439SOL     OW27213   0.247   7.328  12.309
 8439SOL    HW127214   0.315   7.271  12.272
 8439SOL    HW227215   0.293   7.409  12.330
 8440SOL     OW27216   4.189  13.115   0.133
 8440SOL    HW127217   4.217  13.142   0.045
 8440SOL    HW227218   4.118  13.175   0.155
 8441SOL     OW27219  12.362   1.921   7.951
 8441SOL    HW127220  12.399   1.936   7.865
 8441SOL    HW227221  12.436   1.892   8.005
 8442SOL     OW27222  12.227   1.655   4.379
 8442SOL    HW127223  12.167   1.605   4.435
 8442SOL    HW227224  12.284   1.701   4.441
 8443SOL     OW27225   1.317   1.520   5.709
 8443SOL    HW127226   1.222   1.513   5.717
 8443SOL    HW227227   1.351   1.445   5.757
 8444SOL     OW27228  12.801   3.319   6.396
 8444SOL    HW127229  12.766   3.399   6.436
 8444SOL    HW227230  12.769   3.248   6.452
 8445SOL     OW27231   7.107   9.338   2.987
 8445SOL    HW127232   7.035   9.383   3.032
 8445SOL    HW227233   7.147   9.283   3.054
 8446SOL     OW27234  13.814   3.204  12.207
 8446SOL    HW127235  13.825   3.285  12.257
 8446SOL    HW227236  13.857   3.137  12.259
 8447SOL     OW27237  11.816   1.588  12.664
 8447SOL    HW127238  11.871   1.527  12.614
 8447SOL    HW227239  11.756   1.624  12.599
 8448SOL     OW27240  12.632   2.151   7.101
 8448SOL    HW127241  12.563   2.216   7.097
 8448SOL    HW227242  12.709   2.199   7.130
 8449SOL     OW27243   5.113   1.243   9.932
 8449SOL    HW127244   5.177   1.311   9.953
 8449SOL    HW227245   5.137   1.214   9.843
 8450SOL     OW27246   4.275  10.858  12.261
 8450SOL    HW127247   4.183  10.852  12.238
 8450SOL    HW227248   4.318  10.890  12.182
 8451SOL     OW27249  10.449   0.833   9.836
 8451SOL    HW127250  10.432   0.895   9.766
 8451SOL    HW227251  10.368   0.782   9.844
 8452SOL     OW27252   7.052   8.279   8.466
 8452SOL    HW127253   7.062   8.242   8.379
 8452SOL    HW227254   7.094   8.365   8.461
 8453SOL     OW27255   6.907   3.662   5.285
 8453SOL    HW127256   6.949   3.630   5.205
 8453SOL    HW227257   6.849   3.591   5.312
 8454SOL     OW27258   7.239  11.767   3.761
 8454SOL    HW127259   7.288  11.706   3.816
 8454SOL    HW227260   7.202  11.831   3.822
 8455SOL     OW27261   3.039  12.324   6.552
 8455SOL    HW127262   3.045  12.402   6.608
 8455SOL    HW227263   2.975  12.268   6.595
 8456SOL     OW27264   1.991  11.553   6.019
 8456SOL    HW127265   1.963  11.516   6.102
 8456SOL    HW227266   1.949  11.639   6.015
 8457SOL     OW27267   2.476   7.033  11.623
 8457SOL    HW127268   2.470   7.052  11.717
 8457SOL    HW227269   2.569   7.041  11.603
 8458SOL     OW27270   9.532  14.750  13.293
 8458SOL    HW127271   9.437  14.744  13.283
 8458SOL    HW227272   9.564  14.664  13.266
 8459SOL     OW27273   2.348  12.239   0.848
 8459SOL    HW127274   2.257  12.212   0.838
 8459SOL    HW227275   2.349  12.294   0.926
 8460SOL     OW27276   0.798   5.067  12.928
 8460SOL    HW127277   0.881   5.112  12.911
 8460SOL    HW227278   0.820   4.974  12.925
 8461SOL     OW27279  12.325   6.150   5.820
 8461SOL    HW127280  12.270   6.227   5.807
 8461SOL    HW227281  12.316   6.129   5.913
 8462SOL     OW27282   7.936   2.996   1.188
 8462SOL    HW127283   7.962   2.918   1.139
 8462SOL    HW227284   7.852   2.974   1.227
 8463SOL     OW27285   3.614   1.255  13.224
 8463SOL    HW127286   3.560   1.334  13.223
 8463SOL    HW227287   3.591   1.210  13.143
 8464SOL     OW27288   4.239   6.167   7.001
 8464SOL    HW127289   4.257   6.213   6.919
 8464SOL    HW227290   4.193   6.088   6.975
 8465SOL     OW27291   8.036  14.489   5.098
 8465SOL    HW127292   8.024  14.489   5.193
 8465SOL    HW227293   8.123  14.527   5.085
 8466SOL     OW27294  12.111   8.930   8.192
 8466SOL    HW127295  12.178   8.937   8.260
 8466SOL    HW227296  12.029   8.952   8.237
 8467SOL     OW27297  11.204   7.980   1.881
 8467SOL    HW127298  11.132   8.042   1.870
 8467SOL    HW227299  11.279   8.035   1.904
 8468SOL     OW27300   0.550   5.930   9.519
 8468SOL    HW127301   0.476   5.895   9.568
 8468SOL    HW227302   0.615   5.951   9.585
 8469SOL     OW27303  12.230  14.669  13.839
 8469SOL    HW127304  12.274  14.698  13.918
 8469SOL    HW227305  12.288  14.603  13.801
 8470SOL     OW27306   2.780   3.167   1.597
 8470SOL    HW127307   2.684   3.171   1.595
 8470SOL    HW227308   2.801   3.159   1.690
 8471SOL     OW27309   1.144   9.612   9.717
 8471SOL    HW127310   1.056   9.646   9.733
 8471SOL    HW227311   1.181   9.601   9.805
 8472SOL     OW27312  12.894   6.309   4.328
 8472SOL    HW127313  12.978   6.263   4.333
 8472SOL    HW227314  12.900   6.363   4.249
 8473SOL     OW27315  11.395  10.764  12.702
 8473SOL    HW127316  11.355  10.800  12.781
 8473SOL    HW227317  11.442  10.838  12.663
 8474SOL     OW27318   9.145   6.459  11.122
 8474SOL    HW127319   9.240   6.461  11.107
 8474SOL    HW227320   9.130   6.523  11.191
 8475SOL     OW27321   8.021   7.206   6.291
 8475SOL    HW127322   7.988   7.295   6.303
 8475SOL    HW227323   8.114   7.217   6.272
 8476SOL     OW27324   1.194   3.079   8.294
 8476SOL    HW127325   1.211   3.032   8.376
 8476SOL    HW227326   1.212   3.171   8.315
 8477SOL     OW27327   4.063  11.387  14.468
 8477SOL    HW127328   3.998  11.421  14.406
 8477SOL    HW227329   4.147  11.408  14.429
 8478SOL     OW27330   0.363   9.388   0.275
 8478SOL    HW127331   0.362   9.433   0.359
 8478SOL    HW227332   0.403   9.303   0.293
 8479SOL     OW27333   6.070   7.142   7.610
 8479SOL    HW127334   6.025   7.138   7.525
 8479SOL    HW227335   6.127   7.219   7.603
 8480SOL     OW27336  10.412   5.702  14.485
 8480SOL    HW127337  10.368   5.722  14.402
 8480SOL    HW227338  10.341   5.680  14.545
 8481SOL     OW27339   1.211  10.018   6.867
 8481SOL    HW127340   1.299  10.051   6.886
 8481SOL    HW227341   1.153  10.093   6.880
 8482SOL     OW27342   3.932   9.833  14.614
 8482SOL    HW127343   3.886   9.760  14.654
 8482SOL    HW227344   3.865   9.878  14.561
 8483SOL     OW27345   2.322   4.318   6.378
 8483SOL    HW127346   2.344   4.385   6.443
 8483SOL    HW227347   2.334   4.362   6.294
 8484SOL     OW27348   8.585   3.124   8.907
 8484SOL    HW127349   8.636   3.205   8.907
 8484SOL    HW227350   8.587   3.095   8.998
 8485SOL     OW27351   5.820   7.278  11.845
 8485SOL    HW127352   5.732   7.240  11.841
 8485SOL    HW227353   5.808   7.370  11.826
 8486SOL     OW27354   6.999  10.828   8.026
 8486SOL    HW127355   7.056  10.878   8.085
 8486SOL    HW227356   7.060  10.776   7.973
 8487SOL     OW27357  14.426   1.813  14.452
 8487SOL    HW127358  14.478   1.733  14.465
 8487SOL    HW227359  14.477   1.865  14.390
 8488SOL     OW27360   7.899  13.797   0.609
 8488SOL    HW127361   7.972  13.757   0.562
 8488SOL    HW227362   7.929  13.803   0.699
 8489SOL     OW27363   4.216   6.983   3.496
 8489SOL    HW127364   4.215   6.897   3.539
 8489SOL    HW227365   4.300   7.021   3.520
 8490SOL     OW27366   6.017   4.090  11.679
 8490SOL    HW127367   6.032   4.180  11.707
 8490SOL    HW227368   6.012   4.040  11.761
 8491SOL     OW27369   8.167   1.281   1.532
 8491SOL    HW127370   8.073   1.295   1.521
 8491SOL    HW227371   8.194   1.233   1.454
 8492SOL     OW27372  10.388   6.573   2.426
 8492SOL    HW127373  10.433   6.631   2.364
 8492SOL    HW227374  10.393   6.620   2.510
 8493SOL     OW27375  11.976   3.671   3.050
 8493SOL    HW127376  12.002   3.727   2.977
 8493SOL    HW227377  11.953   3.732   3.120
 8494SOL     OW27378  12.278   8.864   2.286
 8494SOL    HW127379  12.316   8.860   2.374
 8494SOL    HW227380  12.185   8.844   2.300
 8495SOL     OW27381   9.830   4.812   2.930
 8495SOL    HW127382   9.917   4.782   2.955
 8495SOL    HW227383   9.770   4.762   2.985
 8496SOL     OW27384  12.502  12.949   3.307
 8496SOL    HW127385  12.584  12.906   3.332
 8496SOL    HW227386  12.439  12.918   3.372
 8497SOL     OW27387  13.002  12.680  11.428
 8497SOL    HW127388  13.095  12.701  11.433
 8497SOL    HW227389  12.978  12.698  11.337
 8498SOL     OW27390  13.248   1.293   2.594
 8498SOL    HW127391  13.314   1.224   2.587
 8498SOL    HW227392  13.292   1.364   2.641
 8499SOL     OW27393   8.974   8.218  10.136
 8499SOL    HW127394   9.037   8.170  10.189
 8499SOL    HW227395   9.012   8.219  10.048
 8500SOL     OW27396   8.517   3.273   6.964
 8500SOL    HW127397   8.482   3.248   6.879
 8500SOL    HW227398   8.441   3.272   7.023
 8501SOL     OW27399   0.288   9.845  10.114
 8501SOL    HW127400   0.315   9.756  10.090
 8501SOL    HW227401   0.194   9.847  10.095
 8502SOL     OW27402   2.201   2.998  14.463
 8502SOL    HW127403   2.181   2.920  14.412
 8502SOL    HW227404   2.115   3.036  14.483
 8503SOL     OW27405   4.126   6.481   6.181
 8503SOL    HW127406   4.111   6.460   6.273
 8503SOL    HW227407   4.118   6.397   6.136
 8504SOL     OW27408  13.732   1.742   8.979
 8504SOL    HW127409  13.690   1.808   8.924
 8504SOL    HW227410  13.796   1.791   9.030
 8505SOL     OW27411   7.285  14.843   2.749
 8505SOL    HW127412   7.376  14.817   2.736
 8505SOL    HW227413   7.234  14.771   2.713
 8506SOL     OW27414   5.884   1.579  11.626
 8506SOL    HW127415   5.915   1.640  11.693
 8506SOL    HW227416   5.964   1.540  11.590
 8507SOL     OW27417   4.570   2.901  13.113
 8507SOL    HW127418   4.475   2.894  13.108
 8507SOL    HW227419   4.594   2.965  13.046
 8508SOL     OW27420  12.037  14.101   7.228
 8508SOL    HW127421  12.007  14.040   7.295
 8508SOL    HW227422  11.960  14.116   7.173
 8509SOL     OW27423  13.249  10.023   4.911
 8509SOL    HW127424  13.153  10.016   4.912
 8509SOL    HW227425  13.280   9.933   4.919
 8510SOL     OW27426  12.745   9.251  13.928
 8510SOL    HW127427  12.825   9.202  13.945
 8510SOL    HW227428  12.774   9.328  13.880
 8511SOL     OW27429   3.805   5.686  13.834
 8511SOL    HW127430   3.741   5.615  13.833
 8511SOL    HW227431   3.836   5.688  13.925
 8512SOL     OW27432  13.475   2.737   6.566
 8512SOL    HW127433  13.551   2.685   6.590
 8512SOL    HW227434  13.465   2.800   6.637
 8513SOL     OW27435  12.411   9.776   9.834
 8513SOL    HW127436  12.501   9.796   9.858
 8513SOL    HW227437  12.396   9.825   9.753
 8514SOL     OW27438   7.186  14.865   3.443
 8514SOL    HW127439   7.258   0.036   3.480
 8514SOL    HW227440   7.154  14.812   3.515
 8515SOL     OW27441   3.447   9.292   5.861
 8515SOL    HW127442   3.489   9.207   5.871
 8515SOL    HW227443   3.457   9.313   5.768
 8516SOL     OW27444  14.592  14.727  11.206
 8516SOL    HW127445  14.651  14.744  11.280
 8516SOL    HW227446  14.547  14.810  11.192
 8517SOL     OW27447   0.689  12.027   0.579
 8517SOL    HW127448   0.655  12.110   0.613
 8517SOL    HW227449   0.623  11.998   0.516
 8518SOL     OW27450   9.745  13.584   3.055
 8518SOL    HW127451   9.706  13.610   2.971
 8518SOL    HW227452   9.811  13.651   3.073
 8519SOL     OW27453  13.950  10.650  14.838
 8519SOL    HW127454  13.916  10.700  14.763
 8519SOL    HW227455  14.035  10.617  14.808
 8520SOL     OW27456   3.239   1.416  10.810
 8520SOL    HW127457   3.181   1.391  10.738
 8520SOL    HW227458   3.218   1.355  10.880
 8521SOL     OW27459   8.268   0.515   0.885
 8521SOL    HW127460   8.301   0.459   0.956
 8521SOL    HW227461   8.242   0.454   0.816
 8522SOL     OW27462  14.130  12.359  14.631
 8522SOL    HW127463  14.045  12.326  14.661
 8522SOL    HW227464  14.187  12.282  14.634
 8523SOL     OW27465   5.425  14.018   2.505
 8523SOL    HW127466   5.386  14.017   2.592
 8523SOL    HW227467   5.416  13.928   2.473
 8524SOL     OW27468   6.276   3.335   4.345
 8524SOL    HW127469   6.334   3.406   4.372
 8524SOL    HW227470   6.258   3.352   4.253
 8525SOL     OW27471  14.832   5.913   9.644
 8525SOL    HW127472  14.876   5.828   9.647
 8525SOL    HW227473  14.800   5.927   9.733
 8526SOL     OW27474  11.776   4.098   9.120
 8526SOL    HW127475  11.800   4.183   9.082
 8526SOL    HW227476  11.690   4.114   9.160
 8527SOL     OW27477   5.434  14.198   3.604
 8527SOL    HW127478   5.414  14.283   3.565
 8527SOL    HW227479   5.349  14.160   3.627
 8528SOL     OW27480  10.281   7.973   7.105
 8528SOL    HW127481  10.234   7.940   7.181
 8528SOL    HW227482  10.298   8.065   7.125
 8529SOL     OW27483  11.566   6.292   6.412
 8529SOL    HW127484  11.651   6.250   6.395
 8529SOL    HW227485  11.521   6.289   6.328
 8530SOL     OW27486   3.270   4.557   9.333
 8530SOL    HW127487   3.333   4.629   9.327
 8530SOL    HW227488   3.301   4.492   9.270
 8531SOL     OW27489  10.970  13.742  10.533
 8531SOL    HW127490  11.063  13.752  10.554
 8531SOL    HW227491  10.936  13.831  10.530
 8532SOL     OW27492   3.010   5.981  13.549
 8532SOL    HW127493   3.044   5.981  13.639
 8532SOL    HW227494   2.943   6.049  13.549
 8533SOL     OW27495   2.221   2.847  10.877
 8533SOL    HW127496   2.173   2.851  10.795
 8533SOL    HW227497   2.304   2.804  10.854
 8534SOL     OW27498   7.750   2.895   7.377
 8534SOL    HW127499   7.821   2.865   7.321
 8534SOL    HW227500   7.688   2.822   7.379
 8535SOL     OW27501   3.875   4.900   8.243
 8535SOL    HW127502   3.938   4.956   8.288
 8535SOL    HW227503   3.929   4.837   8.196
 8536SOL     OW27504   3.387  13.673   8.608
 8536SOL    HW127505   3.432  13.758   8.606
 8536SOL    HW227506   3.392  13.642   8.518
 8537SOL     OW27507   5.475   3.653   9.476
 8537SOL    HW127508   5.387   3.641   9.441
 8537SOL    HW227509   5.504   3.737   9.440
 8538SOL     OW27510   6.388   2.206   4.403
 8538SOL    HW127511   6.444   2.139   4.363
 8538SOL    HW227512   6.337   2.159   4.468
 8539SOL     OW27513   9.308   7.152   6.434
 8539SOL    HW127514   9.338   7.089   6.500
 8539SOL    HW227515   9.264   7.100   6.368
 8540SOL     OW27516   2.576  14.116  11.252
 8540SOL    HW127517   2.600  14.179  11.184
 8540SOL    HW227518   2.504  14.066  11.214
 8541SOL     OW27519   8.340  12.516   6.285
 8541SOL    HW127520   8.253  12.488   6.255
 8541SOL    HW227521   8.395  12.508   6.207
 8542SOL     OW27522   4.142  14.599   8.268
 8542SOL    HW127523   4.127  14.513   8.229
 8542SOL    HW227524   4.056  14.628   8.297
 8543SOL     OW27525  10.637   2.977   6.266
 8543SOL    HW127526  10.582   3.034   6.320
 8543SOL    HW227527  10.688   2.927   6.329
 8544SOL     OW27528  10.367   0.653   1.404
 8544SOL    HW127529  10.453   0.668   1.366
 8544SOL    HW227530  10.315   0.616   1.333
 8545SOL     OW27531   6.805   0.487  11.754
 8545SOL    HW127532   6.742   0.542  11.707
 8545SOL    HW227533   6.756   0.454  11.829
 8546SOL     OW27534   0.968   9.881   4.754
 8546SOL    HW127535   0.898   9.943   4.731
 8546SOL    HW227536   0.925   9.796   4.753
 8547SOL     OW27537   2.017   4.587   8.535
 8547SOL    HW127538   2.111   4.607   8.538
 8547SOL    HW227539   1.994   4.571   8.627
 8548SOL     OW27540  13.514   7.626  11.016
 8548SOL    HW127541  13.540   7.567  10.945
 8548SOL    HW227542  13.426   7.656  10.991
 8549SOL     OW27543   2.028  12.399   7.056
 8549SOL    HW127544   2.066  12.389   7.144
 8549SOL    HW227545   2.039  12.491   7.036
 8550SOL     OW27546  10.302   4.217  11.739
 8550SOL    HW127547  10.224   4.254  11.698
 8550SOL    HW227548  10.323   4.277  11.811
 8551SOL     OW27549   6.768   3.133   4.139
 8551SOL    HW127550   6.710   3.072   4.185
 8551SOL    HW227551   6.759   3.215   4.188
 8552SOL     OW27552   4.471   6.471  11.798
 8552SOL    HW127553   4.496   6.547  11.746
 8552SOL    HW227554   4.498   6.396  11.746
 8553SOL     OW27555  14.120   1.516   9.666
 8553SOL    HW127556  14.074   1.441   9.628
 8553SOL    HW227557  14.073   1.593   9.632
 8554SOL     OW27558   1.091   5.740  13.163
 8554SOL    HW127559   0.997   5.740  13.147
 8554SOL    HW227560   1.124   5.817  13.119
 8555SOL     OW27561  13.372   2.908  13.916
 8555SOL    HW127562  13.380   2.912  14.011
 8555SOL    HW227563  13.459   2.880  13.886
 8556SOL     OW27564   8.324  10.212   6.870
 8556SOL    HW127565   8.405  10.254   6.842
 8556SOL    HW227566   8.348  10.158   6.944
 8557SOL     OW27567   5.900  10.616   2.831
 8557SOL    HW127568   5.823  10.672   2.829
 8557SOL    HW227569   5.872  10.534   2.791
 8558SOL     OW27570  12.180   3.131  13.169
 8558SOL    HW127571  12.237   3.156  13.096
 8558SOL    HW227572  12.100   3.182  13.156
 8559SOL     OW27573  10.282  10.654   5.382
 8559SOL    HW127574  10.315  10.703   5.307
 8559SOL    HW227575  10.256  10.569   5.346
 8560SOL     OW27576   4.379  14.149  13.466
 8560SOL    HW127577   4.296  14.198  13.470
 8560SOL    HW227578   4.445  14.216  13.449
 8561SOL     OW27579  11.089   1.465  12.429
 8561SOL    HW127580  11.157   1.412  12.388
 8561SOL    HW227581  11.061   1.526  12.361
 8562SOL     OW27582  10.214  13.325   2.123
 8562SOL    HW127583  10.282  13.392   2.116
 8562SOL    HW227584  10.243  13.255   2.063
 8563SOL     OW27585  11.928   7.210   0.347
 8563SOL    HW127586  11.923   7.303   0.328
 8563SOL    HW227587  11.951   7.169   0.263
 8564SOL     OW27588  10.988   1.148  14.053
 8564SOL    HW127589  10.948   1.209  13.990
 8564SOL    HW227590  10.937   1.160  14.133
 8565SOL     OW27591   8.609   4.808  12.976
 8565SOL    HW127592   8.692   4.791  12.931
 8565SOL    HW227593   8.577   4.722  13.000
 8566SOL     OW27594  11.473  12.883   7.687
 8566SOL    HW127595  11.403  12.936   7.725
 8566SOL    HW227596  11.428  12.819   7.632
 8567SOL     OW27597   0.792  13.555   8.317
 8567SOL    HW127598   0.722  13.497   8.286
 8567SOL    HW227599   0.857  13.496   8.355
 8568SOL     OW27600   9.128   1.496   1.072
 8568SOL    HW127601   9.167   1.583   1.058
 8568SOL    HW227602   9.065   1.486   1.001
 8569SOL     OW27603  11.986  13.913   6.873
 8569SOL    HW127604  11.942  13.956   6.946
 8569SOL    HW227605  11.928  13.928   6.798
 8570SOL     OW27606   8.285   0.501   6.492
 8570SOL    HW127607   8.194   0.500   6.461
 8570SOL    HW227608   8.281   0.553   6.572
 8571SOL     OW27609  14.300  13.150   1.387
 8571SOL    HW127610  14.248  13.225   1.418
 8571SOL    HW227611  14.387  13.187   1.370
 8572SOL     OW27612   6.632   7.210   2.820
 8572SOL    HW127613   6.686   7.138   2.789
 8572SOL    HW227614   6.663   7.227   2.909
 8573SOL     OW27615   5.460   3.145   9.828
 8573SOL    HW127616   5.394   3.110   9.769
 8573SOL    HW227617   5.413   3.163   9.909
 8574SOL     OW27618   7.422   4.929   7.173
 8574SOL    HW127619   7.420   5.007   7.229
 8574SOL    HW227620   7.338   4.930   7.128
 8575SOL     OW27621   2.207   1.243   1.808
 8575SOL    HW127622   2.222   1.292   1.727
 8575SOL    HW227623   2.177   1.309   1.871
 8576SOL     OW27624   2.872   0.304   5.354
 8576SOL    HW127625   2.777   0.300   5.345
 8576SOL    HW227626   2.887   0.318   5.447
 8577SOL     OW27627   9.481   4.922   2.979
 8577SOL    HW127628   9.410   4.937   3.041
 8577SOL    HW227629   9.493   5.006   2.935
 8578SOL     OW27630  13.892   0.432   6.527
 8578SOL    HW127631  13.976   0.477   6.534
 8578SOL    HW227632  13.828   0.502   6.514
 8579SOL     OW27633   8.629  11.943   6.922
 8579SOL    HW127634   8.719  11.957   6.891
 8579SOL    HW227635   8.637  11.933   7.016
 8580SOL     OW27636   4.504   4.183  11.909
 8580SOL    HW127637   4.488   4.103  11.958
 8580SOL    HW227638   4.567   4.158  11.841
 8581SOL     OW27639  13.223   1.469  14.484
 8581SOL    HW127640  13.169   1.543  14.514
 8581SOL    HW227641  13.313   1.497  14.501
 8582SOL     OW27642   9.940   4.065   1.726
 8582SOL    HW127643   9.949   4.082   1.633
 8582SOL    HW227644  10.015   4.010   1.748
 8583SOL     OW27645  11.872   9.727   9.540
 8583SOL    HW127646  11.965   9.733   9.560
 8583SOL    HW227647  11.863   9.644   9.492
 8584SOL     OW27648  13.772   6.780   1.745
 8584SOL    HW127649  13.744   6.844   1.810
 8584SOL    HW227650  13.702   6.715   1.744
 8585SOL     OW27651   0.265  12.383   8.806
 8585SOL    HW127652   0.253  12.457   8.865
 8585SOL    HW227653   0.190  12.386   8.746
 8586SOL     OW27654   7.206   7.445  11.425
 8586SOL    HW127655   7.217   7.411  11.514
 8586SOL    HW227656   7.151   7.380  11.381
 8587SOL     OW27657   9.450   5.247   1.807
 8587SOL    HW127658   9.419   5.181   1.869
 8587SOL    HW227659   9.371   5.272   1.757
 8588SOL     OW27660   3.825   4.161   5.101
 8588SOL    HW127661   3.896   4.101   5.122
 8588SOL    HW227662   3.840   4.183   5.009
 8589SOL     OW27663   9.338   3.798  14.663
 8589SOL    HW127664   9.341   3.704  14.644
 8589SOL    HW227665   9.245   3.818  14.670
 8590SOL     OW27666  14.068   4.293  14.454
 8590SOL    HW127667  13.991   4.265  14.503
 8590SOL    HW227668  14.117   4.212  14.439
 8591SOL     OW27669   0.290   9.294  11.501
 8591SOL    HW127670   0.291   9.218  11.559
 8591SOL    HW227671   0.377   9.333  11.510
 8592SOL     OW27672  14.840   4.259  13.712
 8592SOL    HW127673  14.810   4.182  13.664
 8592SOL    HW227674  14.764   4.316  13.716
 8593SOL     OW27675   5.470  10.308   7.283
 8593SOL    HW127676   5.542  10.354   7.239
 8593SOL    HW227677   5.514  10.252   7.347
 8594SOL     OW27678  14.578  12.249  10.980
 8594SOL    HW127679  14.517  12.322  10.981
 8594SOL    HW227680  14.644  12.271  11.045
 8595SOL     OW27681   8.698   7.721  10.367
 8595SOL    HW127682   8.767   7.662  10.395
 8595SOL    HW227683   8.619   7.667  10.365
 8596SOL     OW27684  11.874  12.134   5.054
 8596SOL    HW127685  11.860  12.222   5.020
 8596SOL    HW227686  11.881  12.145   5.149
 8597SOL     OW27687  10.929  10.206   1.785
 8597SOL    HW127688  11.010  10.157   1.769
 8597SOL    HW227689  10.950  10.264   1.858
 8598SOL     OW27690   5.984   4.044   4.726
 8598SOL    HW127691   5.998   4.008   4.639
 8598SOL    HW227692   5.928   4.120   4.712
 8599SOL     OW27693   4.664   5.223  11.147
 8599SOL    HW127694   4.716   5.282  11.203
 8599SOL    HW227695   4.702   5.136  11.163
 8600SOL     OW27696   9.816  11.390  14.468
 8600SOL    HW127697   9.801  11.364  14.559
 8600SOL    HW227698   9.728  11.396  14.430
 8601SOL     OW27699   5.048   1.823   0.451
 8601SOL    HW127700   5.102   1.834   0.373
 8601SOL    HW227701   5.062   1.732   0.478
 8602SOL     OW27702  14.415   9.310   4.930
 8602SOL    HW127703  14.406   9.309   5.026
 8602SOL    HW227704  14.438   9.220   4.907
 8603SOL     OW27705   6.101   8.604   5.307
 8603SOL    HW127706   6.185   8.558   5.310
 8603SOL    HW227707   6.078   8.608   5.215
 8604SOL     OW27708  13.439   1.986  10.736
 8604SOL    HW127709  13.468   2.017  10.650
 8604SOL    HW227710  13.344   1.975  10.726
 8605SOL     OW27711  10.604  13.413   4.542
 8605SOL    HW127712  10.569  13.323   4.542
 8605SOL    HW227713  10.586  13.446   4.630
 8606SOL     OW27714   0.450  13.705  12.533
 8606SOL    HW127715   0.475  13.734  12.621
 8606SOL    HW227716   0.423  13.785  12.488
 8607SOL     OW27717  14.687   3.927   7.385
 8607SOL    HW127718  14.762   3.953   7.332
 8607SOL    HW227719  14.666   4.005   7.437
 8608SOL     OW27720  13.673   1.230  13.319
 8608SOL    HW127721  13.687   1.284  13.242
 8608SOL    HW227722  13.754   1.181  13.330
 8609SOL     OW27723   9.058   1.636   8.530
 8609SOL    HW127724   8.981   1.692   8.524
 8609SOL    HW227725   9.041   1.566   8.467
 8610SOL     OW27726   9.185   7.950   3.031
 8610SOL    HW127727   9.168   8.041   3.007
 8610SOL    HW227728   9.219   7.909   2.951
 8611SOL     OW27729   4.140   0.702   3.198
 8611SOL    HW127730   4.179   0.687   3.112
 8611SOL    HW227731   4.212   0.734   3.252
 8612SOL     OW27732  14.771   9.762   4.156
 8612SOL    HW127733  14.779   9.852   4.186
 8612SOL    HW227734  14.799   9.708   4.230
 8613SOL     OW27735  11.462  12.453   3.055
 8613SOL    HW127736  11.505  12.405   3.126
 8613SOL    HW227737  11.405  12.389   3.013
 8614SOL     OW27738   4.987   5.669   8.306
 8614SOL    HW127739   4.925   5.727   8.262
 8614SOL    HW227740   4.985   5.697   8.398
 8615SOL     OW27741   9.843   2.124   6.972
 8615SOL    HW127742   9.902   2.102   7.044
 8615SOL    HW227743   9.881   2.080   6.896
 8616SOL     OW27744  11.468   6.337  12.588
 8616SOL    HW127745  11.490   6.351  12.680
 8616SOL    HW227746  11.462   6.242  12.578
 8617SOL     OW27747   2.261  13.478   2.035
 8617SOL    HW127748   2.314  13.550   2.070
 8617SOL    HW227749   2.316  13.401   2.045
 8618SOL     OW27750   1.943  10.421   6.897
 8618SOL    HW127751   2.038  10.427   6.889
 8618SOL    HW227752   1.928  10.352   6.962
 8619SOL     OW27753   6.937  11.334   2.470
 8619SOL    HW127754   6.961  11.329   2.562
 8619SOL    HW227755   7.005  11.388   2.430
 8620SOL     OW27756   9.297   4.494  10.629
 8620SOL    HW127757   9.206   4.514  10.652
 8620SOL    HW227758   9.340   4.476  10.712
 8621SOL     OW27759  12.900  13.913   7.339
 8621SOL    HW127760  12.985  13.933   7.378
 8621SOL    HW227761  12.866  13.840   7.390
 8622SOL     OW27762  11.985   3.717  13.120
 8622SOL    HW127763  12.026   3.762  13.193
 8622SOL    HW227764  12.051   3.717  13.051
 8623SOL     OW27765   8.870  10.122   8.013
 8623SOL    HW127766   8.865  10.056   8.082
 8623SOL    HW227767   8.959  10.114   7.978
 8624SOL     OW27768  14.217  10.962   2.443
 8624SOL    HW127769  14.268  11.002   2.373
 8624SOL    HW227770  14.219  11.026   2.514
 8625SOL     OW27771   1.618  13.195  14.511
 8625SOL    HW127772   1.618  13.216  14.605
 8625SOL    HW227773   1.658  13.109  14.505
 8626SOL     OW27774   1.523  11.428   2.480
 8626SOL    HW127775   1.469  11.428   2.401
 8626SOL    HW227776   1.581  11.504   2.469
 8627SOL     OW27777   0.269  12.708  13.958
 8627SOL    HW127778   0.276  12.762  14.036
 8627SOL    HW227779   0.256  12.619  13.992
 8628SOL     OW27780  11.687  14.583   6.300
 8628SOL    HW127781  11.713  14.493   6.318
 8628SOL    HW227782  11.592  14.582   6.303
 8629SOL     OW27783  14.096  12.507  11.818
 8629SOL    HW127784  14.106  12.445  11.890
 8629SOL    HW227785  14.009  12.544  11.831
 8630SOL     OW27786   9.552   8.047  10.675
 8630SOL    HW127787   9.488   8.006  10.734
 8630SOL    HW227788   9.513   8.038  10.588
 8631SOL     OW27789   3.959   1.318   5.763
 8631SOL    HW127790   3.951   1.225   5.746
 8631SOL    HW227791   3.869   1.351   5.757
 8632SOL     OW27792   9.420  12.897   3.731
 8632SOL    HW127793   9.501  12.884   3.781
 8632SOL    HW227794   9.402  12.811   3.693
 8633SOL     OW27795   3.473   3.059   1.170
 8633SOL    HW127796   3.528   2.982   1.188
 8633SOL    HW227797   3.507   3.127   1.228
 8634SOL     OW27798   7.643  10.992   9.883
 8634SOL    HW127799   7.650  10.937   9.805
 8634SOL    HW227800   7.657  10.931   9.956
 8635SOL     OW27801   9.920   8.419   4.334
 8635SOL    HW127802   9.835   8.382   4.358
 8635SOL    HW227803   9.979   8.344   4.331
 8636SOL     OW27804   1.059   4.735   6.314
 8636SOL    HW127805   1.127   4.737   6.247
 8636SOL    HW227806   0.979   4.710   6.268
 8637SOL     OW27807   8.265  11.521  12.601
 8637SOL    HW127808   8.306  11.437  12.586
 8637SOL    HW227809   8.326  11.569  12.658
 8638SOL     OW27810  10.013   4.010  12.415
 8638SOL    HW127811  10.083   4.060  12.457
 8638SOL    HW227812  10.057   3.963  12.344
 8639SOL     OW27813   7.706  13.038  10.381
 8639SOL    HW127814   7.751  13.123  10.376
 8639SOL    HW227815   7.757  12.988  10.445
 8640SOL     OW27816   9.415   7.070   2.197
 8640SOL    HW127817   9.508   7.084   2.212
 8640SOL    HW227818   9.404   6.975   2.208
 8641SOL     OW27819   6.578  13.927   2.943
 8641SOL    HW127820   6.495  13.964   2.974
 8641SOL    HW227821   6.610  13.876   3.017
 8642SOL     OW27822   4.953   2.794   0.345
 8642SOL    HW127823   4.864   2.784   0.377
 8642SOL    HW227824   4.947   2.773   0.251
 8643SOL     OW27825  14.051   1.854   5.624
 8643SOL    HW127826  14.130   1.800   5.614
 8643SOL    HW227827  13.991   1.820   5.558
 8644SOL     OW27828   0.718   0.725  12.102
 8644SOL    HW127829   0.639   0.762  12.063
 8644SOL    HW227830   0.757   0.798  12.151
 8645SOL     OW27831   6.651  12.253   7.086
 8645SOL    HW127832   6.718  12.295   7.033
 8645SOL    HW227833   6.673  12.160   7.083
 8646SOL     OW27834   0.241   8.258   8.226
 8646SOL    HW127835   0.185   8.236   8.300
 8646SOL    HW227836   0.181   8.291   8.159
 8647SOL     OW27837  14.178   8.969  13.254
 8647SOL    HW127838  14.168   9.039  13.189
 8647SOL    HW227839  14.103   8.979  13.312
 8648SOL     OW27840   8.693  12.799   6.340
 8648SOL    HW127841   8.702  12.849   6.421
 8648SOL    HW227842   8.733  12.715   6.359
 8649SOL     OW27843   3.538   2.495   7.344
 8649SOL    HW127844   3.551   2.418   7.289
 8649SOL    HW227845   3.589   2.564   7.300
 8650SOL     OW27846   7.449  10.692   4.072
 8650SOL    HW127847   7.493  10.751   4.133
 8650SOL    HW227848   7.437  10.611   4.121
 8651SOL     OW27849   4.211   8.641   3.149
 8651SOL    HW127850   4.244   8.553   3.132
 8651SOL    HW227851   4.233   8.657   3.241
 8652SOL     OW27852  13.123  12.068  12.157
 8652SOL    HW127853  13.127  11.973  12.143
 8652SOL    HW227854  13.145  12.105  12.071
 8653SOL     OW27855   4.823  13.002   1.651
 8653SOL    HW127856   4.766  12.925   1.645
 8653SOL    HW227857   4.801  13.054   1.574
 8654SOL     OW27858   2.868   1.413  10.825
 8654SOL    HW127859   2.807   1.350  10.864
 8654SOL    HW227860   2.955   1.380  10.848
 8655SOL     OW27861  14.159   8.344   1.424
 8655SOL    HW127862  14.190   8.421   1.473
 8655SOL    HW227863  14.082   8.314   1.472
 8656SOL     OW27864   9.554   6.360   2.831
 8656SOL    HW127865   9.612   6.376   2.757
 8656SOL    HW227866   9.520   6.446   2.854
 8657SOL     OW27867  12.694  13.634  10.853
 8657SOL    HW127868  12.662  13.704  10.796
 8657SOL    HW227869  12.650  13.555  10.820
 8658SOL     OW27870   1.354  10.270   7.026
 8658SOL    HW127871   1.401  10.199   6.982
 8658SOL    HW227872   1.404  10.349   7.006
 8659SOL     OW27873  12.857   4.817   4.810
 8659SOL    HW127874  12.775   4.862   4.825
 8659SOL    HW227875  12.919   4.886   4.788
 8660SOL     OW27876   1.341   8.143   7.421
 8660SOL    HW127877   1.355   8.237   7.437
 8660SOL    HW227878   1.284   8.115   7.493
 8661SOL     OW27879  14.335   9.197   0.250
 8661SOL    HW127880  14.350   9.196   0.156
 8661SOL    HW227881  14.263   9.136   0.264
 8662SOL     OW27882   5.199  14.209   4.705
 8662SOL    HW127883   5.270  14.257   4.663
 8662SOL    HW227884   5.187  14.252   4.790
 8663SOL     OW27885   6.554  12.517   7.492
 8663SOL    HW127886   6.624  12.465   7.531
 8663SOL    HW227887   6.537  12.475   7.408
 8664SOL     OW27888   6.600   2.027   4.015
 8664SOL    HW127889   6.679   2.049   3.966
 8664SOL    HW227890   6.535   2.005   3.948
 8665SOL     OW27891  11.849   2.525   7.090
 8665SOL    HW127892  11.790   2.482   7.151
 8665SOL    HW227893  11.876   2.456   7.029
 8666SOL     OW27894   7.295   4.668   6.950
 8666SOL    HW127895   7.214   4.669   7.002
 8666SOL    HW227896   7.328   4.579   6.960
 8667SOL     OW27897   5.984   8.147   7.218
 8667SOL    HW127898   5.962   8.091   7.144
 8667SOL    HW227899   6.027   8.223   7.178
 8668SOL     OW27900  11.270  14.244   4.261
 8668SOL    HW127901  11.226  14.159   4.267
 8668SOL    HW227902  11.351  14.233   4.312
 8669SOL     OW27903  10.107   1.441  14.284
 8669SOL    HW127904  10.129   1.379  14.353
 8669SOL    HW227905  10.034   1.401  14.237
 8670SOL     OW27906  13.690   6.879  12.393
 8670SOL    HW127907  13.741   6.959  12.381
 8670SOL    HW227908  13.599   6.907  12.387
 8671SOL     OW27909  14.817   7.694   6.917
 8671SOL    HW127910  14.749   7.657   6.974
 8671SOL    HW227911  14.861   7.618   6.880
 8672SOL     OW27912  12.117  11.379   4.045
 8672SOL    HW127913  12.097  11.395   4.137
 8672SOL    HW227914  12.051  11.316   4.017
 8673SOL     OW27915   0.995   3.717   1.105
 8673SOL    HW127916   0.947   3.728   1.188
 8673SOL    HW227917   0.933   3.669   1.049
 8674SOL     OW27918  12.604   8.389  13.639
 8674SOL    HW127919  12.578   8.324  13.574
 8674SOL    HW227920  12.699   8.394  13.631
 8675SOL     OW27921   8.854   3.471  13.293
 8675SOL    HW127922   8.820   3.561  13.285
 8675SOL    HW227923   8.940   3.481  13.333
 8676SOL     OW27924   2.671   4.209  11.542
 8676SOL    HW127925   2.721   4.153  11.484
 8676SOL    HW227926   2.615   4.149  11.591
 8677SOL     OW27927   2.634   6.713  13.571
 8677SOL    HW127928   2.674   6.703  13.657
 8677SOL    HW227929   2.705   6.748  13.516
 8678SOL     OW27930   9.715  11.623   0.686
 8678SOL    HW127931   9.777  11.564   0.730
 8678SOL    HW227932   9.692  11.578   0.605
 8679SOL     OW27933  10.791   3.410   3.879
 8679SOL    HW127934  10.845   3.346   3.831
 8679SOL    HW227935  10.820   3.402   3.970
 8680SOL     OW27936   1.316  14.426   1.628
 8680SOL    HW127937   1.251  14.428   1.557
 8680SOL    HW227938   1.375  14.354   1.606
 8681SOL     OW27939   8.871   4.345   1.109
 8681SOL    HW127940   8.962   4.375   1.110
 8681SOL    HW227941   8.820   4.425   1.097
 8682SOL     OW27942   7.460   9.330   0.698
 8682SOL    HW127943   7.445   9.374   0.615
 8682SOL    HW227944   7.398   9.257   0.698
 8683SOL     OW27945   7.573   0.127   0.103
 8683SOL    HW127946   7.584   0.132   0.008
 8683SOL    HW227947   7.510   0.056   0.116
 8684SOL     OW27948  11.915   2.330  13.976
 8684SOL    HW127949  11.928   2.334  13.882
 8684SOL    HW227950  12.001   2.348  14.014
 8685SOL     OW27951   8.926  13.580   3.332
 8685SOL    HW127952   8.868  13.505   3.319
 8685SOL    HW227953   8.869  13.656   3.318
 8686SOL     OW27954   6.452   6.393  12.859
 8686SOL    HW127955   6.410   6.307  12.856
 8686SOL    HW227956   6.524   6.387  12.797
 8687SOL     OW27957  13.921   8.197   7.079
 8687SOL    HW127958  13.860   8.145   7.025
 8687SOL    HW227959  13.962   8.133   7.137
 8688SOL     OW27960   3.821  10.853   8.426
 8688SOL    HW127961   3.874  10.864   8.505
 8688SOL    HW227962   3.884  10.828   8.358
 8689SOL     OW27963   2.011  13.175   1.747
 8689SOL    HW127964   2.003  13.215   1.834
 8689SOL    HW227965   2.100  13.197   1.718
 8690SOL     OW27966   6.018  11.947   9.493
 8690SOL    HW127967   6.022  11.855   9.520
 8690SOL    HW227968   5.924  11.966   9.487
 8691SOL     OW27969   0.164  13.272   8.108
 8691SOL    HW127970   0.189  13.345   8.052
 8691SOL    HW227971   0.157  13.198   8.049
 8692SOL     OW27972  10.976   9.633   7.475
 8692SOL    HW127973  10.975   9.676   7.389
 8692SOL    HW227974  10.888   9.646   7.509
 8693SOL     OW27975   4.658  10.887   3.752
 8693SOL    HW127976   4.569  10.851   3.753
 8693SOL    HW227977   4.689  10.874   3.841
 8694SOL     OW27978   6.541   2.578  14.753
 8694SOL    HW127979   6.482   2.642  14.794
 8694SOL    HW227980   6.527   2.590  14.659
 8695SOL     OW27981  13.132  10.943   0.314
 8695SOL    HW127982  13.162  10.907   0.231
 8695SOL    HW227983  13.162  11.035   0.313
 8696SOL     OW27984  10.350   3.461  13.575
 8696SOL    HW127985  10.367   3.460  13.481
 8696SOL    HW227986  10.437   3.457  13.615
 8697SOL     OW27987  12.746   3.623  10.309
 8697SOL    HW127988  12.711   3.645  10.222
 8697SOL    HW227989  12.699   3.681  10.369
 8698SOL     OW27990   0.648   0.661   2.212
 8698SOL    HW127991   0.705   0.627   2.281
 8698SOL    HW227992   0.559   0.646   2.243
 8699SOL     OW27993   9.434   6.649  10.716
 8699SOL    HW127994   9.484   6.606  10.646
 8699SOL    HW227995   9.377   6.580  10.750
 8700SOL     OW27996  11.765  13.081   6.702
 8700SOL    HW127997  11.719  13.042   6.628
 8700SOL    HW227998  11.728  13.037   6.779
 8701SOL     OW27999   2.835  10.630   5.323
 8701SOL    HW128000   2.873  10.556   5.370
 8701SOL    HW228001   2.892  10.704   5.344
 8702SOL     OW28002   3.612   2.379   5.195
 8702SOL    HW128003   3.536   2.400   5.141
 8702SOL    HW228004   3.580   2.383   5.285
 8703SOL     OW28005   4.694   3.768  11.568
 8703SOL    HW128006   4.642   3.847  11.551
 8703SOL    HW228007   4.716   3.734  11.481
 8704SOL     OW28008  13.380  12.275   0.589
 8704SOL    HW128009  13.289  12.304   0.593
 8704SOL    HW228010  13.422  12.317   0.664
 8705SOL     OW28011   1.469   6.653  14.025
 8705SOL    HW128012   1.532   6.708  13.978
 8705SOL    HW228013   1.383   6.686  13.998
 8706SOL     OW28014   6.104   3.178   7.069
 8706SOL    HW128015   6.059   3.262   7.063
 8706SOL    HW228016   6.187   3.192   7.022
 8707SOL     OW28017  13.749  13.302   0.949
 8707SOL    HW128018  13.677  13.268   1.001
 8707SOL    HW228019  13.728  13.278   0.859
 8708SOL     OW28020   2.374   9.142   5.151
 8708SOL    HW128021   2.333   9.228   5.166
 8708SOL    HW228022   2.404   9.145   5.060
 8709SOL     OW28023   8.071  13.584   1.303
 8709SOL    HW128024   8.099  13.623   1.386
 8709SOL    HW228025   8.104  13.494   1.308
 8710SOL     OW28026   9.559  10.149   8.674
 8710SOL    HW128027   9.584  10.179   8.587
 8710SOL    HW228028   9.469  10.179   8.685
 8711SOL     OW28029   5.272  13.146   3.239
 8711SOL    HW128030   5.297  13.161   3.147
 8711SOL    HW228031   5.181  13.175   3.244
 8712SOL     OW28032   2.856  13.427   7.850
 8712SOL    HW128033   2.813  13.504   7.812
 8712SOL    HW228034   2.921  13.463   7.911
 8713SOL     OW28035  12.616  13.316   5.257
 8713SOL    HW128036  12.608  13.408   5.284
 8713SOL    HW228037  12.645  13.270   5.336
 8714SOL     OW28038   8.946   7.750   0.882
 8714SOL    HW128039   9.040   7.757   0.900
 8714SOL    HW228040   8.911   7.837   0.898
 8715SOL     OW28041   6.391   7.385  14.703
 8715SOL    HW128042   6.414   7.465  14.749
 8715SOL    HW228043   6.341   7.414  14.627
 8716SOL     OW28044   8.353   5.004  10.256
 8716SOL    HW128045   8.270   4.957  10.248
 8716SOL    HW228046   8.402   4.980  10.178
 8717SOL     OW28047   8.038   6.589  11.222
 8717SOL    HW128048   8.120   6.565  11.179
 8717SOL    HW228049   7.970   6.570  11.157
 8718SOL     OW28050   1.090  13.628  13.480
 8718SOL    HW128051   1.078  13.711  13.433
 8718SOL    HW228052   1.132  13.653  13.562
 8719SOL     OW28053  13.937   3.225  11.419
 8719SOL    HW128054  13.894   3.221  11.334
 8719SOL    HW228055  14.031   3.226  11.399
 8720SOL     OW28056   3.986   3.435  11.630
 8720SOL    HW128057   3.927   3.374  11.676
 8720SOL    HW228058   4.061   3.381  11.604
 8721SOL     OW28059  12.624   7.564   6.635
 8721SOL    HW128060  12.611   7.546   6.728
 8721SOL    HW228061  12.537   7.555   6.596
 8722SOL     OW28062  14.556  11.280   9.835
 8722SOL    HW128063  14.637  11.329   9.823
 8722SOL    HW228064  14.583  11.202   9.885
 8723SOL     OW28065   1.381   6.326   5.632
 8723SOL    HW128066   1.420   6.294   5.550
 8723SOL    HW228067   1.292   6.351   5.607
 8724SOL     OW28068   6.194   0.970  13.169
 8724SOL    HW128069   6.175   0.877  13.169
 8724SOL    HW228070   6.192   0.995  13.261
 8725SOL     OW28071  10.784   9.364   4.256
 8725SOL    HW128072  10.726   9.428   4.214
 8725SOL    HW228073  10.838   9.330   4.184
 8726SOL     OW28074  14.805  13.684   9.147
 8726SOL    HW128075   0.005  13.632   9.144
 8726SOL    HW228076  14.735  13.620   9.161
 8727SOL     OW28077   0.263  11.793   4.897
 8727SOL    HW128078   0.177  11.801   4.857
 8727SOL    HW228079   0.262  11.856   4.970
 8728SOL     OW28080   2.734  10.421   9.772
 8728SOL    HW128081   2.705  10.370   9.696
 8728SOL    HW228082   2.656  10.429   9.827
 8729SOL     OW28083   9.392  10.064   1.077
 8729SOL    HW128084   9.401  10.052   1.172
 8729SOL    HW228085   9.454  10.134   1.056
 8730SOL     OW28086   0.101  10.829   1.322
 8730SOL    HW128087   0.108  10.734   1.333
 8730SOL    HW228088   0.063  10.860   1.403
 8731SOL     OW28089   7.432   7.151  13.345
 8731SOL    HW128090   7.390   7.218  13.400
 8731SOL    HW228091   7.394   7.165  13.258
 8732SOL     OW28092   8.438   5.868  14.644
 8732SOL    HW128093   8.379   5.794  14.631
 8732SOL    HW228094   8.390   5.928  14.701
 8733SOL     OW28095  10.678   2.161   1.114
 8733SOL    HW128096  10.722   2.109   1.181
 8733SOL    HW228097  10.747   2.187   1.053
 8734SOL     OW28098   6.392   3.166  12.884
 8734SOL    HW128099   6.464   3.207  12.932
 8734SOL    HW228100   6.424   3.078  12.864
 8735SOL     OW28101  10.973  11.495  10.260
 8735SOL    HW128102  11.000  11.528  10.174
 8735SOL    HW228103  10.893  11.446  10.242
 8736SOL     OW28104   3.053   8.350   3.791
 8736SOL    HW128105   3.043   8.444   3.773
 8736SOL    HW228106   3.124   8.346   3.855
 8737SOL     OW28107   1.137  13.877   8.353
 8737SOL    HW128108   1.085  13.830   8.289
 8737SOL    HW228109   1.107  13.967   8.348
 8738SOL     OW28110   2.425   2.491  13.705
 8738SOL    HW128111   2.348   2.443  13.735
 8738SOL    HW228112   2.499   2.444  13.744
 8739SOL     OW28113  14.512   1.970   9.289
 8739SOL    HW128114  14.586   2.026   9.266
 8739SOL    HW228115  14.546   1.911   9.356
 8740SOL     OW28116  10.323   5.683   9.911
 8740SOL    HW128117  10.338   5.674  10.006
 8740SOL    HW228118  10.393   5.631   9.871
 8741SOL     OW28119  14.869   8.929  10.926
 8741SOL    HW128120   0.027   8.986  10.860
 8741SOL    HW228121  14.782   8.908  10.892
 8742SOL     OW28122   5.609  12.398   2.888
 8742SOL    HW128123   5.569  12.326   2.937
 8742SOL    HW228124   5.696  12.365   2.864
 8743SOL     OW28125  11.046  10.430  13.335
 8743SOL    HW128126  11.083  10.507  13.377
 8743SOL    HW228127  10.974  10.464  13.281
 8744SOL     OW28128   0.620  13.081   0.679
 8744SOL    HW128129   0.657  13.028   0.750
 8744SOL    HW228130   0.630  13.171   0.708
 8745SOL     OW28131  11.038  13.594  12.833
 8745SOL    HW128132  10.967  13.593  12.769
 8745SOL    HW228133  11.067  13.503  12.838
 8746SOL     OW28134   4.811  11.925   0.172
 8746SOL    HW128135   4.846  12.014   0.172
 8746SOL    HW228136   4.743  11.925   0.238
 8747SOL     OW28137   0.860   4.317   9.538
 8747SOL    HW128138   0.855   4.392   9.596
 8747SOL    HW228139   0.800   4.338   9.466
 8748SOL     OW28140   0.710   9.960   0.113
 8748SOL    HW128141   0.750   9.966   0.199
 8748SOL    HW228142   0.767   9.901   0.064
 8749SOL     OW28143  13.681   8.995   3.191
 8749SOL    HW128144  13.663   9.083   3.223
 8749SOL    HW228145  13.678   8.940   3.268
 8750SOL     OW28146   1.974   5.946  13.577
 8750SOL    HW128147   2.061   5.909  13.595
 8750SOL    HW228148   1.989   6.041  13.574
 8751SOL     OW28149   8.003  10.461   5.618
 8751SOL    HW128150   8.079  10.424   5.575
 8751SOL    HW228151   8.039  10.520   5.685
 8752SOL     OW28152   4.986   8.965   0.140
 8752SOL    HW128153   4.960   9.054   0.164
 8752SOL    HW228154   5.059   8.977   0.079
 8753SOL     OW28155   2.648   9.181   2.687
 8753SOL    HW128156   2.721   9.155   2.632
 8753SOL    HW228157   2.657   9.276   2.696
 8754SOL     OW28158   8.611   3.599   7.853
 8754SOL    HW128159   8.692   3.578   7.901
 8754SOL    HW228160   8.598   3.693   7.867
 8755SOL     OW28161   9.807   2.421   3.021
 8755SOL    HW128162   9.779   2.489   2.960
 8755SOL    HW228163   9.824   2.345   2.966
 8756SOL     OW28164   9.980  14.438   4.956
 8756SOL    HW128165   9.975  14.384   5.035
 8756SOL    HW228166  10.036  14.388   4.897
 8757SOL     OW28167   9.209   5.208   4.694
 8757SOL    HW128168   9.207   5.303   4.681
 8757SOL    HW228169   9.275   5.177   4.631
 8758SOL     OW28170   8.614   1.803   3.808
 8758SOL    HW128171   8.696   1.808   3.758
 8758SOL    HW228172   8.622   1.722   3.858
 8759SOL     OW28173  11.870   3.743  10.808
 8759SOL    HW128174  11.880   3.662  10.858
 8759SOL    HW228175  11.814   3.798  10.863
 8760SOL     OW28176   1.478  13.872   7.241
 8760SOL    HW128177   1.444  13.881   7.329
 8760SOL    HW228178   1.568  13.906   7.246
 8761SOL     OW28179   6.217  10.418   4.768
 8761SOL    HW128180   6.251  10.455   4.850
 8761SOL    HW228181   6.248  10.478   4.700
 8762SOL     OW28182   3.726   8.117   6.576
 8762SOL    HW128183   3.646   8.065   6.575
 8762SOL    HW228184   3.768   8.095   6.659
 8763SOL     OW28185   9.780  12.937  10.566
 8763SOL    HW128186   9.807  12.853  10.603
 8763SOL    HW228187   9.854  12.996  10.581
 8764SOL     OW28188   1.452   8.909  11.786
 8764SOL    HW128189   1.394   8.985  11.778
 8764SOL    HW228190   1.395   8.834  11.766
 8765SOL     OW28191   6.672  11.137   1.404
 8765SOL    HW128192   6.579  11.157   1.418
 8765SOL    HW228193   6.709  11.136   1.493
 8766SOL     OW28194   3.547   3.883  14.513
 8766SOL    HW128195   3.567   3.929  14.595
 8766SOL    HW228196   3.512   3.799  14.541
 8767SOL     OW28197   2.621   3.494   9.491
 8767SOL    HW128198   2.699   3.480   9.544
 8767SOL    HW228199   2.548   3.467   9.547
 8768SOL     OW28200   1.423   4.420   3.053
 8768SOL    HW128201   1.437   4.380   3.139
 8768SOL    HW228202   1.511   4.433   3.017
 8769SOL     OW28203  13.552   3.757  13.049
 8769SOL    HW128204  13.626   3.808  13.015
 8769SOL    HW228205  13.478   3.817  13.043
 8770SOL     OW28206   0.185   6.073   5.552
 8770SOL    HW128207   0.190   6.081   5.457
 8770SOL    HW228208   0.238   6.146   5.585
 8771SOL     OW28209   3.827   7.922  10.383
 8771SOL    HW128210   3.769   7.972  10.326
 8771SOL    HW228211   3.902   7.901  10.328
 8772SOL     OW28212   1.239  12.038  12.247
 8772SOL    HW128213   1.154  12.052  12.287
 8772SOL    HW228214   1.265  11.950  12.274
 8773SOL     OW28215   7.871   5.262   2.047
 8773SOL    HW128216   7.849   5.223   2.132
 8773SOL    HW228217   7.809   5.221   1.986
 8774SOL     OW28218  11.688   7.494   8.445
 8774SOL    HW128219  11.626   7.478   8.374
 8774SOL    HW228220  11.633   7.514   8.521
 8775SOL     OW28221   3.635   1.798   9.396
 8775SOL    HW128222   3.569   1.735   9.423
 8775SOL    HW228223   3.600   1.838   9.317
 8776SOL     OW28224   2.697   0.725   4.897
 8776SOL    HW128225   2.675   0.786   4.826
 8776SOL    HW228226   2.777   0.760   4.934
 8777SOL     OW28227  11.351  14.159   3.995
 8777SOL    HW128228  11.447  14.158   3.997
 8777SOL    HW228229  11.326  14.190   4.082
 8778SOL     OW28230   6.520  11.832   8.959
 8778SOL    HW128231   6.516  11.857   9.051
 8778SOL    HW228232   6.599  11.877   8.926
 8779SOL     OW28233   0.406   7.933   3.578
 8779SOL    HW128234   0.342   7.866   3.554
 8779SOL    HW228235   0.357   8.015   3.574
 8780SOL     OW28236   1.133   6.735   0.312
 8780SOL    HW128237   1.045   6.699   0.320
 8780SOL    HW228238   1.180   6.700   0.387
 8781SOL     OW28239   0.028   6.377   8.769
 8781SOL    HW128240   0.066   6.383   8.682
 8781SOL    HW228241   0.065   6.296   8.806
 8782SOL     OW28242   0.058   5.111  10.919
 8782SOL    HW128243  14.864   5.071  10.965
 8782SOL    HW228244   0.090   5.041  10.862
 8783SOL     OW28245   6.366  13.965   6.309
 8783SOL    HW128246   6.401  13.908   6.240
 8783SOL    HW228247   6.367  13.910   6.387
 8784SOL     OW28248  13.132   6.951   8.067
 8784SOL    HW128249  13.038   6.939   8.079
 8784SOL    HW228250  13.166   6.960   8.156
 8785SOL     OW28251   6.580   9.229   8.611
 8785SOL    HW128252   6.570   9.306   8.554
 8785SOL    HW228253   6.632   9.168   8.559
 8786SOL     OW28254   7.807   4.701   5.212
 8786SOL    HW128255   7.874   4.654   5.262
 8786SOL    HW228256   7.748   4.737   5.278
 8787SOL     OW28257   4.766   6.179  10.377
 8787SOL    HW128258   4.786   6.257  10.429
 8787SOL    HW228259   4.681   6.150  10.407
 8788SOL     OW28260   8.633  14.392   9.120
 8788SOL    HW128261   8.617  14.330   9.049
 8788SOL    HW228262   8.704  14.352   9.170
 8789SOL     OW28263   9.129  13.441   9.951
 8789SOL    HW128264   9.044  13.485   9.953
 8789SOL    HW228265   9.119  13.371   9.887
 8790SOL     OW28266  13.799   7.710   0.115
 8790SOL    HW128267  13.769   7.649   0.047
 8790SOL    HW228268  13.799   7.658   0.195
 8791SOL     OW28269  13.795   0.563   9.946
 8791SOL    HW128270  13.824   0.604   9.865
 8791SOL    HW228271  13.841   0.610  10.015
 8792SOL     OW28272   5.860   0.771   2.808
 8792SOL    HW128273   5.884   0.860   2.835
 8792SOL    HW228274   5.789   0.783   2.745
 8793SOL     OW28275   4.509  13.410   1.082
 8793SOL    HW128276   4.533  13.441   0.995
 8793SOL    HW228277   4.422  13.371   1.071
 8794SOL     OW28278  12.668   2.898   0.329
 8794SOL    HW128279  12.705   2.979   0.295
 8794SOL    HW228280  12.686   2.833   0.260
 8795SOL     OW28281   1.508   7.437  11.849
 8795SOL    HW128282   1.484   7.529  11.841
 8795SOL    HW228283   1.603   7.436  11.840
 8796SOL     OW28284   4.826   7.689   4.372
 8796SOL    HW128285   4.734   7.707   4.354
 8796SOL    HW228286   4.871   7.771   4.352
 8797SOL     OW28287   8.930   6.084   6.570
 8797SOL    HW128288   8.955   5.999   6.534
 8797SOL    HW228289   8.943   6.146   6.499
 8798SOL     OW28290   2.518   7.662   1.170
 8798SOL    HW128291   2.607   7.685   1.199
 8798SOL    HW228292   2.480   7.745   1.142
 8799SOL     OW28293  13.511  14.830  10.533
 8799SOL    HW128294  13.456  14.828  10.454
 8799SOL    HW228295  13.599  14.846  10.500
 8800SOL     OW28296  11.216   0.204  11.880
 8800SOL    HW128297  11.183   0.237  11.964
 8800SOL    HW228298  11.159   0.245  11.815
 8801SOL     OW28299   0.856   9.725   6.280
 8801SOL    HW128300   0.901   9.720   6.364
 8801SOL    HW228301   0.899   9.797   6.233
 8802SOL     OW28302  13.963   9.450   9.337
 8802SOL    HW128303  13.921   9.522   9.290
 8802SOL    HW228304  14.042   9.489   9.374
 8803SOL     OW28305   8.331  12.520  14.349
 8803SOL    HW128306   8.299  12.589  14.291
 8803SOL    HW228307   8.276  12.527  14.428
 8804SOL     OW28308  10.228  12.718   3.000
 8804SOL    HW128309  10.176  12.640   3.019
 8804SOL    HW228310  10.177  12.790   3.037
 8805SOL     OW28311   8.383  13.265   6.320
 8805SOL    HW128312   8.317  13.234   6.382
 8805SOL    HW228313   8.360  13.221   6.238
 8806SOL     OW28314   5.348  12.044   0.820
 8806SOL    HW128315   5.326  12.137   0.824
 8806SOL    HW228316   5.326  12.018   0.731
 8807SOL     OW28317   9.140   2.701   6.291
 8807SOL    HW128318   9.053   2.740   6.290
 8807SOL    HW228319   9.126   2.610   6.264
 8808SOL     OW28320   3.977  14.718   9.625
 8808SOL    HW128321   3.973  14.809   9.597
 8808SOL    HW228322   4.070  14.694   9.618
 8809SOL     OW28323   7.071  10.725   7.036
 8809SOL    HW128324   7.039  10.636   7.019
 8809SOL    HW228325   6.998  10.782   7.012
 8810SOL     OW28326   0.976  11.888   4.491
 8810SOL    HW128327   0.956  11.961   4.433
 8810SOL    HW228328   0.962  11.810   4.438
 8811SOL     OW28329  13.859   5.673   7.107
 8811SOL    HW128330  13.936   5.729   7.104
 8811SOL    HW228331  13.894   5.584   7.101
 8812SOL     OW28332   8.359  13.480   2.189
 8812SOL    HW128333   8.449  13.467   2.220
 8812SOL    HW228334   8.308  13.491   2.269
 8813SOL     OW28335   0.181  11.241  12.131
 8813SOL    HW128336   0.177  11.335  12.144
 8813SOL    HW228337   0.097  11.218  12.091
 8814SOL     OW28338  11.306   9.168   5.598
 8814SOL    HW128339  11.290   9.161   5.692
 8814SOL    HW228340  11.248   9.239   5.569
 8815SOL     OW28341   9.311   7.880  10.109
 8815SOL    HW128342   9.356   7.822  10.048
 8815SOL    HW228343   9.342   7.967  10.086
 8816SOL     OW28344   8.168  11.683  11.913
 8816SOL    HW128345   8.204  11.597  11.937
 8816SOL    HW228346   8.226  11.715  11.844
 8817SOL     OW28347   7.609   5.762  11.676
 8817SOL    HW128348   7.655   5.696  11.728
 8817SOL    HW228349   7.531   5.718  11.643
 8818SOL     OW28350   4.794   2.024   5.594
 8818SOL    HW128351   4.855   2.027   5.520
 8818SOL    HW228352   4.820   2.097   5.650
 8819SOL     OW28353  11.384  13.521  10.752
 8819SOL    HW128354  11.373  13.444  10.807
 8819SOL    HW228355  11.343  13.498  10.669
 8820SOL     OW28356   8.237  14.784  12.371
 8820SOL    HW128357   8.280  14.763  12.288
 8820SOL    HW228358   8.167  14.719  12.379
 8821SOL     OW28359   8.005   7.996   9.566
 8821SOL    HW128360   8.036   8.072   9.615
 8821SOL    HW228361   7.912   7.989   9.587
 8822SOL     OW28362   3.910  14.677   3.668
 8822SOL    HW128363   3.872  14.751   3.715
 8822SOL    HW228364   4.003  14.701   3.658
 8823SOL     OW28365   4.957   1.043  14.113
 8823SOL    HW128366   4.966   1.070  14.205
 8823SOL    HW228367   5.021   0.973  14.102
 8824SOL     OW28368   7.362   5.473  14.065
 8824SOL    HW128369   7.377   5.522  14.145
 8824SOL    HW228370   7.445   5.428  14.048
 8825SOL     OW28371   9.666  13.990   9.747
 8825SOL    HW128372   9.602  13.925   9.776
 8825SOL    HW228373   9.700  13.955   9.665
 8826SOL     OW28374   3.319  10.890   4.690
 8826SOL    HW128375   3.228  10.875   4.663
 8826SOL    HW228376   3.371  10.848   4.622
 8827SOL     OW28377   7.831  14.472   5.619
 8827SOL    HW128378   7.863  14.474   5.710
 8827SOL    HW228379   7.736  14.469   5.627
 8828SOL     OW28380   0.714   6.919   1.417
 8828SOL    HW128381   0.750   6.873   1.493
 8828SOL    HW228382   0.790   6.964   1.379
 8829SOL     OW28383   6.963  12.232   1.456
 8829SOL    HW128384   6.993  12.287   1.384
 8829SOL    HW228385   6.961  12.144   1.419
 8830SOL     OW28386   0.679   2.207  14.070
 8830SOL    HW128387   0.771   2.185  14.083
 8830SOL    HW228388   0.637   2.186  14.153
 8831SOL     OW28389   4.873   6.186   0.056
 8831SOL    HW128390   4.930   6.190  14.860
 8831SOL    HW228391   4.848   6.276   0.073
 8832SOL     OW28392   4.549   1.779   3.176
 8832SOL    HW128393   4.579   1.765   3.265
 8832SOL    HW228394   4.546   1.692   3.137
 8833SOL     OW28395  11.972  14.465   6.945
 8833SOL    HW128396  11.887  14.501   6.917
 8833SOL    HW228397  12.034  14.535   6.929
 8834SOL     OW28398  13.200  14.066   6.508
 8834SOL    HW128399  13.241  14.138   6.556
 8834SOL    HW228400  13.223  13.988   6.559
 8835SOL     OW28401   3.922   7.088   5.187
 8835SOL    HW128402   3.984   7.154   5.219
 8835SOL    HW228403   3.971   7.039   5.121
 8836SOL     OW28404   1.156  14.849   3.008
 8836SOL    HW128405   1.175  14.806   2.925
 8836SOL    HW228406   1.239   0.007   3.034
 8837SOL     OW28407  11.573   9.580  13.475
 8837SOL    HW128408  11.579   9.549  13.385
 8837SOL    HW228409  11.659   9.562  13.513
 8838SOL     OW28410  12.672   4.042  14.088
 8838SOL    HW128411  12.686   4.078  14.176
 8838SOL    HW228412  12.745   4.075  14.036
 8839SOL     OW28413   8.758   3.935   9.860
 8839SOL    HW128414   8.756   3.894   9.774
 8839SOL    HW228415   8.668   3.968   9.872
 8840SOL     OW28416  14.476   8.101  13.358
 8840SOL    HW128417  14.384   8.126  13.357
 8840SOL    HW228418  14.479   8.020  13.409
 8841SOL     OW28419  10.504   1.072   6.565
 8841SOL    HW128420  10.586   1.066   6.516
 8841SOL    HW228421  10.435   1.058   6.500
 8842SOL     OW28422  12.059   8.016  12.895
 8842SOL    HW128423  11.992   7.949  12.909
 8842SOL    HW228424  12.127   7.994  12.959
 8843SOL     OW28425   4.939   7.765  10.902
 8843SOL    HW128426   4.947   7.860  10.891
 8843SOL    HW228427   4.850   7.752  10.936
 8844SOL     OW28428   9.889  13.528   7.983
 8844SOL    HW128429   9.855  13.460   8.041
 8844SOL    HW228430   9.972  13.493   7.950
 8845SOL     OW28431   0.786   3.997   5.741
 8845SOL    HW128432   0.716   4.034   5.687
 8845SOL    HW228433   0.800   3.910   5.705
 8846SOL     OW28434  13.254   6.741   7.951
 8846SOL    HW128435  13.247   6.825   7.996
 8846SOL    HW228436  13.163   6.711   7.941
 8847SOL     OW28437   6.921  14.318   3.399
 8847SOL    HW128438   6.941  14.224   3.398
 8847SOL    HW228439   6.910  14.339   3.492
 8848SOL     OW28440   5.718  12.339  12.066
 8848SOL    HW128441   5.629  12.303  12.062
 8848SOL    HW228442   5.770  12.270  12.106
 8849SOL     OW28443   2.197  12.130   5.435
 8849SOL    HW128444   2.251  12.089   5.368
 8849SOL    HW228445   2.214  12.224   5.425
 8850SOL     OW28446   6.838  13.729   0.832
 8850SOL    HW128447   6.743  13.714   0.830
 8850SOL    HW228448   6.853  13.792   0.761
 8851SOL     OW28449   1.523   1.354   5.116
 8851SOL    HW128450   1.528   1.335   5.022
 8851SOL    HW228451   1.554   1.444   5.124
 8852SOL     OW28452   7.261   7.454   6.682
 8852SOL    HW128453   7.241   7.384   6.619
 8852SOL    HW228454   7.194   7.445   6.750
 8853SOL     OW28455  10.696  11.201  12.218
 8853SOL    HW128456  10.751  11.149  12.160
 8853SOL    HW228457  10.690  11.148  12.298
 8854SOL     OW28458   7.405   2.140   6.171
 8854SOL    HW128459   7.497   2.126   6.147
 8854SOL    HW228460   7.364   2.055   6.157
 8855SOL     OW28461   0.767   0.432   3.855
 8855SOL    HW128462   0.737   0.500   3.916
 8855SOL    HW228463   0.744   0.350   3.898
 8856SOL     OW28464   0.909   1.847   6.988
 8856SOL    HW128465   0.994   1.890   6.987
 8856SOL    HW228466   0.863   1.881   6.911
 8857SOL     OW28467   8.109   4.830  11.973
 8857SOL    HW128468   8.177   4.763  11.982
 8857SOL    HW228469   8.028   4.787  11.999
 8858SOL     OW28470   3.228  11.796   3.685
 8858SOL    HW128471   3.275  11.805   3.769
 8858SOL    HW228472   3.222  11.701   3.672
 8859SOL     OW28473   3.791   5.131   4.418
 8859SOL    HW128474   3.743   5.138   4.335
 8859SOL    HW228475   3.855   5.061   4.403
 8860SOL     OW28476   4.862  11.607  10.993
 8860SOL    HW128477   4.886  11.620  11.084
 8860SOL    HW228478   4.901  11.680  10.946
 8861SOL     OW28479   3.825   7.268  10.535
 8861SOL    HW128480   3.836   7.363  10.535
 8861SOL    HW228481   3.731   7.255  10.545
 8862SOL     OW28482   9.440   1.417   1.854
 8862SOL    HW128483   9.523   1.383   1.818
 8862SOL    HW228484   9.424   1.498   1.805
 8863SOL     OW28485   9.579   0.499   0.164
 8863SOL    HW128486   9.618   0.444   0.096
 8863SOL    HW228487   9.640   0.495   0.237
 8864SOL     OW28488   3.408  11.320   1.742
 8864SOL    HW128489   3.385  11.400   1.788
 8864SOL    HW228490   3.467  11.348   1.672
 8865SOL     OW28491  14.707  11.083   8.179
 8865SOL    HW128492  14.749  11.001   8.152
 8865SOL    HW228493  14.759  11.114   8.253
 8866SOL     OW28494   8.205   6.244   3.658
 8866SOL    HW128495   8.254   6.307   3.606
 8866SOL    HW228496   8.120   6.238   3.614
 8867SOL     OW28497  14.697   5.979   9.409
 8867SOL    HW128498  14.725   5.943   9.493
 8867SOL    HW228499  14.667   6.067   9.430
 8868SOL     OW28500   3.165  10.174   1.728
 8868SOL    HW128501   3.174  10.201   1.636
 8868SOL    HW228502   3.120  10.090   1.724
 8869SOL     OW28503   1.629   5.325  10.800
 8869SOL    HW128504   1.573   5.384  10.851
 8869SOL    HW228505   1.568   5.266  10.757
 8870SOL     OW28506  13.061   8.439   9.243
 8870SOL    HW128507  13.073   8.510   9.305
 8870SOL    HW228508  13.002   8.378   9.288
 8871SOL     OW28509   6.007   5.632   9.659
 8871SOL    HW128510   5.924   5.584   9.662
 8871SOL    HW228511   5.992   5.705   9.599
 8872SOL     OW28512   0.639   8.806  12.368
 8872SOL    HW128513   0.638   8.793  12.463
 8872SOL    HW228514   0.651   8.900  12.356
 8873SOL     OW28515   2.317   8.089   5.041
 8873SOL    HW128516   2.319   8.074   4.947
 8873SOL    HW228517   2.351   8.008   5.079
 8874SOL     OW28518   5.136  14.150  14.261
 8874SOL    HW128519   5.065  14.160  14.198
 8874SOL    HW228520   5.115  14.069  14.308
 8875SOL     OW28521  13.721   2.586   9.747
 8875SOL    HW128522  13.691   2.509   9.698
 8875SOL    HW228523  13.718   2.559   9.839
 8876SOL     OW28524  13.112   8.861  11.099
 8876SOL    HW128525  13.174   8.926  11.065
 8876SOL    HW228526  13.026   8.902  11.088
 8877SOL     OW28527   6.531   8.089  10.468
 8877SOL    HW128528   6.595   8.150  10.430
 8877SOL    HW228529   6.539   8.010  10.414
 8878SOL     OW28530   7.783  14.213  14.682
 8878SOL    HW128531   7.754  14.122  14.680
 8878SOL    HW228532   7.715  14.262  14.636
 8879SOL     OW28533   9.251  11.020   2.178
 8879SOL    HW128534   9.164  11.032   2.217
 8879SOL    HW228535   9.278  11.108   2.152
 8880SOL     OW28536  13.404   3.476   5.568
 8880SOL    HW128537  13.406   3.462   5.663
 8880SOL    HW228538  13.461   3.408   5.533
 8881SOL     OW28539   2.999   1.115   4.164
 8881SOL    HW128540   2.999   1.143   4.073
 8881SOL    HW228541   2.971   1.192   4.213
 8882SOL     OW28542   9.528  10.016   4.967
 8882SOL    HW128543   9.485  10.070   5.032
 8882SOL    HW228544   9.469   9.942   4.954
 8883SOL     OW28545   6.511   8.544   5.715
 8883SOL    HW128546   6.457   8.480   5.669
 8883SOL    HW228547   6.448   8.599   5.761
 8884SOL     OW28548   0.436   5.645   4.856
 8884SOL    HW128549   0.450   5.736   4.884
 8884SOL    HW228550   0.342   5.632   4.864
 8885SOL     OW28551  12.814  13.488  14.275
 8885SOL    HW128552  12.757  13.446  14.340
 8885SOL    HW228553  12.813  13.428  14.200
 8886SOL     OW28554   8.337   2.830   9.610
 8886SOL    HW128555   8.293   2.911   9.636
 8886SOL    HW228556   8.416   2.859   9.563
 8887SOL     OW28557   2.311   8.537  11.356
 8887SOL    HW128558   2.279   8.608  11.412
 8887SOL    HW228559   2.323   8.463  11.416
 8888SOL     OW28560  12.995   0.728   8.136
 8888SOL    HW128561  12.902   0.745   8.154
 8888SOL    HW228562  12.995   0.645   8.088
 8889SOL     OW28563  13.088   7.304  12.972
 8889SOL    HW128564  13.047   7.316  13.057
 8889SOL    HW228565  13.036   7.237  12.929
 8890SOL     OW28566  12.839  12.387   7.696
 8890SOL    HW128567  12.934  12.371   7.692
 8890SOL    HW228568  12.832  12.480   7.720
 8891SOL     OW28569   1.875   0.764  12.868
 8891SOL    HW128570   1.942   0.822  12.831
 8891SOL    HW228571   1.814   0.747  12.796
 8892SOL     OW28572   1.277   6.746   4.830
 8892SOL    HW128573   1.204   6.788   4.876
 8892SOL    HW228574   1.310   6.814   4.771
 8893SOL     OW28575   9.523   5.497   6.011
 8893SOL    HW128576   9.457   5.439   5.974
 8893SOL    HW228577   9.503   5.501   6.105
 8894SOL     OW28578   0.596  14.294   7.018
 8894SOL    HW128579   0.573  14.212   6.974
 8894SOL    HW228580   0.601  14.271   7.111
 8895SOL     OW28581   2.761  12.775   7.809
 8895SOL    HW128582   2.703  12.806   7.878
 8895SOL    HW228583   2.838  12.831   7.815
 8896SOL     OW28584   6.599   1.762   4.193
 8896SOL    HW128585   6.643   1.767   4.278
 8896SOL    HW228586   6.573   1.852   4.173
 8897SOL     OW28587  10.129  14.200   0.161
 8897SOL    HW128588  10.210  14.227   0.204
 8897SOL    HW228589  10.158  14.151   0.084
 8898SOL     OW28590  14.500  11.167  13.135
 8898SOL    HW128591  14.572  11.105  13.140
 8898SOL    HW228592  14.448  11.150  13.214
 8899SOL     OW28593   9.798   1.689   0.476
 8899SOL    HW128594   9.746   1.624   0.429
 8899SOL    HW228595   9.876   1.701   0.421
 8900SOL     OW28596  13.501   4.800  12.249
 8900SOL    HW128597  13.489   4.879  12.197
 8900SOL    HW228598  13.561   4.826  12.319
 8901SOL     OW28599  13.214   1.384   2.271
 8901SOL    HW128600  13.188   1.294   2.291
 8901SOL    HW228601  13.211   1.389   2.176
 8902SOL     OW28602   2.666  14.074  11.739
 8902SOL    HW128603   2.747  14.119  11.714
 8902SOL    HW228604   2.640  14.025  11.660
 8903SOL     OW28605  12.771   2.810   1.559
 8903SOL    HW128606  12.734   2.835   1.474
 8903SOL    HW228607  12.726   2.728   1.581
 8904SOL     OW28608   4.265   1.410   7.099
 8904SOL    HW128609   4.330   1.465   7.054
 8904SOL    HW228610   4.318   1.344   7.144
 8905SOL     OW28611  10.729  11.850   8.403
 8905SOL    HW128612  10.640  11.830   8.375
 8905SOL    HW228613  10.755  11.774   8.455
 8906SOL     OW28614   1.010  11.047  10.064
 8906SOL    HW128615   1.021  11.037   9.969
 8906SOL    HW228616   1.082  10.995  10.101
 8907SOL     OW28617   1.191   7.739   1.485
 8907SOL    HW128618   1.139   7.713   1.561
 8907SOL    HW228619   1.153   7.823   1.458
 8908SOL     OW28620  10.447   3.194  11.468
 8908SOL    HW128621  10.476   3.257  11.402
 8908SOL    HW228622  10.363   3.229  11.499
 8909SOL     OW28623   4.027   5.743  11.809
 8909SOL    HW128624   3.981   5.823  11.784
 8909SOL    HW228625   3.959   5.675  11.808
 8910SOL     OW28626  10.435  11.648  10.984
 8910SOL    HW128627  10.488  11.707  10.931
 8910SOL    HW228628  10.345  11.671  10.964
 8911SOL     OW28629   5.921  14.526   2.076
 8911SOL    HW128630   5.842  14.539   2.129
 8911SOL    HW228631   5.938  14.612   2.037
 8912SOL     OW28632   4.877   0.312  10.505
 8912SOL    HW128633   4.805   0.343  10.450
 8912SOL    HW228634   4.954   0.358  10.472
 8913SOL     OW28635  10.888   0.184  13.776
 8913SOL    HW128636  10.954   0.133  13.823
 8913SOL    HW228637  10.808   0.131  13.780
 8914SOL     OW28638   4.178  12.662   0.185
 8914SOL    HW128639   4.259  12.708   0.206
 8914SOL    HW228640   4.164  12.680   0.093
 8915SOL     OW28641   7.545   1.096  14.170
 8915SOL    HW128642   7.587   1.042  14.103
 8915SOL    HW228643   7.452   1.074  14.165
 8916SOL     OW28644  11.557   9.513   8.308
 8916SOL    HW128645  11.630   9.479   8.361
 8916SOL    HW228646  11.585   9.601   8.282
 8917SOL     OW28647  12.938   5.185   4.268
 8917SOL    HW128648  12.942   5.148   4.180
 8917SOL    HW228649  13.009   5.250   4.271
 8918SOL     OW28650  11.672   2.149   4.266
 8918SOL    HW128651  11.698   2.136   4.358
 8918SOL    HW228652  11.705   2.071   4.221
 8919SOL     OW28653   7.381   6.950   7.441
 8919SOL    HW128654   7.334   7.008   7.380
 8919SOL    HW228655   7.373   6.863   7.402
 8920SOL     OW28656   3.168   3.536   5.383
 8920SOL    HW128657   3.184   3.551   5.289
 8920SOL    HW228658   3.133   3.447   5.387
 8921SOL     OW28659  14.227  14.161   6.435
 8921SOL    HW128660  14.133  14.163   6.417
 8921SOL    HW228661  14.259  14.244   6.401
 8922SOL     OW28662   7.913  13.278   4.121
 8922SOL    HW128663   7.895  13.337   4.195
 8922SOL    HW228664   7.973  13.212   4.157
 8923SOL     OW28665  11.708   3.831   9.771
 8923SOL    HW128666  11.766   3.776   9.718
 8923SOL    HW228667  11.706   3.788   9.856
 8924SOL     OW28668  10.720  11.914  13.566
 8924SOL    HW128669  10.808  11.892  13.535
 8924SOL    HW228670  10.686  11.832  13.602
 8925SOL     OW28671  14.329  12.138   9.380
 8925SOL    HW128672  14.273  12.203   9.422
 8925SOL    HW228673  14.417  12.156   9.413
 8926SOL     OW28674  12.524   3.171   7.746
 8926SOL    HW128675  12.612   3.193   7.715
 8926SOL    HW228676  12.465   3.206   7.680
 8927SOL     OW28677  10.316  10.346  14.635
 8927SOL    HW128678  10.384  10.387  14.688
 8927SOL    HW228679  10.353  10.342  14.547
 8928SOL     OW28680   8.933  10.198   4.952
 8928SOL    HW128681   8.895  10.162   4.872
 8928SOL    HW228682   8.972  10.281   4.924
 8929SOL     OW28683   7.951  11.676   5.044
 8929SOL    HW128684   7.967  11.724   4.963
 8929SOL    HW228685   8.021  11.703   5.102
 8930SOL     OW28686  10.484   8.003   3.087
 8930SOL    HW128687  10.544   7.969   3.153
 8930SOL    HW228688  10.404   7.951   3.098
 8931SOL     OW28689   5.895   3.251   0.867
 8931SOL    HW128690   5.954   3.175   0.859
 8931SOL    HW228691   5.905   3.280   0.957
 8932SOL     OW28692  12.407   9.135   1.592
 8932SOL    HW128693  12.462   9.080   1.536
 8932SOL    HW228694  12.458   9.215   1.606
 8933SOL     OW28695   4.301   1.343  14.549
 8933SOL    HW128696   4.236   1.404  14.515
 8933SOL    HW228697   4.347   1.392  14.618
 8934SOL     OW28698   0.668   2.830   4.003
 8934SOL    HW128699   0.681   2.924   3.989
 8934SOL    HW228700   0.573   2.819   4.010
 8935SOL     OW28701   1.572   9.660   7.634
 8935SOL    HW128702   1.636   9.659   7.563
 8935SOL    HW228703   1.571   9.570   7.667
 8936SOL     OW28704   9.008  11.371   7.338
 8936SOL    HW128705   8.929  11.366   7.392
 8936SOL    HW228706   9.057  11.291   7.360
 8937SOL     OW28707   8.404  14.808  14.343
 8937SOL    HW128708   8.409   0.021  14.321
 8937SOL    HW228709   8.460  14.766  14.277
 8938SOL     OW28710   3.505   3.054   9.206
 8938SOL    HW128711   3.439   3.097   9.152
 8938SOL    HW228712   3.507   2.964   9.174
 8939SOL     OW28713  11.428   3.247   8.346
 8939SOL    HW128714  11.501   3.290   8.300
 8939SOL    HW228715  11.469   3.178   8.397
 8940SOL     OW28716   3.127   5.474   7.697
 8940SOL    HW128717   3.049   5.531   7.697
 8940SOL    HW228718   3.145   5.459   7.604
 8941SOL     OW28719   2.423   6.282   9.883
 8941SOL    HW128720   2.485   6.329   9.939
 8941SOL    HW228721   2.477   6.249   9.811
 8942SOL     OW28722   4.563   8.893   7.587
 8942SOL    HW128723   4.477   8.930   7.567
 8942SOL    HW228724   4.572   8.819   7.527
 8943SOL     OW28725  14.612   8.234   4.383
 8943SOL    HW128726  14.662   8.262   4.459
 8943SOL    HW228727  14.604   8.312   4.329
 8944SOL     OW28728   0.343  13.594   9.031
 8944SOL    HW128729   0.361  13.662   8.965
 8944SOL    HW228730   0.250  13.605   9.051
 8945SOL     OW28731   7.172   3.844   5.109
 8945SOL    HW128732   7.190   3.815   5.198
 8945SOL    HW228733   7.104   3.911   5.118
 8946SOL     OW28734  11.125   2.190   0.223
 8946SOL    HW128735  11.215   2.197   0.191
 8946SOL    HW228736  11.127   2.230   0.310
 8947SOL     OW28737  13.564  14.209  13.127
 8947SOL    HW128738  13.480  14.237  13.092
 8947SOL    HW228739  13.621  14.202  13.050
 8948SOL     OW28740   7.395  14.170  14.034
 8948SOL    HW128741   7.456  14.096  14.040
 8948SOL    HW228742   7.362  14.166  13.944
 8949SOL     OW28743  12.951   7.010   1.833
 8949SOL    HW128744  12.948   7.083   1.772
 8949SOL    HW228745  12.891   6.945   1.796
 8950SOL     OW28746  13.323   2.040   3.117
 8950SOL    HW128747  13.373   2.100   3.062
 8950SOL    HW228748  13.269   1.990   3.055
 8951SOL     OW28749   4.094   4.907   9.892
 8951SOL    HW128750   4.089   4.813   9.877
 8951SOL    HW228751   4.054   4.946   9.815
 8952SOL     OW28752   8.793   6.571   5.182
 8952SOL    HW128753   8.707   6.547   5.218
 8952SOL    HW228754   8.811   6.657   5.221
 8953SOL     OW28755   4.098   1.665   8.181
 8953SOL    HW128756   4.191   1.640   8.183
 8953SOL    HW228757   4.069   1.656   8.271
 8954SOL     OW28758   5.701   3.317   6.784
 8954SOL    HW128759   5.648   3.394   6.762
 8954SOL    HW228760   5.679   3.253   6.716
 8955SOL     OW28761   7.178   5.858   1.997
 8955SOL    HW128762   7.234   5.868   2.073
 8955SOL    HW228763   7.135   5.774   2.010
 8956SOL     OW28764  13.591   4.546   6.796
 8956SOL    HW128765  13.619   4.529   6.707
 8956SOL    HW228766  13.663   4.514   6.851
 8957SOL     OW28767  12.543   0.391  13.575
 8957SOL    HW128768  12.477   0.329  13.605
 8957SOL    HW228769  12.571   0.437  13.654
 8958SOL     OW28770  10.000   9.720  12.543
 8958SOL    HW128771   9.911   9.687  12.530
 8958SOL    HW228772  10.004   9.800  12.490
 8959SOL     OW28773   4.039   8.251   6.184
 8959SOL    HW128774   3.963   8.226   6.130
 8959SOL    HW228775   4.003   8.258   6.273
 8960SOL     OW28776  13.972   4.735   8.632
 8960SOL    HW128777  13.908   4.720   8.701
 8960SOL    HW228778  14.051   4.763   8.678
 8961SOL     OW28779   3.808   2.947  12.264
 8961SOL    HW128780   3.903   2.936  12.263
 8961SOL    HW228781   3.777   2.882  12.328
 8962SOL     OW28782   0.889   3.374   8.931
 8962SOL    HW128783   0.814   3.432   8.916
 8962SOL    HW228784   0.965   3.431   8.925
 8963SOL     OW28785   8.210   5.928   7.936
 8963SOL    HW128786   8.235   5.841   7.903
 8963SOL    HW228787   8.282   5.953   7.994
 8964SOL     OW28788  13.687   1.359   4.718
 8964SOL    HW128789  13.679   1.304   4.640
 8964SOL    HW228790  13.631   1.316   4.783
 8965SOL     OW28791  12.374   0.185  11.421
 8965SOL    HW128792  12.351   0.217  11.508
 8965SOL    HW228793  12.290   0.158  11.383
 8966SOL     OW28794   2.066  12.119   9.225
 8966SOL    HW128795   2.022  12.148   9.145
 8966SOL    HW228796   2.061  12.194   9.284
 8967SOL     OW28797   5.040   0.063  11.985
 8967SOL    HW128798   5.033   0.072  12.081
 8967SOL    HW228799   5.098   0.135  11.959
 8968SOL     OW28800   7.829   5.820   8.541
 8968SOL    HW128801   7.848   5.761   8.614
 8968SOL    HW228802   7.813   5.763   8.466
 8969SOL     OW28803   6.204   3.668  12.596
 8969SOL    HW128804   6.185   3.652  12.503
 8969SOL    HW228805   6.296   3.647  12.606
 8970SOL     OW28806   5.913  13.185   9.963
 8970SOL    HW128807   5.925  13.105   9.912
 8970SOL    HW228808   5.856  13.240   9.910
 8971SOL     OW28809  10.244   2.597   2.296
 8971SOL    HW128810  10.232   2.673   2.240
 8971SOL    HW228811  10.335   2.572   2.284
 8972SOL     OW28812   3.829   4.555   7.832
 8972SOL    HW128813   3.754   4.606   7.804
 8972SOL    HW228814   3.902   4.588   7.780
 8973SOL     OW28815   4.692   6.005   5.510
 8973SOL    HW128816   4.649   6.065   5.449
 8973SOL    HW228817   4.783   6.035   5.514
 8974SOL     OW28818   4.621   6.280   4.438
 8974SOL    HW128819   4.663   6.334   4.371
 8974SOL    HW228820   4.637   6.327   4.520
 8975SOL     OW28821   7.647  12.383   9.591
 8975SOL    HW128822   7.676  12.304   9.546
 8975SOL    HW228823   7.728  12.419   9.629
 8976SOL     OW28824   5.040  13.189   5.382
 8976SOL    HW128825   5.119  13.158   5.428
 8976SOL    HW228826   4.968  13.150   5.431
 8977SOL     OW28827  14.079   4.212   8.563
 8977SOL    HW128828  14.161   4.163   8.559
 8977SOL    HW228829  14.104   4.297   8.600
 8978SOL     OW28830   8.618   0.850   9.315
 8978SOL    HW128831   8.693   0.897   9.352
 8978SOL    HW228832   8.604   0.776   9.375
 8979SOL     OW28833   2.116   0.585  10.207
 8979SOL    HW128834   2.163   0.641  10.269
 8979SOL    HW228835   2.184   0.545  10.154
 8980SOL     OW28836   2.591   1.503   9.989
 8980SOL    HW128837   2.589   1.439  10.061
 8980SOL    HW228838   2.536   1.575  10.020
 8981SOL     OW28839   7.181   6.540  11.510
 8981SOL    HW128840   7.277   6.537  11.509
 8981SOL    HW228841   7.161   6.634  11.516
 8982SOL     OW28842   4.954  13.335  13.000
 8982SOL    HW128843   4.933  13.353  13.092
 8982SOL    HW228844   4.869  13.337  12.956
 8983SOL     OW28845  10.073   8.136   8.166
 8983SOL    HW128846  10.167   8.133   8.185
 8983SOL    HW228847  10.036   8.192   8.233
 8984SOL     OW28848  10.052   5.382   7.373
 8984SOL    HW128849   9.977   5.336   7.336
 8984SOL    HW228850  10.119   5.314   7.381
 8985SOL     OW28851   6.734  13.468   7.634
 8985SOL    HW128852   6.720  13.373   7.628
 8985SOL    HW228853   6.732  13.487   7.727
 8986SOL     OW28854   6.608  10.236   7.838
 8986SOL    HW128855   6.626  10.259   7.929
 8986SOL    HW228856   6.529  10.182   7.841
 8987SOL     OW28857   0.087   5.775   8.063
 8987SOL    HW128858   0.070   5.704   8.124
 8987SOL    HW228859   0.171   5.753   8.023
 8988SOL     OW28860  14.664  14.243   8.054
 8988SOL    HW128861  14.739  14.198   8.015
 8988SOL    HW228862  14.619  14.175   8.103
 8989SOL     OW28863  10.910   2.416   2.014
 8989SOL    HW128864  10.934   2.325   2.034
 8989SOL    HW228865  10.837   2.408   1.952
 8990SOL     OW28866   9.188   5.311   9.624
 8990SOL    HW128867   9.240   5.292   9.545
 8990SOL    HW228868   9.168   5.226   9.661
 8991SOL     OW28869   7.373   2.553   9.108
 8991SOL    HW128870   7.282   2.560   9.081
 8991SOL    HW228871   7.423   2.593   9.037
 8992SOL     OW28872   7.995   9.781  11.011
 8992SOL    HW128873   8.050   9.721  10.961
 8992SOL    HW228874   8.015   9.867  10.975
 8993SOL     OW28875   0.244   0.018  10.478
 8993SOL    HW128876   0.276  14.854  10.557
 8993SOL    HW228877   0.301   0.095  10.469
 8994SOL     OW28878   2.429  12.170   6.766
 8994SOL    HW128879   2.381  12.234   6.819
 8994SOL    HW228880   2.365  12.101   6.748
 8995SOL     OW28881   8.211  11.677   9.432
 8995SOL    HW128882   8.122  11.646   9.414
 8995SOL    HW228883   8.266  11.599   9.425
 8996SOL     OW28884  12.534   0.781   2.253
 8996SOL    HW128885  12.523   0.801   2.346
 8996SOL    HW228886  12.465   0.718   2.233
 8997SOL     OW28887  13.867   8.167   8.243
 8997SOL    HW128888  13.918   8.126   8.173
 8997SOL    HW228889  13.881   8.112   8.319
 8998SOL     OW28890  13.446   4.754  14.146
 8998SOL    HW128891  13.489   4.743  14.061
 8998SOL    HW228892  13.369   4.808  14.127
 8999SOL     OW28893   7.127   8.331  10.272
 8999SOL    HW128894   7.080   8.374  10.201
 8999SOL    HW228895   7.177   8.401  10.314
 9000SOL     OW28896   5.159   3.383   5.372
 9000SOL    HW128897   5.096   3.399   5.443
 9000SOL    HW228898   5.114   3.414   5.293
 9001SOL     OW28899   4.627  12.157   7.319
 9001SOL    HW128900   4.619  12.135   7.412
 9001SOL    HW228901   4.678  12.085   7.282
 9002SOL     OW28902  10.511   6.927   6.249
 9002SOL    HW128903  10.524   7.014   6.213
 9002SOL    HW228904  10.451   6.940   6.323
 9003SOL     OW28905   5.394   2.569   1.681
 9003SOL    HW128906   5.327   2.636   1.681
 9003SOL    HW228907   5.364   2.504   1.744
 9004SOL     OW28908  13.840  14.248   0.907
 9004SOL    HW128909  13.862  14.252   0.814
 9004SOL    HW228910  13.856  14.337   0.939
 9005SOL     OW28911  10.551  13.981   9.527
 9005SOL    HW128912  10.508  13.901   9.556
 9005SOL    HW228913  10.565  14.030   9.608
 9006SOL     OW28914  11.457   9.153   4.244
 9006SOL    HW128915  11.428   9.158   4.335
 9006SOL    HW228916  11.420   9.071   4.212
 9007SOL     OW28917   3.021   3.206   0.896
 9007SOL    HW128918   3.071   3.124   0.898
 9007SOL    HW228919   2.929   3.178   0.897
 9008SOL     OW28920  11.999   7.173   0.993
 9008SOL    HW128921  11.965   7.220   0.917
 9008SOL    HW228922  12.003   7.240   1.062
 9009SOL     OW28923  13.765   2.549   6.238
 9009SOL    HW128924  13.703   2.487   6.277
 9009SOL    HW228925  13.786   2.511   6.153
 9010SOL     OW28926  11.891   0.703   2.563
 9010SOL    HW128927  11.961   0.661   2.512
 9010SOL    HW228928  11.810   0.664   2.529
 9011SOL     OW28929   8.807  12.931  13.724
 9011SOL    HW128930   8.734  12.878  13.691
 9011SOL    HW228931   8.790  13.019  13.690
 9012SOL     OW28932  12.555  13.471   6.282
 9012SOL    HW128933  12.645  13.501   6.266
 9012SOL    HW228934  12.503  13.551   6.282
 9013SOL     OW28935   6.317   2.209   2.265
 9013SOL    HW128936   6.238   2.257   2.291
 9013SOL    HW228937   6.325   2.140   2.331
 9014SOL     OW28938   0.134   4.113   5.853
 9014SOL    HW128939   0.116   4.019   5.855
 9014SOL    HW228940   0.182   4.126   5.772
 9015SOL     OW28941  14.187   2.056  10.574
 9015SOL    HW128942  14.218   1.973  10.538
 9015SOL    HW228943  14.219   2.122  10.514
 9016SOL     OW28944   1.987  13.793   5.916
 9016SOL    HW128945   1.991  13.849   5.993
 9016SOL    HW228946   1.937  13.716   5.944
 9017SOL     OW28947  10.222   1.216  11.488
 9017SOL    HW128948  10.152   1.180  11.543
 9017SOL    HW228949  10.297   1.226  11.547
 9018SOL     OW28950   1.841  14.180   4.923
 9018SOL    HW128951   1.934  14.198   4.917
 9018SOL    HW228952   1.824  14.170   5.017
 9019SOL     OW28953   3.477   0.073  11.993
 9019SOL    HW128954   3.431   0.010  12.049
 9019SOL    HW228955   3.570   0.060  12.015
 9020SOL     OW28956   6.942  10.944   9.963
 9020SOL    HW128957   6.994  11.017   9.930
 9020SOL    HW228958   6.990  10.866   9.937
 9021SOL     OW28959  12.178  11.590   3.416
 9021SOL    HW128960  12.146  11.528   3.350
 9021SOL    HW228961  12.247  11.639   3.371
 9022SOL     OW28962   4.187   7.953   5.654
 9022SOL    HW128963   4.206   7.974   5.746
 9022SOL    HW228964   4.150   7.865   5.657
 9023SOL     OW28965  13.535   4.836   8.107
 9023SOL    HW128966  13.457   4.843   8.052
 9023SOL    HW228967  13.515   4.764   8.167
 9024SOL     OW28968   5.775  13.887   6.423
 9024SOL    HW128969   5.814  13.852   6.504
 9024SOL    HW228970   5.682  13.895   6.442
 9025SOL     OW28971  12.662   3.509   1.559
 9025SOL    HW128972  12.690   3.419   1.574
 9025SOL    HW228973  12.635   3.510   1.467
 9026SOL     OW28974   3.916   3.392  12.250
 9026SOL    HW128975   3.886   3.322  12.308
 9026SOL    HW228976   3.915   3.353  12.162
 9027SOL     OW28977   3.847  12.454   0.724
 9027SOL    HW128978   3.902  12.405   0.785
 9027SOL    HW228979   3.855  12.407   0.641
 9028SOL     OW28980   6.132   1.608   3.579
 9028SOL    HW128981   6.170   1.555   3.509
 9028SOL    HW228982   6.049   1.639   3.543
 9029SOL     OW28983  10.076  10.529   3.497
 9029SOL    HW128984  10.081  10.434   3.502
 9029SOL    HW228985  10.073  10.559   3.588
 9030SOL     OW28986  12.143   5.611  14.221
 9030SOL    HW128987  12.203   5.599  14.147
 9030SOL    HW228988  12.097   5.692  14.200
 9031SOL     OW28989  13.662  13.769  11.954
 9031SOL    HW128990  13.630  13.843  11.902
 9031SOL    HW228991  13.582  13.723  11.981
 9032SOL     OW28992  10.352  10.324   4.833
 9032SOL    HW128993  10.296  10.393   4.796
 9032SOL    HW228994  10.440  10.360   4.828
 9033SOL     OW28995   1.976  13.630   7.673
 9033SOL    HW128996   1.948  13.642   7.764
 9033SOL    HW228997   1.903  13.582   7.632
 9034SOL     OW28998  14.380   4.963   4.674
 9034SOL    HW128999  14.474   4.974   4.656
 9034SOL    HW229000  14.374   4.878   4.718
 9035SOL     OW29001   6.798   6.047  14.147
 9035SOL    HW129002   6.834   5.970  14.190
 9035SOL    HW229003   6.704   6.029  14.140
 9036SOL     OW29004   5.742  13.404   3.414
 9036SOL    HW129005   5.673  13.366   3.361
 9036SOL    HW229006   5.781  13.472   3.358
 9037SOL     OW29007  13.106   2.250  12.018
 9037SOL    HW129008  13.096   2.227  11.925
 9037SOL    HW229009  13.201   2.251  12.032
 9038SOL     OW29010   0.713   7.615   0.590
 9038SOL    HW129011   0.691   7.686   0.650
 9038SOL    HW229012   0.671   7.640   0.507
 9039SOL     OW29013   7.548   5.981  10.768
 9039SOL    HW129014   7.517   5.892  10.785
 9039SOL    HW229015   7.610   5.999  10.839
 9040SOL     OW29016   8.446   6.495   7.756
 9040SOL    HW129017   8.380   6.441   7.798
 9040SOL    HW229018   8.463   6.452   7.672
 9041SOL     OW29019   7.190  14.639  14.341
 9041SOL    HW129020   7.246  14.563  14.326
 9041SOL    HW229021   7.239  14.694  14.402
 9042SOL     OW29022   0.480  13.234   5.307
 9042SOL    HW129023   0.399  13.274   5.276
 9042SOL    HW229024   0.452  13.148   5.340
 9043SOL     OW29025   4.479   1.229   5.550
 9043SOL    HW129026   4.397   1.276   5.564
 9043SOL    HW229027   4.498   1.241   5.457
 9044SOL     OW29028   6.865   2.460  12.060
 9044SOL    HW129029   6.812   2.519  12.008
 9044SOL    HW229030   6.834   2.373  12.037
 9045SOL     OW29031   7.220   5.520   3.838
 9045SOL    HW129032   7.308   5.556   3.830
 9045SOL    HW229033   7.170   5.590   3.880
 9046SOL     OW29034  11.863   6.996  10.210
 9046SOL    HW129035  11.874   6.994  10.305
 9046SOL    HW229036  11.945   6.962  10.175
 9047SOL     OW29037   4.936   2.080  11.206
 9047SOL    HW129038   4.913   2.056  11.117
 9047SOL    HW229039   4.856   2.114  11.244
 9048SOL     OW29040   0.195  12.710  12.347
 9048SOL    HW129041   0.101  12.691  12.336
 9048SOL    HW229042   0.222  12.744  12.262
 9049SOL     OW29043  11.800   4.893   6.106
 9049SOL    HW129044  11.795   4.802   6.137
 9049SOL    HW229045  11.733   4.938   6.157
 9050SOL     OW29046   4.783   2.117   1.771
 9050SOL    HW129047   4.805   2.028   1.743
 9050SOL    HW229048   4.736   2.155   1.697
 9051SOL     OW29049  12.148  13.836  10.496
 9051SOL    HW129050  12.058  13.863  10.476
 9051SOL    HW229051  12.175  13.894  10.567
 9052SOL     OW29052   9.232  14.479   9.053
 9052SOL    HW129053   9.203  14.398   9.095
 9052SOL    HW229054   9.309  14.505   9.104
 9053SOL     OW29055  14.667   3.673   1.983
 9053SOL    HW129056  14.672   3.615   1.906
 9053SOL    HW229057  14.618   3.749   1.952
 9054SOL     OW29058   0.153  11.371  11.383
 9054SOL    HW129059   0.118  11.294  11.339
 9054SOL    HW229060   0.248  11.357  11.385
 9055SOL     OW29061   3.916   1.760   3.906
 9055SOL    HW129062   3.999   1.718   3.882
 9055SOL    HW229063   3.941   1.847   3.937
 9056SOL     OW29064   8.335   9.241   1.474
 9056SOL    HW129065   8.288   9.322   1.456
 9056SOL    HW229066   8.357   9.246   1.567
 9057SOL     OW29067  11.864  11.006  12.301
 9057SOL    HW129068  11.882  10.998  12.207
 9057SOL    HW229069  11.772  11.034  12.306
 9058SOL     OW29070  11.809  12.271  10.340
 9058SOL    HW129071  11.773  12.358  10.355
 9058SOL    HW229072  11.811  12.262  10.245
 9059SOL     OW29073   9.817  12.052   6.941
 9059SOL    HW129074   9.761  12.087   7.010
 9059SOL    HW229075   9.759  12.037   6.867
 9060SOL     OW29076  10.564   8.932   3.798
 9060SOL    HW129077  10.479   8.976   3.808
 9060SOL    HW229078  10.625   9.003   3.779
 9061SOL     OW29079  11.443  13.203   9.086
 9061SOL    HW129080  11.447  13.170   8.996
 9061SOL    HW229081  11.368  13.158   9.125
 9062SOL     OW29082   1.910   1.211   0.067
 9062SOL    HW129083   1.816   1.196   0.075
 9062SOL    HW229084   1.921   1.305   0.080
 9063SOL     OW29085   4.872   2.171  10.710
 9063SOL    HW129086   4.963   2.170  10.741
 9063SOL    HW229087   4.857   2.261  10.682
 9064SOL     OW29088   1.174  10.932   0.062
 9064SOL    HW129089   1.264  10.941   0.094
 9064SOL    HW229090   1.166  10.999  14.874
 9065SOL     OW29091  14.872  10.916   5.435
 9065SOL    HW129092   0.037  10.837   5.407
 9065SOL    HW229093   0.061  10.974   5.468
 9066SOL     OW29094   8.599  11.594  11.005
 9066SOL    HW129095   8.576  11.532  11.075
 9066SOL    HW229096   8.686  11.626  11.030
 9067SOL     OW29097  11.105   6.238   5.602
 9067SOL    HW129098  11.027   6.205   5.558
 9067SOL    HW229099  11.167   6.256   5.532
 9068SOL     OW29100   0.321   6.354   5.581
 9068SOL    HW129101   0.244   6.410   5.579
 9068SOL    HW229102   0.386   6.403   5.631
 9069SOL     OW29103   6.477   8.544   2.921
 9069SOL    HW129104   6.396   8.498   2.898
 9069SOL    HW229105   6.518   8.489   2.988
 9070SOL     OW29106   9.410   0.831   6.291
 9070SOL    HW129107   9.390   0.744   6.255
 9070SOL    HW229108   9.325   0.863   6.322
 9071SOL     OW29109  12.860   2.357   1.932
 9071SOL    HW129110  12.918   2.327   2.002
 9071SOL    HW229111  12.796   2.413   1.977
 9072SOL     OW29112  12.687  11.941  10.977
 9072SOL    HW129113  12.609  11.906  10.932
 9072SOL    HW229114  12.652  11.984  11.055
 9073SOL     OW29115  10.585   7.020   9.090
 9073SOL    HW129116  10.505   7.053   9.132
 9073SOL    HW229117  10.600   6.935   9.132
 9074SOL     OW29118   1.040  13.202  14.267
 9074SOL    HW129119   0.948  13.222  14.284
 9074SOL    HW229120   1.053  13.114  14.302
 9075SOL     OW29121   9.046   4.735  10.143
 9075SOL    HW129122   9.039   4.734  10.238
 9075SOL    HW229123   8.981   4.672  10.114
 9076SOL     OW29124   9.659  14.601   5.719
 9076SOL    HW129125   9.590  14.537   5.697
 9076SOL    HW229126   9.612  14.682   5.735
 9077SOL     OW29127   2.362   0.955   4.904
 9077SOL    HW129128   2.307   0.921   4.974
 9077SOL    HW229129   2.308   1.023   4.862
 9078SOL     OW29130  10.812  11.024   9.171
 9078SOL    HW129131  10.872  10.953   9.193
 9078SOL    HW229132  10.756  11.032   9.249
 9079SOL     OW29133   4.686  13.346   3.808
 9079SOL    HW129134   4.656  13.393   3.885
 9079SOL    HW229135   4.605  13.320   3.763
 9080SOL     OW29136   4.834   7.318   9.817
 9080SOL    HW129137   4.896   7.245   9.819
 9080SOL    HW229138   4.866   7.374   9.746
 9081SOL     OW29139   4.951   0.727   7.272
 9081SOL    HW129140   5.044   0.707   7.258
 9081SOL    HW229141   4.922   0.661   7.334
 9082SOL     OW29142  13.142   1.318   5.986
 9082SOL    HW129143  13.196   1.358   6.053
 9082SOL    HW229144  13.065   1.286   6.033
 9083SOL     OW29145   8.472   2.098  11.820
 9083SOL    HW129146   8.531   2.152  11.872
 9083SOL    HW229147   8.472   2.013  11.865
 9084SOL     OW29148   0.904  10.851   1.774
 9084SOL    HW129149   0.925  10.936   1.735
 9084SOL    HW229150   0.812  10.859   1.801
 9085SOL     OW29151   4.259   4.332   0.938
 9085SOL    HW129152   4.251   4.403   0.876
 9085SOL    HW229153   4.314   4.367   1.009
 9086SOL     OW29154   1.436   9.283  14.208
 9086SOL    HW129155   1.377   9.355  14.231
 9086SOL    HW229156   1.510   9.292  14.269
 9087SOL     OW29157   2.985  10.543  10.166
 9087SOL    HW129158   3.057  10.605  10.152
 9087SOL    HW229159   2.981  10.494  10.084
 9088SOL     OW29160   4.897   0.749  11.544
 9088SOL    HW129161   4.985   0.785  11.546
 9088SOL    HW229162   4.889   0.701  11.627
 9089SOL     OW29163   3.984   9.494  10.104
 9089SOL    HW129164   3.954   9.582  10.129
 9089SOL    HW229165   3.997   9.499  10.010
 9090SOL     OW29166   0.111  13.312  12.089
 9090SOL    HW129167   0.145  13.245  12.149
 9090SOL    HW229168   0.038  13.270  12.044
 9091SOL     OW29169  13.566   0.541   6.201
 9091SOL    HW129170  13.574   0.451   6.233
 9091SOL    HW229171  13.495   0.538   6.137
 9092SOL     OW29172  14.531  11.804   3.511
 9092SOL    HW129173  14.602  11.796   3.447
 9092SOL    HW229174  14.458  11.756   3.473
 9093SOL     OW29175  10.041   1.660   5.385
 9093SOL    HW129176  10.112   1.610   5.425
 9093SOL    HW229177   9.987   1.688   5.459
 9094SOL     OW29178   5.053   4.312   2.070
 9094SOL    HW129179   5.052   4.345   1.980
 9094SOL    HW229180   5.144   4.290   2.087
 9095SOL     OW29181   3.357  10.102  10.362
 9095SOL    HW129182   3.351  10.041  10.435
 9095SOL    HW229183   3.340  10.188  10.401
 9096SOL     OW29184  10.507  11.853  10.615
 9096SOL    HW129185  10.496  11.867  10.521
 9096SOL    HW229186  10.538  11.937  10.649
 9097SOL     OW29187   0.458   5.785  14.034
 9097SOL    HW129188   0.388   5.844  14.007
 9097SOL    HW229189   0.505   5.833  14.102
 9098SOL     OW29190  11.397   2.931   5.374
 9098SOL    HW129191  11.445   2.854   5.343
 9098SOL    HW229192  11.442   2.958   5.454
 9099SOL     OW29193   5.136  13.086  12.271
 9099SOL    HW129194   5.195  13.046  12.207
 9099SOL    HW229195   5.157  13.180  12.268
 9100SOL     OW29196   7.592   2.156  12.084
 9100SOL    HW129197   7.513   2.133  12.035
 9100SOL    HW229198   7.563   2.219  12.149
 9101SOL     OW29199  12.366   1.882   5.728
 9101SOL    HW129200  12.389   1.823   5.800
 9101SOL    HW229201  12.303   1.833   5.676
 9102SOL     OW29202   6.260   8.615   1.413
 9102SOL    HW129203   6.293   8.563   1.339
 9102SOL    HW229204   6.298   8.573   1.490
 9103SOL     OW29205  10.836  14.272   6.323
 9103SOL    HW129206  10.743  14.259   6.340
 9103SOL    HW229207  10.876  14.187   6.341
 9104SOL     OW29208   5.835  12.894   0.034
 9104SOL    HW129209   5.844  12.820   0.095
 9104SOL    HW229210   5.745  12.924   0.047
 9105SOL     OW29211   7.237  10.944   1.844
 9105SOL    HW129212   7.242  11.005   1.771
 9105SOL    HW229213   7.295  10.872   1.820
 9106SOL     OW29214   8.480   4.565  13.398
 9106SOL    HW129215   8.519   4.599  13.478
 9106SOL    HW229216   8.428   4.490  13.426
 9107SOL     OW29217   2.385   8.024  13.169
 9107SOL    HW129218   2.432   8.075  13.235
 9107SOL    HW229219   2.293   8.032  13.193
 9108SOL     OW29220   2.973   0.373   9.193
 9108SOL    HW129221   2.919   0.376   9.272
 9108SOL    HW229222   3.039   0.441   9.206
 9109SOL     OW29223  13.122  11.439   0.391
 9109SOL    HW129224  13.135  11.503   0.461
 9109SOL    HW229225  13.026  11.432   0.383
 9110SOL     OW29226   8.191   2.282  14.240
 9110SOL    HW129227   8.145   2.198  14.239
 9110SOL    HW229228   8.273   2.264  14.284
 9111SOL     OW29229  12.548   9.034   4.041
 9111SOL    HW129230  12.511   8.964   3.987
 9111SOL    HW229231  12.480   9.101   4.044
 9112SOL     OW29232   9.025   5.265   1.407
 9112SOL    HW129233   9.011   5.340   1.465
 9112SOL    HW229234   8.940   5.250   1.367
 9113SOL     OW29235   4.641  13.664   1.901
 9113SOL    HW129236   4.584  13.634   1.972
 9113SOL    HW229237   4.723  13.688   1.944
 9114SOL     OW29238   9.441   7.179  14.150
 9114SOL    HW129239   9.416   7.144  14.235
 9114SOL    HW229240   9.458   7.102  14.096
 9115SOL     OW29241   0.942   2.805   2.391
 9115SOL    HW129242   0.848   2.815   2.377
 9115SOL    HW229243   0.951   2.722   2.438
 9116SOL     OW29244   4.279   2.304   0.331
 9116SOL    HW129245   4.211   2.369   0.349
 9116SOL    HW229246   4.359   2.356   0.321
 9117SOL     OW29247   5.736   4.770   4.404
 9117SOL    HW129248   5.768   4.852   4.368
 9117SOL    HW229249   5.773   4.767   4.492
 9118SOL     OW29250  10.564  13.412  10.710
 9118SOL    HW129251  10.608  13.473  10.770
 9118SOL    HW229252  10.635  13.367  10.665
 9119SOL     OW29253  11.853   3.600   1.145
 9119SOL    HW129254  11.923   3.663   1.163
 9119SOL    HW229255  11.790   3.615   1.215
 9120SOL     OW29256   8.566   2.548  10.323
 9120SOL    HW129257   8.504   2.506  10.263
 9120SOL    HW229258   8.600   2.623  10.273
 9121SOL     OW29259   8.911   5.853  12.382
 9121SOL    HW129260   8.994   5.846  12.429
 9121SOL    HW229261   8.928   5.920  12.315
 9122SOL     OW29262   5.204  11.176   7.355
 9122SOL    HW129263   5.212  11.189   7.449
 9122SOL    HW229264   5.186  11.264   7.321
 9123SOL     OW29265   7.605   8.606   7.235
 9123SOL    HW129266   7.675   8.556   7.194
 9123SOL    HW229267   7.526   8.553   7.221
 9124SOL     OW29268   4.469   9.325  14.797
 9124SOL    HW129269   4.468   9.412  14.837
 9124SOL    HW229270   4.404   9.330  14.727
 9125SOL     OW29271   5.786   2.692   8.985
 9125SOL    HW129272   5.815   2.783   8.994
 9125SOL    HW229273   5.764   2.664   9.074
 9126SOL     OW29274  12.324   5.552   8.601
 9126SOL    HW129275  12.358   5.607   8.530
 9126SOL    HW229276  12.333   5.606   8.680
 9127SOL     OW29277  12.437   0.367   3.747
 9127SOL    HW129278  12.349   0.344   3.778
 9127SOL    HW229279  12.432   0.358   3.652
 9128SOL     OW29280   5.100  10.463   3.036
 9128SOL    HW129281   5.192  10.471   3.063
 9128SOL    HW229282   5.072  10.553   3.022
 9129SOL     OW29283   5.522  11.351   6.066
 9129SOL    HW129284   5.585  11.369   6.135
 9129SOL    HW229285   5.437  11.372   6.106
 9130SOL     OW29286  12.617  14.708   8.542
 9130SOL    HW129287  12.562  14.779   8.574
 9130SOL    HW229288  12.596  14.702   8.448
 9131SOL     OW29289   3.985   2.373   1.533
 9131SOL    HW129290   4.051   2.405   1.595
 9131SOL    HW229291   4.024   2.295   1.495
 9132SOL     OW29292  13.769   1.543   6.526
 9132SOL    HW129293  13.827   1.504   6.460
 9132SOL    HW229294  13.789   1.636   6.524
 9133SOL     OW29295   7.528   0.571   1.831
 9133SOL    HW129296   7.509   0.584   1.924
 9133SOL    HW229297   7.448   0.599   1.786
 9134SOL     OW29298  10.732  13.222  13.363
 9134SOL    HW129299  10.658  13.274  13.393
 9134SOL    HW229300  10.726  13.223  13.268
 9135SOL     OW29301   2.268   8.742   9.811
 9135SOL    HW129302   2.340   8.804   9.823
 9135SOL    HW229303   2.271   8.686   9.888
 9136SOL     OW29304   1.658  13.956  11.235
 9136SOL    HW129305   1.696  13.900  11.303
 9136SOL    HW229306   1.567  13.927  11.229
 9137SOL     OW29307  11.578   9.643   1.133
 9137SOL    HW129308  11.522   9.576   1.173
 9137SOL    HW229309  11.631   9.676   1.205
 9138SOL     OW29310   2.334  14.675   8.556
 9138SOL    HW129311   2.301  14.589   8.583
 9138SOL    HW229312   2.417  14.656   8.514
 9139SOL     OW29313  14.514   6.282   3.531
 9139SOL    HW129314  14.509   6.272   3.626
 9139SOL    HW229315  14.547   6.370   3.518
 9140SOL     OW29316   4.434   1.006   5.285
 9140SOL    HW129317   4.488   1.031   5.210
 9140SOL    HW229318   4.497   0.981   5.353
 9141SOL     OW29319   1.458   0.994   5.140
 9141SOL    HW129320   1.487   0.996   5.231
 9141SOL    HW229321   1.366   1.019   5.144
 9142SOL     OW29322   7.384   9.103   1.810
 9142SOL    HW129323   7.325   9.036   1.775
 9142SOL    HW229324   7.442   9.124   1.737
 9143SOL     OW29325  13.875  12.692   2.660
 9143SOL    HW129326  13.898  12.603   2.687
 9143SOL    HW229327  13.942  12.716   2.596
 9144SOL     OW29328   4.694   9.694   0.640
 9144SOL    HW129329   4.729   9.731   0.558
 9144SOL    HW229330   4.675   9.603   0.618
 9145SOL     OW29331  10.388  11.770   2.128
 9145SOL    HW129332  10.396  11.864   2.110
 9145SOL    HW229333  10.466  11.731   2.089
 9146SOL     OW29334   6.585  12.241  11.210
 9146SOL    HW129335   6.557  12.265  11.298
 9146SOL    HW229336   6.665  12.189  11.223
 9147SOL     OW29337  12.787  13.364   8.608
 9147SOL    HW129338  12.726  13.373   8.535
 9147SOL    HW229339  12.806  13.271   8.612
 9148SOL     OW29340   9.372   4.027   4.577
 9148SOL    HW129341   9.430   3.970   4.628
 9148SOL    HW229342   9.287   3.985   4.581
 9149SOL     OW29343   5.746   1.789   5.242
 9149SOL    HW129344   5.689   1.863   5.221
 9149SOL    HW229345   5.719   1.719   5.182
 9150SOL     OW29346  13.456  10.475   1.171
 9150SOL    HW129347  13.480  10.548   1.115
 9150SOL    HW229348  13.537  10.425   1.182
 9151SOL     OW29349   9.316   7.214   5.769
 9151SOL    HW129350   9.229   7.178   5.787
 9151SOL    HW229351   9.377   7.145   5.795
 9152SOL     OW29352   2.294   6.153   2.027
 9152SOL    HW129353   2.387   6.145   2.046
 9152SOL    HW229354   2.289   6.170   1.933
 9153SOL     OW29355   4.293  11.016   0.801
 9153SOL    HW129356   4.201  10.994   0.786
 9153SOL    HW229357   4.332  10.935   0.834
 9154SOL     OW29358  12.937   6.596   9.543
 9154SOL    HW129359  12.915   6.572   9.633
 9154SOL    HW229360  12.995   6.525   9.513
 9155SOL     OW29361   9.151  14.377  11.519
 9155SOL    HW129362   9.145  14.335  11.605
 9155SOL    HW229363   9.080  14.441  11.518
 9156SOL     OW29364  10.868   8.148  12.156
 9156SOL    HW129365  10.942   8.170  12.212
 9156SOL    HW229366  10.899   8.074  12.104
 9157SOL     OW29367   6.947  10.574   3.626
 9157SOL    HW129368   6.872  10.634   3.635
 9157SOL    HW229369   6.960  10.539   3.713
 9158SOL     OW29370   8.954   0.272  12.034
 9158SOL    HW129371   9.036   0.319  12.023
 9158SOL    HW229372   8.919   0.262  11.945
 9159SOL     OW29373   1.393   7.143   5.569
 9159SOL    HW129374   1.338   7.220   5.588
 9159SOL    HW229375   1.396   7.095   5.652
 9160SOL     OW29376   0.552  11.810   5.889
 9160SOL    HW129377   0.642  11.841   5.887
 9160SOL    HW229378   0.501  11.885   5.921
 9161SOL     OW29379   7.068   7.313   5.411
 9161SOL    HW129380   7.071   7.401   5.448
 9161SOL    HW229381   7.153   7.275   5.433
 9162SOL     OW29382   2.477   4.049  12.791
 9162SOL    HW129383   2.564   4.029  12.756
 9162SOL    HW229384   2.464   3.983  12.860
 9163SOL     OW29385  13.025   6.425   9.224
 9163SOL    HW129386  13.047   6.379   9.143
 9163SOL    HW229387  13.107   6.467   9.252
 9164SOL     OW29388   6.825   7.466  12.253
 9164SOL    HW129389   6.888   7.425  12.193
 9164SOL    HW229390   6.757   7.399  12.265
 9165SOL     OW29391  10.307  13.924  13.803
 9165SOL    HW129392  10.282  13.977  13.878
 9165SOL    HW229393  10.403  13.931  13.799
 9166SOL     OW29394   3.250   4.318   0.419
 9166SOL    HW129395   3.154   4.327   0.414
 9166SOL    HW229396   3.274   4.366   0.498
 9167SOL     OW29397   4.824  12.117  13.715
 9167SOL    HW129398   4.761  12.189  13.711
 9167SOL    HW229399   4.770  12.039  13.730
 9168SOL     OW29400  11.513  10.034   0.409
 9168SOL    HW129401  11.593  10.065   0.365
 9168SOL    HW229402  11.542  10.014   0.499
 9169SOL     OW29403   9.370   1.211  11.533
 9169SOL    HW129404   9.388   1.273  11.604
 9169SOL    HW229405   9.278   1.226  11.511
 9170SOL     OW29406   4.895   3.881   8.540
 9170SOL    HW129407   4.939   3.797   8.529
 9170SOL    HW229408   4.946   3.927   8.607
 9171SOL     OW29409  12.732   0.709   6.855
 9171SOL    HW129410  12.677   0.707   6.776
 9171SOL    HW229411  12.781   0.627   6.852
 9172SOL     OW29412  14.190   0.166  12.503
 9172SOL    HW129413  14.209   0.073  12.491
 9172SOL    HW229414  14.115   0.182  12.445
 9173SOL     OW29415   0.333  10.519  14.241
 9173SOL    HW129416   0.415  10.486  14.276
 9173SOL    HW229417   0.265  10.470  14.288
 9174SOL     OW29418   4.342  13.166   9.341
 9174SOL    HW129419   4.254  13.164   9.302
 9174SOL    HW229420   4.345  13.088   9.396
 9175SOL     OW29421  12.215   8.889   2.808
 9175SOL    HW129422  12.152   8.913   2.740
 9175SOL    HW229423  12.184   8.804   2.839
 9176SOL     OW29424   9.146  12.565   5.374
 9176SOL    HW129425   9.149  12.659   5.361
 9176SOL    HW229426   9.213  12.530   5.316
 9177SOL     OW29427   4.738   2.504   4.302
 9177SOL    HW129428   4.699   2.590   4.283
 9177SOL    HW229429   4.718   2.451   4.225
 9178SOL     OW29430   6.777   3.733   5.621
 9178SOL    HW129431   6.787   3.639   5.611
 9178SOL    HW229432   6.851   3.760   5.675
 9179SOL     OW29433  12.695  12.830   5.921
 9179SOL    HW129434  12.774  12.794   5.960
 9179SOL    HW229435  12.722  12.913   5.882
 9180SOL     OW29436   3.479   8.280   2.914
 9180SOL    HW129437   3.423   8.261   2.989
 9180SOL    HW229438   3.499   8.194   2.878
 9181SOL     OW29439  10.890  13.972   4.977
 9181SOL    HW129440  10.983  13.986   4.962
 9181SOL    HW229441  10.848  13.994   4.893
 9182SOL     OW29442  10.743   8.492   1.927
 9182SOL    HW129443  10.729   8.401   1.955
 9182SOL    HW229444  10.742   8.542   2.009
 9183SOL     OW29445   2.428   0.292   4.119
 9183SOL    HW129446   2.498   0.302   4.183
 9183SOL    HW229447   2.407   0.382   4.092
 9184SOL     OW29448   6.258  11.386   9.285
 9184SOL    HW129449   6.339  11.334   9.286
 9184SOL    HW229450   6.244  11.411   9.376
 9185SOL     OW29451   4.264  10.461  10.032
 9185SOL    HW129452   4.170  10.474  10.041
 9185SOL    HW229453   4.301  10.496  10.113
 9186SOL     OW29454   8.297   6.318  12.834
 9186SOL    HW129455   8.257   6.230  12.833
 9186SOL    HW229456   8.332   6.329  12.746
 9187SOL     OW29457  14.670  11.405   0.304
 9187SOL    HW129458  14.612  11.335   0.274
 9187SOL    HW229459  14.720  11.430   0.226
 9188SOL     OW29460  14.695  12.723   4.852
 9188SOL    HW129461  14.785  12.693   4.860
 9188SOL    HW229462  14.670  12.748   4.941
 9189SOL     OW29463  14.204  13.778   4.563
 9189SOL    HW129464  14.296  13.799   4.548
 9189SOL    HW229465  14.187  13.805   4.653
 9190SOL     OW29466   6.338   6.895   3.274
 9190SOL    HW129467   6.433   6.898   3.274
 9190SOL    HW229468   6.314   6.879   3.183
 9191SOL     OW29469  13.556  11.085   9.778
 9191SOL    HW129470  13.469  11.070   9.815
 9191SOL    HW229471  13.611  11.105   9.854
 9192SOL     OW29472  11.090  14.130  14.081
 9192SOL    HW129473  11.154  14.111  14.150
 9192SOL    HW229474  11.139  14.120  13.999
 9193SOL     OW29475  10.397   9.712  11.188
 9193SOL    HW129476  10.343   9.669  11.255
 9193SOL    HW229477  10.407   9.645  11.120
 9194SOL     OW29478   7.687   0.352   9.114
 9194SOL    HW129479   7.722   0.384   9.031
 9194SOL    HW229480   7.637   0.274   9.090
 9195SOL     OW29481   3.789   9.767   0.504
 9195SOL    HW129482   3.832   9.767   0.589
 9195SOL    HW229483   3.723   9.836   0.510
 9196SOL     OW29484  14.510   2.059  10.474
 9196SOL    HW129485  14.512   2.134  10.532
 9196SOL    HW229486  14.600   2.051  10.441
 9197SOL     OW29487   7.272   9.148   4.710
 9197SOL    HW129488   7.315   9.180   4.631
 9197SOL    HW229489   7.203   9.090   4.679
 9198SOL     OW29490   2.682  13.297  14.004
 9198SOL    HW129491   2.679  13.380  14.053
 9198SOL    HW229492   2.773  13.288  13.977
 9199SOL     OW29493   6.320  10.872  13.843
 9199SOL    HW129494   6.388  10.877  13.910
 9199SOL    HW229495   6.367  10.873  13.760
 9200SOL     OW29496   4.264  14.390  11.196
 9200SOL    HW129497   4.214  14.467  11.167
 9200SOL    HW229498   4.332  14.379  11.130
 9201SOL     OW29499   1.143  11.691   0.659
 9201SOL    HW129500   1.105  11.770   0.699
 9201SOL    HW229501   1.085  11.620   0.688
 9202SOL     OW29502   4.025  10.835   7.902
 9202SOL    HW129503   4.057  10.915   7.860
 9202SOL    HW229504   3.932  10.832   7.879
 9203SOL     OW29505   1.536   7.551   7.890
 9203SOL    HW129506   1.523   7.458   7.904
 9203SOL    HW229507   1.631   7.560   7.876
 9204SOL     OW29508   0.854   2.511  11.073
 9204SOL    HW129509   0.782   2.546  11.021
 9204SOL    HW229510   0.813   2.447  11.131
 9205SOL     OW29511  11.970   2.658   4.882
 9205SOL    HW129512  11.943   2.749   4.898
 9205SOL    HW229513  12.039   2.665   4.816
 9206SOL     OW29514   1.443  14.239   6.962
 9206SOL    HW129515   1.527  14.203   6.988
 9206SOL    HW229516   1.462  14.330   6.937
 9207SOL     OW29517   2.168   8.322   4.285
 9207SOL    HW129518   2.104   8.273   4.234
 9207SOL    HW229519   2.161   8.286   4.374
 9208SOL     OW29520   2.151   2.327  11.798
 9208SOL    HW129521   2.089   2.298  11.731
 9208SOL    HW229522   2.209   2.252  11.810
 9209SOL     OW29523   4.043  12.699   0.766
 9209SOL    HW129524   3.969  12.759   0.775
 9209SOL    HW229525   4.004  12.611   0.767
 9210SOL     OW29526   8.089   0.558   1.440
 9210SOL    HW129527   8.168   0.557   1.386
 9210SOL    HW229528   8.093   0.643   1.486
 9211SOL     OW29529  12.917   8.235   3.000
 9211SOL    HW129530  12.875   8.209   3.082
 9211SOL    HW229531  12.846   8.236   2.936
 9212SOL     OW29532  11.703  11.127   9.287
 9212SOL    HW129533  11.705  11.145   9.193
 9212SOL    HW229534  11.749  11.200   9.327
 9213SOL     OW29535   0.290   6.482   7.450
 9213SOL    HW129536   0.370   6.530   7.469
 9213SOL    HW229537   0.269   6.504   7.360
 9214SOL     OW29538  13.939  14.302   7.934
 9214SOL    HW129539  13.871  14.353   7.979
 9214SOL    HW229540  13.892  14.230   7.892
 9215SOL     OW29541   1.433   3.891   1.015
 9215SOL    HW129542   1.443   3.977   0.974
 9215SOL    HW229543   1.389   3.908   1.098
 9216SOL     OW29544   9.326   7.257  10.715
 9216SOL    HW129545   9.251   7.314  10.697
 9216SOL    HW229546   9.391   7.315  10.755
 9217SOL     OW29547   3.790  10.326  12.343
 9217SOL    HW129548   3.825  10.306  12.257
 9217SOL    HW229549   3.773  10.420  12.342
 9218SOL     OW29550   6.667  11.005   4.302
 9218SOL    HW129551   6.652  11.099   4.296
 9218SOL    HW229552   6.608  10.967   4.237
 9219SOL     OW29553   3.755  12.843   3.464
 9219SOL    HW129554   3.752  12.924   3.414
 9219SOL    HW229555   3.849  12.826   3.476
 9220SOL     OW29556   6.901  14.713   5.937
 9220SOL    HW129557   6.884  14.697   6.029
 9220SOL    HW229558   6.869  14.802   5.921
 9221SOL     OW29559  12.698   1.351  14.526
 9221SOL    HW129560  12.748   1.306  14.457
 9221SOL    HW229561  12.628   1.396  14.479
 9222SOL     OW29562   7.442   3.786   5.622
 9222SOL    HW129563   7.431   3.865   5.676
 9222SOL    HW229564   7.420   3.714   5.681
 9223SOL     OW29565  11.531  10.152  10.178
 9223SOL    HW129566  11.457  10.099  10.146
 9223SOL    HW229567  11.595  10.149  10.107
 9224SOL     OW29568   5.790   3.745   0.560
 9224SOL    HW129569   5.766   3.779   0.646
 9224SOL    HW229570   5.874   3.787   0.541
 9225SOL     OW29571   5.335   9.318   1.385
 9225SOL    HW129572   5.403   9.311   1.318
 9225SOL    HW229573   5.260   9.272   1.348
 9226SOL     OW29574  14.854  13.990   7.534
 9226SOL    HW129575  14.797  13.917   7.554
 9226SOL    HW229576  14.820  14.026   7.452
 9227SOL     OW29577   4.669   7.753   9.561
 9227SOL    HW129578   4.726   7.727   9.489
 9227SOL    HW229579   4.658   7.674   9.613
 9228SOL     OW29580   8.515   9.803  11.937
 9228SOL    HW129581   8.490   9.850  11.858
 9228SOL    HW229582   8.480   9.855  12.009
 9229SOL     OW29583   5.390  11.145   6.924
 9229SOL    HW129584   5.344  11.062   6.939
 9229SOL    HW229585   5.393  11.186   7.011
 9230SOL     OW29586   9.074   0.945  12.932
 9230SOL    HW129587   9.017   0.996  12.875
 9230SOL    HW229588   9.125   1.010  12.980
 9231SOL     OW29589   6.391   3.600   4.374
 9231SOL    HW129590   6.428   3.630   4.457
 9231SOL    HW229591   6.440   3.648   4.307
 9232SOL     OW29592   6.443  11.343  10.644
 9232SOL    HW129593   6.526  11.387  10.661
 9232SOL    HW229594   6.434  11.346  10.549
 9233SOL     OW29595   0.386  12.253   5.636
 9233SOL    HW129596   0.431  12.175   5.603
 9233SOL    HW229597   0.294  12.237   5.616
 9234SOL     OW29598  14.131   2.016   5.117
 9234SOL    HW129599  14.054   2.065   5.089
 9234SOL    HW229600  14.180   2.001   5.036
 9235SOL     OW29601  10.742   1.066   0.932
 9235SOL    HW129602  10.738   1.137   0.869
 9235SOL    HW229603  10.694   0.994   0.891
 9236SOL     OW29604   5.434   4.878   0.395
 9236SOL    HW129605   5.491   4.890   0.470
 9236SOL    HW229606   5.490   4.894   0.319
 9237SOL     OW29607   0.052  10.607   8.047
 9237SOL    HW129608  14.867  10.538   8.039
 9237SOL    HW229609   0.082  10.622   7.958
 9238SOL     OW29610  11.854  13.440   5.088
 9238SOL    HW129611  11.910  13.429   5.164
 9238SOL    HW229612  11.890  13.516   5.042
 9239SOL     OW29613   1.876   8.893   9.797
 9239SOL    HW129614   1.846   8.886   9.707
 9239SOL    HW229615   1.852   8.982   9.824
 9240SOL     OW29616  13.820   7.204   3.080
 9240SOL    HW129617  13.772   7.228   3.159
 9240SOL    HW229618  13.875   7.130   3.107
 9241SOL     OW29619   9.436   8.019   8.256
 9241SOL    HW129620   9.522   8.047   8.226
 9241SOL    HW229621   9.452   7.936   8.301
 9242SOL     OW29622  14.191   1.356   5.602
 9242SOL    HW129623  14.097   1.375   5.597
 9242SOL    HW229624  14.214   1.375   5.693
 9243SOL     OW29625   7.215   8.027   3.253
 9243SOL    HW129626   7.258   7.943   3.268
 9243SOL    HW229627   7.252   8.058   3.170
 9244SOL     OW29628   5.390   0.134  12.286
 9244SOL    HW129629   5.468   0.093  12.248
 9244SOL    HW229630   5.412   0.146  12.378
 9245SOL     OW29631   2.172   1.665   1.828
 9245SOL    HW129632   2.105   1.614   1.873
 9245SOL    HW229633   2.230   1.696   1.898
 9246SOL     OW29634   5.376   3.658   0.337
 9246SOL    HW129635   5.296   3.635   0.288
 9246SOL    HW229636   5.366   3.752   0.355
 9247SOL     OW29637   2.353   6.126  13.720
 9247SOL    HW129638   2.387   6.212  13.747
 9247SOL    HW229639   2.258   6.138  13.716
 9248SOL     OW29640  13.317   0.220   7.864
 9248SOL    HW129641  13.281   0.134   7.842
 9248SOL    HW229642  13.322   0.220   7.959
 9249SOL     OW29643   6.125   1.766   8.694
 9249SOL    HW129644   6.205   1.759   8.642
 9249SOL    HW229645   6.143   1.716   8.773
 9250SOL     OW29646   6.894  10.045   2.360
 9250SOL    HW129647   6.825  10.108   2.382
 9250SOL    HW229648   6.854   9.988   2.293
 9251SOL     OW29649   3.982   9.716   7.595
 9251SOL    HW129650   4.005   9.640   7.649
 9251SOL    HW229651   3.928   9.680   7.525
 9252SOL     OW29652   0.126  10.345  13.455
 9252SOL    HW129653   0.218  10.330  13.433
 9252SOL    HW229654   0.078  10.293  13.390
 9253SOL     OW29655   0.214   2.206  11.922
 9253SOL    HW129656   0.126   2.194  11.956
 9253SOL    HW229657   0.221   2.146  11.848
 9254SOL     OW29658   6.122   6.772  13.881
 9254SOL    HW129659   6.069   6.694  13.866
 9254SOL    HW229660   6.208   6.738  13.906
 9255SOL     OW29661   9.867  10.877   4.442
 9255SOL    HW129662   9.909  10.811   4.387
 9255SOL    HW229663   9.792  10.907   4.391
 9256SOL     OW29664  11.658  13.022  12.514
 9256SOL    HW129665  11.629  13.067  12.435
 9256SOL    HW229666  11.727  12.963  12.483
 9257SOL     OW29667  14.565   6.027   7.122
 9257SOL    HW129668  14.554   6.020   7.027
 9257SOL    HW229669  14.652   5.992   7.139
 9258SOL     OW29670   6.907  12.832  14.802
 9258SOL    HW129671   6.885  12.918  14.767
 9258SOL    HW229672   6.877  12.835   0.012
 9259SOL     OW29673  11.764   9.429   0.140
 9259SOL    HW129674  11.689   9.376   0.168
 9259SOL    HW229675  11.738   9.465   0.056
 9260SOL     OW29676   7.491   2.240  11.327
 9260SOL    HW129677   7.397   2.224  11.324
 9260SOL    HW229678   7.516   2.221  11.417
 9261SOL     OW29679  13.967  13.056   1.852
 9261SOL    HW129680  13.929  13.140   1.878
 9261SOL    HW229681  13.892  13.004   1.823
 9262SOL     OW29682  12.925   1.237   5.549
 9262SOL    HW129683  12.853   1.204   5.603
 9262SOL    HW229684  12.995   1.257   5.612
 9263SOL     OW29685   3.188  12.567   1.316
 9263SOL    HW129686   3.283  12.568   1.325
 9263SOL    HW229687   3.159  12.500   1.378
 9264SOL     OW29688  14.270   5.398   4.702
 9264SOL    HW129689  14.193   5.450   4.725
 9264SOL    HW229690  14.297   5.358   4.785
 9265SOL     OW29691   0.893   0.218   1.582
 9265SOL    HW129692   0.925   0.200   1.671
 9265SOL    HW229693   0.973   0.225   1.529
 9266SOL     OW29694   6.206   8.359   2.954
 9266SOL    HW129695   6.119   8.326   2.931
 9266SOL    HW229696   6.205   8.364   3.049
 9267SOL     OW29697  11.146   7.553   3.421
 9267SOL    HW129698  11.146   7.482   3.357
 9267SOL    HW229699  11.085   7.523   3.489
 9268SOL     OW29700  13.660   7.643  10.200
 9268SOL    HW129701  13.598   7.650  10.127
 9268SOL    HW229702  13.621   7.697  10.269
 9269SOL     OW29703   9.315   7.517  12.345
 9269SOL    HW129704   9.362   7.442  12.307
 9269SOL    HW229705   9.223   7.497  12.330
 9270SOL     OW29706   6.242   2.539   2.742
 9270SOL    HW129707   6.160   2.571   2.781
 9270SOL    HW229708   6.213   2.480   2.672
 9271SOL     OW29709   3.905   1.398   7.899
 9271SOL    HW129710   3.894   1.457   7.825
 9271SOL    HW229711   3.823   1.403   7.947
 9272SOL     OW29712  12.576   9.159  14.818
 9272SOL    HW129713  12.569   9.122  14.730
 9272SOL    HW229714  12.527   9.099  14.873
 9273SOL     OW29715   6.678  12.300   4.008
 9273SOL    HW129716   6.688  12.342   3.923
 9273SOL    HW229717   6.673  12.374   4.070
 9274SOL     OW29718   9.905   7.907  10.022
 9274SOL    HW129719   9.891   7.824   9.977
 9274SOL    HW229720   9.941   7.882  10.107
 9275SOL     OW29721  14.713  11.499  11.181
 9275SOL    HW129722  14.743  11.421  11.133
 9275SOL    HW229723  14.722  11.571  11.119
 9276SOL     OW29724  11.309   4.645   2.034
 9276SOL    HW129725  11.319   4.671   1.942
 9276SOL    HW229726  11.236   4.700   2.066
 9277SOL     OW29727   5.347  10.070   9.020
 9277SOL    HW129728   5.396  10.000   9.064
 9277SOL    HW229729   5.303  10.117   9.091
 9278SOL     OW29730   9.809   5.725   8.706
 9278SOL    HW129731   9.834   5.802   8.655
 9278SOL    HW229732   9.873   5.659   8.682
 9279SOL     OW29733   9.677   0.320   7.585
 9279SOL    HW129734   9.648   0.294   7.497
 9279SOL    HW229735   9.596   0.340   7.632
 9280SOL     OW29736   3.203   0.578   6.839
 9280SOL    HW129737   3.163   0.642   6.780
 9280SOL    HW229738   3.141   0.568   6.911
 9281SOL     OW29739  12.988   0.904   4.803
 9281SOL    HW129740  13.014   0.812   4.803
 9281SOL    HW229741  12.989   0.929   4.896
 9282SOL     OW29742   6.306   5.245   8.021
 9282SOL    HW129743   6.367   5.318   8.020
 9282SOL    HW229744   6.343   5.180   7.961
 9283SOL     OW29745  10.158  13.799   9.473
 9283SOL    HW129746  10.115  13.716   9.497
 9283SOL    HW229747  10.121  13.821   9.388
 9284SOL     OW29748   9.241   6.712   3.008
 9284SOL    HW129749   9.148   6.705   2.985
 9284SOL    HW229750   9.284   6.647   2.954
 9285SOL     OW29751   1.468  11.636   3.170
 9285SOL    HW129752   1.388  11.616   3.219
 9285SOL    HW229753   1.522  11.558   3.180
 9286SOL     OW29754  11.401  14.497   1.248
 9286SOL    HW129755  11.473  14.520   1.307
 9286SOL    HW229756  11.417  14.550   1.169
 9287SOL     OW29757   1.211  14.675   3.227
 9287SOL    HW129758   1.185  14.587   3.202
 9287SOL    HW229759   1.165  14.732   3.166
 9288SOL     OW29760   6.600   2.256   4.803
 9288SOL    HW129761   6.602   2.300   4.718
 9288SOL    HW229762   6.560   2.319   4.862
 9289SOL     OW29763   4.670   4.802   5.138
 9289SOL    HW129764   4.608   4.824   5.208
 9289SOL    HW229765   4.653   4.867   5.069
 9290SOL     OW29766   0.710   2.996   0.420
 9290SOL    HW129767   0.638   2.999   0.358
 9290SOL    HW229768   0.676   2.946   0.494
 9291SOL     OW29769   9.543   9.679   8.897
 9291SOL    HW129770   9.461   9.692   8.945
 9291SOL    HW229771   9.563   9.764   8.859
 9292SOL     OW29772   8.105   4.556   4.411
 9292SOL    HW129773   8.075   4.545   4.502
 9292SOL    HW229774   8.060   4.487   4.363
 9293SOL     OW29775   4.133  14.196   0.417
 9293SOL    HW129776   4.077  14.143   0.474
 9293SOL    HW229777   4.122  14.286   0.449
 9294SOL     OW29778  12.745   8.467  12.520
 9294SOL    HW129779  12.805   8.402  12.483
 9294SOL    HW229780  12.715   8.517  12.444
 9295SOL     OW29781  11.114   7.423   7.057
 9295SOL    HW129782  11.107   7.466   7.142
 9295SOL    HW229783  11.200   7.381   7.057
 9296SOL     OW29784   7.806   8.802   5.926
 9296SOL    HW129785   7.841   8.791   6.015
 9296SOL    HW229786   7.733   8.863   5.937
 9297SOL     OW29787   6.172   8.096   1.614
 9297SOL    HW129788   6.121   8.170   1.580
 9297SOL    HW229789   6.242   8.084   1.550
 9298SOL     OW29790   2.824  13.965   7.245
 9298SOL    HW129791   2.872  14.047   7.244
 9298SOL    HW229792   2.749  13.982   7.303
 9299SOL     OW29793   1.833   2.080  12.692
 9299SOL    HW129794   1.792   1.997  12.720
 9299SOL    HW229795   1.765   2.146  12.708
 9300SOL     OW29796   8.731   0.077   3.338
 9300SOL    HW129797   8.779   0.152   3.374
 9300SOL    HW229798   8.716   0.102   3.246
 9301SOL     OW29799   2.520   3.261   7.310
 9301SOL    HW129800   2.543   3.342   7.263
 9301SOL    HW229801   2.501   3.290   7.400
 9302SOL     OW29802   3.355   4.367  11.053
 9302SOL    HW129803   3.419   4.401  10.991
 9302SOL    HW229804   3.289   4.324  10.998
 9303SOL     OW29805   6.029  13.056  10.325
 9303SOL    HW129806   5.960  13.037  10.389
 9303SOL    HW229807   5.982  13.087  10.248
 9304SOL     OW29808  10.238  11.449   9.663
 9304SOL    HW129809  10.327  11.475   9.685
 9304SOL    HW229810  10.247  11.365   9.618
 9305SOL     OW29811  12.054  10.364   9.802
 9305SOL    HW129812  12.126  10.422   9.778
 9305SOL    HW229813  12.011  10.343   9.719
 9306SOL     OW29814   9.920  10.557   4.730
 9306SOL    HW129815   9.890  10.502   4.802
 9306SOL    HW229816   9.857  10.629   4.727
 9307SOL     OW29817   6.823   8.052  13.047
 9307SOL    HW129818   6.732   8.066  13.019
 9307SOL    HW229819   6.875   8.106  12.988
 9308SOL     OW29820   5.892  12.307   2.438
 9308SOL    HW129821   5.867  12.301   2.346
 9308SOL    HW229822   5.978  12.350   2.437
 9309SOL     OW29823   4.670   2.791   2.752
 9309SOL    HW129824   4.585   2.826   2.776
 9309SOL    HW229825   4.650   2.711   2.703
 9310SOL     OW29826  12.263   4.497   0.528
 9310SOL    HW129827  12.265   4.564   0.460
 9310SOL    HW229828  12.317   4.533   0.599
 9311SOL     OW29829   0.446   7.108   7.417
 9311SOL    HW129830   0.492   7.032   7.383
 9311SOL    HW229831   0.431   7.163   7.341
 9312SOL     OW29832   9.516  11.235   4.663
 9312SOL    HW129833   9.591  11.192   4.620
 9312SOL    HW229834   9.520  11.325   4.632
 9313SOL     OW29835  12.623  10.649   9.132
 9313SOL    HW129836  12.540  10.675   9.171
 9313SOL    HW229837  12.635  10.558   9.159
 9314SOL     OW29838   2.008  12.146   2.448
 9314SOL    HW129839   2.026  12.240   2.440
 9314SOL    HW229840   1.956  12.126   2.370
 9315SOL     OW29841  10.238  12.075   7.470
 9315SOL    HW129842  10.193  12.008   7.419
 9315SOL    HW229843  10.331  12.061   7.451
 9316SOL     OW29844  13.342   3.575   6.363
 9316SOL    HW129845  13.296   3.638   6.307
 9316SOL    HW229846  13.336   3.612   6.451
 9317SOL     OW29847   1.246   0.500   8.157
 9317SOL    HW129848   1.319   0.558   8.182
 9317SOL    HW229849   1.288   0.418   8.132
 9318SOL     OW29850   2.287  14.313   3.029
 9318SOL    HW129851   2.340  14.277   3.100
 9318SOL    HW229852   2.197  14.308   3.062
 9319SOL     OW29853   4.785   3.242   6.353
 9319SOL    HW129854   4.840   3.306   6.308
 9319SOL    HW229855   4.740   3.197   6.282
 9320SOL     OW29856   2.777   5.004  13.142
 9320SOL    HW129857   2.790   5.031  13.233
 9320SOL    HW229858   2.775   4.909  13.145
 9321SOL     OW29859  13.250  14.586  11.713
 9321SOL    HW129860  13.182  14.580  11.780
 9321SOL    HW229861  13.259  14.497  11.679
 9322SOL     OW29862   3.163   1.862  11.743
 9322SOL    HW129863   3.173   1.955  11.724
 9322SOL    HW229864   3.172   1.818  11.658
 9323SOL     OW29865   1.648   8.233   9.060
 9323SOL    HW129866   1.737   8.232   9.024
 9323SOL    HW229867   1.620   8.142   9.057
 9324SOL     OW29868   6.336   9.896   6.996
 9324SOL    HW129869   6.397   9.904   6.923
 9324SOL    HW229870   6.368   9.820   7.045
 9325SOL     OW29871   2.190   9.223   1.839
 9325SOL    HW129872   2.191   9.226   1.935
 9325SOL    HW229873   2.127   9.153   1.819
 9326SOL     OW29874   4.567   6.171  10.085
 9326SOL    HW129875   4.534   6.091  10.127
 9326SOL    HW229876   4.488   6.222  10.067
 9327SOL     OW29877   1.727  12.922   6.865
 9327SOL    HW129878   1.649  12.972   6.888
 9327SOL    HW229879   1.701  12.871   6.789
 9328SOL     OW29880   4.141   5.257   4.718
 9328SOL    HW129881   4.101   5.339   4.744
 9328SOL    HW229882   4.164   5.269   4.626
 9329SOL     OW29883   4.672   6.956   6.011
 9329SOL    HW129884   4.742   7.008   5.972
 9329SOL    HW229885   4.634   7.013   6.077
 9330SOL     OW29886   3.127   2.962   0.380
 9330SOL    HW129887   3.160   3.013   0.453
 9330SOL    HW229888   3.191   2.891   0.369
 9331SOL     OW29889   4.321   2.710   4.669
 9331SOL    HW129890   4.362   2.649   4.731
 9331SOL    HW229891   4.250   2.751   4.719
 9332SOL     OW29892  10.796   9.794   7.864
 9332SOL    HW129893  10.772   9.798   7.771
 9332SOL    HW229894  10.757   9.873   7.902
 9333SOL     OW29895   3.782   0.641  13.331
 9333SOL    HW129896   3.730   0.699  13.386
 9333SOL    HW229897   3.800   0.692  13.252
 9334SOL     OW29898   0.475   3.927  14.443
 9334SOL    HW129899   0.408   3.895  14.382
 9334SOL    HW229900   0.557   3.920  14.394
 9335SOL     OW29901   6.958  11.306   1.850
 9335SOL    HW129902   6.934  11.379   1.906
 9335SOL    HW229903   7.025  11.340   1.791
 9336SOL     OW29904  12.867   6.259   1.346
 9336SOL    HW129905  12.813   6.243   1.269
 9336SOL    HW229906  12.837   6.195   1.410
 9337SOL     OW29907  11.408   9.050   2.991
 9337SOL    HW129908  11.488   9.083   3.032
 9337SOL    HW229909  11.352   9.025   3.064
 9338SOL     OW29910   4.620   6.317   2.634
 9338SOL    HW129911   4.582   6.244   2.683
 9338SOL    HW229912   4.589   6.395   2.679
 9339SOL     OW29913   3.740   9.204   4.904
 9339SOL    HW129914   3.762   9.119   4.942
 9339SOL    HW229915   3.794   9.267   4.951
 9340SOL     OW29916   9.951   4.752   2.259
 9340SOL    HW129917  10.036   4.739   2.301
 9340SOL    HW229918   9.889   4.756   2.332
 9341SOL     OW29919   9.806  11.634   3.377
 9341SOL    HW129920   9.844  11.604   3.460
 9341SOL    HW229921   9.866  11.600   3.310
 9342SOL     OW29922   9.650   8.791   2.921
 9342SOL    HW129923   9.732   8.744   2.903
 9342SOL    HW229924   9.659   8.820   3.011
 9343SOL     OW29925  12.764   2.528   9.478
 9343SOL    HW129926  12.802   2.498   9.396
 9343SOL    HW229927  12.671   2.541   9.459
 9344SOL     OW29928   7.806  14.309   6.411
 9344SOL    HW129929   7.806  14.248   6.338
 9344SOL    HW229930   7.862  14.268   6.477
 9345SOL     OW29931  14.301  11.691   5.127
 9345SOL    HW129932  14.305  11.631   5.053
 9345SOL    HW229933  14.218  11.672   5.170
 9346SOL     OW29934   7.459   2.137   9.155
 9346SOL    HW129935   7.543   2.145   9.110
 9346SOL    HW229936   7.399   2.100   9.090
 9347SOL     OW29937   7.218   2.602   2.220
 9347SOL    HW129938   7.129   2.597   2.186
 9347SOL    HW229939   7.235   2.514   2.254
 9348SOL     OW29940  14.628   0.039   3.613
 9348SOL    HW129941  14.693   0.017   3.546
 9348SOL    HW229942  14.630  14.845   3.673
 9349SOL     OW29943  10.499  11.026  14.332
 9349SOL    HW129944  10.446  11.057  14.405
 9349SOL    HW229945  10.435  10.993  14.269
 9350SOL     OW29946   4.191  14.424   2.854
 9350SOL    HW129947   4.254  14.466   2.795
 9350SOL    HW229948   4.226  14.337   2.869
 9351SOL     OW29949  12.838   5.772   2.719
 9351SOL    HW129950  12.765   5.796   2.776
 9351SOL    HW229951  12.916   5.788   2.773
 9352SOL     OW29952   3.105   8.580   4.780
 9352SOL    HW129953   3.016   8.547   4.765
 9352SOL    HW229954   3.153   8.557   4.701
 9353SOL     OW29955   8.019   0.121   6.804
 9353SOL    HW129956   8.086   0.069   6.759
 9353SOL    HW229957   8.006   0.076   6.888
 9354SOL     OW29958   6.478   6.486  13.260
 9354SOL    HW129959   6.458   6.580  13.254
 9354SOL    HW229960   6.405   6.443  13.216
 9355SOL     OW29961   6.359  14.508   5.957
 9355SOL    HW129962   6.454  14.497   5.965
 9355SOL    HW229963   6.326  14.505   6.046
 9356SOL     OW29964  13.186  10.843   3.863
 9356SOL    HW129965  13.092  10.830   3.867
 9356SOL    HW229966  13.221  10.795   3.938
 9357SOL     OW29967  14.594   3.818   5.376
 9357SOL    HW129968  14.603   3.798   5.469
 9357SOL    HW229969  14.560   3.738   5.337
 9358SOL     OW29970   0.503   8.526   3.600
 9358SOL    HW129971   0.570   8.565   3.656
 9358SOL    HW229972   0.420   8.545   3.645
 9359SOL     OW29973   9.172   3.968  13.008
 9359SOL    HW129974   9.201   3.948  12.919
 9359SOL    HW229975   9.109   4.039  12.997
 9360SOL     OW29976   7.847   2.208  13.305
 9360SOL    HW129977   7.839   2.248  13.392
 9360SOL    HW229978   7.775   2.245  13.255
 9361SOL     OW29979  10.326  12.084   0.666
 9361SOL    HW129980  10.379  12.013   0.703
 9361SOL    HW229981  10.360  12.095   0.577
 9362SOL     OW29982  14.524   9.669  10.582
 9362SOL    HW129983  14.455   9.681  10.517
 9362SOL    HW229984  14.514   9.745  10.640
 9363SOL     OW29985   3.359  11.216   7.890
 9363SOL    HW129986   3.354  11.123   7.867
 9363SOL    HW229987   3.433  11.249   7.839
 9364SOL     OW29988  13.790   4.006  13.182
 9364SOL    HW129989  13.876   3.966  13.175
 9364SOL    HW229990  13.806   4.099  13.168
 9365SOL     OW29991   1.783   8.299   3.238
 9365SOL    HW129992   1.851   8.314   3.304
 9365SOL    HW229993   1.831   8.298   3.155
 9366SOL     OW29994  12.705   3.074   8.935
 9366SOL    HW129995  12.679   3.067   9.027
 9366SOL    HW229996  12.668   2.996   8.894
 9367SOL     OW29997   6.762   4.131   0.481
 9367SOL    HW129998   6.668   4.117   0.489
 9367SOL    HW229999   6.787   4.177   0.561
 9368SOL     OW30000  13.989   8.356   8.922
 9368SOL    HW130001  14.007   8.358   9.016
 9368SOL    HW230002  13.894   8.357   8.915
 9369SOL     OW30003   4.690   2.083  11.317
 9369SOL    HW130004   4.603   2.124  11.312
 9369SOL    HW230005   4.674   1.990  11.300
 9370SOL     OW30006   3.860   0.597   4.704
 9370SOL    HW130007   3.827   0.543   4.776
 9370SOL    HW230008   3.791   0.594   4.638
 9371SOL     OW30009  10.525   9.025  14.326
 9371SOL    HW130010  10.433   9.002  14.314
 9371SOL    HW230011  10.572   8.969  14.264
 9372SOL     OW30012   1.183   1.462   3.502
 9372SOL    HW130013   1.166   1.556   3.513
 9372SOL    HW230014   1.274   1.451   3.528
 9373SOL     OW30015  12.891   4.254  10.722
 9373SOL    HW130016  12.849   4.324  10.772
 9373SOL    HW230017  12.974   4.238  10.768
 9374SOL     OW30018   8.133  11.540  10.460
 9374SOL    HW130019   8.227  11.539  10.475
 9374SOL    HW230020   8.094  11.522  10.546
 9375SOL     OW30021   1.557   5.119   0.092
 9375SOL    HW130022   1.643   5.100   0.053
 9375SOL    HW230023   1.509   5.037   0.085
 9376SOL     OW30024   0.928   6.959  11.152
 9376SOL    HW130025   1.011   6.994  11.184
 9376SOL    HW230026   0.861   7.014  11.194
 9377SOL     OW30027   9.414  12.275   7.212
 9377SOL    HW130028   9.490  12.250   7.265
 9377SOL    HW230029   9.447  12.276   7.122
 9378SOL     OW30030   1.938   1.029  12.606
 9378SOL    HW130031   1.925   1.094  12.538
 9378SOL    HW230032   1.902   0.948  12.570
 9379SOL     OW30033   9.053  14.156   6.492
 9379SOL    HW130034   8.982  14.097   6.517
 9379SOL    HW230035   9.119  14.143   6.560
 9380SOL     OW30036   4.868   2.106   6.585
 9380SOL    HW130037   4.795   2.123   6.525
 9380SOL    HW230038   4.830   2.120   6.672
 9381SOL     OW30039   0.460  14.780   6.140
 9381SOL    HW130040   0.496  14.735   6.217
 9381SOL    HW230041   0.407  14.851   6.177
 9382SOL     OW30042   7.314  12.876   1.488
 9382SOL    HW130043   7.294  12.783   1.485
 9382SOL    HW230044   7.237  12.917   1.528
 9383SOL     OW30045   1.890  14.678  12.183
 9383SOL    HW130046   1.883  14.728  12.264
 9383SOL    HW230047   1.882  14.743  12.114
 9384SOL     OW30048   0.630   2.899   9.184
 9384SOL    HW130049   0.545   2.887   9.142
 9384SOL    HW230050   0.661   2.811   9.202
 9385SOL     OW30051   1.819   0.061   9.059
 9385SOL    HW130052   1.745   0.088   9.005
 9385SOL    HW230053   1.794   0.084   9.148
 9386SOL     OW30054   9.369  13.960   8.462
 9386SOL    HW130055   9.412  13.882   8.496
 9386SOL    HW230056   9.438  14.026   8.458
 9387SOL     OW30057   6.866   4.922  14.145
 9387SOL    HW130058   6.849   4.978  14.069
 9387SOL    HW230059   6.956   4.943  14.171
 9388SOL     OW30060  14.307  10.127   9.685
 9388SOL    HW130061  14.219  10.163   9.700
 9388SOL    HW230062  14.366  10.196   9.716
 9389SOL     OW30063   0.913  13.954  13.603
 9389SOL    HW130064   0.989  14.000  13.639
 9389SOL    HW230065   0.914  13.868  13.646
 9390SOL     OW30066   6.369   4.607   2.819
 9390SOL    HW130067   6.325   4.556   2.751
 9390SOL    HW230068   6.304   4.617   2.888
 9391SOL     OW30069  11.504   4.877   9.527
 9391SOL    HW130070  11.511   4.920   9.612
 9391SOL    HW230071  11.416   4.899   9.496
 9392SOL     OW30072   6.146   2.846   5.184
 9392SOL    HW130073   6.158   2.937   5.155
 9392SOL    HW230074   6.230   2.805   5.164
 9393SOL     OW30075   8.962   1.710  11.547
 9393SOL    HW130076   8.903   1.637  11.532
 9393SOL    HW230077   9.037   1.672  11.592
 9394SOL     OW30078   2.794  12.139   5.584
 9394SOL    HW130079   2.802  12.234   5.594
 9394SOL    HW230080   2.823  12.122   5.494
 9395SOL     OW30081  10.953   7.047   2.592
 9395SOL    HW130082  10.932   7.120   2.535
 9395SOL    HW230083  10.989   6.980   2.533
 9396SOL     OW30084   8.057   6.005  10.357
 9396SOL    HW130085   7.979   5.989  10.410
 9396SOL    HW230086   8.051   6.098  10.332
 9397SOL     OW30087   3.474  13.945   5.665
 9397SOL    HW130088   3.486  14.026   5.715
 9397SOL    HW230089   3.451  13.879   5.731
 9398SOL     OW30090   9.429   1.658   9.514
 9398SOL    HW130091   9.335   1.671   9.519
 9398SOL    HW230092   9.446   1.639   9.422
 9399SOL     OW30093   0.811  12.558  13.589
 9399SOL    HW130094   0.842  12.552  13.680
 9399SOL    HW230095   0.716  12.548  13.596
 9400SOL     OW30096   8.617  14.766   4.444
 9400SOL    HW130097   8.570  14.722   4.515
 9400SOL    HW230098   8.576  14.852   4.438
 9401SOL     OW30099   7.947   6.968   1.313
 9401SOL    HW130100   7.959   7.030   1.386
 9401SOL    HW230101   7.919   6.887   1.355
 9402SOL     OW30102  14.115  11.153  14.604
 9402SOL    HW130103  14.103  11.097  14.680
 9402SOL    HW230104  14.108  11.242  14.639
 9403SOL     OW30105   6.541   8.589  12.904
 9403SOL    HW130106   6.545   8.664  12.845
 9403SOL    HW230107   6.479   8.615  12.972
 9404SOL     OW30108   0.914   2.666   8.407
 9404SOL    HW130109   0.839   2.720   8.434
 9404SOL    HW230110   0.878   2.603   8.346
 9405SOL     OW30111   5.394  11.194  13.912
 9405SOL    HW130112   5.449  11.163  13.839
 9405SOL    HW230113   5.305  11.193  13.876
 9406SOL     OW30114  10.305  12.278   6.208
 9406SOL    HW130115  10.290  12.367   6.176
 9406SOL    HW230116  10.311  12.224   6.130
 9407SOL     OW30117   3.026  10.229   8.708
 9407SOL    HW130118   3.048  10.139   8.685
 9407SOL    HW230119   3.110  10.273   8.717
 9408SOL     OW30120   1.825  13.897  12.454
 9408SOL    HW130121   1.870  13.861  12.378
 9408SOL    HW230122   1.894  13.923  12.514
 9409SOL     OW30123  10.899   6.197   0.089
 9409SOL    HW130124  10.989   6.230   0.090
 9409SOL    HW230125  10.848   6.264   0.135
 9410SOL     OW30126  13.893   9.996   4.032
 9410SOL    HW130127  13.984   9.979   4.005
 9410SOL    HW230128  13.872  10.080   3.991
 9411SOL     OW30129   9.436   6.978   0.521
 9411SOL    HW130130   9.375   6.936   0.581
 9411SOL    HW230131   9.411   6.945   0.435
 9412SOL     OW30132  10.418   9.223  13.728
 9412SOL    HW130133  10.429   9.129  13.717
 9412SOL    HW230134  10.367   9.232  13.809
 9413SOL     OW30135  11.282   6.283   5.374
 9413SOL    HW130136  11.279   6.343   5.300
 9413SOL    HW230137  11.318   6.202   5.337
 9414SOL     OW30138   0.053  11.776   1.270
 9414SOL    HW130139  14.839  11.790   1.280
 9414SOL    HW230140   0.064  11.755   1.177
 9415SOL     OW30141   8.834  14.099   8.212
 9415SOL    HW130142   8.866  14.043   8.283
 9415SOL    HW230143   8.749  14.131   8.244
 9416SOL     OW30144   5.733  10.332   1.227
 9416SOL    HW130145   5.643  10.326   1.196
 9416SOL    HW230146   5.725  10.364   1.317
 9417SOL     OW30147   9.773   1.418  11.009
 9417SOL    HW130148   9.709   1.352  11.036
 9417SOL    HW230149   9.777   1.411  10.914
 9418SOL     OW30150   1.406   9.821   6.122
 9418SOL    HW130151   1.483   9.876   6.109
 9418SOL    HW230152   1.378   9.796   6.034
 9419SOL     OW30153   4.030   5.202  12.079
 9419SOL    HW130154   4.008   5.246  12.161
 9419SOL    HW230155   3.988   5.117  12.085
 9420SOL     OW30156  14.357   4.771  13.948
 9420SOL    HW130157  14.419   4.750  13.878
 9420SOL    HW230158  14.409   4.819  14.013
 9421SOL     OW30159   1.577   9.157   6.981
 9421SOL    HW130160   1.551   9.204   6.902
 9421SOL    HW230161   1.570   9.222   7.051
 9422SOL     OW30162  11.607   7.075   1.681
 9422SOL    HW130163  11.670   7.084   1.752
 9422SOL    HW230164  11.638   6.999   1.631
 9423SOL     OW30165   0.654   0.441  10.468
 9423SOL    HW130166   0.735   0.487  10.491
 9423SOL    HW230167   0.680   0.377  10.402
 9424SOL     OW30168  13.119  10.805   5.067
 9424SOL    HW130169  13.196  10.752   5.044
 9424SOL    HW230170  13.155  10.884   5.106
 9425SOL     OW30171  12.279  14.361   2.139
 9425SOL    HW130172  12.322  14.320   2.215
 9425SOL    HW230173  12.259  14.450   2.169
 9426SOL     OW30174   7.210  11.341   0.167
 9426SOL    HW130175   7.243  11.412   0.111
 9426SOL    HW230176   7.135  11.307   0.118
 9427SOL     OW30177   3.722  13.446   8.753
 9427SOL    HW130178   3.716  13.364   8.704
 9427SOL    HW230179   3.679  13.428   8.836
 9428SOL     OW30180   7.918  11.478   9.783
 9428SOL    HW130181   7.982  11.548   9.795
 9428SOL    HW230182   7.834  11.523   9.778
 9429SOL     OW30183   3.028   2.179   1.204
 9429SOL    HW130184   2.966   2.157   1.273
 9429SOL    HW230185   3.043   2.097   1.158
 9430SOL     OW30186  10.027  14.385   7.041
 9430SOL    HW130187  10.031  14.461   6.983
 9430SOL    HW230188   9.934  14.374   7.060
 9431SOL     OW30189   8.394   7.089   8.497
 9431SOL    HW130190   8.340   7.141   8.437
 9431SOL    HW230191   8.377   7.127   8.583
 9432SOL     OW30192   3.959  14.720   2.967
 9432SOL    HW130193   3.886  14.779   2.982
 9432SOL    HW230194   4.037  14.775   2.973
 9433SOL     OW30195  13.015  14.115   4.248
 9433SOL    HW130196  13.021  14.165   4.330
 9433SOL    HW230197  13.106  14.096   4.224
 9434SOL     OW30198  13.703   1.036  12.714
 9434SOL    HW130199  13.624   0.991  12.745
 9434SOL    HW230200  13.709   1.115  12.769
 9435SOL     OW30201   5.724   0.573   7.353
 9435SOL    HW130202   5.689   0.510   7.416
 9435SOL    HW230203   5.683   0.656   7.376
 9436SOL     OW30204  11.552   2.635   9.640
 9436SOL    HW130205  11.553   2.727   9.668
 9436SOL    HW230206  11.628   2.627   9.582
 9437SOL     OW30207  12.870   1.407  12.260
 9437SOL    HW130208  12.932   1.441  12.195
 9437SOL    HW230209  12.922   1.346  12.313
 9438SOL     OW30210  10.126   7.732  10.117
 9438SOL    HW130211  10.132   7.703  10.026
 9438SOL    HW230212  10.087   7.658  10.164
 9439SOL     OW30213   2.614  10.542   7.738
 9439SOL    HW130214   2.535  10.490   7.747
 9439SOL    HW230215   2.682  10.492   7.784
 9440SOL     OW30216  14.423   3.023  11.108
 9440SOL    HW130217  14.357   2.965  11.147
 9440SOL    HW230218  14.504   3.001  11.154
 9441SOL     OW30219  14.408   3.214  12.753
 9441SOL    HW130220  14.329   3.190  12.705
 9441SOL    HW230221  14.475   3.223  12.686
 9442SOL     OW30222  14.531  10.919   8.754
 9442SOL    HW130223  14.440  10.945   8.743
 9442SOL    HW230224  14.579  11.001   8.768
 9443SOL     OW30225   6.515  12.662   6.342
 9443SOL    HW130226   6.456  12.719   6.293
 9443SOL    HW230227   6.584  12.719   6.374
 9444SOL     OW30228   4.715   6.722   4.089
 9444SOL    HW130229   4.624   6.696   4.103
 9444SOL    HW230230   4.743   6.757   4.173
 9445SOL     OW30231   2.814   3.418   9.659
 9445SOL    HW130232   2.884   3.353   9.658
 9445SOL    HW230233   2.823   3.462   9.743
 9446SOL     OW30234   4.453   0.734   1.125
 9446SOL    HW130235   4.473   0.816   1.080
 9446SOL    HW230236   4.380   0.697   1.077
 9447SOL     OW30237  13.738  12.834   1.867
 9447SOL    HW130238  13.779  12.794   1.943
 9447SOL    HW230239  13.677  12.898   1.903
 9448SOL     OW30240   9.715   7.550   5.303
 9448SOL    HW130241   9.783   7.576   5.240
 9448SOL    HW230242   9.653   7.622   5.302
 9449SOL     OW30243   4.233   3.925  11.592
 9449SOL    HW130244   4.195   3.851  11.639
 9449SOL    HW230245   4.187   4.001  11.627
 9450SOL     OW30246   5.211   1.494   6.405
 9450SOL    HW130247   5.242   1.404   6.419
 9450SOL    HW230248   5.120   1.484   6.377
 9451SOL     OW30249   0.007   3.432   0.853
 9451SOL    HW130250  14.822   3.498   0.876
 9451SOL    HW230251  14.843   3.374   0.791
 9452SOL     OW30252   1.241   2.049   3.604
 9452SOL    HW130253   1.311   1.996   3.641
 9452SOL    HW230254   1.285   2.107   3.542
 9453SOL     OW30255   9.744   3.006  10.338
 9453SOL    HW130256   9.688   3.083  10.348
 9453SOL    HW230257   9.828   3.033  10.375
 9454SOL     OW30258   3.770  14.587   1.358
 9454SOL    HW130259   3.709  14.648   1.399
 9454SOL    HW230260   3.765  14.508   1.412
 9455SOL     OW30261  13.155   2.841   7.426
 9455SOL    HW130262  13.094   2.842   7.352
 9455SOL    HW230263  13.152   2.930   7.460
 9456SOL     OW30264  14.460  14.157   0.471
 9456SOL    HW130265  14.372  14.189   0.486
 9456SOL    HW230266  14.448  14.069   0.436
 9457SOL     OW30267   6.429  11.531   0.805
 9457SOL    HW130268   6.409  11.461   0.743
 9457SOL    HW230269   6.450  11.486   0.887
 9458SOL     OW30270   9.862   6.121   3.058
 9458SOL    HW130271   9.922   6.069   3.112
 9458SOL    HW230272   9.892   6.211   3.069
 9459SOL     OW30273   7.960   7.499  12.639
 9459SOL    HW130274   7.899   7.448  12.693
 9459SOL    HW230275   8.002   7.434  12.583
 9460SOL     OW30276   2.307   9.811   2.063
 9460SOL    HW130277   2.296   9.876   2.133
 9460SOL    HW230278   2.312   9.863   1.983
 9461SOL     OW30279   8.394   7.650  11.893
 9461SOL    HW130280   8.395   7.681  11.802
 9461SOL    HW230281   8.463   7.583  11.897
 9462SOL     OW30282   8.093   1.053  14.564
 9462SOL    HW130283   8.181   1.078  14.594
 9462SOL    HW230284   8.038   1.128  14.586
 9463SOL     OW30285   2.329   3.183  10.135
 9463SOL    HW130286   2.330   3.278  10.123
 9463SOL    HW230287   2.417   3.161  10.164
 9464SOL     OW30288   9.092  14.064  14.569
 9464SOL    HW130289   9.071  13.986  14.517
 9464SOL    HW230290   9.067  14.138  14.514
 9465SOL     OW30291  14.636   5.713   3.993
 9465SOL    HW130292  14.627   5.759   4.076
 9465SOL    HW230293  14.704   5.762   3.946
 9466SOL     OW30294   0.203  10.491   8.680
 9466SOL    HW130295   0.174  10.499   8.771
 9466SOL    HW230296   0.175  10.573   8.639
 9467SOL     OW30297   2.521   1.407  10.597
 9467SOL    HW130298   2.535   1.388  10.504
 9467SOL    HW230299   2.586   1.475  10.618
 9468SOL     OW30300   7.956  10.720   0.789
 9468SOL    HW130301   8.007  10.707   0.869
 9468SOL    HW230302   7.968  10.640   0.739
 9469SOL     OW30303   4.087   3.429   9.369
 9469SOL    HW130304   4.146   3.446   9.296
 9469SOL    HW230305   4.059   3.516   9.398
 9470SOL     OW30306   6.513   4.560   3.195
 9470SOL    HW130307   6.453   4.632   3.214
 9470SOL    HW230308   6.590   4.602   3.158
 9471SOL     OW30309   7.263  14.299   9.193
 9471SOL    HW130310   7.300  14.252   9.267
 9471SOL    HW230311   7.177  14.329   9.223
 9472SOL     OW30312   4.354   8.973   0.335
 9472SOL    HW130313   4.354   9.061   0.296
 9472SOL    HW230314   4.261   8.951   0.342
 9473SOL     OW30315   4.792   1.038  11.589
 9473SOL    HW130316   4.712   1.089  11.599
 9473SOL    HW230317   4.840   1.051  11.671
 9474SOL     OW30318   7.973  12.078   2.414
 9474SOL    HW130319   7.947  11.988   2.432
 9474SOL    HW230320   8.057  12.088   2.459
 9475SOL     OW30321   8.748  13.199  14.037
 9475SOL    HW130322   8.694  13.171  14.111
 9475SOL    HW230323   8.695  13.265  13.992
 9476SOL     OW30324   8.520  13.785   3.710
 9476SOL    HW130325   8.572  13.740   3.643
 9476SOL    HW230326   8.468  13.849   3.661
 9477SOL     OW30327   8.113  11.663   0.506
 9477SOL    HW130328   8.066  11.638   0.427
 9477SOL    HW230329   8.048  11.659   0.576
 9478SOL     OW30330  13.182   0.669   2.119
 9478SOL    HW130331  13.270   0.687   2.086
 9478SOL    HW230332  13.125   0.723   2.064
 9479SOL     OW30333   2.655  13.057  13.323
 9479SOL    HW130334   2.603  12.982  13.293
 9479SOL    HW230335   2.741  13.044  13.283
 9480SOL     OW30336   9.876   1.954  10.935
 9480SOL    HW130337   9.860   1.861  10.953
 9480SOL    HW230338   9.806   1.979  10.874
 9481SOL     OW30339  13.446  10.213   0.992
 9481SOL    HW130340  13.376  10.277   0.976
 9481SOL    HW230341  13.403  10.128   0.985
 9482SOL     OW30342  12.917   7.232   4.491
 9482SOL    HW130343  12.866   7.245   4.571
 9482SOL    HW230344  12.937   7.321   4.461
 9483SOL     OW30345   3.266  10.339  10.135
 9483SOL    HW130346   3.309  10.415  10.172
 9483SOL    HW230347   3.214  10.302  10.206
 9484SOL     OW30348   1.732  10.839  11.349
 9484SOL    HW130349   1.824  10.845  11.372
 9484SOL    HW230350   1.727  10.764  11.289
 9485SOL     OW30351   6.820  10.549   1.772
 9485SOL    HW130352   6.735  10.556   1.728
 9485SOL    HW230353   6.810  10.474   1.831
 9486SOL     OW30354   5.444   2.402   2.270
 9486SOL    HW130355   5.430   2.351   2.351
 9486SOL    HW230356   5.446   2.493   2.300
 9487SOL     OW30357  11.318   1.998   9.723
 9487SOL    HW130358  11.358   2.061   9.782
 9487SOL    HW230359  11.256   1.950   9.778
 9488SOL     OW30360   1.135   4.716  14.825
 9488SOL    HW130361   1.177   4.644  14.871
 9488SOL    HW230362   1.193   4.791  14.841
 9489SOL     OW30363   4.902   6.253   6.278
 9489SOL    HW130364   4.975   6.250   6.340
 9489SOL    HW230365   4.862   6.339   6.293
 9490SOL     OW30366  11.684   1.964   6.324
 9490SOL    HW130367  11.707   1.873   6.306
 9490SOL    HW230368  11.760   2.015   6.295
 9491SOL     OW30369  14.105   0.317   4.287
 9491SOL    HW130370  14.120   0.384   4.221
 9491SOL    HW230371  14.128   0.359   4.370
 9492SOL     OW30372  11.366   1.876  14.645
 9492SOL    HW130373  11.274   1.855  14.637
 9492SOL    HW230374  11.388   1.919  14.562
 9493SOL     OW30375   3.319   9.564   9.518
 9493SOL    HW130376   3.351   9.534   9.603
 9493SOL    HW230377   3.226   9.582   9.532
 9494SOL     OW30378   8.986   1.756   7.430
 9494SOL    HW130379   9.004   1.695   7.358
 9494SOL    HW230380   8.958   1.836   7.387
 9495SOL     OW30381   5.167   7.498   5.262
 9495SOL    HW130382   5.161   7.548   5.181
 9495SOL    HW230383   5.240   7.537   5.310
 9496SOL     OW30384   4.634   3.256   1.035
 9496SOL    HW130385   4.661   3.347   1.027
 9496SOL    HW230386   4.689   3.209   0.972
 9497SOL     OW30387   5.525   3.596   3.022
 9497SOL    HW130388   5.439   3.555   3.012
 9497SOL    HW230389   5.506   3.690   3.022
 9498SOL     OW30390  11.019   5.422   4.924
 9498SOL    HW130391  11.100   5.371   4.924
 9498SOL    HW230392  11.048   5.512   4.937
 9499SOL     OW30393  10.085   1.030   7.376
 9499SOL    HW130394   9.994   1.017   7.348
 9499SOL    HW230395  10.085   1.012   7.470
 9500SOL     OW30396   2.696  10.370  11.702
 9500SOL    HW130397   2.725  10.435  11.639
 9500SOL    HW230398   2.694  10.288  11.653
 9501SOL     OW30399   8.459   3.185   3.688
 9501SOL    HW130400   8.468   3.280   3.683
 9501SOL    HW230401   8.390   3.170   3.753
 9502SOL     OW30402  12.943   0.628   2.588
 9502SOL    HW130403  12.925   0.647   2.680
 9502SOL    HW230404  12.857   0.611   2.550
 9503SOL     OW30405   4.945   0.471   8.029
 9503SOL    HW130406   4.856   0.436   8.027
 9503SOL    HW230407   4.975   0.455   8.118
 9504SOL     OW30408   1.828   0.649   5.199
 9504SOL    HW130409   1.796   0.739   5.202
 9504SOL    HW230410   1.923   0.657   5.210
 9505SOL     OW30411   5.741   4.322   7.359
 9505SOL    HW130412   5.724   4.359   7.446
 9505SOL    HW230413   5.665   4.348   7.307
 9506SOL     OW30414   0.525   7.074  12.629
 9506SOL    HW130415   0.573   7.102  12.551
 9506SOL    HW230416   0.527   7.150  12.686
 9507SOL     OW30417   6.244   3.432  11.082
 9507SOL    HW130418   6.298   3.464  11.009
 9507SOL    HW230419   6.228   3.510  11.135
 9508SOL     OW30420   5.388   4.885   7.176
 9508SOL    HW130421   5.309   4.918   7.219
 9508SOL    HW230422   5.459   4.903   7.238
 9509SOL     OW30423   9.605  13.822   5.149
 9509SOL    HW130424   9.591  13.776   5.232
 9509SOL    HW230425   9.516  13.840   5.117
 9510SOL     OW30426  10.971   3.888  10.777
 9510SOL    HW130427  10.909   3.959  10.760
 9510SOL    HW230428  11.050   3.914  10.731
 9511SOL     OW30429  14.442   9.832  13.349
 9511SOL    HW130430  14.373   9.809  13.412
 9511SOL    HW230431  14.395   9.874  13.277
 9512SOL     OW30432  10.970   9.242   6.263
 9512SOL    HW130433  11.054   9.219   6.222
 9512SOL    HW230434  10.974   9.337   6.271
 9513SOL     OW30435  14.877   5.319   4.155
 9513SOL    HW130436   0.039   5.263   4.090
 9513SOL    HW230437  14.857   5.261   4.228
 9514SOL     OW30438   7.365   1.379   9.871
 9514SOL    HW130439   7.320   1.393   9.955
 9514SOL    HW230440   7.441   1.438   9.875
 9515SOL     OW30441   9.688   7.169   5.615
 9515SOL    HW130442   9.647   7.243   5.570
 9515SOL    HW230443   9.782   7.185   5.608
 9516SOL     OW30444   2.924  12.357  10.580
 9516SOL    HW130445   2.891  12.281  10.629
 9516SOL    HW230446   2.846  12.397  10.543
 9517SOL     OW30447  10.612  11.180   9.563
 9517SOL    HW130448  10.602  11.271   9.536
 9517SOL    HW230449  10.588  11.129   9.486
 9518SOL     OW30450   1.483  12.671   7.498
 9518SOL    HW130451   1.500  12.750   7.448
 9518SOL    HW230452   1.475  12.602   7.433
 9519SOL     OW30453   3.979  14.178   3.808
 9519SOL    HW130454   3.891  14.216   3.798
 9519SOL    HW230455   4.026  14.209   3.730
 9520SOL     OW30456   2.082   0.636   3.484
 9520SOL    HW130457   2.078   0.540   3.478
 9520SOL    HW230458   2.018   0.659   3.551
 9521SOL     OW30459  12.978  11.431   0.773
 9521SOL    HW130460  12.964  11.341   0.802
 9521SOL    HW230461  13.073  11.442   0.777
 9522SOL     OW30462   7.713   9.667   0.852
 9522SOL    HW130463   7.673   9.754   0.856
 9522SOL    HW230464   7.715   9.637   0.943
 9523SOL     OW30465  11.131  13.142   2.325
 9523SOL    HW130466  11.222  13.131   2.353
 9523SOL    HW230467  11.122  13.084   2.249
 9524SOL     OW30468   9.520   9.494   2.232
 9524SOL    HW130469   9.517   9.563   2.167
 9524SOL    HW230470   9.496   9.537   2.314
 9525SOL     OW30471   4.665   3.608   5.002
 9525SOL    HW130472   4.690   3.551   5.075
 9525SOL    HW230473   4.743   3.660   4.984
 9526SOL     OW30474  10.526   7.331  10.412
 9526SOL    HW130475  10.604   7.380  10.439
 9526SOL    HW230476  10.473   7.326  10.492
 9527SOL     OW30477   9.685   9.352  12.316
 9527SOL    HW130478   9.776   9.361  12.288
 9527SOL    HW230479   9.687   9.285  12.384
 9528SOL     OW30480   6.824  14.697   7.043
 9528SOL    HW130481   6.768  14.771   7.021
 9528SOL    HW230482   6.824  14.695   7.139
 9529SOL     OW30483   3.751   4.243  12.746
 9529SOL    HW130484   3.731   4.332  12.716
 9529SOL    HW230485   3.792   4.201  12.671
 9530SOL     OW30486   8.991   0.797   6.919
 9530SOL    HW130487   8.999   0.842   7.003
 9530SOL    HW230488   9.082   0.782   6.892
 9531SOL     OW30489  11.378   6.586   1.813
 9531SOL    HW130490  11.333   6.626   1.888
 9531SOL    HW230491  11.399   6.660   1.756
 9532SOL     OW30492   1.052  10.693  12.238
 9532SOL    HW130493   1.038  10.786  12.219
 9532SOL    HW230494   1.139  10.689  12.277
 9533SOL     OW30495   1.350  10.430  14.876
 9533SOL    HW130496   1.317  10.376  14.805
 9533SOL    HW230497   1.438  10.457  14.848
 9534SOL     OW30498   5.524   2.107   8.312
 9534SOL    HW130499   5.468   2.053   8.256
 9534SOL    HW230500   5.595   2.134   8.254
 9535SOL     OW30501   8.401   8.649  13.407
 9535SOL    HW130502   8.315   8.634  13.446
 9535SOL    HW230503   8.430   8.563  13.376
 9536SOL     OW30504   7.086   1.575  14.174
 9536SOL    HW130505   7.031   1.534  14.241
 9536SOL    HW230506   7.162   1.517  14.168
 9537SOL     OW30507   9.382  10.455   0.955
 9537SOL    HW130508   9.444  10.527   0.962
 9537SOL    HW230509   9.356  10.438   1.046
 9538SOL     OW30510  10.843  14.747   3.597
 9538SOL    HW130511  10.925  14.796   3.599
 9538SOL    HW230512  10.826  14.725   3.689
 9539SOL     OW30513  13.382   0.836   0.998
 9539SOL    HW130514  13.364   0.914   0.945
 9539SOL    HW230515  13.415   0.870   1.081
 9540SOL     OW30516  14.569   4.928   1.351
 9540SOL    HW130517  14.663   4.920   1.363
 9540SOL    HW230518  14.543   5.002   1.405
 9541SOL     OW30519   0.380   0.952  14.581
 9541SOL    HW130520   0.467   0.946  14.542
 9541SOL    HW230521   0.392   0.924  14.672
 9542SOL     OW30522   3.974   1.126   7.843
 9542SOL    HW130523   4.063   1.160   7.839
 9542SOL    HW230524   3.918   1.204   7.838
 9543SOL     OW30525  10.705  14.134   6.977
 9543SOL    HW130526  10.782  14.078   6.974
 9543SOL    HW230527  10.731  14.208   7.031
 9544SOL     OW30528   1.292  10.286   4.310
 9544SOL    HW130529   1.367  10.256   4.362
 9544SOL    HW230530   1.325  10.363   4.263
 9545SOL     OW30531  13.441   4.520   4.047
 9545SOL    HW130532  13.391   4.556   3.974
 9545SOL    HW230533  13.406   4.431   4.058
 9546SOL     OW30534   0.062  10.126  10.302
 9546SOL    HW130535   0.004  10.141  10.377
 9546SOL    HW230536   0.039  10.195  10.240
 9547SOL     OW30537   2.663   0.534   0.130
 9547SOL    HW130538   2.668   0.449   0.086
 9547SOL    HW230539   2.750   0.573   0.117
 9548SOL     OW30540  12.523   9.105   5.478
 9548SOL    HW130541  12.561   9.087   5.565
 9548SOL    HW230542  12.544   9.027   5.427
 9549SOL     OW30543   7.140  13.048  11.198
 9549SOL    HW130544   7.093  13.064  11.280
 9549SOL    HW230545   7.086  13.089  11.131
 9550SOL     OW30546   8.150  10.915   6.042
 9550SOL    HW130547   8.242  10.890   6.038
 9550SOL    HW230548   8.150  11.005   6.073
 9551SOL     OW30549   0.547  11.402   6.812
 9551SOL    HW130550   0.526  11.335   6.746
 9551SOL    HW230551   0.526  11.361   6.896
 9552SOL     OW30552  10.152   2.799  12.678
 9552SOL    HW130553  10.156   2.895  12.674
 9552SOL    HW230554  10.243   2.772  12.688
 9553SOL     OW30555  14.384   4.458   0.204
 9553SOL    HW130556  14.304   4.493   0.244
 9553SOL    HW230557  14.394   4.507   0.123
 9554SOL     OW30558   2.570   8.207   4.245
 9554SOL    HW130559   2.595   8.159   4.165
 9554SOL    HW230560   2.493   8.257   4.220
 9555SOL     OW30561   4.728   5.093   9.047
 9555SOL    HW130562   4.731   5.026   9.116
 9555SOL    HW230563   4.635   5.104   9.029
 9556SOL     OW30564  10.858  10.518   2.046
 9556SOL    HW130565  10.788  10.575   2.077
 9556SOL    HW230566  10.815  10.435   2.026
 9557SOL     OW30567  12.763   1.442   2.278
 9557SOL    HW130568  12.826   1.470   2.344
 9557SOL    HW230569  12.678   1.449   2.321
 9558SOL     OW30570  13.086  12.280   9.847
 9558SOL    HW130571  13.161  12.221   9.847
 9558SOL    HW230572  13.047  12.270   9.934
 9559SOL     OW30573  10.973  11.911   6.074
 9559SOL    HW130574  10.955  12.005   6.069
 9559SOL    HW230575  11.008  11.897   6.161
 9560SOL     OW30576   2.074  10.301   2.400
 9560SOL    HW130577   2.094  10.248   2.477
 9560SOL    HW230578   1.996  10.260   2.362
 9561SOL     OW30579  13.903  12.554   8.765
 9561SOL    HW130580  13.863  12.509   8.839
 9561SOL    HW230581  13.830  12.583   8.711
 9562SOL     OW30582   4.358  13.708   9.802
 9562SOL    HW130583   4.411  13.639   9.763
 9562SOL    HW230584   4.303  13.663   9.866
 9563SOL     OW30585   6.413   0.682   6.418
 9563SOL    HW130586   6.417   0.774   6.445
 9563SOL    HW230587   6.468   0.636   6.481
 9564SOL     OW30588   0.582   6.733   4.755
 9564SOL    HW130589   0.618   6.770   4.674
 9564SOL    HW230590   0.536   6.654   4.727
 9565SOL     OW30591   7.104   4.914  13.445
 9565SOL    HW130592   7.049   4.935  13.370
 9565SOL    HW230593   7.079   4.977  13.512
 9566SOL     OW30594   3.053   3.708   0.277
 9566SOL    HW130595   3.140   3.676   0.300
 9566SOL    HW230596   2.997   3.676   0.348
 9567SOL     OW30597  12.244  12.918   0.065
 9567SOL    HW130598  12.326  12.908   0.114
 9567SOL    HW230599  12.215  13.007   0.085
 9568SOL     OW30600   8.807   5.603  10.878
 9568SOL    HW130601   8.772   5.618  10.790
 9568SOL    HW230602   8.731   5.609  10.935
 9569SOL     OW30603   5.069  12.755   0.361
 9569SOL    HW130604   4.975  12.737   0.369
 9569SOL    HW230605   5.110  12.697   0.425
 9570SOL     OW30606   8.322  11.169   6.440
 9570SOL    HW130607   8.280  11.122   6.512
 9570SOL    HW230608   8.379  11.104   6.399
 9571SOL     OW30609  14.047   3.024   5.112
 9571SOL    HW130610  14.070   2.947   5.061
 9571SOL    HW230611  14.129   3.073   5.120
 9572SOL     OW30612   7.547   6.213   7.078
 9572SOL    HW130613   7.512   6.129   7.052
 9572SOL    HW230614   7.541   6.268   7.000
 9573SOL     OW30615  11.959   7.849  12.155
 9573SOL    HW130616  12.039   7.826  12.203
 9573SOL    HW230617  11.982   7.928  12.107
 9574SOL     OW30618  14.245  12.386   8.911
 9574SOL    HW130619  14.318  12.433   8.873
 9574SOL    HW230620  14.225  12.433   8.992
 9575SOL     OW30621   7.512  12.932   4.138
 9575SOL    HW130622   7.439  12.979   4.179
 9575SOL    HW230623   7.580  12.998   4.126
 9576SOL     OW30624  14.267   0.965   7.595
 9576SOL    HW130625  14.291   0.949   7.504
 9576SOL    HW230626  14.238   0.880   7.628
 9577SOL     OW30627  14.020   7.525   3.585
 9577SOL    HW130628  14.054   7.442   3.550
 9577SOL    HW230629  14.033   7.518   3.680
 9578SOL     OW30630   8.491   1.605  14.245
 9578SOL    HW130631   8.569   1.605  14.301
 9578SOL    HW230632   8.475   1.698  14.227
 9579SOL     OW30633  12.823  10.131   5.347
 9579SOL    HW130634  12.732  10.134   5.375
 9579SOL    HW230635  12.871  10.171   5.419
 9580SOL     OW30636   3.980  12.829   7.634
 9580SOL    HW130637   3.919  12.793   7.569
 9580SOL    HW230638   3.952  12.920   7.646
 9581SOL     OW30639  13.031   5.471   1.474
 9581SOL    HW130640  13.037   5.395   1.417
 9581SOL    HW230641  13.033   5.435   1.563
 9582SOL     OW30642   7.650  12.335  10.949
 9582SOL    HW130643   7.610  12.390  10.882
 9582SOL    HW230644   7.603  12.357  11.030
 9583SOL     OW30645  12.363   7.596  11.457
 9583SOL    HW130646  12.300   7.576  11.388
 9583SOL    HW230647  12.314   7.649  11.519
 9584SOL     OW30648   3.166  12.150   9.316
 9584SOL    HW130649   3.207  12.080   9.367
 9584SOL    HW230650   3.221  12.226   9.331
 9585SOL     OW30651   6.098   1.493  11.976
 9585SOL    HW130652   6.191   1.514  11.964
 9585SOL    HW230653   6.061   1.570  12.018
 9586SOL     OW30654   7.333  10.218   0.919
 9586SOL    HW130655   7.376  10.164   0.985
 9586SOL    HW230656   7.405  10.260   0.872
 9587SOL     OW30657   5.311  10.959   2.402
 9587SOL    HW130658   5.339  10.958   2.310
 9587SOL    HW230659   5.216  10.970   2.398
 9588SOL     OW30660   4.603   2.929  13.398
 9588SOL    HW130661   4.592   2.932  13.303
 9588SOL    HW230662   4.534   2.985  13.433
 9589SOL     OW30663  11.497   1.156  11.236
 9589SOL    HW130664  11.422   1.213  11.216
 9589SOL    HW230665  11.571   1.199  11.193
 9590SOL     OW30666  12.442  13.757  11.707
 9590SOL    HW130667  12.525  13.709  11.706
 9590SOL    HW230668  12.402  13.736  11.622
 9591SOL     OW30669   4.233  11.023   3.821
 9591SOL    HW130670   4.140  11.008   3.840
 9591SOL    HW230671   4.244  10.990   3.732
 9592SOL     OW30672   8.815   1.822   1.742
 9592SOL    HW130673   8.907   1.846   1.734
 9592SOL    HW230674   8.766   1.902   1.720
 9593SOL     OW30675   0.744   0.298   5.809
 9593SOL    HW130676   0.775   0.387   5.791
 9593SOL    HW230677   0.819   0.254   5.849
 9594SOL     OW30678   4.109  12.600   9.248
 9594SOL    HW130679   4.085  12.526   9.304
 9594SOL    HW230680   4.036  12.607   9.187
 9595SOL     OW30681   5.442  10.931   6.562
 9595SOL    HW130682   5.472  10.863   6.502
 9595SOL    HW230683   5.348  10.936   6.548
 9596SOL     OW30684  12.256   6.605   6.012
 9596SOL    HW130685  12.320   6.643   5.951
 9596SOL    HW230686  12.247   6.671   6.080
 9597SOL     OW30687  12.322   4.016  11.239
 9597SOL    HW130688  12.314   4.110  11.254
 9597SOL    HW230689  12.379   4.008  11.163
 9598SOL     OW30690   2.104  10.754   5.350
 9598SOL    HW130691   2.096  10.682   5.413
 9598SOL    HW230692   2.026  10.745   5.294
 9599SOL     OW30693   7.022   4.864   2.356
 9599SOL    HW130694   7.086   4.927   2.323
 9599SOL    HW230695   6.949   4.870   2.294
 9600SOL     OW30696  14.225  11.377   5.496
 9600SOL    HW130697  14.301  11.410   5.449
 9600SOL    HW230698  14.188  11.310   5.439
 9601SOL     OW30699  10.519   1.108   2.704
 9601SOL    HW130700  10.426   1.087   2.711
 9601SOL    HW230701  10.554   1.046   2.641
 9602SOL     OW30702   7.263   7.417   2.954
 9602SOL    HW130703   7.297   7.445   3.039
 9602SOL    HW230704   7.308   7.473   2.890
 9603SOL     OW30705  14.864  14.502   3.284
 9603SOL    HW130706   0.021  14.502   3.372
 9603SOL    HW230707  14.785  14.449   3.291
 9604SOL     OW30708  11.737   1.125  11.634
 9604SOL    HW130709  11.800   1.179  11.586
 9604SOL    HW230710  11.691   1.187  11.691
 9605SOL     OW30711   5.487  14.519   6.426
 9605SOL    HW130712   5.503  14.593   6.367
 9605SOL    HW230713   5.558  14.524   6.490
 9606SOL     OW30714   8.663  11.173  12.151
 9606SOL    HW130715   8.612  11.208  12.077
 9606SOL    HW230716   8.650  11.079  12.146
 9607SOL     OW30717   3.224   5.712   8.555
 9607SOL    HW130718   3.254   5.796   8.522
 9607SOL    HW230719   3.132   5.727   8.580
 9608SOL     OW30720   6.470  10.014   6.568
 9608SOL    HW130721   6.419   9.939   6.599
 9608SOL    HW230722   6.443  10.087   6.624
 9609SOL     OW30723  12.292   9.424   2.034
 9609SOL    HW130724  12.245   9.355   2.079
 9609SOL    HW230725  12.254   9.505   2.068
 9610SOL     OW30726  12.436   0.681  10.474
 9610SOL    HW130727  12.356   0.648  10.434
 9610SOL    HW230728  12.507   0.635  10.428
 9611SOL     OW30729  13.922   7.431  12.224
 9611SOL    HW130730  13.907   7.525  12.220
 9611SOL    HW230731  13.930   7.412  12.318
 9612SOL     OW30732  13.299   9.966  12.789
 9612SOL    HW130733  13.210   9.933  12.776
 9612SOL    HW230734  13.293  10.025  12.863
 9613SOL     OW30735   0.532  14.504  13.913
 9613SOL    HW130736   0.575  14.512  13.998
 9613SOL    HW230737   0.603  14.507  13.850
 9614SOL     OW30738   1.018  11.409  12.444
 9614SOL    HW130739   0.996  11.490  12.398
 9614SOL    HW230740   0.964  11.342  12.401
 9615SOL     OW30741   6.248   8.443  13.047
 9615SOL    HW130742   6.308   8.369  13.039
 9615SOL    HW230743   6.229   8.468  12.957
 9616SOL     OW30744   1.345   9.320   8.674
 9616SOL    HW130745   1.278   9.342   8.739
 9616SOL    HW230746   1.311   9.240   8.633
 9617SOL     OW30747   4.687   8.392   6.108
 9617SOL    HW130748   4.662   8.471   6.059
 9617SOL    HW230749   4.630   8.323   6.074
 9618SOL     OW30750  12.754   7.416   2.669
 9618SOL    HW130751  12.727   7.508   2.672
 9618SOL    HW230752  12.836   7.414   2.718
 9619SOL     OW30753   5.745  13.809   2.409
 9619SOL    HW130754   5.740  13.890   2.461
 9619SOL    HW230755   5.795  13.749   2.464
 9620SOL     OW30756   2.627   0.656   8.814
 9620SOL    HW130757   2.562   0.699   8.868
 9620SOL    HW230758   2.711   0.681   8.852
 9621SOL     OW30759   7.012  14.330   0.380
 9621SOL    HW130760   7.000  14.236   0.365
 9621SOL    HW230761   6.959  14.348   0.458
 9622SOL     OW30762  11.556   4.314   2.093
 9622SOL    HW130763  11.611   4.376   2.141
 9622SOL    HW230764  11.567   4.231   2.139
 9623SOL     OW30765   3.957   9.502   0.968
 9623SOL    HW130766   3.909   9.424   0.942
 9623SOL    HW230767   4.048   9.483   0.946
 9624SOL     OW30768  10.663  10.824   4.309
 9624SOL    HW130769  10.661  10.874   4.391
 9624SOL    HW230770  10.665  10.732   4.337
 9625SOL     OW30771  10.434   3.498   7.615
 9625SOL    HW130772  10.522   3.535   7.616
 9625SOL    HW230773  10.383   3.556   7.559
 9626SOL     OW30774   8.547  10.772   4.776
 9626SOL    HW130775   8.562  10.862   4.747
 9626SOL    HW230776   8.576  10.770   4.867
 9627SOL     OW30777   0.811   5.995   5.223
 9627SOL    HW130778   0.834   6.083   5.194
 9627SOL    HW230779   0.889   5.942   5.206
 9628SOL     OW30780   7.891  10.574  13.205
 9628SOL    HW130781   7.927  10.522  13.277
 9628SOL    HW230782   7.823  10.519  13.167
 9629SOL     OW30783   4.582   4.675   6.193
 9629SOL    HW130784   4.517   4.741   6.171
 9629SOL    HW230785   4.602   4.691   6.285
 9630SOL     OW30786   8.031  14.055   9.398
 9630SOL    HW130787   7.986  14.131   9.361
 9630SOL    HW230788   7.961  13.995   9.424
 9631SOL     OW30789   3.072   7.030   5.887
 9631SOL    HW130790   3.101   7.032   5.978
 9631SOL    HW230791   3.106   7.111   5.849
 9632SOL     OW30792   9.437   4.732   6.735
 9632SOL    HW130793   9.447   4.816   6.690
 9632SOL    HW230794   9.349   4.702   6.711
 9633SOL     OW30795   2.817  12.590   3.934
 9633SOL    HW130796   2.802  12.615   4.025
 9633SOL    HW230797   2.880  12.654   3.902
 9634SOL     OW30798  12.630   5.878   1.177
 9634SOL    HW130799  12.564   5.809   1.168
 9634SOL    HW230800  12.663   5.891   1.088
 9635SOL     OW30801   3.475   8.061   2.069
 9635SOL    HW130802   3.462   8.136   2.126
 9635SOL    HW230803   3.558   8.079   2.025
 9636SOL     OW30804   8.297   6.617  13.958
 9636SOL    HW130805   8.267   6.617  14.049
 9636SOL    HW230806   8.227   6.661  13.910
 9637SOL     OW30807  11.430   5.338  13.413
 9637SOL    HW130808  11.369   5.270  13.441
 9637SOL    HW230809  11.502   5.291  13.373
 9638SOL     OW30810   3.097  11.862   3.438
 9638SOL    HW130811   3.128  11.851   3.528
 9638SOL    HW230812   3.115  11.954   3.418
 9639SOL     OW30813   9.520   6.434  13.275
 9639SOL    HW130814   9.566   6.356  13.243
 9639SOL    HW230815   9.454   6.400  13.335
 9640SOL     OW30816   2.992  11.533   3.184
 9640SOL    HW130817   3.063  11.595   3.199
 9640SOL    HW230818   2.985  11.485   3.267
 9641SOL     OW30819  10.394  11.583   8.991
 9641SOL    HW130820  10.444  11.518   9.042
 9641SOL    HW230821  10.321  11.607   9.048
 9642SOL     OW30822   1.588   7.243   0.157
 9642SOL    HW130823   1.671   7.228   0.113
 9642SOL    HW230824   1.580   7.171   0.219
 9643SOL     OW30825   9.721   5.659   9.093
 9643SOL    HW130826   9.811   5.689   9.104
 9643SOL    HW230827   9.719   5.574   9.136
 9644SOL     OW30828   7.581   9.738  11.101
 9644SOL    HW130829   7.535   9.790  11.167
 9644SOL    HW230830   7.617   9.664  11.149
 9645SOL     OW30831  14.480   9.966   4.522
 9645SOL    HW130832  14.460  10.056   4.495
 9645SOL    HW230833  14.441   9.911   4.453
 9646SOL     OW30834   6.482   6.427   4.563
 9646SOL    HW130835   6.435   6.389   4.638
 9646SOL    HW230836   6.416   6.478   4.517
 9647SOL     OW30837   4.628   0.282   4.998
 9647SOL    HW130838   4.685   0.358   5.007
 9647SOL    HW230839   4.547   0.317   4.960
 9648SOL     OW30840   6.164   3.716   4.749
 9648SOL    HW130841   6.135   3.767   4.824
 9648SOL    HW230842   6.085   3.701   4.698
 9649SOL     OW30843   2.245   0.380   5.319
 9649SOL    HW130844   2.297   0.315   5.367
 9649SOL    HW230845   2.288   0.387   5.234
 9650SOL     OW30846   1.037   8.791  14.276
 9650SOL    HW130847   0.967   8.835  14.228
 9650SOL    HW230848   1.101   8.860  14.293
 9651SOL     OW30849  14.719   2.102   5.814
 9651SOL    HW130850  14.713   2.061   5.728
 9651SOL    HW230851  14.761   2.186   5.798
 9652SOL     OW30852  10.302   5.463  13.639
 9652SOL    HW130853  10.299   5.368  13.628
 9652SOL    HW230854  10.326   5.496  13.552
 9653SOL     OW30855   4.193  11.508  11.654
 9653SOL    HW130856   4.233  11.465  11.729
 9653SOL    HW230857   4.117  11.454  11.633
 9654SOL     OW30858   1.295   0.352   3.619
 9654SOL    HW130859   1.261   0.418   3.679
 9654SOL    HW230860   1.386   0.340   3.646
 9655SOL     OW30861   3.325   9.550  13.769
 9655SOL    HW130862   3.252   9.581  13.716
 9655SOL    HW230863   3.363   9.630  13.806
 9656SOL     OW30864  13.051   7.496   5.634
 9656SOL    HW130865  13.142   7.495   5.664
 9656SOL    HW230866  13.002   7.528   5.710
 9657SOL     OW30867   9.742   4.796   0.519
 9657SOL    HW130868   9.706   4.868   0.467
 9657SOL    HW230869   9.810   4.837   0.573
 9658SOL     OW30870  12.389   6.341   8.133
 9658SOL    HW130871  12.398   6.399   8.209
 9658SOL    HW230872  12.354   6.259   8.169
 9659SOL     OW30873  11.744   1.590   6.924
 9659SOL    HW130874  11.828   1.544   6.935
 9659SOL    HW230875  11.739   1.609   6.831
 9660SOL     OW30876   0.561   7.918   0.896
 9660SOL    HW130877   0.605   7.837   0.873
 9660SOL    HW230878   0.487   7.924   0.835
 9661SOL     OW30879   3.905   8.649  14.817
 9661SOL    HW130880   3.926   8.720  14.757
 9661SOL    HW230881   3.824   8.611  14.781
 9662SOL     OW30882   2.001  12.616  10.672
 9662SOL    HW130883   2.078  12.560  10.671
 9662SOL    HW230884   2.030  12.698  10.713
 9663SOL     OW30885   2.579   0.388   8.747
 9663SOL    HW130886   2.634   0.384   8.669
 9663SOL    HW230887   2.592   0.476   8.782
 9664SOL     OW30888  11.976   9.566   7.419
 9664SOL    HW130889  11.927   9.511   7.480
 9664SOL    HW230890  12.041   9.507   7.380
 9665SOL     OW30891  13.294  12.873   6.370
 9665SOL    HW130892  13.319  12.861   6.278
 9665SOL    HW230893  13.362  12.826   6.419
 9666SOL     OW30894   2.603  12.682   6.069
 9666SOL    HW130895   2.546  12.669   6.145
 9666SOL    HW230896   2.677  12.623   6.083
 9667SOL     OW30897   3.506   3.809   9.296
 9667SOL    HW130898   3.460   3.847   9.221
 9667SOL    HW230899   3.480   3.717   9.297
 9668SOL     OW30900   4.107   0.281   2.790
 9668SOL    HW130901   4.084   0.270   2.698
 9668SOL    HW230902   4.201   0.298   2.789
 9669SOL     OW30903   3.383  13.301   7.337
 9669SOL    HW130904   3.433  13.376   7.368
 9669SOL    HW230905   3.446  13.230   7.333
 9670SOL     OW30906  10.189  14.537   7.518
 9670SOL    HW130907  10.249  14.551   7.591
 9670SOL    HW230908  10.234  14.476   7.460
 9671SOL     OW30909   0.626   9.261   4.304
 9671SOL    HW130910   0.698   9.277   4.365
 9671SOL    HW230911   0.644   9.320   4.231
 9672SOL     OW30912   6.299  12.765  12.039
 9672SOL    HW130913   6.238  12.707  11.995
 9672SOL    HW230914   6.307  12.731  12.128
 9673SOL     OW30915   5.007   8.058   7.890
 9673SOL    HW130916   5.043   8.141   7.858
 9673SOL    HW230917   5.044   8.048   7.978
 9674SOL     OW30918  14.239   7.683  13.189
 9674SOL    HW130919  14.280   7.654  13.270
 9674SOL    HW230920  14.186   7.608  13.161
 9675SOL     OW30921  10.295   1.768   9.204
 9675SOL    HW130922  10.295   1.807   9.117
 9675SOL    HW230923  10.208   1.730   9.214
 9676SOL     OW30924  11.296   9.637   1.988
 9676SOL    HW130925  11.270   9.546   2.003
 9676SOL    HW230926  11.298   9.677   2.075
 9677SOL     OW30927  12.704   0.589  11.158
 9677SOL    HW130928  12.622   0.541  11.166
 9677SOL    HW230929  12.678   0.678  11.135
 9678SOL     OW30930   6.314  12.869   4.961
 9678SOL    HW130931   6.356  12.912   5.036
 9678SOL    HW230932   6.282  12.786   4.997
 9679SOL     OW30933  12.759  13.075  11.367
 9679SOL    HW130934  12.849  13.045  11.380
 9679SOL    HW230935  12.766  13.170  11.366
 9680SOL     OW30936   9.355  13.534   6.982
 9680SOL    HW130937   9.361  13.529   7.077
 9680SOL    HW230938   9.439  13.571   6.954
 9681SOL     OW30939   9.443  14.567   9.200
 9681SOL    HW130940   9.512  14.631   9.187
 9681SOL    HW230941   9.485  14.496   9.249
 9682SOL     OW30942  11.386   0.544   4.367
 9682SOL    HW130943  11.430   0.560   4.450
 9682SOL    HW230944  11.295   0.570   4.383
 9683SOL     OW30945  12.957  10.332   4.129
 9683SOL    HW130946  12.971  10.391   4.055
 9683SOL    HW230947  12.861  10.323   4.134
 9684SOL     OW30948  12.983   8.233   4.956
 9684SOL    HW130949  12.996   8.308   5.015
 9684SOL    HW230950  13.032   8.162   4.997
 9685SOL     OW30951   9.645   0.562  14.538
 9685SOL    HW130952   9.581   0.514  14.487
 9685SOL    HW230953   9.633   0.654  14.512
 9686SOL     OW30954   6.269  14.502   6.206
 9686SOL    HW130955   6.244  14.590   6.236
 9686SOL    HW230956   6.188  14.451   6.214
 9687SOL     OW30957   4.502  11.143   3.452
 9687SOL    HW130958   4.445  11.071   3.481
 9687SOL    HW230959   4.565  11.153   3.524
 9688SOL     OW30960   0.931   6.890   2.124
 9688SOL    HW130961   0.921   6.984   2.111
 9688SOL    HW230962   0.935   6.854   2.035
 9689SOL     OW30963   8.749   3.000   5.529
 9689SOL    HW130964   8.745   2.976   5.622
 9689SOL    HW230965   8.785   3.089   5.529
 9690SOL     OW30966   6.296   3.307   8.330
 9690SOL    HW130967   6.326   3.394   8.355
 9690SOL    HW230968   6.281   3.313   8.236
 9691SOL     OW30969   6.859   2.449   7.594
 9691SOL    HW130970   6.947   2.413   7.608
 9691SOL    HW230971   6.825   2.463   7.682
 9692SOL     OW30972   0.190   3.991   9.003
 9692SOL    HW130973   0.116   4.028   9.051
 9692SOL    HW230974   0.156   3.981   8.913
 9693SOL     OW30975  12.357   2.920   3.132
 9693SOL    HW130976  12.423   2.876   3.186
 9693SOL    HW230977  12.380   2.897   3.042
 9694SOL     OW30978   0.854   9.465   0.120
 9694SOL    HW130979   0.765   9.493   0.099
 9694SOL    HW230980   0.843   9.406   0.194
 9695SOL     OW30981   9.097  12.749   4.532
 9695SOL    HW130982   9.150  12.755   4.453
 9695SOL    HW230983   9.099  12.656   4.555
 9696SOL     OW30984  14.419  14.037   6.301
 9696SOL    HW130985  14.341  14.061   6.350
 9696SOL    HW230986  14.486  14.098   6.331
 9697SOL     OW30987   6.078   0.959   4.199
 9697SOL    HW130988   6.159   0.909   4.190
 9697SOL    HW230989   6.053   0.947   4.291
 9698SOL     OW30990  12.408   6.301   9.144
 9698SOL    HW130991  12.460   6.263   9.073
 9698SOL    HW230992  12.465   6.367   9.183
 9699SOL     OW30993   6.448   1.025  14.100
 9699SOL    HW130994   6.537   1.029  14.065
 9699SOL    HW230995   6.460   0.992  14.189
 9700SOL     OW30996   4.199  12.518   7.109
 9700SOL    HW130997   4.291  12.511   7.085
 9700SOL    HW230998   4.160  12.573   7.041
 9701SOL     OW30999   3.947  12.174  11.837
 9701SOL    HW131000   3.922  12.259  11.801
 9701SOL    HW231001   3.900  12.110  11.784
 9702SOL     OW31002   3.796   4.220  10.306
 9702SOL    HW131003   3.875   4.230  10.252
 9702SOL    HW231004   3.776   4.309  10.335
 9703SOL     OW31005  14.496   8.867   9.833
 9703SOL    HW131006  14.581   8.903   9.809
 9703SOL    HW231007  14.435   8.940   9.820
 9704SOL     OW31008   0.364  10.310   9.418
 9704SOL    HW131009   0.291  10.367   9.445
 9704SOL    HW231010   0.337  10.222   9.444
 9705SOL     OW31011   3.483   4.812   6.480
 9705SOL    HW131012   3.403   4.780   6.521
 9705SOL    HW231013   3.458   4.827   6.388
 9706SOL     OW31014  13.455   2.879   9.901
 9706SOL    HW131015  13.432   2.945   9.967
 9706SOL    HW231016  13.543   2.849   9.927
 9707SOL     OW31017   0.261   7.789  12.937
 9707SOL    HW131018   0.281   7.869  12.888
 9707SOL    HW231019   0.331   7.728  12.913
 9708SOL     OW31020   2.299   5.082   8.886
 9708SOL    HW131021   2.241   5.158   8.887
 9708SOL    HW231022   2.321   5.067   8.978
 9709SOL     OW31023  11.152   2.129  14.801
 9709SOL    HW131024  11.062   2.159  14.815
 9709SOL    HW231025  11.159   2.117  14.706
 9710SOL     OW31026   6.708   2.607  14.149
 9710SOL    HW131027   6.702   2.637  14.058
 9710SOL    HW231028   6.800   2.619  14.172
 9711SOL     OW31029  13.892   1.375  10.320
 9711SOL    HW131030  13.896   1.469  10.301
 9711SOL    HW231031  13.813   1.364  10.373
 9712SOL     OW31032   8.576   8.500   1.114
 9712SOL    HW131033   8.557   8.488   1.021
 9712SOL    HW231034   8.583   8.595   1.125
 9713SOL     OW31035   3.982   3.172  11.784
 9713SOL    HW131036   4.071   3.208  11.787
 9713SOL    HW231037   3.991   3.081  11.814
 9714SOL     OW31038   4.757   5.162   1.498
 9714SOL    HW131039   4.710   5.239   1.532
 9714SOL    HW231040   4.716   5.088   1.541
 9715SOL     OW31041  14.557  12.256  14.657
 9715SOL    HW131042  14.513  12.313  14.721
 9715SOL    HW231043  14.642  12.238  14.696
 9716SOL     OW31044   1.990   0.865   1.984
 9716SOL    HW131045   1.996   0.900   1.895
 9716SOL    HW231046   1.961   0.940   2.037
 9717SOL     OW31047  11.908   0.338   5.302
 9717SOL    HW131048  11.915   0.406   5.369
 9717SOL    HW231049  11.814   0.320   5.295
 9718SOL     OW31050  13.995   7.527  11.353
 9718SOL    HW131051  13.987   7.613  11.395
 9718SOL    HW231052  14.002   7.547  11.260
 9719SOL     OW31053   9.038  13.893   5.450
 9719SOL    HW131054   9.048  13.949   5.373
 9719SOL    HW231055   9.115  13.912   5.503
 9720SOL     OW31056  12.757   8.103  13.776
 9720SOL    HW131057  12.787   8.012  13.776
 9720SOL    HW231058  12.731   8.120  13.686
 9721SOL     OW31059   5.923   0.907   3.388
 9721SOL    HW131060   5.845   0.943   3.347
 9721SOL    HW231061   5.966   0.856   3.319
 9722SOL     OW31062   3.249  14.367   2.247
 9722SOL    HW131063   3.177  14.395   2.190
 9722SOL    HW231064   3.215  14.379   2.336
 9723SOL     OW31065  14.140   6.571   2.365
 9723SOL    HW131066  14.073   6.503   2.363
 9723SOL    HW231067  14.219   6.528   2.331
 9724SOL     OW31068   2.481   2.888   8.210
 9724SOL    HW131069   2.558   2.835   8.192
 9724SOL    HW231070   2.469   2.881   8.305
 9725SOL     OW31071   8.068   7.789  11.305
 9725SOL    HW131072   8.040   7.859  11.247
 9725SOL    HW231073   8.138   7.829  11.358
 9726SOL     OW31074   2.940   5.170   8.658
 9726SOL    HW131075   3.010   5.113   8.628
 9726SOL    HW231076   2.951   5.251   8.609
 9727SOL     OW31077  10.332  11.348   5.721
 9727SOL    HW131078  10.423  11.328   5.740
 9727SOL    HW231079  10.308  11.417   5.783
 9728SOL     OW31080  12.343   3.532   4.888
 9728SOL    HW131081  12.307   3.516   4.801
 9728SOL    HW231082  12.421   3.586   4.872
 9729SOL     OW31083   0.069   0.060   6.003
 9729SOL    HW131084   0.087   0.096   6.090
 9729SOL    HW231085  14.856   0.042   6.003
 9730SOL     OW31086   6.143  10.438   1.276
 9730SOL    HW131087   6.119  10.487   1.354
 9730SOL    HW231088   6.085  10.362   1.276
 9731SOL     OW31089   4.199   0.397   4.030
 9731SOL    HW131090   4.265   0.419   3.965
 9731SOL    HW231091   4.165   0.312   4.003
 9732SOL     OW31092   0.691   7.694   6.963
 9732SOL    HW131093   0.596   7.700   6.968
 9732SOL    HW231094   0.722   7.765   7.020
 9733SOL     OW31095   4.134   5.190   5.100
 9733SOL    HW131096   4.087   5.161   5.178
 9733SOL    HW231097   4.175   5.111   5.065
 9734SOL     OW31098   8.327   1.231  11.452
 9734SOL    HW131099   8.406   1.277  11.425
 9734SOL    HW231100   8.255   1.282  11.413
 9735SOL     OW31101   1.059  12.963  14.387
 9735SOL    HW131102   1.071  12.937  14.478
 9735SOL    HW231103   1.106  12.897  14.336
 9736SOL     OW31104   7.661   3.058   9.844
 9736SOL    HW131105   7.639   2.965   9.839
 9736SOL    HW231106   7.667   3.076   9.938
 9737SOL     OW31107   0.748  10.874   7.630
 9737SOL    HW131108   0.727  10.848   7.540
 9737SOL    HW231109   0.842  10.861   7.638
 9738SOL     OW31110   8.056   3.512   0.346
 9738SOL    HW131111   7.976   3.515   0.398
 9738SOL    HW231112   8.101   3.594   0.366
 9739SOL     OW31113   6.344   4.811   5.770
 9739SOL    HW131114   6.270   4.794   5.711
 9739SOL    HW231115   6.319   4.771   5.853
 9740SOL     OW31116   4.844  10.215   7.524
 9740SOL    HW131117   4.864  10.215   7.430
 9740SOL    HW231118   4.879  10.132   7.556
 9741SOL     OW31119   5.382  12.806   7.559
 9741SOL    HW131120   5.418  12.840   7.477
 9741SOL    HW231121   5.327  12.732   7.533
 9742SOL     OW31122   8.969  12.703  11.129
 9742SOL    HW131123   8.985  12.746  11.045
 9742SOL    HW231124   9.047  12.723  11.181
 9743SOL     OW31125   8.422   0.783   3.686
 9743SOL    HW131126   8.470   0.855   3.727
 9743SOL    HW231127   8.428   0.800   3.592
 9744SOL     OW31128  13.646   1.392  14.283
 9744SOL    HW131129  13.611   1.362  14.199
 9744SOL    HW231130  13.737   1.364  14.282
 9745SOL     OW31131  10.023   2.500   5.081
 9745SOL    HW131132  10.016   2.576   5.139
 9745SOL    HW231133  10.054   2.536   4.998
 9746SOL     OW31134   2.295   2.015  10.828
 9746SOL    HW131135   2.238   1.995  10.902
 9746SOL    HW231136   2.256   2.092  10.787
 9747SOL     OW31137   3.916   5.853  11.497
 9747SOL    HW131138   4.010   5.845  11.514
 9747SOL    HW231139   3.910   5.923  11.431
 9748SOL     OW31140   7.329   8.966   9.755
 9748SOL    HW131141   7.380   8.887   9.777
 9748SOL    HW231142   7.366   8.995   9.672
 9749SOL     OW31143   8.637   3.333  12.859
 9749SOL    HW131144   8.692   3.343  12.937
 9749SOL    HW231145   8.557   3.291  12.891
 9750SOL     OW31146  13.307   6.825   1.063
 9750SOL    HW131147  13.373   6.846   1.129
 9750SOL    HW231148  13.294   6.730   1.072
 9751SOL     OW31149   2.992   1.586   0.830
 9751SOL    HW131150   3.085   1.567   0.817
 9751SOL    HW231151   2.971   1.651   0.763
 9752SOL     OW31152   4.621  12.624  12.004
 9752SOL    HW131153   4.544  12.575  12.033
 9752SOL    HW231154   4.651  12.577  11.926
 9753SOL     OW31155   7.251   7.439   1.555
 9753SOL    HW131156   7.294   7.480   1.481
 9753SOL    HW231157   7.235   7.348   1.527
 9754SOL     OW31158  12.047   0.983   8.968
 9754SOL    HW131159  12.117   0.938   9.016
 9754SOL    HW231160  11.968   0.935   8.993
 9755SOL     OW31161   1.280   9.918  11.956
 9755SOL    HW131162   1.318   9.858  11.891
 9755SOL    HW231163   1.186   9.911  11.941
 9756SOL     OW31164  13.969  14.870   6.397
 9756SOL    HW131165  13.907   0.027   6.460
 9756SOL    HW231166  14.002   0.065   6.348
 9757SOL     OW31167   2.247  11.470  11.363
 9757SOL    HW131168   2.212  11.485  11.451
 9757SOL    HW231169   2.204  11.390  11.333
 9758SOL     OW31170  10.499   7.099   2.393
 9758SOL    HW131171  10.544   7.174   2.432
 9758SOL    HW231172  10.442   7.066   2.463
 9759SOL     OW31173   7.703   7.090   1.271
 9759SOL    HW131174   7.656   7.008   1.257
 9759SOL    HW231175   7.796   7.065   1.272
 9760SOL     OW31176   1.262   0.924   3.556
 9760SOL    HW131177   1.184   0.928   3.500
 9760SOL    HW231178   1.328   0.973   3.508
 9761SOL     OW31179  12.695   4.588   2.119
 9761SOL    HW131180  12.646   4.629   2.190
 9761SOL    HW231181  12.653   4.502   2.108
 9762SOL     OW31182   2.422   2.583   8.474
 9762SOL    HW131183   2.345   2.543   8.514
 9762SOL    HW231184   2.447   2.524   8.404
 9763SOL     OW31185   7.967   8.587  14.207
 9763SOL    HW131186   7.871   8.592  14.203
 9763SOL    HW231187   7.997   8.636  14.131
 9764SOL     OW31188  10.423  10.012   2.422
 9764SOL    HW131189  10.335  10.046   2.409
 9764SOL    HW231190  10.450   9.982   2.336
 9765SOL     OW31191   5.376   7.138  12.483
 9765SOL    HW131192   5.292   7.095  12.467
 9765SOL    HW231193   5.440   7.067  12.482
 9766SOL     OW31194   0.111  12.867   3.475
 9766SOL    HW131195   0.059  12.947   3.468
 9766SOL    HW231196   0.058  12.807   3.526
 9767SOL     OW31197   6.028   7.409   3.680
 9767SOL    HW131198   6.025   7.483   3.619
 9767SOL    HW231199   6.008   7.448   3.765
 9768SOL     OW31200   2.902   1.348   4.279
 9768SOL    HW131201   2.923   1.403   4.354
 9768SOL    HW231202   2.815   1.376   4.252
 9769SOL     OW31203   5.237   1.847  11.915
 9769SOL    HW131204   5.277   1.837  12.001
 9769SOL    HW231205   5.143   1.848  11.932
 9770SOL     OW31206   5.010   9.855   7.124
 9770SOL    HW131207   4.960   9.785   7.167
 9770SOL    HW231208   5.091   9.860   7.174
 9771SOL     OW31209   0.183   4.185   3.411
 9771SOL    HW131210   0.099   4.157   3.374
 9771SOL    HW231211   0.248   4.134   3.363
 9772SOL     OW31212   5.856  13.443  10.146
 9772SOL    HW131213   5.772  13.428  10.104
 9772SOL    HW231214   5.837  13.439  10.239
 9773SOL     OW31215   3.462  11.282  11.263
 9773SOL    HW131216   3.541  11.336  11.263
 9773SOL    HW231217   3.445  11.266  11.170
 9774SOL     OW31218  11.000  12.882   4.829
 9774SOL    HW131219  10.963  12.794   4.839
 9774SOL    HW231220  10.930  12.941   4.855
 9775SOL     OW31221   7.500  14.654   0.749
 9775SOL    HW131222   7.426  14.594   0.752
 9775SOL    HW231223   7.577  14.598   0.737
 9776SOL     OW31224   0.450   7.699   9.132
 9776SOL    HW131225   0.481   7.787   9.110
 9776SOL    HW231226   0.375   7.685   9.075
 9777SOL     OW31227  11.829   8.122  10.670
 9777SOL    HW131228  11.908   8.157  10.711
 9777SOL    HW231229  11.796   8.058  10.732
 9778SOL     OW31230   1.912  13.141   8.277
 9778SOL    HW131231   1.822  13.152   8.309
 9778SOL    HW231232   1.951  13.228   8.284
 9779SOL     OW31233   0.016  14.802   3.714
 9779SOL    HW131234   0.000  14.839   3.627
 9779SOL    HW231235   0.097  14.753   3.706
 9780SOL     OW31236  10.777  11.095  12.499
 9780SOL    HW131237  10.802  11.069  12.588
 9780SOL    HW231238  10.711  11.163  12.512
 9781SOL     OW31239   8.957  11.374  12.782
 9781SOL    HW131240   8.961  11.281  12.761
 9781SOL    HW231241   8.873  11.384  12.828
 9782SOL     OW31242   1.814   6.816   2.696
 9782SOL    HW131243   1.809   6.908   2.723
 9782SOL    HW231244   1.805   6.767   2.778
 9783SOL     OW31245   3.316   8.486   5.853
 9783SOL    HW131246   3.348   8.400   5.881
 9783SOL    HW231247   3.263   8.468   5.775
 9784SOL     OW31248   4.430   9.027   9.372
 9784SOL    HW131249   4.337   9.004   9.368
 9784SOL    HW231250   4.441   9.068   9.458
 9785SOL     OW31251   9.308   4.457  12.045
 9785SOL    HW131252   9.372   4.387  12.033
 9785SOL    HW231253   9.358   4.530  12.081
 9786SOL     OW31254  13.816  10.653   4.403
 9786SOL    HW131255  13.870  10.730   4.418
 9786SOL    HW231256  13.851  10.615   4.322
 9787SOL     OW31257   5.563  12.918  10.309
 9787SOL    HW131258   5.627  12.981  10.278
 9787SOL    HW231259   5.480  12.967  10.309
 9788SOL     OW31260   4.298  12.578  10.795
 9788SOL    HW131261   4.285  12.488  10.763
 9788SOL    HW231262   4.378  12.573  10.847
 9789SOL     OW31263  14.696   7.743   1.662
 9789SOL    HW131264  14.708   7.650   1.681
 9789SOL    HW231265  14.698   7.785   1.749
 9790SOL     OW31266  12.097   0.012  11.833
 9790SOL    HW131267  12.158   0.066  11.784
 9790SOL    HW231268  12.150  14.821  11.868
 9791SOL     OW31269   0.563  10.270  14.098
 9791SOL    HW131270   0.537  10.271  14.190
 9791SOL    HW231271   0.554  10.178  14.072
 9792SOL     OW31272   0.643   3.081   1.944
 9792SOL    HW131273   0.718   3.056   1.889
 9792SOL    HW231274   0.586   3.004   1.943
 9793SOL     OW31275   9.680  10.503   4.501
 9793SOL    HW131276   9.692  10.528   4.410
 9793SOL    HW231277   9.692  10.584   4.550
 9794SOL     OW31278   9.621   9.067   6.004
 9794SOL    HW131279   9.585   9.154   5.990
 9794SOL    HW231280   9.545   9.011   6.015
 9795SOL     OW31281   1.341   8.944  12.968
 9795SOL    HW131282   1.271   8.985  12.917
 9795SOL    HW231283   1.396   9.016  12.996
 9796SOL     OW31284   9.941  14.188   7.653
 9796SOL    HW131285   9.982  14.102   7.664
 9796SOL    HW231286  10.006  14.250   7.686
 9797SOL     OW31287   8.148  13.825   6.178
 9797SOL    HW131288   8.180  13.738   6.201
 9797SOL    HW231289   8.212  13.885   6.217
 9798SOL     OW31290   1.820   0.737   2.654
 9798SOL    HW131291   1.858   0.662   2.699
 9798SOL    HW231292   1.801   0.800   2.724
 9799SOL     OW31293   0.642  11.314   5.767
 9799SOL    HW131294   0.553  11.309   5.734
 9799SOL    HW231295   0.683  11.232   5.739
 9800SOL     OW31296   1.302   6.018   6.411
 9800SOL    HW131297   1.267   5.935   6.379
 9800SOL    HW231298   1.376   6.036   6.353
 9801SOL     OW31299  11.907   6.386   8.946
 9801SOL    HW131300  11.880   6.295   8.958
 9801SOL    HW231301  11.906   6.399   8.851
 9802SOL     OW31302  10.251  11.143   0.683
 9802SOL    HW131303  10.211  11.194   0.612
 9802SOL    HW231304  10.203  11.060   0.682
 9803SOL     OW31305  10.383   8.348   4.063
 9803SOL    HW131306  10.332   8.411   4.011
 9803SOL    HW231307  10.474   8.370   4.044
 9804SOL     OW31308  12.986   0.590   1.473
 9804SOL    HW131309  12.996   0.676   1.515
 9804SOL    HW231310  12.913   0.601   1.413
 9805SOL     OW31311  13.026  13.672  10.350
 9805SOL    HW131312  13.048  13.589  10.391
 9805SOL    HW231313  13.054  13.738  10.414
 9806SOL     OW31314  14.537   2.570   7.056
 9806SOL    HW131315  14.575   2.606   7.136
 9806SOL    HW231316  14.475   2.504   7.086
 9807SOL     OW31317   1.445  13.767   8.211
 9807SOL    HW131318   1.491  13.691   8.245
 9807SOL    HW231319   1.462  13.766   8.117
 9808SOL     OW31320  11.324   6.931  12.000
 9808SOL    HW131321  11.366   6.859  11.955
 9808SOL    HW231322  11.251   6.956  11.943
 9809SOL     OW31323   3.208   1.599   9.976
 9809SOL    HW131324   3.197   1.508   9.950
 9809SOL    HW231325   3.198   1.648   9.894
 9810SOL     OW31326   7.372   8.293   3.356
 9810SOL    HW131327   7.345   8.297   3.264
 9810SOL    HW231328   7.298   8.331   3.404
 9811SOL     OW31329  10.970   2.974   8.127
 9811SOL    HW131330  11.031   2.977   8.200
 9811SOL    HW231331  10.892   3.020   8.158
 9812SOL     OW31332   6.370  14.190  12.599
 9812SOL    HW131333   6.414  14.203  12.683
 9812SOL    HW231334   6.317  14.268  12.587
 9813SOL     OW31335  10.726   1.484  11.212
 9813SOL    HW131336  10.765   1.436  11.139
 9813SOL    HW231337  10.633   1.491  11.189
 9814SOL     OW31338   5.625  11.463   8.038
 9814SOL    HW131339   5.677  11.448   7.959
 9814SOL    HW231340   5.617  11.558   8.045
 9815SOL     OW31341   3.309  11.006   0.429
 9815SOL    HW131342   3.373  10.935   0.428
 9815SOL    HW231343   3.336  11.065   0.359
 9816SOL     OW31344   4.116   0.612   6.237
 9816SOL    HW131345   4.047   0.677   6.245
 9816SOL    HW231346   4.195   0.662   6.219
 9817SOL     OW31347  11.817  10.974  12.640
 9817SOL    HW131348  11.855  11.012  12.720
 9817SOL    HW231349  11.889  10.976  12.577
 9818SOL     OW31350   5.509  14.687   3.793
 9818SOL    HW131351   5.589  14.635   3.782
 9818SOL    HW231352   5.532  14.755   3.856
 9819SOL     OW31353   3.990   1.793  14.703
 9819SOL    HW131354   3.971   1.885  14.721
 9819SOL    HW231355   4.022   1.792  14.613
 9820SOL     OW31356   2.588  14.224  10.021
 9820SOL    HW131357   2.588  14.248   9.929
 9820SOL    HW231358   2.667  14.171  10.032
 9821SOL     OW31359   9.593  10.740  10.312
 9821SOL    HW131360   9.673  10.788  10.289
 9821SOL    HW231361   9.615  10.648  10.298
 9822SOL     OW31362  10.102   5.957   9.204
 9822SOL    HW131363  10.148   6.023   9.152
 9822SOL    HW231364  10.056   6.007   9.271
 9823SOL     OW31365  11.930   9.711   7.814
 9823SOL    HW131366  11.942   9.713   7.719
 9823SOL    HW231367  12.018   9.696   7.849
 9824SOL     OW31368  11.505   8.326   7.567
 9824SOL    HW131369  11.513   8.359   7.657
 9824SOL    HW231370  11.488   8.404   7.514
 9825SOL     OW31371  10.873   2.938  12.101
 9825SOL    HW131372  10.846   2.937  12.009
 9825SOL    HW231373  10.804   2.889  12.146
 9826SOL     OW31374   7.675  10.230   5.338
 9826SOL    HW131375   7.715  10.314   5.360
 9826SOL    HW231376   7.743  10.182   5.291
 9827SOL     OW31377   8.102   2.854   4.079
 9827SOL    HW131378   8.106   2.758   4.081
 9827SOL    HW231379   8.189   2.882   4.105
 9828SOL     OW31380  14.000   6.512   5.361
 9828SOL    HW131381  13.994   6.600   5.398
 9828SOL    HW231382  13.986   6.454   5.436
 9829SOL     OW31383  11.999  13.545  10.308
 9829SOL    HW131384  12.092  13.558  10.291
 9829SOL    HW231385  11.966  13.632  10.329
 9830SOL     OW31386  11.707   6.920   8.053
 9830SOL    HW131387  11.668   6.875   8.128
 9830SOL    HW231388  11.681   6.866   7.978
 9831SOL     OW31389  12.952   5.765  14.554
 9831SOL    HW131390  12.926   5.769  14.462
 9831SOL    HW231391  12.883   5.714  14.596
 9832SOL     OW31392   9.850  11.022   5.948
 9832SOL    HW131393   9.793  10.987   5.879
 9832SOL    HW231394   9.817  11.111   5.963
 9833SOL     OW31395  12.806  13.615   6.728
 9833SOL    HW131396  12.850  13.553   6.785
 9833SOL    HW231397  12.779  13.564   6.652
 9834SOL     OW31398   9.755  12.876  11.749
 9834SOL    HW131399   9.692  12.931  11.703
 9834SOL    HW231400   9.839  12.920  11.735
 9835SOL     OW31401   1.678   2.687  11.608
 9835SOL    HW131402   1.747   2.740  11.647
 9835SOL    HW231403   1.672   2.716  11.518
 9836SOL     OW31404   5.791   1.013   9.707
 9836SOL    HW131405   5.866   0.965   9.671
 9836SOL    HW231406   5.758   0.956   9.776
 9837SOL     OW31407   6.182   6.599   3.276
 9837SOL    HW131408   6.123   6.525   3.287
 9837SOL    HW231409   6.133   6.674   3.311
 9838SOL     OW31410   5.821  10.360  10.102
 9838SOL    HW131411   5.784  10.447  10.087
 9838SOL    HW231412   5.749  10.309  10.138
 9839SOL     OW31413  13.143  12.551   9.848
 9839SOL    HW131414  13.215  12.502   9.888
 9839SOL    HW231415  13.087  12.484   9.809
 9840SOL     OW31416  10.949   2.582   8.589
 9840SOL    HW131417  10.994   2.649   8.639
 9840SOL    HW231418  10.918   2.627   8.510
 9841SOL     OW31419  11.696  10.486  12.598
 9841SOL    HW131420  11.668  10.502  12.688
 9841SOL    HW231421  11.719  10.572  12.564
 9842SOL     OW31422   4.152   7.436   6.966
 9842SOL    HW131423   4.231   7.391   6.999
 9842SOL    HW231424   4.184   7.520   6.933
 9843SOL     OW31425   3.068  14.374   8.910
 9843SOL    HW131426   3.076  14.282   8.936
 9843SOL    HW231427   3.157  14.409   8.918
 9844SOL     OW31428  10.057   1.395  10.639
 9844SOL    HW131429  10.045   1.305  10.669
 9844SOL    HW231430  10.141   1.395  10.594
 9845SOL     OW31431   6.014  12.583   3.787
 9845SOL    HW131432   6.011  12.535   3.704
 9845SOL    HW231433   5.923  12.592   3.814
 9846SOL     OW31434  12.850   5.067   0.878
 9846SOL    HW131435  12.892   5.153   0.879
 9846SOL    HW231436  12.904   5.013   0.937
 9847SOL     OW31437  14.686   6.527   3.810
 9847SOL    HW131438  14.767   6.515   3.760
 9847SOL    HW231439  14.705   6.487   3.895
 9848SOL     OW31440   1.965  12.895   9.618
 9848SOL    HW131441   2.056  12.877   9.641
 9848SOL    HW231442   1.918  12.896   9.702
 9849SOL     OW31443   5.650  14.497   4.998
 9849SOL    HW131444   5.632  14.443   4.921
 9849SOL    HW231445   5.608  14.450   5.070
 9850SOL     OW31446   0.033   1.975   3.748
 9850SOL    HW131447   0.069   1.975   3.659
 9850SOL    HW231448   0.036   2.067   3.774
 9851SOL     OW31449   8.898  10.881   9.609
 9851SOL    HW131450   8.836  10.953   9.620
 9851SOL    HW231451   8.843  10.802   9.611
 9852SOL     OW31452  12.342   5.778  13.307
 9852SOL    HW131453  12.260   5.820  13.281
 9852SOL    HW231454  12.338   5.773  13.402
 9853SOL     OW31455   9.409   8.675   9.553
 9853SOL    HW131456   9.330   8.724   9.577
 9853SOL    HW231457   9.381   8.621   9.479
 9854SOL     OW31458   2.550   0.830   6.892
 9854SOL    HW131459   2.540   0.786   6.977
 9854SOL    HW231460   2.462   0.832   6.856
 9855SOL     OW31461   5.500  11.228   0.219
 9855SOL    HW131462   5.438  11.224   0.146
 9855SOL    HW231463   5.482  11.311   0.262
 9856SOL     OW31464   8.012   5.393   7.055
 9856SOL    HW131465   8.081   5.375   6.991
 9856SOL    HW231466   7.937   5.342   7.026
 9857SOL     OW31467   2.394   3.738   4.405
 9857SOL    HW131468   2.361   3.679   4.473
 9857SOL    HW231469   2.350   3.821   4.422
 9858SOL     OW31470  13.364  10.676   1.356
 9858SOL    HW131471  13.394  10.586   1.345
 9858SOL    HW231472  13.355  10.709   1.266
 9859SOL     OW31473   2.571   4.314  11.885
 9859SOL    HW131474   2.577   4.345  11.975
 9859SOL    HW231475   2.618   4.380  11.834
 9860SOL     OW31476   2.226  12.523   4.878
 9860SOL    HW131477   2.178  12.456   4.829
 9860SOL    HW231478   2.294  12.475   4.923
 9861SOL     OW31479   4.602   0.030  11.309
 9861SOL    HW131480   4.560   0.081  11.378
 9861SOL    HW231481   4.545  14.835  11.297
 9862SOL     OW31482   7.807   1.349   1.707
 9862SOL    HW131483   7.882   1.407   1.695
 9862SOL    HW231484   7.845   1.262   1.719
 9863SOL     OW31485   8.468   1.982   9.213
 9863SOL    HW131486   8.515   1.987   9.296
 9863SOL    HW231487   8.537   1.987   9.146
 9864SOL     OW31488   3.674   0.708   1.312
 9864SOL    HW131489   3.737   0.639   1.290
 9864SOL    HW231490   3.591   0.662   1.323
 9865SOL     OW31491  10.672   0.263   7.545
 9865SOL    HW131492  10.584   0.241   7.515
 9865SOL    HW231493  10.714   0.178   7.559
 9866SOL     OW31494  11.115   1.804  14.601
 9866SOL    HW131495  11.025   1.773  14.612
 9866SOL    HW231496  11.126   1.811  14.506
 9867SOL     OW31497   6.780   0.413   1.514
 9867SOL    HW131498   6.859   0.467   1.511
 9867SOL    HW231499   6.799   0.339   1.457
 9868SOL     OW31500   9.493  12.232  10.027
 9868SOL    HW131501   9.546  12.160  10.060
 9868SOL    HW231502   9.538  12.263   9.949
 9869SOL     OW31503   2.707   8.327  10.384
 9869SOL    HW131504   2.682   8.346  10.293
 9869SOL    HW231505   2.634   8.359  10.436
 9870SOL     OW31506  10.451  11.867   1.003
 9870SOL    HW131507  10.544  11.844   1.012
 9870SOL    HW231508  10.430  11.911   1.085
 9871SOL     OW31509   3.563   7.069   2.115
 9871SOL    HW131510   3.574   7.152   2.161
 9871SOL    HW231511   3.607   7.004   2.170
 9872SOL     OW31512   5.622  12.522   0.264
 9872SOL    HW131513   5.645  12.429   0.258
 9872SOL    HW231514   5.533  12.522   0.299
 9873SOL     OW31515   0.178   7.923   8.987
 9873SOL    HW131516   0.231   7.868   8.929
 9873SOL    HW231517   0.151   7.864   9.057
 9874SOL     OW31518  14.182  14.246   3.709
 9874SOL    HW131519  14.088  14.256   3.726
 9874SOL    HW231520  14.214  14.335   3.693
 9875SOL     OW31521   3.832   2.519   2.853
 9875SOL    HW131522   3.899   2.586   2.866
 9875SOL    HW231523   3.869   2.440   2.892
 9876SOL     OW31524   7.959   2.762   2.745
 9876SOL    HW131525   7.975   2.680   2.792
 9876SOL    HW231526   7.906   2.814   2.805
 9877SOL     OW31527   2.754   9.786  11.785
 9877SOL    HW131528   2.828   9.826  11.832
 9877SOL    HW231529   2.677   9.814  11.834
 9878SOL     OW31530   7.468   8.618   0.728
 9878SOL    HW131531   7.489   8.526   0.713
 9878SOL    HW231532   7.383   8.631   0.686
 9879SOL     OW31533   0.526  12.459  10.873
 9879SOL    HW131534   0.545  12.376  10.916
 9879SOL    HW231535   0.441  12.485  10.910
 9880SOL     OW31536   9.067  14.048  13.183
 9880SOL    HW131537   9.064  14.086  13.095
 9880SOL    HW231538   9.156  14.064  13.214
 9881SOL     OW31539  14.418   3.124   6.334
 9881SOL    HW131540  14.380   3.048   6.378
 9881SOL    HW231541  14.430   3.096   6.243
 9882SOL     OW31542  14.138   9.106  13.031
 9882SOL    HW131543  14.135   9.196  12.997
 9882SOL    HW231544  14.167   9.053  12.957
 9883SOL     OW31545   0.297   4.143   7.546
 9883SOL    HW131546   0.391   4.125   7.557
 9883SOL    HW231547   0.257   4.057   7.533
 9884SOL     OW31548   9.720  11.469  12.065
 9884SOL    HW131549   9.705  11.443  11.974
 9884SOL    HW231550   9.782  11.405  12.098
 9885SOL     OW31551   8.777   0.846   0.389
 9885SOL    HW131552   8.690   0.831   0.427
 9885SOL    HW231553   8.786   0.779   0.321
 9886SOL     OW31554  12.014   2.683   6.873
 9886SOL    HW131555  11.976   2.644   6.794
 9886SOL    HW231556  11.952   2.660   6.942
 9887SOL     OW31557  10.301  14.656  10.825
 9887SOL    HW131558  10.232  14.652  10.758
 9887SOL    HW231559  10.282  14.582  10.882
 9888SOL     OW31560  14.483   7.247   1.642
 9888SOL    HW131561  14.431   7.322   1.613
 9888SOL    HW231562  14.499   7.262   1.735
 9889SOL     OW31563  12.925   9.643   8.064
 9889SOL    HW131564  12.995   9.670   8.125
 9889SOL    HW231565  12.971   9.601   7.992
 9890SOL     OW31566  12.766   6.502   5.354
 9890SOL    HW131567  12.810   6.582   5.327
 9890SOL    HW231568  12.673   6.524   5.351
 9891SOL     OW31569   7.271   9.789   0.198
 9891SOL    HW131570   7.271   9.776   0.103
 9891SOL    HW231571   7.251   9.882   0.210
 9892SOL     OW31572   1.448  11.259   0.602
 9892SOL    HW131573   1.464  11.204   0.525
 9892SOL    HW231574   1.356  11.282   0.596
 9893SOL     OW31575   4.685  13.392   5.569
 9893SOL    HW131576   4.651  13.438   5.646
 9893SOL    HW231577   4.608  13.353   5.528
 9894SOL     OW31578  13.513   1.584   8.915
 9894SOL    HW131579  13.552   1.654   8.967
 9894SOL    HW231580  13.450   1.542   8.974
 9895SOL     OW31581   2.905   8.036   6.100
 9895SOL    HW131582   2.823   7.986   6.101
 9895SOL    HW231583   2.879   8.127   6.112
 9896SOL     OW31584   6.265   2.426  12.926
 9896SOL    HW131585   6.226   2.338  12.924
 9896SOL    HW231586   6.322   2.429  12.850
 9897SOL     OW31587  12.589   1.582   2.899
 9897SOL    HW131588  12.622   1.648   2.838
 9897SOL    HW231589  12.665   1.559   2.953
 9898SOL     OW31590   8.656   4.432  14.019
 9898SOL    HW131591   8.745   4.405  13.996
 9898SOL    HW231592   8.627   4.368  14.084
 9899SOL     OW31593   7.036   5.505  11.085
 9899SOL    HW131594   7.075   5.592  11.079
 9899SOL    HW231595   7.042   5.470  10.996
 9900SOL     OW31596   4.850   6.222  10.976
 9900SOL    HW131597   4.939   6.223  10.941
 9900SOL    HW231598   4.861   6.197  11.068
 9901SOL     OW31599   5.201   9.705   7.334
 9901SOL    HW131600   5.297   9.715   7.333
 9901SOL    HW231601   5.185   9.636   7.399
 9902SOL     OW31602   6.644   8.475  14.664
 9902SOL    HW131603   6.598   8.440  14.588
 9902SOL    HW231604   6.586   8.458  14.738
 9903SOL     OW31605  12.909   1.244   3.131
 9903SOL    HW131606  12.990   1.268   3.176
 9903SOL    HW231607  12.878   1.167   3.179
 9904SOL     OW31608  11.519  10.834   9.868
 9904SOL    HW131609  11.503  10.747   9.832
 9904SOL    HW231610  11.494  10.826   9.961
 9905SOL     OW31611   8.918   9.366   4.407
 9905SOL    HW131612   8.984   9.329   4.466
 9905SOL    HW231613   8.890   9.447   4.449
 9906SOL     OW31614   8.436   9.554   0.538
 9906SOL    HW131615   8.443   9.647   0.518
 9906SOL    HW231616   8.520   9.517   0.511
 9907SOL     OW31617  11.872   5.562   9.002
 9907SOL    HW131618  11.831   5.622   9.064
 9907SOL    HW231619  11.880   5.479   9.049
 9908SOL     OW31620   1.873   8.078   3.512
 9908SOL    HW131621   1.873   8.030   3.595
 9908SOL    HW231622   1.783   8.069   3.480
 9909SOL     OW31623  14.468   7.679   3.169
 9909SOL    HW131624  14.421   7.598   3.185
 9909SOL    HW231625  14.558   7.660   3.196
 9910SOL     OW31626   0.981  11.387  14.868
 9910SOL    HW131627   0.889  11.409   0.006
 9910SOL    HW231628   1.019  11.371   0.074
 9911SOL     OW31629   8.792   9.408   7.240
 9911SOL    HW131630   8.825   9.382   7.326
 9911SOL    HW231631   8.849   9.481   7.214
 9912SOL     OW31632   6.735   1.224   7.959
 9912SOL    HW131633   6.752   1.275   8.038
 9912SOL    HW231634   6.765   1.279   7.888
 9913SOL     OW31635   8.917  10.953  10.586
 9913SOL    HW131636   8.979  10.976  10.517
 9913SOL    HW231637   8.940  11.010  10.660
 9914SOL     OW31638  12.660  13.326  14.449
 9914SOL    HW131639  12.703  13.241  14.437
 9914SOL    HW231640  12.569  13.310  14.426
 9915SOL     OW31641  14.502   0.467   0.677
 9915SOL    HW131642  14.416   0.450   0.714
 9915SOL    HW231643  14.531   0.383   0.642
 9916SOL     OW31644   4.246   7.361  10.662
 9916SOL    HW131645   4.246   7.383  10.568
 9916SOL    HW231646   4.330   7.318  10.676
 9917SOL     OW31647   9.874   9.484  14.532
 9917SOL    HW131648   9.795   9.537  14.542
 9917SOL    HW231649   9.859   9.433  14.452
 9918SOL     OW31650  11.029   4.961   2.308
 9918SOL    HW131651  11.110   5.009   2.323
 9918SOL    HW231652  11.051   4.896   2.241
 9919SOL     OW31653   9.970  13.397  11.620
 9919SOL    HW131654   9.976  13.414  11.714
 9919SOL    HW231655   9.876  13.400  11.601
 9920SOL     OW31656   2.850   4.043   7.424
 9920SOL    HW131657   2.817   4.065   7.336
 9920SOL    HW231658   2.912   4.112   7.445
 9921SOL     OW31659   5.271   9.108  13.709
 9921SOL    HW131660   5.356   9.118  13.666
 9921SOL    HW231661   5.210   9.088  13.637
 9922SOL     OW31662  14.229   3.403  14.088
 9922SOL    HW131663  14.212   3.482  14.036
 9922SOL    HW231664  14.324   3.390  14.081
 9923SOL     OW31665   0.839   2.185  14.421
 9923SOL    HW131666   0.806   2.110  14.470
 9923SOL    HW231667   0.918   2.211  14.468
 9924SOL     OW31668   6.342   4.067  12.290
 9924SOL    HW131669   6.342   3.972  12.289
 9924SOL    HW231670   6.269   4.091  12.347
 9925SOL     OW31671   5.791  13.272   6.558
 9925SOL    HW131672   5.825  13.183   6.545
 9925SOL    HW231673   5.703  13.269   6.519
 9926SOL     OW31674  12.792   1.422   6.419
 9926SOL    HW131675  12.772   1.339   6.462
 9926SOL    HW231676  12.709   1.448   6.378
 9927SOL     OW31677   1.584   9.786   1.641
 9927SOL    HW131678   1.540   9.853   1.589
 9927SOL    HW231679   1.642   9.834   1.699
 9928SOL     OW31680  12.147  11.913  11.990
 9928SOL    HW131681  12.155  11.892  11.897
 9928SOL    HW231682  12.196  11.994  12.001
 9929SOL     OW31683   6.489   4.565  14.838
 9929SOL    HW131684   6.443   4.631   0.009
 9929SOL    HW231685   6.518   4.500   0.022
 9930SOL     OW31686   4.299  12.012  14.204
 9930SOL    HW131687   4.288  11.943  14.139
 9930SOL    HW231688   4.359  12.074  14.164
 9931SOL     OW31689  11.686   5.358   1.416
 9931SOL    HW131690  11.775   5.379   1.442
 9931SOL    HW231691  11.675   5.266   1.441
 9932SOL     OW31692  12.317   8.460   6.699
 9932SOL    HW131693  12.262   8.428   6.627
 9932SOL    HW231694  12.297   8.403   6.773
 9933SOL     OW31695  11.184   2.183   7.607
 9933SOL    HW131696  11.215   2.137   7.529
 9933SOL    HW231697  11.099   2.219   7.581
 9934SOL     OW31698  12.331  14.713  13.427
 9934SOL    HW131699  12.317  14.646  13.361
 9934SOL    HW231700  12.243  14.748  13.445
 9935SOL     OW31701   7.773   7.165   4.411
 9935SOL    HW131702   7.704   7.227   4.388
 9935SOL    HW231703   7.727   7.093   4.454
 9936SOL     OW31704  12.652   6.646   4.450
 9936SOL    HW131705  12.706   6.718   4.482
 9936SOL    HW231706  12.616   6.606   4.529
 9937SOL     OW31707  14.533  10.602   9.460
 9937SOL    HW131708  14.451  10.615   9.412
 9937SOL    HW231709  14.538  10.677   9.519
 9938SOL     OW31710   1.604   8.314   7.786
 9938SOL    HW131711   1.570   8.236   7.742
 9938SOL    HW231712   1.613   8.378   7.716
 9939SOL     OW31713  14.758   0.734   1.067
 9939SOL    HW131714  14.811   0.808   1.097
 9939SOL    HW231715  14.742   0.751   0.974
 9940SOL     OW31716  12.092   1.217  10.862
 9940SOL    HW131717  12.134   1.237  10.945
 9940SOL    HW231718  12.101   1.122  10.853
 9941SOL     OW31719   7.237  10.789  13.853
 9941SOL    HW131720   7.142  10.785  13.838
 9941SOL    HW231721   7.267  10.699  13.842
 9942SOL     OW31722   4.341   1.343   1.884
 9942SOL    HW131723   4.340   1.436   1.908
 9942SOL    HW231724   4.281   1.337   1.810
 9943SOL     OW31725  11.704   3.492   5.287
 9943SOL    HW131726  11.791   3.493   5.326
 9943SOL    HW231727  11.713   3.444   5.205
 9944SOL     OW31728   0.358  12.647   3.823
 9944SOL    HW131729   0.441  12.653   3.872
 9944SOL    HW231730   0.343  12.554   3.813
 9945SOL     OW31731  10.274   8.229   5.624
 9945SOL    HW131732  10.349   8.172   5.638
 9945SOL    HW231733  10.209   8.199   5.688
 9946SOL     OW31734  11.343   6.648   0.787
 9946SOL    HW131735  11.418   6.594   0.812
 9946SOL    HW231736  11.360   6.733   0.829
 9947SOL     OW31737   6.286   8.758  14.545
 9947SOL    HW131738   6.310   8.822  14.612
 9947SOL    HW231739   6.362   8.753  14.488
 9948SOL     OW31740   5.286   0.573   7.837
 9948SOL    HW131741   5.334   0.654   7.819
 9948SOL    HW231742   5.196   0.602   7.854
 9949SOL     OW31743  14.787   3.643   7.208
 9949SOL    HW131744  14.742   3.586   7.145
 9949SOL    HW231745  14.824   3.713   7.154
 9950SOL     OW31746   2.012   2.307  12.149
 9950SOL    HW131747   1.997   2.217  12.118
 9950SOL    HW231748   2.103   2.326  12.127
 9951SOL     OW31749   9.888   9.664   1.411
 9951SOL    HW131750   9.975   9.635   1.438
 9951SOL    HW231751   9.879   9.631   1.321
 9952SOL     OW31752   7.919  10.047  12.785
 9952SOL    HW131753   7.860   9.978  12.816
 9952SOL    HW231754   7.913  10.041  12.690
 9953SOL     OW31755  12.182   7.861   5.882
 9953SOL    HW131756  12.168   7.948   5.846
 9953SOL    HW231757  12.151   7.801   5.815
 9954SOL     OW31758   4.643   3.304   0.492
 9954SOL    HW131759   4.605   3.383   0.453
 9954SOL    HW231760   4.568   3.255   0.525
 9955SOL     OW31761   6.805   6.636   3.813
 9955SOL    HW131762   6.873   6.658   3.877
 9955SOL    HW231763   6.754   6.716   3.803
 9956SOL     OW31764   4.399   7.212   7.793
 9956SOL    HW131765   4.315   7.166   7.803
 9956SOL    HW231766   4.464   7.149   7.823
 9957SOL     OW31767   2.130   5.140   5.591
 9957SOL    HW131768   2.086   5.126   5.507
 9957SOL    HW231769   2.223   5.134   5.571
 9958SOL     OW31770   9.401   7.889  11.287
 9958SOL    HW131771   9.393   7.814  11.346
 9958SOL    HW231772   9.339   7.871  11.217
 9959SOL     OW31773  10.381   0.032  10.917
 9959SOL    HW131774  10.380  14.819  10.938
 9959SOL    HW231775  10.463   0.046  10.870
 9960SOL     OW31776   7.210   3.589   1.261
 9960SOL    HW131777   7.250   3.616   1.178
 9960SOL    HW231778   7.277   3.608   1.327
 9961SOL     OW31779   3.680   0.248  14.834
 9961SOL    HW131780   3.718   0.310  14.773
 9961SOL    HW231781   3.602   0.214  14.790
 9962SOL     OW31782   9.350   2.748  13.812
 9962SOL    HW131783   9.436   2.708  13.823
 9962SOL    HW231784   9.360   2.837  13.847
 9963SOL     OW31785   9.772   6.835  10.738
 9963SOL    HW131786   9.760   6.747  10.773
 9963SOL    HW231787   9.686   6.875  10.742
 9964SOL     OW31788   7.121  13.501   2.843
 9964SOL    HW131789   7.123  13.571   2.779
 9964SOL    HW231790   7.060  13.531   2.910
 9965SOL     OW31791   3.801   0.246   1.951
 9965SOL    HW131792   3.793   0.177   2.017
 9965SOL    HW231793   3.715   0.289   1.951
 9966SOL     OW31794  14.201  12.006   0.753
 9966SOL    HW131795  14.121  12.047   0.784
 9966SOL    HW231796  14.175  11.958   0.675
 9967SOL     OW31797   4.519   3.335   6.515
 9967SOL    HW131798   4.507   3.246   6.550
 9967SOL    HW231799   4.568   3.381   6.584
 9968SOL     OW31800   5.848  12.778  10.278
 9968SOL    HW131801   5.876  12.786  10.369
 9968SOL    HW231802   5.777  12.842  10.269
 9969SOL     OW31803  14.185  14.600  10.582
 9969SOL    HW131804  14.102  14.642  10.604
 9969SOL    HW231805  14.251  14.651  10.629
 9970SOL     OW31806  10.874   1.628  14.361
 9970SOL    HW131807  10.891   1.567  14.288
 9970SOL    HW231808  10.810   1.690  14.326
 9971SOL     OW31809   6.174  13.940   8.597
 9971SOL    HW131810   6.148  14.027   8.628
 9971SOL    HW231811   6.110  13.881   8.637
 9972SOL     OW31812   6.255  11.681   8.918
 9972SOL    HW131813   6.252  11.728   8.835
 9972SOL    HW231814   6.321  11.613   8.906
 9973SOL     OW31815   0.654   5.884  14.494
 9973SOL    HW131816   0.657   5.969  14.536
 9973SOL    HW231817   0.691   5.823  14.558
 9974SOL     OW31818   4.693   3.680  10.368
 9974SOL    HW131819   4.633   3.608  10.349
 9974SOL    HW231820   4.780   3.643  10.353
 9975SOL     OW31821  14.692   5.214   5.435
 9975SOL    HW131822  14.765   5.272   5.413
 9975SOL    HW231823  14.709   5.135   5.384
 9976SOL     OW31824   0.153  12.415   5.349
 9976SOL    HW131825   0.086  12.395   5.415
 9976SOL    HW231826   0.165  12.334   5.301
 9977SOL     OW31827   4.431   8.897   0.987
 9977SOL    HW131828   4.374   8.823   0.967
 9977SOL    HW231829   4.475   8.916   0.904
 9978SOL     OW31830   8.539   4.776  10.845
 9978SOL    HW131831   8.586   4.851  10.881
 9978SOL    HW231832   8.606   4.707  10.837
 9979SOL     OW31833   7.620  11.184   8.744
 9979SOL    HW131834   7.705  11.199   8.702
 9979SOL    HW231835   7.642  11.154   8.832
 9980SOL     OW31836  12.949  11.456   4.400
 9980SOL    HW131837  13.016  11.408   4.351
 9980SOL    HW231838  12.949  11.543   4.360
 9981SOL     OW31839  11.907   9.794  13.177
 9981SOL    HW131840  11.903   9.717  13.121
 9981SOL    HW231841  11.892   9.761  13.265
 9982SOL     OW31842   8.579   1.741  13.738
 9982SOL    HW131843   8.493   1.704  13.720
 9982SOL    HW231844   8.582   1.822  13.687
 9983SOL     OW31845  12.843  14.230   0.001
 9983SOL    HW131846  12.909  14.162  14.866
 9983SOL    HW231847  12.771  14.184   0.044
 9984SOL     OW31848   9.723   8.454   5.224
 9984SOL    HW131849   9.718   8.390   5.296
 9984SOL    HW231850   9.791   8.515   5.251
 9985SOL     OW31851   6.553   3.352   5.743
 9985SOL    HW131852   6.564   3.351   5.838
 9985SOL    HW231853   6.635   3.314   5.710
 9986SOL     OW31854  11.052  12.027   1.147
 9986SOL    HW131855  11.047  12.047   1.240
 9986SOL    HW231856  11.146  12.017   1.130
 9987SOL     OW31857   2.273  10.438   5.323
 9987SOL    HW131858   2.349  10.492   5.346
 9987SOL    HW231859   2.310  10.354   5.296
 9988SOL     OW31860   3.244   5.598   4.057
 9988SOL    HW131861   3.264   5.621   3.966
 9988SOL    HW231862   3.153   5.624   4.069
 9989SOL     OW31863   2.323  12.624   2.409
 9989SOL    HW131864   2.403  12.604   2.361
 9989SOL    HW231865   2.328  12.571   2.488
 9990SOL     OW31866   6.917   7.563  13.534
 9990SOL    HW131867   6.983   7.549  13.602
 9990SOL    HW231868   6.926   7.655  13.510
 9991SOL     OW31869   8.405   6.040  12.742
 9991SOL    HW131870   8.424   5.947  12.751
 9991SOL    HW231871   8.348   6.045  12.665
 9992SOL     OW31872   0.071   4.759  14.060
 9992SOL    HW131873   0.141   4.729  14.002
 9992SOL    HW231874   0.108   4.837  14.102
 9993SOL     OW31875   1.496   6.577   2.247
 9993SOL    HW131876   1.404   6.552   2.241
 9993SOL    HW231877   1.530   6.568   2.158
 9994SOL     OW31878  12.676  13.644   3.072
 9994SOL    HW131879  12.661  13.605   3.158
 9994SOL    HW231880  12.591  13.644   3.030
 9995SOL     OW31881  12.058  10.379   9.057
 9995SOL    HW131882  12.012  10.443   9.002
 9995SOL    HW231883  12.015  10.296   9.037
 9996SOL     OW31884  10.408   6.071  10.849
 9996SOL    HW131885  10.322   6.097  10.884
 9996SOL    HW231886  10.395   6.069  10.754
 9997SOL     OW31887   3.136   1.825  13.927
 9997SOL    HW131888   3.191   1.902  13.938
 9997SOL    HW231889   3.131   1.812  13.832
 9998SOL     OW31890   6.776   0.329   2.102
 9998SOL    HW131891   6.776   0.256   2.040
 9998SOL    HW231892   6.790   0.288   2.187
 9999SOL     OW31893   8.983   9.700   1.361
 9999SOL    HW131894   8.999   9.620   1.309
 9999SOL    HW231895   8.962   9.668   1.449
10000SOL     OW31896   8.171   1.426   0.026
10000SOL    HW131897   8.250   1.405   0.075
10000SOL    HW231898   8.196   1.412  14.814
10001SOL     OW31899   8.670  11.598   8.109
10001SOL    HW131900   8.717  11.607   8.026
10001SOL    HW231901   8.716  11.528   8.155
10002SOL     OW31902   0.520   5.005   9.291
10002SOL    HW131903   0.600   5.049   9.319
10002SOL    HW231904   0.540   4.972   9.203
10003SOL     OW31905   5.749  10.371   0.905
10003SOL    HW131906   5.690  10.445   0.919
10003SOL    HW231907   5.781  10.349   0.993
10004SOL     OW31908   5.372   5.528   3.239
10004SOL    HW131909   5.440   5.474   3.201
10004SOL    HW231910   5.397   5.537   3.331
10005SOL     OW31911  13.469   5.450   4.158
10005SOL    HW131912  13.490   5.422   4.069
10005SOL    HW231913  13.379   5.482   4.153
10006SOL     OW31914  14.134  14.729  11.013
10006SOL    HW131915  14.135  14.821  10.985
10006SOL    HW231916  14.042  14.703  11.009
10007SOL     OW31917  12.933   5.083  12.853
10007SOL    HW131918  12.973   5.162  12.890
10007SOL    HW231919  12.924   5.024  12.928
10008SOL     OW31920   2.993   7.534  13.588
10008SOL    HW131921   2.956   7.534  13.499
10008SOL    HW231922   3.030   7.446  13.597
10009SOL     OW31923   5.036   4.700   1.233
10009SOL    HW131924   5.128   4.672   1.239
10009SOL    HW231925   5.025   4.730   1.143
10010SOL     OW31926   1.723  12.338   3.419
10010SOL    HW131927   1.692  12.311   3.505
10010SOL    HW231928   1.817  12.321   3.421
10011SOL     OW31929   5.022   3.578  14.129
10011SOL    HW131930   4.929   3.588  14.110
10011SOL    HW231931   5.055   3.667  14.136
10012SOL     OW31932  10.544  12.500   2.494
10012SOL    HW131933  10.501  12.581   2.464
10012SOL    HW231934  10.613  12.530   2.553
10013SOL     OW31935   8.600   8.184   9.587
10013SOL    HW131936   8.534   8.134   9.635
10013SOL    HW231937   8.612   8.264   9.638
10014SOL     OW31938   0.876   5.437  10.837
10014SOL    HW131939   0.901   5.435  10.929
10014SOL    HW231940   0.829   5.355  10.823
10015SOL     OW31941   4.857   4.044  11.636
10015SOL    HW131942   4.844   4.114  11.700
10015SOL    HW231943   4.769   4.017  11.612
10016SOL     OW31944   0.222   6.534  12.593
10016SOL    HW131945   0.201   6.593  12.665
10016SOL    HW231946   0.166   6.458  12.608
10017SOL     OW31947   0.338  10.445   8.149
10017SOL    HW131948   0.341  10.502   8.072
10017SOL    HW231949   0.429  10.436   8.176
10018SOL     OW31950  11.106   2.457   3.862
10018SOL    HW131951  11.097   2.385   3.799
10018SOL    HW231952  11.174   2.427   3.923
10019SOL     OW31953  13.542  12.706   9.945
10019SOL    HW131954  13.557  12.615   9.970
10019SOL    HW231955  13.597  12.719   9.868
10020SOL     OW31956  13.955  10.967   5.268
10020SOL    HW131957  13.887  11.021   5.227
10020SOL    HW231958  13.971  10.898   5.204
10021SOL     OW31959   4.909   2.046   3.793
10021SOL    HW131960   4.850   1.971   3.794
10021SOL    HW231961   4.900   2.085   3.880
10022SOL     OW31962   7.563   5.636   3.017
10022SOL    HW131963   7.633   5.642   3.081
10022SOL    HW231964   7.566   5.545   2.987
10023SOL     OW31965   5.061  12.635   2.407
10023SOL    HW131966   5.069  12.563   2.469
10023SOL    HW231967   5.139  12.689   2.422
10024SOL     OW31968  11.042   6.735   0.837
10024SOL    HW131969  11.131   6.715   0.806
10024SOL    HW231970  11.051   6.739   0.933
10025SOL     OW31971   9.970   3.327   5.284
10025SOL    HW131972   9.906   3.266   5.321
10025SOL    HW231973   9.931   3.414   5.297
10026SOL     OW31974   0.669   3.652   6.852
10026SOL    HW131975   0.747   3.638   6.906
10026SOL    HW231976   0.596   3.621   6.907
10027SOL     OW31977   6.954   8.088  12.313
10027SOL    HW131978   6.893   8.015  12.325
10027SOL    HW231979   6.940   8.115  12.222
10028SOL     OW31980  10.156   9.552   4.865
10028SOL    HW131981  10.126   9.639   4.837
10028SOL    HW231982  10.170   9.561   4.960
10029SOL     OW31983   9.683  12.096  11.438
10029SOL    HW131984   9.747  12.073  11.505
10029SOL    HW231985   9.736  12.133  11.367
10030SOL     OW31986   2.541  12.100   1.047
10030SOL    HW131987   2.497  12.133   1.125
10030SOL    HW231988   2.486  12.028   1.016
10031SOL     OW31989   6.776  14.071   7.788
10031SOL    HW131990   6.790  14.144   7.849
10031SOL    HW231991   6.776  13.993   7.844
10032SOL     OW31992   2.648  12.385   2.344
10032SOL    HW131993   2.589  12.346   2.279
10032SOL    HW231994   2.622  12.477   2.348
10033SOL     OW31995   5.493   4.600   4.034
10033SOL    HW131996   5.436   4.535   3.993
10033SOL    HW231997   5.484   4.585   4.128
10034SOL     OW31998   4.793   6.597  13.280
10034SOL    HW131999   4.839   6.585  13.197
10034SOL    HW232000   4.701   6.611  13.254
10035SOL     OW32001   9.510  11.667  14.176
10035SOL    HW132002   9.539  11.749  14.137
10035SOL    HW232003   9.423  11.685  14.210
10036SOL     OW32004   8.885  12.105  12.423
10036SOL    HW132005   8.947  12.034  12.437
10036SOL    HW232006   8.800  12.067  12.441
10037SOL     OW32007  10.074   3.314   2.681
10037SOL    HW132008  10.076   3.362   2.598
10037SOL    HW232009   9.986   3.276   2.685
10038SOL     OW32010   7.500  11.922  13.267
10038SOL    HW132011   7.531  11.891  13.352
10038SOL    HW232012   7.535  11.858  13.205
10039SOL     OW32013   2.060  11.122   8.758
10039SOL    HW132014   2.134  11.088   8.809
10039SOL    HW232015   1.985  11.113   8.817
10040SOL     OW32016  11.630  14.153   4.136
10040SOL    HW132017  11.647  14.101   4.214
10040SOL    HW232018  11.655  14.096   4.063
10041SOL     OW32019   9.860   2.950   9.709
10041SOL    HW132020   9.954   2.959   9.718
10041SOL    HW232021   9.831   3.032   9.670
10042SOL     OW32022   6.267   4.677   8.786
10042SOL    HW132023   6.193   4.736   8.801
10042SOL    HW232024   6.307   4.710   8.705
10043SOL     OW32025   3.853   0.729   9.369
10043SOL    HW132026   3.941   0.734   9.333
10043SOL    HW232027   3.797   0.716   9.293
10044SOL     OW32028   4.505   2.289  10.984
10044SOL    HW132029   4.564   2.215  10.995
10044SOL    HW232030   4.433   2.254  10.930
10045SOL     OW32031   6.545   5.512  12.821
10045SOL    HW132032   6.485   5.487  12.750
10045SOL    HW232033   6.632   5.493  12.786
10046SOL     OW32034   8.689  11.970   1.947
10046SOL    HW132035   8.666  11.966   1.854
10046SOL    HW232036   8.758  12.036   1.951
10047SOL     OW32037   0.175   1.449  13.077
10047SOL    HW132038   0.088   1.443  13.116
10047SOL    HW232039   0.171   1.526  13.021
10048SOL     OW32040   4.065   9.225   2.326
10048SOL    HW132041   4.069   9.287   2.253
10048SOL    HW232042   4.112   9.148   2.294
10049SOL     OW32043  12.319   2.249  13.013
10049SOL    HW132044  12.374   2.253  13.091
10049SOL    HW232045  12.314   2.339  12.982
10050SOL     OW32046  11.121  12.883   5.790
10050SOL    HW132047  11.142  12.847   5.704
10050SOL    HW232048  11.147  12.815   5.852
10051SOL     OW32049   6.500   8.767   0.469
10051SOL    HW132050   6.575   8.762   0.529
10051SOL    HW232051   6.512   8.849   0.422
10052SOL     OW32052  12.916   1.949   5.673
10052SOL    HW132053  13.002   1.987   5.653
10052SOL    HW232054  12.870   2.019   5.719
10053SOL     OW32055   2.294  11.233  10.187
10053SOL    HW132056   2.286  11.324  10.157
10053SOL    HW232057   2.231  11.226  10.259
10054SOL     OW32058  12.581  11.863   1.644
10054SOL    HW132059  12.647  11.887   1.709
10054SOL    HW232060  12.626  11.801   1.586
10055SOL     OW32061   5.493   1.981   1.866
10055SOL    HW132062   5.497   2.047   1.935
10055SOL    HW232063   5.525   2.026   1.788
10056SOL     OW32064   0.994  11.783   1.784
10056SOL    HW132065   1.069  11.746   1.830
10056SOL    HW232066   0.943  11.827   1.852
10057SOL     OW32067   3.969   2.177   6.219
10057SOL    HW132068   3.988   2.084   6.230
10057SOL    HW232069   3.974   2.214   6.307
10058SOL     OW32070   1.226  10.976   3.767
10058SOL    HW132071   1.249  11.069   3.776
10058SOL    HW232072   1.227  10.961   3.672
10059SOL     OW32073  12.730   6.769   6.548
10059SOL    HW132074  12.820   6.743   6.529
10059SOL    HW232075  12.679   6.689   6.538
10060SOL     OW32076   6.405   7.172   8.750
10060SOL    HW132077   6.326   7.194   8.701
10060SOL    HW232078   6.451   7.107   8.696
10061SOL     OW32079   9.250  12.013   7.250
10061SOL    HW132080   9.239  11.997   7.344
10061SOL    HW232081   9.328  12.069   7.245
10062SOL     OW32082   3.299   8.152   0.703
10062SOL    HW132083   3.385   8.174   0.739
10062SOL    HW232084   3.275   8.070   0.746
10063SOL     OW32085  12.285   5.080  14.451
10063SOL    HW132086  12.292   5.153  14.390
10063SOL    HW232087  12.251   5.119  14.532
10064SOL     OW32088   3.922  14.648  12.547
10064SOL    HW132089   3.857  14.643  12.477
10064SOL    HW232090   3.967  14.563  12.544
10065SOL     OW32091   6.749   5.344   5.335
10065SOL    HW132092   6.807   5.295   5.277
10065SOL    HW232093   6.663   5.340   5.291
10066SOL     OW32094   4.356   6.239   3.196
10066SOL    HW132095   4.441   6.281   3.207
10066SOL    HW232096   4.341   6.191   3.278
10067SOL     OW32097   6.203   1.576   2.220
10067SOL    HW132098   6.139   1.647   2.224
10067SOL    HW232099   6.283   1.617   2.186
10068SOL     OW32100  13.787   9.200   0.861
10068SOL    HW132101  13.727   9.217   0.788
10068SOL    HW232102  13.783   9.280   0.914
10069SOL     OW32103   6.050   7.488  13.521
10069SOL    HW132104   6.112   7.432  13.475
10069SOL    HW232105   6.086   7.576  13.514
10070SOL     OW32106  11.875   0.670  13.718
10070SOL    HW132107  11.845   0.614  13.789
10070SOL    HW232108  11.800   0.677  13.659
10071SOL     OW32109  10.515   0.450  14.876
10071SOL    HW132110  10.499   0.544   0.005
10071SOL    HW232111  10.572   0.428   0.069
10072SOL     OW32112   3.045  12.270  14.297
10072SOL    HW132113   3.010  12.327  14.229
10072SOL    HW232114   2.995  12.189  14.289
10073SOL     OW32115   0.363  11.448   3.001
10073SOL    HW132116   0.430  11.384   2.977
10073SOL    HW232117   0.404  11.500   3.071
10074SOL     OW32118   1.960   4.489  12.380
10074SOL    HW132119   2.025   4.439  12.332
10074SOL    HW232120   2.008   4.525  12.455
10075SOL     OW32121   4.602  12.325   6.367
10075SOL    HW132122   4.604  12.414   6.404
10075SOL    HW232123   4.516  12.291   6.391
10076SOL     OW32124  14.419   6.683   2.079
10076SOL    HW132125  14.486   6.636   2.029
10076SOL    HW232126  14.392   6.621   2.147
10077SOL     OW32127   4.409   4.603   9.911
10077SOL    HW132128   4.380   4.664   9.979
10077SOL    HW232129   4.487   4.562   9.949
10078SOL     OW32130  13.202   6.009   4.298
10078SOL    HW132131  13.233   6.075   4.360
10078SOL    HW232132  13.279   5.958   4.276
10079SOL     OW32133   2.584  14.256   1.112
10079SOL    HW132134   2.571  14.162   1.101
10079SOL    HW232135   2.508  14.296   1.071
10080SOL     OW32136   7.102  13.659   7.146
10080SOL    HW132137   7.032  13.622   7.200
10080SOL    HW232138   7.085  13.624   7.058
10081SOL     OW32139   9.423   8.077   8.973
10081SOL    HW132140   9.351   8.031   8.931
10081SOL    HW232141   9.484   8.097   8.902
10082SOL     OW32142   2.613   5.140   3.774
10082SOL    HW132143   2.538   5.171   3.725
10082SOL    HW232144   2.616   5.046   3.757
10083SOL     OW32145  14.364   5.993  14.687
10083SOL    HW132146  14.352   6.087  14.671
10083SOL    HW232147  14.293   5.951  14.638
10084SOL     OW32148   4.987   8.499   9.735
10084SOL    HW132149   5.029   8.445   9.668
10084SOL    HW232150   4.983   8.442   9.812
10085SOL     OW32151   6.276   1.623   5.513
10085SOL    HW132152   6.301   1.656   5.599
10085SOL    HW232153   6.181   1.614   5.517
10086SOL     OW32154   7.024   6.172   5.465
10086SOL    HW132155   6.956   6.141   5.406
10086SOL    HW232156   6.992   6.151   5.553
10087SOL     OW32157  10.557   6.717   1.077
10087SOL    HW132158  10.507   6.794   1.104
10087SOL    HW232159  10.497   6.666   1.023
10088SOL     OW32160  11.729   8.921  12.178
10088SOL    HW132161  11.676   8.943  12.255
10088SOL    HW232162  11.798   8.987  12.176
10089SOL     OW32163   8.776   7.192   7.956
10089SOL    HW132164   8.709   7.188   7.888
10089SOL    HW232165   8.858   7.180   7.909
10090SOL     OW32166   2.649   6.138   6.737
10090SOL    HW132167   2.637   6.174   6.649
10090SOL    HW232168   2.679   6.048   6.722
10091SOL     OW32169   1.872   9.437  12.817
10091SOL    HW132170   1.883   9.346  12.789
10091SOL    HW232171   1.896   9.437  12.909
10092SOL     OW32172  10.901  11.319   5.001
10092SOL    HW132173  10.892  11.280   5.088
10092SOL    HW232174  10.907  11.244   4.942
10093SOL     OW32175   9.363   6.716   1.036
10093SOL    HW132176   9.280   6.724   0.989
10093SOL    HW232177   9.428   6.753   0.977
10094SOL     OW32178  10.621   9.169  13.042
10094SOL    HW132179  10.549   9.187  13.103
10094SOL    HW232180  10.628   9.248  12.989
10095SOL     OW32181   5.450   5.767   1.118
10095SOL    HW132182   5.532   5.725   1.143
10095SOL    HW232183   5.467   5.802   1.030
10096SOL     OW32184   9.199   0.787   8.165
10096SOL    HW132185   9.134   0.857   8.165
10096SOL    HW232186   9.278   0.828   8.199
10097SOL     OW32187   6.002   4.243   0.995
10097SOL    HW132188   6.097   4.244   0.982
10097SOL    HW232189   5.966   4.271   0.911
10098SOL     OW32190   1.803   3.180   8.216
10098SOL    HW132191   1.826   3.262   8.172
10098SOL    HW232192   1.874   3.164   8.277
10099SOL     OW32193   7.738   1.075   0.275
10099SOL    HW132194   7.803   1.011   0.307
10099SOL    HW232195   7.738   1.063   0.180
10100SOL     OW32196   6.618  11.165  10.313
10100SOL    HW132197   6.577  11.122  10.388
10100SOL    HW232198   6.544  11.199  10.263
10101SOL     OW32199  14.679   9.522  11.679
10101SOL    HW132200  14.775   9.528  11.672
10101SOL    HW232201  14.648   9.552  11.593
10102SOL     OW32202   1.012   6.211  14.812
10102SOL    HW132203   1.083   6.156  14.844
10102SOL    HW232204   0.992   6.269   0.005
10103SOL     OW32205   8.371   1.146   0.478
10103SOL    HW132206   8.389   1.054   0.498
10103SOL    HW232207   8.320   1.144   0.397
10104SOL     OW32208  11.967  11.939   5.894
10104SOL    HW132209  12.062  11.950   5.897
10104SOL    HW232210  11.937  12.002   5.828
10105SOL     OW32211  10.974  11.784   7.952
10105SOL    HW132212  10.900  11.789   7.892
10105SOL    HW232213  10.939  11.817   8.035
10106SOL     OW32214   6.946   8.564   2.871
10106SOL    HW132215   6.855   8.578   2.898
10106SOL    HW232216   6.944   8.570   2.776
10107SOL     OW32217   1.126   6.781   5.056
10107SOL    HW132218   1.191   6.783   5.126
10107SOL    HW232219   1.070   6.856   5.074
10108SOL     OW32220  12.989   5.371  10.188
10108SOL    HW132221  12.960   5.283  10.213
10108SOL    HW232222  13.046   5.398  10.260
10109SOL     OW32223  11.782  13.771   3.279
10109SOL    HW132224  11.855  13.786   3.338
10109SOL    HW232225  11.704  13.788   3.332
10110SOL     OW32226   7.385   8.297   5.750
10110SOL    HW132227   7.315   8.273   5.689
10110SOL    HW232228   7.374   8.237   5.824
10111SOL     OW32229  11.757  10.271   3.074
10111SOL    HW132230  11.748  10.305   2.985
10111SOL    HW232231  11.849  10.244   3.080
10112SOL     OW32232   1.826   9.023   1.339
10112SOL    HW132233   1.915   9.057   1.356
10112SOL    HW232234   1.810   8.962   1.410
10113SOL     OW32235   5.936   6.230   8.740
10113SOL    HW132236   5.902   6.243   8.829
10113SOL    HW232237   5.939   6.319   8.704
10114SOL     OW32238   8.249  14.488  12.737
10114SOL    HW132239   8.193  14.493  12.660
10114SOL    HW232240   8.194  14.450  12.805
10115SOL     OW32241   1.320   5.973  13.662
10115SOL    HW132242   1.254   5.962  13.731
10115SOL    HW232243   1.356   5.886  13.648
10116SOL     OW32244  13.577   3.359   2.554
10116SOL    HW132245  13.602   3.356   2.646
10116SOL    HW232246  13.500   3.302   2.548
10117SOL     OW32247   4.511  11.500   4.779
10117SOL    HW132248   4.482  11.591   4.787
10117SOL    HW232249   4.494  11.478   4.688
10118SOL     OW32250  14.336   1.131  10.138
10118SOL    HW132251  14.367   1.186  10.067
10118SOL    HW232252  14.342   1.041  10.105
10119SOL     OW32253  10.706   1.414   8.796
10119SOL    HW132254  10.772   1.378   8.737
10119SOL    HW232255  10.625   1.416   8.745
10120SOL     OW32256  13.484   1.439   9.743
10120SOL    HW132257  13.498   1.486   9.661
10120SOL    HW232258  13.481   1.347   9.718
10121SOL     OW32259  13.607  12.497  13.804
10121SOL    HW132260  13.647  12.511  13.718
10121SOL    HW232261  13.553  12.575  13.818
10122SOL     OW32262   1.662   4.151  12.264
10122SOL    HW132263   1.696   4.148  12.354
10122SOL    HW232264   1.740   4.150  12.209
10123SOL     OW32265   2.398   1.703   3.161
10123SOL    HW132266   2.357   1.720   3.075
10123SOL    HW232267   2.465   1.638   3.142
10124SOL     OW32268   1.029  13.832  13.332
10124SOL    HW132269   1.017  13.890  13.407
10124SOL    HW232270   0.941  13.800  13.312
10125SOL     OW32271   6.433   2.509   4.337
10125SOL    HW132272   6.344   2.542   4.345
10125SOL    HW232273   6.425   2.430   4.285
10126SOL     OW32274   1.764   9.568   5.666
10126SOL    HW132275   1.841   9.607   5.708
10126SOL    HW232276   1.744   9.491   5.719
10127SOL     OW32277  13.148  11.572   1.521
10127SOL    HW132278  13.184  11.548   1.606
10127SOL    HW232279  13.148  11.668   1.521
10128SOL     OW32280   3.671  14.486   2.289
10128SOL    HW132281   3.756  14.447   2.268
10128SOL    HW232282   3.614  14.411   2.306
10129SOL     OW32283   5.766  11.293  14.093
10129SOL    HW132284   5.781  11.328  14.181
10129SOL    HW232285   5.720  11.362  14.046
10130SOL     OW32286  10.353   3.049  14.702
10130SOL    HW132287  10.420   3.107  14.739
10130SOL    HW232288  10.270   3.096  14.716
10131SOL     OW32289   2.513  10.032   7.577
10131SOL    HW132290   2.522   9.953   7.524
10131SOL    HW232291   2.581  10.090   7.544
10132SOL     OW32292   4.016   5.547   3.839
10132SOL    HW132293   4.036   5.554   3.932
10132SOL    HW232294   4.099   5.519   3.799
10133SOL     OW32295   6.764   4.542  10.892
10133SOL    HW132296   6.839   4.492  10.860
10133SOL    HW232297   6.723   4.577  10.813
10134SOL     OW32298   4.468  10.586  14.108
10134SOL    HW132299   4.433  10.571  14.020
10134SOL    HW232300   4.563  10.577  14.098
10135SOL     OW32301   0.186   6.011  11.323
10135SOL    HW132302   0.216   6.025  11.412
10135SOL    HW232303   0.255   5.959  11.282
10136SOL     OW32304  12.127  10.643   7.527
10136SOL    HW132305  12.063  10.608   7.465
10136SOL    HW232306  12.187  10.694   7.472
10137SOL     OW32307   2.263   9.174   7.787
10137SOL    HW132308   2.291   9.089   7.751
10137SOL    HW232309   2.172   9.182   7.759
10138SOL     OW32310  12.416  13.690   6.360
10138SOL    HW132311  12.417  13.640   6.441
10138SOL    HW232312  12.338  13.745   6.366
10139SOL     OW32313   2.147   9.282   3.871
10139SOL    HW132314   2.242   9.293   3.863
10139SOL    HW232315   2.112   9.307   3.786
10140SOL     OW32316   1.607  12.881  11.303
10140SOL    HW132317   1.673  12.900  11.370
10140SOL    HW232318   1.658  12.849  11.228
10141SOL     OW32319  14.252   1.708  11.302
10141SOL    HW132320  14.314   1.638  11.319
10141SOL    HW232321  14.179   1.692  11.362
10142SOL     OW32322  11.051   4.037   7.841
10142SOL    HW132323  11.071   4.041   7.747
10142SOL    HW232324  10.959   4.063   7.846
10143SOL     OW32325   3.390  13.218   2.914
10143SOL    HW132326   3.380  13.139   2.967
10143SOL    HW232327   3.325  13.207   2.844
10144SOL     OW32328   0.069  11.902   8.307
10144SOL    HW132329  14.855  11.886   8.312
10144SOL    HW232330   0.085  11.925   8.216
10145SOL     OW32331   2.797   2.354   5.533
10145SOL    HW132332   2.703   2.349   5.548
10145SOL    HW232333   2.807   2.352   5.438
10146SOL     OW32334  12.654   9.265   7.237
10146SOL    HW132335  12.658   9.201   7.308
10146SOL    HW232336  12.716   9.333   7.263
10147SOL     OW32337  13.894   7.071  12.328
10147SOL    HW132338  13.921   7.044  12.240
10147SOL    HW232339  13.977   7.093  12.372
10148SOL     OW32340   6.351  13.508   1.019
10148SOL    HW132341   6.338  13.490   1.112
10148SOL    HW232342   6.267  13.542   0.989
10149SOL     OW32343  11.135   3.703  12.208
10149SOL    HW132344  11.212   3.651  12.231
10149SOL    HW232345  11.100   3.733  12.292
10150SOL     OW32346   8.187  13.334   6.763
10150SOL    HW132347   8.148  13.249   6.745
10150SOL    HW232348   8.275  13.314   6.794
10151SOL     OW32349  13.446   0.160   4.129
10151SOL    HW132350  13.382   0.207   4.181
10151SOL    HW232351  13.406   0.151   4.043
10152SOL     OW32352  12.219   1.112  14.237
10152SOL    HW132353  12.224   1.199  14.197
10152SOL    HW232354  12.126   1.101  14.259
10153SOL     OW32355  13.211   7.679  10.102
10153SOL    HW132356  13.175   7.748  10.046
10153SOL    HW232357  13.143   7.662  10.166
10154SOL     OW32358   6.296  14.448   9.304
10154SOL    HW132359   6.245  14.434   9.224
10154SOL    HW232360   6.291  14.543   9.319
10155SOL     OW32361   2.930  10.136  14.578
10155SOL    HW132362   2.890  10.213  14.620
10155SOL    HW232363   2.857  10.092  14.534
10156SOL     OW32364   2.870   0.557   5.708
10156SOL    HW132365   2.790   0.607   5.692
10156SOL    HW232366   2.880   0.558   5.803
10157SOL     OW32367  12.099  11.736  14.045
10157SOL    HW132368  12.143  11.673  13.987
10157SOL    HW232369  12.169  11.791  14.079
10158SOL     OW32370   5.387   8.439   0.627
10158SOL    HW132371   5.395   8.534   0.632
10158SOL    HW232372   5.314   8.424   0.567
10159SOL     OW32373   7.329  10.002   2.435
10159SOL    HW132374   7.285   9.924   2.467
10159SOL    HW232375   7.422   9.984   2.449
10160SOL     OW32376   5.415   0.934   0.164
10160SOL    HW132377   5.388   0.932   0.255
10160SOL    HW232378   5.337   0.963   0.117
10161SOL     OW32379  14.106   8.363   5.144
10161SOL    HW132380  14.142   8.401   5.224
10161SOL    HW232381  14.168   8.387   5.075
10162SOL     OW32382  12.653   8.855  11.693
10162SOL    HW132383  12.681   8.934  11.739
10162SOL    HW232384  12.613   8.888  11.612
10163SOL     OW32385   8.720  12.139   1.495
10163SOL    HW132386   8.782  12.077   1.458
10163SOL    HW232387   8.762  12.169   1.576
10164SOL     OW32388   0.001   0.778   5.381
10164SOL    HW132389  14.833   0.697   5.365
10164SOL    HW232390   0.040   0.800   5.297
10165SOL     OW32391   2.143   4.230   0.632
10165SOL    HW132392   2.081   4.176   0.582
10165SOL    HW232393   2.209   4.168   0.663
10166SOL     OW32394   2.142   6.534   7.544
10166SOL    HW132395   2.117   6.473   7.613
10166SOL    HW232396   2.237   6.524   7.537
10167SOL     OW32397   9.976  14.471   9.962
10167SOL    HW132398   9.949  14.509  10.046
10167SOL    HW232399   9.894  14.461   9.913
10168SOL     OW32400  14.461  11.653   1.175
10168SOL    HW132401  14.390  11.716   1.163
10168SOL    HW232402  14.533  11.705   1.211
10169SOL     OW32403  13.349   8.441  13.218
10169SOL    HW132404  13.303   8.373  13.170
10169SOL    HW232405  13.306   8.523  13.193
10170SOL     OW32406  13.979  14.407  10.509
10170SOL    HW132407  14.051  14.444  10.560
10170SOL    HW232408  13.937  14.483  10.468
10171SOL     OW32409   8.996   4.600   8.115
10171SOL    HW132410   8.986   4.654   8.037
10171SOL    HW232411   9.017   4.662   8.185
10172SOL     OW32412   2.315   4.230   2.672
10172SOL    HW132413   2.346   4.172   2.602
10172SOL    HW232414   2.392   4.243   2.727
10173SOL     OW32415   3.454  11.695   5.205
10173SOL    HW132416   3.520  11.643   5.251
10173SOL    HW232417   3.404  11.632   5.154
10174SOL     OW32418  11.937  12.773   8.339
10174SOL    HW132419  11.995  12.734   8.404
10174SOL    HW232420  11.894  12.699   8.298
10175SOL     OW32421   6.631  12.410   1.374
10175SOL    HW132422   6.697  12.384   1.439
10175SOL    HW232423   6.669  12.488   1.333
10176SOL     OW32424   0.797   6.773   5.929
10176SOL    HW132425   0.753   6.847   5.887
10176SOL    HW232426   0.821   6.806   6.016
10177SOL     OW32427   0.704  14.115   5.798
10177SOL    HW132428   0.631  14.156   5.752
10177SOL    HW232429   0.682  14.022   5.799
10178SOL     OW32430   0.712   8.145   8.484
10178SOL    HW132431   0.762   8.172   8.407
10178SOL    HW232432   0.621   8.150   8.456
10179SOL     OW32433  10.777  13.317   7.398
10179SOL    HW132434  10.796  13.403   7.362
10179SOL    HW232435  10.765  13.261   7.321
10180SOL     OW32436   1.503   2.436   1.826
10180SOL    HW132437   1.576   2.492   1.852
10180SOL    HW232438   1.526   2.349   1.859
10181SOL     OW32439  11.659  12.832   1.530
10181SOL    HW132440  11.646  12.790   1.446
10181SOL    HW232441  11.570  12.856   1.559
10182SOL     OW32442   7.429   4.016   1.797
10182SOL    HW132443   7.463   4.080   1.860
10182SOL    HW232444   7.340   4.046   1.778
10183SOL     OW32445   8.513   4.752  12.029
10183SOL    HW132446   8.422   4.782  12.025
10183SOL    HW232447   8.549   4.792  12.108
10184SOL     OW32448  11.357   7.913  11.060
10184SOL    HW132449  11.286   7.973  11.085
10184SOL    HW232450  11.336   7.888  10.970
10185SOL     OW32451   6.450   8.694   7.918
10185SOL    HW132452   6.532   8.727   7.881
10185SOL    HW232453   6.460   8.706   8.013
10186SOL     OW32454  13.132   8.200  10.462
10186SOL    HW132455  13.043   8.234  10.458
10186SOL    HW232456  13.151   8.172  10.373
10187SOL     OW32457   1.193   0.001   8.053
10187SOL    HW132458   1.265  14.872   8.116
10187SOL    HW232459   1.124   0.046   8.103
10188SOL     OW32460   4.829  13.707  14.079
10188SOL    HW132461   4.874  13.628  14.108
10188SOL    HW232462   4.767  13.727  14.150
10189SOL     OW32463   4.199  11.713   7.022
10189SOL    HW132464   4.125  11.737   7.077
10189SOL    HW232465   4.216  11.791   6.969
10190SOL     OW32466   7.114   4.721   6.699
10190SOL    HW132467   7.135   4.629   6.680
10190SOL    HW232468   7.084   4.720   6.790
10191SOL     OW32469  14.569  10.982   1.561
10191SOL    HW132470  14.547  11.045   1.630
10191SOL    HW232471  14.613  10.911   1.608
10192SOL     OW32472   0.007  11.647   9.908
10192SOL    HW132473  14.816  11.711   9.899
10192SOL    HW232474   0.005  11.623  10.001
10193SOL     OW32475  12.132   8.517  14.729
10193SOL    HW132476  12.037   8.529  14.730
10193SOL    HW232477  12.158   8.541  14.640
10194SOL     OW32478   2.464  13.948  14.577
10194SOL    HW132479   2.558  13.933  14.583
10194SOL    HW232480   2.428  13.909  14.657
10195SOL     OW32481   3.027   8.264   0.717
10195SOL    HW132482   3.121   8.251   0.708
10195SOL    HW232483   2.994   8.267   0.627
10196SOL     OW32484   4.304   2.985  13.240
10196SOL    HW132485   4.323   3.035  13.320
10196SOL    HW232486   4.267   2.903  13.272
10197SOL     OW32487  10.279  10.679  12.108
10197SOL    HW132488  10.217  10.657  12.179
10197SOL    HW232489  10.303  10.770  12.125
10198SOL     OW32490   5.561   4.386   3.144
10198SOL    HW132491   5.652   4.383   3.115
10198SOL    HW232492   5.564   4.356   3.235
10199SOL     OW32493   1.011  10.447   6.391
10199SOL    HW132494   1.090  10.500   6.398
10199SOL    HW232495   0.940  10.506   6.415
10200SOL     OW32496   7.084   9.427   1.300
10200SOL    HW132497   7.001   9.466   1.329
10200SOL    HW232498   7.127   9.496   1.249
10201SOL     OW32499   4.344   1.660  11.040
10201SOL    HW132500   4.308   1.591  10.984
10201SOL    HW232501   4.363   1.732  10.979
10202SOL     OW32502  13.585   8.077   4.164
10202SOL    HW132503  13.626   7.993   4.142
10202SOL    HW232504  13.492   8.064   4.144
10203SOL     OW32505   1.670  12.805  13.406
10203SOL    HW132506   1.728  12.796  13.481
10203SOL    HW232507   1.679  12.897  13.379
10204SOL     OW32508   1.842   5.279   3.439
10204SOL    HW132509   1.905   5.351   3.444
10204SOL    HW232510   1.770   5.306   3.494
10205SOL     OW32511  11.381  12.365   9.335
10205SOL    HW132512  11.328  12.438   9.366
10205SOL    HW232513  11.469  12.401   9.324
10206SOL     OW32514   7.885   3.239  10.724
10206SOL    HW132515   7.961   3.182  10.709
10206SOL    HW232516   7.848   3.253  10.637
10207SOL     OW32517   9.603  12.628   9.329
10207SOL    HW132518   9.664  12.563   9.365
10207SOL    HW232519   9.628  12.710   9.370
10208SOL     OW32520   0.437  11.908   2.200
10208SOL    HW132521   0.415  11.851   2.273
10208SOL    HW232522   0.496  11.974   2.237
10209SOL     OW32523  12.949  10.200  11.796
10209SOL    HW132524  12.929  10.270  11.858
10209SOL    HW232525  12.876  10.201  11.734
10210SOL     OW32526   7.610  12.075   6.464
10210SOL    HW132527   7.613  12.031   6.548
10210SOL    HW232528   7.519  12.070   6.437
10211SOL     OW32529   3.019  12.115   3.772
10211SOL    HW132530   2.964  12.136   3.696
10211SOL    HW232531   3.108  12.123   3.739
10212SOL     OW32532  11.455   5.506   1.407
10212SOL    HW132533  11.393   5.433   1.411
10212SOL    HW232534  11.540   5.466   1.424
10213SOL     OW32535   3.535  10.474   8.427
10213SOL    HW132536   3.507  10.550   8.375
10213SOL    HW232537   3.470  10.406   8.408
10214SOL     OW32538  13.402  11.566   1.366
10214SOL    HW132539  13.336  11.512   1.410
10214SOL    HW232540  13.402  11.649   1.414
10215SOL     OW32541   8.564   3.863  12.574
10215SOL    HW132542   8.495   3.808  12.537
10215SOL    HW232543   8.566   3.941  12.518
10216SOL     OW32544   9.447  12.392  13.727
10216SOL    HW132545   9.507  12.326  13.762
10216SOL    HW232546   9.365  12.378  13.774
10217SOL     OW32547   5.146   9.764   2.287
10217SOL    HW132548   5.074   9.775   2.224
10217SOL    HW232549   5.200   9.695   2.250
10218SOL     OW32550   3.626   5.591  10.016
10218SOL    HW132551   3.573   5.605  10.094
10218SOL    HW232552   3.692   5.660  10.019
10219SOL     OW32553   2.105  12.115   0.199
10219SOL    HW132554   2.031  12.109   0.139
10219SOL    HW232555   2.144  12.201   0.180
10220SOL     OW32556   6.050  14.779  13.862
10220SOL    HW132557   6.100  14.719  13.917
10220SOL    HW232558   6.070  14.752  13.773
10221SOL     OW32559   4.878   7.003   7.571
10221SOL    HW132560   4.944   6.960   7.627
10221SOL    HW232561   4.927   7.033   7.495
10222SOL     OW32562   1.882   1.219  12.810
10222SOL    HW132563   1.853   1.177  12.891
10222SOL    HW232564   1.900   1.147  12.750
10223SOL     OW32565  10.332   9.198  10.049
10223SOL    HW132566  10.380   9.115  10.044
10223SOL    HW232567  10.321   9.214  10.142
10224SOL     OW32568   1.115   1.009   7.272
10224SOL    HW132569   1.196   1.029   7.225
10224SOL    HW232570   1.125   1.054   7.356
10225SOL     OW32571   2.741   6.019   8.755
10225SOL    HW132572   2.724   5.938   8.708
10225SOL    HW232573   2.654   6.058   8.768
10226SOL     OW32574   2.294  14.562   2.035
10226SOL    HW132575   2.353  14.488   2.023
10226SOL    HW232576   2.250  14.571   1.951
10227SOL     OW32577  12.908   3.278  14.872
10227SOL    HW132578  12.965   3.208   0.026
10227SOL    HW232579  12.965   3.328  14.814
10228SOL     OW32580   4.007  14.240  11.163
10228SOL    HW132581   4.094  14.274  11.186
10228SOL    HW232582   3.958  14.317  11.134
10229SOL     OW32583   2.941   3.802  14.289
10229SOL    HW132584   3.031   3.831  14.299
10229SOL    HW232585   2.900   3.869  14.234
10230SOL     OW32586  12.072   7.564  14.841
10230SOL    HW132587  12.098   7.515  14.763
10230SOL    HW232588  12.155   7.589   0.002
10231SOL     OW32589   9.823   4.788   8.523
10231SOL    HW132590   9.850   4.878   8.539
10231SOL    HW232591   9.757   4.794   8.454
10232SOL     OW32592   3.781  13.138   8.340
10232SOL    HW132593   3.745  13.197   8.274
10232SOL    HW232594   3.866  13.113   8.306
10233SOL     OW32595   0.522   1.859   4.312
10233SOL    HW132596   0.543   1.900   4.228
10233SOL    HW232597   0.449   1.800   4.292
10234SOL     OW32598   0.070   8.870   9.007
10234SOL    HW132599   0.105   8.955   9.033
10234SOL    HW232600   0.011   8.890   8.934
10235SOL     OW32601  13.928  14.105  10.501
10235SOL    HW132602  13.886  14.090  10.585
10235SOL    HW232603  13.886  14.183  10.466
10236SOL     OW32604   5.474   2.632   6.504
10236SOL    HW132605   5.423   2.641   6.424
10236SOL    HW232606   5.415   2.588   6.565
10237SOL     OW32607   6.029  14.763  12.365
10237SOL    HW132608   5.990  14.841  12.405
10237SOL    HW232609   5.962  14.695  12.375
10238SOL     OW32610   6.127   0.140   9.266
10238SOL    HW132611   6.124   0.232   9.241
10238SOL    HW232612   6.167   0.140   9.353
10239SOL     OW32613  14.361  12.850  11.497
10239SOL    HW132614  14.399  12.925  11.542
10239SOL    HW232615  14.429  12.783  11.500
10240SOL     OW32616  14.443   6.384  10.703
10240SOL    HW132617  14.520   6.330  10.722
10240SOL    HW232618  14.475   6.452  10.643
10241SOL     OW32619  10.556   7.829   4.001
10241SOL    HW132620  10.636   7.852   3.955
10241SOL    HW232621  10.585   7.777   4.075
10242SOL     OW32622   8.904  10.484   0.293
10242SOL    HW132623   8.871  10.395   0.309
10242SOL    HW232624   8.979  10.492   0.353
10243SOL     OW32625  14.423  11.162   1.729
10243SOL    HW132626  14.448  11.161   1.821
10243SOL    HW232627  14.453  11.247   1.697
10244SOL     OW32628   0.606   1.477  12.041
10244SOL    HW132629   0.628   1.564  12.005
10244SOL    HW232630   0.514   1.465  12.020
10245SOL     OW32631  14.818   5.292   3.385
10245SOL    HW132632  14.764   5.342   3.323
10245SOL    HW232633  14.760   5.222   3.416
10246SOL     OW32634  10.640  13.669  13.039
10246SOL    HW132635  10.626  13.640  13.129
10246SOL    HW232636  10.554  13.696  13.009
10247SOL     OW32637  12.682   5.245   3.862
10247SOL    HW132638  12.690   5.284   3.775
10247SOL    HW232639  12.589   5.225   3.871
10248SOL     OW32640  13.348   3.638  11.039
10248SOL    HW132641  13.438   3.622  11.010
10248SOL    HW232642  13.347   3.610  11.131
10249SOL     OW32643  11.843   5.243  10.782
10249SOL    HW132644  11.786   5.188  10.729
10249SOL    HW232645  11.924   5.193  10.791
10250SOL     OW32646   1.208   3.577  11.590
10250SOL    HW132647   1.261   3.504  11.623
10250SOL    HW232648   1.226   3.649  11.650
10251SOL     OW32649   2.085   4.900   2.650
10251SOL    HW132650   2.065   4.813   2.616
10251SOL    HW232651   2.059   4.896   2.742
10252SOL     OW32652   7.309   6.062  10.164
10252SOL    HW132653   7.402   6.083  10.160
10252SOL    HW232654   7.273   6.098  10.083
10253SOL     OW32655   0.409   2.371  13.568
10253SOL    HW132656   0.319   2.385  13.539
10253SOL    HW232657   0.407   2.289  13.616
10254SOL     OW32658  14.607   8.869   3.801
10254SOL    HW132659  14.679   8.900   3.857
10254SOL    HW232660  14.574   8.948   3.758
10255SOL     OW32661   0.200   6.634   9.804
10255SOL    HW132662   0.195   6.691   9.727
10255SOL    HW232663   0.133   6.568   9.789
10256SOL     OW32664   5.618   1.298   5.570
10256SOL    HW132665   5.683   1.344   5.621
10256SOL    HW232666   5.664   1.271   5.490
10257SOL     OW32667  12.548   7.828   7.843
10257SOL    HW132668  12.588   7.797   7.924
10257SOL    HW232669  12.456   7.840   7.865
10258SOL     OW32670   9.674   8.845   8.159
10258SOL    HW132671   9.695   8.937   8.168
10258SOL    HW232672   9.690   8.808   8.246
10259SOL     OW32673  11.237   1.375   9.393
10259SOL    HW132674  11.298   1.325   9.448
10259SOL    HW232675  11.166   1.400   9.453
10260SOL     OW32676   5.539   3.718   8.136
10260SOL    HW132677   5.476   3.774   8.092
10260SOL    HW232678   5.497   3.696   8.219
10261SOL     OW32679  12.459   6.726   2.064
10261SOL    HW132680  12.506   6.778   2.129
10261SOL    HW232681  12.528   6.681   2.015
10262SOL     OW32682   9.973  10.928   2.234
10262SOL    HW132683  10.061  10.966   2.234
10262SOL    HW232684   9.968  10.880   2.151
10263SOL     OW32685   2.858   6.447   9.188
10263SOL    HW132686   2.932   6.386   9.189
10263SOL    HW232687   2.822   6.441   9.277
10264SOL     OW32688   4.868   8.544  13.924
10264SOL    HW132689   4.917   8.583  13.852
10264SOL    HW232690   4.777   8.569  13.908
10265SOL     OW32691   9.546  10.986   7.731
10265SOL    HW132692   9.495  11.045   7.676
10265SOL    HW232693   9.612  10.949   7.672
10266SOL     OW32694   1.955  14.365   0.754
10266SOL    HW132695   2.014  14.295   0.781
10266SOL    HW232696   1.951  14.357   0.659
10267SOL     OW32697   1.156   3.447  14.389
10267SOL    HW132698   1.104   3.416  14.315
10267SOL    HW232699   1.179   3.537  14.366
10268SOL     OW32700  10.665  13.762   7.444
10268SOL    HW132701  10.699  13.711   7.370
10268SOL    HW232702  10.728  13.833   7.455
10269SOL     OW32703   7.646   8.269   0.004
10269SOL    HW132704   7.729   8.232   0.034
10269SOL    HW232705   7.659   8.363   0.008
10270SOL     OW32706   7.146  14.414  13.047
10270SOL    HW132707   7.137  14.345  13.112
10270SOL    HW232708   7.164  14.493  13.098
10271SOL     OW32709  10.840  10.673  14.593
10271SOL    HW132710  10.839  10.579  14.609
10271SOL    HW232711  10.929  10.700  14.614
10272SOL     OW32712  13.135   8.570   6.686
10272SOL    HW132713  13.110   8.532   6.601
10272SOL    HW232714  13.056   8.614   6.717
10273SOL     OW32715   6.450   6.538  11.376
10273SOL    HW132716   6.357   6.556  11.368
10273SOL    HW232717   6.454   6.446  11.404
10274SOL     OW32718   1.595   3.459   4.268
10274SOL    HW132719   1.641   3.460   4.184
10274SOL    HW232720   1.655   3.502   4.329
10275SOL     OW32721  13.007   0.609   8.919
10275SOL    HW132722  13.061   0.542   8.961
10275SOL    HW232723  13.070   0.676   8.893
10276SOL     OW32724  13.191   9.384   9.186
10276SOL    HW132725  13.100   9.414   9.184
10276SOL    HW232726  13.198   9.323   9.113
10277SOL     OW32727   9.484   7.094   3.943
10277SOL    HW132728   9.558   7.140   3.982
10277SOL    HW232729   9.411   7.109   4.003
10278SOL     OW32730  11.109  11.578  13.636
10278SOL    HW132731  11.131  11.609  13.724
10278SOL    HW232732  11.110  11.657  13.582
10279SOL     OW32733   6.332  10.479  11.270
10279SOL    HW132734   6.304  10.468  11.179
10279SOL    HW232735   6.402  10.544  11.266
10280SOL     OW32736   5.597   9.663   1.013
10280SOL    HW132737   5.511   9.647   0.973
10280SOL    HW232738   5.651   9.696   0.941
10281SOL     OW32739   9.262   7.802   5.587
10281SOL    HW132740   9.174   7.770   5.567
10281SOL    HW232741   9.320   7.749   5.532
10282SOL     OW32742   1.721   1.899  10.149
10282SOL    HW132743   1.692   1.841  10.220
10282SOL    HW232744   1.676   1.865  10.071
10283SOL     OW32745   4.040   0.193  14.809
10283SOL    HW132746   4.128   0.168  14.783
10283SOL    HW232747   4.003   0.113  14.848
10284SOL     OW32748  13.887  10.237   9.518
10284SOL    HW132749  13.803  10.203   9.550
10284SOL    HW232750  13.904  10.189   9.437
10285SOL     OW32751  14.646   3.220   5.246
10285SOL    HW132752  14.664   3.232   5.153
10285SOL    HW232753  14.678   3.301   5.286
10286SOL     OW32754  13.700   6.832  10.739
10286SOL    HW132755  13.741   6.805  10.657
10286SOL    HW232756  13.613   6.791  10.737
10287SOL     OW32757  11.758   9.577   7.606
10287SOL    HW132758  11.681   9.541   7.650
10287SOL    HW232759  11.830   9.562   7.668
10288SOL     OW32760   5.267   6.080  14.603
10288SOL    HW132761   5.338   6.144  14.612
10288SOL    HW232762   5.295   6.024  14.530
10289SOL     OW32763  13.878   2.901   3.396
10289SOL    HW132764  13.963   2.889   3.353
10289SOL    HW232765  13.888   2.857   3.481
10290SOL     OW32766   6.825   8.691   5.779
10290SOL    HW132767   6.792   8.602   5.772
10290SOL    HW232768   6.807   8.731   5.693
10291SOL     OW32769   4.666   3.406   4.778
10291SOL    HW132770   4.588   3.422   4.725
10291SOL    HW232771   4.663   3.473   4.846
10292SOL     OW32772   5.381   8.776   7.532
10292SOL    HW132773   5.288   8.791   7.513
10292SOL    HW232774   5.384   8.766   7.627
10293SOL     OW32775  13.818   3.372   8.313
10293SOL    HW132776  13.860   3.383   8.228
10293SOL    HW232777  13.890   3.371   8.376
10294SOL     OW32778   1.649   8.196  13.913
10294SOL    HW132779   1.563   8.234  13.931
10294SOL    HW232780   1.692   8.260  13.856
10295SOL     OW32781  12.005  12.918  10.177
10295SOL    HW132782  12.091  12.899  10.216
10295SOL    HW232783  12.000  13.014  10.176
10296SOL     OW32784  12.131  11.640  10.449
10296SOL    HW132785  12.037  11.649  10.429
10296SOL    HW232786  12.145  11.545  10.452
10297SOL     OW32787   9.150  14.410  10.087
10297SOL    HW132788   9.201  14.490  10.095
10297SOL    HW232789   9.195  14.347  10.143
10298SOL     OW32790   7.714  14.653  10.306
10298SOL    HW132791   7.741  14.600  10.381
10298SOL    HW232792   7.680  14.590  10.242
10299SOL     OW32793   5.951   7.406  11.101
10299SOL    HW132794   5.942   7.315  11.129
10299SOL    HW232795   6.046   7.422  11.102
10300SOL     OW32796   3.348  10.671   2.245
10300SOL    HW132797   3.271  10.710   2.205
10300SOL    HW232798   3.422  10.721   2.210
10301SOL     OW32799  13.748  11.871  14.455
10301SOL    HW132800  13.795  11.954  14.461
10301SOL    HW232801  13.719  11.865  14.364
10302SOL     OW32802   1.634   2.625   7.104
10302SOL    HW132803   1.539   2.639   7.100
10302SOL    HW232804   1.670   2.714   7.107
10303SOL     OW32805  10.897   3.189   0.240
10303SOL    HW132806  10.932   3.244   0.310
10303SOL    HW232807  10.859   3.114   0.286
10304SOL     OW32808  14.431  10.283  11.164
10304SOL    HW132809  14.454  10.376  11.173
10304SOL    HW232810  14.394  10.258  11.249
10305SOL     OW32811  12.392   6.133  12.274
10305SOL    HW132812  12.389   6.053  12.327
10305SOL    HW232813  12.384   6.204  12.338
10306SOL     OW32814  11.113   1.630   7.488
10306SOL    HW132815  11.160   1.561   7.535
10306SOL    HW232816  11.123   1.707   7.544
10307SOL     OW32817   1.186   2.253  11.779
10307SOL    HW132818   1.105   2.225  11.739
10307SOL    HW232819   1.209   2.182  11.839
10308SOL     OW32820  12.851  13.329   5.959
10308SOL    HW132821  12.807  13.412   5.979
10308SOL    HW232822  12.809  13.298   5.879
10309SOL     OW32823   9.222   8.364   7.610
10309SOL    HW132824   9.240   8.423   7.684
10309SOL    HW232825   9.280   8.395   7.540
10310SOL     OW32826  10.839   3.200   9.683
10310SOL    HW132827  10.930   3.173   9.669
10310SOL    HW232828  10.844   3.294   9.698
10311SOL     OW32829   5.049  13.916  13.298
10311SOL    HW132830   5.134  13.881  13.324
10311SOL    HW232831   4.986  13.866  13.349
10312SOL     OW32832   2.914  12.383   6.963
10312SOL    HW132833   2.833  12.350   6.923
10312SOL    HW232834   2.898  12.378   7.057
10313SOL     OW32835  11.534   5.773  11.510
10313SOL    HW132836  11.475   5.735  11.575
10313SOL    HW232837  11.479   5.833  11.460
10314SOL     OW32838   2.799   2.693   9.747
10314SOL    HW132839   2.742   2.665   9.674
10314SOL    HW232840   2.856   2.759   9.708
10315SOL     OW32841  13.729   7.871  10.754
10315SOL    HW132842  13.774   7.937  10.807
10315SOL    HW232843  13.637   7.879  10.781
10316SOL     OW32844  10.321   6.733   9.491
10316SOL    HW132845  10.405   6.688   9.488
10316SOL    HW232846  10.283   6.707   9.574
10317SOL     OW32847   9.033   5.570   2.135
10317SOL    HW132848   9.128   5.581   2.126
10317SOL    HW232849   9.019   5.562   2.230
10318SOL     OW32850   9.270  12.807   6.865
10318SOL    HW132851   9.186  12.841   6.835
10318SOL    HW232852   9.283  12.846   6.951
10319SOL     OW32853  11.209  13.530   8.381
10319SOL    HW132854  11.198  13.484   8.464
10319SOL    HW232855  11.156  13.480   8.319
10320SOL     OW32856   7.655   3.411   3.118
10320SOL    HW132857   7.571   3.371   3.141
10320SOL    HW232858   7.708   3.404   3.197
10321SOL     OW32859   0.537  10.525   0.842
10321SOL    HW132860   0.583  10.480   0.771
10321SOL    HW232861   0.604  10.581   0.881
10322SOL     OW32862   9.886   8.035  12.866
10322SOL    HW132863   9.981   8.023  12.868
10322SOL    HW232864   9.875   8.128  12.844
10323SOL     OW32865   4.425   3.721   8.113
10323SOL    HW132866   4.451   3.804   8.075
10323SOL    HW232867   4.353   3.742   8.172
10324SOL     OW32868  14.434   3.646  10.438
10324SOL    HW132869  14.477   3.575  10.391
10324SOL    HW232870  14.374   3.685  10.375
10325SOL     OW32871  11.452   8.573  12.198
10325SOL    HW132872  11.514   8.560  12.269
10325SOL    HW232873  11.454   8.667  12.181
10326SOL     OW32874   0.901   7.798  11.799
10326SOL    HW132875   0.989   7.785  11.766
10326SOL    HW232876   0.849   7.729  11.758
10327SOL     OW32877   7.029   2.294   1.467
10327SOL    HW132878   6.981   2.259   1.392
10327SOL    HW232879   7.059   2.216   1.514
10328SOL     OW32880   0.049  10.021  13.596
10328SOL    HW132881   0.053   9.926  13.608
10328SOL    HW232882   0.049  10.056  13.685
10329SOL     OW32883   4.255  11.596  10.133
10329SOL    HW132884   4.287  11.603  10.223
10329SOL    HW232885   4.322  11.544  10.088
10330SOL     OW32886   0.856   5.801  11.618
10330SOL    HW132887   0.905   5.742  11.560
10330SOL    HW232888   0.913   5.877  11.630
10331SOL     OW32889  13.584   9.470   3.993
10331SOL    HW132890  13.585   9.394   4.051
10331SOL    HW232891  13.675   9.479   3.964
10332SOL     OW32892   8.693   6.437   5.453
10332SOL    HW132893   8.654   6.498   5.516
10332SOL    HW232894   8.773   6.406   5.496
10333SOL     OW32895   8.073   0.063   1.988
10333SOL    HW132896   7.994   0.013   1.970
10333SOL    HW232897   8.135  14.880   2.023
10334SOL     OW32898   8.274   7.240  13.008
10334SOL    HW132899   8.296   7.329  13.035
10334SOL    HW232900   8.259   7.247  12.913
10335SOL     OW32901   8.841   9.909   8.783
10335SOL    HW132902   8.929   9.907   8.822
10335SOL    HW232903   8.838   9.992   8.735
10336SOL     OW32904  11.571   5.746   8.408
10336SOL    HW132905  11.544   5.675   8.351
10336SOL    HW232906  11.639   5.792   8.359
10337SOL     OW32907   5.571   4.330   8.807
10337SOL    HW132908   5.530   4.308   8.724
10337SOL    HW232909   5.525   4.409   8.836
10338SOL     OW32910   4.593  12.495  10.942
10338SOL    HW132911   4.687  12.490  10.958
10338SOL    HW232912   4.573  12.588  10.938
10339SOL     OW32913  12.959  13.147  12.540
10339SOL    HW132914  13.043  13.123  12.581
10339SOL    HW232915  12.955  13.242  12.548
10340SOL     OW32916   3.882   0.461   3.448
10340SOL    HW132917   3.813   0.443   3.512
10340SOL    HW232918   3.940   0.522   3.493
10341SOL     OW32919   4.344   2.086   9.388
10341SOL    HW132920   4.415   2.150   9.399
10341SOL    HW232921   4.303   2.109   9.304
10342SOL     OW32922   4.244   9.668   2.670
10342SOL    HW132923   4.198   9.632   2.594
10342SOL    HW232924   4.259   9.592   2.727
10343SOL     OW32925   0.715   9.845   4.923
10343SOL    HW132926   0.770   9.873   4.849
10343SOL    HW232927   0.763   9.772   4.962
10344SOL     OW32928   2.502   8.884   9.834
10344SOL    HW132929   2.585   8.839   9.851
10344SOL    HW232930   2.511   8.918   9.745
10345SOL     OW32931   3.163   1.970   3.239
10345SOL    HW132932   3.212   2.023   3.302
10345SOL    HW232933   3.221   1.898   3.217
10346SOL     OW32934   9.136   4.977   8.576
10346SOL    HW132935   9.120   5.053   8.632
10346SOL    HW232936   9.052   4.933   8.570
10347SOL     OW32937   4.989  10.213   7.096
10347SOL    HW132938   4.945  10.242   7.016
10347SOL    HW232939   5.082  10.209   7.073
10348SOL     OW32940  14.218  10.081  13.272
10348SOL    HW132941  14.303  10.123  13.284
10348SOL    HW232942  14.235  10.010  13.210
10349SOL     OW32943  12.603   2.470   7.943
10349SOL    HW132944  12.625   2.384   7.908
10349SOL    HW232945  12.555   2.513   7.873
10350SOL     OW32946   6.998   6.087   3.338
10350SOL    HW132947   7.026   6.057   3.425
10350SOL    HW232948   6.923   6.144   3.355
10351SOL     OW32949   0.413  14.275  10.143
10351SOL    HW132950   0.343  14.216  10.173
10351SOL    HW232951   0.367  14.356  10.119
10352SOL     OW32952   5.142   5.151  12.593
10352SOL    HW132953   5.077   5.093  12.553
10352SOL    HW232954   5.095   5.193  12.666
10353SOL     OW32955  10.882  10.509   0.706
10353SOL    HW132956  10.816  10.571   0.674
10353SOL    HW232957  10.916  10.467   0.627
10354SOL     OW32958   5.729   6.171   2.342
10354SOL    HW132959   5.736   6.088   2.390
10354SOL    HW232960   5.820   6.197   2.328
10355SOL     OW32961   5.096   3.609   3.909
10355SOL    HW132962   5.072   3.669   3.979
10355SOL    HW232963   5.165   3.554   3.947
10356SOL     OW32964  12.977   7.906  11.512
10356SOL    HW132965  12.945   7.817  11.524
10356SOL    HW232966  13.014   7.930  11.597
10357SOL     OW32967   1.210   6.735   5.409
10357SOL    HW132968   1.232   6.712   5.499
10357SOL    HW232969   1.292   6.724   5.361
10358SOL     OW32970   3.419   7.343  10.522
10358SOL    HW132971   3.484   7.328  10.452
10358SOL    HW232972   3.471   7.373  10.596
10359SOL     OW32973   1.659   6.510   8.003
10359SOL    HW132974   1.590   6.444   7.998
10359SOL    HW232975   1.714   6.493   7.926
10360SOL     OW32976   3.415   2.338  13.958
10360SOL    HW132977   3.476   2.317  14.030
10360SOL    HW232978   3.407   2.256  13.909
10361SOL     OW32979   5.168   2.821   6.292
10361SOL    HW132980   5.098   2.886   6.290
10361SOL    HW232981   5.219   2.844   6.370
10362SOL     OW32982   5.089   7.855  13.638
10362SOL    HW132983   5.043   7.776  13.609
10362SOL    HW232984   5.174   7.823  13.670
10363SOL     OW32985   7.619   0.276  11.163
10363SOL    HW132986   7.571   0.242  11.088
10363SOL    HW232987   7.708   0.244  11.151
10364SOL     OW32988   5.192   1.452   8.625
10364SOL    HW132989   5.211   1.364   8.659
10364SOL    HW232990   5.258   1.507   8.664
10365SOL     OW32991  13.044  10.042   1.450
10365SOL    HW132992  12.993  10.060   1.371
10365SOL    HW232993  13.133  10.070   1.429
10366SOL     OW32994   2.108  10.325  10.193
10366SOL    HW132995   2.131  10.325  10.099
10366SOL    HW232996   2.070  10.239  10.209
10367SOL     OW32997  10.366   8.675   3.194
10367SOL    HW132998  10.296   8.734   3.167
10367SOL    HW232999  10.370   8.609   3.125
10368SOL     OW33000  13.353   3.944   9.054
10368SOL    HW133001  13.371   4.011   9.119
10368SOL    HW233002  13.395   3.865   9.089
10369SOL     OW33003   7.986   7.766   1.418
10369SOL    HW133004   7.902   7.788   1.458
10369SOL    HW233005   8.038   7.731   1.491
10370SOL     OW33006  13.542  10.559   1.569
10370SOL    HW133007  13.562  10.648   1.539
10370SOL    HW233008  13.594  10.503   1.511
10371SOL     OW33009   1.579  11.597  12.082
10371SOL    HW133010   1.654  11.643  12.122
10371SOL    HW233011   1.532  11.665  12.034
10372SOL     OW33012   1.758  12.092  11.470
10372SOL    HW133013   1.851  12.069  11.470
10372SOL    HW233014   1.716  12.023  11.419
10373SOL     OW33015   9.949   6.854  10.541
10373SOL    HW133016   9.917   6.769  10.512
10373SOL    HW233017   9.906   6.870  10.624
10374SOL     OW33018  14.340   2.062   0.891
10374SOL    HW133019  14.329   1.987   0.949
10374SOL    HW233020  14.251   2.083   0.862
10375SOL     OW33021   8.489   3.310   6.639
10375SOL    HW133022   8.488   3.348   6.551
10375SOL    HW233023   8.562   3.247   6.637
10376SOL     OW33024  13.698   4.724   6.286
10376SOL    HW133025  13.777   4.756   6.330
10376SOL    HW233026  13.723   4.718   6.194
10377SOL     OW33027  14.526   2.122   9.875
10377SOL    HW133028  14.469   2.055   9.912
10377SOL    HW233029  14.583   2.074   9.815
10378SOL     OW33030  10.209   3.729   2.717
10378SOL    HW133031  10.219   3.788   2.791
10378SOL    HW233032  10.162   3.653   2.753
10379SOL     OW33033   4.814   7.157  11.073
10379SOL    HW133034   4.871   7.178  10.999
10379SOL    HW233035   4.808   7.062  11.073
10380SOL     OW33036   7.554   6.759  10.394
10380SOL    HW133037   7.634   6.756  10.341
10380SOL    HW233038   7.530   6.851  10.395
10381SOL     OW33039  13.552   2.172   5.147
10381SOL    HW133040  13.524   2.261   5.126
10381SOL    HW233041  13.508   2.152   5.230
10382SOL     OW33042  10.165   9.309   3.924
10382SOL    HW133043  10.101   9.381   3.925
10382SOL    HW233044  10.241   9.345   3.969
10383SOL     OW33045   9.530   4.972   4.952
10383SOL    HW133046   9.585   5.011   4.884
10383SOL    HW233047   9.441   5.000   4.929
10384SOL     OW33048   9.103   5.514   8.015
10384SOL    HW133049   9.009   5.497   8.014
10384SOL    HW233050   9.143   5.431   7.989
10385SOL     OW33051  14.757  10.418  13.203
10385SOL    HW133052  14.742  10.498  13.253
10385SOL    HW233053  14.672  10.396  13.164
10386SOL     OW33054  10.173   4.009   2.543
10386SOL    HW133055  10.125   3.926   2.535
10386SOL    HW233056  10.187   4.038   2.453
10387SOL     OW33057   4.898   6.829  14.853
10387SOL    HW133058   4.885   6.921  14.878
10387SOL    HW233059   4.837   6.815  14.782
10388SOL     OW33060   0.809   9.042   8.971
10388SOL    HW133061   0.840   9.067   9.058
10388SOL    HW233062   0.872   9.082   8.911
10389SOL     OW33063   9.396  11.568   2.384
10389SOL    HW133064   9.333  11.502   2.353
10389SOL    HW233065   9.348  11.650   2.381
10390SOL     OW33066  11.264  11.057  11.666
10390SOL    HW133067  11.261  11.103  11.581
10390SOL    HW233068  11.332  10.991  11.655
10391SOL     OW33069   7.072   4.981   6.164
10391SOL    HW133070   6.997   5.005   6.109
10391SOL    HW233071   7.147   5.019   6.119
10392SOL     OW33072   7.970   1.585   8.602
10392SOL    HW133073   8.048   1.610   8.553
10392SOL    HW233074   8.004   1.539   8.679
10393SOL     OW33075   0.035   4.304   1.485
10393SOL    HW133076   0.040   4.388   1.440
10393SOL    HW233077  14.855   4.252   1.431
10394SOL     OW33078  10.531  10.436  14.774
10394SOL    HW133079  10.612  10.461  14.729
10394SOL    HW233080  10.560  10.403  14.859
10395SOL     OW33081   3.579   6.197   2.434
10395SOL    HW133082   3.581   6.241   2.519
10395SOL    HW233083   3.533   6.115   2.451
10396SOL     OW33084   9.453  12.420   0.365
10396SOL    HW133085   9.444  12.515   0.369
10396SOL    HW233086   9.544  12.404   0.389
10397SOL     OW33087  13.697   9.001   8.100
10397SOL    HW133088  13.707   8.949   8.020
10397SOL    HW233089  13.662   9.085   8.070
10398SOL     OW33090   8.740   7.163  13.864
10398SOL    HW133091   8.768   7.079  13.826
10398SOL    HW233092   8.698   7.139  13.946
10399SOL     OW33093   1.263   2.669   8.835
10399SOL    HW133094   1.259   2.752   8.881
10399SOL    HW233095   1.200   2.678   8.764
10400SOL     OW33096   0.896  11.494   1.430
10400SOL    HW133097   0.837  11.486   1.355
10400SOL    HW233098   0.977  11.452   1.402
10401SOL     OW33099  11.783   1.802   5.000
10401SOL    HW133100  11.812   1.889   4.971
10401SOL    HW233101  11.824   1.790   5.085
10402SOL     OW33102   1.543   2.090  14.026
10402SOL    HW133103   1.561   1.997  14.036
10402SOL    HW233104   1.616   2.123  13.973
10403SOL     OW33105  10.239  13.531  14.304
10403SOL    HW133106  10.292  13.468  14.255
10403SOL    HW233107  10.149  13.512  14.280
10404SOL     OW33108   0.336  14.231   6.503
10404SOL    HW133109   0.382  14.249   6.421
10404SOL    HW233110   0.406  14.218   6.567
10405SOL     OW33111   4.850   4.584   5.861
10405SOL    HW133112   4.920   4.519   5.862
10405SOL    HW233113   4.774   4.538   5.897
10406SOL     OW33114   6.689   3.499   6.561
10406SOL    HW133115   6.751   3.483   6.632
10406SOL    HW233116   6.663   3.412   6.531
10407SOL     OW33117  11.927  10.526  13.395
10407SOL    HW133118  12.014  10.487  13.385
10407SOL    HW233119  11.929  10.604  13.340
10408SOL     OW33120   6.513  12.710   6.860
10408SOL    HW133121   6.487  12.794   6.822
10408SOL    HW233122   6.453  12.697   6.933
10409SOL     OW33123   5.799   9.846  13.112
10409SOL    HW133124   5.823   9.763  13.071
10409SOL    HW233125   5.751   9.820  13.191
10410SOL     OW33126   1.999   9.271   6.747
10410SOL    HW133127   1.926   9.230   6.700
10410SOL    HW233128   2.045   9.198   6.788
10411SOL     OW33129   3.846  12.578  12.878
10411SOL    HW133130   3.782  12.510  12.859
10411SOL    HW233131   3.845  12.587  12.973
10412SOL     OW33132   6.023   4.341  13.347
10412SOL    HW133133   5.971   4.296  13.281
10412SOL    HW233134   5.964   4.352  13.421
10413SOL     OW33135   3.344   8.187   0.230
10413SOL    HW133136   3.378   8.098   0.236
10413SOL    HW233137   3.290   8.198   0.308
10414SOL     OW33138   3.496  10.143  13.296
10414SOL    HW133139   3.554  10.091  13.240
10414SOL    HW233140   3.454  10.078  13.352
10415SOL     OW33141   6.689   2.259  12.890
10415SOL    HW133142   6.684   2.235  12.798
10415SOL    HW233143   6.733   2.185  12.932
10416SOL     OW33144   3.352   9.576   9.828
10416SOL    HW133145   3.323   9.489   9.856
10416SOL    HW233146   3.300   9.636   9.881
10417SOL     OW33147   3.334  13.867   7.342
10417SOL    HW133148   3.240  13.879   7.331
10417SOL    HW233149   3.373  13.901   7.261
10418SOL     OW33150   7.508  14.732   3.598
10418SOL    HW133151   7.584  14.683   3.629
10418SOL    HW233152   7.485  14.691   3.515
10419SOL     OW33153   7.492   4.414   2.757
10419SOL    HW133154   7.516   4.505   2.772
10419SOL    HW233155   7.521   4.396   2.668
10420SOL     OW33156  13.554   6.677   3.532
10420SOL    HW133157  13.550   6.594   3.484
10420SOL    HW233158  13.647   6.696   3.540
10421SOL     OW33159   9.986   8.794  12.991
10421SOL    HW133160  10.069   8.809  13.035
10421SOL    HW233161   9.941   8.729  13.045
10422SOL     OW33162   4.548   6.482   0.307
10422SOL    HW133163   4.608   6.532   0.252
10422SOL    HW233164   4.462   6.524   0.294
10423SOL     OW33165  10.936  12.977   1.302
10423SOL    HW133166  10.867  13.030   1.342
10423SOL    HW233167  10.957  12.911   1.369
10424SOL     OW33168   5.887   6.524  14.503
10424SOL    HW133169   5.951   6.594  14.490
10424SOL    HW233170   5.938   6.444  14.505
10425SOL     OW33171   8.699  13.070   2.110
10425SOL    HW133172   8.749  13.051   2.031
10425SOL    HW233173   8.758  13.124   2.163
10426SOL     OW33174   1.489  12.524  14.316
10426SOL    HW133175   1.478  12.557  14.227
10426SOL    HW233176   1.470  12.599  14.372
10427SOL     OW33177   3.803  14.185  12.391
10427SOL    HW133178   3.831  14.098  12.421
10427SOL    HW233179   3.757  14.223  12.466
10428SOL     OW33180   9.473   6.592   7.042
10428SOL    HW133181   9.505   6.682   7.047
10428SOL    HW233182   9.551   6.540   7.021
10429SOL     OW33183   2.286   3.944  14.404
10429SOL    HW133184   2.298   3.852  14.384
10429SOL    HW233185   2.341   3.959  14.482
10430SOL     OW33186   4.500   3.055   4.951
10430SOL    HW133187   4.457   3.033   5.033
10430SOL    HW233188   4.573   3.112   4.976
10431SOL     OW33189   5.110   4.040   1.359
10431SOL    HW133190   5.106   3.987   1.438
10431SOL    HW233191   5.047   3.999   1.299
10432SOL     OW33192   8.228  11.115   4.028
10432SOL    HW133193   8.295  11.172   3.991
10432SOL    HW233194   8.178  11.084   3.953
10433SOL     OW33195   6.638  10.038   6.202
10433SOL    HW133196   6.679   9.970   6.254
10433SOL    HW233197   6.544  10.018   6.205
10434SOL     OW33198   2.178  10.135   1.430
10434SOL    HW133199   2.208  10.169   1.345
10434SOL    HW233200   2.170  10.213   1.485
10435SOL     OW33201   7.500  14.498   5.052
10435SOL    HW133202   7.461  14.585   5.066
10435SOL    HW233203   7.569  14.492   5.117
10436SOL     OW33204   5.603   0.195   9.023
10436SOL    HW133205   5.583   0.268   9.082
10436SOL    HW233206   5.577   0.117   9.071
10437SOL     OW33207  11.176   3.746   4.653
10437SOL    HW133208  11.244   3.809   4.675
10437SOL    HW233209  11.222   3.663   4.642
10438SOL     OW33210   8.184  13.966   2.726
10438SOL    HW133211   8.266  13.971   2.775
10438SOL    HW233212   8.149  13.879   2.746
10439SOL     OW33213   1.743  12.019   9.405
10439SOL    HW133214   1.746  11.953   9.335
10439SOL    HW233215   1.693  12.092   9.367
10440SOL     OW33216   9.414  13.590   6.572
10440SOL    HW133217   9.404  13.568   6.664
10440SOL    HW233218   9.324  13.602   6.540
10441SOL     OW33219  14.873  12.706   1.470
10441SOL    HW133220  14.837  12.790   1.499
10441SOL    HW233221  14.861  12.648   1.545
10442SOL     OW33222   7.901  12.553  14.709
10442SOL    HW133223   7.950  12.597  14.779
10442SOL    HW233224   7.858  12.480  14.753
10443SOL     OW33225  13.008   2.042  10.378
10443SOL    HW133226  12.941   2.049  10.445
10443SOL    HW233227  13.013   2.129  10.339
10444SOL     OW33228   2.775   1.119   7.996
10444SOL    HW133229   2.819   1.036   7.976
10444SOL    HW233230   2.702   1.123   7.934
10445SOL     OW33231   8.973  14.800   9.410
10445SOL    HW133232   9.062  14.775   9.386
10445SOL    HW233233   8.980  14.829   9.501
10446SOL     OW33234  12.226   8.687   6.328
10446SOL    HW133235  12.138   8.696   6.292
10446SOL    HW233236  12.213   8.672   6.421
10447SOL     OW33237   5.035  13.745   8.485
10447SOL    HW133238   4.965  13.766   8.423
10447SOL    HW233239   5.097  13.817   8.478
10448SOL     OW33240   5.321   3.936   3.338
10448SOL    HW133241   5.389   3.882   3.379
10448SOL    HW233242   5.241   3.884   3.347
10449SOL     OW33243  12.093   5.570   5.565
10449SOL    HW133244  12.042   5.610   5.636
10449SOL    HW233245  12.134   5.493   5.606
10450SOL     OW33246   0.190  13.922   5.042
10450SOL    HW133247   0.181  13.829   5.021
10450SOL    HW233248   0.101  13.956   5.043
10451SOL     OW33249  12.732  11.915  12.866
10451SOL    HW133250  12.806  11.900  12.808
10451SOL    HW233251  12.758  11.990  12.919
10452SOL     OW33252   3.733   8.436   6.277
10452SOL    HW133253   3.786   8.377   6.331
10452SOL    HW233254   3.660   8.461   6.334
10453SOL     OW33255   6.404   5.840  10.976
10453SOL    HW133256   6.450   5.903  10.920
10453SOL    HW233257   6.314   5.843  10.946
10454SOL     OW33258   9.437   9.369   7.605
10454SOL    HW133259   9.351   9.337   7.578
10454SOL    HW233260   9.499   9.302   7.575
10455SOL     OW33261   7.957   6.382   1.805
10455SOL    HW133262   7.882   6.335   1.767
10455SOL    HW233263   8.007   6.314   1.849
10456SOL     OW33264   4.089   6.949   8.778
10456SOL    HW133265   3.997   6.945   8.805
10456SOL    HW233266   4.123   6.862   8.797
10457SOL     OW33267   0.851   2.490   5.212
10457SOL    HW133268   0.762   2.462   5.233
10457SOL    HW233269   0.907   2.437   5.268
10458SOL     OW33270   8.572   4.033  11.380
10458SOL    HW133271   8.534   3.951  11.350
10458SOL    HW233272   8.631   4.008  11.451
10459SOL     OW33273   7.015   7.367  13.376
10459SOL    HW133274   6.955   7.430  13.416
10459SOL    HW233275   6.965   7.286  13.371
10460SOL     OW33276   9.314   1.582   1.663
10460SOL    HW133277   9.254   1.508   1.672
10460SOL    HW233278   9.317   1.621   1.751
10461SOL     OW33279   7.099  14.645  13.193
10461SOL    HW133280   7.044  14.652  13.271
10461SOL    HW233281   7.138  14.732  13.183
10462SOL     OW33282   0.828   2.977   2.847
10462SOL    HW133283   0.893   2.907   2.852
10462SOL    HW233284   0.794   2.972   2.758
10463SOL     OW33285   3.894   1.134  11.293
10463SOL    HW133286   3.902   1.043  11.321
10463SOL    HW233287   3.925   1.135  11.203
10464SOL     OW33288   4.638  13.353  12.186
10464SOL    HW133289   4.733  13.359  12.196
10464SOL    HW233290   4.604  13.433  12.228
10465SOL     OW33291   0.851   0.006   8.691
10465SOL    HW133292   0.769   0.055   8.682
10465SOL    HW233293   0.866   0.004   8.786
10466SOL     OW33294   2.921   4.235   5.327
10466SOL    HW133295   2.841   4.205   5.368
10466SOL    HW233296   2.892   4.291   5.255
10467SOL     OW33297  10.833   3.559   1.599
10467SOL    HW133298  10.785   3.479   1.621
10467SOL    HW233299  10.905   3.529   1.544
10468SOL     OW33300   9.660   2.419   9.276
10468SOL    HW133301   9.621   2.336   9.248
10468SOL    HW233302   9.650   2.418   9.372
10469SOL     OW33303   0.339   6.383   8.693
10469SOL    HW133304   0.337   6.303   8.639
10469SOL    HW233305   0.368   6.353   8.779
10470SOL     OW33306   9.213   7.427  12.632
10470SOL    HW133307   9.209   7.458  12.542
10470SOL    HW233308   9.302   7.392  12.642
10471SOL     OW33309   7.615  10.342  11.528
10471SOL    HW133310   7.631  10.399  11.454
10471SOL    HW233311   7.528  10.365  11.560
10472SOL     OW33312  12.838  12.245   6.075
10472SOL    HW133313  12.898  12.175   6.049
10472SOL    HW233314  12.890  12.325   6.066
10473SOL     OW33315   1.562  14.214   4.626
10473SOL    HW133316   1.647  14.190   4.662
10473SOL    HW233317   1.579  14.228   4.532
10474SOL     OW33318  12.756  12.272   2.231
10474SOL    HW133319  12.737  12.312   2.146
10474SOL    HW233320  12.683  12.298   2.287
10475SOL     OW33321  13.320   7.568   4.352
10475SOL    HW133322  13.283   7.481   4.370
10475SOL    HW233323  13.262   7.605   4.285
10476SOL     OW33324   4.559   4.327   3.074
10476SOL    HW133325   4.515   4.248   3.043
10476SOL    HW233326   4.561   4.385   2.998
10477SOL     OW33327  11.442   1.657   3.797
10477SOL    HW133328  11.479   1.659   3.885
10477SOL    HW233329  11.446   1.748   3.767
10478SOL     OW33330   4.785   6.531  11.163
10478SOL    HW133331   4.864   6.585  11.164
10478SOL    HW233332   4.764   6.520  11.070
10479SOL     OW33333   3.851   0.849  12.099
10479SOL    HW133334   3.825   0.940  12.081
10479SOL    HW233335   3.813   0.830  12.184
10480SOL     OW33336   9.940   9.875  13.377
10480SOL    HW133337   9.999   9.923  13.319
10480SOL    HW233338   9.989   9.796  13.401
10481SOL     OW33339   1.221  12.879  10.444
10481SOL    HW133340   1.179  12.964  10.434
10481SOL    HW233341   1.190  12.828  10.369
10482SOL     OW33342  10.364  10.810   4.194
10482SOL    HW133343  10.455  10.795   4.170
10482SOL    HW233344  10.365  10.894   4.240
10483SOL     OW33345  11.152  13.661   7.529
10483SOL    HW133346  11.228  13.662   7.586
10483SOL    HW233347  11.081  13.629   7.584
10484SOL     OW33348   9.003   8.148   9.653
10484SOL    HW133349   8.996   8.241   9.673
10484SOL    HW233350   9.040   8.145   9.565
10485SOL     OW33351   6.846   7.213   8.137
10485SOL    HW133352   6.925   7.209   8.190
10485SOL    HW233353   6.868   7.167   8.056
10486SOL     OW33354   5.006   5.780   8.553
10486SOL    HW133355   4.933   5.785   8.614
10486SOL    HW233356   5.028   5.872   8.534
10487SOL     OW33357   6.237   1.133   8.652
10487SOL    HW133358   6.152   1.108   8.619
10487SOL    HW233359   6.300   1.082   8.600
10488SOL     OW33360  10.138   9.774   9.778
10488SOL    HW133361  10.115   9.867   9.786
10488SOL    HW233362  10.196   9.770   9.702
10489SOL     OW33363   0.037   6.133   6.109
10489SOL    HW133364   0.117   6.136   6.057
10489SOL    HW233365  14.875   6.051   6.084
10490SOL     OW33366  12.302   3.792   2.939
10490SOL    HW133367  12.386   3.831   2.962
10490SOL    HW233368  12.241   3.828   3.003
10491SOL     OW33369   5.633  12.966  14.388
10491SOL    HW133370   5.644  12.911  14.466
10491SOL    HW233371   5.722  12.988  14.361
10492SOL     OW33372   5.557   8.660   3.829
10492SOL    HW133373   5.612   8.719   3.881
10492SOL    HW233374   5.561   8.694   3.740
10493SOL     OW33375   7.391   3.272   3.156
10493SOL    HW133376   7.313   3.254   3.102
10493SOL    HW233377   7.399   3.195   3.211
10494SOL     OW33378  12.880   6.179   0.906
10494SOL    HW133379  12.889   6.257   0.960
10494SOL    HW233380  12.902   6.106   0.964
10495SOL     OW33381   7.625   8.806  14.018
10495SOL    HW133382   7.666   8.726  13.985
10495SOL    HW233383   7.696   8.856  14.057
10496SOL     OW33384   8.850  12.186   4.066
10496SOL    HW133385   8.809  12.201   3.980
10496SOL    HW233386   8.805  12.110   4.101
10497SOL     OW33387  12.780   6.883  12.428
10497SOL    HW133388  12.837   6.835  12.368
10497SOL    HW233389  12.732   6.815  12.476
10498SOL     OW33390   1.504   2.532   0.467
10498SOL    HW133391   1.465   2.554   0.383
10498SOL    HW233392   1.434   2.544   0.531
10499SOL     OW33393  14.582   1.141  13.292
10499SOL    HW133394  14.558   1.229  13.321
10499SOL    HW233395  14.569   1.087  13.370
10500SOL     OW33396  11.514   5.891   0.638
10500SOL    HW133397  11.510   5.931   0.551
10500SOL    HW233398  11.586   5.828   0.632
10501SOL     OW33399   5.136   9.795   6.840
10501SOL    HW133400   5.162   9.836   6.923
10501SOL    HW233401   5.141   9.701   6.857
10502SOL     OW33402  10.796  11.742   6.943
10502SOL    HW133403  10.701  11.737   6.939
10502SOL    HW233404  10.821  11.795   6.867
10503SOL     OW33405   9.802   8.143  11.663
10503SOL    HW133406   9.845   8.058  11.651
10503SOL    HW233407   9.829   8.194  11.587
10504SOL     OW33408   1.955   2.488   4.639
10504SOL    HW133409   1.885   2.463   4.699
10504SOL    HW233410   1.992   2.406   4.609
10505SOL     OW33411  14.230  14.532   3.066
10505SOL    HW133412  14.211  14.603   3.005
10505SOL    HW233413  14.218  14.452   3.014
10506SOL     OW33414   3.900  13.683   6.726
10506SOL    HW133415   3.921  13.644   6.641
10506SOL    HW233416   3.862  13.768   6.704
10507SOL     OW33417   5.881  10.224   8.377
10507SOL    HW133418   5.949  10.202   8.441
10507SOL    HW233419   5.907  10.177   8.298
10508SOL     OW33420  14.000  13.047  13.007
10508SOL    HW133421  13.982  13.105  13.080
10508SOL    HW233422  13.913  13.023  12.973
10509SOL     OW33423  10.187   5.413   7.041
10509SOL    HW133424  10.159   5.350   7.108
10509SOL    HW233425  10.158   5.375   6.959
10510SOL     OW33426   9.524  14.199   5.133
10510SOL    HW133427   9.597  14.222   5.076
10510SOL    HW233428   9.493  14.283   5.167
10511SOL     OW33429   1.760  14.335   3.775
10511SOL    HW133430   1.851  14.365   3.785
10511SOL    HW233431   1.740  14.350   3.682
10512SOL     OW33432   0.724   9.948   8.022
10512SOL    HW133433   0.745   9.868   8.071
10512SOL    HW233434   0.633   9.936   7.994
10513SOL     OW33435  12.557   5.807   3.793
10513SOL    HW133436  12.558   5.858   3.874
10513SOL    HW233437  12.637   5.833   3.747
10514SOL     OW33438  14.842   9.847  14.084
10514SOL    HW133439  14.750   9.818  14.078
10514SOL    HW233440   0.007   9.795  14.018
10515SOL     OW33441  14.783  13.790   5.671
10515SOL    HW133442  14.764  13.697   5.662
10515SOL    HW233443  14.865  13.803   5.622
10516SOL     OW33444   1.288  14.849   4.609
10516SOL    HW133445   1.311  14.815   4.695
10516SOL    HW233446   1.280  14.772   4.553
10517SOL     OW33447   4.283   4.333   0.203
10517SOL    HW133448   4.204   4.295   0.166
10517SOL    HW233449   4.354   4.285   0.161
10518SOL     OW33450   7.907  13.941   6.422
10518SOL    HW133451   7.946  13.962   6.507
10518SOL    HW233452   7.857  13.860   6.439
10519SOL     OW33453   2.163   9.743   1.266
10519SOL    HW133454   2.076   9.773   1.238
10519SOL    HW233455   2.152   9.650   1.285
10520SOL     OW33456   9.064   1.354   3.469
10520SOL    HW133457   9.098   1.402   3.545
10520SOL    HW233458   9.004   1.415   3.426
10521SOL     OW33459   8.518  14.184   5.323
10521SOL    HW133460   8.522  14.092   5.298
10521SOL    HW233461   8.457  14.224   5.261
10522SOL     OW33462  13.927  12.333  10.419
10522SOL    HW133463  13.959  12.286  10.342
10522SOL    HW233464  13.995  12.398  10.437
10523SOL     OW33465   7.106   1.019  12.555
10523SOL    HW133466   7.068   1.103  12.531
10523SOL    HW233467   7.177   1.005  12.492
10524SOL     OW33468   8.974  14.499   2.637
10524SOL    HW133469   8.984  14.528   2.728
10524SOL    HW233470   9.018  14.566   2.585
10525SOL     OW33471   8.626  11.531   3.593
10525SOL    HW133472   8.658  11.602   3.538
10525SOL    HW233473   8.627  11.454   3.535
10526SOL     OW33474   2.528   5.661  12.781
10526SOL    HW133475   2.486   5.745  12.799
10526SOL    HW233476   2.467   5.596  12.815
10527SOL     OW33477   7.223   9.372   1.553
10527SOL    HW133478   7.198   9.288   1.591
10527SOL    HW233479   7.144   9.404   1.511
10528SOL     OW33480   4.030   4.370   3.384
10528SOL    HW133481   4.095   4.438   3.367
10528SOL    HW233482   3.946   4.409   3.359
10529SOL     OW33483  14.595   5.823  14.670
10529SOL    HW133484  14.583   5.835  14.765
10529SOL    HW233485  14.689   5.805  14.661
10530SOL     OW33486   0.595   4.694  12.903
10530SOL    HW133487   0.571   4.608  12.939
10530SOL    HW233488   0.561   4.757  12.967
10531SOL     OW33489   1.667   3.316   1.160
10531SOL    HW133490   1.597   3.378   1.137
10531SOL    HW233491   1.727   3.368   1.213
10532SOL     OW33492   0.166   4.667   9.225
10532SOL    HW133493   0.086   4.714   9.202
10532SOL    HW233494   0.200   4.635   9.142
10533SOL     OW33495   9.776  12.266  14.584
10533SOL    HW133496   9.692  12.248  14.625
10533SOL    HW233497   9.816  12.180  14.571
10534SOL     OW33498  14.432   8.075   6.774
10534SOL    HW133499  14.379   8.109   6.702
10534SOL    HW233500  14.521   8.076   6.741
10535SOL     OW33501   5.113   2.988   0.285
10535SOL    HW133502   5.053   2.934   0.337
10535SOL    HW233503   5.072   2.994   0.199
10536SOL     OW33504   9.786   8.714  10.175
10536SOL    HW133505   9.694   8.727  10.201
10536SOL    HW233506   9.830   8.686  10.255
10537SOL     OW33507   3.280   0.875   4.704
10537SOL    HW133508   3.238   0.858   4.619
10537SOL    HW233509   3.336   0.799   4.719
10538SOL     OW33510   3.417   1.127   0.028
10538SOL    HW133511   3.390   1.201   0.082
10538SOL    HW233512   3.498   1.095   0.069
10539SOL     OW33513   8.242   1.566   5.781
10539SOL    HW133514   8.288   1.642   5.817
10539SOL    HW233515   8.255   1.573   5.686
10540SOL     OW33516   9.156   0.738   3.818
10540SOL    HW133517   9.084   0.680   3.793
10540SOL    HW233518   9.230   0.709   3.765
10541SOL     OW33519   3.074   9.356   8.828
10541SOL    HW133520   3.165   9.385   8.817
10541SOL    HW233521   3.068   9.332   8.920
10542SOL     OW33522   6.652   4.819   3.809
10542SOL    HW133523   6.601   4.755   3.760
10542SOL    HW233524   6.638   4.795   3.901
10543SOL     OW33525   1.632   5.099  11.772
10543SOL    HW133526   1.724   5.074  11.762
10543SOL    HW233527   1.635   5.193  11.793
10544SOL     OW33528   6.928   6.491  11.240
10544SOL    HW133529   6.898   6.468  11.328
10544SOL    HW233530   6.928   6.587  11.239
10545SOL     OW33531   6.491   2.842  13.439
10545SOL    HW133532   6.516   2.934  13.429
10545SOL    HW233533   6.547   2.810  13.510
10546SOL     OW33534  12.058   1.638   7.294
10546SOL    HW133535  12.067   1.658   7.201
10546SOL    HW233536  12.097   1.551   7.305
10547SOL     OW33537  14.825  12.242   4.813
10547SOL    HW133538  14.858  12.290   4.738
10547SOL    HW233539   0.023  12.204   4.853
10548SOL     OW33540   6.299   5.576  13.396
10548SOL    HW133541   6.358   5.577  13.471
10548SOL    HW233542   6.323   5.497  13.348
10549SOL     OW33543  10.533  14.313  14.441
10549SOL    HW133544  10.537  14.225  14.479
10549SOL    HW233545  10.443  14.320  14.409
10550SOL     OW33546  12.327   3.250   9.291
10550SOL    HW133547  12.293   3.200   9.216
10550SOL    HW233548  12.396   3.305   9.253
10551SOL     OW33549  10.577  10.402   1.360
10551SOL    HW133550  10.565  10.309   1.379
10551SOL    HW233551  10.536  10.447   1.434
10552SOL     OW33552   2.590   5.142   6.256
10552SOL    HW133553   2.648   5.199   6.206
10552SOL    HW233554   2.517   5.198   6.282
10553SOL     OW33555   5.150  10.690   4.633
10553SOL    HW133556   5.229  10.668   4.584
10553SOL    HW233557   5.178  10.759   4.694
10554SOL     OW33558   0.533   8.138   7.590
10554SOL    HW133559   0.451   8.152   7.636
10554SOL    HW233560   0.588   8.212   7.615
10555SOL     OW33561  11.279   5.189   7.019
10555SOL    HW133562  11.227   5.144   6.952
10555SOL    HW233563  11.218   5.203   7.091
10556SOL     OW33564   3.707  12.385   5.235
10556SOL    HW133565   3.784  12.440   5.249
10556SOL    HW233566   3.636  12.448   5.220
10557SOL     OW33567   9.717  12.354   5.888
10557SOL    HW133568   9.773  12.425   5.922
10557SOL    HW233569   9.713  12.370   5.794
10558SOL     OW33570  13.342  10.019   2.641
10558SOL    HW133571  13.391  10.079   2.585
10558SOL    HW233572  13.335   9.939   2.589
10559SOL     OW33573   9.428  13.553  14.640
10559SOL    HW133574   9.519  13.582  14.633
10559SOL    HW233575   9.432  13.458  14.626
10560SOL     OW33576  11.153  10.583  10.030
10560SOL    HW133577  11.095  10.620  10.096
10560SOL    HW233578  11.159  10.652   9.963
10561SOL     OW33579   9.899  14.821   9.411
10561SOL    HW133580   9.890  14.846   9.503
10561SOL    HW233581   9.898  14.725   9.412
10562SOL     OW33582   8.355   0.570   3.854
10562SOL    HW133583   8.396   0.640   3.802
10562SOL    HW233584   8.265   0.567   3.822
10563SOL     OW33585   5.910  13.889  14.730
10563SOL    HW133586   5.859  13.901  14.811
10563SOL    HW233587   5.958  13.971  14.720
10564SOL     OW33588  12.392  10.802   2.551
10564SOL    HW133589  12.478  10.804   2.509
10564SOL    HW233590  12.405  10.753   2.632
10565SOL     OW33591  11.017  13.574   6.101
10565SOL    HW133592  11.077  13.558   6.173
10565SOL    HW233593  10.935  13.532   6.128
10566SOL     OW33594   9.776   0.822   8.331
10566SOL    HW133595   9.695   0.784   8.297
10566SOL    HW233596   9.751   0.909   8.361
10567SOL     OW33597   2.719   9.569   0.121
10567SOL    HW133598   2.705   9.521   0.039
10567SOL    HW233599   2.798   9.622   0.104
10568SOL     OW33600  12.604   4.971   9.980
10568SOL    HW133601  12.691   4.933   9.986
10568SOL    HW233602  12.554   4.929  10.051
10569SOL     OW33603   1.350  14.070   6.098
10569SOL    HW133604   1.304  14.016   6.034
10569SOL    HW233605   1.306  14.051   6.181
10570SOL     OW33606   1.013   7.323  11.961
10570SOL    HW133607   0.985   7.391  12.023
10570SOL    HW233608   1.024   7.370  11.878
10571SOL     OW33609  10.134  14.477   9.741
10571SOL    HW133610  10.044  14.480   9.771
10571SOL    HW233611  10.158  14.385   9.745
10572SOL     OW33612   3.610   4.611   9.782
10572SOL    HW133613   3.516   4.629   9.785
10572SOL    HW233614   3.627   4.585   9.691
10573SOL     OW33615  10.372  12.066   9.742
10573SOL    HW133616  10.421  12.130   9.690
10573SOL    HW233617  10.302  12.036   9.684
10574SOL     OW33618  11.240   6.423  11.070
10574SOL    HW133619  11.331   6.432  11.100
10574SOL    HW233620  11.242   6.349  11.010
10575SOL     OW33621  11.246  13.532   5.953
10575SOL    HW133622  11.161  13.545   5.995
10575SOL    HW233623  11.265  13.614   5.908
10576SOL     OW33624  13.987   4.672   9.601
10576SOL    HW133625  14.056   4.712   9.549
10576SOL    HW233626  14.009   4.693   9.691
10577SOL     OW33627   3.553   8.085   0.815
10577SOL    HW133628   3.591   8.146   0.753
10577SOL    HW233629   3.628   8.035   0.849
10578SOL     OW33630   6.593  11.956  13.175
10578SOL    HW133631   6.598  11.880  13.117
10578SOL    HW233632   6.660  11.941  13.241
10579SOL     OW33633   7.279  10.317   7.977
10579SOL    HW133634   7.278  10.372   7.899
10579SOL    HW233635   7.201  10.345   8.026
10580SOL     OW33636   1.772  11.276   1.221
10580SOL    HW133637   1.838  11.231   1.274
10580SOL    HW233638   1.822  11.310   1.146
10581SOL     OW33639   9.461   9.861   3.806
10581SOL    HW133640   9.425   9.852   3.894
10581SOL    HW233641   9.544   9.908   3.819
10582SOL     OW33642   0.631   4.016   8.109
10582SOL    HW133643   0.714   3.975   8.085
10582SOL    HW233644   0.656   4.099   8.150
10583SOL     OW33645  14.511   8.699  14.008
10583SOL    HW133646  14.563   8.770  13.970
10583SOL    HW233647  14.420   8.725  13.992
10584SOL     OW33648   4.050  13.060  11.204
10584SOL    HW133649   3.958  13.047  11.229
10584SOL    HW233650   4.099  12.998  11.258
10585SOL     OW33651   1.101  14.038  10.591
10585SOL    HW133652   1.183  13.993  10.611
10585SOL    HW233653   1.059  14.049  10.676
10586SOL     OW33654   2.244   3.347  11.108
10586SOL    HW133655   2.222   3.264  11.067
10586SOL    HW233656   2.313   3.325  11.171
10587SOL     OW33657   5.017   6.759   4.838
10587SOL    HW133658   4.970   6.801   4.910
10587SOL    HW233659   4.983   6.802   4.759
10588SOL     OW33660   9.450  12.737   2.524
10588SOL    HW133661   9.461  12.782   2.608
10588SOL    HW233662   9.493  12.653   2.537
10589SOL     OW33663  11.943   9.547   5.181
10589SOL    HW133664  11.945   9.454   5.157
10589SOL    HW233665  11.881   9.586   5.118
10590SOL     OW33666   7.828   8.347  12.999
10590SOL    HW133667   7.804   8.440  12.994
10590SOL    HW233668   7.816   8.315  12.910
10591SOL     OW33669   8.267   0.903   0.982
10591SOL    HW133670   8.209   0.963   1.028
10591SOL    HW233671   8.301   0.953   0.908
10592SOL     OW33672   6.015   6.481   0.662
10592SOL    HW133673   6.008   6.441   0.576
10592SOL    HW233674   5.976   6.417   0.722
10593SOL     OW33675   0.597   0.125   4.747
10593SOL    HW133676   0.665   0.119   4.814
10593SOL    HW233677   0.644   0.117   4.664
10594SOL     OW33678   5.141   4.343  12.181
10594SOL    HW133679   5.234   4.351  12.162
10594SOL    HW233680   5.097   4.393  12.112
10595SOL     OW33681   7.791   5.128   0.409
10595SOL    HW133682   7.747   5.183   0.475
10595SOL    HW233683   7.802   5.044   0.452
10596SOL     OW33684  14.628   3.802   8.780
10596SOL    HW133685  14.714   3.799   8.823
10596SOL    HW233686  14.621   3.891   8.747
10597SOL     OW33687   6.210  13.735   7.987
10597SOL    HW133688   6.244  13.658   8.033
10597SOL    HW233689   6.283  13.765   7.933
10598SOL     OW33690  12.979  14.234   0.867
10598SOL    HW133691  12.887  14.209   0.863
10598SOL    HW233692  12.993  14.259   0.958
10599SOL     OW33693   2.170   7.262   8.634
10599SOL    HW133694   2.238   7.304   8.582
10599SOL    HW233695   2.159   7.320   8.710
10600SOL     OW33696   5.821  10.393  12.615
10600SOL    HW133697   5.889  10.442  12.568
10600SOL    HW233698   5.851  10.392  12.706
10601SOL     OW33699   7.806   8.863  10.458
10601SOL    HW133700   7.738   8.929  10.450
10601SOL    HW233701   7.780   8.812  10.535
10602SOL     OW33702  13.715  10.452   7.399
10602SOL    HW133703  13.757  10.420   7.479
10602SOL    HW233704  13.653  10.382   7.376
10603SOL     OW33705   2.243   6.022   8.898
10603SOL    HW133706   2.155   5.997   8.925
10603SOL    HW233707   2.295   6.017   8.978
10604SOL     OW33708   0.350   0.927   6.041
10604SOL    HW133709   0.257   0.915   6.059
10604SOL    HW233710   0.367   0.873   5.964
10605SOL     OW33711   4.558  12.214   7.048
10605SOL    HW133712   4.599  12.197   7.133
10605SOL    HW233713   4.599  12.295   7.018
10606SOL     OW33714  13.565   2.902  14.150
10606SOL    HW133715  13.513   2.977  14.178
10606SOL    HW233716  13.546   2.834  14.214
10607SOL     OW33717  10.594  14.161   6.364
10607SOL    HW133718  10.596  14.067   6.349
10607SOL    HW233719  10.540  14.196   6.293
10608SOL     OW33720   1.350   2.760  14.187
10608SOL    HW133721   1.334   2.747  14.280
10608SOL    HW233722   1.357   2.856  14.178
10609SOL     OW33723   7.573   4.048   9.313
10609SOL    HW133724   7.515   3.986   9.270
10609SOL    HW233725   7.583   4.015   9.402
10610SOL     OW33726   7.780   6.529  14.306
10610SOL    HW133727   7.842   6.583  14.258
10610SOL    HW233728   7.696   6.546  14.265
10611SOL     OW33729  14.378   9.504   0.789
10611SOL    HW133730  14.420   9.589   0.798
10611SOL    HW233731  14.446   9.441   0.812
10612SOL     OW33732   6.461  10.332   5.833
10612SOL    HW133733   6.540  10.317   5.781
10612SOL    HW233734   6.405  10.258   5.813
10613SOL     OW33735   2.895  11.022   4.420
10613SOL    HW133736   2.822  10.978   4.376
10613SOL    HW233737   2.966  11.022   4.356
10614SOL     OW33738  13.083  14.563   7.011
10614SOL    HW133739  13.043  14.490   6.965
10614SOL    HW233740  13.177  14.548   7.001
10615SOL     OW33741   7.382   2.462  11.660
10615SOL    HW133742   7.468   2.438  11.694
10615SOL    HW233743   7.353   2.385  11.612
10616SOL     OW33744   0.917  10.449   5.815
10616SOL    HW133745   0.893  10.417   5.728
10616SOL    HW233746   1.013  10.453   5.814
10617SOL     OW33747   9.569  12.807   3.198
10617SOL    HW133748   9.527  12.888   3.169
10617SOL    HW233749   9.568  12.812   3.293
10618SOL     OW33750   8.663   1.680  14.016
10618SOL    HW133751   8.600   1.632  14.070
10618SOL    HW233752   8.610   1.717  13.945
10619SOL     OW33753   2.938   0.289   2.383
10619SOL    HW133754   3.007   0.303   2.448
10619SOL    HW233755   2.860   0.328   2.422
10620SOL     OW33756   1.414  13.330   2.538
10620SOL    HW133757   1.508  13.330   2.559
10620SOL    HW233758   1.374  13.282   2.610
10621SOL     OW33759  12.910   6.453   2.626
10621SOL    HW133760  12.989   6.402   2.608
10621SOL    HW233761  12.849   6.426   2.558
10622SOL     OW33762   6.485   5.296   9.067
10622SOL    HW133763   6.480   5.389   9.086
10622SOL    HW233764   6.531   5.258   9.142
10623SOL     OW33765   9.697   3.690   1.244
10623SOL    HW133766   9.751   3.696   1.165
10623SOL    HW233767   9.613   3.655   1.214
10624SOL     OW33768   5.107   1.039   3.163
10624SOL    HW133769   5.014   1.047   3.187
10624SOL    HW233770   5.113   0.953   3.122
10625SOL     OW33771  14.587  10.645   5.946
10625SOL    HW133772  14.611  10.681   6.032
10625SOL    HW233773  14.666  10.601   5.915
10626SOL     OW33774   0.489   0.821  11.979
10626SOL    HW133775   0.412   0.784  11.936
10626SOL    HW233776   0.461   0.908  12.009
10627SOL     OW33777   8.336   8.923  13.720
10627SOL    HW133778   8.349   8.829  13.707
10627SOL    HW233779   8.245   8.930  13.750
10628SOL     OW33780   7.879   6.843   8.704
10628SOL    HW133781   7.948   6.875   8.647
10628SOL    HW233782   7.916   6.847   8.792
10629SOL     OW33783  14.367   5.788   0.827
10629SOL    HW133784  14.342   5.718   0.887
10629SOL    HW233785  14.336   5.868   0.870
10630SOL     OW33786   1.603  14.782   9.646
10630SOL    HW133787   1.683  14.809   9.692
10630SOL    HW233788   1.622  14.694   9.616
10631SOL     OW33789   9.406   8.827   8.099
10631SOL    HW133790   9.374   8.843   8.188
10631SOL    HW233791   9.500   8.814   8.109
10632SOL     OW33792   3.085   8.030  14.811
10632SOL    HW133793   3.070   8.068   0.017
10632SOL    HW233794   3.166   7.980  14.820
10633SOL     OW33795   7.238   9.169  14.843
10633SOL    HW133796   7.287   9.244  14.877
10633SOL    HW233797   7.159   9.208  14.804
10634SOL     OW33798   8.218   1.212   4.199
10634SOL    HW133799   8.269   1.138   4.165
10634SOL    HW233800   8.202   1.189   4.291
10635SOL     OW33801  11.129   6.222  13.565
10635SOL    HW133802  11.093   6.141  13.599
10635SOL    HW233803  11.103   6.224  13.473
10636SOL     OW33804   2.672   7.299   1.027
10636SOL    HW133805   2.731   7.225   1.039
10636SOL    HW233806   2.621   7.302   1.108
10637SOL     OW33807   2.517  12.074   9.406
10637SOL    HW133808   2.474  12.051   9.488
10637SOL    HW233809   2.589  12.132   9.432
10638SOL     OW33810   3.314   2.844   7.485
10638SOL    HW133811   3.231   2.891   7.478
10638SOL    HW233812   3.345   2.863   7.573
10639SOL     OW33813   4.168   3.838  14.471
10639SOL    HW133814   4.095   3.811  14.526
10639SOL    HW233815   4.188   3.927  14.500
10640SOL     OW33816  10.290  12.015   9.295
10640SOL    HW133817  10.272  12.107   9.272
10640SOL    HW233818  10.215  11.967   9.260
10641SOL     OW33819   6.157  13.806   9.603
10641SOL    HW133820   6.113  13.885   9.572
10641SOL    HW233821   6.214  13.780   9.530
10642SOL     OW33822   5.320  12.717   4.463
10642SOL    HW133823   5.284  12.634   4.432
10642SOL    HW233824   5.379  12.692   4.534
10643SOL     OW33825   8.976   0.330   5.341
10643SOL    HW133826   9.034   0.256   5.323
10643SOL    HW233827   9.035   0.404   5.358
10644SOL     OW33828   6.807   0.855   3.607
10644SOL    HW133829   6.781   0.778   3.657
10644SOL    HW233830   6.725   0.899   3.587
10645SOL     OW33831   1.136   3.476  10.546
10645SOL    HW133832   1.167   3.524  10.469
10645SOL    HW233833   1.212   3.426  10.576
10646SOL     OW33834  11.057   2.788  13.127
10646SOL    HW133835  11.064   2.850  13.054
10646SOL    HW233836  10.991   2.725  13.098
10647SOL     OW33837  11.238   9.121  13.198
10647SOL    HW133838  11.288   9.132  13.279
10647SOL    HW233839  11.196   9.036  13.207
10648SOL     OW33840   8.702  14.142   7.849
10648SOL    HW133841   8.790  14.130   7.814
10648SOL    HW233842   8.648  14.163   7.772
10649SOL     OW33843   3.238   0.054  14.610
10649SOL    HW133844   3.325   0.074  14.575
10649SOL    HW233845   3.204  14.865  14.553
10650SOL     OW33846   2.090  13.125   4.367
10650SOL    HW133847   2.036  13.158   4.296
10650SOL    HW233848   2.137  13.050   4.329
10651SOL     OW33849  13.683  10.182  10.995
10651SOL    HW133850  13.699  10.257  11.052
10651SOL    HW233851  13.627  10.217  10.925
10652SOL     OW33852  11.596   4.242   7.901
10652SOL    HW133853  11.508   4.246   7.864
10652SOL    HW233854  11.614   4.332   7.930
10653SOL     OW33855   1.958   7.292   2.867
10653SOL    HW133856   1.887   7.286   2.931
10653SOL    HW233857   2.033   7.324   2.918
10654SOL     OW33858   7.956   6.230   8.510
10654SOL    HW133859   7.948   6.323   8.534
10654SOL    HW233860   7.868   6.206   8.479
10655SOL     OW33861   6.957   6.561   6.905
10655SOL    HW133862   6.869   6.597   6.890
10655SOL    HW233863   6.971   6.570   7.000
10656SOL     OW33864   7.532  12.805   3.792
10656SOL    HW133865   7.505  12.779   3.704
10656SOL    HW233866   7.517  12.899   3.796
10657SOL     OW33867   4.742   1.969   5.123
10657SOL    HW133868   4.681   1.983   5.196
10657SOL    HW233869   4.695   2.003   5.046
10658SOL     OW33870   6.506   0.275   6.120
10658SOL    HW133871   6.585   0.328   6.134
10658SOL    HW233872   6.519   0.197   6.174
10659SOL     OW33873  10.264   1.407  13.038
10659SOL    HW133874  10.194   1.348  13.008
10659SOL    HW233875  10.274   1.385  13.131
10660SOL     OW33876   9.016  11.555   9.720
10660SOL    HW133877   8.960  11.492   9.766
10660SOL    HW233878   8.956  11.602   9.662
10661SOL     OW33879   3.841   3.098   0.918
10661SOL    HW133880   3.797   3.181   0.937
10661SOL    HW233881   3.918   3.123   0.867
10662SOL     OW33882  10.410  12.580   9.609
10662SOL    HW133883  10.466  12.536   9.545
10662SOL    HW233884  10.468  12.598   9.683
10663SOL     OW33885   9.477   2.830  12.007
10663SOL    HW133886   9.406   2.821  12.071
10663SOL    HW233887   9.436   2.810  11.923
10664SOL     OW33888   6.796   0.456   3.347
10664SOL    HW133889   6.785   0.366   3.378
10664SOL    HW233890   6.797   0.509   3.427
10665SOL     OW33891   4.179   0.186   9.658
10665SOL    HW133892   4.236   0.176   9.735
10665SOL    HW233893   4.103   0.235   9.691
10666SOL     OW33894   9.280   8.377   5.505
10666SOL    HW133895   9.270   8.431   5.583
10666SOL    HW233896   9.333   8.431   5.446
10667SOL     OW33897   5.418   9.257  13.924
10667SOL    HW133898   5.371   9.341  13.918
10667SOL    HW233899   5.367   9.198  13.868
10668SOL     OW33900  10.632   9.390  12.370
10668SOL    HW133901  10.621   9.300  12.340
10668SOL    HW233902  10.554   9.436  12.336
10669SOL     OW33903   0.146   9.582   8.675
10669SOL    HW133904   0.181   9.584   8.586
10669SOL    HW233905   0.176   9.665   8.714
10670SOL     OW33906  12.695   4.066  10.613
10670SOL    HW133907  12.705   3.982  10.568
10670SOL    HW233908  12.752   4.059  10.690
10671SOL     OW33909  14.666  13.864  13.439
10671SOL    HW133910  14.620  13.938  13.477
10671SOL    HW233911  14.636  13.860  13.348
10672SOL     OW33912   9.748   4.565  12.020
10672SOL    HW133913   9.701   4.648  12.026
10672SOL    HW233914   9.698   4.513  11.958
10673SOL     OW33915   7.070   4.698   9.930
10673SOL    HW133916   7.112   4.625   9.975
10673SOL    HW233917   7.138   4.734   9.874
10674SOL     OW33918   3.547   9.649   3.533
10674SOL    HW133919   3.529   9.741   3.553
10674SOL    HW233920   3.636   9.636   3.565
10675SOL     OW33921   0.231   4.493   1.903
10675SOL    HW133922   0.173   4.481   1.828
10675SOL    HW233923   0.199   4.572   1.946
10676SOL     OW33924  13.517   6.561   8.183
10676SOL    HW133925  13.527   6.643   8.136
10676SOL    HW233926  13.443   6.575   8.242
10677SOL     OW33927   4.275  11.969   3.116
10677SOL    HW133928   4.347  11.911   3.090
10677SOL    HW233929   4.196  11.917   3.104
10678SOL     OW33930   7.457   4.246  10.739
10678SOL    HW133931   7.452   4.184  10.812
10678SOL    HW233932   7.425   4.196  10.664
10679SOL     OW33933  13.887   6.053   8.318
10679SOL    HW133934  13.856   6.137   8.350
10679SOL    HW233935  13.927   6.072   8.233
10680SOL     OW33936   2.190   5.802   4.068
10680SOL    HW133937   2.247   5.729   4.092
10680SOL    HW233938   2.106   5.781   4.108
10681SOL     OW33939   6.831   7.137   4.952
10681SOL    HW133940   6.803   7.124   4.862
10681SOL    HW233941   6.872   7.054   4.977
10682SOL     OW33942   9.996   5.120   8.329
10682SOL    HW133943  10.027   5.052   8.389
10682SOL    HW233944   9.902   5.106   8.323
10683SOL     OW33945   1.170   0.255   6.232
10683SOL    HW133946   1.262   0.234   6.219
10683SOL    HW233947   1.131   0.175   6.267
10684SOL     OW33948   9.844   4.969  14.030
10684SOL    HW133949   9.893   5.035  14.078
10684SOL    HW233950   9.849   4.997  13.939
10685SOL     OW33951  12.158  11.162   5.568
10685SOL    HW133952  12.132  11.178   5.659
10685SOL    HW233953  12.243  11.206   5.559
10686SOL     OW33954   3.323   4.569  11.792
10686SOL    HW133955   3.316   4.600  11.701
10686SOL    HW233956   3.298   4.646  11.845
10687SOL     OW33957   5.608  12.088  14.107
10687SOL    HW133958   5.546  12.092  14.179
10687SOL    HW233959   5.567  12.136  14.036
10688SOL     OW33960   6.859  10.401  13.900
10688SOL    HW133961   6.861  10.306  13.891
10688SOL    HW233962   6.878  10.418  13.992
10689SOL     OW33963   7.311  14.674   7.435
10689SOL    HW133964   7.402  14.645   7.444
10689SOL    HW233965   7.258  14.600   7.464
10690SOL     OW33966   5.550  10.060   1.203
10690SOL    HW133967   5.467  10.015   1.192
10690SOL    HW233968   5.587  10.065   1.115
10691SOL     OW33969   5.364   8.693   5.377
10691SOL    HW133970   5.290   8.644   5.414
10691SOL    HW233971   5.384   8.760   5.443
10692SOL     OW33972   2.709  10.764   2.012
10692SOL    HW133973   2.639  10.815   1.972
10692SOL    HW233974   2.789  10.792   1.967
10693SOL     OW33975  13.390   4.739  13.501
10693SOL    HW133976  13.387   4.684  13.424
10693SOL    HW233977  13.345   4.820  13.475
10694SOL     OW33978  12.359   1.017   1.793
10694SOL    HW133979  12.430   1.053   1.846
10694SOL    HW233980  12.337   1.088   1.732
10695SOL     OW33981   0.377   8.846   1.875
10695SOL    HW133982   0.346   8.877   1.790
10695SOL    HW233983   0.473   8.845   1.866
10696SOL     OW33984  12.502   5.423   2.392
10696SOL    HW133985  12.481   5.389   2.305
10696SOL    HW233986  12.595   5.445   2.387
10697SOL     OW33987  12.406   0.027  13.187
10697SOL    HW133988  12.353  14.871  13.258
10697SOL    HW233989  12.372  14.864  13.108
10698SOL     OW33990   5.995  11.790   1.185
10698SOL    HW133991   5.920  11.774   1.126
10698SOL    HW233992   6.061  11.727   1.156
10699SOL     OW33993   6.804   2.065   1.084
10699SOL    HW133994   6.856   2.069   1.004
10699SOL    HW233995   6.783   1.972   1.095
10700SOL     OW33996   5.414  11.340   4.071
10700SOL    HW133997   5.370  11.257   4.054
10700SOL    HW233998   5.398  11.392   3.993
10701SOL     OW33999  14.520  13.980  11.151
10701SOL    HW134000  14.539  14.014  11.064
10701SOL    HW234001  14.520  13.885  11.139
10702SOL     OW34002  13.723   1.397   6.753
10702SOL    HW134003  13.723   1.302   6.738
10702SOL    HW234004  13.708   1.435   6.667
10703SOL     OW34005   7.092   0.465  13.116
10703SOL    HW134006   7.121   0.556  13.115
10703SOL    HW234007   7.020   0.462  13.053
10704SOL     OW34008   8.657   5.917  13.931
10704SOL    HW134009   8.724   5.971  13.972
10704SOL    HW234010   8.578   5.933  13.983
10705SOL     OW34011   4.907   9.731  13.531
10705SOL    HW134012   4.999   9.719  13.509
10705SOL    HW234013   4.907   9.795  13.603
10706SOL     OW34014   3.174   5.714   4.630
10706SOL    HW134015   3.137   5.628   4.608
10706SOL    HW234016   3.266   5.696   4.649
10707SOL     OW34017   6.251   1.853  13.818
10707SOL    HW134018   6.267   1.901  13.900
10707SOL    HW234019   6.226   1.921  13.755
10708SOL     OW34020   0.752   4.910   4.366
10708SOL    HW134021   0.740   4.998   4.332
10708SOL    HW234022   0.733   4.918   4.460
10709SOL     OW34023  13.965   1.771   6.536
10709SOL    HW134024  14.016   1.751   6.457
10709SOL    HW234025  13.896   1.831   6.506
10710SOL     OW34026  10.221   3.198   8.073
10710SOL    HW134027  10.185   3.121   8.029
10710SOL    HW234028  10.238   3.260   8.002
10711SOL     OW34029   8.875   6.493   2.347
10711SOL    HW134030   8.910   6.482   2.259
10711SOL    HW234031   8.881   6.406   2.387
10712SOL     OW34032   7.884   3.766   4.761
10712SOL    HW134033   7.873   3.700   4.829
10712SOL    HW234034   7.798   3.806   4.752
10713SOL     OW34035  10.082   1.074   5.100
10713SOL    HW134036  10.012   1.134   5.072
10713SOL    HW234037  10.052   0.988   5.069
10714SOL     OW34038   8.663   4.267   1.653
10714SOL    HW134039   8.604   4.207   1.607
10714SOL    HW234040   8.725   4.211   1.699
10715SOL     OW34041   5.994  12.370   4.210
10715SOL    HW134042   6.063  12.350   4.146
10715SOL    HW234043   5.988  12.291   4.264
10716SOL     OW34044   3.198   9.411  13.555
10716SOL    HW134045   3.290   9.436  13.547
10716SOL    HW234046   3.181   9.411  13.649
10717SOL     OW34047   7.957   4.544   2.076
10717SOL    HW134048   7.957   4.639   2.084
10717SOL    HW234049   7.894   4.515   2.142
10718SOL     OW34050  12.209   1.025   3.256
10718SOL    HW134051  12.187   0.987   3.171
10718SOL    HW234052  12.303   1.009   3.266
10719SOL     OW34053   4.610   6.030  10.593
10719SOL    HW134054   4.597   6.113  10.640
10719SOL    HW234055   4.522   6.006  10.563
10720SOL     OW34056   2.425   8.304  12.905
10720SOL    HW134057   2.520   8.301  12.903
10720SOL    HW234058   2.400   8.345  12.823
10721SOL     OW34059  14.567   6.188   1.424
10721SOL    HW134060  14.618   6.111   1.450
10721SOL    HW234061  14.481   6.174   1.463
10722SOL     OW34062   6.114  14.101  11.712
10722SOL    HW134063   6.074  14.034  11.768
10722SOL    HW234064   6.207  14.078  11.711
10723SOL     OW34065   1.375   7.009   2.754
10723SOL    HW134066   1.339   7.089   2.791
10723SOL    HW234067   1.352   7.014   2.661
10724SOL     OW34068  12.005  10.691   4.225
10724SOL    HW134069  12.031  10.600   4.211
10724SOL    HW234070  11.981  10.724   4.138
10725SOL     OW34071   0.845  14.565  13.636
10725SOL    HW134072   0.765  14.531  13.596
10725SOL    HW234073   0.893  14.606  13.563
10726SOL     OW34074   6.255   6.000   2.148
10726SOL    HW134075   6.236   5.906   2.156
10726SOL    HW234076   6.350   6.003   2.132
10727SOL     OW34077  14.384   3.753   9.201
10727SOL    HW134078  14.294   3.767   9.231
10727SOL    HW234079  14.415   3.840   9.177
10728SOL     OW34080   1.596   5.500   1.621
10728SOL    HW134081   1.601   5.482   1.527
10728SOL    HW234082   1.550   5.424   1.658
10729SOL     OW34083  10.727  10.337  10.158
10729SOL    HW134084  10.718  10.299  10.071
10729SOL    HW234085  10.646  10.385  10.172
10730SOL     OW34086   2.031  12.125   1.157
10730SOL    HW134087   2.113  12.099   1.116
10730SOL    HW234088   1.980  12.044   1.163
10731SOL     OW34089  13.217   2.328   2.621
10731SOL    HW134090  13.169   2.411   2.618
10731SOL    HW234091  13.148   2.261   2.621
10732SOL     OW34092   1.789  14.391   5.582
10732SOL    HW134093   1.790  14.307   5.538
10732SOL    HW234094   1.856  14.384   5.650
10733SOL     OW34095   9.927   8.138   8.888
10733SOL    HW134096   9.911   8.168   8.977
10733SOL    HW234097  10.017   8.104   8.890
10734SOL     OW34098   6.669  11.835  13.707
10734SOL    HW134099   6.627  11.874  13.784
10734SOL    HW234100   6.719  11.906  13.668
10735SOL     OW34101   3.711  11.186   5.513
10735SOL    HW134102   3.798  11.216   5.539
10735SOL    HW234103   3.694  11.229   5.430
10736SOL     OW34104  13.777  11.171   3.848
10736SOL    HW134105  13.699  11.215   3.814
10736SOL    HW234106  13.744  11.089   3.885
10737SOL     OW34107   8.422   3.529   7.639
10737SOL    HW134108   8.428   3.608   7.585
10737SOL    HW234109   8.487   3.543   7.709
10738SOL     OW34110   3.341   9.559   1.952
10738SOL    HW134111   3.344   9.562   1.856
10738SOL    HW234112   3.432   9.571   1.980
10739SOL     OW34113  13.404   3.245  10.343
10739SOL    HW134114  13.412   3.290  10.259
10739SOL    HW234115  13.480   3.274  10.393
10740SOL     OW34116   0.405  12.377  12.291
10740SOL    HW134117   0.426  12.471  12.291
10740SOL    HW234118   0.312  12.374  12.269
10741SOL     OW34119   6.220   3.458   5.922
10741SOL    HW134120   6.172   3.391   5.874
10741SOL    HW234121   6.284   3.491   5.859
10742SOL     OW34122   5.228   5.626   1.771
10742SOL    HW134123   5.171   5.562   1.727
10742SOL    HW234124   5.306   5.631   1.716
10743SOL     OW34125   8.112  12.835   4.718
10743SOL    HW134126   8.107  12.767   4.785
10743SOL    HW234127   8.076  12.794   4.639
10744SOL     OW34128   5.874   6.210   1.733
10744SOL    HW134129   5.814   6.284   1.740
10744SOL    HW234130   5.959   6.247   1.758
10745SOL     OW34131  11.387   6.041   3.122
10745SOL    HW134132  11.470   6.020   3.079
10745SOL    HW234133  11.370   5.966   3.179
10746SOL     OW34134  13.266  11.082  12.516
10746SOL    HW134135  13.301  11.140  12.449
10746SOL    HW234136  13.212  11.139  12.572
10747SOL     OW34137   6.541  10.631   8.020
10747SOL    HW134138   6.513  10.637   7.928
10747SOL    HW234139   6.621  10.579   8.017
10748SOL     OW34140   5.867  14.518  13.016
10748SOL    HW134141   5.779  14.542  13.046
10748SOL    HW234142   5.872  14.551  12.926
10749SOL     OW34143   4.544  10.748   5.838
10749SOL    HW134144   4.544  10.779   5.747
10749SOL    HW234145   4.528  10.654   5.831
10750SOL     OW34146   3.552  11.603   1.653
10750SOL    HW134147   3.553  11.538   1.583
10750SOL    HW234148   3.638  11.596   1.694
10751SOL     OW34149  12.606  11.528   0.299
10751SOL    HW134150  12.581  11.454   0.243
10751SOL    HW234151  12.581  11.606   0.248
10752SOL     OW34152   6.120  10.341  11.376
10752SOL    HW134153   6.052  10.408  11.372
10752SOL    HW234154   6.200  10.387  11.353
10753SOL     OW34155   0.005   0.611   7.780
10753SOL    HW134156  14.791   0.605   7.763
10753SOL    HW234157   0.013   0.682   7.845
10754SOL     OW34158   7.920   0.981  13.377
10754SOL    HW134159   7.847   1.017  13.326
10754SOL    HW234160   7.993   0.978  13.316
10755SOL     OW34161  10.644   8.603   6.350
10755SOL    HW134162  10.712   8.667   6.329
10755SOL    HW234163  10.589   8.600   6.272
10756SOL     OW34164   5.183   4.101   0.424
10756SOL    HW134165   5.185   4.195   0.444
10756SOL    HW234166   5.182   4.059   0.510
10757SOL     OW34167  10.943   5.987   0.586
10757SOL    HW134168  10.879   5.966   0.518
10757SOL    HW234169  10.958   5.904   0.631
10758SOL     OW34170  12.992  11.903   1.239
10758SOL    HW134171  13.083  11.935   1.230
10758SOL    HW234172  12.989  11.824   1.186
10759SOL     OW34173  13.884   0.232   6.286
10759SOL    HW134174  13.919   0.321   6.294
10759SOL    HW234175  13.790   0.242   6.298
10760SOL     OW34176   4.853   3.011   5.448
10760SOL    HW134177   4.770   2.987   5.405
10760SOL    HW234178   4.895   3.071   5.386
10761SOL     OW34179  14.619   4.600   0.304
10761SOL    HW134180  14.531   4.565   0.290
10761SOL    HW234181  14.632   4.660   0.230
10762SOL     OW34182  11.968   7.833  10.761
10762SOL    HW134183  11.893   7.862  10.813
10762SOL    HW234184  11.950   7.740  10.743
10763SOL     OW34185  14.016   3.759  11.817
10763SOL    HW134186  14.072   3.682  11.824
10763SOL    HW234187  13.936   3.727  11.774
10764SOL     OW34188   3.016   2.384   0.703
10764SOL    HW134189   2.989   2.356   0.790
10764SOL    HW234190   2.946   2.354   0.645
10765SOL     OW34191   8.212   1.576  11.559
10765SOL    HW134192   8.134   1.543  11.604
10765SOL    HW234193   8.204   1.543  11.469
10766SOL     OW34194   8.491   8.825   6.682
10766SOL    HW134195   8.480   8.875   6.763
10766SOL    HW234196   8.405   8.827   6.641
10767SOL     OW34197   0.297   9.001  12.492
10767SOL    HW134198   0.313   8.972  12.582
10767SOL    HW234199   0.295   9.097  12.498
10768SOL     OW34200   2.329   1.562   5.967
10768SOL    HW134201   2.361   1.526   5.884
10768SOL    HW234202   2.362   1.501   6.034
10769SOL     OW34203   8.348  13.733   4.892
10769SOL    HW134204   8.377  13.676   4.963
10769SOL    HW234205   8.264  13.769   4.922
10770SOL     OW34206   0.025  11.838   3.995
10770SOL    HW134207   0.051  11.748   3.975
10770SOL    HW234208  14.810  11.834   4.001
10771SOL     OW34209   8.368   3.742   6.703
10771SOL    HW134210   8.445   3.698   6.737
10771SOL    HW234211   8.304   3.739   6.774
10772SOL     OW34212  10.186   2.398   2.586
10772SOL    HW134213  10.123   2.470   2.582
10772SOL    HW234214  10.136   2.321   2.559
10773SOL     OW34215   6.577  12.627  12.221
10773SOL    HW134216   6.603  12.714  12.251
10773SOL    HW234217   6.656  12.574  12.231
10774SOL     OW34218  11.684  13.511   3.650
10774SOL    HW134219  11.772  13.493   3.618
10774SOL    HW234220  11.692  13.596   3.694
10775SOL     OW34221   4.067  11.554  11.147
10775SOL    HW134222   4.059  11.459  11.139
10775SOL    HW234223   4.002  11.588  11.086
10776SOL     OW34224  13.415   9.310   6.616
10776SOL    HW134225  13.348   9.275   6.675
10776SOL    HW234226  13.379   9.296   6.529
10777SOL     OW34227   5.577   4.879   5.251
10777SOL    HW134228   5.605   4.917   5.167
10777SOL    HW234229   5.605   4.943   5.317
10778SOL     OW34230  10.405  13.650   2.667
10778SOL    HW134231  10.387  13.699   2.587
10778SOL    HW234232  10.337  13.584   2.672
10779SOL     OW34233  14.879   6.668   7.527
10779SOL    HW134234  14.807   6.607   7.538
10779SOL    HW234235   0.074   6.624   7.566
10780SOL     OW34236  11.511   8.912   3.355
10780SOL    HW134237  11.512   9.007   3.347
10780SOL    HW234238  11.465   8.895   3.437
10781SOL     OW34239  14.677   3.452  10.936
10781SOL    HW134240  14.742   3.516  10.965
10781SOL    HW234241  14.612   3.503  10.888
10782SOL     OW34242   8.443   4.354   4.730
10782SOL    HW134243   8.395   4.274   4.708
10782SOL    HW234244   8.423   4.414   4.659
10783SOL     OW34245   4.008  11.203   9.238
10783SOL    HW134246   4.058  11.186   9.318
10783SOL    HW234247   3.917  11.186   9.262
10784SOL     OW34248  10.997  12.187   3.877
10784SOL    HW134249  10.923  12.146   3.830
10784SOL    HW234250  10.965  12.274   3.899
10785SOL     OW34251   7.986  13.628   9.059
10785SOL    HW134252   8.018  13.718   9.071
10785SOL    HW234253   8.038  13.576   9.121
10786SOL     OW34254   7.575   8.897  10.117
10786SOL    HW134255   7.610   8.980  10.148
10786SOL    HW234256   7.635   8.831  10.150
10787SOL     OW34257   9.388   7.176   1.144
10787SOL    HW134258   9.466   7.231   1.155
10787SOL    HW234259   9.413   7.091   1.179
10788SOL     OW34260   8.715   9.915  10.801
10788SOL    HW134261   8.622   9.903  10.778
10788SOL    HW234262   8.760   9.921  10.717
10789SOL     OW34263   9.549  12.294   5.050
10789SOL    HW134264   9.454  12.306   5.058
10789SOL    HW234265   9.564  12.286   4.956
10790SOL     OW34266   6.995   8.512  14.223
10790SOL    HW134267   6.903   8.493  14.245
10790SOL    HW234268   7.005   8.604  14.245
10791SOL     OW34269   7.475  10.062  10.503
10791SOL    HW134270   7.416  10.107  10.563
10791SOL    HW234271   7.426   9.985  10.474
10792SOL     OW34272   5.332   8.395   9.363
10792SOL    HW134273   5.366   8.338   9.433
10792SOL    HW234274   5.241   8.366   9.352
10793SOL     OW34275   0.550  13.334   5.824
10793SOL    HW134276   0.553  13.239   5.832
10793SOL    HW234277   0.535  13.350   5.731
10794SOL     OW34278   9.345  12.565   2.113
10794SOL    HW134279   9.413  12.619   2.074
10794SOL    HW234280   9.275  12.564   2.049
10795SOL     OW34281   1.866   1.384  11.348
10795SOL    HW134282   1.771   1.397  11.345
10795SOL    HW234283   1.898   1.426  11.268
10796SOL     OW34284   0.480   3.023   7.232
10796SOL    HW134285   0.442   3.111   7.238
10796SOL    HW234286   0.432   2.972   7.296
10797SOL     OW34287   4.025   1.079   0.956
10797SOL    HW134288   4.032   1.065   0.861
10797SOL    HW234289   4.025   1.174   0.966
10798SOL     OW34290   9.037   9.848  12.960
10798SOL    HW134291   9.070   9.771  13.008
10798SOL    HW234292   8.952   9.866  12.999
10799SOL     OW34293   8.411   3.542   5.826
10799SOL    HW134294   8.322   3.544   5.861
10799SOL    HW234295   8.453   3.468   5.871
10800SOL     OW34296   0.742   4.198   3.816
10800SOL    HW134297   0.710   4.216   3.728
10800SOL    HW234298   0.705   4.267   3.870
10801SOL     OW34299   1.609  10.286   0.389
10801SOL    HW134300   1.519  10.313   0.370
10801SOL    HW234301   1.638  10.346   0.458
10802SOL     OW34302   0.260   1.581   5.925
10802SOL    HW134303   0.199   1.516   5.890
10802SOL    HW234304   0.205   1.651   5.957
10803SOL     OW34305   3.718   1.066   5.796
10803SOL    HW134306   3.779   1.019   5.739
10803SOL    HW234307   3.653   1.001   5.821
10804SOL     OW34308  10.770   9.708  11.700
10804SOL    HW134309  10.808   9.730  11.786
10804SOL    HW234310  10.699   9.771  11.689
10805SOL     OW34311  13.197   1.189   8.760
10805SOL    HW134312  13.203   1.278   8.725
10805SOL    HW234313  13.150   1.140   8.693
10806SOL     OW34314   8.875   1.178  11.811
10806SOL    HW134315   8.806   1.241  11.791
10806SOL    HW234316   8.835   1.093  11.795
10807SOL     OW34317  13.267   2.614   8.014
10807SOL    HW134318  13.361   2.624   8.027
10807SOL    HW234319  13.232   2.593   8.101
10808SOL     OW34320  13.669  12.815  10.981
10808SOL    HW134321  13.641  12.838  10.892
10808SOL    HW234322  13.742  12.754  10.968
10809SOL     OW34323   0.427  14.507   7.161
10809SOL    HW134324   0.471  14.455   7.093
10809SOL    HW234325   0.371  14.444   7.207
10810SOL     OW34326  10.061   3.790   4.358
10810SOL    HW134327  10.135   3.811   4.301
10810SOL    HW234328   9.986   3.834   4.319
10811SOL     OW34329   9.966   3.337  11.944
10811SOL    HW134330   9.947   3.361  11.854
10811SOL    HW234331  10.061   3.342  11.951
10812SOL     OW34332   0.104   6.365   4.120
10812SOL    HW134333   0.131   6.456   4.132
10812SOL    HW234334   0.010   6.370   4.103
10813SOL     OW34335   4.493  13.924   1.523
10813SOL    HW134336   4.573  13.939   1.471
10813SOL    HW234337   4.427  13.980   1.482
10814SOL     OW34338   1.725   7.806   7.141
10814SOL    HW134339   1.755   7.879   7.085
10814SOL    HW234340   1.688   7.849   7.218
10815SOL     OW34341  10.787   9.844  14.159
10815SOL    HW134342  10.788   9.822  14.066
10815SOL    HW234343  10.826   9.931  14.164
10816SOL     OW34344   8.965   7.070   2.359
10816SOL    HW134345   8.990   7.002   2.296
10816SOL    HW234346   8.888   7.112   2.320
10817SOL     OW34347   3.230   8.461   8.286
10817SOL    HW134348   3.289   8.531   8.313
10817SOL    HW234349   3.151   8.475   8.338
10818SOL     OW34350   5.038  14.769   2.146
10818SOL    HW134351   4.985  14.844   2.119
10818SOL    HW234352   5.038  14.774   2.242
10819SOL     OW34353  14.582   7.621   1.290
10819SOL    HW134354  14.666   7.614   1.245
10819SOL    HW234355  14.577   7.542   1.344
10820SOL     OW34356   6.775   6.486   9.647
10820SOL    HW134357   6.819   6.408   9.682
10820SOL    HW234358   6.692   6.454   9.613
10821SOL     OW34359   0.045   1.742   5.982
10821SOL    HW134360   0.106   1.803   6.023
10821SOL    HW234361  14.866   1.797   5.931
10822SOL     OW34362   2.452  12.207  14.631
10822SOL    HW134363   2.517  12.138  14.638
10822SOL    HW234364   2.420  12.220  14.720
10823SOL     OW34365  10.128   0.063   5.296
10823SOL    HW134366  10.156   0.098   5.211
10823SOL    HW234367  10.033   0.056   5.288
10824SOL     OW34368  10.824   6.235   9.611
10824SOL    HW134369  10.882   6.299   9.570
10824SOL    HW234370  10.824   6.259   9.704
10825SOL     OW34371   4.153   6.548  14.366
10825SOL    HW134372   4.097   6.625  14.379
10825SOL    HW234373   4.233   6.568  14.415
10826SOL     OW34374   2.166   7.493   9.118
10826SOL    HW134375   2.100   7.517   9.183
10826SOL    HW234376   2.239   7.553   9.134
10827SOL     OW34377   6.847  10.719  13.376
10827SOL    HW134378   6.794  10.670  13.439
10827SOL    HW234379   6.813  10.693  13.291
10828SOL     OW34380   5.944   0.021   9.966
10828SOL    HW134381   5.859   0.035  10.006
10828SOL    HW234382   5.990  14.843  10.026
10829SOL     OW34383   8.180   4.089   8.408
10829SOL    HW134384   8.128   4.155   8.454
10829SOL    HW234385   8.115   4.037   8.361
10830SOL     OW34386   7.205   5.546   7.233
10830SOL    HW134387   7.283   5.600   7.244
10830SOL    HW234388   7.230   5.477   7.172
10831SOL     OW34389  13.427   6.720  13.606
10831SOL    HW134390  13.473   6.672  13.676
10831SOL    HW234391  13.427   6.811  13.635
10832SOL     OW34392  14.507  10.833  14.052
10832SOL    HW134393  14.598  10.821  14.080
10832SOL    HW234394  14.465  10.877  14.126
10833SOL     OW34395   7.498   8.419  12.388
10833SOL    HW134396   7.480   8.473  12.311
10833SOL    HW234397   7.530   8.336  12.353
10834SOL     OW34398   2.175   3.510  13.136
10834SOL    HW134399   2.218   3.442  13.188
10834SOL    HW234400   2.090   3.522  13.177
10835SOL     OW34401   6.447  13.299   8.805
10835SOL    HW134402   6.530  13.274   8.764
10835SOL    HW234403   6.389  13.320   8.733
10836SOL     OW34404   2.822   0.149  12.259
10836SOL    HW134405   2.783   0.230  12.226
10836SOL    HW234406   2.748   0.088  12.263
10837SOL     OW34407   0.812   5.788   2.625
10837SOL    HW134408   0.806   5.702   2.667
10837SOL    HW234409   0.785   5.850   2.693
10838SOL     OW34410  11.596   0.364   0.208
10838SOL    HW134411  11.640   0.446   0.187
10838SOL    HW234412  11.503   0.382   0.193
10839SOL     OW34413   8.234  12.165   5.727
10839SOL    HW134414   8.228  12.179   5.821
10839SOL    HW234415   8.187  12.084   5.711
10840SOL     OW34416   4.733   3.947  10.233
10840SOL    HW134417   4.651   3.978  10.194
10840SOL    HW234418   4.706   3.876  10.291
10841SOL     OW34419  10.895   5.976   5.380
10841SOL    HW134420  10.832   5.928   5.433
10841SOL    HW234421  10.856   6.063   5.370
10842SOL     OW34422  14.292   7.584  12.764
10842SOL    HW134423  14.332   7.568  12.678
10842SOL    HW234424  14.353   7.548  12.827
10843SOL     OW34425   9.855   4.567  13.951
10843SOL    HW134426   9.944   4.589  13.921
10843SOL    HW234427   9.845   4.474  13.931
10844SOL     OW34428   2.320   0.690   6.802
10844SOL    HW134429   2.277   0.634   6.867
10844SOL    HW234430   2.269   0.679   6.722
10845SOL     OW34431  13.034  13.707   1.185
10845SOL    HW134432  13.074  13.629   1.148
10845SOL    HW234433  12.982  13.743   1.113
10846SOL     OW34434   9.276   4.634   1.636
10846SOL    HW134435   9.321   4.579   1.572
10846SOL    HW234436   9.346   4.677   1.684
10847SOL     OW34437  14.562  11.031   0.576
10847SOL    HW134438  14.507  11.003   0.649
10847SOL    HW234439  14.521  11.112   0.545
10848SOL     OW34440   3.410   1.189   5.854
10848SOL    HW134441   3.459   1.107   5.847
10848SOL    HW234442   3.386   1.194   5.946
10849SOL     OW34443   4.841   3.404   1.788
10849SOL    HW134444   4.853   3.359   1.705
10849SOL    HW234445   4.765   3.460   1.774
10850SOL     OW34446   8.263  13.053   4.611
10850SOL    HW134447   8.268  13.148   4.609
10850SOL    HW234448   8.206  13.033   4.685
10851SOL     OW34449   7.831   0.711   2.736
10851SOL    HW134450   7.909   0.656   2.740
10851SOL    HW234451   7.852   0.778   2.671
10852SOL     OW34452  14.360   4.923   8.483
10852SOL    HW134453  14.392   4.978   8.412
10852SOL    HW234454  14.433   4.865   8.503
10853SOL     OW34455   6.473   4.721   3.624
10853SOL    HW134456   6.379   4.714   3.608
10853SOL    HW234457   6.507   4.767   3.547
10854SOL     OW34458   5.911   5.044  10.273
10854SOL    HW134459   5.817   5.066  10.276
10854SOL    HW234460   5.937   5.038  10.365
10855SOL     OW34461   9.568   4.715  12.463
10855SOL    HW134462   9.520   4.739  12.383
10855SOL    HW234463   9.578   4.798  12.510
10856SOL     OW34464   2.716   3.174   0.935
10856SOL    HW134465   2.704   3.096   0.989
10856SOL    HW234466   2.663   3.157   0.857
10857SOL     OW34467   8.438   8.307   0.899
10857SOL    HW134468   8.429   8.293   0.805
10857SOL    HW234469   8.372   8.250   0.938
10858SOL     OW34470   5.296   3.020   4.843
10858SOL    HW134471   5.230   2.954   4.864
10858SOL    HW234472   5.367   2.972   4.801
10859SOL     OW34473   0.227   4.358   4.661
10859SOL    HW134474   0.298   4.342   4.723
10859SOL    HW234475   0.154   4.305   4.694
10860SOL     OW34476   8.174  13.583  13.000
10860SOL    HW134477   8.224  13.568  13.080
10860SOL    HW234478   8.195  13.673  12.975
10861SOL     OW34479   9.837  14.305   0.547
10861SOL    HW134480   9.924  14.315   0.587
10861SOL    HW234481   9.855  14.298   0.454
10862SOL     OW34482   9.471   1.477  10.629
10862SOL    HW134483   9.479   1.524  10.546
10862SOL    HW234484   9.488   1.386  10.606
10863SOL     OW34485  13.156   0.875   9.295
10863SOL    HW134486  13.146   0.970   9.293
10863SOL    HW234487  13.239   0.858   9.250
10864SOL     OW34488   0.716  11.143  13.661
10864SOL    HW134489   0.803  11.155  13.698
10864SOL    HW234490   0.702  11.048  13.664
10865SOL     OW34491   5.114   4.181   4.393
10865SOL    HW134492   5.156   4.240   4.457
10865SOL    HW234493   5.023   4.211   4.389
10866SOL     OW34494   5.446   0.555   0.384
10866SOL    HW134495   5.481   0.480   0.335
10866SOL    HW234496   5.352   0.539   0.387
10867SOL     OW34497   7.424   2.920  14.387
10867SOL    HW134498   7.433   2.831  14.352
10867SOL    HW234499   7.438   2.911  14.481
10868SOL     OW34500   8.039   1.803   6.590
10868SOL    HW134501   8.069   1.780   6.678
10868SOL    HW234502   7.947   1.827   6.600
10869SOL     OW34503  13.071   2.294   5.227
10869SOL    HW134504  13.041   2.211   5.191
10869SOL    HW234505  13.147   2.318   5.174
10870SOL     OW34506  14.633   7.951   9.630
10870SOL    HW134507  14.690   7.883   9.664
10870SOL    HW234508  14.691   8.009   9.581
10871SOL     OW34509   8.774   0.078   9.881
10871SOL    HW134510   8.805   0.069   9.971
10871SOL    HW234511   8.687   0.115   9.889
10872SOL     OW34512   6.592   9.688  10.083
10872SOL    HW134513   6.600   9.593  10.074
10872SOL    HW234514   6.543   9.715  10.006
10873SOL     OW34515   0.846   4.042   1.703
10873SOL    HW134516   0.868   4.065   1.793
10873SOL    HW234517   0.866   4.121   1.653
10874SOL     OW34518   3.563   6.863  12.047
10874SOL    HW134519   3.621   6.792  12.018
10874SOL    HW234520   3.523   6.897  11.967
10875SOL     OW34521   2.604   6.210   9.209
10875SOL    HW134522   2.655   6.130   9.206
10875SOL    HW234523   2.628   6.256   9.128
10876SOL     OW34524  14.713  11.947  12.867
10876SOL    HW134525  14.653  11.984  12.803
10876SOL    HW234526  14.662  11.879  12.912
10877SOL     OW34527  12.127   7.588   8.282
10877SOL    HW134528  12.044   7.602   8.328
10877SOL    HW234529  12.100   7.578   8.190
10878SOL     OW34530   3.302  11.322   3.351
10878SOL    HW134531   3.311  11.415   3.370
10878SOL    HW234532   3.349  11.277   3.421
10879SOL     OW34533   8.678   5.979   5.553
10879SOL    HW134534   8.678   5.888   5.524
10879SOL    HW234535   8.635   6.027   5.482
10880SOL     OW34536   9.667   2.576   2.852
10880SOL    HW134537   9.592   2.520   2.869
10880SOL    HW234538   9.675   2.576   2.756
10881SOL     OW34539   1.029   9.127   8.811
10881SOL    HW134540   1.062   9.053   8.761
10881SOL    HW234541   1.008   9.194   8.746
10882SOL     OW34542  11.916   7.392   5.560
10882SOL    HW134543  11.832   7.438   5.570
10882SOL    HW234544  11.939   7.404   5.468
10883SOL     OW34545   4.510  11.190  13.525
10883SOL    HW134546   4.546  11.166  13.440
10883SOL    HW234547   4.540  11.279  13.540
10884SOL     OW34548  14.332   4.572   8.095
10884SOL    HW134549  14.327   4.483   8.061
10884SOL    HW234550  14.412   4.573   8.147
10885SOL     OW34551   2.312   5.516   3.766
10885SOL    HW134552   2.346   5.589   3.715
10885SOL    HW234553   2.231   5.549   3.805
10886SOL     OW34554   0.327   7.867  10.971
10886SOL    HW134555   0.411   7.912  10.969
10886SOL    HW234556   0.267   7.926  10.926
10887SOL     OW34557   2.702   6.904   4.139
10887SOL    HW134558   2.671   6.862   4.060
10887SOL    HW234559   2.777   6.851   4.166
10888SOL     OW34560   8.345   7.410   5.794
10888SOL    HW134561   8.367   7.374   5.708
10888SOL    HW234562   8.251   7.426   5.790
10889SOL     OW34563   4.439  14.877   0.662
10889SOL    HW134564   4.527  14.866   0.697
10889SOL    HW234565   4.393   0.048   0.728
10890SOL     OW34566   0.622  10.832   6.662
10890SOL    HW134567   0.617  10.847   6.567
10890SOL    HW234568   0.701  10.778   6.673
10891SOL     OW34569  14.071  14.604   2.040
10891SOL    HW134570  14.161  14.637   2.042
10891SOL    HW234571  14.023  14.663   2.098
10892SOL     OW34572  12.991  10.626   4.740
10892SOL    HW134573  12.917  10.566   4.732
10892SOL    HW234574  12.956  10.710   4.710
10893SOL     OW34575   4.925   3.670   2.910
10893SOL    HW134576   4.893   3.590   2.952
10893SOL    HW234577   4.858   3.692   2.845
10894SOL     OW34578  13.063   4.502   9.125
10894SOL    HW134579  13.138   4.447   9.101
10894SOL    HW234580  13.101   4.587   9.144
10895SOL     OW34581   3.468  12.633   1.364
10895SOL    HW134582   3.467  12.540   1.386
10895SOL    HW234583   3.559  12.652   1.340
10896SOL     OW34584  14.425   3.174  13.024
10896SOL    HW134585  14.416   3.185  12.930
10896SOL    HW234586  14.487   3.242  13.050
10897SOL     OW34587   6.855   8.661   6.070
10897SOL    HW134588   6.846   8.684   5.977
10897SOL    HW234589   6.899   8.576   6.069
10898SOL     OW34590   6.598   7.544   2.374
10898SOL    HW134591   6.578   7.509   2.461
10898SOL    HW234592   6.626   7.468   2.323
10899SOL     OW34593   9.501   4.645   0.157
10899SOL    HW134594   9.438   4.660   0.228
10899SOL    HW234595   9.582   4.622   0.202
10900SOL     OW34596   9.342  13.884  13.073
10900SOL    HW134597   9.284  13.808  13.071
10900SOL    HW234598   9.347  13.907  13.166
10901SOL     OW34599  11.376   5.199   3.740
10901SOL    HW134600  11.438   5.137   3.701
10901SOL    HW234601  11.290   5.166   3.717
10902SOL     OW34602   6.460   1.063   8.309
10902SOL    HW134603   6.513   1.019   8.242
10902SOL    HW234604   6.481   1.016   8.390
10903SOL     OW34605   9.154  11.679   2.724
10903SOL    HW134606   9.112  11.764   2.737
10903SOL    HW234607   9.162  11.642   2.812
10904SOL     OW34608   6.568  11.557   7.455
10904SOL    HW134609   6.497  11.508   7.498
10904SOL    HW234610   6.580  11.514   7.371
10905SOL     OW34611  11.634  14.530   7.201
10905SOL    HW134612  11.678  14.594   7.143
10905SOL    HW234613  11.600  14.583   7.273
10906SOL     OW34614   9.032  12.128   4.431
10906SOL    HW134615   8.941  12.147   4.456
10906SOL    HW234616   9.058  12.202   4.376
10907SOL     OW34617  12.074  14.166   4.490
10907SOL    HW134618  12.023  14.178   4.570
10907SOL    HW234619  12.015  14.194   4.420
10908SOL     OW34620   2.318  11.513  12.712
10908SOL    HW134621   2.271  11.435  12.742
10908SOL    HW234622   2.387  11.527  12.777
10909SOL     OW34623   3.141   9.505   2.148
10909SOL    HW134624   3.113   9.585   2.193
10909SOL    HW234625   3.217   9.531   2.097
10910SOL     OW34626  13.592   9.893   6.311
10910SOL    HW134627  13.581   9.984   6.284
10910SOL    HW234628  13.658   9.897   6.380
10911SOL     OW34629  11.051   6.458  14.517
10911SOL    HW134630  11.090   6.376  14.546
10911SOL    HW234631  11.079   6.522  14.582
10912SOL     OW34632   8.294   0.228  12.607
10912SOL    HW134633   8.225   0.215  12.673
10912SOL    HW234634   8.250   0.212  12.524
10913SOL     OW34635   6.163  13.079   6.191
10913SOL    HW134636   6.114  13.155   6.222
10913SOL    HW234637   6.253  13.111   6.180
10914SOL     OW34638   2.185  14.458   2.427
10914SOL    HW134639   2.124  14.474   2.499
10914SOL    HW234640   2.250  14.528   2.436
10915SOL     OW34641   8.983   8.265   9.055
10915SOL    HW134642   9.023   8.289   8.971
10915SOL    HW234643   9.009   8.174   9.068
10916SOL     OW34644   1.004  14.021   6.061
10916SOL    HW134645   1.026  14.077   6.136
10916SOL    HW234646   0.940  13.959   6.096
10917SOL     OW34647  14.507   9.749   0.777
10917SOL    HW134648  14.561   9.766   0.854
10917SOL    HW234649  14.570   9.727   0.708
10918SOL     OW34650  11.195   5.880  11.824
10918SOL    HW134651  11.214   5.971  11.804
10918SOL    HW234652  11.220   5.870  11.916
10919SOL     OW34653   0.827  10.085  10.163
10919SOL    HW134654   0.751  10.122  10.209
10919SOL    HW234655   0.871  10.032  10.229
10920SOL     OW34656   2.937   0.160   9.017
10920SOL    HW134657   2.847   0.176   8.989
10920SOL    HW234658   2.953   0.225   9.086
10921SOL     OW34659  11.778  14.321   3.489
10921SOL    HW134660  11.729  14.403   3.497
10921SOL    HW234661  11.857  14.336   3.540
10922SOL     OW34662   6.690   6.515   4.688
10922SOL    HW134663   6.663   6.556   4.770
10922SOL    HW234664   6.608   6.500   4.640
10923SOL     OW34665   9.987   5.488   3.468
10923SOL    HW134666   9.906   5.436   3.466
10923SOL    HW234667  10.026   5.474   3.382
10924SOL     OW34668  14.410   3.179  10.856
10924SOL    HW134669  14.386   3.091  10.885
10924SOL    HW234670  14.505   3.176  10.847
10925SOL     OW34671   9.048   5.281  14.015
10925SOL    HW134672   9.021   5.361  13.971
10925SOL    HW234673   9.108   5.311  14.084
10926SOL     OW34674   3.630   8.851   1.645
10926SOL    HW134675   3.635   8.901   1.727
10926SOL    HW234676   3.581   8.773   1.667
10927SOL     OW34677   4.162   8.700  11.661
10927SOL    HW134678   4.174   8.740  11.575
10927SOL    HW234679   4.074   8.725  11.687
10928SOL     OW34680   5.489   0.828  10.880
10928SOL    HW134681   5.476   0.922  10.866
10928SOL    HW234682   5.483   0.790  10.792
10929SOL     OW34683   8.526  12.058   1.307
10929SOL    HW134684   8.574  12.090   1.384
10929SOL    HW234685   8.591  12.055   1.237
10930SOL     OW34686   2.763   7.455  12.048
10930SOL    HW134687   2.766   7.360  12.033
10930SOL    HW234688   2.745   7.492  11.962
10931SOL     OW34689  14.074   2.158   5.640
10931SOL    HW134690  14.052   2.066   5.628
10931SOL    HW234691  13.997   2.206   5.609
10932SOL     OW34692  10.939   9.652   4.435
10932SOL    HW134693  10.920   9.559   4.449
10932SOL    HW234694  11.011   9.653   4.372
10933SOL     OW34695   9.752   8.432   9.430
10933SOL    HW134696   9.803   8.456   9.507
10933SOL    HW234697   9.708   8.513   9.404
10934SOL     OW34698  12.242   7.057   0.916
10934SOL    HW134699  12.217   6.997   0.847
10934SOL    HW234700  12.160   7.099   0.942
10935SOL     OW34701  13.368  13.710   7.403
10935SOL    HW134702  13.357  13.769   7.477
10935SOL    HW234703  13.414  13.763   7.337
10936SOL     OW34704  11.492   0.480   0.950
10936SOL    HW134705  11.466   0.391   0.976
10936SOL    HW234706  11.449   0.493   0.866
10937SOL     OW34707   5.020   9.872   8.278
10937SOL    HW134708   5.030   9.959   8.239
10937SOL    HW234709   5.039   9.811   8.207
10938SOL     OW34710  13.384   0.927   8.044
10938SOL    HW134711  13.362   0.986   8.117
10938SOL    HW234712  13.396   0.842   8.085
10939SOL     OW34713   4.752   2.443   8.835
10939SOL    HW134714   4.821   2.411   8.894
10939SOL    HW234715   4.684   2.477   8.893
10940SOL     OW34716  14.651   3.277  11.166
10940SOL    HW134717  14.658   3.280  11.070
10940SOL    HW234718  14.558   3.287  11.184
10941SOL     OW34719   2.768  13.760   5.389
10941SOL    HW134720   2.743  13.683   5.441
10941SOL    HW234721   2.776  13.831   5.452
10942SOL     OW34722   9.948   1.203   5.507
10942SOL    HW134723  10.040   1.223   5.488
10942SOL    HW234724   9.943   1.201   5.602
10943SOL     OW34725  10.768  10.791   9.446
10943SOL    HW134726  10.786  10.746   9.364
10943SOL    HW234727  10.846  10.777   9.499
10944SOL     OW34728   6.213   6.825   8.945
10944SOL    HW134729   6.179   6.813   9.033
10944SOL    HW234730   6.270   6.902   8.951
10945SOL     OW34731   5.222   5.221   7.546
10945SOL    HW134732   5.178   5.285   7.491
10945SOL    HW234733   5.197   5.244   7.636
10946SOL     OW34734  11.582   0.645   8.250
10946SOL    HW134735  11.523   0.707   8.293
10946SOL    HW234736  11.535   0.616   8.173
10947SOL     OW34737   1.249   4.317   6.561
10947SOL    HW134738   1.217   4.383   6.498
10947SOL    HW234739   1.190   4.243   6.550
10948SOL     OW34740   6.391   5.998   0.720
10948SOL    HW134741   6.449   6.048   0.778
10948SOL    HW234742   6.329   6.062   0.687
10949SOL     OW34743  11.178   8.041   8.093
10949SOL    HW134744  11.180   7.948   8.071
10949SOL    HW234745  11.232   8.048   8.172
10950SOL     OW34746  13.041  10.142   3.408
10950SOL    HW134747  12.959  10.107   3.373
10950SOL    HW234748  13.109  10.084   3.373
10951SOL     OW34749   7.358  12.591   3.890
10951SOL    HW134750   7.374  12.675   3.847
10951SOL    HW234751   7.281  12.606   3.944
10952SOL     OW34752  12.036   1.909   6.384
10952SOL    HW134753  12.082   1.940   6.306
10952SOL    HW234754  11.948   1.889   6.353
10953SOL     OW34755   1.782  10.017  10.615
10953SOL    HW134756   1.721  10.055  10.678
10953SOL    HW234757   1.840  10.089  10.591
10954SOL     OW34758   2.449   9.682   7.040
10954SOL    HW134759   2.442   9.587   7.029
10954SOL    HW234760   2.542   9.701   7.029
10955SOL     OW34761   5.276   0.440  12.738
10955SOL    HW134762   5.371   0.455  12.742
10955SOL    HW234763   5.238   0.524  12.766
10956SOL     OW34764  13.140  12.200   9.414
10956SOL    HW134765  13.215  12.228   9.466
10956SOL    HW234766  13.144  12.254   9.335
10957SOL     OW34767  13.357  14.513   9.683
10957SOL    HW134768  13.424  14.577   9.660
10957SOL    HW234769  13.385  14.432   9.640
10958SOL     OW34770  10.452   9.967  11.070
10958SOL    HW134771  10.448   9.876  11.099
10958SOL    HW234772  10.398  10.014  11.134
10959SOL     OW34773   1.409   9.255  11.528
10959SOL    HW134774   1.434   9.166  11.503
10959SOL    HW234775   1.481   9.310  11.498
10960SOL     OW34776   9.462   3.087   9.598
10960SOL    HW134777   9.519   3.035   9.654
10960SOL    HW234778   9.502   3.083   9.511
10961SOL     OW34779   2.351   9.406  12.905
10961SOL    HW134780   2.431   9.420  12.955
10961SOL    HW234781   2.316   9.495  12.892
10962SOL     OW34782   1.586   1.360   1.161
10962SOL    HW134783   1.633   1.283   1.128
10962SOL    HW234784   1.633   1.383   1.241
10963SOL     OW34785   1.955   8.177   7.824
10963SOL    HW134786   1.939   8.245   7.890
10963SOL    HW234787   1.868   8.147   7.799
10964SOL     OW34788  14.265   2.766   7.089
10964SOL    HW134789  14.236   2.846   7.045
10964SOL    HW234790  14.215   2.765   7.171
10965SOL     OW34791   7.340   8.730  13.558
10965SOL    HW134792   7.290   8.689  13.628
10965SOL    HW234793   7.273   8.764  13.498
10966SOL     OW34794  11.172   1.193   8.724
10966SOL    HW134795  11.132   1.121   8.676
10966SOL    HW234796  11.138   1.185   8.813
10967SOL     OW34797   3.595   0.646  14.735
10967SOL    HW134798   3.622   0.686  14.653
10967SOL    HW234799   3.635   0.559  14.734
10968SOL     OW34800   9.679   8.020  14.094
10968SOL    HW134801   9.667   8.095  14.152
10968SOL    HW234802   9.768   8.031  14.059
10969SOL     OW34803   8.906   9.435   7.832
10969SOL    HW134804   8.823   9.445   7.880
10969SOL    HW234805   8.914   9.341   7.817
10970SOL     OW34806  12.084   6.481   1.045
10970SOL    HW134807  12.114   6.459   0.957
10970SOL    HW234808  12.069   6.575   1.043
10971SOL     OW34809  11.720   6.962   4.659
10971SOL    HW134810  11.696   6.956   4.567
10971SOL    HW234811  11.638   6.946   4.706
10972SOL     OW34812   6.319  14.699   8.176
10972SOL    HW134813   6.355  14.786   8.192
10972SOL    HW234814   6.294  14.667   8.263
10973SOL     OW34815   0.682  14.706  11.671
10973SOL    HW134816   0.735  14.783  11.695
10973SOL    HW234817   0.672  14.713  11.576
10974SOL     OW34818   3.061   3.551   8.871
10974SOL    HW134819   2.971   3.582   8.864
10974SOL    HW234820   3.075   3.499   8.791
10975SOL     OW34821   0.852   0.039   9.752
10975SOL    HW134822   0.851   0.132   9.728
10975SOL    HW234823   0.944   0.018   9.763
10976SOL     OW34824  13.376   2.688   0.758
10976SOL    HW134825  13.437   2.740   0.706
10976SOL    HW234826  13.339   2.750   0.821
10977SOL     OW34827  10.497  11.835   9.759
10977SOL    HW134828  10.435  11.905   9.740
10977SOL    HW234829  10.568  11.877   9.807
10978SOL     OW34830   6.744   2.327   9.383
10978SOL    HW134831   6.657   2.356   9.409
10978SOL    HW234832   6.786   2.302   9.465
10979SOL     OW34833   1.550  11.221   3.884
10979SOL    HW134834   1.621  11.277   3.913
10979SOL    HW234835   1.539  11.242   3.791
10980SOL     OW34836  10.267   4.021  12.582
10980SOL    HW134837  10.312   4.026  12.497
10980SOL    HW234838  10.338   4.015  12.646
10981SOL     OW34839   8.548  13.930   1.944
10981SOL    HW134840   8.491  13.917   2.020
10981SOL    HW234841   8.552  14.025   1.932
10982SOL     OW34842   3.382   4.570   8.239
10982SOL    HW134843   3.452   4.516   8.276
10982SOL    HW234844   3.354   4.625   8.312
10983SOL     OW34845   6.116  14.162   3.161
10983SOL    HW134846   6.063  14.227   3.209
10983SOL    HW234847   6.179  14.131   3.226
10984SOL     OW34848  10.551  12.267  13.576
10984SOL    HW134849  10.518  12.242  13.490
10984SOL    HW234850  10.483  12.325  13.612
10985SOL     OW34851   7.695   0.918   5.777
10985SOL    HW134852   7.672   0.868   5.855
10985SOL    HW234853   7.725   1.003   5.811
10986SOL     OW34854  10.257   0.133  10.318
10986SOL    HW134855  10.330   0.193  10.302
10986SOL    HW234856  10.244   0.137  10.413
10987SOL     OW34857   9.695   9.242   9.851
10987SOL    HW134858   9.767   9.252   9.913
10987SOL    HW234859   9.722   9.170   9.794
10988SOL     OW34860  13.594   8.725  10.180
10988SOL    HW134861  13.516   8.765  10.142
10988SOL    HW234862  13.561   8.677  10.256
10989SOL     OW34863   1.952   7.262   7.778
10989SOL    HW134864   1.860   7.259   7.750
10989SOL    HW234865   1.991   7.331   7.725
10990SOL     OW34866   2.748   6.706  10.933
10990SOL    HW134867   2.798   6.740  11.007
10990SOL    HW234868   2.791   6.743  10.855
10991SOL     OW34869   5.732  12.529   8.740
10991SOL    HW134870   5.720  12.487   8.825
10991SOL    HW234871   5.645  12.560   8.716
10992SOL     OW34872   5.193   4.257  11.058
10992SOL    HW134873   5.269   4.216  11.016
10992SOL    HW234874   5.119   4.230  11.004
10993SOL     OW34875  12.972   5.452   5.553
10993SOL    HW134876  13.036   5.515   5.518
10993SOL    HW234877  12.928   5.417   5.475
10994SOL     OW34878   1.558   0.281   3.691
10994SOL    HW134879   1.634   0.284   3.633
10994SOL    HW234880   1.591   0.244   3.772
10995SOL     OW34881   3.958   4.147   2.376
10995SOL    HW134882   3.927   4.221   2.322
10995SOL    HW234883   3.921   4.164   2.463
10996SOL     OW34884   2.050   7.454   2.678
10996SOL    HW134885   1.993   7.530   2.688
10996SOL    HW234886   2.020   7.392   2.745
10997SOL     OW34887   2.930   2.826   9.975
10997SOL    HW134888   2.905   2.832   9.883
10997SOL    HW234889   2.922   2.916  10.007
10998SOL     OW34890  12.808  12.223   0.030
10998SOL    HW134891  12.902  12.208   0.020
10998SOL    HW234892  12.772  12.210  14.822
10999SOL     OW34893   4.030  13.552   4.650
10999SOL    HW134894   3.968  13.487   4.682
10999SOL    HW234895   4.114  13.524   4.685
11000SOL     OW34896  12.033   0.554  14.263
11000SOL    HW134897  12.111   0.594  14.225
11000SOL    HW234898  12.031   0.588  14.353
11001SOL     OW34899   3.692   2.442  11.354
11001SOL    HW134900   3.679   2.532  11.327
11001SOL    HW234901   3.690   2.445  11.450
11002SOL     OW34902   1.774   7.280   5.787
11002SOL    HW134903   1.731   7.344   5.731
11002SOL    HW234904   1.833   7.232   5.729
11003SOL     OW34905   2.799   1.953   3.186
11003SOL    HW134906   2.826   1.877   3.237
11003SOL    HW234907   2.779   1.918   3.099
11004SOL     OW34908   9.817   7.635   3.549
11004SOL    HW134909   9.796   7.599   3.462
11004SOL    HW234910   9.885   7.578   3.583
11005SOL     OW34911  12.992  14.195  10.337
11005SOL    HW134912  13.060  14.128  10.333
11005SOL    HW234913  12.976  14.208  10.430
11006SOL     OW34914   4.928   4.227  13.666
11006SOL    HW134915   4.866   4.299  13.682
11006SOL    HW234916   4.876   4.148  13.680
11007SOL     OW34917  11.890  11.415   4.594
11007SOL    HW134918  11.952  11.351   4.558
11007SOL    HW234919  11.842  11.366   4.661
11008SOL     OW34920  11.626   0.204   1.831
11008SOL    HW134921  11.572   0.135   1.871
11008SOL    HW234922  11.715   0.170   1.834
11009SOL     OW34923  11.614   0.705  14.163
11009SOL    HW134924  11.607   0.791  14.204
11009SOL    HW234925  11.694   0.710  14.110
11010SOL     OW34926  12.680   6.871  13.370
11010SOL    HW134927  12.725   6.862  13.286
11010SOL    HW234928  12.736   6.827  13.433
11011SOL     OW34929   7.957  14.479  10.610
11011SOL    HW134930   7.996  14.542  10.550
11011SOL    HW234931   7.998  14.395  10.588
11012SOL     OW34932   8.248   5.239   8.099
11012SOL    HW134933   8.229   5.237   8.005
11012SOL    HW234934   8.311   5.168   8.111
11013SOL     OW34935   0.273   9.569   9.979
11013SOL    HW134936   0.255   9.530  10.064
11013SOL    HW234937   0.222   9.517   9.917
11014SOL     OW34938   9.769  13.812  13.427
11014SOL    HW134939   9.735  13.762  13.501
11014SOL    HW234940   9.862  13.789  13.423
11015SOL     OW34941   0.013   2.719   0.511
11015SOL    HW134942  14.868   2.629   0.491
11015SOL    HW234943   0.004   2.726   0.606
11016SOL     OW34944   3.617   1.291   4.036
11016SOL    HW134945   3.667   1.366   4.067
11016SOL    HW234946   3.631   1.223   4.101
11017SOL     OW34947   5.170  13.819   6.119
11017SOL    HW134948   5.115  13.790   6.192
11017SOL    HW234949   5.231  13.746   6.105
11018SOL     OW34950   4.225  14.265   8.546
11018SOL    HW134951   4.218  14.260   8.641
11018SOL    HW234952   4.248  14.356   8.528
11019SOL     OW34953  10.104  14.578  10.667
11019SOL    HW134954  10.111  14.624  10.583
11019SOL    HW234955  10.019  14.532  10.662
11020SOL     OW34956   5.624  14.345   3.754
11020SOL    HW134957   5.696  14.286   3.778
11020SOL    HW234958   5.556  14.287   3.721
11021SOL     OW34959   4.004   9.400   0.629
11021SOL    HW134960   3.916   9.362   0.630
11021SOL    HW234961   4.060   9.328   0.599
11022SOL     OW34962  10.310   0.092   9.154
11022SOL    HW134963  10.393   0.049   9.130
11022SOL    HW234964  10.284   0.047   9.235
11023SOL     OW34965   9.558  12.023  13.967
11023SOL    HW134966   9.517  11.950  13.922
11023SOL    HW234967   9.495  12.047  14.036
11024SOL     OW34968  11.176   1.718  12.975
11024SOL    HW134969  11.266   1.690  12.989
11024SOL    HW234970  11.126   1.636  12.974
11025SOL     OW34971  10.956  12.990   3.425
11025SOL    HW134972  11.029  13.010   3.367
11025SOL    HW234973  10.887  12.957   3.366
11026SOL     OW34974   2.843   4.482   8.032
11026SOL    HW134975   2.846   4.532   7.951
11026SOL    HW234976   2.767   4.424   8.021
11027SOL     OW34977   6.162   9.125   6.609
11027SOL    HW134978   6.080   9.141   6.655
11027SOL    HW234979   6.193   9.041   6.643
11028SOL     OW34980   1.132   4.024   9.626
11028SOL    HW134981   1.218   4.049   9.593
11028SOL    HW234982   1.109   4.093   9.688
11029SOL     OW34983   7.175   9.928   2.759
11029SOL    HW134984   7.133   9.993   2.703
11029SOL    HW234985   7.214   9.866   2.697
11030SOL     OW34986   5.902  13.020  14.688
11030SOL    HW134987   5.869  12.945  14.638
11030SOL    HW234988   5.883  12.998  14.779
11031SOL     OW34989  12.019  11.849  12.520
11031SOL    HW134990  11.963  11.897  12.581
11031SOL    HW234991  12.107  11.882  12.537
11032SOL     OW34992   4.781   5.649   0.353
11032SOL    HW134993   4.783   5.611   0.265
11032SOL    HW234994   4.695   5.689   0.360
11033SOL     OW34995  14.778   2.383   6.734
11033SOL    HW134996  14.739   2.370   6.647
11033SOL    HW234997  14.732   2.459   6.770
11034SOL     OW34998   4.134   1.919   6.272
11034SOL    HW134999   4.167   1.873   6.195
11034SOL    HW235000   4.204   1.980   6.296
11035SOL     OW35001  14.111   0.954   6.026
11035SOL    HW135002  14.153   1.000   5.953
11035SOL    HW235003  14.064   0.882   5.985
11036SOL     OW35004   7.199  13.868   3.253
11036SOL    HW135005   7.123  13.815   3.279
11036SOL    HW235006   7.250  13.810   3.198
11037SOL     OW35007   3.378   6.965  13.702
11037SOL    HW135008   3.360   6.959  13.796
11037SOL    HW235009   3.301   6.926  13.661
11038SOL     OW35010   6.114  10.992   8.659
11038SOL    HW135011   6.034  11.004   8.711
11038SOL    HW235012   6.170  11.066   8.684
11039SOL     OW35013   5.380  12.838  13.716
11039SOL    HW135014   5.437  12.874  13.784
11039SOL    HW235015   5.298  12.885  13.725
11040SOL     OW35016   3.354   0.224   2.391
11040SOL    HW135017   3.279   0.249   2.337
11040SOL    HW235018   3.419   0.292   2.374
11041SOL     OW35019   6.231  12.569   7.208
11041SOL    HW135020   6.319  12.536   7.224
11041SOL    HW235021   6.179  12.536   7.281
11042SOL     OW35022   0.050  10.945  14.067
11042SOL    HW135023   0.134  10.932  14.111
11042SOL    HW235024   0.036  11.040  14.069
11043SOL     OW35025   1.859   1.504   0.985
11043SOL    HW135026   1.841   1.583   1.037
11043SOL    HW235027   1.784   1.497   0.926
11044SOL     OW35028   0.370  12.878   4.643
11044SOL    HW135029   0.354  12.787   4.667
11044SOL    HW235030   0.284  12.914   4.624
11045SOL     OW35031   0.169   1.368   3.449
11045SOL    HW135032   0.161   1.329   3.362
11045SOL    HW235033   0.189   1.460   3.432
11046SOL     OW35034  10.222   4.086   9.917
11046SOL    HW135035  10.146   4.036   9.947
11046SOL    HW235036  10.297   4.034   9.944
11047SOL     OW35037  11.118  14.505  11.873
11047SOL    HW135038  11.120  14.592  11.832
11047SOL    HW235039  11.080  14.520  11.959
11048SOL     OW35040   8.953  10.422   1.526
11048SOL    HW135041   8.952  10.416   1.431
11048SOL    HW235042   8.880  10.481   1.547
11049SOL     OW35043   3.049  13.183   9.283
11049SOL    HW135044   3.141  13.163   9.268
11049SOL    HW235045   3.032  13.151   9.372
11050SOL     OW35046   2.108   3.333   3.841
11050SOL    HW135047   2.042   3.388   3.883
11050SOL    HW235048   2.190   3.383   3.847
11051SOL     OW35049   8.730  10.194   9.718
11051SOL    HW135050   8.664  10.263   9.708
11051SOL    HW235051   8.751  10.167   9.629
11052SOL     OW35052   0.489   1.405   0.412
11052SOL    HW135053   0.439   1.350   0.472
11052SOL    HW235054   0.451   1.492   0.423
11053SOL     OW35055   4.694   4.913   9.237
11053SOL    HW135056   4.651   4.909   9.323
11053SOL    HW235057   4.659   4.838   9.189
11054SOL     OW35058  12.550   0.080  11.912
11054SOL    HW135059  12.474   0.071  11.968
11054SOL    HW235060  12.539   0.164  11.868
11055SOL     OW35061   7.920   8.610   5.477
11055SOL    HW135062   7.854   8.628   5.410
11055SOL    HW235063   7.983   8.682   5.470
11056SOL     OW35064   3.441   0.168   9.180
11056SOL    HW135065   3.351   0.137   9.166
11056SOL    HW235066   3.496   0.093   9.159
11057SOL     OW35067   2.999  14.145   1.905
11057SOL    HW135068   3.031  14.181   1.822
11057SOL    HW235069   2.905  14.161   1.903
11058SOL     OW35070   5.378   8.656   7.119
11058SOL    HW135071   5.325   8.589   7.163
11058SOL    HW235072   5.315   8.714   7.077
11059SOL     OW35073   9.034   0.069   0.665
11059SOL    HW135074   9.048   0.145   0.608
11059SOL    HW235075   9.120   0.050   0.702
11060SOL     OW35076   4.873  10.669  12.929
11060SOL    HW135077   4.876  10.726  12.853
11060SOL    HW235078   4.938  10.706  12.989
11061SOL     OW35079  14.239  14.400   5.306
11061SOL    HW135080  14.165  14.458   5.288
11061SOL    HW235081  14.268  14.424   5.394
11062SOL     OW35082   0.130   9.976   3.553
11062SOL    HW135083   0.136   9.895   3.603
11062SOL    HW235084   0.220  10.008   3.549
11063SOL     OW35085   0.555   2.317   9.875
11063SOL    HW135086   0.641   2.279   9.856
11063SOL    HW235087   0.570   2.411   9.875
11064SOL     OW35088   4.383   4.501   1.506
11064SOL    HW135089   4.389   4.576   1.448
11064SOL    HW235090   4.442   4.436   1.468
11065SOL     OW35091  10.781   2.181  14.597
11065SOL    HW135092  10.739   2.212  14.678
11065SOL    HW235093  10.875   2.185  14.617
11066SOL     OW35094   2.270   7.996  14.223
11066SOL    HW135095   2.184   7.990  14.183
11066SOL    HW235096   2.330   8.013  14.150
11067SOL     OW35097   3.692   6.470  13.183
11067SOL    HW135098   3.652   6.555  13.165
11067SOL    HW235099   3.763   6.462  13.119
11068SOL     OW35100   4.523   8.038  14.478
11068SOL    HW135101   4.566   8.118  14.508
11068SOL    HW235102   4.577   8.008  14.405
11069SOL     OW35103   0.906   1.384  12.716
11069SOL    HW135104   0.852   1.373  12.638
11069SOL    HW235105   0.912   1.296  12.753
11070SOL     OW35106  11.554   0.376   4.152
11070SOL    HW135107  11.629   0.431   4.173
11070SOL    HW235108  11.484   0.408   4.209
11071SOL     OW35109   7.979  10.200   6.861
11071SOL    HW135110   7.922  10.273   6.887
11071SOL    HW235111   7.967  10.193   6.766
11072SOL     OW35112  13.341  13.046   8.863
11072SOL    HW135113  13.332  13.100   8.942
11072SOL    HW235114  13.417  13.082   8.818
11073SOL     OW35115   9.147   3.954  13.840
11073SOL    HW135116   9.190   4.004  13.771
11073SOL    HW235117   9.109   3.879  13.794
11074SOL     OW35118  12.078   8.338  11.761
11074SOL    HW135119  12.163   8.323  11.719
11074SOL    HW235120  12.080   8.283  11.840
11075SOL     OW35121   2.123   9.842   2.690
11075SOL    HW135122   2.151   9.896   2.764
11075SOL    HW235123   2.196   9.847   2.628
11076SOL     OW35124   7.047   6.184   8.117
11076SOL    HW135125   7.018   6.220   8.200
11076SOL    HW235126   7.134   6.222   8.103
11077SOL     OW35127  14.563   7.766  12.212
11077SOL    HW135128  14.499   7.730  12.151
11077SOL    HW235129  14.642   7.715  12.197
11078SOL     OW35130   2.602  13.632   8.791
11078SOL    HW135131   2.580  13.547   8.830
11078SOL    HW235132   2.697  13.634   8.790
11079SOL     OW35133   2.849   3.552   5.169
11079SOL    HW135134   2.885   3.539   5.256
11079SOL    HW235135   2.779   3.487   5.162
11080SOL     OW35136   2.958  13.322  10.620
11080SOL    HW135137   2.940  13.270  10.541
11080SOL    HW235138   2.896  13.395  10.615
11081SOL     OW35139   1.080  13.293   9.458
11081SOL    HW135140   1.051  13.271   9.369
11081SOL    HW235141   1.019  13.362   9.486
11082SOL     OW35142   6.845   5.960  13.610
11082SOL    HW135143   6.806   6.041  13.577
11082SOL    HW235144   6.939   5.973  13.596
11083SOL     OW35145  11.689  11.107   6.839
11083SOL    HW135146  11.764  11.162   6.819
11083SOL    HW235147  11.622  11.168   6.870
11084SOL     OW35148  13.258   9.971   3.269
11084SOL    HW135149  13.290   9.883   3.250
11084SOL    HW235150  13.179   9.980   3.215
11085SOL     OW35151   0.265   6.622  11.163
11085SOL    HW135152   0.267   6.631  11.068
11085SOL    HW235153   0.279   6.529  11.179
11086SOL     OW35154  11.699   0.889   7.639
11086SOL    HW135155  11.756   0.958   7.606
11086SOL    HW235156  11.753   0.810   7.636
11087SOL     OW35157   8.965  12.180   3.640
11087SOL    HW135158   9.032  12.245   3.618
11087SOL    HW235159   8.915  12.220   3.712
11088SOL     OW35160  13.864   4.659   6.056
11088SOL    HW135161  13.902   4.680   5.971
11088SOL    HW235162  13.931   4.684   6.120
11089SOL     OW35163  14.847  11.371   4.014
11089SOL    HW135164  14.793  11.375   3.935
11089SOL    HW235165  14.794  11.324   4.078
11090SOL     OW35166   1.822   0.651   1.833
11090SOL    HW135167   1.818   0.634   1.739
11090SOL    HW235168   1.915   0.668   1.851
11091SOL     OW35169  10.809   2.412   1.412
11091SOL    HW135170  10.740   2.441   1.470
11091SOL    HW235171  10.821   2.319   1.432
11092SOL     OW35172  11.625   4.073   1.892
11092SOL    HW135173  11.714   4.078   1.927
11092SOL    HW235174  11.573   4.128   1.951
11093SOL     OW35175   5.617   9.407   9.326
11093SOL    HW135176   5.670   9.373   9.397
11093SOL    HW235177   5.676   9.468   9.280
11094SOL     OW35178  12.008  13.211   4.480
11094SOL    HW135179  12.025  13.244   4.568
11094SOL    HW235180  11.921  13.243   4.458
11095SOL     OW35181   1.947   8.468   6.880
11095SOL    HW135182   1.936   8.560   6.902
11095SOL    HW235183   1.858   8.433   6.878
11096SOL     OW35184   5.504   7.820  13.995
11096SOL    HW135185   5.469   7.732  14.012
11096SOL    HW235186   5.461   7.848  13.914
11097SOL     OW35187   7.337   1.460   0.525
11097SOL    HW135188   7.425   1.458   0.487
11097SOL    HW235189   7.279   1.441   0.451
11098SOL     OW35190  10.360  13.767   3.345
11098SOL    HW135191  10.346  13.725   3.260
11098SOL    HW235192  10.441  13.817   3.333
11099SOL     OW35193  14.749   8.484   7.767
11099SOL    HW135194  14.804   8.472   7.689
11099SOL    HW235195  14.664   8.449   7.742
11100SOL     OW35196  11.348  10.790   8.915
11100SOL    HW135197  11.379  10.871   8.874
11100SOL    HW235198  11.426  10.754   8.958
11101SOL     OW35199  10.872  12.030   7.736
11101SOL    HW135200  10.917  12.103   7.693
11101SOL    HW235201  10.802  12.072   7.787
11102SOL     OW35202   6.881   3.951   9.843
11102SOL    HW135203   6.864   3.975   9.752
11102SOL    HW235204   6.868   4.032   9.892
11103SOL     OW35205   7.082  14.086   1.688
11103SOL    HW135206   7.024  14.068   1.763
11103SOL    HW235207   7.152  14.022   1.697
11104SOL     OW35208   3.301   4.769  12.193
11104SOL    HW135209   3.320   4.859  12.163
11104SOL    HW235210   3.277   4.722  12.113
11105SOL     OW35211   8.054   0.578   3.835
11105SOL    HW135212   7.981   0.553   3.778
11105SOL    HW235213   8.014   0.590   3.922
11106SOL     OW35214   5.689  13.749   6.013
11106SOL    HW135215   5.624  13.681   5.993
11106SOL    HW235216   5.654  13.794   6.089
11107SOL     OW35217  13.345   6.948  11.493
11107SOL    HW135218  13.254   6.974  11.482
11107SOL    HW235219  13.394   7.004  11.434
11108SOL     OW35220   4.132   9.404   0.043
11108SOL    HW135221   4.145   9.495   0.070
11108SOL    HW235222   4.127   9.355   0.124
11109SOL     OW35223   4.952  11.174  14.344
11109SOL    HW135224   4.934  11.090  14.301
11109SOL    HW235225   5.013  11.218  14.284
11110SOL     OW35226  12.861  11.237   5.502
11110SOL    HW135227  12.878  11.214   5.594
11110SOL    HW235228  12.940  11.209   5.456
11111SOL     OW35229   8.946  13.423   2.460
11111SOL    HW135230   8.923  13.346   2.512
11111SOL    HW235231   8.876  13.486   2.478
11112SOL     OW35232  10.696   2.458   7.570
11112SOL    HW135233  10.786   2.484   7.550
11112SOL    HW235234  10.661   2.531   7.621
11113SOL     OW35235   6.866   0.229  11.265
11113SOL    HW135236   6.914   0.306  11.294
11113SOL    HW235237   6.912   0.155  11.305
11114SOL     OW35238  12.866   5.812   9.673
11114SOL    HW135239  12.802   5.882   9.662
11114SOL    HW235240  12.819   5.743   9.721
11115SOL     OW35241   3.836  10.523  13.071
11115SOL    HW135242   3.842  10.556  12.981
11115SOL    HW235243   3.916  10.554  13.113
11116SOL     OW35244  13.044   1.122   8.397
11116SOL    HW135245  12.951   1.109   8.415
11116SOL    HW235246  13.046   1.189   8.328
11117SOL     OW35247  12.470  13.213  12.920
11117SOL    HW135248  12.418  13.172  12.989
11117SOL    HW235249  12.550  13.161  12.916
11118SOL     OW35250   2.577   7.479  10.035
11118SOL    HW135251   2.669   7.506  10.032
11118SOL    HW235252   2.528   7.559  10.052
11119SOL     OW35253   9.816  12.433   9.335
11119SOL    HW135254   9.842  12.417   9.245
11119SOL    HW235255   9.896  12.461   9.379
11120SOL     OW35256  11.707   9.281   9.349
11120SOL    HW135257  11.786   9.250   9.306
11120SOL    HW235258  11.642   9.284   9.279
11121SOL     OW35259  14.487  14.602   5.045
11121SOL    HW135260  14.393  14.590   5.056
11121SOL    HW235261  14.526  14.530   5.094
11122SOL     OW35262   8.962   4.843   4.589
11122SOL    HW135263   8.911   4.850   4.508
11122SOL    HW235264   8.959   4.750   4.611
11123SOL     OW35265   8.449   3.354   6.051
11123SOL    HW135266   8.529   3.329   6.097
11123SOL    HW235267   8.426   3.440   6.087
11124SOL     OW35268  12.686  13.707  13.988
11124SOL    HW135269  12.608  13.761  13.979
11124SOL    HW235270  12.712  13.686  13.898
11125SOL     OW35271   4.357   4.033  14.799
11125SOL    HW135272   4.339   4.076  14.715
11125SOL    HW235273   4.273   4.034  14.845
11126SOL     OW35274   4.250  13.200  14.550
11126SOL    HW135275   4.258  13.295  14.547
11126SOL    HW235276   4.206  13.176  14.468
11127SOL     OW35277   6.306  11.797  11.100
11127SOL    HW135278   6.243  11.838  11.042
11127SOL    HW235279   6.307  11.853  11.178
11128SOL     OW35280   8.993   1.328   1.256
11128SOL    HW135281   8.916   1.370   1.293
11128SOL    HW235282   9.044   1.399   1.219
11129SOL     OW35283   2.066   8.011   5.781
11129SOL    HW135284   2.144   8.066   5.772
11129SOL    HW235285   2.018   8.023   5.699
11130SOL     OW35286   0.088   7.003   3.508
11130SOL    HW135287   0.151   6.965   3.446
11130SOL    HW235288   0.015   7.031   3.453
11131SOL     OW35289  13.010   4.943   5.791
11131SOL    HW135290  13.032   4.966   5.701
11131SOL    HW235291  12.919   4.915   5.788
11132SOL     OW35292   6.107  10.356   7.231
11132SOL    HW135293   6.162  10.374   7.308
11132SOL    HW235294   6.153  10.287   7.184
11133SOL     OW35295   7.217   0.639   2.417
11133SOL    HW135296   7.279   0.675   2.480
11133SOL    HW235297   7.261   0.646   2.332
11134SOL     OW35298   1.349   6.573  14.295
11134SOL    HW135299   1.444   6.562  14.298
11134SOL    HW235300   1.334   6.664  14.317
11135SOL     OW35301  10.318  10.882  13.724
11135SOL    HW135302  10.258  10.872  13.798
11135SOL    HW235303  10.395  10.925  13.762
11136SOL     OW35304   7.697   9.723  11.544
11136SOL    HW135305   7.652   9.678  11.473
11136SOL    HW235306   7.654   9.691  11.624
11137SOL     OW35307   9.697   7.565  14.368
11137SOL    HW135308   9.667   7.655  14.353
11137SOL    HW235309   9.621   7.520  14.405
11138SOL     OW35310  11.283   0.165   7.985
11138SOL    HW135311  11.208   0.119   8.023
11138SOL    HW235312  11.246   0.241   7.941
11139SOL     OW35313   8.841  14.584   6.008
11139SOL    HW135314   8.853  14.532   5.929
11139SOL    HW235315   8.828  14.674   5.976
11140SOL     OW35316   0.473   9.958   2.115
11140SOL    HW135317   0.500   9.879   2.161
11140SOL    HW235318   0.390   9.982   2.156
11141SOL     OW35319  10.165   1.134   9.927
11141SOL    HW135320  10.093   1.137   9.990
11141SOL    HW235321  10.217   1.057   9.952
11142SOL     OW35322  13.838  12.378   7.158
11142SOL    HW135323  13.768  12.415   7.104
11142SOL    HW235324  13.793  12.347   7.236
11143SOL     OW35325   5.742  12.548  12.385
11143SOL    HW135326   5.723  12.560  12.292
11143SOL    HW235327   5.783  12.462  12.390
11144SOL     OW35328  10.468   7.562  14.482
11144SOL    HW135329  10.376   7.568  14.505
11144SOL    HW235330  10.474   7.487  14.424
11145SOL     OW35331   0.105   3.045   5.503
11145SOL    HW135332   0.054   3.048   5.584
11145SOL    HW235333   0.040   3.032   5.434
11146SOL     OW35334  12.073   0.162   7.554
11146SOL    HW135335  12.166   0.185   7.558
11146SOL    HW235336  12.064   0.092   7.618
11147SOL     OW35337   9.065   8.144   5.538
11147SOL    HW135338   9.093   8.228   5.502
11147SOL    HW235339   9.029   8.097   5.463
11148SOL     OW35340   0.691  11.895   8.620
11148SOL    HW135341   0.690  11.854   8.534
11148SOL    HW235342   0.619  11.853   8.668
11149SOL     OW35343  10.390   0.259   2.592
11149SOL    HW135344  10.436   0.175   2.589
11149SOL    HW235345  10.335   0.259   2.514
11150SOL     OW35346   1.480   4.426   8.523
11150SOL    HW135347   1.430   4.508   8.528
11150SOL    HW235348   1.569   4.451   8.545
11151SOL     OW35349   0.111   0.700  11.328
11151SOL    HW135350   0.166   0.632  11.291
11151SOL    HW235351   0.090   0.669  11.416
11152SOL     OW35352   0.220   6.949  11.959
11152SOL    HW135353   0.211   6.855  11.943
11152SOL    HW235354   0.313   6.963  11.972
11153SOL     OW35355   9.111  14.767   1.836
11153SOL    HW135356   9.057  14.825   1.782
11153SOL    HW235357   9.061  14.685   1.838
11154SOL     OW35358  10.297   8.000   6.840
11154SOL    HW135359  10.330   7.915   6.812
11154SOL    HW235360  10.303   7.998   6.936
11155SOL     OW35361   8.502   5.426   5.488
11155SOL    HW135362   8.495   5.471   5.404
11155SOL    HW235363   8.433   5.464   5.542
11156SOL     OW35364   2.497   7.497   7.563
11156SOL    HW135365   2.422   7.447   7.596
11156SOL    HW235366   2.488   7.583   7.605
11157SOL     OW35367   8.437   4.231  14.105
11157SOL    HW135368   8.379   4.169  14.150
11157SOL    HW235369   8.433   4.310  14.158
11158SOL     OW35370   2.665   3.856  13.121
11158SOL    HW135371   2.713   3.774  13.111
11158SOL    HW235372   2.602   3.857  13.049
11159SOL     OW35373   7.940   8.154   3.302
11159SOL    HW135374   8.005   8.122   3.239
11159SOL    HW235375   7.938   8.248   3.290
11160SOL     OW35376  11.079  10.844   8.928
11160SOL    HW135377  11.173  10.842   8.914
11160SOL    HW235378  11.068  10.828   9.022
11161SOL     OW35379   8.024   4.304  11.329
11161SOL    HW135380   7.979   4.259  11.401
11161SOL    HW235381   8.115   4.311  11.359
11162SOL     OW35382   5.359  14.551  14.877
11162SOL    HW135383   5.288  14.494  14.848
11162SOL    HW235384   5.316  14.636   0.011
11163SOL     OW35385   0.388   9.189   0.750
11163SOL    HW135386   0.344   9.262   0.794
11163SOL    HW235387   0.317   9.129   0.726
11164SOL     OW35388   0.153   1.175  11.142
11164SOL    HW135389   0.092   1.249  11.136
11164SOL    HW235390   0.171   1.152  11.051
11165SOL     OW35391   1.658   2.395  11.341
11165SOL    HW135392   1.725   2.335  11.372
11165SOL    HW235393   1.576   2.346  11.348
11166SOL     OW35394   4.621   9.935   2.852
11166SOL    HW135395   4.621   9.954   2.946
11166SOL    HW235396   4.569  10.006   2.814
11167SOL     OW35397   5.564  10.382   6.320
11167SOL    HW135398   5.577  10.393   6.414
11167SOL    HW235399   5.564  10.472   6.285
11168SOL     OW35400  10.543   0.060   5.492
11168SOL    HW135401  10.515   0.079   5.402
11168SOL    HW235402  10.605  14.868   5.483
11169SOL     OW35403  10.712   5.726   7.013
11169SOL    HW135404  10.642   5.773   7.058
11169SOL    HW235405  10.667   5.657   6.964
11170SOL     OW35406   2.430   7.308   7.104
11170SOL    HW135407   2.484   7.284   7.028
11170SOL    HW235408   2.380   7.384   7.075
11171SOL     OW35409   1.519   2.986  10.701
11171SOL    HW135410   1.614   2.978  10.699
11171SOL    HW235411   1.503   3.066  10.751
11172SOL     OW35412   4.271   2.370   2.820
11172SOL    HW135413   4.256   2.300   2.757
11172SOL    HW235414   4.357   2.350   2.858
11173SOL     OW35415   1.362  13.266   0.669
11173SOL    HW135416   1.280  13.250   0.717
11173SOL    HW235417   1.420  13.307   0.734
11174SOL     OW35418   1.170   6.298   6.216
11174SOL    HW135419   1.133   6.308   6.304
11174SOL    HW235420   1.096   6.276   6.160
11175SOL     OW35421  13.762  10.576  10.875
11175SOL    HW135422  13.704  10.544  10.807
11175SOL    HW235423  13.849  10.578  10.834
11176SOL     OW35424   0.147   8.122  13.872
11176SOL    HW135425   0.063   8.166  13.869
11176SOL    HW235426   0.211   8.191  13.852
11177SOL     OW35427   7.998   1.062  13.809
11177SOL    HW135428   8.075   1.039  13.861
11177SOL    HW235429   7.977   0.982  13.761
11178SOL     OW35430   9.029   7.316   2.996
11178SOL    HW135431   9.030   7.306   2.901
11178SOL    HW235432   9.026   7.410   3.011
11179SOL     OW35433   9.674   2.987  11.492
11179SOL    HW135434   9.753   2.992  11.439
11179SOL    HW235435   9.672   2.896  11.522
11180SOL     OW35436   3.272  10.974  12.324
11180SOL    HW135437   3.250  10.887  12.289
11180SOL    HW235438   3.188  11.019  12.331
11181SOL     OW35439   3.700   0.111   9.811
11181SOL    HW135440   3.651   0.033   9.836
11181SOL    HW235441   3.638   0.183   9.819
11182SOL     OW35442   7.660   1.363   9.643
11182SOL    HW135443   7.660   1.267   9.644
11182SOL    HW235444   7.752   1.386   9.660
11183SOL     OW35445   7.660  14.222   2.310
11183SOL    HW135446   7.628  14.133   2.294
11183SOL    HW235447   7.581  14.273   2.328
11184SOL     OW35448   5.985   4.217   2.533
11184SOL    HW135449   6.036   4.269   2.595
11184SOL    HW235450   5.895   4.248   2.546
11185SOL     OW35451   4.019   6.770  14.410
11185SOL    HW135452   4.054   6.839  14.466
11185SOL    HW235453   3.926   6.765  14.433
11186SOL     OW35454   2.858   9.945   9.928
11186SOL    HW135455   2.909   9.966  10.006
11186SOL    HW235456   2.920   9.903   9.869
11187SOL     OW35457   2.059   5.101   5.313
11187SOL    HW135458   2.105   5.058   5.242
11187SOL    HW235459   2.014   5.030   5.359
11188SOL     OW35460   0.008  10.806   3.620
11188SOL    HW135461   0.047  10.726   3.584
11188SOL    HW235462   0.060  10.825   3.698
11189SOL     OW35463   1.726   0.428  10.662
11189SOL    HW135464   1.733   0.333  10.655
11189SOL    HW235465   1.816   0.459  10.671
11190SOL     OW35466   6.501   8.220  10.829
11190SOL    HW135467   6.587   8.235  10.869
11190SOL    HW235468   6.468   8.308  10.810
11191SOL     OW35469   8.431  10.875   7.216
11191SOL    HW135470   8.373  10.898   7.144
11191SOL    HW235471   8.460  10.959   7.251
11192SOL     OW35472  12.693   1.617   6.056
11192SOL    HW135473  12.746   1.654   6.127
11192SOL    HW235474  12.754   1.564   6.005
11193SOL     OW35475   8.723   0.860  13.096
11193SOL    HW135476   8.699   0.827  13.010
11193SOL    HW235477   8.809   0.821  13.113
11194SOL     OW35478  10.226   5.920   4.206
11194SOL    HW135479  10.135   5.921   4.176
11194SOL    HW235480  10.262   5.839   4.171
11195SOL     OW35481  10.529   4.263   4.547
11195SOL    HW135482  10.458   4.326   4.556
11195SOL    HW235483  10.523   4.208   4.625
11196SOL     OW35484   5.461  14.399   5.173
11196SOL    HW135485   5.420  14.364   5.252
11196SOL    HW235486   5.412  14.360   5.101
11197SOL     OW35487  12.031   9.601  10.178
11197SOL    HW135488  12.018   9.643  10.094
11197SOL    HW235489  11.952   9.623  10.229
11198SOL     OW35490   7.218  13.492   4.302
11198SOL    HW135491   7.137  13.448   4.329
11198SOL    HW235492   7.237  13.455   4.215
11199SOL     OW35493   7.421   0.764  13.479
11199SOL    HW135494   7.408   0.670  13.484
11199SOL    HW235495   7.458   0.779  13.392
11200SOL     OW35496   8.711   0.413  12.644
11200SOL    HW135497   8.660   0.337  12.616
11200SOL    HW235498   8.686   0.482  12.582
11201SOL     OW35499  11.314   7.940   0.745
11201SOL    HW135500  11.373   8.008   0.777
11201SOL    HW235501  11.226   7.974   0.764
11202SOL     OW35502   1.075  12.379   4.390
11202SOL    HW135503   1.142  12.357   4.325
11202SOL    HW235504   1.026  12.451   4.351
11203SOL     OW35505   5.301   1.832   7.028
11203SOL    HW135506   5.379   1.885   7.012
11203SOL    HW235507   5.316   1.794   7.114
11204SOL     OW35508   8.705   5.252   8.744
11204SOL    HW135509   8.703   5.223   8.835
11204SOL    HW235510   8.782   5.309   8.740
11205SOL     OW35511   6.279   3.717  14.380
11205SOL    HW135512   6.192   3.713  14.419
11205SOL    HW235513   6.320   3.793  14.421
11206SOL     OW35514   5.013   3.173   7.793
11206SOL    HW135515   4.952   3.162   7.721
11206SOL    HW235516   5.074   3.099   7.785
11207SOL     OW35517   2.327   0.279   6.556
11207SOL    HW135518   2.259   0.326   6.605
11207SOL    HW235519   2.312   0.187   6.577
11208SOL     OW35520  11.489   8.257  10.695
11208SOL    HW135521  11.516   8.280  10.784
11208SOL    HW235522  11.565   8.279  10.641
11209SOL     OW35523   1.621   6.773   0.874
11209SOL    HW135524   1.548   6.712   0.882
11209SOL    HW235525   1.647   6.768   0.782
11210SOL     OW35526   1.530   8.710   3.202
11210SOL    HW135527   1.568   8.626   3.229
11210SOL    HW235528   1.605   8.764   3.179
11211SOL     OW35529   9.304   0.623  14.553
11211SOL    HW135530   9.304   0.611  14.648
11211SOL    HW235531   9.320   0.716  14.540
11212SOL     OW35532   8.098   3.968   8.847
11212SOL    HW135533   8.190   3.946   8.836
11212SOL    HW235534   8.087   3.978   8.942
11213SOL     OW35535   5.586  14.211   2.907
11213SOL    HW135536   5.656  14.233   2.968
11213SOL    HW235537   5.506  14.240   2.952
11214SOL     OW35538   4.370  14.374   7.138
11214SOL    HW135539   4.351  14.448   7.195
11214SOL    HW235540   4.287  14.353   7.096
11215SOL     OW35541   3.093   5.646  12.581
11215SOL    HW135542   3.114   5.740  12.582
11215SOL    HW235543   3.168   5.605  12.626
11216SOL     OW35544   8.433   1.934   9.618
11216SOL    HW135545   8.526   1.923   9.634
11216SOL    HW235546   8.393   1.857   9.659
11217SOL     OW35547   0.272   8.793   8.837
11217SOL    HW135548   0.331   8.868   8.848
11217SOL    HW235549   0.199   8.812   8.897
11218SOL     OW35550  13.495   4.735   9.850
11218SOL    HW135551  13.519   4.795   9.921
11218SOL    HW235552  13.469   4.792   9.778
11219SOL     OW35553   2.330   2.954   9.435
11219SOL    HW135554   2.296   2.870   9.402
11219SOL    HW235555   2.390   2.930   9.505
11220SOL     OW35556   3.929  14.244  10.842
11220SOL    HW135557   3.942  14.338  10.829
11220SOL    HW235558   3.838  14.237  10.872
11221SOL     OW35559   5.083   1.642  10.020
11221SOL    HW135560   5.134   1.685   9.951
11221SOL    HW235561   5.018   1.590   9.973
11222SOL     OW35562   7.796  14.520  11.376
11222SOL    HW135563   7.751  14.603  11.358
11222SOL    HW235564   7.725  14.456  11.384
11223SOL     OW35565  13.985   7.711   5.214
11223SOL    HW135566  13.921   7.777   5.239
11223SOL    HW235567  13.963   7.688   5.124
11224SOL     OW35568   0.188  12.412   6.586
11224SOL    HW135569   0.229  12.478   6.642
11224SOL    HW235570   0.114  12.380   6.637
11225SOL     OW35571  13.154  14.442   4.199
11225SOL    HW135572  13.150  14.538   4.203
11225SOL    HW235573  13.108  14.420   4.118
11226SOL     OW35574   1.854   1.437   5.737
11226SOL    HW135575   1.924   1.485   5.782
11226SOL    HW235576   1.781   1.439   5.798
11227SOL     OW35577  14.793   0.969  10.419
11227SOL    HW135578  14.853   1.020  10.364
11227SOL    HW235579  14.706   0.995  10.390
11228SOL     OW35580   2.160   0.514   0.641
11228SOL    HW135581   2.077   0.539   0.601
11228SOL    HW235582   2.215   0.592   0.634
11229SOL     OW35583  10.426   0.461   5.541
11229SOL    HW135584  10.478   0.532   5.579
11229SOL    HW235585  10.469   0.441   5.458
11230SOL     OW35586   4.682   2.189   6.394
11230SOL    HW135587   4.606   2.211   6.448
11230SOL    HW235588   4.668   2.237   6.312
11231SOL     OW35589   6.646   6.816   8.048
11231SOL    HW135590   6.577   6.763   8.089
11231SOL    HW235591   6.603   6.897   8.023
11232SOL     OW35592   8.557   7.719   8.460
11232SOL    HW135593   8.629   7.689   8.404
11232SOL    HW235594   8.600   7.764   8.532
11233SOL     OW35595  11.746   5.557   4.327
11233SOL    HW135596  11.836   5.591   4.335
11233SOL    HW235597  11.734   5.546   4.233
11234SOL     OW35598  10.805   4.420  14.173
11234SOL    HW135599  10.766   4.507  14.162
11234SOL    HW235600  10.871   4.432  14.241
11235SOL     OW35601   5.072   1.145   1.240
11235SOL    HW135602   5.166   1.135   1.250
11235SOL    HW235603   5.038   1.055   1.239
11236SOL     OW35604   0.372   5.179   1.784
11236SOL    HW135605   0.347   5.268   1.760
11236SOL    HW235606   0.454   5.189   1.832
11237SOL     OW35607   1.603  13.173   6.358
11237SOL    HW135608   1.596  13.094   6.412
11237SOL    HW235609   1.690  13.168   6.320
11238SOL     OW35610   2.128   1.712  11.077
11238SOL    HW135611   2.097   1.748  11.160
11238SOL    HW235612   2.144   1.789  11.023
11239SOL     OW35613  14.501   3.530   2.135
11239SOL    HW135614  14.416   3.564   2.107
11239SOL    HW235615  14.563   3.601   2.117
11240SOL     OW35616   0.326   8.914  12.755
11240SOL    HW135617   0.349   8.823  12.742
11240SOL    HW235618   0.264   8.913  12.827
11241SOL     OW35619  14.348  13.306   3.450
11241SOL    HW135620  14.320  13.397   3.458
11241SOL    HW235621  14.378  13.282   3.538
11242SOL     OW35622  14.714   0.218  11.567
11242SOL    HW135623  14.630   0.263  11.567
11242SOL    HW235624  14.766   0.263  11.500
11243SOL     OW35625   8.258  11.818   3.501
11243SOL    HW135626   8.277  11.798   3.593
11243SOL    HW235627   8.201  11.895   3.505
11244SOL     OW35628   4.948  10.970   5.052
11244SOL    HW135629   4.912  11.052   5.084
11244SOL    HW235630   4.915  10.961   4.963
11245SOL     OW35631   7.380   3.465   8.150
11245SOL    HW135632   7.371   3.388   8.095
11245SOL    HW235633   7.465   3.455   8.193
11246SOL     OW35634  12.377   3.867   2.415
11246SOL    HW135635  12.284   3.856   2.433
11246SOL    HW235636  12.398   3.953   2.450
11247SOL     OW35637   9.934   7.189  12.945
11247SOL    HW135638   9.887   7.136  13.010
11247SOL    HW235639   9.869   7.203  12.875
11248SOL     OW35640   6.667   6.249  11.263
11248SOL    HW135641   6.698   6.306  11.334
11248SOL    HW235642   6.743   6.196  11.239
11249SOL     OW35643  12.188   1.604   9.085
11249SOL    HW135644  12.188   1.514   9.052
11249SOL    HW235645  12.121   1.605   9.154
11250SOL     OW35646   6.152   7.329  14.528
11250SOL    HW135647   6.158   7.291  14.441
11250SOL    HW235648   6.148   7.254  14.588
11251SOL     OW35649   7.593  12.214   1.473
11251SOL    HW135650   7.537  12.228   1.396
11251SOL    HW235651   7.553  12.141   1.519
11252SOL     OW35652   1.395   6.257  11.780
11252SOL    HW135653   1.442   6.203  11.844
11252SOL    HW235654   1.343   6.317  11.833
11253SOL     OW35655   1.779  12.038   3.761
11253SOL    HW135656   1.822  11.959   3.727
11253SOL    HW235657   1.808  12.108   3.702
11254SOL     OW35658   1.616   9.708  12.182
11254SOL    HW135659   1.584   9.747  12.264
11254SOL    HW235660   1.546   9.647  12.156
11255SOL     OW35661   2.131   8.962   6.323
11255SOL    HW135662   2.121   8.868   6.308
11255SOL    HW235663   2.208   8.987   6.273
11256SOL     OW35664   0.302   2.187   5.449
11256SOL    HW135665   0.296   2.123   5.379
11256SOL    HW235666   0.391   2.223   5.441
11257SOL     OW35667  14.863   8.110   5.754
11257SOL    HW135668   0.037   8.149   5.685
11257SOL    HW235669  14.773   8.130   5.729
11258SOL     OW35670   7.132   4.818   4.943
11258SOL    HW135671   7.185   4.864   4.878
11258SOL    HW235672   7.100   4.740   4.897
11259SOL     OW35673  13.353   2.644   3.603
11259SOL    HW135674  13.365   2.597   3.685
11259SOL    HW235675  13.293   2.715   3.624
11260SOL     OW35676   1.584   7.177  10.820
11260SOL    HW135677   1.498   7.152  10.851
11260SOL    HW235678   1.574   7.184  10.725
11261SOL     OW35679   5.015   2.270   7.882
11261SOL    HW135680   5.032   2.176   7.886
11261SOL    HW235681   4.929   2.281   7.923
11262SOL     OW35682  13.529   3.443   8.294
11262SOL    HW135683  13.504   3.518   8.240
11262SOL    HW235684  13.619   3.424   8.269
11263SOL     OW35685  14.015   6.481  11.971
11263SOL    HW135686  14.090   6.530  12.005
11263SOL    HW235687  13.994   6.524  11.888
11264SOL     OW35688   5.125  10.150   8.498
11264SOL    HW135689   5.156  10.079   8.441
11264SOL    HW235690   5.035  10.165   8.469
11265SOL     OW35691  12.137   6.812  12.636
11265SOL    HW135692  12.146   6.904  12.613
11265SOL    HW235693  12.053   6.785  12.599
11266SOL     OW35694   1.785   5.163   5.846
11266SOL    HW135695   1.797   5.258   5.843
11266SOL    HW235696   1.874   5.127   5.848
11267SOL     OW35697  14.087   8.219   1.844
11267SOL    HW135698  14.051   8.250   1.761
11267SOL    HW235699  14.177   8.194   1.823
11268SOL     OW35700   1.549  11.952   1.492
11268SOL    HW135701   1.474  11.946   1.551
11268SOL    HW235702   1.625  11.943   1.549
11269SOL     OW35703   5.007  11.341  14.840
11269SOL    HW135704   5.000  11.303  14.752
11269SOL    HW235705   5.024  11.266   0.017
11270SOL     OW35706   1.844   8.508   7.267
11270SOL    HW135707   1.902   8.441   7.231
11270SOL    HW235708   1.765   8.504   7.213
11271SOL     OW35709  11.326   6.507   7.103
11271SOL    HW135710  11.353   6.416   7.113
11271SOL    HW235711  11.230   6.504   7.104
11272SOL     OW35712  10.865   8.691   3.500
11272SOL    HW135713  10.843   8.729   3.584
11272SOL    HW235714  10.957   8.666   3.508
11273SOL     OW35715   7.610   8.213   1.118
11273SOL    HW135716   7.604   8.305   1.091
11273SOL    HW235717   7.704   8.196   1.121
11274SOL     OW35718  10.609   2.154  11.959
11274SOL    HW135719  10.545   2.128  11.894
11274SOL    HW235720  10.558   2.182  12.034
11275SOL     OW35721  11.548  10.870   8.068
11275SOL    HW135722  11.615  10.801   8.075
11275SOL    HW235723  11.495  10.844   7.993
11276SOL     OW35724   4.434   2.746   2.128
11276SOL    HW135725   4.377   2.823   2.120
11276SOL    HW235726   4.498   2.770   2.195
11277SOL     OW35727  12.727   3.038   6.161
11277SOL    HW135728  12.668   3.015   6.232
11277SOL    HW235729  12.693   3.121   6.128
11278SOL     OW35730  11.854   1.208  12.389
11278SOL    HW135731  11.911   1.160  12.448
11278SOL    HW235732  11.910   1.277  12.352
11279SOL     OW35733  11.960   5.910   8.778
11279SOL    HW135734  11.973   5.855   8.856
11279SOL    HW235735  11.904   5.857   8.721
11280SOL     OW35736   6.116  11.871  10.910
11280SOL    HW135737   6.053  11.800  10.919
11280SOL    HW235738   6.169  11.846  10.835
11281SOL     OW35739   7.270  12.544  10.932
11281SOL    HW135740   7.194  12.489  10.915
11281SOL    HW235741   7.233  12.626  10.967
11282SOL     OW35742   6.008   2.920  12.448
11282SOL    HW135743   5.983   2.870  12.371
11282SOL    HW235744   5.963   2.878  12.520
11283SOL     OW35745  13.252   4.309   0.148
11283SOL    HW135746  13.198   4.247   0.100
11283SOL    HW235747  13.257   4.273   0.237
11284SOL     OW35748  11.987  13.831   2.503
11284SOL    HW135749  11.894  13.853   2.514
11284SOL    HW235750  12.028  13.859   2.585
11285SOL     OW35751  10.599   8.449   2.814
11285SOL    HW135752  10.687   8.483   2.797
11285SOL    HW235753  10.582   8.390   2.741
11286SOL     OW35754   0.082   4.670   2.042
11286SOL    HW135755   0.156   4.702   2.095
11286SOL    HW235756   0.005   4.713   2.080
11287SOL     OW35757   6.927   5.709   1.607
11287SOL    HW135758   6.978   5.786   1.634
11287SOL    HW235759   6.992   5.649   1.571
11288SOL     OW35760   8.196  13.218   2.440
11288SOL    HW135761   8.168  13.254   2.525
11288SOL    HW235762   8.139  13.260   2.376
11289SOL     OW35763   1.566   9.895  14.051
11289SOL    HW135764   1.501   9.831  14.080
11289SOL    HW235765   1.525   9.939  13.976
11290SOL     OW35766   8.299   5.495   9.457
11290SOL    HW135767   8.361   5.530   9.521
11290SOL    HW235768   8.353   5.444   9.397
11291SOL     OW35769  11.532   3.238  10.297
11291SOL    HW135770  11.587   3.201  10.228
11291SOL    HW235771  11.564   3.197  10.378
11292SOL     OW35772   2.399   3.410   8.195
11292SOL    HW135773   2.435   3.469   8.129
11292SOL    HW235774   2.406   3.323   8.156
11293SOL     OW35775   8.577   0.882   0.983
11293SOL    HW135776   8.564   0.969   0.945
11293SOL    HW235777   8.668   0.882   1.012
11294SOL     OW35778   4.768   1.698   9.004
11294SOL    HW135779   4.855   1.665   8.983
11294SOL    HW235780   4.761   1.687   9.099
11295SOL     OW35781   8.746  13.717  11.367
11295SOL    HW135782   8.669  13.679  11.411
11295SOL    HW235783   8.712  13.793  11.321
11296SOL     OW35784   9.772   2.450   1.410
11296SOL    HW135785   9.850   2.429   1.358
11296SOL    HW235786   9.724   2.368   1.416
11297SOL     OW35787  13.664   5.186   1.803
11297SOL    HW135788  13.622   5.250   1.745
11297SOL    HW235789  13.667   5.229   1.888
11298SOL     OW35790   2.497   1.522   3.621
11298SOL    HW135791   2.523   1.568   3.542
11298SOL    HW235792   2.519   1.583   3.692
11299SOL     OW35793  10.003  13.219  11.421
11299SOL    HW135794   9.995  13.288  11.486
11299SOL    HW235795  10.073  13.162  11.455
11300SOL     OW35796   1.456   7.911   6.079
11300SOL    HW135797   1.500   7.922   6.163
11300SOL    HW235798   1.408   7.828   6.088
11301SOL     OW35799   4.853   5.256   2.057
11301SOL    HW135800   4.908   5.237   1.981
11301SOL    HW235801   4.887   5.338   2.092
11302SOL     OW35802   6.080   6.539   5.149
11302SOL    HW135803   6.015   6.585   5.202
11302SOL    HW235804   6.039   6.531   5.063
11303SOL     OW35805  11.287   9.419  12.559
11303SOL    HW135806  11.261   9.423  12.651
11303SOL    HW235807  11.375   9.382  12.561
11304SOL     OW35808  12.963   0.246  12.480
11304SOL    HW135809  12.970   0.328  12.528
11304SOL    HW235810  13.045   0.199  12.501
11305SOL     OW35811   8.764  10.305  11.756
11305SOL    HW135812   8.859  10.292  11.750
11305SOL    HW235813   8.745  10.296  11.850
11306SOL     OW35814   1.269   7.360  11.052
11306SOL    HW135815   1.308   7.447  11.050
11306SOL    HW235816   1.177   7.374  11.033
11307SOL     OW35817   5.230   0.185   0.465
11307SOL    HW135818   5.240   0.270   0.423
11307SOL    HW235819   5.148   0.192   0.514
11308SOL     OW35820   7.572   3.937   9.556
11308SOL    HW135821   7.507   3.867   9.569
11308SOL    HW235822   7.590   3.970   9.644
11309SOL     OW35823   7.525   8.081   8.354
11309SOL    HW135824   7.590   8.070   8.423
11309SOL    HW235825   7.527   7.999   8.305
11310SOL     OW35826   4.725   0.949   2.923
11310SOL    HW135827   4.782   0.953   3.000
11310SOL    HW235828   4.780   0.912   2.854
11311SOL     OW35829   8.870   9.999   5.410
11311SOL    HW135830   8.776   9.986   5.420
11311SOL    HW235831   8.909   9.936   5.471
11312SOL     OW35832   1.669   4.433   5.637
11312SOL    HW135833   1.723   4.354   5.634
11312SOL    HW235834   1.674   4.469   5.549
11313SOL     OW35835  14.488   3.782   0.458
11313SOL    HW135836  14.409   3.769   0.406
11313SOL    HW235837  14.553   3.813   0.395
11314SOL     OW35838   7.342  12.930  10.612
11314SOL    HW135839   7.386  12.984  10.546
11314SOL    HW235840   7.412  12.877  10.650
11315SOL     OW35841  12.701   2.273   7.425
11315SOL    HW135842  12.611   2.306   7.425
11315SOL    HW235843  12.694   2.186   7.464
11316SOL     OW35844   6.893   5.451  10.532
11316SOL    HW135845   6.800   5.427  10.526
11316SOL    HW235846   6.899   5.532  10.481
11317SOL     OW35847  12.665   8.806   4.245
11317SOL    HW135848  12.744   8.859   4.237
11317SOL    HW235849  12.640   8.814   4.337
11318SOL     OW35850   2.281   3.102   9.872
11318SOL    HW135851   2.255   3.149   9.951
11318SOL    HW235852   2.374   3.083   9.885
11319SOL     OW35853   5.893  14.567  11.649
11319SOL    HW135854   5.948  14.495  11.680
11319SOL    HW235855   5.804  14.540  11.670
11320SOL     OW35856   1.153  10.356  13.879
11320SOL    HW135857   1.087  10.425  13.871
11320SOL    HW235858   1.222  10.394  13.934
11321SOL     OW35859   3.615   3.138  12.216
11321SOL    HW135860   3.692   3.085  12.238
11321SOL    HW235861   3.639   3.183  12.136
11322SOL     OW35862   6.871   3.915   3.935
11322SOL    HW135863   6.958   3.955   3.938
11322SOL    HW235864   6.829   3.953   3.858
11323SOL     OW35865   1.672  11.230   0.788
11323SOL    HW135866   1.605  11.267   0.730
11323SOL    HW235867   1.681  11.139   0.760
11324SOL     OW35868   8.926   1.694   4.434
11324SOL    HW135869   8.874   1.638   4.492
11324SOL    HW235870   8.869   1.710   4.359
11325SOL     OW35871   3.198   0.328  10.714
11325SOL    HW135872   3.131   0.388  10.682
11325SOL    HW235873   3.176   0.244  10.673
11326SOL     OW35874  12.640   7.943  10.532
11326SOL    HW135875  12.620   7.878  10.599
11326SOL    HW235876  12.734   7.935  10.518
11327SOL     OW35877  14.279   9.155   4.069
11327SOL    HW135878  14.269   9.167   3.975
11327SOL    HW235879  14.241   9.235   4.108
11328SOL     OW35880   5.594  14.827  12.214
11328SOL    HW135881   5.673  14.822  12.159
11328SOL    HW235882   5.628  14.825  12.303
11329SOL     OW35883   8.640   9.244  11.614
11329SOL    HW135884   8.563   9.235  11.671
11329SOL    HW235885   8.621   9.322  11.560
11330SOL     OW35886   2.934  12.023   9.637
11330SOL    HW135887   2.928  12.117   9.654
11330SOL    HW235888   2.854  11.986   9.675
11331SOL     OW35889   9.708   3.393   0.509
11331SOL    HW135890   9.682   3.425   0.595
11331SOL    HW235891   9.647   3.321   0.490
11332SOL     OW35892   6.889   0.487  12.533
11332SOL    HW135893   6.944   0.481  12.455
11332SOL    HW235894   6.886   0.581  12.553
11333SOL     OW35895  14.265   0.423  12.565
11333SOL    HW135896  14.239   0.399  12.654
11333SOL    HW235897  14.255   0.342  12.514
11334SOL     OW35898   9.173  10.791  11.381
11334SOL    HW135899   9.159  10.815  11.289
11334SOL    HW235900   9.089  10.755  11.409
11335SOL     OW35901   8.620  12.054  11.523
11335SOL    HW135902   8.694  12.033  11.579
11335SOL    HW235903   8.558  12.099  11.580
11336SOL     OW35904   6.947   7.817   0.802
11336SOL    HW135905   6.920   7.725   0.794
11336SOL    HW235906   6.998   7.819   0.883
11337SOL     OW35907   5.985  11.341   1.017
11337SOL    HW135908   6.035  11.400   0.962
11337SOL    HW235909   5.905  11.389   1.038
11338SOL     OW35910  13.794   7.701   3.619
11338SOL    HW135911  13.862   7.641   3.590
11338SOL    HW235912  13.840   7.781   3.643
11339SOL     OW35913   3.592   0.387  12.989
11339SOL    HW135914   3.580   0.481  13.005
11339SOL    HW235915   3.519   0.362  12.933
11340SOL     OW35916   5.459   3.211   7.783
11340SOL    HW135917   5.373   3.250   7.798
11340SOL    HW235918   5.501   3.211   7.868
11341SOL     OW35919  14.569   8.338   6.599
11341SOL    HW135920  14.495   8.395   6.579
11341SOL    HW235921  14.629   8.350   6.525
11342SOL     OW35922  11.407   0.814   8.364
11342SOL    HW135923  11.390   0.888   8.422
11342SOL    HW235924  11.325   0.801   8.317
11343SOL     OW35925  14.080   8.924   1.883
11343SOL    HW135926  14.103   8.871   1.807
11343SOL    HW235927  14.057   8.859   1.950
11344SOL     OW35928   3.808   7.454   4.033
11344SOL    HW135929   3.839   7.365   4.044
11344SOL    HW235930   3.714   7.449   4.047
11345SOL     OW35931   8.442  13.784   2.444
11345SOL    HW135932   8.456  13.719   2.513
11345SOL    HW235933   8.498  13.858   2.469
11346SOL     OW35934   1.856  11.448   1.792
11346SOL    HW135935   1.875  11.451   1.698
11346SOL    HW235936   1.762  11.429   1.796
11347SOL     OW35937  12.938   0.235   3.866
11347SOL    HW135938  12.853   0.276   3.851
11347SOL    HW235939  12.921   0.141   3.859
11348SOL     OW35940   9.435  12.394  11.516
11348SOL    HW135941   9.387  12.468  11.479
11348SOL    HW235942   9.429  12.406  11.611
11349SOL     OW35943   8.447  11.335   4.126
11349SOL    HW135944   8.371  11.349   4.182
11349SOL    HW235945   8.412  11.298   4.045
11350SOL     OW35946  12.616   4.600  13.446
11350SOL    HW135947  12.688   4.620  13.505
11350SOL    HW235948  12.566   4.681  13.442
11351SOL     OW35949   1.070   4.733   0.355
11351SOL    HW135950   1.038   4.649   0.388
11351SOL    HW235951   1.165   4.725   0.358
11352SOL     OW35952   0.740   4.291   0.698
11352SOL    HW135953   0.714   4.356   0.632
11352SOL    HW235954   0.660   4.272   0.746
11353SOL     OW35955   3.814  14.448   4.328
11353SOL    HW135956   3.738  14.442   4.386
11353SOL    HW235957   3.880  14.494   4.379
11354SOL     OW35958   3.407   1.446   3.929
11354SOL    HW135959   3.492   1.426   3.967
11354SOL    HW235960   3.377   1.362   3.892
11355SOL     OW35961   3.694  12.304  12.078
11355SOL    HW135962   3.771  12.274  12.028
11355SOL    HW235963   3.661  12.379  12.028
11356SOL     OW35964   9.662   6.292   5.955
11356SOL    HW135965   9.610   6.267   6.031
11356SOL    HW235966   9.726   6.222   5.946
11357SOL     OW35967  10.896   5.250   6.833
11357SOL    HW135968  10.929   5.338   6.850
11357SOL    HW235969  10.808   5.250   6.870
11358SOL     OW35970   1.141   8.544  12.978
11358SOL    HW135971   1.129   8.495  12.896
11358SOL    HW235972   1.052   8.563  13.008
11359SOL     OW35973   3.330   8.753   5.645
11359SOL    HW135974   3.259   8.722   5.590
11359SOL    HW235975   3.398   8.686   5.638
11360SOL     OW35976   2.047  13.515   7.082
11360SOL    HW135977   2.065  13.450   7.150
11360SOL    HW235978   2.026  13.464   7.004
11361SOL     OW35979   6.048   0.723   5.850
11361SOL    HW135980   6.043   0.770   5.933
11361SOL    HW235981   6.053   0.630   5.875
11362SOL     OW35982  10.089  14.596   3.577
11362SOL    HW135983  10.118  14.637   3.496
11362SOL    HW235984  10.150  14.524   3.591
11363SOL     OW35985   6.282   7.967   0.005
11363SOL    HW135986   6.244   7.910   0.071
11363SOL    HW235987   6.258   8.055   0.032
11364SOL     OW35988   9.395   8.688  12.590
11364SOL    HW135989   9.422   8.772  12.628
11364SOL    HW235990   9.453   8.677  12.514
11365SOL     OW35991   4.579   2.525   7.902
11365SOL    HW135992   4.532   2.504   7.821
11365SOL    HW235993   4.524   2.588   7.947
11366SOL     OW35994   3.118  11.287  11.617
11366SOL    HW135995   3.041  11.265  11.565
11366SOL    HW235996   3.083  11.316  11.701
11367SOL     OW35997   9.451  10.248   1.723
11367SOL    HW135998   9.406  10.305   1.785
11367SOL    HW235999   9.442  10.160   1.760
11368SOL     OW36000  13.186   4.120   1.045
11368SOL    HW136001  13.109   4.065   1.030
11368SOL    HW236002  13.244   4.065   1.099
11369SOL     OW36003   2.849   1.601  11.999
11369SOL    HW136004   2.876   1.693  11.988
11369SOL    HW236005   2.885   1.557  11.923
11370SOL     OW36006   4.240   6.232   0.830
11370SOL    HW136007   4.291   6.282   0.895
11370SOL    HW236008   4.271   6.142   0.839
11371SOL     OW36009   4.967  13.380   0.982
11371SOL    HW136010   4.979  13.429   1.064
11371SOL    HW236011   5.020  13.428   0.918
11372SOL     OW36012  11.702   3.343  12.199
11372SOL    HW136013  11.682   3.283  12.127
11372SOL    HW236014  11.623   3.344  12.253
11373SOL     OW36015   3.412  11.572   4.121
11373SOL    HW136016   3.407  11.560   4.026
11373SOL    HW236017   3.394  11.486   4.158
11374SOL     OW36018  12.369  12.054   5.276
11374SOL    HW136019  12.275  12.040   5.262
11374SOL    HW236020  12.398  12.100   5.197
11375SOL     OW36021   0.375  10.948  10.626
11375SOL    HW136022   0.315  10.879  10.598
11375SOL    HW236023   0.346  10.971  10.714
11376SOL     OW36024  11.706  11.671   1.077
11376SOL    HW136025  11.768  11.698   1.009
11376SOL    HW236026  11.620  11.691   1.040
11377SOL     OW36027   8.498  13.707   1.346
11377SOL    HW136028   8.430  13.663   1.295
11377SOL    HW236029   8.580  13.686   1.301
11378SOL     OW36030   6.465   0.280  10.783
11378SOL    HW136031   6.538   0.340  10.765
11378SOL    HW236032   6.396   0.308  10.722
11379SOL     OW36033   7.906   3.434   7.385
11379SOL    HW136034   7.974   3.369   7.366
11379SOL    HW236035   7.831   3.382   7.415
11380SOL     OW36036  14.845  12.799  13.847
11380SOL    HW136037   0.035  12.758  13.796
11380SOL    HW236038  14.765  12.755  13.818
11381SOL     OW36039   3.427  12.674   7.525
11381SOL    HW136040   3.368  12.733   7.572
11381SOL    HW236041   3.384  12.589   7.528
11382SOL     OW36042   2.053   2.377   6.160
11382SOL    HW136043   2.031   2.350   6.071
11382SOL    HW236044   2.082   2.468   6.151
11383SOL     OW36045   8.421  11.462  12.059
11383SOL    HW136046   8.478  11.392  12.027
11383SOL    HW236047   8.332  11.426  12.052
11384SOL     OW36048   6.560  10.524   6.006
11384SOL    HW136049   6.549  10.439   5.962
11384SOL    HW236050   6.496  10.580   5.963
11385SOL     OW36051   2.753   9.198   0.853
11385SOL    HW136052   2.844   9.221   0.866
11385SOL    HW236053   2.729   9.149   0.932
11386SOL     OW36054  12.124   8.242   4.339
11386SOL    HW136055  12.217   8.224   4.322
11386SOL    HW236056  12.121   8.336   4.359
11387SOL     OW36057   0.467   7.972   0.165
11387SOL    HW136058   0.513   7.970   0.249
11387SOL    HW236059   0.383   7.929   0.183
11388SOL     OW36060  12.991   8.786   3.604
11388SOL    HW136061  12.967   8.701   3.641
11388SOL    HW236062  12.934   8.796   3.528
11389SOL     OW36063  14.044   4.439   8.261
11389SOL    HW136064  14.124   4.387   8.264
11389SOL    HW236065  13.999   4.410   8.182
11390SOL     OW36066  10.674   6.198  14.463
11390SOL    HW136067  10.655   6.208  14.557
11390SOL    HW236068  10.590   6.172  14.425
11391SOL     OW36069   3.089   6.172  11.743
11391SOL    HW136070   3.165   6.184  11.800
11391SOL    HW236071   3.065   6.079  11.754
11392SOL     OW36072   6.072  14.354  13.134
11392SOL    HW136073   6.001  14.396  13.086
11392SOL    HW236074   6.035  14.273  13.167
11393SOL     OW36075   9.764   5.762   3.175
11393SOL    HW136076   9.711   5.774   3.254
11393SOL    HW236077   9.700   5.743   3.106
11394SOL     OW36078   2.172  14.125   0.607
11394SOL    HW136079   2.267  14.137   0.605
11394SOL    HW236080   2.140  14.170   0.529
11395SOL     OW36081  13.435   6.682  11.246
11395SOL    HW136082  13.442   6.660  11.153
11395SOL    HW236083  13.388   6.609  11.285
11396SOL     OW36084   4.319  10.201   5.719
11396SOL    HW136085   4.232  10.172   5.746
11396SOL    HW236086   4.305  10.243   5.634
11397SOL     OW36087  12.337   7.339   1.010
11397SOL    HW136088  12.369   7.262   1.056
11397SOL    HW236089  12.397   7.351   0.936
11398SOL     OW36090  12.376   8.488   9.105
11398SOL    HW136091  12.461   8.454   9.133
11398SOL    HW236092  12.383   8.497   9.010
11399SOL     OW36093   6.364  14.395   0.268
11399SOL    HW136094   6.357  14.330   0.338
11399SOL    HW236095   6.275  14.403   0.233
11400SOL     OW36096  13.477  12.747   6.509
11400SOL    HW136097  13.511  12.661   6.482
11400SOL    HW236098  13.516  12.761   6.595
11401SOL     OW36099   3.408   8.274   2.218
11401SOL    HW136100   3.325   8.286   2.172
11401SOL    HW236101   3.385   8.279   2.311
11402SOL     OW36102   3.660  12.092   6.111
11402SOL    HW136103   3.621  12.067   6.195
11402SOL    HW236104   3.751  12.113   6.133
11403SOL     OW36105   6.596   2.829   0.449
11403SOL    HW136106   6.526   2.796   0.505
11403SOL    HW236107   6.657   2.872   0.510
11404SOL     OW36108   4.137  12.972   8.883
11404SOL    HW136109   4.061  12.995   8.830
11404SOL    HW236110   4.172  12.893   8.843
11405SOL     OW36111  14.372  14.019   8.873
11405SOL    HW136112  14.386  13.939   8.923
11405SOL    HW236113  14.409  14.001   8.787
11406SOL     OW36114   1.996   6.876   9.375
11406SOL    HW136115   1.941   6.805   9.409
11406SOL    HW236116   1.955   6.955   9.410
11407SOL     OW36117   9.205  14.109  10.887
11407SOL    HW136118   9.178  14.191  10.846
11407SOL    HW236119   9.210  14.047  10.815
11408SOL     OW36120  14.830  10.854  12.680
11408SOL    HW136121   0.003  10.931  12.699
11408SOL    HW236122  14.805  10.864  12.588
11409SOL     OW36123   3.272   5.145  13.798
11409SOL    HW136124   3.268   5.210  13.867
11409SOL    HW236125   3.294   5.194  13.719
11410SOL     OW36126   8.278   7.555   2.162
11410SOL    HW136127   8.291   7.491   2.232
11410SOL    HW236128   8.311   7.511   2.083
11411SOL     OW36129  14.237   3.866   2.287
11411SOL    HW136130  14.239   3.864   2.383
11411SOL    HW236131  14.209   3.778   2.261
11412SOL     OW36132   1.138   4.971   3.918
11412SOL    HW136133   1.201   4.944   3.851
11412SOL    HW236134   1.191   4.987   3.996
11413SOL     OW36135  11.877   0.292   9.187
11413SOL    HW136136  11.930   0.339   9.251
11413SOL    HW236137  11.941   0.243   9.134
11414SOL     OW36138   2.827   9.907   6.742
11414SOL    HW136139   2.897   9.842   6.742
11414SOL    HW236140   2.864   9.983   6.785
11415SOL     OW36141   8.321   1.834  14.834
11415SOL    HW136142   8.348   1.917  14.873
11415SOL    HW236143   8.371   1.768   0.001
11416SOL     OW36144   1.867   9.627   4.117
11416SOL    HW136145   1.933   9.561   4.136
11416SOL    HW236146   1.886   9.699   4.178
11417SOL     OW36147  13.621   3.756   6.584
11417SOL    HW136148  13.638   3.662   6.589
11417SOL    HW236149  13.527   3.764   6.601
11418SOL     OW36150  11.003  11.166   2.522
11418SOL    HW136151  10.998  11.258   2.496
11418SOL    HW236152  10.912  11.136   2.522
11419SOL     OW36153  13.253  14.519   6.603
11419SOL    HW136154  13.189  14.582   6.636
11419SOL    HW236155  13.311  14.570   6.546
11420SOL     OW36156   5.795   3.358   1.581
11420SOL    HW136157   5.855   3.329   1.514
11420SOL    HW236158   5.712   3.370   1.536
11421SOL     OW36159  11.124   1.821   2.979
11421SOL    HW136160  11.197   1.818   2.918
11421SOL    HW236161  11.087   1.909   2.969
11422SOL     OW36162   3.036   0.548  10.627
11422SOL    HW136163   3.069   0.600  10.701
11422SOL    HW236164   2.942   0.544  10.641
11423SOL     OW36165   9.096   5.423   9.322
11423SOL    HW136166   9.030   5.389   9.382
11423SOL    HW236167   9.050   5.487   9.269
11424SOL     OW36168  14.163   6.287   8.020
11424SOL    HW136169  14.213   6.219   7.975
11424SOL    HW236170  14.074   6.253   8.025
11425SOL     OW36171  10.898   5.072   6.280
11425SOL    HW136172  10.986   5.037   6.294
11425SOL    HW236173  10.911   5.148   6.224
11426SOL     OW36174   6.136   6.550   4.799
11426SOL    HW136175   6.086   6.611   4.854
11426SOL    HW236176   6.115   6.576   4.709
11427SOL     OW36177   2.759   6.970   1.223
11427SOL    HW136178   2.798   7.024   1.155
11427SOL    HW236179   2.822   6.899   1.237
11428SOL     OW36180   7.600   6.115   9.154
11428SOL    HW136181   7.561   6.078   9.075
11428SOL    HW236182   7.653   6.045   9.190
11429SOL     OW36183   7.051  10.988   4.941
11429SOL    HW136184   7.004  10.915   4.983
11429SOL    HW236185   7.143  10.961   4.944
11430SOL     OW36186   4.307  11.596   1.467
11430SOL    HW136187   4.273  11.684   1.484
11430SOL    HW236188   4.243  11.556   1.408
11431SOL     OW36189  14.155   1.577   2.685
11431SOL    HW136190  14.092   1.649   2.679
11431SOL    HW236191  14.134   1.534   2.768
11432SOL     OW36192  10.293   6.805  14.784
11432SOL    HW136193  10.384   6.814  14.813
11432SOL    HW236194  10.286   6.862  14.708
11433SOL     OW36195   0.435   2.320   7.544
11433SOL    HW136196   0.369   2.387   7.526
11433SOL    HW236197   0.518   2.362   7.522
11434SOL     OW36198  11.412   8.903  11.402
11434SOL    HW136199  11.373   8.941  11.481
11434SOL    HW236200  11.374   8.815  11.396
11435SOL     OW36201  12.375   6.186   6.517
11435SOL    HW136202  12.410   6.115   6.464
11435SOL    HW236203  12.431   6.187   6.595
11436SOL     OW36204  14.125   9.309  12.820
11436SOL    HW136205  14.147   9.373  12.753
11436SOL    HW236206  14.102   9.230  12.772
11437SOL     OW36207  12.192  13.234   1.130
11437SOL    HW136208  12.115  13.190   1.092
11437SOL    HW236209  12.236  13.273   1.055
11438SOL     OW36210   7.288   7.912   5.763
11438SOL    HW136211   7.267   7.844   5.826
11438SOL    HW236212   7.381   7.900   5.744
11439SOL     OW36213   7.691  12.869   5.146
11439SOL    HW136214   7.761  12.926   5.177
11439SOL    HW236215   7.707  12.859   5.052
11440SOL     OW36216   4.584   4.498  12.159
11440SOL    HW136217   4.570   4.410  12.195
11440SOL    HW236218   4.574   4.486  12.065
11441SOL     OW36219   6.039  10.397   6.579
11441SOL    HW136220   5.997  10.323   6.623
11441SOL    HW236221   6.042  10.371   6.487
11442SOL     OW36222  13.482  10.277  12.615
11442SOL    HW136223  13.399  10.246  12.578
11442SOL    HW236224  13.549  10.242  12.555
11443SOL     OW36225   8.459   3.572  11.860
11443SOL    HW136226   8.429   3.651  11.905
11443SOL    HW236227   8.411   3.572  11.777
11444SOL     OW36228   5.115   0.885  14.534
11444SOL    HW136229   5.182   0.902  14.600
11444SOL    HW236230   5.038   0.931  14.566
11445SOL     OW36231   4.049   3.348   4.929
11445SOL    HW136232   4.010   3.320   5.011
11445SOL    HW236233   4.100   3.273   4.899
11446SOL     OW36234  14.609   5.387   6.402
11446SOL    HW136235  14.562   5.389   6.485
11446SOL    HW236236  14.544   5.362   6.337
11447SOL     OW36237   5.484  13.315  12.008
11447SOL    HW136238   5.426  13.352  11.942
11447SOL    HW236239   5.468  13.368  12.086
11448SOL     OW36240   1.282   5.668   4.975
11448SOL    HW136241   1.198   5.623   4.979
11448SOL    HW236242   1.318   5.645   4.889
11449SOL     OW36243   3.262  14.190   2.000
11449SOL    HW136244   3.263  14.261   2.065
11449SOL    HW236245   3.170  14.181   1.976
11450SOL     OW36246  11.735   3.419   4.773
11450SOL    HW136247  11.682   3.498   4.773
11450SOL    HW236248  11.686   3.356   4.825
11451SOL     OW36249   3.900   9.813   5.552
11451SOL    HW136250   3.911   9.807   5.646
11451SOL    HW236251   3.894   9.907   5.534
11452SOL     OW36252   5.807   6.892   1.207
11452SOL    HW136253   5.825   6.959   1.273
11452SOL    HW236254   5.818   6.937   1.123
11453SOL     OW36255  14.167   9.097   8.591
11453SOL    HW136256  14.257   9.065   8.595
11453SOL    HW236257  14.139   9.104   8.682
11454SOL     OW36258   9.536  13.988  12.855
11454SOL    HW136259   9.621  13.949  12.875
11454SOL    HW236260   9.485  13.979  12.935
11455SOL     OW36261   1.413   1.330  10.567
11455SOL    HW136262   1.482   1.265  10.556
11455SOL    HW236263   1.397   1.364  10.478
11456SOL     OW36264   5.956   3.342  12.151
11456SOL    HW136265   6.035   3.333  12.098
11456SOL    HW236266   5.953   3.262  12.204
11457SOL     OW36267  14.209   1.596   7.175
11457SOL    HW136268  14.131   1.615   7.228
11457SOL    HW236269  14.282   1.629   7.228
11458SOL     OW36270   4.929   9.814   6.683
11458SOL    HW136271   4.939   9.756   6.607
11458SOL    HW236272   5.000   9.789   6.742
11459SOL     OW36273   2.130   7.212   1.243
11459SOL    HW136274   2.174   7.261   1.174
11459SOL    HW236275   2.037   7.221   1.224
11460SOL     OW36276   2.818   9.062  10.655
11460SOL    HW136277   2.820   9.152  10.686
11460SOL    HW236278   2.807   9.009  10.734
11461SOL     OW36279  11.555   8.506  10.400
11461SOL    HW136280  11.632   8.561  10.383
11461SOL    HW236281  11.590   8.429  10.445
11462SOL     OW36282   5.749   5.433   1.823
11462SOL    HW136283   5.808   5.486   1.876
11462SOL    HW236284   5.672   5.489   1.810
11463SOL     OW36285   2.378  11.110  12.828
11463SOL    HW136286   2.322  11.185  12.849
11463SOL    HW236287   2.317  11.039  12.809
11464SOL     OW36288  10.036   1.632  10.823
11464SOL    HW136289   9.989   1.558  10.782
11464SOL    HW236290   9.984   1.709  10.800
11465SOL     OW36291   9.493   0.929   9.532
11465SOL    HW136292   9.426   0.951   9.468
11465SOL    HW236293   9.497   0.834   9.531
11466SOL     OW36294  14.187   5.606   9.890
11466SOL    HW136295  14.199   5.682   9.833
11466SOL    HW236296  14.136   5.544   9.836
11467SOL     OW36297  11.493  10.981   3.277
11467SOL    HW136298  11.469  11.060   3.228
11467SOL    HW236299  11.577  10.954   3.239
11468SOL     OW36300   0.755   7.494   8.940
11468SOL    HW136301   0.704   7.558   8.890
11468SOL    HW236302   0.762   7.532   9.027
11469SOL     OW36303  10.651  11.209   3.430
11469SOL    HW136304  10.594  11.134   3.413
11469SOL    HW236305  10.716  11.207   3.360
11470SOL     OW36306   0.629  10.613   4.333
11470SOL    HW136307   0.702  10.619   4.394
11470SOL    HW236308   0.660  10.658   4.254
11471SOL     OW36309  13.439   6.577   7.814
11471SOL    HW136310  13.528   6.610   7.801
11471SOL    HW236311  13.397   6.644   7.867
11472SOL     OW36312   1.085   1.947  14.697
11472SOL    HW136313   0.993   1.937  14.672
11472SOL    HW236314   1.082   1.960  14.792
11473SOL     OW36315   9.912   1.977   6.009
11473SOL    HW136316   9.935   1.913   6.076
11473SOL    HW236317   9.996   2.001   5.970
11474SOL     OW36318   3.419   4.903   9.664
11474SOL    HW136319   3.358   4.971   9.691
11474SOL    HW236320   3.399   4.829   9.722
11475SOL     OW36321   1.263  10.314   9.470
11475SOL    HW136322   1.224  10.396   9.439
11475SOL    HW236323   1.232  10.248   9.408
11476SOL     OW36324  14.240   6.465   0.821
11476SOL    HW136325  14.291   6.546   0.830
11476SOL    HW236326  14.301   6.396   0.850
11477SOL     OW36327   6.357  13.949   5.873
11477SOL    HW136328   6.274  13.911   5.902
11477SOL    HW236329   6.424  13.896   5.915
11478SOL     OW36330   6.925   4.525   9.050
11478SOL    HW136331   6.934   4.573   9.133
11478SOL    HW236332   6.832   4.526   9.032
11479SOL     OW36333   1.311  11.248  13.575
11479SOL    HW136334   1.310  11.157  13.605
11479SOL    HW236335   1.339  11.243  13.484
11480SOL     OW36336   8.079  13.053   6.638
11480SOL    HW136337   8.009  13.042   6.703
11480SOL    HW236338   8.061  12.986   6.572
11481SOL     OW36339   3.395  13.365  13.681
11481SOL    HW136340   3.374  13.417  13.759
11481SOL    HW236341   3.485  13.334  13.696
11482SOL     OW36342   2.589   9.758   1.527
11482SOL    HW136343   2.516   9.705   1.559
11482SOL    HW236344   2.547   9.836   1.491
11483SOL     OW36345   1.745   0.044   2.051
11483SOL    HW136346   1.710   0.095   2.124
11483SOL    HW236347   1.716  14.835   2.068
11484SOL     OW36348   5.115   5.813  11.845
11484SOL    HW136349   5.076   5.895  11.816
11484SOL    HW236350   5.209   5.826  11.835
11485SOL     OW36351   8.132   0.410  11.480
11485SOL    HW136352   8.103   0.501  11.484
11485SOL    HW236353   8.119   0.377  11.569
11486SOL     OW36354   0.331  12.458   4.366
11486SOL    HW136355   0.328  12.375   4.413
11486SOL    HW236356   0.242  12.471   4.334
11487SOL     OW36357   4.151   5.653  14.040
11487SOL    HW136358   4.217   5.687  13.980
11487SOL    HW236359   4.200   5.627  14.118
11488SOL     OW36360   6.442  14.835   5.138
11488SOL    HW136361   6.482  14.854   5.053
11488SOL    HW236362   6.391   0.033   5.158
11489SOL     OW36363   8.296   3.285   7.108
11489SOL    HW136364   8.249   3.309   7.188
11489SOL    HW236365   8.293   3.190   7.106
11490SOL     OW36366  11.245   3.930   2.946
11490SOL    HW136367  11.317   3.922   3.009
11490SOL    HW236368  11.286   3.970   2.869
11491SOL     OW36369   9.072  11.995  11.610
11491SOL    HW136370   9.163  12.021  11.600
11491SOL    HW236371   9.051  11.946  11.531
11492SOL     OW36372   1.629  11.831  11.389
11492SOL    HW136373   1.667  11.788  11.313
11492SOL    HW236374   1.664  11.783  11.464
11493SOL     OW36375  14.133   4.328   3.397
11493SOL    HW136376  14.222   4.297   3.379
11493SOL    HW236377  14.143   4.422   3.413
11494SOL     OW36378  10.722  13.581   3.383
11494SOL    HW136379  10.650  13.530   3.346
11494SOL    HW236380  10.711  13.668   3.344
11495SOL     OW36381   1.203   1.035   9.642
11495SOL    HW136382   1.195   1.117   9.690
11495SOL    HW236383   1.120   1.027   9.594
11496SOL     OW36384   6.238  11.938   6.986
11496SOL    HW136385   6.282  11.939   6.900
11496SOL    HW236386   6.291  11.998   7.039
11497SOL     OW36387  14.170   1.403  13.019
11497SOL    HW136388  14.167   1.358  12.934
11497SOL    HW236389  14.260   1.388  13.050
11498SOL     OW36390  13.310  14.241   1.447
11498SOL    HW136391  13.259  14.262   1.525
11498SOL    HW236392  13.398  14.221   1.480
11499SOL     OW36393   6.486  13.320  11.350
11499SOL    HW136394   6.438  13.336  11.269
11499SOL    HW236395   6.430  13.355  11.419
11500SOL     OW36396  13.212   5.382   3.138
11500SOL    HW136397  13.204   5.469   3.099
11500SOL    HW236398  13.150   5.381   3.210
11501SOL     OW36399   1.264   0.040   3.765
11501SOL    HW136400   1.333   0.100   3.736
11501SOL    HW236401   1.311  14.842   3.794
11502SOL     OW36402   8.039   0.168   7.402
11502SOL    HW136403   7.952   0.132   7.386
11502SOL    HW236404   8.025   0.241   7.463
11503SOL     OW36405   8.878   0.040   7.303
11503SOL    HW136406   8.789   0.073   7.294
11503SOL    HW236407   8.888   0.021   7.397
11504SOL     OW36408   1.196   8.308   8.251
11504SOL    HW136409   1.199   8.279   8.160
11504SOL    HW236410   1.174   8.401   8.245
11505SOL     OW36411  13.883  10.219   5.258
11505SOL    HW136412  13.894  10.124   5.270
11505SOL    HW236413  13.940  10.259   5.323
11506SOL     OW36414   9.351   0.495   6.814
11506SOL    HW136415   9.302   0.424   6.855
11506SOL    HW236416   9.333   0.487   6.721
11507SOL     OW36417  12.045  11.735   1.390
11507SOL    HW136418  11.988  11.659   1.377
11507SOL    HW236419  12.113  11.725   1.324
11508SOL     OW36420  10.049   0.846  13.463
11508SOL    HW136421  10.013   0.823  13.378
11508SOL    HW236422  10.137   0.807  13.463
11509SOL     OW36423   3.750  12.209   3.132
11509SOL    HW136424   3.773  12.275   3.198
11509SOL    HW236425   3.681  12.157   3.173
11510SOL     OW36426   1.001   9.250   9.764
11510SOL    HW136427   1.032   9.329   9.718
11510SOL    HW236428   0.906   9.258   9.764
11511SOL     OW36429  14.690   8.401   6.073
11511SOL    HW136430  14.660   8.320   6.032
11511SOL    HW236431  14.628   8.467   6.043
11512SOL     OW36432   0.173  12.530   7.079
11512SOL    HW136433   0.204  12.534   6.988
11512SOL    HW236434   0.126  12.612   7.091
11513SOL     OW36435  14.774  13.797   0.266
11513SOL    HW136436  14.773  13.888   0.240
11513SOL    HW236437  14.708  13.790   0.334
11514SOL     OW36438   3.537   0.218  11.314
11514SOL    HW136439   3.517   0.139  11.364
11514SOL    HW236440   3.565   0.186  11.229
11515SOL     OW36441   1.807   4.783   3.942
11515SOL    HW136442   1.819   4.804   4.035
11515SOL    HW236443   1.855   4.701   3.930
11516SOL     OW36444   1.461   1.114   3.601
11516SOL    HW136445   1.381   1.143   3.645
11516SOL    HW236446   1.511   1.195   3.588
11517SOL     OW36447   0.328   0.557  12.635
11517SOL    HW136448   0.291   0.482  12.589
11517SOL    HW236449   0.266   0.628  12.619
11518SOL     OW36450   3.863  13.045  11.903
11518SOL    HW136451   3.912  13.069  11.982
11518SOL    HW236452   3.787  12.996  11.935
11519SOL     OW36453   6.883   8.992  12.243
11519SOL    HW136454   6.959   9.047  12.226
11519SOL    HW236455   6.881   8.983  12.339
11520SOL     OW36456   1.096   6.773   6.027
11520SOL    HW136457   1.061   6.861   6.024
11520SOL    HW236458   1.065   6.731   5.947
11521SOL     OW36459   5.698   4.265   2.476
11521SOL    HW136460   5.650   4.257   2.558
11521SOL    HW236461   5.686   4.356   2.450
11522SOL     OW36462   7.701   3.608   7.332
11522SOL    HW136463   7.672   3.599   7.241
11522SOL    HW236464   7.759   3.532   7.346
11523SOL     OW36465  11.910   1.673   1.620
11523SOL    HW136466  11.973   1.744   1.608
11523SOL    HW236467  11.930   1.638   1.707
11524SOL     OW36468  14.832   7.513  11.852
11524SOL    HW136469  14.831   7.527  11.947
11524SOL    HW236470  14.759   7.453  11.835
11525SOL     OW36471   0.682   7.232   8.095
11525SOL    HW136472   0.676   7.309   8.038
11525SOL    HW236473   0.632   7.256   8.173
11526SOL     OW36474   8.904   9.087  11.920
11526SOL    HW136475   8.813   9.111  11.937
11526SOL    HW236476   8.954   9.165  11.946
11527SOL     OW36477  13.871   0.595   7.591
11527SOL    HW136478  13.882   0.503   7.617
11527SOL    HW236479  13.901   0.645   7.667
11528SOL     OW36480   9.033   2.961   8.261
11528SOL    HW136481   9.100   2.982   8.326
11528SOL    HW236482   9.078   2.906   8.197
11529SOL     OW36483  12.166  12.612  12.021
11529SOL    HW136484  12.204  12.678  12.079
11529SOL    HW236485  12.242  12.569  11.981
11530SOL     OW36486  12.540   0.894   1.983
11530SOL    HW136487  12.574   0.874   2.071
11530SOL    HW236488  12.519   0.809   1.945
11531SOL     OW36489   5.243   7.181  14.763
11531SOL    HW136490   5.260   7.153  14.853
11531SOL    HW236491   5.154   7.216  14.766
11532SOL     OW36492   9.157  13.313   6.225
11532SOL    HW136493   9.140  13.281   6.314
11532SOL    HW236494   9.112  13.251   6.168
11533SOL     OW36495   0.895   2.164   7.152
11533SOL    HW136496   0.824   2.193   7.210
11533SOL    HW236497   0.873   2.200   7.066
11534SOL     OW36498   3.268  11.045   9.824
11534SOL    HW136499   3.328  11.020   9.754
11534SOL    HW236500   3.312  11.016   9.904
11535SOL     OW36501   5.598  12.528   2.515
11535SOL    HW136502   5.646  12.490   2.441
11535SOL    HW236503   5.511  12.489   2.509
11536SOL     OW36504  11.385   1.570  11.615
11536SOL    HW136505  11.470   1.611  11.633
11536SOL    HW236506  11.321   1.638  11.636
11537SOL     OW36507  14.027   9.853  13.310
11537SOL    HW136508  14.049   9.940  13.344
11537SOL    HW236509  13.974   9.869  13.233
11538SOL     OW36510   4.857   9.305   7.943
11538SOL    HW136511   4.876   9.217   7.910
11538SOL    HW236512   4.856   9.360   7.864
11539SOL     OW36513  10.071   3.530   0.592
11539SOL    HW136514   9.997   3.552   0.536
11539SOL    HW236515  10.141   3.589   0.564
11540SOL     OW36516   4.910  10.399  12.706
11540SOL    HW136517   4.941  10.489  12.712
11540SOL    HW236518   4.845  10.401  12.635
11541SOL     OW36519   3.091  11.787   2.828
11541SOL    HW136520   3.046  11.704   2.841
11541SOL    HW236521   3.051  11.824   2.749
11542SOL     OW36522   0.850   8.629  12.907
11542SOL    HW136523   0.862   8.602  12.816
11542SOL    HW236524   0.903   8.708  12.916
11543SOL     OW36525   2.806   4.656   4.435
11543SOL    HW136526   2.815   4.563   4.457
11543SOL    HW236527   2.868   4.670   4.363
11544SOL     OW36528  11.891  11.083  10.771
11544SOL    HW136529  11.818  11.053  10.717
11544SOL    HW236530  11.851  11.103  10.856
11545SOL     OW36531  10.276   7.665   3.951
11545SOL    HW136532  10.197   7.713   3.976
11545SOL    HW236533  10.348   7.712   3.993
11546SOL     OW36534  13.881   0.207   7.941
11546SOL    HW136535  13.788   0.212   7.918
11546SOL    HW236536  13.883   0.225   8.035
11547SOL     OW36537  10.760  10.977  10.129
11547SOL    HW136538  10.763  10.908  10.062
11547SOL    HW236539  10.706  11.045  10.089
11548SOL     OW36540  13.023   8.623   2.950
11548SOL    HW136541  13.065   8.659   2.872
11548SOL    HW236542  13.081   8.552   2.977
11549SOL     OW36543  11.076  10.139  11.822
11549SOL    HW136544  11.025  10.061  11.798
11549SOL    HW236545  11.140  10.149  11.752
11550SOL     OW36546  14.433   3.109   4.055
11550SOL    HW136547  14.416   3.053   4.130
11550SOL    HW236548  14.430   3.198   4.090
11551SOL     OW36549  12.095   0.147   8.019
11551SOL    HW136550  12.162   0.205   7.985
11551SOL    HW236551  12.019   0.162   7.962
11552SOL     OW36552   5.218   0.281   8.758
11552SOL    HW136553   5.123   0.287   8.746
11552SOL    HW236554   5.229   0.259   8.850
11553SOL     OW36555  12.434  13.435  11.489
11553SOL    HW136556  12.415  13.341  11.489
11553SOL    HW236557  12.353  13.476  11.517
11554SOL     OW36558  12.075   9.987  12.482
11554SOL    HW136559  11.983  10.007  12.500
11554SOL    HW236560  12.073   9.929  12.406
11555SOL     OW36561   7.243   6.849   4.945
11555SOL    HW136562   7.285   6.925   4.987
11555SOL    HW236563   7.303   6.826   4.874
11556SOL     OW36564   6.610   2.892   8.833
11556SOL    HW136565   6.527   2.911   8.876
11556SOL    HW236566   6.638   2.809   8.872
11557SOL     OW36567   3.726   4.566   8.094
11557SOL    HW136568   3.771   4.564   8.010
11557SOL    HW236569   3.655   4.629   8.083
11558SOL     OW36570   0.122  11.139  13.369
11558SOL    HW136571   0.211  11.109  13.350
11558SOL    HW236572   0.126  11.234  13.358
11559SOL     OW36573  10.409   2.982   1.187
11559SOL    HW136574  10.499   2.997   1.215
11559SOL    HW236575  10.410   2.999   1.092
11560SOL     OW36576  13.243  13.619   9.704
11560SOL    HW136577  13.331  13.617   9.742
11560SOL    HW236578  13.211  13.530   9.716
11561SOL     OW36579  11.670   3.363  14.628
11561SOL    HW136580  11.714   3.409  14.557
11561SOL    HW236581  11.678   3.270  14.605
11562SOL     OW36582  11.709   2.265   0.716
11562SOL    HW136583  11.651   2.200   0.676
11562SOL    HW236584  11.740   2.318   0.643
11563SOL     OW36585   9.494  10.594  14.582
11563SOL    HW136586   9.519  10.556  14.498
11563SOL    HW236587   9.570  10.647  14.608
11564SOL     OW36588  10.986   3.159   1.570
11564SOL    HW136589  11.006   3.141   1.662
11564SOL    HW236590  10.935   3.083   1.542
11565SOL     OW36591   0.174   8.465   0.729
11565SOL    HW136592   0.234   8.464   0.654
11565SOL    HW236593   0.140   8.376   0.733
11566SOL     OW36594  14.338   9.252  10.612
11566SOL    HW136595  14.260   9.308  10.609
11566SOL    HW236596  14.361   9.248  10.705
11567SOL     OW36597   1.588  12.039   1.882
11567SOL    HW136598   1.544  11.967   1.925
11567SOL    HW236599   1.666  12.000   1.843
11568SOL     OW36600  14.579   3.648   3.792
11568SOL    HW136601  14.565   3.732   3.837
11568SOL    HW236602  14.628   3.595   3.854
11569SOL     OW36603  10.924   1.602   8.841
11569SOL    HW136604  10.938   1.667   8.771
11569SOL    HW236605  10.841   1.560   8.818
11570SOL     OW36606  14.248   0.136  12.775
11570SOL    HW136607  14.155   0.142  12.797
11570SOL    HW236608  14.253   0.163  12.683
11571SOL     OW36609  14.690   1.120   6.734
11571SOL    HW136610  14.783   1.137   6.716
11571SOL    HW236611  14.655   1.205   6.763
11572SOL     OW36612  11.297  10.966   6.008
11572SOL    HW136613  11.312  10.882   5.966
11572SOL    HW236614  11.384  10.996   6.033
11573SOL     OW36615   1.173   1.879   8.313
11573SOL    HW136616   1.241   1.945   8.326
11573SOL    HW236617   1.117   1.915   8.244
11574SOL     OW36618   9.068  12.217   1.093
11574SOL    HW136619   8.972  12.225   1.095
11574SOL    HW236620   9.087  12.177   1.008
11575SOL     OW36621  14.718   9.922  14.346
11575SOL    HW136622  14.784   9.895  14.282
11575SOL    HW236623  14.654   9.851  14.346
11576SOL     OW36624   4.346   5.203   5.394
11576SOL    HW136625   4.273   5.264   5.397
11576SOL    HW236626   4.372   5.191   5.485
11577SOL     OW36627   1.915  12.942  11.821
11577SOL    HW136628   1.991  12.885  11.838
11577SOL    HW236629   1.927  13.016  11.881
11578SOL     OW36630   9.096   0.811   9.023
11578SOL    HW136631   9.125   0.848   8.939
11578SOL    HW236632   9.122   0.718   9.018
11579SOL     OW36633   8.562  14.266  12.420
11579SOL    HW136634   8.652  14.233  12.424
11579SOL    HW236635   8.510  14.189  12.394
11580SOL     OW36636  10.199   3.666  10.936
11580SOL    HW136637  10.272   3.606  10.948
11580SOL    HW236638  10.154   3.635  10.858
11581SOL     OW36639  13.090   9.123   8.336
11581SOL    HW136640  13.169   9.158   8.376
11581SOL    HW236641  13.031   9.199   8.331
11582SOL     OW36642  11.715  12.536   4.733
11582SOL    HW136643  11.624  12.523   4.761
11582SOL    HW236644  11.735  12.626   4.760
11583SOL     OW36645  10.210  14.501   0.395
11583SOL    HW136646  10.215  14.574   0.457
11583SOL    HW236647  10.208  14.543   0.309
11584SOL     OW36648  11.148   5.283   4.548
11584SOL    HW136649  11.063   5.314   4.514
11584SOL    HW236650  11.135   5.280   4.643
11585SOL     OW36651   8.691  13.760   5.795
11585SOL    HW136652   8.606  13.750   5.752
11585SOL    HW236653   8.721  13.670   5.809
11586SOL     OW36654   5.169   3.134  13.995
11586SOL    HW136655   5.108   3.072  13.956
11586SOL    HW236656   5.125   3.164  14.075
11587SOL     OW36657  13.679   6.120   1.864
11587SOL    HW136658  13.587   6.129   1.886
11587SOL    HW236659  13.724   6.120   1.948
11588SOL     OW36660   2.821  12.799   6.988
11588SOL    HW136661   2.768  12.866   7.030
11588SOL    HW236662   2.871  12.845   6.920
11589SOL     OW36663  10.845  14.710  13.233
11589SOL    HW136664  10.905  14.745  13.168
11589SOL    HW236665  10.807  14.787  13.276
11590SOL     OW36666  14.406  11.287  12.203
11590SOL    HW136667  14.337  11.347  12.234
11590SOL    HW236668  14.360  11.204  12.189
11591SOL     OW36669   2.551   3.144   4.303
11591SOL    HW136670   2.561   3.183   4.216
11591SOL    HW236671   2.565   3.216   4.363
11592SOL     OW36672   8.795   9.902   2.389
11592SOL    HW136673   8.737   9.913   2.464
11592SOL    HW236674   8.882   9.924   2.423
11593SOL     OW36675   4.420   9.682  13.328
11593SOL    HW136676   4.448   9.748  13.264
11593SOL    HW236677   4.501   9.638  13.354
11594SOL     OW36678   8.743   3.963  11.590
11594SOL    HW136679   8.800   4.021  11.640
11594SOL    HW236680   8.729   3.888  11.648
11595SOL     OW36681   0.184   7.260  11.899
11595SOL    HW136682   0.258   7.276  11.957
11595SOL    HW236683   0.155   7.171  11.920
11596SOL     OW36684   8.505   7.770  12.875
11596SOL    HW136685   8.468   7.769  12.963
11596SOL    HW236686   8.561   7.692  12.872
11597SOL     OW36687   2.391   1.937   8.253
11597SOL    HW136688   2.363   1.942   8.345
11597SOL    HW236689   2.310   1.929   8.204
11598SOL     OW36690   5.241   0.411   0.699
11598SOL    HW136691   5.316   0.401   0.758
11598SOL    HW236692   5.169   0.365   0.743
11599SOL     OW36693  11.836   6.910   5.814
11599SOL    HW136694  11.905   6.860   5.769
11599SOL    HW236695  11.883   6.957   5.883
11600SOL     OW36696   5.010   9.469   1.891
11600SOL    HW136697   5.029   9.395   1.833
11600SOL    HW236698   5.027   9.436   1.979
11601SOL     OW36699   0.330  11.935  12.387
11601SOL    HW136700   0.324  11.898  12.299
11601SOL    HW236701   0.424  11.952  12.400
11602SOL     OW36702   0.470   1.175   5.993
11602SOL    HW136703   0.432   1.087   6.002
11602SOL    HW236704   0.545   1.162   5.935
11603SOL     OW36705   2.315   5.535  12.528
11603SOL    HW136706   2.411   5.530  12.526
11603SOL    HW236707   2.291   5.565  12.441
11604SOL     OW36708   2.026   9.098  10.726
11604SOL    HW136709   1.965   9.024  10.729
11604SOL    HW236710   1.974   9.170  10.691
11605SOL     OW36711   3.154   9.017   0.939
11605SOL    HW136712   3.193   9.047   1.021
11605SOL    HW236713   3.192   8.931   0.924
11606SOL     OW36714   3.640  12.488  10.031
11606SOL    HW136715   3.577  12.558  10.011
11606SOL    HW236716   3.628  12.472  10.125
11607SOL     OW36717  11.864   6.153   1.240
11607SOL    HW136718  11.793   6.090   1.234
11607SOL    HW236719  11.846   6.216   1.170
11608SOL     OW36720  10.488   6.813   2.690
11608SOL    HW136721  10.408   6.850   2.654
11608SOL    HW236722  10.556   6.876   2.665
11609SOL     OW36723  14.161   0.168   7.080
11609SOL    HW136724  14.248   0.129   7.086
11609SOL    HW236725  14.162   0.218   6.999
11610SOL     OW36726   7.319   0.268   3.021
11610SOL    HW136727   7.303   0.287   2.929
11610SOL    HW236728   7.365   0.345   3.054
11611SOL     OW36729   8.121   0.123  10.729
11611SOL    HW136730   8.069   0.201  10.745
11611SOL    HW236731   8.108   0.103  10.636
11612SOL     OW36732  14.307   6.008   6.377
11612SOL    HW136733  14.289   5.921   6.412
11612SOL    HW236734  14.221   6.042   6.353
11613SOL     OW36735   7.024   8.693   5.542
11613SOL    HW136736   7.111   8.711   5.577
11613SOL    HW236737   7.022   8.597   5.532
11614SOL     OW36738   9.416   4.576  12.855
11614SOL    HW136739   9.475   4.528  12.913
11614SOL    HW236740   9.366   4.633  12.915
11615SOL     OW36741  13.815  10.941  14.220
11615SOL    HW136742  13.830  10.999  14.295
11615SOL    HW236743  13.834  10.995  14.144
11616SOL     OW36744  12.350   5.115  10.973
11616SOL    HW136745  12.422   5.054  10.988
11616SOL    HW236746  12.369   5.156  10.888
11617SOL     OW36747  11.599  10.126   7.770
11617SOL    HW136748  11.596  10.034   7.796
11617SOL    HW236749  11.574  10.174   7.848
11618SOL     OW36750  14.417   0.362   1.120
11618SOL    HW136751  14.442   0.345   1.029
11618SOL    HW236752  14.489   0.415   1.155
11619SOL     OW36753   0.151  10.015   9.435
11619SOL    HW136754   0.154  10.065   9.353
11619SOL    HW236755   0.212   9.942   9.421
11620SOL     OW36756  12.461  11.006   5.663
11620SOL    HW136757  12.438  11.069   5.594
11620SOL    HW236758  12.397  11.022   5.733
11621SOL     OW36759   9.029   9.900   2.821
11621SOL    HW136760   9.015   9.972   2.884
11621SOL    HW236761   8.975   9.829   2.855
11622SOL     OW36762   6.896   8.975   0.491
11622SOL    HW136763   6.835   8.915   0.533
11622SOL    HW236764   6.964   8.919   0.454
11623SOL     OW36765   9.233   3.781  11.396
11623SOL    HW136766   9.239   3.876  11.393
11623SOL    HW236767   9.309   3.753  11.447
11624SOL     OW36768   7.323   1.788  12.189
11624SOL    HW136769   7.244   1.825  12.148
11624SOL    HW236770   7.305   1.694  12.196
11625SOL     OW36771  10.393   1.421   4.302
11625SOL    HW136772  10.410   1.376   4.219
11625SOL    HW236773  10.359   1.507   4.277
11626SOL     OW36774   3.817   3.331   2.133
11626SOL    HW136775   3.869   3.405   2.165
11626SOL    HW236776   3.876   3.256   2.138
11627SOL     OW36777   0.714   4.547   2.347
11627SOL    HW136778   0.794   4.584   2.309
11627SOL    HW236779   0.741   4.461   2.381
11628SOL     OW36780  11.232   2.477  11.318
11628SOL    HW136781  11.189   2.406  11.270
11628SOL    HW236782  11.184   2.556  11.292
11629SOL     OW36783  14.375   7.581  13.411
11629SOL    HW136784  14.446   7.550  13.355
11629SOL    HW236785  14.338   7.501  13.450
11630SOL     OW36786   7.135   9.084   2.853
11630SOL    HW136787   7.102   9.059   2.767
11630SOL    HW236788   7.096   9.170   2.870
11631SOL     OW36789   8.854   1.377  12.678
11631SOL    HW136790   8.870   1.471  12.674
11631SOL    HW236791   8.836   1.351  12.588
11632SOL     OW36792  10.604   6.980   5.124
11632SOL    HW136793  10.590   6.903   5.179
11632SOL    HW236794  10.692   7.010   5.146
11633SOL     OW36795   0.469   7.789   0.636
11633SOL    HW136796   0.425   7.726   0.693
11633SOL    HW236797   0.432   7.772   0.549
11634SOL     OW36798   0.643  14.341   1.310
11634SOL    HW136799   0.720  14.293   1.280
11634SOL    HW236800   0.660  14.432   1.287
11635SOL     OW36801  12.756   4.227   6.822
11635SOL    HW136802  12.663   4.209   6.836
11635SOL    HW236803  12.764   4.321   6.835
11636SOL     OW36804   8.627  11.915   7.211
11636SOL    HW136805   8.653  12.007   7.216
11636SOL    HW236806   8.533  11.915   7.224
11637SOL     OW36807   5.504  10.526   0.647
11637SOL    HW136808   5.504  10.493   0.557
11637SOL    HW236809   5.575  10.589   0.650
11638SOL     OW36810   5.351   2.454   6.709
11638SOL    HW136811   5.263   2.415   6.708
11638SOL    HW236812   5.371   2.466   6.802
11639SOL     OW36813   2.347  11.678   9.518
11639SOL    HW136814   2.278  11.688   9.584
11639SOL    HW236815   2.299  11.660   9.437
11640SOL     OW36816   8.208   4.595  14.288
11640SOL    HW136817   8.139   4.529  14.278
11640SOL    HW236818   8.189   4.659  14.219
11641SOL     OW36819   6.319  10.900   8.498
11641SOL    HW136820   6.393  10.915   8.557
11641SOL    HW236821   6.243  10.932   8.546
11642SOL     OW36822   9.370  12.297  12.132
11642SOL    HW136823   9.369  12.382  12.176
11642SOL    HW236824   9.357  12.319  12.039
11643SOL     OW36825  10.642  11.463   9.442
11643SOL    HW136826  10.723  11.436   9.398
11643SOL    HW236827  10.602  11.526   9.382
11644SOL     OW36828   8.788   3.604   3.494
11644SOL    HW136829   8.841   3.575   3.568
11644SOL    HW236830   8.787   3.700   3.501
11645SOL     OW36831   3.707   2.973   6.694
11645SOL    HW136832   3.742   3.052   6.735
11645SOL    HW236833   3.721   2.904   6.759
11646SOL     OW36834   4.434   3.008   4.676
11646SOL    HW136835   4.415   2.920   4.709
11646SOL    HW236836   4.467   3.056   4.752
11647SOL     OW36837   1.088   9.874   3.858
11647SOL    HW136838   1.043   9.817   3.920
11647SOL    HW236839   1.161   9.821   3.825
11648SOL     OW36840   3.850   5.003   9.295
11648SOL    HW136841   3.756   4.986   9.294
11648SOL    HW236842   3.862   5.066   9.366
11649SOL     OW36843   8.670   0.830   9.011
11649SOL    HW136844   8.620   0.837   9.093
11649SOL    HW236845   8.604   0.836   8.942
11650SOL     OW36846  12.220  11.554  14.260
11650SOL    HW136847  12.252  11.570  14.349
11650SOL    HW236848  12.190  11.640  14.230
11651SOL     OW36849  14.757   7.449  12.297
11651SOL    HW136850  14.663   7.436  12.284
11651SOL    HW236851  14.771   7.438  12.391
11652SOL     OW36852   0.371   4.752  11.263
11652SOL    HW136853   0.431   4.792  11.200
11652SOL    HW236854   0.426   4.730  11.338
11653SOL     OW36855   8.618   2.212   7.835
11653SOL    HW136856   8.523   2.209   7.840
11653SOL    HW236857   8.642   2.129   7.792
11654SOL     OW36858  10.395  11.499  10.293
11654SOL    HW136859  10.338  11.576  10.289
11654SOL    HW236860  10.337  11.427  10.315
11655SOL     OW36861   7.596   9.690   6.129
11655SOL    HW136862   7.544   9.684   6.049
11655SOL    HW236863   7.551   9.632   6.191
11656SOL     OW36864   9.412  10.423  11.697
11656SOL    HW136865   9.320  10.419  11.670
11656SOL    HW236866   9.457  10.467  11.625
11657SOL     OW36867   3.901   6.909   0.861
11657SOL    HW136868   3.879   6.818   0.882
11657SOL    HW236869   3.821   6.958   0.883
11658SOL     OW36870   0.364   3.924   2.242
11658SOL    HW136871   0.429   3.878   2.189
11658SOL    HW236872   0.416   3.977   2.303
11659SOL     OW36873   3.839   1.730   0.600
11659SOL    HW136874   3.884   1.783   0.535
11659SOL    HW236875   3.811   1.793   0.667
11660SOL     OW36876   0.683   8.113   2.087
11660SOL    HW136877   0.639   8.153   2.161
11660SOL    HW236878   0.626   8.130   2.012
11661SOL     OW36879   4.008   7.224  10.995
11661SOL    HW136880   3.914   7.213  11.003
11661SOL    HW236881   4.025   7.220  10.901
11662SOL     OW36882  14.051   0.410   2.979
11662SOL    HW136883  14.123   0.427   2.919
11662SOL    HW236884  14.091   0.411   3.066
11663SOL     OW36885   9.955   3.620   2.766
11663SOL    HW136886   9.895   3.557   2.807
11663SOL    HW236887   9.910   3.704   2.773
11664SOL     OW36888   2.707  13.073  14.872
11664SOL    HW136889   2.784  13.061  14.815
11664SOL    HW236890   2.715  13.163   0.023
11665SOL     OW36891   1.283   7.634   1.796
11665SOL    HW136892   1.360   7.622   1.740
11665SOL    HW236893   1.316   7.617   1.884
11666SOL     OW36894   4.704   0.477  12.463
11666SOL    HW136895   4.762   0.515  12.398
11666SOL    HW236896   4.694   0.386  12.436
11667SOL     OW36897  13.517   9.326   3.639
11667SOL    HW136898  13.545   9.278   3.561
11667SOL    HW236899  13.568   9.289   3.710
11668SOL     OW36900   7.854  11.603   3.013
11668SOL    HW136901   7.874  11.517   3.049
11668SOL    HW236902   7.935  11.653   3.023
11669SOL     OW36903   9.642   4.895  11.926
11669SOL    HW136904   9.731   4.926  11.908
11669SOL    HW236905   9.629   4.821  11.867
11670SOL     OW36906  12.380   2.830   2.221
11670SOL    HW136907  12.310   2.856   2.160
11670SOL    HW236908  12.401   2.910   2.269
11671SOL     OW36909   7.337   9.530  11.002
11671SOL    HW136910   7.405   9.580  11.047
11671SOL    HW236911   7.294   9.480  11.072
11672SOL     OW36912   2.783   8.271   0.849
11672SOL    HW136913   2.873   8.265   0.818
11672SOL    HW236914   2.730   8.276   0.769
11673SOL     OW36915   1.590   2.409   8.663
11673SOL    HW136916   1.602   2.487   8.609
11673SOL    HW236917   1.495   2.398   8.668
11674SOL     OW36918   2.794   7.636  10.194
11674SOL    HW136919   2.842   7.642  10.277
11674SOL    HW236920   2.862   7.625  10.128
11675SOL     OW36921   2.160   4.268   8.283
11675SOL    HW136922   2.122   4.289   8.198
11675SOL    HW236923   2.198   4.181   8.271
11676SOL     OW36924  10.042  14.586   3.977
11676SOL    HW136925   9.951  14.571   3.950
11676SOL    HW236926  10.039  14.666   4.030
11677SOL     OW36927  10.334   5.021   2.482
11677SOL    HW136928  10.272   4.952   2.503
11677SOL    HW236929  10.285   5.103   2.496
11678SOL     OW36930   4.055  13.546   2.596
11678SOL    HW136931   4.149  13.557   2.582
11678SOL    HW236932   4.039  13.453   2.584
11679SOL     OW36933  13.214  14.076   7.890
11679SOL    HW136934  13.250  14.087   7.978
11679SOL    HW236935  13.122  14.055   7.904
11680SOL     OW36936   8.878  14.133  11.216
11680SOL    HW136937   8.923  14.110  11.297
11680SOL    HW236938   8.852  14.224  11.228
11681SOL     OW36939   2.019   7.700   8.886
11681SOL    HW136940   2.110   7.695   8.915
11681SOL    HW236941   1.978   7.762   8.947
11682SOL     OW36942   0.778   9.730   8.155
11682SOL    HW136943   0.762   9.748   8.248
11682SOL    HW236944   0.722   9.655   8.135
11683SOL     OW36945   3.078   6.256  11.455
11683SOL    HW136946   3.016   6.222  11.390
11683SOL    HW236947   3.146   6.189  11.461
11684SOL     OW36948   7.675  10.504   0.411
11684SOL    HW136949   7.738  10.437   0.437
11684SOL    HW236950   7.625  10.523   0.491
11685SOL     OW36951   2.317  12.702   1.331
11685SOL    HW136952   2.314  12.770   1.398
11685SOL    HW236953   2.258  12.733   1.262
11686SOL     OW36954   3.021   9.873  12.957
11686SOL    HW136955   3.026   9.964  12.988
11686SOL    HW236956   3.034   9.820  13.035
11687SOL     OW36957   7.055  14.721   7.324
11687SOL    HW136958   7.149  14.707   7.311
11687SOL    HW236959   7.050  14.793   7.387
11688SOL     OW36960  13.405   0.862   7.503
11688SOL    HW136961  13.366   0.789   7.454
11688SOL    HW236962  13.330   0.915   7.531
11689SOL     OW36963  13.127   8.759   3.250
11689SOL    HW136964  13.193   8.770   3.182
11689SOL    HW236965  13.176   8.758   3.332
11690SOL     OW36966   2.706  11.563  14.419
11690SOL    HW136967   2.758  11.520  14.487
11690SOL    HW236968   2.615  11.547  14.444
11691SOL     OW36969   7.085   4.914   0.678
11691SOL    HW136970   7.131   4.914   0.594
11691SOL    HW236971   6.996   4.888   0.656
11692SOL     OW36972   0.326  11.896  11.176
11692SOL    HW136973   0.417  11.915  11.154
11692SOL    HW236974   0.314  11.933  11.264
11693SOL     OW36975  14.144   7.959  10.785
11693SOL    HW136976  14.231   7.919  10.787
11693SOL    HW236977  14.161   8.053  10.777
11694SOL     OW36978   1.735   6.188   6.453
11694SOL    HW136979   1.702   6.187   6.543
11694SOL    HW236980   1.753   6.096   6.434
11695SOL     OW36981  10.972  14.392   9.835
11695SOL    HW136982  10.885  14.363   9.864
11695SOL    HW236983  11.006  14.443   9.908
11696SOL     OW36984   5.028   4.238   0.059
11696SOL    HW136985   4.959   4.287   0.016
11696SOL    HW236986   5.017   4.257   0.152
11697SOL     OW36987   8.094  12.469  12.047
11697SOL    HW136988   8.056  12.398  11.996
11697SOL    HW236989   8.155  12.512  11.987
11698SOL     OW36990  13.039  10.768   9.025
11698SOL    HW136991  12.945  10.781   9.034
11698SOL    HW236992  13.051  10.673   9.028
11699SOL     OW36993   8.237  14.150  10.894
11699SOL    HW136994   8.277  14.067  10.917
11699SOL    HW236995   8.151  14.127  10.859
11700SOL     OW36996   4.062  12.059  10.633
11700SOL    HW136997   4.025  12.146  10.625
11700SOL    HW236998   4.023  12.023  10.713
11701SOL     OW36999  14.012  14.583   3.888
11701SOL    HW137000  14.104  14.568   3.868
11701SOL    HW237001  14.011  14.665   3.938
11702SOL     OW37002   1.911   3.571   3.345
11702SOL    HW137003   1.865   3.487   3.347
11702SOL    HW237004   1.935   3.588   3.436
11703SOL     OW37005   1.354  10.561   7.218
11703SOL    HW137006   1.400  10.480   7.198
11703SOL    HW237007   1.312  10.545   7.303
11704SOL     OW37008   3.291   4.270   7.046
11704SOL    HW137009   3.217   4.327   7.025
11704SOL    HW237010   3.257   4.213   7.116
11705SOL     OW37011   3.093   7.709   3.524
11705SOL    HW137012   3.135   7.788   3.556
11705SOL    HW237013   3.161   7.641   3.530
11706SOL     OW37014   6.161   3.991   9.750
11706SOL    HW137015   6.231   4.008   9.687
11706SOL    HW237016   6.087   3.962   9.697
11707SOL     OW37017  13.649   8.492   5.162
11707SOL    HW137018  13.724   8.538   5.198
11707SOL    HW237019  13.682   8.451   5.082
11708SOL     OW37020   0.905   1.540   0.684
11708SOL    HW137021   0.915   1.445   0.693
11708SOL    HW237022   0.811   1.554   0.675
11709SOL     OW37023   2.674   2.250   9.894
11709SOL    HW137024   2.701   2.265   9.985
11709SOL    HW237025   2.756   2.231   9.848
11710SOL     OW37026   7.822  14.728   6.524
11710SOL    HW137027   7.849  14.668   6.454
11710SOL    HW237028   7.858  14.813   6.499
11711SOL     OW37029   3.361   8.804   2.395
11711SOL    HW137030   3.433   8.801   2.458
11711SOL    HW237031   3.393   8.860   2.324
11712SOL     OW37032  12.068   7.568   7.695
11712SOL    HW137033  12.137   7.591   7.632
11712SOL    HW237034  11.987   7.581   7.646
11713SOL     OW37035   3.087   3.302  12.628
11713SOL    HW137036   3.051   3.234  12.686
11713SOL    HW237037   3.036   3.294  12.548
11714SOL     OW37038  11.674   4.697  14.379
11714SOL    HW137039  11.765   4.667  14.376
11714SOL    HW237040  11.681   4.792  14.369
11715SOL     OW37041  11.527  12.236   5.014
11715SOL    HW137042  11.508  12.159   5.068
11715SOL    HW237043  11.572  12.201   4.937
11716SOL     OW37044   6.807  14.628   9.667
11716SOL    HW137045   6.759  14.680   9.602
11716SOL    HW237046   6.747  14.556   9.689
11717SOL     OW37047  14.270  14.138   3.947
11717SOL    HW137048  14.246  14.180   3.864
11717SOL    HW237049  14.201  14.165   4.008
11718SOL     OW37050   5.548   6.558   3.565
11718SOL    HW137051   5.628   6.579   3.517
11718SOL    HW237052   5.499   6.501   3.505
11719SOL     OW37053   6.637   1.099   1.220
11719SOL    HW137054   6.571   1.116   1.288
11719SOL    HW237055   6.716   1.074   1.269
11720SOL     OW37056   6.517  10.302  13.759
11720SOL    HW137057   6.487  10.215  13.734
11720SOL    HW237058   6.582  10.286  13.828
11721SOL     OW37059   1.414   0.367   4.998
11721SOL    HW137060   1.490   0.312   4.979
11721SOL    HW237061   1.447   0.457   4.990
11722SOL     OW37062  12.035   9.489  12.214
11722SOL    HW137063  11.952   9.469  12.258
11722SOL    HW237064  12.016   9.479  12.121
11723SOL     OW37065  12.723  12.134   4.827
11723SOL    HW137066  12.803  12.084   4.812
11723SOL    HW237067  12.749  12.205   4.886
11724SOL     OW37068   0.851   7.129   8.773
11724SOL    HW137069   0.796   7.052   8.763
11724SOL    HW237070   0.848   7.149   8.866
11725SOL     OW37071   0.129  12.779   1.783
11725SOL    HW137072   0.193  12.714   1.812
11725SOL    HW237073   0.053  12.727   1.756
11726SOL     OW37074  14.239   8.072   2.791
11726SOL    HW137075  14.223   7.992   2.841
11726SOL    HW237076  14.330   8.065   2.762
11727SOL     OW37077  10.971   6.365   5.211
11727SOL    HW137078  10.933   6.362   5.123
11727SOL    HW237079  10.909   6.417   5.262
11728SOL     OW37080  12.750   2.999   6.831
11728SOL    HW137081  12.778   3.077   6.782
11728SOL    HW237082  12.811   2.994   6.904
11729SOL     OW37083  10.963   9.099   1.215
11729SOL    HW137084  10.954   9.161   1.143
11729SOL    HW237085  10.897   9.032   1.197
11730SOL     OW37086   6.134  10.280  11.959
11730SOL    HW137087   6.199  10.220  11.922
11730SOL    HW237088   6.060  10.225  11.982
11731SOL     OW37089   9.252   6.859   5.582
11731SOL    HW137090   9.182   6.805   5.546
11731SOL    HW237091   9.214   6.947   5.587
11732SOL     OW37092   5.363   9.674   5.780
11732SOL    HW137093   5.300   9.670   5.709
11732SOL    HW237094   5.312   9.656   5.859
11733SOL     OW37095   8.943   2.984   4.639
11733SOL    HW137096   8.969   2.935   4.561
11733SOL    HW237097   8.997   2.948   4.709
11734SOL     OW37098   1.236  10.176   8.855
11734SOL    HW137099   1.327  10.172   8.887
11734SOL    HW237100   1.220  10.269   8.840
11735SOL     OW37101   5.566   3.240   8.031
11735SOL    HW137102   5.596   3.330   8.014
11735SOL    HW237103   5.647   3.190   8.042
11736SOL     OW37104   2.106   8.015   7.379
11736SOL    HW137105   2.103   7.973   7.293
11736SOL    HW237106   2.047   7.963   7.433
11737SOL     OW37107  10.329   7.005  13.397
11737SOL    HW137108  10.412   7.020  13.352
11737SOL    HW237109  10.305   7.091  13.432
11738SOL     OW37110  10.088   6.542   9.665
11738SOL    HW137111  10.125   6.621   9.705
11738SOL    HW237112  10.004   6.529   9.710
11739SOL     OW37113  12.333   7.404  12.030
11739SOL    HW137114  12.396   7.399  12.102
11739SOL    HW237115  12.275   7.476  12.055
11740SOL     OW37116   2.180   4.346   2.320
11740SOL    HW137117   2.203   4.306   2.236
11740SOL    HW237118   2.228   4.429   2.320
11741SOL     OW37119   5.627   0.551  13.842
11741SOL    HW137120   5.564   0.599  13.788
11741SOL    HW237121   5.572   0.495  13.897
11742SOL     OW37122   1.512   3.465   9.333
11742SOL    HW137123   1.574   3.535   9.318
11742SOL    HW237124   1.483   3.477   9.423
11743SOL     OW37125   0.837   9.185   2.509
11743SOL    HW137126   0.856   9.092   2.498
11743SOL    HW237127   0.794   9.211   2.428
11744SOL     OW37128   7.386   2.354   0.820
11744SOL    HW137129   7.311   2.411   0.807
11744SOL    HW237130   7.367   2.277   0.766
11745SOL     OW37131   7.328  12.933   8.698
11745SOL    HW137132   7.397  12.877   8.734
11745SOL    HW237133   7.247  12.883   8.709
11746SOL     OW37134   6.377  12.185   7.744
11746SOL    HW137135   6.436  12.173   7.670
11746SOL    HW237136   6.400  12.271   7.779
11747SOL     OW37137   5.349   6.561  14.683
11747SOL    HW137138   5.280   6.627  14.691
11747SOL    HW237139   5.308   6.490  14.633
11748SOL     OW37140  12.706   6.683  14.105
11748SOL    HW137141  12.774   6.747  14.088
11748SOL    HW237142  12.723   6.652  14.194
11749SOL     OW37143   6.274   9.053   6.946
11749SOL    HW137144   6.355   9.009   6.972
11749SOL    HW237145   6.231   8.991   6.887
11750SOL     OW37146   6.783   0.693   2.747
11750SOL    HW137147   6.854   0.674   2.686
11750SOL    HW237148   6.723   0.618   2.739
11751SOL     OW37149  12.257   4.669  14.019
11751SOL    HW137150  12.293   4.731  13.955
11751SOL    HW237151  12.226   4.596  13.966
11752SOL     OW37152   7.550  11.654  11.060
11752SOL    HW137153   7.525  11.745  11.074
11752SOL    HW237154   7.479  11.617  11.009
11753SOL     OW37155   8.990   2.740  10.043
11753SOL    HW137156   8.986   2.828  10.079
11753SOL    HW237157   8.979   2.682  10.118
11754SOL     OW37158   4.907  13.528   0.712
11754SOL    HW137159   4.897  13.515   0.618
11754SOL    HW237160   4.998  13.505   0.729
11755SOL     OW37161   5.585  14.530   4.567
11755SOL    HW137162   5.641  14.593   4.611
11755SOL    HW237163   5.635  14.504   4.490
11756SOL     OW37164  14.841   4.740   4.166
11756SOL    HW137165  14.807   4.807   4.107
11756SOL    HW237166   0.022   4.788   4.222
11757SOL     OW37167   7.754   5.106   9.080
11757SOL    HW137168   7.744   5.035   9.017
11757SOL    HW237169   7.848   5.125   9.079
11758SOL     OW37170  11.998  10.757  13.804
11758SOL    HW137171  12.055  10.832  13.822
11758SOL    HW237172  11.911  10.796  13.790
11759SOL     OW37173  11.380  12.502   5.431
11759SOL    HW137174  11.441  12.443   5.386
11759SOL    HW237175  11.384  12.476   5.523
11760SOL     OW37176  10.475  14.674   2.357
11760SOL    HW137177  10.442  14.745   2.302
11760SOL    HW237178  10.566  14.663   2.329
11761SOL     OW37179   6.085   4.336  14.570
11761SOL    HW137180   6.107   4.409  14.629
11761SOL    HW237181   6.136   4.262  14.603
11762SOL     OW37182   7.605   2.373   5.917
11762SOL    HW137183   7.509   2.373   5.906
11762SOL    HW237184   7.637   2.423   5.842
11763SOL     OW37185   7.624   3.305  12.833
11763SOL    HW137186   7.717   3.309  12.811
11763SOL    HW237187   7.586   3.246  12.769
11764SOL     OW37188   8.965   2.894   7.622
11764SOL    HW137189   8.897   2.949   7.662
11764SOL    HW237190   9.027   2.956   7.584
11765SOL     OW37191  12.047   3.797  12.271
11765SOL    HW137192  11.953   3.778  12.281
11765SOL    HW237193  12.051   3.892  12.257
11766SOL     OW37194   2.577   6.766   8.224
11766SOL    HW137195   2.497   6.794   8.269
11766SOL    HW237196   2.561   6.782   8.132
11767SOL     OW37197   8.728   0.307   1.447
11767SOL    HW137198   8.745   0.254   1.369
11767SOL    HW237199   8.814   0.319   1.487
11768SOL     OW37200  13.722   8.010   0.712
11768SOL    HW137201  13.651   8.029   0.651
11768SOL    HW237202  13.750   8.095   0.745
11769SOL     OW37203  12.761   8.067   4.863
11769SOL    HW137204  12.811   8.145   4.885
11769SOL    HW237205  12.672   8.099   4.847
11770SOL     OW37206  12.726   6.824   1.792
11770SOL    HW137207  12.773   6.753   1.748
11770SOL    HW237208  12.635   6.815   1.763
11771SOL     OW37209  14.571   7.914   3.326
11771SOL    HW137210  14.512   7.978   3.286
11771SOL    HW237211  14.537   7.829   3.299
11772SOL     OW37212   6.846   8.845  14.023
11772SOL    HW137213   6.769   8.799  14.058
11772SOL    HW237214   6.827   8.857  13.930
11773SOL     OW37215  14.535   7.477  10.321
11773SOL    HW137216  14.541   7.468  10.416
11773SOL    HW237217  14.549   7.388  10.287
11774SOL     OW37218   2.577   4.477   7.491
11774SOL    HW137219   2.552   4.452   7.580
11774SOL    HW237220   2.498   4.517   7.454
11775SOL     OW37221   8.228   5.263  13.601
11775SOL    HW137222   8.264   5.222  13.523
11775SOL    HW237223   8.299   5.263  13.664
11776SOL     OW37224  12.648   5.205   2.517
11776SOL    HW137225  12.661   5.284   2.570
11776SOL    HW237226  12.720   5.206   2.455
11777SOL     OW37227  14.872  10.704   4.702
11777SOL    HW137228   0.022  10.620   4.666
11777SOL    HW237229  14.779  10.689   4.720
11778SOL     OW37230   7.289   6.938   9.369
11778SOL    HW137231   7.314   6.891   9.449
11778SOL    HW237232   7.194   6.930   9.365
11779SOL     OW37233   3.457   9.657   4.328
11779SOL    HW137234   3.508   9.732   4.297
11779SOL    HW237235   3.405   9.692   4.400
11780SOL     OW37236   7.413   3.432   6.984
11780SOL    HW137237   7.474   3.429   6.910
11780SOL    HW237238   7.469   3.453   7.060
11781SOL     OW37239  12.012   7.053   7.795
11781SOL    HW137240  12.037   7.145   7.804
11781SOL    HW237241  12.015   7.019   7.884
11782SOL     OW37242   3.668  14.200   3.598
11782SOL    HW137243   3.725  14.277   3.597
11782SOL    HW237244   3.599  14.222   3.662
11783SOL     OW37245   6.658  14.595  13.992
11783SOL    HW137246   6.746  14.579  13.957
11783SOL    HW237247   6.672  14.608  14.086
11784SOL     OW37248   7.940   7.543  11.346
11784SOL    HW137249   7.850   7.572  11.332
11784SOL    HW237250   7.982   7.616  11.392
11785SOL     OW37251  14.762  12.062  14.081
11785SOL    HW137252  14.770  12.068  13.986
11785SOL    HW237253  14.787  12.149  14.113
11786SOL     OW37254  11.967   0.114  14.697
11786SOL    HW137255  11.943   0.023  14.679
11786SOL    HW237256  12.062   0.113  14.708
11787SOL     OW37257   6.263   2.246   5.920
11787SOL    HW137258   6.335   2.186   5.898
11787SOL    HW237259   6.306   2.321   5.959
11788SOL     OW37260  14.417   1.656   2.708
11788SOL    HW137261  14.392   1.747   2.692
11788SOL    HW237262  14.338   1.606   2.689
11789SOL     OW37263  10.378   4.735   4.210
11789SOL    HW137264  10.368   4.745   4.115
11789SOL    HW237265  10.473   4.741   4.224
11790SOL     OW37266  11.223  12.590   9.385
11790SOL    HW137267  11.296  12.639   9.424
11790SOL    HW237268  11.145  12.641   9.407
11791SOL     OW37269   7.371   8.584   7.764
11791SOL    HW137270   7.440   8.518   7.755
11791SOL    HW237271   7.368   8.603   7.858
11792SOL     OW37272   0.293   5.193   3.646
11792SOL    HW137273   0.318   5.157   3.561
11792SOL    HW237274   0.247   5.121   3.689
11793SOL     OW37275  12.089   5.389   8.659
11793SOL    HW137276  12.141   5.468   8.642
11793SOL    HW237277  12.119   5.326   8.593
11794SOL     OW37278   5.438   5.421  13.575
11794SOL    HW137279   5.394   5.337  13.563
11794SOL    HW237280   5.376   5.486  13.542
11795SOL     OW37281  13.563   9.850  13.080
11795SOL    HW137282  13.651   9.888  13.073
11795SOL    HW237283  13.547   9.812  12.994
11796SOL     OW37284   5.867   5.287   1.547
11796SOL    HW137285   5.946   5.263   1.596
11796SOL    HW237286   5.796   5.242   1.593
11797SOL     OW37287   7.727   0.066   7.348
11797SOL    HW137288   7.722   0.048   7.254
11797SOL    HW237289   7.777  14.873   7.384
11798SOL     OW37290   7.992   2.763   6.487
11798SOL    HW137291   8.083   2.753   6.458
11798SOL    HW237292   7.997   2.823   6.561
11799SOL     OW37293   2.684   0.454   6.148
11799SOL    HW137294   2.628   0.520   6.188
11799SOL    HW237295   2.729   0.413   6.222
11800SOL     OW37296  14.797   7.887   7.672
11800SOL    HW137297  14.749   7.829   7.731
11800SOL    HW237298  14.730   7.937   7.627
11801SOL     OW37299  10.725   2.727   8.501
11801SOL    HW137300  10.722   2.735   8.597
11801SOL    HW237301  10.813   2.757   8.478
11802SOL     OW37302  12.984  13.909   5.257
11802SOL    HW137303  13.062  13.959   5.283
11802SOL    HW237304  12.940  13.966   5.194
11803SOL     OW37305  11.767  12.606  13.233
11803SOL    HW137306  11.674  12.591  13.218
11803SOL    HW237307  11.781  12.581  13.324
11804SOL     OW37308   4.098   2.165  11.895
11804SOL    HW137309   4.132   2.091  11.845
11804SOL    HW237310   4.159   2.236  11.878
11805SOL     OW37311  13.744   5.572  11.225
11805SOL    HW137312  13.659   5.532  11.243
11805SOL    HW237313  13.807   5.509  11.262
11806SOL     OW37314   5.149  10.363   0.653
11806SOL    HW137315   5.188  10.277   0.669
11806SOL    HW237316   5.197  10.423   0.710
11807SOL     OW37317   2.365   5.530   4.403
11807SOL    HW137318   2.305   5.546   4.331
11807SOL    HW237319   2.312   5.540   4.482
11808SOL     OW37320  14.147  12.739   8.519
11808SOL    HW137321  14.103  12.660   8.488
11808SOL    HW237322  14.185  12.714   8.603
11809SOL     OW37323   2.380  11.430   3.625
11809SOL    HW137324   2.336  11.514   3.617
11809SOL    HW237325   2.369  11.405   3.717
11810SOL     OW37326   9.538   8.086  12.822
11810SOL    HW137327   9.509   8.038  12.745
11810SOL    HW237328   9.476   8.158  12.831
11811SOL     OW37329  10.393   2.169   7.939
11811SOL    HW137330  10.352   2.173   7.852
11811SOL    HW237331  10.327   2.204   7.999
11812SOL     OW37332   7.694   5.436  12.357
11812SOL    HW137333   7.740   5.353  12.348
11812SOL    HW237334   7.614   5.414  12.404
11813SOL     OW37335  12.318   8.180  13.729
11813SOL    HW137336  12.369   8.223  13.798
11813SOL    HW237337  12.313   8.245  13.659
11814SOL     OW37338  11.256  13.760   0.136
11814SOL    HW137339  11.196  13.745   0.209
11814SOL    HW237340  11.204  13.746   0.057
11815SOL     OW37341   1.302   5.031   5.971
11815SOL    HW137342   1.365   5.101   5.949
11815SOL    HW237343   1.284   4.988   5.887
11816SOL     OW37344  13.305  14.516   8.897
11816SOL    HW137345  13.385  14.464   8.889
11816SOL    HW237346  13.237  14.452   8.916
11817SOL     OW37347  13.170  12.878  14.860
11817SOL    HW137348  13.237  12.819  14.826
11817SOL    HW237349  13.157  12.850   0.071
11818SOL     OW37350   2.343  14.724  13.508
11818SOL    HW137351   2.266  14.708  13.563
11818SOL    HW237352   2.318  14.691  13.422
11819SOL     OW37353   6.189   0.181   0.759
11819SOL    HW137354   6.243   0.259   0.747
11819SOL    HW237355   6.185   0.140   0.673
11820SOL     OW37356  10.078  11.039  14.330
11820SOL    HW137357  10.045  10.953  14.357
11820SOL    HW237358  10.098  11.084  14.412
11821SOL     OW37359   5.323  12.159   3.634
11821SOL    HW137360   5.261  12.205   3.577
11821SOL    HW237361   5.292  12.069   3.636
11822SOL     OW37362   1.238   2.557  10.640
11822SOL    HW137363   1.271   2.624  10.700
11822SOL    HW237364   1.185   2.499  10.694
11823SOL     OW37365  11.832  12.406   7.182
11823SOL    HW137366  11.821  12.389   7.088
11823SOL    HW237367  11.791  12.331   7.225
11824SOL     OW37368   1.263   8.985  14.775
11824SOL    HW137369   1.343   8.958  14.821
11824SOL    HW237370   1.286   9.068  14.733
11825SOL     OW37371  12.489   7.218   7.251
11825SOL    HW137372  12.525   7.228   7.163
11825SOL    HW237373  12.525   7.292   7.300
11826SOL     OW37374   3.103  11.990  11.224
11826SOL    HW137375   3.112  11.945  11.308
11826SOL    HW237376   3.120  11.922  11.159
11827SOL     OW37377  13.544   4.240  11.395
11827SOL    HW137378  13.607   4.305  11.426
11827SOL    HW237379  13.485   4.226  11.470
11828SOL     OW37380   1.422   0.922  13.176
11828SOL    HW137381   1.451   0.831  13.173
11828SOL    HW237382   1.427   0.947  13.268
11829SOL     OW37383   8.255  14.244   9.252
11829SOL    HW137384   8.184  14.183   9.272
11829SOL    HW237385   8.213  14.330   9.248
11830SOL     OW37386   1.469   4.490   4.797
11830SOL    HW137387   1.478   4.419   4.861
11830SOL    HW237388   1.529   4.557   4.828
11831SOL     OW37389   0.869   1.032   8.235
11831SOL    HW137390   0.952   1.014   8.279
11831SOL    HW237391   0.872   1.126   8.215
11832SOL     OW37392  14.175   6.336  13.217
11832SOL    HW137393  14.142   6.403  13.157
11832SOL    HW237394  14.195   6.384  13.298
11833SOL     OW37395  14.196   3.279  11.372
11833SOL    HW137396  14.187   3.341  11.444
11833SOL    HW237397  14.283   3.294  11.337
11834SOL     OW37398   3.544   2.388   1.180
11834SOL    HW137399   3.602   2.363   1.252
11834SOL    HW237400   3.543   2.484   1.183
11835SOL     OW37401   1.599  10.541   3.913
11835SOL    HW137402   1.612  10.635   3.904
11835SOL    HW237403   1.677  10.502   3.874
11836SOL     OW37404   1.806  10.744   1.887
11836SOL    HW137405   1.888  10.752   1.840
11836SOL    HW237406   1.753  10.684   1.835
11837SOL     OW37407   4.203   8.878   4.111
11837SOL    HW137408   4.111   8.852   4.104
11837SOL    HW237409   4.236   8.827   4.185
11838SOL     OW37410   7.754   1.918  13.952
11838SOL    HW137411   7.798   2.000  13.930
11838SOL    HW237412   7.814   1.850  13.922
11839SOL     OW37413   9.607  12.557   2.651
11839SOL    HW137414   9.569  12.521   2.731
11839SOL    HW237415   9.699  12.571   2.672
11840SOL     OW37416   0.027   6.888   9.991
11840SOL    HW137417   0.074   6.925   9.916
11840SOL    HW237418  14.830   6.846   9.952
11841SOL     OW37419   4.336   4.005  13.243
11841SOL    HW137420   4.296   4.038  13.163
11841SOL    HW237421   4.427   4.032  13.237
11842SOL     OW37422  11.244  14.706   0.429
11842SOL    HW137423  11.308  14.635   0.432
11842SOL    HW237424  11.159  14.663   0.442
11843SOL     OW37425   7.226   0.909   3.522
11843SOL    HW137426   7.310   0.955   3.526
11843SOL    HW237427   7.249   0.816   3.516
11844SOL     OW37428  14.781   3.864  11.583
11844SOL    HW137429  14.773   3.942  11.528
11844SOL    HW237430  14.874   3.842  11.578
11845SOL     OW37431   5.060   5.250   3.432
11845SOL    HW137432   5.111   5.282   3.507
11845SOL    HW237433   5.066   5.155   3.439
11846SOL     OW37434   8.401   5.255  11.459
11846SOL    HW137435   8.377   5.232  11.370
11846SOL    HW237436   8.445   5.176  11.493
11847SOL     OW37437  14.540  10.915  10.810
11847SOL    HW137438  14.521  10.994  10.861
11847SOL    HW237439  14.508  10.843  10.865
11848SOL     OW37440   0.112   5.740  12.479
11848SOL    HW137441   0.125   5.650  12.510
11848SOL    HW237442   0.200   5.779  12.483
11849SOL     OW37443   5.520  13.811   5.527
11849SOL    HW137444   5.497  13.785   5.438
11849SOL    HW237445   5.597  13.867   5.517
11850SOL     OW37446  14.250   4.264   2.078
11850SOL    HW137447  14.306   4.326   2.032
11850SOL    HW237448  14.166   4.310   2.088
11851SOL     OW37449   3.802  10.336   8.463
11851SOL    HW137450   3.843  10.305   8.383
11851SOL    HW237451   3.709  10.345   8.440
11852SOL     OW37452   8.270  14.760   2.084
11852SOL    HW137453   8.283  14.672   2.049
11852SOL    HW237454   8.359  14.795   2.096
11853SOL     OW37455   2.789   7.449   4.515
11853SOL    HW137456   2.788   7.404   4.431
11853SOL    HW237457   2.786   7.379   4.580
11854SOL     OW37458  12.065   5.024  12.984
11854SOL    HW137459  12.080   5.117  12.999
11854SOL    HW237460  11.975   5.008  13.014
11855SOL     OW37461   7.471   1.038  13.056
11855SOL    HW137462   7.395   0.994  13.018
11855SOL    HW237463   7.460   1.130  13.030
11856SOL     OW37464  13.300   5.765   9.270
11856SOL    HW137465  13.263   5.842   9.312
11856SOL    HW237466  13.394   5.769   9.291
11857SOL     OW37467   4.212  14.495   5.123
11857SOL    HW137468   4.285  14.545   5.159
11857SOL    HW237469   4.149  14.489   5.195
11858SOL     OW37470   8.986   4.464   9.222
11858SOL    HW137471   8.892   4.458   9.237
11858SOL    HW237472   9.012   4.376   9.196
11859SOL     OW37473   1.348   7.651  11.082
11859SOL    HW137474   1.422   7.693  11.127
11859SOL    HW237475   1.314   7.719  11.024
11860SOL     OW37476   7.832   9.902   6.994
11860SOL    HW137477   7.836   9.914   7.089
11860SOL    HW237478   7.860   9.987   6.958
11861SOL     OW37479  10.204   3.837   4.611
11861SOL    HW137480  10.269   3.768   4.599
11861SOL    HW237481  10.158   3.841   4.527
11862SOL     OW37482   6.397   9.594   9.642
11862SOL    HW137483   6.336   9.653   9.687
11862SOL    HW237484   6.438   9.544   9.712
11863SOL     OW37485   7.076   8.212   5.955
11863SOL    HW137486   7.054   8.124   5.987
11863SOL    HW237487   7.171   8.218   5.965
11864SOL     OW37488   1.312   6.726   7.642
11864SOL    HW137489   1.346   6.778   7.570
11864SOL    HW237490   1.383   6.667   7.665
11865SOL     OW37491   1.002  10.122  11.486
11865SOL    HW137492   1.004  10.214  11.460
11865SOL    HW237493   0.974  10.124  11.578
11866SOL     OW37494  11.030   5.447  14.479
11866SOL    HW137495  10.940   5.420  14.458
11866SOL    HW237496  11.084   5.398  14.418
11867SOL     OW37497   8.560   5.506   8.775
11867SOL    HW137498   8.519   5.501   8.689
11867SOL    HW237499   8.616   5.428   8.780
11868SOL     OW37500   4.997   3.307  11.220
11868SOL    HW137501   5.037   3.280  11.303
11868SOL    HW237502   5.052   3.380  11.190
11869SOL     OW37503   8.195   0.003   4.525
11869SOL    HW137504   8.159  14.851   4.442
11869SOL    HW237505   8.123  14.872   4.588
11870SOL     OW37506   7.843  13.137   0.918
11870SOL    HW137507   7.902  13.168   0.850
11870SOL    HW237508   7.898  13.132   0.996
11871SOL     OW37509  11.924   5.468   2.566
11871SOL    HW137510  12.005   5.441   2.609
11871SOL    HW237511  11.911   5.559   2.594
11872SOL     OW37512  13.411  10.319   4.596
11872SOL    HW137513  13.484  10.343   4.653
11872SOL    HW237514  13.341  10.293   4.656
11873SOL     OW37515  12.020   7.284   9.415
11873SOL    HW137516  12.019   7.233   9.334
11873SOL    HW237517  11.969   7.363   9.394
11874SOL     OW37518   2.116   3.302   8.205
11874SOL    HW137519   2.055   3.347   8.147
11874SOL    HW237520   2.191   3.362   8.212
11875SOL     OW37521  12.798   8.794  11.985
11875SOL    HW137522  12.796   8.864  11.919
11875SOL    HW237523  12.745   8.724  11.947
11876SOL     OW37524   2.975   3.714  13.648
11876SOL    HW137525   2.908   3.660  13.606
11876SOL    HW237526   3.010   3.768  13.577
11877SOL     OW37527  11.873   0.453  13.887
11877SOL    HW137528  11.820   0.390  13.937
11877SOL    HW237529  11.915   0.401  13.819
11878SOL     OW37530   0.186  13.517   3.853
11878SOL    HW137531   0.112  13.460   3.872
11878SOL    HW237532   0.170  13.596   3.905
11879SOL     OW37533  11.051   3.244  14.435
11879SOL    HW137534  11.082   3.219  14.348
11879SOL    HW237535  10.955   3.244  14.426
11880SOL     OW37536   2.047   7.036   3.635
11880SOL    HW137537   2.047   6.943   3.615
11880SOL    HW237538   2.134   7.066   3.611
11881SOL     OW37539   8.009   5.423  13.274
11881SOL    HW137540   8.054   5.508  13.269
11881SOL    HW237541   7.930   5.435  13.221
11882SOL     OW37542   4.396  12.407  12.406
11882SOL    HW137543   4.468  12.376  12.460
11882SOL    HW237544   4.357  12.327  12.370
11883SOL     OW37545   0.591   2.562   0.477
11883SOL    HW137546   0.670   2.535   0.522
11883SOL    HW237547   0.542   2.481   0.462
11884SOL     OW37548   6.491   5.389  10.535
11884SOL    HW137549   6.478   5.400  10.629
11884SOL    HW237550   6.440   5.459  10.494
11885SOL     OW37551  14.606  12.064  13.149
11885SOL    HW137552  14.569  12.021  13.072
11885SOL    HW237553  14.622  12.154  13.120
11886SOL     OW37554   3.798   7.632  10.953
11886SOL    HW137555   3.814   7.612  11.045
11886SOL    HW237556   3.870   7.589  10.906
11887SOL     OW37557   8.329   6.820   3.222
11887SOL    HW137558   8.359   6.787   3.137
11887SOL    HW237559   8.237   6.841   3.208
11888SOL     OW37560   2.510   6.436  14.462
11888SOL    HW137561   2.480   6.400  14.379
11888SOL    HW237562   2.455   6.513  14.477
11889SOL     OW37563   6.834  14.743   7.568
11889SOL    HW137564   6.900  14.795   7.613
11889SOL    HW237565   6.793  14.805   7.507
11890SOL     OW37566   3.458   6.310   1.548
11890SOL    HW137567   3.498   6.231   1.583
11890SOL    HW237568   3.452   6.369   1.623
11891SOL     OW37569   6.122   7.271  11.458
11891SOL    HW137570   6.095   7.352  11.501
11891SOL    HW237571   6.139   7.210  11.530
11892SOL     OW37572  12.617   2.400   1.325
11892SOL    HW137573  12.538   2.453   1.316
11892SOL    HW237574  12.617   2.344   1.247
11893SOL     OW37575  11.541   9.317   9.160
11893SOL    HW137576  11.526   9.373   9.084
11893SOL    HW237577  11.460   9.266   9.168
11894SOL     OW37578  10.156  11.630   9.118
11894SOL    HW137579  10.131  11.722   9.125
11894SOL    HW237580  10.097  11.584   9.178
11895SOL     OW37581   9.884  10.718  13.603
11895SOL    HW137582   9.881  10.809  13.631
11895SOL    HW237583   9.875  10.721  13.507
11896SOL     OW37584   7.444   5.755  13.177
11896SOL    HW137585   7.463   5.693  13.107
11896SOL    HW237586   7.529   5.776  13.215
11897SOL     OW37587   4.076   0.168  13.550
11897SOL    HW137588   4.101   0.152  13.640
11897SOL    HW237589   3.996   0.219  13.556
11898SOL     OW37590   0.412   6.853   5.846
11898SOL    HW137591   0.466   6.898   5.781
11898SOL    HW237592   0.467   6.849   5.924
11899SOL     OW37593  13.905  14.114  11.683
11899SOL    HW137594  13.959  14.188  11.656
11899SOL    HW237595  13.937  14.091  11.770
11900SOL     OW37596   2.904  13.216  10.895
11900SOL    HW137597   2.916  13.242  10.804
11900SOL    HW237598   2.834  13.272  10.927
11901SOL     OW37599   3.518   3.748   9.847
11901SOL    HW137600   3.579   3.694   9.896
11901SOL    HW237601   3.436   3.743   9.897
11902SOL     OW37602   6.816  12.593  14.062
11902SOL    HW137603   6.777  12.510  14.037
11902SOL    HW237604   6.797  12.653  13.990
11903SOL     OW37605   7.888  11.325   8.829
11903SOL    HW137606   7.839  11.378   8.892
11903SOL    HW237607   7.903  11.384   8.755
11904SOL     OW37608   9.278   5.561   4.169
11904SOL    HW137609   9.307   5.557   4.078
11904SOL    HW237610   9.349   5.607   4.214
11905SOL     OW37611  10.323   4.589  10.254
11905SOL    HW137612  10.249   4.535  10.225
11905SOL    HW237613  10.299   4.678  10.228
11906SOL     OW37614  12.198  12.315  14.455
11906SOL    HW137615  12.157  12.242  14.408
11906SOL    HW237616  12.279  12.277  14.491
11907SOL     OW37617   6.668   5.681   0.098
11907SOL    HW137618   6.658   5.610   0.036
11907SOL    HW237619   6.585   5.685   0.145
11908SOL     OW37620   4.714   6.206  12.522
11908SOL    HW137621   4.730   6.200  12.616
11908SOL    HW237622   4.793   6.248  12.487
11909SOL     OW37623   0.598  12.708   3.255
11909SOL    HW137624   0.615  12.648   3.327
11909SOL    HW237625   0.532  12.768   3.289
11910SOL     OW37626  11.766   0.803   8.781
11910SOL    HW137627  11.720   0.807   8.697
11910SOL    HW237628  11.699   0.776   8.844
11911SOL     OW37629  14.490   6.573  13.795
11911SOL    HW137630  14.530   6.563  13.882
11911SOL    HW237631  14.504   6.664  13.772
11912SOL     OW37632  14.096  12.825   2.126
11912SOL    HW137633  14.143  12.908   2.122
11912SOL    HW237634  14.163  12.760   2.144
11913SOL     OW37635  13.834   4.156   9.038
11913SOL    HW137636  13.760   4.121   8.987
11913SOL    HW237637  13.800   4.237   9.076
11914SOL     OW37638   0.821  11.929   0.339
11914SOL    HW137639   0.777  11.958   0.419
11914SOL    HW237640   0.892  11.992   0.326
11915SOL     OW37641   8.020   6.651  12.780
11915SOL    HW137642   8.078   6.727  12.785
11915SOL    HW237643   8.071   6.580  12.819
11916SOL     OW37644   8.908  14.133   5.621
11916SOL    HW137645   8.886  14.220   5.587
11916SOL    HW237646   8.981  14.104   5.567
11917SOL     OW37647   1.698   7.436   5.582
11917SOL    HW137648   1.749   7.500   5.533
11917SOL    HW237649   1.694   7.360   5.524
11918SOL     OW37650   6.205   2.085  13.684
11918SOL    HW137651   6.145   2.158  13.669
11918SOL    HW237652   6.281   2.105  13.629
11919SOL     OW37653  11.397  10.631   0.615
11919SOL    HW137654  11.330  10.687   0.654
11919SOL    HW237655  11.372  10.542   0.640
11920SOL     OW37656  13.966   8.155   2.632
11920SOL    HW137657  14.040   8.145   2.691
11920SOL    HW237658  13.993   8.112   2.550
11921SOL     OW37659   2.100  14.024  12.102
11921SOL    HW137660   2.007  14.004  12.086
11921SOL    HW237661   2.123  14.086  12.032
11922SOL     OW37662   6.061  12.877   1.703
11922SOL    HW137663   5.998  12.815   1.666
11922SOL    HW237664   6.026  12.900   1.788
11923SOL     OW37665  14.531  11.800  10.704
11923SOL    HW137666  14.603  11.760  10.753
11923SOL    HW237667  14.452  11.765  10.746
11924SOL     OW37668   3.600   5.335   5.653
11924SOL    HW137669   3.670   5.395   5.677
11924SOL    HW237670   3.583   5.354   5.560
11925SOL     OW37671   2.757   9.692   7.052
11925SOL    HW137672   2.766   9.756   6.981
11925SOL    HW237673   2.794   9.736   7.128
11926SOL     OW37674   3.287   4.365   3.062
11926SOL    HW137675   3.370   4.331   3.028
11926SOL    HW237676   3.261   4.433   3.000
11927SOL     OW37677   4.028   6.618   7.582
11927SOL    HW137678   4.072   6.550   7.633
11927SOL    HW237679   4.099   6.663   7.536
11928SOL     OW37680  13.163  14.670   9.789
11928SOL    HW137681  13.243  14.641   9.745
11928SOL    HW237682  13.097  14.675   9.719
11929SOL     OW37683   3.481   3.149   7.550
11929SOL    HW137684   3.568   3.180   7.574
11929SOL    HW237685   3.488   3.130   7.456
11930SOL     OW37686  13.325  10.420   8.945
11930SOL    HW137687  13.256  10.458   8.890
11930SOL    HW237688  13.311  10.460   9.031
11931SOL     OW37689   9.771   1.062   0.563
11931SOL    HW137690   9.703   1.080   0.629
11931SOL    HW237691   9.803   1.148   0.537
11932SOL     OW37692   8.801   8.143  14.275
11932SOL    HW137693   8.832   8.214  14.219
11932SOL    HW237694   8.711   8.127  14.246
11933SOL     OW37695  12.671  11.937   3.358
11933SOL    HW137696  12.583  11.944   3.320
11933SOL    HW237697  12.690  12.024   3.392
11934SOL     OW37698   6.969   6.165   7.821
11934SOL    HW137699   6.978   6.137   7.912
11934SOL    HW237700   6.976   6.260   7.824
11935SOL     OW37701   1.719   2.158   5.002
11935SOL    HW137702   1.706   2.076   5.050
11935SOL    HW237703   1.805   2.188   5.032
11936SOL     OW37704   3.467  11.835  11.020
11936SOL    HW137705   3.487  11.912  10.966
11936SOL    HW237706   3.412  11.869  11.091
11937SOL     OW37707   5.486  11.461   2.178
11937SOL    HW137708   5.521  11.548   2.160
11937SOL    HW237709   5.414  11.450   2.116
11938SOL     OW37710   0.933  14.715  10.957
11938SOL    HW137711   0.844  14.708  10.989
11938SOL    HW237712   0.977  14.636  10.988
11939SOL     OW37713   9.448   0.406   8.657
11939SOL    HW137714   9.508   0.442   8.592
11939SOL    HW237715   9.482   0.318   8.676
11940SOL     OW37716  11.344   4.941   4.178
11940SOL    HW137717  11.318   4.851   4.197
11940SOL    HW237718  11.438   4.937   4.161
11941SOL     OW37719  14.505   5.724   9.457
11941SOL    HW137720  14.517   5.712   9.363
11941SOL    HW237721  14.497   5.819   9.469
11942SOL     OW37722   9.928   9.495   7.335
11942SOL    HW137723   9.889   9.582   7.347
11942SOL    HW237724  10.000   9.510   7.273
11943SOL     OW37725  13.660  13.618   4.011
11943SOL    HW137726  13.738  13.579   3.970
11943SOL    HW237727  13.693  13.697   4.054
11944SOL     OW37728   5.683   3.220   9.192
11944SOL    HW137729   5.730   3.163   9.253
11944SOL    HW237730   5.643   3.287   9.248
11945SOL     OW37731  14.104   6.128  11.368
11945SOL    HW137732  14.068   6.048  11.404
11945SOL    HW237733  14.161   6.162  11.436
11946SOL     OW37734   1.695   4.494   8.653
11946SOL    HW137735   1.694   4.401   8.675
11946SOL    HW237736   1.775   4.527   8.694
11947SOL     OW37737  13.971   9.829  12.893
11947SOL    HW137738  13.918   9.786  12.826
11947SOL    HW237739  14.059   9.830  12.857
11948SOL     OW37740   3.972   9.491   3.694
11948SOL    HW137741   4.038   9.528   3.752
11948SOL    HW237742   3.924   9.428   3.748
11949SOL     OW37743  11.792   4.201  10.994
11949SOL    HW137744  11.778   4.241  10.908
11949SOL    HW237745  11.812   4.274  11.052
11950SOL     OW37746   8.492  10.914   6.811
11950SOL    HW137747   8.587  10.915   6.804
11950SOL    HW237748   8.471  10.984   6.873
11951SOL     OW37749  14.830   6.534   5.113
11951SOL    HW137750  14.738   6.540   5.140
11951SOL    HW237751  14.850   6.621   5.077
11952SOL     OW37752   1.282   6.077  12.870
11952SOL    HW137753   1.211   6.127  12.909
11952SOL    HW237754   1.253   6.059  12.780
11953SOL     OW37755  11.159   2.309  13.322
11953SOL    HW137756  11.149   2.331  13.230
11953SOL    HW237757  11.071   2.321  13.359
11954SOL     OW37758  10.734  12.632   6.568
11954SOL    HW137759  10.760  12.600   6.481
11954SOL    HW237760  10.661  12.576   6.593
11955SOL     OW37761  12.267  13.356   8.628
11955SOL    HW137762  12.279  13.344   8.534
11955SOL    HW237763  12.185  13.407   8.635
11956SOL     OW37764  13.020   9.423  10.388
11956SOL    HW137765  13.099   9.397  10.340
11956SOL    HW237766  13.048   9.498  10.441
11957SOL     OW37767   2.609   3.512  14.620
11957SOL    HW137768   2.579   3.425  14.593
11957SOL    HW237769   2.675   3.495  14.687
11958SOL     OW37770   6.729  10.093   8.191
11958SOL    HW137771   6.721  10.111   8.285
11958SOL    HW237772   6.686  10.009   8.179
11959SOL     OW37773   5.092   5.147  10.517
11959SOL    HW137774   5.050   5.216  10.568
11959SOL    HW237775   5.081   5.068  10.570
11960SOL     OW37776   5.975  11.430  11.322
11960SOL    HW137777   5.961  11.475  11.239
11960SOL    HW237778   5.900  11.370  11.330
11961SOL     OW37779   8.396   0.928   8.193
11961SOL    HW137780   8.376   1.011   8.149
11961SOL    HW237781   8.438   0.955   8.275
11962SOL     OW37782   8.749   6.569  14.759
11962SOL    HW137783   8.732   6.475  14.747
11962SOL    HW237784   8.695   6.611  14.691
11963SOL     OW37785  11.914   0.182   4.414
11963SOL    HW137786  11.916   0.086   4.418
11963SOL    HW237787  11.824   0.206   4.436
11964SOL     OW37788  13.479  12.753   3.661
11964SOL    HW137789  13.557  12.767   3.714
11964SOL    HW237790  13.457  12.840   3.628
11965SOL     OW37791   0.131   4.003   0.740
11965SOL    HW137792   0.195   4.000   0.670
11965SOL    HW237793   0.180   4.030   0.817
11966SOL     OW37794   9.635   3.734   1.494
11966SOL    HW137795   9.578   3.811   1.503
11966SOL    HW237796   9.636   3.716   1.400
11967SOL     OW37797   2.768  11.014   5.961
11967SOL    HW137798   2.850  11.034   5.915
11967SOL    HW237799   2.731  11.099   5.982
11968SOL     OW37800   8.755  10.147  11.218
11968SOL    HW137801   8.723  10.149  11.127
11968SOL    HW237802   8.689  10.097  11.266
11969SOL     OW37803   8.974   8.604  14.012
11969SOL    HW137804   8.885   8.620  13.980
11969SOL    HW237805   8.980   8.655  14.092
11970SOL     OW37806  12.729   2.295  14.868
11970SOL    HW137807  12.655   2.353   0.005
11970SOL    HW237808  12.777   2.292   0.071
11971SOL     OW37809   9.526   9.176   0.885
11971SOL    HW137810   9.440   9.217   0.878
11971SOL    HW237811   9.548   9.183   0.978
11972SOL     OW37812  14.310   9.341   5.198
11972SOL    HW137813  14.349   9.354   5.285
11972SOL    HW237814  14.221   9.376   5.207
11973SOL     OW37815   4.164   2.495   7.762
11973SOL    HW137816   4.142   2.569   7.705
11973SOL    HW237817   4.174   2.533   7.849
11974SOL     OW37818   8.336   0.899   9.950
11974SOL    HW137819   8.387   0.971   9.988
11974SOL    HW237820   8.399   0.827   9.942
11975SOL     OW37821   7.750   6.447   0.300
11975SOL    HW137822   7.788   6.480   0.219
11975SOL    HW237823   7.675   6.503   0.317
11976SOL     OW37824   7.953   4.311   1.065
11976SOL    HW137825   7.967   4.266   1.149
11976SOL    HW237826   8.024   4.375   1.060
11977SOL     OW37827  13.256   8.480   1.058
11977SOL    HW137828  13.293   8.529   0.984
11977SOL    HW237829  13.312   8.502   1.132
11978SOL     OW37830   6.384   4.477   7.914
11978SOL    HW137831   6.408   4.535   7.986
11978SOL    HW237832   6.314   4.422   7.950
11979SOL     OW37833  12.871   6.619  11.814
11979SOL    HW137834  12.805   6.647  11.878
11979SOL    HW237835  12.840   6.655  11.731
11980SOL     OW37836   2.870   9.899   1.537
11980SOL    HW137837   2.784   9.874   1.570
11980SOL    HW237838   2.907   9.819   1.501
11981SOL     OW37839  10.029   1.278   2.832
11981SOL    HW137840   9.943   1.235   2.833
11981SOL    HW237841  10.092   1.206   2.823
11982SOL     OW37842  14.270   1.368   5.872
11982SOL    HW137843  14.185   1.328   5.850
11982SOL    HW237844  14.249   1.434   5.938
11983SOL     OW37845  10.982   2.035  12.773
11983SOL    HW137846  11.060   1.995  12.811
11983SOL    HW237847  10.995   2.029  12.678
11984SOL     OW37848   0.998   9.971  13.367
11984SOL    HW137849   0.936   9.898  13.372
11984SOL    HW237850   0.947  10.047  13.396
11985SOL     OW37851  11.722   5.456   4.042
11985SOL    HW137852  11.641   5.406   4.052
11985SOL    HW237853  11.786   5.393   4.009
11986SOL     OW37854   8.220  11.382   2.506
11986SOL    HW137855   8.286  11.446   2.481
11986SOL    HW237856   8.189  11.413   2.592
11987SOL     OW37857   3.381  14.438  14.273
11987SOL    HW137858   3.348  14.363  14.223
11987SOL    HW237859   3.475  14.437  14.259
11988SOL     OW37860   0.488  13.099   4.900
11988SOL    HW137861   0.467  13.071   4.811
11988SOL    HW237862   0.577  13.068   4.915
11989SOL     OW37863   9.683   7.286  11.488
11989SOL    HW137864   9.645   7.204  11.517
11989SOL    HW237865   9.718   7.327  11.567
11990SOL     OW37866  12.018  11.424  13.577
11990SOL    HW137867  12.030  11.410  13.671
11990SOL    HW237868  11.934  11.381  13.557
11991SOL     OW37869   5.163  10.213   5.838
11991SOL    HW137870   5.075  10.198   5.802
11991SOL    HW237871   5.158  10.180   5.928
11992SOL     OW37872   3.867  14.120  13.636
11992SOL    HW137873   3.840  14.107  13.545
11992SOL    HW237874   3.857  14.214  13.651
11993SOL     OW37875   8.117  11.605   0.199
11993SOL    HW137876   8.094  11.516   0.226
11993SOL    HW237877   8.124  11.600   0.103
11994SOL     OW37878   1.579  12.939   9.884
11994SOL    HW137879   1.541  12.913   9.800
11994SOL    HW237880   1.531  13.019   9.908
11995SOL     OW37881   7.470  12.922   7.594
11995SOL    HW137882   7.383  12.944   7.627
11995SOL    HW237883   7.523  12.910   7.673
11996SOL     OW37884   1.925  14.308   2.781
11996SOL    HW137885   1.877  14.266   2.710
11996SOL    HW237886   2.017  14.305   2.753
11997SOL     OW37887  14.152   6.086  12.545
11997SOL    HW137888  14.160   6.142  12.468
11997SOL    HW237889  14.209   6.011  12.527
11998SOL     OW37890   5.380   3.450  13.097
11998SOL    HW137891   5.330   3.397  13.035
11998SOL    HW237892   5.460   3.400  13.112
11999SOL     OW37893   4.274  11.903   2.234
11999SOL    HW137894   4.236  11.891   2.321
11999SOL    HW237895   4.300  11.995   2.232
12000SOL     OW37896  13.478  10.814   8.813
12000SOL    HW137897  13.498  10.907   8.814
12000SOL    HW237898  13.550  10.773   8.861
12001SOL     OW37899   1.272  14.437   7.737
12001SOL    HW137900   1.221  14.502   7.785
12001SOL    HW237901   1.216  14.412   7.664
12002SOL     OW37902   7.928   2.934   8.970
12002SOL    HW137903   7.860   3.000   8.983
12002SOL    HW237904   8.006   2.985   8.948
12003SOL     OW37905   0.199   8.626   2.713
12003SOL    HW137906   0.215   8.655   2.803
12003SOL    HW237907   0.117   8.670   2.688
12004SOL     OW37908  12.042  14.629   2.559
12004SOL    HW137909  12.047  14.545   2.513
12004SOL    HW237910  12.021  14.606   2.649
12005SOL     OW37911   2.138   2.086   7.615
12005SOL    HW137912   2.212   2.038   7.579
12005SOL    HW237913   2.066   2.067   7.555
12006SOL     OW37914  10.296   4.275   8.094
12006SOL    HW137915  10.228   4.340   8.108
12006SOL    HW237916  10.250   4.191   8.098
12007SOL     OW37917  11.170   0.667   4.912
12007SOL    HW137918  11.085   0.707   4.901
12007SOL    HW237919  11.193   0.634   4.825
12008SOL     OW37920   4.918   2.027   9.152
12008SOL    HW137921   4.923   2.005   9.245
12008SOL    HW237922   5.002   2.069   9.133
12009SOL     OW37923  13.084   0.302  14.358
12009SOL    HW137924  13.154   0.355  14.396
12009SOL    HW237925  13.113   0.212  14.370
12010SOL     OW37926  11.796  10.911   6.388
12010SOL    HW137927  11.734  10.890   6.457
12010SOL    HW237928  11.848  10.984   6.424
12011SOL     OW37929  14.663  11.758   8.375
12011SOL    HW137930  14.638  11.684   8.429
12011SOL    HW237931  14.585  11.779   8.323
12012SOL     OW37932   6.216  13.417  13.654
12012SOL    HW137933   6.144  13.376  13.606
12012SOL    HW237934   6.175  13.485  13.706
12013SOL     OW37935   0.757   1.493   4.319
12013SOL    HW137936   0.734   1.405   4.287
12013SOL    HW237937   0.816   1.528   4.252
12014SOL     OW37938  12.145   7.696   0.513
12014SOL    HW137939  12.218   7.668   0.457
12014SOL    HW237940  12.182   7.697   0.601
12015SOL     OW37941   5.276   4.556   5.491
12015SOL    HW137942   5.195   4.601   5.513
12015SOL    HW237943   5.336   4.579   5.562
12016SOL     OW37944   5.817  12.467  11.222
12016SOL    HW137945   5.744  12.433  11.170
12016SOL    HW237946   5.883  12.491  11.157
12017SOL     OW37947   8.541  13.095  11.129
12017SOL    HW137948   8.509  13.138  11.050
12017SOL    HW237949   8.635  13.114  11.130
12018SOL     OW37950  10.537   2.054  14.150
12018SOL    HW137951  10.473   2.117  14.182
12018SOL    HW237952  10.622   2.089  14.176
12019SOL     OW37953   3.312   8.219   4.223
12019SOL    HW137954   3.383   8.156   4.226
12019SOL    HW237955   3.354   8.304   4.240
12020SOL     OW37956  10.728   2.502   4.467
12020SOL    HW137957  10.662   2.570   4.467
12020SOL    HW237958  10.810   2.547   4.446
12021SOL     OW37959   6.365   0.729   5.160
12021SOL    HW137960   6.409   0.802   5.117
12021SOL    HW237961   6.435   0.684   5.207
12022SOL     OW37962   2.552   6.121   2.076
12022SOL    HW137963   2.603   6.053   2.031
12022SOL    HW237964   2.578   6.113   2.168
12023SOL     OW37965   9.037   1.324   7.253
12023SOL    HW137966   9.103   1.314   7.321
12023SOL    HW237967   9.020   1.419   7.250
12024SOL     OW37968   2.381   1.846   4.990
12024SOL    HW137969   2.412   1.935   4.972
12024SOL    HW237970   2.303   1.837   4.936
12025SOL     OW37971  10.978   8.407   8.584
12025SOL    HW137972  10.888   8.374   8.579
12025SOL    HW237973  10.979   8.462   8.662
12026SOL     OW37974   8.963   1.871   6.803
12026SOL    HW137975   8.927   1.952   6.840
12026SOL    HW237976   8.943   1.878   6.709
12027SOL     OW37977  13.187  13.194   3.664
12027SOL    HW137978  13.190  13.270   3.722
12027SOL    HW237979  13.268  13.199   3.613
12028SOL     OW37980  10.883   5.198   3.117
12028SOL    HW137981  10.973   5.227   3.105
12028SOL    HW237982  10.832   5.253   3.057
12029SOL     OW37983   0.152  14.054   6.857
12029SOL    HW137984   0.236  14.016   6.832
12029SOL    HW237985   0.102  14.059   6.775
12030SOL     OW37986  13.610  11.016   6.245
12030SOL    HW137987  13.616  11.073   6.322
12030SOL    HW237988  13.611  10.927   6.280
12031SOL     OW37989   7.615   5.042   1.449
12031SOL    HW137990   7.553   4.988   1.400
12031SOL    HW237991   7.572   5.058   1.533
12032SOL     OW37992   5.112   9.557  14.116
12032SOL    HW137993   5.121   9.553  14.212
12032SOL    HW237994   5.023   9.527  14.099
12033SOL     OW37995   7.400  13.877  10.060
12033SOL    HW137996   7.447  13.939  10.116
12033SOL    HW237997   7.387  13.800  10.116
12034SOL     OW37998   0.355  12.863   3.330
12034SOL    HW137999   0.308  12.911   3.262
12034SOL    HW238000   0.305  12.880   3.410
12035SOL     OW38001   9.651   9.776   3.004
12035SOL    HW138002   9.738   9.740   2.986
12035SOL    HW238003   9.607   9.707   3.055
12036SOL     OW38004  13.500   8.545  10.358
12036SOL    HW138005  13.508   8.462  10.405
12036SOL    HW238006  13.408   8.549  10.333
12037SOL     OW38007   2.781   3.392  10.137
12037SOL    HW138008   2.860   3.348  10.170
12037SOL    HW238009   2.740   3.430  10.214
12038SOL     OW38010   2.069   2.777  11.370
12038SOL    HW138011   2.108   2.741  11.290
12038SOL    HW238012   2.080   2.871  11.361
12039SOL     OW38013   9.477   4.265  12.011
12039SOL    HW138014   9.465   4.218  12.094
12039SOL    HW238015   9.420   4.219  11.950
12040SOL     OW38016  12.172   8.859  13.921
12040SOL    HW138017  12.245   8.920  13.936
12040SOL    HW238018  12.206   8.774  13.951
12041SOL     OW38019   0.206  14.656   0.529
12041SOL    HW138020   0.221  14.563   0.511
12041SOL    HW238021   0.274  14.680   0.593
12042SOL     OW38022   7.059  11.583   0.542
12042SOL    HW138023   7.126  11.638   0.502
12042SOL    HW238024   6.988  11.580   0.477
12043SOL     OW38025   1.469  14.639   4.183
12043SOL    HW138026   1.471  14.621   4.277
12043SOL    HW238027   1.559  14.623   4.154
12044SOL     OW38028   1.380   0.047   5.648
12044SOL    HW138029   1.291   0.076   5.666
12044SOL    HW238030   1.370  14.852   5.589
12045SOL     OW38031  13.839  12.256   2.769
12045SOL    HW138032  13.864  12.346   2.753
12045SOL    HW238033  13.839  12.215   2.682
12046SOL     OW38034  11.056   6.243  10.080
12046SOL    HW138035  11.063   6.307  10.151
12046SOL    HW238036  11.144   6.207  10.072
12047SOL     OW38037   8.066   9.605  12.201
12047SOL    HW138038   8.116   9.525  12.219
12047SOL    HW238039   8.052   9.644  12.288
12048SOL     OW38040   7.407   5.816   3.579
12048SOL    HW138041   7.396   5.910   3.594
12048SOL    HW238042   7.331   5.777   3.623
12049SOL     OW38043  12.418   6.041  12.875
12049SOL    HW138044  12.334   6.044  12.922
12049SOL    HW238045  12.422   5.952  12.840
12050SOL     OW38046   1.558  12.433   1.859
12050SOL    HW138047   1.541  12.405   1.769
12050SOL    HW238048   1.500  12.509   1.872
12051SOL     OW38049   5.951   0.838   9.975
12051SOL    HW138050   5.873   0.835   9.919
12051SOL    HW238051   5.950   0.927  10.012
12052SOL     OW38052   2.951   8.451   5.962
12052SOL    HW138053   2.942   8.541   5.992
12052SOL    HW238054   2.955   8.458   5.867
12053SOL     OW38055   0.985   8.253   3.463
12053SOL    HW138056   1.071   8.249   3.504
12053SOL    HW238057   0.994   8.320   3.395
12054SOL     OW38058  10.117   6.363   2.672
12054SOL    HW138059  10.067   6.308   2.732
12054SOL    HW238060  10.073   6.353   2.588
12055SOL     OW38061  13.098   1.439   0.154
12055SOL    HW138062  13.087   1.401   0.241
12055SOL    HW238063  13.080   1.532   0.166
12056SOL     OW38064   3.411   4.283   5.976
12056SOL    HW138065   3.343   4.345   5.950
12056SOL    HW238066   3.487   4.338   5.996
12057SOL     OW38067   2.151   4.784  12.569
12057SOL    HW138068   2.060   4.811  12.580
12057SOL    HW238069   2.195   4.861  12.533
12058SOL     OW38070   1.931   4.101  10.696
12058SOL    HW138071   1.944   4.166  10.766
12058SOL    HW238072   1.929   4.153  10.616
12059SOL     OW38073   1.641   9.300   2.754
12059SOL    HW138074   1.564   9.257   2.792
12059SOL    HW238075   1.711   9.282   2.817
12060SOL     OW38076   4.625  10.348  12.217
12060SOL    HW138077   4.530  10.334  12.212
12060SOL    HW238078   4.641  10.371  12.309
12061SOL     OW38079  11.089   8.562   2.647
12061SOL    HW138080  11.053   8.474   2.655
12061SOL    HW238081  11.023   8.610   2.596
12062SOL     OW38082   9.810   5.007   1.800
12062SOL    HW138083   9.765   5.010   1.884
12062SOL    HW238084   9.765   5.073   1.747
12063SOL     OW38085  12.625   4.276   2.740
12063SOL    HW138086  12.555   4.339   2.756
12063SOL    HW238087  12.683   4.320   2.677
12064SOL     OW38088   8.237  13.470  14.057
12064SOL    HW138089   8.143  13.454  14.071
12064SOL    HW238090   8.277  13.384  14.065
12065SOL     OW38091   7.048  13.443  11.385
12065SOL    HW138092   6.956  13.467  11.377
12065SOL    HW238093   7.087  13.467  11.301
12066SOL     OW38094   1.275   9.509  11.846
12066SOL    HW138095   1.309   9.597  11.826
12066SOL    HW238096   1.232   9.481  11.766
12067SOL     OW38097   7.955   1.441   7.566
12067SOL    HW138098   7.981   1.366   7.513
12067SOL    HW238099   8.001   1.428   7.649
12068SOL     OW38100  13.684   3.704   4.848
12068SOL    HW138101  13.706   3.640   4.781
12068SOL    HW238102  13.708   3.789   4.811
12069SOL     OW38103   1.290   2.171   0.342
12069SOL    HW138104   1.299   2.117   0.263
12069SOL    HW238105   1.303   2.109   0.415
12070SOL     OW38106   2.953  11.502   9.825
12070SOL    HW138107   3.047  11.495   9.808
12070SOL    HW238108   2.911  11.467   9.747
12071SOL     OW38109   8.959   1.672  12.724
12071SOL    HW138110   8.954   1.751  12.670
12071SOL    HW238111   8.913   1.694  12.805
12072SOL     OW38112   0.483   8.975  10.805
12072SOL    HW138113   0.547   8.904  10.796
12072SOL    HW238114   0.505   9.015  10.889
12073SOL     OW38115  13.663  12.267   4.920
12073SOL    HW138116  13.701  12.182   4.944
12073SOL    HW238117  13.701  12.287   4.835
12074SOL     OW38118  10.183   6.312   0.340
12074SOL    HW138119  10.118   6.294   0.271
12074SOL    HW238120  10.234   6.231   0.346
12075SOL     OW38121   5.581   5.373  12.557
12075SOL    HW138122   5.569   5.451  12.611
12075SOL    HW238123   5.605   5.305  12.619
12076SOL     OW38124   3.569  14.744   0.348
12076SOL    HW138125   3.585  14.690   0.270
12076SOL    HW238126   3.497  14.802   0.323
12077SOL     OW38127   8.461  12.978   0.124
12077SOL    HW138128   8.485  12.891   0.154
12077SOL    HW238129   8.401  12.964   0.051
12078SOL     OW38130   6.733   7.112  10.457
12078SOL    HW138131   6.712   7.085  10.368
12078SOL    HW238132   6.683   7.192  10.470
12079SOL     OW38133   8.456   9.862   7.264
12079SOL    HW138134   8.398   9.805   7.314
12079SOL    HW238135   8.519   9.802   7.224
12080SOL     OW38136  12.801  14.737   9.115
12080SOL    HW138137  12.874  14.714   9.058
12080SOL    HW238138  12.743  14.790   9.060
12081SOL     OW38139   2.449   6.115   3.265
12081SOL    HW138140   2.380   6.077   3.211
12081SOL    HW238141   2.404   6.145   3.344
12082SOL     OW38142  13.177  10.399   8.173
12082SOL    HW138143  13.139  10.355   8.249
12082SOL    HW238144  13.106  10.403   8.110
12083SOL     OW38145   3.784   1.155  14.324
12083SOL    HW138146   3.856   1.183  14.380
12083SOL    HW238147   3.748   1.236  14.288
12084SOL     OW38148  14.242   3.134  10.466
12084SOL    HW138149  14.213   3.109  10.553
12084SOL    HW238150  14.242   3.230  10.467
12085SOL     OW38151   8.262  12.354  13.185
12085SOL    HW138152   8.278  12.360  13.091
12085SOL    HW238153   8.213  12.272  13.196
12086SOL     OW38154   5.419   1.443   3.054
12086SOL    HW138155   5.334   1.478   3.082
12086SOL    HW238156   5.400   1.355   3.023
12087SOL     OW38157   1.511   4.397   4.097
12087SOL    HW138158   1.552   4.351   4.023
12087SOL    HW238159   1.431   4.347   4.114
12088SOL     OW38160  12.831  11.920  10.370
12088SOL    HW138161  12.812  11.997  10.424
12088SOL    HW238162  12.800  11.846  10.422
12089SOL     OW38163  13.039  14.179  12.609
12089SOL    HW138164  12.946  14.160  12.613
12089SOL    HW238165  13.075  14.141  12.689
12090SOL     OW38166   5.556   9.411   4.368
12090SOL    HW138167   5.565   9.432   4.461
12090SOL    HW238168   5.482   9.351   4.364
12091SOL     OW38169  13.158  10.551   0.442
12091SOL    HW138170  13.134  10.638   0.475
12091SOL    HW238171  13.122  10.548   0.354
12092SOL     OW38172   4.344  10.895   5.324
12092SOL    HW138173   4.438  10.899   5.342
12092SOL    HW238174   4.304  10.950   5.392
12093SOL     OW38175   6.019  10.110   8.608
12093SOL    HW138176   5.939  10.098   8.659
12093SOL    HW238177   6.083  10.139   8.673
12094SOL     OW38178   0.926  10.665  11.522
12094SOL    HW138179   0.844  10.619  11.537
12094SOL    HW238180   0.902  10.757  11.518
12095SOL     OW38181   5.813   5.409  12.205
12095SOL    HW138182   5.810   5.324  12.249
12095SOL    HW238183   5.820   5.473  12.276
12096SOL     OW38184   7.607   2.076   7.527
12096SOL    HW138185   7.561   2.107   7.605
12096SOL    HW238186   7.542   2.080   7.458
12097SOL     OW38187   0.930   3.801   4.140
12097SOL    HW138188   0.886   3.864   4.082
12097SOL    HW238189   0.952   3.727   4.083
12098SOL     OW38190   6.319   1.628  13.689
12098SOL    HW138191   6.406   1.657  13.663
12098SOL    HW238192   6.280   1.705  13.732
12099SOL     OW38193  12.525   3.623   5.505
12099SOL    HW138194  12.546   3.574   5.425
12099SOL    HW238195  12.599   3.682   5.518
12100SOL     OW38196   0.427  14.504   0.287
12100SOL    HW138197   0.466  14.431   0.238
12100SOL    HW238198   0.391  14.463   0.365
12101SOL     OW38199  14.290  11.476  14.237
12101SOL    HW138200  14.293  11.500  14.330
12101SOL    HW238201  14.240  11.547  14.196
12102SOL     OW38202  13.886  14.670   6.238
12102SOL    HW138203  13.922  14.745   6.287
12102SOL    HW238204  13.869  14.604   6.305
12103SOL     OW38205   4.710   3.363  10.700
12103SOL    HW138206   4.649   3.292  10.682
12103SOL    HW238207   4.769   3.327  10.767
12104SOL     OW38208   8.976   1.346   3.123
12104SOL    HW138209   9.019   1.309   3.046
12104SOL    HW238210   8.916   1.277   3.152
12105SOL     OW38211   4.195   9.071   7.275
12105SOL    HW138212   4.234   9.001   7.223
12105SOL    HW238213   4.163   9.134   7.210
12106SOL     OW38214   3.727  12.434   7.124
12106SOL    HW138215   3.763  12.376   7.057
12106SOL    HW238216   3.748  12.522   7.093
12107SOL     OW38217  11.505   3.122  11.061
12107SOL    HW138218  11.543   3.076  10.986
12107SOL    HW238219  11.456   3.195  11.023
12108SOL     OW38220  10.464   9.268  11.223
12108SOL    HW138221  10.504   9.273  11.136
12108SOL    HW238222  10.428   9.355  11.238
12109SOL     OW38223  13.163  13.793  11.262
12109SOL    HW138224  13.241  13.845  11.284
12109SOL    HW238225  13.186  13.749  11.180
12110SOL     OW38226   6.192   8.885  13.806
12110SOL    HW138227   6.160   8.903  13.717
12110SOL    HW238228   6.124   8.830  13.845
12111SOL     OW38229   8.865   5.146   7.079
12111SOL    HW138230   8.822   5.213   7.132
12111SOL    HW238231   8.957   5.172   7.077
12112SOL     OW38232  13.694  11.571   8.902
12112SOL    HW138233  13.629  11.636   8.928
12112SOL    HW238234  13.769  11.589   8.958
12113SOL     OW38235  10.384   6.283   5.456
12113SOL    HW138236  10.332   6.266   5.378
12113SOL    HW238237  10.357   6.216   5.519
12114SOL     OW38238   5.663  11.448   3.291
12114SOL    HW138239   5.669  11.479   3.201
12114SOL    HW238240   5.569  11.434   3.305
12115SOL     OW38241   5.597   6.138   1.990
12115SOL    HW138242   5.675   6.135   2.045
12115SOL    HW238243   5.572   6.230   1.989
12116SOL     OW38244  13.785   5.321  12.854
12116SOL    HW138245  13.832   5.397  12.888
12116SOL    HW238246  13.778   5.262  12.929
12117SOL     OW38247  13.590   8.693   9.140
12117SOL    HW138248  13.526   8.625   9.162
12117SOL    HW238249  13.632   8.662   9.060
12118SOL     OW38250   0.537  12.419   8.041
12118SOL    HW138251   0.627  12.406   8.071
12118SOL    HW238252   0.527  12.515   8.037
12119SOL     OW38253   9.006   6.790   9.448
12119SOL    HW138254   8.982   6.834   9.530
12119SOL    HW238255   8.924   6.751   9.417
12120SOL     OW38256   6.468   1.669   2.479
12120SOL    HW138257   6.497   1.720   2.555
12120SOL    HW238258   6.547   1.658   2.426
12121SOL     OW38259  10.542  11.498  14.861
12121SOL    HW138260  10.570  11.568   0.041
12121SOL    HW238261  10.617  11.439  14.857
12122SOL     OW38262   6.373   4.741  12.245
12122SOL    HW138263   6.296   4.686  12.227
12122SOL    HW238264   6.369   4.758  12.339
12123SOL     OW38265   6.123   8.578   5.581
12123SOL    HW138266   6.101   8.551   5.492
12123SOL    HW238267   6.206   8.534   5.599
12124SOL     OW38268   5.081   5.831  13.943
12124SOL    HW138269   5.129   5.905  13.979
12124SOL    HW238270   5.118   5.754  13.985
12125SOL     OW38271   1.048  14.770   0.732
12125SOL    HW138272   1.126  14.716   0.716
12125SOL    HW238273   1.083  14.856   0.754
12126SOL     OW38274   8.629   2.581   9.381
12126SOL    HW138275   8.589   2.498   9.354
12126SOL    HW238276   8.563   2.647   9.358
12127SOL     OW38277   8.902   7.878  12.349
12127SOL    HW138278   8.824   7.823  12.355
12127SOL    HW238279   8.948   7.845  12.272
12128SOL     OW38280  13.097  13.264  11.219
12128SOL    HW138281  13.061  13.186  11.262
12128SOL    HW238282  13.166  13.231  11.163
12129SOL     OW38283  11.834   3.855   6.309
12129SOL    HW138284  11.838   3.938   6.356
12129SOL    HW238285  11.925   3.832   6.290
12130SOL     OW38286  13.491   5.604  13.750
12130SOL    HW138287  13.466   5.525  13.797
12130SOL    HW238288  13.560   5.644  13.804
12131SOL     OW38289   3.672   6.250   7.683
12131SOL    HW138290   3.725   6.242   7.762
12131SOL    HW238291   3.646   6.160   7.662
12132SOL     OW38292   7.076   2.282  11.686
12132SOL    HW138293   7.008   2.331  11.733
12132SOL    HW238294   7.075   2.319  11.597
12133SOL     OW38295  13.359   5.298   7.370
12133SOL    HW138296  13.321   5.213   7.348
12133SOL    HW238297  13.361   5.299   7.466
12134SOL     OW38298  12.468   6.477   2.392
12134SOL    HW138299  12.437   6.430   2.315
12134SOL    HW238300  12.446   6.420   2.466
12135SOL     OW38301   3.276  13.596   6.180
12135SOL    HW138302   3.338  13.670   6.173
12135SOL    HW238303   3.332  13.519   6.192
12136SOL     OW38304   4.126   0.780   2.505
12136SOL    HW138305   4.055   0.810   2.562
12136SOL    HW238306   4.158   0.859   2.462
12137SOL     OW38307   5.620   0.457   2.754
12137SOL    HW138308   5.690   0.419   2.701
12137SOL    HW238309   5.581   0.382   2.798
12138SOL     OW38310  13.665  10.322   4.160
12138SOL    HW138311  13.695  10.269   4.086
12138SOL    HW238312  13.728  10.303   4.230
12139SOL     OW38313   6.341   5.391   6.418
12139SOL    HW138314   6.313   5.299   6.422
12139SOL    HW238315   6.434   5.388   6.440
12140SOL     OW38316   2.060   7.015   5.759
12140SOL    HW138317   2.022   7.026   5.846
12140SOL    HW238318   2.100   7.099   5.739
12141SOL     OW38319   7.061  12.502   6.884
12141SOL    HW138320   6.989  12.443   6.903
12141SOL    HW238321   7.135  12.444   6.863
12142SOL     OW38322  10.709   6.949   9.839
12142SOL    HW138323  10.764   6.894   9.894
12142SOL    HW238324  10.619   6.929   9.867
12143SOL     OW38325  12.952   6.693   1.278
12143SOL    HW138326  13.016   6.718   1.344
12143SOL    HW238327  12.908   6.616   1.314
12144SOL     OW38328  12.336  14.371   9.280
12144SOL    HW138329  12.370  14.430   9.347
12144SOL    HW238330  12.269  14.423   9.235
12145SOL     OW38331   4.357   5.750   1.056
12145SOL    HW138332   4.411   5.761   1.134
12145SOL    HW238333   4.308   5.669   1.071
12146SOL     OW38334  12.969   4.527   5.574
12146SOL    HW138335  13.031   4.577   5.627
12146SOL    HW238336  12.935   4.460   5.633
12147SOL     OW38337   8.998  10.650   5.218
12147SOL    HW138338   9.064  10.581   5.207
12147SOL    HW238339   9.004  10.701   5.137
12148SOL     OW38340  12.854   3.259  14.150
12148SOL    HW138341  12.933   3.276  14.200
12148SOL    HW238342  12.824   3.346  14.122
12149SOL     OW38343   6.615   2.408   1.566
12149SOL    HW138344   6.560   2.483   1.542
12149SOL    HW238345   6.569   2.333   1.530
12150SOL     OW38346   1.672   9.900   7.723
12150SOL    HW138347   1.629   9.830   7.674
12150SOL    HW238348   1.731   9.854   7.783
12151SOL     OW38349  11.550   0.919   9.455
12151SOL    HW138350  11.500   0.957   9.527
12151SOL    HW238351  11.541   0.825   9.466
12152SOL     OW38352  10.293   1.402   9.419
12152SOL    HW138353  10.224   1.441   9.365
12152SOL    HW238354  10.375   1.430   9.378
12153SOL     OW38355  14.569   4.620   2.547
12153SOL    HW138356  14.495   4.562   2.565
12153SOL    HW238357  14.585   4.610   2.454
12154SOL     OW38358  12.538   2.839  14.239
12154SOL    HW138359  12.491   2.839  14.322
12154SOL    HW238360  12.510   2.919  14.194
12155SOL     OW38361   0.142   0.577   7.353
12155SOL    HW138362   0.166   0.638   7.423
12155SOL    HW238363   0.223   0.564   7.303
12156SOL     OW38364   6.094   2.216   3.552
12156SOL    HW138365   6.121   2.279   3.486
12156SOL    HW238366   6.081   2.268   3.632
12157SOL     OW38367   6.604   2.762  12.180
12157SOL    HW138368   6.525   2.719  12.213
12157SOL    HW238369   6.621   2.719  12.096
12158SOL     OW38370   1.696  14.048   7.512
12158SOL    HW138371   1.752  14.065   7.588
12158SOL    HW238372   1.609  14.073   7.540
12159SOL     OW38373   1.731   6.953   8.527
12159SOL    HW138374   1.796   7.008   8.571
12159SOL    HW238375   1.744   6.866   8.566
12160SOL     OW38376  13.145   1.652   1.776
12160SOL    HW138377  13.090   1.646   1.854
12160SOL    HW238378  13.083   1.668   1.705
12161SOL     OW38379   8.016  13.224   0.700
12161SOL    HW138380   8.098  13.269   0.680
12161SOL    HW238381   7.969  13.221   0.617
12162SOL     OW38382   3.860   1.006   1.848
12162SOL    HW138383   3.831   0.920   1.876
12162SOL    HW238384   3.932   0.988   1.787
12163SOL     OW38385   9.867   6.436   1.195
12163SOL    HW138386   9.958   6.457   1.175
12163SOL    HW238387   9.827   6.418   1.110
12164SOL     OW38388   4.786   3.031  14.012
12164SOL    HW138389   4.724   3.094  13.976
12164SOL    HW238390   4.817   3.071  14.093
12165SOL     OW38391   8.007   3.017  13.411
12165SOL    HW138392   7.985   2.994  13.501
12165SOL    HW238393   7.951   2.960  13.357
12166SOL     OW38394  13.832   8.477   9.755
12166SOL    HW138395  13.926   8.494   9.752
12166SOL    HW238396  13.799   8.538   9.821
12167SOL     OW38397   0.648   7.062   9.313
12167SOL    HW138398   0.598   7.127   9.362
12167SOL    HW238399   0.606   6.979   9.333
12168SOL     OW38400   4.716   7.086   2.456
12168SOL    HW138401   4.639   7.040   2.490
12168SOL    HW238402   4.701   7.091   2.362
12169SOL     OW38403   9.651   8.794   3.384
12169SOL    HW138404   9.563   8.778   3.352
12169SOL    HW238405   9.708   8.751   3.320
12170SOL     OW38406  12.791  12.141   0.397
12170SOL    HW138407  12.763  12.232   0.395
12170SOL    HW238408  12.883  12.144   0.424
12171SOL     OW38409   3.522  13.751  12.035
12171SOL    HW138410   3.471  13.670  12.027
12171SOL    HW238411   3.585  13.733  12.105
12172SOL     OW38412  13.331  12.360   6.937
12172SOL    HW138413  13.330  12.265   6.946
12172SOL    HW238414  13.311  12.376   6.845
12173SOL     OW38415  11.982   0.023   2.504
12173SOL    HW138416  12.046   0.087   2.472
12173SOL    HW238417  12.034  14.828   2.530
12174SOL     OW38418  12.869   4.645   7.964
12174SOL    HW138419  12.878   4.598   7.881
12174SOL    HW238420  12.952   4.691   7.976
12175SOL     OW38421  14.514   8.732  13.194
12175SOL    HW138422  14.477   8.657  13.239
12175SOL    HW238423  14.544   8.698  13.109
12176SOL     OW38424   4.449   4.140   0.784
12176SOL    HW138425   4.443   4.203   0.712
12176SOL    HW238426   4.457   4.195   0.862
12177SOL     OW38427   7.792  10.532  12.867
12177SOL    HW138428   7.764  10.596  12.801
12177SOL    HW238429   7.744  10.558  12.946
12178SOL     OW38430   0.678  11.602   6.454
12178SOL    HW138431   0.705  11.531   6.512
12178SOL    HW238432   0.603  11.642   6.499
12179SOL     OW38433  10.140   3.124  13.986
12179SOL    HW138434  10.209   3.123  14.053
12179SOL    HW238435  10.142   3.212  13.950
12180SOL     OW38436   1.895  14.265  10.110
12180SOL    HW138437   1.962  14.223  10.055
12180SOL    HW238438   1.812  14.230  10.077
12181SOL     OW38439   3.830   8.780   5.557
12181SOL    HW138440   3.872   8.756   5.639
12181SOL    HW238441   3.866   8.866   5.535
12182SOL     OW38442   7.612  10.614   2.654
12182SOL    HW138443   7.528  10.568   2.651
12182SOL    HW238444   7.600  10.683   2.719
12183SOL     OW38445   9.601   7.696   3.005
12183SOL    HW138446   9.540   7.759   3.043
12183SOL    HW238447   9.560   7.671   2.922
12184SOL     OW38448   7.244  14.471  13.537
12184SOL    HW138449   7.200  14.539  13.486
12184SOL    HW238450   7.182  14.397  13.537
12185SOL     OW38451   5.618   3.331  13.144
12185SOL    HW138452   5.697   3.348  13.093
12185SOL    HW238453   5.634   3.246  13.185
12186SOL     OW38454  12.609  12.798   0.998
12186SOL    HW138455  12.536  12.829   1.051
12186SOL    HW238456  12.680  12.784   1.060
12187SOL     OW38457   7.657   2.991   1.625
12187SOL    HW138458   7.602   2.982   1.702
12187SOL    HW238459   7.662   3.085   1.610
12188SOL     OW38460   7.795  10.795   4.388
12188SOL    HW138461   7.724  10.751   4.436
12188SOL    HW238462   7.799  10.883   4.426
12189SOL     OW38463   9.860   2.966  11.090
12189SOL    HW138464   9.803   3.025  11.041
12189SOL    HW238465   9.828   2.878  11.070
12190SOL     OW38466   3.148   6.655   6.838
12190SOL    HW138467   3.230   6.607   6.850
12190SOL    HW238468   3.080   6.592   6.864
12191SOL     OW38469   5.847   3.304  11.579
12191SOL    HW138470   5.925   3.332  11.531
12191SOL    HW238471   5.789   3.380  11.578
12192SOL     OW38472  11.384   3.853  14.789
12192SOL    HW138473  11.427   3.802  14.720
12192SOL    HW238474  11.356   3.787  14.853
12193SOL     OW38475   4.602  13.919   5.320
12193SOL    HW138476   4.593  13.928   5.415
12193SOL    HW238477   4.618  13.826   5.306
12194SOL     OW38478   2.817  12.923   8.163
12194SOL    HW138479   2.810  12.985   8.090
12194SOL    HW238480   2.890  12.865   8.139
12195SOL     OW38481   0.233   6.683  10.885
12195SOL    HW138482   0.256   6.766  10.842
12195SOL    HW238483   0.144   6.666  10.858
12196SOL     OW38484  13.627   4.966  10.577
12196SOL    HW138485  13.583   5.050  10.562
12196SOL    HW238486  13.717   4.991  10.600
12197SOL     OW38487   6.970  13.285   8.984
12197SOL    HW138488   7.054  13.316   9.017
12197SOL    HW238489   6.956  13.333   8.903
12198SOL     OW38490   3.327   9.275   2.226
12198SOL    HW138491   3.382   9.236   2.293
12198SOL    HW238492   3.252   9.311   2.274
12199SOL     OW38493  11.071   6.970   0.606
12199SOL    HW138494  10.995   7.028   0.610
12199SOL    HW238495  11.055   6.905   0.674
12200SOL     OW38496  14.393   1.170   7.737
12200SOL    HW138497  14.370   1.093   7.685
12200SOL    HW238498  14.347   1.158   7.820
12201SOL     OW38499   1.035  13.653   8.554
12201SOL    HW138500   1.035  13.561   8.527
12201SOL    HW238501   1.084  13.698   8.485
12202SOL     OW38502   5.065   8.550  13.062
12202SOL    HW138503   5.081   8.587  13.148
12202SOL    HW238504   4.970   8.537  13.058
12203SOL     OW38505   2.105  10.008   4.639
12203SOL    HW138506   2.051   9.929   4.637
12203SOL    HW238507   2.131  10.017   4.730
12204SOL     OW38508   2.745  10.341  10.822
12204SOL    HW138509   2.666  10.348  10.768
12204SOL    HW238510   2.813  10.383  10.769
12205SOL     OW38511   5.205   7.870  11.097
12205SOL    HW138512   5.119   7.834  11.120
12205SOL    HW238513   5.239   7.808  11.032
12206SOL     OW38514   8.041   6.008  13.088
12206SOL    HW138515   8.081   6.082  13.042
12206SOL    HW238516   8.052   6.029  13.181
12207SOL     OW38517   6.956  10.277   1.240
12207SOL    HW138518   6.968  10.249   1.150
12207SOL    HW238519   7.027  10.339   1.256
12208SOL     OW38520   9.361   5.248  12.466
12208SOL    HW138521   9.287   5.228  12.408
12208SOL    HW238522   9.357   5.343  12.479
12209SOL     OW38523   7.311  11.186   3.096
12209SOL    HW138524   7.285  11.177   3.187
12209SOL    HW238525   7.401  11.153   3.092
12210SOL     OW38526   5.967  10.025   8.205
12210SOL    HW138527   5.943   9.998   8.117
12210SOL    HW238528   6.052   9.983   8.221
12211SOL     OW38529   3.979   3.702   9.460
12211SOL    HW138530   3.893   3.713   9.419
12211SOL    HW238531   3.961   3.655   9.541
12212SOL     OW38532   5.179  14.728   5.230
12212SOL    HW138533   5.153  14.814   5.198
12212SOL    HW238534   5.152  14.668   5.160
12213SOL     OW38535   9.099   3.437   2.846
12213SOL    HW138536   9.173   3.438   2.907
12213SOL    HW238537   9.028   3.480   2.893
12214SOL     OW38538   7.174  14.554   9.984
12214SOL    HW138539   7.174  14.467  10.022
12214SOL    HW238540   7.100  14.553   9.923
12215SOL     OW38541   3.743   6.285   8.839
12215SOL    HW138542   3.807   6.214   8.836
12215SOL    HW238543   3.787   6.360   8.799
12216SOL     OW38544  13.110   5.988   7.619
12216SOL    HW138545  13.125   6.022   7.531
12216SOL    HW238546  13.162   6.043   7.677
12217SOL     OW38547   6.117   2.080   6.640
12217SOL    HW138548   6.162   2.007   6.599
12217SOL    HW238549   6.112   2.147   6.571
12218SOL     OW38550   0.195   9.376  10.184
12218SOL    HW138551   0.206   9.285  10.211
12218SOL    HW238552   0.172   9.422  10.265
12219SOL     OW38553   7.142   7.693   6.750
12219SOL    HW138554   7.193   7.617   6.724
12219SOL    HW238555   7.113   7.732   6.668
12220SOL     OW38556   2.593   9.586   3.693
12220SOL    HW138557   2.670   9.547   3.734
12220SOL    HW238558   2.602   9.680   3.710
12221SOL     OW38559  14.089   7.912   1.273
12221SOL    HW138560  14.173   7.954   1.259
12221SOL    HW238561  14.038   7.931   1.195
12222SOL     OW38562  12.081  14.509   9.257
12222SOL    HW138563  12.083  14.490   9.351
12222SOL    HW238564  11.988  14.506   9.234
12223SOL     OW38565   1.277  11.622   5.871
12223SOL    HW138566   1.263  11.692   5.935
12223SOL    HW238567   1.354  11.574   5.904
12224SOL     OW38568   3.389   0.074   8.806
12224SOL    HW138569   3.313   0.132   8.799
12224SOL    HW238570   3.463   0.134   8.815
12225SOL     OW38571   9.977   0.329   2.480
12225SOL    HW138572   9.986   0.420   2.509
12225SOL    HW238573   9.885   0.308   2.494
12226SOL     OW38574   0.968   0.437   8.458
12226SOL    HW138575   1.023   0.386   8.517
12226SOL    HW238576   0.939   0.511   8.512
12227SOL     OW38577   5.751  13.329  12.185
12227SOL    HW138578   5.704  13.330  12.268
12227SOL    HW238579   5.776  13.237  12.173
12228SOL     OW38580   7.701   1.945   8.301
12228SOL    HW138581   7.778   1.899   8.335
12228SOL    HW238582   7.737   2.006   8.237
12229SOL     OW38583  13.644   9.111   5.626
12229SOL    HW138584  13.555   9.119   5.592
12229SOL    HW238585  13.673   9.025   5.597
12230SOL     OW38586  14.838  11.392   4.997
12230SOL    HW138587  14.839  11.486   5.013
12230SOL    HW238588   0.046  11.363   5.019
12231SOL     OW38589   5.352   0.981   5.808
12231SOL    HW138590   5.370   0.938   5.892
12231SOL    HW238591   5.338   0.909   5.747
12232SOL     OW38592   3.938  11.060  13.985
12232SOL    HW138593   4.022  11.064  14.031
12232SOL    HW238594   3.890  11.137  14.016
12233SOL     OW38595   7.976   0.368  12.990
12233SOL    HW138596   7.953   0.280  13.021
12233SOL    HW238597   8.060   0.388  13.032
12234SOL     OW38598   6.060   8.953   7.106
12234SOL    HW138599   6.129   8.997   7.056
12234SOL    HW238600   6.007   8.909   7.039
12235SOL     OW38601   3.206  10.166   2.265
12235SOL    HW138602   3.247  10.136   2.184
12235SOL    HW238603   3.259  10.242   2.292
12236SOL     OW38604   2.848   8.229   6.701
12236SOL    HW138605   2.899   8.175   6.641
12236SOL    HW238606   2.798   8.166   6.754
12237SOL     OW38607   1.753   6.210   5.258
12237SOL    HW138608   1.742   6.144   5.327
12237SOL    HW238609   1.777   6.290   5.305
12238SOL     OW38610   4.275   3.505   6.653
12238SOL    HW138611   4.281   3.460   6.738
12238SOL    HW238612   4.242   3.592   6.675
12239SOL     OW38613  13.543  12.850  10.713
12239SOL    HW138614  13.539  12.758  10.687
12239SOL    HW238615  13.474  12.892  10.663
12240SOL     OW38616   1.130  14.794   1.533
12240SOL    HW138617   1.072  14.779   1.607
12240SOL    HW238618   1.104  14.730   1.467
12241SOL     OW38619  10.634  13.361   3.251
12241SOL    HW138620  10.728  13.377   3.248
12241SOL    HW238621  10.622  13.302   3.326
12242SOL     OW38622  14.860   7.697   4.794
12242SOL    HW138623   0.020   7.667   4.875
12242SOL    HW238624  14.767   7.701   4.813
12243SOL     OW38625   9.812   9.772   7.275
12243SOL    HW138626   9.721   9.792   7.252
12243SOL    HW238627   9.864   9.830   7.220
12244SOL     OW38628   3.052  11.857   1.351
12244SOL    HW138629   2.965  11.886   1.381
12244SOL    HW238630   3.043  11.763   1.339
12245SOL     OW38631  11.641   6.348   3.029
12245SOL    HW138632  11.623   6.382   3.117
12245SOL    HW238633  11.569   6.383   2.976
12246SOL     OW38634  14.056   3.590   3.297
12246SOL    HW138635  14.082   3.565   3.385
12246SOL    HW238636  14.126   3.647   3.266
12247SOL     OW38637   1.326   8.720  13.112
12247SOL    HW138638   1.315   8.804  13.066
12247SOL    HW238639   1.300   8.654  13.048
12248SOL     OW38640  14.196   3.921  11.642
12248SOL    HW138641  14.173   3.949  11.731
12248SOL    HW238642  14.111   3.910  11.598
12249SOL     OW38643   9.430   2.702  12.579
12249SOL    HW138644   9.377   2.715  12.658
12249SOL    HW238645   9.406   2.615  12.547
12250SOL     OW38646   8.886   9.195   4.188
12250SOL    HW138647   8.962   9.173   4.134
12250SOL    HW238648   8.920   9.256   4.254
12251SOL     OW38649   8.677  14.862  10.594
12251SOL    HW138650   8.647  14.773  10.575
12251SOL    HW238651   8.604   0.021  10.642
12252SOL     OW38652  13.798  14.607   6.966
12252SOL    HW138653  13.746  14.643   6.895
12252SOL    HW238654  13.833  14.525   6.930
12253SOL     OW38655   7.948  12.431  13.437
12253SOL    HW138656   7.962  12.342  13.404
12253SOL    HW238657   7.957  12.422  13.532
12254SOL     OW38658   1.358   4.305  11.856
12254SOL    HW138659   1.341   4.399  11.869
12254SOL    HW238660   1.427   4.284  11.919
12255SOL     OW38661  13.231   2.621   8.577
12255SOL    HW138662  13.313   2.601   8.532
12255SOL    HW238663  13.214   2.713   8.557
12256SOL     OW38664   3.899   3.083   4.745
12256SOL    HW138665   3.943   3.061   4.663
12256SOL    HW238666   3.844   3.006   4.764
12257SOL     OW38667   1.098   2.326   5.579
12257SOL    HW138668   1.154   2.399   5.604
12257SOL    HW238669   1.095   2.330   5.483
12258SOL     OW38670   6.278   9.305   3.148
12258SOL    HW138671   6.282   9.234   3.212
12258SOL    HW238672   6.306   9.265   3.066
12259SOL     OW38673   4.410   6.973   1.371
12259SOL    HW138674   4.498   6.950   1.400
12259SOL    HW238675   4.354   6.901   1.401
12260SOL     OW38676   9.692  14.278   7.830
12260SOL    HW138677   9.605  14.243   7.811
12260SOL    HW238678   9.749  14.235   7.767
12261SOL     OW38679  10.293  12.489   5.527
12261SOL    HW138680  10.209  12.515   5.490
12261SOL    HW238681  10.321  12.415   5.473
12262SOL     OW38682   6.080   0.833   6.096
12262SOL    HW138683   6.081   0.915   6.145
12262SOL    HW238684   6.050   0.768   6.160
12263SOL     OW38685   9.059   2.036   2.429
12263SOL    HW138686   9.096   2.006   2.346
12263SOL    HW238687   8.973   1.994   2.433
12264SOL     OW38688   2.057   1.311   2.621
12264SOL    HW138689   2.147   1.313   2.590
12264SOL    HW238690   2.065   1.301   2.716
12265SOL     OW38691  12.853   7.683  11.635
12265SOL    HW138692  12.927   7.629  11.662
12265SOL    HW238693  12.807   7.703  11.716
12266SOL     OW38694   2.138   0.885   2.807
12266SOL    HW138695   2.063   0.944   2.808
12266SOL    HW238696   2.175   0.896   2.720
12267SOL     OW38697  10.947  10.503   3.437
12267SOL    HW138698  10.961  10.506   3.532
12267SOL    HW238699  10.868  10.555   3.422
12268SOL     OW38700   9.634   7.197  11.811
12268SOL    HW138701   9.622   7.176  11.904
12268SOL    HW238702   9.576   7.136  11.765
12269SOL     OW38703  11.160   0.900  14.481
12269SOL    HW138704  11.162   0.896  14.386
12269SOL    HW238705  11.183   0.991  14.502
12270SOL     OW38706   3.336   9.110   6.616
12270SOL    HW138707   3.374   9.176   6.557
12270SOL    HW238708   3.402   9.041   6.621
12271SOL     OW38709   2.206  13.043   8.787
12271SOL    HW138710   2.216  13.131   8.822
12271SOL    HW238711   2.199  13.056   8.692
12272SOL     OW38712   2.354   1.914   9.156
12272SOL    HW138713   2.391   1.987   9.206
12272SOL    HW238714   2.261   1.915   9.177
12273SOL     OW38715   0.084  14.110  13.087
12273SOL    HW138716   0.001  14.121  13.133
12273SOL    HW238717   0.146  14.163  13.138
12274SOL     OW38718   8.153  12.782  14.556
12274SOL    HW138719   8.145  12.692  14.524
12274SOL    HW238720   8.063  12.810  14.569
12275SOL     OW38721  12.079   7.018   4.451
12275SOL    HW138722  11.983   7.024   4.450
12275SOL    HW238723  12.108   7.109   4.453
12276SOL     OW38724  14.286  12.762  13.965
12276SOL    HW138725  14.219  12.775  14.033
12276SOL    HW238726  14.355  12.825  13.987
12277SOL     OW38727  12.414  13.332   8.849
12277SOL    HW138728  12.484  13.396   8.851
12277SOL    HW238729  12.367  13.350   8.767
12278SOL     OW38730   5.516   2.655   9.251
12278SOL    HW138731   5.516   2.613   9.337
12278SOL    HW238732   5.608   2.653   9.224
12279SOL     OW38733   2.884  12.772   2.239
12279SOL    HW138734   2.957  12.772   2.302
12279SOL    HW238735   2.838  12.853   2.257
12280SOL     OW38736   1.641   3.972   9.885
12280SOL    HW138737   1.551   4.002   9.873
12280SOL    HW238738   1.683   4.042   9.936
12281SOL     OW38739  10.514   6.954   3.815
12281SOL    HW138740  10.455   6.979   3.887
12281SOL    HW238741  10.473   6.991   3.737
12282SOL     OW38742  14.678   8.582   2.906
12282SOL    HW138743  14.628   8.505   2.935
12282SOL    HW238744  14.757   8.546   2.867
12283SOL     OW38745   4.404  12.324   7.775
12283SOL    HW138746   4.387  12.408   7.732
12283SOL    HW238747   4.324  12.305   7.824
12284SOL     OW38748   5.541  11.026   7.285
12284SOL    HW138749   5.493  10.983   7.214
12284SOL    HW238750   5.617  11.065   7.243
12285SOL     OW38751  13.567  12.229   8.251
12285SOL    HW138752  13.485  12.189   8.280
12285SOL    HW238753  13.635  12.178   8.293
12286SOL     OW38754   5.837  13.496   5.932
12286SOL    HW138755   5.843  13.532   5.844
12286SOL    HW238756   5.869  13.406   5.923
12287SOL     OW38757  13.263   1.871   9.028
12287SOL    HW138758  13.202   1.893   9.098
12287SOL    HW238759  13.333   1.823   9.072
12288SOL     OW38760  12.111   4.393   9.524
12288SOL    HW138761  12.107   4.487   9.544
12288SOL    HW238762  12.044   4.354   9.579
12289SOL     OW38763   1.243   1.305   0.834
12289SOL    HW138764   1.269   1.344   0.917
12289SOL    HW238765   1.259   1.373   0.769
12290SOL     OW38766   4.307  12.367  13.931
12290SOL    HW138767   4.352  12.444  13.965
12290SOL    HW238768   4.214  12.393  13.931
12291SOL     OW38769   4.554   9.986  14.023
12291SOL    HW138770   4.542   9.910  13.966
12291SOL    HW238771   4.614  10.043  13.974
12292SOL     OW38772   0.134  12.999   1.586
12292SOL    HW138773   0.041  13.013   1.568
12292SOL    HW238774   0.137  12.924   1.644
12293SOL     OW38775   4.179  10.705   3.855
12293SOL    HW138776   4.126  10.784   3.849
12293SOL    HW238777   4.174  10.679   3.947
12294SOL     OW38778   7.487  11.401   8.604
12294SOL    HW138779   7.493  11.313   8.566
12294SOL    HW238780   7.543  11.455   8.548
12295SOL     OW38781   7.957  14.823  13.958
12295SOL    HW138782   7.931   0.007  13.892
12295SOL    HW238783   7.906  14.846  14.036
12296SOL     OW38784   2.575   4.617   3.986
12296SOL    HW138785   2.479   4.624   3.978
12296SOL    HW238786   2.605   4.708   3.987
12297SOL     OW38787  12.574  12.062  11.179
12297SOL    HW138788  12.478  12.063  11.172
12297SOL    HW238789  12.599  12.154  11.178
12298SOL     OW38790   2.702  12.981   2.226
12298SOL    HW138791   2.637  12.969   2.156
12298SOL    HW238792   2.664  12.935   2.301
12299SOL     OW38793  12.743  13.080   4.378
12299SOL    HW138794  12.705  13.048   4.459
12299SOL    HW238795  12.735  13.008   4.316
12300SOL     OW38796   4.936   7.470   9.573
12300SOL    HW138797   4.851   7.510   9.554
12300SOL    HW238798   4.995   7.505   9.506
12301SOL     OW38799   6.707   5.818   5.864
12301SOL    HW138800   6.661   5.852   5.940
12301SOL    HW238801   6.669   5.731   5.849
12302SOL     OW38802   0.885   9.475  10.028
12302SOL    HW138803   0.899   9.524   9.947
12302SOL    HW238804   0.792   9.451  10.025
12303SOL     OW38805   0.410   5.375   7.446
12303SOL    HW138806   0.427   5.321   7.369
12303SOL    HW238807   0.489   5.368   7.499
12304SOL     OW38808  11.418  11.502   1.682
12304SOL    HW138809  11.421  11.410   1.655
12304SOL    HW238810  11.332  11.533   1.651
12305SOL     OW38811   5.176   1.290   1.857
12305SOL    HW138812   5.157   1.333   1.940
12305SOL    HW238813   5.239   1.222   1.878
12306SOL     OW38814  10.707   4.774   9.980
12306SOL    HW138815  10.780   4.732   9.936
12306SOL    HW238816  10.653   4.701  10.012
12307SOL     OW38817   6.986   6.508   5.713
12307SOL    HW138818   6.935   6.585   5.738
12307SOL    HW238819   6.928   6.459   5.655
12308SOL     OW38820   6.239   4.289   9.977
12308SOL    HW138821   6.268   4.202   9.947
12308SOL    HW238822   6.260   4.290  10.070
12309SOL     OW38823   2.493  11.329   0.066
12309SOL    HW138824   2.494  11.398   0.132
12309SOL    HW238825   2.574  11.280   0.080
12310SOL     OW38826   7.800   4.082  11.362
12310SOL    HW138827   7.783   4.039  11.446
12310SOL    HW238828   7.719   4.128  11.341
12311SOL     OW38829   9.745   4.440  10.680
12311SOL    HW138830   9.690   4.512  10.653
12311SOL    HW238831   9.684   4.370  10.705
12312SOL     OW38832   7.319   5.057  10.938
12312SOL    HW138833   7.233   5.091  10.915
12312SOL    HW238834   7.303   4.997  11.011
12313SOL     OW38835  12.241   8.131  10.519
12313SOL    HW138836  12.329   8.113  10.486
12313SOL    HW238837  12.255   8.160  10.609
12314SOL     OW38838   9.584   0.515   2.291
12314SOL    HW138839   9.516   0.449   2.304
12314SOL    HW238840   9.575   0.542   2.200
12315SOL     OW38841   0.674  11.610  12.646
12315SOL    HW138842   0.650  11.604  12.554
12315SOL    HW238843   0.725  11.690  12.653
12316SOL     OW38844   2.440   4.485  12.449
12316SOL    HW138845   2.457   4.519  12.537
12316SOL    HW238846   2.422   4.562  12.396
12317SOL     OW38847   4.377   4.386  11.208
12317SOL    HW138848   4.353   4.313  11.152
12317SOL    HW238849   4.295   4.432  11.225
12318SOL     OW38850  11.118   0.542  10.699
12318SOL    HW138851  11.164   0.587  10.769
12318SOL    HW238852  11.141   0.591  10.620
12319SOL     OW38853  14.751  13.328   1.048
12319SOL    HW138854  14.824  13.269   1.069
12319SOL    HW238855  14.761  13.401   1.108
12320SOL     OW38856   0.204   2.985  11.012
12320SOL    HW138857   0.184   3.071  11.049
12320SOL    HW238858   0.214   2.927  11.087
12321SOL     OW38859   6.292   6.865   1.733
12321SOL    HW138860   6.281   6.959   1.718
12321SOL    HW238861   6.357   6.860   1.804
12322SOL     OW38862   8.606   1.388   7.617
12322SOL    HW138863   8.614   1.392   7.521
12322SOL    HW238864   8.696   1.387   7.648
12323SOL     OW38865  10.344   1.937   6.479
12323SOL    HW138866  10.286   1.886   6.535
12323SOL    HW238867  10.429   1.934   6.524
12324SOL     OW38868   3.769  13.720  12.240
12324SOL    HW138869   3.744  13.704  12.331
12324SOL    HW238870   3.842  13.782  12.245
12325SOL     OW38871   7.032   8.176   3.598
12325SOL    HW138872   6.937   8.171   3.592
12325SOL    HW238873   7.049   8.191   3.691
12326SOL     OW38874   4.876   9.004   3.254
12326SOL    HW138875   4.892   8.927   3.309
12326SOL    HW238876   4.793   8.985   3.210
12327SOL     OW38877   8.450   0.928  14.448
12327SOL    HW138878   8.388   0.941  14.376
12327SOL    HW238879   8.496   0.848  14.427
12328SOL     OW38880   7.709   8.674   5.320
12328SOL    HW138881   7.631   8.700   5.370
12328SOL    HW238882   7.706   8.578   5.319
12329SOL     OW38883  12.318   7.825   7.980
12329SOL    HW138884  12.250   7.762   7.957
12329SOL    HW238885  12.273   7.909   7.982
12330SOL     OW38886  14.617   3.392  10.083
12330SOL    HW138887  14.687   3.441  10.126
12330SOL    HW238888  14.628   3.412   9.990
12331SOL     OW38889   9.090   6.257   7.585
12331SOL    HW138890   9.119   6.207   7.662
12331SOL    HW238891   9.129   6.211   7.511
12332SOL     OW38892   1.236   3.599   2.251
12332SOL    HW138893   1.143   3.615   2.265
12332SOL    HW238894   1.240   3.513   2.210
12333SOL     OW38895   7.486   3.942  11.452
12333SOL    HW138896   7.497   3.971  11.543
12333SOL    HW238897   7.567   3.897  11.431
12334SOL     OW38898   1.943   4.344  13.927
12334SOL    HW138899   1.861   4.348  13.976
12334SOL    HW238900   2.011   4.360  13.993
12335SOL     OW38901   7.454   5.413   1.068
12335SOL    HW138902   7.361   5.394   1.083
12335SOL    HW238903   7.496   5.328   1.069
12336SOL     OW38904  12.394   1.557   4.689
12336SOL    HW138905  12.303   1.585   4.686
12336SOL    HW238906  12.443   1.632   4.656
12337SOL     OW38907   9.442   2.745   4.305
12337SOL    HW138908   9.353   2.712   4.311
12337SOL    HW238909   9.489   2.678   4.254
12338SOL     OW38910   2.258   1.121   6.148
12338SOL    HW138911   2.313   1.194   6.119
12338SOL    HW238912   2.278   1.050   6.086
12339SOL     OW38913  10.450   2.769   1.434
12339SOL    HW138914  10.363   2.762   1.393
12339SOL    HW238915  10.510   2.736   1.367
12340SOL     OW38916   4.396   8.799   4.916
12340SOL    HW138917   4.326   8.742   4.948
12340SOL    HW238918   4.475   8.767   4.960
12341SOL     OW38919   1.438   9.114   0.728
12341SOL    HW138920   1.521   9.151   0.759
12341SOL    HW238921   1.451   9.019   0.732
12342SOL     OW38922  14.674  10.708   6.210
12342SOL    HW138923  14.692  10.627   6.257
12342SOL    HW238924  14.749  10.764   6.228
12343SOL     OW38925  11.812  12.619  12.341
12343SOL    HW138926  11.844  12.705  12.313
12343SOL    HW238927  11.877  12.558  12.305
12344SOL     OW38928  10.411   9.270   6.097
12344SOL    HW138929  10.326   9.305   6.069
12344SOL    HW238930  10.445   9.335   6.158
12345SOL     OW38931   1.267   9.616   4.752
12345SOL    HW138932   1.226   9.673   4.687
12345SOL    HW238933   1.208   9.617   4.826
12346SOL     OW38934  12.077  10.663   8.235
12346SOL    HW138935  12.005  10.607   8.206
12346SOL    HW238936  12.143  10.602   8.268
12347SOL     OW38937  12.056  13.553   9.059
12347SOL    HW138938  12.062  13.543   9.155
12347SOL    HW238939  12.101  13.635   9.041
12348SOL     OW38940  11.079   6.794   1.096
12348SOL    HW138941  11.099   6.887   1.099
12348SOL    HW238942  11.035   6.777   1.180
12349SOL     OW38943   5.493  14.390  10.421
12349SOL    HW138944   5.432  14.354  10.357
12349SOL    HW238945   5.437  14.433  10.486
12350SOL     OW38946   8.362  14.106  13.858
12350SOL    HW138947   8.350  14.154  13.776
12350SOL    HW238948   8.277  14.111  13.901
12351SOL     OW38949  11.601   4.508   7.985
12351SOL    HW138950  11.674   4.468   8.031
12351SOL    HW238951  11.535   4.522   8.053
12352SOL     OW38952   1.365  11.697   0.842
12352SOL    HW138953   1.282  11.695   0.794
12352SOL    HW238954   1.412  11.620   0.811
12353SOL     OW38955   9.506  14.319   7.189
12353SOL    HW138956   9.520  14.345   7.279
12353SOL    HW238957   9.438  14.251   7.194
12354SOL     OW38958  13.794   5.899   1.812
12354SOL    HW138959  13.757   5.988   1.812
12354SOL    HW238960  13.804   5.878   1.719
12355SOL     OW38961   6.828   4.713   9.815
12355SOL    HW138962   6.791   4.784   9.867
12355SOL    HW238963   6.918   4.705   9.847
12356SOL     OW38964  14.691  11.808   9.876
12356SOL    HW138965  14.653  11.837   9.792
12356SOL    HW238966  14.705  11.889   9.924
12357SOL     OW38967   6.257   7.574   1.180
12357SOL    HW138968   6.214   7.505   1.230
12357SOL    HW238969   6.275   7.643   1.245
12358SOL     OW38970   7.852   7.609   3.711
12358SOL    HW138971   7.799   7.534   3.735
12358SOL    HW238972   7.829   7.676   3.776
12359SOL     OW38973   5.593   0.187   4.587
12359SOL    HW138974   5.618   0.143   4.505
12359SOL    HW238975   5.599   0.280   4.566
12360SOL     OW38976   9.800   6.588   8.871
12360SOL    HW138977   9.784   6.681   8.858
12360SOL    HW238978   9.848   6.561   8.793
12361SOL     OW38979   8.567  11.778  13.963
12361SOL    HW138980   8.575  11.695  14.008
12361SOL    HW238981   8.497  11.764  13.899
12362SOL     OW38982   1.625  14.027   0.697
12362SOL    HW138983   1.680  14.001   0.624
12362SOL    HW238984   1.558  13.959   0.703
12363SOL     OW38985   6.596  12.708   5.233
12363SOL    HW138986   6.676  12.664   5.206
12363SOL    HW238987   6.526  12.646   5.212
12364SOL     OW38988   5.368   6.184   2.934
12364SOL    HW138989   5.407   6.117   2.990
12364SOL    HW238990   5.279   6.154   2.918
12365SOL     OW38991   6.058  10.281   9.173
12365SOL    HW138992   6.056  10.374   9.151
12365SOL    HW238993   6.021  10.237   9.096
12366SOL     OW38994   8.260  11.191   2.821
12366SOL    HW138995   8.186  11.252   2.822
12366SOL    HW238996   8.228  11.116   2.771
12367SOL     OW38997  14.821   8.372   7.026
12367SOL    HW138998  14.805   8.290   6.978
12367SOL    HW238999   0.033   8.366   7.053
12368SOL     OW39000   6.931  14.851  12.846
12368SOL    HW139001   6.881   0.017  12.779
12368SOL    HW239002   6.866  14.826  12.911
12369SOL     OW39003   8.126   0.616   7.969
12369SOL    HW139004   8.070   0.541   7.988
12369SOL    HW239005   8.104   0.640   7.879
12370SOL     OW39006  12.385   8.184   5.259
12370SOL    HW139007  12.461   8.205   5.313
12370SOL    HW239008  12.310   8.203   5.315
12371SOL     OW39009   1.431   7.948  10.523
12371SOL    HW139010   1.401   7.882  10.586
12371SOL    HW239011   1.497   7.903  10.470
12372SOL     OW39012   1.831   0.524  13.531
12372SOL    HW139013   1.789   0.451  13.486
12372SOL    HW239014   1.923   0.499  13.537
12373SOL     OW39015   0.877   6.986   0.045
12373SOL    HW139016   0.955   7.006  14.873
12373SOL    HW239017   0.835   6.913  14.880
12374SOL     OW39018   5.562   8.907  13.223
12374SOL    HW139019   5.580   8.836  13.285
12374SOL    HW239020   5.490   8.955  13.263
12375SOL     OW39021  10.735   4.968  14.034
12375SOL    HW139022  10.727   5.053  14.077
12375SOL    HW239023  10.661   4.917  14.067
12376SOL     OW39024   5.152  10.631  10.421
12376SOL    HW139025   5.192  10.544  10.413
12376SOL    HW239026   5.120  10.634  10.511
12377SOL     OW39027   1.187  11.400   1.854
12377SOL    HW139028   1.229  11.473   1.808
12377SOL    HW239029   1.105  11.437   1.887
12378SOL     OW39030   7.037   6.094   9.005
12378SOL    HW139031   7.074   6.016   9.046
12378SOL    HW239032   6.951   6.067   8.974
12379SOL     OW39033   3.350   2.652   1.485
12379SOL    HW139034   3.288   2.700   1.430
12379SOL    HW239035   3.319   2.666   1.575
12380SOL     OW39036   7.784   4.619  14.351
12380SOL    HW139037   7.791   4.714  14.364
12380SOL    HW239038   7.786   4.608  14.256
12381SOL     OW39039  14.866   6.475   8.502
12381SOL    HW139040   0.026   6.561   8.493
12381SOL    HW239041   0.014   6.427   8.424
12382SOL     OW39042  14.274   2.359  11.482
12382SOL    HW139043  14.329   2.308  11.422
12382SOL    HW239044  14.235   2.294  11.540
12383SOL     OW39045   4.134  11.750   8.572
12383SOL    HW139046   4.215  11.756   8.622
12383SOL    HW239047   4.137  11.663   8.531
12384SOL     OW39048  12.431   2.157   5.785
12384SOL    HW139049  12.494   2.174   5.716
12384SOL    HW239050  12.418   2.062   5.782
12385SOL     OW39051   6.366   1.347   5.762
12385SOL    HW139052   6.356   1.400   5.841
12385SOL    HW239053   6.448   1.299   5.776
12386SOL     OW39054   5.307   4.053  14.589
12386SOL    HW139055   5.231   4.011  14.549
12386SOL    HW239056   5.283   4.065  14.681
12387SOL     OW39057   3.506   6.206   7.978
12387SOL    HW139058   3.562   6.173   8.048
12387SOL    HW239059   3.550   6.179   7.897
12388SOL     OW39060  10.332   6.846  12.031
12388SOL    HW139061  10.331   6.845  12.126
12388SOL    HW239062  10.390   6.919  12.008
12389SOL     OW39063   2.878   0.719  14.240
12389SOL    HW139064   2.787   0.721  14.268
12389SOL    HW239065   2.919   0.654  14.298
12390SOL     OW39066   6.199  11.092  10.422
12390SOL    HW139067   6.206  11.030  10.494
12390SOL    HW239068   6.276  11.149  10.432
12391SOL     OW39069   2.914  12.597   0.400
12391SOL    HW139070   2.970  12.593   0.478
12391SOL    HW239071   2.975  12.593   0.327
12392SOL     OW39072  11.178   2.714   5.348
12392SOL    HW139073  11.252   2.774   5.358
12392SOL    HW239074  11.187   2.652   5.421
12393SOL     OW39075   6.676  13.386  10.125
12393SOL    HW139076   6.694  13.328  10.199
12393SOL    HW239077   6.735  13.356  10.055
12394SOL     OW39078  12.683  11.165   8.647
12394SOL    HW139079  12.591  11.179   8.670
12394SOL    HW239080  12.726  11.247   8.670
12395SOL     OW39081   1.308   2.686   7.647
12395SOL    HW139082   1.325   2.599   7.684
12395SOL    HW239083   1.390   2.733   7.658
12396SOL     OW39084   9.632  11.847  14.385
12396SOL    HW139085   9.553  11.823  14.433
12396SOL    HW239086   9.703  11.804  14.433
12397SOL     OW39087   0.990  13.200   2.584
12397SOL    HW139088   0.896  13.186   2.598
12397SOL    HW239089   1.031  13.159   2.660
12398SOL     OW39090  14.687  11.199  12.237
12398SOL    HW139091  14.750  11.224  12.304
12398SOL    HW239092  14.608  11.250  12.257
12399SOL     OW39093   0.727   9.887  14.608
12399SOL    HW139094   0.632   9.894  14.618
12399SOL    HW239095   0.740   9.855  14.519
12400SOL     OW39096  14.634   9.157   3.216
12400SOL    HW139097  14.650   9.239   3.167
12400SOL    HW239098  14.544   9.165   3.246
12401SOL     OW39099   3.860  13.366   7.259
12401SOL    HW139100   3.890  13.357   7.169
12401SOL    HW239101   3.896  13.450   7.288
12402SOL     OW39102  13.587  10.810  12.195
12402SOL    HW139103  13.631  10.804  12.280
12402SOL    HW239104  13.515  10.871  12.208
12403SOL     OW39105   3.398   6.233   8.373
12403SOL    HW139106   3.306   6.235   8.345
12403SOL    HW239107   3.438   6.308   8.329
12404SOL     OW39108   8.153   4.658  11.288
12404SOL    HW139109   8.119   4.634  11.202
12404SOL    HW239110   8.129   4.750  11.299
12405SOL     OW39111   8.878  14.228   9.097
12405SOL    HW139112   8.811  14.177   9.049
12405SOL    HW239113   8.919  14.282   9.030
12406SOL     OW39114   0.421   7.035   3.403
12406SOL    HW139115   0.365   7.016   3.328
12406SOL    HW239116   0.369   7.095   3.457
12407SOL     OW39117   1.718   2.319   9.947
12407SOL    HW139118   1.783   2.258   9.913
12407SOL    HW239119   1.758   2.357  10.025
12408SOL     OW39120   2.471  12.067  12.030
12408SOL    HW139121   2.454  12.037  12.120
12408SOL    HW239122   2.562  12.099  12.032
12409SOL     OW39123   8.780   7.417   4.134
12409SOL    HW139124   8.711   7.428   4.199
12409SOL    HW239125   8.831   7.342   4.166
12410SOL     OW39126  10.085  13.441   1.591
12410SOL    HW139127  10.078  13.346   1.576
12410SOL    HW239128  10.071  13.479   1.504
12411SOL     OW39129   8.137   0.685   6.250
12411SOL    HW139130   8.084   0.606   6.264
12411SOL    HW239131   8.092   0.731   6.180
12412SOL     OW39132   4.425   3.010  10.921
12412SOL    HW139133   4.344   3.031  10.968
12412SOL    HW239134   4.494   3.041  10.979
12413SOL     OW39135   9.420   2.614   9.765
12413SOL    HW139136   9.326   2.632   9.759
12413SOL    HW239137   9.455   2.689   9.813
12414SOL     OW39138   6.597  12.855   2.884
12414SOL    HW139139   6.620  12.862   2.976
12414SOL    HW239140   6.672  12.893   2.838
12415SOL     OW39141  12.034  13.459   5.297
12415SOL    HW139142  12.070  13.375   5.328
12415SOL    HW239143  12.029  13.513   5.376
12416SOL     OW39144   0.080  11.776   7.201
12416SOL    HW139145  14.869  11.771   7.231
12416SOL    HW239146   0.103  11.868   7.210
12417SOL     OW39147  10.219  14.111   3.700
12417SOL    HW139148  10.209  14.047   3.629
12417SOL    HW239149  10.158  14.082   3.768
12418SOL     OW39150  13.440   2.726   4.861
12418SOL    HW139151  13.519   2.688   4.899
12418SOL    HW239152  13.438   2.816   4.894
12419SOL     OW39153   7.508   1.704   8.219
12419SOL    HW139154   7.497   1.799   8.232
12419SOL    HW239155   7.602   1.691   8.220
12420SOL     OW39156  12.462   3.659   3.962
12420SOL    HW139157  12.457   3.564   3.972
12420SOL    HW239158  12.555   3.677   3.946
12421SOL     OW39159   2.238   7.630  11.607
12421SOL    HW139160   2.280   7.578  11.539
12421SOL    HW239161   2.260   7.720  11.585
12422SOL     OW39162   6.071  10.134  14.840
12422SOL    HW139163   6.002  10.175  14.788
12422SOL    HW239164   6.104  10.062  14.785
12423SOL     OW39165   0.152   1.625   2.115
12423SOL    HW139166   0.205   1.546   2.100
12423SOL    HW239167   0.170   1.647   2.207
12424SOL     OW39168  10.776   5.282   2.426
12424SOL    HW139169  10.843   5.340   2.389
12424SOL    HW239170  10.825   5.220   2.480
12425SOL     OW39171  14.876  12.840   0.336
12425SOL    HW139172   0.078  12.791   0.334
12425SOL    HW239173  14.834  12.813   0.418
12426SOL     OW39174   4.255  10.696  14.210
12426SOL    HW139175   4.184  10.633  14.222
12426SOL    HW239176   4.334  10.642  14.200
12427SOL     OW39177  10.334   0.775   4.423
12427SOL    HW139178  10.354   0.721   4.500
12427SOL    HW239179  10.326   0.713   4.351
12428SOL     OW39180  13.664  13.523   0.804
12428SOL    HW139181  13.710  13.499   0.884
12428SOL    HW239182  13.730  13.516   0.735
12429SOL     OW39183   9.505   1.545   8.945
12429SOL    HW139184   9.495   1.561   8.851
12429SOL    HW239185   9.503   1.450   8.954
12430SOL     OW39186   3.068   6.775   2.580
12430SOL    HW139187   3.070   6.857   2.629
12430SOL    HW239188   2.975   6.756   2.570
12431SOL     OW39189  13.131  11.160  10.922
12431SOL    HW139190  13.077  11.180  10.846
12431SOL    HW239191  13.145  11.066  10.918
12432SOL     OW39192   7.656   8.768  14.804
12432SOL    HW139193   7.713   8.786  14.729
12432SOL    HW239194   7.672   8.840  14.864
12433SOL     OW39195   5.498  10.553   4.152
12433SOL    HW139196   5.539  10.635   4.177
12433SOL    HW239197   5.545  10.486   4.202
12434SOL     OW39198   8.733   5.518  11.560
12434SOL    HW139199   8.701   5.436  11.522
12434SOL    HW239200   8.721   5.583  11.491
12435SOL     OW39201  11.155   0.338   7.847
12435SOL    HW139202  11.168   0.308   7.757
12435SOL    HW239203  11.090   0.409   7.839
12436SOL     OW39204   5.479   4.050  11.426
12436SOL    HW139205   5.541   4.123  11.438
12436SOL    HW239206   5.526   3.974  11.459
12437SOL     OW39207   7.082   3.634  14.711
12437SOL    HW139208   7.114   3.549  14.682
12437SOL    HW239209   7.025   3.616  14.785
12438SOL     OW39210  12.480  10.825   8.131
12438SOL    HW139211  12.548  10.762   8.110
12438SOL    HW239212  12.442  10.849   8.046
12439SOL     OW39213   0.300   2.358   7.244
12439SOL    HW139214   0.257   2.441   7.261
12439SOL    HW239215   0.392   2.374   7.264
12440SOL     OW39216  11.199   4.914  12.574
12440SOL    HW139217  11.242   4.978  12.518
12440SOL    HW239218  11.262   4.841  12.578
12441SOL     OW39219   0.506   0.536   4.262
12441SOL    HW139220   0.551   0.478   4.323
12441SOL    HW239221   0.414   0.530   4.286
12442SOL     OW39222   5.280   5.495   6.903
12442SOL    HW139223   5.320   5.569   6.858
12442SOL    HW239224   5.260   5.432   6.834
12443SOL     OW39225   7.296   4.377  14.667
12443SOL    HW139226   7.366   4.341  14.613
12443SOL    HW239227   7.237   4.420  14.606
12444SOL     OW39228  13.651  14.100   2.509
12444SOL    HW139229  13.705  14.092   2.430
12444SOL    HW239230  13.577  14.153   2.482
12445SOL     OW39231   6.054  14.386   8.528
12445SOL    HW139232   6.069  14.361   8.619
12445SOL    HW239233   5.960  14.376   8.515
12446SOL     OW39234   0.962  11.414   3.373
12446SOL    HW139235   0.920  11.477   3.431
12446SOL    HW239236   0.972  11.335   3.427
12447SOL     OW39237   8.404   4.013   2.021
12447SOL    HW139238   8.322   4.039   1.978
12447SOL    HW239239   8.390   4.033   2.113
12448SOL     OW39240   7.487  12.048   4.226
12448SOL    HW139241   7.564  12.060   4.281
12448SOL    HW239242   7.417  12.023   4.286
12449SOL     OW39243   2.912   2.720  10.415
12449SOL    HW139244   2.975   2.707  10.343
12449SOL    HW239245   2.883   2.631  10.437
12450SOL     OW39246  13.472   4.465   7.802
12450SOL    HW139247  13.473   4.558   7.824
12450SOL    HW239248  13.460   4.464   7.707
12451SOL     OW39249   6.312   4.479   1.117
12451SOL    HW139250   6.294   4.572   1.130
12451SOL    HW239251   6.317   4.469   1.022
12452SOL     OW39252  13.978   7.483  13.470
12452SOL    HW139253  13.891   7.516  13.446
12452SOL    HW239254  13.994   7.412  13.409
12453SOL     OW39255   3.094  11.907  10.307
12453SOL    HW139256   3.088  11.830  10.364
12453SOL    HW239257   3.114  11.870  10.220
12454SOL     OW39258   8.405   4.449   1.875
12454SOL    HW139259   8.469   4.501   1.924
12454SOL    HW239260   8.335   4.431   1.937
12455SOL     OW39261   2.973   3.670   8.193
12455SOL    HW139262   3.018   3.674   8.109
12455SOL    HW239263   2.982   3.758   8.230
12456SOL     OW39264   1.440  14.022  10.438
12456SOL    HW139265   1.412  14.084  10.504
12456SOL    HW239266   1.507  13.969  10.482
12457SOL     OW39267   6.409  14.535   4.575
12457SOL    HW139268   6.498  14.511   4.601
12457SOL    HW239269   6.375  14.457   4.530
12458SOL     OW39270  10.437  12.492   1.566
12458SOL    HW139271  10.495  12.566   1.585
12458SOL    HW239272  10.425  12.448   1.650
12459SOL     OW39273   6.681   9.374   6.913
12459SOL    HW139274   6.607   9.361   6.971
12459SOL    HW239275   6.663   9.319   6.837
12460SOL     OW39276   3.688   4.002   9.105
12460SOL    HW139277   3.749   3.957   9.047
12460SOL    HW239278   3.605   3.956   9.095
12461SOL     OW39279  14.796   1.464   6.017
12461SOL    HW139280  14.828   1.484   6.105
12461SOL    HW239281  14.806   1.546   5.968
12462SOL     OW39282  12.359   2.545  14.471
12462SOL    HW139283  12.375   2.517  14.381
12462SOL    HW239284  12.270   2.581  14.470
12463SOL     OW39285  13.535   0.681   7.873
12463SOL    HW139286  13.483   0.612   7.830
12463SOL    HW239287  13.490   0.695   7.957
12464SOL     OW39288   7.017   0.335  11.834
12464SOL    HW139289   6.936   0.378  11.811
12464SOL    HW239290   7.065   0.399  11.886
12465SOL     OW39291  10.057   2.750   2.442
12465SOL    HW139292  10.124   2.694   2.404
12465SOL    HW239293  10.000   2.771   2.369
12466SOL     OW39294   2.943   0.385   0.337
12466SOL    HW139295   2.918   0.461   0.391
12466SOL    HW239296   2.895   0.312   0.375
12467SOL     OW39297   3.199   4.924   7.222
12467SOL    HW139298   3.287   4.929   7.186
12467SOL    HW239299   3.170   5.015   7.228
12468SOL     OW39300   1.632   9.447  14.074
12468SOL    HW139301   1.587   9.509  14.017
12468SOL    HW239302   1.567   9.380  14.094
12469SOL     OW39303   8.032  11.008   4.643
12469SOL    HW139304   7.947  11.050   4.653
12469SOL    HW239305   8.047  10.964   4.726
12470SOL     OW39306  14.398   6.492  13.514
12470SOL    HW139307  14.470   6.438  13.479
12470SOL    HW239308  14.415   6.497  13.608
12471SOL     OW39309   8.246  11.134   5.268
12471SOL    HW139310   8.246  11.109   5.360
12471SOL    HW239311   8.153  11.144   5.246
12472SOL     OW39312  12.755   1.886  10.868
12472SOL    HW139313  12.824   1.950  10.853
12472SOL    HW239314  12.736   1.892  10.962
12473SOL     OW39315   5.739  11.164   7.169
12473SOL    HW139316   5.791  11.229   7.217
12473SOL    HW239317   5.696  11.214   7.099
12474SOL     OW39318   8.157   3.228  12.375
12474SOL    HW139319   8.082   3.199  12.427
12474SOL    HW239320   8.128   3.219  12.284
12475SOL     OW39321   4.996  11.378  11.793
12475SOL    HW139322   4.939  11.455  11.789
12475SOL    HW239323   4.963  11.328  11.867
12476SOL     OW39324   4.705  10.945  13.034
12476SOL    HW139325   4.736  10.897  13.112
12476SOL    HW239326   4.617  10.909  13.018
12477SOL     OW39327  11.872  12.496   7.685
12477SOL    HW139328  11.924  12.479   7.606
12477SOL    HW239329  11.840  12.586   7.674
12478SOL     OW39330   1.085  11.290   2.380
12478SOL    HW139331   1.120  11.311   2.293
12478SOL    HW239332   0.993  11.269   2.364
12479SOL     OW39333   1.229   0.936   8.638
12479SOL    HW139334   1.144   0.920   8.598
12479SOL    HW239335   1.292   0.912   8.570
12480SOL     OW39336   2.663   6.694   7.204
12480SOL    HW139337   2.638   6.616   7.253
12480SOL    HW239338   2.752   6.714   7.234
12481SOL     OW39339   1.911   1.135   2.435
12481SOL    HW139340   1.997   1.154   2.472
12481SOL    HW239341   1.907   1.040   2.429
12482SOL     OW39342   4.449   6.505   0.003
12482SOL    HW139343   4.410   6.423  14.854
12482SOL    HW239344   4.543   6.489   0.005
12483SOL     OW39345   9.491  10.101  10.285
12483SOL    HW139346   9.521  10.105  10.194
12483SOL    HW239347   9.396  10.108  10.280
12484SOL     OW39348  12.351   7.875   0.045
12484SOL    HW139349  12.285   7.910  14.866
12484SOL    HW239350  12.336   7.780   0.044
12485SOL     OW39351   3.745  11.922   4.636
12485SOL    HW139352   3.735  11.844   4.690
12485SOL    HW239353   3.750  11.889   4.546
12486SOL     OW39354   5.693  11.867  13.983
12486SOL    HW139355   5.784  11.869  14.011
12486SOL    HW239356   5.658  11.952  14.009
12487SOL     OW39357  10.620  10.432   0.153
12487SOL    HW139358  10.573  10.473   0.226
12487SOL    HW239359  10.693  10.386   0.195
12488SOL     OW39360   1.231   2.364   0.914
12488SOL    HW139361   1.179   2.296   0.956
12488SOL    HW239362   1.261   2.419   0.985
12489SOL     OW39363  14.716  12.686   2.309
12489SOL    HW139364  14.793  12.743   2.310
12489SOL    HW239365  14.642  12.746   2.299
12490SOL     OW39366   0.131  10.198  12.529
12490SOL    HW139367   0.150  10.290  12.509
12490SOL    HW239368   0.212  10.164  12.567
12491SOL     OW39369  14.103   7.430   6.571
12491SOL    HW139370  14.080   7.342   6.601
12491SOL    HW239371  14.027   7.458   6.519
12492SOL     OW39372   4.182   1.851   5.832
12492SOL    HW139373   4.119   1.919   5.857
12492SOL    HW239374   4.129   1.771   5.824
12493SOL     OW39375   7.179   5.775   8.525
12493SOL    HW139376   7.130   5.767   8.606
12493SOL    HW239377   7.163   5.865   8.496
12494SOL     OW39378  13.862   1.428   7.016
12494SOL    HW139379  13.830   1.425   6.926
12494SOL    HW239380  13.920   1.353   7.024
12495SOL     OW39381  13.418   7.532  11.598
12495SOL    HW139382  13.481   7.466  11.571
12495SOL    HW239383  13.450   7.613  11.559
12496SOL     OW39384   3.694   5.939   1.068
12496SOL    HW139385   3.609   5.982   1.078
12496SOL    HW239386   3.749   5.981   1.135
12497SOL     OW39387   1.125  10.583  12.005
12497SOL    HW139388   1.218  10.599  12.016
12497SOL    HW239389   1.086  10.603  12.090
12498SOL     OW39390  10.752   8.867   6.725
12498SOL    HW139391  10.706   8.813   6.661
12498SOL    HW239392  10.742   8.820   6.808
12499SOL     OW39393   8.241   4.620   8.400
12499SOL    HW139394   8.150   4.597   8.381
12499SOL    HW239395   8.258   4.583   8.487
12500SOL     OW39396   6.448   5.011   3.064
12500SOL    HW139397   6.472   5.084   3.121
12500SOL    HW239398   6.399   5.053   2.993
12501SOL     OW39399   0.222   1.361   4.369
12501SOL    HW139400   0.180   1.284   4.331
12501SOL    HW239401   0.276   1.396   4.298
12502SOL     OW39402   1.583   7.531   1.453
12502SOL    HW139403   1.560   7.445   1.415
12502SOL    HW239404   1.534   7.594   1.400
12503SOL     OW39405   7.176  13.533   3.412
12503SOL    HW139406   7.114  13.482   3.464
12503SOL    HW239407   7.230  13.468   3.367
12504SOL     OW39408  14.483   9.973   6.640
12504SOL    HW139409  14.415   9.973   6.708
12504SOL    HW239410  14.565   9.974   6.689
12505SOL     OW39411   8.403   8.073   8.628
12505SOL    HW139412   8.435   8.111   8.710
12505SOL    HW239413   8.474   8.015   8.599
12506SOL     OW39414   6.747   9.685   9.824
12506SOL    HW139415   6.840   9.685   9.800
12506SOL    HW239416   6.745   9.728   9.909
12507SOL     OW39417   2.091   3.303  12.893
12507SOL    HW139418   2.130   3.291  12.980
12507SOL    HW239419   2.166   3.321  12.836
12508SOL     OW39420   8.065   9.921   7.649
12508SOL    HW139421   7.987   9.922   7.705
12508SOL    HW239422   8.036   9.960   7.567
12509SOL     OW39423  14.565  10.331  13.003
12509SOL    HW139424  14.561  10.238  13.026
12509SOL    HW239425  14.524  10.337  12.917
12510SOL     OW39426   0.532  14.586   0.784
12510SOL    HW139427   0.493  14.576   0.871
12510SOL    HW239428   0.485  14.659   0.744
12511SOL     OW39429   2.011   0.571   4.863
12511SOL    HW139430   2.070   0.532   4.798
12511SOL    HW239431   2.045   0.660   4.875
12512SOL     OW39432   9.283  11.316   2.799
12512SOL    HW139433   9.257  11.358   2.717
12512SOL    HW239434   9.200  11.292   2.841
12513SOL     OW39435  13.963   8.259   0.490
12513SOL    HW139436  13.971   8.278   0.397
12513SOL    HW239437  13.874   8.287   0.512
12514SOL     OW39438  13.142   6.953  11.913
12514SOL    HW139439  13.111   6.996  11.833
12514SOL    HW239440  13.198   6.882  11.882
12515SOL     OW39441   4.506  10.221   7.596
12515SOL    HW139442   4.562  10.221   7.673
12515SOL    HW239443   4.481  10.312   7.584
12516SOL     OW39444  14.847   1.808   4.487
12516SOL    HW139445   0.060   1.814   4.465
12516SOL    HW239446  14.822   1.896   4.513
12517SOL     OW39447   9.154   1.204  10.298
12517SOL    HW139448   9.079   1.234  10.245
12517SOL    HW239449   9.218   1.174  10.234
12518SOL     OW39450   7.836   0.093  12.935
12518SOL    HW139451   7.807   0.176  12.898
12518SOL    HW239452   7.761   0.064  12.988
12519SOL     OW39453   8.532   4.223   7.016
12519SOL    HW139454   8.540   4.163   7.089
12519SOL    HW239455   8.458   4.280   7.038
12520SOL     OW39456   4.345  10.839  13.998
12520SOL    HW139457   4.425  10.867  14.042
12520SOL    HW239458   4.293  10.799  14.067
12521SOL     OW39459   2.911  14.066   6.667
12521SOL    HW139460   2.905  13.986   6.720
12521SOL    HW239461   2.842  14.057   6.602
12522SOL     OW39462  10.050   5.907   6.749
12522SOL    HW139463  10.013   5.954   6.824
12522SOL    HW239464  10.144   5.916   6.759
12523SOL     OW39465   1.829   1.060   2.135
12523SOL    HW139466   1.867   1.128   2.190
12523SOL    HW239467   1.747   1.037   2.178
12524SOL     OW39468   3.914   6.760   4.649
12524SOL    HW139469   3.971   6.683   4.643
12524SOL    HW239470   3.865   6.760   4.567
12525SOL     OW39471   5.550   3.433   3.639
12525SOL    HW139472   5.474   3.475   3.600
12525SOL    HW239473   5.610   3.505   3.660
12526SOL     OW39474   4.738   7.943   0.740
12526SOL    HW139475   4.707   7.963   0.828
12526SOL    HW239476   4.829   7.918   0.751
12527SOL     OW39477   3.676   1.232   6.558
12527SOL    HW139478   3.719   1.301   6.508
12527SOL    HW239479   3.702   1.151   6.515
12528SOL     OW39480   3.719   5.570   8.133
12528SOL    HW139481   3.757   5.626   8.200
12528SOL    HW239482   3.774   5.585   8.056
12529SOL     OW39483   5.570  13.625   0.351
12529SOL    HW139484   5.566  13.562   0.280
12529SOL    HW239485   5.646  13.680   0.331
12530SOL     OW39486  13.872   7.488   8.266
12530SOL    HW139487  13.898   7.474   8.175
12530SOL    HW239488  13.913   7.417   8.315
12531SOL     OW39489  12.291   5.028  12.624
12531SOL    HW139490  12.364   4.973  12.652
12531SOL    HW239491  12.216   4.968  12.622
12532SOL     OW39492   5.251   0.652   9.598
12532SOL    HW139493   5.254   0.723   9.662
12532SOL    HW239494   5.310   0.680   9.528
12533SOL     OW39495  11.794   9.411   2.551
12533SOL    HW139496  11.836   9.326   2.565
12533SOL    HW239497  11.700   9.393   2.562
12534SOL     OW39498   7.166   5.332   5.758
12534SOL    HW139499   7.146   5.279   5.681
12534SOL    HW239500   7.098   5.399   5.759
12535SOL     OW39501   7.638  13.773   2.880
12535SOL    HW139502   7.543  13.778   2.882
12535SOL    HW239503   7.659  13.753   2.788
12536SOL     OW39504  10.627  13.091   9.886
12536SOL    HW139505  10.590  13.074   9.799
12536SOL    HW239506  10.596  13.179   9.908
12537SOL     OW39507   1.044  11.034   1.000
12537SOL    HW139508   0.954  11.005   1.011
12537SOL    HW239509   1.072  10.995   0.917
12538SOL     OW39510   5.640  13.862  13.458
12538SOL    HW139511   5.605  13.951  13.463
12538SOL    HW239512   5.701  13.856  13.532
12539SOL     OW39513  10.266   8.405  13.323
12539SOL    HW139514  10.252   8.468  13.252
12539SOL    HW239515  10.330   8.343  13.287
12540SOL     OW39516   8.191   7.586  12.797
12540SOL    HW139517   8.129   7.535  12.745
12540SOL    HW239518   8.204   7.667  12.748
12541SOL     OW39519   6.796   0.566  12.083
12541SOL    HW139520   6.736   0.639  12.069
12541SOL    HW239521   6.741   0.495  12.115
12542SOL     OW39522   1.775   3.423   4.057
12542SOL    HW139523   1.845   3.487   4.046
12542SOL    HW239524   1.816   3.338   4.041
12543SOL     OW39525  13.145   0.419  14.006
12543SOL    HW139526  13.101   0.443  14.087
12543SOL    HW239527  13.218   0.363  14.033
12544SOL     OW39528   1.971  12.982   7.866
12544SOL    HW139529   1.975  12.982   7.961
12544SOL    HW239530   1.878  12.965   7.846
12545SOL     OW39531  11.771   1.921   4.141
12545SOL    HW139532  11.722   1.851   4.184
12545SOL    HW239533  11.816   1.879   4.068
12546SOL     OW39534   2.585   7.811  11.167
12546SOL    HW139535   2.673   7.826  11.201
12546SOL    HW239536   2.597   7.747  11.097
12547SOL     OW39537   4.309   7.894   6.669
12547SOL    HW139538   4.399   7.917   6.644
12547SOL    HW239539   4.302   7.801   6.650
12548SOL     OW39540  12.427  12.114   3.184
12548SOL    HW139541  12.366  12.104   3.256
12548SOL    HW239542  12.427  12.207   3.164
12549SOL     OW39543   0.745   3.159  11.114
12549SOL    HW139544   0.777   3.160  11.023
12549SOL    HW239545   0.662   3.113  11.109
12550SOL     OW39546   0.587   1.583   7.459
12550SOL    HW139547   0.645   1.658   7.469
12550SOL    HW239548   0.529   1.586   7.535
12551SOL     OW39549  14.012   6.521   6.091
12551SOL    HW139550  14.041   6.605   6.053
12551SOL    HW239551  13.919   6.535   6.110
12552SOL     OW39552   9.432  12.683   3.544
12552SOL    HW139553   9.507  12.742   3.533
12552SOL    HW239554   9.462  12.618   3.608
12553SOL     OW39555   5.046   5.258   5.317
12553SOL    HW139556   5.032   5.218   5.231
12553SOL    HW239557   5.138   5.241   5.337
12554SOL     OW39558  11.673   9.702   9.889
12554SOL    HW139559  11.754   9.651   9.893
12554SOL    HW239560  11.603   9.636   9.889
12555SOL     OW39561   9.855   1.938  12.236
12555SOL    HW139562   9.816   2.015  12.195
12555SOL    HW239563   9.793   1.867  12.218
12556SOL     OW39564   1.799   6.591  14.083
12556SOL    HW139565   1.739   6.519  14.065
12556SOL    HW239566   1.853   6.560  14.155
12557SOL     OW39567   3.563   9.300   8.680
12557SOL    HW139568   3.612   9.379   8.702
12557SOL    HW239569   3.485   9.332   8.635
12558SOL     OW39570   1.073  14.013   7.875
12558SOL    HW139571   1.125  13.993   7.952
12558SOL    HW239572   1.091  14.105   7.856
12559SOL     OW39573   1.838   7.247   9.990
12559SOL    HW139574   1.796   7.166   9.961
12559SOL    HW239575   1.902   7.219  10.055
12560SOL     OW39576   3.083   2.124   1.989
12560SOL    HW139577   3.129   2.189   1.936
12560SOL    HW239578   2.991   2.151   1.986
12561SOL     OW39579   9.765   7.767   2.531
12561SOL    HW139580   9.735   7.716   2.456
12561SOL    HW239581   9.793   7.851   2.493
12562SOL     OW39582   9.823   3.158  12.110
12562SOL    HW139583   9.898   3.191  12.062
12562SOL    HW239584   9.861   3.113  12.186
12563SOL     OW39585   1.435   6.005   9.585
12563SOL    HW139586   1.519   5.971   9.615
12563SOL    HW239587   1.409   6.067   9.653
12564SOL     OW39588   1.562  10.883   2.690
12564SOL    HW139589   1.501  10.903   2.619
12564SOL    HW239590   1.590  10.968   2.723
12565SOL     OW39591  11.672   7.523  13.538
12565SOL    HW139592  11.603   7.460  13.516
12565SOL    HW239593  11.637   7.570  13.614
12566SOL     OW39594   6.002  12.087   4.291
12566SOL    HW139595   6.059  12.019   4.254
12566SOL    HW239596   5.923  12.040   4.318
12567SOL     OW39597   5.988   1.185   6.017
12567SOL    HW139598   6.033   1.191   5.934
12567SOL    HW239599   5.913   1.128   5.999
12568SOL     OW39600  14.627  13.104   4.515
12568SOL    HW139601  14.704  13.160   4.516
12568SOL    HW239602  14.555  13.161   4.541
12569SOL     OW39603   1.030   6.643  14.356
12569SOL    HW139604   1.117   6.683  14.346
12569SOL    HW239605   0.977   6.683  14.287
12570SOL     OW39606  10.558   4.812  11.098
12570SOL    HW139607  10.494   4.816  11.027
12570SOL    HW239608  10.580   4.904  11.115
12571SOL     OW39609   5.617   9.573   6.990
12571SOL    HW139610   5.567   9.512   6.937
12571SOL    HW239611   5.702   9.578   6.946
12572SOL     OW39612   0.633   7.865   3.778
12572SOL    HW139613   0.562   7.876   3.715
12572SOL    HW239614   0.659   7.954   3.801
12573SOL     OW39615   4.163   3.246   7.034
12573SOL    HW139616   4.237   3.279   6.983
12573SOL    HW239617   4.090   3.302   7.008
12574SOL     OW39618   7.620   2.147  10.932
12574SOL    HW139619   7.684   2.077  10.947
12574SOL    HW239620   7.573   2.119  10.854
12575SOL     OW39621   1.184   4.317  12.687
12575SOL    HW139622   1.239   4.301  12.611
12575SOL    HW239623   1.100   4.346  12.651
12576SOL     OW39624   1.260   6.125   2.372
12576SOL    HW139625   1.317   6.096   2.444
12576SOL    HW239626   1.258   6.051   2.311
12577SOL     OW39627   6.450  10.606   4.138
12577SOL    HW139628   6.424  10.658   4.214
12577SOL    HW239629   6.517  10.546   4.171
12578SOL     OW39630   4.706  12.597  14.728
12578SOL    HW139631   4.778  12.561  14.676
12578SOL    HW239632   4.630  12.543  14.704
12579SOL     OW39633   9.006   7.221  12.570
12579SOL    HW139634   8.917   7.229  12.606
12579SOL    HW239635   9.049   7.301  12.598
12580SOL     OW39636   6.060   2.735   2.632
12580SOL    HW139637   6.082   2.816   2.586
12580SOL    HW239638   6.034   2.763   2.720
12581SOL     OW39639   2.426  13.493  11.020
12581SOL    HW139640   2.420  13.579  11.061
12581SOL    HW239641   2.335  13.463  11.014
12582SOL     OW39642   8.152  12.436   3.728
12582SOL    HW139643   8.132  12.375   3.657
12582SOL    HW239644   8.233  12.404   3.766
12583SOL     OW39645  11.574   7.956   3.076
12583SOL    HW139646  11.531   7.945   2.992
12583SOL    HW239647  11.505   7.985   3.136
12584SOL     OW39648  14.086  14.750   9.303
12584SOL    HW139649  14.106  14.760   9.396
12584SOL    HW239650  13.990  14.752   9.298
12585SOL     OW39651  12.427  13.698   2.952
12585SOL    HW139652  12.408  13.759   2.881
12585SOL    HW239653  12.345  13.649   2.963
12586SOL     OW39654   4.922   0.282  11.188
12586SOL    HW139655   4.876   0.201  11.207
12586SOL    HW239656   4.862   0.331  11.132
12587SOL     OW39657  13.771  14.072   1.102
12587SOL    HW139658  13.800  14.103   1.188
12587SOL    HW239659  13.795  14.142   1.042
12588SOL     OW39660   5.393   1.819   4.229
12588SOL    HW139661   5.412   1.726   4.225
12588SOL    HW239662   5.344   1.837   4.149
12589SOL     OW39663  11.610   9.786  13.199
12589SOL    HW139664  11.701   9.786  13.169
12589SOL    HW239665  11.599   9.871  13.242
12590SOL     OW39666   8.319  10.701  12.900
12590SOL    HW139667   8.297  10.607  12.900
12590SOL    HW239668   8.239  10.744  12.930
12591SOL     OW39669   1.878   0.679   1.568
12591SOL    HW139670   1.952   0.736   1.589
12591SOL    HW239671   1.908   0.628   1.493
12592SOL     OW39672   6.002   7.926   1.739
12592SOL    HW139673   5.992   8.010   1.694
12592SOL    HW239674   6.060   7.945   1.813
12593SOL     OW39675  10.562   0.330   0.833
12593SOL    HW139676  10.645   0.318   0.788
12593SOL    HW239677  10.499   0.350   0.763
12594SOL     OW39678  14.197  11.380  10.844
12594SOL    HW139679  14.108  11.407  10.820
12594SOL    HW239680  14.211  11.422  10.929
12595SOL     OW39681   6.638   0.943  13.558
12595SOL    HW139682   6.723   0.921  13.597
12595SOL    HW239683   6.610   0.862  13.515
12596SOL     OW39684   9.764  11.841   9.237
12596SOL    HW139685   9.733  11.838   9.327
12596SOL    HW239686   9.689  11.813   9.184
12597SOL     OW39687   8.867   0.649   3.990
12597SOL    HW139688   8.829   0.591   4.056
12597SOL    HW239689   8.934   0.596   3.947
12598SOL     OW39690  10.868   3.767  10.249
12598SOL    HW139691  10.866   3.697  10.315
12598SOL    HW239692  10.892   3.722  10.168
12599SOL     OW39693   7.816  11.602   6.907
12599SOL    HW139694   7.742  11.557   6.865
12599SOL    HW239695   7.779  11.637   6.988
12600SOL     OW39696   6.281  10.018   3.070
12600SOL    HW139697   6.337   9.943   3.052
12600SOL    HW239698   6.201  10.001   3.020
12601SOL     OW39699  13.290   6.810   4.154
12601SOL    HW139700  13.263   6.898   4.178
12601SOL    HW239701  13.386   6.816   4.146
12602SOL     OW39702   5.207  14.005   2.308
12602SOL    HW139703   5.189  14.002   2.214
12602SOL    HW239704   5.301  14.019   2.315
12603SOL     OW39705   4.304   1.270   3.787
12603SOL    HW139706   4.261   1.302   3.707
12603SOL    HW239707   4.238   1.217   3.830
12604SOL     OW39708   7.207  10.080   3.808
12604SOL    HW139709   7.149  10.108   3.878
12604SOL    HW239710   7.149  10.066   3.733
12605SOL     OW39711   8.628  14.213   8.577
12605SOL    HW139712   8.591  14.125   8.571
12605SOL    HW239713   8.720  14.201   8.553
12606SOL     OW39714  13.425   9.618  10.587
12606SOL    HW139715  13.437   9.523  10.582
12606SOL    HW239716  13.449   9.640  10.677
12607SOL     OW39717   4.341   5.695   4.207
12607SOL    HW139718   4.371   5.620   4.258
12607SOL    HW239719   4.315   5.760   4.272
12608SOL     OW39720  14.239  10.591   0.222
12608SOL    HW139721  14.284  10.659   0.173
12608SOL    HW239722  14.151  10.626   0.236
12609SOL     OW39723  14.157  10.159   7.819
12609SOL    HW139724  14.092  10.158   7.889
12609SOL    HW239725  14.225  10.219   7.850
12610SOL     OW39726  10.844   5.482   0.782
12610SOL    HW139727  10.767   5.426   0.786
12610SOL    HW239728  10.900   5.441   0.716
12611SOL     OW39729   7.382  10.526   7.601
12611SOL    HW139730   7.305  10.578   7.577
12611SOL    HW239731   7.347  10.440   7.624
12612SOL     OW39732   1.181  13.242  12.095
12612SOL    HW139733   1.206  13.289  12.174
12612SOL    HW239734   1.237  13.164  12.095
12613SOL     OW39735  10.578   1.888   7.780
12613SOL    HW139736  10.512   1.942   7.738
12613SOL    HW239737  10.649   1.949   7.802
12614SOL     OW39738   8.986  11.445   8.568
12614SOL    HW139739   9.066  11.391   8.565
12614SOL    HW239740   8.995  11.497   8.647
12615SOL     OW39741  11.815   5.598  12.300
12615SOL    HW139742  11.906   5.574  12.282
12615SOL    HW239743  11.765   5.552  12.232
12616SOL     OW39744  10.648  12.930  14.210
12616SOL    HW139745  10.737  12.894  14.213
12616SOL    HW239746  10.658  13.019  14.244
12617SOL     OW39747   1.733   0.293   8.894
12617SOL    HW139748   1.809   0.265   8.842
12617SOL    HW239749   1.671   0.221   8.887
12618SOL     OW39750   8.283   6.335   8.429
12618SOL    HW139751   8.287   6.416   8.480
12618SOL    HW239752   8.300   6.266   8.493
12619SOL     OW39753  12.238  14.692   1.200
12619SOL    HW139754  12.161  14.662   1.153
12619SOL    HW239755  12.294  14.730   1.132
12620SOL     OW39756  10.114  10.559   7.489
12620SOL    HW139757  10.056  10.519   7.424
12620SOL    HW239758  10.161  10.485   7.527
12621SOL     OW39759   4.867   7.562   1.550
12621SOL    HW139760   4.785   7.611   1.539
12621SOL    HW239761   4.844   7.490   1.610
12622SOL     OW39762   1.273   5.434   8.120
12622SOL    HW139763   1.323   5.516   8.120
12622SOL    HW239764   1.265   5.412   8.213
12623SOL     OW39765  14.304   9.905  13.089
12623SOL    HW139766  14.284   9.815  13.061
12623SOL    HW239767  14.287   9.959  13.011
12624SOL     OW39768   2.325   3.116   4.561
12624SOL    HW139769   2.264   3.176   4.606
12624SOL    HW239770   2.379   3.174   4.507
12625SOL     OW39771  12.301   0.537  12.509
12625SOL    HW139772  12.378   0.591  12.491
12625SOL    HW239773  12.255   0.584  12.578
12626SOL     OW39774   4.001   7.375  13.550
12626SOL    HW139775   4.012   7.363  13.455
12626SOL    HW239776   3.977   7.467  13.559
12627SOL     OW39777   6.741   6.680   7.732
12627SOL    HW139778   6.681   6.649   7.800
12627SOL    HW239779   6.800   6.740   7.778
12628SOL     OW39780   3.722   8.545  12.797
12628SOL    HW139781   3.813   8.516  12.795
12628SOL    HW239782   3.694   8.529  12.887
12629SOL     OW39783  10.758   4.524   6.078
12629SOL    HW139784  10.826   4.577   6.037
12629SOL    HW239785  10.676   4.555   6.040
12630SOL     OW39786   6.783   6.933  11.310
12630SOL    HW139787   6.693   6.950  11.284
12630SOL    HW239788   6.781   6.846  11.350
12631SOL     OW39789   4.103   8.525   7.967
12631SOL    HW139790   4.162   8.490   8.034
12631SOL    HW239791   4.148   8.604   7.935
12632SOL     OW39792   2.156  13.447  14.494
12632SOL    HW139793   2.127  13.450  14.403
12632SOL    HW239794   2.093  13.390  14.538
12633SOL     OW39795   9.025  14.105   9.636
12633SOL    HW139796   9.029  14.012   9.661
12633SOL    HW239797   9.016  14.151   9.719
12634SOL     OW39798  13.096  12.245   3.732
12634SOL    HW139799  13.082  12.166   3.680
12634SOL    HW239800  13.036  12.309   3.694
12635SOL     OW39801  10.214  13.537  10.404
12635SOL    HW139802  10.180  13.505  10.487
12635SOL    HW239803  10.140  13.529  10.343
12636SOL     OW39804   0.783   4.823   3.574
12636SOL    HW139805   0.723   4.894   3.554
12636SOL    HW239806   0.869   4.865   3.580
12637SOL     OW39807   3.079   9.321   7.682
12637SOL    HW139808   3.111   9.232   7.668
12637SOL    HW239809   3.104   9.341   7.772
12638SOL     OW39810   3.747   8.755   0.546
12638SOL    HW139811   3.673   8.699   0.570
12638SOL    HW239812   3.711   8.815   0.480
12639SOL     OW39813  10.055  14.526  11.909
12639SOL    HW139814  10.141  14.535  11.868
12639SOL    HW239815  10.065  14.563  11.996
12640SOL     OW39816   8.664   0.547  11.223
12640SOL    HW139817   8.629   0.622  11.272
12640SOL    HW239818   8.636   0.471  11.274
12641SOL     OW39819  10.189  12.078   4.315
12641SOL    HW139820  10.097  12.062   4.292
12641SOL    HW239821  10.235  11.998   4.291
12642SOL     OW39822  10.571  10.726   4.664
12642SOL    HW139823  10.608  10.720   4.752
12642SOL    HW239824  10.566  10.635   4.633
12643SOL     OW39825   3.689  14.777   9.411
12643SOL    HW139826   3.677  14.871   9.428
12643SOL    HW239827   3.704  14.739   9.498
12644SOL     OW39828  14.166   3.893  14.461
12644SOL    HW139829  14.170   3.930  14.549
12644SOL    HW239830  14.073   3.898  14.438
12645SOL     OW39831   8.255   2.755   9.175
12645SOL    HW139832   8.312   2.770   9.250
12645SOL    HW239833   8.273   2.664   9.150
12646SOL     OW39834   3.326   4.804  11.900
12646SOL    HW139835   3.348   4.879  11.955
12646SOL    HW239836   3.350   4.832  11.811
12647SOL     OW39837   1.833   6.016  11.608
12647SOL    HW139838   1.887   6.012  11.529
12647SOL    HW239839   1.805   6.107  11.614
12648SOL     OW39840   7.397  14.426   7.741
12648SOL    HW139841   7.367  14.515   7.719
12648SOL    HW239842   7.398  14.380   7.658
12649SOL     OW39843   3.781   0.682  10.726
12649SOL    HW139844   3.771   0.767  10.682
12649SOL    HW239845   3.788   0.703  10.819
12650SOL     OW39846   0.329   1.477   6.617
12650SOL    HW139847   0.308   1.405   6.558
12650SOL    HW239848   0.418   1.503   6.593
12651SOL     OW39849   9.970  12.556  10.966
12651SOL    HW139850  10.010  12.640  10.990
12651SOL    HW239851   9.884  12.557  11.009
12652SOL     OW39852   8.522  12.645  10.178
12652SOL    HW139853   8.520  12.741  10.179
12652SOL    HW239854   8.442  12.619  10.222
12653SOL     OW39855   4.478   0.098  12.977
12653SOL    HW139856   4.495   0.117  12.884
12653SOL    HW239857   4.384   0.109  12.987
12654SOL     OW39858  14.648   4.425  11.585
12654SOL    HW139859  14.612   4.375  11.659
12654SOL    HW239860  14.687   4.502  11.625
12655SOL     OW39861   1.414   9.630   3.994
12655SOL    HW139862   1.361   9.691   4.046
12655SOL    HW239863   1.472   9.686   3.943
12656SOL     OW39864   6.493  10.313   2.231
12656SOL    HW139865   6.492  10.238   2.171
12656SOL    HW239866   6.402  10.324   2.258
12657SOL     OW39867  12.533   6.687   3.384
12657SOL    HW139868  12.437   6.681   3.386
12657SOL    HW239869  12.559   6.690   3.476
12658SOL     OW39870  14.872   9.046   3.175
12658SOL    HW139871  14.788   9.079   3.205
12658SOL    HW239872  14.878   8.957   3.211
12659SOL     OW39873   6.212   6.668   9.507
12659SOL    HW139874   6.181   6.607   9.574
12659SOL    HW239875   6.191   6.754   9.542
12660SOL     OW39876  12.436  12.114   7.154
12660SOL    HW139877  12.423  12.111   7.249
12660SOL    HW239878  12.453  12.023   7.129
12661SOL     OW39879   1.986  14.109   3.599
12661SOL    HW139880   2.063  14.051   3.598
12661SOL    HW239881   2.023  14.196   3.611
12662SOL     OW39882   6.429  10.452   0.927
12662SOL    HW139883   6.354  10.455   0.868
12662SOL    HW239884   6.489  10.388   0.887
12663SOL     OW39885  11.717   1.241   3.866
12663SOL    HW139886  11.719   1.148   3.888
12663SOL    HW239887  11.674   1.244   3.780
12664SOL     OW39888  10.823   0.480   2.107
12664SOL    HW139889  10.786   0.396   2.135
12664SOL    HW239890  10.748   0.529   2.073
12665SOL     OW39891  11.344   1.065  12.377
12665SOL    HW139892  11.432   1.042  12.408
12665SOL    HW239893  11.286   1.042  12.451
12666SOL     OW39894   7.752   4.592  14.069
12666SOL    HW139895   7.790   4.674  14.037
12666SOL    HW239896   7.658   4.603  14.058
12667SOL     OW39897   9.248  13.767   5.037
12667SOL    HW139898   9.279  13.748   5.126
12667SOL    HW239899   9.300  13.843   5.010
12668SOL     OW39900   7.727   0.136   4.076
12668SOL    HW139901   7.730   0.083   3.996
12668SOL    HW239902   7.721   0.226   4.045
12669SOL     OW39903  13.502   5.645   6.578
12669SOL    HW139904  13.544   5.601   6.504
12669SOL    HW239905  13.495   5.577   6.645
12670SOL     OW39906   9.042   1.009   1.664
12670SOL    HW139907   8.988   0.944   1.620
12670SOL    HW239908   9.102   0.958   1.718
12671SOL     OW39909   6.018   3.930  12.121
12671SOL    HW139910   6.102   3.921  12.075
12671SOL    HW239911   6.011   3.851  12.174
12672SOL     OW39912   7.902  10.151   6.591
12672SOL    HW139913   7.960  10.190   6.526
12672SOL    HW239914   7.845  10.093   6.541
12673SOL     OW39915  14.565   7.089  14.287
12673SOL    HW139916  14.630   7.116  14.352
12673SOL    HW239917  14.509   7.026  14.333
12674SOL     OW39918   0.403  14.872   4.914
12674SOL    HW139919   0.464   0.030   4.851
12674SOL    HW239920   0.421   0.038   4.996
12675SOL     OW39921  14.234  12.681   7.777
12675SOL    HW139922  14.209  12.617   7.711
12675SOL    HW239923  14.157  12.689   7.834
12676SOL     OW39924  12.598   6.793   8.885
12676SOL    HW139925  12.649   6.736   8.943
12676SOL    HW239926  12.543   6.732   8.835
12677SOL     OW39927   6.241   7.788  14.630
12677SOL    HW139928   6.169   7.737  14.667
12677SOL    HW239929   6.288   7.822  14.706
12678SOL     OW39930   9.922   9.387   9.674
12678SOL    HW139931   9.850   9.436   9.634
12678SOL    HW239932   9.959   9.448   9.738
12679SOL     OW39933  10.361   0.142   9.569
12679SOL    HW139934  10.400   0.215   9.522
12679SOL    HW239935  10.297   0.105   9.508
12680SOL     OW39936   9.033   0.874  13.479
12680SOL    HW139937   9.055   0.787  13.512
12680SOL    HW239938   9.007   0.860  13.388
12681SOL     OW39939   0.444  11.985   8.862
12681SOL    HW139940   0.456  11.998   8.956
12681SOL    HW239941   0.473  11.895   8.847
12682SOL     OW39942  10.197   0.665   1.624
12682SOL    HW139943  10.264   0.642   1.560
12682SOL    HW239944  10.244   0.675   1.706
12683SOL     OW39945  11.720   1.749   2.566
12683SOL    HW139946  11.806   1.776   2.596
12683SOL    HW239947  11.734   1.665   2.523
12684SOL     OW39948   2.161  13.722   0.871
12684SOL    HW139949   2.159  13.707   0.777
12684SOL    HW239950   2.118  13.645   0.908
12685SOL     OW39951   2.774   9.847   7.472
12685SOL    HW139952   2.844   9.875   7.414
12685SOL    HW239953   2.724   9.783   7.420
12686SOL     OW39954   8.758   3.853   6.534
12686SOL    HW139955   8.669   3.857   6.501
12686SOL    HW239956   8.809   3.818   6.461
12687SOL     OW39957   9.874  13.482   0.521
12687SOL    HW139958   9.848  13.392   0.503
12687SOL    HW239959   9.798  13.534   0.496
12688SOL     OW39960   6.932   9.433   7.818
12688SOL    HW139961   6.923   9.526   7.843
12688SOL    HW239962   7.026   9.420   7.807
12689SOL     OW39963   0.238  13.426   5.062
12689SOL    HW139964   0.230  13.331   5.070
12689SOL    HW239965   0.322  13.446   5.104
12690SOL     OW39966  13.216  10.225   0.614
12690SOL    HW139967  13.279  10.293   0.591
12690SOL    HW239968  13.191  10.244   0.704
12691SOL     OW39969   0.523  12.543   1.133
12691SOL    HW139970   0.574  12.491   1.196
12691SOL    HW239971   0.448  12.488   1.111
12692SOL     OW39972  13.965  13.792   0.017
12692SOL    HW139973  14.013  13.841  14.830
12692SOL    HW239974  13.905  13.856   0.054
12693SOL     OW39975  13.002   0.407   4.252
12693SOL    HW139976  12.936   0.436   4.315
12693SOL    HW239977  13.073   0.471   4.261
12694SOL     OW39978   6.142   3.310   3.527
12694SOL    HW139979   6.071   3.343   3.583
12694SOL    HW239980   6.222   3.340   3.570
12695SOL     OW39981   6.048  13.434   5.701
12695SOL    HW139982   6.105  13.506   5.728
12695SOL    HW239983   5.965  13.476   5.678
12696SOL     OW39984   1.921   8.282   9.261
12696SOL    HW139985   1.884   8.304   9.175
12696SOL    HW239986   2.009   8.249   9.241
12697SOL     OW39987   3.597   6.689   7.776
12697SOL    HW139988   3.521   6.709   7.721
12697SOL    HW239989   3.637   6.613   7.734
12698SOL     OW39990  13.622   6.166  10.625
12698SOL    HW139991  13.663   6.250  10.647
12698SOL    HW239992  13.673   6.101  10.672
12699SOL     OW39993  13.464   9.523   7.896
12699SOL    HW139994  13.513   9.604   7.886
12699SOL    HW239995  13.509   9.460   7.839
12700SOL     OW39996   2.299   8.900   8.392
12700SOL    HW139997   2.347   8.953   8.455
12700SOL    HW239998   2.207   8.919   8.410
12701SOL     OW39999  12.847   0.470   5.233
12701SOL    HW140000  12.892   0.388   5.253
12701SOL    HW240001  12.797   0.452   5.154
12702SOL     OW40002  10.367   0.702   7.817
12702SOL    HW140003  10.421   0.781   7.830
12702SOL    HW240004  10.394   0.668   7.732
12703SOL     OW40005   6.420  11.032   5.819
12703SOL    HW140006   6.501  10.983   5.809
12703SOL    HW240007   6.427  11.072   5.906
12704SOL     OW40008   7.672   8.448   2.115
12704SOL    HW140009   7.675   8.372   2.174
12704SOL    HW240010   7.595   8.498   2.144
12705SOL     OW40011   8.555   6.265   9.602
12705SOL    HW140012   8.511   6.247   9.519
12705SOL    HW240013   8.635   6.213   9.599
12706SOL     OW40014   4.679  11.454   4.403
12706SOL    HW140015   4.608  11.440   4.466
12706SOL    HW240016   4.756  11.414   4.445
12707SOL     OW40017   3.066   0.814  13.664
12707SOL    HW140018   3.016   0.829  13.744
12707SOL    HW240019   3.130   0.747  13.689
12708SOL     OW40020   5.722  12.404  13.954
12708SOL    HW140021   5.655  12.342  13.925
12708SOL    HW240022   5.791  12.350  13.991
12709SOL     OW40023  10.593  11.249  10.953
12709SOL    HW140024  10.573  11.289  11.037
12709SOL    HW240025  10.578  11.318  10.889
12710SOL     OW40026   7.767   7.774   2.423
12710SOL    HW140027   7.776   7.749   2.515
12710SOL    HW240028   7.678   7.746   2.399
12711SOL     OW40029  10.331   2.835   7.636
12711SOL    HW140030  10.369   2.775   7.572
12711SOL    HW240031  10.343   2.791   7.720
12712SOL     OW40032   6.979   2.480  11.056
12712SOL    HW140033   7.063   2.448  11.089
12712SOL    HW240034   7.000   2.564  11.014
12713SOL     OW40035  12.048   0.399   6.825
12713SOL    HW140036  11.984   0.363   6.887
12713SOL    HW240037  12.133   0.381   6.866
12714SOL     OW40038   0.760   8.187  13.391
12714SOL    HW140039   0.694   8.153  13.451
12714SOL    HW240040   0.831   8.123  13.394
12715SOL     OW40041  10.918   9.829  10.395
12715SOL    HW140042  10.840   9.780  10.370
12715SOL    HW240043  10.930   9.892  10.323
12716SOL     OW40044  10.025   9.271  13.212
12716SOL    HW140045   9.944   9.322  13.211
12716SOL    HW240046   9.998   9.182  13.189
12717SOL     OW40047   1.630  10.251  13.524
12717SOL    HW140048   1.601  10.287  13.440
12717SOL    HW240049   1.606  10.318  13.588
12718SOL     OW40050   0.995   8.695   9.278
12718SOL    HW140051   1.059   8.743   9.226
12718SOL    HW240052   0.937   8.654   9.213
12719SOL     OW40053   5.327   5.285   0.572
12719SOL    HW140054   5.251   5.246   0.616
12719SOL    HW240055   5.291   5.357   0.521
12720SOL     OW40056  13.025   0.606   3.426
12720SOL    HW140057  12.959   0.573   3.486
12720SOL    HW240058  12.975   0.640   3.352
12721SOL     OW40059   6.253  12.752   7.955
12721SOL    HW140060   6.304  12.780   7.879
12721SOL    HW240061   6.164  12.742   7.921
12722SOL     OW40062  14.157   8.183  10.311
12722SOL    HW140063  14.215   8.107  10.309
12722SOL    HW240064  14.080   8.156  10.261
12723SOL     OW40065   9.989   7.511   5.979
12723SOL    HW140066  10.050   7.449   5.939
12723SOL    HW240067   9.910   7.506   5.924
12724SOL     OW40068  13.398   7.675   3.896
12724SOL    HW140069  13.440   7.591   3.918
12724SOL    HW240070  13.312   7.650   3.861
12725SOL     OW40071  10.174   3.339  10.357
12725SOL    HW140072  10.118   3.417  10.355
12725SOL    HW240073  10.168   3.307  10.447
12726SOL     OW40074   2.541   5.063   5.745
12726SOL    HW140075   2.633   5.056   5.771
12726SOL    HW240076   2.496   5.087   5.826
12727SOL     OW40077   3.953  10.110   9.508
12727SOL    HW140078   4.014  10.079   9.440
12727SOL    HW240079   3.921  10.194   9.474
12728SOL     OW40080   0.675  13.552   5.581
12728SOL    HW140081   0.597  13.497   5.575
12728SOL    HW240082   0.695  13.557   5.675
12729SOL     OW40083   0.913   7.191   6.608
12729SOL    HW140084   0.894   7.116   6.664
12729SOL    HW240085   0.987   7.234   6.649
12730SOL     OW40086   9.707  13.002   0.588
12730SOL    HW140087   9.790  12.956   0.580
12730SOL    HW240088   9.643  12.934   0.609
12731SOL     OW40089   3.565   2.583  14.287
12731SOL    HW140090   3.509   2.649  14.327
12731SOL    HW240091   3.561   2.602  14.193
12732SOL     OW40092   8.039   6.094   1.806
12732SOL    HW140093   8.094   6.020   1.780
12732SOL    HW240094   7.950   6.060   1.807
12733SOL     OW40095  11.817   1.801  10.315
12733SOL    HW140096  11.734   1.794  10.363
12733SOL    HW240097  11.855   1.883  10.344
12734SOL     OW40098   4.182   4.146  13.442
12734SOL    HW140099   4.104   4.118  13.393
12734SOL    HW240100   4.252   4.091  13.408
12735SOL     OW40101   1.145   2.206   0.688
12735SOL    HW140102   1.174   2.280   0.741
12735SOL    HW240103   1.056   2.230   0.661
12736SOL     OW40104   9.219   0.554   4.153
12736SOL    HW140105   9.272   0.601   4.218
12736SOL    HW240106   9.170   0.623   4.108
12737SOL     OW40107   8.137   2.706   1.816
12737SOL    HW140108   8.157   2.664   1.733
12737SOL    HW240109   8.059   2.758   1.798
12738SOL     OW40110   4.858   8.845   8.039
12738SOL    HW140111   4.885   8.788   8.111
12738SOL    HW240112   4.776   8.885   8.070
12739SOL     OW40113   7.516  13.314   8.460
12739SOL    HW140114   7.580  13.335   8.391
12739SOL    HW240115   7.478  13.231   8.432
12740SOL     OW40116   1.834   5.953   6.959
12740SOL    HW140117   1.745   5.949   6.924
12740SOL    HW240118   1.880   5.881   6.916
12741SOL     OW40119   8.508   1.681   7.638
12741SOL    HW140120   8.502   1.590   7.669
12741SOL    HW240121   8.495   1.676   7.544
12742SOL     OW40122  12.972  13.291  13.918
12742SOL    HW140123  12.959  13.197  13.910
12742SOL    HW240124  12.885  13.326  13.938
12743SOL     OW40125   2.518   4.476   0.103
12743SOL    HW140126   2.538   4.523   0.022
12743SOL    HW240127   2.476   4.395   0.074
12744SOL     OW40128   0.545   2.880  12.717
12744SOL    HW140129   0.506   2.967  12.719
12744SOL    HW240130   0.472   2.822  12.693
12745SOL     OW40131  11.756  14.031   2.176
12745SOL    HW140132  11.843  14.001   2.150
12745SOL    HW240133  11.729  13.972   2.246
12746SOL     OW40134   0.627   8.008  14.322
12746SOL    HW140135   0.693   8.041  14.260
12746SOL    HW240136   0.614   7.917  14.297
12747SOL     OW40137  12.132   8.617   8.421
12747SOL    HW140138  12.113   8.661   8.504
12747SOL    HW240139  12.228   8.614   8.417
12748SOL     OW40140   7.192  11.932   4.011
12748SOL    HW140141   7.104  11.908   3.982
12748SOL    HW240142   7.214  11.866   4.077
12749SOL     OW40143   6.656   2.294  11.086
12749SOL    HW140144   6.711   2.372  11.098
12749SOL    HW240145   6.589   2.322  11.024
12750SOL     OW40146   7.279   0.465   7.500
12750SOL    HW140147   7.236   0.550   7.512
12750SOL    HW240148   7.362   0.486   7.458
12751SOL     OW40149  12.620  14.691   2.549
12751SOL    HW140150  12.580  14.717   2.632
12751SOL    HW240151  12.714  14.692   2.567
12752SOL     OW40152   3.317   2.053   2.766
12752SOL    HW140153   3.336   2.050   2.859
12752SOL    HW240154   3.373   2.123   2.732
12753SOL     OW40155   7.453   0.832  14.432
12753SOL    HW140156   7.406   0.911  14.460
12753SOL    HW240157   7.514   0.814  14.504
12754SOL     OW40158  11.833   7.639  10.993
12754SOL    HW140159  11.805   7.570  10.934
12754SOL    HW240160  11.758   7.654  11.050
12755SOL     OW40161  11.827  11.647   8.113
12755SOL    HW140162  11.824  11.698   8.194
12755SOL    HW240163  11.904  11.591   8.124
12756SOL     OW40164   6.602   4.944   4.167
12756SOL    HW140165   6.545   5.007   4.122
12756SOL    HW240166   6.593   4.966   4.260
12757SOL     OW40167   8.537  12.798  14.018
12757SOL    HW140168   8.517  12.810  13.925
12757SOL    HW240169   8.623  12.839  14.029
12758SOL     OW40170   6.262  11.089   7.295
12758SOL    HW140171   6.228  11.014   7.246
12758SOL    HW240172   6.186  11.144   7.312
12759SOL     OW40173  11.610   5.944  11.772
12759SOL    HW140174  11.612   5.893  11.853
12759SOL    HW240175  11.668   5.896  11.712
12760SOL     OW40176   3.555  10.624   7.573
12760SOL    HW140177   3.583  10.711   7.545
12760SOL    HW240178   3.521  10.636   7.661
12761SOL     OW40179   9.935   1.630   1.710
12761SOL    HW140180   9.846   1.665   1.708
12761SOL    HW240181   9.926   1.541   1.674
12762SOL     OW40182   7.608  14.699  11.283
12762SOL    HW140183   7.659  14.697  11.202
12762SOL    HW240184   7.533  14.642  11.266
12763SOL     OW40185   9.144   4.923  14.453
12763SOL    HW140186   9.154   4.980  14.529
12763SOL    HW240187   9.226   4.874  14.448
12764SOL     OW40188  11.543   0.315   5.967
12764SOL    HW140189  11.460   0.343   6.006
12764SOL    HW240190  11.575   0.393   5.921
12765SOL     OW40191  10.424   8.582   8.493
12765SOL    HW140192  10.384   8.645   8.433
12765SOL    HW240193  10.451   8.509   8.438
12766SOL     OW40194   8.600   1.780  10.845
12766SOL    HW140195   8.515   1.807  10.809
12766SOL    HW240196   8.581   1.759  10.936
12767SOL     OW40197   1.010  10.385   9.983
12767SOL    HW140198   0.997  10.473   9.948
12767SOL    HW240199   1.034  10.332   9.907
12768SOL     OW40200  12.496  13.042   6.803
12768SOL    HW140201  12.545  12.960   6.801
12768SOL    HW240202  12.414  13.022   6.757
12769SOL     OW40203  14.244  13.258   5.021
12769SOL    HW140204  14.327  13.245   5.067
12769SOL    HW240205  14.269  13.273   4.930
12770SOL     OW40206   3.774   7.263   8.074
12770SOL    HW140207   3.725   7.310   8.142
12770SOL    HW240208   3.817   7.192   8.121
12771SOL     OW40209   6.018   0.689   0.107
12771SOL    HW140210   6.035   0.612   0.161
12771SOL    HW240211   6.070   0.675   0.028
12772SOL     OW40212   4.888   4.398  11.457
12772SOL    HW140213   4.948   4.472  11.466
12772SOL    HW240214   4.938   4.333  11.406
12773SOL     OW40215   3.055   0.554  13.155
12773SOL    HW140216   3.058   0.618  13.226
12773SOL    HW240217   2.962   0.547  13.133
12774SOL     OW40218   7.579  13.436  10.308
12774SOL    HW140219   7.542  13.484  10.382
12774SOL    HW240220   7.653  13.489  10.279
12775SOL     OW40221   4.989   3.216   7.013
12775SOL    HW140222   5.054   3.234   7.081
12775SOL    HW240223   5.032   3.152   6.955
12776SOL     OW40224  10.065   1.008  11.620
12776SOL    HW140225  10.016   0.930  11.593
12776SOL    HW240226  10.035   1.025  11.710
12777SOL     OW40227   7.002   1.861   4.831
12777SOL    HW140228   6.952   1.832   4.907
12777SOL    HW240229   7.050   1.937   4.863
12778SOL     OW40230   7.675   4.351   5.876
12778SOL    HW140231   7.704   4.441   5.886
12778SOL    HW240232   7.596   4.345   5.930
12779SOL     OW40233   5.427  13.359   2.345
12779SOL    HW140234   5.389  13.331   2.262
12779SOL    HW240235   5.361  13.416   2.384
12780SOL     OW40236   2.781  10.542   5.683
12780SOL    HW140237   2.716  10.597   5.639
12780SOL    HW240238   2.853  10.536   5.620
12781SOL     OW40239   4.721  12.447  12.806
12781SOL    HW140240   4.773  12.406  12.736
12781SOL    HW240241   4.783  12.507  12.849
12782SOL     OW40242   5.415  10.181   3.070
12782SOL    HW140243   5.487  10.212   3.125
12782SOL    HW240244   5.414  10.241   2.996
12783SOL     OW40245   5.538   5.603  14.449
12783SOL    HW140246   5.506   5.617  14.361
12783SOL    HW240247   5.460   5.600  14.504
12784SOL     OW40248  14.674   2.620  14.289
12784SOL    HW140249  14.672   2.703  14.240
12784SOL    HW240250  14.656   2.646  14.379
12785SOL     OW40251   6.047   6.121   6.307
12785SOL    HW140252   5.959   6.138   6.274
12785SOL    HW240253   6.034   6.086   6.395
12786SOL     OW40254  12.045  12.922   3.870
12786SOL    HW140255  12.093  12.929   3.787
12786SOL    HW240256  11.968  12.977   3.858
12787SOL     OW40257   0.373  11.206  11.461
12787SOL    HW140258   0.356  11.233  11.551
12787SOL    HW240259   0.468  11.211  11.452
12788SOL     OW40260   8.152   0.484   5.240
12788SOL    HW140261   8.157   0.534   5.321
12788SOL    HW240262   8.146   0.393   5.269
12789SOL     OW40263  12.547  14.462  10.556
12789SOL    HW140264  12.481  14.424  10.498
12789SOL    HW240265  12.624  14.474  10.500
12790SOL     OW40266   7.487   2.649   6.608
12790SOL    HW140267   7.398   2.635   6.578
12790SOL    HW240268   7.493   2.743   6.626
12791SOL     OW40269   0.244  11.591   7.043
12791SOL    HW140270   0.300  11.586   7.121
12791SOL    HW240271   0.165  11.636   7.073
12792SOL     OW40272   0.642   9.340  10.048
12792SOL    HW140273   0.679   9.256  10.077
12792SOL    HW240274   0.575   9.360  10.113
12793SOL     OW40275   8.029   4.328   4.269
12793SOL    HW140276   8.077   4.255   4.308
12793SOL    HW240277   7.960   4.286   4.217
12794SOL     OW40278   9.883   2.826  11.735
12794SOL    HW140279   9.840   2.784  11.662
12794SOL    HW240280   9.822   2.895  11.763
12795SOL     OW40281  10.153   8.467   3.139
12795SOL    HW140282  10.187   8.380   3.118
12795SOL    HW240283  10.091   8.452   3.211
12796SOL     OW40284  12.065   7.951   4.312
12796SOL    HW140285  12.041   7.957   4.405
12796SOL    HW240286  12.090   8.041   4.289
12797SOL     OW40287  12.969   7.835  13.052
12797SOL    HW140288  12.887   7.809  13.011
12797SOL    HW240289  13.028   7.761  13.036
12798SOL     OW40290  10.014   3.047   8.760
12798SOL    HW140291  10.086   2.985   8.771
12798SOL    HW240292  10.039   3.100   8.684
12799SOL     OW40293   7.195   0.705  11.151
12799SOL    HW140294   7.247   0.753  11.214
12799SOL    HW240295   7.215   0.613  11.169
12800SOL     OW40296  14.143   2.927   0.271
12800SOL    HW140297  14.100   2.903   0.353
12800SOL    HW240298  14.117   2.858   0.209
12801SOL     OW40299   9.308   2.350   2.411
12801SOL    HW140300   9.312   2.355   2.316
12801SOL    HW240301   9.399   2.341   2.438
12802SOL     OW40302  10.008   3.636   7.209
12802SOL    HW140303   9.996   3.672   7.120
12802SOL    HW240304   9.958   3.555   7.209
12803SOL     OW40305   0.501  10.100   0.304
12803SOL    HW140306   0.537  10.072   0.388
12803SOL    HW240307   0.559  10.062   0.238
12804SOL     OW40308   0.883  10.675   9.621
12804SOL    HW140309   0.911  10.584   9.616
12804SOL    HW240310   0.930  10.719   9.551
12805SOL     OW40311   7.155   6.178   0.368
12805SOL    HW140312   7.063   6.202   0.370
12805SOL    HW240313   7.202   6.261   0.367
12806SOL     OW40314   6.666   0.790  12.317
12806SOL    HW140315   6.595   0.726  12.325
12806SOL    HW240316   6.625   0.874  12.338
12807SOL     OW40317   7.615   2.461   4.467
12807SOL    HW140318   7.662   2.544   4.460
12807SOL    HW240319   7.540   2.471   4.409
12808SOL     OW40320  10.044   0.210   1.053
12808SOL    HW140321  10.054   0.222   0.958
12808SOL    HW240322  10.126   0.171   1.081
12809SOL     OW40323   4.628   4.130  12.551
12809SOL    HW140324   4.698   4.078  12.592
12809SOL    HW240325   4.617   4.205  12.609
12810SOL     OW40326   3.915   6.585   3.887
12810SOL    HW140327   4.004   6.618   3.872
12810SOL    HW240328   3.858   6.659   3.864
12811SOL     OW40329   9.286   8.334  11.542
12811SOL    HW140330   9.255   8.417  11.506
12811SOL    HW240331   9.233   8.267  11.498
12812SOL     OW40332   8.671   0.619   3.702
12812SOL    HW140333   8.630   0.537   3.675
12812SOL    HW240334   8.608   0.687   3.679
12813SOL     OW40335   8.780   7.708  13.118
12813SOL    HW140336   8.872   7.706  13.145
12813SOL    HW240337   8.773   7.639  13.052
12814SOL     OW40338   7.685   1.928  10.120
12814SOL    HW140339   7.726   1.929  10.033
12814SOL    HW240340   7.610   1.869  10.110
12815SOL     OW40341  11.428   9.898  11.555
12815SOL    HW140342  11.431   9.896  11.460
12815SOL    HW240343  11.425   9.807  11.582
12816SOL     OW40344   3.364  11.086  12.580
12816SOL    HW140345   3.335  11.126  12.498
12816SOL    HW240346   3.330  10.997  12.577
12817SOL     OW40347   8.849   9.675   0.385
12817SOL    HW140348   8.940   9.643   0.388
12817SOL    HW240349   8.856   9.769   0.399
12818SOL     OW40350   0.924  11.037   2.430
12818SOL    HW140351   1.017  11.023   2.449
12818SOL    HW240352   0.885  10.949   2.433
12819SOL     OW40353  11.333   6.770  11.142
12819SOL    HW140354  11.380   6.811  11.070
12819SOL    HW240355  11.352   6.676  11.133
12820SOL     OW40356  14.419  11.428  10.442
12820SOL    HW140357  14.391  11.357  10.500
12820SOL    HW240358  14.385  11.403  10.356
12821SOL     OW40359   1.964   7.598   9.275
12821SOL    HW140360   1.974   7.690   9.249
12821SOL    HW240361   1.871   7.580   9.264
12822SOL     OW40362   6.032   9.410  12.501
12822SOL    HW140363   5.965   9.473  12.476
12822SOL    HW240364   5.983   9.329  12.517
12823SOL     OW40365   8.033  14.555   7.512
12823SOL    HW140366   8.045  14.525   7.602
12823SOL    HW240367   8.107  14.614   7.497
12824SOL     OW40368   3.640  11.743   3.380
12824SOL    HW140369   3.679  11.721   3.465
12824SOL    HW240370   3.606  11.832   3.392
12825SOL     OW40371   0.119   4.601   6.051
12825SOL    HW140372   0.073   4.556   5.980
12825SOL    HW240373   0.085   4.690   6.049
12826SOL     OW40374   9.068  11.267   4.498
12826SOL    HW140375   9.032  11.185   4.464
12826SOL    HW240376   8.995  11.307   4.545
12827SOL     OW40377   0.699  14.334   3.423
12827SOL    HW140378   0.766  14.387   3.466
12827SOL    HW240379   0.653  14.394   3.364
12828SOL     OW40380   9.540  11.377   6.392
12828SOL    HW140381   9.528  11.458   6.342
12828SOL    HW240382   9.587  11.405   6.471
12829SOL     OW40383  12.661  12.916  10.037
12829SOL    HW140384  12.575  12.942  10.070
12829SOL    HW240385  12.705  12.998  10.018
12830SOL     OW40386   1.431   5.126  11.983
12830SOL    HW140387   1.447   5.220  11.981
12830SOL    HW240388   1.452   5.095  11.895
12831SOL     OW40389  14.227   3.889   2.565
12831SOL    HW140390  14.142   3.876   2.523
12831SOL    HW240391  14.238   3.984   2.570
12832SOL     OW40392   7.193  14.125   9.794
12832SOL    HW140393   7.131  14.052   9.804
12832SOL    HW240394   7.140  14.196   9.757
12833SOL     OW40395   4.830   4.564  11.938
12833SOL    HW140396   4.737   4.584  11.929
12833SOL    HW240397   4.855   4.600  12.023
12834SOL     OW40398   3.479  11.436   6.994
12834SOL    HW140399   3.401  11.411   6.944
12834SOL    HW240400   3.541  11.365   6.978
12835SOL     OW40401  12.858  12.649  10.906
12835SOL    HW140402  12.817  12.572  10.945
12835SOL    HW240403  12.880  12.705  10.980
12836SOL     OW40404   7.577   0.215  10.707
12836SOL    HW140405   7.611   0.295  10.747
12836SOL    HW240406   7.492   0.241  10.670
12837SOL     OW40407   4.419   3.068   7.397
12837SOL    HW140408   4.454   3.141   7.347
12837SOL    HW240409   4.328   3.093   7.415
12838SOL     OW40410   6.109   9.974   8.985
12838SOL    HW140411   6.165   9.906   9.023
12838SOL    HW240412   6.033   9.926   8.952
12839SOL     OW40413   8.336  14.679   7.928
12839SOL    HW140414   8.314  14.686   8.021
12839SOL    HW240415   8.356  14.768   7.901
12840SOL     OW40416   3.938   9.854  12.803
12840SOL    HW140417   3.891   9.852  12.886
12840SOL    HW240418   3.962   9.946  12.791
12841SOL     OW40419  12.597  11.096   9.581
12841SOL    HW140420  12.550  11.165   9.534
12841SOL    HW240421  12.666  11.068   9.521
12842SOL     OW40422   7.430   0.779   0.048
12842SOL    HW140423   7.457   0.810   0.134
12842SOL    HW240424   7.395   0.691   0.064
12843SOL     OW40425  11.365   4.820   4.514
12843SOL    HW140426  11.356   4.883   4.442
12843SOL    HW240427  11.379   4.736   4.470
12844SOL     OW40428   0.575   5.735   4.351
12844SOL    HW140429   0.524   5.720   4.430
12844SOL    HW240430   0.510   5.760   4.285
12845SOL     OW40431   6.381   5.517   4.229
12845SOL    HW140432   6.288   5.524   4.205
12845SOL    HW240433   6.427   5.562   4.158
12846SOL     OW40434   7.749  14.200   1.318
12846SOL    HW140435   7.771  14.209   1.411
12846SOL    HW240436   7.833  14.196   1.273
12847SOL     OW40437  10.572   8.037   1.736
12847SOL    HW140438  10.572   7.942   1.722
12847SOL    HW240439  10.665   8.060   1.739
12848SOL     OW40440   6.416   3.613   2.939
12848SOL    HW140441   6.335   3.665   2.937
12848SOL    HW240442   6.392   3.530   2.899
12849SOL     OW40443  10.782   2.992  11.836
12849SOL    HW140444  10.858   2.997  11.778
12849SOL    HW240445  10.707   3.006  11.779
12850SOL     OW40446   1.228   5.113  11.129
12850SOL    HW140447   1.321   5.134  11.122
12850SOL    HW240448   1.224   5.040  11.190
12851SOL     OW40449   0.118   5.409   3.099
12851SOL    HW140450   0.106   5.496   3.136
12851SOL    HW240451   0.179   5.422   3.026
12852SOL     OW40452  11.551   9.759   6.873
12852SOL    HW140453  11.612   9.833   6.881
12852SOL    HW240454  11.586   9.693   6.933
12853SOL     OW40455   2.919   9.249   3.393
12853SOL    HW140456   2.849   9.279   3.336
12853SOL    HW240457   2.985   9.318   3.388
12854SOL     OW40458  14.550   6.513   8.226
12854SOL    HW140459  14.540   6.496   8.320
12854SOL    HW240460  14.641   6.491   8.207
12855SOL     OW40461  14.008  11.118  13.495
12855SOL    HW140462  14.060  11.046  13.529
12855SOL    HW240463  13.928  11.077  13.462
12856SOL     OW40464   5.323   2.170   7.088
12856SOL    HW140465   5.372   2.097   7.050
12856SOL    HW240466   5.380   2.204   7.157
12857SOL     OW40467   0.884   6.386  13.659
12857SOL    HW140468   0.811   6.425  13.612
12857SOL    HW240469   0.935   6.460  13.691
12858SOL     OW40470  11.783  13.726   6.619
12858SOL    HW140471  11.744  13.801   6.665
12858SOL    HW240472  11.770  13.652   6.678
12859SOL     OW40473  10.920  13.233   9.088
12859SOL    HW140474  10.906  13.179   9.010
12859SOL    HW240475  10.838  13.228   9.137
12860SOL     OW40476  13.414   8.398   9.517
12860SOL    HW140477  13.502   8.377   9.487
12860SOL    HW240478  13.399   8.488   9.490
12861SOL     OW40479   9.482   0.334  12.083
12861SOL    HW140480   9.520   0.278  12.151
12861SOL    HW240481   9.412   0.381  12.127
12862SOL     OW40482   7.210  11.982   9.411
12862SOL    HW140483   7.184  11.907   9.358
12862SOL    HW240484   7.258  12.039   9.351
12863SOL     OW40485  12.852   6.188  13.724
12863SOL    HW140486  12.884   6.266  13.770
12863SOL    HW240487  12.869   6.205  13.632
12864SOL     OW40488  12.166  10.960  11.786
12864SOL    HW140489  12.162  10.930  11.876
12864SOL    HW240490  12.235  11.027  11.786
12865SOL     OW40491   7.238   1.057  11.432
12865SOL    HW140492   7.151   1.033  11.463
12865SOL    HW240493   7.297   0.992  11.472
12866SOL     OW40494   3.469   8.375   1.390
12866SOL    HW140495   3.375   8.392   1.383
12866SOL    HW240496   3.510   8.441   1.334
12867SOL     OW40497  14.294  11.945   3.202
12867SOL    HW140498  14.272  11.946   3.109
12867SOL    HW240499  14.390  11.950   3.204
12868SOL     OW40500  13.640   6.744   9.978
12868SOL    HW140501  13.702   6.706  10.041
12868SOL    HW240502  13.555   6.710  10.005
12869SOL     OW40503  11.006  11.214   4.402
12869SOL    HW140504  10.926  11.166   4.383
12869SOL    HW240505  10.994  11.248   4.491
12870SOL     OW40506  14.709   1.059   5.793
12870SOL    HW140507  14.621   1.058   5.831
12870SOL    HW240508  14.732   1.152   5.789
12871SOL     OW40509   8.627   8.227  12.920
12871SOL    HW140510   8.697   8.180  12.875
12871SOL    HW240511   8.557   8.235  12.855
12872SOL     OW40512   3.330   2.983   8.414
12872SOL    HW140513   3.424   2.969   8.402
12872SOL    HW240514   3.305   3.041   8.342
12873SOL     OW40515   7.979   7.683   0.497
12873SOL    HW140516   8.005   7.606   0.549
12873SOL    HW240517   7.900   7.655   0.451
12874SOL     OW40518  12.510   7.789  10.756
12874SOL    HW140519  12.451   7.863  10.769
12874SOL    HW240520  12.572   7.794  10.829
12875SOL     OW40521   9.240   9.557   4.966
12875SOL    HW140522   9.160   9.554   4.913
12875SOL    HW240523   9.280   9.471   4.954
12876SOL     OW40524  13.581   3.935   4.013
12876SOL    HW140525  13.577   3.949   4.107
12876SOL    HW240526  13.565   3.841   4.002
12877SOL     OW40527   6.521  12.648   2.720
12877SOL    HW140528   6.436  12.673   2.684
12877SOL    HW240529   6.555  12.728   2.760
12878SOL     OW40530   9.241  11.237  13.197
12878SOL    HW140531   9.220  11.316  13.147
12878SOL    HW240532   9.163  11.182  13.189
12879SOL     OW40533   6.140  12.880   4.532
12879SOL    HW140534   6.225  12.842   4.509
12879SOL    HW240535   6.124  12.850   4.622
12880SOL     OW40536   3.331  10.279   9.196
12880SOL    HW140537   3.308  10.240   9.280
12880SOL    HW240538   3.392  10.216   9.157
12881SOL     OW40539   6.233   7.013   2.002
12881SOL    HW140540   6.301   6.952   2.033
12881SOL    HW240541   6.260   7.098   2.035
12882SOL     OW40542  14.443   2.819   8.233
12882SOL    HW140543  14.500   2.858   8.299
12882SOL    HW240544  14.367   2.787   8.283
12883SOL     OW40545  10.902  12.648  12.092
12883SOL    HW140546  10.828  12.588  12.083
12883SOL    HW240547  10.978  12.597  12.063
12884SOL     OW40548   3.720   4.451  11.178
12884SOL    HW140549   3.668   4.440  11.099
12884SOL    HW240550   3.706   4.542  11.203
12885SOL     OW40551  14.789   3.977   5.246
12885SOL    HW140552  14.872   3.983   5.294
12885SOL    HW240553  14.745   3.902   5.285
12886SOL     OW40554  14.848   3.781   8.921
12886SOL    HW140555  14.802   3.836   8.984
12886SOL    HW240556   0.012   3.715   8.975
12887SOL     OW40557   0.520   1.621   9.558
12887SOL    HW140558   0.442   1.620   9.502
12887SOL    HW240559   0.512   1.702   9.609
12888SOL     OW40560   0.065   3.267  12.616
12888SOL    HW140561   0.011   3.337  12.650
12888SOL    HW240562   0.094   3.298  12.530
12889SOL     OW40563   0.807   5.413   6.727
12889SOL    HW140564   0.811   5.497   6.771
12889SOL    HW240565   0.715   5.401   6.705
12890SOL     OW40566   5.761  13.115   1.133
12890SOL    HW140567   5.816  13.149   1.204
12890SOL    HW240568   5.814  13.047   1.091
12891SOL     OW40569   6.495   4.865  14.625
12891SOL    HW140570   6.545   4.921  14.685
12891SOL    HW240571   6.421   4.834  14.677
12892SOL     OW40572   7.788  12.375   1.009
12892SOL    HW140573   7.711  12.333   0.971
12892SOL    HW240574   7.834  12.303   1.053
12893SOL     OW40575  14.875   2.759  10.379
12893SOL    HW140576  14.803   2.730  10.323
12893SOL    HW240577  14.849   2.735  10.467
12894SOL     OW40578   2.334   9.247   0.751
12894SOL    HW140579   2.323   9.246   0.846
12894SOL    HW240580   2.273   9.180   0.719
12895SOL     OW40581   9.435  11.879  11.814
12895SOL    HW140582   9.485  11.894  11.895
12895SOL    HW240583   9.345  11.901  11.838
12896SOL     OW40584   0.811   4.261   4.788
12896SOL    HW140585   0.746   4.195   4.813
12896SOL    HW240586   0.777   4.299   4.707
12897SOL     OW40587  13.267   9.962   6.309
12897SOL    HW140588  13.325   9.893   6.277
12897SOL    HW240589  13.282  10.036   6.249
12898SOL     OW40590  10.332   7.971   2.807
12898SOL    HW140591  10.392   7.954   2.734
12898SOL    HW240592  10.375   8.040   2.857
12899SOL     OW40593   6.845   6.209   0.340
12899SOL    HW140594   6.778   6.218   0.272
12899SOL    HW240595   6.863   6.115   0.344
12900SOL     OW40596   4.583  10.527   5.097
12900SOL    HW140597   4.641  10.463   5.057
12900SOL    HW240598   4.611  10.611   5.061
12901SOL     OW40599   7.785  10.444   6.982
12901SOL    HW140600   7.737  10.370   6.944
12901SOL    HW240601   7.746  10.521   6.941
12902SOL     OW40602   5.498   0.296   2.948
12902SOL    HW140603   5.513   0.205   2.922
12902SOL    HW240604   5.453   0.291   3.032
12903SOL     OW40605   7.297   4.337   3.405
12903SOL    HW140606   7.213   4.292   3.406
12903SOL    HW240607   7.313   4.356   3.312
12904SOL     OW40608   1.256   4.674   6.570
12904SOL    HW140609   1.227   4.616   6.640
12904SOL    HW240610   1.244   4.623   6.490
12905SOL     OW40611   3.956   7.258   4.892
12905SOL    HW140612   3.971   7.174   4.847
12905SOL    HW240613   3.863   7.276   4.878
12906SOL     OW40614  12.944   3.386  13.508
12906SOL    HW140615  12.976   3.332  13.436
12906SOL    HW240616  12.931   3.324  13.580
12907SOL     OW40617   8.162   1.353  12.610
12907SOL    HW140618   8.194   1.309  12.689
12907SOL    HW240619   8.141   1.442  12.639
12908SOL     OW40620   2.056   6.836   5.553
12908SOL    HW140621   2.055   6.892   5.631
12908SOL    HW240622   2.137   6.861   5.507
12909SOL     OW40623  12.726   1.412  11.013
12909SOL    HW140624  12.632   1.400  10.998
12909SOL    HW240625  12.768   1.341  10.964
12910SOL     OW40626   4.562  11.979   9.049
12910SOL    HW140627   4.552  12.029   8.968
12910SOL    HW240628   4.489  12.007   9.104
12911SOL     OW40629  11.418  10.248   6.549
12911SOL    HW140630  11.330  10.274   6.521
12911SOL    HW240631  11.404  10.206   6.634
12912SOL     OW40632   0.691   2.784   2.317
12912SOL    HW140633   0.713   2.754   2.229
12912SOL    HW240634   0.598   2.806   2.312
12913SOL     OW40635   5.293   0.310   3.626
12913SOL    HW140636   5.206   0.341   3.600
12913SOL    HW240637   5.354   0.373   3.588
12914SOL     OW40638   5.941   1.008   5.345
12914SOL    HW140639   5.876   0.960   5.397
12914SOL    HW240640   6.022   0.958   5.355
12915SOL     OW40641   4.349   1.341  11.792
12915SOL    HW140642   4.416   1.304  11.733
12915SOL    HW240643   4.301   1.265  11.824
12916SOL     OW40644   3.992  11.846   7.074
12916SOL    HW140645   4.039  11.922   7.038
12916SOL    HW240646   3.921  11.884   7.126
12917SOL     OW40647   4.619   9.743  11.332
12917SOL    HW140648   4.532   9.783  11.331
12917SOL    HW240649   4.635   9.720  11.423
12918SOL     OW40650   2.537   7.538  14.373
12918SOL    HW140651   2.520   7.464  14.315
12918SOL    HW240652   2.621   7.573  14.343
12919SOL     OW40653  13.723   2.771   7.738
12919SOL    HW140654  13.677   2.735   7.661
12919SOL    HW240655  13.706   2.707   7.807
12920SOL     OW40656   2.851   7.677   2.614
12920SOL    HW140657   2.932   7.727   2.605
12920SOL    HW240658   2.869   7.615   2.684
12921SOL     OW40659   1.875   9.892   5.158
12921SOL    HW140660   1.782   9.893   5.181
12921SOL    HW240661   1.910   9.815   5.202
12922SOL     OW40662   8.430   9.988   1.333
12922SOL    HW140663   8.480   9.946   1.403
12922SOL    HW240664   8.492   9.991   1.259
12923SOL     OW40665   3.865   9.502  10.802
12923SOL    HW140666   3.925   9.502  10.877
12923SOL    HW240667   3.820   9.587  10.808
12924SOL     OW40668   3.999   6.850  12.066
12924SOL    HW140669   4.035   6.761  12.061
12924SOL    HW240670   3.956   6.862  11.981
12925SOL     OW40671   1.077   9.422  10.195
12925SOL    HW140672   1.086   9.332  10.228
12925SOL    HW240673   1.012   9.416  10.126
12926SOL     OW40674   0.367  13.969   7.624
12926SOL    HW140675   0.445  14.023   7.637
12926SOL    HW240676   0.377  13.933   7.536
12927SOL     OW40677  14.568  13.148  13.556
12927SOL    HW140678  14.649  13.102  13.577
12927SOL    HW240679  14.525  13.161  13.640
12928SOL     OW40680   1.513  12.854  14.239
12928SOL    HW140681   1.601  12.818  14.244
12928SOL    HW240682   1.526  12.946  14.218
12929SOL     OW40683   3.304   9.632   7.051
12929SOL    HW140684   3.353   9.602   6.974
12929SOL    HW240685   3.216   9.597   7.038
12930SOL     OW40686   2.263  11.605   5.938
12930SOL    HW140687   2.175  11.587   5.973
12930SOL    HW240688   2.262  11.699   5.921
12931SOL     OW40689  12.423  12.227  12.229
12931SOL    HW140690  12.370  12.198  12.304
12931SOL    HW240691  12.512  12.200  12.250
12932SOL     OW40692  10.184  13.311   3.476
12932SOL    HW140693  10.221  13.392   3.511
12932SOL    HW240694  10.195  13.319   3.381
12933SOL     OW40695  14.204   8.492   5.392
12933SOL    HW140696  14.297   8.468   5.398
12933SOL    HW240697  14.174   8.493   5.483
12934SOL     OW40698   7.542  12.172   0.965
12934SOL    HW140699   7.547  12.092   0.912
12934SOL    HW240700   7.449  12.193   0.969
12935SOL     OW40701  11.155   8.598   0.259
12935SOL    HW140702  11.067   8.595   0.296
12935SOL    HW240703  11.157   8.678   0.207
12936SOL     OW40704  12.160   0.691   0.183
12936SOL    HW140705  12.104   0.641   0.124
12936SOL    HW240706  12.141   0.783   0.162
12937SOL     OW40707   2.784  11.019  10.182
12937SOL    HW140708   2.697  11.055  10.163
12937SOL    HW240709   2.830  11.092  10.224
12938SOL     OW40710  10.723   9.498   0.050
12938SOL    HW140711  10.730   9.544   0.134
12938SOL    HW240712  10.631   9.506   0.026
12939SOL     OW40713   9.411   9.120   7.071
12939SOL    HW140714   9.323   9.088   7.091
12939SOL    HW240715   9.428   9.187   7.137
12940SOL     OW40716   2.383   8.421   9.282
12940SOL    HW140717   2.411   8.384   9.198
12940SOL    HW240718   2.307   8.475   9.261
12941SOL     OW40719   3.579  10.508   2.682
12941SOL    HW140720   3.529  10.470   2.610
12941SOL    HW240721   3.667  10.472   2.672
12942SOL     OW40722  14.029  14.623   9.865
12942SOL    HW140723  14.017  14.536   9.827
12942SOL    HW240724  13.976  14.681   9.810
12943SOL     OW40725   7.934   1.372   3.308
12943SOL    HW140726   7.975   1.459   3.310
12943SOL    HW240727   7.885   1.370   3.226
12944SOL     OW40728   8.525   1.839   6.851
12944SOL    HW140729   8.472   1.849   6.930
12944SOL    HW240730   8.564   1.926   6.839
12945SOL     OW40731   1.317  12.794   9.915
12945SOL    HW140732   1.230  12.835   9.912
12945SOL    HW240733   1.369  12.852   9.971
12946SOL     OW40734  13.835   0.676  11.260
12946SOL    HW140735  13.869   0.660  11.348
12946SOL    HW240736  13.832   0.589  11.219
12947SOL     OW40737   2.059  13.780   7.425
12947SOL    HW140738   2.041  13.752   7.515
12947SOL    HW240739   2.039  13.874   7.425
12948SOL     OW40740  14.258   4.011   1.476
12948SOL    HW140741  14.181   4.021   1.420
12948SOL    HW240742  14.234   4.055   1.558
12949SOL     OW40743   1.359   5.831   3.734
12949SOL    HW140744   1.392   5.744   3.711
12949SOL    HW240745   1.422   5.892   3.694
12950SOL     OW40746   7.306  11.552   0.048
12950SOL    HW140747   7.382  11.543  14.871
12950SOL    HW240748   7.297  11.646   0.062
12951SOL     OW40749  11.035   2.882   9.369
12951SOL    HW140750  10.971   2.811   9.365
12951SOL    HW240751  10.992   2.955   9.323
12952SOL     OW40752   9.618  11.284  12.863
12952SOL    HW140753   9.682  11.231  12.910
12952SOL    HW240754   9.657  11.300  12.777
12953SOL     OW40755   6.535  14.236  11.619
12953SOL    HW140756   6.612  14.281  11.653
12953SOL    HW240757   6.568  14.180  11.549
12954SOL     OW40758  14.063   5.493  12.318
12954SOL    HW140759  14.100   5.537  12.242
12954SOL    HW240760  14.060   5.559  12.386
12955SOL     OW40761   5.012   5.305  10.946
12955SOL    HW140762   5.073   5.327  10.876
12955SOL    HW240763   4.975   5.389  10.974
12956SOL     OW40764  10.654   2.408   8.947
12956SOL    HW140765  10.640   2.334   9.005
12956SOL    HW240766  10.749   2.413   8.935
12957SOL     OW40767   3.168  14.387  11.201
12957SOL    HW140768   3.138  14.403  11.111
12957SOL    HW240769   3.222  14.309  11.195
12958SOL     OW40770   2.106  14.027  14.469
12958SOL    HW140771   2.089  14.064  14.555
12958SOL    HW240772   2.145  14.099  14.419
12959SOL     OW40773   5.418  10.088  10.795
12959SOL    HW140774   5.495  10.103  10.851
12959SOL    HW240775   5.351  10.055  10.855
12960SOL     OW40776   1.141   9.506  14.876
12960SOL    HW140777   1.140   9.553   0.080
12960SOL    HW240778   1.050   9.508  14.846
12961SOL     OW40779   2.597   3.744  14.293
12961SOL    HW140780   2.652   3.675  14.329
12961SOL    HW240781   2.530   3.759  14.360
12962SOL     OW40782   3.252  11.839  10.629
12962SOL    HW140783   3.308  11.917  10.622
12962SOL    HW240784   3.242  11.825  10.724
12963SOL     OW40785  11.602   8.957   4.705
12963SOL    HW140786  11.655   9.033   4.681
12963SOL    HW240787  11.578   8.917   4.622
12964SOL     OW40788   6.406   2.053   2.729
12964SOL    HW140789   6.318   2.036   2.763
12964SOL    HW240790   6.410   2.149   2.721
12965SOL     OW40791   6.800   9.043  13.562
12965SOL    HW140792   6.802   8.963  13.511
12965SOL    HW240793   6.733   9.097  13.520
12966SOL     OW40794  11.022  13.203  10.178
12966SOL    HW140795  11.103  13.226  10.132
12966SOL    HW240796  10.960  13.271  10.153
12967SOL     OW40797   1.488  10.104  13.818
12967SOL    HW140798   1.483  10.191  13.858
12967SOL    HW240799   1.581  10.090  13.803
12968SOL     OW40800  14.033   6.761   7.130
12968SOL    HW140801  14.056   6.788   7.219
12968SOL    HW240802  14.049   6.839   7.077
12969SOL     OW40803   7.647   7.970  12.140
12969SOL    HW140804   7.664   7.891  12.191
12969SOL    HW240805   7.674   7.948  12.051
12970SOL     OW40806   7.452  11.925  10.926
12970SOL    HW140807   7.410  11.908  10.842
12970SOL    HW240808   7.543  11.945  10.903
12971SOL     OW40809   8.085   0.943  10.442
12971SOL    HW140810   8.110   0.854  10.417
12971SOL    HW240811   8.142   0.964  10.516
12972SOL     OW40812   6.869  12.521  12.667
12972SOL    HW140813   6.785  12.538  12.710
12972SOL    HW240814   6.884  12.598  12.613
12973SOL     OW40815  11.365   3.180   5.684
12973SOL    HW140816  11.293   3.123   5.658
12973SOL    HW240817  11.444   3.135   5.653
12974SOL     OW40818  12.666   5.591   1.805
12974SOL    HW140819  12.711   5.674   1.818
12974SOL    HW240820  12.612   5.605   1.727
12975SOL     OW40821   9.300   3.577  13.862
12975SOL    HW140822   9.206   3.595  13.871
12975SOL    HW240823   9.305   3.482  13.854
12976SOL     OW40824  13.787   8.585  12.346
12976SOL    HW140825  13.843   8.550  12.415
12976SOL    HW240826  13.707   8.531  12.351
12977SOL     OW40827   0.646   8.794   7.035
12977SOL    HW140828   0.563   8.843   7.030
12977SOL    HW240829   0.707   8.845   6.981
12978SOL     OW40830   1.132   7.315   6.729
12978SOL    HW140831   1.126   7.410   6.740
12978SOL    HW240832   1.219   7.293   6.763
12979SOL     OW40833  12.883   0.178   9.403
12979SOL    HW140834  12.839   0.192   9.486
12979SOL    HW240835  12.885   0.265   9.362
12980SOL     OW40836   0.616   9.808  12.489
12980SOL    HW140837   0.595   9.715  12.479
12980SOL    HW240838   0.694   9.820  12.435
12981SOL     OW40839   1.329  11.098  12.485
12981SOL    HW140840   1.325  11.193  12.481
12981SOL    HW240841   1.294  11.069  12.401
12982SOL     OW40842  12.027   6.440   2.226
12982SOL    HW140843  12.108   6.408   2.187
12982SOL    HW240844  12.047   6.530   2.252
12983SOL     OW40845   4.176   8.373   0.401
12983SOL    HW140846   4.089   8.341   0.376
12983SOL    HW240847   4.173   8.377   0.496
12984SOL     OW40848  14.172   6.135  13.448
12984SOL    HW140849  14.165   6.142  13.544
12984SOL    HW240850  14.266   6.134  13.432
12985SOL     OW40851   9.979   7.440  10.843
12985SOL    HW140852   9.986   7.486  10.759
12985SOL    HW240853  10.070   7.421  10.867
12986SOL     OW40854   5.464   3.975   0.418
12986SOL    HW140855   5.375   4.007   0.431
12986SOL    HW240856   5.508   4.044   0.368
12987SOL     OW40857  10.437  10.579   9.923
12987SOL    HW140858  10.478  10.649   9.873
12987SOL    HW240859  10.447  10.501   9.869
12988SOL     OW40860   5.567  12.150   2.138
12988SOL    HW140861   5.660  12.159   2.156
12988SOL    HW240862   5.560  12.161   2.043
12989SOL     OW40863  11.110  13.946   6.660
12989SOL    HW140864  11.181  13.883   6.656
12989SOL    HW240865  11.033  13.894   6.683
12990SOL     OW40866  14.332   0.636   7.883
12990SOL    HW140867  14.395   0.634   7.955
12990SOL    HW240868  14.304   0.544   7.873
12991SOL     OW40869   6.653  10.191   6.443
12991SOL    HW140870   6.690  10.153   6.363
12991SOL    HW240871   6.584  10.130   6.470
12992SOL     OW40872   8.086   0.813  10.822
12992SOL    HW140873   8.172   0.800  10.860
12992SOL    HW240874   8.075   0.908  10.818
12993SOL     OW40875   9.680  12.177   1.356
12993SOL    HW140876   9.602  12.164   1.409
12993SOL    HW240877   9.674  12.110   1.287
12994SOL     OW40878  13.717  11.227   0.823
12994SOL    HW140879  13.688  11.180   0.901
12994SOL    HW240880  13.729  11.158   0.757
12995SOL     OW40881   0.214   3.012   1.335
12995SOL    HW140882   0.153   2.955   1.289
12995SOL    HW240883   0.178   3.100   1.322
12996SOL     OW40884   9.148  12.516  12.651
12996SOL    HW140885   9.096  12.492  12.575
12996SOL    HW240886   9.156  12.612  12.645
12997SOL     OW40887   2.334  11.930   0.943
12997SOL    HW140888   2.394  11.856   0.941
12997SOL    HW240889   2.266  11.909   0.879
12998SOL     OW40890   8.178   2.295  11.167
12998SOL    HW140891   8.265   2.321  11.196
12998SOL    HW240892   8.153   2.362  11.103
12999SOL     OW40893  11.149  12.414   9.662
12999SOL    HW140894  11.085  12.436   9.729
12999SOL    HW240895  11.105  12.430   9.579
13000SOL     OW40896  13.678   1.523   2.152
13000SOL    HW140897  13.661   1.528   2.058
13000SOL    HW240898  13.651   1.434   2.177
13001SOL     OW40899  11.218   6.474  13.069
13001SOL    HW140900  11.242   6.404  13.130
13001SOL    HW240901  11.243   6.555  13.114
13002SOL     OW40902   7.628   2.714  14.466
13002SOL    HW140903   7.713   2.746  14.499
13002SOL    HW240904   7.628   2.740  14.374
13003SOL     OW40905   1.434   7.567   5.778
13003SOL    HW140906   1.452   7.499   5.713
13003SOL    HW240907   1.513   7.572   5.831
13004SOL     OW40908   4.562   6.411  10.361
13004SOL    HW140909   4.565   6.374  10.273
13004SOL    HW240910   4.487   6.369  10.403
13005SOL     OW40911   2.093   3.595   5.619
13005SOL    HW140912   2.141   3.644   5.552
13005SOL    HW240913   2.063   3.662   5.680
13006SOL     OW40914   2.754  10.582   6.889
13006SOL    HW140915   2.776  10.650   6.952
13006SOL    HW240916   2.730  10.506   6.942
13007SOL     OW40917   2.366  13.528  12.666
13007SOL    HW140918   2.415  13.541  12.585
13007SOL    HW240919   2.356  13.617  12.702
13008SOL     OW40920   7.482  13.659   2.112
13008SOL    HW140921   7.400  13.708   2.100
13008SOL    HW240922   7.538  13.690   2.041
13009SOL     OW40923  13.759   8.644  11.854
13009SOL    HW140924  13.805   8.562  11.833
13009SOL    HW240925  13.677   8.615  11.895
13010SOL     OW40926   1.140  13.479   8.778
13010SOL    HW140927   1.101  13.545   8.721
13010SOL    HW240928   1.120  13.509   8.867
13011SOL     OW40929  13.988   2.191  10.956
13011SOL    HW140930  13.954   2.103  10.941
13011SOL    HW240931  13.913   2.249  10.947
13012SOL     OW40932   9.764   1.462  13.170
13012SOL    HW140933   9.707   1.409  13.114
13012SOL    HW240934   9.753   1.552  13.139
13013SOL     OW40935   4.371   7.745  12.258
13013SOL    HW140936   4.371   7.663  12.208
13013SOL    HW240937   4.461   7.753  12.289
13014SOL     OW40938  11.064   9.992   3.703
13014SOL    HW140939  11.104  10.054   3.764
13014SOL    HW240940  11.041  10.045   3.627
13015SOL     OW40941   7.558   5.794  10.350
13015SOL    HW140942   7.593   5.713  10.388
13015SOL    HW240943   7.608   5.806  10.269
13016SOL     OW40944   8.122  12.635   4.912
13016SOL    HW140945   8.139  12.593   4.996
13016SOL    HW240946   8.129  12.565   4.848
13017SOL     OW40947  13.715   1.510   7.232
13017SOL    HW140948  13.768   1.481   7.158
13017SOL    HW240949  13.685   1.430   7.274
13018SOL     OW40950  10.528   9.016   6.093
13018SOL    HW140951  10.466   8.964   6.144
13018SOL    HW240952  10.496   9.106   6.103
13019SOL     OW40953  12.200   8.415   7.710
13019SOL    HW140954  12.191   8.499   7.665
13019SOL    HW240955  12.255   8.434   7.786
13020SOL     OW40956   1.538   8.445   8.936
13020SOL    HW140957   1.581   8.375   8.985
13020SOL    HW240958   1.469   8.476   8.993
13021SOL     OW40959  14.090  12.992   5.353
13021SOL    HW140960  14.062  13.073   5.309
13021SOL    HW240961  14.161  13.020   5.410
13022SOL     OW40962   8.114   1.654   4.987
13022SOL    HW140963   8.195   1.642   5.036
13022SOL    HW240964   8.094   1.748   4.996
13023SOL     OW40965   0.787  12.580   0.660
13023SOL    HW140966   0.829  12.598   0.576
13023SOL    HW240967   0.852  12.607   0.725
13024SOL     OW40968   4.889  13.062   8.905
13024SOL    HW140969   4.881  13.009   8.826
13024SOL    HW240970   4.800  13.088   8.927
13025SOL     OW40971   5.444  11.757  12.302
13025SOL    HW140972   5.473  11.754  12.393
13025SOL    HW240973   5.370  11.697  12.298
13026SOL     OW40974   9.018   3.133   3.916
13026SOL    HW140975   9.014   3.129   4.012
13026SOL    HW240976   8.927   3.144   3.889
13027SOL     OW40977  11.227   8.937   2.507
13027SOL    HW140978  11.148   8.992   2.503
13027SOL    HW240979  11.288   8.986   2.562
13028SOL     OW40980   5.765  11.301   4.989
13028SOL    HW140981   5.805  11.388   4.998
13028SOL    HW240982   5.811  11.247   5.052
13029SOL     OW40983  12.829  13.003  11.959
13029SOL    HW140984  12.796  13.015  11.870
13029SOL    HW240985  12.922  13.027  11.954
13030SOL     OW40986   4.314   1.447  13.763
13030SOL    HW140987   4.250   1.516  13.745
13030SOL    HW240988   4.326   1.404  13.678
13031SOL     OW40989  11.073   0.334  14.829
13031SOL    HW140990  11.125   0.302  14.755
13031SOL    HW240991  11.003   0.269  14.839
13032SOL     OW40992  11.492  12.507   3.826
13032SOL    HW140993  11.445  12.429   3.799
13032SOL    HW240994  11.469  12.573   3.761
13033SOL     OW40995  10.862   2.998   2.184
13033SOL    HW140996  10.919   2.937   2.137
13033SOL    HW240997  10.819   2.944   2.251
13034SOL     OW40998  12.720   3.844   9.872
13034SOL    HW140999  12.713   3.876   9.962
13034SOL    HW241000  12.793   3.782   9.874
13035SOL     OW41001  11.992   6.555   4.925
13035SOL    HW141002  11.909   6.511   4.943
13035SOL    HW241003  12.017   6.523   4.838
13036SOL     OW41004   4.716   7.023  14.456
13036SOL    HW141005   4.734   7.105  14.502
13036SOL    HW241006   4.637   7.042  14.404
13037SOL     OW41007  14.245   3.021   2.579
13037SOL    HW141008  14.283   3.104   2.608
13037SOL    HW241009  14.160   3.045   2.542
13038SOL     OW41010  12.160   8.189   4.041
13038SOL    HW141011  12.138   8.173   3.949
13038SOL    HW241012  12.076   8.212   4.082
13039SOL     OW41013  14.666   1.436   2.403
13039SOL    HW141014  14.721   1.497   2.354
13039SOL    HW241015  14.583   1.481   2.413
13040SOL     OW41016   3.791  14.357  10.192
13040SOL    HW141017   3.833  14.271  10.193
13040SOL    HW241018   3.859  14.418  10.220
13041SOL     OW41019   6.805   4.284  10.022
13041SOL    HW141020   6.799   4.345   9.948
13041SOL    HW241021   6.714   4.263  10.043
13042SOL     OW41022   2.086  14.180  11.148
13042SOL    HW141023   2.096  14.108  11.210
13042SOL    HW241024   2.150  14.246  11.177
13043SOL     OW41025   2.061  12.021  14.813
13043SOL    HW141026   2.149  11.983  14.815
13043SOL    HW241027   2.063  12.080  14.738
13044SOL     OW41028  10.545  12.253   9.614
13044SOL    HW141029  10.611  12.195   9.576
13044SOL    HW241030  10.582  12.280   9.699
13045SOL     OW41031  12.598  13.575   3.907
13045SOL    HW141032  12.662  13.620   3.962
13045SOL    HW241033  12.623  13.482   3.913
13046SOL     OW41034  10.133   0.159   6.081
13046SOL    HW141035  10.088   0.242   6.092
13046SOL    HW241036  10.068   0.093   6.103
13047SOL     OW41037   4.295   8.255  11.914
13047SOL    HW141038   4.284   8.350  11.913
13047SOL    HW241039   4.359   8.238  11.844
13048SOL     OW41040  14.169   0.662   0.734
13048SOL    HW141041  14.151   0.756   0.734
13048SOL    HW241042  14.132   0.630   0.651
13049SOL     OW41043   3.426  10.189  12.066
13049SOL    HW141044   3.417  10.120  12.131
13049SOL    HW241045   3.387  10.152  11.986
13050SOL     OW41046  11.328   6.948   9.953
13050SOL    HW141047  11.351   6.855   9.948
13050SOL    HW241048  11.374   6.987   9.878
13051SOL     OW41049   1.456   9.369   3.336
13051SOL    HW141050   1.497   9.286   3.313
13051SOL    HW241051   1.384   9.346   3.395
13052SOL     OW41052   6.474   4.885  14.080
13052SOL    HW141053   6.522   4.862  14.160
13052SOL    HW241054   6.423   4.806  14.061
13053SOL     OW41055   9.388   3.859  11.064
13053SOL    HW141056   9.475   3.862  11.105
13053SOL    HW241057   9.349   3.943  11.086
13054SOL     OW41058   5.721  13.508   1.877
13054SOL    HW141059   5.653  13.480   1.938
13054SOL    HW241060   5.697  13.598   1.855
13055SOL     OW41061  10.138  12.818   7.379
13055SOL    HW141062  10.074  12.781   7.318
13055SOL    HW241063  10.093  12.817   7.463
13056SOL     OW41064   9.537   1.143   4.366
13056SOL    HW141065   9.613   1.176   4.413
13056SOL    HW241066   9.463   1.192   4.402
13057SOL     OW41067  10.306   4.003   7.171
13057SOL    HW141068  10.335   3.984   7.082
13057SOL    HW241069  10.310   3.918   7.215
13058SOL     OW41070  10.130  11.368  13.561
13058SOL    HW141071  10.141  11.273  13.570
13058SOL    HW241072  10.145  11.385  13.469
13059SOL     OW41073   0.811  11.538   7.606
13059SOL    HW141074   0.785  11.577   7.690
13059SOL    HW241075   0.886  11.590   7.578
13060SOL     OW41076   0.501  12.643  12.319
13060SOL    HW141077   0.567  12.643  12.389
13060SOL    HW241078   0.431  12.698  12.352
13061SOL     OW41079   5.660   7.642   2.480
13061SOL    HW141080   5.580   7.673   2.438
13061SOL    HW241081   5.651   7.668   2.571
13062SOL     OW41082   9.189   5.715   5.874
13062SOL    HW141083   9.107   5.765   5.879
13062SOL    HW241084   9.177   5.657   5.799
13063SOL     OW41085  14.136   5.685   8.869
13063SOL    HW141086  14.154   5.707   8.960
13063SOL    HW241087  14.221   5.659   8.833
13064SOL     OW41088   4.614  10.174  12.524
13064SOL    HW141089   4.648  10.259  12.497
13064SOL    HW241090   4.692  10.124  12.549
13065SOL     OW41091   4.626  10.688   1.403
13065SOL    HW141092   4.703  10.640   1.373
13065SOL    HW241093   4.574  10.702   1.324
13066SOL     OW41094   9.864   0.190   5.227
13066SOL    HW141095   9.880   0.247   5.152
13066SOL    HW241096   9.879   0.102   5.194
13067SOL     OW41097   8.701  10.537   6.755
13067SOL    HW141098   8.627  10.550   6.814
13067SOL    HW241099   8.683  10.453   6.712
13068SOL     OW41100  10.643   4.069  13.248
13068SOL    HW141101  10.613   3.990  13.203
13068SOL    HW241102  10.738   4.058  13.255
13069SOL     OW41103  12.193   2.465   1.181
13069SOL    HW141104  12.249   2.543   1.191
13069SOL    HW241105  12.234   2.399   1.237
13070SOL     OW41106   8.202  13.639  11.879
13070SOL    HW141107   8.154  13.720  11.863
13070SOL    HW241108   8.143  13.588  11.935
13071SOL     OW41109  10.501  14.663  12.190
13071SOL    HW141110  10.445  14.600  12.235
13071SOL    HW241111  10.540  14.613  12.118
13072SOL     OW41112  11.697   8.724  11.978
13072SOL    HW141113  11.612   8.682  11.963
13072SOL    HW241114  11.685   8.774  12.059
13073SOL     OW41115  14.762   7.373   6.950
13073SOL    HW141116  14.739   7.302   7.010
13073SOL    HW241117  14.683   7.387   6.898
13074SOL     OW41118   4.624   6.934   3.745
13074SOL    HW141119   4.551   6.940   3.807
13074SOL    HW241120   4.663   6.848   3.763
13075SOL     OW41121   1.992   5.680   0.449
13075SOL    HW141122   2.034   5.668   0.364
13075SOL    HW241123   1.899   5.670   0.432
13076SOL     OW41124   6.551   7.350   9.590
13076SOL    HW141125   6.637   7.378   9.621
13076SOL    HW241126   6.522   7.421   9.533
13077SOL     OW41127   6.992  14.603   6.669
13077SOL    HW141128   7.035  14.664   6.729
13077SOL    HW241129   7.042  14.611   6.588
13078SOL     OW41130   6.982   3.173   8.922
13078SOL    HW141131   6.977   3.148   8.830
13078SOL    HW241132   6.912   3.236   8.934
13079SOL     OW41133   7.963  11.804   7.984
13079SOL    HW141134   7.895  11.791   8.050
13079SOL    HW241135   8.038  11.837   8.033
13080SOL     OW41136  12.016   6.311  13.751
13080SOL    HW141137  12.038   6.394  13.794
13080SOL    HW241138  12.087   6.252  13.775
13081SOL     OW41139   0.231  12.336   1.365
13081SOL    HW141140   0.193  12.249   1.380
13081SOL    HW241141   0.248  12.339   1.271
13082SOL     OW41142  11.917   0.699   9.397
13082SOL    HW141143  11.834   0.717   9.353
13082SOL    HW241144  11.894   0.646   9.473
13083SOL     OW41145   5.415  11.635  13.527
13083SOL    HW141146   5.415  11.702  13.595
13083SOL    HW241147   5.499  11.646  13.482
13084SOL     OW41148   0.598   7.557   0.905
13084SOL    HW141149   0.616   7.496   0.833
13084SOL    HW241150   0.503   7.567   0.905
13085SOL     OW41151   7.506   0.637   0.875
13085SOL    HW141152   7.526   0.574   0.944
13085SOL    HW241153   7.516   0.722   0.916
13086SOL     OW41154   9.351  13.734   5.315
13086SOL    HW141155   9.297  13.754   5.392
13086SOL    HW241156   9.439  13.725   5.350
13087SOL     OW41157   8.039   1.587   1.841
13087SOL    HW141158   8.006   1.616   1.926
13087SOL    HW241159   8.034   1.664   1.785
13088SOL     OW41160   2.961  10.608  14.066
13088SOL    HW141161   3.031  10.606  14.130
13088SOL    HW241162   2.994  10.555  13.993
13089SOL     OW41163   3.083   5.725   4.299
13089SOL    HW141164   3.025   5.801   4.303
13089SOL    HW241165   3.042   5.667   4.235
13090SOL     OW41166   1.366   3.857   0.164
13090SOL    HW141167   1.340   3.869   0.072
13090SOL    HW241168   1.288   3.823   0.207
13091SOL     OW41169   7.112   7.346   4.939
13091SOL    HW141170   7.128   7.322   5.030
13091SOL    HW241171   7.108   7.263   4.892
13092SOL     OW41172  11.230  14.602   2.498
13092SOL    HW141173  11.302  14.663   2.489
13092SOL    HW241174  11.159  14.654   2.536
13093SOL     OW41175   7.910   2.056   8.514
13093SOL    HW141176   7.970   2.049   8.440
13093SOL    HW241177   7.828   2.088   8.476
13094SOL     OW41178   7.990  14.222  10.530
13094SOL    HW141179   8.037  14.142  10.506
13094SOL    HW241180   7.950  14.251  10.448
13095SOL     OW41181   1.679  14.679   5.126
13095SOL    HW141182   1.658  14.637   5.210
13095SOL    HW241183   1.771  14.704   5.134
13096SOL     OW41184   5.545   5.593   1.781
13096SOL    HW141185   5.526   5.652   1.708
13096SOL    HW241186   5.535   5.647   1.859
13097SOL     OW41187  12.963  10.493  11.812
13097SOL    HW141188  12.953  10.548  11.890
13097SOL    HW241189  12.900  10.529  11.749
13098SOL     OW41190   5.307  13.355   1.071
13098SOL    HW141191   5.397  13.361   1.104
13098SOL    HW241192   5.314  13.305   0.990
13099SOL     OW41193   3.059   4.986   3.775
13099SOL    HW141194   3.150   4.996   3.803
13099SOL    HW241195   3.065   4.968   3.681
13100SOL     OW41196   0.484   9.494  11.622
13100SOL    HW141197   0.579   9.488  11.615
13100SOL    HW241198   0.464   9.587  11.609
13101SOL     OW41199  14.314   1.504  12.714
13101SOL    HW141200  14.360   1.430  12.755
13101SOL    HW241201  14.345   1.581  12.761
13102SOL     OW41202   1.137   2.967  11.972
13102SOL    HW141203   1.056   2.938  12.014
13102SOL    HW241204   1.179   2.886  11.941
13103SOL     OW41205  13.379   8.140  13.416
13103SOL    HW141206  13.466   8.170  13.390
13103SOL    HW241207  13.391   8.110  13.506
13104SOL     OW41208  11.506   0.483   3.143
13104SOL    HW141209  11.488   0.519   3.229
13104SOL    HW241210  11.431   0.509   3.090
13105SOL     OW41211   4.017   4.250   7.995
13105SOL    HW141212   3.926   4.261   8.022
13105SOL    HW241213   4.053   4.189   8.059
13106SOL     OW41214   5.453   0.836   0.424
13106SOL    HW141215   5.469   0.762   0.367
13106SOL    HW241216   5.470   0.802   0.512
13107SOL     OW41217   7.466  13.206   3.432
13107SOL    HW141218   7.506  13.155   3.362
13107SOL    HW241219   7.471  13.296   3.402
13108SOL     OW41220   4.996  11.519   8.745
13108SOL    HW141221   5.067  11.506   8.682
13108SOL    HW241222   4.916  11.515   8.693
13109SOL     OW41223   5.374  11.402  12.040
13109SOL    HW141224   5.313  11.436  11.976
13109SOL    HW241225   5.378  11.308  12.023
13110SOL     OW41226   6.358   4.009  12.666
13110SOL    HW141227   6.293   3.958  12.714
13110SOL    HW241228   6.442   3.975  12.696
13111SOL     OW41229   0.306   9.870   6.548
13111SOL    HW141230   0.382   9.855   6.604
13111SOL    HW241231   0.300   9.792   6.493
13112SOL     OW41232   6.238   8.050   6.975
13112SOL    HW141233   6.332   8.067   6.969
13112SOL    HW241234   6.201   8.095   6.899
13113SOL     OW41235   3.274   1.123   3.421
13113SOL    HW141236   3.343   1.143   3.358
13113SOL    HW241237   3.310   1.054   3.476
13114SOL     OW41238   7.535   8.733  11.124
13114SOL    HW141239   7.571   8.675  11.058
13114SOL    HW241240   7.461   8.685  11.161
13115SOL     OW41241   7.850  13.033  10.645
13115SOL    HW141242   7.945  13.041  10.654
13115SOL    HW241243   7.833  12.939  10.646
13116SOL     OW41244  11.322   6.954   7.800
13116SOL    HW141245  11.362   6.949   7.713
13116SOL    HW241246  11.301   6.863   7.820
13117SOL     OW41247   5.854   8.916   8.548
13117SOL    HW141248   5.830   8.846   8.608
13117SOL    HW241249   5.779   8.975   8.548
13118SOL     OW41250   5.389  10.820   1.934
13118SOL    HW141251   5.370  10.741   1.884
13118SOL    HW241252   5.484  10.824   1.937
13119SOL     OW41253  11.262   4.124   8.520
13119SOL    HW141254  11.313   4.044   8.530
13119SOL    HW241255  11.299   4.167   8.443
13120SOL     OW41256   2.255   7.741   3.237
13120SOL    HW141257   2.178   7.791   3.264
13120SOL    HW241258   2.233   7.650   3.259
13121SOL     OW41259   7.055   3.436   0.843
13121SOL    HW141260   7.035   3.480   0.761
13121SOL    HW241261   7.108   3.360   0.817
13122SOL     OW41262   1.677   8.559   1.760
13122SOL    HW141263   1.635   8.643   1.778
13122SOL    HW241264   1.654   8.505   1.836
13123SOL     OW41265   5.098  11.304   6.725
13123SOL    HW141266   5.084  11.283   6.817
13123SOL    HW241267   5.186  11.342   6.722
13124SOL     OW41268  13.802   5.952  10.700
13124SOL    HW141269  13.822   5.928  10.609
13124SOL    HW241270  13.800   5.868  10.747
13125SOL     OW41271   9.064   9.863  11.518
13125SOL    HW141272   8.969   9.864  11.527
13125SOL    HW241273   9.087   9.954  11.502
13126SOL     OW41274  13.320   8.631   4.719
13126SOL    HW141275  13.366   8.709   4.690
13126SOL    HW241276  13.375   8.594   4.788
13127SOL     OW41277   5.810  11.379  13.343
13127SOL    HW141278   5.745  11.333  13.396
13127SOL    HW241279   5.759  11.438  13.287
13128SOL     OW41280  13.777  10.701  10.601
13128SOL    HW141281  13.788  10.608  10.621
13128SOL    HW241282  13.832  10.717  10.524
13129SOL     OW41283   4.196   0.525  12.741
13129SOL    HW141284   4.272   0.581  12.731
13129SOL    HW241285   4.203   0.462  12.669
13130SOL     OW41286   0.430   9.396  14.667
13130SOL    HW141287   0.375   9.395  14.745
13130SOL    HW241288   0.423   9.486  14.634
13131SOL     OW41289   2.384  14.718   2.454
13131SOL    HW141290   2.431  14.719   2.538
13131SOL    HW241291   2.413  14.798   2.410
13132SOL     OW41292  12.655   4.611  11.716
13132SOL    HW141293  12.638   4.549  11.787
13132SOL    HW241294  12.750   4.610  11.704
13133SOL     OW41295  13.755  10.413   6.991
13133SOL    HW141296  13.808  10.492   6.981
13133SOL    HW241297  13.787  10.371   7.070
13134SOL     OW41298  11.523   0.845   7.110
13134SOL    HW141299  11.461   0.785   7.069
13134SOL    HW241300  11.603   0.836   7.058
13135SOL     OW41301   5.243  14.838   3.002
13135SOL    HW141302   5.286  14.861   2.920
13135SOL    HW241303   5.313  14.834   3.067
13136SOL     OW41304  12.869  10.827   2.103
13136SOL    HW141305  12.876  10.748   2.157
13136SOL    HW241306  12.784  10.865   2.125
13137SOL     OW41307   1.854   6.371   5.703
13137SOL    HW141308   1.778   6.315   5.714
13137SOL    HW241309   1.820   6.460   5.710
13138SOL     OW41310   9.753   0.596   5.356
13138SOL    HW141311   9.744   0.564   5.266
13138SOL    HW241312   9.789   0.684   5.347
13139SOL     OW41313  12.447   9.004  10.284
13139SOL    HW141314  12.464   9.098  10.280
13139SOL    HW241315  12.451   8.983  10.377
13140SOL     OW41316  13.765   9.944   9.124
13140SOL    HW141317  13.814   9.999   9.185
13140SOL    HW241318  13.674   9.954   9.150
13141SOL     OW41319  11.156   6.935   1.994
13141SOL    HW141320  11.241   6.957   1.955
13141SOL    HW241321  11.097   6.926   1.919
13142SOL     OW41322   6.743   4.277   5.309
13142SOL    HW141323   6.724   4.302   5.399
13142SOL    HW241324   6.835   4.252   5.310
13143SOL     OW41325  11.241   0.485   5.997
13143SOL    HW141326  11.220   0.470   6.089
13143SOL    HW241327  11.288   0.569   5.996
13144SOL     OW41328   4.059  12.673  11.838
13144SOL    HW141329   4.022  12.736  11.776
13144SOL    HW241330   4.095  12.728  11.908
13145SOL     OW41331   4.116  13.555   3.308
13145SOL    HW141332   4.143  13.475   3.354
13145SOL    HW241333   4.103  13.619   3.378
13146SOL     OW41334   8.546  11.235   0.821
13146SOL    HW141335   8.625  11.280   0.851
13146SOL    HW241336   8.503  11.205   0.901
13147SOL     OW41337   4.789   5.794   0.966
13147SOL    HW141338   4.717   5.850   0.939
13147SOL    HW241339   4.784   5.719   0.908
13148SOL     OW41340   6.466   4.761  10.369
13148SOL    HW141341   6.462   4.810  10.451
13148SOL    HW241342   6.377   4.765  10.335
13149SOL     OW41343   8.902  14.108   7.635
13149SOL    HW141344   8.968  14.046   7.605
13149SOL    HW241345   8.940  14.194   7.617
13150SOL     OW41346   5.498   4.301   1.373
13150SOL    HW141347   5.518   4.279   1.282
13150SOL    HW241348   5.572   4.266   1.423
13151SOL     OW41349   6.776  13.056   6.287
13151SOL    HW141350   6.751  13.039   6.197
13151SOL    HW241351   6.860  13.102   6.280
13152SOL     OW41352  11.198  12.835   2.490
13152SOL    HW141353  11.217  12.822   2.397
13152SOL    HW241354  11.283  12.828   2.534
13153SOL     OW41355  12.004  14.862   5.226
13153SOL    HW141356  11.919  14.831   5.194
13153SOL    HW241357  11.989   0.000   5.319
13154SOL     OW41358  13.527   8.946  13.745
13154SOL    HW141359  13.464   8.894  13.695
13154SOL    HW241360  13.508   8.926  13.836
13155SOL     OW41361   9.204   5.648   9.460
13155SOL    HW141362   9.188   5.555   9.443
13155SOL    HW241363   9.243   5.680   9.379
13156SOL     OW41364   7.165   3.775   7.916
13156SOL    HW141365   7.195   3.765   8.006
13156SOL    HW241366   7.224   3.719   7.865
13157SOL     OW41367  13.628  10.775   4.959
13157SOL    HW141368  13.713  10.757   4.918
13157SOL    HW241369  13.564  10.735   4.900
13158SOL     OW41370  12.205   3.856  10.528
13158SOL    HW141371  12.161   3.931  10.568
13158SOL    HW241372  12.185   3.782  10.586
13159SOL     OW41373  12.702   1.784   8.418
13159SOL    HW141374  12.713   1.689   8.409
13159SOL    HW241375  12.608   1.797   8.426
13160SOL     OW41376   1.960  13.137   5.214
13160SOL    HW141377   1.905  13.203   5.172
13160SOL    HW241378   2.050  13.161   5.189
13161SOL     OW41379   8.976   8.507  10.367
13161SOL    HW141380   8.981   8.545  10.454
13161SOL    HW241381   9.056   8.455  10.359
13162SOL     OW41382   3.259   8.494  14.303
13162SOL    HW141383   3.249   8.403  14.332
13162SOL    HW241384   3.239   8.546  14.381
13163SOL     OW41385  14.840  13.254  14.320
13163SOL    HW141386  14.795  13.288  14.243
13163SOL    HW241387  14.879  13.172  14.291
13164SOL     OW41388   8.666  12.878   4.420
13164SOL    HW141389   8.581  12.903   4.455
13164SOL    HW241390   8.670  12.919   4.334
13165SOL     OW41391   3.058   0.715   5.595
13165SOL    HW141392   2.993   0.655   5.632
13165SOL    HW241393   3.106   0.749   5.671
13166SOL     OW41394  13.904   0.934   9.481
13166SOL    HW141395  13.956   0.998   9.434
13166SOL    HW241396  13.938   0.849   9.452
13167SOL     OW41397   2.707   3.253   4.925
13167SOL    HW141398   2.680   3.224   4.838
13167SOL    HW241399   2.791   3.296   4.912
13168SOL     OW41400  12.696   6.477   1.351
13168SOL    HW141401  12.762   6.413   1.323
13168SOL    HW241402  12.639   6.489   1.275
13169SOL     OW41403   0.654   3.096  14.837
13169SOL    HW141404   0.715   3.124  14.769
13169SOL    HW241405   0.710   3.074   0.032
13170SOL     OW41406   7.945   2.152   1.477
13170SOL    HW141407   7.898   2.133   1.559
13170SOL    HW241408   7.919   2.241   1.455
13171SOL     OW41409   5.629   4.696   1.076
13171SOL    HW141410   5.684   4.712   0.999
13171SOL    HW241411   5.661   4.759   1.141
13172SOL     OW41412   3.441  12.898  14.188
13172SOL    HW141413   3.449  12.943  14.104
13172SOL    HW241414   3.515  12.929  14.240
13173SOL     OW41415   6.129   2.307   4.289
13173SOL    HW141416   6.112   2.401   4.293
13173SOL    HW241417   6.214   2.296   4.330
13174SOL     OW41418  11.137   1.675   3.681
13174SOL    HW141419  11.208   1.728   3.644
13174SOL    HW241420  11.174   1.639   3.762
13175SOL     OW41421   9.006   4.823   9.733
13175SOL    HW141422   9.072   4.762   9.767
13175SOL    HW241423   9.005   4.806   9.639
13176SOL     OW41424   9.386   9.222   1.806
13176SOL    HW141425   9.340   9.139   1.821
13176SOL    HW241426   9.412   9.250   1.894
13177SOL     OW41427   1.811  10.140   6.476
13177SOL    HW141428   1.904  10.124   6.458
13177SOL    HW241429   1.798  10.233   6.457
13178SOL     OW41430  10.078  10.781   5.038
13178SOL    HW141431  10.152  10.745   4.989
13178SOL    HW241432  10.117  10.850   5.093
13179SOL     OW41433   7.580   4.021  13.232
13179SOL    HW141434   7.641   4.059  13.295
13179SOL    HW241435   7.493   4.038  13.269
13180SOL     OW41436  10.532  13.618   1.148
13180SOL    HW141437  10.449  13.586   1.183
13180SOL    HW241438  10.511  13.702   1.108
13181SOL     OW41439  13.110   2.320   6.849
13181SOL    HW141440  13.181   2.258   6.868
13181SOL    HW241441  13.080   2.348   6.936
13182SOL     OW41442  12.675   0.847   9.804
13182SOL    HW141443  12.598   0.801   9.837
13182SOL    HW241444  12.725   0.868   9.883
13183SOL     OW41445   8.092   6.543   7.333
13183SOL    HW141446   8.070   6.622   7.381
13183SOL    HW241447   8.123   6.482   7.400
13184SOL     OW41448  14.361   3.354   9.866
13184SOL    HW141449  14.367   3.282   9.930
13184SOL    HW241450  14.393   3.316   9.785
13185SOL     OW41451  10.279   6.289  11.156
13185SOL    HW141452  10.258   6.366  11.104
13185SOL    HW241453  10.370   6.269  11.135
13186SOL     OW41454  14.731  13.684   3.718
13186SOL    HW141455  14.727  13.690   3.623
13186SOL    HW241456  14.748  13.591   3.735
13187SOL     OW41457   7.060   7.343   1.968
13187SOL    HW141458   7.113   7.389   2.033
13187SOL    HW241459   7.103   7.258   1.959
13188SOL     OW41460   7.557   2.821   1.883
13188SOL    HW141461   7.578   2.880   1.955
13188SOL    HW241462   7.464   2.802   1.894
13189SOL     OW41463   6.389   8.598   2.568
13189SOL    HW141464   6.351   8.512   2.587
13189SOL    HW241465   6.324   8.660   2.601
13190SOL     OW41466   3.877   2.649   7.590
13190SOL    HW141467   3.889   2.743   7.600
13190SOL    HW241468   3.808   2.626   7.652
13191SOL     OW41469  10.147   2.136   4.620
13191SOL    HW141470  10.195   2.142   4.703
13191SOL    HW241471  10.057   2.162   4.643
13192SOL     OW41472  13.253  10.824   9.209
13192SOL    HW141473  13.207  10.781   9.137
13192SOL    HW241474  13.211  10.910   9.216
13193SOL     OW41475  12.840   5.329   2.980
13193SOL    HW141476  12.843   5.397   3.048
13193SOL    HW241477  12.928   5.291   2.981
13194SOL     OW41478   7.874   3.672  12.494
13194SOL    HW141479   7.909   3.761  12.487
13194SOL    HW241480   7.827   3.658  12.411
13195SOL     OW41481   3.832   9.124   4.641
13195SOL    HW141482   3.817   9.031   4.622
13195SOL    HW241483   3.792   9.138   4.727
13196SOL     OW41484   2.282   3.434   3.524
13196SOL    HW141485   2.338   3.425   3.447
13196SOL    HW241486   2.236   3.516   3.511
13197SOL     OW41487   9.265  10.213  13.110
13197SOL    HW141488   9.204  10.242  13.179
13197SOL    HW241489   9.349  10.204  13.156
13198SOL     OW41490  10.993  13.042   5.592
13198SOL    HW141491  10.948  13.118   5.631
13198SOL    HW241492  11.062  13.021   5.655
13199SOL     OW41493  13.388  11.848   2.278
13199SOL    HW141494  13.301  11.878   2.252
13199SOL    HW241495  13.430  11.822   2.197
13200SOL     OW41496   9.143   9.517   4.194
13200SOL    HW141497   9.147   9.423   4.179
13200SOL    HW241498   9.057   9.543   4.160
13201SOL     OW41499   9.434   0.423   6.216
13201SOL    HW141500   9.396   0.488   6.156
13201SOL    HW241501   9.398   0.340   6.187
13202SOL     OW41502  10.685   2.690  10.917
13202SOL    HW141503  10.740   2.714  10.843
13202SOL    HW241504  10.688   2.766  10.975
13203SOL     OW41505   7.885   7.170   8.027
13203SOL    HW141506   7.969   7.172   8.074
13203SOL    HW241507   7.840   7.093   8.062
13204SOL     OW41508   7.504   7.671   2.379
13204SOL    HW141509   7.412   7.679   2.404
13204SOL    HW241510   7.511   7.721   2.297
13205SOL     OW41511   7.312   1.299  13.276
13205SOL    HW141512   7.241   1.235  13.279
13205SOL    HW241513   7.342   1.296  13.185
13206SOL     OW41514   3.285   4.793   2.956
13206SOL    HW141515   3.322   4.712   2.920
13206SOL    HW241516   3.335   4.809   3.036
13207SOL     OW41517  10.388   9.689   9.017
13207SOL    HW141518  10.460   9.647   9.064
13207SOL    HW241519  10.329   9.618   8.994
13208SOL     OW41520  12.748  14.451   3.371
13208SOL    HW141521  12.684  14.380   3.359
13208SOL    HW241522  12.791  14.431   3.454
13209SOL     OW41523   7.232  10.617  14.560
13209SOL    HW141524   7.212  10.650  14.648
13209SOL    HW241525   7.293  10.681  14.524
13210SOL     OW41526  12.913   1.125   8.068
13210SOL    HW141527  12.860   1.120   7.988
13210SOL    HW241528  12.977   1.055   8.058
13211SOL     OW41529   5.498   4.274   7.591
13211SOL    HW141530   5.567   4.340   7.590
13211SOL    HW241531   5.430   4.312   7.646
13212SOL     OW41532  14.223   3.512   8.836
13212SOL    HW141533  14.265   3.583   8.885
13212SOL    HW241534  14.130   3.534   8.838
13213SOL     OW41535  12.427  12.288   6.700
13213SOL    HW141536  12.348  12.293   6.646
13213SOL    HW241537  12.496  12.264   6.639
13214SOL     OW41538   6.619   3.798  11.020
13214SOL    HW141539   6.623   3.703  11.017
13214SOL    HW241540   6.642   3.821  11.110
13215SOL     OW41541   9.063  14.276   1.872
13215SOL    HW141542   9.138  14.305   1.819
13215SOL    HW241543   9.102  14.237   1.950
13216SOL     OW41544   9.537   4.347   2.439
13216SOL    HW141545   9.450   4.308   2.450
13216SOL    HW241546   9.554   4.392   2.522
13217SOL     OW41547  10.655   2.660   6.660
13217SOL    HW141548  10.678   2.628   6.748
13217SOL    HW241549  10.607   2.741   6.676
13218SOL     OW41550   0.353   8.308  13.862
13218SOL    HW141551   0.395   8.334  13.944
13218SOL    HW241552   0.418   8.329  13.795
13219SOL     OW41553   2.535   4.173   8.934
13219SOL    HW141554   2.514   4.267   8.935
13219SOL    HW241555   2.492   4.139   8.856
13220SOL     OW41556   2.349   3.783  13.171
13220SOL    HW141557   2.347   3.760  13.264
13220SOL    HW241558   2.353   3.879  13.170
13221SOL     OW41559   0.620  12.706  13.126
13221SOL    HW141560   0.547  12.703  13.188
13221SOL    HW241561   0.698  12.700  13.180
13222SOL     OW41562  14.149   9.969  11.655
13222SOL    HW141563  14.175   9.888  11.609
13222SOL    HW241564  14.220   9.985  11.717
13223SOL     OW41565   2.065  13.585   4.434
13223SOL    HW141566   2.010  13.532   4.375
13223SOL    HW241567   2.012  13.594   4.514
13224SOL     OW41568   3.341   1.740   2.399
13224SOL    HW141569   3.384   1.687   2.332
13224SOL    HW241570   3.377   1.828   2.388
13225SOL     OW41571   9.399   4.734   0.993
13225SOL    HW141572   9.374   4.817   0.952
13225SOL    HW241573   9.348   4.730   1.073
13226SOL     OW41574   3.738  12.448   4.314
13226SOL    HW141575   3.826  12.474   4.340
13226SOL    HW241576   3.693  12.530   4.294
13227SOL     OW41577   4.602   7.967   3.126
13227SOL    HW141578   4.571   8.002   3.210
13227SOL    HW241579   4.612   7.873   3.142
13228SOL     OW41580   5.467  13.940   6.451
13228SOL    HW141581   5.464  14.036   6.443
13228SOL    HW241582   5.459  13.909   6.361
13229SOL     OW41583   1.487  14.199   2.389
13229SOL    HW141584   1.443  14.272   2.347
13229SOL    HW241585   1.548  14.239   2.451
13230SOL     OW41586   0.533   6.922  12.046
13230SOL    HW141587   0.602   6.902  12.110
13230SOL    HW241588   0.566   6.887  11.963
13231SOL     OW41589   7.179  12.299  14.096
13231SOL    HW141590   7.227  12.256  14.167
13231SOL    HW241591   7.247  12.340  14.043
13232SOL     OW41592  11.751  12.202  14.571
13232SOL    HW141593  11.785  12.118  14.541
13232SOL    HW241594  11.765  12.262  14.498
13233SOL     OW41595   6.630   7.003   9.312
13233SOL    HW141596   6.583   7.043   9.385
13233SOL    HW241597   6.589   6.917   9.301
13234SOL     OW41598  11.987   7.392   4.757
13234SOL    HW141599  11.965   7.301   4.737
13234SOL    HW241600  12.080   7.389   4.782
13235SOL     OW41601  10.925   5.716   5.971
13235SOL    HW141602  11.013   5.704   5.937
13235SOL    HW241603  10.934   5.779   6.042
13236SOL     OW41604   5.906  14.117  10.282
13236SOL    HW141605   5.843  14.055  10.316
13236SOL    HW241606   5.898  14.194  10.339
13237SOL     OW41607   1.691   7.441   9.023
13237SOL    HW141608   1.699   7.460   9.116
13237SOL    HW241609   1.683   7.527   8.982
13238SOL     OW41610   4.880   8.104  14.680
13238SOL    HW141611   4.947   8.149  14.732
13238SOL    HW241612   4.861   8.024  14.730
13239SOL     OW41613   2.753  12.345   1.698
13239SOL    HW141614   2.748  12.403   1.774
13239SOL    HW241615   2.685  12.377   1.639
13240SOL     OW41616   3.368   4.704  11.084
13240SOL    HW141617   3.322   4.643  11.142
13240SOL    HW241618   3.460   4.699  11.111
13241SOL     OW41619   1.925   8.688  13.896
13241SOL    HW141620   2.019   8.698  13.909
13241SOL    HW241621   1.889   8.774  13.920
13242SOL     OW41622   2.275   2.003  11.106
13242SOL    HW141623   2.304   1.962  11.188
13242SOL    HW241624   2.355   2.041  11.069
13243SOL     OW41625   1.949   8.565   1.820
13243SOL    HW141626   1.859   8.549   1.793
13243SOL    HW241627   1.968   8.496   1.883
13244SOL     OW41628   8.196   8.942  11.976
13244SOL    HW141629   8.197   9.037  11.984
13244SOL    HW241630   8.113   8.915  12.014
13245SOL     OW41631  10.473   3.080   8.203
13245SOL    HW141632  10.433   3.054   8.286
13245SOL    HW241633  10.399   3.106   8.149
13246SOL     OW41634   4.694  13.836   6.576
13246SOL    HW141635   4.777  13.868   6.539
13246SOL    HW241636   4.626  13.885   6.530
13247SOL     OW41637   4.033   3.610  11.088
13247SOL    HW141638   4.113   3.623  11.036
13247SOL    HW241639   4.051   3.530  11.138
13248SOL     OW41640   5.516   0.320   8.781
13248SOL    HW141641   5.518   0.266   8.702
13248SOL    HW241642   5.564   0.269   8.846
13249SOL     OW41643   5.256   8.805   6.888
13249SOL    HW141644   5.204   8.831   6.812
13249SOL    HW241645   5.347   8.811   6.858
13250SOL     OW41646   4.030   7.284   1.622
13250SOL    HW141647   3.952   7.333   1.599
13250SOL    HW241648   4.003   7.192   1.619
13251SOL     OW41649   4.233   8.784   2.700
13251SOL    HW141650   4.295   8.846   2.739
13251SOL    HW241651   4.262   8.699   2.731
13252SOL     OW41652   4.817  11.002   4.574
13252SOL    HW141653   4.832  10.986   4.480
13252SOL    HW241654   4.781  11.090   4.578
13253SOL     OW41655   9.685   3.157   3.813
13253SOL    HW141656   9.628   3.082   3.799
13253SOL    HW241657   9.771   3.119   3.829
13254SOL     OW41658   6.884  12.214  10.777
13254SOL    HW141659   6.824  12.216  10.852
13254SOL    HW241660   6.829  12.228  10.701
13255SOL     OW41661   4.465   0.556   6.102
13255SOL    HW141662   4.413   0.629   6.135
13255SOL    HW241663   4.551   0.567   6.143
13256SOL     OW41664   5.328   2.530  10.023
13256SOL    HW141665   5.256   2.515  10.085
13256SOL    HW241666   5.406   2.501  10.069
13257SOL     OW41667  11.166   1.149   9.590
13257SOL    HW141668  11.258   1.155   9.567
13257SOL    HW241669  11.163   1.160   9.685
13258SOL     OW41670   6.008   5.762  10.379
13258SOL    HW141671   5.961   5.696  10.430
13258SOL    HW241672   6.025   5.833  10.442
13259SOL     OW41673   6.418  11.835   8.372
13259SOL    HW141674   6.348  11.900   8.375
13259SOL    HW241675   6.373  11.750   8.373
13260SOL     OW41676  11.808  12.440   4.986
13260SOL    HW141677  11.757  12.496   5.045
13260SOL    HW241678  11.809  12.488   4.903
13261SOL     OW41679   6.524   7.847   9.488
13261SOL    HW141680   6.454   7.867   9.425
13261SOL    HW241681   6.571   7.930   9.498
13262SOL     OW41682   5.682   3.640   2.368
13262SOL    HW141683   5.611   3.577   2.368
13262SOL    HW241684   5.672   3.688   2.451
13263SOL     OW41685   2.556   8.149   9.311
13263SOL    HW141686   2.617   8.148   9.384
13263SOL    HW241687   2.603   8.193   9.241
13264SOL     OW41688  11.260  11.226  13.369
13264SOL    HW141689  11.276  11.272  13.451
13264SOL    HW241690  11.295  11.139  13.383
13265SOL     OW41691   0.847  14.675   0.551
13265SOL    HW141692   0.914  14.692   0.485
13265SOL    HW241693   0.891  14.693   0.634
13266SOL     OW41694  11.423   2.224  13.396
13266SOL    HW141695  11.338   2.249  13.358
13266SOL    HW241696  11.487   2.276  13.347
13267SOL     OW41697   9.880   4.950   0.703
13267SOL    HW141698   9.912   4.942   0.793
13267SOL    HW241699   9.808   5.012   0.709
13268SOL     OW41700   9.233  12.640   1.250
13268SOL    HW141701   9.295  12.578   1.290
13268SOL    HW241702   9.200  12.594   1.172
13269SOL     OW41703  10.180   8.524  14.640
13269SOL    HW141704  10.122   8.599  14.650
13269SOL    HW241705  10.215   8.508  14.728
13270SOL     OW41706   9.742   6.216  13.508
13270SOL    HW141707   9.791   6.180  13.583
13270SOL    HW241708   9.671   6.266  13.547
13271SOL     OW41709  13.427   7.014   7.918
13271SOL    HW141710  13.373   7.013   7.998
13271SOL    HW241711  13.517   7.012   7.951
13272SOL     OW41712  10.850  11.322   6.449
13272SOL    HW141713  10.822  11.366   6.529
13272SOL    HW241714  10.871  11.233   6.478
13273SOL     OW41715  12.796   6.124  14.785
13273SOL    HW141716  12.769   6.205  14.828
13273SOL    HW241717  12.733   6.058  14.816
13274SOL     OW41718   9.269  14.674  10.166
13274SOL    HW141719   9.257  14.766  10.143
13274SOL    HW241720   9.264  14.672  10.261
13275SOL     OW41721  14.338   9.969  11.150
13275SOL    HW141722  14.303   9.893  11.196
13275SOL    HW241723  14.350  10.035  11.219
13276SOL     OW41724   8.122   6.340   3.109
13276SOL    HW141725   8.204   6.351   3.157
13276SOL    HW241726   8.085   6.259   3.143
13277SOL     OW41727   9.624  11.694  14.780
13277SOL    HW141728   9.687  11.727  14.716
13277SOL    HW241729   9.663  11.612  14.812
13278SOL     OW41730   1.801   4.111  11.063
13278SOL    HW141731   1.875   4.150  11.016
13278SOL    HW241732   1.841   4.044  11.119
13279SOL     OW41733  12.220  14.261   2.973
13279SOL    HW141734  12.129  14.245   2.993
13279SOL    HW241735  12.269  14.199   3.027
13280SOL     OW41736   7.615  10.627  12.335
13280SOL    HW141737   7.703  10.639  12.371
13280SOL    HW241738   7.574  10.562  12.393
13281SOL     OW41739  10.919  10.843   5.029
13281SOL    HW141740  10.870  10.848   5.111
13281SOL    HW241741  10.886  10.764   4.986
13282SOL     OW41742  12.917  14.152   5.095
13282SOL    HW141743  12.858  14.189   5.159
13282SOL    HW241744  12.888  14.188   5.011
13283SOL     OW41745   5.861  10.389   8.969
13283SOL    HW141746   5.886  10.480   8.950
13283SOL    HW241747   5.825  10.357   8.886
13284SOL     OW41748   3.570   3.672   7.963
13284SOL    HW141749   3.542   3.688   8.053
13284SOL    HW241750   3.537   3.747   7.913
13285SOL     OW41751   1.223   6.891   0.084
13285SOL    HW141752   1.196   6.847   0.165
13285SOL    HW241753   1.316   6.911   0.098
13286SOL     OW41754   2.819   4.447   6.357
13286SOL    HW141755   2.750   4.512   6.346
13286SOL    HW241756   2.799   4.405   6.441
13287SOL     OW41757  13.577   4.802  11.624
13287SOL    HW141758  13.566   4.897  11.627
13287SOL    HW241759  13.632   4.781  11.699
13288SOL     OW41760   1.937   3.231  12.465
13288SOL    HW141761   1.934   3.265  12.554
13288SOL    HW241762   1.907   3.141  12.472
13289SOL     OW41763   4.008   9.179   3.382
13289SOL    HW141764   4.054   9.235   3.320
13289SOL    HW241765   4.054   9.192   3.465
13290SOL     OW41766   5.364   3.581   7.714
13290SOL    HW141767   5.330   3.630   7.789
13290SOL    HW241768   5.341   3.490   7.731
13291SOL     OW41769  10.223   9.219  13.396
13291SOL    HW141770  10.225   9.293  13.456
13291SOL    HW241771  10.143   9.231  13.345
13292SOL     OW41772   9.456   8.909   1.239
13292SOL    HW141773   9.408   8.974   1.290
13292SOL    HW241774   9.415   8.912   1.152
13293SOL     OW41775   9.299   1.786   2.344
13293SOL    HW141776   9.379   1.766   2.295
13293SOL    HW241777   9.246   1.838   2.284
13294SOL     OW41778   7.594   2.418  11.819
13294SOL    HW141779   7.571   2.401  11.911
13294SOL    HW241780   7.625   2.508  11.818
13295SOL     OW41781   7.308   8.009   1.964
13295SOL    HW141782   7.266   7.942   1.911
13295SOL    HW241783   7.236   8.054   2.009
13296SOL     OW41784   8.780   8.543   0.393
13296SOL    HW141785   8.830   8.617   0.427
13296SOL    HW241786   8.845   8.490   0.346
13297SOL     OW41787  12.736   1.542   6.951
13297SOL    HW141788  12.756   1.592   6.872
13297SOL    HW241789  12.819   1.538   6.999
13298SOL     OW41790   9.478   7.142  12.336
13298SOL    HW141791   9.387   7.169  12.323
13298SOL    HW241792   9.473   7.048  12.352
13299SOL     OW41793   7.222  13.288   4.699
13299SOL    HW141794   7.184  13.220   4.755
13299SOL    HW241795   7.308  13.253   4.674
13300SOL     OW41796  10.895   1.942   0.513
13300SOL    HW141797  10.982   1.907   0.496
13300SOL    HW241798  10.856   1.955   0.427
13301SOL     OW41799   0.146   2.753   5.338
13301SOL    HW141800   0.099   2.836   5.326
13301SOL    HW241801   0.108   2.715   5.417
13302SOL     OW41802   5.782  12.547  12.678
13302SOL    HW141803   5.798  12.547  12.584
13302SOL    HW241804   5.803  12.636  12.707
13303SOL     OW41805   2.475   8.442  12.653
13303SOL    HW141806   2.517   8.527  12.662
13303SOL    HW241807   2.397   8.458  12.601
13304SOL     OW41808   9.342   4.044  14.394
13304SOL    HW141809   9.437   4.037  14.395
13304SOL    HW241810   9.319   4.066  14.484
13305SOL     OW41811   6.272  10.227   2.847
13305SOL    HW141812   6.236  10.152   2.896
13305SOL    HW241813   6.276  10.298   2.912
13306SOL     OW41814   0.613   0.727   6.361
13306SOL    HW141815   0.696   0.685   6.382
13306SOL    HW241816   0.547   0.663   6.384
13307SOL     OW41817  11.496   3.659   1.609
13307SOL    HW141818  11.506   3.683   1.701
13307SOL    HW241819  11.545   3.726   1.561
13308SOL     OW41820   1.741  11.023   8.025
13308SOL    HW141821   1.709  10.979   7.946
13308SOL    HW241822   1.756  11.113   7.998
13309SOL     OW41823   4.804   6.749   3.513
13309SOL    HW141824   4.889   6.732   3.552
13309SOL    HW241825   4.816   6.729   3.420
13310SOL     OW41826  14.269   7.945   3.311
13310SOL    HW141827  14.226   7.859   3.315
13310SOL    HW241828  14.230   7.988   3.235
13311SOL     OW41829  10.250   2.502  11.310
13311SOL    HW141830  10.293   2.520  11.226
13311SOL    HW241831  10.208   2.585  11.334
13312SOL     OW41832   8.597   0.437   8.803
13312SOL    HW141833   8.630   0.379   8.872
13312SOL    HW241834   8.542   0.382   8.748
13313SOL     OW41835  10.889  11.127  14.073
13313SOL    HW141836  10.890  11.178  14.154
13313SOL    HW241837  10.808  11.077  14.077
13314SOL     OW41838  11.168   6.849   4.072
13314SOL    HW141839  11.189   6.930   4.026
13314SOL    HW241840  11.075   6.857   4.094
13315SOL     OW41841  12.327   8.488   2.258
13315SOL    HW141842  12.313   8.534   2.176
13315SOL    HW241843  12.416   8.453   2.251
13316SOL     OW41844   8.524   3.789   8.315
13316SOL    HW141845   8.533   3.796   8.410
13316SOL    HW241846   8.444   3.837   8.294
13317SOL     OW41847  14.664   1.197   5.372
13317SOL    HW141848  14.616   1.269   5.413
13317SOL    HW241849  14.756   1.213   5.395
13318SOL     OW41850  13.212  13.702   9.309
13318SOL    HW141851  13.203  13.772   9.245
13318SOL    HW241852  13.230  13.748   9.391
13319SOL     OW41853   7.700   2.218   0.954
13319SOL    HW141854   7.644   2.157   0.905
13319SOL    HW241855   7.670   2.305   0.928
13320SOL     OW41856   0.378  13.435   6.468
13320SOL    HW141857   0.340  13.374   6.531
13320SOL    HW241858   0.358  13.398   6.382
13321SOL     OW41859  13.709   6.977   0.377
13321SOL    HW141860  13.731   6.900   0.429
13321SOL    HW241861  13.737   6.955   0.288
13322SOL     OW41862  10.887  13.774   9.167
13322SOL    HW141863  10.828  13.698   9.166
13322SOL    HW241864  10.910  13.785   9.259
13323SOL     OW41865  14.573   8.159   5.976
13323SOL    HW141866  14.599   8.071   6.003
13323SOL    HW241867  14.538   8.148   5.888
13324SOL     OW41868  13.349   4.298   6.965
13324SOL    HW141869  13.373   4.378   7.012
13324SOL    HW241870  13.352   4.322   6.873
13325SOL     OW41871  14.092   3.275   5.286
13325SOL    HW141872  14.091   3.363   5.324
13325SOL    HW241873  14.088   3.290   5.192
13326SOL     OW41874  12.610   2.131   2.340
13326SOL    HW141875  12.521   2.098   2.328
13326SOL    HW241876  12.599   2.218   2.378
13327SOL     OW41877   6.230   0.681  13.206
13327SOL    HW141878   6.285   0.604  13.220
13327SOL    HW241879   6.270   0.726  13.132
13328SOL     OW41880   0.077  12.101   1.329
13328SOL    HW141881   0.128  12.033   1.284
13328SOL    HW241882   0.018  12.135   1.261
13329SOL     OW41883  14.129  10.215  13.922
13329SOL    HW141884  14.077  10.294  13.914
13329SOL    HW241885  14.086  10.164  13.990
13330SOL     OW41886  11.855   8.499   9.485
13330SOL    HW141887  11.858   8.593   9.502
13330SOL    HW241888  11.834   8.492   9.391
13331SOL     OW41889   4.304   2.513   8.769
13331SOL    HW141890   4.352   2.585   8.810
13331SOL    HW241891   4.263   2.466   8.842
13332SOL     OW41892   4.747   2.730   3.376
13332SOL    HW141893   4.755   2.716   3.470
13332SOL    HW241894   4.654   2.750   3.363
13333SOL     OW41895  11.206   3.394  12.163
13333SOL    HW141896  11.151   3.408  12.240
13333SOL    HW241897  11.183   3.306  12.132
13334SOL     OW41898  13.190   9.077  11.982
13334SOL    HW141899  13.180   9.168  12.010
13334SOL    HW241900  13.239   9.035  12.053
13335SOL     OW41901  12.072   7.520  14.079
13335SOL    HW141902  11.997   7.577  14.061
13335SOL    HW241903  12.132   7.575  14.129
13336SOL     OW41904   1.356   6.043   5.368
13336SOL    HW141905   1.269   6.082   5.371
13336SOL    HW241906   1.342   5.953   5.340
13337SOL     OW41907   9.599   2.409   9.907
13337SOL    HW141908   9.547   2.477   9.867
13337SOL    HW241909   9.616   2.440   9.996
13338SOL     OW41910   2.526  13.979   5.102
13338SOL    HW141911   2.505  13.988   5.009
13338SOL    HW241912   2.463  14.035   5.146
13339SOL     OW41913  13.300  14.420   6.216
13339SOL    HW141914  13.385  14.456   6.240
13339SOL    HW241915  13.307  14.326   6.234
13340SOL     OW41916   7.315   9.919  13.734
13340SOL    HW141917   7.321   9.863  13.812
13340SOL    HW241918   7.265   9.867  13.672
13341SOL     OW41919   1.636  13.418   1.553
13341SOL    HW141920   1.686  13.338   1.569
13341SOL    HW241921   1.548  13.397   1.584
13342SOL     OW41922   9.981   9.769   2.919
13342SOL    HW141923  10.023   9.754   2.834
13342SOL    HW241924   9.952   9.682   2.948
13343SOL     OW41925  10.609   5.411   3.313
13343SOL    HW141926  10.530   5.370   3.347
13343SOL    HW241927  10.618   5.375   3.225
13344SOL     OW41928  12.984   6.874   5.484
13344SOL    HW141929  12.929   6.798   5.502
13344SOL    HW241930  12.942   6.918   5.411
13345SOL     OW41931   4.476   7.398   2.155
13345SOL    HW141932   4.454   7.473   2.100
13345SOL    HW241933   4.570   7.385   2.143
13346SOL     OW41934  11.454  10.578   4.154
13346SOL    HW141935  11.546  10.594   4.177
13346SOL    HW241936  11.438  10.637   4.080
13347SOL     OW41937   9.389   6.277  11.417
13347SOL    HW141938   9.465   6.267  11.361
13347SOL    HW241939   9.422   6.319  11.496
13348SOL     OW41940   3.995   1.865  14.023
13348SOL    HW141941   4.076   1.916  14.020
13348SOL    HW241942   3.994   1.817  13.940
13349SOL     OW41943   6.162   4.250   0.706
13349SOL    HW141944   6.241   4.203   0.678
13349SOL    HW241945   6.144   4.311   0.634
13350SOL     OW41946   2.926   1.572  11.079
13350SOL    HW141947   2.901   1.590  10.989
13350SOL    HW241948   2.971   1.651  11.108
13351SOL     OW41949   9.157   1.520   2.851
13351SOL    HW141950   9.095   1.575   2.899
13351SOL    HW241951   9.223   1.582   2.819
13352SOL     OW41952   7.694  11.925   1.716
13352SOL    HW141953   7.657  11.871   1.646
13352SOL    HW241954   7.625  11.987   1.738
13353SOL     OW41955   0.699   7.620  14.406
13353SOL    HW141956   0.764   7.554  14.386
13353SOL    HW241957   0.659   7.591  14.488
13354SOL     OW41958  10.965  11.706   9.418
13354SOL    HW141959  10.884  11.719   9.468
13354SOL    HW241960  11.030  11.760   9.465
13355SOL     OW41961   8.452  13.283  11.290
13355SOL    HW141962   8.521  13.330  11.336
13355SOL    HW241963   8.496  13.206  11.252
13356SOL     OW41964  14.161   3.922  14.714
13356SOL    HW141965  14.103   3.971  14.772
13356SOL    HW241966  14.229   3.886  14.772
13357SOL     OW41967  14.494  11.660   3.065
13357SOL    HW141968  14.483  11.738   3.011
13357SOL    HW241969  14.532  11.595   3.006
13358SOL     OW41970   9.188  14.572  11.029
13358SOL    HW141971   9.151  14.532  11.108
13358SOL    HW241972   9.223  14.499  10.979
13359SOL     OW41973   2.755   5.946  13.283
13359SOL    HW141974   2.720   5.886  13.217
13359SOL    HW241975   2.762   5.893  13.363
13360SOL     OW41976   6.566   2.925   4.682
13360SOL    HW141977   6.478   2.945   4.714
13360SOL    HW241978   6.574   2.830   4.692
13361SOL     OW41979  11.733   4.335  13.822
13361SOL    HW141980  11.693   4.253  13.792
13361SOL    HW241981  11.676   4.404  13.786
13362SOL     OW41982  11.335   3.213  12.559
13362SOL    HW141983  11.353   3.236  12.650
13362SOL    HW241984  11.402   3.148  12.537
13363SOL     OW41985   6.847   7.414   9.087
13363SOL    HW141986   6.815   7.379   9.170
13363SOL    HW241987   6.899   7.343   9.049
13364SOL     OW41988   2.977  14.091   0.905
13364SOL    HW141989   3.051  14.112   0.963
13364SOL    HW241990   2.904  14.141   0.942
13365SOL     OW41991   3.310   2.363   6.803
13365SOL    HW141992   3.370   2.420   6.754
13365SOL    HW241993   3.234   2.419   6.822
13366SOL     OW41994   3.115   5.149   9.178
13366SOL    HW141995   3.130   5.066   9.222
13366SOL    HW241996   3.196   5.164   9.128
13367SOL     OW41997  14.386  12.524  14.670
13367SOL    HW141998  14.363  12.617  14.674
13367SOL    HW241999  14.301  12.479  14.664
13368SOL     OW42000  12.353   3.272  12.936
13368SOL    HW142001  12.368   3.188  12.893
13368SOL    HW242002  12.430   3.325  12.913
13369SOL     OW42003  12.773  12.813   4.328
13369SOL    HW142004  12.843  12.821   4.263
13369SOL    HW242005  12.706  12.760   4.284
13370SOL     OW42006  13.747  14.623   7.888
13370SOL    HW142007  13.730  14.548   7.830
13370SOL    HW242008  13.665  14.636   7.935
13371SOL     OW42009   3.991  12.663   8.442
13371SOL    HW142010   3.920  12.605   8.468
13371SOL    HW242011   4.003  12.722   8.517
13372SOL     OW42012  10.943   4.475   1.392
13372SOL    HW142013  11.022   4.510   1.433
13372SOL    HW242014  10.903   4.420   1.460
13373SOL     OW42015   9.630   3.636   3.427
13373SOL    HW142016   9.636   3.589   3.344
13373SOL    HW242017   9.588   3.719   3.405
13374SOL     OW42018   3.213  10.010  12.376
13374SOL    HW142019   3.141   9.987  12.435
13374SOL    HW242020   3.264  10.076  12.424
13375SOL     OW42021  14.258   4.785  14.358
13375SOL    HW142022  14.229   4.762  14.447
13375SOL    HW242023  14.297   4.705  14.324
13376SOL     OW42024   1.852  11.789   6.029
13376SOL    HW142025   1.847  11.840   5.948
13376SOL    HW242026   1.894  11.847   6.092
13377SOL     OW42027   2.209   2.651   9.382
13377SOL    HW142028   2.127   2.612   9.352
13377SOL    HW242029   2.225   2.612   9.467
13378SOL     OW42030   5.851  12.623  13.792
13378SOL    HW142031   5.817  12.547  13.838
13378SOL    HW242032   5.821  12.698  13.844
13379SOL     OW42033   2.201   4.565  12.956
13379SOL    HW142034   2.248   4.482  12.951
13379SOL    HW242035   2.150   4.558  13.037
13380SOL     OW42036   4.631   0.884   8.036
13380SOL    HW142037   4.612   0.807   7.983
13380SOL    HW242038   4.598   0.957   7.985
13381SOL     OW42039   3.308  12.286   3.107
13381SOL    HW142040   3.228  12.314   3.063
13381SOL    HW242041   3.371  12.356   3.090
13382SOL     OW42042  14.290  13.141   7.264
13382SOL    HW142043  14.242  13.063   7.236
13382SOL    HW242044  14.297  13.132   7.359
13383SOL     OW42045  11.051   7.428   2.656
13383SOL    HW142046  11.019   7.397   2.572
13383SOL    HW242047  10.983   7.487   2.688
13384SOL     OW42048  12.074   1.314  12.246
13384SOL    HW142049  12.138   1.356  12.305
13384SOL    HW242050  12.117   1.233  12.219
13385SOL     OW42051   1.218   1.266  12.937
13385SOL    HW142052   1.283   1.271  12.866
13385SOL    HW242053   1.265   1.222  13.008
13386SOL     OW42054  11.987  13.914  14.621
13386SOL    HW142055  12.024  13.903  14.533
13386SOL    HW242056  12.055  13.961  14.670
13387SOL     OW42057  12.464  10.051  10.969
13387SOL    HW142058  12.388  10.039  10.912
13387SOL    HW242059  12.539  10.043  10.910
13388SOL     OW42060   8.800  11.316  13.238
13388SOL    HW142061   8.824  11.232  13.277
13388SOL    HW242062   8.779  11.372  13.313
13389SOL     OW42063  14.818   6.613  10.338
13389SOL    HW142064  14.879   6.650  10.275
13389SOL    HW242065  14.731   6.635  10.303
13390SOL     OW42066  13.576   2.952  11.094
13390SOL    HW142067  13.597   2.940  11.187
13390SOL    HW242068  13.556   2.863  11.062
13391SOL     OW42069   0.227  14.367   0.779
13391SOL    HW142070   0.225  14.272   0.789
13391SOL    HW242071   0.271  14.399   0.858
13392SOL     OW42072  11.229  12.331   1.438
13392SOL    HW142073  11.214  12.255   1.381
13392SOL    HW242074  11.189  12.307   1.521
13393SOL     OW42075   5.329   8.273  11.399
13393SOL    HW142076   5.342   8.179  11.411
13393SOL    HW242077   5.326   8.286  11.304
13394SOL     OW42078   2.726  14.333   0.079
13394SOL    HW142079   2.743  14.243   0.050
13394SOL    HW242080   2.703  14.324   0.172
13395SOL     OW42081  13.533  10.586   4.436
13395SOL    HW142082  13.616  10.628   4.412
13395SOL    HW242083  13.554  10.493   4.441
13396SOL     OW42084   0.313   5.857   3.096
13396SOL    HW142085   0.246   5.793   3.119
13396SOL    HW242086   0.322   5.911   3.175
13397SOL     OW42087   2.964   0.931   7.721
13397SOL    HW142088   3.013   0.864   7.769
13397SOL    HW242089   3.029   0.996   7.697
13398SOL     OW42090   6.063  13.097   7.256
13398SOL    HW142091   6.014  13.017   7.237
13398SOL    HW242092   6.130  13.069   7.319
13399SOL     OW42093   3.289  14.108   7.972
13399SOL    HW142094   3.334  14.143   7.896
13399SOL    HW242095   3.358  14.100   8.039
13400SOL     OW42096   3.694  11.582   9.343
13400SOL    HW142097   3.696  11.663   9.394
13400SOL    HW242098   3.785  11.552   9.342
13401SOL     OW42099  10.125   1.117  13.211
13401SOL    HW142100  10.086   1.181  13.270
13401SOL    HW242101  10.082   1.132  13.127
13402SOL     OW42102   0.224  10.836   1.773
13402SOL    HW142103   0.280  10.767   1.739
13402SOL    HW242104   0.284  10.898   1.814
13403SOL     OW42105  10.013  13.843   2.090
13403SOL    HW142106   9.982  13.766   2.043
13403SOL    HW242107  10.082  13.878   2.035
13404SOL     OW42108   2.235  10.404  12.815
13404SOL    HW142109   2.271  10.489  12.838
13404SOL    HW242110   2.310  10.355  12.780
13405SOL     OW42111   5.962   7.640   9.729
13405SOL    HW142112   5.910   7.720   9.731
13405SOL    HW242113   5.898   7.570   9.718
13406SOL     OW42114  10.084   7.038   6.880
13406SOL    HW142115  10.062   6.950   6.851
13406SOL    HW242116  10.004   7.071   6.922
13407SOL     OW42117  14.619   1.894   2.096
13407SOL    HW142118  14.692   1.924   2.151
13407SOL    HW242119  14.561   1.847   2.157
13408SOL     OW42120   3.583  11.676   7.033
13408SOL    HW142121   3.525  11.602   7.017
13408SOL    HW242122   3.671  11.639   7.026
13409SOL     OW42123  14.856   3.920   2.131
13409SOL    HW142124  14.823   3.830   2.135
13409SOL    HW242125  14.783   3.970   2.093
13410SOL     OW42126   3.947  11.458   8.704
13410SOL    HW142127   4.021  11.459   8.643
13410SOL    HW242128   3.875  11.499   8.655
13411SOL     OW42129   7.109   2.837  11.197
13411SOL    HW142130   7.178   2.783  11.160
13411SOL    HW242131   7.137   2.927  11.180
13412SOL     OW42132  10.701  13.250   9.587
13412SOL    HW142133  10.711  13.313   9.659
13412SOL    HW242134  10.744  13.291   9.512
13413SOL     OW42135  14.035   7.298  10.199
13413SOL    HW142136  14.114   7.299  10.144
13413SOL    HW242137  13.977   7.362  10.157
13414SOL     OW42138   7.404   2.736   3.044
13414SOL    HW142139   7.481   2.680   3.044
13414SOL    HW242140   7.341   2.690   2.988
13415SOL     OW42141   3.825   1.079   1.183
13415SOL    HW142142   3.910   1.118   1.204
13415SOL    HW242143   3.840   0.984   1.190
13416SOL     OW42144   5.558  14.037   0.452
13416SOL    HW142145   5.653  14.047   0.445
13416SOL    HW242146   5.537  14.075   0.538
13417SOL     OW42147  11.882   8.380   6.675
13417SOL    HW142148  11.830   8.300   6.677
13417SOL    HW242149  11.856   8.423   6.594
13418SOL     OW42150  11.700  12.094  13.977
13418SOL    HW142151  11.667  12.175  13.937
13418SOL    HW242152  11.681  12.026  13.912
13419SOL     OW42153   1.010  11.601   2.116
13419SOL    HW142154   0.990  11.573   2.205
13419SOL    HW242155   0.925  11.621   2.077
13420SOL     OW42156  10.972   9.804  13.262
13420SOL    HW142157  11.016   9.872  13.211
13420SOL    HW242158  10.966   9.840  13.350
13421SOL     OW42159   3.457   3.555  12.704
13421SOL    HW142160   3.438   3.578  12.613
13421SOL    HW242161   3.500   3.632  12.740
13422SOL     OW42162  14.474   4.249   5.357
13422SOL    HW142163  14.507   4.184   5.295
13422SOL    HW242164  14.393   4.211   5.392
13423SOL     OW42165  11.799  14.796   7.950
13423SOL    HW142166  11.745  14.870   7.978
13423SOL    HW242167  11.806  14.741   8.028
13424SOL     OW42168  13.382   2.201  11.411
13424SOL    HW142169  13.427   2.143  11.474
13424SOL    HW242170  13.414   2.172  11.326
13425SOL     OW42171  11.111   5.101   3.799
13425SOL    HW142172  11.169   5.030   3.825
13425SOL    HW242173  11.023   5.064   3.806
13426SOL     OW42174  10.822   4.620   5.641
13426SOL    HW142175  10.854   4.585   5.557
13426SOL    HW242176  10.878   4.578   5.707
13427SOL     OW42177   4.432   1.445   0.201
13427SOL    HW142178   4.388   1.514   0.250
13427SOL    HW242179   4.502   1.490   0.153
13428SOL     OW42180  10.799   5.908  11.622
13428SOL    HW142181  10.847   5.841  11.672
13428SOL    HW242182  10.859   5.982  11.617
13429SOL     OW42183   3.540   3.064   0.193
13429SOL    HW142184   3.506   2.984   0.234
13429SOL    HW242185   3.621   3.082   0.240
13430SOL     OW42186   3.053   2.626   7.371
13430SOL    HW142187   3.024   2.582   7.451
13430SOL    HW242188   3.135   2.582   7.348
13431SOL     OW42189  10.519   3.816  13.181
13431SOL    HW142190  10.563   3.740  13.219
13431SOL    HW242191  10.431   3.815  13.220
13432SOL     OW42192  14.164  13.841  14.458
13432SOL    HW142193  14.120  13.757  14.445
13432SOL    HW242194  14.148  13.890  14.378
13433SOL     OW42195   0.318   9.388   1.982
13433SOL    HW142196   0.274   9.327   2.041
13433SOL    HW242197   0.376   9.332   1.929
13434SOL     OW42198   4.298   6.212  10.217
13434SOL    HW142199   4.294   6.296  10.170
13434SOL    HW242200   4.228   6.218  10.282
13435SOL     OW42201   5.227  10.499  11.107
13435SOL    HW142202   5.279  10.544  11.041
13435SOL    HW242203   5.155  10.459  11.058
13436SOL     OW42204   3.141  13.874   0.976
13436SOL    HW142205   3.155  13.822   0.897
13436SOL    HW242206   3.048  13.897   0.975
13437SOL     OW42207  13.684   9.762  14.300
13437SOL    HW142208  13.761   9.807  14.335
13437SOL    HW242209  13.701   9.669  14.317
13438SOL     OW42210   0.940  11.332   1.647
13438SOL    HW142211   0.900  11.392   1.710
13438SOL    HW242212   0.943  11.383   1.566
13439SOL     OW42213   3.060   8.500   8.015
13439SOL    HW142214   3.153   8.479   8.025
13439SOL    HW242215   3.016   8.415   8.018
13440SOL     OW42216   9.917   2.196  10.032
13440SOL    HW142217   9.925   2.285   9.997
13440SOL    HW242218  10.000   2.180  10.076
13441SOL     OW42219   4.786   8.388   4.998
13441SOL    HW142220   4.831   8.308   5.025
13441SOL    HW242221   4.832   8.416   4.919
13442SOL     OW42222   0.089   0.573   6.089
13442SOL    HW142223   0.129   0.508   6.147
13442SOL    HW242224  14.877   0.575   6.114
13443SOL     OW42225   7.847  10.283   0.494
13443SOL    HW142226   7.907  10.232   0.440
13443SOL    HW242227   7.764  10.235   0.490
13444SOL     OW42228   1.697  10.240   5.295
13444SOL    HW142229   1.672  10.261   5.385
13444SOL    HW242230   1.644  10.164   5.272
13445SOL     OW42231  14.392  13.724  14.018
13445SOL    HW142232  14.301  13.720  14.048
13445SOL    HW242233  14.388  13.769  13.934
13446SOL     OW42234   6.312   2.220  12.134
13446SOL    HW142235   6.257   2.296  12.115
13446SOL    HW242236   6.279   2.152  12.075
13447SOL     OW42237   4.697   2.983   2.554
13447SOL    HW142238   4.719   3.070   2.588
13447SOL    HW242239   4.682   2.930   2.633
13448SOL     OW42240   6.616   9.949   3.145
13448SOL    HW142241   6.596   9.948   3.239
13448SOL    HW242242   6.554   9.887   3.107
13449SOL     OW42243   7.653   5.913   4.905
13449SOL    HW142244   7.677   5.957   4.986
13449SOL    HW242245   7.692   5.966   4.835
13450SOL     OW42246   6.590   3.190   2.409
13450SOL    HW142247   6.614   3.220   2.322
13450SOL    HW242248   6.576   3.096   2.399
13451SOL     OW42249   6.731   7.655   5.334
13451SOL    HW142250   6.659   7.676   5.274
13451SOL    HW242251   6.696   7.585   5.389
13452SOL     OW42252   3.184   2.507  14.175
13452SOL    HW142253   3.121   2.577  14.194
13452SOL    HW242254   3.238   2.543  14.105
13453SOL     OW42255  14.308   2.316   6.480
13453SOL    HW142256  14.354   2.390   6.519
13453SOL    HW242257  14.224   2.313   6.525
13454SOL     OW42258   9.292  11.192  10.237
13454SOL    HW142259   9.360  11.250  10.203
13454SOL    HW242260   9.210  11.235  10.214
13455SOL     OW42261   2.142   6.476   8.411
13455SOL    HW142262   2.132   6.564   8.373
13455SOL    HW242263   2.174   6.492   8.500
13456SOL     OW42264   5.379   1.548  11.993
13456SOL    HW142265   5.392   1.615  12.061
13456SOL    HW242266   5.315   1.586  11.933
13457SOL     OW42267   2.634   9.946   5.721
13457SOL    HW142268   2.659  10.028   5.763
13457SOL    HW242269   2.699   9.883   5.752
13458SOL     OW42270   8.246   5.753   3.242
13458SOL    HW142271   8.288   5.823   3.292
13458SOL    HW242272   8.160   5.743   3.283
13459SOL     OW42273  10.522  10.684   6.871
13459SOL    HW142274  10.612  10.654   6.869
13459SOL    HW242275  10.528  10.779   6.884
13460SOL     OW42276   9.938  11.615   6.425
13460SOL    HW142277   9.977  11.647   6.343
13460SOL    HW242278   9.922  11.694   6.476
13461SOL     OW42279   3.588   0.952   0.206
13461SOL    HW142280   3.594   0.893   0.281
13461SOL    HW242281   3.643   0.911   0.139
13462SOL     OW42282   7.617   4.079   9.809
13462SOL    HW142283   7.625   4.032   9.892
13462SOL    HW242284   7.703   4.120   9.796
13463SOL     OW42285   2.567  12.912  11.114
13463SOL    HW142286   2.491  12.855  11.126
13463SOL    HW242287   2.530  12.992  11.076
13464SOL     OW42288   4.491  11.280   7.503
13464SOL    HW142289   4.439  11.214   7.548
13464SOL    HW242290   4.582  11.253   7.515
13465SOL     OW42291  14.327   5.955   5.562
13465SOL    HW142292  14.387   6.024   5.591
13465SOL    HW242293  14.274   5.996   5.494
13466SOL     OW42294  13.116   5.819   2.408
13466SOL    HW142295  13.159   5.767   2.476
13466SOL    HW242296  13.028   5.834   2.442
13467SOL     OW42297   7.872   3.788   2.263
13467SOL    HW142298   7.806   3.767   2.197
13467SOL    HW242299   7.823   3.802   2.343
13468SOL     OW42300   2.701   4.565   9.076
13468SOL    HW142301   2.713   4.480   9.120
13468SOL    HW242302   2.662   4.621   9.143
13469SOL     OW42303   8.741   0.107  13.441
13469SOL    HW142304   8.755   0.141  13.529
13469SOL    HW242305   8.824   0.064  13.419
13470SOL     OW42306   5.643   2.083   8.857
13470SOL    HW142307   5.683   2.149   8.914
13470SOL    HW242308   5.685   2.096   8.772
13471SOL     OW42309   7.511   3.927  12.729
13471SOL    HW142310   7.492   3.846  12.682
13471SOL    HW242311   7.519   3.901  12.821
13472SOL     OW42312   9.108   4.251   7.592
13472SOL    HW142313   9.069   4.175   7.634
13472SOL    HW242314   9.126   4.224   7.503
13473SOL     OW42315   5.659   2.739  12.090
13473SOL    HW142316   5.657   2.834  12.095
13473SOL    HW242317   5.595   2.717  12.022
13474SOL     OW42318  12.275   8.955  12.374
13474SOL    HW142319  12.216   8.891  12.334
13474SOL    HW242320  12.288   8.924  12.463
13475SOL     OW42321  13.550   4.317   4.924
13475SOL    HW142322  13.473   4.311   4.867
13475SOL    HW242323  13.534   4.396   4.977
13476SOL     OW42324   8.433   2.454   4.589
13476SOL    HW142325   8.447   2.541   4.626
13476SOL    HW242326   8.478   2.456   4.504
13477SOL     OW42327   2.256   9.335  13.981
13477SOL    HW142328   2.189   9.364  14.043
13477SOL    HW242329   2.331   9.392  13.998
13478SOL     OW42330   8.361  14.872   0.109
13478SOL    HW142331   8.402  14.788   0.087
13478SOL    HW242332   8.283  14.875   0.053
13479SOL     OW42333  12.811   0.600  14.451
13479SOL    HW142334  12.872   0.537  14.490
13479SOL    HW242335  12.729   0.586  14.497
13480SOL     OW42336   9.633   5.854   6.171
13480SOL    HW142337   9.589   5.847   6.086
13480SOL    HW242338   9.576   5.911   6.223
13481SOL     OW42339   4.833  14.201   1.049
13481SOL    HW142340   4.865  14.266   0.987
13481SOL    HW242341   4.780  14.142   0.995
13482SOL     OW42342   9.450   7.483   6.193
13482SOL    HW142343   9.359   7.509   6.178
13482SOL    HW242344   9.480   7.447   6.109
13483SOL     OW42345   8.500   0.916  10.192
13483SOL    HW142346   8.539   0.874  10.115
13483SOL    HW242347   8.562   0.898  10.263
13484SOL     OW42348  12.398   1.577   7.419
13484SOL    HW142349  12.363   1.524   7.348
13484SOL    HW242350  12.372   1.666   7.398
13485SOL     OW42351   0.163  13.404   3.301
13485SOL    HW142352   0.116  13.442   3.376
13485SOL    HW242353   0.119  13.439   3.224
13486SOL     OW42354  13.079  11.807  12.418
13486SOL    HW142355  13.162  11.814  12.466
13486SOL    HW242356  13.102  11.827  12.328
13487SOL     OW42357  14.833   8.974   5.500
13487SOL    HW142358   0.034   9.022   5.512
13487SOL    HW242359  14.768   9.024   5.550
13488SOL     OW42360   9.115   0.738  10.841
13488SOL    HW142361   9.060   0.728  10.763
13488SOL    HW242362   9.057   0.775  10.907
13489SOL     OW42363   6.590   6.293   1.170
13489SOL    HW142364   6.543   6.271   1.250
13489SOL    HW242365   6.661   6.229   1.166
13490SOL     OW42366   6.503   5.129  11.495
13490SOL    HW142367   6.490   5.126  11.400
13490SOL    HW242368   6.507   5.223  11.515
13491SOL     OW42369   9.803   2.385   2.390
13491SOL    HW142370   9.757   2.459   2.429
13491SOL    HW242371   9.761   2.372   2.305
13492SOL     OW42372  10.521   7.971  10.723
13492SOL    HW142373  10.555   7.985  10.635
13492SOL    HW242374  10.560   8.040  10.776
13493SOL     OW42375  11.742   4.052  12.264
13493SOL    HW142376  11.675   4.005  12.215
13493SOL    HW242377  11.777   3.988  12.326
13494SOL     OW42378   5.390   0.534   2.133
13494SOL    HW142379   5.446   0.470   2.176
13494SOL    HW242380   5.338   0.572   2.204
13495SOL     OW42381  13.324   4.583  12.205
13495SOL    HW142382  13.373   4.664  12.220
13495SOL    HW242383  13.366   4.518  12.263
13496SOL     OW42384   3.254   2.891   1.370
13496SOL    HW142385   3.297   2.971   1.400
13496SOL    HW242386   3.167   2.893   1.410
13497SOL     OW42387   8.387   2.805   1.139
13497SOL    HW142388   8.461   2.811   1.200
13497SOL    HW242389   8.388   2.888   1.091
13498SOL     OW42390  11.655   2.357  12.109
13498SOL    HW142391  11.599   2.299  12.162
13498SOL    HW242392  11.737   2.309  12.100
13499SOL     OW42393   7.015  13.524   4.068
13499SOL    HW142394   7.041  13.551   4.156
13499SOL    HW242395   7.014  13.428   4.071
13500SOL     OW42396   7.278  11.852  12.605
13500SOL    HW142397   7.344  11.792  12.571
13500SOL    HW242398   7.271  11.921  12.539
13501SOL     OW42399   1.449   5.785  10.979
13501SOL    HW142400   1.358   5.813  10.968
13501SOL    HW242401   1.500   5.863  10.960
13502SOL     OW42402  12.761   1.127   5.312
13502SOL    HW142403  12.847   1.152   5.346
13502SOL    HW242404  12.767   1.143   5.217
13503SOL     OW42405   7.847   8.768   4.725
13503SOL    HW142406   7.858   8.827   4.799
13503SOL    HW242407   7.752   8.763   4.713
13504SOL     OW42408   8.482  13.298   2.465
13504SOL    HW142409   8.491  13.304   2.561
13504SOL    HW242410   8.409  13.238   2.451
13505SOL     OW42411   1.477  11.329  10.150
13505SOL    HW142412   1.465  11.316  10.056
13505SOL    HW242413   1.415  11.270  10.191
13506SOL     OW42414   1.158   9.987  10.337
13506SOL    HW142415   1.133  10.024  10.253
13506SOL    HW242416   1.079   9.993  10.391
13507SOL     OW42417  10.497   8.948   0.737
13507SOL    HW142418  10.578   8.897   0.738
13507SOL    HW242419  10.515   9.023   0.794
13508SOL     OW42420   3.317  11.806   0.031
13508SOL    HW142421   3.241  11.861   0.046
13508SOL    HW242422   3.319  11.792  14.817
13509SOL     OW42423   4.784  10.653   5.330
13509SOL    HW142424   4.776  10.579   5.270
13509SOL    HW242425   4.816  10.615   5.412
13510SOL     OW42426  14.302   4.331   8.270
13510SOL    HW142427  14.313   4.243   8.306
13510SOL    HW242428  14.379   4.379   8.301
13511SOL     OW42429   9.501   3.745   4.121
13511SOL    HW142430   9.508   3.794   4.039
13511SOL    HW242431   9.501   3.812   4.189
13512SOL     OW42432  11.254   6.272   6.294
13512SOL    HW142433  11.179   6.290   6.238
13512SOL    HW242434  11.322   6.241   6.234
13513SOL     OW42435   4.647  12.065   9.828
13513SOL    HW142436   4.736  12.049   9.857
13513SOL    HW242437   4.620  12.144   9.876
13514SOL     OW42438   2.506   9.713   6.436
13514SOL    HW142439   2.440   9.680   6.497
13514SOL    HW242440   2.567   9.763   6.491
13515SOL     OW42441  12.262   9.300  11.388
13515SOL    HW142442  12.324   9.250  11.335
13515SOL    HW242443  12.185   9.243  11.394
13516SOL     OW42444  12.082   9.809  12.250
13516SOL    HW142445  12.099   9.796  12.157
13516SOL    HW242446  12.009   9.750  12.270
13517SOL     OW42447   7.758  14.631   0.505
13517SOL    HW142448   7.740  14.550   0.552
13517SOL    HW242449   7.819  14.606   0.436
13518SOL     OW42450   2.230  11.028   3.324
13518SOL    HW142451   2.223  11.007   3.417
13518SOL    HW242452   2.225  10.943   3.280
13519SOL     OW42453  11.864   3.097   7.073
13519SOL    HW142454  11.793   3.157   7.095
13519SOL    HW242455  11.899   3.069   7.158
13520SOL     OW42456  10.145   8.913  13.703
13520SOL    HW142457  10.129   8.823  13.730
13520SOL    HW242458  10.235   8.931  13.730
13521SOL     OW42459  10.290   2.662  11.721
13521SOL    HW142460  10.354   2.592  11.711
13521SOL    HW242461  10.210   2.618  11.748
13522SOL     OW42462   0.169  11.162   3.906
13522SOL    HW142463   0.197  11.246   3.870
13522SOL    HW242464   0.086  11.144   3.862
13523SOL     OW42465   5.588  10.865  10.570
13523SOL    HW142466   5.509  10.811  10.573
13523SOL    HW242467   5.658  10.805  10.547
13524SOL     OW42468   0.288   0.410   5.885
13524SOL    HW142469   0.326   0.481   5.937
13524SOL    HW242470   0.194   0.425   5.887
13525SOL     OW42471   5.029  10.305  13.888
13525SOL    HW142472   5.060  10.257  13.811
13525SOL    HW242473   5.083  10.274  13.960
13526SOL     OW42474   6.514   5.580   5.859
13526SOL    HW142475   6.569   5.503   5.872
13526SOL    HW242476   6.487   5.606   5.947
13527SOL     OW42477   3.442   3.997  10.250
13527SOL    HW142478   3.467   4.013  10.159
13527SOL    HW242479   3.524   3.971  10.293
13528SOL     OW42480   8.453   3.786   4.935
13528SOL    HW142481   8.401   3.854   4.976
13528SOL    HW242482   8.544   3.814   4.948
13529SOL     OW42483  10.257   9.997   9.506
13529SOL    HW142484  10.167  10.030   9.499
13529SOL    HW242485  10.265   9.933   9.435
13530SOL     OW42486   3.696   2.392  10.297
13530SOL    HW142487   3.676   2.302  10.321
13530SOL    HW242488   3.686   2.395  10.202
13531SOL     OW42489  10.179  13.727   3.772
13531SOL    HW142490  10.239  13.706   3.843
13531SOL    HW242491  10.208  13.674   3.698
13532SOL     OW42492  12.494   5.918   1.649
13532SOL    HW142493  12.571   5.932   1.595
13532SOL    HW242494  12.422   5.959   1.601
13533SOL     OW42495   0.180  12.822   9.401
13533SOL    HW142496   0.099  12.837   9.450
13533SOL    HW242497   0.225  12.907   9.402
13534SOL     OW42498   9.883   3.333   4.558
13534SOL    HW142499   9.921   3.252   4.594
13534SOL    HW242500   9.919   3.339   4.469
13535SOL     OW42501   4.598  11.113   7.785
13535SOL    HW142502   4.585  11.113   7.690
13535SOL    HW242503   4.565  11.198   7.814
13536SOL     OW42504   1.508   1.016  13.433
13536SOL    HW142505   1.597   1.026  13.467
13536SOL    HW242506   1.465   1.099  13.455
13537SOL     OW42507   8.617   4.754   1.822
13537SOL    HW142508   8.709   4.781   1.823
13537SOL    HW242509   8.603   4.717   1.735
13538SOL     OW42510  12.159   1.310   3.871
13538SOL    HW142511  12.067   1.321   3.893
13538SOL    HW242512  12.161   1.233   3.813
13539SOL     OW42513  12.275  10.365   3.194
13539SOL    HW142514  12.264  10.357   3.099
13539SOL    HW242515  12.219  10.296   3.230
13540SOL     OW42516   1.841   7.504   4.080
13540SOL    HW142517   1.895   7.578   4.107
13540SOL    HW242518   1.874   7.430   4.130
13541SOL     OW42519   2.352   7.368   8.465
13541SOL    HW142520   2.337   7.321   8.383
13541SOL    HW242521   2.352   7.460   8.441
13542SOL     OW42522   9.487   3.395   6.802
13542SOL    HW142523   9.560   3.448   6.773
13542SOL    HW242524   9.424   3.397   6.730
13543SOL     OW42525   8.097   4.598   8.078
13543SOL    HW142526   8.034   4.645   8.133
13543SOL    HW242527   8.183   4.626   8.111
13544SOL     OW42528   5.554   7.899  10.559
13544SOL    HW142529   5.517   7.811  10.553
13544SOL    HW242530   5.632   7.896  10.504
13545SOL     OW42531   7.086   0.423   2.294
13545SOL    HW142532   7.051   0.499   2.247
13545SOL    HW242533   7.124   0.460   2.374
13546SOL     OW42534   5.451  13.251  12.685
13546SOL    HW142535   5.474  13.275  12.775
13546SOL    HW242536   5.536  13.241  12.641
13547SOL     OW42537  13.946   7.124   4.270
13547SOL    HW142538  14.021   7.090   4.221
13547SOL    HW242539  13.948   7.077   4.353
13548SOL     OW42540   5.370   9.305   2.360
13548SOL    HW142541   5.358   9.343   2.273
13548SOL    HW242542   5.283   9.310   2.400
13549SOL     OW42543   0.384  13.855   6.814
13549SOL    HW142544   0.409  13.842   6.722
13549SOL    HW242545   0.404  13.771   6.856
13550SOL     OW42546   6.521   0.895   6.567
13550SOL    HW142547   6.525   0.977   6.520
13550SOL    HW242548   6.612   0.874   6.588
13551SOL     OW42549   5.035   5.620   9.745
13551SOL    HW142550   4.956   5.638   9.796
13551SOL    HW242551   5.011   5.548   9.687
13552SOL     OW42552  14.742  10.559   6.466
13552SOL    HW142553  14.834  10.540   6.446
13552SOL    HW242554  14.744  10.641   6.515
13553SOL     OW42555  13.660  10.869   3.781
13553SOL    HW142556  13.580  10.818   3.791
13553SOL    HW242557  13.648  10.914   3.697
13554SOL     OW42558   7.893   6.556   1.234
13554SOL    HW142559   7.866   6.574   1.144
13554SOL    HW242560   7.866   6.465   1.248
13555SOL     OW42561   3.083  11.453   9.329
13555SOL    HW142562   3.155  11.418   9.277
13555SOL    HW242563   3.054  11.379   9.382
13556SOL     OW42564   3.489   4.598   2.928
13556SOL    HW142565   3.584   4.604   2.944
13556SOL    HW242566   3.470   4.504   2.934
13557SOL     OW42567   1.103   2.633   5.750
13557SOL    HW142568   1.178   2.616   5.692
13557SOL    HW242569   1.071   2.719   5.723
13558SOL     OW42570   8.597   4.758   5.697
13558SOL    HW142571   8.557   4.672   5.695
13558SOL    HW242572   8.689   4.741   5.717
13559SOL     OW42573  11.350   1.186   3.281
13559SOL    HW142574  11.329   1.277   3.261
13559SOL    HW242575  11.391   1.153   3.202
13560SOL     OW42576  10.150   4.364   8.508
13560SOL    HW142577  10.232   4.333   8.544
13560SOL    HW242578  10.098   4.285   8.491
13561SOL     OW42579  13.445  11.547  12.955
13561SOL    HW142580  13.379  11.561  13.022
13561SOL    HW242581  13.521  11.597  12.985
13562SOL     OW42582   3.197   7.595   8.645
13562SOL    HW142583   3.192   7.674   8.591
13562SOL    HW242584   3.107   7.576   8.669
13563SOL     OW42585  10.769   8.794   6.985
13563SOL    HW142586  10.797   8.879   7.019
13563SOL    HW242587  10.850   8.745   6.971
13564SOL     OW42588   8.467   4.724   4.852
13564SOL    HW142589   8.386   4.684   4.885
13564SOL    HW242590   8.454   4.730   4.758
13565SOL     OW42591   8.418   5.916  13.485
13565SOL    HW142592   8.397   5.901  13.577
13565SOL    HW242593   8.391   6.007  13.469
13566SOL     OW42594  13.421   6.159   1.931
13566SOL    HW142595  13.382   6.199   1.853
13566SOL    HW242596  13.352   6.102   1.966
13567SOL     OW42597  10.916   3.966  13.282
13567SOL    HW142598  10.927   3.896  13.346
13567SOL    HW242599  10.917   3.921  13.197
13568SOL     OW42600   6.722   1.535   6.785
13568SOL    HW142601   6.801   1.557   6.834
13568SOL    HW242602   6.752   1.479   6.713
13569SOL     OW42603   8.197   8.255  11.682
13569SOL    HW142604   8.113   8.235  11.723
13569SOL    HW242605   8.261   8.242  11.751
13570SOL     OW42606  10.344   9.969  12.636
13570SOL    HW142607  10.292   9.969  12.556
13570SOL    HW242608  10.404   9.895  12.626
13571SOL     OW42609   7.649   4.646   6.715
13571SOL    HW142610   7.651   4.629   6.809
13571SOL    HW242611   7.714   4.715   6.702
13572SOL     OW42612   2.983   1.048  12.804
13572SOL    HW142613   3.008   1.031  12.895
13572SOL    HW242614   2.929   0.972  12.780
13573SOL     OW42615   9.350   6.367  12.345
13573SOL    HW142616   9.305   6.283  12.341
13573SOL    HW242617   9.282   6.430  12.364
13574SOL     OW42618   1.378   0.201   9.048
13574SOL    HW142619   1.306   0.173   9.104
13574SOL    HW242620   1.434   0.253   9.106
13575SOL     OW42621   7.906   5.510  10.621
13575SOL    HW142622   7.987   5.492  10.573
13575SOL    HW242623   7.931   5.573  10.689
13576SOL     OW42624   4.656   9.926   5.487
13576SOL    HW142625   4.598   9.996   5.457
13576SOL    HW242626   4.734   9.935   5.433
13577SOL     OW42627   4.109   7.834   2.328
13577SOL    HW142628   4.106   7.879   2.412
13577SOL    HW242629   4.032   7.867   2.280
13578SOL     OW42630   1.283  14.649   7.459
13578SOL    HW142631   1.367  14.658   7.504
13578SOL    HW242632   1.221  14.697   7.513
13579SOL     OW42633  14.390   5.964   2.990
13579SOL    HW142634  14.299   5.971   2.963
13579SOL    HW242635  14.417   6.055   3.007
13580SOL     OW42636   1.789   8.026   9.748
13580SOL    HW142637   1.852   8.048   9.816
13580SOL    HW242638   1.803   8.091   9.679
13581SOL     OW42639   5.675   4.590  14.089
13581SOL    HW142640   5.648   4.623  14.175
13581SOL    HW242641   5.744   4.526  14.108
13582SOL     OW42642   1.756   4.884   5.996
13582SOL    HW142643   1.726   4.859   6.083
13582SOL    HW242644   1.718   4.971   5.981
13583SOL     OW42645  10.894   0.754   2.128
13583SOL    HW142646  10.845   0.676   2.101
13583SOL    HW242647  10.862   0.773   2.216
13584SOL     OW42648   9.401   5.769   9.232
13584SOL    HW142649   9.346   5.845   9.249
13584SOL    HW242650   9.489   5.796   9.257
13585SOL     OW42651   1.450   0.610  13.129
13585SOL    HW142652   1.364   0.641  13.158
13585SOL    HW242653   1.477   0.549  13.198
13586SOL     OW42654   7.636   8.249  10.262
13586SOL    HW142655   7.701   8.265  10.194
13586SOL    HW242656   7.554   8.237  10.215
13587SOL     OW42657  10.870   4.342  14.822
13587SOL    HW142658  10.938   4.279  14.797
13587SOL    HW242659  10.916   4.407  14.876
13588SOL     OW42660  14.583   1.986   4.606
13588SOL    HW142661  14.675   2.011   4.609
13588SOL    HW242662  14.560   1.966   4.697
13589SOL     OW42663   4.501   5.947   5.044
13589SOL    HW142664   4.417   5.988   5.062
13589SOL    HW242665   4.565   6.017   5.057
13590SOL     OW42666  10.990  11.687   5.912
13590SOL    HW142667  11.068  11.638   5.939
13590SOL    HW242668  10.993  11.768   5.962
13591SOL     OW42669  12.038  14.720   6.903
13591SOL    HW142670  11.999  14.807   6.894
13591SOL    HW242671  12.131  14.734   6.886
13592SOL     OW42672  14.289   5.178  11.130
13592SOL    HW142673  14.248   5.264  11.120
13592SOL    HW242674  14.318   5.176  11.221
13593SOL     OW42675  11.167   8.890   1.233
13593SOL    HW142676  11.244   8.945   1.251
13593SOL    HW242677  11.093   8.950   1.237
13594SOL     OW42678   8.716  12.830   0.627
13594SOL    HW142679   8.699  12.914   0.669
13594SOL    HW242680   8.632  12.803   0.592
13595SOL     OW42681   0.276  11.800   5.288
13595SOL    HW142682   0.283  11.890   5.257
13595SOL    HW242683   0.340  11.751   5.237
13596SOL     OW42684   4.788  12.231  11.355
13596SOL    HW142685   4.783  12.299  11.287
13596SOL    HW242686   4.860  12.259  11.412
13597SOL     OW42687   6.376   7.696  10.331
13597SOL    HW142688   6.290   7.732  10.349
13597SOL    HW242689   6.418   7.692  10.417
13598SOL     OW42690   6.618   5.153  10.046
13598SOL    HW142691   6.706   5.121  10.069
13598SOL    HW242692   6.616   5.243  10.079
13599SOL     OW42693   7.548  14.251  12.599
13599SOL    HW142694   7.626  14.306  12.608
13599SOL    HW242695   7.495  14.294  12.532
13600SOL     OW42696   9.459  11.160   4.138
13600SOL    HW142697   9.456  11.213   4.058
13600SOL    HW242698   9.368  11.149   4.164
13601SOL     OW42699   7.075  11.294   9.409
13601SOL    HW142700   7.099  11.278   9.318
13601SOL    HW242701   7.007  11.230   9.428
13602SOL     OW42702  10.438  12.882   6.158
13602SOL    HW142703  10.505  12.949   6.173
13602SOL    HW242704  10.440  12.829   6.238
13603SOL     OW42705   2.858   5.969   1.623
13603SOL    HW142706   2.840   6.030   1.694
13603SOL    HW242707   2.857   6.023   1.544
13604SOL     OW42708   3.716   8.723   8.658
13604SOL    HW142709   3.662   8.647   8.677
13604SOL    HW242710   3.806   8.690   8.662
13605SOL     OW42711   7.007  14.652  13.442
13605SOL    HW142712   7.008  14.734  13.490
13605SOL    HW242713   6.955  14.593  13.496
13606SOL     OW42714  10.794   3.302   7.484
13606SOL    HW142715  10.738   3.235   7.445
13606SOL    HW242716  10.785   3.289   7.578
13607SOL     OW42717  13.626   9.792  13.346
13607SOL    HW142718  13.577   9.822  13.270
13607SOL    HW242719  13.616   9.861  13.411
13608SOL     OW42720   5.338   8.709   0.604
13608SOL    HW142721   5.248   8.730   0.577
13608SOL    HW242722   5.393   8.739   0.532
13609SOL     OW42723   6.973   4.941  12.668
13609SOL    HW142724   6.895   4.916  12.718
13609SOL    HW242725   7.041   4.881  12.697
13610SOL     OW42726   6.234   4.387   9.711
13610SOL    HW142727   6.209   4.343   9.793
13610SOL    HW242728   6.315   4.344   9.685
13611SOL     OW42729  14.370   3.274   2.697
13611SOL    HW142730  14.366   3.307   2.607
13611SOL    HW242731  14.386   3.351   2.751
13612SOL     OW42732   6.251   3.027  10.831
13612SOL    HW142733   6.212   2.987  10.753
13612SOL    HW242734   6.345   3.028  10.813
13613SOL     OW42735   9.357  10.768   0.233
13613SOL    HW142736   9.447  10.786   0.206
13613SOL    HW242737   9.320  10.717   0.160
13614SOL     OW42738   4.637   1.254  12.663
13614SOL    HW142739   4.600   1.167  12.678
13614SOL    HW242740   4.732   1.241  12.673
13615SOL     OW42741   2.108   3.892   0.843
13615SOL    HW142742   2.087   3.939   0.763
13615SOL    HW242743   2.095   3.800   0.821
13616SOL     OW42744  13.554   5.783   0.127
13616SOL    HW142745  13.506   5.760   0.047
13616SOL    HW242746  13.590   5.870   0.109
13617SOL     OW42747   9.707   8.877   9.034
13617SOL    HW142748   9.735   8.959   8.993
13617SOL    HW242749   9.784   8.844   9.079
13618SOL     OW42750  12.501   1.941  12.727
13618SOL    HW142751  12.475   1.860  12.684
13618SOL    HW242752  12.418   1.979  12.758
13619SOL     OW42753   0.937   2.891   7.031
13619SOL    HW142754   0.977   2.857   7.111
13619SOL    HW242755   0.858   2.937   7.061
13620SOL     OW42756   2.483   2.350   9.234
13620SOL    HW142757   2.410   2.400   9.197
13620SOL    HW242758   2.560   2.406   9.222
13621SOL     OW42759   2.131   6.292   8.201
13621SOL    HW142760   2.141   6.349   8.277
13621SOL    HW242761   2.219   6.258   8.184
13622SOL     OW42762   4.889   4.725   6.342
13622SOL    HW142763   4.915   4.633   6.343
13622SOL    HW242764   4.972   4.773   6.330
13623SOL     OW42765  10.304  11.089   4.697
13623SOL    HW142766  10.275  11.174   4.731
13623SOL    HW242767  10.251  11.076   4.618
13624SOL     OW42768   4.147   5.928   2.769
13624SOL    HW142769   4.186   5.845   2.796
13624SOL    HW242770   4.181   5.992   2.832
13625SOL     OW42771   7.339   0.345  11.506
13625SOL    HW142772   7.385   0.291  11.442
13625SOL    HW242773   7.339   0.292  11.586
13626SOL     OW42774   3.826   0.820   5.105
13626SOL    HW142775   3.867   0.906   5.091
13626SOL    HW242776   3.875   0.781   5.177
13627SOL     OW42777  12.559  10.562  12.814
13627SOL    HW142778  12.603  10.630  12.866
13627SOL    HW242779  12.539  10.493  12.877
13628SOL     OW42780   3.509   4.731   8.062
13628SOL    HW142781   3.447   4.805   8.060
13628SOL    HW242782   3.463   4.663   8.111
13629SOL     OW42783  12.964   7.744   9.575
13629SOL    HW142784  12.928   7.818   9.625
13629SOL    HW242785  12.887   7.701   9.537
13630SOL     OW42786   8.238   6.354   8.157
13630SOL    HW142787   8.287   6.435   8.142
13630SOL    HW242788   8.238   6.342   8.251
13631SOL     OW42789  12.110   3.215  14.004
13631SOL    HW142790  12.077   3.143  13.951
13631SOL    HW242791  12.053   3.289  13.983
13632SOL     OW42792   9.082   0.471  11.778
13632SOL    HW142793   9.044   0.399  11.726
13632SOL    HW242794   9.169   0.484  11.740
13633SOL     OW42795  11.401   9.792   7.257
13633SOL    HW142796  11.402   9.707   7.213
13633SOL    HW242797  11.480   9.793   7.312
13634SOL     OW42798   1.774   9.317  13.323
13634SOL    HW142799   1.718   9.334  13.398
13634SOL    HW242800   1.785   9.222  13.321
13635SOL     OW42801  13.184  12.690   6.116
13635SOL    HW142802  13.209  12.781   6.099
13635SOL    HW242803  13.264  12.648   6.147
13636SOL     OW42804   7.351  10.940   0.909
13636SOL    HW142805   7.313  10.916   0.994
13636SOL    HW242806   7.335  10.863   0.854
13637SOL     OW42807   0.277  10.801   5.651
13637SOL    HW142808   0.226  10.734   5.605
13637SOL    HW242809   0.230  10.815   5.733
13638SOL     OW42810   0.342   5.710   7.964
13638SOL    HW142811   0.326   5.653   7.889
13638SOL    HW242812   0.410   5.771   7.934
13639SOL     OW42813   8.626   0.360   5.371
13639SOL    HW142814   8.710   0.385   5.411
13639SOL    HW242815   8.587   0.298   5.433
13640SOL     OW42816   2.565   4.849   1.738
13640SOL    HW142817   2.513   4.850   1.819
13640SOL    HW242818   2.656   4.857   1.768
13641SOL     OW42819  14.190   2.292  12.964
13641SOL    HW142820  14.131   2.229  13.006
13641SOL    HW242821  14.270   2.290  13.017
13642SOL     OW42822   4.468   1.589   5.910
13642SOL    HW142823   4.403   1.560   5.846
13642SOL    HW242824   4.551   1.552   5.878
13643SOL     OW42825   5.785  11.188  11.367
13643SOL    HW142826   5.778  11.093  11.364
13643SOL    HW242827   5.762  11.211  11.457
13644SOL     OW42828   5.808   8.062  14.196
13644SOL    HW142829   5.737   8.059  14.132
13644SOL    HW242830   5.770   8.023  14.275
13645SOL     OW42831  13.463  10.474   8.697
13645SOL    HW142832  13.397  10.463   8.766
13645SOL    HW242833  13.435  10.413   8.628
13646SOL     OW42834  14.495  14.035   3.077
13646SOL    HW142835  14.535  14.082   3.004
13646SOL    HW242836  14.486  14.101   3.146
13647SOL     OW42837   6.777   0.946   7.154
13647SOL    HW142838   6.810   1.017   7.210
13647SOL    HW242839   6.824   0.957   7.071
13648SOL     OW42840  12.625   4.801  10.699
13648SOL    HW142841  12.686   4.808  10.626
13648SOL    HW242842  12.567   4.877  10.689
13649SOL     OW42843  14.191   9.524  12.670
13649SOL    HW142844  14.274   9.479  12.652
13649SOL    HW242845  14.217   9.605  12.714
13650SOL     OW42846   3.800   5.195  12.376
13650SOL    HW142847   3.721   5.174  12.326
13650SOL    HW242848   3.800   5.291  12.381
13651SOL     OW42849   6.092  10.793   2.882
13651SOL    HW142850   6.035  10.716   2.878
13651SOL    HW242851   6.147  10.778   2.959
13652SOL     OW42852   7.280  11.179  11.357
13652SOL    HW142853   7.206  11.132  11.318
13652SOL    HW242854   7.341  11.110  11.384
13653SOL     OW42855   1.866   9.307  10.103
13653SOL    HW142856   1.891   9.238  10.164
13653SOL    HW242857   1.786   9.344  10.140
13654SOL     OW42858   5.838   2.152   3.816
13654SOL    HW142859   5.868   2.141   3.907
13654SOL    HW242860   5.812   2.064   3.789
13655SOL     OW42861  14.152  13.328   4.769
13655SOL    HW142862  14.186  13.315   4.681
13655SOL    HW242863  14.140  13.422   4.777
13656SOL     OW42864   9.536   3.021   7.626
13656SOL    HW142865   9.587   3.066   7.694
13656SOL    HW242866   9.481   3.090   7.588
13657SOL     OW42867   3.267  10.184   9.435
13657SOL    HW142868   3.249  10.239   9.511
13657SOL    HW242869   3.192  10.125   9.430
13658SOL     OW42870   7.322  10.266   4.386
13658SOL    HW142871   7.236  10.286   4.422
13658SOL    HW242872   7.383  10.298   4.453
13659SOL     OW42873  10.236   5.544  11.672
13659SOL    HW142874  10.215   5.459  11.635
13659SOL    HW242875  10.309   5.528  11.732
13660SOL     OW42876  10.622   3.717   0.590
13660SOL    HW142877  10.587   3.656   0.654
13660SOL    HW242878  10.623   3.802   0.635
13661SOL     OW42879   7.872  11.595   1.031
13661SOL    HW142880   7.859  11.607   1.125
13661SOL    HW242881   7.841  11.506   1.013
13662SOL     OW42882  14.447   1.607   9.293
13662SOL    HW142883  14.450   1.532   9.352
13662SOL    HW242884  14.370   1.592   9.239
13663SOL     OW42885   4.445   8.234   0.437
13663SOL    HW142886   4.360   8.276   0.446
13663SOL    HW242887   4.427   8.152   0.390
13664SOL     OW42888   9.117  11.126   7.365
13664SOL    HW142889   9.063  11.048   7.380
13664SOL    HW242890   9.169  11.104   7.287
13665SOL     OW42891  11.293   9.056   9.716
13665SOL    HW142892  11.316   9.146   9.691
13665SOL    HW242893  11.243   9.067   9.797
13666SOL     OW42894   6.005   6.042   0.909
13666SOL    HW142895   6.034   5.955   0.940
13666SOL    HW242896   6.077   6.100   0.932
13667SOL     OW42897  13.055  10.165  11.078
13667SOL    HW142898  13.012  10.237  11.033
13667SOL    HW242899  13.111  10.206  11.144
13668SOL     OW42900  12.673   1.991   0.372
13668SOL    HW142901  12.723   1.989   0.453
13668SOL    HW242902  12.634   2.079   0.370
13669SOL     OW42903  12.207   0.587  10.589
13669SOL    HW142904  12.293   0.576  10.628
13669SOL    HW242905  12.165   0.501  10.596
13670SOL     OW42906   8.508   8.817   9.021
13670SOL    HW142907   8.556   8.829   9.103
13670SOL    HW242908   8.553   8.875   8.959
13671SOL     OW42909  10.921   4.443   7.013
13671SOL    HW142910  10.861   4.513   6.987
13671SOL    HW242911  10.871   4.362   7.003
13672SOL     OW42912   5.219   8.446   1.378
13672SOL    HW142913   5.199   8.484   1.293
13672SOL    HW242914   5.238   8.354   1.361
13673SOL     OW42915  14.276   8.306   6.036
13673SOL    HW142916  14.366   8.284   6.060
13673SOL    HW242917  14.281   8.397   6.009
13674SOL     OW42918  11.481  11.224   8.948
13674SOL    HW142919  11.491  11.289   8.878
13674SOL    HW242920  11.569  11.210   8.981
13675SOL     OW42921  11.758   2.530   9.825
13675SOL    HW142922  11.799   2.559   9.907
13675SOL    HW242923  11.668   2.508   9.850
13676SOL     OW42924   5.131  10.204   3.274
13676SOL    HW142925   5.164  10.118   3.302
13676SOL    HW242926   5.055  10.184   3.219
13677SOL     OW42927  10.364  13.551   2.067
13677SOL    HW142928  10.450  13.588   2.050
13677SOL    HW242929  10.337  13.512   1.983
13678SOL     OW42930   0.738  14.189   6.107
13678SOL    HW142931   0.694  14.170   6.024
13678SOL    HW242932   0.797  14.114   6.121
13679SOL     OW42933  13.888  11.995  14.172
13679SOL    HW142934  13.943  12.060  14.215
13679SOL    HW242935  13.812  12.045  14.142
13680SOL     OW42936   3.401   5.413  13.187
13680SOL    HW142937   3.305   5.406  13.185
13680SOL    HW242938   3.418   5.505  13.163
13681SOL     OW42939   8.756   9.084  11.023
13681SOL    HW142940   8.719   9.009  10.977
13681SOL    HW242941   8.686   9.113  11.082
13682SOL     OW42942   2.305   0.839  12.949
13682SOL    HW142943   2.277   0.753  12.980
13682SOL    HW242944   2.230   0.896  12.966
13683SOL     OW42945  11.289   1.719   4.507
13683SOL    HW142946  11.203   1.758   4.523
13683SOL    HW242947  11.271   1.625   4.498
13684SOL     OW42948   4.045   8.831   9.670
13684SOL    HW142949   3.991   8.777   9.611
13684SOL    HW242950   4.130   8.785   9.673
13685SOL     OW42951   4.420   2.066   6.973
13685SOL    HW142952   4.354   2.110   7.026
13685SOL    HW242953   4.473   2.137   6.936
13686SOL     OW42954   1.900  10.882  11.883
13686SOL    HW142955   1.948  10.891  11.801
13686SOL    HW242956   1.819  10.931  11.868
13687SOL     OW42957   3.438  14.083  13.724
13687SOL    HW142958   3.455  14.169  13.685
13687SOL    HW242959   3.492  14.083  13.804
13688SOL     OW42960   1.507   2.341   7.437
13688SOL    HW142961   1.424   2.302   7.408
13688SOL    HW242962   1.513   2.423   7.388
13689SOL     OW42963   4.273   1.846   2.169
13689SOL    HW142964   4.202   1.799   2.126
13689SOL    HW242965   4.239   1.869   2.255
13690SOL     OW42966   7.077   7.971   8.053
13690SOL    HW142967   7.164   7.933   8.065
13690SOL    HW242968   7.055   8.008   8.139
13691SOL     OW42969   1.438   5.618   9.156
13691SOL    HW142970   1.462   5.703   9.119
13691SOL    HW242971   1.382   5.640   9.231
13692SOL     OW42972   9.677   5.404  14.260
13692SOL    HW142973   9.728   5.450  14.327
13692SOL    HW242974   9.637   5.473  14.208
13693SOL     OW42975   7.722   8.884   1.929
13693SOL    HW142976   7.630   8.878   1.955
13693SOL    HW242977   7.726   8.837   1.845
13694SOL     OW42978  10.742   1.054   7.172
13694SOL    HW142979  10.682   1.000   7.121
13694SOL    HW242980  10.771   1.122   7.111
13695SOL     OW42981  12.106   8.466  12.782
13695SOL    HW142982  12.149   8.445  12.700
13695SOL    HW242983  12.098   8.561  12.782
13696SOL     OW42984  10.504  11.221  10.295
13696SOL    HW142985  10.583  11.271  10.274
13696SOL    HW242986  10.494  11.231  10.390
13697SOL     OW42987  13.129   3.983  10.279
13697SOL    HW142988  13.071   3.923  10.325
13697SOL    HW242989  13.129   4.063  10.333
13698SOL     OW42990   6.278   0.917  11.093
13698SOL    HW142991   6.356   0.921  11.148
13698SOL    HW242992   6.205   0.907  11.155
13699SOL     OW42993  13.431   5.359   2.726
13699SOL    HW142994  13.438   5.270   2.760
13699SOL    HW242995  13.398   5.349   2.636
13700SOL     OW42996   6.336   9.958   6.207
13700SOL    HW142997   6.324   9.898   6.134
13700SOL    HW242998   6.332   9.901   6.285
13701SOL     OW42999  11.833   2.144  11.833
13701SOL    HW143000  11.820   2.141  11.738
13701SOL    HW243001  11.842   2.236  11.854
13702SOL     OW43002  10.719  13.966   9.892
13702SOL    HW143003  10.648  14.013   9.848
13702SOL    HW243004  10.799  14.005   9.856
13703SOL     OW43005   4.602   6.022   1.827
13703SOL    HW143006   4.635   6.105   1.864
13703SOL    HW243007   4.547   6.049   1.754
13704SOL     OW43008   2.323   5.223   9.465
13704SOL    HW143009   2.343   5.301   9.516
13704SOL    HW243010   2.396   5.213   9.405
13705SOL     OW43011   1.684   1.437   8.153
13705SOL    HW143012   1.659   1.405   8.067
13705SOL    HW243013   1.761   1.492   8.137
13706SOL     OW43014  12.282   2.955  11.498
13706SOL    HW143015  12.281   2.863  11.524
13706SOL    HW243016  12.373   2.982  11.508
13707SOL     OW43017   6.270   5.112   2.440
13707SOL    HW143018   6.333   5.049   2.405
13707SOL    HW243019   6.240   5.073   2.522
13708SOL     OW43020  14.736   9.568  12.778
13708SOL    HW143021  14.679   9.507  12.825
13708SOL    HW243022  14.801   9.595  12.842
13709SOL     OW43023   4.180  14.348  13.481
13709SOL    HW143024   4.090  14.331  13.510
13709SOL    HW243025   4.171  14.417  13.415
13710SOL     OW43026   6.063   8.639   9.418
13710SOL    HW143027   6.150   8.676   9.434
13710SOL    HW243028   6.023   8.632   9.505
13711SOL     OW43029  11.849  13.630   9.308
13711SOL    HW143030  11.938  13.600   9.330
13711SOL    HW243031  11.815  13.564   9.248
13712SOL     OW43032   3.725   3.025   7.799
13712SOL    HW143033   3.774   2.962   7.745
13712SOL    HW243034   3.730   3.107   7.749
13713SOL     OW43035  13.523   9.204   9.561
13713SOL    HW143036  13.484   9.289   9.539
13713SOL    HW243037  13.569   9.177   9.482
13714SOL     OW43038   3.479   1.824  10.739
13714SOL    HW143039   3.419   1.759  10.775
13714SOL    HW243040   3.567   1.790  10.759
13715SOL     OW43041  10.840   1.020   9.157
13715SOL    HW143042  10.821   1.092   9.097
13715SOL    HW243043  10.905   1.055   9.218
13716SOL     OW43044   4.497  14.418   1.185
13716SOL    HW143045   4.509  14.504   1.227
13716SOL    HW243046   4.516  14.355   1.254
13717SOL     OW43047   1.628  14.080   8.293
13717SOL    HW143048   1.595  14.155   8.244
13717SOL    HW243049   1.676  14.028   8.228
13718SOL     OW43050   5.832  14.239   6.983
13718SOL    HW143051   5.782  14.172   6.937
13718SOL    HW243052   5.916  14.242   6.938
13719SOL     OW43053   5.327   9.863  12.883
13719SOL    HW143054   5.357   9.829  12.799
13719SOL    HW243055   5.320   9.957  12.870
13720SOL     OW43056  11.414  10.576   4.738
13720SOL    HW143057  11.486  10.602   4.795
13720SOL    HW243058  11.375  10.658   4.708
13721SOL     OW43059  11.001   8.685  11.751
13721SOL    HW143060  11.069   8.618  11.761
13721SOL    HW243061  11.010   8.715  11.660
13722SOL     OW43062   1.769   5.066  10.992
13722SOL    HW143063   1.813   5.012  11.057
13722SOL    HW243064   1.810   5.152  11.001
13723SOL     OW43065  13.407   2.499   7.369
13723SOL    HW143066  13.397   2.459   7.282
13723SOL    HW243067  13.319   2.497   7.406
13724SOL     OW43068   3.097   0.531  10.989
13724SOL    HW143069   3.179   0.505  10.945
13724SOL    HW243070   3.118   0.528  11.082
13725SOL     OW43071   8.210   9.720  11.947
13725SOL    HW143072   8.163   9.780  12.006
13725SOL    HW243073   8.212   9.766  11.863
13726SOL     OW43074   4.546  12.839   3.651
13726SOL    HW143075   4.580  12.927   3.669
13726SOL    HW243076   4.458  12.855   3.616
13727SOL     OW43077  11.519   0.231   8.316
13727SOL    HW143078  11.574   0.189   8.251
13727SOL    HW243079  11.562   0.314   8.335
13728SOL     OW43080   6.338  12.624   2.373
13728SOL    HW143081   6.433  12.631   2.382
13728SOL    HW243082   6.321  12.531   2.360
13729SOL     OW43083   0.453   1.308   5.505
13729SOL    HW143084   0.455   1.385   5.562
13729SOL    HW243085   0.404   1.336   5.428
13730SOL     OW43086  10.780   6.014  13.435
13730SOL    HW143087  10.814   6.102  13.451
13730SOL    HW243088  10.857   5.960  13.421
13731SOL     OW43089  10.833   6.237   5.489
13731SOL    HW143090  10.815   6.315   5.436
13731SOL    HW243091  10.753   6.222   5.538
13732SOL     OW43092   6.164  11.175  14.683
13732SOL    HW143093   6.245  11.211  14.649
13732SOL    HW243094   6.187  11.137  14.768
13733SOL     OW43095  12.510  13.813  10.716
13733SOL    HW143096  12.470  13.753  10.652
13733SOL    HW243097  12.495  13.900  10.678
13734SOL     OW43098  10.398   4.018  13.453
13734SOL    HW143099  10.373   3.931  13.424
13734SOL    HW243100  10.480   4.037  13.407
13735SOL     OW43101   1.289  11.597   1.690
13735SOL    HW143102   1.244  11.642   1.618
13735SOL    HW243103   1.341  11.665   1.733
13736SOL     OW43104  12.161   6.957   7.258
13736SOL    HW143105  12.118   6.887   7.306
13736SOL    HW243106  12.241   6.975   7.308
13737SOL     OW43107  10.736  10.669   3.339
13737SOL    HW143108  10.654  10.694   3.381
13737SOL    HW243109  10.729  10.706   3.251
13738SOL     OW43110   4.235   5.098  10.513
13738SOL    HW143111   4.250   5.131  10.425
13738SOL    HW243112   4.314   5.049  10.534
13739SOL     OW43113   7.542   7.350  14.278
13739SOL    HW143114   7.590   7.281  14.324
13739SOL    HW243115   7.477   7.303  14.226
13740SOL     OW43116   8.935   3.965  10.045
13740SOL    HW143117   8.884   4.019  10.105
13740SOL    HW243118   8.876   3.948   9.972
13741SOL     OW43119   3.103  14.100   2.661
13741SOL    HW143120   3.153  14.150   2.725
13741SOL    HW243121   3.053  14.037   2.713
13742SOL     OW43122  13.273   8.780  12.770
13742SOL    HW143123  13.193   8.754  12.815
13742SOL    HW243124  13.248   8.859  12.721
13743SOL     OW43125  10.328  11.351   4.781
13743SOL    HW143126  10.407  11.363   4.833
13743SOL    HW243127  10.295  11.440   4.765
13744SOL     OW43128   7.310  12.520  14.588
13744SOL    HW143129   7.267  12.604  14.604
13744SOL    HW243130   7.242  12.455  14.603
13745SOL     OW43131  14.204  12.202  13.221
13745SOL    HW143132  14.260  12.220  13.145
13745SOL    HW243133  14.163  12.285  13.242
13746SOL     OW43134   7.100   1.792   8.706
13746SOL    HW143135   7.162   1.770   8.636
13746SOL    HW243136   7.101   1.715   8.763
13747SOL     OW43137   4.048  13.577  12.229
13747SOL    HW143138   3.995  13.572  12.309
13747SOL    HW243139   4.135  13.604  12.261
13748SOL     OW43140   5.438  13.972   1.852
13748SOL    HW143141   5.404  13.891   1.891
13748SOL    HW243142   5.471  14.022   1.926
13749SOL     OW43143  10.647   1.394   2.691
13749SOL    HW143144  10.559   1.375   2.658
13749SOL    HW243145  10.650   1.353   2.777
13750SOL     OW43146   3.811  10.913   2.260
13750SOL    HW143147   3.887  10.928   2.315
13750SOL    HW243148   3.746  10.977   2.290
13751SOL     OW43149   0.754   7.089  11.815
13751SOL    HW143150   0.667   7.057  11.841
13751SOL    HW243151   0.815   7.030  11.858
13752SOL     OW43152   5.115  13.837   7.571
13752SOL    HW143153   5.197  13.870   7.608
13752SOL    HW243154   5.140  13.759   7.522
13753SOL     OW43155   6.217   6.668   3.016
13753SOL    HW143156   6.288   6.617   2.976
13753SOL    HW243157   6.203   6.627   3.101
13754SOL     OW43158   4.092  12.937   9.829
13754SOL    HW143159   4.014  12.885   9.811
13754SOL    HW243160   4.133  12.894   9.904
13755SOL     OW43161   0.656   6.359  12.384
13755SOL    HW143162   0.667   6.324  12.295
13755SOL    HW243163   0.565   6.387  12.388
13756SOL     OW43164   4.945  11.199  12.286
13756SOL    HW143165   5.032  11.189  12.325
13756SOL    HW243166   4.894  11.243  12.354
13757SOL     OW43167   4.199   9.331  10.169
13757SOL    HW143168   4.181   9.255  10.112
13757SOL    HW243169   4.116   9.378  10.173
13758SOL     OW43170   1.693  12.035   7.187
13758SOL    HW143171   1.691  12.090   7.265
13758SOL    HW243172   1.765  12.070   7.134
13759SOL     OW43173  11.076  10.268   3.073
13759SOL    HW143174  11.081  10.327   2.998
13759SOL    HW243175  11.067  10.181   3.035
13760SOL     OW43176  12.100   4.780   4.010
13760SOL    HW143177  12.086   4.704   4.066
13760SOL    HW243178  12.081   4.855   4.067
13761SOL     OW43179  10.836   2.244   8.072
13761SOL    HW143180  10.802   2.333   8.077
13761SOL    HW243181  10.913   2.250   8.015
13762SOL     OW43182  14.163   9.048  13.600
13762SOL    HW143183  14.194   8.958  13.586
13762SOL    HW243184  14.241   9.097  13.623
13763SOL     OW43185  10.116  13.138  12.903
13763SOL    HW143186  10.039  13.194  12.893
13763SOL    HW243187  10.169  13.183  12.968
13764SOL     OW43188   1.531   3.087   8.366
13764SOL    HW143189   1.449   3.133   8.348
13764SOL    HW243190   1.599   3.155   8.360
13765SOL     OW43191  13.785   5.298   4.127
13765SOL    HW143192  13.839   5.357   4.075
13765SOL    HW243193  13.779   5.341   4.213
13766SOL     OW43194  11.496   3.243   3.081
13766SOL    HW143195  11.509   3.337   3.094
13766SOL    HW243196  11.570   3.202   3.125
13767SOL     OW43197   7.718  11.220  14.255
13767SOL    HW143198   7.713  11.198  14.348
13767SOL    HW243199   7.689  11.140  14.210
13768SOL     OW43200   8.341  10.121  11.553
13768SOL    HW143201   8.256  10.085  11.528
13768SOL    HW243202   8.320  10.199  11.604
13769SOL     OW43203   6.709   6.260   7.211
13769SOL    HW143204   6.721   6.250   7.116
13769SOL    HW243205   6.615   6.272   7.222
13770SOL     OW43206   2.640   1.252   4.420
13770SOL    HW143207   2.659   1.322   4.357
13770SOL    HW243208   2.571   1.201   4.377
13771SOL     OW43209  10.117  10.292   6.243
13771SOL    HW143210  10.153  10.315   6.158
13771SOL    HW243211  10.150  10.359   6.303
13772SOL     OW43212   9.160   2.792  10.461
13772SOL    HW143213   9.150   2.812  10.554
13772SOL    HW243214   9.071   2.783  10.428
13773SOL     OW43215  11.586   2.568   3.271
13773SOL    HW143216  11.681   2.579   3.258
13773SOL    HW243217  11.570   2.603   3.358
13774SOL     OW43218  12.285  14.154   5.444
13774SOL    HW143219  12.269  14.071   5.488
13774SOL    HW243220  12.213  14.210   5.472
13775SOL     OW43221  14.685   4.095   6.192
13775SOL    HW143222  14.663   4.068   6.103
13775SOL    HW243223  14.767   4.050   6.211
13776SOL     OW43224   2.791   4.227   3.433
13776SOL    HW143225   2.768   4.277   3.355
13776SOL    HW243226   2.800   4.137   3.402
13777SOL     OW43227  10.338   9.664  13.358
13777SOL    HW143228  10.422   9.649  13.316
13777SOL    HW243229  10.359   9.672  13.451
13778SOL     OW43230  13.027   3.927  13.171
13778SOL    HW143231  13.073   3.846  13.195
13778SOL    HW243232  12.953   3.897  13.118
13779SOL     OW43233   8.243   2.649   1.394
13779SOL    HW143234   8.333   2.621   1.409
13779SOL    HW243235   8.219   2.609   1.310
13780SOL     OW43236  11.978  13.406  14.289
13780SOL    HW143237  11.885  13.407  14.265
13780SOL    HW243238  11.983  13.344  14.361
13781SOL     OW43239   1.191   3.846  14.161
13781SOL    HW143240   1.282   3.836  14.136
13781SOL    HW243241   1.183   3.937  14.191
13782SOL     OW43242  10.219  14.633   8.023
13782SOL    HW143243  10.143  14.673   8.065
13782SOL    HW243244  10.204  14.539   8.031
13783SOL     OW43245   0.478   3.224   6.405
13783SOL    HW143246   0.499   3.134   6.432
13783SOL    HW243247   0.445   3.266   6.484
13784SOL     OW43248  10.520   2.222   2.336
13784SOL    HW143249  10.454   2.154   2.318
13784SOL    HW243250  10.481   2.275   2.405
13785SOL     OW43251   2.709   9.622  11.528
13785SOL    HW143252   2.735   9.680  11.599
13785SOL    HW243253   2.764   9.545  11.538
13786SOL     OW43254  14.014  14.151   2.155
13786SOL    HW143255  14.097  14.178   2.193
13786SOL    HW243256  13.994  14.218   2.090
13787SOL     OW43257   1.171  14.739   3.987
13787SOL    HW143258   1.096  14.681   3.971
13787SOL    HW243259   1.185  14.783   3.903
13788SOL     OW43260   2.844   7.309   2.404
13788SOL    HW143261   2.916   7.250   2.426
13788SOL    HW243262   2.873   7.353   2.325
13789SOL     OW43263   3.403   3.121   3.762
13789SOL    HW143264   3.496   3.121   3.742
13789SOL    HW243265   3.396   3.175   3.842
13790SOL     OW43266   3.616   2.629  10.246
13790SOL    HW143267   3.649   2.559  10.302
13790SOL    HW243268   3.639   2.600  10.157
13791SOL     OW43269  10.393  14.519  14.732
13791SOL    HW143270  10.484  14.516  14.704
13791SOL    HW243271  10.347  14.563  14.660
13792SOL     OW43272   6.357   8.456  12.563
13792SOL    HW143273   6.443   8.462  12.520
13792SOL    HW243274   6.320   8.374  12.530
13793SOL     OW43275   7.223   1.688   2.270
13793SOL    HW143276   7.213   1.669   2.363
13793SOL    HW243277   7.218   1.603   2.227
13794SOL     OW43278  13.508   1.451  12.672
13794SOL    HW143279  13.541   1.521  12.616
13794SOL    HW243280  13.519   1.371  12.619
13795SOL     OW43281   9.065   1.824   3.555
13795SOL    HW143282   9.131   1.756   3.542
13795SOL    HW243283   8.998   1.804   3.490
13796SOL     OW43284   8.615   5.531  14.748
13796SOL    HW143285   8.581   5.620  14.760
13796SOL    HW243286   8.600   5.488  14.832
13797SOL     OW43287  14.054   1.312   3.206
13797SOL    HW143288  14.115   1.317   3.132
13797SOL    HW243289  14.005   1.231   3.191
13798SOL     OW43290  12.688  14.785  11.009
13798SOL    HW143291  12.606  14.830  11.032
13798SOL    HW243292  12.686  14.705  11.062
13799SOL     OW43293  14.868   2.323  13.817
13799SOL    HW143294  14.818   2.394  13.858
13799SOL    HW243295   0.037   2.284  13.890
13800SOL     OW43296   7.671  11.383   4.019
13800SOL    HW143297   7.610  11.309   4.013
13800SOL    HW243298   7.741  11.361   3.958
13801SOL     OW43299   5.376   9.811  10.165
13801SOL    HW143300   5.441   9.877  10.191
13801SOL    HW243301   5.313   9.860  10.112
13802SOL     OW43302  12.800   4.300   8.493
13802SOL    HW143303  12.841   4.362   8.554
13802SOL    HW243304  12.817   4.214   8.532
13803SOL     OW43305  10.827   7.712  12.221
13803SOL    HW143306  10.873   7.794  12.203
13803SOL    HW243307  10.806   7.677  12.134
13804SOL     OW43308   3.106   2.533  13.191
13804SOL    HW143309   3.030   2.506  13.140
13804SOL    HW243310   3.082   2.619  13.226
13805SOL     OW43311  11.315  12.715  10.303
13805SOL    HW143312  11.278  12.799  10.276
13805SOL    HW243313  11.327  12.667  10.221
13806SOL     OW43314  14.250   8.918  14.244
13806SOL    HW143315  14.164   8.894  14.278
13806SOL    HW243316  14.262   8.860  14.168
13807SOL     OW43317   2.157  11.422  14.346
13807SOL    HW143318   2.238  11.450  14.388
13807SOL    HW243319   2.088  11.447  14.407
13808SOL     OW43320   4.771   1.776   7.931
13808SOL    HW143321   4.717   1.830   7.873
13808SOL    HW243322   4.790   1.697   7.881
13809SOL     OW43323   6.041  12.045   8.626
13809SOL    HW143324   5.980  12.075   8.693
13809SOL    HW243325   6.101  12.119   8.612
13810SOL     OW43326  13.619  14.842   9.799
13810SOL    HW143327  13.537  14.795   9.814
13810SOL    HW243328  13.637   0.006   9.882
13811SOL     OW43329   8.529   9.468   4.061
13811SOL    HW143330   8.439   9.442   4.080
13811SOL    HW243331   8.569   9.481   4.146
13812SOL     OW43332   0.185   6.570  13.204
13812SOL    HW143333   0.183   6.510  13.278
13812SOL    HW243334   0.098   6.609  13.202
13813SOL     OW43335   6.725   5.936   3.550
13813SOL    HW143336   6.714   5.949   3.456
13813SOL    HW243337   6.753   5.845   3.559
13814SOL     OW43338   8.251   5.345  14.221
13814SOL    HW143339   8.255   5.438  14.241
13814SOL    HW243340   8.277   5.338  14.129
13815SOL     OW43341  13.924   9.210   5.691
13815SOL    HW143342  13.976   9.190   5.613
13815SOL    HW243343  13.837   9.175   5.671
13816SOL     OW43344  11.389  11.176   3.112
13816SOL    HW143345  11.439  11.238   3.059
13816SOL    HW243346  11.359  11.110   3.050
13817SOL     OW43347  13.491  13.874   7.219
13817SOL    HW143348  13.537  13.935   7.276
13817SOL    HW243349  13.558  13.812   7.190
13818SOL     OW43350   4.921  12.893   3.830
13818SOL    HW143351   4.907  12.906   3.923
13818SOL    HW243352   4.848  12.938   3.787
13819SOL     OW43353   7.980   5.434   5.233
13819SOL    HW143354   8.055   5.483   5.267
13819SOL    HW243355   7.940   5.395   5.311
13820SOL     OW43356   7.263   7.861   0.224
13820SOL    HW143357   7.175   7.876   0.187
13820SOL    HW243358   7.309   7.813   0.156
13821SOL     OW43359   1.099   1.121   0.958
13821SOL    HW143360   1.086   1.119   1.052
13821SOL    HW243361   1.143   1.204   0.941
13822SOL     OW43362  12.319  10.640   1.392
13822SOL    HW143363  12.355  10.727   1.413
13822SOL    HW243364  12.294  10.603   1.476
13823SOL     OW43365  10.431   2.406   2.517
13823SOL    HW143366  10.338   2.394   2.537
13823SOL    HW243367  10.467   2.448   2.594
13824SOL     OW43368   9.449  13.834   0.410
13824SOL    HW143369   9.481  13.909   0.460
13824SOL    HW243370   9.392  13.872   0.343
13825SOL     OW43371   7.060  10.895  10.627
13825SOL    HW143372   7.012  10.943  10.694
13825SOL    HW243373   7.043  10.943  10.546
13826SOL     OW43374   1.156   4.538   6.788
13826SOL    HW143375   1.225   4.528   6.854
13826SOL    HW243376   1.075   4.541   6.838
13827SOL     OW43377   2.184   0.235   2.302
13827SOL    HW143378   2.199   0.251   2.209
13827SOL    HW243379   2.089   0.222   2.309
13828SOL     OW43380   0.450   8.701  11.118
13828SOL    HW143381   0.472   8.643  11.045
13828SOL    HW243382   0.359   8.681  11.138
13829SOL     OW43383  10.773   7.075   8.159
13829SOL    HW143384  10.844   7.122   8.203
13829SOL    HW243385  10.708   7.062   8.228
13830SOL     OW43386   4.541   2.414  14.546
13830SOL    HW143387   4.553   2.492  14.493
13830SOL    HW243388   4.457   2.377  14.517
13831SOL     OW43389   3.259   9.037   7.431
13831SOL    HW143390   3.232   8.977   7.361
13831SOL    HW243391   3.244   9.124   7.394
13832SOL     OW43392   6.495   6.662   4.267
13832SOL    HW143393   6.512   6.748   4.306
13832SOL    HW243394   6.429   6.623   4.325
13833SOL     OW43395   7.107   2.146  14.731
13833SOL    HW143396   7.151   2.170  14.650
13833SOL    HW243397   7.139   2.209  14.795
13834SOL     OW43398   6.247   8.981   4.089
13834SOL    HW143399   6.236   9.072   4.117
13834SOL    HW243400   6.228   8.930   4.167
13835SOL     OW43401   5.716   5.823  13.634
13835SOL    HW143402   5.754   5.745  13.594
13835SOL    HW243403   5.711   5.801  13.728
13836SOL     OW43404  12.031   5.327   9.892
13836SOL    HW143405  12.067   5.344   9.979
13836SOL    HW243406  12.081   5.252   9.860
13837SOL     OW43407   5.230   0.701   2.663
13837SOL    HW143408   5.312   0.707   2.614
13837SOL    HW243409   5.172   0.649   2.608
13838SOL     OW43410  13.252   5.000   0.300
13838SOL    HW143411  13.337   5.041   0.315
13838SOL    HW243412  13.272   4.919   0.253
13839SOL     OW43413  14.443   6.235  14.463
13839SOL    HW143414  14.353   6.235  14.430
13839SOL    HW243415  14.491   6.289  14.402
13840SOL     OW43416   3.128   2.209  13.075
13840SOL    HW143417   3.099   2.134  13.022
13840SOL    HW243418   3.074   2.282  13.044
13841SOL     OW43419  11.363   2.223   0.902
13841SOL    HW143420  11.318   2.235   0.986
13841SOL    HW243421  11.314   2.278   0.841
13842SOL     OW43422   6.020  13.018  11.274
13842SOL    HW143423   6.091  12.982  11.327
13842SOL    HW243424   5.941  13.001  11.325
13843SOL     OW43425   4.199  14.347   9.539
13843SOL    HW143426   4.203  14.309   9.451
13843SOL    HW243427   4.210  14.272   9.597
13844SOL     OW43428   5.955   5.795  12.796
13844SOL    HW143429   6.047   5.805  12.823
13844SOL    HW243430   5.907   5.785  12.878
13845SOL     OW43431  14.740   9.824   0.168
13845SOL    HW143432  14.652   9.854   0.192
13845SOL    HW243433  14.793   9.843   0.245
13846SOL     OW43434   3.439   0.594   6.473
13846SOL    HW143435   3.529   0.593   6.441
13846SOL    HW243436   3.446   0.559   6.563
13847SOL     OW43437   1.439   9.668   5.687
13847SOL    HW143438   1.400   9.698   5.769
13847SOL    HW243439   1.382   9.597   5.658
13848SOL     OW43440   2.050   8.516  10.970
13848SOL    HW143441   1.992   8.444  10.946
13848SOL    HW243442   2.121   8.474  11.018
13849SOL     OW43443   3.060  11.812   4.033
13849SOL    HW143444   3.084  11.804   3.941
13849SOL    HW243445   3.136  11.854   4.074
13850SOL     OW43446  13.339  10.325  13.594
13850SOL    HW143447  13.376  10.298  13.678
13850SOL    HW243448  13.316  10.244  13.550
13851SOL     OW43449   6.092  13.686   3.289
13851SOL    HW143450   6.117  13.771   3.325
13851SOL    HW243451   6.155  13.670   3.218
13852SOL     OW43452   6.193   9.863   3.946
13852SOL    HW143453   6.171   9.839   4.037
13852SOL    HW243454   6.126   9.926   3.921
13853SOL     OW43455  13.052   0.165   0.222
13853SOL    HW143456  13.072   0.114   0.301
13853SOL    HW243457  12.991   0.110   0.173
13854SOL     OW43458   7.162  14.745   1.400
13854SOL    HW143459   7.141  14.710   1.314
13854SOL    HW243460   7.257  14.754   1.401
13855SOL     OW43461   5.018   3.678  13.320
13855SOL    HW143462   4.923   3.679  13.308
13855SOL    HW243463   5.047   3.764  13.288
13856SOL     OW43464   2.159   1.888   4.830
13856SOL    HW143465   2.148   1.982   4.815
13856SOL    HW243466   2.141   1.848   4.745
13857SOL     OW43467   3.193   8.042   6.620
13857SOL    HW143468   3.179   7.982   6.693
13857SOL    HW243469   3.199   8.128   6.661
13858SOL     OW43470  13.538  10.999  10.852
13858SOL    HW143471  13.527  10.957  10.937
13858SOL    HW243472  13.481  11.076  10.854
13859SOL     OW43473   4.622   7.043   0.742
13859SOL    HW143474   4.639   7.100   0.816
13859SOL    HW243475   4.587   6.963   0.780
13860SOL     OW43476   5.936   5.616   3.336
13860SOL    HW143477   6.025   5.624   3.303
13860SOL    HW243478   5.884   5.675   3.281
13861SOL     OW43479  10.594   8.215  14.070
13861SOL    HW143480  10.577   8.160  14.146
13861SOL    HW243481  10.571   8.304  14.099
13862SOL     OW43482  12.831   5.629   2.500
13862SOL    HW143483  12.835   5.664   2.589
13862SOL    HW243484  12.813   5.706   2.445
13863SOL     OW43485  13.476  10.897   9.404
13863SOL    HW143486  13.416  10.889   9.330
13863SOL    HW243487  13.535  10.969   9.380
13864SOL     OW43488   1.079  10.781   0.272
13864SOL    HW143489   1.119  10.843   0.212
13864SOL    HW243490   1.153  10.734   0.312
13865SOL     OW43491   3.583  11.093  10.212
13865SOL    HW143492   3.575  11.181  10.176
13865SOL    HW243493   3.659  11.099  10.271
13866SOL     OW43494   5.811   8.754  11.802
13866SOL    HW143495   5.771   8.701  11.733
13866SOL    HW243496   5.739   8.776  11.861
13867SOL     OW43497   6.107  14.802   0.823
13867SOL    HW143498   6.133  14.797   0.731
13867SOL    HW243499   6.109   0.015   0.844
13868SOL     OW43500  11.422  11.734   2.300
13868SOL    HW143501  11.491  11.780   2.348
13868SOL    HW243502  11.345  11.790   2.310
13869SOL     OW43503   8.126   5.324   7.287
13869SOL    HW143504   8.081   5.384   7.227
13869SOL    HW243505   8.139   5.245   7.236
13870SOL     OW43506  11.326   0.308   0.503
13870SOL    HW143507  11.316   0.220   0.467
13870SOL    HW243508  11.325   0.295   0.598
13871SOL     OW43509   8.080   9.830   7.229
13871SOL    HW143510   8.082   9.917   7.269
13871SOL    HW243511   8.031   9.842   7.148
13872SOL     OW43512   1.237   4.675   3.743
13872SOL    HW143513   1.149   4.669   3.779
13872SOL    HW243514   1.294   4.678   3.820
13873SOL     OW43515   2.086   5.352   7.868
13873SOL    HW143516   2.178   5.350   7.893
13873SOL    HW243517   2.076   5.434   7.819
13874SOL     OW43518   7.316   6.918  12.279
13874SOL    HW143519   7.392   6.975  12.268
13874SOL    HW243520   7.343   6.834  12.241
13875SOL     OW43521   4.338  11.425   1.672
13875SOL    HW143522   4.346  11.341   1.627
13875SOL    HW243523   4.318  11.487   1.603
13876SOL     OW43524   7.057   8.434   8.188
13876SOL    HW143525   6.970   8.421   8.226
13876SOL    HW243526   7.065   8.529   8.178
13877SOL     OW43527   9.057  10.014  13.698
13877SOL    HW143528   9.120  10.011  13.771
13877SOL    HW243529   8.975   9.983  13.737
13878SOL     OW43530   1.668  10.687  13.575
13878SOL    HW143531   1.574  10.693  13.590
13878SOL    HW243532   1.689  10.595  13.591
13879SOL     OW43533   8.285  10.739   5.088
13879SOL    HW143534   8.296  10.826   5.049
13879SOL    HW243535   8.283  10.756   5.183
13880SOL     OW43536   0.304   0.011   9.236
13880SOL    HW143537   0.306  14.805   9.194
13880SOL    HW243538   0.218   0.046   9.213
13881SOL     OW43539  11.416  11.991   2.923
13881SOL    HW143540  11.501  11.958   2.952
13881SOL    HW243541  11.353  11.924   2.948
13882SOL     OW43542  13.417   7.269   3.449
13882SOL    HW143543  13.471   7.198   3.416
13882SOL    HW243544  13.329   7.231   3.456
13883SOL     OW43545   2.006   6.884   4.305
13883SOL    HW143546   1.963   6.806   4.340
13883SOL    HW243547   1.953   6.957   4.337
13884SOL     OW43548   9.207  11.786   8.117
13884SOL    HW143549   9.252  11.733   8.182
13884SOL    HW243550   9.122  11.743   8.105
13885SOL     OW43551  10.621   1.697   6.272
13885SOL    HW143552  10.660   1.762   6.330
13885SOL    HW243553  10.565   1.747   6.213
13886SOL     OW43554   3.250   8.608  13.687
13886SOL    HW143555   3.268   8.648  13.772
13886SOL    HW243556   3.168   8.560  13.700
13887SOL     OW43557   9.095   3.593  14.480
13887SOL    HW143558   9.056   3.568  14.564
13887SOL    HW243559   9.023   3.633  14.431
13888SOL     OW43560  10.218   8.265   4.685
13888SOL    HW143561  10.170   8.189   4.716
13888SOL    HW243562  10.305   8.231   4.661
13889SOL     OW43563  12.179   4.630   3.765
13889SOL    HW143564  12.272   4.654   3.766
13889SOL    HW243565  12.142   4.672   3.843
13890SOL     OW43566   6.047   4.325  11.785
13890SOL    HW143567   6.114   4.394  11.780
13890SOL    HW243568   5.965   4.372  11.794
13891SOL     OW43569   9.376  14.419   4.594
13891SOL    HW143570   9.314  14.398   4.663
13891SOL    HW243571   9.460  14.429   4.639
13892SOL     OW43572   1.370   3.127   6.628
13892SOL    HW143573   1.332   3.041   6.647
13892SOL    HW243574   1.343   3.181   6.703
13893SOL     OW43575   6.807   4.084   4.348
13893SOL    HW143576   6.798   3.992   4.373
13893SOL    HW243577   6.757   4.131   4.415
13894SOL     OW43578  14.546  12.388   5.132
13894SOL    HW143579  14.490  12.454   5.092
13894SOL    HW243580  14.595  12.436   5.199
13895SOL     OW43581   7.171   5.249   9.104
13895SOL    HW143582   7.100   5.194   9.135
13895SOL    HW243583   7.201   5.207   9.023
13896SOL     OW43584   1.592   9.345  10.725
13896SOL    HW143585   1.538   9.419  10.752
13896SOL    HW243586   1.531   9.287  10.679
13897SOL     OW43587   8.778   2.104   7.525
13897SOL    HW143588   8.871   2.117   7.504
13897SOL    HW243589   8.743   2.193   7.535
13898SOL     OW43590   4.506  12.057   7.913
13898SOL    HW143591   4.465  12.140   7.888
13898SOL    HW243592   4.436  11.992   7.902
13899SOL     OW43593   7.815   2.265   6.131
13899SOL    HW143594   7.776   2.272   6.218
13899SOL    HW243595   7.761   2.322   6.075
13900SOL     OW43596  12.934  12.371  14.501
13900SOL    HW143597  12.981  12.424  14.566
13900SOL    HW243598  12.853  12.346  14.546
13901SOL     OW43599   6.930   3.245   6.460
13901SOL    HW143600   6.945   3.310   6.392
13901SOL    HW243601   6.838   3.221   6.451
13902SOL     OW43602  13.336  11.034   3.717
13902SOL    HW143603  13.324  10.967   3.785
13902SOL    HW243604  13.247  11.064   3.697
13903SOL     OW43605  10.574  11.246   4.560
13903SOL    HW143606  10.559  11.183   4.631
13903SOL    HW243607  10.524  11.324   4.586
13904SOL     OW43608   1.431   4.225   6.321
13904SOL    HW143609   1.481   4.296   6.282
13904SOL    HW243610   1.405   4.258   6.407
13905SOL     OW43611  11.598   9.343  11.883
13905SOL    HW143612  11.623   9.434  11.898
13905SOL    HW243613  11.679   9.293  11.893
13906SOL     OW43614  11.038   7.287  12.331
13906SOL    HW143615  10.973   7.220  12.312
13906SOL    HW243616  11.077   7.260  12.414
13907SOL     OW43617   2.872   7.494  12.841
13907SOL    HW143618   2.782   7.519  12.861
13907SOL    HW243619   2.924   7.532  12.911
13908SOL     OW43620   5.003  11.679   0.677
13908SOL    HW143621   4.981  11.608   0.617
13908SOL    HW243622   5.002  11.640   0.764
13909SOL     OW43623   9.293   8.376   0.508
13909SOL    HW143624   9.276   8.282   0.507
13909SOL    HW243625   9.260   8.406   0.593
13910SOL     OW43626   6.305   8.564   5.896
13910SOL    HW143627   6.358   8.606   5.964
13910SOL    HW243628   6.235   8.627   5.877
13911SOL     OW43629  14.366   5.534  10.966
13911SOL    HW143630  14.416   5.546  11.047
13911SOL    HW243631  14.287   5.487  10.993
13912SOL     OW43632   2.909  12.198   8.784
13912SOL    HW143633   2.964  12.232   8.855
13912SOL    HW243634   2.951  12.116   8.758
13913SOL     OW43635   5.813  13.594   5.683
13913SOL    HW143636   5.810  13.688   5.702
13913SOL    HW243637   5.721  13.569   5.675
13914SOL     OW43638  14.809   5.056   0.797
13914SOL    HW143639  14.823   4.961   0.801
13914SOL    HW243640  14.737   5.067   0.735
13915SOL     OW43641   3.235  10.787   2.795
13915SOL    HW143642   3.293  10.800   2.870
13915SOL    HW243643   3.293  10.761   2.724
13916SOL     OW43644  13.032  12.545   3.093
13916SOL    HW143645  13.014  12.544   3.187
13916SOL    HW243646  12.949  12.567   3.053
13917SOL     OW43647   0.583  14.789  12.655
13917SOL    HW143648   0.589  14.696  12.677
13917SOL    HW243649   0.517  14.793  12.586
13918SOL     OW43650  12.177  11.056   1.661
13918SOL    HW143651  12.151  11.089   1.575
13918SOL    HW243652  12.094  11.033   1.703
13919SOL     OW43653  12.251   1.649   2.182
13919SOL    HW143654  12.170   1.673   2.228
13919SOL    HW243655  12.252   1.704   2.104
13920SOL     OW43656   6.987   2.177  11.164
13920SOL    HW143657   6.949   2.128  11.237
13920SOL    HW243658   6.919   2.240  11.139
13921SOL     OW43659   1.071   3.244   4.780
13921SOL    HW143660   1.042   3.163   4.738
13921SOL    HW243661   1.008   3.258   4.851
13922SOL     OW43662   4.613   1.121   5.058
13922SOL    HW143663   4.668   1.064   5.005
13922SOL    HW243664   4.674   1.171   5.112
13923SOL     OW43665  13.557   3.868   8.720
13923SOL    HW143666  13.463   3.864   8.702
13923SOL    HW243667  13.596   3.899   8.639
13924SOL     OW43668   7.652   6.391  12.376
13924SOL    HW143669   7.671   6.421  12.465
13924SOL    HW243670   7.682   6.463  12.320
13925SOL     OW43671   6.637   1.263   2.090
13925SOL    HW143672   6.650   1.308   2.007
13925SOL    HW243673   6.650   1.330   2.157
13926SOL     OW43674  14.145   2.214   8.480
13926SOL    HW143675  14.114   2.278   8.544
13926SOL    HW243676  14.234   2.193   8.508
13927SOL     OW43677  10.035   2.882   8.366
13927SOL    HW143678   9.977   2.808   8.383
13927SOL    HW243679   9.982   2.959   8.387
13928SOL     OW43680   9.087   0.249   6.101
13928SOL    HW143681   9.007   0.302   6.103
13928SOL    HW243682   9.086   0.208   6.015
13929SOL     OW43683  11.878  12.012   8.467
13929SOL    HW143684  11.847  11.997   8.557
13929SOL    HW243685  11.957  12.065   8.478
13930SOL     OW43686  10.000   1.954   6.493
13930SOL    HW143687   9.907   1.931   6.499
13930SOL    HW243688  10.016   2.006   6.572
13931SOL     OW43689  14.049   3.044  10.903
13931SOL    HW143690  13.957   3.067  10.908
13931SOL    HW243691  14.092   3.100  10.968
13932SOL     OW43692   6.799  12.579  10.212
13932SOL    HW143693   6.733  12.544  10.153
13932SOL    HW243694   6.750  12.614  10.286
13933SOL     OW43695  13.754  12.768   0.742
13933SOL    HW143696  13.793  12.778   0.655
13933SOL    HW243697  13.790  12.686   0.775
13934SOL     OW43698  14.255   8.400  10.076
13934SOL    HW143699  14.343   8.437  10.074
13934SOL    HW243700  14.197   8.475  10.062
13935SOL     OW43701   5.462  10.256  11.193
13935SOL    HW143702   5.424  10.175  11.227
13935SOL    HW243703   5.395  10.323  11.207
13936SOL     OW43704   0.460   4.989   9.584
13936SOL    HW143705   0.514   4.911   9.599
13936SOL    HW243706   0.426   4.978   9.495
13937SOL     OW43707   6.722   5.724   9.899
13937SOL    HW143708   6.722   5.812   9.863
13937SOL    HW243709   6.639   5.686   9.870
13938SOL     OW43710   3.632   2.246  12.659
13938SOL    HW143711   3.689   2.177  12.693
13938SOL    HW243712   3.552   2.201  12.634
13939SOL     OW43713  12.423   1.443   7.170
13939SOL    HW143714  12.354   1.377   7.178
13939SOL    HW243715  12.440   1.449   7.076
13940SOL     OW43716  13.525  14.138   4.096
13940SOL    HW143717  13.570  14.145   4.012
13940SOL    HW243718  13.551  14.053   4.131
13941SOL     OW43719   1.281   6.190   9.208
13941SOL    HW143720   1.198   6.229   9.232
13941SOL    HW243721   1.284   6.108   9.256
13942SOL     OW43722  13.979  13.904   7.803
13942SOL    HW143723  13.980  13.840   7.874
13942SOL    HW243724  14.052  13.879   7.746
13943SOL     OW43725   8.590   0.191   3.935
13943SOL    HW143726   8.640   0.172   4.014
13943SOL    HW243727   8.514   0.241   3.966
13944SOL     OW43728  12.189   9.389   2.393
13944SOL    HW143729  12.178   9.343   2.476
13944SOL    HW243730  12.241   9.466   2.415
13945SOL     OW43731   3.983   0.023  12.893
13945SOL    HW143732   3.955   0.082  12.962
13945SOL    HW243733   3.952  14.817  12.921
13946SOL     OW43734   1.616  10.860   4.910
13946SOL    HW143735   1.609  10.842   4.816
13946SOL    HW243736   1.538  10.912   4.930
13947SOL     OW43737   8.690   4.952  11.709
13947SOL    HW143738   8.705   5.046  11.714
13947SOL    HW243739   8.777   4.913  11.723
13948SOL     OW43740  12.797  14.120   2.036
13948SOL    HW143741  12.767  14.201   2.076
13948SOL    HW243742  12.847  14.076   2.104
13949SOL     OW43743   4.728   7.811  13.863
13949SOL    HW143744   4.774   7.733  13.894
13949SOL    HW243745   4.647   7.778  13.823
13950SOL     OW43746  14.828   5.983  11.864
13950SOL    HW143747  14.744   6.020  11.837
13950SOL    HW243748   0.011   6.052  11.846
13951SOL     OW43749  14.682  10.189  13.554
13951SOL    HW143750  14.693  10.240  13.634
13951SOL    HW243751  14.768  10.151  13.538
13952SOL     OW43752   5.035   5.013   4.553
13952SOL    HW143753   5.104   5.053   4.499
13952SOL    HW243754   4.953   5.045   4.514
13953SOL     OW43755   4.374  12.192   4.613
13953SOL    HW143756   4.302  12.164   4.556
13953SOL    HW243757   4.440  12.228   4.553
13954SOL     OW43758  13.015  13.172   3.058
13954SOL    HW143759  13.079  13.243   3.053
13954SOL    HW243760  12.981  13.164   2.968
13955SOL     OW43761  12.387   2.030  11.491
13955SOL    HW143762  12.367   2.116  11.530
13955SOL    HW243763  12.476   2.011  11.521
13956SOL     OW43764   9.799   5.335  10.197
13956SOL    HW143765   9.887   5.338  10.159
13956SOL    HW243766   9.745   5.297  10.128
13957SOL     OW43767  10.486   1.493   2.283
13957SOL    HW143768  10.496   1.584   2.257
13957SOL    HW243769  10.573   1.456   2.274
13958SOL     OW43770   7.803   2.652   7.045
13958SOL    HW143771   7.783   2.685   6.958
13958SOL    HW243772   7.856   2.574   7.031
13959SOL     OW43773  13.935   3.973   5.633
13959SOL    HW143774  14.026   3.953   5.609
13959SOL    HW243775  13.887   3.968   5.550
13960SOL     OW43776   7.689  12.430  14.822
13960SOL    HW143777   7.664  12.513  14.862
13960SOL    HW243778   7.647  12.363  14.875
13961SOL     OW43779  13.505  10.154   0.655
13961SOL    HW143780  13.499  10.067   0.695
13961SOL    HW243781  13.414  10.182   0.646
13962SOL     OW43782   5.286   1.463  10.030
13962SOL    HW143783   5.215   1.526  10.028
13962SOL    HW243784   5.364   1.513  10.005
13963SOL     OW43785   4.452  10.935   4.578
13963SOL    HW143786   4.548  10.935   4.582
13963SOL    HW243787   4.427  10.847   4.607
13964SOL     OW43788  11.098   7.079   6.838
13964SOL    HW143789  11.042   7.144   6.881
13964SOL    HW243790  11.146   7.037   6.909
13965SOL     OW43791   5.965   3.660   4.537
13965SOL    HW143792   5.881   3.693   4.505
13965SOL    HW243793   5.973   3.573   4.497
13966SOL     OW43794   4.216  10.012  12.678
13966SOL    HW143795   4.264  10.052  12.605
13966SOL    HW243796   4.160  10.082  12.710
13967SOL     OW43797   3.977   7.956   8.174
13967SOL    HW143798   4.028   7.881   8.144
13967SOL    HW243799   3.992   7.958   8.269
13968SOL     OW43800   1.714   4.985   8.701
13968SOL    HW143801   1.680   4.996   8.790
13968SOL    HW243802   1.637   4.992   8.645
13969SOL     OW43803   1.208  11.336   2.114
13969SOL    HW143804   1.224  11.252   2.070
13969SOL    HW243805   1.171  11.392   2.046
13970SOL     OW43806   0.144  14.565   1.267
13970SOL    HW143807   0.099  14.647   1.247
13970SOL    HW243808   0.074  14.502   1.282
13971SOL     OW43809  10.234   3.501   3.411
13971SOL    HW143810  10.277   3.448   3.344
13971SOL    HW243811  10.148   3.461   3.421
13972SOL     OW43812   8.186  12.116   1.705
13972SOL    HW143813   8.107  12.066   1.727
13972SOL    HW243814   8.257  12.069   1.748
13973SOL     OW43815   7.826   1.984  12.581
13973SOL    HW143816   7.851   1.960  12.670
13973SOL    HW243817   7.899   1.954  12.527
13974SOL     OW43818   1.705   6.121   8.174
13974SOL    HW143819   1.755   6.197   8.203
13974SOL    HW243820   1.685   6.074   8.255
13975SOL     OW43821  13.424  12.723  12.524
13975SOL    HW143822  13.496  12.786  12.524
13975SOL    HW243823  13.465  12.639  12.545
13976SOL     OW43824   5.311   6.391   4.320
13976SOL    HW143825   5.400   6.413   4.292
13976SOL    HW243826   5.279   6.471   4.363
13977SOL     OW43827   4.330   5.770  13.856
13977SOL    HW143828   4.296   5.744  13.770
13977SOL    HW243829   4.324   5.865  13.856
13978SOL     OW43830   4.942   1.082   9.148
13978SOL    HW143831   4.892   1.021   9.202
13978SOL    HW243832   4.927   1.052   9.058
13979SOL     OW43833   9.910   5.678   8.164
13979SOL    HW143834   9.824   5.694   8.127
13979SOL    HW243835   9.950   5.613   8.107
13980SOL     OW43836   5.934   7.048  14.542
13980SOL    HW143837   5.897   7.136  14.532
13980SOL    HW243838   6.001   7.059  14.610
13981SOL     OW43839   3.577  10.600   3.621
13981SOL    HW143840   3.543  10.519   3.585
13981SOL    HW243841   3.543  10.668   3.563
13982SOL     OW43842   6.746  10.758  14.598
13982SOL    HW143843   6.779  10.769  14.509
13982SOL    HW243844   6.708  10.670  14.600
13983SOL     OW43845  10.076   7.671  11.499
13983SOL    HW143846  10.103   7.660  11.591
13983SOL    HW243847   9.995   7.621  11.492
13984SOL     OW43848   6.876   6.917   4.566
13984SOL    HW143849   6.905   6.870   4.644
13984SOL    HW243850   6.948   6.907   4.503
13985SOL     OW43851   1.717   7.115   4.937
13985SOL    HW143852   1.709   7.024   4.965
13985SOL    HW243853   1.760   7.159   5.009
13986SOL     OW43854   2.508  11.567   8.499
13986SOL    HW143855   2.552  11.491   8.537
13986SOL    HW243856   2.544  11.575   8.411
13987SOL     OW43857   5.965   2.564  12.548
13987SOL    HW143858   5.908   2.623  12.598
13987SOL    HW243859   5.942   2.476  12.579
13988SOL     OW43860   3.907   8.513   2.576
13988SOL    HW143861   3.956   8.499   2.495
13988SOL    HW243862   3.941   8.595   2.611
13989SOL     OW43863  13.198   6.539   0.537
13989SOL    HW143864  13.236   6.527   0.624
13989SOL    HW243865  13.108   6.507   0.546
13990SOL     OW43866   9.625  11.581   1.093
13990SOL    HW143867   9.558  11.587   1.162
13990SOL    HW243868   9.594  11.511   1.035
13991SOL     OW43869  14.158   3.850   5.588
13991SOL    HW143870  14.223   3.887   5.528
13991SOL    HW243871  14.190   3.762   5.606
13992SOL     OW43872  10.713   0.361  10.303
13992SOL    HW143873  10.805   0.348  10.279
13992SOL    HW243874  10.717   0.406  10.388
13993SOL     OW43875  10.775   6.570  11.053
13993SOL    HW143876  10.713   6.582  11.124
13993SOL    HW243877  10.722   6.535  10.981
13994SOL     OW43878   0.082   9.274  14.082
13994SOL    HW143879   0.077   9.245  13.991
13994SOL    HW243880   0.176   9.288  14.098
13995SOL     OW43881   3.090   4.833   2.640
13995SOL    HW143882   2.998   4.816   2.622
13995SOL    HW243883   3.126   4.864   2.556
13996SOL     OW43884   2.914   0.510   6.865
13996SOL    HW143885   2.889   0.421   6.892
13996SOL    HW243886   2.861   0.528   6.788
13997SOL     OW43887   9.279   0.816   6.862
13997SOL    HW143888   9.343   0.788   6.927
13997SOL    HW243889   9.328   0.875   6.804
13998SOL     OW43890   7.483  11.944  11.822
13998SOL    HW143891   7.431  11.943  11.742
13998SOL    HW243892   7.527  11.858  11.823
13999SOL     OW43893   5.683  11.877   4.603
13999SOL    HW143894   5.637  11.889   4.687
13999SOL    HW243895   5.613  11.873   4.538
14000SOL     OW43896  12.512   4.463   1.031
14000SOL    HW143897  12.488   4.493   0.943
14000SOL    HW243898  12.440   4.405   1.056
14001SOL     OW43899   8.196  10.497   4.985
14001SOL    HW143900   8.127  10.519   4.923
14001SOL    HW243901   8.235  10.581   5.008
14002SOL     OW43902  11.471   3.604   9.202
14002SOL    HW143903  11.518   3.579   9.283
14002SOL    HW243904  11.388   3.639   9.233
14003SOL     OW43905   2.448  11.434   9.989
14003SOL    HW143906   2.455  11.369   9.919
14003SOL    HW243907   2.521  11.414  10.048
14004SOL     OW43908  12.689   7.124  14.666
14004SOL    HW143909  12.779   7.137  14.695
14004SOL    HW243910  12.651   7.211  14.665
14005SOL     OW43911   2.663  14.603  12.680
14005SOL    HW143912   2.729  14.584  12.746
14005SOL    HW243913   2.712  14.608  12.598
14006SOL     OW43914   2.378   6.538   5.056
14006SOL    HW143915   2.356   6.573   5.142
14006SOL    HW243916   2.328   6.456   5.050
14007SOL     OW43917   5.578   2.060  14.417
14007SOL    HW143918   5.654   2.089  14.468
14007SOL    HW243919   5.512   2.128  14.431
14008SOL     OW43920   0.019   3.457  11.188
14008SOL    HW143921  14.871   3.494  11.271
14008SOL    HW243922  14.837   3.387  11.169
14009SOL     OW43923   2.230   7.091   0.255
14009SOL    HW143924   2.285   7.154   0.301
14009SOL    HW243925   2.142   7.128   0.259
14010SOL     OW43926   0.174  14.723   5.862
14010SOL    HW143927   0.152  14.766   5.945
14010SOL    HW243928   0.121  14.768   5.797
14011SOL     OW43929  10.203   6.505   6.778
14011SOL    HW143930  10.279   6.449   6.795
14011SOL    HW243931  10.215   6.533   6.687
14012SOL     OW43932   8.009  10.567   1.683
14012SOL    HW143933   7.917  10.594   1.691
14012SOL    HW243934   8.009  10.475   1.708
14013SOL     OW43935   3.654   4.414   0.759
14013SOL    HW143936   3.695   4.468   0.691
14013SOL    HW243937   3.616   4.478   0.820
14014SOL     OW43938  10.264  14.123  12.038
14014SOL    HW143939  10.203  14.164  11.977
14014SOL    HW243940  10.256  14.029  12.022
14015SOL     OW43941  12.991   3.890   5.355
14015SOL    HW143942  12.952   3.803   5.345
14015SOL    HW243943  13.035   3.887   5.440
14016SOL     OW43944   2.214   4.570  11.337
14016SOL    HW143945   2.183   4.643  11.390
14016SOL    HW243946   2.156   4.568  11.261
14017SOL     OW43947   3.806  10.089   5.507
14017SOL    HW143948   3.880  10.139   5.539
14017SOL    HW243949   3.732  10.119   5.560
14018SOL     OW43950  14.488   6.501  11.336
14018SOL    HW143951  14.567   6.489  11.284
14018SOL    HW243952  14.426   6.542  11.276
14019SOL     OW43953   1.785   9.527   3.890
14019SOL    HW143954   1.873   9.511   3.855
14019SOL    HW243955   1.799   9.577   3.970
14020SOL     OW43956   3.107  14.163  11.475
14020SOL    HW143957   3.034  14.200  11.524
14020SOL    HW243958   3.088  14.184  11.383
14021SOL     OW43959   3.800   8.971  12.372
14021SOL    HW143960   3.830   8.957  12.282
14021SOL    HW243961   3.731   9.037  12.364
14022SOL     OW43962   1.096  10.551   9.215
14022SOL    HW143963   1.178  10.593   9.189
14022SOL    HW243964   1.097  10.555   9.311
14023SOL     OW43965  10.379   1.472   2.529
14023SOL    HW143966  10.428   1.451   2.450
14023SOL    HW243967  10.297   1.423   2.520
14024SOL     OW43968   9.053   2.486  13.339
14024SOL    HW143969   9.132   2.519  13.382
14024SOL    HW243970   9.038   2.400  13.378
14025SOL     OW43971  11.892   3.538   7.293
14025SOL    HW143972  11.898   3.446   7.317
14025SOL    HW243973  11.834   3.576   7.359
14026SOL     OW43974   9.624   5.994   8.065
14026SOL    HW143975   9.586   5.972   8.150
14026SOL    HW243976   9.645   6.087   8.072
14027SOL     OW43977   6.549   3.613   4.916
14027SOL    HW143978   6.502   3.588   4.837
14027SOL    HW243979   6.562   3.532   4.964
14028SOL     OW43980   8.997   0.442  12.705
14028SOL    HW143981   8.903   0.430  12.699
14028SOL    HW243982   9.032   0.388  12.634
14029SOL     OW43983   4.713   3.030  10.113
14029SOL    HW143984   4.748   2.972  10.181
14029SOL    HW243985   4.619   3.015  10.115
14030SOL     OW43986  14.600  11.991  11.449
14030SOL    HW143987  14.557  12.003  11.534
14030SOL    HW243988  14.637  11.903  11.453
14031SOL     OW43989   0.327   6.897  12.704
14031SOL    HW143990   0.289   6.867  12.621
14031SOL    HW243991   0.386   6.969  12.678
14032SOL     OW43992   1.673   8.388   6.203
14032SOL    HW143993   1.676   8.409   6.110
14032SOL    HW243994   1.582   8.359   6.218
14033SOL     OW43995   9.004   3.757   2.221
14033SOL    HW143996   9.015   3.796   2.308
14033SOL    HW243997   9.063   3.806   2.165
14034SOL     OW43998   2.395   7.904   8.270
14034SOL    HW143999   2.305   7.919   8.241
14034SOL    HW244000   2.398   7.811   8.291
14035SOL     OW44001  10.179   1.841  14.095
14035SOL    HW144002  10.138   1.888  14.022
14035SOL    HW244003  10.237   1.906  14.135
14036SOL     OW44004  13.949   0.291   5.032
14036SOL    HW144005  13.956   0.199   5.004
14036SOL    HW244006  14.025   0.333   4.992
14037SOL     OW44007  10.050  13.968   5.621
14037SOL    HW144008   9.993  13.928   5.687
14037SOL    HW244009  10.138  13.960   5.657
14038SOL     OW44010   1.928   5.028  14.031
14038SOL    HW144011   1.836   5.045  14.008
14038SOL    HW244012   1.952   4.954  13.976
14039SOL     OW44013   2.784  12.313  14.403
14039SOL    HW144014   2.830  12.368  14.466
14039SOL    HW244015   2.821  12.337  14.318
14040SOL     OW44016   9.925  10.447   9.882
14040SOL    HW144017   9.977  10.432   9.961
14040SOL    HW244018   9.978  10.505   9.828
14041SOL     OW44019  10.975   4.197  13.107
14041SOL    HW144020  11.006   4.253  13.178
14041SOL    HW244021  10.978   4.109  13.143
14042SOL     OW44022   4.208   3.078   6.759
14042SOL    HW144023   4.251   3.057   6.676
14042SOL    HW244024   4.280   3.090   6.821
14043SOL     OW44025   4.954   2.783   6.823
14043SOL    HW144026   4.938   2.689   6.813
14043SOL    HW244027   5.030   2.800   6.767
14044SOL     OW44028   6.285   5.207   4.592
14044SOL    HW144029   6.356   5.269   4.580
14044SOL    HW244030   6.275   5.200   4.687
14045SOL     OW44031   5.419   6.918   4.758
14045SOL    HW144032   5.390   6.838   4.802
14045SOL    HW244033   5.407   6.899   4.664
14046SOL     OW44034  11.535   7.033  13.496
14046SOL    HW144035  11.512   7.006  13.585
14046SOL    HW244036  11.630   7.037  13.495
14047SOL     OW44037   3.208  11.730   3.211
14047SOL    HW144038   3.169  11.778   3.137
14047SOL    HW244039   3.173  11.774   3.289
14048SOL     OW44040   1.917   5.622   9.385
14048SOL    HW144041   1.920   5.637   9.479
14048SOL    HW244042   1.900   5.528   9.376
14049SOL     OW44043   6.884  13.177  13.562
14049SOL    HW144044   6.964  13.206  13.607
14049SOL    HW244045   6.890  13.215  13.475
14050SOL     OW44046   1.111  13.976   5.742
14050SOL    HW144047   1.139  14.037   5.811
14050SOL    HW244048   1.041  14.023   5.696
14051SOL     OW44049  13.726   1.816  12.069
14051SOL    HW144050  13.810   1.770  12.075
14051SOL    HW244051  13.695   1.797  11.981
14052SOL     OW44052   2.684  13.185  10.585
14052SOL    HW144053   2.736  13.243  10.530
14052SOL    HW244054   2.683  13.101  10.538
14053SOL     OW44055   4.293   8.764   1.273
14053SOL    HW144056   4.254   8.850   1.259
14053SOL    HW244057   4.362   8.757   1.207
14054SOL     OW44058  12.259  13.311   1.862
14054SOL    HW144059  12.250  13.259   1.783
14054SOL    HW244060  12.352  13.334   1.865
14055SOL     OW44061   4.791   3.761   3.958
14055SOL    HW144062   4.844   3.761   4.038
14055SOL    HW244063   4.763   3.852   3.948
14056SOL     OW44064   5.632  10.273  12.266
14056SOL    HW144065   5.612  10.357  12.308
14056SOL    HW244066   5.645  10.295  12.173
14057SOL     OW44067   8.343  14.488   2.119
14057SOL    HW144068   8.287  14.411   2.106
14057SOL    HW244069   8.308  14.530   2.197
14058SOL     OW44070  10.325   4.681   6.532
14058SOL    HW144071  10.264   4.745   6.495
14058SOL    HW244072  10.289   4.660   6.618
14059SOL     OW44073  13.111  13.746   8.061
14059SOL    HW144074  13.170  13.680   8.023
14059SOL    HW244075  13.170  13.818   8.086
14060SOL     OW44076  12.204   1.411   9.880
14060SOL    HW144077  12.189   1.480   9.815
14060SOL    HW244078  12.188   1.454   9.964
14061SOL     OW44079  12.754   0.881   7.661
14061SOL    HW144080  12.844   0.852   7.671
14061SOL    HW244081  12.749   0.912   7.570
14062SOL     OW44082   1.671   6.864   9.606
14062SOL    HW144083   1.722   6.794   9.565
14062SOL    HW244084   1.606   6.818   9.660
14063SOL     OW44085   1.269  10.781   7.071
14063SOL    HW144086   1.194  10.731   7.038
14063SOL    HW244087   1.328  10.715   7.107
14064SOL     OW44088  12.063  13.711  14.316
14064SOL    HW144089  12.097  13.797  14.341
14064SOL    HW244090  12.125  13.678  14.251
14065SOL     OW44091   8.138   2.203   6.795
14065SOL    HW144092   8.167   2.237   6.710
14065SOL    HW244093   8.188   2.254   6.859
14066SOL     OW44094  13.775   9.586  13.183
14066SOL    HW144095  13.868   9.609  13.180
14066SOL    HW244096  13.734   9.659  13.228
14067SOL     OW44097   4.502  14.102   6.502
14067SOL    HW144098   4.587  14.124   6.539
14067SOL    HW244099   4.506  14.135   6.412
14068SOL     OW44100   8.236   3.866   6.013
14068SOL    HW144101   8.177   3.930   6.052
14068SOL    HW244102   8.187   3.831   5.939
14069SOL     OW44103  11.883   8.217   6.346
14069SOL    HW144104  11.839   8.133   6.362
14069SOL    HW244105  11.838   8.278   6.405
14070SOL     OW44106   6.161   0.267  14.371
14070SOL    HW144107   6.150   0.179  14.334
14070SOL    HW244108   6.172   0.323  14.295
14071SOL     OW44109   1.885   4.153  14.494
14071SOL    HW144110   1.830   4.083  14.530
14071SOL    HW244111   1.823   4.214  14.455
14072SOL     OW44112   1.289   9.570   6.862
14072SOL    HW144113   1.230   9.640   6.890
14072SOL    HW244114   1.306   9.587   6.770
14073SOL     OW44115   0.125   0.190   5.160
14073SOL    HW144116   0.134   0.105   5.115
14073SOL    HW244117   0.118   0.167   5.252
14074SOL     OW44118   6.713   8.164  14.793
14074SOL    HW144119   6.691   8.256  14.777
14074SOL    HW244120   6.765   8.166  14.873
14075SOL     OW44121  13.244  12.706  10.051
14075SOL    HW144122  13.334  12.678  10.069
14075SOL    HW244123  13.215  12.651   9.979
14076SOL     OW44124   7.584  14.113   2.754
14076SOL    HW144125   7.539  14.197   2.769
14076SOL    HW244126   7.673  14.138   2.729
14077SOL     OW44127   0.386   3.327   7.207
14077SOL    HW144128   0.474   3.349   7.239
14077SOL    HW244129   0.327   3.382   7.257
14078SOL     OW44130   8.288  14.741   9.845
14078SOL    HW144131   8.310  14.826   9.807
14078SOL    HW244132   8.217  14.759   9.906
14079SOL     OW44133  11.215   1.419   3.312
14079SOL    HW144134  11.251   1.506   3.329
14079SOL    HW244135  11.143   1.410   3.375
14080SOL     OW44136  14.131   2.135  13.393
14080SOL    HW144137  14.110   2.205  13.331
14080SOL    HW244138  14.121   2.176  13.479
14081SOL     OW44139  11.965  14.571  13.892
14081SOL    HW144140  12.045  14.610  13.857
14081SOL    HW244141  11.894  14.614  13.844
14082SOL     OW44142   8.887   9.271   1.150
14082SOL    HW144143   8.806   9.280   1.100
14082SOL    HW244144   8.940   9.211   1.098
14083SOL     OW44145   9.061  12.340   2.255
14083SOL    HW144146   9.128  12.281   2.288
14083SOL    HW244147   9.077  12.344   2.161
14084SOL     OW44148   7.791  11.271  11.318
14084SOL    HW144149   7.761  11.356  11.287
14084SOL    HW244150   7.715  11.214  11.310
14085SOL     OW44151   7.579  14.585   7.497
14085SOL    HW144152   7.573  14.636   7.577
14085SOL    HW244153   7.673  14.583   7.476
14086SOL     OW44154  13.624   1.593  10.258
14086SOL    HW144155  13.615   1.531  10.186
14086SOL    HW244156  13.718   1.593  10.278
14087SOL     OW44157   3.782  10.398  14.551
14087SOL    HW144158   3.797  10.355  14.466
14087SOL    HW244159   3.807  10.333  14.616
14088SOL     OW44160   5.119  11.674   9.321
14088SOL    HW144161   5.185  11.741   9.339
14088SOL    HW244162   5.062  11.676   9.399
14089SOL     OW44163   4.297   5.696   6.957
14089SOL    HW144164   4.281   5.607   6.989
14089SOL    HW244165   4.318   5.746   7.035
14090SOL     OW44166   8.177   1.243   5.388
14090SOL    HW144167   8.097   1.226   5.339
14090SOL    HW244168   8.168   1.192   5.468
14091SOL     OW44169   5.576   3.567   6.731
14091SOL    HW144170   5.483   3.565   6.709
14091SOL    HW244171   5.581   3.619   6.811
14092SOL     OW44172  13.847  10.769   8.655
14092SOL    HW144173  13.824  10.687   8.611
14092SOL    HW244174  13.908  10.744   8.724
14093SOL     OW44175  14.678  12.205   2.067
14093SOL    HW144176  14.666  12.154   1.986
14093SOL    HW244177  14.769  12.190   2.091
14094SOL     OW44178   2.204   7.429   0.317
14094SOL    HW144179   2.271   7.483   0.359
14094SOL    HW244180   2.247   7.390   0.241
14095SOL     OW44181  14.580   6.779   2.456
14095SOL    HW144182  14.507   6.805   2.401
14095SOL    HW244183  14.576   6.837   2.532
14096SOL     OW44184  11.222   4.568   6.247
14096SOL    HW144185  11.167   4.529   6.178
14096SOL    HW244186  11.165   4.632   6.290
14097SOL     OW44187   6.351   9.201   5.950
14097SOL    HW144188   6.357   9.105   5.950
14097SOL    HW244189   6.310   9.222   5.866
14098SOL     OW44190   2.238   0.740   1.135
14098SOL    HW144191   2.177   0.669   1.116
14098SOL    HW244192   2.316   0.718   1.084
14099SOL     OW44193   6.727   7.882  13.316
14099SOL    HW144194   6.718   7.826  13.239
14099SOL    HW244195   6.821   7.882  13.335
14100SOL     OW44196   5.581   2.758  12.866
14100SOL    HW144197   5.591   2.832  12.806
14100SOL    HW244198   5.572   2.798  12.952
14101SOL     OW44199  12.367   9.209  11.118
14101SOL    HW144200  12.418   9.129  11.110
14101SOL    HW244201  12.278   9.184  11.093
14102SOL     OW44202   1.677   8.786  11.128
14102SOL    HW144203   1.757   8.747  11.094
14102SOL    HW244204   1.634   8.824  11.051
14103SOL     OW44205   4.031   8.095   9.192
14103SOL    HW144206   3.964   8.144   9.240
14103SOL    HW244207   4.039   8.141   9.108
14104SOL     OW44208  11.554  10.928   2.342
14104SOL    HW144209  11.589  10.976   2.267
14104SOL    HW244210  11.574  10.983   2.417
14105SOL     OW44211   0.109   5.242  10.458
14105SOL    HW144212   0.025   5.255  10.502
14105SOL    HW244213   0.167   5.209  10.527
14106SOL     OW44214  12.405  14.693   8.003
14106SOL    HW144215  12.331  14.715   8.059
14106SOL    HW244216  12.409  14.764   7.939
14107SOL     OW44217   4.129   5.670   0.047
14107SOL    HW144218   4.036   5.662   0.068
14107SOL    HW244219   4.133   5.659  14.832
14108SOL     OW44220   5.919   4.975  10.567
14108SOL    HW144221   5.840   4.943  10.612
14108SOL    HW244222   5.980   4.902  10.571
14109SOL     OW44223   5.440   2.679   6.222
14109SOL    HW144224   5.523   2.647   6.188
14109SOL    HW244225   5.381   2.603   6.219
14110SOL     OW44226  12.557   2.231  10.905
14110SOL    HW144227  12.598   2.297  10.848
14110SOL    HW244228  12.536   2.159  10.846
14111SOL     OW44229   9.820  11.085   7.934
14111SOL    HW144230   9.754  11.150   7.910
14111SOL    HW244231   9.769  11.009   7.964
14112SOL     OW44232  12.561  12.737   1.935
14112SOL    HW144233  12.561  12.833   1.939
14112SOL    HW244234  12.577  12.710   2.026
14113SOL     OW44235   2.812   8.289   1.336
14113SOL    HW144236   2.890   8.235   1.347
14113SOL    HW244237   2.749   8.253   1.399
14114SOL     OW44238   3.527   1.986   6.977
14114SOL    HW144239   3.464   2.054   6.954
14114SOL    HW244240   3.486   1.905   6.948
14115SOL     OW44241   5.674  12.189  10.163
14115SOL    HW144242   5.661  12.242  10.241
14115SOL    HW244243   5.762  12.153  10.172
14116SOL     OW44244   5.757   2.135   8.078
14116SOL    HW144245   5.822   2.199   8.047
14116SOL    HW244246   5.808   2.073   8.129
14117SOL     OW44247   5.036   9.868  11.674
14117SOL    HW144248   5.038   9.795  11.736
14117SOL    HW244249   4.978   9.932  11.714
14118SOL     OW44250   3.589   0.135  11.036
14118SOL    HW144251   3.629   0.067  10.982
14118SOL    HW244252   3.544   0.192  10.974
14119SOL     OW44253  11.213   1.656  10.688
14119SOL    HW144254  11.237   1.581  10.743
14119SOL    HW244255  11.240   1.732  10.739
14120SOL     OW44256  13.409  14.141   0.232
14120SOL    HW144257  13.325  14.095   0.240
14120SOL    HW244258  13.402  14.215   0.293
14121SOL     OW44259  12.958   4.493  13.398
14121SOL    HW144260  12.924   4.423  13.454
14121SOL    HW244261  12.926   4.574  13.440
14122SOL     OW44262   1.770   4.936  10.518
14122SOL    HW144263   1.803   5.014  10.563
14122SOL    HW244264   1.709   4.896  10.581
14123SOL     OW44265  10.137  12.962   3.109
14123SOL    HW144266  10.076  13.034   3.092
14123SOL    HW244267  10.162  12.974   3.201
14124SOL     OW44268  13.490  11.661   9.907
14124SOL    HW144269  13.508  11.575   9.867
14124SOL    HW244270  13.488  11.721   9.832
14125SOL     OW44271   7.638  13.578   1.133
14125SOL    HW144272   7.638  13.506   1.070
14125SOL    HW244273   7.683  13.543   1.209
14126SOL     OW44274   3.334  11.111   2.539
14126SOL    HW144275   3.351  11.022   2.569
14126SOL    HW244276   3.292  11.101   2.454
14127SOL     OW44277  12.493   9.537   2.956
14127SOL    HW144278  12.514   9.466   3.016
14127SOL    HW244279  12.400   9.526   2.937
14128SOL     OW44280  10.509   8.304   1.728
14128SOL    HW144281  10.601   8.323   1.747
14128SOL    HW244282  10.504   8.209   1.730
14129SOL     OW44283  11.173   9.956  12.837
14129SOL    HW144284  11.175   9.995  12.749
14129SOL    HW244285  11.264   9.960  12.866
14130SOL     OW44286   0.184  12.951   4.224
14130SOL    HW144287   0.230  13.001   4.156
14130SOL    HW244288   0.202  12.860   4.203
14131SOL     OW44289   8.519   7.314  10.987
14131SOL    HW144290   8.467   7.385  10.947
14131SOL    HW244291   8.466   7.285  11.061
14132SOL     OW44292  13.557  13.796   1.859
14132SOL    HW144293  13.541  13.759   1.945
14132SOL    HW244294  13.471  13.798   1.817
14133SOL     OW44295   3.751   5.761   0.797
14133SOL    HW144296   3.834   5.780   0.751
14133SOL    HW244297   3.769   5.784   0.888
14134SOL     OW44298  10.107  13.487   3.212
14134SOL    HW144299  10.142  13.399   3.199
14134SOL    HW244300  10.185  13.542   3.224
14135SOL     OW44301   9.030   6.101  12.809
14135SOL    HW144302   8.939   6.075  12.822
14135SOL    HW244303   9.069   6.029  12.759
14136SOL     OW44304  14.250   0.389   0.779
14136SOL    HW144305  14.220   0.480   0.779
14136SOL    HW244306  14.179   0.340   0.740
14137SOL     OW44307   6.836  12.064  11.196
14137SOL    HW144308   6.823  12.005  11.122
14137SOL    HW244309   6.869  12.007  11.266
14138SOL     OW44310   9.698   5.402   5.633
14138SOL    HW144311   9.734   5.428   5.718
14138SOL    HW244312   9.713   5.307   5.629
14139SOL     OW44313   5.781   7.407   0.569
14139SOL    HW144314   5.834   7.447   0.638
14139SOL    HW244315   5.728   7.342   0.615
14140SOL     OW44316   4.342  13.190   1.261
14140SOL    HW144317   4.296  13.108   1.279
14140SOL    HW244318   4.425  13.162   1.222
14141SOL     OW44319   7.343  10.954  10.876
14141SOL    HW144320   7.388  11.014  10.817
14141SOL    HW244321   7.261  10.934  10.833
14142SOL     OW44322   7.468  12.755   5.059
14142SOL    HW144323   7.510  12.669   5.055
14142SOL    HW244324   7.522  12.806   5.118
14143SOL     OW44325  14.237  14.792   1.380
14143SOL    HW144326  14.200  14.804   1.293
14143SOL    HW244327  14.255  14.698   1.386
14144SOL     OW44328   5.392  14.256   1.308
14144SOL    HW144329   5.463  14.307   1.347
14144SOL    HW244330   5.404  14.167   1.344
14145SOL     OW44331   0.746   2.964  13.550
14145SOL    HW144332   0.706   3.045  13.581
14145SOL    HW244333   0.766   2.915  13.629
14146SOL     OW44334  10.510   3.068   8.662
14146SOL    HW144335  10.471   3.092   8.746
14146SOL    HW244336  10.583   3.011   8.685
14147SOL     OW44337   5.225   3.665  12.688
14147SOL    HW144338   5.164   3.610  12.738
14147SOL    HW244339   5.168   3.724  12.639
14148SOL     OW44340  11.723   0.548  12.022
14148SOL    HW144341  11.772   0.478  11.980
14148SOL    HW244342  11.680   0.507  12.097
14149SOL     OW44343   4.640   4.272   7.440
14149SOL    HW144344   4.735   4.284   7.442
14149SOL    HW244345   4.625   4.211   7.367
14150SOL     OW44346   2.429   8.417  10.923
14150SOL    HW144347   2.372   8.431  10.847
14150SOL    HW244348   2.373   8.376  10.988
14151SOL     OW44349   2.417   2.299   5.015
14151SOL    HW144350   2.428   2.215   4.970
14151SOL    HW244351   2.458   2.285   5.101
14152SOL     OW44352   5.664   9.913   5.165
14152SOL    HW144353   5.713   9.869   5.096
14152SOL    HW244354   5.581   9.865   5.170
14153SOL     OW44355   8.150   1.630  11.114
14153SOL    HW144356   8.215   1.670  11.171
14153SOL    HW244357   8.071   1.625  11.168
14154SOL     OW44358   4.448  13.676  11.676
14154SOL    HW144359   4.448  13.729  11.596
14154SOL    HW244360   4.454  13.740  11.747
14155SOL     OW44361   2.618   7.094   8.874
14155SOL    HW144362   2.692   7.042   8.841
14155SOL    HW244363   2.579   7.133   8.796
14156SOL     OW44364   8.774   3.332   2.845
14156SOL    HW144365   8.775   3.409   2.902
14156SOL    HW244366   8.683   3.301   2.848
14157SOL     OW44367   3.314   0.186  12.717
14157SOL    HW144368   3.384   0.181  12.782
14157SOL    HW244369   3.289   0.095  12.701
14158SOL     OW44370   0.099  12.990   9.672
14158SOL    HW144371   0.174  12.974   9.729
14158SOL    HW244372   0.082  13.084   9.680
14159SOL     OW44373   0.084  13.243   3.995
14159SOL    HW144374   0.123  13.181   4.058
14159SOL    HW244375   0.056  13.188   3.922
14160SOL     OW44376   0.149   5.560   2.709
14160SOL    HW144377   0.086   5.629   2.692
14160SOL    HW244378   0.186   5.538   2.623
14161SOL     OW44379   4.095   6.336  12.802
14161SOL    HW144380   4.169   6.296  12.755
14161SOL    HW244381   4.056   6.395  12.739
14162SOL     OW44382   4.637  12.529   3.385
14162SOL    HW144383   4.593  12.450   3.417
14162SOL    HW244384   4.635  12.521   3.290
14163SOL     OW44385   8.465  14.009  12.370
14163SOL    HW144386   8.418  13.954  12.433
14163SOL    HW244387   8.547  13.962  12.354
14164SOL     OW44388   3.430   6.594   2.765
14164SOL    HW144389   3.374   6.576   2.841
14164SOL    HW244390   3.516   6.564   2.791
14165SOL     OW44391   9.333  12.605  14.407
14165SOL    HW144392   9.422  12.610  14.442
14165SOL    HW244393   9.323  12.513  14.383
14166SOL     OW44394   3.377   0.473   7.306
14166SOL    HW144395   3.432   0.395   7.317
14166SOL    HW244396   3.287   0.440   7.311
14167SOL     OW44397   3.364   7.791  14.447
14167SOL    HW144398   3.269   7.789  14.460
14167SOL    HW244399   3.385   7.707  14.406
14168SOL     OW44400   4.031  11.805   8.125
14168SOL    HW144401   3.943  11.842   8.119
14168SOL    HW244402   4.066  11.840   8.207
14169SOL     OW44403  14.588   2.681  14.554
14169SOL    HW144404  14.511   2.736  14.573
14169SOL    HW244405  14.661   2.729  14.593
14170SOL     OW44406   5.996  10.716  14.277
14170SOL    HW144407   5.986  10.805  14.311
14170SOL    HW244408   6.017  10.728  14.184
14171SOL     OW44409  13.532   3.817   4.471
14171SOL    HW144410  13.502   3.864   4.393
14171SOL    HW244411  13.595   3.753   4.437
14172SOL     OW44412  10.068  12.331   9.540
14172SOL    HW144413  10.163  12.329   9.537
14172SOL    HW244414  10.040  12.257   9.486
14173SOL     OW44415   6.991  10.117   8.256
14173SOL    HW144416   6.897  10.106   8.241
14173SOL    HW244417   7.020  10.032   8.290
14174SOL     OW44418   5.038  11.849   7.321
14174SOL    HW144419   4.984  11.861   7.399
14174SOL    HW244420   5.036  11.933   7.276
14175SOL     OW44421   9.719   8.393  11.163
14175SOL    HW144422   9.793   8.399  11.103
14175SOL    HW244423   9.669   8.318  11.131
14176SOL     OW44424  10.945   5.054   0.555
14176SOL    HW144425  10.925   5.051   0.461
14176SOL    HW244426  10.899   4.979   0.592
14177SOL     OW44427   8.818  11.445  14.704
14177SOL    HW144428   8.757  11.372  14.694
14177SOL    HW244429   8.763  11.518  14.732
14178SOL     OW44430   1.761  12.159   9.811
14178SOL    HW144431   1.756  12.141   9.905
14178SOL    HW244432   1.785  12.251   9.806
14179SOL     OW44433   0.875   0.492  11.662
14179SOL    HW144434   0.888   0.523  11.573
14179SOL    HW244435   0.818   0.557  11.702
14180SOL     OW44436   2.162   1.875   0.017
14180SOL    HW144437   2.177   1.969   0.030
14180SOL    HW244438   2.148   1.865  14.803
14181SOL     OW44439   5.578  12.966   4.948
14181SOL    HW144440   5.612  12.890   4.900
14181SOL    HW244441   5.618  12.960   5.034
14182SOL     OW44442   2.647   6.959   2.852
14182SOL    HW144443   2.735   6.922   2.865
14182SOL    HW244444   2.652   7.003   2.767
14183SOL     OW44445  11.695   4.098   0.708
14183SOL    HW144446  11.652   4.084   0.793
14183SOL    HW244447  11.636   4.057   0.645
14184SOL     OW44448   9.369   1.368  14.158
14184SOL    HW144449   9.359   1.439  14.221
14184SOL    HW244450   9.453   1.328  14.179
14185SOL     OW44451   0.584  10.782   0.566
14185SOL    HW144452   0.661  10.725   0.572
14185SOL    HW244453   0.511  10.726   0.593
14186SOL     OW44454   5.211  13.317  12.624
14186SOL    HW144455   5.306  13.316  12.617
14186SOL    HW244456   5.186  13.225  12.624
14187SOL     OW44457   0.061  13.268   7.701
14187SOL    HW144458  14.870  13.286   7.763
14187SOL    HW244459   0.085  13.355   7.668
14188SOL     OW44460   9.505   7.831   4.499
14188SOL    HW144461   9.497   7.923   4.473
14188SOL    HW244462   9.496   7.782   4.417
14189SOL     OW44463   3.122   5.470   2.007
14189SOL    HW144464   3.042   5.419   2.023
14189SOL    HW244465   3.189   5.405   1.987
14190SOL     OW44466  10.092   0.514   9.626
14190SOL    HW144467  10.045   0.436   9.596
14190SOL    HW244468  10.182   0.501   9.598
14191SOL     OW44469  14.687   8.239  12.940
14191SOL    HW144470  14.650   8.153  12.919
14191SOL    HW244471  14.776   8.221  12.969
14192SOL     OW44472   2.958   2.152  11.546
14192SOL    HW144473   3.044   2.120  11.570
14192SOL    HW244474   2.901   2.074  11.548
14193SOL     OW44475  13.371   8.607   8.671
14193SOL    HW144476  13.337   8.691   8.642
14193SOL    HW244477  13.297   8.563   8.712
14194SOL     OW44478   2.720   8.037   7.634
14194SOL    HW144479   2.746   8.129   7.634
14194SOL    HW244480   2.775   7.997   7.566
14195SOL     OW44481   1.077   2.585   7.160
14195SOL    HW144482   0.992   2.544   7.145
14195SOL    HW244483   1.058   2.661   7.214
14196SOL     OW44484  12.268   4.979   1.450
14196SOL    HW144485  12.174   4.961   1.440
14196SOL    HW244486  12.300   4.908   1.506
14197SOL     OW44487   6.382  11.178   1.391
14197SOL    HW144488   6.365  11.216   1.304
14197SOL    HW244489   6.337  11.094   1.389
14198SOL     OW44490  11.628   0.878  10.522
14198SOL    HW144491  11.652   0.954  10.469
14198SOL    HW244492  11.567   0.913  10.587
14199SOL     OW44493  14.642   8.940   1.471
14199SOL    HW144494  14.558   8.922   1.513
14199SOL    HW244495  14.674   9.020   1.513
14200SOL     OW44496   9.481   4.443   4.971
14200SOL    HW144497   9.402   4.419   4.922
14200SOL    HW244498   9.497   4.534   4.946
14201SOL     OW44499   3.983   4.001   3.671
14201SOL    HW144500   3.957   3.911   3.651
14201SOL    HW244501   3.962   4.050   3.591
14202SOL     OW44502  13.988   5.290   6.509
14202SOL    HW144503  14.054   5.339   6.559
14202SOL    HW244504  13.996   5.322   6.419
14203SOL     OW44505   5.570   9.166   9.575
14203SOL    HW144506   5.591   9.125   9.659
14203SOL    HW244507   5.519   9.101   9.528
14204SOL     OW44508   6.042  11.542   7.083
14204SOL    HW144509   6.002  11.627   7.065
14204SOL    HW244510   6.123  11.543   7.032
14205SOL     OW44511   2.730  13.648   6.604
14205SOL    HW144512   2.683  13.592   6.543
14205SOL    HW244513   2.665  13.712   6.633
14206SOL     OW44514   0.342   2.772   0.167
14206SOL    HW144515   0.357   2.826   0.090
14206SOL    HW244516   0.420   2.717   0.173
14207SOL     OW44517   3.187   0.366   2.235
14207SOL    HW144518   3.104   0.362   2.281
14207SOL    HW244519   3.164   0.387   2.144
14208SOL     OW44520   2.079  10.380  13.741
14208SOL    HW144521   2.067  10.329  13.821
14208SOL    HW244522   2.093  10.470  13.772
14209SOL     OW44523   3.089   4.168   9.524
14209SOL    HW144524   3.036   4.175   9.445
14209SOL    HW244525   3.039   4.214   9.591
14210SOL     OW44526   1.569   8.022  11.692
14210SOL    HW144527   1.555   8.056  11.781
14210SOL    HW244528   1.533   7.933  11.695
14211SOL     OW44529   8.730   5.703  14.225
14211SOL    HW144530   8.696   5.656  14.149
14211SOL    HW244531   8.769   5.634  14.279
14212SOL     OW44532   2.995   5.572   2.337
14212SOL    HW144533   2.994   5.606   2.247
14212SOL    HW244534   3.088   5.557   2.356
14213SOL     OW44535   2.674  11.950   2.030
14213SOL    HW144536   2.668  11.954   2.126
14213SOL    HW244537   2.693  11.858   2.011
14214SOL     OW44538   6.562   8.417   8.035
14214SOL    HW144539   6.508   8.339   8.045
14214SOL    HW244540   6.546   8.445   7.945
14215SOL     OW44541   7.856   8.670   2.767
14215SOL    HW144542   7.873   8.699   2.678
14215SOL    HW244543   7.939   8.632   2.797
14216SOL     OW44544  12.099   1.421   5.933
14216SOL    HW144545  12.096   1.426   5.837
14216SOL    HW244546  12.106   1.513   5.961
14217SOL     OW44547   6.930  13.423   6.661
14217SOL    HW144548   6.836  13.412   6.672
14217SOL    HW244549   6.965  13.333   6.659
14218SOL     OW44550  10.656   1.190  11.895
14218SOL    HW144551  10.726   1.239  11.938
14218SOL    HW244552  10.620   1.250  11.830
14219SOL     OW44553   7.118  10.413   3.435
14219SOL    HW144554   7.154  10.476   3.372
14219SOL    HW244555   7.063  10.466   3.493
14220SOL     OW44556   4.146   0.867  12.190
14220SOL    HW144557   4.051   0.866  12.177
14220SOL    HW244558   4.157   0.849  12.283
14221SOL     OW44559  11.096   7.041   8.630
14221SOL    HW144560  11.002   7.025   8.645
14221SOL    HW244561  11.128   7.076   8.713
14222SOL     OW44562   1.894   1.147  12.133
14222SOL    HW144563   1.809   1.148  12.089
14222SOL    HW244564   1.952   1.197  12.074
14223SOL     OW44565   0.080   5.821   4.294
14223SOL    HW144566   0.063   5.727   4.293
14223SOL    HW244567   0.123   5.839   4.211
14224SOL     OW44568   7.481  10.812  14.415
14224SOL    HW144569   7.403  10.787  14.366
14224SOL    HW244570   7.450  10.881  14.475
14225SOL     OW44571   4.678   1.526   3.862
14225SOL    HW144572   4.615   1.512   3.934
14225SOL    HW244573   4.721   1.442   3.851
14226SOL     OW44574  13.624   7.540   6.010
14226SOL    HW144575  13.577   7.467   5.969
14226SOL    HW244576  13.612   7.613   5.949
14227SOL     OW44577   7.116   7.456  14.008
14227SOL    HW144578   7.048   7.389  13.998
14227SOL    HW244579   7.176   7.419  14.073
14228SOL     OW44580  10.387   8.530   2.377
14228SOL    HW144581  10.409   8.606   2.431
14228SOL    HW244582  10.299   8.549   2.343
14229SOL     OW44583   2.750   7.643   6.832
14229SOL    HW144584   2.820   7.601   6.881
14229SOL    HW244585   2.787   7.657   6.745
14230SOL     OW44586   4.832  13.514  13.615
14230SOL    HW144587   4.846  13.522  13.709
14230SOL    HW244588   4.824  13.420  13.600
14231SOL     OW44589   2.272  10.681  10.535
14231SOL    HW144590   2.365  10.667  10.551
14231SOL    HW244591   2.269  10.760  10.480
14232SOL     OW44592   1.338   2.799   1.703
14232SOL    HW144593   1.405   2.772   1.640
14232SOL    HW244594   1.316   2.889   1.678
14233SOL     OW44595  13.918  12.757   8.246
14233SOL    HW144596  13.971  12.689   8.287
14233SOL    HW244597  13.852  12.779   8.312
14234SOL     OW44598   3.456  11.873  14.548
14234SOL    HW144599   3.389  11.932  14.584
14234SOL    HW244600   3.503  11.841  14.625
14235SOL     OW44601   1.773  12.144   0.636
14235SOL    HW144602   1.811  12.190   0.711
14235SOL    HW244603   1.810  12.188   0.559
14236SOL     OW44604  13.886  14.821   8.346
14236SOL    HW144605  13.830  14.747   8.322
14236SOL    HW244606  13.956  14.782   8.399
14237SOL     OW44607   9.479   1.737   0.503
14237SOL    HW144608   9.470   1.694   0.588
14237SOL    HW244609   9.574   1.739   0.487
14238SOL     OW44610  10.664   3.948  14.558
14238SOL    HW144611  10.685   4.041  14.556
14238SOL    HW244612  10.624   3.934  14.644
14239SOL     OW44613   2.034  12.237   0.811
14239SOL    HW144614   1.969  12.201   0.871
14239SOL    HW244615   2.046  12.328   0.841
14240SOL     OW44616   6.990  11.373   2.751
14240SOL    HW144617   6.932  11.334   2.817
14240SOL    HW244618   7.070  11.395   2.799
14241SOL     OW44619   5.663   8.543  14.612
14241SOL    HW144620   5.724   8.514  14.680
14241SOL    HW244621   5.718   8.570  14.539
14242SOL     OW44622   4.636  11.317  10.980
14242SOL    HW144623   4.610  11.404  11.012
14242SOL    HW244624   4.563  11.289  10.925
14243SOL     OW44625   4.097   9.870  11.139
14243SOL    HW144626   4.083   9.793  11.194
14243SOL    HW244627   4.191   9.868  11.120
14244SOL     OW44628  11.289   7.580   4.493
14244SOL    HW144629  11.305   7.664   4.536
14244SOL    HW244630  11.354   7.576   4.423
14245SOL     OW44631   1.527  11.436   1.700
14245SOL    HW144632   1.551  11.420   1.609
14245SOL    HW244633   1.442  11.481   1.695
14246SOL     OW44634  14.804   3.041   7.936
14246SOL    HW144635  14.827   3.042   7.843
14246SOL    HW244636  14.728   3.100   7.942
14247SOL     OW44637   1.338   7.827   3.335
14247SOL    HW144638   1.339   7.829   3.430
14247SOL    HW244639   1.246   7.828   3.311
14248SOL     OW44640   0.873   9.978  14.231
14248SOL    HW144641   0.841   9.920  14.162
14248SOL    HW244642   0.882  10.063  14.187
14249SOL     OW44643   6.000   5.380  13.536
14249SOL    HW144644   5.965   5.292  13.528
14249SOL    HW244645   5.992   5.400  13.629
14250SOL     OW44646   2.385   8.144   6.478
14250SOL    HW144647   2.459   8.172   6.425
14250SOL    HW244648   2.308   8.177   6.432
14251SOL     OW44649  11.675   7.277  10.602
14251SOL    HW144650  11.676   7.183  10.583
14251SOL    HW244651  11.583   7.302  10.596
14252SOL     OW44652   1.698   7.997   5.616
14252SOL    HW144653   1.692   7.987   5.711
14252SOL    HW244654   1.667   7.914   5.581
14253SOL     OW44655  11.629   0.241   5.298
14253SOL    HW144656  11.639   0.209   5.387
14253SOL    HW244657  11.595   0.330   5.308
14254SOL     OW44658   0.616   1.942   2.300
14254SOL    HW144659   0.618   1.970   2.391
14254SOL    HW244660   0.524   1.951   2.274
14255SOL     OW44661  12.326   5.438  10.622
14255SOL    HW144662  12.341   5.466  10.531
14255SOL    HW244663  12.231   5.436  10.631
14256SOL     OW44664  11.348   7.710  14.409
14256SOL    HW144665  11.407   7.766  14.460
14256SOL    HW244666  11.266   7.712  14.458
14257SOL     OW44667   1.021   1.554   6.753
14257SOL    HW144668   1.023   1.461   6.774
14257SOL    HW244669   1.075   1.596   6.819
14258SOL     OW44670   6.271   6.384   3.648
14258SOL    HW144671   6.347   6.395   3.591
14258SOL    HW244672   6.198   6.423   3.598
14259SOL     OW44673  12.351  10.035   5.260
14259SOL    HW144674  12.399  10.004   5.336
14259SOL    HW244675  12.259  10.035   5.287
14260SOL     OW44676   3.708   9.453   9.503
14260SOL    HW144677   3.640   9.478   9.441
14260SOL    HW244678   3.665   9.455   9.588
14261SOL     OW44679  14.639   7.782   3.590
14261SOL    HW144680  14.658   7.835   3.512
14261SOL    HW244681  14.551   7.747   3.573
14262SOL     OW44682   1.705   4.596   8.177
14262SOL    HW144683   1.692   4.644   8.259
14262SOL    HW244684   1.759   4.521   8.201
14263SOL     OW44685   9.267   0.295   3.819
14263SOL    HW144686   9.200   0.345   3.772
14263SOL    HW244687   9.239   0.298   3.910
14264SOL     OW44688  11.276   3.857   7.703
14264SOL    HW144689  11.209   3.901   7.651
14264SOL    HW244690  11.230   3.787   7.749
14265SOL     OW44691   8.069  14.546   4.438
14265SOL    HW144692   8.156  14.518   4.408
14265SOL    HW244693   8.061  14.508   4.525
14266SOL     OW44694   3.528   8.948   2.248
14266SOL    HW144695   3.554   9.021   2.305
14266SOL    HW244696   3.607   8.928   2.198
14267SOL     OW44697   6.025   0.749   8.313
14267SOL    HW144698   5.930   0.744   8.303
14267SOL    HW244699   6.048   0.674   8.367
14268SOL     OW44700   0.356  10.238   1.850
14268SOL    HW144701   0.441  10.229   1.894
14268SOL    HW244702   0.327  10.148   1.834
14269SOL     OW44703  11.145   9.365   1.159
14269SOL    HW144704  11.189   9.437   1.203
14269SOL    HW244705  11.203   9.342   1.086
14270SOL     OW44706   2.703   7.945   9.025
14270SOL    HW144707   2.757   7.909   9.096
14270SOL    HW244708   2.705   8.040   9.039
14271SOL     OW44709   9.108  13.111   4.199
14271SOL    HW144710   9.018  13.109   4.166
14271SOL    HW244711   9.163  13.095   4.122
14272SOL     OW44712   2.639   6.858  12.014
14272SOL    HW144713   2.688   6.825  12.090
14272SOL    HW244714   2.671   6.805  11.941
14273SOL     OW44715   7.567   2.622  11.324
14273SOL    HW144716   7.640   2.629  11.386
14273SOL    HW244717   7.609   2.616  11.238
14274SOL     OW44718   2.115   9.562   5.359
14274SOL    HW144719   2.045   9.569   5.293
14274SOL    HW244720   2.132   9.653   5.385
14275SOL     OW44721   5.700   7.954   0.243
14275SOL    HW144722   5.623   7.959   0.186
14275SOL    HW244723   5.726   7.862   0.240
14276SOL     OW44724   7.488   8.370   6.992
14276SOL    HW144725   7.514   8.283   7.021
14276SOL    HW244726   7.399   8.359   6.958
14277SOL     OW44727  14.373  12.654   9.018
14277SOL    HW144728  14.366  12.611   9.104
14277SOL    HW244729  14.358  12.746   9.037
14278SOL     OW44730  12.534  12.421   2.629
14278SOL    HW144731  12.472  12.467   2.686
14278SOL    HW244732  12.480  12.387   2.557
14279SOL     OW44733   1.173  12.761  13.228
14279SOL    HW144734   1.191  12.752  13.134
14279SOL    HW244735   1.190  12.673  13.264
14280SOL     OW44736  14.423   0.288  14.473
14280SOL    HW144737  14.458   0.216  14.526
14280SOL    HW244738  14.368   0.245  14.407
14281SOL     OW44739   2.607   6.854   6.709
14281SOL    HW144740   2.602   6.800   6.788
14281SOL    HW244741   2.577   6.795   6.639
14282SOL     OW44742   4.813   6.764   1.999
14282SOL    HW144743   4.872   6.733   1.930
14282SOL    HW244744   4.831   6.857   2.006
14283SOL     OW44745   0.079   8.941  12.872
14283SOL    HW144746   0.047   8.987  12.950
14283SOL    HW244747   0.062   9.002  12.800
14284SOL     OW44748   4.549   9.402   5.301
14284SOL    HW144749   4.613   9.428   5.236
14284SOL    HW244750   4.510   9.322   5.266
14285SOL     OW44751   6.421   2.317   2.688
14285SOL    HW144752   6.349   2.375   2.662
14285SOL    HW244753   6.492   2.338   2.627
14286SOL     OW44754   2.854  11.937  13.021
14286SOL    HW144755   2.900  11.867  12.973
14286SOL    HW244756   2.823  11.894  13.101
14287SOL     OW44757   2.223  13.719  11.312
14287SOL    HW144758   2.206  13.673  11.394
14287SOL    HW244759   2.163  13.678  11.249
14288SOL     OW44760  11.098  10.030   2.929
14288SOL    HW144761  11.044  10.009   2.853
14288SOL    HW244762  11.104   9.949   2.978
14289SOL     OW44763   9.869   0.834   6.552
14289SOL    HW144764   9.788   0.838   6.502
14289SOL    HW244765   9.840   0.832   6.644
14290SOL     OW44766   5.942   7.883  11.664
14290SOL    HW144767   5.996   7.821  11.713
14290SOL    HW244768   5.981   7.968  11.682
14291SOL     OW44769   3.187   8.581  10.260
14291SOL    HW144770   3.143   8.664  10.278
14291SOL    HW244771   3.223   8.554  10.344
14292SOL     OW44772  13.918   1.103   1.016
14292SOL    HW144773  13.824   1.114   1.004
14292SOL    HW244774  13.956   1.183   0.980
14293SOL     OW44775   8.673  13.053   3.625
14293SOL    HW144776   8.607  12.986   3.645
14293SOL    HW244777   8.681  13.104   3.705
14294SOL     OW44778  13.373   0.992   2.721
14294SOL    HW144779  13.385   0.910   2.673
14294SOL    HW244780  13.458   1.036   2.717
14295SOL     OW44781   8.756  12.774   9.982
14295SOL    HW144782   8.689  12.843   9.985
14295SOL    HW244783   8.830  12.810  10.031
14296SOL     OW44784  11.120   6.562  12.533
14296SOL    HW144785  11.056   6.589  12.466
14296SOL    HW244786  11.098   6.616  12.609
14297SOL     OW44787   3.640   2.673  12.151
14297SOL    HW144788   3.552   2.647  12.125
14297SOL    HW244789   3.637   2.673  12.247
14298SOL     OW44790   0.471  11.587  11.700
14298SOL    HW144791   0.436  11.610  11.613
14298SOL    HW244792   0.421  11.510  11.726
14299SOL     OW44793  13.284   6.463  11.287
14299SOL    HW144794  13.306   6.426  11.202
14299SOL    HW244795  13.283   6.388  11.347
14300SOL     OW44796   5.508  14.126   4.418
14300SOL    HW144797   5.483  14.133   4.326
14300SOL    HW244798   5.495  14.033   4.439
14301SOL     OW44799  13.822   0.780   2.404
14301SOL    HW144800  13.761   0.847   2.376
14301SOL    HW244801  13.778   0.697   2.384
14302SOL     OW44802   2.036   8.210   6.002
14302SOL    HW144803   2.037   8.269   5.926
14302SOL    HW244804   2.008   8.126   5.966
14303SOL     OW44805   9.078  10.215  10.877
14303SOL    HW144806   9.146  10.277  10.853
14303SOL    HW244807   8.998  10.249  10.835
14304SOL     OW44808  14.643  13.012  10.291
14304SOL    HW144809  14.617  12.921  10.306
14304SOL    HW244810  14.575  13.048  10.234
14305SOL     OW44811   3.959   7.781   2.736
14305SOL    HW144812   4.035   7.724   2.746
14305SOL    HW244813   3.889   7.723   2.707
14306SOL     OW44814   2.758   5.069   3.348
14306SOL    HW144815   2.694   4.999   3.337
14306SOL    HW244816   2.828   5.030   3.401
14307SOL     OW44817   9.644  11.996   7.200
14307SOL    HW144818   9.731  11.958   7.188
14307SOL    HW244819   9.584  11.921   7.191
14308SOL     OW44820  12.123   7.817   1.641
14308SOL    HW144821  12.031   7.836   1.659
14308SOL    HW244822  12.123   7.724   1.615
14309SOL     OW44823  14.259   8.224   8.532
14309SOL    HW144824  14.245   8.315   8.509
14309SOL    HW244825  14.324   8.193   8.468
14310SOL     OW44826   3.203   4.218   0.981
14310SOL    HW144827   3.186   4.132   0.942
14310SOL    HW244828   3.287   4.245   0.945
14311SOL     OW44829   6.351   3.391   7.808
14311SOL    HW144830   6.293   3.446   7.755
14311SOL    HW244831   6.385   3.449   7.875
14312SOL     OW44832   4.063   5.091   5.361
14312SOL    HW144833   4.157   5.078   5.373
14312SOL    HW244834   4.041   5.164   5.418
14313SOL     OW44835   3.079  12.906   7.597
14313SOL    HW144836   3.049  12.954   7.675
14313SOL    HW244837   3.108  12.821   7.631
14314SOL     OW44838   5.341   7.030  13.375
14314SOL    HW144839   5.433   7.058  13.379
14314SOL    HW244840   5.329   6.974  13.451
14315SOL     OW44841   2.119  10.048   5.551
14315SOL    HW144842   2.114  10.127   5.606
14315SOL    HW244843   2.108  10.080   5.462
14316SOL     OW44844   1.158   3.279   3.427
14316SOL    HW144845   1.148   3.356   3.482
14316SOL    HW244846   1.080   3.278   3.371
14317SOL     OW44847   3.447   2.013  13.061
14317SOL    HW144848   3.488   2.033  13.145
14317SOL    HW244849   3.509   1.955  13.017
14318SOL     OW44850  14.707   7.950   2.634
14318SOL    HW144851  14.635   7.983   2.688
14318SOL    HW244852  14.680   7.972   2.544
14319SOL     OW44853   2.171  12.684  10.281
14319SOL    HW144854   2.086  12.648  10.304
14319SOL    HW244855   2.176  12.677  10.186
14320SOL     OW44856   3.999   0.694   8.695
14320SOL    HW144857   3.917   0.691   8.647
14320SOL    HW244858   3.993   0.773   8.749
14321SOL     OW44859  12.109   5.991  12.882
14321SOL    HW144860  12.094   5.993  12.787
14321SOL    HW244861  12.043   6.050  12.918
14322SOL     OW44862  12.440   1.188  14.535
14322SOL    HW144863  12.400   1.175  14.621
14322SOL    HW244864  12.530   1.213  14.554
14323SOL     OW44865   6.036   0.646   2.230
14323SOL    HW144866   6.130   0.647   2.251
14323SOL    HW244867   6.030   0.597   2.148
14324SOL     OW44868   8.739  11.016  14.873
14324SOL    HW144869   8.663  10.961   0.014
14324SOL    HW244870   8.779  11.036   0.078
14325SOL     OW44871   3.227   2.397  12.727
14325SOL    HW144872   3.214   2.375  12.634
14325SOL    HW244873   3.229   2.493  12.729
14326SOL     OW44874   9.737   8.364  12.505
14326SOL    HW144875   9.764   8.394  12.592
14326SOL    HW244876   9.815   8.377  12.450
14327SOL     OW44877  12.335  13.644   8.919
14327SOL    HW144878  12.396  13.620   8.849
14327SOL    HW244879  12.251  13.655   8.875
14328SOL     OW44880  11.497  10.512   8.689
14328SOL    HW144881  11.494  10.494   8.783
14328SOL    HW244882  11.504  10.426   8.648
14329SOL     OW44883  11.968   8.383  11.268
14329SOL    HW144884  12.046   8.438  11.260
14329SOL    HW244885  11.966   8.356  11.360
14330SOL     OW44886  13.070  11.153   5.724
14330SOL    HW144887  12.988  11.158   5.772
14330SOL    HW244888  13.136  11.134   5.791
14331SOL     OW44889   9.263  10.926   0.964
14331SOL    HW144890   9.349  10.963   0.943
14331SOL    HW244891   9.238  10.879   0.885
14332SOL     OW44892   2.958   0.341   7.868
14332SOL    HW144893   2.919   0.410   7.814
14332SOL    HW244894   3.030   0.307   7.816
14333SOL     OW44895   7.349   5.455   8.067
14333SOL    HW144896   7.270   5.402   8.056
14333SOL    HW244897   7.343   5.489   8.156
14334SOL     OW44898   7.589   8.720   8.855
14334SOL    HW144899   7.646   8.655   8.896
14334SOL    HW244900   7.605   8.709   8.761
14335SOL     OW44901   2.338   7.322  10.273
14335SOL    HW144902   2.326   7.361  10.187
14335SOL    HW244903   2.428   7.290  10.273
14336SOL     OW44904   5.357   4.830  11.793
14336SOL    HW144905   5.366   4.924  11.776
14336SOL    HW244906   5.297   4.800  11.725
14337SOL     OW44907   0.626   6.986   5.040
14337SOL    HW144908   0.643   7.066   5.088
14337SOL    HW244909   0.684   6.990   4.964
14338SOL     OW44910   2.094   4.220   8.528
14338SOL    HW144911   2.026   4.283   8.554
14338SOL    HW244912   2.120   4.247   8.440
14339SOL     OW44913  10.023  10.854   9.844
14339SOL    HW144914  10.079  10.799   9.899
14339SOL    HW244915   9.975  10.792   9.788
14340SOL     OW44916   8.034   9.400   0.822
14340SOL    HW144917   7.971   9.438   0.761
14340SOL    HW244918   8.116   9.396   0.774
14341SOL     OW44919  14.685  10.430   3.995
14341SOL    HW144920  14.640  10.347   3.979
14341SOL    HW244921  14.775  10.404   4.016
14342SOL     OW44922  12.917  13.161   3.320
14342SOL    HW144923  12.828  13.164   3.357
14342SOL    HW244924  12.903  13.142   3.228
14343SOL     OW44925  12.598  10.583   4.597
14343SOL    HW144926  12.618  10.668   4.637
14343SOL    HW244927  12.667  10.524   4.629
14344SOL     OW44928   1.500   4.450   7.049
14344SOL    HW144929   1.571   4.386   7.047
14344SOL    HW244930   1.538   4.526   7.094
14345SOL     OW44931   0.602   5.626   1.776
14345SOL    HW144932   0.555   5.640   1.693
14345SOL    HW244933   0.695   5.634   1.752
14346SOL     OW44934   2.799  12.253  14.778
14346SOL    HW144935   2.737  12.317  14.744
14346SOL    HW244936   2.750  12.203  14.843
14347SOL     OW44937  12.994   7.263  14.804
14347SOL    HW144938  13.025   7.353  14.790
14347SOL    HW244939  13.047   7.210  14.744
14348SOL     OW44940  13.113  14.222   3.744
14348SOL    HW144941  13.069  14.138   3.751
14348SOL    HW244942  13.201  14.200   3.712
14349SOL     OW44943  13.682   1.190   4.482
14349SOL    HW144944  13.621   1.173   4.410
14349SOL    HW244945  13.767   1.161   4.449
14350SOL     OW44946   9.724   3.789   0.012
14350SOL    HW144947   9.779   3.850   0.060
14350SOL    HW244948   9.648   3.841  14.867
14351SOL     OW44949   0.086  14.535   6.904
14351SOL    HW144950   0.073  14.556   6.997
14351SOL    HW244951   0.181  14.520   6.897
14352SOL     OW44952   5.332   8.271   2.362
14352SOL    HW144953   5.275   8.331   2.313
14352SOL    HW244954   5.417   8.316   2.363
14353SOL     OW44955   1.238   8.184  12.119
14353SOL    HW144956   1.178   8.233  12.063
14353SOL    HW244957   1.182   8.124  12.169
14354SOL     OW44958  13.707  13.906   8.653
14354SOL    HW144959  13.677  13.903   8.743
14354SOL    HW244960  13.757  13.988   8.647
14355SOL     OW44961  12.447   6.761  12.858
14355SOL    HW144962  12.426   6.748  12.765
14355SOL    HW244963  12.525   6.708  12.873
14356SOL     OW44964   5.818   2.110   1.224
14356SOL    HW144965   5.876   2.124   1.149
14356SOL    HW244966   5.749   2.175   1.214
14357SOL     OW44967   0.812   8.593  12.628
14357SOL    HW144968   0.719   8.576  12.614
14357SOL    HW244969   0.854   8.507  12.618
14358SOL     OW44970   0.499   3.375   1.949
14358SOL    HW144971   0.431   3.355   1.885
14358SOL    HW244972   0.454   3.427   2.016
14359SOL     OW44973   2.024  14.588   3.061
14359SOL    HW144974   2.098  14.647   3.043
14359SOL    HW244975   2.054  14.535   3.135
14360SOL     OW44976  11.477  11.349   9.716
14360SOL    HW144977  11.535  11.424   9.730
14360SOL    HW244978  11.425  11.343   9.796
14361SOL     OW44979   0.374  12.634  13.359
14361SOL    HW144980   0.350  12.713  13.407
14361SOL    HW244981   0.291  12.594  13.334
14362SOL     OW44982  13.689   9.429   1.051
14362SOL    HW144983  13.606   9.450   1.093
14362SOL    HW244984  13.723   9.513   1.021
14363SOL     OW44985  11.029   9.437  11.298
14363SOL    HW144986  11.039   9.517  11.246
14363SOL    HW244987  10.974   9.464  11.372
14364SOL     OW44988   3.258  13.031   7.926
14364SOL    HW144989   3.196  13.070   7.987
14364SOL    HW244990   3.231  13.062   7.840
14365SOL     OW44991  10.083  14.163  12.527
14365SOL    HW144992  10.035  14.213  12.461
14365SOL    HW244993  10.059  14.072  12.511
14366SOL     OW44994  11.930   8.753   1.748
14366SOL    HW144995  12.024   8.767   1.739
14366SOL    HW244996  11.922   8.676   1.804
14367SOL     OW44997   4.881   0.514  13.720
14367SOL    HW144998   4.803   0.518  13.665
14367SOL    HW244999   4.854   0.553  13.803
14368SOL     OW45000   1.009   9.683   6.490
14368SOL    HW145001   1.086   9.733   6.462
14368SOL    HW245002   1.044   9.597   6.515
14369SOL     OW45003   6.966   0.480   8.049
14369SOL    HW145004   7.006   0.445   7.969
14369SOL    HW245005   6.922   0.560   8.020
14370SOL     OW45006  10.613  13.689   6.545
14370SOL    HW145007  10.556  13.764   6.560
14370SOL    HW245008  10.554  13.616   6.530
14371SOL     OW45009   8.224  13.794   3.485
14371SOL    HW145010   8.149  13.837   3.526
14371SOL    HW245011   8.292  13.861   3.482
14372SOL     OW45012   8.564   1.719   8.094
14372SOL    HW145013   8.594   1.664   8.166
14372SOL    HW245014   8.632   1.785   8.083
14373SOL     OW45015  11.681   0.703   4.821
14373SOL    HW145016  11.599   0.670   4.784
14373SOL    HW245017  11.703   0.640   4.889
14374SOL     OW45018   9.737   8.213   2.287
14374SOL    HW145019   9.809   8.262   2.247
14374SOL    HW245020   9.697   8.274   2.348
14375SOL     OW45021   8.239  10.629   4.698
14375SOL    HW145022   8.317  10.679   4.676
14375SOL    HW245023   8.166  10.686   4.673
14376SOL     OW45024  12.316   6.762   2.984
14376SOL    HW145025  12.221   6.776   2.976
14376SOL    HW245026  12.328   6.669   2.965
14377SOL     OW45027   8.768  14.125  13.100
14377SOL    HW145028   8.704  14.166  13.042
14377SOL    HW245029   8.805  14.198  13.150
14378SOL     OW45030   6.901   5.995  14.856
14378SOL    HW145031   6.973   6.014   0.037
14378SOL    HW245032   6.872   6.081  14.826
14379SOL     OW45033   4.371   3.295   2.186
14379SOL    HW145034   4.374   3.223   2.249
14379SOL    HW245035   4.301   3.271   2.126
14380SOL     OW45036   6.250   5.786  13.228
14380SOL    HW145037   6.267   5.707  13.279
14380SOL    HW245038   6.269   5.858  13.288
14381SOL     OW45039  10.339   5.262   1.487
14381SOL    HW145040  10.340   5.268   1.583
14381SOL    HW245041  10.374   5.346   1.458
14382SOL     OW45042   1.294   9.859  12.589
14382SOL    HW145043   1.201   9.872  12.574
14382SOL    HW245044   1.314   9.915  12.664
14383SOL     OW45045   4.227   1.051  11.543
14383SOL    HW145046   4.277   1.101  11.479
14383SOL    HW245047   4.176   0.989  11.491
14384SOL     OW45048   1.790   7.881  10.206
14384SOL    HW145049   1.823   7.824  10.275
14384SOL    HW245050   1.783   7.824  10.129
14385SOL     OW45051   0.688  12.549  10.241
14385SOL    HW145052   0.713  12.622  10.184
14385SOL    HW245053   0.664  12.590  10.324
14386SOL     OW45054   3.787   6.377   7.347
14386SOL    HW145055   3.832   6.318   7.407
14386SOL    HW245056   3.857   6.430   7.308
14387SOL     OW45057   4.912   0.572   2.890
14387SOL    HW145058   4.887   0.569   2.982
14387SOL    HW245059   4.947   0.485   2.871
14388SOL     OW45060  13.546   6.866   9.622
14388SOL    HW145061  13.569   6.919   9.699
14388SOL    HW245062  13.613   6.798   9.619
14389SOL     OW45063   3.108   8.239  13.746
14389SOL    HW145064   3.069   8.151  13.754
14389SOL    HW245065   3.182   8.238  13.807
14390SOL     OW45066   7.138   6.350  10.424
14390SOL    HW145067   7.186   6.267  10.434
14390SOL    HW245068   7.072   6.347  10.493
14391SOL     OW45069  13.385  11.102  11.312
14391SOL    HW145070  13.471  11.064  11.327
14391SOL    HW245071  13.371  11.161  11.387
14392SOL     OW45072   7.489   1.247   5.447
14392SOL    HW145073   7.482   1.204   5.362
14392SOL    HW245074   7.441   1.191   5.507
14393SOL     OW45075   7.850   8.506   9.391
14393SOL    HW145076   7.865   8.412   9.398
14393SOL    HW245077   7.936   8.542   9.366
14394SOL     OW45078   8.276   6.182   6.335
14394SOL    HW145079   8.371   6.173   6.338
14394SOL    HW245080   8.250   6.192   6.427
14395SOL     OW45081  12.012  13.650  13.648
14395SOL    HW145082  11.937  13.592  13.660
14395SOL    HW245083  11.974  13.738  13.649
14396SOL     OW45084  10.072   1.438  11.433
14396SOL    HW145085  10.152   1.388  11.420
14396SOL    HW245086  10.030   1.439  11.347
14397SOL     OW45087   9.472   7.405   7.920
14397SOL    HW145088   9.563   7.429   7.939
14397SOL    HW245089   9.478   7.325   7.869
14398SOL     OW45090   0.202   7.002   8.794
14398SOL    HW145091   0.245   6.961   8.869
14398SOL    HW245092   0.174   7.088   8.827
14399SOL     OW45093   3.969   7.972   6.845
14399SOL    HW145094   3.967   7.914   6.769
14399SOL    HW245095   3.910   7.930   6.908
14400SOL     OW45096  14.085   2.949   0.552
14400SOL    HW145097  14.040   2.910   0.627
14400SOL    HW245098  14.171   2.908   0.552
14401SOL     OW45099   2.567  14.791  14.223
14401SOL    HW145100   2.520  14.828  14.148
14401SOL    HW245101   2.500  14.777  14.289
14402SOL     OW45102  10.773   7.900   8.726
14402SOL    HW145103  10.848   7.861   8.770
14402SOL    HW245104  10.734   7.958   8.791
14403SOL     OW45105  12.067   2.233  13.360
14403SOL    HW145106  12.129   2.173  13.320
14403SOL    HW245107  11.982   2.209  13.323
14404SOL     OW45108   9.918   4.388  11.095
14404SOL    HW145109   9.949   4.398  11.185
14404SOL    HW245110   9.967   4.313  11.061
14405SOL     OW45111   3.739   9.286   5.699
14405SOL    HW145112   3.710   9.198   5.721
14405SOL    HW245113   3.780   9.277   5.613
14406SOL     OW45114   0.159   2.988  10.414
14406SOL    HW145115   0.242   2.951  10.384
14406SOL    HW245116   0.094   2.922  10.391
14407SOL     OW45117   6.495   3.200   1.865
14407SOL    HW145118   6.546   3.280   1.880
14407SOL    HW245119   6.559   3.137   1.830
14408SOL     OW45120  14.857  12.262   9.797
14408SOL    HW145121  14.859  12.353   9.766
14408SOL    HW245122  14.765  12.246   9.817
14409SOL     OW45123   1.220   1.151   6.486
14409SOL    HW145124   1.128   1.134   6.508
14409SOL    HW245125   1.221   1.157   6.390
14410SOL     OW45126  13.034  11.640   5.432
14410SOL    HW145127  12.982  11.720   5.437
14410SOL    HW245128  12.987  11.578   5.488
14411SOL     OW45129   0.051   0.891  13.059
14411SOL    HW145130  14.864   0.881  13.125
14411SOL    HW245131   0.050   0.984  13.037
14412SOL     OW45132   7.390   5.580   5.868
14412SOL    HW145133   7.411   5.491   5.841
14412SOL    HW245134   7.351   5.620   5.790
14413SOL     OW45135   7.689  10.021   3.785
14413SOL    HW145136   7.613  10.079   3.789
14413SOL    HW245137   7.699  10.001   3.692
14414SOL     OW45138  14.428   1.856   6.760
14414SOL    HW145139  14.338   1.850   6.792
14414SOL    HW245140  14.469   1.921   6.818
14415SOL     OW45141  14.315   0.974   3.695
14415SOL    HW145142  14.255   0.949   3.624
14415SOL    HW245143  14.275   1.051   3.734
14416SOL     OW45144   9.577   4.010   8.004
14416SOL    HW145145   9.640   3.940   8.023
14416SOL    HW245146   9.498   3.964   7.974
14417SOL     OW45147  14.105   8.118   6.227
14417SOL    HW145148  14.195   8.090   6.208
14417SOL    HW245149  14.105   8.212   6.214
14418SOL     OW45150   8.710  11.977   0.168
14418SOL    HW145151   8.634  11.964   0.225
14418SOL    HW245152   8.771  12.030   0.220
14419SOL     OW45153   6.791   1.716   6.448
14419SOL    HW145154   6.841   1.749   6.523
14419SOL    HW245155   6.702   1.706   6.483
14420SOL     OW45156   0.859  12.977   0.540
14420SOL    HW145157   0.811  12.946   0.617
14420SOL    HW245158   0.928  13.033   0.576
14421SOL     OW45159   9.880   9.439   4.128
14421SOL    HW145160   9.937   9.365   4.152
14421SOL    HW245161   9.939   9.514   4.126
14422SOL     OW45162   0.462  14.662   5.239
14422SOL    HW145163   0.526  14.731   5.254
14422SOL    HW245164   0.383  14.692   5.283
14423SOL     OW45165   2.594  14.658   8.518
14423SOL    HW145166   2.665  14.597   8.537
14423SOL    HW245167   2.637  14.739   8.493
14424SOL     OW45168  11.373   9.966   8.783
14424SOL    HW145169  11.286   9.948   8.748
14424SOL    HW245170  11.361  10.045   8.837
14425SOL     OW45171  13.835  13.281   3.141
14425SOL    HW145172  13.823  13.213   3.076
14425SOL    HW245173  13.749  13.294   3.179
14426SOL     OW45174  11.489   2.614   8.750
14426SOL    HW145175  11.524   2.701   8.732
14426SOL    HW245176  11.534   2.586   8.829
14427SOL     OW45177   7.946  11.646   9.376
14427SOL    HW145178   7.877  11.602   9.427
14427SOL    HW245179   7.923  11.738   9.378
14428SOL     OW45180   9.074  13.287   0.609
14428SOL    HW145181   8.979  13.288   0.600
14428SOL    HW245182   9.104  13.360   0.556
14429SOL     OW45183   1.152   7.970   6.813
14429SOL    HW145184   1.061   7.943   6.817
14429SOL    HW245185   1.184   7.961   6.903
14430SOL     OW45186  10.305   5.340   8.147
14430SOL    HW145187  10.210   5.342   8.134
14430SOL    HW245188  10.316   5.316   8.239
14431SOL     OW45189   9.632   3.262   4.161
14431SOL    HW145190   9.683   3.343   4.167
14431SOL    HW245191   9.557   3.276   4.219
14432SOL     OW45192   9.928  13.762   1.665
14432SOL    HW145193  10.013  13.738   1.702
14432SOL    HW245194   9.949  13.820   1.592
14433SOL     OW45195   0.656   0.355  14.641
14433SOL    HW145196   0.670   0.321  14.730
14433SOL    HW245197   0.615   0.283  14.594
14434SOL     OW45198  10.291   4.037   4.923
14434SOL    HW145199  10.260   4.071   5.007
14434SOL    HW245200  10.254   3.949   4.918
14435SOL     OW45201   2.954  14.221  11.767
14435SOL    HW145202   3.026  14.283  11.778
14435SOL    HW245203   2.939  14.186  11.855
14436SOL     OW45204   7.616   7.396   5.267
14436SOL    HW145205   7.696   7.353   5.236
14436SOL    HW245206   7.637   7.489   5.264
14437SOL     OW45207  13.463   0.973   9.326
14437SOL    HW145208  13.441   0.939   9.239
14437SOL    HW245209  13.401   1.044   9.340
14438SOL     OW45210  11.825   0.660  12.477
14438SOL    HW145211  11.790   0.600  12.411
14438SOL    HW245212  11.808   0.747  12.441
14439SOL     OW45213  10.780   1.076  14.224
14439SOL    HW145214  10.801   0.983  14.211
14439SOL    HW245215  10.706   1.092  14.166
14440SOL     OW45216   3.335   0.242  14.870
14440SOL    HW145217   3.298   0.255   0.077
14440SOL    HW245218   3.339   0.329  14.832
14441SOL     OW45219  11.609   7.549   7.118
14441SOL    HW145220  11.525   7.584   7.090
14441SOL    HW245221  11.674   7.600   7.070
14442SOL     OW45222  12.694   1.986  12.008
14442SOL    HW145223  12.735   2.005  12.092
14442SOL    HW245224  12.766   1.958  11.951
14443SOL     OW45225   9.569   7.732   0.167
14443SOL    HW145226   9.575   7.658   0.227
14443SOL    HW245227   9.481   7.767   0.181
14444SOL     OW45228  10.424   5.176   8.745
14444SOL    HW145229  10.357   5.150   8.808
14444SOL    HW245230  10.417   5.111   8.675
14445SOL     OW45231   5.392   7.426  11.160
14445SOL    HW145232   5.370   7.417  11.067
14445SOL    HW245233   5.469   7.370  11.172
14446SOL     OW45234   2.045   6.442  14.519
14446SOL    HW145235   2.107   6.419  14.588
14446SOL    HW245236   2.039   6.538  14.523
14447SOL     OW45237   8.081   1.250   4.753
14447SOL    HW145238   8.027   1.183   4.712
14447SOL    HW245239   8.166   1.207   4.765
14448SOL     OW45240   4.307   1.588   0.915
14448SOL    HW145241   4.271   1.558   0.832
14448SOL    HW245242   4.402   1.588   0.902
14449SOL     OW45243  11.572   2.595   3.553
14449SOL    HW145244  11.493   2.610   3.605
14449SOL    HW245245  11.575   2.500   3.542
14450SOL     OW45246   0.171   9.604   9.153
14450SOL    HW145247   0.091   9.644   9.187
14450SOL    HW245248   0.228   9.678   9.132
14451SOL     OW45249   3.027   7.983   8.958
14451SOL    HW145250   2.946   7.973   8.907
14451SOL    HW245251   3.041   8.078   8.961
14452SOL     OW45252  10.831   9.649   1.292
14452SOL    HW145253  10.860   9.612   1.208
14452SOL    HW245254  10.795   9.574   1.340
14453SOL     OW45255  10.967  10.928  13.349
14453SOL    HW145256  10.988  10.843  13.387
14453SOL    HW245257  10.872  10.929  13.344
14454SOL     OW45258  14.507  14.565   1.915
14454SOL    HW145259  14.486  14.475   1.941
14454SOL    HW245260  14.437  14.588   1.853
14455SOL     OW45261  14.362   8.631   9.883
14455SOL    HW145262  14.439   8.683   9.858
14455SOL    HW245263  14.289   8.693   9.881
14456SOL     OW45264   3.563   5.671   1.146
14456SOL    HW145265   3.530   5.707   1.229
14456SOL    HW245266   3.620   5.740   1.112
14457SOL     OW45267   7.741   2.844  10.187
14457SOL    HW145268   7.713   2.775  10.128
14457SOL    HW245269   7.819   2.810  10.230
14458SOL     OW45270   3.902   4.422   1.683
14458SOL    HW145271   3.969   4.404   1.748
14458SOL    HW245272   3.873   4.511   1.702
14459SOL     OW45273  11.732   3.018   1.885
14459SOL    HW145274  11.752   3.050   1.973
14459SOL    HW245275  11.680   2.939   1.900
14460SOL     OW45276  14.403  13.032  12.944
14460SOL    HW145277  14.452  13.114  12.945
14460SOL    HW245278  14.356  13.033  12.861
14461SOL     OW45279  13.219   5.352   9.582
14461SOL    HW145280  13.138   5.403   9.593
14461SOL    HW245281  13.238   5.357   9.489
14462SOL     OW45282  10.017   5.074   2.849
14462SOL    HW145283  10.024   4.982   2.874
14462SOL    HW245284  10.002   5.119   2.932
14463SOL     OW45285  13.056  10.872  13.626
14463SOL    HW145286  12.970  10.853  13.663
14463SOL    HW245287  13.038  10.903  13.538
14464SOL     OW45288   9.962  14.350  12.702
14464SOL    HW145289   9.993  14.275  12.653
14464SOL    HW245290   9.874  14.325  12.730
14465SOL     OW45291   0.499   3.177  11.585
14465SOL    HW145292   0.414   3.136  11.569
14465SOL    HW245293   0.562   3.105  11.579
14466SOL     OW45294   4.932   4.190   3.595
14466SOL    HW145295   4.879   4.265   3.619
14466SOL    HW245296   4.869   4.119   3.579
14467SOL     OW45297  13.179   6.400   4.822
14467SOL    HW145298  13.121   6.341   4.870
14467SOL    HW245299  13.203   6.351   4.743
14468SOL     OW45300   3.745   8.341   9.729
14468SOL    HW145301   3.687   8.384   9.792
14468SOL    HW245302   3.815   8.302   9.783
14469SOL     OW45303   8.280   5.197  11.236
14469SOL    HW145304   8.218   5.206  11.164
14469SOL    HW245305   8.320   5.111  11.222
14470SOL     OW45306   7.072   2.447  12.245
14470SOL    HW145307   7.009   2.446  12.172
14470SOL    HW245308   7.117   2.363  12.238
14471SOL     OW45309   9.614  14.496   8.266
14471SOL    HW145310   9.642  14.412   8.301
14471SOL    HW245311   9.633  14.490   8.172
14472SOL     OW45312   6.310  12.486   1.132
14472SOL    HW145313   6.222  12.448   1.123
14472SOL    HW245314   6.305  12.539   1.211
14473SOL     OW45315   3.820   7.129   2.536
14473SOL    HW145316   3.791   7.171   2.617
14473SOL    HW245317   3.740   7.115   2.486
14474SOL     OW45318   3.064   8.109   1.278
14474SOL    HW145319   3.011   8.105   1.199
14474SOL    HW245320   3.120   8.031   1.274
14475SOL     OW45321   6.688   9.345   8.859
14475SOL    HW145322   6.636   9.282   8.910
14475SOL    HW245323   6.658   9.333   8.769
14476SOL     OW45324   5.602   9.727  12.832
14476SOL    HW145325   5.581   9.701  12.922
14476SOL    HW245326   5.627   9.645  12.789
14477SOL     OW45327  12.836   7.251   5.196
14477SOL    HW145328  12.806   7.331   5.239
14477SOL    HW245329  12.764   7.225   5.139
14478SOL     OW45330  12.184  12.427  13.682
14478SOL    HW145331  12.241  12.491  13.640
14478SOL    HW245332  12.109  12.418  13.622
14479SOL     OW45333  12.740  13.432  13.984
14479SOL    HW145334  12.722  13.523  14.006
14479SOL    HW245335  12.654  13.391  13.976
14480SOL     OW45336   1.883   4.729   7.997
14480SOL    HW145337   1.847   4.667   8.059
14480SOL    HW245338   1.843   4.813   8.020
14481SOL     OW45339   0.716   2.199   8.774
14481SOL    HW145340   0.681   2.286   8.754
14481SOL    HW245341   0.735   2.160   8.689
14482SOL     OW45342   4.879   4.175   3.966
14482SOL    HW145343   4.864   4.267   3.948
14482SOL    HW245344   4.962   4.155   3.922
14483SOL     OW45345   7.212   7.026  11.885
14483SOL    HW145346   7.243   6.970  11.957
14483SOL    HW245347   7.270   7.102  11.888
14484SOL     OW45348   6.319  12.796   0.145
14484SOL    HW145349   6.365  12.857   0.088
14484SOL    HW245350   6.297  12.847   0.223
14485SOL     OW45351   8.493   8.925  14.659
14485SOL    HW145352   8.465   8.930  14.568
14485SOL    HW245353   8.556   8.852  14.661
14486SOL     OW45354   4.035  13.338  12.754
14486SOL    HW145355   4.125  13.360  12.780
14486SOL    HW245356   4.043  13.251  12.715
14487SOL     OW45357   7.364   1.696  13.589
14487SOL    HW145358   7.411   1.737  13.661
14487SOL    HW245359   7.329   1.770  13.538
14488SOL     OW45360   7.014   3.296  10.365
14488SOL    HW145361   7.037   3.339  10.282
14488SOL    HW245362   7.058   3.349  10.432
14489SOL     OW45363   4.867   3.613   9.979
14489SOL    HW145364   4.790   3.647   9.933
14489SOL    HW245365   4.911   3.691  10.013
14490SOL     OW45366   3.480  14.631   7.457
14490SOL    HW145367   3.559  14.592   7.495
14490SOL    HW245368   3.457  14.574   7.384
14491SOL     OW45369   4.428  14.670   0.201
14491SOL    HW145370   4.522  14.675   0.182
14491SOL    HW245371   4.416  14.583   0.241
14492SOL     OW45372   0.725  11.097   6.654
14492SOL    HW145373   0.702  11.004   6.646
14492SOL    HW245374   0.781  11.101   6.732
14493SOL     OW45375   6.057   1.815  14.076
14493SOL    HW145376   6.147   1.782  14.073
14493SOL    HW245377   6.067   1.910  14.079
14494SOL     OW45378   3.783   2.123  13.175
14494SOL    HW145379   3.723   2.103  13.246
14494SOL    HW245380   3.729   2.166  13.109
14495SOL     OW45381   8.117   4.456   3.744
14495SOL    HW145382   8.111   4.384   3.681
14495SOL    HW245383   8.045   4.441   3.805
14496SOL     OW45384  10.201   6.290   9.697
14496SOL    HW145385  10.152   6.372   9.692
14496SOL    HW245386  10.134   6.222   9.687
14497SOL     OW45387   3.556  10.691   1.903
14497SOL    HW145388   3.543  10.763   1.966
14497SOL    HW245389   3.470  10.675   1.866
14498SOL     OW45390   4.623   4.486   5.992
14498SOL    HW145391   4.614   4.539   6.071
14498SOL    HW245392   4.543   4.433   5.990
14499SOL     OW45393   6.510   3.490  12.425
14499SOL    HW145394   6.500   3.449  12.511
14499SOL    HW245395   6.421   3.516  12.400
14500SOL     OW45396   4.271   2.800  11.216
14500SOL    HW145397   4.278   2.708  11.193
14500SOL    HW245398   4.361   2.831  11.220
14501SOL     OW45399   8.918  10.095   3.504
14501SOL    HW145400   8.831  10.124   3.531
14501SOL    HW245401   8.971  10.175   3.503
14502SOL     OW45402   2.037  13.697   0.345
14502SOL    HW145403   1.947  13.708   0.315
14502SOL    HW245404   2.084  13.769   0.304
14503SOL     OW45405   0.283  14.223  11.734
14503SOL    HW145406   0.325  14.252  11.815
14503SOL    HW245407   0.354  14.186  11.681
14504SOL     OW45408  12.055   4.468   0.846
14504SOL    HW145409  11.965   4.474   0.815
14504SOL    HW245410  12.052   4.497   0.937
14505SOL     OW45411   1.764   4.033   5.312
14505SOL    HW145412   1.834   3.995   5.258
14505SOL    HW245413   1.808   4.099   5.365
14506SOL     OW45414   7.209  13.212   0.440
14506SOL    HW145415   7.134  13.244   0.489
14506SOL    HW245416   7.174  13.190   0.353
14507SOL     OW45417  11.507  13.222   7.851
14507SOL    HW145418  11.551  13.301   7.820
14507SOL    HW245419  11.576  13.155   7.852
14508SOL     OW45420   6.919   9.735   8.262
14508SOL    HW145421   6.966   9.767   8.185
14508SOL    HW245422   6.964   9.654   8.285
14509SOL     OW45423   2.936   6.587   0.736
14509SOL    HW145424   3.022   6.602   0.696
14509SOL    HW245425   2.913   6.497   0.713
14510SOL     OW45426  13.217   2.315   9.955
14510SOL    HW145427  13.218   2.241  10.016
14510SOL    HW245428  13.285   2.374   9.986
14511SOL     OW45429   3.741   0.292   3.276
14511SOL    HW145430   3.812   0.237   3.243
14511SOL    HW245431   3.785   0.361   3.325
14512SOL     OW45432   1.577   8.871   7.048
14512SOL    HW145433   1.597   8.963   7.031
14512SOL    HW245434   1.642   8.844   7.113
14513SOL     OW45435   3.442  13.385   3.484
14513SOL    HW145436   3.494  13.465   3.469
14513SOL    HW245437   3.448  13.337   3.401
14514SOL     OW45438   6.493  11.573  14.522
14514SOL    HW145439   6.478  11.602  14.432
14514SOL    HW245440   6.588  11.565  14.529
14515SOL     OW45441   3.794   3.773   7.469
14515SOL    HW145442   3.857   3.745   7.536
14515SOL    HW245443   3.813   3.866   7.456
14516SOL     OW45444  11.705   1.384   3.185
14516SOL    HW145445  11.629   1.442   3.182
14516SOL    HW245446  11.671   1.297   3.163
14517SOL     OW45447   8.524   2.016   1.039
14517SOL    HW145448   8.557   1.926   1.039
14517SOL    HW245449   8.429   2.007   1.038
14518SOL     OW45450   3.353   8.481  10.460
14518SOL    HW145451   3.362   8.408  10.522
14518SOL    HW245452   3.429   8.536  10.476
14519SOL     OW45453  12.567   9.171   0.380
14519SOL    HW145454  12.521   9.223   0.446
14519SOL    HW245455  12.510   9.171   0.304
14520SOL     OW45456   5.468   1.221   5.786
14520SOL    HW145457   5.452   1.128   5.771
14520SOL    HW245458   5.510   1.252   5.706
14521SOL     OW45459   5.391  13.524   4.130
14521SOL    HW145460   5.437  13.549   4.210
14521SOL    HW245461   5.398  13.429   4.127
14522SOL     OW45462  13.982   2.816  10.215
14522SOL    HW145463  13.971   2.910  10.231
14522SOL    HW245464  14.069   2.809  10.176
14523SOL     OW45465   3.496  11.945   2.627
14523SOL    HW145466   3.531  11.932   2.538
14523SOL    HW245467   3.571  11.977   2.677
14524SOL     OW45468   5.580   6.986   0.016
14524SOL    HW145469   5.604   7.043   0.089
14524SOL    HW245470   5.599   6.897   0.047
14525SOL     OW45471   0.995  14.852  13.778
14525SOL    HW145472   1.062  14.800  13.823
14525SOL    HW245473   1.044   0.039  13.731
14526SOL     OW45474   3.059   9.891   4.279
14526SOL    HW145475   3.010   9.963   4.318
14526SOL    HW245476   2.992   9.831   4.247
14527SOL     OW45477  13.819  10.759   9.402
14527SOL    HW145478  13.838  10.667   9.382
14527SOL    HW245479  13.724  10.763   9.409
14528SOL     OW45480  10.628   9.677   7.292
14528SOL    HW145481  10.574   9.728   7.232
14528SOL    HW245482  10.575   9.669   7.372
14529SOL     OW45483  10.120  13.360   9.023
14529SOL    HW145484  10.198  13.409   8.998
14529SOL    HW245485  10.061  13.369   8.948
14530SOL     OW45486   0.204  11.195   1.889
14530SOL    HW145487   0.170  11.214   1.801
14530SOL    HW245488   0.291  11.159   1.874
14531SOL     OW45489  12.295   0.338   4.831
14531SOL    HW145490  12.305   0.265   4.893
14531SOL    HW245491  12.215   0.317   4.783
14532SOL     OW45492   9.432   3.612   1.264
14532SOL    HW145493   9.391   3.574   1.343
14532SOL    HW245494   9.370   3.678   1.234
14533SOL     OW45495   2.129  14.528   0.890
14533SOL    HW145496   2.100  14.610   0.931
14533SOL    HW245497   2.049  14.489   0.855
14534SOL     OW45498   0.025   8.834  11.999
14534SOL    HW145499   0.045   8.793  12.083
14534SOL    HW245500   0.066   8.777  11.934
14535SOL     OW45501   0.781   0.720  14.818
14535SOL    HW145502   0.850   0.762  14.868
14535SOL    HW245503   0.741   0.658  14.879
14536SOL     OW45504   9.265  14.175   2.432
14536SOL    HW145505   9.251  14.246   2.369
14536SOL    HW245506   9.178  14.138   2.446
14537SOL     OW45507   4.075   1.579   3.101
14537SOL    HW145508   4.151   1.608   3.050
14537SOL    HW245509   4.006   1.567   3.036
14538SOL     OW45510  10.005   8.927   2.793
14538SOL    HW145511  10.065   8.935   2.719
14538SOL    HW245512   9.944   8.857   2.768
14539SOL     OW45513  10.948  12.799   1.078
14539SOL    HW145514  10.904  12.803   0.993
14539SOL    HW245515  10.932  12.885   1.117
14540SOL     OW45516  14.478   5.947   5.053
14540SOL    HW145517  14.397   5.962   5.102
14540SOL    HW245518  14.545   5.991   5.105
14541SOL     OW45519   2.077   1.567   4.313
14541SOL    HW145520   2.030   1.649   4.323
14541SOL    HW245521   2.088   1.555   4.219
14542SOL     OW45522  12.738  10.726   6.890
14542SOL    HW145523  12.799  10.693   6.956
14542SOL    HW245524  12.659  10.749   6.939
14543SOL     OW45525   0.633   9.196  11.293
14543SOL    HW145526   0.620   9.104  11.317
14543SOL    HW245527   0.668   9.236  11.372
14544SOL     OW45528  13.815  10.709  11.855
14544SOL    HW145529  13.826  10.675  11.944
14544SOL    HW245530  13.747  10.777  11.863
14545SOL     OW45531   9.616   6.686   7.759
14545SOL    HW145532   9.587   6.730   7.839
14545SOL    HW245533   9.547   6.701   7.696
14546SOL     OW45534   3.747   9.820   3.328
14546SOL    HW145535   3.715   9.730   3.336
14546SOL    HW245536   3.717   9.863   3.408
14547SOL     OW45537   6.461   8.764   4.436
14547SOL    HW145538   6.418   8.700   4.380
14547SOL    HW245539   6.395   8.789   4.501
14548SOL     OW45540   2.149   0.971   3.995
14548SOL    HW145541   2.242   0.947   3.992
14548SOL    HW245542   2.103   0.895   3.959
14549SOL     OW45543   1.515   4.488   4.539
14549SOL    HW145544   1.481   4.491   4.628
14549SOL    HW245545   1.550   4.399   4.530
14550SOL     OW45546   5.728   6.389   9.687
14550SOL    HW145547   5.692   6.345   9.610
14550SOL    HW245548   5.661   6.452   9.712
14551SOL     OW45549  10.698   8.419   0.713
14551SOL    HW145550  10.725   8.416   0.805
14551SOL    HW245551  10.767   8.469   0.669
14552SOL     OW45552  10.985   7.668  10.408
14552SOL    HW145553  10.966   7.708  10.323
14552SOL    HW245554  11.047   7.598  10.388
14553SOL     OW45555  14.381   3.905   4.964
14553SOL    HW145556  14.334   3.918   5.046
14553SOL    HW245557  14.347   3.972   4.905
14554SOL     OW45558  12.531   0.769   3.377
14554SOL    HW145559  12.518   0.853   3.421
14554SOL    HW245560  12.457   0.715   3.406
14555SOL     OW45561   0.873   5.999   7.865
14555SOL    HW145562   0.806   6.066   7.877
14555SOL    HW245563   0.951   6.035   7.908
14556SOL     OW45564   5.950   3.544   3.195
14556SOL    HW145565   5.961   3.637   3.218
14556SOL    HW245566   5.871   3.541   3.142
14557SOL     OW45567   0.045  13.569  11.946
14557SOL    HW145568  14.852  13.542  11.891
14557SOL    HW245569   0.074  13.488  11.989
14558SOL     OW45570   2.936  13.239  13.968
14558SOL    HW145571   3.011  13.298  13.959
14558SOL    HW245572   2.973  13.158  14.003
14559SOL     OW45573   3.410   7.592   4.736
14559SOL    HW145574   3.480   7.551   4.786
14559SOL    HW245575   3.365   7.519   4.693
14560SOL     OW45576  14.815   5.495   1.137
14560SOL    HW145577  14.760   5.560   1.181
14560SOL    HW245578  14.840   5.537   1.055
14561SOL     OW45579  12.025   9.257   5.133
14561SOL    HW145580  12.021   9.189   5.200
14561SOL    HW245581  12.117   9.283   5.130
14562SOL     OW45582   0.052   2.691   8.831
14562SOL    HW145583  14.876   2.625   8.791
14562SOL    HW245584   0.074   2.751   8.759
14563SOL     OW45585   1.697  14.193   2.625
14563SOL    HW145586   1.657  14.107   2.636
14563SOL    HW245587   1.665  14.245   2.698
14564SOL     OW45588   3.440   4.716   4.187
14564SOL    HW145589   3.449   4.622   4.206
14564SOL    HW245590   3.524   4.754   4.213
14565SOL     OW45591   4.673   5.608   2.919
14565SOL    HW145592   4.609   5.610   2.847
14565SOL    HW245593   4.688   5.699   2.940
14566SOL     OW45594   9.674  11.466   2.354
14566SOL    HW145595   9.720  11.546   2.380
14566SOL    HW245596   9.582  11.493   2.347
14567SOL     OW45597   7.069   5.429  14.111
14567SOL    HW145598   7.153   5.459  14.075
14567SOL    HW245599   7.058   5.341  14.076
14568SOL     OW45600   7.980   4.431  13.553
14568SOL    HW145601   8.038   4.482  13.497
14568SOL    HW245602   8.034   4.405  13.628
14569SOL     OW45603   0.576   1.854   8.502
14569SOL    HW145604   0.635   1.925   8.528
14569SOL    HW245605   0.614   1.775   8.542
14570SOL     OW45606   9.526   5.420   4.510
14570SOL    HW145607   9.589   5.447   4.576
14570SOL    HW245608   9.455   5.380   4.560
14571SOL     OW45609  14.740   6.908  14.588
14571SOL    HW145610  14.731   6.894  14.682
14571SOL    HW245611  14.770   6.823  14.554
14572SOL     OW45612   5.695   5.723   4.326
14572SOL    HW145613   5.630   5.760   4.386
14572SOL    HW245614   5.645   5.702   4.247
14573SOL     OW45615  11.339   2.077  10.004
14573SOL    HW145616  11.256   2.030   9.997
14573SOL    HW245617  11.313   2.165  10.034
14574SOL     OW45618   9.419   9.547  12.480
14574SOL    HW145619   9.382   9.556  12.393
14574SOL    HW245620   9.435   9.453  12.490
14575SOL     OW45621   0.802   8.769   4.308
14575SOL    HW145622   0.710   8.769   4.335
14575SOL    HW245623   0.806   8.834   4.238
14576SOL     OW45624   9.196  10.361  10.412
14576SOL    HW145625   9.249  10.395  10.339
14576SOL    HW245626   9.252  10.296  10.454
14577SOL     OW45627   5.283   4.572   8.155
14577SOL    HW145628   5.352   4.624   8.196
14577SOL    HW245629   5.221   4.636   8.121
14578SOL     OW45630   0.321   9.373   8.829
14578SOL    HW145631   0.356   9.315   8.897
14578SOL    HW245632   0.377   9.450   8.831
14579SOL     OW45633   4.790   7.901   7.248
14579SOL    HW145634   4.742   7.903   7.331
14579SOL    HW245635   4.729   7.938   7.184
14580SOL     OW45636   0.353   4.538   1.121
14580SOL    HW145637   0.370   4.532   1.027
14580SOL    HW245638   0.288   4.607   1.129
14581SOL     OW45639   7.047  13.753   5.806
14581SOL    HW145640   7.103  13.684   5.841
14581SOL    HW245641   7.009  13.795   5.883
14582SOL     OW45642   4.350   9.414   0.652
14582SOL    HW145643   4.338   9.505   0.624
14582SOL    HW245644   4.443   9.397   0.637
14583SOL     OW45645   3.618   5.194   3.667
14583SOL    HW145646   3.709   5.221   3.679
14583SOL    HW245647   3.622   5.127   3.599
14584SOL     OW45648   9.330  12.012   4.289
14584SOL    HW145649   9.253  11.963   4.320
14584SOL    HW245650   9.338  11.987   4.197
14585SOL     OW45651  14.223   9.953   8.433
14585SOL    HW145652  14.274  10.032   8.414
14585SOL    HW245653  14.192   9.966   8.523
14586SOL     OW45654   9.756   0.119   8.064
14586SOL    HW145655   9.723   0.134   7.975
14586SOL    HW245656   9.678   0.127   8.119
14587SOL     OW45657   5.441   0.070  13.849
14587SOL    HW145658   5.365   0.100  13.900
14587SOL    HW245659   5.441  14.856  13.860
14588SOL     OW45660  11.547  12.206   3.827
14588SOL    HW145661  11.472  12.150   3.851
14588SOL    HW245662  11.577  12.242   3.910
14589SOL     OW45663   5.274  11.544  12.322
14589SOL    HW145664   5.291  11.508  12.235
14589SOL    HW245665   5.186  11.580  12.316
14590SOL     OW45666   2.104  14.160   5.326
14590SOL    HW145667   2.084  14.253   5.318
14590SOL    HW245668   2.060  14.120   5.251
14591SOL     OW45669  10.897  11.740   5.268
14591SOL    HW145670  10.948  11.812   5.306
14591SOL    HW245671  10.818  11.737   5.322
14592SOL     OW45672   8.236   3.143   3.847
14592SOL    HW145673   8.182   3.063   3.845
14592SOL    HW245674   8.237   3.168   3.939
14593SOL     OW45675   9.526   7.143  10.068
14593SOL    HW145676   9.619   7.126  10.079
14593SOL    HW245677   9.494   7.068  10.017
14594SOL     OW45678  11.627  13.647   8.508
14594SOL    HW145679  11.572  13.584   8.554
14594SOL    HW245680  11.636  13.610   8.420
14595SOL     OW45681  13.841  10.794   3.958
14595SOL    HW145682  13.923  10.817   3.915
14595SOL    HW245683  13.774  10.803   3.890
14596SOL     OW45684  13.464  11.087   0.158
14596SOL    HW145685  13.449  10.997   0.128
14596SOL    HW245686  13.381  11.112   0.200
14597SOL     OW45687  11.129   3.895  12.831
14597SOL    HW145688  11.187   3.959  12.871
14597SOL    HW245689  11.180   3.859  12.758
14598SOL     OW45690   9.772   9.662   2.532
14598SOL    HW145691   9.692   9.632   2.489
14598SOL    HW245692   9.766   9.758   2.529
14599SOL     OW45693  11.481  14.404   8.968
14599SOL    HW145694  11.507  14.314   8.947
14599SOL    HW245695  11.385  14.402   8.965
14600SOL     OW45696   8.421  13.259  11.714
14600SOL    HW145697   8.507  13.298  11.728
14600SOL    HW245698   8.429  13.214  11.630
14601SOL     OW45699  12.563  14.657  11.853
14601SOL    HW145700  12.540  14.750  11.845
14601SOL    HW245701  12.566  14.625  11.763
14602SOL     OW45702   6.269   5.477   3.847
14602SOL    HW145703   6.262   5.530   3.768
14602SOL    HW245704   6.311   5.535   3.911
14603SOL     OW45705   8.840   2.484   0.744
14603SOL    HW145706   8.767   2.471   0.805
14603SOL    HW245707   8.884   2.563   0.776
14604SOL     OW45708  13.617   5.776   7.114
14604SOL    HW145709  13.708   5.746   7.111
14604SOL    HW245710  13.608   5.819   7.199
14605SOL     OW45711   7.861  13.755   5.546
14605SOL    HW145712   7.839  13.734   5.455
14605SOL    HW245713   7.941  13.706   5.563
14606SOL     OW45714  13.866  13.821   1.378
14606SOL    HW145715  13.845  13.874   1.455
14606SOL    HW245716  13.780  13.795   1.344
14607SOL     OW45717   2.926   9.436  14.388
14607SOL    HW145718   3.020   9.426  14.371
14607SOL    HW245719   2.920   9.448  14.482
14608SOL     OW45720   1.935   6.757  11.094
14608SOL    HW145721   1.919   6.675  11.047
14608SOL    HW245722   1.902   6.825  11.034
14609SOL     OW45723   9.566  11.429   3.923
14609SOL    HW145724   9.515  11.363   3.876
14609SOL    HW245725   9.654  11.422   3.885
14610SOL     OW45726   8.436   6.300  11.706
14610SOL    HW145727   8.347   6.327  11.683
14610SOL    HW245728   8.489   6.327  11.632
14611SOL     OW45729  12.919  12.380   1.038
14611SOL    HW145730  12.963  12.418   0.962
14611SOL    HW245731  12.934  12.286   1.030
14612SOL     OW45732   2.159   9.365   9.971
14612SOL    HW145733   2.160   9.311   9.892
14612SOL    HW245734   2.071   9.356  10.007
14613SOL     OW45735   1.010   7.465  11.040
14613SOL    HW145736   0.961   7.472  10.958
14613SOL    HW245737   0.944   7.440  11.105
14614SOL     OW45738  10.746  10.669   0.339
14614SOL    HW145739  10.785  10.615   0.270
14614SOL    HW245740  10.732  10.754   0.298
14615SOL     OW45741   8.586   1.567   0.430
14615SOL    HW145742   8.656   1.613   0.476
14615SOL    HW245743   8.625   1.537   0.348
14616SOL     OW45744   8.270  10.387  12.838
14616SOL    HW145745   8.233  10.430  12.760
14616SOL    HW245746   8.194  10.351  12.884
14617SOL     OW45747   9.737   2.669   8.697
14617SOL    HW145748   9.759   2.721   8.774
14617SOL    HW245749   9.804   2.692   8.632
14618SOL     OW45750  14.727  11.305   7.449
14618SOL    HW145751  14.692  11.324   7.361
14618SOL    HW245752  14.822  11.307   7.438
14619SOL     OW45753  12.010  12.059  10.999
14619SOL    HW145754  12.020  12.025  10.910
14619SOL    HW245755  11.916  12.069  11.011
14620SOL     OW45756   3.781   3.463   4.457
14620SOL    HW145757   3.842   3.404   4.502
14620SOL    HW245758   3.776   3.539   4.514
14621SOL     OW45759   8.698   0.983  12.039
14621SOL    HW145760   8.607   1.011  12.051
14621SOL    HW245761   8.750   1.057  12.071
14622SOL     OW45762   9.921  10.245   6.917
14622SOL    HW145763   9.899  10.281   7.003
14622SOL    HW245764   9.839  10.250   6.867
14623SOL     OW45765   9.360   2.659   2.195
14623SOL    HW145766   9.331   2.621   2.112
14623SOL    HW245767   9.282   2.657   2.251
14624SOL     OW45768  10.723  11.040  11.712
14624SOL    HW145769  10.804  11.088  11.700
14624SOL    HW245770  10.740  10.981  11.786
14625SOL     OW45771   4.094   3.859  13.029
14625SOL    HW145772   4.024   3.847  13.094
14625SOL    HW245773   4.079   3.948  12.995
14626SOL     OW45774   7.748   8.656  12.103
14626SOL    HW145775   7.654   8.650  12.121
14626SOL    HW245776   7.785   8.576  12.141
14627SOL     OW45777  12.882   7.050  10.067
14627SOL    HW145778  12.849   7.053  10.157
14627SOL    HW245779  12.841   6.973  10.029
14628SOL     OW45780   1.460   2.653  11.782
14628SOL    HW145781   1.529   2.660  11.716
14628SOL    HW245782   1.381   2.632  11.731
14629SOL     OW45783   4.463  11.375   8.346
14629SOL    HW145784   4.540  11.433   8.346
14629SOL    HW245785   4.481  11.311   8.415
14630SOL     OW45786   8.245   3.391   8.509
14630SOL    HW145787   8.325   3.399   8.458
14630SOL    HW245788   8.215   3.301   8.494
14631SOL     OW45789   9.784   8.608   0.674
14631SOL    HW145790   9.773   8.703   0.671
14631SOL    HW245791   9.852   8.593   0.739
14632SOL     OW45792   3.321  12.526   0.280
14632SOL    HW145793   3.350  12.484   0.361
14632SOL    HW245794   3.401  12.566   0.245
14633SOL     OW45795   9.709   0.581  11.944
14633SOL    HW145796   9.616   0.601  11.936
14633SOL    HW245797   9.721   0.554  12.035
14634SOL     OW45798  10.681  11.766   9.517
14634SOL    HW145799  10.602  11.791   9.564
14634SOL    HW245800  10.753  11.789   9.576
14635SOL     OW45801   3.104   4.451  14.533
14635SOL    HW145802   3.130   4.486  14.618
14635SOL    HW245803   3.008   4.456  14.534
14636SOL     OW45804   4.520  10.738   0.590
14636SOL    HW145805   4.579  10.753   0.663
14636SOL    HW245806   4.553  10.658   0.548
14637SOL     OW45807  14.307  14.528   9.273
14637SOL    HW145808  14.233  14.572   9.315
14637SOL    HW245809  14.281  14.437   9.266
14638SOL     OW45810  13.999  12.627   6.928
14638SOL    HW145811  14.025  12.538   6.949
14638SOL    HW245812  13.910  12.618   6.893
14639SOL     OW45813   0.363   3.907  12.889
14639SOL    HW145814   0.408   3.937  12.810
14639SOL    HW245815   0.275   3.883  12.859
14640SOL     OW45816   2.369  14.606  13.010
14640SOL    HW145817   2.326  14.682  12.970
14640SOL    HW245818   2.368  14.539  12.941
14641SOL     OW45819   9.020  12.748  12.992
14641SOL    HW145820   9.112  12.723  13.002
14641SOL    HW245821   8.988  12.758  13.082
14642SOL     OW45822   1.246   0.347   4.451
14642SOL    HW145823   1.288   0.433   4.457
14642SOL    HW245824   1.319   0.286   4.448
14643SOL     OW45825   1.076   3.030   7.784
14643SOL    HW145826   1.156   3.038   7.836
14643SOL    HW245827   1.026   2.962   7.827
14644SOL     OW45828   0.486   9.393   6.311
14644SOL    HW145829   0.413   9.406   6.250
14644SOL    HW245830   0.470   9.307   6.350
14645SOL     OW45831   2.085  10.501  13.089
14645SOL    HW145832   2.149  10.553  13.138
14645SOL    HW245833   2.057  10.433  13.149
14646SOL     OW45834  10.997  14.361   5.146
14646SOL    HW145835  11.059  14.412   5.198
14646SOL    HW245836  10.944  14.427   5.100
14647SOL     OW45837   8.443   4.959   1.809
14647SOL    HW145838   8.484   4.875   1.789
14647SOL    HW245839   8.514   5.012   1.846
14648SOL     OW45840   4.968  13.873   5.025
14648SOL    HW145841   4.925  13.856   5.109
14648SOL    HW245842   5.018  13.794   5.008
14649SOL     OW45843  11.139   6.953  14.807
14649SOL    HW145844  11.190   6.911  14.876
14649SOL    HW245845  11.048   6.937  14.831
14650SOL     OW45846   3.634   8.909   3.496
14650SOL    HW145847   3.723   8.941   3.512
14650SOL    HW245848   3.590   8.982   3.453
14651SOL     OW45849  10.294  12.278  11.784
14651SOL    HW145850  10.281  12.247  11.694
14651SOL    HW245851  10.337  12.363  11.774
14652SOL     OW45852   2.230  13.146   9.285
14652SOL    HW145853   2.181  13.182   9.212
14652SOL    HW245854   2.177  13.166   9.362
14653SOL     OW45855  11.746   6.715   6.366
14653SOL    HW145856  11.727   6.651   6.298
14653SOL    HW245857  11.806   6.670   6.426
14654SOL     OW45858   9.705   0.335   5.424
14654SOL    HW145859   9.775   0.284   5.382
14654SOL    HW245860   9.734   0.426   5.416
14655SOL     OW45861   7.295   8.446   3.728
14655SOL    HW145862   7.260   8.387   3.794
14655SOL    HW245863   7.390   8.435   3.734
14656SOL     OW45864   0.062  10.997   7.773
14656SOL    HW145865   0.110  11.000   7.690
14656SOL    HW245866   0.050  11.089   7.798
14657SOL     OW45867  10.542  12.485   0.028
14657SOL    HW145868  10.587  12.406  14.879
14657SOL    HW245869  10.452  12.455   0.045
14658SOL     OW45870  11.555   3.836   5.974
14658SOL    HW145871  11.579   3.906   5.914
14658SOL    HW245872  11.530   3.763   5.917
14659SOL     OW45873   9.657  13.158   1.208
14659SOL    HW145874   9.626  13.071   1.235
14659SOL    HW245875   9.677  13.203   1.291
14660SOL     OW45876   6.911   6.997   8.683
14660SOL    HW145877   6.953   7.054   8.747
14660SOL    HW245878   6.884   7.055   8.612
14661SOL     OW45879  14.314   3.995   7.702
14661SOL    HW145880  14.363   4.030   7.776
14661SOL    HW245881  14.358   4.031   7.625
14662SOL     OW45882   3.426  12.777  13.136
14662SOL    HW145883   3.397  12.782  13.045
14662SOL    HW245884   3.405  12.863  13.172
14663SOL     OW45885   5.482  13.649  14.105
14663SOL    HW145886   5.517  13.577  14.157
14663SOL    HW245887   5.524  13.639  14.020
14664SOL     OW45888   8.206   4.795   0.328
14664SOL    HW145889   8.161   4.713   0.348
14664SOL    HW245890   8.137   4.861   0.328
14665SOL     OW45891   8.712   0.760   3.045
14665SOL    HW145892   8.618   0.777   3.052
14665SOL    HW245893   8.733   0.774   2.953
14666SOL     OW45894   6.685   7.894   5.782
14666SOL    HW145895   6.645   7.809   5.763
14666SOL    HW245896   6.620   7.958   5.754
14667SOL     OW45897   3.017  10.949   4.644
14667SOL    HW145898   2.964  10.909   4.713
14667SOL    HW245899   2.957  10.960   4.571
14668SOL     OW45900   0.112  10.821   0.168
14668SOL    HW145901   0.103  10.790   0.078
14668SOL    HW245902   0.066  10.756   0.221
14669SOL     OW45903   4.530   3.561   6.932
14669SOL    HW145904   4.606   3.607   6.898
14669SOL    HW245905   4.499   3.616   7.005
14670SOL     OW45906  13.138   1.017  12.799
14670SOL    HW145907  13.148   1.092  12.858
14670SOL    HW245908  13.222   1.010  12.755
14671SOL     OW45909   0.828  14.383   6.308
14671SOL    HW145910   0.876  14.350   6.384
14671SOL    HW245911   0.839  14.315   6.241
14672SOL     OW45912  13.034   8.774   0.899
14672SOL    HW145913  13.053   8.689   0.939
14672SOL    HW245914  12.953   8.760   0.851
14673SOL     OW45915   0.668   1.788  14.114
14673SOL    HW145916   0.658   1.785  14.210
14673SOL    HW245917   0.604   1.853  14.085
14674SOL     OW45918   7.501   3.609  12.141
14674SOL    HW145919   7.542   3.536  12.093
14674SOL    HW245920   7.413   3.577  12.162
14675SOL     OW45921   3.488  11.673   0.231
14675SOL    HW145922   3.431  11.742   0.197
14675SOL    HW245923   3.556  11.719   0.279
14676SOL     OW45924  12.782   9.148  11.595
14676SOL    HW145925  12.807   9.236  11.566
14676SOL    HW245926  12.779   9.096  11.514
14677SOL     OW45927   2.208  14.722  12.198
14677SOL    HW145928   2.185  14.630  12.182
14677SOL    HW245929   2.142  14.772  12.151
14678SOL     OW45930   5.140   5.397  12.434
14678SOL    HW145931   5.106   5.352  12.512
14678SOL    HW245932   5.068   5.392  12.371
14679SOL     OW45933   0.827  13.738  10.014
14679SOL    HW145934   0.775  13.753  10.092
14679SOL    HW245935   0.885  13.815  10.008
14680SOL     OW45936   1.756   3.951   1.337
14680SOL    HW145937   1.782   3.876   1.283
14680SOL    HW245938   1.831   4.010   1.332
14681SOL     OW45939  13.871   4.925   4.517
14681SOL    HW145940  13.928   4.849   4.524
14681SOL    HW245941  13.897   4.967   4.435
14682SOL     OW45942   0.190   8.818   5.688
14682SOL    HW145943   0.198   8.912   5.676
14682SOL    HW245944   0.217   8.803   5.779
14683SOL     OW45945   5.358   1.266   0.461
14683SOL    HW145946   5.425   1.216   0.509
14683SOL    HW245947   5.284   1.269   0.520
14684SOL     OW45948  12.575   2.649  13.438
14684SOL    HW145949  12.656   2.615  13.476
14684SOL    HW245950  12.595   2.660  13.345
14685SOL     OW45951  11.351   1.037  13.797
14685SOL    HW145952  11.262   1.070  13.797
14685SOL    HW245953  11.343   0.945  13.770
14686SOL     OW45954  12.846  12.996   1.118
14686SOL    HW145955  12.870  12.941   1.043
14686SOL    HW245956  12.830  12.935   1.189
14687SOL     OW45957  10.125   2.772  11.372
14687SOL    HW145958  10.145   2.831  11.299
14687SOL    HW245959  10.173   2.808  11.446
14688SOL     OW45960   3.263   9.329   9.899
14688SOL    HW145961   3.293   9.310   9.988
14688SOL    HW245962   3.282   9.249   9.850
14689SOL     OW45963  10.656   5.530  10.518
14689SOL    HW145964  10.650   5.443  10.558
14689SOL    HW245965  10.705   5.582  10.582
14690SOL     OW45966   1.640   5.681   4.861
14690SOL    HW145967   1.696   5.747   4.901
14690SOL    HW245968   1.634   5.706   4.769
14691SOL     OW45969   4.970  13.911   5.961
14691SOL    HW145970   4.901  13.872   6.015
14691SOL    HW245971   5.051  13.881   6.002
14692SOL     OW45972  11.734   4.332   3.800
14692SOL    HW145973  11.803   4.363   3.859
14692SOL    HW245974  11.753   4.239   3.788
14693SOL     OW45975   7.817   1.374   1.114
14693SOL    HW145976   7.788   1.450   1.064
14693SOL    HW245977   7.854   1.315   1.048
14694SOL     OW45978  10.629   2.791   2.675
14694SOL    HW145979  10.548   2.801   2.625
14694SOL    HW245980  10.624   2.703   2.712
14695SOL     OW45981   8.790  10.363   9.089
14695SOL    HW145982   8.825  10.448   9.116
14695SOL    HW245983   8.863  10.302   9.103
14696SOL     OW45984   6.443   6.693  12.359
14696SOL    HW145985   6.371   6.639  12.328
14696SOL    HW245986   6.517   6.668  12.304
14697SOL     OW45987   0.559  14.209   5.004
14697SOL    HW145988   0.472  14.212   5.044
14697SOL    HW245989   0.558  14.129   4.952
14698SOL     OW45990  13.416   0.851   0.538
14698SOL    HW145991  13.396   0.805   0.620
14698SOL    HW245992  13.367   0.804   0.471
14699SOL     OW45993   9.135   0.928  11.493
14699SOL    HW145994   9.094   0.848  11.526
14699SOL    HW245995   9.191   0.899  11.422
14700SOL     OW45996   9.061   6.899   1.747
14700SOL    HW145997   9.140   6.846   1.746
14700SOL    HW245998   9.016   6.876   1.665
14701SOL     OW45999   7.894   1.736   1.161
14701SOL    HW146000   7.820   1.694   1.205
14701SOL    HW246001   7.858   1.767   1.078
14702SOL     OW46002  12.584   8.619   6.824
14702SOL    HW146003  12.586   8.704   6.869
14702SOL    HW246004  12.530   8.564   6.880
14703SOL     OW46005   3.419  13.410   6.905
14703SOL    HW146006   3.488  13.442   6.848
14703SOL    HW246007   3.463  13.355   6.970
14704SOL     OW46008   0.752   0.269   0.065
14704SOL    HW146009   0.824   0.210   0.044
14704SOL    HW246010   0.753   0.277   0.160
14705SOL     OW46011   7.896  14.451   2.796
14705SOL    HW146012   7.936  14.367   2.816
14705SOL    HW246013   7.922  14.508   2.868
14706SOL     OW46014   8.102   5.726  14.128
14706SOL    HW146015   8.169   5.660  14.110
14706SOL    HW246016   8.072   5.753  14.041
14707SOL     OW46017  12.748  11.760   4.958
14707SOL    HW146018  12.694  11.798   5.028
14707SOL    HW246019  12.684  11.728   4.894
14708SOL     OW46020   5.694  10.614   1.380
14708SOL    HW146021   5.664  10.691   1.427
14708SOL    HW246022   5.738  10.560   1.446
14709SOL     OW46023   5.481   0.376   9.184
14709SOL    HW146024   5.394   0.334   9.184
14709SOL    HW246025   5.471   0.449   9.123
14710SOL     OW46026   0.023   4.640  12.775
14710SOL    HW146027   0.069   4.724  12.774
14710SOL    HW246028  14.823   4.656  12.726
14711SOL     OW46029  14.815   8.969   4.483
14711SOL    HW146030   0.026   8.996   4.490
14711SOL    HW246031  14.799   8.960   4.389
14712SOL     OW46032   4.212  10.538   4.081
14712SOL    HW146033   4.240  10.568   4.167
14712SOL    HW246034   4.175  10.452   4.096
14713SOL     OW46035  10.368   7.456   4.388
14713SOL    HW146036  10.370   7.360   4.388
14713SOL    HW246037  10.329   7.479   4.472
14714SOL     OW46038   3.151  12.094   0.409
14714SOL    HW146039   3.106  12.177   0.423
14714SOL    HW246040   3.233  12.102   0.458
14715SOL     OW46041   8.366   4.512   9.527
14715SOL    HW146042   8.331   4.579   9.585
14715SOL    HW246043   8.419   4.456   9.584
14716SOL     OW46044   0.366   4.061  13.164
14716SOL    HW146045   0.443   4.039  13.112
14716SOL    HW246046   0.292   4.026  13.114
14717SOL     OW46047   9.521  14.613  14.762
14717SOL    HW146048   9.592  14.549  14.759
14717SOL    HW246049   9.452  14.575  14.706
14718SOL     OW46050  10.176   8.683   7.773
14718SOL    HW146051  10.086   8.701   7.802
14718SOL    HW246052  10.220   8.651   7.851
14719SOL     OW46053   7.490   8.039  14.861
14719SOL    HW146054   7.541   8.117   0.001
14719SOL    HW246055   7.403   8.072  14.839
14720SOL     OW46056   4.456  14.678   2.208
14720SOL    HW146057   4.396  14.742   2.245
14720SOL    HW246058   4.417  14.652   2.125
14721SOL     OW46059   0.205   9.213  12.155
14721SOL    HW146060   0.276   9.150  12.145
14721SOL    HW246061   0.138   9.185  12.093
14722SOL     OW46062   6.161  11.984   7.788
14722SOL    HW146063   6.210  11.924   7.845
14722SOL    HW246064   6.223  12.055   7.771
14723SOL     OW46065   7.397  11.982   3.348
14723SOL    HW146066   7.394  12.033   3.429
14723SOL    HW246067   7.327  11.917   3.358
14724SOL     OW46068   3.280   3.844  12.961
14724SOL    HW146069   3.197   3.800  12.979
14724SOL    HW246070   3.346   3.790  13.005
14725SOL     OW46071  14.525  12.871   2.292
14725SOL    HW146072  14.433  12.856   2.270
14725SOL    HW246073  14.540  12.963   2.271
14726SOL     OW46074   1.632   7.398  12.307
14726SOL    HW146075   1.695   7.384  12.378
14726SOL    HW246076   1.552   7.357  12.339
14727SOL     OW46077   3.186  14.128   1.066
14727SOL    HW146078   3.275  14.154   1.040
14727SOL    HW246079   3.184  14.033   1.054
14728SOL     OW46080  11.504   5.526   3.422
14728SOL    HW146081  11.550   5.509   3.505
14728SOL    HW246082  11.487   5.440   3.386
14729SOL     OW46083  10.776   6.477  14.540
14729SOL    HW146084  10.734   6.421  14.605
14729SOL    HW246085  10.866   6.445  14.536
14730SOL     OW46086   2.597  10.426  12.977
14730SOL    HW146087   2.614  10.342  12.934
14730SOL    HW246088   2.565  10.402  13.064
14731SOL     OW46089   4.902   1.020   7.497
14731SOL    HW146090   4.845   1.001   7.423
14731SOL    HW246091   4.848   1.073   7.556
14732SOL     OW46092   3.859   6.639  10.085
14732SOL    HW146093   3.863   6.559  10.138
14732SOL    HW246094   3.950   6.655  10.059
14733SOL     OW46095  14.732  12.380   4.328
14733SOL    HW146096  14.677  12.303   4.335
14733SOL    HW246097  14.672  12.451   4.304
14734SOL     OW46098   4.334   3.772   9.639
14734SOL    HW146099   4.265   3.720   9.680
14734SOL    HW246100   4.312   3.863   9.660
14735SOL     OW46101  11.401   7.826   1.320
14735SOL    HW146102  11.362   7.758   1.375
14735SOL    HW246103  11.395   7.906   1.373
14736SOL     OW46104  11.906  10.453  11.668
14736SOL    HW146105  11.891  10.471  11.575
14736SOL    HW246106  11.819  10.461  11.707
14737SOL     OW46107   5.839   6.904  10.294
14737SOL    HW146108   5.911   6.881  10.235
14737SOL    HW246109   5.783   6.963  10.243
14738SOL     OW46110   2.374  13.231  14.361
14738SOL    HW146111   2.366  13.229  14.456
14738SOL    HW246112   2.301  13.285  14.331
14739SOL     OW46113   4.351   4.133   2.964
14739SOL    HW146114   4.311   4.094   3.042
14739SOL    HW246115   4.279   4.141   2.902
14740SOL     OW46116   9.215   2.848   0.372
14740SOL    HW146117   9.286   2.890   0.324
14740SOL    HW246118   9.145   2.837   0.308
14741SOL     OW46119  10.126   7.463   4.159
14741SOL    HW146120  10.188   7.475   4.231
14741SOL    HW246121  10.044   7.502   4.191
14742SOL     OW46122  11.027   3.948  12.117
14742SOL    HW146123  10.937   3.982  12.110
14742SOL    HW246124  11.068   3.973  12.035
14743SOL     OW46125   1.421   8.346  10.423
14743SOL    HW146126   1.430   8.324  10.515
14743SOL    HW246127   1.334   8.315  10.399
14744SOL     OW46128  12.360   3.308   7.568
14744SOL    HW146129  12.327   3.385   7.614
14744SOL    HW246130  12.302   3.237   7.596
14745SOL     OW46131  13.327  11.678   3.342
14745SOL    HW146132  13.305  11.747   3.405
14745SOL    HW246133  13.361  11.725   3.266
14746SOL     OW46134  12.686  14.257   5.224
14746SOL    HW146135  12.671  14.163   5.237
14746SOL    HW246136  12.708  14.290   5.311
14747SOL     OW46137   2.984  12.684   8.238
14747SOL    HW146138   3.018  12.597   8.217
14747SOL    HW246139   2.896  12.668   8.272
14748SOL     OW46140   1.275   2.909   8.495
14748SOL    HW146141   1.194   2.928   8.542
14748SOL    HW246142   1.344   2.925   8.560
14749SOL     OW46143  11.542  13.020   0.359
14749SOL    HW146144  11.551  13.056   0.448
14749SOL    HW246145  11.502  12.935   0.371
14750SOL     OW46146   1.274   6.147   2.964
14750SOL    HW146147   1.212   6.198   3.018
14750SOL    HW246148   1.355   6.198   2.967
14751SOL     OW46149  14.777   4.331  10.567
14751SOL    HW146150  14.792   4.240  10.542
14751SOL    HW246151  14.800   4.335  10.660
14752SOL     OW46152   8.022  13.201   4.463
14752SOL    HW146153   8.014  13.144   4.387
14752SOL    HW246154   7.954  13.170   4.523
14753SOL     OW46155  12.812   9.557   1.047
14753SOL    HW146156  12.796   9.648   1.074
14753SOL    HW246157  12.840   9.564   0.956
14754SOL     OW46158   7.660  13.647   5.777
14754SOL    HW146159   7.733  13.684   5.826
14754SOL    HW246160   7.690  13.648   5.686
14755SOL     OW46161   8.652  10.593   5.517
14755SOL    HW146162   8.681  10.677   5.483
14755SOL    HW246163   8.715  10.530   5.483
14756SOL     OW46164   5.243   4.071   6.083
14756SOL    HW146165   5.275   4.125   6.156
14756SOL    HW246166   5.168   4.120   6.049
14757SOL     OW46167   6.275  10.034  11.733
14757SOL    HW146168   6.244  10.116  11.694
14757SOL    HW246169   6.226   9.965  11.688
14758SOL     OW46170  14.229   6.923  12.834
14758SOL    HW146171  14.228   6.863  12.908
14758SOL    HW246172  14.152   6.899  12.783
14759SOL     OW46173   0.633   4.477   0.993
14759SOL    HW146174   0.554   4.488   0.940
14759SOL    HW246175   0.610   4.514   1.078
14760SOL     OW46176  13.218  11.346   9.864
14760SOL    HW146177  13.143  11.373   9.811
14760SOL    HW246178  13.194  11.259   9.896
14761SOL     OW46179  13.667   4.971   3.364
14761SOL    HW146180  13.753   4.965   3.405
14761SOL    HW246181  13.621   4.893   3.393
14762SOL     OW46182   2.466  12.201  10.828
14762SOL    HW146183   2.473  12.259  10.752
14762SOL    HW246184   2.445  12.259  10.901
14763SOL     OW46185   1.081   0.508   6.323
14763SOL    HW146186   1.118   0.438   6.270
14763SOL    HW246187   1.151   0.532   6.383
14764SOL     OW46188   2.956  10.005   6.358
14764SOL    HW146189   2.988  10.058   6.284
14764SOL    HW246190   2.978   9.915   6.334
14765SOL     OW46191   5.766  10.627  11.527
14765SOL    HW146192   5.832  10.678  11.479
14765SOL    HW246193   5.695  10.689  11.543
14766SOL     OW46194  10.179   2.888   0.259
14766SOL    HW146195  10.187   2.875   0.165
14766SOL    HW246196  10.113   2.957   0.268
14767SOL     OW46197  10.990   0.516   0.562
14767SOL    HW146198  11.020   0.600   0.596
14767SOL    HW246199  11.019   0.515   0.471
14768SOL     OW46200   9.922   7.603   7.821
14768SOL    HW146201   9.990   7.646   7.873
14768SOL    HW246202   9.861   7.673   7.798
14769SOL     OW46203   1.463  14.009  12.780
14769SOL    HW146204   1.547  13.974  12.751
14769SOL    HW246205   1.463  13.997  12.875
14770SOL     OW46206  12.567  13.375   0.473
14770SOL    HW146207  12.495  13.313   0.469
14770SOL    HW246208  12.644  13.325   0.446
14771SOL     OW46209   5.131   9.529   6.489
14771SOL    HW146210   5.040   9.497   6.489
14771SOL    HW246211   5.160   9.517   6.579
14772SOL     OW46212   3.560   2.771   5.973
14772SOL    HW146213   3.621   2.836   6.007
14772SOL    HW246214   3.479   2.820   5.956
14773SOL     OW46215  10.426  11.895   6.123
14773SOL    HW146216  10.476  11.964   6.166
14773SOL    HW246217  10.490  11.852   6.066
14774SOL     OW46218   2.403  13.455   0.899
14774SOL    HW146219   2.492  13.427   0.921
14774SOL    HW246220   2.410  13.488   0.809
14775SOL     OW46221   8.547   7.533   1.142
14775SOL    HW146222   8.581   7.445   1.129
14775SOL    HW246223   8.621   7.584   1.174
14776SOL     OW46224   2.211  13.845   5.043
14776SOL    HW146225   2.303  13.829   5.066
14776SOL    HW246226   2.214  13.876   4.952
14777SOL     OW46227  11.866   6.947   0.679
14777SOL    HW146228  11.927   7.014   0.647
14777SOL    HW246229  11.780   6.976   0.648
14778SOL     OW46230   2.400   0.128   7.165
14778SOL    HW146231   2.488   0.150   7.135
14778SOL    HW246232   2.408   0.125   7.261
14779SOL     OW46233   2.337  14.803  14.357
14779SOL    HW146234   2.292   0.003  14.383
14779SOL    HW246235   2.285  14.769  14.284
14780SOL     OW46236   6.784  14.172  14.521
14780SOL    HW146237   6.872  14.147  14.549
14780SOL    HW246238   6.783  14.152  14.427
14781SOL     OW46239  11.333   5.508   5.752
14781SOL    HW146240  11.309   5.448   5.681
14781SOL    HW246241  11.324   5.455   5.832
14782SOL     OW46242   3.110  13.590  10.971
14782SOL    HW146243   3.122  13.662  11.034
14782SOL    HW246244   3.116  13.511  11.024
14783SOL     OW46245  13.182   5.743  13.104
14783SOL    HW146246  13.203   5.779  13.190
14783SOL    HW246247  13.241   5.669  13.094
14784SOL     OW46248  13.164   2.877   8.062
14784SOL    HW146249  13.187   2.792   8.025
14784SOL    HW246250  13.104   2.856   8.134
14785SOL     OW46251   0.882   9.118   4.814
14785SOL    HW146252   0.902   9.026   4.802
14785SOL    HW246253   0.787   9.124   4.801
14786SOL     OW46254  12.632   0.162   9.865
14786SOL    HW146255  12.554   0.209   9.836
14786SOL    HW246256  12.623   0.157   9.960
14787SOL     OW46257  10.938  11.973   9.996
14787SOL    HW146258  10.952  11.957  10.089
14787SOL    HW246259  11.024  12.000   9.963
14788SOL     OW46260   0.700   3.510  10.162
14788SOL    HW146261   0.778   3.472  10.202
14788SOL    HW246262   0.656   3.437  10.119
14789SOL     OW46263  10.015   4.098   1.440
14789SOL    HW146264  10.109   4.104   1.453
14789SOL    HW246265   9.988   4.186   1.418
14790SOL     OW46266   5.449   7.581  11.390
14790SOL    HW146267   5.475   7.671  11.374
14790SOL    HW246268   5.413   7.551  11.306
14791SOL     OW46269   9.957   1.552   8.425
14791SOL    HW146270   9.963   1.463   8.391
14791SOL    HW246271   9.943   1.540   8.519
14792SOL     OW46272   7.885  10.638  12.347
14792SOL    HW146273   7.928  10.656  12.263
14792SOL    HW246274   7.936  10.566  12.385
14793SOL     OW46275   1.435   5.890   9.062
14793SOL    HW146276   1.364   5.949   9.037
14793SOL    HW246277   1.464   5.922   9.148
14794SOL     OW46278   4.836   0.614   4.760
14794SOL    HW146279   4.752   0.569   4.758
14794SOL    HW246280   4.825   0.688   4.701
14795SOL     OW46281   4.150  12.301   5.371
14795SOL    HW146282   4.099  12.226   5.401
14795SOL    HW246283   4.093  12.344   5.307
14796SOL     OW46284  14.338   7.819  12.976
14796SOL    HW146285  14.290   7.784  13.050
14796SOL    HW246286  14.306   7.769  12.901
14797SOL     OW46287  12.682   0.848   3.054
14797SOL    HW146288  12.609   0.810   3.007
14797SOL    HW246289  12.728   0.901   2.989
14798SOL     OW46290   8.412   7.503  14.154
14798SOL    HW146291   8.353   7.577  14.139
14798SOL    HW246292   8.500   7.541  14.148
14799SOL     OW46293   0.736   3.171   9.702
14799SOL    HW146294   0.730   3.243   9.638
14799SOL    HW246295   0.706   3.094   9.654
14800SOL     OW46296  11.848   4.874   6.533
14800SOL    HW146297  11.800   4.800   6.495
14800SOL    HW246298  11.801   4.894   6.613
14801SOL     OW46299   1.548  11.214  11.293
14801SOL    HW146300   1.565  11.141  11.234
14801SOL    HW246301   1.483  11.180  11.355
14802SOL     OW46302   6.794   5.685   2.678
14802SOL    HW146303   6.749   5.615   2.631
14802SOL    HW246304   6.725   5.729   2.727
14803SOL     OW46305   1.887   3.855   5.850
14803SOL    HW146306   1.890   3.821   5.939
14803SOL    HW246307   1.814   3.810   5.809
14804SOL     OW46308  14.289   8.780  14.617
14804SOL    HW146309  14.380   8.794  14.591
14804SOL    HW246310  14.256   8.715  14.555
14805SOL     OW46311   6.815   2.647  13.314
14805SOL    HW146312   6.790   2.661  13.222
14805SOL    HW246313   6.872   2.721  13.335
14806SOL     OW46314   5.158  12.479   7.884
14806SOL    HW146315   5.113  12.490   7.968
14806SOL    HW246316   5.088  12.484   7.819
14807SOL     OW46317  10.164   4.027   8.020
14807SOL    HW146318  10.144   4.014   8.113
14807SOL    HW246319  10.097   4.088   7.989
14808SOL     OW46320  12.088  12.706   6.008
14808SOL    HW146321  12.030  12.658   6.068
14808SOL    HW246322  12.114  12.641   5.943
14809SOL     OW46323  10.762   1.442   3.571
14809SOL    HW146324  10.828   1.443   3.501
14809SOL    HW246325  10.713   1.361   3.556
14810SOL     OW46326   6.448   5.577  13.662
14810SOL    HW146327   6.408   5.490  13.663
14810SOL    HW246328   6.526   5.568  13.717
14811SOL     OW46329   6.392   3.703   1.515
14811SOL    HW146330   6.379   3.758   1.592
14811SOL    HW246331   6.466   3.742   1.469
14812SOL     OW46332   8.033  11.131   6.491
14812SOL    HW146333   8.100  11.108   6.426
14812SOL    HW246334   8.054  11.076   6.567
14813SOL     OW46335  13.292   8.804  14.076
14813SOL    HW146336  13.280   8.723  14.124
14813SOL    HW246337  13.220   8.806  14.013
14814SOL     OW46338   1.053  12.504  11.307
14814SOL    HW146339   1.106  12.429  11.282
14814SOL    HW246340   0.992  12.515  11.234
14815SOL     OW46341  14.836   7.706   0.825
14815SOL    HW146342  14.821   7.614   0.844
14815SOL    HW246343   0.004   7.739   0.901
14816SOL     OW46344   5.399  14.062   7.980
14816SOL    HW146345   5.404  14.017   8.064
14816SOL    HW246346   5.420  14.153   8.001
14817SOL     OW46347   2.946  14.620  10.825
14817SOL    HW146348   2.898  14.667  10.756
14817SOL    HW246349   2.979  14.542  10.782
14818SOL     OW46350   3.384   6.868  10.162
14818SOL    HW146351   3.423   6.917  10.234
14818SOL    HW246352   3.449   6.873  10.092
14819SOL     OW46353  14.602   1.031  12.730
14819SOL    HW146354  14.520   1.024  12.682
14819SOL    HW246355  14.641   1.114  12.701
14820SOL     OW46356  13.691   1.222   3.538
14820SOL    HW146357  13.684   1.265   3.623
14820SOL    HW246358  13.777   1.247   3.505
14821SOL     OW46359   6.989  12.281   6.684
14821SOL    HW146360   6.963  12.281   6.591
14821SOL    HW246361   6.939  12.209   6.723
14822SOL     OW46362  10.283   3.305   6.061
14822SOL    HW146363  10.286   3.220   6.017
14822SOL    HW246364  10.191   3.316   6.086
14823SOL     OW46365   7.369   1.296  14.694
14823SOL    HW146366   7.374   1.206  14.661
14823SOL    HW246367   7.361   1.287  14.788
14824SOL     OW46368  12.078   0.068   6.289
14824SOL    HW146369  12.000   0.032   6.247
14824SOL    HW246370  12.045   0.130   6.354
14825SOL     OW46371   5.097   5.949   4.287
14825SOL    HW146372   5.146   6.030   4.276
14825SOL    HW246373   5.005   5.976   4.289
14826SOL     OW46374   8.688  10.284  10.023
14826SOL    HW146375   8.615  10.340   9.995
14826SOL    HW246376   8.649  10.197  10.031
14827SOL     OW46377  13.707   8.829   7.893
14827SOL    HW146378  13.756   8.787   7.823
14827SOL    HW246379  13.706   8.764   7.964
14828SOL     OW46380   6.624   3.412   4.003
14828SOL    HW146381   6.676   3.488   3.977
14828SOL    HW246382   6.623   3.416   4.099
14829SOL     OW46383  12.175  10.517   5.797
14829SOL    HW146384  12.136  10.584   5.854
14829SOL    HW246385  12.207  10.567   5.721
14830SOL     OW46386   2.465  10.728   3.613
14830SOL    HW146387   2.447  10.789   3.541
14830SOL    HW246388   2.558  10.707   3.603
14831SOL     OW46389  13.850   4.798   2.405
14831SOL    HW146390  13.783   4.863   2.425
14831SOL    HW246391  13.893   4.781   2.488
14832SOL     OW46392  14.621   2.625   7.304
14832SOL    HW146393  14.648   2.658   7.389
14832SOL    HW246394  14.574   2.544   7.323
14833SOL     OW46395   7.241   6.870   8.465
14833SOL    HW146396   7.238   6.956   8.508
14833SOL    HW246397   7.316   6.826   8.506
14834SOL     OW46398   8.228  10.664  12.140
14834SOL    HW146399   8.211  10.723  12.066
14834SOL    HW246400   8.201  10.714  12.217
14835SOL     OW46401   6.302   7.565   0.924
14835SOL    HW146402   6.297   7.568   1.019
14835SOL    HW246403   6.298   7.472   0.902
14836SOL     OW46404   5.009  11.782   4.448
14836SOL    HW146405   4.983  11.818   4.363
14836SOL    HW246406   5.019  11.858   4.505
14837SOL     OW46407   7.143   5.407   9.828
14837SOL    HW146408   7.159   5.442   9.915
14837SOL    HW246409   7.077   5.465   9.790
14838SOL     OW46410   3.875  11.200   3.820
14838SOL    HW146411   3.871  11.133   3.888
14838SOL    HW246412   3.802  11.179   3.762
14839SOL     OW46413   8.498   7.868   0.745
14839SOL    HW146414   8.565   7.892   0.681
14839SOL    HW246415   8.516   7.923   0.821
14840SOL     OW46416   0.297   7.753   2.004
14840SOL    HW146417   0.269   7.665   2.029
14840SOL    HW246418   0.300   7.802   2.087
14841SOL     OW46419  13.291  14.253  10.905
14841SOL    HW146420  13.304  14.285  10.816
14841SOL    HW246421  13.232  14.316  10.946
14842SOL     OW46422  14.763   0.484   5.356
14842SOL    HW146423  14.686   0.525   5.315
14842SOL    HW246424  14.810   0.443   5.284
14843SOL     OW46425   7.733   9.086   2.217
14843SOL    HW146426   7.716   9.086   2.311
14843SOL    HW246427   7.654   9.124   2.178
14844SOL     OW46428   2.426  10.877   3.866
14844SOL    HW146429   2.407  10.804   3.807
14844SOL    HW246430   2.420  10.955   3.810
14845SOL     OW46431   2.572   9.641   9.829
14845SOL    HW146432   2.493   9.606   9.789
14845SOL    HW246433   2.556   9.634   9.924
14846SOL     OW46434  11.162   2.947   2.874
14846SOL    HW146435  11.094   2.916   2.934
14846SOL    HW246436  11.114   2.984   2.800
14847SOL     OW46437   3.204   3.224  10.263
14847SOL    HW146438   3.292   3.244  10.294
14847SOL    HW246439   3.217   3.160  10.193
14848SOL     OW46440  10.130   7.938   7.330
14848SOL    HW146441  10.046   7.893   7.327
14848SOL    HW246442  10.124   7.997   7.405
14849SOL     OW46443   6.849   9.060   9.440
14849SOL    HW146444   6.885   9.053   9.529
14849SOL    HW246445   6.897   9.132   9.400
14850SOL     OW46446   4.830  13.895  13.584
14850SOL    HW146447   4.872  13.823  13.538
14850SOL    HW246448   4.736  13.877  13.576
14851SOL     OW46449   8.379   5.706   1.083
14851SOL    HW146450   8.400   5.794   1.115
14851SOL    HW246451   8.375   5.652   1.162
14852SOL     OW46452  14.542  11.686   6.707
14852SOL    HW146453  14.533  11.626   6.632
14852SOL    HW246454  14.544  11.773   6.667
14853SOL     OW46455   5.632   2.090   1.661
14853SOL    HW146456   5.603   2.142   1.587
14853SOL    HW246457   5.727   2.106   1.666
14854SOL     OW46458   3.105   8.456  10.714
14854SOL    HW146459   3.050   8.455  10.636
14854SOL    HW246460   3.109   8.365  10.743
14855SOL     OW46461   7.641  13.124   3.223
14855SOL    HW146462   7.571  13.073   3.181
14855SOL    HW246463   7.718  13.108   3.168
14856SOL     OW46464  10.382   6.035  13.844
14856SOL    HW146465  10.343   6.084  13.917
14856SOL    HW246466  10.452   5.984  13.884
14857SOL     OW46467   9.369   9.802   8.343
14857SOL    HW146468   9.278   9.815   8.371
14857SOL    HW246469   9.408   9.889   8.349
14858SOL     OW46470   4.844  12.698  11.066
14858SOL    HW146471   4.936  12.672  11.055
14858SOL    HW246472   4.822  12.745  10.986
14859SOL     OW46473   6.584   4.193   9.361
14859SOL    HW146474   6.526   4.242   9.302
14859SOL    HW246475   6.649   4.153   9.302
14860SOL     OW46476   9.046   7.365   8.798
14860SOL    HW146477   8.973   7.306   8.814
14860SOL    HW246478   9.123   7.314   8.823
14861SOL     OW46479   9.819   2.823   2.318
14861SOL    HW146480   9.787   2.839   2.407
14861SOL    HW246481   9.777   2.742   2.291
14862SOL     OW46482   3.559  14.624   3.619
14862SOL    HW146483   3.495  14.566   3.579
14862SOL    HW246484   3.605  14.663   3.545
14863SOL     OW46485  14.307   2.473   4.686
14863SOL    HW146486  14.386   2.501   4.640
14863SOL    HW246487  14.317   2.509   4.774
14864SOL     OW46488  14.503   0.148   8.407
14864SOL    HW146489  14.569   0.155   8.476
14864SOL    HW246490  14.427   0.194   8.443
14865SOL     OW46491  10.726   7.328   6.756
14865SOL    HW146492  10.714   7.350   6.663
14865SOL    HW246493  10.640   7.344   6.795
14866SOL     OW46494  13.890  14.771  11.628
14866SOL    HW146495  13.839  14.787  11.707
14866SOL    HW246496  13.826  14.742  11.563
14867SOL     OW46497  14.300   1.142   4.641
14867SOL    HW146498  14.306   1.104   4.554
14867SOL    HW246499  14.380   1.114   4.685
14868SOL     OW46500   9.629   8.797   8.783
14868SOL    HW146501   9.704   8.804   8.724
14868SOL    HW246502   9.664   8.819   8.869
14869SOL     OW46503   9.753  11.490   1.954
14869SOL    HW146504   9.743  11.509   1.861
14869SOL    HW246505   9.671  11.522   1.993
14870SOL     OW46506   2.234   8.732  11.539
14870SOL    HW146507   2.258   8.660  11.597
14870SOL    HW246508   2.172   8.784  11.590
14871SOL     OW46509  10.989   2.254   4.174
14871SOL    HW146510  10.913   2.220   4.127
14871SOL    HW246511  10.965   2.249   4.266
14872SOL     OW46512  13.319  10.070   8.670
14872SOL    HW146513  13.331  10.137   8.604
14872SOL    HW246514  13.378  10.000   8.645
14873SOL     OW46515  10.240   1.514  11.856
14873SOL    HW146516  10.274   1.546  11.773
14873SOL    HW246517  10.154   1.477  11.834
14874SOL     OW46518   9.318  10.078  11.595
14874SOL    HW146519   9.373  10.047  11.524
14874SOL    HW246520   9.234  10.098  11.554
14875SOL     OW46521   6.693  14.043   0.285
14875SOL    HW146522   6.670  14.130   0.318
14875SOL    HW246523   6.788  14.044   0.277
14876SOL     OW46524   0.055   7.895  10.227
14876SOL    HW146525   0.118   7.884  10.155
14876SOL    HW246526   0.109   7.917  10.303
14877SOL     OW46527   6.607  13.943  11.764
14877SOL    HW146528   6.647  13.894  11.836
14877SOL    HW246529   6.676  14.001  11.734
14878SOL     OW46530  14.600   2.930   2.014
14878SOL    HW146531  14.540   2.889   2.076
14878SOL    HW246532  14.634   3.006   2.061
14879SOL     OW46533   0.242  13.311   6.987
14879SOL    HW146534   0.159  13.266   6.967
14879SOL    HW246535   0.293  13.246   7.034
14880SOL     OW46536  13.424   7.854   2.596
14880SOL    HW146537  13.424   7.769   2.553
14880SOL    HW246538  13.332   7.879   2.599
14881SOL     OW46539  14.477   3.630   5.943
14881SOL    HW146540  14.555   3.643   5.998
14881SOL    HW246541  14.500   3.671   5.860
14882SOL     OW46542  14.233   9.921  13.997
14882SOL    HW146543  14.200   9.886  13.915
14882SOL    HW246544  14.200   9.861  14.064
14883SOL     OW46545  14.017  11.024   8.673
14883SOL    HW146546  13.942  10.986   8.627
14883SOL    HW246547  13.977  11.080   8.740
14884SOL     OW46548  13.169   2.995  14.652
14884SOL    HW146549  13.130   2.915  14.616
14884SOL    HW246550  13.112   3.065  14.622
14885SOL     OW46551   9.325   7.579   2.748
14885SOL    HW146552   9.357   7.509   2.692
14885SOL    HW246553   9.331   7.544   2.837
14886SOL     OW46554   3.662   4.564   6.178
14886SOL    HW146555   3.705   4.480   6.158
14886SOL    HW246556   3.734   4.624   6.194
14887SOL     OW46557   1.875   4.181  11.762
14887SOL    HW146558   1.908   4.247  11.702
14887SOL    HW246559   1.780   4.195  11.765
14888SOL     OW46560   1.706  11.448   3.117
14888SOL    HW146561   1.731  11.510   3.048
14888SOL    HW246562   1.673  11.372   3.069
14889SOL     OW46563   2.354   4.430   8.501
14889SOL    HW146564   2.284   4.388   8.551
14889SOL    HW246565   2.368   4.513   8.545
14890SOL     OW46566   8.987  13.503   6.117
14890SOL    HW146567   9.048  13.433   6.138
14890SOL    HW246568   8.949  13.529   6.201
14891SOL     OW46569   1.466   1.271   8.603
14891SOL    HW146570   1.445   1.241   8.514
14891SOL    HW246571   1.562   1.278   8.603
14892SOL     OW46572   5.748  10.562  14.842
14892SOL    HW146573   5.732  10.563   0.056
14892SOL    HW246574   5.678  10.506  14.807
14893SOL     OW46575   9.998   0.826  12.241
14893SOL    HW146576   9.911   0.861  12.222
14893SOL    HW246577   9.983   0.733  12.261
14894SOL     OW46578  13.684  13.282   9.665
14894SOL    HW146579  13.632  13.203   9.679
14894SOL    HW246580  13.620  13.349   9.642
14895SOL     OW46581  14.525   6.797   2.812
14895SOL    HW146582  14.474   6.876   2.832
14895SOL    HW246583  14.537   6.754   2.896
14896SOL     OW46584   1.111   1.750   3.590
14896SOL    HW146585   1.053   1.813   3.632
14896SOL    HW246586   1.199   1.787   3.602
14897SOL     OW46587   9.184   6.098   3.204
14897SOL    HW146588   9.173   6.189   3.177
14897SOL    HW246589   9.276   6.079   3.187
14898SOL     OW46590  12.469   3.248   0.003
14898SOL    HW146591  12.556   3.215   0.024
14898SOL    HW246592  12.449   3.308   0.075
14899SOL     OW46593   2.547  14.619   1.797
14899SOL    HW146594   2.564  14.705   1.760
14899SOL    HW246595   2.524  14.636   1.888
14900SOL     OW46596   4.798   0.296   2.206
14900SOL    HW146597   4.759   0.383   2.196
14900SOL    HW246598   4.750   0.257   2.279
14901SOL     OW46599   2.495   3.250  11.831
14901SOL    HW146600   2.528   3.162  11.850
14901SOL    HW246601   2.416   3.258  11.884
14902SOL     OW46602   7.976  10.924  12.702
14902SOL    HW146603   7.956  11.012  12.736
14902SOL    HW246604   7.914  10.912  12.630
14903SOL     OW46605   8.820   5.811  10.528
14903SOL    HW146606   8.826   5.863  10.609
14903SOL    HW246607   8.799   5.723  10.559
14904SOL     OW46608   0.095   5.816  10.173
14904SOL    HW146609   0.057   5.863  10.247
14904SOL    HW246610   0.106   5.727  10.204
14905SOL     OW46611   7.878   4.732  13.365
14905SOL    HW146612   7.918   4.808  13.322
14905SOL    HW246613   7.937   4.660  13.345
14906SOL     OW46614  13.462  11.765   8.876
14906SOL    HW146615  13.454  11.721   8.791
14906SOL    HW246616  13.472  11.857   8.854
14907SOL     OW46617   4.067   8.129   0.327
14907SOL    HW146618   4.068   8.104   0.419
14907SOL    HW246619   4.156   8.111   0.296
14908SOL     OW46620  13.362   3.230  13.234
14908SOL    HW146621  13.449   3.193  13.252
14908SOL    HW246622  13.374   3.325  13.242
14909SOL     OW46623   0.049  11.782   4.744
14909SOL    HW146624  14.850  11.815   4.704
14909SOL    HW246625   0.075  11.708   4.689
14910SOL     OW46626  13.732  10.030  14.638
14910SOL    HW146627  13.731  10.057  14.546
14910SOL    HW246628  13.823  10.037  14.664
14911SOL     OW46629   7.313  11.932  10.691
14911SOL    HW146630   7.218  11.945  10.697
14911SOL    HW246631   7.350  12.017  10.714
14912SOL     OW46632   6.003   4.622   5.237
14912SOL    HW146633   5.987   4.577   5.320
14912SOL    HW246634   5.929   4.596   5.181
14913SOL     OW46635   3.512   2.244  10.098
14913SOL    HW146636   3.529   2.163  10.147
14913SOL    HW246637   3.417   2.244  10.085
14914SOL     OW46638  12.181   0.198  13.572
14914SOL    HW146639  12.244   0.129  13.595
14914SOL    HW246640  12.217   0.237  13.492
14915SOL     OW46641   3.770   9.648   8.423
14915SOL    HW146642   3.856   9.682   8.449
14915SOL    HW246643   3.789   9.562   8.385
14916SOL     OW46644   5.297   6.247  10.846
14916SOL    HW146645   5.245   6.305  10.791
14916SOL    HW246646   5.236   6.178  10.873
14917SOL     OW46647   8.168   3.367   2.877
14917SOL    HW146648   8.152   3.449   2.923
14917SOL    HW246649   8.087   3.350   2.829
14918SOL     OW46650  12.394  14.741  12.731
14918SOL    HW146651  12.485  14.711  12.727
14918SOL    HW246652  12.397  14.818  12.787
14919SOL     OW46653   7.257  12.089  13.421
14919SOL    HW146654   7.280  12.148  13.492
14919SOL    HW246655   7.325  12.103  13.355
14920SOL     OW46656   7.068  13.229  11.997
14920SOL    HW146657   7.057  13.266  12.085
14920SOL    HW246658   6.980  13.199  11.973
14921SOL     OW46659   5.171   7.864   7.507
14921SOL    HW146660   5.146   7.955   7.523
14921SOL    HW246661   5.088   7.817   7.501
14922SOL     OW46662  12.088   8.893  14.256
14922SOL    HW146663  12.110   8.913  14.165
14922SOL    HW246664  12.153   8.941  14.307
14923SOL     OW46665   4.722   3.233   2.653
14923SOL    HW146666   4.632   3.228   2.621
14923SOL    HW246667   4.740   3.326   2.662
14924SOL     OW46668   6.112   1.049   6.265
14924SOL    HW146669   6.157   1.134   6.262
14924SOL    HW246670   6.066   1.049   6.349
14925SOL     OW46671   4.863   4.885  10.082
14925SOL    HW146672   4.786   4.932  10.050
14925SOL    HW246673   4.910   4.949  10.135
14926SOL     OW46674   4.402   7.892   5.456
14926SOL    HW146675   4.319   7.861   5.490
14926SOL    HW246676   4.466   7.826   5.483
14927SOL     OW46677   8.613  13.435   2.276
14927SOL    HW146678   8.637  13.507   2.334
14927SOL    HW246679   8.569  13.372   2.334
14928SOL     OW46680  13.849   3.040   5.620
14928SOL    HW146681  13.877   3.020   5.709
14928SOL    HW246682  13.888   2.970   5.567
14929SOL     OW46683   2.187   0.639   9.639
14929SOL    HW146684   2.211   0.651   9.547
14929SOL    HW246685   2.109   0.584   9.636
14930SOL     OW46686   0.564   1.052   5.484
14930SOL    HW146687   0.503   1.125   5.480
14930SOL    HW246688   0.509   0.974   5.479
14931SOL     OW46689   3.744  11.151   8.543
14931SOL    HW146690   3.690  11.085   8.499
14931SOL    HW246691   3.808  11.100   8.593
14932SOL     OW46692   6.335   4.689  10.099
14932SOL    HW146693   6.320   4.774  10.141
14932SOL    HW246694   6.249   4.648  10.094
14933SOL     OW46695   6.890  12.119  13.049
14933SOL    HW146696   6.954  12.178  13.010
14933SOL    HW246697   6.807  12.165  13.041
14934SOL     OW46698   9.200   3.282   4.299
14934SOL    HW146699   9.221   3.210   4.358
14934SOL    HW246700   9.207   3.360   4.354
14935SOL     OW46701  10.816  12.648   1.486
14935SOL    HW146702  10.888  12.712   1.483
14935SOL    HW246703  10.796  12.631   1.394
14936SOL     OW46704   3.081   9.341  12.045
14936SOL    HW146705   3.076   9.390  12.127
14936SOL    HW246706   3.173   9.346  12.020
14937SOL     OW46707   4.775   4.005   6.286
14937SOL    HW146708   4.776   3.958   6.369
14937SOL    HW246709   4.835   3.956   6.230
14938SOL     OW46710   3.216  13.401  10.623
14938SOL    HW146711   3.236  13.485  10.666
14938SOL    HW246712   3.126  13.381  10.651
14939SOL     OW46713   0.151   9.513   1.774
14939SOL    HW146714   0.223   9.471   1.822
14939SOL    HW246715   0.175   9.606   1.771
14940SOL     OW46716   1.722   2.573   6.718
14940SOL    HW146717   1.754   2.503   6.775
14940SOL    HW246718   1.726   2.652   6.773
14941SOL     OW46719  13.180  12.588   7.076
14941SOL    HW146720  13.223  12.640   7.144
14941SOL    HW246721  13.246  12.581   7.007
14942SOL     OW46722   2.412  12.096  13.061
14942SOL    HW146723   2.450  12.144  12.987
14942SOL    HW246724   2.326  12.069  13.030
14943SOL     OW46725   7.111   0.126   7.994
14943SOL    HW146726   7.067   0.123   7.909
14943SOL    HW246727   7.053   0.078   8.053
14944SOL     OW46728   2.138   0.803   7.910
14944SOL    HW146729   2.119   0.863   7.838
14944SOL    HW246730   2.065   0.742   7.911
14945SOL     OW46731   8.139  12.209   4.336
14945SOL    HW146732   8.056  12.241   4.372
14945SOL    HW246733   8.122  12.119   4.311
14946SOL     OW46734  13.478  14.363   8.256
14946SOL    HW146735  13.445  14.408   8.179
14946SOL    HW246736  13.468  14.270   8.236
14947SOL     OW46737   7.591  10.476   1.206
14947SOL    HW146738   7.660  10.454   1.144
14947SOL    HW246739   7.562  10.564   1.181
14948SOL     OW46740   2.604  14.051   2.711
14948SOL    HW146741   2.619  13.965   2.671
14948SOL    HW246742   2.667  14.055   2.783
14949SOL     OW46743   7.725   3.019   0.683
14949SOL    HW146744   7.725   3.043   0.776
14949SOL    HW246745   7.787   2.946   0.677
14950SOL     OW46746  10.200  13.424   4.294
14950SOL    HW146747  10.212  13.359   4.224
14950SOL    HW246748  10.106  13.427   4.308
14951SOL     OW46749   7.747   5.899   9.236
14951SOL    HW146750   7.660   5.858   9.238
14951SOL    HW246751   7.781   5.879   9.149
14952SOL     OW46752  13.547   4.763   5.897
14952SOL    HW146753  13.493   4.724   5.966
14952SOL    HW246754  13.635   4.768   5.935
14953SOL     OW46755   7.278  14.620   4.531
14953SOL    HW146756   7.200  14.582   4.490
14953SOL    HW246757   7.324  14.546   4.570
14954SOL     OW46758   4.761   6.490   4.290
14954SOL    HW146759   4.835   6.526   4.243
14954SOL    HW246760   4.690   6.486   4.225
14955SOL     OW46761   0.512   1.134   6.463
14955SOL    HW146762   0.578   1.109   6.398
14955SOL    HW246763   0.561   1.181   6.531
14956SOL     OW46764   4.653  12.694   7.976
14956SOL    HW146765   4.558  12.709   7.976
14956SOL    HW246766   4.684  12.736   8.056
14957SOL     OW46767   8.976  10.339   7.789
14957SOL    HW146768   8.984  10.244   7.781
14957SOL    HW246769   8.950  10.354   7.880
14958SOL     OW46770   2.562  12.283   7.742
14958SOL    HW146771   2.483  12.231   7.722
14958SOL    HW246772   2.630  12.218   7.757
14959SOL     OW46773  11.143   9.870   9.168
14959SOL    HW146774  11.198   9.796   9.142
14959SOL    HW246775  11.205   9.936   9.198
14960SOL     OW46776   6.510   4.455   6.855
14960SOL    HW146777   6.427   4.478   6.813
14960SOL    HW246778   6.561   4.536   6.854
14961SOL     OW46779  11.606  13.561   5.149
14961SOL    HW146780  11.545  13.489   5.165
14961SOL    HW246781  11.691  13.518   5.138
14962SOL     OW46782   7.251  10.822   1.152
14962SOL    HW146783   7.189  10.759   1.189
14962SOL    HW246784   7.237  10.902   1.203
14963SOL     OW46785   4.364  11.211   9.066
14963SOL    HW146786   4.436  11.221   9.004
14963SOL    HW246787   4.285  11.216   9.013
14964SOL     OW46788   4.437   0.914   2.034
14964SOL    HW146789   4.440   0.819   2.050
14964SOL    HW246790   4.380   0.923   1.958
14965SOL     OW46791  11.522   5.669  12.957
14965SOL    HW146792  11.509   5.590  12.905
14965SOL    HW246793  11.616   5.687  12.951
14966SOL     OW46794   1.388   1.652   3.267
14966SOL    HW146795   1.422   1.646   3.356
14966SOL    HW246796   1.371   1.561   3.242
14967SOL     OW46797   6.722   8.293   8.277
14967SOL    HW146798   6.715   8.198   8.284
14967SOL    HW246799   6.693   8.313   8.188
14968SOL     OW46800  13.918   9.478   0.292
14968SOL    HW146801  13.947   9.488   0.201
14968SOL    HW246802  13.951   9.391   0.318
14969SOL     OW46803  10.784   6.183   9.079
14969SOL    HW146804  10.817   6.262   9.121
14969SOL    HW246805  10.720   6.215   9.015
14970SOL     OW46806  12.117   5.043   9.299
14970SOL    HW146807  12.052   4.981   9.265
14970SOL    HW246808  12.085   5.067   9.385
14971SOL     OW46809  11.954   2.007   1.782
14971SOL    HW146810  11.911   2.009   1.868
14971SOL    HW246811  12.047   2.005   1.803
14972SOL     OW46812   8.428  12.224  11.698
14972SOL    HW146813   8.414  12.206  11.790
14972SOL    HW246814   8.345  12.202  11.656
14973SOL     OW46815   3.144  12.739   9.703
14973SOL    HW146816   3.056  12.709   9.728
14973SOL    HW246817   3.167  12.686   9.627
14974SOL     OW46818   8.754  12.537  12.505
14974SOL    HW146819   8.690  12.489  12.557
14974SOL    HW246820   8.703  12.575  12.433
14975SOL     OW46821   3.846   7.787   1.224
14975SOL    HW146822   3.826   7.779   1.317
14975SOL    HW246823   3.932   7.829   1.221
14976SOL     OW46824   1.424   4.874   3.299
14976SOL    HW146825   1.455   4.948   3.351
14976SOL    HW246826   1.392   4.811   3.364
14977SOL     OW46827  14.212  13.607   9.442
14977SOL    HW146828  14.221  13.678   9.505
14977SOL    HW246829  14.221  13.527   9.495
14978SOL     OW46830   1.287  10.625   6.772
14978SOL    HW146831   1.223  10.614   6.842
14978SOL    HW246832   1.363  10.573   6.800
14979SOL     OW46833  12.226   0.845   8.318
14979SOL    HW146834  12.322   0.844   8.321
14979SOL    HW246835  12.200   0.780   8.383
14980SOL     OW46836   3.742   5.020   2.091
14980SOL    HW146837   3.667   5.041   2.145
14980SOL    HW246838   3.725   4.931   2.060
14981SOL     OW46839  13.647  11.078   7.782
14981SOL    HW146840  13.671  11.151   7.839
14981SOL    HW246841  13.708  11.008   7.806
14982SOL     OW46842   1.639   0.876   1.792
14982SOL    HW146843   1.675   0.788   1.803
14982SOL    HW246844   1.545   0.862   1.778
14983SOL     OW46845   3.791   2.601  13.188
14983SOL    HW146846   3.762   2.521  13.232
14983SOL    HW246847   3.710   2.644  13.161
14984SOL     OW46848   7.699  12.824   6.688
14984SOL    HW146849   7.685  12.751   6.749
14984SOL    HW246850   7.671  12.790   6.603
14985SOL     OW46851  12.309  14.747  11.955
14985SOL    HW146852  12.384  14.706  11.912
14985SOL    HW246853  12.337  14.757  12.046
14986SOL     OW46854   7.559   3.464   6.094
14986SOL    HW146855   7.605   3.382   6.113
14986SOL    HW246856   7.624   3.519   6.051
14987SOL     OW46857   6.360  12.248   6.906
14987SOL    HW146858   6.449  12.269   6.878
14987SOL    HW246859   6.337  12.169   6.857
14988SOL     OW46860  13.711   1.316   0.259
14988SOL    HW146861  13.747   1.230   0.279
14988SOL    HW246862  13.628   1.298   0.216
14989SOL     OW46863  14.061   8.768   7.131
14989SOL    HW146864  13.993   8.836   7.130
14989SOL    HW246865  14.144   8.816   7.131
14990SOL     OW46866   0.986   0.300   0.558
14990SOL    HW146867   0.910   0.263   0.604
14990SOL    HW246868   0.981   0.263   0.470
14991SOL     OW46869  12.140  12.662   0.680
14991SOL    HW146870  12.216  12.717   0.697
14991SOL    HW246871  12.169  12.600   0.612
14992SOL     OW46872  13.647   8.804   9.513
14992SOL    HW146873  13.722   8.812   9.572
14992SOL    HW246874  13.674   8.738   9.449
14993SOL     OW46875  10.040   5.677  13.820
14993SOL    HW146876  10.122   5.722  13.801
14993SOL    HW246877  10.019   5.631  13.739
14994SOL     OW46878  10.776   7.186  12.699
14994SOL    HW146879  10.844   7.120  12.713
14994SOL    HW246880  10.823   7.270  12.701
14995SOL     OW46881   9.250  14.769   1.028
14995SOL    HW146882   9.293  14.760   1.114
14995SOL    HW246883   9.269  14.686   0.984
14996SOL     OW46884   7.267   8.212   7.771
14996SOL    HW146885   7.265   8.225   7.866
14996SOL    HW246886   7.349   8.166   7.754
14997SOL     OW46887  13.932  14.775   4.808
14997SOL    HW146888  13.997  14.801   4.742
14997SOL    HW246889  13.875  14.851   4.817
14998SOL     OW46890  12.904  13.919   0.683
14998SOL    HW146891  12.842  13.912   0.756
14998SOL    HW246892  12.981  13.961   0.722
14999SOL     OW46893  10.630   2.580   1.561
14999SOL    HW146894  10.596   2.658   1.517
14999SOL    HW246895  10.554   2.538   1.600
15000SOL     OW46896   9.661   1.535  14.714
15000SOL    HW146897   9.641   1.606  14.653
15000SOL    HW246898   9.579   1.487  14.723
15001SOL     OW46899  12.129   8.665   9.881
15001SOL    HW146900  12.151   8.606   9.953
15001SOL    HW246901  12.175   8.629   9.805
15002SOL     OW46902  10.090   3.227   1.989
15002SOL    HW146903  10.000   3.196   1.979
15002SOL    HW246904  10.081   3.308   2.041
15003SOL     OW46905   1.330   9.163   4.685
15003SOL    HW146906   1.302   9.191   4.597
15003SOL    HW246907   1.258   9.189   4.742
15004SOL     OW46908   6.328   6.800   8.278
15004SOL    HW146909   6.309   6.774   8.188
15004SOL    HW246910   6.349   6.893   8.273
15005SOL     OW46911  11.591  10.049   9.385
15005SOL    HW146912  11.621  10.137   9.362
15005SOL    HW246913  11.665  10.010   9.431
15006SOL     OW46914   0.591   0.276  13.637
15006SOL    HW146915   0.635   0.196  13.665
15006SOL    HW246916   0.559   0.315  13.718
15007SOL     OW46917  13.820  12.780   0.018
15007SOL    HW146918  13.870  12.802   0.096
15007SOL    HW246919  13.790  12.691   0.033
15008SOL     OW46920   3.330  10.132   1.953
15008SOL    HW146921   3.339  10.043   1.988
15008SOL    HW246922   3.265  10.124   1.884
15009SOL     OW46923   1.309   1.206   5.726
15009SOL    HW146924   1.395   1.246   5.738
15009SOL    HW246925   1.301   1.194   5.631
15010SOL     OW46926  10.848  12.102   8.437
15010SOL    HW146927  10.801  12.023   8.413
15010SOL    HW246928  10.916  12.072   8.497
15011SOL     OW46929   9.544   2.574  13.481
15011SOL    HW146930   9.573   2.485  13.501
15011SOL    HW246931   9.615   2.630  13.512
15012SOL     OW46932   0.130   4.970  10.065
15012SOL    HW146933   0.180   5.051  10.077
15012SOL    HW246934   0.098   4.975   9.975
15013SOL     OW46935  12.460   0.898   5.741
15013SOL    HW146936  12.477   0.883   5.648
15013SOL    HW246937  12.369   0.928   5.745
15014SOL     OW46938  13.233   9.874   6.889
15014SOL    HW146939  13.308   9.841   6.939
15014SOL    HW246940  13.233   9.822   6.809
15015SOL     OW46941   3.033   1.103   1.530
15015SOL    HW146942   2.946   1.144   1.531
15015SOL    HW246943   3.041   1.068   1.442
15016SOL     OW46944   7.787  14.320  11.585
15016SOL    HW146945   7.817  14.295  11.673
15016SOL    HW246946   7.774  14.414  11.591
15017SOL     OW46947   8.974   8.017   4.722
15017SOL    HW146948   8.905   8.015   4.788
15017SOL    HW246949   8.959   8.098   4.674
15018SOL     OW46950  12.274   0.410   7.615
15018SOL    HW146951  12.225   0.416   7.696
15018SOL    HW246952  12.287   0.501   7.588
15019SOL     OW46953  12.704   0.087   7.317
15019SOL    HW146954  12.735   0.102   7.406
15019SOL    HW246955  12.713  14.873   7.303
15020SOL     OW46956   8.810   0.471   7.628
15020SOL    HW146957   8.718   0.468   7.653
15020SOL    HW246958   8.858   0.468   7.710
15021SOL     OW46959   5.604   6.299  13.329
15021SOL    HW146960   5.521   6.309  13.376
15021SOL    HW246961   5.664   6.262  13.394
15022SOL     OW46962  10.527  14.295  11.853
15022SOL    HW146963  10.492  14.384  11.854
15022SOL    HW246964  10.474  14.247  11.916
15023SOL     OW46965   1.699   6.044  12.519
15023SOL    HW146966   1.656   6.123  12.487
15023SOL    HW246967   1.627   5.985  12.543
15024SOL     OW46968   2.659   5.827   5.763
15024SOL    HW146969   2.668   5.860   5.673
15024SOL    HW246970   2.605   5.749   5.754
15025SOL     OW46971   6.604  10.576   2.122
15025SOL    HW146972   6.554  10.523   2.059
15025SOL    HW246973   6.578  10.543   2.208
15026SOL     OW46974   4.264   9.893  12.984
15026SOL    HW146975   4.227   9.828  13.043
15026SOL    HW246976   4.214   9.883  12.903
15027SOL     OW46977   4.473   7.359  14.364
15027SOL    HW146978   4.383   7.327  14.354
15027SOL    HW246979   4.492   7.346  14.457
15028SOL     OW46980  13.222   7.439   6.828
15028SOL    HW146981  13.129   7.459   6.819
15028SOL    HW246982  13.246   7.472   6.914
15029SOL     OW46983  10.813   2.875   6.805
15029SOL    HW146984  10.877   2.946   6.807
15029SOL    HW246985  10.854   2.808   6.751
15030SOL     OW46986   9.262   5.216   7.299
15030SOL    HW146987   9.218   5.277   7.241
15030SOL    HW246988   9.203   5.206   7.374
15031SOL     OW46989   6.848  11.561  11.026
15031SOL    HW146990   6.921  11.611  10.990
15031SOL    HW246991   6.798  11.626  11.076
15032SOL     OW46992   0.848   6.527  12.493
15032SOL    HW146993   0.774   6.478  12.457
15032SOL    HW246994   0.834   6.617  12.463
15033SOL     OW46995   6.481  13.985  13.406
15033SOL    HW146996   6.411  13.938  13.359
15033SOL    HW246997   6.526  13.917  13.456
15034SOL     OW46998   2.634   3.845   4.939
15034SOL    HW146999   2.665   3.935   4.950
15034SOL    HW247000   2.709   3.791   4.966
15035SOL     OW47001   7.900  14.620  13.474
15035SOL    HW147002   7.822  14.655  13.431
15035SOL    HW247003   7.973  14.661  13.428
15036SOL     OW47004   8.287   9.275   6.785
15036SOL    HW147005   8.274   9.273   6.690
15036SOL    HW247006   8.296   9.368   6.806
15037SOL     OW47007  13.130   9.927   4.303
15037SOL    HW147008  13.087   9.912   4.387
15037SOL    HW247009  13.219   9.893   4.315
15038SOL     OW47010   7.717   3.353   1.168
15038SOL    HW147011   7.704   3.263   1.139
15038SOL    HW247012   7.696   3.352   1.261
15039SOL     OW47013  10.611   3.781   1.576
15039SOL    HW147014  10.530   3.732   1.589
15039SOL    HW247015  10.671   3.717   1.536
15040SOL     OW47016   1.322  10.114  12.166
15040SOL    HW147017   1.319  10.090  12.259
15040SOL    HW247018   1.362  10.038  12.123
15041SOL     OW47019   6.012   5.929  11.717
15041SOL    HW147020   6.080   5.877  11.759
15041SOL    HW247021   6.055   6.012  11.694
15042SOL     OW47022   5.165   7.294   0.592
15042SOL    HW147023   5.219   7.313   0.669
15042SOL    HW247024   5.095   7.359   0.597
15043SOL     OW47025   8.346  10.155  10.921
15043SOL    HW147026   8.399  10.235  10.926
15043SOL    HW247027   8.392  10.100  10.858
15044SOL     OW47028  10.468   5.311   5.857
15044SOL    HW147029  10.542   5.298   5.798
15044SOL    HW247030  10.432   5.224   5.870
15045SOL     OW47031   0.148   4.346   0.823
15045SOL    HW147032   0.116   4.265   0.784
15045SOL    HW247033   0.071   4.383   0.867
15046SOL     OW47034   8.884   1.610  10.989
15046SOL    HW147035   8.867   1.652  11.073
15046SOL    HW247036   8.935   1.532  11.010
15047SOL     OW47037   3.720   6.903   2.279
15047SOL    HW147038   3.710   6.878   2.371
15047SOL    HW247039   3.814   6.917   2.268
15048SOL     OW47040   0.379   8.502   5.075
15048SOL    HW147041   0.381   8.578   5.016
15048SOL    HW247042   0.467   8.466   5.070
15049SOL     OW47043   9.124   3.987   1.823
15049SOL    HW147044   9.152   3.992   1.731
15049SOL    HW247045   9.160   4.065   1.864
15050SOL     OW47046  14.865   9.823   8.165
15050SOL    HW147047  14.873   9.816   8.260
15050SOL    HW247048  14.821   9.906   8.150
15051SOL     OW47049   3.696  14.831   2.843
15051SOL    HW147050   3.691  14.737   2.828
15051SOL    HW247051   3.732  14.866   2.761
15052SOL     OW47052  14.224   9.160   4.583
15052SOL    HW147053  14.248   9.142   4.674
15052SOL    HW247054  14.288   9.110   4.531
15053SOL     OW47055  10.182  14.640   0.126
15053SOL    HW147056  10.278  14.634   0.129
15053SOL    HW247057  10.160  14.618   0.036
15054SOL     OW47058  11.070   7.129  13.381
15054SOL    HW147059  11.071   7.042  13.421
15054SOL    HW247060  11.007   7.122  13.309
15055SOL     OW47061   8.973   9.627  10.026
15055SOL    HW147062   8.969   9.585   9.940
15055SOL    HW247063   8.886   9.614  10.063
15056SOL     OW47064   5.747  13.560   6.491
15056SOL    HW147065   5.729  13.469   6.514
15056SOL    HW247066   5.724  13.568   6.399
15057SOL     OW47067   5.884  10.582   8.230
15057SOL    HW147068   5.916  10.569   8.141
15057SOL    HW247069   5.790  10.565   8.225
15058SOL     OW47070   6.275   2.549  13.175
15058SOL    HW147071   6.368   2.572  13.181
15058SOL    HW247072   6.269   2.497  13.095
15059SOL     OW47073   0.873  10.407   4.588
15059SOL    HW147074   0.960  10.375   4.565
15059SOL    HW247075   0.861  10.484   4.532
15060SOL     OW47076  11.124  10.284   6.442
15060SOL    HW147077  11.118  10.356   6.379
15060SOL    HW247078  11.173  10.216   6.396
15061SOL     OW47079   1.142   9.655   4.994
15061SOL    HW147080   1.098   9.658   5.079
15061SOL    HW247081   1.141   9.746   4.963
15062SOL     OW47082   2.580   0.773   3.847
15062SOL    HW147083   2.664   0.765   3.802
15062SOL    HW247084   2.592   0.724   3.929
15063SOL     OW47085   5.612   4.617  10.088
15063SOL    HW147086   5.669   4.687  10.119
15063SOL    HW247087   5.638   4.602   9.997
15064SOL     OW47088   3.937  10.590   3.754
15064SOL    HW147089   3.960  10.655   3.688
15064SOL    HW247090   3.979  10.622   3.834
15065SOL     OW47091   6.595   5.732   3.768
15065SOL    HW147092   6.594   5.816   3.722
15065SOL    HW247093   6.592   5.667   3.698
15066SOL     OW47094   0.438   8.408   6.724
15066SOL    HW147095   0.407   8.462   6.651
15066SOL    HW247096   0.517   8.453   6.755
15067SOL     OW47097  12.261   5.449   6.531
15067SOL    HW147098  12.243   5.408   6.616
15067SOL    HW247099  12.340   5.406   6.500
15068SOL     OW47100   7.460  10.152   3.003
15068SOL    HW147101   7.460  10.236   3.049
15068SOL    HW247102   7.467  10.087   3.073
15069SOL     OW47103   4.876   0.277   7.434
15069SOL    HW147104   4.968   0.276   7.406
15069SOL    HW247105   4.880   0.253   7.527
15070SOL     OW47106   6.864   1.459  10.532
15070SOL    HW147107   6.776   1.496  10.535
15070SOL    HW247108   6.868   1.398  10.605
15071SOL     OW47109   6.557   2.443   2.959
15071SOL    HW147110   6.492   2.381   2.924
15071SOL    HW247111   6.640   2.412   2.925
15072SOL     OW47112   8.732   8.898   9.803
15072SOL    HW147113   8.668   8.963   9.831
15072SOL    HW247114   8.812   8.921   9.850
15073SOL     OW47115   6.067   2.205   8.557
15073SOL    HW147116   6.074   2.170   8.468
15073SOL    HW247117   5.996   2.268   8.553
15074SOL     OW47118  14.560   7.850   5.014
15074SOL    HW147119  14.533   7.934   4.978
15074SOL    HW247120  14.559   7.790   4.940
15075SOL     OW47121   1.570   3.661   1.686
15075SOL    HW147122   1.585   3.751   1.656
15075SOL    HW247123   1.487   3.636   1.646
15076SOL     OW47124  12.517   2.206   0.346
15076SOL    HW147125  12.499   2.201   0.440
15076SOL    HW247126  12.517   2.300   0.327
15077SOL     OW47127   2.848   6.571   3.395
15077SOL    HW147128   2.777   6.531   3.445
15077SOL    HW247129   2.862   6.511   3.322
15078SOL     OW47130   5.421   3.735  14.307
15078SOL    HW147131   5.502   3.739  14.256
15078SOL    HW247132   5.364   3.677  14.257
15079SOL     OW47133   1.323  10.555   6.167
15079SOL    HW147134   1.302  10.637   6.123
15079SOL    HW247135   1.246  10.500   6.153
15080SOL     OW47136   0.033  10.185   1.075
15080SOL    HW147137  14.871  10.264   1.042
15080SOL    HW247138   0.000  10.114   1.019
15081SOL     OW47139   4.043  11.033  11.607
15081SOL    HW147140   3.990  11.086  11.666
15081SOL    HW247141   4.028  11.071  11.521
15082SOL     OW47142   7.802   1.216  12.323
15082SOL    HW147143   7.816   1.161  12.245
15082SOL    HW247144   7.709   1.207  12.342
15083SOL     OW47145   7.015  10.473   8.781
15083SOL    HW147146   7.009  10.567   8.798
15083SOL    HW247147   6.955  10.458   8.708
15084SOL     OW47148   8.864  10.068   6.838
15084SOL    HW147149   8.822  10.139   6.887
15084SOL    HW247150   8.793  10.006   6.820
15085SOL     OW47151   9.750  12.108   7.689
15085SOL    HW147152   9.825  12.161   7.664
15085SOL    HW247153   9.773  12.072   7.775
15086SOL     OW47154  11.893   7.169  12.955
15086SOL    HW147155  11.924   7.257  12.978
15086SOL    HW247156  11.867   7.130  13.038
15087SOL     OW47157   5.072   6.701   0.624
15087SOL    HW147158   4.977   6.696   0.632
15087SOL    HW247159   5.088   6.704   0.529
15088SOL     OW47160  14.678  11.055  14.254
15088SOL    HW147161  14.682  11.060  14.349
15088SOL    HW247162  14.585  11.045  14.233
15089SOL     OW47163   6.648  12.113   9.061
15089SOL    HW147164   6.582  12.107   9.130
15089SOL    HW247165   6.650  12.206   9.038
15090SOL     OW47166  11.487  12.294   1.836
15090SOL    HW147167  11.470  12.247   1.918
15090SOL    HW247168  11.519  12.226   1.776
15091SOL     OW47169  14.096  13.246  14.405
15091SOL    HW147170  14.185  13.252  14.439
15091SOL    HW247171  14.079  13.153  14.396
15092SOL     OW47172  10.498   4.614  13.471
15092SOL    HW147173  10.509   4.522  13.445
15092SOL    HW247174  10.416   4.614  13.521
15093SOL     OW47175   9.537  14.741   8.830
15093SOL    HW147176   9.480  14.676   8.789
15093SOL    HW247177   9.594  14.691   8.887
15094SOL     OW47178   7.546   0.258   6.543
15094SOL    HW147179   7.486   0.199   6.587
15094SOL    HW247180   7.617   0.271   6.607
15095SOL     OW47181   4.244   3.799   5.038
15095SOL    HW147182   4.305   3.734   5.004
15095SOL    HW247183   4.300   3.870   5.070
15096SOL     OW47184  11.552   4.065  10.859
15096SOL    HW147185  11.603   4.097  10.933
15096SOL    HW247186  11.617   4.029  10.799
15097SOL     OW47187   9.270   1.968   9.417
15097SOL    HW147188   9.201   1.984   9.353
15097SOL    HW247189   9.335   1.915   9.371
15098SOL     OW47190   7.048  10.632   4.683
15098SOL    HW147191   7.063  10.638   4.777
15098SOL    HW247192   6.989  10.557   4.673
15099SOL     OW47193  14.229   7.666  11.553
15099SOL    HW147194  14.237   7.586  11.604
15099SOL    HW247195  14.229   7.637  11.462
15100SOL     OW47196  11.800   9.921   6.569
15100SOL    HW147197  11.806   9.964   6.655
15100SOL    HW247198  11.822   9.990   6.507
15101SOL     OW47199  13.619   2.022   0.394
15101SOL    HW147200  13.616   1.930   0.366
15101SOL    HW247201  13.543   2.062   0.353
15102SOL     OW47202   3.073   3.020   0.046
15102SOL    HW147203   3.071   2.928   0.071
15102SOL    HW247204   3.151   3.028  14.871
15103SOL     OW47205   3.974  10.129   3.142
15103SOL    HW147206   4.019  10.153   3.061
15103SOL    HW247207   4.027  10.168   3.211
15104SOL     OW47208  14.411   1.722   7.307
15104SOL    HW147209  14.431   1.689   7.395
15104SOL    HW247210  14.474   1.793   7.294
15105SOL     OW47211   8.662   7.021  10.143
15105SOL    HW147212   8.692   7.106  10.112
15105SOL    HW247213   8.566   7.026  10.136
15106SOL     OW47214   7.519   7.447  10.270
15106SOL    HW147215   7.480   7.360  10.277
15106SOL    HW247216   7.544   7.470  10.359
15107SOL     OW47217   9.315   9.709   5.377
15107SOL    HW147218   9.259   9.645   5.332
15107SOL    HW247219   9.263   9.737   5.452
15108SOL     OW47220  11.639   1.944   3.876
15108SOL    HW147221  11.621   1.878   3.943
15108SOL    HW247222  11.710   1.907   3.824
15109SOL     OW47223   1.795  14.317   6.848
15109SOL    HW147224   1.755  14.279   6.927
15109SOL    HW247225   1.780  14.411   6.856
15110SOL     OW47226   5.875   0.866   1.681
15110SOL    HW147227   5.784   0.835   1.677
15110SOL    HW247228   5.926   0.787   1.701
15111SOL     OW47229   6.140   4.741  11.206
15111SOL    HW147230   6.108   4.786  11.127
15111SOL    HW247231   6.060   4.719  11.254
15112SOL     OW47232  13.681   1.652   3.278
15112SOL    HW147233  13.712   1.646   3.368
15112SOL    HW247234  13.665   1.561   3.253
15113SOL     OW47235  10.021  12.859  14.649
15113SOL    HW147236  10.086  12.927  14.668
15113SOL    HW247237  10.065  12.777  14.669
15114SOL     OW47238  11.726   4.854   0.468
15114SOL    HW147239  11.813   4.862   0.507
15114SOL    HW247240  11.667   4.845   0.543
15115SOL     OW47241   0.221   8.652   1.562
15115SOL    HW147242   0.261   8.576   1.605
15115SOL    HW247243   0.179   8.700   1.633
15116SOL     OW47244  11.617   0.057   8.978
15116SOL    HW147245  11.689   0.016   9.025
15116SOL    HW247246  11.597   0.137   9.028
15117SOL     OW47247   9.125   5.060   8.102
15117SOL    HW147248   9.185   5.090   8.034
15117SOL    HW247249   9.182   5.037   8.175
15118SOL     OW47250   3.692  14.688  10.296
15118SOL    HW147251   3.716  14.643  10.377
15118SOL    HW247252   3.772  14.734  10.270
15119SOL     OW47253   2.296  14.012   6.818
15119SOL    HW147254   2.222  14.070   6.801
15119SOL    HW247255   2.303  13.957   6.740
15120SOL     OW47256  13.738  12.604  13.085
15120SOL    HW147257  13.709  12.515  13.104
15120SOL    HW247258  13.758  12.604  12.992
15121SOL     OW47259   3.787   7.807   7.919
15121SOL    HW147260   3.876   7.781   7.897
15121SOL    HW247261   3.778   7.895   7.882
15122SOL     OW47262   1.978   8.399  11.984
15122SOL    HW147263   1.960   8.306  11.996
15122SOL    HW247264   2.024   8.404  11.900
15123SOL     OW47265   0.583   9.527   7.045
15123SOL    HW147266   0.536   9.505   7.126
15123SOL    HW247267   0.522   9.581   6.995
15124SOL     OW47268  11.721  11.971   5.713
15124SOL    HW147269  11.764  11.949   5.796
15124SOL    HW247270  11.656  12.037   5.737
15125SOL     OW47271   0.821   2.914  11.385
15125SOL    HW147272   0.877   2.980  11.345
15125SOL    HW247273   0.810   2.943  11.476
15126SOL     OW47274   6.979   4.959   1.001
15126SOL    HW147275   7.064   4.983   0.965
15126SOL    HW247276   6.966   5.018   1.074
15127SOL     OW47277   8.362  13.444  10.558
15127SOL    HW147278   8.400  13.508  10.498
15127SOL    HW247279   8.419  13.368  10.552
15128SOL     OW47280   5.725  12.787   6.555
15128SOL    HW147281   5.714  12.692   6.561
15128SOL    HW247282   5.637  12.823   6.566
15129SOL     OW47283   3.621  13.150   7.046
15129SOL    HW147284   3.685  13.214   7.077
15129SOL    HW247285   3.560  13.139   7.119
15130SOL     OW47286  10.007   1.964  10.254
15130SOL    HW147287   9.940   1.938  10.190
15130SOL    HW247288  10.087   1.971  10.202
15131SOL     OW47289   4.488  11.157  14.396
15131SOL    HW147290   4.572  11.184  14.432
15131SOL    HW247291   4.427  11.227  14.420
15132SOL     OW47292   3.691  10.169  11.620
15132SOL    HW147293   3.618  10.163  11.682
15132SOL    HW247294   3.765  10.198  11.672
15133SOL     OW47295   8.959   3.140   1.583
15133SOL    HW147296   8.876   3.131   1.538
15133SOL    HW247297   9.000   3.217   1.544
15134SOL     OW47298   5.529   3.685   5.227
15134SOL    HW147299   5.481   3.651   5.302
15134SOL    HW247300   5.544   3.608   5.171
15135SOL     OW47301   2.697  12.267   9.502
15135SOL    HW147302   2.784  12.275   9.463
15135SOL    HW247303   2.710  12.280   9.595
15136SOL     OW47304   2.683   0.225   8.971
15136SOL    HW147305   2.642   0.287   8.911
15136SOL    HW247306   2.619   0.213   9.041
15137SOL     OW47307   3.621  13.513   6.768
15137SOL    HW147308   3.570  13.571   6.713
15137SOL    HW247309   3.705  13.558   6.781
15138SOL     OW47310   8.812   6.052   7.680
15138SOL    HW147311   8.876   6.095   7.737
15138SOL    HW247312   8.751   6.122   7.655
15139SOL     OW47313   5.252  11.621   5.026
15139SOL    HW147314   5.330  11.569   5.045
15139SOL    HW247315   5.226  11.595   4.938
15140SOL     OW47316   9.661   0.704   2.621
15140SOL    HW147317   9.575   0.745   2.629
15140SOL    HW247318   9.688   0.722   2.531
15141SOL     OW47319   1.988   5.652   8.621
15141SOL    HW147320   1.963   5.705   8.697
15141SOL    HW247321   1.965   5.706   8.545
15142SOL     OW47322  14.322   4.442  12.052
15142SOL    HW147323  14.238   4.440  12.099
15142SOL    HW247324  14.388   4.431  12.121
15143SOL     OW47325  13.002  11.629  14.096
15143SOL    HW147326  12.908  11.647  14.107
15143SOL    HW247327  13.034  11.701  14.041
15144SOL     OW47328  10.165   7.069   5.066
15144SOL    HW147329  10.253   7.107   5.066
15144SOL    HW247330  10.176   6.983   5.105
15145SOL     OW47331   3.912   7.484   7.868
15145SOL    HW147332   3.929   7.441   7.952
15145SOL    HW247333   3.870   7.416   7.815
15146SOL     OW47334  12.585  13.070  11.610
15146SOL    HW147335  12.499  13.028  11.606
15146SOL    HW247336  12.630  13.040  11.531
15147SOL     OW47337   9.297  14.618  10.444
15147SOL    HW147338   9.382  14.660  10.455
15147SOL    HW247339   9.253  14.630  10.528
15148SOL     OW47340   8.021   1.692   5.853
15148SOL    HW147341   8.031   1.696   5.949
15148SOL    HW247342   8.096   1.640   5.824
15149SOL     OW47343  13.097  11.267   8.675
15149SOL    HW147344  13.179  11.219   8.664
15149SOL    HW247345  13.094  11.327   8.600
15150SOL     OW47346  12.710  14.314  14.671
15150SOL    HW147347  12.749  14.298  14.585
15150SOL    HW247348  12.753  14.250  14.729
15151SOL     OW47349   2.223   2.624   7.708
15151SOL    HW147350   2.316   2.624   7.729
15151SOL    HW247351   2.207   2.539   7.667
15152SOL     OW47352   5.138   5.770   0.037
15152SOL    HW147353   5.215   5.713   0.046
15152SOL    HW247354   5.121   5.801   0.125
15153SOL     OW47355   3.876   8.312   1.018
15153SOL    HW147356   3.857   8.287   1.109
15153SOL    HW247357   3.791   8.330   0.980
15154SOL     OW47358   2.623   9.586   6.807
15154SOL    HW147359   2.718   9.594   6.810
15154SOL    HW247360   2.602   9.517   6.870
15155SOL     OW47361   8.558  10.577   2.081
15155SOL    HW147362   8.598  10.527   2.152
15155SOL    HW247363   8.546  10.665   2.116
15156SOL     OW47364   6.060   3.839  10.401
15156SOL    HW147365   6.080   3.787  10.479
15156SOL    HW247366   6.043   3.927  10.435
15157SOL     OW47367  14.076   6.385   5.065
15157SOL    HW147368  14.046   6.296   5.046
15157SOL    HW247369  14.076   6.390   5.160
15158SOL     OW47370  10.426   6.661   5.038
15158SOL    HW147371  10.394   6.709   4.961
15158SOL    HW247372  10.521   6.673   5.036
15159SOL     OW47373  10.166   7.225  14.464
15159SOL    HW147374  10.240   7.165  14.461
15159SOL    HW247375  10.198   7.301  14.513
15160SOL     OW47376   4.063   5.360  12.347
15160SOL    HW147377   4.141   5.409  12.373
15160SOL    HW247378   3.991   5.422  12.357
15161SOL     OW47379   0.866  10.110  14.690
15161SOL    HW147380   0.809  10.036  14.668
15161SOL    HW247381   0.807  10.185  14.693
15162SOL     OW47382   8.737   5.358   0.803
15162SOL    HW147383   8.700   5.269   0.797
15162SOL    HW247384   8.817   5.347   0.855
15163SOL     OW47385  11.931  11.094   6.137
15163SOL    HW147386  11.928  11.188   6.124
15163SOL    HW247387  11.851  11.073   6.184
15164SOL     OW47388   1.537   9.584  10.476
15164SOL    HW147389   1.520   9.496  10.441
15164SOL    HW247390   1.473   9.593  10.547
15165SOL     OW47391   9.288   9.208  11.981
15165SOL    HW147392   9.367   9.226  12.031
15165SOL    HW247393   9.259   9.122  12.011
15166SOL     OW47394   9.784  11.415   5.248
15166SOL    HW147395   9.709  11.405   5.190
15166SOL    HW247396   9.748  11.458   5.326
15167SOL     OW47397   7.551   5.416  13.735
15167SOL    HW147398   7.567   5.358  13.660
15167SOL    HW247399   7.456   5.425  13.738
15168SOL     OW47400  10.357   8.471   8.029
15168SOL    HW147401  10.338   8.380   8.005
15168SOL    HW247402  10.370   8.469   8.124
15169SOL     OW47403   9.010   9.765  10.478
15169SOL    HW147404   9.046   9.698  10.535
15169SOL    HW247405   8.930   9.725  10.443
15170SOL     OW47406   0.783  11.083   8.976
15170SOL    HW147407   0.693  11.057   8.993
15170SOL    HW247408   0.831  11.001   8.966
15171SOL     OW47409   3.458  14.753   1.961
15171SOL    HW147410   3.371  14.769   1.996
15171SOL    HW247411   3.490  14.840   1.935
15172SOL     OW47412   8.970   4.397  14.181
15172SOL    HW147413   8.902   4.338  14.213
15172SOL    HW247414   9.026   4.413  14.258
15173SOL     OW47415   9.610   1.988  11.928
15173SOL    HW147416   9.549   1.961  11.996
15173SOL    HW247417   9.632   1.906  11.882
15174SOL     OW47418   1.085   2.394   3.886
15174SOL    HW147419   1.163   2.399   3.831
15174SOL    HW247420   1.111   2.338   3.959
15175SOL     OW47421   0.456  10.759  11.872
15175SOL    HW147422   0.529  10.786  11.815
15175SOL    HW247423   0.498  10.710  11.942
15176SOL     OW47424   0.236   9.861   9.096
15176SOL    HW147425   0.172   9.892   9.032
15176SOL    HW247426   0.321   9.890   9.060
15177SOL     OW47427   8.891   4.019   2.010
15177SOL    HW147428   8.800   3.993   2.025
15177SOL    HW247429   8.906   3.998   1.918
15178SOL     OW47430  14.770   0.615  12.772
15178SOL    HW147431  14.779   0.674  12.697
15178SOL    HW247432  14.738   0.533  12.735
15179SOL     OW47433  14.533  10.183   8.892
15179SOL    HW147434  14.624  10.194   8.916
15179SOL    HW247435  14.516  10.089   8.900
15180SOL     OW47436   5.234   0.929   2.814
15180SOL    HW147437   5.256   0.838   2.796
15180SOL    HW247438   5.315   0.977   2.796
15181SOL     OW47439  11.254   6.027   3.965
15181SOL    HW147440  11.208   6.067   4.039
15181SOL    HW247441  11.304   6.098   3.926
15182SOL     OW47442  14.284   5.493  14.879
15182SOL    HW147443  14.269   5.445   0.081
15182SOL    HW247444  14.343   5.564   0.022
15183SOL     OW47445  11.797  10.878   1.349
15183SOL    HW147446  11.733  10.944   1.376
15183SOL    HW247447  11.776  10.801   1.402
15184SOL     OW47448  13.169  13.518   2.839
15184SOL    HW147449  13.102  13.503   2.772
15184SOL    HW247450  13.208  13.602   2.814
15185SOL     OW47451   2.942   2.476   6.543
15185SOL    HW147452   2.993   2.405   6.580
15185SOL    HW247453   2.916   2.445   6.456
15186SOL     OW47454   3.906   0.759  11.867
15186SOL    HW147455   3.870   0.786  11.951
15186SOL    HW247456   3.929   0.841  11.823
15187SOL     OW47457   9.649   6.327   4.411
15187SOL    HW147458   9.643   6.369   4.497
15187SOL    HW247459   9.595   6.381   4.354
15188SOL     OW47460   7.632   1.968   4.181
15188SOL    HW147461   7.592   1.933   4.261
15188SOL    HW247462   7.663   2.055   4.206
15189SOL     OW47463   5.686   1.627   4.340
15189SOL    HW147464   5.746   1.589   4.404
15189SOL    HW247465   5.600   1.623   4.383
15190SOL     OW47466   5.391   9.330   9.906
15190SOL    HW147467   5.484   9.305   9.897
15190SOL    HW247468   5.393   9.414   9.951
15191SOL     OW47469  14.291   9.395   8.014
15191SOL    HW147470  14.290   9.480   8.059
15191SOL    HW247471  14.341   9.410   7.934
15192SOL     OW47472   6.968   3.396  11.178
15192SOL    HW147473   6.956   3.479  11.223
15192SOL    HW247474   6.880   3.368  11.154
15193SOL     OW47475   8.526   2.296   5.439
15193SOL    HW147476   8.479   2.216   5.414
15193SOL    HW247477   8.516   2.301   5.534
15194SOL     OW47478  10.433  14.706  10.598
15194SOL    HW147479  10.371  14.699  10.670
15194SOL    HW247480  10.433  14.619  10.558
15195SOL     OW47481   3.654   5.194   9.629
15195SOL    HW147482   3.742   5.164   9.606
15195SOL    HW247483   3.664   5.288   9.643
15196SOL     OW47484   3.874  11.914  12.561
15196SOL    HW147485   3.963  11.907  12.594
15196SOL    HW247486   3.830  11.973  12.621
15197SOL     OW47487   5.003   0.617   9.922
15197SOL    HW147488   5.097   0.625   9.902
15197SOL    HW247489   5.000   0.592  10.014
15198SOL     OW47490   8.886   5.165   2.585
15198SOL    HW147491   8.888   5.259   2.599
15198SOL    HW247492   8.795   5.139   2.605
15199SOL     OW47493  13.652   5.321   2.988
15199SOL    HW147494  13.716   5.271   2.937
15199SOL    HW247495  13.695   5.337   3.072
15200SOL     OW47496  10.526  11.167   6.124
15200SOL    HW147497  10.481  11.200   6.202
15200SOL    HW247498  10.589  11.103   6.157
15201SOL     OW47499   9.381  14.518   2.197
15201SOL    HW147500   9.287  14.522   2.211
15201SOL    HW247501   9.406  14.608   2.174
15202SOL     OW47502   3.001   4.968   3.488
15202SOL    HW147503   3.047   5.009   3.415
15202SOL    HW247504   3.037   4.879   3.493
15203SOL     OW47505   0.827   7.951   0.391
15203SOL    HW147506   0.734   7.970   0.405
15203SOL    HW247507   0.845   7.983   0.302
15204SOL     OW47508   5.908   5.830   9.478
15204SOL    HW147509   5.824   5.875   9.485
15204SOL    HW247510   5.971   5.900   9.462
15205SOL     OW47511  14.464  11.382   8.229
15205SOL    HW147512  14.526  11.454   8.224
15205SOL    HW247513  14.461  11.347   8.139
15206SOL     OW47514   4.467  10.161   2.791
15206SOL    HW147515   4.523  10.237   2.811
15206SOL    HW247516   4.419  10.145   2.873
15207SOL     OW47517   5.446   0.444  14.276
15207SOL    HW147518   5.489   0.388  14.340
15207SOL    HW247519   5.427   0.525  14.324
15208SOL     OW47520  14.479  10.299   6.816
15208SOL    HW147521  14.540  10.282   6.744
15208SOL    HW247522  14.447  10.388   6.800
15209SOL     OW47523   4.545  11.437   2.450
15209SOL    HW147524   4.482  11.372   2.420
15209SOL    HW247525   4.576  11.479   2.370
15210SOL     OW47526  12.291   6.931   2.236
15210SOL    HW147527  12.316   6.894   2.321
15210SOL    HW247528  12.248   6.859   2.190
15211SOL     OW47529  14.854   5.648   9.198
15211SOL    HW147530  14.811   5.733   9.185
15211SOL    HW247531  14.863   5.640   9.293
15212SOL     OW47532  13.362   6.032   3.934
15212SOL    HW147533  13.427   5.985   3.880
15212SOL    HW247534  13.398   6.120   3.943
15213SOL     OW47535   5.505  10.524   9.527
15213SOL    HW147536   5.553  10.535   9.445
15213SOL    HW247537   5.568  10.548   9.595
15214SOL     OW47538   0.261  11.963  13.041
15214SOL    HW147539   0.182  11.913  13.062
15214SOL    HW247540   0.315  11.903  12.990
15215SOL     OW47541   5.017  10.716  12.116
15215SOL    HW147542   5.052  10.668  12.191
15215SOL    HW247543   4.946  10.661  12.083
15216SOL     OW47544  10.290  13.383  10.671
15216SOL    HW147545  10.294  13.318  10.601
15216SOL    HW247546  10.382  13.394  10.697
15217SOL     OW47547  12.311   0.122   2.384
15217SOL    HW147548  12.238   0.168   2.342
15217SOL    HW247549  12.309   0.152   2.475
15218SOL     OW47550  10.661   1.162   3.616
15218SOL    HW147551  10.572   1.143   3.644
15218SOL    HW247552  10.696   1.077   3.589
15219SOL     OW47553  10.182   2.271   0.076
15219SOL    HW147554  10.126   2.201   0.107
15219SOL    HW247555  10.256   2.227   0.035
15220SOL     OW47556   6.825   8.426  11.881
15220SOL    HW147557   6.794   8.516  11.887
15220SOL    HW247558   6.763   8.375  11.933
15221SOL     OW47559  11.263   9.687  14.797
15221SOL    HW147560  11.194   9.716  14.738
15221SOL    HW247561  11.321   9.763  14.805
15222SOL     OW47562   9.458  14.171   4.307
15222SOL    HW147563   9.500  14.218   4.234
15222SOL    HW247564   9.497  14.209   4.386
15223SOL     OW47565   5.238  10.188   4.548
15223SOL    HW147566   5.177  10.262   4.558
15223SOL    HW247567   5.322  10.229   4.529
15224SOL     OW47568  12.076   4.121   5.458
15224SOL    HW147569  12.143   4.103   5.392
15224SOL    HW247570  12.126   4.142   5.537
15225SOL     OW47571   2.280   0.574  10.884
15225SOL    HW147572   2.356   0.515  10.880
15225SOL    HW247573   2.207   0.516  10.908
15226SOL     OW47574   0.045   4.985   7.791
15226SOL    HW147575  14.837   4.951   7.782
15226SOL    HW247576   0.036   5.062   7.847
15227SOL     OW47577   3.672   9.554   5.745
15227SOL    HW147578   3.706   9.467   5.725
15227SOL    HW247579   3.653   9.552   5.839
15228SOL     OW47580  11.887   4.809  10.175
15228SOL    HW147581  11.832   4.888  10.177
15228SOL    HW247582  11.843   4.749  10.235
15229SOL     OW47583   6.874   5.814  14.290
15229SOL    HW147584   6.965   5.804  14.318
15229SOL    HW247585   6.855   5.735  14.240
15230SOL     OW47586  11.551   2.888   3.499
15230SOL    HW147587  11.521   2.798   3.510
15230SOL    HW247588  11.644   2.880   3.478
15231SOL     OW47589   2.650   2.049  12.781
15231SOL    HW147590   2.645   1.974  12.723
15231SOL    HW247591   2.733   2.038  12.827
15232SOL     OW47592  11.888   7.299   0.734
15232SOL    HW147593  11.925   7.381   0.702
15232SOL    HW247594  11.942   7.231   0.694
15233SOL     OW47595  10.239  12.264  11.523
15233SOL    HW147596  10.173  12.316  11.476
15233SOL    HW247597  10.313  12.258  11.462
15234SOL     OW47598   5.284   3.304  11.809
15234SOL    HW147599   5.217   3.347  11.863
15234SOL    HW247600   5.366   3.320  11.856
15235SOL     OW47601   8.340   8.425  14.829
15235SOL    HW147602   8.384   8.488   0.006
15235SOL    HW247603   8.365   8.452  14.741
15236SOL     OW47604   8.235   7.016   8.010
15236SOL    HW147605   8.325   7.031   7.981
15236SOL    HW247606   8.182   7.027   7.931
15237SOL     OW47607   8.781  12.563   6.402
15237SOL    HW147608   8.722  12.489   6.392
15237SOL    HW247609   8.869  12.525   6.397
15238SOL     OW47610  13.522   8.555   0.165
15238SOL    HW147611  13.536   8.510   0.082
15238SOL    HW247612  13.526   8.648   0.144
15239SOL     OW47613   0.018   8.959  12.459
15239SOL    HW147614  14.871   9.036  12.408
15239SOL    HW247615   0.113   8.964  12.462
15240SOL     OW47616  11.347  13.767  10.935
15240SOL    HW147617  11.414  13.835  10.926
15240SOL    HW247618  11.388  13.688  10.900
15241SOL     OW47619  12.657  13.418  10.135
15241SOL    HW147620  12.701  13.500  10.155
15241SOL    HW247621  12.573  13.444  10.099
15242SOL     OW47622   2.606   8.636   6.270
15242SOL    HW147623   2.655   8.719   6.269
15242SOL    HW247624   2.622   8.597   6.184
15243SOL     OW47625  14.757   9.479  12.251
15243SOL    HW147626  14.683   9.434  12.209
15243SOL    HW247627  14.732   9.571  12.252
15244SOL     OW47628   6.761   4.881   2.463
15244SOL    HW147629   6.774   4.796   2.504
15244SOL    HW247630   6.832   4.936   2.497
15245SOL     OW47631  13.596  13.518   7.972
15245SOL    HW147632  13.638  13.492   8.054
15245SOL    HW247633  13.561  13.436   7.936
15246SOL     OW47634  10.017  11.872  12.952
15246SOL    HW147635   9.987  11.792  12.994
15246SOL    HW247636   9.973  11.942  13.001
15247SOL     OW47637   4.593  11.295   0.436
15247SOL    HW147638   4.559  11.209   0.409
15247SOL    HW247639   4.569  11.354   0.365
15248SOL     OW47640   6.180  13.029   7.503
15248SOL    HW147641   6.114  13.054   7.567
15248SOL    HW247642   6.196  12.936   7.520
15249SOL     OW47643   8.602   7.231   3.970
15249SOL    HW147644   8.636   7.292   4.035
15249SOL    HW247645   8.620   7.272   3.886
15250SOL     OW47646   0.403  12.154   3.566
15250SOL    HW147647   0.316  12.157   3.606
15250SOL    HW247648   0.388  12.118   3.479
15251SOL     OW47649   9.615  10.286   5.279
15251SOL    HW147650   9.602  10.370   5.235
15251SOL    HW247651   9.675  10.307   5.352
15252SOL     OW47652  12.977   6.181   2.010
15252SOL    HW147653  13.000   6.200   2.101
15252SOL    HW247654  12.948   6.265   1.974
15253SOL     OW47655   2.467  10.574   5.432
15253SOL    HW147656   2.512  10.605   5.511
15253SOL    HW247657   2.506  10.625   5.361
15254SOL     OW47658  11.861   6.173   0.161
15254SOL    HW147659  11.832   6.256   0.199
15254SOL    HW247660  11.873   6.192   0.068
15255SOL     OW47661   8.257   2.108   3.751
15255SOL    HW147662   8.347   2.123   3.721
15255SOL    HW247663   8.266   2.091   3.845
15256SOL     OW47664   4.311   0.938   9.903
15256SOL    HW147665   4.276   0.945   9.814
15256SOL    HW247666   4.375   0.867   9.899
15257SOL     OW47667  12.436  14.413  12.695
15257SOL    HW147668  12.468  14.448  12.779
15257SOL    HW247669  12.426  14.319  12.710
15258SOL     OW47670   9.447   0.662   7.022
15258SOL    HW147671   9.514   0.719   6.984
15258SOL    HW247672   9.434   0.594   6.956
15259SOL     OW47673  11.068   9.280   8.945
15259SOL    HW147674  11.034   9.270   8.856
15259SOL    HW247675  11.055   9.372   8.965
15260SOL     OW47676   7.525   4.444   4.642
15260SOL    HW147677   7.604   4.498   4.643
15260SOL    HW247678   7.454   4.506   4.655
15261SOL     OW47679   1.572   6.444  13.616
15261SOL    HW147680   1.502   6.455  13.680
15261SOL    HW247681   1.592   6.350  13.618
15262SOL     OW47682  12.954  10.210   9.773
15262SOL    HW147683  12.998  10.277   9.721
15262SOL    HW247684  12.925  10.256   9.852
15263SOL     OW47685   8.332  10.962   0.282
15263SOL    HW147686   8.400  11.018   0.321
15263SOL    HW247687   8.349  10.875   0.320
15264SOL     OW47688  11.848  11.780   1.736
15264SOL    HW147689  11.936  11.747   1.717
15264SOL    HW247690  11.790  11.716   1.697
15265SOL     OW47691  10.357   4.799  10.917
15265SOL    HW147692  10.412   4.757  10.851
15265SOL    HW247693  10.292   4.733  10.940
15266SOL     OW47694   8.840  10.768  10.414
15266SOL    HW147695   8.861  10.833  10.480
15266SOL    HW247696   8.923  10.725  10.394
15267SOL     OW47697   1.107   0.476   5.596
15267SOL    HW147698   1.153   0.458   5.678
15267SOL    HW247699   1.177   0.487   5.531
15268SOL     OW47700   7.448   4.760   9.261
15268SOL    HW147701   7.542   4.741   9.266
15268SOL    HW247702   7.441   4.826   9.192
15269SOL     OW47703   2.938  11.706  13.354
15269SOL    HW147704   2.873  11.736  13.290
15269SOL    HW247705   2.894  11.716  13.439
15270SOL     OW47706  10.830   5.162   4.101
15270SOL    HW147707  10.820   5.255   4.120
15270SOL    HW247708  10.854   5.158   4.009
15271SOL     OW47709   9.602  14.721   9.820
15271SOL    HW147710   9.559  14.667   9.886
15271SOL    HW247711   9.693  14.692   9.821
15272SOL     OW47712   1.422  14.307  14.408
15272SOL    HW147713   1.435  14.401  14.413
15272SOL    HW247714   1.409  14.290  14.315
15273SOL     OW47715  13.589   9.952  12.072
15273SOL    HW147716  13.631   9.918  11.993
15273SOL    HW247717  13.636  10.034  12.090
15274SOL     OW47718  10.750   0.796  14.244
15274SOL    HW147719  10.736   0.706  14.275
15274SOL    HW247720  10.779   0.787  14.154
15275SOL     OW47721  11.508   0.575  14.752
15275SOL    HW147722  11.592   0.620  14.743
15275SOL    HW247723  11.450   0.619  14.689
15276SOL     OW47724   8.290   5.944   7.340
15276SOL    HW147725   8.364   5.885   7.336
15276SOL    HW247726   8.226   5.907   7.278
15277SOL     OW47727   7.486  11.076   9.162
15277SOL    HW147728   7.544  11.010   9.124
15277SOL    HW247729   7.405  11.029   9.183
15278SOL     OW47730   7.405  10.593   6.207
15278SOL    HW147731   7.399  10.527   6.276
15278SOL    HW247732   7.320  10.589   6.163
15279SOL     OW47733  11.867   4.089   6.453
15279SOL    HW147734  11.934   4.153   6.427
15279SOL    HW247735  11.790   4.142   6.474
15280SOL     OW47736   4.312  11.280   0.847
15280SOL    HW147737   4.317  11.184   0.844
15280SOL    HW247738   4.305  11.307   0.756
15281SOL     OW47739   1.148  14.398  10.618
15281SOL    HW147740   1.210  14.325  10.621
15281SOL    HW247741   1.147  14.425  10.526
15282SOL     OW47742  12.063   0.040   9.394
15282SOL    HW147743  12.116   0.014   9.318
15282SOL    HW247744  12.087  14.857   9.462
15283SOL     OW47745   8.786   6.439   7.374
15283SOL    HW147746   8.721   6.487   7.322
15283SOL    HW247747   8.852   6.412   7.310
15284SOL     OW47748   1.818   7.713   5.732
15284SOL    HW147749   1.741   7.695   5.785
15284SOL    HW247750   1.782   7.735   5.645
15285SOL     OW47751  14.837   5.468  11.059
15285SOL    HW147752   0.037   5.510  11.092
15285SOL    HW247753  14.818   5.400  11.124
15286SOL     OW47754   5.832   4.748   0.461
15286SOL    HW147755   5.870   4.749   0.373
15286SOL    HW247756   5.891   4.804   0.513
15287SOL     OW47757   7.064   6.093   9.369
15287SOL    HW147758   7.046   6.035   9.443
15287SOL    HW247759   6.991   6.155   9.368
15288SOL     OW47760   6.128   1.284  12.786
15288SOL    HW147761   6.153   1.266  12.695
15288SOL    HW247762   6.093   1.201  12.818
15289SOL     OW47763   7.782   0.573  14.314
15289SOL    HW147764   7.689   0.555  14.325
15289SOL    HW247765   7.795   0.659  14.355
15290SOL     OW47766   5.718  13.715   8.614
15290SOL    HW147767   5.716  13.811   8.615
15290SOL    HW247768   5.762  13.693   8.532
15291SOL     OW47769   2.942   0.646   0.474
15291SOL    HW147770   3.003   0.716   0.451
15291SOL    HW247771   2.863   0.693   0.504
15292SOL     OW47772   8.559  12.234   1.022
15292SOL    HW147773   8.574  12.298   0.953
15292SOL    HW247774   8.504  12.279   1.086
15293SOL     OW47775  12.758  11.772  14.591
15293SOL    HW147776  12.818  11.801  14.659
15293SOL    HW247777  12.776  11.678  14.581
15294SOL     OW47778   6.223  14.672   5.053
15294SOL    HW147779   6.202  14.633   4.968
15294SOL    HW247780   6.319  14.672   5.056
15295SOL     OW47781   9.360   8.161  13.770
15295SOL    HW147782   9.400   8.248  13.767
15295SOL    HW247783   9.433   8.101  13.764
15296SOL     OW47784   7.188   7.784  11.525
15296SOL    HW147785   7.230   7.713  11.477
15296SOL    HW247786   7.096   7.761  11.527
15297SOL     OW47787   4.671  13.811  10.701
15297SOL    HW147788   4.720  13.733  10.675
15297SOL    HW247789   4.599  13.817  10.638
15298SOL     OW47790   1.059   5.726   8.563
15298SOL    HW147791   1.082   5.786   8.633
15298SOL    HW247792   0.970   5.698   8.583
15299SOL     OW47793   1.411  12.128  13.122
15299SOL    HW147794   1.399  12.208  13.071
15299SOL    HW247795   1.466  12.156  13.196
15300SOL     OW47796   8.046   8.426   4.758
15300SOL    HW147797   8.072   8.461   4.843
15300SOL    HW247798   8.073   8.334   4.761
15301SOL     OW47799   3.624   5.324   8.572
15301SOL    HW147800   3.591   5.414   8.580
15301SOL    HW247801   3.627   5.291   8.661
15302SOL     OW47802   7.676   4.393  10.365
15302SOL    HW147803   7.633   4.416  10.283
15302SOL    HW247804   7.642   4.306  10.386
15303SOL     OW47805   5.282  12.827   7.821
15303SOL    HW147806   5.203  12.881   7.818
15303SOL    HW247807   5.324  12.841   7.736
15304SOL     OW47808  10.977   9.061   2.554
15304SOL    HW147809  10.989   9.153   2.574
15304SOL    HW247810  10.887   9.041   2.581
15305SOL     OW47811   6.179  11.244  13.796
15305SOL    HW147812   6.089  11.257  13.826
15305SOL    HW247813   6.191  11.308  13.726
15306SOL     OW47814   0.804   3.109   3.992
15306SOL    HW147815   0.869   3.070   4.051
15306SOL    HW247816   0.829   3.076   3.905
15307SOL     OW47817   0.256   5.869   5.737
15307SOL    HW147818   0.257   5.950   5.686
15307SOL    HW247819   0.260   5.899   5.828
15308SOL     OW47820   9.497  14.810   4.186
15308SOL    HW147821   9.466  14.749   4.119
15308SOL    HW247822   9.586  14.782   4.205
15309SOL     OW47823   4.231   4.751  13.929
15309SOL    HW147824   4.215   4.844  13.912
15309SOL    HW247825   4.154   4.722  13.977
15310SOL     OW47826   5.303   0.330   1.669
15310SOL    HW147827   5.346   0.376   1.740
15310SOL    HW247828   5.366   0.263   1.642
15311SOL     OW47829   9.530   7.940   8.528
15311SOL    HW147830   9.592   8.012   8.513
15311SOL    HW247831   9.451   7.984   8.558
15312SOL     OW47832   9.736   2.069   0.944
15312SOL    HW147833   9.794   2.140   0.917
15312SOL    HW247834   9.719   2.087   1.037
15313SOL     OW47835   6.867   7.117   2.402
15313SOL    HW147836   6.890   7.185   2.466
15313SOL    HW247837   6.949   7.099   2.356
15314SOL     OW47838  11.137   2.752  11.313
15314SOL    HW147839  11.172   2.839  11.292
15314SOL    HW247840  11.151   2.744  11.407
15315SOL     OW47841   2.916   3.620  14.010
15315SOL    HW147842   2.999   3.592  14.047
15315SOL    HW247843   2.935   3.706  13.973
15316SOL     OW47844   7.269   9.728   9.880
15316SOL    HW147845   7.359   9.718   9.847
15316SOL    HW247846   7.277   9.718   9.975
15317SOL     OW47847   6.139   8.743   0.953
15317SOL    HW147848   6.150   8.691   0.874
15317SOL    HW247849   6.066   8.802   0.934
15318SOL     OW47850  13.753   5.819   6.364
15318SOL    HW147851  13.777   5.857   6.280
15318SOL    HW247852  13.658   5.807   6.359
15319SOL     OW47853   9.647   3.451   4.714
15319SOL    HW147854   9.721   3.411   4.668
15319SOL    HW247855   9.641   3.539   4.678
15320SOL     OW47856  10.306   9.962   7.760
15320SOL    HW147857  10.255   9.985   7.682
15320SOL    HW247858  10.273   9.876   7.786
15321SOL     OW47859  12.766   1.840   9.076
15321SOL    HW147860  12.723   1.764   9.114
15321SOL    HW247861  12.858   1.815   9.068
15322SOL     OW47862   1.548  13.132  10.846
15322SOL    HW147863   1.480  13.195  10.824
15322SOL    HW247864   1.517  13.049  10.810
15323SOL     OW47865   7.741   5.558   6.596
15323SOL    HW147866   7.823   5.578   6.552
15323SOL    HW247867   7.762   5.562   6.689
15324SOL     OW47868  10.839  11.832  11.959
15324SOL    HW147869  10.743  11.834  11.959
15324SOL    HW247870  10.864  11.900  12.021
15325SOL     OW47871   0.984   7.852  10.835
15325SOL    HW147872   0.957   7.943  10.822
15325SOL    HW247873   0.902   7.802  10.835
15326SOL     OW47874   2.035  10.170  12.314
15326SOL    HW147875   2.012  10.079  12.330
15326SOL    HW247876   2.125  10.178  12.346
15327SOL     OW47877  10.823   3.599   6.209
15327SOL    HW147878  10.744   3.552   6.235
15327SOL    HW247879  10.801   3.692   6.218
15328SOL     OW47880   1.342   6.622  10.316
15328SOL    HW147881   1.415   6.559  10.313
15328SOL    HW247882   1.309   6.624  10.226
15329SOL     OW47883   7.830  14.130  12.268
15329SOL    HW147884   7.771  14.062  12.235
15329SOL    HW247885   7.783  14.212  12.251
15330SOL     OW47886   8.680  13.228   7.050
15330SOL    HW147887   8.628  13.285   7.107
15330SOL    HW247888   8.763  13.216   7.097
15331SOL     OW47889   3.737   0.030   3.734
15331SOL    HW147890   3.721  14.847   3.664
15331SOL    HW247891   3.651   0.049   3.771
15332SOL     OW47892  13.054   5.279   1.276
15332SOL    HW147893  13.131   5.243   1.232
15332SOL    HW247894  12.993   5.206   1.280
15333SOL     OW47895  13.843   7.638  11.706
15333SOL    HW147896  13.879   7.710  11.654
15333SOL    HW247897  13.814   7.574  11.642
15334SOL     OW47898   4.275  11.594  13.685
15334SOL    HW147899   4.180  11.599  13.686
15334SOL    HW247900   4.295  11.500  13.687
15335SOL     OW47901   0.928  12.787   7.422
15335SOL    HW147902   0.871  12.840   7.366
15335SOL    HW247903   0.869  12.746   7.484
15336SOL     OW47904  10.535  14.046   4.951
15336SOL    HW147905  10.447  14.010   4.958
15336SOL    HW247906  10.542  14.108   5.024
15337SOL     OW47907   4.273   3.976  14.151
15337SOL    HW147908   4.269   4.072  14.145
15337SOL    HW247909   4.214   3.945  14.083
15338SOL     OW47910   7.582   1.083   3.093
15338SOL    HW147911   7.540   1.002   3.065
15338SOL    HW247912   7.653   1.055   3.151
15339SOL     OW47913   3.611   1.946  14.679
15339SOL    HW147914   3.568   2.023  14.716
15339SOL    HW247915   3.650   1.902  14.754
15340SOL     OW47916  10.797   0.213   1.829
15340SOL    HW147917  10.813   0.169   1.745
15340SOL    HW247918  10.749   0.292   1.805
15341SOL     OW47919  10.854  12.272  11.527
15341SOL    HW147920  10.900  12.192  11.556
15341SOL    HW247921  10.772  12.271  11.575
15342SOL     OW47922   9.929  11.263  12.083
15342SOL    HW147923   9.879  11.230  12.008
15342SOL    HW247924   9.993  11.323  12.045
15343SOL     OW47925  10.310   8.311   1.117
15343SOL    HW147926  10.348   8.249   1.179
15343SOL    HW247927  10.349   8.287   1.032
15344SOL     OW47928   2.673  14.722   4.539
15344SOL    HW147929   2.650  14.815   4.546
15344SOL    HW247930   2.689  14.708   4.446
15345SOL     OW47931  12.123   4.153   2.146
15345SOL    HW147932  12.191   4.096   2.111
15345SOL    HW247933  12.142   4.239   2.109
15346SOL     OW47934   9.250  10.155   6.965
15346SOL    HW147935   9.195  10.078   6.979
15346SOL    HW247936   9.195  10.216   6.916
15347SOL     OW47937   2.317   5.162   3.916
15347SOL    HW147938   2.323   5.258   3.922
15347SOL    HW247939   2.233   5.146   3.874
15348SOL     OW47940   3.723  10.816  13.219
15348SOL    HW147941   3.734  10.804  13.314
15348SOL    HW247942   3.697  10.908  13.209
15349SOL     OW47943   4.671   2.316   1.957
15349SOL    HW147944   4.728   2.329   2.033
15349SOL    HW247945   4.728   2.277   1.891
15350SOL     OW47946  10.381   0.213   7.474
15350SOL    HW147947  10.305   0.242   7.423
15350SOL    HW247948  10.362   0.122   7.497
15351SOL     OW47949  13.793   9.329   9.787
15351SOL    HW147950  13.850   9.308   9.713
15351SOL    HW247951  13.769   9.421   9.775
15352SOL     OW47952   2.090   6.829   2.603
15352SOL    HW147953   2.083   6.820   2.508
15352SOL    HW247954   2.001   6.816   2.635
15353SOL     OW47955   8.320   2.224  11.584
15353SOL    HW147956   8.231   2.234  11.619
15353SOL    HW247957   8.375   2.213  11.661
15354SOL     OW47958   5.475   1.490  10.605
15354SOL    HW147959   5.550   1.515  10.550
15354SOL    HW247960   5.402   1.541  10.570
15355SOL     OW47961  14.203   3.915   3.660
15355SOL    HW147962  14.174   3.993   3.613
15355SOL    HW247963  14.172   3.928   3.750
15356SOL     OW47964  10.733   8.275   9.139
15356SOL    HW147965  10.710   8.351   9.192
15356SOL    HW247966  10.648   8.234   9.119
15357SOL     OW47967   5.622   8.707   7.648
15357SOL    HW147968   5.636   8.624   7.694
15357SOL    HW247969   5.550   8.689   7.587
15358SOL     OW47970  12.307   8.987   7.816
15358SOL    HW147971  12.395   9.012   7.845
15358SOL    HW247972  12.309   8.892   7.814
15359SOL     OW47973   6.276  13.989   0.313
15359SOL    HW147974   6.290  14.051   0.384
15359SOL    HW247975   6.293  13.903   0.352
15360SOL     OW47976  13.775   7.465   1.789
15360SOL    HW147977  13.690   7.466   1.746
15360SOL    HW247978  13.810   7.377   1.772
15361SOL     OW47979   2.221   5.319   4.657
15361SOL    HW147980   2.199   5.403   4.618
15361SOL    HW247981   2.237   5.338   4.749
15362SOL     OW47982   4.390   0.722   4.711
15362SOL    HW147983   4.307   0.766   4.730
15362SOL    HW247984   4.365   0.639   4.671
15363SOL     OW47985   4.060   7.477   4.591
15363SOL    HW147986   4.046   7.470   4.685
15363SOL    HW247987   4.046   7.570   4.571
15364SOL     OW47988  13.309   9.250  13.513
15364SOL    HW147989  13.385   9.192  13.515
15364SOL    HW247990  13.276   9.244  13.424
15365SOL     OW47991  10.602   2.408  12.245
15365SOL    HW147992  10.539   2.336  12.253
15365SOL    HW247993  10.608   2.424  12.151
15366SOL     OW47994  13.351   8.242   2.842
15366SOL    HW147995  13.340   8.222   2.935
15366SOL    HW247996  13.416   8.179   2.811
15367SOL     OW47997  10.757  13.939   8.970
15367SOL    HW147998  10.804  13.877   9.026
15367SOL    HW247999  10.827  13.989   8.927
15368SOL     OW48000  10.996   7.789   1.786
15368SOL    HW148001  11.072   7.847   1.797
15368SOL    HW248002  10.983   7.751   1.873
15369SOL     OW48003   7.501  13.858  12.412
15369SOL    HW148004   7.531  13.902  12.491
15369SOL    HW248005   7.569  13.794  12.392
15370SOL     OW48006   8.502   7.377  13.762
15370SOL    HW148007   8.575   7.423  13.803
15370SOL    HW248008   8.543   7.309  13.709
15371SOL     OW48009  14.026   1.371  11.860
15371SOL    HW148010  14.044   1.280  11.880
15371SOL    HW248011  14.113   1.410  11.844
15372SOL     OW48012   9.991  14.858   8.012
15372SOL    HW148013   9.958   0.064   8.036
15372SOL    HW248014   9.921  14.797   8.036
15373SOL     OW48015  13.435   7.272  13.364
15373SOL    HW148016  13.348   7.301  13.335
15373SOL    HW248017  13.418   7.224  13.445
15374SOL     OW48018   0.950   5.786   0.441
15374SOL    HW148019   0.999   5.733   0.377
15374SOL    HW248020   1.012   5.798   0.514
15375SOL     OW48021  11.101  13.086  13.550
15375SOL    HW148022  11.192  13.114  13.566
15375SOL    HW248023  11.072  13.053  13.635
15376SOL     OW48024   7.889   9.275   6.993
15376SOL    HW148025   7.809   9.313   6.954
15376SOL    HW248026   7.858   9.197   7.039
15377SOL     OW48027   2.919   8.342  14.863
15377SOL    HW148028   2.930   8.299  14.778
15377SOL    HW248029   3.000   8.324   0.030
15378SOL     OW48030   9.832   2.745   7.080
15378SOL    HW148031   9.758   2.712   7.131
15378SOL    HW248032   9.899   2.767   7.145
15379SOL     OW48033   3.512  10.714   9.911
15379SOL    HW148034   3.448  10.772   9.953
15379SOL    HW248035   3.548  10.766   9.839
15380SOL     OW48036  13.187   8.291   5.767
15380SOL    HW148037  13.265   8.299   5.712
15380SOL    HW248038  13.164   8.381   5.791
15381SOL     OW48039   6.228   8.887  14.105
15381SOL    HW148040   6.188   8.802  14.128
15381SOL    HW248041   6.244   8.882  14.011
15382SOL     OW48042   6.792   1.534   3.236
15382SOL    HW148043   6.861   1.504   3.176
15382SOL    HW248044   6.724   1.569   3.178
15383SOL     OW48045   7.432  10.142   4.881
15383SOL    HW148046   7.399  10.108   4.798
15383SOL    HW248047   7.482  10.069   4.918
15384SOL     OW48048   0.415   5.217   6.699
15384SOL    HW148049   0.458   5.131   6.700
15384SOL    HW248050   0.367   5.218   6.617
15385SOL     OW48051   5.263  13.468   5.182
15385SOL    HW148052   5.262  13.546   5.127
15385SOL    HW248053   5.175  13.465   5.221
15386SOL     OW48054  11.523  11.616   8.958
15386SOL    HW148055  11.463  11.562   8.906
15386SOL    HW248056  11.465  11.673   9.010
15387SOL     OW48057   7.395  10.500   9.895
15387SOL    HW148058   7.359  10.512   9.983
15387SOL    HW248059   7.389  10.406   9.879
15388SOL     OW48060  13.567   3.134   2.134
15388SOL    HW148061  13.554   3.228   2.126
15388SOL    HW248062  13.480   3.096   2.120
15389SOL     OW48063   0.695   0.656   5.315
15389SOL    HW148064   0.624   0.631   5.374
15389SOL    HW248065   0.741   0.574   5.298
15390SOL     OW48066   1.002   8.387  12.133
15390SOL    HW148067   0.909   8.410  12.126
15390SOL    HW248068   1.027   8.363  12.043
15391SOL     OW48069   4.098  12.721  13.882
15391SOL    HW148070   4.072  12.631  13.898
15391SOL    HW248071   4.051  12.746  13.802
15392SOL     OW48072  12.045  10.933  10.603
15392SOL    HW148073  11.968  10.878  10.616
15392SOL    HW248074  12.031  11.008  10.660
15393SOL     OW48075   8.295   3.179   4.469
15393SOL    HW148076   8.268   3.244   4.534
15393SOL    HW248077   8.214   3.133   4.446
15394SOL     OW48078   5.318   1.493   0.800
15394SOL    HW148079   5.372   1.531   0.731
15394SOL    HW248080   5.355   1.406   0.816
15395SOL     OW48081   7.020   2.652  14.192
15395SOL    HW148082   7.042   2.580  14.251
15395SOL    HW248083   7.008   2.727  14.250
15396SOL     OW48084   9.953  11.029   5.522
15396SOL    HW148085  10.002  10.948   5.534
15396SOL    HW248086  10.019  11.094   5.499
15397SOL     OW48087   6.619  11.757  12.992
15397SOL    HW148088   6.682  11.687  13.009
15397SOL    HW248089   6.538  11.710  12.967
15398SOL     OW48090   0.171   3.835   7.377
15398SOL    HW148091   0.119   3.755   7.371
15398SOL    HW248092   0.136   3.880   7.454
15399SOL     OW48093  12.095   3.764  13.970
15399SOL    HW148094  12.108   3.813  13.889
15399SOL    HW248095  12.159   3.692  13.965
15400SOL     OW48096   7.563  14.265   4.851
15400SOL    HW148097   7.647  14.274   4.896
15400SOL    HW248098   7.510  14.210   4.910
15401SOL     OW48099   6.139   7.924   0.530
15401SOL    HW148100   6.063   7.943   0.586
15401SOL    HW248101   6.176   7.844   0.567
15402SOL     OW48102  11.485   7.677   0.268
15402SOL    HW148103  11.440   7.651   0.349
15402SOL    HW248104  11.447   7.763   0.246
15403SOL     OW48105   8.348   1.838  10.782
15403SOL    HW148106   8.291   1.761  10.776
15403SOL    HW248107   8.287   1.912  10.791
15404SOL     OW48108   6.500  11.583   9.352
15404SOL    HW148109   6.450  11.502   9.345
15404SOL    HW248110   6.574  11.570   9.292
15405SOL     OW48111  14.756   8.505   0.423
15405SOL    HW148112  14.723   8.583   0.377
15405SOL    HW248113  14.849   8.501   0.399
15406SOL     OW48114   2.696   6.751  14.107
15406SOL    HW148115   2.603   6.752  14.082
15406SOL    HW248116   2.716   6.842  14.127
15407SOL     OW48117   1.145   6.718  14.778
15407SOL    HW148118   1.188   6.767  14.849
15407SOL    HW248119   1.176   6.628  14.790
15408SOL     OW48120  13.471  10.661   3.778
15408SOL    HW148121  13.489  10.589   3.838
15408SOL    HW248122  13.382  10.689   3.800
15409SOL     OW48123   0.901   7.934   2.607
15409SOL    HW148124   0.828   7.987   2.575
15409SOL    HW248125   0.905   7.860   2.546
15410SOL     OW48126   4.572   0.772   9.679
15410SOL    HW148127   4.493   0.741   9.724
15410SOL    HW248128   4.643   0.719   9.716
15411SOL     OW48129   1.421  13.107   1.620
15411SOL    HW148130   1.353  13.095   1.686
15411SOL    HW248131   1.416  13.200   1.597
15412SOL     OW48132   5.449  11.627   6.267
15412SOL    HW148133   5.434  11.542   6.309
15412SOL    HW248134   5.444  11.690   6.338
15413SOL     OW48135   2.624  11.346  12.611
15413SOL    HW148136   2.586  11.258  12.611
15413SOL    HW248137   2.613  11.377  12.700
15414SOL     OW48138   3.856  12.548  12.537
15414SOL    HW148139   3.932  12.587  12.581
15414SOL    HW248140   3.838  12.469  12.588
15415SOL     OW48141   7.651   0.438  12.344
15415SOL    HW148142   7.583   0.385  12.385
15415SOL    HW248143   7.662   0.514  12.401
15416SOL     OW48144  14.101   9.921   1.986
15416SOL    HW148145  14.009   9.895   1.989
15416SOL    HW248146  14.149   9.843   2.012
15417SOL     OW48147   7.590   2.437   9.318
15417SOL    HW148148   7.647   2.467   9.247
15417SOL    HW248149   7.504   2.474   9.298
15418SOL     OW48150   0.882  14.819   7.820
15418SOL    HW148151   0.805  14.836   7.874
15418SOL    HW248152   0.902  14.726   7.836
15419SOL     OW48153   9.040  12.855  13.828
15419SOL    HW148154   8.956  12.884  13.791
15419SOL    HW248155   9.097  12.932  13.821
15420SOL     OW48156  12.354   4.530   4.182
15420SOL    HW148157  12.312   4.446   4.201
15420SOL    HW248158  12.440   4.505   4.146
15421SOL     OW48159  12.808  13.567   6.327
15421SOL    HW148160  12.799  13.645   6.382
15421SOL    HW248161  12.785  13.494   6.385
15422SOL     OW48162   4.759   3.611  14.493
15422SOL    HW148163   4.747   3.581  14.583
15422SOL    HW248164   4.818   3.546  14.454
15423SOL     OW48165   2.459   4.205   0.327
15423SOL    HW148166   2.394   4.272   0.305
15423SOL    HW248167   2.466   4.152   0.247
15424SOL     OW48168   7.793   6.022   8.157
15424SOL    HW148169   7.870   5.966   8.143
15424SOL    HW248170   7.829   6.110   8.166
15425SOL     OW48171   9.731  11.492   4.316
15425SOL    HW148172   9.793  11.563   4.303
15425SOL    HW248173   9.777  11.414   4.285
15426SOL     OW48174   8.458   2.433   8.031
15426SOL    HW148175   8.444   2.416   7.938
15426SOL    HW248176   8.546   2.471   8.036
15427SOL     OW48177   7.393   6.214  10.830
15427SOL    HW148178   7.397   6.198  10.924
15427SOL    HW248179   7.458   6.153  10.793
15428SOL     OW48180   8.412   2.943   5.623
15428SOL    HW148181   8.326   2.929   5.584
15428SOL    HW248182   8.444   3.024   5.584
15429SOL     OW48183   1.000  11.907  14.387
15429SOL    HW148184   1.024  11.890  14.296
15429SOL    HW248185   0.974  11.999  14.388
15430SOL     OW48186  14.799  11.803   8.636
15430SOL    HW148187  14.799  11.777   8.544
15430SOL    HW248188  14.868  11.751   8.676
15431SOL     OW48189  14.447   7.933   1.580
15431SOL    HW148190  14.527   7.881   1.593
15431SOL    HW248191  14.418   7.908   1.492
15432SOL     OW48192   2.799   4.528   0.996
15432SOL    HW148193   2.749   4.566   0.924
15432SOL    HW248194   2.787   4.590   1.069
15433SOL     OW48195   5.304  13.593   1.619
15433SOL    HW148196   5.396  13.573   1.633
15433SOL    HW248197   5.298  13.615   1.526
15434SOL     OW48198  13.557  12.634   4.420
15434SOL    HW148199  13.586  12.647   4.511
15434SOL    HW248200  13.480  12.579   4.428
15435SOL     OW48201   0.110  10.321   1.732
15435SOL    HW148202   0.116  10.267   1.653
15435SOL    HW248203   0.200  10.330   1.762
15436SOL     OW48204   0.826   9.393   7.964
15436SOL    HW148205   0.766   9.352   8.027
15436SOL    HW248206   0.808   9.486   7.969
15437SOL     OW48207   0.322   0.094   7.881
15437SOL    HW148208   0.315   0.189   7.879
15437SOL    HW248209   0.234   0.063   7.903
15438SOL     OW48210   7.678  12.180   9.415
15438SOL    HW148211   7.770  12.201   9.427
15438SOL    HW248212   7.662  12.108   9.476
15439SOL     OW48213  12.545   3.834   5.010
15439SOL    HW148214  12.549   3.748   5.050
15439SOL    HW248215  12.613   3.832   4.943
15440SOL     OW48216  10.929   6.092  14.441
15440SOL    HW148217  11.003   6.147  14.468
15440SOL    HW248218  10.851   6.139  14.473
15441SOL     OW48219   1.740   8.900   0.173
15441SOL    HW148220   1.777   8.821   0.133
15441SOL    HW248221   1.689   8.868   0.247
15442SOL     OW48222  14.689   7.900  10.978
15442SOL    HW148223  14.760   7.836  10.976
15442SOL    HW248224  14.692   7.941  10.892
15443SOL     OW48225   0.007   5.848   0.834
15443SOL    HW148226   0.030   5.768   0.880
15443SOL    HW248227  14.806   5.827   0.787
15444SOL     OW48228   1.338  14.363   4.720
15444SOL    HW148229   1.391  14.285   4.706
15444SOL    HW248230   1.252  14.329   4.747
15445SOL     OW48231   1.195  11.625   4.886
15445SOL    HW148232   1.245  11.563   4.939
15445SOL    HW248233   1.262  11.679   4.843
15446SOL     OW48234   9.410   6.082   9.571
15446SOL    HW148235   9.457   6.124   9.499
15446SOL    HW248236   9.454   6.112   9.650
15447SOL     OW48237   4.643   1.804   0.641
15447SOL    HW148238   4.630   1.874   0.705
15447SOL    HW248239   4.698   1.844   0.573
15448SOL     OW48240   9.055   0.792   0.640
15448SOL    HW148241   9.124   0.810   0.704
15448SOL    HW248242   8.976   0.830   0.678
15449SOL     OW48243   7.712   3.420  12.071
15449SOL    HW148244   7.776   3.464  12.016
15449SOL    HW248245   7.733   3.447  12.161
15450SOL     OW48246  12.530   5.862   9.043
15450SOL    HW148247  12.606   5.915   9.064
15450SOL    HW248248  12.566   5.786   8.997
15451SOL     OW48249   7.995  13.750  12.403
15451SOL    HW148250   7.996  13.838  12.440
15451SOL    HW248251   7.965  13.762  12.313
15452SOL     OW48252   0.107  12.949   4.641
15452SOL    HW148253   0.015  12.920   4.640
15452SOL    HW248254   0.103  13.040   4.613
15453SOL     OW48255   9.474  13.472   4.494
15453SOL    HW148256   9.470  13.540   4.562
15453SOL    HW248257   9.400  13.415   4.512
15454SOL     OW48258   9.539  11.714   9.114
15454SOL    HW148259   9.525  11.655   9.040
15454SOL    HW248260   9.450  11.733   9.146
15455SOL     OW48261  12.881  10.631  10.692
15455SOL    HW148262  12.828  10.625  10.772
15455SOL    HW248263  12.939  10.706  10.708
15456SOL     OW48264   3.463  11.701  14.140
15456SOL    HW148265   3.525  11.770  14.114
15456SOL    HW248266   3.410  11.687  14.062
15457SOL     OW48267   4.449   6.701   9.960
15457SOL    HW148268   4.486   6.673  10.044
15457SOL    HW248269   4.450   6.623   9.905
15458SOL     OW48270  13.028   2.011   6.094
15458SOL    HW148271  12.973   2.009   6.172
15458SOL    HW248272  13.048   2.104   6.081
15459SOL     OW48273  12.446   4.909   2.954
15459SOL    HW148274  12.433   4.999   2.985
15459SOL    HW248275  12.537   4.907   2.924
15460SOL     OW48276   1.728   0.822   2.915
15460SOL    HW148277   1.761   0.785   2.996
15460SOL    HW248278   1.731   0.917   2.929
15461SOL     OW48279   4.850   4.467   4.192
15461SOL    HW148280   4.932   4.419   4.186
15461SOL    HW248281   4.875   4.559   4.182
15462SOL     OW48282   6.848   4.332  14.403
15462SOL    HW148283   6.774   4.381  14.367
15462SOL    HW248284   6.817   4.242  14.406
15463SOL     OW48285   5.831  14.571  12.750
15463SOL    HW148286   5.757  14.624  12.721
15463SOL    HW248287   5.895  14.580  12.680
15464SOL     OW48288   2.000   3.737   1.524
15464SOL    HW148289   2.091   3.760   1.544
15464SOL    HW248290   2.006   3.692   1.439
15465SOL     OW48291  13.253  13.794   2.305
15465SOL    HW148292  13.343  13.818   2.285
15465SOL    HW248293  13.260  13.713   2.357
15466SOL     OW48294   4.207  11.648  12.125
15466SOL    HW148295   4.186  11.555  12.132
15466SOL    HW248296   4.296  11.650  12.091
15467SOL     OW48297   6.552   0.913   5.553
15467SOL    HW148298   6.630   0.952   5.592
15467SOL    HW248299   6.518   0.981   5.495
15468SOL     OW48300   6.046   2.815   4.258
15468SOL    HW148301   6.061   2.907   4.276
15468SOL    HW248302   5.994   2.814   4.177
15469SOL     OW48303   6.923   4.707  14.731
15469SOL    HW148304   6.967   4.787  14.701
15469SOL    HW248305   6.877   4.674  14.654
15470SOL     OW48306   5.091  12.662   8.538
15470SOL    HW148307   5.182  12.683   8.557
15470SOL    HW248308   5.069  12.591   8.598
15471SOL     OW48309  11.144   6.332   0.092
15471SOL    HW148310  11.212   6.301   0.032
15471SOL    HW248311  11.169   6.295   0.177
15472SOL     OW48312   6.104   3.276   6.504
15472SOL    HW148313   6.050   3.251   6.430
15472SOL    HW248314   6.050   3.339   6.553
15473SOL     OW48315   5.507   1.386  13.989
15473SOL    HW148316   5.560   1.362  14.065
15473SOL    HW248317   5.439   1.319  13.984
15474SOL     OW48318   1.399   5.779  14.834
15474SOL    HW148319   1.356   5.863  14.816
15474SOL    HW248320   1.449   5.795   0.034
15475SOL     OW48321   1.428  12.544   3.164
15475SOL    HW148322   1.345  12.530   3.117
15475SOL    HW248323   1.407  12.611   3.229
15476SOL     OW48324   4.755   5.871   3.031
15476SOL    HW148325   4.782   5.963   3.031
15476SOL    HW248326   4.668   5.871   3.071
15477SOL     OW48327   2.897  13.691  10.136
15477SOL    HW148328   2.900  13.596  10.139
15477SOL    HW248329   2.937  13.719  10.218
15478SOL     OW48330   4.535   9.703  14.613
15478SOL    HW148331   4.480   9.737  14.543
15478SOL    HW248332   4.608   9.661  14.568
15479SOL     OW48333   5.798   9.321   9.520
15479SOL    HW148334   5.791   9.386   9.590
15479SOL    HW248335   5.748   9.246   9.550
15480SOL     OW48336   7.741  14.266  11.163
15480SOL    HW148337   7.794  14.285  11.085
15480SOL    HW248338   7.697  14.184  11.142
15481SOL     OW48339  14.294  12.788  10.568
15481SOL    HW148340  14.298  12.714  10.508
15481SOL    HW248341  14.209  12.829  10.550
15482SOL     OW48342  11.125   4.722   2.585
15482SOL    HW148343  11.057   4.763   2.532
15482SOL    HW248344  11.082   4.705   2.669
15483SOL     OW48345  10.331  10.336   8.503
15483SOL    HW148346  10.366  10.407   8.450
15483SOL    HW248347  10.402  10.312   8.561
15484SOL     OW48348   7.364   3.263   6.489
15484SOL    HW148349   7.390   3.352   6.514
15484SOL    HW248350   7.326   3.226   6.569
15485SOL     OW48351   8.796  14.088  10.695
15485SOL    HW148352   8.856  14.159  10.671
15485SOL    HW248353   8.739  14.126  10.761
15486SOL     OW48354  11.333   9.439  13.915
15486SOL    HW148355  11.279   9.472  13.987
15486SOL    HW248356  11.364   9.353  13.945
15487SOL     OW48357   0.752   7.998   6.374
15487SOL    HW148358   0.797   8.045   6.304
15487SOL    HW248359   0.659   8.002   6.350
15488SOL     OW48360   8.006   1.935   2.334
15488SOL    HW148361   7.915   1.925   2.362
15488SOL    HW248362   8.012   1.887   2.252
15489SOL     OW48363   2.460  14.703   1.400
15489SOL    HW148364   2.541  14.715   1.450
15489SOL    HW248365   2.392  14.743   1.455
15490SOL     OW48366  10.016   5.059  10.897
15490SOL    HW148367  10.035   4.986  10.839
15490SOL    HW248368   9.953   5.112  10.848
15491SOL     OW48369  12.337  10.103  11.777
15491SOL    HW148370  12.350  10.130  11.685
15491SOL    HW248371  12.253  10.058  11.777
15492SOL     OW48372   9.308   6.712  13.958
15492SOL    HW148373   9.253   6.759  13.895
15492SOL    HW248374   9.260   6.718  14.041
15493SOL     OW48375   7.367   2.447   1.133
15493SOL    HW148376   7.298   2.439   1.068
15493SOL    HW248377   7.380   2.541   1.143
15494SOL     OW48378   6.795  10.589  12.828
15494SOL    HW148379   6.806  10.683  12.833
15494SOL    HW248380   6.770  10.572  12.737
15495SOL     OW48381   7.915   1.408   9.258
15495SOL    HW148382   8.005   1.400   9.228
15495SOL    HW248383   7.893   1.500   9.242
15496SOL     OW48384   4.324   0.591   4.289
15496SOL    HW148385   4.277   0.510   4.312
15496SOL    HW248386   4.412   0.577   4.324
15497SOL     OW48387   0.447  12.388   8.456
15497SOL    HW148388   0.359  12.354   8.476
15497SOL    HW248389   0.482  12.414   8.541
15498SOL     OW48390   9.192   2.234   0.044
15498SOL    HW148391   9.103   2.230   0.078
15498SOL    HW248392   9.229   2.314   0.081
15499SOL     OW48393   0.923   1.996  13.106
15499SOL    HW148394   0.966   1.956  13.030
15499SOL    HW248395   0.880   1.923  13.150
15500SOL     OW48396  13.773   7.502   0.684
15500SOL    HW148397  13.710   7.563   0.724
15500SOL    HW248398  13.720   7.427   0.657
15501SOL     OW48399   3.454   2.876   6.598
15501SOL    HW148400   3.503   2.841   6.524
15501SOL    HW248401   3.506   2.950   6.629
15502SOL     OW48402   8.127   3.815   5.787
15502SOL    HW148403   8.164   3.776   5.708
15502SOL    HW248404   8.039   3.780   5.792
15503SOL     OW48405   9.687   5.110   0.182
15503SOL    HW148406   9.659   5.199   0.161
15503SOL    HW248407   9.722   5.076   0.099
15504SOL     OW48408   8.452   8.289   3.881
15504SOL    HW148409   8.448   8.234   3.959
15504SOL    HW248410   8.377   8.261   3.828
15505SOL     OW48411   6.733   4.975   0.286
15505SOL    HW148412   6.706   4.947   0.198
15505SOL    HW248413   6.740   5.070   0.279
15506SOL     OW48414   4.894  10.748  11.787
15506SOL    HW148415   4.884  10.836  11.824
15506SOL    HW248416   4.922  10.763  11.697
15507SOL     OW48417  13.716   3.683   2.084
15507SOL    HW148418  13.686   3.595   2.063
15507SOL    HW248419  13.653   3.741   2.041
15508SOL     OW48420  10.564  11.803  13.320
15508SOL    HW148421  10.593  11.894  13.327
15508SOL    HW248422  10.587  11.764  13.404
15509SOL     OW48423  14.753   9.120   2.174
15509SOL    HW148424  14.737   9.200   2.124
15509SOL    HW248425  14.757   9.149   2.265
15510SOL     OW48426   7.740   5.063   5.250
15510SOL    HW148427   7.685   5.090   5.177
15510SOL    HW248428   7.791   5.141   5.272
15511SOL     OW48429  10.472   8.166   6.445
15511SOL    HW148430  10.547   8.215   6.413
15511SOL    HW248431  10.444   8.112   6.371
15512SOL     OW48432   6.380   4.285   8.731
15512SOL    HW148433   6.448   4.261   8.795
15512SOL    HW248434   6.300   4.290   8.783
15513SOL     OW48435  12.887   0.656   1.115
15513SOL    HW148436  12.868   0.562   1.106
15513SOL    HW248437  12.851   0.695   1.035
15514SOL     OW48438  12.300   8.711   7.795
15514SOL    HW148439  12.306   8.644   7.862
15514SOL    HW248440  12.388   8.716   7.757
15515SOL     OW48441   9.638  13.235  11.828
15515SOL    HW148442   9.614  13.223  11.736
15515SOL    HW248443   9.594  13.316  11.854
15516SOL     OW48444   4.225   5.834   5.354
15516SOL    HW148445   4.141   5.820   5.397
15516SOL    HW248446   4.234   5.759   5.294
15517SOL     OW48447  11.823  13.122  10.957
15517SOL    HW148448  11.738  13.162  10.938
15517SOL    HW248449  11.884  13.195  10.957
15518SOL     OW48450   4.236  14.662   4.861
15518SOL    HW148451   4.313  14.649   4.916
15518SOL    HW248452   4.190  14.578   4.863
15519SOL     OW48453   6.375   6.913   7.255
15519SOL    HW148454   6.406   6.998   7.286
15519SOL    HW248455   6.430   6.895   7.178
15520SOL     OW48456  10.204   5.869   5.784
15520SOL    HW148457  10.225   5.858   5.876
15520SOL    HW248458  10.191   5.779   5.751
15521SOL     OW48459  10.691   5.327  13.311
15521SOL    HW148460  10.696   5.277  13.230
15521SOL    HW248461  10.748   5.280  13.372
15522SOL     OW48462   8.044  13.956   8.728
15522SOL    HW148463   8.052  14.016   8.802
15522SOL    HW248464   8.129  13.912   8.723
15523SOL     OW48465  11.016  12.922   7.851
15523SOL    HW148466  10.956  12.847   7.853
15523SOL    HW248467  11.053  12.925   7.939
15524SOL     OW48468  12.614  13.822  13.671
15524SOL    HW148469  12.657  13.739  13.650
15524SOL    HW248470  12.521  13.805  13.653
15525SOL     OW48471   8.174   4.859   9.924
15525SOL    HW148472   8.095   4.809   9.947
15525SOL    HW248473   8.196   4.829   9.835
15526SOL     OW48474   8.427   7.137  11.825
15526SOL    HW148475   8.470   7.116  11.742
15526SOL    HW248476   8.349   7.082  11.826
15527SOL     OW48477   9.493   4.035  10.582
15527SOL    HW148478   9.464   3.961  10.635
15527SOL    HW248479   9.428   4.041  10.512
15528SOL     OW48480   0.092   8.039  12.564
15528SOL    HW148481   0.172   8.087  12.543
15528SOL    HW248482   0.114   7.948  12.546
15529SOL     OW48483  13.420   1.783   1.106
15529SOL    HW148484  13.368   1.766   1.185
15529SOL    HW248485  13.463   1.867   1.122
15530SOL     OW48486   9.922   4.795  14.748
15530SOL    HW148487   9.935   4.710  14.706
15530SOL    HW248488   9.899   4.854  14.676
15531SOL     OW48489   2.738  13.575   0.507
15531SOL    HW148490   2.798  13.559   0.580
15531SOL    HW248491   2.757  13.664   0.479
15532SOL     OW48492  14.515   9.530   6.159
15532SOL    HW148493  14.437   9.569   6.121
15532SOL    HW248494  14.550   9.474   6.090
15533SOL     OW48495  14.847   7.729   8.884
15533SOL    HW148496   0.056   7.710   8.856
15533SOL    HW248497  14.792   7.691   8.816
15534SOL     OW48498   8.808   2.042  14.150
15534SOL    HW148499   8.873   2.017  14.215
15534SOL    HW248500   8.728   2.056  14.201
15535SOL     OW48501  14.825   6.631   8.916
15535SOL    HW148502  14.847   6.597   8.829
15535SOL    HW248503  14.807   6.724   8.901
15536SOL     OW48504   3.217  10.590   8.390
15536SOL    HW148505   3.214  10.600   8.485
15536SOL    HW248506   3.159  10.515   8.372
15537SOL     OW48507  10.347  10.947   9.619
15537SOL    HW148508  10.414  10.880   9.609
15537SOL    HW248509  10.354  10.975   9.710
15538SOL     OW48510   1.575  10.672  11.789
15538SOL    HW148511   1.609  10.705  11.707
15538SOL    HW248512   1.620  10.588  11.802
15539SOL     OW48513   5.112  11.607  10.028
15539SOL    HW148514   5.029  11.588  10.071
15539SOL    HW248515   5.090  11.674   9.963
15540SOL     OW48516   1.258   4.604  14.125
15540SOL    HW148517   1.195   4.539  14.094
15540SOL    HW248518   1.323   4.610  14.054
15541SOL     OW48519  10.079  12.924  13.085
15541SOL    HW148520  10.079  12.993  13.018
15541SOL    HW248521  10.130  12.853  13.045
15542SOL     OW48522  12.097   4.062  12.227
15542SOL    HW148523  12.114   4.117  12.151
15542SOL    HW248524  12.019   4.100  12.268
15543SOL     OW48525   1.651   1.153   6.995
15543SOL    HW148526   1.692   1.067   6.993
15543SOL    HW248527   1.568   1.141   6.950
15544SOL     OW48528   1.974   7.666   0.517
15544SOL    HW148529   2.047   7.705   0.470
15544SOL    HW248530   1.917   7.740   0.538
15545SOL     OW48531  12.552   0.231   1.393
15545SOL    HW148532  12.473   0.183   1.415
15545SOL    HW248533  12.595   0.248   1.477
15546SOL     OW48534   2.725   7.332   3.033
15546SOL    HW148535   2.796   7.386   2.999
15546SOL    HW248536   2.684   7.386   3.101
15547SOL     OW48537   9.798  14.727   0.451
15547SOL    HW148538   9.707  14.753   0.467
15547SOL    HW248539   9.802  14.715   0.356
15548SOL     OW48540  13.552   5.164  12.495
15548SOL    HW148541  13.597   5.087  12.460
15548SOL    HW248542  13.472   5.129  12.533
15549SOL     OW48543   1.560  14.276  10.299
15549SOL    HW148544   1.479  14.291  10.347
15549SOL    HW248545   1.616  14.228  10.360
15550SOL     OW48546   0.304  12.400   0.688
15550SOL    HW148547   0.378  12.458   0.709
15550SOL    HW248548   0.343  12.329   0.637
15551SOL     OW48549   6.739   4.043   8.560
15551SOL    HW148550   6.801   4.073   8.626
15551SOL    HW248551   6.679   3.985   8.608
15552SOL     OW48552   7.234   4.020  12.235
15552SOL    HW148553   7.268   4.100  12.275
15552SOL    HW248554   7.213   3.963  12.309
15553SOL     OW48555  13.623  11.983  10.204
15553SOL    HW148556  13.536  11.987  10.164
15553SOL    HW248557  13.620  12.048  10.274
15554SOL     OW48558  14.430  12.483   0.993
15554SOL    HW148559  14.350  12.533   1.013
15554SOL    HW248560  14.441  12.493   0.899
15555SOL     OW48561   7.802   4.599  11.307
15555SOL    HW148562   7.890   4.606  11.268
15555SOL    HW248563   7.796   4.676  11.363
15556SOL     OW48564  10.187   4.137   8.985
15556SOL    HW148565  10.203   4.054   9.028
15556SOL    HW248566  10.179   4.115   8.892
15557SOL     OW48567   7.210  11.003  12.601
15557SOL    HW148568   7.229  10.950  12.678
15557SOL    HW248569   7.199  11.092  12.635
15558SOL     OW48570   7.989  13.986  13.777
15558SOL    HW148571   8.048  13.992  13.702
15558SOL    HW248572   8.030  14.039  13.845
15559SOL     OW48573   2.319   4.716  12.773
15559SOL    HW148574   2.278   4.658  12.837
15559SOL    HW248575   2.246   4.759  12.728
15560SOL     OW48576   2.271   5.281   5.308
15560SOL    HW148577   2.182   5.275   5.343
15560SOL    HW248578   2.321   5.218   5.360
15561SOL     OW48579   5.464   5.436   8.908
15561SOL    HW148580   5.548   5.448   8.863
15561SOL    HW248581   5.487   5.437   9.001
15562SOL     OW48582   3.594   9.055   5.868
15562SOL    HW148583   3.603   8.972   5.822
15562SOL    HW248584   3.622   9.036   5.958
15563SOL     OW48585  12.276  14.680   8.760
15563SOL    HW148586  12.298  14.766   8.797
15563SOL    HW248587  12.235  14.699   8.676
15564SOL     OW48588  12.824   9.960  11.966
15564SOL    HW148589  12.854  10.049  11.951
15564SOL    HW248590  12.729   9.968  11.977
15565SOL     OW48591  14.805   4.862   3.443
15565SOL    HW148592  14.876   4.836   3.385
15565SOL    HW248593  14.787   4.785   3.496
15566SOL     OW48594   3.914   2.154   8.256
15566SOL    HW148595   3.883   2.105   8.180
15566SOL    HW248596   4.008   2.162   8.243
15567SOL     OW48597  13.407  14.618   7.250
15567SOL    HW148598  13.451  14.535   7.266
15567SOL    HW248599  13.342  14.625   7.320
15568SOL     OW48600  12.125  13.897   5.919
15568SOL    HW148601  12.201  13.868   5.869
15568SOL    HW248602  12.091  13.818   5.961
15569SOL     OW48603  11.435   2.633   0.727
15569SOL    HW148604  11.427   2.724   0.756
15569SOL    HW248605  11.528   2.613   0.733
15570SOL     OW48606  12.844  14.229   9.434
15570SOL    HW148607  12.860  14.259   9.523
15570SOL    HW248608  12.875  14.138   9.433
15571SOL     OW48609   5.959   5.374   6.877
15571SOL    HW148610   5.874   5.417   6.877
15571SOL    HW248611   5.987   5.376   6.968
15572SOL     OW48612   1.622   3.921  11.637
15572SOL    HW148613   1.580   3.835  11.638
15572SOL    HW248614   1.716   3.902  11.640
15573SOL     OW48615   2.121   7.806   5.383
15573SOL    HW148616   2.170   7.871   5.433
15573SOL    HW248617   2.104   7.847   5.299
15574SOL     OW48618   4.241   2.771   6.679
15574SOL    HW148619   4.309   2.800   6.739
15574SOL    HW248620   4.209   2.689   6.716
15575SOL     OW48621  10.525   5.806  12.625
15575SOL    HW148622  10.606   5.841  12.587
15575SOL    HW248623  10.499   5.872  12.689
15576SOL     OW48624  14.528   0.725  13.138
15576SOL    HW148625  14.573   0.772  13.068
15576SOL    HW248626  14.561   0.636  13.132
15577SOL     OW48627   7.869  11.632   7.779
15577SOL    HW148628   7.901  11.674   7.699
15577SOL    HW248629   7.906  11.685   7.850
15578SOL     OW48630  14.300   5.708  13.735
15578SOL    HW148631  14.216   5.691  13.693
15578SOL    HW248632  14.353   5.631  13.715
15579SOL     OW48633  13.379   0.487  10.240
15579SOL    HW148634  13.358   0.557  10.302
15579SOL    HW248635  13.471   0.467  10.257
15580SOL     OW48636   6.864   8.579  10.353
15580SOL    HW148637   6.813   8.605  10.430
15580SOL    HW248638   6.949   8.621  10.365
15581SOL     OW48639   3.831   4.269   0.344
15581SOL    HW148640   3.764   4.226   0.291
15581SOL    HW248641   3.818   4.233   0.432
15582SOL     OW48642   8.947  14.251   8.462
15582SOL    HW148643   8.937  14.225   8.370
15582SOL    HW248644   9.032  14.293   8.466
15583SOL     OW48645  12.667   3.545   3.417
15583SOL    HW148646  12.599   3.578   3.475
15583SOL    HW248647  12.722   3.622   3.399
15584SOL     OW48648   5.144   5.467  14.534
15584SOL    HW148649   5.167   5.535  14.470
15584SOL    HW248650   5.092   5.513  14.600
15585SOL     OW48651   3.997   5.068  14.847
15585SOL    HW148652   3.949   5.108  14.775
15585SOL    HW248653   4.001   5.135   0.035
15586SOL     OW48654  12.198   8.527  10.115
15586SOL    HW148655  12.199   8.431  10.123
15586SOL    HW248656  12.274   8.555  10.166
15587SOL     OW48657   7.729   2.765   9.316
15587SOL    HW148658   7.745   2.684   9.268
15587SOL    HW248659   7.681   2.820   9.255
15588SOL     OW48660  11.048  10.799  10.523
15588SOL    HW148661  11.095  10.786  10.605
15588SOL    HW248662  11.040  10.894  10.514
15589SOL     OW48663  10.441  11.020  11.633
15589SOL    HW148664  10.375  11.089  11.636
15589SOL    HW248665  10.511  11.057  11.579
15590SOL     OW48666  11.843  12.222   9.285
15590SOL    HW148667  11.918  12.279   9.302
15590SOL    HW248668  11.870  12.136   9.319
15591SOL     OW48669   5.612  12.314   5.448
15591SOL    HW148670   5.597  12.309   5.543
15591SOL    HW248671   5.707  12.310   5.439
15592SOL     OW48672   2.210  12.356   0.101
15592SOL    HW148673   2.290  12.347   0.049
15592SOL    HW248674   2.215  12.445   0.137
15593SOL     OW48675   7.823  13.250   5.343
15593SOL    HW148676   7.798  13.222   5.431
15593SOL    HW248677   7.860  13.172   5.303
15594SOL     OW48678  11.976   0.749   7.809
15594SOL    HW148679  12.009   0.672   7.856
15594SOL    HW248680  11.940   0.715   7.727
15595SOL     OW48681  10.007   4.773   8.875
15595SOL    HW148682  10.061   4.778   8.796
15595SOL    HW248683   9.918   4.792   8.844
15596SOL     OW48684   9.368   9.967  13.010
15596SOL    HW148685   9.319  10.043  13.043
15596SOL    HW248686   9.430  10.005  12.948
15597SOL     OW48687   8.803  10.308   8.293
15597SOL    HW148688   8.869  10.239   8.288
15597SOL    HW248689   8.788  10.320   8.387
15598SOL     OW48690   2.430   3.721   7.408
15598SOL    HW148691   2.475   3.806   7.402
15598SOL    HW248692   2.340   3.744   7.431
15599SOL     OW48693  12.084   2.676  13.642
15599SOL    HW148694  12.173   2.650  13.665
15599SOL    HW248695  12.084   2.681  13.547
15600SOL     OW48696   4.974  14.753   7.574
15600SOL    HW148697   4.912  14.791   7.636
15600SOL    HW248698   4.928  14.677   7.538
15601SOL     OW48699  13.519   6.604   2.235
15601SOL    HW148700  13.530   6.531   2.174
15601SOL    HW248701  13.431   6.637   2.216
15602SOL     OW48702   9.075   7.564   7.753
15602SOL    HW148703   9.000   7.526   7.800
15602SOL    HW248704   9.112   7.627   7.814
15603SOL     OW48705  13.433  12.941  12.927
15603SOL    HW148706  13.410  12.865  12.981
15603SOL    HW248707  13.367  12.942  12.858
15604SOL     OW48708   6.183  10.208   4.471
15604SOL    HW148709   6.274  10.191   4.495
15604SOL    HW248710   6.182  10.300   4.445
15605SOL     OW48711  10.071   1.720   3.235
15605SOL    HW148712  10.161   1.750   3.241
15605SOL    HW248713  10.019   1.801   3.233
15606SOL     OW48714   5.155  12.205   5.885
15606SOL    HW148715   5.197  12.279   5.841
15606SOL    HW248716   5.163  12.225   5.978
15607SOL     OW48717   7.455  12.219   2.006
15607SOL    HW148718   7.482  12.258   2.090
15607SOL    HW248719   7.387  12.278   1.973
15608SOL     OW48720   9.314  12.167   8.171
15608SOL    HW148721   9.319  12.158   8.076
15608SOL    HW248722   9.332  12.260   8.187
15609SOL     OW48723   0.199  12.027   7.253
15609SOL    HW148724   0.222  11.955   7.313
15609SOL    HW248725   0.176  12.100   7.311
15610SOL     OW48726  12.152  11.249   5.838
15610SOL    HW148727  12.179  11.336   5.869
15610SOL    HW248728  12.060  11.241   5.863
15611SOL     OW48729   7.271  13.470   0.282
15611SOL    HW148730   7.176  13.462   0.285
15611SOL    HW248731   7.301  13.439   0.367
15612SOL     OW48732   6.566  10.175   6.937
15612SOL    HW148733   6.504  10.167   6.864
15612SOL    HW248734   6.536  10.251   6.986
15613SOL     OW48735  13.971   1.595  10.029
15613SOL    HW148736  14.036   1.526  10.022
15613SOL    HW248737  13.902   1.569   9.967
15614SOL     OW48738  14.387   4.624  11.839
15614SOL    HW148739  14.404   4.708  11.882
15614SOL    HW248740  14.391   4.560  11.910
15615SOL     OW48741  12.429   4.756   3.719
15615SOL    HW148742  12.415   4.757   3.624
15615SOL    HW248743  12.477   4.836   3.737
15616SOL     OW48744  14.223   1.014  14.716
15616SOL    HW148745  14.310   1.045  14.692
15616SOL    HW248746  14.236   0.922  14.739
15617SOL     OW48747  13.110  14.003   3.011
15617SOL    HW148748  13.138  14.083   3.056
15617SOL    HW248749  13.142  13.932   3.066
15618SOL     OW48750  13.166   5.739  14.294
15618SOL    HW148751  13.101   5.732  14.224
15618SOL    HW248752  13.136   5.676  14.360
15619SOL     OW48753   0.168  10.196   3.282
15619SOL    HW148754   0.250  10.189   3.330
15619SOL    HW248755   0.128  10.109   3.288
15620SOL     OW48756  11.305  10.990   6.390
15620SOL    HW148757  11.300  10.947   6.475
15620SOL    HW248758  11.280  11.081   6.408
15621SOL     OW48759   8.734   1.836   8.874
15621SOL    HW148760   8.775   1.801   8.953
15621SOL    HW248761   8.760   1.774   8.805
15622SOL     OW48762   5.320   0.234   8.121
15622SOL    HW148763   5.379   0.164   8.147
15622SOL    HW248764   5.233   0.200   8.138
15623SOL     OW48765   0.433   2.799  11.780
15623SOL    HW148766   0.367   2.737  11.812
15623SOL    HW248767   0.479   2.751  11.711
15624SOL     OW48768   0.858  14.053  14.356
15624SOL    HW148769   0.901  14.103  14.287
15624SOL    HW248770   0.904  13.969  14.357
15625SOL     OW48771   1.749   4.142  12.506
15625SOL    HW148772   1.782   4.227  12.536
15625SOL    HW248773   1.785   4.079  12.569
15626SOL     OW48774   5.793  13.521  10.416
15626SOL    HW148775   5.701  13.531  10.437
15626SOL    HW248776   5.838  13.574  10.481
15627SOL     OW48777   1.399   4.011  10.275
15627SOL    HW148778   1.397   4.021  10.180
15627SOL    HW248779   1.358   4.090  10.309
15628SOL     OW48780   7.795   2.524   0.223
15628SOL    HW148781   7.870   2.515   0.282
15628SOL    HW248782   7.834   2.521   0.135
15629SOL     OW48783  13.356  13.371   5.570
15629SOL    HW148784  13.324  13.430   5.639
15629SOL    HW248785  13.420  13.423   5.522
15630SOL     OW48786   8.040   9.310   4.113
15630SOL    HW148787   7.978   9.339   4.047
15630SOL    HW248788   7.988   9.301   4.193
15631SOL     OW48789   7.695  11.865   6.265
15631SOL    HW148790   7.685  11.958   6.287
15631SOL    HW248791   7.606  11.829   6.273
15632SOL     OW48792  12.043   1.033   4.006
15632SOL    HW148793  12.068   0.940   4.001
15632SOL    HW248794  12.056   1.066   3.917
15633SOL     OW48795   8.007   2.348   4.843
15633SOL    HW148796   8.093   2.314   4.818
15633SOL    HW248797   7.962   2.360   4.760
15634SOL     OW48798  14.422  13.111   9.257
15634SOL    HW148799  14.370  13.046   9.210
15634SOL    HW248800  14.475  13.060   9.317
15635SOL     OW48801  10.953   8.002   9.828
15635SOL    HW148802  10.986   8.092   9.832
15635SOL    HW248803  10.864   8.011   9.795
15636SOL     OW48804   5.679   9.852   1.359
15636SOL    HW148805   5.607   9.788   1.354
15636SOL    HW248806   5.659   9.916   1.291
15637SOL     OW48807  10.926   4.271   7.600
15637SOL    HW148808  10.933   4.301   7.690
15637SOL    HW248809  10.837   4.292   7.574
15638SOL     OW48810  13.333   3.741  13.948
15638SOL    HW148811  13.251   3.787  13.967
15638SOL    HW248812  13.363   3.708  14.033
15639SOL     OW48813   7.143   0.041   9.979
15639SOL    HW148814   7.182   0.050  10.066
15639SOL    HW248815   7.049   0.058   9.992
15640SOL     OW48816   1.967  10.601   4.871
15640SOL    HW148817   1.951  10.653   4.792
15640SOL    HW248818   1.909  10.525   4.862
15641SOL     OW48819   6.154   8.076   2.807
15641SOL    HW148820   6.241   8.040   2.822
15641SOL    HW248821   6.107   8.062   2.889
15642SOL     OW48822   9.290  12.231   5.093
15642SOL    HW148823   9.247  12.255   5.176
15642SOL    HW248824   9.221  12.240   5.027
15643SOL     OW48825   5.389   1.680   7.820
15643SOL    HW148826   5.471   1.630   7.823
15643SOL    HW248827   5.322   1.615   7.798
15644SOL     OW48828   5.018  13.074  10.432
15644SOL    HW148829   5.018  13.156  10.384
15644SOL    HW248830   5.108  13.063  10.462
15645SOL     OW48831  14.444  11.100  10.979
15645SOL    HW148832  14.432  11.107  11.074
15645SOL    HW248833  14.356  11.107  10.943
15646SOL     OW48834   0.382   0.682  12.916
15646SOL    HW148835   0.352   0.755  12.970
15646SOL    HW248836   0.325   0.684  12.839
15647SOL     OW48837  10.750  10.645  10.564
15647SOL    HW148838  10.811  10.609  10.630
15647SOL    HW248839  10.754  10.582  10.492
15648SOL     OW48840   9.867  12.643  13.740
15648SOL    HW148841   9.870  12.738  13.734
15648SOL    HW248842   9.776  12.620  13.717
15649SOL     OW48843   8.058   9.338  10.387
15649SOL    HW148844   8.068   9.279  10.311
15649SOL    HW248845   8.102   9.418  10.361
15650SOL     OW48846   0.579  13.708   5.382
15650SOL    HW148847   0.622  13.638   5.432
15650SOL    HW248848   0.627  13.787   5.405
15651SOL     OW48849   0.028   3.624   2.113
15651SOL    HW148850   0.031   3.614   2.209
15651SOL    HW248851  14.816   3.612   2.091
15652SOL     OW48852   0.058   1.164  11.531
15652SOL    HW148853   0.128   1.114  11.490
15652SOL    HW248854   0.101   1.214  11.601
15653SOL     OW48855   6.668  14.182  13.472
15653SOL    HW148856   6.745  14.126  13.466
15653SOL    HW248857   6.594  14.124  13.458
15654SOL     OW48858   4.399  11.607   0.088
15654SOL    HW148859   4.450  11.622   0.009
15654SOL    HW248860   4.456  11.552   0.142
15655SOL     OW48861   6.327  11.335   5.236
15655SOL    HW148862   6.232  11.351   5.229
15655SOL    HW248863   6.355  11.318   5.147
15656SOL     OW48864   0.835   4.426   5.896
15656SOL    HW148865   0.751   4.435   5.941
15656SOL    HW248866   0.837   4.334   5.867
15657SOL     OW48867  10.564   0.397  11.212
15657SOL    HW148868  10.494   0.455  11.243
15657SOL    HW248869  10.588   0.346  11.289
15658SOL     OW48870   1.832   2.919  12.540
15658SOL    HW148871   1.742   2.902  12.511
15658SOL    HW248872   1.834   2.886  12.630
15659SOL     OW48873   6.231  13.612   5.828
15659SOL    HW148874   6.174  13.687   5.809
15659SOL    HW248875   6.309  13.627   5.774
15660SOL     OW48876  10.053   7.721   4.965
15660SOL    HW148877  10.009   7.639   4.986
15660SOL    HW248878  10.007   7.753   4.887
15661SOL     OW48879   8.187   1.268   7.880
15661SOL    HW148880   8.197   1.203   7.811
15661SOL    HW248881   8.194   1.352   7.835
15662SOL     OW48882   3.761   9.839   7.687
15662SOL    HW148883   3.841   9.786   7.690
15662SOL    HW248884   3.734   9.846   7.778
15663SOL     OW48885   2.508  14.640   9.672
15663SOL    HW148886   2.585  14.586   9.651
15663SOL    HW248887   2.528  14.725   9.634
15664SOL     OW48888   9.372   2.238  14.689
15664SOL    HW148889   9.412   2.257  14.604
15664SOL    HW248890   9.283   2.210  14.668
15665SOL     OW48891   8.243  12.111   5.988
15665SOL    HW148892   8.153  12.116   6.021
15665SOL    HW248893   8.294  12.161   6.052
15666SOL     OW48894   1.171   8.081  11.018
15666SOL    HW148895   1.151   8.000  11.064
15666SOL    HW248896   1.251   8.113  11.060
15667SOL     OW48897   0.771   4.020   0.989
15667SOL    HW148898   0.777   4.018   0.893
15667SOL    HW248899   0.860   4.037   1.018
15668SOL     OW48900  10.010   6.768   9.885
15668SOL    HW148901  10.102   6.742   9.881
15668SOL    HW248902   9.965   6.690   9.919
15669SOL     OW48903  10.410   7.739  11.944
15669SOL    HW148904  10.474   7.758  11.875
15669SOL    HW248905  10.391   7.824  11.984
15670SOL     OW48906   1.068   4.877   1.556
15670SOL    HW148907   1.052   4.799   1.610
15670SOL    HW248908   1.095   4.944   1.619
15671SOL     OW48909   5.392  11.050   0.936
15671SOL    HW148910   5.450  11.084   0.868
15671SOL    HW248911   5.381  11.123   0.997
15672SOL     OW48912  10.119   3.836  14.639
15672SOL    HW148913  10.171   3.756  14.647
15672SOL    HW248914  10.039   3.818  14.689
15673SOL     OW48915   8.592   5.100   1.033
15673SOL    HW148916   8.539   5.176   1.055
15673SOL    HW248917   8.613   5.111   0.940
15674SOL     OW48918  10.178  11.424  10.685
15674SOL    HW148919  10.144  11.483  10.617
15674SOL    HW248920  10.140  11.339  10.664
15675SOL     OW48921  13.330  11.382   3.411
15675SOL    HW148922  13.402  11.325   3.438
15675SOL    HW248923  13.357  11.469   3.440
15676SOL     OW48924   2.763   3.955  11.178
15676SOL    HW148925   2.807   3.872  11.157
15676SOL    HW248926   2.777   3.967  11.272
15677SOL     OW48927  11.513   0.649  10.592
15677SOL    HW148928  11.560   0.730  10.573
15677SOL    HW248929  11.478   0.621  10.508
15678SOL     OW48930   2.039  13.002  14.098
15678SOL    HW148931   2.104  12.932  14.092
15678SOL    HW248932   2.080  13.077  14.056
15679SOL     OW48933   5.116   8.572  10.105
15679SOL    HW148934   5.193   8.602  10.153
15679SOL    HW248935   5.084   8.650  10.060
15680SOL     OW48936   2.312   7.785  13.453
15680SOL    HW148937   2.314   7.754  13.363
15680SOL    HW248938   2.222   7.816  13.466
15681SOL     OW48939   3.058  12.451  13.809
15681SOL    HW148940   3.056  12.390  13.735
15681SOL    HW248941   3.126  12.416  13.867
15682SOL     OW48942   1.011   4.692   1.743
15682SOL    HW148943   0.978   4.735   1.821
15682SOL    HW248944   1.054   4.612   1.775
15683SOL     OW48945  13.343   9.555   8.180
15683SOL    HW148946  13.370   9.465   8.165
15683SOL    HW248947  13.351   9.597   8.095
15684SOL     OW48948  10.692  10.640   0.608
15684SOL    HW148949  10.705  10.665   0.516
15684SOL    HW248950  10.637  10.562   0.604
15685SOL     OW48951   0.914  11.996   8.164
15685SOL    HW148952   0.945  11.953   8.244
15685SOL    HW248953   0.956  11.947   8.093
15686SOL     OW48954  10.976  14.763  10.517
15686SOL    HW148955  11.057  14.727  10.552
15686SOL    HW248956  10.998  14.791  10.428
15687SOL     OW48957   7.856  13.268   8.966
15687SOL    HW148958   7.942  13.302   8.941
15687SOL    HW248959   7.806  13.268   8.884
15688SOL     OW48960  11.081   3.984   6.173
15688SOL    HW148961  11.063   3.912   6.233
15688SOL    HW248962  11.044   4.061   6.216
15689SOL     OW48963   5.807   9.935   9.183
15689SOL    HW148964   5.714   9.921   9.202
15689SOL    HW248965   5.813  10.028   9.162
15690SOL     OW48966  10.343  12.811  13.218
15690SOL    HW148967  10.403  12.737  13.229
15690SOL    HW248968  10.264  12.772  13.180
15691SOL     OW48969   2.884   7.679   3.701
15691SOL    HW148970   2.967   7.640   3.729
15691SOL    HW248971   2.904   7.722   3.619
15692SOL     OW48972   0.767   8.028  11.721
15692SOL    HW148973   0.798   8.020  11.631
15692SOL    HW248974   0.813   7.958  11.769
15693SOL     OW48975   6.007   2.871   8.301
15693SOL    HW148976   6.054   2.881   8.384
15693SOL    HW248977   6.077   2.867   8.235
15694SOL     OW48978   8.122   6.771  14.233
15694SOL    HW148979   8.033   6.793  14.205
15694SOL    HW248980   8.111   6.700  14.296
15695SOL     OW48981   7.194   3.588  13.996
15695SOL    HW148982   7.281   3.627  13.998
15695SOL    HW248983   7.183   3.547  14.082
15696SOL     OW48984  12.450   1.170   4.389
15696SOL    HW148985  12.455   1.184   4.295
15696SOL    HW248986  12.409   1.084   4.399
15697SOL     OW48987   8.968   8.513  13.561
15697SOL    HW148988   9.041   8.569  13.534
15697SOL    HW248989   8.987   8.428  13.522
15698SOL     OW48990  14.447   5.791   4.829
15698SOL    HW148991  14.446   5.836   4.913
15698SOL    HW248992  14.478   5.702   4.849
15699SOL     OW48993   9.847   3.501  10.883
15699SOL    HW148994   9.937   3.513  10.852
15699SOL    HW248995   9.832   3.407  10.878
15700SOL     OW48996   2.197   1.690   8.845
15700SOL    HW148997   2.279   1.721   8.807
15700SOL    HW248998   2.165   1.765   8.896
15701SOL     OW48999   9.115  10.956   0.650
15701SOL    HW149000   9.030  10.975   0.690
15701SOL    HW249001   9.098  10.885   0.588
15702SOL     OW49002   8.964   9.878   0.529
15702SOL    HW149003   9.009   9.797   0.552
15702SOL    HW249004   8.998   9.943   0.590
15703SOL     OW49005   2.632  12.186   6.299
15703SOL    HW149006   2.686  12.256   6.338
15703SOL    HW249007   2.601  12.136   6.374
15704SOL     OW49008  10.526   9.158   8.342
15704SOL    HW149009  10.475   9.166   8.422
15704SOL    HW249010  10.465   9.178   8.271
15705SOL     OW49011   6.156  13.284  10.485
15705SOL    HW149012   6.133  13.235  10.406
15705SOL    HW249013   6.194  13.365  10.453
15706SOL     OW49014   2.499   3.152  13.347
15706SOL    HW149015   2.427   3.190  13.296
15706SOL    HW249016   2.468   3.153  13.437
15707SOL     OW49017  12.812   8.920   5.372
15707SOL    HW149018  12.822   9.012   5.345
15707SOL    HW249019  12.794   8.925   5.466
15708SOL     OW49020   7.009   5.282   1.583
15708SOL    HW149021   6.955   5.232   1.644
15708SOL    HW249022   6.948   5.344   1.543
15709SOL     OW49023  13.121  14.329   8.911
15709SOL    HW149024  13.065  14.353   8.837
15709SOL    HW249025  13.067  14.269   8.963
15710SOL     OW49026   8.839   5.442   7.014
15710SOL    HW149027   8.925   5.463   7.050
15710SOL    HW249028   8.850   5.448   6.920
15711SOL     OW49029  13.146   0.983   4.268
15711SOL    HW149030  13.121   0.896   4.235
15711SOL    HW249031  13.227   0.968   4.316
15712SOL     OW49032   2.015   2.607  12.184
15712SOL    HW149033   2.001   2.520  12.147
15712SOL    HW249034   1.990   2.599  12.276
15713SOL     OW49035   5.502   2.954  13.115
15713SOL    HW149036   5.469   2.885  13.171
15713SOL    HW249037   5.572   2.995  13.164
15714SOL     OW49038   8.077   4.788  12.614
15714SOL    HW149039   8.075   4.774  12.520
15714SOL    HW249040   8.151   4.734  12.644
15715SOL     OW49041   2.996  11.254   0.476
15715SOL    HW149042   3.041  11.297   0.403
15715SOL    HW249043   3.010  11.161   0.460
15716SOL     OW49044   0.691   6.020   4.141
15716SOL    HW149045   0.724   6.094   4.092
15716SOL    HW249046   0.600   6.010   4.112
15717SOL     OW49047   5.842  11.365  12.893
15717SOL    HW149048   5.775  11.430  12.875
15717SOL    HW249049   5.922  11.416  12.908
15718SOL     OW49050  12.580  12.541   5.982
15718SOL    HW149051  12.645  12.530   5.913
15718SOL    HW249052  12.580  12.635   6.000
15719SOL     OW49053   0.942   3.073  14.599
15719SOL    HW149054   0.857   3.096  14.561
15719SOL    HW249055   0.937   2.979  14.616
15720SOL     OW49056   7.103   6.983  12.680
15720SOL    HW149057   7.082   6.920  12.611
15720SOL    HW249058   7.186   7.023  12.653
15721SOL     OW49059  11.851   0.934   6.514
15721SOL    HW149060  11.915   0.917   6.583
15721SOL    HW249061  11.780   0.873   6.532
15722SOL     OW49062  13.588   1.792   6.682
15722SOL    HW149063  13.572   1.884   6.703
15722SOL    HW249064  13.582   1.788   6.587
15723SOL     OW49065  12.677   6.886   6.794
15723SOL    HW149066  12.583   6.868   6.796
15723SOL    HW249067  12.706   6.851   6.709
15724SOL     OW49068   2.487  12.012  11.757
15724SOL    HW149069   2.555  12.022  11.690
15724SOL    HW249070   2.536  11.991  11.837
15725SOL     OW49071   1.775   9.619  13.330
15725SOL    HW149072   1.864   9.623  13.297
15725SOL    HW249073   1.758   9.526  13.345
15726SOL     OW49074   3.840   0.405   6.737
15726SOL    HW149075   3.786   0.428   6.813
15726SOL    HW249076   3.919   0.458   6.747
15727SOL     OW49077  10.380   2.911   4.653
15727SOL    HW149078  10.338   2.873   4.730
15727SOL    HW249079  10.308   2.927   4.592
15728SOL     OW49080   9.274   8.925   5.005
15728SOL    HW149081   9.231   8.943   5.088
15728SOL    HW249082   9.292   9.011   4.968
15729SOL     OW49083   2.650   6.021   4.932
15729SOL    HW149084   2.584   6.020   5.002
15729SOL    HW249085   2.599   6.038   4.853
15730SOL     OW49086  10.101   5.365  14.411
15730SOL    HW149087  10.181   5.414  14.393
15730SOL    HW249088  10.131   5.277  14.432
15731SOL     OW49089  12.308   1.983   1.544
15731SOL    HW149090  12.316   2.025   1.630
15731SOL    HW249091  12.214   1.981   1.526
15732SOL     OW49092   7.856   5.020   2.227
15732SOL    HW149093   7.920   5.060   2.287
15732SOL    HW249094   7.776   5.014   2.279
15733SOL     OW49095   6.825  13.131  11.918
15733SOL    HW149096   6.797  13.041  11.935
15733SOL    HW249097   6.752  13.184  11.950
15734SOL     OW49098  14.584   9.681  11.896
15734SOL    HW149099  14.614   9.632  11.820
15734SOL    HW249100  14.490   9.693  11.882
15735SOL     OW49101   7.734   8.880  11.945
15735SOL    HW149102   7.741   8.789  11.975
15735SOL    HW249103   7.639   8.897  11.942
15736SOL     OW49104   2.179   8.421   7.948
15736SOL    HW149105   2.089   8.406   7.976
15736SOL    HW249106   2.201   8.507   7.982
15737SOL     OW49107  13.130   0.921  10.709
15737SOL    HW149108  13.111   1.012  10.686
15737SOL    HW249109  13.144   0.923  10.804
15738SOL     OW49110   7.407  10.682   0.433
15738SOL    HW149111   7.462  10.648   0.504
15738SOL    HW249112   7.402  10.776   0.449
15739SOL     OW49113   6.632  11.326   7.820
15739SOL    HW149114   6.703  11.390   7.829
15739SOL    HW249115   6.668  11.258   7.763
15740SOL     OW49116   6.147   0.475   5.958
15740SOL    HW149117   6.176   0.416   6.027
15740SOL    HW249118   6.082   0.424   5.909
15741SOL     OW49119   5.514   2.029   9.148
15741SOL    HW149120   5.509   2.119   9.116
15741SOL    HW249121   5.428   1.992   9.129
15742SOL     OW49122  10.750  12.174   7.166
15742SOL    HW149123  10.700  12.095   7.145
15742SOL    HW249124  10.700  12.245   7.127
15743SOL     OW49125  11.478  12.946   1.317
15743SOL    HW149126  11.438  12.982   1.237
15743SOL    HW249127  11.535  12.876   1.285
15744SOL     OW49128   2.041   3.951   7.950
15744SOL    HW149129   1.951   3.919   7.947
15744SOL    HW249130   2.049   4.008   7.873
15745SOL     OW49131  10.954   6.157  11.926
15745SOL    HW149132  10.931   6.244  11.958
15745SOL    HW249133  10.906   6.097  11.983
15746SOL     OW49134  11.703   7.918   8.999
15746SOL    HW149135  11.721   7.894   9.090
15746SOL    HW249136  11.786   7.949   8.965
15747SOL     OW49137   2.201   5.446   1.414
15747SOL    HW149138   2.143   5.418   1.344
15747SOL    HW249139   2.173   5.396   1.490
15748SOL     OW49140   0.436  14.215   5.735
15748SOL    HW149141   0.349  14.228   5.699
15748SOL    HW249142   0.442  14.278   5.807
15749SOL     OW49143   1.203   3.813   4.293
15749SOL    HW149144   1.186   3.751   4.364
15749SOL    HW249145   1.134   3.795   4.229
15750SOL     OW49146  14.595   7.018   7.746
15750SOL    HW149147  14.645   6.987   7.821
15750SOL    HW249148  14.516   7.057   7.784
15751SOL     OW49149  10.519   2.417  14.473
15751SOL    HW149150  10.545   2.407  14.565
15751SOL    HW249151  10.455   2.488  14.474
15752SOL     OW49152  11.346  12.477  10.431
15752SOL    HW149153  11.323  12.550  10.373
15752SOL    HW249154  11.414  12.430  10.383
15753SOL     OW49155  10.898   7.673   7.676
15753SOL    HW149156  10.895   7.581   7.651
15753SOL    HW249157  10.959   7.675   7.750
15754SOL     OW49158   4.256  12.317   8.221
15754SOL    HW149159   4.265  12.363   8.305
15754SOL    HW249160   4.291  12.230   8.237
15755SOL     OW49161   1.894   0.668   1.241
15755SOL    HW149162   1.987   0.667   1.218
15755SOL    HW249163   1.849   0.646   1.160
15756SOL     OW49164   9.467   9.740   4.522
15756SOL    HW149165   9.448   9.682   4.448
15756SOL    HW249166   9.547   9.786   4.496
15757SOL     OW49167  14.399  11.600  13.393
15757SOL    HW149168  14.407  11.540  13.319
15757SOL    HW249169  14.385  11.543  13.468
15758SOL     OW49170   0.191   2.846  10.091
15758SOL    HW149171   0.117   2.901  10.116
15758SOL    HW249172   0.157   2.757  10.094
15759SOL     OW49173  10.682   6.330   2.182
15759SOL    HW149174  10.696   6.385   2.105
15759SOL    HW249175  10.635   6.387   2.243
15760SOL     OW49176   6.873   7.902   1.906
15760SOL    HW149177   6.801   7.965   1.913
15760SOL    HW249178   6.847   7.829   1.962
15761SOL     OW49179  12.839   0.045   7.562
15761SOL    HW149180  12.820  14.836   7.590
15761SOL    HW249181  12.934   0.053   7.570
15762SOL     OW49182   3.982   0.281   9.850
15762SOL    HW149183   3.903   0.232   9.872
15762SOL    HW249184   4.035   0.278   9.930
15763SOL     OW49185   0.565  12.764   7.120
15763SOL    HW149186   0.477  12.745   7.152
15763SOL    HW249187   0.607  12.813   7.190
15764SOL     OW49188   3.468   3.645   4.624
15764SOL    HW149189   3.472   3.560   4.579
15764SOL    HW249190   3.506   3.629   4.710
15765SOL     OW49191  14.822   2.234   2.125
15765SOL    HW149192  14.752   2.243   2.189
15765SOL    HW249193  14.867   2.318   2.126
15766SOL     OW49194   7.742  13.212  10.073
15766SOL    HW149195   7.743  13.213  10.168
15766SOL    HW249196   7.681  13.141  10.050
15767SOL     OW49197  12.266   9.441  10.795
15767SOL    HW149198  12.256   9.434  10.700
15767SOL    HW249199  12.272   9.350  10.826
15768SOL     OW49200   0.897  11.854   4.747
15768SOL    HW149201   0.896  11.758   4.750
15768SOL    HW249202   0.937  11.875   4.663
15769SOL     OW49203   5.973   4.891  12.747
15769SOL    HW149204   5.985   4.893  12.842
15769SOL    HW249205   5.942   4.802  12.729
15770SOL     OW49206   9.779  11.051  13.172
15770SOL    HW149207   9.791  11.015  13.260
15770SOL    HW249208   9.690  11.086  13.172
15771SOL     OW49209  13.331   6.225  13.479
15771SOL    HW149210  13.310   6.136  13.507
15771SOL    HW249211  13.418   6.218  13.440
15772SOL     OW49212  13.536   4.467   5.837
15772SOL    HW149213  13.619   4.428   5.863
15772SOL    HW249214  13.477   4.446   5.910
15773SOL     OW49215   2.751   8.498   7.403
15773SOL    HW149216   2.759   8.561   7.475
15773SOL    HW249217   2.689   8.539   7.343
15774SOL     OW49218   3.276   8.384  14.674
15774SOL    HW149219   3.272   8.315  14.608
15774SOL    HW249220   3.348   8.358  14.731
15775SOL     OW49221   8.130   6.500   2.373
15775SOL    HW149222   8.089   6.583   2.395
15775SOL    HW249223   8.223   6.514   2.388
15776SOL     OW49224  12.786   8.402   6.954
15776SOL    HW149225  12.714   8.465   6.957
15776SOL    HW249226  12.744   8.319   6.930
15777SOL     OW49227   5.156   7.243   4.641
15777SOL    HW149228   5.098   7.319   4.647
15777SOL    HW249229   5.111   7.175   4.691
15778SOL     OW49230   7.956   4.989   4.868
15778SOL    HW149231   8.021   4.946   4.924
15778SOL    HW249232   7.871   4.959   4.902
15779SOL     OW49233   8.870   3.474   7.104
15779SOL    HW149234   8.904   3.506   7.187
15779SOL    HW249235   8.807   3.541   7.076
15780SOL     OW49236   7.834  12.528   4.053
15780SOL    HW149237   7.741  12.550   4.066
15780SOL    HW249238   7.833  12.437   4.023
15781SOL     OW49239  11.206   7.848   7.742
15781SOL    HW149240  11.291   7.889   7.729
15781SOL    HW249241  11.164   7.901   7.810
15782SOL     OW49242   0.731   5.255   8.648
15782SOL    HW149243   0.640   5.286   8.642
15782SOL    HW249244   0.784   5.334   8.649
15783SOL     OW49245   0.132   5.284   7.195
15783SOL    HW149246   0.122   5.215   7.260
15783SOL    HW249247   0.132   5.365   7.246
15784SOL     OW49248  10.960   8.119   1.984
15784SOL    HW149249  10.925   8.177   2.051
15784SOL    HW249250  10.927   8.032   2.008
15785SOL     OW49251   4.384   1.863   4.698
15785SOL    HW149252   4.333   1.855   4.779
15785SOL    HW249253   4.319   1.880   4.630
15786SOL     OW49254   9.547   1.949  11.537
15786SOL    HW149255   9.584   1.880  11.592
15786SOL    HW249256   9.544   1.911  11.450
15787SOL     OW49257  14.245  10.524   1.816
15787SOL    HW149258  14.260  10.594   1.880
15787SOL    HW249259  14.264  10.443   1.865
15788SOL     OW49260   7.532   5.261   1.805
15788SOL    HW149261   7.598   5.201   1.839
15788SOL    HW249262   7.490   5.213   1.734
15789SOL     OW49263   4.302   1.089   4.216
15789SOL    HW149264   4.273   1.084   4.307
15789SOL    HW249265   4.355   1.011   4.203
15790SOL     OW49266   1.066  10.622   6.972
15790SOL    HW149267   1.029  10.563   7.037
15790SOL    HW249268   0.990  10.668   6.936
15791SOL     OW49269   6.900  14.138  12.427
15791SOL    HW149270   6.949  14.205  12.475
15791SOL    HW249271   6.809  14.166  12.434
15792SOL     OW49272  12.169   2.902  11.223
15792SOL    HW149273  12.220   2.960  11.166
15792SOL    HW249274  12.214   2.906  11.307
15793SOL     OW49275   1.474   2.217   5.228
15793SOL    HW149276   1.405   2.192   5.166
15793SOL    HW249277   1.553   2.225   5.174
15794SOL     OW49278   9.025   3.035   6.021
15794SOL    HW149279   9.041   3.081   5.939
15794SOL    HW249280   9.110   2.996   6.044
15795SOL     OW49281   7.513   4.482  14.796
15795SOL    HW149282   7.594   4.514  14.756
15795SOL    HW249283   7.455   4.464  14.721
15796SOL     OW49284   8.472  10.092   7.129
15796SOL    HW149285   8.412  10.132   7.191
15796SOL    HW249286   8.506  10.015   7.175
15797SOL     OW49287   2.965  12.954   8.798
15797SOL    HW149288   2.916  12.928   8.876
15797SOL    HW249289   3.029  12.884   8.785
15798SOL     OW49290   9.401   3.491   7.483
15798SOL    HW149291   9.405   3.545   7.405
15798SOL    HW249292   9.463   3.532   7.544
15799SOL     OW49293  14.210  14.001   9.367
15799SOL    HW149294  14.273  13.979   9.299
15799SOL    HW249295  14.245  14.080   9.408
15800SOL     OW49296   6.412   9.549   3.800
15800SOL    HW149297   6.476   9.482   3.776
15800SOL    HW249298   6.374   9.517   3.882
15801SOL     OW49299   1.610   3.651   9.137
15801SOL    HW149300   1.515   3.660   9.134
15801SOL    HW249301   1.638   3.663   9.046
15802SOL     OW49302  14.846   0.033   3.446
15802SOL    HW149303  14.801   0.041   3.363
15802SOL    HW249304   0.052   0.071   3.431
15803SOL     OW49305  13.296   4.848   8.404
15803SOL    HW149306  13.225   4.855   8.467
15803SOL    HW249307  13.254   4.819   8.323
15804SOL     OW49308   9.608  13.316  12.239
15804SOL    HW149309   9.617  13.224  12.213
15804SOL    HW249310   9.515  13.334  12.230
15805SOL     OW49311   9.904   5.041   6.530
15805SOL    HW149312   9.899   5.113   6.593
15805SOL    HW249313   9.930   5.082   6.448
15806SOL     OW49314   9.066   2.950   1.942
15806SOL    HW149315   9.147   2.990   1.911
15806SOL    HW249316   9.092   2.899   2.018
15807SOL     OW49317   0.597  11.986  12.335
15807SOL    HW149318   0.642  12.071  12.337
15807SOL    HW249319   0.657  11.926  12.377
15808SOL     OW49320  11.486  12.664  12.060
15808SOL    HW149321  11.451  12.753  12.071
15808SOL    HW249322  11.416  12.615  12.017
15809SOL     OW49323   4.110  11.809  13.388
15809SOL    HW149324   4.035  11.798  13.446
15809SOL    HW249325   4.125  11.903  13.387
15810SOL     OW49326  12.381  14.032   6.137
15810SOL    HW149327  12.465  14.060   6.102
15810SOL    HW249328  12.374  13.939   6.114
15811SOL     OW49329   8.885   8.896  13.418
15811SOL    HW149330   8.869   8.923  13.327
15811SOL    HW249331   8.903   8.977  13.465
15812SOL     OW49332   1.396  13.361   6.828
15812SOL    HW149333   1.462  13.343   6.761
15812SOL    HW249334   1.437  13.426   6.885
15813SOL     OW49335   0.685   6.956   9.699
15813SOL    HW149336   0.708   7.046   9.724
15813SOL    HW249337   0.652   6.917   9.780
15814SOL     OW49338  12.182   5.479  12.488
15814SOL    HW149339  12.260   5.441  12.529
15814SOL    HW249340  12.122   5.497  12.561
15815SOL     OW49341  12.284   6.744   0.297
15815SOL    HW149342  12.194   6.761   0.327
15815SOL    HW249343  12.337   6.809   0.343
15816SOL     OW49344   3.345   1.603   7.585
15816SOL    HW149345   3.357   1.602   7.490
15816SOL    HW249346   3.420   1.556   7.620
15817SOL     OW49347   5.591   1.240   7.026
15817SOL    HW149348   5.584   1.330   6.993
15817SOL    HW249349   5.535   1.238   7.103
15818SOL     OW49350   1.050  10.205   8.413
15818SOL    HW149351   1.062  10.114   8.438
15818SOL    HW249352   1.125  10.251   8.450
15819SOL     OW49353  10.832   8.624   9.999
15819SOL    HW149354  10.795   8.672   9.925
15819SOL    HW249355  10.787   8.659  10.076
15820SOL     OW49356   6.856   8.337   6.960
15820SOL    HW149357   6.908   8.320   6.882
15820SOL    HW249358   6.862   8.257   7.011
15821SOL     OW49359   1.018   2.028   8.149
15821SOL    HW149360   1.021   2.066   8.061
15821SOL    HW249361   0.971   2.094   8.201
15822SOL     OW49362   7.305  14.462  13.999
15822SOL    HW149363   7.330  14.502  13.915
15822SOL    HW249364   7.240  14.396  13.975
15823SOL     OW49365  11.107   2.426   9.039
15823SOL    HW149366  11.108   2.338   9.077
15823SOL    HW249367  11.139   2.482   9.109
15824SOL     OW49368  10.821   8.875   2.949
15824SOL    HW149369  10.815   8.926   2.869
15824SOL    HW249370  10.732   8.875   2.985
15825SOL     OW49371  11.925  12.873   1.396
15825SOL    HW149372  11.929  12.860   1.301
15825SOL    HW249373  11.836  12.847   1.420
15826SOL     OW49374   3.518   8.695   3.590
15826SOL    HW149375   3.557   8.777   3.559
15826SOL    HW249376   3.593   8.637   3.603
15827SOL     OW49377  12.716   1.647   0.947
15827SOL    HW149378  12.668   1.573   0.984
15827SOL    HW249379  12.754   1.613   0.866
15828SOL     OW49380  10.305   9.038  12.240
15828SOL    HW149381  10.263   9.051  12.325
15828SOL    HW249382  10.392   9.077  12.250
15829SOL     OW49383   8.045   2.464   0.432
15829SOL    HW149384   8.093   2.531   0.384
15829SOL    HW249385   8.096   2.384   0.418
15830SOL     OW49386   6.517  10.597   2.466
15830SOL    HW149387   6.509  10.570   2.557
15830SOL    HW249388   6.429  10.587   2.430
15831SOL     OW49389   9.040   0.205   7.155
15831SOL    HW149390   8.995   0.217   7.072
15831SOL    HW249391   8.989   0.137   7.200
15832SOL     OW49392  10.523  13.863  14.424
15832SOL    HW149393  10.564  13.804  14.488
15832SOL    HW249394  10.445  13.897  14.469
15833SOL     OW49395  13.902  12.000   9.091
15833SOL    HW149396  13.875  12.091   9.089
15833SOL    HW249397  13.969  11.997   9.160
15834SOL     OW49398   0.834  11.662  14.103
15834SOL    HW149399   0.766  11.690  14.165
15834SOL    HW249400   0.914  11.706  14.133
15835SOL     OW49401   0.855   9.145  10.421
15835SOL    HW149402   0.761   9.159  10.413
15835SOL    HW249403   0.876   9.171  10.511
15836SOL     OW49404   9.200  14.737   5.065
15836SOL    HW149405   9.239  14.769   4.984
15836SOL    HW249406   9.114  14.705   5.039
15837SOL     OW49407   6.284   0.813   8.156
15837SOL    HW149408   6.239   0.892   8.186
15837SOL    HW249409   6.217   0.745   8.156
15838SOL     OW49410   3.689   3.218   2.623
15838SOL    HW149411   3.667   3.132   2.660
15838SOL    HW249412   3.708   3.201   2.531
15839SOL     OW49413   5.443  13.986   8.585
15839SOL    HW149414   5.387  14.036   8.525
15839SOL    HW249415   5.399  13.993   8.670
15840SOL     OW49416   7.915   9.148   9.354
15840SOL    HW149417   7.960   9.073   9.315
15840SOL    HW249418   7.835   9.112   9.391
15841SOL     OW49419   2.706  10.204  12.697
15841SOL    HW149420   2.781  10.224  12.752
15841SOL    HW249421   2.728  10.239  12.611
15842SOL     OW49422  10.001   5.469  12.759
15842SOL    HW149423  10.038   5.469  12.671
15842SOL    HW249424   9.919   5.420  12.750
15843SOL     OW49425   1.125   8.364   2.078
15843SOL    HW149426   1.108   8.459   2.080
15843SOL    HW249427   1.193   8.351   2.145
15844SOL     OW49428   4.404   4.429   1.162
15844SOL    HW149429   4.480   4.403   1.214
15844SOL    HW249430   4.329   4.412   1.219
15845SOL     OW49431  11.986  12.104  13.932
15845SOL    HW149432  11.915  12.151  13.974
15845SOL    HW249433  11.951  12.077  13.847
15846SOL     OW49434  12.447   9.262   2.739
15846SOL    HW149435  12.472   9.240   2.649
15846SOL    HW249436  12.520   9.232   2.793
15847SOL     OW49437   7.221   4.902   9.382
15847SOL    HW149438   7.293   4.851   9.344
15847SOL    HW249439   7.259   4.988   9.398
15848SOL     OW49440  11.100   9.017   6.427
15848SOL    HW149441  11.093   8.934   6.474
15848SOL    HW249442  11.133   9.079   6.492
15849SOL     OW49443   7.764   1.799   1.507
15849SOL    HW149444   7.723   1.883   1.529
15849SOL    HW249445   7.858   1.818   1.503
15850SOL     OW49446  12.753   9.391  10.998
15850SOL    HW149447  12.661   9.384  10.973
15850SOL    HW249448  12.752   9.408  11.092
15851SOL     OW49449   1.084   7.204  14.528
15851SOL    HW149450   1.109   7.165  14.611
15851SOL    HW249451   1.136   7.284  14.522
15852SOL     OW49452   7.820   7.241  11.530
15852SOL    HW149453   7.772   7.213  11.452
15852SOL    HW249454   7.760   7.301  11.574
15853SOL     OW49455   9.098  12.863   1.829
15853SOL    HW149456   9.190  12.863   1.853
15853SOL    HW249457   9.091  12.923   1.755
15854SOL     OW49458   2.197  11.645   3.514
15854SOL    HW149459   2.114  11.600   3.535
15854SOL    HW249460   2.216  11.617   3.424
15855SOL     OW49461  14.538   2.278  12.191
15855SOL    HW149462  14.621   2.237  12.216
15855SOL    HW249463  14.474   2.207  12.194
15856SOL     OW49464  14.192   6.179  14.365
15856SOL    HW149465  14.153   6.114  14.423
15856SOL    HW249466  14.219   6.129  14.287
15857SOL     OW49467   3.312   2.063   7.316
15857SOL    HW149468   3.220   2.084   7.331
15857SOL    HW249469   3.349   2.053   7.404
15858SOL     OW49470   0.673   9.691   9.209
15858SOL    HW149471   0.764   9.677   9.238
15858SOL    HW249472   0.620   9.654   9.280
15859SOL     OW49473   8.515   5.283  11.769
15859SOL    HW149474   8.469   5.238  11.698
15859SOL    HW249475   8.444   5.314  11.827
15860SOL     OW49476   9.756   0.805   0.617
15860SOL    HW149477   9.761   0.890   0.572
15860SOL    HW249478   9.770   0.826   0.709
15861SOL     OW49479  12.201   5.879   1.506
15861SOL    HW149480  12.196   5.919   1.593
15861SOL    HW249481  12.110   5.856   1.486
15862SOL     OW49482   1.083   2.243   2.540
15862SOL    HW149483   1.107   2.162   2.494
15862SOL    HW249484   0.991   2.230   2.563
15863SOL     OW49485  10.545  12.153   2.713
15863SOL    HW149486  10.506  12.137   2.799
15863SOL    HW249487  10.574  12.067   2.683
15864SOL     OW49488   6.476   5.576  11.866
15864SOL    HW149489   6.512   5.578  11.955
15864SOL    HW249490   6.430   5.492  11.861
15865SOL     OW49491  14.553  10.727   7.632
15865SOL    HW149492  14.639  10.686   7.632
15865SOL    HW249493  14.492  10.657   7.655
15866SOL     OW49494   2.830   9.924  12.703
15866SOL    HW149495   2.759   9.888  12.755
15866SOL    HW249496   2.802  10.013  12.682
15867SOL     OW49497   7.371   8.695  12.688
15867SOL    HW149498   7.339   8.651  12.767
15867SOL    HW249499   7.386   8.786  12.716
15868SOL     OW49500   6.424   1.293   4.173
15868SOL    HW149501   6.443   1.333   4.257
15868SOL    HW249502   6.476   1.342   4.110
15869SOL     OW49503   4.869   0.735  11.009
15869SOL    HW149504   4.888   0.735  10.916
15869SOL    HW249505   4.938   0.681  11.048
15870SOL     OW49506   6.011   2.013   9.818
15870SOL    HW149507   5.974   1.930   9.786
15870SOL    HW249508   5.959   2.081   9.775
15871SOL     OW49509   4.760  12.571   6.552
15871SOL    HW149510   4.780  12.635   6.483
15871SOL    HW249511   4.839  12.518   6.558
15872SOL     OW49512   9.937  14.357   3.351
15872SOL    HW149513   9.994  14.291   3.311
15872SOL    HW249514   9.934  14.428   3.287
15873SOL     OW49515   9.393  12.257   3.106
15873SOL    HW149516   9.473  12.211   3.132
15873SOL    HW249517   9.339  12.191   3.064
15874SOL     OW49518   6.323   4.397  10.475
15874SOL    HW149519   6.317   4.487  10.507
15874SOL    HW249520   6.291   4.344  10.549
15875SOL     OW49521  12.157   4.513   6.068
15875SOL    HW149522  12.157   4.607   6.051
15875SOL    HW249523  12.079   4.480   6.023
15876SOL     OW49524  12.723   6.770   1.005
15876SOL    HW149525  12.640   6.788   0.960
15876SOL    HW249526  12.698   6.750   1.095
15877SOL     OW49527   6.958   7.723   6.513
15877SOL    HW149528   6.884   7.665   6.531
15877SOL    HW249529   6.977   7.711   6.420
15878SOL     OW49530  11.891  11.861   4.983
15878SOL    HW149531  11.880  11.938   5.038
15878SOL    HW249532  11.888  11.895   4.893
15879SOL     OW49533   1.207  10.625   6.510
15879SOL    HW149534   1.215  10.637   6.604
15879SOL    HW249535   1.220  10.713   6.473
15880SOL     OW49536   7.246  11.019   7.169
15880SOL    HW149537   7.315  11.065   7.215
15880SOL    HW249538   7.191  10.982   7.238
15881SOL     OW49539  11.034  13.500  13.960
15881SOL    HW149540  11.098  13.570  13.946
15881SOL    HW249541  10.974  13.507  13.886
15882SOL     OW49542   2.643  10.309   9.524
15882SOL    HW149543   2.692  10.227   9.531
15882SOL    HW249544   2.674  10.348   9.443
15883SOL     OW49545  12.190   8.609  11.524
15883SOL    HW149546  12.219   8.520  11.544
15883SOL    HW249547  12.095   8.605  11.523
15884SOL     OW49548   7.717   7.588  12.584
15884SOL    HW149549   7.811   7.574  12.597
15884SOL    HW249550   7.685   7.508  12.542
15885SOL     OW49551   5.025   3.813   9.070
15885SOL    HW149552   4.940   3.833   9.031
15885SOL    HW249553   5.088   3.829   9.000
15886SOL     OW49554  12.535   4.354  13.501
15886SOL    HW149555  12.555   4.448  13.503
15886SOL    HW249556  12.440   4.350  13.512
15887SOL     OW49557   5.387   2.174   4.339
15887SOL    HW149558   5.364   2.265   4.321
15887SOL    HW249559   5.356   2.159   4.429
15888SOL     OW49560   6.720   7.226   8.782
15888SOL    HW149561   6.650   7.184   8.832
15888SOL    HW249562   6.721   7.181   8.698
15889SOL     OW49563   4.250   7.348  11.520
15889SOL    HW149564   4.204   7.269  11.548
15889SOL    HW249565   4.183   7.417  11.525
15890SOL     OW49566  12.588  10.103   0.119
15890SOL    HW149567  12.593  10.199   0.120
15890SOL    HW249568  12.504  10.084   0.077
15891SOL     OW49569   9.345   3.418   3.525
15891SOL    HW149570   9.298   3.354   3.579
15891SOL    HW249571   9.388   3.475   3.589
15892SOL     OW49572   7.715  14.027   9.963
15892SOL    HW149573   7.776  14.098   9.945
15892SOL    HW249574   7.770  13.952   9.984
15893SOL     OW49575   8.134  10.093   9.285
15893SOL    HW149576   8.052  10.141   9.290
15893SOL    HW249577   8.185  10.124   9.360
15894SOL     OW49578   0.103  12.354   3.450
15894SOL    HW149579   0.139  12.297   3.518
15894SOL    HW249580   0.026  12.394   3.490
15895SOL     OW49581   6.394  10.245  10.616
15895SOL    HW149582   6.371  10.178  10.551
15895SOL    HW249583   6.442  10.198  10.683
15896SOL     OW49584   2.797  14.193  10.545
15896SOL    HW149585   2.860  14.121  10.549
15896SOL    HW249586   2.712  14.150  10.533
15897SOL     OW49587   1.024   3.107  11.739
15897SOL    HW149588   1.020   3.032  11.680
15897SOL    HW249589   1.056   3.070  11.822
15898SOL     OW49590  12.096   4.343  12.668
15898SOL    HW149591  12.184   4.371  12.692
15898SOL    HW249592  12.108   4.280  12.598
15899SOL     OW49593   7.380   3.405   1.520
15899SOL    HW149594   7.453   3.400   1.582
15899SOL    HW249595   7.349   3.315   1.513
15900SOL     OW49596   2.028   5.476   9.991
15900SOL    HW149597   2.092   5.433  10.048
15900SOL    HW249598   1.945   5.436  10.014
15901SOL     OW49599  12.911   9.357   4.170
15901SOL    HW149600  12.874   9.337   4.256
15901SOL    HW249601  12.835   9.382   4.117
15902SOL     OW49602  14.595   0.548   1.238
15902SOL    HW149603  14.644   0.621   1.200
15902SOL    HW249604  14.522   0.589   1.285
15903SOL     OW49605   3.090   1.484  13.688
15903SOL    HW149606   3.056   1.573  13.702
15903SOL    HW249607   3.183   1.497  13.673
15904SOL     OW49608  11.635   6.996   0.559
15904SOL    HW149609  11.607   7.084   0.536
15904SOL    HW249610  11.553   6.948   0.576
15905SOL     OW49611   4.186   9.220   3.607
15905SOL    HW149612   4.147   9.255   3.687
15905SOL    HW249613   4.246   9.152   3.637
15906SOL     OW49614   2.873   8.798  12.212
15906SOL    HW149615   2.827   8.719  12.242
15906SOL    HW249616   2.807   8.866  12.213
15907SOL     OW49617  12.756   3.958   7.651
15907SOL    HW149618  12.667   3.965   7.686
15907SOL    HW249619  12.744   3.937   7.558
15908SOL     OW49620   8.006   9.771  14.833
15908SOL    HW149621   8.051   9.705   0.005
15908SOL    HW249622   7.936   9.803   0.009
15909SOL     OW49623   1.903   8.711   9.375
15909SOL    HW149624   1.941   8.683   9.292
15909SOL    HW249625   1.970   8.689   9.440
15910SOL     OW49626  10.124   0.564   3.538
15910SOL    HW149627  10.121   0.468   3.544
15910SOL    HW249628  10.059   0.585   3.471
15911SOL     OW49629  12.219   7.246   0.001
15911SOL    HW149630  12.306   7.285  14.872
15911SOL    HW249631  12.161   7.306  14.834
15912SOL     OW49632   3.848   7.380  11.420
15912SOL    HW149633   3.860   7.297  11.374
15912SOL    HW249634   3.792   7.359  11.495
15913SOL     OW49635   3.719   4.120   0.980
15913SOL    HW149636   3.802   4.083   0.950
15913SOL    HW249637   3.733   4.137   1.074
15914SOL     OW49638  11.552   7.110   7.886
15914SOL    HW149639  11.599   7.052   7.946
15914SOL    HW249640  11.464   7.072   7.879
15915SOL     OW49641  14.158   9.297   1.392
15915SOL    HW149642  14.183   9.384   1.361
15915SOL    HW249643  14.132   9.311   1.483
15916SOL     OW49644  12.287  13.982  12.858
15916SOL    HW149645  12.268  13.898  12.816
15916SOL    HW249646  12.305  14.041  12.785
15917SOL     OW49647  12.145  12.016   5.070
15917SOL    HW149648  12.165  11.960   4.995
15917SOL    HW249649  12.058  12.051   5.052
15918SOL     OW49650  14.464  11.798   6.254
15918SOL    HW149651  14.559  11.807   6.247
15918SOL    HW249652  14.430  11.886   6.237
15919SOL     OW49653   4.500   6.723  11.679
15919SOL    HW149654   4.472   6.735  11.589
15919SOL    HW249655   4.457   6.794  11.727
15920SOL     OW49656   0.540  12.622  11.445
15920SOL    HW149657   0.474  12.622  11.515
15920SOL    HW249658   0.562  12.715  11.433
15921SOL     OW49659   9.953  13.881  12.049
15921SOL    HW149660   9.958  13.867  12.143
15921SOL    HW249661   9.859  13.884  12.030
15922SOL     OW49662   6.848  11.666  13.785
15922SOL    HW149663   6.783  11.729  13.755
15922SOL    HW249664   6.809  11.580  13.767
15923SOL     OW49665   4.971   3.157  12.712
15923SOL    HW149666   5.026   3.230  12.682
15923SOL    HW249667   4.885   3.175  12.675
15924SOL     OW49668   2.296  13.781   8.603
15924SOL    HW149669   2.278  13.872   8.629
15924SOL    HW249670   2.272  13.729   8.680
15925SOL     OW49671   6.625  10.399  12.929
15925SOL    HW149672   6.707  10.444  12.906
15925SOL    HW249673   6.609  10.340  12.855
15926SOL     OW49674   8.403  13.638  10.369
15926SOL    HW149675   8.310  13.640  10.349
15926SOL    HW249676   8.435  13.726  10.348
15927SOL     OW49677   1.211  10.397   2.707
15927SOL    HW149678   1.280  10.453   2.672
15927SOL    HW249679   1.205  10.421   2.800
15928SOL     OW49680   9.053   5.750  12.098
15928SOL    HW149681   8.958   5.738  12.103
15928SOL    HW249682   9.087   5.662  12.082
15929SOL     OW49683  14.522   7.067   2.666
15929SOL    HW149684  14.565   7.070   2.751
15929SOL    HW249685  14.582   7.114   2.607
15930SOL     OW49686  12.694   8.744   1.276
15930SOL    HW149687  12.770   8.709   1.323
15930SOL    HW249688  12.732   8.796   1.206
15931SOL     OW49689   3.149   9.964   7.807
15931SOL    HW149690   3.153  10.034   7.742
15931SOL    HW249691   3.055   9.948   7.820
15932SOL     OW49692  12.689   0.599  11.530
15932SOL    HW149693  12.718   0.513  11.560
15932SOL    HW249694  12.613   0.581  11.475
15933SOL     OW49695   5.532   6.824   1.092
15933SOL    HW149696   5.601   6.787   1.037
15933SOL    HW249697   5.524   6.914   1.063
15934SOL     OW49698   2.609   6.272   5.970
15934SOL    HW149699   2.697   6.282   5.934
15934SOL    HW249700   2.600   6.178   5.987
15935SOL     OW49701   8.441   8.325  10.726
15935SOL    HW149702   8.524   8.313  10.679
15935SOL    HW249703   8.446   8.415  10.759
15936SOL     OW49704   6.499  13.011   0.378
15936SOL    HW149705   6.460  12.936   0.424
15936SOL    HW249706   6.525  13.071   0.447
15937SOL     OW49707  13.136  10.396  13.747
15937SOL    HW149708  13.134  10.490  13.731
15937SOL    HW249709  13.199  10.361  13.684
15938SOL     OW49710  14.145  11.228   1.718
15938SOL    HW149711  14.127  11.218   1.624
15938SOL    HW249712  14.238  11.204   1.727
15939SOL     OW49713  12.716  10.961   5.241
15939SOL    HW149714  12.700  11.004   5.157
15939SOL    HW249715  12.808  10.982   5.261
15940SOL     OW49716   9.490   1.252   8.976
15940SOL    HW149717   9.555   1.276   9.042
15940SOL    HW249718   9.435   1.186   9.018
15941SOL     OW49719  12.206  13.875  12.311
15941SOL    HW149720  12.121  13.912  12.337
15941SOL    HW249721  12.263  13.951  12.298
15942SOL     OW49722  14.222   1.483   1.132
15942SOL    HW149723  14.202   1.390   1.121
15942SOL    HW249724  14.311   1.493   1.100
15943SOL     OW49725   4.526   9.290   4.587
15943SOL    HW149726   4.537   9.195   4.577
15943SOL    HW249727   4.458   9.299   4.655
15944SOL     OW49728   2.829   7.152   4.984
15944SOL    HW149729   2.850   7.097   4.909
15944SOL    HW249730   2.895   7.129   5.050
15945SOL     OW49731   7.598   1.486   0.450
15945SOL    HW149732   7.661   1.446   0.391
15945SOL    HW249733   7.589   1.575   0.418
15946SOL     OW49734   8.830   9.574  14.553
15946SOL    HW149735   8.748   9.563  14.602
15946SOL    HW249736   8.842   9.669  14.546
15947SOL     OW49737   4.926  11.905   6.104
15947SOL    HW149738   4.842  11.872   6.135
15947SOL    HW249739   4.990  11.875   6.168
15948SOL     OW49740  12.314   4.731   0.382
15948SOL    HW149741  12.330   4.802   0.444
15948SOL    HW249742  12.218   4.726   0.375
15949SOL     OW49743  14.568   6.473   9.705
15949SOL    HW149744  14.658   6.467   9.737
15949SOL    HW249745  14.573   6.532   9.629
15950SOL     OW49746   1.068  13.592   0.468
15950SOL    HW149747   0.991  13.569   0.521
15950SOL    HW249748   1.033  13.606   0.380
15951SOL     OW49749   5.345   0.037  14.741
15951SOL    HW149750   5.300  14.864  14.807
15951SOL    HW249751   5.422  14.865  14.718
15952SOL     OW49752   4.397   6.970   9.569
15952SOL    HW149753   4.462   7.007   9.509
15952SOL    HW249754   4.439   6.892   9.604
15953SOL     OW49755   7.849   3.708   3.904
15953SOL    HW149756   7.854   3.745   3.992
15953SOL    HW249757   7.814   3.779   3.850
15954SOL     OW49758  12.827   5.722   5.370
15954SOL    HW149759  12.875   5.804   5.376
15954SOL    HW249760  12.874   5.671   5.304
15955SOL     OW49761  10.038   2.366  13.453
15955SOL    HW149762  10.091   2.310  13.396
15955SOL    HW249763  10.039   2.321  13.537
15956SOL     OW49764  11.841   0.012  11.407
15956SOL    HW149765  11.847  14.815  11.463
15956SOL    HW249766  11.906   0.073  11.442
15957SOL     OW49767   0.480   3.781  10.826
15957SOL    HW149768   0.567   3.812  10.850
15957SOL    HW249769   0.439   3.756  10.909
15958SOL     OW49770   8.242   6.145   8.946
15958SOL    HW149771   8.217   6.073   9.004
15958SOL    HW249772   8.218   6.224   8.994
15959SOL     OW49773  12.275  13.490   7.314
15959SOL    HW149774  12.302  13.398   7.315
15959SOL    HW249775  12.357  13.538   7.308
15960SOL     OW49776  13.332   3.360  12.154
15960SOL    HW149777  13.415   3.390  12.192
15960SOL    HW249778  13.317   3.274  12.194
15961SOL     OW49779   4.699   6.775   6.260
15961SOL    HW149780   4.767   6.719   6.222
15961SOL    HW249781   4.730   6.864   6.245
15962SOL     OW49782   5.178   5.570   1.321
15962SOL    HW149783   5.249   5.506   1.317
15962SOL    HW249784   5.185   5.618   1.238
15963SOL     OW49785   3.293  10.288   1.092
15963SOL    HW149786   3.234  10.221   1.128
15963SOL    HW249787   3.368  10.239   1.058
15964SOL     OW49788   3.141  14.108   0.687
15964SOL    HW149789   3.069  14.120   0.624
15964SOL    HW249790   3.104  14.056   0.757
15965SOL     OW49791   9.496   9.020   5.213
15965SOL    HW149792   9.582   8.998   5.250
15965SOL    HW249793   9.442   9.041   5.290
15966SOL     OW49794   7.483   9.539   5.274
15966SOL    HW149795   7.503   9.477   5.343
15966SOL    HW249796   7.524   9.621   5.302
15967SOL     OW49797   7.548   5.483  13.371
15967SOL    HW149798   7.496   5.554  13.409
15967SOL    HW249799   7.633   5.491  13.413
15968SOL     OW49800   4.618   4.030  13.252
15968SOL    HW149801   4.667   4.106  13.220
15968SOL    HW249802   4.618   4.041  13.347
15969SOL     OW49803   9.384  10.195   9.276
15969SOL    HW149804   9.371  10.102   9.293
15969SOL    HW249805   9.394  10.234   9.363
15970SOL     OW49806   0.627   0.220   2.051
15970SOL    HW149807   0.707   0.257   2.016
15970SOL    HW249808   0.584   0.180   1.975
15971SOL     OW49809  13.441   3.634   3.848
15971SOL    HW149810  13.501   3.660   3.918
15971SOL    HW249811  13.453   3.700   3.779
15972SOL     OW49812   6.267   6.989  11.391
15972SOL    HW149813   6.303   6.903  11.369
15972SOL    HW249814   6.258   7.034  11.308
15973SOL     OW49815  10.018  13.441   0.280
15973SOL    HW149816   9.983  13.441   0.370
15973SOL    HW249817   9.990  13.525   0.244
15974SOL     OW49818   4.889  11.598  10.675
15974SOL    HW149819   4.933  11.605  10.760
15974SOL    HW249820   4.852  11.510  10.675
15975SOL     OW49821  11.257   9.433   5.082
15975SOL    HW149822  11.274   9.348   5.122
15975SOL    HW249823  11.207   9.481   5.148
15976SOL     OW49824  11.831   9.323   2.023
15976SOL    HW149825  11.820   9.228   2.016
15976SOL    HW249826  11.847   9.338   2.116
15977SOL     OW49827   6.510   6.261   2.135
15977SOL    HW149828   6.595   6.222   2.110
15977SOL    HW249829   6.455   6.250   2.058
15978SOL     OW49830   8.440  13.056   9.114
15978SOL    HW149831   8.445  12.961   9.101
15978SOL    HW249832   8.527  13.088   9.087
15979SOL     OW49833   6.059   9.699   7.720
15979SOL    HW149834   5.988   9.635   7.733
15979SOL    HW249835   6.139   9.649   7.732
15980SOL     OW49836   1.450   2.980   9.482
15980SOL    HW149837   1.532   3.028   9.495
15980SOL    HW249838   1.382   3.045   9.496
15981SOL     OW49839   7.399   2.878   8.052
15981SOL    HW149840   7.409   2.787   8.025
15981SOL    HW249841   7.481   2.899   8.097
15982SOL     OW49842  14.203   5.079   1.830
15982SOL    HW149843  14.254   5.000   1.847
15982SOL    HW249844  14.133   5.050   1.772
15983SOL     OW49845   6.665   4.482  14.301
15983SOL    HW149846   6.593   4.491  14.239
15983SOL    HW249847   6.653   4.555  14.362
15984SOL     OW49848   1.117  10.623   2.377
15984SOL    HW149849   1.106  10.594   2.287
15984SOL    HW249850   1.115  10.719   2.371
15985SOL     OW49851   6.490  14.051   2.189
15985SOL    HW149852   6.549  14.069   2.116
15985SOL    HW249853   6.542  14.068   2.268
15986SOL     OW49854   8.775   6.843   9.825
15986SOL    HW149855   8.738   6.795   9.900
15986SOL    HW249856   8.817   6.776   9.772
15987SOL     OW49857   2.876   4.479   7.146
15987SOL    HW149858   2.961   4.480   7.104
15987SOL    HW249859   2.895   4.488   7.239
15988SOL     OW49860  12.234   9.204   9.072
15988SOL    HW149861  12.234   9.119   9.029
15988SOL    HW249862  12.211   9.266   9.003
15989SOL     OW49863   7.669   5.423   5.584
15989SOL    HW149864   7.624   5.501   5.552
15989SOL    HW249865   7.600   5.360   5.602
15990SOL     OW49866   0.603  13.658   2.098
15990SOL    HW149867   0.512  13.645   2.124
15990SOL    HW249868   0.606  13.633   2.006
15991SOL     OW49869   3.056   3.804  11.457
15991SOL    HW149870   3.140   3.832  11.495
15991SOL    HW249871   3.081   3.759  11.376
15992SOL     OW49872   1.908   1.939  12.474
15992SOL    HW149873   1.854   1.977  12.543
15992SOL    HW249874   1.960   2.013  12.441
15993SOL     OW49875   8.592   6.871   7.484
15993SOL    HW149876   8.597   6.823   7.402
15993SOL    HW249877   8.514   6.836   7.528
15994SOL     OW49878   9.913   6.833  14.549
15994SOL    HW149879   9.849   6.854  14.481
15994SOL    HW249880   9.969   6.767  14.509
15995SOL     OW49881   5.759   7.996   0.993
15995SOL    HW149882   5.722   8.000   0.905
15995SOL    HW249883   5.837   8.051   0.989
15996SOL     OW49884   3.675   2.421   7.711
15996SOL    HW149885   3.699   2.447   7.622
15996SOL    HW249886   3.641   2.501   7.751
15997SOL     OW49887   0.529   1.349  10.629
15997SOL    HW149888   0.503   1.407  10.557
15997SOL    HW249889   0.455   1.353  10.690
15998SOL     OW49890   5.720   8.781   1.153
15998SOL    HW149891   5.634   8.815   1.179
15998SOL    HW249892   5.735   8.708   1.213
15999SOL     OW49893   5.563  14.819  11.433
15999SOL    HW149894   5.625  14.782  11.369
15999SOL    HW249895   5.477  14.803  11.395
16000SOL     OW49896  11.939   1.293   0.916
16000SOL    HW149897  12.016   1.236   0.914
16000SOL    HW249898  11.952   1.348   0.993
16001SOL     OW49899  13.347   4.374   5.983
16001SOL    HW149900  13.252   4.371   5.996
16001SOL    HW249901  13.378   4.289   6.014
16002SOL     OW49902  11.903  14.189   3.808
16002SOL    HW149903  11.958  14.169   3.884
16002SOL    HW249904  11.821  14.144   3.825
16003SOL     OW49905   3.828  12.751  10.330
16003SOL    HW149906   3.868  12.747  10.243
16003SOL    HW249907   3.754  12.811  10.320
16004SOL     OW49908   6.382   9.461   7.570
16004SOL    HW149909   6.296   9.438   7.534
16004SOL    HW249910   6.411   9.382   7.616
16005SOL     OW49911   1.028  12.548   7.199
16005SOL    HW149912   1.019  12.546   7.103
16005SOL    HW249913   0.943  12.520   7.232
16006SOL     OW49914   1.873  12.955   3.093
16006SOL    HW149915   1.778  12.948   3.107
16006SOL    HW249916   1.882  12.981   3.001
16007SOL     OW49917   7.677  14.074  11.617
16007SOL    HW149918   7.761  14.032  11.639
16007SOL    HW249919   7.702  14.157  11.576
16008SOL     OW49920   1.829  14.870   8.094
16008SOL    HW149921   1.748  14.876   8.044
16008SOL    HW249922   1.801  14.852   8.183
16009SOL     OW49923   5.972  11.725  12.671
16009SOL    HW149924   5.905  11.736  12.603
16009SOL    HW249925   6.021  11.807  12.670
16010SOL     OW49926  13.386   6.854   0.132
16010SOL    HW149927  13.317   6.796   0.162
16010SOL    HW249928  13.369   6.937   0.177
16011SOL     OW49929  12.296  14.759   6.874
16011SOL    HW149930  12.372  14.779   6.819
16011SOL    HW249931  12.317  14.676   6.915
16012SOL     OW49932  12.180   6.826   6.195
16012SOL    HW149933  12.150   6.758   6.255
16012SOL    HW249934  12.273   6.837   6.216
16013SOL     OW49935   7.170  11.528   9.753
16013SOL    HW149936   7.119  11.528   9.834
16013SOL    HW249937   7.184  11.436   9.733
16014SOL     OW49938   6.391  12.165  12.248
16014SOL    HW149939   6.374  12.080  12.206
16014SOL    HW249940   6.486  12.172  12.251
16015SOL     OW49941  14.704   3.224   7.298
16015SOL    HW149942  14.745   3.182   7.222
16015SOL    HW249943  14.655   3.154   7.341
16016SOL     OW49944   0.487   3.320   5.420
16016SOL    HW149945   0.426   3.254   5.387
16016SOL    HW249946   0.430   3.387   5.458
16017SOL     OW49947   1.275   3.312   2.531
16017SOL    HW149948   1.269   3.219   2.551
16017SOL    HW249949   1.362   3.338   2.561
16018SOL     OW49950   8.024   3.877   8.300
16018SOL    HW149951   7.961   3.897   8.369
16018SOL    HW249952   7.974   3.829   8.235
16019SOL     OW49953   6.981   5.662  10.379
16019SOL    HW149954   6.948   5.721  10.447
16019SOL    HW249955   7.063   5.627  10.415
16020SOL     OW49956  14.259  12.672  13.153
16020SOL    HW149957  14.230  12.761  13.133
16020SOL    HW249958  14.344  12.684  13.197
16021SOL     OW49959   3.664  13.236   8.580
16021SOL    HW149960   3.582  13.231   8.531
16021SOL    HW249961   3.732  13.239   8.513
16022SOL     OW49962  11.939   7.641  13.573
16022SOL    HW149963  11.929   7.725  13.619
16022SOL    HW249964  11.852   7.621  13.540
16023SOL     OW49965  10.558   6.749   2.194
16023SOL    HW149966  10.605   6.787   2.120
16023SOL    HW249967  10.466   6.748   2.166
16024SOL     OW49968  11.891   0.397  10.896
16024SOL    HW149969  11.822   0.430  10.954
16024SOL    HW249970  11.963   0.458  10.907
16025SOL     OW49971   5.639   2.614  14.017
16025SOL    HW149972   5.562   2.600  13.961
16025SOL    HW249973   5.636   2.707  14.039
16026SOL     OW49974   2.251   4.829   3.778
16026SOL    HW149975   2.303   4.757   3.814
16026SOL    HW249976   2.315   4.897   3.759
16027SOL     OW49977  14.326  14.511   8.582
16027SOL    HW149978  14.349  14.511   8.490
16027SOL    HW249979  14.296  14.421   8.600
16028SOL     OW49980   9.580  12.372   7.638
16028SOL    HW149981   9.659  12.426   7.630
16028SOL    HW249982   9.594  12.300   7.576
16029SOL     OW49983   7.210   1.632  11.537
16029SOL    HW149984   7.116   1.643  11.530
16029SOL    HW249985   7.245   1.676  11.460
16030SOL     OW49986  10.377  14.599  10.041
16030SOL    HW149987  10.402  14.650   9.964
16030SOL    HW249988  10.436  14.628  10.110
16031SOL     OW49989  10.632   0.538   0.528
16031SOL    HW149990  10.716   0.501   0.557
16031SOL    HW249991  10.641   0.632   0.543
16032SOL     OW49992   0.514  10.434  14.873
16032SOL    HW149993   0.587  10.470   0.044
16032SOL    HW249994   0.519  10.340   0.007
16033SOL     OW49995   1.197  12.452   0.964
16033SOL    HW149996   1.257  12.426   1.033
16033SOL    HW249997   1.250  12.503   0.903
16034SOL     OW49998   0.316   2.340   2.166
16034SOL    HW149999   0.220   2.346   2.160
16034SOL    HW250000   0.338   2.257   2.125
16035SOL     OW50001   2.085  14.498  12.913
16035SOL    HW150002   2.071  14.586  12.946
16035SOL    HW250003   2.035  14.441  12.971
16036SOL     OW50004  10.100   8.618   5.473
16036SOL    HW150005  10.063   8.698   5.511
16036SOL    HW250006  10.073   8.548   5.533
16037SOL     OW50007   4.354  14.018   5.121
16037SOL    HW150008   4.443  13.999   5.153
16037SOL    HW250009   4.361  14.012   5.026
16038SOL     OW50010   9.779  13.495   7.017
16038SOL    HW150011   9.856  13.490   7.073
16038SOL    HW250012   9.761  13.405   6.992
16039SOL     OW50013   2.035   3.386   5.460
16039SOL    HW150014   1.974   3.329   5.506
16039SOL    HW250015   2.046   3.461   5.519
16040SOL     OW50016   2.939   5.520   4.142
16040SOL    HW150017   2.965   5.441   4.095
16040SOL    HW250018   2.860   5.495   4.190
16041SOL     OW50019  12.378   3.641  12.543
16041SOL    HW150020  12.304   3.699  12.565
16041SOL    HW250021  12.445   3.701  12.510
16042SOL     OW50022   5.373  10.296  13.304
16042SOL    HW150023   5.283  10.295  13.337
16042SOL    HW250024   5.382  10.383  13.265
16043SOL     OW50025  12.097   5.575  12.251
16043SOL    HW150026  12.110   5.534  12.337
16043SOL    HW250027  12.184   5.605  12.226
16044SOL     OW50028   1.368  13.505   6.530
16044SOL    HW150029   1.364  13.591   6.572
16044SOL    HW250030   1.279  13.469   6.540
16045SOL     OW50031  14.800   2.966   5.712
16045SOL    HW150032  14.724   3.022   5.730
16045SOL    HW250033  14.765   2.877   5.713
16046SOL     OW50034   1.407   9.304   9.616
16046SOL    HW150035   1.485   9.307   9.560
16046SOL    HW250036   1.438   9.329   9.703
16047SOL     OW50037   8.202  12.772  12.359
16047SOL    HW150038   8.247  12.794  12.441
16047SOL    HW250039   8.115  12.743  12.387
16048SOL     OW50040   9.647  14.437   4.699
16048SOL    HW150041   9.644  14.343   4.715
16048SOL    HW250042   9.733  14.452   4.660
16049SOL     OW50043  10.871  13.925   7.496
16049SOL    HW150044  10.903  13.907   7.585
16049SOL    HW250045  10.950  13.918   7.442
16050SOL     OW50046   3.074  14.615   0.572
16050SOL    HW150047   3.077  14.539   0.629
16050SOL    HW250048   3.165  14.635   0.553
16051SOL     OW50049   1.815  10.170   9.590
16051SOL    HW150050   1.733  10.197   9.550
16051SOL    HW250051   1.790  10.125   9.671
16052SOL     OW50052  10.906   7.836  12.823
16052SOL    HW150053  10.997   7.855  12.802
16052SOL    HW250054  10.865   7.812  12.740
16053SOL     OW50055   1.012   1.942  12.862
16053SOL    HW150056   1.095   1.938  12.815
16053SOL    HW250057   0.946   1.939  12.792
16054SOL     OW50058   8.198  14.083   3.143
16054SOL    HW150059   8.181  14.162   3.194
16054SOL    HW250060   8.112  14.042   3.134
16055SOL     OW50061  11.941   3.890   2.875
16055SOL    HW150062  11.915   3.882   2.783
16055SOL    HW250063  11.923   3.982   2.897
16056SOL     OW50064  11.355   1.115  10.897
16056SOL    HW150065  11.425   1.179  10.884
16056SOL    HW250066  11.296   1.155  10.962
16057SOL     OW50067   6.545   9.396   2.164
16057SOL    HW150068   6.467   9.415   2.112
16057SOL    HW250069   6.615   9.447   2.123
16058SOL     OW50070   9.403  11.722   2.622
16058SOL    HW150071   9.409  11.655   2.554
16058SOL    HW250072   9.323  11.700   2.670
16059SOL     OW50073   8.669   9.436   2.242
16059SOL    HW150074   8.635   9.523   2.263
16059SOL    HW250075   8.605   9.399   2.181
16060SOL     OW50076  10.693  14.834   9.972
16060SOL    HW150077  10.746  14.763  10.009
16060SOL    HW250078  10.721   0.031  10.021
16061SOL     OW50079   1.754   5.908   0.690
16061SOL    HW150080   1.756   5.991   0.739
16061SOL    HW250081   1.805   5.847   0.744
16062SOL     OW50082  13.975   1.611   7.346
16062SOL    HW150083  13.964   1.571   7.432
16062SOL    HW250084  13.908   1.570   7.291
16063SOL     OW50085  13.229   5.564   0.706
16063SOL    HW150086  13.164   5.549   0.638
16063SOL    HW250087  13.212   5.653   0.736
16064SOL     OW50088  14.566  11.615  14.797
16064SOL    HW150089  14.559  11.612  14.701
16064SOL    HW250090  14.656  11.643  14.814
16065SOL     OW50091   7.152  12.055  13.982
16065SOL    HW150092   7.205  12.080  13.906
16065SOL    HW250093   7.129  12.138  14.023
16066SOL     OW50094   7.445   7.600   2.082
16066SOL    HW150095   7.502   7.673   2.106
16066SOL    HW250096   7.460   7.587   1.988
16067SOL     OW50097   9.368   4.384   5.719
16067SOL    HW150098   9.298   4.401   5.656
16067SOL    HW250099   9.442   4.436   5.689
16068SOL     OW50100   3.716   7.742  12.045
16068SOL    HW150101   3.762   7.819  12.080
16068SOL    HW250102   3.662   7.777  11.974
16069SOL     OW50103   9.231   9.015  14.033
16069SOL    HW150104   9.292   9.072  14.080
16069SOL    HW250105   9.190   9.073  13.968
16070SOL     OW50106  14.326   8.740   5.049
16070SOL    HW150107  14.329   8.653   5.010
16070SOL    HW250108  14.236   8.750   5.079
16071SOL     OW50109  13.642   6.721  11.989
16071SOL    HW150110  13.630   6.642  12.043
16071SOL    HW250111  13.572   6.780  12.017
16072SOL     OW50112   9.079  14.804  13.194
16072SOL    HW150113   9.061  14.768  13.107
16072SOL    HW250114   9.069   0.018  13.183
16073SOL     OW50115  10.352  12.865   5.543
16073SOL    HW150116  10.385  12.803   5.608
16073SOL    HW250117  10.378  12.827   5.459
16074SOL     OW50118  12.526   4.360   7.731
16074SOL    HW150119  12.596   4.405   7.683
16074SOL    HW250120  12.500   4.422   7.800
16075SOL     OW50121   3.702  10.978  14.419
16075SOL    HW150122   3.726  10.989  14.511
16075SOL    HW250123   3.786  10.967  14.373
16076SOL     OW50124   1.615   1.884   2.293
16076SOL    HW150125   1.550   1.832   2.340
16076SOL    HW250126   1.651   1.825   2.228
16077SOL     OW50127  10.694   0.233  13.481
16077SOL    HW150128  10.705   0.255  13.389
16077SOL    HW250129  10.698   0.138  13.484
16078SOL     OW50130   8.080   9.353  13.073
16078SOL    HW150131   8.160   9.398  13.048
16078SOL    HW250132   8.063   9.292  13.001
16079SOL     OW50133  10.289  11.506   2.907
16079SOL    HW150134  10.374  11.492   2.948
16079SOL    HW250135  10.272  11.599   2.917
16080SOL     OW50136  13.784   8.561  13.282
16080SOL    HW150137  13.790   8.649  13.244
16080SOL    HW250138  13.794   8.502  13.206
16081SOL     OW50139   9.264   7.863   6.309
16081SOL    HW150140   9.287   7.850   6.217
16081SOL    HW250141   9.348   7.859   6.355
16082SOL     OW50142   3.434   9.871   8.953
16082SOL    HW150143   3.387   9.850   8.873
16082SOL    HW250144   3.410   9.801   9.014
16083SOL     OW50145   4.700   8.390   6.614
16083SOL    HW150146   4.686   8.350   6.528
16083SOL    HW250147   4.744   8.321   6.665
16084SOL     OW50148  12.648  12.883   6.226
16084SOL    HW150149  12.679  12.969   6.197
16084SOL    HW250150  12.707  12.820   6.184
16085SOL     OW50151   6.242   1.266   8.018
16085SOL    HW150152   6.231   1.361   8.013
16085SOL    HW250153   6.160   1.231   7.982
16086SOL     OW50154   0.810  14.519   8.586
16086SOL    HW150155   0.881  14.533   8.649
16086SOL    HW250156   0.829  14.579   8.514
16087SOL     OW50157  12.315   2.915  14.772
16087SOL    HW150158  12.355   2.896  14.857
16087SOL    HW250159  12.221   2.907  14.786
16088SOL     OW50160   1.389   6.086  14.595
16088SOL    HW150161   1.362   6.102  14.686
16088SOL    HW250162   1.376   6.170  14.552
16089SOL     OW50163  13.033   6.155   3.752
16089SOL    HW150164  13.069   6.118   3.833
16089SOL    HW250165  13.006   6.243   3.777
16090SOL     OW50166   3.153  13.429  10.151
16090SOL    HW150167   3.117  13.476  10.076
16090SOL    HW250168   3.247  13.428  10.135
16091SOL     OW50169   9.563  12.134   2.651
16091SOL    HW150170   9.525  12.102   2.569
16091SOL    HW250171   9.576  12.056   2.704
16092SOL     OW50172   8.533   3.805   3.496
16092SOL    HW150173   8.587   3.831   3.570
16092SOL    HW250174   8.457   3.763   3.535
16093SOL     OW50175   9.252  11.994   3.784
16093SOL    HW150176   9.259  12.081   3.744
16093SOL    HW250177   9.273  11.933   3.713
16094SOL     OW50178   7.813   7.973   8.050
16094SOL    HW150179   7.761   8.037   8.000
16094SOL    HW250180   7.847   8.023   8.124
16095SOL     OW50181  13.157  11.573   2.157
16095SOL    HW150182  13.077  11.599   2.202
16095SOL    HW250183  13.219  11.551   2.226
16096SOL     OW50184   6.750   8.161   3.582
16096SOL    HW150185   6.689   8.198   3.519
16096SOL    HW250186   6.705   8.085   3.618
16097SOL     OW50187   6.632  13.460   4.090
16097SOL    HW150188   6.596  13.405   4.021
16097SOL    HW250189   6.557  13.483   4.144
16098SOL     OW50190   1.149  13.037  11.116
16098SOL    HW150191   1.116  12.952  11.145
16098SOL    HW250192   1.129  13.096  11.188
16099SOL     OW50193  13.645   1.746  11.806
16099SOL    HW150194  13.657   1.760  11.712
16099SOL    HW250195  13.551   1.758  11.820
16100SOL     OW50196  14.806   9.142   8.544
16100SOL    HW150197   0.015   9.111   8.559
16100SOL    HW250198  14.783   9.110   8.456
16101SOL     OW50199   0.945   6.935  14.429
16101SOL    HW150200   0.974   6.849  14.461
16101SOL    HW250201   1.026   6.987  14.424
16102SOL     OW50202   7.265  13.522   8.261
16102SOL    HW150203   7.211  13.504   8.184
16102SOL    HW250204   7.207  13.510   8.335
16103SOL     OW50205   2.013  14.544   2.605
16103SOL    HW150206   1.967  14.531   2.688
16103SOL    HW250207   1.957  14.604   2.556
16104SOL     OW50208  10.971  14.028  10.461
16104SOL    HW150209  11.063  14.050  10.473
16104SOL    HW250210  10.923  14.096  10.508
16105SOL     OW50211  13.460  11.619  10.947
16105SOL    HW150212  13.446  11.656  10.860
16105SOL    HW250213  13.399  11.545  10.951
16106SOL     OW50214   1.400   3.779   2.704
16106SOL    HW150215   1.353   3.857   2.676
16106SOL    HW250216   1.469   3.767   2.638
16107SOL     OW50217   4.381  10.570   6.556
16107SOL    HW150218   4.301  10.609   6.590
16107SOL    HW250219   4.437  10.644   6.534
16108SOL     OW50220   4.252  10.032   6.154
16108SOL    HW150221   4.258  10.125   6.177
16108SOL    HW250222   4.212   9.991   6.230
16109SOL     OW50223   3.815  13.641   0.695
16109SOL    HW150224   3.766  13.720   0.718
16109SOL    HW250225   3.906  13.661   0.718
16110SOL     OW50226   5.850  10.808  13.090
16110SOL    HW150227   5.915  10.740  13.108
16110SOL    HW250228   5.895  10.870  13.033
16111SOL     OW50229  14.444   2.630   9.155
16111SOL    HW150230  14.524   2.649   9.205
16111SOL    HW250231  14.376   2.622   9.222
16112SOL     OW50232   4.527   5.796  10.089
16112SOL    HW150233   4.505   5.868  10.148
16112SOL    HW250234   4.503   5.717  10.138
16113SOL     OW50235   3.924   4.618   2.494
16113SOL    HW150236   3.961   4.530   2.483
16113SOL    HW250237   3.983   4.660   2.557
16114SOL     OW50238  10.197  12.170   7.826
16114SOL    HW150239  10.166  12.087   7.863
16114SOL    HW250240  10.284  12.150   7.793
16115SOL     OW50241   0.860   0.034  11.675
16115SOL    HW150242   0.840   0.109  11.619
16115SOL    HW250243   0.944   0.002  11.644
16116SOL     OW50244  11.675  12.262   7.394
16116SOL    HW150245  11.729  12.183   7.389
16116SOL    HW250246  11.674  12.284   7.486
16117SOL     OW50247   9.443   0.598   8.845
16117SOL    HW150248   9.534   0.626   8.854
16117SOL    HW250249   9.447   0.521   8.788
16118SOL     OW50250   1.933  12.704  13.759
16118SOL    HW150251   2.021  12.734  13.779
16118SOL    HW250252   1.945  12.637  13.692
16119SOL     OW50253   0.201   6.985   1.151
16119SOL    HW150254   0.152   6.965   1.072
16119SOL    HW250255   0.293   6.971   1.127
16120SOL     OW50256   1.641   2.416   2.256
16120SOL    HW150257   1.593   2.333   2.256
16120SOL    HW250258   1.574   2.483   2.240
16121SOL     OW50259  12.519   0.324  11.837
16121SOL    HW150260  12.500   0.402  11.890
16121SOL    HW250261  12.607   0.340  11.802
16122SOL     OW50262   2.179   2.630   4.562
16122SOL    HW150263   2.128   2.563   4.608
16122SOL    HW250264   2.198   2.695   4.629
16123SOL     OW50265   0.931   1.520  11.447
16123SOL    HW150266   0.905   1.553  11.533
16123SOL    HW250267   0.946   1.426  11.461
16124SOL     OW50268  14.382  12.661   0.547
16124SOL    HW150269  14.448  12.720   0.511
16124SOL    HW250270  14.355  12.702   0.629
16125SOL     OW50271   2.912   0.458  14.366
16125SOL    HW150272   2.935   0.457  14.459
16125SOL    HW250273   2.875   0.371  14.350
16126SOL     OW50274   7.940   1.236  12.881
16126SOL    HW150275   7.987   1.188  12.812
16126SOL    HW250276   7.895   1.167  12.931
16127SOL     OW50277   2.750   1.052   3.490
16127SOL    HW150278   2.701   0.972   3.469
16127SOL    HW250279   2.683   1.120   3.499
16128SOL     OW50280   8.148   6.256   4.176
16128SOL    HW150281   8.130   6.235   4.085
16128SOL    HW250282   8.078   6.317   4.201
16129SOL     OW50283   6.835   1.443  10.896
16129SOL    HW150284   6.908   1.495  10.930
16129SOL    HW250285   6.759   1.501  10.902
16130SOL     OW50286   8.217   8.750   6.191
16130SOL    HW150287   8.147   8.716   6.248
16130SOL    HW250288   8.297   8.712   6.227
16131SOL     OW50289   5.089   6.288  10.669
16131SOL    HW150290   5.112   6.252  10.583
16131SOL    HW250291   4.993   6.287  10.671
16132SOL     OW50292   3.811   9.361   0.301
16132SOL    HW150293   3.761   9.442   0.304
16132SOL    HW250294   3.745   9.293   0.282
16133SOL     OW50295   2.527   0.033  10.271
16133SOL    HW150296   2.517   0.127  10.260
16133SOL    HW250297   2.526  14.878  10.182
16134SOL     OW50298  12.881   8.272   3.412
16134SOL    HW150299  12.887   8.365   3.391
16134SOL    HW250300  12.972   8.244   3.422
16135SOL     OW50301   3.172  11.947   5.639
16135SOL    HW150302   3.247  11.901   5.601
16135SOL    HW250303   3.188  11.945   5.734
16136SOL     OW50304  10.867   4.688   3.562
16136SOL    HW150305  10.795   4.625   3.570
16136SOL    HW250306  10.901   4.698   3.651
16137SOL     OW50307   3.804   6.450   4.781
16137SOL    HW150308   3.723   6.406   4.756
16137SOL    HW250309   3.874   6.388   4.758
16138SOL     OW50310   6.787   8.792   5.097
16138SOL    HW150311   6.704   8.781   5.144
16138SOL    HW250312   6.762   8.795   5.005
16139SOL     OW50313   2.031   2.318  10.200
16139SOL    HW150314   2.092   2.269  10.254
16139SOL    HW250315   2.072   2.322  10.114
16140SOL     OW50316   2.713  10.563  14.148
16140SOL    HW150317   2.682  10.560  14.057
16140SOL    HW250318   2.798  10.607  14.142
16141SOL     OW50319  11.490   3.448   3.625
16141SOL    HW150320  11.577   3.486   3.609
16141SOL    HW250321  11.446   3.456   3.540
16142SOL     OW50322   3.216  10.414   8.782
16142SOL    HW150323   3.200  10.428   8.875
16142SOL    HW250324   3.255  10.496   8.752
16143SOL     OW50325  14.201   7.644   8.418
16143SOL    HW150326  14.283   7.693   8.425
16143SOL    HW250327  14.228   7.554   8.404
16144SOL     OW50328  13.917   2.571   2.535
16144SOL    HW150329  13.947   2.481   2.550
16144SOL    HW250330  13.975   2.605   2.467
16145SOL     OW50331   9.732   1.882   1.550
16145SOL    HW150332   9.642   1.864   1.520
16145SOL    HW250333   9.731   1.862   1.643
16146SOL     OW50334  14.521   4.386   1.184
16146SOL    HW150335  14.464   4.309   1.181
16146SOL    HW250336  14.468   4.456   1.144
16147SOL     OW50337   5.425  12.747  10.575
16147SOL    HW150338   5.469  12.734  10.659
16147SOL    HW250339   5.483  12.705  10.511
16148SOL     OW50340   2.474  11.420   6.459
16148SOL    HW150341   2.424  11.360   6.515
16148SOL    HW250342   2.546  11.450   6.515
16149SOL     OW50343   0.663  10.630   8.723
16149SOL    HW150344   0.699  10.695   8.783
16149SOL    HW250345   0.740  10.593   8.679
16150SOL     OW50346   5.939  12.390  10.928
16150SOL    HW150347   5.984  12.308  10.905
16150SOL    HW250348   6.004  12.440  10.978
16151SOL     OW50349   5.131   6.302   0.770
16151SOL    HW150350   5.190   6.232   0.745
16151SOL    HW250351   5.065   6.304   0.701
16152SOL     OW50352   7.640   3.270   3.948
16152SOL    HW150353   7.728   3.233   3.944
16152SOL    HW250354   7.636   3.329   3.873
16153SOL     OW50355   0.496   7.743   6.624
16153SOL    HW150356   0.471   7.721   6.714
16153SOL    HW250357   0.590   7.762   6.630
16154SOL     OW50358   1.176   7.913  11.215
16154SOL    HW150359   1.269   7.895  11.226
16154SOL    HW250360   1.150   7.953  11.299
16155SOL     OW50361   5.749  11.963   7.492
16155SOL    HW150362   5.720  12.033   7.550
16155SOL    HW250363   5.810  11.912   7.545
16156SOL     OW50364  14.735  13.234   5.459
16156SOL    HW150365  14.771  13.311   5.413
16156SOL    HW250366  14.800  13.165   5.444
16157SOL     OW50367  11.688   7.601   3.766
16157SOL    HW150368  11.756   7.592   3.833
16157SOL    HW250369  11.649   7.514   3.760
16158SOL     OW50370  11.003   7.494   3.639
16158SOL    HW150371  10.991   7.582   3.676
16158SOL    HW250372  10.978   7.434   3.709
16159SOL     OW50373   0.219  11.006  12.983
16159SOL    HW150374   0.166  10.938  13.024
16159SOL    HW250375   0.200  11.085  13.033
16160SOL     OW50376   4.124   0.819   2.881
16160SOL    HW150377   4.168   0.816   2.796
16160SOL    HW250378   4.165   0.893   2.926
16161SOL     OW50379  11.168  11.735  14.540
16161SOL    HW150380  11.233  11.803  14.525
16161SOL    HW250381  11.122  11.763  14.620
16162SOL     OW50382  14.312   4.201   9.204
16162SOL    HW150383  14.241   4.142   9.179
16162SOL    HW250384  14.269   4.272   9.253
16163SOL     OW50385  10.092   9.539   8.117
16163SOL    HW150386  10.038   9.577   8.047
16163SOL    HW250387  10.076   9.445   8.111
16164SOL     OW50388   3.621   9.883  10.488
16164SOL    HW150389   3.615   9.919  10.399
16164SOL    HW250390   3.714   9.887  10.509
16165SOL     OW50391   9.501   7.929  12.617
16165SOL    HW150392   9.524   8.004  12.562
16165SOL    HW250393   9.505   7.854  12.558
16166SOL     OW50394  10.776  11.746   7.776
16166SOL    HW150395  10.820  11.819   7.732
16166SOL    HW250396  10.755  11.684   7.705
16167SOL     OW50397  13.311   6.724   9.716
16167SOL    HW150398  13.395   6.746   9.677
16167SOL    HW250399  13.275   6.656   9.659
16168SOL     OW50400   8.047  13.677  14.444
16168SOL    HW150401   7.959  13.705  14.422
16168SOL    HW250402   8.056  13.591  14.402
16169SOL     OW50403   4.382   4.053   9.422
16169SOL    HW150404   4.380   4.034   9.516
16169SOL    HW250405   4.305   4.008   9.386
16170SOL     OW50406  14.425   5.532   6.635
16170SOL    HW150407  14.380   5.610   6.668
16170SOL    HW250408  14.412   5.466   6.703
16171SOL     OW50409  13.956  12.464   4.627
16171SOL    HW150410  13.877  12.481   4.678
16171SOL    HW250411  13.945  12.518   4.548
16172SOL     OW50412   3.285   6.629  10.415
16172SOL    HW150413   3.209   6.577  10.439
16172SOL    HW250414   3.262   6.719  10.438
16173SOL     OW50415  10.666   6.549  11.914
16173SOL    HW150416  10.642   6.467  11.872
16173SOL    HW250417  10.738   6.584  11.860
16174SOL     OW50418   4.462   2.237   4.360
16174SOL    HW150419   4.467   2.329   4.333
16174SOL    HW250420   4.373   2.210   4.340
16175SOL     OW50421  12.308   5.270   1.099
16175SOL    HW150422  12.253   5.297   1.172
16175SOL    HW250423  12.337   5.182   1.122
16176SOL     OW50424  11.179   0.280  11.268
16176SOL    HW150425  11.180   0.375  11.285
16176SOL    HW250426  11.230   0.270  11.188
16177SOL     OW50427   2.296   4.776   2.852
16177SOL    HW150428   2.220   4.834   2.862
16177SOL    HW250429   2.307   4.736   2.938
16178SOL     OW50430   7.483   5.490   1.325
16178SOL    HW150431   7.539   5.412   1.322
16178SOL    HW250432   7.475   5.518   1.234
16179SOL     OW50433   9.280   8.150   4.195
16179SOL    HW150434   9.203   8.100   4.167
16179SOL    HW250435   9.244   8.233   4.227
16180SOL     OW50436   2.401   2.946   1.720
16180SOL    HW150437   2.365   2.909   1.639
16180SOL    HW250438   2.342   2.916   1.789
16181SOL     OW50439  10.025   7.816  14.471
16181SOL    HW150440  10.027   7.911  14.463
16181SOL    HW250441  10.049   7.799  14.562
16182SOL     OW50442   5.289   7.775   4.970
16182SOL    HW150443   5.338   7.775   4.888
16182SOL    HW250444   5.261   7.865   4.982
16183SOL     OW50445  11.246   3.306   1.864
16183SOL    HW150446  11.235   3.375   1.799
16183SOL    HW250447  11.186   3.236   1.835
16184SOL     OW50448   7.440   6.101   2.370
16184SOL    HW150449   7.422   6.173   2.431
16184SOL    HW250450   7.421   6.022   2.421
16185SOL     OW50451  10.807   9.527   8.368
16185SOL    HW150452  10.755   9.469   8.312
16185SOL    HW250453  10.744   9.562   8.431
16186SOL     OW50454   0.574   7.636   2.609
16186SOL    HW150455   0.632   7.567   2.576
16186SOL    HW250456   0.592   7.639   2.703
16187SOL     OW50457   3.323   7.677   9.435
16187SOL    HW150458   3.354   7.586   9.428
16187SOL    HW250459   3.230   7.668   9.457
16188SOL     OW50460  10.187   5.432   9.474
16188SOL    HW150461  10.174   5.526   9.484
16188SOL    HW250462  10.260   5.412   9.534
16189SOL     OW50463   9.316   3.762   5.691
16189SOL    HW150464   9.307   3.801   5.778
16189SOL    HW250465   9.338   3.670   5.708
16190SOL     OW50466  12.752  13.920   4.828
16190SOL    HW150467  12.781  13.948   4.741
16190SOL    HW250468  12.685  13.983   4.852
16191SOL     OW50469   5.017  10.358   4.007
16191SOL    HW150470   5.093  10.308   4.036
16191SOL    HW250471   5.002  10.423   4.076
16192SOL     OW50472   5.767   8.338  13.234
16192SOL    HW150473   5.859   8.357  13.253
16192SOL    HW250474   5.727   8.423  13.219
16193SOL     OW50475   4.371   0.507  11.390
16193SOL    HW150476   4.383   0.556  11.471
16193SOL    HW250477   4.460   0.485  11.362
16194SOL     OW50478   9.226   6.970  10.929
16194SOL    HW150479   9.288   7.036  10.959
16194SOL    HW250480   9.198   7.000  10.843
16195SOL     OW50481   7.883   2.792   0.677
16195SOL    HW150482   7.942   2.825   0.610
16195SOL    HW250483   7.875   2.698   0.658
16196SOL     OW50484  12.880   3.294   8.557
16196SOL    HW150485  12.952   3.288   8.619
16196SOL    HW250486  12.921   3.289   8.471
16197SOL     OW50487   4.908   2.415   0.226
16197SOL    HW150488   4.961   2.494   0.230
16197SOL    HW250489   4.911   2.378   0.314
16198SOL     OW50490  12.159   8.594   1.303
16198SOL    HW150491  12.125   8.626   1.387
16198SOL    HW250492  12.183   8.673   1.255
16199SOL     OW50493  10.139   5.339   6.786
16199SOL    HW150494  10.156   5.433   6.797
16199SOL    HW250495  10.152   5.324   6.692
16200SOL     OW50496   7.432   8.775   1.117
16200SOL    HW150497   7.522   8.750   1.135
16200SOL    HW250498   7.381   8.734   1.188
16201SOL     OW50499  10.727   6.560   0.030
16201SOL    HW150500  10.681   6.483  14.876
16201SOL    HW250501  10.746   6.538   0.121
16202SOL     OW50502  11.144  10.187   7.810
16202SOL    HW150503  11.152  10.122   7.881
16202SOL    HW250504  11.177  10.141   7.733
16203SOL     OW50505  12.020   3.257  13.375
16203SOL    HW150506  12.115   3.263  13.386
16203SOL    HW250507  12.005   3.168  13.344
16204SOL     OW50508   3.371   2.975  10.546
16204SOL    HW150509   3.353   2.942  10.458
16204SOL    HW250510   3.302   3.040  10.562
16205SOL     OW50511   9.572   8.873  11.327
16205SOL    HW150512   9.582   8.887  11.422
16205SOL    HW250513   9.578   8.779  11.316
16206SOL     OW50514   6.089   3.987   2.954
16206SOL    HW150515   6.120   3.896   2.950
16206SOL    HW250516   6.024   3.987   3.024
16207SOL     OW50517   3.281  14.744  13.973
16207SOL    HW150518   3.202  14.786  13.941
16207SOL    HW250519   3.353  14.790  13.929
16208SOL     OW50520   2.397   4.489  10.093
16208SOL    HW150521   2.322   4.531  10.136
16208SOL    HW250522   2.389   4.396  10.114
16209SOL     OW50523  10.423   2.865  10.047
16209SOL    HW150524  10.485   2.927  10.010
16209SOL    HW250525  10.463   2.779  10.032
16210SOL     OW50526   8.564  12.594   5.694
16210SOL    HW150527   8.601  12.505   5.691
16210SOL    HW250528   8.488  12.590   5.636
16211SOL     OW50529   4.697  12.642  10.619
16211SOL    HW150530   4.730  12.673  10.535
16211SOL    HW250531   4.608  12.677  10.625
16212SOL     OW50532  10.945   4.437   0.308
16212SOL    HW150533  10.998   4.358   0.297
16212SOL    HW250534  10.984   4.501   0.249
16213SOL     OW50535   7.067  12.144   9.600
16213SOL    HW150536   7.015  12.096   9.664
16213SOL    HW250537   7.101  12.077   9.541
16214SOL     OW50538   6.043  11.216   7.378
16214SOL    HW150539   5.993  11.135   7.384
16214SOL    HW250540   5.980  11.281   7.347
16215SOL     OW50541   8.100  10.531  10.682
16215SOL    HW150542   8.194  10.548  10.680
16215SOL    HW250543   8.091  10.442  10.650
16216SOL     OW50544  14.545  11.967   3.229
16216SOL    HW150545  14.606  11.970   3.155
16216SOL    HW250546  14.575  12.036   3.288
16217SOL     OW50547   2.875   9.417   2.126
16217SOL    HW150548   2.839   9.484   2.183
16217SOL    HW250549   2.969   9.435   2.125
16218SOL     OW50550  11.260   7.098  11.005
16218SOL    HW150551  11.308   7.056  11.076
16218SOL    HW250552  11.168   7.082  11.025
16219SOL     OW50553  14.050   7.570  14.712
16219SOL    HW150554  14.103   7.545  14.636
16219SOL    HW250555  14.077   7.510  14.781
16220SOL     OW50556   0.783   5.173   0.131
16220SOL    HW150557   0.700   5.126   0.123
16220SOL    HW250558   0.825   5.135   0.208
16221SOL     OW50559   1.622   0.599   3.489
16221SOL    HW150560   1.591   0.590   3.399
16221SOL    HW250561   1.665   0.515   3.507
16222SOL     OW50562  14.046  14.112   1.793
16222SOL    HW150563  14.053  14.181   1.859
16222SOL    HW250564  13.969  14.137   1.740
16223SOL     OW50565  13.303   9.375  13.150
16223SOL    HW150566  13.280   9.364  13.058
16223SOL    HW250567  13.382   9.429  13.149
16224SOL     OW50568  14.127   4.013   7.237
16224SOL    HW150569  14.148   3.934   7.286
16224SOL    HW250570  14.200   4.072   7.255
16225SOL     OW50571   5.426  14.056   2.760
16225SOL    HW150572   5.498  14.084   2.817
16225SOL    HW250573   5.348  14.066   2.814
16226SOL     OW50574  13.412   9.536   2.799
16226SOL    HW150575  13.356   9.585   2.739
16226SOL    HW250576  13.500   9.570   2.783
16227SOL     OW50577   0.419   6.999  10.893
16227SOL    HW150578   0.509   7.031  10.895
16227SOL    HW250579   0.396   6.998  10.800
16228SOL     OW50580   4.451   0.450   0.824
16228SOL    HW150581   4.440   0.357   0.801
16228SOL    HW250582   4.400   0.497   0.758
16229SOL     OW50583  14.013  13.280   7.470
16229SOL    HW150584  14.013  13.323   7.384
16229SOL    HW250585  13.953  13.206   7.460
16230SOL     OW50586  14.791  14.854   7.416
16230SOL    HW150587  14.849   0.046   7.394
16230SOL    HW250588  14.762  14.873   7.505
16231SOL     OW50589  13.224   6.932   5.945
16231SOL    HW150590  13.232   7.009   5.889
16231SOL    HW250591  13.239   6.966   6.034
16232SOL     OW50592   2.173   2.298   4.891
16232SOL    HW150593   2.262   2.298   4.927
16232SOL    HW250594   2.183   2.335   4.803
16233SOL     OW50595   5.108   1.140  10.812
16233SOL    HW150596   5.099   1.221  10.762
16233SOL    HW250597   5.123   1.169  10.902
16234SOL     OW50598   3.005   1.210  14.083
16234SOL    HW150599   3.022   1.255  14.165
16234SOL    HW250600   3.012   1.117  14.104
16235SOL     OW50601  10.284   2.867   0.718
16235SOL    HW150602  10.374   2.882   0.689
16235SOL    HW250603  10.237   2.946   0.690
16236SOL     OW50604  14.188   9.609   2.422
16236SOL    HW150605  14.156   9.699   2.430
16236SOL    HW250606  14.108   9.556   2.418
16237SOL     OW50607   7.850  12.364   6.334
16237SOL    HW150608   7.765  12.375   6.376
16237SOL    HW250609   7.858  12.270   6.318
16238SOL     OW50610  13.373   3.109   9.486
16238SOL    HW150611  13.293   3.057   9.491
16238SOL    HW250612  13.442   3.048   9.513
16239SOL     OW50613   4.446   7.842  12.729
16239SOL    HW150614   4.538   7.859  12.711
16239SOL    HW250615   4.431   7.879  12.816
16240SOL     OW50616   6.974  13.966   6.032
16240SOL    HW150617   7.003  14.021   5.959
16240SOL    HW250618   7.050  13.959   6.089
16241SOL     OW50619   3.604   1.735   6.191
16241SOL    HW150620   3.695   1.762   6.190
16241SOL    HW250621   3.607   1.639   6.187
16242SOL     OW50622   1.548   3.236  11.225
16242SOL    HW150623   1.560   3.296  11.151
16242SOL    HW250624   1.601   3.159  11.203
16243SOL     OW50625   7.060   6.088   7.580
16243SOL    HW150626   7.148   6.126   7.578
16243SOL    HW250627   7.021   6.121   7.660
16244SOL     OW50628  11.703   4.235   5.953
16244SOL    HW150629  11.758   4.228   6.031
16244SOL    HW250630  11.708   4.327   5.928
16245SOL     OW50631   5.579   6.938  12.518
16245SOL    HW150632   5.594   6.881  12.593
16245SOL    HW250633   5.644   7.009  12.528
16246SOL     OW50634   5.161   1.240   9.281
16246SOL    HW150635   5.081   1.191   9.261
16246SOL    HW250636   5.216   1.231   9.203
16247SOL     OW50637   1.186   2.288   3.199
16247SOL    HW150638   1.241   2.344   3.145
16247SOL    HW250639   1.215   2.199   3.178
16248SOL     OW50640   7.141   0.081   7.535
16248SOL    HW150641   7.144   0.144   7.462
16248SOL    HW250642   7.230   0.078   7.568
16249SOL     OW50643   0.946  10.372   7.901
16249SOL    HW150644   0.934  10.307   7.970
16249SOL    HW250645   0.858  10.388   7.867
16250SOL     OW50646  13.115   0.800  13.930
16250SOL    HW150647  13.060   0.876  13.946
16250SOL    HW250648  13.194   0.815  13.981
16251SOL     OW50649  11.016  12.104   9.437
16251SOL    HW150650  10.969  12.080   9.357
16251SOL    HW250651  11.103  12.067   9.425
16252SOL     OW50652  14.424   1.979   3.381
16252SOL    HW150653  14.504   1.980   3.329
16252SOL    HW250654  14.355   2.002   3.319
16253SOL     OW50655   1.647   1.488  13.837
16253SOL    HW150656   1.583   1.420  13.856
16253SOL    HW250657   1.643   1.548  13.912
16254SOL     OW50658   7.329   8.142  13.816
16254SOL    HW150659   7.277   8.086  13.873
16254SOL    HW250660   7.351   8.086  13.741
16255SOL     OW50661   6.444   3.744   0.685
16255SOL    HW150662   6.358   3.705   0.672
16255SOL    HW250663   6.505   3.670   0.680
16256SOL     OW50664   1.474   3.831  14.136
16256SOL    HW150665   1.521   3.748  14.147
16256SOL    HW250666   1.520   3.874  14.064
16257SOL     OW50667   8.988   2.708   0.744
16257SOL    HW150668   8.921   2.751   0.797
16257SOL    HW250669   9.058   2.687   0.807
16258SOL     OW50670   8.158   8.372  13.287
16258SOL    HW150671   8.073   8.329  13.283
16258SOL    HW250672   8.210   8.329  13.219
16259SOL     OW50673  12.757   7.532   8.024
16259SOL    HW150674  12.722   7.619   8.041
16259SOL    HW250675  12.679   7.476   8.017
16260SOL     OW50676   7.761  14.774   2.950
16260SOL    HW150677   7.792  14.760   2.861
16260SOL    HW250678   7.709  14.854   2.946
16261SOL     OW50679   2.722  11.220   1.272
16261SOL    HW150680   2.744  11.139   1.319
16261SOL    HW250681   2.805  11.268   1.267
16262SOL     OW50682   1.898   2.837  12.779
16262SOL    HW150683   1.940   2.906  12.831
16262SOL    HW250684   1.942   2.757  12.804
16263SOL     OW50685   2.829  12.980   4.135
16263SOL    HW150686   2.770  13.023   4.197
16263SOL    HW250687   2.864  12.905   4.184
16264SOL     OW50688  13.667  10.742   0.137
16264SOL    HW150689  13.577  10.746   0.171
16264SOL    HW250690  13.717  10.798   0.196
16265SOL     OW50691  12.632   0.778   7.091
16265SOL    HW150692  12.672   0.773   7.004
16265SOL    HW250693  12.706   0.768   7.152
16266SOL     OW50694   0.506   2.483   2.045
16266SOL    HW150695   0.577   2.427   2.077
16266SOL    HW250696   0.427   2.449   2.086
16267SOL     OW50697   9.140   9.026  14.662
16267SOL    HW150698   9.124   9.005  14.570
16267SOL    HW250699   9.084   8.965  14.710
16268SOL     OW50700   4.046   9.840   9.992
16268SOL    HW150701   4.074   9.904  10.057
16268SOL    HW250702   4.032   9.892   9.912
16269SOL     OW50703  13.648  14.356   8.650
16269SOL    HW150704  13.679  14.305   8.725
16269SOL    HW250705  13.710  14.428   8.644
16270SOL     OW50706   0.796  11.430   9.217
16270SOL    HW150707   0.736  11.406   9.288
16270SOL    HW250708   0.875  11.461   9.261
16271SOL     OW50709  10.090   2.823   7.269
16271SOL    HW150710  10.173   2.783   7.242
16271SOL    HW250711  10.113   2.878   7.343
16272SOL     OW50712   5.516   8.155  11.890
16272SOL    HW150713   5.606   8.149  11.859
16272SOL    HW250714   5.472   8.209  11.824
16273SOL     OW50715  14.596   8.070   4.042
16273SOL    HW150716  14.572   7.993   3.990
16273SOL    HW250717  14.619   8.035   4.128
16274SOL     OW50718   3.694   3.042   3.675
16274SOL    HW150719   3.788   3.044   3.660
16274SOL    HW250720   3.656   3.020   3.590
16275SOL     OW50721   2.058   2.990  12.929
16275SOL    HW150722   2.014   2.996  13.014
16275SOL    HW250723   2.091   3.078  12.912
16276SOL     OW50724   0.991   3.603  12.397
16276SOL    HW150725   0.921   3.564  12.449
16276SOL    HW250726   1.029   3.670  12.454
16277SOL     OW50727  12.433   6.562   4.270
16277SOL    HW150728  12.492   6.634   4.295
16277SOL    HW250729  12.492   6.491   4.246
16278SOL     OW50730   5.708  14.795   4.385
16278SOL    HW150731   5.688   0.001   4.349
16278SOL    HW250732   5.794  14.774   4.347
16279SOL     OW50733   8.479  13.083  11.965
16279SOL    HW150734   8.557  13.030  11.978
16279SOL    HW250735   8.512  13.168  11.935
16280SOL     OW50736   1.202   4.418   4.586
16280SOL    HW150737   1.201   4.501   4.540
16280SOL    HW250738   1.293   4.389   4.582
16281SOL     OW50739   4.556   8.315   2.271
16281SOL    HW150740   4.581   8.371   2.345
16281SOL    HW250741   4.461   8.311   2.274
16282SOL     OW50742   6.884   0.536  10.257
16282SOL    HW150743   6.963   0.514  10.208
16282SOL    HW250744   6.812   0.519  10.196
16283SOL     OW50745  12.788  10.494   8.063
16283SOL    HW150746  12.832  10.555   8.123
16283SOL    HW250747  12.710  10.542   8.033
16284SOL     OW50748   5.537   4.688   9.404
16284SOL    HW150749   5.475   4.722   9.340
16284SOL    HW250750   5.517   4.595   9.412
16285SOL     OW50751  11.356   8.483  11.251
16285SOL    HW150752  11.339   8.506  11.343
16285SOL    HW250753  11.427   8.541  11.225
16286SOL     OW50754   6.893   2.269  14.574
16286SOL    HW150755   6.955   2.226  14.633
16286SOL    HW250756   6.907   2.363  14.588
16287SOL     OW50757  12.452   3.794   7.187
16287SOL    HW150758  12.428   3.722   7.246
16287SOL    HW250759  12.394   3.784   7.112
16288SOL     OW50760  14.560   6.692   3.050
16288SOL    HW150761  14.577   6.731   3.136
16288SOL    HW250762  14.470   6.660   3.055
16289SOL     OW50763  11.424   1.876   3.641
16289SOL    HW150764  11.503   1.888   3.587
16289SOL    HW250765  11.409   1.962   3.680
16290SOL     OW50766   2.038   1.927   6.603
16290SOL    HW150767   2.114   1.964   6.559
16290SOL    HW250768   2.056   1.833   6.607
16291SOL     OW50769   8.256  14.176  12.357
16291SOL    HW150770   8.341  14.133  12.348
16291SOL    HW250771   8.203  14.116  12.408
16292SOL     OW50772   4.585   7.234  13.808
16292SOL    HW150773   4.541   7.150  13.823
16292SOL    HW250774   4.530   7.278  13.743
16293SOL     OW50775   7.401   1.286  11.442
16293SOL    HW150776   7.340   1.217  11.416
16293SOL    HW250777   7.351   1.367  11.431
16294SOL     OW50778  12.396   5.482   7.544
16294SOL    HW150779  12.428   5.415   7.606
16294SOL    HW250780  12.431   5.564   7.578
16295SOL     OW50781  12.623   7.754   3.304
16295SOL    HW150782  12.534   7.748   3.269
16295SOL    HW250783  12.649   7.844   3.288
16296SOL     OW50784   8.146   8.344   9.056
16296SOL    HW150785   8.233   8.359   9.017
16296SOL    HW250786   8.152   8.383   9.143
16297SOL     OW50787   3.794   6.985   0.361
16297SOL    HW150788   3.768   7.067   0.404
16297SOL    HW250789   3.807   6.923   0.433
16298SOL     OW50790   6.928   0.047   3.002
16298SOL    HW150791   7.015   0.081   3.024
16298SOL    HW250792   6.933  14.834   3.023
16299SOL     OW50793   9.230  10.485  13.381
16299SOL    HW150794   9.320  10.515  13.396
16299SOL    HW250795   9.238  10.390  13.370
16300SOL     OW50796   0.267   7.129   8.145
16300SOL    HW150797   0.340   7.089   8.099
16300SOL    HW250798   0.190   7.083   8.112
16301SOL     OW50799   2.343   7.412   2.010
16301SOL    HW150800   2.339   7.319   2.030
16301SOL    HW250801   2.336   7.455   2.095
16302SOL     OW50802   5.466   9.118  11.614
16302SOL    HW150803   5.435   9.103  11.524
16302SOL    HW250804   5.538   9.055  11.624
16303SOL     OW50805  14.755   5.231  10.571
16303SOL    HW150806  14.695   5.159  10.584
16303SOL    HW250807  14.760   5.274  10.657
16304SOL     OW50808   4.143   1.877   0.817
16304SOL    HW150809   4.136   1.891   0.723
16304SOL    HW250810   4.179   1.788   0.825
16305SOL     OW50811   1.906   1.513   4.940
16305SOL    HW150812   1.982   1.550   4.985
16305SOL    HW250813   1.931   1.512   4.848
16306SOL     OW50814   7.977   5.209  13.427
16306SOL    HW150815   7.995   5.291  13.381
16306SOL    HW250816   8.015   5.221  13.513
16307SOL     OW50817   8.790   7.986  10.379
16307SOL    HW150818   8.883   7.962  10.381
16307SOL    HW250819   8.746   7.905  10.353
16308SOL     OW50820   7.395   1.010  10.282
16308SOL    HW150821   7.479   1.024  10.239
16308SOL    HW250822   7.335   0.989  10.210
16309SOL     OW50823   8.282   5.671  11.627
16309SOL    HW150824   8.283   5.589  11.577
16309SOL    HW250825   8.268   5.739  11.561
16310SOL     OW50826   1.590   4.097   8.147
16310SOL    HW150827   1.526   4.059   8.087
16310SOL    HW250828   1.635   4.164   8.096
16311SOL     OW50829  14.111   9.486   6.256
16311SOL    HW150830  14.036   9.543   6.268
16311SOL    HW250831  14.156   9.486   6.340
16312SOL     OW50832   7.406  12.015   8.226
16312SOL    HW150833   7.427  12.012   8.319
16312SOL    HW250834   7.326  11.963   8.217
16313SOL     OW50835   4.227  14.296   8.875
16313SOL    HW150836   4.249  14.205   8.898
16313SOL    HW250837   4.142  14.311   8.915
16314SOL     OW50838   6.576   5.462   9.801
16314SOL    HW150839   6.574   5.498   9.712
16314SOL    HW250840   6.510   5.393   9.801
16315SOL     OW50841  10.993   9.361  12.137
16315SOL    HW150842  10.989   9.266  12.149
16315SOL    HW250843  10.904   9.386  12.114
16316SOL     OW50844  14.471   4.451  13.985
16316SOL    HW150845  14.460   4.468  13.892
16316SOL    HW250846  14.561   4.478  14.004
16317SOL     OW50847  10.359   8.619   2.077
16317SOL    HW150848  10.293   8.628   2.146
16317SOL    HW250849  10.426   8.683   2.100
16318SOL     OW50850   3.100  12.920  10.426
16318SOL    HW150851   3.107  12.907  10.521
16318SOL    HW250852   3.185  12.957  10.400
16319SOL     OW50853   7.506  14.637   0.343
16319SOL    HW150854   7.550  14.659   0.425
16319SOL    HW250855   7.512  14.542   0.336
16320SOL     OW50856   0.507   0.289   9.815
16320SOL    HW150857   0.583   0.323   9.767
16320SOL    HW250858   0.536   0.285   9.906
16321SOL     OW50859   2.435   5.381  13.478
16321SOL    HW150860   2.404   5.401  13.389
16321SOL    HW250861   2.496   5.452  13.499
16322SOL     OW50862   3.757  14.074   4.078
16322SOL    HW150863   3.696  14.083   4.005
16322SOL    HW250864   3.816  14.148   4.069
16323SOL     OW50865   1.448   6.050  10.617
16323SOL    HW150866   1.523   6.003  10.651
16323SOL    HW250867   1.435   6.123  10.678
16324SOL     OW50868   8.179  13.976   6.644
16324SOL    HW150869   8.238  14.038   6.600
16324SOL    HW250870   8.198  13.892   6.604
16325SOL     OW50871   5.845  13.108   8.954
16325SOL    HW150872   5.852  13.021   8.995
16325SOL    HW250873   5.758  13.140   8.981
16326SOL     OW50874  13.860   4.516  14.421
16326SOL    HW150875  13.894   4.593  14.466
16326SOL    HW250876  13.780   4.547  14.378
16327SOL     OW50877  10.929  13.866   7.755
16327SOL    HW150878  10.868  13.879   7.828
16327SOL    HW250879  10.947  13.772   7.755
16328SOL     OW50880  11.876  11.818  10.227
16328SOL    HW150881  11.942  11.858  10.283
16328SOL    HW250882  11.913  11.823  10.139
16329SOL     OW50883   2.123   8.835   0.733
16329SOL    HW150884   2.169   8.846   0.815
16329SOL    HW250885   2.064   8.761   0.748
16330SOL     OW50886   0.666   8.918  13.453
16330SOL    HW150887   0.628   8.847  13.504
16330SOL    HW250888   0.638   8.998  13.498
16331SOL     OW50889   2.621  13.742   4.837
16331SOL    HW150890   2.709  13.776   4.825
16331SOL    HW250891   2.577  13.756   4.753
16332SOL     OW50892   1.524  14.648   2.252
16332SOL    HW150893   1.581  14.648   2.175
16332SOL    HW250894   1.577  14.606   2.321
16333SOL     OW50895   7.266   1.135   5.832
16333SOL    HW150896   7.317   1.068   5.786
16333SOL    HW250897   7.284   1.120   5.925
16334SOL     OW50898   0.509  13.907   1.814
16334SOL    HW150899   0.467  13.867   1.738
16334SOL    HW250900   0.549  13.833   1.860
16335SOL     OW50901   3.971  10.700   6.243
16335SOL    HW150902   4.047  10.642   6.247
16335SOL    HW250903   3.963  10.736   6.332
16336SOL     OW50904   5.480   3.908   9.448
16336SOL    HW150905   5.487   4.002   9.429
16336SOL    HW250906   5.476   3.903   9.543
16337SOL     OW50907   0.871   4.590   5.415
16337SOL    HW150908   0.896   4.498   5.422
16337SOL    HW250909   0.953   4.634   5.391
16338SOL     OW50910   5.051   0.938  12.335
16338SOL    HW150911   5.033   0.894  12.419
16338SOL    HW250912   5.066   1.029  12.359
16339SOL     OW50913   7.177   9.360   7.767
16339SOL    HW150914   7.232   9.416   7.822
16339SOL    HW250915   7.237   9.295   7.732
16340SOL     OW50916   9.293   3.092   4.486
16340SOL    HW150917   9.273   3.010   4.532
16340SOL    HW250918   9.387   3.103   4.495
16341SOL     OW50919   5.960   2.007   7.625
16341SOL    HW150920   5.888   1.991   7.685
16341SOL    HW250921   5.924   1.990   7.538
16342SOL     OW50922   2.638  11.922   5.277
16342SOL    HW150923   2.670  11.834   5.256
16342SOL    HW250924   2.716  11.977   5.268
16343SOL     OW50925   8.901   8.698   8.809
16343SOL    HW150926   8.951   8.707   8.728
16343SOL    HW250927   8.966   8.682   8.877
16344SOL     OW50928   3.897   9.062   8.960
16344SOL    HW150929   3.824   9.052   8.900
16344SOL    HW250930   3.884   8.993   9.025
16345SOL     OW50931   1.815  11.583   8.375
16345SOL    HW150932   1.801  11.672   8.406
16345SOL    HW250933   1.764  11.528   8.434
16346SOL     OW50934  14.542   9.396   1.134
16346SOL    HW150935  14.468   9.424   1.079
16346SOL    HW250936  14.597   9.474   1.141
16347SOL     OW50937  12.198   8.940  10.657
16347SOL    HW150938  12.208   8.886  10.578
16347SOL    HW250939  12.123   8.901  10.703
16348SOL     OW50940   9.317   1.317   3.339
16348SOL    HW150941   9.323   1.361   3.254
16348SOL    HW250942   9.230   1.338   3.371
16349SOL     OW50943   1.161  10.340  12.187
16349SOL    HW150944   1.145  10.398  12.113
16349SOL    HW250945   1.190  10.258  12.148
16350SOL     OW50946  14.675   6.846   5.155
16350SOL    HW150947  14.600   6.904   5.145
16350SOL    HW250948  14.644   6.762   5.121
16351SOL     OW50949  13.710  12.935  11.238
16351SOL    HW150950  13.709  12.922  11.143
16351SOL    HW250951  13.764  12.864  11.272
16352SOL     OW50952  13.663   0.150   2.282
16352SOL    HW150953  13.654   0.152   2.378
16352SOL    HW250954  13.585   0.103   2.252
16353SOL     OW50955   7.693  10.414   8.978
16353SOL    HW150956   7.762  10.420   8.912
16353SOL    HW250957   7.714  10.483   9.041
16354SOL     OW50958   7.367   8.714  13.188
16354SOL    HW150959   7.304   8.759  13.244
16354SOL    HW250960   7.397   8.639  13.239
16355SOL     OW50961  13.522  10.388  14.473
16355SOL    HW150962  13.565  10.415  14.392
16355SOL    HW250963  13.487  10.301  14.454
16356SOL     OW50964   1.323  13.903   5.600
16356SOL    HW150965   1.247  13.933   5.649
16356SOL    HW250966   1.398  13.935   5.650
16357SOL     OW50967  12.420  11.018   7.587
16357SOL    HW150968  12.344  11.070   7.561
16357SOL    HW250969  12.493  11.056   7.538
16358SOL     OW50970   4.756   8.467   3.606
16358SOL    HW150971   4.827   8.457   3.543
16358SOL    HW250972   4.739   8.562   3.608
16359SOL     OW50973   0.427  11.719  14.097
16359SOL    HW150974   0.484  11.790  14.126
16359SOL    HW250975   0.457  11.699  14.008
16360SOL     OW50976   6.942   9.587   1.010
16360SOL    HW150977   6.854   9.606   1.041
16360SOL    HW250978   6.933   9.506   0.960
16361SOL     OW50979  14.734  14.587  13.806
16361SOL    HW150980  14.769  14.568  13.893
16361SOL    HW250981  14.805  14.633  13.761
16362SOL     OW50982   1.532  11.764  13.085
16362SOL    HW150983   1.561  11.855  13.077
16362SOL    HW250984   1.564  11.736  13.170
16363SOL     OW50985   5.146  13.047  11.554
16363SOL    HW150986   5.180  13.125  11.511
16363SOL    HW250987   5.087  13.008  11.490
16364SOL     OW50988   9.328   3.734   6.355
16364SOL    HW150989   9.235   3.714   6.353
16364SOL    HW250990   9.365   3.686   6.281
16365SOL     OW50991   7.713  10.549  13.961
16365SOL    HW150992   7.697  10.494  13.884
16365SOL    HW250993   7.676  10.634  13.937
16366SOL     OW50994   5.392   5.831  11.833
16366SOL    HW150995   5.463   5.861  11.776
16366SOL    HW250996   5.404   5.736  11.839
16367SOL     OW50997   4.381  14.229  14.297
16367SOL    HW150998   4.367  14.293  14.227
16367SOL    HW250999   4.360  14.145  14.256
16368SOL     OW51000   9.395   0.975   0.782
16368SOL    HW151001   9.341   0.944   0.854
16368SOL    HW251002   9.377   0.915   0.709
16369SOL     OW51003   1.617   0.610  10.918
16369SOL    HW151004   1.666   0.594  10.838
16369SOL    HW251005   1.618   0.706  10.928
16370SOL     OW51006   1.870   7.760  14.265
16370SOL    HW151007   1.929   7.684  14.267
16370SOL    HW251008   1.914   7.824  14.209
16371SOL     OW51009   2.904   8.752  11.923
16371SOL    HW151010   2.904   8.772  12.017
16371SOL    HW251011   2.864   8.829  11.883
16372SOL     OW51012   4.063   1.785  12.376
16372SOL    HW151013   4.073   1.758  12.285
16372SOL    HW251014   4.152   1.797  12.407
16373SOL     OW51015   4.829   4.893  14.299
16373SOL    HW151016   4.855   4.913  14.388
16373SOL    HW251017   4.798   4.802  14.302
16374SOL     OW51018  10.006   2.749   3.768
16374SOL    HW151019  10.036   2.675   3.821
16374SOL    HW251020   9.932   2.713   3.718
16375SOL     OW51021   1.185   7.264   5.189
16375SOL    HW151022   1.139   7.333   5.141
16375SOL    HW251023   1.149   7.269   5.278
16376SOL     OW51024   3.335  11.006   9.310
16376SOL    HW151025   3.269  10.981   9.374
16376SOL    HW251026   3.374  10.923   9.282
16377SOL     OW51027   7.487   3.306  13.763
16377SOL    HW151028   7.410   3.360  13.747
16377SOL    HW251029   7.560   3.368  13.759
16378SOL     OW51030  14.855   4.124   3.007
16378SOL    HW151031  14.778   4.168   2.970
16378SOL    HW251032   0.037   4.120   2.934
16379SOL     OW51033   1.594   6.007   3.750
16379SOL    HW151034   1.608   5.999   3.844
16379SOL    HW251035   1.590   6.101   3.734
16380SOL     OW51036   5.051   5.100  13.072
16380SOL    HW151037   5.023   5.108  12.981
16380SOL    HW251038   4.991   5.157  13.120
16381SOL     OW51039  10.733  13.557   7.621
16381SOL    HW151040  10.743  13.647   7.591
16381SOL    HW251041  10.754  13.504   7.543
16382SOL     OW51042   3.433  13.375   6.197
16382SOL    HW151043   3.518  13.356   6.236
16382SOL    HW251044   3.379  13.298   6.218
16383SOL     OW51045  14.437   2.046  13.009
16383SOL    HW151046  14.427   1.995  13.090
16383SOL    HW251047  14.441   2.137  13.039
16384SOL     OW51048   3.188   4.886   4.150
16384SOL    HW151049   3.183   4.975   4.186
16384SOL    HW251050   3.271   4.851   4.182
16385SOL     OW51051   0.871   2.068   3.980
16385SOL    HW151052   0.840   2.158   3.986
16385SOL    HW251053   0.965   2.074   3.998
16386SOL     OW51054  12.298   8.550  10.565
16386SOL    HW151055  12.210   8.514  10.555
16386SOL    HW251056  12.332   8.508  10.645
16387SOL     OW51057   8.841  11.252  11.062
16387SOL    HW151058   8.761  11.201  11.080
16387SOL    HW251059   8.830  11.331  11.115
16388SOL     OW51060   1.365   2.205   3.391
16388SOL    HW151061   1.387   2.142   3.323
16388SOL    HW251062   1.304   2.265   3.349
16389SOL     OW51063  12.588  11.389   6.720
16389SOL    HW151064  12.636  11.439   6.654
16389SOL    HW251065  12.498  11.386   6.687
16390SOL     OW51066   6.861   9.548   2.251
16390SOL    HW151067   6.874   9.636   2.287
16390SOL    HW251068   6.909   9.491   2.312
16391SOL     OW51069  12.147   1.424  11.696
16391SOL    HW151070  12.088   1.378  11.637
16391SOL    HW251071  12.200   1.480  11.639
16392SOL     OW51072   0.947   1.205   2.322
16392SOL    HW151073   0.857   1.227   2.346
16392SOL    HW251074   0.995   1.287   2.331
16393SOL     OW51075   6.438   7.445  11.827
16393SOL    HW151076   6.452   7.438  11.732
16393SOL    HW251077   6.375   7.377  11.848
16394SOL     OW51078  12.951   0.312   2.766
16394SOL    HW151079  12.876   0.371   2.758
16394SOL    HW251080  12.967   0.280   2.677
16395SOL     OW51081   7.984   8.272   7.741
16395SOL    HW151082   8.055   8.208   7.747
16395SOL    HW251083   8.007   8.328   7.668
16396SOL     OW51084   6.275   6.874   6.828
16396SOL    HW151085   6.222   6.837   6.757
16396SOL    HW251086   6.212   6.921   6.883
16397SOL     OW51087  10.583   6.790  14.773
16397SOL    HW151088  10.602   6.843  14.850
16397SOL    HW251089  10.598   6.700  14.801
16398SOL     OW51090  13.895  14.037   3.485
16398SOL    HW151091  13.921  13.997   3.402
16398SOL    HW251092  13.947  13.991   3.551
16399SOL     OW51093   0.288   1.599   3.697
16399SOL    HW151094   0.201   1.611   3.735
16399SOL    HW251095   0.272   1.589   3.603
16400SOL     OW51096   7.535   5.023   7.875
16400SOL    HW151097   7.546   4.999   7.968
16400SOL    HW251098   7.527   5.118   7.876
16401SOL     OW51099  14.573   2.223   0.595
16401SOL    HW151100  14.609   2.269   0.519
16401SOL    HW251101  14.526   2.291   0.644
16402SOL     OW51102   1.371  10.928   4.621
16402SOL    HW151103   1.284  10.922   4.582
16402SOL    HW251104   1.383  10.845   4.667
16403SOL     OW51105   0.525  14.407  12.244
16403SOL    HW151106   0.596  14.403  12.180
16403SOL    HW251107   0.567  14.391  12.328
16404SOL     OW51108   7.329   2.880   9.200
16404SOL    HW151109   7.245   2.911   9.167
16404SOL    HW251110   7.378   2.855   9.122
16405SOL     OW51111   8.549   6.232  14.788
16405SOL    HW151112   8.514   6.307  14.835
16405SOL    HW251113   8.612   6.268  14.727
16406SOL     OW51114  11.821  11.186  13.877
16406SOL    HW151115  11.838  11.162  13.786
16406SOL    HW251116  11.725  11.187  13.884
16407SOL     OW51117   7.247  11.094   1.224
16407SOL    HW151118   7.162  11.109   1.182
16407SOL    HW251119   7.266  11.176   1.269
16408SOL     OW51120   5.338   6.229   1.660
16408SOL    HW151121   5.398   6.213   1.587
16408SOL    HW251122   5.252   6.233   1.619
16409SOL     OW51123   2.204   6.176  14.479
16409SOL    HW151124   2.149   6.248  14.508
16409SOL    HW251125   2.143   6.108  14.452
16410SOL     OW51126   5.580   9.784  10.901
16410SOL    HW151127   5.605   9.695  10.928
16410SOL    HW251128   5.610   9.839  10.973
16411SOL     OW51129   6.063   0.631  12.129
16411SOL    HW151130   5.998   0.602  12.065
16411SOL    HW251131   6.016   0.694  12.184
16412SOL     OW51132  13.695   6.027  12.356
16412SOL    HW151133  13.620   5.977  12.388
16412SOL    HW251134  13.765   6.007  12.418
16413SOL     OW51135   2.603   2.178   7.218
16413SOL    HW151136   2.564   2.123   7.150
16413SOL    HW251137   2.696   2.154   7.217
16414SOL     OW51138   0.984   4.115  12.690
16414SOL    HW151139   0.991   4.095  12.783
16414SOL    HW251140   1.042   4.190  12.677
16415SOL     OW51141  12.757   7.300  12.259
16415SOL    HW151142  12.719   7.280  12.345
16415SOL    HW251143  12.841   7.255  12.259
16416SOL     OW51144   7.592   2.010  13.189
16416SOL    HW151145   7.571   1.920  13.214
16416SOL    HW251146   7.662   2.001  13.124
16417SOL     OW51147   8.429   8.451   4.827
16417SOL    HW151148   8.405   8.359   4.825
16417SOL    HW251149   8.384   8.490   4.752
16418SOL     OW51150   1.117  10.789   8.396
16418SOL    HW151151   1.132  10.700   8.363
16418SOL    HW251152   1.205  10.823   8.413
16419SOL     OW51153   0.887   1.227   0.050
16419SOL    HW151154   0.944   1.281   0.105
16419SOL    HW251155   0.798   1.250   0.077
16420SOL     OW51156  11.687   9.066   5.778
16420SOL    HW151157  11.593   9.080   5.780
16420SOL    HW251158  11.720   9.119   5.851
16421SOL     OW51159  12.412   9.861   1.165
16421SOL    HW151160  12.407   9.930   1.232
16421SOL    HW251161  12.410   9.779   1.214
16422SOL     OW51162   7.603  10.751   7.727
16422SOL    HW151163   7.545  10.810   7.680
16422SOL    HW251164   7.633  10.688   7.661
16423SOL     OW51165   3.032  10.885   7.371
16423SOL    HW151166   3.056  10.807   7.322
16423SOL    HW251167   2.999  10.946   7.305
16424SOL     OW51168   8.472   0.628  14.336
16424SOL    HW151169   8.512   0.575  14.405
16424SOL    HW251170   8.379   0.604  14.338
16425SOL     OW51171   4.942  12.051  13.252
16425SOL    HW151172   4.916  11.962  13.230
16425SOL    HW251173   4.953  12.094  13.167
16426SOL     OW51174   2.419   4.564   9.845
16426SOL    HW151175   2.424   4.532   9.935
16426SOL    HW251176   2.366   4.644   9.850
16427SOL     OW51177   7.598  11.513   0.796
16427SOL    HW151178   7.663  11.576   0.827
16427SOL    HW251179   7.620  11.432   0.843
16428SOL     OW51180  11.868   2.801   9.704
16428SOL    HW151181  11.776   2.814   9.681
16428SOL    HW251182  11.883   2.707   9.691
16429SOL     OW51183   1.430   4.197   9.663
16429SOL    HW151184   1.522   4.176   9.680
16429SOL    HW251185   1.433   4.269   9.600
16430SOL     OW51186  13.753   5.288  13.965
16430SOL    HW151187  13.830   5.273  13.909
16430SOL    HW251188  13.712   5.202  13.972
16431SOL     OW51189   8.748   0.016  13.989
16431SOL    HW151190   8.657   0.028  13.961
16431SOL    HW251191   8.786   0.103  13.984
16432SOL     OW51192   7.460   8.939   5.530
16432SOL    HW151193   7.419   9.008   5.477
16432SOL    HW251194   7.533   8.982   5.574
16433SOL     OW51195  12.739   4.213  14.314
16433SOL    HW151196  12.650   4.248  14.305
16433SOL    HW251197  12.789   4.256  14.245
16434SOL     OW51198  14.877  13.779  12.127
16434SOL    HW151199  14.852  13.721  12.054
16434SOL    HW251200  14.829  13.745  12.202
16435SOL     OW51201   6.077   4.269   0.268
16435SOL    HW151202   6.095   4.290   0.176
16435SOL    HW251203   5.982   4.259   0.272
16436SOL     OW51204   7.379   8.478  11.126
16436SOL    HW151205   7.406   8.484  11.035
16436SOL    HW251206   7.302   8.534  11.132
16437SOL     OW51207   5.010  13.093  11.786
16437SOL    HW151208   5.058  13.080  11.705
16437SOL    HW251209   4.942  13.156  11.764
16438SOL     OW51210   9.139   5.151   2.093
16438SOL    HW151211   9.185   5.224   2.134
16438SOL    HW251212   9.067   5.132   2.153
16439SOL     OW51213   2.860  12.479   0.819
16439SOL    HW151214   2.836  12.562   0.860
16439SOL    HW251215   2.785  12.422   0.834
16440SOL     OW51216  12.618   6.527   3.165
16440SOL    HW151217  12.615   6.585   3.241
16440SOL    HW251218  12.680   6.570   3.105
16441SOL     OW51219   1.778  12.451   6.106
16441SOL    HW151220   1.872  12.455   6.087
16441SOL    HW251221   1.740  12.523   6.055
16442SOL     OW51222   4.714  10.374   1.002
16442SOL    HW151223   4.732  10.435   1.073
16442SOL    HW251224   4.790  10.316   1.001
16443SOL     OW51225   2.578  12.558   0.115
16443SOL    HW151226   2.612  12.526   0.198
16443SOL    HW251227   2.592  12.652   0.117
16444SOL     OW51228   3.698   2.861   9.543
16444SOL    HW151229   3.723   2.954   9.538
16444SOL    HW251230   3.780   2.816   9.565
16445SOL     OW51231   7.436   7.374   2.249
16445SOL    HW151232   7.441   7.457   2.202
16445SOL    HW251233   7.343   7.354   2.254
16446SOL     OW51234  13.970   7.029   2.703
16446SOL    HW151235  13.904   7.069   2.760
16446SOL    HW251236  14.053   7.053   2.743
16447SOL     OW51237   3.413  13.559   5.614
16447SOL    HW151238   3.425  13.479   5.666
16447SOL    HW251239   3.389  13.626   5.678
16448SOL     OW51240   3.743   5.000  10.377
16448SOL    HW151241   3.657   5.021  10.412
16448SOL    HW251242   3.726   4.969  10.288
16449SOL     OW51243   4.592   8.969   8.945
16449SOL    HW151244   4.611   8.965   9.039
16449SOL    HW251245   4.498   8.948   8.938
16450SOL     OW51246   3.989   4.863  10.400
16450SOL    HW151247   4.025   4.951  10.413
16450SOL    HW251248   3.894   4.876  10.397
16451SOL     OW51249   6.682   0.468   9.091
16451SOL    HW151250   6.642   0.554   9.082
16451SOL    HW251251   6.619   0.417   9.141
16452SOL     OW51252  13.045   5.832   4.181
16452SOL    HW151253  13.087   5.901   4.233
16452SOL    HW251254  12.958   5.822   4.221
16453SOL     OW51255   2.837   6.700   0.516
16453SOL    HW151256   2.843   6.697   0.611
16453SOL    HW251257   2.913   6.651   0.486
16454SOL     OW51258   0.461   1.130   2.011
16454SOL    HW151259   0.517   1.120   1.934
16454SOL    HW251260   0.382   1.082   1.989
16455SOL     OW51261   9.258   1.792   5.003
16455SOL    HW151262   9.329   1.847   4.970
16455SOL    HW251263   9.227   1.745   4.926
16456SOL     OW51264   0.041   8.376   7.999
16456SOL    HW151265   0.093   8.371   7.919
16456SOL    HW251266  14.830   8.378   7.970
16457SOL     OW51267   0.732   8.374   5.644
16457SOL    HW151268   0.663   8.364   5.578
16457SOL    HW251269   0.799   8.311   5.619
16458SOL     OW51270   4.135   5.813  13.298
16458SOL    HW151271   4.070   5.759  13.345
16458SOL    HW251272   4.142   5.771  13.212
16459SOL     OW51273  13.485  13.464   9.559
16459SOL    HW151274  13.460  13.525   9.629
16459SOL    HW251275  13.403  13.447   9.513
16460SOL     OW51276   6.055  14.584   4.319
16460SOL    HW151277   6.051  14.613   4.411
16460SOL    HW251278   6.148  14.575   4.301
16461SOL     OW51279   7.375  10.651   7.901
16461SOL    HW151280   7.291  10.623   7.863
16461SOL    HW251281   7.430  10.670   7.826
16462SOL     OW51282   1.368  14.504   5.262
16462SOL    HW151283   1.454  14.470   5.239
16462SOL    HW251284   1.315  14.492   5.184
16463SOL     OW51285  13.777  10.389   2.379
16463SOL    HW151286  13.701  10.430   2.419
16463SOL    HW251287  13.748  10.365   2.291
16464SOL     OW51288   0.833   0.631  13.356
16464SOL    HW151289   0.790   0.553  13.322
16464SOL    HW251290   0.825   0.623  13.451
16465SOL     OW51291  11.597   1.665   4.329
16465SOL    HW151292  11.662   1.601   4.358
16465SOL    HW251293  11.613   1.743   4.382
16466SOL     OW51294   3.746   5.177   0.396
16466SOL    HW151295   3.671   5.164   0.455
16466SOL    HW251296   3.786   5.090   0.390
16467SOL     OW51297   7.684   4.991   6.367
16467SOL    HW151298   7.600   5.024   6.335
16467SOL    HW251299   7.749   5.050   6.329
16468SOL     OW51300   2.996   8.516   8.941
16468SOL    HW151301   2.949   8.564   8.873
16468SOL    HW251302   3.039   8.584   8.993
16469SOL     OW51303   3.122   3.827  10.848
16469SOL    HW151304   3.146   3.886  10.776
16469SOL    HW251305   3.032   3.852  10.871
16470SOL     OW51306   3.489   8.848  11.368
16470SOL    HW151307   3.436   8.822  11.292
16470SOL    HW251308   3.504   8.941  11.356
16471SOL     OW51309   0.079   2.168   4.876
16471SOL    HW151310   0.108   2.215   4.954
16471SOL    HW251311  14.872   2.136   4.899
16472SOL     OW51312   2.909   5.375   6.343
16472SOL    HW151313   2.990   5.354   6.389
16472SOL    HW251314   2.933   5.446   6.283
16473SOL     OW51315  13.746  13.349   4.881
16473SOL    HW151316  13.671  13.335   4.824
16473SOL    HW251317  13.760  13.444   4.881
16474SOL     OW51318   9.685   9.793   5.804
16474SOL    HW151319   9.662   9.883   5.826
16474SOL    HW251320   9.636   9.774   5.723
16475SOL     OW51321   3.488   6.717   3.342
16475SOL    HW151322   3.523   6.730   3.254
16475SOL    HW251323   3.411   6.662   3.328
16476SOL     OW51324   4.869  12.394   9.053
16476SOL    HW151325   4.817  12.314   9.062
16476SOL    HW251326   4.920  12.398   9.134
16477SOL     OW51327   4.806  12.370   7.424
16477SOL    HW151328   4.749  12.320   7.366
16477SOL    HW251329   4.892  12.329   7.414
16478SOL     OW51330  11.519  12.273   8.551
16478SOL    HW151331  11.539  12.181   8.567
16478SOL    HW251332  11.436  12.272   8.505
16479SOL     OW51333   9.805  10.920   0.005
16479SOL    HW151334   9.782  10.992  14.827
16479SOL    HW251335   9.849  10.962   0.080
16480SOL     OW51336   2.724   1.817   2.962
16480SOL    HW151337   2.783   1.779   2.897
16480SOL    HW251338   2.646   1.761   2.958
16481SOL     OW51339  13.852  13.532  10.175
16481SOL    HW151340  13.819  13.468  10.237
16481SOL    HW251341  13.921  13.578  10.223
16482SOL     OW51342   2.236   4.408   8.753
16482SOL    HW151343   2.225   4.494   8.793
16482SOL    HW251344   2.174   4.352   8.800
16483SOL     OW51345  13.945   3.703   2.564
16483SOL    HW151346  13.927   3.667   2.477
16483SOL    HW251347  13.950   3.797   2.551
16484SOL     OW51348  14.259   6.183  11.574
16484SOL    HW151349  14.309   6.249  11.624
16484SOL    HW251350  14.225   6.123  11.641
16485SOL     OW51351  11.303   8.303  11.581
16485SOL    HW151352  11.374   8.248  11.615
16485SOL    HW251353  11.263   8.250  11.513
16486SOL     OW51354   2.020   5.042  14.612
16486SOL    HW151355   1.954   5.098  14.572
16486SOL    HW251356   2.033   4.971  14.549
16487SOL     OW51357   1.562   5.780   1.465
16487SOL    HW151358   1.517   5.718   1.523
16487SOL    HW251359   1.509   5.781   1.385
16488SOL     OW51360   5.058   5.705   0.389
16488SOL    HW151361   5.085   5.796   0.382
16488SOL    HW251362   4.964   5.707   0.370
16489SOL     OW51363   4.254   1.132   0.756
16489SOL    HW151364   4.289   1.178   0.680
16489SOL    HW251365   4.294   1.176   0.831
16490SOL     OW51366  12.945   8.417   5.160
16490SOL    HW151367  12.923   8.497   5.206
16490SOL    HW251368  12.864   8.365   5.160
16491SOL     OW51369   1.079  13.071  13.323
16491SOL    HW151370   0.993  13.112  13.331
16491SOL    HW251371   1.061  12.983  13.291
16492SOL     OW51372   9.527  13.534  11.728
16492SOL    HW151373   9.500  13.579  11.647
16492SOL    HW251374   9.446  13.526  11.778
16493SOL     OW51375   9.944   2.592   0.182
16493SOL    HW151376   9.852   2.613   0.163
16493SOL    HW251377   9.990   2.675   0.174
16494SOL     OW51378   0.222   9.934   3.162
16494SOL    HW151379   0.258   9.847   3.142
16494SOL    HW251380   0.284   9.971   3.225
16495SOL     OW51381   5.212   1.443  14.093
16495SOL    HW151382   5.137   1.460  14.035
16495SOL    HW251383   5.285   1.490  14.052
16496SOL     OW51384   7.920  11.036  13.360
16496SOL    HW151385   7.915  10.960  13.302
16496SOL    HW251386   7.829  11.056  13.381
16497SOL     OW51387   4.294   4.433   6.268
16497SOL    HW151388   4.220   4.412   6.211
16497SOL    HW251389   4.348   4.493   6.216
16498SOL     OW51390   7.325  14.500   8.261
16498SOL    HW151391   7.266  14.572   8.282
16498SOL    HW251392   7.280  14.422   8.294
16499SOL     OW51393   4.665   8.297   7.341
16499SOL    HW151394   4.584   8.280   7.293
16499SOL    HW251395   4.705   8.370   7.295
16500SOL     OW51396   0.469   7.581  12.365
16500SOL    HW151397   0.456   7.654  12.426
16500SOL    HW251398   0.511   7.621  12.289
16501SOL     OW51399  11.668   7.676   4.312
16501SOL    HW151400  11.763   7.660   4.313
16501SOL    HW251401  11.659   7.758   4.264
16502SOL     OW51402   4.608   1.697  10.758
16502SOL    HW151403   4.558   1.765  10.803
16502SOL    HW251404   4.547   1.660  10.695
16503SOL     OW51405  10.323   1.167   8.430
16503SOL    HW151406  10.324   1.256   8.397
16503SOL    HW251407  10.415   1.140   8.431
16504SOL     OW51408   6.840   1.513   9.926
16504SOL    HW151409   6.856   1.479  10.014
16504SOL    HW251410   6.761   1.469   9.896
16505SOL     OW51411   9.552   0.188   5.210
16505SOL    HW151412   9.639   0.227   5.224
16505SOL    HW251413   9.563   0.133   5.132
16506SOL     OW51414   4.307   1.707   5.361
16506SOL    HW151415   4.224   1.661   5.371
16506SOL    HW251416   4.345   1.670   5.282
16507SOL     OW51417  13.521   2.367   1.593
16507SOL    HW151418  13.566   2.450   1.609
16507SOL    HW251419  13.441   2.391   1.547
16508SOL     OW51420   5.825   6.172   6.119
16508SOL    HW151421   5.759   6.103   6.122
16508SOL    HW251422   5.782   6.245   6.075
16509SOL     OW51423   1.747   9.119  12.182
16509SOL    HW151424   1.822   9.159  12.137
16509SOL    HW251425   1.689   9.089  12.112
16510SOL     OW51426   3.691   9.542   8.175
16510SOL    HW151427   3.738   9.537   8.092
16510SOL    HW251428   3.629   9.614   8.163
16511SOL     OW51429   9.393   2.517   7.021
16511SOL    HW151430   9.435   2.507   6.935
16511SOL    HW251431   9.299   2.515   7.001
16512SOL     OW51432   9.596  12.280  14.231
16512SOL    HW151433   9.583  12.286  14.326
16512SOL    HW251434   9.531  12.215  14.203
16513SOL     OW51435   7.827   0.285   9.373
16513SOL    HW151436   7.891   0.355   9.384
16513SOL    HW251437   7.777   0.309   9.295
16514SOL     OW51438  12.562  13.864  12.611
16514SOL    HW151439  12.488  13.833  12.559
16514SOL    HW251440  12.574  13.796  12.678
16515SOL     OW51441  12.690   3.078   8.516
16515SOL    HW151442  12.744   3.155   8.535
16515SOL    HW251443  12.754   3.008   8.502
16516SOL     OW51444   6.291   8.152  11.058
16516SOL    HW151445   6.270   8.075  11.004
16516SOL    HW251446   6.384   8.142  11.079
16517SOL     OW51447   3.050   5.118   7.324
16517SOL    HW151448   3.079   5.208   7.307
16517SOL    HW251449   2.958   5.117   7.298
16518SOL     OW51450  12.594  11.400  11.135
16518SOL    HW151451  12.567  11.342  11.065
16518SOL    HW251452  12.630  11.477  11.091
16519SOL     OW51453   1.619  14.261   7.930
16519SOL    HW151454   1.569  14.214   7.863
16519SOL    HW251455   1.711  14.246   7.906
16520SOL     OW51456  14.123  12.012   5.829
16520SOL    HW151457  14.054  11.948   5.849
16520SOL    HW251458  14.195  11.988   5.887
16521SOL     OW51459   7.320  12.393   3.534
16521SOL    HW151460   7.327  12.304   3.500
16521SOL    HW251461   7.284  12.383   3.622
16522SOL     OW51462   7.568   6.308   0.970
16522SOL    HW151463   7.621   6.280   0.896
16522SOL    HW251464   7.579   6.403   0.974
16523SOL     OW51465  11.016  11.565  11.182
16523SOL    HW151466  10.942  11.508  11.163
16523SOL    HW251467  10.990  11.612  11.262
16524SOL     OW51468   3.646   7.880  11.798
16524SOL    HW151469   3.576   7.945  11.795
16524SOL    HW251470   3.726   7.931  11.814
16525SOL     OW51471   8.131  12.849   9.340
16525SOL    HW151472   8.207  12.824   9.288
16525SOL    HW251473   8.104  12.768   9.384
16526SOL     OW51474   9.891   3.711  13.578
16526SOL    HW151475   9.878   3.783  13.639
16526SOL    HW251476   9.945   3.647  13.626
16527SOL     OW51477  12.595   9.320  12.891
16527SOL    HW151478  12.607   9.245  12.948
16527SOL    HW251479  12.585   9.394  12.950
16528SOL     OW51480   9.364  11.974   5.005
16528SOL    HW151481   9.319  12.058   5.014
16528SOL    HW251482   9.358  11.934   5.091
16529SOL     OW51483   1.168   0.071   4.888
16529SOL    HW151484   1.117   0.124   4.950
16529SOL    HW251485   1.199  14.877   4.940
16530SOL     OW51486   6.010  11.951   6.848
16530SOL    HW151487   6.095  11.950   6.893
16530SOL    HW251488   6.010  11.870   6.797
16531SOL     OW51489   5.585   5.918   4.500
16531SOL    HW151490   5.570   6.011   4.517
16531SOL    HW251491   5.497   5.883   4.483
16532SOL     OW51492   9.135   8.888   6.519
16532SOL    HW151493   9.138   8.803   6.475
16532SOL    HW251494   9.226   8.908   6.540
16533SOL     OW51495   6.712  13.861  12.002
16533SOL    HW151496   6.805  13.845  12.022
16533SOL    HW251497   6.681  13.913  12.076
16534SOL     OW51498   4.411   6.213   9.539
16534SOL    HW151499   4.445   6.235   9.452
16534SOL    HW251500   4.331   6.164   9.521
16535SOL     OW51501   2.344   5.235  11.286
16535SOL    HW151502   2.286   5.219  11.211
16535SOL    HW251503   2.322   5.323  11.314
16536SOL     OW51504   8.346   9.652   9.578
16536SOL    HW151505   8.411   9.707   9.535
16536SOL    HW251506   8.293   9.713   9.629
16537SOL     OW51507   8.898  14.572  14.077
16537SOL    HW151508   8.843  14.495  14.066
16537SOL    HW251509   8.842  14.635  14.123
16538SOL     OW51510   7.369   5.493   9.257
16538SOL    HW151511   7.384   5.400   9.275
16538SOL    HW251512   7.298   5.518   9.317
16539SOL     OW51513  12.058  11.439   1.799
16539SOL    HW151514  12.095  11.522   1.769
16539SOL    HW251515  11.973  11.433   1.756
16540SOL     OW51516  13.247   1.256  10.188
16540SOL    HW151517  13.283   1.280  10.103
16540SOL    HW251518  13.198   1.334  10.216
16541SOL     OW51519   4.996   3.089  14.537
16541SOL    HW151520   5.043   3.145  14.599
16541SOL    HW251521   4.910   3.076  14.576
16542SOL     OW51522  12.926   2.427  10.981
16542SOL    HW151523  12.848   2.457  10.935
16542SOL    HW251524  12.976   2.506  10.998
16543SOL     OW51525   1.895   9.605   4.956
16543SOL    HW151526   1.948   9.632   5.031
16543SOL    HW251527   1.883   9.511   4.968
16544SOL     OW51528  13.462   9.237  14.051
16544SOL    HW151529  13.396   9.195  13.996
16544SOL    HW251530  13.543   9.192  14.028
16545SOL     OW51531   4.080   7.245   7.972
16545SOL    HW151532   4.074   7.327   8.020
16545SOL    HW251533   4.070   7.177   8.039
16546SOL     OW51534   2.345   4.057   6.413
16546SOL    HW151535   2.430   4.078   6.450
16546SOL    HW251536   2.309   4.141   6.386
16547SOL     OW51537   8.663  13.698   5.511
16547SOL    HW151538   8.701  13.782   5.486
16547SOL    HW251539   8.575  13.719   5.542
16548SOL     OW51540   2.428  12.831   3.851
16548SOL    HW151541   2.498  12.878   3.897
16548SOL    HW251542   2.414  12.752   3.904
16549SOL     OW51543  11.447  10.718  10.126
16549SOL    HW151544  11.354  10.707  10.110
16549SOL    HW251545  11.486  10.633  10.106
16550SOL     OW51546   5.834   0.157   0.849
16550SOL    HW151547   5.845   0.241   0.805
16550SOL    HW251548   5.852   0.175   0.941
16551SOL     OW51549   2.995   6.988   8.247
16551SOL    HW151550   3.045   6.924   8.196
16551SOL    HW251551   3.059   7.055   8.270
16552SOL     OW51552  13.670   6.383   7.510
16552SOL    HW151553  13.763   6.406   7.513
16552SOL    HW251554  13.657   6.326   7.586
16553SOL     OW51555   9.323  13.679   1.724
16553SOL    HW151556   9.338  13.773   1.718
16553SOL    HW251557   9.365  13.653   1.806
16554SOL     OW51558  13.732   3.615  14.399
16554SOL    HW151559  13.713   3.684  14.336
16554SOL    HW251560  13.755   3.661  14.479
16555SOL     OW51561   1.924   5.679  13.268
16555SOL    HW151562   1.907   5.696  13.175
16555SOL    HW251563   1.837   5.680  13.309
16556SOL     OW51564   5.096  12.464   8.343
16556SOL    HW151565   5.047  12.492   8.265
16556SOL    HW251566   5.113  12.545   8.391
16557SOL     OW51567   3.579  11.318  10.483
16557SOL    HW151568   3.491  11.288  10.460
16557SOL    HW251569   3.575  11.413  10.474
16558SOL     OW51570   7.550  11.730   4.572
16558SOL    HW151571   7.547  11.735   4.477
16558SOL    HW251572   7.474  11.678   4.597
16559SOL     OW51573  13.278  12.340  11.498
16559SOL    HW151574  13.306  12.257  11.538
16559SOL    HW251575  13.193  12.358  11.538
16560SOL     OW51576   5.701   7.956  13.375
16560SOL    HW151577   5.742   8.002  13.301
16560SOL    HW251578   5.655   7.883  13.335
16561SOL     OW51579   9.965   4.686  11.767
16561SOL    HW151580   9.966   4.591  11.781
16561SOL    HW251581   9.995   4.722  11.850
16562SOL     OW51582   2.476   9.473  12.347
16562SOL    HW151583   2.487   9.485  12.441
16562SOL    HW251584   2.381   9.475  12.333
16563SOL     OW51585   7.875   1.286   2.132
16563SOL    HW151586   7.837   1.209   2.175
16563SOL    HW251587   7.956   1.254   2.092
16564SOL     OW51588  11.403  13.849   4.689
16564SOL    HW151589  11.394  13.808   4.776
16564SOL    HW251590  11.435  13.779   4.633
16565SOL     OW51591   7.828  11.925  12.638
16565SOL    HW151592   7.733  11.919  12.629
16565SOL    HW251593   7.862  11.881  12.561
16566SOL     OW51594  13.221  12.430   1.106
16566SOL    HW151595  13.161  12.402   1.175
16566SOL    HW251596  13.168  12.429   1.026
16567SOL     OW51597  14.743  14.178  11.675
16567SOL    HW151598  14.714  14.087  11.667
16567SOL    HW251599  14.825  14.173  11.724
16568SOL     OW51600   1.550  11.970   4.668
16568SOL    HW151601   1.543  12.063   4.690
16568SOL    HW251602   1.603  11.968   4.588
16569SOL     OW51603  10.618   1.411   1.619
16569SOL    HW151604  10.644   1.330   1.663
16569SOL    HW251605  10.665   1.409   1.536
16570SOL     OW51606   7.097   4.064   5.696
16570SOL    HW151607   7.089   4.064   5.792
16570SOL    HW251608   7.064   4.150   5.670
16571SOL     OW51609   4.109   8.591  14.376
16571SOL    HW151610   4.090   8.500  14.397
16571SOL    HW251611   4.124   8.592  14.282
16572SOL     OW51612   3.882  14.596  14.152
16572SOL    HW151613   3.914  14.681  14.181
16572SOL    HW251614   3.889  14.599  14.057
16573SOL     OW51615  14.045   8.228   3.133
16573SOL    HW151616  14.024   8.141   3.099
16573SOL    HW251617  13.962   8.260   3.168
16574SOL     OW51618   6.467   1.696   9.081
16574SOL    HW151619   6.444   1.702   9.173
16574SOL    HW251620   6.551   1.741   9.073
16575SOL     OW51621  11.298  14.879   6.067
16575SOL    HW151622  11.386  14.846   6.047
16575SOL    HW251623  11.239  14.814   6.031
16576SOL     OW51624   8.608   3.474  13.539
16576SOL    HW151625   8.540   3.524  13.583
16576SOL    HW251626   8.618   3.517  13.454
16577SOL     OW51627   9.520   3.851   2.277
16577SOL    HW151628   9.495   3.941   2.298
16577SOL    HW251629   9.498   3.801   2.355
16578SOL     OW51630  11.415   1.538   6.032
16578SOL    HW151631  11.432   1.519   6.124
16578SOL    HW251632  11.430   1.633   6.025
16579SOL     OW51633   7.762  13.609   1.376
16579SOL    HW151634   7.819  13.566   1.440
16579SOL    HW251635   7.675  13.605   1.415
16580SOL     OW51636  12.295   7.553   8.511
16580SOL    HW151637  12.249   7.556   8.427
16580SOL    HW251638  12.381   7.516   8.490
16581SOL     OW51639   3.168   8.882  10.051
16581SOL    HW151640   3.226   8.957  10.065
16581SOL    HW251641   3.170   8.834  10.134
16582SOL     OW51642   2.634  14.258  11.936
16582SOL    HW151643   2.597  14.213  12.012
16582SOL    HW251644   2.617  14.198  11.862
16583SOL     OW51645   4.797   2.747   2.043
16583SOL    HW151646   4.871   2.703   2.083
16583SOL    HW251647   4.721   2.716   2.092
16584SOL     OW51648  11.258  11.941   2.076
16584SOL    HW151649  11.350  11.923   2.055
16584SOL    HW251650  11.254  12.036   2.085
16585SOL     OW51651   0.741   1.408   5.534
16585SOL    HW151652   0.748   1.465   5.611
16585SOL    HW251653   0.698   1.329   5.567
16586SOL     OW51654   8.171   1.652   6.811
16586SOL    HW151655   8.197   1.742   6.831
16586SOL    HW251656   8.116   1.626   6.884
16587SOL     OW51657   1.870   8.192   7.528
16587SOL    HW151658   1.960   8.202   7.557
16587SOL    HW251659   1.870   8.112   7.475
16588SOL     OW51660   3.111  14.697   6.451
16588SOL    HW151661   3.117  14.735   6.539
16588SOL    HW251662   3.151  14.764   6.394
16589SOL     OW51663  11.214   0.083   0.398
16589SOL    HW151664  11.212  14.868   0.403
16589SOL    HW251665  11.183   0.103   0.310
16590SOL     OW51666   9.256  10.144  14.370
16590SOL    HW151667   9.225  10.054  14.355
16590SOL    HW251668   9.226  10.165  14.458
16591SOL     OW51669  14.305   7.222  14.104
16591SOL    HW151670  14.309   7.265  14.018
16591SOL    HW251671  14.333   7.290  14.165
16592SOL     OW51672   6.758   9.579   9.080
16592SOL    HW151673   6.788   9.491   9.057
16592SOL    HW251674   6.774   9.586   9.174
16593SOL     OW51675  13.542   7.294   2.664
16593SOL    HW151676  13.514   7.205   2.642
16593SOL    HW251677  13.576   7.329   2.582
16594SOL     OW51678   0.974   9.480   2.730
16594SOL    HW151679   1.046   9.452   2.787
16594SOL    HW251680   1.005   9.562   2.691
16595SOL     OW51681   2.079   1.135   0.873
16595SOL    HW151682   2.094   1.223   0.908
16595SOL    HW251683   2.099   1.077   0.947
16596SOL     OW51684   9.715  10.108  14.543
16596SOL    HW151685   9.770  10.161  14.600
16596SOL    HW251686   9.671  10.172  14.486
16597SOL     OW51687   6.055  10.605   9.141
16597SOL    HW151688   6.141  10.563   9.137
16597SOL    HW251689   6.054  10.664   9.065
16598SOL     OW51690   5.110   6.419   3.402
16598SOL    HW151691   5.078   6.504   3.433
16598SOL    HW251692   5.071   6.355   3.461
16599SOL     OW51693  12.964   1.418  14.345
16599SOL    HW151694  12.924   1.501  14.371
16599SOL    HW251695  13.058   1.431  14.361
16600SOL     OW51696   0.413   6.276   3.384
16600SOL    HW151697   0.496   6.229   3.394
16600SOL    HW251698   0.396   6.314   3.470
16601SOL     OW51699  10.072   3.540   8.097
16601SOL    HW151700  10.147   3.485   8.074
16601SOL    HW251701  10.087   3.622   8.051
16602SOL     OW51702   8.402   7.983  12.207
16602SOL    HW151703   8.346   7.940  12.142
16602SOL    HW251704   8.401   8.076  12.182
16603SOL     OW51705   1.893   9.928   2.549
16603SOL    HW151706   1.830   9.879   2.602
16603SOL    HW251707   1.976   9.916   2.594
16604SOL     OW51708   4.226  13.456  13.244
16604SOL    HW151709   4.236  13.521  13.174
16604SOL    HW251710   4.258  13.499  13.323
16605SOL     OW51711  11.771   2.895  14.673
16605SOL    HW151712  11.793   2.879  14.765
16605SOL    HW251713  11.729   2.814  14.643
16606SOL     OW51714  14.106   3.208  13.411
16606SOL    HW151715  14.155   3.134  13.377
16606SOL    HW251716  14.154   3.285  13.380
16607SOL     OW51717   7.330   8.348   6.172
16607SOL    HW151718   7.344   8.346   6.267
16607SOL    HW251719   7.236   8.359   6.162
16608SOL     OW51720   5.861   8.039  12.503
16608SOL    HW151721   5.821   8.124  12.484
16608SOL    HW251722   5.892   8.008  12.418
16609SOL     OW51723   2.633   1.425   4.192
16609SOL    HW151724   2.618   1.517   4.170
16609SOL    HW251725   2.625   1.378   4.109
16610SOL     OW51726   2.253   9.379   2.456
16610SOL    HW151727   2.265   9.299   2.508
16610SOL    HW251728   2.210   9.440   2.516
16611SOL     OW51729  11.189  12.531  13.893
16611SOL    HW151730  11.175  12.534  13.798
16611SOL    HW251731  11.213  12.440  13.911
16612SOL     OW51732   8.245  10.856  12.352
16612SOL    HW151733   8.325  10.908  12.360
16612SOL    HW251734   8.224  10.831  12.442
16613SOL     OW51735   0.980  11.657  10.872
16613SOL    HW151736   0.918  11.716  10.830
16613SOL    HW251737   0.946  11.648  10.962
16614SOL     OW51738   6.647   6.894   4.370
16614SOL    HW151739   6.731   6.905   4.415
16614SOL    HW251740   6.610   6.983   4.365
16615SOL     OW51741   1.110   7.374   7.925
16615SOL    HW151742   1.082   7.370   8.016
16615SOL    HW251743   1.062   7.449   7.889
16616SOL     OW51744   2.021   3.363   9.042
16616SOL    HW151745   1.973   3.431   9.091
16616SOL    HW251746   2.112   3.376   9.067
16617SOL     OW51747  11.778   7.193  11.038
16617SOL    HW151748  11.784   7.121  10.975
16617SOL    HW251749  11.821   7.160  11.117
16618SOL     OW51750   6.819   5.318  13.732
16618SOL    HW151751   6.777   5.404  13.741
16618SOL    HW251752   6.857   5.319  13.645
16619SOL     OW51753   0.980  10.515   1.233
16619SOL    HW151754   1.029  10.465   1.168
16619SOL    HW251755   1.035  10.513   1.311
16620SOL     OW51756  11.702   4.979  14.420
16620SOL    HW151757  11.669   5.069  14.423
16620SOL    HW251758  11.782   4.981  14.472
16621SOL     OW51759  13.344  13.925  11.866
16621SOL    HW151760  13.337  13.856  11.799
16621SOL    HW251761  13.425  13.972  11.844
16622SOL     OW51762   2.629   5.217  14.388
16622SOL    HW151763   2.605   5.162  14.313
16622SOL    HW251764   2.720   5.243  14.370
16623SOL     OW51765  14.594   7.298   4.279
16623SOL    HW151766  14.598   7.335   4.191
16623SOL    HW251767  14.505   7.315   4.308
16624SOL     OW51768   7.916  12.453  11.359
16624SOL    HW151769   7.881  12.409  11.436
16624SOL    HW251770   7.978  12.518  11.394
16625SOL     OW51771   8.521  14.047   7.441
16625SOL    HW151772   8.511  14.112   7.510
16625SOL    HW251773   8.525  13.963   7.487
16626SOL     OW51774   3.108   7.586   3.838
16626SOL    HW151775   3.096   7.600   3.932
16626SOL    HW251776   3.188   7.534   3.831
16627SOL     OW51777   6.262  13.649   7.651
16627SOL    HW151778   6.320  13.706   7.701
16627SOL    HW251779   6.276  13.675   7.560
16628SOL     OW51780  12.967   0.359   1.627
16628SOL    HW151781  12.958   0.438   1.574
16628SOL    HW251782  13.053   0.324   1.604
16629SOL     OW51783   4.031   0.968  13.764
16629SOL    HW151784   3.984   1.049  13.749
16629SOL    HW251785   3.980   0.901  13.719
16630SOL     OW51786   4.150  14.021   5.334
16630SOL    HW151787   4.220  14.021   5.268
16630SOL    HW251788   4.174  14.092   5.394
16631SOL     OW51789   1.605  13.721  12.519
16631SOL    HW151790   1.682  13.774  12.497
16631SOL    HW251791   1.625  13.634  12.483
16632SOL     OW51792   9.675   0.248  10.494
16632SOL    HW151793   9.725   0.204  10.425
16632SOL    HW251794   9.628   0.318  10.449
16633SOL     OW51795   4.060  10.930  13.550
16633SOL    HW151796   4.028  10.962  13.466
16633SOL    HW251797   4.146  10.970  13.560
16634SOL     OW51798   7.884   6.037   8.887
16634SOL    HW151799   7.952   6.023   8.821
16634SOL    HW251800   7.834   5.955   8.888
16635SOL     OW51801   0.333  10.046  11.198
16635SOL    HW151802   0.297  10.010  11.117
16635SOL    HW251803   0.410   9.992  11.217
16636SOL     OW51804   0.084   8.641  14.676
16636SOL    HW151805   0.060   8.683  14.594
16636SOL    HW251806   0.061   8.705  14.743
16637SOL     OW51807  13.566   7.167  10.859
16637SOL    HW151808  13.571   7.148  10.765
16637SOL    HW251809  13.480   7.208  10.870
16638SOL     OW51810   0.990  13.116   6.754
16638SOL    HW151811   0.955  13.032   6.784
16638SOL    HW251812   1.043  13.093   6.678
16639SOL     OW51813   8.748  14.766  10.891
16639SOL    HW151814   8.660  14.740  10.919
16639SOL    HW251815   8.735  14.850  10.846
16640SOL     OW51816  14.824  14.717   2.297
16640SOL    HW151817  14.804  14.681   2.211
16640SOL    HW251818  14.758  14.786   2.310
16641SOL     OW51819  12.153  14.295   6.661
16641SOL    HW151820  12.115  14.262   6.742
16641SOL    HW251821  12.240  14.325   6.686
16642SOL     OW51822   0.856  10.923  11.530
16642SOL    HW151823   0.826  10.975  11.455
16642SOL    HW251824   0.776  10.905  11.580
16643SOL     OW51825   8.778  13.456  13.177
16643SOL    HW151826   8.866  13.418  13.178
16643SOL    HW251827   8.751  13.449  13.085
16644SOL     OW51828   5.519  12.464   3.215
16644SOL    HW151829   5.432  12.462   3.176
16644SOL    HW251830   5.570  12.521   3.157
16645SOL     OW51831   3.656   3.497   4.027
16645SOL    HW151832   3.728   3.472   3.970
16645SOL    HW251833   3.692   3.568   4.080
16646SOL     OW51834   3.474  12.230  13.866
16646SOL    HW151835   3.485  12.182  13.948
16646SOL    HW251836   3.560  12.227  13.824
16647SOL     OW51837   4.619   4.924  11.169
16647SOL    HW151838   4.672   4.949  11.093
16647SOL    HW251839   4.574   4.845  11.141
16648SOL     OW51840   1.640   2.830   8.389
16648SOL    HW151841   1.698   2.828   8.313
16648SOL    HW251842   1.616   2.922   8.399
16649SOL     OW51843  10.459   0.713  14.840
16649SOL    HW151844  10.526   0.765  14.796
16649SOL    HW251845  10.381   0.724  14.786
16650SOL     OW51846   3.905  11.729   6.781
16650SOL    HW151847   3.885  11.822   6.770
16650SOL    HW251848   3.951  11.724   6.865
16651SOL     OW51849  13.952   9.688   3.218
16651SOL    HW151850  14.023   9.745   3.248
16651SOL    HW251851  13.900   9.744   3.160
16652SOL     OW51852   9.254  11.450   3.658
16652SOL    HW151853   9.208  11.366   3.662
16652SOL    HW251854   9.322  11.443   3.725
16653SOL     OW51855   1.489   2.163   0.112
16653SOL    HW151856   1.555   2.127   0.171
16653SOL    HW251857   1.535   2.233   0.065
16654SOL     OW51858  13.832   9.607   8.826
16654SOL    HW151859  13.859   9.520   8.857
16654SOL    HW251860  13.743   9.594   8.793
16655SOL     OW51861   9.822  13.620   4.264
16655SOL    HW151862   9.849  13.544   4.317
16655SOL    HW251863   9.872  13.693   4.301
16656SOL     OW51864  10.503  14.118   9.797
16656SOL    HW151865  10.510  14.193   9.857
16656SOL    HW251866  10.452  14.151   9.723
16657SOL     OW51867   3.245   4.230  14.486
16657SOL    HW151868   3.181   4.299  14.504
16657SOL    HW251869   3.256   4.233  14.391
16658SOL     OW51870   1.589   0.099   3.885
16658SOL    HW151871   1.643   0.087   3.962
16658SOL    HW251872   1.537   0.019   3.879
16659SOL     OW51873   0.417   2.744   8.664
16659SOL    HW151874   0.410   2.679   8.594
16659SOL    HW251875   0.373   2.703   8.739
16660SOL     OW51876   0.785  12.465   4.924
16660SOL    HW151877   0.778  12.491   4.832
16660SOL    HW251878   0.743  12.379   4.928
16661SOL     OW51879   2.576  12.398   8.669
16661SOL    HW151880   2.584  12.304   8.685
16661SOL    HW251881   2.495  12.423   8.713
16662SOL     OW51882   2.907   9.121  14.440
16662SOL    HW151883   2.870   9.167  14.364
16662SOL    HW251884   2.920   9.032  14.409
16663SOL     OW51885   8.188   6.328   9.281
16663SOL    HW151886   8.174   6.372   9.197
16663SOL    HW251887   8.184   6.399   9.345
16664SOL     OW51888   6.639   4.416   6.443
16664SOL    HW151889   6.676   4.448   6.526
16664SOL    HW251890   6.710   4.366   6.403
16665SOL     OW51891   0.251   5.871  11.922
16665SOL    HW151892   0.273   5.785  11.886
16665SOL    HW251893   0.263   5.861  12.016
16666SOL     OW51894   0.417   0.883  10.116
16666SOL    HW151895   0.360   0.921  10.182
16666SOL    HW251896   0.503   0.921  10.134
16667SOL     OW51897  13.674   6.159   0.588
16667SOL    HW151898  13.588   6.165   0.547
16667SOL    HW251899  13.720   6.091   0.538
16668SOL     OW51900   9.210   7.957   8.714
16668SOL    HW151901   9.122   7.962   8.676
16668SOL    HW251902   9.262   8.019   8.663
16669SOL     OW51903   6.676   3.591   6.300
16669SOL    HW151904   6.629   3.673   6.311
16669SOL    HW251905   6.689   3.558   6.389
16670SOL     OW51906  10.548   2.621   5.810
16670SOL    HW151907  10.517   2.706   5.839
16670SOL    HW251908  10.485   2.559   5.844
16671SOL     OW51909   3.710   1.182   3.218
16671SOL    HW151910   3.616   1.163   3.212
16671SOL    HW251911   3.744   1.116   3.278
16672SOL     OW51912  13.950   5.360   7.914
16672SOL    HW151913  13.990   5.354   7.828
16672SOL    HW251914  13.907   5.275   7.926
16673SOL     OW51915   7.518   7.479   3.482
16673SOL    HW151916   7.467   7.466   3.562
16673SOL    HW251917   7.568   7.398   3.472
16674SOL     OW51918   7.542   3.410   0.496
16674SOL    HW151919   7.533   3.317   0.474
16674SOL    HW251920   7.570   3.410   0.588
16675SOL     OW51921  12.750  12.139  13.008
16675SOL    HW151922  12.756  12.234  13.001
16675SOL    HW251923  12.750  12.122  13.103
16676SOL     OW51924  11.312   4.163  10.750
16676SOL    HW151925  11.393   4.125  10.784
16676SOL    HW251926  11.255   4.171  10.826
16677SOL     OW51927   0.610   0.758  13.259
16677SOL    HW151928   0.680   0.715  13.307
16677SOL    HW251929   0.652   0.793  13.181
16678SOL     OW51930   8.878  10.156  12.961
16678SOL    HW151931   8.823  10.084  12.989
16678SOL    HW251932   8.937  10.171  13.034
16679SOL     OW51933   6.896  14.706   5.435
16679SOL    HW151934   6.914  14.673   5.523
16679SOL    HW251935   6.812  14.752   5.443
16680SOL     OW51936   5.901   8.007   9.183
16680SOL    HW151937   5.824   8.061   9.163
16680SOL    HW251938   5.921   7.962   9.101
16681SOL     OW51939  11.436   5.971   3.592
16681SOL    HW151940  11.364   6.028   3.562
16681SOL    HW251941  11.392   5.899   3.637
16682SOL     OW51942  14.142   1.380  10.013
16682SOL    HW151943  14.187   1.329   9.946
16682SOL    HW251944  14.119   1.316  10.080
16683SOL     OW51945  13.922  11.205   6.316
16683SOL    HW151946  13.871  11.184   6.395
16683SOL    HW251947  14.011  11.220   6.349
16684SOL     OW51948   3.350  12.953   2.733
16684SOL    HW151949   3.420  12.889   2.723
16684SOL    HW251950   3.396  13.037   2.745
16685SOL     OW51951   7.173  10.689  12.640
16685SOL    HW151952   7.084  10.656  12.623
16685SOL    HW251953   7.230  10.628  12.593
16686SOL     OW51954  14.034  10.767  11.691
16686SOL    HW151955  14.003  10.691  11.642
16686SOL    HW251956  13.971  10.778  11.762
16687SOL     OW51957   5.098  11.722   6.254
16687SOL    HW151958   5.165  11.687   6.195
16687SOL    HW251959   5.135  11.804   6.286
16688SOL     OW51960  14.596  14.072  13.574
16688SOL    HW151961  14.637  14.158  13.560
16688SOL    HW251962  14.586  14.065  13.669
16689SOL     OW51963   8.488   9.734   5.883
16689SOL    HW151964   8.447   9.709   5.966
16689SOL    HW251965   8.564   9.676   5.876
16690SOL     OW51966  10.784  12.648   0.050
16690SOL    HW151967  10.816  12.734   0.024
16690SOL    HW251968  10.693  12.647   0.023
16691SOL     OW51969   6.563   4.246  12.280
16691SOL    HW151970   6.626   4.178  12.256
16691SOL    HW251971   6.479   4.199  12.285
16692SOL     OW51972   7.382  13.514   0.525
16692SOL    HW151973   7.466  13.468   0.525
16692SOL    HW251974   7.406  13.607   0.532
16693SOL     OW51975  14.721  11.480  13.578
16693SOL    HW151976  14.645  11.422  13.570
16693SOL    HW251977  14.688  11.556  13.626
16694SOL     OW51978   0.183   7.362  13.997
16694SOL    HW151979   0.229   7.324  14.072
16694SOL    HW251980   0.225   7.447  13.983
16695SOL     OW51981   4.100   2.718  11.417
16695SOL    HW151982   4.157   2.755  11.350
16695SOL    HW251983   4.099   2.785  11.487
16696SOL     OW51984  12.733   3.884  12.123
16696SOL    HW151985  12.746   3.850  12.034
16696SOL    HW251986  12.789   3.830  12.178
16697SOL     OW51987   2.657   4.105   6.821
16697SOL    HW151988   2.642   4.199   6.824
16697SOL    HW251989   2.574   4.068   6.789
16698SOL     OW51990   3.671   9.575   8.669
16698SOL    HW151991   3.737   9.602   8.733
16698SOL    HW251992   3.714   9.587   8.584
16699SOL     OW51993   3.986  13.527   9.518
16699SOL    HW151994   3.894  13.528   9.493
16699SOL    HW251995   3.988  13.475   9.599
16700SOL     OW51996   9.648   0.985   3.873
16700SOL    HW151997   9.693   1.042   3.810
16700SOL    HW251998   9.689   0.900   3.863
16701SOL     OW51999  14.393   6.562   1.407
16701SOL    HW152000  14.469   6.613   1.435
16701SOL    HW252001  14.428   6.498   1.346
16702SOL     OW52002   7.012  10.206   8.582
16702SOL    HW152003   6.995  10.143   8.512
16702SOL    HW252004   7.103  10.189   8.607
16703SOL     OW52005   3.739  14.776   5.070
16703SOL    HW152006   3.701  14.820   5.146
16703SOL    HW252007   3.792  14.843   5.027
16704SOL     OW52008   3.467   0.788  11.693
16704SOL    HW152009   3.492   0.708  11.740
16704SOL    HW252010   3.531   0.853  11.720
16705SOL     OW52011   9.793  13.997  11.161
16705SOL    HW152012   9.842  14.049  11.224
16705SOL    HW252013   9.807  13.906  11.187
16706SOL     OW52014   6.562   6.156   9.293
16706SOL    HW152015   6.543   6.092   9.224
16706SOL    HW252016   6.518   6.236   9.265
16707SOL     OW52017  10.913  12.781  12.347
16707SOL    HW152018  10.994  12.749  12.386
16707SOL    HW252019  10.913  12.746  12.258
16708SOL     OW52020   5.929  14.286  14.119
16708SOL    HW152021   5.906  14.198  14.150
16708SOL    HW252022   5.996  14.271  14.052
16709SOL     OW52023   1.127   3.663  14.823
16709SOL    HW152024   1.122   3.686  14.730
16709SOL    HW252025   1.159   3.573  14.823
16710SOL     OW52026   7.609   1.754  13.294
16710SOL    HW152027   7.698   1.730  13.267
16710SOL    HW252028   7.561   1.671  13.296
16711SOL     OW52029   2.765   0.339   8.546
16711SOL    HW152030   2.830   0.285   8.591
16711SOL    HW252031   2.750   0.295   8.463
16712SOL     OW52032  14.451   4.309   8.641
16712SOL    HW152033  14.367   4.355   8.646
16712SOL    HW252034  14.517   4.377   8.654
16713SOL     OW52035   1.494   8.580  14.223
16713SOL    HW152036   1.473   8.574  14.316
16713SOL    HW252037   1.578   8.626  14.220
16714SOL     OW52038   1.360  11.982   3.085
16714SOL    HW152039   1.308  12.059   3.063
16714SOL    HW252040   1.304  11.908   3.062
16715SOL     OW52041   1.229   5.113  10.778
16715SOL    HW152042   1.242   5.206  10.795
16715SOL    HW252043   1.207   5.075  10.863
16716SOL     OW52044   6.370   0.489  14.878
16716SOL    HW152045   6.383   0.573   0.042
16716SOL    HW252046   6.437   0.431   0.035
16717SOL     OW52047   6.777  12.344   0.394
16717SOL    HW152048   6.866  12.331   0.425
16717SOL    HW252049   6.723  12.292   0.453
16718SOL     OW52050   6.277  10.946   3.583
16718SOL    HW152051   6.244  10.856   3.593
16718SOL    HW252052   6.326  10.963   3.663
16719SOL     OW52053   5.863   0.346   8.759
16719SOL    HW152054   5.842   0.374   8.848
16719SOL    HW252055   5.778   0.327   8.719
16720SOL     OW52056   9.709  10.801   6.744
16720SOL    HW152057   9.716  10.886   6.700
16720SOL    HW252058   9.639  10.756   6.698
16721SOL     OW52059   5.053   8.427  11.699
16721SOL    HW152060   5.045   8.522  11.705
16721SOL    HW252061   5.129   8.412  11.643
16722SOL     OW52062  12.489  11.982   4.944
16722SOL    HW152063  12.396  11.973   4.924
16722SOL    HW252064  12.526  12.030   4.870
16723SOL     OW52065  14.488   1.262   9.931
16723SOL    HW152066  14.541   1.332   9.970
16723SOL    HW252067  14.543   1.224   9.863
16724SOL     OW52068  13.563   3.047   0.392
16724SOL    HW152069  13.579   3.122   0.335
16724SOL    HW252070  13.505   2.990   0.343
16725SOL     OW52071   7.860   7.894   6.638
16725SOL    HW152072   7.877   7.804   6.609
16725SOL    HW252073   7.785   7.922   6.586
16726SOL     OW52074   1.690  13.600   3.946
16726SOL    HW152075   1.629  13.526   3.940
16726SOL    HW252076   1.757  13.581   3.880
16727SOL     OW52077   8.819  11.097  14.349
16727SOL    HW152078   8.891  11.044  14.380
16727SOL    HW252079   8.861  11.175  14.311
16728SOL     OW52080  12.179  13.131   9.478
16728SOL    HW152081  12.102  13.075   9.483
16728SOL    HW252082  12.184  13.173   9.564
16729SOL     OW52083  11.627  14.063   3.679
16729SOL    HW152084  11.552  14.117   3.705
16729SOL    HW252085  11.649  14.093   3.591
16730SOL     OW52086   9.506   7.988  10.421
16730SOL    HW152087   9.590   7.951  10.394
16730SOL    HW252088   9.443   7.919  10.401
16731SOL     OW52089   5.237  10.179   8.150
16731SOL    HW152090   5.163  10.210   8.202
16731SOL    HW252091   5.313  10.191   8.207
16732SOL     OW52092  13.066  11.063  11.673
16732SOL    HW152093  12.977  11.034  11.652
16732SOL    HW252094  13.070  11.058  11.769
16733SOL     OW52095  10.529   6.351   0.285
16733SOL    HW152096  10.578   6.425   0.319
16733SOL    HW252097  10.466   6.390   0.224
16734SOL     OW52098  14.350  14.556  11.082
16734SOL    HW152099  14.289  14.620  11.045
16734SOL    HW252100  14.408  14.608  11.138
16735SOL     OW52101   7.440   0.320   9.767
16735SOL    HW152102   7.480   0.352   9.848
16735SOL    HW252103   7.429   0.399   9.713
16736SOL     OW52104   6.762  11.573   9.174
16736SOL    HW152105   6.842  11.573   9.227
16736SOL    HW252106   6.737  11.481   9.168
16737SOL     OW52107   6.492   1.005   0.633
16737SOL    HW152108   6.405   0.979   0.663
16737SOL    HW252109   6.512   0.946   0.561
16738SOL     OW52110  12.757  14.018   0.477
16738SOL    HW152111  12.676  14.007   0.527
16738SOL    HW252112  12.824  13.973   0.528
16739SOL     OW52113  10.006   8.556   4.092
16739SOL    HW152114   9.959   8.504   4.157
16739SOL    HW252115  10.070   8.496   4.054
16740SOL     OW52116   1.383   2.183  14.616
16740SOL    HW152117   1.394   2.270  14.578
16740SOL    HW252118   1.350   2.129  14.545
16741SOL     OW52119   2.361   9.028  11.871
16741SOL    HW152120   2.344   9.122  11.866
16741SOL    HW252121   2.296   8.995  11.934
16742SOL     OW52122   6.959  10.427   7.682
16742SOL    HW152123   7.051  10.407   7.668
16742SOL    HW252124   6.936  10.486   7.610
16743SOL     OW52125   8.384   4.013   5.778
16743SOL    HW152126   8.411   3.936   5.727
16743SOL    HW252127   8.312   3.982   5.833
16744SOL     OW52128  12.292   0.649   1.307
16744SOL    HW152129  12.359   0.699   1.260
16744SOL    HW252130  12.223   0.713   1.324
16745SOL     OW52131   0.724   7.181   6.894
16745SOL    HW152132   0.634   7.180   6.926
16745SOL    HW252133   0.745   7.274   6.884
16746SOL     OW52134   9.152   7.864  11.102
16746SOL    HW152135   9.130   7.957  11.113
16746SOL    HW252136   9.093   7.834  11.033
16747SOL     OW52137  14.463  14.280  14.785
16747SOL    HW152138  14.428  14.194  14.807
16747SOL    HW252139  14.493  14.316  14.868
16748SOL     OW52140   2.311   5.779   5.909
16748SOL    HW152141   2.331   5.860   5.864
16748SOL    HW252142   2.316   5.800   6.002
16749SOL     OW52143   9.109  11.845   4.421
16749SOL    HW152144   9.136  11.837   4.512
16749SOL    HW252145   9.054  11.923   4.418
16750SOL     OW52146   4.497   8.048   8.110
16750SOL    HW152147   4.419   8.045   8.164
16750SOL    HW252148   4.529   7.957   8.108
16751SOL     OW52149  14.356  13.338  14.523
16751SOL    HW152150  14.389  13.289  14.448
16751SOL    HW252151  14.401  13.422  14.518
16752SOL     OW52152   8.156   4.096   4.386
16752SOL    HW152153   8.151   4.032   4.457
16752SOL    HW252154   8.121   4.050   4.309
16753SOL     OW52155  10.096   9.092   3.768
16753SOL    HW152156  10.130   9.148   3.837
16753SOL    HW252157  10.092   9.005   3.807
16754SOL     OW52158   0.506   0.842   4.492
16754SOL    HW152159   0.510   0.801   4.578
16754SOL    HW252160   0.582   0.806   4.445
16755SOL     OW52161   5.612   2.621   8.264
16755SOL    HW152162   5.563   2.679   8.205
16755SOL    HW252163   5.589   2.652   8.352
16756SOL     OW52164   9.614   0.839   4.791
16756SOL    HW152165   9.691   0.834   4.735
16756SOL    HW252166   9.648   0.831   4.880
16757SOL     OW52167   1.750  10.383   8.223
16757SOL    HW152168   1.733  10.472   8.254
16757SOL    HW252169   1.663  10.344   8.213
16758SOL     OW52170  10.738   6.800   2.001
16758SOL    HW152171  10.752   6.869   1.935
16758SOL    HW252172  10.802   6.819   2.069
16759SOL     OW52173  14.877   3.125   7.099
16759SOL    HW152174  14.846   3.037   7.078
16759SOL    HW252175  14.850   3.179   7.025
16760SOL     OW52176   7.877   0.671  10.943
16760SOL    HW152177   7.953   0.701  10.893
16760SOL    HW252178   7.891   0.576  10.950
16761SOL     OW52179  12.553  11.164   0.863
16761SOL    HW152180  12.627  11.173   0.922
16761SOL    HW252181  12.563  11.076   0.825
16762SOL     OW52182   6.552   6.960   6.862
16762SOL    HW152183   6.551   6.937   6.954
16762SOL    HW252184   6.461   6.947   6.833
16763SOL     OW52185   3.635   0.170  13.789
16763SOL    HW152186   3.565   0.196  13.848
16763SOL    HW252187   3.604   0.192  13.701
16764SOL     OW52188   6.624   4.440   7.746
16764SOL    HW152189   6.547   4.460   7.798
16764SOL    HW252190   6.592   4.381   7.678
16765SOL     OW52191   8.689   0.347  10.366
16765SOL    HW152192   8.765   0.290  10.377
16765SOL    HW252193   8.625   0.314  10.429
16766SOL     OW52194   1.297   1.836   7.827
16766SOL    HW152195   1.202   1.827   7.835
16766SOL    HW252196   1.312   1.857   7.735
16767SOL     OW52197   1.403   0.708   7.016
16767SOL    HW152198   1.350   0.758   6.955
16767SOL    HW252199   1.445   0.640   6.963
16768SOL     OW52200   8.609   8.297  11.859
16768SOL    HW152201   8.623   8.390  11.881
16768SOL    HW252202   8.696   8.258  11.868
16769SOL     OW52203   9.674  10.712   5.783
16769SOL    HW152204   9.654  10.804   5.765
16769SOL    HW252205   9.765  10.702   5.756
16770SOL     OW52206   6.630  13.631  14.017
16770SOL    HW152207   6.615  13.718  14.056
16770SOL    HW252208   6.562  13.576  14.056
16771SOL     OW52209   0.929  13.106   6.033
16771SOL    HW152210   0.921  13.128   6.126
16771SOL    HW252211   0.927  13.191   5.989
16772SOL     OW52212   7.779   6.378  13.667
16772SOL    HW152213   7.745   6.343  13.750
16772SOL    HW252214   7.770   6.306  13.605
16773SOL     OW52215   2.289   2.429   0.751
16773SOL    HW152216   2.241   2.398   0.674
16773SOL    HW252217   2.275   2.361   0.817
16774SOL     OW52218   7.154   7.203  13.691
16774SOL    HW152219   7.187   7.292  13.683
16774SOL    HW252220   7.062   7.214  13.715
16775SOL     OW52221   3.983  10.541   9.083
16775SOL    HW152222   4.043  10.534   9.157
16775SOL    HW252223   3.897  10.553   9.124
16776SOL     OW52224   6.669   6.081  14.607
16776SOL    HW152225   6.708   6.127  14.682
16776SOL    HW252226   6.659   6.149  14.541
16777SOL     OW52227   0.200   2.486   0.299
16777SOL    HW152228   0.141   2.457   0.368
16777SOL    HW252229   0.287   2.475   0.335
16778SOL     OW52230   4.002  13.853   8.980
16778SOL    HW152231   3.936  13.785   8.997
16778SOL    HW252232   4.074  13.807   8.938
16779SOL     OW52233   3.224   2.338   2.223
16779SOL    HW152234   3.175   2.331   2.304
16779SOL    HW252235   3.230   2.248   2.190
16780SOL     OW52236   4.113   1.514  11.516
16780SOL    HW152237   4.036   1.464  11.488
16780SOL    HW252238   4.131   1.572  11.442
16781SOL     OW52239  14.406   7.674   3.541
16781SOL    HW152240  14.383   7.675   3.448
16781SOL    HW252241  14.403   7.582   3.566
16782SOL     OW52242   9.736   2.367  13.542
16782SOL    HW152243   9.799   2.412  13.485
16782SOL    HW252244   9.765   2.275  13.541
16783SOL     OW52245   5.814  11.905   1.555
16783SOL    HW152246   5.737  11.899   1.613
16783SOL    HW252247   5.883  11.858   1.602
16784SOL     OW52248   9.751   5.014   2.305
16784SOL    HW152249   9.776   5.067   2.381
16784SOL    HW252250   9.775   4.924   2.330
16785SOL     OW52251  11.851   5.324   0.617
16785SOL    HW152252  11.798   5.395   0.651
16785SOL    HW252253  11.798   5.286   0.547
16786SOL     OW52254   7.958   3.768   9.898
16786SOL    HW152255   7.950   3.673   9.897
16786SOL    HW252256   7.945   3.795   9.807
16787SOL     OW52257   5.838   5.387   7.804
16787SOL    HW152258   5.771   5.444   7.766
16787SOL    HW252259   5.806   5.367   7.892
16788SOL     OW52260  13.769   0.689  12.628
16788SOL    HW152261  13.861   0.686  12.652
16788SOL    HW252262  13.768   0.679  12.533
16789SOL     OW52263   6.823   1.660   9.017
16789SOL    HW152264   6.812   1.754   9.032
16789SOL    HW252265   6.905   1.639   9.062
16790SOL     OW52266  10.225   8.519   1.270
16790SOL    HW152267  10.255   8.447   1.214
16790SOL    HW252268  10.286   8.517   1.345
16791SOL     OW52269   6.534  12.438  11.732
16791SOL    HW152270   6.456  12.487  11.704
16791SOL    HW252271   6.503  12.382  11.803
16792SOL     OW52272   3.737  11.593  10.071
16792SOL    HW152273   3.716  11.519  10.015
16792SOL    HW252274   3.832  11.589  10.082
16793SOL     OW52275  12.975  11.182   7.947
16793SOL    HW152276  13.040  11.199   7.879
16793SOL    HW252277  12.922  11.262   7.950
16794SOL     OW52278  13.524  11.528  11.592
16794SOL    HW152279  13.469  11.605  11.604
16794SOL    HW252280  13.564  11.540  11.505
16795SOL     OW52281   3.590   0.800   6.122
16795SOL    HW152282   3.556   0.713   6.144
16795SOL    HW252283   3.602   0.843   6.207
16796SOL     OW52284  11.347   7.617  10.196
16796SOL    HW152285  11.320   7.671  10.122
16796SOL    HW252286  11.402   7.675  10.249
16797SOL     OW52287   4.724  14.385   4.908
16797SOL    HW152288   4.651  14.429   4.950
16797SOL    HW252289   4.684  14.316   4.855
16798SOL     OW52290  14.743   8.699  13.562
16798SOL    HW152291  14.694   8.624  13.529
16798SOL    HW252292  14.703   8.774  13.518
16799SOL     OW52293  10.187   9.522   9.303
16799SOL    HW152294  10.127   9.593   9.325
16799SOL    HW252295  10.274   9.560   9.314
16800SOL     OW52296  10.540  11.374  13.199
16800SOL    HW152297  10.522  11.456  13.153
16800SOL    HW252298  10.504  11.387  13.286
16801SOL     OW52299   6.918   2.893  10.449
16801SOL    HW152300   7.005   2.862  10.423
16801SOL    HW252301   6.934   2.979  10.487
16802SOL     OW52302   0.292  12.209   7.812
16802SOL    HW152303   0.285  12.304   7.807
16802SOL    HW252304   0.386  12.192   7.809
16803SOL     OW52305   6.318  10.067   4.120
16803SOL    HW152306   6.336   9.994   4.178
16803SOL    HW252307   6.283  10.027   4.040
16804SOL     OW52308  11.415   2.597   8.460
16804SOL    HW152309  11.455   2.620   8.544
16804SOL    HW252310  11.421   2.501   8.457
16805SOL     OW52311   8.085   4.159  11.625
16805SOL    HW152312   8.162   4.116  11.588
16805SOL    HW252313   8.098   4.154  11.720
16806SOL     OW52314  10.512   5.741   2.908
16806SOL    HW152315  10.477   5.770   2.824
16806SOL    HW252316  10.516   5.820   2.961
16807SOL     OW52317   7.458   9.169  12.710
16807SOL    HW152318   7.430   9.208  12.794
16807SOL    HW252319   7.541   9.211  12.691
16808SOL     OW52320   1.127   4.187   7.809
16808SOL    HW152321   1.148   4.109   7.758
16808SOL    HW252322   1.047   4.163   7.857
16809SOL     OW52323  13.729   7.178  12.672
16809SOL    HW152324  13.674   7.220  12.605
16809SOL    HW252325  13.790   7.246  12.700
16810SOL     OW52326  10.532   2.346   1.234
16810SOL    HW152327  10.571   2.290   1.167
16810SOL    HW252328  10.580   2.429   1.227
16811SOL     OW52329  11.241   7.439   6.121
16811SOL    HW152330  11.327   7.420   6.084
16811SOL    HW252331  11.183   7.371   6.087
16812SOL     OW52332  12.648   3.610   4.610
16812SOL    HW152333  12.685   3.659   4.683
16812SOL    HW252334  12.584   3.670   4.571
16813SOL     OW52335  14.557   0.924   3.451
16813SOL    HW152336  14.495   0.983   3.493
16813SOL    HW252337  14.621   0.904   3.519
16814SOL     OW52338  14.605  14.860   0.724
16814SOL    HW152339  14.651  14.784   0.687
16814SOL    HW252340  14.665   0.014   0.790
16815SOL     OW52341   6.768   6.902  12.146
16815SOL    HW152342   6.735   6.991  12.132
16815SOL    HW252343   6.855   6.902  12.107
16816SOL     OW52344   4.851  13.807   7.602
16816SOL    HW152345   4.839  13.712   7.599
16816SOL    HW252346   4.944  13.821   7.587
16817SOL     OW52347   8.895  14.485   3.223
16817SOL    HW152348   8.861  14.501   3.310
16817SOL    HW252349   8.872  14.563   3.173
16818SOL     OW52350   7.093  11.719   9.596
16818SOL    HW152351   7.024  11.764   9.644
16818SOL    HW252352   7.119  11.647   9.654
16819SOL     OW52353   7.551   6.141  12.277
16819SOL    HW152354   7.487   6.164  12.210
16819SOL    HW252355   7.538   6.206  12.347
16820SOL     OW52356   5.713   2.678   2.016
16820SOL    HW152357   5.738   2.751   2.073
16820SOL    HW252358   5.690   2.607   2.076
16821SOL     OW52359   7.615  11.241   4.912
16821SOL    HW152360   7.653  11.317   4.956
16821SOL    HW252361   7.534  11.274   4.873
16822SOL     OW52362   6.458   4.408   8.484
16822SOL    HW152363   6.431   4.499   8.499
16822SOL    HW252364   6.413   4.358   8.553
16823SOL     OW52365   9.397   8.946  11.096
16823SOL    HW152366   9.463   8.923  11.031
16823SOL    HW252367   9.444   8.944  11.179
16824SOL     OW52368   1.461   7.438  13.207
16824SOL    HW152369   1.536   7.398  13.162
16824SOL    HW252370   1.500   7.487  13.280
16825SOL     OW52371  11.390   7.128   2.332
16825SOL    HW152372  11.343   7.165   2.406
16825SOL    HW252373  11.439   7.054   2.369
16826SOL     OW52374   4.171  12.503  11.675
16826SOL    HW152375   4.244  12.472  11.729
16826SOL    HW252376   4.145  12.585  11.717
16827SOL     OW52377  14.155  11.607  11.978
16827SOL    HW152378  14.214  11.542  11.941
16827SOL    HW252379  14.108  11.643  11.903
16828SOL     OW52380  13.307   0.582   7.020
16828SOL    HW152381  13.354   0.640   7.080
16828SOL    HW252382  13.351   0.497   7.029
16829SOL     OW52383   2.830   3.467   7.023
16829SOL    HW152384   2.751   3.457   6.970
16829SOL    HW252385   2.829   3.392   7.082
16830SOL     OW52386  13.759  12.114   8.412
16830SOL    HW152387  13.831  12.079   8.359
16830SOL    HW252388  13.754  12.054   8.487
16831SOL     OW52389  10.352   9.380   0.626
16831SOL    HW152390  10.319   9.463   0.661
16831SOL    HW252391  10.278   9.344   0.577
16832SOL     OW52392   2.702   2.822   0.470
16832SOL    HW152393   2.731   2.870   0.392
16832SOL    HW252394   2.726   2.878   0.543
16833SOL     OW52395   5.237   4.785  14.039
16833SOL    HW152396   5.167   4.744  13.989
16833SOL    HW252397   5.311   4.725  14.030
16834SOL     OW52398   6.128  13.767   4.439
16834SOL    HW152399   6.084  13.760   4.354
16834SOL    HW252400   6.198  13.702   4.435
16835SOL     OW52401   5.008   4.713   1.723
16835SOL    HW152402   5.069   4.778   1.688
16835SOL    HW252403   4.960   4.682   1.645
16836SOL     OW52404   6.551  14.135   7.643
16836SOL    HW152405   6.543  14.226   7.673
16836SOL    HW252406   6.638  14.108   7.673
16837SOL     OW52407  14.012   8.768   8.111
16837SOL    HW152408  13.961   8.689   8.124
16837SOL    HW252409  14.063   8.751   8.032
16838SOL     OW52410  11.096  11.966  14.102
16838SOL    HW152411  11.087  11.945  14.195
16838SOL    HW252412  11.183  12.004  14.094
16839SOL     OW52413   8.584   3.447   6.422
16839SOL    HW152414   8.674   3.426   6.398
16839SOL    HW252415   8.535   3.442   6.340
16840SOL     OW52416   8.855  11.231  11.585
16840SOL    HW152417   8.870  11.323  11.563
16840SOL    HW252418   8.763  11.216  11.565
16841SOL     OW52419   0.637  12.637   5.587
16841SOL    HW152420   0.650  12.716   5.640
16841SOL    HW252421   0.645  12.667   5.497
16842SOL     OW52422  10.969   9.142   7.320
16842SOL    HW152423  10.881   9.179   7.319
16842SOL    HW252424  11.016   9.192   7.387
16843SOL     OW52425  12.120   5.901   4.557
16843SOL    HW152426  12.061   5.836   4.595
16843SOL    HW252427  12.140   5.960   4.630
16844SOL     OW52428  12.554   5.191  11.271
16844SOL    HW152429  12.562   5.208  11.365
16844SOL    HW252430  12.519   5.272  11.234
16845SOL     OW52431   5.918   4.631  10.960
16845SOL    HW152432   5.944   4.723  10.960
16845SOL    HW252433   5.829   4.631  10.924
16846SOL     OW52434  13.106  12.040   2.537
16846SOL    HW152435  13.017  12.007   2.551
16846SOL    HW252436  13.094  12.117   2.481
16847SOL     OW52437   5.078   3.200  11.538
16847SOL    HW152438   5.061   3.268  11.603
16847SOL    HW252439   5.102   3.123  11.590
16848SOL     OW52440   8.025   3.810   1.901
16848SOL    HW152441   8.044   3.721   1.933
16848SOL    HW252442   8.045   3.867   1.975
16849SOL     OW52443   1.903   1.681  12.739
16849SOL    HW152444   1.852   1.636  12.671
16849SOL    HW252445   1.843   1.749  12.772
16850SOL     OW52446   7.620   1.483   0.058
16850SOL    HW152447   7.620   1.388   0.056
16850SOL    HW252448   7.540   1.506   0.106
16851SOL     OW52449   2.103   8.196  11.377
16851SOL    HW152450   2.022   8.187  11.426
16851SOL    HW252451   2.084   8.158  11.291
16852SOL     OW52452   5.326   8.269  12.110
16852SOL    HW152453   5.382   8.223  12.048
16852SOL    HW252454   5.255   8.305  12.057
16853SOL     OW52455  12.275   8.248  14.256
16853SOL    HW152456  12.211   8.284  14.317
16853SOL    HW252457  12.358   8.288  14.282
16854SOL     OW52458   2.899  12.204   3.531
16854SOL    HW152459   2.827  12.214   3.468
16854SOL    HW252460   2.951  12.284   3.519
16855SOL     OW52461   1.311  12.391   1.668
16855SOL    HW152462   1.326  12.474   1.623
16855SOL    HW252463   1.387  12.337   1.645
16856SOL     OW52464  14.409   8.886  12.600
16856SOL    HW152465  14.396   8.798  12.567
16856SOL    HW252466  14.502   8.904  12.585
16857SOL     OW52467   2.807   1.768   9.873
16857SOL    HW152468   2.769   1.742   9.957
16857SOL    HW252469   2.867   1.839   9.895
16858SOL     OW52470   1.162  10.184  11.936
16858SOL    HW152471   1.212  10.110  11.972
16858SOL    HW252472   1.227  10.239  11.893
16859SOL     OW52473   4.114  14.390   0.883
16859SOL    HW152474   4.122  14.360   0.973
16859SOL    HW252475   4.044  14.456   0.886
16860SOL     OW52476   7.319   5.279  13.407
16860SOL    HW152477   7.373   5.357  13.396
16860SOL    HW252478   7.378   5.215  13.447
16861SOL     OW52479   6.387   9.844   4.256
16861SOL    HW152480   6.382   9.842   4.351
16861SOL    HW252481   6.448   9.774   4.233
16862SOL     OW52482   3.041   0.836   7.409
16862SOL    HW152483   3.116   0.834   7.350
16862SOL    HW252484   3.060   0.906   7.471
16863SOL     OW52485   2.996  13.946  14.841
16863SOL    HW152486   2.979  13.987  14.756
16863SOL    HW252487   2.942  13.996   0.022
16864SOL     OW52488   8.766   8.889  13.724
16864SOL    HW152489   8.859   8.908  13.726
16864SOL    HW252490   8.725   8.972  13.701
16865SOL     OW52491   2.323   6.646  11.699
16865SOL    HW152492   2.352   6.556  11.689
16865SOL    HW252493   2.268   6.662  11.622
16866SOL     OW52494   9.546  13.021   6.482
16866SOL    HW152495   9.533  12.981   6.568
16866SOL    HW252496   9.466  13.071   6.467
16867SOL     OW52497  12.161   1.574   1.354
16867SOL    HW152498  12.224   1.526   1.300
16867SOL    HW252499  12.215   1.623   1.415
16868SOL     OW52500   4.821   2.480   3.885
16868SOL    HW152501   4.763   2.416   3.927
16868SOL    HW252502   4.775   2.564   3.894
16869SOL     OW52503   1.878   9.143   1.043
16869SOL    HW152504   1.919   9.142   1.129
16869SOL    HW252505   1.893   9.231   1.010
16870SOL     OW52506   1.153   3.007   7.536
16870SOL    HW152507   1.117   3.090   7.502
16870SOL    HW252508   1.130   3.008   7.629
16871SOL     OW52509   9.673   8.726   6.860
16871SOL    HW152510   9.686   8.704   6.767
16871SOL    HW252511   9.599   8.671   6.887
16872SOL     OW52512   9.766   3.932   6.048
16872SOL    HW152513   9.728   3.976   5.972
16872SOL    HW252514   9.736   3.841   6.039
16873SOL     OW52515   5.640   9.161   4.045
16873SOL    HW152516   5.646   9.134   3.953
16873SOL    HW252517   5.546   9.155   4.066
16874SOL     OW52518   3.090   5.993   7.645
16874SOL    HW152519   3.048   5.988   7.731
16874SOL    HW252520   3.030   6.046   7.592
16875SOL     OW52521   6.336   8.013  10.108
16875SOL    HW152522   6.306   7.969  10.188
16875SOL    HW252523   6.369   7.943  10.053
16876SOL     OW52524  14.008   5.927   7.112
16876SOL    HW152525  14.028   6.019   7.128
16876SOL    HW252526  13.926   5.928   7.063
16877SOL     OW52527   6.096  12.182   8.210
16877SOL    HW152528   6.038  12.248   8.247
16877SOL    HW252529   6.136  12.223   8.133
16878SOL     OW52530   7.993  10.266  10.594
16878SOL    HW152531   7.906  10.279  10.555
16878SOL    HW252532   8.023  10.182  10.559
16879SOL     OW52533   6.978   3.917  11.547
16879SOL    HW152534   6.919   3.949  11.479
16879SOL    HW252535   6.923   3.910  11.626
16880SOL     OW52536  11.358   5.788   0.996
16880SOL    HW152537  11.415   5.743   1.057
16880SOL    HW252538  11.415   5.851   0.951
16881SOL     OW52539   7.804   6.407   4.025
16881SOL    HW152540   7.873   6.415   4.090
16881SOL    HW252541   7.842   6.440   3.943
16882SOL     OW52542   9.003   1.341   9.245
16882SOL    HW152543   8.935   1.335   9.313
16882SOL    HW252544   8.955   1.363   9.165
16883SOL     OW52545  12.078  12.352  10.915
16883SOL    HW152546  12.170  12.328  10.904
16883SOL    HW252547  12.033  12.270  10.932
16884SOL     OW52548   0.173   5.602   4.817
16884SOL    HW152549   0.127   5.602   4.901
16884SOL    HW252550   0.104   5.610   4.752
16885SOL     OW52551  14.713   7.686   6.451
16885SOL    HW152552  14.687   7.736   6.528
16885SOL    HW252553  14.713   7.595   6.479
16886SOL     OW52554  10.399  14.617   6.188
16886SOL    HW152555  10.441  14.601   6.103
16886SOL    HW252556  10.414  14.710   6.205
16887SOL     OW52557   7.454   9.553  14.678
16887SOL    HW152558   7.494   9.506  14.604
16887SOL    HW252559   7.391   9.491  14.714
16888SOL     OW52560   7.733   1.874   3.939
16888SOL    HW152561   7.714   1.899   4.030
16888SOL    HW252562   7.756   1.957   3.896
16889SOL     OW52563  11.241   8.796   7.554
16889SOL    HW152564  11.268   8.706   7.534
16889SOL    HW252565  11.175   8.817   7.488
16890SOL     OW52566  13.334   3.578  11.958
16890SOL    HW152567  13.259   3.607  11.905
16890SOL    HW252568  13.302   3.500  12.003
16891SOL     OW52569  11.536   0.622   3.377
16891SOL    HW152570  11.484   0.702   3.387
16891SOL    HW252571  11.553   0.593   3.467
16892SOL     OW52572   2.040   5.173  12.456
16892SOL    HW152573   2.081   5.113  12.393
16892SOL    HW252574   2.111   5.230  12.484
16893SOL     OW52575   9.867  10.039   7.749
16893SOL    HW152576   9.854  10.091   7.828
16893SOL    HW252577   9.914   9.961   7.779
16894SOL     OW52578   3.713   6.277   6.069
16894SOL    HW152579   3.678   6.273   6.158
16894SOL    HW252580   3.640   6.251   6.014
16895SOL     OW52581   4.118   6.813  13.162
16895SOL    HW152582   4.108   6.898  13.120
16895SOL    HW252583   4.200   6.820  13.211
16896SOL     OW52584  11.567  13.269   9.445
16896SOL    HW152585  11.561  13.276   9.541
16896SOL    HW252586  11.481  13.236   9.419
16897SOL     OW52587   5.675  13.546  10.983
16897SOL    HW152588   5.620  13.511  11.053
16897SOL    HW252589   5.626  13.528  10.903
16898SOL     OW52590  10.694   5.269   2.930
16898SOL    HW152591  10.615   5.249   2.880
16898SOL    HW252592  10.708   5.363   2.916
16899SOL     OW52593   0.694   5.500   4.925
16899SOL    HW152594   0.642   5.579   4.918
16899SOL    HW252595   0.728   5.501   5.015
16900SOL     OW52596   0.956  10.543  13.849
16900SOL    HW152597   0.994  10.626  13.818
16900SOL    HW252598   0.861  10.557  13.844
16901SOL     OW52599  10.792   6.919  14.235
16901SOL    HW152600  10.776   6.826  14.248
16901SOL    HW252601  10.796   6.956  14.324
16902SOL     OW52602  10.535   4.764  13.853
16902SOL    HW152603  10.499   4.735  13.770
16902SOL    HW252604  10.625   4.792  13.832
16903SOL     OW52605   2.436   9.037   8.582
16903SOL    HW152606   2.416   9.130   8.566
16903SOL    HW252607   2.532   9.032   8.576
16904SOL     OW52608   7.900   2.648  12.391
16904SOL    HW152609   7.939   2.615  12.309
16904SOL    HW252610   7.948   2.729  12.409
16905SOL     OW52611   9.868  14.170  12.966
16905SOL    HW152612   9.957  14.204  12.978
16905SOL    HW252613   9.820  14.244  12.927
16906SOL     OW52614  11.400   8.375   4.032
16906SOL    HW152615  11.304   8.369   4.039
16906SOL    HW252616  11.419   8.350   3.941
16907SOL     OW52617   7.509   9.077   1.329
16907SOL    HW152618   7.505   9.159   1.279
16907SOL    HW252619   7.513   9.105   1.420
16908SOL     OW52620  10.932   2.548   6.353
16908SOL    HW152621  10.967   2.519   6.437
16908SOL    HW252622  10.865   2.483   6.331
16909SOL     OW52623   1.520   2.547   6.217
16909SOL    HW152624   1.528   2.634   6.256
16909SOL    HW252625   1.609   2.512   6.218
16910SOL     OW52626  12.873   1.935   4.516
16910SOL    HW152627  12.951   1.962   4.468
16910SOL    HW252628  12.857   1.845   4.487
16911SOL     OW52629   1.339   7.439   8.223
16911SOL    HW152630   1.318   7.464   8.133
16911SOL    HW252631   1.355   7.345   8.218
16912SOL     OW52632   2.607   2.281  12.985
16912SOL    HW152633   2.534   2.226  12.954
16912SOL    HW252634   2.581   2.370  12.962
16913SOL     OW52635  11.731   7.027   9.728
16913SOL    HW152636  11.758   7.050   9.639
16913SOL    HW252637  11.676   6.950   9.717
16914SOL     OW52638   5.906   4.138   7.265
16914SOL    HW152639   5.834   4.193   7.296
16914SOL    HW252640   5.949   4.107   7.345
16915SOL     OW52641   4.699   0.089   0.008
16915SOL    HW152642   4.735   0.034  14.819
16915SOL    HW252643   4.776   0.125   0.053
16916SOL     OW52644  12.079   0.134   7.267
16916SOL    HW152645  12.094   0.154   7.360
16916SOL    HW252646  12.163   0.105   7.234
16917SOL     OW52647   7.526   9.852   7.251
16917SOL    HW152648   7.507   9.811   7.336
16917SOL    HW252649   7.460   9.815   7.192
16918SOL     OW52650   1.869  12.886  14.729
16918SOL    HW152651   1.900  12.799  14.705
16918SOL    HW252652   1.811  12.912  14.657
16919SOL     OW52653  14.224  12.325  10.340
16919SOL    HW152654  14.226  12.298  10.248
16919SOL    HW252655  14.305  12.289  10.376
16920SOL     OW52656  13.356   8.495   3.057
16920SOL    HW152657  13.447   8.463   3.055
16920SOL    HW252658  13.303   8.415   3.057
16921SOL     OW52659  10.227  13.662   7.217
16921SOL    HW152660  10.246  13.634   7.127
16921SOL    HW252661  10.257  13.753   7.221
16922SOL     OW52662   2.615  14.232   3.800
16922SOL    HW152663   2.598  14.280   3.881
16922SOL    HW252664   2.697  14.270   3.767
16923SOL     OW52665   0.674   7.539   2.849
16923SOL    HW152666   0.722   7.463   2.881
16923SOL    HW252667   0.659   7.593   2.927
16924SOL     OW52668  13.431   0.993   7.118
16924SOL    HW152669  13.405   0.929   7.052
16924SOL    HW252670  13.486   1.055   7.071
16925SOL     OW52671  12.800   2.151   4.940
16925SOL    HW152672  12.787   2.177   4.849
16925SOL    HW252673  12.828   2.060   4.935
16926SOL     OW52674   1.698   7.938   1.079
16926SOL    HW152675   1.687   8.031   1.098
16926SOL    HW252676   1.784   7.931   1.039
16927SOL     OW52677  13.272   1.604   4.779
16927SOL    HW152678  13.345   1.649   4.736
16927SOL    HW252679  13.294   1.607   4.872
16928SOL     OW52680   7.043   9.025   2.585
16928SOL    HW152681   6.995   8.942   2.583
16928SOL    HW252682   6.984   9.087   2.541
16929SOL     OW52683   3.875   0.700   4.373
16929SOL    HW152684   3.941   0.665   4.313
16929SOL    HW252685   3.904   0.790   4.390
16930SOL     OW52686   4.209   9.274   7.707
16930SOL    HW152687   4.219   9.266   7.613
16930SOL    HW252688   4.257   9.200   7.743
16931SOL     OW52689  10.620   8.572   1.513
16931SOL    HW152690  10.532   8.534   1.511
16931SOL    HW252691  10.664   8.527   1.585
16932SOL     OW52692  11.026   5.837   9.474
16932SOL    HW152693  10.936   5.836   9.506
16932SOL    HW252694  11.078   5.856   9.552
16933SOL     OW52695   9.772   6.223   0.958
16933SOL    HW152696   9.727   6.237   0.874
16933SOL    HW252697   9.834   6.295   0.964
16934SOL     OW52698   4.297  12.119   3.883
16934SOL    HW152699   4.306  12.078   3.797
16934SOL    HW252700   4.384  12.149   3.905
16935SOL     OW52701   6.151   2.342  11.866
16935SOL    HW152702   6.109   2.403  11.927
16935SOL    HW252703   6.092   2.267  11.864
16936SOL     OW52704   8.290   6.142  10.006
16936SOL    HW152705   8.362   6.122   9.947
16936SOL    HW252706   8.232   6.198   9.955
16937SOL     OW52707   9.746   3.912   2.156
16937SOL    HW152708   9.663   3.887   2.195
16937SOL    HW252709   9.750   4.007   2.166
16938SOL     OW52710   8.587  12.381   0.796
16938SOL    HW152711   8.507  12.410   0.752
16938SOL    HW252712   8.649  12.452   0.781
16939SOL     OW52713   7.332   3.610   3.539
16939SOL    HW152714   7.293   3.698   3.542
16939SOL    HW252715   7.313   3.578   3.451
16940SOL     OW52716  14.504   4.253   0.819
16940SOL    HW152717  14.548   4.229   0.738
16940SOL    HW252718  14.559   4.217   0.888
16941SOL     OW52719   8.836  13.831   9.445
16941SOL    HW152720   8.748  13.800   9.464
16941SOL    HW252721   8.893  13.756   9.464
16942SOL     OW52722  14.824   8.924   8.088
16942SOL    HW152723  14.845   8.833   8.112
16942SOL    HW252724  14.760   8.915   8.017
16943SOL     OW52725  14.055   5.471  11.609
16943SOL    HW152726  13.969   5.436  11.587
16943SOL    HW252727  14.113   5.438  11.540
16944SOL     OW52728  14.151   2.711   5.311
16944SOL    HW152729  14.217   2.756   5.258
16944SOL    HW252730  14.185   2.622   5.320
16945SOL     OW52731   1.070  11.765  10.120
16945SOL    HW152732   1.037  11.739  10.034
16945SOL    HW252733   1.039  11.855  10.131
16946SOL     OW52734   6.118   5.756   1.490
16946SOL    HW152735   6.141   5.820   1.557
16946SOL    HW252736   6.029   5.729   1.511
16947SOL     OW52737   9.510   1.879   5.623
16947SOL    HW152738   9.584   1.924   5.665
16947SOL    HW252739   9.537   1.787   5.619
16948SOL     OW52740   0.542   4.762   8.857
16948SOL    HW152741   0.552   4.749   8.762
16948SOL    HW252742   0.530   4.673   8.891
16949SOL     OW52743   7.835  11.315   6.715
16949SOL    HW152744   7.922  11.348   6.734
16949SOL    HW252745   7.776  11.368   6.768
16950SOL     OW52746   7.769   5.320   7.534
16950SOL    HW152747   7.770   5.322   7.630
16950SOL    HW252748   7.727   5.237   7.513
16951SOL     OW52749   9.540   6.774   1.927
16951SOL    HW152750   9.633   6.784   1.907
16951SOL    HW252751   9.537   6.755   2.021
16952SOL     OW52752   7.541   7.598   9.972
16952SOL    HW152753   7.522   7.669  10.034
16952SOL    HW252754   7.553   7.521  10.028
16953SOL     OW52755   8.994   9.673  13.324
16953SOL    HW152756   9.025   9.661  13.234
16953SOL    HW252757   9.063   9.635  13.378
16954SOL     OW52758  14.426   2.580   4.229
16954SOL    HW152759  14.336   2.576   4.260
16954SOL    HW252760  14.476   2.530   4.293
16955SOL     OW52761   7.684   7.947   0.869
16955SOL    HW152762   7.699   7.861   0.829
16955SOL    HW252763   7.771   7.983   0.882
16956SOL     OW52764   1.471   2.263  13.303
16956SOL    HW152765   1.522   2.249  13.223
16956SOL    HW252766   1.495   2.350  13.332
16957SOL     OW52767   4.453   8.392  11.022
16957SOL    HW152768   4.497   8.448  10.958
16957SOL    HW252769   4.374   8.360  10.976
16958SOL     OW52770   6.083   8.573   8.518
16958SOL    HW152771   6.043   8.525   8.445
16958SOL    HW252772   6.051   8.529   8.596
16959SOL     OW52773   8.274   8.282   2.448
16959SOL    HW152774   8.364   8.304   2.469
16959SOL    HW252775   8.259   8.322   2.362
16960SOL     OW52776  10.223   5.688   9.645
16960SOL    HW152777  10.247   5.675   9.737
16960SOL    HW252778  10.304   5.714   9.602
16961SOL     OW52779   6.451   1.959  11.859
16961SOL    HW152780   6.488   1.945  11.946
16961SOL    HW252781   6.402   2.041  11.866
16962SOL     OW52782  13.658   2.174   1.451
16962SOL    HW152783  13.611   2.246   1.493
16962SOL    HW252784  13.734   2.216   1.410
16963SOL     OW52785   9.397  10.938  11.840
16963SOL    HW152786   9.373  10.926  11.748
16963SOL    HW252787   9.434  11.026  11.844
16964SOL     OW52788   4.053   0.190   1.872
16964SOL    HW152789   4.073   0.124   1.939
16964SOL    HW252790   3.966   0.222   1.896
16965SOL     OW52791   6.479   5.983   9.071
16965SOL    HW152792   6.400   5.951   9.026
16965SOL    HW252793   6.544   5.992   9.002
16966SOL     OW52794   4.173   8.959  10.899
16966SOL    HW152795   4.228   8.903  10.953
16966SOL    HW252796   4.141   8.902  10.829
16967SOL     OW52797  12.821  10.581   5.772
16967SOL    HW152798  12.803  10.566   5.865
16967SOL    HW252799  12.911  10.551   5.760
16968SOL     OW52800  10.224   2.428  12.690
16968SOL    HW152801  10.292   2.371  12.654
16968SOL    HW252802  10.270   2.509  12.712
16969SOL     OW52803  13.378  12.200   9.597
16969SOL    HW152804  13.437  12.264   9.638
16969SOL    HW252805  13.427  12.168   9.522
16970SOL     OW52806   7.550   8.507   4.157
16970SOL    HW152807   7.488   8.442   4.190
16970SOL    HW252808   7.496   8.571   4.112
16971SOL     OW52809  14.263  10.254  12.123
16971SOL    HW152810  14.349  10.295  12.131
16971SOL    HW252811  14.255  10.202  12.203
16972SOL     OW52812   9.207  10.814   9.210
16972SOL    HW152813   9.248  10.865   9.279
16972SOL    HW252814   9.114  10.812   9.234
16973SOL     OW52815   6.637   4.499   2.920
16973SOL    HW152816   6.673   4.561   2.983
16973SOL    HW252817   6.553   4.538   2.893
16974SOL     OW52818   3.881  11.094  10.815
16974SOL    HW152819   3.971  11.061  10.818
16974SOL    HW252820   3.859  11.095  10.722
16975SOL     OW52821  12.176   2.941   2.722
16975SOL    HW152822  12.140   2.868   2.773
16975SOL    HW252823  12.136   3.019   2.762
16976SOL     OW52824  14.839  14.244   5.119
16976SOL    HW152825  14.821  14.163   5.072
16976SOL    HW252826   0.051  14.262   5.102
16977SOL     OW52827  12.471   2.591   2.205
16977SOL    HW152828  12.434   2.679   2.210
16977SOL    HW252829  12.554   2.603   2.157
16978SOL     OW52830   8.879   1.801  12.992
16978SOL    HW152831   8.950   1.826  13.051
16978SOL    HW252832   8.869   1.707  13.005
16979SOL     OW52833   7.253   1.982   2.371
16979SOL    HW152834   7.260   1.895   2.333
16979SOL    HW252835   7.340   2.002   2.403
16980SOL     OW52836   3.597   9.532   9.737
16980SOL    HW152837   3.608   9.622   9.705
16980SOL    HW252838   3.516   9.535   9.788
16981SOL     OW52839   6.495   7.073   7.989
16981SOL    HW152840   6.425   7.137   7.977
16981SOL    HW252841   6.486   7.014   7.914
16982SOL     OW52842   5.611   4.490   0.647
16982SOL    HW152843   5.527   4.449   0.628
16982SOL    HW252844   5.588   4.569   0.695
16983SOL     OW52845   8.686   8.256   0.721
16983SOL    HW152846   8.775   8.290   0.722
16983SOL    HW252847   8.640   8.304   0.790
16984SOL     OW52848   4.488  11.829   6.068
16984SOL    HW152849   4.528  11.868   5.990
16984SOL    HW252850   4.403  11.873   6.076
16985SOL     OW52851   0.704   2.545  10.595
16985SOL    HW152852   0.747   2.503  10.670
16985SOL    HW252853   0.630   2.592  10.634
16986SOL     OW52854   5.550  10.757   3.909
16986SOL    HW152855   5.591  10.766   3.823
16986SOL    HW252856   5.605  10.695   3.956
16987SOL     OW52857   0.297   4.545  12.025
16987SOL    HW152858   0.325   4.608  11.959
16987SOL    HW252859   0.353   4.564  12.101
16988SOL     OW52860   1.493  11.362  11.029
16988SOL    HW152861   1.399  11.346  11.029
16988SOL    HW252862   1.522  11.339  11.118
16989SOL     OW52863   8.649   3.945   2.086
16989SOL    HW152864   8.643   3.923   2.179
16989SOL    HW252865   8.560   3.964   2.059
16990SOL     OW52866   8.439   8.419   1.854
16990SOL    HW152867   8.389   8.374   1.785
16990SOL    HW252868   8.406   8.382   1.936
16991SOL     OW52869   1.730  14.163   5.410
16991SOL    HW152870   1.722  14.068   5.422
16991SOL    HW252871   1.640  14.195   5.407
16992SOL     OW52872   3.627  10.772   1.641
16992SOL    HW152873   3.538  10.783   1.675
16992SOL    HW252874   3.622  10.804   1.551
16993SOL     OW52875  11.255   4.159   1.472
16993SOL    HW152876  11.294   4.238   1.509
16993SOL    HW252877  11.312   4.137   1.398
16994SOL     OW52878   5.516  14.467   1.727
16994SOL    HW152879   5.425  14.457   1.752
16994SOL    HW252880   5.515  14.467   1.631
16995SOL     OW52881   8.414   8.339   8.914
16995SOL    HW152882   8.421   8.426   8.954
16995SOL    HW252883   8.386   8.357   8.824
16996SOL     OW52884   7.949   2.941  13.662
16996SOL    HW152885   7.917   2.852  13.671
16996SOL    HW252886   8.001   2.956  13.741
16997SOL     OW52887   0.600   5.375   4.719
16997SOL    HW152888   0.624   5.442   4.783
16997SOL    HW252889   0.536   5.320   4.765
16998SOL     OW52890   8.905   9.524   1.592
16998SOL    HW152891   8.892   9.552   1.683
16998SOL    HW252892   8.824   9.478   1.569
16999SOL     OW52893   2.503   1.136  12.137
16999SOL    HW152894   2.413   1.104  12.125
16999SOL    HW252895   2.494   1.213  12.193
17000SOL     OW52896   6.248  14.415   5.419
17000SOL    HW152897   6.211  14.351   5.357
17000SOL    HW252898   6.240  14.499   5.374
17001SOL     OW52899   0.716   8.510   2.454
17001SOL    HW152900   0.783   8.576   2.475
17001SOL    HW252901   0.641   8.561   2.423
17002SOL     OW52902  11.552  11.062   1.089
17002SOL    HW152903  11.501  11.089   1.012
17002SOL    HW252904  11.578  10.972   1.071
17003SOL     OW52905   7.336   0.932   1.252
17003SOL    HW152906   7.402   0.908   1.316
17003SOL    HW252907   7.339   1.028   1.249
17004SOL     OW52908   3.810   7.177   3.988
17004SOL    HW152909   3.794   7.097   4.038
17004SOL    HW252910   3.771   7.160   3.902
17005SOL     OW52911  14.459  14.130   7.665
17005SOL    HW152912  14.371  14.147   7.698
17005SOL    HW252913  14.457  14.039   7.637
17006SOL     OW52914   8.358   1.813   7.427
17006SOL    HW152915   8.348   1.847   7.516
17006SOL    HW252916   8.270   1.813   7.391
17007SOL     OW52917   0.495   1.114  11.541
17007SOL    HW152918   0.533   1.192  11.502
17007SOL    HW252919   0.494   1.131  11.635
17008SOL     OW52920  13.622  12.112  14.107
17008SOL    HW152921  13.628  12.036  14.048
17008SOL    HW252922  13.627  12.187  14.048
17009SOL     OW52923   0.898  13.428  10.155
17009SOL    HW152924   0.813  13.471  10.153
17009SOL    HW252925   0.884  13.345  10.109
17010SOL     OW52926   8.345   0.023   3.203
17010SOL    HW152927   8.403  14.859   3.142
17010SOL    HW252928   8.348   0.115   3.177
17011SOL     OW52929   6.210   3.883   4.280
17011SOL    HW152930   6.255   3.825   4.342
17011SOL    HW252931   6.270   3.890   4.206
17012SOL     OW52932   4.879   8.440  13.648
17012SOL    HW152933   4.934   8.366  13.620
17012SOL    HW252934   4.939   8.514  13.652
17013SOL     OW52935   0.137   8.644   9.984
17013SOL    HW152936   0.190   8.565   9.999
17013SOL    HW252937   0.129   8.684  10.071
17014SOL     OW52938   4.710  10.453  12.492
17014SOL    HW152939   4.640  10.484  12.548
17014SOL    HW252940   4.719  10.521  12.424
17015SOL     OW52941  11.575   2.674   8.206
17015SOL    HW152942  11.598   2.761   8.239
17015SOL    HW252943  11.529   2.632   8.279
17016SOL     OW52944   7.491   0.991  11.624
17016SOL    HW152945   7.468   1.073  11.581
17016SOL    HW252946   7.536   0.941  11.556
17017SOL     OW52947  13.188   3.003  12.735
17017SOL    HW152948  13.160   2.916  12.705
17017SOL    HW252949  13.265   2.985  12.789
17018SOL     OW52950   9.843   0.742  10.647
17018SOL    HW152951   9.765   0.778  10.690
17018SOL    HW252952   9.912   0.750  10.712
17019SOL     OW52953   0.111   0.136   8.879
17019SOL    HW152954   0.134   0.081   8.954
17019SOL    HW252955   0.016   0.150   8.888
17020SOL     OW52956   2.582  12.525  11.060
17020SOL    HW152957   2.580  12.480  11.144
17020SOL    HW252958   2.675  12.540  11.042
17021SOL     OW52959   5.629   9.917   4.699
17021SOL    HW152960   5.618   9.831   4.658
17021SOL    HW252961   5.551   9.928   4.752
17022SOL     OW52962   8.690   0.840  12.798
17022SOL    HW152963   8.780   0.861  12.773
17022SOL    HW252964   8.662   0.775  12.735
17023SOL     OW52965   7.068  14.093   8.442
17023SOL    HW152966   7.130  14.147   8.394
17023SOL    HW252967   7.120  14.052   8.511
17024SOL     OW52968   0.454   7.276  13.404
17024SOL    HW152969   0.518   7.346  13.418
17024SOL    HW252970   0.376   7.305  13.450
17025SOL     OW52971   8.661   1.362  13.255
17025SOL    HW152972   8.740   1.366  13.310
17025SOL    HW252973   8.678   1.291  13.194
17026SOL     OW52974  11.261   5.459  10.326
17026SOL    HW152975  11.268   5.523  10.255
17026SOL    HW252976  11.336   5.477  10.382
17027SOL     OW52977   6.658   6.415  12.680
17027SOL    HW152978   6.646   6.445  12.590
17027SOL    HW252979   6.720   6.343  12.673
17028SOL     OW52980  12.441   2.416   8.254
17028SOL    HW152981  12.446   2.512   8.257
17028SOL    HW252982  12.527   2.389   8.222
17029SOL     OW52983   5.572  12.328   7.464
17029SOL    HW152984   5.554  12.267   7.392
17029SOL    HW252985   5.488  12.372   7.479
17030SOL     OW52986   4.689   8.977   6.366
17030SOL    HW152987   4.704   9.050   6.305
17030SOL    HW252988   4.746   8.907   6.334
17031SOL     OW52989   3.660   6.925   6.562
17031SOL    HW152990   3.658   7.002   6.619
17031SOL    HW252991   3.730   6.870   6.597
17032SOL     OW52992   6.074   4.421   0.010
17032SOL    HW152993   6.007   4.374  14.841
17032SOL    HW252994   6.114   4.479  14.826
17033SOL     OW52995   4.888   4.676   3.363
17033SOL    HW152996   4.832   4.721   3.300
17033SOL    HW252997   4.975   4.710   3.347
17034SOL     OW52998   2.272   9.474   1.095
17034SOL    HW152999   2.299   9.491   1.185
17034SOL    HW253000   2.176   9.469   1.100
17035SOL     OW53001  13.702   7.093  10.648
17035SOL    HW153002  13.695   7.005  10.684
17035SOL    HW253003  13.777   7.132  10.693
17036SOL     OW53004  10.546   6.437   4.334
17036SOL    HW153005  10.527   6.371   4.400
17036SOL    HW253006  10.546   6.520   4.382
17037SOL     OW53007   8.674  13.999  10.484
17037SOL    HW153008   8.749  13.976  10.430
17037SOL    HW253009   8.712  14.022  10.569
17038SOL     OW53010   2.637   0.777  14.344
17038SOL    HW153011   2.548   0.787  14.311
17038SOL    HW253012   2.663   0.865  14.371
17039SOL     OW53013   3.446   5.466  12.508
17039SOL    HW153014   3.434   5.390  12.450
17039SOL    HW253015   3.416   5.540  12.456
17040SOL     OW53016   5.750  12.603  14.759
17040SOL    HW153017   5.813  12.573  14.824
17040SOL    HW253018   5.734  12.527  14.704
17041SOL     OW53019   5.826   9.512   5.924
17041SOL    HW153020   5.880   9.588   5.905
17041SOL    HW253021   5.770   9.502   5.847
17042SOL     OW53022   4.053   4.033   5.163
17042SOL    HW153023   4.054   3.966   5.231
17042SOL    HW253024   4.145   4.041   5.137
17043SOL     OW53025   2.306   0.683   0.448
17043SOL    HW153026   2.315   0.702   0.355
17043SOL    HW253027   2.228   0.731   0.475
17044SOL     OW53028  12.601  13.136   8.229
17044SOL    HW153029  12.544  13.117   8.155
17044SOL    HW253030  12.647  13.053   8.246
17045SOL     OW53031   0.699   6.423   0.958
17045SOL    HW153032   0.619   6.463   0.923
17045SOL    HW253033   0.770   6.464   0.908
17046SOL     OW53034   0.029  13.650   2.705
17046SOL    HW153035  14.821  13.613   2.718
17046SOL    HW253036   0.044  13.704   2.783
17047SOL     OW53037  11.577  11.048   6.137
17047SOL    HW153038  11.592  11.143   6.139
17047SOL    HW253039  11.545  11.028   6.225
17048SOL     OW53040   7.591   0.219   2.084
17048SOL    HW153041   7.497   0.211   2.068
17048SOL    HW253042   7.632   0.196   2.000
17049SOL     OW53043   5.259   4.811  12.270
17049SOL    HW153044   5.187   4.828  12.208
17049SOL    HW253045   5.305   4.894  12.277
17050SOL     OW53046   8.808  14.569   3.446
17050SOL    HW153047   8.874  14.634   3.471
17050SOL    HW253048   8.770  14.541   3.529
17051SOL     OW53049  12.186   9.941   6.950
17051SOL    HW153050  12.114   9.878   6.960
17051SOL    HW253051  12.158   9.999   6.880
17052SOL     OW53052  12.893   0.668   4.043
17052SOL    HW153053  12.863   0.585   4.008
17052SOL    HW253054  12.816   0.705   4.087
17053SOL     OW53055  11.607   0.078   5.833
17053SOL    HW153056  11.593   0.011   5.899
17053SOL    HW253057  11.558   0.154   5.866
17054SOL     OW53058   8.642  11.595   1.677
17054SOL    HW153059   8.734  11.590   1.653
17054SOL    HW253060   8.643  11.616   1.771
17055SOL     OW53061   8.662   9.539  13.652
17055SOL    HW153062   8.666   9.513  13.560
17055SOL    HW253063   8.707   9.468  13.699
17056SOL     OW53064  13.638   8.081   2.007
17056SOL    HW153065  13.731   8.067   1.989
17056SOL    HW253066  13.602   7.992   2.014
17057SOL     OW53067   1.258   5.770   0.959
17057SOL    HW153068   1.341   5.810   0.934
17057SOL    HW253069   1.271   5.676   0.944
17058SOL     OW53070  12.757   7.393   8.568
17058SOL    HW153071  12.746   7.340   8.647
17058SOL    HW253072  12.772   7.482   8.601
17059SOL     OW53073   2.283   4.233  11.397
17059SOL    HW153074   2.239   4.273  11.472
17059SOL    HW253075   2.359   4.289  11.381
17060SOL     OW53076   4.857   8.896   7.627
17060SOL    HW153077   4.769   8.860   7.622
17060SOL    HW253078   4.865   8.950   7.548
17061SOL     OW53079   5.299   5.098   4.713
17061SOL    HW153080   5.288   5.168   4.777
17061SOL    HW253081   5.218   5.098   4.662
17062SOL     OW53082  12.698  14.001   4.339
17062SOL    HW153083  12.610  14.026   4.370
17062SOL    HW253084  12.703  14.037   4.251
17063SOL     OW53085   1.440   2.832   7.938
17063SOL    HW153086   1.527   2.837   7.898
17063SOL    HW253087   1.412   2.742   7.924
17064SOL     OW53088   8.335  10.653   9.161
17064SOL    HW153089   8.406  10.598   9.127
17064SOL    HW253090   8.298  10.695   9.083
17065SOL     OW53091  12.468   7.012  12.009
17065SOL    HW153092  12.381   7.052  12.009
17065SOL    HW253093  12.528   7.086  12.017
17066SOL     OW53094  12.980   8.543  12.108
17066SOL    HW153095  12.963   8.591  12.027
17066SOL    HW253096  12.897   8.500  12.128
17067SOL     OW53097  13.796  13.210   8.648
17067SOL    HW153098  13.703  13.202   8.673
17067SOL    HW253099  13.835  13.128   8.679
17068SOL     OW53100   8.269   1.876   2.384
17068SOL    HW153101   8.183   1.917   2.393
17068SOL    HW253102   8.280   1.864   2.290
17069SOL     OW53103   2.419  10.595  12.849
17069SOL    HW153104   2.412  10.645  12.930
17069SOL    HW253105   2.482  10.526  12.868
17070SOL     OW53106   6.158   4.521   4.117
17070SOL    HW153107   6.110   4.603   4.104
17070SOL    HW253108   6.181   4.493   4.028
17071SOL     OW53109  14.009   7.321   3.808
17071SOL    HW153110  13.914   7.328   3.814
17071SOL    HW253111  14.029   7.234   3.843
17072SOL     OW53112   9.370   5.951   4.974
17072SOL    HW153113   9.323   6.031   4.951
17072SOL    HW253114   9.304   5.895   5.015
17073SOL     OW53115  14.014   2.990   9.427
17073SOL    HW153116  13.980   2.914   9.381
17073SOL    HW253117  14.109   2.982   9.420
17074SOL     OW53118  13.501   0.835   4.146
17074SOL    HW153119  13.443   0.759   4.159
17074SOL    HW253120  13.512   0.841   4.051
17075SOL     OW53121  13.495   4.858   4.793
17075SOL    HW153122  13.515   4.765   4.804
17075SOL    HW253123  13.543   4.883   4.713
17076SOL     OW53124   1.560   1.867  14.307
17076SOL    HW153125   1.649   1.893  14.331
17076SOL    HW253126   1.526   1.821  14.384
17077SOL     OW53127   3.598   3.328   9.250
17077SOL    HW153128   3.581   3.234   9.249
17077SOL    HW253129   3.664   3.341   9.182
17078SOL     OW53130   3.831  13.884   3.468
17078SOL    HW153131   3.793  13.960   3.512
17078SOL    HW253132   3.815  13.900   3.375
17079SOL     OW53133   1.534  13.487   9.879
17079SOL    HW153134   1.622  13.523   9.864
17079SOL    HW253135   1.475  13.548   9.834
17080SOL     OW53136   4.251  13.790   1.087
17080SOL    HW153137   4.295  13.874   1.074
17080SOL    HW253138   4.158  13.812   1.095
17081SOL     OW53139   7.967   6.849   0.344
17081SOL    HW153140   7.883   6.889   0.366
17081SOL    HW253141   8.018   6.920   0.305
17082SOL     OW53142  14.604   8.918  10.810
17082SOL    HW153143  14.547   8.972  10.865
17082SOL    HW253144  14.568   8.928  10.722
17083SOL     OW53145   6.896  12.278   9.329
17083SOL    HW153146   6.976  12.327   9.352
17083SOL    HW253147   6.825  12.326   9.371
17084SOL     OW53148   7.262  10.111  13.104
17084SOL    HW153149   7.233  10.202  13.108
17084SOL    HW253150   7.211  10.073  13.032
17085SOL     OW53151  13.718  10.890   2.659
17085SOL    HW153152  13.778  10.932   2.598
17085SOL    HW253153  13.768  10.817   2.696
17086SOL     OW53154   2.456  12.866  13.220
17086SOL    HW153155   2.372  12.820  13.214
17086SOL    HW253156   2.518  12.799  13.249
17087SOL     OW53157   2.050   8.360   3.892
17087SOL    HW153158   2.122   8.356   3.829
17087SOL    HW253159   1.971   8.362   3.839
17088SOL     OW53160   2.711  11.715   3.171
17088SOL    HW153161   2.688  11.764   3.092
17088SOL    HW253162   2.787  11.662   3.146
17089SOL     OW53163  12.820   3.721  11.749
17089SOL    HW153164  12.788   3.803  11.712
17089SOL    HW253165  12.825   3.661  11.675
17090SOL     OW53166  13.849   0.964  14.710
17090SOL    HW153167  13.805   0.971  14.626
17090SOL    HW253168  13.937   0.931  14.690
17091SOL     OW53169  14.449   3.568  12.513
17091SOL    HW153170  14.459   3.616  12.431
17091SOL    HW253171  14.538   3.548  12.541
17092SOL     OW53172   7.269   5.902   5.778
17092SOL    HW153173   7.235   5.813   5.775
17092SOL    HW253174   7.328   5.903   5.854
17093SOL     OW53175   6.555  11.451  12.499
17093SOL    HW153176   6.574  11.441  12.593
17093SOL    HW253177   6.543  11.545  12.487
17094SOL     OW53178   1.511  10.705   0.331
17094SOL    HW153179   1.479  10.795   0.317
17094SOL    HW253180   1.547  10.679   0.246
17095SOL     OW53181   9.190   8.792   0.615
17095SOL    HW153182   9.254   8.827   0.553
17095SOL    HW253183   9.138   8.731   0.563
17096SOL     OW53184   7.605   7.050   8.726
17096SOL    HW153185   7.680   7.105   8.750
17096SOL    HW253186   7.616   7.036   8.632
17097SOL     OW53187   7.281   1.897  13.441
17097SOL    HW153188   7.202   1.929  13.484
17097SOL    HW253189   7.252   1.876  13.352
17098SOL     OW53190   0.969   7.118   7.018
17098SOL    HW153191   0.881   7.143   6.989
17098SOL    HW253192   0.995   7.187   7.078
17099SOL     OW53193   8.877   6.419  13.439
17099SOL    HW153194   8.891   6.381  13.526
17099SOL    HW253195   8.896   6.347  13.379
17100SOL     OW53196   7.832   2.051  13.664
17100SOL    HW153197   7.928   2.047  13.671
17100SOL    HW253198   7.808   1.970  13.619
17101SOL     OW53199  11.662   7.300  14.537
17101SOL    HW153200  11.702   7.386  14.531
17101SOL    HW253201  11.669   7.264  14.448
17102SOL     OW53202   3.858   2.820  10.342
17102SOL    HW153203   3.879   2.727  10.341
17102SOL    HW253204   3.788   2.828  10.407
17103SOL     OW53205   0.369   4.986   7.481
17103SOL    HW153206   0.369   4.890   7.485
17103SOL    HW253207   0.457   5.009   7.453
17104SOL     OW53208   9.090   6.032  14.809
17104SOL    HW153209   9.138   5.954  14.783
17104SOL    HW253210   9.125   6.053   0.015
17105SOL     OW53211  14.472   5.191  10.572
17105SOL    HW153212  14.440   5.256  10.509
17105SOL    HW253213  14.457   5.232  10.658
17106SOL     OW53214  14.242   7.269   9.126
17106SOL    HW153215  14.176   7.338   9.138
17106SOL    HW253216  14.257   7.267   9.031
17107SOL     OW53217  10.622   3.833   8.806
17107SOL    HW153218  10.570   3.848   8.885
17107SOL    HW253219  10.576   3.762   8.760
17108SOL     OW53220  13.282   8.793   2.499
17108SOL    HW153221  13.276   8.725   2.431
17108SOL    HW253222  13.376   8.807   2.510
17109SOL     OW53223  11.413  14.328  10.298
17109SOL    HW153224  11.426  14.300  10.388
17109SOL    HW253225  11.453  14.259  10.245
17110SOL     OW53226   2.976   9.538  12.545
17110SOL    HW153227   2.985   9.564  12.637
17110SOL    HW253228   3.010   9.449  12.542
17111SOL     OW53229   6.924  12.886   8.034
17111SOL    HW153230   6.995  12.946   8.059
17111SOL    HW253231   6.968  12.803   8.016
17112SOL     OW53232   7.609  12.536   7.858
17112SOL    HW153233   7.696  12.512   7.889
17112SOL    HW253234   7.573  12.454   7.824
17113SOL     OW53235   5.063   2.366  10.495
17113SOL    HW153236   5.139   2.328  10.540
17113SOL    HW253237   5.007   2.398  10.565
17114SOL     OW53238  11.227   1.055   0.193
17114SOL    HW153239  11.279   0.974   0.193
17114SOL    HW253240  11.291   1.124   0.176
17115SOL     OW53241   3.326   6.986   4.486
17115SOL    HW153242   3.418   6.960   4.481
17115SOL    HW253243   3.297   6.951   4.570
17116SOL     OW53244   4.522   3.914  12.446
17116SOL    HW153245   4.575   3.985  12.481
17116SOL    HW253246   4.441   3.956  12.416
17117SOL     OW53247  14.001   5.664   6.210
17117SOL    HW153248  13.929   5.716   6.175
17117SOL    HW253249  13.991   5.578   6.168
17118SOL     OW53250   2.624  10.546  10.513
17118SOL    HW153251   2.580  10.531  10.597
17118SOL    HW253252   2.685  10.617  10.530
17119SOL     OW53253  13.460   7.673  10.038
17119SOL    HW153254  13.366   7.685  10.054
17119SOL    HW253255  13.464   7.606   9.970
17120SOL     OW53256   0.561  12.666   4.033
17120SOL    HW153257   0.581  12.626   4.118
17120SOL    HW253258   0.624  12.626   3.973
17121SOL     OW53259  10.628   4.367   3.254
17121SOL    HW153260  10.540   4.345   3.283
17121SOL    HW253261  10.641   4.458   3.280
17122SOL     OW53262   9.480   7.927  14.756
17122SOL    HW153263   9.551   7.992  14.759
17122SOL    HW253264   9.525   7.843  14.766
17123SOL     OW53265   3.653   8.990  14.036
17123SOL    HW153266   3.631   8.969  13.946
17123SOL    HW253267   3.672   8.906  14.078
17124SOL     OW53268   9.973   4.511   6.692
17124SOL    HW153269   9.977   4.423   6.654
17124SOL    HW253270   9.953   4.568   6.618
17125SOL     OW53271   7.279   5.653   3.050
17125SOL    HW153272   7.264   5.741   3.086
17125SOL    HW253273   7.373   5.638   3.061
17126SOL     OW53274   1.596   9.548   2.259
17126SOL    HW153275   1.539   9.618   2.290
17126SOL    HW253276   1.664   9.542   2.327
17127SOL     OW53277  11.668   4.153   3.141
17127SOL    HW153278  11.585   4.171   3.095
17127SOL    HW253279  11.643   4.148   3.233
17128SOL     OW53280  11.860  12.484  11.543
17128SOL    HW153281  11.866  12.570  11.583
17128SOL    HW253282  11.851  12.423  11.616
17129SOL     OW53283   7.933  14.183   9.981
17129SOL    HW153284   8.016  14.136   9.979
17129SOL    HW253285   7.938  14.246   9.909
17130SOL     OW53286   2.605   3.810   6.179
17130SOL    HW153287   2.585   3.764   6.097
17130SOL    HW253288   2.666   3.879   6.153
17131SOL     OW53289  14.671   6.270  13.854
17131SOL    HW153290  14.600   6.217  13.815
17131SOL    HW253291  14.686   6.339  13.790
17132SOL     OW53292  12.701   3.319   4.671
17132SOL    HW153293  12.696   3.410   4.642
17132SOL    HW253294  12.697   3.324   4.766
17133SOL     OW53295   3.731   2.853   1.053
17133SOL    HW153296   3.792   2.808   1.112
17133SOL    HW253297   3.778   2.933   1.027
17134SOL     OW53298   9.913   2.146  10.433
17134SOL    HW153299   9.831   2.166  10.388
17134SOL    HW253300   9.946   2.068  10.389
17135SOL     OW53301   0.277   8.313  12.750
17135SOL    HW153302   0.236   8.295  12.665
17135SOL    HW253303   0.251   8.403  12.770
17136SOL     OW53304   9.337  11.574   0.905
17136SOL    HW153305   9.336  11.478   0.901
17136SOL    HW253306   9.247  11.600   0.889
17137SOL     OW53307   9.198  12.274   0.183
17137SOL    HW153308   9.200  12.181   0.159
17137SOL    HW253309   9.196  12.274   0.279
17138SOL     OW53310   2.441   1.969   5.251
17138SOL    HW153311   2.487   1.937   5.328
17138SOL    HW253312   2.442   1.895   5.190
17139SOL     OW53313   5.641   7.529   7.302
17139SOL    HW153314   5.726   7.487   7.286
17139SOL    HW253315   5.633   7.594   7.232
17140SOL     OW53316   1.597  13.475   5.766
17140SOL    HW153317   1.649  13.555   5.759
17140SOL    HW253318   1.648  13.409   5.718
17141SOL     OW53319  12.364  14.562   7.469
17141SOL    HW153320  12.320  14.497   7.523
17141SOL    HW253321  12.331  14.546   7.380
17142SOL     OW53322  12.011   8.784  11.253
17142SOL    HW153323  12.050   8.700  11.229
17142SOL    HW253324  11.927   8.785  11.207
17143SOL     OW53325   8.341   7.129   3.998
17143SOL    HW153326   8.345   7.099   3.907
17143SOL    HW253327   8.428   7.164   4.016
17144SOL     OW53328   2.097  11.600   7.196
17144SOL    HW153329   2.099  11.534   7.266
17144SOL    HW253330   2.013  11.586   7.153
17145SOL     OW53331   5.967  10.704  12.777
17145SOL    HW153332   6.017  10.631  12.814
17145SOL    HW253333   6.033  10.767  12.748
17146SOL     OW53334   8.338  12.814   1.064
17146SOL    HW153335   8.277  12.745   1.089
17146SOL    HW253336   8.290  12.867   1.000
17147SOL     OW53337   4.957  12.149   9.481
17147SOL    HW153338   4.954  12.055   9.464
17147SOL    HW253339   4.947  12.156   9.576
17148SOL     OW53340   2.328  10.638  11.710
17148SOL    HW153341   2.264  10.605  11.646
17148SOL    HW253342   2.374  10.560  11.740
17149SOL     OW53343   6.095   9.411   1.839
17149SOL    HW153344   6.001   9.407   1.825
17149SOL    HW253345   6.114   9.505   1.848
17150SOL     OW53346   0.381   2.934  10.805
17150SOL    HW153347   0.347   2.947  10.893
17150SOL    HW253348   0.424   3.017  10.784
17151SOL     OW53349  13.471   8.082   7.379
17151SOL    HW153350  13.410   8.063   7.450
17151SOL    HW253351  13.544   8.127   7.421
17152SOL     OW53352   7.684   5.013  13.859
17152SOL    HW153353   7.720   5.101  13.849
17152SOL    HW253354   7.659   4.987  13.770
17153SOL     OW53355   4.397  10.766  13.506
17153SOL    HW153356   4.356  10.850  13.486
17153SOL    HW253357   4.489  10.787  13.524
17154SOL     OW53358  12.292   8.075   7.143
17154SOL    HW153359  12.346   7.999   7.164
17154SOL    HW253360  12.217   8.069   7.202
17155SOL     OW53361  11.479   7.773   3.442
17155SOL    HW153362  11.513   7.691   3.405
17155SOL    HW253363  11.389   7.778   3.408
17156SOL     OW53364  11.391   6.712  10.613
17156SOL    HW153365  11.410   6.806  10.622
17156SOL    HW253366  11.442   6.684  10.537
17157SOL     OW53367  10.989   5.079  11.432
17157SOL    HW153368  11.027   5.116  11.353
17157SOL    HW253369  10.940   5.152  11.472
17158SOL     OW53370   3.190   3.950   2.150
17158SOL    HW153371   3.182   3.938   2.056
17158SOL    HW253372   3.101   3.968   2.180
17159SOL     OW53373   9.983   6.722   8.021
17159SOL    HW153374   9.941   6.735   7.936
17159SOL    HW253375  10.064   6.773   8.016
17160SOL     OW53376   7.768   1.702   2.670
17160SOL    HW153377   7.761   1.792   2.640
17160SOL    HW253378   7.786   1.709   2.764
17161SOL     OW53379  14.151   4.043  10.682
17161SOL    HW153380  14.112   3.998  10.758
17161SOL    HW253381  14.245   4.037  10.697
17162SOL     OW53382   7.566  12.771  10.652
17162SOL    HW153383   7.659  12.792  10.654
17162SOL    HW253384   7.552  12.733  10.565
17163SOL     OW53385  10.620   6.688   6.266
17163SOL    HW153386  10.576   6.768   6.237
17163SOL    HW253387  10.706   6.716   6.296
17164SOL     OW53388  11.139  11.074  12.429
17164SOL    HW153389  11.152  11.009  12.498
17164SOL    HW253390  11.165  11.157  12.470
17165SOL     OW53391  10.778   5.281  11.234
17165SOL    HW153392  10.822   5.208  11.190
17165SOL    HW253393  10.823   5.288  11.318
17166SOL     OW53394   9.144   8.856   3.210
17166SOL    HW153395   9.175   8.855   3.120
17166SOL    HW253396   9.117   8.766   3.227
17167SOL     OW53397   0.396   0.221   2.708
17167SOL    HW153398   0.468   0.256   2.656
17167SOL    HW253399   0.329   0.198   2.643
17168SOL     OW53400   2.291  13.567   6.163
17168SOL    HW153401   2.315  13.656   6.186
17168SOL    HW253402   2.346  13.546   6.087
17169SOL     OW53403   8.537   2.521   2.946
17169SOL    HW153404   8.519   2.446   2.890
17169SOL    HW253405   8.452   2.560   2.963
17170SOL     OW53406   0.001   6.470  11.333
17170SOL    HW153407   0.083   6.514  11.356
17170SOL    HW253408  14.875   6.398  11.395
17171SOL     OW53409   5.779   5.484   9.679
17171SOL    HW153410   5.819   5.441   9.754
17171SOL    HW253411   5.697   5.520   9.713
17172SOL     OW53412   9.990   5.673   2.558
17172SOL    HW153413   9.928   5.623   2.507
17172SOL    HW253414  10.072   5.668   2.508
17173SOL     OW53415   8.882   0.558  10.411
17173SOL    HW153416   8.821   0.497  10.369
17173SOL    HW253417   8.967   0.516  10.401
17174SOL     OW53418   8.734   7.273  10.039
17174SOL    HW153419   8.778   7.354  10.064
17174SOL    HW253420   8.796   7.227   9.983
17175SOL     OW53421  11.505   8.342   3.769
17175SOL    HW153422  11.591   8.374   3.796
17175SOL    HW253423  11.510   8.336   3.673
17176SOL     OW53424   2.255  14.387   1.153
17176SOL    HW153425   2.206  14.386   1.071
17176SOL    HW253426   2.298  14.472   1.154
17177SOL     OW53427   9.271   7.613   1.117
17177SOL    HW153428   9.203   7.671   1.153
17177SOL    HW253429   9.301   7.562   1.192
17178SOL     OW53430   9.028   3.533   8.357
17178SOL    HW153431   8.944   3.580   8.355
17178SOL    HW253432   9.072   3.566   8.435
17179SOL     OW53433   7.023   3.842   6.526
17179SOL    HW153434   7.006   3.748   6.520
17179SOL    HW253435   7.048   3.868   6.437
17180SOL     OW53436  14.357  12.045  13.926
17180SOL    HW153437  14.273  12.002  13.911
17180SOL    HW253438  14.389  12.007  14.008
17181SOL     OW53439   4.760  13.615  11.118
17181SOL    HW153440   4.667  13.607  11.095
17181SOL    HW253441   4.774  13.551  11.187
17182SOL     OW53442  14.570   3.105   5.751
17182SOL    HW153443  14.487   3.104   5.799
17182SOL    HW253444  14.545   3.128   5.661
17183SOL     OW53445   0.162  11.133   7.019
17183SOL    HW153446   0.213  11.154   6.941
17183SOL    HW253447   0.076  11.172   7.004
17184SOL     OW53448   9.761   7.325   0.266
17184SOL    HW153449   9.683   7.382   0.267
17184SOL    HW253450   9.808   7.351   0.187
17185SOL     OW53451   6.902  13.093   0.976
17185SOL    HW153452   6.894  13.146   0.897
17185SOL    HW253453   6.956  13.146   1.034
17186SOL     OW53454   6.784   4.934  12.451
17186SOL    HW153455   6.796   5.028  12.456
17186SOL    HW253456   6.839   4.899  12.521
17187SOL     OW53457   3.020   2.417  11.493
17187SOL    HW153458   3.106   2.420  11.450
17187SOL    HW253459   3.005   2.324  11.510
17188SOL     OW53460   9.970  14.662   8.384
17188SOL    HW153461   9.968  14.676   8.289
17188SOL    HW253462   9.926  14.578   8.397
17189SOL     OW53463   7.570   4.189   1.952
17189SOL    HW153464   7.658   4.172   1.918
17189SOL    HW253465   7.580   4.267   2.007
17190SOL     OW53466  10.686   9.989   1.707
17190SOL    HW153467  10.679   9.989   1.802
17190SOL    HW253468  10.776  10.014   1.690
17191SOL     OW53469   7.002   6.749  13.817
17191SOL    HW153470   6.947   6.797  13.755
17191SOL    HW253471   7.090   6.787  13.805
17192SOL     OW53472   8.582   3.595   6.780
17192SOL    HW153473   8.595   3.608   6.686
17192SOL    HW253474   8.570   3.500   6.789
17193SOL     OW53475   6.401   5.615  10.375
17193SOL    HW153476   6.342   5.549  10.341
17193SOL    HW253477   6.345   5.672  10.428
17194SOL     OW53478   3.501  14.673   4.968
17194SOL    HW153479   3.458  14.591   4.992
17194SOL    HW253480   3.592  14.662   4.997
17195SOL     OW53481  14.457   7.418  11.273
17195SOL    HW153482  14.372   7.383  11.301
17195SOL    HW253483  14.442   7.512  11.263
17196SOL     OW53484   2.525   5.067   9.916
17196SOL    HW153485   2.612   5.093   9.947
17196SOL    HW253486   2.542   5.026   9.831
17197SOL     OW53487  12.681   1.408  10.412
17197SOL    HW153488  12.635   1.325  10.419
17197SOL    HW253489  12.623   1.464  10.360
17198SOL     OW53490   1.256   1.558   8.098
17198SOL    HW153491   1.327   1.588   8.155
17198SOL    HW253492   1.196   1.512   8.157
17199SOL     OW53493  13.920   3.841   6.928
17199SOL    HW153494  13.982   3.768   6.937
17199SOL    HW253495  13.881   3.849   7.014
17200SOL     OW53496  14.012   2.467   6.348
17200SOL    HW153497  14.051   2.469   6.260
17200SOL    HW253498  13.920   2.489   6.334
17201SOL     OW53499   3.699   5.092   0.768
17201SOL    HW153500   3.677   5.144   0.845
17201SOL    HW253501   3.748   5.152   0.711
17202SOL     OW53502   5.250   8.766  14.234
17202SOL    HW153503   5.275   8.724  14.151
17202SOL    HW253504   5.241   8.858  14.212
17203SOL     OW53505   7.067  14.629   1.842
17203SOL    HW153506   7.147  14.670   1.808
17203SOL    HW253507   7.049  14.557   1.781
17204SOL     OW53508   6.749   5.011   5.732
17204SOL    HW153509   6.766   5.092   5.684
17204SOL    HW253510   6.654   5.007   5.739
17205SOL     OW53511  12.947   1.654   4.132
17205SOL    HW153512  13.017   1.589   4.130
17205SOL    HW253513  12.870   1.608   4.099
17206SOL     OW53514   2.762  10.415   3.733
17206SOL    HW153515   2.825  10.388   3.799
17206SOL    HW253516   2.784  10.506   3.714
17207SOL     OW53517  14.483   6.609  10.508
17207SOL    HW153518  14.547   6.608  10.437
17207SOL    HW253519  14.448   6.698  10.509
17208SOL     OW53520  11.795   3.144  11.471
17208SOL    HW153521  11.726   3.080  11.488
17208SOL    HW253522  11.824   3.125  11.382
17209SOL     OW53523   2.458   7.702   7.750
17209SOL    HW153524   2.508   7.781   7.730
17209SOL    HW253525   2.397   7.728   7.818
17210SOL     OW53526  10.891   9.141  14.675
17210SOL    HW153527  10.822   9.114  14.615
17210SOL    HW253528  10.895   9.236  14.666
17211SOL     OW53529  14.246   3.864   0.667
17211SOL    HW153530  14.262   3.773   0.693
17211SOL    HW253531  14.281   3.871   0.579
17212SOL     OW53532  10.246  13.032   6.577
17212SOL    HW153533  10.263  12.952   6.527
17212SOL    HW253534  10.151  13.032   6.591
17213SOL     OW53535  13.876  11.000   2.438
17213SOL    HW153536  13.888  11.086   2.398
17213SOL    HW253537  13.964  10.974   2.465
17214SOL     OW53538  13.850   4.635   3.976
17214SOL    HW153539  13.924   4.603   3.925
17214SOL    HW253540  13.884   4.646   4.064
17215SOL     OW53541   6.847  12.117   5.225
17215SOL    HW153542   6.825  12.053   5.157
17215SOL    HW253543   6.941  12.109   5.237
17216SOL     OW53544  11.355   8.109   3.201
17216SOL    HW153545  11.268   8.071   3.201
17216SOL    HW253546  11.340   8.203   3.190
17217SOL     OW53547  11.533  13.739   3.475
17217SOL    HW153548  11.453  13.787   3.452
17217SOL    HW253549  11.508  13.647   3.465
17218SOL     OW53550  12.415   1.160   0.778
17218SOL    HW153551  12.379   1.109   0.705
17218SOL    HW253552  12.414   1.251   0.747
17219SOL     OW53553  11.867   2.832  13.708
17219SOL    HW153554  11.950   2.793  13.679
17219SOL    HW253555  11.817   2.758  13.741
17220SOL     OW53556   1.572  12.419   7.175
17220SOL    HW153557   1.541  12.502   7.139
17220SOL    HW253558   1.495  12.381   7.217
17221SOL     OW53559  13.663   6.207  13.623
17221SOL    HW153560  13.638   6.120  13.592
17221SOL    HW253561  13.615   6.218  13.705
17222SOL     OW53562  11.269   8.839   8.107
17222SOL    HW153563  11.338   8.811   8.047
17222SOL    HW253564  11.220   8.760   8.127
17223SOL     OW53565   1.247   1.122  10.335
17223SOL    HW153566   1.239   1.055  10.267
17223SOL    HW253567   1.159   1.134  10.369
17224SOL     OW53568   3.260   8.752   0.979
17224SOL    HW153569   3.275   8.799   1.061
17224SOL    HW253570   3.346   8.721   0.953
17225SOL     OW53571   2.383   6.153   8.186
17225SOL    HW153572   2.377   6.069   8.231
17225SOL    HW253573   2.471   6.155   8.149
17226SOL     OW53574   9.646   9.523   8.664
17226SOL    HW153575   9.720   9.576   8.635
17226SOL    HW253576   9.628   9.555   8.753
17227SOL     OW53577   2.196   2.455  14.504
17227SOL    HW153578   2.217   2.521  14.438
17227SOL    HW253579   2.266   2.463  14.569
17228SOL     OW53580  14.015  13.525   2.851
17228SOL    HW153581  14.058  13.455   2.801
17228SOL    HW253582  13.969  13.577   2.785
17229SOL     OW53583   3.176   1.690   5.107
17229SOL    HW153584   3.168   1.769   5.161
17229SOL    HW253585   3.239   1.714   5.039
17230SOL     OW53586   3.517   1.151   5.017
17230SOL    HW153587   3.514   1.067   4.972
17230SOL    HW253588   3.437   1.196   4.988
17231SOL     OW53589   8.150   2.949   9.861
17231SOL    HW153590   8.240   2.915   9.868
17231SOL    HW253591   8.102   2.878   9.818
17232SOL     OW53592  12.893  13.466   4.591
17232SOL    HW153593  12.922  13.495   4.504
17232SOL    HW253594  12.814  13.414   4.574
17233SOL     OW53595   9.737   8.416   3.195
17233SOL    HW153596   9.771   8.408   3.106
17233SOL    HW253597   9.669   8.348   3.200
17234SOL     OW53598   7.131   4.533   7.856
17234SOL    HW153599   7.104   4.456   7.906
17234SOL    HW253600   7.049   4.566   7.818
17235SOL     OW53601   9.917   6.050  13.131
17235SOL    HW153602   9.966   6.027  13.052
17235SOL    HW253603   9.977   6.030  13.203
17236SOL     OW53604   5.724   8.852   3.967
17236SOL    HW153605   5.782   8.924   3.991
17236SOL    HW253606   5.653   8.857   4.031
17237SOL     OW53607   5.177   0.583   5.073
17237SOL    HW153608   5.204   0.495   5.097
17237SOL    HW253609   5.246   0.640   5.108
17238SOL     OW53610   3.133  10.973   3.090
17238SOL    HW153611   3.224  10.993   3.070
17238SOL    HW253612   3.101  11.052   3.135
17239SOL     OW53613   6.861  10.703   4.265
17239SOL    HW153614   6.782  10.648   4.256
17239SOL    HW253615   6.844  10.778   4.208
17240SOL     OW53616  13.594   2.386   6.987
17240SOL    HW153617  13.634   2.474   6.985
17240SOL    HW253618  13.663   2.330   7.023
17241SOL     OW53619  10.846   7.697   8.296
17241SOL    HW153620  10.920   7.650   8.257
17241SOL    HW253621  10.794   7.628   8.338
17242SOL     OW53622   6.566  13.748  13.512
17242SOL    HW153623   6.606  13.726  13.596
17242SOL    HW253624   6.504  13.676  13.496
17243SOL     OW53625   8.779   2.560   9.616
17243SOL    HW153626   8.818   2.645   9.635
17243SOL    HW253627   8.740   2.570   9.529
17244SOL     OW53628   0.134   9.148  13.856
17244SOL    HW153629   0.176   9.078  13.906
17244SOL    HW253630   0.118   9.110  13.770
17245SOL     OW53631   5.634  13.141  14.869
17245SOL    HW153632   5.701  13.192  14.823
17245SOL    HW253633   5.561  13.137  14.808
17246SOL     OW53634  11.418  11.778  13.140
17246SOL    HW153635  11.339  11.793  13.088
17246SOL    HW253636  11.416  11.685  13.160
17247SOL     OW53637   5.770  10.464   6.737
17247SOL    HW153638   5.782  10.379   6.695
17247SOL    HW253639   5.841  10.518   6.701
17248SOL     OW53640  13.844   6.701  14.000
17248SOL    HW153641  13.784   6.769  13.971
17248SOL    HW253642  13.851   6.715  14.095
17249SOL     OW53643   8.241   4.340  14.588
17249SOL    HW153644   8.295   4.419  14.587
17249SOL    HW253645   8.199   4.340  14.673
17250SOL     OW53646   4.398   8.902   6.671
17250SOL    HW153647   4.466   8.846   6.635
17250SOL    HW253648   4.435   8.935   6.753
17251SOL     OW53649  13.499  11.382   9.833
17251SOL    HW153650  13.411  11.355   9.860
17251SOL    HW253651  13.558  11.343   9.898
17252SOL     OW53652   4.070   8.264   8.450
17252SOL    HW153653   4.021   8.309   8.381
17252SOL    HW253654   4.153   8.312   8.455
17253SOL     OW53655  13.640  10.952   0.355
17253SOL    HW153656  13.578  11.019   0.327
17253SOL    HW253657  13.618  10.935   0.447
17254SOL     OW53658   8.128  13.331   5.866
17254SOL    HW153659   8.054  13.276   5.843
17254SOL    HW253660   8.154  13.301   5.954
17255SOL     OW53661   3.977   1.365   7.099
17255SOL    HW153662   4.065   1.385   7.067
17255SOL    HW253663   3.957   1.436   7.160
17256SOL     OW53664  11.339   8.204  10.182
17256SOL    HW153665  11.399   8.256  10.129
17256SOL    HW253666  11.367   8.114  10.168
17257SOL     OW53667   6.097   1.243  11.586
17257SOL    HW153668   6.026   1.265  11.526
17257SOL    HW253669   6.163   1.200  11.531
17258SOL     OW53670   8.221   6.370  13.938
17258SOL    HW153671   8.146   6.393  13.884
17258SOL    HW253672   8.273   6.451  13.944
17259SOL     OW53673  12.401   4.802   2.495
17259SOL    HW153674  12.475   4.856   2.523
17259SOL    HW253675  12.393   4.734   2.562
17260SOL     OW53676   3.807   4.578   0.606
17260SOL    HW153677   3.841   4.566   0.518
17260SOL    HW253678   3.744   4.650   0.598
17261SOL     OW53679   6.089   1.225  14.827
17261SOL    HW153680   6.090   1.317  14.854
17261SOL    HW253681   6.059   1.227  14.736
17262SOL     OW53682  10.533  11.962   8.675
17262SOL    HW153683  10.479  11.906   8.732
17262SOL    HW253684  10.600  11.904   8.641
17263SOL     OW53685  11.188   5.235   6.433
17263SOL    HW153686  11.180   5.309   6.492
17263SOL    HW253687  11.117   5.247   6.369
17264SOL     OW53688   3.495   6.401   8.173
17264SOL    HW153689   3.492   6.372   8.081
17264SOL    HW253690   3.588   6.417   8.190
17265SOL     OW53691  14.234  12.712   1.787
17265SOL    HW153692  14.215  12.802   1.761
17265SOL    HW253693  14.312  12.689   1.736
17266SOL     OW53694   2.701   2.978  12.933
17266SOL    HW153695   2.764   2.992  13.004
17266SOL    HW253696   2.661   2.893  12.953
17267SOL     OW53697   7.280   9.228   5.702
17267SOL    HW153698   7.311   9.145   5.739
17267SOL    HW253699   7.212   9.257   5.763
17268SOL     OW53700   8.825  13.563   5.317
17268SOL    HW153701   8.867  13.537   5.399
17268SOL    HW253702   8.798  13.653   5.331
17269SOL     OW53703   6.433   0.327   1.207
17269SOL    HW153704   6.432   0.276   1.126
17269SOL    HW253705   6.368   0.395   1.194
17270SOL     OW53706   5.610   2.297   3.982
17270SOL    HW153707   5.601   2.283   3.887
17270SOL    HW253708   5.556   2.230   4.022
17271SOL     OW53709   5.963   9.365   3.875
17271SOL    HW153710   5.979   9.271   3.886
17271SOL    HW253711   5.880   9.369   3.828
17272SOL     OW53712   4.557   4.223   3.771
17272SOL    HW153713   4.640   4.272   3.769
17272SOL    HW253714   4.566   4.165   3.846
17273SOL     OW53715  13.263  11.173   5.290
17273SOL    HW153716  13.282  11.132   5.375
17273SOL    HW253717  13.325  11.246   5.284
17274SOL     OW53718   8.636  14.651  12.348
17274SOL    HW153719   8.560  14.616  12.393
17274SOL    HW253720   8.687  14.695  12.417
17275SOL     OW53721  13.799   9.544  14.863
17275SOL    HW153722  13.886   9.506  14.878
17275SOL    HW253723  13.814   9.638  14.863
17276SOL     OW53724  14.309   8.216  11.213
17276SOL    HW153725  14.306   8.134  11.262
17276SOL    HW253726  14.366   8.197  11.138
17277SOL     OW53727   4.456   9.801   4.249
17277SOL    HW153728   4.405   9.867   4.202
17277SOL    HW253729   4.391   9.745   4.290
17278SOL     OW53730   3.653   9.853  13.357
17278SOL    HW153731   3.708   9.889  13.288
17278SOL    HW253732   3.631   9.765  13.328
17279SOL     OW53733  10.006   7.186  13.263
17279SOL    HW153734   9.950   7.110  13.246
17279SOL    HW253735   9.944   7.259  13.273
17280SOL     OW53736   1.771   0.965   9.132
17280SOL    HW153737   1.737   1.053   9.148
17280SOL    HW253738   1.835   0.975   9.062
17281SOL     OW53739   8.738   6.005   7.997
17281SOL    HW153740   8.690   6.055   8.063
17281SOL    HW253741   8.793   6.070   7.953
17282SOL     OW53742   1.775  12.351   2.429
17282SOL    HW153743   1.833  12.419   2.464
17282SOL    HW253744   1.741  12.387   2.348
17283SOL     OW53745   0.692   4.876   9.817
17283SOL    HW153746   0.712   4.959   9.861
17283SOL    HW253747   0.714   4.809   9.882
17284SOL     OW53748   2.833   5.626   6.852
17284SOL    HW153749   2.786   5.604   6.772
17284SOL    HW253750   2.896   5.555   6.865
17285SOL     OW53751   5.788   5.049   6.678
17285SOL    HW153752   5.714   5.073   6.734
17285SOL    HW253753   5.850   5.121   6.688
17286SOL     OW53754   0.909   7.001   5.635
17286SOL    HW153755   0.823   7.040   5.653
17286SOL    HW253756   0.898   6.956   5.551
17287SOL     OW53757  10.123   1.076  14.338
17287SOL    HW153758  10.132   1.121  14.422
17287SOL    HW253759  10.029   1.075  14.322
17288SOL     OW53760  11.917   2.101   1.114
17288SOL    HW153761  11.880   2.060   1.035
17288SOL    HW253762  11.980   2.164   1.080
17289SOL     OW53763   3.510  12.029  10.860
17289SOL    HW153764   3.492  12.013  10.767
17289SOL    HW253765   3.500  12.124  10.870
17290SOL     OW53766  10.945   8.039  10.679
17290SOL    HW153767  10.928   7.946  10.694
17290SOL    HW253768  10.949   8.047  10.583
17291SOL     OW53769   8.370   8.452   4.187
17291SOL    HW153770   8.397   8.363   4.165
17291SOL    HW253771   8.282   8.442   4.224
17292SOL     OW53772   9.614   4.346   2.739
17292SOL    HW153773   9.555   4.327   2.811
17292SOL    HW253774   9.624   4.441   2.740
17293SOL     OW53775   4.699   7.365  10.048
17293SOL    HW153776   4.691   7.272  10.069
17293SOL    HW253777   4.746   7.367   9.965
17294SOL     OW53778   3.189   9.742  14.400
17294SOL    HW153779   3.138   9.677  14.352
17294SOL    HW253780   3.174   9.722  14.492
17295SOL     OW53781  13.434  11.799   4.863
17295SOL    HW153782  13.496  11.779   4.793
17295SOL    HW253783  13.382  11.871   4.828
17296SOL     OW53784  13.635  14.678   9.347
17296SOL    HW153785  13.685  14.613   9.297
17296SOL    HW253786  13.554  14.691   9.296
17297SOL     OW53787  10.708   1.275   7.916
17297SOL    HW153788  10.778   1.218   7.885
17297SOL    HW253789  10.654   1.218   7.971
17298SOL     OW53790  13.368  13.565   6.297
17298SOL    HW153791  13.375  13.610   6.212
17298SOL    HW253792  13.305  13.617   6.346
17299SOL     OW53793  12.386  13.293  13.475
17299SOL    HW153794  12.394  13.340  13.558
17299SOL    HW253795  12.293  13.270  13.469
17300SOL     OW53796   6.203   8.727   0.067
17300SOL    HW153797   6.171   8.641   0.096
17300SOL    HW253798   6.127   8.784   0.072
17301SOL     OW53799   5.789  12.844   7.727
17301SOL    HW153800   5.878  12.835   7.695
17301SOL    HW253801   5.777  12.771   7.787
17302SOL     OW53802   2.919  13.164   2.546
17302SOL    HW153803   2.915  13.135   2.637
17302SOL    HW253804   2.875  13.248   2.545
17303SOL     OW53805  12.794  11.176   3.778
17303SOL    HW153806  12.774  11.087   3.809
17303SOL    HW253807  12.714  11.206   3.736
17304SOL     OW53808   9.845   7.325  11.720
17304SOL    HW153809   9.912   7.336  11.786
17304SOL    HW253810   9.775   7.275  11.764
17305SOL     OW53811   1.403  12.986  12.350
17305SOL    HW153812   1.336  13.036  12.397
17305SOL    HW253813   1.400  13.020  12.260
17306SOL     OW53814   5.199   7.864   8.280
17306SOL    HW153815   5.146   7.805   8.334
17306SOL    HW253816   5.204   7.820   8.195
17307SOL     OW53817   1.734  11.931  11.697
17307SOL    HW153818   1.741  11.999  11.764
17307SOL    HW253819   1.736  11.980  11.614
17308SOL     OW53820  13.866   2.440   5.030
17308SOL    HW153821  13.893   2.522   5.070
17308SOL    HW253822  13.936   2.378   5.052
17309SOL     OW53823   3.246  13.466   2.817
17309SOL    HW153824   3.263  13.418   2.735
17309SOL    HW253825   3.177  13.416   2.860
17310SOL     OW53826   6.106   1.921  11.108
17310SOL    HW153827   6.155   1.954  11.183
17310SOL    HW253828   6.109   1.992  11.044
17311SOL     OW53829   2.429   6.328   4.140
17311SOL    HW153830   2.355   6.291   4.092
17311SOL    HW253831   2.436   6.273   4.219
17312SOL     OW53832   8.730   7.517   8.841
17312SOL    HW153833   8.788   7.593   8.836
17312SOL    HW253834   8.703   7.513   8.933
17313SOL     OW53835  13.013  12.559   3.363
17313SOL    HW153836  12.965  12.528   3.440
17313SOL    HW253837  13.092  12.600   3.399
17314SOL     OW53838  14.368  14.735  12.207
17314SOL    HW153839  14.361  14.830  12.215
17314SOL    HW253840  14.402  14.706  12.292
17315SOL     OW53841   6.649  10.101   5.898
17315SOL    HW153842   6.695  10.182   5.920
17315SOL    HW253843   6.620  10.066   5.983
17316SOL     OW53844   2.658  10.993   4.008
17316SOL    HW153845   2.643  10.947   3.925
17316SOL    HW253846   2.595  10.953   4.068
17317SOL     OW53847   5.136   7.423  12.338
17317SOL    HW153848   5.171   7.447  12.252
17317SOL    HW253849   5.048   7.391  12.319
17318SOL     OW53850   1.078   2.164   1.018
17318SOL    HW153851   1.076   2.150   1.113
17318SOL    HW253852   0.987   2.154   0.991
17319SOL     OW53853   6.815  13.888  11.379
17319SOL    HW153854   6.812  13.875  11.474
17319SOL    HW253855   6.907  13.909  11.362
17320SOL     OW53856  12.722   6.710  12.014
17320SOL    HW153857  12.727   6.802  12.041
17320SOL    HW253858  12.628   6.691  12.012
17321SOL     OW53859   0.001   6.032   4.046
17321SOL    HW153860  14.798   6.011   4.088
17321SOL    HW253861   0.012   5.964   3.980
17322SOL     OW53862   0.465   2.011  13.698
17322SOL    HW153863   0.464   1.939  13.635
17322SOL    HW253864   0.553   2.047  13.693
17323SOL     OW53865  13.042  14.384   6.459
17323SOL    HW153866  13.044  14.370   6.364
17323SOL    HW253867  13.127  14.423   6.480
17324SOL     OW53868   6.250  11.753   2.021
17324SOL    HW153869   6.343  11.754   2.043
17324SOL    HW253870   6.223  11.662   2.034
17325SOL     OW53871   4.452   5.098  11.331
17325SOL    HW153872   4.522   5.062  11.276
17325SOL    HW253873   4.493   5.171  11.378
17326SOL     OW53874  10.283   5.301  12.370
17326SOL    HW153875  10.188   5.293  12.360
17326SOL    HW253876  10.303   5.388  12.337
17327SOL     OW53877  10.192   2.195   3.770
17327SOL    HW153878  10.131   2.259   3.733
17327SOL    HW253879  10.150   2.110   3.755
17328SOL     OW53880   1.605   2.728   4.184
17328SOL    HW153881   1.575   2.818   4.198
17328SOL    HW253882   1.613   2.719   4.089
17329SOL     OW53883   7.996   2.810   9.210
17329SOL    HW153884   7.980   2.868   9.136
17329SOL    HW253885   8.075   2.761   9.187
17330SOL     OW53886  10.535  13.743   8.192
17330SOL    HW153887  10.602  13.681   8.162
17330SOL    HW253888  10.473  13.688   8.241
17331SOL     OW53889   3.250  11.180   4.689
17331SOL    HW153890   3.339  11.191   4.723
17331SOL    HW253891   3.234  11.086   4.694
17332SOL     OW53892   1.900   5.653   4.424
17332SOL    HW153893   1.830   5.594   4.453
17332SOL    HW253894   1.926   5.699   4.504
17333SOL     OW53895   5.736  11.975  14.801
17333SOL    HW153896   5.653  12.021  14.788
17333SOL    HW253897   5.731  11.899  14.743
17334SOL     OW53898  11.295  10.329   0.370
17334SOL    HW153899  11.390  10.339   0.366
17334SOL    HW253900  11.278  10.246   0.327
17335SOL     OW53901  14.380  13.075   4.161
17335SOL    HW153902  14.364  13.103   4.071
17335SOL    HW253903  14.357  13.152   4.214
17336SOL     OW53904   3.938   5.635   6.971
17336SOL    HW153905   3.984   5.675   6.897
17336SOL    HW253906   3.963   5.689   7.046
17337SOL     OW53907   4.231   9.057  13.139
17337SOL    HW153908   4.196   9.112  13.069
17337SOL    HW253909   4.308   9.015  13.101
17338SOL     OW53910   8.698  10.626   7.133
17338SOL    HW153911   8.625  10.653   7.076
17338SOL    HW253912   8.665  10.548   7.179
17339SOL     OW53913   3.138  10.131   4.977
17339SOL    HW153914   3.116  10.219   4.945
17339SOL    HW253915   3.093  10.072   4.917
17340SOL     OW53916  13.228   0.507  12.026
17340SOL    HW153917  13.246   0.414  12.012
17340SOL    HW253918  13.315   0.547  12.037
17341SOL     OW53919   0.283   0.690   4.146
17341SOL    HW153920   0.217   0.745   4.188
17341SOL    HW253921   0.366   0.731   4.169
17342SOL     OW53922   6.318  13.897  13.998
17342SOL    HW153923   6.227  13.870  14.009
17342SOL    HW253924   6.317  13.956  13.922
17343SOL     OW53925   0.094  13.648  10.355
17343SOL    HW153926   0.007  13.660  10.394
17343SOL    HW253927   0.095  13.558  10.325
17344SOL     OW53928   8.308   4.033  13.675
17344SOL    HW153929   8.339   4.088  13.747
17344SOL    HW253930   8.351   4.070  13.597
17345SOL     OW53931   2.816  13.798   9.339
17345SOL    HW153932   2.763  13.737   9.389
17345SOL    HW253933   2.772  13.883   9.349
17346SOL     OW53934  10.570  13.358   1.976
17346SOL    HW153935  10.572  13.346   2.071
17346SOL    HW253936  10.651  13.317   1.945
17347SOL     OW53937  13.942  14.819   1.794
17347SOL    HW153938  13.865  14.854   1.839
17347SOL    HW253939  14.006  14.805   1.863
17348SOL     OW53940   9.908  11.574  12.441
17348SOL    HW153941   9.844  11.638  12.474
17348SOL    HW253942   9.889  11.568  12.347
17349SOL     OW53943  10.268  14.529  14.488
17349SOL    HW153944  10.273  14.457  14.426
17349SOL    HW253945  10.175  14.536  14.510
17350SOL     OW53946  10.608   8.223  14.879
17350SOL    HW153947  10.524   8.267   0.013
17350SOL    HW253948  10.595   8.134   0.031
17351SOL     OW53949   9.604   7.384   4.676
17351SOL    HW153950   9.691   7.365   4.640
17351SOL    HW253951   9.552   7.306   4.656
17352SOL     OW53952   0.848   3.905  12.244
17352SOL    HW153953   0.897   3.885  12.324
17352SOL    HW253954   0.854   4.000  12.236
17353SOL     OW53955   2.781   3.456   5.630
17353SOL    HW153956   2.731   3.500   5.561
17353SOL    HW253957   2.819   3.380   5.586
17354SOL     OW53958  14.589  10.222   7.334
17354SOL    HW153959  14.585  10.306   7.287
17354SOL    HW253960  14.635  10.242   7.415
17355SOL     OW53961   5.692  11.209  14.606
17355SOL    HW153962   5.740  11.278  14.560
17355SOL    HW253963   5.622  11.256  14.653
17356SOL     OW53964   4.171   6.987  11.300
17356SOL    HW153965   4.085   6.972  11.260
17356SOL    HW253966   4.200   7.072  11.266
17357SOL     OW53967  13.536   9.093   1.457
17357SOL    HW153968  13.474   9.102   1.385
17357SOL    HW253969  13.597   9.026   1.428
17358SOL     OW53970   2.577   7.850   6.269
17358SOL    HW153971   2.630   7.884   6.197
17358SOL    HW253972   2.491   7.834   6.230
17359SOL     OW53973   1.473   7.308   4.123
17359SOL    HW153974   1.534   7.332   4.193
17359SOL    HW253975   1.391   7.352   4.147
17360SOL     OW53976   6.274   2.341   7.357
17360SOL    HW153977   6.183   2.315   7.373
17360SOL    HW253978   6.313   2.349   7.444
17361SOL     OW53979   4.656   3.126   6.145
17361SOL    HW153980   4.647   3.114   6.051
17361SOL    HW253981   4.620   3.047   6.184
17362SOL     OW53982   9.690   8.284   3.964
17362SOL    HW153983   9.636   8.206   3.978
17362SOL    HW253984   9.762   8.254   3.908
17363SOL     OW53985  11.665  13.233   0.962
17363SOL    HW153986  11.708  13.253   0.879
17363SOL    HW253987  11.731  13.187   1.013
17364SOL     OW53988   6.270   4.478   4.367
17364SOL    HW153989   6.227   4.533   4.433
17364SOL    HW253990   6.224   4.497   4.285
17365SOL     OW53991   2.120   7.921   7.834
17365SOL    HW153992   2.072   8.003   7.848
17365SOL    HW253993   2.158   7.930   7.747
17366SOL     OW53994  14.474  11.583   6.107
17366SOL    HW153995  14.420  11.508   6.129
17366SOL    HW253996  14.445  11.652   6.167
17367SOL     OW53997   0.380   8.379  13.239
17367SOL    HW153998   0.455   8.412  13.189
17367SOL    HW253999   0.365   8.291  13.203
17368SOL     OW54000   4.843   0.919  13.776
17368SOL    HW154001   4.804   0.891  13.692
17368SOL    HW254002   4.775   0.900  13.841
17369SOL     OW54003   4.484  11.800   1.058
17369SOL    HW154004   4.530  11.862   1.114
17369SOL    HW254005   4.546  11.779   0.989
17370SOL     OW54006   1.226   7.071  12.494
17370SOL    HW154007   1.280   7.094  12.569
17370SOL    HW254008   1.141   7.050  12.531
17371SOL     OW54009  14.445   2.508   6.638
17371SOL    HW154010  14.427   2.534   6.729
17371SOL    HW254011  14.539   2.526   6.626
17372SOL     OW54012   2.304   0.221  10.815
17372SOL    HW154013   2.305   0.233  10.911
17372SOL    HW254014   2.281   0.129  10.802
17373SOL     OW54015   4.245   6.374   7.354
17373SOL    HW154016   4.263   6.297   7.408
17373SOL    HW254017   4.326   6.425   7.356
17374SOL     OW54018   1.913  14.099   1.090
17374SOL    HW154019   1.833  14.073   1.044
17374SOL    HW254020   1.975  14.119   1.020
17375SOL     OW54021   3.325   7.399  13.381
17375SOL    HW154022   3.373   7.471  13.340
17375SOL    HW254023   3.343   7.409  13.475
17376SOL     OW54024   8.371   8.933   5.090
17376SOL    HW154025   8.441   8.954   5.028
17376SOL    HW254026   8.413   8.940   5.176
17377SOL     OW54027   5.458   5.571  11.817
17377SOL    HW154028   5.440   5.531  11.732
17377SOL    HW254029   5.460   5.496  11.878
17378SOL     OW54030   0.538   0.278   3.172
17378SOL    HW154031   0.545   0.242   3.083
17378SOL    HW254032   0.628   0.295   3.198
17379SOL     OW54033   1.340  12.094  14.772
17379SOL    HW154034   1.274  12.028  14.792
17379SOL    HW254035   1.291  12.176  14.764
17380SOL     OW54036  13.281   4.755   1.100
17380SOL    HW154037  13.207   4.773   1.042
17380SOL    HW254038  13.304   4.663   1.082
17381SOL     OW54039  11.790  10.575  13.635
17381SOL    HW154040  11.866  10.538  13.590
17381SOL    HW254041  11.742  10.499  13.668
17382SOL     OW54042   0.366   6.152   9.486
17382SOL    HW154043   0.435   6.089   9.469
17382SOL    HW254044   0.335   6.132   9.574
17383SOL     OW54045  12.676  10.832   4.758
17383SOL    HW154046  12.756  10.872   4.793
17383SOL    HW254047  12.623  10.813   4.835
17384SOL     OW54048  11.506  12.844   5.340
17384SOL    HW154049  11.462  12.859   5.256
17384SOL    HW254050  11.492  12.925   5.389
17385SOL     OW54051   0.103   2.980  12.052
17385SOL    HW154052   0.026   2.935  12.017
17385SOL    HW254053   0.068   3.039  12.119
17386SOL     OW54054  11.246   3.276   2.682
17386SOL    HW154055  11.285   3.280   2.770
17386SOL    HW254056  11.320   3.285   2.623
17387SOL     OW54057   7.423   9.625   5.926
17387SOL    HW154058   7.367   9.702   5.923
17387SOL    HW254059   7.438   9.602   5.835
17388SOL     OW54060   0.257   0.957   1.727
17388SOL    HW154061   0.204   1.019   1.677
17388SOL    HW254062   0.223   0.963   1.816
17389SOL     OW54063   0.218  13.614   5.319
17389SOL    HW154064   0.299  13.591   5.274
17389SOL    HW254065   0.172  13.530   5.329
17390SOL     OW54066  14.368   0.867   6.260
17390SOL    HW154067  14.399   0.952   6.291
17390SOL    HW254068  14.384   0.869   6.165
17391SOL     OW54069  14.358  12.614  11.799
17391SOL    HW154070  14.361  12.633  11.705
17391SOL    HW254071  14.265  12.596  11.816
17392SOL     OW54072   6.225   5.866   8.975
17392SOL    HW154073   6.261   5.799   8.918
17392SOL    HW254074   6.209   5.821   9.058
17393SOL     OW54075   7.194   0.591  14.596
17393SOL    HW154076   7.269   0.643  14.625
17393SOL    HW254077   7.228   0.539  14.522
17394SOL     OW54078  11.274   4.963   9.416
17394SOL    HW154079  11.183   4.967   9.444
17394SOL    HW254080  11.271   4.986   9.323
17395SOL     OW54081   2.948   1.202   6.676
17395SOL    HW154082   2.907   1.121   6.645
17395SOL    HW254083   2.996   1.176   6.755
17396SOL     OW54084  10.640   0.043   2.142
17396SOL    HW154085  10.694  14.850   2.170
17396SOL    HW254086  10.550   0.014   2.158
17397SOL     OW54087   9.092   1.981   1.151
17397SOL    HW154088   9.039   2.054   1.181
17397SOL    HW254089   9.044   1.945   1.076
17398SOL     OW54090   0.247  12.165  11.103
17398SOL    HW154091   0.180  12.097  11.099
17398SOL    HW254092   0.326  12.123  11.069
17399SOL     OW54093  13.139   5.402   4.277
17399SOL    HW154094  13.135   5.453   4.196
17399SOL    HW254095  13.091   5.454   4.342
17400SOL     OW54096   9.217  14.851   3.983
17400SOL    HW154097   9.283   0.033   4.014
17400SOL    HW254098   9.266  14.770   3.968
17401SOL     OW54099  12.924   5.530   7.806
17401SOL    HW154100  12.952   5.622   7.805
17401SOL    HW254101  12.832   5.534   7.831
17402SOL     OW54102   2.556   5.580   5.121
17402SOL    HW154103   2.483   5.642   5.119
17402SOL    HW254104   2.610   5.604   5.045
17403SOL     OW54105   0.594   6.758   8.536
17403SOL    HW154106   0.551   6.672   8.542
17403SOL    HW254107   0.620   6.765   8.444
17404SOL     OW54108   5.572   8.863  12.487
17404SOL    HW154109   5.557   8.771  12.467
17404SOL    HW254110   5.661   8.880  12.456
17405SOL     OW54111   5.770   0.992   0.452
17405SOL    HW154112   5.799   0.924   0.513
17405SOL    HW254113   5.850   1.040   0.430
17406SOL     OW54114  14.878  13.703  11.487
17406SOL    HW154115  14.801  13.719  11.542
17406SOL    HW254116   0.004  13.607  11.482
17407SOL     OW54117   6.578   5.644   5.264
17407SOL    HW154118   6.582   5.708   5.335
17407SOL    HW254119   6.655   5.662   5.210
17408SOL     OW54120  11.421  13.995   3.451
17408SOL    HW154121  11.387  14.040   3.529
17408SOL    HW254122  11.511  14.027   3.443
17409SOL     OW54123   3.221  13.046  11.453
17409SOL    HW154124   3.216  13.047  11.549
17409SOL    HW254125   3.148  13.099  11.424
17410SOL     OW54126  13.842   4.996   7.559
17410SOL    HW154127  13.780   5.066   7.579
17410SOL    HW254128  13.834   4.934   7.631
17411SOL     OW54129   6.206   7.599  11.050
17411SOL    HW154130   6.211   7.688  11.016
17411SOL    HW254131   6.225   7.607  11.143
17412SOL     OW54132   8.790  13.401  12.632
17412SOL    HW154133   8.772  13.352  12.552
17412SOL    HW254134   8.861  13.461  12.608
17413SOL     OW54135  14.419  11.296  11.907
17413SOL    HW154136  14.399  11.273  11.997
17413SOL    HW254137  14.481  11.369  11.913
17414SOL     OW54138  14.197   6.246  11.869
17414SOL    HW154139  14.212   6.163  11.915
17414SOL    HW254140  14.255   6.309  11.912
17415SOL     OW54141   7.764   5.078  13.368
17415SOL    HW154142   7.846   5.121  13.390
17415SOL    HW254143   7.775   5.048  13.277
17416SOL     OW54144   4.173   9.646   9.108
17416SOL    HW154145   4.119   9.652   9.187
17416SOL    HW254146   4.182   9.552   9.092
17417SOL     OW54147   3.110   2.831   2.559
17417SOL    HW154148   3.163   2.819   2.637
17417SOL    HW254149   3.035   2.884   2.589
17418SOL     OW54150   8.798   9.668   8.942
17418SOL    HW154151   8.764   9.731   8.879
17418SOL    HW254152   8.893   9.680   8.940
17419SOL     OW54153   8.197   4.494  11.504
17419SOL    HW154154   8.116   4.478  11.552
17419SOL    HW254155   8.168   4.537  11.423
17420SOL     OW54156   2.404   7.477   3.025
17420SOL    HW154157   2.474   7.479   3.090
17420SOL    HW254158   2.440   7.426   2.952
17421SOL     OW54159   4.957   1.915  14.820
17421SOL    HW154160   4.946   1.970   0.017
17421SOL    HW254161   5.041   1.943  14.783
17422SOL     OW54162   0.828  14.165   8.189
17422SOL    HW154163   0.923  14.167   8.174
17422SOL    HW254164   0.818  14.122   8.274
17423SOL     OW54165   7.352  11.562   4.629
17423SOL    HW154166   7.305  11.490   4.587
17423SOL    HW254167   7.283  11.621   4.659
17424SOL     OW54168   5.133  11.133  14.154
17424SOL    HW154169   5.164  11.043  14.144
17424SOL    HW254170   5.144  11.172  14.067
17425SOL     OW54171   6.866   9.399  12.775
17425SOL    HW154172   6.959   9.413  12.791
17425SOL    HW254173   6.862   9.361  12.687
17426SOL     OW54174   0.257   3.570   3.351
17426SOL    HW154175   0.190   3.548   3.288
17426SOL    HW254176   0.331   3.601   3.298
17427SOL     OW54177  13.358   4.776   2.503
17427SOL    HW154178  13.414   4.699   2.495
17427SOL    HW254179  13.269   4.741   2.510
17428SOL     OW54180   8.311   8.167   5.767
17428SOL    HW154181   8.400   8.198   5.784
17428SOL    HW254182   8.295   8.101   5.835
17429SOL     OW54183  10.439   1.615  13.273
17429SOL    HW154184  10.485   1.665  13.341
17429SOL    HW254185  10.362   1.667  13.254
17430SOL     OW54186   6.447  12.169   4.993
17430SOL    HW154187   6.373  12.111   5.010
17430SOL    HW254188   6.441  12.236   5.060
17431SOL     OW54189   4.231   8.904  12.846
17431SOL    HW154190   4.186   8.830  12.886
17431SOL    HW254191   4.322   8.895  12.875
17432SOL     OW54192   2.379   5.151  12.736
17432SOL    HW154193   2.313   5.217  12.715
17432SOL    HW254194   2.438   5.195  12.798
17433SOL     OW54195  14.746  12.290  11.217
17433SOL    HW154196  14.830  12.302  11.261
17433SOL    HW254197  14.690  12.359  11.254
17434SOL     OW54198   9.319   7.393  14.647
17434SOL    HW154199   9.287   7.356  14.565
17434SOL    HW254200   9.414   7.395  14.637
17435SOL     OW54201   0.420   9.472   8.341
17435SOL    HW154202   0.396   9.438   8.428
17435SOL    HW254203   0.509   9.440   8.328
17436SOL     OW54204   2.679   6.764   0.037
17436SOL    HW154205   2.611   6.711   0.078
17436SOL    HW254206   2.634   6.816  14.852
17437SOL     OW54207   9.649   9.905   1.956
17437SOL    HW154208   9.625   9.869   1.870
17437SOL    HW254209   9.647  10.000   1.943
17438SOL     OW54210   9.201   6.559  14.204
17438SOL    HW154211   9.146   6.503  14.259
17438SOL    HW254212   9.172   6.541  14.115
17439SOL     OW54213   3.695   1.517   7.360
17439SOL    HW154214   3.711   1.612   7.362
17439SOL    HW254215   3.782   1.478   7.369
17440SOL     OW54216   9.197   7.547  10.299
17440SOL    HW154217   9.186   7.605  10.223
17440SOL    HW254218   9.139   7.473  10.282
17441SOL     OW54219  12.979  14.498   5.284
17441SOL    HW154220  12.948  14.438   5.351
17441SOL    HW254221  13.055  14.454   5.245
17442SOL     OW54222   2.360  13.660  11.954
17442SOL    HW154223   2.423  13.709  11.900
17442SOL    HW254224   2.283  13.717  11.958
17443SOL     OW54225   2.150   7.476   3.991
17443SOL    HW154226   2.194   7.413   4.048
17443SOL    HW254227   2.121   7.426   3.915
17444SOL     OW54228  11.745   9.422  11.281
17444SOL    HW154229  11.807   9.483  11.240
17444SOL    HW254230  11.700   9.381  11.207
17445SOL     OW54231   1.542   0.418  12.612
17445SOL    HW154232   1.489   0.341  12.593
17445SOL    HW254233   1.632   0.391  12.591
17446SOL     OW54234   8.889   7.144  10.493
17446SOL    HW154235   8.950   7.182  10.430
17446SOL    HW254236   8.856   7.218  10.543
17447SOL     OW54237   7.726   9.035   2.769
17447SOL    HW154238   7.806   8.991   2.738
17447SOL    HW254239   7.742   9.051   2.862
17448SOL     OW54240   5.552   3.823   4.657
17448SOL    HW154241   5.485   3.889   4.675
17448SOL    HW254242   5.612   3.829   4.732
17449SOL     OW54243   4.389   4.060   9.691
17449SOL    HW154244   4.471   4.101   9.665
17449SOL    HW254245   4.382   4.077   9.785
17450SOL     OW54246   0.153  14.483   5.423
17450SOL    HW154247   0.069  14.513   5.457
17450SOL    HW254248   0.203  14.563   5.408
17451SOL     OW54249   4.955  12.107   2.904
17451SOL    HW154250   4.887  12.061   2.953
17451SOL    HW254251   5.016  12.039   2.877
17452SOL     OW54252   9.526   6.704   6.413
17452SOL    HW154253   9.612   6.734   6.442
17452SOL    HW254254   9.521   6.732   6.321
17453SOL     OW54255   7.319  12.038   8.524
17453SOL    HW154256   7.232  12.048   8.485
17453SOL    HW254257   7.309  11.968   8.588
17454SOL     OW54258   0.220   7.735   2.461
17454SOL    HW154259   0.161   7.749   2.536
17454SOL    HW254260   0.274   7.661   2.487
17455SOL     OW54261   2.231   7.179   5.230
17455SOL    HW154262   2.156   7.239   5.234
17455SOL    HW254263   2.226   7.141   5.142
17456SOL     OW54264   2.969   7.232  13.000
17456SOL    HW154265   2.940   7.268  12.916
17456SOL    HW254266   2.907   7.266  13.064
17457SOL     OW54267   3.697   2.108   5.390
17457SOL    HW154268   3.610   2.070   5.409
17457SOL    HW254269   3.694   2.194   5.431
17458SOL     OW54270   5.446   1.237   7.245
17458SOL    HW154271   5.398   1.181   7.306
17458SOL    HW254272   5.383   1.305   7.220
17459SOL     OW54273   7.685  10.122   0.201
17459SOL    HW154274   7.682  10.215   0.180
17459SOL    HW254275   7.612  10.084   0.151
17460SOL     OW54276   3.847  13.452  11.539
17460SOL    HW154277   3.850  13.546  11.558
17460SOL    HW254278   3.824  13.412  11.622
17461SOL     OW54279   1.267  12.456  12.082
17461SOL    HW154280   1.317  12.532  12.110
17461SOL    HW254281   1.220  12.485  12.003
17462SOL     OW54282   6.989   0.820   6.242
17462SOL    HW154283   6.953   0.856   6.323
17462SOL    HW254284   7.010   0.729   6.262
17463SOL     OW54285  14.438   2.858  13.544
17463SOL    HW154286  14.343   2.868  13.554
17463SOL    HW254287  14.451   2.836  13.452
17464SOL     OW54288   6.913  11.555   4.124
17464SOL    HW154289   7.007  11.544   4.140
17464SOL    HW254290   6.899  11.518   4.037
17465SOL     OW54291  11.630   3.164   6.873
17465SOL    HW154292  11.650   3.199   6.960
17465SOL    HW254293  11.638   3.238   6.814
17466SOL     OW54294   5.749   5.195   9.659
17466SOL    HW154295   5.690   5.170   9.730
17466SOL    HW254296   5.722   5.283   9.634
17467SOL     OW54297   6.481   4.808  10.664
17467SOL    HW154298   6.569   4.842  10.681
17467SOL    HW254299   6.447   4.786  10.751
17468SOL     OW54300  10.667   4.140   2.930
17468SOL    HW154301  10.754   4.152   2.894
17468SOL    HW254302  10.625   4.076   2.872
17469SOL     OW54303   5.298   4.504   1.801
17469SOL    HW154304   5.204   4.498   1.788
17469SOL    HW254305   5.309   4.557   1.880
17470SOL     OW54306   4.459  14.206   2.192
17470SOL    HW154307   4.523  14.263   2.151
17470SOL    HW254308   4.398  14.182   2.122
17471SOL     OW54309   7.709  11.347   1.213
17471SOL    HW154310   7.749  11.419   1.262
17471SOL    HW254311   7.683  11.284   1.280
17472SOL     OW54312   3.791   0.915   3.631
17472SOL    HW154313   3.874   0.878   3.664
17472SOL    HW254314   3.759   0.969   3.703
17473SOL     OW54315   0.032   9.842   2.472
17473SOL    HW154316  14.842   9.853   2.537
17473SOL    HW254317   0.044   9.748   2.465
17474SOL     OW54318  13.069  11.500  13.030
17474SOL    HW154319  13.074  11.451  12.948
17474SOL    HW254320  13.005  11.453  13.083
17475SOL     OW54321  10.335  12.051  14.195
17475SOL    HW154322  10.311  12.025  14.284
17475SOL    HW254323  10.302  12.140  14.186
17476SOL     OW54324   3.426  13.243   5.613
17476SOL    HW154325   3.488  13.178   5.646
17476SOL    HW254326   3.389  13.282   5.692
17477SOL     OW54327   0.115   9.758   7.826
17477SOL    HW154328   0.192   9.717   7.786
17477SOL    HW254329   0.109   9.717   7.913
17478SOL     OW54330   9.726   9.944  14.058
17478SOL    HW154331   9.803   9.991  14.025
17478SOL    HW254332   9.691   9.899  13.981
17479SOL     OW54333   4.865  12.134   3.345
17479SOL    HW154334   4.790  12.188   3.318
17479SOL    HW254335   4.851  12.051   3.300
17480SOL     OW54336   9.182   8.641   6.753
17480SOL    HW154337   9.226   8.660   6.670
17480SOL    HW254338   9.191   8.546   6.764
17481SOL     OW54339   2.275   8.225   8.835
17481SOL    HW154340   2.246   8.313   8.810
17481SOL    HW254341   2.209   8.166   8.798
17482SOL     OW54342   5.660   8.089   9.649
17482SOL    HW154343   5.627   8.064   9.736
17482SOL    HW254344   5.597   8.051   9.588
17483SOL     OW54345   4.298   9.417   9.932
17483SOL    HW154346   4.270   9.385  10.018
17483SOL    HW254347   4.262   9.505   9.926
17484SOL     OW54348   4.136   1.367  13.238
17484SOL    HW154349   4.068   1.302  13.220
17484SOL    HW254350   4.214   1.334  13.194
17485SOL     OW54351   5.318  14.275  12.250
17485SOL    HW154352   5.408  14.298  12.270
17485SOL    HW254353   5.280  14.251  12.334
17486SOL     OW54354   8.549   9.095   9.863
17486SOL    HW154355   8.558   9.186   9.889
17486SOL    HW254356   8.536   9.097   9.769
17487SOL     OW54357   2.152   6.359   9.338
17487SOL    HW154358   2.205   6.311   9.274
17487SOL    HW254359   2.195   6.444   9.345
17488SOL     OW54360   7.985   0.663   0.063
17488SOL    HW154361   8.024   0.679  14.857
17488SOL    HW254362   8.060   0.645   0.120
17489SOL     OW54363   9.370   3.416   8.583
17489SOL    HW154364   9.370   3.330   8.625
17489SOL    HW254365   9.404   3.400   8.495
17490SOL     OW54366  13.576   3.135  12.073
17490SOL    HW154367  13.643   3.134  12.142
17490SOL    HW254368  13.593   3.216  12.025
17491SOL     OW54369   8.773   5.732  12.055
17491SOL    HW154370   8.710   5.797  12.024
17491SOL    HW254371   8.771   5.663  11.989
17492SOL     OW54372   6.923   5.691  12.743
17492SOL    HW154373   6.895   5.769  12.695
17492SOL    HW254374   6.866   5.622  12.711
17493SOL     OW54375  12.437   9.060  11.427
17493SOL    HW154376  12.363   9.000  11.413
17493SOL    HW254377  12.427   9.091  11.516
17494SOL     OW54378   2.563   0.986   9.911
17494SOL    HW154379   2.622   1.059   9.893
17494SOL    HW254380   2.620   0.912   9.931
17495SOL     OW54381  12.523   1.435  14.166
17495SOL    HW154382  12.488   1.448  14.253
17495SOL    HW254383  12.454   1.389  14.118
17496SOL     OW54384   1.101   6.140  11.863
17496SOL    HW154385   1.174   6.178  11.911
17496SOL    HW254386   1.128   6.143  11.771
17497SOL     OW54387   3.147   2.563   2.068
17497SOL    HW154388   3.166   2.486   2.123
17497SOL    HW254389   3.142   2.528   1.979
17498SOL     OW54390   9.205   5.024  11.975
17498SOL    HW154391   9.141   5.062  11.916
17498SOL    HW254392   9.288   5.063  11.949
17499SOL     OW54393   9.726   8.211   6.793
17499SOL    HW154394   9.645   8.219   6.742
17499SOL    HW254395   9.788   8.170   6.733
17500SOL     OW54396   0.690   2.411   1.114
17500SOL    HW154397   0.646   2.375   1.191
17500SOL    HW254398   0.741   2.337   1.079
17501SOL     OW54399   5.200   0.836  10.039
17501SOL    HW154400   5.118   0.856   9.992
17501SOL    HW254401   5.221   0.917  10.086
17502SOL     OW54402  11.682   0.171   7.687
17502SOL    HW154403  11.591   0.175   7.658
17502SOL    HW254404  11.714   0.085   7.657
17503SOL     OW54405   8.638  11.780   5.376
17503SOL    HW154406   8.660  11.839   5.448
17503SOL    HW254407   8.557  11.737   5.405
17504SOL     OW54408   3.149  11.768  13.595
17504SOL    HW154409   3.219  11.816  13.638
17504SOL    HW254410   3.182  11.753  13.506
17505SOL     OW54411   9.883   3.058  11.340
17505SOL    HW154412   9.883   3.018  11.253
17505SOL    HW254413   9.975   3.068  11.363
17506SOL     OW54414   7.459   2.525   9.670
17506SOL    HW154415   7.435   2.438   9.639
17506SOL    HW254416   7.541   2.545   9.626
17507SOL     OW54417   0.896  14.334  10.418
17507SOL    HW154418   0.816  14.334  10.365
17507SOL    HW254419   0.901  14.422  10.454
17508SOL     OW54420  10.470  11.321   8.323
17508SOL    HW154421  10.551  11.356   8.285
17508SOL    HW254422  10.459  11.235   8.283
17509SOL     OW54423   7.873  10.320   2.563
17509SOL    HW154424   7.916  10.274   2.635
17509SOL    HW254425   7.899  10.412   2.575
17510SOL     OW54426   5.259   2.125   5.404
17510SOL    HW154427   5.308   2.050   5.439
17510SOL    HW254428   5.318   2.164   5.339
17511SOL     OW54429   9.526   6.793   4.850
17511SOL    HW154430   9.459   6.851   4.886
17511SOL    HW254431   9.529   6.718   4.911
17512SOL     OW54432   0.639   1.997   4.090
17512SOL    HW154433   0.713   2.027   4.037
17512SOL    HW254434   0.569   1.981   4.027
17513SOL     OW54435   5.101   4.805   3.233
17513SOL    HW154436   5.192   4.834   3.232
17513SOL    HW254437   5.105   4.715   3.199
17514SOL     OW54438   4.069  12.465   5.833
17514SOL    HW154439   4.164  12.471   5.817
17514SOL    HW254440   4.034  12.427   5.752
17515SOL     OW54441   9.043   2.129  12.133
17515SOL    HW154442   9.051   2.139  12.038
17515SOL    HW254443   9.013   2.214  12.164
17516SOL     OW54444  12.302   1.797   8.290
17516SOL    HW154445  12.323   1.784   8.383
17516SOL    HW254446  12.386   1.789   8.245
17517SOL     OW54447  12.095   3.786   9.852
17517SOL    HW154448  12.149   3.790   9.773
17517SOL    HW254449  12.159   3.793   9.924
17518SOL     OW54450  10.735   7.884  14.297
17518SOL    HW154451  10.649   7.925  14.296
17518SOL    HW254452  10.719   7.791  14.282
17519SOL     OW54453  10.533   5.747   1.813
17519SOL    HW154454  10.482   5.801   1.872
17519SOL    HW254455  10.621   5.783   1.816
17520SOL     OW54456   8.829  12.762   6.623
17520SOL    HW154457   8.849  12.700   6.554
17520SOL    HW254458   8.782  12.711   6.689
17521SOL     OW54459  10.486  12.361   7.613
17521SOL    HW154460  10.543  12.325   7.545
17521SOL    HW254461  10.470  12.286   7.671
17522SOL     OW54462   7.223   7.807  14.634
17522SOL    HW154463   7.281   7.808  14.558
17522SOL    HW254464   7.250   7.730  14.684
17523SOL     OW54465   7.017   5.570   0.608
17523SOL    HW154466   6.941   5.513   0.603
17523SOL    HW254467   7.092   5.511   0.602
17524SOL     OW54468   6.850  13.806   7.974
17524SOL    HW154469   6.811  13.725   8.009
17524SOL    HW254470   6.850  13.867   8.048
17525SOL     OW54471  12.012  13.210   2.652
17525SOL    HW154472  11.962  13.129   2.646
17525SOL    HW254473  12.065  13.213   2.572
17526SOL     OW54474  13.568   7.117   1.652
17526SOL    HW154475  13.644   7.160   1.614
17526SOL    HW254476  13.567   7.030   1.613
17527SOL     OW54477   8.286   1.195  12.830
17527SOL    HW154478   8.358   1.254  12.807
17527SOL    HW254479   8.327   1.129  12.886
17528SOL     OW54480  12.851  13.308   9.512
17528SOL    HW154481  12.873  13.301   9.419
17528SOL    HW254482  12.792  13.235   9.528
17529SOL     OW54483   7.967   0.697   4.739
17529SOL    HW154484   8.021   0.700   4.817
17529SOL    HW254485   8.022   0.656   4.673
17530SOL     OW54486   5.407   2.025  11.207
17530SOL    HW154487   5.423   1.933  11.227
17530SOL    HW254488   5.315   2.039  11.229
17531SOL     OW54489  13.448  12.018   3.706
17531SOL    HW154490  13.541  12.027   3.724
17531SOL    HW254491  13.413  12.107   3.718
17532SOL     OW54492   5.357   8.915  13.520
17532SOL    HW154493   5.402   8.838  13.485
17532SOL    HW254494   5.426   8.979  13.535
17533SOL     OW54495   8.341   4.723   7.257
17533SOL    HW154496   8.387   4.789   7.205
17533SOL    HW254497   8.317   4.655   7.193
17534SOL     OW54498   3.628  13.342   5.965
17534SOL    HW154499   3.646  13.256   5.929
17534SOL    HW254500   3.629  13.330   6.060
17535SOL     OW54501   0.214  13.942  11.052
17535SOL    HW154502   0.175  13.936  11.139
17535SOL    HW254503   0.155  13.891  10.996
17536SOL     OW54504   3.260  11.130   1.851
17536SOL    HW154505   3.174  11.172   1.857
17536SOL    HW254506   3.317  11.198   1.815
17537SOL     OW54507   6.914   4.622   2.466
17537SOL    HW154508   6.964   4.599   2.545
17537SOL    HW254509   6.968   4.688   2.422
17538SOL     OW54510  14.770  10.974   2.538
17538SOL    HW154511  14.677  10.996   2.537
17538SOL    HW254512  14.772  10.878   2.536
17539SOL     OW54513  12.660   2.468   0.280
17539SOL    HW154514  12.732   2.408   0.261
17539SOL    HW254515  12.694   2.554   0.254
17540SOL     OW54516   3.337  13.153   7.080
17540SOL    HW154517   3.267  13.203   7.121
17540SOL    HW254518   3.362  13.088   7.145
17541SOL     OW54519   4.809  10.681   8.002
17541SOL    HW154520   4.792  10.768   8.039
17541SOL    HW254521   4.893  10.690   7.958
17542SOL     OW54522   0.073   0.460   9.804
17542SOL    HW154523   0.012   0.520   9.761
17542SOL    HW254524   0.151   0.461   9.749
17543SOL     OW54525   5.136  10.720  14.824
17543SOL    HW154526   5.101  10.640  14.784
17543SOL    HW254527   5.076  10.738   0.016
17544SOL     OW54528  13.251  14.058   8.593
17544SOL    HW154529  13.272  14.112   8.668
17544SOL    HW254530  13.157  14.041   8.601
17545SOL     OW54531   3.785  13.909  11.077
17545SOL    HW154532   3.879  13.908  11.058
17545SOL    HW254533   3.745  13.868  11.000
17546SOL     OW54534  11.747   2.724  12.168
17546SOL    HW154535  11.671   2.666  12.168
17546SOL    HW254536  11.816   2.673  12.125
17547SOL     OW54537   6.934   9.325   5.254
17547SOL    HW154538   6.944   9.256   5.319
17547SOL    HW254539   6.964   9.286   5.172
17548SOL     OW54540   1.553   8.106   2.445
17548SOL    HW154541   1.593   8.019   2.443
17548SOL    HW254542   1.459   8.089   2.452
17549SOL     OW54543   1.239   5.711   1.553
17549SOL    HW154544   1.232   5.716   1.649
17549SOL    HW254545   1.150   5.728   1.522
17550SOL     OW54546  10.649   1.256   9.645
17550SOL    HW154547  10.692   1.187   9.697
17550SOL    HW254548  10.694   1.253   9.561
17551SOL     OW54549  11.584   5.525   9.339
17551SOL    HW154550  11.675   5.530   9.310
17551SOL    HW254551  11.585   5.463   9.412
17552SOL     OW54552   4.281   8.328  10.410
17552SOL    HW154553   4.246   8.257  10.356
17552SOL    HW254554   4.211   8.347  10.473
17553SOL     OW54555   5.763  12.718   9.278
17553SOL    HW154556   5.820  12.695   9.205
17553SOL    HW254557   5.675  12.722   9.240
17554SOL     OW54558  14.642   9.068   1.817
17554SOL    HW154559  14.574   9.066   1.884
17554SOL    HW254560  14.602   9.028   1.740
17555SOL     OW54561   3.831  11.321   6.851
17555SOL    HW154562   3.904  11.280   6.806
17555SOL    HW254563   3.872  11.378   6.916
17556SOL     OW54564  10.077   9.251   9.468
17556SOL    HW154565  10.026   9.286   9.541
17556SOL    HW254566  10.011   9.234   9.400
17557SOL     OW54567   8.093   5.428  10.449
17557SOL    HW154568   8.180   5.445  10.414
17557SOL    HW254569   8.044   5.390  10.376
17558SOL     OW54570   4.396   1.070   8.609
17558SOL    HW154571   4.413   1.015   8.533
17558SOL    HW254572   4.308   1.106   8.594
17559SOL     OW54573   7.604   7.381   6.804
17559SOL    HW154574   7.672   7.449   6.804
17559SOL    HW254575   7.584   7.367   6.712
17560SOL     OW54576   4.610   2.622   0.032
17560SOL    HW154577   4.622   2.551  14.850
17560SOL    HW254578   4.525   2.604   0.072
17561SOL     OW54579   4.992  10.296  14.198
17561SOL    HW154580   5.069  10.244  14.176
17561SOL    HW254581   4.944  10.243  14.262
17562SOL     OW54582  12.186   3.243   6.679
17562SOL    HW154583  12.141   3.327   6.677
17562SOL    HW254584  12.134   3.188   6.738
17563SOL     OW54585  11.059   5.215   7.915
17563SOL    HW154586  11.010   5.275   7.971
17563SOL    HW254587  11.148   5.251   7.915
17564SOL     OW54588   0.622   4.419  12.186
17564SOL    HW154589   0.608   4.458  12.272
17564SOL    HW254590   0.543   4.367  12.170
17565SOL     OW54591   5.697  14.461   8.080
17565SOL    HW154592   5.636  14.512   8.134
17565SOL    HW254593   5.720  14.519   8.008
17566SOL     OW54594   8.420   8.203   7.612
17566SOL    HW154595   8.339   8.153   7.615
17566SOL    HW254596   8.392   8.294   7.621
17567SOL     OW54597  13.833  10.262   3.131
17567SOL    HW154598  13.761  10.290   3.188
17567SOL    HW254599  13.794  10.194   3.075
17568SOL     OW54600   4.752   3.233  13.668
17568SOL    HW154601   4.796   3.303  13.619
17568SOL    HW254602   4.748   3.160  13.607
17569SOL     OW54603   9.923   7.008   2.035
17569SOL    HW154604   9.998   7.054   2.073
17569SOL    HW254605   9.895   7.065   1.964
17570SOL     OW54606   3.158   6.933   7.621
17570SOL    HW154607   3.201   6.856   7.657
17570SOL    HW254608   3.065   6.920   7.638
17571SOL     OW54609   8.799  10.981   1.023
17571SOL    HW154610   8.798  10.980   1.119
17571SOL    HW254611   8.765  10.895   0.998
17572SOL     OW54612  10.238   7.188   7.238
17572SOL    HW154613  10.243   7.250   7.166
17572SOL    HW254614  10.262   7.103   7.199
17573SOL     OW54615   6.924  14.161  11.449
17573SOL    HW154616   6.887  14.160  11.538
17573SOL    HW254617   6.995  14.225  11.453
17574SOL     OW54618   9.354   7.443  11.224
17574SOL    HW154619   9.394   7.500  11.160
17574SOL    HW254620   9.365   7.488  11.308
17575SOL     OW54621   1.723  11.916  13.238
17575SOL    HW154622   1.753  11.994  13.192
17575SOL    HW254623   1.752  11.929  13.329
17576SOL     OW54624   6.394   9.040  11.807
17576SOL    HW154625   6.398   9.107  11.740
17576SOL    HW254626   6.337   9.076  11.874
17577SOL     OW54627  10.819  14.341   2.378
17577SOL    HW154628  10.844  14.381   2.295
17577SOL    HW254629  10.876  14.264   2.386
17578SOL     OW54630   3.557   0.619   9.564
17578SOL    HW154631   3.561   0.568   9.644
17578SOL    HW254632   3.530   0.706   9.592
17579SOL     OW54633   8.630   5.250  13.228
17579SOL    HW154634   8.721   5.230  13.246
17579SOL    HW254635   8.593   5.169  13.194
17580SOL     OW54636   5.598  11.372   2.775
17580SOL    HW154637   5.650  11.330   2.707
17580SOL    HW254638   5.546  11.438   2.728
17581SOL     OW54639  10.342  11.098  10.841
17581SOL    HW154640  10.420  11.051  10.812
17581SOL    HW254641  10.283  11.096  10.766
17582SOL     OW54642   4.377   2.777   8.841
17582SOL    HW154643   4.472   2.790   8.840
17582SOL    HW254644   4.343   2.855   8.885
17583SOL     OW54645   7.604   6.462  11.910
17583SOL    HW154646   7.587   6.383  11.961
17583SOL    HW254647   7.697   6.480  11.924
17584SOL     OW54648  14.456   3.259   8.384
17584SOL    HW154649  14.469   3.348   8.417
17584SOL    HW254650  14.402   3.216   8.451
17585SOL     OW54651  11.841   6.926   1.099
17585SOL    HW154652  11.784   6.926   1.022
17585SOL    HW254653  11.891   7.007   1.091
17586SOL     OW54654   8.522   6.155   6.442
17586SOL    HW154655   8.491   6.189   6.526
17586SOL    HW254656   8.534   6.061   6.457
17587SOL     OW54657  14.408   0.645  12.524
17587SOL    HW154658  14.367   0.562  12.547
17587SOL    HW254659  14.334   0.704  12.507
17588SOL     OW54660   2.249   6.494  13.101
17588SOL    HW154661   2.222   6.520  13.013
17588SOL    HW254662   2.331   6.447  13.089
17589SOL     OW54663   1.463   1.109   9.365
17589SOL    HW154664   1.376   1.074   9.382
17589SOL    HW254665   1.456   1.202   9.383
17590SOL     OW54666   1.177   8.586   8.894
17590SOL    HW154667   1.116   8.591   8.821
17590SOL    HW254668   1.249   8.532   8.861
17591SOL     OW54669   1.519  12.455   4.397
17591SOL    HW154670   1.596  12.474   4.342
17591SOL    HW254671   1.508  12.360   4.389
17592SOL     OW54672   4.361  13.767  13.810
17592SOL    HW154673   4.441  13.748  13.859
17592SOL    HW254674   4.380  13.848  13.763
17593SOL     OW54675   5.125   2.522   9.552
17593SOL    HW154676   5.148   2.449   9.609
17593SOL    HW254677   5.043   2.496   9.512
17594SOL     OW54678   6.392  13.460   9.317
17594SOL    HW154679   6.420  13.423   9.234
17594SOL    HW254680   6.310  13.506   9.297
17595SOL     OW54681   3.694   7.482   4.694
17595SOL    HW154682   3.699   7.405   4.750
17595SOL    HW254683   3.724   7.554   4.749
17596SOL     OW54684   3.095   6.287  13.871
17596SOL    HW154685   3.153   6.319  13.941
17596SOL    HW254686   3.115   6.343  13.796
17597SOL     OW54687   2.370   0.056  12.247
17597SOL    HW154688   2.304  14.867  12.243
17597SOL    HW254689   2.391   0.074  12.156
17598SOL     OW54690   3.965   4.818   1.291
17598SOL    HW154691   3.945   4.872   1.215
17598SOL    HW254692   3.990   4.881   1.359
17599SOL     OW54693   0.117   7.043   7.823
17599SOL    HW154694   0.079   7.126   7.793
17599SOL    HW254695   0.135   6.995   7.742
17600SOL     OW54696   5.229  12.591   6.659
17600SOL    HW154697   5.299  12.570   6.720
17600SOL    HW254698   5.274  12.629   6.583
17601SOL     OW54699   0.997   9.976   5.913
17601SOL    HW154700   0.983   9.991   6.006
17601SOL    HW254701   0.921  10.016   5.870
17602SOL     OW54702  10.669  13.658  11.941
17602SOL    HW154703  10.654  13.589  11.876
17602SOL    HW254704  10.612  13.730  11.912
17603SOL     OW54705   6.545  11.734   3.332
17603SOL    HW154706   6.630  11.758   3.367
17603SOL    HW254707   6.516  11.661   3.387
17604SOL     OW54708  12.459  12.905  11.969
17604SOL    HW154709  12.528  12.887  12.033
17604SOL    HW254710  12.461  12.830  11.910
17605SOL     OW54711   5.032   8.915   9.468
17605SOL    HW154712   5.094   8.889   9.536
17605SOL    HW254713   5.058   8.864   9.391
17606SOL     OW54714   3.354  13.193  14.270
17606SOL    HW154715   3.383  13.182  14.180
17606SOL    HW254716   3.433  13.182  14.323
17607SOL     OW54717   9.688  10.046  13.098
17607SOL    HW154718   9.777  10.013  13.082
17607SOL    HW254719   9.644  10.036  13.014
17608SOL     OW54720  13.206   3.785  11.781
17608SOL    HW154721  13.163   3.862  11.743
17608SOL    HW254722  13.293   3.816  11.804
17609SOL     OW54723   4.672   5.025  11.860
17609SOL    HW154724   4.593   5.077  11.875
17609SOL    HW254725   4.682   5.024  11.765
17610SOL     OW54726   4.537   3.825  13.501
17610SOL    HW154727   4.621   3.792  13.533
17610SOL    HW254728   4.529   3.788  13.413
17611SOL     OW54729   5.624   7.052   2.755
17611SOL    HW154730   5.694   7.087   2.809
17611SOL    HW254731   5.608   6.965   2.789
17612SOL     OW54732   0.445   7.995   1.586
17612SOL    HW154733   0.397   8.078   1.587
17612SOL    HW254734   0.533   8.018   1.614
17613SOL     OW54735   5.424   1.982   3.702
17613SOL    HW154736   5.385   1.898   3.680
17613SOL    HW254737   5.384   2.006   3.786
17614SOL     OW54738   1.207   5.618  12.804
17614SOL    HW154739   1.245   5.685  12.862
17614SOL    HW254740   1.114   5.641  12.798
17615SOL     OW54741  12.912  13.738   0.468
17615SOL    HW154742  12.839  13.676   0.463
17615SOL    HW254743  12.905  13.777   0.555
17616SOL     OW54744   4.931   8.865   8.934
17616SOL    HW154745   4.850   8.873   8.883
17616SOL    HW254746   4.902   8.844   9.023
17617SOL     OW54747  10.410  13.853   7.143
17617SOL    HW154748  10.420  13.927   7.203
17617SOL    HW254749  10.497  13.841   7.105
17618SOL     OW54750   0.723   7.083  11.259
17618SOL    HW154751   0.714   7.161  11.204
17618SOL    HW254752   0.704   7.113  11.348
17619SOL     OW54753   6.297   4.108   2.118
17619SOL    HW154754   6.206   4.107   2.147
17619SOL    HW254755   6.320   4.201   2.113
17620SOL     OW54756   4.256   6.451  13.662
17620SOL    HW154757   4.205   6.531  13.658
17620SOL    HW254758   4.203   6.390  13.713
17621SOL     OW54759   3.657  13.777   4.448
17621SOL    HW154760   3.665  13.697   4.500
17621SOL    HW254761   3.675  13.749   4.358
17622SOL     OW54762   5.932  12.565   7.044
17622SOL    HW154763   5.905  12.597   6.958
17622SOL    HW254764   6.023  12.536   7.031
17623SOL     OW54765   5.945   6.395  13.237
17623SOL    HW154766   5.978   6.459  13.174
17623SOL    HW254767   5.932   6.315  13.185
17624SOL     OW54768  11.289   5.229   8.138
17624SOL    HW154769  11.382   5.246   8.121
17624SOL    HW254770  11.287   5.138   8.167
17625SOL     OW54771   6.067  11.019   3.756
17625SOL    HW154772   6.156  11.008   3.792
17625SOL    HW254773   6.076  10.999   3.663
17626SOL     OW54774   3.852  13.465   9.914
17626SOL    HW154775   3.923  13.421   9.867
17626SOL    HW254776   3.810  13.395   9.965
17627SOL     OW54777   2.244   3.737   7.065
17627SOL    HW154778   2.226   3.803   7.132
17627SOL    HW254779   2.166   3.738   7.010
17628SOL     OW54780   4.058   7.136  12.110
17628SOL    HW154781   4.152   7.125  12.126
17628SOL    HW254782   4.026   7.048  12.091
17629SOL     OW54783   0.298  12.239  13.165
17629SOL    HW154784   0.260  12.217  13.250
17629SOL    HW254785   0.291  12.158  13.114
17630SOL     OW54786  14.489   5.841   5.372
17630SOL    HW154787  14.480   5.774   5.439
17630SOL    HW254788  14.408   5.837   5.322
17631SOL     OW54789   3.946   7.354   8.446
17631SOL    HW154790   3.922   7.288   8.511
17631SOL    HW254791   4.014   7.312   8.393
17632SOL     OW54792   9.924   7.227  12.384
17632SOL    HW154793   9.879   7.264  12.309
17632SOL    HW254794  10.016   7.248  12.371
17633SOL     OW54795  14.327  14.107   2.804
17633SOL    HW154796  14.384  14.031   2.820
17633SOL    HW254797  14.378  14.163   2.745
17634SOL     OW54798  14.679   0.117   7.627
17634SOL    HW154799  14.694   0.147   7.717
17634SOL    HW254800  14.595   0.071   7.631
17635SOL     OW54801   2.137   1.521  13.213
17635SOL    HW154802   2.125   1.524  13.308
17635SOL    HW254803   2.062   1.568  13.178
17636SOL     OW54804   3.508   8.572  14.217
17636SOL    HW154805   3.536   8.513  14.148
17636SOL    HW254806   3.417   8.547  14.235
17637SOL     OW54807  13.486   0.711   8.632
17637SOL    HW154808  13.407   0.657   8.633
17637SOL    HW254809  13.543   0.670   8.697
17638SOL     OW54810   5.579   0.699   3.351
17638SOL    HW154811   5.491   0.685   3.318
17638SOL    HW254812   5.637   0.657   3.287
17639SOL     OW54813   5.336   8.522   7.390
17639SOL    HW154814   5.240   8.529   7.386
17639SOL    HW254815   5.366   8.613   7.398
17640SOL     OW54816  13.129   8.210   7.488
17640SOL    HW154817  13.150   8.233   7.397
17640SOL    HW254818  13.213   8.215   7.534
17641SOL     OW54819  11.464   4.058   1.639
17641SOL    HW154820  11.484   4.032   1.729
17641SOL    HW254821  11.370   4.047   1.631
17642SOL     OW54822  13.838  14.535   5.135
17642SOL    HW154823  13.903  14.548   5.067
17642SOL    HW254824  13.762  14.498   5.090
17643SOL     OW54825   3.048  14.824   1.150
17643SOL    HW154826   3.095  14.741   1.148
17643SOL    HW254827   3.065  14.864   1.064
17644SOL     OW54828   0.118   3.524   2.746
17644SOL    HW154829   0.133   3.462   2.818
17644SOL    HW254830   0.103   3.608   2.790
17645SOL     OW54831   5.669  12.562   9.724
17645SOL    HW154832   5.740  12.571   9.660
17645SOL    HW254833   5.711  12.583   9.808
17646SOL     OW54834  14.796   4.589   7.484
17646SOL    HW154835  14.845   4.510   7.508
17646SOL    HW254836  14.844   4.660   7.526
17647SOL     OW54837  14.275   7.604   2.192
17647SOL    HW154838  14.254   7.683   2.141
17647SOL    HW254839  14.307   7.541   2.127
17648SOL     OW54840  14.587   1.719   6.980
17648SOL    HW154841  14.511   1.669   7.010
17648SOL    HW254842  14.633   1.660   6.921
17649SOL     OW54843   8.729   7.207  10.860
17649SOL    HW154844   8.724   7.111  10.856
17649SOL    HW254845   8.653   7.233  10.911
17650SOL     OW54846   6.525  10.572  13.716
17650SOL    HW154847   6.511  10.478  13.722
17650SOL    HW254848   6.445  10.606  13.675
17651SOL     OW54849  13.780  13.167   5.064
17651SOL    HW154850  13.785  13.228   4.990
17651SOL    HW254851  13.688  13.168   5.090
17652SOL     OW54852   2.351   8.393   8.554
17652SOL    HW154853   2.423   8.373   8.494
17652SOL    HW254854   2.343   8.315   8.609
17653SOL     OW54855   8.974   6.491   9.159
17653SOL    HW154856   9.024   6.450   9.231
17653SOL    HW254857   9.031   6.561   9.128
17654SOL     OW54858   1.172   7.092   0.568
17654SOL    HW154859   1.157   7.117   0.477
17654SOL    HW254860   1.177   7.175   0.615
17655SOL     OW54861   1.070  12.381  13.717
17655SOL    HW154862   1.027  12.326  13.652
17655SOL    HW254863   1.103  12.456  13.667
17656SOL     OW54864   9.460   1.565  12.253
17656SOL    HW154865   9.475   1.612  12.335
17656SOL    HW254866   9.439   1.476  12.279
17657SOL     OW54867   6.745  13.695   5.783
17657SOL    HW154868   6.786  13.694   5.869
17657SOL    HW254869   6.743  13.602   5.757
17658SOL     OW54870   5.107   7.362   0.960
17658SOL    HW154871   5.173   7.307   0.918
17658SOL    HW254872   5.154   7.443   0.980
17659SOL     OW54873   5.099  14.165   3.699
17659SOL    HW154874   5.109  14.256   3.671
17659SOL    HW254875   5.094  14.169   3.794
17660SOL     OW54876  10.543   4.539  12.226
17660SOL    HW154877  10.585   4.534  12.140
17660SOL    HW254878  10.541   4.448  12.257
17661SOL     OW54879  10.283   3.047   6.921
17661SOL    HW154880  10.284   3.090   7.006
17661SOL    HW254881  10.333   3.105   6.864
17662SOL     OW54882   4.920   5.366   0.900
17662SOL    HW154883   4.850   5.425   0.874
17662SOL    HW254884   5.000   5.418   0.889
17663SOL     OW54885   2.236   6.857   6.101
17663SOL    HW154886   2.222   6.905   6.182
17663SOL    HW254887   2.301   6.908   6.053
17664SOL     OW54888   1.591   6.150   0.919
17664SOL    HW154889   1.677   6.134   0.881
17664SOL    HW254890   1.607   6.217   0.986
17665SOL     OW54891   9.694  10.447  12.103
17665SOL    HW154892   9.700  10.355  12.078
17665SOL    HW254893   9.784  10.474  12.119
17666SOL     OW54894  14.501  10.601   9.089
17666SOL    HW154895  14.461  10.652   9.018
17666SOL    HW254896  14.432  10.596   9.156
17667SOL     OW54897   9.092  12.790   4.065
17667SOL    HW154898   9.112  12.807   3.973
17667SOL    HW254899   8.997  12.774   4.066
17668SOL     OW54900  11.165   9.516  11.976
17668SOL    HW154901  11.133   9.458  11.907
17668SOL    HW254902  11.117   9.489  12.054
17669SOL     OW54903   9.946   3.034   3.841
17669SOL    HW154904  10.036   3.051   3.812
17669SOL    HW254905   9.924   2.949   3.803
17670SOL     OW54906   2.523   5.255   4.709
17670SOL    HW154907   2.577   5.317   4.758
17670SOL    HW254908   2.499   5.302   4.629
17671SOL     OW54909  13.570  14.744  12.976
17671SOL    HW154910  13.594  14.836  12.987
17671SOL    HW254911  13.483  14.738  13.015
17672SOL     OW54912  13.655  10.892   1.223
17672SOL    HW154913  13.640  10.856   1.310
17672SOL    HW254914  13.750  10.896   1.215
17673SOL     OW54915   4.987   4.467   2.303
17673SOL    HW154916   4.999   4.446   2.211
17673SOL    HW254917   4.969   4.561   2.305
17674SOL     OW54918   0.416  10.202   4.752
17674SOL    HW154919   0.436  10.113   4.783
17674SOL    HW254920   0.502  10.238   4.729
17675SOL     OW54921  12.996   0.041   0.670
17675SOL    HW154922  12.911   0.037   0.625
17675SOL    HW254923  12.974   0.059   0.761
17676SOL     OW54924  13.546  10.914  14.369
17676SOL    HW154925  13.575  10.966  14.444
17676SOL    HW254926  13.627  10.883  14.329
17677SOL     OW54927   1.822  13.509  10.885
17677SOL    HW154928   1.766  13.575  10.927
17677SOL    HW254929   1.804  13.520  10.791
17678SOL     OW54930   5.842   1.910   8.221
17678SOL    HW154931   5.823   1.891   8.313
17678SOL    HW254932   5.788   1.846   8.173
17679SOL     OW54933   3.179  10.506  14.237
17679SOL    HW154934   3.258  10.529  14.287
17679SOL    HW254935   3.154  10.420  14.270
17680SOL     OW54936  14.466   9.093  12.126
17680SOL    HW154937  14.523   9.094  12.049
17680SOL    HW254938  14.417   9.011  12.118
17681SOL     OW54939   1.730   8.259   5.562
17681SOL    HW154940   1.738   8.168   5.590
17681SOL    HW254941   1.643   8.286   5.592
17682SOL     OW54942  14.678   6.895   0.884
17682SOL    HW154943  14.767   6.922   0.904
17682SOL    HW254944  14.679   6.877   0.790
17683SOL     OW54945   1.459   1.354   0.448
17683SOL    HW154946   1.511   1.274   0.459
17683SOL    HW254947   1.486   1.410   0.520
17684SOL     OW54948   0.904   6.036   0.310
17684SOL    HW154949   0.888   5.963   0.369
17684SOL    HW254950   0.987   6.073   0.340
17685SOL     OW54951   5.992  14.501   3.745
17685SOL    HW154952   6.010  14.449   3.823
17685SOL    HW254953   5.985  14.437   3.674
17686SOL     OW54954  13.094  10.019   8.073
17686SOL    HW154955  13.030  10.001   8.142
17686SOL    HW254956  13.095  10.114   8.065
17687SOL     OW54957   7.919   6.735   7.939
17687SOL    HW154958   7.932   6.641   7.927
17687SOL    HW254959   7.980   6.759   8.008
17688SOL     OW54960  14.079   7.438   5.516
17688SOL    HW154961  14.132   7.489   5.455
17688SOL    HW254962  14.142   7.409   5.583
17689SOL     OW54963   1.591   4.618   3.570
17689SOL    HW154964   1.573   4.671   3.648
17689SOL    HW254965   1.632   4.679   3.509
17690SOL     OW54966  13.257   1.348   4.659
17690SOL    HW154967  13.261   1.440   4.685
17690SOL    HW254968  13.337   1.309   4.695
17691SOL     OW54969   7.224   4.594   0.820
17691SOL    HW154970   7.279   4.523   0.854
17691SOL    HW254971   7.135   4.560   0.824
17692SOL     OW54972   2.470   6.075  14.532
17692SOL    HW154973   2.507   6.035  14.453
17692SOL    HW254974   2.380   6.097  14.509
17693SOL     OW54975   5.475  12.943   2.630
17693SOL    HW154976   5.474  12.999   2.553
17693SOL    HW254977   5.557  12.894   2.623
17694SOL     OW54978  10.526  10.535   3.543
17694SOL    HW154979  10.595  10.469   3.551
17694SOL    HW254980  10.459  10.493   3.490
17695SOL     OW54981   3.800  14.827   0.092
17695SOL    HW154982   3.890  14.820   0.062
17695SOL    HW254983   3.767  14.737   0.091
17696SOL     OW54984   2.168   1.707  10.485
17696SOL    HW154985   2.092   1.764  10.473
17696SOL    HW254986   2.243   1.763  10.463
17697SOL     OW54987   4.644  10.483   8.078
17697SOL    HW154988   4.705  10.551   8.049
17697SOL    HW254989   4.558  10.521   8.062
17698SOL     OW54990  13.122   9.938   6.012
17698SOL    HW154991  13.100  10.016   6.063
17698SOL    HW254992  13.207   9.910   6.047
17699SOL     OW54993  13.108  13.358   9.671
17699SOL    HW154994  13.036  13.333   9.614
17699SOL    HW254995  13.186  13.352   9.615
17700SOL     OW54996   5.450   6.879  11.529
17700SOL    HW154997   5.386   6.950  11.531
17700SOL    HW254998   5.523   6.910  11.582
17701SOL     OW54999   9.334   3.095   1.511
17701SOL    HW155000   9.265   3.124   1.571
17701SOL    HW255001   9.340   3.165   1.446
17702SOL     OW55002   7.720   3.470   4.805
17702SOL    HW155003   7.670   3.546   4.775
17702SOL    HW255004   7.759   3.499   4.888
17703SOL     OW55005   1.526   3.069   3.553
17703SOL    HW155006   1.553   2.980   3.530
17703SOL    HW255007   1.454   3.057   3.614
17704SOL     OW55008   2.322   2.814   8.740
17704SOL    HW155009   2.256   2.748   8.723
17704SOL    HW255010   2.273   2.892   8.767
17705SOL     OW55011  12.675   1.933   0.050
17705SOL    HW155012  12.701   2.012   0.098
17705SOL    HW255013  12.583   1.921   0.072
17706SOL     OW55014   1.312  12.388   7.972
17706SOL    HW155015   1.326  12.418   8.062
17706SOL    HW255016   1.263  12.459   7.930
17707SOL     OW55017   1.587   3.619   8.125
17707SOL    HW155018   1.532   3.600   8.048
17707SOL    HW255019   1.618   3.709   8.110
17708SOL     OW55020  10.015  13.443   9.260
17708SOL    HW155021  10.095  13.469   9.306
17708SOL    HW255022  10.045  13.418   9.172
17709SOL     OW55023  14.260  14.781  12.521
17709SOL    HW155024  14.236  14.694  12.487
17709SOL    HW255025  14.321  14.762  12.592
17710SOL     OW55026   8.086   3.716  14.224
17710SOL    HW155027   8.141   3.667  14.285
17710SOL    HW255028   8.039   3.779  14.278
17711SOL     OW55029  11.782  13.271   6.917
17711SOL    HW155030  11.766  13.213   6.842
17711SOL    HW255031  11.810  13.212   6.987
17712SOL     OW55032  12.493   1.330   7.756
17712SOL    HW155033  12.499   1.260   7.821
17712SOL    HW255034  12.447   1.290   7.682
17713SOL     OW55035   7.822   5.212   6.965
17713SOL    HW155036   7.729   5.229   6.978
17713SOL    HW255037   7.829   5.118   6.954
17714SOL     OW55038   2.988   5.475   6.087
17714SOL    HW155039   3.082   5.466   6.103
17714SOL    HW255040   2.982   5.517   6.001
17715SOL     OW55041   7.777  12.540  13.260
17715SOL    HW155042   7.814  12.485  13.329
17715SOL    HW255043   7.745  12.617  13.306
17716SOL     OW55044   7.835   9.407  10.900
17716SOL    HW155045   7.858   9.315  10.917
17716SOL    HW255046   7.745   9.404  10.870
17717SOL     OW55047   4.219   1.092   4.462
17717SOL    HW155048   4.165   1.141   4.524
17717SOL    HW255049   4.175   1.007   4.454
17718SOL     OW55050  14.285  10.258   8.812
17718SOL    HW155051  14.313  10.342   8.776
17718SOL    HW255052  14.362  10.225   8.858
17719SOL     OW55053   9.846   8.841   5.892
17719SOL    HW155054   9.806   8.787   5.961
17719SOL    HW255055   9.857   8.927   5.933
17720SOL     OW55056   0.691   6.332   7.042
17720SOL    HW155057   0.741   6.401   6.998
17720SOL    HW255058   0.742   6.252   7.025
17721SOL     OW55059   1.192   1.842  14.480
17721SOL    HW155060   1.166   1.860  14.570
17721SOL    HW255061   1.185   1.926  14.435
17722SOL     OW55062   9.758  10.873  12.606
17722SOL    HW155063   9.851  10.862  12.589
17722SOL    HW255064   9.752  10.892  12.700
17723SOL     OW55065   6.070   3.319  14.089
17723SOL    HW155066   6.051   3.404  14.129
17723SOL    HW255067   6.164   3.307  14.103
17724SOL     OW55068   6.628  13.898   3.722
17724SOL    HW155069   6.547  13.918   3.676
17724SOL    HW255070   6.659  13.817   3.681
17725SOL     OW55071  11.963   3.130   1.251
17725SOL    HW155072  11.903   3.124   1.177
17725SOL    HW255073  11.908   3.123   1.329
17726SOL     OW55074   6.333  13.262   0.240
17726SOL    HW155075   6.413  13.275   0.291
17726SOL    HW255076   6.262  13.281   0.302
17727SOL     OW55077   3.690   2.206   4.227
17727SOL    HW155078   3.669   2.117   4.254
17727SOL    HW255079   3.711   2.199   4.134
17728SOL     OW55080   1.182  14.747   6.648
17728SOL    HW155081   1.142  14.833   6.661
17728SOL    HW255082   1.194  14.740   6.553
17729SOL     OW55083   7.209   9.540   2.375
17729SOL    HW155084   7.283   9.531   2.314
17729SOL    HW255085   7.155   9.463   2.359
17730SOL     OW55086   2.843   3.121   1.851
17730SOL    HW155087   2.844   3.045   1.909
17730SOL    HW255088   2.869   3.194   1.907
17731SOL     OW55089   7.767   7.122   2.390
17731SOL    HW155090   7.748   7.206   2.432
17731SOL    HW255091   7.693   7.066   2.413
17732SOL     OW55092  14.079   2.543   8.303
17732SOL    HW155093  13.992   2.510   8.326
17732SOL    HW255094  14.135   2.465   8.300
17733SOL     OW55095  10.038  13.894  12.533
17733SOL    HW155096  10.115  13.893  12.591
17733SOL    HW255097   9.973  13.841  12.580
17734SOL     OW55098  10.730   1.901  12.811
17734SOL    HW155099  10.770   1.826  12.768
17734SOL    HW255100  10.803   1.960  12.829
17735SOL     OW55101   9.331   9.869  12.221
17735SOL    HW155102   9.397   9.938  12.214
17735SOL    HW255103   9.249   9.915  12.234
17736SOL     OW55104  10.549   9.495   0.455
17736SOL    HW155105  10.476   9.462   0.508
17736SOL    HW255106  10.619   9.431   0.467
17737SOL     OW55107  14.781   3.872  13.792
17737SOL    HW155108  14.759   3.779  13.796
17737SOL    HW255109  14.817   3.892  13.878
17738SOL     OW55110  11.798  11.903  14.507
17738SOL    HW155111  11.889  11.923  14.483
17738SOL    HW255112  11.754  11.884  14.424
17739SOL     OW55113   0.572   5.293  12.762
17739SOL    HW155114   0.516   5.339  12.823
17739SOL    HW255115   0.654   5.343  12.761
17740SOL     OW55116  13.915   6.604  11.766
17740SOL    HW155117  13.828   6.573  11.739
17740SOL    HW255118  13.908   6.699  11.763
17741SOL     OW55119   2.915  12.394  14.117
17741SOL    HW155120   2.904  12.368  14.025
17741SOL    HW255121   2.883  12.484  14.120
17742SOL     OW55122  12.863   2.254   5.627
17742SOL    HW155123  12.866   2.232   5.720
17742SOL    HW255124  12.780   2.299   5.615
17743SOL     OW55125   8.311   3.662   4.351
17743SOL    HW155126   8.332   3.747   4.390
17743SOL    HW255127   8.395   3.616   4.348
17744SOL     OW55128   4.219   2.728   9.821
17744SOL    HW155129   4.286   2.779   9.866
17744SOL    HW255130   4.239   2.739   9.728
17745SOL     OW55131  10.964  11.417   5.799
17745SOL    HW155132  10.957  11.509   5.824
17745SOL    HW255133  10.928  11.413   5.710
17746SOL     OW55134  12.830  14.482   4.796
17746SOL    HW155135  12.744  14.504   4.761
17746SOL    HW255136  12.834  14.526   4.881
17747SOL     OW55137   6.965   4.451  13.393
17747SOL    HW155138   7.032   4.518  13.393
17747SOL    HW255139   6.887   4.494  13.357
17748SOL     OW55140  11.470   9.232  12.635
17748SOL    HW155141  11.497   9.147  12.601
17748SOL    HW255142  11.551   9.282  12.642
17749SOL     OW55143  13.587   8.820   1.995
17749SOL    HW155144  13.596   8.852   2.085
17749SOL    HW255145  13.641   8.741   1.992
17750SOL     OW55146   2.932   7.748   7.975
17750SOL    HW155147   2.935   7.817   7.910
17750SOL    HW255148   2.842   7.716   7.972
17751SOL     OW55149   6.809   5.631   7.325
17751SOL    HW155150   6.800   5.596   7.236
17751SOL    HW255151   6.888   5.685   7.322
17752SOL     OW55152   2.842  11.455  10.607
17752SOL    HW155153   2.900  11.517  10.652
17752SOL    HW255154   2.877  11.369  10.629
17753SOL     OW55155   2.491   4.668   3.689
17753SOL    HW155156   2.534   4.599   3.740
17753SOL    HW255157   2.472   4.627   3.605
17754SOL     OW55158   3.162  12.027   6.166
17754SOL    HW155159   3.175  12.057   6.256
17754SOL    HW255160   3.197  11.938   6.164
17755SOL     OW55161   7.433   4.498   1.901
17755SOL    HW155162   7.508   4.486   1.844
17755SOL    HW255163   7.366   4.440   1.866
17756SOL     OW55164   3.509   1.838  14.165
17756SOL    HW155165   3.558   1.865  14.243
17756SOL    HW255166   3.436   1.787  14.199
17757SOL     OW55167   9.725   3.645   6.027
17757SOL    HW155168   9.666   3.591   5.974
17757SOL    HW255169   9.775   3.583   6.080
17758SOL     OW55170   3.876  14.602  10.909
17758SOL    HW155171   3.787  14.636  10.899
17758SOL    HW255172   3.870  14.543  10.984
17759SOL     OW55173  10.280   9.479   9.742
17759SOL    HW155174  10.197   9.525   9.733
17759SOL    HW255175  10.310   9.499   9.830
17760SOL     OW55176   4.251  13.405   0.898
17760SOL    HW155177   4.230  13.397   0.991
17760SOL    HW255178   4.276  13.317   0.872
17761SOL     OW55179   9.338  10.096   5.837
17761SOL    HW155180   9.276  10.148   5.785
17761SOL    HW255181   9.394  10.053   5.772
17762SOL     OW55182  12.103   1.760  13.142
17762SOL    HW155183  12.168   1.830  13.147
17762SOL    HW255184  12.036   1.784  13.205
17763SOL     OW55185   3.043   9.628   8.542
17763SOL    HW155186   3.123   9.669   8.509
17763SOL    HW255187   2.997   9.599   8.463
17764SOL     OW55188  12.262   3.528   4.636
17764SOL    HW155189  12.313   3.456   4.598
17764SOL    HW255190  12.194   3.546   4.572
17765SOL     OW55191   3.538  10.512  14.559
17765SOL    HW155192   3.627  10.479  14.572
17765SOL    HW255193   3.506  10.462  14.484
17766SOL     OW55194   9.787   1.031   9.923
17766SOL    HW155195   9.836   0.974   9.864
17766SOL    HW255196   9.708   1.054   9.874
17767SOL     OW55197   1.002  12.622  10.372
17767SOL    HW155198   0.971  12.710  10.393
17767SOL    HW255199   0.966  12.604  10.286
17768SOL     OW55200   1.112   6.221   6.454
17768SOL    HW155201   1.194   6.172   6.449
17768SOL    HW255202   1.045   6.158   6.429
17769SOL     OW55203   4.972   3.289  13.176
17769SOL    HW155204   4.969   3.373  13.129
17769SOL    HW255205   4.956   3.223  13.108
17770SOL     OW55206   7.511  11.048  10.189
17770SOL    HW155207   7.472  11.015  10.270
17770SOL    HW255208   7.593  11.088  10.217
17771SOL     OW55209   7.236   6.855   0.689
17771SOL    HW155210   7.213   6.841   0.781
17771SOL    HW255211   7.153   6.848   0.642
17772SOL     OW55212   7.890   1.266  11.433
17772SOL    HW155213   7.847   1.214  11.365
17772SOL    HW255214   7.818   1.308  11.480
17773SOL     OW55215  14.684  13.319  14.091
17773SOL    HW155216  14.675  13.225  14.080
17773SOL    HW255217  14.595  13.353  14.086
17774SOL     OW55218   9.824   1.454   9.413
17774SOL    HW155219   9.836   1.375   9.360
17774SOL    HW255220   9.907   1.465   9.458
17775SOL     OW55221   3.487   1.806   6.613
17775SOL    HW155222   3.575   1.837   6.634
17775SOL    HW255223   3.501   1.716   6.584
17776SOL     OW55224   2.682  14.428   6.943
17776SOL    HW155225   2.632  14.406   7.022
17776SOL    HW255226   2.738  14.353   6.929
17777SOL     OW55227   9.289  10.942   6.843
17777SOL    HW155228   9.381  10.944   6.871
17777SOL    HW255229   9.244  10.889   6.908
17778SOL     OW55230   9.629   2.186  14.422
17778SOL    HW155231   9.711   2.211  14.379
17778SOL    HW255232   9.575   2.151  14.351
17779SOL     OW55233   4.274   5.192   9.831
17779SOL    HW155234   4.224   5.266   9.796
17779SOL    HW255235   4.275   5.206   9.925
17780SOL     OW55236   6.636  11.943   8.251
17780SOL    HW155237   6.628  12.032   8.285
17780SOL    HW255238   6.575  11.892   8.304
17781SOL     OW55239  12.016   0.361  11.475
17781SOL    HW155240  12.072   0.310  11.417
17781SOL    HW255241  11.987   0.298  11.542
17782SOL     OW55242  13.630   8.525   0.543
17782SOL    HW155243  13.700   8.529   0.478
17782SOL    HW255244  13.668   8.560   0.623
17783SOL     OW55245  10.326   7.487  11.577
17783SOL    HW155246  10.373   7.571  11.578
17783SOL    HW255247  10.294   7.476  11.667
17784SOL     OW55248  13.691   2.114   4.291
17784SOL    HW155249  13.787   2.120   4.291
17784SOL    HW255250  13.662   2.193   4.337
17785SOL     OW55251  11.360   1.577   8.859
17785SOL    HW155252  11.336   1.596   8.769
17785SOL    HW255253  11.277   1.563   8.904
17786SOL     OW55254   8.790   6.294   2.061
17786SOL    HW155255   8.708   6.293   2.013
17786SOL    HW255256   8.820   6.385   2.057
17787SOL     OW55257   6.973  10.255  13.443
17787SOL    HW155258   6.881  10.263  13.466
17787SOL    HW255259   7.014  10.333  13.481
17788SOL     OW55260   0.668  12.866   5.735
17788SOL    HW155261   0.617  12.937   5.774
17788SOL    HW255262   0.757  12.878   5.770
17789SOL     OW55263  14.655   0.102   1.563
17789SOL    HW155264  14.589   0.099   1.494
17789SOL    HW255265  14.630   0.177   1.617
17790SOL     OW55266  12.511   6.957   2.465
17790SOL    HW155267  12.499   7.009   2.544
17790SOL    HW255268  12.568   6.885   2.492
17791SOL     OW55269  13.880   1.533   1.778
17791SOL    HW155270  13.821   1.459   1.763
17791SOL    HW255271  13.822   1.607   1.792
17792SOL     OW55272  13.241   0.973  11.837
17792SOL    HW155273  13.260   1.022  11.757
17792SOL    HW255274  13.326   0.943  11.868
17793SOL     OW55275   8.538   9.320  13.897
17793SOL    HW155276   8.611   9.331  13.835
17793SOL    HW255277   8.515   9.228  13.891
17794SOL     OW55278   6.647   1.492   1.792
17794SOL    HW155279   6.570   1.436   1.804
17794SOL    HW255280   6.722   1.433   1.804
17795SOL     OW55281   9.780   3.535  11.996
17795SOL    HW155282   9.827   3.460  11.959
17795SOL    HW255283   9.748   3.503  12.081
17796SOL     OW55284  11.440   6.200   6.811
17796SOL    HW155285  11.369   6.212   6.748
17796SOL    HW255286  11.490   6.281   6.806
17797SOL     OW55287   3.073   3.237   8.152
17797SOL    HW155288   3.010   3.187   8.205
17797SOL    HW255289   3.089   3.316   8.203
17798SOL     OW55290  12.682   6.444  13.991
17798SOL    HW155291  12.682   6.513  14.057
17798SOL    HW255292  12.590   6.439  13.961
17799SOL     OW55293   6.297   5.132  12.126
17799SOL    HW155294   6.221   5.127  12.183
17799SOL    HW255295   6.318   5.041  12.105
17800SOL     OW55296   3.934   3.510  13.101
17800SOL    HW155297   4.000   3.475  13.042
17800SOL    HW255298   3.855   3.517  13.047
17801SOL     OW55299   4.912   1.839  14.093
17801SOL    HW155300   4.892   1.909  14.031
17801SOL    HW255301   4.989   1.795  14.057
17802SOL     OW55302   6.691  13.820   8.735
17802SOL    HW155303   6.617  13.835   8.676
17802SOL    HW255304   6.763  13.794   8.678
17803SOL     OW55305   6.864   1.755   0.175
17803SOL    HW155306   6.874   1.848   0.153
17803SOL    HW255307   6.919   1.709   0.112
17804SOL     OW55308  11.025   1.977   4.306
17804SOL    HW155309  11.015   2.063   4.348
17804SOL    HW255310  11.109   1.983   4.260
17805SOL     OW55311   9.303   6.193   8.505
17805SOL    HW155312   9.377   6.166   8.451
17805SOL    HW255313   9.330   6.276   8.543
17806SOL     OW55314   7.793  12.782   1.173
17806SOL    HW155315   7.722  12.726   1.143
17806SOL    HW255316   7.821  12.743   1.256
17807SOL     OW55317   8.971   4.950   2.940
17807SOL    HW155318   8.906   5.010   2.977
17807SOL    HW255319   8.921   4.890   2.886
17808SOL     OW55320   2.654   7.182  11.810
17808SOL    HW155321   2.663   7.159  11.902
17808SOL    HW255322   2.735   7.152  11.769
17809SOL     OW55323   9.011  14.313  12.918
17809SOL    HW155324   8.937  14.269  12.877
17809SOL    HW255325   9.051  14.246  12.974
17810SOL     OW55326  10.382   9.143   5.223
17810SOL    HW155327  10.429   9.121   5.142
17810SOL    HW255328  10.290   9.136   5.200
17811SOL     OW55329  11.965   8.911   4.504
17811SOL    HW155330  12.031   8.868   4.451
17811SOL    HW255331  11.890   8.851   4.502
17812SOL     OW55332  11.385   9.166   6.263
17812SOL    HW155333  11.341   9.227   6.322
17812SOL    HW255334  11.445   9.117   6.320
17813SOL     OW55335   7.918   3.421   6.046
17813SOL    HW155336   7.943   3.436   6.137
17813SOL    HW255337   7.982   3.358   6.013
17814SOL     OW55338   1.189   3.087  13.944
17814SOL    HW155339   1.146   3.140  14.011
17814SOL    HW255340   1.245   3.027  13.993
17815SOL     OW55341   7.640   5.398   2.231
17815SOL    HW155342   7.709   5.454   2.194
17815SOL    HW255343   7.612   5.444   2.310
17816SOL     OW55344  11.377   9.410  12.941
17816SOL    HW155345  11.390   9.316  12.953
17816SOL    HW255346  11.324   9.437  13.016
17817SOL     OW55347  10.350   0.043  12.658
17817SOL    HW155348  10.384   0.130  12.681
17817SOL    HW255349  10.428  14.874  12.632
17818SOL     OW55350   0.684  10.831   4.519
17818SOL    HW155351   0.641  10.861   4.439
17818SOL    HW255352   0.657  10.895   4.585
17819SOL     OW55353   0.783  12.479   2.604
17819SOL    HW155354   0.729  12.469   2.683
17819SOL    HW255355   0.841  12.553   2.624
17820SOL     OW55356   6.778  12.336  13.355
17820SOL    HW155357   6.771  12.274  13.282
17820SOL    HW255358   6.867  12.323  13.389
17821SOL     OW55359   9.292   2.173   6.161
17821SOL    HW155360   9.243   2.207   6.236
17821SOL    HW255361   9.375   2.220   6.163
17822SOL     OW55362   0.167  11.176  10.303
17822SOL    HW155363   0.123  11.144  10.381
17822SOL    HW255364   0.259  11.155  10.316
17823SOL     OW55365  12.080   2.488   3.954
17823SOL    HW155366  12.173   2.493   3.933
17823SOL    HW255367  12.063   2.567   4.007
17824SOL     OW55368  14.491  14.878   4.744
17824SOL    HW155369  14.493   0.082   4.699
17824SOL    HW255370  14.556  14.825   4.698
17825SOL     OW55371  11.971   3.135  12.119
17825SOL    HW155372  11.895   3.079  12.137
17825SOL    HW255373  11.973   3.142  12.024
17826SOL     OW55374   7.205   9.681   3.515
17826SOL    HW155375   7.197   9.730   3.597
17826SOL    HW255376   7.169   9.595   3.536
17827SOL     OW55377  14.429   8.845   5.288
17827SOL    HW155378  14.522   8.866   5.287
17827SOL    HW255379  14.413   8.806   5.202
17828SOL     OW55380   7.361   7.706  13.154
17828SOL    HW155381   7.385   7.674  13.068
17828SOL    HW255382   7.412   7.653  13.215
17829SOL     OW55383   3.191  12.432   5.579
17829SOL    HW155384   3.157  12.481   5.655
17829SOL    HW255385   3.260  12.377   5.615
17830SOL     OW55386  14.302  12.421   7.136
17830SOL    HW155387  14.315  12.468   7.219
17830SOL    HW255388  14.384  12.374   7.122
17831SOL     OW55389  13.627   5.475   4.887
17831SOL    HW155390  13.695   5.541   4.896
17831SOL    HW255391  13.595   5.486   4.797
17832SOL     OW55392   0.316   4.155  10.398
17832SOL    HW155393   0.277   4.232  10.441
17832SOL    HW255394   0.371   4.115  10.466
17833SOL     OW55395  11.160   5.925  11.038
17833SOL    HW155396  11.068   5.928  11.012
17833SOL    HW255397  11.196   6.008  11.009
17834SOL     OW55398   3.699   1.534   9.209
17834SOL    HW155399   3.695   1.502   9.299
17834SOL    HW255400   3.788   1.567   9.199
17835SOL     OW55401   7.813   0.380  14.057
17835SOL    HW155402   7.838   0.461  14.103
17835SOL    HW255403   7.729   0.356  14.095
17836SOL     OW55404  13.464   4.171   1.424
17836SOL    HW155405  13.521   4.103   1.461
17836SOL    HW255406  13.404   4.124   1.366
17837SOL     OW55407  13.570   5.149   9.047
17837SOL    HW155408  13.621   5.185   8.974
17837SOL    HW255409  13.480   5.146   9.015
17838SOL     OW55410   7.832  11.636   6.078
17838SOL    HW155411   7.762  11.690   6.042
17838SOL    HW255412   7.823  11.645   6.173
17839SOL     OW55413   0.143  14.016   4.570
17839SOL    HW155414   0.077  14.066   4.521
17839SOL    HW255415   0.094  13.943   4.608
17840SOL     OW55416  12.263  11.387   5.078
17840SOL    HW155417  12.341  11.440   5.091
17840SOL    HW255418  12.222  11.421   4.999
17841SOL     OW55419   2.630   7.222  10.584
17841SOL    HW155420   2.578   7.166  10.526
17841SOL    HW255421   2.692   7.163  10.626
17842SOL     OW55422  12.949  11.108  12.446
17842SOL    HW155423  12.988  11.157  12.518
17842SOL    HW255424  12.861  11.143  12.438
17843SOL     OW55425   4.516   4.146   1.331
17843SOL    HW155426   4.535   4.240   1.326
17843SOL    HW255427   4.434   4.136   1.283
17844SOL     OW55428   8.828  14.535   7.686
17844SOL    HW155429   8.877  14.597   7.739
17844SOL    HW255430   8.863  14.449   7.710
17845SOL     OW55431   3.565   6.149   4.235
17845SOL    HW155432   3.485   6.105   4.206
17845SOL    HW255433   3.572   6.226   4.178
17846SOL     OW55434   4.747   5.128   8.738
17846SOL    HW155435   4.767   5.126   8.832
17846SOL    HW255436   4.681   5.197   8.729
17847SOL     OW55437   6.343  13.584   8.760
17847SOL    HW155438   6.299  13.584   8.845
17847SOL    HW255439   6.283  13.536   8.702
17848SOL     OW55440   0.201   7.059   0.291
17848SOL    HW155441   0.257   7.076   0.215
17848SOL    HW255442   0.202   7.142   0.340
17849SOL     OW55443   4.180   0.547   5.585
17849SOL    HW155444   4.142   0.574   5.669
17849SOL    HW255445   4.242   0.478   5.607
17850SOL     OW55446  14.791   7.776  14.034
17850SOL    HW155447  14.830   7.857  14.067
17850SOL    HW255448  14.835   7.707  14.083
17851SOL     OW55449   8.291   0.636  10.477
17851SOL    HW155450   8.274   0.600  10.564
17851SOL    HW255451   8.385   0.626  10.465
17852SOL     OW55452   2.174   8.987  10.002
17852SOL    HW155453   2.165   9.078   9.973
17852SOL    HW255454   2.137   8.935   9.931
17853SOL     OW55455   8.708   6.432   4.548
17853SOL    HW155456   8.711   6.507   4.488
17853SOL    HW255457   8.788   6.384   4.530
17854SOL     OW55458  10.881   4.494   7.865
17854SOL    HW155459  10.862   4.476   7.957
17854SOL    HW255460  10.798   4.526   7.829
17855SOL     OW55461   6.825   6.254  14.777
17855SOL    HW155462   6.769   6.319  14.818
17855SOL    HW255463   6.899   6.305  14.743
17856SOL     OW55464   4.456   6.332   5.042
17856SOL    HW155465   4.531   6.275   5.026
17856SOL    HW255466   4.494   6.416   5.068
17857SOL     OW55467   1.979   4.769   9.708
17857SOL    HW155468   2.050   4.810   9.659
17857SOL    HW255469   1.914   4.839   9.718
17858SOL     OW55470  12.221  13.680   9.947
17858SOL    HW155471  12.182  13.665   9.861
17858SOL    HW255472  12.289  13.745   9.931
17859SOL     OW55473   0.674   8.768  10.817
17859SOL    HW155474   0.639   8.679  10.805
17859SOL    HW255475   0.769   8.756  10.814
17860SOL     OW55476   5.513   0.615   9.040
17860SOL    HW155477   5.462   0.621   8.959
17860SOL    HW255478   5.505   0.702   9.080
17861SOL     OW55479   5.764   0.808   8.245
17861SOL    HW155480   5.801   0.792   8.158
17861SOL    HW255481   5.692   0.746   8.252
17862SOL     OW55482   9.492   7.813   4.745
17862SOL    HW155483   9.404   7.849   4.754
17862SOL    HW255484   9.502   7.797   4.652
17863SOL     OW55485   2.897   6.185  14.532
17863SOL    HW155486   2.966   6.224  14.585
17863SOL    HW255487   2.862   6.258  14.480
17864SOL     OW55488   5.084   0.549  10.982
17864SOL    HW155489   5.007   0.507  10.944
17864SOL    HW255490   5.144   0.477  11.001
17865SOL     OW55491   3.714   9.876   4.835
17865SOL    HW155492   3.770   9.891   4.912
17865SOL    HW255493   3.691   9.784   4.841
17866SOL     OW55494   9.670   3.191  11.670
17866SOL    HW155495   9.654   3.135  11.746
17866SOL    HW255496   9.676   3.130  11.596
17867SOL     OW55497  13.908   1.718   4.752
17867SOL    HW155498  13.918   1.801   4.799
17867SOL    HW255499  13.994   1.703   4.712
17868SOL     OW55500   8.707   4.192   6.732
17868SOL    HW155501   8.662   4.252   6.673
17868SOL    HW255502   8.665   4.206   6.817
17869SOL     OW55503   1.418   0.702   9.787
17869SOL    HW155504   1.374   0.776   9.829
17869SOL    HW255505   1.472   0.741   9.719
17870SOL     OW55506  12.924   3.845   8.819
17870SOL    HW155507  12.871   3.771   8.847
17870SOL    HW255508  12.930   3.837   8.724
17871SOL     OW55509  12.370   2.673   1.323
17871SOL    HW155510  12.423   2.742   1.284
17871SOL    HW255511  12.318   2.718   1.389
17872SOL     OW55512   6.712   4.818  12.824
17872SOL    HW155513   6.722   4.725  12.804
17872SOL    HW255514   6.759   4.830  12.906
17873SOL     OW55515   7.136   6.610  10.866
17873SOL    HW155516   7.184   6.608  10.949
17873SOL    HW255517   7.056   6.658  10.886
17874SOL     OW55518   1.834   3.152   0.324
17874SOL    HW155519   1.881   3.070   0.337
17874SOL    HW255520   1.858   3.181   0.236
17875SOL     OW55521   6.240   1.337   2.064
17875SOL    HW155522   6.229   1.418   2.114
17875SOL    HW255523   6.156   1.324   2.021
17876SOL     OW55524   3.376   4.393  12.620
17876SOL    HW155525   3.287   4.430  12.622
17876SOL    HW255526   3.406   4.400  12.710
17877SOL     OW55527  14.655   8.199  10.039
17877SOL    HW155528  14.642   8.105  10.026
17877SOL    HW255529  14.579   8.227  10.090
17878SOL     OW55530   0.264   2.692   2.195
17878SOL    HW155531   0.245   2.600   2.175
17878SOL    HW255532   0.266   2.697   2.290
17879SOL     OW55533  12.399   6.041   2.255
17879SOL    HW155534  12.477   6.093   2.235
17879SOL    HW255535  12.416   6.004   2.342
17880SOL     OW55536   0.982   9.470   2.007
17880SOL    HW155537   0.995   9.382   1.970
17880SOL    HW255538   1.038   9.472   2.084
17881SOL     OW55539  11.689   0.503   6.981
17881SOL    HW155540  11.714   0.472   6.893
17881SOL    HW255541  11.611   0.557   6.966
17882SOL     OW55542   5.842  11.214   8.028
17882SOL    HW155543   5.908  11.171   8.082
17882SOL    HW255544   5.773  11.148   8.018
17883SOL     OW55545   3.763  14.762  12.978
17883SOL    HW155546   3.799  14.673  12.970
17883SOL    HW255547   3.739  14.771  13.070
17884SOL     OW55548   5.786   0.779   0.974
17884SOL    HW155549   5.814   0.729   1.051
17884SOL    HW255550   5.804   0.870   0.997
17885SOL     OW55551   5.140   1.756  13.957
17885SOL    HW155552   5.204   1.697  13.918
17885SOL    HW255553   5.180   1.843  13.950
17886SOL     OW55554   1.684  10.566   9.156
17886SOL    HW155555   1.629  10.533   9.085
17886SOL    HW255556   1.622  10.595   9.223
17887SOL     OW55557   3.515   2.627   8.644
17887SOL    HW155558   3.576   2.553   8.652
17887SOL    HW255559   3.546   2.676   8.568
17888SOL     OW55560   3.474  12.065   0.121
17888SOL    HW155561   3.383  12.036   0.133
17888SOL    HW255562   3.467  12.139   0.060
17889SOL     OW55563   5.597  13.473   8.634
17889SOL    HW155564   5.636  13.558   8.615
17889SOL    HW255565   5.507  13.480   8.601
17890SOL     OW55566  10.703  10.107   0.082
17890SOL    HW155567  10.788  10.085   0.121
17890SOL    HW255568  10.723  10.131  14.872
17891SOL     OW55569   9.637   8.065  11.368
17891SOL    HW155570   9.578   8.103  11.303
17891SOL    HW255571   9.629   8.124  11.444
17892SOL     OW55572  13.505  13.200   2.069
17892SOL    HW155573  13.414  13.186   2.045
17892SOL    HW255574  13.504  13.282   2.120
17893SOL     OW55575   1.967  13.029  12.812
17893SOL    HW155576   1.956  13.011  12.905
17893SOL    HW255577   2.061  13.046  12.802
17894SOL     OW55578  10.701   2.179   4.136
17894SOL    HW155579  10.674   2.253   4.190
17894SOL    HW255580  10.642   2.108   4.161
17895SOL     OW55581   3.835   6.154   1.541
17895SOL    HW155582   3.896   6.219   1.578
17895SOL    HW255583   3.868   6.070   1.573
17896SOL     OW55584   8.894   8.635  12.994
17896SOL    HW155585   8.844   8.620  13.074
17896SOL    HW255586   8.960   8.700  13.019
17897SOL     OW55587   0.906   9.357  11.774
17897SOL    HW155588   0.814   9.331  11.768
17897SOL    HW255589   0.948   9.282  11.815
17898SOL     OW55590   2.590   9.183   0.504
17898SOL    HW155591   2.600   9.091   0.529
17898SOL    HW255592   2.502   9.189   0.467
17899SOL     OW55593   8.339   2.449  12.814
17899SOL    HW155594   8.293   2.393  12.751
17899SOL    HW255595   8.303   2.536  12.799
17900SOL     OW55596  11.489  13.363   4.705
17900SOL    HW155597  11.539  13.330   4.631
17900SOL    HW255598  11.453  13.447   4.675
17901SOL     OW55599   1.139   8.676   3.572
17901SOL    HW155600   1.126   8.614   3.500
17901SOL    HW255601   1.207   8.636   3.626
17902SOL     OW55602   7.568  14.302   0.011
17902SOL    HW155603   7.597  14.221  14.848
17902SOL    HW255604   7.482  14.319  14.854
17903SOL     OW55605   8.240  14.837   6.235
17903SOL    HW155606   8.282  14.780   6.170
17903SOL    HW255607   8.176   0.007   6.184
17904SOL     OW55608   7.217   9.775   4.072
17904SOL    HW155609   7.295   9.776   4.127
17904SOL    HW255610   7.147   9.806   4.130
17905SOL     OW55611   8.506   8.635  12.771
17905SOL    HW155612   8.510   8.711  12.829
17905SOL    HW255613   8.559   8.660  12.695
17906SOL     OW55614  13.902  11.619  10.982
17906SOL    HW155615  13.879  11.706  10.951
17906SOL    HW255616  13.975  11.632  11.042
17907SOL     OW55617   0.730   6.159  10.043
17907SOL    HW155618   0.650   6.112  10.022
17907SOL    HW255619   0.798   6.118   9.990
17908SOL     OW55620   5.612   9.103   8.332
17908SOL    HW155621   5.703   9.074   8.321
17908SOL    HW255622   5.568   9.077   8.251
17909SOL     OW55623   3.406   8.053   2.537
17909SOL    HW155624   3.324   8.100   2.549
17909SOL    HW255625   3.436   8.034   2.627
17910SOL     OW55626  10.676  11.700   1.292
17910SOL    HW155627  10.589  11.675   1.324
17910SOL    HW255628  10.678  11.670   1.201
17911SOL     OW55629  10.977  11.910   3.472
17911SOL    HW155630  10.968  11.820   3.505
17911SOL    HW255631  11.064  11.938   3.500
17912SOL     OW55632   8.235   8.370   6.588
17912SOL    HW155633   8.313   8.422   6.571
17912SOL    HW255634   8.240   8.350   6.682
17913SOL     OW55635   9.267   2.994   5.257
17913SOL    HW155636   9.240   3.049   5.183
17913SOL    HW255637   9.196   2.931   5.267
17914SOL     OW55638   8.115   2.828   1.086
17914SOL    HW155639   8.180   2.783   1.140
17914SOL    HW255640   8.094   2.765   1.016
17915SOL     OW55641   1.825  11.296   8.812
17915SOL    HW155642   1.865  11.332   8.733
17915SOL    HW255643   1.880  11.327   8.884
17916SOL     OW55644  12.660  14.455  14.023
17916SOL    HW155645  12.754  14.467  14.009
17916SOL    HW255646  12.641  14.503  14.103
17917SOL     OW55647   3.296   1.484   1.238
17917SOL    HW155648   3.359   1.416   1.215
17917SOL    HW255649   3.339   1.566   1.213
17918SOL     OW55650   1.078  10.156   9.754
17918SOL    HW155651   1.097  10.126   9.665
17918SOL    HW255652   1.116  10.089   9.810
17919SOL     OW55653   3.086   5.792   5.251
17919SOL    HW155654   3.174   5.804   5.288
17919SOL    HW255655   3.027   5.825   5.319
17920SOL     OW55656  12.031  12.461  14.629
17920SOL    HW155657  12.097  12.432  14.566
17920SOL    HW255658  12.055  12.551  14.648
17921SOL     OW55659   1.712  10.577  11.551
17921SOL    HW155660   1.738  10.658  11.507
17921SOL    HW255661   1.793  10.547  11.594
17922SOL     OW55662   7.761   9.059   3.251
17922SOL    HW155663   7.709   9.084   3.327
17922SOL    HW255664   7.761   8.963   3.252
17923SOL     OW55665   9.426  12.881   4.124
17923SOL    HW155666   9.496  12.946   4.138
17923SOL    HW255667   9.473  12.799   4.108
17924SOL     OW55668   0.276   7.943   3.059
17924SOL    HW155669   0.227   7.901   2.988
17924SOL    HW255670   0.331   8.008   3.016
17925SOL     OW55671   3.829  10.335   1.087
17925SOL    HW155672   3.831  10.388   1.167
17925SOL    HW255673   3.903  10.366   1.035
17926SOL     OW55674   0.373  12.767  12.949
17926SOL    HW155675   0.296  12.793  12.899
17926SOL    HW255676   0.342  12.757  13.039
17927SOL     OW55677   8.275   5.493   3.235
17927SOL    HW155678   8.305   5.458   3.319
17927SOL    HW255679   8.287   5.587   3.243
17928SOL     OW55680  11.670   8.135   0.400
17928SOL    HW155681  11.731   8.207   0.418
17928SOL    HW255682  11.584   8.171   0.418
17929SOL     OW55683   5.917   6.334  12.028
17929SOL    HW155684   6.010   6.327  12.008
17929SOL    HW255685   5.895   6.251  12.069
17930SOL     OW55686  14.464   3.675   4.474
17930SOL    HW155687  14.454   3.612   4.402
17930SOL    HW255688  14.449   3.760   4.433
17931SOL     OW55689  12.165   4.957   5.510
17931SOL    HW155690  12.149   5.049   5.487
17931SOL    HW255691  12.107   4.908   5.453
17932SOL     OW55692   4.696   8.295  11.916
17932SOL    HW155693   4.744   8.255  11.844
17932SOL    HW255694   4.707   8.389  11.902
17933SOL     OW55695  11.055  10.401   2.821
17933SOL    HW155696  11.149  10.398   2.807
17933SOL    HW255697  11.031  10.493   2.805
17934SOL     OW55698   5.571  13.318   1.058
17934SOL    HW155699   5.632  13.247   1.076
17934SOL    HW255700   5.603  13.357   0.976
17935SOL     OW55701   6.524   5.469   8.049
17935SOL    HW155702   6.561   5.484   7.962
17935SOL    HW255703   6.441   5.517   8.048
17936SOL     OW55704   6.047   8.327   1.497
17936SOL    HW155705   5.980   8.395   1.502
17936SOL    HW255706   6.036   8.290   1.410
17937SOL     OW55707  12.263  11.816  10.225
17937SOL    HW155708  12.208  11.794  10.150
17937SOL    HW255709  12.266  11.736  10.277
17938SOL     OW55710   6.660   0.708   5.203
17938SOL    HW155711   6.688   0.676   5.117
17938SOL    HW255712   6.635   0.799   5.188
17939SOL     OW55713   9.867   2.497  10.144
17939SOL    HW155714   9.933   2.510  10.212
17939SOL    HW255715   9.915   2.506  10.061
17940SOL     OW55716   1.348  10.651  13.753
17940SOL    HW155717   1.327  10.700  13.673
17940SOL    HW255718   1.337  10.715  13.823
17941SOL     OW55719  13.890   0.437  12.444
17941SOL    HW155720  13.940   0.356  12.439
17941SOL    HW255721  13.955   0.506  12.428
17942SOL     OW55722   3.427  12.141   1.708
17942SOL    HW155723   3.351  12.141   1.650
17942SOL    HW255724   3.428  12.228   1.747
17943SOL     OW55725  10.989  12.914   7.160
17943SOL    HW155726  11.051  12.939   7.229
17943SOL    HW255727  10.972  12.821   7.175
17944SOL     OW55728   0.206  12.525   2.341
17944SOL    HW155729   0.203  12.431   2.323
17944SOL    HW255730   0.169  12.533   2.429
17945SOL     OW55731  13.629   0.793  11.702
17945SOL    HW155732  13.711   0.750  11.679
17945SOL    HW255733  13.564   0.722  11.705
17946SOL     OW55734   2.732  11.517   3.668
17946SOL    HW155735   2.663  11.567   3.625
17946SOL    HW255736   2.808  11.575   3.667
17947SOL     OW55737   0.751   7.893   4.686
17947SOL    HW155738   0.677   7.867   4.631
17947SOL    HW255739   0.827   7.882   4.630
17948SOL     OW55740   9.988   2.683   2.955
17948SOL    HW155741  10.039   2.602   2.947
17948SOL    HW255742   9.967   2.707   2.864
17949SOL     OW55743   3.198  14.569  10.167
17949SOL    HW155744   3.247  14.637  10.120
17949SOL    HW255745   3.195  14.599  10.258
17950SOL     OW55746   8.580   0.608  10.548
17950SOL    HW155747   8.663   0.562  10.538
17950SOL    HW255748   8.597   0.696  10.516
17951SOL     OW55749   7.671   5.410   8.525
17951SOL    HW155750   7.746   5.362   8.559
17951SOL    HW255751   7.671   5.393   8.431
17952SOL     OW55752  10.613  13.469   5.997
17952SOL    HW155753  10.610  13.562   6.021
17952SOL    HW255754  10.529  13.434   6.027
17953SOL     OW55755   7.001   5.958   1.758
17953SOL    HW155756   7.022   6.044   1.723
17953SOL    HW255757   7.059   5.949   1.834
17954SOL     OW55758  12.053   4.644   0.396
17954SOL    HW155759  11.997   4.588   0.450
17954SOL    HW255760  11.993   4.683   0.333
17955SOL     OW55761   6.693  11.275   0.417
17955SOL    HW155762   6.655  11.361   0.401
17955SOL    HW255763   6.628  11.213   0.383
17956SOL     OW55764   2.290   9.210   5.534
17956SOL    HW155765   2.301   9.127   5.580
17956SOL    HW255766   2.281   9.275   5.604
17957SOL     OW55767   4.893   9.251   1.365
17957SOL    HW155768   4.910   9.187   1.434
17957SOL    HW255769   4.978   9.260   1.320
17958SOL     OW55770   5.066  12.349  12.369
17958SOL    HW155771   5.109  12.326  12.286
17958SOL    HW255772   4.974  12.357  12.346
17959SOL     OW55773   1.360   3.323  14.528
17959SOL    HW155774   1.286   3.362  14.481
17959SOL    HW255775   1.434   3.380  14.507
17960SOL     OW55776   4.710  11.691   4.037
17960SOL    HW155777   4.660  11.619   4.077
17960SOL    HW255778   4.788  11.648   4.001
17961SOL     OW55779   8.269   4.139   9.878
17961SOL    HW155780   8.222   4.185   9.808
17961SOL    HW255781   8.212   4.147   9.954
17962SOL     OW55782   9.683   0.967   1.228
17962SOL    HW155783   9.704   1.009   1.312
17962SOL    HW255784   9.685   1.039   1.165
17963SOL     OW55785  12.173  10.624  10.648
17963SOL    HW155786  12.091  10.635  10.600
17963SOL    HW255787  12.233  10.585  10.584
17964SOL     OW55788   8.013  10.359   3.986
17964SOL    HW155789   7.988  10.373   3.894
17964SOL    HW255790   8.071  10.431   4.007
17965SOL     OW55791   6.968  10.810  10.292
17965SOL    HW155792   6.935  10.831  10.204
17965SOL    HW255793   6.916  10.864  10.351
17966SOL     OW55794  11.520   3.761   7.232
17966SOL    HW155795  11.474   3.785   7.312
17966SOL    HW255796  11.456   3.772   7.162
17967SOL     OW55797   8.345   4.935   6.235
17967SOL    HW155798   8.386   5.015   6.202
17967SOL    HW255799   8.284   4.965   6.301
17968SOL     OW55800   3.438  12.674  10.038
17968SOL    HW155801   3.408  12.671  10.129
17968SOL    HW255802   3.465  12.764  10.024
17969SOL     OW55803   9.049  12.113   7.459
17969SOL    HW155804   9.034  12.020   7.443
17969SOL    HW255805   9.101  12.117   7.539
17970SOL     OW55806   1.048   8.987   1.343
17970SOL    HW155807   1.070   9.035   1.422
17970SOL    HW255808   0.977   9.037   1.303
17971SOL     OW55809   2.832   7.733   0.727
17971SOL    HW155810   2.762   7.782   0.770
17971SOL    HW255811   2.886   7.700   0.799
17972SOL     OW55812   3.806  11.527   1.441
17972SOL    HW155813   3.739  11.538   1.373
17972SOL    HW255814   3.834  11.436   1.432
17973SOL     OW55815   3.640  14.258   6.904
17973SOL    HW155816   3.694  14.334   6.925
17973SOL    HW255817   3.679  14.222   6.824
17974SOL     OW55818   9.655   7.766   9.846
17974SOL    HW155819   9.671   7.858   9.866
17974SOL    HW255820   9.580   7.742   9.900
17975SOL     OW55821   0.542   4.431   2.967
17975SOL    HW155822   0.635   4.408   2.964
17975SOL    HW255823   0.536   4.495   3.038
17976SOL     OW55824   8.874   9.539   3.610
17976SOL    HW155825   8.942   9.574   3.667
17976SOL    HW255826   8.807   9.608   3.606
17977SOL     OW55827   8.001  14.535   7.146
17977SOL    HW155828   7.978  14.450   7.109
17977SOL    HW255829   7.948  14.541   7.226
17978SOL     OW55830  10.295   0.864   2.060
17978SOL    HW155831  10.242   0.923   2.006
17978SOL    HW255832  10.245   0.854   2.141
17979SOL     OW55833   5.332   3.354   9.298
17979SOL    HW155834   5.325   3.441   9.258
17979SOL    HW255835   5.301   3.367   9.388
17980SOL     OW55836   1.788   1.033   8.030
17980SOL    HW155837   1.764   1.083   8.109
17980SOL    HW255838   1.704   1.010   7.990
17981SOL     OW55839   1.572   5.693   6.309
17981SOL    HW155840   1.513   5.696   6.384
17981SOL    HW255841   1.519   5.726   6.236
17982SOL     OW55842  11.985   1.704   1.009
17982SOL    HW155843  11.970   1.619   1.048
17982SOL    HW255844  12.002   1.762   1.083
17983SOL     OW55845   7.546  10.731   6.492
17983SOL    HW155846   7.604  10.706   6.419
17983SOL    HW255847   7.519  10.820   6.470
17984SOL     OW55848  11.165   6.665  14.674
17984SOL    HW155849  11.223   6.741  14.665
17984SOL    HW255850  11.156   6.654  14.769
17985SOL     OW55851   6.311  10.835   4.874
17985SOL    HW155852   6.299  10.877   4.959
17985SOL    HW255853   6.224  10.800   4.852
17986SOL     OW55854   8.500   2.139  12.791
17986SOL    HW155855   8.421   2.097  12.824
17986SOL    HW255856   8.512   2.216  12.846
17987SOL     OW55857   9.479   4.167  13.746
17987SOL    HW155858   9.513   4.198  13.662
17987SOL    HW255859   9.472   4.072  13.736
17988SOL     OW55860   3.075   9.050   6.673
17988SOL    HW155861   3.033   9.134   6.655
17988SOL    HW255862   3.168   9.069   6.673
17989SOL     OW55863   4.475   2.076  14.558
17989SOL    HW155864   4.543   2.009  14.551
17989SOL    HW255865   4.478   2.123  14.475
17990SOL     OW55866   3.084   3.752   7.945
17990SOL    HW155867   3.100   3.680   7.883
17990SOL    HW255868   3.079   3.830   7.890
17991SOL     OW55869   4.138   2.543   0.014
17991SOL    HW155870   4.142   2.594  14.814
17991SOL    HW255871   4.060   2.489   0.005
17992SOL     OW55872   4.119   4.263   4.174
17992SOL    HW155873   4.194   4.223   4.219
17992SOL    HW255874   4.091   4.198   4.111
17993SOL     OW55875   6.714   2.660   7.457
17993SOL    HW155876   6.763   2.586   7.493
17993SOL    HW255877   6.642   2.619   7.409
17994SOL     OW55878   5.311   6.538   2.884
17994SOL    HW155879   5.298   6.489   2.802
17994SOL    HW255880   5.235   6.596   2.888
17995SOL     OW55881   9.888   4.880  13.619
17995SOL    HW155882   9.856   4.964  13.653
17995SOL    HW255883   9.981   4.897  13.601
17996SOL     OW55884  12.338   2.873  11.789
17996SOL    HW155885  12.364   2.806  11.727
17996SOL    HW255886  12.395   2.947  11.770
17997SOL     OW55887   7.481   0.496   9.506
17997SOL    HW155888   7.430   0.576   9.496
17997SOL    HW255889   7.561   0.513   9.456
17998SOL     OW55890   7.077   7.105  12.303
17998SOL    HW155891   7.108   7.027  12.349
17998SOL    HW255892   7.008   7.140  12.359
17999SOL     OW55893   5.497   9.062  10.130
17999SOL    HW155894   5.513   8.991  10.192
17999SOL    HW255895   5.409   9.093  10.152
18000SOL     OW55896   3.849   3.547   5.746
18000SOL    HW155897   3.932   3.529   5.791
18000SOL    HW255898   3.808   3.616   5.797
18001SOL     OW55899   3.858   9.639   4.971
18001SOL    HW155900   3.832   9.701   5.039
18001SOL    HW255901   3.778   9.622   4.921
18002SOL     OW55902  11.873  12.573   5.784
18002SOL    HW155903  11.914  12.635   5.723
18002SOL    HW255904  11.945  12.516   5.811
18003SOL     OW55905  12.807   8.497   8.797
18003SOL    HW155906  12.752   8.439   8.849
18003SOL    HW255907  12.891   8.498   8.843
18004SOL     OW55908   3.189   3.835   3.739
18004SOL    HW155909   3.166   3.743   3.726
18004SOL    HW255910   3.202   3.844   3.833
18005SOL     OW55911  10.599   0.521  12.537
18005SOL    HW155912  10.646   0.513  12.454
18005SOL    HW255913  10.588   0.615  12.549
18006SOL     OW55914   9.391   1.365  11.305
18006SOL    HW155915   9.378   1.310  11.382
18006SOL    HW255916   9.465   1.325  11.259
18007SOL     OW55917  14.701  14.828   6.822
18007SOL    HW155918  14.687  14.817   6.916
18007SOL    HW255919  14.616  14.812   6.782
18008SOL     OW55920   9.824   0.277   4.541
18008SOL    HW155921   9.742   0.312   4.506
18008SOL    HW255922   9.796   0.209   4.602
18009SOL     OW55923   4.067  12.059   9.257
18009SOL    HW155924   4.052  12.061   9.351
18009SOL    HW255925   3.992  12.105   9.219
18010SOL     OW55926  10.415   2.764   0.241
18010SOL    HW155927  10.397   2.689   0.184
18010SOL    HW255928  10.333   2.814   0.242
18011SOL     OW55929  14.618  13.806   3.206
18011SOL    HW155930  14.563  13.875   3.169
18011SOL    HW255931  14.563  13.727   3.201
18012SOL     OW55932   8.372   9.163  12.706
18012SOL    HW155933   8.444   9.217  12.673
18012SOL    HW255934   8.389   9.156  12.800
18013SOL     OW55935  14.483  12.897   3.912
18013SOL    HW155936  14.413  12.870   3.852
18013SOL    HW255937  14.558  12.844   3.887
18014SOL     OW55938  11.709  13.079   9.314
18014SOL    HW155939  11.700  13.098   9.221
18014SOL    HW255940  11.676  13.157   9.358
18015SOL     OW55941   7.220   7.394  10.482
18015SOL    HW155942   7.266   7.315  10.452
18015SOL    HW255943   7.206   7.379  10.576
18016SOL     OW55944  14.829  11.091   3.132
18016SOL    HW155945  14.791  11.015   3.177
18016SOL    HW255946  14.860  11.057   3.049
18017SOL     OW55947   8.141   8.011   3.144
18017SOL    HW155948   8.155   7.916   3.143
18017SOL    HW255949   8.166   8.039   3.056
18018SOL     OW55950   1.704  11.307  13.614
18018SOL    HW155951   1.773  11.329  13.550
18018SOL    HW255952   1.670  11.391  13.643
18019SOL     OW55953   0.155   2.135   9.664
18019SOL    HW155954   0.067   2.120   9.697
18019SOL    HW255955   0.156   2.227   9.639
18020SOL     OW55956   5.848   4.366   3.103
18020SOL    HW155957   5.883   4.329   3.185
18020SOL    HW255958   5.866   4.300   3.037
18021SOL     OW55959   2.458   2.813   2.622
18021SOL    HW155960   2.487   2.841   2.708
18021SOL    HW255961   2.372   2.854   2.610
18022SOL     OW55962   0.446   3.441   8.202
18022SOL    HW155963   0.366   3.483   8.234
18022SOL    HW255964   0.480   3.393   8.278
18023SOL     OW55965   3.078   9.306  13.785
18023SOL    HW155966   3.091   9.222  13.741
18023SOL    HW255967   3.149   9.310  13.849
18024SOL     OW55968   3.293  12.347   6.851
18024SOL    HW155969   3.389  12.340   6.848
18024SOL    HW255970   3.263  12.257   6.860
18025SOL     OW55971  10.702   9.961   1.969
18025SOL    HW155972  10.684   9.882   2.019
18025SOL    HW255973  10.768  10.007   2.021
18026SOL     OW55974   6.794   8.237  10.883
18026SOL    HW155975   6.819   8.306  10.821
18026SOL    HW255976   6.836   8.158  10.849
18027SOL     OW55977  11.498  13.769  14.664
18027SOL    HW155978  11.549  13.690  14.683
18027SOL    HW255979  11.535  13.835  14.723
18028SOL     OW55980  14.135  11.290   6.498
18028SOL    HW155981  14.230  11.275   6.505
18028SOL    HW255982  14.113  11.340   6.577
18029SOL     OW55983   2.466   3.078   3.899
18029SOL    HW155984   2.493   3.152   3.953
18029SOL    HW255985   2.373   3.067   3.919
18030SOL     OW55986   5.664  10.895   2.639
18030SOL    HW155987   5.656  10.801   2.619
18030SOL    HW255988   5.575  10.929   2.632
18031SOL     OW55989   1.082  10.273   0.329
18031SOL    HW155990   1.054  10.285   0.238
18031SOL    HW255991   1.175  10.297   0.329
18032SOL     OW55992  11.903  12.320  13.624
18032SOL    HW155993  11.846  12.269  13.565
18032SOL    HW255994  11.862  12.311  13.710
18033SOL     OW55995   2.366   9.609   5.555
18033SOL    HW155996   2.373   9.604   5.459
18033SOL    HW255997   2.371   9.702   5.575
18034SOL     OW55998   8.652   4.909   1.364
18034SOL    HW155999   8.676   4.899   1.271
18034SOL    HW256000   8.561   4.881   1.368
18035SOL     OW56001   1.775   7.132   0.449
18035SOL    HW156002   1.687   7.094   0.451
18035SOL    HW256003   1.799   7.143   0.541
18036SOL     OW56004   6.950   8.018   5.597
18036SOL    HW156005   6.957   8.035   5.503
18036SOL    HW256006   6.924   7.926   5.603
18037SOL     OW56007   1.211   0.508  13.648
18037SOL    HW156008   1.262   0.552  13.580
18037SOL    HW256009   1.202   0.573  13.717
18038SOL     OW56010  10.366   4.752   3.480
18038SOL    HW156011  10.290   4.715   3.526
18038SOL    HW256012  10.334   4.768   3.391
18039SOL     OW56013  11.656   2.917   0.629
18039SOL    HW156014  11.711   2.974   0.577
18039SOL    HW256015  11.629   2.971   0.703
18040SOL     OW56016   4.547   5.244   9.944
18040SOL    HW156017   4.490   5.296  10.001
18040SOL    HW256018   4.487   5.203   9.882
18041SOL     OW56019   5.285  13.104   9.837
18041SOL    HW156020   5.227  13.042   9.792
18041SOL    HW256021   5.231  13.182   9.847
18042SOL     OW56022   3.852   3.197  12.430
18042SOL    HW156023   3.759   3.208  12.450
18042SOL    HW256024   3.858   3.111  12.388
18043SOL     OW56025  10.939   8.558   4.829
18043SOL    HW156026  10.989   8.500   4.772
18043SOL    HW256027  10.872   8.596   4.772
18044SOL     OW56028   3.100  12.788  14.367
18044SOL    HW156029   3.085  12.879  14.391
18044SOL    HW256030   3.068  12.738  14.442
18045SOL     OW56031   9.929   3.344  13.760
18045SOL    HW156032   9.973   3.283  13.820
18045SOL    HW256033   9.989   3.419  13.754
18046SOL     OW56034   7.897   8.242   8.212
18046SOL    HW156035   7.952   8.291   8.151
18046SOL    HW256036   7.812   8.285   8.208
18047SOL     OW56037  11.891   4.207  14.412
18047SOL    HW156038  11.796   4.216  14.418
18047SOL    HW256039  11.916   4.165  14.494
18048SOL     OW56040  10.832   6.033   5.924
18048SOL    HW156041  10.780   5.953   5.921
18048SOL    HW256042  10.768   6.102   5.941
18049SOL     OW56043   2.053   8.228  12.233
18049SOL    HW156044   2.113   8.302  12.238
18049SOL    HW256045   2.084   8.176  12.159
18050SOL     OW56046   4.959   6.418   4.860
18050SOL    HW156047   4.954   6.505   4.899
18050SOL    HW256048   5.023   6.427   4.790
18051SOL     OW56049   3.720   2.705   7.243
18051SOL    HW156050   3.637   2.747   7.265
18051SOL    HW256051   3.759   2.763   7.177
18052SOL     OW56052  11.282   8.074   6.132
18052SOL    HW156053  11.245   8.057   6.218
18052SOL    HW256054  11.377   8.072   6.145
18053SOL     OW56055  13.745   3.654   9.616
18053SOL    HW156056  13.763   3.651   9.522
18053SOL    HW256057  13.649   3.658   9.622
18054SOL     OW56058  12.531   6.493   6.870
18054SOL    HW156059  12.503   6.532   6.952
18054SOL    HW256060  12.619   6.460   6.889
18055SOL     OW56061   5.810  14.324   0.615
18055SOL    HW156062   5.887  14.375   0.640
18055SOL    HW256063   5.736  14.382   0.632
18056SOL     OW56064  12.820   5.451   4.333
18056SOL    HW156065  12.797   5.449   4.240
18056SOL    HW256066  12.741   5.419   4.378
18057SOL     OW56067   3.589  10.985  11.736
18057SOL    HW156068   3.600  10.965  11.643
18057SOL    HW256069   3.558  10.902  11.774
18058SOL     OW56070   5.428  11.936   8.993
18058SOL    HW156071   5.412  12.013   8.937
18058SOL    HW256072   5.519  11.912   8.975
18059SOL     OW56073  11.176   9.735  10.130
18059SOL    HW156074  11.119   9.676  10.180
18059SOL    HW256075  11.124   9.814  10.117
18060SOL     OW56076   0.723   9.401  14.612
18060SOL    HW156077   0.733   9.338  14.684
18060SOL    HW256078   0.631   9.393  14.587
18061SOL     OW56079   2.529  12.508  12.922
18061SOL    HW156080   2.515  12.595  12.887
18061SOL    HW256081   2.617  12.511  12.961
18062SOL     OW56082   8.407   5.790  11.273
18062SOL    HW156083   8.469   5.856  11.303
18062SOL    HW256084   8.324   5.815  11.314
18063SOL     OW56085  12.082   8.116   7.299
18063SOL    HW156086  11.993   8.083   7.309
18063SOL    HW256087  12.085   8.194   7.353
18064SOL     OW56088   3.692   6.039   5.178
18064SOL    HW156089   3.721   6.119   5.223
18064SOL    HW256090   3.710   6.056   5.085
18065SOL     OW56091   2.014  11.955   4.899
18065SOL    HW156092   2.075  11.965   4.971
18065SOL    HW256093   1.979  11.866   4.909
18066SOL     OW56094   6.089   6.617  11.456
18066SOL    HW156095   5.993   6.625  11.449
18066SOL    HW256096   6.118   6.604  11.366
18067SOL     OW56097   9.199   5.078   0.221
18067SOL    HW156098   9.263   5.136   0.180
18067SOL    HW256099   9.193   5.003   0.162
18068SOL     OW56100   9.737   8.469   6.661
18068SOL    HW156101   9.822   8.432   6.682
18068SOL    HW256102   9.679   8.436   6.730
18069SOL     OW56103  14.443  11.663  12.354
18069SOL    HW156104  14.534  11.651  12.328
18069SOL    HW256105  14.446  11.722  12.428
18070SOL     OW56106   3.705   1.967   6.749
18070SOL    HW156107   3.695   1.936   6.839
18070SOL    HW256108   3.734   2.058   6.758
18071SOL     OW56109   3.822   7.325  14.023
18071SOL    HW156110   3.903   7.372  14.042
18071SOL    HW256111   3.842   7.274  13.945
18072SOL     OW56112   7.863  10.230   9.232
18072SOL    HW156113   7.900  10.298   9.175
18072SOL    HW256114   7.818  10.171   9.171
18073SOL     OW56115  13.114  10.483   1.474
18073SOL    HW156116  13.197  10.483   1.523
18073SOL    HW256117  13.048  10.509   1.539
18074SOL     OW56118   8.017  13.428   4.979
18074SOL    HW156119   8.079  13.378   5.031
18074SOL    HW256120   7.952  13.363   4.950
18075SOL     OW56121   1.218  13.689   9.482
18075SOL    HW156122   1.250  13.777   9.465
18075SOL    HW256123   1.191  13.691   9.574
18076SOL     OW56124   7.084  11.554  11.946
18076SOL    HW156125   7.050  11.504  11.871
18076SOL    HW256126   7.171  11.582  11.918
18077SOL     OW56127   5.323  12.944  10.060
18077SOL    HW156128   5.284  12.857  10.067
18077SOL    HW256129   5.317  12.966   9.967
18078SOL     OW56130   1.359   5.059  10.414
18078SOL    HW156131   1.307   5.134  10.386
18078SOL    HW256132   1.380   5.012  10.333
18079SOL     OW56133   2.008   3.861  14.679
18079SOL    HW156134   2.102   3.848  14.667
18079SOL    HW256135   2.000   3.894  14.769
18080SOL     OW56136  10.939   1.345   5.428
18080SOL    HW156137  11.009   1.408   5.409
18080SOL    HW256138  10.883   1.390   5.491
18081SOL     OW56139  13.844   6.143   5.847
18081SOL    HW156140  13.928   6.171   5.885
18081SOL    HW256141  13.868   6.080   5.779
18082SOL     OW56142  11.181  13.062   7.593
18082SOL    HW156143  11.211  13.040   7.682
18082SOL    HW256144  11.088  13.036   7.593
18083SOL     OW56145   2.777  13.764   7.874
18083SOL    HW156146   2.683  13.781   7.875
18083SOL    HW256147   2.818  13.849   7.888
18084SOL     OW56148   2.331   2.957   2.052
18084SOL    HW156149   2.356   2.864   2.059
18084SOL    HW256150   2.386   3.001   2.116
18085SOL     OW56151   1.297  11.544   9.668
18085SOL    HW156152   1.331  11.631   9.685
18085SOL    HW256153   1.276  11.544   9.574
18086SOL     OW56154   6.701  13.524   3.681
18086SOL    HW156155   6.611  13.492   3.670
18086SOL    HW256156   6.708  13.546   3.773
18087SOL     OW56157   9.132   0.325  12.294
18087SOL    HW156158   9.202   0.355  12.236
18087SOL    HW256159   9.067   0.395  12.291
18088SOL     OW56160   4.058   2.350   8.708
18088SOL    HW156161   4.110   2.330   8.630
18088SOL    HW256162   4.079   2.442   8.727
18089SOL     OW56163   1.118   6.991  10.904
18089SOL    HW156164   1.191   6.989  10.965
18089SOL    HW256165   1.051   7.043  10.949
18090SOL     OW56166  11.224   2.949   4.333
18090SOL    HW156167  11.200   2.911   4.249
18090SOL    HW256168  11.281   2.883   4.374
18091SOL     OW56169   4.697  12.724   9.598
18091SOL    HW156170   4.676  12.813   9.625
18091SOL    HW256171   4.750  12.734   9.519
18092SOL     OW56172   4.779  13.602  12.796
18092SOL    HW156173   4.767  13.681  12.742
18092SOL    HW256174   4.772  13.634  12.886
18093SOL     OW56175   8.703   3.671   7.034
18093SOL    HW156176   8.629   3.702   7.086
18093SOL    HW256177   8.665   3.652   6.948
18094SOL     OW56178   6.544  10.842   3.170
18094SOL    HW156179   6.575  10.752   3.174
18094SOL    HW256180   6.580  10.876   3.088
18095SOL     OW56181  11.206   2.558   5.881
18095SOL    HW156182  11.163   2.635   5.918
18095SOL    HW256183  11.220   2.580   5.789
18096SOL     OW56184   5.152   2.596   1.916
18096SOL    HW156185   5.167   2.627   1.826
18096SOL    HW256186   5.239   2.600   1.956
18097SOL     OW56187   2.956  12.775  11.992
18097SOL    HW156188   2.887  12.831  12.028
18097SOL    HW256189   2.918  12.737  11.913
18098SOL     OW56190   1.859  10.757   0.238
18098SOL    HW156191   1.952  10.773   0.225
18098SOL    HW256192   1.823  10.749   0.149
18099SOL     OW56193  13.845  12.532  12.772
18099SOL    HW156194  13.924  12.481  12.755
18099SOL    HW256195  13.774  12.468  12.770
18100SOL     OW56196  11.585   6.106  10.553
18100SOL    HW156197  11.613   6.066  10.471
18100SOL    HW256198  11.662   6.102  10.610
18101SOL     OW56199  10.340  10.902  12.829
18101SOL    HW156200  10.302  10.979  12.870
18101SOL    HW256201  10.350  10.839  12.901
18102SOL     OW56202   1.659   8.486  11.437
18102SOL    HW156203   1.619   8.451  11.517
18102SOL    HW256204   1.703   8.566  11.465
18103SOL     OW56205   2.136   5.875   8.096
18103SOL    HW156206   2.165   5.890   8.186
18103SOL    HW256207   2.217   5.865   8.047
18104SOL     OW56208   4.485   2.675   1.781
18104SOL    HW156209   4.396   2.678   1.746
18104SOL    HW256210   4.480   2.722   1.864
18105SOL     OW56211   9.453   8.820   2.439
18105SOL    HW156212   9.396   8.897   2.439
18105SOL    HW256213   9.505   8.827   2.519
18106SOL     OW56214   3.827  12.142   5.142
18106SOL    HW156215   3.803  12.223   5.187
18106SOL    HW256216   3.760  12.079   5.170
18107SOL     OW56217   2.636   4.168  13.361
18107SOL    HW156218   2.618   4.203  13.273
18107SOL    HW256219   2.661   4.244  13.413
18108SOL     OW56220   3.216   0.793  10.718
18108SOL    HW156221   3.197   0.869  10.663
18108SOL    HW256222   3.185   0.818  10.805
18109SOL     OW56223  13.494  13.883   0.416
18109SOL    HW156224  13.502  13.809   0.476
18109SOL    HW256225  13.401  13.884   0.392
18110SOL     OW56226   8.591   9.209   7.882
18110SOL    HW156227   8.575   9.114   7.888
18110SOL    HW256228   8.635   9.220   7.798
18111SOL     OW56229   1.644  12.780   6.658
18111SOL    HW156230   1.563  12.820   6.627
18111SOL    HW256231   1.683  12.741   6.580
18112SOL     OW56232   9.411  12.442   1.334
18112SOL    HW156233   9.474  12.502   1.295
18112SOL    HW256234   9.436  12.438   1.426
18113SOL     OW56235   5.138   8.121  14.064
18113SOL    HW156236   5.172   8.175  14.134
18113SOL    HW256237   5.064   8.171  14.028
18114SOL     OW56238   9.849   9.162   6.129
18114SOL    HW156239   9.768   9.125   6.093
18114SOL    HW256240   9.899   9.086   6.159
18115SOL     OW56241  13.282   1.357  11.626
18115SOL    HW156242  13.225   1.377  11.700
18115SOL    HW256243  13.359   1.412  11.640
18116SOL     OW56244   8.439   6.730  10.226
18116SOL    HW156245   8.384   6.654  10.248
18116SOL    HW256246   8.380   6.805  10.232
18117SOL     OW56247   2.234  12.862  14.828
18117SOL    HW156248   2.293  12.923  14.874
18117SOL    HW256249   2.173  12.833   0.016
18118SOL     OW56250   4.109  14.379   2.058
18118SOL    HW156251   4.124  14.455   2.002
18118SOL    HW256252   4.160  14.309   2.017
18119SOL     OW56253  13.584   3.509   6.213
18119SOL    HW156254  13.489   3.514   6.224
18119SOL    HW256255  13.619   3.529   6.300
18120SOL     OW56256   2.776   7.745   8.542
18120SOL    HW156257   2.787   7.678   8.609
18120SOL    HW256258   2.749   7.697   8.464
18121SOL     OW56259   7.811   0.874  11.120
18121SOL    HW156260   7.898   0.910  11.139
18121SOL    HW256261   7.824   0.818  11.043
18122SOL     OW56262   0.290   0.998   6.675
18122SOL    HW156263   0.327   1.003   6.763
18122SOL    HW256264   0.353   1.044   6.620
18123SOL     OW56265  14.385   7.233  12.631
18123SOL    HW156266  14.315   7.229  12.696
18123SOL    HW256267  14.409   7.142  12.615
18124SOL     OW56268   9.415  12.187   3.686
18124SOL    HW156269   9.443  12.108   3.731
18124SOL    HW256270   9.460  12.185   3.602
18125SOL     OW56271   4.209   3.269  11.575
18125SOL    HW156272   4.274   3.316  11.628
18125SOL    HW256273   4.260   3.201  11.530
18126SOL     OW56274   5.861  11.023  14.869
18126SOL    HW156275   5.878  11.064  14.785
18126SOL    HW256276   5.903  10.937  14.863
18127SOL     OW56277   8.496   2.633   3.896
18127SOL    HW156278   8.486   2.725   3.870
18127SOL    HW256279   8.583   2.628   3.934
18128SOL     OW56280   5.157  10.832   5.764
18128SOL    HW156281   5.118  10.769   5.705
18128SOL    HW256282   5.147  10.917   5.720
18129SOL     OW56283   7.211   1.594  12.752
18129SOL    HW156284   7.248   1.630  12.671
18129SOL    HW256285   7.285   1.593  12.814
18130SOL     OW56286   6.568   4.961  11.707
18130SOL    HW156287   6.560   5.001  11.620
18130SOL    HW256288   6.662   4.963  11.726
18131SOL     OW56289   6.398   0.565  10.174
18131SOL    HW156290   6.358   0.524  10.098
18131SOL    HW256291   6.336   0.633  10.201
18132SOL     OW56292   4.808  10.583  11.985
18132SOL    HW156293   4.813  10.648  11.916
18132SOL    HW256294   4.845  10.504  11.947
18133SOL     OW56295   9.250  13.385   5.455
18133SOL    HW156296   9.162  13.358   5.480
18133SOL    HW256297   9.239  13.438   5.377
18134SOL     OW56298   8.786   1.666  11.256
18134SOL    HW156299   8.868   1.715  11.260
18134SOL    HW256300   8.790   1.606  11.330
18135SOL     OW56301  13.872   4.870  14.828
18135SOL    HW156302  13.935   4.899   0.014
18135SOL    HW256303  13.862   4.946  14.771
18136SOL     OW56304  13.593  14.314  13.452
18136SOL    HW156305  13.521  14.376  13.458
18136SOL    HW256306  13.610  14.305  13.358
18137SOL     OW56307   9.276   5.323  11.566
18137SOL    HW156308   9.286   5.238  11.610
18137SOL    HW256309   9.363   5.343  11.531
18138SOL     OW56310   9.981  10.722  12.807
18138SOL    HW156311  10.055  10.661  12.812
18138SOL    HW256312  10.013  10.794  12.753
18139SOL     OW56313   8.363  10.238   2.329
18139SOL    HW156314   8.285  10.279   2.291
18139SOL    HW256315   8.338  10.220   2.420
18140SOL     OW56316   4.920   1.656   0.963
18140SOL    HW156317   4.870   1.597   1.020
18140SOL    HW256318   4.986   1.694   1.020
18141SOL     OW56319   5.805  10.396   1.523
18141SOL    HW156320   5.892  10.413   1.488
18141SOL    HW256321   5.820  10.374   1.615
18142SOL     OW56322  11.410   4.551   8.193
18142SOL    HW156323  11.328   4.507   8.172
18142SOL    HW256324  11.387   4.613   8.262
18143SOL     OW56325   5.208   1.601  12.634
18143SOL    HW156326   5.221   1.518  12.680
18143SOL    HW256327   5.296   1.638  12.626
18144SOL     OW56328   0.388   9.235  14.089
18144SOL    HW156329   0.393   9.266  13.999
18144SOL    HW256330   0.461   9.172  14.097
18145SOL     OW56331   4.078   2.992  12.861
18145SOL    HW156332   4.026   2.913  12.846
18145SOL    HW256333   4.036   3.059  12.807
18146SOL     OW56334  12.612   8.215  10.132
18146SOL    HW156335  12.668   8.291  10.150
18146SOL    HW256336  12.548   8.247  10.069
18147SOL     OW56337   3.095   3.192  13.246
18147SOL    HW156338   3.146   3.134  13.189
18147SOL    HW256339   3.160   3.232  13.304
18148SOL     OW56340  11.559   0.442  10.777
18148SOL    HW156341  11.543   0.491  10.857
18148SOL    HW256342  11.517   0.494  10.708
18149SOL     OW56343   2.596  11.286  10.584
18149SOL    HW156344   2.685  11.320  10.575
18149SOL    HW256345   2.574  11.299  10.676
18150SOL     OW56346  14.490  12.799   2.712
18150SOL    HW156347  14.487  12.741   2.636
18150SOL    HW256348  14.570  12.851   2.698
18151SOL     OW56349   7.938   0.061   0.366
18151SOL    HW156350   7.845   0.082   0.367
18151SOL    HW256351   7.961   0.053   0.459
18152SOL     OW56352   2.222  11.688   4.669
18152SOL    HW156353   2.143  11.731   4.702
18152SOL    HW256354   2.226  11.605   4.716
18153SOL     OW56355   1.284   4.079   4.530
18153SOL    HW156356   1.332   3.999   4.509
18153SOL    HW256357   1.220   4.088   4.459
18154SOL     OW56358  10.056   3.361  12.341
18154SOL    HW156359  10.011   3.279  12.360
18154SOL    HW256360  10.033   3.418  12.414
18155SOL     OW56361  10.910   1.951   6.167
18155SOL    HW156362  11.000   1.961   6.199
18155SOL    HW256363  10.863   1.910   6.240
18156SOL     OW56364   1.457   1.785   4.138
18156SOL    HW156365   1.395   1.844   4.097
18156SOL    HW256366   1.536   1.838   4.149
18157SOL     OW56367   9.053  14.494   0.888
18157SOL    HW156368   9.088  14.486   0.799
18157SOL    HW256369   9.122  14.458   0.944
18158SOL     OW56370   9.602  12.529  14.466
18158SOL    HW156371   9.672  12.550  14.405
18158SOL    HW256372   9.645  12.523  14.551
18159SOL     OW56373  10.687   2.983   0.358
18159SOL    HW156374  10.610   3.001   0.305
18159SOL    HW256375  10.680   2.890   0.381
18160SOL     OW56376   6.852  10.367  14.170
18160SOL    HW156377   6.825  10.421  14.244
18160SOL    HW256378   6.879  10.285  14.209
18161SOL     OW56379  13.052  11.630   8.982
18161SOL    HW156380  13.120  11.679   9.027
18161SOL    HW256381  12.974  11.685   8.989
18162SOL     OW56382   8.035   6.297   5.667
18162SOL    HW156383   8.047   6.339   5.752
18162SOL    HW256384   8.001   6.366   5.610
18163SOL     OW56385  10.286   3.977   6.074
18163SOL    HW156386  10.333   3.894   6.070
18163SOL    HW256387  10.216   3.969   6.010
18164SOL     OW56388  13.350  14.300  12.100
18164SOL    HW156389  13.274  14.356  12.116
18164SOL    HW256390  13.314  14.212  12.096
18165SOL     OW56391   2.648   2.098   2.804
18165SOL    HW156392   2.662   2.008   2.833
18165SOL    HW256393   2.619   2.090   2.714
18166SOL     OW56394  14.158   3.740   9.846
18166SOL    HW156395  14.073   3.739   9.802
18166SOL    HW256396  14.187   3.831   9.840
18167SOL     OW56397   3.717   1.415   8.070
18167SOL    HW156398   3.679   1.495   8.107
18167SOL    HW256399   3.699   1.347   8.135
18168SOL     OW56400   1.036   8.111   0.977
18168SOL    HW156401   1.050   8.114   1.071
18168SOL    HW256402   1.030   8.202   0.950
18169SOL     OW56403   2.811   3.803   0.879
18169SOL    HW156404   2.737   3.770   0.931
18169SOL    HW256405   2.860   3.858   0.940
18170SOL     OW56406   7.575  11.596   2.391
18170SOL    HW156407   7.626  11.677   2.386
18170SOL    HW256408   7.485  11.623   2.377
18171SOL     OW56409   6.071   2.743   5.697
18171SOL    HW156410   6.121   2.665   5.672
18171SOL    HW256411   6.079   2.801   5.621
18172SOL     OW56412   8.805   9.835   4.432
18172SOL    HW156413   8.761   9.819   4.515
18172SOL    HW256414   8.795   9.929   4.416
18173SOL     OW56415   3.005   7.059   1.741
18173SOL    HW156416   3.094   7.024   1.730
18173SOL    HW256417   3.018   7.147   1.778
18174SOL     OW56418  14.833   3.611   8.281
18174SOL    HW156419   0.006   3.607   8.360
18174SOL    HW256420   0.013   3.642   8.213
18175SOL     OW56421   8.567  11.038  10.542
18175SOL    HW156422   8.568  11.075  10.630
18175SOL    HW256423   8.659  11.019  10.522
18176SOL     OW56424   0.939  11.845   9.204
18176SOL    HW156425   0.940  11.836   9.299
18176SOL    HW256426   0.875  11.780   9.174
18177SOL     OW56427   8.087   9.968   6.156
18177SOL    HW156428   8.172   9.996   6.123
18177SOL    HW256429   8.099   9.960   6.250
18178SOL     OW56430  11.797   1.633   5.724
18178SOL    HW156431  11.752   1.698   5.778
18178SOL    HW256432  11.728   1.595   5.670
18179SOL     OW56433   9.730   1.692  10.959
18179SOL    HW156434   9.667   1.708  10.889
18179SOL    HW256435   9.755   1.601  10.949
18180SOL     OW56436   7.901   3.270  12.752
18180SOL    HW156437   7.887   3.209  12.680
18180SOL    HW256438   7.929   3.215  12.825
18181SOL     OW56439  10.124  12.635   8.998
18181SOL    HW156440  10.135  12.558   8.942
18181SOL    HW256441  10.105  12.707   8.937
18182SOL     OW56442  13.997  12.506   2.799
18182SOL    HW156443  13.946  12.505   2.880
18182SOL    HW256444  14.038  12.592   2.797
18183SOL     OW56445   3.954  14.603   0.980
18183SOL    HW156446   3.974  14.683   0.932
18183SOL    HW256447   3.971  14.626   1.072
18184SOL     OW56448   6.477   3.853   1.732
18184SOL    HW156449   6.558   3.895   1.704
18184SOL    HW256450   6.420   3.925   1.757
18185SOL     OW56451   6.286   7.199   7.044
18185SOL    HW156452   6.266   7.237   6.958
18185SOL    HW256453   6.382   7.200   7.048
18186SOL     OW56454   2.855  12.910   6.682
18186SOL    HW156455   2.878  12.929   6.591
18186SOL    HW256456   2.772  12.956   6.695
18187SOL     OW56457  13.187   9.321  12.547
18187SOL    HW156458  13.146   9.390  12.598
18187SOL    HW256459  13.238   9.367  12.480
18188SOL     OW56460   6.513   8.890   6.517
18188SOL    HW156461   6.473   8.920   6.436
18188SOL    HW256462   6.481   8.801   6.529
18189SOL     OW56463   5.772   1.976   7.814
18189SOL    HW156464   5.684   1.978   7.777
18189SOL    HW256465   5.764   2.020   7.899
18190SOL     OW56466  10.134   2.023   5.860
18190SOL    HW156467  10.130   2.095   5.798
18190SOL    HW256468  10.207   2.046   5.918
18191SOL     OW56469   5.693   2.952   7.292
18191SOL    HW156470   5.636   3.028   7.296
18191SOL    HW256471   5.652   2.893   7.228
18192SOL     OW56472  13.453  12.983  11.349
18192SOL    HW156473  13.535  12.941  11.324
18192SOL    HW256474  13.458  13.071  11.313
18193SOL     OW56475  11.146  14.193   6.413
18193SOL    HW156476  11.115  14.210   6.324
18193SOL    HW256477  11.131  14.275   6.460
18194SOL     OW56478  11.443   9.220   1.987
18194SOL    HW156479  11.476   9.304   2.019
18194SOL    HW256480  11.466   9.218   1.894
18195SOL     OW56481  12.547   0.720   7.689
18195SOL    HW156482  12.610   0.791   7.680
18195SOL    HW256483  12.489   0.730   7.613
18196SOL     OW56484   4.183  12.731   5.999
18196SOL    HW156485   4.203  12.638   6.006
18196SOL    HW256486   4.089  12.734   5.979
18197SOL     OW56487   9.046   9.036   7.537
18197SOL    HW156488   8.965   8.987   7.522
18197SOL    HW256489   9.110   8.970   7.564
18198SOL     OW56490  14.298  13.454   7.369
18198SOL    HW156491  14.286  13.502   7.287
18198SOL    HW256492  14.286  13.362   7.344
18199SOL     OW56493   2.957   1.738   2.827
18199SOL    HW156494   2.975   1.733   2.733
18199SOL    HW256495   3.039   1.770   2.864
18200SOL     OW56496  13.041   0.410   7.539
18200SOL    HW156497  13.053   0.502   7.515
18200SOL    HW256498  13.037   0.410   7.635
18201SOL     OW56499  11.388   4.924  12.251
18201SOL    HW156500  11.476   4.961  12.249
18201SOL    HW256501  11.338   4.984  12.306
18202SOL     OW56502   7.479  14.798  12.039
18202SOL    HW156503   7.398  14.824  11.996
18202SOL    HW256504   7.473  14.702  12.046
18203SOL     OW56505   2.934  11.413   4.076
18203SOL    HW156506   2.881  11.388   4.152
18203SOL    HW256507   2.974  11.496   4.101
18204SOL     OW56508  13.113   5.061   7.286
18204SOL    HW156509  13.142   5.004   7.215
18204SOL    HW256510  13.031   5.099   7.254
18205SOL     OW56511   8.263  14.780   2.884
18205SOL    HW156512   8.326  14.805   2.952
18205SOL    HW256513   8.178  14.805   2.919
18206SOL     OW56514   9.060   2.342   8.954
18206SOL    HW156515   9.126   2.281   8.986
18206SOL    HW256516   9.064   2.416   9.014
18207SOL     OW56517  14.591   9.770  12.666
18207SOL    HW156518  14.542   9.749  12.586
18207SOL    HW256519  14.603   9.685  12.709
18208SOL     OW56520  14.499   4.324   4.335
18208SOL    HW156521  14.424   4.315   4.276
18208SOL    HW256522  14.485   4.408   4.379
18209SOL     OW56523   5.056   6.946   2.475
18209SOL    HW156524   5.118   7.011   2.441
18209SOL    HW256525   5.103   6.905   2.549
18210SOL     OW56526   5.127   0.690  11.215
18210SOL    HW156527   5.118   0.643  11.132
18210SOL    HW256528   5.220   0.680  11.238
18211SOL     OW56529   6.091   7.558  14.696
18211SOL    HW156530   6.054   7.487  14.748
18211SOL    HW256531   6.121   7.516  14.616
18212SOL     OW56532   4.603   4.024  11.519
18212SOL    HW156533   4.522   4.073  11.532
18212SOL    HW256534   4.649   4.070  11.450
18213SOL     OW56535   6.440   7.919  12.153
18213SOL    HW156536   6.379   7.949  12.221
18213SOL    HW256537   6.481   7.841  12.191
18214SOL     OW56538  10.705  13.084   6.496
18214SOL    HW156539  10.700  12.997   6.537
18214SOL    HW256540  10.779  13.126   6.538
18215SOL     OW56541  12.411   4.763   8.265
18215SOL    HW156542  12.346   4.818   8.222
18215SOL    HW256543  12.456   4.718   8.193
18216SOL     OW56544   9.711  14.321   2.305
18216SOL    HW156545   9.652  14.269   2.360
18216SOL    HW256546   9.798  14.291   2.330
18217SOL     OW56547   5.094   1.774   2.988
18217SOL    HW156548   5.162   1.785   3.054
18217SOL    HW256549   5.043   1.855   2.993
18218SOL     OW56550   7.171   4.491   2.362
18218SOL    HW156551   7.222   4.518   2.286
18218SOL    HW256552   7.220   4.526   2.437
18219SOL     OW56553   6.140   8.370  11.666
18219SOL    HW156554   6.213   8.359  11.727
18219SOL    HW256555   6.181   8.389  11.582
18220SOL     OW56556   9.185  14.871  12.400
18220SOL    HW156557   9.161  14.779  12.415
18220SOL    HW256558   9.275  14.867  12.369
18221SOL     OW56559  10.434  10.354  12.236
18221SOL    HW156560  10.411  10.262  12.219
18221SOL    HW256561  10.359  10.389  12.282
18222SOL     OW56562  11.456   7.605   9.746
18222SOL    HW156563  11.548   7.629   9.758
18222SOL    HW256564  11.433   7.558   9.826
18223SOL     OW56565   1.934   3.668  14.006
18223SOL    HW156566   2.026   3.641  13.998
18223SOL    HW256567   1.885   3.602  13.957
18224SOL     OW56568  11.978   4.051   4.630
18224SOL    HW156569  11.995   4.131   4.678
18224SOL    HW256570  11.888   4.060   4.598
18225SOL     OW56571  11.310   9.624   9.164
18225SOL    HW156572  11.342   9.581   9.085
18225SOL    HW256573  11.228   9.579   9.184
18226SOL     OW56574  12.279   9.674   6.674
18226SOL    HW156575  12.258   9.647   6.763
18226SOL    HW256576  12.195   9.672   6.628
18227SOL     OW56577   1.326   8.024   2.803
18227SOL    HW156578   1.293   8.046   2.890
18227SOL    HW256579   1.407   8.076   2.795
18228SOL     OW56580   0.402  13.608   6.928
18228SOL    HW156581   0.426  13.544   6.861
18228SOL    HW256582   0.399  13.557   7.009
18229SOL     OW56583  11.686  12.508   1.572
18229SOL    HW156584  11.597  12.495   1.605
18229SOL    HW256585  11.674  12.545   1.485
18230SOL     OW56586   7.876   3.501   1.898
18230SOL    HW156587   7.968   3.509   1.926
18230SOL    HW256588   7.835   3.448   1.966
18231SOL     OW56589   5.317  12.598  14.775
18231SOL    HW156590   5.262  12.594  14.853
18231SOL    HW256591   5.298  12.516  14.728
18232SOL     OW56592   3.541   1.756   3.834
18232SOL    HW156593   3.606   1.782   3.900
18232SOL    HW256594   3.459   1.747   3.884
18233SOL     OW56595   7.733  14.860   1.224
18233SOL    HW156596   7.788  14.784   1.241
18233SOL    HW256597   7.779   0.053   1.263
18234SOL     OW56598   9.352  14.849   7.421
18234SOL    HW156599   9.396  14.856   7.506
18234SOL    HW256600   9.259  14.840   7.442
18235SOL     OW56601   3.012  11.713   8.866
18235SOL    HW156602   2.919  11.734   8.865
18235SOL    HW256603   3.015  11.619   8.884
18236SOL     OW56604  12.430   2.035   4.946
18236SOL    HW156605  12.454   1.957   4.996
18236SOL    HW256606  12.500   2.045   4.882
18237SOL     OW56607   6.561  13.793   8.457
18237SOL    HW156608   6.554  13.871   8.401
18237SOL    HW256609   6.502  13.811   8.530
18238SOL     OW56610   4.215   9.035  13.467
18238SOL    HW156611   4.303   9.058  13.438
18238SOL    HW256612   4.171   9.004  13.387
18239SOL     OW56613  12.478  14.720   1.040
18239SOL    HW156614  12.465  14.672   0.958
18239SOL    HW256615  12.544  14.669   1.087
18240SOL     OW56616   4.161  10.122   7.891
18240SOL    HW156617   4.172  10.027   7.888
18240SOL    HW256618   4.068  10.136   7.879
18241SOL     OW56619  11.480   3.173  14.870
18241SOL    HW156620  11.527   3.237  14.817
18241SOL    HW256621  11.441   3.113  14.806
18242SOL     OW56622  10.345   6.038   5.575
18242SOL    HW156623  10.314   5.994   5.495
18242SOL    HW256624  10.314   5.981   5.646
18243SOL     OW56625   9.455   7.619   6.912
18243SOL    HW156626   9.524   7.679   6.883
18243SOL    HW256627   9.374   7.671   6.908
18244SOL     OW56628  14.632  11.784   3.969
18244SOL    HW156629  14.585  11.741   3.898
18244SOL    HW256630  14.603  11.738   4.048
18245SOL     OW56631   8.713   1.787   6.605
18245SOL    HW156632   8.720   1.796   6.510
18245SOL    HW256633   8.656   1.859   6.632
18246SOL     OW56634  14.110   1.451   0.501
18246SOL    HW156635  14.024   1.482   0.475
18246SOL    HW256636  14.094   1.366   0.542
18247SOL     OW56637  13.827   4.306   4.428
18247SOL    HW156638  13.885   4.298   4.503
18247SOL    HW256639  13.868   4.372   4.373
18248SOL     OW56640   6.332   1.223   3.086
18248SOL    HW156641   6.298   1.141   3.123
18248SOL    HW256642   6.396   1.194   3.020
18249SOL     OW56643   3.684   1.713   5.125
18249SOL    HW156644   3.651   1.672   5.045
18249SOL    HW256645   3.607   1.722   5.181
18250SOL     OW56646  13.934   8.777   2.902
18250SOL    HW156647  13.944   8.694   2.855
18250SOL    HW256648  13.895   8.836   2.838
18251SOL     OW56649  14.062  10.592   7.657
18251SOL    HW156650  14.157  10.601   7.665
18251SOL    HW256651  14.047  10.497   7.664
18252SOL     OW56652   8.500   4.892  10.067
18252SOL    HW156653   8.515   4.797  10.063
18252SOL    HW256654   8.455   4.913   9.986
18253SOL     OW56655   2.896   9.517   4.994
18253SOL    HW156656   2.883   9.428   4.961
18253SOL    HW256657   2.898   9.508   5.089
18254SOL     OW56658   4.125   3.038   4.952
18254SOL    HW156659   4.042   3.030   4.904
18254SOL    HW256660   4.101   3.085   5.032
18255SOL     OW56661   2.307   0.763  11.221
18255SOL    HW156662   2.229   0.805  11.184
18255SOL    HW256663   2.353   0.727  11.145
18256SOL     OW56664   8.352   4.507   8.618
18256SOL    HW156665   8.274   4.459   8.646
18256SOL    HW256666   8.425   4.453   8.649
18257SOL     OW56667   0.414   2.744   6.659
18257SOL    HW156668   0.503   2.730   6.627
18257SOL    HW256669   0.378   2.656   6.668
18258SOL     OW56670  11.060   6.508   7.999
18258SOL    HW156671  11.079   6.441   8.064
18258SOL    HW256672  10.999   6.567   8.044
18259SOL     OW56673  10.178   5.009   3.385
18259SOL    HW156674  10.245   4.999   3.452
18259SOL    HW256675  10.202   4.945   3.317
18260SOL     OW56676   1.061   7.452   2.840
18260SOL    HW156677   0.988   7.441   2.901
18260SOL    HW256678   1.072   7.547   2.834
18261SOL     OW56679   9.330   9.945   5.209
18261SOL    HW156680   9.296   9.910   5.126
18261SOL    HW256681   9.317   9.874   5.272
18262SOL     OW56682  10.826   8.199   7.804
18262SOL    HW156683  10.764   8.249   7.857
18262SOL    HW256684  10.844   8.255   7.728
18263SOL     OW56685   5.248   1.547   7.607
18263SOL    HW156686   5.329   1.533   7.559
18263SOL    HW256687   5.243   1.473   7.668
18264SOL     OW56688  13.518   6.911  10.997
18264SOL    HW156689  13.453   6.872  10.940
18264SOL    HW256690  13.578   6.956  10.938
18265SOL     OW56691   6.359   7.353  12.796
18265SOL    HW156692   6.421   7.280  12.807
18265SOL    HW256693   6.274   7.311  12.786
18266SOL     OW56694   6.424   3.366   5.276
18266SOL    HW156695   6.392   3.450   5.309
18266SOL    HW256696   6.362   3.301   5.310
18267SOL     OW56697   9.732  13.805   9.505
18267SOL    HW156698   9.740  13.874   9.439
18267SOL    HW256699   9.717  13.725   9.455
18268SOL     OW56700   9.126  10.111   7.947
18268SOL    HW156701   9.139  10.122   7.853
18268SOL    HW256702   9.154  10.021   7.965
18269SOL     OW56703   1.180   0.431   9.020
18269SOL    HW156704   1.206   0.504   9.076
18269SOL    HW256705   1.257   0.374   9.016
18270SOL     OW56706   1.718  11.223  13.914
18270SOL    HW156707   1.732  11.243  13.822
18270SOL    HW256708   1.803  11.239  13.955
18271SOL     OW56709  11.003   9.044  11.478
18271SOL    HW156710  11.079   9.091  11.446
18271SOL    HW256711  10.944   9.039  11.403
18272SOL     OW56712   7.437   9.879   6.552
18272SOL    HW156713   7.474   9.902   6.467
18272SOL    HW256714   7.434   9.961   6.600
18273SOL     OW56715   6.434   6.518  10.331
18273SOL    HW156716   6.370   6.453  10.302
18273SOL    HW256717   6.464   6.561  10.250
18274SOL     OW56718   7.162  11.787   7.717
18274SOL    HW156719   7.131  11.783   7.627
18274SOL    HW256720   7.128  11.870   7.751
18275SOL     OW56721  13.808   7.125  13.525
18275SOL    HW156722  13.847   7.192  13.469
18275SOL    HW256723  13.798   7.049  13.467
18276SOL     OW56724  13.861  12.091  12.819
18276SOL    HW156725  13.888  12.005  12.787
18276SOL    HW256726  13.777  12.075  12.862
18277SOL     OW56727   7.718  14.241   7.525
18277SOL    HW156728   7.695  14.169   7.465
18277SOL    HW256729   7.691  14.209   7.611
18278SOL     OW56730  14.428   6.143  13.408
18278SOL    HW156731  14.473   6.062  13.432
18278SOL    HW256732  14.498   6.201  13.377
18279SOL     OW56733   7.983   4.761   6.435
18279SOL    HW156734   7.906   4.777   6.488
18279SOL    HW256735   7.971   4.814   6.356
18280SOL     OW56736   6.752  12.737   9.294
18280SOL    HW156737   6.842  12.720   9.323
18280SOL    HW256738   6.748  12.832   9.285
18281SOL     OW56739   3.796  13.947   6.530
18281SOL    HW156740   3.772  13.858   6.506
18281SOL    HW256741   3.879  13.962   6.485
18282SOL     OW56742   7.502   3.526  14.387
18282SOL    HW156743   7.521   3.491  14.300
18282SOL    HW256744   7.586   3.523  14.433
18283SOL     OW56745  13.243   5.284  10.714
18283SOL    HW156746  13.203   5.328  10.789
18283SOL    HW256747  13.170   5.243  10.668
18284SOL     OW56748   9.783  12.293   8.488
18284SOL    HW156749   9.730  12.299   8.567
18284SOL    HW256750   9.765  12.374   8.441
18285SOL     OW56751   6.906   8.146   0.418
18285SOL    HW156752   6.959   8.093   0.477
18285SOL    HW256753   6.815   8.126   0.443
18286SOL     OW56754   7.860   1.896   0.910
18286SOL    HW156755   7.815   1.979   0.918
18286SOL    HW256756   7.935   1.914   0.854
18287SOL     OW56757   5.562   5.196  11.052
18287SOL    HW156758   5.582   5.286  11.029
18287SOL    HW256759   5.474   5.182  11.016
18288SOL     OW56760   0.244   4.239   8.056
18288SOL    HW156761   0.186   4.314   8.047
18288SOL    HW256762   0.332   4.276   8.055
18289SOL     OW56763   1.720   0.584  13.231
18289SOL    HW156764   1.670   0.643  13.174
18289SOL    HW256765   1.804   0.574  13.185
18290SOL     OW56766   7.771   6.573   2.235
18290SOL    HW156767   7.746   6.483   2.257
18290SOL    HW256768   7.703   6.627   2.275
18291SOL     OW56769   4.245   6.221   3.915
18291SOL    HW156770   4.212   6.273   3.988
18291SOL    HW256771   4.325   6.180   3.948
18292SOL     OW56772   1.542   1.321   5.730
18292SOL    HW156773   1.605   1.269   5.680
18292SOL    HW256774   1.594   1.360   5.801
18293SOL     OW56775  10.549  12.466   8.540
18293SOL    HW156776  10.468  12.488   8.493
18293SOL    HW256777  10.557  12.534   8.607
18294SOL     OW56778  10.885  10.503  12.270
18294SOL    HW156779  10.924  10.422  12.304
18294SOL    HW256780  10.797  10.505  12.308
18295SOL     OW56781  12.033  13.163   5.937
18295SOL    HW156782  12.021  13.068   5.940
18295SOL    HW256783  12.098  13.181   6.005
18296SOL     OW56784   8.690   8.333   8.757
18296SOL    HW156785   8.714   8.280   8.833
18296SOL    HW256786   8.645   8.409   8.794
18297SOL     OW56787   6.517  14.172   9.715
18297SOL    HW156788   6.558  14.173   9.802
18297SOL    HW256789   6.513  14.079   9.692
18298SOL     OW56790   0.151  14.787   8.760
18298SOL    HW156791   0.105  14.752   8.684
18298SOL    HW256792   0.151   0.002   8.746
18299SOL     OW56793   2.683  11.584   5.234
18299SOL    HW156794   2.602  11.560   5.278
18299SOL    HW256795   2.748  11.589   5.304
18300SOL     OW56796  13.406   1.551   6.761
18300SOL    HW156797  13.475   1.617   6.768
18300SOL    HW256798  13.419   1.495   6.836
18301SOL     OW56799   8.588  14.591   7.284
18301SOL    HW156800   8.520  14.635   7.336
18301SOL    HW256801   8.592  14.641   7.203
18302SOL     OW56802  12.294   8.455   4.527
18302SOL    HW156803  12.295   8.409   4.611
18302SOL    HW256804  12.386   8.457   4.500
18303SOL     OW56805   2.702  12.801   0.034
18303SOL    HW156806   2.693  12.896   0.040
18303SOL    HW256807   2.674  12.780  14.825
18304SOL     OW56808   6.891   6.343   7.419
18304SOL    HW156809   6.843   6.397   7.482
18304SOL    HW256810   6.841   6.350   7.338
18305SOL     OW56811   5.930   6.932   3.841
18305SOL    HW156812   5.925   6.842   3.874
18305SOL    HW256813   5.869   6.981   3.897
18306SOL     OW56814   6.852   9.225  14.405
18306SOL    HW156815   6.872   9.134  14.424
18306SOL    HW256816   6.843   9.228  14.309
18307SOL     OW56817  10.556   7.387  14.271
18307SOL    HW156818  10.586   7.365  14.359
18307SOL    HW256819  10.517   7.306  14.238
18308SOL     OW56820  10.969  12.164   5.855
18308SOL    HW156821  11.008  12.222   5.789
18308SOL    HW256822  10.974  12.077   5.816
18309SOL     OW56823   9.451  13.805   9.854
18309SOL    HW156824   9.394  13.833   9.926
18309SOL    HW256825   9.488  13.722   9.883
18310SOL     OW56826   6.473   6.506  13.612
18310SOL    HW156827   6.517   6.489  13.695
18310SOL    HW256828   6.511   6.589  13.582
18311SOL     OW56829  11.447   6.440   1.431
18311SOL    HW156830  11.444   6.374   1.362
18311SOL    HW256831  11.539   6.468   1.434
18312SOL     OW56832   5.036   1.595   4.682
18312SOL    HW156833   5.009   1.672   4.632
18312SOL    HW256834   5.015   1.617   4.773
18313SOL     OW56835   4.823   2.514  12.579
18313SOL    HW156836   4.907   2.469  12.594
18313SOL    HW256837   4.830   2.595  12.628
18314SOL     OW56838  10.764   1.998   8.801
18314SOL    HW156839  10.826   2.059   8.843
18314SOL    HW256840  10.745   2.038   8.717
18315SOL     OW56841  11.409  14.626   5.344
18315SOL    HW156842  11.491  14.599   5.303
18315SOL    HW256843  11.433  14.697   5.403
18316SOL     OW56844   0.153   4.965  10.371
18316SOL    HW156845   0.193   4.947  10.286
18316SOL    HW256846   0.156   5.060  10.380
18317SOL     OW56847   6.801   8.199   7.180
18317SOL    HW156848   6.716   8.156   7.176
18317SOL    HW256849   6.827   8.191   7.272
18318SOL     OW56850  11.815   4.451  11.126
18318SOL    HW156851  11.801   4.484  11.215
18318SOL    HW256852  11.772   4.515  11.069
18319SOL     OW56853   8.522   4.341  10.786
18319SOL    HW156854   8.493   4.388  10.864
18319SOL    HW256855   8.473   4.381  10.714
18320SOL     OW56856   5.715  14.219   1.541
18320SOL    HW156857   5.633  14.217   1.591
18320SOL    HW256858   5.762  14.294   1.576
18321SOL     OW56859   3.125   7.939   0.223
18321SOL    HW156860   3.037   7.911   0.196
18321SOL    HW256861   3.123   7.934   0.318
18322SOL     OW56862   8.485   9.139   9.606
18322SOL    HW156863   8.473   9.109   9.515
18322SOL    HW256864   8.452   9.229   9.606
18323SOL     OW56865   6.474  12.028   1.870
18323SOL    HW156866   6.420  12.100   1.905
18323SOL    HW256867   6.520  11.994   1.946
18324SOL     OW56868   5.899   1.667   4.536
18324SOL    HW156869   5.975   1.635   4.584
18324SOL    HW256870   5.824   1.645   4.592
18325SOL     OW56871  14.041   1.110   7.874
18325SOL    HW156872  14.098   1.040   7.905
18325SOL    HW256873  13.959   1.066   7.849
18326SOL     OW56874   5.233   2.386   8.850
18326SOL    HW156875   5.184   2.462   8.817
18326SOL    HW256876   5.324   2.404   8.826
18327SOL     OW56877  11.583   9.421  13.148
18327SOL    HW156878  11.613   9.501  13.105
18327SOL    HW256879  11.542   9.370  13.078
18328SOL     OW56880   5.062  12.015   3.488
18328SOL    HW156881   4.996  11.975   3.544
18328SOL    HW256882   5.013  12.069   3.427
18329SOL     OW56883   9.665   8.543  14.408
18329SOL    HW156884   9.754   8.522  14.379
18329SOL    HW256885   9.661   8.509  14.498
18330SOL     OW56886   2.725  13.851   3.407
18330SOL    HW156887   2.708  13.908   3.482
18330SOL    HW256888   2.712  13.907   3.330
18331SOL     OW56889   1.080  10.205   4.170
18331SOL    HW156890   1.164  10.211   4.215
18331SOL    HW256891   1.102  10.195   4.077
18332SOL     OW56892  14.804   9.148   5.117
18332SOL    HW156893  14.786   9.141   5.023
18332SOL    HW256894   0.016   9.123   5.126
18333SOL     OW56895   7.526   5.323  10.764
18333SOL    HW156896   7.562   5.251  10.816
18333SOL    HW256897   7.577   5.323  10.683
18334SOL     OW56898   6.021  10.109  14.424
18334SOL    HW156899   6.053  10.165  14.353
18334SOL    HW256900   5.966  10.167  14.476
18335SOL     OW56901   0.450  14.451   7.479
18335SOL    HW156902   0.493  14.443   7.565
18335SOL    HW256903   0.487  14.532   7.442
18336SOL     OW56904   1.862  10.483  10.197
18336SOL    HW156905   1.932  10.418  10.208
18336SOL    HW256906   1.815  10.481  10.280
18337SOL     OW56907   3.749   0.961   8.057
18337SOL    HW156908   3.800   0.903   8.000
18337SOL    HW256909   3.720   0.904   8.129
18338SOL     OW56910   2.372   3.681  10.225
18338SOL    HW156911   2.353   3.774  10.227
18338SOL    HW256912   2.346   3.649  10.312
18339SOL     OW56913   5.217   8.854   1.415
18339SOL    HW156914   5.208   8.890   1.327
18339SOL    HW256915   5.298   8.803   1.412
18340SOL     OW56916  10.297  12.640   8.681
18340SOL    HW156917  10.369  12.624   8.743
18340SOL    HW256918  10.234  12.693   8.730
18341SOL     OW56919   7.578  10.036  11.460
18341SOL    HW156920   7.613   9.960  11.507
18341SOL    HW256921   7.627  10.110  11.494
18342SOL     OW56922   7.769  11.243   6.464
18342SOL    HW156923   7.853  11.205   6.441
18342SOL    HW256924   7.781  11.276   6.553
18343SOL     OW56925   5.210   5.981  14.120
18343SOL    HW156926   5.231   6.075  14.113
18343SOL    HW256927   5.293   5.940  14.142
18344SOL     OW56928   2.233   5.935   7.603
18344SOL    HW156929   2.203   5.929   7.512
18344SOL    HW256930   2.184   6.008   7.640
18345SOL     OW56931   9.656   0.543  13.527
18345SOL    HW156932   9.694   0.492  13.455
18345SOL    HW256933   9.723   0.608  13.548
18346SOL     OW56934  14.158  10.036   8.696
18346SOL    HW156935  14.135   9.988   8.775
18346SOL    HW256936  14.210  10.110   8.726
18347SOL     OW56937   0.567  13.826   3.267
18347SOL    HW156938   0.509  13.769   3.216
18347SOL    HW256939   0.582  13.901   3.210
18348SOL     OW56940  11.640   5.850   7.726
18348SOL    HW156941  11.563   5.837   7.670
18348SOL    HW256942  11.714   5.820   7.673
18349SOL     OW56943  14.305   3.118   2.028
18349SOL    HW156944  14.369   3.133   2.097
18349SOL    HW256945  14.357   3.091   1.952
18350SOL     OW56946   8.920   2.895   1.249
18350SOL    HW156947   9.014   2.906   1.234
18350SOL    HW256948   8.900   2.810   1.211
18351SOL     OW56949  11.947   2.063  13.779
18351SOL    HW156950  12.002   2.123  13.728
18351SOL    HW256951  11.857   2.087  13.756
18352SOL     OW56952   7.426  11.749   4.945
18352SOL    HW156953   7.387  11.828   4.983
18352SOL    HW256954   7.352  11.704   4.904
18353SOL     OW56955  14.352   1.785   5.889
18353SOL    HW156956  14.371   1.820   5.976
18353SOL    HW256957  14.408   1.836   5.830
18354SOL     OW56958  11.272  13.350  11.771
18354SOL    HW156959  11.195  13.388  11.813
18354SOL    HW256960  11.341  13.415  11.784
18355SOL     OW56961  11.381   0.492   1.423
18355SOL    HW156962  11.455   0.440   1.454
18355SOL    HW256963  11.408   0.524   1.337
18356SOL     OW56964   1.656   0.526   6.623
18356SOL    HW156965   1.638   0.504   6.532
18356SOL    HW256966   1.691   0.615   6.620
18357SOL     OW56967  12.277   1.972  13.109
18357SOL    HW156968  12.274   2.063  13.080
18357SOL    HW256969  12.369   1.947  13.098
18358SOL     OW56970   7.607   6.361   2.037
18358SOL    HW156971   7.595   6.273   2.002
18358SOL    HW256972   7.589   6.353   2.130
18359SOL     OW56973   4.224   1.575   1.168
18359SOL    HW156974   4.299   1.525   1.201
18359SOL    HW256975   4.242   1.587   1.075
18360SOL     OW56976   3.927   4.337  11.834
18360SOL    HW156977   3.905   4.290  11.914
18360SOL    HW256978   3.876   4.292  11.766
18361SOL     OW56979   6.332   4.531  12.599
18361SOL    HW156980   6.275   4.559  12.671
18361SOL    HW256981   6.298   4.445  12.574
18362SOL     OW56982  14.577  12.723  13.392
18362SOL    HW156983  14.497  12.763  13.426
18362SOL    HW256984  14.648  12.779  13.425
18363SOL     OW56985  14.154   0.072   2.400
18363SOL    HW156986  14.070   0.109   2.372
18363SOL    HW256987  14.136  14.860   2.414
18364SOL     OW56988   1.333   3.055   2.226
18364SOL    HW156989   1.389   3.090   2.295
18364SOL    HW256990   1.345   3.115   2.153
18365SOL     OW56991   1.658   7.383   3.364
18365SOL    HW156992   1.723   7.336   3.416
18365SOL    HW256993   1.574   7.347   3.393
18366SOL     OW56994  13.806   5.238   2.565
18366SOL    HW156995  13.797   5.243   2.661
18366SOL    HW256996  13.795   5.328   2.536
18367SOL     OW56997   6.067   1.715   7.597
18367SOL    HW156998   6.018   1.779   7.649
18367SOL    HW256999   6.088   1.645   7.659
18368SOL     OW57000   8.172  10.022   3.116
18368SOL    HW157001   8.081   9.995   3.124
18368SOL    HW257002   8.214   9.954   3.064
18369SOL     OW57003   8.726   1.942   8.048
18369SOL    HW157004   8.755   1.972   7.962
18369SOL    HW257005   8.800   1.959   8.106
18370SOL     OW57006   8.642   9.295   8.895
18370SOL    HW157007   8.556   9.330   8.868
18370SOL    HW257008   8.702   9.323   8.826
18371SOL     OW57009   7.883   4.487   0.824
18371SOL    HW157010   7.843   4.456   0.906
18371SOL    HW257011   7.821   4.551   0.790
18372SOL     OW57012   7.679   9.920  10.611
18372SOL    HW157013   7.659   9.882  10.697
18372SOL    HW257014   7.630  10.002  10.609
18373SOL     OW57015   9.257  11.791  11.220
18373SOL    HW157016   9.340  11.747  11.203
18373SOL    HW257017   9.204  11.726  11.265
18374SOL     OW57018   5.734   9.258   8.105
18374SOL    HW157019   5.660   9.252   8.165
18374SOL    HW257020   5.806   9.290   8.159
18375SOL     OW57021   3.404  10.705   6.903
18375SOL    HW157022   3.429  10.739   6.817
18375SOL    HW257023   3.468  10.636   6.921
18376SOL     OW57024   7.652   5.986   3.143
18376SOL    HW157025   7.598   5.994   3.065
18376SOL    HW257026   7.686   6.074   3.158
18377SOL     OW57027   5.758   0.622   1.909
18377SOL    HW157028   5.690   0.690   1.903
18377SOL    HW257029   5.721   0.547   1.863
18378SOL     OW57030   7.111   7.586   7.493
18378SOL    HW157031   7.167   7.605   7.568
18378SOL    HW257032   7.098   7.491   7.496
18379SOL     OW57033   0.546   4.168   9.941
18379SOL    HW157034   0.573   4.156  10.032
18379SOL    HW257035   0.462   4.213   9.946
18380SOL     OW57036   9.686  10.992  12.859
18380SOL    HW157037   9.592  11.011  12.854
18380SOL    HW257038   9.692  10.912  12.911
18381SOL     OW57039   4.666   0.019   7.120
18381SOL    HW157040   4.702  14.812   7.138
18381SOL    HW257041   4.716   0.050   7.044
18382SOL     OW57042   9.620   8.328  10.193
18382SOL    HW157043   9.713   8.314  10.213
18382SOL    HW257044   9.614   8.315  10.098
18383SOL     OW57045   1.357  12.613   1.260
18383SOL    HW157046   1.270  12.584   1.288
18383SOL    HW257047   1.401  12.532   1.232
18384SOL     OW57048   9.299   2.855  12.384
18384SOL    HW157049   9.363   2.810  12.439
18384SOL    HW257050   9.215   2.815  12.407
18385SOL     OW57051   1.944  11.786  10.891
18385SOL    HW157052   1.991  11.862  10.856
18385SOL    HW257053   2.010  11.716  10.894
18386SOL     OW57054  12.706   2.628   5.683
18386SOL    HW157055  12.618   2.593   5.691
18386SOL    HW257056  12.740   2.589   5.602
18387SOL     OW57057   8.867   1.214  11.113
18387SOL    HW157058   8.903   1.169  11.189
18387SOL    HW257059   8.930   1.284  11.094
18388SOL     OW57060   7.056  12.679  11.028
18388SOL    HW157061   7.017  12.668  11.115
18388SOL    HW257062   7.114  12.754  11.036
18389SOL     OW57063   5.220   7.665  14.858
18389SOL    HW157064   5.138   7.636   0.017
18389SOL    HW257065   5.193   7.717  14.782
18390SOL     OW57066   4.525  14.671   1.297
18390SOL    HW157067   4.492  14.733   1.361
18390SOL    HW257068   4.507  14.712   1.212
18391SOL     OW57069  12.237  10.869   2.355
18391SOL    HW157070  12.277  10.831   2.433
18391SOL    HW257071  12.157  10.819   2.342
18392SOL     OW57072   4.479   5.772   3.046
18392SOL    HW157073   4.417   5.818   3.103
18392SOL    HW257074   4.502   5.693   3.095
18393SOL     OW57075   9.326   7.913   5.226
18393SOL    HW157076   9.338   7.959   5.143
18393SOL    HW257077   9.295   7.980   5.287
18394SOL     OW57078   5.418   5.501   2.204
18394SOL    HW157079   5.355   5.465   2.267
18394SOL    HW257080   5.390   5.591   2.190
18395SOL     OW57081   1.382  13.398   1.626
18395SOL    HW157082   1.355  13.445   1.547
18395SOL    HW257083   1.339  13.444   1.698
18396SOL     OW57084   4.989  10.862   5.332
18396SOL    HW157085   5.021  10.779   5.298
18396SOL    HW257086   4.932  10.896   5.263
18397SOL     OW57087  10.257   1.670   8.458
18397SOL    HW157088  10.207   1.689   8.537
18397SOL    HW257089  10.348   1.685   8.483
18398SOL     OW57090   7.417   3.087   1.109
18398SOL    HW157091   7.368   3.135   1.176
18398SOL    HW257092   7.365   3.097   1.030
18399SOL     OW57093   2.343  14.399   5.823
18399SOL    HW157094   2.298  14.379   5.742
18399SOL    HW257095   2.305  14.340   5.888
18400SOL     OW57096   8.075   3.108  10.351
18400SOL    HW157097   8.115   3.031  10.313
18400SOL    HW257098   7.981   3.089  10.351
18401SOL     OW57099  10.199   6.220   7.396
18401SOL    HW157100  10.170   6.141   7.352
18401SOL    HW257101  10.122   6.250   7.446
18402SOL     OW57102   2.705  14.613  13.681
18402SOL    HW157103   2.737  14.527  13.654
18402SOL    HW257104   2.774  14.649  13.737
18403SOL     OW57105   1.877   0.441   0.806
18403SOL    HW157106   1.879   0.464   0.713
18403SOL    HW257107   1.951   0.380   0.817
18404SOL     OW57108  13.507   4.455  10.635
18404SOL    HW157109  13.578   4.519  10.638
18404SOL    HW257110  13.552   4.370  10.636
18405SOL     OW57111  11.093  10.279   3.597
18405SOL    HW157112  11.087  10.271   3.502
18405SOL    HW257113  11.152  10.353   3.611
18406SOL     OW57114   9.890  11.951  14.864
18406SOL    HW157115   9.968  11.963  14.810
18406SOL    HW257116   9.884  11.857  14.877
18407SOL     OW57117  10.116   2.410   5.984
18407SOL    HW157118  10.051   2.394   5.916
18407SOL    HW257119  10.078   2.478   6.039
18408SOL     OW57120  11.338   8.348   1.722
18408SOL    HW157121  11.423   8.341   1.679
18408SOL    HW257122  11.277   8.303   1.664
18409SOL     OW57123  10.434   3.132  13.715
18409SOL    HW157124  10.433   3.148  13.621
18409SOL    HW257125  10.481   3.049  13.725
18410SOL     OW57126   8.388  11.299   5.097
18410SOL    HW157127   8.342  11.237   5.155
18410SOL    HW257128   8.481  11.287   5.119
18411SOL     OW57129  11.961   9.100  13.215
18411SOL    HW157130  11.897   9.170  13.232
18411SOL    HW257131  12.007   9.088  13.298
18412SOL     OW57132   0.508   2.360  11.710
18412SOL    HW157133   0.449   2.361  11.634
18412SOL    HW257134   0.495   2.273  11.749
18413SOL     OW57135  11.180   1.335  11.482
18413SOL    HW157136  11.167   1.311  11.574
18413SOL    HW257137  11.148   1.260  11.432
18414SOL     OW57138  11.150   8.797   0.078
18414SOL    HW157139  11.095   8.868   0.045
18414SOL    HW257140  11.236   8.815   0.041
18415SOL     OW57141   6.819  12.864   1.120
18415SOL    HW157142   6.829  12.946   1.072
18415SOL    HW257143   6.901  12.818   1.108
18416SOL     OW57144   0.554  12.822   7.805
18416SOL    HW157145   0.523  12.913   7.803
18416SOL    HW257146   0.508  12.779   7.734
18417SOL     OW57147   9.218  14.249   2.105
18417SOL    HW157148   9.161  14.175   2.127
18417SOL    HW257149   9.306  14.211   2.100
18418SOL     OW57150   8.382   6.251   2.406
18418SOL    HW157151   8.405   6.343   2.400
18418SOL    HW257152   8.367   6.236   2.499
18419SOL     OW57153  12.404   2.557   0.358
18419SOL    HW157154  12.374   2.542   0.268
18419SOL    HW257155  12.499   2.553   0.353
18420SOL     OW57156   5.586  10.188  12.832
18420SOL    HW157157   5.605  10.126  12.902
18420SOL    HW257158   5.645  10.163  12.761
18421SOL     OW57159  13.763   8.203   9.213
18421SOL    HW157160  13.695   8.155   9.165
18421SOL    HW257161  13.714   8.259   9.274
18422SOL     OW57162   9.870   9.421  12.647
18422SOL    HW157163   9.950   9.424  12.700
18422SOL    HW257164   9.861   9.329  12.623
18423SOL     OW57165   9.313   4.110   3.444
18423SOL    HW157166   9.366   4.140   3.370
18423SOL    HW257167   9.251   4.048   3.406
18424SOL     OW57168  11.205  11.183  12.183
18424SOL    HW157169  11.196  11.135  12.101
18424SOL    HW257170  11.194  11.116  12.251
18425SOL     OW57171   6.370   8.696   7.008
18425SOL    HW157172   6.416   8.778   6.993
18425SOL    HW257173   6.410   8.659   7.086
18426SOL     OW57174   3.338   4.142   8.222
18426SOL    HW157175   3.424   4.169   8.191
18426SOL    HW257176   3.306   4.217   8.273
18427SOL     OW57177   8.793   4.677   2.139
18427SOL    HW157178   8.755   4.765   2.137
18427SOL    HW257179   8.883   4.689   2.110
18428SOL     OW57180  13.866  14.555  14.114
18428SOL    HW157181  13.828  14.507  14.041
18428SOL    HW257182  13.868  14.646  14.085
18429SOL     OW57183  14.445   4.843  12.634
18429SOL    HW157184  14.366   4.789  12.628
18429SOL    HW257185  14.427   4.905  12.704
18430SOL     OW57186   0.105   6.903   4.277
18430SOL    HW157187   0.071   6.848   4.348
18430SOL    HW257188   0.055   6.984   4.285
18431SOL     OW57189  11.679   3.141  13.369
18431SOL    HW157190  11.614   3.163  13.302
18431SOL    HW257191  11.695   3.224  13.414
18432SOL     OW57192  10.863   8.202  14.789
18432SOL    HW157193  10.899   8.194  14.701
18432SOL    HW257194  10.769   8.214  14.776
18433SOL     OW57195  13.872   2.444   4.760
18433SOL    HW157196  13.789   2.489   4.743
18433SOL    HW257197  13.879   2.442   4.855
18434SOL     OW57198  10.680   2.632   7.777
18434SOL    HW157199  10.767   2.655   7.811
18434SOL    HW257200  10.645   2.715   7.745
18435SOL     OW57201  10.270   9.268   3.185
18435SOL    HW157202  10.268   9.173   3.194
18435SOL    HW257203  10.250   9.285   3.093
18436SOL     OW57204   9.804  11.807   2.084
18436SOL    HW157205   9.856  11.730   2.059
18436SOL    HW257206   9.715  11.786   2.054
18437SOL     OW57207   8.138   0.464   7.093
18437SOL    HW157208   8.197   0.389   7.100
18437SOL    HW257209   8.076   0.439   7.024
18438SOL     OW57210   1.207   3.768   1.900
18438SOL    HW157211   1.115   3.774   1.925
18438SOL    HW257212   1.210   3.809   1.813
18439SOL     OW57213   8.806   0.620   8.071
18439SOL    HW157214   8.743   0.630   8.142
18439SOL    HW257215   8.886   0.661   8.104
18440SOL     OW57216   8.857   2.927   3.639
18440SOL    HW157217   8.807   2.944   3.560
18440SOL    HW257218   8.837   3.001   3.697
18441SOL     OW57219   1.953  10.922   7.679
18441SOL    HW157220   1.917  10.855   7.737
18441SOL    HW257221   2.009  10.975   7.736
18442SOL     OW57222  11.231   4.503   5.577
18442SOL    HW157223  11.192   4.575   5.626
18442SOL    HW257224  11.172   4.429   5.593
18443SOL     OW57225   9.037   1.216   5.666
18443SOL    HW157226   9.128   1.220   5.695
18443SOL    HW257227   9.010   1.308   5.660
18444SOL     OW57228  10.861  14.511   4.990
18444SOL    HW157229  10.869  14.603   5.017
18444SOL    HW257230  10.778  14.508   4.943
18445SOL     OW57231   5.812   8.660   1.914
18445SOL    HW157232   5.872   8.679   1.987
18445SOL    HW257233   5.730   8.703   1.939
18446SOL     OW57234  11.441   0.937   6.207
18446SOL    HW157235  11.531   0.909   6.191
18446SOL    HW257236  11.422   0.906   6.296
18447SOL     OW57237   9.584   2.343  12.853
18447SOL    HW157238   9.504   2.291  12.863
18447SOL    HW257239   9.631   2.302  12.781
18448SOL     OW57240   8.703   8.307   4.705
18448SOL    HW157241   8.630   8.366   4.688
18448SOL    HW257242   8.766   8.326   4.635
18449SOL     OW57243   7.215   5.079   0.927
18449SOL    HW157244   7.290   5.117   0.973
18449SOL    HW257245   7.171   5.154   0.887
18450SOL     OW57246   5.971  12.632  11.552
18450SOL    HW157247   5.945  12.707  11.605
18450SOL    HW257248   5.910  12.563  11.578
18451SOL     OW57249   0.485   3.509   6.991
18451SOL    HW157250   0.516   3.473   7.074
18451SOL    HW257251   0.413   3.451   6.965
18452SOL     OW57252   3.184   8.346  10.076
18452SOL    HW157253   3.269   8.347  10.121
18452SOL    HW257254   3.161   8.253  10.070
18453SOL     OW57255  10.595  10.920   3.089
18453SOL    HW157256  10.649  10.841   3.089
18453SOL    HW257257  10.639  10.979   3.028
18454SOL     OW57258   8.015  10.195   2.734
18454SOL    HW157259   8.038  10.103   2.722
18454SOL    HW257260   7.953  10.195   2.806
18455SOL     OW57261   3.440  11.580   3.281
18455SOL    HW157262   3.390  11.638   3.225
18455SOL    HW257263   3.513  11.634   3.312
18456SOL     OW57264   3.320   2.327   6.282
18456SOL    HW157265   3.314   2.304   6.189
18456SOL    HW257266   3.260   2.400   6.292
18457SOL     OW57267   5.649  11.742   3.079
18457SOL    HW157268   5.682  11.669   3.027
18457SOL    HW257269   5.556  11.746   3.057
18458SOL     OW57270   1.987   5.791   8.941
18458SOL    HW157271   1.997   5.710   8.992
18458SOL    HW257272   2.002   5.861   9.004
18459SOL     OW57273   0.431  13.356   9.450
18459SOL    HW157274   0.398  13.444   9.435
18459SOL    HW257275   0.526  13.367   9.457
18460SOL     OW57276   6.438   2.756   4.915
18460SOL    HW157277   6.402   2.841   4.887
18460SOL    HW257278   6.412   2.748   5.006
18461SOL     OW57279   1.757   7.302   3.071
18461SOL    HW157280   1.750   7.360   3.147
18461SOL    HW257281   1.681   7.245   3.078
18462SOL     OW57282   6.094   4.438   8.679
18462SOL    HW157283   6.116   4.356   8.723
18462SOL    HW257284   6.146   4.504   8.724
18463SOL     OW57285  11.794   4.394   2.700
18463SOL    HW157286  11.813   4.395   2.794
18463SOL    HW257287  11.874   4.428   2.659
18464SOL     OW57288   9.491  11.215   2.178
18464SOL    HW157289   9.573  11.166   2.183
18464SOL    HW257290   9.457  11.214   2.267
18465SOL     OW57291   3.352   4.907   4.510
18465SOL    HW157292   3.375   4.985   4.460
18465SOL    HW257293   3.359   4.935   4.601
18466SOL     OW57294   9.659  10.961  13.579
18466SOL    HW157295   9.575  10.939  13.539
18466SOL    HW257296   9.653  10.926  13.668
18467SOL     OW57297  12.443   0.613   1.932
18467SOL    HW157298  12.357   0.612   1.974
18467SOL    HW257299  12.426   0.641   1.842
18468SOL     OW57300  10.149  12.162   1.227
18468SOL    HW157301  10.149  12.127   1.317
18468SOL    HW257302  10.057  12.160   1.201
18469SOL     OW57303   0.329   4.343   9.640
18469SOL    HW157304   0.254   4.385   9.681
18469SOL    HW257305   0.385   4.415   9.613
18470SOL     OW57306  13.402  11.763   3.058
18470SOL    HW157307  13.446  11.796   2.979
18470SOL    HW257308  13.313  11.743   3.029
18471SOL     OW57309   2.138   2.102   2.390
18471SOL    HW157310   2.050   2.134   2.370
18471SOL    HW257311   2.185   2.106   2.306
18472SOL     OW57312  10.808  13.873  10.311
18472SOL    HW157313  10.864  13.934  10.360
18472SOL    HW257314  10.742  13.930  10.271
18473SOL     OW57315   6.970   6.461   7.876
18473SOL    HW157316   6.880   6.429   7.867
18473SOL    HW257317   6.963   6.556   7.872
18474SOL     OW57318  12.853   0.127   3.301
18474SOL    HW157319  12.787   0.109   3.368
18474SOL    HW257320  12.828   0.211   3.264
18475SOL     OW57321   0.331   9.190  11.228
18475SOL    HW157322   0.251   9.163  11.272
18475SOL    HW257323   0.394   9.204  11.300
18476SOL     OW57324   7.695  10.488   3.407
18476SOL    HW157325   7.765  10.520   3.463
18476SOL    HW257326   7.733  10.486   3.319
18477SOL     OW57327  13.790  12.945   2.223
18477SOL    HW157328  13.870  12.893   2.218
18477SOL    HW257329  13.762  12.939   2.314
18478SOL     OW57330   6.570   3.620  13.873
18478SOL    HW157331   6.491   3.672  13.859
18478SOL    HW257332   6.642   3.683  13.867
18479SOL     OW57333   2.795   3.246  11.529
18479SOL    HW157334   2.868   3.195  11.494
18479SOL    HW257335   2.764   3.194  11.604
18480SOL     OW57336  11.890   3.014   8.121
18480SOL    HW157337  11.805   2.997   8.162
18480SOL    HW257338  11.919   3.098   8.158
18481SOL     OW57339   8.405   5.114   3.184
18481SOL    HW157340   8.375   5.064   3.108
18481SOL    HW257341   8.327   5.125   3.239
18482SOL     OW57342  13.965   9.402   8.227
18482SOL    HW157343  13.965   9.341   8.300
18482SOL    HW257344  14.008   9.481   8.261
18483SOL     OW57345   4.976  12.148   0.287
18483SOL    HW157346   4.956  12.233   0.249
18483SOL    HW257347   4.972  12.162   0.381
18484SOL     OW57348   3.792   7.728   2.255
18484SOL    HW157349   3.811   7.785   2.330
18484SOL    HW257350   3.819   7.779   2.179
18485SOL     OW57351  11.359  12.937   5.125
18485SOL    HW157352  11.426  13.005   5.120
18485SOL    HW257353  11.359  12.897   5.038
18486SOL     OW57354  10.282  14.735   1.677
18486SOL    HW157355  10.211  14.735   1.613
18486SOL    HW257356  10.335  14.659   1.654
18487SOL     OW57357   7.940   5.440   9.167
18487SOL    HW157358   7.960   5.456   9.259
18487SOL    HW257359   8.018   5.396   9.133
18488SOL     OW57360   1.137   8.632   2.062
18488SOL    HW157361   1.139   8.664   1.972
18488SOL    HW257362   1.196   8.691   2.109
18489SOL     OW57363   7.670  14.234   3.735
18489SOL    HW157364   7.659  14.188   3.651
18489SOL    HW257365   7.621  14.181   3.798
18490SOL     OW57366   2.954  13.430   5.205
18490SOL    HW157367   2.876  13.437   5.150
18490SOL    HW257368   2.975  13.336   5.204
18491SOL     OW57369   5.783  12.268   8.560
18491SOL    HW157370   5.869  12.278   8.519
18491SOL    HW257371   5.771  12.348   8.611
18492SOL     OW57372  11.359  12.482   1.967
18492SOL    HW157373  11.406  12.425   1.906
18492SOL    HW257374  11.417  12.557   1.979
18493SOL     OW57375   4.942   1.720   5.405
18493SOL    HW157376   4.899   1.641   5.438
18493SOL    HW257377   4.971   1.766   5.484
18494SOL     OW57378   9.847  14.039   2.695
18494SOL    HW157379   9.793  14.079   2.764
18494SOL    HW257380   9.937  14.059   2.721
18495SOL     OW57381   6.373  11.317   0.609
18495SOL    HW157382   6.298  11.295   0.665
18495SOL    HW257383   6.448  11.278   0.654
18496SOL     OW57384   4.141   7.711   7.359
18496SOL    HW157385   4.140   7.625   7.401
18496SOL    HW257386   4.052   7.721   7.323
18497SOL     OW57387   4.715  11.562   6.570
18497SOL    HW157388   4.721  11.468   6.554
18497SOL    HW257389   4.770  11.602   6.502
18498SOL     OW57390  12.724   3.550   2.620
18498SOL    HW157391  12.760   3.544   2.532
18498SOL    HW257392  12.698   3.642   2.628
18499SOL     OW57393  12.250   3.472  13.096
18499SOL    HW157394  12.306   3.457  13.172
18499SOL    HW257395  12.281   3.411  13.030
18500SOL     OW57396   2.364  12.765   3.509
18500SOL    HW157397   2.361  12.676   3.545
18500SOL    HW257398   2.283  12.806   3.540
18501SOL     OW57399   2.178   5.570   9.569
18501SOL    HW157400   2.264   5.580   9.609
18501SOL    HW257401   2.124   5.532   9.638
18502SOL     OW57402   1.741   1.241  13.994
18502SOL    HW157403   1.737   1.330  14.029
18502SOL    HW257404   1.664   1.234  13.938
18503SOL     OW57405   5.444  13.217   7.584
18503SOL    HW157406   5.438  13.251   7.673
18503SOL    HW257407   5.484  13.130   7.593
18504SOL     OW57408   6.724   0.644   4.646
18504SOL    HW157409   6.801   0.634   4.702
18504SOL    HW257410   6.698   0.554   4.625
18505SOL     OW57411  12.155   7.490   0.864
18505SOL    HW157412  12.096   7.495   0.939
18505SOL    HW257413  12.221   7.425   0.890
18506SOL     OW57414   8.825   5.944  14.213
18506SOL    HW157415   8.789   5.855  14.207
18506SOL    HW257416   8.753   5.997  14.244
18507SOL     OW57417   2.626  14.012   0.929
18507SOL    HW157418   2.637  13.924   0.894
18507SOL    HW257419   2.568  14.002   1.004
18508SOL     OW57420  13.010   2.811  14.485
18508SOL    HW157421  12.917   2.822  14.500
18508SOL    HW257422  13.026   2.851  14.400
18509SOL     OW57423  12.838   6.252   9.815
18509SOL    HW157424  12.899   6.301   9.870
18509SOL    HW257425  12.753   6.265   9.857
18510SOL     OW57426  13.856  11.571  13.935
18510SOL    HW157427  13.893  11.631  13.870
18510SOL    HW257428  13.866  11.617  14.018
18511SOL     OW57429  11.163   1.783  11.438
18511SOL    HW157430  11.233   1.757  11.378
18511SOL    HW257431  11.162   1.879  11.433
18512SOL     OW57432   1.542   2.465  12.250
18512SOL    HW157433   1.521   2.445  12.341
18512SOL    HW257434   1.467   2.435  12.200
18513SOL     OW57435  10.737   8.836  12.811
18513SOL    HW157436  10.663   8.886  12.778
18513SOL    HW257437  10.744   8.761  12.752
18514SOL     OW57438   1.406   1.127   1.204
18514SOL    HW157439   1.439   1.099   1.289
18514SOL    HW257440   1.451   1.209   1.186
18515SOL     OW57441  12.317  14.231  13.753
18515SOL    HW157442  12.229  14.268  13.757
18515SOL    HW257443  12.307  14.142  13.785
18516SOL     OW57444  11.532   0.721   0.213
18516SOL    HW157445  11.586   0.645   0.189
18516SOL    HW257446  11.495   0.698   0.298
18517SOL     OW57447   6.026   7.572   3.245
18517SOL    HW157448   6.011   7.666   3.257
18517SOL    HW257449   5.967   7.548   3.173
18518SOL     OW57450   8.819   3.402   0.632
18518SOL    HW157451   8.890   3.431   0.575
18518SOL    HW257452   8.781   3.483   0.666
18519SOL     OW57453   1.213   7.338  12.888
18519SOL    HW157454   1.218   7.376  12.976
18519SOL    HW257455   1.204   7.413  12.829
18520SOL     OW57456  13.137   9.501  13.348
18520SOL    HW157457  13.217   9.485  13.298
18520SOL    HW257458  13.067   9.468  13.292
18521SOL     OW57459   8.976   5.939  14.537
18521SOL    HW157460   8.898   5.964  14.586
18521SOL    HW257461   8.948   5.938  14.445
18522SOL     OW57462   2.687  14.650   2.152
18522SOL    HW157463   2.604  14.689   2.179
18522SOL    HW257464   2.736  14.722   2.114
18523SOL     OW57465   8.749   0.985   8.290
18523SOL    HW157466   8.753   0.892   8.313
18523SOL    HW257467   8.716   0.986   8.200
18524SOL     OW57468  12.498  10.742   7.014
18524SOL    HW157469  12.499  10.740   7.110
18524SOL    HW257470  12.446  10.819   6.992
18525SOL     OW57471  11.984   7.358   5.132
18525SOL    HW157472  11.918   7.399   5.077
18525SOL    HW257473  11.963   7.387   5.221
18526SOL     OW57474  12.091   7.131   9.212
18526SOL    HW157475  12.174   7.108   9.253
18526SOL    HW257476  12.071   7.057   9.155
18527SOL     OW57477   5.068   0.339   1.864
18527SOL    HW157478   5.117   0.302   1.790
18527SOL    HW257479   5.098   0.290   1.940
18528SOL     OW57480  14.448   1.651   7.589
18528SOL    HW157481  14.425   1.558   7.585
18528SOL    HW257482  14.525   1.654   7.645
18529SOL     OW57483   9.482   5.460  11.910
18529SOL    HW157484   9.477   5.553  11.889
18529SOL    HW257485   9.419   5.449  11.982
18530SOL     OW57486  11.798   1.231   4.560
18530SOL    HW157487  11.733   1.190   4.503
18530SOL    HW257488  11.882   1.215   4.517
18531SOL     OW57489  10.914  11.099   4.845
18531SOL    HW157490  10.925  11.021   4.899
18531SOL    HW257491  10.963  11.080   4.765
18532SOL     OW57492   7.091   8.807  14.643
18532SOL    HW157493   7.125   8.817  14.732
18532SOL    HW257494   7.165   8.773  14.592
18533SOL     OW57495   6.313  13.257  11.961
18533SOL    HW157496   6.372  13.305  12.019
18533SOL    HW257497   6.228  13.299  11.976
18534SOL     OW57498   9.070   7.685  14.251
18534SOL    HW157499   9.025   7.725  14.176
18534SOL    HW257500   9.005   7.626  14.289
18535SOL     OW57501   1.466   6.814   4.332
18535SOL    HW157502   1.485   6.735   4.383
18535SOL    HW257503   1.515   6.883   4.375
18536SOL     OW57504  11.358  10.236   4.947
18536SOL    HW157505  11.408  10.192   4.878
18536SOL    HW257506  11.289  10.283   4.900
18537SOL     OW57507   0.852   2.558   1.608
18537SOL    HW157508   0.935   2.605   1.605
18537SOL    HW257509   0.875   2.466   1.592
18538SOL     OW57510   0.289  14.405  14.014
18538SOL    HW157511   0.369  14.418  13.963
18538SOL    HW257512   0.283  14.483  14.070
18539SOL     OW57513  13.353   2.766  12.320
18539SOL    HW157514  13.371   2.785  12.227
18539SOL    HW257515  13.407   2.829  12.367
18540SOL     OW57516   5.194   6.227  11.130
18540SOL    HW157517   5.173   6.168  11.057
18540SOL    HW257518   5.287   6.213  11.146
18541SOL     OW57519   4.763   4.884  14.675
18541SOL    HW157520   4.847   4.917  14.641
18541SOL    HW257521   4.740   4.945  14.745
18542SOL     OW57522  10.924   2.986   4.938
18542SOL    HW157523  10.934   2.892   4.955
18542SOL    HW257524  10.948   2.996   4.846
18543SOL     OW57525   2.611  11.497   6.204
18543SOL    HW157526   2.569  11.433   6.261
18543SOL    HW257527   2.561  11.495   6.123
18544SOL     OW57528  13.514   7.333   9.327
18544SOL    HW157529  13.472   7.381   9.398
18544SOL    HW257530  13.508   7.391   9.251
18545SOL     OW57531   1.822   1.894  13.288
18545SOL    HW157532   1.861   1.979  13.308
18545SOL    HW257533   1.882   1.854  13.226
18546SOL     OW57534  13.927   3.595   5.879
18546SOL    HW157535  13.980   3.521   5.908
18546SOL    HW257536  13.868   3.558   5.814
18547SOL     OW57537   6.539   5.199   2.829
18547SOL    HW157538   6.634   5.189   2.832
18547SOL    HW257539   6.509   5.128   2.772
18548SOL     OW57540   6.885  11.484   8.698
18548SOL    HW157541   6.822  11.521   8.761
18548SOL    HW257542   6.933  11.418   8.748
18549SOL     OW57543  11.166   8.792   4.832
18549SOL    HW157544  11.214   8.711   4.849
18549SOL    HW257545  11.077   8.762   4.809
18550SOL     OW57546  14.624   7.710  12.539
18550SOL    HW157547  14.566   7.634  12.546
18550SOL    HW257548  14.566   7.781  12.511
18551SOL     OW57549   4.720   8.530   7.701
18551SOL    HW157550   4.641   8.495   7.742
18551SOL    HW257551   4.792   8.485   7.744
18552SOL     OW57552  14.014   6.348  11.681
18552SOL    HW157553  14.074   6.313  11.747
18552SOL    HW257554  14.001   6.439  11.707
18553SOL     OW57555  10.913  12.633   2.212
18553SOL    HW157556  10.976  12.705   2.210
18553SOL    HW257557  10.828  12.676   2.216
18554SOL     OW57558  13.887   0.988  12.530
18554SOL    HW157559  13.929   1.074  12.530
18554SOL    HW257560  13.815   0.997  12.592
18555SOL     OW57561  13.868  13.581   6.914
18555SOL    HW157562  13.873  13.647   6.846
18555SOL    HW257563  13.953  13.538   6.912
18556SOL     OW57564  14.601   1.446  13.387
18556SOL    HW157565  14.601   1.483  13.475
18556SOL    HW257566  14.678   1.485  13.344
18557SOL     OW57567  13.808   9.167   4.008
18557SOL    HW157568  13.732   9.177   4.065
18557SOL    HW257569  13.883   9.177   4.067
18558SOL     OW57570   3.621   4.061   4.525
18558SOL    HW157571   3.589   4.099   4.443
18558SOL    HW257572   3.617   3.967   4.512
18559SOL     OW57573   4.736   3.232   3.298
18559SOL    HW157574   4.793   3.236   3.374
18559SOL    HW257575   4.683   3.312   3.302
18560SOL     OW57576   3.212  10.648   5.010
18560SOL    HW157577   3.249  10.563   5.033
18560SOL    HW257578   3.288  10.701   4.985
18561SOL     OW57579  11.850   5.786  11.120
18561SOL    HW157580  11.844   5.880  11.139
18561SOL    HW257581  11.825   5.744  11.202
18562SOL     OW57582  13.847   5.827  11.251
18562SOL    HW157583  13.791   5.752  11.231
18562SOL    HW257584  13.809   5.899  11.201
18563SOL     OW57585   6.458  11.537  12.830
18563SOL    HW157586   6.426  11.526  12.920
18563SOL    HW257587   6.542  11.491  12.829
18564SOL     OW57588  12.766  13.363   6.549
18564SOL    HW157589  12.760  13.304   6.624
18564SOL    HW257590  12.706  13.327   6.484
18565SOL     OW57591  12.858   7.572  12.121
18565SOL    HW157592  12.930   7.565  12.184
18565SOL    HW257593  12.846   7.482  12.089
18566SOL     OW57594   7.656   7.712  11.489
18566SOL    HW157595   7.599   7.756  11.553
18566SOL    HW257596   7.744   7.726  11.521
18567SOL     OW57597   1.528   7.916  13.927
18567SOL    HW157598   1.594   7.985  13.920
18567SOL    HW257599   1.497   7.922  14.017
18568SOL     OW57600   2.900  12.924   1.975
18568SOL    HW157601   2.890  12.910   2.069
18568SOL    HW257602   2.995  12.922   1.961
18569SOL     OW57603  12.344   8.954   3.877
18569SOL    HW157604  12.291   9.033   3.876
18569SOL    HW257605  12.307   8.901   3.948
18570SOL     OW57606   5.213   6.187  13.289
18570SOL    HW157607   5.275   6.118  13.265
18570SOL    HW257608   5.175   6.157  13.372
18571SOL     OW57609  10.873   0.379   7.147
18571SOL    HW157610  10.848   0.418   7.231
18571SOL    HW257611  10.799   0.396   7.089
18572SOL     OW57612   9.936   4.658   1.996
18572SOL    HW157613  10.030   4.655   1.982
18572SOL    HW257614   9.925   4.699   2.082
18573SOL     OW57615   6.417  11.330   2.689
18573SOL    HW157616   6.447  11.380   2.765
18573SOL    HW257617   6.479  11.351   2.620
18574SOL     OW57618   2.707   5.350   6.097
18574SOL    HW157619   2.793   5.344   6.139
18574SOL    HW257620   2.726   5.353   6.003
18575SOL     OW57621   9.202   4.026  12.310
18575SOL    HW157622   9.242   3.974  12.240
18575SOL    HW257623   9.149   3.964  12.359
18576SOL     OW57624   0.705   6.805  11.864
18576SOL    HW157625   0.723   6.712  11.874
18576SOL    HW257626   0.692   6.817  11.770
18577SOL     OW57627  14.332  13.678   6.891
18577SOL    HW157628  14.341  13.772   6.878
18577SOL    HW257629  14.391  13.639   6.826
18578SOL     OW57630   2.445  14.349  11.634
18578SOL    HW157631   2.536  14.329  11.655
18578SOL    HW257632   2.430  14.436  11.670
18579SOL     OW57633  13.268   2.942   2.747
18579SOL    HW157634  13.280   2.848   2.759
18579SOL    HW257635  13.174   2.955   2.759
18580SOL     OW57636   2.166   7.082   9.597
18580SOL    HW157637   2.108   7.154   9.573
18580SOL    HW257638   2.221   7.118   9.667
18581SOL     OW57639   0.014   1.889   6.339
18581SOL    HW157640   0.004   1.932   6.254
18581SOL    HW257641   0.108   1.871   6.346
18582SOL     OW57642   6.752  13.259  12.544
18582SOL    HW157643   6.839  13.265  12.582
18582SOL    HW257644   6.767  13.242  12.451
18583SOL     OW57645   2.865   1.014   8.361
18583SOL    HW157646   2.949   1.019   8.408
18583SOL    HW257647   2.887   0.975   8.277
18584SOL     OW57648   2.030   2.170  13.784
18584SOL    HW157649   2.049   2.103  13.718
18584SOL    HW257650   1.955   2.217  13.748
18585SOL     OW57651   4.805   1.251  10.905
18585SOL    HW157652   4.827   1.210  10.988
18585SOL    HW257653   4.723   1.298  10.921
18586SOL     OW57654  10.369   3.065   3.549
18586SOL    HW157655  10.430   3.004   3.507
18586SOL    HW257656  10.392   3.150   3.512
18587SOL     OW57657   3.965  10.298   1.565
18587SOL    HW157658   3.899  10.359   1.531
18587SOL    HW257659   3.916  10.238   1.621
18588SOL     OW57660  10.462  14.175   0.659
18588SOL    HW157661  10.540  14.211   0.618
18588SOL    HW257662  10.485  14.167   0.752
18589SOL     OW57663   1.214   1.367   8.675
18589SOL    HW157664   1.184   1.454   8.648
18589SOL    HW257665   1.301   1.358   8.637
18590SOL     OW57666   3.422   9.425  12.081
18590SOL    HW157667   3.362   9.470  12.022
18590SOL    HW257668   3.469   9.363  12.025
18591SOL     OW57669  10.471  14.236   2.250
18591SOL    HW157670  10.490  14.214   2.341
18591SOL    HW257671  10.401  14.301   2.256
18592SOL     OW57672   2.780   3.743   7.099
18592SOL    HW157673   2.802   3.651   7.108
18592SOL    HW257674   2.856   3.790   7.132
18593SOL     OW57675  13.570  14.140  14.665
18593SOL    HW157676  13.655  14.120  14.627
18593SOL    HW257677  13.590  14.202  14.735
18594SOL     OW57678  14.520   6.851   5.671
18594SOL    HW157679  14.497   6.808   5.753
18594SOL    HW257680  14.594   6.801   5.637
18595SOL     OW57681  11.945   8.376   2.651
18595SOL    HW157682  11.906   8.450   2.697
18595SOL    HW257683  11.988   8.324   2.719
18596SOL     OW57684  11.898  12.180   8.042
18596SOL    HW157685  11.831  12.240   8.010
18596SOL    HW257686  11.967  12.238   8.076
18597SOL     OW57687   6.034  10.691   1.714
18597SOL    HW157688   5.960  10.752   1.715
18597SOL    HW257689   6.052  10.674   1.807
18598SOL     OW57690   6.193   2.216   5.627
18598SOL    HW157691   6.177   2.122   5.616
18598SOL    HW257692   6.167   2.233   5.718
18599SOL     OW57693   7.260   0.431   0.359
18599SOL    HW157694   7.197   0.482   0.410
18599SOL    HW257695   7.278   0.354   0.412
18600SOL     OW57696   1.528   5.827   8.477
18600SOL    HW157697   1.545   5.911   8.519
18600SOL    HW257698   1.596   5.820   8.410
18601SOL     OW57699   0.454  12.012  10.828
18601SOL    HW157700   0.457  12.063  10.747
18601SOL    HW257701   0.424  11.925  10.801
18602SOL     OW57702  13.028   8.449  10.696
18602SOL    HW157703  13.119   8.449  10.727
18602SOL    HW257704  13.035   8.455  10.601
18603SOL     OW57705  14.456   1.773  14.806
18603SOL    HW157706  14.369   1.808  14.790
18603SOL    HW257707  14.447   1.679  14.787
18604SOL     OW57708   5.213   4.192   3.552
18604SOL    HW157709   5.120   4.175   3.565
18604SOL    HW257710   5.257   4.129   3.610
18605SOL     OW57711  13.936  11.045   5.865
18605SOL    HW157712  13.911  11.102   5.938
18605SOL    HW257713  13.996  11.098   5.813
18606SOL     OW57714   0.517   0.610  11.243
18606SOL    HW157715   0.553   0.553  11.311
18606SOL    HW257716   0.561   0.583  11.163
18607SOL     OW57717   3.781   1.150  12.312
18607SOL    HW157718   3.706   1.206  12.330
18607SOL    HW257719   3.829   1.147  12.395
18608SOL     OW57720   9.156  14.410  13.154
18608SOL    HW157721   9.120  14.482  13.206
18608SOL    HW257722   9.092  14.397  13.084
18609SOL     OW57723   6.866  12.896  12.158
18609SOL    HW157724   6.857  12.904  12.063
18609SOL    HW257725   6.953  12.856  12.170
18610SOL     OW57726   7.445   5.127   1.077
18610SOL    HW157727   7.478   5.148   1.164
18610SOL    HW257728   7.501   5.056   1.047
18611SOL     OW57729  14.779  10.785   6.579
18611SOL    HW157730  14.829  10.824   6.650
18611SOL    HW257731  14.719  10.854   6.551
18612SOL     OW57732   1.458   8.554   8.615
18612SOL    HW157733   1.371   8.568   8.579
18612SOL    HW257734   1.479   8.637   8.659
18613SOL     OW57735   5.877   4.680   1.605
18613SOL    HW157736   5.913   4.625   1.674
18613SOL    HW257737   5.953   4.707   1.553
18614SOL     OW57738   1.988   7.953  14.539
18614SOL    HW157739   2.042   7.906  14.475
18614SOL    HW257740   2.051   8.004  14.589
18615SOL     OW57741   5.247  13.814  14.159
18615SOL    HW157742   5.269  13.729  14.121
18615SOL    HW257743   5.319  13.871  14.134
18616SOL     OW57744  10.722   0.400  14.652
18616SOL    HW157745  10.779   0.452  14.596
18616SOL    HW257746  10.716   0.450  14.733
18617SOL     OW57747   6.492   7.649   8.313
18617SOL    HW157748   6.469   7.599   8.392
18617SOL    HW257749   6.563   7.706   8.342
18618SOL     OW57750   7.859   6.855   5.028
18618SOL    HW157751   7.879   6.762   5.025
18618SOL    HW257752   7.922   6.895   4.967
18619SOL     OW57753   7.716  12.985   9.367
18619SOL    HW157754   7.739  13.077   9.366
18619SOL    HW257755   7.689  12.966   9.276
18620SOL     OW57756  11.402   0.676  10.083
18620SOL    HW157757  11.346   0.735  10.134
18620SOL    HW257758  11.414   0.599  10.139
18621SOL     OW57759   7.366   7.326   6.962
18621SOL    HW157760   7.438   7.337   6.900
18621SOL    HW257761   7.299   7.387   6.932
18622SOL     OW57762   2.773  11.583   5.986
18622SOL    HW157763   2.699  11.635   5.956
18622SOL    HW257764   2.737  11.525   6.053
18623SOL     OW57765  13.120   1.351   3.630
18623SOL    HW157766  13.167   1.434   3.618
18623SOL    HW257767  13.060   1.369   3.702
18624SOL     OW57768   2.191   1.108   4.540
18624SOL    HW157769   2.127   1.136   4.475
18624SOL    HW257770   2.245   1.186   4.557
18625SOL     OW57771   6.227   3.677  11.201
18625SOL    HW157772   6.233   3.712  11.290
18625SOL    HW257773   6.194   3.751  11.149
18626SOL     OW57774   1.946   0.354   2.131
18626SOL    HW157775   1.969   0.447   2.128
18626SOL    HW257776   2.015   0.311   2.081
18627SOL     OW57777  10.890  14.313   4.737
18627SOL    HW157778  10.948  14.331   4.811
18627SOL    HW257779  10.817  14.374   4.748
18628SOL     OW57780  12.690   2.609   8.625
18628SOL    HW157781  12.651   2.562   8.699
18628SOL    HW257782  12.688   2.546   8.553
18629SOL     OW57783   9.997  14.022   3.821
18629SOL    HW157784   9.998  13.951   3.885
18629SOL    HW257785   9.931  13.996   3.756
18630SOL     OW57786   1.226   4.741   6.085
18630SOL    HW157787   1.177   4.751   6.004
18630SOL    HW257788   1.310   4.703   6.058
18631SOL     OW57789   7.064   0.045   4.445
18631SOL    HW157790   7.102   0.120   4.400
18631SOL    HW257791   7.000   0.009   4.384
18632SOL     OW57792   4.368   8.971   0.600
18632SOL    HW157793   4.389   8.878   0.610
18632SOL    HW257794   4.371   8.986   0.506
18633SOL     OW57795   9.464   8.811  12.054
18633SOL    HW157796   9.468   8.716  12.042
18633SOL    HW257797   9.548   8.834  12.093
18634SOL     OW57798  12.117   0.319   9.335
18634SOL    HW157799  12.115   0.224   9.344
18634SOL    HW257800  12.207   0.344   9.358
18635SOL     OW57801   1.705   2.372   4.267
18635SOL    HW157802   1.641   2.442   4.277
18635SOL    HW257803   1.748   2.365   4.352
18636SOL     OW57804   2.548   6.656   4.243
18636SOL    HW157805   2.540   6.582   4.303
18636SOL    HW257806   2.602   6.623   4.171
18637SOL     OW57807  13.423   1.938   3.980
18637SOL    HW157808  13.494   1.876   3.999
18637SOL    HW257809  13.439   1.965   3.889
18638SOL     OW57810   1.619  12.394  13.762
18638SOL    HW157811   1.576  12.403  13.678
18638SOL    HW257812   1.645  12.301  13.766
18639SOL     OW57813  10.913   3.907   7.355
18639SOL    HW157814  10.844   3.963   7.322
18639SOL    HW257815  10.955   3.871   7.276
18640SOL     OW57816   9.694  14.578   2.276
18640SOL    HW157817   9.725  14.563   2.186
18640SOL    HW257818   9.685  14.491   2.313
18641SOL     OW57819  12.870   9.292  12.076
18641SOL    HW157820  12.856   9.201  12.099
18641SOL    HW257821  12.832   9.342  12.148
18642SOL     OW57822   2.240   8.951   8.998
18642SOL    HW157823   2.192   9.031   9.019
18642SOL    HW257824   2.315   8.951   9.058
18643SOL     OW57825   8.861  10.391   6.458
18643SOL    HW157826   8.878  10.437   6.376
18643SOL    HW257827   8.766  10.394   6.468
18644SOL     OW57828   5.481   1.427  11.402
18644SOL    HW157829   5.541   1.493  11.368
18644SOL    HW257830   5.538   1.363  11.446
18645SOL     OW57831   6.304  11.739   4.022
18645SOL    HW157832   6.375  11.693   3.978
18645SOL    HW257833   6.265  11.794   3.953
18646SOL     OW57834   8.124   9.127   5.118
18646SOL    HW157835   8.185   9.054   5.103
18646SOL    HW257836   8.116   9.169   5.032
18647SOL     OW57837  12.204   2.524   2.715
18647SOL    HW157838  12.244   2.450   2.668
18647SOL    HW257839  12.146   2.564   2.651
18648SOL     OW57840  11.440   6.670   6.332
18648SOL    HW157841  11.460   6.721   6.410
18648SOL    HW257842  11.515   6.612   6.322
18649SOL     OW57843   2.390   2.691   7.408
18649SOL    HW157844   2.436   2.608   7.421
18649SOL    HW257845   2.396   2.707   7.314
18650SOL     OW57846   3.927  10.145   9.951
18650SOL    HW157847   3.946  10.227   9.905
18650SOL    HW257848   3.952  10.077   9.890
18651SOL     OW57849   0.269  10.989  10.907
18651SOL    HW157850   0.273  11.078  10.941
18651SOL    HW257851   0.182  10.958  10.931
18652SOL     OW57852  10.242   5.843  13.681
18652SOL    HW157853  10.229   5.867  13.590
18652SOL    HW257854  10.309   5.904  13.713
18653SOL     OW57855   6.723   7.492   8.719
18653SOL    HW157856   6.790   7.454   8.662
18653SOL    HW257857   6.678   7.416   8.758
18654SOL     OW57858   9.389  11.680   5.888
18654SOL    HW157859   9.346  11.620   5.948
18654SOL    HW257860   9.366  11.767   5.919
18655SOL     OW57861   4.061  13.124  12.460
18655SOL    HW157862   4.009  13.043  12.463
18655SOL    HW257863   4.140  13.101  12.411
18656SOL     OW57864   7.840  10.813   7.964
18656SOL    HW157865   7.870  10.769   7.885
18656SOL    HW257866   7.781  10.750   8.006
18657SOL     OW57867  11.106   4.731  12.139
18657SOL    HW157868  11.183   4.683  12.170
18657SOL    HW257869  11.097   4.705  12.047
18658SOL     OW57870   8.958   6.184  11.789
18658SOL    HW157871   8.943   6.111  11.849
18658SOL    HW257872   9.034   6.158  11.738
18659SOL     OW57873   2.257   0.870   0.195
18659SOL    HW157874   2.196   0.796   0.201
18659SOL    HW257875   2.281   0.875   0.103
18660SOL     OW57876  11.666   7.645   1.607
18660SOL    HW157877  11.607   7.663   1.681
18660SOL    HW257878  11.751   7.629   1.648
18661SOL     OW57879   3.230   8.999   1.647
18661SOL    HW157880   3.149   8.983   1.695
18661SOL    HW257881   3.201   9.014   1.557
18662SOL     OW57882   2.990  13.429   5.826
18662SOL    HW157883   3.048  13.436   5.750
18662SOL    HW257884   3.046  13.392   5.895
18663SOL     OW57885   5.666   1.055  11.184
18663SOL    HW157886   5.579   1.076  11.218
18663SOL    HW257887   5.687   0.970  11.222
18664SOL     OW57888   4.525   0.005  10.238
18664SOL    HW157889   4.604   0.054  10.215
18664SOL    HW257890   4.459   0.072  10.255
18665SOL     OW57891   5.354  14.290   6.106
18665SOL    HW157892   5.415  14.292   6.032
18665SOL    HW257893   5.314  14.377   6.106
18666SOL     OW57894   7.818  13.052   6.754
18666SOL    HW157895   7.768  12.972   6.738
18666SOL    HW257896   7.819  13.061   6.849
18667SOL     OW57897   3.589   4.271  13.917
18667SOL    HW157898   3.559   4.289  13.828
18667SOL    HW257899   3.681   4.247  13.907
18668SOL     OW57900  11.272  12.624   3.634
18668SOL    HW157901  11.216  12.560   3.678
18668SOL    HW257902  11.243  12.709   3.668
18669SOL     OW57903   6.576   8.917   5.622
18669SOL    HW157904   6.631   8.849   5.585
18669SOL    HW257905   6.588   8.992   5.564
18670SOL     OW57906   9.315  10.625  10.310
18670SOL    HW157907   9.394  10.676  10.330
18670SOL    HW257908   9.268  10.677  10.245
18671SOL     OW57909  10.149  10.203   7.326
18671SOL    HW157910  10.143  10.293   7.294
18671SOL    HW257911  10.060  10.180   7.351
18672SOL     OW57912   0.364   8.962   7.070
18672SOL    HW157913   0.332   8.930   7.154
18672SOL    HW257914   0.324   9.048   7.060
18673SOL     OW57915  10.336   8.338  11.891
18673SOL    HW157916  10.317   8.425  11.925
18673SOL    HW257917  10.278   8.280  11.942
18674SOL     OW57918  10.069   1.897   7.752
18674SOL    HW157919  10.146   1.899   7.695
18674SOL    HW257920  10.104   1.891   7.840
18675SOL     OW57921   8.062   8.161   0.663
18675SOL    HW157922   8.157   8.147   0.661
18675SOL    HW257923   8.026   8.087   0.615
18676SOL     OW57924   1.654   3.055   2.065
18676SOL    HW157925   1.588   2.986   2.058
18676SOL    HW257926   1.726   3.015   2.113
18677SOL     OW57927   1.530   6.588   7.614
18677SOL    HW157928   1.568   6.508   7.649
18677SOL    HW257929   1.596   6.623   7.555
18678SOL     OW57930   9.884   1.101   1.660
18678SOL    HW157931   9.923   1.015   1.673
18678SOL    HW257932   9.955   1.155   1.626
18679SOL     OW57933   1.610  13.335   6.579
18679SOL    HW157934   1.626  13.264   6.517
18679SOL    HW257935   1.527  13.374   6.550
18680SOL     OW57936   1.636  14.003  14.285
18680SOL    HW157937   1.717  13.965  14.250
18680SOL    HW257938   1.569  13.938  14.265
18681SOL     OW57939   4.280   9.233  11.674
18681SOL    HW157940   4.333   9.193  11.605
18681SOL    HW257941   4.235   9.159  11.715
18682SOL     OW57942   1.204   6.845   1.563
18682SOL    HW157943   1.198   6.827   1.469
18682SOL    HW257944   1.186   6.761   1.604
18683SOL     OW57945   2.394  13.382   9.201
18683SOL    HW157946   2.404  13.435   9.280
18683SOL    HW257947   2.356  13.300   9.231
18684SOL     OW57948   6.174  10.906   9.407
18684SOL    HW157949   6.257  10.886   9.363
18684SOL    HW257950   6.115  10.932   9.337
18685SOL     OW57951   6.289   1.807  10.634
18685SOL    HW157952   6.254   1.789  10.721
18685SOL    HW257953   6.331   1.892  10.642
18686SOL     OW57954   2.938   0.638   1.910
18686SOL    HW157955   2.901   0.684   1.835
18686SOL    HW257956   2.990   0.704   1.956
18687SOL     OW57957   1.532   4.887  13.676
18687SOL    HW157958   1.442   4.866  13.700
18687SOL    HW257959   1.551   4.832  13.601
18688SOL     OW57960   9.776  11.144   5.348
18688SOL    HW157961   9.831  11.216   5.317
18688SOL    HW257962   9.833  11.094   5.407
18689SOL     OW57963   5.202   7.492  11.543
18689SOL    HW157964   5.239   7.580  11.530
18689SOL    HW257965   5.114   7.509  11.577
18690SOL     OW57966   8.583   0.403   6.100
18690SOL    HW157967   8.544   0.440   6.179
18690SOL    HW257968   8.593   0.478   6.041
18691SOL     OW57969   1.010   9.904  10.810
18691SOL    HW157970   1.019   9.875  10.719
18691SOL    HW257971   0.918   9.891  10.831
18692SOL     OW57972   3.229   3.811  11.791
18692SOL    HW157973   3.157   3.766  11.837
18692SOL    HW257974   3.257   3.750  11.724
18693SOL     OW57975   5.161   0.525   4.352
18693SOL    HW157976   5.158   0.465   4.426
18693SOL    HW257977   5.188   0.609   4.389
18694SOL     OW57978  10.603  12.073   6.225
18694SOL    HW157979  10.605  12.103   6.134
18694SOL    HW257980  10.586  12.151   6.276
18695SOL     OW57981   8.731   3.536   5.789
18695SOL    HW157982   8.721   3.443   5.808
18695SOL    HW257983   8.767   3.540   5.701
18696SOL     OW57984   2.592  11.848   4.550
18696SOL    HW157985   2.677  11.814   4.521
18696SOL    HW257986   2.542  11.769   4.574
18697SOL     OW57987   5.603  11.722   2.417
18697SOL    HW157988   5.640  11.766   2.493
18697SOL    HW257989   5.573  11.793   2.360
18698SOL     OW57990   5.928   2.672   3.191
18698SOL    HW157991   5.901   2.700   3.279
18698SOL    HW257992   5.854   2.623   3.157
18699SOL     OW57993   6.625   3.560   3.211
18699SOL    HW157994   6.678   3.532   3.285
18699SOL    HW257995   6.535   3.553   3.241
18700SOL     OW57996   3.736   0.260  12.279
18700SOL    HW157997   3.672   0.287  12.344
18700SOL    HW257998   3.785   0.189  12.321
18701SOL     OW57999   1.379   0.463  10.580
18701SOL    HW158000   1.411   0.551  10.604
18701SOL    HW258001   1.421   0.405  10.643
18702SOL     OW58002  12.196  11.152  13.556
18702SOL    HW158003  12.277  11.106  13.533
18702SOL    HW258004  12.219  11.205  13.632
18703SOL     OW58005  12.302   5.528   9.103
18703SOL    HW158006  12.257   5.546   9.021
18703SOL    HW258007  12.265   5.444   9.132
18704SOL     OW58008   3.039   7.806   5.391
18704SOL    HW158009   3.005   7.741   5.330
18704SOL    HW258010   2.980   7.801   5.466
18705SOL     OW58011  14.743   1.125   8.033
18705SOL    HW158012  14.655   1.158   8.015
18705SOL    HW258013  14.741   1.098   8.124
18706SOL     OW58014   4.060  13.583   1.340
18706SOL    HW158015   4.015  13.531   1.406
18706SOL    HW258016   4.083  13.664   1.385
18707SOL     OW58017  12.926   7.072   3.209
18707SOL    HW158018  13.010   7.030   3.196
18707SOL    HW258019  12.948   7.162   3.234
18708SOL     OW58020  12.177   9.491   9.076
18708SOL    HW158021  12.173   9.401   9.106
18708SOL    HW258022  12.085   9.517   9.067
18709SOL     OW58023   9.794  12.180   6.513
18709SOL    HW158024   9.706  12.212   6.496
18709SOL    HW258025   9.851  12.233   6.456
18710SOL     OW58026  14.756  14.868   5.009
18710SOL    HW158027  14.660  14.866   5.003
18710SOL    HW258028  14.774  14.854   5.102
18711SOL     OW58029  12.036   8.704   5.125
18711SOL    HW158030  12.002   8.706   5.215
18711SOL    HW258031  11.977   8.646   5.078
18712SOL     OW58032  10.328  11.843   7.735
18712SOL    HW158033  10.268  11.788   7.684
18712SOL    HW258034  10.311  11.932   7.704
18713SOL     OW58035   4.150   5.413   0.430
18713SOL    HW158036   4.098   5.371   0.361
18713SOL    HW258037   4.156   5.346   0.499
18714SOL     OW58038   0.820   6.038   5.488
18714SOL    HW158039   0.912   6.060   5.502
18714SOL    HW258040   0.812   6.019   5.395
18715SOL     OW58041  11.140   3.483  12.758
18715SOL    HW158042  11.064   3.518  12.713
18715SOL    HW258043  11.214   3.499  12.699
18716SOL     OW58044  10.357   5.118   4.149
18716SOL    HW158045  10.390   5.029   4.165
18716SOL    HW258046  10.262   5.110   4.154
18717SOL     OW58047  11.344   7.642   7.594
18717SOL    HW158048  11.267   7.697   7.605
18717SOL    HW258049  11.341   7.615   7.502
18718SOL     OW58050   5.115   0.588   8.937
18718SOL    HW158051   5.090   0.529   9.008
18718SOL    HW258052   5.042   0.650   8.930
18719SOL     OW58053  11.657   2.255   8.296
18719SOL    HW158054  11.605   2.234   8.219
18719SOL    HW258055  11.742   2.214   8.280
18720SOL     OW58056  14.216   3.491   0.450
18720SOL    HW158057  14.233   3.534   0.534
18720SOL    HW258058  14.294   3.438   0.434
18721SOL     OW58059  14.197   8.169  13.363
18721SOL    HW158060  14.228   8.233  13.298
18721SOL    HW258061  14.109   8.146  13.334
18722SOL     OW58062   3.673   4.613   8.584
18722SOL    HW158063   3.722   4.588   8.506
18722SOL    HW258064   3.592   4.562   8.579
18723SOL     OW58065   6.123  10.717   3.646
18723SOL    HW158066   6.084  10.709   3.733
18723SOL    HW258067   6.050  10.707   3.585
18724SOL     OW58068   5.850   7.798   2.328
18724SOL    HW158069   5.827   7.887   2.353
18724SOL    HW258070   5.791   7.742   2.379
18725SOL     OW58071   2.855   0.802   8.909
18725SOL    HW158072   2.905   0.872   8.952
18725SOL    HW258073   2.863   0.821   8.816
18726SOL     OW58074   3.199   7.795  12.556
18726SOL    HW158075   3.113   7.836  12.552
18726SOL    HW258076   3.191   7.727  12.623
18727SOL     OW58077   3.359   5.654   0.343
18727SOL    HW158078   3.345   5.727   0.282
18727SOL    HW258079   3.429   5.684   0.401
18728SOL     OW58080   1.569  10.273   3.034
18728SOL    HW158081   1.649  10.239   3.074
18728SOL    HW258082   1.500  10.217   3.067
18729SOL     OW58083   6.657   2.774  13.883
18729SOL    HW158084   6.673   2.868  13.896
18729SOL    HW258085   6.565   2.762  13.908
18730SOL     OW58086   6.268   1.167   7.699
18730SOL    HW158087   6.337   1.189   7.761
18730SOL    HW258088   6.278   1.231   7.628
18731SOL     OW58089   3.732   0.701   8.604
18731SOL    HW158090   3.647   0.692   8.647
18731SOL    HW258091   3.720   0.773   8.542
18732SOL     OW58092   3.154   6.086   5.379
18732SOL    HW158093   3.208   6.023   5.426
18732SOL    HW258094   3.192   6.090   5.291
18733SOL     OW58095   7.509   6.380   6.853
18733SOL    HW158096   7.456   6.457   6.833
18733SOL    HW258097   7.517   6.334   6.770
18734SOL     OW58098  13.563   0.996   1.195
18734SOL    HW158099  13.645   1.037   1.222
18734SOL    HW258100  13.561   0.913   1.242
18735SOL     OW58101   1.421   3.804  14.743
18735SOL    HW158102   1.501   3.857  14.746
18735SOL    HW258103   1.452   3.714  14.740
18736SOL     OW58104  10.853   3.173  13.686
18736SOL    HW158105  10.923   3.111  13.666
18736SOL    HW258106  10.798   3.175  13.607
18737SOL     OW58107   4.406  10.200   3.380
18737SOL    HW158108   4.376  10.196   3.290
18737SOL    HW258109   4.432  10.110   3.401
18738SOL     OW58110   1.255   6.921  11.943
18738SOL    HW158111   1.342   6.889  11.966
18738SOL    HW258112   1.237   6.883  11.857
18739SOL     OW58113  10.248   1.413   8.372
18739SOL    HW158114  10.178   1.456   8.420
18739SOL    HW258115  10.324   1.471   8.383
18740SOL     OW58116  11.704   1.533   0.972
18740SOL    HW158117  11.638   1.486   1.022
18740SOL    HW258118  11.709   1.619   1.012
18741SOL     OW58119   2.583   4.492   5.218
18741SOL    HW158120   2.662   4.456   5.178
18741SOL    HW258121   2.537   4.416   5.254
18742SOL     OW58122   4.307   6.173   7.509
18742SOL    HW158123   4.394   6.147   7.539
18742SOL    HW258124   4.246   6.119   7.560
18743SOL     OW58125   9.381   8.450   9.381
18743SOL    HW158126   9.351   8.459   9.291
18743SOL    HW258127   9.423   8.363   9.384
18744SOL     OW58128   8.474   9.987   6.333
18744SOL    HW158129   8.384   9.975   6.305
18744SOL    HW258130   8.515  10.035   6.260
18745SOL     OW58131   7.928   0.377  14.791
18745SOL    HW158132   7.926   0.340  14.879
18745SOL    HW258133   8.021   0.397  14.776
18746SOL     OW58134   9.902   8.318   5.889
18746SOL    HW158135   9.817   8.276   5.902
18746SOL    HW258136   9.893   8.404   5.930
18747SOL     OW58137  11.159   7.450  10.282
18747SOL    HW158138  11.087   7.457  10.219
18747SOL    HW258139  11.231   7.497  10.241
18748SOL     OW58140   2.871  13.690  13.509
18748SOL    HW158141   2.848  13.597  13.511
18748SOL    HW258142   2.837  13.725  13.592
18749SOL     OW58143   2.277   6.137   6.859
18749SOL    HW158144   2.233   6.105   6.780
18749SOL    HW258145   2.304   6.057   6.904
18750SOL     OW58146   3.970   8.795  13.614
18750SOL    HW158147   4.024   8.766  13.541
18750SOL    HW258148   4.000   8.743  13.688
18751SOL     OW58149   4.717  14.653   0.749
18751SOL    HW158150   4.716  14.728   0.809
18751SOL    HW258151   4.808  14.624   0.747
18752SOL     OW58152   4.540  12.614   3.122
18752SOL    HW158153   4.559  12.596   3.030
18752SOL    HW258154   4.449  12.588   3.133
18753SOL     OW58155   0.826   9.764  14.823
18753SOL    HW158156   0.806   9.835  14.762
18753SOL    HW258157   0.742   9.720  14.838
18754SOL     OW58158   8.834  10.579  12.530
18754SOL    HW158159   8.894  10.551  12.599
18754SOL    HW258160   8.759  10.615  12.577
18755SOL     OW58161   6.004  12.033  12.592
18755SOL    HW158162   5.934  12.054  12.655
18755SOL    HW258163   6.073  12.097  12.612
18756SOL     OW58164   6.191   5.861   8.453
18756SOL    HW158165   6.153   5.914   8.523
18756SOL    HW258166   6.135   5.877   8.377
18757SOL     OW58167   0.139   4.903  12.737
18757SOL    HW158168   0.094   4.984  12.760
18757SOL    HW258169   0.142   4.904  12.641
18758SOL     OW58170   8.177   3.670  10.269
18758SOL    HW158171   8.245   3.677  10.201
18758SOL    HW258172   8.179   3.578  10.296
18759SOL     OW58173   6.062   9.786   3.343
18759SOL    HW158174   5.971   9.814   3.335
18759SOL    HW258175   6.084   9.748   3.258
18760SOL     OW58176   3.081   4.935  10.569
18760SOL    HW158177   3.165   4.964  10.606
18760SOL    HW258178   3.079   4.973  10.482
18761SOL     OW58179   2.484   2.854   9.676
18761SOL    HW158180   2.461   2.785   9.738
18761SOL    HW258181   2.527   2.921   9.730
18762SOL     OW58182   2.056  12.086   0.580
18762SOL    HW158183   2.043  12.140   0.659
18762SOL    HW258184   2.020  12.139   0.509
18763SOL     OW58185   5.971   7.638   9.022
18763SOL    HW158186   6.055   7.666   9.056
18763SOL    HW258187   5.908   7.662   9.090
18764SOL     OW58188   6.615  14.581   0.422
18764SOL    HW158189   6.654  14.610   0.504
18764SOL    HW258190   6.678  14.608   0.355
18765SOL     OW58191   0.096  12.866  12.122
18765SOL    HW158192   0.020  12.919  12.144
18765SOL    HW258193   0.097  12.863  12.026
18766SOL     OW58194   2.988   0.854   7.023
18766SOL    HW158195   2.966   0.780   7.079
18766SOL    HW258196   2.907   0.874   6.976
18767SOL     OW58197   1.984  13.804   3.529
18767SOL    HW158198   2.071  13.844   3.531
18767SOL    HW258199   1.994  13.726   3.475
18768SOL     OW58200   5.621   2.854   6.386
18768SOL    HW158201   5.557   2.786   6.406
18768SOL    HW258202   5.590   2.892   6.304
18769SOL     OW58203   4.059   0.780  12.886
18769SOL    HW158204   4.124   0.728  12.839
18769SOL    HW258205   4.003   0.816  12.818
18770SOL     OW58206  14.286  10.868  13.906
18770SOL    HW158207  14.372  10.867  13.947
18770SOL    HW258208  14.293  10.806  13.834
18771SOL     OW58209  12.365  10.907  12.501
18771SOL    HW158210  12.327  10.931  12.586
18771SOL    HW258211  12.459  10.898  12.519
18772SOL     OW58212   3.564   2.725   4.795
18772SOL    HW158213   3.497   2.663   4.766
18772SOL    HW258214   3.644   2.696   4.751
18773SOL     OW58215  10.626   6.776   9.248
18773SOL    HW158216  10.623   6.721   9.169
18773SOL    HW258217  10.672   6.722   9.312
18774SOL     OW58218  14.183  12.319   4.659
18774SOL    HW158219  14.124  12.391   4.640
18774SOL    HW258220  14.243  12.354   4.724
18775SOL     OW58221   7.138  13.634   9.590
18775SOL    HW158222   7.097  13.577   9.656
18775SOL    HW258223   7.215  13.669   9.634
18776SOL     OW58224   8.041   1.110   9.023
18776SOL    HW158225   8.073   1.194   9.056
18776SOL    HW258226   8.005   1.066   9.100
18777SOL     OW58227   3.420   2.793   9.192
18777SOL    HW158228   3.340   2.846   9.202
18777SOL    HW258229   3.438   2.796   9.098
18778SOL     OW58230   5.763   0.562  11.120
18778SOL    HW158231   5.815   0.559  11.041
18778SOL    HW258232   5.675   0.586  11.091
18779SOL     OW58233   6.915  14.730  11.659
18779SOL    HW158234   6.994  14.777  11.687
18779SOL    HW258235   6.934  14.700  11.571
18780SOL     OW58236   5.178  14.086   6.068
18780SOL    HW158237   5.210  13.995   6.065
18780SOL    HW258238   5.258  14.139   6.073
18781SOL     OW58239   1.698   1.911   8.983
18781SOL    HW158240   1.753   1.876   8.913
18781SOL    HW258241   1.702   2.006   8.972
18782SOL     OW58242  13.163   6.743  10.683
18782SOL    HW158243  13.156   6.827  10.728
18782SOL    HW258244  13.155   6.678  10.753
18783SOL     OW58245  10.105   8.048   9.645
18783SOL    HW158246  10.182   7.992   9.651
18783SOL    HW258247  10.046   8.002   9.586
18784SOL     OW58248   7.633   8.840   3.870
18784SOL    HW158249   7.696   8.811   3.937
18784SOL    HW258250   7.549   8.805   3.901
18785SOL     OW58251   2.309   8.498   7.279
18785SOL    HW158252   2.362   8.449   7.342
18785SOL    HW258253   2.296   8.438   7.207
18786SOL     OW58254   7.096  13.561  14.399
18786SOL    HW158255   7.011  13.578  14.358
18786SOL    HW258256   7.082  13.484  14.453
18787SOL     OW58257   2.517  14.560   6.551
18787SOL    HW158258   2.464  14.547   6.472
18787SOL    HW258259   2.453  14.565   6.622
18788SOL     OW58260  11.989  11.403  10.089
18788SOL    HW158261  11.935  11.478  10.114
18788SOL    HW258262  12.079  11.431  10.107
18789SOL     OW58263  11.603  13.884   1.338
18789SOL    HW158264  11.544  13.810   1.350
18789SOL    HW258265  11.604  13.928   1.423
18790SOL     OW58266  11.463   4.295   4.688
18790SOL    HW158267  11.495   4.245   4.763
18790SOL    HW258268  11.423   4.373   4.726
18791SOL     OW58269   8.756   6.334   1.289
18791SOL    HW158270   8.816   6.285   1.232
18791SOL    HW258271   8.707   6.390   1.229
18792SOL     OW58272   2.454   1.695   6.675
18792SOL    HW158273   2.478   1.643   6.598
18792SOL    HW258274   2.358   1.698   6.673
18793SOL     OW58275   3.558   8.769   2.583
18793SOL    HW158276   3.613   8.812   2.649
18793SOL    HW258277   3.589   8.679   2.582
18794SOL     OW58278   6.550  12.163  10.358
18794SOL    HW158279   6.604  12.177  10.435
18794SOL    HW258280   6.580  12.229  10.295
18795SOL     OW58281  13.896   9.549   6.589
18795SOL    HW158282  13.863   9.514   6.672
18795SOL    HW258283  13.942   9.476   6.548
18796SOL     OW58284   0.769   3.548   0.968
18796SOL    HW158285   0.731   3.634   0.984
18796SOL    HW258286   0.705   3.487   1.004
18797SOL     OW58287   2.212   8.365   5.519
18797SOL    HW158288   2.212   8.363   5.614
18797SOL    HW258289   2.304   8.368   5.495
18798SOL     OW58290   1.276   3.797   2.949
18798SOL    HW158291   1.332   3.790   2.872
18798SOL    HW258292   1.188   3.778   2.916
18799SOL     OW58293   6.814  11.642   9.588
18799SOL    HW158294   6.720  11.648   9.600
18799SOL    HW258295   6.849  11.628   9.676
18800SOL     OW58296   0.803   4.122  14.548
18800SOL    HW158297   0.898   4.132  14.552
18800SOL    HW258298   0.769   4.211  14.548
18801SOL     OW58299   1.475   4.455   1.894
18801SOL    HW158300   1.536   4.519   1.930
18801SOL    HW258301   1.528   4.376   1.883
18802SOL     OW58302  10.216   1.453   3.854
18802SOL    HW158303  10.180   1.393   3.919
18802SOL    HW258304  10.299   1.413   3.828
18803SOL     OW58305   3.549   6.964  14.448
18803SOL    HW158306   3.464   6.936  14.482
18803SOL    HW258307   3.527   7.021  14.374
18804SOL     OW58308   6.152  10.956  11.310
18804SOL    HW158309   6.237  10.956  11.355
18804SOL    HW258310   6.149  11.040  11.266
18805SOL     OW58311   8.598   5.035   2.548
18805SOL    HW158312   8.542   5.003   2.477
18805SOL    HW258313   8.582   5.129   2.550
18806SOL     OW58314   0.782   4.923   2.280
18806SOL    HW158315   0.843   4.863   2.323
18806SOL    HW258316   0.816   4.933   2.191
18807SOL     OW58317  12.518  12.330   9.239
18807SOL    HW158318  12.595  12.374   9.203
18807SOL    HW258319  12.445  12.390   9.220
18808SOL     OW58320   2.153   2.554  10.388
18808SOL    HW158321   2.225   2.501  10.353
18808SOL    HW258322   2.157   2.636  10.338
18809SOL     OW58323  14.536   6.713   3.343
18809SOL    HW158324  14.600   6.647   3.372
18809SOL    HW258325  14.543   6.783   3.407
18810SOL     OW58326   5.039  13.411   8.112
18810SOL    HW158327   5.059  13.430   8.203
18810SOL    HW258328   5.029  13.316   8.109
18811SOL     OW58329   9.260   9.943   8.618
18811SOL    HW158330   9.307  10.016   8.576
18811SOL    HW258331   9.213   9.901   8.546
18812SOL     OW58332   4.082   9.578   9.819
18812SOL    HW158333   4.048   9.665   9.840
18812SOL    HW258334   4.008   9.533   9.778
18813SOL     OW58335  12.794   0.713   4.396
18813SOL    HW158336  12.711   0.737   4.438
18813SOL    HW258337  12.807   0.780   4.329
18814SOL     OW58338  10.076  10.582  13.789
18814SOL    HW158339   9.991  10.560  13.826
18814SOL    HW258340  10.090  10.674  13.812
18815SOL     OW58341   8.592   0.620  11.690
18815SOL    HW158342   8.651   0.548  11.672
18815SOL    HW258343   8.597   0.632  11.785
18816SOL     OW58344  12.531   9.305   2.068
18816SOL    HW158345  12.507   9.217   2.096
18816SOL    HW258346  12.450   9.355   2.074
18817SOL     OW58347  11.961   3.677  14.193
18817SOL    HW158348  12.005   3.685  14.109
18817SOL    HW258349  12.024   3.631  14.249
18818SOL     OW58350   1.866   2.386   1.707
18818SOL    HW158351   1.848   2.450   1.776
18818SOL    HW258352   1.787   2.387   1.652
18819SOL     OW58353   7.650   6.048  11.034
18819SOL    HW158354   7.575   6.104  11.054
18819SOL    HW258355   7.653   5.985  11.106
18820SOL     OW58356  10.611   1.359  13.621
18820SOL    HW158357  10.556   1.281  13.622
18820SOL    HW258358  10.550   1.431  13.638
18821SOL     OW58359  12.659  14.581   2.837
18821SOL    HW158360  12.735  14.554   2.785
18821SOL    HW258361  12.584  14.537   2.796
18822SOL     OW58362  11.074  13.022  12.936
18822SOL    HW158363  11.105  13.066  13.015
18822SOL    HW258364  11.119  12.937  12.937
18823SOL     OW58365   6.775   7.441   6.950
18823SOL    HW158366   6.774   7.397   7.035
18823SOL    HW258367   6.708   7.509   6.958
18824SOL     OW58368   3.602  11.993   3.483
18824SOL    HW158369   3.683  12.038   3.505
18824SOL    HW258370   3.558  12.052   3.421
18825SOL     OW58371  10.418   2.602   4.879
18825SOL    HW158372  10.346   2.656   4.846
18825SOL    HW258373  10.374   2.527   4.919
18826SOL     OW58374   0.088  11.065   8.713
18826SOL    HW158375   0.153  11.104   8.772
18826SOL    HW258376   0.008  11.061   8.765
18827SOL     OW58377  12.050  12.083   7.803
18827SOL    HW158378  12.015  11.994   7.801
18827SOL    HW258379  11.999  12.127   7.872
18828SOL     OW58380   6.297   8.752   9.686
18828SOL    HW158381   6.324   8.840   9.659
18828SOL    HW258382   6.380   8.705   9.697
18829SOL     OW58383   5.728   0.263  14.767
18829SOL    HW158384   5.675   0.343  14.767
18829SOL    HW258385   5.818   0.295  14.776
18830SOL     OW58386   4.813   7.649  13.250
18830SOL    HW158387   4.893   7.686  13.288
18830SOL    HW258388   4.805   7.692  13.165
18831SOL     OW58389   5.658  13.437  13.554
18831SOL    HW158390   5.584  13.423  13.613
18831SOL    HW258391   5.719  13.492  13.604
18832SOL     OW58392  13.946   7.965   3.030
18832SOL    HW158393  13.892   7.947   3.107
18832SOL    HW258394  13.886   7.954   2.956
18833SOL     OW58395  12.674   4.792   1.085
18833SOL    HW158396  12.612   4.757   1.148
18833SOL    HW258397  12.669   4.887   1.096
18834SOL     OW58398   9.416   4.056   2.647
18834SOL    HW158399   9.346   4.117   2.624
18834SOL    HW258400   9.401   4.035   2.739
18835SOL     OW58401   7.282   0.315  10.080
18835SOL    HW158402   7.301   0.223  10.099
18835SOL    HW258403   7.355   0.344  10.026
18836SOL     OW58404   5.914   2.396  10.388
18836SOL    HW158405   5.898   2.468  10.328
18836SOL    HW258406   6.002   2.411  10.422
18837SOL     OW58407   8.782   8.922   7.520
18837SOL    HW158408   8.749   8.910   7.609
18837SOL    HW258409   8.810   8.835   7.492
18838SOL     OW58410   9.044  12.417   9.349
18838SOL    HW158411   9.091  12.403   9.267
18838SOL    HW258412   8.953  12.432   9.321
18839SOL     OW58413  10.350   9.600   3.634
18839SOL    HW158414  10.371   9.691   3.653
18839SOL    HW258415  10.428   9.565   3.592
18840SOL     OW58416  13.438  14.879   2.265
18840SOL    HW158417  13.447  14.836   2.180
18840SOL    HW258418  13.355  14.847   2.299
18841SOL     OW58419  12.032  10.167   5.636
18841SOL    HW158420  12.110  10.179   5.691
18841SOL    HW258421  11.973  10.237   5.661
18842SOL     OW58422  10.978   1.912   1.114
18842SOL    HW158423  10.949   1.974   1.182
18842SOL    HW258424  10.970   1.961   1.032
18843SOL     OW58425   6.132   7.486  12.077
18843SOL    HW158426   6.162   7.496  12.168
18843SOL    HW258427   6.097   7.397  12.073
18844SOL     OW58428   7.820   4.850   6.680
18844SOL    HW158429   7.879   4.888   6.745
18844SOL    HW258430   7.751   4.915   6.669
18845SOL     OW58431   3.487   5.369  12.253
18845SOL    HW158432   3.493   5.276  12.276
18845SOL    HW258433   3.402   5.379  12.211
18846SOL     OW58434   4.071   7.574  12.103
18846SOL    HW158435   4.021   7.580  12.184
18846SOL    HW258436   4.156   7.538  12.130
18847SOL     OW58437  11.188  12.295  13.193
18847SOL    HW158438  11.265  12.325  13.145
18847SOL    HW258439  11.212  12.209  13.227
18848SOL     OW58440  13.559   4.528   7.398
18848SOL    HW158441  13.600   4.607   7.433
18848SOL    HW258442  13.622   4.458   7.416
18849SOL     OW58443   1.250  10.336  10.201
18849SOL    HW158444   1.189  10.265  10.182
18849SOL    HW258445   1.269  10.375  10.116
18850SOL     OW58446   4.112  12.368   9.951
18850SOL    HW158447   4.149  12.284   9.923
18850SOL    HW258448   4.039  12.345  10.008
18851SOL     OW58449   4.371   9.871   6.525
18851SOL    HW158450   4.461   9.903   6.530
18851SOL    HW258451   4.358   9.823   6.606
18852SOL     OW58452   9.847   6.777   0.452
18852SOL    HW158453   9.789   6.776   0.528
18852SOL    HW258454   9.843   6.867   0.420
18853SOL     OW58455   3.517  13.980  11.274
18853SOL    HW158456   3.594  14.015  11.230
18853SOL    HW258457   3.545  13.966  11.365
18854SOL     OW58458   4.743   6.759  13.715
18854SOL    HW158459   4.653   6.744  13.745
18854SOL    HW258460   4.758   6.852  13.729
18855SOL     OW58461  13.605   1.596  11.172
18855SOL    HW158462  13.662   1.567  11.100
18855SOL    HW258463  13.606   1.522  11.233
18856SOL     OW58464   2.044   3.533   2.332
18856SOL    HW158465   2.064   3.477   2.257
18856SOL    HW258466   2.095   3.612   2.317
18857SOL     OW58467  10.521   0.580  11.605
18857SOL    HW158468  10.558   0.668  11.603
18857SOL    HW258469  10.453   0.585  11.673
18858SOL     OW58470  12.814  12.007  14.110
18858SOL    HW158471  12.850  12.001  14.199
18858SOL    HW258472  12.840  12.095  14.080
18859SOL     OW58473  11.083   8.118   7.850
18859SOL    HW158474  11.081   8.107   7.945
18859SOL    HW258475  10.995   8.146   7.827
18860SOL     OW58476  11.068   7.284  11.480
18860SOL    HW158477  10.980   7.293  11.444
18860SOL    HW258478  11.127   7.300  11.406
18861SOL     OW58479  13.205   3.431   3.114
18861SOL    HW158480  13.222   3.392   3.200
18861SOL    HW258481  13.117   3.402   3.092
18862SOL     OW58482  13.358   9.326   0.984
18862SOL    HW158483  13.377   9.260   1.051
18862SOL    HW258484  13.387   9.285   0.902
18863SOL     OW58485   2.403   7.572   5.468
18863SOL    HW158486   2.436   7.497   5.419
18863SOL    HW258487   2.344   7.617   5.406
18864SOL     OW58488  12.062   2.867  12.626
18864SOL    HW158489  12.054   2.934  12.558
18864SOL    HW258490  12.147   2.826  12.610
18865SOL     OW58491   2.293   6.269   7.338
18865SOL    HW158492   2.345   6.320   7.401
18865SOL    HW258493   2.276   6.330   7.267
18866SOL     OW58494   4.754   3.768   3.283
18866SOL    HW158495   4.691   3.837   3.260
18866SOL    HW258496   4.840   3.807   3.267
18867SOL     OW58497   1.378  12.695   3.757
18867SOL    HW158498   1.334  12.656   3.681
18867SOL    HW258499   1.340  12.649   3.832
18868SOL     OW58500   3.827   2.625  10.714
18868SOL    HW158501   3.753   2.575  10.747
18868SOL    HW258502   3.790   2.681  10.645
18869SOL     OW58503   7.808   0.098   6.235
18869SOL    HW158504   7.788   0.006   6.218
18869SOL    HW258505   7.856   0.098   6.317
18870SOL     OW58506   4.789  14.464  12.018
18870SOL    HW158507   4.704  14.429  12.044
18870SOL    HW258508   4.815  14.521  12.090
18871SOL     OW58509   6.465   9.918  13.003
18871SOL    HW158510   6.483  10.008  13.030
18871SOL    HW258511   6.549   9.886  12.970
18872SOL     OW58512  11.286  13.889   1.400
18872SOL    HW158513  11.292  13.962   1.462
18872SOL    HW258514  11.357  13.830   1.424
18873SOL     OW58515   7.772  13.448   7.278
18873SOL    HW158516   7.703  13.420   7.218
18873SOL    HW258517   7.761  13.393   7.356
18874SOL     OW58518  11.390  13.121   2.400
18874SOL    HW158519  11.428  13.199   2.359
18874SOL    HW258520  11.444  13.105   2.477
18875SOL     OW58521   7.428  14.132   6.003
18875SOL    HW158522   7.437  14.133   5.907
18875SOL    HW258523   7.405  14.222   6.025
18876SOL     OW58524   9.144   4.786   3.164
18876SOL    HW158525   9.096   4.832   3.094
18876SOL    HW258526   9.075   4.752   3.221
18877SOL     OW58527   6.329  14.715  10.979
18877SOL    HW158528   6.380  14.745  10.904
18877SOL    HW258529   6.260  14.781  10.990
18878SOL     OW58530   1.821   8.444  13.340
18878SOL    HW158531   1.800   8.532  13.308
18878SOL    HW258532   1.763   8.432  13.416
18879SOL     OW58533   1.536   0.875  10.922
18879SOL    HW158534   1.447   0.844  10.906
18879SOL    HW258535   1.550   0.943  10.856
18880SOL     OW58536   9.389   5.657  14.398
18880SOL    HW158537   9.371   5.622  14.311
18880SOL    HW258538   9.308   5.702  14.423
18881SOL     OW58539  14.319  10.869   1.238
18881SOL    HW158540  14.298  10.895   1.148
18881SOL    HW258541  14.411  10.841   1.234
18882SOL     OW58542  12.637  13.279  11.770
18882SOL    HW158543  12.616  13.213  11.704
18882SOL    HW258544  12.637  13.231  11.852
18883SOL     OW58545   5.349   7.565   3.604
18883SOL    HW158546   5.383   7.606   3.683
18883SOL    HW258547   5.256   7.590   3.602
18884SOL     OW58548   9.181   1.133   9.769
18884SOL    HW158549   9.262   1.180   9.749
18884SOL    HW258550   9.208   1.043   9.785
18885SOL     OW58551   1.561   5.216  13.806
18885SOL    HW158552   1.627   5.273  13.845
18885SOL    HW258553   1.575   5.131  13.847
18886SOL     OW58554   4.412  13.387   6.278
18886SOL    HW158555   4.371  13.319   6.225
18886SOL    HW258556   4.339  13.438   6.313
18887SOL     OW58557   8.889   2.519   1.851
18887SOL    HW158558   8.938   2.531   1.932
18887SOL    HW258559   8.934   2.448   1.805
18888SOL     OW58560   3.225   3.462  10.616
18888SOL    HW158561   3.208   3.491  10.705
18888SOL    HW258562   3.307   3.507  10.592
18889SOL     OW58563  11.165   9.747  10.839
18889SOL    HW158564  11.137   9.839  10.841
18889SOL    HW258565  11.247   9.748  10.789
18890SOL     OW58566   4.040   0.173   4.639
18890SOL    HW158567   4.112   0.112   4.625
18890SOL    HW258568   3.971   0.143   4.580
18891SOL     OW58569   3.951  12.128   5.866
18891SOL    HW158570   3.979  12.220   5.865
18891SOL    HW258571   3.918  12.115   5.954
18892SOL     OW58572  10.994  11.796  13.483
18892SOL    HW158573  10.944  11.718  13.459
18892SOL    HW258574  11.011  11.840  13.400
18893SOL     OW58575  14.621   9.350   2.060
18893SOL    HW158576  14.560   9.417   2.092
18893SOL    HW258577  14.565   9.282   2.023
18894SOL     OW58578  10.893   3.466  10.753
18894SOL    HW158579  10.974   3.478  10.803
18894SOL    HW258580  10.893   3.374  10.728
18895SOL     OW58581   3.220  11.416   6.406
18895SOL    HW158582   3.201  11.503   6.443
18895SOL    HW258583   3.262  11.369   6.478
18896SOL     OW58584   4.225   5.947   3.171
18896SOL    HW158585   4.149   5.898   3.201
18896SOL    HW258586   4.265   5.982   3.250
18897SOL     OW58587   4.835   1.634  11.885
18897SOL    HW158588   4.817   1.726  11.902
18897SOL    HW258589   4.748   1.593  11.882
18898SOL     OW58590  11.276   8.283  13.417
18898SOL    HW158591  11.318   8.368  13.403
18898SOL    HW258592  11.266   8.276  13.512
18899SOL     OW58593   3.360   6.282  13.246
18899SOL    HW158594   3.286   6.310  13.192
18899SOL    HW258595   3.401   6.213  13.194
18900SOL     OW58596  13.893   1.279   9.287
18900SOL    HW158597  13.804   1.249   9.307
18900SOL    HW258598  13.880   1.365   9.246
18901SOL     OW58599  13.909  13.691   8.770
18901SOL    HW158600  13.872  13.704   8.857
18901SOL    HW258601  13.841  13.725   8.711
18902SOL     OW58602   1.662   4.037   7.027
18902SOL    HW158603   1.600   4.000   6.965
18902SOL    HW258604   1.747   4.032   6.983
18903SOL     OW58605   0.485  12.622   5.931
18903SOL    HW158606   0.568  12.575   5.927
18903SOL    HW258607   0.442  12.590   6.011
18904SOL     OW58608   8.299   5.080  14.557
18904SOL    HW158609   8.362   5.012  14.582
18904SOL    HW258610   8.229   5.073  14.622
18905SOL     OW58611   5.471   9.442   1.947
18905SOL    HW158612   5.461   9.396   1.863
18905SOL    HW258613   5.556   9.412   1.980
18906SOL     OW58614   3.583  13.270   4.862
18906SOL    HW158615   3.671  13.288   4.895
18906SOL    HW258616   3.529  13.342   4.897
18907SOL     OW58617   0.545  14.384  11.672
18907SOL    HW158618   0.512  14.401  11.761
18907SOL    HW258619   0.625  14.333  11.684
18908SOL     OW58620   4.657  13.871   1.081
18908SOL    HW158621   4.730  13.901   1.135
18908SOL    HW258622   4.693  13.799   1.029
18909SOL     OW58623   0.904   1.123   5.138
18909SOL    HW158624   0.888   1.181   5.213
18909SOL    HW258625   0.862   1.168   5.064
18910SOL     OW58626  13.589   9.368   4.983
18910SOL    HW158627  13.582   9.285   5.032
18910SOL    HW258628  13.678   9.368   4.950
18911SOL     OW58629  14.542   5.344   0.827
18911SOL    HW158630  14.472   5.352   0.762
18911SOL    HW258631  14.551   5.250   0.841
18912SOL     OW58632   5.411  11.863  11.940
18912SOL    HW158633   5.413  11.879  11.846
18912SOL    HW258634   5.334  11.807  11.953
18913SOL     OW58635  11.069   8.057  10.131
18913SOL    HW158636  11.154   8.100  10.132
18913SOL    HW258637  11.011   8.120  10.090
18914SOL     OW58638   3.840   4.015  11.240
18914SOL    HW158639   3.879   4.086  11.189
18914SOL    HW258640   3.749   4.011  11.209
18915SOL     OW58641   4.295   3.811   6.062
18915SOL    HW158642   4.268   3.741   6.123
18915SOL    HW258643   4.219   3.824   6.006
18916SOL     OW58644   7.586  12.258   5.687
18916SOL    HW158645   7.669  12.213   5.671
18916SOL    HW258646   7.520  12.198   5.654
18917SOL     OW58647   2.138  14.237   7.061
18917SOL    HW158648   2.059  14.291   7.058
18917SOL    HW258649   2.106  14.147   7.071
18918SOL     OW58650   2.620   0.692   5.397
18918SOL    HW158651   2.711   0.698   5.368
18918SOL    HW258652   2.622   0.632   5.471
18919SOL     OW58653  12.440  14.713   3.199
18919SOL    HW158654  12.443  14.662   3.280
18919SOL    HW258655  12.474  14.653   3.132
18920SOL     OW58656   8.096   9.915   2.462
18920SOL    HW158657   8.093  10.006   2.435
18920SOL    HW258658   8.091   9.865   2.381
18921SOL     OW58659  11.104   3.490   9.401
18921SOL    HW158660  11.140   3.578   9.385
18921SOL    HW258661  11.165   3.451   9.464
18922SOL     OW58662  14.796   4.153   0.940
18922SOL    HW158663  14.853   4.123   1.012
18922SOL    HW258664  14.791   4.248   0.952
18923SOL     OW58665  11.251   7.132   2.586
18923SOL    HW158666  11.163   7.108   2.618
18923SOL    HW258667  11.255   7.227   2.599
18924SOL     OW58668  10.669   7.278  10.975
18924SOL    HW158669  10.657   7.259  10.881
18924SOL    HW258670  10.582   7.262  11.013
18925SOL     OW58671  13.612   8.957   6.340
18925SOL    HW158672  13.699   8.918   6.333
18925SOL    HW258673  13.580   8.959   6.250
18926SOL     OW58674   1.340   3.576   4.255
18926SOL    HW158675   1.354   3.660   4.212
18926SOL    HW258676   1.428   3.541   4.268
18927SOL     OW58677  10.977   6.379   6.468
18927SOL    HW158678  10.999   6.459   6.420
18927SOL    HW258679  10.954   6.410   6.556
18928SOL     OW58680   6.914   2.245  13.590
18928SOL    HW158681   6.969   2.167  13.585
18928SOL    HW258682   6.903   2.260  13.684
18929SOL     OW58683   3.313  10.738   1.634
18929SOL    HW158684   3.229  10.692   1.631
18929SOL    HW258685   3.319  10.770   1.724
18930SOL     OW58686   5.296   7.515   4.494
18930SOL    HW158687   5.294   7.509   4.589
18930SOL    HW258688   5.322   7.428   4.464
18931SOL     OW58689  10.693   4.591  12.554
18931SOL    HW158690  10.786   4.603  12.536
18931SOL    HW258691  10.652   4.673  12.526
18932SOL     OW58692  13.147   4.189   8.733
18932SOL    HW158693  13.090   4.208   8.807
18932SOL    HW258694  13.235   4.205   8.765
18933SOL     OW58695  12.446   9.347   8.835
18933SOL    HW158696  12.515   9.292   8.870
18933SOL    HW258697  12.456   9.431   8.880
18934SOL     OW58698   5.157   0.885   7.551
18934SOL    HW158699   5.173   0.824   7.479
18934SOL    HW258700   5.063   0.903   7.545
18935SOL     OW58701   3.240   6.183   7.941
18935SOL    HW158702   3.211   6.269   7.911
18935SOL    HW258703   3.325   6.200   7.983
18936SOL     OW58704  11.650   8.224  12.536
18936SOL    HW158705  11.657   8.169  12.614
18936SOL    HW258706  11.729   8.279  12.539
18937SOL     OW58707  13.930   1.622   3.106
18937SOL    HW158708  13.866   1.673   3.156
18937SOL    HW258709  14.014   1.640   3.148
18938SOL     OW58710  12.261   2.209   6.009
18938SOL    HW158711  12.326   2.218   5.940
18938SOL    HW258712  12.177   2.224   5.966
18939SOL     OW58713   1.943   7.495   9.878
18939SOL    HW158714   1.907   7.534   9.798
18939SOL    HW258715   1.889   7.417   9.893
18940SOL     OW58716   6.848   2.986   3.627
18940SOL    HW158717   6.767   3.027   3.658
18940SOL    HW258718   6.862   2.913   3.687
18941SOL     OW58719   6.067   0.818   9.279
18941SOL    HW158720   6.046   0.734   9.237
18941SOL    HW258721   6.118   0.794   9.356
18942SOL     OW58722  10.811   4.456   8.898
18942SOL    HW158723  10.897   4.414   8.894
18942SOL    HW258724  10.816   4.512   8.975
18943SOL     OW58725   3.659   8.399   6.852
18943SOL    HW158726   3.738   8.432   6.810
18943SOL    HW258727   3.675   8.306   6.866
18944SOL     OW58728   9.620   5.860   8.921
18944SOL    HW158729   9.598   5.814   9.002
18944SOL    HW258730   9.643   5.791   8.859
18945SOL     OW58731  14.873   1.259   2.405
18945SOL    HW158732   0.046   1.338   2.406
18945SOL    HW258733  14.787   1.288   2.434
18946SOL     OW58734  10.321   4.487  13.701
18946SOL    HW158735  10.280   4.406  13.673
18946SOL    HW258736  10.352   4.469  13.790
18947SOL     OW58737   0.782  12.165   1.450
18947SOL    HW158738   0.785  12.261   1.450
18947SOL    HW258739   0.818  12.141   1.364
18948SOL     OW58740  14.195   5.730   5.682
18948SOL    HW158741  14.259   5.792   5.646
18948SOL    HW258742  14.222   5.718   5.774
18949SOL     OW58743   9.195   4.589   0.395
18949SOL    HW158744   9.114   4.632   0.422
18949SOL    HW258745   9.265   4.645   0.430
18950SOL     OW58746  11.793   7.431  13.983
18950SOL    HW158747  11.833   7.460  14.064
18950SOL    HW258748  11.731   7.363  14.009
18951SOL     OW58749  10.499   3.658   0.989
18951SOL    HW158750  10.440   3.707   1.046
18951SOL    HW258751  10.567   3.722   0.965
18952SOL     OW58752   0.693  12.653  10.816
18952SOL    HW158753   0.641  12.580  10.849
18952SOL    HW258754   0.766  12.612  10.770
18953SOL     OW58755   9.824   4.520   7.693
18953SOL    HW158756   9.858   4.561   7.614
18953SOL    HW258757   9.743   4.478   7.664
18954SOL     OW58758   9.589   1.741   3.858
18954SOL    HW158759   9.541   1.705   3.783
18954SOL    HW258760   9.521   1.774   3.916
18955SOL     OW58761   1.661   0.794   8.258
18955SOL    HW158762   1.690   0.802   8.167
18955SOL    HW258763   1.658   0.700   8.274
18956SOL     OW58764  14.105   0.760  11.124
18956SOL    HW158765  14.124   0.792  11.036
18956SOL    HW258766  14.012   0.776  11.137
18957SOL     OW58767  14.603   5.208  11.519
18957SOL    HW158768  14.676   5.173  11.467
18957SOL    HW258769  14.596   5.148  11.593
18958SOL     OW58770   2.632   2.686   4.552
18958SOL    HW158771   2.678   2.609   4.585
18958SOL    HW258772   2.550   2.652   4.516
18959SOL     OW58773  12.050   9.979   5.133
18959SOL    HW158774  11.963  10.014   5.115
18959SOL    HW258775  12.066   9.999   5.225
18960SOL     OW58776   9.546   7.315   0.528
18960SOL    HW158777   9.590   7.238   0.491
18960SOL    HW258778   9.466   7.280   0.567
18961SOL     OW58779  12.075   1.357   8.957
18961SOL    HW158780  12.136   1.290   8.926
18961SOL    HW258781  12.009   1.308   9.005
18962SOL     OW58782  10.004   4.180   7.833
18962SOL    HW158783   9.918   4.145   7.809
18962SOL    HW258784  10.045   4.203   7.749
18963SOL     OW58785   5.294   2.487   4.353
18963SOL    HW158786   5.281   2.581   4.344
18963SOL    HW258787   5.269   2.468   4.443
18964SOL     OW58788   4.218  12.036   0.570
18964SOL    HW158789   4.297  11.996   0.605
18964SOL    HW258790   4.240  12.057   0.479
18965SOL     OW58791   7.296   3.720   8.148
18965SOL    HW158792   7.342   3.636   8.156
18965SOL    HW258793   7.363   3.780   8.116
18966SOL     OW58794   4.500   6.663  10.269
18966SOL    HW158795   4.406   6.669  10.285
18966SOL    HW258796   4.528   6.586  10.320
18967SOL     OW58797   2.280   8.571  14.649
18967SOL    HW158798   2.332   8.609  14.721
18967SOL    HW258799   2.342   8.562  14.577
18968SOL     OW58800   8.479   6.213   9.356
18968SOL    HW158801   8.541   6.261   9.303
18968SOL    HW258802   8.396   6.219   9.309
18969SOL     OW58803   3.597  13.117  14.384
18969SOL    HW158804   3.639  13.149  14.305
18969SOL    HW258805   3.643  13.161  14.456
18970SOL     OW58806   4.154  10.748   7.509
18970SOL    HW158807   4.223  10.727   7.447
18970SOL    HW258808   4.193  10.731   7.595
18971SOL     OW58809  11.052   8.284  14.138
18971SOL    HW158810  11.020   8.194  14.131
18971SOL    HW258811  10.999   8.324  14.206
18972SOL     OW58812   4.163   7.737   0.409
18972SOL    HW158813   4.093   7.761   0.470
18972SOL    HW258814   4.167   7.642   0.413
18973SOL     OW58815   0.725  11.926  11.840
18973SOL    HW158816   0.766  11.848  11.802
18973SOL    HW258817   0.698  11.899  11.928
18974SOL     OW58818   0.536   8.127  11.599
18974SOL    HW158819   0.565   8.188  11.531
18974SOL    HW258820   0.609   8.123  11.661
18975SOL     OW58821  13.103   7.904   3.898
18975SOL    HW158822  13.117   7.919   3.804
18975SOL    HW258823  13.108   7.809   3.908
18976SOL     OW58824   4.405   6.649   7.730
18976SOL    HW158825   4.483   6.598   7.706
18976SOL    HW258826   4.402   6.720   7.666
18977SOL     OW58827   9.709   3.272  11.252
18977SOL    HW158828   9.745   3.185  11.271
18977SOL    HW258829   9.785   3.323  11.222
18978SOL     OW58830   2.970   6.032   5.800
18978SOL    HW158831   2.933   5.970   5.736
18978SOL    HW258832   2.924   6.114   5.782
18979SOL     OW58833   0.660   8.143   3.416
18979SOL    HW158834   0.637   8.218   3.472
18979SOL    HW258835   0.599   8.148   3.343
18980SOL     OW58836   9.269  13.373  10.617
18980SOL    HW158837   9.324  13.426  10.559
18980SOL    HW258838   9.304  13.390  10.704
18981SOL     OW58839  11.230   3.096   6.525
18981SOL    HW158840  11.151   3.042   6.528
18981SOL    HW258841  11.268   3.087   6.613
18982SOL     OW58842   0.115  10.459   7.473
18982SOL    HW158843   0.153  10.371   7.475
18982SOL    HW258844   0.187  10.517   7.494
18983SOL     OW58845  14.185   7.988  12.688
18983SOL    HW158846  14.278   7.969  12.670
18983SOL    HW258847  14.167   8.067  12.637
18984SOL     OW58848   1.715   5.354   7.557
18984SOL    HW158849   1.677   5.275   7.594
18984SOL    HW258850   1.732   5.410   7.633
18985SOL     OW58851   5.807  13.853   0.481
18985SOL    HW158852   5.819  13.812   0.567
18985SOL    HW258853   5.815  13.947   0.499
18986SOL     OW58854   4.164  14.621   1.909
18986SOL    HW158855   4.101  14.669   1.963
18986SOL    HW258856   4.221  14.688   1.873
18987SOL     OW58857  14.684   7.071   9.576
18987SOL    HW158858  14.606   7.018   9.594
18987SOL    HW258859  14.649   7.158   9.556
18988SOL     OW58860  11.436   9.692   5.445
18988SOL    HW158861  11.424   9.772   5.394
18988SOL    HW258862  11.485   9.634   5.386
18989SOL     OW58863  14.362   0.487   9.217
18989SOL    HW158864  14.303   0.414   9.202
18989SOL    HW258865  14.364   0.534   9.134
18990SOL     OW58866   9.966   4.554   4.682
18990SOL    HW158867   9.975   4.545   4.588
18990SOL    HW258868   9.881   4.515   4.702
18991SOL     OW58869   2.017   0.601  14.413
18991SOL    HW158870   2.015   0.651  14.331
18991SOL    HW258871   2.102   0.558  14.412
18992SOL     OW58872   4.626  12.969  11.888
18992SOL    HW158873   4.645  13.060  11.910
18992SOL    HW258874   4.704  12.921  11.916
18993SOL     OW58875   0.558  13.368   4.265
18993SOL    HW158876   0.545  13.280   4.229
18993SOL    HW258877   0.474  13.412   4.253
18994SOL     OW58878   2.177  12.061   4.498
18994SOL    HW158879   2.099  12.038   4.549
18994SOL    HW258880   2.149  12.051   4.406
18995SOL     OW58881   6.554   3.870   8.658
18995SOL    HW158882   6.465   3.900   8.638
18995SOL    HW258883   6.544   3.779   8.684
18996SOL     OW58884   1.338   3.781   9.549
18996SOL    HW158885   1.260   3.785   9.494
18996SOL    HW258886   1.406   3.824   9.498
18997SOL     OW58887   5.888   9.017   4.463
18997SOL    HW158888   5.828   8.990   4.532
18997SOL    HW258889   5.853   9.100   4.432
18998SOL     OW58890   8.613   7.061  10.575
18998SOL    HW158891   8.629   6.972  10.605
18998SOL    HW258892   8.698   7.091  10.543
18999SOL     OW58893   1.209   2.822  10.038
18999SOL    HW158894   1.177   2.841  10.126
18999SOL    HW258895   1.185   2.900   9.987
19000SOL     OW58896   7.669   7.087  11.851
19000SOL    HW158897   7.661   7.176  11.884
19000SOL    HW258898   7.606   7.083  11.779
19001SOL     OW58899   1.037   1.696   3.278
19001SOL    HW158900   1.022   1.638   3.353
19001SOL    HW258901   0.984   1.658   3.208
19002SOL     OW58902   3.186   3.929   8.747
19002SOL    HW158903   3.101   3.897   8.715
19002SOL    HW258904   3.179   4.024   8.740
19003SOL     OW58905   7.021   8.907   5.826
19003SOL    HW158906   6.960   8.837   5.849
19003SOL    HW258907   7.016   8.913   5.730
19004SOL     OW58908   0.461   2.952   1.499
19004SOL    HW158909   0.450   2.857   1.507
19004SOL    HW258910   0.391   2.979   1.439
19005SOL     OW58911   2.909   4.083   4.725
19005SOL    HW158912   2.997   4.050   4.741
19005SOL    HW258913   2.854   4.005   4.723
19006SOL     OW58914  10.234   1.152   3.075
19006SOL    HW158915  10.160   1.211   3.088
19006SOL    HW258916  10.307   1.209   3.050
19007SOL     OW58917   7.275  10.582   5.096
19007SOL    HW158918   7.337  10.514   5.122
19007SOL    HW258919   7.193  10.558   5.139
19008SOL     OW58920   8.496  11.154   8.256
19008SOL    HW158921   8.439  11.080   8.236
19008SOL    HW258922   8.467  11.224   8.198
19009SOL     OW58923   4.485  12.174  14.046
19009SOL    HW158924   4.561  12.229  14.065
19009SOL    HW258925   4.424  12.232  14.000
19010SOL     OW58926   8.486   5.520   7.359
19010SOL    HW158927   8.443   5.463   7.424
19010SOL    HW258928   8.415   5.573   7.324
19011SOL     OW58929   7.851  13.557  10.885
19011SOL    HW158930   7.789  13.533  10.954
19011SOL    HW258931   7.907  13.624  10.926
19012SOL     OW58932  13.646  12.304  12.748
19012SOL    HW158933  13.583  12.243  12.710
19012SOL    HW258934  13.709  12.248  12.794
19013SOL     OW58935   4.916   7.825   4.682
19013SOL    HW158936   4.842   7.810   4.624
19013SOL    HW258937   4.940   7.739   4.715
19014SOL     OW58938  13.192   8.973  13.413
19014SOL    HW158939  13.197   9.025  13.333
19014SOL    HW258940  13.283   8.958  13.438
19015SOL     OW58941   2.869   0.594   7.822
19015SOL    HW158942   2.954   0.615   7.859
19015SOL    HW258943   2.810   0.661   7.855
19016SOL     OW58944  11.720   5.913   5.380
19016SOL    HW158945  11.784   5.973   5.419
19016SOL    HW258946  11.766   5.829   5.374
19017SOL     OW58947   3.261   7.803   0.010
19017SOL    HW158948   3.220   7.821   0.095
19017SOL    HW258949   3.274   7.708   0.009
19018SOL     OW58950   3.004   0.473   9.739
19018SOL    HW158951   2.937   0.530   9.703
19018SOL    HW258952   3.083   0.527   9.743
19019SOL     OW58953  12.745   4.357   2.492
19019SOL    HW158954  12.755   4.450   2.511
19019SOL    HW258955  12.835   4.323   2.489
19020SOL     OW58956  12.689   4.714   1.482
19020SOL    HW158957  12.680   4.809   1.497
19020SOL    HW258958  12.784   4.699   1.486
19021SOL     OW58959  14.854   7.202   8.421
19021SOL    HW158960  14.815   7.115   8.434
19021SOL    HW258961  14.779   7.259   8.404
19022SOL     OW58962  10.306  12.766   6.498
19022SOL    HW158963  10.340  12.696   6.442
19022SOL    HW258964  10.314  12.732   6.587
19023SOL     OW58965   3.153   2.226   8.486
19023SOL    HW158966   3.206   2.146   8.480
19023SOL    HW258967   3.215   2.297   8.476
19024SOL     OW58968   1.734   2.389   4.755
19024SOL    HW158969   1.772   2.426   4.834
19024SOL    HW258970   1.643   2.420   4.756
19025SOL     OW58971   1.748  14.426  11.708
19025SOL    HW158972   1.749  14.366  11.783
19025SOL    HW258973   1.810  14.387  11.646
19026SOL     OW58974   8.142   9.716  14.053
19026SOL    HW158975   8.162   9.699  13.961
19026SOL    HW258976   8.224   9.698  14.100
19027SOL     OW58977   0.409  14.508   8.409
19027SOL    HW158978   0.393  14.584   8.465
19027SOL    HW258979   0.419  14.544   8.321
19028SOL     OW58980   7.301   8.258  14.111
19028SOL    HW158981   7.212   8.266  14.077
19028SOL    HW258982   7.349   8.214  14.042
19029SOL     OW58983   1.347   2.726  14.469
19029SOL    HW158984   1.296   2.802  14.501
19029SOL    HW258985   1.357   2.670  14.546
19030SOL     OW58986   2.285   3.504   9.511
19030SOL    HW158987   2.326   3.427   9.471
19030SOL    HW258988   2.296   3.490   9.605
19031SOL     OW58989  14.104   4.054   1.047
19031SOL    HW158990  14.185   4.078   1.002
19031SOL    HW258991  14.036   4.068   0.981
19032SOL     OW58992   2.818   4.975   6.749
19032SOL    HW158993   2.839   4.950   6.839
19032SOL    HW258994   2.846   4.900   6.697
19033SOL     OW58995   8.188   2.747   3.607
19033SOL    HW158996   8.283   2.742   3.618
19033SOL    HW258997   8.175   2.741   3.512
19034SOL     OW58998   7.500   4.891   3.586
19034SOL    HW158999   7.529   4.822   3.526
19034SOL    HW259000   7.488   4.968   3.530
19035SOL     OW59001   1.021  11.576  14.475
19035SOL    HW159002   0.984  11.488  14.479
19035SOL    HW259003   1.065  11.587  14.560
19036SOL     OW59004   9.991  13.186   0.118
19036SOL    HW159005   9.995  13.260   0.178
19036SOL    HW259006  10.051  13.122   0.154
19037SOL     OW59007  14.177   1.652   5.511
19037SOL    HW159008  14.087   1.651   5.478
19037SOL    HW259009  14.211   1.565   5.489
19038SOL     OW59010   5.852   3.377   2.664
19038SOL    HW159011   5.793   3.450   2.648
19038SOL    HW259012   5.900   3.401   2.743
19039SOL     OW59013   6.098   1.632  12.675
19039SOL    HW159014   6.095   1.578  12.596
19039SOL    HW259015   6.012   1.673  12.679
19040SOL     OW59016   0.173   0.829   1.208
19040SOL    HW159017   0.155   0.740   1.237
19040SOL    HW259018   0.095   0.879   1.234
19041SOL     OW59019   3.947   6.030   0.236
19041SOL    HW159020   3.908   6.041   0.322
19041SOL    HW259021   3.890   5.967   0.192
19042SOL     OW59022   3.555  13.198  10.834
19042SOL    HW159023   3.496  13.266  10.802
19042SOL    HW259024   3.514  13.166  10.914
19043SOL     OW59025   9.344   7.411   5.215
19043SOL    HW159026   9.317   7.433   5.126
19043SOL    HW259027   9.412   7.344   5.203
19044SOL     OW59028   2.231   9.612   8.212
19044SOL    HW159029   2.213   9.703   8.234
19044SOL    HW259030   2.162   9.587   8.151
19045SOL     OW59031   6.607   1.515  12.700
19045SOL    HW159032   6.679   1.457  12.724
19045SOL    HW259033   6.638   1.603  12.723
19046SOL     OW59034   9.871   1.936   4.619
19046SOL    HW159035   9.881   1.846   4.586
19046SOL    HW259036   9.887   1.927   4.713
19047SOL     OW59037   1.305   7.437  14.084
19047SOL    HW159038   1.222   7.432  14.133
19047SOL    HW259039   1.368   7.471  14.147
19048SOL     OW59040   4.044   6.889  10.458
19048SOL    HW159041   3.979   6.834  10.502
19048SOL    HW259042   4.002   6.915  10.375
19049SOL     OW59043  13.427  13.779   4.381
19049SOL    HW159044  13.332  13.774   4.391
19049SOL    HW259045  13.460  13.799   4.468
19050SOL     OW59046  10.085  12.136   4.799
19050SOL    HW159047  10.174  12.167   4.785
19050SOL    HW259048  10.033  12.182   4.733
19051SOL     OW59049   2.493   9.406   3.187
19051SOL    HW159050   2.553   9.331   3.195
19051SOL    HW259051   2.454   9.414   3.274
19052SOL     OW59052   9.221   2.431  14.279
19052SOL    HW159053   9.266   2.414  14.362
19052SOL    HW259054   9.278   2.493  14.233
19053SOL     OW59055   2.799   9.753   2.856
19053SOL    HW159056   2.706   9.745   2.877
19053SOL    HW259057   2.817   9.847   2.858
19054SOL     OW59058  11.668   2.827  13.217
19054SOL    HW159059  11.721   2.794  13.290
19054SOL    HW259060  11.731   2.873  13.161
19055SOL     OW59061   9.833  11.184   7.386
19055SOL    HW159062   9.745  11.218   7.370
19055SOL    HW259063   9.820  11.103   7.434
19056SOL     OW59064   9.311   1.160   4.046
19056SOL    HW159065   9.351   1.221   3.983
19056SOL    HW259066   9.316   1.075   4.002
19057SOL     OW59067  12.420  13.827   3.455
19057SOL    HW159068  12.346  13.811   3.396
19057SOL    HW259069  12.483  13.759   3.433
19058SOL     OW59070   5.910  10.697   5.670
19058SOL    HW159071   5.962  10.695   5.590
19058SOL    HW259072   5.840  10.759   5.653
19059SOL     OW59073   9.448   1.647   3.618
19059SOL    HW159074   9.376   1.677   3.675
19059SOL    HW259075   9.419   1.669   3.530
19060SOL     OW59076   9.399   5.175  11.175
19060SOL    HW159077   9.469   5.160  11.112
19060SOL    HW259078   9.442   5.173  11.260
19061SOL     OW59079  12.520  10.382   0.060
19061SOL    HW159080  12.501  10.469   0.026
19061SOL    HW259081  12.570  10.397   0.139
19062SOL     OW59082   5.745   3.167   0.439
19062SOL    HW159083   5.722   3.179   0.531
19062SOL    HW259084   5.685   3.100   0.408
19063SOL     OW59085   1.296  11.201   2.912
19063SOL    HW159086   1.332  11.144   2.844
19063SOL    HW259087   1.204  11.213   2.887
19064SOL     OW59088   5.842  10.436   0.492
19064SOL    HW159089   5.934  10.450   0.513
19064SOL    HW259090   5.794  10.493   0.552
19065SOL     OW59091   0.860  10.262  13.851
19065SOL    HW159092   0.805  10.285  13.775
19065SOL    HW259093   0.903  10.344  13.875
19066SOL     OW59094   7.420   5.641   2.723
19066SOL    HW159095   7.349   5.618   2.783
19066SOL    HW259096   7.391   5.721   2.680
19067SOL     OW59097  10.795   5.680  13.889
19067SOL    HW159098  10.754   5.688  13.804
19067SOL    HW259099  10.889   5.670  13.870
19068SOL     OW59100   9.903  14.411   0.026
19068SOL    HW159101   9.918  14.390   0.118
19068SOL    HW259102   9.988  14.397  14.864
19069SOL     OW59103   8.488   7.000   5.601
19069SOL    HW159104   8.498   7.027   5.692
19069SOL    HW259105   8.432   6.922   5.605
19070SOL     OW59106   9.304   1.723   4.498
19070SOL    HW159107   9.213   1.698   4.480
19070SOL    HW259108   9.313   1.810   4.459
19071SOL     OW59109   6.863  13.588  10.795
19071SOL    HW159110   6.844  13.672  10.753
19071SOL    HW259111   6.779  13.559  10.830
19072SOL     OW59112   1.610   5.302   6.374
19072SOL    HW159113   1.668   5.239   6.329
19072SOL    HW259114   1.533   5.308   6.318
19073SOL     OW59115   8.474  10.235   3.675
19073SOL    HW159116   8.384  10.212   3.697
19073SOL    HW259117   8.471  10.329   3.660
19074SOL     OW59118  11.889   9.379   4.301
19074SOL    HW159119  11.923   9.466   4.320
19074SOL    HW259120  11.810   9.372   4.355
19075SOL     OW59121  13.842  12.472   0.930
19075SOL    HW159122  13.882  12.482   1.016
19075SOL    HW259123  13.747  12.473   0.947
19076SOL     OW59124   7.527  12.665  11.209
19076SOL    HW159125   7.537  12.739  11.269
19076SOL    HW259126   7.540  12.702  11.122
19077SOL     OW59127   7.202  13.235   6.164
19077SOL    HW159128   7.279  13.289   6.185
19077SOL    HW259129   7.203  13.166   6.230
19078SOL     OW59130  14.264   6.328   0.579
19078SOL    HW159131  14.226   6.396   0.636
19078SOL    HW259132  14.337   6.293   0.631
19079SOL     OW59133   3.178  12.878   4.478
19079SOL    HW159134   3.200  12.967   4.449
19079SOL    HW259135   3.251  12.854   4.535
19080SOL     OW59136  11.849  14.568  14.801
19080SOL    HW159137  11.936  14.609  14.802
19080SOL    HW259138  11.862  14.483  14.844
19081SOL     OW59139   1.016  14.271   7.758
19081SOL    HW159140   1.016  14.353   7.709
19081SOL    HW259141   0.934  14.272   7.807
19082SOL     OW59142   5.119  11.093   2.110
19082SOL    HW159143   5.106  11.154   2.037
19082SOL    HW259144   5.130  11.007   2.068
19083SOL     OW59145   7.973   8.253   7.069
19083SOL    HW159146   8.062   8.219   7.068
19083SOL    HW259147   7.932   8.216   6.990
19084SOL     OW59148  11.255  10.751  10.719
19084SOL    HW159149  11.346  10.722  10.714
19084SOL    HW259150  11.204  10.671  10.716
19085SOL     OW59151   0.795  13.413   0.457
19085SOL    HW159152   0.861  13.393   0.391
19085SOL    HW259153   0.731  13.469   0.412
19086SOL     OW59154   4.959   3.428   4.846
19086SOL    HW159155   5.004   3.497   4.797
19086SOL    HW259156   4.866   3.444   4.830
19087SOL     OW59157   0.832  11.291   3.735
19087SOL    HW159158   0.770  11.239   3.685
19087SOL    HW259159   0.796  11.380   3.733
19088SOL     OW59160  14.335   7.528   3.956
19088SOL    HW159161  14.242   7.542   3.969
19088SOL    HW259162  14.356   7.453   4.011
19089SOL     OW59163   7.376   3.758  11.161
19089SOL    HW159164   7.291   3.796  11.136
19089SOL    HW259165   7.417   3.734  11.078
19090SOL     OW59166  12.733   5.471   2.150
19090SOL    HW159167  12.803   5.501   2.092
19090SOL    HW259168  12.657   5.524   2.126
19091SOL     OW59169   0.640   3.577   8.491
19091SOL    HW159170   0.692   3.627   8.428
19091SOL    HW259171   0.684   3.492   8.495
19092SOL     OW59172   5.000   0.036   5.765
19092SOL    HW159173   4.916   0.068   5.797
19092SOL    HW259174   5.047   0.009   5.843
19093SOL     OW59175   2.979   2.942   4.153
19093SOL    HW159176   2.932   2.859   4.152
19093SOL    HW259177   3.068   2.918   4.181
19094SOL     OW59178   5.373   7.489   1.425
19094SOL    HW159179   5.398   7.447   1.507
19094SOL    HW259180   5.284   7.520   1.440
19095SOL     OW59181   6.608  10.063   1.371
19095SOL    HW159182   6.524  10.052   1.414
19095SOL    HW259183   6.640   9.973   1.357
19096SOL     OW59184  12.339   3.052   9.026
19096SOL    HW159185  12.342   3.012   8.939
19096SOL    HW259186  12.431   3.066   9.050
19097SOL     OW59187  11.333   6.581   8.268
19097SOL    HW159188  11.271   6.647   8.238
19097SOL    HW259189  11.282   6.523   8.324
19098SOL     OW59190   8.619  14.083   0.016
19098SOL    HW159191   8.605  14.020  14.825
19098SOL    HW259192   8.701  14.126  14.874
19099SOL     OW59193   0.287  12.683   6.399
19099SOL    HW159194   0.215  12.628   6.369
19099SOL    HW259195   0.257  12.717   6.484
19100SOL     OW59196  13.884   8.992   8.780
19100SOL    HW159197  13.944   8.918   8.778
19100SOL    HW259198  13.935   9.063   8.818
19101SOL     OW59199  13.757  11.752  10.085
19101SOL    HW159200  13.697  11.816  10.122
19101SOL    HW259201  13.844  11.785  10.108
19102SOL     OW59202   2.441  13.332   0.117
19102SOL    HW159203   2.499  13.331   0.042
19102SOL    HW259204   2.359  13.370   0.084
19103SOL     OW59205   6.561   5.559  10.123
19103SOL    HW159206   6.487   5.579  10.181
19103SOL    HW259207   6.519   5.533  10.040
19104SOL     OW59208   2.017  14.125   9.353
19104SOL    HW159209   2.075  14.138   9.279
19104SOL    HW259210   1.932  14.102   9.314
19105SOL     OW59211   7.126   3.034   3.626
19105SOL    HW159212   7.161   2.946   3.641
19105SOL    HW259213   7.031   3.022   3.619
19106SOL     OW59214   9.493  12.938   2.884
19106SOL    HW159215   9.582  12.932   2.849
19106SOL    HW259216   9.446  12.865   2.843
19107SOL     OW59217   8.776   0.231   5.945
19107SOL    HW159218   8.795   0.277   5.864
19107SOL    HW259219   8.722   0.292   5.995
19108SOL     OW59220  13.978   6.686   9.607
19108SOL    HW159221  14.065   6.647   9.618
19108SOL    HW259222  13.956   6.719   9.694
19109SOL     OW59223   5.052  11.367   3.317
19109SOL    HW159224   5.119  11.374   3.249
19109SOL    HW259225   5.101  11.366   3.399
19110SOL     OW59226  13.286   1.784  10.347
19110SOL    HW159227  13.317   1.702  10.386
19110SOL    HW259228  13.362   1.817  10.299
19111SOL     OW59229   6.573   9.399   7.876
19111SOL    HW159230   6.612   9.445   7.951
19111SOL    HW259231   6.648   9.365   7.828
19112SOL     OW59232  11.861  10.818  10.129
19112SOL    HW159233  11.902  10.901  10.152
19112SOL    HW259234  11.836  10.828  10.037
19113SOL     OW59235  13.175   8.273   3.084
19113SOL    HW159236  13.108   8.289   3.018
19113SOL    HW259237  13.151   8.188   3.122
19114SOL     OW59238   6.141   3.346   1.060
19114SOL    HW159239   6.167   3.434   1.088
19114SOL    HW259240   6.049   3.339   1.083
19115SOL     OW59241   8.486   5.724  12.717
19115SOL    HW159242   8.568   5.676  12.726
19115SOL    HW259243   8.418   5.659  12.735
19116SOL     OW59244   3.525   4.754  14.196
19116SOL    HW159245   3.591   4.694  14.233
19116SOL    HW259246   3.557   4.772  14.108
19117SOL     OW59247  13.127   6.786   9.434
19117SOL    HW159248  13.084   6.796   9.349
19117SOL    HW259249  13.057   6.800   9.498
19118SOL     OW59250   6.037  11.784   5.353
19118SOL    HW159251   6.122  11.742   5.369
19118SOL    HW259252   6.040  11.865   5.403
19119SOL     OW59253  12.001  13.034   0.951
19119SOL    HW159254  12.082  12.991   0.979
19119SOL    HW259255  12.012  13.045   0.856
19120SOL     OW59256   7.489   2.918  12.521
19120SOL    HW159257   7.445   2.975  12.458
19120SOL    HW259258   7.469   2.829  12.492
19121SOL     OW59259   1.683   6.897  13.114
19121SOL    HW159260   1.641   6.842  13.048
19121SOL    HW259261   1.748   6.947  13.065
19122SOL     OW59262  12.113   2.117   0.812
19122SOL    HW159263  12.080   2.199   0.849
19122SOL    HW259264  12.080   2.116   0.722
19123SOL     OW59265   9.728  14.877   5.480
19123SOL    HW159266   9.713  14.866   5.386
19123SOL    HW259267   9.813  14.836   5.495
19124SOL     OW59268   4.014   6.053   0.714
19124SOL    HW159269   4.038   5.961   0.702
19124SOL    HW259270   4.092   6.094   0.751
19125SOL     OW59271   1.360  13.931   8.479
19125SOL    HW159272   1.415  13.895   8.408
19125SOL    HW259273   1.271  13.907   8.455
19126SOL     OW59274  13.087   5.274   7.876
19126SOL    HW159275  13.141   5.319   7.810
19126SOL    HW259276  13.042   5.345   7.922
19127SOL     OW59277   8.451   3.824   9.693
19127SOL    HW159278   8.476   3.743   9.738
19127SOL    HW259279   8.370   3.851   9.735
19128SOL     OW59280   5.395  10.810  14.432
19128SOL    HW159281   5.367  10.890  14.388
19128SOL    HW259282   5.469  10.837  14.487
19129SOL     OW59283  10.619   4.396   2.984
19129SOL    HW159284  10.648   4.387   3.074
19129SOL    HW259285  10.633   4.309   2.945
19130SOL     OW59286   7.936   9.859   3.802
19130SOL    HW159287   7.867   9.921   3.822
19130SOL    HW259288   7.892   9.774   3.802
19131SOL     OW59289  12.131   0.111  10.726
19131SOL    HW159290  12.154   0.037  10.670
19131SOL    HW259291  12.088   0.070  10.802
19132SOL     OW59292  10.584  14.448   0.260
19132SOL    HW159293  10.610  14.518   0.320
19132SOL    HW259294  10.532  14.491   0.193
19133SOL     OW59295  13.091   8.216   0.080
19133SOL    HW159296  13.157   8.149   0.099
19133SOL    HW259297  13.084   8.216  14.865
19134SOL     OW59298   2.599   2.736   3.966
19134SOL    HW159299   2.569   2.795   4.034
19134SOL    HW259300   2.522   2.682   3.946
19135SOL     OW59301   5.980  12.271   8.888
19135SOL    HW159302   5.962  12.178   8.895
19135SOL    HW259303   5.905  12.313   8.931
19136SOL     OW59304  10.983  14.872  12.271
19136SOL    HW159305  10.925  14.848  12.344
19136SOL    HW259306  10.940   0.069  12.231
19137SOL     OW59307   9.000   9.928  14.867
19137SOL    HW159308   9.007   9.929   0.082
19137SOL    HW259309   9.091   9.930  14.837
19138SOL     OW59310   0.575  14.713   7.416
19138SOL    HW159311   0.595  14.789   7.472
19138SOL    HW259312   0.553  14.751   7.331
19139SOL     OW59313   8.169  13.277  10.913
19139SOL    HW159314   8.192  13.322  10.994
19139SOL    HW259315   8.163  13.184  10.937
19140SOL     OW59316  13.129   9.491   1.835
19140SOL    HW159317  13.067   9.427   1.801
19140SOL    HW259318  13.192   9.439   1.885
19141SOL     OW59319  10.902   8.351   4.252
19141SOL    HW159320  10.898   8.435   4.297
19141SOL    HW259321  10.830   8.300   4.291
19142SOL     OW59322   4.514   9.494   7.538
19142SOL    HW159323   4.571   9.565   7.509
19142SOL    HW259324   4.426   9.522   7.515
19143SOL     OW59325   7.437  10.316   5.097
19143SOL    HW159326   7.529  10.333   5.117
19143SOL    HW259327   7.439  10.255   5.023
19144SOL     OW59328   8.487   2.462   6.335
19144SOL    HW159329   8.574   2.449   6.297
19144SOL    HW259330   8.473   2.385   6.390
19145SOL     OW59331  11.720   0.842   1.404
19145SOL    HW159332  11.738   0.919   1.351
19145SOL    HW259333  11.718   0.770   1.341
19146SOL     OW59334   8.244   8.634   8.346
19146SOL    HW159335   8.227   8.711   8.400
19146SOL    HW259336   8.190   8.565   8.384
19147SOL     OW59337   1.691  13.883   5.362
19147SOL    HW159338   1.738  13.819   5.309
19147SOL    HW259339   1.637  13.830   5.420
19148SOL     OW59340   7.090   9.659   2.886
19148SOL    HW159341   7.143   9.715   2.943
19148SOL    HW259342   7.093   9.573   2.928
19149SOL     OW59343   1.557   1.740   6.651
19149SOL    HW159344   1.603   1.824   6.647
19149SOL    HW259345   1.494   1.750   6.722
19150SOL     OW59346   1.909  10.533   3.144
19150SOL    HW159347   1.833  10.502   3.095
19150SOL    HW259348   1.982  10.525   3.082
19151SOL     OW59349   7.046  10.283  10.586
19151SOL    HW159350   7.022  10.283  10.493
19151SOL    HW259351   6.967  10.310  10.631
19152SOL     OW59352  10.901   6.550  13.087
19152SOL    HW159353  10.960   6.612  13.129
19152SOL    HW259354  10.883   6.484  13.154
19153SOL     OW59355   7.158  10.016  12.879
19153SOL    HW159356   7.190   9.929  12.856
19153SOL    HW259357   7.174  10.069  12.801
19154SOL     OW59358   5.925  12.244   0.281
19154SOL    HW159359   6.007  12.210   0.245
19154SOL    HW259360   5.948  12.331   0.313
19155SOL     OW59361   0.630   3.109  12.034
19155SOL    HW159362   0.685   3.141  11.963
19155SOL    HW259363   0.561   3.059  11.990
19156SOL     OW59364   3.258   3.318   0.063
19156SOL    HW159365   3.325   3.342   0.126
19156SOL    HW259366   3.186   3.378   0.080
19157SOL     OW59367   2.743   1.306  11.646
19157SOL    HW159368   2.711   1.315  11.736
19157SOL    HW259369   2.772   1.215  11.640
19158SOL     OW59370   9.643   7.288   5.255
19158SOL    HW159371   9.686   7.371   5.274
19158SOL    HW259372   9.600   7.302   5.170
19159SOL     OW59373   1.598   0.887   0.471
19159SOL    HW159374   1.588   0.896   0.565
19159SOL    HW259375   1.569   0.972   0.435
19160SOL     OW59376   1.574  12.192  13.365
19160SOL    HW159377   1.553  12.117  13.421
19160SOL    HW259378   1.669  12.198  13.368
19161SOL     OW59379   2.267  11.951   1.363
19161SOL    HW159380   2.268  11.945   1.458
19161SOL    HW259381   2.293  12.042   1.345
19162SOL     OW59382   6.417   4.265  11.702
19162SOL    HW159383   6.400   4.250  11.795
19162SOL    HW259384   6.437   4.359  11.697
19163SOL     OW59385   4.360  10.595  13.838
19163SOL    HW159386   4.294  10.599  13.768
19163SOL    HW259387   4.360  10.683  13.876
19164SOL     OW59388  11.188   8.008  12.271
19164SOL    HW159389  11.274   7.998  12.313
19164SOL    HW259390  11.128   7.963  12.330
19165SOL     OW59391   8.707   2.989   5.833
19165SOL    HW159392   8.646   2.915   5.828
19165SOL    HW259393   8.703   3.017   5.924
19166SOL     OW59394   2.264   5.074   0.236
19166SOL    HW159395   2.350   5.083   0.275
19166SOL    HW259396   2.235   5.164   0.220
19167SOL     OW59397   3.028  12.662   4.439
19167SOL    HW159398   3.010  12.642   4.531
19167SOL    HW259399   3.062  12.751   4.440
19168SOL     OW59400   7.720   5.668  13.528
19168SOL    HW159401   7.702   5.730  13.598
19168SOL    HW259402   7.773   5.600  13.570
19169SOL     OW59403   7.137   1.149   2.182
19169SOL    HW159404   7.053   1.105   2.173
19169SOL    HW259405   7.189   1.093   2.239
19170SOL     OW59406  14.395  14.684  11.793
19170SOL    HW159407  14.422  14.647  11.877
19170SOL    HW259408  14.313  14.640  11.773
19171SOL     OW59409   0.856   3.589   9.290
19171SOL    HW159410   0.878   3.510   9.241
19171SOL    HW259411   0.808   3.558   9.367
19172SOL     OW59412   9.942   9.533  10.223
19172SOL    HW159413   9.996   9.598  10.268
19172SOL    HW259414   9.899   9.582  10.153
19173SOL     OW59415   7.780   9.672   4.975
19173SOL    HW159416   7.844   9.650   4.908
19173SOL    HW259417   7.727   9.592   4.984
19174SOL     OW59418   0.597  12.496   8.675
19174SOL    HW159419   0.561  12.428   8.732
19174SOL    HW259420   0.627  12.564   8.736
19175SOL     OW59421   2.286   7.845  11.935
19175SOL    HW159422   2.370   7.874  11.899
19175SOL    HW259423   2.286   7.750  11.920
19176SOL     OW59424   2.068   5.451   0.890
19176SOL    HW159425   2.060   5.504   0.811
19176SOL    HW259426   2.147   5.482   0.933
19177SOL     OW59427  12.141   4.832   8.161
19177SOL    HW159428  12.066   4.800   8.211
19177SOL    HW259429  12.115   4.920   8.133
19178SOL     OW59430   0.819  11.313   2.272
19178SOL    HW159431   0.727  11.290   2.264
19178SOL    HW259432   0.866  11.239   2.233
19179SOL     OW59433  12.206  10.280   2.037
19179SOL    HW159434  12.159  10.357   2.004
19179SOL    HW259435  12.279  10.316   2.087
19180SOL     OW59436  11.489   4.694   5.939
19180SOL    HW159437  11.554   4.627   5.961
19180SOL    HW259438  11.489   4.697   5.843
19181SOL     OW59439   3.687   6.057   4.867
19181SOL    HW159440   3.599   6.025   4.847
19181SOL    HW259441   3.743   5.981   4.852
19182SOL     OW59442   4.620   7.628  11.880
19182SOL    HW159443   4.670   7.652  11.803
19182SOL    HW259444   4.531   7.612  11.848
19183SOL     OW59445   4.800  13.900   7.348
19183SOL    HW159446   4.764  13.989   7.357
19183SOL    HW259447   4.863  13.892   7.419
19184SOL     OW59448   1.627   3.767  12.492
19184SOL    HW159449   1.679   3.781  12.413
19184SOL    HW259450   1.636   3.674  12.511
19185SOL     OW59451   8.287  10.951   7.579
19185SOL    HW159452   8.347  10.944   7.654
19185SOL    HW259453   8.218  11.010   7.609
19186SOL     OW59454  12.210   9.720   4.426
19186SOL    HW159455  12.147   9.704   4.355
19186SOL    HW259456  12.295   9.702   4.387
19187SOL     OW59457  11.734  14.592   5.880
19187SOL    HW159458  11.755  14.672   5.830
19187SOL    HW259459  11.819  14.552   5.898
19188SOL     OW59460   4.056  13.489   5.039
19188SOL    HW159461   4.131  13.517   4.986
19188SOL    HW259462   4.094  13.435   5.108
19189SOL     OW59463   5.383   0.767   5.643
19189SOL    HW159464   5.299   0.732   5.617
19189SOL    HW259465   5.448   0.710   5.602
19190SOL     OW59466   6.711   2.464  11.437
19190SOL    HW159467   6.744   2.515  11.363
19190SOL    HW259468   6.618   2.455  11.420
19191SOL     OW59469  13.772   0.818   0.113
19191SOL    HW159470  13.762   0.724   0.099
19191SOL    HW259471  13.738   0.858   0.033
19192SOL     OW59472  12.821   2.882   6.440
19192SOL    HW159473  12.800   2.828   6.516
19192SOL    HW259474  12.737   2.920   6.414
19193SOL     OW59475  11.630   0.983   3.968
19193SOL    HW159476  11.625   0.959   3.876
19193SOL    HW259477  11.546   1.024   3.988
19194SOL     OW59478   1.263   0.698   9.133
19194SOL    HW159479   1.326   0.707   9.205
19194SOL    HW259480   1.299   0.752   9.063
19195SOL     OW59481  10.590   3.826   9.679
19195SOL    HW159482  10.574   3.769   9.755
19195SOL    HW259483  10.502   3.843   9.644
19196SOL     OW59484   2.576   1.834   0.307
19196SOL    HW159485   2.524   1.767   0.265
19196SOL    HW259486   2.542   1.838   0.397
19197SOL     OW59487  11.197  12.873  11.475
19197SOL    HW159488  11.167  12.881  11.565
19197SOL    HW259489  11.175  12.957  11.434
19198SOL     OW59490  10.888  12.998  10.001
19198SOL    HW159491  10.917  13.070  10.056
19198SOL    HW259492  10.794  13.013   9.991
19199SOL     OW59493  10.030   6.956   9.716
19199SOL    HW159494  10.100   7.008   9.756
19199SOL    HW259495   9.997   6.902   9.787
19200SOL     OW59496   7.150   1.271   7.638
19200SOL    HW159497   7.080   1.335   7.649
19200SOL    HW259498   7.231   1.319   7.658
19201SOL     OW59499   2.235  10.788   0.443
19201SOL    HW159500   2.150  10.798   0.486
19201SOL    HW259501   2.245  10.694   0.430
19202SOL     OW59502   8.926  11.717  11.954
19202SOL    HW159503   8.913  11.693  11.863
19202SOL    HW259504   8.849  11.683  11.999
19203SOL     OW59505   9.985   3.451   0.983
19203SOL    HW159506   9.999   3.402   1.064
19203SOL    HW259507   9.926   3.522   1.008
19204SOL     OW59508  10.732  10.552   8.727
19204SOL    HW159509  10.683  10.544   8.646
19204SOL    HW259510  10.796  10.622   8.710
19205SOL     OW59511   5.050   7.719   9.908
19205SOL    HW159512   4.969   7.667   9.907
19205SOL    HW259513   5.043   7.774   9.830
19206SOL     OW59514   3.854   0.514   3.714
19206SOL    HW159515   3.865   0.420   3.729
19206SOL    HW259516   3.924   0.555   3.765
19207SOL     OW59517   9.415  11.451   3.024
19207SOL    HW159518   9.509  11.443   3.007
19207SOL    HW259519   9.373  11.407   2.950
19208SOL     OW59520  11.966   6.259  12.618
19208SOL    HW159521  12.035   6.319  12.648
19208SOL    HW259522  12.010   6.174  12.612
19209SOL     OW59523   7.380   8.061  12.119
19209SOL    HW159524   7.466   8.019  12.130
19209SOL    HW259525   7.317   7.992  12.139
19210SOL     OW59526   3.245   8.787   7.737
19210SOL    HW159527   3.202   8.703   7.720
19210SOL    HW259528   3.299   8.772   7.814
19211SOL     OW59529  12.290  12.493   8.269
19211SOL    HW159530  12.281  12.543   8.351
19211SOL    HW259531  12.250  12.550   8.203
19212SOL     OW59532  12.699   2.178   8.196
19212SOL    HW159533  12.781   2.209   8.235
19212SOL    HW259534  12.672   2.105   8.251
19213SOL     OW59535  12.101  12.975   6.307
19213SOL    HW159536  12.102  13.068   6.286
19213SOL    HW259537  12.038  12.937   6.246
19214SOL     OW59538  14.771   1.780  10.479
19214SOL    HW159539  14.776   1.870  10.446
19214SOL    HW259540  14.707   1.784  10.550
19215SOL     OW59541  13.351   9.534  13.554
19215SOL    HW159542  13.344   9.439  13.545
19215SOL    HW259543  13.307   9.569  13.477
19216SOL     OW59544   4.768   9.947  10.417
19216SOL    HW159545   4.827  10.018  10.441
19216SOL    HW259546   4.792   9.876  10.476
19217SOL     OW59547  13.811  11.712  13.635
19217SOL    HW159548  13.821  11.746  13.546
19217SOL    HW259549  13.882  11.751  13.685
19218SOL     OW59550   7.753   9.647  12.589
19218SOL    HW159551   7.810   9.599  12.649
19218SOL    HW259552   7.775   9.612  12.502
19219SOL     OW59553   8.802   6.810  12.979
19219SOL    HW159554   8.835   6.732  13.023
19219SOL    HW259555   8.855   6.882  13.016
19220SOL     OW59556  12.864   7.661   6.612
19220SOL    HW159557  12.880   7.659   6.517
19220SOL    HW259558  12.770   7.646   6.621
19221SOL     OW59559  14.674   4.358   0.141
19221SOL    HW159560  14.606   4.356   0.209
19221SOL    HW259561  14.755   4.337   0.188
19222SOL     OW59562   7.694  10.658   1.691
19222SOL    HW159563   7.612  10.703   1.710
19222SOL    HW259564   7.683  10.625   1.602
19223SOL     OW59565  10.172   7.720   7.667
19223SOL    HW159566  10.241   7.653   7.662
19223SOL    HW259567  10.093   7.675   7.639
19224SOL     OW59568   1.905   9.669   7.139
19224SOL    HW159569   1.886   9.597   7.079
19224SOL    HW259570   1.893   9.748   7.087
19225SOL     OW59571   8.244  14.174   4.124
19225SOL    HW159572   8.234  14.239   4.054
19225SOL    HW259573   8.158  14.134   4.132
19226SOL     OW59574   7.240   6.895   3.132
19226SOL    HW159575   7.169   6.909   3.195
19226SOL    HW259576   7.195   6.884   3.048
19227SOL     OW59577   3.487  10.003  14.165
19227SOL    HW159578   3.569  10.030  14.124
19227SOL    HW259579   3.447   9.942  14.103
19228SOL     OW59580  14.498  11.985  14.163
19228SOL    HW159581  14.475  12.048  14.231
19228SOL    HW259582  14.587  12.009  14.137
19229SOL     OW59583   4.142   3.679   0.026
19229SOL    HW159584   4.135   3.589  14.876
19229SOL    HW259585   4.235   3.691   0.046
19230SOL     OW59586  14.334  11.958  14.453
19230SOL    HW159587  14.240  11.941  14.445
19230SOL    HW259588  14.375  11.897  14.391
19231SOL     OW59589   7.778  14.719  11.048
19231SOL    HW159590   7.849  14.747  10.990
19231SOL    HW259591   7.702  14.769  11.018
19232SOL     OW59592  13.578   7.771  11.242
19232SOL    HW159593  13.673   7.756  11.236
19232SOL    HW259594  13.541   7.719  11.171
19233SOL     OW59595   3.079   0.520   2.865
19233SOL    HW159596   3.004   0.562   2.906
19233SOL    HW259597   3.066   0.426   2.881
19234SOL     OW59598   2.947   2.329   4.325
19234SOL    HW159599   2.856   2.360   4.322
19234SOL    HW259600   2.961   2.305   4.417
19235SOL     OW59601   0.141   4.736  12.209
19235SOL    HW159602   0.085   4.684  12.268
19235SOL    HW259603   0.230   4.717  12.238
19236SOL     OW59604  11.944   3.634  10.142
19236SOL    HW159605  12.013   3.664  10.083
19236SOL    HW259606  11.864   3.677  10.109
19237SOL     OW59607   3.805   0.947  10.352
19237SOL    HW159608   3.744   0.880  10.319
19237SOL    HW259609   3.822   0.920  10.443
19238SOL     OW59610  10.736   0.302   0.333
19238SOL    HW159611  10.674   0.260   0.393
19238SOL    HW259612  10.784   0.229   0.294
19239SOL     OW59613  13.203  12.916   5.041
19239SOL    HW159614  13.150  12.973   5.096
19239SOL    HW259615  13.174  12.828   5.062
19240SOL     OW59616  14.728   9.969   6.764
19240SOL    HW159617  14.770   9.904   6.819
19240SOL    HW259618  14.784   9.975   6.686
19241SOL     OW59619   9.451   9.850  12.567
19241SOL    HW159620   9.413   9.763  12.581
19241SOL    HW259621   9.375   9.908  12.563
19242SOL     OW59622   5.459  12.828   3.250
19242SOL    HW159623   5.385  12.822   3.311
19242SOL    HW259624   5.510  12.902   3.282
19243SOL     OW59625   0.967  13.263   3.953
19243SOL    HW159626   0.995  13.354   3.961
19243SOL    HW259627   1.004  13.234   3.869
19244SOL     OW59628  10.863   0.635   8.747
19244SOL    HW159629  10.935   0.617   8.808
19244SOL    HW259630  10.813   0.553   8.745
19245SOL     OW59631   0.133   8.100   6.690
19245SOL    HW159632   0.107   8.130   6.603
19245SOL    HW259633   0.107   8.008   6.692
19246SOL     OW59634  13.385   8.535   4.303
19246SOL    HW159635  13.352   8.470   4.364
19246SOL    HW259636  13.385   8.491   4.218
19247SOL     OW59637   6.428  12.287   5.973
19247SOL    HW159638   6.440  12.305   5.880
19247SOL    HW259639   6.351  12.338   5.998
19248SOL     OW59640   4.987  13.502  10.377
19248SOL    HW159641   5.034  13.479  10.297
19248SOL    HW259642   5.057  13.515  10.442
19249SOL     OW59643   8.334   9.522   6.909
19249SOL    HW159644   8.326   9.614   6.884
19249SOL    HW259645   8.426   9.511   6.932
19250SOL     OW59646   0.149   1.228   0.925
19250SOL    HW159647   0.240   1.197   0.929
19250SOL    HW259648   0.102   1.156   0.883
19251SOL     OW59649  12.143  13.207   4.243
19251SOL    HW159650  12.099  13.218   4.327
19251SOL    HW259651  12.078  13.235   4.178
19252SOL     OW59652   9.240   8.404   8.582
19252SOL    HW159653   9.299   8.411   8.507
19252SOL    HW259654   9.238   8.492   8.620
19253SOL     OW59655  12.578   8.276   9.421
19253SOL    HW159656  12.612   8.299   9.335
19253SOL    HW259657  12.505   8.217   9.404
19254SOL     OW59658   8.173   3.207   6.791
19254SOL    HW159659   8.221   3.289   6.777
19254SOL    HW259660   8.229   3.140   6.751
19255SOL     OW59661   2.317   0.474   1.940
19255SOL    HW159662   2.236   0.525   1.938
19255SOL    HW259663   2.386   0.538   1.958
19256SOL     OW59664   5.736   6.184   4.304
19256SOL    HW159665   5.711   6.101   4.262
19256SOL    HW259666   5.708   6.252   4.243
19257SOL     OW59667   8.606  12.627   3.987
19257SOL    HW159668   8.669  12.694   4.013
19257SOL    HW259669   8.589  12.577   4.067
19258SOL     OW59670  10.848  14.875  11.814
19258SOL    HW159671  10.892  14.816  11.753
19258SOL    HW259672  10.769   0.022  11.768
19259SOL     OW59673   3.336  12.798  11.301
19259SOL    HW159674   3.307  12.864  11.364
19259SOL    HW259675   3.431  12.810  11.296
19260SOL     OW59676  11.737  13.606   4.642
19260SOL    HW159677  11.785  13.688   4.631
19260SOL    HW259678  11.713  13.605   4.734
19261SOL     OW59679   4.404   0.608   2.066
19261SOL    HW159680   4.361   0.546   2.006
19261SOL    HW259681   4.430   0.555   2.141
19262SOL     OW59682  12.058  12.749   2.203
19262SOL    HW159683  12.133  12.796   2.168
19262SOL    HW259684  12.022  12.702   2.127
19263SOL     OW59685   9.351   2.911  14.699
19263SOL    HW159686   9.262   2.914  14.665
19263SOL    HW259687   9.403   2.957  14.632
19264SOL     OW59688  11.267  10.092  10.054
19264SOL    HW159689  11.189  10.068  10.104
19264SOL    HW259690  11.299  10.172  10.096
19265SOL     OW59691   8.803   4.715   7.553
19265SOL    HW159692   8.822   4.630   7.515
19265SOL    HW259693   8.714   4.736   7.523
19266SOL     OW59694   6.356  13.474   1.956
19266SOL    HW159695   6.446  13.506   1.953
19266SOL    HW259696   6.309  13.527   1.893
19267SOL     OW59697   3.529   9.745   2.093
19267SOL    HW159698   3.610   9.702   2.065
19267SOL    HW259699   3.492   9.686   2.158
19268SOL     OW59700   2.382   9.839   7.391
19268SOL    HW159701   2.308   9.861   7.447
19268SOL    HW259702   2.390   9.913   7.331
19269SOL     OW59703  14.105  13.540  14.427
19269SOL    HW159704  14.130  13.448  14.437
19269SOL    HW259705  14.020  13.537  14.382
19270SOL     OW59706  10.111  11.233   2.412
19270SOL    HW159707  10.174  11.260   2.478
19270SOL    HW259708  10.046  11.182   2.460
19271SOL     OW59709   6.831   3.689   6.011
19271SOL    HW159710   6.857   3.597   6.020
19271SOL    HW259711   6.747   3.695   6.056
19272SOL     OW59712  12.620   7.319   8.812
19272SOL    HW159713  12.611   7.414   8.815
19272SOL    HW259714  12.580   7.288   8.894
19273SOL     OW59715   0.606  10.334  12.484
19273SOL    HW159716   0.667  10.378  12.544
19273SOL    HW259717   0.654  10.258  12.453
19274SOL     OW59718  14.852   9.306   7.543
19274SOL    HW159719  14.836   9.354   7.624
19274SOL    HW259720   0.004   9.221   7.571
19275SOL     OW59721   0.777   3.833  11.780
19275SOL    HW159722   0.868   3.803  11.775
19275SOL    HW259723   0.774   3.910  11.725
19276SOL     OW59724   2.040   4.928  13.011
19276SOL    HW159725   1.974   4.965  13.070
19276SOL    HW259726   2.001   4.848  12.977
19277SOL     OW59727   6.837  11.837   3.423
19277SOL    HW159728   6.859  11.755   3.378
19277SOL    HW259729   6.844  11.815   3.516
19278SOL     OW59730  12.639  13.374   8.345
19278SOL    HW159731  12.564  13.426   8.318
19278SOL    HW259732  12.637  13.297   8.288
19279SOL     OW59733   0.857   0.629   3.246
19279SOL    HW159734   0.763   0.645   3.258
19279SOL    HW259735   0.893   0.632   3.334
19280SOL     OW59736   8.731   9.871   5.165
19280SOL    HW159737   8.819   9.852   5.197
19280SOL    HW259738   8.682   9.896   5.243
19281SOL     OW59739  13.437   8.339   8.981
19281SOL    HW159740  13.400   8.382   9.058
19281SOL    HW259741  13.377   8.359   8.911
19282SOL     OW59742   7.895  12.873   2.576
19282SOL    HW159743   7.813  12.850   2.619
19282SOL    HW259744   7.867  12.916   2.494
19283SOL     OW59745   0.664   4.316   9.335
19283SOL    HW159746   0.612   4.389   9.302
19283SOL    HW259747   0.688   4.266   9.256
19284SOL     OW59748  12.892  11.357   4.888
19284SOL    HW159749  12.975  11.309   4.886
19284SOL    HW259750  12.917  11.445   4.916
19285SOL     OW59751   6.311   3.618   5.338
19285SOL    HW159752   6.221   3.649   5.336
19285SOL    HW259753   6.352   3.667   5.409
19286SOL     OW59754   2.896   8.884  13.441
19286SOL    HW159755   2.834   8.811  13.435
19286SOL    HW259756   2.982   8.843  13.432
19287SOL     OW59757   3.243   9.590  13.308
19287SOL    HW159758   3.179   9.532  13.348
19287SOL    HW259759   3.324   9.573  13.356
19288SOL     OW59760   5.623   6.077   4.929
19288SOL    HW159761   5.577   6.020   4.991
19288SOL    HW259762   5.567   6.079   4.852
19289SOL     OW59763   8.155  14.759  14.587
19289SOL    HW159764   8.115  14.845  14.598
19289SOL    HW259765   8.196  14.740  14.671
19290SOL     OW59766   5.904   8.242  11.505
19290SOL    HW159767   5.936   8.197  11.427
19290SOL    HW259768   5.937   8.190  11.578
19291SOL     OW59769   5.292   1.307   7.760
19291SOL    HW159770   5.298   1.222   7.715
19291SOL    HW259771   5.338   1.293   7.842
19292SOL     OW59772   0.553   1.272  13.617
19292SOL    HW159773   0.617   1.275  13.689
19292SOL    HW259774   0.604   1.243  13.541
19293SOL     OW59775  12.781   5.770  14.319
19293SOL    HW159776  12.746   5.681  14.323
19293SOL    HW259777  12.708   5.825  14.348
19294SOL     OW59778  10.249   1.819   2.784
19294SOL    HW159779  10.174   1.834   2.726
19294SOL    HW259780  10.322   1.804   2.724
19295SOL     OW59781   5.481  11.235   7.713
19295SOL    HW159782   5.431  11.306   7.755
19295SOL    HW259783   5.524  11.191   7.786
19296SOL     OW59784  13.810   1.977   8.649
19296SOL    HW159785  13.865   2.023   8.712
19296SOL    HW259786  13.727   1.964   8.694
19297SOL     OW59787  10.108  13.928  13.113
19297SOL    HW159788  10.172  13.952  13.180
19297SOL    HW259789  10.061  14.009  13.094
19298SOL     OW59790   4.348  11.665  10.397
19298SOL    HW159791   4.348  11.760  10.388
19298SOL    HW259792   4.431  11.644  10.439
19299SOL     OW59793  14.199   1.710  10.343
19299SOL    HW159794  14.269   1.763  10.383
19299SOL    HW259795  14.200   1.628  10.393
19300SOL     OW59796  14.655   4.985   9.404
19300SOL    HW159797  14.625   5.073   9.381
19300SOL    HW259798  14.745   4.981   9.371
19301SOL     OW59799   6.499   1.638   5.324
19301SOL    HW159800   6.419   1.632   5.377
19301SOL    HW259801   6.486   1.716   5.270
19302SOL     OW59802  13.103  13.722  12.791
19302SOL    HW159803  13.166  13.788  12.821
19302SOL    HW259804  13.157  13.651  12.756
19303SOL     OW59805  11.072   5.542  13.818
19303SOL    HW159806  11.154   5.591  13.829
19303SOL    HW259807  11.099   5.461  13.773
19304SOL     OW59808   9.782  10.824   1.811
19304SOL    HW159809   9.799  10.908   1.853
19304SOL    HW259810   9.752  10.847   1.723
19305SOL     OW59811   2.054   2.916   6.121
19305SOL    HW159812   2.094   2.933   6.035
19305SOL    HW259813   2.015   2.999   6.147
19306SOL     OW59814   2.009   3.554   8.826
19306SOL    HW159815   2.054   3.509   8.754
19306SOL    HW259816   2.012   3.491   8.898
19307SOL     OW59817  14.493   9.085   3.685
19307SOL    HW159818  14.401   9.101   3.707
19307SOL    HW259819  14.525   9.169   3.655
19308SOL     OW59820   2.016  10.805   9.688
19308SOL    HW159821   1.980  10.831   9.773
19308SOL    HW259822   2.001  10.711   9.683
19309SOL     OW59823   3.356   4.644   5.830
19309SOL    HW159824   3.296   4.571   5.844
19309SOL    HW259825   3.443   4.606   5.846
19310SOL     OW59826   0.119  11.189   6.037
19310SOL    HW159827   0.067  11.255   5.990
19310SOL    HW259828   0.054  11.131   6.076
19311SOL     OW59829  13.020   5.495  14.356
19311SOL    HW159830  13.088   5.498  14.423
19311SOL    HW259831  12.938   5.489  14.405
19312SOL     OW59832   2.176   9.760   4.226
19312SOL    HW159833   2.259   9.783   4.268
19312SOL    HW259834   2.201   9.703   4.154
19313SOL     OW59835   8.772   0.751   1.373
19313SOL    HW159836   8.737   0.707   1.295
19313SOL    HW259837   8.863   0.768   1.351
19314SOL     OW59838   2.673   7.520   3.594
19314SOL    HW159839   2.589   7.519   3.547
19314SOL    HW259840   2.693   7.613   3.604
19315SOL     OW59841   9.227  13.396   4.568
19315SOL    HW159842   9.248  13.445   4.648
19315SOL    HW259843   9.158  13.335   4.595
19316SOL     OW59844   8.215   0.321   0.706
19316SOL    HW159845   8.278   0.358   0.644
19316SOL    HW259846   8.232   0.227   0.706
19317SOL     OW59847   0.844   0.344   1.312
19317SOL    HW159848   0.872   0.434   1.326
19317SOL    HW259849   0.852   0.303   1.399
19318SOL     OW59850   5.463   7.729   2.310
19318SOL    HW159851   5.459   7.706   2.217
19318SOL    HW259852   5.403   7.804   2.318
19319SOL     OW59853   2.598   2.692   0.082
19319SOL    HW159854   2.619   2.686   0.175
19319SOL    HW259855   2.673   2.738   0.044
19320SOL     OW59856   7.510  10.629   4.846
19320SOL    HW159857   7.439  10.565   4.841
19320SOL    HW259858   7.474  10.708   4.805
19321SOL     OW59859  13.487   6.161   4.873
19321SOL    HW159860  13.534   6.108   4.937
19321SOL    HW259861  13.555   6.197   4.816
19322SOL     OW59862  14.298   2.736   6.217
19322SOL    HW159863  14.389   2.727   6.245
19322SOL    HW259864  14.303   2.782   6.133
19323SOL     OW59865   1.317   7.088   4.072
19323SOL    HW159866   1.387   7.153   4.071
19323SOL    HW259867   1.304   7.068   4.165
19324SOL     OW59868   4.157   4.538  11.187
19324SOL    HW159869   4.086   4.475  11.202
19324SOL    HW259870   4.146   4.565  11.096
19325SOL     OW59871   9.111   0.135   4.698
19325SOL    HW159872   9.104   0.165   4.789
19325SOL    HW259873   9.040   0.072   4.687
19326SOL     OW59874   3.470   8.103  13.096
19326SOL    HW159875   3.523   8.150  13.032
19326SOL    HW259876   3.490   8.011  13.081
19327SOL     OW59877   0.459  13.162  12.228
19327SOL    HW159878   0.499  13.135  12.310
19327SOL    HW259879   0.369  13.130  12.234
19328SOL     OW59880   7.667   0.370  13.101
19328SOL    HW159881   7.714   0.395  13.021
19328SOL    HW259882   7.583   0.337  13.070
19329SOL     OW59883   2.020   6.212   6.357
19329SOL    HW159884   1.949   6.253   6.306
19329SOL    HW259885   2.052   6.141   6.301
19330SOL     OW59886  12.821   5.136   2.309
19330SOL    HW159887  12.842   5.228   2.327
19330SOL    HW259888  12.905   5.091   2.317
19331SOL     OW59889  13.579   4.363  12.157
19331SOL    HW159890  13.597   4.348  12.249
19331SOL    HW259891  13.485   4.352  12.148
19332SOL     OW59892   3.199   3.422   1.742
19332SOL    HW159893   3.147   3.375   1.807
19332SOL    HW259894   3.190   3.515   1.766
19333SOL     OW59895   0.374   6.863  13.980
19333SOL    HW159896   0.409   6.870  13.891
19333SOL    HW259897   0.433   6.916  14.033
19334SOL     OW59898  13.506   7.399   4.006
19334SOL    HW159899  13.454   7.327   3.969
19334SOL    HW259900  13.520   7.374   4.097
19335SOL     OW59901   6.310   8.987   8.151
19335SOL    HW159902   6.349   9.054   8.095
19335SOL    HW259903   6.233   8.958   8.103
19336SOL     OW59904   5.600  13.405  13.293
19336SOL    HW159905   5.555  13.488  13.279
19336SOL    HW259906   5.618  13.403  13.387
19337SOL     OW59907   5.615   7.503   7.955
19337SOL    HW159908   5.613   7.599   7.957
19337SOL    HW259909   5.694   7.482   7.905
19338SOL     OW59910   6.811   5.779   5.203
19338SOL    HW159911   6.863   5.765   5.282
19338SOL    HW259912   6.866   5.836   5.149
19339SOL     OW59913   4.119  10.839  14.635
19339SOL    HW159914   4.078  10.859  14.719
19339SOL    HW259915   4.102  10.916  14.581
19340SOL     OW59916   3.475   0.681  12.009
19340SOL    HW159917   3.530   0.759  12.019
19340SOL    HW259918   3.536   0.607  12.013
19341SOL     OW59919  11.743   8.712   4.723
19341SOL    HW159920  11.741   8.803   4.754
19341SOL    HW259921  11.790   8.665   4.792
19342SOL     OW59922   4.861  11.820   8.758
19342SOL    HW159923   4.823  11.811   8.845
19342SOL    HW259924   4.956  11.816   8.772
19343SOL     OW59925   0.341   5.654   6.774
19343SOL    HW159926   0.257   5.610   6.760
19343SOL    HW259927   0.407   5.591   6.745
19344SOL     OW59928  10.215   2.836  14.259
19344SOL    HW159929  10.147   2.784  14.217
19344SOL    HW259930  10.172   2.877  14.334
19345SOL     OW59931   2.143  11.970   5.669
19345SOL    HW159932   2.159  11.998   5.759
19345SOL    HW259933   2.153  12.050   5.617
19346SOL     OW59934   7.485   8.927   0.202
19346SOL    HW159935   7.512   8.836   0.187
19346SOL    HW259936   7.405   8.919   0.255
19347SOL     OW59937   5.264   1.209  13.389
19347SOL    HW159938   5.217   1.200  13.306
19347SOL    HW259939   5.356   1.221  13.363
19348SOL     OW59940  11.878   6.615   7.680
19348SOL    HW159941  11.894   6.675   7.753
19348SOL    HW259942  11.917   6.532   7.708
19349SOL     OW59943   9.876  11.549   8.745
19349SOL    HW159944   9.858  11.593   8.828
19349SOL    HW259945   9.962  11.508   8.758
19350SOL     OW59946   4.433   9.825   0.370
19350SOL    HW159947   4.396   9.771   0.441
19350SOL    HW259948   4.478   9.762   0.314
19351SOL     OW59949   0.949   4.860  13.417
19351SOL    HW159950   0.998   4.801  13.360
19351SOL    HW259951   1.016   4.918  13.454
19352SOL     OW59952   8.556   3.218   4.012
19352SOL    HW159953   8.617   3.291   4.001
19352SOL    HW259954   8.501   3.243   4.087
19353SOL     OW59955  11.393   2.263  12.053
19353SOL    HW159956  11.336   2.291  12.124
19353SOL    HW259957  11.408   2.170  12.070
19354SOL     OW59958   3.215  14.397   2.735
19354SOL    HW159959   3.221  14.326   2.798
19354SOL    HW259960   3.278  14.462   2.766
19355SOL     OW59961   6.653   7.859   6.896
19355SOL    HW159962   6.605   7.784   6.929
19355SOL    HW259963   6.743   7.828   6.886
19356SOL     OW59964  10.598  12.951   7.315
19356SOL    HW159965  10.652  12.905   7.379
19356SOL    HW259966  10.661  12.999   7.261
19357SOL     OW59967  11.467   3.624   4.746
19357SOL    HW159968  11.391   3.572   4.771
19357SOL    HW259969  11.456   3.638   4.652
19358SOL     OW59970  10.606   3.015   9.817
19358SOL    HW159971  10.645   3.013   9.730
19358SOL    HW259972  10.681   3.017   9.877
19359SOL     OW59973   6.962   7.361  10.337
19359SOL    HW159974   6.933   7.312  10.260
19359SOL    HW259975   6.989   7.294  10.400
19360SOL     OW59976  12.652   5.250   9.693
19360SOL    HW159977  12.647   5.226   9.601
19360SOL    HW259978  12.711   5.185   9.732
19361SOL     OW59979   9.119  11.566   2.179
19361SOL    HW159980   9.030  11.586   2.208
19361SOL    HW259981   9.143  11.487   2.227
19362SOL     OW59982   2.617   4.265  10.908
19362SOL    HW159983   2.610   4.255  11.003
19362SOL    HW259984   2.537   4.227  10.873
19363SOL     OW59985  13.525   2.059   9.179
19363SOL    HW159986  13.573   2.077   9.260
19363SOL    HW259987  13.580   2.094   9.109
19364SOL     OW59988  14.785   3.593   9.341
19364SOL    HW159989  14.878   3.613   9.350
19364SOL    HW259990  14.780   3.538   9.262
19365SOL     OW59991   8.704  10.965   4.190
19365SOL    HW159992   8.676  11.039   4.243
19365SOL    HW259993   8.704  10.999   4.100
19366SOL     OW59994   1.337   9.414  13.607
19366SOL    HW159995   1.310   9.339  13.660
19366SOL    HW259996   1.269   9.480  13.623
19367SOL     OW59997  10.782   0.132   0.984
19367SOL    HW159998  10.751   0.084   0.907
19367SOL    HW259999  10.766   0.072   1.057
19368SOL     OW60000   7.074   6.922  10.672
19368SOL    HW160001   6.988   6.944  10.708
19368SOL    HW260002   7.127   6.902  10.749
19369SOL     OW60003   9.426  12.934   7.456
19369SOL    HW160004   9.342  12.892   7.471
19369SOL    HW260005   9.487  12.862   7.442
19370SOL     OW60006  11.261   8.147   6.515
19370SOL    HW160007  11.220   8.080   6.460
19370SOL    HW260008  11.346   8.112   6.539
19371SOL     OW60009  11.109   1.795   1.985
19371SOL    HW160010  11.110   1.824   2.076
19371SOL    HW260011  11.182   1.733   1.979
19372SOL     OW60012   2.636   4.120  10.454
19372SOL    HW160013   2.675   4.153  10.373
19372SOL    HW260014   2.686   4.161  10.524
19373SOL     OW60015  11.139  11.671  13.875
19373SOL    HW160016  11.090  11.724  13.938
19373SOL    HW260017  11.162  11.592  13.923
19374SOL     OW60018  10.693   2.988  10.958
19374SOL    HW160019  10.714   3.081  10.971
19374SOL    HW260020  10.668   2.982  10.866
19375SOL     OW60021   6.374   3.680  11.912
19375SOL    HW160022   6.400   3.592  11.940
19375SOL    HW260023   6.452   3.716  11.870
19376SOL     OW60024   8.813   4.084   2.675
19376SOL    HW160025   8.760   4.020   2.722
19376SOL    HW260026   8.812   4.162   2.731
19377SOL     OW60027   7.451   9.478   7.354
19377SOL    HW160028   7.531   9.481   7.406
19377SOL    HW260029   7.381   9.475   7.418
19378SOL     OW60030  14.404   8.430   9.204
19378SOL    HW160031  14.361   8.345   9.188
19378SOL    HW260032  14.384   8.482   9.126
19379SOL     OW60033   5.064   7.581   7.741
19379SOL    HW160034   5.075   7.525   7.818
19379SOL    HW260035   5.143   7.566   7.689
19380SOL     OW60036   6.402   2.678   5.176
19380SOL    HW160037   6.493   2.705   5.180
19380SOL    HW260038   6.385   2.639   5.261
19381SOL     OW60039   1.039  11.396   4.041
19381SOL    HW160040   0.957  11.349   4.055
19381SOL    HW260041   1.100  11.358   4.104
19382SOL     OW60042   1.299   9.304   0.569
19382SOL    HW160043   1.335   9.224   0.609
19382SOL    HW260044   1.343   9.375   0.616
19383SOL     OW60045   5.939   6.880   2.414
19383SOL    HW160046   5.989   6.950   2.457
19383SOL    HW260047   5.848   6.904   2.429
19384SOL     OW60048  13.052  10.871   8.398
19384SOL    HW160049  13.143  10.890   8.420
19384SOL    HW260050  13.003  10.899   8.475
19385SOL     OW60051  12.482   3.109  11.621
19385SOL    HW160052  12.434   3.191  11.632
19385SOL    HW260053  12.573   3.135  11.614
19386SOL     OW60054   5.478   3.953   3.934
19386SOL    HW160055   5.526   4.035   3.950
19386SOL    HW260056   5.518   3.890   3.993
19387SOL     OW60057   9.661  11.878  12.217
19387SOL    HW160058   9.598  11.811  12.244
19387SOL    HW260059   9.731  11.830  12.174
19388SOL     OW60060  11.479   8.488   9.128
19388SOL    HW160061  11.410   8.493   9.062
19388SOL    HW260062  11.455   8.555   9.193
19389SOL     OW60063  13.472   3.859  11.566
19389SOL    HW160064  13.542   3.903  11.517
19389SOL    HW260065  13.455   3.917  11.640
19390SOL     OW60066   3.251  12.153   3.634
19390SOL    HW160067   3.249  12.137   3.540
19390SOL    HW260068   3.334  12.200   3.648
19391SOL     OW60069   7.723   6.298  11.509
19391SOL    HW160070   7.792   6.238  11.482
19391SOL    HW260071   7.767   6.383  11.520
19392SOL     OW60072  14.776  12.693  12.347
19392SOL    HW160073  14.772  12.690  12.252
19392SOL    HW260074  14.691  12.729  12.374
19393SOL     OW60075  13.169   2.715   9.160
19393SOL    HW160076  13.195   2.786   9.101
19393SOL    HW260077  13.223   2.640   9.134
19394SOL     OW60078   3.942   1.072   5.101
19394SOL    HW160079   4.031   1.102   5.087
19394SOL    HW260080   3.888   1.152   5.094
19395SOL     OW60081   5.929   8.999   7.867
19395SOL    HW160082   5.996   8.966   7.927
19395SOL    HW260083   5.891   8.921   7.828
19396SOL     OW60084   7.155   8.961   9.366
19396SOL    HW160085   7.060   8.972   9.378
19396SOL    HW260086   7.169   8.866   9.371
19397SOL     OW60087   9.683   4.471  14.258
19397SOL    HW160088   9.730   4.550  14.230
19397SOL    HW260089   9.590   4.497  14.256
19398SOL     OW60090   9.851   0.571   2.367
19398SOL    HW160091   9.926   0.541   2.315
19398SOL    HW260092   9.775   0.555   2.311
19399SOL     OW60093   4.191  10.825  10.396
19399SOL    HW160094   4.247  10.847  10.471
19399SOL    HW260095   4.141  10.904  10.379
19400SOL     OW60096  14.375   2.632   0.680
19400SOL    HW160097  14.411   2.558   0.631
19400SOL    HW260098  14.297   2.597   0.724
19401SOL     OW60099   5.828   4.214  13.186
19401SOL    HW160100   5.835   4.139  13.244
19401SOL    HW260101   5.735   4.239  13.190
19402SOL     OW60102   6.386   4.373   7.333
19402SOL    HW160103   6.478   4.363   7.355
19402SOL    HW260104   6.378   4.464   7.303
19403SOL     OW60105   6.558  12.361  13.665
19403SOL    HW160106   6.480  12.417  13.660
19403SOL    HW260107   6.541  12.291  13.602
19404SOL     OW60108   8.640   1.286   1.939
19404SOL    HW160109   8.677   1.360   1.988
19404SOL    HW260110   8.650   1.311   1.847
19405SOL     OW60111  12.446   7.689  12.390
19405SOL    HW160112  12.460   7.679  12.485
19405SOL    HW260113  12.528   7.725  12.358
19406SOL     OW60114   2.972   8.583   0.583
19406SOL    HW160115   2.908   8.516   0.607
19406SOL    HW260116   3.050   8.534   0.557
19407SOL     OW60117   5.527   9.464  12.377
19407SOL    HW160118   5.520   9.369  12.366
19407SOL    HW260119   5.571   9.494  12.298
19408SOL     OW60120  10.245  10.683   8.561
19408SOL    HW160121  10.331  10.724   8.572
19408SOL    HW260122  10.242  10.656   8.470
19409SOL     OW60123  11.193   2.693  14.162
19409SOL    HW160124  11.243   2.775  14.156
19409SOL    HW260125  11.104   2.718  14.139
19410SOL     OW60126  10.075   9.277   8.043
19410SOL    HW160127  10.106   9.204   8.097
19410SOL    HW260128  10.088   9.246   7.953
19411SOL     OW60129   0.649  10.771  10.646
19411SOL    HW160130   0.571  10.761  10.591
19411SOL    HW260131   0.664  10.684  10.682
19412SOL     OW60132   7.565   7.016  13.591
19412SOL    HW160133   7.661   7.008  13.591
19412SOL    HW260134   7.545   7.064  13.511
19413SOL     OW60135   4.758   0.171   5.814
19413SOL    HW160136   4.743   0.257   5.854
19413SOL    HW260137   4.792   0.191   5.727
19414SOL     OW60138   0.188   9.305   9.720
19414SOL    HW160139   0.101   9.314   9.681
19414SOL    HW260140   0.173   9.255   9.801
19415SOL     OW60141   8.995   1.745   7.729
19415SOL    HW160142   8.964   1.833   7.750
19415SOL    HW260143   8.986   1.738   7.634
19416SOL     OW60144  11.786  11.548   4.390
19416SOL    HW160145  11.790  11.642   4.407
19416SOL    HW260146  11.812  11.507   4.472
19417SOL     OW60147   3.744   5.874   5.648
19417SOL    HW160148   3.675   5.941   5.647
19417SOL    HW260149   3.766   5.865   5.741
19418SOL     OW60150   6.498   4.858   0.471
19418SOL    HW160151   6.578   4.813   0.500
19418SOL    HW260152   6.485   4.828   0.381
19419SOL     OW60153   0.705   8.849  10.363
19419SOL    HW160154   0.665   8.935  10.374
19419SOL    HW260155   0.727   8.845  10.269
19420SOL     OW60156  10.145   8.774   4.197
19420SOL    HW160157  10.084   8.706   4.169
19420SOL    HW260158  10.151   8.763   4.292
19421SOL     OW60159   6.929   5.466   6.523
19421SOL    HW160160   6.924   5.421   6.608
19421SOL    HW260161   6.935   5.395   6.459
19422SOL     OW60162  14.613   4.644   5.465
19422SOL    HW160163  14.544   4.696   5.506
19422SOL    HW260164  14.674   4.625   5.535
19423SOL     OW60165   6.329   7.285  10.282
19423SOL    HW160166   6.355   7.284  10.374
19423SOL    HW260167   6.378   7.358  10.244
19424SOL     OW60168   7.458   4.360   6.029
19424SOL    HW160169   7.452   4.310   6.110
19424SOL    HW260170   7.370   4.396   6.016
19425SOL     OW60171   4.405   0.068   4.889
19425SOL    HW160172   4.472   0.020   4.937
19425SOL    HW260173   4.361   0.002   4.835
19426SOL     OW60174   6.786  10.798   7.855
19426SOL    HW160175   6.766  10.706   7.836
19426SOL    HW260176   6.810  10.798   7.948
19427SOL     OW60177  13.041   5.971   6.465
19427SOL    HW160178  13.121   5.919   6.458
19427SOL    HW260179  13.002   5.968   6.377
19428SOL     OW60180  11.597   5.396   3.658
19428SOL    HW160181  11.541   5.328   3.696
19428SOL    HW260182  11.633   5.443   3.733
19429SOL     OW60183   7.446   2.637   1.441
19429SOL    HW160184   7.523   2.692   1.428
19429SOL    HW260185   7.479   2.560   1.488
19430SOL     OW60186  13.580   7.840   7.909
19430SOL    HW160187  13.565   7.752   7.875
19430SOL    HW260188  13.514   7.851   7.977
19431SOL     OW60189  11.913   5.855  12.372
19431SOL    HW160190  11.865   5.774  12.353
19431SOL    HW260191  11.965   5.834  12.450
19432SOL     OW60192  10.534  11.308   7.620
19432SOL    HW160193  10.560  11.260   7.541
19432SOL    HW260194  10.448  11.344   7.598
19433SOL     OW60195   9.528   2.889  13.427
19433SOL    HW160196   9.592   2.872  13.496
19433SOL    HW260197   9.569   2.855  13.348
19434SOL     OW60198  12.594   5.538  10.354
19434SOL    HW160199  12.585   5.517  10.447
19434SOL    HW260200  12.531   5.608  10.338
19435SOL     OW60201  13.041   3.079   7.282
19435SOL    HW160202  12.947   3.064   7.271
19435SOL    HW260203  13.053   3.172   7.262
19436SOL     OW60204   7.279   1.785   9.115
19436SOL    HW160205   7.331   1.800   9.194
19436SOL    HW260206   7.294   1.694   9.092
19437SOL     OW60207   5.499   6.119   9.992
19437SOL    HW160208   5.475   6.136   9.901
19437SOL    HW260209   5.595   6.123   9.992
19438SOL     OW60210   8.460   4.857   9.791
19438SOL    HW160211   8.516   4.909   9.733
19438SOL    HW260212   8.520   4.820   9.855
19439SOL     OW60213  14.784   2.621   3.827
19439SOL    HW160214  14.723   2.606   3.899
19439SOL    HW260215  14.743   2.691   3.775
19440SOL     OW60216   1.601  12.328   9.584
19440SOL    HW160217   1.592  12.247   9.635
19440SOL    HW260218   1.678  12.371   9.622
19441SOL     OW60219   7.327   8.638   2.667
19441SOL    HW160220   7.388   8.581   2.713
19441SOL    HW260221   7.292   8.696   2.734
19442SOL     OW60222   3.736   7.870   5.763
19442SOL    HW160223   3.814   7.884   5.817
19442SOL    HW260224   3.744   7.933   5.692
19443SOL     OW60225   4.698   2.846   1.161
19443SOL    HW160226   4.746   2.834   1.243
19443SOL    HW260227   4.637   2.772   1.158
19444SOL     OW60228  11.231  12.620  11.912
19444SOL    HW160229  11.284  12.603  11.834
19444SOL    HW260230  11.165  12.550  11.911
19445SOL     OW60231  14.571  13.305   3.042
19445SOL    HW160232  14.560  13.242   3.113
19445SOL    HW260233  14.547  13.257   2.963
19446SOL     OW60234   6.074   7.695   6.012
19446SOL    HW160235   6.133   7.753   5.964
19446SOL    HW260236   6.128   7.657   6.081
19447SOL     OW60237  10.420   5.723   7.013
19447SOL    HW160238  10.389   5.724   6.923
19447SOL    HW260239  10.430   5.815   7.037
19448SOL     OW60240   8.504   1.682   5.545
19448SOL    HW160241   8.428   1.631   5.519
19448SOL    HW260242   8.468   1.768   5.568
19449SOL     OW60243   2.817  13.823  11.490
19449SOL    HW160244   2.880  13.845  11.559
19449SOL    HW260245   2.742  13.879  11.506
19450SOL     OW60246   8.142   7.763   4.858
19450SOL    HW160247   8.193   7.777   4.938
19450SOL    HW260248   8.105   7.675   4.868
19451SOL     OW60249   6.814  14.718   0.297
19451SOL    HW160250   6.895  14.745   0.340
19451SOL    HW260251   6.790  14.793   0.242
19452SOL     OW60252  12.287  10.967  14.770
19452SOL    HW160253  12.275  10.957  14.676
19452SOL    HW260254  12.380  10.987  14.780
19453SOL     OW60255   4.846  12.421   2.804
19453SOL    HW160256   4.792  12.343   2.795
19453SOL    HW260257   4.783  12.494   2.806
19454SOL     OW60258   0.334  13.824   0.172
19454SOL    HW160259   0.327  13.842   0.078
19454SOL    HW260260   0.281  13.745   0.185
19455SOL     OW60261  13.306   1.911   6.237
19455SOL    HW160262  13.379   1.955   6.194
19455SOL    HW260263  13.228   1.943   6.191
19456SOL     OW60264  10.441   7.447   3.895
19456SOL    HW160265  10.390   7.399   3.830
19456SOL    HW260266  10.384   7.518   3.924
19457SOL     OW60267   2.515   0.717   1.054
19457SOL    HW160268   2.572   0.681   0.985
19457SOL    HW260269   2.524   0.655   1.127
19458SOL     OW60270  14.779  14.722   9.740
19458SOL    HW160271  14.698  14.773   9.750
19458SOL    HW260272  14.849  14.785   9.753
19459SOL     OW60273   3.408  13.282  11.976
19459SOL    HW160274   3.375  13.280  11.886
19459SOL    HW260275   3.502  13.296  11.967
19460SOL     OW60276   6.978   8.750   7.148
19460SOL    HW160277   7.031   8.809   7.094
19460SOL    HW260278   7.020   8.753   7.234
19461SOL     OW60279   0.901  10.808   5.944
19461SOL    HW160280   0.906  10.787   5.851
19461SOL    HW260281   0.848  10.888   5.948
19462SOL     OW60282   9.323   3.960   0.209
19462SOL    HW160283   9.330   3.957   0.304
19462SOL    HW260284   9.261   4.030   0.191
19463SOL     OW60285   7.726   3.678   3.283
19463SOL    HW160286   7.701   3.770   3.289
19463SOL    HW260287   7.714   3.644   3.372
19464SOL     OW60288  13.950  11.701   8.742
19464SOL    HW160289  13.937  11.606   8.753
19464SOL    HW260290  14.009  11.708   8.667
19465SOL     OW60291   9.715  12.105   9.195
19465SOL    HW160292   9.658  12.172   9.234
19465SOL    HW260293   9.728  12.041   9.265
19466SOL     OW60294   2.298  10.214   1.175
19466SOL    HW160295   2.340  10.300   1.181
19466SOL    HW260296   2.369  10.151   1.189
19467SOL     OW60297  14.527   6.845  13.701
19467SOL    HW160298  14.541   6.879  13.613
19467SOL    HW260299  14.605   6.872  13.750
19468SOL     OW60300  14.207  13.719   8.698
19468SOL    HW160301  14.146  13.777   8.744
19468SOL    HW260302  14.151  13.654   8.656
19469SOL     OW60303   3.118  11.680   6.975
19469SOL    HW160304   3.141  11.611   7.037
19469SOL    HW260305   3.048  11.642   6.922
19470SOL     OW60306  13.372  14.515  14.412
19470SOL    HW160307  13.320  14.550  14.484
19470SOL    HW260308  13.390  14.425  14.437
19471SOL     OW60309   9.258   7.781   1.873
19471SOL    HW160310   9.162   7.782   1.875
19471SOL    HW260311   9.281   7.817   1.787
19472SOL     OW60312   1.932   2.286  14.023
19472SOL    HW160313   1.927   2.287  13.928
19472SOL    HW260314   1.976   2.204  14.044
19473SOL     OW60315   9.577   5.936  10.683
19473SOL    HW160316   9.533   5.855  10.655
19473SOL    HW260317   9.635   5.957  10.610
19474SOL     OW60318  10.490  12.938  13.411
19474SOL    HW160319  10.440  12.911  13.488
19474SOL    HW260320  10.441  12.902  13.337
19475SOL     OW60321   7.958   6.448   5.306
19475SOL    HW160322   7.947   6.466   5.399
19475SOL    HW260323   7.890   6.385   5.284
19476SOL     OW60324   9.482   4.060   9.382
19476SOL    HW160325   9.432   4.134   9.349
19476SOL    HW260326   9.567   4.067   9.339
19477SOL     OW60327   7.541   2.493  14.512
19477SOL    HW160328   7.591   2.478  14.592
19477SOL    HW260329   7.562   2.582  14.487
19478SOL     OW60330   8.599  10.375  14.714
19478SOL    HW160331   8.673  10.367  14.654
19478SOL    HW260332   8.545  10.445  14.677
19479SOL     OW60333   4.926   3.173   5.256
19479SOL    HW160334   4.839   3.179   5.217
19479SOL    HW260335   4.986   3.190   5.183
19480SOL     OW60336  10.690   5.517  12.974
19480SOL    HW160337  10.760   5.486  13.031
19480SOL    HW260338  10.628   5.561  13.033
19481SOL     OW60339  13.825   2.269   3.485
19481SOL    HW160340  13.739   2.254   3.443
19481SOL    HW260341  13.860   2.181   3.499
19482SOL     OW60342  11.218  11.107   4.812
19482SOL    HW160343  11.188  11.091   4.901
19482SOL    HW260344  11.313  11.113   4.819
19483SOL     OW60345  12.940  13.041   7.773
19483SOL    HW160346  12.869  12.985   7.742
19483SOL    HW260347  12.950  13.107   7.704
19484SOL     OW60348   3.295   2.960   9.007
19484SOL    HW160349   3.238   3.015   9.061
19484SOL    HW260350   3.261   2.969   8.918
19485SOL     OW60351   4.993  10.347  11.922
19485SOL    HW160352   5.085  10.344  11.894
19485SOL    HW260353   4.987  10.283  11.993
19486SOL     OW60354   8.162  10.947   7.137
19486SOL    HW160355   8.137  10.862   7.173
19486SOL    HW260356   8.101  10.962   7.064
19487SOL     OW60357   9.912   9.830   9.394
19487SOL    HW160358   9.855   9.816   9.469
19487SOL    HW260359   9.867   9.789   9.320
19488SOL     OW60360   5.306  13.943   5.366
19488SOL    HW160361   5.368  13.892   5.313
19488SOL    HW260362   5.285  13.884   5.439
19489SOL     OW60363  14.267   9.860   3.666
19489SOL    HW160364  14.225   9.774   3.668
19489SOL    HW260365  14.350   9.847   3.713
19490SOL     OW60366  10.272   6.750   2.172
19490SOL    HW160367  10.247   6.685   2.106
19490SOL    HW260368  10.189   6.779   2.209
19491SOL     OW60369   4.877   6.037  12.757
19491SOL    HW160370   4.822   6.067  12.829
19491SOL    HW260371   4.928   6.114  12.732
19492SOL     OW60372   0.134   1.145   7.557
19492SOL    HW160373   0.188   1.220   7.584
19492SOL    HW260374   0.082   1.179   7.484
19493SOL     OW60375  13.939   0.513   6.250
19493SOL    HW160376  13.890   0.594   6.236
19493SOL    HW260377  14.001   0.534   6.320
19494SOL     OW60378   8.165   4.090   6.424
19494SOL    HW160379   8.129   4.095   6.513
19494SOL    HW260380   8.250   4.048   6.434
19495SOL     OW60381   8.469   1.338   3.265
19495SOL    HW160382   8.394   1.396   3.266
19495SOL    HW260383   8.460   1.288   3.184
19496SOL     OW60384   6.770  12.384   6.257
19496SOL    HW160385   6.864  12.395   6.243
19496SOL    HW260386   6.753  12.431   6.339
19497SOL     OW60387   2.771   1.651  11.658
19497SOL    HW160388   2.826   1.588  11.612
19497SOL    HW260389   2.807   1.654  11.747
19498SOL     OW60390   7.895   4.944   3.454
19498SOL    HW160391   7.880   5.022   3.400
19498SOL    HW260392   7.850   4.962   3.536
19499SOL     OW60393   2.740  11.615  13.649
19499SOL    HW160394   2.784  11.548  13.596
19499SOL    HW260395   2.737  11.578  13.737
19500SOL     OW60396  14.196   7.741   7.758
19500SOL    HW160397  14.113   7.789   7.764
19500SOL    HW260398  14.256   7.803   7.717
19501SOL     OW60399   0.220   2.695  13.704
19501SOL    HW160400   0.285   2.639  13.662
19501SOL    HW260401   0.136   2.663  13.672
19502SOL     OW60402   9.301  13.627   3.749
19502SOL    HW160403   9.261  13.621   3.662
19502SOL    HW260404   9.241  13.681   3.800
19503SOL     OW60405   7.361   6.414   4.193
19503SOL    HW160406   7.399   6.355   4.257
19503SOL    HW260407   7.314   6.479   4.244
19504SOL     OW60408   0.587  13.214  11.725
19504SOL    HW160409   0.585  13.306  11.752
19504SOL    HW260410   0.568  13.165  11.805
19505SOL     OW60411   1.352   9.320  12.206
19505SOL    HW160412   1.363   9.255  12.275
19505SOL    HW260413   1.324   9.270  12.129
19506SOL     OW60414   4.492   5.297   3.901
19506SOL    HW160415   4.556   5.268   3.836
19506SOL    HW260416   4.407   5.272   3.864
19507SOL     OW60417   3.530   6.739   1.391
19507SOL    HW160418   3.602   6.685   1.422
19507SOL    HW260419   3.505   6.791   1.467
19508SOL     OW60420   4.187  11.150  14.093
19508SOL    HW160421   4.273  11.177  14.063
19508SOL    HW260422   4.204  11.101  14.174
19509SOL     OW60423   5.048   7.048  13.592
19509SOL    HW160424   4.997   6.997  13.530
19509SOL    HW260425   5.119   6.989  13.618
19510SOL     OW60426   8.206  11.817   2.326
19510SOL    HW160427   8.238  11.907   2.318
19510SOL    HW260428   8.226  11.777   2.241
19511SOL     OW60429  12.048   5.057   8.080
19511SOL    HW160430  12.092   5.137   8.050
19511SOL    HW260431  12.006   5.022   8.002
19512SOL     OW60432  10.024   4.124   0.624
19512SOL    HW160433  10.026   4.180   0.702
19512SOL    HW260434   9.935   4.133   0.590
19513SOL     OW60435   6.346  10.979   0.231
19513SOL    HW160436   6.401  11.012   0.160
19513SOL    HW260437   6.393  11.002   0.311
19514SOL     OW60438   4.369  12.173   5.850
19514SOL    HW160439   4.356  12.261   5.815
19514SOL    HW260440   4.392  12.187   5.942
19515SOL     OW60441   5.877   8.272   7.778
19515SOL    HW160442   5.851   8.180   7.787
19515SOL    HW260443   5.895   8.283   7.684
19516SOL     OW60444   0.528   3.395   9.980
19516SOL    HW160445   0.442   3.412  10.020
19516SOL    HW260446   0.521   3.431   9.892
19517SOL     OW60447  14.297  14.803   8.360
19517SOL    HW160448  14.254  14.870   8.307
19517SOL    HW260449  14.376  14.845   8.392
19518SOL     OW60450   3.330   1.403   0.181
19518SOL    HW160451   3.404   1.436   0.232
19518SOL    HW260452   3.266   1.474   0.184
19519SOL     OW60453   0.601   9.108   5.984
19519SOL    HW160454   0.628   9.199   5.988
19519SOL    HW260455   0.587   9.092   5.890
19520SOL     OW60456  12.040   0.371   5.645
19520SOL    HW160457  12.132   0.399   5.650
19520SOL    HW260458  12.022   0.330   5.729
19521SOL     OW60459  14.612   8.056  11.358
19521SOL    HW160460  14.681   7.999  11.323
19521SOL    HW260461  14.645   8.145  11.342
19522SOL     OW60462  12.138  14.400   8.488
19522SOL    HW160463  12.169  14.337   8.553
19522SOL    HW260464  12.205  14.398   8.419
19523SOL     OW60465   1.732   8.411   2.306
19523SOL    HW160466   1.805   8.473   2.304
19523SOL    HW260467   1.768   8.331   2.266
19524SOL     OW60468   8.863   3.961   4.029
19524SOL    HW160469   8.956   3.941   4.017
19524SOL    HW260470   8.852   4.048   3.989
19525SOL     OW60471   6.951   9.853   8.974
19525SOL    HW160472   6.976   9.763   8.995
19525SOL    HW260473   6.861   9.845   8.941
19526SOL     OW60474   9.815  14.656  11.186
19526SOL    HW160475   9.799  14.751  11.192
19526SOL    HW260476   9.751  14.617  11.245
19527SOL     OW60477  10.728   5.308   3.726
19527SOL    HW160478  10.662   5.333   3.792
19527SOL    HW260479  10.809   5.346   3.758
19528SOL     OW60480   2.079   0.865   9.926
19528SOL    HW160481   2.029   0.877   9.845
19528SOL    HW260482   2.019   0.821   9.985
19529SOL     OW60483   5.782   1.735  10.847
19529SOL    HW160484   5.819   1.684  10.775
19529SOL    HW260485   5.703   1.775  10.810
19530SOL     OW60486   4.832   0.644   1.352
19530SOL    HW160487   4.889   0.568   1.339
19530SOL    HW260488   4.867   0.687   1.430
19531SOL     OW60489   9.187   6.493   6.279
19531SOL    HW160490   9.282   6.478   6.276
19531SOL    HW260491   9.179   6.588   6.294
19532SOL     OW60492   3.085  11.583  13.785
19532SOL    HW160493   3.072  11.653  13.721
19532SOL    HW260494   3.001  11.574  13.829
19533SOL     OW60495   5.772   5.845   7.089
19533SOL    HW160496   5.843   5.824   7.150
19533SOL    HW260497   5.724   5.915   7.132
19534SOL     OW60498   2.356   4.570   3.124
19534SOL    HW160499   2.315   4.483   3.115
19534SOL    HW260500   2.450   4.553   3.117
19535SOL     OW60501   0.534   3.468   2.850
19535SOL    HW160502   0.504   3.491   2.762
19535SOL    HW260503   0.526   3.372   2.854
19536SOL     OW60504   8.287  12.122  14.240
19536SOL    HW160505   8.321  12.113  14.151
19536SOL    HW260506   8.352  12.176  14.286
19537SOL     OW60507  14.043   7.760   6.003
19537SOL    HW160508  14.139   7.760   5.997
19537SOL    HW260509  14.025   7.748   6.096
19538SOL     OW60510   5.238   7.596   6.218
19538SOL    HW160511   5.195   7.523   6.264
19538SOL    HW260512   5.205   7.591   6.129
19539SOL     OW60513   8.032  14.109   4.836
19539SOL    HW160514   7.946  14.085   4.802
19539SOL    HW260515   8.022  14.199   4.866
19540SOL     OW60516   8.987  11.642   6.954
19540SOL    HW160517   9.013  11.707   6.889
19540SOL    HW260518   8.892  11.650   6.960
19541SOL     OW60519   5.745   5.795   0.205
19541SOL    HW160520   5.797   5.866   0.169
19541SOL    HW260521   5.675   5.781   0.142
19542SOL     OW60522  12.080  13.814   3.066
19542SOL    HW160523  12.115  13.741   3.016
19542SOL    HW260524  11.986  13.815   3.045
19543SOL     OW60525   9.046   3.758   0.535
19543SOL    HW160526   9.039   3.794   0.624
19543SOL    HW260527   9.127   3.795   0.500
19544SOL     OW60528   5.733   0.324  13.397
19544SOL    HW160529   5.664   0.301  13.335
19544SOL    HW260530   5.686   0.348  13.477
19545SOL     OW60531   1.202   0.921  10.654
19545SOL    HW160532   1.112   0.887  10.646
19545SOL    HW260533   1.252   0.847  10.689
19546SOL     OW60534   5.153   2.588  14.455
19546SOL    HW160535   5.180   2.543  14.535
19546SOL    HW260536   5.065   2.553  14.437
19547SOL     OW60537   4.045   9.484  11.059
19547SOL    HW160538   4.059   9.546  11.130
19547SOL    HW260539   4.062   9.398  11.099
19548SOL     OW60540  14.200   0.060   4.202
19548SOL    HW160541  14.157   0.145   4.213
19548SOL    HW260542  14.242   0.044   4.287
19549SOL     OW60543   9.552  10.528  12.403
19549SOL    HW160544   9.646  10.522  12.393
19549SOL    HW260545   9.516  10.489  12.323
19550SOL     OW60546  11.721   2.304  10.185
19550SOL    HW160547  11.815   2.289  10.193
19550SOL    HW260548  11.692   2.242  10.118
19551SOL     OW60549   6.671   7.441  13.566
19551SOL    HW160550   6.753   7.487  13.551
19551SOL    HW260551   6.667   7.374  13.497
19552SOL     OW60552   3.766   2.094   9.158
19552SOL    HW160553   3.788   2.005   9.185
19552SOL    HW260554   3.751   2.088   9.064
19553SOL     OW60555   9.999  12.490   1.318
19553SOL    HW160556  10.070  12.458   1.262
19553SOL    HW260557  10.043  12.532   1.391
19554SOL     OW60558   9.938   5.516   1.276
19554SOL    HW160559   9.925   5.538   1.368
19554SOL    HW260560   9.896   5.586   1.228
19555SOL     OW60561   6.557  12.844   6.637
19555SOL    HW160562   6.617  12.827   6.565
19555SOL    HW260563   6.478  12.877   6.595
19556SOL     OW60564   9.743  13.397   6.474
19556SOL    HW160565   9.804  13.469   6.491
19556SOL    HW260566   9.683  13.431   6.408
19557SOL     OW60567  13.528   2.635  11.195
19557SOL    HW160568  13.570   2.552  11.218
19557SOL    HW260569  13.536   2.688  11.274
19558SOL     OW60570   8.223   0.897   3.858
19558SOL    HW160571   8.238   0.853   3.941
19558SOL    HW260572   8.264   0.841   3.793
19559SOL     OW60573   8.730  14.091   3.637
19559SOL    HW160574   8.789  14.022   3.666
19559SOL    HW260575   8.753  14.106   3.545
19560SOL     OW60576   7.805   9.473   1.374
19560SOL    HW160577   7.762   9.465   1.289
19560SOL    HW260578   7.870   9.542   1.361
19561SOL     OW60579   0.986   0.165   1.020
19561SOL    HW160580   1.009   0.142   0.930
19561SOL    HW260581   1.031   0.248   1.036
19562SOL     OW60582   5.669   8.245  12.406
19562SOL    HW160583   5.577   8.233  12.431
19562SOL    HW260584   5.669   8.238  12.311
19563SOL     OW60585   0.500  11.140   0.116
19563SOL    HW160586   0.406  11.124   0.116
19563SOL    HW260587   0.538  11.055   0.138
19564SOL     OW60588   6.175   2.099   1.493
19564SOL    HW160589   6.249   2.055   1.450
19564SOL    HW260590   6.151   2.040   1.564
19565SOL     OW60591   2.360   3.521  14.733
19565SOL    HW160592   2.413   3.566  14.799
19565SOL    HW260593   2.423   3.491  14.668
19566SOL     OW60594   5.528  13.893  10.581
19566SOL    HW160595   5.527  13.919  10.673
19566SOL    HW260596   5.474  13.959  10.537
19567SOL     OW60597   4.575   2.782   8.360
19567SOL    HW160598   4.595   2.733   8.440
19567SOL    HW260599   4.581   2.718   8.290
19568SOL     OW60600   6.058   4.097   6.762
19568SOL    HW160601   6.091   4.069   6.677
19568SOL    HW260602   6.105   4.042   6.825
19569SOL     OW60603   2.130  10.246   9.227
19569SOL    HW160604   2.111  10.339   9.239
19569SOL    HW260605   2.152  10.215   9.314
19570SOL     OW60606   8.194  12.402   8.792
19570SOL    HW160607   8.267  12.418   8.852
19570SOL    HW260608   8.126  12.463   8.821
19571SOL     OW60609  10.162   9.705   4.505
19571SOL    HW160610  10.139   9.694   4.413
19571SOL    HW260611  10.078   9.719   4.549
19572SOL     OW60612  13.231  12.575  14.396
19572SOL    HW160613  13.225  12.483  14.371
19572SOL    HW260614  13.296  12.577  14.465
19573SOL     OW60615   9.508   6.089   3.808
19573SOL    HW160616   9.588   6.141   3.805
19573SOL    HW260617   9.473   6.104   3.896
19574SOL     OW60618  10.216  13.564   1.089
19574SOL    HW160619  10.204  13.469   1.097
19574SOL    HW260620  10.231  13.593   1.178
19575SOL     OW60621   6.268   0.745   1.226
19575SOL    HW160622   6.218   0.759   1.145
19575SOL    HW260623   6.358   0.768   1.202
19576SOL     OW60624   1.739  10.547  12.401
19576SOL    HW160625   1.644  10.545  12.413
19576SOL    HW260626   1.766  10.631  12.437
19577SOL     OW60627   7.490  14.815  10.405
19577SOL    HW160628   7.568  14.773  10.367
19577SOL    HW260629   7.518   0.024  10.424
19578SOL     OW60630   4.247  10.436   3.754
19578SOL    HW160631   4.238  10.525   3.789
19578SOL    HW260632   4.323  10.400   3.800
19579SOL     OW60633   7.614   5.164   9.959
19579SOL    HW160634   7.662   5.206   9.887
19579SOL    HW260635   7.566   5.236  10.001
19580SOL     OW60636   9.825   3.061   1.318
19580SOL    HW160637   9.778   3.029   1.395
19580SOL    HW260638   9.840   2.982   1.265
19581SOL     OW60639  12.295   5.211   8.931
19581SOL    HW160640  12.362   5.280   8.927
19581SOL    HW260641  12.310   5.159   8.852
19582SOL     OW60642   5.348   0.680   3.225
19582SOL    HW160643   5.345   0.709   3.134
19582SOL    HW260644   5.327   0.586   3.221
19583SOL     OW60645  14.350   8.887   2.735
19583SOL    HW160646  14.342   8.797   2.768
19583SOL    HW260647  14.371   8.876   2.642
19584SOL     OW60648  11.778   2.700   2.539
19584SOL    HW160649  11.761   2.718   2.632
19584SOL    HW260650  11.762   2.783   2.495
19585SOL     OW60651   7.495   4.975   8.175
19585SOL    HW160652   7.578   5.013   8.202
19585SOL    HW260653   7.430   5.043   8.194
19586SOL     OW60654  10.423   5.688   7.330
19586SOL    HW160655  10.466   5.626   7.272
19586SOL    HW260656  10.338   5.647   7.350
19587SOL     OW60657   6.064  13.695  10.094
19587SOL    HW160658   6.001  13.736  10.152
19587SOL    HW260659   6.018  13.619  10.058
19588SOL     OW60660  13.523  14.723   8.030
19588SOL    HW160661  13.486  14.799   7.985
19588SOL    HW260662  13.474  14.718   8.112
19589SOL     OW60663   6.227   5.381   8.628
19589SOL    HW160664   6.156   5.407   8.688
19589SOL    HW260665   6.210   5.288   8.611
19590SOL     OW60666   4.331   4.257   6.969
19590SOL    HW160667   4.304   4.270   7.060
19590SOL    HW260668   4.324   4.344   6.929
19591SOL     OW60669  11.899  12.036  12.677
19591SOL    HW160670  11.938  12.070  12.758
19591SOL    HW260671  11.865  12.114  12.632
19592SOL     OW60672  13.779   1.203   8.322
19592SOL    HW160673  13.860   1.188   8.273
19592SOL    HW260674  13.721   1.247   8.261
19593SOL     OW60675   9.879  10.603   0.671
19593SOL    HW160676   9.820  10.617   0.596
19593SOL    HW260677   9.846  10.524   0.713
19594SOL     OW60678   1.687   5.861   7.542
19594SOL    HW160679   1.620   5.857   7.474
19594SOL    HW260680   1.744   5.786   7.524
19595SOL     OW60681   1.731   1.557   5.169
19595SOL    HW160682   1.764   1.517   5.250
19595SOL    HW260683   1.768   1.504   5.099
19596SOL     OW60684   3.231   7.619  10.208
19596SOL    HW160685   3.245   7.571  10.290
19596SOL    HW260686   3.308   7.599  10.155
19597SOL     OW60687  12.026   1.169   4.412
19597SOL    HW160688  12.079   1.162   4.333
19597SOL    HW260689  12.046   1.089   4.461
19598SOL     OW60690   7.102  13.347  13.688
19598SOL    HW160691   7.119  13.434  13.724
19598SOL    HW260692   7.036  13.310  13.746
19599SOL     OW60693  14.035   1.214  12.467
19599SOL    HW160694  14.024   1.219  12.372
19599SOL    HW260695  14.130   1.210  12.481
19600SOL     OW60696  13.097   7.763   8.315
19600SOL    HW160697  13.068   7.683   8.271
19600SOL    HW260698  13.157   7.804   8.253
19601SOL     OW60699   1.980   5.138   3.053
19601SOL    HW160700   1.988   5.228   3.020
19601SOL    HW260701   1.886   5.126   3.065
19602SOL     OW60702   0.565   3.887   2.088
19602SOL    HW160703   0.608   3.968   2.115
19602SOL    HW260704   0.586   3.878   1.996
19603SOL     OW60705   6.958   8.679   9.598
19603SOL    HW160706   7.022   8.683   9.669
19603SOL    HW260707   7.010   8.665   9.519
19604SOL     OW60708   0.126   6.730   6.968
19604SOL    HW160709   0.193   6.720   7.036
19604SOL    HW260710   0.156   6.674   6.897
19605SOL     OW60711  10.013   8.693   7.366
19605SOL    HW160712   9.946   8.645   7.318
19605SOL    HW260713   9.977   8.781   7.376
19606SOL     OW60714  13.974  11.749  10.441
19606SOL    HW160715  13.982  11.785  10.352
19606SOL    HW260716  13.944  11.823  10.494
19607SOL     OW60717   1.306   2.366   9.130
19607SOL    HW160718   1.227   2.366   9.184
19607SOL    HW260719   1.345   2.280   9.144
19608SOL     OW60720   6.205   9.357   7.235
19608SOL    HW160721   6.199   9.392   7.146
19608SOL    HW260722   6.160   9.422   7.289
19609SOL     OW60723   4.393   1.912  12.163
19609SOL    HW160724   4.343   1.985  12.199
19609SOL    HW260725   4.484   1.931  12.185
19610SOL     OW60726   9.676  12.099   6.145
19610SOL    HW160727   9.747  12.162   6.127
19610SOL    HW260728   9.720  12.014   6.147
19611SOL     OW60729   2.617   5.344   7.204
19611SOL    HW160730   2.529   5.329   7.170
19611SOL    HW260731   2.667   5.375   7.129
19612SOL     OW60732   0.330   6.402   3.630
19612SOL    HW160733   0.386   6.478   3.648
19612SOL    HW260734   0.330   6.352   3.711
19613SOL     OW60735  13.484  14.538  12.236
19613SOL    HW160736  13.527  14.549  12.151
19613SOL    HW260737  13.391  14.532  12.216
19614SOL     OW60738   9.848  10.489   5.284
19614SOL    HW160739   9.808  10.550   5.222
19614SOL    HW260740   9.931  10.464   5.244
19615SOL     OW60741   6.672   7.698  12.189
19615SOL    HW160742   6.728   7.620  12.189
19615SOL    HW260743   6.593   7.670  12.235
19616SOL     OW60744   3.237   0.598   2.680
19616SOL    HW160745   3.204   0.564   2.764
19616SOL    HW260746   3.328   0.568   2.677
19617SOL     OW60747   9.141  14.560   7.398
19617SOL    HW160748   9.188  14.499   7.341
19617SOL    HW260749   9.068  14.592   7.345
19618SOL     OW60750  10.605   5.082   4.665
19618SOL    HW160751  10.691   5.123   4.657
19618SOL    HW260752  10.554   5.122   4.595
19619SOL     OW60753   0.595   6.502   3.638
19619SOL    HW160754   0.650   6.504   3.559
19619SOL    HW260755   0.588   6.594   3.664
19620SOL     OW60756  10.682   3.202   8.506
19620SOL    HW160757  10.632   3.145   8.564
19620SOL    HW260758  10.748   3.242   8.562
19621SOL     OW60759  13.775  11.195  12.354
19621SOL    HW160760  13.718  11.144  12.411
19621SOL    HW260761  13.781  11.145  12.274
19622SOL     OW60762   9.750   7.627   9.282
19622SOL    HW160763   9.769   7.567   9.210
19622SOL    HW260764   9.703   7.700   9.242
19623SOL     OW60765   7.538  10.440  12.987
19623SOL    HW160766   7.531  10.356  12.942
19623SOL    HW260767   7.612  10.428  13.047
19624SOL     OW60768  14.164   8.193   0.630
19624SOL    HW160769  14.081   8.225   0.593
19624SOL    HW260770  14.145   8.179   0.723
19625SOL     OW60771   0.527   1.961   5.571
19625SOL    HW160772   0.579   1.915   5.505
19625SOL    HW260773   0.436   1.942   5.548
19626SOL     OW60774  13.876   1.431   3.404
19626SOL    HW160775  13.954   1.411   3.353
19626SOL    HW260776  13.803   1.399   3.351
19627SOL     OW60777   7.811  14.236   0.978
19627SOL    HW160778   7.901  14.234   1.009
19627SOL    HW260779   7.791  14.329   0.969
19628SOL     OW60780   0.615  10.039   6.755
19628SOL    HW160781   0.664  10.027   6.674
19628SOL    HW260782   0.586   9.951   6.779
19629SOL     OW60783   5.991   4.361   1.519
19629SOL    HW160784   5.928   4.424   1.553
19629SOL    HW260785   5.991   4.375   1.425
19630SOL     OW60786   6.532  10.252  14.841
19630SOL    HW160787   6.445  10.288  14.858
19630SOL    HW260788   6.575  10.252   0.047
19631SOL     OW60789   5.886  10.865   0.551
19631SOL    HW160790   5.845  10.823   0.475
19631SOL    HW260791   5.948  10.926   0.512
19632SOL     OW60792  14.690  10.361   0.184
19632SOL    HW160793  14.645  10.300   0.242
19632SOL    HW260794  14.752  10.408   0.240
19633SOL     OW60795   2.953   2.264   9.783
19633SOL    HW160796   3.010   2.211   9.728
19633SOL    HW260797   2.998   2.348   9.790
19634SOL     OW60798   0.152  10.979   8.307
19634SOL    HW160799   0.225  11.039   8.326
19634SOL    HW260800   0.194  10.893   8.299
19635SOL     OW60801  11.092  12.398  11.897
19635SOL    HW160802  11.134  12.327  11.849
19635SOL    HW260803  11.003  12.366  11.912
19636SOL     OW60804   5.618  13.167  13.150
19636SOL    HW160805   5.526  13.147  13.134
19636SOL    HW260806   5.616  13.250  13.197
19637SOL     OW60807  12.029  13.586   5.558
19637SOL    HW160808  12.025  13.680   5.540
19637SOL    HW260809  12.111  13.574   5.606
19638SOL     OW60810  10.109  14.131   8.658
19638SOL    HW160811  10.112  14.167   8.569
19638SOL    HW260812  10.080  14.205   8.712
19639SOL     OW60813   3.521   7.084  14.701
19639SOL    HW160814   3.602   7.104  14.747
19639SOL    HW260815   3.550   7.041  14.621
19640SOL     OW60816   1.219  10.846  11.107
19640SOL    HW160817   1.208  10.752  11.121
19640SOL    HW260818   1.309  10.864  11.132
19641SOL     OW60819   3.534   9.971   1.016
19641SOL    HW160820   3.566   9.926   0.938
19641SOL    HW260821   3.595   9.944   1.085
19642SOL     OW60822  13.929   8.549  11.008
19642SOL    HW160823  13.981   8.469  11.002
19642SOL    HW260824  13.868   8.533  11.081
19643SOL     OW60825  12.331  11.291   7.078
19643SOL    HW160826  12.368  11.206   7.099
19643SOL    HW260827  12.289  11.321   7.159
19644SOL     OW60828  10.889   4.012   2.789
19644SOL    HW160829  10.943   4.072   2.841
19644SOL    HW260830  10.932   3.927   2.798
19645SOL     OW60831   2.288   7.156   3.154
19645SOL    HW160832   2.262   7.205   3.075
19645SOL    HW260833   2.383   7.160   3.154
19646SOL     OW60834  11.856   5.790   2.255
19646SOL    HW160835  11.935   5.826   2.214
19646SOL    HW260836  11.878   5.785   2.348
19647SOL     OW60837   5.363  13.613  12.904
19647SOL    HW160838   5.315  13.670  12.965
19647SOL    HW260839   5.295  13.555  12.868
19648SOL     OW60840   5.070   0.679   2.182
19648SOL    HW160841   5.069   0.593   2.224
19648SOL    HW260842   5.031   0.664   2.095
19649SOL     OW60843  14.492   9.566   7.027
19649SOL    HW160844  14.441   9.644   7.004
19649SOL    HW260845  14.541   9.545   6.948
19650SOL     OW60846  13.870   2.142   5.098
19650SOL    HW160847  13.805   2.152   5.168
19650SOL    HW260848  13.822   2.099   5.027
19651SOL     OW60849   8.175  13.543   0.062
19651SOL    HW160850   8.225  13.618   0.096
19651SOL    HW260851   8.219  13.466   0.099
19652SOL     OW60852  13.920   6.391   5.583
19652SOL    HW160853  13.953   6.447   5.653
19652SOL    HW260854  13.828   6.378   5.603
19653SOL     OW60855  13.960  14.162  13.413
19653SOL    HW160856  13.997  14.121  13.334
19653SOL    HW260857  13.918  14.091  13.460
19654SOL     OW60858  12.614   4.238   7.949
19654SOL    HW160859  12.698   4.191   7.944
19654SOL    HW260860  12.580   4.235   7.860
19655SOL     OW60861   8.865   4.168  10.954
19655SOL    HW160862   8.894   4.259  10.952
19655SOL    HW260863   8.795   4.166  11.019
19656SOL     OW60864   2.706  13.291   6.522
19656SOL    HW160865   2.661  13.370   6.493
19656SOL    HW260866   2.796  13.303   6.494
19657SOL     OW60867  12.051   9.498   9.637
19657SOL    HW160868  12.043   9.403   9.645
19657SOL    HW260869  11.989   9.522   9.568
19658SOL     OW60870   7.765   2.263   9.767
19658SOL    HW160871   7.682   2.217   9.755
19658SOL    HW260872   7.749   2.352   9.735
19659SOL     OW60873   3.827   9.411  13.916
19659SOL    HW160874   3.883   9.444  13.846
19659SOL    HW260875   3.738   9.418  13.881
19660SOL     OW60876   9.821  12.613   8.838
19660SOL    HW160877   9.835  12.525   8.803
19660SOL    HW260878   9.730  12.613   8.868
19661SOL     OW60879   8.110   2.290  12.986
19661SOL    HW160880   8.025   2.307  12.945
19661SOL    HW260881   8.138   2.375  13.020
19662SOL     OW60882  14.414   0.744  13.873
19662SOL    HW160883  14.327   0.721  13.839
19662SOL    HW260884  14.475   0.707  13.810
19663SOL     OW60885   9.028   4.645   3.920
19663SOL    HW160886   9.102   4.615   3.868
19663SOL    HW260887   9.060   4.723   3.965
19664SOL     OW60888  13.783  10.947  11.591
19664SOL    HW160889  13.808  10.855  11.577
19664SOL    HW260890  13.866  10.992  11.607
19665SOL     OW60891   1.998   6.332   6.993
19665SOL    HW160892   2.033   6.326   6.905
19665SOL    HW260893   1.913   6.375   6.982
19666SOL     OW60894   6.591   5.549   6.185
19666SOL    HW160895   6.591   5.519   6.275
19666SOL    HW260896   6.683   5.566   6.165
19667SOL     OW60897   0.359   8.492   0.530
19667SOL    HW160898   0.431   8.440   0.494
19667SOL    HW260899   0.401   8.572   0.561
19668SOL     OW60900  12.290   9.282  12.342
19668SOL    HW160901  12.201   9.301  12.313
19668SOL    HW260902  12.288   9.189  12.366
19669SOL     OW60903  13.511  13.971  14.153
19669SOL    HW160904  13.562  13.891  14.141
19669SOL    HW260905  13.454  13.975  14.076
19670SOL     OW60906  10.313   4.719   8.153
19670SOL    HW160907  10.271   4.658   8.213
19670SOL    HW260908  10.406   4.698   8.157
19671SOL     OW60909   0.563  13.636   7.682
19671SOL    HW160910   0.574  13.665   7.772
19671SOL    HW260911   0.468  13.628   7.670
19672SOL     OW60912   1.214  14.673   5.743
19672SOL    HW160913   1.229  14.588   5.785
19672SOL    HW260914   1.148  14.655   5.676
19673SOL     OW60915   1.480   8.914   8.301
19673SOL    HW160916   1.427   8.990   8.326
19673SOL    HW260917   1.570   8.941   8.316
19674SOL     OW60918   7.164   7.589   8.373
19674SOL    HW160919   7.124   7.603   8.287
19674SOL    HW260920   7.233   7.655   8.379
19675SOL     OW60921  11.942  13.219   3.710
19675SOL    HW160922  11.869  13.164   3.737
19675SOL    HW260923  12.016  13.159   3.705
19676SOL     OW60924  12.713   1.624  10.772
19676SOL    HW160925  12.724   1.714  10.800
19676SOL    HW260926  12.733   1.572  10.850
19677SOL     OW60927  11.011  14.396   9.169
19677SOL    HW160928  10.937  14.389   9.108
19677SOL    HW260929  10.980  14.353   9.248
19678SOL     OW60930  12.951   6.409   2.879
19678SOL    HW160931  12.907   6.421   2.795
19678SOL    HW260932  13.039   6.443   2.866
19679SOL     OW60933   6.808   5.084  13.896
19679SOL    HW160934   6.822   5.166  13.849
19679SOL    HW260935   6.772   5.024  13.830
19680SOL     OW60936   6.766  13.949   5.169
19680SOL    HW160937   6.824  13.940   5.244
19680SOL    HW260938   6.705  14.018   5.193
19681SOL     OW60939   5.022   3.199   4.994
19681SOL    HW160940   4.993   3.280   4.951
19681SOL    HW260941   5.075   3.155   4.928
19682SOL     OW60942   2.029   5.225   0.783
19682SOL    HW160943   2.076   5.162   0.837
19682SOL    HW260944   2.060   5.310   0.814
19683SOL     OW60945   6.392  10.998  10.010
19683SOL    HW160946   6.483  11.002  10.040
19683SOL    HW260947   6.345  10.958  10.083
19684SOL     OW60948   7.741   2.577  10.701
19684SOL    HW160949   7.738   2.488  10.735
19684SOL    HW260950   7.744   2.566  10.606
19685SOL     OW60951   2.907   7.003  13.906
19685SOL    HW160952   2.901   7.028  13.814
19685SOL    HW260953   2.945   6.915  13.906
19686SOL     OW60954   2.990   0.653   2.286
19686SOL    HW160955   2.979   0.748   2.291
19686SOL    HW260956   2.906   0.620   2.253
19687SOL     OW60957   5.203   8.504   2.258
19687SOL    HW160958   5.241   8.590   2.274
19687SOL    HW260959   5.119   8.522   2.216
19688SOL     OW60960   5.406   7.513   1.762
19688SOL    HW160961   5.458   7.576   1.712
19688SOL    HW260962   5.426   7.428   1.721
19689SOL     OW60963   4.456  11.585   5.929
19689SOL    HW160964   4.418  11.513   5.980
19689SOL    HW260965   4.426  11.664   5.974
19690SOL     OW60966   4.100   9.034  13.967
19690SOL    HW160967   4.109   8.955  14.020
19690SOL    HW260968   4.021   9.077  14.001
19691SOL     OW60969  12.436  14.387   7.212
19691SOL    HW160970  12.520  14.430   7.230
19691SOL    HW260971  12.440  14.305   7.263
19692SOL     OW60972   2.710   2.563   3.494
19692SOL    HW160973   2.647   2.630   3.466
19692SOL    HW260974   2.658   2.483   3.498
19693SOL     OW60975   5.012  12.967   7.879
19693SOL    HW160976   4.955  13.000   7.948
19693SOL    HW260977   5.057  13.045   7.846
19694SOL     OW60978  13.566   2.846  12.040
19694SOL    HW160979  13.576   2.931  12.084
19694SOL    HW260980  13.614   2.785  12.096
19695SOL     OW60981   3.007   1.019   6.151
19695SOL    HW160982   2.942   0.950   6.157
19695SOL    HW260983   3.076   0.982   6.096
19696SOL     OW60984  10.561   0.773  12.664
19696SOL    HW160985  10.620   0.835  12.708
19696SOL    HW260986  10.480   0.779  12.714
19697SOL     OW60987   6.759  14.121   0.872
19697SOL    HW160988   6.808  14.094   0.794
19697SOL    HW260989   6.739  14.213   0.857
19698SOL     OW60990   3.312   4.660   4.615
19698SOL    HW160991   3.249   4.668   4.686
19698SOL    HW260992   3.303   4.741   4.565
19699SOL     OW60993   1.608   4.831  12.044
19699SOL    HW160994   1.567   4.782  12.116
19699SOL    HW260995   1.549   4.819  11.970
19700SOL     OW60996   9.292   2.588   1.772
19700SOL    HW160997   9.245   2.524   1.826
19700SOL    HW260998   9.370   2.542   1.742
19701SOL     OW60999  10.517   0.294   4.271
19701SOL    HW161000  10.543   0.209   4.236
19701SOL    HW261001  10.421   0.292   4.271
19702SOL     OW61002   7.944   4.843   9.077
19702SOL    HW161003   8.013   4.811   9.020
19702SOL    HW261004   7.983   4.844   9.164
19703SOL     OW61005   4.282  13.187   2.174
19703SOL    HW161006   4.333  13.166   2.251
19703SOL    HW261007   4.305  13.278   2.154
19704SOL     OW61008   2.593   1.589   0.943
19704SOL    HW161009   2.679   1.559   0.914
19704SOL    HW261010   2.590   1.566   1.036
19705SOL     OW61011   4.487   8.163   1.347
19705SOL    HW161012   4.570   8.144   1.304
19705SOL    HW261013   4.423   8.162   1.276
19706SOL     OW61014   3.925   1.797   2.854
19706SOL    HW161015   3.891   1.870   2.905
19706SOL    HW261016   3.996   1.761   2.907
19707SOL     OW61017   6.051  12.791   9.540
19707SOL    HW161018   6.126  12.826   9.589
19707SOL    HW261019   6.049  12.842   9.459
19708SOL     OW61020  13.199   6.766   1.912
19708SOL    HW161021  13.201   6.709   1.835
19708SOL    HW261022  13.128   6.827   1.895
19709SOL     OW61023  13.755   5.008  12.051
19709SOL    HW161024  13.774   4.984  11.960
19709SOL    HW261025  13.667   5.046  12.047
19710SOL     OW61026   8.129   6.603   3.934
19710SOL    HW161027   8.131   6.651   4.017
19710SOL    HW261028   8.100   6.515   3.957
19711SOL     OW61029   4.478  11.353   7.867
19711SOL    HW161030   4.443  11.364   7.956
19711SOL    HW261031   4.418  11.403   7.812
19712SOL     OW61032  14.738  10.347   0.885
19712SOL    HW161033  14.654  10.376   0.921
19712SOL    HW261034  14.771  10.424   0.838
19713SOL     OW61035   9.602   0.141   3.817
19713SOL    HW161036   9.537   0.115   3.752
19713SOL    HW261037   9.643   0.058   3.843
19714SOL     OW61038   5.046   4.627  13.869
19714SOL    HW161039   4.967   4.635  13.814
19714SOL    HW261040   5.118   4.618  13.806
19715SOL     OW61041   2.729   0.022   2.764
19715SOL    HW161042   2.811   0.070   2.756
19715SOL    HW261043   2.736  14.857   2.848
19716SOL     OW61044   8.197   2.844   6.922
19716SOL    HW161045   8.207   2.751   6.945
19716SOL    HW261046   8.246   2.853   6.840
19717SOL     OW61047   4.387   5.755  12.900
19717SOL    HW161048   4.408   5.790  12.987
19717SOL    HW261049   4.365   5.663  12.917
19718SOL     OW61050  12.745   6.087   3.449
19718SOL    HW161051  12.784   6.012   3.405
19718SOL    HW261052  12.664   6.103   3.402
19719SOL     OW61053  12.997   7.650  10.282
19719SOL    HW161054  12.931   7.693  10.227
19719SOL    HW261055  13.036   7.722  10.332
19720SOL     OW61056   1.216  11.309  11.065
19720SOL    HW161057   1.162  11.295  11.143
19720SOL    HW261058   1.189  11.239  11.005
19721SOL     OW61059   8.104   0.066   9.359
19721SOL    HW161060   8.043   0.088   9.288
19721SOL    HW261061   8.190   0.074   9.319
19722SOL     OW61062  12.740  13.991   7.593
19722SOL    HW161063  12.743  14.078   7.553
19722SOL    HW261064  12.832  13.970   7.612
19723SOL     OW61065   5.240  14.051   7.018
19723SOL    HW161066   5.229  14.016   7.107
19723SOL    HW261067   5.173  14.006   6.967
19724SOL     OW61068   1.880   2.278   8.020
19724SOL    HW161069   1.881   2.252   8.112
19724SOL    HW261070   1.898   2.198   7.971
19725SOL     OW61071   4.812   4.771  12.461
19725SOL    HW161072   4.869   4.708  12.417
19725SOL    HW261073   4.768   4.720  12.529
19726SOL     OW61074   7.697   1.102   9.635
19726SOL    HW161075   7.753   1.059   9.700
19726SOL    HW261076   7.642   1.031   9.601
19727SOL     OW61077  14.627   0.856  11.150
19727SOL    HW161078  14.612   0.945  11.181
19727SOL    HW261079  14.712   0.859  11.107
19728SOL     OW61080   7.614   3.663   9.324
19728SOL    HW161081   7.629   3.607   9.249
19728SOL    HW261082   7.542   3.720   9.297
19729SOL     OW61083   0.021  12.416   2.900
19729SOL    HW161084   0.099  12.464   2.872
19729SOL    HW261085   0.004  12.447   2.989
19730SOL     OW61086  10.420   5.054  10.524
19730SOL    HW161087  10.435   4.960  10.517
19730SOL    HW261088  10.345   5.062  10.583
19731SOL     OW61089  11.132  10.905  12.625
19731SOL    HW161090  11.064  10.850  12.585
19731SOL    HW261091  11.143  10.869  12.713
19732SOL     OW61092   5.017   1.767   2.576
19732SOL    HW161093   5.109   1.790   2.567
19732SOL    HW261094   5.002   1.700   2.509
19733SOL     OW61095   0.930   4.171   8.896
19733SOL    HW161096   0.939   4.080   8.867
19733SOL    HW261097   0.906   4.219   8.817
19734SOL     OW61098  11.946   9.869   3.030
19734SOL    HW161099  12.008   9.899   3.097
19734SOL    HW261100  11.866   9.848   3.078
19735SOL     OW61101   4.081  10.606  12.807
19735SOL    HW161102   4.171  10.588  12.834
19735SOL    HW261103   4.077  10.701  12.797
19736SOL     OW61104   3.207   8.142  12.619
19736SOL    HW161105   3.285   8.091  12.600
19736SOL    HW261106   3.157   8.142  12.537
19737SOL     OW61107   4.101  13.209  13.055
19737SOL    HW161108   4.182  13.236  13.011
19737SOL    HW261109   4.129  13.173  13.139
19738SOL     OW61110   5.598   2.345   8.659
19738SOL    HW161111   5.522   2.403   8.667
19738SOL    HW261112   5.652   2.365   8.736
19739SOL     OW61113  12.249   8.973   0.640
19739SOL    HW161114  12.244   9.038   0.710
19739SOL    HW261115  12.183   9.001   0.577
19740SOL     OW61116  12.989   3.588  13.892
19740SOL    HW161117  13.067   3.533  13.897
19740SOL    HW261118  12.930   3.552  13.957
19741SOL     OW61119   6.339   8.294  11.832
19741SOL    HW161120   6.387   8.213  11.850
19741SOL    HW261121   6.302   8.319  11.916
19742SOL     OW61122   2.766  11.008   2.823
19742SOL    HW161123   2.789  11.089   2.868
19742SOL    HW261124   2.687  10.977   2.868
19743SOL     OW61125  12.558  12.117   1.871
19743SOL    HW161126  12.621  12.063   1.919
19743SOL    HW261127  12.540  12.067   1.791
19744SOL     OW61128   6.330   5.222   0.272
19744SOL    HW161129   6.239   5.230   0.243
19744SOL    HW261130   6.368   5.157   0.213
19745SOL     OW61131   2.912   1.321   4.653
19745SOL    HW161132   2.818   1.324   4.633
19745SOL    HW261133   2.927   1.232   4.685
19746SOL     OW61134  12.772  13.189   2.248
19746SOL    HW161135  12.828  13.227   2.316
19746SOL    HW261136  12.715  13.127   2.295
19747SOL     OW61137   3.962   4.486   6.614
19747SOL    HW161138   3.879   4.488   6.567
19747SOL    HW261139   3.964   4.567   6.664
19748SOL     OW61140  12.409   0.963   8.536
19748SOL    HW161141  12.338   1.018   8.504
19748SOL    HW261142  12.373   0.920   8.614
19749SOL     OW61143   1.400   1.964  14.820
19749SOL    HW161144   1.393   2.024  14.745
19749SOL    HW261145   1.452   2.013   0.003
19750SOL     OW61146   1.523   4.472   2.252
19750SOL    HW161147   1.436   4.456   2.216
19750SOL    HW261148   1.559   4.385   2.268
19751SOL     OW61149   5.694   7.268   0.086
19751SOL    HW161150   5.730   7.303   0.167
19751SOL    HW261151   5.607   7.307   0.080
19752SOL     OW61152   9.288  12.727  13.038
19752SOL    HW161153   9.321  12.638  13.050
19752SOL    HW261154   9.328  12.758  12.957
19753SOL     OW61155  13.591  14.610   9.593
19753SOL    HW161156  13.615  14.616   9.500
19753SOL    HW261157  13.673  14.591   9.638
19754SOL     OW61158   3.203   9.146  11.037
19754SOL    HW161159   3.180   9.078  10.974
19754SOL    HW261160   3.209   9.226  10.985
19755SOL     OW61161  11.222   3.713  10.025
19755SOL    HW161162  11.253   3.759   9.947
19755SOL    HW261163  11.221   3.780  10.094
19756SOL     OW61164   9.996  11.961  12.305
19756SOL    HW161165   9.978  12.022  12.233
19756SOL    HW261166   9.911  11.948  12.346
19757SOL     OW61167   2.985   3.484   0.621
19757SOL    HW161168   2.947   3.515   0.703
19757SOL    HW261169   3.061   3.433   0.648
19758SOL     OW61170   8.218   5.698  14.607
19758SOL    HW161171   8.134   5.740  14.590
19758SOL    HW261172   8.208   5.656  14.692
19759SOL     OW61173   4.590  10.418   6.211
19759SOL    HW161174   4.626  10.447   6.128
19759SOL    HW261175   4.655  10.442   6.276
19760SOL     OW61176   1.783   4.337   4.675
19760SOL    HW161177   1.873   4.360   4.651
19760SOL    HW261178   1.757   4.406   4.736
19761SOL     OW61179   3.750   8.623   3.409
19761SOL    HW161180   3.732   8.717   3.413
19761SOL    HW261181   3.839   8.614   3.443
19762SOL     OW61182   5.597   4.916   0.167
19762SOL    HW161183   5.577   4.951   0.080
19762SOL    HW261184   5.691   4.900   0.165
19763SOL     OW61185  12.706   1.516   8.383
19763SOL    HW161186  12.653   1.467   8.446
19763SOL    HW261187  12.691   1.471   8.300
19764SOL     OW61188   1.127   8.620   0.589
19764SOL    HW161189   1.126   8.649   0.498
19764SOL    HW261190   1.218   8.629   0.617
19765SOL     OW61191   4.292   1.592   7.506
19765SOL    HW161192   4.342   1.551   7.576
19765SOL    HW261193   4.270   1.679   7.539
19766SOL     OW61194   0.536   7.174   2.475
19766SOL    HW161195   0.453   7.219   2.455
19766SOL    HW261196   0.582   7.234   2.533
19767SOL     OW61197   9.910  13.866   5.827
19767SOL    HW161198   9.855  13.809   5.880
19767SOL    HW261199   9.967  13.910   5.890
19768SOL     OW61200  10.454  11.571   0.690
19768SOL    HW161201  10.402  11.622   0.751
19768SOL    HW261202  10.528  11.628   0.667
19769SOL     OW61203   5.042   1.209   1.639
19769SOL    HW161204   5.067   1.247   1.723
19769SOL    HW261205   4.976   1.269   1.605
19770SOL     OW61206   6.731  11.504   5.722
19770SOL    HW161207   6.745  11.566   5.651
19770SOL    HW261208   6.779  11.541   5.797
19771SOL     OW61209   8.938  11.119  10.827
19771SOL    HW161210   8.891  11.165  10.897
19771SOL    HW261211   9.007  11.071  10.872
19772SOL     OW61212   7.171   2.620   8.949
19772SOL    HW161213   7.246   2.676   8.927
19772SOL    HW261214   7.100   2.682   8.968
19773SOL     OW61215   6.393   8.238   9.715
19773SOL    HW161216   6.375   8.152   9.753
19773SOL    HW261217   6.326   8.295   9.752
19774SOL     OW61218   0.716  10.718   3.797
19774SOL    HW161219   0.731  10.790   3.858
19774SOL    HW261220   0.629  10.734   3.762
19775SOL     OW61221   1.951  11.023  13.540
19775SOL    HW161222   2.043  11.040  13.561
19775SOL    HW261223   1.952  10.998  13.448
19776SOL     OW61224  10.683   0.625   8.472
19776SOL    HW161225  10.595   0.660   8.486
19776SOL    HW261226  10.670   0.531   8.465
19777SOL     OW61227  11.243   7.073   6.209
19777SOL    HW161228  11.260   7.154   6.256
19777SOL    HW261229  11.319   7.063   6.151
19778SOL     OW61230   5.199  13.506  14.141
19778SOL    HW161231   5.247  13.426  14.161
19778SOL    HW261232   5.127  13.508  14.204
19779SOL     OW61233   1.299   5.182   5.094
19779SOL    HW161234   1.248   5.102   5.110
19779SOL    HW261235   1.345   5.165   5.011
19780SOL     OW61236   6.539  14.442  10.002
19780SOL    HW161237   6.463  14.385   9.991
19780SOL    HW261238   6.593  14.398  10.068
19781SOL     OW61239   2.336   1.309  12.749
19781SOL    HW161240   2.312   1.360  12.826
19781SOL    HW261241   2.344   1.219  12.781
19782SOL     OW61242   5.840   8.032   2.688
19782SOL    HW161243   5.865   7.981   2.765
19782SOL    HW261244   5.918   8.084   2.669
19783SOL     OW61245   9.864  10.969  13.424
19783SOL    HW161246   9.794  10.973  13.488
19783SOL    HW261247   9.933  11.026  13.460
19784SOL     OW61248   8.761   1.269   6.141
19784SOL    HW161249   8.682   1.276   6.088
19784SOL    HW261250   8.751   1.186   6.188
19785SOL     OW61251  11.761   4.627   4.538
19785SOL    HW161252  11.721   4.545   4.509
19785SOL    HW261253  11.802   4.663   4.459
19786SOL     OW61254   4.531   5.562   8.098
19786SOL    HW161255   4.581   5.488   8.132
19786SOL    HW261256   4.596   5.631   8.087
19787SOL     OW61257   4.069   2.530  13.929
19787SOL    HW161258   4.116   2.457  13.888
19787SOL    HW261259   3.996   2.547  13.869
19788SOL     OW61260   6.931  11.521   9.393
19788SOL    HW161261   7.007  11.467   9.413
19788SOL    HW261262   6.911  11.566   9.475
19789SOL     OW61263   1.626   9.300   2.104
19789SOL    HW161264   1.700   9.340   2.148
19789SOL    HW261265   1.552   9.356   2.127
19790SOL     OW61266   6.114  14.196   8.751
19790SOL    HW161267   6.035  14.224   8.797
19790SOL    HW261268   6.145  14.120   8.800
19791SOL     OW61269  11.282   5.881   6.094
19791SOL    HW161270  11.235   5.943   6.039
19791SOL    HW261271  11.257   5.795   6.060
19792SOL     OW61272  11.393   7.046   1.857
19792SOL    HW161273  11.382   7.131   1.900
19792SOL    HW261274  11.460   7.062   1.791
19793SOL     OW61275   2.684   2.681  11.316
19793SOL    HW161276   2.708   2.764  11.276
19793SOL    HW261277   2.590   2.673  11.299
19794SOL     OW61278   3.847   9.531  12.427
19794SOL    HW161279   3.763   9.574  12.444
19794SOL    HW261280   3.903   9.558  12.501
19795SOL     OW61281   9.699  11.073   9.603
19795SOL    HW161282   9.748  11.069   9.685
19795SOL    HW261283   9.610  11.094   9.628
19796SOL     OW61284  10.424  13.471   2.410
19796SOL    HW161285  10.412  13.555   2.365
19796SOL    HW261286  10.337  13.430   2.408
19797SOL     OW61287  10.548   9.326   5.849
19797SOL    HW161288  10.638   9.313   5.877
19797SOL    HW261289  10.495   9.294   5.922
19798SOL     OW61290   8.937   4.138   8.059
19798SOL    HW161291   8.983   4.182   7.988
19798SOL    HW261292   8.929   4.047   8.030
19799SOL     OW61293  14.467   9.078  11.630
19799SOL    HW161294  14.391   9.108  11.680
19799SOL    HW261295  14.433   9.005  11.578
19800SOL     OW61296  12.249   0.208   5.319
19800SOL    HW161297  12.308   0.177   5.388
19800SOL    HW261298  12.196   0.276   5.362
19801SOL     OW61299   3.951   4.947  12.126
19801SOL    HW161300   3.858   4.936  12.107
19801SOL    HW261301   3.972   4.873  12.183
19802SOL     OW61302   1.906   4.430   0.719
19802SOL    HW161303   1.982   4.379   0.692
19802SOL    HW261304   1.890   4.489   0.646
19803SOL     OW61305   3.028   7.134   0.374
19803SOL    HW161306   2.958   7.132   0.439
19803SOL    HW261307   3.045   7.043   0.353
19804SOL     OW61308   5.766   7.954   5.973
19804SOL    HW161309   5.766   8.043   5.937
19804SOL    HW261310   5.676   7.938   5.998
19805SOL     OW61311   0.137   4.905   6.920
19805SOL    HW161312   0.045   4.890   6.944
19805SOL    HW261313   0.143   4.878   6.828
19806SOL     OW61314   5.664   1.324   2.402
19806SOL    HW161315   5.574   1.300   2.381
19806SOL    HW261316   5.676   1.295   2.493
19807SOL     OW61317  12.320   6.073   2.695
19807SOL    HW161318  12.406   6.045   2.726
19807SOL    HW261319  12.292   6.005   2.634
19808SOL     OW61320   7.778   8.212   1.945
19808SOL    HW161321   7.686   8.191   1.961
19808SOL    HW261322   7.802   8.272   2.016
19809SOL     OW61323   2.409   5.765   8.700
19809SOL    HW161324   2.389   5.688   8.646
19809SOL    HW261325   2.439   5.728   8.783
19810SOL     OW61326   2.420   3.517   0.925
19810SOL    HW161327   2.385   3.434   0.957
19810SOL    HW261328   2.506   3.493   0.890
19811SOL     OW61329   9.203  11.689  11.995
19811SOL    HW161330   9.120  11.729  11.966
19811SOL    HW261331   9.236  11.749  12.061
19812SOL     OW61332  12.033   5.099  11.721
19812SOL    HW161333  12.113   5.052  11.699
19812SOL    HW261334  11.962   5.039  11.697
19813SOL     OW61335   8.724   0.394   8.417
19813SOL    HW161336   8.629   0.381   8.414
19813SOL    HW261337   8.749   0.408   8.326
19814SOL     OW61338   9.965   6.943  11.080
19814SOL    HW161339   9.906   6.869  11.069
19814SOL    HW261340   9.908   7.020  11.078
19815SOL     OW61341   8.871   5.593   1.837
19815SOL    HW161342   8.954   5.603   1.792
19815SOL    HW261343   8.838   5.682   1.847
19816SOL     OW61344   2.256   6.594   1.301
19816SOL    HW161345   2.280   6.669   1.248
19816SOL    HW261346   2.277   6.518   1.247
19817SOL     OW61347  14.306  12.382  10.795
19817SOL    HW161348  14.377  12.345  10.742
19817SOL    HW261349  14.341  12.466  10.825
19818SOL     OW61350  13.534   5.805   6.230
19818SOL    HW161351  13.516   5.890   6.190
19818SOL    HW261352  13.452   5.757   6.224
19819SOL     OW61353  12.909   6.144   2.699
19819SOL    HW161354  12.978   6.197   2.659
19819SOL    HW261355  12.926   6.148   2.793
19820SOL     OW61356   2.297   4.292   9.704
19820SOL    HW161357   2.296   4.352   9.629
19820SOL    HW261358   2.344   4.339   9.773
19821SOL     OW61359   5.951  13.596  11.001
19821SOL    HW161360   5.857  13.612  10.994
19821SOL    HW261361   5.991  13.671  10.958
19822SOL     OW61362   1.908   8.419  14.439
19822SOL    HW161363   1.960   8.419  14.359
19822SOL    HW261364   1.862   8.335  14.437
19823SOL     OW61365  14.178  12.970   1.705
19823SOL    HW161366  14.107  13.022   1.743
19823SOL    HW261367  14.244  13.034   1.680
19824SOL     OW61368   6.024  14.189  12.541
19824SOL    HW161369   6.110  14.162  12.509
19824SOL    HW261370   6.015  14.143  12.625
19825SOL     OW61371  12.628   7.594  11.394
19825SOL    HW161372  12.698   7.577  11.457
19825SOL    HW261373  12.548   7.596  11.447
19826SOL     OW61374   7.489   8.295  13.540
19826SOL    HW161375   7.545   8.325  13.469
19826SOL    HW261376   7.483   8.369  13.600
19827SOL     OW61377   4.345   5.324  13.644
19827SOL    HW161378   4.438   5.302  13.651
19827SOL    HW261379   4.299   5.252  13.686
19828SOL     OW61380   1.628   1.937   0.226
19828SOL    HW161381   1.655   1.861   0.175
19828SOL    HW261382   1.556   1.905   0.281
19829SOL     OW61383  13.226  10.309   4.841
19829SOL    HW161384  13.287  10.236   4.850
19829SOL    HW261385  13.186  10.318   4.928
19830SOL     OW61386   7.542   0.752   2.361
19830SOL    HW161387   7.587   0.754   2.276
19830SOL    HW261388   7.548   0.661   2.389
19831SOL     OW61389   3.526   1.294  12.345
19831SOL    HW161390   3.493   1.280  12.434
19831SOL    HW261391   3.448   1.313  12.293
19832SOL     OW61392   5.342  12.814   8.921
19832SOL    HW161393   5.358  12.884   8.857
19832SOL    HW261394   5.257  12.837   8.960
19833SOL     OW61395   8.958   2.145   2.760
19833SOL    HW161396   9.001   2.154   2.845
19833SOL    HW261397   9.026   2.167   2.696
19834SOL     OW61398  11.184  10.052   8.036
19834SOL    HW161399  11.129  10.054   8.114
19834SOL    HW261400  11.242   9.977   8.050
19835SOL     OW61401   1.935   9.638   2.972
19835SOL    HW161402   1.886   9.615   3.051
19835SOL    HW261403   1.986   9.715   2.997
19836SOL     OW61404  11.200  14.087  13.797
19836SOL    HW161405  11.220  14.121  13.709
19836SOL    HW261406  11.105  14.080  13.800
19837SOL     OW61407  12.341   4.658   4.944
19837SOL    HW161408  12.374   4.669   4.855
19837SOL    HW261409  12.411   4.611   4.990
19838SOL     OW61410   3.586   6.074   0.626
19838SOL    HW161411   3.561   6.157   0.585
19838SOL    HW261412   3.670   6.052   0.587
19839SOL     OW61413  13.379   5.205  11.757
19839SOL    HW161414  13.286   5.199  11.778
19839SOL    HW261415  13.417   5.257  11.828
19840SOL     OW61416  12.621   4.707  13.765
19840SOL    HW161417  12.711   4.741  13.765
19840SOL    HW261418  12.630   4.616  13.794
19841SOL     OW61419  12.195  10.406  14.433
19841SOL    HW161420  12.207  10.346  14.507
19841SOL    HW261421  12.274  10.393  14.380
19842SOL     OW61422  14.492  10.217   1.585
19842SOL    HW161423  14.504  10.199   1.678
19842SOL    HW261424  14.426  10.286   1.582
19843SOL     OW61425   1.267   3.380  13.491
19843SOL    HW161426   1.306   3.296  13.467
19843SOL    HW261427   1.332   3.445  13.463
19844SOL     OW61428  10.213   7.212  11.492
19844SOL    HW161429  10.205   7.156  11.569
19844SOL    HW261430  10.252   7.293  11.525
19845SOL     OW61431  12.009   0.285  12.852
19845SOL    HW161432  11.932   0.239  12.885
19845SOL    HW261433  11.974   0.366  12.815
19846SOL     OW61434   5.023   4.724   2.378
19846SOL    HW161435   4.976   4.791   2.427
19846SOL    HW261436   5.113   4.756   2.375
19847SOL     OW61437   9.961  14.100  14.675
19847SOL    HW161438  10.039  14.075  14.725
19847SOL    HW261439   9.895  14.121  14.742
19848SOL     OW61440   0.425   9.002   8.710
19848SOL    HW161441   0.479   9.056   8.767
19848SOL    HW261442   0.487   8.962   8.648
19849SOL     OW61443   9.984  10.249  12.083
19849SOL    HW161444   9.898  10.211  12.072
19849SOL    HW261445  10.033  10.221  12.006
19850SOL     OW61446   8.184   6.169  14.601
19850SOL    HW161447   8.221   6.199  14.684
19850SOL    HW261448   8.089   6.172  14.614
19851SOL     OW61449  12.703   2.213   3.028
19851SOL    HW161450  12.661   2.299   3.023
19851SOL    HW261451  12.797   2.231   3.032
19852SOL     OW61452   5.118  10.089   1.981
19852SOL    HW161453   5.186  10.051   1.926
19852SOL    HW261454   5.157  10.093   2.068
19853SOL     OW61455   1.252   7.428   4.784
19853SOL    HW161456   1.299   7.345   4.775
19853SOL    HW261457   1.167   7.403   4.821
19854SOL     OW61458   7.056   5.913  10.758
19854SOL    HW161459   7.090   5.999  10.734
19854SOL    HW261460   7.127   5.853  10.734
19855SOL     OW61461  10.948  12.006  14.779
19855SOL    HW161462  10.940  12.090  14.734
19855SOL    HW261463  11.042  11.995  14.792
19856SOL     OW61464  14.403   1.228  11.196
19856SOL    HW161465  14.366   1.188  11.275
19856SOL    HW261466  14.496   1.210  11.201
19857SOL     OW61467   7.541  11.854   2.097
19857SOL    HW161468   7.581  11.798   2.031
19857SOL    HW261469   7.599  11.847   2.173
19858SOL     OW61470   3.435  13.819  13.258
19858SOL    HW161471   3.352  13.839  13.301
19858SOL    HW261472   3.416  13.830  13.164
19859SOL     OW61473  10.287   5.563   0.296
19859SOL    HW161474  10.290   5.473   0.266
19859SOL    HW261475  10.254   5.613   0.221
19860SOL     OW61476   3.064   8.239  11.633
19860SOL    HW161477   2.998   8.301  11.601
19860SOL    HW261478   3.126   8.230  11.560
19861SOL     OW61479  13.302   1.381   7.470
19861SOL    HW161480  13.217   1.370   7.514
19861SOL    HW261481  13.290   1.338   7.385
19862SOL     OW61482   4.731   4.734   2.102
19862SOL    HW161483   4.677   4.795   2.153
19862SOL    HW261484   4.743   4.777   2.018
19863SOL     OW61485   5.217   3.043  11.726
19863SOL    HW161486   5.227   2.975  11.792
19863SOL    HW261487   5.256   3.121  11.766
19864SOL     OW61488   2.303   0.152  13.540
19864SOL    HW161489   2.374   0.198  13.586
19864SOL    HW261490   2.267   0.092  13.606
19865SOL     OW61491   1.548   2.118  10.003
19865SOL    HW161492   1.616   2.185  10.002
19865SOL    HW261493   1.479   2.152   9.946
19866SOL     OW61494   4.003  14.781   0.779
19866SOL    HW161495   4.061  14.802   0.706
19866SOL    HW261496   3.938  14.851   0.779
19867SOL     OW61497   9.566   5.016   0.410
19867SOL    HW161498   9.571   5.053   0.322
19867SOL    HW261499   9.566   5.093   0.468
19868SOL     OW61500  11.549   4.527  13.710
19868SOL    HW161501  11.469   4.520  13.762
19868SOL    HW261502  11.574   4.619  13.716
19869SOL     OW61503  12.484   7.613  10.491
19869SOL    HW161504  12.439   7.652  10.416
19869SOL    HW261505  12.431   7.639  10.567
19870SOL     OW61506   0.850  11.775  13.249
19870SOL    HW161507   0.844  11.694  13.197
19870SOL    HW261508   0.917  11.756  13.315
19871SOL     OW61509   0.657   0.896   2.003
19871SOL    HW161510   0.726   0.926   2.061
19871SOL    HW261511   0.605   0.836   2.057
19872SOL     OW61512  10.191   5.559   5.808
19872SOL    HW161513  10.273   5.571   5.759
19872SOL    HW261514  10.218   5.521   5.891
19873SOL     OW61515  11.171   5.013  10.331
19873SOL    HW161516  11.086   5.054  10.313
19873SOL    HW261517  11.160   4.922  10.303
19874SOL     OW61518   0.671   6.482  12.980
19874SOL    HW161519   0.755   6.438  12.973
19874SOL    HW261520   0.685   6.551  13.044
19875SOL     OW61521   3.127  11.102  10.461
19875SOL    HW161522   3.201  11.135  10.411
19875SOL    HW261523   3.156  11.015  10.491
19876SOL     OW61524  10.737  14.239   2.049
19876SOL    HW161525  10.805  14.171   2.047
19876SOL    HW261526  10.674  14.207   2.113
19877SOL     OW61527   1.655   8.012   7.693
19877SOL    HW161528   1.722   8.035   7.627
19877SOL    HW261529   1.625   7.925   7.666
19878SOL     OW61530   5.664   7.508  13.875
19878SOL    HW161531   5.723   7.541  13.807
19878SOL    HW261532   5.710   7.433  13.913
19879SOL     OW61533   8.542   2.739   7.749
19879SOL    HW161534   8.566   2.746   7.841
19879SOL    HW261535   8.549   2.828   7.715
19880SOL     OW61536   8.036  12.850   1.894
19880SOL    HW161537   8.080  12.778   1.848
19880SOL    HW261538   8.054  12.834   1.986
19881SOL     OW61539   5.808   2.622   2.637
19881SOL    HW161540   5.899   2.647   2.620
19881SOL    HW261541   5.779   2.582   2.555
19882SOL     OW61542  12.240   0.546  10.030
19882SOL    HW161543  12.187   0.500  10.095
19882SOL    HW261544  12.223   0.638  10.045
19883SOL     OW61545  13.241   7.875   9.410
19883SOL    HW161546  13.328   7.911   9.392
19883SOL    HW261547  13.250   7.781   9.396
19884SOL     OW61548   1.356  10.780   9.626
19884SOL    HW161549   1.414  10.803   9.698
19884SOL    HW261550   1.396  10.819   9.548
19885SOL     OW61551   3.789   1.822   3.163
19885SOL    HW161552   3.735   1.874   3.103
19885SOL    HW261553   3.735   1.746   3.184
19886SOL     OW61554   8.418   3.824  10.392
19886SOL    HW161555   8.446   3.735  10.372
19886SOL    HW261556   8.500   3.870  10.414
19887SOL     OW61557   7.005  11.322  13.226
19887SOL    HW161558   7.062  11.378  13.278
19887SOL    HW261559   6.941  11.288  13.289
19888SOL     OW61560  10.630   2.577  11.475
19888SOL    HW161561  10.703   2.626  11.513
19888SOL    HW261562  10.670   2.524  11.406
19889SOL     OW61563  11.174  12.178   4.788
19889SOL    HW161564  11.245  12.124   4.752
19889SOL    HW261565  11.100  12.118   4.794
19890SOL     OW61566   1.048   4.473  13.117
19890SOL    HW161567   0.965   4.454  13.073
19890SOL    HW261568   1.113   4.421  13.069
19891SOL     OW61569   3.418   3.552   2.047
19891SOL    HW161570   3.486   3.522   2.107
19891SOL    HW261571   3.336   3.528   2.090
19892SOL     OW61572   3.437   4.328   4.622
19892SOL    HW161573   3.457   4.382   4.545
19892SOL    HW261574   3.521   4.291   4.648
19893SOL     OW61575  10.061   0.730   1.234
19893SOL    HW161576  10.143   0.772   1.209
19893SOL    HW261577  10.076   0.637   1.222
19894SOL     OW61578   5.630  12.675   5.066
19894SOL    HW161579   5.642  12.756   5.117
19894SOL    HW261580   5.573  12.621   5.121
19895SOL     OW61581   5.486   8.398   1.189
19895SOL    HW161582   5.496   8.455   1.113
19895SOL    HW261583   5.423   8.332   1.161
19896SOL     OW61584  13.425   3.157  10.961
19896SOL    HW161585  13.461   3.086  11.015
19896SOL    HW261586  13.337   3.127  10.937
19897SOL     OW61587   6.610   5.699  13.475
19897SOL    HW161588   6.543   5.671  13.537
19897SOL    HW261589   6.669   5.754  13.526
19898SOL     OW61590   4.131  11.368   6.509
19898SOL    HW161591   4.204  11.412   6.550
19898SOL    HW261592   4.071  11.438   6.483
19899SOL     OW61593   2.917  11.098   7.507
19899SOL    HW161594   2.963  11.035   7.451
19899SOL    HW261595   2.831  11.058   7.522
19900SOL     OW61596  10.104   6.119  12.735
19900SOL    HW161597  10.093   6.026  12.750
19900SOL    HW261598  10.162   6.125  12.658
19901SOL     OW61599   3.178   9.950  13.386
19901SOL    HW161600   3.137   9.945  13.472
19901SOL    HW261601   3.143  10.029  13.346
19902SOL     OW61602   5.867   5.922   8.911
19902SOL    HW161603   5.958   5.924   8.883
19902SOL    HW261604   5.818   5.903   8.831
19903SOL     OW61605   9.018   1.854  12.222
19903SOL    HW161606   9.011   1.932  12.167
19903SOL    HW261607   9.112   1.843  12.235
19904SOL     OW61608  11.885   4.166  13.472
19904SOL    HW161609  11.819   4.110  13.512
19904SOL    HW261610  11.886   4.140  13.380
19905SOL     OW61611  10.870   4.971   3.839
19905SOL    HW161612  10.823   4.997   3.759
19905SOL    HW261613  10.857   4.877   3.845
19906SOL     OW61614  11.503   7.650   2.080
19906SOL    HW161615  11.431   7.647   2.017
19906SOL    HW261616  11.538   7.739   2.073
19907SOL     OW61617  13.018   3.549   8.510
19907SOL    HW161618  13.071   3.524   8.586
19907SOL    HW261619  13.052   3.495   8.438
19908SOL     OW61620   2.089   9.685   5.117
19908SOL    HW161621   2.152   9.623   5.078
19908SOL    HW261622   2.144   9.749   5.162
19909SOL     OW61623   5.716   6.422   1.784
19909SOL    HW161624   5.754   6.493   1.837
19909SOL    HW261625   5.622   6.430   1.797
19910SOL     OW61626  14.775   4.071   0.043
19910SOL    HW161627  14.861   4.035   0.067
19910SOL    HW261628  14.779   4.163   0.070
19911SOL     OW61629   1.883   7.980   3.752
19911SOL    HW161630   1.840   7.895   3.743
19911SOL    HW261631   1.939   7.971   3.829
19912SOL     OW61632   8.883   7.056  13.306
19912SOL    HW161633   8.881   7.151  13.321
19912SOL    HW261634   8.883   7.048  13.210
19913SOL     OW61635  13.606  12.220   7.989
19913SOL    HW161636  13.578  12.213   8.080
19913SOL    HW261637  13.535  12.180   7.939
19914SOL     OW61638   6.082   3.469   0.429
19914SOL    HW161639   6.026   3.539   0.395
19914SOL    HW261640   6.055   3.459   0.520
19915SOL     OW61641   7.296   4.907   5.503
19915SOL    HW161642   7.248   4.847   5.560
19915SOL    HW261643   7.351   4.850   5.449
19916SOL     OW61644   2.745   0.610   9.636
19916SOL    HW161645   2.670   0.668   9.647
19916SOL    HW261646   2.820   0.670   9.625
19917SOL     OW61647  14.646   6.113  13.100
19917SOL    HW161648  14.681   6.024  13.093
19917SOL    HW261649  14.723   6.169  13.108
19918SOL     OW61650   9.799   4.438   9.895
19918SOL    HW161651   9.777   4.482   9.977
19918SOL    HW261652   9.864   4.495   9.854
19919SOL     OW61653  13.185   0.490   5.889
19919SOL    HW161654  13.268   0.527   5.918
19919SOL    HW261655  13.197   0.395   5.896
19920SOL     OW61656  10.834   9.027  11.684
19920SOL    HW161657  10.909   8.986  11.727
19920SOL    HW261658  10.866   9.050  11.596
19921SOL     OW61659   1.324   3.737   1.453
19921SOL    HW161660   1.261   3.666   1.464
19921SOL    HW261661   1.393   3.699   1.398
19922SOL     OW61662   4.266   3.591  13.147
19922SOL    HW161663   4.258   3.497  13.158
19922SOL    HW261664   4.213   3.611  13.070
19923SOL     OW61665   6.977  10.907   3.735
19923SOL    HW161666   6.965  10.987   3.684
19923SOL    HW261667   6.897  10.857   3.720
19924SOL     OW61668   5.716   6.366   5.978
19924SOL    HW161669   5.756   6.425   5.914
19924SOL    HW261670   5.661   6.307   5.925
19925SOL     OW61671   3.526   8.807   6.530
19925SOL    HW161672   3.586   8.878   6.556
19925SOL    HW261673   3.547   8.789   6.439
19926SOL     OW61674  13.884  12.673   2.066
19926SOL    HW161675  13.926  12.608   2.010
19926SOL    HW261676  13.953  12.735   2.087
19927SOL     OW61677  13.716   2.159  13.774
19927SOL    HW161678  13.681   2.071  13.760
19927SOL    HW261679  13.769   2.152  13.853
19928SOL     OW61680   2.142   9.468   4.486
19928SOL    HW161681   2.166   9.422   4.567
19928SOL    HW261682   2.219   9.519   4.464
19929SOL     OW61683   6.941   4.066   3.227
19929SOL    HW161684   6.964   4.158   3.213
19929SOL    HW261685   6.885   4.043   3.153
19930SOL     OW61686   5.945   1.090  11.187
19930SOL    HW161687   5.958   0.996  11.193
19930SOL    HW261688   5.861   1.100  11.141
19931SOL     OW61689  10.098   7.848  12.026
19931SOL    HW161690  10.171   7.854  12.088
19931SOL    HW261691  10.025   7.891  12.071
19932SOL     OW61692   2.515   7.156  14.495
19932SOL    HW161693   2.464   7.234  14.471
19932SOL    HW261694   2.485   7.089  14.435
19933SOL     OW61695   9.817   3.960   3.698
19933SOL    HW161696   9.869   3.885   3.670
19933SOL    HW261697   9.766   3.927   3.773
19934SOL     OW61698   5.523   4.196   9.987
19934SOL    HW161699   5.573   4.262  10.036
19934SOL    HW261700   5.480   4.245   9.917
19935SOL     OW61701   0.293   5.582  11.911
19935SOL    HW161702   0.317   5.581  12.004
19935SOL    HW261703   0.374   5.556  11.866
19936SOL     OW61704   8.331   0.094   8.524
19936SOL    HW161705   8.242   0.092   8.559
19936SOL    HW261706   8.356   0.002   8.516
19937SOL     OW61707   9.344   8.762   5.220
19937SOL    HW161708   9.279   8.763   5.150
19937SOL    HW261709   9.406   8.832   5.196
19938SOL     OW61710  13.125   2.301  11.126
19938SOL    HW161711  13.105   2.291  11.219
19938SOL    HW261712  13.051   2.349  11.090
19939SOL     OW61713  12.742   7.563   4.764
19939SOL    HW161714  12.684   7.593   4.694
19939SOL    HW261715  12.762   7.641   4.814
19940SOL     OW61716   0.548   5.032   4.127
19940SOL    HW161717   0.537   5.059   4.219
19940SOL    HW261718   0.582   5.110   4.084
19941SOL     OW61719   9.460  10.379   6.379
19941SOL    HW161720   9.547  10.392   6.340
19941SOL    HW261721   9.426  10.468   6.392
19942SOL     OW61722  14.407   0.510   4.879
19942SOL    HW161723  14.440   0.429   4.918
19942SOL    HW261724  14.313   0.496   4.871
19943SOL     OW61725   0.298   8.758   5.416
19943SOL    HW161726   0.244   8.770   5.338
19943SOL    HW261727   0.248   8.799   5.487
19944SOL     OW61728  14.861   1.121  10.189
19944SOL    HW161729  14.807   1.195  10.216
19944SOL    HW261730  14.826   1.095  10.104
19945SOL     OW61731  13.406   9.002  12.990
19945SOL    HW161732  13.475   9.023  12.927
19945SOL    HW261733  13.417   8.908  13.006
19946SOL     OW61734  11.319  11.976  14.496
19946SOL    HW161735  11.383  12.027  14.546
19946SOL    HW261736  11.358  11.969  14.409
19947SOL     OW61737  10.551   1.671   9.260
19947SOL    HW161738  10.578   1.638   9.174
19947SOL    HW261739  10.460   1.699   9.248
19948SOL     OW61740   3.635   0.583   7.655
19948SOL    HW161741   3.555   0.615   7.613
19948SOL    HW261742   3.620   0.595   7.749
19949SOL     OW61743   3.176   0.575   6.450
19949SOL    HW161744   3.157   0.637   6.520
19949SOL    HW261745   3.271   0.582   6.437
19950SOL     OW61746  12.207   3.487   7.695
19950SOL    HW161747  12.188   3.581   7.705
19950SOL    HW261748  12.233   3.458   7.782
19951SOL     OW61749  10.169   2.623   9.856
19951SOL    HW161750  10.127   2.688   9.912
19951SOL    HW261751  10.237   2.672   9.809
19952SOL     OW61752  12.398  11.540   1.841
19952SOL    HW161753  12.375  11.448   1.857
19952SOL    HW261754  12.493  11.542   1.847
19953SOL     OW61755  13.363  11.938   1.824
19953SOL    HW161756  13.292  11.994   1.856
19953SOL    HW261757  13.322  11.854   1.808
19954SOL     OW61758   1.818  10.898  12.917
19954SOL    HW161759   1.883  10.835  12.886
19954SOL    HW261760   1.748  10.895  12.852
19955SOL     OW61761   3.023   4.236   7.469
19955SOL    HW161762   2.960   4.271   7.531
19955SOL    HW261763   3.103   4.286   7.485
19956SOL     OW61764   0.765  10.935   3.213
19956SOL    HW161765   0.681  10.890   3.200
19956SOL    HW261766   0.830  10.868   3.194
19957SOL     OW61767   4.654   1.534   6.115
19957SOL    HW161768   4.559   1.543   6.107
19957SOL    HW261769   4.681   1.610   6.167
19958SOL     OW61770   9.304   1.215  14.756
19958SOL    HW161771   9.258   1.166  14.825
19958SOL    HW261772   9.385   1.165  14.742
19959SOL     OW61773  11.625   0.885   3.723
19959SOL    HW161774  11.678   0.812   3.692
19959SOL    HW261775  11.637   0.953   3.657
19960SOL     OW61776   5.136   5.521   0.919
19960SOL    HW161777   5.144   5.559   0.832
19960SOL    HW261778   5.166   5.430   0.909
19961SOL     OW61779   2.648  14.292   4.771
19961SOL    HW161780   2.633  14.380   4.735
19961SOL    HW261781   2.578  14.281   4.836
19962SOL     OW61782   4.135   0.029   1.192
19962SOL    HW161783   4.106  14.819   1.206
19962SOL    HW261784   4.209   0.039   1.252
19963SOL     OW61785   0.848   4.816  12.950
19963SOL    HW161786   0.853   4.760  13.027
19963SOL    HW261787   0.789   4.770  12.890
19964SOL     OW61788   4.463   5.116   5.804
19964SOL    HW161789   4.396   5.151   5.747
19964SOL    HW261790   4.473   5.181   5.874
19965SOL     OW61791   0.684   0.576  10.032
19965SOL    HW161792   0.621   0.559  10.102
19965SOL    HW261793   0.719   0.490  10.010
19966SOL     OW61794  12.772  10.185   3.583
19966SOL    HW161795  12.848  10.228   3.545
19966SOL    HW261796  12.699  10.213   3.527
19967SOL     OW61797   5.614   8.344  11.244
19967SOL    HW161798   5.610   8.309  11.333
19967SOL    HW261799   5.587   8.271  11.189
19968SOL     OW61800   6.290   0.319   3.449
19968SOL    HW161801   6.319   0.349   3.535
19968SOL    HW261802   6.205   0.360   3.436
19969SOL     OW61803   3.139   1.414   5.719
19969SOL    HW161804   3.198   1.360   5.666
19969SOL    HW261805   3.195   1.451   5.788
19970SOL     OW61806   3.999   4.348   3.713
19970SOL    HW161807   4.082   4.339   3.666
19970SOL    HW261808   3.983   4.262   3.752
19971SOL     OW61809  11.599   5.814  13.179
19971SOL    HW161810  11.581   5.906  13.158
19971SOL    HW261811  11.569   5.766  13.102
19972SOL     OW61812   9.556  14.133   1.489
19972SOL    HW161813   9.580  14.218   1.451
19972SOL    HW261814   9.632  14.078   1.474
19973SOL     OW61815   1.749  14.307  14.312
19973SOL    HW161816   1.818  14.269  14.367
19973SOL    HW261817   1.669  14.262  14.340
19974SOL     OW61818  11.486  10.150   0.958
19974SOL    HW161819  11.580  10.169   0.959
19974SOL    HW261820  11.470  10.117   0.869
19975SOL     OW61821   9.743  11.093   0.290
19975SOL    HW161822   9.691  11.150   0.232
19975SOL    HW261823   9.824  11.143   0.306
19976SOL     OW61824   2.164   1.643  12.643
19976SOL    HW161825   2.145   1.557  12.681
19976SOL    HW261826   2.083   1.692  12.655
19977SOL     OW61827  13.511   5.260  13.061
19977SOL    HW161828  13.510   5.167  13.081
19977SOL    HW261829  13.567   5.299  13.128
19978SOL     OW61830  13.693  10.904   9.057
19978SOL    HW161831  13.730  10.816   9.058
19978SOL    HW261832  13.669  10.921   9.148
19979SOL     OW61833   1.679   1.716   9.516
19979SOL    HW161834   1.767   1.730   9.552
19979SOL    HW261835   1.684   1.751   9.427
19980SOL     OW61836  12.824   8.932   1.093
19980SOL    HW161837  12.909   8.905   1.128
19980SOL    HW261838  12.834   9.025   1.074
19981SOL     OW61839   8.782   8.524   0.854
19981SOL    HW161840   8.841   8.599   0.847
19981SOL    HW261841   8.834   8.455   0.894
19982SOL     OW61842   7.676   8.237   2.288
19982SOL    HW161843   7.745   8.174   2.309
19982SOL    HW261844   7.596   8.196   2.322
19983SOL     OW61845  10.234  10.397  13.955
19983SOL    HW161846  10.180  10.373  13.880
19983SOL    HW261847  10.178  10.454  14.008
19984SOL     OW61848   2.216  12.795  11.817
19984SOL    HW161849   2.241  12.796  11.910
19984SOL    HW261850   2.186  12.706  11.801
19985SOL     OW61851   7.922   7.104  11.009
19985SOL    HW161852   8.017   7.116  10.999
19985SOL    HW261853   7.900   7.036  10.947
19986SOL     OW61854   2.791  10.477   6.209
19986SOL    HW161855   2.715  10.422   6.188
19986SOL    HW261856   2.781  10.554   6.153
19987SOL     OW61857  14.382  12.122   4.953
19987SOL    HW161858  14.477  12.115   4.944
19987SOL    HW261859  14.356  12.042   4.999
19988SOL     OW61860   7.522  12.487  11.999
19988SOL    HW161861   7.604  12.475  12.047
19988SOL    HW261862   7.541  12.456  11.911
19989SOL     OW61863   7.448  10.218  14.278
19989SOL    HW161864   7.537  10.199  14.308
19989SOL    HW261865   7.407  10.263  14.352
19990SOL     OW61866   2.083  14.100   2.106
19990SOL    HW161867   2.082  14.159   2.031
19990SOL    HW261868   2.146  14.139   2.167
19991SOL     OW61869   4.256   4.936  11.923
19991SOL    HW161870   4.244   4.846  11.953
19991SOL    HW261871   4.173   4.959  11.882
19992SOL     OW61872  11.001  11.365  13.156
19992SOL    HW161873  11.034  11.276  13.144
19992SOL    HW261874  10.982  11.396  13.068
19993SOL     OW61875   9.941  14.567   1.810
19993SOL    HW161876   9.967  14.620   1.735
19993SOL    HW261877  10.023  14.548   1.856
19994SOL     OW61878  10.405   6.969   8.813
19994SOL    HW161879  10.340   7.038   8.805
19994SOL    HW261880  10.489   7.013   8.802
19995SOL     OW61881   6.813   3.525   2.163
19995SOL    HW161882   6.788   3.583   2.235
19995SOL    HW261883   6.889   3.567   2.124
19996SOL     OW61884   2.853  13.744   0.971
19996SOL    HW161885   2.896  13.666   1.006
19996SOL    HW261886   2.763  13.717   0.955
19997SOL     OW61887   2.626  14.219  12.409
19997SOL    HW161888   2.617  14.292  12.470
19997SOL    HW261889   2.569  14.151  12.444
19998SOL     OW61890  13.994   1.889  10.334
19998SOL    HW161891  13.995   1.980  10.304
19998SOL    HW261892  14.082   1.857  10.314
19999SOL     OW61893   1.045   7.230   2.288
19999SOL    HW161894   1.135   7.235   2.320
19999SOL    HW261895   1.053   7.198   2.198
20000SOL     OW61896   6.194   6.916  10.646
20000SOL    HW161897   6.152   6.830  10.649
20000SOL    HW261898   6.170   6.951  10.560
20001SOL     OW61899  12.057  10.336   4.114
20001SOL    HW161900  11.999  10.296   4.050
20001SOL    HW261901  12.105  10.403   4.065
20002SOL     OW61902  11.472   7.871   8.842
20002SOL    HW161903  11.536   7.910   8.901
20002SOL    HW261904  11.387   7.900   8.875
20003SOL     OW61905   5.342   5.180   1.223
20003SOL    HW161906   5.302   5.237   1.157
20003SOL    HW261907   5.382   5.240   1.286
20004SOL     OW61908  11.693   5.712   5.025
20004SOL    HW161909  11.670   5.630   4.981
20004SOL    HW261910  11.650   5.705   5.111
20005SOL     OW61911   0.797   3.902  13.887
20005SOL    HW161912   0.769   3.954  13.812
20005SOL    HW261913   0.720   3.900  13.944
20006SOL     OW61914   2.811   1.894  11.532
20006SOL    HW161915   2.739   1.906  11.470
20006SOL    HW261916   2.776   1.833  11.597
20007SOL     OW61917   6.120   2.907  10.603
20007SOL    HW161918   6.168   2.867  10.530
20007SOL    HW261919   6.109   2.998  10.577
20008SOL     OW61920   8.694  11.074   3.918
20008SOL    HW161921   8.751  11.013   3.872
20008SOL    HW261922   8.613  11.076   3.866
20009SOL     OW61923   0.330  13.327  10.101
20009SOL    HW161924   0.281  13.247  10.084
20009SOL    HW261925   0.357  13.357  10.014
20010SOL     OW61926   5.099   6.233   4.418
20010SOL    HW161927   5.150   6.286   4.357
20010SOL    HW261928   5.111   6.275   4.503
20011SOL     OW61929   9.534  11.873  11.518
20011SOL    HW161930   9.535  11.884  11.613
20011SOL    HW261931   9.588  11.945  11.484
20012SOL     OW61932   5.537   1.371   8.481
20012SOL    HW161933   5.505   1.408   8.399
20012SOL    HW261934   5.579   1.444   8.526
20013SOL     OW61935  10.279   2.579   3.511
20013SOL    HW161936  10.257   2.671   3.527
20013SOL    HW261937  10.332   2.553   3.587
20014SOL     OW61938   8.049   3.206   7.672
20014SOL    HW161939   7.982   3.163   7.618
20014SOL    HW261940   8.000   3.262   7.732
20015SOL     OW61941   2.368   0.226   2.972
20015SOL    HW161942   2.456   0.200   2.997
20015SOL    HW261943   2.333   0.273   3.048
20016SOL     OW61944   1.539   2.457  10.125
20016SOL    HW161945   1.480   2.522  10.164
20016SOL    HW261946   1.595   2.430  10.198
20017SOL     OW61947   7.441   4.946   9.067
20017SOL    HW161948   7.402   4.937   8.980
20017SOL    HW261949   7.476   5.035   9.069
20018SOL     OW61950  13.579   5.367   5.422
20018SOL    HW161951  13.504   5.348   5.366
20018SOL    HW261952  13.619   5.281   5.438
20019SOL     OW61953   4.803   0.523   2.411
20019SOL    HW161954   4.775   0.578   2.338
20019SOL    HW261955   4.722   0.500   2.456
20020SOL     OW61956   1.083  11.752   6.419
20020SOL    HW161957   1.097  11.717   6.331
20020SOL    HW261958   1.128  11.837   6.419
20021SOL     OW61959  12.255   7.389   4.768
20021SOL    HW161960  12.278   7.321   4.831
20021SOL    HW261961  12.290   7.470   4.806
20022SOL     OW61962   5.513   0.840   0.987
20022SOL    HW161963   5.492   0.892   0.909
20022SOL    HW261964   5.607   0.827   0.983
20023SOL     OW61965   9.979   2.512   3.913
20023SOL    HW161966   9.885   2.531   3.911
20023SOL    HW261967   9.986   2.422   3.882
20024SOL     OW61968   3.121   2.306   2.465
20024SOL    HW161969   3.096   2.217   2.489
20024SOL    HW261970   3.139   2.349   2.548
20025SOL     OW61971   5.797  12.670   9.934
20025SOL    HW161972   5.871  12.714   9.976
20025SOL    HW261973   5.720  12.704   9.981
20026SOL     OW61974  11.357   4.066   5.221
20026SOL    HW161975  11.385   4.129   5.287
20026SOL    HW261976  11.285   4.018   5.263
20027SOL     OW61977   2.704   5.184   1.487
20027SOL    HW161978   2.644   5.231   1.430
20027SOL    HW261979   2.783   5.239   1.489
20028SOL     OW61980   6.945   5.593   7.073
20028SOL    HW161981   6.942   5.674   7.022
20028SOL    HW261982   7.021   5.604   7.130
20029SOL     OW61983   5.259  13.259  11.419
20029SOL    HW161984   5.331  13.298  11.469
20029SOL    HW261985   5.294  13.248  11.331
20030SOL     OW61986  10.320  10.865   6.049
20030SOL    HW161987  10.231  10.851   6.018
20030SOL    HW261988  10.351  10.941   6.000
20031SOL     OW61989   3.657  14.705  14.706
20031SOL    HW161990   3.626  14.615  14.693
20031SOL    HW261991   3.717  14.698  14.780
20032SOL     OW61992  12.502  10.838   4.010
20032SOL    HW161993  12.510  10.747   4.040
20032SOL    HW261994  12.522  10.890   4.088
20033SOL     OW61995   0.247  12.604  11.235
20033SOL    HW161996   0.323  12.562  11.196
20033SOL    HW261997   0.267  12.698  11.231
20034SOL     OW61998   6.896  10.318   0.388
20034SOL    HW161999   6.822  10.258   0.394
20034SOL    HW262000   6.968  10.272   0.430
20035SOL     OW62001   7.876   9.495   2.219
20035SOL    HW162002   7.906   9.552   2.290
20035SOL    HW262003   7.853   9.555   2.148
20036SOL     OW62004   7.105   2.343   7.594
20036SOL    HW162005   7.144   2.266   7.553
20036SOL    HW262006   7.169   2.369   7.660
20037SOL     OW62007   6.205  12.936   2.498
20037SOL    HW162008   6.114  12.923   2.524
20037SOL    HW262009   6.254  12.869   2.546
20038SOL     OW62010   6.889   1.102   2.469
20038SOL    HW162011   6.816   1.103   2.408
20038SOL    HW262012   6.850   1.122   2.554
20039SOL     OW62013   6.261   4.131   4.679
20039SOL    HW162014   6.180   4.081   4.690
20039SOL    HW262015   6.271   4.140   4.584
20040SOL     OW62016   2.740   9.724  14.343
20040SOL    HW162017   2.657   9.688  14.311
20040SOL    HW262018   2.716   9.772  14.422
20041SOL     OW62019   1.799  10.146  14.624
20041SOL    HW162020   1.785  10.204  14.549
20041SOL    HW262021   1.743  10.070  14.605
20042SOL     OW62022   8.849  12.715   0.246
20042SOL    HW162023   8.824  12.807   0.257
20042SOL    HW262024   8.943  12.713   0.261
20043SOL     OW62025  10.163   0.335  13.034
20043SOL    HW162026  10.174   0.240  13.041
20043SOL    HW262027  10.213   0.359  12.956
20044SOL     OW62028  10.081   8.880   2.268
20044SOL    HW162029  10.018   8.944   2.234
20044SOL    HW262030  10.165   8.907   2.232
20045SOL     OW62031   2.523   0.022   6.205
20045SOL    HW162032   2.604  14.852   6.218
20045SOL    HW262033   2.547   0.091   6.144
20046SOL     OW62034  13.318   6.766   5.119
20046SOL    HW162035  13.313   6.852   5.161
20046SOL    HW262036  13.334   6.785   5.027
20047SOL     OW62037  12.460  13.467   5.441
20047SOL    HW162038  12.440  13.532   5.375
20047SOL    HW262039  12.408  13.390   5.416
20048SOL     OW62040   4.532   1.185  14.549
20048SOL    HW162041   4.561   1.228  14.630
20048SOL    HW262042   4.459   1.239  14.518
20049SOL     OW62043  14.805   0.755  13.795
20049SOL    HW162044   0.012   0.731  13.765
20049SOL    HW262045  14.819   0.801  13.877
20050SOL     OW62046  12.682   8.103  13.493
20050SOL    HW162047  12.666   8.009  13.485
20050SOL    HW262048  12.661   8.139  13.407
20051SOL     OW62049   1.231   8.069   8.511
20051SOL    HW162050   1.195   7.990   8.471
20051SOL    HW262051   1.316   8.082   8.468
20052SOL     OW62052  13.581  13.659   4.822
20052SOL    HW162053  13.530  13.582   4.845
20052SOL    HW262054  13.659  13.654   4.876
20053SOL     OW62055   1.266   8.727  11.708
20053SOL    HW162056   1.195   8.780  11.672
20053SOL    HW262057   1.228   8.641  11.722
20054SOL     OW62058  12.908   9.511  12.951
20054SOL    HW162059  12.878   9.599  12.927
20054SOL    HW262060  12.890   9.504  13.045
20055SOL     OW62061   2.834  10.758   0.429
20055SOL    HW162062   2.919  10.741   0.390
20055SOL    HW262063   2.779  10.788   0.356
20056SOL     OW62064   6.950   4.703   6.243
20056SOL    HW162065   6.945   4.795   6.272
20056SOL    HW262066   7.041   4.679   6.257
20057SOL     OW62067   1.502   3.565  10.098
20057SOL    HW162068   1.574   3.502  10.105
20057SOL    HW262069   1.496   3.585  10.005
20058SOL     OW62070   9.022   3.386   5.387
20058SOL    HW162071   9.049   3.340   5.466
20058SOL    HW262072   9.004   3.476   5.415
20059SOL     OW62073   7.200   1.238   8.833
20059SOL    HW162074   7.241   1.167   8.882
20059SOL    HW262075   7.110   1.242   8.866
20060SOL     OW62076   9.297   1.054  10.745
20060SOL    HW162077   9.316   0.965  10.774
20060SOL    HW262078   9.224   1.044  10.683
20061SOL     OW62079   7.853   9.556  11.140
20061SOL    HW162080   7.896   9.624  11.089
20061SOL    HW262081   7.835   9.486  11.078
20062SOL     OW62082   6.285   3.674   6.400
20062SOL    HW162083   6.255   3.636   6.317
20062SOL    HW262084   6.367   3.717   6.377
20063SOL     OW62085  14.768   9.464   6.219
20063SOL    HW162086  14.689   9.517   6.214
20063SOL    HW262087  14.744   9.388   6.272
20064SOL     OW62088  12.761  11.328  11.316
20064SOL    HW162089  12.705  11.370  11.251
20064SOL    HW262090  12.808  11.261  11.267
20065SOL     OW62091   8.545   4.485  12.783
20065SOL    HW162092   8.615   4.479  12.718
20065SOL    HW262093   8.576   4.433  12.857
20066SOL     OW62094  14.325   0.402   5.652
20066SOL    HW162095  14.290   0.444   5.574
20066SOL    HW262096  14.420   0.412   5.645
20067SOL     OW62097   8.761   8.345   5.140
20067SOL    HW162098   8.687   8.399   5.167
20067SOL    HW262099   8.792   8.304   5.221
20068SOL     OW62100   7.316  14.327   0.536
20068SOL    HW162101   7.279  14.311   0.623
20068SOL    HW262102   7.244  14.363   0.485
20069SOL     OW62103   5.327   5.239   4.942
20069SOL    HW162104   5.307   5.155   4.983
20069SOL    HW262105   5.411   5.264   4.979
20070SOL     OW62106   8.864   9.836  11.008
20070SOL    HW162107   8.949   9.874  10.985
20070SOL    HW262108   8.806   9.864  10.938
20071SOL     OW62109  12.455   2.337  10.308
20071SOL    HW162110  12.511   2.308  10.236
20071SOL    HW262111  12.480   2.281  10.382
20072SOL     OW62112   9.844   7.652  14.738
20072SOL    HW162113   9.780   7.719  14.719
20072SOL    HW262114   9.912   7.663  14.672
20073SOL     OW62115  14.854   4.011   3.588
20073SOL    HW162116   0.052   3.993   3.535
20073SOL    HW262117  14.832   3.926   3.627
20074SOL     OW62118   9.031  13.635   9.158
20074SOL    HW162119   9.003  13.577   9.087
20074SOL    HW262120   8.960  13.700   9.165
20075SOL     OW62121  10.663  13.619  12.203
20075SOL    HW162122  10.659  13.632  12.108
20075SOL    HW262123  10.731  13.552  12.215
20076SOL     OW62124   2.755   6.436   5.673
20076SOL    HW162125   2.667   6.399   5.680
20076SOL    HW262126   2.801   6.404   5.751
20077SOL     OW62127  12.009   3.534   0.467
20077SOL    HW162128  11.930   3.481   0.461
20077SOL    HW262129  12.029   3.536   0.561
20078SOL     OW62130   2.626   8.299   9.807
20078SOL    HW162131   2.622   8.327   9.716
20078SOL    HW262132   2.667   8.213   9.804
20079SOL     OW62133   6.101  14.781   8.608
20079SOL    HW162134   6.179  14.808   8.657
20079SOL    HW262135   6.033  14.770   8.675
20080SOL     OW62136   9.062   7.765   1.208
20080SOL    HW162137   8.972   7.748   1.180
20080SOL    HW262138   9.086   7.845   1.163
20081SOL     OW62139   2.167  11.555   1.553
20081SOL    HW162140   2.191  11.463   1.547
20081SOL    HW262141   2.071  11.556   1.554
20082SOL     OW62142   6.670  11.371   6.484
20082SOL    HW162143   6.624  11.444   6.441
20082SOL    HW262144   6.760  11.401   6.493
20083SOL     OW62145   6.424   2.761   8.433
20083SOL    HW162146   6.443   2.696   8.501
20083SOL    HW262147   6.460   2.724   8.353
20084SOL     OW62148   4.364   4.662   3.131
20084SOL    HW162149   4.365   4.632   3.040
20084SOL    HW262150   4.349   4.583   3.182
20085SOL     OW62151   6.683   9.383  14.123
20085SOL    HW162152   6.727   9.421  14.047
20085SOL    HW262153   6.705   9.290  14.119
20086SOL     OW62154  11.866   2.546  11.668
20086SOL    HW162155  11.814   2.594  11.732
20086SOL    HW262156  11.954   2.546  11.705
20087SOL     OW62157   1.946   9.185   9.456
20087SOL    HW162158   1.889   9.125   9.504
20087SOL    HW262159   2.034   9.153   9.473
20088SOL     OW62160   8.560  14.245   1.880
20088SOL    HW162161   8.521  14.331   1.864
20088SOL    HW262162   8.645  14.248   1.835
20089SOL     OW62163  11.207  12.247   6.062
20089SOL    HW162164  11.122  12.206   6.049
20089SOL    HW262165  11.236  12.270   5.973
20090SOL     OW62166  13.622  12.655   1.344
20090SOL    HW162167  13.631  12.748   1.323
20090SOL    HW262168  13.606  12.654   1.439
20091SOL     OW62169   5.516  13.478  10.742
20091SOL    HW162170   5.532  13.383  10.737
20091SOL    HW262171   5.521  13.508  10.651
20092SOL     OW62172   8.292   8.581  13.928
20092SOL    HW162173   8.345   8.589  13.849
20092SOL    HW262174   8.260   8.491  13.926
20093SOL     OW62175   3.526   6.086   6.961
20093SOL    HW162176   3.582   6.055   7.032
20093SOL    HW262177   3.511   6.179   6.982
20094SOL     OW62178  11.662   1.671  13.143
20094SOL    HW162179  11.662   1.576  13.156
20094SOL    HW262180  11.735   1.687  13.083
20095SOL     OW62181   6.495   3.219   3.892
20095SOL    HW162182   6.543   3.292   3.930
20095SOL    HW262183   6.531   3.208   3.804
20096SOL     OW62184  10.515   0.095  13.028
20096SOL    HW162185  10.608   0.075  13.040
20096SOL    HW262186  10.513   0.169  12.968
20097SOL     OW62187   0.387  11.395   5.337
20097SOL    HW162188   0.314  11.333   5.330
20097SOL    HW262189   0.357  11.474   5.292
20098SOL     OW62190  13.435   7.663  14.714
20098SOL    HW162191  13.422   7.628  14.626
20098SOL    HW262192  13.500   7.733  14.703
20099SOL     OW62193  14.485  10.972   3.158
20099SOL    HW162194  14.490  11.042   3.223
20099SOL    HW262195  14.396  10.977   3.124
20100SOL     OW62196   4.629   2.020  10.700
20100SOL    HW162197   4.646   1.958  10.771
20100SOL    HW262198   4.708   2.074  10.695
20101SOL     OW62199   8.880  12.592   7.389
20101SOL    HW162200   8.788  12.565   7.383
20101SOL    HW262201   8.927  12.522   7.343
20102SOL     OW62202   1.077   5.496   6.290
20102SOL    HW162203   1.133   5.422   6.312
20102SOL    HW262204   1.030   5.515   6.371
20103SOL     OW62205   5.631   7.303   4.397
20103SOL    HW162206   5.567   7.276   4.463
20103SOL    HW262207   5.640   7.226   4.340
20104SOL     OW62208   0.392   1.005   1.184
20104SOL    HW162209   0.459   0.944   1.215
20104SOL    HW262210   0.309   0.963   1.206
20105SOL     OW62211   3.988   1.320  12.186
20105SOL    HW162212   3.939   1.243  12.213
20105SOL    HW262213   3.927   1.393  12.195
20106SOL     OW62214   4.153  13.295   7.274
20106SOL    HW162215   4.141  13.211   7.230
20106SOL    HW262216   4.109  13.358   7.217
20107SOL     OW62217  11.745  11.261   7.504
20107SOL    HW162218  11.805  11.189   7.489
20107SOL    HW262219  11.669  11.222   7.547
20108SOL     OW62220  11.037   9.874  14.381
20108SOL    HW162221  11.055   9.835  14.296
20108SOL    HW262222  10.976   9.945  14.363
20109SOL     OW62223   2.420   2.280  12.367
20109SOL    HW162224   2.347   2.271  12.428
20109SOL    HW262225   2.472   2.201  12.381
20110SOL     OW62226   2.030  10.027   7.216
20110SOL    HW162227   2.091   9.974   7.164
20110SOL    HW262228   2.017  10.106   7.164
20111SOL     OW62229   0.391   1.180   2.531
20111SOL    HW162230   0.374   1.173   2.437
20111SOL    HW262231   0.315   1.142   2.573
20112SOL     OW62232   9.714   7.893   3.534
20112SOL    HW162233   9.714   7.905   3.439
20112SOL    HW262234   9.760   7.810   3.547
20113SOL     OW62235  13.372   1.197  13.949
20113SOL    HW162236  13.318   1.174  14.025
20113SOL    HW262237  13.436   1.259  13.983
20114SOL     OW62238   4.351   4.965   8.537
20114SOL    HW162239   4.407   4.901   8.581
20114SOL    HW262240   4.411   5.019   8.486
20115SOL     OW62241  14.296   1.987   8.826
20115SOL    HW162242  14.332   1.901   8.844
20115SOL    HW262243  14.265   2.020   8.911
20116SOL     OW62244   6.017   2.639   0.613
20116SOL    HW162245   6.013   2.594   0.698
20116SOL    HW262246   5.931   2.679   0.603
20117SOL     OW62247  11.003  11.426  10.726
20117SOL    HW162248  11.093  11.417  10.760
20117SOL    HW262249  10.952  11.456  10.801
20118SOL     OW62250   0.492   5.593   2.039
20118SOL    HW162251   0.524   5.564   1.953
20118SOL    HW262252   0.530   5.530   2.101
20119SOL     OW62253  12.456   2.495   0.718
20119SOL    HW162254  12.441   2.587   0.739
20119SOL    HW262255  12.372   2.453   0.733
20120SOL     OW62256  13.586   3.021   1.194
20120SOL    HW162257  13.552   3.030   1.105
20120SOL    HW262258  13.561   3.102   1.238
20121SOL     OW62259  13.801  10.592   3.701
20121SOL    HW162260  13.846  10.665   3.659
20121SOL    HW262261  13.709  10.619   3.705
20122SOL     OW62262   3.869   8.275   9.391
20122SOL    HW162263   3.855   8.191   9.434
20122SOL    HW262264   3.791   8.289   9.338
20123SOL     OW62265   1.641  11.907   0.838
20123SOL    HW162266   1.728  11.878   0.811
20123SOL    HW262267   1.585  11.892   0.762
20124SOL     OW62268   9.586   0.146   4.405
20124SOL    HW162269   9.553   0.093   4.332
20124SOL    HW262270   9.518   0.212   4.418
20125SOL     OW62271   4.843   5.371   4.828
20125SOL    HW162272   4.853   5.310   4.901
20125SOL    HW262273   4.749   5.389   4.824
20126SOL     OW62274   0.826  13.319   5.858
20126SOL    HW162275   0.856  13.409   5.860
20126SOL    HW262276   0.731  13.325   5.848
20127SOL     OW62277   0.197   0.215   1.585
20127SOL    HW162278   0.217   0.121   1.587
20127SOL    HW262279   0.137   0.225   1.512
20128SOL     OW62280  12.671  12.231   5.835
20128SOL    HW162281  12.687  12.212   5.928
20128SOL    HW262282  12.696  12.150   5.790
20129SOL     OW62283   1.608  12.550  10.255
20129SOL    HW162284   1.565  12.466  10.243
20129SOL    HW262285   1.569  12.586  10.335
20130SOL     OW62286  12.855   0.526   5.889
20130SOL    HW162287  12.817   0.592   5.832
20130SOL    HW262288  12.943   0.558   5.908
20131SOL     OW62289  13.720   6.851  14.309
20131SOL    HW162290  13.743   6.916  14.242
20131SOL    HW262291  13.802   6.805  14.326
20132SOL     OW62292   6.087  11.175   8.176
20132SOL    HW162293   6.124  11.094   8.211
20132SOL    HW262294   6.144  11.197   8.102
20133SOL     OW62295   3.856   4.823  13.357
20133SOL    HW162296   3.885   4.733  13.374
20133SOL    HW262297   3.890   4.844  13.270
20134SOL     OW62298  14.027   4.501   6.630
20134SOL    HW162299  14.056   4.580   6.585
20134SOL    HW262300  14.040   4.520   6.723
20135SOL     OW62301   3.674   5.264  13.557
20135SOL    HW162302   3.624   5.279  13.477
20135SOL    HW262303   3.722   5.183  13.540
20136SOL     OW62304   5.431   6.127   4.038
20136SOL    HW162305   5.428   6.063   4.109
20136SOL    HW262306   5.360   6.188   4.057
20137SOL     OW62307  13.582   5.165  13.434
20137SOL    HW162308  13.668   5.141  13.400
20137SOL    HW262309  13.600   5.228  13.504
20138SOL     OW62310   4.011   5.269   4.143
20138SOL    HW162311   4.095   5.312   4.158
20138SOL    HW262312   4.034   5.177   4.130
20139SOL     OW62313   4.324   4.240  12.965
20139SOL    HW162314   4.236   4.239  12.926
20139SOL    HW262315   4.376   4.185  12.906
20140SOL     OW62316   2.799   9.460   3.225
20140SOL    HW162317   2.752   9.422   3.151
20140SOL    HW262318   2.874   9.505   3.186
20141SOL     OW62319   4.068  13.915   4.674
20141SOL    HW162320   4.143  13.857   4.687
20141SOL    HW262321   4.099  14.001   4.701
20142SOL     OW62322   5.979  14.760  11.886
20142SOL    HW162323   5.955  14.686  11.830
20142SOL    HW262324   6.072  14.773  11.870
20143SOL     OW62325   5.192  12.198   3.277
20143SOL    HW162326   5.099  12.209   3.259
20143SOL    HW262327   5.207  12.248   3.357
20144SOL     OW62328  10.955  14.639   6.960
20144SOL    HW162329  10.977  14.728   6.988
20144SOL    HW262330  11.019  14.583   7.005
20145SOL     OW62331  13.718   2.409   0.914
20145SOL    HW162332  13.719   2.377   0.824
20145SOL    HW262333  13.767   2.343   0.964
20146SOL     OW62334  14.436  13.234  14.858
20146SOL    HW162335  14.396  13.161   0.025
20146SOL    HW262336  14.489  13.192  14.790
20147SOL     OW62337  13.260   9.511   8.543
20147SOL    HW162338  13.237   9.562   8.621
20147SOL    HW262339  13.345   9.545   8.517
20148SOL     OW62340   1.592   2.015   4.241
20148SOL    HW162341   1.681   2.043   4.265
20148SOL    HW262342   1.535   2.068   4.296
20149SOL     OW62343   6.290   5.331  13.931
20149SOL    HW162344   6.218   5.275  13.962
20149SOL    HW262345   6.361   5.270  13.911
20150SOL     OW62346   6.466   2.478  10.586
20150SOL    HW162347   6.398   2.545  10.596
20150SOL    HW262348   6.454   2.445  10.497
20151SOL     OW62349   7.316   1.049  12.061
20151SOL    HW162350   7.237   1.099  12.082
20151SOL    HW262351   7.299   1.013  11.974
20152SOL     OW62352   2.872   9.688   2.555
20152SOL    HW162353   2.967   9.704   2.558
20152SOL    HW262354   2.838   9.735   2.631
20153SOL     OW62355  13.742   6.639  12.264
20153SOL    HW162356  13.693   6.594  12.334
20153SOL    HW262357  13.741   6.731  12.290
20154SOL     OW62358   3.386   9.463   5.283
20154SOL    HW162359   3.415   9.510   5.362
20154SOL    HW262360   3.327   9.525   5.240
20155SOL     OW62361  13.544  14.874   6.608
20155SOL    HW162362  13.630   0.035   6.599
20155SOL    HW262363  13.504   0.038   6.682
20156SOL     OW62364   8.250   7.394   2.660
20156SOL    HW162365   8.331   7.361   2.621
20156SOL    HW262366   8.272   7.480   2.695
20157SOL     OW62367   4.756   3.783   2.697
20157SOL    HW162368   4.846   3.805   2.672
20157SOL    HW262369   4.702   3.816   2.625
20158SOL     OW62370   6.184  13.874   1.573
20158SOL    HW162371   6.227  13.825   1.503
20158SOL    HW262372   6.206  13.966   1.554
20159SOL     OW62373   3.859  12.671   0.282
20159SOL    HW162374   3.924  12.634   0.222
20159SOL    HW262375   3.822  12.746   0.235
20160SOL     OW62376  14.031  10.482   1.444
20160SOL    HW162377  13.979  10.416   1.398
20160SOL    HW262378  14.023  10.561   1.390
20161SOL     OW62379   6.002   3.001   3.702
20161SOL    HW162380   5.957   3.077   3.739
20161SOL    HW262381   5.949   2.926   3.729
20162SOL     OW62382   0.561   1.854   0.199
20162SOL    HW162383   0.470   1.840   0.226
20162SOL    HW262384   0.610   1.784   0.243
20163SOL     OW62385   5.374  12.894  11.690
20163SOL    HW162386   5.453  12.945  11.671
20163SOL    HW262387   5.304  12.942  11.646
20164SOL     OW62388   1.993   0.234   5.866
20164SOL    HW162389   2.047   0.284   5.806
20164SOL    HW262390   2.054   0.200   5.932
20165SOL     OW62391   4.496   4.855  12.804
20165SOL    HW162392   4.476   4.916  12.732
20165SOL    HW262393   4.581   4.885  12.838
20166SOL     OW62394   5.842  14.184  13.258
20166SOL    HW162395   5.908  14.139  13.309
20166SOL    HW262396   5.838  14.272  13.296
20167SOL     OW62397   9.838   7.939  13.147
20167SOL    HW162398   9.863   7.978  13.064
20167SOL    HW262399   9.746   7.964  13.159
20168SOL     OW62400   3.923   3.213  13.764
20168SOL    HW162401   3.931   3.285  13.702
20168SOL    HW262402   3.835   3.180  13.751
20169SOL     OW62403   5.948   3.644   8.262
20169SOL    HW162404   5.911   3.555   8.258
20169SOL    HW262405   5.901   3.692   8.194
20170SOL     OW62406   1.621   1.300   4.500
20170SOL    HW162407   1.623   1.381   4.552
20170SOL    HW262408   1.548   1.250   4.536
20171SOL     OW62409   0.886   0.372   3.633
20171SOL    HW162410   0.946   0.305   3.665
20171SOL    HW262411   0.847   0.409   3.712
20172SOL     OW62412  10.727   1.244  11.539
20172SOL    HW162413  10.748   1.337  11.538
20172SOL    HW262414  10.787   1.206  11.603
20173SOL     OW62415  13.055  11.563   3.679
20173SOL    HW162416  13.085  11.654   3.681
20173SOL    HW262417  12.972  11.566   3.632
20174SOL     OW62418   5.588  14.704  11.928
20174SOL    HW162419   5.549  14.745  11.851
20174SOL    HW262420   5.639  14.774  11.969
20175SOL     OW62421   9.491  11.379   4.320
20175SOL    HW162422   9.586  11.393   4.329
20175SOL    HW262423   9.484  11.297   4.270
20176SOL     OW62424   2.277   2.338   1.890
20176SOL    HW162425   2.272   2.422   1.843
20176SOL    HW262426   2.213   2.282   1.846
20177SOL     OW62427   7.152   6.095   8.661
20177SOL    HW162428   7.100   6.175   8.660
20177SOL    HW262429   7.241   6.123   8.638
20178SOL     OW62430   1.914  13.156  12.014
20178SOL    HW162431   1.978  13.162  11.944
20178SOL    HW262432   1.849  13.224  11.994
20179SOL     OW62433  12.664   2.285   8.979
20179SOL    HW162434  12.684   2.216   9.041
20179SOL    HW262435  12.571   2.273   8.958
20180SOL     OW62436  11.467   3.841   4.165
20180SOL    HW162437  11.397   3.823   4.228
20180SOL    HW262438  11.524   3.903   4.210
20181SOL     OW62439  10.099   7.752   3.663
20181SOL    HW162440  10.142   7.676   3.626
20181SOL    HW262441  10.040   7.717   3.730
20182SOL     OW62442   7.650   8.273   2.782
20182SOL    HW162443   7.622   8.184   2.757
20182SOL    HW262444   7.745   8.268   2.784
20183SOL     OW62445  14.709   6.425   1.454
20183SOL    HW162446  14.664   6.341   1.450
20183SOL    HW262447  14.774   6.414   1.523
20184SOL     OW62448  11.088   9.381  10.530
20184SOL    HW162449  11.106   9.439  10.604
20184SOL    HW262450  11.160   9.398  10.469
20185SOL     OW62451   2.782   1.457   2.020
20185SOL    HW162452   2.811   1.418   1.938
20185SOL    HW262453   2.863   1.485   2.063
20186SOL     OW62454  13.838   9.433   1.718
20186SOL    HW162455  13.777   9.475   1.658
20186SOL    HW262456  13.804   9.345   1.731
20187SOL     OW62457  13.234   9.565  12.203
20187SOL    HW162458  13.250   9.650  12.161
20187SOL    HW262459  13.207   9.587  12.292
20188SOL     OW62460  12.913  11.418   7.207
20188SOL    HW162461  12.885  11.356   7.139
20188SOL    HW262462  12.833  11.466   7.228
20189SOL     OW62463   8.830   8.739  10.115
20189SOL    HW162464   8.903   8.791  10.080
20189SOL    HW262465   8.756   8.801  10.117
20190SOL     OW62466  11.611   3.865   4.734
20190SOL    HW162467  11.693   3.828   4.700
20190SOL    HW262468  11.565   3.790   4.772
20191SOL     OW62469   9.436  11.767  10.431
20191SOL    HW162470   9.369  11.699  10.445
20191SOL    HW262471   9.423  11.795  10.341
20192SOL     OW62472   1.975  12.217   7.773
20192SOL    HW162473   1.937  12.160   7.839
20192SOL    HW262474   2.011  12.291   7.823
20193SOL     OW62475   9.903   8.364  10.188
20193SOL    HW162476   9.960   8.302  10.234
20193SOL    HW262477   9.939   8.450  10.209
20194SOL     OW62478   8.652  10.670   6.275
20194SOL    HW162479   8.690  10.746   6.231
20194SOL    HW262480   8.710  10.597   6.250
20195SOL     OW62481   1.014   1.142  11.165
20195SOL    HW162482   1.018   1.159  11.071
20195SOL    HW262483   0.926   1.169  11.191
20196SOL     OW62484  10.765   1.489  14.107
20196SOL    HW162485  10.726   1.454  14.187
20196SOL    HW262486  10.760   1.418  14.044
20197SOL     OW62487   1.060   8.863   0.045
20197SOL    HW162488   1.084   8.909   0.125
20197SOL    HW262489   1.132   8.882  14.865
20198SOL     OW62490  14.350  10.062   2.411
20198SOL    HW162491  14.300  10.059   2.493
20198SOL    HW262492  14.431  10.015   2.429
20199SOL     OW62493   7.953   9.151  13.645
20199SOL    HW162494   7.895   9.148  13.721
20199SOL    HW262495   7.920   9.083  13.587
20200SOL     OW62496   4.967  11.632   0.953
20200SOL    HW162497   5.057  11.616   0.983
20200SOL    HW262498   4.933  11.699   1.012
20201SOL     OW62499  14.848   2.137  11.085
20201SOL    HW162500  14.830   2.046  11.063
20201SOL    HW262501   0.061   2.148  11.070
20202SOL     OW62502   1.415  12.737   4.395
20202SOL    HW162503   1.484  12.782   4.443
20202SOL    HW262504   1.435  12.644   4.406
20203SOL     OW62505   4.666   3.747   4.415
20203SOL    HW162506   4.704   3.696   4.343
20203SOL    HW262507   4.706   3.710   4.494
20204SOL     OW62508   2.640   1.196  13.530
20204SOL    HW162509   2.548   1.169  13.539
20204SOL    HW262510   2.682   1.162  13.608
20205SOL     OW62511   7.943   0.106   9.794
20205SOL    HW162512   7.963   0.021   9.754
20205SOL    HW262513   8.008   0.117   9.863
20206SOL     OW62514   2.935   6.226  14.222
20206SOL    HW162515   2.890   6.291  14.277
20206SOL    HW262516   3.027   6.232  14.248
20207SOL     OW62517  10.074  12.781   9.354
20207SOL    HW162518  10.117  12.865   9.369
20207SOL    HW262519  10.077  12.770   9.259
20208SOL     OW62520   0.420  10.261   6.089
20208SOL    HW162521   0.364  10.254   6.012
20208SOL    HW262522   0.442  10.354   6.094
20209SOL     OW62523  10.579   2.568  10.459
20209SOL    HW162524  10.673   2.584  10.466
20209SOL    HW262525  10.571   2.474  10.446
20210SOL     OW62526   7.690  14.738   9.493
20210SOL    HW162527   7.761  14.679   9.519
20210SOL    HW262528   7.714  14.823   9.531
20211SOL     OW62529   3.845  11.256   8.881
20211SOL    HW162530   3.753  11.245   8.857
20211SOL    HW262531   3.879  11.316   8.814
20212SOL     OW62532   7.265  10.478  12.490
20212SOL    HW162533   7.206  10.408  12.463
20212SOL    HW262534   7.336  10.476  12.426
20213SOL     OW62535   9.041   2.293  10.766
20213SOL    HW162536   9.134   2.290  10.785
20213SOL    HW262537   9.021   2.208  10.726
20214SOL     OW62538   1.489   4.202   5.832
20214SOL    HW162539   1.407   4.168   5.867
20214SOL    HW262540   1.482   4.190   5.738
20215SOL     OW62541  11.838   1.706  14.039
20215SOL    HW162542  11.921   1.753  14.048
20215SOL    HW262543  11.815   1.716  13.946
20216SOL     OW62544  14.118   5.097  10.235
20216SOL    HW162545  14.176   5.173  10.228
20216SOL    HW262546  14.035   5.126  10.198
20217SOL     OW62547  10.271   8.262  14.509
20217SOL    HW162548  10.263   8.355  14.491
20217SOL    HW262549  10.270   8.255  14.604
20218SOL     OW62550  11.076   1.396   3.595
20218SOL    HW162551  11.076   1.491   3.599
20218SOL    HW262552  11.146   1.369   3.654
20219SOL     OW62553   2.428   9.110   3.251
20219SOL    HW162554   2.447   9.024   3.288
20219SOL    HW262555   2.352   9.142   3.300
20220SOL     OW62556   2.989   1.337   7.815
20220SOL    HW162557   2.994   1.251   7.857
20220SOL    HW262558   3.073   1.345   7.769
20221SOL     OW62559   1.271  10.245   1.678
20221SOL    HW162560   1.176  10.249   1.684
20221SOL    HW262561   1.293  10.155   1.700
20222SOL     OW62562   9.606   5.620  13.249
20222SOL    HW162563   9.538   5.639  13.185
20222SOL    HW262564   9.563   5.566  13.315
20223SOL     OW62565   9.309   7.825   0.242
20223SOL    HW162566   9.263   7.890   0.189
20223SOL    HW262567   9.252   7.748   0.242
20224SOL     OW62568  13.113   9.119   4.549
20224SOL    HW162569  13.135   9.207   4.519
20224SOL    HW262570  13.104   9.127   4.644
20225SOL     OW62571   1.265   7.533   0.070
20225SOL    HW162572   1.346   7.533   0.120
20225SOL    HW262573   1.211   7.601   0.112
20226SOL     OW62574  13.044  11.481  11.895
20226SOL    HW162575  13.060  11.472  11.801
20226SOL    HW262576  13.104  11.420  11.936
20227SOL     OW62577  12.875   2.541   7.419
20227SOL    HW162578  12.839   2.453   7.433
20227SOL    HW262579  12.812   2.600   7.462
20228SOL     OW62580  12.646   8.409   1.155
20228SOL    HW162581  12.557   8.399   1.189
20228SOL    HW262582  12.638   8.477   1.088
20229SOL     OW62583  13.436   8.840  13.440
20229SOL    HW162584  13.360   8.783  13.432
20229SOL    HW262585  13.479   8.835  13.355
20230SOL     OW62586   9.820   9.017   3.692
20230SOL    HW162587   9.817   9.052   3.781
20230SOL    HW262588   9.909   9.036   3.662
20231SOL     OW62589   2.130   5.179  11.118
20231SOL    HW162590   2.147   5.116  11.188
20231SOL    HW262591   2.040   5.208  11.134
20232SOL     OW62592   5.335   2.396   7.508
20232SOL    HW162593   5.370   2.462   7.567
20232SOL    HW262594   5.297   2.330   7.565
20233SOL     OW62595   4.725   5.661   1.459
20233SOL    HW162596   4.789   5.598   1.425
20233SOL    HW262597   4.688   5.702   1.380
20234SOL     OW62598  14.755  12.832   8.626
20234SOL    HW162599  14.811  12.763   8.663
20234SOL    HW262600  14.815  12.902   8.602
20235SOL     OW62601   1.460   3.809   5.509
20235SOL    HW162602   1.546   3.792   5.470
20235SOL    HW262603   1.480   3.859   5.588
20236SOL     OW62604   3.107  14.573   2.050
20236SOL    HW162605   3.153  14.656   2.060
20236SOL    HW262606   3.039  14.574   2.117
20237SOL     OW62607  10.598   5.520  14.461
20237SOL    HW162608  10.531   5.585  14.481
20237SOL    HW262609  10.636   5.550  14.378
20238SOL     OW62610   9.691   0.749   9.935
20238SOL    HW162611   9.709   0.733  10.028
20238SOL    HW262612   9.768   0.796   9.904
20239SOL     OW62613  12.562   4.966   8.443
20239SOL    HW162614  12.553   4.874   8.466
20239SOL    HW262615  12.547   4.969   8.349
20240SOL     OW62616  14.524   3.888   1.893
20240SOL    HW162617  14.468   3.883   1.815
20240SOL    HW262618  14.480   3.950   1.951
20241SOL     OW62619   2.208  10.683   7.988
20241SOL    HW162620   2.229  10.691   7.895
20241SOL    HW262621   2.287  10.714   8.032
20242SOL     OW62622   2.319   5.735   2.256
20242SOL    HW162623   2.294   5.673   2.188
20242SOL    HW262624   2.412   5.749   2.243
20243SOL     OW62625  14.358   4.134  12.781
20243SOL    HW162626  14.278   4.096  12.819
20243SOL    HW262627  14.421   4.062  12.779
20244SOL     OW62628   3.037   0.953   9.104
20244SOL    HW162629   3.034   1.038   9.149
20244SOL    HW262630   3.123   0.952   9.061
20245SOL     OW62631   8.226  11.385   3.001
20245SOL    HW162632   8.223  11.349   3.089
20245SOL    HW262633   8.279  11.322   2.951
20246SOL     OW62634   9.089   7.730   4.063
20246SOL    HW162635   9.051   7.659   4.012
20246SOL    HW262636   9.128   7.687   4.140
20247SOL     OW62637  11.882   0.045   0.462
20247SOL    HW162638  11.796   0.087   0.469
20247SOL    HW262639  11.924   0.065   0.545
20248SOL     OW62640   2.659  13.528   8.121
20248SOL    HW162641   2.691  13.446   8.158
20248SOL    HW262642   2.640  13.507   8.029
20249SOL     OW62643  13.643   5.845   2.556
20249SOL    HW162644  13.552   5.838   2.584
20249SOL    HW262645  13.686   5.893   2.628
20250SOL     OW62646   4.627   1.590   0.081
20250SOL    HW162647   4.689   1.595   0.154
20250SOL    HW262648   4.638   1.673   0.034
20251SOL     OW62649   7.579  14.605   8.138
20251SOL    HW162650   7.532  14.523   8.122
20251SOL    HW262651   7.525  14.673   8.099
20252SOL     OW62652  10.396   4.726   2.576
20252SOL    HW162653  10.375   4.654   2.517
20252SOL    HW262654  10.490   4.719   2.590
20253SOL     OW62655  11.064   8.233   8.792
20253SOL    HW162656  11.117   8.191   8.859
20253SOL    HW262657  11.126   8.280   8.737
20254SOL     OW62658   4.898   6.344   0.573
20254SOL    HW162659   4.812   6.386   0.568
20254SOL    HW262660   4.879   6.254   0.599
20255SOL     OW62661  12.949  14.815  14.604
20255SOL    HW162662  12.963  14.721  14.617
20255SOL    HW262663  12.860  14.821  14.571
20256SOL     OW62664   1.447   8.627   7.262
20256SOL    HW162665   1.423   8.712   7.297
20256SOL    HW262666   1.375   8.569   7.287
20257SOL     OW62667  10.294  10.851  12.564
20257SOL    HW162668  10.319  10.850  12.656
20257SOL    HW262669  10.304  10.942  12.537
20258SOL     OW62670   3.491   3.705   1.490
20258SOL    HW162671   3.532   3.704   1.403
20258SOL    HW262672   3.498   3.796   1.519
20259SOL     OW62673   5.983   5.935   2.299
20259SOL    HW162674   5.953   5.877   2.369
20259SOL    HW262675   6.028   5.878   2.237
20260SOL     OW62676  11.382   6.307  13.293
20260SOL    HW162677  11.456   6.350  13.249
20260SOL    HW262678  11.337   6.377  13.340
20261SOL     OW62679  11.315  14.627   4.984
20261SOL    HW162680  11.328  14.684   4.909
20261SOL    HW262681  11.377  14.554   4.970
20262SOL     OW62682  14.162   3.266  13.686
20262SOL    HW162683  14.125   3.353  13.676
20262SOL    HW262684  14.132   3.218  13.609
20263SOL     OW62685   9.550  12.013  13.562
20263SOL    HW162686   9.472  12.067  13.578
20263SOL    HW262687   9.616  12.049  13.620
20264SOL     OW62688   8.529  13.836   7.605
20264SOL    HW162689   8.476  13.822   7.684
20264SOL    HW262690   8.600  13.772   7.612
20265SOL     OW62691   0.928   3.014   6.543
20265SOL    HW162692   0.853   2.974   6.587
20265SOL    HW262693   1.004   2.978   6.587
20266SOL     OW62694  11.548  11.792   9.575
20266SOL    HW162695  11.556  11.886   9.556
20266SOL    HW262696  11.581  11.749   9.496
20267SOL     OW62697   3.492  11.356   9.919
20267SOL    HW162698   3.476  11.448   9.898
20267SOL    HW262699   3.586  11.351   9.936
20268SOL     OW62700   7.709   8.036  14.637
20268SOL    HW162701   7.759   8.116  14.648
20268SOL    HW262702   7.696   8.004  14.726
20269SOL     OW62703  10.476   4.634   0.791
20269SOL    HW162704  10.495   4.701   0.857
20269SOL    HW262705  10.553   4.577   0.792
20270SOL     OW62706  12.491   1.484   2.369
20270SOL    HW162707  12.451   1.422   2.309
20270SOL    HW262708  12.437   1.563   2.362
20271SOL     OW62709   9.548   5.172   0.858
20271SOL    HW162710   9.599   5.225   0.919
20271SOL    HW262711   9.530   5.091   0.905
20272SOL     OW62712   6.646  12.135   4.337
20272SOL    HW162713   6.595  12.098   4.409
20272SOL    HW262714   6.631  12.077   4.263
20273SOL     OW62715   0.756   8.467   3.143
20273SOL    HW162716   0.755   8.455   3.238
20273SOL    HW262717   0.663   8.475   3.119
20274SOL     OW62718  12.700  10.443  11.007
20274SOL    HW162719  12.791  10.447  11.034
20274SOL    HW262720  12.675  10.351  11.018
20275SOL     OW62721  11.788   3.607  12.045
20275SOL    HW162722  11.760   3.607  12.137
20275SOL    HW262723  11.706   3.599  11.996
20276SOL     OW62724   0.818   7.007   4.865
20276SOL    HW162725   0.873   7.084   4.847
20276SOL    HW262726   0.863   6.935   4.822
20277SOL     OW62727  10.842  10.070  13.675
20277SOL    HW162728  10.750  10.095  13.687
20277SOL    HW262729  10.857  10.078  13.581
20278SOL     OW62730  12.697  12.205   5.248
20278SOL    HW162731  12.770  12.263   5.225
20278SOL    HW262732  12.629  12.226   5.183
20279SOL     OW62733   0.865   4.700   1.348
20279SOL    HW162734   0.929   4.726   1.414
20279SOL    HW262735   0.917   4.666   1.276
20280SOL     OW62736   1.563   7.005  10.547
20280SOL    HW162737   1.609   6.958  10.616
20280SOL    HW262738   1.474   6.972  10.550
20281SOL     OW62739   2.361   1.714   2.015
20281SOL    HW162740   2.442   1.668   1.995
20281SOL    HW262741   2.388   1.806   2.025
20282SOL     OW62742   3.558   6.253  12.767
20282SOL    HW162743   3.653   6.266  12.766
20282SOL    HW262744   3.542   6.187  12.700
20283SOL     OW62745   8.364   2.760   5.029
20283SOL    HW162746   8.277   2.719   5.027
20283SOL    HW262747   8.357   2.827   5.097
20284SOL     OW62748   7.949   4.214  12.639
20284SOL    HW162749   7.917   4.271  12.569
20284SOL    HW262750   8.002   4.271  12.694
20285SOL     OW62751   6.906   1.151  10.250
20285SOL    HW162752   6.819   1.186  10.228
20285SOL    HW262753   6.952   1.146  10.165
20286SOL     OW62754   7.515   6.908   9.217
20286SOL    HW162755   7.443   6.934   9.274
20286SOL    HW262756   7.477   6.842   9.159
20287SOL     OW62757  10.569  13.742   2.287
20287SOL    HW162758  10.656  13.717   2.320
20287SOL    HW262759  10.582  13.751   2.193
20288SOL     OW62760   9.587  10.705   9.686
20288SOL    HW162761   9.669  10.699   9.736
20288SOL    HW262762   9.541  10.780   9.723
20289SOL     OW62763   4.326   4.135  11.143
20289SOL    HW162764   4.237   4.122  11.111
20289SOL    HW262765   4.360   4.047  11.157
20290SOL     OW62766  10.195   5.558   4.181
20290SOL    HW162767  10.175   5.466   4.162
20290SOL    HW262768  10.184   5.603   4.096
20291SOL     OW62769   9.046   1.716  14.309
20291SOL    HW162770   9.043   1.675  14.223
20291SOL    HW262771   9.028   1.808  14.293
20292SOL     OW62772  12.143   5.689   5.236
20292SOL    HW162773  12.109   5.696   5.147
20292SOL    HW262774  12.110   5.768   5.280
20293SOL     OW62775   0.997   0.923   8.460
20293SOL    HW162776   0.948   0.959   8.533
20293SOL    HW262777   0.945   0.849   8.430
20294SOL     OW62778  14.423  10.578  13.034
20294SOL    HW162779  14.491  10.511  13.033
20294SOL    HW262780  14.465  10.655  12.995
20295SOL     OW62781  10.096   7.927  10.288
20295SOL    HW162782  10.096   7.852  10.228
20295SOL    HW262783  10.172   7.913  10.344
20296SOL     OW62784  10.400  13.374   7.210
20296SOL    HW162785  10.307  13.380   7.191
20296SOL    HW262786  10.443  13.403   7.130
20297SOL     OW62787  12.568   7.345   8.086
20297SOL    HW162788  12.496   7.406   8.102
20297SOL    HW262789  12.528   7.272   8.039
20298SOL     OW62790  11.580   5.541  12.689
20298SOL    HW162791  11.664   5.567  12.651
20298SOL    HW262792  11.517   5.603  12.652
20299SOL     OW62793   1.589  12.946   8.997
20299SOL    HW162794   1.656  13.007   8.964
20299SOL    HW262795   1.609  12.937   9.090
20300SOL     OW62796   7.673   4.057   5.490
20300SOL    HW162797   7.630   4.053   5.576
20300SOL    HW262798   7.604   4.080   5.429
20301SOL     OW62799   0.259   2.191   4.056
20301SOL    HW162800   0.210   2.126   4.106
20301SOL    HW262801   0.191   2.243   4.012
20302SOL     OW62802   0.533   2.222   0.810
20302SOL    HW162803   0.539   2.136   0.769
20302SOL    HW262804   0.441   2.228   0.837
20303SOL     OW62805   5.241   4.052   2.902
20303SOL    HW162806   5.167   4.071   2.845
20303SOL    HW262807   5.241   4.123   2.966
20304SOL     OW62808   7.354   2.178   6.438
20304SOL    HW162809   7.407   2.166   6.359
20304SOL    HW262810   7.417   2.166   6.510
20305SOL     OW62811  13.439   7.430   3.670
20305SOL    HW162812  13.359   7.439   3.722
20305SOL    HW262813  13.408   7.406   3.583
20306SOL     OW62814   6.983   5.775  13.931
20306SOL    HW162815   6.959   5.764  13.840
20306SOL    HW262816   7.071   5.737  13.938
20307SOL     OW62817   8.720   8.701   7.084
20307SOL    HW162818   8.809   8.673   7.062
20307SOL    HW262819   8.671   8.619   7.093
20308SOL     OW62820  13.301  11.367   6.037
20308SOL    HW162821  13.239  11.369   6.110
20308SOL    HW262822  13.266  11.430   5.974
20309SOL     OW62823   9.281  10.768   8.023
20309SOL    HW162824   9.325  10.713   7.958
20309SOL    HW262825   9.225  10.826   7.972
20310SOL     OW62826   7.421  14.113  14.526
20310SOL    HW162827   7.491  14.142  14.467
20310SOL    HW262828   7.370  14.193  14.543
20311SOL     OW62829  14.730  10.130   4.069
20311SOL    HW162830  14.794  10.105   4.003
20311SOL    HW262831  14.780  10.137   4.150
20312SOL     OW62832  12.893  13.591   9.946
20312SOL    HW162833  12.844  13.521   9.903
20312SOL    HW262834  12.841  13.614  10.022
20313SOL     OW62835   4.039   3.505   2.718
20313SOL    HW162836   3.982   3.567   2.673
20313SOL    HW262837   4.060   3.548   2.801
20314SOL     OW62838  11.805   7.775   0.764
20314SOL    HW162839  11.730   7.784   0.705
20314SOL    HW262840  11.867   7.840   0.733
20315SOL     OW62841   5.248   1.646   1.002
20315SOL    HW162842   5.169   1.601   1.032
20315SOL    HW262843   5.278   1.595   0.927
20316SOL     OW62844  13.786   0.186   8.392
20316SOL    HW162845  13.809   0.194   8.484
20316SOL    HW262846  13.804   0.094   8.371
20317SOL     OW62847   0.974  10.800  10.795
20317SOL    HW162848   1.032  10.733  10.831
20317SOL    HW262849   0.986  10.794  10.701
20318SOL     OW62850   8.953   6.350  11.585
20318SOL    HW162851   8.936   6.313  11.672
20318SOL    HW262852   9.028   6.301  11.552
20319SOL     OW62853  10.339   8.232   4.353
20319SOL    HW162854  10.270   8.166   4.359
20319SOL    HW262855  10.352   8.244   4.259
20320SOL     OW62856  11.816   6.684   0.746
20320SOL    HW162857  11.843   6.771   0.717
20320SOL    HW262858  11.896   6.632   0.746
20321SOL     OW62859   0.921   8.923   4.518
20321SOL    HW162860   0.852   8.862   4.494
20321SOL    HW262861   1.000   8.869   4.523
20322SOL     OW62862   1.944   5.377   5.326
20322SOL    HW162863   1.974   5.437   5.395
20322SOL    HW262864   1.882   5.319   5.369
20323SOL     OW62865   7.855  13.742  10.543
20323SOL    HW162866   7.792  13.670  10.552
20323SOL    HW262867   7.801  13.821  10.544
20324SOL     OW62868   2.675   2.878   3.024
20324SOL    HW162869   2.708   2.788   3.030
20324SOL    HW262870   2.667   2.907   3.114
20325SOL     OW62871   9.625   5.158   7.894
20325SOL    HW162872   9.616   5.253   7.884
20325SOL    HW262873   9.672   5.130   7.816
20326SOL     OW62874  12.762  10.343   7.420
20326SOL    HW162875  12.771  10.330   7.514
20326SOL    HW262876  12.766  10.438   7.408
20327SOL     OW62877   7.888   6.672   2.781
20327SOL    HW162878   7.945   6.731   2.731
20327SOL    HW262879   7.949   6.613   2.826
20328SOL     OW62880   2.075  13.473   5.950
20328SOL    HW162881   2.094  13.558   5.912
20328SOL    HW262882   2.149  13.418   5.924
20329SOL     OW62883  10.548   3.535   6.359
20329SOL    HW162884  10.562   3.441   6.352
20329SOL    HW262885  10.596   3.561   6.438
20330SOL     OW62886  10.162  11.579   4.718
20330SOL    HW162887  10.079  11.546   4.753
20330SOL    HW262888  10.169  11.667   4.754
20331SOL     OW62889   0.380   7.482   2.493
20331SOL    HW162890   0.443   7.533   2.544
20331SOL    HW262891   0.414   7.483   2.404
20332SOL     OW62892   3.157  10.552  12.637
20332SOL    HW162893   3.084  10.521  12.583
20332SOL    HW262894   3.116  10.577  12.720
20333SOL     OW62895  12.195   5.614  10.976
20333SOL    HW162896  12.184   5.665  11.056
20333SOL    HW262897  12.274   5.562  10.991
20334SOL     OW62898   4.616  12.018   1.327
20334SOL    HW162899   4.644  11.956   1.395
20334SOL    HW262900   4.527  12.042   1.352
20335SOL     OW62901   5.593  10.737  13.119
20335SOL    HW162902   5.683  10.752  13.090
20335SOL    HW262903   5.594  10.648  13.154
20336SOL     OW62904  10.468   1.551  11.159
20336SOL    HW162905  10.419   1.472  11.134
20336SOL    HW262906  10.400   1.617  11.173
20337SOL     OW62907   0.092   2.533   2.680
20337SOL    HW162908   0.075   2.623   2.708
20337SOL    HW262909   0.187   2.526   2.678
20338SOL     OW62910  14.753   4.968   4.347
20338SOL    HW162911  14.820   4.913   4.389
20338SOL    HW262912  14.701   5.001   4.420
20339SOL     OW62913  12.867   9.233  10.557
20339SOL    HW162914  12.929   9.243  10.485
20339SOL    HW262915  12.887   9.305  10.616
20340SOL     OW62916  11.208   4.212   4.966
20340SOL    HW162917  11.302   4.208   4.947
20340SOL    HW262918  11.202   4.263   5.047
20341SOL     OW62919   5.520   8.905   1.536
20341SOL    HW162920   5.473   8.823   1.518
20341SOL    HW262921   5.612   8.877   1.545
20342SOL     OW62922   1.584   1.637   6.993
20342SOL    HW162923   1.625   1.686   6.922
20342SOL    HW262924   1.518   1.583   6.949
20343SOL     OW62925   1.877   1.944   0.582
20343SOL    HW162926   1.841   2.033   0.578
20343SOL    HW262927   1.935   1.938   0.506
20344SOL     OW62928  12.933   8.325  13.881
20344SOL    HW162929  12.864   8.351  13.942
20344SOL    HW262930  12.900   8.243  13.842
20345SOL     OW62931   3.046   8.883  10.770
20345SOL    HW162932   3.054   8.911  10.678
20345SOL    HW262933   3.046   8.788  10.766
20346SOL     OW62934   8.709   9.640   8.193
20346SOL    HW162935   8.721   9.546   8.205
20346SOL    HW262936   8.675   9.670   8.277
20347SOL     OW62937   4.488  12.902  12.500
20347SOL    HW162938   4.419  12.862  12.449
20347SOL    HW262939   4.515  12.979  12.449
20348SOL     OW62940   6.166  12.177   2.267
20348SOL    HW162941   6.146  12.085   2.284
20348SOL    HW262942   6.183  12.214   2.354
20349SOL     OW62943   7.279   0.478   3.836
20349SOL    HW162944   7.305   0.515   3.752
20349SOL    HW262945   7.257   0.387   3.817
20350SOL     OW62946   3.793  10.521   1.286
20350SOL    HW162947   3.780  10.485   1.374
20350SOL    HW262948   3.858  10.591   1.298
20351SOL     OW62949   5.046   2.133  14.487
20351SOL    HW162950   5.052   2.181  14.405
20351SOL    HW262951   4.996   2.054  14.466
20352SOL     OW62952   6.537   2.301  11.983
20352SOL    HW162953   6.477   2.240  12.025
20352SOL    HW262954   6.492   2.327  11.902
20353SOL     OW62955  12.663   0.768   4.648
20353SOL    HW162956  12.737   0.763   4.710
20353SOL    HW262957  12.615   0.686   4.663
20354SOL     OW62958   9.568   6.255  14.359
20354SOL    HW162959   9.638   6.317  14.377
20354SOL    HW262960   9.573   6.237  14.265
20355SOL     OW62961   4.370  14.468  14.137
20355SOL    HW162962   4.388  14.514  14.219
20355SOL    HW262963   4.452  14.475  14.087
20356SOL     OW62964   1.341   9.791   7.669
20356SOL    HW162965   1.426   9.747   7.671
20356SOL    HW262966   1.334   9.825   7.580
20357SOL     OW62967   2.304  14.479   2.714
20357SOL    HW162968   2.239  14.521   2.658
20357SOL    HW262969   2.281  14.386   2.712
20358SOL     OW62970  13.065  12.093  13.636
20358SOL    HW162971  13.082  12.180  13.601
20358SOL    HW262972  13.152  12.053  13.644
20359SOL     OW62973  13.837  14.679  13.017
20359SOL    HW162974  13.881  14.595  13.000
20359SOL    HW262975  13.750  14.669  12.980
20360SOL     OW62976   2.838   5.591  10.180
20360SOL    HW162977   2.833   5.683  10.155
20360SOL    HW262978   2.842   5.591  10.276
20361SOL     OW62979  12.239   1.958   2.382
20361SOL    HW162980  12.307   1.962   2.315
20361SOL    HW262981  12.198   2.045   2.379
20362SOL     OW62982   5.257   1.930  10.762
20362SOL    HW162983   5.298   1.994  10.819
20362SOL    HW262984   5.327   1.869  10.739
20363SOL     OW62985   4.633   7.064   5.026
20363SOL    HW162986   4.687   7.122   5.078
20363SOL    HW262987   4.692   6.993   5.000
20364SOL     OW62988   5.766   4.253  12.730
20364SOL    HW162989   5.724   4.170  12.709
20364SOL    HW262990   5.700   4.319  12.710
20365SOL     OW62991  10.075  14.576   6.805
20365SOL    HW162992  10.149  14.615   6.757
20365SOL    HW262993   9.998  14.600   6.754
20366SOL     OW62994   5.337  11.831   9.420
20366SOL    HW162995   5.409  11.845   9.358
20366SOL    HW262996   5.327  11.916   9.464
20367SOL     OW62997   4.315   3.576   5.888
20367SOL    HW162998   4.302   3.661   5.929
20367SOL    HW262999   4.228   3.535   5.889
20368SOL     OW63000  11.093   5.673   1.514
20368SOL    HW163001  11.029   5.658   1.444
20368SOL    HW263002  11.079   5.764   1.539
20369SOL     OW63003   5.534  11.013  13.114
20369SOL    HW163004   5.552  10.920  13.125
20369SOL    HW263005   5.621  11.054  13.115
20370SOL     OW63006   3.019  12.013   7.739
20370SOL    HW163007   3.101  11.977   7.705
20370SOL    HW263008   2.993  12.079   7.675
20371SOL     OW63009   5.646   5.643   5.136
20371SOL    HW163010   5.685   5.576   5.192
20371SOL    HW263011   5.714   5.664   5.072
20372SOL     OW63012   9.682   0.146  13.887
20372SOL    HW163013   9.616   0.129  13.955
20372SOL    HW263014   9.703   0.238  13.898
20373SOL     OW63015   2.563   1.475  11.140
20373SOL    HW163016   2.600   1.552  11.095
20373SOL    HW263017   2.636   1.438  11.188
20374SOL     OW63018   8.969  12.862   7.331
20374SOL    HW163019   8.931  12.784   7.290
20374SOL    HW263020   8.894  12.912   7.362
20375SOL     OW63021   0.412   1.183   0.660
20375SOL    HW163022   0.504   1.163   0.678
20375SOL    HW263023   0.363   1.126   0.719
20376SOL     OW63024  12.473   6.417   2.040
20376SOL    HW163025  12.503   6.491   1.987
20376SOL    HW263026  12.538   6.348   2.023
20377SOL     OW63027   2.008  10.829   1.307
20377SOL    HW163028   2.103  10.836   1.297
20377SOL    HW263029   1.981  10.915   1.339
20378SOL     OW63030  12.299  12.499   6.337
20378SOL    HW163031  12.205  12.515   6.347
20378SOL    HW263032  12.308  12.471   6.246
20379SOL     OW63033   8.578   9.949  11.122
20379SOL    HW163034   8.585   9.930  11.029
20379SOL    HW263035   8.650   9.900  11.162
20380SOL     OW63036  13.158   5.072   3.866
20380SOL    HW163037  13.082   5.109   3.910
20380SOL    HW263038  13.196   5.012   3.930
20381SOL     OW63039   1.538   1.858  10.916
20381SOL    HW163040   1.494   1.816  10.842
20381SOL    HW263041   1.469   1.909  10.958
20382SOL     OW63042  10.388  14.123   1.582
20382SOL    HW163043  10.318  14.181   1.614
20382SOL    HW263044  10.440  14.103   1.660
20383SOL     OW63045   4.509  13.496   9.751
20383SOL    HW163046   4.577  13.554   9.717
20383SOL    HW263047   4.486  13.441   9.676
20384SOL     OW63048  11.952   4.446  11.725
20384SOL    HW163049  11.889   4.375  11.738
20384SOL    HW263050  11.898   4.524  11.716
20385SOL     OW63051  12.959  11.829   5.926
20385SOL    HW163052  13.002  11.849   5.843
20385SOL    HW263053  13.030  11.825   5.990
20386SOL     OW63054   5.970  13.818   2.074
20386SOL    HW163055   5.977  13.725   2.094
20386SOL    HW263056   5.995  13.824   1.982
20387SOL     OW63057   8.438   5.527   8.518
20387SOL    HW163058   8.403   5.463   8.457
20387SOL    HW263059   8.513   5.565   8.474
20388SOL     OW63060   4.350   9.031   8.810
20388SOL    HW163061   4.283   8.991   8.754
20388SOL    HW263062   4.301   9.064   8.885
20389SOL     OW63063   1.265   8.755   2.608
20389SOL    HW163064   1.225   8.834   2.572
20389SOL    HW263065   1.229   8.747   2.696
20390SOL     OW63066   2.692   3.872   9.784
20390SOL    HW163067   2.682   3.965   9.763
20390SOL    HW263068   2.768   3.868   9.842
20391SOL     OW63069   9.683   6.586  13.558
20391SOL    HW163070   9.666   6.498  13.590
20391SOL    HW263071   9.675   6.642  13.636
20392SOL     OW63072   4.567   2.295  12.396
20392SOL    HW163073   4.492   2.321  12.450
20392SOL    HW263074   4.544   2.207  12.364
20393SOL     OW63075  13.108  11.121   0.845
20393SOL    HW163076  13.035  11.157   0.895
20393SOL    HW263077  13.186  11.143   0.897
20394SOL     OW63078  13.846   8.875  12.435
20394SOL    HW163079  13.860   8.927  12.356
20394SOL    HW263080  13.822   8.788  12.403
20395SOL     OW63081   1.455  11.555   7.209
20395SOL    HW163082   1.532  11.507   7.177
20395SOL    HW263083   1.488  11.643   7.228
20396SOL     OW63084   6.742  12.815   0.854
20396SOL    HW163085   6.685  12.883   0.890
20396SOL    HW263086   6.771  12.850   0.770
20397SOL     OW63087   7.295   2.033   8.958
20397SOL    HW163088   7.237   2.033   8.882
20397SOL    HW263089   7.275   1.950   9.003
20398SOL     OW63090  13.392  10.666   7.490
20398SOL    HW163091  13.473  10.680   7.441
20398SOL    HW263092  13.332  10.734   7.459
20399SOL     OW63093   5.243  14.635   3.687
20399SOL    HW163094   5.183  14.703   3.718
20399SOL    HW263095   5.330  14.672   3.699
20400SOL     OW63096   7.320   4.707   7.346
20400SOL    HW163097   7.370   4.766   7.290
20400SOL    HW263098   7.386   4.664   7.401
20401SOL     OW63099   1.315   0.472  11.633
20401SOL    HW163100   1.390   0.529  11.618
20401SOL    HW263101   1.348   0.404  11.691
20402SOL     OW63102   6.846   6.307   4.785
20402SOL    HW163103   6.777   6.369   4.761
20402SOL    HW263104   6.908   6.357   4.837
20403SOL     OW63105   7.301  14.249   1.409
20403SOL    HW163106   7.346  14.204   1.337
20403SOL    HW263107   7.339  14.336   1.411
20404SOL     OW63108  10.460  14.695  12.956
20404SOL    HW163109  10.495  14.709  12.868
20404SOL    HW263110  10.478  14.777  13.003
20405SOL     OW63111  14.066   2.749   7.305
20405SOL    HW163112  13.995   2.716   7.249
20405SOL    HW263113  14.022   2.809   7.365
20406SOL     OW63114  14.454  10.863   5.265
20406SOL    HW163115  14.421  10.776   5.285
20406SOL    HW263116  14.405  10.921   5.323
20407SOL     OW63117   3.465  12.848  12.232
20407SOL    HW163118   3.479  12.754  12.221
20407SOL    HW263119   3.542  12.889  12.194
20408SOL     OW63120   9.911  11.177  12.983
20408SOL    HW163121   9.875  11.132  13.059
20408SOL    HW263122   9.894  11.117  12.910
20409SOL     OW63123   1.180  12.093   8.790
20409SOL    HW163124   1.134  12.064   8.869
20409SOL    HW263125   1.116  12.147   8.744
20410SOL     OW63126   2.038  14.345   1.578
20410SOL    HW163127   2.095  14.392   1.518
20410SOL    HW263128   2.007  14.269   1.528
20411SOL     OW63129   9.757   3.010  14.779
20411SOL    HW163130   9.676   2.978  14.818
20411SOL    HW263131   9.777   3.090  14.828
20412SOL     OW63132   9.973  10.454   4.497
20412SOL    HW163133   9.940  10.364   4.507
20412SOL    HW263134   9.949  10.497   4.579
20413SOL     OW63135   8.252   9.547   2.236
20413SOL    HW163136   8.339   9.583   2.248
20413SOL    HW263137   8.199   9.621   2.204
20414SOL     OW63138  11.306  10.896  14.876
20414SOL    HW163139  11.378  10.849   0.037
20414SOL    HW263140  11.346  10.938  14.800
20415SOL     OW63141   5.599   8.288   5.215
20415SOL    HW163142   5.582   8.196   5.194
20415SOL    HW263143   5.609   8.289   5.310
20416SOL     OW63144   4.415  14.206   7.366
20416SOL    HW163145   4.400  14.260   7.289
20416SOL    HW263146   4.355  14.131   7.355
20417SOL     OW63147   5.855  10.055  10.334
20417SOL    HW163148   5.765  10.042  10.362
20417SOL    HW263149   5.869   9.990  10.264
20418SOL     OW63150   7.843   2.347  12.129
20418SOL    HW163151   7.882   2.433  12.146
20418SOL    HW263152   7.751   2.366  12.110
20419SOL     OW63153   4.647   3.634  14.783
20419SOL    HW163154   4.593   3.556  14.767
20419SOL    HW263155   4.736   3.607  14.761
20420SOL     OW63156   1.357   0.562   0.632
20420SOL    HW163157   1.372   0.602   0.547
20420SOL    HW263158   1.413   0.611   0.692
20421SOL     OW63159   7.032   4.621   2.759
20421SOL    HW163160   7.064   4.655   2.843
20421SOL    HW263161   6.946   4.661   2.749
20422SOL     OW63162  13.295   0.652   3.466
20422SOL    HW163163  13.202   0.645   3.445
20422SOL    HW263164  13.300   0.723   3.530
20423SOL     OW63165  11.919   4.569  12.717
20423SOL    HW163166  12.004   4.583  12.676
20423SOL    HW263167  11.879   4.498  12.667
20424SOL     OW63168   2.836   1.652   2.293
20424SOL    HW163169   2.803   1.732   2.253
20424SOL    HW263170   2.903   1.620   2.232
20425SOL     OW63171   7.270  12.696   9.663
20425SOL    HW163172   7.317  12.620   9.628
20425SOL    HW263173   7.306  12.708   9.751
20426SOL     OW63174   9.223   6.459   7.088
20426SOL    HW163175   9.311   6.489   7.067
20426SOL    HW263176   9.186   6.428   7.005
20427SOL     OW63177   8.080  12.804   5.299
20427SOL    HW163178   8.023  12.730   5.320
20427SOL    HW263179   8.164  12.780   5.339
20428SOL     OW63180   2.125   5.152  12.938
20428SOL    HW163181   2.217   5.138  12.915
20428SOL    HW263182   2.094   5.066  12.966
20429SOL     OW63183  14.712   8.858   2.182
20429SOL    HW163184  14.716   8.938   2.235
20429SOL    HW263185  14.761   8.880   2.103
20430SOL     OW63186   7.337   7.717   3.663
20430SOL    HW163187   7.350   7.809   3.686
20430SOL    HW263188   7.301   7.719   3.574
20431SOL     OW63189  13.085   5.375  12.543
20431SOL    HW163190  13.133   5.443  12.495
20431SOL    HW263191  12.995   5.406  12.547
20432SOL     OW63192  10.769   3.343   7.754
20432SOL    HW163193  10.839   3.336   7.819
20432SOL    HW263194  10.692   3.369   7.806
20433SOL     OW63195   9.794   5.431   0.600
20433SOL    HW163196   9.818   5.478   0.521
20433SOL    HW263197   9.866   5.370   0.615
20434SOL     OW63198  12.453  12.203  13.284
20434SOL    HW163199  12.368  12.241  13.263
20434SOL    HW263200  12.494  12.267  13.344
20435SOL     OW63201   5.009  14.342   3.107
20435SOL    HW163202   5.006  14.318   3.200
20435SOL    HW263203   5.094  14.387   3.098
20436SOL     OW63204  11.289  10.925   2.487
20436SOL    HW163205  11.258  10.872   2.413
20436SOL    HW263206  11.385  10.928   2.475
20437SOL     OW63207  14.776   6.508  13.701
20437SOL    HW163208  14.849   6.487  13.644
20437SOL    HW263209  14.717   6.561  13.647
20438SOL     OW63210  10.035   0.797  13.207
20438SOL    HW163211  10.044   0.828  13.117
20438SOL    HW263212  10.068   0.707  13.205
20439SOL     OW63213  10.179   3.440  11.283
20439SOL    HW163214  10.190   3.425  11.377
20439SOL    HW263215  10.195   3.534  11.272
20440SOL     OW63216  10.568  13.045   8.057
20440SOL    HW163217  10.516  13.041   7.976
20440SOL    HW263218  10.653  13.079   8.029
20441SOL     OW63219   8.688  14.842   5.802
20441SOL    HW163220   8.753  14.869   5.867
20441SOL    HW263221   8.735  14.781   5.745
20442SOL     OW63222   9.122  13.863   2.587
20442SOL    HW163223   9.179  13.919   2.639
20442SOL    HW263224   9.141  13.774   2.616
20443SOL     OW63225  12.850  14.553   6.851
20443SOL    HW163226  12.817  14.475   6.807
20443SOL    HW263227  12.829  14.538   6.943
20444SOL     OW63228   5.498  12.590   3.704
20444SOL    HW163229   5.435  12.608   3.634
20444SOL    HW263230   5.473  12.504   3.738
20445SOL     OW63231  14.339  11.588   2.121
20445SOL    HW163232  14.286  11.529   2.068
20445SOL    HW263233  14.285  11.667   2.130
20446SOL     OW63234   9.809   9.580   5.002
20446SOL    HW163235   9.731   9.536   5.036
20446SOL    HW263236   9.777   9.665   4.972
20447SOL     OW63237   7.410  12.787   1.966
20447SOL    HW163238   7.454  12.729   1.903
20447SOL    HW263239   7.317  12.771   1.951
20448SOL     OW63240   1.480   1.339  11.189
20448SOL    HW163241   1.404   1.398  11.193
20448SOL    HW263242   1.532   1.361  11.267
20449SOL     OW63243   6.823   7.569   8.327
20449SOL    HW163244   6.820   7.566   8.232
20449SOL    HW263245   6.785   7.653   8.350
20450SOL     OW63246   0.636   7.309   1.669
20450SOL    HW163247   0.673   7.354   1.746
20450SOL    HW263248   0.712   7.268   1.627
20451SOL     OW63249  10.575   8.081  10.466
20451SOL    HW163250  10.505   8.110  10.408
20451SOL    HW263251  10.644   8.146  10.456
20452SOL     OW63252  13.265   3.910   7.620
20452SOL    HW163253  13.251   3.842   7.555
20452SOL    HW263254  13.294   3.863   7.698
20453SOL     OW63255   5.204   6.461   0.125
20453SOL    HW163256   5.132   6.462   0.189
20453SOL    HW263257   5.179   6.528   0.061
20454SOL     OW63258   4.846  10.679   9.687
20454SOL    HW163259   4.809  10.693   9.600
20454SOL    HW263260   4.928  10.727   9.687
20455SOL     OW63261   6.780   8.673  14.438
20455SOL    HW163262   6.847   8.689  14.371
20455SOL    HW263263   6.749   8.585  14.420
20456SOL     OW63264  13.366   7.963  10.313
20456SOL    HW163265  13.435   8.012  10.270
20456SOL    HW263266  13.288   7.979  10.260
20457SOL     OW63267   3.994   1.982   4.198
20457SOL    HW163268   3.985   1.922   4.272
20457SOL    HW263269   4.072   2.034   4.219
20458SOL     OW63270   0.105  13.666   5.059
20458SOL    HW163271   0.018  13.632   5.037
20458SOL    HW263272   0.157  13.587   5.074
20459SOL     OW63273  13.371   3.478   3.554
20459SOL    HW163274  13.393   3.489   3.462
20459SOL    HW263275  13.393   3.562   3.594
20460SOL     OW63276  14.863   5.660   6.193
20460SOL    HW163277  14.803   5.712   6.247
20460SOL    HW263278   0.065   5.709   6.194
20461SOL     OW63279  10.187   5.088   4.667
20461SOL    HW163280  10.225   5.001   4.654
20461SOL    HW263281  10.251   5.148   4.629
20462SOL     OW63282   1.284  11.132   1.761
20462SOL    HW163283   1.379  11.117   1.761
20462SOL    HW263284   1.274  11.221   1.794
20463SOL     OW63285   2.525   1.909   6.167
20463SOL    HW163286   2.514   1.837   6.229
20463SOL    HW263287   2.608   1.890   6.123
20464SOL     OW63288   4.055   4.859   0.612
20464SOL    HW163289   4.132   4.911   0.634
20464SOL    HW263290   4.004   4.856   0.694
20465SOL     OW63291   7.079   3.447   2.338
20465SOL    HW163292   7.018   3.457   2.264
20465SOL    HW263293   7.023   3.426   2.413
20466SOL     OW63294   4.246  10.773   8.109
20466SOL    HW163295   4.332  10.734   8.096
20466SOL    HW263296   4.259  10.867   8.092
20467SOL     OW63297  13.075   4.662   5.774
20467SOL    HW163298  13.007   4.619   5.826
20467SOL    HW263299  13.038   4.748   5.753
20468SOL     OW63300   4.654  11.425   3.539
20468SOL    HW163301   4.597  11.430   3.616
20468SOL    HW263302   4.687  11.335   3.541
20469SOL     OW63303  12.084   2.603  10.198
20469SOL    HW163304  12.116   2.686  10.232
20469SOL    HW263305  12.134   2.536  10.244
20470SOL     OW63306  11.225   5.149   3.449
20470SOL    HW163307  11.134   5.173   3.431
20470SOL    HW263308  11.219   5.072   3.506
20471SOL     OW63309   7.960   7.617  14.864
20471SOL    HW163310   7.901   7.621  14.788
20471SOL    HW263311   8.019   7.544  14.845
20472SOL     OW63312  12.000   2.164   0.570
20472SOL    HW163313  12.067   2.155   0.502
20472SOL    HW263314  11.974   2.256   0.567
20473SOL     OW63315   1.370   7.756   7.885
20473SOL    HW163316   1.401   7.812   7.956
20473SOL    HW263317   1.422   7.677   7.892
20474SOL     OW63318   5.565  14.106   5.266
20474SOL    HW163319   5.580  14.147   5.181
20474SOL    HW263320   5.472  14.122   5.284
20475SOL     OW63321   1.150  12.558   0.186
20475SOL    HW163322   1.142  12.479   0.132
20475SOL    HW263323   1.130  12.529   0.275
20476SOL     OW63324  11.751   6.951   0.305
20476SOL    HW163325  11.711   6.962   0.391
20476SOL    HW263326  11.797   7.034   0.290
20477SOL     OW63327  14.336   2.081   1.445
20477SOL    HW163328  14.368   2.051   1.530
20477SOL    HW263329  14.285   2.159   1.464
20478SOL     OW63330   9.862  12.424  13.324
20478SOL    HW163331   9.831  12.511  13.351
20478SOL    HW263332   9.891  12.384  13.406
20479SOL     OW63333   8.871  13.830   2.063
20479SOL    HW163334   8.803  13.864   2.005
20479SOL    HW263335   8.936  13.900   2.068
20480SOL     OW63336   8.160   9.775   2.122
20480SOL    HW163337   8.069   9.789   2.147
20480SOL    HW263338   8.205   9.856   2.146
20481SOL     OW63339  14.595   2.659   7.779
20481SOL    HW163340  14.503   2.677   7.800
20481SOL    HW263341  14.605   2.565   7.798
20482SOL     OW63342  11.581   9.322  12.169
20482SOL    HW163343  11.570   9.311  12.074
20482SOL    HW263344  11.521   9.394  12.192
20483SOL     OW63345   3.492   8.689   5.017
20483SOL    HW163346   3.544   8.769   5.022
20483SOL    HW263347   3.525   8.634   5.088
20484SOL     OW63348   1.733   3.513   1.341
20484SOL    HW163349   1.690   3.580   1.393
20484SOL    HW263350   1.822   3.545   1.328
20485SOL     OW63351  11.095   3.672  12.966
20485SOL    HW163352  11.103   3.760  12.930
20485SOL    HW263353  11.094   3.615  12.890
20486SOL     OW63354   1.999  11.474   7.650
20486SOL    HW163355   2.013  11.513   7.564
20486SOL    HW263356   1.911  11.436   7.645
20487SOL     OW63357  14.746   9.613   1.211
20487SOL    HW163358  14.793   9.539   1.250
20487SOL    HW263359  14.711   9.661   1.285
20488SOL     OW63360   5.486   0.503   3.592
20488SOL    HW163361   5.527   0.585   3.564
20488SOL    HW263362   5.487   0.507   3.688
20489SOL     OW63363   8.429   4.295  10.340
20489SOL    HW163364   8.517   4.271  10.368
20489SOL    HW263365   8.377   4.215  10.352
20490SOL     OW63366   0.805   9.390   1.643
20490SOL    HW163367   0.828   9.365   1.553
20490SOL    HW263368   0.822   9.484   1.647
20491SOL     OW63369   7.170  14.571  11.102
20491SOL    HW163370   7.114  14.606  11.172
20491SOL    HW263371   7.117  14.502  11.061
20492SOL     OW63372   4.343   9.120  12.242
20492SOL    HW163373   4.249   9.112  12.254
20492SOL    HW263374   4.353   9.161  12.156
20493SOL     OW63375   1.498  13.263   9.733
20493SOL    HW163376   1.562  13.255   9.662
20493SOL    HW263377   1.532  13.333   9.788
20494SOL     OW63378   7.983  12.095  12.833
20494SOL    HW163379   8.070  12.086  12.872
20494SOL    HW263380   7.991  12.053  12.747
20495SOL     OW63381  11.146   1.400  12.046
20495SOL    HW163382  11.134   1.494  12.058
20495SOL    HW263383  11.185   1.370  12.128
20496SOL     OW63384   2.577   9.740  12.789
20496SOL    HW163385   2.591   9.718  12.881
20496SOL    HW263386   2.482   9.754  12.782
20497SOL     OW63387   5.262  14.121   8.426
20497SOL    HW163388   5.193  14.111   8.492
20497SOL    HW263389   5.241  14.204   8.383
20498SOL     OW63390   0.899  12.609   2.210
20498SOL    HW163391   0.958  12.643   2.143
20498SOL    HW263392   0.823  12.578   2.161
20499SOL     OW63393   9.398   1.014   1.263
20499SOL    HW163394   9.494   1.012   1.257
20499SOL    HW263395   9.376   1.107   1.256
20500SOL     OW63396  14.846   7.661  12.963
20500SOL    HW163397   0.025   7.618  13.025
20500SOL    HW263398   0.020   7.726  12.919
20501SOL     OW63399   3.400  13.873  12.988
20501SOL    HW163400   3.306  13.860  13.001
20501SOL    HW263401   3.415  13.847  12.897
20502SOL     OW63402   2.300   6.881  12.296
20502SOL    HW163403   2.248   6.862  12.218
20502SOL    HW263404   2.366   6.812  12.299
20503SOL     OW63405  12.713  13.977   6.720
20503SOL    HW163406  12.619  13.978   6.703
20503SOL    HW263407  12.752  14.013   6.640
20504SOL     OW63408   6.716   9.430   6.104
20504SOL    HW163409   6.777   9.439   6.031
20504SOL    HW263410   6.678   9.517   6.115
20505SOL     OW63411   5.224   9.615   2.659
20505SOL    HW163412   5.285   9.550   2.626
20505SOL    HW263413   5.276   9.696   2.665
20506SOL     OW63414   1.412  10.817  10.825
20506SOL    HW163415   1.329  10.770  10.834
20506SOL    HW263416   1.474  10.764  10.875
20507SOL     OW63417   7.043   5.538   4.428
20507SOL    HW163418   7.036   5.523   4.522
20507SOL    HW263419   6.952   5.540   4.397
20508SOL     OW63420  10.616   5.039   2.376
20508SOL    HW163421  10.660   5.122   2.399
20508SOL    HW263422  10.575   5.011   2.458
20509SOL     OW63423  10.681   7.376   9.079
20509SOL    HW163424  10.677   7.319   9.156
20509SOL    HW263425  10.758   7.345   9.030
20510SOL     OW63426   9.186   3.869  10.175
20510SOL    HW163427   9.158   3.867  10.267
20510SOL    HW263428   9.115   3.914  10.129
20511SOL     OW63429   2.729   8.250   8.682
20511SOL    HW163430   2.702   8.306   8.755
20511SOL    HW263431   2.792   8.303   8.633
20512SOL     OW63432   9.937   1.280  14.144
20512SOL    HW163433   9.932   1.260  14.051
20512SOL    HW263434   9.923   1.196  14.187
20513SOL     OW63435  13.952  13.501   5.312
20513SOL    HW163436  13.961  13.408   5.295
20513SOL    HW263437  13.998  13.515   5.395
20514SOL     OW63438  12.711   6.022  14.461
20514SOL    HW163439  12.686   6.113  14.446
20514SOL    HW263440  12.805   6.020  14.442
20515SOL     OW63441   8.131   2.079  13.687
20515SOL    HW163442   8.220   2.061  13.654
20515SOL    HW263443   8.128   2.174  13.695
20516SOL     OW63444  13.911   4.971   3.536
20516SOL    HW163445  13.924   4.937   3.624
20516SOL    HW263446  13.944   4.903   3.478
20517SOL     OW63447   9.506   4.243   4.553
20517SOL    HW163448   9.469   4.301   4.620
20517SOL    HW263449   9.445   4.169   4.549
20518SOL     OW63450   2.626   0.268   0.604
20518SOL    HW163451   2.601   0.318   0.526
20518SOL    HW263452   2.665   0.188   0.569
20519SOL     OW63453  11.465  12.252   0.010
20519SOL    HW163454  11.390  12.197   0.035
20519SOL    HW263455  11.505  12.277   0.093
20520SOL     OW63456  13.902  13.027   7.672
20520SOL    HW163457  13.889  13.005   7.579
20520SOL    HW263458  13.834  12.977   7.718
20521SOL     OW63459  11.166   2.325   6.311
20521SOL    HW163460  11.079   2.348   6.278
20521SOL    HW263461  11.178   2.234   6.284
20522SOL     OW63462   7.080   2.746   6.695
20522SOL    HW163463   7.118   2.754   6.783
20522SOL    HW263464   6.989   2.773   6.707
20523SOL     OW63465  12.914   1.680   3.113
20523SOL    HW163466  12.879   1.765   3.140
20523SOL    HW263467  13.003   1.678   3.147
20524SOL     OW63468   9.678   4.967   7.419
20524SOL    HW163469   9.588   4.965   7.385
20524SOL    HW263470   9.668   4.948   7.512
20525SOL     OW63471  12.044  10.671   8.643
20525SOL    HW163472  12.119  10.631   8.688
20525SOL    HW263473  11.973  10.608   8.656
20526SOL     OW63474   6.296   5.495  12.653
20526SOL    HW163475   6.324   5.584  12.675
20526SOL    HW263476   6.241   5.468  12.727
20527SOL     OW63477  14.043   4.095   2.231
20527SOL    HW163478  14.135   4.089   2.203
20527SOL    HW263479  13.999   4.024   2.184
20528SOL     OW63480  13.774   3.389   2.370
20528SOL    HW163481  13.828   3.342   2.434
20528SOL    HW263482  13.689   3.399   2.412
20529SOL     OW63483  11.500   5.699  11.950
20529SOL    HW163484  11.565   5.633  11.927
20529SOL    HW263485  11.504   5.705  12.045
20530SOL     OW63486   5.905   1.207  12.154
20530SOL    HW163487   5.913   1.252  12.070
20530SOL    HW263488   5.995   1.189  12.180
20531SOL     OW63489   5.453   0.277   2.562
20531SOL    HW163490   5.516   0.333   2.517
20531SOL    HW263491   5.388   0.339   2.597
20532SOL     OW63492   3.804   9.531  11.880
20532SOL    HW163493   3.848   9.570  11.956
20532SOL    HW263494   3.838   9.441  11.877
20533SOL     OW63495   7.308  13.971   3.473
20533SOL    HW163496   7.273  14.059   3.482
20533SOL    HW263497   7.270  13.939   3.391
20534SOL     OW63498   4.714   4.084   5.166
20534SOL    HW163499   4.638   4.116   5.215
20534SOL    HW263500   4.789   4.101   5.223
20535SOL     OW63501   0.472  12.312   4.845
20535SOL    HW163502   0.544  12.251   4.860
20535SOL    HW263503   0.495  12.357   4.763
20536SOL     OW63504   3.496   6.584   5.631
20536SOL    HW163505   3.472   6.632   5.711
20536SOL    HW263506   3.491   6.650   5.562
20537SOL     OW63507   1.935   5.540  12.911
20537SOL    HW163508   1.867   5.601  12.939
20537SOL    HW263509   1.978   5.584  12.838
20538SOL     OW63510   6.329   7.748   1.374
20538SOL    HW163511   6.383   7.726   1.450
20538SOL    HW263512   6.334   7.843   1.368
20539SOL     OW63513   0.586   0.934   6.201
20539SOL    HW163514   0.600   0.851   6.246
20539SOL    HW263515   0.502   0.924   6.157
20540SOL     OW63516   0.002   2.320   8.101
20540SOL    HW163517  14.852   2.234   8.132
20540SOL    HW263518  14.832   2.383   8.153
20541SOL     OW63519  12.292  14.643   2.171
20541SOL    HW163520  12.334  14.672   2.252
20541SOL    HW263521  12.305  14.716   2.110
20542SOL     OW63522  13.206   9.945   0.583
20542SOL    HW163523  13.126   9.937   0.530
20542SOL    HW263524  13.210  10.038   0.606
20543SOL     OW63525   3.098  11.048   4.217
20543SOL    HW163526   3.131  11.122   4.267
20543SOL    HW263527   3.083  11.083   4.129
20544SOL     OW63528  11.702  12.490   6.618
20544SOL    HW163529  11.794  12.465   6.605
20544SOL    HW263530  11.706  12.580   6.648
20545SOL     OW63531   8.371   5.870  14.003
20545SOL    HW163532   8.312   5.937  14.037
20545SOL    HW263533   8.417   5.837  14.080
20546SOL     OW63534  14.054   7.907  11.120
20546SOL    HW163535  14.054   7.876  11.029
20546SOL    HW263536  14.015   7.995  11.115
20547SOL     OW63537   0.411  10.787  12.456
20547SOL    HW163538   0.422  10.692  12.452
20547SOL    HW263539   0.430  10.810  12.547
20548SOL     OW63540  14.786  10.244   6.358
20548SOL    HW163541  14.845  10.244   6.434
20548SOL    HW263542  14.719  10.180   6.380
20549SOL     OW63543   8.912   7.959  13.571
20549SOL    HW163544   8.924   8.038  13.624
20549SOL    HW263545   8.917   7.989  13.481
20550SOL     OW63546   1.313   3.610   7.661
20550SOL    HW163547   1.304   3.692   7.612
20550SOL    HW263548   1.248   3.551   7.622
20551SOL     OW63549   4.258   1.830   1.281
20551SOL    HW163550   4.303   1.878   1.213
20551SOL    HW263551   4.256   1.739   1.250
20552SOL     OW63552   4.776   2.092  11.808
20552SOL    HW163553   4.745   2.156  11.745
20552SOL    HW263554   4.802   2.143  11.885
20553SOL     OW63555   6.706   4.935  11.029
20553SOL    HW163556   6.728   4.845  11.003
20553SOL    HW263557   6.615   4.931  11.056
20554SOL     OW63558   8.046  13.206   0.220
20554SOL    HW163559   8.067  13.124   0.175
20554SOL    HW263560   8.131  13.245   0.239
20555SOL     OW63561   7.648   0.428   0.181
20555SOL    HW163562   7.584   0.482   0.134
20555SOL    HW263563   7.605   0.342   0.189
20556SOL     OW63564   6.482   7.105   9.515
20556SOL    HW163565   6.390   7.115   9.541
20556SOL    HW263566   6.525   7.183   9.550
20557SOL     OW63567   6.225  10.717   8.785
20557SOL    HW163568   6.190  10.629   8.770
20557SOL    HW263569   6.209  10.764   8.703
20558SOL     OW63570   3.814  12.659  13.410
20558SOL    HW163571   3.820  12.650  13.314
20558SOL    HW263572   3.722  12.677  13.426
20559SOL     OW63573   8.342  12.058   2.211
20559SOL    HW163574   8.433  12.088   2.216
20559SOL    HW263575   8.345  11.984   2.151
20560SOL     OW63576   2.660   3.249   7.803
20560SOL    HW163577   2.658   3.299   7.722
20560SOL    HW263578   2.748   3.264   7.839
20561SOL     OW63579  14.673   4.669  14.733
20561SOL    HW163580  14.697   4.719  14.655
20561SOL    HW263581  14.637   4.587  14.699
20562SOL     OW63582  10.127   9.965  10.533
20562SOL    HW163583  10.155   9.934  10.619
20562SOL    HW263584  10.201   9.947  10.476
20563SOL     OW63585   2.651   2.772  14.621
20563SOL    HW163586   2.638   2.716  14.545
20563SOL    HW263587   2.564   2.803  14.645
20564SOL     OW63588   9.916  12.785   0.544
20564SOL    HW163589   9.978  12.797   0.615
20564SOL    HW263590   9.897  12.692   0.543
20565SOL     OW63591   8.389   0.036   9.643
20565SOL    HW163592   8.405   0.120   9.601
20565SOL    HW263593   8.347  14.863   9.575
20566SOL     OW63594  13.442   2.900   0.179
20566SOL    HW163595  13.432   2.817   0.226
20566SOL    HW263596  13.372   2.899   0.113
20567SOL     OW63597   2.070  12.418  12.020
20567SOL    HW163598   2.110  12.411  12.107
20567SOL    HW263599   1.979  12.443  12.037
20568SOL     OW63600   5.048  11.653  11.641
20568SOL    HW163601   5.086  11.740  11.639
20568SOL    HW263602   4.970  11.659  11.585
20569SOL     OW63603   4.858   4.756   4.034
20569SOL    HW163604   4.844   4.842   3.993
20569SOL    HW263605   4.873   4.777   4.127
20570SOL     OW63606  12.992  10.750   7.847
20570SOL    HW163607  12.923  10.778   7.786
20570SOL    HW263608  13.056  10.705   7.792
20571SOL     OW63609  12.189   1.970   6.155
20571SOL    HW163610  12.281   1.946   6.169
20571SOL    HW263611  12.193   2.049   6.100
20572SOL     OW63612   2.318   8.001   4.145
20572SOL    HW163613   2.324   8.093   4.120
20572SOL    HW263614   2.409   7.974   4.158
20573SOL     OW63615  12.334   6.287  12.509
20573SOL    HW163616  12.381   6.287  12.593
20573SOL    HW263617  12.338   6.377  12.479
20574SOL     OW63618   6.501   3.124   8.685
20574SOL    HW163619   6.530   3.051   8.740
20574SOL    HW263620   6.405   3.117   8.684
20575SOL     OW63621  14.240  12.005  11.377
20575SOL    HW163622  14.289  11.958  11.310
20575SOL    HW263623  14.156  11.961  11.381
20576SOL     OW63624  10.331   6.097   3.498
20576SOL    HW163625  10.337   6.011   3.539
20576SOL    HW263626  10.397   6.095   3.429
20577SOL     OW63627   5.676   8.474  12.536
20577SOL    HW163628   5.613   8.526  12.486
20577SOL    HW263629   5.687   8.394  12.485
20578SOL     OW63630   0.490   9.060   4.420
20578SOL    HW163631   0.481   9.096   4.508
20578SOL    HW263632   0.514   9.134   4.366
20579SOL     OW63633  14.168   6.549   4.858
20579SOL    HW163634  14.249   6.499   4.868
20579SOL    HW263635  14.105   6.502   4.912
20580SOL     OW63636   2.393  12.054  10.182
20580SOL    HW163637   2.433  11.967  10.171
20580SOL    HW263638   2.351  12.049  10.268
20581SOL     OW63639  12.432  14.849  11.092
20581SOL    HW163640  12.358  14.797  11.122
20581SOL    HW263641  12.477  14.875  11.173
20582SOL     OW63642  14.264   2.308   4.094
20582SOL    HW163643  14.261   2.362   4.173
20582SOL    HW263644  14.356   2.308   4.069
20583SOL     OW63645  11.843  13.680  14.733
20583SOL    HW163646  11.912  13.620  14.763
20583SOL    HW263647  11.885  13.734  14.667
20584SOL     OW63648   4.304   7.419   8.312
20584SOL    HW163649   4.333   7.435   8.402
20584SOL    HW263650   4.248   7.342   8.319
20585SOL     OW63651   2.762   2.050   0.341
20585SOL    HW163652   2.693   2.102   0.382
20585SOL    HW263653   2.720   1.965   0.323
20586SOL     OW63654   2.573   3.896   7.020
20586SOL    HW163655   2.636   3.829   7.046
20586SOL    HW263656   2.512   3.851   6.961
20587SOL     OW63657   2.656   1.250   4.982
20587SOL    HW163658   2.635   1.284   5.069
20587SOL    HW263659   2.591   1.290   4.924
20588SOL     OW63660  13.322  14.598   3.937
20588SOL    HW163661  13.230  14.623   3.933
20588SOL    HW263662  13.320  14.505   3.958
20589SOL     OW63663   0.040  14.102  12.341
20589SOL    HW163664   0.008  14.190  12.361
20589SOL    HW263665   0.029  14.094  12.246
20590SOL     OW63666  11.939  11.257   1.240
20590SOL    HW163667  11.952  11.331   1.181
20590SOL    HW263668  12.013  11.263   1.301
20591SOL     OW63669  11.369   0.246   7.075
20591SOL    HW163670  11.331   0.266   6.989
20591SOL    HW263671  11.409   0.160   7.064
20592SOL     OW63672   7.585  13.515   4.324
20592SOL    HW163673   7.667  13.468   4.336
20592SOL    HW263674   7.541  13.509   4.408
20593SOL     OW63675  11.907   6.404   8.687
20593SOL    HW163676  11.951   6.319   8.689
20593SOL    HW263677  11.822   6.386   8.646
20594SOL     OW63678  11.939  10.136   6.249
20594SOL    HW163679  11.853  10.093   6.248
20594SOL    HW263680  11.922  10.225   6.218
20595SOL     OW63681   3.157   2.519  10.687
20595SOL    HW163682   3.241   2.525  10.733
20595SOL    HW263683   3.140   2.425  10.682
20596SOL     OW63684   9.236   7.307  14.418
20596SOL    HW163685   9.267   7.217  14.412
20596SOL    HW263686   9.254   7.345  14.332
20597SOL     OW63687   9.007   7.656   9.948
20597SOL    HW163688   8.950   7.683   9.876
20597SOL    HW263689   9.026   7.737   9.995
20598SOL     OW63690  14.863   0.565   2.382
20598SOL    HW163691   0.051   0.549   2.446
20598SOL    HW263692  14.872   0.657   2.359
20599SOL     OW63693  14.845  14.561   2.907
20599SOL    HW163694   0.024  14.609   2.966
20599SOL    HW263695   0.022  14.503   2.857
20600SOL     OW63696   1.181   9.011   2.551
20600SOL    HW163697   1.152   9.053   2.631
20600SOL    HW263698   1.269   9.048   2.535
20601SOL     OW63699   9.831  10.250   9.365
20601SOL    HW163700   9.850  10.257   9.272
20601SOL    HW263701   9.790  10.333   9.387
20602SOL     OW63702   6.596   5.168   3.544
20602SOL    HW163703   6.551   5.150   3.626
20602SOL    HW263704   6.687   5.186   3.569
20603SOL     OW63705   4.776   0.900   7.177
20603SOL    HW163706   4.692   0.853   7.174
20603SOL    HW263707   4.840   0.833   7.202
20604SOL     OW63708   6.435   9.488   4.825
20604SOL    HW163709   6.512   9.543   4.834
20604SOL    HW263710   6.468   9.407   4.785
20605SOL     OW63711  13.902   4.661   0.860
20605SOL    HW163712  13.941   4.576   0.879
20605SOL    HW263713  13.854   4.684   0.940
20606SOL     OW63714  10.887  11.411   0.351
20606SOL    HW163715  10.909  11.503   0.358
20606SOL    HW263716  10.857  11.387   0.439
20607SOL     OW63717  10.972   7.175   2.118
20607SOL    HW163718  11.037   7.244   2.129
20607SOL    HW263719  10.888   7.220   2.122
20608SOL     OW63720   0.989   5.913   8.372
20608SOL    HW163721   1.026   5.877   8.452
20608SOL    HW263722   0.983   5.838   8.313
20609SOL     OW63723   2.280   2.344   3.028
20609SOL    HW163724   2.323   2.330   2.944
20609SOL    HW263725   2.195   2.299   3.019
20610SOL     OW63726   6.432  14.659   1.920
20610SOL    HW163727   6.493  14.730   1.937
20610SOL    HW263728   6.409  14.668   1.827
20611SOL     OW63729   7.347   3.909   0.255
20611SOL    HW163730   7.333   3.989   0.304
20611SOL    HW263731   7.438   3.884   0.274
20612SOL     OW63732  10.145   4.663   8.652
20612SOL    HW163733  10.118   4.582   8.608
20612SOL    HW263734  10.239   4.652   8.669
20613SOL     OW63735  10.626   3.299  10.494
20613SOL    HW163736  10.713   3.279  10.461
20613SOL    HW263737  10.581   3.341  10.421
20614SOL     OW63738   8.110   6.528  10.294
20614SOL    HW163739   8.072   6.605  10.251
20614SOL    HW263740   8.179   6.498  10.234
20615SOL     OW63741   8.902   1.090   9.900
20615SOL    HW163742   8.978   1.131   9.859
20615SOL    HW263743   8.926   0.998   9.909
20616SOL     OW63744   0.027  12.254   1.691
20616SOL    HW163745   0.050  12.250   1.784
20616SOL    HW263746   0.064  12.174   1.653
20617SOL     OW63747   2.337   3.447   5.585
20617SOL    HW163748   2.350   3.352   5.584
20617SOL    HW263749   2.250   3.459   5.623
20618SOL     OW63750  10.566   7.925  14.018
20618SOL    HW163751  10.525   7.890  14.097
20618SOL    HW263752  10.509   7.996  13.990
20619SOL     OW63753   8.995   3.927   3.616
20619SOL    HW163754   9.062   3.887   3.562
20619SOL    HW263755   9.040   3.953   3.696
20620SOL     OW63756   3.479   4.220   3.396
20620SOL    HW163757   3.386   4.236   3.406
20620SOL    HW263758   3.494   4.135   3.437
20621SOL     OW63759   9.168   8.272  10.842
20621SOL    HW163760   9.163   8.201  10.906
20621SOL    HW263761   9.180   8.226  10.758
20622SOL     OW63762   6.317   9.417  11.976
20622SOL    HW163763   6.352   9.410  11.887
20622SOL    HW263764   6.253   9.346  11.983
20623SOL     OW63765  13.381  13.055   0.260
20623SOL    HW163766  13.402  13.016   0.175
20623SOL    HW263767  13.400  12.985   0.323
20624SOL     OW63768  11.738   0.306   1.303
20624SOL    HW163769  11.816   0.354   1.328
20624SOL    HW263770  11.738   0.308   1.207
20625SOL     OW63771  11.908   2.533   3.738
20625SOL    HW163772  11.976   2.521   3.803
20625SOL    HW263773  11.866   2.616   3.762
20626SOL     OW63774   9.467   8.654   7.728
20626SOL    HW163775   9.375   8.627   7.718
20626SOL    HW263776   9.469   8.745   7.700
20627SOL     OW63777   5.031  12.952   6.293
20627SOL    HW163778   5.004  13.041   6.317
20627SOL    HW263779   5.098  12.929   6.358
20628SOL     OW63780   2.395   9.134   2.623
20628SOL    HW163781   2.322   9.159   2.680
20628SOL    HW263782   2.471   9.175   2.663
20629SOL     OW63783   2.396   3.083   0.692
20629SOL    HW163784   2.430   3.022   0.757
20629SOL    HW263785   2.474   3.130   0.660
20630SOL     OW63786  13.551   0.129   9.173
20630SOL    HW163787  13.481   0.072   9.141
20630SOL    HW263788  13.524   0.154   9.261
20631SOL     OW63789  11.146   5.636  11.584
20631SOL    HW163790  11.183   5.724  11.585
20631SOL    HW263791  11.192   5.590  11.655
20632SOL     OW63792   3.427   1.829   7.747
20632SOL    HW163793   3.357   1.789   7.696
20632SOL    HW263794   3.505   1.778   7.725
20633SOL     OW63795   3.046   8.175   4.953
20633SOL    HW163796   2.974   8.221   4.909
20633SOL    HW263797   3.059   8.096   4.899
20634SOL     OW63798   0.090   3.653   7.752
20634SOL    HW163799   0.061   3.685   7.666
20634SOL    HW263800   0.050   3.566   7.760
20635SOL     OW63801  13.617  14.413   9.953
20635SOL    HW163802  13.625  14.391  10.045
20635SOL    HW263803  13.620  14.329   9.907
20636SOL     OW63804   7.977   2.104  12.114
20636SOL    HW163805   7.954   2.115  12.022
20636SOL    HW263806   7.949   2.186  12.156
20637SOL     OW63807   3.959   2.028   7.123
20637SOL    HW163808   3.913   2.067   7.197
20637SOL    HW263809   3.889   2.001   7.064
20638SOL     OW63810   0.369   9.287   5.554
20638SOL    HW163811   0.456   9.325   5.541
20638SOL    HW263812   0.353   9.295   5.648
20639SOL     OW63813  10.173  11.057   1.887
20639SOL    HW163814  10.249  11.000   1.897
20639SOL    HW263815  10.159  11.093   1.974
20640SOL     OW63816   5.161   9.700  11.063
20640SOL    HW163817   5.137   9.616  11.102
20640SOL    HW263818   5.190   9.678  10.975
20641SOL     OW63819   2.495   8.130  11.250
20641SOL    HW163820   2.566   8.106  11.189
20641SOL    HW263821   2.528   8.207  11.295
20642SOL     OW63822   4.025   5.546   1.654
20642SOL    HW163823   4.084   5.613   1.688
20642SOL    HW263824   4.078   5.497   1.592
20643SOL     OW63825   1.534   0.128  13.105
20643SOL    HW163826   1.612   0.095  13.060
20643SOL    HW263827   1.471   0.057  13.098
20644SOL     OW63828   5.634  10.966  11.627
20644SOL    HW163829   5.638  10.941  11.535
20644SOL    HW263830   5.690  11.044  11.633
20645SOL     OW63831   4.853   1.720   5.140
20645SOL    HW163832   4.792   1.794   5.139
20645SOL    HW263833   4.880   1.713   5.232
20646SOL     OW63834  10.242   7.906  12.261
20646SOL    HW163835  10.180   7.978  12.251
20646SOL    HW263836  10.311   7.941  12.317
20647SOL     OW63837   4.111  11.791   4.160
20647SOL    HW163838   4.139  11.809   4.250
20647SOL    HW263839   4.178  11.733   4.125
20648SOL     OW63840   1.444   4.984   9.364
20648SOL    HW163841   1.463   4.926   9.291
20648SOL    HW263842   1.358   4.958   9.394
20649SOL     OW63843  10.936   6.246   8.508
20649SOL    HW163844  10.948   6.182   8.438
20649SOL    HW263845  10.924   6.193   8.587
20650SOL     OW63846   7.815  14.493   2.301
20650SOL    HW163847   7.910  14.496   2.284
20650SOL    HW263848   7.788  14.408   2.266
20651SOL     OW63849   7.291   4.279   1.191
20651SOL    HW163850   7.320   4.325   1.269
20651SOL    HW263851   7.340   4.320   1.119
20652SOL     OW63852   0.949   2.478   9.599
20652SOL    HW163853   1.015   2.433   9.547
20652SOL    HW263854   0.947   2.431   9.682
20653SOL     OW63855   1.150   2.146  13.854
20653SOL    HW163856   1.059   2.133  13.828
20653SOL    HW263857   1.172   2.067  13.903
20654SOL     OW63858   5.768  14.083   5.886
20654SOL    HW163859   5.829  14.138   5.838
20654SOL    HW263860   5.812  14.063   5.969
20655SOL     OW63861   5.249  14.442  13.513
20655SOL    HW163862   5.159  14.410  13.515
20655SOL    HW263863   5.263  14.471  13.423
20656SOL     OW63864   8.295  13.194  12.957
20656SOL    HW163865   8.361  13.155  13.013
20656SOL    HW263866   8.276  13.128  12.890
20657SOL     OW63867   8.239  12.752   8.896
20657SOL    HW163868   8.232  12.716   8.808
20657SOL    HW263869   8.159  12.723   8.940
20658SOL     OW63870   3.679  12.439   7.803
20658SOL    HW163871   3.605  12.392   7.765
20658SOL    HW263872   3.713  12.379   7.870
20659SOL     OW63873  14.549   5.911   8.365
20659SOL    HW163874  14.508   5.965   8.297
20659SOL    HW263875  14.477   5.857   8.398
20660SOL     OW63876   5.263   2.277   0.319
20660SOL    HW163877   5.223   2.353   0.361
20660SOL    HW263878   5.313   2.313   0.246
20661SOL     OW63879   4.640   3.858   1.666
20661SOL    HW163880   4.618   3.869   1.758
20661SOL    HW263881   4.577   3.912   1.619
20662SOL     OW63882   7.565   1.914   8.550
20662SOL    HW163883   7.591   2.005   8.562
20662SOL    HW263884   7.620   1.882   8.479
20663SOL     OW63885   8.374   1.001   2.869
20663SOL    HW163886   8.410   1.066   2.809
20663SOL    HW263887   8.320   0.944   2.813
20664SOL     OW63888   8.452   8.113  10.921
20664SOL    HW163889   8.495   8.038  10.881
20664SOL    HW263890   8.439   8.175  10.850
20665SOL     OW63891   0.380   3.420   7.932
20665SOL    HW163892   0.357   3.438   8.024
20665SOL    HW263893   0.438   3.344   7.936
20666SOL     OW63894   7.212  13.655   6.009
20666SOL    HW163895   7.295  13.684   5.970
20666SOL    HW263896   7.235  13.576   6.057
20667SOL     OW63897  12.136  13.067   2.199
20667SOL    HW163898  12.071  13.047   2.131
20667SOL    HW263899  12.148  13.162   2.193
20668SOL     OW63900   4.872  13.769   5.689
20668SOL    HW163901   4.934  13.799   5.623
20668SOL    HW263902   4.913  13.790   5.773
20669SOL     OW63903   8.905  14.035  11.459
20669SOL    HW163904   8.825  14.021  11.509
20669SOL    HW263905   8.969  13.976  11.499
20670SOL     OW63906   9.774   6.040   5.926
20670SOL    HW163907   9.842   6.000   5.872
20670SOL    HW263908   9.692   6.003   5.891
20671SOL     OW63909   0.783   9.443   3.659
20671SOL    HW163910   0.769   9.352   3.635
20671SOL    HW263911   0.871   9.464   3.628
20672SOL     OW63912  14.779   1.818   3.546
20672SOL    HW163913  14.760   1.871   3.623
20672SOL    HW263914  14.706   1.757   3.540
20673SOL     OW63915  14.080   0.464   8.345
20673SOL    HW163916  14.031   0.515   8.409
20673SOL    HW263917  14.013   0.421   8.292
20674SOL     OW63918   1.322  14.389  10.379
20674SOL    HW163919   1.276  14.321  10.330
20674SOL    HW263920   1.308  14.469  10.327
20675SOL     OW63921   1.977   1.762  11.306
20675SOL    HW163922   1.883   1.751  11.294
20675SOL    HW263923   2.000   1.698  11.374
20676SOL     OW63924   9.378  13.664  11.514
20676SOL    HW163925   9.323  13.730  11.473
20676SOL    HW263926   9.403  13.606  11.443
20677SOL     OW63927   5.191   8.025   5.371
20677SOL    HW163928   5.178   7.959   5.438
20677SOL    HW263929   5.283   8.014   5.344
20678SOL     OW63930  14.102   4.875   8.359
20678SOL    HW163931  14.106   4.953   8.304
20678SOL    HW263932  14.178   4.881   8.416
20679SOL     OW63933   2.198   7.139  11.171
20679SOL    HW163934   2.244   7.118  11.252
20679SOL    HW263935   2.252   7.205  11.129
20680SOL     OW63936  10.296   5.245   9.311
20680SOL    HW163937  10.299   5.292   9.227
20680SOL    HW263938  10.257   5.308   9.372
20681SOL     OW63939   6.390   4.936   9.758
20681SOL    HW163940   6.313   4.882   9.740
20681SOL    HW263941   6.450   4.877   9.804
20682SOL     OW63942   5.286  11.508  13.797
20682SOL    HW163943   5.206  11.459  13.780
20682SOL    HW263944   5.315  11.538  13.711
20683SOL     OW63945  10.334   8.370  11.542
20683SOL    HW163946  10.318   8.347  11.450
20683SOL    HW263947  10.273   8.315  11.591
20684SOL     OW63948   4.902   0.401  10.864
20684SOL    HW163949   4.825   0.347  10.878
20684SOL    HW263950   4.923   0.389  10.771
20685SOL     OW63951   3.955  12.749  13.642
20685SOL    HW163952   3.920  12.696  13.570
20685SOL    HW263953   3.878  12.792  13.679
20686SOL     OW63954  14.323   2.391   9.702
20686SOL    HW163955  14.287   2.328   9.764
20686SOL    HW263956  14.249   2.448   9.680
20687SOL     OW63957   8.286  11.076   7.959
20687SOL    HW163958   8.295  11.168   7.936
20687SOL    HW263959   8.365  11.034   7.925
20688SOL     OW63960   4.213   1.502  11.950
20688SOL    HW163961   4.151   1.540  11.886
20688SOL    HW263962   4.260   1.435  11.901
20689SOL     OW63963  14.230  12.929   5.978
20689SOL    HW163964  14.256  12.977   6.056
20689SOL    HW263965  14.136  12.915   5.989
20690SOL     OW63966  12.515  10.265   0.779
20690SOL    HW163967  12.602  10.226   0.793
20690SOL    HW263968  12.471  10.253   0.863
20691SOL     OW63969  13.009  12.948   9.528
20691SOL    HW163970  12.917  12.966   9.544
20691SOL    HW263971  13.032  12.880   9.592
20692SOL     OW63972   0.083   4.822   4.419
20692SOL    HW163973   0.060   4.788   4.505
20692SOL    HW263974   0.177   4.835   4.422
20693SOL     OW63975   1.086   3.275   7.420
20693SOL    HW163976   1.010   3.313   7.462
20693SOL    HW263977   1.091   3.318   7.335
20694SOL     OW63978   2.254  11.626  14.116
20694SOL    HW163979   2.230  11.545  14.162
20694SOL    HW263980   2.217  11.696  14.169
20695SOL     OW63981  12.250   9.013   7.260
20695SOL    HW163982  12.255   9.084   7.196
20695SOL    HW263983  12.339   8.978   7.265
20696SOL     OW63984  13.105  12.687   7.796
20696SOL    HW163985  13.153  12.604   7.802
20696SOL    HW263986  13.141  12.730   7.718
20697SOL     OW63987   7.785  11.924  14.651
20697SOL    HW163988   7.732  11.922  14.572
20697SOL    HW263989   7.818  12.014  14.655
20698SOL     OW63990  10.463  12.411   1.025
20698SOL    HW163991  10.547  12.383   1.061
20698SOL    HW263992  10.448  12.353   0.950
20699SOL     OW63993  12.871  12.901   0.854
20699SOL    HW163994  12.782  12.901   0.818
20699SOL    HW263995  12.916  12.970   0.805
20700SOL     OW63996   2.200   7.359   5.568
20700SOL    HW163997   2.262   7.408   5.514
20700SOL    HW263998   2.239   7.357   5.655
20701SOL     OW63999   2.005   3.597   8.417
20701SOL    HW164000   1.920   3.555   8.432
20701SOL    HW264001   2.062   3.559   8.485
20702SOL     OW64002   4.127  11.595   9.830
20702SOL    HW164003   4.101  11.546   9.752
20702SOL    HW264004   4.128  11.530   9.900
20703SOL     OW64005   0.018  13.911   1.144
20703SOL    HW164006   0.038  14.003   1.130
20703SOL    HW264007  14.856  13.908   1.230
20704SOL     OW64008  11.191   9.019   0.280
20704SOL    HW164009  11.121   8.954   0.280
20704SOL    HW264010  11.148   9.101   0.256
20705SOL     OW64011  14.565  11.583  14.121
20705SOL    HW164012  14.621  11.659  14.112
20705SOL    HW264013  14.604  11.517  14.063
20706SOL     OW64014  13.618  14.226   5.544
20706SOL    HW164015  13.632  14.320   5.535
20706SOL    HW264016  13.572  14.216   5.627
20707SOL     OW64017  12.024  11.317   5.339
20707SOL    HW164018  11.945  11.295   5.290
20707SOL    HW264019  12.045  11.238   5.388
20708SOL     OW64020  13.618   7.557   8.139
20708SOL    HW164021  13.656   7.499   8.206
20708SOL    HW264022  13.652   7.523   8.056
20709SOL     OW64023   9.983  13.892   1.435
20709SOL    HW164024   9.936  13.962   1.482
20709SOL    HW264025   9.940  13.888   1.350
20710SOL     OW64026   7.833   5.285   5.412
20710SOL    HW164027   7.768   5.342   5.451
20710SOL    HW264028   7.839   5.210   5.472
20711SOL     OW64029   5.182   2.789   4.015
20711SOL    HW164030   5.153   2.880   4.014
20711SOL    HW264031   5.135   2.749   4.088
20712SOL     OW64032   6.657   3.054   7.642
20712SOL    HW164033   6.641   3.145   7.666
20712SOL    HW264034   6.646   3.051   7.547
20713SOL     OW64035  13.945   7.809  11.370
20713SOL    HW164036  13.989   7.840  11.449
20713SOL    HW264037  13.989   7.855  11.298
20714SOL     OW64038   7.955   3.871   6.717
20714SOL    HW164039   8.017   3.929   6.675
20714SOL    HW264040   8.009   3.812   6.770
20715SOL     OW64041   4.859   2.823  12.219
20715SOL    HW164042   4.779   2.825  12.271
20715SOL    HW264043   4.928   2.855  12.278
20716SOL     OW64044  11.655   7.721   7.766
20716SOL    HW164045  11.679   7.804   7.724
20716SOL    HW264046  11.562   7.710   7.748
20717SOL     OW64047   2.855   7.822   9.238
20717SOL    HW164048   2.793   7.755   9.267
20717SOL    HW264049   2.939   7.777   9.235
20718SOL     OW64050   3.904   6.075   6.076
20718SOL    HW164051   3.904   6.027   5.993
20718SOL    HW264052   3.862   6.158   6.055
20719SOL     OW64053   9.980   7.186   7.363
20719SOL    HW164054   9.958   7.279   7.350
20719SOL    HW264055  10.047   7.169   7.297
20720SOL     OW64056  14.827  13.900  12.508
20720SOL    HW164057   0.007  13.966  12.474
20720SOL    HW264058  14.846  13.895  12.602
20721SOL     OW64059   8.782   7.711   1.236
20721SOL    HW164060   8.724   7.786   1.248
20721SOL    HW264061   8.797   7.678   1.324
20722SOL     OW64062  11.465   8.996   8.690
20722SOL    HW164063  11.421   9.054   8.629
20722SOL    HW264064  11.535   9.049   8.727
20723SOL     OW64065   6.796   0.820  10.413
20723SOL    HW164066   6.887   0.813  10.442
20723SOL    HW264067   6.776   0.734  10.376
20724SOL     OW64068   2.505  13.460   9.859
20724SOL    HW164069   2.526  13.367   9.867
20724SOL    HW264070   2.430  13.473   9.916
20725SOL     OW64071  13.769  14.287   2.223
20725SOL    HW164072  13.697  14.237   2.185
20725SOL    HW264073  13.847  14.238   2.198
20726SOL     OW64074   4.300   6.109   6.051
20726SOL    HW164075   4.379   6.163   6.041
20726SOL    HW264076   4.258   6.113   5.965
20727SOL     OW64077  13.753   8.249   9.664
20727SOL    HW164078  13.784   8.335   9.692
20727SOL    HW264079  13.710   8.213   9.741
20728SOL     OW64080   7.602  12.342  13.464
20728SOL    HW164081   7.628  12.421  13.512
20728SOL    HW264082   7.639  12.270  13.514
20729SOL     OW64083   1.421   0.094   0.697
20729SOL    HW164084   1.500   0.065   0.651
20729SOL    HW264085   1.376   0.013   0.719
20730SOL     OW64086   7.291   9.184   8.461
20730SOL    HW164087   7.203   9.147   8.450
20730SOL    HW264088   7.349   9.108   8.462
20731SOL     OW64089   0.985   6.624  10.449
20731SOL    HW164090   1.066   6.591  10.411
20731SOL    HW264091   0.967   6.705  10.402
20732SOL     OW64092  10.522  12.939  14.524
20732SOL    HW164093  10.591  12.952  14.458
20732SOL    HW264094  10.448  12.990  14.491
20733SOL     OW64095   4.202   8.210   4.512
20733SOL    HW164096   4.219   8.115   4.513
20733SOL    HW264097   4.275   8.247   4.562
20734SOL     OW64098   9.686   8.024   3.793
20734SOL    HW164099   9.594   8.048   3.803
20734SOL    HW264100   9.696   8.005   3.700
20735SOL     OW64101   8.311  14.170   8.358
20735SOL    HW164102   8.355  14.089   8.384
20735SOL    HW264103   8.379  14.237   8.362
20736SOL     OW64104   2.987   4.923   8.934
20736SOL    HW164105   3.061   4.984   8.936
20736SOL    HW264106   2.910   4.980   8.921
20737SOL     OW64107   0.826   9.067   4.246
20737SOL    HW164108   0.739   9.108   4.242
20737SOL    HW264109   0.851   9.073   4.338
20738SOL     OW64110   4.727   7.984   4.180
20738SOL    HW164111   4.808   7.984   4.232
20738SOL    HW264112   4.757   7.978   4.089
20739SOL     OW64113  10.802   3.277   0.810
20739SOL    HW164114  10.873   3.220   0.838
20739SOL    HW264115  10.843   3.363   0.798
20740SOL     OW64116  12.014  14.622   5.415
20740SOL    HW164117  12.050  14.699   5.458
20740SOL    HW264118  12.008  14.556   5.485
20741SOL     OW64119   0.971   1.864   3.798
20741SOL    HW164120   0.906   1.849   3.729
20741SOL    HW264121   0.924   1.911   3.866
20742SOL     OW64122   1.611  12.362   1.127
20742SOL    HW164123   1.650  12.278   1.104
20742SOL    HW264124   1.620  12.414   1.047
20743SOL     OW64125   8.444   0.057  12.938
20743SOL    HW164126   8.428   0.014  13.022
20743SOL    HW264127   8.414  14.874  12.873
20744SOL     OW64128   2.239  13.755  13.454
20744SOL    HW164129   2.313  13.744  13.394
20744SOL    HW264130   2.167  13.708  13.413
20745SOL     OW64131  10.145   7.206   6.691
20745SOL    HW164132  10.125   7.130   6.747
20745SOL    HW264133  10.229   7.184   6.650
20746SOL     OW64134   7.567   1.380   9.062
20746SOL    HW164135   7.652   1.394   9.020
20746SOL    HW264136   7.551   1.461   9.112
20747SOL     OW64137   9.256  11.176  13.979
20747SOL    HW164138   9.271  11.157  14.072
20747SOL    HW264139   9.203  11.102  13.948
20748SOL     OW64140  12.169  10.431   7.936
20748SOL    HW164141  12.108  10.358   7.936
20748SOL    HW264142  12.247  10.396   7.980
20749SOL     OW64143  12.158   0.695   2.963
20749SOL    HW164144  12.160   0.651   3.048
20749SOL    HW264145  12.123   0.629   2.903
20750SOL     OW64146  12.326  11.510  13.398
20750SOL    HW164147  12.359  11.529  13.486
20750SOL    HW264148  12.256  11.446  13.412
20751SOL     OW64149  10.968  10.963   1.669
20751SOL    HW164150  11.037  10.897   1.670
20751SOL    HW264151  10.944  10.972   1.577
20752SOL     OW64152  11.454   4.618  10.623
20752SOL    HW164153  11.415   4.703  10.643
20752SOL    HW264154  11.424   4.598  10.535
20753SOL     OW64155  11.600  11.773  14.306
20753SOL    HW164156  11.614  11.863  14.278
20753SOL    HW264157  11.594  11.723  14.224
20754SOL     OW64158   1.143   4.302   5.307
20754SOL    HW164159   1.116   4.211   5.303
20754SOL    HW264160   1.091   4.341   5.377
20755SOL     OW64161   2.693  10.996   3.667
20755SOL    HW164162   2.782  11.030   3.665
20755SOL    HW264163   2.700  10.907   3.634
20756SOL     OW64164  14.096   2.245   9.530
20756SOL    HW164165  14.116   2.229   9.438
20756SOL    HW264166  14.181   2.242   9.574
20757SOL     OW64167   5.738   2.066   7.116
20757SOL    HW164168   5.802   2.094   7.051
20757SOL    HW264169   5.687   2.145   7.136
20758SOL     OW64170  11.386   1.854   0.299
20758SOL    HW164171  11.385   1.882   0.208
20758SOL    HW264172  11.474   1.821   0.313
20759SOL     OW64173  12.412   4.657  11.972
20759SOL    HW164174  12.480   4.654  12.039
20759SOL    HW264175  12.432   4.582  11.915
20760SOL     OW64176   7.892  12.747   0.093
20760SOL    HW164177   7.804  12.718   0.068
20760SOL    HW264178   7.930  12.671   0.137
20761SOL     OW64179  12.258  14.106  14.080
20761SOL    HW164180  12.330  14.168  14.090
20761SOL    HW264181  12.287  14.047  14.010
20762SOL     OW64182   0.754   1.775  12.176
20762SOL    HW164183   0.789   1.714  12.240
20762SOL    HW264184   0.826   1.789  12.114
20763SOL     OW64185   3.782  13.610   8.133
20763SOL    HW164186   3.771  13.521   8.099
20763SOL    HW264187   3.821  13.659   8.060
20764SOL     OW64188   6.700  14.533   8.731
20764SOL    HW164189   6.617  14.487   8.748
20764SOL    HW264190   6.743  14.536   8.817
20765SOL     OW64191   5.931  12.821   4.882
20765SOL    HW164192   5.997  12.776   4.829
20765SOL    HW264193   5.922  12.767   4.961
20766SOL     OW64194   2.589  12.710  10.070
20766SOL    HW164195   2.650  12.745  10.006
20766SOL    HW264196   2.584  12.616  10.050
20767SOL     OW64197   5.309   4.414   7.782
20767SOL    HW164198   5.352   4.387   7.863
20767SOL    HW264199   5.302   4.510   7.789
20768SOL     OW64200   4.233  10.000   4.539
20768SOL    HW164201   4.190   9.966   4.461
20768SOL    HW264202   4.243   9.925   4.596
20769SOL     OW64203  12.686   7.918  11.846
20769SOL    HW164204  12.776   7.944  11.867
20769SOL    HW264205  12.687   7.822  11.854
20770SOL     OW64206   3.071   5.941   6.719
20770SOL    HW164207   3.092   5.861   6.670
20770SOL    HW264208   3.148   5.957   6.773
20771SOL     OW64209   7.908   5.842   0.371
20771SOL    HW164210   7.965   5.865   0.298
20771SOL    HW264211   7.839   5.909   0.370
20772SOL     OW64212  12.960   7.770  10.765
20772SOL    HW164213  12.877   7.803  10.801
20772SOL    HW264214  13.003   7.848  10.730
20773SOL     OW64215  12.131   0.824  12.993
20773SOL    HW164216  12.142   0.729  12.999
20773SOL    HW264217  12.046   0.841  13.033
20774SOL     OW64218   2.883   1.559   5.763
20774SOL    HW164219   2.919   1.630   5.816
20774SOL    HW264220   2.956   1.498   5.753
20775SOL     OW64221   1.849  10.592   5.388
20775SOL    HW164222   1.921  10.537   5.418
20775SOL    HW264223   1.882  10.631   5.306
20776SOL     OW64224  14.348  10.745  12.677
20776SOL    HW164225  14.432  10.732  12.721
20776SOL    HW264226  14.325  10.836  12.695
20777SOL     OW64227   6.535   1.936   7.129
20777SOL    HW164228   6.512   1.847   7.154
20777SOL    HW264229   6.468   1.991   7.171
20778SOL     OW64230   6.800   2.174   6.342
20778SOL    HW164231   6.868   2.198   6.279
20778SOL    HW264232   6.833   2.094   6.383
20779SOL     OW64233  13.558  14.441   3.140
20779SOL    HW164234  13.479  14.440   3.194
20779SOL    HW264235  13.625  14.401   3.195
20780SOL     OW64236  12.046   1.777   2.372
20780SOL    HW164237  12.025   1.771   2.465
20780SOL    HW264238  12.100   1.856   2.364
20781SOL     OW64239   2.201  11.062  12.225
20781SOL    HW164240   2.198  10.969  12.203
20781SOL    HW264241   2.192  11.108  12.142
20782SOL     OW64242   6.208  14.613   8.416
20782SOL    HW164243   6.156  14.534   8.429
20782SOL    HW264244   6.181  14.672   8.486
20783SOL     OW64245   8.632   9.418   6.868
20783SOL    HW164246   8.695   9.373   6.925
20783SOL    HW264247   8.599   9.349   6.810
20784SOL     OW64248   4.855  10.193  10.484
20784SOL    HW164249   4.818  10.245  10.556
20784SOL    HW264250   4.900  10.257  10.429
20785SOL     OW64251   8.869   6.042   9.888
20785SOL    HW164252   8.805   6.019   9.955
20785SOL    HW264253   8.927   5.966   9.883
20786SOL     OW64254   9.121  13.754   3.946
20786SOL    HW164255   9.036  13.792   3.921
20786SOL    HW264256   9.098  13.689   4.013
20787SOL     OW64257   0.609   9.602   9.883
20787SOL    HW164258   0.620   9.636   9.971
20787SOL    HW264259   0.552   9.526   9.893
20788SOL     OW64260   9.788  14.410   6.253
20788SOL    HW164261   9.805  14.504   6.244
20788SOL    HW264262   9.812  14.390   6.344
20789SOL     OW64263   3.573   9.691   0.811
20789SOL    HW164264   3.629   9.762   0.781
20789SOL    HW264265   3.618   9.656   0.888
20790SOL     OW64266   4.898  11.217  12.015
20790SOL    HW164267   4.804  11.198  12.021
20790SOL    HW264268   4.927  11.220  12.106
20791SOL     OW64269   7.060  13.572   6.880
20791SOL    HW164270   6.996  13.528   6.823
20791SOL    HW264271   7.138  13.581   6.826
20792SOL     OW64272   7.085   7.545   0.193
20792SOL    HW164273   7.064   7.636   0.173
20792SOL    HW264274   7.159   7.524   0.137
20793SOL     OW64275  14.514   5.251   9.197
20793SOL    HW164276  14.425   5.273   9.168
20793SOL    HW264277  14.561   5.334   9.196
20794SOL     OW64278   6.343  14.648   0.833
20794SOL    HW164279   6.338  14.642   0.738
20794SOL    HW264280   6.277  14.712   0.857
20795SOL     OW64281  12.150   3.352  10.566
20795SOL    HW164282  12.207   3.385  10.497
20795SOL    HW264283  12.176   3.400  10.644
20796SOL     OW64284  13.415  13.397  14.160
20796SOL    HW164285  13.321  13.386  14.147
20796SOL    HW264286  13.431  13.370  14.250
20797SOL     OW64287   2.482   4.431   4.946
20797SOL    HW164288   2.483   4.441   5.041
20797SOL    HW264289   2.491   4.337   4.930
20798SOL     OW64290   0.168  13.189   4.811
20798SOL    HW164291   0.262  13.207   4.804
20798SOL    HW264292   0.158  13.150   4.898
20799SOL     OW64293   1.648   6.975  14.485
20799SOL    HW164294   1.570   6.945  14.437
20799SOL    HW264295   1.643   7.070  14.482
20800SOL     OW64296   9.337   3.273   9.322
20800SOL    HW164297   9.320   3.208   9.254
20800SOL    HW264298   9.250   3.291   9.359
20801SOL     OW64299   4.336  11.767   7.515
20801SOL    HW164300   4.308  11.798   7.429
20801SOL    HW264301   4.285  11.820   7.577
20802SOL     OW64302  12.714  12.590  12.758
20802SOL    HW164303  12.736  12.609  12.666
20802SOL    HW264304  12.633  12.639  12.773
20803SOL     OW64305   4.913  14.362   9.837
20803SOL    HW164306   4.925  14.430   9.903
20803SOL    HW264307   4.919  14.409   9.753
20804SOL     OW64308  14.023  13.894   3.285
20804SOL    HW164309  14.038  13.800   3.270
20804SOL    HW264310  14.110  13.932   3.290
20805SOL     OW64311  11.588  12.941   6.571
20805SOL    HW164312  11.636  12.867   6.609
20805SOL    HW264313  11.496  12.915   6.576
20806SOL     OW64314   9.502   7.988   7.836
20806SOL    HW164315   9.489   8.055   7.769
20806SOL    HW264316   9.571   8.023   7.892
20807SOL     OW64317   4.516   4.123   4.967
20807SOL    HW164318   4.595   4.106   5.019
20807SOL    HW264319   4.446   4.124   5.032
20808SOL     OW64320  10.301   6.350   9.201
20808SOL    HW164321  10.323   6.259   9.220
20808SOL    HW264322  10.270   6.385   9.285
20809SOL     OW64323   6.173   2.598   4.383
20809SOL    HW164324   6.150   2.669   4.323
20809SOL    HW264325   6.201   2.642   4.463
20810SOL     OW64326  14.091   9.937  12.052
20810SOL    HW164327  14.037  10.015  12.049
20810SOL    HW264328  14.165   9.961  12.108
20811SOL     OW64329  12.946  10.946   0.623
20811SOL    HW164330  12.924  10.886   0.552
20811SOL    HW264331  12.865  10.954   0.674
20812SOL     OW64332  13.616  12.017   5.869
20812SOL    HW164333  13.673  11.991   5.797
20812SOL    HW264334  13.600  12.110   5.854
20813SOL     OW64335  13.986  10.037   7.474
20813SOL    HW164336  14.032  10.084   7.543
20813SOL    HW264337  14.031   9.953   7.469
20814SOL     OW64338   8.338   4.411   2.413
20814SOL    HW164339   8.306   4.498   2.390
20814SOL    HW264340   8.433   4.420   2.415
20815SOL     OW64341   5.529   9.307  12.686
20815SOL    HW164342   5.436   9.322  12.666
20815SOL    HW264343   5.529   9.246  12.760
20816SOL     OW64344  13.338   2.908   6.323
20816SOL    HW164345  13.272   2.967   6.358
20816SOL    HW264346  13.422   2.947   6.350
20817SOL     OW64347  14.654   5.943  14.272
20817SOL    HW164348  14.666   5.977  14.361
20817SOL    HW264349  14.606   6.012  14.227
20818SOL     OW64350   3.819   2.988  10.114
20818SOL    HW164351   3.873   2.943  10.180
20818SOL    HW264352   3.838   2.942  10.032
20819SOL     OW64353   0.436   1.041   4.266
20819SOL    HW164354   0.438   1.019   4.359
20819SOL    HW264355   0.362   1.101   4.257
20820SOL     OW64356   3.685  10.172  10.070
20820SOL    HW164357   3.764  10.174  10.015
20820SOL    HW264358   3.613  10.156  10.009
20821SOL     OW64359  13.628   3.446  12.634
20821SOL    HW164360  13.707   3.500  12.633
20821SOL    HW264361  13.607   3.437  12.727
20822SOL     OW64362   1.978   9.861  13.865
20822SOL    HW164363   2.007   9.769  13.867
20822SOL    HW264364   1.940   9.875  13.952
20823SOL     OW64365  10.099   9.557  13.876
20823SOL    HW164366  10.193   9.538  13.883
20823SOL    HW264367  10.073   9.586  13.964
20824SOL     OW64368   8.101  11.384  14.592
20824SOL    HW164369   8.153  11.352  14.519
20824SOL    HW264370   8.011  11.388  14.558
20825SOL     OW64371   9.087   1.324   4.163
20825SOL    HW164372   9.130   1.239   4.167
20825SOL    HW264373   8.997   1.305   4.138
20826SOL     OW64374  14.311   9.707   4.705
20826SOL    HW164375  14.397   9.685   4.669
20826SOL    HW264376  14.285   9.630   4.755
20827SOL     OW64377   7.105  10.665   7.832
20827SOL    HW164378   7.076  10.712   7.754
20827SOL    HW264379   7.028  10.616   7.862
20828SOL     OW64380   7.552   3.628   2.048
20828SOL    HW164381   7.467   3.636   2.004
20828SOL    HW264382   7.602   3.703   2.017
20829SOL     OW64383   7.703   2.336   0.497
20829SOL    HW164384   7.729   2.319   0.407
20829SOL    HW264385   7.679   2.251   0.533
20830SOL     OW64386   4.436  12.900  11.134
20830SOL    HW164387   4.430  12.819  11.185
20830SOL    HW264388   4.524  12.933  11.153
20831SOL     OW64389   3.245   4.545   1.519
20831SOL    HW164390   3.301   4.599   1.463
20831SOL    HW264391   3.304   4.479   1.555
20832SOL     OW64392   3.951   3.080   8.347
20832SOL    HW164393   3.893   3.007   8.324
20832SOL    HW264394   4.036   3.040   8.361
20833SOL     OW64395  12.899   5.563  10.570
20833SOL    HW164396  12.819   5.524  10.606
20833SOL    HW264397  12.875   5.589  10.481
20834SOL     OW64398  12.470   8.861  10.936
20834SOL    HW164399  12.421   8.856  11.019
20834SOL    HW264400  12.472   8.771  10.904
20835SOL     OW64401  11.401   9.599   0.594
20835SOL    HW164402  11.483   9.551   0.607
20835SOL    HW264403  11.426   9.691   0.607
20836SOL     OW64404   5.749   7.057  13.503
20836SOL    HW164405   5.795   7.063  13.586
20836SOL    HW264406   5.692   7.134  13.502
20837SOL     OW64407   7.529   1.466  12.369
20837SOL    HW164408   7.543   1.559  12.356
20837SOL    HW264409   7.510   1.432  12.281
20838SOL     OW64410   5.802   4.238   0.306
20838SOL    HW164411   5.718   4.241   0.259
20838SOL    HW264412   5.803   4.319   0.358
20839SOL     OW64413  13.397   6.084   0.526
20839SOL    HW164414  13.311   6.093   0.484
20839SOL    HW264415  13.387   6.009   0.584
20840SOL     OW64416  12.220  10.306   4.488
20840SOL    HW164417  12.252  10.387   4.448
20840SOL    HW264418  12.180  10.258   4.416
20841SOL     OW64419   5.477  12.505  12.628
20841SOL    HW164420   5.420  12.551  12.567
20841SOL    HW264421   5.540  12.458  12.572
20842SOL     OW64422   4.257   8.519   3.933
20842SOL    HW164423   4.342   8.503   3.975
20842SOL    HW264424   4.277   8.577   3.860
20843SOL     OW64425   0.641   8.155   0.036
20843SOL    HW164426   0.619   8.065   0.062
20843SOL    HW264427   0.557   8.199   0.030
20844SOL     OW64428  11.504   0.615  11.006
20844SOL    HW164429  11.439   0.683  10.989
20844SOL    HW264430  11.557   0.649  11.077
20845SOL     OW64431   4.266   0.423  10.491
20845SOL    HW164432   4.263   0.471  10.574
20845SOL    HW264433   4.347   0.453  10.449
20846SOL     OW64434  13.958   6.333   2.613
20846SOL    HW164435  13.982   6.304   2.525
20846SOL    HW264436  13.920   6.256   2.654
20847SOL     OW64437   4.883  12.526   1.802
20847SOL    HW164438   4.884  12.592   1.871
20847SOL    HW264439   4.925  12.568   1.727
20848SOL     OW64440  12.140   5.237   5.453
20848SOL    HW164441  12.155   5.268   5.542
20848SOL    HW264442  12.223   5.253   5.408
20849SOL     OW64443   1.150   7.534  11.282
20849SOL    HW164444   1.223   7.575  11.236
20849SOL    HW264445   1.083   7.523  11.214
20850SOL     OW64446  10.720  10.911  11.468
20850SOL    HW164447  10.694  10.993  11.426
20850SOL    HW264448  10.721  10.931  11.561
20851SOL     OW64449   7.629  14.662  14.353
20851SOL    HW164450   7.610  14.747  14.313
20851SOL    HW264451   7.606  14.599  14.286
20852SOL     OW64452  10.132   0.986  10.527
20852SOL    HW164453  10.148   1.058  10.467
20852SOL    HW264454  10.058   1.015  10.580
20853SOL     OW64455   1.401  13.271  12.542
20853SOL    HW164456   1.359  13.273  12.456
20853SOL    HW264457   1.431  13.361  12.556
20854SOL     OW64458   3.417   2.886  10.988
20854SOL    HW164459   3.380   2.910  11.073
20854SOL    HW264460   3.396   2.960  10.931
20855SOL     OW64461  13.815   1.475   9.087
20855SOL    HW164462  13.884   1.461   9.023
20855SOL    HW264463  13.756   1.538   9.046
20856SOL     OW64464   8.611  12.625   8.608
20856SOL    HW164465   8.596  12.718   8.595
20856SOL    HW264466   8.590  12.585   8.524
20857SOL     OW64467   8.151   2.298   8.091
20857SOL    HW164468   8.112   2.216   8.060
20857SOL    HW264469   8.230   2.309   8.038
20858SOL     OW64470  10.712   9.008   2.443
20858SOL    HW164471  10.662   9.090   2.439
20858SOL    HW264472  10.776   9.016   2.373
20859SOL     OW64473   8.784  14.866  12.471
20859SOL    HW164474   8.846   0.031  12.528
20859SOL    HW264475   8.807   0.013  12.383
20860SOL     OW64476   4.259   8.367  13.311
20860SOL    HW164477   4.263   8.446  13.256
20860SOL    HW264478   4.333   8.376  13.371
20861SOL     OW64479   0.129   9.458   5.256
20861SOL    HW164480   0.129   9.531   5.317
20861SOL    HW264481   0.213   9.414   5.271
20862SOL     OW64482   5.338  12.902   2.200
20862SOL    HW164483   5.262  12.861   2.159
20862SOL    HW264484   5.300  12.966   2.261
20863SOL     OW64485   3.506   7.548  12.460
20863SOL    HW164486   3.573   7.497  12.506
20863SOL    HW264487   3.554   7.614  12.411
20864SOL     OW64488   0.661  11.155  10.396
20864SOL    HW164489   0.700  11.236  10.428
20864SOL    HW264490   0.694  11.146  10.306
20865SOL     OW64491   4.549   2.668  10.541
20865SOL    HW164492   4.564   2.574  10.538
20865SOL    HW264493   4.463   2.680  10.500
20866SOL     OW64494   4.578  11.023  12.266
20866SOL    HW164495   4.557  10.952  12.205
20866SOL    HW264496   4.664  10.999  12.301
20867SOL     OW64497   6.880   0.532   7.791
20867SOL    HW164498   6.796   0.551   7.833
20867SOL    HW264499   6.875   0.439   7.768
20868SOL     OW64500   4.926  12.776  11.661
20868SOL    HW164501   5.000  12.773  11.721
20868SOL    HW264502   4.956  12.731  11.582
20869SOL     OW64503   8.759  14.318  13.993
20869SOL    HW164504   8.749  14.277  14.079
20869SOL    HW264505   8.703  14.267  13.935
20870SOL     OW64506   3.360  11.092  10.606
20870SOL    HW164507   3.450  11.120  10.618
20870SOL    HW264508   3.309  11.149  10.663
20871SOL     OW64509  12.364  14.768   6.091
20871SOL    HW164510  12.351  14.737   6.001
20871SOL    HW264511  12.449  14.732   6.116
20872SOL     OW64512   5.998   4.914   3.667
20872SOL    HW164513   6.092   4.894   3.672
20872SOL    HW264514   5.973   4.890   3.578
20873SOL     OW64515  11.845  14.203   5.253
20873SOL    HW164516  11.757  14.219   5.218
20873SOL    HW264517  11.895  14.170   5.178
20874SOL     OW64518   5.221   6.238  10.009
20874SOL    HW164519   5.210   6.306   9.942
20874SOL    HW264520   5.315   6.221  10.011
20875SOL     OW64521  13.648  14.702  12.606
20875SOL    HW164522  13.710  14.767  12.639
20875SOL    HW264523  13.563  14.744  12.615
20876SOL     OW64524   2.288  12.654   5.705
20876SOL    HW164525   2.285  12.736   5.656
20876SOL    HW264526   2.382  12.633   5.711
20877SOL     OW64527   2.629  13.587  13.674
20877SOL    HW164528   2.644  13.682  13.672
20877SOL    HW264529   2.650  13.557  13.585
20878SOL     OW64530  14.485   7.692  11.102
20878SOL    HW164531  14.508   7.615  11.051
20878SOL    HW264532  14.559   7.752  11.089
20879SOL     OW64533  10.960   6.529   4.776
20879SOL    HW164534  11.002   6.615   4.785
20879SOL    HW264535  10.893   6.542   4.708
20880SOL     OW64536   8.704   0.123  12.838
20880SOL    HW164537   8.610   0.131  12.852
20880SOL    HW264538   8.713   0.079  12.754
20881SOL     OW64539  13.834   0.870   8.008
20881SOL    HW164540  13.766   0.855   8.074
20881SOL    HW264541  13.912   0.890   8.059
20882SOL     OW64542   9.507   8.378   1.988
20882SOL    HW164543   9.427   8.326   1.996
20882SOL    HW264544   9.576   8.313   1.971
20883SOL     OW64545  12.723  14.396   7.697
20883SOL    HW164546  12.800  14.355   7.658
20883SOL    HW264547  12.755  14.435   7.778
20884SOL     OW64548  12.806   4.614   3.847
20884SOL    HW164549  12.770   4.555   3.780
20884SOL    HW264550  12.882   4.567   3.881
20885SOL     OW64551   5.874   5.039  13.149
20885SOL    HW164552   5.881   5.087  13.066
20885SOL    HW264553   5.825   5.099  13.206
20886SOL     OW64554  13.813   1.380   7.952
20886SOL    HW164555  13.841   1.471   7.966
20886SOL    HW264556  13.800   1.374   7.857
20887SOL     OW64557   7.856   9.323  11.929
20887SOL    HW164558   7.837   9.250  11.988
20887SOL    HW264559   7.817   9.296  11.846
20888SOL     OW64560   5.689  11.041   8.250
20888SOL    HW164561   5.600  11.007   8.264
20888SOL    HW264562   5.680  11.135   8.263
20889SOL     OW64563  12.151   4.213  14.812
20889SOL    HW164564  12.107   4.140  14.855
20889SOL    HW264565  12.226   4.232  14.868
20890SOL     OW64566   5.990   4.258  10.408
20890SOL    HW164567   5.952   4.345  10.415
20890SOL    HW264568   5.921   4.199  10.439
20891SOL     OW64569   9.096   1.203   0.290
20891SOL    HW164570   9.116   1.110   0.275
20891SOL    HW264571   9.063   1.206   0.379
20892SOL     OW64572  12.838   2.741  14.772
20892SOL    HW164573  12.851   2.684  14.697
20892SOL    HW264574  12.779   2.810  14.742
20893SOL     OW64575  11.891   6.091  11.594
20893SOL    HW164576  11.903   6.001  11.624
20893SOL    HW264577  11.863   6.139  11.673
20894SOL     OW64578  13.959   7.241  14.434
20894SOL    HW164579  13.870   7.239  14.471
20894SOL    HW264580  13.945   7.246  14.339
20895SOL     OW64581  10.058  12.766   8.765
20895SOL    HW164582  10.017  12.847   8.735
20895SOL    HW264583   9.985  12.707   8.784
20896SOL     OW64584   6.954   7.033   0.747
20896SOL    HW164585   6.973   7.118   0.707
20896SOL    HW264586   6.968   6.969   0.677
20897SOL     OW64587   7.494   1.642   6.510
20897SOL    HW164588   7.491   1.733   6.480
20897SOL    HW264589   7.584   1.614   6.494
20898SOL     OW64590  13.029   3.441   3.769
20898SOL    HW164591  13.046   3.358   3.724
20898SOL    HW264592  13.107   3.457   3.821
20899SOL     OW64593   7.119   1.007  14.361
20899SOL    HW164594   7.031   1.043  14.347
20899SOL    HW264595   7.104   0.913  14.372
20900SOL     OW64596   3.950  11.499   3.654
20900SOL    HW164597   3.921  11.434   3.719
20900SOL    HW264598   4.008  11.557   3.703
20901SOL     OW64599  11.862   9.392   1.059
20901SOL    HW164600  11.905   9.379   1.144
20901SOL    HW264601  11.921   9.351   0.996
20902SOL     OW64602   5.117   7.556   1.749
20902SOL    HW164603   5.162   7.484   1.793
20902SOL    HW264604   5.137   7.545   1.657
20903SOL     OW64605   5.427   8.146  12.500
20903SOL    HW164606   5.391   8.095  12.427
20903SOL    HW264607   5.386   8.109  12.578
20904SOL     OW64608   1.929   0.852   2.405
20904SOL    HW164609   1.893   0.804   2.480
20904SOL    HW264610   1.875   0.825   2.331
20905SOL     OW64611   6.180   4.906   7.344
20905SOL    HW164612   6.270   4.926   7.370
20905SOL    HW264613   6.127   4.941   7.416
20906SOL     OW64614   3.890  10.457   2.980
20906SOL    HW164615   3.866  10.394   3.048
20906SOL    HW264616   3.979  10.485   3.004
20907SOL     OW64617   5.699  12.452   0.976
20907SOL    HW164618   5.717  12.358   0.975
20907SOL    HW264619   5.783  12.492   0.999
20908SOL     OW64620   5.782   7.891  10.356
20908SOL    HW164621   5.827   7.912  10.274
20908SOL    HW264622   5.799   7.797  10.369
20909SOL     OW64623   3.307   1.981   9.329
20909SOL    HW164624   3.259   2.050   9.376
20909SOL    HW264625   3.372   2.028   9.277
20910SOL     OW64626   8.311   0.654   8.148
20910SOL    HW164627   8.333   0.747   8.142
20910SOL    HW264628   8.252   0.638   8.074
20911SOL     OW64629   4.432  14.373   4.875
20911SOL    HW164630   4.453  14.461   4.843
20911SOL    HW264631   4.428  14.383   4.970
20912SOL     OW64632   5.741   1.981  14.818
20912SOL    HW164633   5.755   1.963  14.725
20912SOL    HW264634   5.823   2.022  14.846
20913SOL     OW64635   1.650  10.938  10.478
20913SOL    HW164636   1.656  11.030  10.505
20913SOL    HW264637   1.557  10.923  10.466
20914SOL     OW64638  12.599  12.455   8.884
20914SOL    HW164639  12.656  12.522   8.847
20914SOL    HW264640  12.510  12.483   8.859
20915SOL     OW64641  12.245  12.184  12.422
20915SOL    HW164642  12.250  12.159  12.514
20915SOL    HW264643  12.164  12.235  12.416
20916SOL     OW64644  10.730   7.164   3.830
20916SOL    HW164645  10.670   7.091   3.817
20916SOL    HW264646  10.745   7.166   3.925
20917SOL     OW64647   8.177   3.586   5.545
20917SOL    HW164648   8.138   3.520   5.487
20917SOL    HW264649   8.267   3.555   5.559
20918SOL     OW64650  10.526   4.440  13.048
20918SOL    HW164651  10.449   4.496  13.042
20918SOL    HW264652  10.595   4.488  13.001
20919SOL     OW64653  10.764   6.589   9.681
20919SOL    HW164654  10.740   6.529   9.751
20919SOL    HW264655  10.850   6.559   9.652
20920SOL     OW64656   6.261   1.116   8.930
20920SOL    HW164657   6.237   1.138   8.840
20920SOL    HW264658   6.351   1.146   8.940
20921SOL     OW64659  12.728  12.318  12.693
20921SOL    HW164660  12.719  12.279  12.779
20921SOL    HW264661  12.748  12.410  12.710
20922SOL     OW64662  10.362   8.700   8.977
20922SOL    HW164663  10.449   8.668   8.951
20922SOL    HW264664  10.303   8.627   8.959
20923SOL     OW64665   2.428   0.159   2.448
20923SOL    HW164666   2.411   0.157   2.542
20923SOL    HW264667   2.342   0.158   2.408
20924SOL     OW64668   2.744   4.700   5.733
20924SOL    HW164669   2.790   4.783   5.745
20924SOL    HW264670   2.766   4.649   5.810
20925SOL     OW64671  11.343  11.857   6.780
20925SOL    HW164672  11.284  11.921   6.821
20925SOL    HW264673  11.400  11.828   6.852
20926SOL     OW64674  11.420  11.546  12.001
20926SOL    HW164675  11.353  11.560  12.068
20926SOL    HW264676  11.503  11.554  12.048
20927SOL     OW64677   3.462   2.657  13.358
20927SOL    HW164678   3.528   2.723  13.337
20927SOL    HW264679   3.453   2.606  13.278
20928SOL     OW64680   9.064   6.737   9.038
20928SOL    HW164681   9.098   6.719   8.950
20928SOL    HW264682   9.088   6.829   9.054
20929SOL     OW64683  14.816   1.324  13.132
20929SOL    HW164684  14.765   1.383  13.077
20929SOL    HW264685  14.753   1.286  13.192
20930SOL     OW64686   6.174  11.260   0.791
20930SOL    HW164687   6.186  11.214   0.874
20930SOL    HW264688   6.080  11.275   0.786
20931SOL     OW64689   1.247  10.562  11.177
20931SOL    HW164690   1.206  10.476  11.162
20931SOL    HW264691   1.339  10.550  11.155
20932SOL     OW64692   7.046   6.678   5.252
20932SOL    HW164693   7.132   6.659   5.215
20932SOL    HW264694   7.063   6.745   5.319
20933SOL     OW64695  13.805  10.651   5.813
20933SOL    HW164696  13.830  10.689   5.898
20933SOL    HW264697  13.865  10.692   5.750
20934SOL     OW64698  11.550   2.846   6.882
20934SOL    HW164699  11.560   2.941   6.891
20934SOL    HW264700  11.548   2.831   6.787
20935SOL     OW64701   2.355   7.888  11.262
20935SOL    HW164702   2.379   7.981  11.259
20935SOL    HW264703   2.425   7.844  11.213
20936SOL     OW64704  14.107   6.551  13.404
20936SOL    HW164705  14.017   6.580  13.420
20936SOL    HW264706  14.130   6.502  13.482
20937SOL     OW64707   5.530  12.423  13.160
20937SOL    HW164708   5.562  12.336  13.136
20937SOL    HW264709   5.434  12.417  13.152
20938SOL     OW64710   5.606  14.821   7.922
20938SOL    HW164711   5.531  14.828   7.862
20938SOL    HW264712   5.681  14.810   7.864
20939SOL     OW64713   9.155  11.505   1.872
20939SOL    HW164714   9.065  11.497   1.842
20939SOL    HW264715   9.147  11.534   1.963
20940SOL     OW64716   8.270  14.778  13.528
20940SOL    HW164717   8.363  14.791  13.510
20940SOL    HW264718   8.234  14.743  13.446
20941SOL     OW64719  12.190   2.468   5.772
20941SOL    HW164720  12.193   2.557   5.807
20941SOL    HW264721  12.138   2.419   5.836
20942SOL     OW64722   9.473  10.249   7.326
20942SOL    HW164723   9.529  10.172   7.319
20942SOL    HW264724   9.529  10.315   7.368
20943SOL     OW64725   8.716   0.193   8.944
20943SOL    HW164726   8.806   0.165   8.960
20943SOL    HW264727   8.696   0.251   9.018
20944SOL     OW64728   9.240   5.625  14.121
20944SOL    HW164729   9.188   5.704  14.139
20944SOL    HW264730   9.266   5.633  14.030
20945SOL     OW64731   4.943  12.559  12.981
20945SOL    HW164732   5.021  12.614  12.969
20945SOL    HW264733   4.968  12.495  13.048
20946SOL     OW64734   5.035   9.704  11.911
20946SOL    HW164735   4.981   9.733  11.985
20946SOL    HW264736   5.050   9.611  11.927
20947SOL     OW64737   3.345   5.351   4.076
20947SOL    HW164738   3.404   5.356   4.001
20947SOL    HW264739   3.293   5.432   4.071
20948SOL     OW64740  13.654   1.200  10.339
20948SOL    HW164741  13.564   1.169  10.346
20948SOL    HW264742  13.705   1.123  10.312
20949SOL     OW64743  13.284   4.491  11.634
20949SOL    HW164744  13.222   4.533  11.694
20949SOL    HW264745  13.331   4.563  11.593
20950SOL     OW64746  10.437   5.209   7.164
20950SOL    HW164747  10.485   5.127   7.153
20950SOL    HW264748  10.356   5.184   7.209
20951SOL     OW64749  14.437   7.432   5.052
20951SOL    HW164750  14.520   7.423   5.004
20951SOL    HW264751  14.377   7.472   4.989
20952SOL     OW64752   5.024   0.722   8.638
20952SOL    HW164753   4.986   0.795   8.588
20952SOL    HW264754   5.119   0.738   8.634
20953SOL     OW64755   8.928   6.510   7.612
20953SOL    HW164756   8.881   6.510   7.529
20953SOL    HW264757   8.971   6.424   7.615
20954SOL     OW64758   7.938  12.197  13.321
20954SOL    HW164759   7.875  12.127  13.340
20954SOL    HW264760   8.007  12.154  13.271
20955SOL     OW64761   7.390   8.224   5.367
20955SOL    HW164762   7.319   8.206   5.305
20955SOL    HW264763   7.351   8.207   5.453
20956SOL     OW64764  11.466   6.452   4.716
20956SOL    HW164765  11.474   6.546   4.734
20956SOL    HW264766  11.388   6.425   4.765
20957SOL     OW64767   2.508   3.685   3.568
20957SOL    HW164768   2.498   3.779   3.560
20957SOL    HW264769   2.470   3.649   3.488
20958SOL     OW64770   9.173   1.556  10.221
20958SOL    HW164771   9.202   1.628  10.275
20958SOL    HW264772   9.126   1.498  10.281
20959SOL     OW64773   7.231  12.467  12.360
20959SOL    HW164774   7.225  12.526  12.284
20959SOL    HW264775   7.161  12.403  12.347
20960SOL     OW64776   5.646   3.179   1.124
20960SOL    HW164777   5.672   3.265   1.091
20960SOL    HW264778   5.726   3.127   1.123
20961SOL     OW64779   9.023  10.123  11.159
20961SOL    HW164780   8.928  10.120  11.163
20961SOL    HW264781   9.043  10.168  11.077
20962SOL     OW64782   8.625   7.646   9.967
20962SOL    HW164783   8.543   7.634  10.015
20962SOL    HW264784   8.621   7.582   9.896
20963SOL     OW64785   1.625   0.918   5.983
20963SOL    HW164786   1.581   0.838   6.011
20963SOL    HW264787   1.683   0.890   5.913
20964SOL     OW64788   9.554  14.711   7.790
20964SOL    HW164789   9.496  14.783   7.764
20964SOL    HW264790   9.619  14.707   7.720
20965SOL     OW64791  12.086  12.535   3.195
20965SOL    HW164792  12.045  12.452   3.221
20965SOL    HW264793  12.019  12.579   3.143
20966SOL     OW64794   8.765   1.464   1.353
20966SOL    HW164795   8.758   1.543   1.407
20966SOL    HW264796   8.694   1.408   1.383
20967SOL     OW64797   7.878   4.522   1.798
20967SOL    HW164798   7.919   4.593   1.748
20967SOL    HW264799   7.914   4.531   1.886
20968SOL     OW64800   1.088   9.063   2.857
20968SOL    HW164801   1.069   8.995   2.922
20968SOL    HW264802   1.004   9.106   2.842
20969SOL     OW64803   6.350   0.333   1.593
20969SOL    HW164804   6.314   0.247   1.570
20969SOL    HW264805   6.383   0.369   1.510
20970SOL     OW64806   8.628  14.854   6.736
20970SOL    HW164807   8.635  14.790   6.664
20970SOL    HW264808   8.683  14.818   6.805
20971SOL     OW64809   8.989   3.133  10.413
20971SOL    HW164810   8.981   3.038  10.424
20971SOL    HW264811   9.035   3.162  10.492
20972SOL     OW64812  13.833   8.582   2.341
20972SOL    HW164813  13.760   8.533   2.305
20972SOL    HW264814  13.796   8.667   2.365
20973SOL     OW64815   6.339   1.584  10.502
20973SOL    HW164816   6.325   1.665  10.551
20973SOL    HW264817   6.302   1.516  10.558
20974SOL     OW64818   0.807   4.450   3.082
20974SOL    HW164819   0.810   4.535   3.037
20974SOL    HW264820   0.885   4.450   3.137
20975SOL     OW64821   1.343   3.305   6.843
20975SOL    HW164822   1.317   3.268   6.928
20975SOL    HW264823   1.274   3.368   6.823
20976SOL     OW64824   7.605  13.247  10.655
20976SOL    HW164825   7.649  13.329  10.632
20976SOL    HW264826   7.676  13.185  10.670
20977SOL     OW64827   5.999   9.115   7.568
20977SOL    HW164828   5.964   9.084   7.485
20977SOL    HW264829   5.973   9.048   7.631
20978SOL     OW64830  11.661   0.763  11.207
20978SOL    HW164831  11.750   0.757  11.242
20978SOL    HW264832  11.608   0.709  11.265
20979SOL     OW64833  14.758   5.035   8.755
20979SOL    HW164834  14.841   5.020   8.799
20979SOL    HW264835  14.692   5.006   8.819
20980SOL     OW64836  13.411   5.662   2.331
20980SOL    HW164837  13.340   5.691   2.389
20980SOL    HW264838  13.368   5.610   2.264
20981SOL     OW64839   2.412   5.209   3.581
20981SOL    HW164840   2.334   5.263   3.566
20981SOL    HW264841   2.482   5.257   3.537
20982SOL     OW64842  11.640   9.626  10.890
20982SOL    HW164843  11.669   9.589  10.807
20982SOL    HW264844  11.721   9.643  10.938
20983SOL     OW64845   0.643  10.961   2.079
20983SOL    HW164846   0.615  10.902   2.010
20983SOL    HW264847   0.736  10.941   2.092
20984SOL     OW64848  11.562   5.722   8.006
20984SOL    HW164849  11.598   5.781   7.940
20984SOL    HW264850  11.638   5.684   8.049
20985SOL     OW64851   1.523  14.255   1.300
20985SOL    HW164852   1.488  14.240   1.389
20985SOL    HW264853   1.520  14.169   1.259
20986SOL     OW64854  13.850  14.348   1.232
20986SOL    HW164855  13.859  14.405   1.156
20986SOL    HW264856  13.821  14.406   1.303
20987SOL     OW64857   0.678   4.796   5.885
20987SOL    HW164858   0.676   4.854   5.809
20987SOL    HW264859   0.736   4.724   5.858
20988SOL     OW64860   1.022   9.253  12.844
20988SOL    HW164861   1.054   9.304  12.919
20988SOL    HW264862   0.967   9.185  12.883
20989SOL     OW64863   9.026  14.207   1.084
20989SOL    HW164864   9.063  14.129   1.124
20989SOL    HW264865   9.102  14.260   1.060
20990SOL     OW64866   5.254   9.611   1.166
20990SOL    HW164867   5.172   9.632   1.211
20990SOL    HW264868   5.248   9.518   1.146
20991SOL     OW64869   2.296   3.273   7.121
20991SOL    HW164870   2.220   3.253   7.176
20991SOL    HW264871   2.371   3.251   7.176
20992SOL     OW64872   4.026   8.573   3.467
20992SOL    HW164873   4.089   8.641   3.443
20992SOL    HW264874   4.079   8.498   3.493
20993SOL     OW64875  11.423  14.799   2.798
20993SOL    HW164876  11.484  14.760   2.861
20993SOL    HW264877  11.336  14.786   2.837
20994SOL     OW64878   8.453  10.009   0.932
20994SOL    HW164879   8.436  10.072   1.002
20994SOL    HW264880   8.483   9.930   0.976
20995SOL     OW64881   8.801   6.963   8.579
20995SOL    HW164882   8.790   6.934   8.488
20995SOL    HW264883   8.835   6.886   8.624
20996SOL     OW64884  10.585   6.297   8.903
20996SOL    HW164885  10.573   6.390   8.883
20996SOL    HW264886  10.506   6.255   8.870
20997SOL     OW64887   7.352   9.501   3.817
20997SOL    HW164888   7.343   9.445   3.739
20997SOL    HW264889   7.312   9.584   3.792
20998SOL     OW64890   0.425  10.740  11.182
20998SOL    HW164891   0.437  10.764  11.090
20998SOL    HW264892   0.333  10.760  11.201
20999SOL     OW64893   9.851  12.329   5.370
20999SOL    HW164894   9.829  12.279   5.292
20999SOL    HW264895   9.945  12.314   5.382
21000SOL     OW64896  10.211   1.950   4.405
21000SOL    HW164897  10.245   1.950   4.495
21000SOL    HW264898  10.121   1.983   4.414
21001SOL     OW64899   2.846   7.340   3.428
21001SOL    HW164900   2.787   7.270   3.401
21001SOL    HW264901   2.802   7.381   3.502
21002SOL     OW64902   0.630   5.832   9.007
21002SOL    HW164903   0.581   5.807   9.086
21002SOL    HW264904   0.667   5.750   8.976
21003SOL     OW64905  11.290   6.360   9.081
21003SOL    HW164906  11.208   6.312   9.075
21003SOL    HW264907  11.264   6.451   9.088
21004SOL     OW64908   1.843   5.326   4.816
21004SOL    HW164909   1.863   5.272   4.893
21004SOL    HW264910   1.874   5.274   4.742
21005SOL     OW64911  12.436   1.949   9.967
21005SOL    HW164912  12.503   1.907   9.913
21005SOL    HW264913  12.429   2.037   9.932
21006SOL     OW64914   1.525   9.872   6.482
21006SOL    HW164915   1.586   9.822   6.428
21006SOL    HW264916   1.579   9.905   6.554
21007SOL     OW64917  13.704   7.864   1.705
21007SOL    HW164918  13.764   7.905   1.767
21007SOL    HW264919  13.620   7.907   1.721
21008SOL     OW64920   5.055   3.329   0.671
21008SOL    HW164921   5.140   3.371   0.665
21008SOL    HW264922   5.004   3.366   0.598
21009SOL     OW64923   3.846  13.585   6.184
21009SOL    HW164924   3.776  13.600   6.120
21009SOL    HW264925   3.918  13.548   6.132
21010SOL     OW64926   9.136   9.791   3.914
21010SOL    HW164927   9.117   9.850   3.842
21010SOL    HW264928   9.184   9.846   3.977
21011SOL     OW64929  14.313   8.534   7.654
21011SOL    HW164930  14.274   8.528   7.566
21011SOL    HW264931  14.358   8.618   7.654
21012SOL     OW64932  10.520   9.018   6.785
21012SOL    HW164933  10.595   8.960   6.774
21012SOL    HW264934  10.480   9.021   6.698
21013SOL     OW64935  11.264   1.890  10.808
21013SOL    HW164936  11.174   1.920  10.820
21013SOL    HW264937  11.316   1.951  10.860
21014SOL     OW64938  10.252   2.909  11.588
21014SOL    HW164939  10.274   2.830  11.638
21014SOL    HW264940  10.192   2.958  11.644
21015SOL     OW64941   4.993   2.857  11.271
21015SOL    HW164942   5.016   2.898  11.355
21015SOL    HW264943   5.007   2.926  11.206
21016SOL     OW64944  12.387  10.225  13.299
21016SOL    HW164945  12.329  10.171  13.245
21016SOL    HW264946  12.470  10.177  13.301
21017SOL     OW64947   9.775   4.227   1.851
21017SOL    HW164948   9.837   4.179   1.795
21017SOL    HW264949   9.783   4.318   1.824
21018SOL     OW64950  13.094   6.567   3.196
21018SOL    HW164951  13.118   6.485   3.153
21018SOL    HW264952  13.051   6.618   3.127
21019SOL     OW64953   1.237   5.491   9.475
21019SOL    HW164954   1.304   5.472   9.541
21019SOL    HW264955   1.254   5.428   9.405
21020SOL     OW64956   7.885   6.334   7.567
21020SOL    HW164957   7.937   6.395   7.618
21020SOL    HW264958   7.945   6.264   7.542
21021SOL     OW64959   1.835   6.334   7.436
21021SOL    HW164960   1.870   6.288   7.360
21021SOL    HW264961   1.897   6.316   7.506
21022SOL     OW64962   0.090   3.423   1.576
21022SOL    HW164963   0.021   3.467   1.527
21022SOL    HW264964   0.050   3.342   1.607
21023SOL     OW64965  10.776  10.968  10.527
21023SOL    HW164966  10.839  10.903  10.558
21023SOL    HW264967  10.814  11.052  10.551
21024SOL     OW64968   7.451  11.813   5.337
21024SOL    HW164969   7.391  11.785   5.267
21024SOL    HW264970   7.510  11.875   5.294
21025SOL     OW64971  11.729   5.000  11.925
21025SOL    HW164972  11.786   4.936  11.968
21025SOL    HW264973  11.653   4.949  11.897
21026SOL     OW64974   8.375   7.406   4.062
21026SOL    HW164975   8.372   7.331   4.004
21026SOL    HW264976   8.373   7.482   4.004
21027SOL     OW64977   5.344   9.749   0.855
21027SOL    HW164978   5.282   9.812   0.894
21027SOL    HW264979   5.406   9.804   0.807
21028SOL     OW64980   1.931   9.758   7.602
21028SOL    HW164981   1.873   9.833   7.619
21028SOL    HW264982   1.873   9.691   7.567
21029SOL     OW64983   0.250   9.997   1.838
21029SOL    HW164984   0.194  10.000   1.760
21029SOL    HW264985   0.296   9.914   1.831
21030SOL     OW64986   3.410   2.285   7.929
21030SOL    HW164987   3.486   2.328   7.968
21030SOL    HW264988   3.404   2.202   7.975
21031SOL     OW64989  11.785   8.011   9.745
21031SOL    HW164990  11.852   8.079   9.736
21031SOL    HW264991  11.703   8.060   9.755
21032SOL     OW64992  14.248   9.125  10.174
21032SOL    HW164993  14.186   9.053  10.186
21032SOL    HW264994  14.199   9.190  10.124
21033SOL     OW64995   1.751   9.930   4.570
21033SOL    HW164996   1.706   9.995   4.623
21033SOL    HW264997   1.784   9.979   4.494
21034SOL     OW64998  14.419   8.135   9.572
21034SOL    HW164999  14.450   8.163   9.486
21034SOL    HW265000  14.493   8.086   9.610
21035SOL     OW65001   1.433  10.813   5.879
21035SOL    HW165002   1.360  10.801   5.939
21035SOL    HW265003   1.397  10.866   5.808
21036SOL     OW65004   7.632   3.903   8.217
21036SOL    HW165005   7.684   3.826   8.236
21036SOL    HW265006   7.676   3.975   8.263
21037SOL     OW65007  14.115   9.722   7.076
21037SOL    HW165008  14.204   9.745   7.103
21037SOL    HW265009  14.061   9.737   7.153
21038SOL     OW65010   2.886   4.248   5.832
21038SOL    HW165011   2.910   4.160   5.863
21038SOL    HW265012   2.796   4.260   5.863
21039SOL     OW65013   4.318  12.034   0.291
21039SOL    HW165014   4.311  12.127   0.308
21039SOL    HW265015   4.411  12.016   0.284
21040SOL     OW65016   7.526  12.725  12.128
21040SOL    HW165017   7.492  12.694  12.212
21040SOL    HW265018   7.506  12.654  12.066
21041SOL     OW65019  11.064   6.416   7.749
21041SOL    HW165020  11.069   6.459   7.834
21041SOL    HW265021  11.004   6.470   7.698
21042SOL     OW65022   1.829  10.786  12.489
21042SOL    HW165023   1.880  10.865  12.471
21042SOL    HW265024   1.894  10.722  12.520
21043SOL     OW65025   6.147  10.973   6.381
21043SOL    HW165026   6.120  10.896   6.432
21043SOL    HW265027   6.084  11.041   6.405
21044SOL     OW65028   6.000   2.995  13.667
21044SOL    HW165029   5.943   3.060  13.708
21044SOL    HW265030   6.043   3.043  13.596
21045SOL     OW65031   9.643   7.667   2.287
21045SOL    HW165032   9.576   7.599   2.291
21045SOL    HW265033   9.598   7.743   2.249
21046SOL     OW65034   8.248   7.057   3.494
21046SOL    HW165035   8.182   6.988   3.489
21046SOL    HW265036   8.303   7.032   3.568
21047SOL     OW65037   6.761   8.320   1.843
21047SOL    HW165038   6.835   8.367   1.881
21047SOL    HW265039   6.745   8.248   1.904
21048SOL     OW65040   5.679   9.791  14.003
21048SOL    HW165041   5.744   9.797  13.934
21048SOL    HW265042   5.670   9.697  14.021
21049SOL     OW65043   5.005   9.035  11.159
21049SOL    HW165044   5.095   9.050  11.129
21049SOL    HW265045   5.010   9.044  11.255
21050SOL     OW65046   0.995   5.544   9.592
21050SOL    HW165047   1.083   5.530   9.557
21050SOL    HW265048   0.966   5.457   9.619
21051SOL     OW65049  14.033  11.208  11.231
21051SOL    HW165050  13.999  11.208  11.142
21051SOL    HW265051  14.115  11.159  11.225
21052SOL     OW65052  10.172  12.239   4.063
21052SOL    HW165053  10.116  12.316   4.057
21052SOL    HW265054  10.137  12.189   4.137
21053SOL     OW65055   1.945   6.128  12.631
21053SOL    HW165056   1.862   6.090  12.601
21053SOL    HW265057   1.947   6.215  12.591
21054SOL     OW65058  10.191   2.390   4.832
21054SOL    HW165059  10.096   2.402   4.827
21054SOL    HW265060  10.203   2.302   4.866
21055SOL     OW65061   3.502   6.792  12.846
21055SOL    HW165062   3.496   6.704  12.808
21055SOL    HW265063   3.531   6.847  12.773
21056SOL     OW65064   6.106   7.090   2.510
21056SOL    HW165065   6.047   7.158   2.541
21056SOL    HW265066   6.187   7.104   2.560
21057SOL     OW65067   6.216  13.278   6.510
21057SOL    HW165068   6.295  13.327   6.489
21057SOL    HW265069   6.167  13.275   6.428
21058SOL     OW65070   9.732   1.280  11.597
21058SOL    HW165071   9.686   1.206  11.558
21058SOL    HW265072   9.702   1.356  11.548
21059SOL     OW65073  11.398   5.615  11.703
21059SOL    HW165074  11.466   5.549  11.693
21059SOL    HW265075  11.410   5.649  11.792
21060SOL     OW65076   0.547   2.200  11.409
21060SOL    HW165077   0.513   2.246  11.486
21060SOL    HW265078   0.469   2.178  11.358
21061SOL     OW65079   6.408   9.805   0.098
21061SOL    HW165080   6.391   9.733   0.158
21061SOL    HW265081   6.323   9.822   0.056
21062SOL     OW65082  12.970  14.156   9.059
21062SOL    HW165083  12.891  14.200   9.089
21062SOL    HW265084  12.939  14.081   9.010
21063SOL     OW65085   7.134  12.879  12.421
21063SOL    HW165086   7.057  12.829  12.446
21063SOL    HW265087   7.139  12.872  12.326
21064SOL     OW65088   5.047   9.387   2.144
21064SOL    HW165089   5.007   9.300   2.147
21064SOL    HW265090   4.995   9.440   2.204
21065SOL     OW65091   8.932   5.511  13.914
21065SOL    HW165092   8.955   5.602  13.932
21065SOL    HW265093   8.941   5.502  13.819
21066SOL     OW65094   2.687  12.624   4.727
21066SOL    HW165095   2.695  12.597   4.635
21066SOL    HW265096   2.616  12.689   4.727
21067SOL     OW65097  11.639   4.488   6.956
21067SOL    HW165098  11.727   4.449   6.950
21067SOL    HW265099  11.648   4.574   6.915
21068SOL     OW65100   0.022   0.558   6.893
21068SOL    HW165101  14.860   0.617   6.830
21068SOL    HW265102   0.055   0.616   6.961
21069SOL     OW65103   9.114   8.723   1.519
21069SOL    HW165104   9.146   8.765   1.440
21069SOL    HW265105   9.101   8.631   1.494
21070SOL     OW65106   9.423   1.010   8.521
21070SOL    HW165107   9.366   0.969   8.587
21070SOL    HW265108   9.510   0.977   8.540
21071SOL     OW65109  13.621   4.001   9.274
21071SOL    HW165110  13.660   3.937   9.214
21071SOL    HW265111  13.691   4.022   9.336
21072SOL     OW65112   6.351   9.136   2.608
21072SOL    HW165113   6.340   9.101   2.696
21072SOL    HW265114   6.266   9.124   2.566
21073SOL     OW65115   3.071  13.829  13.103
21073SOL    HW165116   3.047  13.748  13.057
21073SOL    HW265117   3.093  13.801  13.192
21074SOL     OW65118  14.015   3.084   3.687
21074SOL    HW165119  13.978   3.001   3.656
21074SOL    HW265120  14.068   3.059   3.763
21075SOL     OW65121   6.634   4.171   4.878
21075SOL    HW165122   6.720   4.130   4.892
21075SOL    HW265123   6.595   4.121   4.807
21076SOL     OW65124   5.092  12.337  12.061
21076SOL    HW165125   5.033  12.388  12.005
21076SOL    HW265126   5.166  12.396  12.076
21077SOL     OW65127   7.250   3.933   8.473
21077SOL    HW165128   7.328   3.877   8.473
21077SOL    HW265129   7.270   4.002   8.409
21078SOL     OW65130   5.930   2.273   0.439
21078SOL    HW165131   5.875   2.209   0.484
21078SOL    HW265132   5.869   2.329   0.392
21079SOL     OW65133   0.138   9.458  11.353
21079SOL    HW165134   0.052   9.416  11.352
21079SOL    HW265135   0.189   9.407  11.416
21080SOL     OW65136   6.172  10.606   8.472
21080SOL    HW165137   6.182  10.581   8.380
21080SOL    HW265138   6.231  10.548   8.520
21081SOL     OW65139   1.424  11.447   9.143
21081SOL    HW165140   1.426  11.442   9.048
21081SOL    HW265141   1.402  11.538   9.163
21082SOL     OW65142   4.606   9.779   8.617
21082SOL    HW165143   4.568   9.691   8.617
21082SOL    HW265144   4.700   9.765   8.616
21083SOL     OW65145  11.249   3.818   4.327
21083SOL    HW165146  11.163   3.791   4.295
21083SOL    HW265147  11.231   3.863   4.409
21084SOL     OW65148   7.555   3.578  10.613
21084SOL    HW165149   7.492   3.646  10.589
21084SOL    HW265150   7.637   3.625  10.627
21085SOL     OW65151   4.237  10.379   7.795
21085SOL    HW165152   4.290  10.393   7.716
21085SOL    HW265153   4.222  10.284   7.797
21086SOL     OW65154  11.211   0.092  13.263
21086SOL    HW165155  11.229   0.182  13.237
21086SOL    HW265156  11.296   0.058  13.292
21087SOL     OW65157  13.176   2.495  13.237
21087SOL    HW165158  13.265   2.468  13.261
21087SOL    HW265159  13.188   2.573  13.183
21088SOL     OW65160   0.922  13.099  12.702
21088SOL    HW165161   0.851  13.162  12.691
21088SOL    HW265162   0.981  13.142  12.764
21089SOL     OW65163   5.168   4.356   9.745
21089SOL    HW165164   5.264   4.357   9.746
21089SOL    HW265165   5.144   4.431   9.691
21090SOL     OW65166   7.679   1.708  14.122
21090SOL    HW165167   7.713   1.772  14.060
21090SOL    HW265168   7.704   1.623  14.086
21091SOL     OW65169   2.823   3.333   4.445
21091SOL    HW165170   2.918   3.344   4.458
21091SOL    HW265171   2.816   3.277   4.368
21092SOL     OW65172   0.668   7.715   8.784
21092SOL    HW165173   0.686   7.731   8.691
21092SOL    HW265174   0.610   7.787   8.809
21093SOL     OW65175  10.929   0.622   9.113
21093SOL    HW165176  10.906   0.610   9.205
21093SOL    HW265177  10.860   0.680   9.079
21094SOL     OW65178   2.133   3.221   5.667
21094SOL    HW165179   2.144   3.250   5.576
21094SOL    HW265180   2.069   3.150   5.661
21095SOL     OW65181   1.112   6.416  13.366
21095SOL    HW165182   1.042   6.482  13.366
21095SOL    HW265183   1.191   6.466  13.342
21096SOL     OW65184  10.827  14.638  13.752
21096SOL    HW165185  10.792  14.594  13.675
21096SOL    HW265186  10.750  14.656  13.806
21097SOL     OW65187  11.650  14.024   4.606
21097SOL    HW165188  11.579  13.965   4.630
21097SOL    HW265189  11.730  13.975   4.627
21098SOL     OW65190   0.746   4.073   2.238
21098SOL    HW165191   0.818   4.061   2.301
21098SOL    HW265192   0.667   4.058   2.289
21099SOL     OW65193  10.974  14.128  11.422
21099SOL    HW165194  10.918  14.123  11.344
21099SOL    HW265195  11.059  14.096  11.393
21100SOL     OW65196  10.066  14.134  14.428
21100SOL    HW165197  10.013  14.194  14.375
21100SOL    HW265198  10.023  14.132  14.513
21101SOL     OW65199  13.226  10.752   8.669
21101SOL    HW165200  13.207  10.835   8.624
21101SOL    HW265201  13.300  10.772   8.726
21102SOL     OW65202   8.783   8.021   0.039
21102SOL    HW165203   8.858   8.039   0.096
21102SOL    HW265204   8.797   7.932   0.008
21103SOL     OW65205  12.909   1.532   2.485
21103SOL    HW165206  12.983   1.573   2.438
21103SOL    HW265207  12.950   1.479   2.552
21104SOL     OW65208   1.573   5.880  11.633
21104SOL    HW165209   1.511   5.919  11.573
21104SOL    HW265210   1.655   5.928  11.618
21105SOL     OW65211   0.313  10.197   7.978
21105SOL    HW165212   0.300  10.238   7.893
21105SOL    HW265213   0.305  10.268   8.041
21106SOL     OW65214   6.658   6.575  10.108
21106SOL    HW165215   6.659   6.596  10.015
21106SOL    HW265216   6.635   6.657  10.151
21107SOL     OW65217   0.134   2.717   3.628
21107SOL    HW165218   0.178   2.658   3.566
21107SOL    HW265219   0.172   2.803   3.611
21108SOL     OW65220   9.904  14.113  11.394
21108SOL    HW165221   9.992  14.077  11.403
21108SOL    HW265222   9.887  14.156  11.477
21109SOL     OW65223   4.955   5.731   3.851
21109SOL    HW165224   5.000   5.707   3.770
21109SOL    HW265225   5.025   5.747   3.914
21110SOL     OW65226   5.847  14.022  13.871
21110SOL    HW165227   5.829  13.968  13.794
21110SOL    HW265228   5.892  13.963  13.931
21111SOL     OW65229   5.424   8.829   8.270
21111SOL    HW165230   5.384   8.742   8.268
21111SOL    HW265231   5.397   8.866   8.354
21112SOL     OW65232   1.161   5.044   0.714
21112SOL    HW165233   1.225   5.113   0.697
21112SOL    HW265234   1.203   4.964   0.684
21113SOL     OW65235   5.698   1.753   3.309
21113SOL    HW165236   5.659   1.666   3.320
21113SOL    HW265237   5.640   1.811   3.358
21114SOL     OW65238  11.744   7.162   2.234
21114SOL    HW165239  11.677   7.156   2.166
21114SOL    HW265240  11.803   7.088   2.218
21115SOL     OW65241  12.748   0.997  10.036
21115SOL    HW165242  12.694   1.061  10.082
21115SOL    HW265243  12.829   1.044  10.014
21116SOL     OW65244   9.051  14.187   5.889
21116SOL    HW165245   8.983  14.122   5.905
21116SOL    HW265246   9.092  14.159   5.808
21117SOL     OW65247   4.277   8.264   0.712
21117SOL    HW165248   4.269   8.169   0.700
21117SOL    HW265249   4.368   8.277   0.737
21118SOL     OW65250  10.009  12.902   4.636
21118SOL    HW165251   9.962  12.869   4.712
21118SOL    HW265252  10.028  12.993   4.657
21119SOL     OW65253  14.614  13.179  10.676
21119SOL    HW165254  14.658  13.263  10.661
21119SOL    HW265255  14.598  13.176  10.770
21120SOL     OW65256   4.043  11.862   2.062
21120SOL    HW165257   4.006  11.774   2.058
21120SOL    HW265258   4.114  11.856   2.126
21121SOL     OW65259   5.663   4.910   8.223
21121SOL    HW165260   5.700   4.859   8.294
21121SOL    HW265261   5.722   4.895   8.149
21122SOL     OW65262   5.928   3.242   8.768
21122SOL    HW165263   5.914   3.270   8.858
21122SOL    HW265264   5.874   3.164   8.758
21123SOL     OW65265   0.251   9.298  13.075
21123SOL    HW165266   0.300   9.354  13.135
21123SOL    HW265267   0.269   9.209  13.105
21124SOL     OW65268   8.646   9.454   3.203
21124SOL    HW165269   8.700   9.533   3.208
21124SOL    HW265270   8.653   9.416   3.290
21125SOL     OW65271   0.666   8.391   4.941
21125SOL    HW165272   0.644   8.351   4.857
21125SOL    HW265273   0.694   8.317   4.996
21126SOL     OW65274   9.536  10.224  13.178
21126SOL    HW165275   9.546  10.246  13.270
21126SOL    HW265276   9.605  10.160  13.160
21127SOL     OW65277  12.193  13.453  13.258
21127SOL    HW165278  12.266  13.440  13.318
21127SOL    HW265279  12.141  13.522  13.299
21128SOL     OW65280  14.377   7.643   0.925
21128SOL    HW165281  14.417   7.574   0.980
21128SOL    HW265282  14.428   7.721   0.945
21129SOL     OW65283   9.521   2.905   3.249
21129SOL    HW165284   9.445   2.962   3.242
21129SOL    HW265285   9.558   2.902   3.160
21130SOL     OW65286  11.164  12.767   0.754
21130SOL    HW165287  11.086  12.745   0.804
21130SOL    HW265288  11.183  12.858   0.777
21131SOL     OW65289  10.051   2.634  14.465
21131SOL    HW165290  10.109   2.578  14.516
21131SOL    HW265291  10.090   2.634  14.377
21132SOL     OW65292  10.371   5.604  10.160
21132SOL    HW165293  10.292   5.577  10.207
21132SOL    HW265294  10.426   5.645  10.227
21133SOL     OW65295   9.663   7.445   1.685
21133SOL    HW165296   9.580   7.447   1.733
21133SOL    HW265297   9.637   7.432   1.594
21134SOL     OW65298  11.988   1.771   2.649
21134SOL    HW165299  12.018   1.741   2.734
21134SOL    HW265300  12.028   1.858   2.638
21135SOL     OW65301   7.276   6.073   6.961
21135SOL    HW165302   7.278   6.135   6.889
21135SOL    HW265303   7.183   6.067   6.984
21136SOL     OW65304   4.346  14.796   4.378
21136SOL    HW165305   4.291  14.871   4.354
21136SOL    HW265306   4.320  14.727   4.317
21137SOL     OW65307   1.598   1.274   3.124
21137SOL    HW165308   1.546   1.208   3.077
21137SOL    HW265309   1.649   1.223   3.187
21138SOL     OW65310   1.546   9.284   2.408
21138SOL    HW165311   1.531   9.323   2.322
21138SOL    HW265312   1.637   9.255   2.406
21139SOL     OW65313  13.201   2.521   8.295
21139SOL    HW165314  13.195   2.530   8.390
21139SOL    HW265315  13.217   2.427   8.282
21140SOL     OW65316   3.042   2.057   0.728
21140SOL    HW165317   3.027   1.964   0.715
21140SOL    HW265318   3.101   2.082   0.656
21141SOL     OW65319   4.141   4.287  10.607
21141SOL    HW165320   4.162   4.367  10.558
21141SOL    HW265321   4.203   4.286  10.680
21142SOL     OW65322   6.753   9.358   8.333
21142SOL    HW165323   6.669   9.397   8.360
21142SOL    HW265324   6.794   9.333   8.416
21143SOL     OW65325   9.590  12.577  10.303
21143SOL    HW165326   9.600  12.671  10.314
21143SOL    HW265327   9.609  12.562  10.210
21144SOL     OW65328  11.455   1.182   0.448
21144SOL    HW165329  11.533   1.196   0.502
21144SOL    HW265330  11.398   1.255   0.471
21145SOL     OW65331   4.292   2.053   0.275
21145SOL    HW165332   4.221   2.045   0.210
21145SOL    HW265333   4.304   2.147   0.286
21146SOL     OW65334   0.548   8.913   0.723
21146SOL    HW165335   0.612   8.901   0.793
21146SOL    HW265336   0.522   9.005   0.730
21147SOL     OW65337   8.058   6.132  11.183
21147SOL    HW165338   8.010   6.196  11.130
21147SOL    HW265339   8.117   6.185  11.237
21148SOL     OW65340   5.609  11.918   8.211
21148SOL    HW165341   5.684  11.872   8.173
21148SOL    HW265342   5.647  11.997   8.249
21149SOL     OW65343  12.426  11.533  12.523
21149SOL    HW165344  12.344  11.577  12.500
21149SOL    HW265345  12.448  11.566  12.610
21150SOL     OW65346  14.087  13.309   2.006
21150SOL    HW165347  14.172  13.325   1.966
21150SOL    HW265348  14.092  13.219   2.039
21151SOL     OW65349   3.371  10.975  11.937
21151SOL    HW165350   3.329  10.974  11.851
21151SOL    HW265351   3.308  10.932  11.995
21152SOL     OW65352   6.010   0.797   9.665
21152SOL    HW165353   6.054   0.766   9.586
21152SOL    HW265354   5.958   0.722   9.694
21153SOL     OW65355   4.083   7.966   6.545
21153SOL    HW165356   4.163   7.942   6.593
21153SOL    HW265357   4.022   7.894   6.562
21154SOL     OW65358   7.276   7.334   6.055
21154SOL    HW165359   7.211   7.404   6.059
21154SOL    HW265360   7.225   7.253   6.061
21155SOL     OW65361   6.033   8.570  12.056
21155SOL    HW165362   5.969   8.610  12.114
21155SOL    HW265363   6.056   8.638  11.993
21156SOL     OW65364   8.271   8.156  10.610
21156SOL    HW165365   8.302   8.173  10.521
21156SOL    HW265366   8.328   8.209  10.666
21157SOL     OW65367   1.752   6.269   4.173
21157SOL    HW165368   1.827   6.298   4.122
21157SOL    HW265369   1.711   6.201   4.119
21158SOL     OW65370   3.457   4.310   3.674
21158SOL    HW165371   3.485   4.307   3.582
21158SOL    HW265372   3.437   4.403   3.689
21159SOL     OW65373   4.672   5.033   4.685
21159SOL    HW165374   4.742   5.070   4.739
21159SOL    HW265375   4.592   5.063   4.727
21160SOL     OW65376  10.907   8.877   8.142
21160SOL    HW165377  10.847   8.951   8.149
21160SOL    HW265378  10.949   8.871   8.228
21161SOL     OW65379   8.886  10.683   8.742
21161SOL    HW165380   8.960  10.744   8.737
21161SOL    HW265381   8.923  10.603   8.779
21162SOL     OW65382   2.188   0.552   6.212
21162SOL    HW165383   2.172   0.492   6.139
21162SOL    HW265384   2.138   0.630   6.190
21163SOL     OW65385   7.328  10.746   6.922
21163SOL    HW165386   7.266  10.711   6.986
21163SOL    HW265387   7.272  10.786   6.855
21164SOL     OW65388  10.026   1.061   4.626
21164SOL    HW165389  10.113   1.095   4.646
21164SOL    HW265390  10.024   1.056   4.531
21165SOL     OW65391   8.377   0.544   4.685
21165SOL    HW165392   8.461   0.507   4.658
21165SOL    HW265393   8.400   0.620   4.738
21166SOL     OW65394   9.311   1.105   3.511
21166SOL    HW165395   9.339   1.027   3.463
21166SOL    HW265396   9.325   1.177   3.450
21167SOL     OW65397   8.889  12.017   0.885
21167SOL    HW165398   8.974  11.992   0.848
21167SOL    HW265399   8.828  12.005   0.812
21168SOL     OW65400  13.906   4.310   8.077
21168SOL    HW165401  13.813   4.310   8.056
21168SOL    HW265402  13.947   4.271   8.000
21169SOL     OW65403   4.964   6.407  13.040
21169SOL    HW165404   4.872   6.429  13.027
21169SOL    HW265405   4.964   6.311  13.045
21170SOL     OW65406   5.509   7.600  12.347
21170SOL    HW165407   5.465   7.537  12.404
21170SOL    HW265408   5.491   7.685  12.386
21171SOL     OW65409   5.902   1.268   7.630
21171SOL    HW165410   5.968   1.208   7.665
21171SOL    HW265411   5.928   1.280   7.538
21172SOL     OW65412   7.515  13.541   5.956
21172SOL    HW165413   7.469  13.619   5.988
21172SOL    HW265414   7.566  13.572   5.882
21173SOL     OW65415   1.610   4.993   8.950
21173SOL    HW165416   1.658   4.968   9.029
21173SOL    HW265417   1.543   4.925   8.940
21174SOL     OW65418   7.099   8.834  11.281
21174SOL    HW165419   7.184   8.798  11.307
21174SOL    HW265420   7.099   8.922  11.318
21175SOL     OW65421   4.836   2.665  13.647
21175SOL    HW165422   4.751   2.638  13.612
21175SOL    HW265423   4.841   2.759  13.629
21176SOL     OW65424   7.283  14.056   4.301
21176SOL    HW165425   7.291  13.960   4.308
21176SOL    HW265426   7.198  14.075   4.340
21177SOL     OW65427   6.745   7.349   0.844
21177SOL    HW165428   6.654   7.322   0.835
21177SOL    HW265429   6.746   7.406   0.921
21178SOL     OW65430   4.836   4.134   3.101
21178SOL    HW165431   4.771   4.094   3.043
21178SOL    HW265432   4.913   4.078   3.092
21179SOL     OW65433   9.426  11.958   8.642
21179SOL    HW165434   9.506  11.912   8.619
21179SOL    HW265435   9.430  11.968   8.737
21180SOL     OW65436   6.758   3.108   4.579
21180SOL    HW165437   6.698   3.059   4.635
21180SOL    HW265438   6.828   3.045   4.559
21181SOL     OW65439   3.651  11.463   9.647
21181SOL    HW165440   3.622  11.384   9.601
21181SOL    HW265441   3.574  11.520   9.646
21182SOL     OW65442   4.447  13.840  10.544
21182SOL    HW165443   4.428  13.916  10.489
21182SOL    HW265444   4.390  13.851  10.620
21183SOL     OW65445   6.151  10.641   0.350
21183SOL    HW165446   6.128  10.581   0.421
21183SOL    HW265447   6.245  10.654   0.359
21184SOL     OW65448   8.284   8.744  12.222
21184SOL    HW165449   8.332   8.754  12.140
21184SOL    HW265450   8.192   8.742  12.195
21185SOL     OW65451   9.660   4.059   0.329
21185SOL    HW165452   9.659   4.154   0.315
21185SOL    HW265453   9.672   4.022   0.241
21186SOL     OW65454   6.015   9.700   4.838
21186SOL    HW165455   5.930   9.707   4.882
21186SOL    HW265456   6.024   9.782   4.790
21187SOL     OW65457   3.614   7.876   2.540
21187SOL    HW165458   3.571   7.812   2.596
21187SOL    HW265459   3.550   7.947   2.532
21188SOL     OW65460  14.397   3.202   4.362
21188SOL    HW165461  14.429   3.139   4.427
21188SOL    HW265462  14.471   3.260   4.346
21189SOL     OW65463  14.442  10.398  12.488
21189SOL    HW165464  14.408  10.480  12.453
21189SOL    HW265465  14.531  10.418  12.516
21190SOL     OW65466   9.171   1.908   8.715
21190SOL    HW165467   9.104   1.955   8.764
21190SOL    HW265468   9.188   1.829   8.767
21191SOL     OW65469   6.520   8.923   6.926
21191SOL    HW165470   6.609   8.911   6.961
21191SOL    HW265471   6.531   8.984   6.854
21192SOL     OW65472   5.706   9.641   2.082
21192SOL    HW165473   5.666   9.562   2.046
21192SOL    HW265474   5.743   9.686   2.006
21193SOL     OW65475   5.201   1.650   9.712
21193SOL    HW165476   5.217   1.738   9.745
21193SOL    HW265477   5.288   1.610   9.707
21194SOL     OW65478   4.966   6.693   6.195
21194SOL    HW165479   4.978   6.642   6.276
21194SOL    HW265480   5.010   6.641   6.128
21195SOL     OW65481   3.647   8.637  10.393
21195SOL    HW165482   3.738   8.659  10.372
21195SOL    HW265483   3.595   8.697  10.340
21196SOL     OW65484  14.445   7.664   5.196
21196SOL    HW165485  14.448   7.590   5.135
21196SOL    HW265486  14.483   7.737   5.147
21197SOL     OW65487  14.335   9.400   7.369
21197SOL    HW165488  14.267   9.467   7.376
21197SOL    HW265489  14.335   9.376   7.276
21198SOL     OW65490  13.709   3.787   1.006
21198SOL    HW165491  13.739   3.827   0.924
21198SOL    HW265492  13.699   3.861   1.066
21199SOL     OW65493   0.701   5.610   7.365
21199SOL    HW165494   0.695   5.523   7.405
21199SOL    HW265495   0.756   5.660   7.425
21200SOL     OW65496   6.209   7.718   9.098
21200SOL    HW165497   6.285   7.664   9.122
21200SOL    HW265498   6.246   7.804   9.078
21201SOL     OW65499  10.230  12.419   1.179
21201SOL    HW165500  10.318  12.430   1.144
21201SOL    HW265501  10.221  12.325   1.194
21202SOL     OW65502   1.967   9.706   6.316
21202SOL    HW165503   2.007   9.630   6.274
21202SOL    HW265504   2.020   9.780   6.287
21203SOL     OW65505   7.838   8.126   5.005
21203SOL    HW165506   7.830   8.130   4.910
21203SOL    HW265507   7.843   8.033   5.026
21204SOL     OW65508   3.547  11.212   8.802
21204SOL    HW165509   3.513  11.245   8.719
21204SOL    HW265510   3.485  11.144   8.828
21205SOL     OW65511  12.969  14.260   3.284
21205SOL    HW165512  12.935  14.191   3.227
21205SOL    HW265513  12.891  14.313   3.304
21206SOL     OW65514   0.414   1.417   4.179
21206SOL    HW165515   0.387   1.384   4.093
21206SOL    HW265516   0.480   1.356   4.209
21207SOL     OW65517   5.908  13.089   2.908
21207SOL    HW165518   5.937  13.003   2.880
21207SOL    HW265519   5.922  13.146   2.832
21208SOL     OW65520   1.995  11.004  11.155
21208SOL    HW165521   1.900  10.995  11.160
21208SOL    HW265522   2.017  10.977  11.065
21209SOL     OW65523   7.695   8.681  11.575
21209SOL    HW165524   7.713   8.630  11.654
21209SOL    HW265525   7.681   8.616  11.506
21210SOL     OW65526  12.843   6.211  13.124
21210SOL    HW165527  12.771   6.162  13.085
21210SOL    HW265528  12.921   6.162  13.100
21211SOL     OW65529   1.167   1.696  10.306
21211SOL    HW165530   1.151   1.606  10.280
21211SOL    HW265531   1.168   1.745  10.223
21212SOL     OW65532  11.522   2.295   3.056
21212SOL    HW165533  11.595   2.332   3.106
21212SOL    HW265534  11.449   2.295   3.117
21213SOL     OW65535   0.196   3.584   9.566
21213SOL    HW165536   0.200   3.569   9.472
21213SOL    HW265537   0.194   3.679   9.576
21214SOL     OW65538   1.660   0.152   7.527
21214SOL    HW165539   1.695   0.241   7.520
21214SOL    HW265540   1.571   0.164   7.559
21215SOL     OW65541   1.482  11.635  12.860
21215SOL    HW165542   1.497  11.671  12.947
21215SOL    HW265543   1.559  11.661  12.809
21216SOL     OW65544  12.009   7.055   2.438
21216SOL    HW165545  12.043   7.001   2.366
21216SOL    HW265546  12.067   7.035   2.511
21217SOL     OW65547   2.983  10.071   9.701
21217SOL    HW165548   2.974  10.140   9.766
21217SOL    HW265549   2.931  10.101   9.627
21218SOL     OW65550  14.508   4.845   8.905
21218SOL    HW165551  14.440   4.837   8.971
21218SOL    HW265552  14.583   4.882   8.952
21219SOL     OW65553   6.663   0.315   3.123
21219SOL    HW165554   6.708   0.261   3.059
21219SOL    HW265555   6.734   0.348   3.180
21220SOL     OW65556  12.294   6.415  11.855
21220SOL    HW165557  12.308   6.332  11.809
21220SOL    HW265558  12.201   6.415  11.877
21221SOL     OW65559   4.561  13.720  13.270
21221SOL    HW165560   4.478  13.674  13.270
21221SOL    HW265561   4.616  13.670  13.332
21222SOL     OW65562   0.878   5.074   3.869
21222SOL    HW165563   0.810   5.006   3.874
21222SOL    HW265564   0.956   5.033   3.907
21223SOL     OW65565   8.768   5.521   7.371
21223SOL    HW165566   8.678   5.544   7.393
21223SOL    HW265567   8.760   5.447   7.311
21224SOL     OW65568   0.765   6.016   4.707
21224SOL    HW165569   0.724   6.100   4.731
21224SOL    HW265570   0.724   5.992   4.624
21225SOL     OW65571   6.041   3.780  13.933
21225SOL    HW165572   5.957   3.816  13.964
21225SOL    HW265573   6.045   3.806  13.841
21226SOL     OW65574   5.034  14.145   8.608
21226SOL    HW165575   4.961  14.201   8.634
21226SOL    HW265576   5.037  14.076   8.674
21227SOL     OW65577   8.401   8.728   6.991
21227SOL    HW165578   8.359   8.803   6.949
21227SOL    HW265579   8.437   8.763   7.073
21228SOL     OW65580  10.526   2.316   1.934
21228SOL    HW165581  10.440   2.333   1.896
21228SOL    HW265582  10.520   2.226   1.967
21229SOL     OW65583  10.422  10.894   1.895
21229SOL    HW165584  10.482  10.911   1.967
21229SOL    HW265585  10.409  10.799   1.896
21230SOL     OW65586   6.413   9.980  10.173
21230SOL    HW165587   6.424   9.903  10.119
21230SOL    HW265588   6.405  10.052  10.111
21231SOL     OW65589   4.649   1.998   3.531
21231SOL    HW165590   4.593   2.071   3.505
21231SOL    HW265591   4.629   1.985   3.624
21232SOL     OW65592   8.053  13.869   3.681
21232SOL    HW165593   8.026  13.844   3.769
21232SOL    HW265594   8.097  13.953   3.692
21233SOL     OW65595   0.895  11.860   8.831
21233SOL    HW165596   0.828  11.897   8.774
21233SOL    HW265597   0.940  11.936   8.867
21234SOL     OW65598   5.689   6.427   5.210
21234SOL    HW165599   5.741   6.447   5.131
21234SOL    HW265600   5.741   6.462   5.282
21235SOL     OW65601   1.152   5.026  12.058
21235SOL    HW165602   1.241   5.048  12.029
21235SOL    HW265603   1.147   5.057  12.148
21236SOL     OW65604  12.779   1.681  12.573
21236SOL    HW165605  12.803   1.754  12.517
21236SOL    HW265606  12.702   1.643  12.530
21237SOL     OW65607   5.942  14.185   7.249
21237SOL    HW165608   5.956  14.271   7.289
21237SOL    HW265609   5.897  14.205   7.166
21238SOL     OW65610   4.637   0.185  12.402
21238SOL    HW165611   4.544   0.168  12.418
21238SOL    HW265612   4.682   0.115  12.449
21239SOL     OW65613   3.577  12.347   6.009
21239SOL    HW165614   3.603  12.256   6.022
21239SOL    HW265615   3.508  12.361   6.075
21240SOL     OW65616   6.524   6.079   3.388
21240SOL    HW165617   6.460   6.148   3.371
21240SOL    HW265618   6.571   6.068   3.305
21241SOL     OW65619   5.525  11.147   9.853
21241SOL    HW165620   5.595  11.202   9.887
21241SOL    HW265621   5.562  11.058   9.855
21242SOL     OW65622   4.422   3.710  14.532
21242SOL    HW165623   4.340   3.682  14.574
21242SOL    HW265624   4.394   3.772  14.465
21243SOL     OW65625  14.301  10.772   8.134
21243SOL    HW165626  14.219  10.820   8.143
21243SOL    HW265627  14.301  10.711   8.207
21244SOL     OW65628   8.692   5.598   6.370
21244SOL    HW165629   8.763   5.640   6.321
21244SOL    HW265630   8.617   5.601   6.310
21245SOL     OW65631   6.343   7.815  13.441
21245SOL    HW165632   6.414   7.876  13.462
21245SOL    HW265633   6.371   7.731  13.478
21246SOL     OW65634   3.638  14.241  12.180
21246SOL    HW165635   3.694  14.219  12.254
21246SOL    HW265636   3.619  14.157  12.139
21247SOL     OW65637   9.690   1.202   6.214
21247SOL    HW165638   9.785   1.199   6.228
21247SOL    HW265639   9.665   1.111   6.200
21248SOL     OW65640   7.942   0.729  14.579
21248SOL    HW165641   7.887   0.770  14.512
21248SOL    HW265642   7.880   0.680  14.633
21249SOL     OW65643   9.384   6.057   6.308
21249SOL    HW165644   9.329   6.072   6.232
21249SOL    HW265645   9.327   6.072   6.383
21250SOL     OW65646  11.848   2.938   2.780
21250SOL    HW165647  11.803   2.979   2.854
21250SOL    HW265648  11.886   3.011   2.731
21251SOL     OW65649  12.826   6.277   3.057
21251SOL    HW165650  12.870   6.340   3.000
21251SOL    HW265651  12.733   6.287   3.036
21252SOL     OW65652   0.951   1.892  13.953
21252SOL    HW165653   0.991   1.877  14.038
21252SOL    HW265654   0.925   1.805  13.923
21253SOL     OW65655  12.345   2.390   4.151
21253SOL    HW165656  12.361   2.456   4.218
21253SOL    HW265657  12.349   2.437   4.068
21254SOL     OW65658   3.154   3.054  10.822
21254SOL    HW165659   3.249   3.063  10.820
21254SOL    HW265660   3.135   2.989  10.754
21255SOL     OW65661   5.680  10.607  10.035
21255SOL    HW165662   5.713  10.618   9.946
21255SOL    HW265663   5.587  10.584  10.024
21256SOL     OW65664   2.690  12.393  13.509
21256SOL    HW165665   2.740  12.345  13.443
21256SOL    HW265666   2.732  12.479  13.513
21257SOL     OW65667  12.594   0.402   9.171
21257SOL    HW165668  12.612   0.309   9.154
21257SOL    HW265669  12.655   0.425   9.241
21258SOL     OW65670  10.884   3.580   4.797
21258SOL    HW165671  10.944   3.653   4.787
21258SOL    HW265672  10.889   3.557   4.890
21259SOL     OW65673   4.225   2.069  13.291
21259SOL    HW165674   4.278   2.139  13.328
21259SOL    HW265675   4.140   2.078  13.334
21260SOL     OW65676   8.856   3.085   7.234
21260SOL    HW165677   8.838   3.102   7.141
21260SOL    HW265678   8.871   3.171   7.272
21261SOL     OW65679   0.546   3.659   9.557
21261SOL    HW165680   0.577   3.746   9.581
21261SOL    HW265681   0.538   3.661   9.462
21262SOL     OW65682  11.703   9.999   2.845
21262SOL    HW165683  11.746   9.915   2.833
21262SOL    HW265684  11.760  10.062   2.801
21263SOL     OW65685   3.340   1.479  11.873
21263SOL    HW165686   3.433   1.502  11.879
21263SOL    HW265687   3.336   1.390  11.908
21264SOL     OW65688  11.291   0.152   3.565
21264SOL    HW165689  11.280   0.183   3.654
21264SOL    HW265690  11.360   0.085   3.571
21265SOL     OW65691   7.645   6.256   7.676
21265SOL    HW165692   7.608   6.334   7.718
21265SOL    HW265693   7.734   6.281   7.654
21266SOL     OW65694  10.275   5.410   7.843
21266SOL    HW165695  10.338   5.382   7.777
21266SOL    HW265696  10.324   5.410   7.925
21267SOL     OW65697   8.474   2.490   5.262
21267SOL    HW165698   8.439   2.447   5.184
21267SOL    HW265699   8.486   2.419   5.325
21268SOL     OW65700  11.733  11.883  14.798
21268SOL    HW165701  11.793  11.956  14.789
21268SOL    HW265702  11.721  11.850  14.708
21269SOL     OW65703  13.741  13.774   9.725
21269SOL    HW165704  13.795  13.699   9.704
21269SOL    HW265705  13.740  13.777   9.821
21270SOL     OW65706  12.009   1.006   2.115
21270SOL    HW165707  11.988   1.040   2.028
21270SOL    HW265708  12.102   1.027   2.127
21271SOL     OW65709   7.322   7.177   2.683
21271SOL    HW165710   7.240   7.208   2.721
21271SOL    HW265711   7.359   7.120   2.750
21272SOL     OW65712  11.815   0.447  14.713
21272SOL    HW165713  11.802   0.504  14.637
21272SOL    HW265714  11.818   0.359  14.677
21273SOL     OW65715   9.966   2.707   0.991
21273SOL    HW165716   9.908   2.772   0.950
21273SOL    HW265717  10.047   2.756   1.010
21274SOL     OW65718  13.640   3.167   8.432
21274SOL    HW165719  13.587   3.246   8.424
21274SOL    HW265720  13.717   3.195   8.482
21275SOL     OW65721   8.442   5.126   1.418
21275SOL    HW165722   8.534   5.101   1.416
21275SOL    HW265723   8.420   5.144   1.326
21276SOL     OW65724   8.683  14.011   5.540
21276SOL    HW165725   8.613  14.052   5.591
21276SOL    HW265726   8.763  14.036   5.585
21277SOL     OW65727   6.906   1.828  13.379
21277SOL    HW165728   6.935   1.756  13.434
21277SOL    HW265729   6.862   1.786  13.305
21278SOL     OW65730   6.480   5.703   2.936
21278SOL    HW165731   6.532   5.625   2.956
21278SOL    HW265732   6.399   5.668   2.898
21279SOL     OW65733   3.000  13.490  14.255
21279SOL    HW165734   3.018  13.577  14.218
21279SOL    HW265735   2.955  13.509  14.338
21280SOL     OW65736  12.166   2.357  14.280
21280SOL    HW165737  12.193   2.399  14.198
21280SOL    HW265738  12.083   2.398  14.302
21281SOL     OW65739   1.442   6.458  13.129
21281SOL    HW165740   1.462   6.370  13.097
21281SOL    HW265741   1.514   6.512  13.096
21282SOL     OW65742   7.722   5.898  11.470
21282SOL    HW165743   7.692   5.881  11.559
21282SOL    HW265744   7.643   5.921  11.422
21283SOL     OW65745  14.057   6.657  10.487
21283SOL    HW165746  14.084   6.590  10.550
21283SOL    HW265747  14.079   6.620  10.402
21284SOL     OW65748  11.886   8.650   2.770
21284SOL    HW165749  11.968   8.650   2.820
21284SOL    HW265750  11.833   8.582   2.812
21285SOL     OW65751  14.146   6.614  14.869
21285SOL    HW165752  14.056   6.626  14.839
21285SOL    HW265753  14.191   6.571  14.796
21286SOL     OW65754   2.558   6.332  10.200
21286SOL    HW165755   2.529   6.262  10.259
21286SOL    HW265756   2.643   6.358  10.234
21287SOL     OW65757   4.135   7.222   9.919
21287SOL    HW165758   4.141   7.173   9.837
21287SOL    HW265759   4.119   7.155   9.986
21288SOL     OW65760   0.386  12.678   1.875
21288SOL    HW165761   0.368  12.691   1.968
21288SOL    HW265762   0.417  12.588   1.869
21289SOL     OW65763   5.822   0.161  12.556
21289SOL    HW165764   5.872   0.199  12.629
21289SOL    HW265765   5.837   0.222  12.484
21290SOL     OW65766   6.598  10.398   0.603
21290SOL    HW165767   6.562  10.404   0.514
21290SOL    HW265768   6.645  10.481   0.615
21291SOL     OW65769  12.146  13.801   5.135
21291SOL    HW165770  12.195  13.799   5.217
21291SOL    HW265771  12.165  13.886   5.097
21292SOL     OW65772   8.086   7.470  14.465
21292SOL    HW165773   8.029   7.524  14.410
21292SOL    HW265774   8.160   7.449  14.408
21293SOL     OW65775  11.927  11.605  14.428
21293SOL    HW165776  11.934  11.677  14.366
21293SOL    HW265777  11.846  11.623  14.476
21294SOL     OW65778   8.564  11.237   9.894
21294SOL    HW165779   8.582  11.165   9.953
21294SOL    HW265780   8.481  11.274   9.925
21295SOL     OW65781  13.752   3.207  12.920
21295SOL    HW165782  13.699   3.282  12.893
21295SOL    HW265783  13.753   3.211  13.016
21296SOL     OW65784   7.470  13.012   6.900
21296SOL    HW165785   7.464  12.956   6.823
21296SOL    HW265786   7.394  12.990   6.953
21297SOL     OW65787   5.637   1.231   7.624
21297SOL    HW165788   5.628   1.170   7.551
21297SOL    HW265789   5.730   1.252   7.626
21298SOL     OW65790   6.487   4.495   2.203
21298SOL    HW165791   6.470   4.476   2.110
21298SOL    HW265792   6.548   4.569   2.201
21299SOL     OW65793   5.865  14.467   2.387
21299SOL    HW165794   5.799  14.413   2.342
21299SOL    HW265795   5.916  14.405   2.438
21300SOL     OW65796   4.898  12.880   2.705
21300SOL    HW165797   4.973  12.823   2.717
21300SOL    HW265798   4.903  12.909   2.614
21301SOL     OW65799   2.931   8.560   7.057
21301SOL    HW165800   2.900   8.648   7.077
21301SOL    HW265801   2.916   8.511   7.138
21302SOL     OW65802   9.137   0.268   6.473
21302SOL    HW165803   9.109   0.231   6.557
21302SOL    HW265804   9.196   0.340   6.497
21303SOL     OW65805   5.622   4.421   3.446
21303SOL    HW165806   5.650   4.345   3.497
21303SOL    HW265807   5.584   4.481   3.510
21304SOL     OW65808   8.529   3.515   4.230
21304SOL    HW165809   8.490   3.527   4.144
21304SOL    HW265810   8.623   3.524   4.216
21305SOL     OW65811   2.249   4.750  14.738
21305SOL    HW165812   2.237   4.705  14.654
21305SOL    HW265813   2.161   4.758  14.774
21306SOL     OW65814   5.732  11.957  11.884
21306SOL    HW165815   5.665  11.921  11.941
21306SOL    HW265816   5.791  11.883  11.867
21307SOL     OW65817   0.110   7.972   7.265
21307SOL    HW165818   0.035   7.998   7.319
21307SOL    HW265819   0.076   7.968   7.176
21308SOL     OW65820   1.509   7.593  12.701
21308SOL    HW165821   1.548   7.594  12.613
21308SOL    HW265822   1.584   7.591  12.761
21309SOL     OW65823   0.650  13.862   8.887
21309SOL    HW165824   0.743  13.872   8.909
21309SOL    HW265825   0.606  13.864   8.972
21310SOL     OW65826   0.826   3.609   8.270
21310SOL    HW165827   0.776   3.586   8.192
21310SOL    HW265828   0.915   3.625   8.239
21311SOL     OW65829   7.184   9.148  13.399
21311SOL    HW165830   7.121   9.144  13.472
21311SOL    HW265831   7.208   9.240  13.393
21312SOL     OW65832  14.486   6.011   1.822
21312SOL    HW165833  14.433   5.998   1.743
21312SOL    HW265834  14.430   5.981   1.894
21313SOL     OW65835  12.845   2.286  11.773
21313SOL    HW165836  12.929   2.252  11.743
21313SOL    HW265837  12.861   2.379  11.788
21314SOL     OW65838  12.507   2.441  14.207
21314SOL    HW165839  12.506   2.384  14.130
21314SOL    HW265840  12.598   2.470  14.213
21315SOL     OW65841   8.314   4.388  10.056
21315SOL    HW165842   8.285   4.318  10.114
21315SOL    HW265843   8.270   4.467  10.088
21316SOL     OW65844   1.069   3.783  13.926
21316SOL    HW165845   1.124   3.811  14.000
21316SOL    HW265846   0.987   3.830  13.939
21317SOL     OW65847   4.934   6.793  10.176
21317SOL    HW165848   4.928   6.700  10.196
21317SOL    HW265849   4.996   6.798  10.103
21318SOL     OW65850  12.458   5.302  13.391
21318SOL    HW165851  12.445   5.221  13.344
21318SOL    HW265852  12.414   5.369  13.338
21319SOL     OW65853   1.696  13.929  12.920
21319SOL    HW165854   1.653  13.844  12.931
21319SOL    HW265855   1.734  13.948  13.005
21320SOL     OW65856  10.578  14.653  10.241
21320SOL    HW165857  10.590  14.745  10.264
21320SOL    HW265858  10.613  14.605  10.316
21321SOL     OW65859   5.996   2.398  13.671
21321SOL    HW165860   5.974   2.479  13.716
21321SOL    HW265861   5.946   2.330  13.716
21322SOL     OW65862   7.642   5.855  13.706
21322SOL    HW165863   7.579   5.899  13.649
21322SOL    HW265864   7.604   5.860  13.793
21323SOL     OW65865  11.539  10.554   9.824
21323SOL    HW165866  11.618  10.553   9.878
21323SOL    HW265867  11.482  10.488   9.864
21324SOL     OW65868  11.487   7.429   8.753
21324SOL    HW165869  11.574   7.457   8.784
21324SOL    HW265870  11.426   7.482   8.804
21325SOL     OW65871   9.740  12.733   4.544
21325SOL    HW165872   9.681  12.759   4.474
21325SOL    HW265873   9.785  12.813   4.569
21326SOL     OW65874  10.929  14.865   6.528
21326SOL    HW165875  10.847  14.869   6.577
21326SOL    HW265876  10.938   0.072   6.489
21327SOL     OW65877   5.703  14.447  10.267
21327SOL    HW165878   5.633  14.414  10.323
21327SOL    HW265879   5.762  14.493  10.326
21328SOL     OW65880  11.305   2.455  11.609
21328SOL    HW165881  11.291   2.418  11.522
21328SOL    HW265882  11.385   2.413  11.640
21329SOL     OW65883  12.995   0.790   7.747
21329SOL    HW165884  13.067   0.845   7.777
21329SOL    HW265885  13.022   0.701   7.770
21330SOL     OW65886   3.537  10.668   6.305
21330SOL    HW165887   3.454  10.707   6.276
21330SOL    HW265888   3.600  10.740   6.299
21331SOL     OW65889   4.881  14.499   2.446
21331SOL    HW165890   4.933  14.511   2.366
21331SOL    HW265891   4.791  14.494   2.416
21332SOL     OW65892  13.025   6.302   8.969
21332SOL    HW165893  13.071   6.341   8.895
21332SOL    HW265894  12.988   6.221   8.935
21333SOL     OW65895  13.545   6.935   9.275
21333SOL    HW165896  13.493   7.004   9.234
21333SOL    HW265897  13.508   6.926   9.363
21334SOL     OW65898   2.010   2.564   2.455
21334SOL    HW165899   2.065   2.586   2.380
21334SOL    HW265900   2.069   2.523   2.518
21335SOL     OW65901   4.417  10.639  12.321
21335SOL    HW165902   4.508  10.649  12.293
21335SOL    HW265903   4.374  10.720  12.293
21336SOL     OW65904  11.505  14.878   5.233
21336SOL    HW165905  11.475  14.835   5.314
21336SOL    HW265906  11.501   0.091   5.253
21337SOL     OW65907  12.701  11.267  14.665
21337SOL    HW165908  12.741  11.187  14.628
21337SOL    HW265909  12.741  11.338  14.616
21338SOL     OW65910  10.599   3.980   7.990
21338SOL    HW165911  10.546   3.900   7.999
21338SOL    HW265912  10.675   3.965   8.046
21339SOL     OW65913   6.262   6.180   9.443
21339SOL    HW165914   6.313   6.205   9.366
21339SOL    HW265915   6.207   6.107   9.412
21340SOL     OW65916  11.543   0.994   8.183
21340SOL    HW165917  11.588   0.930   8.128
21340SOL    HW265918  11.506   0.942   8.254
21341SOL     OW65919  10.209   5.813   0.687
21341SOL    HW165920  10.251   5.755   0.624
21341SOL    HW265921  10.272   5.821   0.758
21342SOL     OW65922  14.878   1.201   7.321
21342SOL    HW165923  14.812   1.172   7.258
21342SOL    HW265924   0.034   1.281   7.282
21343SOL     OW65925   8.980   4.957  14.224
21343SOL    HW165926   8.929   5.026  14.265
21343SOL    HW265927   9.049   4.937  14.287
21344SOL     OW65928   2.945  11.747   4.649
21344SOL    HW165929   2.899  11.771   4.729
21344SOL    HW265930   3.015  11.688   4.678
21345SOL     OW65931   5.972   0.333  13.866
21345SOL    HW165932   5.898   0.272  13.864
21345SOL    HW265933   6.021   0.313  13.786
21346SOL     OW65934   7.730   7.646   6.245
21346SOL    HW165935   7.666   7.602   6.189
21346SOL    HW265936   7.687   7.727   6.272
21347SOL     OW65937   0.980   0.308   4.729
21347SOL    HW165938   0.968   0.278   4.819
21347SOL    HW265939   0.913   0.375   4.717
21348SOL     OW65940   3.982   5.538   1.965
21348SOL    HW165941   3.979   5.557   1.871
21348SOL    HW265942   4.053   5.594   1.998
21349SOL     OW65943  11.463   5.474  12.203
21349SOL    HW165944  11.417   5.554  12.229
21349SOL    HW265945  11.488   5.432  12.285
21350SOL     OW65946   9.322   7.058  11.977
21350SOL    HW165947   9.231   7.047  12.006
21350SOL    HW265948   9.363   6.973  11.994
21351SOL     OW65949   3.267  11.262  10.811
21351SOL    HW165950   3.237  11.330  10.749
21351SOL    HW265951   3.190  11.242  10.864
21352SOL     OW65952  12.128   5.122   6.140
21352SOL    HW165953  12.076   5.072   6.203
21352SOL    HW265954  12.187   5.175   6.194
21353SOL     OW65955   3.170   5.719   7.373
21353SOL    HW165956   3.085   5.764   7.369
21353SOL    HW265957   3.230   5.787   7.404
21354SOL     OW65958   7.492   0.770  13.206
21354SOL    HW165959   7.584   0.788  13.228
21354SOL    HW265960   7.496   0.722  13.123
21355SOL     OW65961   5.486   5.131   3.037
21355SOL    HW165962   5.418   5.173   3.089
21355SOL    HW265963   5.568   5.165   3.072
21356SOL     OW65964   9.537   8.913   3.836
21356SOL    HW165965   9.599   8.851   3.798
21356SOL    HW265966   9.537   8.987   3.775
21357SOL     OW65967   3.207  11.493  10.540
21357SOL    HW165968   3.143  11.454  10.481
21357SOL    HW265969   3.154  11.543  10.603
21358SOL     OW65970  14.480   6.252  12.088
21358SOL    HW165971  14.514   6.217  12.005
21358SOL    HW265972  14.489   6.180  12.150
21359SOL     OW65973   5.221  13.121   6.713
21359SOL    HW165974   5.147  13.137   6.772
21359SOL    HW265975   5.212  13.029   6.688
21360SOL     OW65976   2.169   3.272  13.666
21360SOL    HW165977   2.167   3.367  13.656
21360SOL    HW265978   2.130   3.255  13.752
21361SOL     OW65979  13.052  12.122   0.493
21361SOL    HW165980  13.085  12.065   0.424
21361SOL    HW265981  13.055  12.069   0.573
21362SOL     OW65982   7.396   8.999   0.953
21362SOL    HW165983   7.391   8.925   1.014
21362SOL    HW265984   7.480   9.041   0.974
21363SOL     OW65985   3.584  11.973   5.231
21363SOL    HW165986   3.552  11.883   5.224
21363SOL    HW265987   3.506  12.026   5.244
21364SOL     OW65988  13.549   8.545   1.749
21364SOL    HW165989  13.604   8.584   1.817
21364SOL    HW265990  13.584   8.456   1.737
21365SOL     OW65991  12.156  10.958   3.498
21365SOL    HW165992  12.122  10.948   3.588
21365SOL    HW265993  12.081  10.936   3.442
21366SOL     OW65994   8.613  10.505   4.785
21366SOL    HW165995   8.576  10.588   4.758
21366SOL    HW265996   8.630  10.458   4.703
21367SOL     OW65997   5.959  11.867  14.072
21367SOL    HW165998   6.020  11.802  14.037
21367SOL    HW265999   6.011  11.946  14.083
21368SOL     OW66000   1.196  12.420   5.606
21368SOL    HW166001   1.119  12.463   5.569
21368SOL    HW266002   1.183  12.423   5.700
21369SOL     OW66003  11.123   4.080   1.814
21369SOL    HW166004  11.151   4.054   1.902
21369SOL    HW266005  11.140   4.004   1.759
21370SOL     OW66006   2.852   9.900   6.078
21370SOL    HW166007   2.856   9.885   5.984
21370SOL    HW266008   2.916   9.840   6.115
21371SOL     OW66009  12.544  10.751   5.681
21371SOL    HW166010  12.524  10.844   5.688
21371SOL    HW266011  12.637  10.747   5.659
21372SOL     OW66012   2.302  12.180   8.235
21372SOL    HW166013   2.225  12.211   8.188
21372SOL    HW266014   2.267  12.126   8.306
21373SOL     OW66015   1.977   8.456  11.383
21373SOL    HW166016   2.051   8.395  11.387
21373SOL    HW266017   1.901   8.402  11.365
21374SOL     OW66018   1.213  14.152  11.798
21374SOL    HW166019   1.260  14.194  11.871
21374SOL    HW266020   1.253  14.190  11.719
21375SOL     OW66021   9.778  11.851   1.663
21375SOL    HW166022   9.758  11.944   1.677
21375SOL    HW266023   9.853  11.834   1.719
21376SOL     OW66024   9.403  12.590  11.311
21376SOL    HW166025   9.479  12.646  11.329
21376SOL    HW266026   9.424  12.548  11.228
21377SOL     OW66027   4.347   8.783  11.022
21377SOL    HW166028   4.388   8.794  11.107
21377SOL    HW266029   4.415   8.741  10.968
21378SOL     OW66030  12.622  10.154  13.875
21378SOL    HW166031  12.601  10.076  13.925
21378SOL    HW266032  12.717  10.151  13.864
21379SOL     OW66033   2.317  13.384  13.357
21379SOL    HW166034   2.389  13.390  13.294
21379SOL    HW266035   2.316  13.469  13.400
21380SOL     OW66036   5.228   9.355   3.773
21380SOL    HW166037   5.176   9.279   3.747
21380SOL    HW266038   5.253   9.337   3.864
21381SOL     OW66039  13.547   1.601  14.859
21381SOL    HW166040  13.523   1.587  14.768
21381SOL    HW266041  13.552   1.696  14.868
21382SOL     OW66042   5.182  11.166   5.768
21382SOL    HW166043   5.111  11.147   5.829
21382SOL    HW266044   5.257  11.186   5.824
21383SOL     OW66045   8.460  11.438  14.681
21383SOL    HW166046   8.527  11.450  14.613
21383SOL    HW266047   8.447  11.343  14.685
21384SOL     OW66048  13.163   4.609   7.938
21384SOL    HW166049  13.199   4.523   7.916
21384SOL    HW266050  13.140   4.648   7.854
21385SOL     OW66051   2.229   2.404   8.538
21385SOL    HW166052   2.239   2.361   8.454
21385SOL    HW266053   2.246   2.336   8.603
21386SOL     OW66054   7.300   3.789   5.389
21386SOL    HW166055   7.365   3.780   5.459
21386SOL    HW266056   7.218   3.764   5.430
21387SOL     OW66057  11.505  13.741   9.528
21387SOL    HW166058  11.505  13.818   9.471
21387SOL    HW266059  11.421  13.699   9.510
21388SOL     OW66060  10.676   6.911   7.997
21388SOL    HW166061  10.705   6.968   8.068
21388SOL    HW266062  10.688   6.962   7.917
21389SOL     OW66063   1.601   1.331   7.902
21389SOL    HW166064   1.653   1.287   7.835
21389SOL    HW266065   1.510   1.312   7.878
21390SOL     OW66066  14.254  11.246   9.884
21390SOL    HW166067  14.298  11.167   9.853
21390SOL    HW266068  14.306  11.275   9.959
21391SOL     OW66069  13.360   1.085  11.599
21391SOL    HW166070  13.455   1.082  11.590
21391SOL    HW266071  13.342   1.170  11.640
21392SOL     OW66072   9.691  10.210   2.545
21392SOL    HW166073   9.772  10.261   2.543
21392SOL    HW266074   9.622  10.276   2.558
21393SOL     OW66075   0.261   0.315   7.079
21393SOL    HW166076   0.264   0.240   7.137
21393SOL    HW266077   0.310   0.383   7.125
21394SOL     OW66078  14.122   4.460   1.142
21394SOL    HW166079  14.198   4.499   1.097
21394SOL    HW266080  14.080   4.534   1.187
21395SOL     OW66081   9.270   6.562  13.190
21395SOL    HW166082   9.231   6.523  13.268
21395SOL    HW266083   9.350   6.511  13.175
21396SOL     OW66084   8.072   0.636   0.501
21396SOL    HW166085   8.014   0.625   0.577
21396SOL    HW266086   8.148   0.683   0.535
21397SOL     OW66087  14.636   8.458   0.862
21397SOL    HW166088  14.588   8.399   0.804
21397SOL    HW266089  14.692   8.509   0.804
21398SOL     OW66090   0.223   1.669   9.430
21398SOL    HW166091   0.258   1.737   9.372
21398SOL    HW266092   0.170   1.613   9.373
21399SOL     OW66093   2.185   5.017   5.083
21399SOL    HW166094   2.212   4.930   5.112
21399SOL    HW266095   2.252   5.043   5.019
21400SOL     OW66096   3.113   7.367   7.352
21400SOL    HW166097   3.182   7.339   7.413
21400SOL    HW266098   3.049   7.297   7.355
21401SOL     OW66099  11.058   8.289   9.517
21401SOL    HW166100  11.029   8.248   9.436
21401SOL    HW266101  10.977   8.302   9.567
21402SOL     OW66102  10.207  14.821  12.134
21402SOL    HW166103  10.203   0.033  12.110
21402SOL    HW266104  10.267  14.782  12.070
21403SOL     OW66105   4.124   8.198   6.693
21403SOL    HW166106   4.129   8.116   6.645
21403SOL    HW266107   4.150   8.175   6.782
21404SOL     OW66108   8.779  14.100  12.412
21404SOL    HW166109   8.850  14.145  12.367
21404SOL    HW266110   8.805  14.008  12.411
21405SOL     OW66111  13.560   4.900   3.992
21405SOL    HW166112  13.646   4.941   3.983
21405SOL    HW266113  13.561   4.828   3.929
21406SOL     OW66114   8.100   4.116   6.698
21406SOL    HW166115   8.085   4.177   6.770
21406SOL    HW266116   8.025   4.131   6.640
21407SOL     OW66117   7.208  14.255   2.269
21407SOL    HW166118   7.163  14.335   2.241
21407SOL    HW266119   7.279  14.286   2.326
21408SOL     OW66120  11.909   1.069  12.084
21408SOL    HW166121  11.921   1.110  12.170
21408SOL    HW266122  11.955   0.985  12.091
21409SOL     OW66123  12.984  14.351   7.531
21409SOL    HW166124  12.916  14.295   7.493
21409SOL    HW266125  13.030  14.387   7.455
21410SOL     OW66126   5.552  13.966  10.156
21410SOL    HW166127   5.518  13.975  10.245
21410SOL    HW266128   5.591  13.879  10.154
21411SOL     OW66129   5.275   6.072   5.540
21411SOL    HW166130   5.232   6.123   5.472
21411SOL    HW266131   5.348   6.028   5.496
21412SOL     OW66132  11.368   7.413   3.566
21412SOL    HW166133  11.354   7.491   3.619
21412SOL    HW266134  11.323   7.432   3.483
21413SOL     OW66135  14.422  14.272  10.651
21413SOL    HW166136  14.328  14.259  10.662
21413SOL    HW266137  14.433  14.290  10.558
21414SOL     OW66138   3.663   2.434   0.878
21414SOL    HW166139   3.581   2.386   0.886
21414SOL    HW266140   3.725   2.385   0.932
21415SOL     OW66141   5.492   6.258  14.714
21415SOL    HW166142   5.488   6.312  14.793
21415SOL    HW266143   5.573   6.209  14.722
21416SOL     OW66144  12.009  13.923   4.861
21416SOL    HW166145  12.035  14.014   4.847
21416SOL    HW266146  12.086  13.872   4.835
21417SOL     OW66147   9.775   8.625   9.748
21417SOL    HW166148   9.684   8.604   9.724
21417SOL    HW266149   9.806   8.547   9.794
21418SOL     OW66150   2.253  12.676   7.598
21418SOL    HW166151   2.256  12.676   7.503
21418SOL    HW266152   2.345  12.684   7.625
21419SOL     OW66153  14.354   0.198  11.003
21419SOL    HW166154  14.403   0.228  10.927
21419SOL    HW266155  14.421   0.166  11.064
21420SOL     OW66156   9.236   6.801  12.451
21420SOL    HW166157   9.251   6.856  12.528
21420SOL    HW266158   9.299   6.833  12.386
21421SOL     OW66159   0.453   4.615   4.488
21421SOL    HW166160   0.537   4.661   4.488
21421SOL    HW266161   0.427   4.613   4.580
21422SOL     OW66162   5.804  13.388   9.178
21422SOL    HW166163   5.721  13.363   9.220
21422SOL    HW266164   5.834  13.464   9.227
21423SOL     OW66165   3.961   2.140  10.374
21423SOL    HW166166   3.976   2.164  10.283
21423SOL    HW266167   4.039   2.091  10.399
21424SOL     OW66168   4.063  11.521  13.404
21424SOL    HW166169   4.091  11.613  13.399
21424SOL    HW266170   4.032  11.511  13.493
21425SOL     OW66171   0.235   2.985  14.473
21425SOL    HW166172   0.203   2.982  14.563
21425SOL    HW266173   0.261   3.077  14.460
21426SOL     OW66174   9.854   9.040   1.347
21426SOL    HW166175   9.866   9.130   1.317
21426SOL    HW266176   9.937   9.018   1.388
21427SOL     OW66177   6.790   2.312   0.524
21427SOL    HW166178   6.706   2.340   0.560
21427SOL    HW266179   6.837   2.394   0.506
21428SOL     OW66180   7.632   3.165   6.824
21428SOL    HW166181   7.602   3.255   6.809
21428SOL    HW266182   7.720   3.163   6.785
21429SOL     OW66183  12.196   6.241  13.196
21429SOL    HW166184  12.109   6.241  13.157
21429SOL    HW266185  12.239   6.319  13.160
21430SOL     OW66186   0.405  11.100  12.613
21430SOL    HW166187   0.441  11.189  12.619
21430SOL    HW266188   0.378  11.091  12.522
21431SOL     OW66189   3.120   6.671   8.913
21431SOL    HW166190   3.196   6.702   8.962
21431SOL    HW266191   3.157   6.630   8.835
21432SOL     OW66192   7.657   0.074   8.286
21432SOL    HW166193   7.648   0.160   8.328
21432SOL    HW266194   7.584   0.068   8.226
21433SOL     OW66195  10.247   4.456  12.449
21433SOL    HW166196  10.225   4.514  12.376
21433SOL    HW266197  10.281   4.513  12.517
21434SOL     OW66198  10.584   1.559   9.011
21434SOL    HW166199  10.568   1.639   8.960
21434SOL    HW266200  10.630   1.502   8.950
21435SOL     OW66201   1.608  10.454   6.069
21435SOL    HW166202   1.521  10.494   6.068
21435SOL    HW266203   1.596  10.371   6.114
21436SOL     OW66204   2.038   9.254   7.547
21436SOL    HW166205   2.098   9.317   7.506
21436SOL    HW266206   2.030   9.184   7.483
21437SOL     OW66207   6.443   1.024   7.280
21437SOL    HW166208   6.402   0.948   7.239
21437SOL    HW266209   6.478   0.991   7.363
21438SOL     OW66210  13.142  14.074  12.826
21438SOL    HW166211  13.222  14.121  12.807
21438SOL    HW266212  13.171  13.995  12.872
21439SOL     OW66213   0.348  11.343   4.310
21439SOL    HW166214   0.367  11.308   4.397
21439SOL    HW266215   0.313  11.431   4.327
21440SOL     OW66216   3.185   5.120  10.851
21440SOL    HW166217   3.234   5.050  10.807
21440SOL    HW266218   3.208   5.110  10.944
21441SOL     OW66219  14.257   4.157   6.262
21441SOL    HW166220  14.234   4.243   6.296
21441SOL    HW266221  14.335   4.171   6.209
21442SOL     OW66222   1.707   0.041   2.939
21442SOL    HW166223   1.715  14.863   3.014
21442SOL    HW266224   1.723  14.865   2.863
21443SOL     OW66225  12.534   0.403   1.195
21443SOL    HW166226  12.495   0.487   1.222
21443SOL    HW266227  12.542   0.354   1.277
21444SOL     OW66228   3.110   2.082  13.372
21444SOL    HW166229   3.146   2.133  13.299
21444SOL    HW266230   3.068   2.007  13.331
21445SOL     OW66231   9.138   3.571   6.642
21445SOL    HW166232   9.086   3.652   6.645
21445SOL    HW266233   9.073   3.501   6.645
21446SOL     OW66234  12.979   4.588  13.922
21446SOL    HW166235  12.940   4.542  13.997
21446SOL    HW266236  13.071   4.598  13.945
21447SOL     OW66237  12.089  13.316  11.559
21447SOL    HW166238  12.019  13.363  11.515
21447SOL    HW266239  12.048  13.277  11.635
21448SOL     OW66240   7.745   0.380   2.245
21448SOL    HW166241   7.677   0.415   2.302
21448SOL    HW266242   7.699   0.323   2.184
21449SOL     OW66243   4.162  13.746   8.528
21449SOL    HW166244   4.149  13.773   8.619
21449SOL    HW266245   4.105  13.670   8.518
21450SOL     OW66246   8.659   4.989   2.179
21450SOL    HW166247   8.575   4.971   2.222
21450SOL    HW266248   8.635   5.034   2.098
21451SOL     OW66249   1.297   6.738   3.362
21451SOL    HW166250   1.250   6.721   3.444
21451SOL    HW266251   1.374   6.682   3.366
21452SOL     OW66252   9.379   7.660   5.878
21452SOL    HW166253   9.297   7.627   5.917
21452SOL    HW266254   9.350   7.719   5.809
21453SOL     OW66255   7.136  14.155   6.398
21453SOL    HW166256   7.140  14.119   6.487
21453SOL    HW266257   7.054  14.205   6.396
21454SOL     OW66258   0.617   9.529   8.120
21454SOL    HW166259   0.542   9.550   8.064
21454SOL    HW266260   0.612   9.435   8.133
21455SOL     OW66261   5.522   9.485  11.353
21455SOL    HW166262   5.615   9.495  11.370
21455SOL    HW266263   5.490   9.575  11.342
21456SOL     OW66264   7.104  10.493   7.299
21456SOL    HW166265   7.073  10.479   7.210
21456SOL    HW266266   7.026  10.485   7.353
21457SOL     OW66267  12.977   9.672  11.042
21457SOL    HW166268  12.915   9.606  11.070
21457SOL    HW266269  13.048   9.667  11.106
21458SOL     OW66270   7.508   0.061   6.345
21458SOL    HW166271   7.531  14.858   6.385
21458SOL    HW266272   7.523   0.125   6.415
21459SOL     OW66273  11.287  13.948  10.406
21459SOL    HW166274  11.382  13.962  10.411
21459SOL    HW266275  11.264  13.912  10.492
21460SOL     OW66276  13.747  13.573   3.294
21460SOL    HW166277  13.797  13.589   3.214
21460SOL    HW266278  13.655  13.579   3.266
21461SOL     OW66279  10.040   5.957   6.354
21461SOL    HW166280   9.992   5.885   6.395
21461SOL    HW266281   9.982   5.988   6.284
21462SOL     OW66282   7.350   9.281   6.091
21462SOL    HW166283   7.437   9.302   6.056
21462SOL    HW266284   7.362   9.197   6.135
21463SOL     OW66285  11.455  12.363   2.546
21463SOL    HW166286  11.422  12.281   2.509
21463SOL    HW266287  11.416  12.431   2.491
21464SOL     OW66288  12.785   9.914  12.697
21464SOL    HW166289  12.740   9.894  12.615
21464SOL    HW266290  12.715   9.939  12.758
21465SOL     OW66291   2.193  10.381   0.018
21465SOL    HW166292   2.277  10.352   0.054
21465SOL    HW266293   2.128  10.345   0.078
21466SOL     OW66294  10.045  12.177   0.801
21466SOL    HW166295  10.103  12.110   0.837
21466SOL    HW266296  10.100  12.255   0.794
21467SOL     OW66297  14.823   4.348   2.421
21467SOL    HW166298  14.871   4.313   2.346
21467SOL    HW266299  14.735   4.367   2.387
21468SOL     OW66300   1.934  13.766  11.969
21468SOL    HW166301   1.848  13.796  11.942
21468SOL    HW266302   1.918  13.712  12.046
21469SOL     OW66303   3.200   5.017  11.540
21469SOL    HW166304   3.115   4.990  11.507
21469SOL    HW266305   3.187   5.108  11.569
21470SOL     OW66306   8.413   4.331   2.701
21470SOL    HW166307   8.359   4.409   2.691
21470SOL    HW266308   8.385   4.273   2.630
21471SOL     OW66309   6.505   0.857   1.099
21471SOL    HW166310   6.466   0.810   1.026
21471SOL    HW266311   6.557   0.926   1.058
21472SOL     OW66312  13.524   3.729  13.377
21472SOL    HW166313  13.459   3.748  13.445
21472SOL    HW266314  13.548   3.815  13.342
21473SOL     OW66315   7.623   8.853   6.817
21473SOL    HW166316   7.702   8.883   6.863
21473SOL    HW266317   7.555   8.854   6.884
21474SOL     OW66318  13.562  12.168  11.869
21474SOL    HW166319  13.542  12.126  11.785
21474SOL    HW266320  13.639  12.121  11.901
21475SOL     OW66321   1.600   5.236   8.426
21475SOL    HW166322   1.573   5.327   8.430
21475SOL    HW266323   1.696   5.239   8.430
21476SOL     OW66324  14.191   8.377   2.391
21476SOL    HW166325  14.215   8.433   2.317
21476SOL    HW266326  14.257   8.395   2.458
21477SOL     OW66327   8.852   3.824  12.593
21477SOL    HW166328   8.761   3.851  12.581
21477SOL    HW266329   8.852   3.776  12.676
21478SOL     OW66330  10.138   2.465   2.916
21478SOL    HW166331  10.177   2.379   2.906
21478SOL    HW266332  10.094   2.482   2.833
21479SOL     OW66333  10.813   6.408  13.314
21479SOL    HW166334  10.724   6.376  13.298
21479SOL    HW266335  10.804   6.465  13.391
21480SOL     OW66336   4.447   5.289  14.258
21480SOL    HW166337   4.426   5.215  14.317
21480SOL    HW266338   4.363   5.317  14.224
21481SOL     OW66339   4.113   2.852   0.677
21481SOL    HW166340   4.097   2.783   0.740
21481SOL    HW266341   4.138   2.806   0.596
21482SOL     OW66342  12.783   9.866  10.974
21482SOL    HW166343  12.868   9.826  10.988
21482SOL    HW266344  12.720   9.802  11.007
21483SOL     OW66345  10.500  12.185   4.551
21483SOL    HW166346  10.537  12.098   4.535
21483SOL    HW266347  10.527  12.236   4.475
21484SOL     OW66348  13.440  11.002  14.039
21484SOL    HW166349  13.505  11.043  14.096
21484SOL    HW266350  13.463  10.909  14.041
21485SOL     OW66351   3.494  10.892   6.106
21485SOL    HW166352   3.550  10.920   6.034
21485SOL    HW266353   3.550  10.897   6.183
21486SOL     OW66354   3.252   8.678  12.152
21486SOL    HW166355   3.210   8.764  12.153
21486SOL    HW266356   3.266   8.656  12.244
21487SOL     OW66357   5.460  10.116   8.329
21487SOL    HW166358   5.405  10.049   8.369
21487SOL    HW266359   5.549  10.082   8.336
21488SOL     OW66360   3.327   4.695  12.755
21488SOL    HW166361   3.289   4.773  12.795
21488SOL    HW266362   3.259   4.663  12.696
21489SOL     OW66363  10.789   4.994   3.272
21489SOL    HW166364  10.835   4.914   3.245
21489SOL    HW266365  10.842   5.065   3.236
21490SOL     OW66366   9.504   5.546   3.438
21490SOL    HW166367   9.508   5.639   3.414
21490SOL    HW266368   9.587   5.510   3.408
21491SOL     OW66369   5.492  13.361  11.557
21491SOL    HW166370   5.541  13.363  11.640
21491SOL    HW266371   5.515  13.443  11.514
21492SOL     OW66372   4.806   3.484  12.613
21492SOL    HW166373   4.895   3.484  12.577
21492SOL    HW266374   4.779   3.392  12.608
21493SOL     OW66375   2.458  14.207   4.180
21493SOL    HW166376   2.399  14.137   4.153
21493SOL    HW266377   2.544  14.178   4.151
21494SOL     OW66378   8.829   8.075  12.813
21494SOL    HW166379   8.911   8.032  12.790
21494SOL    HW266380   8.805   8.037  12.897
21495SOL     OW66381   4.839   7.751  12.061
21495SOL    HW166382   4.766   7.774  12.005
21495SOL    HW266383   4.839   7.819  12.129
21496SOL     OW66384   6.783  11.238   5.206
21496SOL    HW166385   6.757  11.308   5.266
21496SOL    HW266386   6.856  11.194   5.250
21497SOL     OW66387   4.653   0.606  10.641
21497SOL    HW166388   4.641   0.645  10.727
21497SOL    HW266389   4.603   0.525  10.645
21498SOL     OW66390   4.773   6.081   1.515
21498SOL    HW166391   4.806   5.999   1.551
21498SOL    HW266392   4.844   6.114   1.461
21499SOL     OW66393  13.514  13.222   0.469
21499SOL    HW166394  13.476  13.301   0.432
21499SOL    HW266395  13.469  13.150   0.424
21500SOL     OW66396  12.689   8.315   5.196
21500SOL    HW166397  12.662   8.347   5.282
21500SOL    HW266398  12.624   8.352   5.136
21501SOL     OW66399   4.348   0.180  12.342
21501SOL    HW166400   4.324   0.251  12.282
21501SOL    HW266401   4.283   0.112  12.325
21502SOL     OW66402   4.367   0.999  12.126
21502SOL    HW166403   4.299   0.935  12.149
21502SOL    HW266404   4.320   1.066  12.075
21503SOL     OW66405   7.164   0.301   7.308
21503SOL    HW166406   7.194   0.348   7.230
21503SOL    HW266407   7.194   0.355   7.382
21504SOL     OW66408   0.602   2.563  12.886
21504SOL    HW166409   0.571   2.593  12.971
21504SOL    HW266410   0.645   2.640  12.848
21505SOL     OW66411  14.034   5.215  12.282
21505SOL    HW166412  14.078   5.192  12.200
21505SOL    HW266413  14.036   5.311  12.285
21506SOL     OW66414   9.923   1.837   8.089
21506SOL    HW166415   9.882   1.917   8.057
21506SOL    HW266416  10.017   1.852   8.080
21507SOL     OW66417  14.254   4.384   6.383
21507SOL    HW166418  14.334   4.426   6.353
21507SOL    HW266419  14.268   4.369   6.477
21508SOL     OW66420   2.476   1.229   6.564
21508SOL    HW166421   2.445   1.193   6.648
21508SOL    HW266422   2.532   1.303   6.589
21509SOL     OW66423  13.994  11.807  13.792
21509SOL    HW166424  14.005  11.888  13.842
21509SOL    HW266425  14.081  11.787  13.759
21510SOL     OW66426  14.297   0.638   3.155
21510SOL    HW166427  14.347   0.654   3.234
21510SOL    HW266428  14.331   0.555   3.121
21511SOL     OW66429   6.220   1.708   6.111
21511SOL    HW166430   6.275   1.769   6.161
21511SOL    HW266431   6.146   1.761   6.082
21512SOL     OW66432   7.977  11.300   9.457
21512SOL    HW166433   7.953  11.217   9.497
21512SOL    HW266434   7.979  11.282   9.363
21513SOL     OW66435  13.456   4.702   6.408
21513SOL    HW166436  13.386   4.728   6.348
21513SOL    HW266437  13.535   4.701   6.354
21514SOL     OW66438  13.091  13.402   4.752
21514SOL    HW166439  13.115  13.487   4.788
21514SOL    HW266440  13.015  13.420   4.697
21515SOL     OW66441  10.383   0.829   2.562
21515SOL    HW166442  10.402   0.876   2.481
21515SOL    HW266443  10.353   0.743   2.534
21516SOL     OW66444   8.403   4.283  11.195
21516SOL    HW166445   8.388   4.352  11.130
21516SOL    HW266446   8.339   4.216  11.173
21517SOL     OW66447  11.078   6.195   2.631
21517SOL    HW166448  11.022   6.162   2.702
21517SOL    HW266449  11.022   6.256   2.583
21518SOL     OW66450  13.520  13.566   8.871
21518SOL    HW166451  13.485  13.575   8.783
21518SOL    HW266452  13.511  13.653   8.909
21519SOL     OW66453  14.749  13.894  14.463
21519SOL    HW166454  14.729  13.971  14.409
21519SOL    HW266455  14.664  13.851  14.474
21520SOL     OW66456  10.021   0.542   8.794
21520SOL    HW166457   9.992   0.625   8.756
21520SOL    HW266458   9.941   0.503   8.830
21521SOL     OW66459  10.359   2.864  13.019
21521SOL    HW166460  10.352   2.957  12.995
21521SOL    HW266461  10.355   2.818  12.935
21522SOL     OW66462   3.125  13.531   0.037
21522SOL    HW166463   3.034  13.503   0.045
21522SOL    HW266464   3.172  13.453   0.008
21523SOL     OW66465   3.273   3.997   9.730
21523SOL    HW166466   3.358   3.956   9.712
21523SOL    HW266467   3.209   3.941   9.686
21524SOL     OW66468   6.268  11.573  10.325
21524SOL    HW166469   6.280  11.636  10.396
21524SOL    HW266470   6.245  11.626  10.249
21525SOL     OW66471   6.996  11.911   6.924
21525SOL    HW166472   6.942  11.834   6.906
21525SOL    HW266473   6.980  11.930   7.017
21526SOL     OW66474   7.608   9.902   1.685
21526SOL    HW166475   7.647   9.839   1.624
21526SOL    HW266476   7.657   9.890   1.766
21527SOL     OW66477   1.488   4.827  11.365
21527SOL    HW166478   1.560   4.772  11.397
21527SOL    HW266479   1.450   4.778  11.293
21528SOL     OW66480   9.912   9.094   7.143
21528SOL    HW166481   9.914   9.120   7.235
21528SOL    HW266482   9.828   9.048   7.133
21529SOL     OW66483   1.004   2.100  11.581
21529SOL    HW166484   0.949   2.178  11.583
21529SOL    HW266485   1.034   2.093  11.490
21530SOL     OW66486  12.506   6.322   9.594
21530SOL    HW166487  12.598   6.344   9.598
21530SOL    HW266488  12.476   6.324   9.685
21531SOL     OW66489   8.503   0.167   6.572
21531SOL    HW166490   8.566   0.220   6.524
21531SOL    HW266491   8.557   0.112   6.629
21532SOL     OW66492   3.569  13.601  12.764
21532SOL    HW166493   3.595  13.597  12.672
21532SOL    HW266494   3.631  13.544  12.809
21533SOL     OW66495   2.952   9.236   8.259
21533SOL    HW166496   2.959   9.152   8.213
21533SOL    HW266497   2.868   9.272   8.231
21534SOL     OW66498   2.641   3.995   3.092
21534SOL    HW166499   2.678   4.074   3.053
21534SOL    HW266500   2.711   3.930   3.087
21535SOL     OW66501   5.038   9.975   0.162
21535SOL    HW166502   4.952   9.985   0.203
21535SOL    HW266503   5.034   9.890   0.119
21536SOL     OW66504   8.845  14.277  14.809
21536SOL    HW166505   8.767  14.316  14.771
21536SOL    HW266506   8.870  14.337  14.879
21537SOL     OW66507  14.019   0.422  14.156
21537SOL    HW166508  13.961   0.435  14.231
21537SOL    HW266509  13.967   0.370  14.095
21538SOL     OW66510   7.231   8.917   7.915
21538SOL    HW166511   7.266   8.897   7.828
21538SOL    HW266512   7.163   8.982   7.900
21539SOL     OW66513   1.435   9.226   1.780
21539SOL    HW166514   1.356   9.277   1.760
21539SOL    HW266515   1.500   9.291   1.805
21540SOL     OW66516   7.726   8.560   1.799
21540SOL    HW166517   7.816   8.546   1.829
21540SOL    HW266518   7.732   8.633   1.738
21541SOL     OW66519   6.916   9.753   2.427
21541SOL    HW166520   6.906   9.848   2.434
21541SOL    HW266521   6.851   9.717   2.488
21542SOL     OW66522   4.146   8.974   8.614
21542SOL    HW166523   4.144   8.879   8.625
21542SOL    HW266524   4.203   8.988   8.538
21543SOL     OW66525  11.204   4.632   8.838
21543SOL    HW166526  11.221   4.562   8.775
21543SOL    HW266527  11.114   4.616   8.867
21544SOL     OW66528  12.635   0.182   5.067
21544SOL    HW166529  12.553   0.229   5.087
21544SOL    HW266530  12.656   0.135   5.147
21545SOL     OW66531  10.477   9.630  14.059
21545SOL    HW166532  10.451   9.654  14.147
21545SOL    HW266533  10.506   9.712  14.019
21546SOL     OW66534   6.164  11.715   0.352
21546SOL    HW166535   6.202  11.675   0.429
21546SOL    HW266536   6.152  11.807   0.376
21547SOL     OW66537  11.433  13.674   1.436
21547SOL    HW166538  11.410  13.590   1.396
21547SOL    HW266539  11.447  13.653   1.528
21548SOL     OW66540   8.995   7.062   1.961
21548SOL    HW166541   8.908   7.100   1.969
21548SOL    HW266542   9.002   7.038   1.869
21549SOL     OW66543  10.899   8.804  13.714
21549SOL    HW166544  10.949   8.763  13.785
21549SOL    HW266545  10.965   8.846  13.659
21550SOL     OW66546   7.005   2.496  10.508
21550SOL    HW166547   7.078   2.550  10.539
21550SOL    HW266548   6.961   2.468  10.589
21551SOL     OW66549   5.772   1.601  10.073
21551SOL    HW166550   5.811   1.520  10.105
21551SOL    HW266551   5.831   1.631  10.005
21552SOL     OW66552   6.718  12.455   6.523
21552SOL    HW166553   6.654  12.395   6.563
21552SOL    HW266554   6.742  12.515   6.593
21553SOL     OW66555  10.340   9.495  11.025
21553SOL    HW166556  10.260   9.442  11.025
21553SOL    HW266557  10.402   9.447  10.971
21554SOL     OW66558  11.341  14.414   2.248
21554SOL    HW166559  11.418  14.447   2.294
21554SOL    HW266560  11.267  14.460   2.288
21555SOL     OW66561   5.615  11.559  12.898
21555SOL    HW166562   5.567  11.640  12.910
21555SOL    HW266563   5.547  11.492  12.889
21556SOL     OW66564  12.867  14.165  13.921
21556SOL    HW166565  12.835  14.254  13.908
21556SOL    HW266566  12.850  14.120  13.838
21557SOL     OW66567   9.392   5.428  12.884
21557SOL    HW166568   9.316   5.484  12.872
21557SOL    HW266569   9.365   5.343  12.850
21558SOL     OW66570  12.050   3.410   1.106
21558SOL    HW166571  11.962   3.442   1.087
21558SOL    HW266572  12.060   3.422   1.201
21559SOL     OW66573   6.290   7.916   7.501
21559SOL    HW166574   6.226   7.982   7.528
21559SOL    HW266575   6.280   7.911   7.406
21560SOL     OW66576   1.531  13.491   1.975
21560SOL    HW166577   1.567  13.426   1.916
21560SOL    HW266578   1.608  13.539   2.007
21561SOL     OW66579  11.708  14.172  12.807
21561SOL    HW166580  11.701  14.153  12.713
21561SOL    HW266581  11.738  14.263  12.810
21562SOL     OW66582  13.714   7.956   8.961
21562SOL    HW166583  13.664   7.937   8.882
21562SOL    HW266584  13.794   7.998   8.928
21563SOL     OW66585   1.667  11.396   8.527
21563SOL    HW166586   1.653  11.338   8.601
21563SOL    HW266587   1.622  11.355   8.454
21564SOL     OW66588  13.613   5.487  13.387
21564SOL    HW166589  13.582   5.574  13.360
21564SOL    HW266590  13.534   5.443  13.418
21565SOL     OW66591  11.961  11.919   1.153
21565SOL    HW166592  11.914  11.890   1.231
21565SOL    HW266593  12.000  11.838   1.118
21566SOL     OW66594  12.485  14.239   6.586
21566SOL    HW166595  12.497  14.333   6.567
21566SOL    HW266596  12.462  14.236   6.679
21567SOL     OW66597  12.978   1.801   7.443
21567SOL    HW166598  13.015   1.713   7.445
21567SOL    HW266599  13.040   1.855   7.491
21568SOL     OW66600  11.918  13.277   2.000
21568SOL    HW166601  11.830  13.268   1.963
21568SOL    HW266602  11.936  13.371   1.996
21569SOL     OW66603  11.871   5.046   6.945
21569SOL    HW166604  11.954   5.074   6.985
21569SOL    HW266605  11.804   5.083   7.003
21570SOL     OW66606   9.760   3.150  12.720
21570SOL    HW166607   9.766   3.157  12.625
21570SOL    HW266608   9.717   3.066  12.735
21571SOL     OW66609   2.075  11.612   9.146
21571SOL    HW166610   2.070  11.612   9.050
21571SOL    HW266611   2.057  11.703   9.171
21572SOL     OW66612   8.909   7.037   4.533
21572SOL    HW166613   8.966   6.987   4.592
21572SOL    HW266614   8.911   6.990   4.450
21573SOL     OW66615  10.540  11.114   7.441
21573SOL    HW166616  10.570  11.063   7.517
21573SOL    HW266617  10.577  11.067   7.366
21574SOL     OW66618   9.605   7.852  11.109
21574SOL    HW166619   9.685   7.900  11.132
21574SOL    HW266620   9.548   7.863  11.184
21575SOL     OW66621   3.713   0.911  14.516
21575SOL    HW166622   3.748   0.929  14.603
21575SOL    HW266623   3.684   0.997  14.484
21576SOL     OW66624   0.455   9.156   6.474
21576SOL    HW166625   0.550   9.151   6.469
21576SOL    HW266626   0.426   9.065   6.470
21577SOL     OW66627   6.441   0.370   0.717
21577SOL    HW166628   6.407   0.434   0.655
21577SOL    HW266629   6.530   0.353   0.687
21578SOL     OW66630  11.647  14.516   5.257
21578SOL    HW166631  11.730  14.520   5.306
21578SOL    HW266632  11.662  14.449   5.191
21579SOL     OW66633   2.160   6.147   9.560
21579SOL    HW166634   2.220   6.194   9.502
21579SOL    HW266635   2.091   6.210   9.580
21580SOL     OW66636  12.021   8.989   2.251
21580SOL    HW166637  11.967   8.910   2.248
21580SOL    HW266638  11.968   9.053   2.298
21581SOL     OW66639  12.003  11.699   6.029
21581SOL    HW166640  11.993  11.785   5.988
21581SOL    HW266641  11.948  11.641   5.977
21582SOL     OW66642  13.995  12.073   2.059
21582SOL    HW166643  13.937  12.019   2.112
21582SOL    HW266644  13.942  12.097   1.983
21583SOL     OW66645   0.906   4.144  10.923
21583SOL    HW166646   0.962   4.146  11.001
21583SOL    HW266647   0.887   4.236  10.905
21584SOL     OW66648   1.529   2.073   7.582
21584SOL    HW166649   1.538   2.168   7.592
21584SOL    HW266650   1.559   2.055   7.493
21585SOL     OW66651  10.319   2.256  12.077
21585SOL    HW166652  10.250   2.195  12.050
21585SOL    HW266653  10.272   2.329  12.117
21586SOL     OW66654  13.940   5.006   9.545
21586SOL    HW166655  13.851   4.997   9.580
21586SOL    HW266656  13.932   4.977   9.454
21587SOL     OW66657   7.827  11.177   6.980
21587SOL    HW166658   7.900  11.235   6.999
21587SOL    HW266659   7.818  11.180   6.885
21588SOL     OW66660   5.135   2.023  13.831
21588SOL    HW166661   5.198   2.054  13.896
21588SOL    HW266662   5.167   2.058  13.748
21589SOL     OW66663   7.838   4.799  11.477
21589SOL    HW166664   7.830   4.760  11.564
21589SOL    HW266665   7.784   4.878  11.481
21590SOL     OW66666  12.239  10.431   2.695
21590SOL    HW166667  12.235  10.475   2.779
21590SOL    HW266668  12.178  10.479   2.639
21591SOL     OW66669   2.154   7.265   1.712
21591SOL    HW166670   2.088   7.310   1.765
21591SOL    HW266671   2.144   7.303   1.625
21592SOL     OW66672   3.683   2.382   2.645
21592SOL    HW166673   3.749   2.352   2.581
21592SOL    HW266674   3.729   2.446   2.698
21593SOL     OW66675   6.184  12.385  13.391
21593SOL    HW166676   6.128  12.325  13.342
21593SOL    HW266677   6.128  12.459  13.413
21594SOL     OW66678  10.992   7.303   6.299
21594SOL    HW166679  10.991   7.320   6.393
21594SOL    HW266680  11.084   7.284   6.279
21595SOL     OW66681   5.301   4.855  14.668
21595SOL    HW166682   5.312   4.796  14.743
21595SOL    HW266683   5.295   4.942  14.707
21596SOL     OW66684  14.090   3.248  12.463
21596SOL    HW166685  14.056   3.185  12.400
21596SOL    HW266686  14.091   3.202  12.547
21597SOL     OW66687   5.708   2.938  14.550
21597SOL    HW166688   5.782   2.996  14.572
21597SOL    HW266689   5.631   2.988  14.574
21598SOL     OW66690   5.094   2.804  13.460
21598SOL    HW166691   5.151   2.765  13.526
21598SOL    HW266692   5.101   2.746  13.385
21599SOL     OW66693   1.945   2.719  10.079
21599SOL    HW166694   1.879   2.675  10.026
21599SOL    HW266695   1.946   2.809  10.046
21600SOL     OW66696   3.251   8.741   6.957
21600SOL    HW166697   3.330   8.691   6.938
21600SOL    HW266698   3.181   8.676   6.963
21601SOL     OW66699  11.891  11.032   4.206
21601SOL    HW166700  11.886  11.100   4.139
21601SOL    HW266701  11.939  10.960   4.164
21602SOL     OW66702   9.365   8.644  13.521
21602SOL    HW166703   9.337   8.579  13.457
21602SOL    HW266704   9.291   8.705  13.526
21603SOL     OW66705  13.318  10.273   3.281
21603SOL    HW166706  13.292  10.221   3.357
21603SOL    HW266707  13.362  10.349   3.317
21604SOL     OW66708   4.220  10.224  13.320
21604SOL    HW166709   4.134  10.206  13.283
21604SOL    HW266710   4.205  10.229  13.415
21605SOL     OW66711   4.771   5.349   5.668
21605SOL    HW166712   4.689   5.364   5.715
21605SOL    HW266713   4.835   5.334   5.738
21606SOL     OW66714  13.052   6.449   1.504
21606SOL    HW166715  13.125   6.394   1.533
21606SOL    HW266716  12.983   6.388   1.480
21607SOL     OW66717   2.900   4.047  13.927
21607SOL    HW166718   2.851   4.051  14.009
21607SOL    HW266719   2.980   4.000  13.948
21608SOL     OW66720   1.008   6.340  14.587
21608SOL    HW166721   1.027   6.292  14.668
21608SOL    HW266722   0.959   6.418  14.615
21609SOL     OW66723   7.775  13.972  13.581
21609SOL    HW166724   7.856  13.977  13.632
21609SOL    HW266725   7.744  14.063  13.578
21610SOL     OW66726   6.591   2.826   3.866
21610SOL    HW166727   6.545   2.778   3.797
21610SOL    HW266728   6.539   2.904   3.879
21611SOL     OW66729  13.516   1.843  10.206
21611SOL    HW166730  13.558   1.758  10.219
21611SOL    HW266731  13.588   1.906  10.208
21612SOL     OW66732   8.434   1.709   4.585
21612SOL    HW166733   8.372   1.638   4.599
21612SOL    HW266734   8.441   1.716   4.490
21613SOL     OW66735  12.445  12.225   4.786
21613SOL    HW166736  12.405  12.253   4.704
21613SOL    HW266737  12.534  12.199   4.762
21614SOL     OW66738   7.541   9.549   4.033
21614SOL    HW166739   7.529   9.633   4.077
21614SOL    HW266740   7.472   9.547   3.966
21615SOL     OW66741   3.634   3.016   2.148
21615SOL    HW166742   3.577   2.943   2.172
21615SOL    HW266743   3.661   3.054   2.231
21616SOL     OW66744   9.157  11.884   9.409
21616SOL    HW166745   9.146  11.808   9.466
21616SOL    HW266746   9.101  11.951   9.446
21617SOL     OW66747   9.589   3.524   2.087
21617SOL    HW166748   9.555   3.452   2.140
21617SOL    HW266749   9.593   3.598   2.148
21618SOL     OW66750   1.693   0.485  11.430
21618SOL    HW166751   1.786   0.477  11.455
21618SOL    HW266752   1.665   0.395  11.414
21619SOL     OW66753   9.632   5.610   1.086
21619SOL    HW166754   9.686   5.666   1.142
21619SOL    HW266755   9.559   5.583   1.142
21620SOL     OW66756   4.552   3.074   1.229
21620SOL    HW166757   4.588   3.136   1.166
21620SOL    HW266758   4.577   2.988   1.197
21621SOL     OW66759   0.372  11.185   8.842
21621SOL    HW166760   0.454  11.231   8.829
21621SOL    HW266761   0.383  11.102   8.796
21622SOL     OW66762  10.774   4.748  13.497
21622SOL    HW166763  10.852   4.780  13.452
21622SOL    HW266764  10.780   4.785  13.585
21623SOL     OW66765   9.011  10.407  13.232
21623SOL    HW166766   9.058  10.441  13.307
21623SOL    HW266767   8.948  10.475  13.210
21624SOL     OW66768  10.414   0.542  11.359
21624SOL    HW166769  10.443   0.563  11.447
21624SOL    HW266770  10.330   0.586  11.350
21625SOL     OW66771  13.995  11.700   3.523
21625SOL    HW166772  13.974  11.721   3.615
21625SOL    HW266773  13.916  11.657   3.490
21626SOL     OW66774  12.055   0.489   0.012
21626SOL    HW166775  12.053   0.405   0.058
21626SOL    HW266776  11.989   0.480  14.824
21627SOL     OW66777  11.379   4.527   4.051
21627SOL    HW166778  11.470   4.531   4.023
21627SOL    HW266779  11.371   4.597   4.116
21628SOL     OW66780   7.055  11.129   9.745
21628SOL    HW166781   7.129  11.188   9.755
21628SOL    HW266782   7.089  11.054   9.697
21629SOL     OW66783   9.905   7.705   1.983
21629SOL    HW166784   9.929   7.639   1.918
21629SOL    HW266785   9.904   7.656   2.066
21630SOL     OW66786   5.662  14.237  11.733
21630SOL    HW166787   5.686  14.330  11.731
21630SOL    HW266788   5.572  14.236  11.765
21631SOL     OW66789   3.272   2.765  14.676
21631SOL    HW166790   3.241   2.784  14.764
21631SOL    HW266791   3.302   2.674  14.680
21632SOL     OW66792   3.430   3.912   9.060
21632SOL    HW166793   3.393   3.833   9.021
21632SOL    HW266794   3.358   3.975   9.061
21633SOL     OW66795  13.452   7.919   9.662
21633SOL    HW166796  13.370   7.882   9.695
21633SOL    HW266797  13.427   7.963   9.581
21634SOL     OW66798   3.059  11.351   5.615
21634SOL    HW166799   2.975  11.378   5.577
21634SOL    HW266800   3.115  11.428   5.609
21635SOL     OW66801   3.554  10.846   2.140
21635SOL    HW166802   3.629  10.837   2.199
21635SOL    HW266803   3.535  10.940   2.140
21636SOL     OW66804   1.792   7.651   6.791
21636SOL    HW166805   1.789   7.742   6.761
21636SOL    HW266806   1.709   7.613   6.761
21637SOL     OW66807   6.869  12.146   7.733
21637SOL    HW166808   6.801  12.133   7.800
21637SOL    HW266809   6.893  12.238   7.740
21638SOL     OW66810   1.573   2.720   9.675
21638SOL    HW166811   1.528   2.663   9.613
21638SOL    HW266812   1.504   2.753   9.732
21639SOL     OW66813  10.512   7.612   9.777
21639SOL    HW166814  10.478   7.680   9.835
21639SOL    HW266815  10.471   7.631   9.693
21640SOL     OW66816   8.845  13.489   7.329
21640SOL    HW166817   8.899  13.508   7.252
21640SOL    HW266818   8.831  13.394   7.326
21641SOL     OW66819   2.267   4.254   1.685
21641SOL    HW166820   2.234   4.289   1.602
21641SOL    HW266821   2.189   4.241   1.739
21642SOL     OW66822   1.825   9.868  14.105
21642SOL    HW166823   1.841   9.782  14.143
21642SOL    HW266824   1.730   9.875  14.100
21643SOL     OW66825  12.197  11.897  11.698
21643SOL    HW166826  12.138  11.972  11.689
21643SOL    HW266827  12.279  11.927  11.660
21644SOL     OW66828   2.052  12.537  13.974
21644SOL    HW166829   2.015  12.571  13.893
21644SOL    HW266830   2.128  12.592  13.991
21645SOL     OW66831   9.207  10.646  12.445
21645SOL    HW166832   9.261  10.707  12.394
21645SOL    HW266833   9.173  10.698  12.517
21646SOL     OW66834   2.451  13.523  13.871
21646SOL    HW166835   2.512  13.568  13.812
21646SOL    HW266836   2.464  13.430  13.852
21647SOL     OW66837  11.066   6.864  10.008
21647SOL    HW166838  11.158   6.891  10.011
21647SOL    HW266839  11.021   6.929  10.061
21648SOL     OW66840   0.701  14.413  11.272
21648SOL    HW166841   0.670  14.469  11.344
21648SOL    HW266842   0.631  14.349  11.260
21649SOL     OW66843  13.387  13.105   0.735
21649SOL    HW166844  13.468  13.074   0.775
21649SOL    HW266845  13.404  13.197   0.715
21650SOL     OW66846   2.955   2.937   4.817
21650SOL    HW166847   2.984   3.012   4.765
21650SOL    HW266848   2.862   2.927   4.794
21651SOL     OW66849   6.307   7.931   2.249
21651SOL    HW166850   6.254   7.995   2.299
21651SOL    HW266851   6.258   7.849   2.257
21652SOL     OW66852  12.058   1.400   1.654
21652SOL    HW166853  12.146   1.425   1.626
21652SOL    HW266854  12.048   1.439   1.741
21653SOL     OW66855   0.259   2.707  13.201
21653SOL    HW166856   0.323   2.654  13.153
21653SOL    HW266857   0.180   2.703  13.149
21654SOL     OW66858   6.350   2.915   1.603
21654SOL    HW166859   6.361   2.920   1.698
21654SOL    HW266860   6.258   2.897   1.589
21655SOL     OW66861  10.163  12.112  11.982
21655SOL    HW166862  10.227  12.139  11.915
21655SOL    HW266863  10.173  12.177  12.051
21656SOL     OW66864   5.937   2.728   2.908
21656SOL    HW166865   5.929   2.821   2.885
21656SOL    HW266866   5.978   2.728   2.994
21657SOL     OW66867   2.508   0.535  12.740
21657SOL    HW166868   2.549   0.561  12.823
21657SOL    HW266869   2.566   0.468  12.705
21658SOL     OW66870   3.543  12.517  11.910
21658SOL    HW166871   3.510  12.446  11.855
21658SOL    HW266872   3.505  12.597  11.873
21659SOL     OW66873   5.309  13.771   8.791
21659SOL    HW166874   5.368  13.738   8.723
21659SOL    HW266875   5.339  13.728   8.871
21660SOL     OW66876   1.370  11.149   9.671
21660SOL    HW166877   1.317  11.190   9.603
21660SOL    HW266878   1.439  11.103   9.623
21661SOL     OW66879  13.452  13.858   8.197
21661SOL    HW166880  13.428  13.897   8.280
21661SOL    HW266881  13.391  13.785   8.185
21662SOL     OW66882   0.629   8.378   2.684
21662SOL    HW166883   0.656   8.438   2.614
21662SOL    HW266884   0.534   8.383   2.684
21663SOL     OW66885   7.401   7.475   3.756
21663SOL    HW166886   7.377   7.557   3.714
21663SOL    HW266887   7.385   7.490   3.849
21664SOL     OW66888   1.542   8.743   1.924
21664SOL    HW166889   1.475   8.802   1.959
21664SOL    HW266890   1.536   8.665   1.978
21665SOL     OW66891   4.443   3.335  14.110
21665SOL    HW166892   4.501   3.396  14.154
21665SOL    HW266893   4.493   3.304  14.035
21666SOL     OW66894   8.395   0.242  11.085
21666SOL    HW166895   8.482   0.224  11.121
21666SOL    HW266896   8.398   0.334  11.060
21667SOL     OW66897   2.547   4.443   6.166
21667SOL    HW166898   2.556   4.503   6.241
21667SOL    HW266899   2.459   4.457   6.134
21668SOL     OW66900   5.847  12.388  11.632
21668SOL    HW166901   5.829  12.337  11.711
21668SOL    HW266902   5.908  12.333  11.582
21669SOL     OW66903   6.102   7.236  12.809
21669SOL    HW166904   6.084   7.158  12.863
21669SOL    HW266905   6.017   7.281  12.804
21670SOL     OW66906  12.105   2.451  12.822
21670SOL    HW166907  12.082   2.495  12.740
21670SOL    HW266908  12.199   2.466  12.832
21671SOL     OW66909   1.278  13.966  14.713
21671SOL    HW166910   1.241  14.037  14.766
21671SOL    HW266911   1.359  14.002  14.678
21672SOL     OW66912   4.722   2.080   7.044
21672SOL    HW166913   4.791   2.137   7.078
21672SOL    HW266914   4.768   2.002   7.013
21673SOL     OW66915   5.074   9.854   9.215
21673SOL    HW166916   5.081   9.950   9.214
21673SOL    HW266917   5.138   9.826   9.280
21674SOL     OW66918   4.642  11.132   1.992
21674SOL    HW166919   4.704  11.060   1.998
21674SOL    HW266920   4.694  11.211   2.005
21675SOL     OW66921  10.873   4.994   2.833
21675SOL    HW166922  10.959   4.961   2.858
21675SOL    HW266923  10.847   5.052   2.905
21676SOL     OW66924   3.009   3.710  11.914
21676SOL    HW166925   2.914   3.708  11.921
21676SOL    HW266926   3.038   3.624  11.944
21677SOL     OW66927   8.830  12.903   1.896
21677SOL    HW166928   8.795  12.829   1.845
21677SOL    HW266929   8.925  12.898   1.884
21678SOL     OW66930  10.202  12.991   1.186
21678SOL    HW166931  10.235  12.943   1.262
21678SOL    HW266932  10.128  12.939   1.155
21679SOL     OW66933   1.871   4.239   5.554
21679SOL    HW166934   1.937   4.308   5.553
21679SOL    HW266935   1.891   4.188   5.632
21680SOL     OW66936   8.799   2.409  13.578
21680SOL    HW166937   8.868   2.348  13.553
21680SOL    HW266938   8.816   2.488  13.526
21681SOL     OW66939   1.879   9.241  11.441
21681SOL    HW166940   1.927   9.216  11.362
21681SOL    HW266941   1.787   9.246  11.412
21682SOL     OW66942   5.991   7.856   7.795
21682SOL    HW166943   5.947   7.780   7.756
21682SOL    HW266944   6.084   7.841   7.776
21683SOL     OW66945   9.223   4.240   1.871
21683SOL    HW166946   9.154   4.307   1.866
21683SOL    HW266947   9.289   4.278   1.928
21684SOL     OW66948   1.351  10.914  14.247
21684SOL    HW166949   1.411  10.981  14.280
21684SOL    HW266950   1.398  10.874  14.174
21685SOL     OW66951   1.686   0.062   2.627
21685SOL    HW166952   1.765   0.110   2.602
21685SOL    HW266953   1.616   0.105   2.578
21686SOL     OW66954   1.312  11.360   6.441
21686SOL    HW166955   1.349  11.395   6.360
21686SOL    HW266956   1.372  11.389   6.510
21687SOL     OW66957  10.556   8.845   7.180
21687SOL    HW166958  10.598   8.800   7.106
21687SOL    HW266959  10.595   8.804   7.257
21688SOL     OW66960  12.750   0.175  14.400
21688SOL    HW166961  12.743   0.105  14.465
21688SOL    HW266962  12.659   0.196  14.378
21689SOL     OW66963  12.372  11.358   6.575
21689SOL    HW166964  12.330  11.431   6.530
21689SOL    HW266965  12.390  11.294   6.506
21690SOL     OW66966   6.251  10.864  13.159
21690SOL    HW166967   6.275  10.826  13.074
21690SOL    HW266968   6.330  10.857  13.212
21691SOL     OW66969   0.246   4.942  14.223
21691SOL    HW166970   0.300   4.925  14.146
21691SOL    HW266971   0.234   5.037  14.223
21692SOL     OW66972  13.455  14.322  12.427
21692SOL    HW166973  13.463  14.376  12.349
21692SOL    HW266974  13.379  14.266  12.410
21693SOL     OW66975  12.343  12.123  11.980
21693SOL    HW166976  12.371  12.166  12.061
21693SOL    HW266977  12.355  12.190  11.912
21694SOL     OW66978   5.714   8.500   1.326
21694SOL    HW166979   5.632   8.483   1.281
21694SOL    HW266980   5.781   8.473   1.263
21695SOL     OW66981   0.317  13.158   3.595
21695SOL    HW166982   0.407  13.173   3.623
21695SOL    HW266983   0.295  13.072   3.631
21696SOL     OW66984   2.357   8.706  14.879
21696SOL    HW166985   2.304   8.782  14.855
21696SOL    HW266986   2.392   8.727   0.085
21697SOL     OW66987  14.868  10.388   3.718
21697SOL    HW166988  14.818  10.470   3.720
21697SOL    HW266989  14.805  10.322   3.686
21698SOL     OW66990  13.603   9.434  14.739
21698SOL    HW166991  13.529   9.468  14.789
21698SOL    HW266992  13.680   9.470  14.783
21699SOL     OW66993   4.062  10.541   7.978
21699SOL    HW166994   4.123  10.594   8.029
21699SOL    HW266995   4.102  10.533   7.892
21700SOL     OW66996   6.075   8.619   0.664
21700SOL    HW166997   6.093   8.699   0.614
21700SOL    HW266998   5.984   8.629   0.693
21701SOL     OW66999  12.900  14.220  12.047
21701SOL    HW167000  12.907  14.133  12.008
21701SOL    HW267001  12.815  14.253  12.016
21702SOL     OW67002   1.971  10.750   0.908
21702SOL    HW167003   2.037  10.814   0.934
21702SOL    HW267004   1.965  10.689   0.981
21703SOL     OW67005   7.442   3.162  10.708
21703SOL    HW167006   7.467   3.217  10.634
21703SOL    HW267007   7.445   3.222  10.783
21704SOL     OW67008  12.146   7.359  14.304
21704SOL    HW167009  12.114   7.398  14.222
21704SOL    HW267010  12.225   7.409  14.326
21705SOL     OW67011   3.390   2.015   3.025
21705SOL    HW167012   3.351   2.078   3.085
21705SOL    HW267013   3.381   1.931   3.070
21706SOL     OW67014  11.897   4.302   8.866
21706SOL    HW167015  11.891   4.336   8.777
21706SOL    HW267016  11.811   4.319   8.904
21707SOL     OW67017  10.598   4.257  10.410
21707SOL    HW167018  10.622   4.245  10.319
21707SOL    HW267019  10.571   4.171  10.440
21708SOL     OW67020  12.436   4.598   5.601
21708SOL    HW167021  12.460   4.671   5.544
21708SOL    HW267022  12.501   4.530   5.581
21709SOL     OW67023   4.044   5.284   0.903
21709SOL    HW167024   4.046   5.256   0.811
21709SOL    HW267025   4.006   5.210   0.950
21710SOL     OW67026   3.508  11.534   7.337
21710SOL    HW167027   3.600  11.558   7.327
21710SOL    HW267028   3.479  11.513   7.248
21711SOL     OW67029  12.385   7.690   4.984
21711SOL    HW167030  12.377   7.733   4.899
21711SOL    HW267031  12.295   7.684   5.016
21712SOL     OW67032   4.624  11.202  12.044
21712SOL    HW167033   4.585  11.277  12.088
21712SOL    HW267034   4.586  11.126  12.088
21713SOL     OW67035  14.758   8.997   0.160
21713SOL    HW167036  14.846   9.031   0.175
21713SOL    HW267037  14.704   9.076   0.149
21714SOL     OW67038   1.089   4.445   1.875
21714SOL    HW167039   1.177   4.459   1.911
21714SOL    HW267040   1.039   4.408   1.948
21715SOL     OW67041  11.204   1.462   7.711
21715SOL    HW167042  11.193   1.547   7.754
21715SOL    HW267043  11.115   1.434   7.690
21716SOL     OW67044  10.668  12.821   7.604
21716SOL    HW167045  10.668  12.736   7.561
21716SOL    HW267046  10.647  12.802   7.695
21717SOL     OW67047   7.800   5.866   4.106
21717SOL    HW167048   7.786   5.829   4.193
21717SOL    HW267049   7.712   5.895   4.079
21718SOL     OW67050   9.692  14.680  14.321
21718SOL    HW167051   9.661  14.596  14.287
21718SOL    HW267052   9.613  14.724  14.353
21719SOL     OW67053  11.741  14.690   1.071
21719SOL    HW167054  11.713  14.665   1.159
21719SOL    HW267055  11.818  14.745   1.084
21720SOL     OW67056  10.967   6.055  11.364
21720SOL    HW167057  10.963   6.080  11.456
21720SOL    HW267058  10.971   6.138  11.317
21721SOL     OW67059   8.608  12.188  13.807
21721SOL    HW167060   8.648  12.265  13.847
21721SOL    HW267061   8.679  12.123  13.805
21722SOL     OW67062   8.277   5.419   0.029
21722SOL    HW167063   8.288   5.396  14.817
21722SOL    HW267064   8.224   5.498   0.027
21723SOL     OW67065  13.020   2.689   1.872
21723SOL    HW167066  13.097   2.701   1.816
21723SOL    HW267067  12.968   2.622   1.828
21724SOL     OW67068   8.208   8.006   2.165
21724SOL    HW167069   8.231   7.938   2.228
21724SOL    HW267070   8.278   8.004   2.100
21725SOL     OW67071   6.252   4.476  10.828
21725SOL    HW167072   6.288   4.526  10.901
21725SOL    HW267073   6.264   4.385  10.853
21726SOL     OW67074   3.900   3.994   6.781
21726SOL    HW167075   3.934   4.079   6.808
21726SOL    HW267076   3.905   3.940   6.860
21727SOL     OW67077  13.859  10.061   1.177
21727SOL    HW167078  13.869   9.988   1.237
21727SOL    HW267079  13.948  10.093   1.163
21728SOL     OW67080   4.707   0.802   7.663
21728SOL    HW167081   4.772   0.789   7.595
21728SOL    HW267082   4.630   0.754   7.633
21729SOL     OW67083   5.165   4.283   3.045
21729SOL    HW167084   5.167   4.235   3.127
21729SOL    HW267085   5.080   4.261   3.006
21730SOL     OW67086   7.511   7.154  13.820
21730SOL    HW167087   7.527   7.105  13.740
21730SOL    HW267088   7.597   7.160  13.862
21731SOL     OW67089  14.583   9.426   9.083
21731SOL    HW167090  14.592   9.330   9.083
21731SOL    HW267091  14.624   9.454   9.165
21732SOL     OW67092   0.474   7.553  12.800
21732SOL    HW167093   0.506   7.482  12.744
21732SOL    HW267094   0.519   7.631  12.768
21733SOL     OW67095  12.200   0.658   9.059
21733SOL    HW167096  12.229   0.617   9.140
21733SOL    HW267097  12.281   0.670   9.008
21734SOL     OW67098  10.680   9.038  11.069
21734SOL    HW167099  10.618   8.972  11.038
21734SOL    HW267100  10.741   9.050  10.996
21735SOL     OW67101  11.019   9.069  12.134
21735SOL    HW167102  10.926   9.047  12.133
21735SOL    HW267103  11.058   9.007  12.195
21736SOL     OW67104   4.876   3.572   0.071
21736SOL    HW167105   4.876   3.665   0.093
21736SOL    HW267106   4.951   3.561   0.012
21737SOL     OW67107  10.596   9.819   1.257
21737SOL    HW167108  10.611   9.833   1.164
21737SOL    HW267109  10.657   9.748   1.281
21738SOL     OW67110   0.208   4.748   8.612
21738SOL    HW167111   0.267   4.681   8.646
21738SOL    HW267112   0.266   4.819   8.584
21739SOL     OW67113  11.278   0.931   5.700
21739SOL    HW167114  11.235   1.016   5.711
21739SOL    HW267115  11.227   0.871   5.755
21740SOL     OW67116  10.773   5.661   7.495
21740SOL    HW167117  10.779   5.581   7.442
21740SOL    HW267118  10.688   5.656   7.537
21741SOL     OW67119  14.035   3.926  13.147
21741SOL    HW167120  14.092   3.952  13.220
21741SOL    HW267121  14.069   3.974  13.072
21742SOL     OW67122  10.660   5.104   6.412
21742SOL    HW167123  10.750   5.079   6.389
21742SOL    HW267124  10.635   5.043   6.482
21743SOL     OW67125   2.085   7.868   9.883
21743SOL    HW167126   1.995   7.840   9.900
21743SOL    HW267127   2.131   7.853   9.966
21744SOL     OW67128  14.580  11.377  14.317
21744SOL    HW167129  14.517  11.305  14.315
21744SOL    HW267130  14.537  11.448  14.270
21745SOL     OW67131   7.538   0.825   9.114
21745SOL    HW167132   7.594   0.832   9.037
21745SOL    HW267133   7.494   0.910   9.120
21746SOL     OW67134  14.245  14.044  11.137
21746SOL    HW167135  14.332  14.021  11.169
21746SOL    HW267136  14.243  14.140  11.141
21747SOL     OW67137  10.302  14.652  11.361
21747SOL    HW167138  10.336  14.567  11.389
21747SOL    HW267139  10.209  14.637  11.345
21748SOL     OW67140  10.746   8.835  12.438
21748SOL    HW167141  10.685   8.857  12.368
21748SOL    HW267142  10.782   8.919  12.466
21749SOL     OW67143   6.956   0.641   8.599
21749SOL    HW167144   7.008   0.607   8.526
21749SOL    HW267145   6.980   0.586   8.673
21750SOL     OW67146   3.521   6.084  14.803
21750SOL    HW167147   3.615   6.097  14.794
21750SOL    HW267148   3.491   6.062  14.714
21751SOL     OW67149   4.265   3.726  12.189
21751SOL    HW167150   4.231   3.815  12.176
21751SOL    HW267151   4.214   3.692  12.263
21752SOL     OW67152   7.110  13.035   3.017
21752SOL    HW167153   7.107  13.009   2.925
21752SOL    HW267154   7.178  12.980   3.055
21753SOL     OW67155   2.199   4.365   7.866
21753SOL    HW167156   2.178   4.418   7.943
21753SOL    HW267157   2.262   4.300   7.898
21754SOL     OW67158   5.797   1.318   9.069
21754SOL    HW167159   5.845   1.374   9.009
21754SOL    HW267160   5.719   1.368   9.092
21755SOL     OW67161  14.202   7.776   0.739
21755SOL    HW167162  14.263   7.728   0.794
21755SOL    HW267163  14.132   7.714   0.720
21756SOL     OW67164   4.879  11.093   2.501
21756SOL    HW167165   4.934  11.040   2.442
21756SOL    HW267166   4.809  11.127   2.445
21757SOL     OW67167   5.198   1.562   1.349
21757SOL    HW167168   5.280   1.602   1.380
21757SOL    HW267169   5.171   1.504   1.421
21758SOL     OW67170   1.911   9.314   5.227
21758SOL    HW167171   1.819   9.298   5.205
21758SOL    HW267172   1.910   9.397   5.274
21759SOL     OW67173   5.573   9.615   6.635
21759SOL    HW167174   5.578   9.563   6.555
21759SOL    HW267175   5.479   9.619   6.656
21760SOL     OW67176  12.213  10.573   2.944
21760SOL    HW167177  12.125  10.534   2.945
21760SOL    HW267178  12.198  10.665   2.963
21761SOL     OW67179   1.123   8.020   1.532
21761SOL    HW167180   1.136   7.983   1.620
21761SOL    HW267181   1.187   8.091   1.527
21762SOL     OW67182   6.990   1.151   8.359
21762SOL    HW167183   6.925   1.209   8.398
21762SOL    HW267184   7.034   1.110   8.433
21763SOL     OW67185   9.126   2.181  14.533
21763SOL    HW167186   9.067   2.106  14.535
21763SOL    HW267187   9.082   2.245  14.477
21764SOL     OW67188  11.032   1.705   4.389
21764SOL    HW167189  10.936   1.706   4.383
21764SOL    HW267190  11.059   1.792   4.361
21765SOL     OW67191   8.469   8.013  14.525
21765SOL    HW167192   8.527   8.089  14.516
21765SOL    HW267193   8.519   7.951  14.579
21766SOL     OW67194   3.965   9.347   4.107
21766SOL    HW167195   4.031   9.372   4.171
21766SOL    HW267196   3.925   9.268   4.143
21767SOL     OW67197  14.201   7.471   4.865
21767SOL    HW167198  14.143   7.531   4.912
21767SOL    HW267199  14.158   7.457   4.781
21768SOL     OW67200  14.325  11.399   7.947
21768SOL    HW167201  14.296  11.453   8.020
21768SOL    HW267202  14.372  11.326   7.989
21769SOL     OW67203   6.079  11.030   5.840
21769SOL    HW167204   6.088  11.049   5.747
21769SOL    HW267205   6.108  10.939   5.849
21770SOL     OW67206   4.247  12.954   2.964
21770SOL    HW167207   4.254  12.874   3.016
21770SOL    HW267208   4.245  12.923   2.873
21771SOL     OW67209   9.487   4.971   9.646
21771SOL    HW167210   9.521   4.991   9.558
21771SOL    HW267211   9.393   4.990   9.639
21772SOL     OW67212   4.794   4.793   4.654
21772SOL    HW167213   4.770   4.757   4.739
21772SOL    HW267214   4.747   4.877   4.650
21773SOL     OW67215   1.067   9.419   7.157
21773SOL    HW167216   0.981   9.441   7.120
21773SOL    HW267217   1.083   9.486   7.224
21774SOL     OW67218   3.832  12.487  12.248
21774SOL    HW167219   3.758  12.429  12.227
21774SOL    HW267220   3.816  12.514  12.339
21775SOL     OW67221   2.652   1.615   7.929
21775SOL    HW167222   2.612   1.530   7.949
21775SOL    HW267223   2.582   1.666   7.890
21776SOL     OW67224   7.105  11.226  12.337
21776SOL    HW167225   7.147  11.301  12.379
21776SOL    HW267226   7.073  11.259  12.254
21777SOL     OW67227   1.391   0.323  11.253
21777SOL    HW167228   1.466   0.288  11.302
21777SOL    HW267229   1.414   0.414  11.236
21778SOL     OW67230   9.986   4.096   8.470
21778SOL    HW167231   9.917   4.086   8.536
21778SOL    HW267232   9.940   4.092   8.386
21779SOL     OW67233   5.804   0.001   3.666
21779SOL    HW167234   5.719   0.043   3.657
21779SOL    HW267235   5.789  14.807   3.723
21780SOL     OW67236  14.705   0.483   8.519
21780SOL    HW167237  14.662   0.457   8.600
21780SOL    HW267238  14.764   0.554   8.545
21781SOL     OW67239  11.349  10.937   7.245
21781SOL    HW167240  11.408  10.986   7.188
21781SOL    HW267241  11.317  11.002   7.307
21782SOL     OW67242   0.605   9.049  14.092
21782SOL    HW167243   0.613   8.997  14.172
21782SOL    HW267244   0.691   9.043  14.051
21783SOL     OW67245  12.700   7.036   8.420
21783SOL    HW167246  12.672   7.013   8.508
21783SOL    HW267247  12.752   6.961   8.391
21784SOL     OW67248  11.334  13.464  14.708
21784SOL    HW167249  11.429  13.460  14.699
21784SOL    HW267250  11.317  13.440  14.799
21785SOL     OW67251  14.037   9.372   4.662
21785SOL    HW167252  14.067   9.281   4.662
21785SOL    HW267253  14.012   9.389   4.572
21786SOL     OW67254   9.694   1.271  12.987
21786SOL    HW167255   9.724   1.183  12.963
21786SOL    HW267256   9.723   1.327  12.915
21787SOL     OW67257  10.874  13.792   1.137
21787SOL    HW167258  10.965  13.822   1.129
21787SOL    HW267259  10.851  13.807   1.228
21788SOL     OW67260   4.919  14.731  11.863
21788SOL    HW167261   4.959  14.647  11.885
21788SOL    HW267262   4.972  14.795  11.910
21789SOL     OW67263   6.197   1.066   8.210
21789SOL    HW167264   6.212   1.143   8.155
21789SOL    HW267265   6.270   1.065   8.271
21790SOL     OW67266   5.337   1.005  10.481
21790SOL    HW167267   5.268   0.947  10.450
21790SOL    HW267268   5.296   1.092  10.484
21791SOL     OW67269   7.828   6.298   1.287
21791SOL    HW167270   7.854   6.254   1.206
21791SOL    HW267271   7.760   6.241   1.323
21792SOL     OW67272   6.224  13.077   8.130
21792SOL    HW167273   6.196  13.165   8.105
21792SOL    HW267274   6.185  13.063   8.216
21793SOL     OW67275   8.304   9.387   4.157
21793SOL    HW167276   8.212   9.365   4.165
21793SOL    HW267277   8.347   9.338   4.227
21794SOL     OW67278   6.347   0.436  13.008
21794SOL    HW167279   6.290   0.361  12.995
21794SOL    HW267280   6.347   0.482  12.924
21795SOL     OW67281   7.436  11.755   0.637
21795SOL    HW167282   7.435  11.736   0.543
21795SOL    HW267283   7.481  11.680   0.676
21796SOL     OW67284   6.187  13.113   6.777
21796SOL    HW167285   6.162  13.163   6.854
21796SOL    HW267286   6.172  13.172   6.703
21797SOL     OW67287   3.644   2.012  13.761
21797SOL    HW167288   3.655   1.945  13.828
21797SOL    HW267289   3.724   2.064  13.765
21798SOL     OW67290   7.086  12.851  11.475
21798SOL    HW167291   7.115  12.932  11.518
21798SOL    HW267292   7.036  12.882  11.399
21799SOL     OW67293  10.345   4.829   3.947
21799SOL    HW167294  10.284   4.879   3.894
21799SOL    HW267295  10.427   4.878   3.941
21800SOL     OW67296   6.225   7.937   1.162
21800SOL    HW167297   6.131   7.920   1.153
21800SOL    HW267298   6.263   7.852   1.181
21801SOL     OW67299   8.772  11.456  13.467
21801SOL    HW167300   8.860  11.489  13.488
21801SOL    HW267301   8.753  11.395  13.539
21802SOL     OW67302   0.211   7.893   1.694
21802SOL    HW167303   0.293   7.920   1.653
21802SOL    HW267304   0.234   7.881   1.787
21803SOL     OW67305   0.437  12.634  14.291
21803SOL    HW167306   0.401  12.722  14.275
21803SOL    HW267307   0.396  12.606  14.373
21804SOL     OW67308  11.091   2.107  14.537
21804SOL    HW167309  11.083   2.166  14.462
21804SOL    HW267310  11.074   2.020  14.500
21805SOL     OW67311   5.706   7.527   3.437
21805SOL    HW167312   5.787   7.548   3.483
21805SOL    HW267313   5.725   7.447   3.389
21806SOL     OW67314  14.202   9.040   6.118
21806SOL    HW167315  14.175   9.010   6.031
21806SOL    HW267316  14.226   9.132   6.106
21807SOL     OW67317   3.397  14.369   1.108
21807SOL    HW167318   3.317  14.345   1.154
21807SOL    HW267319   3.430  14.446   1.155
21808SOL     OW67320  10.799   0.360   0.672
21808SOL    HW167321  10.848   0.286   0.708
21808SOL    HW267322  10.864   0.408   0.621
21809SOL     OW67323  14.271   7.488   9.664
21809SOL    HW167324  14.275   7.392   9.662
21809SOL    HW267325  14.350   7.514   9.711
21810SOL     OW67326  14.182   7.682  13.996
21810SOL    HW167327  14.204   7.731  13.917
21810SOL    HW267328  14.095   7.714  14.022
21811SOL     OW67329   2.180   9.170  12.927
21811SOL    HW167330   2.209   9.257  12.953
21811SOL    HW267331   2.257   9.114  12.941
21812SOL     OW67332  12.817   2.137   3.350
21812SOL    HW167333  12.743   2.180   3.309
21812SOL    HW267334  12.816   2.168   3.441
21813SOL     OW67335  12.925   9.439   9.202
21813SOL    HW167336  12.896   9.363   9.252
21813SOL    HW267337  12.940   9.507   9.268
21814SOL     OW67338   9.433   7.971   0.453
21814SOL    HW167339   9.455   8.037   0.387
21814SOL    HW267340   9.402   7.896   0.402
21815SOL     OW67341  11.069  11.291   7.198
21815SOL    HW167342  11.125  11.264   7.125
21815SOL    HW267343  11.027  11.372   7.167
21816SOL     OW67344   9.882  14.792   9.941
21816SOL    HW167345   9.960  14.753   9.980
21816SOL    HW267346   9.814  14.783  10.008
21817SOL     OW67347  13.062  12.489   6.352
21817SOL    HW167348  12.997  12.551   6.384
21817SOL    HW267349  13.143  12.540   6.345
21818SOL     OW67350  14.181   5.559   7.990
21818SOL    HW167351  14.108   5.524   7.939
21818SOL    HW267352  14.163   5.532   8.080
21819SOL     OW67353   2.165   8.169  13.418
21819SOL    HW167354   2.156   8.181  13.324
21819SOL    HW267355   2.179   8.257  13.453
21820SOL     OW67356   4.188  13.275  14.146
21820SOL    HW167357   4.101  13.265  14.107
21820SOL    HW267358   4.245  13.220  14.093
21821SOL     OW67359   9.472   9.908  13.609
21821SOL    HW167360   9.432   9.879  13.527
21821SOL    HW267361   9.472  10.003  13.603
21822SOL     OW67362   2.083  10.018   6.367
21822SOL    HW167363   2.174  10.001   6.345
21822SOL    HW267364   2.055  10.086   6.306
21823SOL     OW67365   0.015   7.041   9.049
21823SOL    HW167366   0.063   6.958   9.051
21823SOL    HW267367   0.040   7.085   9.131
21824SOL     OW67368   7.720   7.615   1.093
21824SOL    HW167369   7.634   7.578   1.074
21824SOL    HW267370   7.740   7.588   1.182
21825SOL     OW67371   3.217   0.828   8.475
21825SOL    HW167372   3.173   0.780   8.545
21825SOL    HW267373   3.278   0.886   8.521
21826SOL     OW67374   5.948   4.088   8.804
21826SOL    HW167375   5.885   4.026   8.840
21826SOL    HW267376   5.927   4.092   8.711
21827SOL     OW67377   0.550  11.624   0.595
21827SOL    HW167378   0.618  11.583   0.540
21827SOL    HW267379   0.598  11.666   0.665
21828SOL     OW67380   2.136   7.902   6.118
21828SOL    HW167381   2.220   7.908   6.073
21828SOL    HW267382   2.148   7.835   6.185
21829SOL     OW67383   5.729  13.491  14.622
21829SOL    HW167384   5.677  13.527  14.693
21829SOL    HW267385   5.772  13.414  14.660
21830SOL     OW67386   6.894  13.142   0.684
21830SOL    HW167387   6.799  13.144   0.696
21830SOL    HW267388   6.913  13.221   0.632
21831SOL     OW67389   1.409   5.304   9.632
21831SOL    HW167390   1.477   5.356   9.588
21831SOL    HW267391   1.410   5.335   9.723
21832SOL     OW67392   3.150   0.740   3.087
21832SOL    HW167393   3.209   0.665   3.092
21832SOL    HW267394   3.159   0.773   2.998
21833SOL     OW67395   8.222  11.679   5.641
21833SOL    HW167396   8.183  11.610   5.587
21833SOL    HW267397   8.299  11.638   5.681
21834SOL     OW67398   6.742   6.716  10.406
21834SOL    HW167399   6.823   6.738  10.361
21834SOL    HW267400   6.672   6.752  10.352
21835SOL     OW67401   0.141   4.420   8.566
21835SOL    HW167402   0.210   4.483   8.585
21835SOL    HW267403   0.094   4.458   8.492
21836SOL     OW67404   7.975   4.419   9.527
21836SOL    HW167405   7.900   4.449   9.477
21836SOL    HW267406   7.962   4.457   9.614
21837SOL     OW67407   9.204   1.039   7.583
21837SOL    HW167408   9.282   0.987   7.602
21837SOL    HW267409   9.131   0.984   7.614
21838SOL     OW67410  11.675   4.214  12.925
21838SOL    HW167411  11.761   4.192  12.889
21838SOL    HW267412  11.626   4.132  12.920
21839SOL     OW67413  12.832  11.809   8.637
21839SOL    HW167414  12.854  11.807   8.544
21839SOL    HW267415  12.894  11.870   8.676
21840SOL     OW67416   5.357  10.606   3.345
21840SOL    HW167417   5.396  10.555   3.416
21840SOL    HW267418   5.264  10.582   3.347
21841SOL     OW67419   7.329   2.019   9.919
21841SOL    HW167420   7.356   2.009  10.011
21841SOL    HW267421   7.397   1.974   9.869
21842SOL     OW67422   4.947   7.860  10.170
21842SOL    HW167423   4.947   7.942  10.121
21842SOL    HW267424   4.945   7.792  10.103
21843SOL     OW67425   9.439  14.079   7.713
21843SOL    HW167426   9.390  13.997   7.719
21843SOL    HW267427   9.530  14.052   7.705
21844SOL     OW67428  14.090   7.430  13.121
21844SOL    HW167429  14.031   7.357  13.140
21844SOL    HW267430  14.172   7.407  13.165
21845SOL     OW67431  11.744   6.822   4.047
21845SOL    HW167432  11.789   6.740   4.025
21845SOL    HW267433  11.683   6.797   4.117
21846SOL     OW67434   7.865   3.273   0.792
21846SOL    HW167435   7.946   3.305   0.753
21846SOL    HW267436   7.818   3.233   0.719
21847SOL     OW67437  11.365   1.901  13.390
21847SOL    HW167438  11.424   1.874  13.320
21847SOL    HW267439  11.420   1.904  13.468
21848SOL     OW67440  13.420   6.519   5.516
21848SOL    HW167441  13.351   6.454   5.524
21848SOL    HW267442  13.419   6.544   5.423
21849SOL     OW67443   2.745  13.682   7.613
21849SOL    HW167444   2.669  13.631   7.642
21849SOL    HW267445   2.785  13.712   7.694
21850SOL     OW67446  14.862  10.553  14.679
21850SOL    HW167447  14.819  10.618  14.622
21850SOL    HW267448  14.790  10.510  14.724
21851SOL     OW67449  12.242   7.706  10.344
21851SOL    HW167450  12.200   7.621  10.330
21851SOL    HW267451  12.199   7.741  10.422
21852SOL     OW67452  13.699  12.051   6.873
21852SOL    HW167453  13.633  12.040   6.805
21852SOL    HW267454  13.719  12.145   6.872
21853SOL     OW67455  11.028  14.837  13.091
21853SOL    HW167456  11.098  14.877  13.143
21853SOL    HW267457  11.073  14.784  13.026
21854SOL     OW67458   6.403   1.181  10.119
21854SOL    HW167459   6.410   1.085  10.115
21854SOL    HW267460   6.318   1.197  10.159
21855SOL     OW67461  11.380  10.998  10.939
21855SOL    HW167462  11.411  10.912  10.912
21855SOL    HW267463  11.433  11.060  10.889
21856SOL     OW67464   1.427   4.280  13.587
21856SOL    HW167465   1.495   4.336  13.625
21856SOL    HW267466   1.403   4.219  13.657
21857SOL     OW67467   6.140   1.229   9.671
21857SOL    HW167468   6.155   1.135   9.663
21857SOL    HW267469   6.195   1.268   9.603
21858SOL     OW67470   2.891   9.855   8.573
21858SOL    HW167471   2.973   9.805   8.571
21858SOL    HW267472   2.856   9.850   8.484
21859SOL     OW67473  12.755   4.644   0.689
21859SOL    HW167474  12.733   4.737   0.699
21859SOL    HW267475  12.683   4.608   0.637
21860SOL     OW67476   0.716  13.241   5.176
21860SOL    HW167477   0.633  13.212   5.215
21860SOL    HW267478   0.722  13.334   5.199
21861SOL     OW67479   2.120   4.345  14.128
21861SOL    HW167480   2.133   4.251  14.117
21861SOL    HW267481   2.131   4.360  14.222
21862SOL     OW67482   9.968   3.889   3.035
21862SOL    HW167483   9.889   3.854   3.077
21862SOL    HW267484  10.018   3.929   3.106
21863SOL     OW67485  11.604   0.128  11.233
21863SOL    HW167486  11.637   0.146  11.145
21863SOL    HW267487  11.678   0.086  11.278
21864SOL     OW67488   6.354   6.513   5.235
21864SOL    HW167489   6.265   6.531   5.205
21864SOL    HW267490   6.410   6.551   5.168
21865SOL     OW67491   9.302   4.492  13.790
21865SOL    HW167492   9.264   4.534  13.867
21865SOL    HW267493   9.395   4.516  13.793
21866SOL     OW67494  11.628  12.349   2.155
21866SOL    HW167495  11.671  12.263   2.165
21866SOL    HW267496  11.684  12.396   2.093
21867SOL     OW67497   4.466  13.662   2.162
21867SOL    HW167498   4.426  13.726   2.103
21867SOL    HW267499   4.527  13.714   2.215
21868SOL     OW67500   6.473   8.719  10.135
21868SOL    HW167501   6.390   8.763  10.115
21868SOL    HW267502   6.457   8.671  10.216
21869SOL     OW67503   4.875  10.313   2.939
21869SOL    HW167504   4.836  10.296   2.854
21869SOL    HW267505   4.932  10.389   2.925
21870SOL     OW67506  13.579  10.269  11.362
21870SOL    HW167507  13.488  10.296  11.377
21870SOL    HW267508  13.581  10.177  11.387
21871SOL     OW67509  12.673  12.231   4.184
21871SOL    HW167510  12.747  12.172   4.167
21871SOL    HW267511  12.608  12.205   4.118
21872SOL     OW67512   4.631   3.240   5.109
21872SOL    HW167513   4.691   3.314   5.098
21872SOL    HW267514   4.593   3.253   5.196
21873SOL     OW67515   2.551  14.807   5.005
21873SOL    HW167516   2.520  14.781   4.918
21873SOL    HW267517   2.496   0.002   5.028
21874SOL     OW67518   6.721   3.431  11.516
21874SOL    HW167519   6.710   3.355  11.458
21874SOL    HW267520   6.800   3.410  11.566
21875SOL     OW67521   3.433  10.167  14.552
21875SOL    HW167522   3.402  10.213  14.630
21875SOL    HW267523   3.360  10.111  14.526
21876SOL     OW67524  13.024   7.772   5.129
21876SOL    HW167525  13.046   7.681   5.111
21876SOL    HW267526  13.043   7.784   5.222
21877SOL     OW67527   6.063   0.078   6.253
21877SOL    HW167528   5.999   0.077   6.324
21877SOL    HW267529   6.010   0.080   6.173
21878SOL     OW67530   8.705   3.847   4.984
21878SOL    HW167531   8.724   3.877   5.073
21878SOL    HW267532   8.735   3.919   4.928
21879SOL     OW67533   5.602   6.110   3.559
21879SOL    HW167534   5.574   6.121   3.650
21879SOL    HW267535   5.696   6.126   3.561
21880SOL     OW67536   3.255  12.160   2.686
21880SOL    HW167537   3.287  12.071   2.672
21880SOL    HW267538   3.176  12.166   2.632
21881SOL     OW67539   2.441   8.422  10.484
21881SOL    HW167540   2.354   8.394  10.455
21881SOL    HW267541   2.424   8.476  10.561
21882SOL     OW67542   4.888   8.754   3.372
21882SOL    HW167543   4.795   8.742   3.352
21882SOL    HW267544   4.934   8.715   3.298
21883SOL     OW67545   9.454  12.532   7.827
21883SOL    HW167546   9.495  12.484   7.755
21883SOL    HW267547   9.442  12.466   7.896
21884SOL     OW67548   5.661   3.855   0.838
21884SOL    HW167549   5.686   3.940   0.804
21884SOL    HW267550   5.596   3.874   0.905
21885SOL     OW67551   6.660   4.521   0.564
21885SOL    HW167552   6.680   4.428   0.573
21885SOL    HW267553   6.745   4.564   0.571
21886SOL     OW67554   6.815   0.128   0.931
21886SOL    HW167555   6.889   0.083   0.973
21886SOL    HW267556   6.802   0.206   0.985
21887SOL     OW67557   5.147  13.709   0.179
21887SOL    HW167558   5.065  13.686   0.135
21887SOL    HW267559   5.211  13.645   0.146
21888SOL     OW67560   1.203   8.397  10.018
21888SOL    HW167561   1.280   8.443   9.985
21888SOL    HW267562   1.134   8.415   9.953
21889SOL     OW67563   4.818   1.377   5.946
21889SOL    HW167564   4.796   1.423   6.028
21889SOL    HW267565   4.766   1.422   5.879
21890SOL     OW67566   6.710   3.481   5.416
21890SOL    HW167567   6.633   3.443   5.375
21890SOL    HW267568   6.676   3.549   5.474
21891SOL     OW67569   6.819   5.334   9.863
21891SOL    HW167570   6.852   5.289   9.785
21891SOL    HW267571   6.730   5.362   9.839
21892SOL     OW67572   4.737   4.515   8.843
21892SOL    HW167573   4.718   4.465   8.922
21892SOL    HW267574   4.661   4.572   8.832
21893SOL     OW67575  10.115  11.065   2.932
21893SOL    HW167576  10.187  11.028   2.983
21893SOL    HW267577  10.124  11.160   2.942
21894SOL     OW67578   9.421   5.820  12.427
21894SOL    HW167579   9.503   5.832  12.473
21894SOL    HW267580   9.435   5.744  12.371
21895SOL     OW67581   6.957   7.212  14.030
21895SOL    HW167582   7.016   7.136  14.028
21895SOL    HW267583   6.915   7.208  14.115
21896SOL     OW67584  10.753   0.596  13.797
21896SOL    HW167585  10.714   0.524  13.847
21896SOL    HW267586  10.793   0.554  13.722
21897SOL     OW67587   7.737   1.020   3.972
21897SOL    HW167588   7.789   1.032   3.893
21897SOL    HW267589   7.772   1.084   4.034
21898SOL     OW67590   2.366  14.609   6.759
21898SOL    HW167591   2.436  14.658   6.802
21898SOL    HW267592   2.325  14.559   6.829
21899SOL     OW67593  13.038   2.588   0.728
21899SOL    HW167594  12.945   2.571   0.712
21899SOL    HW267595  13.081   2.504   0.711
21900SOL     OW67596   3.890   8.632   4.862
21900SOL    HW167597   3.887   8.585   4.946
21900SOL    HW267598   3.806   8.612   4.820
21901SOL     OW67599   3.651  14.631   8.536
21901SOL    HW167600   3.729  14.686   8.539
21901SOL    HW267601   3.609  14.654   8.453
21902SOL     OW67602   4.388  12.629  13.064
21902SOL    HW167603   4.370  12.642  12.971
21902SOL    HW267604   4.353  12.707  13.107
21903SOL     OW67605  12.995   8.876   8.351
21903SOL    HW167606  13.000   8.854   8.258
21903SOL    HW267607  13.013   8.970   8.355
21904SOL     OW67608   7.239  12.682   2.809
21904SOL    HW167609   7.256  12.772   2.782
21904SOL    HW267610   7.152  12.662   2.774
21905SOL     OW67611  11.626   4.248   6.476
21905SOL    HW167612  11.617   4.216   6.386
21905SOL    HW267613  11.548   4.216   6.521
21906SOL     OW67614  12.147   1.959   5.330
21906SOL    HW167615  12.129   1.988   5.241
21906SOL    HW267616  12.168   2.039   5.378
21907SOL     OW67617   4.885   7.097   5.889
21907SOL    HW167618   4.944   7.141   5.950
21907SOL    HW267619   4.941   7.075   5.814
21908SOL     OW67620   1.505   8.949   5.947
21908SOL    HW167621   1.441   8.886   5.980
21908SOL    HW267622   1.466   8.984   5.868
21909SOL     OW67623   2.024   1.447  12.434
21909SOL    HW167624   1.970   1.369  12.426
21909SOL    HW267625   1.993   1.489  12.514
21910SOL     OW67626   4.117  14.066   8.271
21910SOL    HW167627   4.175  13.993   8.247
21910SOL    HW267628   4.160  14.107   8.346
21911SOL     OW67629  12.714  11.398   6.954
21911SOL    HW167630  12.689  11.490   6.961
21911SOL    HW267631  12.679  11.371   6.870
21912SOL     OW67632  11.062   2.151   9.574
21912SOL    HW167633  11.029   2.201   9.648
21912SOL    HW267634  11.133   2.204   9.539
21913SOL     OW67635   5.823   3.551  13.380
21913SOL    HW167636   5.749   3.512  13.426
21913SOL    HW267637   5.862   3.611  13.443
21914SOL     OW67638   5.049   3.907   3.075
21914SOL    HW167639   5.088   3.882   2.991
21914SOL    HW267640   5.015   3.826   3.111
21915SOL     OW67641  11.602   5.112   1.563
21915SOL    HW167642  11.662   5.060   1.615
21915SOL    HW267643  11.523   5.058   1.555
21916SOL     OW67644  14.053   1.212   9.581
21916SOL    HW167645  14.080   1.127   9.545
21916SOL    HW267646  14.056   1.198   9.676
21917SOL     OW67647  13.844  10.439   4.551
21917SOL    HW167648  13.823  10.522   4.509
21917SOL    HW267649  13.905  10.397   4.490
21918SOL     OW67650   9.156   0.294   4.086
21918SOL    HW167651   9.228   0.240   4.120
21918SOL    HW267652   9.176   0.382   4.117
21919SOL     OW67653  12.308   5.043  11.830
21919SOL    HW167654  12.368   5.039  11.905
21919SOL    HW267655  12.364   5.067  11.756
21920SOL     OW67656  10.101   8.412   8.406
21920SOL    HW167657  10.160   8.373   8.471
21920SOL    HW267658  10.052   8.478   8.455
21921SOL     OW67659  10.918  11.228  10.128
21921SOL    HW167660  10.999  11.224  10.078
21921SOL    HW267661  10.907  11.140  10.165
21922SOL     OW67662   3.290  10.132   7.240
21922SOL    HW167663   3.339  10.141   7.322
21922SOL    HW267664   3.295  10.039   7.219
21923SOL     OW67665  12.430   3.888  11.465
21923SOL    HW167666  12.508   3.941  11.473
21923SOL    HW267667  12.381   3.926  11.392
21924SOL     OW67668  12.300  14.006  11.201
21924SOL    HW167669  12.286  13.912  11.191
21924SOL    HW267670  12.379  14.024  11.149
21925SOL     OW67671   9.940  13.369   1.992
21925SOL    HW167672   9.902  13.290   1.954
21925SOL    HW267673  10.010  13.337   2.050
21926SOL     OW67674  11.468   7.721  12.464
21926SOL    HW167675  11.427   7.647  12.508
21926SOL    HW267676  11.445   7.711  12.372
21927SOL     OW67677  11.953   9.823   4.062
21927SOL    HW167678  12.048   9.827   4.074
21927SOL    HW267679  11.921   9.906   4.097
21928SOL     OW67680  14.503   8.803   6.359
21928SOL    HW167681  14.529   8.893   6.339
21928SOL    HW267682  14.573   8.749   6.321
21929SOL     OW67683   0.559  14.631   9.250
21929SOL    HW167684   0.475  14.666   9.220
21929SOL    HW267685   0.548  14.620   9.345
21930SOL     OW67686   6.468   0.162   9.066
21930SOL    HW167687   6.412   0.239   9.083
21930SOL    HW267688   6.536   0.195   9.008
21931SOL     OW67689   7.279   1.855   3.665
21931SOL    HW167690   7.250   1.906   3.590
21931SOL    HW267691   7.264   1.911   3.741
21932SOL     OW67692   1.603  12.613   9.842
21932SOL    HW167693   1.651  12.658   9.912
21932SOL    HW267694   1.511  12.634   9.858
21933SOL     OW67695   8.152   5.328   9.723
21933SOL    HW167696   8.232   5.299   9.680
21933SOL    HW267697   8.109   5.247   9.751
21934SOL     OW67698   1.553   1.278   4.234
21934SOL    HW167699   1.507   1.362   4.223
21934SOL    HW267700   1.596   1.285   4.319
21935SOL     OW67701  13.752   5.798  10.071
21935SOL    HW167702  13.673   5.778  10.122
21935SOL    HW267703  13.792   5.712  10.056
21936SOL     OW67704  14.726  13.051   9.844
21936SOL    HW167705  14.767  12.993   9.909
21936SOL    HW267706  14.662  13.102   9.895
21937SOL     OW67707   5.801  11.146   1.013
21937SOL    HW167708   5.841  11.063   0.987
21937SOL    HW267709   5.875  11.205   1.026
21938SOL     OW67710   4.749  13.709   0.834
21938SOL    HW167711   4.813  13.772   0.866
21938SOL    HW267712   4.799  13.651   0.776
21939SOL     OW67713   5.994   1.792  11.756
21939SOL    HW167714   5.982   1.820  11.847
21939SOL    HW267715   6.088   1.794  11.742
21940SOL     OW67716  14.330   6.382   9.806
21940SOL    HW167717  14.419   6.396   9.776
21940SOL    HW267718  14.291   6.325   9.739
21941SOL     OW67719   7.304   4.263  12.356
21941SOL    HW167720   7.269   4.218  12.433
21941SOL    HW267721   7.269   4.352  12.362
21942SOL     OW67722   6.554   3.893   9.151
21942SOL    HW167723   6.627   3.914   9.208
21942SOL    HW267724   6.577   3.933   9.067
21943SOL     OW67725   1.375  12.599  11.039
21943SOL    HW167726   1.342  12.621  11.126
21943SOL    HW267727   1.469  12.616  11.044
21944SOL     OW67728   7.064   6.277  11.516
21944SOL    HW167729   7.128   6.256  11.584
21944SOL    HW267730   7.084   6.366  11.489
21945SOL     OW67731   4.722   3.375  14.684
21945SOL    HW167732   4.631   3.382  14.713
21945SOL    HW267733   4.735   3.281  14.671
21946SOL     OW67734   9.203   4.178  10.164
21946SOL    HW167735   9.287   4.204  10.203
21946SOL    HW267736   9.184   4.093  10.204
21947SOL     OW67737  13.060   3.279   6.410
21947SOL    HW167738  13.127   3.290   6.342
21947SOL    HW267739  12.977   3.298   6.366
21948SOL     OW67740   4.043   6.373   3.760
21948SOL    HW167741   4.008   6.429   3.830
21948SOL    HW267742   4.089   6.303   3.805
21949SOL     OW67743  13.719   3.158  13.456
21949SOL    HW167744  13.652   3.161  13.524
21949SOL    HW267745  13.780   3.228  13.478
21950SOL     OW67746   1.860   1.188  12.398
21950SOL    HW167747   1.886   1.170  12.308
21950SOL    HW267748   1.778   1.237  12.390
21951SOL     OW67749   6.825  11.662   6.860
21951SOL    HW167750   6.902  11.608   6.844
21951SOL    HW267751   6.751  11.601   6.855
21952SOL     OW67752  12.609   5.156   4.238
21952SOL    HW167753  12.622   5.247   4.264
21952SOL    HW267754  12.698   5.120   4.232
21953SOL     OW67755   8.634   3.455  13.932
21953SOL    HW167756   8.627   3.362  13.911
21953SOL    HW267757   8.728   3.471  13.938
21954SOL     OW67758   5.073   6.696  12.584
21954SOL    HW167759   5.056   6.790  12.587
21954SOL    HW267760   5.073   6.675  12.490
21955SOL     OW67761   0.905  14.603   6.167
21955SOL    HW167762   0.897  14.528   6.226
21955SOL    HW267763   0.999  14.615   6.156
21956SOL     OW67764  12.694   4.801   1.926
21956SOL    HW167765  12.643   4.764   1.853
21956SOL    HW267766  12.666   4.750   2.002
21957SOL     OW67767   7.997   6.168   6.917
21957SOL    HW167768   8.004   6.226   6.993
21957SOL    HW267769   7.904   6.169   6.895
21958SOL     OW67770  11.360  10.056   2.398
21958SOL    HW167771  11.435  10.011   2.359
21958SOL    HW267772  11.303   9.985   2.429
21959SOL     OW67773   6.016   2.077   4.352
21959SOL    HW167774   5.936   2.086   4.403
21959SOL    HW267775   6.041   2.166   4.328
21960SOL     OW67776   4.860   3.595  10.659
21960SOL    HW167777   4.949   3.567  10.635
21960SOL    HW267778   4.811   3.513  10.668
21961SOL     OW67779  11.450   0.815   7.447
21961SOL    HW167780  11.428   0.896   7.401
21961SOL    HW267781  11.543   0.824   7.468
21962SOL     OW67782  11.195   8.765   5.848
21962SOL    HW167783  11.201   8.765   5.943
21962SOL    HW267784  11.166   8.676   5.825
21963SOL     OW67785  14.417   6.225   0.838
21963SOL    HW167786  14.507   6.193   0.847
21963SOL    HW267787  14.366   6.168   0.895
21964SOL     OW67788   3.455   5.793   2.931
21964SOL    HW167789   3.432   5.884   2.950
21964SOL    HW267790   3.498   5.796   2.846
21965SOL     OW67791  10.648   6.511   6.654
21965SOL    HW167792  10.724   6.570   6.653
21965SOL    HW267793  10.606   6.525   6.569
21966SOL     OW67794  14.608   6.053   9.802
21966SOL    HW167795  14.528   6.105   9.792
21966SOL    HW267796  14.582   5.965   9.774
21967SOL     OW67797  14.451   1.852   5.635
21967SOL    HW167798  14.401   1.796   5.575
21967SOL    HW267799  14.498   1.912   5.577
21968SOL     OW67800   5.712  12.157   1.641
21968SOL    HW167801   5.748  12.167   1.553
21968SOL    HW267802   5.776  12.102   1.687
21969SOL     OW67803   3.972   7.473  14.803
21969SOL    HW167804   3.896   7.468  14.862
21969SOL    HW267805   3.938   7.449  14.717
21970SOL     OW67806  11.346   9.761  13.245
21970SOL    HW167807  11.429   9.765  13.196
21970SOL    HW267808  11.314   9.851  13.244
21971SOL     OW67809   7.261   6.036   3.985
21971SOL    HW167810   7.290   6.058   4.073
21971SOL    HW267811   7.209   6.111   3.957
21972SOL     OW67812   9.491   2.445  13.245
21972SOL    HW167813   9.497   2.467  13.338
21972SOL    HW267814   9.576   2.472  13.208
21973SOL     OW67815  13.926   0.002   5.765
21973SOL    HW167816  13.934   0.053   5.845
21973SOL    HW267817  14.010   0.014   5.720
21974SOL     OW67818  11.069   7.108   3.039
21974SOL    HW167819  11.026   7.085   2.956
21974SOL    HW267820  11.162   7.094   3.021
21975SOL     OW67821   2.669   9.561   7.670
21975SOL    HW167822   2.580   9.556   7.705
21975SOL    HW267823   2.693   9.470   7.651
21976SOL     OW67824  11.504   9.683   9.346
21976SOL    HW167825  11.482   9.755   9.405
21976SOL    HW267826  11.430   9.677   9.286
21977SOL     OW67827   1.314  11.193   7.840
21977SOL    HW167828   1.393  11.183   7.787
21977SOL    HW267829   1.323  11.126   7.908
21978SOL     OW67830  11.284   2.981   3.650
21978SOL    HW167831  11.286   2.943   3.562
21978SOL    HW267832  11.327   3.066   3.641
21979SOL     OW67833   6.847   0.533   5.677
21979SOL    HW167834   6.849   0.591   5.601
21979SOL    HW267835   6.784   0.465   5.653
21980SOL     OW67836   2.288  13.997   8.981
21980SOL    HW167837   2.231  13.983   8.905
21980SOL    HW267838   2.353  13.927   8.975
21981SOL     OW67839  11.548   9.925   6.046
21981SOL    HW167840  11.557   9.908   5.953
21981SOL    HW267841  11.458   9.954   6.058
21982SOL     OW67842   0.997  11.375   0.283
21982SOL    HW167843   0.938  11.310   0.323
21982SOL    HW267844   0.957  11.459   0.305
21983SOL     OW67845   4.880   2.878   6.067
21983SOL    HW167846   4.905   2.924   6.147
21983SOL    HW267847   4.851   2.948   6.008
21984SOL     OW67848   0.775   8.295  14.696
21984SOL    HW167849   0.777   8.362  14.764
21984SOL    HW267850   0.798   8.214  14.741
21985SOL     OW67851   0.186   1.923   3.448
21985SOL    HW167852   0.261   1.873   3.481
21985SOL    HW267853   0.119   1.857   3.431
21986SOL     OW67854  10.186   8.624   9.949
21986SOL    HW167855  10.218   8.633   9.859
21986SOL    HW267856  10.103   8.671   9.950
21987SOL     OW67857   0.363   4.819   5.498
21987SOL    HW167858   0.358   4.792   5.589
21987SOL    HW267859   0.456   4.829   5.480
21988SOL     OW67860   8.109   3.950   1.671
21988SOL    HW167861   8.115   4.039   1.706
21988SOL    HW267862   8.093   3.895   1.747
21989SOL     OW67863   0.804   2.964   1.317
21989SOL    HW167864   0.734   2.927   1.371
21989SOL    HW267865   0.881   2.910   1.336
21990SOL     OW67866   8.934  14.333   3.682
21990SOL    HW167867   8.949  14.339   3.777
21990SOL    HW267868   8.853  14.381   3.667
21991SOL     OW67869   3.444   0.148   6.321
21991SOL    HW167870   3.478   0.236   6.338
21991SOL    HW267871   3.447   0.105   6.406
21992SOL     OW67872  11.632   5.125   9.919
21992SOL    HW167873  11.695   5.174   9.867
21992SOL    HW267874  11.555   5.182   9.924
21993SOL     OW67875  11.127   2.590   6.851
21993SOL    HW167876  11.167   2.635   6.926
21993SOL    HW267877  11.164   2.502   6.854
21994SOL     OW67878   6.279  10.136   9.952
21994SOL    HW167879   6.358  10.083   9.942
21994SOL    HW267880   6.266  10.177   9.867
21995SOL     OW67881   0.272   9.199   9.481
21995SOL    HW167882   0.301   9.280   9.438
21995SOL    HW267883   0.276   9.219   9.574
21996SOL     OW67884   8.834   9.440   3.878
21996SOL    HW167885   8.923   9.473   3.870
21996SOL    HW267886   8.799   9.441   3.788
21997SOL     OW67887   3.454   2.353   5.805
21997SOL    HW167888   3.362   2.381   5.802
21997SOL    HW267889   3.503   2.431   5.778
21998SOL     OW67890   9.945   9.653  12.979
21998SOL    HW167891   9.864   9.686  12.941
21998SOL    HW267892  10.014   9.692  12.926
21999SOL     OW67893   5.437   2.065  12.274
21999SOL    HW167894   5.492   2.143  12.265
21999SOL    HW267895   5.409   2.065  12.365
22000SOL     OW67896   7.811  14.405   1.734
22000SOL    HW167897   7.812  14.482   1.678
22000SOL    HW267898   7.833  14.332   1.676
22001SOL     OW67899   2.153   7.554  10.615
22001SOL    HW167900   2.087   7.490  10.589
22001SOL    HW267901   2.106   7.612  10.675
22002SOL     OW67902  10.395   6.844   4.724
22002SOL    HW167903  10.443   6.881   4.650
22002SOL    HW267904  10.436   6.883   4.801
22003SOL     OW67905   4.529   6.410   7.597
22003SOL    HW167906   4.617   6.379   7.618
22003SOL    HW267907   4.470   6.355   7.650
22004SOL     OW67908   9.769  13.578   8.793
22004SOL    HW167909   9.674  13.576   8.794
22004SOL    HW267910   9.791  13.610   8.705
22005SOL     OW67911  12.258  13.634  12.138
22005SOL    HW167912  12.232  13.648  12.047
22005SOL    HW267913  12.215  13.703  12.187
22006SOL     OW67914   1.739   8.477   8.466
22006SOL    HW167915   1.797   8.552   8.475
22006SOL    HW267916   1.723   8.448   8.556
22007SOL     OW67917  13.515   5.955   3.383
22007SOL    HW167918  13.494   5.937   3.474
22007SOL    HW267919  13.434   5.991   3.346
22008SOL     OW67920   3.286   0.424   0.876
22008SOL    HW167921   3.255   0.473   0.800
22008SOL    HW267922   3.379   0.409   0.859
22009SOL     OW67923  14.093   3.290   3.485
22009SOL    HW167924  14.080   3.201   3.519
22009SOL    HW267925  14.143   3.335   3.553
22010SOL     OW67926   7.073   3.265   3.499
22010SOL    HW167927   7.111   3.177   3.506
22010SOL    HW267928   7.083   3.302   3.587
22011SOL     OW67929   3.735   8.464   8.796
22011SOL    HW167930   3.678   8.389   8.775
22011SOL    HW267931   3.823   8.435   8.769
22012SOL     OW67932   1.067   8.017   2.997
22012SOL    HW167933   0.999   8.020   3.064
22012SOL    HW267934   1.130   8.083   3.023
22013SOL     OW67935  11.033  14.703  11.627
22013SOL    HW167936  11.047  14.796  11.611
22013SOL    HW267937  11.108  14.659  11.586
22014SOL     OW67938   7.142  10.204   4.043
22014SOL    HW167939   7.178  10.287   4.012
22014SOL    HW267940   7.209  10.169   4.101
22015SOL     OW67941   7.771  11.981  12.144
22015SOL    HW167942   7.814  11.896  12.142
22015SOL    HW267943   7.754  11.997  12.237
22016SOL     OW67944   8.854   4.562  12.899
22016SOL    HW167945   8.820   4.509  12.828
22016SOL    HW267946   8.949   4.548  12.897
22017SOL     OW67947  12.228  11.712  14.511
22017SOL    HW167948  12.169  11.646  14.548
22017SOL    HW267949  12.314  11.690  14.548
22018SOL     OW67950  10.184   3.708   9.963
22018SOL    HW167951  10.180   3.725   9.868
22018SOL    HW267952  10.094   3.722   9.993
22019SOL     OW67953  14.729   1.273   3.346
22019SOL    HW167954  14.759   1.362   3.360
22019SOL    HW267955  14.802   1.229   3.304
22020SOL     OW67956   1.458  13.800   3.965
22020SOL    HW167957   1.480  13.874   3.909
22020SOL    HW267958   1.532  13.739   3.954
22021SOL     OW67959  12.419   0.561  13.392
22021SOL    HW167960  12.470   0.503  13.449
22021SOL    HW267961  12.341   0.510  13.369
22022SOL     OW67962   0.095   1.607   5.649
22022SOL    HW167963   0.010   1.642   5.674
22022SOL    HW267964   0.110   1.535   5.709
22023SOL     OW67965   6.562   2.957  11.219
22023SOL    HW167966   6.539   3.050  11.221
22023SOL    HW267967   6.652   2.955  11.187
22024SOL     OW67968  14.564   8.796   6.783
22024SOL    HW167969  14.520   8.729   6.834
22024SOL    HW267970  14.517   8.797   6.699
22025SOL     OW67971  11.277  13.667   9.424
22025SOL    HW167972  11.216  13.718   9.478
22025SOL    HW267973  11.241  13.579   9.424
22026SOL     OW67974   6.846  11.977   9.420
22026SOL    HW167975   6.843  12.065   9.382
22026SOL    HW267976   6.913  11.931   9.370
22027SOL     OW67977   2.024   7.845   9.163
22027SOL    HW167978   1.947   7.873   9.212
22027SOL    HW267979   2.043   7.918   9.104
22028SOL     OW67980   6.511  10.510   9.752
22028SOL    HW167981   6.428  10.465   9.735
22028SOL    HW267982   6.554  10.514   9.666
22029SOL     OW67983   5.743  13.031  12.930
22029SOL    HW167984   5.662  13.080  12.947
22029SOL    HW267985   5.734  13.000  12.840
22030SOL     OW67986  10.896   2.701   9.753
22030SOL    HW167987  10.821   2.752   9.724
22030SOL    HW267988  10.864   2.650   9.827
22031SOL     OW67989   1.918   3.270  11.203
22031SOL    HW167990   1.872   3.193  11.236
22031SOL    HW267991   1.917   3.259  11.107
22032SOL     OW67992   9.807   9.886   5.419
22032SOL    HW167993   9.878   9.831   5.453
22032SOL    HW267994   9.740   9.824   5.391
22033SOL     OW67995   2.734  11.473  11.817
22033SOL    HW167996   2.804  11.506  11.760
22033SOL    HW267997   2.779  11.417  11.880
22034SOL     OW67998  10.392   9.142   4.796
22034SOL    HW167999  10.413   9.070   4.855
22034SOL    HW268000  10.296   9.150   4.800
22035SOL     OW68001  11.563  10.264   5.671
22035SOL    HW168002  11.530  10.178   5.646
22035SOL    HW268003  11.527  10.279   5.758
22036SOL     OW68004  12.190   5.880   9.941
22036SOL    HW168005  12.166   5.790   9.963
22036SOL    HW268006  12.247   5.872   9.865
22037SOL     OW68007  13.401   9.522   9.268
22037SOL    HW168008  13.349   9.602   9.265
22037SOL    HW268009  13.348   9.457   9.221
22038SOL     OW68010   8.999  10.284   3.191
22038SOL    HW168011   8.904  10.273   3.201
22038SOL    HW268012   9.030  10.304   3.279
22039SOL     OW68013   6.519   0.813   0.464
22039SOL    HW168014   6.490   0.723   0.447
22039SOL    HW268015   6.607   0.817   0.427
22040SOL     OW68016   8.011   4.852  12.895
22040SOL    HW168017   8.018   4.843  12.800
22040SOL    HW268018   7.917   4.850  12.912
22041SOL     OW68019   5.857   1.157   1.645
22041SOL    HW168020   5.892   1.076   1.681
22041SOL    HW268021   5.762   1.147   1.651
22042SOL     OW68022   5.096  11.024  10.615
22042SOL    HW168023   5.128  10.940  10.648
22042SOL    HW268024   5.113  11.086  10.686
22043SOL     OW68025   2.786  10.928   2.563
22043SOL    HW168026   2.787  10.955   2.655
22043SOL    HW268027   2.722  10.858   2.560
22044SOL     OW68028   6.233  10.570   2.466
22044SOL    HW168029   6.179  10.626   2.409
22044SOL    HW268030   6.180  10.558   2.545
22045SOL     OW68031  14.140   1.184  11.080
22045SOL    HW168032  14.230   1.193  11.110
22045SOL    HW268033  14.147   1.180  10.985
22046SOL     OW68034   5.161   0.902  13.758
22046SOL    HW168035   5.067   0.919  13.759
22046SOL    HW268036   5.184   0.894  13.666
22047SOL     OW68037   0.417   1.632   7.655
22047SOL    HW168038   0.366   1.552   7.644
22047SOL    HW268039   0.427   1.641   7.750
22048SOL     OW68040   7.896   0.012  12.468
22048SOL    HW168041   7.833  14.828  12.502
22048SOL    HW268042   7.876   0.017  12.375
22049SOL     OW68043   0.121   2.305   5.105
22049SOL    HW168044   0.081   2.257   5.178
22049SOL    HW268045   0.153   2.386   5.145
22050SOL     OW68046  13.146   7.044   6.881
22050SOL    HW168047  13.155   7.040   6.976
22050SOL    HW268048  13.068   7.098   6.867
22051SOL     OW68049   1.641   5.636   7.160
22051SOL    HW168050   1.667   5.652   7.070
22051SOL    HW268051   1.614   5.544   7.162
22052SOL     OW68052   2.475  14.754  13.763
22052SOL    HW168053   2.422  14.738  13.685
22052SOL    HW268054   2.564  14.733  13.735
22053SOL     OW68055   0.406   3.966  10.652
22053SOL    HW168056   0.472   3.956  10.583
22053SOL    HW268057   0.418   3.888  10.707
22054SOL     OW68058  12.702   7.941   2.748
22054SOL    HW168059  12.776   7.928   2.808
22054SOL    HW268060  12.625   7.928   2.803
22055SOL     OW68061   7.381   9.440  13.803
22055SOL    HW168062   7.415   9.372  13.861
22055SOL    HW268063   7.407   9.523  13.845
22056SOL     OW68064   2.418  12.935   7.041
22056SOL    HW168065   2.437  12.853   7.086
22056SOL    HW268066   2.413  13.000   7.110
22057SOL     OW68067  10.452   6.130   6.584
22057SOL    HW168068  10.398   6.061   6.544
22057SOL    HW268069  10.525   6.082   6.625
22058SOL     OW68070  14.566  12.634   4.253
22058SOL    HW168071  14.494  12.625   4.191
22058SOL    HW268072  14.582  12.728   4.258
22059SOL     OW68073   4.076   0.601   4.180
22059SOL    HW168074   4.078   0.514   4.141
22059SOL    HW268075   4.168   0.624   4.192
22060SOL     OW68076   2.519   2.527   5.508
22060SOL    HW168077   2.555   2.552   5.423
22060SOL    HW268078   2.433   2.569   5.511
22061SOL     OW68079   7.666  10.625   8.003
22061SOL    HW168080   7.656  10.533   8.024
22061SOL    HW268081   7.635  10.633   7.913
22062SOL     OW68082  14.160  14.586  11.722
22062SOL    HW168083  14.115  14.629  11.650
22062SOL    HW268084  14.091  14.539  11.770
22063SOL     OW68085  14.199  10.676   6.587
22063SOL    HW168086  14.153  10.759   6.601
22063SOL    HW268087  14.148  10.631   6.521
22064SOL     OW68088  11.649   1.858  14.124
22064SOL    HW168089  11.569   1.812  14.147
22064SOL    HW268090  11.711   1.789  14.101
22065SOL     OW68091  10.488  13.598  12.415
22065SOL    HW168092  10.466  13.691  12.418
22065SOL    HW268093  10.555  13.592  12.347
22066SOL     OW68094   0.929  11.510   7.129
22066SOL    HW168095   0.951  11.473   7.043
22066SOL    HW268096   1.003  11.486   7.185
22067SOL     OW68097   7.101  11.604   8.121
22067SOL    HW168098   7.131  11.590   8.031
22067SOL    HW268099   7.016  11.561   8.124
22068SOL     OW68100  13.330   4.970   4.971
22068SOL    HW168101  13.386   4.916   4.914
22068SOL    HW268102  13.289   4.907   5.030
22069SOL     OW68103   6.219   0.189  13.212
22069SOL    HW168104   6.157   0.262  13.203
22069SOL    HW268105   6.246   0.193  13.304
22070SOL     OW68106   5.576  14.858   6.671
22070SOL    HW168107   5.574   0.064   6.631
22070SOL    HW268108   5.667  14.830   6.662
22071SOL     OW68109   1.277   9.732   5.900
22071SOL    HW168110   1.249   9.814   5.860
22071SOL    HW268111   1.198   9.700   5.945
22072SOL     OW68112   1.958   5.843   3.575
22072SOL    HW168113   2.021   5.877   3.637
22072SOL    HW268114   1.972   5.895   3.496
22073SOL     OW68115  10.822  14.252  10.625
22073SOL    HW168116  10.764  14.243  10.701
22073SOL    HW268117  10.855  14.341  10.630
22074SOL     OW68118   0.643   2.107   9.549
22074SOL    HW168119   0.654   2.160   9.627
22074SOL    HW268120   0.549   2.109   9.531
22075SOL     OW68121  12.788   6.741  11.605
22075SOL    HW168122  12.758   6.651  11.595
22075SOL    HW268123  12.710   6.789  11.633
22076SOL     OW68124  11.893   5.876   4.154
22076SOL    HW168125  11.922   5.797   4.109
22076SOL    HW268126  11.851   5.843   4.234
22077SOL     OW68127   9.569   6.924  14.498
22077SOL    HW168128   9.584   6.836  14.531
22077SOL    HW268129   9.656   6.955  14.470
22078SOL     OW68130   0.769   9.048   9.555
22078SOL    HW168131   0.675   9.049   9.571
22078SOL    HW268132   0.785   8.966   9.510
22079SOL     OW68133   9.800  13.555   1.234
22079SOL    HW168134   9.743  13.608   1.290
22079SOL    HW268135   9.741  13.517   1.169
22080SOL     OW68136   4.684   5.029   7.676
22080SOL    HW168137   4.743   5.028   7.600
22080SOL    HW268138   4.660   5.121   7.686
22081SOL     OW68139   7.066   6.908   4.339
22081SOL    HW168140   7.045   6.858   4.260
22081SOL    HW268141   7.101   6.991   4.307
22082SOL     OW68142   9.805   1.202   3.085
22082SOL    HW168143   9.779   1.111   3.071
22082SOL    HW268144   9.805   1.212   3.181
22083SOL     OW68145   8.528   5.035   7.581
22083SOL    HW168146   8.594   4.997   7.522
22083SOL    HW268147   8.451   4.979   7.569
22084SOL     OW68148   2.610  11.300   5.562
22084SOL    HW168149   2.586  11.267   5.475
22084SOL    HW268150   2.533  11.284   5.616
22085SOL     OW68151  10.003  12.271   2.987
22085SOL    HW168152  10.015  12.356   3.030
22085SOL    HW268153   9.912  12.271   2.959
22086SOL     OW68154  14.600   7.358   3.060
22086SOL    HW168155  14.660   7.426   3.090
22086SOL    HW268156  14.567   7.390   2.976
22087SOL     OW68157   6.742   4.269   9.129
22087SOL    HW168158   6.714   4.356   9.100
22087SOL    HW268159   6.824   4.253   9.081
22088SOL     OW68160   9.155   1.018  10.535
22088SOL    HW168161   9.103   1.090  10.500
22088SOL    HW268162   9.186   0.971  10.457
22089SOL     OW68163  14.555   8.761   9.052
22089SOL    HW168164  14.562   8.689   9.114
22089SOL    HW268165  14.576   8.722   8.967
22090SOL     OW68166   2.651   8.991   8.130
22090SOL    HW168167   2.745   8.981   8.147
22090SOL    HW268168   2.646   9.063   8.067
22091SOL     OW68169   1.259   9.178  14.044
22091SOL    HW168170   1.178   9.228  14.052
22091SOL    HW268171   1.316   9.212  14.113
22092SOL     OW68172   5.735  10.776   3.690
22092SOL    HW168173   5.766  10.847   3.634
22092SOL    HW268174   5.716  10.705   3.629
22093SOL     OW68175   6.588   6.899   0.326
22093SOL    HW168176   6.605   6.958   0.252
22093SOL    HW268177   6.593   6.956   0.403
22094SOL     OW68178   6.016   8.970   1.172
22094SOL    HW168179   5.942   8.925   1.130
22094SOL    HW268180   6.076   8.899   1.196
22095SOL     OW68181   2.251   0.256   8.204
22095SOL    HW168182   2.335   0.230   8.242
22095SOL    HW268183   2.189   0.190   8.235
22096SOL     OW68184   7.949  12.598   9.238
22096SOL    HW168185   8.019  12.537   9.263
22096SOL    HW268186   7.881  12.584   9.304
22097SOL     OW68187   8.140  11.174   8.324
22097SOL    HW168188   8.046  11.184   8.309
22097SOL    HW268189   8.163  11.091   8.282
22098SOL     OW68190   6.490  14.419   0.663
22098SOL    HW168191   6.569  14.423   0.717
22098SOL    HW268192   6.486  14.505   0.621
22099SOL     OW68193  10.930   4.176  12.630
22099SOL    HW168194  10.988   4.244  12.595
22099SOL    HW268195  10.842   4.213  12.620
22100SOL     OW68196   1.579   2.431   3.818
22100SOL    HW168197   1.594   2.417   3.911
22100SOL    HW268198   1.653   2.485   3.790
22101SOL     OW68199   7.091  13.036   8.196
22101SOL    HW168200   7.115  13.109   8.254
22101SOL    HW268201   7.013  12.998   8.236
22102SOL     OW68202   6.379   9.724   1.329
22102SOL    HW168203   6.418   9.640   1.304
22102SOL    HW268204   6.285   9.709   1.324
22103SOL     OW68205   3.137  13.658   8.702
22103SOL    HW168206   3.227  13.663   8.670
22103SOL    HW268207   3.132  13.574   8.748
22104SOL     OW68208   8.070   3.174  10.015
22104SOL    HW168209   8.094   3.124  10.093
22104SOL    HW268210   8.079   3.111   9.943
22105SOL     OW68211   8.100   6.437   9.861
22105SOL    HW168212   8.036   6.503   9.885
22105SOL    HW268213   8.118   6.454   9.768
22106SOL     OW68214   6.326   7.946  12.777
22106SOL    HW168215   6.293   8.016  12.834
22106SOL    HW268216   6.341   7.872  12.836
22107SOL     OW68217  13.486   9.075   8.487
22107SOL    HW168218  13.479   9.001   8.427
22107SOL    HW268219  13.579   9.079   8.510
22108SOL     OW68220  14.471  14.031   0.055
22108SOL    HW168221  14.548  13.995   0.010
22108SOL    HW268222  14.415  13.955   0.071
22109SOL     OW68223  10.040   1.823   0.932
22109SOL    HW168224  10.002   1.832   0.844
22109SOL    HW268225  10.127   1.863   0.924
22110SOL     OW68226  10.337  10.407   9.656
22110SOL    HW168227  10.339  10.311   9.656
22110SOL    HW268228  10.410  10.432   9.599
22111SOL     OW68229  14.857   0.046   4.769
22111SOL    HW168230   0.062   0.004   4.770
22111SOL    HW268231  14.819   0.026   4.855
22112SOL     OW68232  11.686   0.692   9.236
22112SOL    HW168233  11.695   0.608   9.192
22112SOL    HW268234  11.610   0.681   9.292
22113SOL     OW68235   6.708   5.671   8.712
22113SOL    HW168236   6.685   5.738   8.647
22113SOL    HW268237   6.804   5.675   8.717
22114SOL     OW68238  14.004   4.885   3.224
22114SOL    HW168239  14.081   4.885   3.282
22114SOL    HW268240  13.983   4.792   3.214
22115SOL     OW68241  13.802  10.352   6.243
22115SOL    HW168242  13.800  10.379   6.335
22115SOL    HW268243  13.812  10.433   6.194
22116SOL     OW68244  13.801  14.220   6.628
22116SOL    HW168245  13.853  14.146   6.660
22116SOL    HW268246  13.752  14.185   6.554
22117SOL     OW68247  13.858   2.982  12.799
22117SOL    HW168248  13.816   3.065  12.822
22117SOL    HW268249  13.947   3.006  12.772
22118SOL     OW68250   6.548   0.518   2.249
22118SOL    HW168251   6.588   0.473   2.323
22118SOL    HW268252   6.619   0.571   2.212
22119SOL     OW68253   7.614  13.392   9.778
22119SOL    HW168254   7.527  13.392   9.819
22119SOL    HW268255   7.672  13.427   9.846
22120SOL     OW68256   5.483   9.794   8.108
22120SOL    HW168257   5.533   9.872   8.082
22120SOL    HW268258   5.501   9.784   8.201
22121SOL     OW68259   4.619  11.826   4.615
22121SOL    HW168260   4.572  11.850   4.694
22121SOL    HW268261   4.606  11.899   4.555
22122SOL     OW68262   9.172   5.600  12.881
22122SOL    HW168263   9.125   5.653  12.817
22122SOL    HW268264   9.105   5.541  12.917
22123SOL     OW68265   5.762   6.452   3.342
22123SOL    HW168266   5.728   6.375   3.297
22123SOL    HW268267   5.765   6.520   3.274
22124SOL     OW68268   8.146   8.713   2.082
22124SOL    HW168269   8.072   8.766   2.111
22124SOL    HW268270   8.189   8.685   2.163
22125SOL     OW68271   3.032   6.453   4.300
22125SOL    HW168272   3.043   6.467   4.206
22125SOL    HW268273   3.119   6.427   4.330
22126SOL     OW68274   5.074   0.567   2.483
22126SOL    HW168275   4.981   0.590   2.495
22126SOL    HW268276   5.072   0.490   2.427
22127SOL     OW68277   3.693   9.028   6.539
22127SOL    HW168278   3.712   9.098   6.477
22127SOL    HW268279   3.714   9.065   6.624
22128SOL     OW68280  14.236  13.908   2.238
22128SOL    HW168281  14.224  13.844   2.167
22128SOL    HW268282  14.244  13.992   2.193
22129SOL     OW68283   0.665   8.481  13.044
22129SOL    HW168284   0.711   8.434  13.113
22129SOL    HW268285   0.733   8.525  12.994
22130SOL     OW68286   1.854  13.466   3.149
22130SOL    HW168287   1.932  13.474   3.095
22130SOL    HW268288   1.885  13.479   3.239
22131SOL     OW68289  14.158   0.437  11.935
22131SOL    HW168290  14.158   0.357  11.882
22131SOL    HW268291  14.234   0.486  11.903
22132SOL     OW68292   7.602   0.442   5.885
22132SOL    HW168293   7.677   0.471   5.832
22132SOL    HW268294   7.640   0.418   5.969
22133SOL     OW68295   3.472   8.887   8.520
22133SOL    HW168296   3.540   8.860   8.582
22133SOL    HW268297   3.515   8.952   8.464
22134SOL     OW68298  11.616   2.690  14.572
22134SOL    HW168299  11.563   2.624  14.617
22134SOL    HW268300  11.552   2.752  14.537
22135SOL     OW68301   8.935  13.490   9.536
22135SOL    HW168302   9.002  13.448   9.482
22135SOL    HW268303   8.983  13.555   9.587
22136SOL     OW68304   4.621   3.808   1.936
22136SOL    HW168305   4.529   3.797   1.961
22136SOL    HW268306   4.669   3.758   2.001
22137SOL     OW68307   9.438   0.591   2.010
22137SOL    HW168308   9.456   0.525   1.943
22137SOL    HW268309   9.347   0.575   2.035
22138SOL     OW68310   0.454   5.774  14.712
22138SOL    HW168311   0.511   5.699  14.726
22138SOL    HW268312   0.369   5.746  14.744
22139SOL     OW68313   7.124  14.595   4.192
22139SOL    HW168314   7.214  14.626   4.203
22139SOL    HW268315   7.084  14.610   4.278
22140SOL     OW68316  14.742   4.939  11.031
22140SOL    HW168317  14.729   4.867  11.093
22140SOL    HW268318  14.678   4.922  10.962
22141SOL     OW68319   0.764   9.028   8.653
22141SOL    HW168320   0.829   9.006   8.719
22141SOL    HW268321   0.785   8.971   8.579
22142SOL     OW68322  14.813   7.955  12.828
22142SOL    HW168323  14.834   7.958  12.735
22142SOL    HW268324  14.744   7.889  12.835
22143SOL     OW68325  12.643   1.800  13.572
22143SOL    HW168326  12.667   1.793  13.665
22143SOL    HW268327  12.628   1.709  13.544
22144SOL     OW68328  14.845   8.176   9.680
22144SOL    HW168329  14.878   8.246   9.736
22144SOL    HW268330  14.824   8.104   9.740
22145SOL     OW68331   4.892  10.601   1.563
22145SOL    HW168332   4.930  10.521   1.600
22145SOL    HW268333   4.911  10.595   1.469
22146SOL     OW68334   0.892   2.563   2.816
22146SOL    HW168335   0.938   2.647   2.815
22146SOL    HW268336   0.950   2.504   2.863
22147SOL     OW68337  10.903   0.685  14.041
22147SOL    HW168338  10.871   0.637  13.965
22147SOL    HW268339  10.937   0.767  14.005
22148SOL     OW68340  12.138  14.488   6.444
22148SOL    HW168341  12.151  14.451   6.532
22148SOL    HW268342  12.154  14.582   6.455
22149SOL     OW68343   0.400   5.307   7.873
22149SOL    HW168344   0.355   5.253   7.809
22149SOL    HW268345   0.332   5.333   7.936
22150SOL     OW68346   4.424   4.658  14.116
22150SOL    HW168347   4.365   4.665  14.041
22150SOL    HW268348   4.407   4.571  14.153
22151SOL     OW68349  13.523   0.283   7.350
22151SOL    HW168350  13.570   0.282   7.267
22151SOL    HW268351  13.435   0.313   7.327
22152SOL     OW68352   6.895   7.774   5.539
22152SOL    HW168353   6.918   7.689   5.576
22152SOL    HW268354   6.845   7.753   5.460
22153SOL     OW68355   1.543   9.981   5.921
22153SOL    HW168356   1.473   9.980   5.855
22153SOL    HW268357   1.624   9.972   5.870
22154SOL     OW68358   2.544   7.169   1.576
22154SOL    HW168359   2.477   7.141   1.514
22154SOL    HW268360   2.497   7.222   1.640
22155SOL     OW68361  10.474  13.966  13.118
22155SOL    HW168362  10.526  14.015  13.182
22155SOL    HW268363  10.436  14.034  13.062
22156SOL     OW68364  14.250   5.262  13.853
22156SOL    HW168365  14.193   5.258  13.776
22156SOL    HW268366  14.219   5.192  13.910
22157SOL     OW68367   0.612   4.592   7.217
22157SOL    HW168368   0.569   4.506   7.214
22157SOL    HW268369   0.550   4.649   7.262
22158SOL     OW68370   1.472   9.874   3.157
22158SOL    HW168371   1.386   9.839   3.133
22158SOL    HW268372   1.456   9.968   3.169
22159SOL     OW68373   0.246  14.874   1.270
22159SOL    HW168374   0.319  14.875   1.332
22159SOL    HW268375   0.168  14.873   1.326
22160SOL     OW68376   5.789   8.811   1.538
22160SOL    HW168377   5.844   8.749   1.490
22160SOL    HW268378   5.850   8.870   1.581
22161SOL     OW68379  13.198  14.171   5.631
22161SOL    HW168380  13.125  14.229   5.651
22161SOL    HW268381  13.264  14.192   5.697
22162SOL     OW68382   3.375  14.291  11.870
22162SOL    HW168383   3.353  14.216  11.814
22162SOL    HW268384   3.405  14.253  11.952
22163SOL     OW68385   5.711   5.187   1.190
22163SOL    HW168386   5.646   5.257   1.202
22163SOL    HW268387   5.704   5.163   1.098
22164SOL     OW68388   0.008   4.842   6.330
22164SOL    HW168389  14.834   4.769   6.358
22164SOL    HW268390   0.065   4.860   6.405
22165SOL     OW68391   8.798   5.779  13.501
22165SOL    HW168392   8.745   5.739  13.433
22165SOL    HW268393   8.744   5.775  13.580
22166SOL     OW68394  14.776  11.288   4.472
22166SOL    HW168395  14.862  11.301   4.509
22166SOL    HW268396  14.718  11.346   4.521
22167SOL     OW68397   7.019   4.086   5.202
22167SOL    HW168398   7.028   4.180   5.220
22167SOL    HW268399   7.005   4.046   5.288
22168SOL     OW68400  11.465   1.686  14.182
22168SOL    HW168401  11.492   1.620  14.118
22168SOL    HW268402  11.485   1.647  14.267
22169SOL     OW68403   9.413   0.277  11.797
22169SOL    HW168404   9.426   0.185  11.776
22169SOL    HW268405   9.415   0.280  11.893
22170SOL     OW68406  14.535   9.906  10.708
22170SOL    HW168407  14.614   9.933  10.754
22170SOL    HW268408  14.466   9.961  10.744
22171SOL     OW68409  12.337   2.886   3.462
22171SOL    HW168410  12.358   2.969   3.420
22171SOL    HW268411  12.412   2.867   3.518
22172SOL     OW68412   6.548   0.567   7.305
22172SOL    HW168413   6.609   0.562   7.378
22172SOL    HW268414   6.522   0.477   7.288
22173SOL     OW68415   4.954   8.569   4.138
22173SOL    HW168416   5.039   8.609   4.158
22173SOL    HW268417   4.973   8.476   4.126
22174SOL     OW68418   3.072  14.268   5.375
22174SOL    HW168419   3.043  14.358   5.362
22174SOL    HW268420   3.143  14.274   5.439
22175SOL     OW68421   7.700   2.779   1.436
22175SOL    HW168422   7.691   2.848   1.503
22175SOL    HW268423   7.794   2.763   1.431
22176SOL     OW68424   9.211   7.669  13.739
22176SOL    HW168425   9.244   7.757  13.725
22176SOL    HW268426   9.181   7.640  13.653
22177SOL     OW68427   9.738   8.293   0.103
22177SOL    HW168428   9.772   8.262   0.187
22177SOL    HW268429   9.752   8.387   0.105
22178SOL     OW68430  10.981  14.244   3.071
22178SOL    HW168431  11.042  14.300   3.120
22178SOL    HW268432  10.985  14.160   3.116
22179SOL     OW68433   0.822  14.520   3.087
22179SOL    HW168434   0.770  14.566   3.020
22179SOL    HW268435   0.810  14.573   3.166
22180SOL     OW68436  12.038  11.465   7.848
22180SOL    HW168437  12.029  11.489   7.940
22180SOL    HW268438  12.124  11.424   7.842
22181SOL     OW68439   2.762  12.643   8.379
22181SOL    HW168440   2.754  12.711   8.446
22181SOL    HW268441   2.676  12.639   8.338
22182SOL     OW68442   5.448   7.593  13.579
22182SOL    HW168443   5.364   7.581  13.534
22182SOL    HW268444   5.510   7.615  13.509
22183SOL     OW68445   5.555  14.700  10.030
22183SOL    HW168446   5.459  14.702  10.025
22183SOL    HW268447   5.583  14.785   9.996
22184SOL     OW68448   4.920   3.178  10.004
22184SOL    HW168449   4.867   3.201   9.927
22184SOL    HW268450   4.856   3.162  10.073
22185SOL     OW68451   3.992   1.654   0.887
22185SOL    HW168452   4.022   1.744   0.876
22185SOL    HW268453   3.909   1.662   0.934
22186SOL     OW68454   8.009  13.353  14.803
22186SOL    HW168455   7.937  13.342  14.865
22186SOL    HW268456   8.058  13.428  14.836
22187SOL     OW68457   5.102   3.028  10.131
22187SOL    HW168458   5.053   3.093  10.081
22187SOL    HW268459   5.066   2.944  10.104
22188SOL     OW68460   3.605  13.997   1.525
22188SOL    HW168461   3.563  13.918   1.559
22188SOL    HW268462   3.588  14.064   1.592
22189SOL     OW68463   3.747  12.137  14.594
22189SOL    HW168464   3.781  12.183  14.671
22189SOL    HW268465   3.655  12.163  14.588
22190SOL     OW68466  14.100   4.314  10.594
22190SOL    HW168467  14.126   4.222  10.587
22190SOL    HW268468  14.071   4.324  10.685
22191SOL     OW68469   9.836  11.107   1.840
22191SOL    HW168470   9.890  11.149   1.773
22191SOL    HW268471   9.871  11.138   1.923
22192SOL     OW68472   9.914   6.308   6.225
22192SOL    HW168473   9.893   6.399   6.247
22192SOL    HW268474  10.007   6.299   6.246
22193SOL     OW68475   9.662  12.253   7.324
22193SOL    HW168476   9.702  12.207   7.250
22193SOL    HW268477   9.681  12.345   7.308
22194SOL     OW68478   0.786   2.197   9.791
22194SOL    HW168479   0.787   2.104   9.771
22194SOL    HW268480   0.878   2.223   9.792
22195SOL     OW68481   3.206  10.522   1.243
22195SOL    HW168482   3.269  10.520   1.316
22195SOL    HW268483   3.249  10.474   1.173
22196SOL     OW68484  11.957   4.242   1.667
22196SOL    HW168485  11.920   4.197   1.591
22196SOL    HW268486  11.882   4.263   1.722
22197SOL     OW68487   5.325   3.097   7.514
22197SOL    HW168488   5.322   3.190   7.537
22197SOL    HW268489   5.244   3.082   7.464
22198SOL     OW68490  10.051   6.116   0.561
22198SOL    HW168491  10.111   6.159   0.623
22198SOL    HW268492  10.001   6.055   0.615
22199SOL     OW68493   5.580   6.375  13.823
22199SOL    HW168494   5.626   6.454  13.851
22199SOL    HW268495   5.604   6.364  13.731
22200SOL     OW68496  14.579   4.111   5.133
22200SOL    HW168497  14.662   4.071   5.160
22200SOL    HW268498  14.567   4.082   5.043
22201SOL     OW68499   4.681   9.857   8.249
22201SOL    HW168500   4.672   9.950   8.267
22201SOL    HW268501   4.646   9.846   8.160
22202SOL     OW68502   9.638  11.721  11.078
22202SOL    HW168503   9.706  11.657  11.056
22202SOL    HW268504   9.666  11.759  11.161
22203SOL     OW68505   4.452   2.660   3.052
22203SOL    HW168506   4.441   2.603   2.976
22203SOL    HW268507   4.544   2.650   3.075
22204SOL     OW68508  13.798  12.869  13.186
22204SOL    HW168509  13.753  12.892  13.268
22204SOL    HW268510  13.770  12.779  13.169
22205SOL     OW68511   6.212   3.212   2.287
22205SOL    HW168512   6.266   3.178   2.216
22205SOL    HW268513   6.171   3.291   2.250
22206SOL     OW68514  11.005   7.113   9.846
22206SOL    HW168515  11.075   7.126   9.909
22206SOL    HW268516  10.983   7.020   9.853
22207SOL     OW68517   0.093  14.207   1.375
22207SOL    HW168518   0.042  14.288   1.379
22207SOL    HW268519   0.082  14.175   1.286
22208SOL     OW68520  14.090   6.277   5.943
22208SOL    HW168521  14.110   6.314   5.857
22208SOL    HW268522  14.061   6.351   5.996
22209SOL     OW68523   5.623   3.120  11.609
22209SOL    HW168524   5.628   3.026  11.624
22209SOL    HW268525   5.712   3.145  11.584
22210SOL     OW68526   4.309   0.481   3.766
22210SOL    HW168527   4.347   0.528   3.692
22210SOL    HW268528   4.379   0.482   3.832
22211SOL     OW68529  12.106   8.716  12.290
22211SOL    HW168530  12.016   8.685  12.294
22211SOL    HW268531  12.130   8.711  12.198
22212SOL     OW68532   2.678  10.475   1.996
22212SOL    HW168533   2.701  10.564   2.026
22212SOL    HW268534   2.762  10.429   1.994
22213SOL     OW68535   5.373   9.231   4.445
22213SOL    HW168536   5.414   9.160   4.495
22213SOL    HW268537   5.322   9.280   4.509
22214SOL     OW68538   3.529  13.510   7.495
22214SOL    HW168539   3.444  13.548   7.515
22214SOL    HW268540   3.561  13.478   7.579
22215SOL     OW68541   5.843   2.560   7.646
22215SOL    HW168542   5.830   2.562   7.552
22215SOL    HW268543   5.795   2.636   7.679
22216SOL     OW68544   7.323  13.039   7.810
22216SOL    HW168545   7.289  13.123   7.840
22216SOL    HW268546   7.327  12.985   7.889
22217SOL     OW68547   5.286  12.017  13.460
22217SOL    HW168548   5.199  12.058  13.465
22217SOL    HW268549   5.317  12.018  13.550
22218SOL     OW68550  13.864  13.390  14.268
22218SOL    HW168551  13.926  13.321  14.291
22218SOL    HW268552  13.778  13.351  14.284
22219SOL     OW68553  10.563  13.268   5.595
22219SOL    HW168554  10.479  13.265   5.642
22219SOL    HW268555  10.598  13.355   5.613
22220SOL     OW68556  13.694   9.831   8.875
22220SOL    HW168557  13.739   9.863   8.953
22220SOL    HW268558  13.669   9.741   8.896
22221SOL     OW68559   1.913   9.309   6.012
22221SOL    HW168560   1.916   9.296   5.917
22221SOL    HW268561   1.977   9.378   6.028
22222SOL     OW68562   2.902  12.980   7.395
22222SOL    HW168563   2.944  13.065   7.386
22222SOL    HW268564   2.960  12.931   7.453
22223SOL     OW68565  13.734   3.575  13.310
22223SOL    HW168566  13.679   3.650  13.333
22223SOL    HW268567  13.786   3.605  13.236
22224SOL     OW68568   4.230  10.637  14.776
22224SOL    HW168569   4.160  10.572  14.777
22224SOL    HW268570   4.190  10.715  14.736
22225SOL     OW68571  13.728  13.836   5.774
22225SOL    HW168572  13.718  13.931   5.768
22225SOL    HW268573  13.817  13.819   5.744
22226SOL     OW68574   4.568   9.776   1.611
22226SOL    HW168575   4.524   9.842   1.559
22226SOL    HW268576   4.510   9.700   1.608
22227SOL     OW68577  12.237   0.645   7.058
22227SOL    HW168578  12.300   0.633   7.130
22227SOL    HW268579  12.239   0.562   7.010
22228SOL     OW68580   3.677  10.513   9.960
22228SOL    HW168581   3.621  10.435   9.960
22228SOL    HW268582   3.623  10.581   9.919
22229SOL     OW68583   9.846   9.985   1.266
22229SOL    HW168584   9.921  10.018   1.215
22229SOL    HW268585   9.886   9.932   1.335
22230SOL     OW68586   5.629   8.421   1.962
22230SOL    HW168587   5.573   8.410   1.885
22230SOL    HW268588   5.670   8.507   1.949
22231SOL     OW68589   7.163  12.047   2.847
22231SOL    HW168590   7.187  12.007   2.931
22231SOL    HW268591   7.247  12.058   2.802
22232SOL     OW68592   4.465   1.164   8.222
22232SOL    HW168593   4.508   1.146   8.305
22232SOL    HW268594   4.422   1.082   8.198
22233SOL     OW68595   9.450   9.478  13.975
22233SOL    HW168596   9.528   9.531  13.992
22233SOL    HW268597   9.430   9.436  14.058
22234SOL     OW68598   9.411   7.411  10.452
22234SOL    HW168599   9.463   7.415  10.372
22234SOL    HW268600   9.322   7.430  10.423
22235SOL     OW68601   5.973  10.674   9.387
22235SOL    HW168602   6.000  10.641   9.301
22235SOL    HW268603   6.045  10.733   9.413
22236SOL     OW68604  10.851   3.880   3.479
22236SOL    HW168605  10.839   3.961   3.528
22236SOL    HW268606  10.880   3.909   3.392
22237SOL     OW68607  11.033   8.213  12.467
22237SOL    HW168608  11.055   8.120  12.465
22237SOL    HW268609  10.963   8.220  12.532
22238SOL     OW68610   0.189  13.341  13.434
22238SOL    HW168611   0.167  13.305  13.520
22238SOL    HW268612   0.115  13.317  13.378
22239SOL     OW68613   6.530   9.555  10.627
22239SOL    HW168614   6.446   9.543  10.584
22239SOL    HW268615   6.562   9.467  10.644
22240SOL     OW68616   8.880  11.080   8.886
22240SOL    HW168617   8.880  11.105   8.979
22240SOL    HW268618   8.789  11.057   8.867
22241SOL     OW68619   8.651  13.078   4.677
22241SOL    HW168620   8.626  13.138   4.607
22241SOL    HW268621   8.746  13.087   4.684
22242SOL     OW68622   9.064   4.383   3.577
22242SOL    HW168623   9.020   4.467   3.562
22242SOL    HW268624   9.009   4.318   3.534
22243SOL     OW68625  10.406   3.510   6.628
22243SOL    HW168626  10.445   3.595   6.646
22243SOL    HW268627  10.312   3.528   6.620
22244SOL     OW68628  10.553   6.109   0.127
22244SOL    HW168629  10.562   6.172   0.197
22244SOL    HW268630  10.534   6.026   0.171
22245SOL     OW68631   9.595   5.248   5.334
22245SOL    HW168632   9.574   5.156   5.317
22245SOL    HW268633   9.599   5.254   5.430
22246SOL     OW68634  12.618   5.299  14.550
22246SOL    HW168635  12.596   5.207  14.534
22246SOL    HW268636  12.547   5.331  14.605
22247SOL     OW68637   4.839  13.178   7.650
22247SOL    HW168638   4.784  13.242   7.695
22247SOL    HW268639   4.822  13.192   7.557
22248SOL     OW68640   0.376  12.159   7.065
22248SOL    HW168641   0.303  12.165   7.126
22248SOL    HW268642   0.335  12.159   6.978
22249SOL     OW68643  10.439   5.513  14.038
22249SOL    HW168644  10.410   5.562  13.961
22249SOL    HW268645  10.513   5.563  14.072
22250SOL     OW68646  11.462   1.460  11.845
22250SOL    HW168647  11.443   1.448  11.752
22250SOL    HW268648  11.411   1.536  11.871
22251SOL     OW68649   3.321   3.231   4.581
22251SOL    HW168650   3.399   3.285   4.570
22251SOL    HW268651   3.345   3.167   4.648
22252SOL     OW68652   2.336   0.734   3.543
22252SOL    HW168653   2.377   0.675   3.606
22252SOL    HW268654   2.250   0.694   3.527
22253SOL     OW68655   4.129   3.807   7.282
22253SOL    HW168656   4.090   3.775   7.364
22253SOL    HW268657   4.133   3.729   7.226
22254SOL     OW68658  10.547  12.293  13.958
22254SOL    HW168659  10.546  12.279  14.052
22254SOL    HW268660  10.583  12.212  13.922
22255SOL     OW68661   3.052   8.886   3.935
22255SOL    HW168662   2.979   8.938   3.901
22255SOL    HW268663   3.033   8.797   3.904
22256SOL     OW68664   2.961   5.754   8.592
22256SOL    HW168665   2.898   5.704   8.644
22256SOL    HW268666   2.907   5.807   8.533
22257SOL     OW68667  11.628   2.447   4.986
22257SOL    HW168668  11.690   2.433   5.057
22257SOL    HW268669  11.660   2.524   4.939
22258SOL     OW68670   3.348   5.170   5.001
22258SOL    HW168671   3.424   5.212   5.041
22258SOL    HW268672   3.273   5.202   5.052
22259SOL     OW68673   7.670   0.585   7.712
22259SOL    HW168674   7.673   0.489   7.714
22259SOL    HW268675   7.663   0.610   7.804
22260SOL     OW68676   5.537   8.723  13.454
22260SOL    HW168677   5.530   8.645  13.509
22260SOL    HW268678   5.623   8.759  13.475
22261SOL     OW68679   1.343  13.540  13.646
22261SOL    HW168680   1.392  13.611  13.605
22261SOL    HW268681   1.407  13.495  13.701
22262SOL     OW68682  13.133   4.943   6.613
22262SOL    HW168683  13.203   4.938   6.677
22262SOL    HW268684  13.117   5.037   6.601
22263SOL     OW68685   0.291  11.881   4.596
22263SOL    HW168686   0.206  11.897   4.638
22263SOL    HW268687   0.270  11.876   4.503
22264SOL     OW68688   5.347  12.487   5.007
22264SOL    HW168689   5.336  12.563   4.950
22264SOL    HW268690   5.393  12.522   5.084
22265SOL     OW68691   0.760  11.830   7.581
22265SOL    HW168692   0.669  11.805   7.569
22265SOL    HW268693   0.759  11.892   7.655
22266SOL     OW68694  11.350  12.100   8.194
22266SOL    HW168695  11.279  12.095   8.130
22266SOL    HW268696  11.421  12.050   8.155
22267SOL     OW68697  14.544   7.522  11.538
22267SOL    HW168698  14.475   7.546  11.476
22267SOL    HW268699  14.546   7.426  11.536
22268SOL     OW68700   0.965   9.240   0.967
22268SOL    HW168701   0.981   9.280   1.053
22268SOL    HW268702   1.052   9.211   0.938
22269SOL     OW68703   8.205  12.264   8.201
22269SOL    HW168704   8.266  12.199   8.167
22269SOL    HW268705   8.132  12.211   8.236
22270SOL     OW68706  14.065   7.004   6.242
22270SOL    HW168707  14.127   7.010   6.169
22270SOL    HW268708  14.101   7.064   6.308
22271SOL     OW68709  10.984   4.996   5.196
22271SOL    HW168710  10.951   5.086   5.197
22271SOL    HW268711  11.079   5.006   5.187
22272SOL     OW68712  14.333   8.924   4.209
22272SOL    HW168713  14.285   8.844   4.190
22272SOL    HW268714  14.293   8.990   4.152
22273SOL     OW68715   1.639   4.861   9.958
22273SOL    HW168716   1.592   4.941   9.979
22273SOL    HW268717   1.670   4.829  10.043
22274SOL     OW68718  12.304   9.292   6.558
22274SOL    HW168719  12.396   9.265   6.566
22274SOL    HW268720  12.301   9.345   6.479
22275SOL     OW68721  11.261   2.263   3.140
22275SOL    HW168722  11.208   2.274   3.219
22275SOL    HW268723  11.215   2.314   3.073
22276SOL     OW68724  12.942   5.021   1.722
22276SOL    HW168725  12.902   5.040   1.638
22276SOL    HW268726  12.871   5.029   1.785
22277SOL     OW68727  11.571   1.334   0.254
22277SOL    HW168728  11.565   1.309   0.161
22277SOL    HW268729  11.550   1.253   0.301
22278SOL     OW68730  14.833  14.355   8.256
22278SOL    HW168731  14.857  14.298   8.329
22278SOL    HW268732  14.748  14.324   8.227
22279SOL     OW68733  14.444   2.495   3.064
22279SOL    HW168734  14.444   2.533   2.976
22279SOL    HW268735  14.353   2.471   3.079
22280SOL     OW68736   2.879   0.321   0.920
22280SOL    HW168737   2.798   0.366   0.897
22280SOL    HW268738   2.930   0.321   0.839
22281SOL     OW68739   7.619  13.391   7.800
22281SOL    HW168740   7.628  13.296   7.810
22281SOL    HW268741   7.672  13.413   7.724
22282SOL     OW68742   9.350   1.488   1.399
22282SOL    HW168743   9.339   1.394   1.409
22282SOL    HW268744   9.303   1.526   1.473
22283SOL     OW68745   9.054   8.581   1.221
22283SOL    HW168746   9.049   8.675   1.204
22283SOL    HW268747   9.143   8.567   1.253
22284SOL     OW68748   4.474  11.786   3.057
22284SOL    HW168749   4.527  11.747   2.988
22284SOL    HW268750   4.433  11.712   3.102
22285SOL     OW68751   5.298   2.994  10.888
22285SOL    HW168752   5.282   3.053  10.815
22285SOL    HW268753   5.282   3.048  10.966
22286SOL     OW68754   1.878  10.625  10.867
22286SOL    HW168755   1.945  10.684  10.831
22286SOL    HW268756   1.901  10.539  10.831
22287SOL     OW68757   5.608   2.811   1.185
22287SOL    HW168758   5.663   2.834   1.111
22287SOL    HW268759   5.605   2.715   1.184
22288SOL     OW68760   7.082  10.557   6.690
22288SOL    HW168761   7.159  10.528   6.739
22288SOL    HW268762   7.052  10.479   6.643
22289SOL     OW68763   1.228   7.552   4.125
22289SOL    HW168764   1.222   7.597   4.210
22289SOL    HW268765   1.308   7.585   4.086
22290SOL     OW68766  11.053  12.170   1.605
22290SOL    HW168767  11.080  12.225   1.679
22290SOL    HW268768  11.118  12.099   1.605
22291SOL     OW68769  12.779  14.066   6.275
22291SOL    HW168770  12.854  14.014   6.248
22291SOL    HW268771  12.721  14.067   6.199
22292SOL     OW68772   3.682   8.447  11.991
22292SOL    HW168773   3.600   8.497  11.993
22292SOL    HW268774   3.748   8.509  11.960
22293SOL     OW68775  13.299   0.128   7.591
22293SOL    HW168776  13.297   0.184   7.669
22293SOL    HW268777  13.385   0.086   7.594
22294SOL     OW68778   9.024  13.015  10.556
22294SOL    HW168779   9.067  12.930  10.555
22294SOL    HW268780   9.094  13.078  10.539
22295SOL     OW68781   7.143   3.930   6.294
22295SOL    HW168782   7.186   4.015   6.292
22295SOL    HW268783   7.074   3.936   6.228
22296SOL     OW68784   4.822   0.750   1.970
22296SOL    HW168785   4.906   0.718   1.939
22296SOL    HW268786   4.786   0.801   1.897
22297SOL     OW68787  11.111   0.714  11.175
22297SOL    HW168788  11.081   0.802  11.195
22297SOL    HW268789  11.052   0.684  11.105
22298SOL     OW68790  12.308   1.435   1.176
22298SOL    HW168791  12.260   1.398   1.102
22298SOL    HW268792  12.387   1.473   1.137
22299SOL     OW68793   9.841   6.531   2.080
22299SOL    HW168794   9.796   6.511   1.998
22299SOL    HW268795   9.868   6.623   2.071
22300SOL     OW68796  13.689   3.193   5.925
22300SOL    HW168797  13.648   3.279   5.913
22300SOL    HW268798  13.747   3.204   6.000
22301SOL     OW68799  10.254  13.559  13.151
22301SOL    HW168800  10.330  13.543  13.207
22301SOL    HW268801  10.254  13.486  13.089
22302SOL     OW68802   4.610   1.404  13.591
22302SOL    HW168803   4.703   1.390  13.575
22302SOL    HW268804   4.571   1.410  13.504
22303SOL     OW68805   4.920  10.371  12.267
22303SOL    HW168806   4.827  10.391  12.261
22303SOL    HW268807   4.925  10.276  12.255
22304SOL     OW68808   1.181   4.369   1.473
22304SOL    HW168809   1.184   4.371   1.378
22304SOL    HW268810   1.237   4.295   1.497
22305SOL     OW68811   5.577  10.039   1.855
22305SOL    HW168812   5.651  10.011   1.909
22305SOL    HW268813   5.612  10.040   1.766
22306SOL     OW68814   2.466  11.492   2.142
22306SOL    HW168815   2.448  11.581   2.173
22306SOL    HW268816   2.529  11.457   2.205
22307SOL     OW68817   4.445   4.030   1.589
22307SOL    HW168818   4.485   4.101   1.639
22307SOL    HW268819   4.472   4.046   1.498
22308SOL     OW68820   7.905   5.395   2.437
22308SOL    HW168821   7.962   5.374   2.512
22308SOL    HW268822   7.928   5.485   2.414
22309SOL     OW68823   5.159   2.605   0.210
22309SOL    HW168824   5.197   2.682   0.168
22309SOL    HW268825   5.190   2.610   0.301
22310SOL     OW68826   4.035   7.192   2.817
22310SOL    HW168827   3.971   7.122   2.804
22310SOL    HW268828   4.098   7.156   2.878
22311SOL     OW68829   1.213  14.350   5.399
22311SOL    HW168830   1.134  14.374   5.349
22311SOL    HW268831   1.278  14.415   5.371
22312SOL     OW68832   5.310   7.990  13.190
22312SOL    HW168833   5.358   8.072  13.183
22312SOL    HW268834   5.223   8.015  13.221
22313SOL     OW68835   9.845   4.181  12.149
22313SOL    HW168836   9.840   4.269  12.186
22313SOL    HW268837   9.897   4.132  12.212
22314SOL     OW68838   9.357  12.777   4.642
22314SOL    HW168839   9.395  12.690   4.627
22314SOL    HW268840   9.268  12.771   4.608
22315SOL     OW68841   6.089   7.416  14.100
22315SOL    HW168842   5.998   7.447  14.098
22315SOL    HW268843   6.082   7.321  14.098
22316SOL     OW68844  12.401  10.328  11.934
22316SOL    HW168845  12.365  10.265  11.872
22316SOL    HW268846  12.364  10.412  11.907
22317SOL     OW68847   0.955  10.269   2.868
22317SOL    HW168848   0.919  10.342   2.817
22317SOL    HW268849   0.891  10.254   2.937
22318SOL     OW68850  14.072  12.594   7.226
22318SOL    HW168851  14.080  12.657   7.154
22318SOL    HW268852  13.980  12.569   7.226
22319SOL     OW68853   0.897   3.254   1.253
22319SOL    HW168854   0.954   3.283   1.182
22319SOL    HW268855   0.858   3.173   1.222
22320SOL     OW68856  11.486   7.450   1.828
22320SOL    HW168857  11.499   7.407   1.743
22320SOL    HW268858  11.492   7.544   1.809
22321SOL     OW68859   8.425  10.691   0.356
22321SOL    HW168860   8.349  10.647   0.393
22321SOL    HW268861   8.450  10.637   0.280
22322SOL     OW68862   8.900   1.525   5.166
22322SOL    HW168863   8.830   1.526   5.232
22322SOL    HW268864   8.881   1.601   5.111
22323SOL     OW68865  10.891   4.396   2.029
22323SOL    HW168866  10.887   4.462   1.960
22323SOL    HW268867  10.856   4.316   1.989
22324SOL     OW68868  11.768  10.545   1.800
22324SOL    HW168869  11.769  10.567   1.893
22324SOL    HW268870  11.758  10.630   1.756
22325SOL     OW68871  11.119   3.927   0.243
22325SOL    HW168872  11.112   3.883   0.158
22325SOL    HW268873  11.028   3.943   0.269
22326SOL     OW68874  13.658  13.170  11.035
22326SOL    HW168875  13.683  13.107  11.103
22326SOL    HW268876  13.595  13.228  11.077
22327SOL     OW68877  14.857  11.397   8.052
22327SOL    HW168878  14.810  11.401   8.135
22327SOL    HW268879   0.039  11.325   8.063
22328SOL     OW68880  12.184   6.535   0.099
22328SOL    HW168881  12.233   6.600   0.149
22328SOL    HW268882  12.138   6.586   0.032
22329SOL     OW68883   4.718  12.021   1.089
22329SOL    HW168884   4.685  12.098   1.043
22329SOL    HW268885   4.672  12.021   1.173
22330SOL     OW68886   6.101   7.156   9.463
22330SOL    HW168887   6.147   7.205   9.531
22330SOL    HW268888   6.047   7.221   9.418
22331SOL     OW68889   0.851   2.715   4.632
22331SOL    HW168890   0.824   2.623   4.642
22331SOL    HW268891   0.860   2.747   4.722
22332SOL     OW68892   0.420   4.713   2.651
22332SOL    HW168893   0.398   4.620   2.650
22332SOL    HW268894   0.365   4.751   2.582
22333SOL     OW68895   5.502   3.731  11.725
22333SOL    HW168896   5.590   3.755  11.695
22333SOL    HW268897   5.456   3.815  11.731
22334SOL     OW68898   1.724  14.005   7.256
22334SOL    HW168899   1.718  14.007   7.351
22334SOL    HW268900   1.818  14.011   7.237
22335SOL     OW68901   4.641   7.162   1.603
22335SOL    HW168902   4.604   7.075   1.598
22335SOL    HW268903   4.650   7.191   1.512
22336SOL     OW68904   5.442   8.924   5.537
22336SOL    HW168905   5.371   8.964   5.487
22336SOL    HW268906   5.398   8.869   5.602
22337SOL     OW68907  10.191   1.725   6.173
22337SOL    HW168908  10.175   1.651   6.232
22337SOL    HW268909  10.151   1.800   6.217
22338SOL     OW68910   9.970   4.735   4.134
22338SOL    HW168911  10.017   4.651   4.136
22338SOL    HW268912   9.954   4.756   4.226
22339SOL     OW68913  14.449   4.784   6.322
22339SOL    HW168914  14.536   4.816   6.346
22339SOL    HW268915  14.465   4.698   6.283
22340SOL     OW68916   0.927  12.466   1.888
22340SOL    HW168917   0.870  12.534   1.923
22340SOL    HW268918   0.873  12.420   1.824
22341SOL     OW68919  13.286   2.215   7.403
22341SOL    HW168920  13.236   2.296   7.402
22341SOL    HW268921  13.247   2.162   7.334
22342SOL     OW68922   4.284  13.190   6.104
22342SOL    HW168923   4.278  13.105   6.148
22342SOL    HW268924   4.195  13.205   6.070
22343SOL     OW68925  14.558   5.036  13.845
22343SOL    HW168926  14.483   5.081  13.806
22343SOL    HW268927  14.609   5.006  13.770
22344SOL     OW68928  14.529   2.705   8.892
22344SOL    HW168929  14.443   2.740   8.869
22344SOL    HW268930  14.517   2.671   8.981
22345SOL     OW68931   4.457   3.742   7.301
22345SOL    HW168932   4.543   3.720   7.264
22345SOL    HW268933   4.395   3.693   7.248
22346SOL     OW68934   2.584   3.652  12.677
22346SOL    HW168935   2.583   3.733  12.628
22346SOL    HW268936   2.522   3.595  12.631
22347SOL     OW68937  12.325   6.574   0.570
22347SOL    HW168938  12.351   6.484   0.586
22347SOL    HW268939  12.317   6.581   0.475
22348SOL     OW68940   2.140  13.377   7.784
22348SOL    HW168941   2.079  13.341   7.720
22348SOL    HW268942   2.190  13.442   7.734
22349SOL     OW68943   9.128   3.615   6.118
22349SOL    HW168944   9.222   3.603   6.125
22349SOL    HW268945   9.103   3.569   6.038
22350SOL     OW68946  13.704  11.881   2.426
22350SOL    HW168947  13.642  11.811   2.443
22350SOL    HW268948  13.790  11.841   2.443
22351SOL     OW68949   6.805   1.060   2.828
22351SOL    HW168950   6.810   1.129   2.894
22351SOL    HW268951   6.881   1.005   2.845
22352SOL     OW68952  10.598   9.356   0.772
22352SOL    HW168953  10.551   9.342   0.690
22352SOL    HW268954  10.533   9.393   0.832
22353SOL     OW68955   6.584   2.002   0.724
22353SOL    HW168956   6.604   1.909   0.714
22353SOL    HW268957   6.565   2.033   0.636
22354SOL     OW68958   8.870  12.774  12.322
22354SOL    HW168959   8.803  12.717  12.359
22354SOL    HW268960   8.946  12.716  12.309
22355SOL     OW68961  13.542   1.922   3.527
22355SOL    HW168962  13.550   1.911   3.433
22355SOL    HW268963  13.568   1.838   3.564
22356SOL     OW68964   4.305  12.662  12.832
22356SOL    HW168965   4.230  12.675  12.775
22356SOL    HW268966   4.348  12.584  12.798
22357SOL     OW68967  10.560  10.561  10.159
22357SOL    HW168968  10.630  10.612  10.200
22357SOL    HW268969  10.542  10.606  10.076
22358SOL     OW68970   4.298  12.781   8.481
22358SOL    HW168971   4.264  12.808   8.396
22358SOL    HW268972   4.296  12.685   8.479
22359SOL     OW68973   8.846   2.226  11.182
22359SOL    HW168974   8.941   2.232  11.174
22359SOL    HW268975   8.825   2.137  11.156
22360SOL     OW68976  11.223  14.248  13.539
22360SOL    HW168977  11.262  14.319  13.589
22360SOL    HW268978  11.129  14.263  13.546
22361SOL     OW68979   4.646  11.139  13.287
22361SOL    HW168980   4.698  11.209  13.249
22361SOL    HW268981   4.662  11.063  13.232
22362SOL     OW68982   6.119  10.958  12.742
22362SOL    HW168983   6.143  11.046  12.711
22362SOL    HW268984   6.083  10.973  12.830
22363SOL     OW68985  10.088  13.257   3.724
22363SOL    HW168986  10.116  13.288   3.638
22363SOL    HW268987   9.993  13.248   3.717
22364SOL     OW68988   0.131   0.273   8.450
22364SOL    HW168989   0.131   0.272   8.354
22364SOL    HW268990   0.223   0.263   8.474
22365SOL     OW68991   0.015   5.954  14.498
22365SOL    HW168992  14.815   5.996  14.531
22365SOL    HW268993   0.031   5.996  14.414
22366SOL     OW68994   7.452   6.425   7.435
22366SOL    HW168995   7.468   6.436   7.529
22366SOL    HW268996   7.538   6.432   7.395
22367SOL     OW68997   8.561   2.270   8.802
22367SOL    HW168998   8.496   2.323   8.848
22367SOL    HW268999   8.642   2.320   8.807
22368SOL     OW69000  14.755   0.365   3.228
22368SOL    HW169001  14.695   0.430   3.191
22368SOL    HW269002  14.839   0.410   3.233
22369SOL     OW69003  11.084   6.086  10.416
22369SOL    HW169004  11.155   6.087  10.480
22369SOL    HW269005  11.086   6.172  10.376
22370SOL     OW69006  11.512  12.924  12.226
22370SOL    HW169007  11.419  12.926  12.202
22370SOL    HW269008  11.530  13.012  12.259
22371SOL     OW69009  13.252   1.205   7.780
22371SOL    HW169010  13.302   1.151   7.840
22371SOL    HW269011  13.193   1.144   7.736
22372SOL     OW69012  11.029   0.614   1.222
22372SOL    HW169013  11.026   0.598   1.316
22372SOL    HW269014  10.937   0.622   1.196
22373SOL     OW69015   5.177   8.887  14.607
22373SOL    HW169016   5.096   8.915  14.564
22373SOL    HW269017   5.245   8.903  14.541
22374SOL     OW69018   0.720   3.284   3.113
22374SOL    HW169019   0.704   3.193   3.136
22374SOL    HW269020   0.733   3.283   3.018
22375SOL     OW69021   3.556   4.390  12.889
22375SOL    HW169022   3.608   4.450  12.942
22375SOL    HW269023   3.620   4.337  12.842
22376SOL     OW69024   4.061   8.778  14.582
22376SOL    HW169025   4.144   8.744  14.616
22376SOL    HW269026   4.067   8.765  14.487
22377SOL     OW69027   7.114   8.677   9.330
22377SOL    HW169028   7.176   8.647   9.263
22377SOL    HW269029   7.028   8.665   9.289
22378SOL     OW69030  13.012   3.897   7.145
22378SOL    HW169031  12.978   3.980   7.179
22378SOL    HW269032  12.936   3.839   7.142
22379SOL     OW69033  13.847   1.408  12.330
22379SOL    HW169034  13.882   1.350  12.398
22379SOL    HW269035  13.922   1.430  12.276
22380SOL     OW69036   8.799   3.465  12.319
22380SOL    HW169037   8.779   3.517  12.241
22380SOL    HW269038   8.836   3.384  12.285
22381SOL     OW69039   7.066   9.128   7.908
22381SOL    HW169040   6.981   9.147   7.949
22381SOL    HW269041   7.109   9.213   7.902
22382SOL     OW69042   2.759   6.037   1.114
22382SOL    HW169043   2.677   6.001   1.080
22382SOL    HW269044   2.736   6.074   1.199
22383SOL     OW69045   2.850   9.776   3.817
22383SOL    HW169046   2.768   9.772   3.767
22383SOL    HW269047   2.842   9.704   3.881
22384SOL     OW69048   1.108   4.637   4.398
22384SOL    HW169049   1.201   4.656   4.400
22384SOL    HW269050   1.073   4.693   4.329
22385SOL     OW69051  13.625  11.301   5.669
22385SOL    HW169052  13.616  11.217   5.713
22385SOL    HW269053  13.540  11.344   5.681
22386SOL     OW69054   6.802   9.966   9.967
22386SOL    HW169055   6.895   9.989   9.968
22386SOL    HW269056   6.768   9.997  10.051
22387SOL     OW69057   0.404   4.726  14.620
22387SOL    HW169058   0.343   4.701  14.550
22387SOL    HW269059   0.485   4.749  14.574
22388SOL     OW69060   1.630   4.125   4.615
22388SOL    HW169061   1.674   4.204   4.647
22388SOL    HW269062   1.701   4.065   4.593
22389SOL     OW69063   9.774  14.100   9.964
22389SOL    HW169064   9.821  14.019   9.986
22389SOL    HW269065   9.727  14.078   9.883
22390SOL     OW69066   0.105   1.753   3.896
22390SOL    HW169067   0.089   1.772   3.989
22390SOL    HW269068   0.073   1.831   3.850
22391SOL     OW69069   1.317   7.615  10.679
22391SOL    HW169070   1.277   7.529  10.693
22391SOL    HW269071   1.337   7.617  10.586
22392SOL     OW69072   1.569   2.946  11.422
22392SOL    HW169073   1.624   3.021  11.446
22392SOL    HW269074   1.628   2.888  11.374
22393SOL     OW69075   1.149   4.006   4.998
22393SOL    HW169076   1.171   4.083   4.945
22393SOL    HW269077   1.100   3.949   4.938
22394SOL     OW69078   5.844   7.799  13.916
22394SOL    HW169079   5.755   7.804  13.881
22394SOL    HW269080   5.895   7.758  13.847
22395SOL     OW69081   0.209  14.630  14.169
22395SOL    HW169082   0.146  14.622  14.241
22395SOL    HW269083   0.175  14.700  14.114
22396SOL     OW69084  13.533  14.142  10.491
22396SOL    HW169085  13.554  14.223  10.446
22396SOL    HW269086  13.533  14.075  10.422
22397SOL     OW69087   5.466  10.176   3.788
22397SOL    HW169088   5.396  10.142   3.731
22397SOL    HW269089   5.465  10.118   3.864
22398SOL     OW69090  12.436   0.610  12.937
22398SOL    HW169091  12.498   0.589  13.007
22398SOL    HW269092  12.489   0.654  12.870
22399SOL     OW69093  10.706   4.555   4.579
22399SOL    HW169094  10.792   4.597   4.583
22399SOL    HW269095  10.644   4.627   4.571
22400SOL     OW69096   7.053   5.093   7.810
22400SOL    HW169097   7.125   5.076   7.871
22400SOL    HW269098   7.070   5.182   7.778
22401SOL     OW69099   3.027   9.847  10.482
22401SOL    HW169100   3.025   9.939  10.456
22401SOL    HW269101   3.030   9.850  10.578
22402SOL     OW69102   0.511   7.525   2.264
22402SOL    HW169103   0.508   7.508   2.170
22402SOL    HW269104   0.597   7.493   2.291
22403SOL     OW69105   5.515   1.649  13.629
22403SOL    HW169106   5.533   1.568  13.676
22403SOL    HW269107   5.567   1.716  13.673
22404SOL     OW69108  13.756   3.944   4.693
22404SOL    HW169109  13.695   3.963   4.622
22404SOL    HW269110  13.724   3.995   4.767
22405SOL     OW69111   0.545   1.795  10.196
22405SOL    HW169112   0.511   1.710  10.168
22405SOL    HW269113   0.522   1.854  10.124
22406SOL     OW69114  10.094   8.746   3.124
22406SOL    HW169115  10.006   8.776   3.147
22406SOL    HW269116  10.091   8.651   3.136
22407SOL     OW69117   2.971  14.538   7.370
22407SOL    HW169118   3.062  14.522   7.343
22407SOL    HW269119   2.921  14.534   7.289
22408SOL     OW69120  12.363   3.373  12.202
22408SOL    HW169121  12.345   3.341  12.113
22408SOL    HW269122  12.436   3.434  12.191
22409SOL     OW69123   3.076   3.270  14.013
22409SOL    HW169124   3.115   3.203  14.069
22409SOL    HW269125   3.049   3.223  13.934
22410SOL     OW69126  14.020   7.070  13.964
22410SOL    HW169127  13.992   7.036  13.879
22410SOL    HW269128  14.072   7.147  13.943
22411SOL     OW69129  12.305  10.748  11.685
22411SOL    HW169130  12.287  10.663  11.725
22411SOL    HW269131  12.238  10.806  11.721
22412SOL     OW69132   8.924   8.651   8.286
22412SOL    HW169133   8.836   8.624   8.260
22412SOL    HW269134   8.982   8.596   8.233
22413SOL     OW69135   6.199   3.902  12.847
22413SOL    HW169136   6.252   3.856  12.912
22413SOL    HW269137   6.143   3.834  12.810
22414SOL     OW69138   6.481  12.613   5.586
22414SOL    HW169139   6.480  12.533   5.534
22414SOL    HW269140   6.571  12.646   5.577
22415SOL     OW69141   9.992  13.239  13.996
22415SOL    HW169142  10.029  13.294  13.927
22415SOL    HW269143   9.903  13.272  14.008
22416SOL     OW69144   6.649   4.222   6.787
22416SOL    HW169145   6.594   4.300   6.799
22416SOL    HW269146   6.604   4.171   6.720
22417SOL     OW69147  12.876   1.527   5.875
22417SOL    HW169148  12.941   1.487   5.817
22417SOL    HW269149  12.838   1.598   5.824
22418SOL     OW69150   7.550   7.821   7.730
22418SOL    HW169151   7.542   7.730   7.759
22418SOL    HW269152   7.643   7.840   7.735
22419SOL     OW69153   5.118   5.652   3.640
22419SOL    HW169154   5.148   5.562   3.639
22419SOL    HW269155   5.183   5.701   3.590
22420SOL     OW69156   9.592   1.426  13.402
22420SOL    HW169157   9.638   1.419  13.318
22420SOL    HW269158   9.504   1.393  13.383
22421SOL     OW69159   6.991   1.172   1.206
22421SOL    HW169160   6.964   1.122   1.284
22421SOL    HW269161   6.940   1.253   1.211
22422SOL     OW69162  11.419   2.775   4.429
22422SOL    HW169163  11.372   2.692   4.443
22422SOL    HW269164  11.446   2.772   4.337
22423SOL     OW69165   3.014   4.291   3.922
22423SOL    HW169166   3.030   4.385   3.925
22423SOL    HW269167   3.101   4.251   3.923
22424SOL     OW69168   8.576  11.262  13.612
22424SOL    HW169169   8.515  11.259  13.539
22424SOL    HW269170   8.564  11.349  13.650
22425SOL     OW69171   7.606  14.036   7.335
22425SOL    HW169172   7.541  14.017   7.403
22425SOL    HW269173   7.684  13.989   7.362
22426SOL     OW69174   4.584   0.350  14.593
22426SOL    HW169175   4.541   0.359  14.508
22426SOL    HW269176   4.669   0.312  14.574
22427SOL     OW69177  13.366  11.765   1.175
22427SOL    HW169178  13.306  11.731   1.109
22427SOL    HW269179  13.436  11.807   1.125
22428SOL     OW69180   6.391   9.018   3.709
22428SOL    HW169181   6.429   8.968   3.637
22428SOL    HW269182   6.311   9.056   3.672
22429SOL     OW69183  10.636  11.238  11.947
22429SOL    HW169184  10.577  11.164  11.935
22429SOL    HW269185  10.610  11.276  12.031
22430SOL     OW69186   2.046  12.805   1.238
22430SOL    HW169187   1.999  12.735   1.284
22430SOL    HW269188   1.987  12.880   1.241
22431SOL     OW69189   3.670   8.764   9.567
22431SOL    HW169190   3.743   8.780   9.507
22431SOL    HW269191   3.634   8.679   9.538
22432SOL     OW69192   8.174  10.438   2.661
22432SOL    HW169193   8.153  10.483   2.579
22432SOL    HW269194   8.106  10.466   2.722
22433SOL     OW69195  13.946   6.762   5.524
22433SOL    HW169196  13.992   6.732   5.602
22433SOL    HW269197  13.993   6.841   5.498
22434SOL     OW69198  11.175   6.639   2.604
22434SOL    HW169199  11.219   6.554   2.608
22434SOL    HW269200  11.087   6.622   2.638
22435SOL     OW69201   4.345   4.592   3.949
22435SOL    HW169202   4.273   4.533   3.974
22435SOL    HW269203   4.325   4.618   3.859
22436SOL     OW69204   3.352   9.260   7.063
22436SOL    HW169205   3.394   9.185   7.105
22436SOL    HW269206   3.409   9.334   7.086
22437SOL     OW69207   2.264   5.868  13.568
22437SOL    HW169208   2.332   5.801  13.566
22437SOL    HW269209   2.309   5.947  13.599
22438SOL     OW69210   8.521   1.293   6.016
22438SOL    HW169211   8.480   1.311   6.101
22438SOL    HW269212   8.450   1.301   5.953
22439SOL     OW69213   5.511  10.786  12.651
22439SOL    HW169214   5.557  10.747  12.577
22439SOL    HW269215   5.570  10.774  12.726
22440SOL     OW69216  10.534   2.707   6.160
22440SOL    HW169217  10.598   2.636   6.163
22440SOL    HW269218  10.587   2.787   6.150
22441SOL     OW69219   9.974   5.772   5.078
22441SOL    HW169220  10.065   5.754   5.054
22441SOL    HW269221   9.955   5.858   5.040
22442SOL     OW69222   2.855   2.405  11.988
22442SOL    HW169223   2.876   2.445  12.073
22442SOL    HW269224   2.817   2.320  12.011
22443SOL     OW69225   5.777  10.083   6.396
22443SOL    HW169226   5.696  10.118   6.357
22443SOL    HW269227   5.758   9.990   6.410
22444SOL     OW69228  10.055   6.956  14.729
22444SOL    HW169229   9.998   6.931  14.657
22444SOL    HW269230  10.100   6.876  14.754
22445SOL     OW69231   3.447   8.634  13.498
22445SOL    HW169232   3.506   8.687  13.551
22445SOL    HW269233   3.373   8.615  13.555
22446SOL     OW69234   5.595   4.238   8.163
22446SOL    HW169235   5.626   4.175   8.098
22446SOL    HW269236   5.673   4.283   8.193
22447SOL     OW69237   3.116   8.575  14.856
22447SOL    HW169238   3.054   8.519   0.022
22447SOL    HW269239   3.116   8.541  14.766
22448SOL     OW69240   1.526  10.701   9.300
22448SOL    HW169241   1.593  10.713   9.368
22448SOL    HW269242   1.457  10.764   9.324
22449SOL     OW69243   6.472  12.378   4.250
22449SOL    HW169244   6.503  12.464   4.278
22449SOL    HW269245   6.502  12.318   4.319
22450SOL     OW69246   7.045  10.924   7.684
22450SOL    HW169247   6.959  10.917   7.643
22450SOL    HW269248   7.031  10.980   7.761
22451SOL     OW69249  10.319  13.401   7.542
22451SOL    HW169250  10.381  13.350   7.490
22451SOL    HW269251  10.353  13.491   7.539
22452SOL     OW69252  12.786   6.924   0.018
22452SOL    HW169253  12.737   6.923   0.100
22452SOL    HW269254  12.722   6.951  14.833
22453SOL     OW69255  10.077   4.546  10.086
22453SOL    HW169256   9.985   4.573  10.082
22453SOL    HW269257  10.074   4.451  10.098
22454SOL     OW69258   2.258  11.116   2.232
22454SOL    HW169259   2.187  11.110   2.168
22454SOL    HW269260   2.338  11.122   2.179
22455SOL     OW69261   9.662  13.704   1.650
22455SOL    HW169262   9.638  13.694   1.742
22455SOL    HW269263   9.758  13.702   1.651
22456SOL     OW69264  12.525  13.425   2.383
22456SOL    HW169265  12.586  13.448   2.314
22456SOL    HW269266  12.546  13.335   2.405
22457SOL     OW69267  13.538  11.654  12.014
22457SOL    HW169268  13.485  11.645  12.093
22457SOL    HW269269  13.483  11.705  11.954
22458SOL     OW69270   6.458   0.844   3.761
22458SOL    HW169271   6.494   0.921   3.805
22458SOL    HW269272   6.374   0.873   3.726
22459SOL     OW69273  14.172   4.085  11.161
22459SOL    HW169274  14.189   4.037  11.242
22459SOL    HW269275  14.247   4.145  11.152
22460SOL     OW69276   1.766  13.644   6.026
22460SOL    HW169277   1.731  13.563   6.064
22460SOL    HW269278   1.690  13.686   5.986
22461SOL     OW69279   0.111   0.162   7.429
22461SOL    HW169280   0.185   0.122   7.384
22461SOL    HW269281   0.148   0.194   7.512
22462SOL     OW69282   4.369   5.606   9.353
22462SOL    HW169283   4.417   5.685   9.328
22462SOL    HW269284   4.416   5.572   9.429
22463SOL     OW69285   9.882  12.859  14.387
22463SOL    HW169286   9.940  12.926  14.352
22463SOL    HW269287   9.909  12.849  14.478
22464SOL     OW69288   4.288   9.936   3.297
22464SOL    HW169289   4.349   9.871   3.332
22464SOL    HW269290   4.224   9.949   3.367
22465SOL     OW69291   1.710   0.001   5.401
22465SOL    HW169292   1.669  14.799   5.375
22465SOL    HW269293   1.638   0.065   5.399
22466SOL     OW69294   1.014   8.440   7.972
22466SOL    HW169295   1.020   8.481   7.886
22466SOL    HW269296   1.093   8.469   8.018
22467SOL     OW69297   9.436  10.247   0.574
22467SOL    HW169298   9.526  10.221   0.556
22467SOL    HW269299   9.383  10.179   0.533
22468SOL     OW69300   1.601   9.440  13.545
22468SOL    HW169301   1.654   9.387  13.605
22468SOL    HW269302   1.513   9.435  13.581
22469SOL     OW69303  14.272  11.652   9.696
22469SOL    HW169304  14.317  11.737   9.692
22469SOL    HW269305  14.244  11.644   9.787
22470SOL     OW69306   8.907  13.316   1.966
22470SOL    HW169307   8.928  13.260   2.040
22470SOL    HW269308   8.931  13.404   1.994
22471SOL     OW69309  12.772  13.916   9.047
22471SOL    HW169310  12.820  13.855   9.104
22471SOL    HW269311  12.683  13.880   9.046
22472SOL     OW69312  10.470   8.973   7.971
22472SOL    HW169313  10.386   8.999   8.008
22472SOL    HW269314  10.496   8.897   8.021
22473SOL     OW69315   4.633  13.852   5.576
22473SOL    HW169316   4.568  13.885   5.637
22473SOL    HW269317   4.717  13.868   5.620
22474SOL     OW69318   5.451   8.510   0.964
22474SOL    HW169319   5.477   8.594   0.927
22474SOL    HW269320   5.456   8.449   0.890
22475SOL     OW69321   1.282   1.331  12.456
22475SOL    HW169322   1.368   1.297  12.434
22475SOL    HW269323   1.233   1.328  12.373
22476SOL     OW69324   9.268   1.014  13.542
22476SOL    HW169325   9.185   0.981  13.507
22476SOL    HW269326   9.247   1.042  13.631
22477SOL     OW69327   7.697   2.062   0.364
22477SOL    HW169328   7.750   2.016   0.429
22477SOL    HW269329   7.679   1.996   0.297
22478SOL     OW69330   6.866   2.651   6.940
22478SOL    HW169331   6.852   2.638   6.846
22478SOL    HW269332   6.820   2.578   6.982
22479SOL     OW69333   1.094  11.080  11.272
22479SOL    HW169334   1.112  11.029  11.193
22479SOL    HW269335   1.023  11.032  11.315
22480SOL     OW69336   1.986   1.797  11.668
22480SOL    HW169337   1.939   1.849  11.602
22480SOL    HW269338   1.999   1.712  11.626
22481SOL     OW69339  10.248  11.229   6.422
22481SOL    HW169340  10.233  11.154   6.364
22481SOL    HW269341  10.314  11.282   6.376
22482SOL     OW69342   0.008  10.499   0.690
22482SOL    HW169343   0.098  10.491   0.718
22482SOL    HW269344  14.878  10.431   0.623
22483SOL     OW69345   0.441   8.826   6.519
22483SOL    HW169346   0.449   8.849   6.612
22483SOL    HW269347   0.385   8.749   6.518
22484SOL     OW69348   3.444   7.806   2.954
22484SOL    HW169349   3.511   7.745   2.982
22484SOL    HW269350   3.402   7.763   2.879
22485SOL     OW69351  14.070   3.932  10.937
22485SOL    HW169352  14.114   3.848  10.951
22485SOL    HW269353  14.122   3.995  10.987
22486SOL     OW69354   9.114   7.800  14.677
22486SOL    HW169355   9.152   7.763  14.597
22486SOL    HW269356   9.177   7.867  14.704
22487SOL     OW69357   5.471  14.411  14.479
22487SOL    HW169358   5.487  14.409  14.574
22487SOL    HW269359   5.429  14.327  14.460
22488SOL     OW69360  11.060  13.441   9.177
22488SOL    HW169361  11.020  13.392   9.105
22488SOL    HW269362  11.100  13.517   9.136
22489SOL     OW69363   2.910   4.246   9.047
22489SOL    HW169364   2.905   4.153   9.027
22489SOL    HW269365   2.837   4.262   9.107
22490SOL     OW69366  13.108   6.964  10.819
22490SOL    HW169367  13.015   6.985  10.812
22490SOL    HW269368  13.137   7.009  10.898
22491SOL     OW69369   6.959   4.208  12.023
22491SOL    HW169370   6.951   4.287  12.077
22491SOL    HW269371   6.875   4.201  11.977
22492SOL     OW69372   9.707  10.218   4.393
22492SOL    HW169373   9.721  10.278   4.320
22492SOL    HW269374   9.671  10.273   4.463
22493SOL     OW69375  14.493   7.698  14.424
22493SOL    HW169376  14.460   7.663  14.507
22493SOL    HW269377  14.439   7.775  14.407
22494SOL     OW69378   4.647  14.872   3.131
22494SOL    HW169379   4.668  14.855   3.223
22494SOL    HW269380   4.728  14.850   3.084
22495SOL     OW69381   3.083  14.556  11.403
22495SOL    HW169382   3.128  14.493  11.347
22495SOL    HW269383   3.097  14.641  11.360
22496SOL     OW69384   3.263   1.176  10.104
22496SOL    HW169385   3.321   1.125  10.160
22496SOL    HW269386   3.321   1.229  10.050
22497SOL     OW69387   0.397  12.183   3.907
22497SOL    HW169388   0.383  12.093   3.880
22497SOL    HW269389   0.377  12.183   4.001
22498SOL     OW69390   4.852   6.709  12.999
22498SOL    HW169391   4.875   6.635  12.943
22498SOL    HW269392   4.768   6.739  12.964
22499SOL     OW69393   3.802   4.893   9.034
22499SOL    HW169394   3.833   4.982   9.053
22499SOL    HW269395   3.807   4.886   8.938
22500SOL     OW69396   3.293   5.188  14.813
22500SOL    HW169397   3.256   5.180   0.021
22500SOL    HW269398   3.317   5.098  14.789
22501SOL     OW69399  13.996   4.729   5.824
22501SOL    HW169400  14.003   4.697   5.735
22501SOL    HW269401  14.075   4.781   5.838
22502SOL     OW69402   9.901   6.832   8.272
22502SOL    HW169403   9.948   6.783   8.204
22502SOL    HW269404   9.836   6.770   8.305
22503SOL     OW69405   8.809  10.461   2.441
22503SOL    HW169406   8.790  10.553   2.426
22503SOL    HW269407   8.755  10.414   2.377
22504SOL     OW69408  10.042  13.076  14.258
22504SOL    HW169409  10.118  13.091  14.201
22504SOL    HW269410   9.981  13.146  14.236
22505SOL     OW69411  12.902  14.489  11.300
22505SOL    HW169412  12.929  14.403  11.333
22505SOL    HW269413  12.875  14.473  11.210
22506SOL     OW69414   8.608   8.575   3.296
22506SOL    HW169415   8.647   8.502   3.249
22506SOL    HW269416   8.680   8.610   3.349
22507SOL     OW69417   8.081   1.922   9.878
22507SOL    HW169418   8.065   1.834   9.913
22507SOL    HW269419   8.072   1.912   9.783
22508SOL     OW69420   6.027  13.379   6.673
22508SOL    HW169421   5.944  13.355   6.631
22508SOL    HW269422   6.095  13.346   6.613
22509SOL     OW69423   3.976   7.560   6.550
22509SOL    HW169424   3.921   7.637   6.563
22509SOL    HW269425   4.062   7.585   6.582
22510SOL     OW69426  10.850   3.405  13.789
22510SOL    HW169427  10.841   3.323  13.741
22510SOL    HW269428  10.809   3.387  13.874
22511SOL     OW69429   1.833  10.989   4.742
22511SOL    HW169430   1.909  11.007   4.688
22511SOL    HW269431   1.764  10.965   4.679
22512SOL     OW69432   2.868  13.768   9.070
22512SOL    HW169433   2.838  13.800   9.155
22512SOL    HW269434   2.788  13.759   9.018
22513SOL     OW69435  11.665  10.619   5.730
22513SOL    HW169436  11.660  10.640   5.637
22513SOL    HW269437  11.662  10.704   5.774
22514SOL     OW69438   8.646   8.294   2.185
22514SOL    HW169439   8.604   8.222   2.138
22514SOL    HW269440   8.693   8.251   2.256
22515SOL     OW69441   3.525  13.010  13.457
22515SOL    HW169442   3.498  13.001  13.548
22515SOL    HW269443   3.593  13.077  13.459
22516SOL     OW69444   5.073   2.673   5.243
22516SOL    HW169445   5.096   2.607   5.309
22516SOL    HW269446   5.103   2.756   5.281
22517SOL     OW69447   7.136  13.218   8.416
22517SOL    HW169448   7.110  13.197   8.506
22517SOL    HW269449   7.230  13.197   8.414
22518SOL     OW69450  12.471  14.402  14.796
22518SOL    HW169451  12.550  14.356  14.766
22518SOL    HW269452  12.428  14.340  14.855
22519SOL     OW69453   3.452   4.383  11.517
22519SOL    HW169454   3.509   4.443  11.565
22519SOL    HW269455   3.511   4.320  11.477
22520SOL     OW69456  14.753   3.764   1.608
22520SOL    HW169457  14.791   3.787   1.692
22520SOL    HW269458  14.812   3.802   1.543
22521SOL     OW69459   2.998   5.597   0.717
22521SOL    HW169460   2.935   5.545   0.767
22521SOL    HW269461   2.947   5.631   0.643
22522SOL     OW69462   3.532   0.842   2.736
22522SOL    HW169463   3.568   0.762   2.774
22522SOL    HW269464   3.443   0.848   2.770
22523SOL     OW69465   6.122   4.812  14.610
22523SOL    HW169466   6.156   4.900  14.592
22523SOL    HW269467   6.028   4.818  14.591
22524SOL     OW69468  11.417   0.928  10.695
22524SOL    HW169469  11.391   0.844  10.733
22524SOL    HW269470  11.394   0.992  10.762
22525SOL     OW69471   9.083   9.476   3.399
22525SOL    HW169472   9.042   9.520   3.473
22525SOL    HW269473   9.160   9.433   3.436
22526SOL     OW69474   8.494   2.277  11.044
22526SOL    HW169475   8.574   2.327  11.028
22526SOL    HW269476   8.487   2.272  11.139
22527SOL     OW69477   1.078   9.397  10.987
22527SOL    HW169478   0.992   9.384  10.947
22527SOL    HW269479   1.138   9.346  10.934
22528SOL     OW69480   9.698  11.171   3.565
22528SOL    HW169481   9.631  11.109   3.593
22528SOL    HW269482   9.769  11.117   3.530
22529SOL     OW69483   2.772  10.079   4.660
22529SOL    HW169484   2.822  10.158   4.641
22529SOL    HW269485   2.702  10.108   4.719
22530SOL     OW69486  14.421   5.920   3.864
22530SOL    HW169487  14.491   5.857   3.845
22530SOL    HW269488  14.344   5.883   3.821
22531SOL     OW69489   6.650   9.717  12.697
22531SOL    HW169490   6.605   9.638  12.725
22531SOL    HW269491   6.690   9.751  12.778
22532SOL     OW69492   7.111  14.712   4.972
22532SOL    HW169493   7.104  14.791   4.917
22532SOL    HW269494   7.089  14.640   4.913
22533SOL     OW69495   8.226   2.093   0.953
22533SOL    HW169496   8.148   2.147   0.944
22533SOL    HW269497   8.286   2.125   0.884
22534SOL     OW69498   3.847   9.925   8.598
22534SOL    HW169499   3.943   9.926   8.594
22534SOL    HW269500   3.819   9.946   8.509
22535SOL     OW69501   0.787   7.865   9.460
22535SOL    HW169502   0.816   7.799   9.523
22535SOL    HW269503   0.833   7.843   9.379
22536SOL     OW69504   6.159   7.027  10.893
22536SOL    HW169505   6.091   7.095  10.890
22536SOL    HW269506   6.162   6.992  10.804
22537SOL     OW69507   7.310   6.759  11.294
22537SOL    HW169508   7.255   6.789  11.367
22537SOL    HW269509   7.248   6.734  11.226
22538SOL     OW69510   1.664   8.173   1.200
22538SOL    HW169511   1.743   8.199   1.246
22538SOL    HW269512   1.604   8.146   1.269
22539SOL     OW69513  10.756  10.290  12.475
22539SOL    HW169514  10.825  10.286  12.541
22539SOL    HW269515  10.751  10.201  12.440
22540SOL     OW69516   3.363  14.163  13.332
22540SOL    HW169517   3.303  14.092  13.356
22540SOL    HW269518   3.323  14.202  13.254
22541SOL     OW69519  11.506   6.670   9.974
22541SOL    HW169520  11.601   6.684   9.975
22541SOL    HW269521  11.484   6.662   9.881
22542SOL     OW69522   0.992  10.434  11.804
22542SOL    HW169523   1.051  10.487  11.857
22542SOL    HW269524   0.943  10.382  11.867
22543SOL     OW69525   4.965   0.260  13.770
22543SOL    HW169526   4.943   0.353  13.781
22543SOL    HW269527   5.037   0.245  13.831
22544SOL     OW69528   9.180   9.201   4.180
22544SOL    HW169529   9.208   9.161   4.098
22544SOL    HW269530   9.200   9.136   4.247
22545SOL     OW69531  13.565  12.223  11.398
22545SOL    HW169532  13.556  12.286  11.470
22545SOL    HW269533  13.652  12.239  11.363
22546SOL     OW69534  14.659   5.527   1.972
22546SOL    HW169535  14.663   5.585   1.896
22546SOL    HW269536  14.617   5.448   1.940
22547SOL     OW69537  12.699   4.180   1.886
22547SOL    HW169538  12.683   4.254   1.826
22547SOL    HW269539  12.692   4.102   1.831
22548SOL     OW69540  10.861   2.363  13.402
22548SOL    HW169541  10.828   2.451  13.381
22548SOL    HW269542  10.783   2.310  13.412
22549SOL     OW69543  11.443   8.262   5.586
22549SOL    HW169544  11.522   8.308   5.616
22549SOL    HW269545  11.423   8.301   5.501
22550SOL     OW69546   3.542  13.118   5.389
22550SOL    HW169547   3.501  13.032   5.387
22550SOL    HW269548   3.482  13.173   5.439
22551SOL     OW69549   5.042   1.465   0.781
22551SOL    HW169550   5.138   1.470   0.777
22551SOL    HW269551   5.018   1.533   0.844
22552SOL     OW69552   8.548  10.735   2.967
22552SOL    HW169553   8.637  10.729   3.001
22552SOL    HW269554   8.504  10.797   3.026
22553SOL     OW69555  10.795   8.820  10.449
22553SOL    HW169556  10.839   8.736  10.439
22553SOL    HW269557  10.852   8.882  10.404
22554SOL     OW69558   8.821  14.392   5.533
22554SOL    HW169559   8.729  14.411   5.515
22554SOL    HW269560   8.838  14.435   5.616
22555SOL     OW69561   5.860  12.579  12.070
22555SOL    HW169562   5.801  12.504  12.060
22555SOL    HW269563   5.927  12.550  12.131
22556SOL     OW69564   5.556  13.453   8.099
22556SOL    HW169565   5.468  13.436   8.064
22556SOL    HW269566   5.610  13.385   8.060
22557SOL     OW69567   0.952   4.380  13.362
22557SOL    HW169568   1.021   4.334  13.409
22557SOL    HW269569   0.986   4.391  13.273
22558SOL     OW69570   7.065   7.932   7.770
22558SOL    HW169571   7.149   7.951   7.728
22558SOL    HW269572   7.082   7.944   7.864
22559SOL     OW69573  13.696  11.085  13.646
22559SOL    HW169574  13.743  11.056  13.725
22559SOL    HW269575  13.729  11.028  13.576
22560SOL     OW69576  10.612   7.682   7.604
22560SOL    HW169577  10.602   7.699   7.510
22560SOL    HW269578  10.700   7.648   7.613
22561SOL     OW69579   0.860  13.463  11.227
22561SOL    HW169580   0.934  13.403  11.243
22561SOL    HW269581   0.815  13.468  11.311
22562SOL     OW69582   3.452   8.090  11.759
22562SOL    HW169583   3.503   8.146  11.818
22562SOL    HW269584   3.376   8.064  11.810
22563SOL     OW69585  14.643  11.517   7.309
22563SOL    HW169586  14.654  11.612   7.305
22563SOL    HW269587  14.696  11.484   7.236
22564SOL     OW69588   7.340   3.599  11.657
22564SOL    HW169589   7.365   3.617  11.566
22564SOL    HW269590   7.250   3.567  11.651
22565SOL     OW69591   5.725  14.877  10.282
22565SOL    HW169592   5.726   0.024  10.374
22565SOL    HW269593   5.689  14.789  10.284
22566SOL     OW69594   6.283   3.307   4.057
22566SOL    HW169595   6.258   3.384   4.005
22566SOL    HW269596   6.354   3.267   4.007
22567SOL     OW69597   1.977   3.477   0.345
22567SOL    HW169598   2.033   3.406   0.314
22567SOL    HW269599   1.966   3.460   0.439
22568SOL     OW69600  13.375   7.774   4.155
22568SOL    HW169601  13.406   7.726   4.232
22568SOL    HW269602  13.449   7.773   4.094
22569SOL     OW69603   4.784  12.319  10.745
22569SOL    HW169604   4.852  12.339  10.682
22569SOL    HW269605   4.706  12.364  10.712
22570SOL     OW69606  11.049   1.968   3.676
22570SOL    HW169607  10.992   1.895   3.652
22570SOL    HW269608  11.082   2.002   3.592
22571SOL     OW69609   9.759   9.863  10.913
22571SOL    HW169610   9.740   9.838  10.822
22571SOL    HW269611   9.839   9.914  10.908
22572SOL     OW69612   9.595   6.036  13.958
22572SOL    HW169613   9.674   6.053  13.908
22572SOL    HW269614   9.575   5.944  13.942
22573SOL     OW69615   4.949   4.884   8.981
22573SOL    HW169616   5.030   4.917   9.019
22573SOL    HW269617   4.891   4.961   8.979
22574SOL     OW69618   3.157   3.527   4.659
22574SOL    HW169619   3.188   3.474   4.732
22574SOL    HW269620   3.216   3.602   4.656
22575SOL     OW69621  13.170   1.598   1.189
22575SOL    HW169622  13.077   1.612   1.205
22575SOL    HW269623  13.213   1.621   1.271
22576SOL     OW69624   4.798   0.049  13.896
22576SOL    HW169625   4.827  14.865  13.831
22576SOL    HW269626   4.834   0.132  13.864
22577SOL     OW69627  11.962  13.528   7.774
22577SOL    HW169628  11.946  13.616   7.809
22577SOL    HW269629  12.035  13.540   7.713
22578SOL     OW69630  13.049  14.816   9.427
22578SOL    HW169631  12.986  14.879   9.392
22578SOL    HW269632  13.134  14.854   9.407
22579SOL     OW69633  11.179   3.918   8.991
22579SOL    HW169634  11.272   3.912   9.016
22579SOL    HW269635  11.177   3.985   8.923
22580SOL     OW69636   6.003   2.206   5.115
22580SOL    HW169637   5.993   2.293   5.075
22580SOL    HW269638   5.959   2.147   5.055
22581SOL     OW69639   0.163   4.588   4.057
22581SOL    HW169640   0.090   4.649   4.045
22581SOL    HW269641   0.177   4.586   4.151
22582SOL     OW69642  12.754  10.549   0.188
22582SOL    HW169643  12.759  10.622   0.127
22582SOL    HW269644  12.827  10.492   0.163
22583SOL     OW69645   9.377  10.478   8.378
22583SOL    HW169646   9.396  10.548   8.315
22583SOL    HW269647   9.316  10.517   8.440
22584SOL     OW69648   9.215   9.081  10.405
22584SOL    HW169649   9.285   9.129  10.363
22584SOL    HW269650   9.255   8.999  10.434
22585SOL     OW69651  14.062   0.734   1.465
22585SOL    HW169652  14.079   0.828   1.461
22585SOL    HW269653  13.967   0.726   1.461
22586SOL     OW69654  10.058   3.434   9.179
22586SOL    HW169655  10.138   3.486   9.179
22586SOL    HW269656  10.073   3.366   9.113
22587SOL     OW69657   7.164   8.622   7.983
22587SOL    HW169658   7.074   8.602   7.957
22587SOL    HW269659   7.177   8.712   7.956
22588SOL     OW69660   1.122   8.744   0.315
22588SOL    HW169661   1.209   8.707   0.302
22588SOL    HW269662   1.066   8.695   0.254
22589SOL     OW69663   8.954  11.752   6.193
22589SOL    HW169664   9.019  11.754   6.263
22589SOL    HW269665   8.871  11.768   6.238
22590SOL     OW69666   0.752  11.863   6.390
22590SOL    HW169667   0.731  11.776   6.423
22590SOL    HW269668   0.761  11.917   6.469
22591SOL     OW69669   7.828  13.662   7.032
22591SOL    HW169670   7.766  13.714   7.083
22591SOL    HW269671   7.792  13.573   7.034
22592SOL     OW69672   5.512   6.800  10.287
22592SOL    HW169673   5.563   6.721  10.267
22592SOL    HW269674   5.503   6.799  10.382
22593SOL     OW69675   9.002   1.902  10.299
22593SOL    HW169676   9.024   1.946  10.217
22593SOL    HW269677   9.065   1.936  10.362
22594SOL     OW69678   2.805   8.327  12.456
22594SOL    HW169679   2.896   8.311  12.480
22594SOL    HW269680   2.773   8.388  12.522
22595SOL     OW69681   9.453   3.509   1.539
22595SOL    HW169682   9.512   3.434   1.543
22595SOL    HW269683   9.503   3.581   1.578
22596SOL     OW69684   2.106   4.797   2.198
22596SOL    HW169685   2.062   4.845   2.268
22596SOL    HW269686   2.091   4.705   2.219
22597SOL     OW69687  10.119   5.394   3.231
22597SOL    HW169688  10.201   5.344   3.236
22597SOL    HW269689  10.094   5.391   3.139
22598SOL     OW69690   8.166  14.474  12.397
22598SOL    HW169691   8.195  14.414  12.327
22598SOL    HW269692   8.071  14.473  12.391
22599SOL     OW69693   7.548  13.721   0.664
22599SOL    HW169694   7.506  13.806   0.680
22599SOL    HW269695   7.588  13.698   0.748
22600SOL     OW69696   5.162   0.755  12.845
22600SOL    HW169697   5.125   0.760  12.757
22600SOL    HW269698   5.122   0.678  12.884
22601SOL     OW69699  10.146  10.394   1.575
22601SOL    HW169700  10.079  10.455   1.606
22601SOL    HW269701  10.226  10.446   1.571
22602SOL     OW69702   0.099  13.623   5.920
22602SOL    HW169703   0.187  13.588   5.911
22602SOL    HW269704   0.110  13.707   5.964
22603SOL     OW69705   3.282  14.769   9.989
22603SOL    HW169706   3.212  14.806   9.934
22603SOL    HW269707   3.358  14.765   9.931
22604SOL     OW69708  11.854   5.994   3.677
22604SOL    HW169709  11.880   6.058   3.610
22604SOL    HW269710  11.915   6.009   3.749
22605SOL     OW69711   0.116  14.344   1.932
22605SOL    HW169712   0.148  14.363   1.844
22605SOL    HW269713   0.138  14.422   1.983
22606SOL     OW69714   1.821  12.104   3.242
22606SOL    HW169715   1.754  12.090   3.174
22606SOL    HW269716   1.866  12.184   3.215
22607SOL     OW69717   4.785   3.211   9.093
22607SOL    HW169718   4.784   3.307   9.100
22607SOL    HW269719   4.854   3.193   9.030
22608SOL     OW69720   0.236   9.096   1.684
22608SOL    HW169721   0.175   9.134   1.747
22608SOL    HW269722   0.322   9.126   1.714
22609SOL     OW69723  14.327   1.619   0.549
22609SOL    HW169724  14.398   1.554   0.554
22609SOL    HW269725  14.252   1.570   0.516
22610SOL     OW69726   8.842   2.009   7.795
22610SOL    HW169727   8.847   2.003   7.700
22610SOL    HW269728   8.908   2.075   7.818
22611SOL     OW69729  11.237  11.565   8.738
22611SOL    HW169730  11.210  11.502   8.805
22611SOL    HW269731  11.172  11.555   8.668
22612SOL     OW69732   5.328   9.258   9.362
22612SOL    HW169733   5.417   9.275   9.332
22612SOL    HW269734   5.323   9.162   9.369
22613SOL     OW69735   4.916   2.276   9.405
22613SOL    HW169736   4.950   2.186   9.401
22613SOL    HW269737   4.935   2.304   9.494
22614SOL     OW69738   0.403  12.680   3.557
22614SOL    HW169739   0.397  12.648   3.647
22614SOL    HW269740   0.379  12.772   3.562
22615SOL     OW69741   7.652   4.015  12.334
22615SOL    HW169742   7.590   3.958  12.288
22615SOL    HW269743   7.719   4.034  12.268
22616SOL     OW69744  11.922   3.375   6.081
22616SOL    HW169745  12.016   3.393   6.077
22616SOL    HW269746  11.903   3.368   6.175
22617SOL     OW69747   5.897  14.098   9.993
22617SOL    HW169748   5.957  14.025   9.978
22617SOL    HW269749   5.915  14.126  10.083
22618SOL     OW69750   3.797   1.325  13.419
22618SOL    HW169751   3.730   1.313  13.351
22618SOL    HW269752   3.828   1.236  13.437
22619SOL     OW69753  11.556  11.945   1.973
22619SOL    HW169754  11.554  11.849   1.978
22619SOL    HW269755  11.622  11.964   1.906
22620SOL     OW69756  13.191   0.144  13.824
22620SOL    HW169757  13.269   0.189  13.858
22620SOL    HW269758  13.220   0.054  13.809
22621SOL     OW69759   9.856   9.355   0.944
22621SOL    HW169760   9.784   9.333   1.003
22621SOL    HW269761   9.878   9.272   0.901
22622SOL     OW69762   1.927  13.239   9.166
22622SOL    HW169763   1.910  13.226   9.259
22622SOL    HW269764   1.956  13.330   9.159
22623SOL     OW69765   4.971   8.295   1.485
22623SOL    HW169766   4.939   8.384   1.470
22623SOL    HW269767   5.053   8.307   1.532
22624SOL     OW69768   3.196   4.205   4.671
22624SOL    HW169769   3.286   4.236   4.667
22624SOL    HW269770   3.185   4.174   4.761
22625SOL     OW69771  12.093  13.433   0.200
22625SOL    HW169772  11.998  13.436   0.206
22625SOL    HW269773  12.113  13.465   0.112
22626SOL     OW69774   5.998  14.368   1.032
22626SOL    HW169775   6.054  14.423   1.087
22626SOL    HW269776   6.000  14.410   0.946
22627SOL     OW69777  10.053  10.073   8.370
22627SOL    HW169778   9.963  10.103   8.387
22627SOL    HW269779  10.047  10.025   8.288
22628SOL     OW69780   7.623   2.733   5.500
22628SOL    HW169781   7.605   2.690   5.416
22628SOL    HW269782   7.547   2.713   5.554
22629SOL     OW69783   4.941   0.713   8.269
22629SOL    HW169784   4.916   0.776   8.336
22629SOL    HW269785   5.033   0.734   8.250
22630SOL     OW69786   4.610  11.759   7.491
22630SOL    HW169787   4.522  11.778   7.523
22630SOL    HW269788   4.611  11.791   7.401
22631SOL     OW69789   3.031   4.638   1.171
22631SOL    HW169790   3.016   4.643   1.266
22631SOL    HW269791   2.945   4.649   1.132
22632SOL     OW69792   6.778  14.734   1.798
22632SOL    HW169793   6.864  14.696   1.814
22632SOL    HW269794   6.717  14.673   1.840
22633SOL     OW69795   7.027   8.939   8.171
22633SOL    HW169796   6.955   9.001   8.176
22633SOL    HW269797   7.083   8.971   8.100
22634SOL     OW69798  12.619   8.574   9.296
22634SOL    HW169799  12.603   8.646   9.235
22634SOL    HW269800  12.633   8.498   9.240
22635SOL     OW69801   5.650   2.838   1.782
22635SOL    HW169802   5.721   2.884   1.737
22635SOL    HW269803   5.682   2.826   1.871
22636SOL     OW69804  12.701   3.612   8.347
22636SOL    HW169805  12.639   3.672   8.389
22636SOL    HW269806  12.649   3.534   8.327
22637SOL     OW69807   3.354   8.948  10.337
22637SOL    HW169808   3.345   8.903  10.421
22637SOL    HW269809   3.411   8.890  10.285
22638SOL     OW69810   7.236  10.467   0.956
22638SOL    HW169811   7.265  10.383   0.921
22638SOL    HW269812   7.316  10.519   0.966
22639SOL     OW69813  10.160   7.474  12.735
22639SOL    HW169814  10.194   7.490  12.647
22639SOL    HW269815  10.069   7.504  12.732
22640SOL     OW69816   9.323   6.411   0.969
22640SOL    HW169817   9.351   6.355   1.042
22640SOL    HW269818   9.331   6.355   0.892
22641SOL     OW69819  12.707  14.706   7.257
22641SOL    HW169820  12.715  14.663   7.172
22641SOL    HW269821  12.698  14.634   7.320
22642SOL     OW69822   5.550   5.632  14.779
22642SOL    HW169823   5.539   5.727  14.767
22642SOL    HW269824   5.597   5.603  14.701
22643SOL     OW69825  13.112  13.968   9.213
22643SOL    HW169826  13.085  14.029   9.145
22643SOL    HW269827  13.069  14.001   9.292
22644SOL     OW69828   3.846   7.853   2.992
22644SOL    HW169829   3.906   7.844   2.918
22644SOL    HW269830   3.823   7.946   2.993
22645SOL     OW69831   9.666  12.979   4.927
22645SOL    HW169832   9.716  12.898   4.935
22645SOL    HW269833   9.707  13.039   4.989
22646SOL     OW69834   7.376   8.442   4.441
22646SOL    HW169835   7.387   8.533   4.413
22646SOL    HW269836   7.358   8.448   4.535
22647SOL     OW69837   8.245   5.210   5.520
22647SOL    HW169838   8.340   5.205   5.530
22647SOL    HW269839   8.223   5.299   5.546
22648SOL     OW69840   9.367  13.548   1.952
22648SOL    HW169841   9.315  13.494   2.012
22648SOL    HW269842   9.400  13.619   2.007
22649SOL     OW69843   7.323  10.236   9.993
22649SOL    HW169844   7.341  10.219  10.086
22649SOL    HW269845   7.306  10.150   9.956
22650SOL     OW69846  11.820  13.318   7.866
22650SOL    HW169847  11.838  13.252   7.799
22650SOL    HW269848  11.876  13.392   7.843
22651SOL     OW69849   1.137   2.283   6.759
22651SOL    HW169850   1.231   2.301   6.754
22651SOL    HW269851   1.106   2.346   6.825
22652SOL     OW69852   9.813   7.727   5.693
22652SOL    HW169853   9.775   7.652   5.738
22652SOL    HW269854   9.801   7.708   5.600
22653SOL     OW69855   5.469   2.207   4.814
22653SOL    HW169856   5.528   2.280   4.797
22653SOL    HW269857   5.495   2.140   4.750
22654SOL     OW69858   4.022   0.252  11.995
22654SOL    HW169859   4.026   0.346  11.975
22654SOL    HW269860   3.945   0.221  11.947
22655SOL     OW69861   1.157   1.916   1.777
22655SOL    HW169862   1.234   1.919   1.722
22655SOL    HW269863   1.160   1.997   1.828
22656SOL     OW69864   7.469   9.151   6.818
22656SOL    HW169865   7.412   9.171   6.744
22656SOL    HW269866   7.473   9.232   6.869
22657SOL     OW69867   6.278   3.886   9.975
22657SOL    HW169868   6.238   3.931   9.901
22657SOL    HW269869   6.238   3.925  10.052
22658SOL     OW69870   0.949   3.834   9.573
22658SOL    HW169871   0.884   3.901   9.592
22658SOL    HW269872   1.031   3.869   9.608
22659SOL     OW69873   5.893   8.511  11.462
22659SOL    HW169874   5.900   8.416  11.471
22659SOL    HW269875   5.983   8.543  11.471
22660SOL     OW69876   3.751   2.851  14.548
22660SOL    HW169877   3.774   2.924  14.606
22660SOL    HW269878   3.779   2.880  14.461
22661SOL     OW69879   2.493   7.511   8.028
22661SOL    HW169880   2.575   7.512   7.978
22661SOL    HW269881   2.443   7.585   7.994
22662SOL     OW69882   3.656  11.304  13.348
22662SOL    HW169883   3.630  11.390  13.381
22662SOL    HW269884   3.650  11.246  13.424
22663SOL     OW69885  14.550  12.138   8.831
22663SOL    HW169886  14.512  12.050   8.828
22663SOL    HW269887  14.618  12.137   8.765
22664SOL     OW69888   7.664   7.328  13.325
22664SOL    HW169889   7.586   7.274  13.318
22664SOL    HW269890   7.723   7.277  13.381
22665SOL     OW69891   5.620   2.442  11.541
22665SOL    HW169892   5.539   2.412  11.583
22665SOL    HW269893   5.592   2.514  11.485
22666SOL     OW69894   6.992   2.035  12.888
22666SOL    HW169895   7.061   2.095  12.916
22666SOL    HW269896   6.912   2.070  12.929
22667SOL     OW69897  10.211  14.379   4.507
22667SOL    HW169898  10.298  14.339   4.502
22667SOL    HW269899  10.209  14.441   4.434
22668SOL     OW69900  11.639   4.959   3.201
22668SOL    HW169901  11.706   5.000   3.257
22668SOL    HW269902  11.589   5.032   3.166
22669SOL     OW69903   9.176   9.864  14.311
22669SOL    HW169904   9.177   9.808  14.389
22669SOL    HW269905   9.230   9.818  14.247
22670SOL     OW69906   9.624  14.491  11.295
22670SOL    HW169907   9.543  14.442  11.278
22670SOL    HW269908   9.694  14.429  11.277
22671SOL     OW69909   8.152   5.481   1.433
22671SOL    HW169910   8.115   5.394   1.447
22671SOL    HW269911   8.139   5.526   1.517
22672SOL     OW69912  12.375   2.714  11.570
22672SOL    HW169913  12.390   2.647  11.503
22672SOL    HW269914  12.416   2.680  11.649
22673SOL     OW69915  10.687   6.498  10.538
22673SOL    HW169916  10.731   6.414  10.552
22673SOL    HW269917  10.758   6.561  10.531
22674SOL     OW69918  11.409   7.607   3.183
22674SOL    HW169919  11.407   7.527   3.129
22674SOL    HW269920  11.473   7.588   3.251
22675SOL     OW69921   0.558   6.115   5.511
22675SOL    HW169922   0.569   6.159   5.595
22675SOL    HW269923   0.648   6.099   5.481
22676SOL     OW69924   8.960  10.817   9.286
22676SOL    HW169925   8.980  10.810   9.379
22676SOL    HW269926   8.910  10.898   9.278
22677SOL     OW69927   9.617   9.024  14.109
22677SOL    HW169928   9.521   9.033  14.110
22677SOL    HW269929   9.648   9.104  14.067
22678SOL     OW69930  10.526   4.338  11.276
22678SOL    HW169931  10.595   4.396  11.309
22678SOL    HW269932  10.560   4.306  11.192
22679SOL     OW69933   4.073   9.650   4.101
22679SOL    HW169934   4.084   9.568   4.149
22679SOL    HW269935   4.090   9.626   4.010
22680SOL     OW69936   8.325   3.268  13.922
22680SOL    HW169937   8.361   3.244  13.837
22680SOL    HW269938   8.401   3.269  13.980
22681SOL     OW69939   2.989  11.686  14.698
22681SOL    HW169940   2.998  11.780  14.715
22681SOL    HW269941   3.069  11.647  14.733
22682SOL     OW69942  12.125   1.675   0.208
22682SOL    HW169943  12.103   1.710   0.295
22682SOL    HW269944  12.108   1.747   0.148
22683SOL     OW69945   3.148   9.141   5.602
22683SOL    HW169946   3.163   9.234   5.583
22683SOL    HW269947   3.180   9.095   5.525
22684SOL     OW69948   8.049  10.281   4.839
22684SOL    HW169949   8.116  10.326   4.890
22684SOL    HW269950   8.075  10.296   4.748
22685SOL     OW69951   4.986   3.873  10.140
22685SOL    HW169952   4.895   3.881  10.170
22685SOL    HW269953   5.037   3.862  10.220
22686SOL     OW69954   7.597   7.312   4.910
22686SOL    HW169955   7.577   7.229   4.954
22686SOL    HW269956   7.521   7.329   4.855
22687SOL     OW69957   5.581   2.842   5.647
22687SOL    HW169958   5.664   2.804   5.618
22687SOL    HW269959   5.550   2.890   5.570
22688SOL     OW69960   1.100  12.858   6.370
22688SOL    HW169961   1.133  12.948   6.375
22688SOL    HW269962   1.152  12.809   6.433
22689SOL     OW69963   5.635   8.690   5.527
22689SOL    HW169964   5.548   8.671   5.492
22689SOL    HW269965   5.630   8.664   5.618
22690SOL     OW69966  11.842   3.835   9.069
22690SOL    HW169967  11.918   3.841   9.127
22690SOL    HW269968  11.818   3.927   9.052
22691SOL     OW69969   7.797   6.223   1.652
22691SOL    HW169970   7.751   6.213   1.735
22691SOL    HW269971   7.750   6.166   1.591
22692SOL     OW69972   8.156   0.456   4.878
22692SOL    HW169973   8.237   0.494   4.846
22692SOL    HW269974   8.149   0.372   4.833
22693SOL     OW69975   7.928   2.350  14.362
22693SOL    HW169976   7.919   2.386  14.273
22693SOL    HW269977   8.008   2.391  14.396
22694SOL     OW69978   1.001  12.066  12.445
22694SOL    HW169979   0.949  12.110  12.513
22694SOL    HW269980   1.036  11.988  12.488
22695SOL     OW69981   7.047   2.143   5.458
22695SOL    HW169982   6.998   2.060   5.460
22695SOL    HW269983   7.136   2.119   5.483
22696SOL     OW69984  13.879   8.019   1.852
22696SOL    HW169985  13.957   8.070   1.828
22696SOL    HW269986  13.911   7.955   1.916
22697SOL     OW69987  13.287   3.811   5.338
22697SOL    HW169988  13.344   3.864   5.281
22697SOL    HW269989  13.216   3.870   5.362
22698SOL     OW69990  10.366  11.038   0.912
22698SOL    HW169991  10.345  10.945   0.917
22698SOL    HW269992  10.317  11.070   0.836
22699SOL     OW69993   8.938   6.936   6.815
22699SOL    HW169994   8.850   6.898   6.811
22699SOL    HW269995   8.996   6.862   6.829
22700SOL     OW69996   3.891   6.382   0.704
22700SOL    HW169997   3.874   6.392   0.798
22700SOL    HW269998   3.816   6.422   0.661
22701SOL     OW69999   6.779  13.252   8.352
22701SOL    HW170000   6.766  13.204   8.270
22701SOL    HW270001   6.782  13.344   8.325
22702SOL     OW70002   6.468   2.987  11.900
22702SOL    HW170003   6.513   2.925  11.842
22702SOL    HW270004   6.533   3.009  11.967
22703SOL     OW70005  11.161   3.685   3.381
22703SOL    HW170006  11.086   3.680   3.321
22703SOL    HW270007  11.161   3.775   3.412
22704SOL     OW70008   5.919  11.772  11.290
22704SOL    HW170009   5.917  11.715  11.214
22704SOL    HW270010   5.858  11.843  11.269
22705SOL     OW70011   3.900   8.179   3.549
22705SOL    HW170012   3.947   8.230   3.484
22705SOL    HW270013   3.836   8.128   3.498
22706SOL     OW70014   2.605   0.603   5.658
22706SOL    HW170015   2.515   0.570   5.658
22706SOL    HW270016   2.609   0.664   5.731
22707SOL     OW70017   1.143  14.613  12.686
22707SOL    HW170018   1.194  14.619  12.767
22707SOL    HW270019   1.153  14.522  12.658
22708SOL     OW70020   8.653   2.941   5.293
22708SOL    HW170021   8.737   2.952   5.248
22708SOL    HW270022   8.672   2.963   5.384
22709SOL     OW70023   5.447   6.699   1.568
22709SOL    HW170024   5.493   6.737   1.493
22709SOL    HW270025   5.459   6.604   1.558
22710SOL     OW70026   2.924   4.020   4.347
22710SOL    HW170027   2.886   3.941   4.385
22710SOL    HW270028   2.849   4.067   4.309
22711SOL     OW70029   4.156  14.048   2.232
22711SOL    HW170030   4.201  14.084   2.155
22711SOL    HW270031   4.221  14.055   2.302
22712SOL     OW70032   1.510   2.696   0.866
22712SOL    HW170033   1.475   2.759   0.803
22712SOL    HW270034   1.433   2.655   0.905
22713SOL     OW70035  13.110   1.433   4.078
22713SOL    HW170036  13.112   1.366   4.146
22713SOL    HW270037  13.198   1.431   4.039
22714SOL     OW70038   8.136   5.148   4.744
22714SOL    HW170039   8.077   5.089   4.791
22714SOL    HW270040   8.196   5.181   4.810
22715SOL     OW70041   3.014  11.351   5.315
22715SOL    HW170042   2.966  11.410   5.374
22715SOL    HW270043   2.967  11.268   5.320
22716SOL     OW70044   5.964   9.452  12.171
22716SOL    HW170045   5.934   9.382  12.229
22716SOL    HW270046   6.056   9.465  12.193
22717SOL     OW70047   5.161   2.232  12.971
22717SOL    HW170048   5.075   2.218  13.010
22717SOL    HW270049   5.157   2.320  12.934
22718SOL     OW70050   3.797   3.245   9.061
22718SOL    HW170051   3.716   3.221   9.015
22718SOL    HW270052   3.865   3.191   9.020
22719SOL     OW70053  14.370  11.646  10.849
22719SOL    HW170054  14.384  11.557  10.881
22719SOL    HW270055  14.283  11.644  10.811
22720SOL     OW70056   3.430   1.196  14.527
22720SOL    HW170057   3.371   1.178  14.601
22720SOL    HW270058   3.506   1.238  14.566
22721SOL     OW70059   3.282   2.130   4.186
22721SOL    HW170060   3.329   2.100   4.108
22721SOL    HW270061   3.202   2.169   4.151
22722SOL     OW70062   9.553  14.188   2.472
22722SOL    HW170063   9.460  14.170   2.458
22722SOL    HW270064   9.580  14.125   2.538
22723SOL     OW70065   6.582   1.835  14.444
22723SOL    HW170066   6.595   1.783  14.524
22723SOL    HW270067   6.612   1.923  14.468
22724SOL     OW70068  10.552  13.184  10.190
22724SOL    HW170069  10.587  13.154  10.274
22724SOL    HW270070  10.459  13.198  10.206
22725SOL     OW70071   0.873   1.612   1.410
22725SOL    HW170072   0.941   1.652   1.356
22725SOL    HW270073   0.794   1.612   1.355
22726SOL     OW70074  13.817   9.487  10.935
22726SOL    HW170075  13.728   9.478  10.970
22726SOL    HW270076  13.873   9.453  11.005
22727SOL     OW70077  13.103  10.829   1.830
22727SOL    HW170078  13.153  10.798   1.754
22727SOL    HW270079  13.139  10.778   1.904
22728SOL     OW70080  10.717   5.185   5.965
22728SOL    HW170081  10.774   5.248   5.921
22728SOL    HW270082  10.656   5.239   6.015
22729SOL     OW70083   4.565   5.052   8.417
22729SOL    HW170084   4.634   5.004   8.463
22729SOL    HW270085   4.579   5.143   8.440
22730SOL     OW70086   8.798   0.412   5.581
22730SOL    HW170087   8.762   0.501   5.576
22730SOL    HW270088   8.887   0.421   5.546
22731SOL     OW70089  13.733   7.735  12.676
22731SOL    HW170090  13.693   7.801  12.620
22731SOL    HW270091  13.826   7.739  12.656
22732SOL     OW70092   0.002  11.665   0.624
22732SOL    HW170093  14.814  11.730   0.606
22732SOL    HW270094  14.845  11.583   0.594
22733SOL     OW70095  14.713  14.826  14.713
22733SOL    HW170096  14.664  14.862  14.639
22733SOL    HW270097  14.804  14.851  14.695
22734SOL     OW70098  11.555  13.625   7.246
22734SOL    HW170099  11.523  13.571   7.319
22734SOL    HW270100  11.607  13.565   7.193
22735SOL     OW70101   9.945  10.656   6.223
22735SOL    HW170102  10.007  10.627   6.291
22735SOL    HW270103  10.000  10.666   6.144
22736SOL     OW70104   5.770   5.103   3.326
22736SOL    HW170105   5.781   5.117   3.232
22736SOL    HW270106   5.702   5.036   3.333
22737SOL     OW70107  12.396   0.267   9.773
22737SOL    HW170108  12.416   0.359   9.790
22737SOL    HW270109  12.302   0.266   9.757
22738SOL     OW70110   9.165   5.558   5.450
22738SOL    HW170111   9.178   5.560   5.355
22738SOL    HW270112   9.251   5.532   5.485
22739SOL     OW70113   3.396   7.436   5.450
22739SOL    HW170114   3.491   7.427   5.438
22739SOL    HW270115   3.367   7.488   5.375
22740SOL     OW70116   9.743   7.920   3.265
22740SOL    HW170117   9.711   7.972   3.192
22740SOL    HW270118   9.770   7.837   3.225
22741SOL     OW70119   4.903  11.875   4.884
22741SOL    HW170120   4.997  11.870   4.901
22741SOL    HW270121   4.886  11.967   4.865
22742SOL     OW70122  13.776   8.275   2.184
22742SOL    HW170123  13.810   8.318   2.106
22742SOL    HW270124  13.681   8.286   2.177
22743SOL     OW70125   3.845   8.243   8.616
22743SOL    HW170126   3.896   8.291   8.682
22743SOL    HW270127   3.907   8.227   8.545
22744SOL     OW70128   0.552   6.628   4.003
22744SOL    HW170129   0.500   6.551   3.981
22744SOL    HW270130   0.576   6.615   4.095
22745SOL     OW70131   3.873  10.196   4.702
22745SOL    HW170132   3.949  10.237   4.744
22745SOL    HW270133   3.803  10.202   4.767
22746SOL     OW70134   1.988  10.998   0.656
22746SOL    HW170135   2.020  11.053   0.727
22746SOL    HW270136   2.010  11.045   0.576
22747SOL     OW70137   9.391   7.027   7.370
22747SOL    HW170138   9.306   6.984   7.358
22747SOL    HW270139   9.380   7.082   7.448
22748SOL     OW70140   8.172   7.827   1.220
22748SOL    HW170141   8.199   7.738   1.199
22748SOL    HW270142   8.105   7.817   1.288
22749SOL     OW70143   2.591  11.930   2.314
22749SOL    HW170144   2.495  11.926   2.320
22749SOL    HW270145   2.620  11.930   2.405
22750SOL     OW70146  12.264  13.510  10.178
22750SOL    HW170147  12.346  13.529  10.223
22750SOL    HW270148  12.263  13.571  10.104
22751SOL     OW70149   5.113   0.141  13.443
22751SOL    HW170150   5.203   0.142  13.410
22751SOL    HW270151   5.094   0.232  13.466
22752SOL     OW70152  14.804   8.000   3.447
22752SOL    HW170153  14.745   7.981   3.374
22752SOL    HW270154   0.012   7.990   3.410
22753SOL     OW70155   8.411   7.638   0.168
22753SOL    HW170156   8.438   7.546   0.179
22753SOL    HW270157   8.400   7.648   0.074
22754SOL     OW70158  10.349   1.443   1.758
22754SOL    HW170159  10.400   1.438   1.677
22754SOL    HW270160  10.312   1.531   1.757
22755SOL     OW70161   6.048   4.876   0.888
22755SOL    HW170162   6.077   4.917   0.807
22755SOL    HW270163   5.999   4.799   0.860
22756SOL     OW70164  11.347   7.694  12.191
22756SOL    HW170165  11.368   7.674  12.100
22756SOL    HW270166  11.258   7.659  12.203
22757SOL     OW70167  12.672  10.328  10.371
22757SOL    HW170168  12.605  10.336  10.302
22757SOL    HW270169  12.627  10.280  10.441
22758SOL     OW70170   6.727  13.369   6.200
22758SOL    HW170171   6.718  13.282   6.162
22758SOL    HW270172   6.819  13.375   6.224
22759SOL     OW70173   2.077  11.765  11.445
22759SOL    HW170174   2.041  11.690  11.398
22759SOL    HW270175   2.058  11.748  11.537
22760SOL     OW70176   0.019  10.267   1.974
22760SOL    HW170177   0.049  10.285   1.885
22760SOL    HW270178   0.045  10.176   1.990
22761SOL     OW70179   3.288  13.512   3.892
22761SOL    HW170180   3.303  13.450   3.821
22761SOL    HW270181   3.316  13.465   3.971
22762SOL     OW70182   3.132  13.522  12.246
22762SOL    HW170183   3.192  13.477  12.306
22762SOL    HW270184   3.063  13.556  12.302
22763SOL     OW70185   2.369  13.135  13.447
22763SOL    HW170186   2.455  13.147  13.486
22763SOL    HW270187   2.356  13.213  13.393
22764SOL     OW70188  14.325   5.731   4.237
22764SOL    HW170189  14.303   5.663   4.173
22764SOL    HW270190  14.417   5.715   4.258
22765SOL     OW70191   8.827   3.871   5.551
22765SOL    HW170192   8.821   3.925   5.630
22765SOL    HW270193   8.901   3.908   5.502
22766SOL     OW70194   3.783  13.483   3.417
22766SOL    HW170195   3.862  13.510   3.464
22766SOL    HW270196   3.727  13.561   3.416
22767SOL     OW70197   4.733   1.518   1.177
22767SOL    HW170198   4.785   1.576   1.232
22767SOL    HW270199   4.780   1.435   1.178
22768SOL     OW70200  12.701   2.456   0.946
22768SOL    HW170201  12.621   2.406   0.962
22768SOL    HW270202  12.712   2.453   0.851
22769SOL     OW70203   3.219   9.792  11.955
22769SOL    HW170204   3.254   9.703  11.944
22769SOL    HW270205   3.182   9.792  12.043
22770SOL     OW70206  12.216   8.812   4.915
22770SOL    HW170207  12.200   8.734   4.863
22770SOL    HW270208  12.159   8.803   4.991
22771SOL     OW70209  11.370  12.515   2.319
22771SOL    HW170210  11.408  12.603   2.323
22771SOL    HW270211  11.427  12.468   2.259
22772SOL     OW70212   6.609   8.247   7.447
22772SOL    HW170213   6.615   8.341   7.465
22772SOL    HW270214   6.603   8.207   7.534
22773SOL     OW70215  11.123   2.580  13.826
22773SOL    HW170216  11.137   2.529  13.746
22773SOL    HW270217  11.150   2.669  13.803
22774SOL     OW70218   0.711   2.134  10.112
22774SOL    HW170219   0.806   2.141  10.103
22774SOL    HW270220   0.683   2.221  10.141
22775SOL     OW70221   0.106  11.237   1.604
22775SOL    HW170222   0.161  11.159   1.595
22775SOL    HW270223   0.023  11.213   1.562
22776SOL     OW70224   9.002  14.619   9.086
22776SOL    HW170225   9.095  14.596   9.094
22776SOL    HW270226   8.967  14.553   9.026
22777SOL     OW70227  12.716   0.732   1.800
22777SOL    HW170228  12.682   0.816   1.830
22777SOL    HW270229  12.759   0.695   1.877
22778SOL     OW70230   5.795  14.879  12.065
22778SOL    HW170231   5.838   0.083  12.075
22778SOL    HW270232   5.853  14.830  12.005
22779SOL     OW70233   5.354   8.160  10.117
22779SOL    HW170234   5.268   8.187  10.148
22779SOL    HW270235   5.404   8.142  10.196
22780SOL     OW70236   8.874   8.711   7.752
22780SOL    HW170237   8.869   8.647   7.823
22780SOL    HW270238   8.930   8.781   7.786
22781SOL     OW70239   9.467   4.327   1.338
22781SOL    HW170240   9.426   4.409   1.367
22781SOL    HW270241   9.550   4.323   1.385
22782SOL     OW70242   6.596  10.181  10.375
22782SOL    HW170243   6.645  10.159  10.454
22782SOL    HW270244   6.506  10.153  10.394
22783SOL     OW70245   3.392   0.495   6.140
22783SOL    HW170246   3.413   0.476   6.231
22783SOL    HW270247   3.452   0.439   6.089
22784SOL     OW70248  11.372  12.917   3.617
22784SOL    HW170249  11.320  12.993   3.592
22784SOL    HW270250  11.338  12.892   3.703
22785SOL     OW70251  14.351   9.850   3.189
22785SOL    HW170252  14.373   9.795   3.113
22785SOL    HW270253  14.432   9.897   3.209
22786SOL     OW70254   1.979   9.110  13.562
22786SOL    HW170255   1.971   9.085  13.470
22786SOL    HW270256   1.890   9.130  13.589
22787SOL     OW70257  14.071  14.407  14.687
22787SOL    HW170258  14.050  14.407  14.594
22787SOL    HW270259  14.163  14.434  14.691
22788SOL     OW70260  11.201   4.058   3.394
22788SOL    HW170261  11.261   4.040   3.322
22788SOL    HW270262  11.258   4.077   3.468
22789SOL     OW70263   8.343  10.736   7.420
22789SOL    HW170264   8.319  10.812   7.472
22789SOL    HW270265   8.377  10.772   7.338
22790SOL     OW70266   8.117   6.037  13.789
22790SOL    HW170267   8.048   6.034  13.723
22790SOL    HW270268   8.093   6.110  13.846
22791SOL     OW70269  10.780   9.146   6.435
22791SOL    HW170270  10.806   9.176   6.522
22791SOL    HW270271  10.857   9.162   6.380
22792SOL     OW70272  11.710  11.343  12.876
22792SOL    HW170273  11.770  11.282  12.833
22792SOL    HW270274  11.731  11.428  12.838
22793SOL     OW70275  13.035   6.491  13.154
22793SOL    HW170276  13.090   6.467  13.229
22793SOL    HW270277  12.977   6.416  13.142
22794SOL     OW70278  10.767  12.611   1.905
22794SOL    HW170279  10.678  12.581   1.887
22794SOL    HW270280  10.777  12.599   2.000
22795SOL     OW70281   0.308   4.223   9.365
22795SOL    HW170282   0.395   4.243   9.399
22795SOL    HW270283   0.252   4.292   9.400
22796SOL     OW70284   3.155  10.298   0.094
22796SOL    HW170285   3.096  10.308   0.169
22796SOL    HW270286   3.119  10.225   0.044
22797SOL     OW70287  14.469   8.552   6.916
22797SOL    HW170288  14.430   8.467   6.897
22797SOL    HW270289  14.492   8.548   7.009
22798SOL     OW70290   6.526   5.969  11.870
22798SOL    HW170291   6.529   6.049  11.816
22798SOL    HW270292   6.482   5.905  11.814
22799SOL     OW70293  10.670  14.484   4.772
22799SOL    HW170294  10.578  14.476   4.798
22799SOL    HW270295  10.668  14.536   4.692
22800SOL     OW70296   8.027   2.416   7.767
22800SOL    HW170297   7.964   2.446   7.832
22800SOL    HW270298   8.107   2.467   7.785
22801SOL     OW70299   1.424   1.491   6.805
22801SOL    HW170300   1.357   1.440   6.760
22801SOL    HW270301   1.493   1.502   6.739
22802SOL     OW70302  11.731   5.137   7.149
22802SOL    HW170303  11.636   5.147   7.160
22802SOL    HW270304  11.768   5.204   7.206
22803SOL     OW70305   6.107  11.622  14.033
22803SOL    HW170306   6.176  11.609  14.098
22803SOL    HW270307   6.025  11.614  14.083
22804SOL     OW70308   5.925  12.501  13.387
22804SOL    HW170309   5.860  12.532  13.324
22804SOL    HW270310   5.877  12.440  13.444
22805SOL     OW70311   2.102   0.055   9.090
22805SOL    HW170312   2.113   0.148   9.070
22805SOL    HW270313   2.011   0.036   9.064
22806SOL     OW70314   4.824  11.460   2.252
22806SOL    HW170315   4.811  11.421   2.339
22806SOL    HW270316   4.814  11.555   2.267
22807SOL     OW70317  10.162   3.089  12.643
22807SOL    HW170318  10.187   3.158  12.582
22807SOL    HW270319  10.098   3.131  12.701
22808SOL     OW70320   5.306  12.424   7.509
22808SOL    HW170321   5.219  12.457   7.490
22808SOL    HW270322   5.293  12.332   7.533
22809SOL     OW70323  11.508  13.720   9.983
22809SOL    HW170324  11.537  13.811   9.983
22809SOL    HW270325  11.558  13.679   9.912
22810SOL     OW70326   6.056  12.044  12.933
22810SOL    HW170327   5.965  12.069  12.918
22810SOL    HW270328   6.107  12.118  12.901
22811SOL     OW70329   4.522   8.445  11.270
22811SOL    HW170330   4.439   8.453  11.318
22811SOL    HW270331   4.494   8.430  11.179
22812SOL     OW70332   2.698   9.199  10.910
22812SOL    HW170333   2.763   9.263  10.881
22812SOL    HW270334   2.748   9.131  10.953
22813SOL     OW70335   6.274   1.262   6.208
22813SOL    HW170336   6.362   1.298   6.220
22813SOL    HW270337   6.241   1.307   6.130
22814SOL     OW70338   4.877   2.331   0.521
22814SOL    HW170339   4.918   2.381   0.591
22814SOL    HW270340   4.935   2.256   0.509
22815SOL     OW70341   1.344   5.201  12.648
22815SOL    HW170342   1.409   5.254  12.603
22815SOL    HW270343   1.393   5.159  12.719
22816SOL     OW70344   6.529   7.784  13.104
22816SOL    HW170345   6.501   7.734  13.027
22816SOL    HW270346   6.460   7.848  13.117
22817SOL     OW70347  11.701   3.863   3.998
22817SOL    HW170348  11.720   3.775   4.029
22817SOL    HW270349  11.606   3.872   4.006
22818SOL     OW70350   9.240   0.924   4.835
22818SOL    HW170351   9.175   0.990   4.858
22818SOL    HW270352   9.303   0.971   4.779
22819SOL     OW70353   1.632   8.941   3.797
22819SOL    HW170354   1.697   9.003   3.828
22819SOL    HW270355   1.680   8.859   3.784
22820SOL     OW70356   2.240   3.788   2.730
22820SOL    HW170357   2.176   3.856   2.749
22820SOL    HW270358   2.305   3.831   2.674
22821SOL     OW70359   3.031  14.771   5.527
22821SOL    HW170360   3.097  14.824   5.572
22821SOL    HW270361   2.948  14.817   5.543
22822SOL     OW70362   5.264   7.851   9.061
22822SOL    HW170363   5.279   7.877   8.970
22822SOL    HW270364   5.180   7.805   9.059
22823SOL     OW70365   1.246   0.933  12.370
22823SOL    HW170366   1.281   0.898  12.288
22823SOL    HW270367   1.159   0.966  12.347
22824SOL     OW70368   6.613  13.235  12.082
22824SOL    HW170369   6.557  13.312  12.081
22824SOL    HW270370   6.597  13.194  12.167
22825SOL     OW70371   3.729   4.626   1.375
22825SOL    HW170372   3.735   4.672   1.459
22825SOL    HW270373   3.728   4.696   1.309
22826SOL     OW70374   8.136  12.360   6.750
22826SOL    HW170375   8.107  12.308   6.675
22826SOL    HW270376   8.220  12.396   6.723
22827SOL     OW70377   4.830   7.712   8.847
22827SOL    HW170378   4.849   7.619   8.839
22827SOL    HW270379   4.916   7.755   8.844
22828SOL     OW70380   0.800   7.161   3.295
22828SOL    HW170381   0.746   7.238   3.277
22828SOL    HW270382   0.799   7.153   3.391
22829SOL     OW70383   0.769   8.734   8.937
22829SOL    HW170384   0.778   8.822   8.975
22829SOL    HW270385   0.776   8.675   9.012
22830SOL     OW70386  13.694  13.698   9.992
22830SOL    HW170387  13.748  13.620  10.006
22830SOL    HW270388  13.627  13.692  10.061
22831SOL     OW70389  13.120  11.849   1.526
22831SOL    HW170390  13.200  11.852   1.473
22831SOL    HW270391  13.069  11.924   1.496
22832SOL     OW70392   8.220  11.362   3.287
22832SOL    HW170393   8.270  11.319   3.356
22832SOL    HW270394   8.270  11.441   3.267
22833SOL     OW70395   4.737   8.240  11.634
22833SOL    HW170396   4.796   8.167  11.654
22833SOL    HW270397   4.786   8.296  11.574
22834SOL     OW70398   4.861   5.615  13.463
22834SOL    HW170399   4.891   5.660  13.542
22834SOL    HW270400   4.777   5.576  13.488
22835SOL     OW70401  11.988   9.341   1.690
22835SOL    HW170402  12.004   9.290   1.769
22835SOL    HW270403  11.902   9.380   1.703
22836SOL     OW70404  13.255   4.389   3.561
22836SOL    HW170405  13.187   4.381   3.628
22836SOL    HW270406  13.283   4.299   3.545
22837SOL     OW70407  12.317   3.806   6.050
22837SOL    HW170408  12.371   3.736   6.013
22837SOL    HW270409  12.308   3.784   6.142
22838SOL     OW70410   9.499   5.287  13.666
22838SOL    HW170411   9.560   5.246  13.604
22838SOL    HW270412   9.490   5.223  13.737
22839SOL     OW70413   0.242   9.930   7.190
22839SOL    HW170414   0.181   9.915   7.261
22839SOL    HW270415   0.316   9.871   7.208
22840SOL     OW70416   3.688  13.307   6.231
22840SOL    HW170417   3.693  13.211   6.234
22840SOL    HW270418   3.764  13.337   6.282
22841SOL     OW70419  12.531   3.853  11.043
22841SOL    HW170420  12.622   3.866  11.016
22841SOL    HW270421  12.480   3.878  10.966
22842SOL     OW70422   5.922   2.877   0.079
22842SOL    HW170423   5.977   2.953   0.099
22842SOL    HW270424   5.980   2.817   0.033
22843SOL     OW70425   2.500  12.974   4.990
22843SOL    HW170426   2.573  12.960   4.930
22843SOL    HW270427   2.490  13.069   4.993
22844SOL     OW70428  13.060   2.734   4.756
22844SOL    HW170429  13.103   2.687   4.827
22844SOL    HW270430  13.081   2.684   4.677
22845SOL     OW70431   2.251   0.195  14.589
22845SOL    HW170432   2.238   0.254  14.663
22845SOL    HW270433   2.215   0.111  14.620
22846SOL     OW70434   5.882  12.978   4.445
22846SOL    HW170435   5.903  13.058   4.398
22846SOL    HW270436   5.962  12.956   4.493
22847SOL     OW70437  14.805   4.716   8.674
22847SOL    HW170438   0.003   4.744   8.626
22847SOL    HW270439  14.810   4.761   8.758
22848SOL     OW70440  10.288   9.464   1.945
22848SOL    HW170441  10.222   9.524   1.979
22848SOL    HW270442  10.238   9.390   1.911
22849SOL     OW70443  11.780   5.814  11.408
22849SOL    HW170444  11.692   5.786  11.434
22849SOL    HW270445  11.787   5.904  11.440
22850SOL     OW70446  14.803  13.273   8.419
22850SOL    HW170447  14.747  13.343   8.387
22850SOL    HW270448  14.864  13.316   8.479
22851SOL     OW70449   6.139  11.924   3.429
22851SOL    HW170450   6.056  11.930   3.476
22851SOL    HW270451   6.126  11.976   3.349
22852SOL     OW70452   2.963  14.131   7.013
22852SOL    HW170453   2.934  14.201   6.955
22852SOL    HW270454   2.958  14.052   6.960
22853SOL     OW70455  14.837   4.823   9.540
22853SOL    HW170456  14.762   4.862   9.496
22853SOL    HW270457   0.008   4.782   9.470
22854SOL     OW70458  10.812   2.095   6.959
22854SOL    HW170459  10.892   2.063   7.001
22854SOL    HW270460  10.825   2.077   6.866
22855SOL     OW70461   7.863   1.812  14.300
22855SOL    HW170462   7.872   1.744  14.367
22855SOL    HW270463   7.812   1.771  14.231
22856SOL     OW70464   2.771   4.045   7.177
22856SOL    HW170465   2.694   4.013   7.130
22856SOL    HW270466   2.828   4.078   7.108
22857SOL     OW70467  11.619   7.458  12.969
22857SOL    HW170468  11.637   7.456  13.063
22857SOL    HW270469  11.568   7.379  12.952
22858SOL     OW70470   8.353  10.629  11.011
22858SOL    HW170471   8.386  10.612  11.099
22858SOL    HW270472   8.282  10.692  11.024
22859SOL     OW70473   4.455  11.497   9.430
22859SOL    HW170474   4.471  11.414   9.385
22859SOL    HW270475   4.537  11.517   9.474
22860SOL     OW70476   5.233  12.205   6.923
22860SOL    HW170477   5.260  12.115   6.942
22860SOL    HW270478   5.293  12.259   6.974
22861SOL     OW70479   2.673   8.104  12.368
22861SOL    HW170480   2.611   8.098  12.440
22861SOL    HW270481   2.718   8.187  12.381
22862SOL     OW70482  10.653   3.553   2.116
22862SOL    HW170483  10.600   3.569   2.038
22862SOL    HW270484  10.697   3.636   2.133
22863SOL     OW70485   8.201   9.134   6.493
22863SOL    HW170486   8.128   9.169   6.544
22863SOL    HW270487   8.253   9.210   6.468
22864SOL     OW70488   4.990  10.339  10.291
22864SOL    HW170489   5.082  10.314  10.296
22864SOL    HW270490   4.990  10.427  10.255
22865SOL     OW70491  12.547   9.640   6.707
22865SOL    HW170492  12.578   9.683   6.787
22865SOL    HW270493  12.452   9.634   6.718
22866SOL     OW70494  12.976   6.204   6.923
22866SOL    HW170495  13.062   6.222   6.884
22866SOL    HW270496  12.992   6.207   7.017
22867SOL     OW70497   8.713   4.722   4.938
22867SOL    HW170498   8.693   4.710   5.031
22867SOL    HW270499   8.627   4.719   4.895
22868SOL     OW70500   2.815  14.866   5.105
22868SOL    HW170501   2.744  14.873   5.041
22868SOL    HW270502   2.771  14.857   5.189
22869SOL     OW70503   8.113   7.670   1.648
22869SOL    HW170504   8.147   7.721   1.722
22869SOL    HW270505   8.189   7.623   1.615
22870SOL     OW70506   6.730   0.313  13.759
22870SOL    HW170507   6.692   0.371  13.693
22870SOL    HW270508   6.813   0.353  13.781
22871SOL     OW70509  13.785   4.837   7.990
22871SOL    HW170510  13.837   4.793   8.057
22871SOL    HW270511  13.698   4.847   8.030
22872SOL     OW70512   6.920   5.223   8.809
22872SOL    HW170513   6.876   5.260   8.886
22872SOL    HW270514   6.850   5.180   8.760
22873SOL     OW70515   5.085   7.199   6.053
22873SOL    HW170516   5.018   7.209   6.120
22873SOL    HW270517   5.159   7.159   6.098
22874SOL     OW70518   6.368   8.920   2.411
22874SOL    HW170519   6.347   8.932   2.318
22874SOL    HW270520   6.397   9.007   2.440
22875SOL     OW70521   2.842   7.983   1.516
22875SOL    HW170522   2.846   7.922   1.590
22875SOL    HW270523   2.874   7.932   1.441
22876SOL     OW70524  13.492   5.671  13.222
22876SOL    HW170525  13.442   5.753  13.218
22876SOL    HW270526  13.448   5.614  13.160
22877SOL     OW70527   6.563  13.174   6.493
22877SOL    HW170528   6.609  13.143   6.415
22877SOL    HW270529   6.498  13.105   6.511
22878SOL     OW70530   9.323  10.745   7.308
22878SOL    HW170531   9.348  10.692   7.233
22878SOL    HW270532   9.384  10.819   7.307
22879SOL     OW70533   8.454   6.675   3.478
22879SOL    HW170534   8.533   6.723   3.501
22879SOL    HW270535   8.404   6.735   3.424
22880SOL     OW70536  12.900  11.094   9.749
22880SOL    HW170537  12.991  11.094   9.720
22880SOL    HW270538  12.860  11.169   9.704
22881SOL     OW70539  10.221   9.904   6.185
22881SOL    HW170540  10.249   9.836   6.246
22881SOL    HW270541  10.155   9.954   6.234
22882SOL     OW70542   7.225   2.126   1.600
22882SOL    HW170543   7.239   2.041   1.558
22882SOL    HW270544   7.302   2.139   1.654
22883SOL     OW70545   1.692  12.902   7.906
22883SOL    HW170546   1.633  12.976   7.892
22883SOL    HW270547   1.658  12.832   7.850
22884SOL     OW70548  10.752   8.272  10.406
22884SOL    HW170549  10.793   8.354  10.378
22884SOL    HW270550  10.814   8.204  10.380
22885SOL     OW70551   8.021   2.101   5.267
22885SOL    HW170552   7.964   2.160   5.217
22885SOL    HW270553   7.998   2.116   5.358
22886SOL     OW70554   9.153   7.931   4.898
22886SOL    HW170555   9.100   7.961   4.972
22886SOL    HW270556   9.101   7.952   4.821
22887SOL     OW70557   1.197   4.118  14.253
22887SOL    HW170558   1.123   4.155  14.301
22887SOL    HW270559   1.265   4.185  14.257
22888SOL     OW70560   4.539   6.893   5.246
22888SOL    HW170561   4.509   6.949   5.318
22888SOL    HW270562   4.548   6.953   5.172
22889SOL     OW70563   3.164   5.789   0.819
22889SOL    HW170564   3.093   5.726   0.811
22889SOL    HW270565   3.242   5.735   0.830
22890SOL     OW70566   8.202  10.989  13.052
22890SOL    HW170567   8.237  11.038  12.978
22890SOL    HW270568   8.191  11.053  13.122
22891SOL     OW70569  11.619   2.994  14.133
22891SOL    HW170570  11.689   2.950  14.084
22891SOL    HW270571  11.653   3.000  14.222
22892SOL     OW70572   5.235   3.952   7.245
22892SOL    HW170573   5.266   4.039   7.273
22892SOL    HW270574   5.232   3.958   7.149
22893SOL     OW70575   2.488   5.253   1.323
22893SOL    HW170576   2.422   5.285   1.385
22893SOL    HW270577   2.517   5.331   1.276
22894SOL     OW70578   2.671  10.715   4.622
22894SOL    HW170579   2.676  10.631   4.667
22894SOL    HW270580   2.716  10.776   4.681
22895SOL     OW70581  11.472  14.412   7.969
22895SOL    HW170582  11.455  14.379   7.880
22895SOL    HW270583  11.451  14.338   8.026
22896SOL     OW70584   3.297   8.308   5.516
22896SOL    HW170585   3.261   8.241   5.458
22896SOL    HW270586   3.376   8.267   5.552
22897SOL     OW70587   6.218  10.368   2.017
22897SOL    HW170588   6.231  10.395   2.108
22897SOL    HW270589   6.251  10.278   2.013
22898SOL     OW70590   4.674  13.718   3.806
22898SOL    HW170591   4.693  13.805   3.771
22898SOL    HW270592   4.578  13.713   3.810
22899SOL     OW70593  13.286   8.503  11.215
22899SOL    HW170594  13.200   8.537  11.240
22899SOL    HW270595  13.277   8.408  11.219
22900SOL     OW70596   2.632   7.848   0.883
22900SOL    HW170597   2.665   7.846   0.973
22900SOL    HW270598   2.537   7.849   0.893
22901SOL     OW70599   3.136   0.780   6.642
22901SOL    HW170600   3.192   0.840   6.691
22901SOL    HW270601   3.104   0.832   6.569
22902SOL     OW70602   8.141   3.433   4.304
22902SOL    HW170603   8.190   3.393   4.376
22902SOL    HW270604   8.162   3.526   4.309
22903SOL     OW70605  13.384   1.518  12.347
22903SOL    HW170606  13.464   1.475  12.316
22903SOL    HW270607  13.403   1.544  12.437
22904SOL     OW70608   3.065   9.562   9.580
22904SOL    HW170609   2.977   9.593   9.557
22904SOL    HW270610   3.051   9.503   9.654
22905SOL     OW70611   3.488   5.779  12.820
22905SOL    HW170612   3.526   5.867  12.828
22905SOL    HW270613   3.560   5.725  12.786
22906SOL     OW70614   3.294   2.159   5.049
22906SOL    HW170615   3.347   2.172   4.970
22906SOL    HW270616   3.313   2.236   5.103
22907SOL     OW70617  12.238   0.477  11.574
22907SOL    HW170618  12.152   0.461  11.535
22907SOL    HW270619  12.228   0.452  11.666
22908SOL     OW70620   6.016   9.094  10.227
22908SOL    HW170621   6.012   9.182  10.189
22908SOL    HW270622   5.996   9.036  10.154
22909SOL     OW70623   3.083   5.416   3.277
22909SOL    HW170624   3.007   5.357   3.277
22909SOL    HW270625   3.050   5.498   3.242
22910SOL     OW70626   5.766   3.189   7.479
22910SOL    HW170627   5.776   3.095   7.465
22910SOL    HW270628   5.851   3.227   7.458
22911SOL     OW70629   9.023   8.144  10.529
22911SOL    HW170630   9.021   8.165  10.435
22911SOL    HW270631   8.990   8.223  10.572
22912SOL     OW70632  12.701  13.818   6.389
22912SOL    HW170633  12.607  13.803   6.402
22912SOL    HW270634  12.710  13.913   6.385
22913SOL     OW70635   9.368  14.215  11.409
22913SOL    HW170636   9.444  14.249  11.456
22913SOL    HW270637   9.293  14.256  11.451
22914SOL     OW70638   7.738   1.286  10.376
22914SOL    HW170639   7.811   1.235  10.411
22914SOL    HW270640   7.696   1.324  10.454
22915SOL     OW70641   8.733  14.106   9.650
22915SOL    HW170642   8.725  14.199   9.671
22915SOL    HW270643   8.827  14.093   9.636
22916SOL     OW70644   1.933  10.581  14.153
22916SOL    HW170645   1.867  10.630  14.105
22916SOL    HW270646   1.892  10.497  14.173
22917SOL     OW70647   6.630   3.321  13.448
22917SOL    HW170648   6.719   3.293  13.427
22917SOL    HW270649   6.639   3.378  13.524
22918SOL     OW70650   3.685  14.833   6.726
22918SOL    HW170651   3.768  14.791   6.703
22918SOL    HW270652   3.711   0.026   6.782
22919SOL     OW70653   9.240   4.633   8.395
22919SOL    HW170654   9.213   4.643   8.487
22919SOL    HW270655   9.251   4.539   8.384
22920SOL     OW70656   1.902  13.020  13.660
22920SOL    HW170657   1.812  13.049  13.674
22920SOL    HW270658   1.908  12.937  13.707
22921SOL     OW70659  10.772   0.519   4.082
22921SOL    HW170660  10.848   0.545   4.029
22921SOL    HW270661  10.810   0.476   4.158
22922SOL     OW70662   2.930   7.787   1.306
22922SOL    HW170663   3.003   7.740   1.347
22922SOL    HW270664   2.864   7.720   1.290
22923SOL     OW70665   8.796   2.534   5.044
22923SOL    HW170666   8.740   2.579   5.108
22923SOL    HW270667   8.876   2.587   5.040
22924SOL     OW70668  14.234   7.964  12.120
22924SOL    HW170669  14.281   7.882  12.105
22924SOL    HW270670  14.144   7.936  12.141
22925SOL     OW70671   7.566   6.983   2.504
22925SOL    HW170672   7.489   6.978   2.560
22925SOL    HW270673   7.633   6.935   2.551
22926SOL     OW70674   2.609   7.482   2.264
22926SOL    HW170675   2.641   7.513   2.179
22926SOL    HW270676   2.689   7.462   2.313
22927SOL     OW70677   2.296   1.465   0.050
22927SOL    HW170678   2.262   1.416   0.125
22927SOL    HW270679   2.219   1.505   0.010
22928SOL     OW70680  10.892  10.380   4.517
22928SOL    HW170681  10.985  10.361   4.513
22928SOL    HW270682  10.860  10.329   4.592
22929SOL     OW70683  10.568   4.270   8.034
22929SOL    HW170684  10.559   4.175   8.039
22929SOL    HW270685  10.479   4.303   8.049
22930SOL     OW70686   0.449  13.310   0.017
22930SOL    HW170687   0.519  13.332  14.835
22930SOL    HW270688   0.487  13.329   0.103
22931SOL     OW70689   1.831  12.079   7.975
22931SOL    HW170690   1.857  11.987   7.967
22931SOL    HW270691   1.806  12.089   8.067
22932SOL     OW70692   2.778   3.650   1.289
22932SOL    HW170693   2.852   3.592   1.270
22932SOL    HW270694   2.702   3.607   1.250
22933SOL     OW70695   2.455  14.736  11.842
22933SOL    HW170696   2.445  14.651  11.885
22933SOL    HW270697   2.472  14.715  11.750
22934SOL     OW70698   4.338   9.018  14.134
22934SOL    HW170699   4.324   9.059  14.219
22934SOL    HW270700   4.265   9.048  14.080
22935SOL     OW70701   4.494   0.339  14.346
22935SOL    HW170702   4.561   0.320  14.281
22935SOL    HW270703   4.451   0.418  14.314
22936SOL     OW70704   9.826  11.960   2.854
22936SOL    HW170705   9.859  12.010   2.779
22936SOL    HW270706   9.734  11.943   2.833
22937SOL     OW70707   2.287   8.668  10.337
22937SOL    HW170708   2.334   8.710  10.409
22937SOL    HW270709   2.354   8.654  10.270
22938SOL     OW70710  14.541   0.266   9.257
22938SOL    HW170711  14.588   0.208   9.317
22938SOL    HW270712  14.452   0.269   9.291
22939SOL     OW70713  12.806   1.308   3.461
22939SOL    HW170714  12.830   1.401   3.457
22939SOL    HW270715  12.751   1.294   3.384
22940SOL     OW70716   1.445   1.589   3.525
22940SOL    HW170717   1.458   1.646   3.601
22940SOL    HW270718   1.506   1.516   3.539
22941SOL     OW70719   0.178   2.587   6.312
22941SOL    HW170720   0.083   2.577   6.312
22941SOL    HW270721   0.193   2.681   6.319
22942SOL     OW70722  12.208   3.821   0.557
22942SOL    HW170723  12.255   3.858   0.632
22942SOL    HW270724  12.246   3.734   0.545
22943SOL     OW70725   0.135  10.140  14.459
22943SOL    HW170726   0.090  10.224  14.449
22943SOL    HW270727   0.105  10.088  14.384
22944SOL     OW70728   4.183   5.722   8.398
22944SOL    HW170729   4.122   5.661   8.358
22944SOL    HW270730   4.219   5.675   8.473
22945SOL     OW70731   0.724   3.879   7.582
22945SOL    HW170732   0.646   3.855   7.531
22945SOL    HW270733   0.798   3.849   7.530
22946SOL     OW70734   2.141   8.827   6.727
22946SOL    HW170735   2.091   8.871   6.659
22946SOL    HW270736   2.132   8.734   6.708
22947SOL     OW70737   9.313   9.774   8.975
22947SOL    HW170738   9.291   9.867   8.968
22947SOL    HW270739   9.236   9.734   9.015
22948SOL     OW70740   9.066  14.619   2.871
22948SOL    HW170741   9.140  14.669   2.906
22948SOL    HW270742   8.996  14.634   2.934
22949SOL     OW70743   0.456   1.026   8.032
22949SOL    HW170744   0.366   1.004   8.008
22949SOL    HW270745   0.448   1.108   8.082
22950SOL     OW70746  11.152   9.269   0.129
22950SOL    HW170747  11.093   9.334   0.091
22950SOL    HW270748  11.218   9.321   0.175
22951SOL     OW70749   2.278  10.286   0.611
22951SOL    HW170750   2.318  10.227   0.547
22951SOL    HW270751   2.343  10.294   0.681
22952SOL     OW70752   0.319   5.286  11.435
22952SOL    HW170753   0.229   5.318  11.442
22952SOL    HW270754   0.311   5.201  11.392
22953SOL     OW70755   0.086   7.866   8.024
22953SOL    HW170756   0.144   7.802   7.981
22953SOL    HW270757   0.131   7.950   8.014
22954SOL     OW70758   4.015   8.153   8.919
22954SOL    HW170759   4.001   8.059   8.918
22954SOL    HW270760   4.092   8.167   8.863
22955SOL     OW70761   8.118   0.838   5.278
22955SOL    HW170762   8.204   0.831   5.236
22955SOL    HW270763   8.123   0.780   5.354
22956SOL     OW70764   1.100  14.346  12.573
22956SOL    HW170765   1.124  14.255  12.590
22956SOL    HW270766   1.109  14.355  12.478
22957SOL     OW70767   5.872   3.386  13.002
22957SOL    HW170768   5.964   3.410  13.013
22957SOL    HW270769   5.872   3.325  12.928
22958SOL     OW70770   5.613   3.201   2.204
22958SOL    HW170771   5.645   3.186   2.115
22958SOL    HW270772   5.525   3.236   2.192
22959SOL     OW70773   2.006   5.913   1.188
22959SOL    HW170774   1.912   5.909   1.175
22959SOL    HW270775   2.025   5.842   1.249
22960SOL     OW70776  12.830   3.640  12.206
22960SOL    HW170777  12.901   3.662  12.146
22960SOL    HW270778  12.871   3.635  12.292
22961SOL     OW70779   9.280  13.020  11.230
22961SOL    HW170780   9.274  12.925  11.227
22961SOL    HW270781   9.265  13.042  11.322
22962SOL     OW70782   3.402   0.496   8.010
22962SOL    HW170783   3.493   0.470   8.026
22962SOL    HW270784   3.361   0.419   7.970
22963SOL     OW70785   8.697   7.953   3.663
22963SOL    HW170786   8.754   8.020   3.703
22963SOL    HW270787   8.620   7.950   3.719
22964SOL     OW70788   3.612   8.997  11.980
22964SOL    HW170789   3.607   8.902  11.979
22964SOL    HW270790   3.524   9.026  11.956
22965SOL     OW70791  12.913   8.540  11.572
22965SOL    HW170792  12.842   8.540  11.508
22965SOL    HW270793  12.965   8.617  11.550
22966SOL     OW70794   2.327   8.629   9.088
22966SOL    HW170795   2.383   8.707   9.095
22966SOL    HW270796   2.379   8.567   9.036
22967SOL     OW70797   6.858  10.997   7.490
22967SOL    HW170798   6.793  10.954   7.435
22967SOL    HW270799   6.807  11.062   7.540
22968SOL     OW70800   5.012  12.460   6.530
22968SOL    HW170801   5.028  12.391   6.594
22968SOL    HW270802   5.068  12.532   6.557
22969SOL     OW70803  10.442   4.521   6.956
22969SOL    HW170804  10.513   4.494   6.897
22969SOL    HW270805  10.366   4.529   6.899
22970SOL     OW70806   6.564  11.488   3.546
22970SOL    HW170807   6.511  11.408   3.549
22970SOL    HW270808   6.653  11.456   3.529
22971SOL     OW70809   8.384   4.377  11.833
22971SOL    HW170810   8.444   4.303  11.845
22971SOL    HW270811   8.298   4.343  11.856
22972SOL     OW70812   6.125  10.784  13.427
22972SOL    HW170813   6.166  10.856  13.379
22972SOL    HW270814   6.040  10.819  13.454
22973SOL     OW70815   1.138  14.205  10.355
22973SOL    HW170816   1.052  14.237  10.380
22973SOL    HW270817   1.155  14.132  10.415
22974SOL     OW70818  11.004   1.584  11.532
22974SOL    HW170819  11.019   1.675  11.509
22974SOL    HW270820  11.070   1.535  11.483
22975SOL     OW70821   9.120  10.028   1.064
22975SOL    HW170822   9.127   9.935   1.084
22975SOL    HW270823   9.211  10.059   1.061
22976SOL     OW70824  13.841  13.430  10.524
22976SOL    HW170825  13.935  13.442  10.535
22976SOL    HW270826  13.819  13.358  10.583
22977SOL     OW70827   3.550   2.419  13.196
22977SOL    HW170828   3.571   2.326  13.187
22977SOL    HW270829   3.517   2.445  13.110
22978SOL     OW70830  11.173   6.495   7.438
22978SOL    HW170831  11.091   6.446   7.436
22978SOL    HW270832  11.235   6.439   7.391
22979SOL     OW70833   5.056   2.854   0.880
22979SOL    HW170834   5.129   2.820   0.933
22979SOL    HW270835   5.097   2.915   0.819
22980SOL     OW70836   1.894  11.648   9.445
22980SOL    HW170837   1.906  11.566   9.397
22980SOL    HW270838   1.913  11.716   9.381
22981SOL     OW70839   9.404   5.091  12.663
22981SOL    HW170840   9.330   5.032  12.647
22981SOL    HW270841   9.393   5.162  12.601
22982SOL     OW70842   1.492   5.815   5.564
22982SOL    HW170843   1.434   5.742   5.543
22982SOL    HW270844   1.471   5.836   5.656
22983SOL     OW70845   9.617  12.478   2.221
22983SOL    HW170846   9.599  12.430   2.302
22983SOL    HW270847   9.553  12.443   2.158
22984SOL     OW70848   6.198   2.006   2.900
22984SOL    HW170849   6.109   2.008   2.865
22984SOL    HW270850   6.208   2.088   2.948
22985SOL     OW70851   4.799   1.395   9.164
22985SOL    HW170852   4.876   1.356   9.123
22985SOL    HW270853   4.724   1.359   9.115
22986SOL     OW70854  10.499   9.651   1.923
22986SOL    HW170855  10.497   9.683   1.833
22986SOL    HW270856  10.417   9.603   1.934
22987SOL     OW70857   5.922   5.100   0.943
22987SOL    HW170858   5.973   5.020   0.929
22987SOL    HW270859   5.831   5.072   0.928
22988SOL     OW70860   5.506   5.902  10.781
22988SOL    HW170861   5.484   5.917  10.873
22988SOL    HW270862   5.550   5.817  10.780
22989SOL     OW70863  14.508   9.989  14.668
22989SOL    HW170864  14.425   9.986  14.716
22989SOL    HW270865  14.548   9.904  14.685
22990SOL     OW70866   4.594  14.830   4.264
22990SOL    HW170867   4.659  14.857   4.329
22990SOL    HW270868   4.511  14.830   4.312
22991SOL     OW70869  11.414  10.494   6.802
22991SOL    HW170870  11.346  10.463   6.743
22991SOL    HW270871  11.416  10.589   6.789
22992SOL     OW70872   7.548  11.241  11.563
22992SOL    HW170873   7.535  11.194  11.480
22992SOL    HW270874   7.637  11.218  11.589
22993SOL     OW70875  10.000   7.148   5.988
22993SOL    HW170876   9.909   7.165   6.010
22993SOL    HW270877  10.000   7.059   5.953
22994SOL     OW70878   0.432   5.275   4.900
22994SOL    HW170879   0.381   5.238   4.973
22994SOL    HW270880   0.439   5.368   4.921
22995SOL     OW70881   8.173   7.174   8.241
22995SOL    HW170882   8.234   7.247   8.230
22995SOL    HW270883   8.184   7.121   8.162
22996SOL     OW70884   5.741   5.279   0.406
22996SOL    HW170885   5.768   5.355   0.354
22996SOL    HW270886   5.819   5.223   0.408
22997SOL     OW70887   5.292   8.510  11.588
22997SOL    HW170888   5.255   8.594  11.561
22997SOL    HW270889   5.331   8.474  11.508
22998SOL     OW70890   8.288  11.243   0.406
22998SOL    HW170891   8.271  11.337   0.394
22998SOL    HW270892   8.202  11.202   0.394
22999SOL     OW70893  13.845   1.018   7.148
22999SOL    HW170894  13.794   1.000   7.227
22999SOL    HW270895  13.926   1.056   7.181
23000SOL     OW70896   9.552   5.817   3.398
23000SOL    HW170897   9.483   5.843   3.337
23000SOL    HW270898   9.557   5.889   3.461
23001SOL     OW70899   9.735   9.332   9.338
23001SOL    HW170900   9.699   9.362   9.254
23001SOL    HW270901   9.709   9.399   9.401
23002SOL     OW70902  11.756   8.553   9.230
23002SOL    HW170903  11.687   8.487   9.225
23002SOL    HW270904  11.726   8.624   9.174
23003SOL     OW70905   5.798   5.488  11.804
23003SOL    HW170906   5.724   5.474  11.862
23003SOL    HW270907   5.875   5.473  11.859
23004SOL     OW70908   5.931   2.678  12.272
23004SOL    HW170909   5.846   2.656  12.234
23004SOL    HW270910   5.924   2.649  12.363
23005SOL     OW70911   3.515  12.084   9.244
23005SOL    HW170912   3.456  12.156   9.222
23005SOL    HW270913   3.489  12.013   9.185
23006SOL     OW70914   6.565   9.877  14.695
23006SOL    HW170915   6.490   9.886  14.754
23006SOL    HW270916   6.538   9.921  14.615
23007SOL     OW70917   9.528   6.871   7.092
23007SOL    HW170918   9.453   6.851   7.147
23007SOL    HW270919   9.591   6.912   7.150
23008SOL     OW70920  11.232   5.445   3.636
23008SOL    HW170921  11.293   5.384   3.677
23008SOL    HW270922  11.175   5.391   3.581
23009SOL     OW70923  11.963   4.369   0.144
23009SOL    HW170924  12.019   4.392   0.070
23009SOL    HW270925  12.013   4.303   0.192
23010SOL     OW70926   9.855  14.352  11.220
23010SOL    HW170927   9.899  14.348  11.135
23010SOL    HW270928   9.895  14.282  11.271
23011SOL     OW70929   4.638  13.981  11.078
23011SOL    HW170930   4.579  13.909  11.099
23011SOL    HW270931   4.617  14.048  11.143
23012SOL     OW70932  13.123  10.219  10.230
23012SOL    HW170933  13.198  10.244  10.284
23012SOL    HW270934  13.115  10.290  10.166
23013SOL     OW70935   9.519  12.371   5.348
23013SOL    HW170936   9.566  12.364   5.264
23013SOL    HW270937   9.473  12.455   5.342
23014SOL     OW70938   7.139   8.791   0.556
23014SOL    HW170939   7.170   8.806   0.645
23014SOL    HW270940   7.146   8.696   0.544
23015SOL     OW70941   5.575  12.833   1.904
23015SOL    HW170942   5.628  12.856   1.980
23015SOL    HW270943   5.601  12.896   1.837
23016SOL     OW70944  11.077   3.246  11.531
23016SOL    HW170945  11.126   3.320  11.497
23016SOL    HW270946  11.114   3.230  11.618
23017SOL     OW70947   1.734   1.708  12.322
23017SOL    HW170948   1.726   1.630  12.377
23017SOL    HW270949   1.750   1.780  12.383
23018SOL     OW70950   5.782  11.194  11.648
23018SOL    HW170951   5.861  11.208  11.700
23018SOL    HW270952   5.725  11.267  11.672
23019SOL     OW70953  14.043   6.812   1.708
23019SOL    HW170954  13.957   6.772   1.717
23019SOL    HW270955  14.100   6.741   1.677
23020SOL     OW70956   6.314   4.799  12.533
23020SOL    HW170957   6.333   4.710  12.561
23020SOL    HW270958   6.389   4.850  12.563
23021SOL     OW70959  14.763   4.360   7.738
23021SOL    HW170960  14.731   4.367   7.828
23021SOL    HW270961  14.687   4.380   7.684
23022SOL     OW70962  14.275   3.212   0.735
23022SOL    HW170963  14.328   3.289   0.756
23022SOL    HW270964  14.331   3.159   0.679
23023SOL     OW70965   1.628   8.097   3.376
23023SOL    HW170966   1.669   8.168   3.326
23023SOL    HW270967   1.572   8.053   3.313
23024SOL     OW70968   2.328   7.562   2.273
23024SOL    HW170969   2.295   7.598   2.355
23024SOL    HW270970   2.418   7.534   2.293
23025SOL     OW70971   5.434  12.551   0.854
23025SOL    HW170972   5.522  12.513   0.846
23025SOL    HW270973   5.450  12.646   0.860
23026SOL     OW70974   6.066  14.398  13.601
23026SOL    HW170975   5.994  14.453  13.631
23026SOL    HW270976   6.103  14.445  13.526
23027SOL     OW70977  12.175   3.499   8.766
23027SOL    HW170978  12.270   3.501   8.772
23027SOL    HW270979  12.149   3.425   8.821
23028SOL     OW70980  11.444  11.359  12.280
23028SOL    HW170981  11.412  11.280  12.236
23028SOL    HW270982  11.375  11.382  12.342
23029SOL     OW70983  14.771   1.527  14.034
23029SOL    HW170984  14.691   1.549  14.082
23029SOL    HW270985  14.751   1.545  13.943
23030SOL     OW70986   4.431   0.281   8.588
23030SOL    HW170987   4.390   0.223   8.653
23030SOL    HW270988   4.520   0.296   8.622
23031SOL     OW70989   6.485   0.353  11.809
23031SOL    HW170990   6.474   0.259  11.822
23031SOL    HW270991   6.499   0.363  11.715
23032SOL     OW70992  11.563   0.759   7.981
23032SOL    HW170993  11.563   0.669   7.947
23032SOL    HW270994  11.506   0.808   7.922
23033SOL     OW70995   4.924   2.457   8.640
23033SOL    HW170996   4.918   2.382   8.582
23033SOL    HW270997   4.845   2.453   8.694
23034SOL     OW70998  13.348   2.413   7.112
23034SOL    HW170999  13.434   2.418   7.069
23034SOL    HW271000  13.319   2.323   7.098
23035SOL     OW71001  10.787  11.569   1.044
23035SOL    HW171002  10.870  11.533   1.076
23035SOL    HW271003  10.737  11.492   1.018
23036SOL     OW71004  13.302   8.446   1.954
23036SOL    HW171005  13.366   8.382   1.923
23036SOL    HW271006  13.259   8.404   2.028
23037SOL     OW71007   5.472  10.456  14.606
23037SOL    HW171008   5.563  10.430  14.592
23037SOL    HW271009   5.461  10.456  14.701
23038SOL     OW71010   6.719  10.359   5.780
23038SOL    HW171011   6.705  10.453   5.775
23038SOL    HW271012   6.805  10.345   5.741
23039SOL     OW71013   7.577   9.661  10.250
23039SOL    HW171014   7.623   9.690  10.328
23039SOL    HW271015   7.594   9.730  10.185
23040SOL     OW71016  14.750  14.275   5.397
23040SOL    HW171017  14.790  14.219   5.330
23040SOL    HW271018  14.721  14.214   5.465
23041SOL     OW71019  11.376  13.685   7.715
23041SOL    HW171020  11.343  13.746   7.781
23041SOL    HW271021  11.453  13.645   7.756
23042SOL     OW71022  11.855  14.755   3.493
23042SOL    HW171023  11.799  14.686   3.457
23042SOL    HW271024  11.857  14.822   3.425
23043SOL     OW71025  14.630   1.986   2.958
23043SOL    HW171026  14.586   1.920   3.011
23043SOL    HW271027  14.576   2.065   2.967
23044SOL     OW71028   7.136  13.926   2.527
23044SOL    HW171029   7.173  13.979   2.597
23044SOL    HW271030   7.131  13.837   2.563
23045SOL     OW71031   9.048  10.348   7.261
23045SOL    HW171032   9.127  10.357   7.208
23045SOL    HW271033   9.074  10.294   7.335
23046SOL     OW71034   5.115  13.565   4.046
23046SOL    HW171035   5.201  13.524   4.057
23046SOL    HW271036   5.124  13.620   3.968
23047SOL     OW71037   8.846  11.010   1.304
23047SOL    HW171038   8.832  10.922   1.340
23047SOL    HW271039   8.778  11.064   1.346
23048SOL     OW71040   2.537  13.094   7.770
23048SOL    HW171041   2.441  13.090   7.778
23048SOL    HW271042   2.569  13.030   7.834
23049SOL     OW71043   3.487   2.346  11.740
23049SOL    HW171044   3.395   2.362  11.721
23049SOL    HW271045   3.492   2.251  11.753
23050SOL     OW71046   1.456  11.793  14.634
23050SOL    HW171047   1.421  11.704  14.633
23050SOL    HW271048   1.394  11.844  14.583
23051SOL     OW71049  13.169   3.366  13.856
23051SOL    HW171050  13.201   3.328  13.774
23051SOL    HW271051  13.227   3.329  13.923
23052SOL     OW71052  11.988   8.738   8.981
23052SOL    HW171053  11.966   8.822   9.020
23052SOL    HW271054  12.059   8.703   9.035
23053SOL     OW71055   3.138   9.624   6.465
23053SOL    HW171056   3.175   9.710   6.488
23053SOL    HW271057   3.211   9.563   6.478
23054SOL     OW71058   4.514   8.341   8.673
23054SOL    HW171059   4.577   8.352   8.602
23054SOL    HW271060   4.522   8.249   8.698
23055SOL     OW71061   1.609  14.397   0.076
23055SOL    HW171062   1.588  14.465   0.141
23055SOL    HW271063   1.550  14.415   0.003
23056SOL     OW71064   9.915   9.299  12.194
23056SOL    HW171065  10.010   9.288  12.189
23056SOL    HW271066   9.880   9.210  12.199
23057SOL     OW71067   8.033   0.458   9.378
23057SOL    HW171068   8.013   0.547   9.408
23057SOL    HW271069   8.026   0.462   9.283
23058SOL     OW71070   8.001   8.204  10.697
23058SOL    HW171071   8.093   8.189  10.680
23058SOL    HW271072   7.997   8.220  10.792
23059SOL     OW71073  12.311  11.918  11.299
23059SOL    HW171074  12.360  11.941  11.378
23059SOL    HW271075  12.324  11.824  11.288
23060SOL     OW71076  12.166  13.230   2.896
23060SOL    HW171077  12.181  13.137   2.910
23060SOL    HW271078  12.162  13.240   2.801
23061SOL     OW71079   6.780   4.344  12.598
23061SOL    HW171080   6.821   4.287  12.533
23061SOL    HW271081   6.705   4.381  12.552
23062SOL     OW71082   0.379   3.134   4.243
23062SOL    HW171083   0.466   3.161   4.216
23062SOL    HW271084   0.329   3.128   4.162
23063SOL     OW71085  14.625   9.811   1.018
23063SOL    HW171086  14.653   9.850   1.101
23063SOL    HW271087  14.705   9.778   0.978
23064SOL     OW71088  13.428   2.623  12.718
23064SOL    HW171089  13.383   2.583  12.643
23064SOL    HW271090  13.408   2.565  12.791
23065SOL     OW71091   1.548  12.106  12.523
23065SOL    HW171092   1.504  12.149  12.450
23065SOL    HW271093   1.535  12.012  12.507
23066SOL     OW71094  13.545   0.290   1.146
23066SOL    HW171095  13.459   0.254   1.168
23066SOL    HW271096  13.606   0.217   1.161
23067SOL     OW71097  13.543   5.800   9.360
23067SOL    HW171098  13.622   5.832   9.315
23067SOL    HW271099  13.567   5.713   9.392
23068SOL     OW71100   8.833  10.607   3.825
23068SOL    HW171101   8.889  10.648   3.759
23068SOL    HW271102   8.855  10.514   3.819
23069SOL     OW71103  12.630   9.861  13.544
23069SOL    HW171104  12.557   9.908  13.584
23069SOL    HW271105  12.707   9.913  13.566
23070SOL     OW71106   1.735   7.323   2.007
23070SOL    HW171107   1.733   7.383   2.081
23070SOL    HW271108   1.644   7.298   1.994
23071SOL     OW71109   7.795  12.997  11.680
23071SOL    HW171110   7.730  12.936  11.645
23071SOL    HW271111   7.761  13.084  11.656
23072SOL     OW71112   4.991  14.430   7.688
23072SOL    HW171113   4.941  14.502   7.648
23072SOL    HW271114   5.079  14.439   7.651
23073SOL     OW71115   5.648   1.709   9.222
23073SOL    HW171116   5.646   1.629   9.170
23073SOL    HW271117   5.655   1.779   9.157
23074SOL     OW71118   0.111   3.473   6.351
23074SOL    HW171119   0.081   3.493   6.439
23074SOL    HW271120   0.150   3.385   6.358
23075SOL     OW71121  10.311   1.096  13.429
23075SOL    HW171122  10.254   1.047  13.369
23075SOL    HW271123  10.345   1.168  13.376
23076SOL     OW71124   4.758  13.705   0.361
23076SOL    HW171125   4.695  13.769   0.396
23076SOL    HW271126   4.716  13.672   0.282
23077SOL     OW71127   0.412   1.672   8.277
23077SOL    HW171128   0.418   1.748   8.219
23077SOL    HW271129   0.360   1.703   8.351
23078SOL     OW71130  12.738   9.698  11.955
23078SOL    HW171131  12.778   9.774  11.913
23078SOL    HW271132  12.759   9.708  12.048
23079SOL     OW71133   8.819   5.150   5.747
23079SOL    HW171134   8.747   5.108   5.794
23079SOL    HW271135   8.889   5.156   5.811
23080SOL     OW71136   9.350   6.328  13.461
23080SOL    HW171137   9.328   6.244  13.421
23080SOL    HW271138   9.279   6.344  13.524
23081SOL     OW71139   6.920  10.169  12.654
23081SOL    HW171140   6.867  10.147  12.577
23081SOL    HW271141   7.010  10.172  12.622
23082SOL     OW71142   1.275   4.745   1.187
23082SOL    HW171143   1.269   4.832   1.228
23082SOL    HW271144   1.321   4.691   1.252
23083SOL     OW71145   0.723  13.810   0.957
23083SOL    HW171146   0.649  13.777   1.007
23083SOL    HW271147   0.781  13.849   1.022
23084SOL     OW71148   5.501   4.559   8.938
23084SOL    HW171149   5.407   4.570   8.950
23084SOL    HW271150   5.532   4.519   9.019
23085SOL     OW71151  11.966  14.560   9.644
23085SOL    HW171152  11.987  14.473   9.679
23085SOL    HW271153  11.917  14.603   9.714
23086SOL     OW71154   8.017   1.521   8.905
23086SOL    HW171155   8.033   1.614   8.917
23086SOL    HW271156   8.100   1.479   8.928
23087SOL     OW71157   7.120   8.267  13.259
23087SOL    HW171158   7.165   8.317  13.327
23087SOL    HW271159   7.187   8.247  13.195
23088SOL     OW71160  10.996  10.947   5.708
23088SOL    HW171161  10.957  10.982   5.788
23088SOL    HW271162  11.060  11.013   5.682
23089SOL     OW71163   3.401  12.407   8.058
23089SOL    HW171164   3.364  12.466   8.124
23089SOL    HW271165   3.482  12.376   8.097
23090SOL     OW71166   2.680   0.045  12.557
23090SOL    HW171167   2.716   0.120  12.605
23090SOL    HW271168   2.673   0.076  12.466
23091SOL     OW71169  12.493   1.563  14.406
23091SOL    HW171170  12.483   1.655  14.429
23091SOL    HW271171  12.427   1.518  14.459
23092SOL     OW71172  11.798   9.629   4.971
23092SOL    HW171173  11.734   9.583   4.916
23092SOL    HW271174  11.776   9.721   4.962
23093SOL     OW71175   3.926   9.772   6.587
23093SOL    HW171176   3.937   9.867   6.595
23093SOL    HW271177   3.948   9.739   6.674
23094SOL     OW71178  11.086   7.361   9.710
23094SOL    HW171179  11.028   7.303   9.760
23094SOL    HW271180  11.028   7.427   9.672
23095SOL     OW71181  13.165   0.554   6.771
23095SOL    HW171182  13.093   0.613   6.796
23095SOL    HW271183  13.229   0.564   6.842
23096SOL     OW71184   9.077  12.594  12.281
23096SOL    HW171185   9.031  12.544  12.213
23096SOL    HW271186   9.169  12.591  12.256
23097SOL     OW71187  11.868   8.392  13.913
23097SOL    HW171188  11.941   8.347  13.871
23097SOL    HW271189  11.818   8.428  13.840
23098SOL     OW71190  14.461   0.039   5.454
23098SOL    HW171191  14.430   0.128   5.470
23098SOL    HW271192  14.389  14.876   5.409
23099SOL     OW71193  12.471   8.440   5.747
23099SOL    HW171194  12.418   8.496   5.691
23099SOL    HW271195  12.467   8.353   5.707
23100SOL     OW71196   1.007  10.672   0.886
23100SOL    HW171197   0.974  10.650   0.973
23100SOL    HW271198   1.101  10.686   0.899
23101SOL     OW71199  10.534  13.659  14.009
23101SOL    HW171200  10.570  13.573  14.030
23101SOL    HW271201  10.603  13.721  14.034
23102SOL     OW71202   0.754   6.830   0.742
23102SOL    HW171203   0.816   6.889   0.785
23102SOL    HW271204   0.751   6.862   0.651
23103SOL     OW71205   9.226  13.150   1.249
23103SOL    HW171206   9.164  13.197   1.305
23103SOL    HW271207   9.297  13.212   1.234
23104SOL     OW71208   1.282   8.153   9.806
23104SOL    HW171209   1.197   8.197   9.801
23104SOL    HW271210   1.312   8.149   9.715
23105SOL     OW71211   2.875  13.326   0.358
23105SOL    HW171212   2.863  13.418   0.382
23105SOL    HW271213   2.787  13.292   0.348
23106SOL     OW71214  13.532   6.476   1.626
23106SOL    HW171215  13.565   6.394   1.589
23106SOL    HW271216  13.589   6.494   1.701
23107SOL     OW71217   8.507   9.356  11.996
23107SOL    HW171218   8.535   9.403  11.918
23107SOL    HW271219   8.493   9.425  12.061
23108SOL     OW71220  14.127  10.616   4.543
23108SOL    HW171221  14.109  10.531   4.503
23108SOL    HW271222  14.219  10.611   4.568
23109SOL     OW71223   7.946   1.121   1.728
23109SOL    HW171224   7.999   1.151   1.801
23109SOL    HW271225   7.967   1.028   1.719
23110SOL     OW71226   1.433   8.340  13.675
23110SOL    HW171227   1.404   8.298  13.755
23110SOL    HW271228   1.396   8.286  13.605
23111SOL     OW71229   7.500   7.024  12.096
23111SOL    HW171230   7.487   6.960  12.026
23111SOL    HW271231   7.585   7.064  12.077
23112SOL     OW71232   1.965  13.007   0.269
23112SOL    HW171233   1.911  12.944   0.221
23112SOL    HW271234   2.010  12.954   0.336
23113SOL     OW71235  12.320   5.783  12.993
23113SOL    HW171236  12.389   5.818  13.048
23113SOL    HW271237  12.240   5.826  13.024
23114SOL     OW71238   5.597  11.904   0.333
23114SOL    HW171239   5.564  11.958   0.405
23114SOL    HW271240   5.687  11.935   0.321
23115SOL     OW71241   9.648   1.722   9.109
23115SOL    HW171242   9.601   1.673   9.042
23115SOL    HW271243   9.641   1.667   9.188
23116SOL     OW71244  10.795   8.980  11.307
23116SOL    HW171245  10.784   8.885  11.317
23116SOL    HW271246  10.746   9.001  11.228
23117SOL     OW71247   2.081   4.873   9.256
23117SOL    HW171248   2.068   4.901   9.166
23117SOL    HW271249   2.086   4.777   9.251
23118SOL     OW71250   9.725  13.284   2.988
23118SOL    HW171251   9.721  13.365   3.040
23118SOL    HW271252   9.635  13.268   2.962
23119SOL     OW71253   6.355   5.426   0.582
23119SOL    HW171254   6.440   5.411   0.624
23119SOL    HW271255   6.332   5.516   0.607
23120SOL     OW71256   4.591   6.007   9.890
23120SOL    HW171257   4.590   6.080   9.951
23120SOL    HW271258   4.596   5.929   9.946
23121SOL     OW71259   1.304  14.362   0.153
23121SOL    HW171260   1.354  14.286   0.184
23121SOL    HW271261   1.283  14.411   0.232
23122SOL     OW71262   6.927  14.169  14.806
23122SOL    HW171263   6.964  14.257  14.815
23122SOL    HW271264   6.835  14.185  14.783
23123SOL     OW71265   5.106   7.703  10.697
23123SOL    HW171266   5.068   7.641  10.634
23123SOL    HW271267   5.037   7.716  10.762
23124SOL     OW71268   2.301   6.602   0.446
23124SOL    HW171269   2.282   6.695   0.436
23124SOL    HW271270   2.339   6.595   0.534
23125SOL     OW71271   9.200   7.295   4.514
23125SOL    HW171272   9.190   7.283   4.420
23125SOL    HW271273   9.111   7.308   4.547
23126SOL     OW71274   6.790   2.514   7.841
23126SOL    HW171275   6.754   2.498   7.928
23126SOL    HW271276   6.866   2.571   7.856
23127SOL     OW71277   1.595   4.254   2.609
23127SOL    HW171278   1.648   4.333   2.612
23127SOL    HW271279   1.657   4.183   2.622
23128SOL     OW71280   6.742  12.616   1.281
23128SOL    HW171281   6.814  12.611   1.344
23128SOL    HW271282   6.746  12.706   1.248
23129SOL     OW71283   4.419  10.905   9.471
23129SOL    HW171284   4.383  10.932   9.386
23129SOL    HW271285   4.359  10.839   9.503
23130SOL     OW71286  14.443   3.854   3.892
23130SOL    HW171287  14.435   3.947   3.915
23130SOL    HW271288  14.361   3.814   3.919
23131SOL     OW71289   6.928  14.506   5.263
23131SOL    HW171290   6.925  14.581   5.321
23131SOL    HW271291   6.892  14.434   5.315
23132SOL     OW71292  10.009   3.274  10.638
23132SOL    HW171293  10.093   3.237  10.665
23132SOL    HW271294   9.945   3.207  10.661
23133SOL     OW71295   8.237   2.724   8.808
23133SOL    HW171296   8.270   2.677   8.732
23133SOL    HW271297   8.295   2.800   8.817
23134SOL     OW71298  14.743   3.220   4.996
23134SOL    HW171299  14.837   3.234   5.011
23134SOL    HW271300  14.738   3.197   4.903
23135SOL     OW71301  12.740   9.477   9.821
23135SOL    HW171302  12.683   9.407   9.788
23135SOL    HW271303  12.688   9.520   9.888
23136SOL     OW71304  10.396  13.011  12.054
23136SOL    HW171305  10.357  13.097  12.064
23136SOL    HW271306  10.345  12.955  12.112
23137SOL     OW71307   4.514  10.804   9.808
23137SOL    HW171308   4.504  10.870   9.740
23137SOL    HW271309   4.592  10.830   9.856
23138SOL     OW71310   9.814   9.307   3.879
23138SOL    HW171311   9.828   9.374   3.947
23138SOL    HW271312   9.780   9.232   3.927
23139SOL     OW71313   1.981   1.539  11.876
23139SOL    HW171314   1.968   1.550  11.970
23139SOL    HW271315   2.069   1.572  11.859
23140SOL     OW71316  11.106   9.972   8.727
23140SOL    HW171317  11.036  10.021   8.684
23140SOL    HW271318  11.067   9.888   8.749
23141SOL     OW71319   9.955   0.295  10.104
23141SOL    HW171320   9.992   0.207  10.106
23141SOL    HW271321   9.938   0.316  10.196
23142SOL     OW71322   0.763   1.189  10.580
23142SOL    HW171323   0.785   1.145  10.662
23142SOL    HW271324   0.691   1.248  10.603
23143SOL     OW71325  13.260   2.654   7.644
23143SOL    HW171326  13.300   2.704   7.574
23143SOL    HW271327  13.323   2.660   7.717
23144SOL     OW71328   8.340   7.507  13.032
23144SOL    HW171329   8.304   7.551  12.956
23144SOL    HW271330   8.397   7.572  13.073
23145SOL     OW71331  11.012  10.890   6.950
23145SOL    HW171332  10.963  10.909   7.030
23145SOL    HW271333  11.103  10.882   6.979
23146SOL     OW71334   7.355  12.578   0.622
23146SOL    HW171335   7.391  12.499   0.582
23146SOL    HW271336   7.262  12.559   0.634
23147SOL     OW71337  11.511   8.365  10.008
23147SOL    HW171338  11.442   8.375   9.943
23147SOL    HW271339  11.522   8.452  10.046
23148SOL     OW71340   0.927   8.030   5.899
23148SOL    HW171341   0.864   7.978   5.848
23148SOL    HW271342   0.954   7.972   5.970
23149SOL     OW71343   0.438  12.094   5.971
23149SOL    HW171344   0.350  12.099   5.933
23149SOL    HW271345   0.495  12.131   5.904
23150SOL     OW71346   5.393   1.799  12.142
23150SOL    HW171347   5.328   1.765  12.203
23150SOL    HW271348   5.432   1.874  12.186
23151SOL     OW71349  13.083   7.727   4.521
23151SOL    HW171350  13.017   7.789   4.552
23151SOL    HW271351  13.167   7.768   4.539
23152SOL     OW71352   5.974   0.857  14.563
23152SOL    HW171353   5.964   0.912  14.486
23152SOL    HW271354   5.890   0.863  14.609
23153SOL     OW71355   4.280   5.381   2.189
23153SOL    HW171356   4.319   5.360   2.275
23153SOL    HW271357   4.330   5.456   2.158
23154SOL     OW71358   6.013   0.628   3.927
23154SOL    HW171359   5.949   0.698   3.933
23154SOL    HW271360   6.039   0.611   4.017
23155SOL     OW71361  10.627   5.923   6.223
23155SOL    HW171362  10.582   5.840   6.209
23155SOL    HW271363  10.574   5.988   6.175
23156SOL     OW71364   2.228   8.116  14.607
23156SOL    HW171365   2.179   8.189  14.644
23156SOL    HW271366   2.243   8.142  14.516
23157SOL     OW71367  11.689  14.437  14.117
23157SOL    HW171368  11.715  14.421  14.027
23157SOL    HW271369  11.721  14.525  14.137
23158SOL     OW71370   3.687   8.612  10.885
23158SOL    HW171371   3.633   8.544  10.845
23158SOL    HW271372   3.633   8.649  10.954
23159SOL     OW71373   9.416   5.132   6.979
23159SOL    HW171374   9.426   5.226   6.965
23159SOL    HW271375   9.332   5.124   7.024
23160SOL     OW71376  11.663   8.458  11.641
23160SOL    HW171377  11.571   8.478  11.659
23160SOL    HW271378  11.682   8.500  11.557
23161SOL     OW71379   4.528   0.561   5.192
23161SOL    HW171380   4.524   0.597   5.104
23161SOL    HW271381   4.465   0.489   5.192
23162SOL     OW71382   6.809  12.647   7.441
23162SOL    HW171383   6.714  12.636   7.433
23162SOL    HW271384   6.831  12.602   7.522
23163SOL     OW71385   9.155   6.491  13.701
23163SOL    HW171386   9.103   6.412  13.683
23163SOL    HW271387   9.165   6.533  13.616
23164SOL     OW71388  11.840   1.677   0.070
23164SOL    HW171389  11.819   1.767   0.096
23164SOL    HW271390  11.765   1.650   0.016
23165SOL     OW71391   7.127   9.438   1.998
23165SOL    HW171392   7.111   9.528   2.027
23165SOL    HW271393   7.221   9.425   2.012
23166SOL     OW71394   0.844   5.771  14.286
23166SOL    HW171395   0.815   5.681  14.276
23166SOL    HW271396   0.766   5.818  14.317
23167SOL     OW71397   7.285   6.043   1.196
23167SOL    HW171398   7.292   6.026   1.102
23167SOL    HW271399   7.362   6.096   1.216
23168SOL     OW71400  13.494  13.246  11.268
23168SOL    HW171401  13.554  13.314  11.298
23168SOL    HW271402  13.416  13.293  11.241
23169SOL     OW71403   1.733  13.541  12.778
23169SOL    HW171404   1.817  13.523  12.736
23169SOL    HW271405   1.753  13.548  12.871
23170SOL     OW71406  12.841   9.612   6.962
23170SOL    HW171407  12.759   9.629   7.008
23170SOL    HW271408  12.890   9.694   6.969
23171SOL     OW71409   2.312   5.524   9.328
23171SOL    HW171410   2.256   5.518   9.405
23171SOL    HW271411   2.263   5.480   9.259
23172SOL     OW71412   5.379   5.355  14.714
23172SOL    HW171413   5.450   5.320  14.660
23172SOL    HW271414   5.328   5.410  14.654
23173SOL     OW71415   5.710   3.985   8.330
23173SOL    HW171416   5.755   4.063   8.297
23173SOL    HW271417   5.703   3.927   8.255
23174SOL     OW71418  10.659   8.743   8.047
23174SOL    HW171419  10.738   8.786   8.015
23174SOL    HW271420  10.644   8.671   7.986
23175SOL     OW71421   6.576   1.469  13.007
23175SOL    HW171422   6.599   1.559  12.984
23175SOL    HW271423   6.492   1.454  12.963
23176SOL     OW71424  13.428  12.001   8.541
23176SOL    HW171425  13.494  12.054   8.585
23176SOL    HW271426  13.464  11.912   8.542
23177SOL     OW71427  13.501   5.509  11.311
23177SOL    HW171428  13.485   5.601  11.334
23177SOL    HW271429  13.447   5.495  11.233
23178SOL     OW71430   7.933   4.713   5.789
23178SOL    HW171431   7.912   4.663   5.709
23178SOL    HW271432   8.010   4.764   5.765
23179SOL     OW71433   9.208   5.195   5.425
23179SOL    HW171434   9.120   5.193   5.462
23179SOL    HW271435   9.230   5.103   5.410
23180SOL     OW71436   8.447  14.112   5.656
23180SOL    HW171437   8.402  14.171   5.716
23180SOL    HW271438   8.405  14.128   5.571
23181SOL     OW71439   6.165   2.955   1.046
23181SOL    HW171440   6.219   3.022   1.089
23181SOL    HW271441   6.172   2.878   1.104
23182SOL     OW71442  12.141   9.969   7.817
23182SOL    HW171443  12.053   9.988   7.785
23182SOL    HW271444  12.199  10.024   7.765
23183SOL     OW71445   5.855  14.408  10.047
23183SOL    HW171446   5.811  14.418  10.132
23183SOL    HW271447   5.829  14.320  10.019
23184SOL     OW71448  13.231  13.445   9.181
23184SOL    HW171449  13.222  13.498   9.102
23184SOL    HW271450  13.245  13.508   9.251
23185SOL     OW71451  14.694  11.449  12.626
23185SOL    HW171452  14.682  11.355  12.611
23185SOL    HW271453  14.611  11.478  12.664
23186SOL     OW71454  14.707   3.488   3.377
23186SOL    HW171455  14.785   3.446   3.341
23186SOL    HW271456  14.634   3.440   3.338
23187SOL     OW71457   2.965   6.154   7.459
23187SOL    HW171458   3.001   6.243   7.468
23187SOL    HW271459   2.893   6.164   7.397
23188SOL     OW71460   0.348   9.544   2.307
23188SOL    HW171461   0.410   9.617   2.306
23188SOL    HW271462   0.287   9.564   2.236
23189SOL     OW71463   7.551   3.751   4.440
23189SOL    HW171464   7.544   3.835   4.485
23189SOL    HW271465   7.487   3.695   4.485
23190SOL     OW71466   6.105  13.054   5.180
23190SOL    HW171467   6.198  13.075   5.181
23190SOL    HW271468   6.083  13.038   5.271
23191SOL     OW71469  12.878  11.738   8.331
23191SOL    HW171470  12.789  11.727   8.297
23191SOL    HW271471  12.933  11.735   8.253
23192SOL     OW71472   3.446   4.605   3.484
23192SOL    HW171473   3.397   4.594   3.565
23192SOL    HW271474   3.510   4.673   3.504
23193SOL     OW71475   6.641  13.053  13.452
23193SOL    HW171476   6.715  13.062  13.512
23193SOL    HW271477   6.626  13.141  13.419
23194SOL     OW71478  10.971  14.222  12.824
23194SOL    HW171479  11.005  14.311  12.817
23194SOL    HW271480  11.048  14.166  12.824
23195SOL     OW71481   7.830   1.104  12.084
23195SOL    HW171482   7.841   1.181  12.027
23195SOL    HW271483   7.757   1.056  12.044
23196SOL     OW71484   9.368   6.178   1.802
23196SOL    HW171485   9.401   6.113   1.740
23196SOL    HW271486   9.273   6.166   1.801
23197SOL     OW71487  10.556   7.624   6.943
23197SOL    HW171488  10.641   7.635   6.986
23197SOL    HW271489  10.518   7.547   6.984
23198SOL     OW71490  13.945  12.625   9.485
23198SOL    HW171491  13.967  12.697   9.544
23198SOL    HW271492  13.924  12.668   9.402
23199SOL     OW71493  10.590   0.338  10.953
23199SOL    HW171494  10.594   0.361  11.045
23199SOL    HW271495  10.679   0.309  10.931
23200SOL     OW71496   0.162   6.592   4.789
23200SOL    HW171497   0.219   6.668   4.774
23200SOL    HW271498   0.099   6.622   4.855
23201SOL     OW71499   7.720   2.962  13.052
23201SOL    HW171500   7.776   3.010  12.991
23201SOL    HW271501   7.673   3.031  13.100
23202SOL     OW71502   3.944  12.016   9.967
23202SOL    HW171503   4.038  12.034   9.967
23202SOL    HW271504   3.909  12.072  10.036
23203SOL     OW71505   9.739  14.369   9.848
23203SOL    HW171506   9.662  14.361   9.791
23203SOL    HW271507   9.750  14.281   9.884
23204SOL     OW71508   6.184   7.387   8.222
23204SOL    HW171509   6.280   7.382   8.226
23204SOL    HW271510   6.164   7.399   8.130
23205SOL     OW71511   5.894   9.959  11.709
23205SOL    HW171512   5.893  10.033  11.770
23205SOL    HW271513   5.806   9.923  11.712
23206SOL     OW71514  12.877   5.635   3.580
23206SOL    HW171515  12.937   5.697   3.622
23206SOL    HW271516  12.833   5.687   3.513
23207SOL     OW71517   3.420  12.265   5.589
23207SOL    HW171518   3.459  12.184   5.555
23207SOL    HW271519   3.420  12.254   5.684
23208SOL     OW71520   3.917   5.147  12.885
23208SOL    HW171521   3.990   5.209  12.877
23208SOL    HW271522   3.840   5.198  12.861
23209SOL     OW71523  11.382  12.368  12.461
23209SOL    HW171524  11.415  12.415  12.538
23209SOL    HW271525  11.443  12.391  12.391
23210SOL     OW71526   6.849  11.978   2.709
23210SOL    HW171527   6.862  12.005   2.800
23210SOL    HW271528   6.768  11.928   2.710
23211SOL     OW71529  14.580  12.207   9.884
23211SOL    HW171530  14.585  12.298   9.915
23211SOL    HW271531  14.500  12.204   9.832
23212SOL     OW71532   1.525   5.102   8.174
23212SOL    HW171533   1.580   5.034   8.212
23212SOL    HW271534   1.531   5.175   8.235
23213SOL     OW71535   2.658   3.701  14.013
23213SOL    HW171536   2.743   3.657  14.012
23213SOL    HW271537   2.649   3.735  14.102
23214SOL     OW71538   4.131   3.714   4.689
23214SOL    HW171539   4.180   3.636   4.664
23214SOL    HW271540   4.101   3.751   4.606
23215SOL     OW71541   9.622   1.500   1.433
23215SOL    HW171542   9.662   1.559   1.369
23215SOL    HW271543   9.529   1.501   1.412
23216SOL     OW71544  10.895   6.167   2.137
23216SOL    HW171545  10.847   6.245   2.164
23216SOL    HW271546  10.843   6.129   2.067
23217SOL     OW71547   3.763   3.371   0.904
23217SOL    HW171548   3.847   3.417   0.901
23217SOL    HW271549   3.729   3.377   0.815
23218SOL     OW71550   4.117   4.690  14.491
23218SOL    HW171551   4.153   4.729  14.411
23218SOL    HW271552   4.024   4.712  14.488
23219SOL     OW71553   5.408   3.979   5.416
23219SOL    HW171554   5.313   3.983   5.403
23219SOL    HW271555   5.418   3.948   5.506
23220SOL     OW71556   3.617  11.645  13.787
23220SOL    HW171557   3.684  11.600  13.840
23220SOL    HW271558   3.645  11.737  13.786
23221SOL     OW71559   9.533   3.882  12.488
23221SOL    HW171560   9.614   3.865  12.536
23221SOL    HW271561   9.561   3.896  12.398
23222SOL     OW71562  14.502   5.471   7.325
23222SOL    HW171563  14.432   5.496   7.265
23222SOL    HW271564  14.579   5.459   7.270
23223SOL     OW71565   7.185   9.744   9.079
23223SOL    HW171566   7.224   9.657   9.083
23223SOL    HW271567   7.259   9.804   9.091
23224SOL     OW71568  10.125  12.821   8.310
23224SOL    HW171569  10.137  12.858   8.222
23224SOL    HW271570  10.084  12.736   8.296
23225SOL     OW71571  12.202   8.786   1.827
23225SOL    HW171572  12.257   8.821   1.897
23225SOL    HW271573  12.222   8.841   1.751
23226SOL     OW71574   3.009   2.427   3.974
23226SOL    HW171575   2.944   2.451   4.040
23226SOL    HW271576   2.981   2.473   3.895
23227SOL     OW71577  14.821   2.497   4.282
23227SOL    HW171578  14.857   2.572   4.235
23227SOL    HW271579  14.830   2.424   4.221
23228SOL     OW71580  10.660   6.130   8.069
23228SOL    HW171581  10.755   6.134   8.060
23228SOL    HW271582  10.634   6.059   8.010
23229SOL     OW71583   8.480   9.476  12.662
23229SOL    HW171584   8.561   9.505  12.704
23229SOL    HW271585   8.507   9.404  12.606
23230SOL     OW71586   8.763   6.540   8.966
23230SOL    HW171587   8.837   6.535   9.027
23230SOL    HW271588   8.799   6.509   8.883
23231SOL     OW71589   0.251   9.450   9.350
23231SOL    HW171590   0.264   9.543   9.365
23231SOL    HW271591   0.181   9.445   9.285
23232SOL     OW71592   2.317   8.818  13.974
23232SOL    HW171593   2.368   8.895  13.996
23232SOL    HW271594   2.322   8.813  13.878
23233SOL     OW71595  10.803   0.482  13.549
23233SOL    HW171596  10.762   0.398  13.526
23233SOL    HW271597  10.798   0.534  13.468
23234SOL     OW71598   4.709   1.398   0.787
23234SOL    HW171599   4.678   1.377   0.699
23234SOL    HW271600   4.803   1.380   0.784
23235SOL     OW71601  13.680   5.271   9.325
23235SOL    HW171602  13.736   5.239   9.254
23235SOL    HW271603  13.644   5.192   9.365
23236SOL     OW71604  10.679   4.571  12.863
23236SOL    HW171605  10.746   4.637  12.876
23236SOL    HW271606  10.674   4.559  12.768
23237SOL     OW71607   3.516  11.275   5.151
23237SOL    HW171608   3.496  11.182   5.135
23237SOL    HW271609   3.439  11.309   5.196
23238SOL     OW71610  11.154  12.619   9.126
23238SOL    HW171611  11.193  12.593   9.210
23238SOL    HW271612  11.106  12.541   9.098
23239SOL     OW71613  11.169   4.386   2.659
23239SOL    HW171614  11.124   4.465   2.630
23239SOL    HW271615  11.254   4.417   2.691
23240SOL     OW71616   0.453   4.783   1.798
23240SOL    HW171617   0.506   4.847   1.752
23240SOL    HW271618   0.443   4.710   1.737
23241SOL     OW71619   3.849   4.102   5.419
23241SOL    HW171620   3.876   4.027   5.471
23241SOL    HW271621   3.828   4.066   5.333
23242SOL     OW71622  10.140   1.142   0.569
23242SOL    HW171623  10.210   1.187   0.522
23242SOL    HW271624  10.065   1.201   0.565
23243SOL     OW71625   2.334  14.140   7.231
23243SOL    HW171626   2.300  14.053   7.251
23243SOL    HW271627   2.287  14.167   7.152
23244SOL     OW71628   5.499  11.163  12.590
23244SOL    HW171629   5.509  11.121  12.505
23244SOL    HW271630   5.443  11.239  12.572
23245SOL     OW71631   4.080   4.142   7.156
23245SOL    HW171632   4.117   4.207   7.217
23245SOL    HW271633   3.987   4.165   7.150
23246SOL     OW71634   5.049  12.765  13.509
23246SOL    HW171635   5.006  12.846  13.482
23246SOL    HW271636   5.004  12.738  13.589
23247SOL     OW71637   0.360   3.357   1.681
23247SOL    HW171638   0.391   3.267   1.679
23247SOL    HW271639   0.280   3.357   1.629
23248SOL     OW71640   6.119   2.980  14.280
23248SOL    HW171641   6.168   2.924  14.219
23248SOL    HW271642   6.126   2.935  14.364
23249SOL     OW71643   4.501   7.457   5.114
23249SOL    HW171644   4.523   7.487   5.202
23249SOL    HW271645   4.517   7.363   5.116
23250SOL     OW71646   8.631   2.323   2.108
23250SOL    HW171647   8.636   2.228   2.102
23250SOL    HW271648   8.613   2.352   2.019
23251SOL     OW71649  11.087   7.517   1.422
23251SOL    HW171650  11.044   7.601   1.436
23251SOL    HW271651  11.178   7.532   1.448
23252SOL     OW71652   7.662  10.341  13.774
23252SOL    HW171653   7.740  10.323  13.721
23252SOL    HW271654   7.602  10.269  13.754
23253SOL     OW71655   6.472  10.057  13.649
23253SOL    HW171656   6.474  10.043  13.555
23253SOL    HW271657   6.551  10.014  13.681
23254SOL     OW71658   8.498   0.535   6.346
23254SOL    HW171659   8.476   0.622   6.313
23254SOL    HW271660   8.423   0.509   6.399
23255SOL     OW71661   9.536  13.536   3.568
23255SOL    HW171662   9.493  13.464   3.522
23255SOL    HW271663   9.488  13.544   3.651
23256SOL     OW71664  14.304   4.585   3.749
23256SOL    HW171665  14.208   4.591   3.755
23256SOL    HW271666  14.322   4.579   3.655
23257SOL     OW71667  14.809   8.279  11.337
23257SOL    HW171668  14.796   8.233  11.255
23257SOL    HW271669   0.020   8.306  11.336
23258SOL     OW71670   4.975  13.931   2.406
23258SOL    HW171671   4.973  13.955   2.498
23258SOL    HW271672   5.063  13.956   2.377
23259SOL     OW71673  13.436   7.926   0.805
23259SOL    HW171674  13.460   7.833   0.798
23259SOL    HW271675  13.412   7.938   0.897
23260SOL     OW71676  11.766  13.675  10.152
23260SOL    HW171677  11.848  13.650  10.110
23260SOL    HW271678  11.701  13.670  10.081
23261SOL     OW71679   7.127  14.295  13.302
23261SOL    HW171680   7.137  14.203  13.329
23261SOL    HW271681   7.049  14.325  13.348
23262SOL     OW71682  13.023   9.988   3.115
23262SOL    HW171683  12.986   9.947   3.194
23262SOL    HW271684  12.946  10.009   3.062
23263SOL     OW71685   2.381  11.662   6.698
23263SOL    HW171686   2.389  11.625   6.786
23263SOL    HW271687   2.326  11.600   6.650
23264SOL     OW71688   1.993   4.964   4.328
23264SOL    HW171689   2.058   4.914   4.377
23264SOL    HW271690   2.022   5.055   4.335
23265SOL     OW71691  12.510  11.534  13.672
23265SOL    HW171692  12.472  11.473  13.735
23265SOL    HW271693  12.603  11.538  13.694
23266SOL     OW71694   5.393   0.850  13.270
23266SOL    HW171695   5.419   0.932  13.230
23266SOL    HW271696   5.407   0.784  13.201
23267SOL     OW71697   3.319   3.337   3.507
23267SOL    HW171698   3.355   3.416   3.468
23267SOL    HW271699   3.353   3.337   3.597
23268SOL     OW71700   8.935   4.495   0.763
23268SOL    HW171701   8.853   4.451   0.743
23268SOL    HW271702   9.000   4.425   0.766
23269SOL     OW71703   8.167   2.305   8.628
23269SOL    HW171704   8.206   2.241   8.568
23269SOL    HW271705   8.090   2.337   8.582
23270SOL     OW71706   0.855  13.388  12.294
23270SOL    HW171707   0.765  13.421  12.290
23270SOL    HW271708   0.909  13.466  12.306
23271SOL     OW71709   8.618   9.130   8.326
23271SOL    HW171710   8.605   9.116   8.420
23271SOL    HW271711   8.691   9.073   8.303
23272SOL     OW71712  11.191   6.093   0.717
23272SOL    HW171713  11.157   6.086   0.806
23272SOL    HW271714  11.113   6.094   0.661
23273SOL     OW71715   3.915   9.313  10.620
23273SOL    HW171716   3.964   9.246  10.667
23273SOL    HW271717   3.909   9.386  10.683
23274SOL     OW71718   1.475   4.081   8.868
23274SOL    HW171719   1.386   4.066   8.898
23274SOL    HW271720   1.530   4.041   8.935
23275SOL     OW71721  12.487  10.454   9.924
23275SOL    HW171722  12.576  10.489   9.916
23275SOL    HW271723  12.465  10.426   9.835
23276SOL     OW71724   3.215  13.150  10.767
23276SOL    HW171725   3.155  13.173  10.837
23276SOL    HW271726   3.227  13.230  10.717
23277SOL     OW71727   3.226  11.200  10.192
23277SOL    HW171728   3.263  11.279  10.233
23277SOL    HW271729   3.159  11.233  10.133
23278SOL     OW71730  13.151   9.120  10.851
23278SOL    HW171731  13.108   9.180  10.912
23278SOL    HW271732  13.231   9.093  10.896
23279SOL     OW71733   7.074  13.952   9.328
23279SOL    HW171734   6.992  13.912   9.300
23279SOL    HW271735   7.117  13.979   9.247
23280SOL     OW71736   1.180   5.921   9.791
23280SOL    HW171737   1.216   5.868   9.720
23280SOL    HW271738   1.246   5.917   9.860
23281SOL     OW71739   6.451  11.574   2.416
23281SOL    HW171740   6.512  11.513   2.458
23281SOL    HW271741   6.508  11.636   2.368
23282SOL     OW71742   8.851   9.482   0.836
23282SOL    HW171743   8.813   9.553   0.784
23282SOL    HW271744   8.813   9.494   0.923
23283SOL     OW71745  12.492   6.828   8.111
23283SOL    HW171746  12.462   6.804   8.199
23283SOL    HW271747  12.422   6.800   8.053
23284SOL     OW71748   2.593   8.639   0.720
23284SOL    HW171749   2.649   8.671   0.791
23284SOL    HW271750   2.505   8.640   0.757
23285SOL     OW71751   0.069  12.907   6.503
23285SOL    HW171752   0.070  13.001   6.524
23285SOL    HW271753  14.857  12.888   6.486
23286SOL     OW71754   9.019   2.430   1.190
23286SOL    HW171755   9.094   2.482   1.218
23286SOL    HW271756   9.056   2.363   1.133
23287SOL     OW71757  13.804   5.719   9.234
23287SOL    HW171758  13.809   5.627   9.210
23287SOL    HW271759  13.893   5.742   9.260
23288SOL     OW71760   7.524  14.847  14.180
23288SOL    HW171761   7.434  14.829  14.210
23288SOL    HW271762   7.541  14.780  14.114
23289SOL     OW71763   0.308   0.731  11.580
23289SOL    HW171764   0.396   0.736  11.616
23289SOL    HW271765   0.310   0.786  11.503
23290SOL     OW71766   1.008   6.870   8.483
23290SOL    HW171767   1.016   6.820   8.401
23290SOL    HW271768   1.077   6.836   8.539
23291SOL     OW71769   2.478   0.269   0.222
23291SOL    HW171770   2.486   0.357   0.258
23291SOL    HW271771   2.432   0.219   0.289
23292SOL     OW71772   1.075  13.711   1.567
23292SOL    HW171773   1.030  13.661   1.635
23292SOL    HW271774   1.006  13.736   1.506
23293SOL     OW71775   5.919   1.321  10.377
23293SOL    HW171776   5.901   1.227  10.387
23293SOL    HW271777   5.909   1.356  10.465
23294SOL     OW71778  10.685   8.350   8.698
23294SOL    HW171779  10.696   8.444   8.683
23294SOL    HW271780  10.619   8.344   8.767
23295SOL     OW71781  10.632   9.376   6.283
23295SOL    HW171782  10.683   9.457   6.287
23295SOL    HW271783  10.698   9.306   6.277
23296SOL     OW71784  10.323   3.591   0.517
23296SOL    HW171785  10.366   3.571   0.601
23296SOL    HW271786  10.304   3.505   0.479
23297SOL     OW71787   9.433  12.455   3.770
23297SOL    HW171788   9.344  12.463   3.806
23297SOL    HW271789   9.432  12.370   3.725
23298SOL     OW71790   0.644   0.621  12.426
23298SOL    HW171791   0.737   0.644  12.420
23298SOL    HW271792   0.611   0.628  12.337
23299SOL     OW71793   9.598   4.430  11.808
23299SOL    HW171794   9.556   4.378  11.877
23299SOL    HW271795   9.580   4.382  11.727
23300SOL     OW71796   8.194  14.469  10.158
23300SOL    HW171797   8.196  14.540  10.222
23300SOL    HW271798   8.108  14.475  10.118
23301SOL     OW71799   0.719   7.260   1.060
23301SOL    HW171800   0.754   7.297   1.141
23301SOL    HW271801   0.774   7.183   1.044
23302SOL     OW71802  11.367  14.066   6.505
23302SOL    HW171803  11.282  14.101   6.479
23302SOL    HW271804  11.423  14.080   6.429
23303SOL     OW71805   1.694   8.444   6.890
23303SOL    HW171806   1.661   8.529   6.859
23303SOL    HW271807   1.676   8.445   6.984
23304SOL     OW71808   4.886   0.400   0.248
23304SOL    HW171809   4.794   0.404   0.276
23304SOL    HW271810   4.897   0.476   0.191
23305SOL     OW71811   8.163   7.850   3.849
23305SOL    HW171812   8.205   7.803   3.778
23305SOL    HW271813   8.081   7.883   3.811
23306SOL     OW71814  10.809   8.479   3.079
23306SOL    HW171815  10.763   8.402   3.045
23306SOL    HW271816  10.801   8.472   3.174
23307SOL     OW71817   6.475  12.941   5.168
23307SOL    HW171818   6.448  12.990   5.246
23307SOL    HW271819   6.527  12.869   5.203
23308SOL     OW71820  10.280  13.945   7.894
23308SOL    HW171821  10.273  13.851   7.905
23308SOL    HW271822  10.279  13.959   7.799
23309SOL     OW71823   5.936  10.662  10.135
23309SOL    HW171824   5.847  10.630  10.123
23309SOL    HW271825   5.942  10.681  10.229
23310SOL     OW71826   9.360  10.462   0.237
23310SOL    HW171827   9.435  10.480   0.180
23310SOL    HW271828   9.311  10.393   0.191
23311SOL     OW71829   2.076  12.247   1.508
23311SOL    HW171830   2.132  12.311   1.464
23311SOL    HW271831   2.135  12.201   1.568
23312SOL     OW71832   6.794   3.242   5.660
23312SOL    HW171833   6.866   3.183   5.684
23312SOL    HW271834   6.760   3.206   5.578
23313SOL     OW71835  13.492  14.871  12.197
23313SOL    HW171836  13.451  14.831  12.121
23313SOL    HW271837  13.440  14.842  12.272
23314SOL     OW71838   4.793   1.560   3.075
23314SOL    HW171839   4.866   1.545   3.016
23314SOL    HW271840   4.829   1.613   3.146
23315SOL     OW71841   6.583  12.764   1.518
23315SOL    HW171842   6.602  12.852   1.550
23315SOL    HW271843   6.644  12.707   1.567
23316SOL     OW71844  10.762  12.778  14.502
23316SOL    HW171845  10.706  12.721  14.554
23316SOL    HW271846  10.733  12.764  14.412
23317SOL     OW71847   2.821   2.444   5.809
23317SOL    HW171848   2.758   2.373   5.824
23317SOL    HW271849   2.849   2.433   5.718
23318SOL     OW71850  11.746   5.862   1.998
23318SOL    HW171851  11.788   5.947   1.983
23318SOL    HW271852  11.776   5.836   2.085
23319SOL     OW71853  11.444   9.898   5.178
23319SOL    HW171854  11.441   9.985   5.218
23319SOL    HW271855  11.530   9.894   5.136
23320SOL     OW71856   2.414   1.315   4.885
23320SOL    HW171857   2.453   1.313   4.798
23320SOL    HW271858   2.335   1.260   4.877
23321SOL     OW71859   6.547  12.899  14.637
23321SOL    HW171860   6.561  12.961  14.709
23321SOL    HW271861   6.529  12.815  14.681
23322SOL     OW71862   8.168   3.306   7.337
23322SOL    HW171863   8.097   3.242   7.337
23322SOL    HW271864   8.210   3.294   7.423
23323SOL     OW71865  13.433   2.700   2.643
23323SOL    HW171866  13.466   2.784   2.674
23323SOL    HW271867  13.407   2.716   2.553
23324SOL     OW71868   7.042   6.712   7.441
23324SOL    HW171869   7.046   6.617   7.450
23324SOL    HW271870   7.074   6.746   7.525
23325SOL     OW71871  14.700   1.838   9.624
23325SOL    HW171872  14.654   1.754   9.630
23325SOL    HW271873  14.740   1.838   9.537
23326SOL     OW71874   0.438   5.133  14.800
23326SOL    HW171875   0.453   5.162  14.710
23326SOL    HW271876   0.408   5.211  14.846
23327SOL     OW71877  14.854  13.872   5.266
23327SOL    HW171878   0.066  13.891   5.286
23327SOL    HW271879  14.858  13.789   5.217
23328SOL     OW71880  12.809   7.610  11.051
23328SOL    HW171881  12.758   7.590  10.972
23328SOL    HW271882  12.743   7.634  11.116
23329SOL     OW71883  13.256   6.592   9.301
23329SOL    HW171884  13.248   6.652   9.227
23329SOL    HW271885  13.216   6.639   9.375
23330SOL     OW71886   5.856   4.635   4.108
23330SOL    HW171887   5.923   4.702   4.119
23330SOL    HW271888   5.882   4.565   4.168
23331SOL     OW71889   6.190  14.150   9.792
23331SOL    HW171890   6.168  14.062   9.821
23331SOL    HW271891   6.209  14.140   9.699
23332SOL     OW71892  11.236   7.866   5.426
23332SOL    HW171893  11.258   7.885   5.517
23332SOL    HW271894  11.220   7.952   5.387
23333SOL     OW71895   0.237   3.885   4.675
23333SOL    HW171896   0.144   3.908   4.669
23333SOL    HW271897   0.237   3.789   4.680
23334SOL     OW71898  10.719   8.687  10.823
23334SOL    HW171899  10.801   8.649  10.792
23334SOL    HW271900  10.656   8.614  10.819
23335SOL     OW71901   2.294   8.319   2.071
23335SOL    HW171902   2.258   8.364   2.147
23335SOL    HW271903   2.381   8.290   2.099
23336SOL     OW71904  10.900  13.344   1.631
23336SOL    HW171905  10.879  13.433   1.602
23336SOL    HW271906  10.855  13.287   1.568
23337SOL     OW71907  14.124   5.391   1.953
23337SOL    HW171908  14.103   5.480   1.981
23337SOL    HW271909  14.048   5.362   1.903
23338SOL     OW71910   1.256   9.146   2.240
23338SOL    HW171911   1.335   9.093   2.233
23338SOL    HW271912   1.184   9.083   2.243
23339SOL     OW71913   1.766   7.737   3.695
23339SOL    HW171914   1.782   7.656   3.744
23339SOL    HW271915   1.753   7.708   3.605
23340SOL     OW71916   4.567   7.234  11.352
23340SOL    HW171917   4.631   7.184  11.401
23340SOL    HW271918   4.482   7.200  11.382
23341SOL     OW71919   5.398   9.690   6.095
23341SOL    HW171920   5.471   9.750   6.076
23341SOL    HW271921   5.377   9.708   6.187
23342SOL     OW71922   3.701   4.950   4.911
23342SOL    HW171923   3.668   5.039   4.915
23342SOL    HW271924   3.766   4.951   4.840
23343SOL     OW71925   9.311   4.400   4.749
23343SOL    HW171926   9.258   4.321   4.739
23343SOL    HW271927   9.286   4.455   4.675
23344SOL     OW71928  11.501   2.714   5.254
23344SOL    HW171929  11.443   2.643   5.227
23344SOL    HW271930  11.587   2.689   5.220
23345SOL     OW71931   9.469   0.049   2.581
23345SOL    HW171932   9.450  14.837   2.564
23345SOL    HW271933   9.462   0.057   2.676
23346SOL     OW71934  12.794   3.080   4.594
23346SOL    HW171935  12.882   3.079   4.630
23346SOL    HW271936  12.756   3.162   4.623
23347SOL     OW71937  13.262  13.897  13.005
23347SOL    HW171938  13.345  13.876  12.963
23347SOL    HW271939  13.272  13.865  13.095
23348SOL     OW71940   6.664   4.302   6.020
23348SOL    HW171941   6.728   4.362   6.057
23348SOL    HW271942   6.584   4.316   6.070
23349SOL     OW71943  10.124   6.320  11.615
23349SOL    HW171944  10.134   6.409  11.649
23349SOL    HW271945  10.201   6.306  11.560
23350SOL     OW71946   0.330   2.958  12.511
23350SOL    HW171947   0.302   2.994  12.426
23350SOL    HW271948   0.418   2.992  12.524
23351SOL     OW71949  10.441   8.067  12.409
23351SOL    HW171950  10.536   8.063  12.395
23351SOL    HW271951  10.430   8.055  12.503
23352SOL     OW71952   2.019   0.867   6.409
23352SOL    HW171953   2.057   0.813   6.340
23352SOL    HW271954   2.029   0.957   6.378
23353SOL     OW71955   8.548  14.405   5.479
23353SOL    HW171956   8.458  14.432   5.499
23353SOL    HW271957   8.539  14.318   5.441
23354SOL     OW71958  11.386   5.009   9.753
23354SOL    HW171959  11.402   5.093   9.795
23354SOL    HW271960  11.434   4.946   9.807
23355SOL     OW71961   8.788   9.734   1.138
23355SOL    HW171962   8.748   9.647   1.142
23355SOL    HW271963   8.839   9.740   1.219
23356SOL     OW71964   4.144  11.968  14.597
23356SOL    HW171965   4.148  12.011  14.682
23356SOL    HW271966   4.057  11.928  14.594
23357SOL     OW71967   8.998   2.389   9.714
23357SOL    HW171968   8.922   2.406   9.658
23357SOL    HW271969   9.063   2.351   9.655
23358SOL     OW71970   7.764   6.905   7.795
23358SOL    HW171971   7.687   6.871   7.750
23358SOL    HW271972   7.780   6.842   7.865
23359SOL     OW71973  10.103   1.029   4.364
23359SOL    HW171974  10.167   1.068   4.304
23359SOL    HW271975  10.153   0.962   4.411
23360SOL     OW71976  10.936   8.041  14.191
23360SOL    HW171977  10.878   8.109  14.225
23360SOL    HW271978  10.880   7.965  14.180
23361SOL     OW71979   4.259   7.746   0.156
23361SOL    HW171980   4.187   7.727   0.095
23361SOL    HW271981   4.217   7.750   0.242
23362SOL     OW71982  13.600   0.181   6.259
23362SOL    HW171983  13.576   0.088   6.261
23362SOL    HW271984  13.548   0.220   6.329
23363SOL     OW71985  14.453  12.012   3.903
23363SOL    HW171986  14.463  12.092   3.852
23363SOL    HW271987  14.399  12.037   3.977
23364SOL     OW71988   5.358   3.472   1.324
23364SOL    HW171989   5.300   3.540   1.289
23364SOL    HW271990   5.298   3.410   1.367
23365SOL     OW71991   1.263   6.467   2.531
23365SOL    HW171992   1.255   6.558   2.505
23365SOL    HW271993   1.212   6.419   2.466
23366SOL     OW71994   4.023  14.553   7.152
23366SOL    HW171995   4.056  14.468   7.124
23366SOL    HW271996   4.102  14.603   7.173
23367SOL     OW71997   1.211   3.912  12.352
23367SOL    HW171998   1.199   3.854  12.277
23367SOL    HW271999   1.306   3.911  12.369
23368SOL     OW72000  10.711  13.850  11.631
23368SOL    HW172001  10.720  13.846  11.536
23368SOL    HW272002  10.801  13.865  11.662
23369SOL     OW72003  14.024   8.696   3.963
23369SOL    HW172004  14.034   8.778   3.915
23369SOL    HW272005  14.055   8.629   3.902
23370SOL     OW72006   1.167  14.601  11.934
23370SOL    HW172007   1.155  14.632  12.024
23370SOL    HW272008   1.248  14.550  11.937
23371SOL     OW72009   1.228   4.225   3.461
23371SOL    HW172010   1.176   4.156   3.501
23371SOL    HW272011   1.278   4.262   3.534
23372SOL     OW72012   9.395   8.958  14.401
23372SOL    HW172013   9.457   8.988  14.467
23372SOL    HW272014   9.438   8.884  14.359
23373SOL     OW72015  10.344   7.401   6.160
23373SOL    HW172016  10.280   7.444   6.216
23373SOL    HW272017  10.429   7.419   6.201
23374SOL     OW72018   7.380   4.227   4.345
23374SOL    HW172019   7.387   4.282   4.267
23374SOL    HW272020   7.296   4.182   4.335
23375SOL     OW72021   0.061   2.172   6.146
23375SOL    HW172022   0.037   2.104   6.083
23375SOL    HW272023   0.042   2.255   6.100
23376SOL     OW72024  10.933   0.897   4.019
23376SOL    HW172025  10.918   0.970   3.959
23376SOL    HW272026  10.993   0.839   3.972
23377SOL     OW72027  11.538   4.185  11.712
23377SOL    HW172028  11.461   4.231  11.745
23377SOL    HW272029  11.546   4.108  11.769
23378SOL     OW72030   0.830   3.778  13.000
23378SOL    HW172031   0.767   3.725  13.049
23378SOL    HW272032   0.880   3.715  12.949
23379SOL     OW72033   9.032   1.729   1.449
23379SOL    HW172034   8.937   1.723   1.442
23379SOL    HW272035   9.057   1.653   1.502
23380SOL     OW72036   7.969   9.223  12.626
23380SOL    HW172037   7.996   9.276  12.701
23380SOL    HW272038   8.030   9.246  12.557
23381SOL     OW72039   2.400   3.949  10.090
23381SOL    HW172040   2.367   3.894  10.019
23381SOL    HW272041   2.489   3.972  10.064
23382SOL     OW72042   2.071   7.487   3.302
23382SOL    HW172043   2.062   7.495   3.397
23382SOL    HW272044   2.077   7.393   3.286
23383SOL     OW72045  13.778   4.991   5.968
23383SOL    HW172046  13.836   5.012   6.041
23383SOL    HW272047  13.691   4.983   6.009
23384SOL     OW72048   5.162   5.723   1.074
23384SOL    HW172049   5.136   5.645   1.026
23384SOL    HW272050   5.255   5.734   1.053
23385SOL     OW72051  11.011  13.025   1.828
23385SOL    HW172052  10.964  13.080   1.765
23385SOL    HW272053  10.994  12.935   1.798
23386SOL     OW72054   8.940   2.972  10.167
23386SOL    HW172055   8.873   3.007  10.108
23386SOL    HW272056   8.976   3.048  10.211
23387SOL     OW72057   9.421   7.172   2.718
23387SOL    HW172058   9.496   7.141   2.769
23387SOL    HW272059   9.381   7.093   2.683
23388SOL     OW72060  12.294   5.262   4.311
23388SOL    HW172061  12.203   5.273   4.282
23388SOL    HW272062  12.336   5.215   4.239
23389SOL     OW72063   1.839   4.218  10.404
23389SOL    HW172064   1.837   4.187  10.314
23389SOL    HW272065   1.753   4.196  10.440
23390SOL     OW72066   1.272   4.933   5.684
23390SOL    HW172067   1.323   4.860   5.652
23390SOL    HW272068   1.283   5.002   5.618
23391SOL     OW72069   2.434  11.169   0.375
23391SOL    HW172070   2.425  11.094   0.317
23391SOL    HW272071   2.529  11.184   0.379
23392SOL     OW72072   6.978   7.875   3.764
23392SOL    HW172073   6.936   7.960   3.778
23392SOL    HW272074   6.906   7.816   3.740
23393SOL     OW72075  10.674   0.546   2.439
23393SOL    HW172076  10.633   0.495   2.509
23393SOL    HW272077  10.702   0.481   2.375
23394SOL     OW72078   3.074  14.119   8.971
23394SOL    HW172079   2.998  14.061   8.975
23394SOL    HW272080   3.090  14.144   9.061
23395SOL     OW72081   9.200   8.995   5.865
23395SOL    HW172082   9.196   9.057   5.937
23395SOL    HW272083   9.111   8.961   5.857
23396SOL     OW72084   9.739  14.512  13.484
23396SOL    HW172085   9.646  14.532  13.494
23396SOL    HW272086   9.783  14.595  13.501
23397SOL     OW72087   3.199   4.349  11.635
23397SOL    HW172088   3.200   4.415  11.704
23397SOL    HW272089   3.285   4.354  11.594
23398SOL     OW72090   0.413  14.334   2.727
23398SOL    HW172091   0.457  14.368   2.805
23398SOL    HW272092   0.467  14.363   2.654
23399SOL     OW72093   1.723   2.670   2.399
23399SOL    HW172094   1.805   2.634   2.433
23399SOL    HW272095   1.663   2.595   2.396
23400SOL     OW72096  14.027   7.516   8.619
23400SOL    HW172097  14.090   7.573   8.575
23400SOL    HW272098  14.075   7.434   8.632
23401SOL     OW72099   5.733   3.095  13.254
23401SOL    HW172100   5.815   3.144  13.256
23401SOL    HW272101   5.695   3.107  13.341
23402SOL     OW72102   8.247  12.330  12.876
23402SOL    HW172103   8.177  12.338  12.812
23402SOL    HW272104   8.254  12.236  12.893
23403SOL     OW72105  14.662  12.314   8.095
23403SOL    HW172106  14.677  12.225   8.064
23403SOL    HW272107  14.704  12.369   8.028
23404SOL     OW72108   5.724   1.169   6.401
23404SOL    HW172109   5.669   1.093   6.422
23404SOL    HW272110   5.692   1.199   6.316
23405SOL     OW72111   8.940  12.511  14.611
23405SOL    HW172112   8.980  12.576  14.553
23405SOL    HW272113   8.917  12.438  14.554
23406SOL     OW72114  10.167   7.638  12.316
23406SOL    HW172115  10.218   7.635  12.397
23406SOL    HW272116  10.206   7.710  12.266
23407SOL     OW72117  12.544   3.700  13.452
23407SOL    HW172118  12.532   3.792  13.475
23407SOL    HW272119  12.630   3.697  13.409
23408SOL     OW72120   6.424  12.245   1.182
23408SOL    HW172121   6.502  12.297   1.204
23408SOL    HW272122   6.361  12.309   1.148
23409SOL     OW72123   7.682   7.963   0.442
23409SOL    HW172124   7.611   7.999   0.389
23409SOL    HW272125   7.693   8.027   0.513
23410SOL     OW72126   2.320   3.458  14.194
23410SOL    HW172127   2.400   3.465  14.142
23410SOL    HW272128   2.329   3.375  14.241
23411SOL     OW72129   7.941  10.569   7.789
23411SOL    HW172130   8.003  10.506   7.826
23411SOL    HW272131   7.989  10.610   7.717
23412SOL     OW72132   4.005   7.156  14.377
23412SOL    HW172133   3.921   7.173  14.419
23412SOL    HW272134   3.988   7.082  14.318
23413SOL     OW72135   1.430   8.364   3.736
23413SOL    HW172136   1.482   8.300   3.688
23413SOL    HW272137   1.434   8.334   3.827
23414SOL     OW72138  11.645   3.419   7.662
23414SOL    HW172139  11.648   3.459   7.575
23414SOL    HW272140  11.736   3.397   7.681
23415SOL     OW72141   8.388   2.520  10.921
23415SOL    HW172142   8.443   2.585  10.965
23415SOL    HW272143   8.398   2.440  10.974
23416SOL     OW72144   2.646   7.780   2.990
23416SOL    HW172145   2.592   7.822   3.057
23416SOL    HW272146   2.724   7.749   3.038
23417SOL     OW72147   4.369   2.148   7.802
23417SOL    HW172148   4.395   2.217   7.741
23417SOL    HW272149   4.403   2.177   7.887
23418SOL     OW72150   6.936   0.292   0.033
23418SOL    HW172151   6.980   0.355   0.091
23418SOL    HW272152   6.884   0.238   0.091
23419SOL     OW72153  10.155   3.416  14.565
23419SOL    HW172154  10.163   3.501  14.608
23419SOL    HW272155  10.236   3.408  14.513
23420SOL     OW72156   4.856   5.962  10.689
23420SOL    HW172157   4.767   5.967  10.654
23420SOL    HW272158   4.910   6.004  10.623
23421SOL     OW72159  11.025   3.984  14.578
23421SOL    HW172160  11.083   4.013  14.508
23421SOL    HW272161  10.991   3.900  14.548
23422SOL     OW72162   5.094   7.013   2.102
23422SOL    HW172163   5.175   6.987   2.058
23422SOL    HW272164   5.100   7.109   2.108
23423SOL     OW72165   9.581   2.396   6.380
23423SOL    HW172166   9.613   2.477   6.421
23423SOL    HW272167   9.521   2.359   6.445
23424SOL     OW72168  12.151   5.636   0.832
23424SOL    HW172169  12.101   5.559   0.856
23424SOL    HW272170  12.145   5.693   0.909
23425SOL     OW72171  10.072   9.854   9.060
23425SOL    HW172172  10.000   9.916   9.049
23425SOL    HW272173  10.029   9.769   9.071
23426SOL     OW72174   5.498   3.799  12.775
23426SOL    HW172175   5.509   3.734  12.844
23426SOL    HW272176   5.418   3.772  12.729
23427SOL     OW72177   6.018  13.295   6.288
23427SOL    HW172178   5.924  13.276   6.294
23427SOL    HW272179   6.023  13.378   6.240
23428SOL     OW72180   4.647   9.604   6.707
23428SOL    HW172181   4.687   9.595   6.793
23428SOL    HW272182   4.553   9.612   6.725
23429SOL     OW72183   3.864   1.071  13.489
23429SOL    HW172184   3.862   1.109  13.577
23429SOL    HW272185   3.944   1.018  13.488
23430SOL     OW72186  13.581   3.435   5.956
23430SOL    HW172187  13.574   3.469   6.046
23430SOL    HW272188  13.494   3.447   5.919
23431SOL     OW72189  12.173   8.343   2.951
23431SOL    HW172190  12.090   8.376   2.984
23431SOL    HW272191  12.149   8.273   2.891
23432SOL     OW72192   5.919   3.632   1.588
23432SOL    HW172193   5.938   3.543   1.559
23432SOL    HW272194   5.933   3.630   1.682
23433SOL     OW72195   8.644   0.978   8.607
23433SOL    HW172196   8.581   0.933   8.663
23433SOL    HW272197   8.706   0.909   8.582
23434SOL     OW72198   3.652   3.962   2.248
23434SOL    HW172199   3.585   3.905   2.211
23434SOL    HW272200   3.693   3.909   2.316
23435SOL     OW72201  11.727  12.296   1.374
23435SOL    HW172202  11.751  12.357   1.444
23435SOL    HW272203  11.811  12.258   1.346
23436SOL     OW72204   2.332   1.001   3.235
23436SOL    HW172205   2.336   1.074   3.296
23436SOL    HW272206   2.370   1.034   3.154
23437SOL     OW72207   7.720  10.178   7.734
23437SOL    HW172208   7.654  10.142   7.675
23437SOL    HW272209   7.720  10.118   7.809
23438SOL     OW72210   8.885   4.595   4.519
23438SOL    HW172211   8.927   4.610   4.435
23438SOL    HW272212   8.791   4.596   4.499
23439SOL     OW72213  12.257  14.788   6.477
23439SOL    HW172214  12.216  14.849   6.539
23439SOL    HW272215  12.227  14.818   6.391
23440SOL     OW72216  10.276   1.452   6.524
23440SOL    HW172217  10.283   1.515   6.596
23440SOL    HW272218  10.365   1.441   6.493
23441SOL     OW72219   1.054   2.650  14.013
23441SOL    HW172220   0.964   2.682  14.020
23441SOL    HW272221   1.045   2.560  13.983
23442SOL     OW72222   4.310   2.684   4.117
23442SOL    HW172223   4.274   2.758   4.165
23442SOL    HW272224   4.400   2.710   4.097
23443SOL     OW72225   0.922   4.101  11.265
23443SOL    HW172226   0.885   4.014  11.249
23443SOL    HW272227   0.855   4.162  11.234
23444SOL     OW72228   0.711   3.531   0.250
23444SOL    HW172229   0.782   3.469   0.268
23444SOL    HW272230   0.751   3.598   0.195
23445SOL     OW72231  14.468  14.346   4.005
23445SOL    HW172232  14.504  14.295   3.933
23445SOL    HW272233  14.407  14.286   4.048
23446SOL     OW72234  13.894   5.042  11.810
23446SOL    HW172235  13.947   4.966  11.783
23446SOL    HW272236  13.945   5.083  11.880
23447SOL     OW72237   2.018   4.132   6.137
23447SOL    HW172238   1.969   4.194   6.083
23447SOL    HW272239   2.008   4.165   6.226
23448SOL     OW72240   4.549   8.635   1.978
23448SOL    HW172241   4.612   8.705   1.962
23448SOL    HW272242   4.492   8.637   1.901
23449SOL     OW72243   1.137   4.944   4.690
23449SOL    HW172244   1.058   4.987   4.721
23449SOL    HW272245   1.166   4.890   4.764
23450SOL     OW72246   6.624   4.528   2.491
23450SOL    HW172247   6.569   4.589   2.442
23450SOL    HW272248   6.712   4.566   2.487
23451SOL     OW72249   1.738   5.918  13.969
23451SOL    HW172250   1.750   6.007  13.934
23451SOL    HW272251   1.644   5.902  13.960
23452SOL     OW72252   5.248   7.682   5.893
23452SOL    HW172253   5.200   7.603   5.919
23452SOL    HW272254   5.329   7.648   5.854
23453SOL     OW72255  11.275  10.540   2.292
23453SOL    HW172256  11.183  10.540   2.267
23453SOL    HW272257  11.309  10.458   2.257
23454SOL     OW72258  12.735   4.335  12.504
23454SOL    HW172259  12.713   4.252  12.462
23454SOL    HW272260  12.710   4.401  12.439
23455SOL     OW72261   5.055   1.993   7.941
23455SOL    HW172262   5.045   2.014   8.034
23455SOL    HW272263   5.143   1.955   7.935
23456SOL     OW72264   8.494   6.450   1.606
23456SOL    HW172265   8.410   6.404   1.607
23456SOL    HW272266   8.472   6.540   1.584
23457SOL     OW72267   8.976  13.696  10.634
23457SOL    HW172268   8.921  13.756  10.684
23457SOL    HW272269   8.969  13.612  10.680
23458SOL     OW72270  13.960   8.472  10.283
23458SOL    HW172271  13.938   8.506  10.196
23458SOL    HW272272  14.053   8.452  10.278
23459SOL     OW72273   3.570   0.393   9.248
23459SOL    HW172274   3.512   0.467   9.230
23459SOL    HW272275   3.519   0.315   9.226
23460SOL     OW72276  12.478   7.204   9.020
23460SOL    HW172277  12.517   7.229   9.104
23460SOL    HW272278  12.437   7.119   9.037
23461SOL     OW72279  10.674   9.030  14.547
23461SOL    HW172280  10.635   9.035  14.459
23461SOL    HW272281  10.599   9.021  14.606
23462SOL     OW72282   5.228   5.151   1.922
23462SOL    HW172283   5.240   5.241   1.951
23462SOL    HW272284   5.133   5.142   1.913
23463SOL     OW72285   6.557   1.948   9.451
23463SOL    HW172286   6.643   1.942   9.493
23463SOL    HW272287   6.496   1.964   9.522
23464SOL     OW72288   0.004   7.421   4.051
23464SOL    HW172289   0.007   7.450   4.142
23464SOL    HW272290   0.090   7.444   4.015
23465SOL     OW72291   4.584   2.213  13.668
23465SOL    HW172292   4.679   2.226  13.667
23465SOL    HW272293   4.547   2.300  13.683
23466SOL     OW72294   2.611  13.664  10.823
23466SOL    HW172295   2.575  13.669  10.912
23466SOL    HW272296   2.614  13.754  10.793
23467SOL     OW72297  12.710   2.771   1.966
23467SOL    HW172298  12.777   2.796   1.902
23467SOL    HW272299  12.632   2.756   1.914
23468SOL     OW72300   4.704  11.999   0.589
23468SOL    HW172301   4.757  11.967   0.663
23468SOL    HW272302   4.764  12.053   0.538
23469SOL     OW72303  13.716   3.089   1.523
23469SOL    HW172304  13.631   3.133   1.521
23469SOL    HW272305  13.700   3.005   1.478
23470SOL     OW72306   8.616  10.396  11.542
23470SOL    HW172307   8.662  10.357  11.617
23470SOL    HW272308   8.638  10.340  11.468
23471SOL     OW72309  11.618  11.806   0.361
23471SOL    HW172310  11.601  11.744   0.290
23471SOL    HW272311  11.678  11.870   0.322
23472SOL     OW72312   0.561   4.935   2.708
23472SOL    HW172313   0.494   4.868   2.692
23472SOL    HW272314   0.573   4.977   2.622
23473SOL     OW72315  10.539   7.027  13.218
23473SOL    HW172316  10.534   6.938  13.254
23473SOL    HW272317  10.607   7.022  13.150
23474SOL     OW72318   9.801   6.278   8.435
23474SOL    HW172319   9.792   6.300   8.528
23474SOL    HW272320   9.835   6.188   8.436
23475SOL     OW72321   9.005   9.863   9.507
23475SOL    HW172322   9.028   9.829   9.593
23475SOL    HW272323   9.045   9.950   9.503
23476SOL     OW72324  12.532   5.231   0.779
23476SOL    HW172325  12.571   5.259   0.696
23476SOL    HW272326  12.579   5.279   0.846
23477SOL     OW72327   0.328  13.084   3.996
23477SOL    HW172328   0.404  13.030   4.018
23477SOL    HW272329   0.365  13.164   3.960
23478SOL     OW72330  11.215  11.339   7.988
23478SOL    HW172331  11.283  11.342   8.055
23478SOL    HW272332  11.236  11.410   7.928
23479SOL     OW72333   8.103  11.827   6.161
23479SOL    HW172334   8.072  11.913   6.132
23479SOL    HW272335   8.179  11.809   6.106
23480SOL     OW72336   5.508  14.160   0.690
23480SOL    HW172337   5.586  14.165   0.746
23480SOL    HW272338   5.470  14.247   0.694
23481SOL     OW72339   8.376   0.846   1.374
23481SOL    HW172340   8.447   0.837   1.436
23481SOL    HW272341   8.396   0.782   1.305
23482SOL     OW72342  13.729   0.312   6.828
23482SOL    HW172343  13.783   0.278   6.899
23482SOL    HW272344  13.661   0.246   6.815
23483SOL     OW72345  11.460   8.212   7.154
23483SOL    HW172346  11.460   8.184   7.246
23483SOL    HW272347  11.432   8.135   7.106
23484SOL     OW72348   0.382   4.810   3.721
23484SOL    HW172349   0.439   4.813   3.644
23484SOL    HW272350   0.364   4.717   3.735
23485SOL     OW72351   7.239   8.083  14.634
23485SOL    HW172352   7.232   7.991  14.657
23485SOL    HW272353   7.236   8.084  14.538
23486SOL     OW72354   1.166   6.154   7.367
23486SOL    HW172355   1.231   6.089   7.394
23486SOL    HW272356   1.138   6.196   7.448
23487SOL     OW72357   0.362   0.989   6.936
23487SOL    HW172358   0.451   1.014   6.959
23487SOL    HW272359   0.306   1.055   6.979
23488SOL     OW72360   2.715  12.520   1.910
23488SOL    HW172361   2.706  12.614   1.890
23488SOL    HW272362   2.759  12.518   1.995
23489SOL     OW72363  10.435  13.086  13.746
23489SOL    HW172364  10.403  12.996  13.737
23489SOL    HW272365  10.483  13.087  13.828
23490SOL     OW72366   1.036  12.029   2.561
23490SOL    HW172367   1.005  12.120   2.556
23490SOL    HW272368   0.960  11.979   2.591
23491SOL     OW72369   2.435   8.913  11.007
23491SOL    HW172370   2.490   8.939  11.082
23491SOL    HW272371   2.422   8.819  11.019
23492SOL     OW72372   0.412   4.490   6.793
23492SOL    HW172373   0.487   4.465   6.740
23492SOL    HW272374   0.359   4.545   6.735
23493SOL     OW72375  13.514   7.747  12.139
23493SOL    HW172376  13.445   7.680  12.143
23493SOL    HW272377  13.468   7.830  12.146
23494SOL     OW72378  14.767   9.430   6.594
23494SOL    HW172379  14.735   9.348   6.557
23494SOL    HW272380  14.734   9.498   6.535
23495SOL     OW72381   8.897   0.608   2.468
23495SOL    HW172382   8.983   0.622   2.428
23495SOL    HW272383   8.883   0.685   2.522
23496SOL     OW72384  13.321  11.014   2.839
23496SOL    HW172385  13.394  10.958   2.812
23496SOL    HW272386  13.279  11.038   2.756
23497SOL     OW72387   3.742   4.174   5.650
23497SOL    HW172388   3.764   4.150   5.560
23497SOL    HW272389   3.671   4.238   5.641
23498SOL     OW72390  10.631  12.369   4.368
23498SOL    HW172391  10.714  12.342   4.329
23498SOL    HW272392  10.564  12.322   4.318
23499SOL     OW72393   2.303  12.905   5.606
23499SOL    HW172394   2.375  12.904   5.544
23499SOL    HW272395   2.317  12.984   5.658
23500SOL     OW72396   3.317   9.745   0.963
23500SOL    HW172397   3.313   9.704   1.049
23500SOL    HW272398   3.389   9.700   0.919
23501SOL     OW72399  11.489   7.575  11.027
23501SOL    HW172400  11.526   7.642  10.970
23501SOL    HW272401  11.430   7.622  11.086
23502SOL     OW72402   4.812   0.198   9.176
23502SOL    HW172403   4.794   0.183   9.083
23502SOL    HW272404   4.771   0.124   9.221
23503SOL     OW72405  11.967  14.456   1.561
23503SOL    HW172406  11.874  14.470   1.542
23503SOL    HW272407  11.981  14.502   1.644
23504SOL     OW72408   7.814  12.977  14.779
23504SOL    HW172409   7.723  12.989  14.755
23504SOL    HW272410   7.832  13.047  14.842
23505SOL     OW72411   0.339   0.335   5.520
23505SOL    HW172412   0.331   0.246   5.555
23505SOL    HW272413   0.249   0.367   5.514
23506SOL     OW72414   9.895   5.359   9.462
23506SOL    HW172415   9.990   5.349   9.470
23506SOL    HW272416   9.877   5.445   9.500
23507SOL     OW72417   6.280   6.320  13.534
23507SOL    HW172418   6.307   6.266  13.609
23507SOL    HW272419   6.339   6.395  13.536
23508SOL     OW72420   0.965   8.705   7.006
23508SOL    HW172421   0.954   8.800   7.003
23508SOL    HW272422   0.890   8.673   7.055
23509SOL     OW72423  11.182  14.769   0.760
23509SOL    HW172424  11.214  14.776   0.850
23509SOL    HW272425  11.087  14.763   0.769
23510SOL     OW72426   4.713   4.378   7.929
23510SOL    HW172427   4.807   4.396   7.928
23510SOL    HW272428   4.700   4.321   8.005
23511SOL     OW72429   0.356   2.258   3.750
23511SOL    HW172430   0.310   2.209   3.682
23511SOL    HW272431   0.300   2.334   3.766
23512SOL     OW72432  10.087   1.727  11.421
23512SOL    HW172433  10.074   1.730  11.326
23512SOL    HW272434  10.131   1.644  11.437
23513SOL     OW72435   3.756   3.862   4.034
23513SOL    HW172436   3.821   3.818   3.980
23513SOL    HW272437   3.751   3.810   4.114
23514SOL     OW72438  10.065  10.873  14.761
23514SOL    HW172439  10.023  10.879  14.847
23514SOL    HW272440  10.119  10.795  14.766
23515SOL     OW72441   2.828   0.103   7.631
23515SOL    HW172442   2.909   0.146   7.657
23515SOL    HW272443   2.854   0.042   7.563
23516SOL     OW72444   3.180   1.015   2.421
23516SOL    HW172445   3.100   1.062   2.445
23516SOL    HW272446   3.171   0.930   2.465
23517SOL     OW72447  13.865   9.431   6.834
23517SOL    HW172448  13.939   9.429   6.894
23517SOL    HW272449  13.861   9.342   6.797
23518SOL     OW72450   7.624   3.520  13.668
23518SOL    HW172451   7.698   3.577  13.646
23518SOL    HW272452   7.547   3.574  13.652
23519SOL     OW72453   7.446   7.391  12.951
23519SOL    HW172454   7.377   7.360  12.893
23519SOL    HW272455   7.458   7.321  13.015
23520SOL     OW72456  12.222  13.242  13.092
23520SOL    HW172457  12.282  13.189  13.146
23520SOL    HW272458  12.213  13.324  13.140
23521SOL     OW72459   5.107   1.116   4.799
23521SOL    HW172460   5.092   1.179   4.869
23521SOL    HW272461   5.114   1.168   4.720
23522SOL     OW72462   0.072   1.518   6.254
23522SOL    HW172463   0.154   1.537   6.209
23522SOL    HW272464   0.086   1.548   6.344
23523SOL     OW72465   1.287  12.179  13.796
23523SOL    HW172466   1.221  12.238  13.761
23523SOL    HW272467   1.301  12.208  13.886
23524SOL     OW72468   6.633   5.411   8.693
23524SOL    HW172469   6.674   5.491   8.726
23524SOL    HW272470   6.569   5.441   8.629
23525SOL     OW72471   4.661   0.692   8.233
23525SOL    HW172472   4.655   0.773   8.183
23525SOL    HW272473   4.752   0.665   8.225
23526SOL     OW72474   0.642  13.771   0.183
23526SOL    HW172475   0.659  13.726   0.100
23526SOL    HW272476   0.560  13.818   0.168
23527SOL     OW72477  14.106  14.867   4.565
23527SOL    HW172478  14.043  14.818   4.512
23527SOL    HW272479  14.184  14.871   4.511
23528SOL     OW72480   6.286   2.484   6.689
23528SOL    HW172481   6.243   2.570   6.696
23528SOL    HW272482   6.299   2.472   6.595
23529SOL     OW72483   1.226   6.417   0.331
23529SOL    HW172484   1.294   6.429   0.264
23529SOL    HW272485   1.215   6.504   0.369
23530SOL     OW72486   4.721   3.860   6.515
23530SOL    HW172487   4.639   3.887   6.556
23530SOL    HW272488   4.789   3.884   6.578
23531SOL     OW72489   2.750   2.303   6.323
23531SOL    HW172490   2.803   2.224   6.323
23531SOL    HW272491   2.676   2.282   6.267
23532SOL     OW72492   3.033  14.316   4.834
23532SOL    HW172493   3.092  14.318   4.758
23532SOL    HW272494   3.014  14.408   4.851
23533SOL     OW72495  13.577   1.859   7.546
23533SOL    HW172496  13.664   1.868   7.508
23533SOL    HW272497  13.554   1.767   7.533
23534SOL     OW72498  11.606  11.512   6.000
23534SOL    HW172499  11.553  11.469   5.933
23534SOL    HW272500  11.661  11.573   5.952
23535SOL     OW72501  14.427   1.084   8.458
23535SOL    HW172502  14.335   1.093   8.432
23535SOL    HW272503  14.446   0.991   8.446
23536SOL     OW72504   2.126   9.822   7.953
23536SOL    HW172505   2.178   9.745   7.933
23536SOL    HW272506   2.174   9.865   8.024
23537SOL     OW72507   9.737  13.739   7.820
23537SOL    HW172508   9.785  13.674   7.872
23537SOL    HW272509   9.673  13.687   7.770
23538SOL     OW72510   5.890   6.834   4.668
23538SOL    HW172511   5.857   6.907   4.616
23538SOL    HW272512   5.962   6.798   4.617
23539SOL     OW72513   4.457   7.407   9.427
23539SOL    HW172514   4.381   7.460   9.404
23539SOL    HW272515   4.464   7.343   9.357
23540SOL     OW72516   7.598  10.213   6.935
23540SOL    HW172517   7.505  10.196   6.919
23540SOL    HW272518   7.643  10.136   6.899
23541SOL     OW72519   6.498   3.484   8.033
23541SOL    HW172520   6.505   3.401   8.081
23541SOL    HW272521   6.573   3.535   8.063
23542SOL     OW72522   3.174  11.294   4.380
23542SOL    HW172523   3.220  11.320   4.460
23542SOL    HW272524   3.084  11.325   4.393
23543SOL     OW72525  12.758   5.420   4.041
23543SOL    HW172526  12.827   5.465   3.992
23543SOL    HW272527  12.750   5.334   3.999
23544SOL     OW72528   5.885  10.212  13.594
23544SOL    HW172529   5.841  10.161  13.661
23544SOL    HW272530   5.861  10.303  13.614
23545SOL     OW72531  10.844  12.564  10.502
23545SOL    HW172532  10.931  12.538  10.471
23545SOL    HW272533  10.796  12.588  10.423
23546SOL     OW72534   5.562  11.703   0.576
23546SOL    HW172535   5.523  11.718   0.490
23546SOL    HW272536   5.652  11.677   0.558
23547SOL     OW72537  10.478   4.178   5.648
23547SOL    HW172538  10.419   4.110   5.615
23547SOL    HW272539  10.493   4.235   5.573
23548SOL     OW72540   6.342   4.372   3.810
23548SOL    HW172541   6.315   4.284   3.837
23548SOL    HW272542   6.262   4.424   3.815
23549SOL     OW72543   9.905   5.053  12.697
23549SOL    HW172544   9.905   5.027  12.789
23549SOL    HW272545   9.996   5.075  12.677
23550SOL     OW72546   6.289  14.213   2.327
23550SOL    HW172547   6.240  14.269   2.266
23550SOL    HW272548   6.348  14.163   2.271
23551SOL     OW72549  11.083   0.346   9.275
23551SOL    HW172550  11.118   0.362   9.188
23551SOL    HW272551  11.129   0.268   9.306
23552SOL     OW72552  12.293   7.116   7.989
23552SOL    HW172553  12.282   7.189   7.928
23552SOL    HW272554  12.388   7.111   8.004
23553SOL     OW72555   7.634  14.300  10.345
23553SOL    HW172556   7.721  14.286  10.307
23553SOL    HW272557   7.649  14.358  10.419
23554SOL     OW72558   1.146   7.657  12.889
23554SOL    HW172559   1.064   7.606  12.886
23554SOL    HW272560   1.134   7.718  12.961
23555SOL     OW72561   2.137   4.329   6.669
23555SOL    HW172562   2.049   4.296   6.689
23555SOL    HW272563   2.133   4.354   6.576
23556SOL     OW72564   4.048   7.730  14.856
23556SOL    HW172565   4.089   7.762  14.775
23556SOL    HW272566   4.042   7.636  14.843
23557SOL     OW72567  10.540   4.056  11.436
23557SOL    HW172568  10.536   3.961  11.422
23557SOL    HW272569  10.597   4.088  11.366
23558SOL     OW72570   5.317  10.236   1.348
23558SOL    HW172571   5.348  10.325   1.334
23558SOL    HW272572   5.395  10.187   1.375
23559SOL     OW72573   3.100   3.033   7.395
23559SOL    HW172574   3.116   3.128   7.395
23559SOL    HW272575   3.107   3.008   7.303
23560SOL     OW72576   6.098   3.225  10.958
23560SOL    HW172577   6.151   3.300  10.987
23560SOL    HW272578   6.160   3.170  10.910
23561SOL     OW72579  11.268   0.765   0.099
23561SOL    HW172580  11.334   0.705   0.135
23561SOL    HW272581  11.208   0.708   0.051
23562SOL     OW72582  12.763   4.874   3.975
23562SOL    HW172583  12.670   4.858   3.989
23562SOL    HW272584  12.792   4.802   3.919
23563SOL     OW72585  13.608   1.348  13.991
23563SOL    HW172586  13.633   1.306  13.909
23563SOL    HW272587  13.590   1.439  13.968
23564SOL     OW72588  13.713   8.291   4.721
23564SOL    HW172589  13.625   8.277   4.686
23564SOL    HW272590  13.751   8.357   4.664
23565SOL     OW72591   1.602  11.154   4.811
23565SOL    HW172592   1.537  11.102   4.857
23565SOL    HW272593   1.678  11.096   4.803
23566SOL     OW72594  10.733  14.663  10.891
23566SOL    HW172595  10.751  14.625  10.977
23566SOL    HW272596  10.710  14.754  10.910
23567SOL     OW72597  11.080  11.515  11.517
23567SOL    HW172598  11.016  11.460  11.472
23567SOL    HW272599  11.110  11.462  11.591
23568SOL     OW72600  11.787   6.571   9.718
23568SOL    HW172601  11.879   6.551   9.701
23568SOL    HW272602  11.790   6.644   9.780
23569SOL     OW72603   3.947  13.409   1.616
23569SOL    HW172604   4.042  13.420   1.624
23569SOL    HW272605   3.930  13.322   1.652
23570SOL     OW72606   1.855   2.738   5.063
23570SOL    HW172607   1.816   2.822   5.043
23570SOL    HW272608   1.950   2.753   5.058
23571SOL     OW72609  11.364  13.320   6.856
23571SOL    HW172610  11.431  13.352   6.796
23571SOL    HW272611  11.368  13.225   6.848
23572SOL     OW72612  10.803   8.994  10.202
23572SOL    HW172613  10.760   8.915  10.234
23572SOL    HW272614  10.756   9.017  10.122
23573SOL     OW72615  14.551  14.293   9.966
23573SOL    HW172616  14.559  14.360   9.899
23573SOL    HW272617  14.629  14.303  10.020
23574SOL     OW72618   8.295   2.060   5.964
23574SOL    HW172619   8.217   2.058   6.020
23574SOL    HW272620   8.352   2.125   6.006
23575SOL     OW72621   8.958   9.878   3.676
23575SOL    HW172622   8.928   9.925   3.598
23575SOL    HW272623   8.877   9.846   3.717
23576SOL     OW72624   2.391   7.856   9.763
23576SOL    HW172625   2.309   7.871   9.811
23576SOL    HW272626   2.391   7.924   9.695
23577SOL     OW72627   3.261   1.209  11.968
23577SOL    HW172628   3.270   1.116  11.944
23577SOL    HW272629   3.193   1.209  12.036
23578SOL     OW72630   3.949   3.587   4.851
23578SOL    HW172631   4.015   3.639   4.805
23578SOL    HW272632   3.993   3.505   4.873
23579SOL     OW72633   0.299   4.594  10.262
23579SOL    HW172634   0.231   4.627  10.203
23579SOL    HW272635   0.358   4.668  10.274
23580SOL     OW72636   3.000   6.948  11.632
23580SOL    HW172637   2.952   6.941  11.550
23580SOL    HW272638   2.954   6.889  11.692
23581SOL     OW72639   3.596   4.946   1.376
23581SOL    HW172640   3.621   4.943   1.283
23581SOL    HW272641   3.568   5.036   1.391
23582SOL     OW72642  13.740  12.820   3.760
23582SOL    HW172643  13.710  12.854   3.845
23582SOL    HW272644  13.836  12.822   3.766
23583SOL     OW72645  10.542   5.089  13.471
23583SOL    HW172646  10.557   5.131  13.386
23583SOL    HW272647  10.520   4.998  13.449
23584SOL     OW72648   9.456   0.437  14.416
23584SOL    HW172649   9.412   0.437  14.331
23584SOL    HW272650   9.395   0.484  14.474
23585SOL     OW72651   5.147   0.573   3.922
23585SOL    HW172652   5.137   0.589   3.829
23585SOL    HW272653   5.237   0.542   3.932
23586SOL     OW72654   6.751  10.350   6.788
23586SOL    HW172655   6.692  10.290   6.834
23586SOL    HW272656   6.807  10.293   6.735
23587SOL     OW72657   8.368  13.544   6.392
23587SOL    HW172658   8.361  13.449   6.382
23587SOL    HW272659   8.374  13.577   6.302
23588SOL     OW72660   8.195  14.518   4.144
23588SOL    HW172661   8.262  14.536   4.211
23588SOL    HW272662   8.193  14.597   4.091
23589SOL     OW72663   9.621   0.726   6.800
23589SOL    HW172664   9.705   0.743   6.844
23589SOL    HW272665   9.637   0.646   6.749
23590SOL     OW72666  10.786  11.092   2.907
23590SOL    HW172667  10.800  11.026   2.839
23590SOL    HW272668  10.848  11.068   2.976
23591SOL     OW72669   4.229   2.574  11.015
23591SOL    HW172670   4.146   2.563  10.969
23591SOL    HW272671   4.286   2.620  10.953
23592SOL     OW72672  12.670  12.507  14.521
23592SOL    HW172673  12.641  12.422  14.553
23592SOL    HW272674  12.595  12.565  14.535
23593SOL     OW72675   5.425   4.236   4.295
23593SOL    HW172676   5.342   4.267   4.330
23593SOL    HW272677   5.466   4.189   4.367
23594SOL     OW72678  10.953   0.893   5.987
23594SOL    HW172679  10.990   0.936   6.064
23594SOL    HW272680  10.903   0.819   6.021
23595SOL     OW72681  14.482   3.135   9.664
23595SOL    HW172682  14.446   3.159   9.579
23595SOL    HW272683  14.577   3.141   9.653
23596SOL     OW72684  14.056   1.932   1.024
23596SOL    HW172685  14.094   1.912   1.109
23596SOL    HW272686  14.105   1.877   0.962
23597SOL     OW72687   5.430   5.706  10.300
23597SOL    HW172688   5.410   5.737  10.212
23597SOL    HW272689   5.381   5.764  10.358
23598SOL     OW72690  12.892  13.992   9.956
23598SOL    HW172691  12.930  13.930  10.019
23598SOL    HW272692  12.929  14.076   9.979
23599SOL     OW72693   1.313   1.486   2.877
23599SOL    HW172694   1.248   1.542   2.835
23599SOL    HW272695   1.364   1.450   2.805
23600SOL     OW72696   9.120   1.172   8.916
23600SOL    HW172697   9.144   1.205   8.829
23600SOL    HW272698   9.027   1.150   8.908
23601SOL     OW72699   4.234  12.852   2.341
23601SOL    HW172700   4.191  12.881   2.261
23601SOL    HW272701   4.172  12.791   2.381
23602SOL     OW72702   5.998   7.884   8.108
23602SOL    HW172703   5.991   7.948   8.037
23602SOL    HW272704   6.087   7.850   8.101
23603SOL     OW72705   5.203   4.667   6.817
23603SOL    HW172706   5.176   4.708   6.899
23603SOL    HW272707   5.142   4.701   6.752
23604SOL     OW72708   7.632   8.094   7.849
23604SOL    HW172709   7.631   8.179   7.805
23604SOL    HW272710   7.647   8.030   7.779
23605SOL     OW72711   0.125   0.059   0.841
23605SOL    HW172712   0.144   0.066   0.747
23605SOL    HW272713   0.195   0.108   0.883
23606SOL     OW72714   0.331  13.477   5.870
23606SOL    HW172715   0.292  13.409   5.925
23606SOL    HW272716   0.405  13.434   5.827
23607SOL     OW72717  10.290   6.369  13.463
23607SOL    HW172718  10.309   6.332  13.548
23607SOL    HW272719  10.204   6.334  13.440
23608SOL     OW72720   9.772  13.028   8.212
23608SOL    HW172721   9.844  13.070   8.164
23608SOL    HW272722   9.695  13.043   8.157
23609SOL     OW72723   8.342   2.165  12.342
23609SOL    HW172724   8.391   2.129  12.416
23609SOL    HW272725   8.391   2.243  12.316
23610SOL     OW72726  11.553   1.399   7.038
23610SOL    HW172727  11.614   1.469   7.014
23610SOL    HW272728  11.609   1.323   7.057
23611SOL     OW72729   5.002   4.674   8.502
23611SOL    HW172730   5.097   4.668   8.495
23611SOL    HW272731   4.973   4.701   8.414
23612SOL     OW72732  12.116  10.063  10.015
23612SOL    HW172733  12.097  10.157  10.015
23612SOL    HW272734  12.031  10.021   9.998
23613SOL     OW72735   8.602   2.221  13.565
23613SOL    HW172736   8.661   2.295  13.580
23613SOL    HW272737   8.661   2.146  13.551
23614SOL     OW72738   1.045   8.298   9.764
23614SOL    HW172739   0.988   8.260   9.697
23614SOL    HW272740   1.099   8.360   9.716
23615SOL     OW72741  11.326  13.707   6.339
23615SOL    HW172742  11.324  13.774   6.271
23615SOL    HW272743  11.354  13.753   6.418
23616SOL     OW72744   3.943   1.028   2.604
23616SOL    HW172745   3.866   1.015   2.658
23616SOL    HW272746   3.910   1.067   2.523
23617SOL     OW72747   3.516   3.223  10.026
23617SOL    HW172748   3.609   3.247  10.032
23617SOL    HW272749   3.514   3.153   9.961
23618SOL     OW72750  12.258  10.884   6.358
23618SOL    HW172751  12.347  10.889   6.321
23618SOL    HW272752  12.224  10.973   6.352
23619SOL     OW72753   0.467  11.646   4.167
23619SOL    HW172754   0.528  11.702   4.215
23619SOL    HW272755   0.384  11.657   4.213
23620SOL     OW72756   1.731   2.508   5.572
23620SOL    HW172757   1.723   2.504   5.667
23620SOL    HW272758   1.796   2.441   5.550
23621SOL     OW72759  14.807   1.371  11.206
23621SOL    HW172760  14.799   1.374  11.301
23621SOL    HW272761  14.757   1.447  11.175
23622SOL     OW72762  12.392  13.143   9.866
23622SOL    HW172763  12.337  13.071   9.896
23622SOL    HW272764  12.425  13.184   9.946
23623SOL     OW72765   2.441   4.304   6.664
23623SOL    HW172766   2.438   4.215   6.628
23623SOL    HW272767   2.351   4.320   6.695
23624SOL     OW72768   3.460   7.407  13.032
23624SOL    HW172769   3.377   7.362  13.018
23624SOL    HW272770   3.454   7.486  12.978
23625SOL     OW72771   1.666   7.226   3.936
23625SOL    HW172772   1.597   7.254   3.996
23625SOL    HW272773   1.680   7.134   3.956
23626SOL     OW72774   9.127  13.882   1.421
23626SOL    HW172775   9.127  13.801   1.471
23626SOL    HW272776   9.036  13.893   1.393
23627SOL     OW72777   4.349  14.513   0.890
23627SOL    HW172778   4.417  14.453   0.922
23627SOL    HW272779   4.270  14.460   0.886
23628SOL     OW72780  13.926   9.793   1.231
23628SOL    HW172781  13.952   9.748   1.312
23628SOL    HW272782  13.831   9.784   1.228
23629SOL     OW72783  10.829   3.471   2.873
23629SOL    HW172784  10.755   3.477   2.933
23629SOL    HW272785  10.807   3.530   2.801
23630SOL     OW72786  11.365  11.563   1.311
23630SOL    HW172787  11.445  11.616   1.324
23630SOL    HW272788  11.301  11.626   1.278
23631SOL     OW72789   4.306  10.481  11.803
23631SOL    HW172790   4.277  10.528  11.881
23631SOL    HW272791   4.399  10.467  11.817
23632SOL     OW72792   3.351  13.023  13.235
23632SOL    HW172793   3.409  13.061  13.301
23632SOL    HW272794   3.267  13.011  13.280
23633SOL     OW72795  14.144   9.590   3.687
23633SOL    HW172796  14.063   9.641   3.693
23633SOL    HW272797  14.138   9.544   3.604
23634SOL     OW72798   5.591  11.368   8.551
23634SOL    HW172799   5.639  11.340   8.473
23634SOL    HW272800   5.637  11.447   8.580
23635SOL     OW72801   9.571   6.199   6.953
23635SOL    HW172802   9.526   6.234   7.030
23635SOL    HW272803   9.619   6.274   6.918
23636SOL     OW72804   9.801   8.627  11.858
23636SOL    HW172805   9.770   8.711  11.824
23636SOL    HW272806   9.826   8.577  11.780
23637SOL     OW72807   4.975  10.367   8.993
23637SOL    HW172808   4.888  10.391   8.961
23637SOL    HW272809   4.983  10.413   9.076
23638SOL     OW72810   3.561  11.769   4.277
23638SOL    HW172811   3.522  11.710   4.213
23638SOL    HW272812   3.606  11.835   4.226
23639SOL     OW72813   5.373  11.382   2.408
23639SOL    HW172814   5.438  11.315   2.428
23639SOL    HW272815   5.410  11.429   2.333
23640SOL     OW72816  14.232   9.749   1.631
23640SOL    HW172817  14.284   9.689   1.684
23640SOL    HW272818  14.167   9.784   1.691
23641SOL     OW72819   5.081  11.453   0.234
23641SOL    HW172820   5.125  11.370   0.255
23641SOL    HW272821   5.055  11.443   0.142
23642SOL     OW72822   1.060   9.405   4.580
23642SOL    HW172823   1.109   9.461   4.520
23642SOL    HW272824   1.038   9.328   4.528
23643SOL     OW72825   1.356   5.287   7.857
23643SOL    HW172826   1.299   5.323   7.925
23643SOL    HW272827   1.445   5.303   7.891
23644SOL     OW72828   3.776   1.621  10.364
23644SOL    HW172829   3.690   1.662  10.356
23644SOL    HW272830   3.825   1.652  10.287
23645SOL     OW72831  11.024   6.236  13.313
23645SOL    HW172832  10.981   6.322  13.317
23645SOL    HW272833  11.002   6.202  13.227
23646SOL     OW72834   0.770  11.087  11.328
23646SOL    HW172835   0.711  11.162  11.323
23646SOL    HW272836   0.773  11.053  11.239
23647SOL     OW72837  14.588  13.918   5.271
23647SOL    HW172838  14.683  13.922   5.264
23647SOL    HW272839  14.559  13.877   5.190
23648SOL     OW72840   9.504   8.933  12.683
23648SOL    HW172841   9.472   9.017  12.716
23648SOL    HW272842   9.599   8.943  12.682
23649SOL     OW72843   9.596  12.398   1.827
23649SOL    HW172844   9.626  12.485   1.853
23649SOL    HW272845   9.551  12.412   1.743
23650SOL     OW72846   6.588   3.367  10.258
23650SOL    HW172847   6.524   3.396  10.193
23650SOL    HW272848   6.661   3.428  10.249
23651SOL     OW72849   0.755   5.324   8.320
23651SOL    HW172850   0.834   5.371   8.294
23651SOL    HW272851   0.786   5.237   8.345
23652SOL     OW72852   5.378   2.936  11.471
23652SOL    HW172853   5.362   2.986  11.391
23652SOL    HW272854   5.324   2.979  11.537
23653SOL     OW72855   1.923   4.596   8.785
23653SOL    HW172856   1.902   4.674   8.837
23653SOL    HW272857   1.961   4.535   8.847
23654SOL     OW72858   0.260  11.805  11.623
23654SOL    HW172859   0.214  11.783  11.704
23654SOL    HW272860   0.349  11.827  11.652
23655SOL     OW72861  12.943  13.829   2.715
23655SOL    HW172862  13.028  13.804   2.749
23655SOL    HW272863  12.893  13.747   2.710
23656SOL     OW72864  13.245  12.750  12.029
23656SOL    HW172865  13.249  12.675  12.088
23656SOL    HW272866  13.157  12.747  11.992
23657SOL     OW72867   4.698  14.639   0.140
23657SOL    HW172868   4.777  14.683   0.172
23657SOL    HW272869   4.723  14.547   0.132
23658SOL     OW72870  10.473   6.635  10.688
23658SOL    HW172871  10.513   6.565  10.636
23658SOL    HW272872  10.533   6.648  10.761
23659SOL     OW72873   5.889  13.143  13.670
23659SOL    HW172874   5.935  13.192  13.602
23659SOL    HW272875   5.948  13.070  13.690
23660SOL     OW72876  12.719   5.854  10.985
23660SOL    HW172877  12.801   5.807  10.982
23660SOL    HW272878  12.670   5.823  10.909
23661SOL     OW72879  12.430   2.728   0.845
23661SOL    HW172880  12.458   2.814   0.813
23661SOL    HW272881  12.481   2.715   0.925
23662SOL     OW72882   6.006   2.987   2.829
23662SOL    HW172883   5.976   3.024   2.746
23662SOL    HW272884   6.038   3.063   2.879
23663SOL     OW72885   3.668   7.504   2.081
23663SOL    HW172886   3.703   7.437   2.023
23663SOL    HW272887   3.737   7.515   2.148
23664SOL     OW72888  10.140  14.725  12.922
23664SOL    HW172889  10.146  14.758  12.833
23664SOL    HW272890  10.178  14.637  12.918
23665SOL     OW72891  11.446   0.511  10.318
23665SOL    HW172892  11.418   0.460  10.393
23665SOL    HW272893  11.509   0.454  10.273
23666SOL     OW72894   9.544   9.544  11.710
23666SOL    HW172895   9.599   9.609  11.754
23666SOL    HW272896   9.525   9.582  11.625
23667SOL     OW72897  11.176  10.461   8.373
23667SOL    HW172898  11.201  10.500   8.456
23667SOL    HW272899  11.145  10.373   8.396
23668SOL     OW72900   7.124   8.476   5.011
23668SOL    HW172901   7.061   8.440   5.074
23668SOL    HW272902   7.165   8.549   5.058
23669SOL     OW72903   2.834  11.230   2.948
23669SOL    HW172904   2.912  11.254   2.898
23669SOL    HW272905   2.797  11.314   2.976
23670SOL     OW72906   7.030  11.059  14.783
23670SOL    HW172907   6.973  10.991  14.819
23670SOL    HW272908   6.976  11.104  14.718
23671SOL     OW72909  12.435   0.630   8.160
23671SOL    HW172910  12.451   0.708   8.213
23671SOL    HW272911  12.350   0.644   8.120
23672SOL     OW72912  13.524   2.883   6.776
23672SOL    HW172913  13.603   2.935   6.761
23672SOL    HW272914  13.505   2.896   6.869
23673SOL     OW72915   0.758   0.042   1.418
23673SOL    HW172916   0.828   0.064   1.479
23673SOL    HW272917   0.801   0.036   1.333
23674SOL     OW72918  11.196  12.206   2.717
23674SOL    HW172919  11.200  12.110   2.717
23674SOL    HW272920  11.244  12.231   2.638
23675SOL     OW72921   7.997   3.215   2.402
23675SOL    HW172922   8.024   3.298   2.441
23675SOL    HW272923   7.953   3.168   2.473
23676SOL     OW72924  11.316   8.110  14.244
23676SOL    HW172925  11.256   8.173  14.203
23676SOL    HW272926  11.298   8.118  14.338
23677SOL     OW72927   8.568   2.543   4.363
23677SOL    HW172928   8.633   2.507   4.302
23677SOL    HW272929   8.504   2.587   4.308
23678SOL     OW72930  11.687  10.479   7.475
23678SOL    HW172931  11.628  10.417   7.430
23678SOL    HW272932  11.650  10.487   7.563
23679SOL     OW72933  10.002  14.673   0.608
23679SOL    HW172934  10.063  14.741   0.580
23679SOL    HW272935   9.921  14.693   0.563
23680SOL     OW72936   7.449   2.848  10.053
23680SOL    HW172937   7.486   2.847   9.964
23680SOL    HW272938   7.410   2.935  10.061
23681SOL     OW72939   8.831  14.527  14.412
23681SOL    HW172940   8.844  14.619  14.387
23681SOL    HW272941   8.748  14.503  14.372
23682SOL     OW72942  11.576   1.184   3.626
23682SOL    HW172943  11.561   1.277   3.610
23682SOL    HW272944  11.491   1.151   3.656
23683SOL     OW72945  10.587  11.245   2.432
23683SOL    HW172946  10.620  11.329   2.464
23683SOL    HW272947  10.513  11.225   2.488
23684SOL     OW72948   4.850  10.095   7.294
23684SOL    HW172949   4.896  10.133   7.218
23684SOL    HW272950   4.917  10.045   7.340
23685SOL     OW72951   2.542   5.566   3.087
23685SOL    HW172952   2.461   5.518   3.101
23685SOL    HW272953   2.548   5.627   3.160
23686SOL     OW72954  14.232   0.058   6.568
23686SOL    HW172955  14.303   0.099   6.519
23686SOL    HW272956  14.154   0.077   6.516
23687SOL     OW72957  10.125   2.948   9.483
23687SOL    HW172958  10.190   2.931   9.552
23687SOL    HW272959  10.112   2.863   9.442
23688SOL     OW72960  14.362   3.998   2.081
23688SOL    HW172961  14.321   3.967   2.162
23688SOL    HW272962  14.331   4.088   2.071
23689SOL     OW72963   6.210   6.537  14.158
23689SOL    HW172964   6.189   6.481  14.083
23689SOL    HW272965   6.128   6.543  14.207
23690SOL     OW72966   1.784   7.054   9.009
23690SOL    HW172967   1.845   7.078   9.079
23690SOL    HW272968   1.787   6.959   9.005
23691SOL     OW72969   6.664  11.438  13.787
23691SOL    HW172970   6.630  11.456  13.699
23691SOL    HW272971   6.592  11.392  13.831
23692SOL     OW72972  10.688   2.297   9.903
23692SOL    HW172973  10.640   2.223   9.868
23692SOL    HW272974  10.662   2.303   9.995
23693SOL     OW72975   6.709  12.260  14.746
23693SOL    HW172976   6.646  12.198  14.709
23693SOL    HW272977   6.694  12.255  14.841
23694SOL     OW72978   3.889   4.869   0.841
23694SOL    HW172979   3.875   4.925   0.918
23694SOL    HW272980   3.818   4.891   0.782
23695SOL     OW72981   8.716   8.814   4.119
23695SOL    HW172982   8.637   8.786   4.167
23695SOL    HW272983   8.771   8.855   4.186
23696SOL     OW72984  13.269   8.964   0.048
23696SOL    HW172985  13.263   8.893  14.864
23696SOL    HW272986  13.266   9.044  14.877
23697SOL     OW72987  14.417  13.796   4.140
23697SOL    HW172988  14.404  13.776   4.047
23697SOL    HW272989  14.388  13.887   4.149
23698SOL     OW72990  12.012   3.837   4.821
23698SOL    HW172991  11.966   3.893   4.758
23698SOL    HW272992  12.082   3.796   4.770
23699SOL     OW72993   0.390   5.838  10.120
23699SOL    HW172994   0.297   5.853  10.138
23699SOL    HW272995   0.394   5.748  10.088
23700SOL     OW72996  10.680   6.569   1.292
23700SOL    HW172997  10.605   6.596   1.345
23700SOL    HW272998  10.663   6.604   1.205
23701SOL     OW72999   9.614  13.563  10.851
23701SOL    HW173000   9.519  13.555  10.844
23701SOL    HW273001   9.631  13.656  10.837
23702SOL     OW73002   4.445  13.574   8.706
23702SOL    HW173003   4.462  13.617   8.789
23702SOL    HW273004   4.436  13.645   8.643
23703SOL     OW73005  12.056   1.201  13.307
23703SOL    HW173006  12.139   1.247  13.296
23703SOL    HW273007  12.036   1.208  13.400
23704SOL     OW73008   4.425   8.480  10.613
23704SOL    HW173009   4.374   8.416  10.564
23704SOL    HW273010   4.516   8.454  10.598
23705SOL     OW73011   7.630   7.704  12.219
23705SOL    HW173012   7.583   7.622  12.233
23705SOL    HW273013   7.722   7.679  12.215
23706SOL     OW73014   2.915   9.558  13.814
23706SOL    HW173015   2.974   9.483  13.827
23706SOL    HW273016   2.972   9.627  13.779
23707SOL     OW73017   0.932   2.119  12.011
23707SOL    HW173018   0.912   2.211  11.991
23707SOL    HW273019   0.847   2.082  12.038
23708SOL     OW73020   4.837   3.861  12.419
23708SOL    HW173021   4.820   3.942  12.371
23708SOL    HW273022   4.825   3.792  12.354
23709SOL     OW73023  13.957   4.173   9.640
23709SOL    HW173024  14.026   4.204   9.699
23709SOL    HW273025  13.938   4.247   9.583
23710SOL     OW73026   7.050   5.531   2.634
23710SOL    HW173027   7.062   5.567   2.722
23710SOL    HW273028   6.962   5.492   2.636
23711SOL     OW73029   7.160   3.731  14.296
23711SOL    HW173030   7.241   3.777  14.322
23711SOL    HW273031   7.092   3.798  14.303
23712SOL     OW73032  13.064   5.048   5.528
23712SOL    HW173033  12.992   5.070   5.470
23712SOL    HW273034  13.122   5.124   5.525
23713SOL     OW73035   3.023   1.888   7.920
23713SOL    HW173036   3.044   1.795   7.907
23713SOL    HW273037   2.953   1.887   7.985
23714SOL     OW73038   1.029   1.113  12.322
23714SOL    HW173039   1.022   1.094  12.415
23714SOL    HW273040   1.046   1.208  12.318
23715SOL     OW73041   9.225  13.165   2.651
23715SOL    HW173042   9.277  13.168   2.732
23715SOL    HW273043   9.289  13.179   2.582
23716SOL     OW73044   1.192   3.068   2.647
23716SOL    HW173045   1.212   3.093   2.737
23716SOL    HW273046   1.176   2.974   2.651
23717SOL     OW73047  11.556   3.204   9.945
23717SOL    HW173048  11.624   3.243  10.001
23717SOL    HW273049  11.553   3.112   9.973
23718SOL     OW73050  11.825   9.735  10.343
23718SOL    HW173051  11.804   9.800  10.411
23718SOL    HW273052  11.747   9.680  10.337
23719SOL     OW73053   3.636   7.071  10.672
23719SOL    HW173054   3.675   7.000  10.621
23719SOL    HW273055   3.604   7.028  10.752
23720SOL     OW73056   6.378  14.666   7.749
23720SOL    HW173057   6.297  14.632   7.712
23720SOL    HW273058   6.386  14.624   7.834
23721SOL     OW73059   6.781  10.230   9.054
23721SOL    HW173060   6.802  10.324   9.052
23721SOL    HW273061   6.740  10.213   8.969
23722SOL     OW73062   3.580   5.068   3.912
23722SOL    HW173063   3.662   5.019   3.909
23722SOL    HW273064   3.576   5.113   3.828
23723SOL     OW73065   3.906  13.829  10.487
23723SOL    HW173066   3.876  13.750  10.532
23723SOL    HW273067   3.947  13.882  10.556
23724SOL     OW73068   3.568  13.099   9.226
23724SOL    HW173069   3.620  13.094   9.145
23724SOL    HW273070   3.477  13.091   9.197
23725SOL     OW73071  13.554   5.183   3.490
23725SOL    HW173072  13.592   5.101   3.455
23725SOL    HW273073  13.478   5.155   3.540
23726SOL     OW73074  10.017   7.718   2.720
23726SOL    HW173075   9.952   7.731   2.651
23726SOL    HW273076  10.022   7.623   2.731
23727SOL     OW73077   2.233   0.786   5.125
23727SOL    HW173078   2.311   0.731   5.115
23727SOL    HW273079   2.186   0.748   5.200
23728SOL     OW73080   2.947   4.033   2.503
23728SOL    HW173081   3.014   3.989   2.555
23728SOL    HW273082   2.869   4.033   2.558
23729SOL     OW73083  11.358   1.590   1.240
23729SOL    HW173084  11.316   1.676   1.243
23729SOL    HW273085  11.290   1.529   1.268
23730SOL     OW73086   7.135  14.184   5.047
23730SOL    HW173087   7.119  14.151   5.136
23730SOL    HW273088   7.230  14.180   5.037
23731SOL     OW73089  11.107   2.541  10.060
23731SOL    HW173090  11.158   2.598  10.003
23731SOL    HW273091  11.019   2.543  10.025
23732SOL     OW73092   9.569  13.597   6.798
23732SOL    HW173093   9.590  13.619   6.708
23732SOL    HW273094   9.618  13.517   6.815
23733SOL     OW73095   2.587   2.594   8.679
23733SOL    HW173096   2.591   2.685   8.708
23733SOL    HW273097   2.538   2.597   8.597
23734SOL     OW73098   6.515   9.610   4.170
23734SOL    HW173099   6.606   9.587   4.153
23734SOL    HW273100   6.464   9.547   4.118
23735SOL     OW73101   3.707   2.330   1.376
23735SOL    HW173102   3.731   2.238   1.365
23735SOL    HW273103   3.787   2.373   1.405
23736SOL     OW73104   6.461  10.638   8.443
23736SOL    HW173105   6.412  10.711   8.481
23736SOL    HW273106   6.536  10.627   8.502
23737SOL     OW73107   2.940   6.109   3.556
23737SOL    HW173108   2.930   6.092   3.649
23737SOL    HW273109   2.993   6.189   3.552
23738SOL     OW73110  12.612  14.550  14.259
23738SOL    HW173111  12.553  14.605  14.312
23738SOL    HW273112  12.696  14.597  14.261
23739SOL     OW73113   2.748   5.237   6.779
23739SOL    HW173114   2.746   5.143   6.763
23739SOL    HW273115   2.805   5.248   6.855
23740SOL     OW73116   6.304   7.254   4.004
23740SOL    HW173117   6.260   7.306   4.071
23740SOL    HW273118   6.337   7.318   3.941
23741SOL     OW73119   6.978  12.513  11.907
23741SOL    HW173120   6.906  12.481  11.854
23741SOL    HW273121   6.937  12.555  11.983
23742SOL     OW73122   1.166  10.569   1.436
23742SOL    HW173123   1.187  10.660   1.414
23742SOL    HW273124   1.135  10.574   1.527
23743SOL     OW73125   6.645  14.767  10.577
23743SOL    HW173126   6.590  14.699  10.538
23743SOL    HW273127   6.607  14.782  10.663
23744SOL     OW73128   5.604   3.309  14.390
23744SOL    HW173129   5.574   3.370  14.323
23744SOL    HW273130   5.570   3.224  14.363
23745SOL     OW73131   9.060   6.774   1.068
23745SOL    HW173132   9.044   6.681   1.050
23745SOL    HW273133   9.060   6.781   1.163
23746SOL     OW73134  12.272  10.493  12.879
23746SOL    HW173135  12.348  10.503  12.821
23746SOL    HW273136  12.228  10.414  12.847
23747SOL     OW73137  11.598   6.758   8.243
23747SOL    HW173138  11.531   6.692   8.263
23747SOL    HW273139  11.575   6.833   8.298
23748SOL     OW73140   1.664   0.404  13.925
23748SOL    HW173141   1.660   0.310  13.940
23748SOL    HW273142   1.580   0.438  13.956
23749SOL     OW73143  14.365   0.963   5.123
23749SOL    HW173144  14.290   0.936   5.177
23749SOL    HW273145  14.367   0.899   5.052
23750SOL     OW73146   3.595   5.293   5.105
23750SOL    HW173147   3.622   5.221   5.162
23750SOL    HW273148   3.641   5.275   5.022
23751SOL     OW73149  13.071   1.839   5.868
23751SOL    HW173150  12.978   1.847   5.847
23751SOL    HW273151  13.080   1.881   5.954
23752SOL     OW73152   8.517   7.253   9.810
23752SOL    HW173153   8.569   7.205   9.875
23752SOL    HW273154   8.427   7.228   9.828
23753SOL     OW73155   6.966  11.505   1.446
23753SOL    HW173156   7.010  11.479   1.365
23753SOL    HW273157   6.960  11.600   1.441
23754SOL     OW73158   2.250   1.427   1.550
23754SOL    HW173159   2.254   1.478   1.470
23754SOL    HW273160   2.328   1.451   1.599
23755SOL     OW73161  11.325  11.725  12.621
23755SOL    HW173162  11.339  11.711  12.528
23755SOL    HW273163  11.263  11.656  12.646
23756SOL     OW73164  12.070   6.461  12.367
23756SOL    HW173165  12.020   6.384  12.340
23756SOL    HW273166  12.023   6.495  12.443
23757SOL     OW73167  14.793  11.357   9.116
23757SOL    HW173168  14.806  11.423   9.184
23757SOL    HW273169  14.856  11.380   9.048
23758SOL     OW73170   9.879  14.283  13.653
23758SOL    HW173171   9.837  14.223  13.592
23758SOL    HW273172   9.860  14.370  13.618
23759SOL     OW73173  12.050  11.591   0.782
23759SOL    HW173174  11.995  11.553   0.714
23759SOL    HW273175  12.121  11.527   0.793
23760SOL     OW73176  12.434   7.258  14.546
23760SOL    HW173177  12.399   7.211  14.470
23760SOL    HW273178  12.512   7.302  14.513
23761SOL     OW73179   2.116   8.516  12.765
23761SOL    HW173180   2.147   8.593  12.811
23761SOL    HW273181   2.021   8.519  12.772
23762SOL     OW73182  14.118  10.538  11.505
23762SOL    HW173183  14.054  10.519  11.436
23762SOL    HW273184  14.193  10.483  11.484
23763SOL     OW73185  10.244  14.078  14.021
23763SOL    HW173186  10.156  14.114  14.011
23763SOL    HW273187  10.247  14.044  14.110
23764SOL     OW73188   8.700   2.911   0.940
23764SOL    HW173189   8.684   2.888   1.031
23764SOL    HW273190   8.613   2.915   0.900
23765SOL     OW73191   0.988   4.648  14.399
23765SOL    HW173192   0.998   4.740  14.373
23765SOL    HW273193   0.988   4.600  14.316
23766SOL     OW73194  14.443   6.555  12.840
23766SOL    HW173195  14.355   6.592  12.838
23766SOL    HW273196  14.462   6.542  12.933
23767SOL     OW73197  13.467   9.676   9.782
23767SOL    HW173198  13.523   9.636   9.848
23767SOL    HW273199  13.522   9.683   9.704
23768SOL     OW73200  11.276   5.088   0.641
23768SOL    HW173201  11.284   4.994   0.624
23768SOL    HW273202  11.207   5.095   0.708
23769SOL     OW73203  13.558   0.949  12.461
23769SOL    HW173204  13.619   0.945  12.534
23769SOL    HW273205  13.484   0.895  12.488
23770SOL     OW73206  11.314   9.245   3.299
23770SOL    HW173207  11.231   9.290   3.319
23770SOL    HW273208  11.287   9.158   3.270
23771SOL     OW73209   0.490   5.367   8.584
23771SOL    HW173210   0.435   5.431   8.538
23771SOL    HW273211   0.429   5.300   8.613
23772SOL     OW73212   7.413   0.978  10.901
23772SOL    HW173213   7.342   0.914  10.894
23772SOL    HW273214   7.470   0.958  10.827
23773SOL     OW73215   8.843   4.974   4.016
23773SOL    HW173216   8.775   4.912   4.043
23773SOL    HW273217   8.807   5.060   4.039
23774SOL     OW73218   4.484   7.481   1.234
23774SOL    HW173219   4.513   7.416   1.299
23774SOL    HW273220   4.516   7.446   1.151
23775SOL     OW73221   8.904   0.241  11.295
23775SOL    HW173222   8.944   0.215  11.212
23775SOL    HW273223   8.817   0.273  11.271
23776SOL     OW73224   7.746   9.230  10.667
23776SOL    HW173225   7.837   9.214  10.641
23776SOL    HW273226   7.741   9.325  10.681
23777SOL     OW73227  11.982  11.668   8.655
23777SOL    HW173228  11.915  11.706   8.713
23777SOL    HW273229  11.935  11.601   8.605
23778SOL     OW73230   9.412   1.536   4.163
23778SOL    HW173231   9.423   1.508   4.254
23778SOL    HW273232   9.332   1.589   4.164
23779SOL     OW73233   5.713  13.773   5.013
23779SOL    HW173234   5.806  13.772   5.035
23779SOL    HW273235   5.702  13.702   4.950
23780SOL     OW73236   7.497   7.768  14.868
23780SOL    HW173237   7.542   7.767   0.072
23780SOL    HW273238   7.497   7.861  14.843
23781SOL     OW73239   8.342   9.391   9.547
23781SOL    HW173240   8.330   9.364   9.638
23781SOL    HW273241   8.334   9.486   9.548
23782SOL     OW73242  11.792  12.425   6.295
23782SOL    HW173243  11.795  12.332   6.319
23782SOL    HW273244  11.702  12.439   6.267
23783SOL     OW73245  13.883   5.285  13.619
23783SOL    HW173246  13.861   5.222  13.551
23783SOL    HW273247  13.968   5.256  13.653
23784SOL     OW73248  11.729   5.475  11.085
23784SOL    HW173249  11.800   5.449  11.143
23784SOL    HW273250  11.769   5.537  11.024
23785SOL     OW73251   3.048   0.042  12.724
23785SOL    HW173252   3.035   0.127  12.766
23785SOL    HW273253   3.049   0.061  12.630
23786SOL     OW73254   9.662   3.459   3.904
23786SOL    HW173255   9.703   3.466   3.990
23786SOL    HW273256   9.696   3.378   3.867
23787SOL     OW73257   8.425   9.934  12.174
23787SOL    HW173258   8.490   9.941  12.244
23787SOL    HW273259   8.351   9.888  12.213
23788SOL     OW73260   7.679   7.894   8.507
23788SOL    HW173261   7.748   7.959   8.523
23788SOL    HW273262   7.725   7.810   8.505
23789SOL     OW73263  14.344  10.127  11.377
23789SOL    HW173264  14.249  10.122  11.388
23789SOL    HW273265  14.376  10.157  11.462
23790SOL     OW73266   5.721   0.178  13.821
23790SOL    HW173267   5.659   0.228  13.768
23790SOL    HW273268   5.671   0.155  13.900
23791SOL     OW73269  11.945   4.931   7.540
23791SOL    HW173270  11.999   4.909   7.464
23791SOL    HW273271  11.887   5.001   7.508
23792SOL     OW73272   4.212   6.662   5.047
23792SOL    HW173273   4.182   6.701   5.129
23792SOL    HW273274   4.133   6.624   5.008
23793SOL     OW73275  12.233  11.523  10.084
23793SOL    HW173276  12.288  11.446  10.094
23793SOL    HW273277  12.269  11.569  10.008
23794SOL     OW73278   1.970   3.791   4.284
23794SOL    HW173279   1.875   3.800   4.293
23794SOL    HW273280   2.001   3.880   4.267
23795SOL     OW73281  11.197  13.385   3.336
23795SOL    HW173282  11.103  13.402   3.328
23795SOL    HW273283  11.214  13.314   3.274
23796SOL     OW73284  12.836  11.499   4.646
23796SOL    HW173285  12.879  11.463   4.567
23796SOL    HW273286  12.883  11.458   4.719
23797SOL     OW73287   9.032  11.629  13.028
23797SOL    HW173288   9.125  11.651  13.023
23797SOL    HW273289   9.029  11.534  13.026
23798SOL     OW73290  13.538  11.739  13.656
23798SOL    HW173291  13.624  11.698  13.667
23798SOL    HW273292  13.551  11.830  13.684
23799SOL     OW73293   7.824   4.906   0.567
23799SOL    HW173294   7.737   4.912   0.607
23799SOL    HW273295   7.840   4.812   0.559
23800SOL     OW73296  13.428   5.044   5.429
23800SOL    HW173297  13.412   5.003   5.514
23800SOL    HW273298  13.520   5.070   5.431
23801SOL     OW73299   6.131   7.534  13.051
23801SOL    HW173300   6.131   7.549  12.957
23801SOL    HW273301   6.183   7.606  13.087
23802SOL     OW73302   2.873  10.135   9.460
23802SOL    HW173303   2.953  10.085   9.447
23802SOL    HW273304   2.828  10.130   9.375
23803SOL     OW73305   5.440  14.633  14.123
23803SOL    HW173306   5.447  14.539  14.109
23803SOL    HW273307   5.450  14.644  14.218
23804SOL     OW73308  11.554  13.582   4.052
23804SOL    HW173309  11.623  13.609   3.992
23804SOL    HW273310  11.487  13.543   3.995
23805SOL     OW73311  10.257   3.886   9.087
23805SOL    HW173312  10.303   3.895   9.170
23805SOL    HW273313  10.266   3.793   9.065
23806SOL     OW73314   6.437   2.026   6.700
23806SOL    HW173315   6.391   2.004   6.619
23806SOL    HW273316   6.459   1.941   6.739
23807SOL     OW73317  12.914   5.655   0.919
23807SOL    HW173318  12.994   5.685   0.875
23807SOL    HW273319  12.945   5.599   0.990
23808SOL     OW73320  11.661  14.573   3.425
23808SOL    HW173321  11.566  14.568   3.432
23808SOL    HW273322  11.679  14.572   3.331
23809SOL     OW73323   6.282   1.540  11.447
23809SOL    HW173324   6.321   1.524  11.361
23809SOL    HW273325   6.219   1.610  11.431
23810SOL     OW73326   3.167  12.691   7.733
23810SOL    HW173327   3.235  12.631   7.763
23810SOL    HW273328   3.119  12.715   7.812
23811SOL     OW73329   5.438  14.170   0.229
23811SOL    HW173330   5.509  14.128   0.277
23811SOL    HW273331   5.366  14.107   0.233
23812SOL     OW73332   1.331  13.207   2.758
23812SOL    HW173333   1.249  13.158   2.766
23812SOL    HW273334   1.346  13.244   2.845
23813SOL     OW73335   2.671  13.227  14.317
23813SOL    HW173336   2.577  13.233  14.332
23813SOL    HW273337   2.680  13.214  14.222
23814SOL     OW73338  14.359  14.358   6.342
23814SOL    HW173339  14.432  14.299   6.324
23814SOL    HW273340  14.391  14.444   6.314
23815SOL     OW73341   6.679   3.477   0.176
23815SOL    HW173342   6.641   3.438   0.255
23815SOL    HW273343   6.621   3.551   0.157
23816SOL     OW73344  13.698   4.589  13.732
23816SOL    HW173345  13.681   4.643  13.656
23816SOL    HW273346  13.646   4.628  13.802
23817SOL     OW73347  12.761  10.082  11.603
23817SOL    HW173348  12.810  10.124  11.532
23817SOL    HW273349  12.674  10.122  11.598
23818SOL     OW73350  13.396   9.205   9.111
23818SOL    HW173351  13.400   9.269   9.039
23818SOL    HW273352  13.391   9.120   9.067
23819SOL     OW73353   1.244  10.660  14.155
23819SOL    HW173354   1.201  10.669  14.240
23819SOL    HW273355   1.199  10.722  14.098
23820SOL     OW73356  12.891   7.919  10.444
23820SOL    HW173357  12.917   7.839  10.489
23820SOL    HW273358  12.945   7.920  10.365
23821SOL     OW73359   4.665  13.139   8.641
23821SOL    HW173360   4.597  13.132   8.574
23821SOL    HW273361   4.668  13.232   8.662
23822SOL     OW73362   5.817   2.832   3.879
23822SOL    HW173363   5.816   2.746   3.921
23822SOL    HW273364   5.847   2.892   3.948
23823SOL     OW73365   3.358   2.588  13.932
23823SOL    HW173366   3.371   2.495  13.914
23823SOL    HW273367   3.443   2.618  13.966
23824SOL     OW73368  10.933   9.825   1.815
23824SOL    HW173369  10.847   9.815   1.857
23824SOL    HW273370  10.976   9.894   1.865
23825SOL     OW73371   6.180  10.977   7.941
23825SOL    HW173372   6.209  11.068   7.948
23825SOL    HW273373   6.092  10.977   7.978
23826SOL     OW73374   4.699   7.213   8.108
23826SOL    HW173375   4.700   7.259   8.192
23826SOL    HW273376   4.607   7.211   8.083
23827SOL     OW73377   2.736  13.526   4.402
23827SOL    HW173378   2.681  13.448   4.402
23827SOL    HW273379   2.691  13.587   4.344
23828SOL     OW73380   2.001   3.409   4.689
23828SOL    HW173381   1.925   3.373   4.734
23828SOL    HW273382   1.974   3.497   4.664
23829SOL     OW73383  12.507  11.136   1.437
23829SOL    HW173384  12.577  11.093   1.487
23829SOL    HW273385  12.442  11.068   1.424
23830SOL     OW73386   4.531   9.013  10.737
23830SOL    HW173387   4.466   8.998  10.667
23830SOL    HW273388   4.589   9.079  10.701
23831SOL     OW73389   8.439   1.918   4.790
23831SOL    HW173390   8.439   1.878   4.703
23831SOL    HW273391   8.346   1.919   4.816
23832SOL     OW73392   2.680   0.783   7.895
23832SOL    HW173393   2.655   0.787   7.987
23832SOL    HW273394   2.673   0.874   7.865
23833SOL     OW73395  12.141   3.866   2.516
23833SOL    HW173396  12.084   3.895   2.445
23833SOL    HW273397  12.085   3.867   2.594
23834SOL     OW73398   6.878   9.286  13.216
23834SOL    HW173399   6.965   9.300  13.252
23834SOL    HW273400   6.890   9.220  13.147
23835SOL     OW73401  13.031  11.415   6.158
23835SOL    HW173402  12.986  11.332   6.177
23835SOL    HW273403  13.015  11.468   6.236
23836SOL     OW73404   3.464   3.381  10.350
23836SOL    HW173405   3.505   3.401  10.265
23836SOL    HW273406   3.471   3.462  10.400
23837SOL     OW73407   0.854   4.723  14.062
23837SOL    HW173408   0.914   4.754  13.994
23837SOL    HW273409   0.839   4.799  14.118
23838SOL     OW73410  13.141   9.262   5.052
23838SOL    HW173411  13.076   9.326   5.023
23838SOL    HW273412  13.200   9.311   5.108
23839SOL     OW73413   6.929   4.984  14.521
23839SOL    HW173414   6.951   4.896  14.489
23839SOL    HW273415   7.008   5.013  14.566
23840SOL     OW73416   1.452   5.624   4.043
23840SOL    HW173417   1.420   5.571   4.116
23840SOL    HW273418   1.451   5.564   3.968
23841SOL     OW73419  12.945   9.076   2.584
23841SOL    HW173420  12.939   9.166   2.618
23841SOL    HW273421  12.961   9.087   2.490
23842SOL     OW73422   4.606   2.759   4.260
23842SOL    HW173423   4.568   2.809   4.332
23842SOL    HW273424   4.581   2.807   4.181
23843SOL     OW73425   8.617   1.869  12.913
23843SOL    HW173426   8.656   1.950  12.880
23843SOL    HW273427   8.675   1.841  12.984
23844SOL     OW73428  12.068   2.745   2.297
23844SOL    HW173429  12.075   2.811   2.367
23844SOL    HW273430  12.038   2.795   2.221
23845SOL     OW73431   8.382   1.102  10.353
23845SOL    HW173432   8.416   1.035  10.294
23845SOL    HW273433   8.448   1.171  10.352
23846SOL     OW73434   0.282  12.309  11.543
23846SOL    HW173435   0.227  12.269  11.610
23846SOL    HW273436   0.223  12.325  11.469
23847SOL     OW73437  14.493  11.321   0.901
23847SOL    HW173438  14.510  11.283   0.987
23847SOL    HW273439  14.442  11.255   0.855
23848SOL     OW73440   2.936  13.520   2.907
23848SOL    HW173441   3.005  13.586   2.915
23848SOL    HW273442   2.860  13.558   2.951
23849SOL     OW73443  13.255   3.804  11.352
23849SOL    HW173444  13.334   3.814  11.404
23849SOL    HW273445  13.263   3.869  11.283
23850SOL     OW73446   1.919   1.272   1.219
23850SOL    HW173447   1.991   1.258   1.280
23850SOL    HW273448   1.961   1.310   1.141
23851SOL     OW73449   5.574   6.181   7.110
23851SOL    HW173450   5.637   6.204   7.179
23851SOL    HW273451   5.613   6.218   7.030
23852SOL     OW73452  14.423   5.310   1.238
23852SOL    HW173453  14.507   5.326   1.281
23852SOL    HW273454  14.416   5.379   1.173
23853SOL     OW73455  14.741   7.534   2.698
23853SOL    HW173456  14.669   7.525   2.760
23853SOL    HW273457  14.808   7.473   2.729
23854SOL     OW73458   5.788   1.588   7.148
23854SOL    HW173459   5.856   1.560   7.085
23854SOL    HW273460   5.752   1.668   7.110
23855SOL     OW73461  13.400  13.811  14.402
23855SOL    HW173462  13.460  13.778  14.469
23855SOL    HW273463  13.451  13.875  14.353
23856SOL     OW73464   8.065   7.326  13.227
23856SOL    HW173465   8.121   7.343  13.152
23856SOL    HW273466   7.992   7.387  13.216
23857SOL     OW73467   7.983  11.147   1.729
23857SOL    HW173468   8.076  11.147   1.706
23857SOL    HW273469   7.969  11.233   1.770
23858SOL     OW73470   3.275   8.629  14.554
23858SOL    HW173471   3.368   8.653  14.551
23858SOL    HW273472   3.273   8.547  14.602
23859SOL     OW73473   8.080  14.129   6.228
23859SOL    HW173474   8.151  14.066   6.241
23859SOL    HW273475   8.005  14.092   6.275
23860SOL     OW73476   4.058  11.881   2.524
23860SOL    HW173477   4.015  11.798   2.548
23860SOL    HW273478   4.104  11.907   2.604
23861SOL     OW73479  11.984   9.795   7.563
23861SOL    HW173480  11.971   9.725   7.498
23861SOL    HW273481  12.069   9.833   7.539
23862SOL     OW73482   9.258  14.590   9.856
23862SOL    HW173483   9.309  14.582   9.937
23862SOL    HW273484   9.173  14.623   9.884
23863SOL     OW73485   6.411  12.005  12.816
23863SOL    HW173486   6.372  11.929  12.858
23863SOL    HW273487   6.344  12.035  12.754
23864SOL     OW73488   6.258  12.881  14.600
23864SOL    HW173489   6.203  12.805  14.620
23864SOL    HW273490   6.341  12.864  14.645
23865SOL     OW73491   6.069  12.144   3.826
23865SOL    HW173492   6.157  12.121   3.797
23865SOL    HW273493   6.024  12.173   3.747
23866SOL     OW73494   6.319  13.892   2.066
23866SOL    HW173495   6.233  13.922   2.039
23866SOL    HW273496   6.360  13.968   2.108
23867SOL     OW73497   3.137   1.761   1.785
23867SOL    HW173498   3.209   1.774   1.847
23867SOL    HW273499   3.180   1.759   1.700
23868SOL     OW73500   3.433   5.922   3.948
23868SOL    HW173501   3.386   5.841   3.928
23868SOL    HW273502   3.395   5.952   4.031
23869SOL     OW73503   4.409   9.449   6.789
23869SOL    HW173504   4.428   9.403   6.871
23869SOL    HW273505   4.377   9.381   6.730
23870SOL     OW73506  12.748   2.527   0.666
23870SOL    HW173507  12.739   2.621   0.649
23870SOL    HW273508  12.659   2.493   0.662
23871SOL     OW73509   6.484   7.667   2.143
23871SOL    HW173510   6.409   7.614   2.117
23871SOL    HW273511   6.510   7.632   2.228
23872SOL     OW73512  10.051  10.104   4.509
23872SOL    HW173513  10.111  10.115   4.583
23872SOL    HW273514   9.980  10.050   4.543
23873SOL     OW73515  11.382   6.281  14.269
23873SOL    HW173516  11.448   6.325  14.216
23873SOL    HW273517  11.331   6.353  14.307
23874SOL     OW73518  12.037   8.243  10.761
23874SOL    HW173519  12.130   8.229  10.748
23874SOL    HW273520  12.023   8.232  10.855
23875SOL     OW73521   7.903   1.162  11.129
23875SOL    HW173522   7.961   1.238  11.122
23875SOL    HW273523   7.875   1.145  11.039
23876SOL     OW73524   3.105   7.914   0.487
23876SOL    HW173525   3.015   7.880   0.492
23876SOL    HW273526   3.137   7.909   0.577
23877SOL     OW73527  10.075  11.452   8.867
23877SOL    HW173528  10.107  11.365   8.841
23877SOL    HW273529  10.116  11.468   8.952
23878SOL     OW73530   3.301   5.934   7.466
23878SOL    HW173531   3.221   5.950   7.517
23878SOL    HW273532   3.362   6.001   7.497
23879SOL     OW73533   7.166   4.746  12.213
23879SOL    HW173534   7.075   4.741  12.184
23879SOL    HW273535   7.208   4.670  12.173
23880SOL     OW73536   8.300  10.138  10.164
23880SOL    HW173537   8.239  10.065  10.152
23880SOL    HW273538   8.247  10.209  10.200
23881SOL     OW73539   7.658   7.767   3.797
23881SOL    HW173540   7.710   7.844   3.775
23881SOL    HW273541   7.602   7.795   3.870
23882SOL     OW73542  11.459  10.532   5.029
23882SOL    HW173543  11.484  10.494   4.945
23882SOL    HW273544  11.461  10.459   5.091
23883SOL     OW73545  12.077  14.302  12.928
23883SOL    HW173546  12.025  14.238  12.977
23883SOL    HW273547  12.030  14.312  12.845
23884SOL     OW73548   8.012   5.432   9.444
23884SOL    HW173549   7.973   5.506   9.491
23884SOL    HW273550   8.106   5.452   9.443
23885SOL     OW73551  12.925   2.374   3.034
23885SOL    HW173552  13.002   2.377   2.978
23885SOL    HW273553  12.908   2.466   3.057
23886SOL     OW73554   6.540   3.220   8.093
23886SOL    HW173555   6.475   3.185   8.032
23886SOL    HW273556   6.622   3.177   8.067
23887SOL     OW73557   0.853   0.196   6.782
23887SOL    HW173558   0.910   0.153   6.845
23887SOL    HW273559   0.765   0.184   6.817
23888SOL     OW73560   4.981   6.865  10.733
23888SOL    HW173561   4.913   6.840  10.670
23888SOL    HW273562   4.987   6.960  10.726
23889SOL     OW73563   1.945  11.447   5.766
23889SOL    HW173564   1.958  11.487   5.852
23889SOL    HW273565   2.023  11.393   5.753
23890SOL     OW73566  14.410   0.707   0.429
23890SOL    HW173567  14.484   0.650   0.447
23890SOL    HW273568  14.449   0.792   0.410
23891SOL     OW73569   2.851   7.493   0.538
23891SOL    HW173570   2.894   7.568   0.578
23891SOL    HW273571   2.905   7.472   0.462
23892SOL     OW73572  13.074   6.361   4.577
23892SOL    HW173573  13.025   6.294   4.530
23892SOL    HW273574  13.136   6.395   4.512
23893SOL     OW73575  10.181  14.690   3.328
23893SOL    HW173576  10.200  14.605   3.290
23893SOL    HW273577  10.266  14.734   3.332
23894SOL     OW73578  12.645   9.888  14.875
23894SOL    HW173579  12.586   9.816   0.017
23894SOL    HW273580  12.617   9.961   0.050
23895SOL     OW73581  12.491  13.146  10.986
23895SOL    HW173582  12.555  13.100  11.041
23895SOL    HW273583  12.494  13.100  10.902
23896SOL     OW73584   6.113   0.519  11.810
23896SOL    HW173585   6.116   0.425  11.793
23896SOL    HW273586   6.205   0.546  11.812
23897SOL     OW73587   9.516   2.859   5.997
23897SOL    HW173588   9.423   2.867   6.017
23897SOL    HW273589   9.540   2.944   5.961
23898SOL     OW73590   7.622   3.430   8.324
23898SOL    HW173591   7.697   3.445   8.382
23898SOL    HW273592   7.548   3.416   8.383
23899SOL     OW73593   2.617   1.885  12.550
23899SOL    HW173594   2.685   1.892  12.482
23899SOL    HW273595   2.555   1.955  12.529
23900SOL     OW73596   7.641  10.770   9.332
23900SOL    HW173597   7.666  10.679   9.319
23900SOL    HW273598   7.722  10.820   9.323
23901SOL     OW73599   0.245   2.438   5.865
23901SOL    HW173600   0.269   2.530   5.870
23901SOL    HW273601   0.200   2.419   5.948
23902SOL     OW73602   8.370   9.715   9.136
23902SOL    HW173603   8.407   9.779   9.196
23902SOL    HW273604   8.338   9.644   9.192
23903SOL     OW73605   4.481   6.885   7.900
23903SOL    HW173606   4.426   6.807   7.888
23903SOL    HW273607   4.560   6.866   7.850
23904SOL     OW73608   5.906  10.380   5.540
23904SOL    HW173609   5.950  10.454   5.499
23904SOL    HW273610   5.820  10.413   5.564
23905SOL     OW73611   6.301   1.501   7.068
23905SOL    HW173612   6.304   1.406   7.058
23905SOL    HW273613   6.393   1.528   7.061
23906SOL     OW73614   1.935   5.416   1.283
23906SOL    HW173615   1.925   5.401   1.377
23906SOL    HW273616   1.898   5.502   1.268
23907SOL     OW73617   7.089   9.543   5.314
23907SOL    HW173618   7.051   9.457   5.296
23907SOL    HW273619   7.140   9.563   5.235
23908SOL     OW73620   1.627  12.434  14.025
23908SOL    HW173621   1.636  12.437  13.930
23908SOL    HW273622   1.560  12.499  14.045
23909SOL     OW73623   0.771   9.260   1.914
23909SOL    HW173624   0.850   9.269   1.966
23909SOL    HW273625   0.777   9.330   1.848
23910SOL     OW73626  10.081   2.923  14.483
23910SOL    HW173627   9.990   2.944  14.504
23910SOL    HW273628  10.106   2.858  14.548
23911SOL     OW73629   7.801  10.149   8.451
23911SOL    HW173630   7.854  10.216   8.408
23911SOL    HW273631   7.715  10.157   8.410
23912SOL     OW73632  11.887   7.376   6.829
23912SOL    HW173633  11.936   7.295   6.844
23912SOL    HW273634  11.800   7.347   6.804
23913SOL     OW73635   3.428  14.120   4.480
23913SOL    HW173636   3.419  14.098   4.387
23913SOL    HW273637   3.449  14.213   4.481
23914SOL     OW73638  11.699   8.172   6.777
23914SOL    HW173639  11.709   8.077   6.780
23914SOL    HW273640  11.732   8.203   6.861
23915SOL     OW73641  12.231   2.451  13.412
23915SOL    HW173642  12.185   2.368  13.400
23915SOL    HW273643  12.169   2.517  13.379
23916SOL     OW73644   6.418   8.980   4.716
23916SOL    HW173645   6.351   8.923   4.679
23916SOL    HW273646   6.463   9.016   4.640
23917SOL     OW73647  11.402   0.406  12.310
23917SOL    HW173648  11.394   0.495  12.345
23917SOL    HW273649  11.387   0.416  12.216
23918SOL     OW73650  12.823   8.503   2.061
23918SOL    HW173651  12.874   8.426   2.033
23918SOL    HW273652  12.838   8.568   1.993
23919SOL     OW73653   0.264   5.391   9.866
23919SOL    HW173654   0.180   5.356   9.898
23919SOL    HW273655   0.292   5.329   9.799
23920SOL     OW73656   7.130   0.267   3.417
23920SOL    HW173657   7.152   0.175   3.398
23920SOL    HW273658   7.038   0.265   3.441
23921SOL     OW73659   4.003  10.665   4.950
23921SOL    HW173660   4.027  10.574   4.970
23921SOL    HW273661   4.036  10.715   5.024
23922SOL     OW73662   7.735   2.071   3.417
23922SOL    HW173663   7.723   2.144   3.477
23922SOL    HW273664   7.646   2.040   3.399
23923SOL     OW73665  11.407   1.957   2.396
23923SOL    HW173666  11.371   1.949   2.484
23923SOL    HW273667  11.386   2.046   2.369
23924SOL     OW73668   7.362  14.548  14.731
23924SOL    HW173669   7.437  14.604  14.750
23924SOL    HW273670   7.326  14.526  14.817
23925SOL     OW73671   1.177   3.601  12.692
23925SOL    HW173672   1.206   3.540  12.625
23925SOL    HW273673   1.257   3.636  12.731
23926SOL     OW73674   2.743   2.099  11.153
23926SOL    HW173675   2.718   2.147  11.074
23926SOL    HW273676   2.678   2.126  11.219
23927SOL     OW73677   7.788   6.283   8.990
23927SOL    HW173678   7.842   6.216   8.947
23927SOL    HW273679   7.717   6.233   9.031
23928SOL     OW73680   1.759  10.735  14.871
23928SOL    HW173681   1.693  10.772  14.813
23928SOL    HW273682   1.726  10.649   0.014
23929SOL     OW73683   9.505   1.731   7.796
23929SOL    HW173684   9.545   1.731   7.709
23929SOL    HW273685   9.553   1.796   7.845
23930SOL     OW73686   3.184   2.410   8.716
23930SOL    HW173687   3.092   2.426   8.738
23930SOL    HW273688   3.188   2.316   8.700
23931SOL     OW73689   9.398   1.320   2.567
23931SOL    HW173690   9.307   1.344   2.553
23931SOL    HW273691   9.445   1.353   2.491
23932SOL     OW73692   7.584   5.201   5.974
23932SOL    HW173693   7.650   5.268   5.953
23932SOL    HW273694   7.540   5.234   6.052
23933SOL     OW73695   8.902   5.802   5.828
23933SOL    HW173696   8.898   5.745   5.752
23933SOL    HW273697   8.815   5.842   5.833
23934SOL     OW73698  14.370   7.943  11.376
23934SOL    HW173699  14.374   7.911  11.466
23934SOL    HW273700  14.457   7.980  11.360
23935SOL     OW73701   1.432   6.078   2.619
23935SOL    HW173702   1.459   6.169   2.612
23935SOL    HW273703   1.368   6.077   2.691
23936SOL     OW73704  10.168   0.898  10.049
23936SOL    HW173705  10.111   0.868  10.120
23936SOL    HW273706  10.158   0.832   9.981
23937SOL     OW73707  13.358  14.308   3.902
23937SOL    HW173708  13.337  14.269   3.987
23937SOL    HW273709  13.448  14.337   3.910
23938SOL     OW73710   1.269   7.263   2.532
23938SOL    HW173711   1.354   7.289   2.567
23938SOL    HW273712   1.279   7.169   2.513
23939SOL     OW73713   7.443  13.664   6.847
23939SOL    HW173714   7.398  13.625   6.772
23939SOL    HW273715   7.427  13.758   6.839
23940SOL     OW73716   2.838   7.892   0.506
23940SOL    HW173717   2.783   7.970   0.499
23940SOL    HW273718   2.826   7.862   0.596
23941SOL     OW73719   1.468   8.313   4.880
23941SOL    HW173720   1.549   8.343   4.920
23941SOL    HW273721   1.420   8.394   4.859
23942SOL     OW73722   4.157   0.801  12.487
23942SOL    HW173723   4.224   0.869  12.486
23942SOL    HW273724   4.205   0.720  12.469
23943SOL     OW73725   2.087   4.049   2.740
23943SOL    HW173726   2.161   4.110   2.739
23943SOL    HW273727   2.025   4.086   2.676
23944SOL     OW73728   5.772   7.066   7.209
23944SOL    HW173729   5.683   7.032   7.200
23944SOL    HW273730   5.771   7.116   7.290
23945SOL     OW73731   7.823  12.574  12.892
23945SOL    HW173732   7.912  12.591  12.863
23945SOL    HW273733   7.805  12.484  12.864
23946SOL     OW73734   4.648  10.602   2.667
23946SOL    HW173735   4.599  10.596   2.585
23946SOL    HW273736   4.636  10.692   2.696
23947SOL     OW73737   2.550  10.682  13.921
23947SOL    HW173738   2.574  10.712  13.834
23947SOL    HW273739   2.531  10.762  13.970
23948SOL     OW73740   0.003   9.756   1.910
23948SOL    HW173741  14.841   9.801   1.837
23948SOL    HW273742  14.880   9.663   1.888
23949SOL     OW73743   2.650   0.614   8.242
23949SOL    HW173744   2.619   0.619   8.333
23949SOL    HW273745   2.638   0.703   8.208
23950SOL     OW73746  13.096   9.302   7.429
23950SOL    HW173747  13.036   9.231   7.406
23950SOL    HW273748  13.105   9.354   7.350
23951SOL     OW73749   6.854   5.464  11.957
23951SOL    HW173750   6.810   5.381  11.943
23951SOL    HW273751   6.946   5.446  11.935
23952SOL     OW73752   2.503   5.081  14.206
23952SOL    HW173753   2.506   5.059  14.113
23952SOL    HW273754   2.443   5.156  14.211
23953SOL     OW73755   8.728   8.260   9.371
23953SOL    HW173756   8.674   8.232   9.445
23953SOL    HW273757   8.672   8.320   9.322
23954SOL     OW73758   9.159   1.471   3.716
23954SOL    HW173759   9.115   1.550   3.746
23954SOL    HW273760   9.251   1.483   3.741
23955SOL     OW73761   6.698   2.436   1.822
23955SOL    HW173762   6.670   2.444   1.731
23955SOL    HW273763   6.746   2.516   1.840
23956SOL     OW73764   6.525   0.707  13.152
23956SOL    HW173765   6.531   0.802  13.167
23956SOL    HW273766   6.573   0.693  13.070
23957SOL     OW73767   2.573  13.995  14.100
23957SOL    HW173768   2.565  13.903  14.076
23957SOL    HW273769   2.501  14.011  14.161
23958SOL     OW73770   5.512   9.143  13.576
23958SOL    HW173771   5.527   9.206  13.506
23958SOL    HW273772   5.572   9.169  13.646
23959SOL     OW73773  14.778  14.252  10.399
23959SOL    HW173774  14.824  14.290  10.474
23959SOL    HW273775  14.794  14.158  10.406
23960SOL     OW73776  10.126  14.749  10.081
23960SOL    HW173777  10.175  14.672  10.111
23960SOL    HW273778  10.191  14.804  10.037
23961SOL     OW73779   2.531   8.244   3.655
23961SOL    HW173780   2.551   8.178   3.589
23961SOL    HW273781   2.439   8.230   3.677
23962SOL     OW73782   5.335   0.406   3.183
23962SOL    HW173783   5.383   0.331   3.219
23962SOL    HW273784   5.244   0.378   3.183
23963SOL     OW73785   6.052  12.267   1.914
23963SOL    HW173786   6.070  12.327   1.842
23963SOL    HW273787   6.035  12.325   1.989
23964SOL     OW73788   4.399   9.104   2.430
23964SOL    HW173789   4.481   9.150   2.412
23964SOL    HW273790   4.342   9.172   2.467
23965SOL     OW73791  12.524   2.676   3.222
23965SOL    HW173792  12.476   2.619   3.282
23965SOL    HW273793  12.592   2.716   3.277
23966SOL     OW73794  12.813  10.201   0.772
23966SOL    HW173795  12.876  10.143   0.815
23966SOL    HW273796  12.857  10.286   0.767
23967SOL     OW73797  11.212  10.054   9.491
23967SOL    HW173798  11.136   9.996   9.498
23967SOL    HW273799  11.272  10.023   9.558
23968SOL     OW73800  11.360   7.597   1.490
23968SOL    HW173801  11.437   7.633   1.534
23968SOL    HW273802  11.395   7.527   1.435
23969SOL     OW73803  14.408   5.193   4.250
23969SOL    HW173804  14.416   5.250   4.327
23969SOL    HW273805  14.405   5.252   4.176
23970SOL     OW73806   0.428  11.349  13.358
23970SOL    HW173807   0.517  11.336  13.390
23970SOL    HW273808   0.400  11.263  13.329
23971SOL     OW73809   1.734  11.596   4.114
23971SOL    HW173810   1.714  11.681   4.154
23971SOL    HW273811   1.829  11.589   4.118
23972SOL     OW73812   2.333   2.392   2.330
23972SOL    HW173813   2.348   2.486   2.333
23972SOL    HW273814   2.258   2.381   2.272
23973SOL     OW73815   4.652  10.088  11.171
23973SOL    HW173816   4.611  10.140  11.241
23973SOL    HW273817   4.687  10.153  11.111
23974SOL     OW73818  10.993   1.595   5.943
23974SOL    HW173819  11.031   1.676   5.909
23974SOL    HW273820  11.068   1.541   5.967
23975SOL     OW73821   8.297  10.859  10.706
23975SOL    HW173822   8.304  10.953  10.721
23975SOL    HW273823   8.378  10.824  10.744
23976SOL     OW73824   9.648   4.256   5.579
23976SOL    HW173825   9.591   4.205   5.635
23976SOL    HW273826   9.621   4.233   5.490
23977SOL     OW73827   6.273   6.237   8.976
23977SOL    HW173828   6.309   6.235   8.887
23977SOL    HW273829   6.201   6.173   8.974
23978SOL     OW73830   0.904  10.283   2.284
23978SOL    HW173831   0.939  10.330   2.360
23978SOL    HW273832   0.979  10.235   2.249
23979SOL     OW73833   9.740   1.172   0.155
23979SOL    HW173834   9.821   1.137   0.193
23979SOL    HW273835   9.671   1.146   0.217
23980SOL     OW73836  13.331   9.014   8.848
23980SOL    HW173837  13.392   9.069   8.799
23980SOL    HW273838  13.382   8.983   8.923
23981SOL     OW73839   8.816  10.121   8.578
23981SOL    HW173840   8.857  10.059   8.518
23981SOL    HW273841   8.727  10.131   8.545
23982SOL     OW73842  10.225   9.745   5.926
23982SOL    HW173843  10.241   9.799   6.003
23982SOL    HW273844  10.130   9.745   5.916
23983SOL     OW73845  11.605   2.002  12.615
23983SOL    HW173846  11.547   1.958  12.677
23983SOL    HW273847  11.550   2.070  12.575
23984SOL     OW73848   4.886   7.720   1.791
23984SOL    HW173849   4.967   7.684   1.753
23984SOL    HW273850   4.853   7.780   1.724
23985SOL     OW73851   9.066  10.837   8.208
23985SOL    HW173852   9.146  10.794   8.178
23985SOL    HW273853   9.015  10.768   8.249
23986SOL     OW73854  11.060   6.227   4.151
23986SOL    HW173855  11.035   6.276   4.230
23986SOL    HW273856  11.031   6.281   4.078
23987SOL     OW73857   0.680   6.939   2.480
23987SOL    HW173858   0.744   6.991   2.530
23987SOL    HW273859   0.606   6.998   2.469
23988SOL     OW73860   4.007  14.252   5.992
23988SOL    HW173861   3.961  14.334   5.974
23988SOL    HW273862   4.099  14.272   5.973
23989SOL     OW73863  11.779   1.427   2.569
23989SOL    HW173864  11.860   1.459   2.608
23989SOL    HW273865  11.790   1.332   2.565
23990SOL     OW73866   1.760  13.301   7.200
23990SOL    HW173867   1.676  13.261   7.226
23990SOL    HW273868   1.739  13.392   7.183
23991SOL     OW73869   7.824   0.441   3.042
23991SOL    HW173870   7.848   0.394   3.122
23991SOL    HW273871   7.837   0.377   2.972
23992SOL     OW73872   9.814   0.862   1.916
23992SOL    HW173873   9.867   0.941   1.929
23992SOL    HW273874   9.725   0.895   1.900
23993SOL     OW73875  11.170   7.563   5.747
23993SOL    HW173876  11.156   7.568   5.841
23993SOL    HW273877  11.257   7.526   5.737
23994SOL     OW73878  14.781  10.732   0.390
23994SOL    HW173879  14.826  10.774   0.464
23994SOL    HW273880  14.692  10.766   0.393
23995SOL     OW73881   8.693  11.742   0.822
23995SOL    HW173882   8.663  11.713   0.736
23995SOL    HW273883   8.787  11.758   0.810
23996SOL     OW73884   6.274   0.992   3.227
23996SOL    HW173885   6.338   0.928   3.259
23996SOL    HW273886   6.230   0.947   3.155
23997SOL     OW73887   3.885   4.730   6.799
23997SOL    HW173888   3.815   4.770   6.747
23997SOL    HW273889   3.902   4.793   6.869
23998SOL     OW73890   2.001   7.118  13.628
23998SOL    HW173891   2.000   7.079  13.715
23998SOL    HW273892   1.976   7.209  13.642
23999SOL     OW73893   8.009   1.402   5.523
23999SOL    HW173894   7.967   1.443   5.448
23999SOL    HW273895   8.056   1.327   5.486
24000SOL     OW73896  13.134   6.469   3.853
24000SOL    HW173897  13.097   6.521   3.781
24000SOL    HW273898  13.228   6.487   3.848
24001SOL     OW73899   2.551   1.144   8.991
24001SOL    HW173900   2.492   1.185   9.055
24001SOL    HW273901   2.597   1.077   9.041
24002SOL     OW73902  12.854  13.729   9.269
24002SOL    HW173903  12.769  13.685   9.261
24002SOL    HW273904  12.884  13.706   9.357
24003SOL     OW73905   8.628   7.280   1.044
24003SOL    HW173906   8.659   7.225   1.116
24003SOL    HW273907   8.703   7.336   1.023
24004SOL     OW73908  13.344  14.110   3.704
24004SOL    HW173909  13.397  14.148   3.633
24004SOL    HW273910  13.354  14.172   3.776
24005SOL     OW73911   1.149   2.074   7.102
24005SOL    HW173912   1.060   2.098   7.128
24005SOL    HW273913   1.152   1.979   7.110
24006SOL     OW73914  10.038   2.443   0.997
24006SOL    HW173915  10.012   2.533   0.980
24006SOL    HW273916  10.006   2.425   1.086
24007SOL     OW73917   6.034   8.035   5.961
24007SOL    HW173918   6.000   8.122   5.939
24007SOL    HW273919   5.955   7.983   5.976
24008SOL     OW73920   0.627   1.668   4.495
24008SOL    HW173921   0.607   1.740   4.435
24008SOL    HW273922   0.655   1.596   4.438
24009SOL     OW73923   3.536   3.720   3.013
24009SOL    HW173924   3.570   3.809   3.012
24009SOL    HW273925   3.609   3.667   3.046
24010SOL     OW73926  10.778  12.863   0.304
24010SOL    HW173927  10.713  12.907   0.359
24010SOL    HW273928  10.793  12.924   0.232
24011SOL     OW73929   1.563  13.349   3.898
24011SOL    HW173930   1.573  13.337   3.803
24011SOL    HW273931   1.499  13.282   3.923
24012SOL     OW73932   1.287   4.838   4.169
24012SOL    HW173933   1.199   4.863   4.197
24012SOL    HW273934   1.318   4.777   4.237
24013SOL     OW73935  13.011  10.388   3.561
24013SOL    HW173936  13.066  10.414   3.635
24013SOL    HW273937  13.065  10.329   3.510
24014SOL     OW73938   5.107   9.544   5.092
24014SOL    HW173939   5.193   9.582   5.076
24014SOL    HW273940   5.049   9.591   5.032
24015SOL     OW73941  12.879   9.690  13.385
24015SOL    HW173942  12.946   9.728  13.442
24015SOL    HW273943  12.865   9.602  13.420
24016SOL     OW73944   0.755   6.649   5.399
24016SOL    HW173945   0.663   6.671   5.391
24016SOL    HW273946   0.801   6.728   5.371
24017SOL     OW73947  10.690   8.717   7.684
24017SOL    HW173948  10.776   8.755   7.664
24017SOL    HW273949  10.656   8.689   7.600
24018SOL     OW73950   3.624   7.950   8.613
24018SOL    HW173951   3.692   7.888   8.640
24018SOL    HW273952   3.563   7.951   8.687
24019SOL     OW73953   2.901   5.286   2.355
24019SOL    HW173954   2.899   5.381   2.348
24019SOL    HW273955   2.819   5.263   2.399
24020SOL     OW73956   7.999   7.932  13.129
24020SOL    HW173957   7.927   7.995  13.133
24020SOL    HW273958   8.070   7.980  13.087
24021SOL     OW73959  14.642   0.695   5.169
24021SOL    HW173960  14.636   0.789   5.188
24021SOL    HW273961  14.726   0.685   5.124
24022SOL     OW73962  11.383  11.515   7.158
24022SOL    HW173963  11.414  11.586   7.102
24022SOL    HW273964  11.370  11.556   7.244
24023SOL     OW73965   6.010   3.444   3.731
24023SOL    HW173966   5.942   3.477   3.672
24023SOL    HW273967   5.980   3.469   3.818
24024SOL     OW73968   9.281  10.602   1.676
24024SOL    HW173969   9.294  10.656   1.598
24024SOL    HW273970   9.353  10.626   1.734
24025SOL     OW73971   5.612   8.788   5.165
24025SOL    HW173972   5.694   8.793   5.213
24025SOL    HW273973   5.577   8.701   5.187
24026SOL     OW73974   7.372   7.131  13.073
24026SOL    HW173975   7.359   7.036  13.082
24026SOL    HW273976   7.316   7.156  13.001
24027SOL     OW73977   4.797   7.475  12.539
24027SOL    HW173978   4.736   7.411  12.504
24027SOL    HW273979   4.847   7.426  12.605
24028SOL     OW73980   8.173   6.766  13.755
24028SOL    HW173981   8.121   6.764  13.675
24028SOL    HW273982   8.232   6.841  13.743
24029SOL     OW73983  13.574   8.211  13.066
24029SOL    HW173984  13.594   8.304  13.065
24029SOL    HW273985  13.617   8.176  12.987
24030SOL     OW73986   2.711   0.911  13.025
24030SOL    HW173987   2.686   0.998  13.054
24030SOL    HW273988   2.738   0.866  13.105
24031SOL     OW73989   4.623  11.582   8.167
24031SOL    HW173990   4.528  11.591   8.170
24031SOL    HW273991   4.643  11.559   8.076
24032SOL     OW73992  13.505  14.079   6.912
24032SOL    HW173993  13.535  14.155   6.963
24032SOL    HW273994  13.573  14.013   6.925
24033SOL     OW73995  14.307  14.730  13.822
24033SOL    HW173996  14.395  14.748  13.855
24033SOL    HW273997  14.301  14.635  13.817
24034SOL     OW73998   2.141   5.897   4.439
24034SOL    HW173999   2.163   5.924   4.528
24034SOL    HW274000   2.226   5.877   4.399
24035SOL     OW74001   0.440  11.375   4.044
24035SOL    HW174002   0.420  11.348   4.134
24035SOL    HW274003   0.453  11.469   4.050
24036SOL     OW74004   7.193  13.112  14.267
24036SOL    HW174005   7.115  13.107  14.322
24036SOL    HW274006   7.163  13.088  14.180
24037SOL     OW74007   2.348   1.814  10.009
24037SOL    HW174008   2.394   1.783  10.086
24037SOL    HW274009   2.287   1.743   9.987
24038SOL     OW74010   2.107  13.398   5.492
24038SOL    HW174011   2.160  13.385   5.413
24038SOL    HW274012   2.077  13.310   5.516
24039SOL     OW74013  11.302   9.034  10.460
24039SOL    HW174014  11.295   9.127  10.436
24039SOL    HW274015  11.392   9.025  10.491
24040SOL     OW74016   6.194   8.324   5.844
24040SOL    HW174017   6.207   8.418   5.852
24040SOL    HW274018   6.276   8.291   5.809
24041SOL     OW74019   2.776  10.015   0.835
24041SOL    HW174020   2.697  10.062   0.862
24041SOL    HW274021   2.759   9.990   0.744
24042SOL     OW74022   7.485   6.818  11.915
24042SOL    HW174023   7.430   6.812  11.837
24042SOL    HW274024   7.572   6.789  11.886
24043SOL     OW74025   3.577  10.362  10.234
24043SOL    HW174026   3.629  10.428  10.187
24043SOL    HW274027   3.603  10.278  10.194
24044SOL     OW74028   1.104   0.813  13.499
24044SOL    HW174029   1.018   0.773  13.515
24044SOL    HW274030   1.086   0.906  13.490
24045SOL     OW74031   5.952   0.630   9.134
24045SOL    HW174032   5.883   0.574   9.099
24045SOL    HW274033   5.944   0.712   9.085
24046SOL     OW74034   4.736   1.966   8.458
24046SOL    HW174035   4.796   1.915   8.404
24046SOL    HW274036   4.786   1.987   8.537
24047SOL     OW74037   6.805   8.377   6.474
24047SOL    HW174038   6.791   8.330   6.391
24047SOL    HW274039   6.806   8.469   6.449
24048SOL     OW74040  11.040   2.330   3.307
24048SOL    HW174041  10.948   2.354   3.297
24048SOL    HW274042  11.050   2.310   3.400
24049SOL     OW74043  13.758   1.427   0.663
24049SOL    HW174044  13.831   1.489   0.655
24049SOL    HW274045  13.688   1.465   0.610
24050SOL     OW74046   1.753  14.094  14.528
24050SOL    HW174047   1.748  14.029  14.458
24050SOL    HW274048   1.846  14.119  14.530
24051SOL     OW74049   3.883   8.743   6.343
24051SOL    HW174050   3.916   8.659   6.373
24051SOL    HW274051   3.791   8.726   6.321
24052SOL     OW74052   0.139   1.854  10.100
24052SOL    HW174053   0.169   1.796  10.030
24052SOL    HW274054   0.047   1.870  10.080
24053SOL     OW74055   6.922   4.576   2.130
24053SOL    HW174056   6.935   4.496   2.080
24053SOL    HW274057   6.864   4.550   2.202
24054SOL     OW74058   2.295  12.486  11.576
24054SOL    HW174059   2.235  12.517  11.644
24054SOL    HW274060   2.352  12.423  11.621
24055SOL     OW74061   5.241   7.178   2.470
24055SOL    HW174062   5.283   7.195   2.554
24055SOL    HW274063   5.311   7.144   2.415
24056SOL     OW74064  11.047   1.624   4.662
24056SOL    HW174065  11.082   1.535   4.663
24056SOL    HW274066  11.019   1.638   4.571
24057SOL     OW74067  13.837  11.041   0.034
24057SOL    HW174068  13.851  11.097  14.838
24057SOL    HW274069  13.910  10.979   0.031
24058SOL     OW74070   3.248   1.317   0.927
24058SOL    HW174071   3.324   1.260   0.937
24058SOL    HW274072   3.247   1.339   0.834
24059SOL     OW74073   5.301   2.065   3.932
24059SOL    HW174074   5.381   2.059   3.984
24059SOL    HW274075   5.231   2.071   3.997
24060SOL     OW74076   0.750   6.303  12.770
24060SOL    HW174077   0.813   6.333  12.705
24060SOL    HW274078   0.685   6.374  12.775
24061SOL     OW74079   8.695  13.953   2.409
24061SOL    HW174080   8.788  13.932   2.411
24061SOL    HW274081   8.677  13.977   2.318
24062SOL     OW74082  12.001   5.397  14.021
24062SOL    HW174083  11.968   5.470  14.072
24062SOL    HW274084  11.945   5.323  14.045
24063SOL     OW74085  13.517  10.644   2.366
24063SOL    HW174086  13.611  10.663   2.360
24063SOL    HW274087  13.478  10.725   2.399
24064SOL     OW74088  12.248  14.866   3.972
24064SOL    HW174089  12.331   0.020   4.007
24064SOL    HW274090  12.205  14.826   4.048
24065SOL     OW74091  10.266   7.676  10.589
24065SOL    HW174092  10.302   7.750  10.539
24065SOL    HW274093  10.302   7.599  10.546
24066SOL     OW74094  11.336   3.062  13.135
24066SOL    HW174095  11.406   3.126  13.147
24066SOL    HW274096  11.347   3.002  13.209
24067SOL     OW74097  11.882   8.086   8.114
24067SOL    HW174098  11.973   8.055   8.112
24067SOL    HW274099  11.830   8.010   8.089
24068SOL     OW74100   0.710   1.069   2.549
24068SOL    HW174101   0.680   1.144   2.497
24068SOL    HW274102   0.665   0.994   2.509
24069SOL     OW74103  10.570   3.371  11.288
24069SOL    HW174104  10.657   3.334  11.302
24069SOL    HW274105  10.575   3.415  11.203
24070SOL     OW74106  12.839   9.219   3.459
24070SOL    HW174107  12.804   9.142   3.415
24070SOL    HW274108  12.859   9.190   3.547
24071SOL     OW74109   2.966   7.133   6.164
24071SOL    HW174110   2.929   7.052   6.130
24071SOL    HW274111   2.892   7.193   6.171
24072SOL     OW74112  12.916  13.136  13.335
24072SOL    HW174113  12.931  13.192  13.259
24072SOL    HW274114  12.999  13.135  13.382
24073SOL     OW74115  12.758   0.614   7.834
24073SOL    HW174116  12.810   0.694   7.828
24073SOL    HW274117  12.669   0.642   7.815
24074SOL     OW74118  12.762   9.522   0.155
24074SOL    HW174119  12.739   9.590   0.092
24074SOL    HW274120  12.769   9.442   0.102
24075SOL     OW74121   1.148  14.387   6.295
24075SOL    HW174122   1.173  14.429   6.213
24075SOL    HW274123   1.206  14.425   6.361
24076SOL     OW74124  11.348   4.374   7.691
24076SOL    HW174125  11.276   4.435   7.712
24076SOL    HW274126  11.426   4.429   7.687
24077SOL     OW74127   1.220  12.046   0.957
24077SOL    HW174128   1.231  11.955   0.927
24077SOL    HW274129   1.305  12.071   0.991
24078SOL     OW74130  12.861   0.446  11.337
24078SOL    HW174131  12.811   0.491  11.269
24078SOL    HW274132  12.899   0.516  11.390
24079SOL     OW74133  13.530   4.568  11.418
24079SOL    HW174134  13.553   4.644  11.472
24079SOL    HW274135  13.607   4.552  11.364
24080SOL     OW74136   6.143   9.399   4.698
24080SOL    HW174137   6.158   9.317   4.651
24080SOL    HW274138   6.213   9.402   4.763
24081SOL     OW74139  11.475   6.595  11.611
24081SOL    HW174140  11.469   6.568  11.702
24081SOL    HW274141  11.555   6.648  11.606
24082SOL     OW74142  10.729  12.250   7.817
24082SOL    HW174143  10.714  12.302   7.896
24082SOL    HW274144  10.777  12.308   7.758
24083SOL     OW74145  11.506   3.957   8.066
24083SOL    HW174146  11.433   4.001   8.021
24083SOL    HW274147  11.532   3.887   8.007
24084SOL     OW74148   1.271  10.294  11.561
24084SOL    HW174149   1.180  10.316  11.541
24084SOL    HW274150   1.273  10.198  11.563
24085SOL     OW74151  11.987   1.475  13.392
24085SOL    HW174152  11.982   1.411  13.463
24085SOL    HW274153  12.080   1.491  13.381
24086SOL     OW74154   1.731   1.075   3.377
24086SOL    HW174155   1.761   1.117   3.457
24086SOL    HW274156   1.784   0.995   3.371
24087SOL     OW74157   6.449  10.699  12.439
24087SOL    HW174158   6.513  10.697  12.368
24087SOL    HW274159   6.364  10.706  12.394
24088SOL     OW74160   3.204   7.406   6.400
24088SOL    HW174161   3.295   7.391   6.427
24088SOL    HW274162   3.165   7.319   6.397
24089SOL     OW74163   5.814   3.971   1.358
24089SOL    HW174164   5.847   4.047   1.310
24089SOL    HW274165   5.748   4.008   1.417
24090SOL     OW74166  10.653   3.856   4.708
24090SOL    HW174167  10.638   3.830   4.617
24090SOL    HW274168  10.748   3.861   4.717
24091SOL     OW74169   6.526   1.216   4.953
24091SOL    HW174170   6.584   1.284   4.919
24091SOL    HW274171   6.541   1.141   4.895
24092SOL     OW74172  12.120   7.281   8.122
24092SOL    HW174173  12.102   7.253   8.212
24092SOL    HW274174  12.184   7.216   8.090
24093SOL     OW74175   6.194   4.170  14.729
24093SOL    HW174176   6.253   4.106  14.689
24093SOL    HW274177   6.147   4.120  14.796
24094SOL     OW74178   9.876   1.538  10.215
24094SOL    HW174179   9.855   1.541  10.122
24094SOL    HW274180   9.823   1.466  10.250
24095SOL     OW74181  11.978  10.749   1.020
24095SOL    HW174182  11.978  10.843   1.041
24095SOL    HW274183  12.060  10.716   1.056
24096SOL     OW74184   2.319  10.387   1.461
24096SOL    HW174185   2.340  10.456   1.398
24096SOL    HW274186   2.382  10.317   1.442
24097SOL     OW74187   1.474  13.919  12.166
24097SOL    HW174188   1.382  13.943  12.160
24097SOL    HW274189   1.520  13.987  12.116
24098SOL     OW74190   2.035  12.495  11.404
24098SOL    HW174191   2.035  12.400  11.390
24098SOL    HW274192   2.120  12.515  11.442
24099SOL     OW74193  10.850   3.258  10.350
24099SOL    HW174194  10.912   3.326  10.323
24099SOL    HW274195  10.852   3.194  10.279
24100SOL     OW74196   1.127   0.562   3.107
24100SOL    HW174197   1.057   0.627   3.116
24100SOL    HW274198   1.156   0.544   3.197
24101SOL     OW74199  10.239  12.255  10.913
24101SOL    HW174200  10.224  12.189  10.845
24101SOL    HW274201  10.334  12.269  10.913
24102SOL     OW74202   6.454   9.358   6.701
24102SOL    HW174203   6.488   9.269   6.712
24102SOL    HW274204   6.384   9.365   6.766
24103SOL     OW74205   3.213  14.375   4.640
24103SOL    HW174206   3.281  14.330   4.690
24103SOL    HW274207   3.252  14.459   4.618
24104SOL     OW74208   4.731   1.264  14.290
24104SOL    HW174209   4.671   1.195  14.318
24104SOL    HW274210   4.804   1.260  14.353
24105SOL     OW74211   9.799  10.625  12.338
24105SOL    HW174212   9.844  10.649  12.418
24105SOL    HW274213   9.852  10.662  12.268
24106SOL     OW74214   1.144   0.280   2.603
24106SOL    HW174215   1.115   0.201   2.557
24106SOL    HW274216   1.226   0.254   2.644
24107SOL     OW74217   9.638   2.829   4.866
24107SOL    HW174218   9.631   2.757   4.802
24107SOL    HW274219   9.572   2.892   4.837
24108SOL     OW74220   8.185  10.557   4.036
24108SOL    HW174221   8.186  10.641   3.991
24108SOL    HW274222   8.242  10.570   4.112
24109SOL     OW74223   0.899  10.200   7.290
24109SOL    HW174224   0.967  10.144   7.327
24109SOL    HW274225   0.943  10.247   7.219
24110SOL     OW74226   4.459   2.367   1.794
24110SOL    HW174227   4.514   2.319   1.855
24110SOL    HW274228   4.473   2.459   1.816
24111SOL     OW74229   7.343   5.115   7.394
24111SOL    HW174230   7.297   5.041   7.434
24111SOL    HW274231   7.302   5.192   7.431
24112SOL     OW74232   8.964   6.648  12.079
24112SOL    HW174233   8.977   6.705  12.155
24112SOL    HW274234   9.052   6.619  12.055
24113SOL     OW74235   6.628   9.237  11.793
24113SOL    HW174236   6.611   9.175  11.864
24113SOL    HW274237   6.643   9.183  11.716
24114SOL     OW74238   5.093   4.912  10.967
24114SOL    HW174239   5.087   4.826  11.008
24114SOL    HW274240   5.111   4.972  11.039
24115SOL     OW74241   6.408  12.903   7.745
24115SOL    HW174242   6.393  12.883   7.653
24115SOL    HW274243   6.357  12.983   7.760
24116SOL     OW74244  11.199   3.401   7.089
24116SOL    HW174245  11.133   3.347   7.133
24116SOL    HW274246  11.190   3.380   6.996
24117SOL     OW74247   7.021  14.868   0.007
24117SOL    HW174248   7.036   0.055   0.073
24117SOL    HW274249   6.926  14.854   0.007
24118SOL     OW74250   7.308   9.132  13.159
24118SOL    HW174251   7.395   9.091  13.160
24118SOL    HW274252   7.269   9.106  13.242
24119SOL     OW74253  14.205  10.637  12.115
24119SOL    HW174254  14.197  10.728  12.088
24119SOL    HW274255  14.168  10.587  12.041
24120SOL     OW74256   0.186   5.930   2.206
24120SOL    HW174257   0.202   6.020   2.178
24120SOL    HW274258   0.217   5.877   2.132
24121SOL     OW74259  10.304   4.412   4.563
24121SOL    HW174260  10.287   4.422   4.657
24121SOL    HW274261  10.287   4.499   4.526
24122SOL     OW74262   3.150   5.702   6.174
24122SOL    HW174263   3.203   5.625   6.154
24122SOL    HW274264   3.208   5.776   6.158
24123SOL     OW74265   3.334   0.185   1.427
24123SOL    HW174266   3.421   0.166   1.390
24123SOL    HW274267   3.304   0.102   1.463
24124SOL     OW74268   0.307  12.030   3.333
24124SOL    HW174269   0.345  12.009   3.247
24124SOL    HW274270   0.214  12.038   3.316
24125SOL     OW74271   8.554   8.055   5.373
24125SOL    HW174272   8.477   8.101   5.407
24125SOL    HW274273   8.549   7.968   5.412
24126SOL     OW74274   1.420  13.734  13.927
24126SOL    HW174275   1.472  13.656  13.908
24126SOL    HW274276   1.481  13.807  13.911
24127SOL     OW74277  13.171   0.224   8.801
24127SOL    HW174278  13.218   0.292   8.848
24127SOL    HW274279  13.164   0.152   8.864
24128SOL     OW74280   5.969   2.864   8.713
24128SOL    HW174281   6.042   2.854   8.653
24128SOL    HW274282   5.944   2.775   8.736
24129SOL     OW74283   1.934   0.420   9.592
24129SOL    HW174284   1.986   0.417   9.511
24129SOL    HW274285   1.912   0.512   9.603
24130SOL     OW74286   7.686   8.007   3.223
24130SOL    HW174287   7.619   7.993   3.290
24130SOL    HW274288   7.751   8.063   3.265
24131SOL     OW74289  13.196   7.066   4.147
24131SOL    HW174290  13.249   7.135   4.188
24131SOL    HW274291  13.128   7.113   4.099
24132SOL     OW74292   6.926  12.071   5.663
24132SOL    HW174293   7.008  12.116   5.644
24132SOL    HW274294   6.936  11.985   5.623
24133SOL     OW74295   4.872   5.262   0.155
24133SOL    HW174296   4.792   5.314   0.146
24133SOL    HW274297   4.840   5.175   0.180
24134SOL     OW74298  10.727  11.288   1.192
24134SOL    HW174299  10.654  11.313   1.249
24134SOL    HW274300  10.803  11.288   1.250
24135SOL     OW74301   7.560   3.966   5.080
24135SOL    HW174302   7.479   3.949   5.032
24135SOL    HW274303   7.531   3.994   5.167
24136SOL     OW74304  11.976   2.520  13.081
24136SOL    HW174305  12.018   2.495  12.999
24136SOL    HW274306  12.009   2.608  13.100
24137SOL     OW74307   1.553   8.873  10.903
24137SOL    HW174308   1.578   8.905  10.816
24137SOL    HW274309   1.464   8.905  10.917
24138SOL     OW74310  13.456   9.450  10.190
24138SOL    HW174311  13.523   9.465  10.257
24138SOL    HW274312  13.389   9.516  10.206
24139SOL     OW74313  14.248   2.140  10.093
24139SOL    HW174314  14.242   2.196  10.016
24139SOL    HW274315  14.181   2.073  10.080
24140SOL     OW74316  11.857  10.547  11.409
24140SOL    HW174317  11.787  10.539  11.344
24140SOL    HW274318  11.934  10.572  11.358
24141SOL     OW74319   8.772  10.472   0.996
24141SOL    HW174320   8.849  10.417   1.012
24141SOL    HW274321   8.717  10.458   1.074
24142SOL     OW74322   4.369   7.691   3.919
24142SOL    HW174323   4.380   7.769   3.974
24142SOL    HW274324   4.445   7.693   3.860
24143SOL     OW74325   9.547   6.337  13.647
24143SOL    HW174326   9.482   6.337  13.576
24143SOL    HW274327   9.510   6.395  13.714
24144SOL     OW74328  14.198   6.693  12.082
24144SOL    HW174329  14.241   6.767  12.125
24144SOL    HW274330  14.256   6.619  12.097
24145SOL     OW74331   5.525   1.831  10.796
24145SOL    HW174332   5.487   1.756  10.840
24145SOL    HW274333   5.513   1.904  10.857
24146SOL     OW74334   3.200   0.666   8.879
24146SOL    HW174335   3.129   0.616   8.920
24146SOL    HW274336   3.211   0.626   8.793
24147SOL     OW74337  12.099  14.699   6.072
24147SOL    HW174338  12.056  14.769   6.120
24147SOL    HW274339  12.192  14.723   6.075
24148SOL     OW74340   4.431   0.811   4.161
24148SOL    HW174341   4.400   0.722   4.177
24148SOL    HW274342   4.389   0.837   4.080
24149SOL     OW74343  10.536  13.020   9.636
24149SOL    HW174344  10.602  13.083   9.606
24149SOL    HW274345  10.501  12.982   9.556
24150SOL     OW74346   1.576   4.610   7.944
24150SOL    HW174347   1.615   4.602   8.031
24150SOL    HW274348   1.485   4.633   7.961
24151SOL     OW74349  12.608   8.775  14.264
24151SOL    HW174350  12.546   8.847  14.275
24151SOL    HW274351  12.694   8.817  14.269
24152SOL     OW74352  13.759   3.783   9.119
24152SOL    HW174353  13.826   3.803   9.054
24152SOL    HW274354  13.688   3.742   9.069
24153SOL     OW74355   0.918   7.822  10.501
24153SOL    HW174356   0.959   7.806  10.586
24153SOL    HW274357   0.957   7.756  10.444
24154SOL     OW74358   0.350  10.712   4.305
24154SOL    HW174359   0.420  10.666   4.351
24154SOL    HW274360   0.392  10.753   4.230
24155SOL     OW74361   4.370   7.960  11.056
24155SOL    HW174362   4.322   7.877  11.048
24155SOL    HW274363   4.324   8.006  11.127
24156SOL     OW74364   4.606  10.005  13.426
24156SOL    HW174365   4.663   9.942  13.381
24156SOL    HW274366   4.601  10.080  13.367
24157SOL     OW74367  12.203  11.052   9.324
24157SOL    HW174368  12.265  10.982   9.306
24157SOL    HW274369  12.211  11.068   9.418
24158SOL     OW74370  11.724  13.282  14.768
24158SOL    HW174371  11.804  13.241  14.736
24158SOL    HW274372  11.666  13.209  14.789
24159SOL     OW74373   0.041   3.357   3.242
24159SOL    HW174374   0.119   3.301   3.242
24159SOL    HW274375   0.018   3.366   3.150
24160SOL     OW74376  10.187   2.951   9.026
24160SOL    HW174377  10.195   3.009   9.102
24160SOL    HW274378  10.116   2.891   9.050
24161SOL     OW74379   3.825  13.341   8.048
24161SOL    HW174380   3.905  13.289   8.041
24161SOL    HW274381   3.756  13.285   8.012
24162SOL     OW74382   8.800   5.381   2.318
24162SOL    HW174383   8.839   5.466   2.340
24162SOL    HW274384   8.761   5.395   2.232
24163SOL     OW74385   2.719   7.525  11.795
24163SOL    HW174386   2.696   7.609  11.755
24163SOL    HW274387   2.667   7.461  11.746
24164SOL     OW74388   0.145   0.823   0.582
24164SOL    HW174389   0.085   0.780   0.522
24164SOL    HW274390   0.185   0.751   0.632
24165SOL     OW74391   2.694  13.235   8.749
24165SOL    HW174392   2.790  13.239   8.759
24165SOL    HW274393   2.661  13.235   8.838
24166SOL     OW74394  11.529   8.382   6.754
24166SOL    HW174395  11.579   8.304   6.728
24166SOL    HW274396  11.593   8.437   6.800
24167SOL     OW74397   2.876   9.314   4.372
24167SOL    HW174398   2.929   9.393   4.359
24167SOL    HW274399   2.890   9.263   4.292
24168SOL     OW74400  13.123   4.885   4.489
24168SOL    HW174401  13.170   4.801   4.486
24168SOL    HW274402  13.155   4.933   4.413
24169SOL     OW74403   0.718   3.114  12.304
24169SOL    HW174404   0.805   3.075  12.291
24169SOL    HW274405   0.702   3.166  12.225
24170SOL     OW74406   1.584   9.722   9.842
24170SOL    HW174407   1.660   9.703   9.898
24170SOL    HW274408   1.525   9.648   9.855
24171SOL     OW74409  11.348   8.534   2.772
24171SOL    HW174410  11.315   8.494   2.853
24171SOL    HW274411  11.272   8.536   2.714
24172SOL     OW74412  11.436  10.669  11.252
24172SOL    HW174413  11.496  10.595  11.245
24172SOL    HW274414  11.489  10.738  11.293
24173SOL     OW74415  13.528   4.984   7.329
24173SOL    HW174416  13.619   5.008   7.346
24173SOL    HW274417  13.484   4.996   7.414
24174SOL     OW74418  11.433   5.911  13.561
24174SOL    HW174419  11.409   6.001  13.581
24174SOL    HW274420  11.364   5.881  13.501
24175SOL     OW74421   2.201  11.350   0.091
24175SOL    HW174422   2.205  11.272   0.036
24175SOL    HW274423   2.293  11.368   0.112
24176SOL     OW74424   6.820   8.618   6.333
24176SOL    HW174425   6.730   8.647   6.350
24176SOL    HW274426   6.845   8.663   6.252
24177SOL     OW74427  14.704  10.402   1.170
24177SOL    HW174428  14.683  10.375   1.260
24177SOL    HW274429  14.621  10.395   1.123
24178SOL     OW74430  13.921  14.029   0.560
24178SOL    HW174431  13.950  13.988   0.479
24178SOL    HW274432  13.918  14.123   0.540
24179SOL     OW74433  13.944   7.266   0.696
24179SOL    HW174434  13.856   7.260   0.658
24179SOL    HW274435  13.990   7.190   0.660
24180SOL     OW74436  13.368   7.234   0.009
24180SOL    HW174437  13.462   7.240   0.025
24180SOL    HW274438  13.360   7.174  14.815
24181SOL     OW74439  12.965  13.953  11.945
24181SOL    HW174440  12.871  13.937  11.954
24181SOL    HW274441  12.978  13.975  11.853
24182SOL     OW74442  12.098  13.095  12.885
24182SOL    HW174443  12.149  13.155  12.940
24182SOL    HW274444  12.025  13.148  12.854
24183SOL     OW74445   5.153   5.362   4.754
24183SOL    HW174446   5.069   5.380   4.796
24183SOL    HW274447   5.211   5.337   4.827
24184SOL     OW74448   5.272   3.868  13.713
24184SOL    HW174449   5.280   3.842  13.622
24184SOL    HW274450   5.328   3.945  13.722
24185SOL     OW74451   1.139  11.966   9.658
24185SOL    HW174452   1.062  12.015   9.686
24185SOL    HW274453   1.176  12.017   9.587
24186SOL     OW74454   9.504  12.563   8.692
24186SOL    HW174455   9.578  12.503   8.702
24186SOL    HW274456   9.427  12.506   8.688
24187SOL     OW74457   4.325  11.824  14.011
24187SOL    HW174458   4.264  11.829  13.938
24187SOL    HW274459   4.367  11.739  14.002
24188SOL     OW74460   8.688  10.920  12.119
24188SOL    HW174461   8.737  10.922  12.201
24188SOL    HW274462   8.697  10.830  12.087
24189SOL     OW74463   3.992  13.153   1.250
24189SOL    HW174464   4.038  13.069   1.255
24189SOL    HW274465   3.913  13.133   1.199
24190SOL     OW74466   5.246   6.247   6.835
24190SOL    HW174467   5.230   6.297   6.915
24190SOL    HW274468   5.206   6.300   6.766
24191SOL     OW74469   7.897   6.397  14.745
24191SOL    HW174470   7.930   6.309  14.723
24191SOL    HW274471   7.819   6.408  14.690
24192SOL     OW74472  13.163  13.407   3.102
24192SOL    HW174473  13.118  13.447   3.176
24192SOL    HW274474  13.123  13.448   3.025
24193SOL     OW74475   9.121   4.282  12.086
24193SOL    HW174476   9.176   4.359  12.069
24193SOL    HW274477   9.040   4.300  12.038
24194SOL     OW74478  13.710  13.903   2.665
24194SOL    HW174479  13.710  13.955   2.746
24194SOL    HW274480  13.688  13.966   2.596
24195SOL     OW74481   0.998  10.983  13.584
24195SOL    HW174482   1.058  11.034  13.530
24195SOL    HW274483   0.992  11.032  13.666
24196SOL     OW74484   6.041   3.711  14.518
24196SOL    HW174485   5.960   3.739  14.558
24196SOL    HW274486   6.077   3.646  14.578
24197SOL     OW74487   7.167   8.859  13.371
24197SOL    HW174488   7.093   8.856  13.311
24197SOL    HW274489   7.169   8.949  13.402
24198SOL     OW74490  14.243   7.408   7.722
24198SOL    HW174491  14.173   7.472   7.732
24198SOL    HW274492  14.324   7.459   7.723
24199SOL     OW74493  13.692   2.580  13.415
24199SOL    HW174494  13.612   2.615  13.454
24199SOL    HW274495  13.717   2.643  13.348
24200SOL     OW74496   0.529  10.489  11.016
24200SOL    HW174497   0.622  10.479  11.039
24200SOL    HW274498   0.511  10.582  11.028
24201SOL     OW74499   7.342   6.556  11.811
24201SOL    HW174500   7.374   6.497  11.744
24201SOL    HW274501   7.414   6.561  11.875
24202SOL     OW74502  10.920  10.601   7.275
24202SOL    HW174503  10.994  10.634   7.326
24202SOL    HW274504  10.952  10.599   7.184
24203SOL     OW74505  11.678   1.478   6.476
24203SOL    HW174506  11.601   1.528   6.449
24203SOL    HW274507  11.686   1.409   6.410
24204SOL     OW74508   9.905   7.021  12.122
24204SOL    HW174509   9.888   6.984  12.209
24204SOL    HW274510   9.818   7.041  12.087
24205SOL     OW74511  11.077   7.637   8.614
24205SOL    HW174512  11.080   7.703   8.545
24205SOL    HW274513  11.145   7.662   8.676
24206SOL     OW74514   3.587   0.971   9.321
24206SOL    HW174515   3.643   0.949   9.246
24206SOL    HW274516   3.580   1.066   9.319
24207SOL     OW74517   6.097   6.317   1.866
24207SOL    HW174518   6.117   6.403   1.902
24207SOL    HW274519   6.179   6.288   1.826
24208SOL     OW74520   1.197   6.993   4.362
24208SOL    HW174521   1.263   7.047   4.405
24208SOL    HW274522   1.220   6.903   4.386
24209SOL     OW74523  10.542   4.169   9.267
24209SOL    HW174524  10.625   4.183   9.314
24209SOL    HW274525  10.482   4.233   9.304
24210SOL     OW74526   5.457   9.758  11.322
24210SOL    HW174527   5.535   9.801  11.358
24210SOL    HW274528   5.403   9.829  11.289
24211SOL     OW74529   4.120   8.682   8.545
24211SOL    HW174530   4.088   8.708   8.459
24211SOL    HW274531   4.046   8.699   8.604
24212SOL     OW74532  12.781  14.594  11.498
24212SOL    HW174533  12.823  14.680  11.490
24212SOL    HW274534  12.830  14.538  11.438
24213SOL     OW74535   6.895   6.094   6.731
24213SOL    HW174536   6.829   6.047   6.782
24213SOL    HW274537   6.956   6.129   6.796
24214SOL     OW74538   5.081   8.753   9.737
24214SOL    HW174539   5.047   8.667   9.712
24214SOL    HW274540   5.035   8.773   9.819
24215SOL     OW74541   6.056   0.170   6.683
24215SOL    HW174542   6.107   0.121   6.619
24215SOL    HW274543   5.972   0.123   6.688
24216SOL     OW74544   2.647   8.605   4.368
24216SOL    HW174545   2.740   8.595   4.385
24216SOL    HW274546   2.605   8.592   4.453
24217SOL     OW74547   6.183   5.610  10.773
24217SOL    HW174548   6.224   5.601  10.860
24217SOL    HW274549   6.216   5.694  10.741
24218SOL     OW74550   6.873   7.235   9.620
24218SOL    HW174551   6.893   7.152   9.578
24218SOL    HW274552   6.952   7.288   9.608
24219SOL     OW74553   0.108  12.107   9.568
24219SOL    HW174554   0.097  12.186   9.515
24219SOL    HW274555   0.069  12.129   9.653
24220SOL     OW74556  11.993   5.999   5.856
24220SOL    HW174557  12.080   5.974   5.826
24220SOL    HW274558  11.934   5.956   5.794
24221SOL     OW74559  13.683   1.278   6.220
24221SOL    HW174560  13.632   1.271   6.301
24221SOL    HW274561  13.721   1.191   6.208
24222SOL     OW74562   7.263   4.352   9.524
24222SOL    HW174563   7.172   4.328   9.507
24222SOL    HW274564   7.305   4.348   9.438
24223SOL     OW74565   9.732  10.489   7.107
24223SOL    HW174566   9.701  10.427   7.041
24223SOL    HW274567   9.781  10.555   7.057
24224SOL     OW74568   3.116   7.946  13.364
24224SOL    HW174569   3.120   8.037  13.333
24224SOL    HW274570   3.117   7.894  13.284
24225SOL     OW74571  10.489  12.815  10.842
24225SOL    HW174572  10.580  12.811  10.873
24225SOL    HW274573  10.444  12.748  10.894
24226SOL     OW74574   0.242  12.100   6.820
24226SOL    HW174575   0.163  12.048   6.807
24226SOL    HW274576   0.313  12.045   6.787
24227SOL     OW74577   1.330   7.045  10.229
24227SOL    HW174578   1.409   7.017  10.184
24227SOL    HW274579   1.259   7.026  10.168
24228SOL     OW74580   8.075   0.945  13.146
24228SOL    HW174581   8.168   0.927  13.141
24228SOL    HW274582   8.037   0.897  13.072
24229SOL     OW74583   9.596   2.374   0.741
24229SOL    HW174584   9.668   2.415   0.694
24229SOL    HW274585   9.634   2.347   0.825
24230SOL     OW74586   2.575  13.267   7.361
24230SOL    HW174587   2.669  13.286   7.363
24230SOL    HW274588   2.558  13.241   7.270
24231SOL     OW74589   7.869  13.496  11.443
24231SOL    HW174590   7.948  13.465  11.487
24231SOL    HW274591   7.896  13.512  11.353
24232SOL     OW74592  14.407  11.125   6.730
24232SOL    HW174593  14.393  11.168   6.645
24232SOL    HW274594  14.422  11.197   6.791
24233SOL     OW74595   5.198   5.233  10.058
24233SOL    HW174596   5.267   5.299  10.061
24233SOL    HW274597   5.117   5.282  10.070
24234SOL     OW74598  13.837   3.381   4.108
24234SOL    HW174599  13.903   3.435   4.065
24234SOL    HW274600  13.887   3.309   4.146
24235SOL     OW74601   2.265   9.360   5.283
24235SOL    HW174602   2.269   9.293   5.351
24235SOL    HW274603   2.202   9.424   5.316
24236SOL     OW74604  11.451   7.572  14.848
24236SOL    HW174605  11.431   7.624   0.046
24236SOL    HW274606  11.367   7.564  14.803
24237SOL     OW74607  13.760   3.031  14.512
24237SOL    HW174608  13.748   2.936  14.506
24237SOL    HW274609  13.783   3.058  14.423
24238SOL     OW74610  12.964   8.874   8.056
24238SOL    HW174611  12.957   8.849   7.963
24238SOL    HW274612  13.059   8.881   8.071
24239SOL     OW74613  12.147   0.361   9.722
24239SOL    HW174614  12.082   0.365   9.652
24239SOL    HW274615  12.157   0.452   9.751
24240SOL     OW74616   1.258  14.029   0.648
24240SOL    HW174617   1.167  14.059   0.647
24240SOL    HW274618   1.258  13.952   0.592
24241SOL     OW74619   2.911   3.604   7.593
24241SOL    HW174620   2.933   3.696   7.583
24241SOL    HW274621   2.966   3.574   7.666
24242SOL     OW74622   1.848   1.091  10.741
24242SOL    HW174623   1.843   1.181  10.776
24242SOL    HW274624   1.756   1.062  10.740
24243SOL     OW74625   6.534  11.869   9.233
24243SOL    HW174626   6.467  11.805   9.255
24243SOL    HW274627   6.511  11.946   9.285
24244SOL     OW74628  10.969   4.366   9.736
24244SOL    HW174629  10.999   4.410   9.816
24244SOL    HW274630  10.875   4.353   9.750
24245SOL     OW74631   9.164  13.141  11.539
24245SOL    HW174632   9.106  13.202  11.494
24245SOL    HW274633   9.219  13.197  11.595
24246SOL     OW74634   1.271   4.646   5.527
24246SOL    HW174635   1.193   4.610   5.570
24246SOL    HW274636   1.296   4.579   5.463
24247SOL     OW74637  10.363  13.294   6.363
24247SOL    HW174638  10.267  13.296   6.371
24247SOL    HW274639  10.391  13.234   6.432
24248SOL     OW74640  12.941  13.320   9.221
24248SOL    HW174641  12.996  13.391   9.186
24248SOL    HW274642  12.947  13.251   9.155
24249SOL     OW74643   3.507   1.335   7.275
24249SOL    HW174644   3.569   1.279   7.229
24249SOL    HW274645   3.559   1.409   7.306
24250SOL     OW74646   6.216   1.348   6.477
24250SOL    HW174647   6.206   1.317   6.387
24250SOL    HW274648   6.310   1.349   6.492
24251SOL     OW74649  13.631   2.346   6.398
24251SOL    HW174650  13.695   2.280   6.425
24251SOL    HW274651  13.551   2.297   6.382
24252SOL     OW74652   4.343   4.869   5.476
24252SOL    HW174653   4.436   4.894   5.477
24252SOL    HW274654   4.335   4.808   5.403
24253SOL     OW74655   3.490  12.281  14.842
24253SOL    HW174656   3.543  12.287  14.762
24253SOL    HW274657   3.518  12.355   0.015
24254SOL     OW74658  10.158  14.770   3.777
24254SOL    HW174659  10.090  14.744   3.839
24254SOL    HW274660  10.137  14.721   3.697
24255SOL     OW74661   0.289  12.071   4.138
24255SOL    HW174662   0.219  12.110   4.190
24255SOL    HW274663   0.292  11.980   4.166
24256SOL     OW74664  13.192   4.142   4.571
24256SOL    HW174665  13.226   4.056   4.596
24256SOL    HW274666  13.247   4.204   4.619
24257SOL     OW74667  13.112   9.214   0.785
24257SOL    HW174668  13.115   9.203   0.690
24257SOL    HW274669  13.140   9.129   0.820
24258SOL     OW74670   9.166  12.760   3.481
24258SOL    HW174671   9.137  12.683   3.531
24258SOL    HW274672   9.261  12.760   3.490
24259SOL     OW74673  14.637   2.712   5.710
24259SOL    HW174674  14.642   2.637   5.768
24259SOL    HW274675  14.558   2.697   5.657
24260SOL     OW74676  14.496   1.869   5.173
24260SOL    HW174677  14.470   1.940   5.231
24260SOL    HW274678  14.586   1.850   5.196
24261SOL     OW74679  10.608   9.530   3.247
24261SOL    HW174680  10.557   9.473   3.305
24261SOL    HW274681  10.582   9.619   3.273
24262SOL     OW74682   0.378  13.522   4.143
24262SOL    HW174683   0.304  13.580   4.124
24262SOL    HW274684   0.455  13.574   4.121
24263SOL     OW74685  10.767  14.348   7.395
24263SOL    HW174686  10.729  14.260   7.404
24263SOL    HW274687  10.711  14.404   7.450
24264SOL     OW74688   0.186  10.014  10.720
24264SOL    HW174689   0.189   9.919  10.729
24264SOL    HW274690   0.107  10.040  10.767
24265SOL     OW74691   5.608  10.014  10.098
24265SOL    HW174692   5.560  10.067  10.162
24265SOL    HW274693   5.685   9.983  10.146
24266SOL     OW74694   7.895   4.324   3.408
24266SOL    HW174695   7.948   4.278   3.343
24266SOL    HW274696   7.806   4.292   3.394
24267SOL     OW74697   2.561  11.200  14.220
24267SOL    HW174698   2.650  11.169  14.234
24267SOL    HW274699   2.566  11.253  14.140
24268SOL     OW74700   8.560  12.733   8.344
24268SOL    HW174701   8.544  12.683   8.264
24268SOL    HW274702   8.485  12.791   8.352
24269SOL     OW74703   3.967   8.332   0.756
24269SOL    HW174704   3.969   8.318   0.851
24269SOL    HW274705   4.056   8.313   0.727
24270SOL     OW74706   5.079  12.404   2.586
24270SOL    HW174707   5.002  12.347   2.592
24270SOL    HW274708   5.119  12.399   2.672
24271SOL     OW74709   1.792   4.099  12.001
24271SOL    HW174710   1.828   4.101  11.913
24271SOL    HW274711   1.708   4.055  11.991
24272SOL     OW74712   1.008   5.004   6.845
24272SOL    HW174713   1.068   4.978   6.915
24272SOL    HW274714   1.042   4.959   6.767
24273SOL     OW74715  10.890   4.051   3.913
24273SOL    HW174716  10.803   4.038   3.876
24273SOL    HW274717  10.877   4.047   4.008
24274SOL     OW74718   0.328   9.088   3.381
24274SOL    HW174719   0.354   9.169   3.337
24274SOL    HW274720   0.238   9.104   3.409
24275SOL     OW74721  10.710  13.678   6.122
24275SOL    HW174722  10.804  13.683   6.101
24275SOL    HW274723  10.708  13.646   6.212
24276SOL     OW74724   6.646   7.240  12.861
24276SOL    HW174725   6.644   7.318  12.916
24276SOL    HW274726   6.672   7.170  12.921
24277SOL     OW74727  11.547   5.652   2.997
24277SOL    HW174728  11.590   5.656   2.912
24277SOL    HW274729  11.578   5.730   3.043
24278SOL     OW74730   9.006  10.099   4.041
24278SOL    HW174731   8.935  10.036   4.032
24278SOL    HW274732   9.047  10.102   3.954
24279SOL     OW74733  11.431   3.111   1.912
24279SOL    HW174734  11.364   3.161   1.865
24279SOL    HW274735  11.424   3.140   2.003
24280SOL     OW74736  12.548  14.045   8.206
24280SOL    HW174737  12.517  13.986   8.274
24280SOL    HW274738  12.630  14.008   8.176
24281SOL     OW74739  13.038   7.504   4.398
24281SOL    HW174740  13.056   7.562   4.472
24281SOL    HW274741  13.024   7.564   4.324
24282SOL     OW74742  13.456   8.555   3.332
24282SOL    HW174743  13.425   8.576   3.244
24282SOL    HW274744  13.551   8.547   3.322
24283SOL     OW74745   1.425  11.019   4.276
24283SOL    HW174746   1.354  11.048   4.219
24283SOL    HW274747   1.404  11.057   4.362
24284SOL     OW74748  10.303   4.005   5.556
24284SOL    HW174749  10.250   3.932   5.524
24284SOL    HW274750  10.242   4.078   5.563
24285SOL     OW74751   4.760  12.933   4.779
24285SOL    HW174752   4.693  12.909   4.715
24285SOL    HW274753   4.783  12.850   4.821
24286SOL     OW74754   4.783  13.831   4.596
24286SOL    HW174755   4.827  13.764   4.545
24286SOL    HW274756   4.695  13.795   4.614
24287SOL     OW74757   7.135   2.193   7.240
24287SOL    HW174758   7.140   2.288   7.241
24287SOL    HW274759   7.048   2.173   7.274
24288SOL     OW74760   4.425   1.221   7.263
24288SOL    HW174761   4.369   1.143   7.262
24288SOL    HW274762   4.508   1.190   7.226
24289SOL     OW74763   3.285   9.146   9.707
24289SOL    HW174764   3.280   9.055   9.737
24289SOL    HW274765   3.216   9.153   9.641
24290SOL     OW74766  14.879   9.207   6.838
24290SOL    HW174767   0.052   9.204   6.758
24290SOL    HW274768  14.791   9.185   6.809
24291SOL     OW74769   4.166   6.330   6.464
24291SOL    HW174770   4.135   6.294   6.546
24291SOL    HW274771   4.139   6.266   6.398
24292SOL     OW74772   5.164   8.422   1.905
24292SOL    HW174773   5.075   8.448   1.884
24292SOL    HW274774   5.157   8.377   1.989
24293SOL     OW74775  14.802  12.671   4.470
24293SOL    HW174776  14.790  12.717   4.553
24293SOL    HW274777  14.714  12.664   4.434
24294SOL     OW74778   1.901  14.028   3.250
24294SOL    HW174779   1.879  14.091   3.319
24294SOL    HW274780   1.945  14.080   3.183
24295SOL     OW74781  12.852  13.321   1.687
24295SOL    HW174782  12.935  13.339   1.645
24295SOL    HW274783  12.815  13.407   1.707
24296SOL     OW74784   7.750   2.302   3.534
24296SOL    HW174785   7.689   2.285   3.607
24296SOL    HW274786   7.765   2.397   3.538
24297SOL     OW74787   1.491  12.105   1.013
24297SOL    HW174788   1.543  12.076   1.087
24297SOL    HW274789   1.547  12.090   0.937
24298SOL     OW74790   0.751   6.101  14.618
24298SOL    HW174791   0.748   6.191  14.587
24298SOL    HW274792   0.837   6.069  14.589
24299SOL     OW74793   3.776   4.601   2.144
24299SOL    HW174794   3.704   4.603   2.208
24299SOL    HW274795   3.747   4.659   2.074
24300SOL     OW74796  12.715   7.666  14.392
24300SOL    HW174797  12.769   7.708  14.459
24300SOL    HW274798  12.708   7.731  14.323
24301SOL     OW74799  13.708   1.950   2.883
24301SOL    HW174800  13.768   2.002   2.829
24301SOL    HW274801  13.679   2.011   2.951
24302SOL     OW74802   9.873  10.865   0.872
24302SOL    HW174803   9.944  10.908   0.825
24302SOL    HW274804   9.875  10.774   0.841
24303SOL     OW74805  10.517  14.848   5.877
24303SOL    HW174806  10.511   0.043   5.936
24303SOL    HW274807  10.446  14.860   5.814
24304SOL     OW74808   0.886   9.942   1.689
24304SOL    HW174809   0.803   9.982   1.667
24304SOL    HW274810   0.930   9.929   1.605
24305SOL     OW74811   0.916   4.229   8.397
24305SOL    HW174812   0.902   4.305   8.340
24305SOL    HW274813   1.002   4.196   8.371
24306SOL     OW74814   8.154  11.862   1.054
24306SOL    HW174815   8.126  11.833   1.140
24306SOL    HW274816   8.243  11.895   1.068
24307SOL     OW74817  11.600   6.426   7.670
24307SOL    HW174818  11.633   6.515   7.672
24307SOL    HW274819  11.504   6.435   7.667
24308SOL     OW74820   5.722   0.869  14.665
24308SOL    HW174821   5.645   0.926  14.661
24308SOL    HW274822   5.743   0.864  14.758
24309SOL     OW74823   5.295   9.669   8.541
24309SOL    HW174824   5.327   9.621   8.618
24309SOL    HW274825   5.209   9.700   8.566
24310SOL     OW74826  12.053  13.761  11.373
24310SOL    HW174827  12.007  13.682  11.345
24310SOL    HW274828  12.085  13.801  11.292
24311SOL     OW74829   3.334   6.418   0.312
24311SOL    HW174830   3.326   6.512   0.295
24311SOL    HW274831   3.379   6.383   0.236
24312SOL     OW74832  10.506  13.712   5.211
24312SOL    HW174833  10.601  13.715   5.204
24312SOL    HW274834  10.487  13.750   5.296
24313SOL     OW74835  12.102   5.464   4.368
24313SOL    HW174836  12.142   5.442   4.452
24313SOL    HW274837  12.029   5.403   4.360
24314SOL     OW74838  13.283  14.805  14.794
24314SOL    HW174839  13.300  14.871  14.860
24314SOL    HW274840  13.194  14.774  14.812
24315SOL     OW74841   9.898   0.643   5.606
24315SOL    HW174842   9.881   0.615   5.516
24315SOL    HW274843   9.886   0.738   5.605
24316SOL     OW74844  12.733   1.007  10.454
24316SOL    HW174845  12.656   1.062  10.438
24316SOL    HW274846  12.698   0.926  10.490
24317SOL     OW74847  10.735   9.190  12.052
24317SOL    HW174848  10.731   9.278  12.014
24317SOL    HW274849  10.718   9.132  11.978
24318SOL     OW74850   3.489   9.502   2.284
24318SOL    HW174851   3.581   9.479   2.299
24318SOL    HW274852   3.442   9.419   2.295
24319SOL     OW74853  14.590  10.382  12.200
24319SOL    HW174854  14.652  10.402  12.270
24319SOL    HW274855  14.526  10.453  12.204
24320SOL     OW74856   3.261   9.885   5.076
24320SOL    HW174857   3.256   9.798   5.115
24320SOL    HW274858   3.186   9.932   5.111
24321SOL     OW74859   6.465   1.160   7.890
24321SOL    HW174860   6.404   1.213   7.941
24321SOL    HW274861   6.551   1.179   7.928
24322SOL     OW74862   1.776   4.858   3.462
24322SOL    HW174863   1.827   4.920   3.410
24322SOL    HW274864   1.842   4.808   3.510
24323SOL     OW74865   5.729   4.727   8.856
24323SOL    HW174866   5.640   4.698   8.876
24323SOL    HW274867   5.781   4.697   8.930
24324SOL     OW74868   6.805  13.559   8.112
24324SOL    HW174869   6.799  13.539   8.206
24324SOL    HW274870   6.722  13.528   8.076
24325SOL     OW74871  12.312  12.719   1.674
24325SOL    HW174872  12.358  12.802   1.659
24325SOL    HW274873  12.220  12.739   1.656
24326SOL     OW74874  11.390   5.015   4.988
24326SOL    HW174875  11.362   5.028   4.898
24326SOL    HW274876  11.400   4.921   4.998
24327SOL     OW74877   2.018   5.515   4.876
24327SOL    HW174878   1.961   5.445   4.844
24327SOL    HW274879   2.079   5.531   4.804
24328SOL     OW74880   0.943  10.957   0.505
24328SOL    HW174881   0.866  10.901   0.517
24328SOL    HW274882   0.965  10.948   0.412
24329SOL     OW74883   4.752   9.535   8.332
24329SOL    HW174884   4.686   9.550   8.400
24329SOL    HW274885   4.781   9.623   8.308
24330SOL     OW74886   7.691  10.711   8.864
24330SOL    HW174887   7.731  10.759   8.937
24330SOL    HW274888   7.753  10.722   8.792
24331SOL     OW74889   6.594   3.768   1.339
24331SOL    HW174890   6.686   3.756   1.317
24331SOL    HW274891   6.579   3.862   1.326
24332SOL     OW74892   9.255   6.656   9.534
24332SOL    HW174893   9.247   6.706   9.616
24332SOL    HW274894   9.246   6.721   9.465
24333SOL     OW74895   2.673  13.237   7.003
24333SOL    HW174896   2.708  13.234   6.914
24333SOL    HW274897   2.742  13.278   7.055
24334SOL     OW74898   4.439   5.245  12.570
24334SOL    HW174899   4.389   5.318  12.531
24334SOL    HW274900   4.394   5.227  12.652
24335SOL     OW74901  13.517   0.277   8.651
24335SOL    HW174902  13.586   0.232   8.700
24335SOL    HW274903  13.559   0.306   8.570
24336SOL     OW74904   4.446   0.068   2.648
24336SOL    HW174905   4.384   0.084   2.718
24336SOL    HW274906   4.521   0.124   2.668
24337SOL     OW74907   1.097   1.858  10.734
24337SOL    HW174908   1.093   1.917  10.659
24337SOL    HW274909   1.030   1.792  10.716
24338SOL     OW74910   9.772   4.011   9.501
24338SOL    HW174911   9.753   4.019   9.407
24338SOL    HW274912   9.717   4.077   9.542
24339SOL     OW74913   9.372   5.796   6.065
24339SOL    HW174914   9.354   5.762   5.978
24339SOL    HW274915   9.306   5.863   6.079
24340SOL     OW74916   2.541   6.974   5.699
24340SOL    HW174917   2.598   6.918   5.646
24340SOL    HW274918   2.491   7.024   5.635
24341SOL     OW74919   4.797  13.856  12.670
24341SOL    HW174920   4.815  13.861  12.576
24341SOL    HW274921   4.858  13.917  12.709
24342SOL     OW74922   0.466   6.332   1.618
24342SOL    HW174923   0.510   6.417   1.627
24342SOL    HW274924   0.382   6.353   1.579
24343SOL     OW74925   2.382  14.361   0.108
24343SOL    HW174926   2.287  14.372   0.120
24343SOL    HW274927   2.414  14.334   0.194
24344SOL     OW74928   3.526   3.966   0.828
24344SOL    HW174929   3.457   3.936   0.888
24344SOL    HW274930   3.587   4.014   0.884
24345SOL     OW74931   2.841   9.551   3.970
24345SOL    HW174932   2.858   9.550   4.064
24345SOL    HW274933   2.922   9.516   3.931
24346SOL     OW74934   5.400   2.632   2.006
24346SOL    HW174935   5.459   2.670   2.070
24346SOL    HW274936   5.450   2.559   1.968
24347SOL     OW74937   4.783  10.226   2.711
24347SOL    HW174938   4.828  10.153   2.668
24347SOL    HW274939   4.705  10.240   2.657
24348SOL     OW74940   7.739  12.319   2.615
24348SOL    HW174941   7.770  12.242   2.663
24348SOL    HW274942   7.645  12.322   2.633
24349SOL     OW74943   2.604   0.997   0.729
24349SOL    HW174944   2.633   0.906   0.717
24349SOL    HW274945   2.527   0.990   0.786
24350SOL     OW74946   1.930   5.289   7.391
24350SOL    HW174947   1.865   5.299   7.461
24350SOL    HW274948   1.878   5.273   7.313
24351SOL     OW74949   8.666   8.961  11.647
24351SOL    HW174950   8.583   8.962  11.696
24351SOL    HW274951   8.683   9.053  11.628
24352SOL     OW74952  12.061   4.195   7.895
24352SOL    HW174953  12.012   4.137   7.836
24352SOL    HW274954  12.011   4.277   7.895
24353SOL     OW74955   7.773   9.393   6.330
24353SOL    HW174956   7.742   9.379   6.240
24353SOL    HW274957   7.869   9.389   6.322
24354SOL     OW74958   4.885  12.294  10.981
24354SOL    HW174959   4.853  12.329  10.898
24354SOL    HW274960   4.852  12.205  10.985
24355SOL     OW74961   5.871   9.403   0.621
24355SOL    HW174962   5.965   9.408   0.639
24355SOL    HW274963   5.835   9.358   0.698
24356SOL     OW74964   4.559   2.579  13.234
24356SOL    HW174965   4.627   2.525  13.195
24356SOL    HW274966   4.491   2.584  13.168
24357SOL     OW74967   9.877   3.145   5.956
24357SOL    HW174968   9.928   3.203   6.013
24357SOL    HW274969   9.788   3.150   5.990
24358SOL     OW74970   4.019   3.192   2.361
24358SOL    HW174971   4.079   3.263   2.381
24358SOL    HW274972   4.073   3.113   2.366
24359SOL     OW74973  11.285   2.053  13.632
24359SOL    HW174974  11.223   2.125  13.630
24359SOL    HW274975  11.291   2.023  13.542
24360SOL     OW74976   0.780  12.854   8.240
24360SOL    HW174977   0.807  12.805   8.163
24360SOL    HW274978   0.731  12.791   8.293
24361SOL     OW74979  14.857   9.223   8.950
24361SOL    HW174980  14.861   9.318   8.962
24361SOL    HW274981   0.067   9.194   8.954
24362SOL     OW74982  10.725   2.226  14.300
24362SOL    HW174983  10.681   2.273  14.371
24362SOL    HW274984  10.771   2.294  14.251
24363SOL     OW74985   7.492  12.738  10.168
24363SOL    HW174986   7.505  12.650  10.203
24363SOL    HW274987   7.412  12.769  10.210
24364SOL     OW74988  14.229   7.272  10.417
24364SOL    HW174989  14.258   7.364  10.415
24364SOL    HW274990  14.163   7.266  10.348
24365SOL     OW74991   3.207   2.250   9.362
24365SOL    HW174992   3.138   2.257   9.295
24365SOL    HW274993   3.259   2.329   9.350
24366SOL     OW74994   9.335   7.821   7.407
24366SOL    HW174995   9.400   7.777   7.352
24366SOL    HW274996   9.348   7.784   7.495
24367SOL     OW74997  13.619   3.820   3.293
24367SOL    HW174998  13.621   3.774   3.208
24367SOL    HW274999  13.645   3.753   3.356
24368SOL     OW75000   4.785  13.219  12.481
24368SOL    HW175001   4.859  13.279  12.488
24368SOL    HW275002   4.821  13.142  12.438
24369SOL     OW75003  14.026   6.994  10.099
24369SOL    HW175004  14.021   6.993  10.195
24369SOL    HW275005  13.991   7.080  10.074
24370SOL     OW75006  13.401   7.366   8.882
24370SOL    HW175007  13.468   7.361   8.950
24370SOL    HW275008  13.329   7.414   8.922
24371SOL     OW75009  11.882  12.874  12.285
24371SOL    HW175010  11.906  12.967  12.284
24371SOL    HW275011  11.844  12.858  12.199
24372SOL     OW75012  10.199   9.406   5.220
24372SOL    HW175013  10.275   9.361   5.257
24372SOL    HW275014  10.149   9.337   5.176
24373SOL     OW75015   3.425   7.469   7.124
24373SOL    HW175016   3.334   7.455   7.099
24373SOL    HW275017   3.460   7.530   7.059
24374SOL     OW75018   9.473   7.383   9.298
24374SOL    HW175019   9.522   7.308   9.265
24374SOL    HW275020   9.396   7.388   9.242
24375SOL     OW75021  11.698   2.624   4.797
24375SOL    HW175022  11.791   2.620   4.821
24375SOL    HW275023  11.694   2.691   4.728
24376SOL     OW75024   9.138  11.133   8.082
24376SOL    HW175025   9.085  11.066   8.040
24376SOL    HW275026   9.136  11.111   8.175
24377SOL     OW75027   1.854   1.360  10.800
24377SOL    HW175028   1.853   1.426  10.869
24377SOL    HW275029   1.807   1.402  10.727
24378SOL     OW75030  13.291   6.129  13.111
24378SOL    HW175031  13.292   6.224  13.097
24378SOL    HW275032  13.367   6.097  13.061
24379SOL     OW75033  14.337   8.140   4.136
24379SOL    HW175034  14.420   8.136   4.089
24379SOL    HW275035  14.326   8.053   4.173
24380SOL     OW75036   3.654   4.881   7.478
24380SOL    HW175037   3.570   4.927   7.473
24380SOL    HW275038   3.640   4.800   7.430
24381SOL     OW75039   8.489   0.454   7.173
24381SOL    HW175040   8.526   0.449   7.261
24381SOL    HW275041   8.564   0.450   7.114
24382SOL     OW75042   0.166   0.989  10.861
24382SOL    HW175043   0.084   0.940  10.870
24382SOL    HW275044   0.209   0.979  10.945
24383SOL     OW75045   3.872   3.632   9.730
24383SOL    HW175046   3.823   3.579   9.793
24383SOL    HW275047   3.810   3.701   9.704
24384SOL     OW75048   1.380  10.803  12.898
24384SOL    HW175049   1.444  10.759  12.954
24384SOL    HW275050   1.362  10.885  12.942
24385SOL     OW75051   6.411  12.577   2.969
24385SOL    HW175052   6.380  12.651   3.021
24385SOL    HW275053   6.460  12.618   2.897
24386SOL     OW75054   1.441   9.863   4.400
24386SOL    HW175055   1.489   9.789   4.436
24386SOL    HW275056   1.502   9.902   4.337
24387SOL     OW75057   6.977   0.395  14.653
24387SOL    HW175058   6.977   0.325  14.719
24387SOL    HW275059   7.069   0.423  14.648
24388SOL     OW75060   8.473   3.256  13.675
24388SOL    HW175061   8.386   3.247  13.636
24388SOL    HW275062   8.519   3.317  13.617
24389SOL     OW75063   3.387   1.800   3.173
24389SOL    HW175064   3.353   1.717   3.141
24389SOL    HW275065   3.473   1.779   3.209
24390SOL     OW75066  12.722   7.956   3.138
24390SOL    HW175067  12.741   7.912   3.055
24390SOL    HW275068  12.643   8.008   3.120
24391SOL     OW75069   8.968  11.058  13.949
24391SOL    HW175070   8.892  11.108  13.978
24391SOL    HW275071   8.993  11.098  13.866
24392SOL     OW75072   3.667   3.927  12.156
24392SOL    HW175073   3.637   3.942  12.245
24392SOL    HW275074   3.587   3.924  12.103
24393SOL     OW75075   4.581   0.398   3.539
24393SOL    HW175076   4.516   0.329   3.527
24393SOL    HW275077   4.602   0.427   3.451
24394SOL     OW75078   3.661   3.948   0.605
24394SOL    HW175079   3.685   4.040   0.595
24394SOL    HW275080   3.613   3.945   0.688
24395SOL     OW75081   3.107   4.905  13.410
24395SOL    HW175082   3.068   4.817  13.409
24395SOL    HW275083   3.033   4.963  13.423
24396SOL     OW75084  12.896  13.582   8.016
24396SOL    HW175085  12.916  13.526   8.091
24396SOL    HW275086  12.962  13.652   8.021
24397SOL     OW75087  13.241   3.781  12.892
24397SOL    HW175088  13.262   3.737  12.810
24397SOL    HW275089  13.229   3.711  12.955
24398SOL     OW75090  13.822  12.138  14.520
24398SOL    HW175091  13.797  12.200  14.451
24398SOL    HW275092  13.811  12.187  14.602
24399SOL     OW75093  14.159   3.320   9.612
24399SOL    HW175094  14.129   3.400   9.567
24399SOL    HW275095  14.114   3.323   9.697
24400SOL     OW75096   0.233  12.312  13.575
24400SOL    HW175097   0.219  12.255  13.651
24400SOL    HW275098   0.231  12.252  13.500
24401SOL     OW75099  13.244   2.208   9.089
24401SOL    HW175100  13.161   2.189   9.134
24401SOL    HW275101  13.286   2.123   9.080
24402SOL     OW75102   3.270   8.360  12.232
24402SOL    HW175103   3.336   8.293  12.247
24402SOL    HW275104   3.236   8.380  12.319
24403SOL     OW75105   6.489  12.434   7.215
24403SOL    HW175106   6.542  12.355   7.209
24403SOL    HW275107   6.546  12.504   7.182
24404SOL     OW75108  11.796   5.459   1.831
24404SOL    HW175109  11.809   5.409   1.912
24404SOL    HW275110  11.836   5.406   1.763
24405SOL     OW75111  13.589   4.602   4.591
24405SOL    HW175112  13.550   4.556   4.516
24405SOL    HW275113  13.587   4.694   4.567
24406SOL     OW75114   1.477   1.077  10.096
24406SOL    HW175115   1.471   1.166  10.129
24406SOL    HW275116   1.551   1.078  10.036
24407SOL     OW75117  14.499  10.735  12.129
24407SOL    HW175118  14.514  10.827  12.108
24407SOL    HW275119  14.509  10.689  12.046
24408SOL     OW75120   3.124   0.046   0.922
24408SOL    HW175121   3.100   0.049   0.829
24408SOL    HW275122   3.214   0.014   0.923
24409SOL     OW75123   1.123  12.758   5.425
24409SOL    HW175124   1.176  12.757   5.504
24409SOL    HW275125   1.065  12.682   5.434
24410SOL     OW75126  14.703   8.828  14.785
24410SOL    HW175127  14.640   8.844  14.856
24410SOL    HW275128  14.735   8.915  14.762
24411SOL     OW75129  13.090   5.245   1.719
24411SOL    HW175130  13.079   5.218   1.810
24411SOL    HW275131  13.057   5.172   1.668
24412SOL     OW75132   8.565   6.080   0.326
24412SOL    HW175133   8.591   6.046   0.412
24412SOL    HW275134   8.633   6.050   0.266
24413SOL     OW75135   5.409   0.118  10.401
24413SOL    HW175136   5.354   0.144  10.476
24413SOL    HW275137   5.427   0.025  10.417
24414SOL     OW75138   1.740   7.602  14.876
24414SOL    HW175139   1.776   7.664  14.813
24414SOL    HW275140   1.813   7.544   0.017
24415SOL     OW75141   7.662   6.098   1.407
24415SOL    HW175142   7.645   6.093   1.313
24415SOL    HW275143   7.714   6.020   1.426
24416SOL     OW75144   8.730   5.798   1.932
24416SOL    HW175145   8.768   5.863   1.991
24416SOL    HW275146   8.657   5.760   1.981
24417SOL     OW75147   1.961   0.154   8.379
24417SOL    HW175148   1.991   0.074   8.336
24417SOL    HW275149   1.949   0.130   8.471
24418SOL     OW75150  14.367  10.537   5.083
24418SOL    HW175151  14.333  10.525   4.995
24418SOL    HW275152  14.462  10.536   5.073
24419SOL     OW75153   1.284   6.818  14.378
24419SOL    HW175154   1.347   6.880  14.342
24419SOL    HW275155   1.286   6.833  14.472
24420SOL     OW75156   0.732   4.073  13.674
24420SOL    HW175157   0.671   4.071  13.601
24420SOL    HW275158   0.739   4.166  13.696
24421SOL     OW75159   2.465  10.117   4.131
24421SOL    HW175160   2.487  10.032   4.169
24421SOL    HW275161   2.372  10.111   4.111
24422SOL     OW75162   8.841   9.835   7.193
24422SOL    HW175163   8.911   9.876   7.142
24422SOL    HW275164   8.804   9.770   7.133
24423SOL     OW75165   4.211  14.544  12.854
24423SOL    HW175166   4.148  14.582  12.915
24423SOL    HW275167   4.228  14.614  12.790
24424SOL     OW75168   9.976   1.969   4.881
24424SOL    HW175169   9.965   1.901   4.948
24424SOL    HW275170  10.046   2.025   4.916
24425SOL     OW75171  10.702  10.582  11.762
24425SOL    HW175172  10.647  10.515  11.802
24425SOL    HW275173  10.656  10.664  11.779
24426SOL     OW75174   5.544   5.558   9.803
24426SOL    HW175175   5.601   5.620   9.849
24426SOL    HW275176   5.468   5.609   9.777
24427SOL     OW75177   9.477   5.464   0.578
24427SOL    HW175178   9.568   5.475   0.606
24427SOL    HW275179   9.483   5.412   0.498
24428SOL     OW75180  10.243   5.679   3.921
24428SOL    HW175181  10.190   5.758   3.914
24428SOL    HW275182  10.244   5.643   3.833
24429SOL     OW75183  13.993   0.280   3.867
24429SOL    HW175184  13.935   0.319   3.803
24429SOL    HW275185  13.943   0.206   3.903
24430SOL     OW75186   7.211   6.672  10.192
24430SOL    HW175187   7.297   6.632  10.203
24430SOL    HW275188   7.228   6.752  10.143
24431SOL     OW75189   5.620   6.612  14.528
24431SOL    HW175190   5.609   6.574  14.616
24431SOL    HW275191   5.710   6.592  14.504
24432SOL     OW75192   4.724   3.040   0.566
24432SOL    HW175193   4.724   3.063   0.659
24432SOL    HW275194   4.708   3.123   0.520
24433SOL     OW75195   7.808   3.832   7.405
24433SOL    HW175196   7.771   3.748   7.379
24433SOL    HW275197   7.745   3.869   7.467
24434SOL     OW75198   0.923   5.935   3.181
24434SOL    HW175199   0.885   5.927   3.269
24434SOL    HW275200   1.012   5.969   3.196
24435SOL     OW75201   4.771   9.983   1.404
24435SOL    HW175202   4.855   9.966   1.446
24435SOL    HW275203   4.733   9.897   1.389
24436SOL     OW75204   0.329  10.056  10.325
24436SOL    HW175205   0.354   9.993  10.258
24436SOL    HW275206   0.236  10.071  10.312
24437SOL     OW75207  12.596  12.468   3.212
24437SOL    HW175208  12.635  12.544   3.169
24437SOL    HW275209  12.663  12.400   3.206
24438SOL     OW75210  12.979   0.570   0.310
24438SOL    HW175211  12.926   0.514   0.254
24438SOL    HW275212  12.962   0.659   0.280
24439SOL     OW75213   0.489  10.212   4.291
24439SOL    HW175214   0.482  10.158   4.212
24439SOL    HW275215   0.582  10.207   4.315
24440SOL     OW75216   6.503   9.971   3.400
24440SOL    HW175217   6.459  10.012   3.475
24440SOL    HW275218   6.507   9.878   3.422
24441SOL     OW75219   1.477   7.655   9.070
24441SOL    HW175220   1.514   7.732   9.027
24441SOL    HW275221   1.405   7.628   9.014
24442SOL     OW75222   4.698  13.445   4.798
24442SOL    HW175223   4.686  13.354   4.825
24442SOL    HW275224   4.711  13.440   4.703
24443SOL     OW75225   0.460  11.670   7.264
24443SOL    HW175226   0.482  11.703   7.351
24443SOL    HW275227   0.456  11.748   7.209
24444SOL     OW75228   3.434   1.836  11.856
24444SOL    HW175229   3.345   1.801  11.866
24444SOL    HW275230   3.477   1.815  11.938
24445SOL     OW75231  10.844  14.596   9.425
24445SOL    HW175232  10.792  14.672   9.400
24445SOL    HW275233  10.926  14.605   9.376
24446SOL     OW75234   4.303  11.670   8.164
24446SOL    HW175235   4.209  11.684   8.170
24446SOL    HW275236   4.336  11.689   8.252
24447SOL     OW75237   8.881   0.525   7.268
24447SOL    HW175238   8.947   0.467   7.231
24447SOL    HW275239   8.813   0.529   7.201
24448SOL     OW75240   1.056   5.713   7.367
24448SOL    HW175241   1.120   5.759   7.420
24448SOL    HW275242   1.054   5.624   7.403
24449SOL     OW75243  12.607   4.261   4.680
24449SOL    HW175244  12.558   4.214   4.613
24449SOL    HW275245  12.596   4.209   4.759
24450SOL     OW75246   7.786  13.872   0.014
24450SOL    HW175247   7.711  13.923  14.863
24450SOL    HW275248   7.779  13.789  14.847
24451SOL     OW75249  12.951   4.561  14.847
24451SOL    HW175250  12.985   4.603   0.045
24451SOL    HW275251  13.029   4.535  14.797
24452SOL     OW75252   1.725   8.972   0.643
24452SOL    HW175253   1.724   9.032   0.569
24452SOL    HW275254   1.704   9.026   0.718
24453SOL     OW75255   7.242  13.788   0.250
24453SOL    HW175256   7.211  13.800   0.160
24453SOL    HW275257   7.261  13.695   0.257
24454SOL     OW75258  13.161   3.090   7.546
24454SOL    HW175259  13.097   3.093   7.474
24454SOL    HW275260  13.188   3.181   7.558
24455SOL     OW75261   7.867  12.265  12.005
24455SOL    HW175262   7.847  12.233  11.917
24455SOL    HW275263   7.783  12.267  12.050
24456SOL     OW75264   0.858   8.933  14.748
24456SOL    HW175265   0.901   8.898  14.826
24456SOL    HW275266   0.780   8.879  14.738
24457SOL     OW75267  11.203   9.584   3.270
24457SOL    HW175268  11.279   9.550   3.317
24457SOL    HW275269  11.131   9.576   3.334
24458SOL     OW75270   9.388  14.013   5.031
24458SOL    HW175271   9.444  14.086   5.057
24458SOL    HW275272   9.341  14.045   4.953
24459SOL     OW75273   0.889   9.929   2.001
24459SOL    HW175274   0.809   9.881   2.020
24459SOL    HW275275   0.880   9.954   1.909
24460SOL     OW75276   7.931  12.085   7.280
24460SOL    HW175277   7.936  12.171   7.322
24460SOL    HW275278   7.889  12.101   7.196
24461SOL     OW75279   0.916  14.019  12.744
24461SOL    HW175280   1.005  14.049  12.729
24461SOL    HW275281   0.916  13.988  12.835
24462SOL     OW75282  10.542  14.534   0.878
24462SOL    HW175283  10.621  14.484   0.857
24462SOL    HW275284  10.477  14.467   0.900
24463SOL     OW75285  12.133   9.779  13.564
24463SOL    HW175286  12.217   9.782  13.518
24463SOL    HW275287  12.149   9.825  13.647
24464SOL     OW75288   2.696   4.540   4.761
24464SOL    HW175289   2.616   4.522   4.810
24464SOL    HW275290   2.685   4.630   4.729
24465SOL     OW75291   9.303   6.411   7.595
24465SOL    HW175292   9.227   6.353   7.599
24465SOL    HW275293   9.301   6.447   7.506
24466SOL     OW75294   5.502  11.178  14.152
24466SOL    HW175295   5.458  11.207  14.071
24466SOL    HW275296   5.595  11.187  14.133
24467SOL     OW75297  10.773   7.385   2.183
24467SOL    HW175298  10.700   7.337   2.147
24467SOL    HW275299  10.808   7.435   2.109
24468SOL     OW75300  11.991  11.721   0.021
24468SOL    HW175301  12.020  11.787  14.838
24468SOL    HW275302  12.068  11.705   0.075
24469SOL     OW75303  13.548   4.565   2.547
24469SOL    HW175304  13.511   4.478   2.529
24469SOL    HW275305  13.625   4.570   2.490
24470SOL     OW75306   9.405   5.930  11.288
24470SOL    HW175307   9.339   5.978  11.338
24470SOL    HW275308   9.356   5.860  11.244
24471SOL     OW75309   1.179  13.698   9.215
24471SOL    HW175310   1.180  13.692   9.311
24471SOL    HW275311   1.195  13.790   9.196
24472SOL     OW75312  13.096  13.403  11.718
24472SOL    HW175313  13.059  13.389  11.805
24472SOL    HW275314  13.028  13.371  11.658
24473SOL     OW75315   9.564   9.658  10.168
24473SOL    HW175316   9.640   9.710  10.193
24473SOL    HW275317   9.492   9.695  10.219
24474SOL     OW75318  10.544   2.801   3.179
24474SOL    HW175319  10.458   2.818   3.140
24474SOL    HW275320  10.600   2.870   3.144
24475SOL     OW75321   2.402  14.459   0.896
24475SOL    HW175322   2.324  14.513   0.885
24475SOL    HW275323   2.471  14.521   0.920
24476SOL     OW75324   8.417  13.623   5.891
24476SOL    HW175325   8.467  13.576   5.957
24476SOL    HW275326   8.418  13.565   5.815
24477SOL     OW75327   4.170   4.102   2.767
24477SOL    HW175328   4.231   4.125   2.697
24477SOL    HW275329   4.175   4.006   2.774
24478SOL     OW75330   6.395   0.161   0.983
24478SOL    HW175331   6.369   0.074   0.952
24478SOL    HW275332   6.475   0.181   0.934
24479SOL     OW75333   2.271   1.833   7.485
24479SOL    HW175334   2.217   1.771   7.437
24479SOL    HW275335   2.360   1.798   7.477
24480SOL     OW75336   4.041  12.320   4.387
24480SOL    HW175337   4.036  12.355   4.476
24480SOL    HW275338   4.098  12.381   4.340
24481SOL     OW75339  10.154  13.344  14.577
24481SOL    HW175340  10.094  13.363  14.649
24481SOL    HW275341  10.146  13.420  14.519
24482SOL     OW75342  11.798   3.074   7.723
24482SOL    HW175343  11.860   3.021   7.773
24482SOL    HW275344  11.851   3.144   7.685
24483SOL     OW75345   8.133   6.840  12.500
24483SOL    HW175346   8.143   6.751  12.534
24483SOL    HW275347   8.213   6.854  12.448
24484SOL     OW75348   4.721  12.749   2.176
24484SOL    HW175349   4.770  12.668   2.192
24484SOL    HW275350   4.639  12.737   2.224
24485SOL     OW75351   2.567  14.070   5.986
24485SOL    HW175352   2.610  14.123   6.053
24485SOL    HW275353   2.638  14.022   5.943
24486SOL     OW75354   3.814  12.522   2.429
24486SOL    HW175355   3.815  12.512   2.524
24486SOL    HW275356   3.736  12.474   2.400
24487SOL     OW75357   1.324   9.339   4.965
24487SOL    HW175358   1.232   9.321   4.944
24487SOL    HW275359   1.365   9.355   4.880
24488SOL     OW75360   6.785   3.269  11.958
24488SOL    HW175361   6.740   3.191  11.991
24488SOL    HW275362   6.873   3.238  11.936
24489SOL     OW75363   1.063   1.562  13.608
24489SOL    HW175364   1.049   1.641  13.660
24489SOL    HW275365   1.157   1.546  13.613
24490SOL     OW75366  10.685   2.731   4.842
24490SOL    HW175367  10.708   2.718   4.933
24490SOL    HW275368  10.643   2.649   4.816
24491SOL     OW75369   4.415  11.379   4.077
24491SOL    HW175370   4.435  11.315   4.009
24491SOL    HW275371   4.500  11.413   4.103
24492SOL     OW75372   8.793   4.634   8.352
24492SOL    HW175373   8.796   4.593   8.438
24492SOL    HW275374   8.875   4.683   8.346
24493SOL     OW75375   4.391   6.974   9.860
24493SOL    HW175376   4.365   6.972   9.768
24493SOL    HW275377   4.403   6.882   9.884
24494SOL     OW75378   1.000  11.783   5.011
24494SOL    HW175379   1.006  11.768   5.105
24494SOL    HW275380   1.083  11.751   4.976
24495SOL     OW75381  10.231   6.336   7.893
24495SOL    HW175382  10.208   6.407   7.953
24495SOL    HW275383  10.322   6.315   7.914
24496SOL     OW75384   1.636   9.284   9.442
24496SOL    HW175385   1.723   9.245   9.444
24496SOL    HW275386   1.649   9.371   9.404
24497SOL     OW75387   8.073   2.056   8.287
24497SOL    HW175388   8.112   2.081   8.204
24497SOL    HW275389   8.147   2.048   8.347
24498SOL     OW75390   4.784   8.145   5.654
24498SOL    HW175391   4.694   8.116   5.636
24498SOL    HW275392   4.826   8.149   5.568
24499SOL     OW75393   0.749   5.518  10.436
24499SOL    HW175394   0.803   5.592  10.465
24499SOL    HW275395   0.664   5.533  10.479
24500SOL     OW75396  10.025   0.396  13.617
24500SOL    HW175397  10.107   0.389  13.568
24500SOL    HW275398   9.992   0.307  13.622
24501SOL     OW75399   1.161   0.741  11.610
24501SOL    HW175400   1.236   0.684  11.626
24501SOL    HW275401   1.087   0.681  11.599
24502SOL     OW75402   1.990  13.124  10.678
24502SOL    HW175403   1.943  13.200  10.714
24502SOL    HW275404   1.979  13.056  10.744
24503SOL     OW75405   8.726   9.716   8.476
24503SOL    HW175406   8.675   9.671   8.543
24503SOL    HW275407   8.666   9.781   8.439
24504SOL     OW75408   7.377   4.674   0.094
24504SOL    HW175409   7.440   4.612   0.056
24504SOL    HW275410   7.430   4.728   0.153
24505SOL     OW75411   1.715  10.444   9.833
24505SOL    HW175412   1.800  10.401   9.834
24505SOL    HW275413   1.682  10.434   9.923
24506SOL     OW75414   7.472   2.133   3.931
24506SOL    HW175415   7.546   2.080   3.961
24506SOL    HW275416   7.486   2.219   3.972
24507SOL     OW75417   5.404   0.636   4.756
24507SOL    HW175418   5.324   0.592   4.728
24507SOL    HW275419   5.380   0.729   4.761
24508SOL     OW75420   6.079   0.171   9.790
24508SOL    HW175421   6.030   0.106   9.841
24508SOL    HW275422   6.068   0.253   9.838
24509SOL     OW75423  14.196   1.281  14.808
24509SOL    HW175424  14.140   1.264   0.004
24509SOL    HW275425  14.200   1.197  14.763
24510SOL     OW75426  11.632  12.971  10.163
24510SOL    HW175427  11.560  13.023  10.200
24510SOL    HW275428  11.651  13.014  10.079
24511SOL     OW75429  13.915   8.712   3.157
24511SOL    HW175430  13.935   8.738   3.067
24511SOL    HW275431  14.000   8.693   3.196
24512SOL     OW75432   5.985  13.557   2.123
24512SOL    HW175433   5.903  13.517   2.095
24512SOL    HW275434   6.052  13.492   2.103
24513SOL     OW75435   3.268  10.107  14.297
24513SOL    HW175436   3.330  10.068  14.236
24513SOL    HW275437   3.241  10.035  14.354
24514SOL     OW75438  14.398   9.431   3.663
24514SOL    HW175439  14.326   9.439   3.601
24514SOL    HW275440  14.467   9.387   3.614
24515SOL     OW75441   1.496   3.871   1.883
24515SOL    HW175442   1.534   3.797   1.837
24515SOL    HW275443   1.455   3.924   1.815
24516SOL     OW75444   6.388   0.049   7.341
24516SOL    HW175445   6.360  14.874   7.268
24516SOL    HW275446   6.436  14.870   7.398
24517SOL     OW75447  10.585  13.053  13.157
24517SOL    HW175448  10.515  13.097  13.108
24517SOL    HW275449  10.543  13.024  13.238
24518SOL     OW75450   6.289   5.544   3.544
24518SOL    HW175451   6.194   5.532   3.540
24518SOL    HW275452   6.304   5.629   3.504
24519SOL     OW75453   3.952  14.047   9.211
24519SOL    HW175454   3.867  14.088   9.199
24519SOL    HW275455   3.960  13.987   9.136
24520SOL     OW75456   4.574   9.331   0.946
24520SOL    HW175457   4.641   9.353   1.011
24520SOL    HW275458   4.508   9.400   0.954
24521SOL     OW75459   3.222  11.510  12.481
24521SOL    HW175460   3.232  11.449  12.554
24521SOL    HW275461   3.271  11.470  12.409
24522SOL     OW75462   8.165  13.604   6.797
24522SOL    HW175463   8.179  13.512   6.775
24522SOL    HW275464   8.204  13.652   6.723
24523SOL     OW75465   6.725   0.542  14.806
24523SOL    HW175466   6.790   0.592  14.855
24523SOL    HW275467   6.774   0.468  14.770
24524SOL     OW75468   9.977   4.539  14.653
24524SOL    HW175469  10.018   4.454  14.641
24524SOL    HW275470  10.020   4.596  14.588
24525SOL     OW75471   8.906  11.989   1.354
24525SOL    HW175472   8.869  11.907   1.322
24525SOL    HW275473   8.998  11.968   1.373
24526SOL     OW75474  14.768   1.259  13.945
24526SOL    HW175475  14.808   1.195  14.004
24526SOL    HW275476  14.814   1.341  13.964
24527SOL     OW75477   1.272  11.663   4.525
24527SOL    HW175478   1.179  11.687   4.523
24527SOL    HW275479   1.306  11.709   4.602
24528SOL     OW75480   9.295   3.498  10.901
24528SOL    HW175481   9.315   3.552  10.977
24528SOL    HW275482   9.370   3.509  10.843
24529SOL     OW75483   7.579   5.574   8.751
24529SOL    HW175484   7.563   5.498   8.807
24529SOL    HW275485   7.611   5.538   8.669
24530SOL     OW75486   6.111   5.740  11.112
24530SOL    HW175487   6.161   5.805  11.062
24530SOL    HW275488   6.151   5.741  11.199
24531SOL     OW75489   5.382   8.518   4.758
24531SOL    HW175490   5.400   8.550   4.669
24531SOL    HW275491   5.468   8.490   4.790
24532SOL     OW75492   2.932  13.091   2.816
24532SOL    HW175493   2.992  13.025   2.852
24532SOL    HW275494   2.846  13.064   2.847
24533SOL     OW75495   4.930   4.869   7.131
24533SOL    HW175496   4.878   4.949   7.143
24533SOL    HW275497   4.874   4.799   7.164
24534SOL     OW75498  11.074   0.119  11.540
24534SOL    HW175499  10.986   0.157  11.545
24534SOL    HW275500  11.108   0.148  11.456
24535SOL     OW75501   7.946   6.622   1.998
24535SOL    HW175502   7.894   6.613   2.077
24535SOL    HW275503   7.932   6.541   1.950
24536SOL     OW75504  14.027   4.977  13.213
24536SOL    HW175505  13.981   5.012  13.136
24536SOL    HW275506  14.009   4.883  13.212
24537SOL     OW75507   5.423   7.394  14.819
24537SOL    HW175508   5.370   7.464  14.782
24537SOL    HW275509   5.399   7.316  14.769
24538SOL     OW75510   1.542   8.090   8.633
24538SOL    HW175511   1.532   8.124   8.544
24538SOL    HW275512   1.458   8.051   8.654
24539SOL     OW75513  11.623   4.846   5.461
24539SOL    HW175514  11.688   4.904   5.501
24539SOL    HW275515  11.593   4.894   5.383
24540SOL     OW75516   6.906  11.008  13.329
24540SOL    HW175517   6.913  10.913  13.321
24540SOL    HW275518   6.997  11.038  13.324
24541SOL     OW75519   2.279   2.217   0.917
24541SOL    HW175520   2.189   2.191   0.938
24541SOL    HW275521   2.318   2.139   0.878
24542SOL     OW75522   3.750  13.142   9.685
24542SOL    HW175523   3.746  13.165   9.778
24542SOL    HW275524   3.697  13.209   9.641
24543SOL     OW75525   7.162  12.426   9.303
24543SOL    HW175526   7.211  12.494   9.350
24543SOL    HW275527   7.113  12.474   9.236
24544SOL     OW75528   0.500  13.304   2.004
24544SOL    HW175529   0.562  13.307   1.931
24544SOL    HW275530   0.552  13.326   2.081
24545SOL     OW75531   1.050  10.633   8.019
24545SOL    HW175532   1.010  10.547   8.004
24545SOL    HW275533   1.114  10.618   8.089
24546SOL     OW75534   7.616   4.807  12.002
24546SOL    HW175535   7.583   4.718  11.993
24546SOL    HW275536   7.613   4.843  11.913
24547SOL     OW75537   0.470   3.476  10.906
24547SOL    HW175538   0.517   3.467  10.823
24547SOL    HW275539   0.463   3.571  10.919
24548SOL     OW75540  12.760   7.843   8.085
24548SOL    HW175541  12.735   7.889   8.165
24548SOL    HW275542  12.856   7.837   8.089
24549SOL     OW75543  10.500   7.605   3.491
24549SOL    HW175544  10.409   7.607   3.520
24549SOL    HW275545  10.550   7.586   3.571
24550SOL     OW75546   9.453   6.740   4.131
24550SOL    HW175547   9.402   6.677   4.182
24550SOL    HW275548   9.423   6.826   4.162
24551SOL     OW75549   3.499  13.649   6.582
24551SOL    HW175550   3.557  13.660   6.507
24551SOL    HW275551   3.412  13.663   6.547
24552SOL     OW75552  12.142   5.469   4.624
24552SOL    HW175553  12.205   5.453   4.693
24552SOL    HW275554  12.082   5.534   4.660
24553SOL     OW75555   3.269  10.866  12.856
24553SOL    HW175556   3.226  10.952  12.851
24553SOL    HW275557   3.287  10.843  12.765
24554SOL     OW75558  11.118   9.663  11.108
24554SOL    HW175559  11.147   9.741  11.157
24554SOL    HW275560  11.106   9.694  11.019
24555SOL     OW75561  12.077   5.252  14.304
24555SOL    HW175562  12.027   5.330  14.329
24555SOL    HW275563  12.166   5.284  14.291
24556SOL     OW75564   1.111   1.823   4.967
24556SOL    HW175565   1.046   1.788   4.906
24556SOL    HW275566   1.077   1.800   5.053
24557SOL     OW75567  11.261  12.205  10.032
24557SOL    HW175568  11.244  12.113  10.008
24557SOL    HW275569  11.265  12.204  10.128
24558SOL     OW75570   6.402   1.475   2.798
24558SOL    HW175571   6.351   1.395   2.792
24558SOL    HW275572   6.349   1.541   2.752
24559SOL     OW75573  12.806  12.311  13.636
24559SOL    HW175574  12.886  12.327  13.587
24559SOL    HW275575  12.796  12.216  13.636
24560SOL     OW75576  14.732   4.827  14.500
24560SOL    HW175577  14.755   4.759  14.437
24560SOL    HW275578  14.802   4.892  14.492
24561SOL     OW75579   2.657   8.848   2.575
24561SOL    HW175580   2.696   8.762   2.587
24561SOL    HW275581   2.587   8.853   2.640
24562SOL     OW75582   6.049  14.470   5.165
24562SOL    HW175583   6.030  14.447   5.074
24562SOL    HW275584   6.116  14.538   5.159
24563SOL     OW75585   3.137   3.874   1.287
24563SOL    HW175586   3.111   3.856   1.378
24563SOL    HW275587   3.194   3.950   1.293
24564SOL     OW75588  11.170   9.001   9.969
24564SOL    HW175589  11.114   9.052  10.027
24564SOL    HW275590  11.124   8.917   9.960
24565SOL     OW75591   8.549   7.179  13.552
24565SOL    HW175592   8.596   7.228  13.484
24565SOL    HW275593   8.609   7.108  13.576
24566SOL     OW75594   1.553   1.590  11.878
24566SOL    HW175595   1.499   1.662  11.844
24566SOL    HW275596   1.635   1.597  11.829
24567SOL     OW75597   9.083   4.888   1.470
24567SOL    HW175598   9.042   4.973   1.484
24567SOL    HW275599   9.151   4.883   1.537
24568SOL     OW75600  11.374   2.014   9.470
24568SOL    HW175601  11.358   2.025   9.564
24568SOL    HW275602  11.303   2.063   9.428
24569SOL     OW75603  14.499   3.954   0.114
24569SOL    HW175604  14.446   4.027   0.145
24569SOL    HW275605  14.437   3.895   0.071
24570SOL     OW75606   7.245  12.208   9.833
24570SOL    HW175607   7.177  12.140   9.834
24570SOL    HW275608   7.299  12.186   9.757
24571SOL     OW75609   9.057  11.351   5.757
24571SOL    HW175610   9.068  11.385   5.846
24571SOL    HW275611   9.009  11.421   5.711
24572SOL     OW75612   7.268  14.182  14.857
24572SOL    HW175613   7.252  14.145   0.064
24572SOL    HW275614   7.196  14.244  14.844
24573SOL     OW75615  14.830  11.131   8.431
24573SOL    HW175616  14.839  11.119   8.525
24573SOL    HW275617   0.006  11.064   8.393
24574SOL     OW75618  13.407  12.702   8.577
24574SOL    HW175619  13.331  12.755   8.552
24574SOL    HW275620  13.385  12.614   8.548
24575SOL     OW75621  13.265   5.660   2.578
24575SOL    HW175622  13.227   5.581   2.541
24575SOL    HW275623  13.285   5.637   2.669
24576SOL     OW75624  11.282  13.391  11.499
24576SOL    HW175625  11.284  13.304  11.459
24576SOL    HW275626  11.284  13.375  11.593
24577SOL     OW75627   5.838   9.330   5.321
24577SOL    HW175628   5.897   9.358   5.250
24577SOL    HW275629   5.820   9.238   5.303
24578SOL     OW75630  12.344   1.715   2.514
24578SOL    HW175631  12.425   1.758   2.542
24578SOL    HW275632  12.294   1.783   2.470
24579SOL     OW75633   5.098  10.214  11.665
24579SOL    HW175634   5.124  10.173  11.582
24579SOL    HW275635   5.181  10.229  11.710
24580SOL     OW75636   7.508   6.188   6.653
24580SOL    HW175637   7.529   6.234   6.572
24580SOL    HW275638   7.412   6.182   6.653
24581SOL     OW75639   8.467  12.582   6.517
24581SOL    HW175640   8.557  12.608   6.496
24581SOL    HW275641   8.432  12.548   6.435
24582SOL     OW75642   8.884  11.383   9.878
24582SOL    HW175643   8.797  11.356   9.848
24582SOL    HW275644   8.871  11.406   9.970
24583SOL     OW75645   2.856   9.057   9.679
24583SOL    HW175646   2.882   9.029   9.591
24583SOL    HW275647   2.916   9.011   9.738
24584SOL     OW75648  11.200  14.042   4.616
24584SOL    HW175649  11.286  14.014   4.645
24584SOL    HW275650  11.149  13.962   4.609
24585SOL     OW75651   1.614  12.642   0.128
24585SOL    HW175652   1.522  12.667   0.115
24585SOL    HW275653   1.617  12.549   0.103
24586SOL     OW75654   5.380   0.817   1.245
24586SOL    HW175655   5.451   0.822   1.309
24586SOL    HW275656   5.417   0.853   1.164
24587SOL     OW75657   6.760   0.516  11.028
24587SOL    HW175658   6.796   0.600  11.058
24587SOL    HW275659   6.710   0.483  11.103
24588SOL     OW75660   9.459  11.738   0.146
24588SOL    HW175661   9.517  11.800   0.190
24588SOL    HW275662   9.490  11.737   0.055
24589SOL     OW75663   7.682   7.535   5.602
24589SOL    HW175664   7.695   7.571   5.689
24589SOL    HW275665   7.597   7.491   5.606
24590SOL     OW75666  11.630   9.027  13.323
24590SOL    HW175667  11.535   9.036  13.331
24590SOL    HW275668  11.663   9.055  13.408
24591SOL     OW75669   5.155   4.277   1.039
24591SOL    HW175670   5.202   4.347   1.084
24591SOL    HW275671   5.091   4.323   0.984
24592SOL     OW75672   1.962   9.331   0.642
24592SOL    HW175673   1.958   9.425   0.663
24592SOL    HW275674   2.052   9.316   0.616
24593SOL     OW75675  12.155   3.405  11.501
24593SOL    HW175676  12.127   3.314  11.492
24593SOL    HW275677  12.174   3.434  11.412
24594SOL     OW75678  10.501   0.257  10.704
24594SOL    HW175679  10.524   0.299  10.787
24594SOL    HW275680  10.549   0.174  10.705
24595SOL     OW75681   3.075   5.325   9.398
24595SOL    HW175682   3.092   5.265   9.326
24595SOL    HW275683   3.143   5.392   9.390
24596SOL     OW75684   7.316   0.965  12.376
24596SOL    HW175685   7.350   0.905  12.443
24596SOL    HW275686   7.393   1.010  12.342
24597SOL     OW75687  12.397   4.337   5.301
24597SOL    HW175688  12.353   4.256   5.329
24597SOL    HW275689  12.441   4.368   5.380
24598SOL     OW75690   3.822   3.557   3.024
24598SOL    HW175691   3.806   3.473   2.981
24598SOL    HW275692   3.760   3.559   3.096
24599SOL     OW75693   5.342  12.484   1.888
24599SOL    HW175694   5.344  12.482   1.984
24599SOL    HW275695   5.337  12.392   1.863
24600SOL     OW75696   6.225   1.980   7.564
24600SOL    HW175697   6.131   1.996   7.576
24600SOL    HW275698   6.249   1.923   7.638
24601SOL     OW75699   9.872   4.026   5.760
24601SOL    HW175700   9.797   4.049   5.704
24601SOL    HW275701   9.895   3.937   5.733
24602SOL     OW75702   1.241   2.247   7.340
24602SOL    HW175703   1.204   2.159   7.344
24602SOL    HW275704   1.285   2.251   7.255
24603SOL     OW75705   0.741   2.821   8.182
24603SOL    HW175706   0.733   2.727   8.195
24603SOL    HW275707   0.780   2.830   8.095
24604SOL     OW75708  12.849   3.244   5.619
24604SOL    HW175709  12.869   3.319   5.564
24604SOL    HW275710  12.893   3.170   5.576
24605SOL     OW75711   1.057   2.064   1.306
24605SOL    HW175712   0.982   2.018   1.270
24605SOL    HW275713   1.042   2.065   1.401
24606SOL     OW75714   8.146   2.558  10.144
24606SOL    HW175715   8.096   2.521  10.218
24606SOL    HW275716   8.230   2.513  10.148
24607SOL     OW75717  10.650   1.064   2.387
24607SOL    HW175718  10.562   1.102   2.395
24607SOL    HW275719  10.638   0.986   2.334
24608SOL     OW75720   8.133   1.339  11.070
24608SOL    HW175721   8.130   1.432  11.046
24608SOL    HW275722   8.188   1.300  11.002
24609SOL     OW75723  13.013   9.566   2.857
24609SOL    HW175724  13.034   9.473   2.864
24609SOL    HW275725  12.939   9.578   2.916
24610SOL     OW75726  12.594  12.319   6.161
24610SOL    HW175727  12.685  12.309   6.134
24610SOL    HW275728  12.565  12.401   6.121
24611SOL     OW75729   0.463  14.244   6.269
24611SOL    HW175730   0.454  14.222   6.177
24611SOL    HW275731   0.542  14.198   6.298
24612SOL     OW75732  12.234   4.077  12.923
24612SOL    HW175733  12.207   4.087  13.014
24612SOL    HW275734  12.263   3.986  12.917
24613SOL     OW75735   8.577   0.229   2.210
24613SOL    HW175736   8.535   0.152   2.172
24613SOL    HW275737   8.539   0.236   2.298
24614SOL     OW75738   7.371   6.005   0.938
24614SOL    HW175739   7.335   5.932   0.889
24614SOL    HW275740   7.461   6.013   0.907
24615SOL     OW75741   2.273   7.762   8.955
24615SOL    HW175742   2.327   7.839   8.972
24615SOL    HW275743   2.330   7.704   8.904
24616SOL     OW75744   1.301  13.434   9.324
24616SOL    HW175745   1.235  13.397   9.383
24616SOL    HW275746   1.272  13.523   9.308
24617SOL     OW75747   1.750   3.592   6.978
24617SOL    HW175748   1.799   3.521   6.937
24617SOL    HW275749   1.778   3.591   7.070
24618SOL     OW75750   2.186  11.854   7.547
24618SOL    HW175751   2.199  11.912   7.472
24618SOL    HW275752   2.258  11.791   7.541
24619SOL     OW75753  13.688   9.025  11.594
24619SOL    HW175754  13.752   8.982  11.650
24619SOL    HW275755  13.726   9.021  11.506
24620SOL     OW75756   0.611   1.356  11.415
24620SOL    HW175757   0.650   1.386  11.497
24620SOL    HW275758   0.537   1.416  11.401
24621SOL     OW75759  10.976   7.749   1.497
24621SOL    HW175760  11.004   7.745   1.588
24621SOL    HW275761  10.881   7.751   1.502
24622SOL     OW75762  11.559  10.367   5.261
24622SOL    HW175763  11.610  10.443   5.230
24622SOL    HW275764  11.622  10.295   5.262
24623SOL     OW75765   6.481   3.716   8.332
24623SOL    HW175766   6.455   3.651   8.397
24623SOL    HW275767   6.576   3.716   8.334
24624SOL     OW75768   9.316   1.779  12.837
24624SOL    HW175769   9.281   1.754  12.752
24624SOL    HW275770   9.280   1.714  12.898
24625SOL     OW75771  11.106  11.565   6.935
24625SOL    HW175772  11.087  11.599   7.023
24625SOL    HW275773  11.110  11.643   6.880
24626SOL     OW75774  13.001   8.305   4.702
24626SOL    HW175775  13.008   8.264   4.788
24626SOL    HW275776  13.089   8.303   4.666
24627SOL     OW75777   6.687   7.979  10.713
24627SOL    HW175778   6.610   8.033  10.694
24627SOL    HW275779   6.735   7.977  10.631
24628SOL     OW75780   3.502   9.843   7.571
24628SOL    HW175781   3.486   9.925   7.619
24628SOL    HW275782   3.594   9.823   7.589
24629SOL     OW75783   6.641  10.252   9.294
24629SOL    HW175784   6.671  10.161   9.301
24629SOL    HW275785   6.654  10.275   9.202
24630SOL     OW75786  10.919  13.409   3.253
24630SOL    HW175787  10.927  13.358   3.173
24630SOL    HW275788  10.924  13.500   3.225
24631SOL     OW75789   0.664   0.186   2.577
24631SOL    HW175790   0.685   0.205   2.486
24631SOL    HW275791   0.708   0.255   2.626
24632SOL     OW75792  11.100   2.762   8.767
24632SOL    HW175793  11.190   2.753   8.736
24632SOL    HW275794  11.099   2.847   8.812
24633SOL     OW75795   5.854  10.069   5.743
24633SOL    HW175796   5.820  10.010   5.676
24633SOL    HW275797   5.797  10.146   5.739
24634SOL     OW75798   5.786   2.582   9.251
24634SOL    HW175799   5.793   2.487   9.241
24634SOL    HW275800   5.844   2.603   9.324
24635SOL     OW75801   5.450   6.515   3.963
24635SOL    HW175802   5.510   6.573   3.916
24635SOL    HW275803   5.389   6.483   3.896
24636SOL     OW75804  11.325   8.623   9.457
24636SOL    HW175805  11.369   8.662   9.381
24636SOL    HW275806  11.286   8.698   9.503
24637SOL     OW75807   2.700   3.494  10.760
24637SOL    HW175808   2.628   3.459  10.707
24637SOL    HW275809   2.727   3.573  10.713
24638SOL     OW75810   6.683   0.364  12.207
24638SOL    HW175811   6.589   0.351  12.217
24638SOL    HW275812   6.722   0.303  12.270
24639SOL     OW75813  14.510   7.482   6.875
24639SOL    HW175814  14.490   7.549   6.809
24639SOL    HW275815  14.535   7.532   6.953
24640SOL     OW75816   6.363   8.492   4.787
24640SOL    HW175817   6.453   8.519   4.806
24640SOL    HW275818   6.332   8.454   4.870
24641SOL     OW75819   6.616  14.084   2.448
24641SOL    HW175820   6.582  14.080   2.538
24641SOL    HW275821   6.673  14.161   2.447
24642SOL     OW75822  12.510  12.568   6.929
24642SOL    HW175823  12.505  12.545   6.837
24642SOL    HW275824  12.537  12.488   6.973
24643SOL     OW75825   5.175  13.748  13.640
24643SOL    HW175826   5.150  13.687  13.708
24643SOL    HW275827   5.166  13.834  13.681
24644SOL     OW75828  10.397  12.567   0.679
24644SOL    HW175829  10.365  12.514   0.606
24644SOL    HW275830  10.486  12.593   0.653
24645SOL     OW75831   3.972   7.352   5.520
24645SOL    HW175832   4.056   7.390   5.543
24645SOL    HW275833   3.915   7.427   5.503
24646SOL     OW75834   8.608   4.210   8.983
24646SOL    HW175835   8.552   4.286   9.002
24646SOL    HW275836   8.634   4.222   8.892
24647SOL     OW75837   4.417  13.642   7.932
24647SOL    HW175838   4.395  13.587   8.007
24647SOL    HW275839   4.501  13.682   7.955
24648SOL     OW75840  10.717   6.617   3.281
24648SOL    HW175841  10.695   6.534   3.239
24648SOL    HW275842  10.810   6.630   3.262
24649SOL     OW75843   3.340  12.192   5.848
24649SOL    HW175844   3.278  12.214   5.918
24649SOL    HW275845   3.355  12.098   5.858
24650SOL     OW75846   2.877   9.716   7.729
24650SOL    HW175847   2.822   9.640   7.712
24650SOL    HW275848   2.881   9.763   7.646
24651SOL     OW75849   0.769  11.267  11.673
24651SOL    HW175850   0.854  11.235  11.643
24651SOL    HW275851   0.745  11.208  11.744
24652SOL     OW75852   2.307   2.301   7.093
24652SOL    HW175853   2.322   2.209   7.117
24652SOL    HW275854   2.292   2.345   7.176
24653SOL     OW75855   8.441   1.035   9.272
24653SOL    HW175856   8.444   1.021   9.178
24653SOL    HW275857   8.506   0.975   9.308
24654SOL     OW75858   5.573  13.712   9.128
24654SOL    HW175859   5.603  13.750   9.210
24654SOL    HW275860   5.518  13.638   9.154
24655SOL     OW75861   4.147   4.478  11.803
24655SOL    HW175862   4.061   4.438  11.812
24655SOL    HW275863   4.151   4.507  11.712
24656SOL     OW75864   4.576   4.288   6.386
24656SOL    HW175865   4.536   4.373   6.401
24656SOL    HW275866   4.511   4.225   6.416
24657SOL     OW75867   3.455   1.135   0.943
24657SOL    HW175868   3.465   1.090   1.027
24657SOL    HW275869   3.542   1.135   0.904
24658SOL     OW75870   8.444  14.295  11.709
24658SOL    HW175871   8.438  14.283  11.804
24658SOL    HW275872   8.373  14.356  11.688
24659SOL     OW75873   8.395   5.018  12.536
24659SOL    HW175874   8.373   4.939  12.486
24659SOL    HW275875   8.468   4.991  12.592
24660SOL     OW75876   8.645   6.233   0.589
24660SOL    HW175877   8.710   6.174   0.552
24660SOL    HW275878   8.631   6.299   0.522
24661SOL     OW75879   7.412  10.991  10.424
24661SOL    HW175880   7.397  11.005  10.517
24661SOL    HW275881   7.394  10.898  10.410
24662SOL     OW75882  12.815   4.432   6.552
24662SOL    HW175883  12.771   4.514   6.529
24662SOL    HW275884  12.784   4.412   6.640
24663SOL     OW75885  10.234  14.495   0.895
24663SOL    HW175886  10.256  14.403   0.913
24663SOL    HW275887  10.268  14.511   0.807
24664SOL     OW75888  10.397   8.634  11.433
24664SOL    HW175889  10.312   8.671  11.408
24664SOL    HW275890  10.376   8.574  11.505
24665SOL     OW75891   4.592  14.515  13.952
24665SOL    HW175892   4.543  14.436  13.930
24665SOL    HW275893   4.579  14.574  13.878
24666SOL     OW75894  13.150  13.975   7.428
24666SOL    HW175895  13.185  13.948   7.513
24666SOL    HW275896  13.218  14.032   7.391
24667SOL     OW75897  11.211   2.589   4.437
24667SOL    HW175898  11.119   2.615   4.436
24667SOL    HW275899  11.221   2.535   4.358
24668SOL     OW75900  13.987   6.189   3.442
24668SOL    HW175901  14.056   6.159   3.502
24668SOL    HW275902  13.964   6.276   3.475
24669SOL     OW75903  13.741   1.767   1.838
24669SOL    HW175904  13.684   1.843   1.825
24669SOL    HW275905  13.690   1.709   1.894
24670SOL     OW75906   0.443  10.701   1.674
24670SOL    HW175907   0.421  10.608   1.675
24670SOL    HW275908   0.482  10.716   1.588
24671SOL     OW75909   9.235   8.959   8.586
24671SOL    HW175910   9.245   9.053   8.573
24671SOL    HW275911   9.215   8.949   8.679
24672SOL     OW75912   6.463   9.860   2.250
24672SOL    HW175913   6.426   9.940   2.211
24672SOL    HW275914   6.516   9.891   2.323
24673SOL     OW75915   0.082  12.928   4.931
24673SOL    HW175916   0.133  12.972   4.863
24673SOL    HW275917   0.065  12.841   4.897
24674SOL     OW75918  10.777   6.862  12.549
24674SOL    HW175919  10.705   6.886  12.608
24674SOL    HW275920  10.782   6.766  12.555
24675SOL     OW75921  14.473   0.516   5.267
24675SOL    HW175922  14.537   0.578   5.234
24675SOL    HW275923  14.439   0.472   5.188
24676SOL     OW75924   0.077  13.146   5.786
24676SOL    HW175925   0.127  13.161   5.866
24676SOL    HW275926   0.044  13.232   5.761
24677SOL     OW75927   3.208   0.530   0.604
24677SOL    HW175928   3.140   0.562   0.544
24677SOL    HW275929   3.281   0.505   0.548
24678SOL     OW75930  11.126  12.683  10.032
24678SOL    HW175931  11.121  12.588  10.021
24678SOL    HW275932  11.052  12.704  10.089
24679SOL     OW75933  14.355  12.718   8.315
24679SOL    HW175934  14.360  12.634   8.270
24679SOL    HW275935  14.290  12.705   8.384
24680SOL     OW75936  11.608   4.451  13.251
24680SOL    HW175937  11.687   4.423  13.204
24680SOL    HW275938  11.611   4.404  13.334
24681SOL     OW75939   7.450  12.283   3.827
24681SOL    HW175940   7.443  12.250   3.917
24681SOL    HW275941   7.448  12.378   3.836
24682SOL     OW75942   4.833   0.150  13.438
24682SOL    HW175943   4.918   0.107  13.444
24682SOL    HW275944   4.787   0.123  13.518
24683SOL     OW75945   9.047   8.870   8.224
24683SOL    HW175946   9.133   8.889   8.262
24683SOL    HW275947   9.023   8.785   8.261
24684SOL     OW75948   6.685   3.097   1.694
24684SOL    HW175949   6.717   3.176   1.650
24684SOL    HW275950   6.684   3.031   1.625
24685SOL     OW75951  11.889  13.901   2.870
24685SOL    HW175952  11.954  13.952   2.821
24685SOL    HW275953  11.805  13.934   2.840
24686SOL     OW75954  11.932  13.607   4.095
24686SOL    HW175955  11.917  13.546   4.167
24686SOL    HW275956  12.026  13.600   4.077
24687SOL     OW75957   9.485   1.038  11.714
24687SOL    HW175958   9.456   1.073  11.631
24687SOL    HW275959   9.574   1.006  11.698
24688SOL     OW75960  11.708   6.323   7.932
24688SOL    HW175961  11.767   6.371   7.990
24688SOL    HW275962  11.735   6.350   7.844
24689SOL     OW75963  12.938   6.183   6.230
24689SOL    HW175964  13.004   6.235   6.184
24689SOL    HW275965  12.952   6.093   6.199
24690SOL     OW75966   2.117   0.766   6.640
24690SOL    HW175967   2.088   0.795   6.553
24690SOL    HW275968   2.044   0.787   6.698
24691SOL     OW75969   1.559   4.246  11.403
24691SOL    HW175970   1.627   4.244  11.336
24691SOL    HW275971   1.605   4.224  11.484
24692SOL     OW75972   3.290  10.877  13.157
24692SOL    HW175973   3.333  10.800  13.194
24692SOL    HW275974   3.317  10.877  13.065
24693SOL     OW75975   3.646   5.547  12.131
24693SOL    HW175976   3.581   5.489  12.171
24693SOL    HW275977   3.636   5.533  12.037
24694SOL     OW75978  13.447   5.415   5.689
24694SOL    HW175979  13.482   5.431   5.776
24694SOL    HW275980  13.518   5.439   5.629
24695SOL     OW75981   4.922   1.856   2.196
24695SOL    HW175982   4.943   1.830   2.107
24695SOL    HW275983   4.907   1.951   2.190
24696SOL     OW75984  14.652   2.410   1.207
24696SOL    HW175985  14.668   2.319   1.182
24696SOL    HW275986  14.721   2.460   1.164
24697SOL     OW75987  12.619  13.542  11.661
24697SOL    HW175988  12.656  13.468  11.710
24697SOL    HW275989  12.553  13.502  11.605
24698SOL     OW75990  12.493   2.442  11.939
24698SOL    HW175991  12.577   2.400  11.957
24698SOL    HW275992  12.516   2.527  11.901
24699SOL     OW75993   6.255  10.612  10.273
24699SOL    HW175994   6.237  10.549  10.203
24699SOL    HW275995   6.299  10.562  10.340
24700SOL     OW75996   7.387   6.075   3.678
24700SOL    HW175997   7.313   6.127   3.711
24700SOL    HW275998   7.462   6.103   3.731
24701SOL     OW75999   1.312  12.359   7.018
24701SOL    HW176000   1.359  12.277   7.033
24701SOL    HW276001   1.273  12.381   7.103
24702SOL     OW76002  12.819   7.518   5.289
24702SOL    HW176003  12.854   7.542   5.203
24702SOL    HW276004  12.893   7.530   5.349
24703SOL     OW76005  12.654  12.414  12.049
24703SOL    HW176006  12.687  12.477  12.113
24703SOL    HW276007  12.667  12.328  12.090
24704SOL     OW76008  12.425   9.769  11.760
24704SOL    HW176009  12.441   9.849  11.810
24704SOL    HW276010  12.333   9.776  11.733
24705SOL     OW76011   1.766   5.265   7.170
24705SOL    HW176012   1.799   5.326   7.104
24705SOL    HW276013   1.673   5.285   7.176
24706SOL     OW76014   7.408  13.250   2.512
24706SOL    HW176015   7.374  13.308   2.581
24706SOL    HW276016   7.394  13.162   2.546
24707SOL     OW76017   6.452   1.626   4.659
24707SOL    HW176018   6.474   1.709   4.702
24707SOL    HW276019   6.373   1.646   4.609
24708SOL     OW76020  10.723   0.790  13.016
24708SOL    HW176021  10.634   0.756  13.026
24708SOL    HW276022  10.752   0.808  13.105
24709SOL     OW76023   5.404  11.709   2.988
24709SOL    HW176024   5.421  11.678   2.899
24709SOL    HW276025   5.321  11.756   2.981
24710SOL     OW76026   2.755   6.039   7.273
24710SOL    HW176027   2.822   6.017   7.208
24710SOL    HW276028   2.747   5.960   7.327
24711SOL     OW76029   3.253   8.046  11.934
24711SOL    HW176030   3.179   8.104  11.917
24711SOL    HW276031   3.260   8.043  12.029
24712SOL     OW76032   6.352   0.665  10.519
24712SOL    HW176033   6.396   0.595  10.470
24712SOL    HW276034   6.400   0.670  10.601
24713SOL     OW76035   5.948   1.711   4.939
24713SOL    HW176036   6.039   1.702   4.909
24713SOL    HW276037   5.897   1.665   4.873
24714SOL     OW76038   0.386   4.080   3.295
24714SOL    HW176039   0.448   4.052   3.361
24714SOL    HW276040   0.441   4.114   3.224
24715SOL     OW76041   4.320   7.595   5.750
24715SOL    HW176042   4.391   7.588   5.814
24715SOL    HW276043   4.261   7.660   5.787
24716SOL     OW76044   2.884   9.058   2.885
24716SOL    HW176045   2.792   9.053   2.911
24716SOL    HW276046   2.900   9.151   2.872
24717SOL     OW76047  13.651  14.286  12.633
24717SOL    HW176048  13.580  14.313  12.576
24717SOL    HW276049  13.721  14.257  12.574
24718SOL     OW76050  12.353   7.735   7.507
24718SOL    HW176051  12.328   7.663   7.449
24718SOL    HW276052  12.277   7.792   7.509
24719SOL     OW76053  14.485   4.061   4.383
24719SOL    HW176054  14.566   4.026   4.344
24719SOL    HW276055  14.498   4.156   4.384
24720SOL     OW76056  10.041   0.529   2.177
24720SOL    HW176057  10.123   0.561   2.215
24720SOL    HW276058  10.067   0.480   2.100
24721SOL     OW76059  10.687   4.545  11.042
24721SOL    HW176060  10.636   4.626  11.034
24721SOL    HW276061  10.729   4.552  11.128
24722SOL     OW76062  13.305   1.797  13.553
24722SOL    HW176063  13.264   1.876  13.588
24722SOL    HW276064  13.399   1.813  13.560
24723SOL     OW76065  13.389  12.077  13.655
24723SOL    HW176066  13.371  12.166  13.687
24723SOL    HW276067  13.479  12.060  13.681
24724SOL     OW76068   0.620   2.511  13.679
24724SOL    HW176069   0.558   2.472  13.617
24724SOL    HW276070   0.569   2.577  13.725
24725SOL     OW76071   8.841   1.303   0.104
24725SOL    HW176072   8.812   1.266   0.188
24725SOL    HW276073   8.936   1.292   0.105
24726SOL     OW76074  13.726   8.001   3.811
24726SOL    HW176075  13.763   8.004   3.722
24726SOL    HW276076  13.670   8.078   3.816
24727SOL     OW76077   3.881   1.224  11.006
24727SOL    HW176078   3.948   1.270  10.956
24727SOL    HW276079   3.800   1.241  10.959
24728SOL     OW76080   9.040   2.626   0.496
24728SOL    HW176081   9.037   2.652   0.588
24728SOL    HW276082   9.071   2.704   0.450
24729SOL     OW76083   5.610  14.311   5.459
24729SOL    HW176084   5.565  14.243   5.408
24729SOL    HW276085   5.676  14.347   5.398
24730SOL     OW76086   2.755   7.332   1.465
24730SOL    HW176087   2.835   7.279   1.461
24730SOL    HW276088   2.700   7.289   1.531
24731SOL     OW76089   1.944   7.757   7.956
24731SOL    HW176090   1.902   7.732   7.874
24731SOL    HW276091   2.016   7.815   7.930
24732SOL     OW76092   1.419  14.018   6.717
24732SOL    HW176093   1.347  14.072   6.683
24732SOL    HW276094   1.473  14.079   6.767
24733SOL     OW76095   9.115  10.393   6.839
24733SOL    HW176096   9.098  10.406   6.746
24733SOL    HW276097   9.058  10.456   6.883
24734SOL     OW76098   7.177   3.214  12.221
24734SOL    HW176099   7.144   3.216  12.131
24734SOL    HW276100   7.101   3.231  12.276
24735SOL     OW76101   9.753  10.282  12.561
24735SOL    HW176102   9.761  10.236  12.645
24735SOL    HW276103   9.786  10.370  12.579
24736SOL     OW76104  12.135   0.156   3.523
24736SOL    HW176105  12.169   0.079   3.477
24736SOL    HW276106  12.041   0.157   3.502
24737SOL     OW76107   9.335   6.231  10.382
24737SOL    HW176108   9.381   6.182  10.314
24737SOL    HW276109   9.338   6.322  10.353
24738SOL     OW76110   2.205   0.681   3.241
24738SOL    HW176111   2.239   0.767   3.266
24738SOL    HW276112   2.171   0.644   3.323
24739SOL     OW76113   8.260  13.337   4.552
24739SOL    HW176114   8.240  13.412   4.607
24739SOL    HW276115   8.175  13.305   4.522
24740SOL     OW76116   0.844   9.567   3.893
24740SOL    HW176117   0.829   9.498   3.829
24740SOL    HW276118   0.934   9.595   3.879
24741SOL     OW76119  14.304  11.445   3.523
24741SOL    HW176120  14.304  11.479   3.434
24741SOL    HW276121  14.257  11.512   3.574
24742SOL     OW76122   9.095   6.387   6.555
24742SOL    HW176123   9.134   6.409   6.470
24742SOL    HW276124   9.019   6.445   6.562
24743SOL     OW76125   8.860   6.818  11.241
24743SOL    HW176126   8.860   6.856  11.329
24743SOL    HW276127   8.863   6.724  11.255
24744SOL     OW76128   9.723   9.356   7.207
24744SOL    HW176129   9.763   9.388   7.288
24744SOL    HW276130   9.794   9.361   7.143
24745SOL     OW76131   3.242  14.177   2.918
24745SOL    HW176132   3.300  14.101   2.929
24745SOL    HW276133   3.178  14.170   2.989
24746SOL     OW76134   8.924  11.555   8.319
24746SOL    HW176135   8.955  11.504   8.394
24746SOL    HW276136   8.854  11.502   8.281
24747SOL     OW76137  11.460  12.559  12.665
24747SOL    HW176138  11.528  12.591  12.607
24747SOL    HW276139  11.494  12.574  12.753
24748SOL     OW76140   4.499  11.332  12.956
24748SOL    HW176141   4.410  11.355  12.927
24748SOL    HW276142   4.533  11.277  12.886
24749SOL     OW76143   7.352  10.968   9.907
24749SOL    HW176144   7.441  11.004   9.909
24749SOL    HW276145   7.323  10.979   9.816
24750SOL     OW76146   7.560   9.683   8.430
24750SOL    HW176147   7.654   9.674   8.446
24750SOL    HW276148   7.519   9.655   8.511
24751SOL     OW76149   8.288   7.818   3.380
24751SOL    HW176150   8.310   7.758   3.451
24751SOL    HW276151   8.257   7.897   3.423
24752SOL     OW76152   2.807   2.611  12.167
24752SOL    HW176153   2.805   2.705  12.184
24752SOL    HW276154   2.748   2.573  12.232
24753SOL     OW76155   2.455   1.860  13.319
24753SOL    HW176156   2.411   1.852  13.235
24753SOL    HW276157   2.460   1.770  13.352
24754SOL     OW76158   4.273   4.577   0.786
24754SOL    HW176159   4.348   4.597   0.730
24754SOL    HW276160   4.196   4.598   0.732
24755SOL     OW76161   4.640   3.938   2.494
24755SOL    HW176162   4.731   3.941   2.466
24755SOL    HW276163   4.594   3.999   2.436
24756SOL     OW76164   1.889   1.050   0.657
24756SOL    HW176165   1.908   1.116   0.590
24756SOL    HW276166   1.954   1.065   0.725
24757SOL     OW76167  14.801   8.684   4.015
24757SOL    HW176168  14.728   8.628   3.989
24757SOL    HW276169  14.763   8.745   4.079
24758SOL     OW76170   5.512  12.436  13.430
24758SOL    HW176171   5.512  12.430  13.334
24758SOL    HW276172   5.504  12.530  13.448
24759SOL     OW76173   7.716   1.042   0.972
24759SOL    HW176174   7.729   0.974   0.906
24759SOL    HW276175   7.621   1.050   0.981
24760SOL     OW76176   1.132   8.949   0.825
24760SOL    HW176177   1.175   9.017   0.877
24760SOL    HW276178   1.200   8.916   0.767
24761SOL     OW76179   6.646  11.908   6.730
24761SOL    HW176180   6.678  11.831   6.777
24761SOL    HW276181   6.610  11.873   6.649
24762SOL     OW76182   2.021   6.964  14.594
24762SOL    HW176183   2.056   7.041  14.639
24762SOL    HW276184   2.025   6.985  14.501
24763SOL     OW76185   7.361   7.925  10.857
24763SOL    HW176186   7.319   7.959  10.778
24763SOL    HW276187   7.304   7.853  10.885
24764SOL     OW76188   4.717  10.764   0.804
24764SOL    HW176189   4.803  10.723   0.790
24764SOL    HW276190   4.737  10.849   0.842
24765SOL     OW76191   2.517   0.057   3.829
24765SOL    HW176192   2.565   0.003   3.766
24765SOL    HW276193   2.449  14.880   3.863
24766SOL     OW76194   9.918   5.747   6.149
24766SOL    HW176195   9.830   5.769   6.181
24766SOL    HW276196   9.924   5.789   6.063
24767SOL     OW76197   3.777  13.344   1.305
24767SOL    HW176198   3.753  13.292   1.381
24767SOL    HW276199   3.871  13.331   1.296
24768SOL     OW76200  14.300   6.705  10.842
24768SOL    HW176201  14.322   6.677  10.931
24768SOL    HW276202  14.225   6.763  10.852
24769SOL     OW76203   2.891   6.528   1.019
24769SOL    HW176204   2.798   6.513   1.008
24769SOL    HW276205   2.919   6.570   0.937
24770SOL     OW76206  11.727   9.702  11.545
24770SOL    HW176207  11.632   9.701  11.559
24770SOL    HW276208  11.760   9.634  11.604
24771SOL     OW76209  14.632  13.162   4.808
24771SOL    HW176210  14.673  13.135   4.726
24771SOL    HW276211  14.539  13.143   4.797
24772SOL     OW76212  14.807  10.948   6.000
24772SOL    HW176213  14.807  10.910   6.089
24772SOL    HW276214  14.842  10.878   5.945
24773SOL     OW76215  13.336  10.878  13.333
24773SOL    HW176216  13.255  10.912  13.371
24773SOL    HW276217  13.307  10.811  13.271
24774SOL     OW76218  13.487   9.420   5.430
24774SOL    HW176219  13.401   9.447   5.465
24774SOL    HW276220  13.491   9.460   5.343
24775SOL     OW76221   2.914   4.233   6.198
24775SOL    HW176222   2.972   4.280   6.138
24775SOL    HW276223   2.856   4.300   6.233
24776SOL     OW76224   8.690  11.540  11.834
24776SOL    HW176225   8.603  11.540  11.794
24776SOL    HW276226   8.678  11.582  11.919
24777SOL     OW76227   2.697   6.495   8.716
24777SOL    HW176228   2.757   6.492   8.642
24777SOL    HW276229   2.614   6.525   8.678
24778SOL     OW76230  11.393   9.063   1.133
24778SOL    HW176231  11.379   9.118   1.210
24778SOL    HW276232  11.488   9.063   1.121
24779SOL     OW76233  11.567   5.693   6.652
24779SOL    HW176234  11.593   5.655   6.735
24779SOL    HW276235  11.505   5.762   6.675
24780SOL     OW76236   9.273  14.357   1.044
24780SOL    HW176237   9.325  14.429   1.007
24780SOL    HW276238   9.337  14.289   1.065
24781SOL     OW76239  14.558   6.213   8.246
24781SOL    HW176240  14.602   6.244   8.166
24781SOL    HW276241  14.502   6.141   8.217
24782SOL     OW76242  14.485   6.601   7.618
24782SOL    HW176243  14.436   6.673   7.578
24782SOL    HW276244  14.421   6.532   7.632
24783SOL     OW76245  12.540   8.910   0.997
24783SOL    HW176246  12.576   8.885   0.912
24783SOL    HW276247  12.617   8.928   1.051
24784SOL     OW76248   2.354  12.924   6.144
24784SOL    HW176249   2.405  12.844   6.131
24784SOL    HW276250   2.271  12.907   6.098
24785SOL     OW76251  13.851   5.532   5.686
24785SOL    HW176252  13.928   5.523   5.629
24785SOL    HW276253  13.817   5.443   5.694
24786SOL     OW76254   6.666   4.917   1.347
24786SOL    HW176255   6.678   4.930   1.253
24786SOL    HW276256   6.582   4.871   1.354
24787SOL     OW76257   9.060   4.772   2.073
24787SOL    HW176258   9.150   4.767   2.039
24787SOL    HW276259   9.071   4.785   2.168
24788SOL     OW76260  14.502   2.399  14.239
24788SOL    HW176261  14.542   2.484  14.256
24788SOL    HW276262  14.571   2.348  14.195
24789SOL     OW76263  11.955   5.094  10.449
24789SOL    HW176264  11.931   5.165  10.389
24789SOL    HW276265  11.882   5.034  10.446
24790SOL     OW76266   5.086   6.995  12.632
24790SOL    HW176267   5.151   6.934  12.666
24790SOL    HW276268   5.109   7.080  12.671
24791SOL     OW76269  11.082   2.902  13.374
24791SOL    HW176270  11.131   2.981  13.354
24791SOL    HW276271  11.074   2.857  13.290
24792SOL     OW76272   0.953  10.037   9.395
24792SOL    HW176273   0.944  10.007   9.304
24792SOL    HW276274   0.869  10.080   9.414
24793SOL     OW76275  11.174   0.065   6.704
24793SOL    HW176276  11.242   0.133   6.696
24793SOL    HW276277  11.158   0.037   6.614
24794SOL     OW76278   9.910   4.722   9.831
24794SOL    HW176279   9.833   4.762   9.791
24794SOL    HW276280   9.969   4.703   9.758
24795SOL     OW76281   8.210   1.353   0.750
24795SOL    HW176282   8.147   1.362   0.679
24795SOL    HW276283   8.295   1.371   0.710
24796SOL     OW76284  14.024   8.887   3.735
24796SOL    HW176285  14.026   8.983   3.736
24796SOL    HW276286  13.931   8.865   3.739
24797SOL     OW76287   4.060   7.034   2.482
24797SOL    HW176288   3.972   7.062   2.505
24797SOL    HW276289   4.111   7.116   2.480
24798SOL     OW76290   7.181   5.026   1.828
24798SOL    HW176291   7.255   4.992   1.878
24798SOL    HW276292   7.145   4.949   1.784
24799SOL     OW76293   6.237   5.535   9.979
24799SOL    HW176294   6.206   5.615   9.938
24799SOL    HW276295   6.179   5.466   9.946
24800SOL     OW76296  11.166   3.664  14.630
24800SOL    HW176297  11.115   3.672  14.549
24800SOL    HW276298  11.106   3.623  14.692
24801SOL     OW76299  14.120   3.585  14.281
24801SOL    HW176300  14.119   3.552  14.191
24801SOL    HW276301  14.082   3.515  14.333
24802SOL     OW76302   5.868  14.762   6.971
24802SOL    HW176303   5.895  14.733   7.058
24802SOL    HW276304   5.780  14.797   6.983
24803SOL     OW76305   7.952   3.596   8.932
24803SOL    HW176306   7.878   3.572   8.988
24803SOL    HW276307   7.917   3.665   8.875
24804SOL     OW76308  11.917   7.817   2.530
24804SOL    HW176309  11.877   7.781   2.451
24804SOL    HW276310  11.923   7.742   2.590
24805SOL     OW76311  13.924   2.199   7.324
24805SOL    HW176312  13.841   2.246   7.319
24805SOL    HW276313  13.905   2.113   7.288
24806SOL     OW76314   4.267  14.847  11.549
24806SOL    HW176315   4.331  14.792  11.504
24806SOL    HW276316   4.265   0.048  11.498
24807SOL     OW76317   9.389   0.321   2.396
24807SOL    HW176318   9.379   0.324   2.491
24807SOL    HW276319   9.310   0.275   2.366
24808SOL     OW76320   5.798   4.947   7.157
24808SOL    HW176321   5.869   5.009   7.172
24808SOL    HW276322   5.738   4.992   7.097
24809SOL     OW76323   3.098  11.382   8.942
24809SOL    HW176324   3.082  11.292   8.973
24809SOL    HW276325   3.056  11.438   9.007
24810SOL     OW76326   5.468  10.943   5.140
24810SOL    HW176327   5.377  10.915   5.151
24810SOL    HW276328   5.500  10.893   5.065
24811SOL     OW76329   7.694  11.898  10.512
24811SOL    HW176330   7.721  11.990  10.507
24811SOL    HW276331   7.761  11.850  10.464
24812SOL     OW76332  12.049   6.071   3.842
24812SOL    HW176333  12.035   6.136   3.911
24812SOL    HW276334  12.144   6.061   3.837
24813SOL     OW76335  14.878  12.257   4.006
24813SOL    HW176336   0.086  12.236   4.036
24813SOL    HW276337  14.826  12.179   4.025
24814SOL     OW76338  14.132  10.688   0.941
24814SOL    HW176339  14.137  10.729   0.855
24814SOL    HW276340  14.173  10.602   0.929
24815SOL     OW76341  13.606  10.256   3.256
24815SOL    HW176342  13.520  10.218   3.240
24815SOL    HW276343  13.588  10.339   3.301
24816SOL     OW76344   5.510   4.169   9.334
24816SOL    HW176345   5.522   4.166   9.239
24816SOL    HW276346   5.599   4.175   9.369
24817SOL     OW76347  13.580  12.507   6.428
24817SOL    HW176348  13.664  12.552   6.429
24817SOL    HW276349  13.582  12.451   6.506
24818SOL     OW76350   7.679  14.456   5.273
24818SOL    HW176351   7.733  14.386   5.310
24818SOL    HW276352   7.716  14.537   5.310
24819SOL     OW76353  11.713  14.555   9.331
24819SOL    HW176354  11.778  14.619   9.360
24819SOL    HW276355  11.676  14.591   9.251
24820SOL     OW76356   9.745   6.085   6.442
24820SOL    HW176357   9.783   6.143   6.509
24820SOL    HW276358   9.815   6.074   6.377
24821SOL     OW76359   9.654  12.790   9.734
24821SOL    HW176360   9.575  12.763   9.781
24821SOL    HW276361   9.674  12.877   9.768
24822SOL     OW76362   0.662   3.518   7.568
24822SOL    HW176363   0.571   3.493   7.555
24822SOL    HW276364   0.668   3.607   7.535
24823SOL     OW76365   7.999  12.759   0.673
24823SOL    HW176366   8.012  12.679   0.724
24823SOL    HW276367   7.907  12.782   0.687
24824SOL     OW76368   2.483  10.924   6.035
24824SOL    HW176369   2.484  11.015   6.066
24824SOL    HW276370   2.441  10.876   6.106
24825SOL     OW76371  10.177   9.037   9.303
24825SOL    HW176372  10.106   9.030   9.367
24825SOL    HW276373  10.189   8.948   9.270
24826SOL     OW76374   1.854   8.932   4.717
24826SOL    HW176375   1.903   9.001   4.672
24826SOL    HW276376   1.763   8.947   4.692
24827SOL     OW76377   5.321   6.309  13.853
24827SOL    HW176378   5.410   6.343  13.847
24827SOL    HW276379   5.269   6.368  13.798
24828SOL     OW76380   0.606   6.548   9.999
24828SOL    HW176381   0.618   6.469   9.946
24828SOL    HW276382   0.641   6.525  10.085
24829SOL     OW76383   5.364   2.388  11.647
24829SOL    HW176384   5.378   2.318  11.584
24829SOL    HW276385   5.278   2.425  11.623
24830SOL     OW76386  12.471   1.548   1.943
24830SOL    HW176387  12.427   1.585   2.019
24830SOL    HW276388  12.555   1.594   1.940
24831SOL     OW76389   3.335   5.208   0.802
24831SOL    HW176390   3.256   5.245   0.840
24831SOL    HW276391   3.403   5.224   0.868
24832SOL     OW76392   8.723   9.635  12.998
24832SOL    HW176393   8.736   9.584  12.918
24832SOL    HW276394   8.726   9.571  13.069
24833SOL     OW76395   9.372   2.123   8.265
24833SOL    HW176396   9.313   2.183   8.220
24833SOL    HW276397   9.375   2.045   8.209
24834SOL     OW76398   5.248  10.368  11.420
24834SOL    HW176399   5.216  10.423  11.492
24834SOL    HW276400   5.169  10.341  11.374
24835SOL     OW76401   1.627  12.238   9.036
24835SOL    HW176402   1.551  12.186   9.062
24835SOL    HW276403   1.592  12.326   9.020
24836SOL     OW76404  13.181  12.266  14.373
24836SOL    HW176405  13.100  12.284  14.420
24836SOL    HW276406  13.192  12.171  14.381
24837SOL     OW76407   2.430   3.152   8.099
24837SOL    HW176408   2.433   3.060   8.124
24837SOL    HW276409   2.522   3.177   8.093
24838SOL     OW76410   9.860   9.969   8.905
24838SOL    HW176411   9.796   9.937   8.842
24838SOL    HW276412   9.830  10.058   8.927
24839SOL     OW76413  10.634   2.068  10.701
24839SOL    HW176414  10.540   2.086  10.695
24839SOL    HW276415  10.670   2.141  10.751
24840SOL     OW76416   7.063   1.516  12.357
24840SOL    HW176417   7.026   1.596  12.395
24840SOL    HW276418   7.092   1.542  12.270
24841SOL     OW76419   5.334   8.369   7.887
24841SOL    HW176420   5.392   8.353   7.961
24841SOL    HW276421   5.312   8.282   7.855
24842SOL     OW76422  13.089  13.406   0.755
24842SOL    HW176423  13.146  13.425   0.682
24842SOL    HW276424  13.041  13.327   0.729
24843SOL     OW76425   0.127   3.118   9.204
24843SOL    HW176426   0.112   3.119   9.298
24843SOL    HW276427   0.045   3.149   9.166
24844SOL     OW76428  10.401  13.607  11.617
24844SOL    HW176429  10.388  13.626  11.710
24844SOL    HW276430  10.338  13.538  11.597
24845SOL     OW76431   2.685   9.293  14.573
24845SOL    HW176432   2.634   9.237  14.514
24845SOL    HW276433   2.774   9.258  14.567
24846SOL     OW76434   4.749   0.235  12.150
24846SOL    HW176435   4.758   0.150  12.108
24846SOL    HW276436   4.695   0.219  12.227
24847SOL     OW76437  13.778   6.080  12.762
24847SOL    HW176438  13.834   6.158  12.758
24847SOL    HW276439  13.689   6.115  12.762
24848SOL     OW76440   6.333   5.520   9.263
24848SOL    HW176441   6.387   5.586   9.220
24848SOL    HW276442   6.368   5.514   9.352
24849SOL     OW76443  12.011   2.887  14.852
24849SOL    HW176444  12.002   2.945   0.048
24849SOL    HW276445  12.012   2.799   0.008
24850SOL     OW76446  13.530   4.730   3.415
24850SOL    HW176447  13.488   4.679   3.345
24850SOL    HW276448  13.500   4.689   3.496
24851SOL     OW76449  13.518  11.570   2.790
24851SOL    HW176450  13.460  11.647   2.796
24851SOL    HW276451  13.566  11.569   2.872
24852SOL     OW76452   4.062   8.622   4.614
24852SOL    HW176453   4.021   8.655   4.695
24852SOL    HW276454   4.069   8.528   4.628
24853SOL     OW76455  10.252  11.234   9.528
24853SOL    HW176456  10.302  11.276   9.458
24853SOL    HW276457  10.285  11.144   9.531
24854SOL     OW76458  13.200   6.062   1.217
24854SOL    HW176459  13.209   6.097   1.306
24854SOL    HW276460  13.264   5.990   1.213
24855SOL     OW76461   5.167  14.025   6.721
24855SOL    HW176462   5.143  13.969   6.647
24855SOL    HW276463   5.236  13.977   6.766
24856SOL     OW76464   9.313   9.776   4.724
24856SOL    HW176465   9.367   9.778   4.645
24856SOL    HW276466   9.244   9.713   4.705
24857SOL     OW76467   5.698   1.786   2.599
24857SOL    HW176468   5.638   1.799   2.673
24857SOL    HW276469   5.641   1.780   2.522
24858SOL     OW76470   6.852   2.762   4.263
24858SOL    HW176471   6.769   2.810   4.267
24858SOL    HW276472   6.851   2.719   4.177
24859SOL     OW76473   0.751   2.123  13.408
24859SOL    HW176474   0.797   2.063  13.467
24859SOL    HW276475   0.697   2.066  13.353
24860SOL     OW76476   7.494   6.313   6.357
24860SOL    HW176477   7.433   6.382   6.330
24860SOL    HW276478   7.566   6.360   6.400
24861SOL     OW76479   9.560   3.988   7.103
24861SOL    HW176480   9.482   3.986   7.048
24861SOL    HW276481   9.633   3.974   7.042
24862SOL     OW76482   6.205   9.673   0.827
24862SOL    HW176483   6.180   9.581   0.838
24862SOL    HW276484   6.139   9.721   0.877
24863SOL     OW76485  11.663  12.533  10.335
24863SOL    HW176486  11.688  12.621  10.309
24863SOL    HW276487  11.652  12.538  10.430
24864SOL     OW76488   2.251   0.588  11.407
24864SOL    HW176489   2.315   0.619  11.471
24864SOL    HW276490   2.255   0.651  11.336
24865SOL     OW76491  12.580   3.198  13.764
24865SOL    HW176492  12.496   3.191  13.809
24865SOL    HW276493  12.557   3.227  13.676
24866SOL     OW76494   9.257  14.272   7.958
24866SOL    HW176495   9.203  14.211   8.008
24866SOL    HW276496   9.294  14.219   7.888
24867SOL     OW76497   3.087   4.501   0.099
24867SOL    HW176498   3.124   4.414   0.082
24867SOL    HW276499   3.061   4.497   0.191
24868SOL     OW76500   6.888  14.356   1.053
24868SOL    HW176501   6.816  14.322   1.106
24868SOL    HW276502   6.941  14.279   1.032
24869SOL     OW76503  13.188   1.784  14.797
24869SOL    HW176504  13.240   1.863  14.782
24869SOL    HW276505  13.157   1.793   0.007
24870SOL     OW76506   5.503   7.112   5.304
24870SOL    HW176507   5.588   7.112   5.261
24870SOL    HW276508   5.441   7.136   5.235
24871SOL     OW76509  10.553   6.686   2.995
24871SOL    HW176510  10.500   6.606   2.987
24871SOL    HW276511  10.490   6.755   3.010
24872SOL     OW76512   7.164   2.632  12.416
24872SOL    HW176513   7.128   2.684  12.344
24872SOL    HW276514   7.150   2.541  12.390
24873SOL     OW76515  13.626  12.606   5.491
24873SOL    HW176516  13.541  12.562   5.486
24873SOL    HW276517  13.690  12.538   5.469
24874SOL     OW76518   3.176   8.298   3.497
24874SOL    HW176519   3.173   8.393   3.498
24874SOL    HW276520   3.085   8.271   3.505
24875SOL     OW76521   2.334  14.438   9.569
24875SOL    HW176522   2.360  14.421   9.478
24875SOL    HW276523   2.400  14.499   9.602
24876SOL     OW76524   2.141  11.198  14.208
24876SOL    HW176525   2.077  11.140  14.251
24876SOL    HW276526   2.115  11.286  14.234
24877SOL     OW76527   9.933  10.110   4.922
24877SOL    HW176528  10.006  10.049   4.911
24877SOL    HW276529   9.885  10.077   4.998
24878SOL     OW76530   1.771  10.955   2.077
24878SOL    HW176531   1.838  11.005   2.030
24878SOL    HW276532   1.762  10.874   2.027
24879SOL     OW76533   5.459   8.970  11.118
24879SOL    HW176534   5.501   8.926  11.044
24879SOL    HW276535   5.532   8.994  11.176
24880SOL     OW76536   6.322  11.304   1.632
24880SOL    HW176537   6.353  11.251   1.558
24880SOL    HW276538   6.229  11.317   1.615
24881SOL     OW76539   5.369   2.512  13.893
24881SOL    HW176540   5.399   2.422  13.904
24881SOL    HW276541   5.297   2.521  13.955
24882SOL     OW76542   8.819  10.975   0.739
24882SOL    HW176543   8.812  10.991   0.833
24882SOL    HW276544   8.824  10.879   0.732
24883SOL     OW76545  13.901  12.384   3.920
24883SOL    HW176546  13.982  12.407   3.876
24883SOL    HW276547  13.832  12.419   3.863
24884SOL     OW76548   4.074  14.449   4.864
24884SOL    HW176549   3.979  14.444   4.873
24884SOL    HW276550   4.107  14.439   4.953
24885SOL     OW76551  11.670   6.745   7.578
24885SOL    HW176552  11.732   6.684   7.618
24885SOL    HW276553  11.652   6.707   7.491
24886SOL     OW76554   9.608   6.472   3.425
24886SOL    HW176555   9.649   6.467   3.511
24886SOL    HW276556   9.648   6.549   3.384
24887SOL     OW76557   9.670   3.325   1.555
24887SOL    HW176558   9.760   3.354   1.540
24887SOL    HW276559   9.672   3.283   1.640
24888SOL     OW76560   8.874  11.674   4.252
24888SOL    HW176561   8.968  11.666   4.240
24888SOL    HW276562   8.836  11.610   4.191
24889SOL     OW76563   9.704   0.413   0.875
24889SOL    HW176564   9.637   0.429   0.808
24889SOL    HW276565   9.777   0.376   0.826
24890SOL     OW76566   0.828  13.753  11.374
24890SOL    HW176567   0.898  13.774  11.312
24890SOL    HW276568   0.756  13.813  11.350
24891SOL     OW76569  11.582   7.365  12.022
24891SOL    HW176570  11.518   7.364  12.093
24891SOL    HW276571  11.566   7.283  11.974
24892SOL     OW76572   1.944   6.851  12.863
24892SOL    HW176573   1.987   6.860  12.778
24892SOL    HW276574   1.854   6.827  12.842
24893SOL     OW76575  11.810  10.509   8.738
24893SOL    HW176576  11.743  10.442   8.754
24893SOL    HW276577  11.812  10.518   8.642
24894SOL     OW76578  10.843   9.016   7.109
24894SOL    HW176579  10.799   9.099   7.093
24894SOL    HW276580  10.915   9.038   7.168
24895SOL     OW76581  13.825   2.181   1.030
24895SOL    HW176582  13.793   2.170   1.120
24895SOL    HW276583  13.816   2.095   0.991
24896SOL     OW76584   2.582   6.065   0.207
24896SOL    HW176585   2.622   6.110   0.133
24896SOL    HW276586   2.598   5.972   0.190
24897SOL     OW76587  14.213  14.504  12.479
24897SOL    HW176588  14.256  14.453  12.411
24897SOL    HW276589  14.209  14.445  12.554
24898SOL     OW76590  11.721   4.333   5.127
24898SOL    HW176591  11.701   4.413   5.176
24898SOL    HW276592  11.760   4.364   5.045
24899SOL     OW76593  13.920   7.331   0.964
24899SOL    HW176594  13.940   7.338   0.871
24899SOL    HW276595  14.000   7.298   1.004
24900SOL     OW76596  10.968   3.178   1.178
24900SOL    HW176597  11.011   3.262   1.192
24900SOL    HW276598  10.875   3.197   1.188
24901SOL     OW76599   1.749  13.383   8.088
24901SOL    HW176600   1.699  13.442   8.030
24901SOL    HW276601   1.689  13.311   8.105
24902SOL     OW76602   4.845   3.841   4.947
24902SOL    HW176603   4.935   3.821   4.922
24902SOL    HW276604   4.809   3.890   4.874
24903SOL     OW76605  13.905   0.705  14.491
24903SOL    HW176606  13.978   0.768  14.493
24903SOL    HW276607  13.849   0.736  14.420
24904SOL     OW76608  13.666  14.091   6.436
24904SOL    HW176609  13.675  14.026   6.366
24904SOL    HW276610  13.615  14.047   6.504
24905SOL     OW76611  14.242  11.387   8.720
24905SOL    HW176612  14.284  11.472   8.713
24905SOL    HW276613  14.308  11.330   8.759
24906SOL     OW76614  12.495   1.024   3.227
24906SOL    HW176615  12.486   1.057   3.138
24906SOL    HW276616  12.540   0.940   3.218
24907SOL     OW76617   4.280   9.288   2.639
24907SOL    HW176618   4.371   9.291   2.668
24907SOL    HW276619   4.234   9.351   2.694
24908SOL     OW76620   7.694   2.774   1.140
24908SOL    HW176621   7.621   2.730   1.098
24908SOL    HW276622   7.675   2.768   1.234
24909SOL     OW76623  10.119   7.535   6.261
24909SOL    HW176624  10.115   7.475   6.335
24909SOL    HW276625  10.048   7.505   6.203
24910SOL     OW76626   4.340   2.905   5.143
24910SOL    HW176627   4.325   2.828   5.197
24910SOL    HW276628   4.266   2.963   5.161
24911SOL     OW76629   4.652   3.694   5.853
24911SOL    HW176630   4.656   3.709   5.948
24911SOL    HW276631   4.631   3.601   5.844
24912SOL     OW76632   7.804   4.755   4.431
24912SOL    HW176633   7.819   4.830   4.488
24912SOL    HW276634   7.877   4.696   4.450
24913SOL     OW76635  13.545   0.402   7.038
24913SOL    HW176636  13.465   0.350   7.047
24913SOL    HW276637  13.591   0.363   6.964
24914SOL     OW76638   5.268  10.491  10.737
24914SOL    HW176639   5.177  10.470  10.758
24914SOL    HW276640   5.293  10.428  10.670
24915SOL     OW76641   9.573  10.018  12.827
24915SOL    HW176642   9.534  10.076  12.762
24915SOL    HW276643   9.604   9.943  12.778
24916SOL     OW76644   4.828  10.142  14.007
24916SOL    HW176645   4.873  10.059  14.021
24916SOL    HW276646   4.896  10.208  14.012
24917SOL     OW76647  12.864   8.067  12.152
24917SOL    HW176648  12.894   7.977  12.168
24917SOL    HW276649  12.938   8.121  12.178
24918SOL     OW76650   1.601   0.055  13.407
24918SOL    HW176651   1.521   0.010  13.380
24918SOL    HW276652   1.598   0.139  13.360
24919SOL     OW76653   9.182  12.502   7.526
24919SOL    HW176654   9.097  12.480   7.488
24919SOL    HW276655   9.187  12.598   7.520
24920SOL     OW76656   2.894   5.814   7.433
24920SOL    HW176657   2.800   5.807   7.451
24920SOL    HW276658   2.927   5.874   7.499
24921SOL     OW76659   9.682   5.532   6.802
24921SOL    HW176660   9.721   5.604   6.753
24921SOL    HW276661   9.666   5.568   6.889
24922SOL     OW76662   0.573   8.998   7.295
24922SOL    HW176663   0.532   8.975   7.211
24922SOL    HW276664   0.606   8.915   7.329
24923SOL     OW76665   8.017   9.787   1.005
24923SOL    HW176666   7.968   9.716   1.045
24923SOL    HW276667   8.087   9.744   0.956
24924SOL     OW76668   0.548  12.538  13.624
24924SOL    HW176669   0.565  12.605  13.690
24924SOL    HW276670   0.499  12.584  13.556
24925SOL     OW76671  12.747  10.635   6.050
24925SOL    HW176672  12.715  10.558   6.098
24925SOL    HW276673  12.667  10.675   6.015
24926SOL     OW76674   6.866   8.160   2.850
24926SOL    HW176675   6.942   8.198   2.894
24926SOL    HW276676   6.802   8.148   2.919
24927SOL     OW76677  12.108   7.537   4.170
24927SOL    HW176678  12.044   7.466   4.164
24927SOL    HW276679  12.056   7.615   4.189
24928SOL     OW76680   9.780   7.751  11.783
24928SOL    HW176681   9.743   7.828  11.826
24928SOL    HW276682   9.767   7.680  11.846
24929SOL     OW76683  11.543  12.321   6.741
24929SOL    HW176684  11.588  12.390   6.692
24929SOL    HW276685  11.524  12.254   6.676
24930SOL     OW76686  10.761  10.686  14.113
24930SOL    HW176687  10.825  10.627  14.074
24930SOL    HW276688  10.795  10.704  14.201
24931SOL     OW76689   9.365  14.298   9.830
24931SOL    HW176690   9.429  14.302   9.759
24931SOL    HW276691   9.280  14.306   9.786
24932SOL     OW76692   0.937   7.389   8.768
24932SOL    HW176693   0.869   7.416   8.829
24932SOL    HW276694   0.915   7.299   8.744
24933SOL     OW76695   0.139  13.560   4.348
24933SOL    HW176696   0.083  13.492   4.312
24933SOL    HW276697   0.106  13.642   4.310
24934SOL     OW76698  12.097   6.718  14.792
24934SOL    HW176699  12.128   6.803  14.761
24934SOL    HW276700  12.002   6.724  14.787
24935SOL     OW76701   8.736   6.758   9.202
24935SOL    HW176702   8.775   6.693   9.143
24935SOL    HW276703   8.646   6.769   9.169
24936SOL     OW76704   8.155   2.536   1.610
24936SOL    HW176705   8.220   2.466   1.614
24936SOL    HW276706   8.164   2.572   1.522
24937SOL     OW76707   3.199  10.134   3.286
24937SOL    HW176708   3.196  10.124   3.191
24937SOL    HW276709   3.138  10.068   3.319
24938SOL     OW76710  13.925  10.262   1.674
24938SOL    HW176711  13.899  10.354   1.679
24938SOL    HW276712  13.969  10.254   1.589
24939SOL     OW76713   2.737   4.960  14.826
24939SOL    HW176714   2.660   4.977  14.772
24939SOL    HW276715   2.778   5.045  14.838
24940SOL     OW76716  11.740   3.520  14.293
24940SOL    HW176717  11.760   3.426  14.298
24940SOL    HW276718  11.813   3.557  14.244
24941SOL     OW76719   1.703   7.717  13.138
24941SOL    HW176720   1.719   7.804  13.101
24941SOL    HW276721   1.642   7.675  13.076
24942SOL     OW76722   8.126  12.211  13.884
24942SOL    HW176723   8.116  12.306  13.888
24942SOL    HW276724   8.072  12.178  13.956
24943SOL     OW76725   3.863   9.405   2.825
24943SOL    HW176726   3.823   9.351   2.893
24943SOL    HW276727   3.811   9.386   2.747
24944SOL     OW76728  10.578   8.325   2.572
24944SOL    HW176729  10.600   8.332   2.479
24944SOL    HW276730  10.487   8.356   2.577
24945SOL     OW76731   3.302   1.564   0.754
24945SOL    HW176732   3.397   1.575   0.744
24945SOL    HW276733   3.283   1.601   0.840
24946SOL     OW76734  13.243   0.292   4.306
24946SOL    HW176735  13.152   0.276   4.278
24946SOL    HW276736  13.236   0.309   4.400
24947SOL     OW76737   8.768  12.204   7.518
24947SOL    HW176738   8.818  12.217   7.438
24947SOL    HW276739   8.780  12.111   7.539
24948SOL     OW76740   2.121   5.926   6.223
24948SOL    HW176741   2.050   5.953   6.165
24948SOL    HW276742   2.089   5.844   6.262
24949SOL     OW76743  13.741   5.605   4.537
24949SOL    HW176744  13.685   5.538   4.576
24949SOL    HW276745  13.830   5.574   4.553
24950SOL     OW76746   7.011   9.462   8.321
24950SOL    HW176747   7.105   9.446   8.330
24950SOL    HW276748   6.970   9.406   8.387
24951SOL     OW76749  11.020   2.689  11.811
24951SOL    HW176750  11.045   2.606  11.852
24951SOL    HW276751  10.929   2.702  11.836
24952SOL     OW76752   5.957   0.634  10.158
24952SOL    HW176753   6.012   0.674  10.091
24952SOL    HW276754   5.869   0.669  10.141
24953SOL     OW76755   1.163   9.832   5.337
24953SOL    HW176756   1.109   9.864   5.410
24953SOL    HW276757   1.120   9.750   5.311
24954SOL     OW76758   9.031  13.129   8.002
24954SOL    HW176759   9.031  13.224   8.016
24954SOL    HW276760   9.003  13.119   7.911
24955SOL     OW76761   2.421   0.777  13.357
24955SOL    HW176762   2.423   0.799  13.451
24955SOL    HW276763   2.407   0.861  13.313
24956SOL     OW76764   5.515   9.948   6.034
24956SOL    HW176765   5.602   9.944   6.073
24956SOL    HW276766   5.471  10.019   6.080
24957SOL     OW76767   5.513   9.058  12.887
24957SOL    HW176768   5.542   8.976  12.847
24957SOL    HW276769   5.578   9.075  12.955
24958SOL     OW76770   8.415   1.502  13.333
24958SOL    HW176771   8.468   1.424  13.349
24958SOL    HW276772   8.400   1.502  13.239
24959SOL     OW76773   6.573   3.165   9.119
24959SOL    HW176774   6.501   3.227   9.130
24959SOL    HW276775   6.538   3.082   9.152
24960SOL     OW76776   2.950  12.088   0.754
24960SOL    HW176777   2.901  12.060   0.831
24960SOL    HW276778   2.893  12.152   0.711
24961SOL     OW76779   4.839   9.785   8.458
24961SOL    HW176780   4.906   9.818   8.399
24961SOL    HW276781   4.756   9.817   8.420
24962SOL     OW76782  12.936  12.695   7.422
24962SOL    HW176783  12.956  12.605   7.398
24962SOL    HW276784  12.842  12.696   7.436
24963SOL     OW76785   2.469  10.661   9.443
24963SOL    HW176786   2.542  10.633   9.388
24963SOL    HW276787   2.413  10.713   9.385
24964SOL     OW76788  12.491   3.984   8.172
24964SOL    HW176789  12.496   3.896   8.135
24964SOL    HW276790  12.505   4.043   8.098
24965SOL     OW76791  14.015   6.144   4.814
24965SOL    HW176792  13.997   6.090   4.737
24965SOL    HW276793  14.090   6.199   4.787
24966SOL     OW76794   5.276   1.316  10.296
24966SOL    HW176795   5.247   1.354  10.378
24966SOL    HW276796   5.224   1.360  10.229
24967SOL     OW76797   1.601  11.415   4.394
24967SOL    HW176798   1.507  11.433   4.398
24967SOL    HW276799   1.613  11.370   4.310
24968SOL     OW76800  13.771   8.255   3.258
24968SOL    HW176801  13.843   8.218   3.310
24968SOL    HW276802  13.707   8.285   3.323
24969SOL     OW76803  10.118  10.080   5.815
24969SOL    HW176804  10.059  10.155   5.826
24969SOL    HW276805  10.105  10.052   5.725
24970SOL     OW76806  11.336   4.269   4.449
24970SOL    HW176807  11.414   4.278   4.395
24970SOL    HW276808  11.369   4.267   4.539
24971SOL     OW76809   6.512  11.015   9.332
24971SOL    HW176810   6.519  10.985   9.241
24971SOL    HW276811   6.572  10.958   9.380
24972SOL     OW76812   5.571   1.086   8.965
24972SOL    HW176813   5.634   1.141   9.010
24972SOL    HW276814   5.619   1.006   8.945
24973SOL     OW76815   2.473  10.230   1.934
24973SOL    HW176816   2.554  10.280   1.929
24973SOL    HW276817   2.410  10.284   1.886
24974SOL     OW76818   3.344   3.349   0.526
24974SOL    HW176819   3.266   3.295   0.535
24974SOL    HW276820   3.404   3.315   0.592
24975SOL     OW76821  14.318  13.643   7.188
24975SOL    HW176822  14.305  13.652   7.093
24975SOL    HW276823  14.385  13.708   7.209
24976SOL     OW76824   2.967  10.237   8.996
24976SOL    HW176825   3.018  10.307   9.035
24976SOL    HW276826   2.976  10.251   8.901
24977SOL     OW76827   7.305  13.887  14.503
24977SOL    HW176828   7.351  13.968  14.524
24977SOL    HW276829   7.311  13.835  14.583
24978SOL     OW76830   8.698   6.225   0.851
24978SOL    HW176831   8.666   6.304   0.894
24978SOL    HW276832   8.675   6.237   0.759
24979SOL     OW76833   8.097   1.572   1.144
24979SOL    HW176834   8.019   1.625   1.130
24979SOL    HW276835   8.103   1.562   1.239
24980SOL     OW76836  10.216   5.507   9.055
24980SOL    HW176837  10.258   5.588   9.086
24980SOL    HW276838  10.258   5.489   8.971
24981SOL     OW76839   9.500  14.441  13.662
24981SOL    HW176840   9.407  14.446  13.684
24981SOL    HW276841   9.530  14.360  13.704
24982SOL     OW76842   9.178   4.927   0.445
24982SOL    HW176843   9.267   4.898   0.426
24982SOL    HW276844   9.149   4.970   0.364
24983SOL     OW76845   8.829   4.759   5.899
24983SOL    HW176846   8.805   4.672   5.933
24983SOL    HW276847   8.770   4.819   5.944
24984SOL     OW76848   2.328   7.254  13.288
24984SOL    HW176849   2.402   7.232  13.231
24984SOL    HW276850   2.284   7.171  13.304
24985SOL     OW76851  12.398  10.351   1.692
24985SOL    HW176852  12.361  10.432   1.728
24985SOL    HW276853  12.342  10.329   1.619
24986SOL     OW76854   5.929  12.899   7.145
24986SOL    HW176855   5.870  12.836   7.185
24986SOL    HW276856   5.894  12.912   7.057
24987SOL     OW76857  12.390   1.620   0.182
24987SOL    HW176858  12.296   1.632   0.178
24987SOL    HW276859  12.424   1.705   0.211
24988SOL     OW76860   8.020  10.282  12.892
24988SOL    HW176861   7.976  10.349  12.840
24988SOL    HW276862   8.008  10.201  12.842
24989SOL     OW76863   2.810  13.648   5.651
24989SOL    HW176864   2.836  13.571   5.601
24989SOL    HW276865   2.892  13.688   5.679
24990SOL     OW76866   1.676   4.923   7.261
24990SOL    HW176867   1.710   4.908   7.349
24990SOL    HW276868   1.613   4.995   7.272
24991SOL     OW76869   1.063   4.175  14.512
24991SOL    HW176870   1.143   4.133  14.543
24991SOL    HW276871   1.070   4.265  14.543
24992SOL     OW76872  11.321   6.050  12.413
24992SOL    HW176873  11.245   6.102  12.441
24992SOL    HW276874  11.343   6.086  12.327
24993SOL     OW76875  13.620  12.751  14.507
24993SOL    HW176876  13.679  12.766  14.433
24993SOL    HW276877  13.613  12.837  14.550
24994SOL     OW76878  12.783   1.787  10.518
24994SOL    HW176879  12.728   1.733  10.575
24994SOL    HW276880  12.873   1.762  10.539
24995SOL     OW76881   8.965   0.035   9.045
24995SOL    HW176882   8.973  14.825   9.074
24995SOL    HW276883   8.935   0.028   8.954
24996SOL     OW76884   4.084   1.999   5.396
24996SOL    HW176885   4.158   1.998   5.456
24996SOL    HW276886   4.007   2.003   5.452
24997SOL     OW76887   1.831  12.465   1.850
24997SOL    HW176888   1.867  12.376   1.853
24997SOL    HW276889   1.737  12.453   1.860
24998SOL     OW76890   4.211   0.323   5.238
24998SOL    HW176891   4.214   0.246   5.295
24998SOL    HW276892   4.256   0.391   5.288
24999SOL     OW76893   8.576  14.462  14.300
24999SOL    HW176894   8.556  14.531  14.237
24999SOL    HW276895   8.491  14.439  14.338
25000SOL     OW76896   8.180   9.443   1.855
25000SOL    HW176897   8.208   9.532   1.873
25000SOL    HW276898   8.170   9.403   1.942
25001SOL     OW76899  13.527  11.271  11.134
25001SOL    HW176900  13.486  11.189  11.106
25001SOL    HW276901  13.575  11.302  11.057
25002SOL     OW76902   9.827   5.054   8.615
25002SOL    HW176903   9.915   5.087   8.635
25002SOL    HW276904   9.768   5.118   8.654
25003SOL     OW76905   6.877   6.098   4.071
25003SOL    HW176906   6.841   6.046   3.999
25003SOL    HW276907   6.898   6.034   4.139
25004SOL     OW76908   1.338   4.922  12.938
25004SOL    HW176909   1.261   4.980  12.943
25004SOL    HW276910   1.410   4.974  12.973
25005SOL     OW76911  12.232  13.514   6.069
25005SOL    HW176912  12.318  13.477   6.047
25005SOL    HW276913  12.229  13.511   6.165
25006SOL     OW76914  12.411  11.165   9.811
25006SOL    HW176915  12.488  11.149   9.756
25006SOL    HW276916  12.401  11.084   9.863
25007SOL     OW76917   7.929   1.152  10.540
25007SOL    HW176918   7.986   1.085  10.502
25007SOL    HW276919   7.863   1.102  10.588
25008SOL     OW76920   4.367   5.846   0.627
25008SOL    HW176921   4.304   5.786   0.587
25008SOL    HW276922   4.453   5.811   0.601
25009SOL     OW76923   5.160   5.246   2.935
25009SOL    HW176924   5.203   5.177   2.986
25009SOL    HW276925   5.189   5.231   2.845
25010SOL     OW76926  11.768   4.764  11.435
25010SOL    HW176927  11.852   4.783  11.394
25010SOL    HW276928  11.748   4.674  11.409
25011SOL     OW76929   8.535   5.547  10.921
25011SOL    HW176930   8.497   5.512  10.841
25011SOL    HW276931   8.572   5.470  10.965
25012SOL     OW76932   2.707   9.603  10.695
25012SOL    HW176933   2.639   9.538  10.679
25012SOL    HW276934   2.727   9.639  10.608
25013SOL     OW76935   8.198   7.154   7.678
25013SOL    HW176936   8.212   7.088   7.610
25013SOL    HW276937   8.133   7.116   7.736
25014SOL     OW76938   5.389   5.968   9.444
25014SOL    HW176939   5.391   6.002   9.355
25014SOL    HW276940   5.352   6.038   9.497
25015SOL     OW76941  14.442   5.773   8.770
25015SOL    HW176942  14.430   5.859   8.731
25015SOL    HW276943  14.373   5.719   8.731
25016SOL     OW76944   2.159   1.692  14.610
25016SOL    HW176945   2.250   1.720  14.615
25016SOL    HW276946   2.152   1.647  14.526
25017SOL     OW76947   8.328   9.130  10.036
25017SOL    HW176948   8.391   9.079   9.985
25017SOL    HW276949   8.371   9.143  10.121
25018SOL     OW76950   4.240   2.128   3.633
25018SOL    HW176951   4.162   2.074   3.635
25018SOL    HW276952   4.251   2.152   3.541
25019SOL     OW76953  12.200   9.408  10.262
25019SOL    HW176954  12.136   9.474  10.234
25019SOL    HW276955  12.223   9.362  10.181
25020SOL     OW76956   9.708   0.839  14.709
25020SOL    HW176957   9.694   0.915  14.653
25020SOL    HW276958   9.784   0.795  14.670
25021SOL     OW76959  11.284   6.011  14.158
25021SOL    HW176960  11.314   6.094  14.194
25021SOL    HW276961  11.355   5.982  14.101
25022SOL     OW76962   5.861   0.808   7.540
25022SOL    HW176963   5.914   0.728   7.540
25022SOL    HW276964   5.915   0.872   7.494
25023SOL     OW76965   8.593   9.610   7.246
25023SOL    HW176966   8.639   9.526   7.246
25023SOL    HW276967   8.587   9.635   7.338
25024SOL     OW76968   1.678   1.481   5.935
25024SOL    HW176969   1.681   1.573   5.963
25024SOL    HW276970   1.701   1.432   6.014
25025SOL     OW76971   6.544   4.538   9.536
25025SOL    HW176972   6.551   4.497   9.450
25025SOL    HW276973   6.450   4.551   9.548
25026SOL     OW76974  10.826  14.357   7.088
25026SOL    HW176975  10.775  14.355   7.169
25026SOL    HW276976  10.849  14.449   7.075
25027SOL     OW76977  12.077   1.181   9.245
25027SOL    HW176978  11.983   1.196   9.233
25027SOL    HW276979  12.091   1.091   9.216
25028SOL     OW76980  14.230   1.975   1.953
25028SOL    HW176981  14.314   2.018   1.937
25028SOL    HW276982  14.248   1.882   1.944
25029SOL     OW76983   4.950   8.365   6.116
25029SOL    HW176984   4.855   8.367   6.127
25029SOL    HW276985   4.984   8.330   6.198
25030SOL     OW76986   5.454   9.301  11.823
25030SOL    HW176987   5.498   9.374  11.780
25030SOL    HW276988   5.456   9.230  11.759
25031SOL     OW76989  13.312   9.576  14.784
25031SOL    HW176990  13.223   9.547  14.766
25031SOL    HW276991  13.347   9.602  14.699
25032SOL     OW76992  13.882  11.155   1.222
25032SOL    HW176993  13.934  11.076   1.204
25032SOL    HW276994  13.923  11.223   1.169
25033SOL     OW76995  14.333   9.229   2.178
25033SOL    HW176996  14.316   9.322   2.198
25033SOL    HW276997  14.264   9.182   2.226
25034SOL     OW76998  10.888  14.658   7.354
25034SOL    HW176999  10.961  14.605   7.323
25034SOL    HW277000  10.855  14.701   7.275
25035SOL     OW77001   4.230  13.527  10.951
25035SOL    HW177002   4.272  13.474  11.019
25035SOL    HW277003   4.291  13.598  10.934
25036SOL     OW77004   5.158   9.602   8.155
25036SOL    HW177005   5.244   9.588   8.194
25036SOL    HW277006   5.111   9.520   8.170
25037SOL     OW77007   2.932   2.192   3.281
25037SOL    HW177008   2.996   2.181   3.351
25037SOL    HW277009   2.909   2.102   3.255
25038SOL     OW77010   8.421   1.835   2.631
25038SOL    HW177011   8.440   1.741   2.639
25038SOL    HW277012   8.361   1.841   2.557
25039SOL     OW77013  11.377  11.858  13.823
25039SOL    HW177014  11.324  11.815  13.756
25039SOL    HW277015  11.327  11.936  13.847
25040SOL     OW77016   7.381  10.949  11.473
25040SOL    HW177017   7.317  10.977  11.538
25040SOL    HW277018   7.345  10.868  11.437
25041SOL     OW77019  10.035   6.496   2.273
25041SOL    HW177020   9.948   6.495   2.233
25041SOL    HW277021  10.095   6.476   2.201
25042SOL     OW77022   1.581   4.415  10.739
25042SOL    HW177023   1.623   4.501  10.746
25042SOL    HW277024   1.516   4.414  10.810
25043SOL     OW77025  14.711   5.406   3.138
25043SOL    HW177026  14.793   5.403   3.089
25043SOL    HW277027  14.692   5.499   3.148
25044SOL     OW77028  11.909   8.930   9.448
25044SOL    HW177029  11.960   8.894   9.376
25044SOL    HW277030  11.911   8.861   9.515
25045SOL     OW77031  14.322  12.308   5.997
25045SOL    HW177032  14.285  12.301   6.085
25045SOL    HW277033  14.248  12.331   5.942
25046SOL     OW77034   0.120  14.329   6.653
25046SOL    HW177035   0.141  14.396   6.717
25046SOL    HW277036   0.206  14.296   6.624
25047SOL     OW77037  12.203   6.279   3.680
25047SOL    HW177038  12.146   6.337   3.732
25047SOL    HW277039  12.224   6.206   3.738
25048SOL     OW77040   1.136   6.883   9.361
25048SOL    HW177041   1.220   6.873   9.405
25048SOL    HW277042   1.074   6.902   9.433
25049SOL     OW77043   8.602   8.273  10.030
25049SOL    HW177044   8.652   8.197  10.001
25049SOL    HW277045   8.665   8.326  10.080
25050SOL     OW77046   0.735   2.990  11.623
25050SOL    HW177047   0.724   2.911  11.675
25050SOL    HW277048   0.776   3.053  11.683
25051SOL     OW77049  13.710   6.007   1.449
25051SOL    HW177050  13.709   5.912   1.434
25051SOL    HW277051  13.722   6.045   1.362
25052SOL     OW77052  10.672   0.302   6.403
25052SOL    HW177053  10.617   0.379   6.411
25052SOL    HW277054  10.670   0.280   6.310
25053SOL     OW77055   1.383   4.349  10.933
25053SOL    HW177056   1.426   4.308  11.008
25053SOL    HW277057   1.290   4.333  10.947
25054SOL     OW77058   6.544   6.213   2.685
25054SOL    HW177059   6.573   6.184   2.598
25054SOL    HW277060   6.621   6.256   2.723
25055SOL     OW77061   0.822   8.851  11.302
25055SOL    HW177062   0.748   8.880  11.248
25055SOL    HW277063   0.831   8.918  11.369
25056SOL     OW77064  11.341   5.136  12.450
25056SOL    HW177065  11.413   5.109  12.507
25056SOL    HW277066  11.332   5.230  12.466
25057SOL     OW77067   3.989  11.326   2.455
25057SOL    HW177068   3.940  11.408   2.466
25057SOL    HW277069   4.057  11.347   2.391
25058SOL     OW77070   0.154   8.769   2.249
25058SOL    HW177071   0.177   8.813   2.331
25058SOL    HW277072   0.121   8.683   2.275
25059SOL     OW77073   3.742   8.756  14.154
25059SOL    HW177074   3.819   8.742  14.209
25059SOL    HW277075   3.671   8.713  14.201
25060SOL     OW77076   0.358   3.544   4.453
25060SOL    HW177077   0.453   3.535   4.447
25060SOL    HW277078   0.325   3.454   4.455
25061SOL     OW77079   7.996   1.865   1.398
25061SOL    HW177080   8.009   1.959   1.409
25061SOL    HW277081   7.987   1.853   1.304
25062SOL     OW77082   5.927  11.303  12.515
25062SOL    HW177083   5.861  11.308  12.447
25062SOL    HW277084   5.882  11.265  12.590
25063SOL     OW77085   6.954   1.467  13.852
25063SOL    HW177086   7.022   1.478  13.785
25063SOL    HW277087   6.992   1.504  13.932
25064SOL     OW77088   7.856  13.794   6.802
25064SOL    HW177089   7.936  13.755   6.767
25064SOL    HW277090   7.839  13.744   6.882
25065SOL     OW77091   2.138   2.045  13.449
25065SOL    HW177092   2.126   1.954  13.422
25065SOL    HW277093   2.209   2.043  13.513
25066SOL     OW77094  13.102  11.952   8.160
25066SOL    HW177095  13.143  11.885   8.215
25066SOL    HW277096  13.103  11.915   8.072
25067SOL     OW77097   0.191  10.317  14.803
25067SOL    HW177098   0.118  10.274  14.757
25067SOL    HW277099   0.162  10.407  14.815
25068SOL     OW77100   0.384   0.107  11.780
25068SOL    HW177101   0.419   0.018  11.786
25068SOL    HW277102   0.345   0.111  11.693
25069SOL     OW77103   3.405  10.624   8.814
25069SOL    HW177104   3.481  10.675   8.786
25069SOL    HW277105   3.440  10.559   8.875
25070SOL     OW77106   1.249  11.621   9.410
25070SOL    HW177107   1.239  11.714   9.389
25070SOL    HW277108   1.172  11.580   9.372
25071SOL     OW77109   8.378  10.772  14.711
25071SOL    HW177110   8.352  10.756  14.802
25071SOL    HW277111   8.317  10.838  14.679
25072SOL     OW77112   5.547  14.628  13.641
25072SOL    HW177113   5.576  14.714  13.609
25072SOL    HW277114   5.518  14.645  13.731
25073SOL     OW77115   7.773   2.904   8.373
25073SOL    HW177116   7.742   2.982   8.327
25073SOL    HW277117   7.868   2.906   8.363
25074SOL     OW77118   9.572   5.465  14.533
25074SOL    HW177119   9.493   5.493  14.487
25074SOL    HW277120   9.621   5.545  14.549
25075SOL     OW77121   7.792   8.419   9.859
25075SOL    HW177122   7.830   8.485   9.802
25075SOL    HW277123   7.720   8.382   9.807
25076SOL     OW77124   5.131  12.346   2.845
25076SOL    HW177125   5.145  12.254   2.824
25076SOL    HW277126   5.038  12.361   2.829
25077SOL     OW77127   5.534  13.262   2.690
25077SOL    HW177128   5.543  13.223   2.603
25077SOL    HW277129   5.547  13.189   2.750
25078SOL     OW77130   6.757  13.801   6.288
25078SOL    HW177131   6.784  13.740   6.356
25078SOL    HW277132   6.767  13.888   6.328
25079SOL     OW77133   2.116   9.813   3.098
25079SOL    HW177134   2.207   9.793   3.075
25079SOL    HW277135   2.119   9.902   3.133
25080SOL     OW77136  12.596   8.938   0.534
25080SOL    HW177137  12.591   8.988   0.453
25080SOL    HW277138  12.602   9.004   0.603
25081SOL     OW77139  13.647  10.149   9.295
25081SOL    HW177140  13.622  10.074   9.349
25081SOL    HW277141  13.615  10.225   9.344
25082SOL     OW77142   5.712   5.426   6.197
25082SOL    HW177143   5.710   5.377   6.115
25082SOL    HW277144   5.699   5.517   6.172
25083SOL     OW77145   9.710  10.194  12.000
25083SOL    HW177146   9.663  10.179  11.918
25083SOL    HW277147   9.736  10.106  12.029
25084SOL     OW77148   5.938  11.312   7.767
25084SOL    HW177149   5.916  11.288   7.857
25084SOL    HW277150   5.892  11.394   7.752
25085SOL     OW77151   0.100   1.159   8.690
25085SOL    HW177152   0.128   1.186   8.777
25085SOL    HW277153   0.055   1.235   8.654
25086SOL     OW77154   2.566   8.858   4.282
25086SOL    HW177155   2.589   8.888   4.370
25086SOL    HW277156   2.589   8.765   4.282
25087SOL     OW77157   2.142   2.734   1.335
25087SOL    HW177158   2.209   2.700   1.275
25087SOL    HW277159   2.059   2.702   1.299
25088SOL     OW77160   7.157   4.022   0.062
25088SOL    HW177161   7.228   3.985   0.114
25088SOL    HW277162   7.092   4.050   0.125
25089SOL     OW77163   8.635  14.715   6.318
25089SOL    HW177164   8.687  14.726   6.398
25089SOL    HW277165   8.682  14.765   6.252
25090SOL     OW77166   4.774   0.647   9.334
25090SOL    HW177167   4.756   0.605   9.251
25090SOL    HW277168   4.693   0.694   9.356
25091SOL     OW77169  12.740   8.133   1.661
25091SOL    HW177170  12.672   8.129   1.729
25091SOL    HW277171  12.727   8.054   1.610
25092SOL     OW77172  13.945   7.093   5.928
25092SOL    HW177173  13.867   7.056   5.885
25092SOL    HW277174  13.912   7.169   5.975
25093SOL     OW77175   2.998   1.009   4.465
25093SOL    HW177176   3.035   1.096   4.449
25093SOL    HW277177   3.065   0.948   4.432
25094SOL     OW77178   5.137   3.347  13.449
25094SOL    HW177179   5.082   3.328  13.374
25094SOL    HW277180   5.213   3.392  13.413
25095SOL     OW77181   5.245   8.862  13.069
25095SOL    HW177182   5.183   8.837  13.137
25095SOL    HW277183   5.207   8.827  12.988
25096SOL     OW77184   1.916  13.686  11.693
25096SOL    HW177185   1.864  13.753  11.738
25096SOL    HW277186   1.906  13.608  11.748
25097SOL     OW77187  11.920   3.510  12.399
25097SOL    HW177188  11.950   3.459  12.474
25097SOL    HW277189  12.000   3.539  12.356
25098SOL     OW77190  13.468   7.797   7.306
25098SOL    HW177191  13.467   7.892   7.302
25098SOL    HW277192  13.520   7.776   7.383
25099SOL     OW77193   5.749  13.063   1.457
25099SOL    HW177194   5.747  12.980   1.411
25099SOL    HW277195   5.840  13.091   1.453
25100SOL     OW77196   4.764   1.405   2.775
25100SOL    HW177197   4.731   1.402   2.685
25100SOL    HW277198   4.812   1.488   2.780
25101SOL     OW77199   7.438   3.144   7.009
25101SOL    HW177200   7.400   3.231   6.999
25101SOL    HW277201   7.517   3.145   6.956
25102SOL     OW77202   2.037   8.025   0.250
25102SOL    HW177203   1.970   8.089   0.272
25102SOL    HW277204   2.116   8.076   0.234
25103SOL     OW77205  12.720   6.352  12.644
25103SOL    HW177206  12.684   6.264  12.652
25103SOL    HW277207  12.670   6.392  12.573
25104SOL     OW77208   5.221  10.564  10.116
25104SOL    HW177209   5.295  10.503  10.115
25104SOL    HW277210   5.172  10.544  10.036
25105SOL     OW77211   0.114   0.991  12.209
25105SOL    HW177212   0.090   0.969  12.119
25105SOL    HW277213   0.183   0.929  12.232
25106SOL     OW77214  11.249  12.397   4.908
25106SOL    HW177215  11.227  12.321   4.854
25106SOL    HW277216  11.297  12.361   4.982
25107SOL     OW77217   8.756  14.351   9.411
25107SOL    HW177218   8.847  14.323   9.426
25107SOL    HW277219   8.715  14.347   9.498
25108SOL     OW77220   9.926  13.759   8.956
25108SOL    HW177221   9.915  13.700   8.881
25108SOL    HW277222   9.915  13.847   8.919
25109SOL     OW77223  13.478   7.309   7.811
25109SOL    HW177224  13.566   7.317   7.775
25109SOL    HW277225  13.443   7.229   7.770
25110SOL     OW77226   2.117   0.652   5.315
25110SOL    HW177227   2.177   0.578   5.312
25110SOL    HW277228   2.068   0.641   5.396
25111SOL     OW77229  14.583   3.658  11.971
25111SOL    HW177230  14.516   3.686  11.910
25111SOL    HW277231  14.666   3.678  11.927
25112SOL     OW77232  12.500   4.445  10.276
25112SOL    HW177233  12.523   4.512  10.340
25112SOL    HW277234  12.561   4.458  10.204
25113SOL     OW77235   0.788   9.208   4.542
25113SOL    HW177236   0.749   9.156   4.612
25113SOL    HW277237   0.859   9.154   4.509
25114SOL     OW77238   5.071   3.120  12.079
25114SOL    HW177239   5.047   3.198  12.030
25114SOL    HW277240   5.060   3.144  12.171
25115SOL     OW77241   6.081  13.277   4.625
25115SOL    HW177242   6.159  13.329   4.642
25115SOL    HW277243   6.104  13.189   4.653
25116SOL     OW77244   0.072  14.643  10.883
25116SOL    HW177245   0.011  14.655  10.956
25116SOL    HW277246   0.017  14.608  10.812
25117SOL     OW77247   1.210   3.493   6.016
25117SOL    HW177248   1.305   3.504   6.017
25117SOL    HW277249   1.196   3.407   6.057
25118SOL     OW77250  10.442  14.778   3.315
25118SOL    HW177251  10.428  14.849   3.252
25118SOL    HW277252  10.529  14.794   3.350
25119SOL     OW77253  11.310  13.061   8.507
25119SOL    HW177254  11.270  13.047   8.593
25119SOL    HW277255  11.370  12.987   8.496
25120SOL     OW77256  13.543   4.240   6.659
25120SOL    HW177257  13.462   4.288   6.648
25120SOL    HW277258  13.587   4.248   6.574
25121SOL     OW77259  10.714  12.060   0.098
25121SOL    HW177260  10.755  12.082   0.181
25121SOL    HW277261  10.756  11.979   0.071
25122SOL     OW77262   4.292   9.634   4.384
25122SOL    HW177263   4.249   9.674   4.459
25122SOL    HW277264   4.226   9.577   4.345
25123SOL     OW77265  10.434  10.506   6.191
25123SOL    HW177266  10.475  10.419   6.193
25123SOL    HW277267  10.411  10.519   6.099
25124SOL     OW77268  12.222  13.229  11.347
25124SOL    HW177269  12.182  13.256  11.430
25124SOL    HW277270  12.256  13.141  11.365
25125SOL     OW77271   4.590   5.537   2.518
25125SOL    HW177272   4.559   5.596   2.586
25125SOL    HW277273   4.527   5.465   2.519
25126SOL     OW77274   1.884  11.327  14.516
25126SOL    HW177275   1.800  11.369  14.497
25126SOL    HW277276   1.924  11.382  14.583
25127SOL     OW77277   3.756  11.330   5.272
25127SOL    HW177278   3.822  11.261   5.276
25127SOL    HW277279   3.692  11.298   5.209
25128SOL     OW77280   4.198   5.665   2.048
25128SOL    HW177281   4.279   5.653   2.097
25128SOL    HW277282   4.203   5.754   2.014
25129SOL     OW77283  13.228   5.469   0.268
25129SOL    HW177284  13.230   5.508   0.356
25129SOL    HW277285  13.147   5.501   0.229
25130SOL     OW77286   2.873   3.119   7.516
25130SOL    HW177287   2.782   3.096   7.495
25130SOL    HW277288   2.925   3.074   7.449
25131SOL     OW77289  14.877   1.692   1.545
25131SOL    HW177290   0.007   1.764   1.608
25131SOL    HW277291  14.790   1.657   1.564
25132SOL     OW77292   8.132   0.529   4.166
25132SOL    HW177293   8.103   0.468   4.099
25132SOL    HW277294   8.151   0.474   4.242
25133SOL     OW77295   5.393  14.257   4.178
25133SOL    HW177296   5.323  14.191   4.179
25133SOL    HW277297   5.386  14.297   4.091
25134SOL     OW77298   2.633   9.107   1.404
25134SOL    HW177299   2.543   9.076   1.417
25134SOL    HW277300   2.686   9.046   1.455
25135SOL     OW77301  10.776  14.856  14.080
25135SOL    HW177302  10.807  14.872  13.991
25135SOL    HW277303  10.785  14.761  14.092
25136SOL     OW77304   4.406   7.011   2.497
25136SOL    HW177305   4.361   7.057   2.568
25136SOL    HW277306   4.396   7.069   2.421
25137SOL     OW77307   3.408  11.575   5.510
25137SOL    HW177308   3.318  11.603   5.493
25137SOL    HW277309   3.401  11.518   5.587
25138SOL     OW77310   6.836   0.221   1.325
25138SOL    HW177311   6.832   0.275   1.247
25138SOL    HW277312   6.927   0.190   1.329
25139SOL     OW77313  13.713   2.604   2.921
25139SOL    HW177314  13.655   2.672   2.954
25139SOL    HW277315  13.771   2.649   2.860
25140SOL     OW77316   2.967   2.926   5.210
25140SOL    HW177317   2.897   2.874   5.171
25140SOL    HW277318   2.960   3.012   5.167
25141SOL     OW77319   8.497  10.417   3.256
25141SOL    HW177320   8.419  10.439   3.205
25141SOL    HW277321   8.464  10.391   3.342
25142SOL     OW77322   8.637   7.477   1.900
25142SOL    HW177323   8.643   7.484   1.995
25142SOL    HW277324   8.633   7.567   1.869
25143SOL     OW77325   2.407   8.910   6.611
25143SOL    HW177326   2.322   8.902   6.655
25143SOL    HW277327   2.415   8.830   6.559
25144SOL     OW77328   9.410   6.249   3.097
25144SOL    HW177329   9.463   6.170   3.110
25144SOL    HW277330   9.426   6.274   3.006
25145SOL     OW77331  13.301   6.297  11.088
25145SOL    HW177332  13.379   6.258  11.049
25145SOL    HW277333  13.248   6.324  11.013
25146SOL     OW77334  14.295   1.956  14.635
25146SOL    HW177335  14.290   2.051  14.623
25146SOL    HW277336  14.347   1.925  14.560
25147SOL     OW77337  10.431   0.240   3.961
25147SOL    HW177338  10.427   0.177   4.033
25147SOL    HW277339  10.349   0.226   3.913
25148SOL     OW77340   6.699   5.479   7.544
25148SOL    HW177341   6.764   5.412   7.524
25148SOL    HW277342   6.682   5.522   7.460
25149SOL     OW77343   7.440   6.241   1.448
25149SOL    HW177344   7.472   6.308   1.510
25149SOL    HW277345   7.519   6.196   1.418
25150SOL     OW77346   4.202   4.641   6.963
25150SOL    HW177347   4.288   4.623   7.001
25150SOL    HW277348   4.205   4.599   6.877
25151SOL     OW77349   3.172   2.579   8.149
25151SOL    HW177350   3.101   2.515   8.158
25151SOL    HW277351   3.249   2.534   8.186
25152SOL     OW77352   1.149  13.615  12.574
25152SOL    HW177353   1.080  13.548  12.579
25152SOL    HW277354   1.105  13.692  12.537
25153SOL     OW77355   8.715   1.764   9.939
25153SOL    HW177356   8.727   1.733  10.029
25153SOL    HW277357   8.743   1.855   9.942
25154SOL     OW77358   9.584   6.767   0.896
25154SOL    HW177359   9.605   6.794   0.806
25154SOL    HW277360   9.620   6.679   0.903
25155SOL     OW77361   9.110   7.061   2.831
25155SOL    HW177362   9.040   7.042   2.893
25155SOL    HW277363   9.066   7.103   2.757
25156SOL     OW77364   6.343   4.626  11.051
25156SOL    HW177365   6.356   4.711  11.009
25156SOL    HW277366   6.270   4.640  11.111
25157SOL     OW77367   1.052   5.034   6.104
25157SOL    HW177368   1.020   4.969   6.042
25157SOL    HW277369   1.146   5.040   6.086
25158SOL     OW77370  12.303   6.491   2.882
25158SOL    HW177371  12.241   6.460   2.815
25158SOL    HW277372  12.276   6.445   2.962
25159SOL     OW77373  12.943   2.868   8.205
25159SOL    HW177374  12.883   2.851   8.278
25159SOL    HW277375  12.893   2.847   8.127
25160SOL     OW77376   0.432   0.873  14.860
25160SOL    HW177377   0.515   0.847   0.020
25160SOL    HW277378   0.373   0.889   0.054
25161SOL     OW77379   1.446   8.087  13.059
25161SOL    HW177380   1.450   8.031  12.981
25161SOL    HW277381   1.537   8.109  13.078
25162SOL     OW77382  12.451   8.413  12.768
25162SOL    HW177383  12.408   8.389  12.686
25162SOL    HW277384  12.389   8.387  12.836
25163SOL     OW77385   9.380   8.797   5.971
25163SOL    HW177386   9.358   8.706   5.949
25163SOL    HW277387   9.308   8.848   5.936
25164SOL     OW77388   7.350   5.266   4.017
25164SOL    HW177389   7.324   5.357   4.028
25164SOL    HW277390   7.292   5.218   4.077
25165SOL     OW77391   0.038   3.096  12.308
25165SOL    HW177392  14.855   3.080  12.379
25165SOL    HW277393   0.102   3.156  12.347
25166SOL     OW77394  13.302   0.187   8.138
25166SOL    HW177395  13.387   0.150   8.160
25166SOL    HW277396  13.242   0.149   8.202
25167SOL     OW77397  11.702   5.472   5.756
25167SOL    HW177398  11.616   5.500   5.787
25167SOL    HW277399  11.687   5.442   5.667
25168SOL     OW77400   0.962  14.184  11.903
25168SOL    HW177401   0.985  14.232  11.982
25168SOL    HW277402   1.046  14.159  11.864
25169SOL     OW77403   8.296  10.320  10.433
25169SOL    HW177404   8.376  10.280  10.399
25169SOL    HW277405   8.317  10.346  10.522
25170SOL     OW77406   7.358   6.348   4.916
25170SOL    HW177407   7.356   6.270   4.861
25170SOL    HW277408   7.378   6.315   5.004
25171SOL     OW77409   8.669   9.462   0.412
25171SOL    HW177410   8.732   9.398   0.379
25171SOL    HW277411   8.713   9.546   0.401
25172SOL     OW77412   1.669  12.257  10.920
25172SOL    HW177413   1.717  12.231  10.841
25172SOL    HW277414   1.591  12.303  10.886
25173SOL     OW77415  13.987   9.830  11.832
25173SOL    HW177416  14.016   9.870  11.914
25173SOL    HW277417  14.014   9.892  11.764
25174SOL     OW77418  11.268   3.234  10.415
25174SOL    HW177419  11.258   3.175  10.490
25174SOL    HW277420  11.347   3.203  10.371
25175SOL     OW77421  10.321  13.768   6.385
25175SOL    HW177422  10.379  13.707   6.340
25175SOL    HW277423  10.354  13.773   6.474
25176SOL     OW77424   5.663   5.181   8.748
25176SOL    HW177425   5.696   5.260   8.790
25176SOL    HW277426   5.672   5.112   8.814
25177SOL     OW77427  13.137   2.001  12.900
25177SOL    HW177428  13.163   2.093  12.906
25177SOL    HW277429  13.148   1.967  12.989
25178SOL     OW77430   4.370   9.638  14.809
25178SOL    HW177431   4.438   9.636  14.741
25178SOL    HW277432   4.379   9.724  14.849
25179SOL     OW77433   9.263   3.196  13.394
25179SOL    HW177434   9.241   3.114  13.437
25179SOL    HW277435   9.341   3.176  13.343
25180SOL     OW77436   4.984   4.965   1.311
25180SOL    HW177437   5.032   4.886   1.289
25180SOL    HW277438   4.892   4.939   1.307
25181SOL     OW77439  12.371  12.284  10.358
25181SOL    HW177440  12.316  12.360  10.336
25181SOL    HW277441  12.315  12.230  10.414
25182SOL     OW77442  11.139   5.774   1.196
25182SOL    HW177443  11.146   5.855   1.246
25182SOL    HW277444  11.211   5.778   1.133
25183SOL     OW77445   3.672   1.808  13.933
25183SOL    HW177446   3.647   1.818  14.025
25183SOL    HW277447   3.745   1.746  13.935
25184SOL     OW77448   9.031  14.828   6.799
25184SOL    HW177449   9.043  14.782   6.716
25184SOL    HW277450   9.052   0.039   6.780
25185SOL     OW77451   5.690   5.747   6.216
25185SOL    HW177452   5.783   5.753   6.235
25185SOL    HW277453   5.664   5.836   6.193
25186SOL     OW77454   2.606   7.087   7.389
25186SOL    HW177455   2.617   7.151   7.318
25186SOL    HW277456   2.521   7.047   7.372
25187SOL     OW77457   4.414   5.797  13.445
25187SOL    HW177458   4.461   5.758  13.372
25187SOL    HW277459   4.370   5.723  13.488
25188SOL     OW77460   2.453   0.380  10.637
25188SOL    HW177461   2.394   0.352  10.708
25188SOL    HW277462   2.398   0.382  10.559
25189SOL     OW77463   7.350   2.073  11.977
25189SOL    HW177464   7.293   2.021  12.034
25189SOL    HW277465   7.311   2.160  11.975
25190SOL     OW77466   3.314  12.620   6.126
25190SOL    HW177467   3.370  12.675   6.071
25190SOL    HW277468   3.252  12.580   6.065
25191SOL     OW77469  10.397   7.952   4.520
25191SOL    HW177470  10.447   7.901   4.457
25191SOL    HW277471  10.451   8.030   4.536
25192SOL     OW77472   9.678   6.538   1.364
25192SOL    HW177473   9.726   6.523   1.446
25192SOL    HW277474   9.738   6.511   1.295
25193SOL     OW77475   0.431   4.305   4.917
25193SOL    HW177476   0.407   4.282   5.007
25193SOL    HW277477   0.497   4.240   4.892
25194SOL     OW77478  11.958   2.341   5.829
25194SOL    HW177479  11.875   2.296   5.814
25194SOL    HW277480  12.005   2.332   5.746
25195SOL     OW77481  14.279  12.860   5.709
25195SOL    HW177482  14.294  12.936   5.653
25195SOL    HW277483  14.253  12.897   5.793
25196SOL     OW77484   2.043   1.833  11.932
25196SOL    HW177485   2.024   1.820  11.840
25196SOL    HW277486   2.109   1.767  11.953
25197SOL     OW77487   5.605   5.269   0.910
25197SOL    HW177488   5.661   5.342   0.938
25197SOL    HW277489   5.615   5.266   0.815
25198SOL     OW77490  14.771   4.795   6.984
25198SOL    HW177491  14.800   4.747   7.061
25198SOL    HW277492  14.676   4.791   6.987
25199SOL     OW77493   9.182   2.642   2.405
25199SOL    HW177494   9.128   2.690   2.467
25199SOL    HW277495   9.218   2.569   2.455
25200SOL     OW77496   7.168   8.634  11.086
25200SOL    HW177497   7.125   8.688  11.153
25200SOL    HW277498   7.107   8.634  11.013
25201SOL     OW77499   9.991   4.588   0.963
25201SOL    HW177500   9.922   4.550   0.910
25201SOL    HW277501   9.998   4.678   0.933
25202SOL     OW77502  11.537   4.418  10.818
25202SOL    HW177503  11.630   4.404  10.797
25202SOL    HW277504  11.505   4.473  10.746
25203SOL     OW77505   8.517   5.145   5.515
25203SOL    HW177506   8.599   5.097   5.508
25203SOL    HW277507   8.544   5.237   5.518
25204SOL     OW77508   0.427   4.666   3.156
25204SOL    HW177509   0.384   4.692   3.074
25204SOL    HW277510   0.502   4.725   3.163
25205SOL     OW77511   2.134   3.529   9.846
25205SOL    HW177512   2.050   3.529   9.894
25205SOL    HW277513   2.120   3.466   9.775
25206SOL     OW77514   4.943   6.428   0.279
25206SOL    HW177515   4.928   6.379   0.359
25206SOL    HW277516   4.862   6.418   0.229
25207SOL     OW77517  13.400   6.684   4.473
25207SOL    HW177518  13.439   6.750   4.416
25207SOL    HW277519  13.316   6.721   4.499
25208SOL     OW77520   9.663   0.856   5.047
25208SOL    HW177521   9.655   0.797   5.122
25208SOL    HW277522   9.644   0.943   5.083
25209SOL     OW77523   3.017  12.304   0.081
25209SOL    HW177524   3.041  12.384   0.128
25209SOL    HW277525   2.970  12.335   0.004
25210SOL     OW77526   5.324  14.820   3.436
25210SOL    HW177527   5.263  14.753   3.466
25210SOL    HW277528   5.279   0.023   3.452
25211SOL     OW77529  11.453  11.688  11.777
25211SOL    HW177530  11.426  11.617  11.835
25211SOL    HW277531  11.489  11.645  11.700
25212SOL     OW77532  12.895   8.823   9.242
25212SOL    HW177533  12.975   8.771   9.252
25212SOL    HW277534  12.872   8.848   9.332
25213SOL     OW77535   9.491   0.534  10.690
25213SOL    HW177536   9.451   0.524  10.776
25213SOL    HW277537   9.431   0.591  10.642
25214SOL     OW77538   2.907   0.254  13.649
25214SOL    HW177539   2.885   0.222  13.736
25214SOL    HW277540   2.831   0.234  13.595
25215SOL     OW77541   2.070   5.608   7.755
25215SOL    HW177542   2.042   5.608   7.663
25215SOL    HW277543   2.019   5.677   7.797
25216SOL     OW77544   4.116  11.281  12.737
25216SOL    HW177545   4.129  11.193  12.771
25216SOL    HW277546   4.021  11.294  12.737
25217SOL     OW77547  10.834  10.810   8.311
25217SOL    HW177548  10.836  10.718   8.283
25217SOL    HW277549  10.923  10.828   8.340
25218SOL     OW77550   9.298  11.336   7.648
25218SOL    HW177551   9.260  11.329   7.735
25218SOL    HW277552   9.379  11.386   7.660
25219SOL     OW77553  14.473   3.615   6.310
25219SOL    HW177554  14.565   3.613   6.335
25219SOL    HW277555  14.431   3.552   6.368
25220SOL     OW77556   6.923   8.501  12.270
25220SOL    HW177557   6.872   8.421  12.279
25220SOL    HW277558   7.014   8.475  12.287
25221SOL     OW77559   0.314   8.158  12.443
25221SOL    HW177560   0.267   8.227  12.396
25221SOL    HW277561   0.386   8.134  12.385
25222SOL     OW77562   4.196  11.312   9.882
25222SOL    HW177563   4.136  11.334   9.811
25222SOL    HW277564   4.242  11.234   9.852
25223SOL     OW77565   4.937  13.192   6.382
25223SOL    HW177566   5.002  13.206   6.451
25223SOL    HW277567   4.854  13.217   6.422
25224SOL     OW77568   2.133   6.936   7.171
25224SOL    HW177569   2.166   7.015   7.214
25224SOL    HW277570   2.114   6.876   7.242
25225SOL     OW77571   4.258   7.196  14.242
25225SOL    HW177572   4.218   7.226  14.161
25225SOL    HW277573   4.184   7.184  14.302
25226SOL     OW77574  11.018   4.805  13.375
25226SOL    HW177575  11.105   4.768  13.364
25226SOL    HW277576  10.986   4.820  13.286
25227SOL     OW77577   1.884   0.232   9.892
25227SOL    HW177578   1.807   0.284   9.918
25227SOL    HW277579   1.933   0.220   9.973
25228SOL     OW77580  13.483  11.569   0.849
25228SOL    HW177581  13.574  11.548   0.869
25228SOL    HW277582  13.482  11.663   0.834
25229SOL     OW77583   8.271   5.473  10.245
25229SOL    HW177584   8.298   5.556  10.206
25229SOL    HW277585   8.211   5.434  10.180
25230SOL     OW77586   8.965  10.863  10.011
25230SOL    HW177587   8.984  10.949  10.050
25230SOL    HW277588   9.040  10.845   9.955
25231SOL     OW77589  14.787   7.453  14.524
25231SOL    HW177590  14.825   7.395  14.459
25231SOL    HW277591  14.806   7.542  14.492
25232SOL     OW77592   0.518   5.698   5.589
25232SOL    HW177593   0.454   5.757   5.549
25232SOL    HW277594   0.488   5.611   5.563
25233SOL     OW77595   7.563   7.845  10.159
25233SOL    HW177596   7.573   7.829  10.252
25233SOL    HW277597   7.648   7.878  10.131
25234SOL     OW77598  12.940   3.973   5.840
25234SOL    HW177599  12.980   3.960   5.926
25234SOL    HW277600  12.914   4.065   5.840
25235SOL     OW77601   4.610  10.577   2.275
25235SOL    HW177602   4.551  10.554   2.203
25235SOL    HW277603   4.573  10.531   2.351
25236SOL     OW77604  12.477  11.168   6.074
25236SOL    HW177605  12.446  11.101   6.013
25236SOL    HW277606  12.569  11.146   6.089
25237SOL     OW77607  11.088   7.480  11.678
25237SOL    HW177608  11.058   7.426  11.751
25237SOL    HW277609  11.087   7.422  11.602
25238SOL     OW77610   4.331   0.355   1.637
25238SOL    HW177611   4.358   0.374   1.547
25238SOL    HW277612   4.300   0.265   1.635
25239SOL     OW77613   5.744   5.364   5.733
25239SOL    HW177614   5.800   5.395   5.662
25239SOL    HW277615   5.721   5.443   5.782
25240SOL     OW77616   9.887  13.302   3.287
25240SOL    HW177617   9.887  13.258   3.372
25240SOL    HW277618   9.958  13.366   3.294
25241SOL     OW77619   0.957  12.716   4.679
25241SOL    HW177620   0.974  12.638   4.731
25241SOL    HW277621   1.031  12.721   4.618
25242SOL     OW77622   4.008   6.290  11.612
25242SOL    HW177623   4.062   6.229  11.562
25242SOL    HW277624   3.918   6.265  11.591
25243SOL     OW77625   7.683   6.432   2.696
25243SOL    HW177626   7.700   6.434   2.790
25243SOL    HW277627   7.769   6.447   2.656
25244SOL     OW77628   3.061   9.090  11.939
25244SOL    HW177629   3.069   9.173  11.986
25244SOL    HW277630   2.974   9.093  11.898
25245SOL     OW77631   5.965  10.624   5.090
25245SOL    HW177632   5.967  10.528   5.092
25245SOL    HW277633   6.035  10.650   5.150
25246SOL     OW77634   8.443   9.413   2.782
25246SOL    HW177635   8.467   9.360   2.706
25246SOL    HW277636   8.348   9.420   2.778
25247SOL     OW77637  12.096   1.691  12.676
25247SOL    HW177638  12.135   1.687  12.764
25247SOL    HW277639  12.023   1.630  12.680
25248SOL     OW77640  10.602   4.616   1.589
25248SOL    HW177641  10.684   4.575   1.564
25248SOL    HW277642  10.604   4.702   1.546
25249SOL     OW77643   8.817  11.836   3.873
25249SOL    HW177644   8.763  11.759   3.852
25249SOL    HW277645   8.907  11.803   3.874
25250SOL     OW77646   3.292  13.870  11.812
25250SOL    HW177647   3.222  13.853  11.875
25250SOL    HW277648   3.339  13.787  11.805
25251SOL     OW77649   0.969  12.178   9.687
25251SOL    HW177650   1.031  12.217   9.625
25251SOL    HW277651   0.884  12.216   9.663
25252SOL     OW77652  12.708   6.467  11.590
25252SOL    HW177653  12.784   6.410  11.599
25252SOL    HW277654  12.634   6.407  11.578
25253SOL     OW77655   1.831  12.869   6.046
25253SOL    HW177656   1.785  12.943   6.005
25253SOL    HW277657   1.782  12.792   6.017
25254SOL     OW77658   4.622  14.005   8.305
25254SOL    HW177659   4.552  13.973   8.361
25254SOL    HW277660   4.701  13.999   8.359
25255SOL     OW77661  12.476  11.971   4.608
25255SOL    HW177662  12.520  11.887   4.597
25255SOL    HW277663  12.542  12.036   4.583
25256SOL     OW77664   5.720   7.103   9.925
25256SOL    HW177665   5.668   7.181   9.944
25256SOL    HW277666   5.713   7.049  10.004
25257SOL     OW77667  12.470   6.757  11.083
25257SOL    HW177668  12.502   6.765  11.173
25257SOL    HW277669  12.375   6.770  11.090
25258SOL     OW77670   1.066   1.103   2.819
25258SOL    HW177671   0.994   1.123   2.760
25258SOL    HW277672   1.145   1.114   2.765
25259SOL     OW77673  14.611  13.723   4.357
25259SOL    HW177674  14.596  13.733   4.451
25259SOL    HW277675  14.532  13.759   4.316
25260SOL     OW77676  11.243   6.110   3.482
25260SOL    HW177677  11.282   6.194   3.459
25260SOL    HW277678  11.163   6.105   3.431
25261SOL     OW77679  12.097   0.943  13.683
25261SOL    HW177680  12.020   0.944  13.740
25261SOL    HW277681  12.064   0.912  13.599
25262SOL     OW77682   0.778   1.577   5.796
25262SOL    HW177683   0.788   1.650   5.735
25262SOL    HW277684   0.687   1.583   5.826
25263SOL     OW77685  11.965   3.321  11.270
25263SOL    HW177686  11.902   3.350  11.335
25263SOL    HW277687  11.923   3.246  11.228
25264SOL     OW77688   4.555   3.894   7.938
25264SOL    HW177689   4.512   3.980   7.934
25264SOL    HW277690   4.627   3.901   7.876
25265SOL     OW77691   9.792  10.533   2.171
25265SOL    HW177692   9.707  10.520   2.212
25265SOL    HW277693   9.834  10.447   2.174
25266SOL     OW77694   4.288   0.414   9.002
25266SOL    HW177695   4.298   0.371   9.086
25266SOL    HW277696   4.376   0.415   8.964
25267SOL     OW77697   5.260   9.926   8.408
25267SOL    HW177698   5.335   9.867   8.404
25267SOL    HW277699   5.190   9.878   8.364
25268SOL     OW77700   5.415   1.664  10.964
25268SOL    HW177701   5.447   1.702  11.046
25268SOL    HW277702   5.353   1.597  10.991
25269SOL     OW77703   2.142  14.471  10.878
25269SOL    HW177704   2.216  14.495  10.823
25269SOL    HW277705   2.131  14.377  10.864
25270SOL     OW77706   4.379   6.909   0.911
25270SOL    HW177707   4.323   6.968   0.860
25270SOL    HW277708   4.361   6.822   0.876
25271SOL     OW77709   1.358  12.566   0.799
25271SOL    HW177710   1.433  12.605   0.844
25271SOL    HW277711   1.396  12.526   0.720
25272SOL     OW77712  13.284   9.942   9.236
25272SOL    HW177713  13.371   9.934   9.275
25272SOL    HW277714  13.280  10.032   9.204
25273SOL     OW77715   9.722   2.347   2.137
25273SOL    HW177716   9.765   2.264   2.117
25273SOL    HW277717   9.692   2.380   2.053
25274SOL     OW77718   2.681  12.945   5.508
25274SOL    HW177719   2.634  12.864   5.522
25274SOL    HW277720   2.613  13.010   5.492
25275SOL     OW77721   8.704   1.017   4.848
25275SOL    HW177722   8.660   0.981   4.770
25275SOL    HW277723   8.646   1.087   4.877
25276SOL     OW77724   2.273   1.064  14.026
25276SOL    HW177725   2.310   1.151  14.011
25276SOL    HW277726   2.178   1.079  14.030
25277SOL     OW77727   4.267   7.720   8.430
25277SOL    HW177728   4.325   7.656   8.388
25277SOL    HW277729   4.323   7.769   8.488
25278SOL     OW77730   9.060   4.690  12.380
25278SOL    HW177731   9.124   4.761  12.376
25278SOL    HW277732   9.113   4.611  12.392
25279SOL     OW77733  11.112  12.546   1.306
25279SOL    HW177734  11.163  12.471   1.338
25279SOL    HW277735  11.028  12.508   1.281
25280SOL     OW77736  11.537   0.357  11.764
25280SOL    HW177737  11.456   0.356  11.713
25280SOL    HW277738  11.528   0.431  11.824
25281SOL     OW77739  13.738   2.739   9.519
25281SOL    HW177740  13.746   2.691   9.601
25281SOL    HW277741  13.754   2.830   9.544
25282SOL     OW77742   5.381   1.573   5.216
25282SOL    HW177743   5.388   1.668   5.228
25282SOL    HW277744   5.291   1.553   5.244
25283SOL     OW77745   1.900   8.546  13.641
25283SOL    HW177746   1.923   8.637  13.660
25283SOL    HW277747   1.933   8.532  13.552
25284SOL     OW77748  14.253   8.522   7.383
25284SOL    HW177749  14.182   8.485   7.331
25284SOL    HW277750  14.331   8.512   7.329
25285SOL     OW77751   6.170   1.695   9.902
25285SOL    HW177752   6.139   1.684   9.992
25285SOL    HW277753   6.168   1.607   9.865
25286SOL     OW77754   9.178   1.664   4.743
25286SOL    HW177755   9.251   1.676   4.682
25286SOL    HW277756   9.147   1.575   4.725
25287SOL     OW77757   1.351   3.781   8.922
25287SOL    HW177758   1.350   3.830   8.840
25287SOL    HW277759   1.301   3.836   8.983
25288SOL     OW77760   3.185  10.038  14.555
25288SOL    HW177761   3.198  10.006  14.645
25288SOL    HW277762   3.096  10.074  14.555
25289SOL     OW77763   8.831  10.308  12.746
25289SOL    HW177764   8.916  10.348  12.725
25289SOL    HW277765   8.846  10.265  12.830
25290SOL     OW77766  13.746   5.699   1.449
25290SOL    HW177767  13.708   5.691   1.362
25290SOL    HW277768  13.841   5.705   1.433
25291SOL     OW77769   3.749   8.134   2.000
25291SOL    HW177770   3.780   8.225   1.996
25291SOL    HW277771   3.783   8.093   1.921
25292SOL     OW77772   9.697   5.003   3.795
25292SOL    HW177773   9.646   4.937   3.842
25292SOL    HW277774   9.788   4.984   3.818
25293SOL     OW77775   7.859   9.704   2.403
25293SOL    HW177776   7.901   9.789   2.393
25293SOL    HW277777   7.811   9.711   2.486
25294SOL     OW77778  11.280   8.262  13.694
25294SOL    HW177779  11.351   8.266  13.758
25294SOL    HW277780  11.200   8.269  13.747
25295SOL     OW77781   0.726   2.846  12.427
25295SOL    HW177782   0.669   2.891  12.489
25295SOL    HW277783   0.789   2.800  12.482
25296SOL     OW77784   3.705  14.168   9.146
25296SOL    HW177785   3.688  14.261   9.131
25296SOL    HW277786   3.619  14.127   9.146
25297SOL     OW77787   5.857   1.109   5.670
25297SOL    HW177788   5.881   1.183   5.615
25297SOL    HW277789   5.847   1.035   5.610
25298SOL     OW77790  12.509  12.679   0.747
25298SOL    HW177791  12.561  12.713   0.820
25298SOL    HW277792  12.573  12.664   0.677
25299SOL     OW77793  11.768  14.438   2.803
25299SOL    HW177794  11.684  14.411   2.840
25299SOL    HW277795  11.746  14.481   2.720
25300SOL     OW77796   4.877  14.245   2.331
25300SOL    HW177797   4.888  14.287   2.416
25300SOL    HW277798   4.833  14.162   2.350
25301SOL     OW77799   3.164   4.967  14.465
25301SOL    HW177800   3.190   4.893  14.410
25301SOL    HW277801   3.072   4.951  14.485
25302SOL     OW77802  13.087   7.336   8.847
25302SOL    HW177803  13.121   7.423   8.867
25302SOL    HW277804  13.081   7.334   8.751
25303SOL     OW77805   4.145   0.069   2.472
25303SOL    HW177806   4.080   0.031   2.531
25303SOL    HW277807   4.095   0.124   2.413
25304SOL     OW77808   4.687   4.493   8.439
25304SOL    HW177809   4.666   4.582   8.412
25304SOL    HW277810   4.781   4.495   8.458
25305SOL     OW77811   5.033  11.115   8.995
25305SOL    HW177812   5.122  11.147   9.009
25305SOL    HW277813   4.987  11.190   8.956
25306SOL     OW77814   0.847  11.205   8.423
25306SOL    HW177815   0.834  11.115   8.452
25306SOL    HW277816   0.941  11.220   8.432
25307SOL     OW77817   6.617   6.682   6.282
25307SOL    HW177818   6.534   6.722   6.255
25307SOL    HW277819   6.593   6.626   6.356
25308SOL     OW77820   9.857  12.514   0.591
25308SOL    HW177821   9.855  12.436   0.646
25308SOL    HW277822   9.771  12.516   0.548
25309SOL     OW77823   5.142   4.938   7.272
25309SOL    HW177824   5.092   4.931   7.191
25309SOL    HW277825   5.098   4.879   7.332
25310SOL     OW77826  11.757  13.903   9.244
25310SOL    HW177827  11.813  13.827   9.259
25310SOL    HW277828  11.774  13.928   9.153
25311SOL     OW77829   5.625   3.875   4.144
25311SOL    HW177830   5.643   3.798   4.198
25311SOL    HW277831   5.684   3.942   4.178
25312SOL     OW77832  13.900   7.521  10.073
25312SOL    HW177833  13.948   7.580  10.014
25312SOL    HW277834  13.834   7.577  10.113
25313SOL     OW77835  11.362   1.534  13.350
25313SOL    HW177836  11.295   1.598  13.374
25313SOL    HW277837  11.417   1.527  13.429
25314SOL     OW77838   2.381   3.030   0.186
25314SOL    HW177839   2.365   3.078   0.105
25314SOL    HW277840   2.461   3.068   0.222
25315SOL     OW77841   1.702   2.062  11.244
25315SOL    HW177842   1.617   2.102  11.224
25315SOL    HW277843   1.750   2.130  11.291
25316SOL     OW77844  12.011  11.711  11.142
25316SOL    HW177845  12.023  11.644  11.075
25316SOL    HW277846  11.960  11.779  11.098
25317SOL     OW77847   6.502   8.705   8.455
25317SOL    HW177848   6.465   8.644   8.390
25317SOL    HW277849   6.437   8.707   8.525
25318SOL     OW77850  11.620   3.531   7.385
25318SOL    HW177851  11.593   3.443   7.360
25318SOL    HW277852  11.595   3.586   7.310
25319SOL     OW77853   0.996   1.592  10.016
25319SOL    HW177854   0.973   1.646  10.091
25319SOL    HW277855   0.966   1.643   9.940
25320SOL     OW77856   8.369   8.177   6.303
25320SOL    HW177857   8.439   8.153   6.242
25320SOL    HW277858   8.414   8.195   6.385
25321SOL     OW77859  12.065   6.749   4.249
25321SOL    HW177860  12.143   6.785   4.291
25321SOL    HW277861  12.083   6.655   4.241
25322SOL     OW77862  13.795  10.679   2.825
25322SOL    HW177863  13.738  10.714   2.893
25322SOL    HW277864  13.772  10.586   2.819
25323SOL     OW77865   3.680   7.809  11.285
25323SOL    HW177866   3.698   7.815  11.379
25323SOL    HW277867   3.586   7.791  11.279
25324SOL     OW77868  14.301   9.202   9.230
25324SOL    HW177869  14.338   9.119   9.198
25324SOL    HW277870  14.358   9.227   9.303
25325SOL     OW77871  11.820   9.908   7.212
25325SOL    HW177872  11.830   9.999   7.184
25325SOL    HW277873  11.736   9.906   7.258
25326SOL     OW77874   0.361   6.229   6.665
25326SOL    HW177875   0.427   6.290   6.632
25326SOL    HW277876   0.412   6.158   6.704
25327SOL     OW77877  10.906   6.138  13.089
25327SOL    HW177878  10.891   6.173  13.001
25327SOL    HW277879  10.884   6.045  13.082
25328SOL     OW77880   2.052   5.709   1.367
25328SOL    HW177881   2.139   5.672   1.357
25328SOL    HW277882   2.006   5.650   1.426
25329SOL     OW77883   4.847   1.150  14.604
25329SOL    HW177884   4.779   1.208  14.569
25329SOL    HW277885   4.879   1.195  14.682
25330SOL     OW77886  11.701  10.418   4.432
25330SOL    HW177887  11.707  10.507   4.468
25330SOL    HW277888  11.627  10.422   4.371
25331SOL     OW77889  10.997  11.433  12.224
25331SOL    HW177890  10.989  11.420  12.319
25331SOL    HW277891  10.964  11.351  12.186
25332SOL     OW77892  12.901   2.188   4.126
25332SOL    HW177893  12.900   2.183   4.030
25332SOL    HW277894  12.940   2.105   4.153
25333SOL     OW77895   6.359   9.550   3.100
25333SOL    HW177896   6.326   9.465   3.127
25333SOL    HW277897   6.454   9.544   3.111
25334SOL     OW77898   6.991   9.143   7.574
25334SOL    HW177899   7.081   9.130   7.604
25334SOL    HW277900   6.998   9.209   7.505
25335SOL     OW77901   9.386   5.853   1.714
25335SOL    HW177902   9.439   5.794   1.767
25335SOL    HW277903   9.297   5.818   1.722
25336SOL     OW77904   4.855  10.661   3.091
25336SOL    HW177905   4.858  10.575   3.132
25336SOL    HW277906   4.886  10.721   3.159
25337SOL     OW77907  12.598   3.299   6.147
25337SOL    HW177908  12.525   3.247   6.179
25337SOL    HW277909  12.655   3.311   6.223
25338SOL     OW77910   7.366   0.654   3.479
25338SOL    HW177911   7.417   0.674   3.401
25338SOL    HW277912   7.349   0.560   3.473
25339SOL     OW77913  10.565   3.730  10.199
25339SOL    HW177914  10.647   3.778  10.210
25339SOL    HW277915  10.551   3.728  10.104
25340SOL     OW77916   9.450   5.878  10.121
25340SOL    HW177917   9.414   5.796  10.087
25340SOL    HW277918   9.523   5.898  10.063
25341SOL     OW77919   5.381   1.086   1.948
25341SOL    HW177920   5.469   1.097   1.983
25341SOL    HW277921   5.328   1.059   2.023
25342SOL     OW77922   0.993   8.570  13.244
25342SOL    HW177923   1.005   8.665  13.248
25342SOL    HW277924   1.080   8.534  13.262
25343SOL     OW77925   8.444   7.604  10.379
25343SOL    HW177926   8.450   7.536  10.446
25343SOL    HW277927   8.391   7.672  10.419
25344SOL     OW77928  12.478   1.900   7.701
25344SOL    HW177929  12.559   1.896   7.649
25344SOL    HW277930  12.449   1.809   7.705
25345SOL     OW77931   9.865   3.170  13.431
25345SOL    HW177932   9.927   3.187  13.502
25345SOL    HW277933   9.779   3.170  13.473
25346SOL     OW77934   6.720   9.697   5.175
25346SOL    HW177935   6.651   9.733   5.232
25346SOL    HW277936   6.674   9.635   5.119
25347SOL     OW77937   7.304   4.698   3.744
25347SOL    HW177938   7.377   4.743   3.702
25347SOL    HW277939   7.243   4.768   3.767
25348SOL     OW77940   3.243   0.750   1.477
25348SOL    HW177941   3.297   0.679   1.513
25348SOL    HW277942   3.303   0.822   1.464
25349SOL     OW77943   9.079  10.793   6.983
25349SOL    HW177944   9.010  10.856   6.960
25349SOL    HW277945   9.033  10.710   6.995
25350SOL     OW77946   6.303  14.047   7.627
25350SOL    HW177947   6.393  14.067   7.602
25350SOL    HW277948   6.307  13.958   7.662
25351SOL     OW77949   9.618   7.653   3.819
25351SOL    HW177950   9.691   7.623   3.874
25351SOL    HW277951   9.661   7.683   3.738
25352SOL     OW77952   8.944  14.440   7.985
25352SOL    HW177953   8.866  14.397   8.019
25352SOL    HW277954   8.924  14.533   7.987
25353SOL     OW77955   4.177   7.160   4.106
25353SOL    HW177956   4.226   7.215   4.166
25353SOL    HW277957   4.087   7.189   4.114
25354SOL     OW77958  11.345   9.692   8.333
25354SOL    HW177959  11.251   9.687   8.318
25354SOL    HW277960  11.375   9.601   8.327
25355SOL     OW77961   4.774  11.984   8.430
25355SOL    HW177962   4.861  11.981   8.469
25355SOL    HW277963   4.778  11.924   8.356
25356SOL     OW77964   2.713   6.861   8.597
25356SOL    HW177965   2.654   6.923   8.556
25356SOL    HW277966   2.779   6.915   8.640
25357SOL     OW77967  14.761   0.080   8.220
25357SOL    HW177968  14.726  14.879   8.183
25357SOL    HW277969  14.699   0.105   8.288
25358SOL     OW77970  11.562  10.179   7.120
25358SOL    HW177971  11.514  10.113   7.170
25358SOL    HW277972  11.495  10.243   7.096
25359SOL     OW77973   4.810   5.948  14.220
25359SOL    HW177974   4.797   6.043  14.218
25359SOL    HW277975   4.727   5.911  14.190
25360SOL     OW77976   0.797  13.147   6.266
25360SOL    HW177977   0.776  13.061   6.228
25360SOL    HW277978   0.745  13.151   6.346
25361SOL     OW77979   5.544   0.625   9.693
25361SOL    HW177980   5.510   0.552   9.746
25361SOL    HW277981   5.470   0.651   9.638
25362SOL     OW77982   5.197   4.164   6.754
25362SOL    HW177983   5.134   4.179   6.683
25362SOL    HW277984   5.251   4.243   6.754
25363SOL     OW77985   7.982  14.864   3.868
25363SOL    HW177986   7.993  14.807   3.944
25363SOL    HW277987   7.917  14.820   3.813
25364SOL     OW77988   1.158  11.943  13.760
25364SOL    HW177989   1.112  11.953  13.677
25364SOL    HW277990   1.179  12.032  13.788
25365SOL     OW77991  12.657  13.398   0.898
25365SOL    HW177992  12.623  13.338   0.831
25365SOL    HW277993  12.737  13.356   0.929
25366SOL     OW77994   5.695   0.453   0.659
25366SOL    HW177995   5.775   0.478   0.705
25366SOL    HW277996   5.712   0.476   0.567
25367SOL     OW77997   9.733  14.619   8.998
25367SOL    HW177998   9.756  14.528   9.020
25367SOL    HW277999   9.789  14.672   9.055
25368SOL     OW78000   7.030  10.978   6.158
25368SOL    HW178001   7.094  11.016   6.098
25368SOL    HW278002   7.065  10.996   6.245
25369SOL     OW78003   8.476   5.803   7.496
25369SOL    HW178004   8.528   5.859   7.554
25369SOL    HW278005   8.450   5.729   7.551
25370SOL     OW78006   4.533  14.382  10.350
25370SOL    HW178007   4.486  14.464  10.369
25370SOL    HW278008   4.535  14.378  10.254
25371SOL     OW78009   8.727   4.145   5.703
25371SOL    HW178010   8.694   4.179   5.786
25371SOL    HW278011   8.820   4.127   5.720
25372SOL     OW78012   4.400   3.250   4.273
25372SOL    HW178013   4.471   3.204   4.318
25372SOL    HW278014   4.439   3.333   4.247
25373SOL     OW78015   3.491  12.542   5.142
25373SOL    HW178016   3.430  12.577   5.208
25373SOL    HW278017   3.465  12.585   5.061
25374SOL     OW78018   3.139   4.676  13.149
25374SOL    HW178019   3.174   4.619  13.217
25374SOL    HW278020   3.139   4.623  13.070
25375SOL     OW78021  14.640  11.528   2.793
25375SOL    HW178022  14.634  11.588   2.719
25375SOL    HW278023  14.723  11.482   2.780
25376SOL     OW78024   3.630   7.387   1.305
25376SOL    HW178025   3.581   7.468   1.309
25376SOL    HW278026   3.606   7.348   1.221
25377SOL     OW78027   2.668   9.910  14.751
25377SOL    HW178028   2.597   9.915  14.816
25377SOL    HW278029   2.624   9.914  14.667
25378SOL     OW78030   4.179   9.785  13.396
25378SOL    HW178031   4.217   9.869  13.426
25378SOL    HW278032   4.254   9.726  13.391
25379SOL     OW78033   7.478   1.379   2.157
25379SOL    HW178034   7.509   1.292   2.136
25379SOL    HW278035   7.483   1.385   2.252
25380SOL     OW78036   7.702   1.911   5.803
25380SOL    HW178037   7.734   1.851   5.735
25380SOL    HW278038   7.772   1.976   5.812
25381SOL     OW78039  10.447  10.006   5.361
25381SOL    HW178040  10.494  10.026   5.280
25381SOL    HW278041  10.357   9.990   5.333
25382SOL     OW78042   8.656  11.350   8.993
25382SOL    HW178043   8.701  11.425   9.031
25382SOL    HW278044   8.708  11.327   8.916
25383SOL     OW78045  14.250   3.668   3.513
25383SOL    HW178046  14.259   3.749   3.563
25383SOL    HW278047  14.334   3.622   3.527
25384SOL     OW78048   7.696   6.855   2.940
25384SOL    HW178049   7.732   6.784   2.992
25384SOL    HW278050   7.718   6.935   2.988
25385SOL     OW78051   3.659   9.042   1.935
25385SOL    HW178052   3.665   8.965   1.990
25385SOL    HW278053   3.568   9.045   1.906
25386SOL     OW78054   2.018   4.455   6.448
25386SOL    HW178055   2.079   4.527   6.459
25386SOL    HW278056   1.938   4.483   6.493
25387SOL     OW78057  14.266  12.734   8.793
25387SOL    HW178058  14.315  12.680   8.854
25387SOL    HW278059  14.309  12.820   8.798
25388SOL     OW78060   2.830  14.842   2.010
25388SOL    HW178061   2.903  14.840   1.948
25388SOL    HW278062   2.863   0.013   2.084
25389SOL     OW78063  13.761  12.806   5.614
25389SOL    HW178064  13.793  12.874   5.556
25389SOL    HW278065  13.704  12.751   5.559
25390SOL     OW78066  11.118  13.644   2.293
25390SOL    HW178067  11.118  13.594   2.375
25390SOL    HW278068  11.205  13.630   2.256
25391SOL     OW78069   7.737   1.065   5.284
25391SOL    HW178070   7.722   0.976   5.314
25391SOL    HW278071   7.650   1.095   5.255
25392SOL     OW78072  11.380   0.025  13.482
25392SOL    HW178073  11.385  14.812  13.503
25392SOL    HW278074  11.320   0.061  13.547
25393SOL     OW78075   3.893   1.965   3.376
25393SOL    HW178076   3.955   1.938   3.444
25393SOL    HW278077   3.888   1.890   3.316
25394SOL     OW78078   6.246  13.861  10.204
25394SOL    HW178079   6.336  13.830  10.215
25394SOL    HW278080   6.207  13.800  10.142
25395SOL     OW78081  11.178   7.343  10.567
25395SOL    HW178082  11.168   7.379  10.479
25395SOL    HW278083  11.122   7.398  10.622
25396SOL     OW78084  11.988   6.322   5.999
25396SOL    HW178085  12.053   6.303   5.932
25396SOL    HW278086  12.038   6.358   6.073
25397SOL     OW78087   2.245  14.735   4.102
25397SOL    HW178088   2.188  14.686   4.043
25397SOL    HW278089   2.217  14.710   4.189
25398SOL     OW78090   9.744  12.809   5.210
25398SOL    HW178091   9.674  12.862   5.248
25398SOL    HW278092   9.821  12.867   5.211
25399SOL     OW78093   2.678   0.932   9.102
25399SOL    HW178094   2.699   0.894   9.016
25399SOL    HW278095   2.747   0.900   9.160
25400SOL     OW78096  10.558   1.902   5.723
25400SOL    HW178097  10.515   1.895   5.809
25400SOL    HW278098  10.574   1.996   5.712
25401SOL     OW78099   4.386  13.795  10.948
25401SOL    HW178100   4.458  13.734  10.936
25401SOL    HW278101   4.370  13.831  10.860
25402SOL     OW78102   9.153   3.014   7.431
25402SOL    HW178103   9.213   3.046   7.363
25402SOL    HW278104   9.094   2.955   7.384
25403SOL     OW78105   7.226   9.393  14.565
25403SOL    HW178106   7.209   9.472  14.514
25403SOL    HW278107   7.250   9.327  14.499
25404SOL     OW78108   1.164   4.351   7.606
25404SOL    HW178109   1.161   4.303   7.689
25404SOL    HW278110   1.256   4.376   7.596
25405SOL     OW78111  12.940  13.830   6.622
25405SOL    HW178112  12.882  13.768   6.666
25405SOL    HW278113  12.902  13.916   6.639
25406SOL     OW78114  10.869   5.041  14.459
25406SOL    HW178115  10.850   5.134  14.447
25406SOL    HW278116  10.962   5.033  14.437
25407SOL     OW78117  12.021   8.156   1.115
25407SOL    HW178118  12.017   8.097   1.190
25407SOL    HW278119  11.950   8.219   1.131
25408SOL     OW78120  13.852  12.709   7.494
25408SOL    HW178121  13.844  12.739   7.585
25408SOL    HW278122  13.946  12.693   7.483
25409SOL     OW78123   8.123   2.436   8.364
25409SOL    HW178124   8.074   2.513   8.335
25409SOL    HW278125   8.112   2.372   8.294
25410SOL     OW78126   4.354   5.942   6.523
25410SOL    HW178127   4.391   6.024   6.489
25410SOL    HW278128   4.378   5.942   6.615
25411SOL     OW78129   6.804   5.064  14.793
25411SOL    HW178130   6.850   5.047  14.711
25411SOL    HW278131   6.754   5.144  14.777
25412SOL     OW78132  10.623   4.993   1.520
25412SOL    HW178133  10.696   4.938   1.546
25412SOL    HW278134  10.597   5.039   1.600
25413SOL     OW78135   2.381   8.035   9.573
25413SOL    HW178136   2.303   8.039   9.518
25413SOL    HW278137   2.451   8.068   9.516
25414SOL     OW78138  14.619   0.788   4.159
25414SOL    HW178139  14.567   0.866   4.142
25414SOL    HW278140  14.642   0.755   4.073
25415SOL     OW78141  11.344   9.750   3.516
25415SOL    HW178142  11.340   9.819   3.449
25415SOL    HW278143  11.397   9.681   3.475
25416SOL     OW78144   2.666   6.247   2.897
25416SOL    HW178145   2.760   6.260   2.885
25416SOL    HW278146   2.654   6.152   2.897
25417SOL     OW78147   7.120   7.606   8.070
25417SOL    HW178148   7.072   7.609   7.987
25417SOL    HW278149   7.154   7.516   8.074
25418SOL     OW78150   1.846   2.051   4.788
25418SOL    HW178151   1.820   2.114   4.855
25418SOL    HW278152   1.844   1.967   4.832
25419SOL     OW78153   4.270   5.286   5.713
25419SOL    HW178154   4.283   5.366   5.662
25419SOL    HW278155   4.256   5.316   5.803
25420SOL     OW78156   1.079   8.134   9.248
25420SOL    HW178157   0.986   8.132   9.226
25420SOL    HW278158   1.096   8.224   9.276
25421SOL     OW78159   5.028   4.438   6.356
25421SOL    HW178160   5.109   4.406   6.317
25421SOL    HW278161   4.980   4.359   6.380
25422SOL     OW78162   1.874   7.103   1.840
25422SOL    HW178163   1.820   7.164   1.890
25422SOL    HW278164   1.908   7.155   1.768
25423SOL     OW78165  10.976   2.484   1.050
25423SOL    HW178166  11.065   2.498   1.081
25423SOL    HW278167  10.921   2.517   1.121
25424SOL     OW78168  13.477  14.641   6.447
25424SOL    HW178169  13.501  14.727   6.480
25424SOL    HW278170  13.524  14.633   6.364
25425SOL     OW78171   3.508   4.144  13.145
25425SOL    HW178172   3.537   4.208  13.210
25425SOL    HW278173   3.421   4.118  13.174
25426SOL     OW78174   9.843   5.534   2.387
25426SOL    HW178175   9.785   5.578   2.324
25426SOL    HW278176   9.796   5.455   2.413
25427SOL     OW78177   4.525   3.561   9.095
25427SOL    HW178178   4.473   3.497   9.145
25427SOL    HW278179   4.611   3.521   9.088
25428SOL     OW78180   2.625  10.733   5.622
25428SOL    HW178181   2.698  10.795   5.612
25428SOL    HW278182   2.590  10.752   5.709
25429SOL     OW78183   5.950   5.667   8.617
25429SOL    HW178184   6.009   5.647   8.690
25429SOL    HW278185   5.897   5.740   8.648
25430SOL     OW78186   1.609   0.707  12.427
25430SOL    HW178187   1.588   0.784  12.375
25430SOL    HW278188   1.634   0.641  12.362
25431SOL     OW78189   1.404   9.830   5.465
25431SOL    HW178190   1.322   9.807   5.422
25431SOL    HW278191   1.425   9.754   5.520
25432SOL     OW78192   2.680  14.385   2.049
25432SOL    HW178193   2.702  14.478   2.056
25432SOL    HW278194   2.729  14.344   2.121
25433SOL     OW78195   6.720   7.926   0.162
25433SOL    HW178196   6.681   7.943   0.076
25433SOL    HW278197   6.778   8.000   0.177
25434SOL     OW78198  10.908  11.843  10.509
25434SOL    HW178199  10.918  11.866  10.601
25434SOL    HW278200  10.927  11.749  10.505
25435SOL     OW78201  14.817   2.802   6.513
25435SOL    HW178202  14.735   2.851   6.521
25435SOL    HW278203   0.005   2.869   6.516
25436SOL     OW78204   1.443  14.598  11.308
25436SOL    HW178205   1.517  14.580  11.365
25436SOL    HW278206   1.448  14.531  11.240
25437SOL     OW78207   7.836  10.246   3.746
25437SOL    HW178208   7.770  10.249   3.676
25437SOL    HW278209   7.792  10.201   3.818
25438SOL     OW78210   1.691   6.706   0.611
25438SOL    HW178211   1.643   6.627   0.587
25438SOL    HW278212   1.764   6.711   0.549
25439SOL     OW78213  11.460   9.317   0.163
25439SOL    HW178214  11.418   9.402   0.147
25439SOL    HW278215  11.422   9.286   0.244
25440SOL     OW78216   8.942   4.523   5.257
25440SOL    HW178217   8.948   4.557   5.168
25440SOL    HW278218   8.985   4.438   5.254
25441SOL     OW78219  10.943   8.019   6.989
25441SOL    HW178220  10.881   7.969   7.041
25441SOL    HW278221  11.000   7.954   6.948
25442SOL     OW78222   1.081   0.416  14.540
25442SOL    HW178223   1.025   0.477  14.588
25442SOL    HW278224   1.060   0.432  14.448
25443SOL     OW78225  11.443  10.623  13.706
25443SOL    HW178226  11.438  10.558  13.776
25443SOL    HW278227  11.522  10.673  13.726
25444SOL     OW78228   6.663   1.684   7.956
25444SOL    HW178229   6.734   1.721   8.008
25444SOL    HW278230   6.662   1.736   7.876
25445SOL     OW78231   0.219  13.478   2.595
25445SOL    HW178232   0.172  13.538   2.654
25445SOL    HW278233   0.153  13.450   2.532
25446SOL     OW78234   9.070   2.062   4.641
25446SOL    HW178235   9.143   2.124   4.634
25446SOL    HW278236   8.992   2.115   4.625
25447SOL     OW78237   9.540  13.993   3.761
25447SOL    HW178238   9.509  13.945   3.684
25447SOL    HW278239   9.496  13.951   3.834
25448SOL     OW78240  11.134  11.792   0.768
25448SOL    HW178241  11.195  11.831   0.706
25448SOL    HW278242  11.123  11.859   0.836
25449SOL     OW78243  12.455  12.450  12.778
25449SOL    HW178244  12.362  12.473  12.783
25449SOL    HW278245  12.457  12.374  12.719
25450SOL     OW78246   2.000  12.209   2.934
25450SOL    HW178247   2.058  12.137   2.908
25450SOL    HW278248   1.935  12.215   2.865
25451SOL     OW78249   7.416  11.741   7.176
25451SOL    HW178250   7.462  11.767   7.256
25451SOL    HW278251   7.327  11.775   7.187
25452SOL     OW78252   7.840   8.536   2.478
25452SOL    HW178253   7.930   8.509   2.456
25452SOL    HW278254   7.796   8.454   2.501
25453SOL     OW78255   0.664   2.132   3.678
25453SOL    HW178256   0.754   2.105   3.658
25453SOL    HW278257   0.645   2.201   3.614
25454SOL     OW78258   1.807   8.123   9.431
25454SOL    HW178259   1.860   8.186   9.381
25454SOL    HW278260   1.750   8.178   9.485
25455SOL     OW78261   1.621   7.771  11.560
25455SOL    HW178262   1.649   7.827  11.488
25455SOL    HW278263   1.678   7.795  11.634
25456SOL     OW78264   6.855   2.383   0.848
25456SOL    HW178265   6.771   2.342   0.867
25456SOL    HW278266   6.839   2.436   0.770
25457SOL     OW78267  10.755   1.487   1.038
25457SOL    HW178268  10.799   1.502   0.954
25457SOL    HW278269  10.791   1.403   1.069
25458SOL     OW78270  13.035   5.021   0.454
25458SOL    HW178271  12.978   4.994   0.382
25458SOL    HW278272  13.121   5.033   0.413
25459SOL     OW78273   8.516   8.490  13.004
25459SOL    HW178274   8.569   8.411  12.990
25459SOL    HW278275   8.506   8.528  12.917
25460SOL     OW78276  12.554   7.624   4.139
25460SOL    HW178277  12.502   7.656   4.213
25460SOL    HW278278  12.497   7.560   4.096
25461SOL     OW78279  11.445  10.807   4.329
25461SOL    HW178280  11.372  10.752   4.301
25461SOL    HW278281  11.523  10.753   4.313
25462SOL     OW78282   6.014  11.600   4.000
25462SOL    HW178283   5.956  11.533   3.963
25462SOL    HW278284   6.068  11.628   3.927
25463SOL     OW78285   9.436   5.030  10.687
25463SOL    HW178286   9.344   5.055  10.675
25463SOL    HW278287   9.452   4.963  10.620
25464SOL     OW78288   6.781   9.876   6.920
25464SOL    HW178289   6.826   9.793   6.935
25464SOL    HW278290   6.689   9.852   6.904
25465SOL     OW78291   5.654   7.073  12.862
25465SOL    HW178292   5.733   7.058  12.810
25465SOL    HW278293   5.656   7.166  12.882
25466SOL     OW78294  11.746  14.020   9.477
25466SOL    HW178295  11.759  13.975   9.393
25466SOL    HW278296  11.831  14.015   9.520
25467SOL     OW78297   4.965  12.313   4.268
25467SOL    HW178298   4.993  12.343   4.354
25467SOL    HW278299   5.038  12.258   4.237
25468SOL     OW78300  11.764   9.665   1.578
25468SOL    HW178301  11.767   9.588   1.635
25468SOL    HW278302  11.762   9.740   1.637
25469SOL     OW78303  12.978   2.345   4.783
25469SOL    HW178304  13.008   2.284   4.716
25469SOL    HW278305  13.058   2.383   4.819
25470SOL     OW78306   6.210  13.411   8.162
25470SOL    HW178307   6.271  13.348   8.199
25470SOL    HW278308   6.229  13.493   8.208
25471SOL     OW78309   4.352   8.827   4.343
25471SOL    HW178310   4.331   8.817   4.436
25471SOL    HW278311   4.395   8.912   4.337
25472SOL     OW78312   7.544  11.588   5.838
25472SOL    HW178313   7.556  11.658   5.902
25472SOL    HW278314   7.520  11.511   5.890
25473SOL     OW78315   9.033   8.024  11.756
25473SOL    HW178316   9.026   7.931  11.777
25473SOL    HW278317   9.103   8.029  11.690
25474SOL     OW78318   5.206  14.776   4.322
25474SOL    HW178319   5.191  14.867   4.297
25474SOL    HW278320   5.269  14.782   4.394
25475SOL     OW78321   7.461   6.010  10.505
25475SOL    HW178322   7.500   5.928  10.475
25475SOL    HW278323   7.480   6.014  10.598
25476SOL     OW78324   5.315   3.530   3.521
25476SOL    HW178325   5.364   3.545   3.440
25476SOL    HW278326   5.269   3.447   3.506
25477SOL     OW78327   6.331   9.517  14.429
25477SOL    HW178328   6.238   9.497  14.442
25477SOL    HW278329   6.333   9.581  14.358
25478SOL     OW78330   4.114  13.025   2.620
25478SOL    HW178331   4.149  12.936   2.630
25478SOL    HW278332   4.024  13.019   2.651
25479SOL     OW78333   0.876   4.638   4.555
25479SOL    HW178334   0.968   4.641   4.529
25479SOL    HW278335   0.842   4.724   4.530
25480SOL     OW78336   8.411   0.294   8.684
25480SOL    HW178337   8.399   0.223   8.621
25480SOL    HW278338   8.372   0.261   8.765
25481SOL     OW78339  10.779   2.162   2.836
25481SOL    HW178340  10.745   2.117   2.759
25481SOL    HW278341  10.710   2.152   2.902
25482SOL     OW78342  14.228   7.579   5.353
25482SOL    HW178343  14.165   7.602   5.285
25482SOL    HW278344  14.313   7.584   5.310
25483SOL     OW78345  13.112   0.962   7.509
25483SOL    HW178346  13.020   0.961   7.485
25483SOL    HW278347  13.157   0.989   7.429
25484SOL     OW78348   7.014   9.915  11.909
25484SOL    HW178349   7.034   9.924  11.815
25484SOL    HW278350   6.973   9.998  11.933
25485SOL     OW78351  14.577   7.311   9.513
25485SOL    HW178352  14.524   7.299   9.592
25485SOL    HW278353  14.513   7.335   9.445
25486SOL     OW78354   7.233  10.990   8.512
25486SOL    HW178355   7.274  11.060   8.462
25486SOL    HW278356   7.200  11.033   8.591
25487SOL     OW78357   6.377   6.740   0.237
25487SOL    HW178358   6.358   6.739   0.143
25487SOL    HW278359   6.463   6.781   0.244
25488SOL     OW78360   1.444   1.340   1.613
25488SOL    HW178361   1.496   1.399   1.669
25488SOL    HW278362   1.364   1.389   1.596
25489SOL     OW78363   4.512   7.371   0.957
25489SOL    HW178364   4.516   7.451   0.905
25489SOL    HW278365   4.425   7.334   0.938
25490SOL     OW78366  12.771   6.364   7.330
25490SOL    HW178367  12.783   6.448   7.285
25490SOL    HW278368  12.682   6.369   7.366
25491SOL     OW78369   0.116  13.497   7.907
25491SOL    HW178370   0.020  13.501   7.911
25491SOL    HW278371   0.145  13.560   7.973
25492SOL     OW78372   6.797  10.648  11.319
25492SOL    HW178373   6.835  10.726  11.360
25492SOL    HW278374   6.873  10.597  11.290
25493SOL     OW78375  10.266  12.152  10.019
25493SOL    HW178376  10.239  12.243  10.012
25493SOL    HW278377  10.240  12.113   9.935
25494SOL     OW78378   2.098   9.221   2.728
25494SOL    HW178379   2.088   9.308   2.766
25494SOL    HW278380   2.074   9.161   2.799
25495SOL     OW78381  10.573  10.781   5.693
25495SOL    HW178382  10.596  10.789   5.785
25495SOL    HW278383  10.488  10.736   5.693
25496SOL     OW78384   1.857   8.554  12.834
25496SOL    HW178385   1.808   8.593  12.907
25496SOL    HW278386   1.791   8.509  12.782
25497SOL     OW78387   7.669   3.204   6.448
25497SOL    HW178388   7.579   3.211   6.479
25497SOL    HW278389   7.680   3.113   6.423
25498SOL     OW78390   2.133   6.461   5.673
25498SOL    HW178391   2.164   6.530   5.731
25498SOL    HW278392   2.038   6.463   5.682
25499SOL     OW78393   8.636   8.366   6.527
25499SOL    HW178394   8.618   8.350   6.434
25499SOL    HW278395   8.626   8.280   6.568
25500SOL     OW78396   1.318   4.599  11.966
25500SOL    HW178397   1.225   4.583  11.986
25500SOL    HW278398   1.338   4.680  12.012
25501SOL     OW78399   2.043  10.357   9.890
25501SOL    HW178400   2.041  10.434   9.833
25501SOL    HW278401   2.136  10.341   9.906
25502SOL     OW78402   1.546   0.834   9.255
25502SOL    HW178403   1.515   0.920   9.282
25502SOL    HW278404   1.622   0.851   9.200
25503SOL     OW78405  14.001  12.302  12.683
25503SOL    HW178406  13.945  12.295  12.606
25503SOL    HW278407  13.974  12.230  12.740
25504SOL     OW78408   2.823   9.604   3.450
25504SOL    HW178409   2.771   9.550   3.509
25504SOL    HW278410   2.824   9.556   3.367
25505SOL     OW78411  14.550   2.458  10.931
25505SOL    HW178412  14.562   2.363  10.935
25505SOL    HW278413  14.538   2.485  11.022
25506SOL     OW78414   7.078  14.765   3.209
25506SOL    HW178415   7.101  14.807   3.292
25506SOL    HW278416   7.155  14.777   3.154
25507SOL     OW78417   7.579   0.898   6.818
25507SOL    HW178418   7.591   0.949   6.738
25507SOL    HW278419   7.634   0.943   6.883
25508SOL     OW78420   0.679  11.815   3.086
25508SOL    HW178421   0.622  11.892   3.085
25508SOL    HW278422   0.628  11.749   3.132
25509SOL     OW78423   0.858  11.280   5.384
25509SOL    HW178424   0.885  11.319   5.301
25509SOL    HW278425   0.808  11.350   5.427
25510SOL     OW78426  13.824  14.121   7.263
25510SOL    HW178427  13.829  14.211   7.294
25510SOL    HW278428  13.749  14.084   7.310
25511SOL     OW78429   1.107   7.104  13.458
25511SOL    HW178430   1.191   7.120  13.502
25511SOL    HW278431   1.126   7.115  13.365
25512SOL     OW78432  11.594   4.073   0.977
25512SOL    HW178433  11.597   4.130   1.054
25512SOL    HW278434  11.670   4.016   0.987
25513SOL     OW78435   2.587   5.991   2.933
25513SOL    HW178436   2.578   5.964   2.841
25513SOL    HW278437   2.498   5.983   2.969
25514SOL     OW78438   9.171  13.247   5.015
25514SOL    HW178439   9.226  13.201   4.951
25514SOL    HW278440   9.234  13.283   5.078
25515SOL     OW78441   2.561   9.176   1.984
25515SOL    HW178442   2.533   9.111   1.919
25515SOL    HW278443   2.523   9.258   1.952
25516SOL     OW78444  14.424   9.297   9.632
25516SOL    HW178445  14.424   9.391   9.614
25516SOL    HW278446  14.462   9.258   9.554
25517SOL     OW78447  14.185  12.983   4.381
25517SOL    HW178448  14.169  12.899   4.423
25517SOL    HW278449  14.253  12.965   4.316
25518SOL     OW78450   5.954   6.698   4.913
25518SOL    HW178451   5.922   6.762   4.976
25518SOL    HW278452   5.935   6.737   4.828
25519SOL     OW78453  13.326  10.706   6.208
25519SOL    HW178454  13.262  10.643   6.242
25519SOL    HW278455  13.276  10.787   6.197
25520SOL     OW78456   1.504   0.515   8.949
25520SOL    HW178457   1.553   0.597   8.943
25520SOL    HW278458   1.552   0.462   9.013
25521SOL     OW78459  12.702   8.040   2.083
25521SOL    HW178460  12.648   8.070   2.010
25521SOL    HW278461  12.754   7.968   2.047
25522SOL     OW78462   9.208   0.091   3.235
25522SOL    HW178463   9.140   0.065   3.174
25522SOL    HW278464   9.279   0.124   3.180
25523SOL     OW78465   6.657   1.671   6.198
25523SOL    HW178466   6.744   1.658   6.162
25523SOL    HW278467   6.672   1.701   6.288
25524SOL     OW78468   2.919   0.513  13.630
25524SOL    HW178469   2.922   0.417  13.630
25524SOL    HW278470   3.006   0.540  13.658
25525SOL     OW78471  10.085   3.307   6.587
25525SOL    HW178472  10.124   3.388   6.554
25525SOL    HW278473  10.082   3.319   6.682
25526SOL     OW78474   1.704  11.860   4.159
25526SOL    HW178475   1.629  11.893   4.109
25526SOL    HW278476   1.780  11.903   4.121
25527SOL     OW78477  14.290  12.422  14.254
25527SOL    HW178478  14.311  12.397  14.164
25527SOL    HW278479  14.371  12.412  14.302
25528SOL     OW78480   3.357   7.343  11.051
25528SOL    HW178481   3.320   7.260  11.082
25528SOL    HW278482   3.450   7.336  11.070
25529SOL     OW78483   3.779   2.096   4.538
25529SOL    HW178484   3.769   2.189   4.558
25529SOL    HW278485   3.700   2.073   4.490
25530SOL     OW78486   4.193  12.700   7.473
25530SOL    HW178487   4.163  12.630   7.415
25530SOL    HW278488   4.144  12.686   7.554
25531SOL     OW78489  12.935   5.588   5.168
25531SOL    HW178490  13.012   5.640   5.145
25531SOL    HW278491  12.968   5.498   5.174
25532SOL     OW78492   5.358   8.526   0.263
25532SOL    HW178493   5.304   8.575   0.201
25532SOL    HW278494   5.414   8.471   0.208
25533SOL     OW78495  14.682   3.451   7.895
25533SOL    HW178496  14.688   3.545   7.881
25533SOL    HW278497  14.748   3.414   7.836
25534SOL     OW78498  13.597   5.503   0.773
25534SOL    HW178499  13.689   5.504   0.798
25534SOL    HW278500  13.594   5.447   0.695
25535SOL     OW78501   8.886   0.618  11.893
25535SOL    HW178502   8.910   0.639  11.983
25535SOL    HW278503   8.959   0.565  11.860
25536SOL     OW78504  11.733   6.399  12.492
25536SOL    HW178505  11.791   6.324  12.495
25536SOL    HW278506  11.652   6.368  12.533
25537SOL     OW78507  12.954  13.989  11.279
25537SOL    HW178508  12.997  13.912  11.319
25537SOL    HW278509  12.872  13.955  11.244
25538SOL     OW78510   9.185   1.266   2.858
25538SOL    HW178511   9.266   1.237   2.899
25538SOL    HW278512   9.192   1.362   2.856
25539SOL     OW78513  10.250   7.502   0.597
25539SOL    HW178514  10.263   7.409   0.576
25539SOL    HW278515  10.260   7.506   0.693
25540SOL     OW78516   2.980  10.538  10.963
25540SOL    HW178517   2.982  10.612  11.023
25540SOL    HW278518   3.034  10.471  11.005
25541SOL     OW78519  14.778   1.861   4.862
25541SOL    HW178520  14.685   1.882   4.867
25541SOL    HW278521  14.818   1.917   4.928
25542SOL     OW78522  14.765   5.014  11.454
25542SOL    HW178523  14.834   4.948  11.444
25542SOL    HW278524  14.711   4.982  11.526
25543SOL     OW78525  13.803   3.406  13.523
25543SOL    HW178526  13.791   3.473  13.456
25543SOL    HW278527  13.749   3.436  13.596
25544SOL     OW78528   0.273   0.449  11.182
25544SOL    HW178529   0.347   0.508  11.198
25544SOL    HW278530   0.313   0.370  11.146
25545SOL     OW78531   6.238  13.090   0.948
25545SOL    HW178532   6.188  13.160   0.906
25545SOL    HW278533   6.254  13.123   1.037
25546SOL     OW78534   1.838   5.504  10.405
25546SOL    HW178535   1.863   5.454  10.483
25546SOL    HW278536   1.896   5.580  10.405
25547SOL     OW78537  10.541  12.409   3.605
25547SOL    HW178538  10.525  12.362   3.523
25547SOL    HW278539  10.503  12.495   3.591
25548SOL     OW78540  12.837   2.717   5.025
25548SOL    HW178541  12.758   2.765   5.050
25548SOL    HW278542  12.834   2.713   4.929
25549SOL     OW78543   1.788  10.657  11.124
25549SOL    HW178544   1.748  10.571  11.115
25549SOL    HW278545   1.828  10.675  11.039
25550SOL     OW78546   1.492  11.073   3.248
25550SOL    HW178547   1.569  11.126   3.269
25550SOL    HW278548   1.528  10.989   3.218
25551SOL     OW78549   9.626   3.170   8.484
25551SOL    HW178550   9.579   3.123   8.414
25551SOL    HW278551   9.567   3.165   8.559
25552SOL     OW78552  13.894  11.834   7.379
25552SOL    HW178553  13.973  11.790   7.345
25552SOL    HW278554  13.917  11.860   7.468
25553SOL     OW78555   8.390   4.579   5.936
25553SOL    HW178556   8.338   4.544   6.008
25553SOL    HW278557   8.349   4.543   5.857
25554SOL     OW78558   6.089   2.543   4.851
25554SOL    HW178559   6.148   2.518   4.922
25554SOL    HW278560   6.106   2.479   4.782
25555SOL     OW78561  11.200   0.584   2.144
25555SOL    HW178562  11.152   0.505   2.118
25555SOL    HW278563  11.200   0.639   2.065
25556SOL     OW78564   8.388  10.143   4.660
25556SOL    HW178565   8.360  10.211   4.598
25556SOL    HW278566   8.410  10.191   4.739
25557SOL     OW78567   4.969   0.455   5.784
25557SOL    HW178568   5.009   0.401   5.716
25557SOL    HW278569   4.928   0.528   5.737
25558SOL     OW78570  11.876  11.225   4.024
25558SOL    HW178571  11.787  11.232   4.059
25558SOL    HW278572  11.865  11.194   3.935
25559SOL     OW78573   3.574  13.326   1.666
25559SOL    HW178574   3.625  13.249   1.641
25559SOL    HW278575   3.559  13.373   1.584
25560SOL     OW78576  13.447   9.844  13.618
25560SOL    HW178577  13.414   9.834  13.707
25560SOL    HW278578  13.480   9.934  13.615
25561SOL     OW78579   8.573  10.692  13.385
25561SOL    HW178580   8.563  10.682  13.291
25561SOL    HW278581   8.539  10.780  13.404
25562SOL     OW78582   9.643   8.121   9.598
25562SOL    HW178583   9.604   8.037   9.577
25562SOL    HW278584   9.586   8.158   9.665
25563SOL     OW78585   9.923   0.212   1.711
25563SOL    HW178586   9.876   0.245   1.788
25563SOL    HW278587   9.954   0.291   1.667
25564SOL     OW78588   2.929  10.151   4.295
25564SOL    HW178589   2.902  10.239   4.322
25564SOL    HW278590   2.993  10.166   4.225
25565SOL     OW78591   4.716   3.411   7.383
25565SOL    HW178592   4.665   3.434   7.460
25565SOL    HW278593   4.730   3.494   7.338
25566SOL     OW78594   2.094   3.209   0.537
25566SOL    HW178595   2.023   3.216   0.473
25566SOL    HW278596   2.174   3.212   0.484
25567SOL     OW78597  14.827   6.399  14.585
25567SOL    HW178598  14.834   6.331  14.651
25567SOL    HW278599  14.846   6.480  14.632
25568SOL     OW78600   1.954   4.816  10.311
25568SOL    HW178601   2.035   4.804  10.361
25568SOL    HW278602   1.890   4.844  10.376
25569SOL     OW78603  11.981   1.659  11.141
25569SOL    HW178604  11.980   1.751  11.165
25569SOL    HW278605  12.057   1.623  11.187
25570SOL     OW78606   7.813  13.223   0.095
25570SOL    HW178607   7.757  13.235   0.172
25570SOL    HW278608   7.898  13.199   0.131
25571SOL     OW78609   9.755   9.322  12.931
25571SOL    HW178610   9.746   9.335  12.836
25571SOL    HW278611   9.790   9.405  12.963
25572SOL     OW78612   9.191   3.813   7.277
25572SOL    HW178613   9.122   3.759   7.316
25572SOL    HW278614   9.148   3.857   7.203
25573SOL     OW78615  11.592   2.044   0.461
25573SOL    HW178616  11.523   1.982   0.436
25573SOL    HW278617  11.657   1.990   0.506
25574SOL     OW78618   3.178  11.372  12.724
25574SOL    HW178619   3.132  11.367  12.808
25574SOL    HW278620   3.269  11.390  12.747
25575SOL     OW78621   4.043   7.733  14.239
25575SOL    HW178622   4.124   7.769  14.275
25575SOL    HW278623   3.991   7.811  14.216
25576SOL     OW78624  11.909   1.457  13.008
25576SOL    HW178625  11.853   1.402  13.064
25576SOL    HW278626  11.890   1.546  13.037
25577SOL     OW78627   5.490   2.774  11.690
25577SOL    HW178628   5.407   2.822  11.681
25577SOL    HW278629   5.527   2.773  11.602
25578SOL     OW78630   0.906  13.411   6.383
25578SOL    HW178631   0.830  13.360   6.412
25578SOL    HW278632   0.942  13.360   6.310
25579SOL     OW78633   6.860   1.124  12.783
25579SOL    HW178634   6.930   1.091  12.726
25579SOL    HW278635   6.897   1.119  12.871
25580SOL     OW78636   6.718  13.330  13.199
25580SOL    HW178637   6.684  13.362  13.282
25580SOL    HW278638   6.779  13.261  13.224
25581SOL     OW78639   0.076  13.377  11.241
25581SOL    HW178640   0.128  13.310  11.285
25581SOL    HW278641  14.875  13.380  11.292
25582SOL     OW78642  13.787   3.076  10.976
25582SOL    HW178643  13.714   3.013  10.978
25582SOL    HW278644  13.754   3.152  11.025
25583SOL     OW78645  13.448   4.353  10.355
25583SOL    HW178646  13.413   4.314  10.274
25583SOL    HW278647  13.370   4.379  10.403
25584SOL     OW78648   6.826   2.629   9.897
25584SOL    HW178649   6.841   2.613   9.804
25584SOL    HW278650   6.908   2.668   9.927
25585SOL     OW78651  11.166  11.871   2.389
25585SOL    HW178652  11.134  11.872   2.479
25585SOL    HW278653  11.133  11.952   2.351
25586SOL     OW78654   0.965   6.036   9.959
25586SOL    HW178655   1.003   5.998  10.038
25586SOL    HW278656   1.034   6.030   9.893
25587SOL     OW78657   1.723  14.367   0.968
25587SOL    HW178658   1.698  14.275   0.975
25587SOL    HW278659   1.758  14.376   0.880
25588SOL     OW78660   0.654   7.129  13.915
25588SOL    HW178661   0.737   7.174  13.897
25588SOL    HW278662   0.589   7.199  13.919
25589SOL     OW78663  12.727   0.259   2.093
25589SOL    HW178664  12.729   0.268   1.998
25589SOL    HW278665  12.636   0.234   2.113
25590SOL     OW78666   6.872   1.428   8.132
25590SOL    HW178667   6.939   1.495   8.119
25590SOL    HW278668   6.892   1.391   8.219
25591SOL     OW78669   1.071   9.817   3.432
25591SOL    HW178670   1.150   9.765   3.447
25591SOL    HW278671   1.102   9.906   3.420
25592SOL     OW78672   5.106   9.598   0.350
25592SOL    HW178673   5.051   9.650   0.408
25592SOL    HW278674   5.195   9.616   0.380
25593SOL     OW78675   6.510  11.961   3.126
25593SOL    HW178676   6.491  11.908   3.204
25593SOL    HW278677   6.459  12.040   3.137
25594SOL     OW78678  14.396   5.915   0.577
25594SOL    HW178679  14.406   5.863   0.497
25594SOL    HW278680  14.375   5.851   0.645
25595SOL     OW78681  10.883   1.609   0.324
25595SOL    HW178682  10.799   1.615   0.277
25595SOL    HW278683  10.949   1.618   0.255
25596SOL     OW78684   3.087  10.308  11.048
25596SOL    HW178685   3.081  10.224  11.003
25596SOL    HW278686   3.181  10.322  11.060
25597SOL     OW78687  10.737   5.998   3.474
25597SOL    HW178688  10.742   5.902   3.473
25597SOL    HW278689  10.716   6.020   3.564
25598SOL     OW78690   0.974  14.763   1.782
25598SOL    HW178691   0.939  14.674   1.780
25598SOL    HW278692   0.897  14.819   1.780
25599SOL     OW78693   7.490   1.741  14.330
25599SOL    HW178694   7.566   1.744  14.271
25599SOL    HW278695   7.427   1.802  14.291
25600SOL     OW78696  12.131  10.362  13.324
25600SOL    HW178697  12.219  10.326  13.307
25600SOL    HW278698  12.083  10.345  13.243
25601SOL     OW78699  10.125   1.482   8.695
25601SOL    HW178700  10.138   1.387   8.703
25601SOL    HW278701  10.203   1.520   8.736
25602SOL     OW78702   2.367  12.828   8.867
25602SOL    HW178703   2.428  12.838   8.794
25602SOL    HW278704   2.303  12.899   8.855
25603SOL     OW78705   2.712  11.748   5.573
25603SOL    HW178706   2.662  11.829   5.565
25603SOL    HW278707   2.803  11.775   5.560
25604SOL     OW78708  10.602   2.987   1.989
25604SOL    HW178709  10.665   2.985   2.061
25604SOL    HW278710  10.621   2.908   1.939
25605SOL     OW78711   8.235   5.990   7.619
25605SOL    HW178712   8.304   5.953   7.564
25605SOL    HW278713   8.252   5.954   7.706
25606SOL     OW78714   0.976   2.881   5.688
25606SOL    HW178715   0.887   2.915   5.675
25606SOL    HW278716   1.031   2.938   5.635
25607SOL     OW78717  11.951   2.249  14.847
25607SOL    HW178718  11.893   2.291  14.784
25607SOL    HW278719  12.004   2.188  14.796
25608SOL     OW78720  10.204   6.635   0.684
25608SOL    HW178721  10.172   6.596   0.602
25608SOL    HW278722  10.126   6.673   0.724
25609SOL     OW78723   6.723  13.428  14.644
25609SOL    HW178724   6.808  13.432  14.688
25609SOL    HW278725   6.690  13.517  14.647
25610SOL     OW78726   3.529   1.700   8.566
25610SOL    HW178727   3.442   1.735   8.546
25610SOL    HW278728   3.568   1.764   8.625
25611SOL     OW78729   1.252   9.626  13.371
25611SOL    HW178730   1.347   9.633  13.379
25611SOL    HW278731   1.232   9.668  13.287
25612SOL     OW78732  14.274   2.416  12.559
25612SOL    HW178733  14.302   2.379  12.643
25612SOL    HW278734  14.288   2.511  12.570
25613SOL     OW78735   1.854   3.205   2.280
25613SOL    HW178736   1.802   3.138   2.324
25613SOL    HW278737   1.793   3.278   2.267
25614SOL     OW78738   6.378  12.521   6.551
25614SOL    HW178739   6.458  12.540   6.501
25614SOL    HW278740   6.400  12.541   6.642
25615SOL     OW78741   8.130   8.547  14.421
25615SOL    HW178742   8.185   8.625  14.431
25615SOL    HW278743   8.076   8.565  14.345
25616SOL     OW78744  11.660  14.061   7.574
25616SOL    HW178745  11.709  13.985   7.543
25616SOL    HW278746  11.719  14.135   7.560
25617SOL     OW78747   2.328   8.392   0.544
25617SOL    HW178748   2.309   8.307   0.584
25617SOL    HW278749   2.303   8.456   0.612
25618SOL     OW78750   0.863  11.255   9.748
25618SOL    HW178751   0.809  11.335   9.746
25618SOL    HW278752   0.947  11.285   9.782
25619SOL     OW78753  10.531   8.521   7.528
25619SOL    HW178754  10.474   8.596   7.544
25619SOL    HW278755  10.558   8.529   7.437
25620SOL     OW78756   2.271   2.511   8.074
25620SOL    HW178757   2.245   2.576   8.009
25620SOL    HW278758   2.365   2.498   8.059
25621SOL     OW78759   4.160   9.026   6.889
25621SOL    HW178760   4.231   9.070   6.844
25621SOL    HW278761   4.203   8.972   6.955
25622SOL     OW78762  10.480   1.617   8.042
25622SOL    HW178763  10.488   1.532   8.085
25622SOL    HW278764  10.527   1.678   8.099
25623SOL     OW78765   8.888   7.179   7.692
25623SOL    HW178766   8.937   7.097   7.687
25623SOL    HW278767   8.874   7.204   7.600
25624SOL     OW78768   4.229   6.694  13.901
25624SOL    HW178769   4.150   6.681  13.848
25624SOL    HW278770   4.215   6.639  13.978
25625SOL     OW78771  13.988   0.206  12.784
25625SOL    HW178772  14.006   0.299  12.795
25625SOL    HW278773  13.949   0.180  12.867
25626SOL     OW78774  13.913   0.548  11.931
25626SOL    HW178775  13.861   0.472  11.959
25626SOL    HW278776  14.003   0.515  11.926
25627SOL     OW78777   7.481   7.200   9.274
25627SOL    HW178778   7.471   7.292   9.301
25627SOL    HW278779   7.522   7.158   9.349
25628SOL     OW78780   5.459   4.689   7.442
25628SOL    HW178781   5.377   4.662   7.482
25628SOL    HW278782   5.484   4.769   7.489
25629SOL     OW78783   0.280   0.742   8.631
25629SOL    HW178784   0.345   0.775   8.569
25629SOL    HW278785   0.320   0.662   8.668
25630SOL     OW78786   1.359   4.160   0.321
25630SOL    HW178787   1.313   4.177   0.239
25630SOL    HW278788   1.374   4.066   0.321
25631SOL     OW78789   3.164   9.028   9.133
25631SOL    HW178790   3.251   9.005   9.166
25631SOL    HW278791   3.116   8.945   9.133
25632SOL     OW78792   3.806   6.701   5.895
25632SOL    HW178793   3.788   6.666   5.982
25632SOL    HW278794   3.759   6.642   5.835
25633SOL     OW78795   4.559  12.121   0.055
25633SOL    HW178796   4.509  12.056   0.006
25633SOL    HW278797   4.584  12.076   0.136
25634SOL     OW78798   9.703   1.099   8.367
25634SOL    HW178799   9.748   1.126   8.447
25634SOL    HW278800   9.650   1.174   8.342
25635SOL     OW78801   6.505   4.229   5.147
25635SOL    HW178802   6.571   4.253   5.212
25635SOL    HW278803   6.556   4.201   5.071
25636SOL     OW78804   8.509  11.913  14.371
25636SOL    HW178805   8.593  11.902  14.415
25636SOL    HW278806   8.461  11.975  14.426
25637SOL     OW78807  13.139   7.404   3.429
25637SOL    HW178808  13.084   7.434   3.500
25637SOL    HW278809  13.158   7.312   3.450
25638SOL     OW78810  10.007  11.103   7.649
25638SOL    HW178811   9.996  11.167   7.578
25638SOL    HW278812   9.934  11.042   7.638
25639SOL     OW78813  13.853  13.668  11.116
25639SOL    HW178814  13.864  13.574  11.130
25639SOL    HW278815  13.890  13.683  11.029
25640SOL     OW78816  11.647   1.089   7.221
25640SOL    HW178817  11.622   1.005   7.183
25640SOL    HW278818  11.572   1.115   7.275
25641SOL     OW78819   6.103   8.106   6.433
25641SOL    HW178820   6.088   8.027   6.484
25641SOL    HW278821   6.080   8.082   6.343
25642SOL     OW78822   9.719  14.697  10.145
25642SOL    HW178823   9.681  14.764  10.202
25642SOL    HW278824   9.644  14.643  10.119
25643SOL     OW78825  10.720  11.095  12.786
25643SOL    HW178826  10.645  11.125  12.735
25643SOL    HW278827  10.694  11.108  12.877
25644SOL     OW78828   8.399   3.622  13.608
25644SOL    HW178829   8.361   3.682  13.672
25644SOL    HW278830   8.348   3.541  13.618
25645SOL     OW78831   0.478   7.279   8.288
25645SOL    HW178832   0.483   7.294   8.382
25645SOL    HW278833   0.392   7.238   8.275
25646SOL     OW78834   7.090   5.968   1.353
25646SOL    HW178835   7.137   6.013   1.282
25646SOL    HW278836   7.033   6.035   1.390
25647SOL     OW78837   6.750   1.423   4.281
25647SOL    HW178838   6.655   1.422   4.292
25647SOL    HW278839   6.763   1.411   4.187
25648SOL     OW78840   9.773   1.272  10.298
25648SOL    HW178841   9.699   1.214  10.281
25648SOL    HW278842   9.850   1.221  10.273
25649SOL     OW78843  12.573   7.807   9.433
25649SOL    HW178844  12.504   7.838   9.492
25649SOL    HW278845  12.559   7.713   9.426
25650SOL     OW78846  11.239  10.378  11.432
25650SOL    HW178847  11.154  10.334  11.433
25650SOL    HW278848  11.218  10.469  11.408
25651SOL     OW78849  14.435   6.374  11.738
25651SOL    HW178850  14.414   6.451  11.686
25651SOL    HW278851  14.528   6.384  11.759
25652SOL     OW78852  11.546   9.613  10.416
25652SOL    HW178853  11.477   9.679  10.410
25652SOL    HW278854  11.521   9.547  10.350
25653SOL     OW78855   4.186   4.932   9.573
25653SOL    HW178856   4.095   4.937   9.603
25653SOL    HW278857   4.225   5.015   9.599
25654SOL     OW78858   9.539   9.316   5.900
25654SOL    HW178859   9.489   9.338   5.821
25654SOL    HW278860   9.578   9.399   5.928
25655SOL     OW78861  12.949   3.811   7.774
25655SOL    HW178862  13.008   3.876   7.811
25655SOL    HW278863  12.873   3.861   7.745
25656SOL     OW78864   2.432   5.482   5.476
25656SOL    HW178865   2.413   5.570   5.444
25656SOL    HW278866   2.372   5.425   5.429
25657SOL     OW78867  14.678   8.662  10.855
25657SOL    HW178868  14.652   8.752  10.832
25657SOL    HW278869  14.603   8.627  10.902
25658SOL     OW78870   2.897  12.278  11.480
25658SOL    HW178871   2.963  12.210  11.491
25658SOL    HW278872   2.911  12.311  11.392
25659SOL     OW78873   8.373   8.442  12.162
25659SOL    HW178874   8.447   8.488  12.125
25659SOL    HW278875   8.325   8.509  12.212
25660SOL     OW78876   0.111   8.971  13.643
25660SOL    HW178877   0.084   8.880  13.648
25660SOL    HW278878   0.032   9.019  13.617
25661SOL     OW78879   2.908  10.837   4.027
25661SOL    HW178880   2.861  10.920   4.022
25661SOL    HW278881   2.984  10.856   4.082
25662SOL     OW78882   8.199  14.531   9.266
25662SOL    HW178883   8.288  14.505   9.291
25662SOL    HW278884   8.211  14.585   9.188
25663SOL     OW78885   3.302   2.165  11.424
25663SOL    HW178886   3.325   2.157  11.332
25663SOL    HW278887   3.312   2.258  11.443
25664SOL     OW78888   7.155   2.606  13.432
25664SOL    HW178889   7.247   2.634  13.430
25664SOL    HW278890   7.143   2.568  13.520
25665SOL     OW78891  11.867  13.296   6.094
25665SOL    HW178892  11.936  13.256   6.042
25665SOL    HW278893  11.908  13.373   6.133
25666SOL     OW78894   7.272   0.486   3.237
25666SOL    HW178895   7.216   0.457   3.309
25666SOL    HW278896   7.233   0.569   3.208
25667SOL     OW78897   1.541  12.161  14.363
25667SOL    HW178898   1.592  12.237  14.390
25667SOL    HW278899   1.588  12.086  14.401
25668SOL     OW78900   1.745   2.815   7.824
25668SOL    HW178901   1.724   2.884   7.887
25668SOL    HW278902   1.837   2.795   7.840
25669SOL     OW78903   7.734   5.586  12.132
25669SOL    HW178904   7.750   5.519  12.199
25669SOL    HW278905   7.749   5.541  12.049
25670SOL     OW78906   5.626   0.483   3.167
25670SOL    HW178907   5.686   0.527   3.106
25670SOL    HW278908   5.604   0.401   3.124
25671SOL     OW78909   3.014  14.717  10.385
25671SOL    HW178910   2.947  14.723  10.318
25671SOL    HW278911   3.091  14.759  10.347
25672SOL     OW78912   5.321   1.541  11.598
25672SOL    HW178913   5.370   1.489  11.534
25672SOL    HW278914   5.251   1.482  11.627
25673SOL     OW78915   6.214  11.091   4.225
25673SOL    HW178916   6.191  11.044   4.304
25673SOL    HW278917   6.140  11.150   4.209
25674SOL     OW78918   3.154   9.227   3.107
25674SOL    HW178919   3.210   9.284   3.053
25674SOL    HW278920   3.131   9.281   3.182
25675SOL     OW78921   5.672   4.968   5.000
25675SOL    HW178922   5.728   4.894   4.977
25675SOL    HW278923   5.603   4.967   4.934
25676SOL     OW78924   9.292   0.757   7.623
25676SOL    HW178925   9.210   0.766   7.575
25676SOL    HW278926   9.306   0.662   7.628
25677SOL     OW78927   8.835   0.893   0.805
25677SOL    HW178928   8.872   0.876   0.891
25677SOL    HW278929   8.789   0.811   0.782
25678SOL     OW78930  13.364  13.468  11.150
25678SOL    HW178931  13.421  13.540  11.124
25678SOL    HW278932  13.276  13.501  11.133
25679SOL     OW78933   0.076   3.716   8.045
25679SOL    HW178934   0.107   3.804   8.067
25679SOL    HW278935   0.128   3.691   7.969
25680SOL     OW78936  11.608   6.630   7.333
25680SOL    HW178937  11.620   6.535   7.340
25680SOL    HW278938  11.542   6.639   7.264
25681SOL     OW78939  12.319   4.006   3.628
25681SOL    HW178940  12.323   3.964   3.714
25681SOL    HW278941  12.408   4.002   3.595
25682SOL     OW78942   6.603   7.823   9.725
25682SOL    HW178943   6.696   7.811   9.705
25682SOL    HW278944   6.561   7.833   9.640
25683SOL     OW78945   7.342   4.065   8.256
25683SOL    HW178946   7.433   4.057   8.226
25683SOL    HW278947   7.330   4.158   8.271
25684SOL     OW78948  10.084   6.803  11.295
25684SOL    HW178949  10.042   6.835  11.215
25684SOL    HW278950  10.151   6.868  11.314
25685SOL     OW78951   9.969   3.464   3.537
25685SOL    HW178952   9.946   3.385   3.488
25685SOL    HW278953   9.940   3.536   3.481
25686SOL     OW78954   8.938   7.659  13.473
25686SOL    HW178955   9.033   7.651  13.472
25686SOL    HW278956   8.922   7.750  13.498
25687SOL     OW78957   7.403   8.643   2.961
25687SOL    HW178958   7.402   8.735   2.932
25687SOL    HW278959   7.487   8.609   2.929
25688SOL     OW78960  11.012   0.806   0.469
25688SOL    HW178961  11.095   0.852   0.480
25688SOL    HW278962  11.009   0.787   0.375
25689SOL     OW78963   0.528   1.030   2.796
25689SOL    HW178964   0.480   1.066   2.721
25689SOL    HW278965   0.614   1.006   2.759
25690SOL     OW78966   7.367   8.971   4.401
25690SOL    HW178967   7.424   8.994   4.327
25690SOL    HW278968   7.334   9.055   4.432
25691SOL     OW78969  14.190   4.833   7.257
25691SOL    HW178970  14.133   4.892   7.305
25691SOL    HW278971  14.168   4.847   7.165
25692SOL     OW78972   0.399  10.145   3.400
25692SOL    HW178973   0.427  10.196   3.476
25692SOL    HW278974   0.445  10.062   3.409
25693SOL     OW78975   4.219   6.545  11.759
25693SOL    HW178976   4.179   6.467  11.722
25693SOL    HW278977   4.313   6.531  11.749
25694SOL     OW78978   8.974  11.988   4.893
25694SOL    HW178979   9.027  11.930   4.839
25694SOL    HW278980   8.883  11.967   4.871
25695SOL     OW78981   5.909   8.633   5.748
25695SOL    HW178982   5.984   8.621   5.690
25695SOL    HW278983   5.856   8.554   5.734
25696SOL     OW78984   7.948   6.253   8.177
25696SOL    HW178985   7.970   6.253   8.270
25696SOL    HW278986   8.031   6.264   8.132
25697SOL     OW78987   0.563   9.145  13.568
25697SOL    HW178988   0.607   9.216  13.615
25697SOL    HW278989   0.505   9.105  13.633
25698SOL     OW78990   1.016   2.846   4.454
25698SOL    HW178991   0.956   2.787   4.500
25698SOL    HW278992   0.965   2.879   4.380
25699SOL     OW78993  13.099   0.745   1.250
25699SOL    HW178994  13.044   0.701   1.185
25699SOL    HW278995  13.070   0.837   1.247
25700SOL     OW78996   9.865   1.357  14.666
25700SOL    HW178997   9.805   1.424  14.698
25700SOL    HW278998   9.813   1.304  14.606
25701SOL     OW78999   7.745  13.381   4.534
25701SOL    HW179000   7.701  13.395   4.618
25701SOL    HW279001   7.799  13.303   4.548
25702SOL     OW79002  10.424   7.985   6.220
25702SOL    HW179003  10.414   7.900   6.176
25702SOL    HW279004  10.429   8.048   6.149
25703SOL     OW79005   2.614   4.264   5.855
25703SOL    HW179006   2.553   4.294   5.922
25703SOL    HW279007   2.578   4.180   5.826
25704SOL     OW79008   2.420  12.103   6.066
25704SOL    HW179009   2.477  12.107   6.143
25704SOL    HW279010   2.333  12.126   6.099
25705SOL     OW79011  13.915  11.521  14.531
25705SOL    HW179012  13.865  11.514  14.450
25705SOL    HW279013  13.980  11.590  14.514
25706SOL     OW79014   0.601   3.219   8.679
25706SOL    HW179015   0.558   3.137   8.704
25706SOL    HW279016   0.556   3.286   8.730
25707SOL     OW79017  10.925  10.969  12.304
25707SOL    HW179018  10.844  10.986  12.352
25707SOL    HW279019  10.992  11.020  12.350
25708SOL     OW79020   7.343   9.424  11.659
25708SOL    HW179021   7.335   9.386  11.571
25708SOL    HW279022   7.254   9.447  11.684
25709SOL     OW79023   3.081  13.225   4.035
25709SOL    HW179024   3.166  13.228   4.078
25709SOL    HW279025   3.019  13.252   4.103
25710SOL     OW79026   6.772   4.675   9.543
25710SOL    HW179027   6.791   4.676   9.636
25710SOL    HW279028   6.690   4.626   9.535
25711SOL     OW79029   4.182   3.253   4.441
25711SOL    HW179030   4.240   3.250   4.365
25711SOL    HW279031   4.109   3.309   4.414
25712SOL     OW79032   3.355  11.049   8.904
25712SOL    HW179033   3.345  11.046   8.809
25712SOL    HW279034   3.276  11.008   8.938
25713SOL     OW79035   3.823   1.095   0.432
25713SOL    HW179036   3.876   1.026   0.392
25713SOL    HW279037   3.840   1.173   0.380
25714SOL     OW79038   7.191   4.470   0.157
25714SOL    HW179039   7.162   4.483   0.067
25714SOL    HW279040   7.252   4.543   0.173
25715SOL     OW79041  11.189   8.400  11.062
25715SOL    HW179042  11.247   8.378  10.989
25715SOL    HW279043  11.248   8.410  11.137
25716SOL     OW79044  12.254   6.200  10.211
25716SOL    HW179045  12.228   6.174  10.299
25716SOL    HW279046  12.346   6.228  10.221
25717SOL     OW79047   5.757  10.377   8.708
25717SOL    HW179048   5.698  10.325   8.654
25717SOL    HW279049   5.824  10.409   8.648
25718SOL     OW79050   7.151   7.201   9.395
25718SOL    HW179051   7.215   7.158   9.339
25718SOL    HW279052   7.176   7.176   9.484
25719SOL     OW79053   5.606  11.134   5.269
25719SOL    HW179054   5.604  11.197   5.197
25719SOL    HW279055   5.574  11.052   5.231
25720SOL     OW79056   9.542   7.151   3.673
25720SOL    HW179057   9.577   7.082   3.617
25720SOL    HW279058   9.539   7.111   3.760
25721SOL     OW79059  13.096   7.755  12.795
25721SOL    HW179060  13.063   7.841  12.821
25721SOL    HW279061  13.031   7.721  12.733
25722SOL     OW79062   3.623   0.825  14.011
25722SOL    HW179063   3.691   0.775  14.056
25722SOL    HW279064   3.628   0.912  14.049
25723SOL     OW79065   8.969  11.757   0.232
25723SOL    HW179066   8.922  11.734   0.313
25723SOL    HW279067   8.996  11.673   0.195
25724SOL     OW79068  14.424   1.140   5.838
25724SOL    HW179069  14.383   1.118   5.754
25724SOL    HW279070  14.385   1.224   5.862
25725SOL     OW79071   6.833   4.784   5.887
25725SOL    HW179072   6.823   4.855   5.824
25725SOL    HW279073   6.828   4.827   5.972
25726SOL     OW79074  10.606  12.079   6.824
25726SOL    HW179075  10.666  12.043   6.889
25726SOL    HW279076  10.524  12.032   6.839
25727SOL     OW79077  14.508  10.545  10.252
25727SOL    HW179078  14.461  10.518  10.331
25727SOL    HW279079  14.530  10.463  10.208
25728SOL     OW79080   7.820   8.748   8.184
25728SOL    HW179081   7.862   8.698   8.113
25728SOL    HW279082   7.747   8.793   8.141
25729SOL     OW79083   8.138   0.200  11.278
25729SOL    HW179084   8.151   0.278  11.331
25729SOL    HW279085   8.191   0.214  11.200
25730SOL     OW79086   9.771   6.916   7.580
25730SOL    HW179087   9.741   6.851   7.644
25730SOL    HW279088   9.730   6.998   7.608
25731SOL     OW79089   8.183   4.946  11.567
25731SOL    HW179090   8.271   4.948  11.606
25731SOL    HW279091   8.188   4.881  11.498
25732SOL     OW79092  10.063   4.713  14.447
25732SOL    HW179093  10.015   4.775  14.392
25732SOL    HW279094  10.154   4.741  14.439
25733SOL     OW79095  14.198   1.971   7.111
25733SOL    HW179096  14.177   1.962   7.018
25733SOL    HW279097  14.269   1.908   7.125
25734SOL     OW79098   4.578   1.901   9.355
25734SOL    HW179099   4.483   1.917   9.358
25734SOL    HW279100   4.615   1.970   9.411
25735SOL     OW79101   3.007   5.734   8.227
25735SOL    HW179102   3.069   5.805   8.242
25735SOL    HW279103   3.061   5.656   8.219
25736SOL     OW79104   1.012   5.678  11.238
25736SOL    HW179105   1.105   5.655  11.242
25736SOL    HW279106   1.006   5.742  11.168
25737SOL     OW79107  13.080  11.188  12.214
25737SOL    HW179108  13.036  11.142  12.286
25737SOL    HW279109  13.170  11.200  12.245
25738SOL     OW79110   3.562  12.700  12.705
25738SOL    HW179111   3.562  12.695  12.609
25738SOL    HW279112   3.548  12.610  12.734
25739SOL     OW79113   6.864  13.093  14.686
25739SOL    HW179114   6.771  13.106  14.669
25739SOL    HW279115   6.902  13.074  14.601
25740SOL     OW79116  10.235   8.639   7.211
25740SOL    HW179117  10.161   8.658   7.269
25740SOL    HW279118  10.272   8.559   7.247
25741SOL     OW79119  11.653  13.000  13.314
25741SOL    HW179120  11.705  12.980  13.236
25741SOL    HW279121  11.599  12.923  13.328
25742SOL     OW79122  14.434   5.544  10.023
25742SOL    HW179123  14.353   5.506  10.055
25742SOL    HW279124  14.456   5.492   9.945
25743SOL     OW79125   9.201   5.635   6.549
25743SOL    HW179126   9.281   5.652   6.599
25743SOL    HW279127   9.221   5.559   6.495
25744SOL     OW79128   2.164  11.616  12.968
25744SOL    HW179129   2.211  11.697  12.946
25744SOL    HW279130   2.092  11.613  12.906
25745SOL     OW79131  10.278   4.434   6.237
25745SOL    HW179132  10.327   4.379   6.298
25745SOL    HW279133  10.333   4.438   6.159
25746SOL     OW79134   7.734  10.012  13.612
25746SOL    HW179135   7.788  10.079  13.654
25746SOL    HW279136   7.748   9.933  13.664
25747SOL     OW79137   3.960  13.326   6.985
25747SOL    HW179138   4.014  13.404   6.970
25747SOL    HW279139   3.920  13.309   6.900
25748SOL     OW79140  13.104   2.150  12.401
25748SOL    HW179141  13.107   2.156  12.497
25748SOL    HW279142  13.100   2.057  12.383
25749SOL     OW79143  10.688   3.120   3.525
25749SOL    HW179144  10.652   3.200   3.485
25749SOL    HW279145  10.643   3.049   3.480
25750SOL     OW79146  12.749   4.588  11.200
25750SOL    HW179147  12.766   4.640  11.122
25750SOL    HW279148  12.753   4.651  11.272
25751SOL     OW79149  12.080   9.718   1.453
25751SOL    HW179150  12.153   9.657   1.462
25751SOL    HW279151  12.022   9.698   1.526
25752SOL     OW79152   2.263   4.908   0.975
25752SOL    HW179153   2.255   5.003   0.968
25752SOL    HW279154   2.357   4.891   0.971
25753SOL     OW79155  12.489   8.721  11.845
25753SOL    HW179156  12.552   8.770  11.792
25753SOL    HW279157  12.404   8.762  11.825
25754SOL     OW79158   1.929  14.457  14.580
25754SOL    HW179159   1.865  14.513  14.535
25754SOL    HW279160   2.013  14.484  14.543
25755SOL     OW79161   3.070   2.074  14.613
25755SOL    HW179162   3.120   2.016  14.555
25755SOL    HW279163   3.020   2.130  14.554
25756SOL     OW79164   2.083   9.035   4.928
25756SOL    HW179165   2.080   8.969   4.998
25756SOL    HW279166   2.015   9.006   4.866
25757SOL     OW79167   0.185  13.037   2.166
25757SOL    HW179168   0.252  13.035   2.098
25757SOL    HW279169   0.225  13.086   2.238
25758SOL     OW79170  14.077   5.544   7.092
25758SOL    HW179171  14.169   5.522   7.083
25758SOL    HW279172  14.051   5.506   7.176
25759SOL     OW79173   5.094   2.133   0.492
25759SOL    HW179174   5.081   2.046   0.455
25759SOL    HW279175   5.147   2.179   0.428
25760SOL     OW79176   5.840  14.820   8.939
25760SOL    HW179177   5.847  14.746   9.000
25760SOL    HW279178   5.893   0.009   8.979
25761SOL     OW79179  11.598   7.124   5.553
25761SOL    HW179180  11.525   7.069   5.522
25761SOL    HW279181  11.675   7.088   5.509
25762SOL     OW79182   8.078   2.937   3.796
25762SOL    HW179183   8.104   2.908   3.883
25762SOL    HW279184   8.119   2.875   3.736
25763SOL     OW79185   9.259   1.695   2.597
25763SOL    HW179186   9.309   1.728   2.523
25763SOL    HW279187   9.225   1.610   2.568
25764SOL     OW79188   8.630   4.001  11.992
25764SOL    HW179189   8.721   4.017  12.015
25764SOL    HW279190   8.632   3.976  11.899
25765SOL     OW79191   8.452   1.628   0.120
25765SOL    HW179192   8.487   1.624   0.209
25765SOL    HW279193   8.439   1.536   0.095
25766SOL     OW79194  14.755   7.702  14.415
25766SOL    HW179195  14.661   7.696  14.433
25766SOL    HW279196  14.782   7.783  14.456
25767SOL     OW79197  14.413   0.719  10.612
25767SOL    HW179198  14.505   0.719  10.587
25767SOL    HW279199  14.367   0.688  10.534
25768SOL     OW79200   6.584   6.623   9.366
25768SOL    HW179201   6.567   6.630   9.460
25768SOL    HW279202   6.517   6.678   9.326
25769SOL     OW79203  13.083  11.932  12.947
25769SOL    HW179204  13.024  11.952  12.874
25769SOL    HW279205  13.036  11.865  12.997
25770SOL     OW79206   7.234  10.095  10.641
25770SOL    HW179207   7.149  10.119  10.603
25770SOL    HW279208   7.219  10.099  10.736
25771SOL     OW79209  14.477  13.946   0.783
25771SOL    HW179210  14.508  13.860   0.811
25771SOL    HW279211  14.520  13.961   0.699
25772SOL     OW79212   1.589   5.134   7.661
25772SOL    HW179213   1.559   5.124   7.751
25772SOL    HW279214   1.651   5.063   7.648
25773SOL     OW79215   1.426   7.314   3.495
25773SOL    HW179216   1.403   7.228   3.459
25773SOL    HW279217   1.494   7.294   3.561
25774SOL     OW79218  10.309  10.922   3.072
25774SOL    HW179219  10.247  10.878   3.129
25774SOL    HW279220  10.394  10.906   3.112
25775SOL     OW79221   3.668   2.874  12.696
25775SOL    HW179222   3.679   2.954  12.748
25775SOL    HW279223   3.578   2.880  12.663
25776SOL     OW79224  13.963  13.162   1.433
25776SOL    HW179225  14.022  13.231   1.464
25776SOL    HW279226  14.007  13.081   1.456
25777SOL     OW79227   9.414   8.322   1.142
25777SOL    HW179228   9.401   8.415   1.162
25777SOL    HW279229   9.398   8.277   1.225
25778SOL     OW79230   3.744   8.487   0.799
25778SOL    HW179231   3.710   8.507   0.712
25778SOL    HW279232   3.828   8.444   0.783
25779SOL     OW79233  10.564   5.967   1.087
25779SOL    HW179234  10.656   5.976   1.062
25779SOL    HW279235  10.544   5.874   1.072
25780SOL     OW79236   3.746   7.277  11.682
25780SOL    HW179237   3.827   7.302  11.726
25780SOL    HW279238   3.720   7.195  11.724
25781SOL     OW79239  12.274   8.300   0.260
25781SOL    HW179240  12.282   8.205   0.266
25781SOL    HW279241  12.263   8.329   0.351
25782SOL     OW79242   9.726   0.543  12.506
25782SOL    HW179243   9.714   0.562  12.599
25782SOL    HW279244   9.821   0.549  12.493
25783SOL     OW79245   0.274  14.066   3.014
25783SOL    HW179246   0.245  14.005   3.081
25783SOL    HW279247   0.345  14.020   2.968
25784SOL     OW79248   3.857   8.189   8.101
25784SOL    HW179249   3.872   8.097   8.120
25784SOL    HW279250   3.941   8.220   8.066
25785SOL     OW79251  10.781   5.677   0.543
25785SOL    HW179252  10.734   5.756   0.515
25785SOL    HW279253  10.826   5.703   0.624
25786SOL     OW79254  11.818   8.633   1.103
25786SOL    HW179255  11.741   8.626   1.047
25786SOL    HW279256  11.796   8.702   1.166
25787SOL     OW79257  11.282  13.394   1.386
25787SOL    HW179258  11.220  13.464   1.364
25787SOL    HW279259  11.323  13.372   1.302
25788SOL     OW79260   0.484  13.053   5.864
25788SOL    HW179261   0.451  12.984   5.922
25788SOL    HW279262   0.426  13.050   5.788
25789SOL     OW79263   5.470   4.730   0.702
25789SOL    HW179264   5.485   4.817   0.666
25789SOL    HW279265   5.462   4.744   0.797
25790SOL     OW79266   8.955   7.105  14.324
25790SOL    HW179267   8.860   7.107  14.333
25790SOL    HW279268   8.973   7.165  14.252
25791SOL     OW79269   1.849   6.454   8.824
25791SOL    HW179270   1.795   6.453   8.903
25791SOL    HW279271   1.925   6.399   8.846
25792SOL     OW79272  14.442   6.761   9.217
25792SOL    HW179273  14.503   6.708   9.166
25792SOL    HW279274  14.486   6.845   9.228
25793SOL     OW79275   1.669  13.176  14.803
25793SOL    HW179276   1.683  13.082  14.812
25793SOL    HW279277   1.584  13.192  14.845
25794SOL     OW79278   9.426  14.375  10.929
25794SOL    HW179279   9.395  14.322  11.003
25794SOL    HW279280   9.504  14.420  10.962
25795SOL     OW79281   3.104  10.420   1.847
25795SOL    HW179282   3.019  10.395   1.882
25795SOL    HW279283   3.133  10.342   1.798
25796SOL     OW79284   7.652  12.403   1.670
25796SOL    HW179285   7.742  12.390   1.701
25796SOL    HW279286   7.640  12.334   1.604
25797SOL     OW79287  14.805   6.033  11.521
25797SOL    HW179288   0.009   5.992  11.540
25797SOL    HW279289  14.740   5.971  11.554
25798SOL     OW79290   7.361  10.375  14.492
25798SOL    HW179291   7.299  10.443  14.517
25798SOL    HW279292   7.435  10.388  14.550
25799SOL     OW79293   2.092   1.141  11.010
25799SOL    HW179294   2.176   1.096  11.008
25799SOL    HW279295   2.088   1.190  10.929
25800SOL     OW79296   0.671   9.777  10.909
25800SOL    HW179297   0.697   9.718  10.839
25800SOL    HW279298   0.577   9.765  10.918
25801SOL     OW79299  11.135   6.421   0.892
25801SOL    HW179300  11.124   6.515   0.883
25801SOL    HW279301  11.047   6.388   0.912
25802SOL     OW79302   0.596  12.278   3.389
25802SOL    HW179303   0.680  12.232   3.395
25802SOL    HW279304   0.544  12.241   3.460
25803SOL     OW79305   3.253   1.407   5.189
25803SOL    HW179306   3.301   1.377   5.112
25803SOL    HW279307   3.216   1.491   5.163
25804SOL     OW79308   0.478   2.446   9.489
25804SOL    HW179309   0.537   2.401   9.428
25804SOL    HW279310   0.533   2.511   9.531
25805SOL     OW79311   9.662   6.013   4.094
25805SOL    HW179312   9.666   6.029   4.189
25805SOL    HW279313   9.599   5.942   4.085
25806SOL     OW79314   0.305   8.595  11.695
25806SOL    HW179315   0.381   8.648  11.668
25806SOL    HW279316   0.329   8.505  11.671
25807SOL     OW79317   0.493   9.592   4.428
25807SOL    HW179318   0.580   9.557   4.448
25807SOL    HW279319   0.460   9.625   4.512
25808SOL     OW79320  12.569   2.130  13.266
25808SOL    HW179321  12.493   2.108  13.319
25808SOL    HW279322  12.553   2.219  13.235
25809SOL     OW79323  11.217   9.613   1.255
25809SOL    HW179324  11.185   9.620   1.165
25809SOL    HW279325  11.268   9.693   1.269
25810SOL     OW79326   3.028  11.097   8.795
25810SOL    HW179327   3.031  11.012   8.750
25810SOL    HW279328   3.059  11.078   8.883
25811SOL     OW79329   0.724  11.626   6.884
25811SOL    HW179330   0.818  11.608   6.878
25811SOL    HW279331   0.684  11.568   6.820
25812SOL     OW79332  14.123   4.896   2.926
25812SOL    HW179333  14.151   4.980   2.961
25812SOL    HW279334  14.028   4.906   2.914
25813SOL     OW79335   0.916  12.825   5.160
25813SOL    HW179336   0.950  12.767   5.092
25813SOL    HW279337   0.992  12.877   5.188
25814SOL     OW79338   3.720   3.268   7.646
25814SOL    HW179339   3.667   3.334   7.692
25814SOL    HW279340   3.809   3.304   7.646
25815SOL     OW79341   5.124  10.920  10.896
25815SOL    HW179342   5.083  10.907  10.981
25815SOL    HW279343   5.130  11.015  10.886
25816SOL     OW79344   3.055   0.391   8.382
25816SOL    HW179345   3.139   0.423   8.349
25816SOL    HW279346   3.076   0.341   8.460
25817SOL     OW79347   2.041   9.784  12.057
25817SOL    HW179348   1.953   9.819  12.070
25817SOL    HW279349   2.058   9.797  11.964
25818SOL     OW79350   2.483  10.146   2.364
25818SOL    HW179351   2.428  10.186   2.296
25818SOL    HW279352   2.571  10.149   2.329
25819SOL     OW79353  13.325   1.071   2.985
25819SOL    HW179354  13.323   1.039   2.895
25819SOL    HW279355  13.312   0.994   3.039
25820SOL     OW79356   8.424   3.027   5.098
25820SOL    HW179357   8.492   3.011   5.163
25820SOL    HW279358   8.437   3.118   5.072
25821SOL     OW79359  13.955  12.435  11.336
25821SOL    HW179360  13.996  12.404  11.416
25821SOL    HW279361  13.925  12.524  11.357
25822SOL     OW79362   6.002   3.867   7.860
25822SOL    HW179363   5.987   3.961   7.853
25822SOL    HW279364   6.086   3.853   7.817
25823SOL     OW79365   8.509  13.507   0.075
25823SOL    HW179366   8.567  13.485   0.149
25823SOL    HW279367   8.463  13.586   0.104
25824SOL     OW79368   0.807   5.848  12.324
25824SOL    HW179369   0.733   5.848  12.386
25824SOL    HW279370   0.822   5.755  12.306
25825SOL     OW79371  11.410   2.684  11.879
25825SOL    HW179372  11.359   2.763  11.898
25825SOL    HW279373  11.422   2.643  11.965
25826SOL     OW79374  11.765   8.485   5.920
25826SOL    HW179375  11.760   8.580   5.914
25826SOL    HW279376  11.755   8.454   5.830
25827SOL     OW79377   7.969   1.498   5.195
25827SOL    HW179378   7.910   1.454   5.134
25827SOL    HW279379   8.029   1.548   5.138
25828SOL     OW79380   0.719   2.940  14.478
25828SOL    HW179381   0.656   2.940  14.406
25828SOL    HW279382   0.720   2.849  14.509
25829SOL     OW79383   5.970   3.534   5.126
25829SOL    HW179384   5.881   3.533   5.091
25829SOL    HW279385   5.959   3.519   5.220
25830SOL     OW79386  10.013   4.438   0.432
25830SOL    HW179387  10.088   4.387   0.401
25830SOL    HW279388  10.038   4.529   0.416
25831SOL     OW79389   9.267  10.096  10.544
25831SOL    HW179390   9.218  10.065  10.620
25831SOL    HW279391   9.229  10.048  10.470
25832SOL     OW79392  10.064   7.711   4.544
25832SOL    HW179393  10.015   7.786   4.576
25832SOL    HW279394  10.047   7.641   4.607
25833SOL     OW79395  10.520   3.726  13.479
25833SOL    HW179396  10.517   3.650  13.537
25833SOL    HW279397  10.596   3.776  13.509
25834SOL     OW79398   6.929  13.344  10.723
25834SOL    HW179399   6.902  13.436  10.720
25834SOL    HW279400   6.924  13.315  10.632
25835SOL     OW79401   0.428  13.599  13.910
25835SOL    HW179402   0.383  13.631  13.988
25835SOL    HW279403   0.435  13.676  13.853
25836SOL     OW79404   7.409  10.019  12.705
25836SOL    HW179405   7.456   9.942  12.673
25836SOL    HW279406   7.473  10.066  12.758
25837SOL     OW79407  13.091   4.431  13.703
25837SOL    HW179408  13.034   4.459  13.775
25837SOL    HW279409  13.053   4.350  13.671
25838SOL     OW79410   0.301  11.350   0.931
25838SOL    HW179411   0.241  11.424   0.927
25838SOL    HW279412   0.332  11.338   0.841
25839SOL     OW79413   9.105  13.047  12.778
25839SOL    HW179414   9.163  13.018  12.848
25839SOL    HW279415   9.163  13.088  12.714
25840SOL     OW79416  10.025   5.855   3.991
25840SOL    HW179417  10.019   5.940   3.948
25840SOL    HW279418   9.964   5.799   3.943
25841SOL     OW79419   6.041   4.017   4.467
25841SOL    HW179420   6.120   4.070   4.454
25841SOL    HW279421   6.065   3.929   4.439
25842SOL     OW79422   2.498   7.765  13.133
25842SOL    HW179423   2.417   7.715  13.141
25842SOL    HW279424   2.471   7.856  13.144
25843SOL     OW79425   4.141   8.076  14.823
25843SOL    HW179426   4.198   8.001  14.839
25843SOL    HW279427   4.139   8.123   0.026
25844SOL     OW79428  10.693  10.496   1.108
25844SOL    HW179429  10.669  10.444   1.184
25844SOL    HW279430  10.711  10.583   1.143
25845SOL     OW79431  14.831   1.412   0.485
25845SOL    HW179432  14.822   1.470   0.560
25845SOL    HW279433   0.009   1.343   0.515
25846SOL     OW79434  11.951   9.087  12.162
25846SOL    HW179435  11.984   9.138  12.236
25846SOL    HW279436  12.028   9.064  12.111
25847SOL     OW79437  14.090   8.193   5.462
25847SOL    HW179438  14.073   8.249   5.386
25847SOL    HW279439  14.139   8.119   5.425
25848SOL     OW79440   5.447  13.804   7.321
25848SOL    HW179441   5.422  13.829   7.410
25848SOL    HW279442   5.535  13.842   7.309
25849SOL     OW79443  14.402  11.786   1.477
25849SOL    HW179444  14.347  11.836   1.536
25849SOL    HW279445  14.341  11.735   1.424
25850SOL     OW79446   1.797   5.899   9.955
25850SOL    HW179447   1.864   5.831   9.962
25850SOL    HW279448   1.836   5.965   9.899
25851SOL     OW79449  12.992   2.782   0.327
25851SOL    HW179450  12.940   2.832   0.390
25851SOL    HW279451  13.033   2.713   0.378
25852SOL     OW79452  11.729   6.975   2.488
25852SOL    HW179453  11.779   6.893   2.488
25852SOL    HW279454  11.789   7.040   2.451
25853SOL     OW79455   3.026   1.554   1.124
25853SOL    HW179456   3.026   1.566   1.029
25853SOL    HW279457   3.099   1.495   1.141
25854SOL     OW79458   5.769   3.035   8.713
25854SOL    HW179459   5.759   3.073   8.626
25854SOL    HW279460   5.838   2.969   8.703
25855SOL     OW79461  10.817  10.134   9.279
25855SOL    HW179462  10.877  10.195   9.236
25855SOL    HW279463  10.874  10.063   9.311
25856SOL     OW79464   9.073  13.498  10.879
25856SOL    HW179465   9.029  13.430  10.828
25856SOL    HW279466   9.018  13.509  10.957
25857SOL     OW79467   2.622   6.236   5.318
25857SOL    HW179468   2.654   6.325   5.302
25857SOL    HW279469   2.645   6.219   5.409
25858SOL     OW79470   4.906   0.219   5.580
25858SOL    HW179471   4.985   0.268   5.559
25858SOL    HW279472   4.936   0.129   5.591
25859SOL     OW79473  11.750   9.719   8.012
25859SOL    HW179474  11.820   9.748   7.953
25859SOL    HW279475  11.752   9.624   8.005
25860SOL     OW79476   5.458  11.011   9.181
25860SOL    HW179477   5.468  10.951   9.255
25860SOL    HW279478   5.432  10.955   9.108
25861SOL     OW79479   2.655   5.281   5.511
25861SOL    HW179480   2.596   5.354   5.526
25861SOL    HW279481   2.597   5.205   5.504
25862SOL     OW79482   6.668   2.765   9.663
25862SOL    HW179483   6.720   2.774   9.583
25862SOL    HW279484   6.582   2.734   9.632
25863SOL     OW79485   2.711  11.508   1.381
25863SOL    HW179486   2.728  11.413   1.381
25863SOL    HW279487   2.789  11.545   1.423
25864SOL     OW79488  13.381   8.471   9.224
25864SOL    HW179489  13.427   8.459   9.307
25864SOL    HW279490  13.308   8.530   9.245
25865SOL     OW79491   2.456   6.039   1.683
25865SOL    HW179492   2.447   6.115   1.740
25865SOL    HW279493   2.496   6.073   1.603
25866SOL     OW79494  12.439   2.715  11.056
25866SOL    HW179495  12.460   2.668  10.975
25866SOL    HW279496  12.383   2.655  11.105
25867SOL     OW79497   3.749   7.181  12.835
25867SOL    HW179498   3.794   7.168  12.751
25867SOL    HW279499   3.656   7.171  12.814
25868SOL     OW79500  13.931   4.481  12.871
25868SOL    HW179501  13.971   4.454  12.788
25868SOL    HW279502  13.867   4.412  12.891
25869SOL     OW79503   0.150   5.486   1.510
25869SOL    HW179504   0.151   5.539   1.430
25869SOL    HW279505   0.136   5.396   1.479
25870SOL     OW79506   0.992  11.814   1.283
25870SOL    HW179507   0.901  11.821   1.311
25870SOL    HW279508   1.038  11.786   1.362
25871SOL     OW79509   7.013   0.584   1.127
25871SOL    HW179510   7.057   0.510   1.085
25871SOL    HW279511   7.070   0.658   1.112
25872SOL     OW79512  14.388  11.717   0.810
25872SOL    HW179513  14.477  11.686   0.828
25872SOL    HW279514  14.399  11.807   0.781
25873SOL     OW79515  13.125   8.159  11.758
25873SOL    HW179516  13.118   8.109  11.839
25873SOL    HW279517  13.035   8.188  11.740
25874SOL     OW79518   2.749   4.445  13.760
25874SOL    HW179519   2.669   4.487  13.792
25874SOL    HW279520   2.735   4.352  13.777
25875SOL     OW79521   6.936   1.274  11.303
25875SOL    HW179522   7.018   1.319  11.279
25875SOL    HW279523   6.880   1.284  11.225
25876SOL     OW79524  11.002   6.214   6.757
25876SOL    HW179525  11.010   6.150   6.828
25876SOL    HW279526  10.913   6.201   6.723
25877SOL     OW79527  13.798  11.632   1.553
25877SOL    HW179528  13.891  11.609   1.549
25877SOL    HW279529  13.761  11.592   1.474
25878SOL     OW79530  14.695   5.843   1.985
25878SOL    HW179531  14.712   5.775   1.920
25878SOL    HW279532  14.668   5.919   1.933
25879SOL     OW79533  12.369  10.813   4.329
25879SOL    HW179534  12.423  10.845   4.402
25879SOL    HW279535  12.432  10.794   4.260
25880SOL     OW79536   0.608  12.245  14.742
25880SOL    HW179537   0.601  12.243  14.646
25880SOL    HW279538   0.522  12.276  14.771
25881SOL     OW79539  14.575   7.274   8.681
25881SOL    HW179540  14.550   7.242   8.768
25881SOL    HW279541  14.634   7.207   8.647
25882SOL     OW79542   1.557  11.241   8.336
25882SOL    HW179543   1.496  11.244   8.263
25882SOL    HW279544   1.605  11.159   8.324
25883SOL     OW79545  14.655   7.614   5.877
25883SOL    HW179546  14.669   7.636   5.969
25883SOL    HW279547  14.722   7.663   5.830
25884SOL     OW79548   4.286  13.782   9.130
25884SOL    HW179549   4.218  13.747   9.188
25884SOL    HW279550   4.350  13.821   9.190
25885SOL     OW79551   2.701   0.534   1.065
25885SOL    HW179552   2.789   0.571   1.053
25885SOL    HW279553   2.675   0.504   0.978
25886SOL     OW79554  11.547   9.515  10.137
25886SOL    HW179555  11.635   9.492  10.107
25886SOL    HW279556  11.496   9.523  10.057
25887SOL     OW79557   3.189  13.126   4.385
25887SOL    HW179558   3.215  13.196   4.444
25887SOL    HW279559   3.190  13.166   4.298
25888SOL     OW79560   4.216   7.819   7.626
25888SOL    HW179561   4.283   7.863   7.678
25888SOL    HW279562   4.254   7.810   7.539
25889SOL     OW79563   3.248   2.356   0.868
25889SOL    HW179564   3.282   2.446   0.864
25889SOL    HW279565   3.187   2.351   0.794
25890SOL     OW79566   0.826   7.704   1.277
25890SOL    HW179567   0.913   7.735   1.251
25890SOL    HW279568   0.818   7.731   1.369
25891SOL     OW79569   8.255   2.668  12.490
25891SOL    HW179570   8.314   2.700  12.558
25891SOL    HW279571   8.175   2.720  12.501
25892SOL     OW79572   7.282   7.160   9.642
25892SOL    HW179573   7.277   7.205   9.727
25892SOL    HW279574   7.337   7.216   9.588
25893SOL     OW79575  13.358   1.958  10.014
25893SOL    HW179576  13.307   2.021  10.065
25893SOL    HW279577  13.414   1.915  10.079
25894SOL     OW79578  10.351   8.867   8.749
25894SOL    HW179579  10.347   8.796   8.813
25894SOL    HW279580  10.443   8.873   8.724
25895SOL     OW79581   6.204   0.168   2.918
25895SOL    HW179582   6.282   0.210   2.955
25895SOL    HW279583   6.188   0.093   2.976
25896SOL     OW79584  11.786   5.696   9.565
25896SOL    HW179585  11.846   5.629   9.532
25896SOL    HW279586  11.842   5.756   9.614
25897SOL     OW79587   9.642  14.161   4.057
25897SOL    HW179588   9.677  14.084   4.103
25897SOL    HW279589   9.715  14.191   4.003
25898SOL     OW79590  11.832   2.007   0.876
25898SOL    HW179591  11.916   1.964   0.860
25898SOL    HW279592  11.793   2.018   0.789
25899SOL     OW79593   0.485  11.225   6.610
25899SOL    HW179594   0.492  11.255   6.519
25899SOL    HW279595   0.537  11.145   6.613
25900SOL     OW79596   3.251  14.401   1.462
25900SOL    HW179597   3.199  14.474   1.497
25900SOL    HW279598   3.198  14.368   1.389
25901SOL     OW79599   6.838   7.184  11.172
25901SOL    HW179600   6.748   7.153  11.161
25901SOL    HW279601   6.831   7.279  11.159
25902SOL     OW79602   0.149   2.848   5.814
25902SOL    HW179603   0.078   2.908   5.795
25902SOL    HW279604   0.226   2.904   5.826
25903SOL     OW79605   0.584  10.723   7.841
25903SOL    HW179606   0.591  10.818   7.842
25903SOL    HW279607   0.629  10.696   7.761
25904SOL     OW79608   7.207   6.687  14.609
25904SOL    HW179609   7.266   6.679  14.684
25904SOL    HW279610   7.235   6.767  14.565
25905SOL     OW79611   6.310   1.031   5.919
25905SOL    HW179612   6.327   1.044   6.013
25905SOL    HW279613   6.233   1.086   5.901
25906SOL     OW79614   6.726   6.126   4.583
25906SOL    HW179615   6.781   6.189   4.628
25906SOL    HW279616   6.639   6.137   4.622
25907SOL     OW79617  10.106   1.886  13.607
25907SOL    HW179618  10.134   1.919  13.522
25907SOL    HW279619  10.034   1.826  13.587
25908SOL     OW79620   6.311  12.828  11.741
25908SOL    HW179621   6.280  12.819  11.831
25908SOL    HW279622   6.364  12.908  11.741
25909SOL     OW79623   5.770  11.671  12.456
25909SOL    HW179624   5.690  11.698  12.501
25909SOL    HW279625   5.771  11.576  12.464
25910SOL     OW79626   8.410   9.364   5.888
25910SOL    HW179627   8.330   9.416   5.898
25910SOL    HW279628   8.426   9.328   5.975
25911SOL     OW79629   5.131   4.234   9.983
25911SOL    HW179630   5.178   4.266   9.906
25911SOL    HW279631   5.178   4.156  10.010
25912SOL     OW79632   2.707  11.777  13.183
25912SOL    HW179633   2.693  11.686  13.157
25912SOL    HW279634   2.618  11.813  13.194
25913SOL     OW79635   0.072   5.615   1.877
25913SOL    HW179636   0.132   5.553   1.919
25913SOL    HW279637  14.867   5.571   1.878
25914SOL     OW79638   0.256   7.404  13.515
25914SOL    HW179639   0.177   7.409  13.568
25914SOL    HW279640   0.259   7.487  13.468
25915SOL     OW79641   8.888   0.862   7.177
25915SOL    HW179642   8.975   0.901   7.183
25915SOL    HW279643   8.855   0.862   7.267
25916SOL     OW79644  10.601   0.849   1.684
25916SOL    HW179645  10.667   0.804   1.737
25916SOL    HW279646  10.611   0.811   1.596
25917SOL     OW79647   0.319   6.840   4.071
25917SOL    HW179648   0.224   6.855   4.069
25917SOL    HW279649   0.351   6.904   4.135
25918SOL     OW79650   1.799   0.778  11.710
25918SOL    HW179651   1.806   0.687  11.681
25918SOL    HW279652   1.780   0.827  11.630
25919SOL     OW79653   7.643  11.468   8.859
25919SOL    HW179654   7.603  11.412   8.792
25919SOL    HW279655   7.625  11.557   8.830
25920SOL     OW79656  13.304   8.197  12.459
25920SOL    HW179657  13.273   8.161  12.542
25920SOL    HW279658  13.364   8.267  12.484
25921SOL     OW79659   4.717   1.841  11.225
25921SOL    HW179660   4.686   1.761  11.183
25921SOL    HW279661   4.755   1.812  11.308
25922SOL     OW79662  13.609   4.005   2.604
25922SOL    HW179663  13.684   3.984   2.548
25922SOL    HW279664  13.533   3.969   2.558
25923SOL     OW79665   8.964   2.585   2.101
25923SOL    HW179666   9.019   2.662   2.115
25923SOL    HW279667   8.876   2.621   2.086
25924SOL     OW79668   6.586  13.941   9.314
25924SOL    HW179669   6.675  13.909   9.326
25924SOL    HW279670   6.564  13.918   9.224
25925SOL     OW79671  10.842   7.539   7.960
25925SOL    HW179672  10.788   7.614   7.935
25925SOL    HW279673  10.900   7.573   8.028
25926SOL     OW79674   7.516   1.904   4.416
25926SOL    HW179675   7.448   1.849   4.377
25926SOL    HW279676   7.470   1.958   4.480
25927SOL     OW79677  13.808   5.644   0.031
25927SOL    HW179678  13.723   5.673   0.065
25927SOL    HW279679  13.795   5.639  14.816
25928SOL     OW79680   9.473  13.246   4.724
25928SOL    HW179681   9.410  13.312   4.754
25928SOL    HW279682   9.553  13.264   4.775
25929SOL     OW79683  11.385  14.760   8.205
25929SOL    HW179684  11.293  14.773   8.180
25929SOL    HW279685  11.385  14.769   8.300
25930SOL     OW79686   3.352   6.656   7.191
25930SOL    HW179687   3.309   6.733   7.227
25930SOL    HW279688   3.445   6.676   7.194
25931SOL     OW79689   6.164  13.179   9.210
25931SOL    HW179690   6.220  13.122   9.263
25931SOL    HW279691   6.075  13.158   9.239
25932SOL     OW79692   5.359   5.303  11.951
25932SOL    HW179693   5.285   5.349  11.992
25932SOL    HW279694   5.435   5.329  12.004
25933SOL     OW79695   3.493  10.153   4.066
25933SOL    HW179696   3.583  10.175   4.040
25933SOL    HW279697   3.502  10.074   4.119
25934SOL     OW79698   6.835   5.484   3.738
25934SOL    HW179699   6.753   5.472   3.786
25934SOL    HW279700   6.898   5.431   3.787
25935SOL     OW79701  13.816   0.558   7.023
25935SOL    HW179702  13.751   0.500   7.063
25935SOL    HW279703  13.883   0.569   7.090
25936SOL     OW79704  13.152   5.683   6.914
25936SOL    HW179705  13.124   5.673   6.823
25936SOL    HW279706  13.244   5.708   6.908
25937SOL     OW79707   7.791   9.521   0.510
25937SOL    HW179708   7.857   9.547   0.574
25937SOL    HW279709   7.753   9.442   0.546
25938SOL     OW79710   9.571   7.622   6.631
25938SOL    HW179711   9.491   7.572   6.650
25938SOL    HW279712   9.642   7.564   6.656
25939SOL     OW79713   0.144   3.713  11.706
25939SOL    HW179714   0.208   3.668  11.761
25939SOL    HW279715   0.127   3.652  11.634
25940SOL     OW79716  10.493   2.916  12.531
25940SOL    HW179717  10.513   2.942  12.441
25940SOL    HW279718  10.543   2.836  12.544
25941SOL     OW79719  12.127   5.312   3.452
25941SOL    HW179720  12.213   5.326   3.493
25941SOL    HW279721  12.073   5.384   3.483
25942SOL     OW79722   6.779   0.086   9.661
25942SOL    HW179723   6.862   0.058   9.622
25942SOL    HW279724   6.800   0.103   9.753
25943SOL     OW79725   8.427  11.820   1.381
25943SOL    HW179726   8.469  11.769   1.312
25943SOL    HW279727   8.462  11.908   1.370
25944SOL     OW79728   8.497   5.484   1.911
25944SOL    HW179729   8.458   5.450   1.992
25944SOL    HW279730   8.555   5.414   1.881
25945SOL     OW79731  10.033   6.052   8.344
25945SOL    HW179732  10.094   5.978   8.343
25945SOL    HW279733  10.078   6.121   8.297
25946SOL     OW79734   5.201   3.600   2.600
25946SOL    HW179735   5.145   3.529   2.633
25946SOL    HW279736   5.212   3.580   2.507
25947SOL     OW79737  11.676   5.934  10.331
25947SOL    HW179738  11.736   5.996  10.289
25947SOL    HW279739  11.631   5.892  10.258
25948SOL     OW79740   0.011  11.852  13.792
25948SOL    HW179741  14.818  11.791  13.790
25948SOL    HW279742   0.071  11.815  13.857
25949SOL     OW79743  13.070  13.228   4.958
25949SOL    HW179744  13.083  13.290   4.886
25949SOL    HW279745  12.976  13.210   4.957
25950SOL     OW79746   8.871   7.519  10.125
25950SOL    HW179747   8.947   7.551  10.075
25950SOL    HW279748   8.810   7.592  10.125
25951SOL     OW79749   6.512  13.577   2.912
25951SOL    HW179750   6.464  13.496   2.928
25951SOL    HW279751   6.507  13.624   2.995
25952SOL     OW79752   5.639   7.576  13.366
25952SOL    HW179753   5.606   7.642  13.304
25952SOL    HW279754   5.679   7.509  13.311
25953SOL     OW79755   2.023   9.870   2.056
25953SOL    HW179756   2.066   9.784   2.052
25953SOL    HW279757   2.096   9.933   2.047
25954SOL     OW79758   7.426   1.483   4.518
25954SOL    HW179759   7.504   1.535   4.502
25954SOL    HW279760   7.457   1.408   4.568
25955SOL     OW79761  13.579   1.186   5.173
25955SOL    HW179762  13.605   1.094   5.170
25955SOL    HW279763  13.511   1.190   5.241
25956SOL     OW79764   8.716  13.195  13.336
25956SOL    HW179765   8.730  13.256  13.263
25956SOL    HW279766   8.714  13.109  13.295
25957SOL     OW79767  10.205  11.902   6.287
25957SOL    HW179768  10.292  11.879   6.255
25957SOL    HW279769  10.214  11.992   6.318
25958SOL     OW79770   9.112   6.627   2.197
25958SOL    HW179771   9.092   6.720   2.189
25958SOL    HW279772   9.161   6.605   2.118
25959SOL     OW79773   7.690   2.097   4.735
25959SOL    HW179774   7.693   2.174   4.791
25959SOL    HW279775   7.695   2.131   4.646
25960SOL     OW79776  10.165   1.217  12.724
25960SOL    HW179777  10.209   1.175  12.798
25960SOL    HW279778  10.231   1.277  12.688
25961SOL     OW79779  14.109   2.546   9.632
25961SOL    HW179780  14.036   2.499   9.673
25961SOL    HW279781  14.104   2.634   9.669
25962SOL     OW79782  14.517  10.858   4.497
25962SOL    HW179783  14.610  10.844   4.476
25962SOL    HW279784  14.483  10.771   4.514
25963SOL     OW79785   7.889   6.156   1.076
25963SOL    HW179786   7.971   6.107   1.085
25963SOL    HW279787   7.868   6.151   0.983
25964SOL     OW79788   5.294  10.578   7.517
25964SOL    HW179789   5.212  10.607   7.478
25964SOL    HW279790   5.327  10.654   7.565
25965SOL     OW79791   8.818   6.887   8.932
25965SOL    HW179792   8.902   6.908   8.973
25965SOL    HW279793   8.803   6.795   8.954
25966SOL     OW79794   0.643  12.554   3.461
25966SOL    HW179795   0.568  12.596   3.504
25966SOL    HW279796   0.623  12.461   3.463
25967SOL     OW79797  14.409   5.901   2.607
25967SOL    HW179798  14.350   5.851   2.664
25967SOL    HW279799  14.496   5.885   2.642
25968SOL     OW79800   1.481   9.734  11.822
25968SOL    HW179801   1.503   9.721  11.730
25968SOL    HW279802   1.561   9.711  11.870
25969SOL     OW79803  11.316   2.759  12.263
25969SOL    HW179804  11.377   2.701  12.217
25969SOL    HW279805  11.255   2.788  12.195
25970SOL     OW79806  12.384   9.637   8.672
25970SOL    HW179807  12.408   9.645   8.764
25970SOL    HW279808  12.468   9.630   8.626
25971SOL     OW79809  13.186  13.068   7.905
25971SOL    HW179810  13.199  13.128   7.978
25971SOL    HW279811  13.092  13.072   7.887
25972SOL     OW79812   0.735   7.706  12.556
25972SOL    HW179813   0.803   7.763  12.520
25972SOL    HW279814   0.776   7.666  12.633
25973SOL     OW79815  14.627   9.524   2.504
25973SOL    HW179816  14.541   9.542   2.542
25973SOL    HW279817  14.688   9.537   2.576
25974SOL     OW79818   5.994   1.768   7.316
25974SOL    HW179819   5.997   1.776   7.411
25974SOL    HW279820   5.943   1.688   7.300
25975SOL     OW79821  12.067  12.169   6.769
25975SOL    HW179822  12.097  12.153   6.858
25975SOL    HW279823  12.098  12.257   6.748
25976SOL     OW79824   4.863   8.876   3.678
25976SOL    HW179825   4.800   8.808   3.655
25976SOL    HW279826   4.928   8.832   3.732
25977SOL     OW79827   4.830  14.312  14.686
25977SOL    HW179828   4.773  14.239  14.713
25977SOL    HW279829   4.847  14.361  14.766
25978SOL     OW79830   2.102   3.101   3.347
25978SOL    HW179831   2.102   3.166   3.417
25978SOL    HW279832   2.123   3.150   3.268
25979SOL     OW79833  10.298  12.917   4.519
25979SOL    HW179834  10.354  12.945   4.592
25979SOL    HW279835  10.210  12.913   4.556
25980SOL     OW79836  12.355   9.829  12.835
25980SOL    HW179837  12.298   9.905  12.827
25980SOL    HW279838  12.316   9.764  12.777
25981SOL     OW79839   4.755   4.156  14.639
25981SOL    HW179840   4.730   4.063  14.643
25981SOL    HW279841   4.843   4.155  14.601
25982SOL     OW79842  13.161   0.382   2.510
25982SOL    HW179843  13.091   0.322   2.482
25982SOL    HW279844  13.116   0.451   2.558
25983SOL     OW79845  13.292   1.029   2.151
25983SOL    HW179846  13.239   0.966   2.103
25983SOL    HW279847  13.376   1.029   2.106
25984SOL     OW79848   9.354   6.632   5.337
25984SOL    HW179849   9.349   6.560   5.400
25984SOL    HW279850   9.395   6.703   5.386
25985SOL     OW79851   4.022  10.991   7.445
25985SOL    HW179852   4.076  10.913   7.457
25985SOL    HW279853   4.028  11.009   7.351
25986SOL     OW79854  14.801   7.260  12.870
25986SOL    HW179855  14.763   7.347  12.856
25986SOL    HW279856   0.015   7.276  12.870
25987SOL     OW79857   8.716   3.357   7.473
25987SOL    HW179858   8.633   3.331   7.433
25987SOL    HW279859   8.704   3.449   7.496
25988SOL     OW79860   3.717   5.416  14.483
25988SOL    HW179861   3.748   5.503  14.509
25988SOL    HW279862   3.676   5.380  14.562
25989SOL     OW79863   1.507  14.350  13.343
25989SOL    HW179864   1.523  14.355  13.249
25989SOL    HW279865   1.594  14.350  13.383
25990SOL     OW79866   0.169  12.551   7.980
25990SOL    HW179867   0.199  12.527   8.068
25990SOL    HW279868   0.197  12.642   7.970
25991SOL     OW79869   6.357  13.299   2.953
25991SOL    HW179870   6.287  13.361   2.973
25991SOL    HW279871   6.315  13.232   2.899
25992SOL     OW79872   9.621   6.131   1.159
25992SOL    HW179873   9.657   6.145   1.072
25992SOL    HW279874   9.573   6.211   1.179
25993SOL     OW79875  12.455   9.856   3.963
25993SOL    HW179876  12.513   9.921   3.925
25993SOL    HW279877  12.511   9.805   4.022
25994SOL     OW79878  10.333  13.202  14.855
25994SOL    HW179879  10.306  13.280   0.024
25994SOL    HW279880  10.413  13.173   0.018
25995SOL     OW79881   5.633   9.869   2.431
25995SOL    HW179882   5.591   9.947   2.397
25995SOL    HW279883   5.579   9.796   2.400
25996SOL     OW79884   8.866  11.242   0.911
25996SOL    HW179885   8.957  11.212   0.901
25996SOL    HW279886   8.823  11.173   0.960
25997SOL     OW79887   2.689  13.012   4.754
25997SOL    HW179888   2.657  12.956   4.683
25997SOL    HW279889   2.784  13.004   4.750
25998SOL     OW79890   0.969  11.823  13.484
25998SOL    HW179891   0.997  11.913  13.498
25998SOL    HW279892   0.913  11.803  13.559
25999SOL     OW79893   2.421   5.757   3.654
25999SOL    HW179894   2.406   5.796   3.568
25999SOL    HW279895   2.455   5.829   3.707
26000SOL     OW79896   9.995   3.722   3.669
26000SOL    HW179897  10.022   3.749   3.581
26000SOL    HW279898   9.976   3.629   3.661
26001SOL     OW79899   0.587   5.024  12.768
26001SOL    HW179900   0.665   5.020  12.823
26001SOL    HW279901   0.588   5.112  12.731
26002SOL     OW79902   0.259   1.087  13.473
26002SOL    HW179903   0.166   1.095  13.455
26002SOL    HW279904   0.301   1.146  13.411
26003SOL     OW79905   4.727  13.966   9.041
26003SOL    HW179906   4.787  13.950   8.969
26003SOL    HW279907   4.672  14.039   9.011
26004SOL     OW79908   5.815   5.882   7.852
26004SOL    HW179909   5.839   5.965   7.894
26004SOL    HW279910   5.720   5.874   7.865
26005SOL     OW79911  13.543  13.037   9.658
26005SOL    HW179912  13.454  13.004   9.657
26005SOL    HW279913  13.582  13.007   9.576
26006SOL     OW79914   7.308   3.559   9.471
26006SOL    HW179915   7.215   3.584   9.478
26006SOL    HW279916   7.355   3.630   9.515
26007SOL     OW79917   4.934  10.659   7.139
26007SOL    HW179918   4.847  10.625   7.118
26007SOL    HW279919   4.967  10.602   7.208
26008SOL     OW79920   2.317   8.004  12.584
26008SOL    HW179921   2.263   8.067  12.632
26008SOL    HW279922   2.405   8.041  12.587
26009SOL     OW79923  11.138   1.520   8.985
26009SOL    HW179924  11.082   1.543   8.911
26009SOL    HW279925  11.100   1.565   9.060
26010SOL     OW79926   9.461  12.343  10.288
26010SOL    HW179927   9.490  12.433  10.298
26010SOL    HW279928   9.453  12.331  10.193
26011SOL     OW79929  13.862  10.133  14.034
26011SOL    HW179930  13.830  10.221  14.018
26011SOL    HW279931  13.848  10.087  13.951
26012SOL     OW79932  12.771  10.324   1.048
26012SOL    HW179933  12.699  10.273   1.010
26012SOL    HW279934  12.781  10.398   0.987
26013SOL     OW79935   7.360  11.569  10.882
26013SOL    HW179936   7.319  11.526  10.807
26013SOL    HW279937   7.296  11.561  10.952
26014SOL     OW79938   2.940   5.589   3.854
26014SOL    HW179939   3.021   5.539   3.844
26014SOL    HW279940   2.902   5.558   3.936
26015SOL     OW79941   1.752   6.475   4.469
26015SOL    HW179942   1.737   6.408   4.403
26015SOL    HW279943   1.664   6.500   4.498
26016SOL     OW79944   1.888   8.612   0.548
26016SOL    HW179945   1.951   8.624   0.477
26016SOL    HW279946   1.940   8.580   0.621
26017SOL     OW79947   0.675  10.866  10.331
26017SOL    HW179948   0.605  10.812  10.367
26017SOL    HW279949   0.654  10.955  10.360
26018SOL     OW79950   6.621   4.072  13.538
26018SOL    HW179951   6.601   4.147  13.481
26018SOL    HW279952   6.634   3.999  13.479
26019SOL     OW79953   4.490  12.168  11.981
26019SOL    HW179954   4.564  12.116  11.950
26019SOL    HW279955   4.515  12.196  12.069
26020SOL     OW79956  14.851   3.678   9.879
26020SOL    HW179957  14.836   3.744   9.811
26020SOL    HW279958   0.061   3.691   9.906
26021SOL     OW79959   1.561   2.835   3.248
26021SOL    HW179960   1.591   2.924   3.229
26021SOL    HW279961   1.590   2.818   3.338
26022SOL     OW79962   9.077   3.851  11.717
26022SOL    HW179963   9.086   3.797  11.796
26022SOL    HW279964   9.036   3.793  11.653
26023SOL     OW79965   7.007  12.878   7.379
26023SOL    HW179966   7.086  12.878   7.433
26023SOL    HW279967   6.962  12.797   7.403
26024SOL     OW79968  11.641   3.014  13.699
26024SOL    HW179969  11.701   2.945  13.725
26024SOL    HW279970  11.636   3.007  13.603
26025SOL     OW79971   0.422   1.084   3.531
26025SOL    HW179972   0.464   1.056   3.612
26025SOL    HW279973   0.369   1.160   3.556
26026SOL     OW79974   9.488   3.357   5.414
26026SOL    HW179975   9.540   3.334   5.337
26026SOL    HW279976   9.486   3.278   5.467
26027SOL     OW79977  10.419   6.688  14.000
26027SOL    HW179978  10.479   6.614  14.013
26027SOL    HW279979  10.395   6.715  14.088
26028SOL     OW79980   8.435  13.904  12.894
26028SOL    HW179981   8.441  13.940  12.982
26028SOL    HW279982   8.452  13.811  12.904
26029SOL     OW79983   7.880  12.054  11.748
26029SOL    HW179984   7.916  11.970  11.719
26029SOL    HW279985   7.850  12.038  11.837
26030SOL     OW79986   9.947   1.759   9.007
26030SOL    HW179987  10.029   1.808   9.010
26030SOL    HW279988   9.895   1.803   8.940
26031SOL     OW79989  13.398   6.317   2.629
26031SOL    HW179990  13.481   6.272   2.614
26031SOL    HW279991  13.408   6.358   2.715
26032SOL     OW79992   3.266   9.863   0.564
26032SOL    HW179993   3.275   9.951   0.526
26032SOL    HW279994   3.252   9.879   0.657
26033SOL     OW79995   3.298   0.926   9.057
26033SOL    HW179996   3.355   0.856   9.026
26033SOL    HW279997   3.270   0.971   8.977
26034SOL     OW79998  11.844  10.434   7.707
26034SOL    HW179999  11.834  10.427   7.612
26034SOL    HW280000  11.763  10.475   7.737
26035SOL     OW80001  10.451   2.063   5.944
26035SOL    HW180002  10.492   2.132   5.892
26035SOL    HW280003  10.399   2.110   6.010
26036SOL     OW80004   7.243   4.085  12.910
26036SOL    HW180005   7.316   4.145  12.925
26036SOL    HW280006   7.232   4.039  12.994
26037SOL     OW80007  11.336  14.649  13.564
26037SOL    HW180008  11.253  14.613  13.532
26037SOL    HW280009  11.318  14.677  13.653
26038SOL     OW80010   1.065   7.903   5.121
26038SOL    HW180011   1.056   7.958   5.044
26038SOL    HW280012   1.154   7.919   5.153
26039SOL     OW80013  13.336   4.901   9.624
26039SOL    HW180014  13.245   4.905   9.593
26039SOL    HW280015  13.384   4.960   9.565
26040SOL     OW80016  11.192   8.207   7.561
26040SOL    HW180017  11.228   8.266   7.627
26040SOL    HW280018  11.185   8.122   7.606
26041SOL     OW80019  14.115   3.711  10.320
26041SOL    HW180020  14.113   3.807  10.323
26041SOL    HW280021  14.027   3.687  10.291
26042SOL     OW80022   9.789   7.645   1.148
26042SOL    HW180023   9.709   7.626   1.100
26042SOL    HW280024   9.763   7.643   1.240
26043SOL     OW80025  13.373   0.219  12.821
26043SOL    HW180026  13.454   0.198  12.776
26043SOL    HW280027  13.320   0.140  12.815
26044SOL     OW80028  12.030   5.766  12.048
26044SOL    HW180029  11.952   5.820  12.036
26044SOL    HW280030  12.004   5.698  12.109
26045SOL     OW80031  10.464  12.697  13.703
26045SOL    HW180032  10.425  12.612  13.718
26045SOL    HW280033  10.393  12.750  13.666
26046SOL     OW80034  12.164   4.820  10.253
26046SOL    HW180035  12.174   4.726  10.272
26046SOL    HW280036  12.084   4.825  10.201
26047SOL     OW80037   6.825   6.690  10.876
26047SOL    HW180038   6.785   6.744  10.808
26047SOL    HW280039   6.778   6.606  10.871
26048SOL     OW80040  14.045   3.020   5.947
26048SOL    HW180041  13.985   2.955   5.983
26048SOL    HW280042  14.096   3.049   6.023
26049SOL     OW80043   1.952   8.646   3.071
26049SOL    HW180044   1.950   8.644   3.166
26049SOL    HW280045   2.043   8.662   3.048
26050SOL     OW80046   4.717   1.798   4.484
26050SOL    HW180047   4.734   1.830   4.573
26050SOL    HW280048   4.648   1.732   4.495
26051SOL     OW80049   9.040   7.837  12.117
26051SOL    HW180050   9.027   7.793  12.034
26051SOL    HW280051   9.106   7.904  12.099
26052SOL     OW80052   7.198  10.336   5.879
26052SOL    HW180053   7.246  10.257   5.904
26052SOL    HW280054   7.189  10.329   5.784
26053SOL     OW80055   2.739  13.134  14.562
26053SOL    HW180056   2.812  13.184  14.599
26053SOL    HW280057   2.715  13.183  14.483
26054SOL     OW80058   3.406   0.946   8.189
26054SOL    HW180059   3.332   1.001   8.214
26054SOL    HW280060   3.392   0.864   8.237
26055SOL     OW80061   8.720  14.630  10.282
26055SOL    HW180062   8.695  14.553  10.230
26055SOL    HW280063   8.701  14.704  10.224
26056SOL     OW80064  11.597   0.057  12.403
26056SOL    HW180065  11.566   0.071  12.313
26056SOL    HW280066  11.582   0.140  12.447
26057SOL     OW80067  13.428   6.386   3.715
26057SOL    HW180068  13.396   6.368   3.804
26057SOL    HW280069  13.418   6.303   3.669
26058SOL     OW80070   6.915   1.266   8.927
26058SOL    HW180071   6.841   1.208   8.908
26058SOL    HW280072   6.932   1.253   9.021
26059SOL     OW80073  13.137   9.613   1.126
26059SOL    HW180074  13.056   9.662   1.140
26059SOL    HW280075  13.118   9.553   1.054
26060SOL     OW80076   7.513   8.896   3.229
26060SOL    HW180077   7.552   8.875   3.144
26060SOL    HW280078   7.485   8.987   3.219
26061SOL     OW80079   5.115  11.506   8.105
26061SOL    HW180080   5.188  11.511   8.167
26061SOL    HW280081   5.091  11.598   8.089
26062SOL     OW80082  14.339   7.558   1.826
26062SOL    HW180083  14.405   7.493   1.849
26062SOL    HW280084  14.256   7.521   1.859
26063SOL     OW80085  14.246   6.399   8.856
26063SOL    HW180086  14.266   6.380   8.948
26063SOL    HW280087  14.197   6.482   8.859
26064SOL     OW80088   6.426   7.470   8.506
26064SOL    HW180089   6.434   7.478   8.601
26064SOL    HW280090   6.332   7.459   8.491
26065SOL     OW80091   1.949  10.042   8.151
26065SOL    HW180092   1.976   9.951   8.158
26065SOL    HW280093   1.920  10.066   8.239
26066SOL     OW80094  13.913  11.618   9.053
26066SOL    HW180095  13.989  11.676   9.048
26066SOL    HW280096  13.887  11.620   9.145
26067SOL     OW80097   7.689   6.027   7.845
26067SOL    HW180098   7.781   6.032   7.871
26067SOL    HW280099   7.674   6.106   7.793
26068SOL     OW80100   9.039   1.719  10.021
26068SOL    HW180101   9.036   1.813  10.036
26068SOL    HW280102   9.087   1.684  10.096
26069SOL     OW80103  12.493   5.574   0.353
26069SOL    HW180104  12.423   5.621   0.399
26069SOL    HW280105  12.574   5.604   0.394
26070SOL     OW80106   7.585  11.393  11.808
26070SOL    HW180107   7.672  11.354  11.814
26070SOL    HW280108   7.537  11.336  11.749
26071SOL     OW80109   4.132   0.390   9.395
26071SOL    HW180110   4.056   0.419   9.445
26071SOL    HW280111   4.207   0.428   9.440
26072SOL     OW80112   0.202   5.016   1.138
26072SOL    HW180113   0.117   5.049   1.168
26072SOL    HW280114   0.266   5.076   1.177
26073SOL     OW80115  14.556   2.451   4.512
26073SOL    HW180116  14.577   2.379   4.453
26073SOL    HW280117  14.607   2.525   4.479
26074SOL     OW80118   5.525   1.327  10.073
26074SOL    HW180119   5.432   1.349  10.079
26074SOL    HW280120   5.557   1.329  10.163
26075SOL     OW80121  14.119   1.813  11.076
26075SOL    HW180122  14.160   1.785  11.157
26075SOL    HW280123  14.144   1.905  11.067
26076SOL     OW80124  12.569  11.036   4.201
26076SOL    HW180125  12.563  11.098   4.129
26076SOL    HW280126  12.541  11.085   4.278
26077SOL     OW80127   1.090   7.880   2.019
26077SOL    HW180128   1.134   7.855   2.101
26077SOL    HW280129   1.051   7.965   2.038
26078SOL     OW80130  10.164   5.619   7.365
26078SOL    HW180131  10.094   5.682   7.348
26078SOL    HW280132  10.122   5.534   7.359
26079SOL     OW80133   1.976  14.617  10.553
26079SOL    HW180134   2.070  14.616  10.570
26079SOL    HW280135   1.967  14.575  10.467
26080SOL     OW80136   5.018   2.801   9.966
26080SOL    HW180137   5.062   2.747   9.900
26080SOL    HW280138   5.005   2.742  10.040
26081SOL     OW80139   1.458  13.451   8.552
26081SOL    HW180140   1.377  13.407   8.579
26081SOL    HW280141   1.447  13.542   8.582
26082SOL     OW80142   1.863  11.021   0.321
26082SOL    HW180143   1.860  11.049   0.230
26082SOL    HW280144   1.862  10.925   0.317
26083SOL     OW80145   4.611   8.628   8.500
26083SOL    HW180146   4.657   8.695   8.451
26083SOL    HW280147   4.518   8.653   8.494
26084SOL     OW80148  11.334   8.014  10.648
26084SOL    HW180149  11.316   7.980  10.736
26084SOL    HW280150  11.404   8.077  10.661
26085SOL     OW80151   1.673  11.327   6.314
26085SOL    HW180152   1.711  11.414   6.302
26085SOL    HW280153   1.600  11.324   6.252
26086SOL     OW80154  10.346   1.083  13.911
26086SOL    HW180155  10.332   1.018  13.980
26086SOL    HW280156  10.266   1.079  13.858
26087SOL     OW80157   7.869  10.880   2.666
26087SOL    HW180158   7.871  10.976   2.655
26087SOL    HW280159   7.788  10.863   2.713
26088SOL     OW80160   5.169   3.972  11.987
26088SOL    HW180161   5.190   3.989  12.078
26088SOL    HW280162   5.200   4.050  11.940
26089SOL     OW80163   8.657   3.053  11.679
26089SOL    HW180164   8.658   3.121  11.611
26089SOL    HW280165   8.571   3.061  11.719
26090SOL     OW80166   1.234   7.475  10.274
26090SOL    HW180167   1.297   7.512  10.212
26090SOL    HW280168   1.277   7.396  10.306
26091SOL     OW80169   5.960   7.127   1.903
26091SOL    HW180170   6.036   7.101   1.955
26091SOL    HW280171   5.980   7.216   1.874
26092SOL     OW80172   3.843  12.141   9.143
26092SOL    HW180173   3.770  12.184   9.187
26092SOL    HW280174   3.803  12.069   9.095
26093SOL     OW80175   2.653   6.024  10.317
26093SOL    HW180176   2.670   5.976  10.398
26093SOL    HW280177   2.571   6.071  10.334
26094SOL     OW80178  10.068  13.578   5.675
26094SOL    HW180179  10.040  13.605   5.587
26094SOL    HW280180   9.990  13.537   5.713
26095SOL     OW80181   5.391   7.288   1.985
26095SOL    HW180182   5.318   7.239   1.949
26095SOL    HW280183   5.367   7.304   2.076
26096SOL     OW80184   8.355  14.328  14.722
26096SOL    HW180185   8.392  14.296  14.804
26096SOL    HW280186   8.271  14.366  14.747
26097SOL     OW80187  13.299  13.282  11.599
26097SOL    HW180188  13.312  13.318  11.512
26097SOL    HW280189  13.248  13.348  11.645
26098SOL     OW80190  12.659  14.840  14.534
26098SOL    HW180191  12.568  14.860  14.553
26098SOL    HW280192  12.664  14.744  14.540
26099SOL     OW80193   1.721   3.194   7.174
26099SOL    HW180194   1.671   3.226   7.098
26099SOL    HW280195   1.682   3.109   7.194
26100SOL     OW80196   1.187  14.597   6.133
26100SOL    HW180197   1.194  14.647   6.215
26100SOL    HW280198   1.268  14.618   6.086
26101SOL     OW80199   3.422   8.620   6.047
26101SOL    HW180200   3.380   8.580   5.972
26101SOL    HW280201   3.364   8.692   6.072
26102SOL     OW80202   1.316   6.214  11.244
26102SOL    HW180203   1.303   6.300  11.283
26102SOL    HW280204   1.408   6.212  11.219
26103SOL     OW80205   1.519   8.439   1.447
26103SOL    HW180206   1.447   8.435   1.383
26103SOL    HW280207   1.488   8.501   1.513
26104SOL     OW80208  10.226   3.045   5.981
26104SOL    HW180209  10.235   3.039   5.886
26104SOL    HW280210  10.229   2.954   6.011
26105SOL     OW80211   7.837  13.408   3.040
26105SOL    HW180212   7.819  13.501   3.042
26105SOL    HW280213   7.904  13.395   3.108
26106SOL     OW80214  13.914   7.992   8.461
26106SOL    HW180215  13.831   7.972   8.504
26106SOL    HW280216  13.947   7.908   8.431
26107SOL     OW80217  10.208   4.973   8.106
26107SOL    HW180218  10.203   5.008   8.195
26107SOL    HW280219  10.256   4.891   8.115
26108SOL     OW80220  14.493   0.293   6.006
26108SOL    HW180221  14.522   0.329   6.089
26108SOL    HW280222  14.399   0.280   6.017
26109SOL     OW80223  11.741   0.560   0.080
26109SOL    HW180224  11.800   0.507   0.026
26109SOL    HW280225  11.733   0.642   0.031
26110SOL     OW80226   4.014  12.297   7.126
26110SOL    HW180227   4.109  12.297   7.121
26110SOL    HW280228   3.993  12.374   7.179
26111SOL     OW80229  10.949   1.187  14.411
26111SOL    HW180230  10.897   1.111  14.384
26111SOL    HW280231  10.920   1.258  14.353
26112SOL     OW80232   7.212  10.708  14.826
26112SOL    HW180233   7.134  10.699  14.880
26112SOL    HW280234   7.285  10.700   0.007
26113SOL     OW80235   7.047   7.917   9.880
26113SOL    HW180236   7.079   7.959   9.959
26113SOL    HW280237   7.087   7.966   9.808
26114SOL     OW80238   4.882  10.933   8.407
26114SOL    HW180239   4.971  10.898   8.406
26114SOL    HW280240   4.874  10.974   8.494
26115SOL     OW80241   7.177   3.473  13.478
26115SOL    HW180242   7.088   3.454  13.449
26115SOL    HW280243   7.233   3.427  13.415
26116SOL     OW80244  12.383  12.585   6.600
26116SOL    HW180245  12.397  12.594   6.506
26116SOL    HW280246  12.450  12.522   6.628
26117SOL     OW80247   4.437   0.171   2.065
26117SOL    HW180248   4.455   0.216   1.982
26117SOL    HW280249   4.524   0.146   2.098
26118SOL     OW80250   2.959  12.595   1.680
26118SOL    HW180251   3.013  12.521   1.652
26118SOL    HW280252   2.869  12.567   1.661
26119SOL     OW80253   6.570   9.689   6.143
26119SOL    HW180254   6.477   9.697   6.123
26119SOL    HW280255   6.614   9.723   6.065
26120SOL     OW80256   3.494  14.747   4.134
26120SOL    HW180257   3.459  14.663   4.106
26120SOL    HW280258   3.511  14.737   4.228
26121SOL     OW80259  12.213  11.505   5.898
26121SOL    HW180260  12.185  11.547   5.817
26121SOL    HW280261  12.170  11.554   5.967
26122SOL     OW80262   1.736   8.508  12.383
26122SOL    HW180263   1.757   8.597  12.412
26122SOL    HW280264   1.645   8.513  12.353
26123SOL     OW80265   8.956   3.754   9.220
26123SOL    HW180266   8.908   3.835   9.236
26123SOL    HW280267   9.045   3.783   9.198
26124SOL     OW80268   8.080   7.502  11.783
26124SOL    HW180269   8.140   7.434  11.751
26124SOL    HW280270   8.138   7.568  11.821
26125SOL     OW80271   2.042   0.167  10.664
26125SOL    HW180272   2.002   0.200  10.744
26125SOL    HW280273   2.134   0.192  10.671
26126SOL     OW80274  13.440   7.790  13.516
26126SOL    HW180275  13.480   7.835  13.591
26126SOL    HW280276  13.398   7.713  13.554
26127SOL     OW80277  10.161   9.206  14.386
26127SOL    HW180278  10.171   9.287  14.336
26127SOL    HW280279  10.223   9.214  14.458
26128SOL     OW80280   8.314   9.109   4.035
26128SOL    HW180281   8.289   9.131   3.945
26128SOL    HW280282   8.287   9.185   4.086
26129SOL     OW80283   5.283   2.459   6.311
26129SOL    HW180284   5.281   2.368   6.340
26129SOL    HW280285   5.239   2.458   6.226
26130SOL     OW80286   9.706  14.104  14.046
26130SOL    HW180287   9.767  14.177  14.052
26130SOL    HW280288   9.754  14.029  14.081
26131SOL     OW80289   2.359   7.366  13.535
26131SOL    HW180290   2.326   7.328  13.454
26131SOL    HW280291   2.403   7.447  13.508
26132SOL     OW80292  12.826   2.443   5.951
26132SOL    HW180293  12.732   2.457   5.959
26132SOL    HW280294  12.863   2.531   5.940
26133SOL     OW80295  13.309   6.513  11.999
26133SOL    HW180296  13.398   6.510  12.034
26133SOL    HW280297  13.288   6.422  11.977
26134SOL     OW80298  13.509   5.986   7.812
26134SOL    HW180299  13.468   5.899   7.807
26134SOL    HW280300  13.448   6.043   7.766
26135SOL     OW80301  13.490   2.830   3.442
26135SOL    HW180302  13.547   2.890   3.491
26135SOL    HW280303  13.462   2.766   3.508
26136SOL     OW80304  13.659   7.792   8.325
26136SOL    HW180305  13.752   7.793   8.347
26136SOL    HW280306  13.647   7.712   8.273
26137SOL     OW80307   6.871   3.551  11.971
26137SOL    HW180308   6.846   3.458  11.975
26137SOL    HW280309   6.796   3.598  12.007
26138SOL     OW80310   0.009  12.126  12.264
26138SOL    HW180311   0.095  12.155  12.296
26138SOL    HW280312  14.828  12.157  12.331
26139SOL     OW80313   8.520   1.065   4.478
26139SOL    HW180314   8.436   1.110   4.471
26139SOL    HW280315   8.522   1.006   4.403
26140SOL     OW80316  10.760   3.905   9.382
26140SOL    HW180317  10.806   3.827   9.415
26140SOL    HW280318  10.808   3.979   9.420
26141SOL     OW80319   6.732  13.481   3.058
26141SOL    HW180320   6.671  13.481   2.984
26141SOL    HW280321   6.705  13.406   3.111
26142SOL     OW80322   3.506   3.248  11.380
26142SOL    HW180323   3.463   3.184  11.436
26142SOL    HW280324   3.599   3.242  11.404
26143SOL     OW80325   1.159  14.668   2.107
26143SOL    HW180326   1.219  14.618   2.051
26143SOL    HW280327   1.136  14.745   2.055
26144SOL     OW80328   0.304   4.412   1.345
26144SOL    HW180329   0.389   4.378   1.375
26144SOL    HW280330   0.326   4.463   1.267
26145SOL     OW80331  14.867  14.394  14.617
26145SOL    HW180332  14.823  14.321  14.661
26145SOL    HW280333  14.805  14.423  14.551
26146SOL     OW80334  14.685  10.362   5.256
26146SOL    HW180335  14.673  10.391   5.166
26146SOL    HW280336  14.626  10.417   5.308
26147SOL     OW80337   9.685   0.046   7.025
26147SOL    HW180338   9.715   0.075   6.939
26147SOL    HW280339   9.589   0.041   7.016
26148SOL     OW80340   7.617  10.395   0.150
26148SOL    HW180341   7.657  10.454   0.214
26148SOL    HW280342   7.601  10.450   0.073
26149SOL     OW80343  12.881   1.684   5.378
26149SOL    HW180344  12.829   1.711   5.302
26149SOL    HW280345  12.817   1.649   5.440
26150SOL     OW80346   7.639  10.046   1.990
26150SOL    HW180347   7.658  10.102   2.066
26150SOL    HW280348   7.725  10.028   1.951
26151SOL     OW80349  11.535  10.119   4.754
26151SOL    HW180350  11.569  10.048   4.808
26151SOL    HW280351  11.610  10.148   4.703
26152SOL     OW80352   0.661   0.253  12.324
26152SOL    HW180353   0.648   0.346  12.308
26152SOL    HW280354   0.750   0.236  12.294
26153SOL     OW80355   9.185  12.257   5.350
26153SOL    HW180356   9.092  12.279   5.356
26153SOL    HW280357   9.199  12.191   5.417
26154SOL     OW80358  11.871   4.614   6.234
26154SOL    HW180359  11.953   4.581   6.197
26154SOL    HW280360  11.867   4.576   6.322
26155SOL     OW80361   9.342  14.522   6.067
26155SOL    HW180362   9.369  14.510   5.977
26155SOL    HW280363   9.246  14.514   6.065
26156SOL     OW80364  10.565   7.354  11.523
26156SOL    HW180365  10.629   7.383  11.588
26156SOL    HW280366  10.489   7.412  11.536
26157SOL     OW80367   9.519   8.534  14.747
26157SOL    HW180368   9.488   8.451  14.710
26157SOL    HW280369   9.470   8.601  14.699
26158SOL     OW80370   8.846  10.404   5.429
26158SOL    HW180371   8.884  10.486   5.399
26158SOL    HW280372   8.919  10.358   5.470
26159SOL     OW80373   0.254   4.572   7.843
26159SOL    HW180374   0.315   4.552   7.772
26159SOL    HW280375   0.261   4.666   7.856
26160SOL     OW80376  12.199  14.310   6.058
26160SOL    HW180377  12.123  14.267   6.099
26160SOL    HW280378  12.231  14.245   5.995
26161SOL     OW80379  11.472   3.902   5.048
26161SOL    HW180380  11.454   3.964   5.119
26161SOL    HW280381  11.555   3.862   5.073
26162SOL     OW80382   6.098   4.518   2.148
26162SOL    HW180383   6.057   4.495   2.232
26162SOL    HW280384   6.028   4.560   2.099
26163SOL     OW80385   1.636  11.747   1.061
26163SOL    HW180386   1.547  11.763   1.092
26163SOL    HW280387   1.640  11.792   0.977
26164SOL     OW80388   5.583  11.397   7.040
26164SOL    HW180389   5.518  11.445   6.988
26164SOL    HW280390   5.562  11.419   7.131
26165SOL     OW80391   5.131  11.716   8.832
26165SOL    HW180392   5.158  11.691   8.920
26165SOL    HW280393   5.075  11.644   8.803
26166SOL     OW80394   6.480  11.972   5.241
26166SOL    HW180395   6.523  11.982   5.156
26166SOL    HW280396   6.454  11.880   5.245
26167SOL     OW80397   3.063   8.328   4.310
26167SOL    HW180398   3.035   8.387   4.240
26167SOL    HW280399   3.148   8.296   4.281
26168SOL     OW80400   0.290   6.174   0.264
26168SOL    HW180401   0.260   6.134   0.183
26168SOL    HW280402   0.264   6.113   0.333
26169SOL     OW80403  11.314  14.489   9.302
26169SOL    HW180404  11.409  14.496   9.308
26169SOL    HW280405  11.287  14.568   9.254
26170SOL     OW80406  10.947   3.856   4.761
26170SOL    HW180407  11.010   3.816   4.700
26170SOL    HW280408  10.989   3.937   4.789
26171SOL     OW80409   1.307  12.406   3.473
26171SOL    HW180410   1.267  12.388   3.388
26171SOL    HW280411   1.326  12.499   3.472
26172SOL     OW80412   8.650   5.559  11.835
26172SOL    HW180413   8.690   5.568  11.749
26172SOL    HW280414   8.614   5.470  11.835
26173SOL     OW80415   5.165   1.418  14.735
26173SOL    HW180416   5.079   1.406  14.775
26173SOL    HW280417   5.206   1.489  14.785
26174SOL     OW80418  11.352   4.834   8.059
26174SOL    HW180419  11.270   4.788   8.042
26174SOL    HW280420  11.419   4.767   8.048
26175SOL     OW80421  10.432   4.453   3.603
26175SOL    HW180422  10.387   4.535   3.588
26175SOL    HW280423  10.455   4.455   3.696
26176SOL     OW80424  13.342   9.727   3.177
26176SOL    HW180425  13.318   9.645   3.134
26176SOL    HW280426  13.423   9.754   3.134
26177SOL     OW80427   7.729   8.262   7.661
26177SOL    HW180428   7.743   8.321   7.587
26177SOL    HW280429   7.812   8.263   7.708
26178SOL     OW80430   2.578   8.475   0.146
26178SOL    HW180431   2.500   8.461   0.199
26178SOL    HW280432   2.636   8.401   0.167
26179SOL     OW80433   0.461   2.531   6.180
26179SOL    HW180434   0.485   2.509   6.090
26179SOL    HW280435   0.380   2.581   6.172
26180SOL     OW80436  10.406  12.865  14.862
26180SOL    HW180437  10.393  12.928   0.052
26180SOL    HW280438  10.341  12.796  14.879
26181SOL     OW80439   3.458  13.611  13.878
26181SOL    HW180440   3.522  13.670  13.837
26181SOL    HW280441   3.510  13.559  13.940
26182SOL     OW80442  10.188  13.323   2.410
26182SOL    HW180443  10.195  13.309   2.316
26182SOL    HW280444  10.094  13.316   2.428
26183SOL     OW80445   9.443  11.177  13.531
26183SOL    HW180446   9.355  11.150  13.559
26183SOL    HW280447   9.463  11.253  13.586
26184SOL     OW80448   6.102  11.738   2.698
26184SOL    HW180449   6.085  11.654   2.739
26184SOL    HW280450   6.184  11.768   2.738
26185SOL     OW80451   9.231   4.255   3.102
26185SOL    HW180452   9.148   4.302   3.087
26185SOL    HW280453   9.211   4.194   3.173
26186SOL     OW80454   4.701   1.851   2.917
26186SOL    HW180455   4.793   1.871   2.934
26186SOL    HW280456   4.664   1.830   3.002
26187SOL     OW80457   0.114  12.819   1.140
26187SOL    HW180458   0.142  12.742   1.190
26187SOL    HW280459   0.151  12.893   1.188
26188SOL     OW80460  14.728   3.163   4.732
26188SOL    HW180461  14.683   3.237   4.691
26188SOL    HW280462  14.785   3.129   4.664
26189SOL     OW80463   6.609   3.050  10.053
26189SOL    HW180464   6.604   2.956  10.035
26189SOL    HW280465   6.683   3.060  10.112
26190SOL     OW80466   8.487  10.560   3.647
26190SOL    HW180467   8.528  10.609   3.576
26190SOL    HW280468   8.548  10.568   3.720
26191SOL     OW80469  10.769  10.670  12.107
26191SOL    HW180470  10.689  10.626  12.138
26191SOL    HW280471  10.840  10.626  12.155
26192SOL     OW80472  14.544  10.810   9.903
26192SOL    HW180473  14.522  10.835   9.993
26192SOL    HW280474  14.609  10.874   9.876
26193SOL     OW80475   2.958  11.378   7.542
26193SOL    HW180476   2.910  11.403   7.621
26193SOL    HW280477   2.952  11.282   7.540
26194SOL     OW80478   4.258   0.544   0.664
26194SOL    HW180479   4.213   0.483   0.605
26194SOL    HW280480   4.233   0.631   0.632
26195SOL     OW80481   2.365  11.263   2.443
26195SOL    HW180482   2.439  11.219   2.485
26195SOL    HW280483   2.337  11.204   2.374
26196SOL     OW80484   6.733   4.457   8.567
26196SOL    HW180485   6.641   4.431   8.579
26196SOL    HW280486   6.769   4.389   8.510
26197SOL     OW80487   8.684   1.703  10.560
26197SOL    HW180488   8.716   1.784  10.519
26197SOL    HW280489   8.682   1.724  10.654
26198SOL     OW80490   0.634  13.654   4.039
26198SOL    HW180491   0.620  13.737   3.995
26198SOL    HW280492   0.707  13.614   3.992
26199SOL     OW80493   5.047   7.157  14.151
26199SOL    HW180494   4.957   7.126  14.159
26199SOL    HW280495   5.041   7.251  14.170
26200SOL     OW80496   2.861   8.628   2.970
26200SOL    HW180497   2.890   8.586   2.889
26200SOL    HW280498   2.897   8.717   2.966
26201SOL     OW80499  14.120  10.221   6.877
26201SOL    HW180500  14.147  10.301   6.922
26201SOL    HW280501  14.036  10.243   6.838
26202SOL     OW80502   9.493   9.464   5.689
26202SOL    HW180503   9.451   9.550   5.688
26202SOL    HW280504   9.579   9.479   5.651
26203SOL     OW80505   3.248   6.942   1.755
26203SOL    HW180506   3.260   6.850   1.729
26203SOL    HW280507   3.300   6.951   1.834
26204SOL     OW80508  11.061   5.330   1.864
26204SOL    HW180509  11.098   5.391   1.927
26204SOL    HW280510  11.112   5.249   1.875
26205SOL     OW80511  14.505   5.478  10.567
26205SOL    HW180512  14.512   5.573  10.570
26205SOL    HW280513  14.579   5.450  10.513
26206SOL     OW80514   5.903  14.031   8.562
26206SOL    HW180515   5.910  14.127   8.557
26206SOL    HW280516   5.909  14.002   8.471
26207SOL     OW80517   9.248   4.103  13.479
26207SOL    HW180518   9.189   4.029  13.491
26207SOL    HW280519   9.198   4.178  13.511
26208SOL     OW80520   8.388   2.950   6.447
26208SOL    HW180521   8.323   2.999   6.396
26208SOL    HW280522   8.365   2.858   6.433
26209SOL     OW80523  14.270   6.650   3.353
26209SOL    HW180524  14.365   6.661   3.347
26209SOL    HW280525  14.257   6.600   3.434
26210SOL     OW80526   4.965   3.022   2.288
26210SOL    HW180527   4.885   3.039   2.238
26210SOL    HW280528   4.952   2.935   2.325
26211SOL     OW80529   1.412  12.487   9.212
26211SOL    HW180530   1.446  12.529   9.291
26211SOL    HW280531   1.432  12.548   9.141
26212SOL     OW80532   6.933   5.219   4.120
26212SOL    HW180533   6.881   5.258   4.190
26212SOL    HW280534   7.004   5.174   4.165
26213SOL     OW80535  12.376   6.465  13.899
26213SOL    HW180536  12.290   6.499  13.876
26213SOL    HW280537  12.411   6.429  13.817
26214SOL     OW80538  12.303  12.530   4.656
26214SOL    HW180539  12.262  12.615   4.675
26214SOL    HW280540  12.258  12.468   4.713
26215SOL     OW80541   5.320   2.952   6.497
26215SOL    HW180542   5.300   3.042   6.471
26215SOL    HW280543   5.401   2.959   6.547
26216SOL     OW80544  10.222   2.777   4.845
26216SOL    HW180545  10.234   2.775   4.940
26216SOL    HW280546  10.127   2.784   4.834
26217SOL     OW80547  12.530   0.965  12.260
26217SOL    HW180548  12.566   0.956  12.172
26217SOL    HW280549  12.511   1.058  12.269
26218SOL     OW80550  10.690   3.315   4.702
26218SOL    HW180551  10.671   3.238   4.649
26218SOL    HW280552  10.717   3.280   4.787
26219SOL     OW80553   8.375   3.930   0.102
26219SOL    HW180554   8.441   3.962   0.163
26219SOL    HW280555   8.294   3.973   0.130
26220SOL     OW80556   9.755   4.054   3.423
26220SOL    HW180557   9.749   4.149   3.416
26220SOL    HW280558   9.765   4.038   3.517
26221SOL     OW80559   8.290  14.619   5.070
26221SOL    HW180560   8.291  14.662   5.155
26221SOL    HW280561   8.343  14.540   5.081
26222SOL     OW80562   6.927   6.816  10.223
26222SOL    HW180563   6.937   6.757  10.148
26222SOL    HW280564   6.980   6.892  10.200
26223SOL     OW80565   6.318  10.117   8.404
26223SOL    HW180566   6.325  10.204   8.443
26223SOL    HW280567   6.387  10.065   8.446
26224SOL     OW80568   0.593   1.626   7.174
26224SOL    HW180569   0.587   1.592   7.264
26224SOL    HW280570   0.534   1.702   7.174
26225SOL     OW80571   2.871  14.491   4.002
26225SOL    HW180572   2.936  14.559   4.022
26225SOL    HW280573   2.921  14.410   3.999
26226SOL     OW80574  12.918   2.482   4.142
26226SOL    HW180575  12.860   2.520   4.208
26226SOL    HW280576  12.909   2.388   4.154
26227SOL     OW80577  12.834  10.041  13.590
26227SOL    HW180578  12.812  10.104  13.658
26227SOL    HW280579  12.895  10.087  13.533
26228SOL     OW80580   9.956   5.111   4.813
26228SOL    HW180581   9.983   5.046   4.878
26228SOL    HW280582  10.034   5.126   4.760
26229SOL     OW80583   5.251   0.577   5.933
26229SOL    HW180584   5.258   0.520   6.010
26229SOL    HW280585   5.169   0.552   5.892
26230SOL     OW80586  14.301  14.496   4.185
26230SOL    HW180587  14.239  14.529   4.249
26230SOL    HW280588  14.376  14.467   4.237
26231SOL     OW80589  14.110  14.087   2.629
26231SOL    HW180590  14.185  14.121   2.676
26231SOL    HW280591  14.050  14.056   2.697
26232SOL     OW80592   3.473   0.622   9.299
26232SOL    HW180593   3.513   0.613   9.386
26232SOL    HW280594   3.435   0.709   9.299
26233SOL     OW80595  12.701  14.392   1.114
26233SOL    HW180596  12.623  14.337   1.105
26233SOL    HW280597  12.675  14.462   1.174
26234SOL     OW80598   8.701   8.295   9.031
26234SOL    HW180599   8.676   8.369   9.086
26234SOL    HW280600   8.791   8.275   9.058
26235SOL     OW80601   8.073   2.598  12.145
26235SOL    HW180602   8.043   2.590  12.054
26235SOL    HW280603   8.099   2.689  12.154
26236SOL     OW80604   4.473   9.494   4.155
26236SOL    HW180605   4.506   9.516   4.242
26236SOL    HW280606   4.379   9.482   4.167
26237SOL     OW80607   0.054   8.424   3.187
26237SOL    HW180608   0.055   8.500   3.128
26237SOL    HW280609  14.867   8.367   3.151
26238SOL     OW80610  12.919  10.169   7.282
26238SOL    HW180611  12.865  10.091   7.297
26238SOL    HW280612  12.859  10.242   7.294
26239SOL     OW80613   3.899   1.117   6.375
26239SOL    HW180614   3.856   1.107   6.290
26239SOL    HW280615   3.878   1.207   6.402
26240SOL     OW80616  12.357   2.086   0.916
26240SOL    HW180617  12.351   2.005   0.967
26240SOL    HW280618  12.267   2.106   0.891
26241SOL     OW80619   8.564   4.192   3.080
26241SOL    HW180620   8.500   4.121   3.070
26241SOL    HW280621   8.641   4.149   3.116
26242SOL     OW80622   4.514   0.650  12.139
26242SOL    HW180623   4.473   0.680  12.058
26242SOL    HW280624   4.441   0.641  12.200
26243SOL     OW80625  12.619  11.633  10.973
26243SOL    HW180626  12.599  11.566  10.908
26243SOL    HW280627  12.565  11.708  10.946
26244SOL     OW80628   6.229  10.982  14.356
26244SOL    HW180629   6.177  10.989  14.276
26244SOL    HW280630   6.178  10.925  14.413
26245SOL     OW80631   6.471   5.712   8.328
26245SOL    HW180632   6.483   5.797   8.370
26245SOL    HW280633   6.534   5.711   8.256
26246SOL     OW80634  12.695   1.013   2.419
26246SOL    HW180635  12.729   0.998   2.331
26246SOL    HW280636  12.750   1.083   2.454
26247SOL     OW80637  11.313   3.467   3.427
26247SOL    HW180638  11.264   3.546   3.403
26247SOL    HW280639  11.371   3.451   3.353
26248SOL     OW80640  11.462  10.828  13.134
26248SOL    HW180641  11.449  10.736  13.109
26248SOL    HW280642  11.554  10.845  13.117
26249SOL     OW80643   5.933   9.962  10.976
26249SOL    HW180644   5.993   9.888  10.986
26249SOL    HW280645   5.872   9.953  11.049
26250SOL     OW80646   2.523   1.132   8.572
26250SOL    HW180647   2.582   1.148   8.646
26250SOL    HW280648   2.437   1.161   8.602
26251SOL     OW80649   9.900  10.663   7.675
26251SOL    HW180650   9.969  10.639   7.612
26251SOL    HW280651   9.947  10.712   7.743
26252SOL     OW80652   7.542  10.755   4.516
26252SOL    HW180653   7.538  10.816   4.589
26252SOL    HW280654   7.472  10.692   4.535
26253SOL     OW80655   9.128  13.690   3.160
26253SOL    HW180656   9.041  13.678   3.198
26253SOL    HW280657   9.186  13.644   3.221
26254SOL     OW80658  10.121   5.731  10.730
26254SOL    HW180659  10.089   5.817  10.705
26254SOL    HW280660  10.207   5.724  10.688
26255SOL     OW80661  13.368  12.316  11.224
26255SOL    HW180662  13.325  12.333  11.307
26255SOL    HW280663  13.451  12.275  11.247
26256SOL     OW80664   1.353  14.269   2.718
26256SOL    HW180665   1.362  14.194   2.659
26256SOL    HW280666   1.277  14.248   2.772
26257SOL     OW80667   1.110   7.020  13.847
26257SOL    HW180668   1.052   6.945  13.835
26257SOL    HW280669   1.051   7.094  13.862
26258SOL     OW80670  14.018   4.776  12.420
26258SOL    HW180671  14.005   4.836  12.347
26258SOL    HW280672  13.950   4.800  12.484
26259SOL     OW80673  10.145  13.486   7.836
26259SOL    HW180674  10.237  13.477   7.812
26259SOL    HW280675  10.114  13.560   7.784
26260SOL     OW80676   4.231  11.596   9.278
26260SOL    HW180677   4.267  11.684   9.289
26260SOL    HW280678   4.287  11.540   9.332
26261SOL     OW80679  10.326   9.196   5.510
26261SOL    HW180680  10.360   9.188   5.421
26261SOL    HW280681  10.392   9.155   5.565
26262SOL     OW80682  13.106   5.920   8.517
26262SOL    HW180683  13.097   5.833   8.479
26262SOL    HW280684  13.200   5.931   8.530
26263SOL     OW80685   6.434   8.652  13.310
26263SOL    HW180686   6.479   8.737  13.301
26263SOL    HW280687   6.383   8.661  13.390
26264SOL     OW80688   2.401  10.538   5.778
26264SOL    HW180689   2.415  10.631   5.792
26264SOL    HW280690   2.480  10.496   5.814
26265SOL     OW80691   9.988  11.375   1.758
26265SOL    HW180692  10.048  11.315   1.714
26265SOL    HW280693   9.950  11.428   1.688
26266SOL     OW80694  13.797   1.473  14.873
26266SOL    HW180695  13.779   1.399   0.050
26266SOL    HW280696  13.711   1.513  14.859
26267SOL     OW80697   8.269   7.595   7.644
26267SOL    HW180698   8.203   7.603   7.713
26267SOL    HW280699   8.246   7.663   7.581
26268SOL     OW80700   1.219   6.910   0.947
26268SOL    HW180701   1.227   6.821   0.981
26268SOL    HW280702   1.201   6.963   1.025
26269SOL     OW80703   3.053   1.032   9.959
26269SOL    HW180704   3.112   0.970   9.915
26269SOL    HW280705   3.109   1.081  10.018
26270SOL     OW80706   5.296  10.773   6.204
26270SOL    HW180707   5.210  10.815   6.196
26270SOL    HW280708   5.355  10.831   6.156
26271SOL     OW80709  11.595   0.279   3.322
26271SOL    HW180710  11.578   0.351   3.262
26271SOL    HW280711  11.532   0.211   3.296
26272SOL     OW80712  12.921   5.069   2.803
26272SOL    HW180713  12.992   5.128   2.830
26272SOL    HW280714  12.956   5.024   2.726
26273SOL     OW80715  10.333  12.627  12.348
26273SOL    HW180716  10.339  12.535  12.325
26273SOL    HW280717  10.424  12.657  12.348
26274SOL     OW80718   9.368   5.123   9.097
26274SOL    HW180719   9.325   5.058   9.153
26274SOL    HW280720   9.459   5.096   9.093
26275SOL     OW80721   4.527  13.921  13.563
26275SOL    HW180722   4.475  13.853  13.522
26275SOL    HW280723   4.541  13.986  13.493
26276SOL     OW80724   8.110   5.033  14.768
26276SOL    HW180725   8.081   5.105  14.824
26276SOL    HW280726   8.171   4.983  14.823
26277SOL     OW80727   8.467   5.768  14.234
26277SOL    HW180728   8.413   5.693  14.260
26277SOL    HW280729   8.556   5.743  14.259
26278SOL     OW80730   6.452   5.533   0.088
26278SOL    HW180731   6.423   5.557   0.000
26278SOL    HW280732   6.373   5.539   0.142
26279SOL     OW80733  12.811  13.437   3.646
26279SOL    HW180734  12.836  13.359   3.695
26279SOL    HW280735  12.894  13.478   3.622
26280SOL     OW80736  14.700  12.427  11.783
26280SOL    HW180737  14.715  12.503  11.839
26280SOL    HW280738  14.647  12.368  11.836
26281SOL     OW80739   9.595  13.986   0.810
26281SOL    HW180740   9.506  13.965   0.839
26281SOL    HW280741   9.650  13.916   0.846
26282SOL     OW80742   6.870  13.700   6.055
26282SOL    HW180743   6.901  13.791   6.045
26282SOL    HW280744   6.817  13.701   6.134
26283SOL     OW80745   2.036   5.874   7.157
26283SOL    HW180746   2.096   5.941   7.124
26283SOL    HW280747   1.965   5.872   7.092
26284SOL     OW80748   8.950   6.015   4.719
26284SOL    HW180749   8.927   5.930   4.682
26284SOL    HW280750   8.954   6.001   4.813
26285SOL     OW80751   7.965  14.853   0.959
26285SOL    HW180752   7.956  14.797   1.037
26285SOL    HW280753   7.895  14.825   0.901
26286SOL     OW80754  10.173   2.767   1.274
26286SOL    HW180755  10.196   2.765   1.181
26286SOL    HW280756  10.200   2.854   1.303
26287SOL     OW80757   5.946   6.150   0.358
26287SOL    HW180758   5.956   6.237   0.395
26287SOL    HW280759   6.031   6.108   0.372
26288SOL     OW80760  13.579  11.469  13.905
26288SOL    HW180761  13.669  11.501  13.914
26288SOL    HW280762  13.580  11.382  13.947
26289SOL     OW80763   8.562   5.960   7.091
26289SOL    HW180764   8.477   5.921   7.075
26289SOL    HW280765   8.599   5.909   7.163
26290SOL     OW80766   8.190  10.684  14.376
26290SOL    HW180767   8.236  10.607  14.344
26290SOL    HW280768   8.116  10.649  14.426
26291SOL     OW80769   2.828  13.474   0.017
26291SOL    HW180770   2.754  13.439  14.847
26291SOL    HW280771   2.814  13.442   0.106
26292SOL     OW80772   2.578  10.165  11.173
26292SOL    HW180773   2.576  10.167  11.268
26292SOL    HW280774   2.663  10.203  11.150
26293SOL     OW80775  13.353   5.824  10.176
26293SOL    HW180776  13.291   5.885  10.216
26293SOL    HW280777  13.343   5.840  10.082
26294SOL     OW80778   6.795  10.006   9.195
26294SOL    HW180779   6.811  10.084   9.142
26294SOL    HW280780   6.882   9.971   9.213
26295SOL     OW80781  10.011   5.451  13.399
26295SOL    HW180782  10.085   5.391  13.393
26295SOL    HW280783   9.955   5.430  13.324
26296SOL     OW80784  11.686   5.965   7.215
26296SOL    HW180785  11.623   5.931   7.152
26296SOL    HW280786  11.696   6.057   7.192
26297SOL     OW80787   7.421  14.819   1.362
26297SOL    HW180788   7.499  14.776   1.325
26297SOL    HW280789   7.455  14.870   1.436
26298SOL     OW80790  14.538   4.514   9.148
26298SOL    HW180791  14.595   4.531   9.073
26298SOL    HW280792  14.470   4.456   9.114
26299SOL     OW80793   2.185   9.033   0.539
26299SOL    HW180794   2.132   9.009   0.464
26299SOL    HW280795   2.170   8.962   0.602
26300SOL     OW80796   3.732  13.026   7.519
26300SOL    HW180797   3.645  13.065   7.530
26300SOL    HW280798   3.716  12.945   7.471
26301SOL     OW80799  12.499   9.186   3.580
26301SOL    HW180800  12.476   9.273   3.613
26301SOL    HW280801  12.493   9.195   3.485
26302SOL     OW80802   1.377   1.952   1.626
26302SOL    HW180803   1.452   1.932   1.682
26302SOL    HW280804   1.369   1.876   1.568
26303SOL     OW80805  14.616   2.981   8.902
26303SOL    HW180806  14.654   2.996   8.816
26303SOL    HW280807  14.604   2.886   8.907
26304SOL     OW80808   5.462   9.603   9.235
26304SOL    HW180809   5.439   9.545   9.163
26304SOL    HW280810   5.488   9.544   9.306
26305SOL     OW80811   7.343  13.983   7.802
26305SOL    HW180812   7.325  14.020   7.888
26305SOL    HW280813   7.262  13.939   7.776
26306SOL     OW80814   8.657   8.929   7.816
26306SOL    HW180815   8.616   8.842   7.817
26306SOL    HW280816   8.725   8.924   7.883
26307SOL     OW80817   9.181  14.230   1.442
26307SOL    HW180818   9.235  14.277   1.505
26307SOL    HW280819   9.188  14.138   1.467
26308SOL     OW80820  11.276   3.065   6.794
26308SOL    HW180821  11.191   3.058   6.837
26308SOL    HW280822  11.326   2.991   6.830
26309SOL     OW80823   9.567   3.726  13.987
26309SOL    HW180824   9.512   3.803  13.974
26309SOL    HW280825   9.515   3.653  13.953
26310SOL     OW80826   6.571   2.012   7.528
26310SOL    HW180827   6.588   2.059   7.446
26310SOL    HW280828   6.571   2.080   7.595
26311SOL     OW80829   4.369  13.098   1.565
26311SOL    HW180830   4.350  13.165   1.500
26311SOL    HW280831   4.390  13.019   1.515
26312SOL     OW80832   4.429   5.846  11.308
26312SOL    HW180833   4.469   5.766  11.273
26312SOL    HW280834   4.336   5.838  11.287
26313SOL     OW80835   1.763   2.373  10.290
26313SOL    HW180836   1.855   2.373  10.264
26313SOL    HW280837   1.737   2.281  10.285
26314SOL     OW80838   9.887  11.100   8.190
26314SOL    HW180839   9.881  11.114   8.095
26314SOL    HW280840   9.876  11.188   8.227
26315SOL     OW80841   2.557   7.399   9.480
26315SOL    HW180842   2.519   7.382   9.394
26315SOL    HW280843   2.516   7.481   9.509
26316SOL     OW80844   0.225  12.958  13.245
26316SOL    HW180845   0.303  13.002  13.213
26316SOL    HW280846   0.253  12.914  13.325
26317SOL     OW80847   1.464   1.954   5.128
26317SOL    HW180848   1.509   1.996   5.202
26317SOL    HW280849   1.450   1.864   5.157
26318SOL     OW80850   4.202  14.718   6.283
26318SOL    HW180851   4.215  14.794   6.341
26318SOL    HW280852   4.279  14.718   6.227
26319SOL     OW80853   0.626  10.327   2.761
26319SOL    HW180854   0.694  10.289   2.705
26319SOL    HW280855   0.544  10.309   2.715
26320SOL     OW80856   3.868   9.009   6.288
26320SOL    HW180857   3.842   8.918   6.305
26320SOL    HW280858   3.961   9.011   6.310
26321SOL     OW80859  10.615   3.023  10.418
26321SOL    HW180860  10.614   3.119  10.409
26321SOL    HW280861  10.632   2.991  10.330
26322SOL     OW80862  11.958   8.763   6.260
26322SOL    HW180863  11.909   8.761   6.342
26322SOL    HW280864  11.958   8.672   6.231
26323SOL     OW80865   2.776   8.187   0.519
26323SOL    HW180866   2.729   8.270   0.511
26323SOL    HW280867   2.831   8.184   0.441
26324SOL     OW80868   5.961  12.780  12.646
26324SOL    HW180869   5.893  12.848  12.649
26324SOL    HW280870   6.013  12.801  12.569
26325SOL     OW80871   2.911   2.245   0.901
26325SOL    HW180872   2.970   2.172   0.879
26325SOL    HW280873   2.875   2.220   0.986
26326SOL     OW80874   4.112   1.588   2.065
26326SOL    HW180875   4.200   1.590   2.029
26326SOL    HW280876   4.122   1.549   2.152
26327SOL     OW80877   2.142  12.766   2.894
26327SOL    HW180878   2.130  12.778   2.799
26327SOL    HW280879   2.235  12.744   2.904
26328SOL     OW80880  12.506   7.205   8.304
26328SOL    HW180881  12.541   7.256   8.230
26328SOL    HW280882  12.567   7.132   8.314
26329SOL     OW80883   4.007  11.573  13.697
26329SOL    HW180884   3.925  11.553  13.652
26329SOL    HW280885   3.980  11.599  13.785
26330SOL     OW80886   7.702  10.144   4.644
26330SOL    HW180887   7.772  10.079   4.642
26330SOL    HW280888   7.715  10.191   4.727
26331SOL     OW80889  12.828  12.494   0.057
26331SOL    HW180890  12.811  12.401   0.047
26331SOL    HW280891  12.751  12.537   0.019
26332SOL     OW80892   8.977   8.935   3.694
26332SOL    HW180893   9.063   8.900   3.718
26332SOL    HW280894   8.938   8.963   3.777
26333SOL     OW80895  13.791  10.606   8.289
26333SOL    HW180896  13.754  10.572   8.207
26333SOL    HW280897  13.716  10.645   8.334
26334SOL     OW80898  11.521   1.824   4.612
26334SOL    HW180899  11.581   1.759   4.649
26334SOL    HW280900  11.446   1.773   4.582
26335SOL     OW80901   2.976   8.026   7.779
26335SOL    HW180902   2.917   8.045   7.852
26335SOL    HW280903   3.059   8.004   7.821
26336SOL     OW80904  11.372   4.216   6.660
26336SOL    HW180905  11.301   4.262   6.614
26336SOL    HW280906  11.433   4.286   6.685
26337SOL     OW80907  13.512  11.402  14.345
26337SOL    HW180908  13.466  11.362  14.271
26337SOL    HW280909  13.601  11.416  14.312
26338SOL     OW80910   5.480   9.862  14.643
26338SOL    HW180911   5.568   9.825  14.642
26338SOL    HW280912   5.453   9.856  14.735
26339SOL     OW80913  14.316  14.390   9.671
26339SOL    HW180914  14.343  14.453   9.738
26339SOL    HW280915  14.254  14.332   9.716
26340SOL     OW80916   5.001   3.725   4.142
26340SOL    HW180917   4.989   3.677   4.224
26340SOL    HW280918   4.993   3.817   4.166
26341SOL     OW80919  12.894  10.318   3.091
26341SOL    HW180920  12.858  10.266   3.163
26341SOL    HW280921  12.917  10.254   3.024
26342SOL     OW80922  11.143   2.390  13.059
26342SOL    HW180923  11.097   2.461  13.013
26342SOL    HW280924  11.161   2.325  12.990
26343SOL     OW80925   8.106   5.530   8.656
26343SOL    HW180926   8.159   5.573   8.590
26343SOL    HW280927   8.073   5.451   8.612
26344SOL     OW80928   8.460   5.349   7.605
26344SOL    HW180929   8.446   5.257   7.628
26344SOL    HW280930   8.555   5.356   7.593
26345SOL     OW80931   7.481  11.216   4.243
26345SOL    HW180932   7.473  11.191   4.151
26345SOL    HW280933   7.444  11.141   4.291
26346SOL     OW80934   6.408  13.207  11.686
26346SOL    HW180935   6.491  13.161  11.680
26346SOL    HW280936   6.388  13.210  11.780
26347SOL     OW80937   9.805  11.859   6.472
26347SOL    HW180938   9.715  11.857   6.504
26347SOL    HW280939   9.825  11.952   6.462
26348SOL     OW80940  13.320  13.557   2.476
26348SOL    HW180941  13.407  13.593   2.492
26348SOL    HW280942  13.277  13.559   2.562
26349SOL     OW80943   7.771  10.426   1.794
26349SOL    HW180944   7.709  10.490   1.759
26349SOL    HW280945   7.729  10.341   1.779
26350SOL     OW80946   5.714  13.398   0.151
26350SOL    HW180947   5.806  13.402   0.125
26350SOL    HW280948   5.689  13.307   0.136
26351SOL     OW80949  13.790  13.625   0.573
26351SOL    HW180950  13.750  13.711   0.559
26351SOL    HW280951  13.791  13.585   0.486
26352SOL     OW80952   9.000   3.683   1.269
26352SOL    HW180953   8.931   3.625   1.237
26352SOL    HW280954   9.076   3.664   1.214
26353SOL     OW80955   0.731   7.368  11.884
26353SOL    HW180956   0.787   7.293  11.863
26353SOL    HW280957   0.691   7.346  11.968
26354SOL     OW80958   0.849   3.051   6.211
26354SOL    HW180959   0.936   3.040   6.250
26354SOL    HW280960   0.834   3.146   6.212
26355SOL     OW80961   7.575   0.610   2.688
26355SOL    HW180962   7.515   0.675   2.652
26355SOL    HW280963   7.658   0.658   2.697
26356SOL     OW80964   1.510   2.556  14.704
26356SOL    HW180965   1.513   2.513  14.618
26356SOL    HW280966   1.585   2.615  14.703
26357SOL     OW80967   1.175   6.589  11.992
26357SOL    HW180968   1.188   6.616  11.901
26357SOL    HW280969   1.093   6.631  12.017
26358SOL     OW80970   6.606   3.444   0.454
26358SOL    HW180971   6.592   3.446   0.548
26358SOL    HW280972   6.522   3.414   0.418
26359SOL     OW80973  12.212  10.443   7.284
26359SOL    HW180974  12.301  10.468   7.309
26359SOL    HW280975  12.164  10.439   7.367
26360SOL     OW80976  12.772   3.841   3.953
26360SOL    HW180977  12.735   3.770   3.901
26360SOL    HW280978  12.720   3.841   4.034
26361SOL     OW80979  14.324   3.175   7.303
26361SOL    HW180980  14.363   3.237   7.365
26361SOL    HW280981  14.311   3.095   7.354
26362SOL     OW80982   8.090  10.753   8.469
26362SOL    HW180983   8.051  10.674   8.433
26362SOL    HW280984   8.174  10.724   8.504
26363SOL     OW80985   6.618  14.540  10.815
26363SOL    HW180986   6.607  14.491  10.897
26363SOL    HW280987   6.596  14.630  10.838
26364SOL     OW80988  14.563   7.060  10.484
26364SOL    HW180989  14.603   6.973  10.492
26364SOL    HW280990  14.624   7.118  10.529
26365SOL     OW80991   0.267   1.235   4.993
26365SOL    HW180992   0.318   1.170   4.945
26365SOL    HW280993   0.185   1.242   4.944
26366SOL     OW80994   0.247   1.624  10.279
26366SOL    HW180995   0.295   1.565  10.222
26366SOL    HW280996   0.211   1.691  10.221
26367SOL     OW80997  10.366   1.041   3.387
26367SOL    HW180998  10.333   1.022   3.299
26367SOL    HW280999  10.287   1.046   3.441
26368SOL     OW81000   2.000  11.969   4.273
26368SOL    HW181001   2.024  11.878   4.258
26368SOL    HW281002   2.065  12.020   4.225
26369SOL     OW81003   7.289  11.678   6.129
26369SOL    HW181004   7.316  11.671   6.037
26369SOL    HW281005   7.371  11.670   6.179
26370SOL     OW81006   0.269  14.780   6.951
26370SOL    HW181007   0.244  14.687   6.950
26370SOL    HW281008   0.297  14.798   6.861
26371SOL     OW81009   6.439   8.703   3.678
26371SOL    HW181010   6.456   8.763   3.606
26371SOL    HW281011   6.346   8.679   3.667
26372SOL     OW81012   7.736  11.339   6.098
26372SOL    HW181013   7.735  11.434   6.098
26372SOL    HW281014   7.678  11.314   6.170
26373SOL     OW81015   5.388   9.400   6.685
26373SOL    HW181016   5.421   9.316   6.715
26373SOL    HW281017   5.384   9.392   6.590
26374SOL     OW81018   9.576  14.232   6.200
26374SOL    HW181019   9.544  14.212   6.288
26374SOL    HW281020   9.642  14.300   6.213
26375SOL     OW81021   5.581   3.826   7.384
26375SOL    HW181022   5.575   3.902   7.442
26375SOL    HW281023   5.596   3.752   7.443
26376SOL     OW81024   7.288   7.664  12.575
26376SOL    HW181025   7.373   7.686  12.537
26376SOL    HW281026   7.240   7.747  12.573
26377SOL     OW81027   7.532   9.117  13.408
26377SOL    HW181028   7.566   9.030  13.391
26377SOL    HW281029   7.488   9.111  13.493
26378SOL     OW81030  10.497   8.755   2.774
26378SOL    HW181031  10.516   8.692   2.843
26378SOL    HW281032  10.416   8.797   2.802
26379SOL     OW81033   8.447   0.855  14.735
26379SOL    HW181034   8.535   0.830  14.709
26379SOL    HW281035   8.390   0.794  14.688
26380SOL     OW81036  14.173   1.169  10.791
26380SOL    HW181037  14.093   1.165  10.739
26380SOL    HW281038  14.234   1.220  10.738
26381SOL     OW81039   5.424   5.249   7.279
26381SOL    HW181040   5.401   5.265   7.187
26381SOL    HW281041   5.343   5.264   7.327
26382SOL     OW81042   3.458  11.783   6.431
26382SOL    HW181043   3.458  11.741   6.516
26382SOL    HW281044   3.449  11.711   6.368
26383SOL     OW81045   5.292   4.164   9.510
26383SOL    HW181046   5.219   4.203   9.462
26383SOL    HW281047   5.364   4.165   9.448
26384SOL     OW81048   6.365   9.447  13.273
26384SOL    HW181049   6.428   9.380  13.299
26384SOL    HW281050   6.299   9.446  13.343
26385SOL     OW81051   2.922   1.087   4.865
26385SOL    HW181052   2.947   1.164   4.915
26385SOL    HW281053   2.826   1.084   4.872
26386SOL     OW81054  10.346   5.340  12.737
26386SOL    HW181055  10.420   5.287  12.767
26386SOL    HW281056  10.374   5.431  12.749
26387SOL     OW81057   9.217  11.000  13.622
26387SOL    HW181058   9.261  10.948  13.689
26387SOL    HW281059   9.169  10.936  13.569
26388SOL     OW81060   5.259   3.357   0.423
26388SOL    HW181061   5.269   3.437   0.371
26388SOL    HW281062   5.289   3.381   0.510
26389SOL     OW81063  14.389   9.164   3.307
26389SOL    HW181064  14.328   9.117   3.364
26389SOL    HW281065  14.357   9.147   3.218
26390SOL     OW81066  12.138  13.072   0.667
26390SOL    HW181067  12.218  13.022   0.682
26390SOL    HW281068  12.151  13.114   0.582
26391SOL     OW81069   1.752   5.862  10.426
26391SOL    HW181070   1.734   5.891  10.516
26391SOL    HW281071   1.839   5.822  10.431
26392SOL     OW81072   0.639   1.704  11.895
26392SOL    HW181073   0.691   1.716  11.816
26392SOL    HW281074   0.678   1.763  11.959
26393SOL     OW81075  14.221  12.103   5.312
26393SOL    HW181076  14.263  12.017   5.309
26393SOL    HW281077  14.182  12.107   5.399
26394SOL     OW81078  14.416   0.110  13.337
26394SOL    HW181079  14.438   0.165  13.262
26394SOL    HW281080  14.480   0.039  13.335
26395SOL     OW81081   2.056  10.695   1.753
26395SOL    HW181082   2.147  10.689   1.725
26395SOL    HW281083   2.044  10.620   1.811
26396SOL     OW81084   1.572   3.534   6.593
26396SOL    HW181085   1.557   3.529   6.688
26396SOL    HW281086   1.658   3.494   6.581
26397SOL     OW81087   8.265   6.971   6.289
26397SOL    HW181088   8.279   7.057   6.251
26397SOL    HW281089   8.345   6.952   6.337
26398SOL     OW81090   1.718   5.847   8.283
26398SOL    HW181091   1.722   5.870   8.190
26398SOL    HW281092   1.809   5.827   8.306
26399SOL     OW81093  13.534   8.077   9.168
26399SOL    HW181094  13.575   8.003   9.123
26399SOL    HW281095  13.452   8.092   9.122
26400SOL     OW81096   0.350   9.557   2.842
26400SOL    HW181097   0.440   9.568   2.873
26400SOL    HW281098   0.359   9.522   2.753
26401SOL     OW81099   0.662  10.097   8.555
26401SOL    HW181100   0.723  10.066   8.621
26401SOL    HW281101   0.662  10.193   8.564
26402SOL     OW81102   3.752   6.782   5.617
26402SOL    HW181103   3.778   6.695   5.647
26402SOL    HW281104   3.811   6.842   5.662
26403SOL     OW81105  12.664   4.930   0.728
26403SOL    HW181106  12.726   4.970   0.789
26403SOL    HW281107  12.578   4.959   0.759
26404SOL     OW81108   2.987  14.703   3.335
26404SOL    HW181109   3.076  14.705   3.300
26404SOL    HW281110   2.967  14.609   3.343
26405SOL     OW81111  10.200   9.099   6.218
26405SOL    HW181112  10.252   9.018   6.220
26405SOL    HW281113  10.129   9.083   6.280
26406SOL     OW81114  11.334   5.164  14.639
26406SOL    HW181115  11.267   5.188  14.575
26406SOL    HW281116  11.348   5.245  14.688
26407SOL     OW81117   1.858  11.665  14.845
26407SOL    HW181118   1.807  11.730  14.797
26407SOL    HW281119   1.876  11.705   0.049
26408SOL     OW81120   0.631   2.338   2.752
26408SOL    HW181121   0.677   2.411   2.711
26408SOL    HW281122   0.686   2.262   2.733
26409SOL     OW81123   5.677  12.336   3.884
26409SOL    HW181124   5.611  12.320   3.951
26409SOL    HW281125   5.753  12.370   3.931
26410SOL     OW81126   2.230  12.906   1.781
26410SOL    HW181127   2.285  12.870   1.851
26410SOL    HW281128   2.144  12.867   1.797
26411SOL     OW81129   5.088  13.085   9.281
26411SOL    HW181130   5.100  13.100   9.187
26411SOL    HW281131   4.993  13.079   9.292
26412SOL     OW81132   8.321   6.095   5.520
26412SOL    HW181133   8.268   6.174   5.511
26412SOL    HW281134   8.411   6.127   5.518
26413SOL     OW81135  10.955   5.747   0.735
26413SOL    HW181136  10.940   5.657   0.764
26413SOL    HW281137  11.048   5.761   0.750
26414SOL     OW81138   5.273   9.021  14.134
26414SOL    HW181139   5.255   9.097  14.079
26414SOL    HW281140   5.254   9.051  14.223
26415SOL     OW81141   7.954   0.692  10.607
26415SOL    HW181142   7.895   0.763  10.582
26415SOL    HW281143   7.986   0.718  10.694
26416SOL     OW81144   5.967  14.719   2.982
26416SOL    HW181145   5.970  14.640   2.928
26416SOL    HW281146   6.059  14.744   2.991
26417SOL     OW81147  11.807   7.016  13.438
26417SOL    HW181148  11.885   7.065  13.411
26417SOL    HW281149  11.838   6.962  13.511
26418SOL     OW81150  13.765  14.546   2.129
26418SOL    HW181151  13.780  14.463   2.175
26418SOL    HW281152  13.834  14.604   2.161
26419SOL     OW81153   1.402   6.504   4.880
26419SOL    HW181154   1.357   6.588   4.868
26419SOL    HW281155   1.470   6.521   4.945
26420SOL     OW81156  10.703  12.105   9.452
26420SOL    HW181157  10.779  12.067   9.495
26420SOL    HW281158  10.726  12.108   9.359
26421SOL     OW81159   7.249  13.007  11.955
26421SOL    HW181160   7.185  13.067  11.993
26421SOL    HW281161   7.324  13.011  12.014
26422SOL     OW81162   8.737  14.601   4.283
26422SOL    HW181163   8.807  14.569   4.340
26422SOL    HW281164   8.702  14.677   4.328
26423SOL     OW81165  11.844   2.107  13.214
26423SOL    HW181166  11.850   2.023  13.260
26423SOL    HW281167  11.788   2.089  13.139
26424SOL     OW81168  11.224  13.114   9.750
26424SOL    HW181169  11.313  13.081   9.749
26424SOL    HW281170  11.169  13.036   9.757
26425SOL     OW81171  10.981  10.941   5.426
26425SOL    HW181172  10.983  10.940   5.521
26425SOL    HW281173  11.066  10.907   5.399
26426SOL     OW81174   0.321   5.207   5.752
26426SOL    HW181175   0.255   5.194   5.683
26426SOL    HW281176   0.269   5.226   5.830
26427SOL     OW81177   3.507   6.777  14.171
26427SOL    HW181178   3.505   6.707  14.105
26427SOL    HW281179   3.589   6.823  14.154
26428SOL     OW81180   4.872  14.317  13.886
26428SOL    HW181181   4.876  14.252  13.956
26428SOL    HW281182   4.865  14.401  13.931
26429SOL     OW81183  13.414   6.710   7.091
26429SOL    HW181184  13.462   6.670   7.165
26429SOL    HW281185  13.475   6.705   7.018
26430SOL     OW81186  12.908   9.406   4.962
26430SOL    HW181187  12.824   9.372   4.930
26430SOL    HW281188  12.951   9.440   4.884
26431SOL     OW81189  12.495  11.571   5.849
26431SOL    HW181190  12.529  11.488   5.817
26431SOL    HW281191  12.409  11.580   5.807
26432SOL     OW81192  11.697  13.366   8.087
26432SOL    HW181193  11.731  13.323   8.009
26432SOL    HW281194  11.730  13.313   8.160
26433SOL     OW81195  13.800   1.144   2.134
26433SOL    HW181196  13.795   1.173   2.225
26433SOL    HW281197  13.885   1.102   2.126
26434SOL     OW81198   7.362   7.693   6.200
26434SOL    HW181199   7.429   7.635   6.164
26434SOL    HW281200   7.403   7.779   6.205
26435SOL     OW81201   2.048   2.300   9.890
26435SOL    HW181202   2.051   2.247   9.809
26435SOL    HW281203   2.012   2.384   9.862
26436SOL     OW81204   1.259   5.755   3.345
26436SOL    HW181205   1.205   5.683   3.313
26436SOL    HW281206   1.234   5.830   3.291
26437SOL     OW81207   8.250   1.287   5.048
26437SOL    HW181208   8.204   1.272   5.130
26437SOL    HW281209   8.282   1.377   5.053
26438SOL     OW81210   3.610   8.787  10.638
26438SOL    HW181211   3.636   8.721  10.573
26438SOL    HW281212   3.630   8.748  10.722
26439SOL     OW81213   2.843   8.142  13.338
26439SOL    HW181214   2.894   8.218  13.367
26439SOL    HW281215   2.864   8.132  13.246
26440SOL     OW81216   8.168  12.726   8.621
26440SOL    HW181217   8.139  12.764   8.538
26440SOL    HW281218   8.125  12.641   8.624
26441SOL     OW81219   5.473   1.060   8.717
26441SOL    HW181220   5.483   1.058   8.812
26441SOL    HW281221   5.562   1.053   8.683
26442SOL     OW81222  12.919   1.624   8.679
26442SOL    HW181223  12.972   1.576   8.615
26442SOL    HW281224  12.829   1.596   8.662
26443SOL     OW81225  14.139  12.506   1.326
26443SOL    HW181226  14.217  12.477   1.373
26443SOL    HW281227  14.166  12.588   1.285
26444SOL     OW81228  13.126   1.219  12.366
26444SOL    HW181229  13.119   1.304  12.409
26444SOL    HW281230  13.219   1.199  12.367
26445SOL     OW81231   0.680   1.772   2.939
26445SOL    HW181232   0.655   1.834   3.007
26445SOL    HW281233   0.712   1.696   2.987
26446SOL     OW81234   3.829   1.544  12.173
26446SOL    HW181235   3.863   1.628  12.141
26446SOL    HW281236   3.764   1.569  12.239
26447SOL     OW81237  13.216   3.758   6.130
26447SOL    HW181238  13.172   3.830   6.085
26447SOL    HW281239  13.307   3.763   6.100
26448SOL     OW81240  12.222   5.128   3.228
26448SOL    HW181241  12.195   5.211   3.189
26448SOL    HW281242  12.193   5.134   3.319
26449SOL     OW81243  12.561   4.170   8.685
26449SOL    HW181244  12.576   4.225   8.762
26449SOL    HW281245  12.647   4.160   8.645
26450SOL     OW81246   2.058   6.555   3.704
26450SOL    HW181247   1.985   6.601   3.745
26450SOL    HW281248   2.027   6.465   3.693
26451SOL     OW81249   3.824  12.400   0.461
26451SOL    HW181250   3.909  12.372   0.428
26451SOL    HW281251   3.764  12.387   0.387
26452SOL     OW81252  13.378   4.366  14.541
26452SOL    HW181253  13.437   4.442  14.545
26452SOL    HW281254  13.360   4.345  14.632
26453SOL     OW81255  10.522  13.064   7.038
26453SOL    HW181256  10.606  13.060   6.993
26453SOL    HW281257  10.476  13.138   6.998
26454SOL     OW81258  12.656   5.491   5.439
26454SOL    HW181259  12.721   5.559   5.419
26454SOL    HW281260  12.587   5.503   5.374
26455SOL     OW81261   0.253   5.993  14.608
26455SOL    HW181262   0.162   5.968  14.591
26455SOL    HW281263   0.301   5.910  14.610
26456SOL     OW81264   1.096   1.256   3.329
26456SOL    HW181265   1.139   1.334   3.365
26456SOL    HW281266   1.155   1.225   3.260
26457SOL     OW81267  14.597   0.749   9.174
26457SOL    HW181268  14.557   0.693   9.108
26457SOL    HW281269  14.637   0.688   9.236
26458SOL     OW81270   0.360   1.568  12.465
26458SOL    HW181271   0.331   1.507  12.532
26458SOL    HW281272   0.304   1.644  12.475
26459SOL     OW81273   7.123  14.531   3.333
26459SOL    HW181274   7.042  14.510   3.378
26459SOL    HW281275   7.098  14.593   3.265
26460SOL     OW81276   2.463   3.960   1.011
26460SOL    HW181277   2.482   3.945   1.103
26460SOL    HW281278   2.460   4.056   1.002
26461SOL     OW81279  10.181  11.937   7.978
26461SOL    HW181280  10.113  11.870   7.969
26461SOL    HW281281  10.258  11.899   7.936
26462SOL     OW81282  13.681   0.640   3.153
26462SOL    HW181283  13.753   0.649   3.215
26462SOL    HW281284  13.612   0.597   3.203
26463SOL     OW81285   4.342  13.242  11.577
26463SOL    HW181286   4.437  13.228  11.585
26463SOL    HW281287   4.319  13.203  11.493
26464SOL     OW81288   3.815  13.714   2.649
26464SOL    HW181289   3.898  13.673   2.626
26464SOL    HW281290   3.749  13.660   2.607
26465SOL     OW81291   1.456  10.112   1.243
26465SOL    HW181292   1.433  10.096   1.334
26465SOL    HW281293   1.526  10.176   1.247
26466SOL     OW81294   7.886   4.196  14.252
26466SOL    HW181295   7.812   4.145  14.285
26466SOL    HW281296   7.955   4.182  14.316
26467SOL     OW81297  14.466   2.265  11.281
26467SOL    HW181298  14.489   2.181  11.240
26467SOL    HW281299  14.550   2.308  11.295
26468SOL     OW81300  13.497   7.422   4.774
26468SOL    HW181301  13.460   7.452   4.857
26468SOL    HW281302  13.534   7.336   4.795
26469SOL     OW81303   5.804   7.664   6.058
26469SOL    HW181304   5.899   7.658   6.069
26469SOL    HW281305   5.790   7.748   6.016
26470SOL     OW81306   9.750   2.024  13.468
26470SOL    HW181307   9.675   1.972  13.440
26470SOL    HW281308   9.752   2.099  13.408
26471SOL     OW81309  14.009   9.932   2.840
26471SOL    HW181310  14.043  10.002   2.896
26471SOL    HW281311  14.003   9.972   2.753
26472SOL     OW81312   6.040  11.562  10.780
26472SOL    HW181313   6.030  11.560  10.684
26472SOL    HW281314   6.130  11.533  10.795
26473SOL     OW81315   4.296  13.459   2.109
26473SOL    HW181316   4.338  13.459   2.023
26473SOL    HW281317   4.346  13.521   2.161
26474SOL     OW81318  13.979  14.203   9.150
26474SOL    HW181319  14.033  14.253   9.211
26474SOL    HW281320  13.990  14.112   9.178
26475SOL     OW81321   8.244   0.262   6.204
26475SOL    HW181322   8.242   0.192   6.270
26475SOL    HW281323   8.263   0.341   6.254
26476SOL     OW81324   3.040   2.534   7.103
26476SOL    HW181325   3.106   2.507   7.166
26476SOL    HW281326   3.090   2.552   7.023
26477SOL     OW81327   5.827   5.168   5.151
26477SOL    HW181328   5.867   5.102   5.207
26477SOL    HW281329   5.771   5.118   5.091
26478SOL     OW81330   4.719  11.282  14.425
26478SOL    HW181331   4.799  11.234  14.405
26478SOL    HW281332   4.749  11.367  14.458
26479SOL     OW81333  14.824   9.742   8.407
26479SOL    HW181334   0.018   9.684   8.390
26479SOL    HW281335  14.835   9.769   8.499
26480SOL     OW81336  10.844   0.235  11.565
26480SOL    HW181337  10.788   0.229  11.642
26480SOL    HW281338  10.783   0.236  11.491
26481SOL     OW81339  10.138   2.060  11.986
26481SOL    HW181340  10.140   1.982  11.930
26481SOL    HW281341  10.076   2.039  12.055
26482SOL     OW81342   9.915   7.525   7.021
26482SOL    HW181343   9.911   7.457   6.953
26482SOL    HW281344   9.967   7.594   6.981
26483SOL     OW81345   5.192  12.483   1.178
26483SOL    HW181346   5.252  12.410   1.163
26483SOL    HW281347   5.229  12.555   1.128
26484SOL     OW81348   7.092  11.669  10.493
26484SOL    HW181349   7.171  11.694  10.542
26484SOL    HW281350   7.101  11.713  10.409
26485SOL     OW81351   7.950   0.955   6.844
26485SOL    HW181352   7.888   1.022   6.873
26485SOL    HW281353   7.976   0.910   6.924
26486SOL     OW81354   8.398   6.515   2.510
26486SOL    HW181355   8.477   6.539   2.461
26486SOL    HW281356   8.406   6.561   2.593
26487SOL     OW81357  11.931   1.295  14.228
26487SOL    HW181358  11.953   1.298  14.135
26487SOL    HW281359  11.874   1.371  14.241
26488SOL     OW81360   3.191   3.320  11.139
26488SOL    HW181361   3.269   3.266  11.127
26488SOL    HW281362   3.185   3.372  11.059
26489SOL     OW81363   9.390   2.675   8.195
26489SOL    HW181364   9.331   2.645   8.263
26489SOL    HW281365   9.443   2.743   8.237
26490SOL     OW81366   1.733  14.393   1.594
26490SOL    HW181367   1.783  14.327   1.643
26490SOL    HW281368   1.791  14.417   1.522
26491SOL     OW81369   6.751   2.818   7.688
26491SOL    HW181370   6.732   2.768   7.608
26491SOL    HW281371   6.721   2.906   7.668
26492SOL     OW81372  12.668   0.314   4.612
26492SOL    HW181373  12.699   0.225   4.628
26492SOL    HW281374  12.697   0.333   4.523
26493SOL     OW81375   0.530   7.283  10.583
26493SOL    HW181376   0.624   7.273  10.596
26493SOL    HW281377   0.490   7.220  10.642
26494SOL     OW81378   6.842   6.756   3.054
26494SOL    HW181379   6.936   6.761   3.069
26494SOL    HW281380   6.804   6.809   3.123
26495SOL     OW81381   4.190   1.233  11.073
26495SOL    HW181382   4.255   1.230  11.003
26495SOL    HW281383   4.234   1.193  11.149
26496SOL     OW81384  13.542  10.699   3.505
26496SOL    HW181385  13.557  10.789   3.534
26496SOL    HW281386  13.492  10.659   3.576
26497SOL     OW81387  14.643   6.164   5.159
26497SOL    HW181388  14.563   6.215   5.143
26497SOL    HW281389  14.708   6.202   5.099
26498SOL     OW81390   5.567  13.346  14.100
26498SOL    HW181391   5.474  13.348  14.078
26498SOL    HW281392   5.609  13.311  14.021
26499SOL     OW81393   4.489   7.553  10.024
26499SOL    HW181394   4.428   7.511   9.963
26499SOL    HW281395   4.554   7.485  10.044
26500SOL     OW81396  14.232   8.528  11.550
26500SOL    HW181397  14.226   8.436  11.577
26500SOL    HW281398  14.322   8.553  11.572
26501SOL     OW81399   8.591  13.173   7.428
26501SOL    HW181400   8.507  13.157   7.471
26501SOL    HW281401   8.589  13.267   7.406
26502SOL     OW81402   6.112   4.015   4.024
26502SOL    HW181403   6.108   3.948   4.092
26502SOL    HW281404   6.073   4.093   4.064
26503SOL     OW81405   1.125  14.190   2.878
26503SOL    HW181406   1.071  14.196   2.800
26503SOL    HW281407   1.119  14.099   2.905
26504SOL     OW81408  11.532   2.654   1.835
26504SOL    HW181409  11.529   2.596   1.911
26504SOL    HW281410  11.622   2.688   1.833
26505SOL     OW81411   6.509  10.843   5.124
26505SOL    HW181412   6.560  10.888   5.056
26505SOL    HW281413   6.460  10.913   5.167
26506SOL     OW81414   6.510   6.880  11.252
26506SOL    HW181415   6.582   6.860  11.192
26506SOL    HW281416   6.431   6.862  11.200
26507SOL     OW81417   3.541   1.643   2.219
26507SOL    HW181418   3.618   1.586   2.216
26507SOL    HW281419   3.517   1.656   2.128
26508SOL     OW81420  11.000   1.676   9.945
26508SOL    HW181421  10.914   1.635   9.957
26508SOL    HW281422  11.039   1.629   9.872
26509SOL     OW81423  12.107   7.629   1.122
26509SOL    HW181424  12.085   7.719   1.100
26509SOL    HW281425  12.195   7.634   1.158
26510SOL     OW81426   7.119   8.756  12.024
26510SOL    HW181427   7.112   8.724  11.934
26510SOL    HW281428   7.043   8.720  12.068
26511SOL     OW81429   8.542  14.670   8.325
26511SOL    HW181430   8.620  14.616   8.319
26511SOL    HW281431   8.528  14.682   8.420
26512SOL     OW81432   6.750  14.647   6.299
26512SOL    HW181433   6.673  14.678   6.252
26512SOL    HW281434   6.717  14.616   6.383
26513SOL     OW81435  13.246   7.185   9.355
26513SOL    HW181436  13.332   7.213   9.325
26513SOL    HW281437  13.265   7.116   9.419
26514SOL     OW81438   1.893   8.707   5.184
26514SOL    HW181439   1.819   8.764   5.206
26514SOL    HW281440   1.852   8.625   5.158
26515SOL     OW81441   8.216  14.477   6.558
26515SOL    HW181442   8.303  14.441   6.539
26515SOL    HW281443   8.214  14.559   6.510
26516SOL     OW81444  12.652   1.539  13.508
26516SOL    HW181445  12.589   1.515  13.440
26516SOL    HW281446  12.685   1.456  13.541
26517SOL     OW81447   2.959   7.032   7.383
26517SOL    HW181448   2.935   7.016   7.474
26517SOL    HW281449   2.924   7.119   7.364
26518SOL     OW81450   4.358  13.149   4.468
26518SOL    HW181451   4.380  13.240   4.447
26518SOL    HW281452   4.402  13.098   4.400
26519SOL     OW81453   6.305   1.343   5.495
26519SOL    HW181454   6.281   1.434   5.480
26519SOL    HW281455   6.336   1.340   5.586
26520SOL     OW81456   7.684   1.187   5.861
26520SOL    HW181457   7.630   1.185   5.940
26520SOL    HW281458   7.773   1.202   5.893
26521SOL     OW81459   2.851   1.554   3.891
26521SOL    HW181460   2.805   1.476   3.921
26521SOL    HW281461   2.894   1.527   3.810
26522SOL     OW81462   0.834   9.265   9.170
26522SOL    HW181463   0.892   9.287   9.243
26522SOL    HW281464   0.873   9.309   9.094
26523SOL     OW81465   8.723   1.207  11.547
26523SOL    HW181466   8.672   1.253  11.480
26523SOL    HW281467   8.657   1.161  11.600
26524SOL     OW81468   8.686   1.064  12.463
26524SOL    HW181469   8.719   1.147  12.429
26524SOL    HW281470   8.758   1.002  12.448
26525SOL     OW81471   4.138   4.265   1.846
26525SOL    HW181472   4.161   4.357   1.856
26525SOL    HW281473   4.169   4.241   1.759
26526SOL     OW81474   0.111   2.273   8.801
26526SOL    HW181475   0.134   2.268   8.894
26526SOL    HW281476   0.018   2.298   8.800
26527SOL     OW81477   7.313   8.338  14.764
26527SOL    HW181478   7.304   8.263  14.706
26527SOL    HW281479   7.347   8.408  14.707
26528SOL     OW81480   1.071   5.400  10.601
26528SOL    HW181481   1.153   5.364  10.636
26528SOL    HW281482   1.005   5.375  10.665
26529SOL     OW81483   8.769   6.587   0.696
26529SOL    HW181484   8.756   6.585   0.602
26529SOL    HW281485   8.684   6.614   0.731
26530SOL     OW81486   0.985   1.144  12.818
26530SOL    HW181487   0.952   1.088  12.888
26530SOL    HW281488   1.074   1.165  12.844
26531SOL     OW81489   8.034   2.510   7.014
26531SOL    HW181490   8.101   2.499   6.947
26531SOL    HW281491   8.081   2.544   7.090
26532SOL     OW81492   4.429   3.176  10.671
26532SOL    HW181493   4.421   3.111  10.601
26532SOL    HW281494   4.425   3.125  10.751
26533SOL     OW81495   5.143  12.039  10.631
26533SOL    HW181496   5.221  12.007  10.585
26533SOL    HW281497   5.081  11.965  10.628
26534SOL     OW81498  13.957   8.956   9.146
26534SOL    HW181499  14.010   9.036   9.141
26534SOL    HW281500  14.015   8.887   9.114
26535SOL     OW81501   9.286  14.062   5.298
26535SOL    HW181502   9.354  14.050   5.232
26535SOL    HW281503   9.205  14.033   5.255
26536SOL     OW81504   3.423   5.686   2.506
26536SOL    HW181505   3.341   5.670   2.552
26536SOL    HW281506   3.406   5.765   2.455
26537SOL     OW81507  12.175   6.058   1.006
26537SOL    HW181508  12.080   6.070   0.998
26537SOL    HW281509  12.197   6.097   1.091
26538SOL     OW81510   7.745   5.776   0.080
26538SOL    HW181511   7.746   5.767   0.175
26538SOL    HW281512   7.744   5.686   0.048
26539SOL     OW81513   3.644  13.994  12.628
26539SOL    HW181514   3.571  13.947  12.667
26539SOL    HW281515   3.674  13.937  12.557
26540SOL     OW81516   3.143   6.383   5.969
26540SOL    HW181517   3.236   6.358   5.968
26540SOL    HW281518   3.136   6.447   6.040
26541SOL     OW81519  12.990   1.029   2.336
26541SOL    HW181520  13.012   1.077   2.415
26541SOL    HW281521  13.020   0.940   2.353
26542SOL     OW81522  13.299  10.584   2.716
26542SOL    HW181523  13.351  10.511   2.748
26542SOL    HW281524  13.349  10.662   2.742
26543SOL     OW81525   9.593   2.690   3.400
26543SOL    HW181526   9.527   2.699   3.469
26543SOL    HW281527   9.572   2.761   3.338
26544SOL     OW81528  12.543  12.294   7.003
26544SOL    HW181529  12.497  12.229   7.055
26544SOL    HW281530  12.555  12.253   6.918
26545SOL     OW81531   4.261   1.991   5.596
26545SOL    HW181532   4.217   1.938   5.663
26545SOL    HW281533   4.355   1.975   5.611
26546SOL     OW81534   9.373   6.937   1.784
26546SOL    HW181535   9.329   6.979   1.858
26546SOL    HW281536   9.417   6.861   1.823
26547SOL     OW81537   7.340   5.856   2.562
26547SOL    HW181538   7.324   5.797   2.488
26547SOL    HW281539   7.265   5.915   2.561
26548SOL     OW81540   0.088  10.682  10.286
26548SOL    HW181541   0.139  10.617  10.236
26548SOL    HW281542   0.002  10.642  10.296
26549SOL     OW81543   4.127   8.833   7.641
26549SOL    HW181544   4.165   8.908   7.595
26549SOL    HW281545   4.120   8.764   7.574
26550SOL     OW81546   7.928  14.054  11.768
26550SOL    HW181547   7.937  14.089  11.857
26550SOL    HW281548   7.979  14.114  11.713
26551SOL     OW81549   1.973   4.706   0.660
26551SOL    HW181550   1.888   4.745   0.643
26551SOL    HW281551   1.982   4.709   0.755
26552SOL     OW81552   6.232   8.546  12.776
26552SOL    HW181553   6.283   8.626  12.788
26552SOL    HW281554   6.279   8.497  12.709
26553SOL     OW81555   2.472   0.794  10.822
26553SOL    HW181556   2.543   0.783  10.885
26553SOL    HW281557   2.409   0.725  10.845
26554SOL     OW81558   8.406   4.106   3.939
26554SOL    HW181559   8.424   4.148   4.023
26554SOL    HW281560   8.316   4.130   3.918
26555SOL     OW81561  10.350   4.489   5.185
26555SOL    HW181562  10.363   4.438   5.265
26555SOL    HW281563  10.358   4.425   5.114
26556SOL     OW81564   0.265   6.096   2.616
26556SOL    HW181565   0.300   6.176   2.576
26556SOL    HW281566   0.315   6.087   2.697
26557SOL     OW81567  10.944  13.575   5.346
26557SOL    HW181568  10.920  13.667   5.337
26557SOL    HW281569  10.901  13.546   5.427
26558SOL     OW81570   7.630   9.063   5.957
26558SOL    HW181571   7.553   9.051   5.901
26558SOL    HW281572   7.597   9.050   6.046
26559SOL     OW81573   9.284   0.938  13.152
26559SOL    HW181574   9.320   1.010  13.100
26559SOL    HW281575   9.351   0.919  13.217
26560SOL     OW81576  11.623   8.098   2.677
26560SOL    HW181577  11.597   8.009   2.702
26560SOL    HW281578  11.703   8.086   2.626
26561SOL     OW81579   7.552  13.942  14.082
26561SOL    HW181580   7.633  13.903  14.049
26561SOL    HW281581   7.530  13.890  14.160
26562SOL     OW81582  14.170   0.217   1.102
26562SOL    HW181583  14.244   0.277   1.112
26562SOL    HW281584  14.137   0.204   1.190
26563SOL     OW81585  10.847   8.090   6.344
26563SOL    HW181586  10.803   8.068   6.262
26563SOL    HW281587  10.798   8.164   6.379
26564SOL     OW81588  13.469  10.656  12.397
26564SOL    HW181589  13.453  10.727  12.336
26564SOL    HW281590  13.395  10.596  12.385
26565SOL     OW81591   1.511   6.015   9.975
26565SOL    HW181592   1.453   5.993  10.049
26565SOL    HW281593   1.598   5.990  10.005
26566SOL     OW81594   0.023  12.272  12.990
26566SOL    HW181595   0.027  12.217  13.068
26566SOL    HW281596   0.114  12.291  12.969
26567SOL     OW81597   4.527   8.032   1.826
26567SOL    HW181598   4.491   7.970   1.890
26567SOL    HW281599   4.474   8.019   1.748
26568SOL     OW81600  13.736   7.722   5.839
26568SOL    HW181601  13.780   7.650   5.882
26568SOL    HW281602  13.788   7.739   5.761
26569SOL     OW81603   1.084  14.860   7.579
26569SOL    HW181604   1.032   0.054   7.609
26569SOL    HW281605   1.019  14.798   7.544
26570SOL     OW81606   2.929   9.709   1.369
26570SOL    HW181607   3.005   9.680   1.319
26570SOL    HW281608   2.870   9.746   1.303
26571SOL     OW81609   3.735  11.888   0.583
26571SOL    HW181610   3.661  11.883   0.643
26571SOL    HW281611   3.697  11.914   0.499
26572SOL     OW81612  14.027   5.783   2.143
26572SOL    HW181613  13.962   5.720   2.176
26572SOL    HW281614  14.024   5.855   2.206
26573SOL     OW81615   9.252   4.553  14.647
26573SOL    HW181616   9.233   4.476  14.701
26573SOL    HW281617   9.181   4.614  14.666
26574SOL     OW81618  10.713   7.881   1.081
26574SOL    HW181619  10.787   7.854   1.134
26574SOL    HW281620  10.670   7.800   1.056
26575SOL     OW81621  14.620   3.221  11.874
26575SOL    HW181622  14.654   3.297  11.825
26575SOL    HW281623  14.678   3.213  11.949
26576SOL     OW81624  13.361   8.104   6.597
26576SOL    HW181625  13.278   8.149   6.612
26576SOL    HW281626  13.351   8.064   6.510
26577SOL     OW81627   3.756   1.183  11.530
26577SOL    HW181628   3.817   1.186  11.456
26577SOL    HW281629   3.720   1.271  11.535
26578SOL     OW81630   6.413  10.454   5.227
26578SOL    HW181631   6.467  10.514   5.278
26578SOL    HW281632   6.348  10.421   5.290
26579SOL     OW81633   4.132   3.062   9.131
26579SOL    HW181634   4.096   3.070   9.043
26579SOL    HW281635   4.075   3.117   9.186
26580SOL     OW81636  13.705  13.455   2.320
26580SOL    HW181637  13.755  13.534   2.342
26580SOL    HW281638  13.767  13.400   2.274
26581SOL     OW81639   7.415  13.317   9.250
26581SOL    HW181640   7.434  13.240   9.304
26581SOL    HW281641   7.480  13.315   9.180
26582SOL     OW81642   9.736   6.479   3.662
26582SOL    HW181643   9.801   6.417   3.630
26582SOL    HW281644   9.783   6.531   3.728
26583SOL     OW81645  14.057   5.096   4.287
26583SOL    HW181646  14.106   5.089   4.369
26583SOL    HW281647  14.058   5.189   4.266
26584SOL     OW81648   1.005   0.149   8.179
26584SOL    HW181649   0.975   0.235   8.151
26584SOL    HW281650   0.937   0.118   8.239
26585SOL     OW81651   2.881  14.761   7.453
26585SOL    HW181652   2.926  14.691   7.405
26585SOL    HW281653   2.790  14.754   7.426
26586SOL     OW81654   6.199  14.325  14.756
26586SOL    HW181655   6.278  14.332  14.810
26586SOL    HW281656   6.139  14.391  14.793
26587SOL     OW81657   2.251   9.882   7.069
26587SOL    HW181658   2.335   9.836   7.078
26587SOL    HW281659   2.273   9.962   7.022
26588SOL     OW81660  14.330   7.890   4.236
26588SOL    HW181661  14.259   7.826   4.233
26588SOL    HW281662  14.401   7.849   4.186
26589SOL     OW81663   6.106   4.758   2.789
26589SOL    HW181664   6.114   4.712   2.872
26589SOL    HW281665   6.085   4.690   2.725
26590SOL     OW81666  13.086   7.273   9.749
26590SOL    HW181667  13.060   7.273   9.841
26590SOL    HW281668  13.113   7.363   9.732
26591SOL     OW81669  13.453   0.803   6.860
26591SOL    HW181670  13.543   0.824   6.885
26591SOL    HW281671  13.455   0.711   6.836
26592SOL     OW81672  14.475  14.172   8.511
26592SOL    HW181673  14.452  14.095   8.458
26592SOL    HW281674  14.556  14.147   8.556
26593SOL     OW81675   0.757   4.383   0.297
26593SOL    HW181676   0.852   4.367   0.298
26593SOL    HW281677   0.749   4.475   0.270
26594SOL     OW81678  14.158  12.327   9.573
26594SOL    HW181679  14.091  12.279   9.621
26594SOL    HW281680  14.135  12.419   9.584
26595SOL     OW81681  12.913  10.228   8.600
26595SOL    HW181682  12.996  10.274   8.588
26595SOL    HW281683  12.850  10.296   8.624
26596SOL     OW81684   5.882   4.483   5.018
26596SOL    HW181685   5.975   4.471   5.000
26596SOL    HW281686   5.850   4.395   5.036
26597SOL     OW81687   3.188  11.263   9.639
26597SOL    HW181688   3.202  11.224   9.725
26597SOL    HW281689   3.185  11.188   9.579
26598SOL     OW81690   4.097  12.413  13.214
26598SOL    HW181691   4.163  12.432  13.147
26598SOL    HW281692   4.148  12.405  13.295
26599SOL     OW81693   6.570   0.258   9.924
26599SOL    HW181694   6.665   0.249   9.917
26599SOL    HW281695   6.550   0.338   9.877
26600SOL     OW81696  11.882   8.257   4.065
26600SOL    HW181697  11.859   8.213   4.147
26600SOL    HW281698  11.855   8.194   3.997
26601SOL     OW81699   0.832  13.056   8.757
26601SOL    HW181700   0.894  13.113   8.803
26601SOL    HW281701   0.794  13.002   8.826
26602SOL     OW81702   1.357   5.340   2.878
26602SOL    HW181703   1.427   5.295   2.924
26602SOL    HW281704   1.298   5.269   2.850
26603SOL     OW81705  10.894   0.129   4.585
26603SOL    HW181706  10.843   0.193   4.535
26603SOL    HW281707  10.906   0.056   4.524
26604SOL     OW81708   5.176   0.236  13.961
26604SOL    HW181709   5.146   0.279  14.041
26604SOL    HW281710   5.165   0.143  13.978
26605SOL     OW81711  11.475   3.179  11.445
26605SOL    HW181712  11.519   3.212  11.523
26605SOL    HW281713  11.395   3.230  11.439
26606SOL     OW81714   4.994   3.670   1.973
26606SOL    HW181715   5.030   3.588   1.940
26606SOL    HW281716   4.904   3.649   1.999
26607SOL     OW81717  10.557   2.632  14.693
26607SOL    HW181718  10.570   2.608  14.785
26607SOL    HW281719  10.591   2.721  14.686
26608SOL     OW81720   3.025   1.451   6.612
26608SOL    HW181721   3.002   1.359   6.630
26608SOL    HW281722   3.080   1.447   6.534
26609SOL     OW81723   1.730   8.936   7.932
26609SOL    HW181724   1.688   8.916   7.849
26609SOL    HW281725   1.715   8.859   7.986
26610SOL     OW81726   0.833   9.823   6.944
26610SOL    HW181727   0.738   9.823   6.958
26610SOL    HW281728   0.869   9.855   7.026
26611SOL     OW81729  13.255  11.438   0.744
26611SOL    HW181730  13.282  11.404   0.659
26611SOL    HW281731  13.320  11.505   0.765
26612SOL     OW81732   4.874   5.933   1.859
26612SOL    HW181733   4.891   5.889   1.776
26612SOL    HW281734   4.783   5.962   1.852
26613SOL     OW81735  13.407  11.048  12.031
26613SOL    HW181736  13.379  11.139  12.029
26613SOL    HW281737  13.344  11.005  12.089
26614SOL     OW81738  10.412   6.157   1.553
26614SOL    HW181739  10.413   6.242   1.596
26614SOL    HW281740  10.324   6.123   1.568
26615SOL     OW81741  11.678   0.458   9.119
26615SOL    HW181742  11.654   0.445   9.027
26615SOL    HW281743  11.757   0.405   9.130
26616SOL     OW81744   0.119  11.401  12.633
26616SOL    HW181745   0.101  11.337  12.701
26616SOL    HW281746   0.041  11.456  12.630
26617SOL     OW81747   2.114  10.312   4.967
26617SOL    HW181748   2.161  10.384   5.008
26617SOL    HW281749   2.103  10.248   5.038
26618SOL     OW81750  12.968  10.765   6.193
26618SOL    HW181751  12.923  10.727   6.118
26618SOL    HW281752  13.038  10.819   6.154
26619SOL     OW81753  11.305   2.086   2.618
26619SOL    HW181754  11.242   2.143   2.574
26619SOL    HW281755  11.320   2.127   2.703
26620SOL     OW81756   8.863  11.927   9.328
26620SOL    HW181757   8.910  12.008   9.350
26620SOL    HW281758   8.832  11.941   9.239
26621SOL     OW81759   1.473   8.274   2.678
26621SOL    HW181760   1.531   8.221   2.623
26621SOL    HW281761   1.495   8.365   2.655
26622SOL     OW81762   4.495   4.448   3.626
26622SOL    HW181763   4.520   4.367   3.671
26622SOL    HW281764   4.566   4.466   3.566
26623SOL     OW81765   4.136   3.264  10.000
26623SOL    HW181766   4.210   3.303   9.952
26623SOL    HW281767   4.077   3.338  10.016
26624SOL     OW81768   6.049   1.512  12.391
26624SOL    HW181769   5.954   1.501  12.402
26624SOL    HW281770   6.059   1.604  12.368
26625SOL     OW81771  14.094   6.058   3.870
26625SOL    HW181772  14.065   6.015   3.950
26625SOL    HW281773  14.079   6.151   3.885
26626SOL     OW81774   0.679  10.347   4.782
26626SOL    HW181775   0.617  10.420   4.776
26626SOL    HW281776   0.748  10.369   4.719
26627SOL     OW81777   8.254   0.578   1.211
26627SOL    HW181778   8.271   0.492   1.173
26627SOL    HW281779   8.317   0.636   1.168
26628SOL     OW81780  14.681   7.007  12.779
26628SOL    HW181781  14.757   6.967  12.821
26628SOL    HW281782  14.693   7.101  12.792
26629SOL     OW81783   2.037   6.846   6.413
26629SOL    HW181784   1.991   6.827   6.496
26629SOL    HW281785   1.979   6.906   6.367
26630SOL     OW81786   7.489   9.854  11.875
26630SOL    HW181787   7.501   9.829  11.967
26630SOL    HW281788   7.546   9.794  11.826
26631SOL     OW81789   5.989  12.320  10.006
26631SOL    HW181790   6.047  12.325   9.930
26631SOL    HW281791   5.939  12.240   9.992
26632SOL     OW81792   2.946   6.255   1.466
26632SOL    HW181793   2.922   6.345   1.487
26632SOL    HW281794   3.041   6.253   1.474
26633SOL     OW81795  12.711   2.209   7.922
26633SOL    HW181796  12.803   2.190   7.909
26633SOL    HW281797  12.703   2.225   8.016
26634SOL     OW81798   5.337  13.978  10.353
26634SOL    HW181799   5.333  14.065  10.313
26634SOL    HW281800   5.247  13.946  10.351
26635SOL     OW81801   4.054   6.687   0.281
26635SOL    HW181802   4.121   6.693   0.212
26635SOL    HW281803   3.973   6.666   0.234
26636SOL     OW81804   6.952   6.496   4.315
26636SOL    HW181805   7.045   6.501   4.338
26636SOL    HW281806   6.908   6.550   4.380
26637SOL     OW81807  13.208   5.058   7.537
26637SOL    HW181808  13.149   5.003   7.589
26637SOL    HW281809  13.160   5.076   7.457
26638SOL     OW81810   3.055  14.051   5.983
26638SOL    HW181811   2.978  14.101   6.011
26638SOL    HW281812   3.128  14.112   5.991
26639SOL     OW81813   6.935   4.948   8.132
26639SOL    HW181814   6.947   4.977   8.223
26639SOL    HW281815   6.968   5.020   8.079
26640SOL     OW81816   8.630   8.355   1.346
26640SOL    HW181817   8.698   8.296   1.312
26640SOL    HW281818   8.606   8.409   1.270
26641SOL     OW81819   0.423  14.603  10.776
26641SOL    HW181820   0.381  14.573  10.857
26641SOL    HW281821   0.505  14.554  10.773
26642SOL     OW81822   4.709  12.024   6.523
26642SOL    HW181823   4.689  12.105   6.571
26642SOL    HW281824   4.716  12.051   6.432
26643SOL     OW81825   8.675  10.518  14.233
26643SOL    HW181826   8.752  10.485  14.188
26643SOL    HW281827   8.708  10.556  14.315
26644SOL     OW81828   3.804   0.111   6.247
26644SOL    HW181829   3.859   0.040   6.213
26644SOL    HW281830   3.846   0.136   6.329
26645SOL     OW81831  11.143  14.536   1.374
26645SOL    HW181832  11.088  14.465   1.343
26645SOL    HW281833  11.229  14.519   1.336
26646SOL     OW81834  13.795   3.289  11.182
26646SOL    HW181835  13.857   3.355  11.150
26646SOL    HW281836  13.709   3.327  11.165
26647SOL     OW81837   1.571   5.205  14.474
26647SOL    HW181838   1.593   5.295  14.448
26647SOL    HW281839   1.544   5.212  14.565
26648SOL     OW81840   5.020   3.881   4.566
26648SOL    HW181841   5.081   3.885   4.492
26648SOL    HW281842   5.049   3.952   4.624
26649SOL     OW81843   2.675  11.191  11.999
26649SOL    HW181844   2.637  11.103  12.000
26649SOL    HW281845   2.640  11.233  12.077
26650SOL     OW81846   3.733   5.715   6.335
26650SOL    HW181847   3.760   5.797   6.293
26650SOL    HW281848   3.814   5.678   6.370
26651SOL     OW81849   3.793   2.067   1.447
26651SOL    HW181850   3.818   2.093   1.535
26651SOL    HW281851   3.853   1.995   1.426
26652SOL     OW81852   8.801   9.195   2.231
26652SOL    HW181853   8.770   9.284   2.247
26652SOL    HW281854   8.887   9.207   2.190
26653SOL     OW81855   2.252   6.880   4.197
26653SOL    HW181856   2.269   6.808   4.137
26653SOL    HW281857   2.166   6.861   4.235
26654SOL     OW81858  10.051   9.003  10.284
26654SOL    HW181859  10.029   8.918  10.323
26654SOL    HW281860   9.974   9.058  10.300
26655SOL     OW81861  10.436  13.082   5.159
26655SOL    HW181862  10.510  13.028   5.132
26655SOL    HW281863  10.475  13.149   5.216
26656SOL     OW81864   5.046   1.313   7.373
26656SOL    HW181865   5.133   1.330   7.410
26656SOL    HW281866   5.057   1.232   7.324
26657SOL     OW81867  12.369  12.857   7.904
26657SOL    HW181868  12.354  12.920   7.975
26657SOL    HW281869  12.411  12.909   7.835
26658SOL     OW81870   6.116  10.465  12.964
26658SOL    HW181871   6.088  10.525  13.033
26658SOL    HW281872   6.193  10.422  13.000
26659SOL     OW81873   2.040  11.232   2.396
26659SOL    HW181874   2.038  11.201   2.486
26659SOL    HW281875   2.089  11.165   2.349
26660SOL     OW81876   6.529   8.811  11.657
26660SOL    HW181877   6.510   8.898  11.694
26660SOL    HW281878   6.528   8.753  11.733
26661SOL     OW81879  10.473   3.919   3.328
26661SOL    HW181880  10.511   3.845   3.375
26661SOL    HW281881  10.548   3.968   3.294
26662SOL     OW81882  12.639  12.438   9.858
26662SOL    HW181883  12.544  12.430   9.865
26662SOL    HW281884  12.666  12.361   9.807
26663SOL     OW81885   7.431  14.135   8.077
26663SOL    HW181886   7.516  14.162   8.111
26663SOL    HW281887   7.379  14.215   8.074
26664SOL     OW81888   3.284  13.629   1.549
26664SOL    HW181889   3.373  13.663   1.555
26664SOL    HW281890   3.278  13.595   1.459
26665SOL     OW81891   7.239  13.220  12.443
26665SOL    HW181892   7.334  13.226  12.454
26665SOL    HW281893   7.210  13.163  12.513
26666SOL     OW81894   5.602   4.212  12.116
26666SOL    HW181895   5.535   4.280  12.106
26666SOL    HW281896   5.553   4.134  12.141
26667SOL     OW81897   4.208   9.067  14.387
26667SOL    HW181898   4.116   9.073  14.365
26667SOL    HW281899   4.213   9.098  14.478
26668SOL     OW81900  10.652   9.359  13.852
26668SOL    HW181901  10.668   9.320  13.938
26668SOL    HW281902  10.596   9.296  13.807
26669SOL     OW81903   9.885   6.548   2.813
26669SOL    HW181904   9.839   6.497   2.747
26669SOL    HW281905   9.950   6.598   2.764
26670SOL     OW81906   3.337   7.350   8.587
26670SOL    HW181907   3.270   7.299   8.541
26670SOL    HW281908   3.305   7.440   8.586
26671SOL     OW81909   0.928  11.332  11.350
26671SOL    HW181910   0.889  11.246  11.364
26671SOL    HW281911   0.959  11.331  11.259
26672SOL     OW81912  13.911  13.217  13.229
26672SOL    HW181913  13.931  13.294  13.176
26672SOL    HW281914  13.949  13.235  13.315
26673SOL     OW81915   4.530   8.091   5.573
26673SOL    HW181916   4.481   8.012   5.548
26673SOL    HW281917   4.472   8.136   5.634
26674SOL     OW81918  11.128   3.030   0.555
26674SOL    HW181919  11.120   2.948   0.604
26674SOL    HW281920  11.152   3.003   0.467
26675SOL     OW81921   2.722   1.104   2.916
26675SOL    HW181922   2.720   1.080   2.824
26675SOL    HW281923   2.675   1.034   2.961
26676SOL     OW81924   6.996   4.402   1.900
26676SOL    HW181925   6.930   4.336   1.878
26676SOL    HW281926   7.028   4.433   1.816
26677SOL     OW81927  14.522   7.154   8.936
26677SOL    HW181928  14.477   7.070   8.948
26677SOL    HW281929  14.579   7.161   9.012
26678SOL     OW81930  14.149  12.444  12.863
26678SOL    HW181931  14.197  12.514  12.818
26678SOL    HW281932  14.118  12.388  12.792
26679SOL     OW81933  14.485  11.794  13.573
26679SOL    HW181934  14.435  11.734  13.516
26679SOL    HW281935  14.484  11.877  13.526
26680SOL     OW81936   6.928   9.927   1.158
26680SOL    HW181937   7.012   9.893   1.128
26680SOL    HW281938   6.899   9.984   1.086
26681SOL     OW81939   5.162   9.163   6.657
26681SOL    HW181940   5.222   9.175   6.584
26681SOL    HW281941   5.186   9.232   6.719
26682SOL     OW81942   6.966   2.288  10.064
26682SOL    HW181943   7.042   2.290  10.006
26682SOL    HW281944   7.003   2.292  10.152
26683SOL     OW81945  12.233   9.768  14.045
26683SOL    HW181946  12.303   9.791  14.106
26683SOL    HW281947  12.182   9.701  14.091
26684SOL     OW81948   8.295   1.084   1.669
26684SOL    HW181949   8.234   1.030   1.619
26684SOL    HW281950   8.274   1.174   1.644
26685SOL     OW81951   7.267   3.290   8.611
26685SOL    HW181952   7.187   3.292   8.664
26685SOL    HW281953   7.245   3.232   8.538
26686SOL     OW81954  13.578   9.653   4.962
26686SOL    HW181955  13.584   9.558   4.968
26686SOL    HW281956  13.659   9.684   5.004
26687SOL     OW81957  14.757   7.713   7.923
26687SOL    HW181958  14.788   7.629   7.957
26687SOL    HW281959  14.821   7.777   7.954
26688SOL     OW81960   1.615  10.700  13.279
26688SOL    HW181961   1.612  10.795  13.270
26688SOL    HW281962   1.707  10.681  13.298
26689SOL     OW81963  14.468   7.563   6.222
26689SOL    HW181964  14.374   7.573   6.232
26689SOL    HW281965  14.492   7.631   6.159
26690SOL     OW81966   0.037   5.616   8.884
26690SOL    HW181967   0.131   5.629   8.891
26690SOL    HW281968   0.012   5.574   8.966
26691SOL     OW81969   1.664   3.400   0.400
26691SOL    HW181970   1.625   3.421   0.316
26691SOL    HW281971   1.712   3.318   0.385
26692SOL     OW81972  11.638   1.142   6.444
26692SOL    HW181973  11.697   1.068   6.429
26692SOL    HW281974  11.648   1.197   6.366
26693SOL     OW81975  12.288   3.597   8.205
26693SOL    HW181976  12.349   3.556   8.266
26693SOL    HW281977  12.231   3.651   8.260
26694SOL     OW81978   9.687  11.044   9.227
26694SOL    HW181979   9.633  10.965   9.220
26694SOL    HW281980   9.717  11.060   9.137
26695SOL     OW81981   6.576  10.986   6.886
26695SOL    HW181982   6.499  10.932   6.900
26695SOL    HW281983   6.588  11.033   6.969
26696SOL     OW81984  11.731   3.068   9.445
26696SOL    HW181985  11.763   3.148   9.403
26696SOL    HW281986  11.756   2.997   9.386
26697SOL     OW81987  14.336   7.431   2.633
26697SOL    HW181988  14.331   7.336   2.628
26697SOL    HW281989  14.363   7.458   2.545
26698SOL     OW81990   2.340   5.321   7.946
26698SOL    HW181991   2.409   5.290   7.888
26698SOL    HW281992   2.360   5.280   8.030
26699SOL     OW81993  12.940  14.656   5.004
26699SOL    HW181994  12.946  14.646   5.099
26699SOL    HW281995  13.025  14.625   4.971
26700SOL     OW81996   4.638  12.229   0.942
26700SOL    HW181997   4.677  12.279   0.871
26700SOL    HW281998   4.563  12.185   0.901
26701SOL     OW81999   4.136   7.936   2.052
26701SOL    HW182000   4.109   7.893   1.971
26701SOL    HW282001   4.055   7.946   2.102
26702SOL     OW82002  14.276   0.439   2.821
26702SOL    HW182003  14.306   0.412   2.734
26702SOL    HW282004  14.333   0.512   2.844
26703SOL     OW82005   9.713   3.706  11.534
26703SOL    HW182006   9.780   3.641  11.557
26703SOL    HW282007   9.762   3.787  11.520
26704SOL     OW82008   7.223  12.621   1.526
26704SOL    HW182009   7.309  12.579   1.519
26704SOL    HW282010   7.184  12.583   1.605
26705SOL     OW82011   5.194   2.201  13.617
26705SOL    HW182012   5.213   2.225  13.526
26705SOL    HW282013   5.188   2.285  13.662
26706SOL     OW82014   9.422   0.935   1.627
26706SOL    HW182015   9.330   0.928   1.655
26706SOL    HW282016   9.449   0.845   1.611
26707SOL     OW82017   6.612  10.485   9.497
26707SOL    HW182018   6.599  10.441   9.414
26707SOL    HW282019   6.707  10.491   9.507
26708SOL     OW82020   4.315  11.282   2.771
26708SOL    HW182021   4.255  11.354   2.790
26708SOL    HW282022   4.258  11.207   2.755
26709SOL     OW82023   0.802  11.226  12.354
26709SOL    HW182024   0.776  11.143  12.394
26709SOL    HW282025   0.785  11.215  12.261
26710SOL     OW82026   0.482   8.996  13.788
26710SOL    HW182027   0.404   8.941  13.786
26710SOL    HW282028   0.496   9.015  13.881
26711SOL     OW82029  14.651  13.688  11.701
26711SOL    HW182030  14.612  13.729  11.779
26711SOL    HW282031  14.645  13.594  11.719
26712SOL     OW82032  11.241  14.030   7.930
26712SOL    HW182033  11.301  13.956   7.915
26712SOL    HW282034  11.174  14.019   7.863
26713SOL     OW82035   8.514   1.068   1.885
26713SOL    HW182036   8.558   1.144   1.922
26713SOL    HW282037   8.421   1.085   1.900
26714SOL     OW82038   3.588   5.792   2.706
26714SOL    HW182039   3.663   5.823   2.656
26714SOL    HW282040   3.535   5.745   2.643
26715SOL     OW82041   1.566   5.039  13.117
26715SOL    HW182042   1.551   5.085  13.199
26715SOL    HW282043   1.627   5.095  13.069
26716SOL     OW82044   7.522  10.644   7.176
26716SOL    HW182045   7.503  10.689   7.094
26716SOL    HW282046   7.470  10.563   7.171
26717SOL     OW82047   5.400  11.061  12.840
26717SOL    HW182048   5.465  11.019  12.896
26717SOL    HW282049   5.448  11.086  12.761
26718SOL     OW82050  12.735  11.215  10.424
26718SOL    HW182051  12.711  11.131  10.385
26718SOL    HW282052  12.818  11.239  10.381
26719SOL     OW82053  12.909   6.836   2.306
26719SOL    HW182054  12.956   6.780   2.368
26719SOL    HW282055  12.941   6.924   2.324
26720SOL     OW82056  13.373   2.341   4.856
26720SOL    HW182057  13.447   2.336   4.917
26720SOL    HW282058  13.387   2.268   4.796
26721SOL     OW82059   0.441  12.837   2.917
26721SOL    HW182060   0.397  12.780   2.980
26721SOL    HW282061   0.432  12.792   2.833
26722SOL     OW82062   4.692  14.193   5.170
26722SOL    HW182063   4.646  14.109   5.179
26722SOL    HW282064   4.761  14.175   5.106
26723SOL     OW82065  13.392   9.788   2.506
26723SOL    HW182066  13.318   9.737   2.538
26723SOL    HW282067  13.423   9.740   2.429
26724SOL     OW82068   1.832  10.077  14.281
26724SOL    HW182069   1.757  10.046  14.331
26724SOL    HW282070   1.828  10.030  14.198
26725SOL     OW82071   5.371   7.520   0.795
26725SOL    HW182072   5.418   7.481   0.721
26725SOL    HW282073   5.434   7.577   0.837
26726SOL     OW82074   3.948  14.817   9.942
26726SOL    HW182075   3.939  14.811   9.847
26726SOL    HW282076   4.035  14.781   9.961
26727SOL     OW82077   8.357  12.917   7.755
26727SOL    HW182078   8.411  12.915   7.834
26727SOL    HW282079   8.283  12.860   7.776
26728SOL     OW82080  13.237   9.375   7.947
26728SOL    HW182081  13.185   9.404   7.871
26728SOL    HW282082  13.327   9.401   7.925
26729SOL     OW82083   8.896   0.897   5.226
26729SOL    HW182084   8.959   0.833   5.259
26729SOL    HW282085   8.908   0.974   5.282
26730SOL     OW82086   4.939   8.721   6.424
26730SOL    HW182087   4.948   8.682   6.337
26730SOL    HW282088   4.968   8.812   6.411
26731SOL     OW82089   1.925   5.392   8.497
26731SOL    HW182090   1.939   5.478   8.538
26731SOL    HW282091   1.995   5.384   8.433
26732SOL     OW82092  12.659  12.696   2.562
26732SOL    HW182093  12.729  12.662   2.505
26732SOL    HW282094  12.616  12.617   2.595
26733SOL     OW82095  12.427   7.192   2.234
26733SOL    HW182096  12.388   7.109   2.205
26733SOL    HW282097  12.480   7.168   2.310
26734SOL     OW82098   9.692   7.227   3.310
26734SOL    HW182099   9.767   7.261   3.260
26734SOL    HW282100   9.674   7.294   3.375
26735SOL     OW82101  10.044  13.453   7.452
26735SOL    HW182102  10.001  13.382   7.500
26735SOL    HW282103  10.137  13.440   7.467
26736SOL     OW82104   6.371   8.368   6.532
26736SOL    HW182105   6.423   8.297   6.495
26736SOL    HW282106   6.282   8.352   6.501
26737SOL     OW82107  12.379   4.139  11.866
26737SOL    HW182108  12.304   4.081  11.883
26737SOL    HW282109  12.344   4.206  11.807
26738SOL     OW82110   8.254   4.740   9.674
26738SOL    HW182111   8.320   4.767   9.738
26738SOL    HW282112   8.263   4.803   9.602
26739SOL     OW82113   6.632   0.170   7.622
26739SOL    HW182114   6.539   0.161   7.601
26739SOL    HW282115   6.677   0.113   7.559
26740SOL     OW82116   7.908  14.307  14.013
26740SOL    HW182117   7.882  14.290  13.922
26740SOL    HW282118   7.886  14.399  14.027
26741SOL     OW82119   4.973   0.284  12.881
26741SOL    HW182120   4.943   0.320  12.798
26741SOL    HW282121   4.894   0.247  12.921
26742SOL     OW82122  12.875   5.388   2.370
26742SOL    HW182123  12.823   5.414   2.294
26742SOL    HW282124  12.861   5.458   2.434
26743SOL     OW82125  12.597  14.532   5.728
26743SOL    HW182126  12.675  14.584   5.745
26743SOL    HW282127  12.556  14.573   5.652
26744SOL     OW82128   1.960  10.553  11.660
26744SOL    HW182129   2.009  10.616  11.712
26744SOL    HW282130   2.026  10.490  11.630
26745SOL     OW82131   1.968   6.102   3.221
26745SOL    HW182132   2.012   6.187   3.227
26745SOL    HW282133   1.979   6.063   3.308
26746SOL     OW82134   2.109  13.454   0.254
26746SOL    HW182135   2.097  13.533   0.306
26746SOL    HW282136   2.066  13.473   0.171
26747SOL     OW82137   7.568   5.797   0.597
26747SOL    HW182138   7.660   5.811   0.617
26747SOL    HW282139   7.532   5.885   0.584
26748SOL     OW82140  13.894   7.898   7.073
26748SOL    HW182141  13.975   7.853   7.050
26748SOL    HW282142  13.826   7.852   7.023
26749SOL     OW82143  13.964   7.668   1.290
26749SOL    HW182144  14.011   7.751   1.286
26749SOL    HW282145  13.908   7.675   1.367
26750SOL     OW82146  13.000  12.717   9.656
26750SOL    HW182147  13.057  12.689   9.728
26750SOL    HW282148  12.911  12.713   9.691
26751SOL     OW82149   8.020  11.952  10.878
26751SOL    HW182150   7.927  11.961  10.897
26751SOL    HW282151   8.030  11.861  10.849
26752SOL     OW82152   5.100   9.142   3.094
26752SOL    HW182153   5.167   9.075   3.109
26752SOL    HW282154   5.032   9.122   3.157
26753SOL     OW82155  12.748  13.122   7.244
26753SOL    HW182156  12.694  13.045   7.262
26753SOL    HW282157  12.829  13.087   7.206
26754SOL     OW82158   2.467  11.429  11.745
26754SOL    HW182159   2.452  11.339  11.718
26754SOL    HW282160   2.550  11.427  11.793
26755SOL     OW82161   6.249  10.846   9.045
26755SOL    HW182162   6.226  10.810   8.960
26755SOL    HW282163   6.176  10.904   9.067
26756SOL     OW82164  11.613   6.040   1.156
26756SOL    HW182165  11.567   5.984   1.219
26756SOL    HW282166  11.585   6.008   1.071
26757SOL     OW82167   0.426  13.747   8.788
26757SOL    HW182168   0.508  13.796   8.797
26757SOL    HW282169   0.376  13.797   8.723
26758SOL     OW82170  13.282   0.823   9.960
26758SOL    HW182171  13.360   0.813  10.013
26758SOL    HW282172  13.230   0.889  10.006
26759SOL     OW82173   7.967   7.171   4.188
26759SOL    HW182174   7.943   7.250   4.140
26759SOL    HW282175   7.914   7.175   4.268
26760SOL     OW82176   5.314   5.253   7.013
26760SOL    HW182177   5.221   5.249   6.988
26760SOL    HW282178   5.338   5.345   6.998
26761SOL     OW82179  12.651  10.351   6.528
26761SOL    HW182180  12.622  10.292   6.596
26761SOL    HW282181  12.674  10.432   6.574
26762SOL     OW82182  11.391   1.065  10.425
26762SOL    HW182183  11.407   1.159  10.440
26762SOL    HW282184  11.400   1.025  10.512
26763SOL     OW82185   1.758   5.677   3.071
26763SOL    HW182186   1.825   5.721   3.122
26763SOL    HW282187   1.801   5.652   2.989
26764SOL     OW82188   5.715  14.162   9.053
26764SOL    HW182189   5.668  14.090   9.010
26764SOL    HW282190   5.647  14.215   9.093
26765SOL     OW82191   4.711   2.353   5.871
26765SOL    HW182192   4.646   2.397   5.926
26765SOL    HW282193   4.660   2.290   5.820
26766SOL     OW82194   4.742   9.162  13.330
26766SOL    HW182195   4.718   9.072  13.355
26766SOL    HW282196   4.832   9.155  13.299
26767SOL     OW82197   1.137  13.367   0.976
26767SOL    HW182198   1.133  13.321   1.060
26767SOL    HW282199   1.049  13.361   0.940
26768SOL     OW82200  10.640   9.644   2.384
26768SOL    HW182201  10.694   9.678   2.456
26768SOL    HW282202  10.673   9.688   2.306
26769SOL     OW82203   9.778   7.401   7.905
26769SOL    HW182204   9.827   7.474   7.867
26769SOL    HW282205   9.807   7.324   7.857
26770SOL     OW82206  11.625   9.059   6.468
26770SOL    HW182207  11.597   9.091   6.554
26770SOL    HW282208  11.690   9.123   6.438
26771SOL     OW82209   8.873  10.758  12.936
26771SOL    HW182210   8.795  10.718  12.896
26771SOL    HW282211   8.933  10.772  12.863
26772SOL     OW82212   3.076  11.032   6.759
26772SOL    HW182213   3.052  10.954   6.810
26772SOL    HW282214   3.172  11.033   6.760
26773SOL     OW82215  10.567  11.161  13.719
26773SOL    HW182216  10.571  11.252  13.748
26773SOL    HW282217  10.501  11.120  13.776
26774SOL     OW82218  10.144   3.407  12.813
26774SOL    HW182219  10.114   3.319  12.836
26774SOL    HW282220  10.136   3.457  12.894
26775SOL     OW82221   1.441  13.008   8.391
26775SOL    HW182222   1.435  12.937   8.455
26775SOL    HW282223   1.350  13.038   8.379
26776SOL     OW82224   3.752   4.357   5.985
26776SOL    HW182225   3.840   4.393   5.972
26776SOL    HW282226   3.766   4.271   6.025
26777SOL     OW82227   8.713  14.114   2.196
26777SOL    HW182228   8.804  14.124   2.170
26777SOL    HW282229   8.672  14.198   2.174
26778SOL     OW82230   5.786  13.018   8.353
26778SOL    HW182231   5.765  12.956   8.423
26778SOL    HW282232   5.803  13.100   8.399
26779SOL     OW82233  10.044  12.769   7.876
26779SOL    HW182234  10.039  12.704   7.946
26779SOL    HW282235  10.047  12.716   7.795
26780SOL     OW82236  10.235  11.702   2.597
26780SOL    HW182237  10.292  11.711   2.521
26780SOL    HW282238  10.154  11.663   2.563
26781SOL     OW82239  10.975   0.218  12.813
26781SOL    HW182240  11.024   0.290  12.851
26781SOL    HW282241  10.998   0.220  12.720
26782SOL     OW82242   7.409  11.371  13.226
26782SOL    HW182243   7.320  11.407  13.231
26782SOL    HW282244   7.437  11.389  13.137
26783SOL     OW82245   1.388   4.617   3.995
26783SOL    HW182246   1.417   4.543   4.049
26783SOL    HW282247   1.393   4.692   4.055
26784SOL     OW82248   8.104   1.373  13.447
26784SOL    HW182249   8.101   1.446  13.508
26784SOL    HW282250   8.032   1.316  13.473
26785SOL     OW82251  14.473   5.281  12.623
26785SOL    HW182252  14.547   5.337  12.600
26785SOL    HW282253  14.463   5.223  12.547
26786SOL     OW82254   6.497   3.711  12.627
26786SOL    HW182255   6.532   3.766  12.697
26786SOL    HW282256   6.531   3.624  12.645
26787SOL     OW82257   6.494  13.923  11.308
26787SOL    HW182258   6.545  13.961  11.237
26787SOL    HW282259   6.525  13.832  11.313
26788SOL     OW82260   2.598   7.595   6.444
26788SOL    HW182261   2.551   7.640   6.375
26788SOL    HW282262   2.580   7.502   6.429
26789SOL     OW82263  13.334   0.693  12.296
26789SOL    HW182264  13.298   0.764  12.242
26789SOL    HW282265  13.258   0.656  12.341
26790SOL     OW82266   7.095   3.704   8.352
26790SOL    HW182267   7.150   3.710   8.275
26790SOL    HW282268   7.136   3.762   8.416
26791SOL     OW82269  12.470  11.352   3.331
26791SOL    HW182270  12.474  11.304   3.248
26791SOL    HW282271  12.560  11.382   3.345
26792SOL     OW82272   2.228   8.987  10.397
26792SOL    HW182273   2.150   9.003  10.344
26792SOL    HW282274   2.256   9.075  10.425
26793SOL     OW82275  11.395   7.442  14.501
26793SOL    HW182276  11.482   7.424  14.537
26793SOL    HW282277  11.409   7.519  14.445
26794SOL     OW82278  12.013   3.414  12.147
26794SOL    HW182279  11.995   3.320  12.147
26794SOL    HW282280  11.940   3.452  12.196
26795SOL     OW82281   2.168  12.836   2.331
26795SOL    HW182282   2.094  12.783   2.302
26795SOL    HW282283   2.233  12.773   2.362
26796SOL     OW82284  12.000  10.706   9.888
26796SOL    HW182285  11.935  10.763   9.846
26796SOL    HW282286  12.006  10.630   9.830
26797SOL     OW82287   0.033   6.480   4.568
26797SOL    HW182288   0.045   6.400   4.619
26797SOL    HW282289   0.084   6.546   4.616
26798SOL     OW82290   8.016  10.885   5.504
26798SOL    HW182291   7.937  10.871   5.452
26798SOL    HW282292   7.987  10.936   5.579
26799SOL     OW82293  11.851   9.783   2.396
26799SOL    HW182294  11.936   9.761   2.433
26799SOL    HW282295  11.870   9.804   2.304
26800SOL     OW82296   2.999   8.039  12.817
26800SOL    HW182297   3.056   8.104  12.775
26800SOL    HW282298   2.967   7.985  12.745
26801SOL     OW82299   6.101  11.051  14.135
26801SOL    HW182300   6.017  11.059  14.091
26801SOL    HW282301   6.166  11.051  14.065
26802SOL     OW82302   6.148   3.028  12.643
26802SOL    HW182303   6.198   2.965  12.695
26802SOL    HW282304   6.123   2.979  12.564
26803SOL     OW82305   4.887   1.757  12.265
26803SOL    HW182306   4.838   1.702  12.326
26803SOL    HW282307   4.925   1.826  12.320
26804SOL     OW82308   5.312   3.177  10.245
26804SOL    HW182309   5.241   3.130  10.201
26804SOL    HW282310   5.372   3.108  10.274
26805SOL     OW82311   9.623   3.865   1.761
26805SOL    HW182312   9.625   3.863   1.665
26805SOL    HW282313   9.594   3.953   1.783
26806SOL     OW82314   3.553   1.529  13.457
26806SOL    HW182315   3.543   1.487  13.372
26806SOL    HW282316   3.643   1.507  13.484
26807SOL     OW82317  10.029   6.257  11.869
26807SOL    HW182318  10.061   6.291  11.785
26807SOL    HW282319  10.094   6.286  11.933
26808SOL     OW82320   5.021   8.078  12.610
26808SOL    HW182321   5.076   8.157  12.611
26808SOL    HW282322   5.058   8.024  12.540
26809SOL     OW82323   7.415  13.967   1.863
26809SOL    HW182324   7.507  13.956   1.887
26809SOL    HW282325   7.410  14.058   1.832
26810SOL     OW82326   7.430   3.033   3.881
26810SOL    HW182327   7.427   3.101   3.948
26810SOL    HW282328   7.482   3.071   3.811
26811SOL     OW82329   8.985  14.480  11.770
26811SOL    HW182330   9.061  14.433  11.805
26811SOL    HW282331   9.002  14.572  11.790
26812SOL     OW82332   9.120   9.807   8.409
26812SOL    HW182333   9.070   9.752   8.469
26812SOL    HW282334   9.083   9.788   8.323
26813SOL     OW82335   5.747   5.840   0.764
26813SOL    HW182336   5.711   5.820   0.678
26813SOL    HW282337   5.781   5.930   0.755
26814SOL     OW82338   1.292   1.516   0.648
26814SOL    HW182339   1.377   1.550   0.620
26814SOL    HW282340   1.228   1.572   0.604
26815SOL     OW82341  13.953   2.714  13.772
26815SOL    HW182342  13.931   2.777  13.841
26815SOL    HW282343  13.940   2.628  13.812
26816SOL     OW82344  10.771   1.901   9.530
26816SOL    HW182345  10.819   1.950   9.464
26816SOL    HW282346  10.823   1.821   9.543
26817SOL     OW82347   2.680   8.698   0.283
26817SOL    HW182348   2.605   8.756   0.295
26817SOL    HW282349   2.651   8.634   0.218
26818SOL     OW82350  11.150  13.154   5.396
26818SOL    HW182351  11.090  13.136   5.469
26818SOL    HW282352  11.232  13.179   5.438
26819SOL     OW82353  11.281   7.805  10.837
26819SOL    HW182354  11.202   7.752  10.830
26819SOL    HW282355  11.350   7.748  10.803
26820SOL     OW82356   6.820   5.360   2.652
26820SOL    HW182357   6.750   5.406   2.606
26820SOL    HW282358   6.849   5.293   2.590
26821SOL     OW82359   0.042   2.303   5.452
26821SOL    HW182360   0.126   2.264   5.428
26821SOL    HW282361   0.056   2.334   5.542
26822SOL     OW82362  12.876   8.658   1.851
26822SOL    HW182363  12.883   8.618   1.765
26822SOL    HW282364  12.959   8.705   1.862
26823SOL     OW82365   9.312   0.644  10.507
26823SOL    HW182366   9.234   0.590  10.497
26823SOL    HW282367   9.300   0.716  10.445
26824SOL     OW82368   0.675   8.811   5.237
26824SOL    HW182369   0.620   8.739   5.206
26824SOL    HW282370   0.715   8.778   5.318
26825SOL     OW82371  13.704   2.990   8.717
26825SOL    HW182372  13.773   2.937   8.757
26825SOL    HW282373  13.626   2.936   8.723
26826SOL     OW82374  14.780  13.254  12.339
26826SOL    HW182375  14.862  13.301  12.322
26826SOL    HW282376  14.744  13.296  12.417
26827SOL     OW82377   6.324  12.252  10.651
26827SOL    HW182378   6.339  12.347  10.645
26827SOL    HW282379   6.284  12.240  10.737
26828SOL     OW82380  13.049  11.421   8.434
26828SOL    HW182381  12.969  11.371   8.417
26828SOL    HW282382  13.108  11.398   8.363
26829SOL     OW82383   2.825   9.935   5.031
26829SOL    HW182384   2.911   9.928   4.991
26829SOL    HW282385   2.774   9.865   4.991
26830SOL     OW82386  14.457  12.853  11.020
26830SOL    HW182387  14.545  12.857  10.983
26830SOL    HW282388  14.471  12.860  11.115
26831SOL     OW82389   4.894  11.315   3.120
26831SOL    HW182390   4.941  11.359   3.191
26831SOL    HW282391   4.814  11.281   3.162
26832SOL     OW82392  13.946   7.561   7.157
26832SOL    HW182393  14.003   7.520   7.092
26832SOL    HW282394  13.932   7.650   7.124
26833SOL     OW82395   7.465   2.481  13.069
26833SOL    HW182396   7.502   2.427  13.139
26833SOL    HW282397   7.536   2.488  13.005
26834SOL     OW82398  13.936   8.242   7.626
26834SOL    HW182399  13.943   8.328   7.586
26834SOL    HW282400  13.991   8.185   7.572
26835SOL     OW82401   7.554   7.317   8.876
26835SOL    HW182402   7.511   7.394   8.838
26835SOL    HW282403   7.499   7.243   8.847
26836SOL     OW82404   1.356  10.922   4.958
26836SOL    HW182405   1.297  10.980   4.911
26836SOL    HW282406   1.343  10.836   4.918
26837SOL     OW82407  11.908  12.252  13.042
26837SOL    HW182408  11.964  12.205  12.980
26837SOL    HW282409  11.942  12.228  13.128
26838SOL     OW82410   8.985   3.499   4.615
26838SOL    HW182411   8.963   3.589   4.638
26838SOL    HW282412   8.907   3.466   4.570
26839SOL     OW82413   9.810   6.058  12.328
26839SOL    HW182414   9.715   6.055  12.335
26839SOL    HW282415   9.827   6.053  12.233
26840SOL     OW82416   7.949   9.943   3.538
26840SOL    HW182417   7.963   9.927   3.632
26840SOL    HW282418   7.994   9.871   3.495
26841SOL     OW82419   0.491   5.755   5.892
26841SOL    HW182420   0.499   5.751   5.796
26841SOL    HW282421   0.427   5.686   5.913
26842SOL     OW82422  14.179  11.589   6.613
26842SOL    HW182423  14.274  11.576   6.605
26842SOL    HW282424  14.169  11.681   6.634
26843SOL     OW82425  13.659   6.933   8.673
26843SOL    HW182426  13.606   7.007   8.700
26843SOL    HW282427  13.626   6.909   8.586
26844SOL     OW82428   2.277   3.431   9.104
26844SOL    HW182429   2.341   3.419   9.174
26844SOL    HW282430   2.306   3.510   9.058
26845SOL     OW82431   9.411   0.578   0.365
26845SOL    HW182432   9.440   0.554   0.277
26845SOL    HW282433   9.326   0.619   0.352
26846SOL     OW82434  10.784  13.110   7.188
26846SOL    HW182435  10.770  13.181   7.125
26846SOL    HW282436  10.857  13.060   7.152
26847SOL     OW82437   7.067  10.919  14.116
26847SOL    HW182438   7.104  10.839  14.152
26847SOL    HW282439   7.047  10.973  14.192
26848SOL     OW82440   3.048   8.938   1.841
26848SOL    HW182441   3.003   8.994   1.904
26848SOL    HW282442   3.087   8.868   1.893
26849SOL     OW82443  10.653   2.359   6.909
26849SOL    HW182444  10.714   2.293   6.877
26849SOL    HW282445  10.704   2.440   6.913
26850SOL     OW82446   7.064   1.043   2.928
26850SOL    HW182447   7.107   1.043   3.014
26850SOL    HW282448   7.074   1.133   2.897
26851SOL     OW82449   8.842   2.352  11.918
26851SOL    HW182450   8.852   2.355  12.013
26851SOL    HW282451   8.823   2.260  11.899
26852SOL     OW82452   4.318   0.820   6.537
26852SOL    HW182453   4.231   0.860   6.535
26852SOL    HW282454   4.376   0.887   6.501
26853SOL     OW82455   7.820  12.140  11.202
26853SOL    HW182456   7.845  12.232  11.216
26853SOL    HW282457   7.791  12.110  11.288
26854SOL     OW82458   1.836   5.652  13.972
26854SOL    HW182459   1.814   5.745  13.976
26854SOL    HW282460   1.889   5.643  13.893
26855SOL     OW82461   4.067  12.393   0.296
26855SOL    HW182462   4.130  12.333   0.259
26855SOL    HW282463   4.091  12.479   0.260
26856SOL     OW82464   3.314  14.866   6.059
26856SOL    HW182465   3.381   0.045   6.093
26856SOL    HW282466   3.251  14.857   6.131
26857SOL     OW82467  13.870  12.196   4.752
26857SOL    HW182468  13.911  12.265   4.701
26857SOL    HW282469  13.939  12.132   4.767
26858SOL     OW82470   6.297   2.568   7.947
26858SOL    HW182471   6.227   2.595   7.888
26858SOL    HW282472   6.377   2.601   7.906
26859SOL     OW82473  10.298   8.738   4.798
26859SOL    HW182474  10.234   8.782   4.855
26859SOL    HW282475  10.247   8.669   4.755
26860SOL     OW82476   3.131   1.790  10.183
26860SOL    HW182477   3.171   1.737  10.114
26860SOL    HW282478   3.155   1.745  10.264
26861SOL     OW82479  10.699  13.982   1.040
26861SOL    HW182480  10.676  13.895   1.008
26861SOL    HW282481  10.791  13.976   1.064
26862SOL     OW82482   6.114   0.995  13.432
26862SOL    HW182483   6.152   0.982  13.519
26862SOL    HW282484   6.074   1.082  13.436
26863SOL     OW82485   7.834  11.006   4.068
26863SOL    HW182486   7.781  10.966   3.998
26863SOL    HW282487   7.924  10.990   4.041
26864SOL     OW82488  10.372  10.560   9.005
26864SOL    HW182489  10.349  10.510   8.927
26864SOL    HW282490  10.397  10.646   8.973
26865SOL     OW82491   1.233   4.003   9.024
26865SOL    HW182492   1.155   3.989   9.079
26865SOL    HW282493   1.230   4.097   9.004
26866SOL     OW82494   2.814   0.545   3.576
26866SOL    HW182495   2.786   0.481   3.511
26866SOL    HW282496   2.806   0.498   3.660
26867SOL     OW82497   7.221   5.277  12.186
26867SOL    HW182498   7.224   5.182  12.194
26867SOL    HW282499   7.276   5.309  12.257
26868SOL     OW82500   0.780  14.192   9.056
26868SOL    HW182501   0.848  14.205   9.122
26868SOL    HW282502   0.827  14.162   8.979
26869SOL     OW82503   6.536  13.389   1.681
26869SOL    HW182504   6.603  13.326   1.707
26869SOL    HW282505   6.572  13.432   1.603
26870SOL     OW82506   7.505   3.671   7.145
26870SOL    HW182507   7.468   3.737   7.204
26870SOL    HW282508   7.556   3.722   7.082
26871SOL     OW82509   5.851  11.489   5.517
26871SOL    HW182510   5.824  11.549   5.447
26871SOL    HW282511   5.933  11.451   5.485
26872SOL     OW82512  11.035   2.149   2.809
26872SOL    HW182513  11.026   2.058   2.783
26872SOL    HW282514  10.946   2.183   2.811
26873SOL     OW82515   5.205   1.469  12.396
26873SOL    HW182516   5.217   1.513  12.480
26873SOL    HW282517   5.180   1.539  12.335
26874SOL     OW82518  14.199  12.512   3.436
26874SOL    HW182519  14.185  12.543   3.346
26874SOL    HW282520  14.294  12.498   3.442
26875SOL     OW82521  14.674   1.315  10.291
26875SOL    HW182522  14.582   1.336  10.308
26875SOL    HW282523  14.719   1.336  10.373
26876SOL     OW82524   7.167   8.883   1.804
26876SOL    HW182525   7.234   8.835   1.852
26876SOL    HW282526   7.091   8.882   1.863
26877SOL     OW82527  10.391  12.837   9.975
26877SOL    HW182528  10.346  12.922   9.980
26877SOL    HW282529  10.419  12.820  10.065
26878SOL     OW82530  13.370   8.172   8.338
26878SOL    HW182531  13.439   8.160   8.273
26878SOL    HW282532  13.360   8.267   8.345
26879SOL     OW82533  14.836  10.347   3.371
26879SOL    HW182534  14.836  10.442   3.380
26879SOL    HW282535   0.045  10.326   3.342
26880SOL     OW82536   6.897   2.404  10.732
26880SOL    HW182537   6.913   2.482  10.785
26880SOL    HW282538   6.937   2.333  10.781
26881SOL     OW82539   3.597   5.752  11.350
26881SOL    HW182540   3.520   5.697  11.339
26881SOL    HW282541   3.616   5.784  11.261
26882SOL     OW82542   4.686  13.353   6.351
26882SOL    HW182543   4.710  13.444   6.371
26882SOL    HW282544   4.591  13.352   6.355
26883SOL     OW82545   9.499   3.918  13.660
26883SOL    HW182546   9.493   3.929  13.565
26883SOL    HW282547   9.489   3.824  13.674
26884SOL     OW82548  11.341  10.374   2.812
26884SOL    HW182549  11.313  10.283   2.804
26884SOL    HW282550  11.414  10.382   2.751
26885SOL     OW82551  12.394   3.416  13.318
26885SOL    HW182552  12.481   3.441  13.349
26885SOL    HW282553  12.374   3.335  13.364
26886SOL     OW82554  14.477   0.941   6.016
26886SOL    HW182555  14.436   0.881   5.954
26886SOL    HW282556  14.487   1.023   5.968
26887SOL     OW82557   8.383   8.831   9.509
26887SOL    HW182558   8.374   8.882   9.429
26887SOL    HW282559   8.363   8.892   9.579
26888SOL     OW82560   8.552   8.773   8.568
26888SOL    HW182561   8.598   8.719   8.503
26888SOL    HW282562   8.568   8.729   8.651
26889SOL     OW82563   0.493   3.633  13.939
26889SOL    HW182564   0.502   3.539  13.929
26889SOL    HW282565   0.416   3.656  13.888
26890SOL     OW82566   9.678   1.272  14.458
26890SOL    HW182567   9.707   1.359  14.433
26890SOL    HW282568   9.583   1.279  14.468
26891SOL     OW82569   9.757   6.611   9.569
26891SOL    HW182570   9.810   6.680   9.530
26891SOL    HW282571   9.729   6.647   9.654
26892SOL     OW82572   0.036   4.201   8.368
26892SOL    HW182573  14.843   4.259   8.390
26892SOL    HW282574   0.111   4.240   8.412
26893SOL     OW82575   1.319   8.918  13.988
26893SOL    HW182576   1.401   8.911  14.037
26893SOL    HW282577   1.295   9.010  13.994
26894SOL     OW82578  10.160   8.930   6.729
26894SOL    HW182579  10.223   8.921   6.801
26894SOL    HW282580  10.204   8.986   6.666
26895SOL     OW82581   3.123   1.662   0.078
26895SOL    HW182582   3.185   1.726   0.042
26895SOL    HW282583   3.050   1.662   0.016
26896SOL     OW82584   9.439   6.851   5.815
26896SOL    HW182585   9.383   6.787   5.858
26896SOL    HW282586   9.386   6.886   5.743
26897SOL     OW82587  12.754   9.161  14.497
26897SOL    HW182588  12.739   9.255  14.508
26897SOL    HW282589  12.834   9.156  14.444
26898SOL     OW82590  12.204   3.093   1.137
26898SOL    HW182591  12.128   3.118   1.189
26898SOL    HW282592  12.182   3.006   1.103
26899SOL     OW82593   0.602  11.108  12.118
26899SOL    HW182594   0.624  11.024  12.158
26899SOL    HW282595   0.548  11.152  12.184
26900SOL     OW82596  10.338  14.346   2.590
26900SOL    HW182597  10.323  14.259   2.628
26900SOL    HW282598  10.433  14.357   2.590
26901SOL     OW82599   3.261   4.150   0.634
26901SOL    HW182600   3.273   4.056   0.631
26901SOL    HW282601   3.283   4.180   0.545
26902SOL     OW82602   7.117   3.011   2.161
26902SOL    HW182603   7.175   3.081   2.130
26902SOL    HW282604   7.054   3.056   2.218
26903SOL     OW82605   3.711  14.764   8.818
26903SOL    HW182606   3.677  14.703   8.753
26903SOL    HW282607   3.704  14.850   8.776
26904SOL     OW82608   9.566   1.522   9.302
26904SOL    HW182609   9.657   1.510   9.329
26904SOL    HW282610   9.537   1.435   9.274
26905SOL     OW82611   9.045   2.273  13.913
26905SOL    HW182612   9.057   2.363  13.944
26905SOL    HW282613   8.954   2.271  13.880
26906SOL     OW82614   5.083   2.979  10.410
26906SOL    HW182615   5.133   3.056  10.437
26906SOL    HW282616   5.114   2.960  10.322
26907SOL     OW82617   4.790   6.170  14.559
26907SOL    HW182618   4.853   6.231  14.521
26907SOL    HW282619   4.840   6.119  14.623
26908SOL     OW82620   3.466   6.017   0.196
26908SOL    HW182621   3.495   5.989   0.109
26908SOL    HW282622   3.500   6.106   0.205
26909SOL     OW82623   8.816  12.459   5.106
26909SOL    HW182624   8.838  12.368   5.085
26909SOL    HW282625   8.724  12.457   5.131
26910SOL     OW82626   4.611   4.411   1.342
26910SOL    HW182627   4.684   4.464   1.310
26910SOL    HW282628   4.633   4.393   1.434
26911SOL     OW82629   3.859   8.851   7.657
26911SOL    HW182630   3.897   8.907   7.589
26911SOL    HW282631   3.934   8.805   7.694
26912SOL     OW82632   1.753   4.711   2.892
26912SOL    HW182633   1.725   4.622   2.914
26912SOL    HW282634   1.759   4.756   2.976
26913SOL     OW82635  12.842   2.893  13.580
26913SOL    HW182636  12.888   2.890  13.664
26913SOL    HW282637  12.781   2.819  13.584
26914SOL     OW82638  12.925   0.126  13.917
26914SOL    HW182639  12.908   0.186  13.990
26914SOL    HW282640  13.006   0.159  13.878
26915SOL     OW82641   0.183   3.054   7.323
26915SOL    HW182642   0.164   3.104   7.244
26915SOL    HW282643   0.122   2.980   7.321
26916SOL     OW82644  14.523   5.375  13.750
26916SOL    HW182645  14.436   5.339  13.766
26916SOL    HW282646  14.510   5.444  13.685
26917SOL     OW82647   9.139   8.254   4.988
26917SOL    HW182648   9.203   8.294   4.929
26917SOL    HW282649   9.065   8.232   4.932
26918SOL     OW82650   1.739  10.021  13.710
26918SOL    HW182651   1.782   9.960  13.649
26918SOL    HW282652   1.805  10.038  13.777
26919SOL     OW82653  12.028  11.151   5.010
26919SOL    HW182654  12.046  11.073   5.062
26919SOL    HW282655  12.110  11.168   4.963
26920SOL     OW82656   4.558   6.166   4.013
26920SOL    HW182657   4.582   6.184   3.922
26920SOL    HW282658   4.633   6.118   4.048
26921SOL     OW82659  11.423  13.311   6.133
26921SOL    HW182660  11.503  13.271   6.099
26921SOL    HW282661  11.353  13.272   6.081
26922SOL     OW82662   4.403   6.440   3.420
26922SOL    HW182663   4.393   6.404   3.509
26922SOL    HW282664   4.487   6.407   3.390
26923SOL     OW82665   3.217  14.878  14.875
26923SOL    HW182666   3.217  14.865  14.780
26923SOL    HW282667   3.254   0.085   0.007
26924SOL     OW82668   0.682   6.153   0.825
26924SOL    HW182669   0.613   6.166   0.760
26924SOL    HW282670   0.644   6.184   0.907
26925SOL     OW82671   6.332   2.084  12.351
26925SOL    HW182672   6.273   2.124  12.415
26925SOL    HW282673   6.317   2.133  12.271
26926SOL     OW82674   6.431   4.963  11.953
26926SOL    HW182675   6.476   4.890  11.997
26926SOL    HW282676   6.466   4.963  11.864
26927SOL     OW82677  11.193   4.911   6.252
26927SOL    HW182678  11.258   4.940   6.316
26927SOL    HW282679  11.150   4.836   6.293
26928SOL     OW82680   0.420  12.950  10.352
26928SOL    HW182681   0.387  12.983  10.436
26928SOL    HW282682   0.470  13.023  10.316
26929SOL     OW82683   8.295  14.510   0.979
26929SOL    HW182684   8.286  14.583   0.917
26929SOL    HW282685   8.378  14.469   0.955
26930SOL     OW82686  12.762   3.047   5.830
26930SOL    HW182687  12.748   3.077   5.740
26930SOL    HW282688  12.754   2.951   5.824
26931SOL     OW82689   4.928   2.139   4.340
26931SOL    HW182690   4.972   2.133   4.425
26931SOL    HW282691   4.866   2.212   4.349
26932SOL     OW82692  11.151  13.868   1.171
26932SOL    HW182693  11.148  13.958   1.137
26932SOL    HW282694  11.190  13.878   1.258
26933SOL     OW82695   7.182   7.242   9.877
26933SOL    HW182696   7.131   7.319   9.903
26933SOL    HW282697   7.209   7.202   9.959
26934SOL     OW82698   8.337   4.336   1.422
26934SOL    HW182699   8.329   4.390   1.501
26934SOL    HW282700   8.415   4.370   1.379
26935SOL     OW82701   3.409   0.116   0.320
26935SOL    HW182702   3.499   0.144   0.304
26935SOL    HW282703   3.356   0.195   0.304
26936SOL     OW82704   0.335  11.145   4.591
26936SOL    HW182705   0.253  11.135   4.640
26936SOL    HW282706   0.357  11.056   4.563
26937SOL     OW82707   4.636   9.764   7.146
26937SOL    HW182708   4.555   9.815   7.156
26937SOL    HW282709   4.694   9.822   7.097
26938SOL     OW82710   9.208   8.877   6.911
26938SOL    HW182711   9.177   8.796   6.871
26938SOL    HW282712   9.277   8.907   6.853
26939SOL     OW82713  14.389   4.227  12.334
26939SOL    HW182714  14.379   4.313  12.373
26939SOL    HW282715  14.310   4.179  12.361
26940SOL     OW82716   7.271   8.302   4.203
26940SOL    HW182717   7.238   8.216   4.227
26940SOL    HW282718   7.274   8.351   4.285
26941SOL     OW82719  11.754   3.404   0.483
26941SOL    HW182720  11.675   3.436   0.439
26941SOL    HW282721  11.752   3.444   0.570
26942SOL     OW82722  12.072   6.323   2.477
26942SOL    HW182723  12.085   6.243   2.426
26942SOL    HW282724  12.019   6.379   2.420
26943SOL     OW82725   2.154   2.867   3.243
26943SOL    HW182726   2.162   2.951   3.288
26943SOL    HW282727   2.064   2.866   3.210
26944SOL     OW82728   5.841   2.349   8.525
26944SOL    HW182729   5.751   2.366   8.551
26944SOL    HW282730   5.859   2.413   8.456
26945SOL     OW82731   1.617   5.336   7.943
26945SOL    HW182732   1.641   5.429   7.950
26945SOL    HW282733   1.635   5.300   8.030
26946SOL     OW82734  13.731   2.414   7.280
26946SOL    HW182735  13.806   2.472   7.266
26946SOL    HW282736  13.662   2.471   7.314
26947SOL     OW82737   1.885  10.059   0.729
26947SOL    HW182738   1.856   9.989   0.671
26947SOL    HW282739   1.917  10.127   0.670
26948SOL     OW82740   2.545  14.336   7.183
26948SOL    HW182741   2.620  14.292   7.224
26948SOL    HW282742   2.470  14.279   7.201
26949SOL     OW82743   5.559  10.597   6.099
26949SOL    HW182744   5.500  10.670   6.117
26949SOL    HW282745   5.638  10.638   6.064
26950SOL     OW82746   0.646   2.645  13.423
26950SOL    HW182747   0.732   2.658  13.384
26950SOL    HW282748   0.664   2.612  13.511
26951SOL     OW82749  11.209   0.787   6.821
26951SOL    HW182750  11.166   0.754   6.742
26951SOL    HW282751  11.139   0.793   6.886
26952SOL     OW82752   3.772  14.233  10.512
26952SOL    HW182753   3.724  14.170  10.459
26952SOL    HW282754   3.753  14.209  10.602
26953SOL     OW82755   7.180   9.553  12.129
26953SOL    HW182756   7.141   9.511  12.206
26953SOL    HW282757   7.173   9.487  12.060
26954SOL     OW82758  11.037   3.827  13.975
26954SOL    HW182759  11.046   3.741  14.016
26954SOL    HW282760  11.001   3.882  14.045
26955SOL     OW82761  11.910   8.622  13.232
26955SOL    HW182762  11.977   8.681  13.198
26955SOL    HW282763  11.897   8.557  13.163
26956SOL     OW82764   2.735   1.813   4.688
26956SOL    HW182765   2.695   1.736   4.729
26956SOL    HW282766   2.728   1.882   4.754
26957SOL     OW82767   4.394   7.479  13.368
26957SOL    HW182768   4.313   7.460  13.414
26957SOL    HW282769   4.433   7.394  13.349
26958SOL     OW82770   2.340   2.056   7.860
26958SOL    HW182771   2.262   2.004   7.839
26958SOL    HW282772   2.306   2.143   7.881
26959SOL     OW82773  12.596   2.237  10.108
26959SOL    HW182774  12.662   2.168  10.106
26959SOL    HW282775  12.553   2.230  10.023
26960SOL     OW82776   1.979   3.368  14.530
26960SOL    HW182777   2.039   3.360  14.604
26960SOL    HW282778   1.953   3.277  14.511
26961SOL     OW82779  12.234  14.282   7.610
26961SOL    HW182780  12.306  14.222   7.629
26961SOL    HW282781  12.225  14.336   7.689
26962SOL     OW82782  13.755  10.058   8.731
26962SOL    HW182783  13.729   9.972   8.764
26962SOL    HW282784  13.810  10.095   8.800
26963SOL     OW82785   5.273  11.949  13.722
26963SOL    HW182786   5.333  11.909  13.786
26963SOL    HW282787   5.205  11.883  13.708
26964SOL     OW82788   1.211  11.845  10.891
26964SOL    HW182789   1.158  11.768  10.912
26964SOL    HW282790   1.290  11.836  10.945
26965SOL     OW82791  13.053   8.115  11.378
26965SOL    HW182792  12.989   8.068  11.432
26965SOL    HW282793  13.138   8.086  11.411
26966SOL     OW82794  14.469  12.028  13.433
26966SOL    HW182795  14.509  12.050  13.349
26966SOL    HW282796  14.496  12.100  13.491
26967SOL     OW82797   6.848  14.443   6.146
26967SOL    HW182798   6.866  14.366   6.201
26967SOL    HW282799   6.814  14.508   6.207
26968SOL     OW82800  11.036  12.370   7.928
26968SOL    HW182801  11.088  12.445   7.956
26968SOL    HW282802  10.988  12.344   8.006
26969SOL     OW82803   2.018   2.111   0.988
26969SOL    HW182804   1.987   2.144   1.073
26969SOL    HW282805   1.937   2.089   0.940
26970SOL     OW82806   9.277  11.528  10.385
26970SOL    HW182807   9.189  11.491  10.378
26970SOL    HW282808   9.301  11.515  10.476
26971SOL     OW82809  13.623   5.508  14.036
26971SOL    HW182810  13.685   5.449  13.994
26971SOL    HW282811  13.623   5.481  14.128
26972SOL     OW82812   6.209  11.232   0.090
26972SOL    HW182813   6.183  11.283   0.167
26972SOL    HW282814   6.265  11.163   0.124
26973SOL     OW82815   1.617   7.801   3.001
26973SOL    HW182816   1.691   7.847   3.040
26973SOL    HW282817   1.633   7.709   3.020
26974SOL     OW82818   8.567   0.335   9.727
26974SOL    HW182819   8.475   0.341   9.703
26974SOL    HW282820   8.603   0.270   9.667
26975SOL     OW82821  10.352  12.626   7.397
26975SOL    HW182822  10.303  12.707   7.384
26975SOL    HW282823  10.298  12.558   7.358
26976SOL     OW82824   9.524  12.973   5.285
26976SOL    HW182825   9.438  13.015   5.281
26976SOL    HW282826   9.571  13.021   5.353
26977SOL     OW82827   3.348   8.224  10.598
26977SOL    HW182828   3.354   8.155  10.664
26977SOL    HW282829   3.254   8.236  10.585
26978SOL     OW82830   4.873   7.139   1.140
26978SOL    HW182831   4.933   7.099   1.203
26978SOL    HW282832   4.887   7.090   1.059
26979SOL     OW82833   0.793   1.168   3.389
26979SOL    HW182834   0.883   1.197   3.402
26979SOL    HW282835   0.740   1.244   3.412
26980SOL     OW82836  11.341  11.689   0.085
26980SOL    HW182837  11.421  11.643   0.109
26980SOL    HW282838  11.311  11.730   0.166
26981SOL     OW82839   5.528  11.685  12.580
26981SOL    HW182840   5.554  11.597  12.609
26981SOL    HW282841   5.434  11.690  12.600
26982SOL     OW82842  14.372  11.148  12.891
26982SOL    HW182843  14.397  11.143  12.983
26982SOL    HW282844  14.333  11.235  12.881
26983SOL     OW82845   5.498   3.991   8.504
26983SOL    HW182846   5.524   4.024   8.590
26983SOL    HW282847   5.574   4.007   8.448
26984SOL     OW82848  14.209  13.918   9.933
26984SOL    HW182849  14.192  13.877   9.848
26984SOL    HW282850  14.134  13.894   9.986
26985SOL     OW82851  10.702   9.208   1.726
26985SOL    HW182852  10.777   9.255   1.689
26985SOL    HW282853  10.626   9.246   1.682
26986SOL     OW82854  10.367  10.563   5.647
26986SOL    HW182855  10.352  10.469   5.632
26986SOL    HW282856  10.364  10.601   5.559
26987SOL     OW82857   6.039   9.252   5.733
26987SOL    HW182858   6.128   9.267   5.702
26987SOL    HW282859   6.025   9.158   5.721
26988SOL     OW82860  10.486  10.398   5.248
26988SOL    HW182861  10.425  10.331   5.217
26988SOL    HW282862  10.566  10.383   5.197
26989SOL     OW82863  12.257   1.975  12.285
26989SOL    HW182864  12.334   1.936  12.326
26989SOL    HW282865  12.199   1.900  12.268
26990SOL     OW82866   4.829   0.787   4.394
26990SOL    HW182867   4.740   0.806   4.365
26990SOL    HW282868   4.839   0.837   4.474
26991SOL     OW82869  11.831   2.383   5.137
26991SOL    HW182870  11.911   2.396   5.084
26991SOL    HW282871  11.863   2.372   5.226
26992SOL     OW82872   5.306   7.111   1.117
26992SOL    HW182873   5.277   7.201   1.126
26992SOL    HW282874   5.227   7.059   1.131
26993SOL     OW82875   6.120   8.930  13.282
26993SOL    HW182876   6.042   8.948  13.230
26993SOL    HW282877   6.165   8.860  13.235
26994SOL     OW82878   8.544  11.797   2.348
26994SOL    HW182879   8.608  11.784   2.418
26994SOL    HW282880   8.570  11.879   2.306
26995SOL     OW82881   6.809  11.078  11.091
26995SOL    HW182882   6.758  11.000  11.070
26995SOL    HW282883   6.778  11.145  11.030
26996SOL     OW82884   8.069  14.369   1.028
26996SOL    HW182885   8.043  14.385   1.118
26996SOL    HW282886   8.158  14.403   1.022
26997SOL     OW82887   6.460  10.379   3.192
26997SOL    HW182888   6.461  10.385   3.288
26997SOL    HW282889   6.522  10.309   3.172
26998SOL     OW82890   0.277  11.784   9.284
26998SOL    HW182891   0.297  11.720   9.352
26998SOL    HW282892   0.204  11.835   9.320
26999SOL     OW82893   6.700  10.265  13.442
26999SOL    HW182894   6.617  10.281  13.397
26999SOL    HW282895   6.695  10.173  13.469
27000SOL     OW82896  11.162  13.443   5.267
27000SOL    HW182897  11.086  13.493   5.300
27000SOL    HW282898  11.135  13.352   5.275
27001SOL     OW82899   3.859  13.138   1.650
27001SOL    HW182900   3.843  13.124   1.557
27001SOL    HW282901   3.816  13.065   1.693
27002SOL     OW82902   9.978  13.371  14.805
27002SOL    HW182903   9.996  13.298  14.864
27002SOL    HW282904   9.991  13.449  14.859
27003SOL     OW82905   5.464   1.331   5.131
27003SOL    HW182906   5.427   1.327   5.042
27003SOL    HW282907   5.443   1.420   5.161
27004SOL     OW82908  11.513   5.995   0.908
27004SOL    HW182909  11.462   6.074   0.891
27004SOL    HW282910  11.545   5.968   0.822
27005SOL     OW82911   6.588   4.111  13.809
27005SOL    HW182912   6.679   4.137  13.823
27005SOL    HW282913   6.588   4.068  13.723
27006SOL     OW82914   0.061   9.122   3.482
27006SOL    HW182915  14.851   9.092   3.484
27006SOL    HW282916   0.055   9.212   3.449
27007SOL     OW82917  11.642  13.615   9.725
27007SOL    HW182918  11.584  13.643   9.654
27007SOL    HW282919  11.730  13.631   9.692
27008SOL     OW82920  14.257  14.170   7.967
27008SOL    HW182921  14.226  14.121   7.891
27008SOL    HW282922  14.342  14.132   7.988
27009SOL     OW82923  10.199   8.998   4.572
27009SOL    HW182924  10.292   9.007   4.551
27009SOL    HW282925  10.177   8.908   4.550
27010SOL     OW82926   3.441   5.687  13.085
27010SOL    HW182927   3.475   5.695  12.996
27010SOL    HW282928   3.479   5.762  13.132
27011SOL     OW82929   3.972   1.575   7.259
27011SOL    HW182930   3.974   1.588   7.354
27011SOL    HW282931   4.019   1.651   7.224
27012SOL     OW82932   1.581  11.629  12.384
27012SOL    HW182933   1.512  11.569  12.354
27012SOL    HW282934   1.606  11.595  12.471
27013SOL     OW82935   3.597  13.343   2.320
27013SOL    HW182936   3.503  13.360   2.318
27013SOL    HW282937   3.605  13.256   2.359
27014SOL     OW82938   3.442   6.349   0.062
27014SOL    HW182939   3.460   6.347  14.848
27014SOL    HW282940   3.519   6.307   0.102
27015SOL     OW82941  12.623   9.684   8.492
27015SOL    HW182942  12.662   9.662   8.577
27015SOL    HW282943  12.696   9.716   8.439
27016SOL     OW82944  14.152   7.012  14.197
27016SOL    HW182945  14.077   7.002  14.138
27016SOL    HW282946  14.205   7.080  14.158
27017SOL     OW82947   7.441   6.961   2.869
27017SOL    HW182948   7.524   6.917   2.850
27017SOL    HW282949   7.456   7.006   2.952
27018SOL     OW82950  14.260  10.437   4.278
27018SOL    HW182951  14.169  10.408   4.276
27018SOL    HW282952  14.256  10.527   4.247
27019SOL     OW82953   3.871  10.340   9.419
27019SOL    HW182954   3.823  10.332   9.337
27019SOL    HW282955   3.961  10.360   9.393
27020SOL     OW82956  10.106   3.692   0.189
27020SOL    HW182957  10.057   3.740   0.256
27020SOL    HW282958  10.183   3.747   0.173
27021SOL     OW82959  12.698   4.634   8.457
27021SOL    HW182960  12.645   4.575   8.510
27021SOL    HW282961  12.722   4.582   8.381
27022SOL     OW82962   1.535  12.138   7.686
27022SOL    HW182963   1.553  12.165   7.776
27022SOL    HW282964   1.452  12.091   7.690
27023SOL     OW82965  14.076  14.228  12.817
27023SOL    HW182966  14.006  14.291  12.833
27023SOL    HW282967  14.146  14.254  12.877
27024SOL     OW82968   7.687  14.470   3.856
27024SOL    HW182969   7.593  14.472   3.871
27024SOL    HW282970   7.701  14.389   3.806
27025SOL     OW82971   1.168   3.535   2.644
27025SOL    HW182972   1.222   3.575   2.712
27025SOL    HW282973   1.203   3.447   2.633
27026SOL     OW82974  11.150   9.080   4.151
27026SOL    HW182975  11.164   9.096   4.244
27026SOL    HW282976  11.233   9.042   4.120
27027SOL     OW82977   0.318   1.344   4.637
27027SOL    HW182978   0.330   1.249   4.641
27027SOL    HW282979   0.270   1.359   4.556
27028SOL     OW82980   6.640  14.322   0.307
27028SOL    HW182981   6.659  14.357   0.220
27028SOL    HW282982   6.622  14.400   0.361
27029SOL     OW82983   2.474   7.824  12.238
27029SOL    HW182984   2.526   7.825  12.319
27029SOL    HW282985   2.505   7.899  12.188
27030SOL     OW82986   0.556   3.547  13.395
27030SOL    HW182987   0.477   3.495  13.407
27030SOL    HW282988   0.531   3.635  13.425
27031SOL     OW82989   4.610   6.490   0.861
27031SOL    HW182990   4.550   6.565   0.862
27031SOL    HW282991   4.562   6.422   0.813
27032SOL     OW82992   6.977  13.384   6.334
27032SOL    HW182993   7.005  13.309   6.387
27032SOL    HW282994   7.054  13.405   6.281
27033SOL     OW82995   5.165   5.198   0.779
27033SOL    HW182996   5.153   5.103   0.780
27033SOL    HW282997   5.076   5.234   0.774
27034SOL     OW82998   6.642   2.507   4.138
27034SOL    HW182999   6.567   2.508   4.197
27034SOL    HW283000   6.647   2.417   4.107
27035SOL     OW83001   8.741   0.834   5.797
27035SOL    HW183002   8.814   0.879   5.840
27035SOL    HW283003   8.667   0.894   5.807
27036SOL     OW83004   8.127   7.033   6.549
27036SOL    HW183005   8.140   7.031   6.455
27036SOL    HW283006   8.215   7.042   6.586
27037SOL     OW83007  12.196   6.027   7.280
27037SOL    HW183008  12.195   6.056   7.371
27037SOL    HW283009  12.279   5.981   7.270
27038SOL     OW83010   5.356   7.657   8.551
27038SOL    HW183011   5.283   7.613   8.507
27038SOL    HW283012   5.433   7.635   8.499
27039SOL     OW83013   4.250   8.582   5.190
27039SOL    HW183014   4.223   8.574   5.098
27039SOL    HW283015   4.337   8.620   5.187
27040SOL     OW83016  13.405   7.618   2.404
27040SOL    HW183017  13.328   7.577   2.365
27040SOL    HW283018  13.444   7.669   2.332
27041SOL     OW83019   5.125  11.440  14.338
27041SOL    HW183020   5.172  11.433  14.421
27041SOL    HW283021   5.193  11.432  14.271
27042SOL     OW83022  14.276   4.748  11.504
27042SOL    HW183023  14.226   4.800  11.441
27042SOL    HW283024  14.253   4.784  11.590
27043SOL     OW83025   0.893   3.398   6.943
27043SOL    HW183026   0.828   3.364   6.882
27043SOL    HW283027   0.850   3.473   6.984
27044SOL     OW83028   0.095  12.016  12.785
27044SOL    HW183029   0.002  12.010  12.807
27044SOL    HW283030   0.140  11.969  12.855
27045SOL     OW83031   8.231   6.206   8.686
27045SOL    HW183032   8.238   6.167   8.774
27045SOL    HW283033   8.144   6.246   8.684
27046SOL     OW83034   8.733   4.243  11.496
27046SOL    HW183035   8.695   4.311  11.441
27046SOL    HW283036   8.708   4.161  11.454
27047SOL     OW83037   4.515  14.061   0.190
27047SOL    HW183038   4.466  14.073   0.109
27047SOL    HW283039   4.502  14.143   0.239
27048SOL     OW83040   8.922   1.852   0.949
27048SOL    HW183041   8.831   1.844   0.975
27048SOL    HW283042   8.933   1.790   0.878
27049SOL     OW83043  11.605  10.765   3.554
27049SOL    HW183044  11.683  10.760   3.499
27049SOL    HW283045  11.532  10.772   3.492
27050SOL     OW83046  12.785   2.563   2.174
27050SOL    HW183047  12.808   2.625   2.104
27050SOL    HW283048  12.866   2.553   2.224
27051SOL     OW83049   2.973   4.526  10.393
27051SOL    HW183050   2.986   4.554  10.484
27051SOL    HW283051   2.970   4.608  10.343
27052SOL     OW83052   9.818  12.577   3.667
27052SOL    HW183053   9.741  12.609   3.714
27052SOL    HW283054   9.838  12.494   3.710
27053SOL     OW83055   3.727  14.509  11.387
27053SOL    HW183056   3.820  14.496  11.402
27053SOL    HW283057   3.698  14.565  11.459
27054SOL     OW83058  12.455  11.823  10.881
27054SOL    HW183059  12.434  11.849  10.791
27054SOL    HW283060  12.373  11.838  10.929
27055SOL     OW83061   2.356   9.057  11.346
27055SOL    HW183062   2.434   9.020  11.305
27055SOL    HW283063   2.295   8.984  11.352
27056SOL     OW83064   8.333   3.751   2.911
27056SOL    HW183065   8.274   3.680   2.937
27056SOL    HW283066   8.337   3.745   2.815
27057SOL     OW83067  12.912   8.891  13.863
27057SOL    HW183068  12.846   8.833  13.825
27057SOL    HW283069  12.976   8.831  13.903
27058SOL     OW83070  12.505  11.840   5.563
27058SOL    HW183071  12.525  11.839   5.657
27058SOL    HW283072  12.517  11.931   5.537
27059SOL     OW83073   9.369  11.634   8.265
27059SOL    HW183074   9.355  11.624   8.359
27059SOL    HW283075   9.451  11.684   8.258
27060SOL     OW83076   4.385  10.236  12.140
27060SOL    HW183077   4.335  10.316  12.156
27060SOL    HW283078   4.318  10.170  12.123
27061SOL     OW83079  13.390   2.260   3.591
27061SOL    HW183080  13.318   2.220   3.542
27061SOL    HW283081  13.453   2.287   3.525
27062SOL     OW83082   4.080   4.912   3.642
27062SOL    HW183083   4.154   4.875   3.593
27062SOL    HW283084   4.003   4.868   3.607
27063SOL     OW83085   0.284   2.799   0.422
27063SOL    HW183086   0.193   2.774   0.406
27063SOL    HW283087   0.322   2.811   0.336
27064SOL     OW83088  12.645   5.311   7.192
27064SOL    HW183089  12.585   5.368   7.144
27064SOL    HW283090  12.650   5.348   7.280
27065SOL     OW83091   5.441  12.646   9.824
27065SOL    HW183092   5.454  12.623   9.916
27065SOL    HW283093   5.528  12.641   9.785
27066SOL     OW83094  11.989   4.293   4.769
27066SOL    HW183095  11.954   4.363   4.824
27066SOL    HW283096  12.084   4.303   4.776
27067SOL     OW83097   3.145  14.193   5.065
27067SOL    HW183098   3.088  14.205   5.141
27067SOL    HW283099   3.093  14.226   4.991
27068SOL     OW83100   7.930   6.413   2.542
27068SOL    HW183101   7.975   6.343   2.589
27068SOL    HW283102   7.997   6.451   2.485
27069SOL     OW83103   3.785   0.524   1.814
27069SOL    HW183104   3.844   0.464   1.859
27069SOL    HW283105   3.796   0.607   1.860
27070SOL     OW83106  14.134  14.753   2.904
27070SOL    HW183107  14.140  14.691   2.831
27070SOL    HW283108  14.177  14.832   2.873
27071SOL     OW83109  13.796  13.276   6.620
27071SOL    HW183110  13.847  13.325   6.556
27071SOL    HW283111  13.710  13.265   6.578
27072SOL     OW83112   5.671   6.679   4.577
27072SOL    HW183113   5.719   6.755   4.609
27072SOL    HW283114   5.636   6.638   4.656
27073SOL     OW83115   9.004  14.003   9.971
27073SOL    HW183116   9.085  13.960   9.996
27073SOL    HW283117   8.948  13.931   9.941
27074SOL     OW83118   0.426   1.350  12.246
27074SOL    HW183119   0.393   1.347  12.336
27074SOL    HW283120   0.412   1.441  12.219
27075SOL     OW83121   0.220  12.216   9.919
27075SOL    HW183122   0.269  12.283   9.871
27075SOL    HW283123   0.132  12.221   9.882
27076SOL     OW83124  10.950   9.076   6.753
27076SOL    HW183125  10.891   9.003   6.735
27076SOL    HW283126  10.893   9.154   6.751
27077SOL     OW83127  14.228  10.040   4.890
27077SOL    HW183128  14.191  10.036   4.979
27077SOL    HW283129  14.244   9.948   4.867
27078SOL     OW83130   3.545  10.657  13.065
27078SOL    HW183131   3.613  10.663  13.132
27078SOL    HW283132   3.592  10.657  12.982
27079SOL     OW83133   2.118   9.336   4.728
27079SOL    HW183134   2.210   9.324   4.749
27079SOL    HW283135   2.074   9.341   4.813
27080SOL     OW83136   6.489  14.283  11.110
27080SOL    HW183137   6.574  14.324  11.094
27080SOL    HW283138   6.431  14.357  11.129
27081SOL     OW83139   6.120   9.036  12.413
27081SOL    HW183140   6.157   8.968  12.356
27081SOL    HW283141   6.138   9.006  12.502
27082SOL     OW83142   8.052   5.141  10.798
27082SOL    HW183143   7.967   5.111  10.765
27082SOL    HW283144   8.096   5.060  10.826
27083SOL     OW83145  11.160  10.700   5.194
27083SOL    HW183146  11.169  10.670   5.103
27083SOL    HW283147  11.170  10.620   5.246
27084SOL     OW83148  13.044   3.084   0.698
27084SOL    HW183149  13.062   3.051   0.610
27084SOL    HW283150  13.107   3.155   0.711
27085SOL     OW83151   9.662   1.536   9.873
27085SOL    HW183152   9.665   1.512   9.780
27085SOL    HW283153   9.754   1.544   9.897
27086SOL     OW83154   0.388   3.268  14.359
27086SOL    HW183155   0.363   3.277  14.267
27086SOL    HW283156   0.309   3.290  14.408
27087SOL     OW83157   8.687  13.554   8.206
27087SOL    HW183158   8.727  13.471   8.234
27087SOL    HW283159   8.638  13.584   8.283
27088SOL     OW83160  13.306   9.117   6.042
27088SOL    HW183161  13.343   9.162   5.966
27088SOL    HW283162  13.214   9.142   6.042
27089SOL     OW83163   7.041   9.007   4.346
27089SOL    HW183164   7.072   9.072   4.283
27089SOL    HW283165   6.981   8.952   4.296
27090SOL     OW83166   1.555  10.103   2.294
27090SOL    HW183167   1.484  10.092   2.357
27090SOL    HW283168   1.555  10.023   2.242
27091SOL     OW83169  11.342   9.826  10.358
27091SOL    HW183170  11.321   9.788  10.273
27091SOL    HW283171  11.302   9.912  10.357
27092SOL     OW83172  13.137  14.542  13.100
27092SOL    HW183173  13.071  14.474  13.114
27092SOL    HW283174  13.105  14.592  13.026
27093SOL     OW83175   9.607  11.054   2.964
27093SOL    HW183176   9.541  11.041   2.896
27093SOL    HW283177   9.556  11.063   3.045
27094SOL     OW83178   0.688   4.545   8.150
27094SOL    HW183179   0.634   4.580   8.221
27094SOL    HW283180   0.640   4.568   8.070
27095SOL     OW83181  11.010   2.257  10.479
27095SOL    HW183182  10.954   2.186  10.510
27095SOL    HW283183  11.042   2.228  10.394
27096SOL     OW83184  13.616  13.102   7.694
27096SOL    HW183185  13.647  13.087   7.783
27096SOL    HW283186  13.663  13.180   7.665
27097SOL     OW83187   2.571   4.359  12.198
27097SOL    HW183188   2.643   4.393  12.250
27097SOL    HW283189   2.496   4.358  12.258
27098SOL     OW83190   0.204  11.651  11.162
27098SOL    HW183191   0.258  11.726  11.141
27098SOL    HW283192   0.122  11.689  11.195
27099SOL     OW83193   1.679   2.063   9.491
27099SOL    HW183194   1.594   2.025   9.514
27099SOL    HW283195   1.731   2.056   9.570
27100SOL     OW83196   8.085   2.997   1.588
27100SOL    HW183197   8.010   3.007   1.647
27100SOL    HW283198   8.146   2.943   1.637
27101SOL     OW83199   2.757   7.210  13.508
27101SOL    HW183200   2.755   7.190  13.414
27101SOL    HW283201   2.666   7.219  13.533
27102SOL     OW83202  13.120   6.707   5.844
27102SOL    HW183203  13.165   6.786   5.876
27102SOL    HW283204  13.123   6.716   5.748
27103SOL     OW83205   4.334   3.304   3.475
27103SOL    HW183206   4.359   3.365   3.405
27103SOL    HW283207   4.268   3.248   3.435
27104SOL     OW83208   2.492   7.404   5.823
27104SOL    HW183209   2.462   7.319   5.854
27104SOL    HW283210   2.494   7.396   5.728
27105SOL     OW83211  10.945   8.742  14.618
27105SOL    HW183212  11.022   8.773  14.571
27105SOL    HW283213  10.873   8.751  14.554
27106SOL     OW83214   0.193   8.475   9.284
27106SOL    HW183215   0.223   8.558   9.249
27106SOL    HW283216   0.139   8.437   9.215
27107SOL     OW83217   4.141  11.853   2.839
27107SOL    HW183218   4.194  11.786   2.882
27107SOL    HW283219   4.053  11.839   2.872
27108SOL     OW83220   9.351   4.656  10.063
27108SOL    HW183221   9.373   4.600  10.137
27108SOL    HW283222   9.263   4.688  10.083
27109SOL     OW83223   4.525   5.198   0.863
27109SOL    HW183224   4.561   5.222   0.948
27109SOL    HW283225   4.551   5.106   0.852
27110SOL     OW83226   9.170   2.995   9.377
27110SOL    HW183227   9.221   3.019   9.300
27110SOL    HW283228   9.208   2.913   9.407
27111SOL     OW83229   1.066   0.801   9.284
27111SOL    HW183230   1.113   0.809   9.367
27111SOL    HW283231   1.131   0.766   9.223
27112SOL     OW83232  14.544   5.184  10.023
27112SOL    HW183233  14.478   5.114  10.023
27112SOL    HW283234  14.622   5.142  10.060
27113SOL     OW83235  14.576   5.096   4.495
27113SOL    HW183236  14.525   5.177   4.502
27113SOL    HW283237  14.533   5.047   4.425
27114SOL     OW83238   3.164  12.417   1.593
27114SOL    HW183239   3.127  12.335   1.625
27114SOL    HW283240   3.255  12.415   1.622
27115SOL     OW83241   8.110   4.427   5.997
27115SOL    HW183242   8.122   4.507   5.945
27115SOL    HW283243   8.018   4.428   6.021
27116SOL     OW83244   4.057   5.789   0.740
27116SOL    HW183245   4.036   5.702   0.774
27116SOL    HW283246   4.095   5.773   0.654
27117SOL     OW83247  11.001   9.394  14.634
27117SOL    HW183248  11.079   9.339  14.625
27117SOL    HW283249  10.973   9.412  14.544
27118SOL     OW83250  13.323   2.842   4.612
27118SOL    HW183251  13.334   2.841   4.707
27118SOL    HW283252  13.390   2.782   4.579
27119SOL     OW83253  13.156  14.152   9.943
27119SOL    HW183254  13.172  14.236   9.985
27119SOL    HW283255  13.157  14.171   9.849
27120SOL     OW83256  13.900  13.656   2.337
27120SOL    HW183257  13.926  13.615   2.255
27120SOL    HW283258  13.962  13.728   2.349
27121SOL     OW83259   9.048   6.339  10.099
27121SOL    HW183260   8.984   6.377  10.039
27121SOL    HW283261   9.096   6.414  10.134
27122SOL     OW83262  12.007   6.685   3.941
27122SOL    HW183263  12.079   6.728   3.987
27122SOL    HW283264  11.977   6.749   3.877
27123SOL     OW83265   4.198   1.633  13.614
27123SOL    HW183266   4.166   1.607  13.528
27123SOL    HW283267   4.286   1.667  13.598
27124SOL     OW83268   5.871   1.380   3.622
27124SOL    HW183269   5.873   1.465   3.578
27124SOL    HW283270   5.934   1.389   3.694
27125SOL     OW83271   9.814   4.792  13.347
27125SOL    HW183272   9.840   4.878  13.314
27125SOL    HW283273   9.846   4.791  13.437
27126SOL     OW83274   6.211   2.719   1.170
27126SOL    HW183275   6.148   2.678   1.229
27126SOL    HW283276   6.293   2.674   1.187
27127SOL     OW83277   4.854   3.184   4.641
27127SOL    HW183278   4.807   3.179   4.724
27127SOL    HW283279   4.931   3.238   4.660
27128SOL     OW83280  12.166   3.275   8.924
27128SOL    HW183281  12.111   3.200   8.907
27128SOL    HW283282  12.245   3.239   8.964
27129SOL     OW83283  11.504   4.156   4.930
27129SOL    HW183284  11.495   4.067   4.965
27129SOL    HW283285  11.578   4.193   4.979
27130SOL     OW83286   2.169  10.078   5.952
27130SOL    HW183287   2.192  10.142   6.020
27130SOL    HW283288   2.214   9.998   5.979
27131SOL     OW83289  10.413   8.326  12.264
27131SOL    HW183290  10.400   8.267  12.339
27131SOL    HW283291  10.468   8.277  12.204
27132SOL     OW83292   5.874   5.320  14.600
27132SOL    HW183293   5.923   5.305  14.519
27132SOL    HW283294   5.839   5.409  14.591
27133SOL     OW83295   1.131   2.851   0.222
27133SOL    HW183296   1.066   2.858   0.292
27133SOL    HW283297   1.203   2.907   0.252
27134SOL     OW83298   9.172   3.046   2.703
27134SOL    HW183299   9.235   3.062   2.773
27134SOL    HW283300   9.092   3.089   2.733
27135SOL     OW83301   3.604   9.179  13.128
27135SOL    HW183302   3.694   9.207  13.149
27135SOL    HW283303   3.568   9.150  13.212
27136SOL     OW83304   9.356   0.938   5.753
27136SOL    HW183305   9.372   0.924   5.660
27136SOL    HW283306   9.442   0.931   5.795
27137SOL     OW83307  14.180  10.926   1.754
27137SOL    HW183308  14.157  11.015   1.727
27137SOL    HW283309  14.237  10.894   1.684
27138SOL     OW83310   5.356   6.609   1.018
27138SOL    HW183311   5.415   6.539   0.991
27138SOL    HW283312   5.413   6.675   1.058
27139SOL     OW83313   8.554   4.734   7.480
27139SOL    HW183314   8.539   4.732   7.575
27139SOL    HW283315   8.469   4.757   7.443
27140SOL     OW83316  14.443   3.412  11.996
27140SOL    HW183317  14.477   3.348  11.934
27140SOL    HW283318  14.514   3.477  12.005
27141SOL     OW83319   2.237   5.314   1.743
27141SOL    HW183320   2.307   5.255   1.715
27141SOL    HW283321   2.158   5.278   1.701
27142SOL     OW83322   7.803   5.215   4.092
27142SOL    HW183323   7.797   5.125   4.122
27142SOL    HW283324   7.869   5.255   4.149
27143SOL     OW83325   3.306  10.841   7.106
27143SOL    HW183326   3.336  10.802   7.024
27143SOL    HW283327   3.261  10.771   7.152
27144SOL     OW83328   2.680   7.133   5.875
27144SOL    HW183329   2.726   7.205   5.832
27144SOL    HW283330   2.633   7.089   5.805
27145SOL     OW83331   6.074   2.599  14.455
27145SOL    HW183332   6.111   2.683  14.482
27145SOL    HW283333   6.121   2.577  14.375
27146SOL     OW83334  14.551   9.629  11.050
27146SOL    HW183335  14.471   9.608  11.003
27146SOL    HW283336  14.550   9.724  11.058
27147SOL     OW83337  12.990   4.209   1.235
27147SOL    HW183338  13.039   4.215   1.153
27147SOL    HW283339  12.987   4.116   1.255
27148SOL     OW83340   8.197   7.928  10.751
27148SOL    HW183341   8.114   7.886  10.725
27148SOL    HW283342   8.199   8.010  10.702
27149SOL     OW83343  13.414   3.752  10.636
27149SOL    HW183344  13.491   3.807  10.654
27149SOL    HW283345  13.357   3.808  10.582
27150SOL     OW83346   1.415   9.532   4.394
27150SOL    HW183347   1.465   9.546   4.474
27150SOL    HW283348   1.476   9.557   4.324
27151SOL     OW83349   4.456   3.423  12.555
27151SOL    HW183350   4.550   3.424  12.535
27151SOL    HW283351   4.435   3.515  12.574
27152SOL     OW83352   0.276   0.935   5.451
27152SOL    HW183353   0.309   0.846   5.462
27152SOL    HW283354   0.265   0.968   5.540
27153SOL     OW83355   7.170   1.481  14.681
27153SOL    HW183356   7.175   1.538  14.604
27153SOL    HW283357   7.244   1.421  14.671
27154SOL     OW83358   3.453  14.303  11.068
27154SOL    HW183359   3.536  14.286  11.113
27154SOL    HW283360   3.428  14.391  11.097
27155SOL     OW83361   9.574  12.873   1.266
27155SOL    HW183362   9.556  12.799   1.208
27155SOL    HW283363   9.488  12.910   1.286
27156SOL     OW83364  12.723   1.281   4.144
27156SOL    HW183365  12.631   1.254   4.154
27156SOL    HW283366  12.767   1.242   4.219
27157SOL     OW83367   7.408   1.145   9.408
27157SOL    HW183368   7.448   1.064   9.440
27157SOL    HW283369   7.468   1.214   9.434
27158SOL     OW83370  11.528   0.002  13.731
27158SOL    HW183371  11.452  14.842  13.773
27158SOL    HW283372  11.498   0.089  13.706
27159SOL     OW83373   7.153   5.523   3.543
27159SOL    HW183374   7.137   5.618   3.550
27159SOL    HW283375   7.154   5.493   3.634
27160SOL     OW83376   6.673   1.470   2.830
27160SOL    HW183377   6.577   1.466   2.825
27160SOL    HW283378   6.694   1.563   2.832
27161SOL     OW83379   9.674   3.159   7.812
27161SOL    HW183380   9.695   3.209   7.891
27161SOL    HW283381   9.753   3.107   7.795
27162SOL     OW83382   0.212   9.073   9.111
27162SOL    HW183383   0.279   9.140   9.096
27162SOL    HW283384   0.220   9.051   9.204
27163SOL     OW83385  12.269  12.328   6.939
27163SOL    HW183386  12.348  12.341   6.992
27163SOL    HW283387  12.302  12.305   6.852
27164SOL     OW83388   8.669  11.170   8.023
27164SOL    HW183389   8.616  11.189   8.100
27164SOL    HW283390   8.701  11.081   8.037
27165SOL     OW83391   0.616   9.017   1.477
27165SOL    HW183392   0.568   8.934   1.489
27165SOL    HW283393   0.630   9.048   1.567
27166SOL     OW83394   1.120   0.536  10.458
27166SOL    HW183395   1.076   0.452  10.473
27166SOL    HW283396   1.203   0.527  10.505
27167SOL     OW83397  13.885   6.441   8.988
27167SOL    HW183398  13.909   6.379   8.919
27167SOL    HW283399  13.934   6.520   8.966
27168SOL     OW83400   9.393   2.683   5.225
27168SOL    HW183401   9.335   2.709   5.296
27168SOL    HW283402   9.385   2.588   5.220
27169SOL     OW83403  12.066   0.740   5.590
27169SOL    HW183404  11.974   0.754   5.567
27169SOL    HW283405  12.113   0.743   5.507
27170SOL     OW83406   7.748   6.307  10.324
27170SOL    HW183407   7.751   6.363  10.402
27170SOL    HW283408   7.657   6.276  10.321
27171SOL     OW83409  10.574  12.729   1.621
27171SOL    HW183410  10.656  12.700   1.580
27171SOL    HW283411  10.597  12.810   1.666
27172SOL     OW83412  10.521   3.256   0.424
27172SOL    HW183413  10.429   3.279   0.415
27172SOL    HW283414  10.527   3.166   0.392
27173SOL     OW83415   5.878   7.617   8.153
27173SOL    HW183416   5.898   7.704   8.117
27173SOL    HW283417   5.869   7.561   8.076
27174SOL     OW83418  11.930   4.689   8.294
27174SOL    HW183419  11.979   4.678   8.375
27174SOL    HW283420  11.847   4.645   8.310
27175SOL     OW83421   9.694   1.866   6.316
27175SOL    HW183422   9.616   1.838   6.267
27175SOL    HW283423   9.765   1.814   6.279
27176SOL     OW83424   5.092   8.860  11.560
27176SOL    HW183425   5.144   8.931  11.599
27176SOL    HW283426   5.072   8.802  11.634
27177SOL     OW83427  10.183   6.866   4.446
27177SOL    HW183428  10.199   6.836   4.536
27177SOL    HW283429  10.105   6.920   4.452
27178SOL     OW83430  12.710  13.575   1.561
27178SOL    HW183431  12.739  13.597   1.650
27178SOL    HW283432  12.782  13.602   1.505
27179SOL     OW83433   6.218   2.911  13.380
27179SOL    HW183434   6.301   2.890  13.423
27179SOL    HW283435   6.229   2.880  13.290
27180SOL     OW83436   9.881  14.381   8.394
27180SOL    HW183437   9.872  14.338   8.479
27180SOL    HW283438   9.933  14.319   8.342
27181SOL     OW83439   2.426   4.153   7.375
27181SOL    HW183440   2.506   4.203   7.360
27181SOL    HW283441   2.355   4.217   7.367
27182SOL     OW83442   6.708   1.078   9.611
27182SOL    HW183443   6.646   1.051   9.543
27182SOL    HW283444   6.745   0.996   9.644
27183SOL     OW83445   2.209   1.037   5.230
27183SOL    HW183446   2.282   1.098   5.238
27183SOL    HW283447   2.249   0.957   5.196
27184SOL     OW83448   7.629  11.811   6.001
27184SOL    HW183449   7.560  11.875   5.982
27184SOL    HW283450   7.667  11.841   6.084
27185SOL     OW83451  10.363   2.910  10.468
27185SOL    HW183452  10.382   2.830  10.517
27185SOL    HW283453  10.448   2.937  10.433
27186SOL     OW83454   9.607  14.681   5.186
27186SOL    HW183455   9.569  14.662   5.100
27186SOL    HW283456   9.685  14.626   5.190
27187SOL     OW83457   2.383   1.124   9.215
27187SOL    HW183458   2.370   1.088   9.303
27187SOL    HW283459   2.372   1.218   9.226
27188SOL     OW83460   7.951  13.638   6.433
27188SOL    HW183461   7.926  13.663   6.344
27188SOL    HW283462   7.869  13.639   6.482
27189SOL     OW83463   1.554  14.014   9.011
27189SOL    HW183464   1.512  14.100   9.003
27189SOL    HW283465   1.612  14.009   8.935
27190SOL     OW83466   4.587  10.848   7.013
27190SOL    HW183467   4.614  10.760   7.039
27190SOL    HW283468   4.625  10.859   6.925
27191SOL     OW83469   0.527   2.604   9.977
27191SOL    HW183470   0.618   2.605   9.948
27191SOL    HW283471   0.516   2.688  10.023
27192SOL     OW83472  12.255   0.934   7.880
27192SOL    HW183473  12.217   0.949   7.966
27192SOL    HW283474  12.199   0.982   7.819
27193SOL     OW83475  11.907  10.042  10.696
27193SOL    HW183476  11.958   9.971  10.658
27193SOL    HW283477  11.846   9.999  10.755
27194SOL     OW83478   8.044   8.407  11.953
27194SOL    HW183479   8.050   8.463  11.876
27194SOL    HW283480   8.136   8.389  11.977
27195SOL     OW83481   7.240   8.240  12.719
27195SOL    HW183482   7.313   8.288  12.680
27195SOL    HW283483   7.259   8.148  12.699
27196SOL     OW83484   1.601   5.039   4.645
27196SOL    HW183485   1.638   4.965   4.693
27196SOL    HW283486   1.612   5.015   4.553
27197SOL     OW83487   2.916   3.373  13.541
27197SOL    HW183488   2.897   3.279  13.533
27197SOL    HW283489   2.906   3.391  13.634
27198SOL     OW83490   2.693   8.647  12.895
27198SOL    HW183491   2.714   8.717  12.834
27198SOL    HW283492   2.735   8.672  12.976
27199SOL     OW83493   4.935   7.982  11.178
27199SOL    HW183494   4.841   8.000  11.173
27199SOL    HW283495   4.962   8.021  11.262
27200SOL     OW83496   0.371   7.485  10.505
27200SOL    HW183497   0.377   7.465  10.412
27200SOL    HW283498   0.422   7.416  10.547
27201SOL     OW83499   3.917   9.078  10.931
27201SOL    HW183500   3.990   9.021  10.958
27201SOL    HW283501   3.904   9.057  10.839
27202SOL     OW83502   3.284   3.458   1.387
27202SOL    HW183503   3.313   3.443   1.477
27202SOL    HW283504   3.232   3.381   1.365
27203SOL     OW83505   4.269   3.691  10.990
27203SOL    HW183506   4.306   3.617  10.941
27203SOL    HW283507   4.338   3.715  11.053
27204SOL     OW83508   7.060   0.125   7.010
27204SOL    HW183509   7.115   0.203   7.022
27204SOL    HW283510   7.008   0.144   6.932
27205SOL     OW83511   7.730  14.645   0.117
27205SOL    HW183512   7.747  14.553   0.139
27205SOL    HW283513   7.648  14.665   0.162
27206SOL     OW83514  14.711   1.243  14.514
27206SOL    HW183515  14.678   1.190  14.442
27206SOL    HW283516  14.644   1.310  14.526
27207SOL     OW83517   2.105  14.405   0.209
27207SOL    HW183518   2.091  14.478   0.149
27207SOL    HW283519   2.140  14.445   0.288
27208SOL     OW83520   0.224   8.727  11.459
27208SOL    HW183521   0.214   8.703  11.551
27208SOL    HW283522   0.146   8.693  11.416
27209SOL     OW83523  10.655  11.520   2.645
27209SOL    HW183524  10.743  11.557   2.642
27209SOL    HW283525  10.664  11.439   2.695
27210SOL     OW83526   3.469   0.738   3.092
27210SOL    HW183527   3.423   0.656   3.076
27210SOL    HW283528   3.401   0.797   3.125
27211SOL     OW83529   5.226   9.170   9.801
27211SOL    HW183530   5.288   9.235   9.833
27211SOL    HW283531   5.146   9.185   9.851
27212SOL     OW83532   8.190   0.757  14.639
27212SOL    HW183533   8.183   0.848  14.611
27212SOL    HW283534   8.100   0.724  14.636
27213SOL     OW83535   9.562   5.211   2.847
27213SOL    HW183536   9.492   5.217   2.782
27213SOL    HW283537   9.604   5.126   2.829
27214SOL     OW83538  11.803   4.343  10.246
27214SOL    HW183539  11.765   4.305  10.167
27214SOL    HW283540  11.738   4.327  10.314
27215SOL     OW83541   8.640   1.337   9.165
27215SOL    HW183542   8.637   1.432   9.151
27215SOL    HW283543   8.579   1.321   9.237
27216SOL     OW83544   1.198   4.262   9.782
27216SOL    HW183545   1.216   4.353   9.807
27216SOL    HW283546   1.266   4.241   9.719
27217SOL     OW83547   4.306  13.101  10.897
27217SOL    HW183548   4.312  13.023  10.952
27217SOL    HW283549   4.345  13.171  10.948
27218SOL     OW83550  13.719   1.886  10.478
27218SOL    HW183551  13.771   1.893  10.398
27218SOL    HW283552  13.640   1.936  10.461
27219SOL     OW83553   0.844   5.425   8.960
27219SOL    HW183554   0.829   5.341   9.005
27219SOL    HW283555   0.938   5.428   8.947
27220SOL     OW83556   9.753   8.278   9.208
27220SOL    HW183557   9.764   8.338   9.134
27220SOL    HW283558   9.764   8.334   9.286
27221SOL     OW83559  10.875   1.436   3.325
27221SOL    HW183560  10.822   1.426   3.246
27221SOL    HW283561  10.924   1.516   3.310
27222SOL     OW83562  12.252  12.475   0.508
27222SOL    HW183563  12.216  12.388   0.525
27222SOL    HW283564  12.346  12.467   0.527
27223SOL     OW83565  11.668  12.534  10.625
27223SOL    HW183566  11.587  12.511  10.670
27223SOL    HW283567  11.735  12.531  10.694
27224SOL     OW83568   3.068   4.988   1.197
27224SOL    HW183569   3.075   4.895   1.218
27224SOL    HW283570   3.151   5.011   1.157
27225SOL     OW83571   1.097   4.712  13.227
27225SOL    HW183572   1.090   4.766  13.148
27225SOL    HW283573   1.091   4.622  13.194
27226SOL     OW83574   1.876   9.743   1.418
27226SOL    HW183575   1.895   9.804   1.347
27226SOL    HW283576   1.891   9.793   1.498
27227SOL     OW83577   2.598   9.225  13.474
27227SOL    HW183578   2.616   9.318  13.487
27227SOL    HW283579   2.673   9.181  13.514
27228SOL     OW83580  12.299   8.876  11.132
27228SOL    HW183581  12.207   8.895  11.115
27228SOL    HW283582  12.304   8.864  11.227
27229SOL     OW83583  10.634   7.564   5.951
27229SOL    HW183584  10.716   7.612   5.936
27229SOL    HW283585  10.580   7.585   5.875
27230SOL     OW83586   9.775   4.814   5.226
27230SOL    HW183587   9.796   4.787   5.316
27230SOL    HW283588   9.836   4.885   5.208
27231SOL     OW83589  13.884   1.048   4.313
27231SOL    HW183590  13.910   1.139   4.306
27231SOL    HW283591  13.791   1.047   4.288
27232SOL     OW83592   4.935  10.808  13.850
27232SOL    HW183593   4.996  10.831  13.920
27232SOL    HW283594   4.991  10.769  13.782
27233SOL     OW83595   4.423   7.886   7.129
27233SOL    HW183596   4.406   7.932   7.047
27233SOL    HW283597   4.461   7.802   7.102
27234SOL     OW83598  10.150  10.346   5.990
27234SOL    HW183599  10.208  10.415   5.957
27234SOL    HW283600  10.075  10.347   5.929
27235SOL     OW83601   7.293   5.104  11.316
27235SOL    HW183602   7.213   5.143  11.281
27235SOL    HW283603   7.364   5.146  11.267
27236SOL     OW83604  10.329   5.961   7.664
27236SOL    HW183605  10.300   5.870   7.671
27236SOL    HW283606  10.269   6.009   7.721
27237SOL     OW83607   1.135   8.546  14.429
27237SOL    HW183608   1.229   8.555  14.415
27237SOL    HW283609   1.096   8.578  14.347
27238SOL     OW83610   4.370  12.921   9.442
27238SOL    HW183611   4.398  12.848   9.497
27238SOL    HW283612   4.297  12.885   9.391
27239SOL     OW83613  14.657  10.962  11.536
27239SOL    HW183614  14.624  10.998  11.619
27239SOL    HW283615  14.722  10.897  11.562
27240SOL     OW83616  13.345  11.242   1.852
27240SOL    HW183617  13.289  11.192   1.911
27240SOL    HW283618  13.359  11.183   1.777
27241SOL     OW83619   2.755   8.060   5.607
27241SOL    HW183620   2.781   8.114   5.532
27241SOL    HW283621   2.828   8.001   5.621
27242SOL     OW83622   9.707  11.242  10.069
27242SOL    HW183623   9.657  11.161  10.071
27242SOL    HW283624   9.706  11.269   9.977
27243SOL     OW83625   4.316  14.843   1.887
27243SOL    HW183626   4.333   0.023   1.959
27243SOL    HW283627   4.323   0.017   1.809
27244SOL     OW83628   0.701  11.442  14.266
27244SOL    HW183629   0.768  11.375  14.278
27244SOL    HW283630   0.668  11.427  14.177
27245SOL     OW83631  10.411  11.761  14.683
27245SOL    HW183632  10.371  11.684  14.723
27245SOL    HW283633  10.420  11.824  14.755
27246SOL     OW83634   3.147   7.163   8.410
27246SOL    HW183635   3.232   7.123   8.389
27246SOL    HW283636   3.111   7.108   8.479
27247SOL     OW83637   4.978   8.370  12.815
27247SOL    HW183638   4.899   8.330  12.779
27247SOL    HW283639   5.039   8.373  12.741
27248SOL     OW83640  11.909   8.409   7.205
27248SOL    HW183641  11.948   8.408   7.293
27248SOL    HW283642  11.825   8.454   7.217
27249SOL     OW83643   1.279   4.919  14.233
27249SOL    HW183644   1.249   4.859  14.164
27249SOL    HW283645   1.263   5.006  14.196
27250SOL     OW83646   2.792  14.800   6.224
27250SOL    HW183647   2.787  14.832   6.133
27250SOL    HW283648   2.873  14.750   6.228
27251SOL     OW83649  13.067   9.907  11.726
27251SOL    HW183650  13.004   9.893  11.656
27251SOL    HW283651  13.014   9.915  11.805
27252SOL     OW83652  12.091  10.027   5.406
27252SOL    HW183653  12.067  10.081   5.482
27252SOL    HW283654  12.092   9.938   5.440
27253SOL     OW83655   6.748  11.294   9.133
27253SOL    HW183656   6.826  11.239   9.130
27253SOL    HW283657   6.715  11.284   9.223
27254SOL     OW83658  13.925   8.031  11.850
27254SOL    HW183659  13.880   7.987  11.922
27254SOL    HW283660  13.957   7.960  11.795
27255SOL     OW83661  10.009   0.721  10.178
27255SOL    HW183662   9.923   0.762  10.163
27255SOL    HW283663  10.005   0.692  10.269
27256SOL     OW83664  12.359   0.095  12.524
27256SOL    HW183665  12.349   0.025  12.587
27256SOL    HW283666  12.284   0.086  12.466
27257SOL     OW83667   1.460   7.254   4.780
27257SOL    HW183668   1.534   7.230   4.836
27257SOL    HW283669   1.487   7.337   4.741
27258SOL     OW83670  12.065   0.927   0.151
27258SOL    HW183671  12.087   1.014   0.186
27258SOL    HW283672  11.972   0.917   0.171
27259SOL     OW83673  13.567   8.691   8.449
27259SOL    HW183674  13.647   8.724   8.491
27259SOL    HW283675  13.500   8.699   8.517
27260SOL     OW83676  11.361  10.942   1.570
27260SOL    HW183677  11.327  11.030   1.588
27260SOL    HW283678  11.438  10.957   1.516
27261SOL     OW83679   9.397  11.280   1.145
27261SOL    HW183680   9.490  11.276   1.123
27261SOL    HW283681   9.394  11.322   1.231
27262SOL     OW83682  12.745   6.597   8.034
27262SOL    HW183683  12.712   6.507   8.038
27262SOL    HW283684  12.691   6.645   8.098
27263SOL     OW83685  12.320  14.368  12.239
27263SOL    HW183686  12.262  14.438  12.267
27263SOL    HW283687  12.369  14.405  12.166
27264SOL     OW83688   8.869   3.872   7.982
27264SOL    HW183689   8.780   3.889   8.015
27264SOL    HW283690   8.857   3.854   7.889
27265SOL     OW83691   4.656  13.544   1.249
27265SOL    HW183692   4.580  13.591   1.283
27265SOL    HW283693   4.618  13.475   1.194
27266SOL     OW83694   4.283   8.126  10.815
27266SOL    HW183695   4.225   8.057  10.781
27266SOL    HW283696   4.336   8.082  10.881
27267SOL     OW83697   3.885   7.495   5.171
27267SOL    HW183698   3.939   7.439   5.226
27267SOL    HW283699   3.930   7.497   5.086
27268SOL     OW83700   4.917   9.153   4.396
27268SOL    HW183701   4.954   9.129   4.481
27268SOL    HW283702   4.905   9.248   4.401
27269SOL     OW83703   9.254  10.911   3.739
27269SOL    HW183704   9.216  10.963   3.810
27269SOL    HW283705   9.259  10.971   3.665
27270SOL     OW83706   9.240   5.206  13.351
27270SOL    HW183707   9.285   5.127  13.382
27270SOL    HW283708   9.157   5.206  13.398
27271SOL     OW83709   9.049  11.224  13.740
27271SOL    HW183710   9.017  11.257  13.656
27271SOL    HW283711   9.140  11.251  13.743
27272SOL     OW83712  10.378   9.218   8.126
27272SOL    HW183713  10.338   9.299   8.095
27272SOL    HW283714  10.427   9.186   8.051
27273SOL     OW83715   6.238  14.600   9.740
27273SOL    HW183716   6.193  14.539   9.681
27273SOL    HW283717   6.242  14.554   9.824
27274SOL     OW83718   3.281   5.042   6.748
27274SOL    HW183719   3.264   4.967   6.690
27274SOL    HW283720   3.377   5.048   6.751
27275SOL     OW83721  11.762  13.186   4.650
27275SOL    HW183722  11.719  13.194   4.565
27275SOL    HW283723  11.809  13.268   4.661
27276SOL     OW83724   5.147  10.425   8.307
27276SOL    HW183725   5.101  10.389   8.383
27276SOL    HW283726   5.077  10.459   8.251
27277SOL     OW83727  10.306   1.601  13.930
27277SOL    HW183728  10.331   1.545  14.004
27277SOL    HW283729  10.322   1.690  13.961
27278SOL     OW83730   7.849   7.475   4.567
27278SOL    HW183731   7.933   7.510   4.596
27278SOL    HW283732   7.853   7.481   4.471
27279SOL     OW83733  13.975  14.604   7.349
27279SOL    HW183734  13.885  14.637   7.355
27279SOL    HW283735  14.027  14.679   7.320
27280SOL     OW83736   2.326  10.888   5.376
27280SOL    HW183737   2.246  10.837   5.366
27280SOL    HW283738   2.396  10.830   5.346
27281SOL     OW83739  14.850  10.813  14.331
27281SOL    HW183740  14.860  10.872  14.256
27281SOL    HW283741  14.825  10.729  14.292
27282SOL     OW83742   9.929   2.423  11.075
27282SOL    HW183743   9.966   2.338  11.100
27282SOL    HW283744   9.945   2.479  11.151
27283SOL     OW83745   6.389   9.024   7.526
27283SOL    HW183746   6.419   8.945   7.572
27283SOL    HW283747   6.396   9.094   7.590
27284SOL     OW83748  13.646   3.013   5.174
27284SOL    HW183749  13.672   3.074   5.243
27284SOL    HW283750  13.711   3.025   5.105
27285SOL     OW83751   5.894   2.148  11.348
27285SOL    HW183752   5.923   2.070  11.397
27285SOL    HW283753   5.894   2.218  11.413
27286SOL     OW83754   6.434   6.903  10.894
27286SOL    HW183755   6.351   6.938  10.860
27286SOL    HW283756   6.408   6.821  10.938
27287SOL     OW83757   6.683   9.764   1.943
27287SOL    HW183758   6.693   9.675   1.977
27287SOL    HW283759   6.734   9.764   1.862
27288SOL     OW83760  13.312  11.837   4.539
27288SOL    HW183761  13.336  11.765   4.481
27288SOL    HW283762  13.253  11.891   4.487
27289SOL     OW83763   6.414  12.073   3.877
27289SOL    HW183764   6.440  11.983   3.899
27289SOL    HW283765   6.380  12.067   3.788
27290SOL     OW83766   9.812   9.184  13.707
27290SOL    HW183767   9.848   9.272  13.696
27290SOL    HW283768   9.773   9.164  13.622
27291SOL     OW83769   0.639   0.544   1.764
27291SOL    HW183770   0.644   0.469   1.704
27291SOL    HW283771   0.559   0.530   1.814
27292SOL     OW83772  13.556   7.889   3.547
27292SOL    HW183773  13.578   7.811   3.598
27292SOL    HW283774  13.592   7.872   3.460
27293SOL     OW83775  13.141   7.471  11.309
27293SOL    HW183776  13.172   7.559  11.332
27293SOL    HW283777  13.048   7.472  11.331
27294SOL     OW83778  13.410   8.260  11.840
27294SOL    HW183779  13.318   8.261  11.816
27294SOL    HW283780  13.442   8.175  11.810
27295SOL     OW83781  11.156   6.636   6.358
27295SOL    HW183782  11.162   6.679   6.444
27295SOL    HW283783  11.239   6.655   6.316
27296SOL     OW83784  11.357   4.059   3.635
27296SOL    HW183785  11.266   4.049   3.664
27296SOL    HW283786  11.392   4.129   3.689
27297SOL     OW83787   0.556   2.107   1.128
27297SOL    HW183788   0.483   2.169   1.124
27297SOL    HW283789   0.568   2.089   1.221
27298SOL     OW83790   5.176  12.180   1.234
27298SOL    HW183791   5.147  12.213   1.319
27298SOL    HW283792   5.240  12.112   1.256
27299SOL     OW83793   2.821  10.331   8.552
27299SOL    HW183794   2.876  10.292   8.620
27299SOL    HW283795   2.833  10.425   8.562
27300SOL     OW83796   5.069   5.239   7.808
27300SOL    HW183797   5.003   5.290   7.760
27300SOL    HW283798   5.065   5.273   7.898
27301SOL     OW83799   2.736  10.032   3.150
27301SOL    HW183800   2.707  10.111   3.196
27301SOL    HW283801   2.779  10.064   3.071
27302SOL     OW83802   3.452   5.556   8.560
27302SOL    HW183803   3.505   5.631   8.533
27302SOL    HW283804   3.364   5.592   8.571
27303SOL     OW83805   4.750   8.938  11.631
27303SOL    HW183806   4.666   8.925  11.675
27303SOL    HW283807   4.766   9.032  11.636
27304SOL     OW83808  10.368   6.330   1.226
27304SOL    HW183809  10.446   6.298   1.270
27304SOL    HW283810  10.383   6.312   1.133
27305SOL     OW83811   0.810   9.595  10.449
27305SOL    HW183812   0.855   9.648  10.514
27305SOL    HW283813   0.843   9.627  10.365
27306SOL     OW83814   2.364   0.960   6.340
27306SOL    HW183815   2.319   1.011   6.272
27306SOL    HW283816   2.305   0.963   6.415
27307SOL     OW83817  10.398   0.395   1.599
27307SOL    HW183818  10.316   0.349   1.618
27307SOL    HW283819  10.410   0.387   1.505
27308SOL     OW83820   6.196   5.567  13.819
27308SOL    HW183821   6.210   5.474  13.804
27308SOL    HW283822   6.269   5.594  13.874
27309SOL     OW83823  12.997   3.338  11.545
27309SOL    HW183824  12.952   3.254  11.542
27309SOL    HW283825  12.941   3.396  11.493
27310SOL     OW83826  13.177   7.954  11.028
27310SOL    HW183827  13.260   7.944  11.075
27310SOL    HW283828  13.200   7.999  10.946
27311SOL     OW83829   7.125  10.501   6.089
27311SOL    HW183830   7.030  10.501   6.076
27311SOL    HW283831   7.157  10.440   6.022
27312SOL     OW83832  10.713   9.701   2.114
27312SOL    HW183833  10.666   9.647   2.051
27312SOL    HW283834  10.805   9.677   2.102
27313SOL     OW83835   3.566   6.488   8.457
27313SOL    HW183836   3.555   6.521   8.368
27313SOL    HW283837   3.638   6.425   8.451
27314SOL     OW83838   3.617  10.894   5.313
27314SOL    HW183839   3.664  10.947   5.377
27314SOL    HW283840   3.599  10.812   5.359
27315SOL     OW83841  12.559  10.425   4.390
27315SOL    HW183842  12.464  10.430   4.391
27315SOL    HW283843  12.587  10.479   4.464
27316SOL     OW83844  11.442  14.172   4.433
27316SOL    HW183845  11.533  14.143   4.442
27316SOL    HW283846  11.435  14.248   4.491
27317SOL     OW83847   3.120   4.578   7.842
27317SOL    HW183848   3.025   4.573   7.834
27317SOL    HW283849   3.149   4.621   7.761
27318SOL     OW83850   6.379   9.359  10.471
27318SOL    HW183851   6.402   9.275  10.512
27318SOL    HW283852   6.321   9.402  10.534
27319SOL     OW83853   1.140   8.568   8.223
27319SOL    HW183854   1.082   8.637   8.254
27319SOL    HW283855   1.205   8.613   8.169
27320SOL     OW83856   6.905   0.927  12.254
27320SOL    HW183857   6.826   0.883  12.284
27320SOL    HW283858   6.892   0.937  12.159
27321SOL     OW83859   1.377   3.472  12.522
27321SOL    HW183860   1.392   3.382  12.494
27321SOL    HW283861   1.459   3.518  12.502
27322SOL     OW83862  13.897   4.058  12.694
27322SOL    HW183863  13.853   4.117  12.633
27322SOL    HW283864  13.967   4.018  12.643
27323SOL     OW83865   6.885   3.662   7.606
27323SOL    HW183866   6.857   3.663   7.697
27323SOL    HW283867   6.971   3.620   7.607
27324SOL     OW83868  10.021   3.917   9.440
27324SOL    HW183869  10.008   3.855   9.368
27324SOL    HW283870   9.934   3.949   9.461
27325SOL     OW83871   1.914   3.458   6.814
27325SOL    HW183872   1.902   3.436   6.722
27325SOL    HW283873   2.008   3.454   6.827
27326SOL     OW83874  12.846   9.423  13.194
27326SOL    HW183875  12.751   9.420  13.177
27326SOL    HW283876  12.856   9.371  13.274
27327SOL     OW83877   3.562  13.848  14.155
27327SOL    HW183878   3.475  13.849  14.196
27327SOL    HW283879   3.551  13.899  14.075
27328SOL     OW83880   2.116   1.613   7.248
27328SOL    HW183881   2.039   1.600   7.304
27328SOL    HW283882   2.086   1.675   7.181
27329SOL     OW83883  11.785   5.411   1.163
27329SOL    HW183884  11.706   5.392   1.113
27329SOL    HW283885  11.756   5.413   1.254
27330SOL     OW83886   7.483   8.468  10.871
27330SOL    HW183887   7.403   8.495  10.827
27330SOL    HW283888   7.538   8.432  10.802
27331SOL     OW83889   1.727   2.563  13.784
27331SOL    HW183890   1.645   2.546  13.739
27331SOL    HW283891   1.703   2.615  13.861
27332SOL     OW83892   2.189   8.232  13.700
27332SOL    HW183893   2.211   8.189  13.618
27332SOL    HW283894   2.256   8.299  13.710
27333SOL     OW83895   1.278  10.208   8.589
27333SOL    HW183896   1.310  10.138   8.532
27333SOL    HW283897   1.260  10.165   8.672
27334SOL     OW83898   3.367  12.180  12.748
27334SOL    HW183899   3.388  12.108  12.689
27334SOL    HW283900   3.437  12.179  12.814
27335SOL     OW83901  12.205  13.784   4.763
27335SOL    HW183902  12.153  13.739   4.696
27335SOL    HW283903  12.288  13.803   4.720
27336SOL     OW83904   8.824  13.864   0.556
27336SOL    HW183905   8.852  13.941   0.506
27336SOL    HW283906   8.762  13.898   0.620
27337SOL     OW83907   8.707  13.400   1.252
27337SOL    HW183908   8.757  13.343   1.193
27337SOL    HW283909   8.659  13.459   1.194
27338SOL     OW83910   7.737  11.956   9.093
27338SOL    HW183911   7.645  11.929   9.098
27338SOL    HW283912   7.744  12.000   9.009
27339SOL     OW83913  11.790   6.139   0.621
27339SOL    HW183914  11.843   6.060   0.635
27339SOL    HW283915  11.741   6.122   0.541
27340SOL     OW83916   2.026   2.370  10.534
27340SOL    HW183917   2.075   2.424  10.471
27340SOL    HW283918   1.971   2.432  10.582
27341SOL     OW83919   6.100  14.859   1.293
27341SOL    HW183920   6.083   0.029   1.373
27341SOL    HW283921   6.177  14.806   1.313
27342SOL     OW83922  10.619   3.002   4.756
27342SOL    HW183923  10.638   2.922   4.807
27342SOL    HW283924  10.539   2.981   4.709
27343SOL     OW83925   1.940  10.516   9.049
27343SOL    HW183926   1.846  10.505   9.067
27343SOL    HW283927   1.981  10.509   9.135
27344SOL     OW83928   2.888   5.888  13.781
27344SOL    HW183929   2.975   5.921  13.802
27344SOL    HW283930   2.828   5.942  13.832
27345SOL     OW83931   7.869   4.417   6.124
27345SOL    HW183932   7.850   4.460   6.207
27345SOL    HW283933   7.822   4.468   6.059
27346SOL     OW83934  11.124   5.632   8.619
27346SOL    HW183935  11.141   5.550   8.574
27346SOL    HW283936  11.208   5.677   8.621
27347SOL     OW83937   4.923   4.556   1.457
27347SOL    HW183938   4.954   4.575   1.369
27347SOL    HW283939   4.991   4.501   1.496
27348SOL     OW83940   1.919   2.570   7.659
27348SOL    HW183941   1.866   2.588   7.582
27348SOL    HW283942   2.008   2.595   7.634
27349SOL     OW83943   9.998   8.182   0.916
27349SOL    HW183944  10.065   8.148   0.857
27349SOL    HW283945   9.915   8.150   0.881
27350SOL     OW83946   6.191   9.201  11.985
27350SOL    HW183947   6.106   9.157  11.978
27350SOL    HW283948   6.230   9.165  12.065
27351SOL     OW83949  14.074   5.983   6.740
27351SOL    HW183950  14.008   5.949   6.801
27351SOL    HW283951  14.040   5.962   6.653
27352SOL     OW83952   6.205   7.043  13.806
27352SOL    HW183953   6.188   6.949  13.813
27352SOL    HW283954   6.120   7.081  13.783
27353SOL     OW83955   3.343   5.553  13.517
27353SOL    HW183956   3.278   5.582  13.581
27353SOL    HW283957   3.422   5.601  13.539
27354SOL     OW83958   2.195   9.038  12.109
27354SOL    HW183959   2.224   8.979  12.178
27354SOL    HW283960   2.184   9.123  12.153
27355SOL     OW83961  11.091  11.780  11.512
27355SOL    HW183962  11.092  11.687  11.534
27355SOL    HW283963  11.149  11.788  11.437
27356SOL     OW83964   3.390   8.010   5.769
27356SOL    HW183965   3.358   7.965   5.691
27356SOL    HW283966   3.311   8.046   5.810
27357SOL     OW83967   8.174  12.280   7.035
27357SOL    HW183968   8.133  12.305   6.952
27357SOL    HW283969   8.237  12.212   7.010
27358SOL     OW83970  13.876   0.410   3.296
27358SOL    HW183971  13.945   0.351   3.325
27358SOL    HW283972  13.845   0.373   3.214
27359SOL     OW83973  13.699  12.825   0.317
27359SOL    HW183974  13.627  12.830   0.379
27359SOL    HW283975  13.777  12.808   0.370
27360SOL     OW83976   1.278   7.887  12.291
27360SOL    HW183977   1.197   7.893  12.241
27360SOL    HW283978   1.341   7.849  12.229
27361SOL     OW83979   1.645   1.701   8.710
27361SOL    HW183980   1.581   1.773   8.703
27361SOL    HW283981   1.718   1.729   8.654
27362SOL     OW83982  13.042   4.861   2.631
27362SOL    HW183983  13.061   4.941   2.583
27362SOL    HW283984  12.949   4.845   2.616
27363SOL     OW83985   3.191   7.383   7.620
27363SOL    HW183986   3.098   7.398   7.604
27363SOL    HW283987   3.221   7.464   7.663
27364SOL     OW83988   9.764  14.633   0.163
27364SOL    HW183989   9.743  14.691   0.090
27364SOL    HW283990   9.834  14.577   0.130
27365SOL     OW83991   3.661  12.792   5.439
27365SOL    HW183992   3.717  12.715   5.434
27365SOL    HW283993   3.617  12.795   5.354
27366SOL     OW83994  10.024  12.125   7.086
27366SOL    HW183995  10.049  12.216   7.075
27366SOL    HW283996   9.960  12.108   7.017
27367SOL     OW83997  11.950  13.956   8.043
27367SOL    HW183998  11.971  14.038   7.999
27367SOL    HW283999  11.883  13.979   8.107
27368SOL     OW84000   2.059  12.323   6.674
27368SOL    HW184001   1.966  12.308   6.694
27368SOL    HW284002   2.100  12.237   6.683
27369SOL     OW84003   2.992   2.400   3.106
27369SOL    HW184004   2.956   2.370   3.190
27369SOL    HW284005   3.062   2.337   3.087
27370SOL     OW84006   4.284  11.465  12.860
27370SOL    HW184007   4.212  11.419  12.817
27370SOL    HW284008   4.332  11.508  12.789
27371SOL     OW84009   5.422   8.017   6.921
27371SOL    HW184010   5.358   7.956   6.885
27371SOL    HW284011   5.426   8.088   6.857
27372SOL     OW84012   8.020   9.014   3.972
27372SOL    HW184013   8.055   9.102   3.987
27372SOL    HW284014   8.088   8.968   3.923
27373SOL     OW84015  13.820   1.028   5.752
27373SOL    HW184016  13.802   0.982   5.670
27373SOL    HW284017  13.779   1.114   5.742
27374SOL     OW84018   6.512   0.867  11.247
27374SOL    HW184019   6.552   0.938  11.196
27374SOL    HW284020   6.521   0.896  11.338
27375SOL     OW84021  12.773   7.658   7.438
27375SOL    HW184022  12.837   7.625   7.501
27375SOL    HW284023  12.705   7.699   7.492
27376SOL     OW84024  12.954   7.984   3.334
27376SOL    HW184025  12.917   8.059   3.382
27376SOL    HW284026  12.879   7.943   3.292
27377SOL     OW84027  14.806   2.384   1.589
27377SOL    HW184028  14.731   2.423   1.634
27377SOL    HW284029  14.856   2.342   1.659
27378SOL     OW84030   9.951   5.969   5.717
27378SOL    HW184031  10.043   5.970   5.743
27378SOL    HW284032   9.932   6.059   5.692
27379SOL     OW84033   5.631  12.925   5.207
27379SOL    HW184034   5.546  12.913   5.250
27379SOL    HW284035   5.665  13.007   5.243
27380SOL     OW84036   9.101   5.829  11.679
27380SOL    HW184037   9.056   5.846  11.596
27380SOL    HW284038   9.152   5.750  11.663
27381SOL     OW84039   6.501   8.964   0.264
27381SOL    HW184040   6.469   9.052   0.244
27381SOL    HW284041   6.533   8.931   0.180
27382SOL     OW84042  14.764   0.223   8.533
27382SOL    HW184043  14.736   0.313   8.517
27382SOL    HW284044  14.857   0.222   8.510
27383SOL     OW84045  13.687  13.907   0.629
27383SOL    HW184046  13.689  13.908   0.725
27383SOL    HW284047  13.765  13.954   0.602
27384SOL     OW84048   6.941  11.896  11.381
27384SOL    HW184049   6.871  11.848  11.425
27384SOL    HW284050   6.986  11.943  11.451
27385SOL     OW84051  11.142   3.513   9.796
27385SOL    HW184052  11.200   3.589   9.806
27385SOL    HW284053  11.190   3.442   9.839
27386SOL     OW84054   4.223   2.862   4.474
27386SOL    HW184055   4.253   2.799   4.539
27386SOL    HW284056   4.303   2.890   4.429
27387SOL     OW84057   0.170   2.894  14.729
27387SOL    HW184058   0.247   2.838  14.725
27387SOL    HW284059   0.181   2.944  14.810
27388SOL     OW84060   0.475   9.478   2.604
27388SOL    HW184061   0.559   9.451   2.642
27388SOL    HW284062   0.478   9.446   2.514
27389SOL     OW84063  14.371   6.295   9.239
27389SOL    HW184064  14.322   6.377   9.233
27389SOL    HW284065  14.439   6.302   9.172
27390SOL     OW84066   0.262   3.135   2.700
27390SOL    HW184067   0.341   3.166   2.744
27390SOL    HW284068   0.207   3.101   2.771
27391SOL     OW84069  13.740   2.341  12.525
27391SOL    HW184070  13.805   2.371  12.588
27391SOL    HW284071  13.787   2.338  12.442
27392SOL     OW84072   8.535   8.419  14.588
27392SOL    HW184073   8.563   8.480  14.520
27392SOL    HW284074   8.570   8.334  14.561
27393SOL     OW84075   0.143   6.684  14.508
27393SOL    HW184076   0.162   6.604  14.460
27393SOL    HW284077   0.154   6.661  14.600
27394SOL     OW84078   1.039  11.522  13.725
27394SOL    HW184079   0.973  11.493  13.788
27394SOL    HW284080   1.122  11.493  13.763
27395SOL     OW84081   0.627   3.534  11.174
27395SOL    HW184082   0.562   3.536  11.105
27395SOL    HW284083   0.600   3.462  11.231
27396SOL     OW84084   7.136   8.518  12.746
27396SOL    HW184085   7.178   8.442  12.788
27396SOL    HW284086   7.165   8.514  12.655
27397SOL     OW84087   8.394  12.388   3.849
27397SOL    HW184088   8.365  12.324   3.913
27397SOL    HW284089   8.389  12.472   3.894
27398SOL     OW84090   4.993   9.007   1.556
27398SOL    HW184091   4.969   8.953   1.632
27398SOL    HW284092   5.062   8.957   1.513
27399SOL     OW84093   3.226   9.977   3.887
27399SOL    HW184094   3.182  10.056   3.920
27399SOL    HW284095   3.246   9.927   3.965
27400SOL     OW84096   4.381   7.204   3.592
27400SOL    HW184097   4.397   7.225   3.684
27400SOL    HW284098   4.448   7.140   3.569
27401SOL     OW84099   7.658  14.388  14.505
27401SOL    HW184100   7.669  14.329  14.430
27401SOL    HW284101   7.640  14.473  14.466
27402SOL     OW84102   4.268   6.553  12.274
27402SOL    HW184103   4.243   6.644  12.257
27402SOL    HW284104   4.315   6.526  12.195
27403SOL     OW84105  13.205   3.532   6.882
27403SOL    HW184106  13.110   3.528   6.868
27403SOL    HW284107  13.217   3.607   6.939
27404SOL     OW84108  14.361   4.345   9.980
27404SOL    HW184109  14.424   4.409  10.013
27404SOL    HW284110  14.392   4.261  10.013
27405SOL     OW84111   6.757   6.903   2.583
27405SOL    HW184112   6.804   6.942   2.509
27405SOL    HW284113   6.808   6.928   2.660
27406SOL     OW84114  13.064   3.097  12.481
27406SOL    HW184115  13.127   3.095  12.553
27406SOL    HW284116  13.037   3.006  12.470
27407SOL     OW84117   1.612  12.071   0.218
27407SOL    HW184118   1.632  12.033   0.304
27407SOL    HW284119   1.534  12.125   0.234
27408SOL     OW84120   5.341   6.894  10.109
27408SOL    HW184121   5.404   6.868  10.176
27408SOL    HW284122   5.271   6.937  10.158
27409SOL     OW84123  10.560   9.137  12.236
27409SOL    HW184124  10.612   9.168  12.162
27409SOL    HW284125  10.580   9.044  12.242
27410SOL     OW84126   2.964   2.731   1.066
27410SOL    HW184127   2.968   2.678   1.145
27410SOL    HW284128   3.055   2.749   1.044
27411SOL     OW84129  10.555  10.608   2.419
27411SOL    HW184130  10.566  10.526   2.467
27411SOL    HW284131  10.496  10.660   2.472
27412SOL     OW84132  11.540   7.351   6.325
27412SOL    HW184133  11.630   7.363   6.355
27412SOL    HW284134  11.546   7.361   6.230
27413SOL     OW84135   8.113  12.893  12.098
27413SOL    HW184136   8.186  12.885  12.036
27413SOL    HW284137   8.141  12.840  12.173
27414SOL     OW84138   7.626   6.053   5.158
27414SOL    HW184139   7.621   6.079   5.250
27414SOL    HW284140   7.566   6.113   5.113
27415SOL     OW84141  14.021   1.542  12.685
27415SOL    HW184142  14.112   1.558  12.709
27415SOL    HW284143  13.987   1.485  12.754
27416SOL     OW84144  10.624   4.863  11.855
27416SOL    HW184145  10.651   4.891  11.768
27416SOL    HW284146  10.705   4.853  11.904
27417SOL     OW84147   6.953  10.816  13.673
27417SOL    HW184148   6.903  10.788  13.596
27417SOL    HW284149   6.975  10.736  13.719
27418SOL     OW84150  12.188   8.491   5.988
27418SOL    HW184151  12.217   8.576   6.021
27418SOL    HW284152  12.268   8.450   5.954
27419SOL     OW84153   7.524   2.257   2.313
27419SOL    HW184154   7.536   2.351   2.323
27419SOL    HW284155   7.529   2.241   2.219
27420SOL     OW84156   5.857   9.026   8.287
27420SOL    HW184157   5.904   8.972   8.351
27420SOL    HW284158   5.899   9.006   8.204
27421SOL     OW84159  10.709   8.486   3.615
27421SOL    HW184160  10.637   8.535   3.655
27421SOL    HW284161  10.769   8.553   3.581
27422SOL     OW84162  13.274   0.807   6.058
27422SOL    HW184163  13.360   0.796   6.018
27422SOL    HW284164  13.292   0.840   6.146
27423SOL     OW84165   7.342   3.441   2.495
27423SOL    HW184166   7.400   3.370   2.466
27423SOL    HW284167   7.254   3.406   2.482
27424SOL     OW84168   7.666  14.866  13.746
27424SOL    HW184169   7.707  14.851  13.661
27424SOL    HW284170   7.701   0.070  13.775
27425SOL     OW84171   7.193   0.128  12.363
27425SOL    HW184172   7.287   0.110  12.356
27425SOL    HW284173   7.151   0.049  12.328
27426SOL     OW84174   0.760   3.497  11.809
27426SOL    HW184175   0.666   3.485  11.820
27426SOL    HW284176   0.772   3.591  11.803
27427SOL     OW84177   3.542   4.776   1.116
27427SOL    HW184178   3.520   4.760   1.024
27427SOL    HW284179   3.607   4.846   1.114
27428SOL     OW84180   8.701  11.180   6.862
27428SOL    HW184181   8.610  11.172   6.889
27428SOL    HW284182   8.727  11.267   6.891
27429SOL     OW84183   8.649   7.986   5.030
27429SOL    HW184184   8.579   8.046   5.055
27429SOL    HW284185   8.730   8.034   5.051
27430SOL     OW84186   2.480  11.194  14.707
27430SOL    HW184187   2.495  11.222  14.797
27430SOL    HW284188   2.524  11.109  14.702
27431SOL     OW84189   0.305  13.289   0.401
27431SOL    HW184190   0.363  13.213   0.404
27431SOL    HW284191   0.279  13.303   0.492
27432SOL     OW84192  13.271  10.916  14.324
27432SOL    HW184193  13.252  10.836  14.373
27432SOL    HW284194  13.366  10.915  14.312
27433SOL     OW84195  12.193   1.677   9.760
27433SOL    HW184196  12.202   1.759   9.808
27433SOL    HW284197  12.108   1.684   9.717
27434SOL     OW84198   0.492   3.046   6.960
27434SOL    HW184199   0.490   3.041   7.055
27434SOL    HW284200   0.440   2.971   6.930
27435SOL     OW84201   2.434   8.502   1.119
27435SOL    HW184202   2.415   8.524   1.027
27435SOL    HW284203   2.527   8.518   1.129
27436SOL     OW84204  14.100  13.774   7.356
27436SOL    HW184205  14.158  13.745   7.426
27436SOL    HW284206  14.151  13.763   7.276
27437SOL     OW84207   1.353   3.336   0.352
27437SOL    HW184208   1.310   3.250   0.351
27437SOL    HW284209   1.432   3.323   0.404
27438SOL     OW84210   0.353   5.270  11.737
27438SOL    HW184211   0.364   5.226  11.653
27438SOL    HW284212   0.424   5.334  11.740
27439SOL     OW84213   2.760   2.942   6.834
27439SOL    HW184214   2.671   2.907   6.831
27439SOL    HW284215   2.799   2.902   6.912
27440SOL     OW84216   7.167   3.397   5.789
27440SOL    HW184217   7.199   3.347   5.864
27440SOL    HW284218   7.240   3.455   5.766
27441SOL     OW84219  10.281   7.419  13.429
27441SOL    HW184220  10.240   7.458  13.352
27441SOL    HW284221  10.366   7.388  13.397
27442SOL     OW84222   3.773   3.042  13.443
27442SOL    HW184223   3.684   3.078  13.449
27442SOL    HW284224   3.816   3.097  13.377
27443SOL     OW84225   3.364  13.151  12.208
27443SOL    HW184226   3.355  13.190  12.121
27443SOL    HW284227   3.311  13.071  12.204
27444SOL     OW84228   4.792  10.900   3.333
27444SOL    HW184229   4.728  10.829   3.333
27444SOL    HW284230   4.739  10.979   3.321
27445SOL     OW84231   5.772  11.526   2.961
27445SOL    HW184232   5.704  11.489   2.905
27445SOL    HW284233   5.853  11.515   2.911
27446SOL     OW84234   2.092   0.304   1.727
27446SOL    HW184235   2.084   0.395   1.757
27446SOL    HW284236   2.003   0.271   1.726
27447SOL     OW84237  11.861   4.662   7.884
27447SOL    HW184238  11.800   4.621   7.946
27447SOL    HW284239  11.927   4.594   7.867
27448SOL     OW84240   7.852   1.857  12.841
27448SOL    HW184241   7.939   1.845  12.879
27448SOL    HW284242   7.812   1.926  12.894
27449SOL     OW84243   2.608  14.223   2.483
27449SOL    HW184244   2.538  14.286   2.463
27449SOL    HW284245   2.582  14.183   2.566
27450SOL     OW84246   8.139   3.660  11.823
27450SOL    HW184247   8.118   3.592  11.888
27450SOL    HW284248   8.172   3.611  11.748
27451SOL     OW84249   4.109  12.757   5.666
27451SOL    HW184250   4.205  12.748   5.664
27451SOL    HW284251   4.084  12.719   5.751
27452SOL     OW84252   1.166  12.459   5.887
27452SOL    HW184253   1.150  12.396   5.957
27452SOL    HW284254   1.086  12.512   5.883
27453SOL     OW84255   2.894   5.359  12.332
27453SOL    HW184256   2.881   5.415  12.409
27453SOL    HW284257   2.964   5.401  12.283
27454SOL     OW84258  10.963  14.835   1.514
27454SOL    HW184259  10.961  14.781   1.593
27454SOL    HW284260  11.050  14.873   1.513
27455SOL     OW84261   5.630   0.010   6.997
27455SOL    HW184262   5.593   0.016   6.909
27455SOL    HW284263   5.576  14.825   7.041
27456SOL     OW84264   6.958  13.462   3.591
27456SOL    HW184265   6.889  13.503   3.642
27456SOL    HW284266   6.918  13.385   3.552
27457SOL     OW84267   9.919  12.367  11.233
27457SOL    HW184268   9.915  12.276  11.204
27457SOL    HW284269   9.847  12.409  11.186
27458SOL     OW84270  12.009   6.690   5.394
27458SOL    HW184271  11.962   6.635   5.457
27458SOL    HW284272  12.029   6.770   5.443
27459SOL     OW84273   5.451  12.038  14.783
27459SOL    HW184274   5.414  11.989  14.857
27459SOL    HW284275   5.377  12.058  14.727
27460SOL     OW84276  14.810   4.842  12.472
27460SOL    HW184277   0.012   4.889  12.461
27460SOL    HW284278  14.824   4.759  12.426
27461SOL     OW84279  10.818   7.200   3.147
27461SOL    HW184280  10.805   7.276   3.204
27461SOL    HW284281  10.911   7.203   3.125
27462SOL     OW84282   9.708  12.854  11.126
27462SOL    HW184283   9.743  12.778  11.079
27462SOL    HW284284   9.704  12.923  11.061
27463SOL     OW84285   6.752   1.436   2.292
27463SOL    HW184286   6.730   1.528   2.278
27463SOL    HW284287   6.816   1.437   2.363
27464SOL     OW84288   0.042   3.358   4.357
27464SOL    HW184289   0.030   3.424   4.289
27464SOL    HW284290   0.011   3.400   4.438
27465SOL     OW84291   0.446   4.849  10.284
27465SOL    HW184292   0.433   4.872  10.192
27465SOL    HW284293   0.538   4.823  10.289
27466SOL     OW84294   5.063   6.095  12.435
27466SOL    HW184295   5.085   6.159  12.368
27466SOL    HW284296   5.038   6.148  12.511
27467SOL     OW84297   1.963  11.211   3.441
27467SOL    HW184298   2.005  11.297   3.437
27467SOL    HW284299   2.012  11.164   3.509
27468SOL     OW84300   6.374  13.980   4.318
27468SOL    HW184301   6.307  14.002   4.382
27468SOL    HW284302   6.418  13.903   4.355
27469SOL     OW84303   0.013  11.586   6.205
27469SOL    HW184304   0.084  11.525   6.225
27469SOL    HW284305   0.058  11.667   6.183
27470SOL     OW84306  12.671   3.178   4.049
27470SOL    HW184307  12.738   3.246   4.057
27470SOL    HW284308  12.654   3.150   4.139
27471SOL     OW84309   3.755   7.962  12.400
27471SOL    HW184310   3.737   7.966  12.494
27471SOL    HW284311   3.847   7.938  12.394
27472SOL     OW84312  14.818  10.379  13.730
27472SOL    HW184313   0.001  10.410  13.665
27472SOL    HW284314  14.764  10.455  13.749
27473SOL     OW84315  13.911  13.927   1.960
27473SOL    HW184316  13.903  13.835   1.935
27473SOL    HW284317  13.998  13.953   1.929
27474SOL     OW84318  10.346   6.215   4.208
27474SOL    HW184319  10.423   6.271   4.219
27474SOL    HW284320  10.378   6.142   4.155
27475SOL     OW84321   4.519   4.076   2.281
27475SOL    HW184322   4.469   4.049   2.204
27475SOL    HW284323   4.584   4.137   2.247
27476SOL     OW84324  12.601  10.622  14.453
27476SOL    HW184325  12.638  10.638  14.366
27476SOL    HW284326  12.678  10.604  14.508
27477SOL     OW84327   9.804  10.610  13.894
27477SOL    HW184328   9.799  10.666  13.972
27477SOL    HW284329   9.758  10.660  13.826
27478SOL     OW84330  13.128   2.830   2.464
27478SOL    HW184331  13.056   2.843   2.403
27478SOL    HW284332  13.128   2.909   2.518
27479SOL     OW84333  11.100  12.011   7.882
27479SOL    HW184334  11.029  12.016   7.817
27479SOL    HW284335  11.088  11.926   7.924
27480SOL     OW84336   4.649   9.618  11.605
27480SOL    HW184337   4.739   9.618  11.639
27480SOL    HW284338   4.595   9.638  11.681
27481SOL     OW84339   3.913  14.103   2.325
27481SOL    HW184340   3.999  14.064   2.309
27481SOL    HW284341   3.853  14.054   2.270
27482SOL     OW84342  12.737   9.985   7.302
27482SOL    HW184343  12.645   9.968   7.321
27482SOL    HW284344  12.744   9.977   7.206
27483SOL     OW84345  11.430  13.502   2.441
27483SOL    HW184346  11.354  13.466   2.486
27483SOL    HW284347  11.448  13.439   2.371
27484SOL     OW84348   0.848   5.166  13.335
27484SOL    HW184349   0.849   5.086  13.388
27484SOL    HW284350   0.802   5.140  13.255
27485SOL     OW84351   6.566  11.388   1.754
27485SOL    HW184352   6.629  11.434   1.698
27485SOL    HW284353   6.498  11.358   1.694
27486SOL     OW84354   9.211   6.368   2.234
27486SOL    HW184355   9.189   6.458   2.258
27486SOL    HW284356   9.219   6.322   2.318
27487SOL     OW84357   1.932  14.356   7.658
27487SOL    HW184358   1.909  14.444   7.631
27487SOL    HW284359   1.853  14.304   7.641
27488SOL     OW84360   7.833   6.921  13.553
27488SOL    HW184361   7.909   6.946  13.606
27488SOL    HW284362   7.847   6.828  13.535
27489SOL     OW84363  11.096   5.231  12.635
27489SOL    HW184364  11.015   5.223  12.586
27489SOL    HW284365  11.160   5.180  12.585
27490SOL     OW84366   5.403  14.233   7.133
27490SOL    HW184367   5.360  14.170   7.075
27490SOL    HW284368   5.395  14.317   7.087
27491SOL     OW84369  10.990   2.319   8.536
27491SOL    HW184370  10.963   2.406   8.566
27491SOL    HW284371  10.994   2.326   8.441
27492SOL     OW84372   6.464  13.344   9.558
27492SOL    HW184373   6.429  13.390   9.482
27492SOL    HW284374   6.388  13.300   9.596
27493SOL     OW84375   7.226   6.281   3.797
27493SOL    HW184376   7.192   6.309   3.713
27493SOL    HW284377   7.242   6.362   3.845
27494SOL     OW84378   7.373   8.764   3.998
27494SOL    HW184379   7.317   8.787   4.072
27494SOL    HW284380   7.314   8.723   3.935
27495SOL     OW84381   4.362   6.379   3.695
27495SOL    HW184382   4.342   6.305   3.752
27495SOL    HW284383   4.366   6.454   3.754
27496SOL     OW84384   6.176   8.683   3.743
27496SOL    HW184385   6.101   8.697   3.801
27496SOL    HW284386   6.252   8.688   3.801
27497SOL     OW84387   6.473  11.795  10.191
27497SOL    HW184388   6.450  11.805  10.284
27497SOL    HW284389   6.390  11.800  10.145
27498SOL     OW84390   1.373   7.245  10.394
27498SOL    HW184391   1.456   7.225  10.436
27498SOL    HW284392   1.345   7.163  10.354
27499SOL     OW84393  12.640  14.512  10.122
27499SOL    HW184394  12.716  14.556  10.160
27499SOL    HW284395  12.565  14.564  10.150
27500SOL     OW84396   6.668   1.406   4.844
27500SOL    HW184397   6.665   1.440   4.755
27500SOL    HW284398   6.735   1.458   4.888
27501SOL     OW84399   2.443   4.809   3.299
27501SOL    HW184400   2.405   4.893   3.325
27501SOL    HW284401   2.370   4.761   3.259
27502SOL     OW84402   8.417   3.146  12.515
27502SOL    HW184403   8.445   3.146  12.424
27502SOL    HW284404   8.341   3.205  12.517
27503SOL     OW84405  12.690  13.138   3.471
27503SOL    HW184406  12.624  13.195   3.512
27503SOL    HW284407  12.639  13.073   3.423
27504SOL     OW84408   0.351   8.437  10.817
27504SOL    HW184409   0.294   8.396  10.751
27504SOL    HW284410   0.306   8.518  10.840
27505SOL     OW84411   4.999  10.958   1.449
27505SOL    HW184412   4.961  11.046   1.449
27505SOL    HW284413   5.017  10.939   1.357
27506SOL     OW84414   0.630  13.096  14.464
27506SOL    HW184415   0.542  13.126  14.483
27506SOL    HW284416   0.658  13.052  14.544
27507SOL     OW84417  13.228  12.678   6.590
27507SOL    HW184418  13.168  12.753   6.589
27507SOL    HW284419  13.311  12.713   6.557
27508SOL     OW84420   5.241   0.384  12.367
27508SOL    HW184421   5.168   0.339  12.411
27508SOL    HW284422   5.262   0.326  12.293
27509SOL     OW84423   2.354  10.682   4.537
27509SOL    HW184424   2.439  10.725   4.548
27509SOL    HW284425   2.325  10.662   4.626
27510SOL     OW84426   0.744  14.031  11.933
27510SOL    HW184427   0.828  14.076  11.940
27510SOL    HW284428   0.755  13.952  11.986
27511SOL     OW84429  13.996  12.342   2.383
27511SOL    HW184430  14.051  12.363   2.458
27511SOL    HW284431  14.055  12.346   2.308
27512SOL     OW84432   3.733  11.043   6.585
27512SOL    HW184433   3.818  11.035   6.628
27512SOL    HW284434   3.669  11.016   6.651
27513SOL     OW84435   6.037   9.704   5.842
27513SOL    HW184436   6.052   9.772   5.777
27513SOL    HW284437   6.070   9.624   5.802
27514SOL     OW84438   5.139  10.450   7.893
27514SOL    HW184439   5.109  10.362   7.914
27514SOL    HW284440   5.069  10.487   7.840
27515SOL     OW84441   8.510   9.691  13.819
27515SOL    HW184442   8.566   9.653  13.752
27515SOL    HW284443   8.477   9.772  13.779
27516SOL     OW84444  10.498  11.544   9.707
27516SOL    HW184445  10.562  11.533   9.637
27516SOL    HW284446  10.511  11.634   9.737
27517SOL     OW84447   5.232   1.879   3.186
27517SOL    HW184448   5.178   1.957   3.180
27517SOL    HW284449   5.300   1.902   3.249
27518SOL     OW84450   3.093   9.068   0.683
27518SOL    HW184451   3.119   9.058   0.774
27518SOL    HW284452   3.021   9.006   0.671
27519SOL     OW84453   8.222   5.093  12.996
27519SOL    HW184454   8.235   5.141  13.078
27519SOL    HW284455   8.150   5.033  13.016
27520SOL     OW84456   7.286  12.927   7.099
27520SOL    HW184457   7.311  12.975   7.178
27520SOL    HW284458   7.307  12.835   7.120
27521SOL     OW84459   9.854   3.916  13.389
27521SOL    HW184460   9.784   3.929  13.326
27521SOL    HW284461   9.827   3.840  13.440
27522SOL     OW84462   1.817   8.907   6.823
27522SOL    HW184463   1.826   8.830   6.767
27522SOL    HW284464   1.743   8.955   6.787
27523SOL     OW84465   6.111   2.200   9.527
27523SOL    HW184466   6.095   2.180   9.620
27523SOL    HW284467   6.052   2.142   9.479
27524SOL     OW84468   6.675   8.272   9.983
27524SOL    HW184469   6.766   8.268  10.012
27524SOL    HW284470   6.679   8.255   9.888
27525SOL     OW84471   7.338   2.276   9.542
27525SOL    HW184472   7.318   2.286   9.449
27525SOL    HW284473   7.252   2.279   9.585
27526SOL     OW84474   5.532   8.712   8.901
27526SOL    HW184475   5.506   8.661   8.978
27526SOL    HW284476   5.627   8.720   8.908
27527SOL     OW84477   1.029   8.746   5.032
27527SOL    HW184478   0.998   8.815   5.091
27527SOL    HW284479   0.951   8.721   4.982
27528SOL     OW84480   2.426  13.992  13.474
27528SOL    HW184481   2.462  13.991  13.563
27528SOL    HW284482   2.373  13.913  13.468
27529SOL     OW84483   5.675  11.137   7.521
27529SOL    HW184484   5.628  11.171   7.597
27529SOL    HW284485   5.606  11.107   7.462
27530SOL     OW84486   9.899   0.809   2.735
27530SOL    HW184487   9.925   0.806   2.643
27530SOL    HW284488   9.821   0.754   2.740
27531SOL     OW84489  10.377   2.659  12.735
27531SOL    HW184490  10.426   2.618  12.806
27531SOL    HW284491  10.443   2.682  12.669
27532SOL     OW84492  13.300   9.847   2.021
27532SOL    HW184493  13.273   9.759   2.048
27532SOL    HW284494  13.219   9.892   2.000
27533SOL     OW84495   4.272  11.939  11.222
27533SOL    HW184496   4.188  11.966  11.186
27533SOL    HW284497   4.259  11.847  11.247
27534SOL     OW84498   0.654  13.669   1.333
27534SOL    HW184499   0.725  13.658   1.269
27534SOL    HW284500   0.630  13.761   1.326
27535SOL     OW84501   7.802   7.756  13.875
27535SOL    HW184502   7.740   7.783  13.807
27535SOL    HW284503   7.765   7.676  13.911
27536SOL     OW84504   2.815   4.213  10.018
27536SOL    HW184505   2.865   4.249  10.091
27536SOL    HW284506   2.870   4.227   9.942
27537SOL     OW84507   3.847  14.430  12.156
27537SOL    HW184508   3.855  14.458  12.065
27537SOL    HW284509   3.778  14.363  12.155
27538SOL     OW84510  12.519   3.288   2.265
27538SOL    HW184511  12.458   3.322   2.330
27538SOL    HW284512  12.537   3.361   2.207
27539SOL     OW84513  13.510   0.902   3.869
27539SOL    HW184514  13.552   0.987   3.879
27539SOL    HW284515  13.547   0.866   3.788
27540SOL     OW84516   4.944   7.572   4.742
27540SOL    HW184517   4.856   7.536   4.747
27540SOL    HW284518   4.980   7.536   4.661
27541SOL     OW84519   4.436   5.627   2.190
27541SOL    HW184520   4.407   5.709   2.231
27541SOL    HW284521   4.531   5.634   2.187
27542SOL     OW84522   0.566  11.363   3.312
27542SOL    HW184523   0.627  11.300   3.274
27542SOL    HW284524   0.494  11.309   3.347
27543SOL     OW84525   9.679   1.741   6.944
27543SOL    HW184526   9.671   1.648   6.963
27543SOL    HW284527   9.736   1.775   7.013
27544SOL     OW84528   0.688   2.985  12.913
27544SOL    HW184529   0.668   3.076  12.889
27544SOL    HW284530   0.631   2.933  12.856
27545SOL     OW84531   4.502   6.752   9.671
27545SOL    HW184532   4.501   6.662   9.637
27545SOL    HW284533   4.592   6.766   9.698
27546SOL     OW84534  12.998   3.385   5.105
27546SOL    HW184535  12.980   3.329   5.181
27546SOL    HW284536  13.001   3.474   5.141
27547SOL     OW84537  10.473   9.491   5.620
27547SOL    HW184538  10.510   9.432   5.686
27547SOL    HW284539  10.512   9.462   5.537
27548SOL     OW84540   6.189   2.853   7.441
27548SOL    HW184541   6.174   2.834   7.348
27548SOL    HW284542   6.198   2.767   7.482
27549SOL     OW84543   0.868  12.796   6.505
27549SOL    HW184544   0.953  12.815   6.464
27549SOL    HW284545   0.827  12.733   6.447
27550SOL     OW84546  10.341   9.433   4.099
27550SOL    HW184547  10.276   9.503   4.095
27550SOL    HW284548  10.384   9.445   4.184
27551SOL     OW84549   3.056   1.063   5.725
27551SOL    HW184550   3.083   1.155   5.722
27551SOL    HW284551   3.122   1.017   5.673
27552SOL     OW84552  10.731   4.400   3.588
27552SOL    HW184553  10.637   4.420   3.592
27552SOL    HW284554  10.759   4.403   3.680
27553SOL     OW84555   2.075  11.444   9.752
27553SOL    HW184556   2.045  11.533   9.730
27553SOL    HW284557   2.094  11.448   9.846
27554SOL     OW84558   8.901   4.185  13.734
27554SOL    HW184559   8.862   4.272  13.737
27554SOL    HW284560   8.986   4.198  13.692
27555SOL     OW84561   6.737   8.669  10.583
27555SOL    HW184562   6.653   8.692  10.543
27555SOL    HW284563   6.735   8.710  10.669
27556SOL     OW84564   7.839  14.563  13.974
27556SOL    HW184565   7.798  14.564  13.887
27556SOL    HW284566   7.890  14.644  13.977
27557SOL     OW84567  12.268  14.605   9.818
27557SOL    HW184568  12.356  14.588   9.851
27557SOL    HW284569  12.216  14.621   9.897
27558SOL     OW84570   8.204  11.833  11.559
27558SOL    HW184571   8.210  11.916  11.511
27558SOL    HW284572   8.260  11.773  11.510
27559SOL     OW84573  11.761   5.714  13.912
27559SOL    HW184574  11.764   5.658  13.990
27559SOL    HW284575  11.681   5.766  13.923
27560SOL     OW84576   4.530   6.430   7.169
27560SOL    HW184577   4.476   6.419   7.090
27560SOL    HW284578   4.561   6.521   7.163
27561SOL     OW84579   4.388  13.407   3.886
27561SOL    HW184580   4.293  13.408   3.875
27561SOL    HW284581   4.410  13.314   3.895
27562SOL     OW84582  13.254  11.024  12.998
27562SOL    HW184583  13.272  11.096  13.059
27562SOL    HW284584  13.330  11.021  12.941
27563SOL     OW84585   3.343  13.130   1.843
27563SOL    HW184586   3.328  13.208   1.895
27563SOL    HW284587   3.410  13.081   1.890
27564SOL     OW84588   9.098   0.515   6.301
27564SOL    HW184589   9.117   0.428   6.334
27564SOL    HW284590   9.032   0.502   6.234
27565SOL     OW84591   0.060   0.798   2.714
27565SOL    HW184592   0.038   0.709   2.687
27565SOL    HW284593   0.091   0.790   2.804
27566SOL     OW84594  12.043  14.440  14.630
27566SOL    HW184595  11.949  14.460  14.628
27566SOL    HW284596  12.051  14.361  14.577
27567SOL     OW84597   7.120   1.799   4.053
27567SOL    HW184598   7.167   1.736   3.998
27567SOL    HW284599   7.074   1.745   4.117
27568SOL     OW84600  12.013   1.202  11.532
27568SOL    HW184601  11.979   1.246  11.455
27568SOL    HW284602  12.022   1.110  11.506
27569SOL     OW84603   6.825   8.741  14.715
27569SOL    HW184604   6.915   8.758  14.685
27569SOL    HW284605   6.777   8.722  14.635
27570SOL     OW84606   0.047  13.576   0.117
27570SOL    HW184607  14.873  13.612   0.187
27570SOL    HW284608   0.128  13.549   0.161
27571SOL     OW84609   6.000  12.421  14.442
27571SOL    HW184610   6.038  12.338  14.413
27571SOL    HW284611   6.026  12.484  14.376
27572SOL     OW84612  11.289  11.886   5.793
27572SOL    HW184613  11.323  11.910   5.706
27572SOL    HW284614  11.286  11.790   5.792
27573SOL     OW84615   4.860   2.595   8.032
27573SOL    HW184616   4.910   2.543   8.095
27573SOL    HW284617   4.818   2.530   7.976
27574SOL     OW84618   2.637  11.658   3.425
27574SOL    HW184619   2.651  11.675   3.332
27574SOL    HW284620   2.619  11.564   3.429
27575SOL     OW84621   0.404   3.095  12.219
27575SOL    HW184622   0.384   3.128  12.131
27575SOL    HW284623   0.496   3.068  12.214
27576SOL     OW84624  14.690   3.211  10.836
27576SOL    HW184625  14.773   3.188  10.794
27576SOL    HW284626  14.701   3.302  10.862
27577SOL     OW84627   7.121   5.168   3.684
27577SOL    HW184628   7.090   5.188   3.773
27577SOL    HW284629   7.210   5.203   3.683
27578SOL     OW84630   8.766   2.358   8.580
27578SOL    HW184631   8.830   2.320   8.640
27578SOL    HW284632   8.804   2.441   8.552
27579SOL     OW84633  12.952   9.931   5.176
27579SOL    HW184634  12.953   9.985   5.255
27579SOL    HW284635  12.967   9.842   5.208
27580SOL     OW84636   6.237  14.273   2.933
27580SOL    HW184637   6.177  14.258   3.007
27580SOL    HW284638   6.179  14.283   2.857
27581SOL     OW84639   3.298   1.531  14.009
27581SOL    HW184640   3.211   1.552  14.043
27581SOL    HW284641   3.346   1.497  14.085
27582SOL     OW84642  10.686  14.100   2.806
27582SOL    HW184643  10.691  14.088   2.901
27582SOL    HW284644  10.615  14.042   2.778
27583SOL     OW84645  14.052  11.927  14.497
27583SOL    HW184646  13.993  11.993  14.461
27583SOL    HW284647  14.048  11.940  14.592
27584SOL     OW84648   6.112   6.922   7.322
27584SOL    HW184649   6.099   6.892   7.412
27584SOL    HW284650   6.199   6.889   7.299
27585SOL     OW84651  12.245  12.153   2.217
27585SOL    HW184652  12.175  12.149   2.282
27585SOL    HW284653  12.232  12.076   2.162
27586SOL     OW84654   5.992   9.951   6.958
27586SOL    HW184655   5.932   9.922   6.889
27586SOL    HW284656   5.974   9.892   7.031
27587SOL     OW84657   5.248   6.508   1.596
27587SOL    HW184658   5.255   6.601   1.619
27587SOL    HW284659   5.298   6.463   1.663
27588SOL     OW84660   9.889   5.618   7.631
27588SOL    HW184661   9.956   5.582   7.689
27588SOL    HW284662   9.832   5.543   7.612
27589SOL     OW84663   9.913   9.479   5.244
27589SOL    HW184664  10.008   9.470   5.239
27589SOL    HW284665   9.888   9.517   5.160
27590SOL     OW84666   0.954   9.843   7.173
27590SOL    HW184667   1.010   9.909   7.213
27590SOL    HW284668   0.977   9.762   7.219
27591SOL     OW84669   2.530   7.268   0.352
27591SOL    HW184670   2.534   7.363   0.348
27591SOL    HW284671   2.481   7.249   0.432
27592SOL     OW84672  10.007   8.658   9.427
27592SOL    HW184673  10.021   8.744   9.466
27592SOL    HW284674   9.913   8.656   9.406
27593SOL     OW84675   5.953   4.808  13.020
27593SOL    HW184676   5.953   4.889  13.072
27593SOL    HW284677   6.005   4.747  13.072
27594SOL     OW84678   2.387   9.869   5.614
27594SOL    HW184679   2.473   9.892   5.648
27594SOL    HW284680   2.327   9.933   5.654
27595SOL     OW84681  13.193   1.952   7.521
27595SOL    HW184682  13.283   1.983   7.521
27595SOL    HW284683  13.174   1.934   7.613
27596SOL     OW84684   0.303   4.505   5.558
27596SOL    HW184685   0.353   4.525   5.479
27596SOL    HW284686   0.346   4.556   5.627
27597SOL     OW84687  14.832   4.699   1.318
27597SOL    HW184688  14.844   4.772   1.378
27597SOL    HW284689   0.037   4.690   1.275
27598SOL     OW84690  11.907   1.876  13.337
27598SOL    HW184691  11.829   1.851  13.385
27598SOL    HW284692  11.979   1.856  13.397
27599SOL     OW84693   7.319   9.652   4.475
27599SOL    HW184694   7.411   9.628   4.491
27599SOL    HW284695   7.278   9.649   4.561
27600SOL     OW84696   6.628  13.027   8.970
27600SOL    HW184697   6.535  13.048   8.983
27600SOL    HW284698   6.660  13.006   9.058
27601SOL     OW84699   4.302   2.835  12.941
27601SOL    HW184700   4.224   2.888  12.927
27601SOL    HW284701   4.325   2.802  12.854
27602SOL     OW84702   9.014  10.757   0.483
27602SOL    HW184703   9.000  10.766   0.389
27602SOL    HW284704   9.050  10.669   0.494
27603SOL     OW84705  10.548   7.751   7.354
27603SOL    HW184706  10.483   7.686   7.326
27603SOL    HW284707  10.552   7.814   7.282
27604SOL     OW84708  12.008  12.185   5.735
27604SOL    HW184709  12.054  12.118   5.686
27604SOL    HW284710  11.958  12.233   5.669
27605SOL     OW84711  14.590   9.496  13.589
27605SOL    HW184712  14.675   9.497  13.634
27605SOL    HW284713  14.526   9.494  13.660
27606SOL     OW84714  13.907   0.101   3.576
27606SOL    HW184715  13.888   0.025   3.520
27606SOL    HW284716  13.979   0.072   3.632
27607SOL     OW84717   9.129   9.178   2.867
27607SOL    HW184718   9.169   9.220   2.943
27607SOL    HW284719   9.196   9.120   2.833
27608SOL     OW84720  14.083   5.417   8.206
27608SOL    HW184721  14.142   5.343   8.223
27608SOL    HW284722  13.995   5.381   8.216
27609SOL     OW84723  13.982   4.353   2.039
27609SOL    HW184724  13.893   4.387   2.052
27609SOL    HW284725  13.968   4.262   2.011
27610SOL     OW84726  11.409   5.565   0.593
27610SOL    HW184727  11.426   5.519   0.511
27610SOL    HW284728  11.472   5.637   0.593
27611SOL     OW84729   5.745   4.710   7.307
27611SOL    HW184730   5.766   4.778   7.244
27611SOL    HW284731   5.651   4.719   7.323
27612SOL     OW84732  12.135  13.007   3.633
27612SOL    HW184733  12.093  13.015   3.548
27612SOL    HW284734  12.226  12.986   3.613
27613SOL     OW84735   7.418   2.373   6.937
27613SOL    HW184736   7.416   2.431   7.013
27613SOL    HW284737   7.492   2.403   6.885
27614SOL     OW84738   3.549   4.418  12.421
27614SOL    HW184739   3.536   4.502  12.377
27614SOL    HW284740   3.473   4.408  12.478
27615SOL     OW84741  14.490  14.388   8.342
27615SOL    HW184742  14.479  14.308   8.393
27615SOL    HW284743  14.434  14.376   8.265
27616SOL     OW84744   5.325  11.063   4.108
27616SOL    HW184745   5.290  11.034   4.193
27616SOL    HW284746   5.267  11.023   4.044
27617SOL     OW84747  12.142   8.374   0.830
27617SOL    HW184748  12.115   8.438   0.896
27617SOL    HW284749  12.238   8.374   0.834
27618SOL     OW84750   2.537   4.195   9.969
27618SOL    HW184751   2.619   4.226  10.007
27618SOL    HW284752   2.481   4.178  10.045
27619SOL     OW84753   5.998  13.317   7.859
27619SOL    HW184754   5.971  13.383   7.795
27619SOL    HW284755   5.968  13.352   7.943
27620SOL     OW84756  13.910   4.694   2.635
27620SOL    HW184757  14.001   4.688   2.605
27620SOL    HW284758  13.895   4.612   2.682
27621SOL     OW84759   9.297   5.914  12.143
27621SOL    HW184760   9.222   5.854  12.144
27621SOL    HW284761   9.276   5.980  12.209
27622SOL     OW84762   6.016  12.219  13.209
27622SOL    HW184763   5.933  12.215  13.161
27622SOL    HW284764   6.081  12.187  13.148
27623SOL     OW84765   7.816   4.895  14.306
27623SOL    HW184766   7.749   4.963  14.296
27623SOL    HW284767   7.893   4.930  14.262
27624SOL     OW84768   7.708   0.159   3.710
27624SOL    HW184769   7.636   0.221   3.717
27624SOL    HW284770   7.672   0.077   3.741
27625SOL     OW84771  13.680   0.048   8.941
27625SOL    HW184772  13.646   0.084   9.023
27625SOL    HW284773  13.648  14.838   8.940
27626SOL     OW84774  13.934   6.124   7.725
27626SOL    HW184775  14.015   6.128   7.673
27626SOL    HW284776  13.954   6.065   7.797
27627SOL     OW84777   6.658   7.373  13.832
27627SOL    HW184778   6.600   7.301  13.857
27627SOL    HW284779   6.649   7.379  13.737
27628SOL     OW84780   6.231   3.652  14.112
27628SOL    HW184781   6.226   3.689  14.201
27628SOL    HW284782   6.153   3.687  14.068
27629SOL     OW84783  11.625  13.894   5.261
27629SOL    HW184784  11.534  13.893   5.231
27629SOL    HW284785  11.676  13.873   5.182
27630SOL     OW84786   3.018   0.054   4.950
27630SOL    HW184787   2.990   0.041   4.859
27630SOL    HW284788   2.939   0.042   5.001
27631SOL     OW84789  13.770  11.860   6.054
27631SOL    HW184790  13.765  11.786   5.994
27631SOL    HW284791  13.732  11.933   6.006
27632SOL     OW84792   4.468   5.594  12.306
27632SOL    HW184793   4.541   5.648  12.335
27632SOL    HW284794   4.498   5.555  12.224
27633SOL     OW84795  10.204   7.586   2.218
27633SOL    HW184796  10.141   7.516   2.205
27633SOL    HW284797  10.162   7.663   2.179
27634SOL     OW84798   2.297   6.100   0.341
27634SOL    HW184799   2.210   6.124   0.309
27634SOL    HW284800   2.312   6.012   0.306
27635SOL     OW84801  14.431   7.489   2.390
27635SOL    HW184802  14.387   7.566   2.353
27635SOL    HW284803  14.416   7.420   2.326
27636SOL     OW84804   0.104   0.823   2.426
27636SOL    HW184805   0.192   0.849   2.400
27636SOL    HW284806   0.107   0.818   2.522
27637SOL     OW84807   7.184   3.505   9.200
27637SOL    HW184808   7.204   3.412   9.206
27637SOL    HW284809   7.233   3.545   9.271
27638SOL     OW84810   7.180  11.447   2.431
27638SOL    HW184811   7.232  11.371   2.403
27638SOL    HW284812   7.232  11.488   2.500
27639SOL     OW84813  10.566   8.256   7.655
27639SOL    HW184814  10.643   8.220   7.610
27639SOL    HW284815  10.558   8.345   7.623
27640SOL     OW84816   9.754   2.358   7.980
27640SOL    HW184817   9.732   2.349   7.888
27640SOL    HW284818   9.715   2.442   8.006
27641SOL     OW84819   9.948  11.719   0.097
27641SOL    HW184820   9.947  11.627   0.071
27641SOL    HW284821   9.954  11.717   0.192
27642SOL     OW84822  12.090   5.521   8.032
27642SOL    HW184823  11.999   5.506   8.057
27642SOL    HW284824  12.118   5.439   7.992
27643SOL     OW84825   7.643  10.346   8.019
27643SOL    HW184826   7.559  10.300   8.021
27643SOL    HW284827   7.652  10.377   7.929
27644SOL     OW84828   0.144   3.821  12.735
27644SOL    HW184829   0.190   3.749  12.692
27644SOL    HW284830   0.135   3.888  12.668
27645SOL     OW84831  11.639   2.059  13.469
27645SOL    HW184832  11.558   2.110  13.479
27645SOL    HW284833  11.637   2.029  13.378
27646SOL     OW84834   6.579   2.364  13.146
27646SOL    HW184835   6.582   2.306  13.070
27646SOL    HW284836   6.610   2.448  13.112
27647SOL     OW84837   5.293   9.513   2.193
27647SOL    HW184838   5.219   9.460   2.161
27647SOL    HW284839   5.356   9.511   2.121
27648SOL     OW84840   4.415  14.795  10.722
27648SOL    HW184841   4.437  14.720  10.667
27648SOL    HW284842   4.483  14.796  10.790
27649SOL     OW84843  12.977   6.448  12.526
27649SOL    HW184844  13.046   6.411  12.583
27649SOL    HW284845  12.896   6.429  12.572
27650SOL     OW84846   6.492   2.675   7.782
27650SOL    HW184847   6.468   2.756   7.737
27650SOL    HW284848   6.587   2.679   7.791
27651SOL     OW84849   1.771  11.246   7.841
27651SOL    HW184850   1.748  11.264   7.750
27651SOL    HW284851   1.866  11.239   7.840
27652SOL     OW84852  12.049   3.754   1.284
27652SOL    HW184853  12.019   3.823   1.343
27652SOL    HW284854  12.094   3.691   1.341
27653SOL     OW84855  10.290   4.774   2.298
27653SOL    HW184856  10.381   4.780   2.267
27653SOL    HW284857  10.297   4.767   2.393
27654SOL     OW84858  14.313  10.926   9.118
27654SOL    HW184859  14.294  10.861   9.049
27654SOL    HW284860  14.385  10.977   9.083
27655SOL     OW84861   2.868   3.724   4.957
27655SOL    HW184862   2.953   3.767   4.962
27655SOL    HW284863   2.861   3.675   5.039
27656SOL     OW84864   4.481   7.747  13.471
27656SOL    HW184865   4.565   7.720  13.508
27656SOL    HW284866   4.433   7.665  13.459
27657SOL     OW84867  10.726   5.081   7.774
27657SOL    HW184868  10.640   5.084   7.731
27657SOL    HW284869  10.776   5.151   7.732
27658SOL     OW84870  13.065   4.821   0.953
27658SOL    HW184871  12.976   4.786   0.943
27658SOL    HW284872  13.098   4.827   0.863
27659SOL     OW84873   7.658   7.068  14.098
27659SOL    HW184874   7.729   7.118  14.139
27659SOL    HW284875   7.692   7.044  14.012
27660SOL     OW84876  12.061   9.732   6.494
27660SOL    HW184877  12.023   9.817   6.517
27660SOL    HW284878  12.001   9.668   6.533
27661SOL     OW84879  13.351   4.990  12.544
27661SOL    HW184880  13.290   5.046  12.592
27661SOL    HW284881  13.294   4.937  12.488
27662SOL     OW84882  14.765   4.642   7.950
27662SOL    HW184883  14.738   4.707   7.885
27662SOL    HW284884  14.820   4.691   8.011
27663SOL     OW84885   1.335  10.988  13.605
27663SOL    HW184886   1.328  10.904  13.560
27663SOL    HW284887   1.429  11.007  13.604
27664SOL     OW84888   0.114  11.487  12.312
27664SOL    HW184889   0.123  11.543  12.235
27664SOL    HW284890   0.087  11.546  12.382
27665SOL     OW84891  10.324  12.692   6.758
27665SOL    HW184892  10.334  12.600   6.782
27665SOL    HW284893  10.369  12.740   6.828
27666SOL     OW84894   3.838   6.427  11.787
27666SOL    HW184895   3.788   6.355  11.826
27666SOL    HW284896   3.913   6.384  11.746
27667SOL     OW84897  10.018   8.672   1.847
27667SOL    HW184898   9.950   8.631   1.793
27667SOL    HW284899  10.099   8.627   1.820
27668SOL     OW84900   4.764   4.505   4.520
27668SOL    HW184901   4.727   4.568   4.582
27668SOL    HW284902   4.798   4.559   4.448
27669SOL     OW84903   0.386   6.660   4.452
27669SOL    HW184904   0.324   6.638   4.383
27669SOL    HW284905   0.372   6.753   4.469
27670SOL     OW84906   6.136   3.457  13.063
27670SOL    HW184907   6.152   3.457  13.158
27670SOL    HW284908   6.223   3.450  13.024
27671SOL     OW84909  12.260   1.412  14.483
27671SOL    HW184910  12.180   1.426  14.532
27671SOL    HW284911  12.280   1.319  14.495
27672SOL     OW84912   8.174  13.990   5.692
27672SOL    HW184913   8.185  13.933   5.769
27672SOL    HW284914   8.081  13.984   5.671
27673SOL     OW84915  12.906  11.446   1.440
27673SOL    HW184916  12.994  11.479   1.457
27673SOL    HW284917  12.903  11.434   1.345
27674SOL     OW84918   8.740   6.328  14.619
27674SOL    HW184919   8.734   6.263  14.549
27674SOL    HW284920   8.833   6.330  14.642
27675SOL     OW84921   2.765   5.084  10.038
27675SOL    HW184922   2.716   5.078  10.120
27675SOL    HW284923   2.840   5.138  10.059
27676SOL     OW84924   3.270   3.638   9.642
27676SOL    HW184925   3.357   3.610   9.668
27676SOL    HW284926   3.233   3.678   9.721
27677SOL     OW84927   9.952  10.335   5.801
27677SOL    HW184928   9.866  10.365   5.833
27677SOL    HW284929   9.968  10.387   5.723
27678SOL     OW84930  10.142   4.008   3.191
27678SOL    HW184931  10.191   3.996   3.273
27678SOL    HW284932  10.130   4.102   3.184
27679SOL     OW84933   1.417  11.336   9.861
27679SOL    HW184934   1.426  11.259   9.804
27679SOL    HW284935   1.356  11.393   9.813
27680SOL     OW84936   8.963  13.073   5.034
27680SOL    HW184937   8.996  13.001   4.980
27680SOL    HW284938   9.031  13.140   5.031
27681SOL     OW84939  13.503  13.879   9.610
27681SOL    HW184940  13.540  13.880   9.521
27681SOL    HW284941  13.574  13.847   9.665
27682SOL     OW84942  12.446   5.900   9.396
27682SOL    HW184943  12.455   5.958   9.320
27682SOL    HW284944  12.392   5.828   9.364
27683SOL     OW84945   7.108   1.947  12.117
27683SOL    HW184946   7.071   2.032  12.142
27683SOL    HW284947   7.031   1.894  12.096
27684SOL     OW84948  13.351  11.259  14.128
27684SOL    HW184949  13.356  11.195  14.057
27684SOL    HW284950  13.262  11.292  14.125
27685SOL     OW84951  10.870   0.160   8.349
27685SOL    HW184952  10.809   0.111   8.405
27685SOL    HW284953  10.813   0.208   8.289
27686SOL     OW84954  11.635   7.601  13.838
27686SOL    HW184955  11.547   7.578  13.868
27686SOL    HW284956  11.693   7.555  13.898
27687SOL     OW84957   7.609   2.620  14.776
27687SOL    HW184958   7.645   2.534  14.797
27687SOL    HW284959   7.684   2.680  14.782
27688SOL     OW84960   3.985  11.399   6.147
27688SOL    HW184961   3.904  11.386   6.196
27688SOL    HW284962   4.045  11.333   6.180
27689SOL     OW84963  13.881   7.054  11.596
27689SOL    HW184964  13.806   7.107  11.620
27689SOL    HW284965  13.863   6.968  11.635
27690SOL     OW84966   2.617   2.890   6.441
27690SOL    HW184967   2.619   2.974   6.396
27690SOL    HW284968   2.551   2.839   6.395
27691SOL     OW84969   0.053   9.488   8.928
27691SOL    HW184970   0.102   9.522   9.003
27691SOL    HW284971   0.115   9.495   8.855
27692SOL     OW84972   3.846   0.305   4.838
27692SOL    HW184973   3.914   0.270   4.781
27692SOL    HW284974   3.764   0.272   4.802
27693SOL     OW84975   7.238   8.262   8.039
27693SOL    HW184976   7.246   8.195   8.107
27693SOL    HW284977   7.173   8.323   8.073
27694SOL     OW84978   9.012  13.348   3.956
27694SOL    HW184979   8.994  13.399   3.877
27694SOL    HW284980   9.033  13.260   3.924
27695SOL     OW84981  13.053   5.820   5.999
27695SOL    HW184982  13.136   5.774   6.012
27695SOL    HW284983  13.034   5.808   5.906
27696SOL     OW84984   5.649   5.763  12.267
27696SOL    HW184985   5.598   5.821  12.324
27696SOL    HW284986   5.590   5.690  12.247
27697SOL     OW84987   4.147   7.950  12.930
27697SOL    HW184988   4.096   7.897  12.992
27697SOL    HW284989   4.236   7.915  12.936
27698SOL     OW84990   9.753  13.831  10.101
27698SOL    HW184991   9.783  13.899  10.161
27698SOL    HW284992   9.778  13.748  10.143
27699SOL     OW84993   3.563  11.835  13.193
27699SOL    HW184994   3.533  11.744  13.185
27699SOL    HW284995   3.638  11.840  13.134
27700SOL     OW84996   7.893   0.834   1.740
27700SOL    HW184997   7.840   0.783   1.679
27700SOL    HW284998   7.956   0.771   1.775
27701SOL     OW84999   3.323   6.529   2.490
27701SOL    HW185000   3.334   6.567   2.577
27701SOL    HW285001   3.255   6.583   2.449
27702SOL     OW85002  10.666  11.838  14.089
27702SOL    HW185003  10.668  11.932  14.110
27702SOL    HW285004  10.616  11.833  14.007
27703SOL     OW85005   3.627   4.476   9.283
27703SOL    HW185006   3.593   4.541   9.222
27703SOL    HW285007   3.585   4.394   9.256
27704SOL     OW85008  14.360  11.026   9.755
27704SOL    HW185009  14.438  11.082   9.751
27704SOL    HW285010  14.394  10.940   9.780
27705SOL     OW85011   4.270  11.401  10.980
27705SOL    HW185012   4.205  11.463  11.014
27705SOL    HW285013   4.287  11.342  11.054
27706SOL     OW85014   1.511   6.487   6.956
27706SOL    HW185015   1.429   6.503   7.003
27706SOL    HW285016   1.514   6.554   6.888
27707SOL     OW85017   2.600   7.298  10.251
27707SOL    HW185018   2.687   7.322  10.281
27707SOL    HW285019   2.586   7.349  10.172
27708SOL     OW85020   5.707   4.975   5.821
27708SOL    HW185021   5.656   5.036   5.768
27708SOL    HW285022   5.795   4.980   5.783
27709SOL     OW85023   8.674  14.640  13.627
27709SOL    HW185024   8.650  14.577  13.695
27709SOL    HW285025   8.765  14.663  13.648
27710SOL     OW85026   8.561   6.393  13.117
27710SOL    HW185027   8.628   6.434  13.172
27710SOL    HW285028   8.558   6.302  13.146
27711SOL     OW85029   8.460  13.231   7.890
27711SOL    HW185030   8.401  13.156   7.896
27711SOL    HW285031   8.419  13.289   7.826
27712SOL     OW85032   5.468  12.144   4.360
27712SOL    HW185033   5.555  12.159   4.325
27712SOL    HW285034   5.449  12.222   4.413
27713SOL     OW85035   8.237   9.089  14.037
27713SOL    HW185036   8.250   9.171  14.084
27713SOL    HW285037   8.324   9.065  14.005
27714SOL     OW85038   7.043   7.979   0.592
27714SOL    HW185039   7.106   8.034   0.639
27714SOL    HW285040   7.016   7.913   0.655
27715SOL     OW85041  12.522  12.920  14.872
27715SOL    HW185042  12.447  12.899  14.817
27715SOL    HW285043  12.589  12.951  14.811
27716SOL     OW85044   4.349  10.434   5.021
27716SOL    HW185045   4.380  10.354   4.978
27716SOL    HW285046   4.429  10.473   5.058
27717SOL     OW85047  12.673   3.147   4.340
27717SOL    HW185048  12.730   3.137   4.416
27717SOL    HW285049  12.598   3.090   4.359
27718SOL     OW85050  13.528   1.529   1.092
27718SOL    HW185051  13.469   1.604   1.093
27718SOL    HW285052  13.551   1.516   1.184
27719SOL     OW85053   1.014   6.684  10.825
27719SOL    HW185054   1.092   6.722  10.785
27719SOL    HW285055   0.943   6.741  10.798
27720SOL     OW85056   1.349  11.560  14.584
27720SOL    HW185057   1.271  11.539  14.636
27720SOL    HW285058   1.321  11.546  14.493
27721SOL     OW85059  13.625  11.285  13.463
27721SOL    HW185060  13.673  11.219  13.513
27721SOL    HW285061  13.555  11.314  13.522
27722SOL     OW85062   3.225  13.385   9.536
27722SOL    HW185063   3.232  13.478   9.554
27722SOL    HW285064   3.225  13.379   9.440
27723SOL     OW85065   8.488  12.973   7.110
27723SOL    HW185066   8.520  12.965   7.020
27723SOL    HW285067   8.439  13.056   7.111
27724SOL     OW85068   0.509   3.629   1.653
27724SOL    HW185069   0.569   3.623   1.727
27724SOL    HW285070   0.473   3.540   1.644
27725SOL     OW85071   2.026   1.460   3.586
27725SOL    HW185072   2.055   1.458   3.495
27725SOL    HW285073   2.103   1.434   3.637
27726SOL     OW85074   3.711  11.528   0.911
27726SOL    HW185075   3.652  11.454   0.894
27726SOL    HW285076   3.770  11.529   0.835
27727SOL     OW85077   3.159   9.638  10.022
27727SOL    HW185078   3.183   9.560  10.072
27727SOL    HW285079   3.164   9.710  10.085
27728SOL     OW85080   3.448  14.861  13.455
27728SOL    HW185081   3.511  14.794  13.479
27728SOL    HW285082   3.410  14.831  13.373
27729SOL     OW85083  10.119  13.208   6.926
27729SOL    HW185084  10.152  13.295   6.950
27729SOL    HW285085  10.024  13.220   6.918
27730SOL     OW85086   3.076   1.720   6.991
27730SOL    HW185087   3.024   1.693   6.916
27730SOL    HW285088   3.150   1.769   6.953
27731SOL     OW85089  12.859  13.698   4.940
27731SOL    HW185090  12.950  13.696   4.910
27731SOL    HW285091  12.825  13.782   4.909
27732SOL     OW85092   7.131   9.514  14.314
27732SOL    HW185093   7.042   9.548  14.308
27732SOL    HW285094   7.129   9.433  14.263
27733SOL     OW85095   2.370  10.751   2.130
27733SOL    HW185096   2.385  10.659   2.148
27733SOL    HW285097   2.377  10.794   2.215
27734SOL     OW85098   4.890   9.735  11.336
27734SOL    HW185099   4.896   9.661  11.397
27734SOL    HW285100   4.796   9.748  11.323
27735SOL     OW85101  13.476   1.663   9.891
27735SOL    HW185102  13.457   1.590   9.831
27735SOL    HW285103  13.391   1.685   9.929
27736SOL     OW85104  10.441   1.401   3.571
27736SOL    HW185105  10.382   1.328   3.585
27736SOL    HW285106  10.476   1.387   3.483
27737SOL     OW85107  10.521  11.474  11.719
27737SOL    HW185108  10.611  11.489  11.750
27737SOL    HW285109  10.467  11.486  11.797
27738SOL     OW85110   0.594  10.747  12.852
27738SOL    HW185111   0.593  10.828  12.801
27738SOL    HW285112   0.514  10.701  12.826
27739SOL     OW85113   1.212  11.757  12.248
27739SOL    HW185114   1.139  11.739  12.307
27739SOL    HW285115   1.172  11.769  12.162
27740SOL     OW85116   6.234   6.247   0.298
27740SOL    HW185117   6.187   6.207   0.225
27740SOL    HW285118   6.260   6.173   0.353
27741SOL     OW85119   7.576   0.428   3.694
27741SOL    HW185120   7.492   0.431   3.649
27741SOL    HW285121   7.580   0.511   3.742
27742SOL     OW85122   2.979   9.698   6.741
27742SOL    HW185123   3.014   9.631   6.799
27742SOL    HW285124   2.965   9.652   6.658
27743SOL     OW85125  11.398  12.876   3.919
27743SOL    HW185126  11.463  12.831   3.974
27743SOL    HW285127  11.314  12.855   3.960
27744SOL     OW85128  12.230   6.328   0.297
27744SOL    HW185129  12.170   6.372   0.358
27744SOL    HW285130  12.206   6.363   0.211
27745SOL     OW85131   8.505   6.033   8.704
27745SOL    HW185132   8.459   5.960   8.743
27745SOL    HW285133   8.439   6.077   8.650
27746SOL     OW85134  14.731   4.732  13.697
27746SOL    HW185135  14.811   4.690  13.666
27746SOL    HW285136  14.720   4.809  13.641
27747SOL     OW85137  13.719   7.919   6.050
27747SOL    HW185138  13.748   7.859   5.980
27747SOL    HW285139  13.625   7.906   6.055
27748SOL     OW85140   1.049  13.116   3.052
27748SOL    HW185141   1.029  13.045   3.113
27748SOL    HW285142   1.010  13.194   3.091
27749SOL     OW85143   4.156   7.198   4.607
27749SOL    HW185144   4.115   7.272   4.651
27749SOL    HW285145   4.087   7.131   4.605
27750SOL     OW85146   7.086  10.449  11.548
27750SOL    HW185147   7.153  10.499  11.595
27750SOL    HW285148   7.072  10.499  11.467
27751SOL     OW85149   4.827   1.985   8.711
27751SOL    HW185150   4.790   1.989   8.799
27751SOL    HW285151   4.919   1.963   8.724
27752SOL     OW85152  11.098  10.769   7.705
27752SOL    HW185153  11.081  10.706   7.775
27752SOL    HW285154  11.049  10.848   7.731
27753SOL     OW85155   9.907   6.819   0.054
27753SOL    HW185156   9.842   6.882   0.087
27753SOL    HW285157   9.965   6.871  14.879
27754SOL     OW85158  10.725  11.097   3.682
27754SOL    HW185159  10.695  11.140   3.601
27754SOL    HW285160  10.651  11.043   3.710
27755SOL     OW85161   2.914   1.047  11.062
27755SOL    HW185162   2.951   0.999  11.137
27755SOL    HW285163   2.886   0.979  11.002
27756SOL     OW85164   3.433   3.588   3.915
27756SOL    HW185165   3.498   3.553   3.975
27756SOL    HW285166   3.372   3.636   3.971
27757SOL     OW85167   5.463   3.929  11.055
27757SOL    HW185168   5.471   3.878  11.136
27757SOL    HW285169   5.431   3.865  10.991
27758SOL     OW85170  13.038  14.660   3.938
27758SOL    HW185171  12.980  14.679   4.012
27758SOL    HW285172  13.025  14.733   3.878
27759SOL     OW85173  11.057  13.212   4.926
27759SOL    HW185174  11.096  13.180   4.844
27759SOL    HW285175  10.995  13.279   4.898
27760SOL     OW85176   5.027  12.367   0.768
27760SOL    HW185177   4.981  12.451   0.772
27760SOL    HW285178   4.998  12.319   0.846
27761SOL     OW85179   3.939   7.684   6.828
27761SOL    HW185180   4.024   7.690   6.871
27761SOL    HW285181   3.882   7.645   6.894
27762SOL     OW85182   5.814  12.053  12.767
27762SOL    HW185183   5.758  12.002  12.709
27762SOL    HW285184   5.801  12.015  12.854
27763SOL     OW85185   7.331   5.131   6.907
27763SOL    HW185186   7.343   5.063   6.841
27763SOL    HW285187   7.414   5.134   6.955
27764SOL     OW85188   3.105   8.774  13.148
27764SOL    HW185189   3.086   8.868  13.146
27764SOL    HW285190   3.158   8.758  13.070
27765SOL     OW85191   9.174  12.094   9.736
27765SOL    HW185192   9.081  12.107   9.754
27765SOL    HW285193   9.185  11.999   9.736
27766SOL     OW85194  11.731   1.252  12.655
27766SOL    HW185195  11.659   1.245  12.593
27766SOL    HW285196  11.802   1.293  12.606
27767SOL     OW85197   9.963   4.186  13.024
27767SOL    HW185198  10.006   4.268  13.048
27767SOL    HW285199   9.885   4.212  12.977
27768SOL     OW85200   2.656   2.868   2.339
27768SOL    HW185201   2.746   2.856   2.366
27768SOL    HW285202   2.661   2.929   2.265
27769SOL     OW85203   1.220   5.954   2.164
27769SOL    HW185204   1.209   6.022   2.098
27769SOL    HW285205   1.132   5.922   2.181
27770SOL     OW85206   0.556  14.152   2.318
27770SOL    HW185207   0.519  14.128   2.403
27770SOL    HW285208   0.626  14.089   2.304
27771SOL     OW85209   8.106  12.448  11.753
27771SOL    HW185210   8.193  12.483  11.773
27771SOL    HW285211   8.120  12.355  11.737
27772SOL     OW85212   2.831  13.291  11.828
27772SOL    HW185213   2.776  13.368  11.843
27772SOL    HW285214   2.795  13.250  11.750
27773SOL     OW85215   9.109   2.803   6.566
27773SOL    HW185216   9.125   2.782   6.474
27773SOL    HW285217   9.110   2.899   6.570
27774SOL     OW85218   1.038   9.612   2.369
27774SOL    HW185219   0.995   9.665   2.302
27774SOL    HW285220   1.019   9.656   2.452
27775SOL     OW85221   4.560   4.776  11.933
27775SOL    HW185222   4.503   4.770  11.857
27775SOL    HW285223   4.615   4.853  11.917
27776SOL     OW85224   5.450   5.530   2.526
27776SOL    HW185225   5.493   5.561   2.446
27776SOL    HW285226   5.395   5.457   2.497
27777SOL     OW85227  14.073   0.473  12.198
27777SOL    HW185228  14.097   0.456  12.107
27777SOL    HW285229  13.985   0.510  12.193
27778SOL     OW85230   6.377   5.646   6.963
27778SOL    HW185231   6.447   5.707   6.938
27778SOL    HW285232   6.309   5.660   6.897
27779SOL     OW85233   8.630   8.904   4.488
27779SOL    HW185234   8.699   8.955   4.447
27779SOL    HW285235   8.604   8.955   4.565
27780SOL     OW85236  12.642   1.093   1.431
27780SOL    HW185237  12.550   1.113   1.410
27780SOL    HW285238  12.639   1.058   1.520
27781SOL     OW85239   1.061   5.799   3.739
27781SOL    HW185240   1.148   5.779   3.703
27781SOL    HW285241   1.002   5.739   3.694
27782SOL     OW85242  10.316   0.509  12.872
27782SOL    HW185243  10.365   0.585  12.905
27782SOL    HW285244  10.291   0.534  12.783
27783SOL     OW85245   8.353   4.237  13.482
27783SOL    HW185246   8.294   4.236  13.406
27783SOL    HW285247   8.440   4.224  13.445
27784SOL     OW85248   7.264   8.067   8.239
27784SOL    HW185249   7.340   8.017   8.208
27784SOL    HW285250   7.245   8.032   8.326
27785SOL     OW85251   3.641   0.351   3.589
27785SOL    HW185252   3.577   0.422   3.584
27785SOL    HW285253   3.657   0.341   3.683
27786SOL     OW85254   7.236  10.526   2.382
27786SOL    HW185255   7.165  10.552   2.442
27786SOL    HW285256   7.238  10.431   2.388
27787SOL     OW85257  11.050   9.634   5.952
27787SOL    HW185258  10.994   9.584   5.892
27787SOL    HW285259  11.076   9.711   5.901
27788SOL     OW85260  11.204   9.018   3.169
27788SOL    HW185261  11.159   8.934   3.170
27788SOL    HW285262  11.138   9.080   3.139
27789SOL     OW85263   2.123   8.835   1.270
27789SOL    HW185264   2.148   8.927   1.262
27789SOL    HW285265   2.188   8.798   1.330
27790SOL     OW85266   2.418   2.150   7.408
27790SOL    HW185267   2.482   2.156   7.336
27790SOL    HW285268   2.436   2.066   7.449
27791SOL     OW85269   2.424   4.232   1.033
27791SOL    HW185270   2.422   4.217   1.128
27791SOL    HW285271   2.338   4.268   1.013
27792SOL     OW85272   3.521   8.198  10.395
27792SOL    HW185273   3.475   8.212  10.477
27792SOL    HW285274   3.494   8.111  10.366
27793SOL     OW85275  12.247   4.486   5.748
27793SOL    HW185276  12.162   4.503   5.707
27793SOL    HW285277  12.311   4.517   5.685
27794SOL     OW85278  12.263   5.180   7.730
27794SOL    HW185279  12.201   5.195   7.659
27794SOL    HW285280  12.342   5.149   7.687
27795SOL     OW85281   0.184  11.578   0.892
27795SOL    HW185282   0.146  11.599   0.806
27795SOL    HW285283   0.116  11.602   0.955
27796SOL     OW85284   7.075   5.363  13.053
27796SOL    HW185285   7.093   5.457  13.055
27796SOL    HW285286   7.000   5.352  13.112
27797SOL     OW85287   2.018  10.018   3.295
27797SOL    HW185288   2.024  10.112   3.274
27797SOL    HW285289   2.090  10.003   3.357
27798SOL     OW85290  12.494   7.402   0.776
27798SOL    HW185291  12.536   7.476   0.819
27798SOL    HW285292  12.559   7.369   0.715
27799SOL     OW85293  13.312   1.602   5.500
27799SOL    HW185294  13.286   1.653   5.577
27799SOL    HW285295  13.370   1.535   5.534
27800SOL     OW85296   9.478  12.026  14.236
27800SOL    HW185297   9.426  12.052  14.312
27800SOL    HW285298   9.543  11.966  14.270
27801SOL     OW85299   3.748   7.439   6.259
27801SOL    HW185300   3.800   7.518   6.245
27801SOL    HW285301   3.741   7.400   6.172
27802SOL     OW85302   5.806   4.849   6.332
27802SOL    HW185303   5.766   4.815   6.253
27802SOL    HW285304   5.770   4.937   6.342
27803SOL     OW85305  10.169   9.585   6.658
27803SOL    HW185306  10.139   9.496   6.675
27803SOL    HW285307  10.090   9.632   6.631
27804SOL     OW85308  14.762  13.829   8.528
27804SOL    HW185309  14.746  13.909   8.577
27804SOL    HW285310  14.762  13.856   8.436
27805SOL     OW85311  14.028  13.915   2.820
27805SOL    HW185312  14.092  13.886   2.886
27805SOL    HW285313  13.948  13.931   2.870
27806SOL     OW85314  13.787   8.411   6.658
27806SOL    HW185315  13.703   8.368   6.643
27806SOL    HW285316  13.815   8.438   6.571
27807SOL     OW85317  14.413  11.604   6.446
27807SOL    HW185318  14.505  11.575   6.447
27807SOL    HW285319  14.413  11.679   6.386
27808SOL     OW85320   9.057   5.591  11.231
27808SOL    HW185321   9.127   5.541  11.190
27808SOL    HW285322   8.987   5.526  11.244
27809SOL     OW85323  11.759  13.593   1.990
27809SOL    HW185324  11.788  13.560   2.075
27809SOL    HW285325  11.730  13.516   1.943
27810SOL     OW85326  13.913   2.420  14.851
27810SOL    HW185327  13.952   2.333  14.853
27810SOL    HW285328  13.948   2.463   0.049
27811SOL     OW85329   9.975  12.341   4.313
27811SOL    HW185330   9.909  12.372   4.376
27811SOL    HW285331  10.056  12.337   4.363
27812SOL     OW85332   7.532   2.014   2.436
27812SOL    HW185333   7.620   1.986   2.459
27812SOL    HW285334   7.544   2.074   2.362
27813SOL     OW85335   6.692   6.807   8.830
27813SOL    HW185336   6.694   6.866   8.905
27813SOL    HW285337   6.780   6.768   8.828
27814SOL     OW85338   5.024  11.651  13.498
27814SOL    HW185339   4.970  11.578  13.465
27814SOL    HW285340   5.068  11.684  13.420
27815SOL     OW85341   3.404   8.543   5.381
27815SOL    HW185342   3.371   8.473   5.438
27815SOL    HW285343   3.498   8.543   5.397
27816SOL     OW85344   0.680  14.814  10.167
27816SOL    HW185345   0.643  14.801  10.254
27816SOL    HW285346   0.605  14.834  10.111
27817SOL     OW85347   5.811  14.823   1.275
27817SOL    HW185348   5.894  14.868   1.263
27817SOL    HW285349   5.822  14.740   1.228
27818SOL     OW85350   8.900   3.198   2.136
27818SOL    HW185351   8.924   3.214   2.045
27818SOL    HW285352   8.916   3.281   2.181
27819SOL     OW85353  12.591   2.837  13.008
27819SOL    HW185354  12.609   2.914  12.954
27819SOL    HW285355  12.673   2.788  13.007
27820SOL     OW85356   3.292   8.654   1.364
27820SOL    HW185357   3.287   8.675   1.457
27820SOL    HW285358   3.341   8.727   1.326
27821SOL     OW85359   1.725   2.662  11.996
27821SOL    HW185360   1.805   2.642  11.947
27821SOL    HW285361   1.687   2.576  12.014
27822SOL     OW85362   4.033   4.328   7.683
27822SOL    HW185363   4.012   4.339   7.776
27822SOL    HW285364   4.110   4.270   7.682
27823SOL     OW85365  14.740   0.946   6.188
27823SOL    HW185366  14.768   1.036   6.170
27823SOL    HW285367  14.647   0.945   6.165
27824SOL     OW85368   5.192   4.766  10.734
27824SOL    HW185369   5.212   4.794  10.823
27824SOL    HW285370   5.124   4.827  10.704
27825SOL     OW85371   2.281  10.164   4.805
27825SOL    HW185372   2.217  10.232   4.827
27825SOL    HW285373   2.271  10.099   4.875
27826SOL     OW85374  14.399   8.892  10.078
27826SOL    HW185375  14.425   8.857   9.993
27826SOL    HW285376  14.368   8.981  10.060
27827SOL     OW85377   2.340   1.983   0.810
27827SOL    HW185378   2.429   1.951   0.804
27827SOL    HW285379   2.285   1.910   0.781
27828SOL     OW85380  10.748   1.087   4.197
27828SOL    HW185381  10.805   1.019   4.234
27828SOL    HW285382  10.808   1.158   4.174
27829SOL     OW85383   6.985   1.688  14.570
27829SOL    HW185384   6.948   1.647  14.491
27829SOL    HW285385   7.076   1.709  14.546
27830SOL     OW85386   5.720   9.155   8.648
27830SOL    HW185387   5.664   9.131   8.722
27830SOL    HW285388   5.806   9.170   8.686
27831SOL     OW85389   1.796   5.475   1.912
27831SOL    HW185390   1.722   5.450   1.968
27831SOL    HW285391   1.790   5.570   1.905
27832SOL     OW85392   7.208  14.399  10.648
27832SOL    HW185393   7.128  14.436  10.612
27832SOL    HW285394   7.279  14.444  10.602
27833SOL     OW85395  10.507   1.392  12.910
27833SOL    HW185396  10.530   1.301  12.927
27833SOL    HW285397  10.417   1.401  12.940
27834SOL     OW85398  11.837   6.591  11.915
27834SOL    HW185399  11.911   6.536  11.943
27834SOL    HW285400  11.840   6.666  11.974
27835SOL     OW85401   5.211  12.455   9.650
27835SOL    HW185402   5.156  12.379   9.633
27835SOL    HW285403   5.229  12.451   9.744
27836SOL     OW85404  13.814   6.214   6.253
27836SOL    HW185405  13.763   6.250   6.326
27836SOL    HW285406  13.811   6.283   6.186
27837SOL     OW85407   8.777  14.467  12.193
27837SOL    HW185408   8.774  14.516  12.110
27837SOL    HW285409   8.715  14.512  12.250
27838SOL     OW85410   4.731   5.258   2.755
27838SOL    HW185411   4.657   5.304   2.795
27838SOL    HW285412   4.808   5.306   2.783
27839SOL     OW85413   9.064  10.535   0.787
27839SOL    HW185414   9.102  10.581   0.862
27839SOL    HW285415   9.139  10.494   0.744
27840SOL     OW85416   4.387  13.161   0.867
27840SOL    HW185417   4.442  13.155   0.945
27840SOL    HW285418   4.448  13.149   0.794
27841SOL     OW85419  10.312   5.360   5.035
27841SOL    HW185420  10.315   5.274   4.992
27841SOL    HW285421  10.219   5.378   5.045
27842SOL     OW85422   9.954  13.583   2.710
27842SOL    HW185423   9.947  13.533   2.791
27842SOL    HW285424   9.865  13.585   2.676
27843SOL     OW85425   1.660   3.948  10.863
27843SOL    HW185426   1.724   3.902  10.809
27843SOL    HW285427   1.711   4.010  10.914
27844SOL     OW85428   0.362   0.673   5.382
27844SOL    HW185429   0.420   0.641   5.451
27844SOL    HW285430   0.319   0.594   5.348
27845SOL     OW85431   2.697  10.488   0.958
27845SOL    HW185432   2.687  10.569   0.907
27845SOL    HW285433   2.671  10.419   0.897
27846SOL     OW85434  13.832   2.632   3.173
27846SOL    HW185435  13.778   2.622   3.095
27846SOL    HW285436  13.902   2.691   3.146
27847SOL     OW85437  11.867   0.662  14.062
27847SOL    HW185438  11.855   0.583  14.010
27847SOL    HW285439  11.933   0.638  14.127
27848SOL     OW85440   1.308   7.059  10.754
27848SOL    HW185441   1.239   7.027  10.812
27848SOL    HW285442   1.372   6.987  10.751
27849SOL     OW85443   7.508   0.153   9.251
27849SOL    HW185444   7.456   0.232   9.257
27849SOL    HW285445   7.463   0.090   9.306
27850SOL     OW85446  14.641   6.145  10.368
27850SOL    HW185447  14.661   6.211  10.302
27850SOL    HW285448  14.702   6.163  10.440
27851SOL     OW85449   6.634  10.344  10.941
27851SOL    HW185450   6.544  10.313  10.952
27851SOL    HW285451   6.688  10.277  10.983
27852SOL     OW85452   2.263  14.167   5.126
27852SOL    HW185453   2.245  14.172   5.220
27852SOL    HW285454   2.223  14.084   5.098
27853SOL     OW85455   7.813   7.442   1.945
27853SOL    HW185456   7.819   7.367   1.885
27853SOL    HW285457   7.840   7.517   1.892
27854SOL     OW85458   6.488   6.130  13.420
27854SOL    HW185459   6.560   6.147  13.480
27854SOL    HW285460   6.442   6.213  13.413
27855SOL     OW85461  10.561   5.865  14.639
27855SOL    HW185462  10.654   5.847  14.632
27855SOL    HW285463  10.523   5.828  14.559
27856SOL     OW85464   5.363  12.467  11.787
27856SOL    HW185465   5.368  12.382  11.743
27856SOL    HW285466   5.452  12.502  11.781
27857SOL     OW85467   1.655  11.170   2.552
27857SOL    HW185468   1.603  11.246   2.525
27857SOL    HW285469   1.743  11.205   2.567
27858SOL     OW85470   6.623  13.639  10.593
27858SOL    HW185471   6.543  13.691  10.586
27858SOL    HW285472   6.614  13.592  10.676
27859SOL     OW85473   2.504   5.386   0.916
27859SOL    HW185474   2.432   5.414   0.973
27859SOL    HW285475   2.582   5.424   0.957
27860SOL     OW85476  12.051  14.313   3.578
27860SOL    HW185477  12.010  14.269   3.653
27860SOL    HW285478  12.090  14.241   3.528
27861SOL     OW85479   9.920  12.344   6.349
27861SOL    HW185480   9.946  12.284   6.279
27861SOL    HW285481   9.838  12.382   6.319
27862SOL     OW85482   5.362  10.688   4.432
27862SOL    HW185483   5.389  10.774   4.464
27862SOL    HW285484   5.445  10.639   4.423
27863SOL     OW85485  14.717  10.686   0.816
27863SOL    HW185486  14.800  10.654   0.779
27863SOL    HW285487  14.651  10.665   0.750
27864SOL     OW85488   9.798   8.817   4.311
27864SOL    HW185489   9.872   8.774   4.353
27864SOL    HW285490   9.745   8.849   4.384
27865SOL     OW85491  12.919   8.204  14.585
27865SOL    HW185492  12.880   8.167  14.506
27865SOL    HW285493  12.882   8.154  14.657
27866SOL     OW85494  14.578   3.216   7.905
27866SOL    HW185495  14.624   3.300   7.902
27866SOL    HW285496  14.506   3.231   7.967
27867SOL     OW85497   6.642   5.852   9.236
27867SOL    HW185498   6.589   5.817   9.307
27867SOL    HW285499   6.578   5.886   9.173
27868SOL     OW85500   5.754   0.318   1.217
27868SOL    HW185501   5.714   0.403   1.236
27868SOL    HW285502   5.812   0.302   1.292
27869SOL     OW85503  14.786   2.795   3.492
27869SOL    HW185504  14.829   2.796   3.407
27869SOL    HW285505  14.855   2.768   3.553
27870SOL     OW85506   8.590   8.061  13.637
27870SOL    HW185507   8.656   8.073  13.570
27870SOL    HW285508   8.507   8.067  13.590
27871SOL     OW85509  14.038   3.528  13.583
27871SOL    HW185510  13.963   3.469  13.575
27871SOL    HW285511  14.059   3.552  13.492
27872SOL     OW85512   3.614  10.724  11.824
27872SOL    HW185513   3.529  10.690  11.851
27872SOL    HW285514   3.671  10.648  11.820
27873SOL     OW85515   0.521   2.901   4.890
27873SOL    HW185516   0.570   2.887   4.971
27873SOL    HW285517   0.429   2.889   4.916
27874SOL     OW85518   2.363   1.863   4.148
27874SOL    HW185519   2.343   1.792   4.088
27874SOL    HW285520   2.419   1.922   4.098
27875SOL     OW85521   1.928   0.093  14.681
27875SOL    HW185522   2.004   0.039  14.661
27875SOL    HW285523   1.864   0.072  14.613
27876SOL     OW85524   8.907  11.649   1.042
27876SOL    HW185525   8.899  11.673   1.134
27876SOL    HW285526   8.822  11.612   1.019
27877SOL     OW85527  14.206  10.113  14.483
27877SOL    HW185528  14.224  10.019  14.491
27877SOL    HW285529  14.199  10.127  14.388
27878SOL     OW85530   8.132   4.415   2.801
27878SOL    HW185531   8.126   4.497   2.753
27878SOL    HW285532   8.125   4.440   2.893
27879SOL     OW85533  13.301   1.679  11.860
27879SOL    HW185534  13.351   1.620  11.805
27879SOL    HW285535  13.301   1.638  11.946
27880SOL     OW85536  12.771  11.883   4.257
27880SOL    HW185537  12.791  11.827   4.332
27880SOL    HW285538  12.844  11.944   4.252
27881SOL     OW85539   0.560  10.919   1.240
27881SOL    HW185540   0.619  10.994   1.245
27881SOL    HW285541   0.474  10.954   1.262
27882SOL     OW85542   0.659   4.930   4.647
27882SOL    HW185543   0.727   4.994   4.666
27882SOL    HW285544   0.587   4.952   4.707
27883SOL     OW85545  13.319   2.691   3.129
27883SOL    HW185546  13.298   2.604   3.163
27883SOL    HW285547  13.291   2.751   3.199
27884SOL     OW85548  13.663  10.059   0.023
27884SOL    HW185549  13.707  10.064  14.819
27884SOL    HW285550  13.619   9.974   0.022
27885SOL     OW85551  14.407   2.938   1.325
27885SOL    HW185552  14.335   2.920   1.385
27885SOL    HW285553  14.450   3.015   1.362
27886SOL     OW85554  13.878  13.495  13.996
27886SOL    HW185555  13.891  13.470  14.087
27886SOL    HW285556  13.931  13.434  13.946
27887SOL     OW85557   1.396   0.504  12.093
27887SOL    HW185558   1.342   0.569  12.048
27887SOL    HW285559   1.384   0.523  12.186
27888SOL     OW85560   5.057   9.817   0.974
27888SOL    HW185561   5.113   9.755   1.020
27888SOL    HW285562   4.973   9.771   0.963
27889SOL     OW85563  10.549   6.049   1.998
27889SOL    HW185564  10.536   6.048   2.093
27889SOL    HW285565  10.642   6.068   1.987
27890SOL     OW85566   3.415  14.817   3.752
27890SOL    HW185567   3.366  14.859   3.681
27890SOL    HW285568   3.453  14.739   3.711
27891SOL     OW85569  10.144   1.590  10.238
27891SOL    HW185570  10.059   1.552  10.216
27891SOL    HW285571  10.131   1.630  10.324
27892SOL     OW85572   4.212  13.429  13.656
27892SOL    HW185573   4.253  13.488  13.592
27892SOL    HW285574   4.153  13.485  13.706
27893SOL     OW85575  13.035   7.114   9.007
27893SOL    HW185576  13.074   7.181   8.951
27893SOL    HW285577  12.971   7.069   8.951
27894SOL     OW85578   1.731   0.238   9.584
27894SOL    HW185579   1.668   0.272   9.649
27894SOL    HW285580   1.796   0.307   9.577
27895SOL     OW85581   9.960   1.888   2.128
27895SOL    HW185582   9.949   1.799   2.095
27895SOL    HW285583  10.043   1.917   2.090
27896SOL     OW85584   6.562   9.740   6.830
27896SOL    HW185585   6.535   9.711   6.743
27896SOL    HW285586   6.557   9.662   6.885
27897SOL     OW85587   8.605   6.026  10.027
27897SOL    HW185588   8.581   6.061   9.941
27897SOL    HW285589   8.544   5.953  10.040
27898SOL     OW85590  14.659  11.874   1.178
27898SOL    HW185591  14.591  11.909   1.236
27898SOL    HW285592  14.669  11.941   1.110
27899SOL     OW85593  11.678   2.756   8.539
27899SOL    HW185594  11.698   2.666   8.513
27899SOL    HW285595  11.764   2.796   8.553
27900SOL     OW85596   4.394   7.853  12.990
27900SOL    HW185597   4.426   7.772  13.030
27900SOL    HW285598   4.413   7.920  13.055
27901SOL     OW85599   5.885   9.454   3.454
27901SOL    HW185600   5.940   9.453   3.375
27901SOL    HW285601   5.938   9.499   3.520
27902SOL     OW85602  11.229   4.295   9.553
27902SOL    HW185603  11.278   4.217   9.582
27902SOL    HW285604  11.155   4.301   9.614
27903SOL     OW85605   0.239   5.906   8.892
27903SOL    HW185606   0.154   5.912   8.936
27903SOL    HW285607   0.287   5.982   8.925
27904SOL     OW85608  11.648   8.479   1.817
27904SOL    HW185609  11.619   8.439   1.899
27904SOL    HW285610  11.610   8.567   1.819
27905SOL     OW85611   6.916  13.290  13.870
27905SOL    HW185612   6.967  13.229  13.923
27905SOL    HW285613   6.871  13.345  13.934
27906SOL     OW85614   2.173   2.248   6.860
27906SOL    HW185615   2.226   2.254   6.940
27906SOL    HW285616   2.177   2.335   6.822
27907SOL     OW85617   7.682   0.768   2.093
27907SOL    HW185618   7.721   0.853   2.070
27907SOL    HW285619   7.590   0.776   2.066
27908SOL     OW85620  11.697   6.772   5.592
27908SOL    HW185621  11.720   6.838   5.657
27908SOL    HW285622  11.729   6.807   5.509
27909SOL     OW85623   7.611   8.753   9.619
27909SOL    HW185624   7.582   8.758   9.710
27909SOL    HW285625   7.706   8.747   9.625
27910SOL     OW85626   6.971   3.264  14.647
27910SOL    HW185627   6.925   3.327  14.702
27910SOL    HW285628   6.989   3.190  14.704
27911SOL     OW85629   3.081  11.571   8.260
27911SOL    HW185630   3.016  11.507   8.232
27911SOL    HW285631   3.093  11.553   8.353
27912SOL     OW85632  10.105   6.147   3.387
27912SOL    HW185633  10.190   6.116   3.420
27912SOL    HW285634  10.078   6.079   3.325
27913SOL     OW85635   8.277   4.884   7.522
27913SOL    HW185636   8.233   4.804   7.550
27913SOL    HW285637   8.236   4.906   7.438
27914SOL     OW85638   7.384   5.613  14.305
27914SOL    HW185639   7.432   5.687  14.266
27914SOL    HW285640   7.410   5.614  14.397
27915SOL     OW85641   5.259  13.893  12.424
27915SOL    HW185642   5.171  13.928  12.438
27915SOL    HW285643   5.274  13.835  12.499
27916SOL     OW85644  10.904  11.888  13.927
27916SOL    HW185645  10.979  11.920  13.977
27916SOL    HW285646  10.830  11.894  13.988
27917SOL     OW85647  11.981  13.043   9.841
27917SOL    HW185648  11.967  13.070   9.932
27917SOL    HW285649  11.980  13.124   9.791
27918SOL     OW85650   1.119   5.450   5.651
27918SOL    HW185651   1.159   5.383   5.705
27918SOL    HW285652   1.063   5.499   5.712
27919SOL     OW85653   4.599   5.300  12.321
27919SOL    HW185654   4.536   5.292  12.392
27919SOL    HW285655   4.621   5.209  12.298
27920SOL     OW85656   7.347  12.842   0.492
27920SOL    HW185657   7.345  12.751   0.519
27920SOL    HW285658   7.262  12.857   0.450
27921SOL     OW85659  10.233   4.640   4.406
27921SOL    HW185660  10.288   4.683   4.341
27921SOL    HW285661  10.173   4.585   4.355
27922SOL     OW85662  10.623   2.749   8.117
27922SOL    HW185663  10.673   2.750   8.199
27922SOL    HW285664  10.687   2.772   8.050
27923SOL     OW85665  10.480  12.332   3.309
27923SOL    HW185666  10.470  12.426   3.296
27923SOL    HW285667  10.524  12.302   3.230
27924SOL     OW85668   7.836   5.075   0.122
27924SOL    HW185669   7.800   5.120   0.198
27924SOL    HW285670   7.892   5.141   0.080
27925SOL     OW85671   2.946   2.604  13.567
27925SOL    HW185672   2.912   2.668  13.630
27925SOL    HW285673   3.033   2.582  13.601
27926SOL     OW85674   7.943   5.685   6.451
27926SOL    HW185675   7.990   5.740   6.514
27926SOL    HW285676   7.999   5.685   6.373
27927SOL     OW85677   9.750   2.993   1.584
27927SOL    HW185678   9.676   3.000   1.644
27927SOL    HW285679   9.811   2.935   1.628
27928SOL     OW85680  11.365   5.382  12.510
27928SOL    HW185681  11.350   5.463  12.461
27928SOL    HW285682  11.460   5.376  12.517
27929SOL     OW85683   8.117   5.361  12.911
27929SOL    HW185684   8.163   5.438  12.945
27929SOL    HW285685   8.183   5.292  12.911
27930SOL     OW85686   9.143  10.154   9.817
27930SOL    HW185687   9.082  10.080   9.813
27930SOL    HW285688   9.089  10.229   9.792
27931SOL     OW85689   4.598  14.836   7.500
27931SOL    HW185690   4.615   0.046   7.471
27931SOL    HW285691   4.503  14.827   7.495
27932SOL     OW85692   4.477   7.011  13.872
27932SOL    HW185693   4.544   6.947  13.896
27932SOL    HW285694   4.403   6.989  13.928
27933SOL     OW85695  10.312   3.983  11.602
27933SOL    HW185696  10.289   4.061  11.653
27933SOL    HW285697  10.377   4.014  11.539
27934SOL     OW85698  10.053  12.563   0.957
27934SOL    HW185699  10.093  12.529   1.037
27934SOL    HW285700  10.026  12.486   0.908
27935SOL     OW85701   8.848   4.711  12.583
27935SOL    HW185702   8.919   4.730  12.522
27935SOL    HW285703   8.878   4.748  12.666
27936SOL     OW85704   0.026  10.399   9.132
27936SOL    HW185705   0.042  10.442   9.048
27936SOL    HW285706  14.825  10.438   9.163
27937SOL     OW85707   9.767  10.966  11.722
27937SOL    HW185708   9.833  10.901  11.746
27937SOL    HW285709   9.702  10.918  11.671
27938SOL     OW85710  10.290  13.176  11.192
27938SOL    HW185711  10.264  13.111  11.127
27938SOL    HW285712  10.264  13.260  11.154
27939SOL     OW85713   7.283   5.822   0.736
27939SOL    HW185714   7.205   5.793   0.783
27939SOL    HW285715   7.354   5.770   0.773
27940SOL     OW85716  14.557   2.019   1.293
27940SOL    HW185717  14.487   2.055   1.346
27940SOL    HW285718  14.518   1.943   1.250
27941SOL     OW85719  11.197   4.569   9.115
27941SOL    HW185720  11.191   4.663   9.136
27941SOL    HW285721  11.213   4.567   9.021
27942SOL     OW85722   0.965   1.139  11.768
27942SOL    HW185723   0.889   1.127  11.824
27942SOL    HW285724   0.930   1.178  11.688
27943SOL     OW85725  13.803   5.543   8.104
27943SOL    HW185726  13.778   5.630   8.072
27943SOL    HW285727  13.839   5.499   8.027
27944SOL     OW85728   9.503  12.573   0.849
27944SOL    HW185729   9.462  12.496   0.889
27944SOL    HW285730   9.587  12.582   0.895
27945SOL     OW85731  13.422   6.867   3.188
27945SOL    HW185732  13.508   6.826   3.199
27945SOL    HW285733  13.440   6.961   3.186
27946SOL     OW85734   8.117   6.324   0.871
27946SOL    HW185735   8.026   6.305   0.851
27946SOL    HW285736   8.120   6.420   0.881
27947SOL     OW85737  14.657  13.420   0.329
27947SOL    HW185738  14.729  13.462   0.282
27947SOL    HW285739  14.666  13.327   0.307
27948SOL     OW85740   2.611   0.251  13.125
27948SOL    HW185741   2.582   0.174  13.175
27948SOL    HW285742   2.589   0.230  13.035
27949SOL     OW85743   9.240   6.869  11.276
27949SOL    HW185744   9.234   6.777  11.303
27949SOL    HW285745   9.191   6.873  11.194
27950SOL     OW85746  11.664   3.637  10.618
27950SOL    HW185747  11.671   3.551  10.576
27950SOL    HW285748  11.752   3.654  10.653
27951SOL     OW85749  10.852   8.079   1.665
27951SOL    HW185750  10.805   8.064   1.583
27951SOL    HW285751  10.877   7.992   1.695
27952SOL     OW85752   1.409   9.844  13.722
27952SOL    HW185753   1.446   9.932  13.732
27952SOL    HW285754   1.330   9.856  13.669
27953SOL     OW85755   8.797  13.153  11.071
27953SOL    HW185756   8.820  13.246  11.076
27953SOL    HW285757   8.829  13.124  10.986
27954SOL     OW85758  13.406  10.108  10.246
27954SOL    HW185759  13.376  10.170  10.313
27954SOL    HW285760  13.460  10.045  10.295
27955SOL     OW85761   0.768   7.244   9.560
27955SOL    HW185762   0.739   7.188   9.488
27955SOL    HW285763   0.693   7.250   9.618
27956SOL     OW85764   5.251  10.244   2.458
27956SOL    HW185765   5.185  10.189   2.499
27956SOL    HW285766   5.227  10.334   2.482
27957SOL     OW85767   1.010   3.688  11.909
27957SOL    HW185768   1.042   3.598  11.914
27957SOL    HW285769   1.078   3.735  11.861
27958SOL     OW85770   5.325   1.802   0.725
27958SOL    HW185771   5.288   1.788   0.812
27958SOL    HW285772   5.381   1.880   0.734
27959SOL     OW85773   6.658   1.493   3.527
27959SOL    HW185774   6.710   1.416   3.548
27959SOL    HW285775   6.688   1.520   3.440
27960SOL     OW85776   4.969   3.127   2.700
27960SOL    HW185777   4.879   3.153   2.682
27960SOL    HW285778   4.961   3.051   2.757
27961SOL     OW85779  13.227   4.830  13.066
27961SOL    HW185780  13.160   4.781  13.114
27961SOL    HW285781  13.195   4.831  12.976
27962SOL     OW85782   1.208   7.906   1.780
27962SOL    HW185783   1.163   7.905   1.864
27962SOL    HW285784   1.250   7.820   1.774
27963SOL     OW85785   0.883   8.271   8.998
27963SOL    HW185786   0.851   8.204   9.058
27963SOL    HW285787   0.863   8.237   8.911
27964SOL     OW85788   3.162   5.160   4.277
27964SOL    HW185789   3.249   5.196   4.262
27964SOL    HW285790   3.103   5.223   4.234
27965SOL     OW85791   0.107   6.086  13.591
27965SOL    HW185792   0.100   6.078  13.686
27965SOL    HW285793   0.018   6.108  13.563
27966SOL     OW85794  13.610   5.006   3.096
27966SOL    HW185795  13.533   5.057   3.071
27966SOL    HW285796  13.616   5.017   3.191
27967SOL     OW85797   6.814  12.623  14.343
27967SOL    HW185798   6.801  12.598  14.251
27967SOL    HW285799   6.778  12.549  14.393
27968SOL     OW85800   9.453   2.961   6.918
27968SOL    HW185801   9.511   2.943   6.993
27968SOL    HW285802   9.365   2.953   6.954
27969SOL     OW85803   8.525  13.055   1.664
27969SOL    HW185804   8.511  13.134   1.715
27969SOL    HW285805   8.568  13.084   1.584
27970SOL     OW85806   1.852  14.374   1.983
27970SOL    HW185807   1.912  14.314   1.939
27970SOL    HW285808   1.905  14.414   2.052
27971SOL     OW85809   7.547   7.199   0.324
27971SOL    HW185810   7.545   7.180   0.231
27971SOL    HW285811   7.460   7.177   0.355
27972SOL     OW85812  14.281   4.516   4.561
27972SOL    HW185813  14.257   4.427   4.536
27972SOL    HW285814  14.208   4.546   4.615
27973SOL     OW85815   4.245  14.154   1.699
27973SOL    HW185816   4.213  14.238   1.667
27973SOL    HW285817   4.338  14.153   1.677
27974SOL     OW85818   1.608   5.105  13.553
27974SOL    HW185819   1.549   5.044  13.596
27974SOL    HW285820   1.643   5.159  13.624
27975SOL     OW85821   6.676  14.330   7.373
27975SOL    HW185822   6.734  14.405   7.359
27975SOL    HW285823   6.714  14.283   7.447
27976SOL     OW85824   5.549   5.059   7.982
27976SOL    HW185825   5.492   5.011   8.043
27976SOL    HW285826   5.489   5.119   7.937
27977SOL     OW85827  14.675   1.792   8.427
27977SOL    HW185828  14.687   1.707   8.384
27977SOL    HW285829  14.581   1.796   8.446
27978SOL     OW85830   5.607   1.838   6.764
27978SOL    HW185831   5.591   1.778   6.692
27978SOL    HW285832   5.671   1.901   6.730
27979SOL     OW85833   4.760   7.266   7.845
27979SOL    HW185834   4.754   7.230   7.933
27979SOL    HW285835   4.764   7.361   7.858
27980SOL     OW85836   4.239   9.882  11.915
27980SOL    HW185837   4.300   9.878  11.842
27980SOL    HW285838   4.219   9.790  11.934
27981SOL     OW85839   8.140  10.543   1.437
27981SOL    HW185840   8.116  10.588   1.518
27981SOL    HW285841   8.084  10.465   1.436
27982SOL     OW85842   5.934   6.020   2.731
27982SOL    HW185843   5.888   6.089   2.684
27982SOL    HW285844   5.874   5.994   2.801
27983SOL     OW85845  11.695  10.974  14.584
27983SOL    HW185846  11.665  10.988  14.674
27983SOL    HW285847  11.703  11.063  14.547
27984SOL     OW85848   7.623   8.286   7.274
27984SOL    HW185849   7.538   8.329   7.281
27984SOL    HW285850   7.684   8.356   7.252
27985SOL     OW85851  12.220   0.874   6.465
27985SOL    HW185852  12.235   0.926   6.545
27985SOL    HW285853  12.292   0.811   6.465
27986SOL     OW85854  12.643  14.798   7.843
27986SOL    HW185855  12.628  14.740   7.918
27986SOL    HW285856  12.558  14.839   7.828
27987SOL     OW85857  12.500   2.981   5.501
27987SOL    HW185858  12.470   3.023   5.421
27987SOL    HW285859  12.495   3.049   5.568
27988SOL     OW85860  14.129  13.986   5.837
27988SOL    HW185861  14.045  14.020   5.809
27988SOL    HW285862  14.189  14.008   5.766
27989SOL     OW85863   4.602   3.220  13.900
27989SOL    HW185864   4.532   3.184  13.845
27989SOL    HW285865   4.670   3.246  13.838
27990SOL     OW85866   7.068  13.184  10.316
27990SOL    HW185867   7.155  13.184  10.355
27990SOL    HW285868   7.071  13.117  10.248
27991SOL     OW85869   8.446   3.145   1.482
27991SOL    HW185870   8.405   3.150   1.569
27991SOL    HW285871   8.373   3.132   1.422
27992SOL     OW85872   9.578   5.966  12.191
27992SOL    HW185873   9.491   5.930  12.172
27992SOL    HW285874   9.569   6.060  12.178
27993SOL     OW85875   3.866   2.375  12.123
27993SOL    HW185876   3.814   2.322  12.062
27993SOL    HW285877   3.862   2.326  12.206
27994SOL     OW85878   1.420   8.933   9.115
27994SOL    HW185879   1.403   9.023   9.141
27994SOL    HW285880   1.498   8.938   9.059
27995SOL     OW85881   6.804   5.217   7.482
27995SOL    HW185882   6.796   5.207   7.387
27995SOL    HW285883   6.824   5.129   7.513
27996SOL     OW85884   9.539   3.112   1.021
27996SOL    HW185885   9.615   3.157   1.057
27996SOL    HW285886   9.501   3.173   0.958
27997SOL     OW85887   8.772   3.606   9.388
27997SOL    HW185888   8.774   3.515   9.417
27997SOL    HW285889   8.859   3.623   9.353
27998SOL     OW85890   8.205   1.459  14.646
27998SOL    HW185891   8.244   1.544  14.626
27998SOL    HW285892   8.145   1.443  14.574
27999SOL     OW85893   7.238   1.793   0.228
27999SOL    HW185894   7.165   1.749   0.184
27999SOL    HW285895   7.295   1.822   0.156
28000SOL     OW85896   6.337   5.713  12.103
28000SOL    HW185897   6.418   5.738  12.059
28000SOL    HW285898   6.314   5.629  12.064
28001SOL     OW85899  13.677   0.713  12.263
28001SOL    HW185900  13.605   0.655  12.286
28001SOL    HW285901  13.635   0.799  12.250
28002SOL     OW85902   4.132   2.300   9.490
28002SOL    HW185903   4.197   2.234   9.468
28002SOL    HW285904   4.047   2.257   9.477
28003SOL     OW85905  13.306  14.285   1.863
28003SOL    HW185906  13.299  14.200   1.908
28003SOL    HW285907  13.399  14.294   1.845
28004SOL     OW85908   3.358   6.959  13.986
28004SOL    HW185909   3.351   6.864  13.994
28004SOL    HW285910   3.288   6.993  14.040
28005SOL     OW85911  10.465   6.386   1.680
28005SOL    HW185912  10.464   6.451   1.751
28005SOL    HW285913  10.541   6.330   1.700
28006SOL     OW85914  14.373   5.444   2.932
28006SOL    HW185915  14.405   5.353   2.935
28006SOL    HW285916  14.362   5.468   3.024
28007SOL     OW85917  10.796   2.875   7.908
28007SOL    HW185918  10.840   2.843   7.830
28007SOL    HW285919  10.866   2.904   7.966
28008SOL     OW85920  11.679   4.691   2.559
28008SOL    HW185921  11.628   4.610   2.545
28008SOL    HW285922  11.664   4.713   2.651
28009SOL     OW85923   9.304  12.159  13.568
28009SOL    HW185924   9.231  12.115  13.611
28009SOL    HW285925   9.265  12.199  13.490
28010SOL     OW85926   8.319  11.266   4.717
28010SOL    HW185927   8.389  11.206   4.745
28010SOL    HW285928   8.262  11.274   4.793
28011SOL     OW85929   9.649   4.661   1.500
28011SOL    HW185930   9.744   4.649   1.510
28011SOL    HW285931   9.638   4.754   1.483
28012SOL     OW85932   3.731   3.483  13.428
28012SOL    HW185933   3.817   3.468  13.467
28012SOL    HW285934   3.692   3.553  13.480
28013SOL     OW85935   9.146   9.450  12.712
28013SOL    HW185936   9.229   9.496  12.725
28013SOL    HW285937   9.116   9.478  12.626
28014SOL     OW85938   2.778   1.607  14.088
28014SOL    HW185939   2.739   1.578  14.005
28014SOL    HW285940   2.727   1.562  14.155
28015SOL     OW85941   5.543  14.431  13.020
28015SOL    HW185942   5.539  14.377  12.941
28015SOL    HW285943   5.519  14.519  12.991
28016SOL     OW85944   3.154  13.375  14.020
28016SOL    HW185945   3.144  13.468  14.000
28016SOL    HW285946   3.179  13.373  14.112
28017SOL     OW85947  13.359   2.941   7.649
28017SOL    HW185948  13.272   2.967   7.619
28017SOL    HW285949  13.366   2.975   7.738
28018SOL     OW85950   3.418   1.539  10.646
28018SOL    HW185951   3.484   1.481  10.606
28018SOL    HW285952   3.383   1.488  10.719
28019SOL     OW85953  10.302   3.499   5.628
28019SOL    HW185954  10.356   3.420   5.639
28019SOL    HW285955  10.279   3.501   5.536
28020SOL     OW85956   8.401  12.329   1.296
28020SOL    HW185957   8.472  12.376   1.339
28020SOL    HW285958   8.396  12.245   1.342
28021SOL     OW85959   4.586  13.586   0.174
28021SOL    HW185960   4.582  13.675   0.140
28021SOL    HW285961   4.508  13.577   0.229
28022SOL     OW85962   4.450  10.236   8.588
28022SOL    HW185963   4.467  10.259   8.496
28022SOL    HW285964   4.396  10.308   8.621
28023SOL     OW85965   3.586   2.937  10.229
28023SOL    HW185966   3.653   2.976  10.173
28023SOL    HW285967   3.605   2.843  10.228
28024SOL     OW85968   5.595   9.560   8.669
28024SOL    HW185969   5.535   9.486   8.658
28024SOL    HW285970   5.679   9.520   8.693
28025SOL     OW85971  11.708   5.222   0.405
28025SOL    HW185972  11.748   5.195   0.322
28025SOL    HW285973  11.617   5.243   0.381
28026SOL     OW85974   1.371  10.148   3.181
28026SOL    HW185975   1.300  10.142   3.245
28026SOL    HW285976   1.326  10.149   3.096
28027SOL     OW85977   3.030   5.233  13.583
28027SOL    HW185978   3.005   5.284  13.506
28027SOL    HW285979   3.125   5.245  13.590
28028SOL     OW85980   9.724   0.396  13.326
28028SOL    HW185981   9.654   0.336  13.299
28028SOL    HW285982   9.802   0.342  13.330
28029SOL     OW85983  12.906  10.819   0.390
28029SOL    HW185984  12.873  10.764   0.319
28029SOL    HW285985  12.981  10.865   0.352
28030SOL     OW85986   6.693  13.169   4.144
28030SOL    HW185987   6.718  13.219   4.067
28030SOL    HW285988   6.616  13.215   4.179
28031SOL     OW85989  11.656  14.091   8.001
28031SOL    HW185990  11.656  14.042   7.919
28031SOL    HW285991  11.689  14.028   8.066
28032SOL     OW85992  10.473   7.726   0.973
28032SOL    HW185993  10.543   7.660   0.968
28032SOL    HW285994  10.487   7.781   0.896
28033SOL     OW85995  12.234   6.140   5.209
28033SOL    HW185996  12.189   6.206   5.261
28033SOL    HW285997  12.317   6.126   5.254
28034SOL     OW85998   5.218   8.391   3.871
28034SOL    HW185999   5.177   8.392   3.785
28034SOL    HW286000   5.252   8.479   3.883
28035SOL     OW86001   5.037  13.405  11.455
28035SOL    HW186002   5.060  13.478  11.397
28035SOL    HW286003   5.112  13.346  11.450
28036SOL     OW86004   1.553   8.330   9.362
28036SOL    HW186005   1.588   8.291   9.282
28036SOL    HW286006   1.610   8.406   9.378
28037SOL     OW86007  12.819   9.470  13.775
28037SOL    HW186008  12.848   9.507  13.692
28037SOL    HW286009  12.881   9.505  13.839
28038SOL     OW86010  11.600  14.866   9.866
28038SOL    HW186011  11.587  14.804   9.937
28038SOL    HW286012  11.574  14.819   9.787
28039SOL     OW86013  14.456  13.761   1.467
28039SOL    HW186014  14.543  13.770   1.507
28039SOL    HW286015  14.408  13.838   1.498
28040SOL     OW86016   9.934  13.378   4.350
28040SOL    HW186017   9.882  13.387   4.430
28040SOL    HW286018   9.889  13.311   4.299
28041SOL     OW86019   4.730  10.869   8.185
28041SOL    HW186020   4.766  10.872   8.273
28041SOL    HW286021   4.693  10.956   8.171
28042SOL     OW86022   9.157   5.186  12.200
28042SOL    HW186023   9.160   5.109  12.144
28042SOL    HW286024   9.064   5.204  12.213
28043SOL     OW86025  12.315   0.739  14.320
28043SOL    HW186026  12.357   0.825  14.314
28043SOL    HW286027  12.324   0.715  14.412
28044SOL     OW86028  14.493   1.572   9.868
28044SOL    HW186029  14.449   1.570   9.953
28044SOL    HW286030  14.585   1.554   9.889
28045SOL     OW86031   8.761   9.183  12.251
28045SOL    HW186032   8.782   9.270  12.216
28045SOL    HW286033   8.845   9.138  12.257
28046SOL     OW86034  10.969  12.286   8.687
28046SOL    HW186035  11.023  12.362   8.710
28046SOL    HW286036  10.996  12.263   8.598
28047SOL     OW86037   9.808   8.311   3.580
28047SOL    HW186038   9.788   8.388   3.634
28047SOL    HW286039   9.728   8.259   3.582
28048SOL     OW86040   3.824   0.444  14.270
28048SOL    HW186041   3.800   0.354  14.292
28048SOL    HW286042   3.756   0.497  14.311
28049SOL     OW86043  14.381  10.541   7.169
28049SOL    HW186044  14.371  10.601   7.095
28049SOL    HW286045  14.307  10.481   7.161
28050SOL     OW86046  11.911   2.818  14.101
28050SOL    HW186047  11.985   2.843  14.157
28050SOL    HW286048  11.849   2.776  14.160
28051SOL     OW86049  10.878  10.038   3.466
28051SOL    HW186050  10.849  10.090   3.392
28051SOL    HW286051  10.965  10.006   3.441
28052SOL     OW86052  13.568   2.659   7.524
28052SOL    HW186053  13.508   2.592   7.491
28052SOL    HW286054  13.606   2.698   7.446
28053SOL     OW86055   9.546  14.808  10.390
28053SOL    HW186056   9.638  14.827  10.408
28053SOL    HW286057   9.516   0.004  10.340
28054SOL     OW86058   7.281   8.860  10.275
28054SOL    HW186059   7.316   8.912  10.203
28054SOL    HW286060   7.358   8.829  10.323
28055SOL     OW86061   6.347   6.219   8.694
28055SOL    HW186062   6.270   6.216   8.637
28055SOL    HW286063   6.412   6.267   8.643
28056SOL     OW86064   0.578  12.925   4.022
28056SOL    HW186065   0.559  12.832   4.028
28056SOL    HW286066   0.576  12.956   4.113
28057SOL     OW86067   7.940  11.246  10.501
28057SOL    HW186068   7.871  11.309  10.521
28057SOL    HW286069   7.974  11.220  10.586
28058SOL     OW86070   6.304  14.340   3.920
28058SOL    HW186071   6.352  14.306   3.844
28058SOL    HW286072   6.351  14.303   3.996
28059SOL     OW86073   0.478  10.713   3.664
28059SOL    HW186074   0.400  10.694   3.717
28059SOL    HW286075   0.470  10.806   3.643
28060SOL     OW86076   1.488   0.510  13.414
28060SOL    HW186077   1.529   0.460  13.485
28060SOL    HW286078   1.467   0.595  13.453
28061SOL     OW86079   6.690   5.979   6.817
28061SOL    HW186080   6.629   5.972   6.743
28061SOL    HW286081   6.633   5.992   6.893
28062SOL     OW86082  10.411   2.111   2.646
28062SOL    HW186083  10.420   2.188   2.590
28062SOL    HW286084  10.327   2.122   2.690
28063SOL     OW86085   0.149   6.140  10.782
28063SOL    HW186086   0.217   6.094  10.732
28063SOL    HW286087   0.198   6.192  10.846
28064SOL     OW86088   5.161  10.198   0.087
28064SOL    HW186089   5.115  10.118   0.112
28064SOL    HW286090   5.101  10.269   0.108
28065SOL     OW86091   5.045   9.982   4.599
28065SOL    HW186092   5.115  10.047   4.601
28065SOL    HW286093   5.061   9.932   4.519
28066SOL     OW86094   3.601   5.094  11.646
28066SOL    HW186095   3.663   5.160  11.679
28066SOL    HW286096   3.605   5.104  11.551
28067SOL     OW86097   5.377  10.186   5.685
28067SOL    HW186098   5.419  10.104   5.712
28067SOL    HW286099   5.300  10.192   5.743
28068SOL     OW86100   4.682   5.356   3.670
28068SOL    HW186101   4.691   5.265   3.641
28068SOL    HW286102   4.685   5.407   3.589
28069SOL     OW86103  13.951   7.426   4.764
28069SOL    HW186104  13.902   7.450   4.685
28069SOL    HW286105  13.883   7.410   4.830
28070SOL     OW86106  12.852  12.125   8.549
28070SOL    HW186107  12.810  12.182   8.613
28070SOL    HW286108  12.898  12.060   8.602
28071SOL     OW86109   9.832   5.748   1.200
28071SOL    HW186110   9.843   5.782   1.289
28071SOL    HW286111   9.841   5.825   1.144
28072SOL     OW86112   2.413   0.768   1.346
28072SOL    HW186113   2.340   0.761   1.285
28072SOL    HW286114   2.450   0.854   1.331
28073SOL     OW86115  13.659   3.311   2.794
28073SOL    HW186116  13.687   3.227   2.830
28073SOL    HW286117  13.585   3.337   2.848
28074SOL     OW86118   7.191  11.025  11.653
28074SOL    HW186119   7.105  10.984  11.650
28074SOL    HW286120   7.180  11.100  11.711
28075SOL     OW86121   1.726   4.221  10.005
28075SOL    HW186122   1.810   4.194  10.043
28075SOL    HW286123   1.689   4.282  10.069
28076SOL     OW86124   5.078  14.642  12.108
28076SOL    HW186125   5.065  14.655  12.203
28076SOL    HW286126   5.173  14.644  12.097
28077SOL     OW86127   1.306   3.919   1.645
28077SOL    HW186128   1.315   3.999   1.593
28077SOL    HW286129   1.292   3.850   1.580
28078SOL     OW86130   7.002   8.408   5.531
28078SOL    HW186131   6.934   8.421   5.597
28078SOL    HW286132   7.021   8.314   5.534
28079SOL     OW86133   8.927   4.897  10.362
28079SOL    HW186134   8.878   4.863  10.287
28079SOL    HW286135   8.863   4.902  10.432
28080SOL     OW86136   0.082  12.490   0.562
28080SOL    HW186137   0.146  12.483   0.634
28080SOL    HW286138   0.135  12.512   0.485
28081SOL     OW86139   5.933  11.036  12.320
28081SOL    HW186140   5.919  11.004  12.409
28081SOL    HW286141   5.856  11.091  12.302
28082SOL     OW86142   8.016   2.037   4.053
28082SOL    HW186143   7.943   2.020   4.112
28082SOL    HW286144   8.004   2.127   4.025
28083SOL     OW86145   7.023   1.987   7.069
28083SOL    HW186146   7.051   1.932   7.142
28083SOL    HW286147   7.062   2.072   7.086
28084SOL     OW86148   0.645   2.389  11.235
28084SOL    HW186149   0.615   2.309  11.276
28084SOL    HW286150   0.612   2.385  11.146
28085SOL     OW86151   7.138  14.792   5.282
28085SOL    HW186152   7.117  14.726   5.216
28085SOL    HW286153   7.063  14.790   5.342
28086SOL     OW86154   5.254  11.172   4.973
28086SOL    HW186155   5.240  11.162   5.067
28086SOL    HW286156   5.348  11.182   4.963
28087SOL     OW86157   6.894   9.230   0.311
28087SOL    HW186158   6.975   9.191   0.278
28087SOL    HW286159   6.883   9.193   0.398
28088SOL     OW86160  10.603  12.241   5.673
28088SOL    HW186161  10.657  12.162   5.670
28088SOL    HW286162  10.513  12.208   5.679
28089SOL     OW86163  14.374   1.419   2.447
28089SOL    HW186164  14.358   1.410   2.541
28089SOL    HW286165  14.299   1.469   2.414
28090SOL     OW86166  13.329  14.674  14.108
28090SOL    HW186167  13.356  14.724  14.185
28090SOL    HW286168  13.235  14.662  14.118
28091SOL     OW86169  12.961   2.788  13.330
28091SOL    HW186170  12.996   2.703  13.356
28091SOL    HW286171  12.895   2.808  13.396
28092SOL     OW86172  11.727   5.587  10.197
28092SOL    HW186173  11.786   5.657  10.167
28092SOL    HW286174  11.642   5.631  10.207
28093SOL     OW86175  13.953   8.334   7.930
28093SOL    HW186176  13.997   8.333   7.845
28093SOL    HW286177  13.971   8.248   7.967
28094SOL     OW86178   1.167  14.724   6.361
28094SOL    HW186179   1.087  14.774   6.351
28094SOL    HW286180   1.238  14.788   6.349
28095SOL     OW86181   2.689   9.328   8.169
28095SOL    HW186182   2.652   9.289   8.090
28095SOL    HW286183   2.632   9.403   8.188
28096SOL     OW86184   2.702   0.862  13.990
28096SOL    HW186185   2.668   0.776  14.011
28096SOL    HW286186   2.637   0.899  13.930
28097SOL     OW86187   7.849   2.538   0.600
28097SOL    HW186188   7.770   2.490   0.579
28097SOL    HW286189   7.918   2.496   0.548
28098SOL     OW86190   7.605   1.394  12.626
28098SOL    HW186191   7.699   1.412  12.636
28098SOL    HW286192   7.587   1.412  12.534
28099SOL     OW86193  10.812   2.915   0.783
28099SOL    HW186194  10.851   2.858   0.718
28099SOL    HW286195  10.861   2.997   0.777
28100SOL     OW86196  12.482  11.498   2.262
28100SOL    HW186197  12.562  11.525   2.308
28100SOL    HW286198  12.509  11.424   2.208
28101SOL     OW86199  12.399   7.043   3.625
28101SOL    HW186200  12.416   6.973   3.563
28101SOL    HW286201  12.482   7.056   3.671
28102SOL     OW86202  12.451   0.341  14.507
28102SOL    HW186203  12.467   0.337  14.413
28102SOL    HW286204  12.415   0.256  14.530
28103SOL     OW86205   6.938  13.458   5.934
28103SOL    HW186206   6.864  13.440   5.876
28103SOL    HW286207   6.929  13.550   5.958
28104SOL     OW86208   3.545  12.991   6.174
28104SOL    HW186209   3.476  12.940   6.131
28104SOL    HW286210   3.545  12.959   6.264
28105SOL     OW86211   1.425   9.638  14.130
28105SOL    HW186212   1.375   9.617  14.052
28105SOL    HW286213   1.372   9.604  14.203
28106SOL     OW86214  10.418   3.478  14.878
28106SOL    HW186215  10.456   3.396   0.028
28106SOL    HW286216  10.384   3.520   0.076
28107SOL     OW86217   5.044  14.747   9.307
28107SOL    HW186218   4.960  14.709   9.281
28107SOL    HW286219   5.047  14.735   9.402
28108SOL     OW86220   0.341   0.894   2.931
28108SOL    HW186221   0.321   0.979   2.970
28108SOL    HW286222   0.411   0.913   2.869
28109SOL     OW86223  12.781  10.099   0.533
28109SOL    HW186224  12.828  10.167   0.485
28109SOL    HW286225  12.777  10.130   0.623
28110SOL     OW86226  11.598   4.979   4.007
28110SOL    HW186227  11.654   4.961   3.932
28110SOL    HW286228  11.655   5.025   4.069
28111SOL     OW86229   7.338  13.018   0.894
28111SOL    HW186230   7.421  13.051   0.928
28111SOL    HW286231   7.330  13.059   0.807
28112SOL     OW86232  14.562   9.965   1.435
28112SOL    HW186233  14.653   9.971   1.406
28112SOL    HW286234  14.549  10.043   1.489
28113SOL     OW86235  10.409  14.450   4.847
28113SOL    HW186236  10.369  14.513   4.786
28113SOL    HW286237  10.335  14.410   4.892
28114SOL     OW86238   6.027  13.231  11.125
28114SOL    HW186239   6.049  13.279  11.205
28114SOL    HW286240   6.004  13.143  11.155
28115SOL     OW86241  11.930  12.761  12.826
28115SOL    HW186242  11.968  12.837  12.782
28115SOL    HW286243  11.863  12.729  12.766
28116SOL     OW86244   4.885   7.781  14.338
28116SOL    HW186245   4.855   7.698  14.375
28116SOL    HW286246   4.980   7.781  14.351
28117SOL     OW86247  10.488   2.789  11.928
28117SOL    HW186248  10.460   2.880  11.932
28117SOL    HW286249  10.413   2.742  11.892
28118SOL     OW86250   9.625   9.884   1.145
28118SOL    HW186251   9.707   9.900   1.191
28118SOL    HW286252   9.563   9.945   1.185
28119SOL     OW86253   4.117   0.020   8.011
28119SOL    HW186254   4.138   0.087   7.946
28119SOL    HW286255   4.177   0.036   8.083
28120SOL     OW86256  13.549   9.571   8.792
28120SOL    HW186257  13.528   9.482   8.766
28120SOL    HW286258  13.464   9.616   8.792
28121SOL     OW86259   5.756  11.162   5.974
28121SOL    HW186260   5.808  11.208   5.909
28121SOL    HW286261   5.680  11.218   5.989
28122SOL     OW86262   2.002   0.917  14.544
28122SOL    HW186263   2.001   0.823  14.559
28122SOL    HW286264   1.916   0.947  14.574
28123SOL     OW86265   2.576   3.412  14.072
28123SOL    HW186266   2.593   3.476  14.141
28123SOL    HW286267   2.578   3.327  14.115
28124SOL     OW86268   8.702  10.768  11.246
28124SOL    HW186269   8.625  10.715  11.227
28124SOL    HW286270   8.766  10.706  11.281
28125SOL     OW86271   5.760   3.580   0.868
28125SOL    HW186272   5.734   3.537   0.950
28125SOL    HW286273   5.748   3.674   0.886
28126SOL     OW86274   4.247   9.375   5.645
28126SOL    HW186275   4.191   9.431   5.700
28126SOL    HW286276   4.268   9.300   5.701
28127SOL     OW86277   0.178   0.179  14.192
28127SOL    HW186278   0.259   0.223  14.220
28127SOL    HW286279   0.115   0.198  14.262
28128SOL     OW86280   1.571  13.866   9.607
28128SOL    HW186281   1.603  13.955   9.589
28128SOL    HW286282   1.643  13.823   9.652
28129SOL     OW86283  13.619   4.019   8.948
28129SOL    HW186284  13.536   3.979   8.975
28129SOL    HW286285  13.631   3.990   8.857
28130SOL     OW86286   0.524  11.915   4.822
28130SOL    HW186287   0.445  11.879   4.781
28130SOL    HW286288   0.521  11.883   4.912
28131SOL     OW86289  13.933  10.852  14.565
28131SOL    HW186290  13.927  10.762  14.534
28131SOL    HW286291  13.854  10.895  14.532
28132SOL     OW86292   1.963  14.255  12.288
28132SOL    HW186293   1.951  14.264  12.383
28132SOL    HW286294   2.008  14.172  12.278
28133SOL     OW86295   5.858   1.992   3.092
28133SOL    HW186296   5.936   1.993   3.148
28133SOL    HW286297   5.810   2.071   3.116
28134SOL     OW86298   4.433   5.523   8.879
28134SOL    HW186299   4.480   5.601   8.908
28134SOL    HW286300   4.366   5.509   8.947
28135SOL     OW86301  10.428   1.389   3.035
28135SOL    HW186302  10.452   1.345   2.954
28135SOL    HW286303  10.374   1.463   3.008
28136SOL     OW86304  14.206   2.877   4.362
28136SOL    HW186305  14.193   2.784   4.341
28136SOL    HW286306  14.288   2.900   4.320
28137SOL     OW86307   1.127   8.188  14.662
28137SOL    HW186308   1.088   8.206  14.576
28137SOL    HW286309   1.128   8.272  14.706
28138SOL     OW86310  10.407   2.003   2.960
28138SOL    HW186311  10.374   1.952   2.886
28138SOL    HW286312  10.356   1.974   3.035
28139SOL     OW86313   0.117   3.310  14.130
28139SOL    HW186314   0.203   3.312  14.089
28139SOL    HW286315   0.109   3.395  14.174
28140SOL     OW86316   8.930   4.316   7.228
28140SOL    HW186317   8.906   4.372   7.154
28140SOL    HW286318   8.875   4.239   7.218
28141SOL     OW86319  14.275   1.034  13.411
28141SOL    HW186320  14.324   1.107  13.448
28141SOL    HW286321  14.327   0.957  13.432
28142SOL     OW86322   5.470  13.938  14.047
28142SOL    HW186323   5.522  13.861  14.027
28142SOL    HW286324   5.527  14.012  14.024
28143SOL     OW86325   8.875   5.408   6.405
28143SOL    HW186326   8.909   5.488   6.444
28143SOL    HW286327   8.800   5.437   6.352
28144SOL     OW86328   3.988   9.760   5.274
28144SOL    HW186329   3.932   9.683   5.290
28144SOL    HW286330   3.975   9.815   5.350
28145SOL     OW86331   5.260   8.761   5.675
28145SOL    HW186332   5.177   8.792   5.712
28145SOL    HW286333   5.248   8.667   5.662
28146SOL     OW86334  12.525  14.211   3.121
28146SOL    HW186335  12.586  14.148   3.159
28146SOL    HW286336  12.448  14.208   3.178
28147SOL     OW86337   6.256   4.342   1.593
28147SOL    HW186338   6.268   4.253   1.561
28147SOL    HW286339   6.161   4.357   1.587
28148SOL     OW86340   5.058   0.006  13.198
28148SOL    HW186341   5.035  14.817  13.260
28148SOL    HW286342   5.037   0.087  13.244
28149SOL     OW86343  13.692   0.957   6.507
28149SOL    HW186344  13.756   0.886   6.512
28149SOL    HW286345  13.617   0.918   6.462
28150SOL     OW86346   9.041   0.997  12.573
28150SOL    HW186347   9.119   1.014  12.521
28150SOL    HW286348   8.993   0.931  12.523
28151SOL     OW86349   2.178   2.083   5.278
28151SOL    HW186350   2.176   2.058   5.370
28151SOL    HW286351   2.271   2.079   5.254
28152SOL     OW86352  14.464  14.046  12.314
28152SOL    HW186353  14.510  14.094  12.245
28152SOL    HW286354  14.429  13.969  12.270
28153SOL     OW86355   7.912   0.906   0.372
28153SOL    HW186356   7.965   0.882   0.296
28153SOL    HW286357   7.973   0.899   0.446
28154SOL     OW86358  14.821   2.371   9.014
28154SOL    HW186359  14.746   2.347   9.068
28154SOL    HW286360  14.877   2.423   9.071
28155SOL     OW86361   9.259   3.602   9.894
28155SOL    HW186362   9.303   3.573   9.973
28155SOL    HW286363   9.330   3.622   9.833
28156SOL     OW86364   8.452   0.909   8.767
28156SOL    HW186365   8.392   0.835   8.755
28156SOL    HW286366   8.405   0.984   8.731
28157SOL     OW86367  14.536   4.785   8.622
28157SOL    HW186368  14.627   4.756   8.630
28157SOL    HW286369  14.504   4.786   8.712
28158SOL     OW86370   7.591   7.297  10.815
28158SOL    HW186371   7.529   7.370  10.815
28158SOL    HW286372   7.629   7.297  10.903
28159SOL     OW86373   1.179  10.597   4.074
28159SOL    HW186374   1.215  10.664   4.016
28159SOL    HW286375   1.255  10.563   4.122
28160SOL     OW86376  11.083   7.042   1.435
28160SOL    HW186377  11.115   7.086   1.513
28160SOL    HW286378  11.125   6.955   1.438
28161SOL     OW86379   8.093   3.252   3.508
28161SOL    HW186380   8.123   3.309   3.580
28161SOL    HW286381   8.009   3.218   3.538
28162SOL     OW86382   2.159  10.198   2.634
28162SOL    HW186383   2.175  10.104   2.632
28162SOL    HW286384   2.082  10.207   2.690
28163SOL     OW86385   6.852  10.906   5.596
28163SOL    HW186386   6.880  10.883   5.508
28163SOL    HW286387   6.774  10.960   5.584
28164SOL     OW86388  12.172  14.138   5.814
28164SOL    HW186389  12.105  14.198   5.780
28164SOL    HW286390  12.123  14.061   5.844
28165SOL     OW86391   5.724  12.195   4.247
28165SOL    HW186392   5.762  12.203   4.159
28165SOL    HW286393   5.751  12.109   4.277
28166SOL     OW86394   8.995  12.106   9.480
28166SOL    HW186395   9.051  12.183   9.490
28166SOL    HW286396   8.919  12.124   9.535
28167SOL     OW86397   3.348   8.636  10.049
28167SOL    HW186398   3.335   8.569   9.982
28167SOL    HW286399   3.288   8.611  10.119
28168SOL     OW86400   7.216   8.326   1.865
28168SOL    HW186401   7.291   8.352   1.812
28168SOL    HW286402   7.249   8.253   1.918
28169SOL     OW86403   5.847  10.569  12.126
28169SOL    HW186404   5.850  10.586  12.221
28169SOL    HW286405   5.847  10.657  12.087
28170SOL     OW86406   8.418   1.696   6.616
28170SOL    HW186407   8.387   1.778   6.578
28170SOL    HW286408   8.467   1.722   6.694
28171SOL     OW86409   5.843  12.750  10.791
28171SOL    HW186410   5.893  12.763  10.872
28171SOL    HW286411   5.807  12.661  10.799
28172SOL     OW86412   4.874   8.142   2.515
28172SOL    HW186413   4.869   8.138   2.419
28172SOL    HW286414   4.828   8.064   2.545
28173SOL     OW86415   7.952   1.694  11.527
28173SOL    HW186416   7.965   1.784  11.497
28173SOL    HW286417   7.970   1.640  11.449
28174SOL     OW86418   8.968   0.468   7.846
28174SOL    HW186419   8.929   0.503   7.926
28174SOL    HW286420   9.059   0.451   7.870
28175SOL     OW86421   5.891   8.232   4.477
28175SOL    HW186422   5.816   8.223   4.417
28175SOL    HW286423   5.967   8.234   4.419
28176SOL     OW86424  14.093  12.084   7.085
28176SOL    HW186425  14.148  12.084   7.163
28176SOL    HW286426  14.087  12.177   7.060
28177SOL     OW86427  10.100   8.831   2.540
28177SOL    HW186428  10.184   8.877   2.541
28177SOL    HW286429  10.067   8.843   2.452
28178SOL     OW86430  11.602  11.747  12.634
28178SOL    HW186431  11.510  11.721  12.635
28178SOL    HW286432  11.650  11.665  12.642
28179SOL     OW86433   3.678   9.214   6.352
28179SOL    HW186434   3.729   9.159   6.292
28179SOL    HW286435   3.702   9.304   6.330
28180SOL     OW86436   5.078  14.448   3.792
28180SOL    HW186437   5.033  14.509   3.850
28180SOL    HW286438   5.137  14.503   3.741
28181SOL     OW86439   9.049   5.835   9.948
28181SOL    HW186440   9.132   5.860   9.908
28181SOL    HW286441   9.047   5.882  10.032
28182SOL     OW86442   1.760  12.278  11.172
28182SOL    HW186443   1.828  12.338  11.141
28182SOL    HW286444   1.726  12.237  11.093
28183SOL     OW86445  12.994   3.798  10.409
28183SOL    HW186446  12.902   3.813  10.389
28183SOL    HW286447  12.995   3.712  10.451
28184SOL     OW86448   7.782   7.194   4.709
28184SOL    HW186449   7.712   7.259   4.700
28184SOL    HW286450   7.833   7.203   4.628
28185SOL     OW86451   9.218   4.637  13.581
28185SOL    HW186452   9.221   4.577  13.655
28185SOL    HW286453   9.224   4.580  13.504
28186SOL     OW86454  10.260  13.482   1.818
28186SOL    HW186455  10.325  13.453   1.754
28186SOL    HW286456  10.180  13.494   1.767
28187SOL     OW86457   7.650   9.306   9.695
28187SOL    HW186458   7.583   9.309   9.764
28187SOL    HW286459   7.613   9.247   9.629
28188SOL     OW86460  13.234  12.029   9.865
28188SOL    HW186461  13.259  11.992   9.780
28188SOL    HW286462  13.162  11.973   9.895
28189SOL     OW86463   3.181  11.705   2.218
28189SOL    HW186464   3.219  11.751   2.144
28189SOL    HW286465   3.219  11.747   2.295
28190SOL     OW86466   8.648   7.872  12.643
28190SOL    HW186467   8.724   7.918  12.680
28190SOL    HW286468   8.600   7.840  12.719
28191SOL     OW86469  14.381  12.262   4.473
28191SOL    HW186470  14.305  12.274   4.530
28191SOL    HW286471  14.453  12.305   4.520
28192SOL     OW86472   8.975   7.505   8.090
28192SOL    HW186473   8.917   7.501   8.014
28192SOL    HW286474   9.046   7.563   8.063
28193SOL     OW86475  10.867   0.721   6.193
28193SOL    HW186476  10.775   0.723   6.218
28193SOL    HW286477  10.908   0.790   6.245
28194SOL     OW86478  13.487   1.028  14.594
28194SOL    HW186479  13.481   0.969  14.669
28194SOL    HW286480  13.480   1.115  14.632
28195SOL     OW86481  10.010   1.126   7.901
28195SOL    HW186482  10.008   1.036   7.932
28195SOL    HW286483  10.103   1.147   7.894
28196SOL     OW86484   4.766  11.614   7.731
28196SOL    HW186485   4.733  11.565   7.807
28196SOL    HW286486   4.690  11.625   7.674
28197SOL     OW86487   8.980   2.675  11.571
28197SOL    HW186488   8.924   2.737  11.526
28197SOL    HW286489   8.971   2.697  11.664
28198SOL     OW86490   7.395   7.324   8.236
28198SOL    HW186491   7.453   7.352   8.308
28198SOL    HW286492   7.407   7.230   8.231
28199SOL     OW86493   3.892   3.690   3.861
28199SOL    HW186494   3.838   3.634   3.805
28199SOL    HW286495   3.980   3.655   3.852
28200SOL     OW86496   5.677   2.678  14.497
28200SOL    HW186497   5.688   2.771  14.480
28200SOL    HW286498   5.669   2.638  14.410
28201SOL     OW86499  14.868   2.438   6.084
28201SOL    HW186500  14.797   2.483   6.129
28201SOL    HW286501   0.067   2.480   6.117
28202SOL     OW86502   2.243   8.383   3.713
28202SOL    HW186503   2.300   8.442   3.764
28202SOL    HW286504   2.246   8.418   3.624
28203SOL     OW86505   9.077   9.680   9.732
28203SOL    HW186506   9.038   9.593   9.744
28203SOL    HW286507   9.172   9.665   9.737
28204SOL     OW86508   6.202   9.519  10.571
28204SOL    HW186509   6.243   9.592  10.525
28204SOL    HW286510   6.120   9.556  10.605
28205SOL     OW86511   5.012  11.566  10.367
28205SOL    HW186512   4.939  11.582  10.426
28205SOL    HW286513   5.018  11.471  10.361
28206SOL     OW86514   3.405  10.391   2.290
28206SOL    HW186515   3.432  10.366   2.202
28206SOL    HW286516   3.373  10.480   2.282
28207SOL     OW86517  13.516   4.246  12.481
28207SOL    HW186518  13.502   4.322  12.538
28207SOL    HW286519  13.458   4.261  12.407
28208SOL     OW86520  14.787   4.644   9.782
28208SOL    HW186521  14.715   4.686   9.828
28208SOL    HW286522  14.782   4.680   9.693
28209SOL     OW86523  14.603  14.356   7.704
28209SOL    HW186524  14.545  14.280   7.697
28209SOL    HW286525  14.682  14.330   7.658
28210SOL     OW86526   6.301  11.761  10.749
28210SOL    HW186527   6.350  11.700  10.804
28210SOL    HW286528   6.348  11.761  10.665
28211SOL     OW86529   8.934  10.730  14.243
28211SOL    HW186530   8.932  10.637  14.223
28211SOL    HW286531   8.847  10.761  14.219
28212SOL     OW86532   2.535   4.453   8.830
28212SOL    HW186533   2.546   4.504   8.910
28212SOL    HW286534   2.450   4.479   8.796
28213SOL     OW86535  10.123   7.721  14.714
28213SOL    HW186536  10.197   7.776  14.738
28213SOL    HW286537  10.107   7.667  14.792
28214SOL     OW86538  10.868   2.783  10.691
28214SOL    HW186539  10.875   2.727  10.614
28214SOL    HW286540  10.819   2.860  10.661
28215SOL     OW86541   6.248   6.758   1.171
28215SOL    HW186542   6.229   6.798   1.256
28215SOL    HW286543   6.201   6.813   1.108
28216SOL     OW86544  10.851   8.570   5.320
28216SOL    HW186545  10.822   8.588   5.231
28216SOL    HW286546  10.869   8.656   5.357
28217SOL     OW86547  10.270  11.731   7.339
28217SOL    HW186548  10.202  11.780   7.293
28217SOL    HW286549  10.247  11.739   7.431
28218SOL     OW86550   2.790   4.404   3.235
28218SOL    HW186551   2.816   4.450   3.315
28218SOL    HW286552   2.743   4.469   3.184
28219SOL     OW86553   5.169   0.658   0.941
28219SOL    HW186554   5.171   0.720   1.014
28219SOL    HW286555   5.080   0.622   0.944
28220SOL     OW86556   7.335   0.969   7.012
28220SOL    HW186557   7.385   0.964   6.930
28220SOL    HW286558   7.281   0.890   7.011
28221SOL     OW86559  11.911  12.976   3.326
28221SOL    HW186560  11.833  12.927   3.302
28221SOL    HW286561  11.975  12.909   3.350
28222SOL     OW86562   9.722   0.941   3.089
28222SOL    HW186563   9.641   0.920   3.043
28222SOL    HW286564   9.727   0.875   3.159
28223SOL     OW86565   1.515  11.669   2.209
28223SOL    HW186566   1.445  11.632   2.264
28223SOL    HW286567   1.577  11.597   2.199
28224SOL     OW86568   2.486   4.113   4.672
28224SOL    HW186569   2.488   4.148   4.761
28224SOL    HW286570   2.512   4.187   4.617
28225SOL     OW86571   4.637   9.776   6.349
28225SOL    HW186572   4.646   9.807   6.438
28225SOL    HW286573   4.595   9.848   6.302
28226SOL     OW86574  10.997   8.658   6.962
28226SOL    HW186575  11.048   8.593   6.914
28226SOL    HW286576  10.926   8.609   7.003
28227SOL     OW86577  14.877   1.960   3.048
28227SOL    HW186578  14.810   1.954   2.980
28227SOL    HW286579  14.854   2.038   3.098
28228SOL     OW86580   1.423   4.149   0.907
28228SOL    HW186581   1.413   4.147   0.812
28228SOL    HW286582   1.382   4.231   0.934
28229SOL     OW86583   3.080   9.761  13.190
28229SOL    HW186584   3.112   9.844  13.226
28229SOL    HW286585   3.143   9.696  13.222
28230SOL     OW86586  12.126  10.084   6.731
28230SOL    HW186587  12.112  10.090   6.637
28230SOL    HW286588  12.134  10.175   6.760
28231SOL     OW86589   7.366  10.232   7.443
28231SOL    HW186590   7.300  10.192   7.386
28231SOL    HW286591   7.429  10.162   7.460
28232SOL     OW86592   0.092   5.867   0.341
28232SOL    HW186593   0.066   5.958   0.353
28232SOL    HW286594   0.173   5.871   0.290
28233SOL     OW86595   1.714   0.420   7.538
28233SOL    HW186596   1.619   0.429   7.537
28233SOL    HW286597   1.746   0.498   7.491
28234SOL     OW86598   6.573  11.079  11.417
28234SOL    HW186599   6.532  11.042  11.496
28234SOL    HW286600   6.530  11.033  11.345
28235SOL     OW86601  10.655   9.607   9.077
28235SOL    HW186602  10.711   9.683   9.094
28235SOL    HW286603  10.710   9.531   9.099
28236SOL     OW86604   4.268  12.140  12.252
28236SOL    HW186605   4.220  12.101  12.179
28236SOL    HW286606   4.200  12.161  12.316
28237SOL     OW86607   2.507   3.434   7.934
28237SOL    HW186608   2.564   3.370   7.892
28237SOL    HW286609   2.422   3.389   7.940
28238SOL     OW86610   8.804   3.860   8.552
28238SOL    HW186611   8.840   3.905   8.628
28238SOL    HW286612   8.713   3.891   8.547
28239SOL     OW86613   4.433  12.662   6.979
28239SOL    HW186614   4.507  12.717   7.003
28239SOL    HW286615   4.402  12.697   6.896
28240SOL     OW86616  10.655   0.866  14.738
28240SOL    HW186617  10.637   0.900  14.651
28240SOL    HW286618  10.750   0.862  14.744
28241SOL     OW86619   2.436  10.736   9.115
28241SOL    HW186620   2.404  10.769   9.030
28241SOL    HW286621   2.528  10.760   9.116
28242SOL     OW86622  10.833   5.455  14.080
28242SOL    HW186623  10.901   5.407  14.031
28242SOL    HW286624  10.825   5.539  14.033
28243SOL     OW86625  13.458   3.168  12.877
28243SOL    HW186626  13.500   3.096  12.831
28243SOL    HW286627  13.478   3.154  12.969
28244SOL     OW86628   3.090   2.729  10.183
28244SOL    HW186629   3.161   2.791  10.199
28244SOL    HW286630   3.044   2.765  10.106
28245SOL     OW86631  11.974   8.716  13.799
28245SOL    HW186632  12.015   8.778  13.859
28245SOL    HW286633  12.045   8.658  13.772
28246SOL     OW86634   7.306  10.463   6.824
28246SOL    HW186635   7.356  10.544   6.825
28246SOL    HW286636   7.334  10.416   6.903
28247SOL     OW86637   7.629   9.412   3.739
28247SOL    HW186638   7.556   9.472   3.756
28247SOL    HW286639   7.633   9.405   3.644
28248SOL     OW86640  13.652   6.298   2.847
28248SOL    HW186641  13.625   6.217   2.892
28248SOL    HW286642  13.689   6.267   2.765
28249SOL     OW86643   1.281   2.389   8.878
28249SOL    HW186644   1.273   2.382   8.973
28249SOL    HW286645   1.272   2.483   8.860
28250SOL     OW86646  10.073   9.197   7.775
28250SOL    HW186647  10.066   9.268   7.711
28250SOL    HW286648  10.128   9.131   7.734
28251SOL     OW86649   5.981  11.045   7.708
28251SOL    HW186650   5.914  10.976   7.714
28251SOL    HW286651   5.936  11.125   7.735
28252SOL     OW86652   9.258   5.341   8.302
28252SOL    HW186653   9.271   5.249   8.321
28252SOL    HW286654   9.344   5.373   8.275
28253SOL     OW86655  10.370   3.239  11.098
28253SOL    HW186656  10.390   3.145  11.099
28253SOL    HW286657  10.441   3.279  11.147
28254SOL     OW86658   5.813   9.369   1.252
28254SOL    HW186659   5.839   9.367   1.160
28254SOL    HW286660   5.894   9.352   1.300
28255SOL     OW86661   2.542  12.750   2.696
28255SOL    HW186662   2.488  12.825   2.720
28255SOL    HW286663   2.576  12.771   2.609
28256SOL     OW86664  11.000   6.076   8.295
28256SOL    HW186665  10.962   5.989   8.283
28256SOL    HW286666  10.996   6.116   8.208
28257SOL     OW86667   1.329   3.071  12.943
28257SOL    HW186668   1.281   3.080  13.026
28257SOL    HW286669   1.400   3.134  12.950
28258SOL     OW86670   5.319   5.752   2.206
28258SOL    HW186671   5.362   5.787   2.127
28258SOL    HW286672   5.325   5.824   2.269
28259SOL     OW86673  14.346   4.626   1.118
28259SOL    HW186674  14.367   4.650   1.028
28259SOL    HW286675  14.361   4.706   1.169
28260SOL     OW86676   5.527   2.784   7.126
28260SOL    HW186677   5.517   2.792   7.031
28260SOL    HW286678   5.443   2.750   7.156
28261SOL     OW86679  12.754   5.813   5.673
28261SOL    HW186680  12.768   5.829   5.580
28261SOL    HW286681  12.721   5.896   5.707
28262SOL     OW86682   8.018   8.187   9.237
28262SOL    HW186683   8.042   8.095   9.228
28262SOL    HW286684   8.057   8.230   9.160
28263SOL     OW86685  12.456  11.096  13.537
28263SOL    HW186686  12.492  11.183  13.555
28263SOL    HW286687  12.483  11.077  13.448
28264SOL     OW86688   2.042  14.597   7.758
28264SOL    HW186689   2.012  14.647   7.682
28264SOL    HW286690   2.090  14.523   7.720
28265SOL     OW86691   0.291   3.939   3.688
28265SOL    HW186692   0.235   3.897   3.623
28265SOL    HW286693   0.332   3.866   3.734
28266SOL     OW86694  12.437  11.677  11.250
28266SOL    HW186695  12.409  11.591  11.219
28266SOL    HW286696  12.532  11.672  11.256
28267SOL     OW86697   5.171   4.734  11.632
28267SOL    HW186698   5.156   4.700  11.544
28267SOL    HW286699   5.084   4.733  11.672
28268SOL     OW86700   7.517   2.177  12.793
28268SOL    HW186701   7.514   2.081  12.788
28268SOL    HW286702   7.599   2.201  12.749
28269SOL     OW86703   5.569   2.636  13.555
28269SOL    HW186704   5.615   2.685  13.624
28269SOL    HW286705   5.501   2.587  13.603
28270SOL     OW86706   0.082   8.252  11.870
28270SOL    HW186707   0.053   8.221  11.784
28270SOL    HW286708   0.175   8.229  11.874
28271SOL     OW86709  13.155   6.928   3.139
28271SOL    HW186710  13.235   6.883   3.166
28271SOL    HW286711  13.111   6.866   3.081
28272SOL     OW86712   2.434   2.819  13.042
28272SOL    HW186713   2.424   2.904  13.001
28272SOL    HW286714   2.481   2.836  13.123
28273SOL     OW86715   6.487   3.519   1.244
28273SOL    HW186716   6.496   3.608   1.278
28273SOL    HW286717   6.416   3.481   1.296
28274SOL     OW86718  11.754   0.032   8.737
28274SOL    HW186719  11.839  14.872   8.756
28274SOL    HW286720  11.708   0.032   8.821
28275SOL     OW86721  14.084   7.193  12.066
28275SOL    HW186722  14.098   7.200  12.160
28275SOL    HW286723  14.171   7.207  12.028
28276SOL     OW86724   6.478  13.731   1.349
28276SOL    HW186725   6.532  13.667   1.302
28276SOL    HW286726   6.515  13.734   1.437
28277SOL     OW86727   4.184   7.017   3.887
28277SOL    HW186728   4.195   7.056   3.974
28277SOL    HW286729   4.176   7.092   3.828
28278SOL     OW86730   2.256   7.512   9.638
28278SOL    HW186731   2.208   7.592   9.660
28278SOL    HW286732   2.343   7.542   9.611
28279SOL     OW86733   5.863  14.787   6.705
28279SOL    HW186734   5.925  14.717   6.683
28279SOL    HW286735   5.881  14.805   6.798
28280SOL     OW86736  11.811   0.850   0.624
28280SOL    HW186737  11.887   0.809   0.665
28280SOL    HW286738  11.755   0.875   0.697
28281SOL     OW86739   5.131  14.107   4.449
28281SOL    HW186740   5.141  14.167   4.523
28281SOL    HW286741   5.087  14.159   4.382
28282SOL     OW86742  13.430   0.600  11.664
28282SOL    HW186743  13.364   0.640  11.720
28282SOL    HW286744  13.385   0.584  11.581
28283SOL     OW86745   6.728  10.033  14.284
28283SOL    HW186746   6.746  10.086  14.362
28283SOL    HW286747   6.760   9.946  14.307
28284SOL     OW86748  13.482   6.618   5.758
28284SOL    HW186749  13.568   6.647   5.728
28284SOL    HW286750  13.450   6.562   5.687
28285SOL     OW86751   4.636   7.680  14.876
28285SOL    HW186752   4.677   7.766   0.001
28285SOL    HW286753   4.692   7.623   0.049
28286SOL     OW86754   7.602  10.314   9.299
28286SOL    HW186755   7.691  10.279   9.304
28286SOL    HW286756   7.588  10.356   9.384
28287SOL     OW86757   6.444  12.808   0.572
28287SOL    HW186758   6.422  12.863   0.648
28287SOL    HW286759   6.395  12.728   0.585
28288SOL     OW86760  13.662   4.967   9.406
28288SOL    HW186761  13.715   4.889   9.424
28288SOL    HW286762  13.636   4.998   9.493
28289SOL     OW86763   4.988   6.171   1.348
28289SOL    HW186764   5.034   6.124   1.279
28289SOL    HW286765   4.966   6.255   1.310
28290SOL     OW86766  11.730  14.803   2.716
28290SOL    HW186767  11.715  14.711   2.696
28290SOL    HW286768  11.767  14.840   2.636
28291SOL     OW86769  13.165  10.472   6.260
28291SOL    HW186770  13.085  10.501   6.303
28291SOL    HW286771  13.163  10.376   6.269
28292SOL     OW86772  11.035  14.248   4.487
28292SOL    HW186773  11.113  14.200   4.514
28292SOL    HW286774  10.984  14.258   4.568
28293SOL     OW86775   5.874  14.051   6.127
28293SOL    HW186776   5.829  14.105   6.191
28293SOL    HW286777   5.966  14.074   6.136
28294SOL     OW86778  10.476   2.606   5.535
28294SOL    HW186779  10.470   2.701   5.519
28294SOL    HW286780  10.526   2.599   5.617
28295SOL     OW86781   1.921   2.781   3.120
28295SOL    HW186782   1.896   2.689   3.132
28295SOL    HW286783   1.892   2.803   3.032
28296SOL     OW86784   0.686   9.898   8.373
28296SOL    HW186785   0.600   9.863   8.352
28296SOL    HW286786   0.668   9.981   8.417
28297SOL     OW86787  10.098   5.306  11.257
28297SOL    HW186788  10.149   5.267  11.328
28297SOL    HW286789  10.163   5.340  11.196
28298SOL     OW86790   3.994   5.805   7.182
28298SOL    HW186791   4.003   5.883   7.237
28298SOL    HW286792   3.946   5.743   7.236
28299SOL     OW86793  10.897   6.907   2.176
28299SOL    HW186794  10.946   6.909   2.258
28299SOL    HW286795  10.926   6.985   2.128
28300SOL     OW86796   9.971  10.037  13.947
28300SOL    HW186797  10.020  10.074  13.874
28300SOL    HW286798   9.954  10.113  14.004
28301SOL     OW86799   8.509   6.860  14.362
28301SOL    HW186800   8.590   6.871  14.312
28301SOL    HW286801   8.439   6.888  14.302
28302SOL     OW86802  14.220   2.757  10.050
28302SOL    HW186803  14.242   2.836  10.099
28302SOL    HW286804  14.299   2.735  10.002
28303SOL     OW86805   2.428  12.508  11.318
28303SOL    HW186806   2.379  12.493  11.399
28303SOL    HW286807   2.517  12.529  11.348
28304SOL     OW86808   7.762   6.434   2.989
28304SOL    HW186809   7.674   6.400   3.002
28304SOL    HW286810   7.752   6.529   2.998
28305SOL     OW86811   2.241   5.754   2.934
28305SOL    HW186812   2.291   5.706   2.868
28305SOL    HW286813   2.150   5.731   2.917
28306SOL     OW86814  12.388   1.890   3.269
28306SOL    HW186815  12.462   1.912   3.212
28306SOL    HW286816  12.424   1.826   3.331
28307SOL     OW86817  12.043   9.458   0.651
28307SOL    HW186818  11.967   9.516   0.656
28307SOL    HW286819  12.008   9.375   0.621
28308SOL     OW86820   8.098   0.221   4.749
28308SOL    HW186821   8.155   0.184   4.682
28308SOL    HW286822   8.117   0.171   4.828
28309SOL     OW86823   1.736   2.589   7.456
28309SOL    HW186824   1.792   2.557   7.386
28309SOL    HW286825   1.659   2.623   7.411
28310SOL     OW86826   0.923  12.585   5.768
28310SOL    HW186827   0.903  12.605   5.677
28310SOL    HW286828   0.841  12.598   5.815
28311SOL     OW86829   8.043   2.834   0.099
28311SOL    HW186830   8.027   2.851   0.006
28311SOL    HW286831   7.970   2.876   0.145
28312SOL     OW86832   2.256   6.140   4.049
28312SOL    HW186833   2.214   6.075   4.105
28312SOL    HW286834   2.316   6.089   3.994
28313SOL     OW86835   6.774  12.589  14.777
28313SOL    HW186836   6.788  12.548  14.863
28313SOL    HW286837   6.832  12.665  14.779
28314SOL     OW86838   6.230   9.996  13.750
28314SOL    HW186839   6.305  10.021  13.696
28314SOL    HW286840   6.269   9.960  13.830
28315SOL     OW86841   2.804   2.898   1.982
28315SOL    HW186842   2.732   2.855   1.937
28315SOL    HW286843   2.859   2.826   2.014
28316SOL     OW86844   8.912  12.377   6.720
28316SOL    HW186845   8.826  12.418   6.708
28316SOL    HW286846   8.972  12.450   6.734
28317SOL     OW86847   1.797   6.341   8.571
28317SOL    HW186848   1.841   6.394   8.505
28317SOL    HW286849   1.791   6.397   8.648
28318SOL     OW86850   5.466  11.219   3.149
28318SOL    HW186851   5.411  11.266   3.086
28318SOL    HW286852   5.446  11.260   3.233
28319SOL     OW86853   0.582   1.421   1.711
28319SOL    HW186854   0.525   1.379   1.776
28319SOL    HW286855   0.638   1.351   1.679
28320SOL     OW86856   1.017   1.633   4.066
28320SOL    HW186857   0.932   1.677   4.071
28320SOL    HW286858   1.004   1.562   4.002
28321SOL     OW86859   0.070   4.795  11.937
28321SOL    HW186860   0.089   4.760  12.024
28321SOL    HW286861   0.154   4.791  11.890
28322SOL     OW86862   1.521   7.012   8.366
28322SOL    HW186863   1.585   6.986   8.433
28322SOL    HW286864   1.436   7.007   8.410
28323SOL     OW86865   9.416   5.859   7.817
28323SOL    HW186866   9.332   5.825   7.848
28323SOL    HW286867   9.481   5.807   7.863
28324SOL     OW86868   4.706  14.583   1.512
28324SOL    HW186869   4.630  14.618   1.465
28324SOL    HW286870   4.769  14.562   1.443
28325SOL     OW86871   3.088   4.217   2.894
28325SOL    HW186872   3.106   4.134   2.940
28325SOL    HW286873   3.115   4.285   2.956
28326SOL     OW86874   5.460  13.927   3.964
28326SOL    HW186875   5.435  13.836   3.949
28326SOL    HW286876   5.388  13.963   4.015
28327SOL     OW86877   2.219   8.732   4.177
28327SOL    HW186878   2.200   8.806   4.235
28327SOL    HW286879   2.243   8.661   4.237
28328SOL     OW86880   4.517   3.607  10.709
28328SOL    HW186881   4.566   3.687  10.690
28328SOL    HW286882   4.569   3.537  10.668
28329SOL     OW86883   1.527  12.636  10.484
28329SOL    HW186884   1.458  12.647  10.550
28329SOL    HW286885   1.606  12.619  10.535
28330SOL     OW86886   2.570   1.744   5.777
28330SOL    HW186887   2.606   1.748   5.865
28330SOL    HW286888   2.563   1.650   5.759
28331SOL     OW86889   7.829  11.245   5.855
28331SOL    HW186890   7.744  11.281   5.833
28331SOL    HW286891   7.825  11.229   5.949
28332SOL     OW86892  10.701   9.766   7.612
28332SOL    HW186893  10.632   9.704   7.586
28332SOL    HW286894  10.660   9.852   7.602
28333SOL     OW86895   1.898   4.193   6.639
28333SOL    HW186896   1.874   4.252   6.568
28333SOL    HW286897   1.960   4.132   6.599
28334SOL     OW86898   5.940   3.780  12.363
28334SOL    HW186899   5.968   3.778  12.454
28334SOL    HW286900   5.896   3.697  12.349
28335SOL     OW86901  14.656   3.591  13.707
28335SOL    HW186902  14.720   3.577  13.638
28335SOL    HW286903  14.580   3.539  13.681
28336SOL     OW86904   3.376  14.143  12.481
28336SOL    HW186905   3.335  14.145  12.567
28336SOL    HW286906   3.470  14.149  12.499
28337SOL     OW86907   1.377   6.584   9.519
28337SOL    HW186908   1.409   6.616   9.603
28337SOL    HW286909   1.357   6.491   9.535
28338SOL     OW86910   8.897   6.091   0.729
28338SOL    HW186911   8.836   6.138   0.786
28338SOL    HW286912   8.895   6.140   0.647
28339SOL     OW86913   8.422  12.119  13.372
28339SOL    HW186914   8.342  12.076  13.401
28339SOL    HW286915   8.492  12.075  13.419
28340SOL     OW86916   7.212   2.522   3.328
28340SOL    HW186917   7.293   2.480   3.356
28340SOL    HW286918   7.203   2.498   3.236
28341SOL     OW86919  11.661  10.934   5.151
28341SOL    HW186920  11.730  10.900   5.093
28341SOL    HW286921  11.583  10.885   5.127
28342SOL     OW86922   4.543   1.933   5.666
28342SOL    HW186923   4.588   1.899   5.743
28342SOL    HW286924   4.613   1.952   5.604
28343SOL     OW86925   0.334  10.874  12.741
28343SOL    HW186926   0.380  10.947  12.700
28343SOL    HW286927   0.321  10.901  12.831
28344SOL     OW86928  11.461  10.525  11.642
28344SOL    HW186929  11.373  10.524  11.606
28344SOL    HW286930  11.474  10.615  11.672
28345SOL     OW86931  13.477   7.431   9.869
28345SOL    HW186932  13.525   7.425   9.787
28345SOL    HW286933  13.535   7.392   9.934
28346SOL     OW86934  12.752  13.751   0.014
28346SOL    HW186935  12.674  13.767  14.840
28346SOL    HW286936  12.717  13.724   0.099
28347SOL     OW86937   1.603   6.578   2.714
28347SOL    HW186938   1.537   6.626   2.764
28347SOL    HW286939   1.634   6.640   2.648
28348SOL     OW86940  10.471   1.423   8.650
28348SOL    HW186941  10.426   1.486   8.707
28348SOL    HW286942  10.484   1.470   8.568
28349SOL     OW86943  11.381  10.893   1.236
28349SOL    HW186944  11.446  10.962   1.227
28349SOL    HW286945  11.412  10.840   1.310
28350SOL     OW86946  11.819  11.452   8.990
28350SOL    HW186947  11.764  11.530   8.983
28350SOL    HW286948  11.908  11.483   8.974
28351SOL     OW86949  12.671   2.249   1.559
28351SOL    HW186950  12.698   2.163   1.525
28351SOL    HW286951  12.649   2.300   1.482
28352SOL     OW86952   6.225   4.669   9.537
28352SOL    HW186953   6.183   4.755   9.534
28352SOL    HW286954   6.246   4.656   9.629
28353SOL     OW86955   8.965   7.856  12.602
28353SOL    HW186956   9.051   7.897  12.594
28353SOL    HW286957   8.935   7.844  12.512
28354SOL     OW86958   5.322   4.234  13.342
28354SOL    HW186959   5.363   4.148  13.334
28354SOL    HW286960   5.394   4.293  13.364
28355SOL     OW86961   0.045  10.535  11.742
28355SOL    HW186962   0.050  10.491  11.827
28355SOL    HW286963   0.105  10.485  11.686
28356SOL     OW86964   8.185  11.212  11.557
28356SOL    HW186965   8.093  11.186  11.544
28356SOL    HW286966   8.221  11.143  11.613
28357SOL     OW86967  11.577   6.077  12.662
28357SOL    HW186968  11.646   6.119  12.712
28357SOL    HW286969  11.508   6.059  12.726
28358SOL     OW86970  12.098   9.281   0.299
28358SOL    HW186971  12.075   9.254   0.210
28358SOL    HW286972  12.014   9.299   0.341
28359SOL     OW86973   1.922   0.888   6.781
28359SOL    HW186974   1.860   0.834   6.831
28359SOL    HW286975   1.916   0.975   6.820
28360SOL     OW86976   3.404   1.133   2.356
28360SOL    HW186977   3.321   1.090   2.372
28360SOL    HW286978   3.404   1.208   2.416
28361SOL     OW86979   4.324   1.496  11.291
28361SOL    HW186980   4.326   1.584  11.329
28361SOL    HW286981   4.306   1.511  11.198
28362SOL     OW86982   2.368   5.486   9.985
28362SOL    HW186983   2.295   5.547   9.972
28362SOL    HW286984   2.446   5.541   9.980
28363SOL     OW86985  12.805  13.298  10.480
28363SOL    HW186986  12.752  13.373  10.508
28363SOL    HW286987  12.781  13.285  10.389
28364SOL     OW86988   1.125   2.192   4.067
28364SOL    HW186989   1.216   2.212   4.089
28364SOL    HW286990   1.082   2.180   4.152
28365SOL     OW86991  13.413   1.604   9.526
28365SOL    HW186992  13.440   1.694   9.546
28365SOL    HW286993  13.478   1.574   9.461
28366SOL     OW86994   5.043   1.010   1.871
28366SOL    HW186995   4.970   1.073   1.875
28366SOL    HW286996   5.098   1.041   1.799
28367SOL     OW86997   9.133   2.149   5.448
28367SOL    HW186998   9.163   2.060   5.469
28367SOL    HW286999   9.064   2.135   5.383
28368SOL     OW87000   6.871   8.740  11.615
28368SOL    HW187001   6.866   8.697  11.529
28368SOL    HW287002   6.959   8.721  11.646
28369SOL     OW87003  12.555   7.077   7.974
28369SOL    HW187004  12.530   7.019   7.902
28369SOL    HW287005  12.573   7.018   8.047
28370SOL     OW87006   7.598   0.027   5.000
28370SOL    HW187007   7.581  14.851   4.925
28370SOL    HW287008   7.693   0.039   5.001
28371SOL     OW87009   7.623   5.613  14.470
28371SOL    HW187010   7.609   5.519  14.457
28371SOL    HW287011   7.704   5.618  14.521
28372SOL     OW87012   8.195   2.528  14.112
28372SOL    HW187013   8.150   2.587  14.171
28372SOL    HW287014   8.195   2.444  14.157
28373SOL     OW87015   2.593   8.134   3.328
28373SOL    HW187016   2.654   8.073   3.370
28373SOL    HW287017   2.649   8.192   3.276
28374SOL     OW87018   8.391   2.611   0.967
28374SOL    HW187019   8.305   2.605   0.926
28374SOL    HW287020   8.377   2.667   1.044
28375SOL     OW87021   8.059  14.657   3.658
28375SOL    HW187022   8.024  14.568   3.660
28375SOL    HW287023   8.147  14.650   3.696
28376SOL     OW87024   2.334   9.030   5.847
28376SOL    HW187025   2.254   9.018   5.898
28376SOL    HW287026   2.342   9.124   5.836
28377SOL     OW87027   8.388  12.680  13.020
28377SOL    HW187028   8.379  12.677  13.115
28377SOL    HW287029   8.448  12.608  12.999
28378SOL     OW87030   4.996  14.159   6.269
28378SOL    HW187031   5.076  14.184   6.314
28378SOL    HW287032   5.026  14.124   6.184
28379SOL     OW87033  10.926   4.332   8.345
28379SOL    HW187034  10.958   4.389   8.415
28379SOL    HW287035  10.903   4.250   8.389
28380SOL     OW87036   5.809   2.825   0.889
28380SOL    HW187037   5.762   2.770   0.827
28380SOL    HW287038   5.873   2.872   0.836
28381SOL     OW87039   2.982   6.664   7.529
28381SOL    HW187040   3.072   6.637   7.548
28381SOL    HW287041   2.941   6.675   7.614
28382SOL     OW87042  14.722  14.091   8.603
28382SOL    HW187043  14.808  14.106   8.565
28382SOL    HW287044  14.733  14.108   8.696
28383SOL     OW87045   5.683  12.107  13.653
28383SOL    HW187046   5.611  12.119  13.714
28383SOL    HW287047   5.651  12.041  13.591
28384SOL     OW87048  13.428   8.649  13.750
28384SOL    HW187049  13.366   8.594  13.702
28384SOL    HW287050  13.507   8.595  13.758
28385SOL     OW87051  14.327   7.469  13.915
28385SOL    HW187052  14.299   7.558  13.938
28385SOL    HW287053  14.423   7.474  13.912
28386SOL     OW87054   6.818   3.263   2.170
28386SOL    HW187055   6.822   3.246   2.076
28386SOL    HW287056   6.820   3.359   2.177
28387SOL     OW87057  10.552   1.446   6.413
28387SOL    HW187058  10.572   1.527   6.367
28387SOL    HW287059  10.597   1.378   6.363
28388SOL     OW87060   5.914   4.873  14.041
28388SOL    HW187061   5.966   4.917  14.107
28388SOL    HW287062   5.939   4.781  14.046
28389SOL     OW87063   6.807   7.653   0.326
28389SOL    HW187064   6.891   7.689   0.356
28389SOL    HW287065   6.754   7.729   0.305
28390SOL     OW87066  13.119  10.652   9.765
28390SOL    HW187067  13.063  10.708   9.818
28390SOL    HW287068  13.059  10.604   9.708
28391SOL     OW87069  10.186   4.957   1.243
28391SOL    HW187070  10.256   4.967   1.307
28391SOL    HW287071  10.231   4.926   1.164
28392SOL     OW87072   9.503  13.833   3.544
28392SOL    HW187073   9.513  13.738   3.547
28392SOL    HW287074   9.575  13.862   3.488
28393SOL     OW87075  13.792   0.936   8.321
28393SOL    HW187076  13.770   1.029   8.327
28393SOL    HW287077  13.715   0.890   8.354
28394SOL     OW87078  11.983   8.489   8.614
28394SOL    HW187079  12.026   8.515   8.532
28394SOL    HW287080  12.045   8.430   8.656
28395SOL     OW87081  13.520   0.501  12.480
28395SOL    HW187082  13.472   0.530  12.403
28395SOL    HW287083  13.526   0.406  12.470
28396SOL     OW87084   0.264  10.458   6.262
28396SOL    HW187085   0.339  10.474   6.205
28396SOL    HW287086   0.302  10.423   6.343
28397SOL     OW87087   5.837   7.397   8.556
28397SOL    HW187088   5.777   7.420   8.485
28397SOL    HW287089   5.876   7.314   8.528
28398SOL     OW87090  10.003   2.698  14.061
28398SOL    HW187091   9.962   2.745  14.133
28398SOL    HW287092   9.931   2.651  14.018
28399SOL     OW87093   5.195   0.862   7.061
28399SOL    HW187094   5.196   0.795   6.992
28399SOL    HW287095   5.246   0.935   7.024
28400SOL     OW87096   0.825   1.285  14.564
28400SOL    HW187097   0.790   1.217  14.621
28400SOL    HW287098   0.919   1.284  14.580
28401SOL     OW87099   5.355  12.758  12.162
28401SOL    HW187100   5.330  12.671  12.129
28401SOL    HW287101   5.406  12.797  12.091
28402SOL     OW87102   4.135  14.390   4.405
28402SOL    HW187103   4.098  14.321   4.349
28402SOL    HW287104   4.087  14.383   4.487
28403SOL     OW87105  14.272   4.298   4.195
28403SOL    HW187106  14.235   4.386   4.183
28403SOL    HW287107  14.198   4.243   4.218
28404SOL     OW87108   0.189   0.729   7.607
28404SOL    HW187109   0.272   0.717   7.652
28404SOL    HW287110   0.132   0.660   7.641
28405SOL     OW87111   1.066  14.376   8.977
28405SOL    HW187112   1.015  14.422   8.910
28405SOL    HW287113   1.110  14.305   8.930
28406SOL     OW87114  13.911   8.522   8.196
28406SOL    HW187115  13.901   8.498   8.288
28406SOL    HW287116  13.938   8.441   8.153
28407SOL     OW87117  12.434   2.452   7.645
28407SOL    HW187118  12.411   2.427   7.555
28407SOL    HW287119  12.457   2.369   7.687
28408SOL     OW87120   6.474   6.869   2.591
28408SOL    HW187121   6.569   6.874   2.578
28408SOL    HW287122   6.457   6.924   2.667
28409SOL     OW87123   7.528   0.757   3.013
28409SOL    HW187124   7.529   0.831   2.953
28409SOL    HW287125   7.544   0.681   2.957
28410SOL     OW87126   8.407   7.902   9.735
28410SOL    HW187127   8.430   7.891   9.642
28410SOL    HW287128   8.373   7.991   9.740
28411SOL     OW87129   2.373   7.770  12.735
28411SOL    HW187130   2.360   7.857  12.775
28411SOL    HW287131   2.367   7.786  12.641
28412SOL     OW87132   6.128  12.589  11.917
28412SOL    HW187133   6.052  12.624  11.964
28412SOL    HW287134   6.159  12.516  11.971
28413SOL     OW87135  14.728  12.879   4.606
28413SOL    HW187136  14.657  12.932   4.568
28413SOL    HW287137  14.686  12.831   4.678
28414SOL     OW87138  14.537   3.292   1.182
28414SOL    HW187139  14.587   3.356   1.130
28414SOL    HW287140  14.542   3.211   1.131
28415SOL     OW87141   0.073  12.695   7.457
28415SOL    HW187142   0.129  12.767   7.430
28415SOL    HW287143   0.018  12.676   7.381
28416SOL     OW87144  11.577   4.818   0.750
28416SOL    HW187145  11.559   4.726   0.770
28416SOL    HW287146  11.582   4.861   0.836
28417SOL     OW87147   2.525   0.673   7.694
28417SOL    HW187148   2.583   0.700   7.766
28417SOL    HW287149   2.570   0.702   7.615
28418SOL     OW87150   9.572   1.062   0.325
28418SOL    HW187151   9.643   1.042   0.386
28418SOL    HW287152   9.496   1.016   0.362
28419SOL     OW87153  11.006   8.092   3.813
28419SOL    HW187154  11.096   8.121   3.797
28419SOL    HW287155  10.969   8.160   3.869
28420SOL     OW87156   5.642   6.400   8.533
28420SOL    HW187157   5.573   6.347   8.570
28420SOL    HW287158   5.639   6.383   8.439
28421SOL     OW87159  13.029   4.382   5.048
28421SOL    HW187160  12.998   4.395   5.138
28421SOL    HW287161  13.036   4.471   5.012
28422SOL     OW87162   9.246  13.919   0.158
28422SOL    HW187163   9.329  13.917   0.109
28422SOL    HW287164   9.219  14.011   0.155
28423SOL     OW87165  12.805  14.353   9.962
28423SOL    HW187166  12.740  14.382  10.026
28423SOL    HW287167  12.867  14.426   9.956
28424SOL     OW87168  14.155   4.542  12.402
28424SOL    HW187169  14.113   4.628  12.407
28424SOL    HW287170  14.110   4.498  12.330
28425SOL     OW87171  14.469   6.621   9.972
28425SOL    HW187172  14.468   6.695   9.912
28425SOL    HW287173  14.377   6.601   9.987
28426SOL     OW87174   0.505  14.277   1.729
28426SOL    HW187175   0.416  14.299   1.701
28426SOL    HW287176   0.498  14.266   1.824
28427SOL     OW87177  10.802  13.567   7.299
28427SOL    HW187178  10.763  13.570   7.211
28427SOL    HW287179  10.896  13.577   7.284
28428SOL     OW87180   9.134  11.631  11.572
28428SOL    HW187181   9.205  11.688  11.601
28428SOL    HW287182   9.054  11.679  11.594
28429SOL     OW87183   4.056   3.407   1.844
28429SOL    HW187184   4.003   3.342   1.798
28429SOL    HW287185   4.132   3.421   1.788
28430SOL     OW87186  12.490   7.477  13.192
28430SOL    HW187187  12.521   7.430  13.269
28430SOL    HW287188  12.437   7.413  13.145
28431SOL     OW87189  14.863  14.375   9.181
28431SOL    HW187190  14.844  14.456   9.228
28431SOL    HW287191   0.068  14.390   9.139
28432SOL     OW87192  12.257   3.285   1.773
28432SOL    HW187193  12.260   3.255   1.683
28432SOL    HW287194  12.173   3.331   1.780
28433SOL     OW87195   9.957  11.743   8.011
28433SOL    HW187196   9.952  11.769   8.103
28433SOL    HW287197  10.017  11.668   8.011
28434SOL     OW87198  14.029  10.975  13.827
28434SOL    HW187199  14.104  10.943  13.875
28434SOL    HW287200  14.058  11.058  13.789
28435SOL     OW87201   2.517   2.648   9.406
28435SOL    HW187202   2.498   2.686   9.492
28435SOL    HW287203   2.435   2.605   9.381
28436SOL     OW87204   6.256   8.446   9.830
28436SOL    HW187205   6.337   8.496   9.836
28436SOL    HW287206   6.201   8.481   9.900
28437SOL     OW87207  10.373  13.839  12.349
28437SOL    HW187208  10.443  13.874  12.293
28437SOL    HW287209  10.352  13.911  12.408
28438SOL     OW87210   1.791   8.838   5.893
28438SOL    HW187211   1.872   8.889   5.898
28438SOL    HW287212   1.739   8.867   5.968
28439SOL     OW87213   0.877   4.728  11.534
28439SOL    HW187214   0.854   4.637  11.517
28439SOL    HW287215   0.961   4.723  11.580
28440SOL     OW87216   5.344   4.584   1.557
28440SOL    HW187217   5.326   4.547   1.644
28440SOL    HW287218   5.440   4.586   1.552
28441SOL     OW87219   8.531   1.658   4.332
28441SOL    HW187220   8.493   1.619   4.254
28441SOL    HW287221   8.624   1.669   4.310
28442SOL     OW87222  12.006   3.795   0.860
28442SOL    HW187223  11.915   3.814   0.836
28442SOL    HW287224  12.027   3.713   0.817
28443SOL     OW87225  12.558  11.210   9.325
28443SOL    HW187226  12.526  11.190   9.237
28443SOL    HW287227  12.495  11.272   9.360
28444SOL     OW87228   0.300  14.547  11.019
28444SOL    HW187229   0.231  14.576  10.959
28444SOL    HW287230   0.277  14.457  11.042
28445SOL     OW87231   4.920   0.612   6.968
28445SOL    HW187232   4.978   0.540   6.995
28445SOL    HW287233   4.970   0.691   6.988
28446SOL     OW87234   4.192   7.943   4.784
28446SOL    HW187235   4.269   7.997   4.799
28446SOL    HW287236   4.125   7.980   4.841
28447SOL     OW87237   9.289   1.883  14.181
28447SOL    HW187238   9.236   1.898  14.103
28447SOL    HW287239   9.226   1.874  14.252
28448SOL     OW87240  14.316  13.562   0.725
28448SOL    HW187241  14.400  13.591   0.759
28448SOL    HW287242  14.321  13.466   0.725
28449SOL     OW87243  12.658   4.217   7.526
28449SOL    HW187244  12.746   4.195   7.557
28449SOL    HW287245  12.600   4.193   7.599
28450SOL     OW87246   9.009  12.347   4.254
28450SOL    HW187247   8.953  12.383   4.322
28450SOL    HW287248   8.949  12.303   4.194
28451SOL     OW87249   4.990   8.585   2.717
28451SOL    HW187250   4.959   8.593   2.627
28451SOL    HW287251   4.920   8.537   2.762
28452SOL     OW87252   0.213   6.837   9.629
28452SOL    HW187253   0.289   6.882   9.594
28452SOL    HW287254   0.175   6.899   9.692
28453SOL     OW87255   6.340  10.041  12.069
28453SOL    HW187256   6.271  10.003  12.015
28453SOL    HW287257   6.409  10.063  12.007
28454SOL     OW87258   9.775   2.066   2.046
28454SOL    HW187259   9.720   2.003   2.093
28454SOL    HW287260   9.864   2.031   2.054
28455SOL     OW87261  13.002  11.636  10.551
28455SOL    HW187262  13.074  11.581  10.581
28455SOL    HW287263  12.923  11.587  10.576
28456SOL     OW87264  14.726   7.276  13.170
28456SOL    HW187265  14.672   7.197  13.176
28456SOL    HW287266  14.777   7.264  13.090
28457SOL     OW87267   3.590   3.625  11.555
28457SOL    HW187268   3.623   3.644  11.467
28457SOL    HW287269   3.611   3.704  11.605
28458SOL     OW87270   4.884   7.192  13.301
28458SOL    HW187271   4.867   7.203  13.207
28458SOL    HW287272   4.976   7.216  13.311
28459SOL     OW87273   9.730   2.566  14.297
28459SOL    HW187274   9.773   2.648  14.272
28459SOL    HW287275   9.728   2.567  14.393
28460SOL     OW87276   3.229   9.581  12.949
28460SOL    HW187277   3.316   9.543  12.939
28460SOL    HW287278   3.242   9.654  13.009
28461SOL     OW87279   2.580   3.293  12.698
28461SOL    HW187280   2.599   3.201  12.680
28461SOL    HW287281   2.657   3.325  12.746
28462SOL     OW87282  13.114   1.219   5.354
28462SOL    HW187283  13.136   1.136   5.397
28462SOL    HW287284  13.058   1.265   5.417
28463SOL     OW87285   0.087  10.668  11.339
28463SOL    HW187286   0.025  10.703  11.276
28463SOL    HW287287   0.132  10.597  11.292
28464SOL     OW87288   9.039   1.792  11.204
28464SOL    HW187289   9.097   1.733  11.253
28464SOL    HW287290   9.075   1.879  11.219
28465SOL     OW87291  11.752  12.057  11.677
28465SOL    HW187292  11.696  12.009  11.738
28465SOL    HW287293  11.753  12.146  11.711
28466SOL     OW87294   7.268   3.541  12.251
28466SOL    HW187295   7.198   3.603  12.231
28466SOL    HW287296   7.226   3.455  12.249
28467SOL     OW87297  12.824   6.431  10.603
28467SOL    HW187298  12.842   6.513  10.649
28467SOL    HW287299  12.848   6.449  10.512
28468SOL     OW87300   6.881   4.379  14.115
28468SOL    HW187301   6.869   4.376  14.210
28468SOL    HW287302   6.861   4.470  14.091
28469SOL     OW87303   8.083  12.853   2.171
28469SOL    HW187304   8.009  12.909   2.195
28469SOL    HW287305   8.158  12.913   2.170
28470SOL     OW87306   1.437   4.397   7.516
28470SOL    HW187307   1.515   4.345   7.495
28470SOL    HW287308   1.438   4.468   7.452
28471SOL     OW87309  11.439   7.019  14.276
28471SOL    HW187310  11.433   6.926  14.294
28471SOL    HW287311  11.532   7.038  14.274
28472SOL     OW87312  11.959   7.453   0.194
28472SOL    HW187313  12.012   7.504   0.131
28472SOL    HW287314  11.916   7.519   0.248
28473SOL     OW87315   1.428  10.352   3.595
28473SOL    HW187316   1.403  10.265   3.626
28473SOL    HW287317   1.365  10.411   3.638
28474SOL     OW87318   4.204   3.546   1.450
28474SOL    HW187319   4.258   3.558   1.528
28474SOL    HW287320   4.116   3.573   1.477
28475SOL     OW87321  13.927   8.709   6.888
28475SOL    HW187322  13.865   8.636   6.898
28475SOL    HW287323  13.965   8.719   6.975
28476SOL     OW87324  10.407   2.464  13.449
28476SOL    HW187325  10.324   2.418  13.441
28476SOL    HW287326  10.387   2.545  13.495
28477SOL     OW87327   9.439  13.285   3.960
28477SOL    HW187328   9.515  13.296   4.018
28477SOL    HW287329   9.398  13.372   3.958
28478SOL     OW87330  11.262   7.908   4.424
28478SOL    HW187331  11.276   7.854   4.347
28478SOL    HW287332  11.326   7.877   4.488
28479SOL     OW87333   9.823   8.089   7.436
28479SOL    HW187334   9.870   8.007   7.451
28479SOL    HW287335   9.731   8.067   7.449
28480SOL     OW87336   2.601   0.242   2.688
28480SOL    HW187337   2.508   0.239   2.709
28480SOL    HW287338   2.626   0.150   2.676
28481SOL     OW87339  13.144   9.427   0.449
28481SOL    HW187340  13.185   9.375   0.380
28481SOL    HW287341  13.217   9.456   0.504
28482SOL     OW87342   5.906   1.038  10.379
28482SOL    HW187343   5.852   0.999  10.448
28482SOL    HW287344   5.996   1.024  10.408
28483SOL     OW87345   1.066  14.383  13.824
28483SOL    HW187346   1.044  14.421  13.739
28483SOL    HW287347   1.029  14.445  13.888
28484SOL     OW87348   8.796   7.524  11.525
28484SOL    HW187349   8.892   7.517  11.529
28484SOL    HW287350   8.780   7.615  11.501
28485SOL     OW87351   5.656  10.033  13.522
28485SOL    HW187352   5.582  10.061  13.468
28485SOL    HW287353   5.723  10.099  13.506
28486SOL     OW87354  12.162   5.376   0.304
28486SOL    HW187355  12.138   5.387   0.396
28486SOL    HW287356  12.084   5.338   0.263
28487SOL     OW87357   0.235  13.408  11.563
28487SOL    HW187358   0.277  13.349  11.626
28487SOL    HW287359   0.215  13.351  11.488
28488SOL     OW87360   9.143  13.978  12.896
28488SOL    HW187361   9.212  13.955  12.957
28488SOL    HW287362   9.092  13.898  12.885
28489SOL     OW87363   2.228  12.487   4.091
28489SOL    HW187364   2.314  12.497   4.050
28489SOL    HW287365   2.177  12.436   4.027
28490SOL     OW87366   4.573  13.781   2.462
28490SOL    HW187367   4.530  13.838   2.525
28490SOL    HW287368   4.521  13.701   2.462
28491SOL     OW87369   4.830   5.227   5.049
28491SOL    HW187370   4.771   5.289   5.091
28491SOL    HW287371   4.826   5.149   5.104
28492SOL     OW87372  12.939  10.273  14.767
28492SOL    HW187373  12.993  10.234  14.836
28492SOL    HW287374  12.992  10.345  14.733
28493SOL     OW87375  10.493   0.966   4.910
28493SOL    HW187376  10.475   1.051   4.951
28493SOL    HW287377  10.418   0.911   4.934
28494SOL     OW87378   6.859   2.922   6.006
28494SOL    HW187379   6.914   2.857   5.962
28494SOL    HW287380   6.788   2.872   6.044
28495SOL     OW87381   1.257   5.319   3.919
28495SOL    HW187382   1.258   5.266   3.839
28495SOL    HW287383   1.324   5.281   3.975
28496SOL     OW87384   5.630   6.005  12.930
28496SOL    HW187385   5.608   6.087  12.974
28496SOL    HW287386   5.715   5.981  12.967
28497SOL     OW87387   4.675   2.656   8.580
28497SOL    HW187388   4.670   2.568   8.543
28497SOL    HW287389   4.762   2.659   8.620
28498SOL     OW87390  14.153   7.039   3.804
28498SOL    HW187391  14.085   7.025   3.738
28498SOL    HW287392  14.220   6.974   3.783
28499SOL     OW87393   9.071   5.244   5.859
28499SOL    HW187394   9.040   5.324   5.816
28499SOL    HW287395   9.146   5.215   5.806
28500SOL     OW87396   1.491   6.895   7.230
28500SOL    HW187397   1.583   6.868   7.231
28500SOL    HW287398   1.479   6.938   7.146
28501SOL     OW87399   2.079   2.810  10.657
28501SOL    HW187400   2.025   2.884  10.630
28501SOL    HW287401   2.090   2.758  10.578
28502SOL     OW87402   0.513  10.596   5.054
28502SOL    HW187403   0.483  10.541   4.982
28502SOL    HW287404   0.597  10.558   5.080
28503SOL     OW87405  10.145  12.936   6.980
28503SOL    HW187406  10.139  13.031   6.967
28503SOL    HW287407  10.227  12.924   7.027
28504SOL     OW87408  14.875   9.795   4.839
28504SOL    HW187409  14.860   9.746   4.758
28504SOL    HW287410  14.871   9.730   4.908
28505SOL     OW87411   1.030  14.098   7.514
28505SOL    HW187412   1.054  14.015   7.474
28505SOL    HW287413   1.072  14.097   7.601
28506SOL     OW87414  12.012   1.775   0.737
28506SOL    HW187415  12.008   1.764   0.832
28506SOL    HW287416  12.060   1.698   0.705
28507SOL     OW87417   0.794   6.979   2.805
28507SOL    HW187418   0.840   7.003   2.886
28507SOL    HW287419   0.703   7.004   2.820
28508SOL     OW87420   9.717   5.008  11.543
28508SOL    HW187421   9.773   4.946  11.496
28508SOL    HW287422   9.748   5.004  11.634
28509SOL     OW87423  14.376   9.050   1.024
28509SOL    HW187424  14.303   9.102   1.056
28509SOL    HW287425  14.369   8.967   1.070
28510SOL     OW87426   0.328   1.374  13.308
28510SOL    HW187427   0.264   1.383  13.379
28510SOL    HW287428   0.274   1.362  13.230
28511SOL     OW87429   3.133   7.374   4.143
28511SOL    HW187430   3.212   7.402   4.190
28511SOL    HW287431   3.113   7.288   4.179
28512SOL     OW87432   0.634   8.089   7.180
28512SOL    HW187433   0.543   8.061   7.170
28512SOL    HW287434   0.633   8.182   7.155
28513SOL     OW87435   4.311   7.656  10.227
28513SOL    HW187436   4.349   7.642  10.313
28513SOL    HW287437   4.380   7.632  10.165
28514SOL     OW87438  13.724  14.248   9.478
28514SOL    HW187439  13.686  14.200   9.403
28514SOL    HW287440  13.779  14.183   9.522
28515SOL     OW87441  14.830  11.380   9.766
28515SOL    HW187442  14.834  11.474   9.786
28515SOL    HW287443   0.001  11.339   9.836
28516SOL     OW87444   6.934  13.510  12.484
28516SOL    HW187445   6.929  13.604  12.501
28516SOL    HW287446   6.979  13.473  12.560
28517SOL     OW87447   1.090   7.091   6.380
28517SOL    HW187448   1.075   6.998   6.400
28517SOL    HW287449   1.070   7.136   6.462
28518SOL     OW87450   1.205   1.368  14.352
28518SOL    HW187451   1.288   1.377  14.303
28518SOL    HW287452   1.138   1.370  14.284
28519SOL     OW87453   0.443   2.916   8.454
28519SOL    HW187454   0.420   2.877   8.538
28519SOL    HW287455   0.533   2.886   8.438
28520SOL     OW87456  13.963   0.812   6.715
28520SOL    HW187457  13.891   0.750   6.731
28520SOL    HW287458  14.037   0.757   6.691
28521SOL     OW87459  12.927   0.375   7.827
28521SOL    HW187460  12.907   0.286   7.858
28521SOL    HW287461  12.841   0.416   7.816
28522SOL     OW87462   8.258  11.343  11.340
28522SOL    HW187463   8.221  11.267  11.296
28522SOL    HW287464   8.230  11.334  11.431
28523SOL     OW87465   7.668  14.449   7.137
28523SOL    HW187466   7.692  14.448   7.230
28523SOL    HW287467   7.575  14.471   7.137
28524SOL     OW87468   4.702   5.326  10.546
28524SOL    HW187469   4.648   5.404  10.559
28524SOL    HW287470   4.667   5.285  10.467
28525SOL     OW87471  14.633   7.796   6.700
28525SOL    HW187472  14.647   7.803   6.794
28525SOL    HW287473  14.612   7.885   6.672
28526SOL     OW87474   2.651   4.437   1.524
28526SOL    HW187475   2.643   4.420   1.430
28526SOL    HW287476   2.735   4.482   1.533
28527SOL     OW87477  13.822   4.179  14.638
28527SOL    HW187478  13.740   4.131  14.650
28527SOL    HW287479  13.798   4.271  14.650
28528SOL     OW87480  11.094   9.061   8.045
28528SOL    HW187481  11.176   9.018   8.070
28528SOL    HW287482  11.030   8.991   8.043
28529SOL     OW87483   2.832   8.733   5.055
28529SOL    HW187484   2.926   8.718   5.056
28529SOL    HW287485   2.794   8.654   5.093
28530SOL     OW87486  10.390   7.337   9.029
28530SOL    HW187487  10.390   7.304   9.118
28530SOL    HW287488  10.482   7.357   9.010
28531SOL     OW87489  13.751   6.479   6.117
28531SOL    HW187490  13.757   6.444   6.028
28531SOL    HW287491  13.662   6.459   6.145
28532SOL     OW87492  13.410   2.973   7.911
28532SOL    HW187493  13.354   2.959   7.988
28532SOL    HW287494  13.499   2.968   7.946
28533SOL     OW87495   2.706  14.053   3.592
28533SOL    HW187496   2.649  14.122   3.627
28533SOL    HW287497   2.732  14.003   3.669
28534SOL     OW87498   4.183  12.307   2.615
28534SOL    HW187499   4.157  12.290   2.525
28534SOL    HW287500   4.266  12.259   2.626
28535SOL     OW87501  13.067   2.567  12.980
28535SOL    HW187502  13.119   2.558  12.900
28535SOL    HW287503  13.056   2.477  13.011
28536SOL     OW87504   9.764  14.697   1.938
28536SOL    HW187505   9.689  14.640   1.950
28536SOL    HW287506   9.828  14.643   1.891
28537SOL     OW87507   9.183   5.387  13.750
28537SOL    HW187508   9.102   5.392  13.699
28537SOL    HW287509   9.194   5.294  13.770
28538SOL     OW87510  12.009  11.358   2.748
28538SOL    HW187511  12.044  11.387   2.663
28538SOL    HW287512  12.049  11.418   2.811
28539SOL     OW87513   8.992   4.034   5.729
28539SOL    HW187514   8.978   3.945   5.761
28539SOL    HW287515   9.075   4.061   5.770
28540SOL     OW87516  13.121  14.592  13.387
28540SOL    HW187517  13.182  14.585  13.313
28540SOL    HW287518  13.043  14.633  13.350
28541SOL     OW87519   1.790  10.391   7.357
28541SOL    HW187520   1.841  10.414   7.435
28541SOL    HW287521   1.734  10.319   7.386
28542SOL     OW87522   9.101   1.538   8.099
28542SOL    HW187523   9.162   1.604   8.130
28542SOL    HW287524   9.035   1.587   8.050
28543SOL     OW87525  13.460   5.012  12.070
28543SOL    HW187526  13.377   5.055  12.088
28543SOL    HW287527  13.444   4.959  11.991
28544SOL     OW87528   7.725  12.698  12.587
28544SOL    HW187529   7.783  12.724  12.658
28544SOL    HW287530   7.715  12.777  12.534
28545SOL     OW87531   2.563  13.750  11.102
28545SOL    HW187532   2.623  13.815  11.137
28545SOL    HW287533   2.489  13.802  11.068
28546SOL     OW87534  12.888   7.372  11.942
28546SOL    HW187535  12.925   7.380  11.854
28546SOL    HW287536  12.963   7.348  11.997
28547SOL     OW87537   9.489  13.510  11.328
28547SOL    HW187538   9.475  13.439  11.265
28547SOL    HW287539   9.548  13.571  11.283
28548SOL     OW87540  11.538  12.033   8.972
28548SOL    HW187541  11.481  12.058   9.044
28548SOL    HW287542  11.587  12.112   8.951
28549SOL     OW87543  14.381   2.885   8.631
28549SOL    HW187544  14.469   2.859   8.604
28549SOL    HW287545  14.384   2.887   8.726
28550SOL     OW87546   1.517  13.979   1.147
28550SOL    HW187547   1.512  13.884   1.140
28550SOL    HW287548   1.463  14.011   1.074
28551SOL     OW87549   6.069   1.266  13.371
28551SOL    HW187550   6.085   1.273  13.277
28551SOL    HW287551   6.126   1.332  13.411
28552SOL     OW87552   9.519   1.608  11.963
28552SOL    HW187553   9.514   1.513  11.949
28552SOL    HW287554   9.465   1.623  12.040
28553SOL     OW87555   1.532   5.082  14.227
28553SOL    HW187556   1.547   5.117  14.314
28553SOL    HW287557   1.478   5.004  14.241
28554SOL     OW87558  13.887  11.752   4.874
28554SOL    HW187559  13.836  11.752   4.955
28554SOL    HW287560  13.838  11.696   4.814
28555SOL     OW87561   8.209   9.004   2.413
28555SOL    HW187562   8.255   9.019   2.331
28555SOL    HW287563   8.118   9.029   2.395
28556SOL     OW87564   0.447   2.344  13.996
28556SOL    HW187565   0.444   2.410  14.065
28556SOL    HW287566   0.522   2.288  14.019
28557SOL     OW87567  14.689   6.793   4.799
28557SOL    HW187568  14.772   6.799   4.847
28557SOL    HW287569  14.638   6.868   4.831
28558SOL     OW87570  13.402   3.010   4.834
28558SOL    HW187571  13.376   2.999   4.925
28558SOL    HW287572  13.468   3.080   4.836
28559SOL     OW87573  12.506   7.496  12.206
28559SOL    HW187574  12.487   7.582  12.244
28559SOL    HW287575  12.558   7.451  12.274
28560SOL     OW87576  10.694  13.576   9.249
28560SOL    HW187577  10.632  13.643   9.279
28560SOL    HW287578  10.722  13.532   9.329
28561SOL     OW87579   2.824  14.383   3.688
28561SOL    HW187580   2.876  14.305   3.668
28561SOL    HW287581   2.887  14.455   3.683
28562SOL     OW87582   0.117   7.489   6.818
28562SOL    HW187583   0.105   7.409   6.869
28562SOL    HW287584   0.140   7.458   6.730
28563SOL     OW87585   0.605  11.676   1.602
28563SOL    HW187586   0.615  11.624   1.682
28563SOL    HW287587   0.582  11.612   1.535
28564SOL     OW87588  13.370  14.386   7.986
28564SOL    HW187589  13.367  14.410   7.893
28564SOL    HW287590  13.278  14.375   8.011
28565SOL     OW87591   8.382  14.588   6.160
28565SOL    HW187592   8.436  14.615   6.085
28565SOL    HW287593   8.441  14.536   6.215
28566SOL     OW87594   3.486   8.576  12.147
28566SOL    HW187595   3.474   8.494  12.195
28566SOL    HW287596   3.398   8.613  12.141
28567SOL     OW87597   6.286  13.134   7.828
28567SOL    HW187598   6.263  13.217   7.785
28567SOL    HW287599   6.202  13.090   7.841
28568SOL     OW87600   3.701   7.793  10.616
28568SOL    HW187601   3.743   7.823  10.535
28568SOL    HW287602   3.664   7.873  10.654
28569SOL     OW87603   3.774  11.247   2.237
28569SOL    HW187604   3.813  11.314   2.293
28569SOL    HW287605   3.717  11.197   2.295
28570SOL     OW87606   2.731  13.489   5.013
28570SOL    HW187607   2.737  13.493   4.917
28570SOL    HW287608   2.639  13.504   5.032
28571SOL     OW87609  11.161  10.294   6.112
28571SOL    HW187610  11.220  10.370   6.115
28571SOL    HW287611  11.194  10.236   6.181
28572SOL     OW87612   9.166   1.961  13.057
28572SOL    HW187613   9.158   2.009  13.140
28572SOL    HW287614   9.128   2.019  12.992
28573SOL     OW87615  11.777  12.528   2.011
28573SOL    HW187616  11.797  12.475   1.933
28573SOL    HW287617  11.851  12.588   2.019
28574SOL     OW87618  10.407  14.406   7.301
28574SOL    HW187619  10.385  14.449   7.218
28574SOL    HW287620  10.420  14.314   7.278
28575SOL     OW87621   9.592   4.398   4.343
28575SOL    HW187622   9.566   4.328   4.404
28575SOL    HW287623   9.513   4.417   4.293
28576SOL     OW87624  10.346  10.303  13.015
28576SOL    HW187625  10.385  10.248  12.947
28576SOL    HW287626  10.253  10.306  12.993
28577SOL     OW87627   6.778   8.716  12.732
28577SOL    HW187628   6.747   8.632  12.766
28577SOL    HW287629   6.846   8.693  12.669
28578SOL     OW87630   3.864   0.536   7.298
28578SOL    HW187631   3.815   0.615   7.322
28578SOL    HW287632   3.866   0.484   7.378
28579SOL     OW87633  13.936   2.957  11.293
28579SOL    HW187634  13.844   2.939  11.310
28579SOL    HW287635  13.937   3.047  11.260
28580SOL     OW87636   5.806   0.581  10.670
28580SOL    HW187637   5.792   0.517  10.600
28580SOL    HW287638   5.753   0.656  10.645
28581SOL     OW87639   8.454   3.407   8.316
28581SOL    HW187640   8.492   3.379   8.232
28581SOL    HW287641   8.529   3.441   8.366
28582SOL     OW87642   1.999   4.008  12.223
28582SOL    HW187643   2.012   4.025  12.130
28582SOL    HW287644   2.079   4.037  12.265
28583SOL     OW87645  11.480   0.383  14.581
28583SOL    HW187646  11.419   0.429  14.523
28583SOL    HW287647  11.506   0.448  14.646
28584SOL     OW87648   4.627   5.582   4.252
28584SOL    HW187649   4.590   5.669   4.267
28584SOL    HW287650   4.665   5.587   4.164
28585SOL     OW87651   9.868  14.776   6.699
28585SOL    HW187652   9.837  14.818   6.618
28585SOL    HW287653   9.791  14.774   6.756
28586SOL     OW87654   1.389   5.747   1.270
28586SOL    HW187655   1.411   5.666   1.223
28586SOL    HW287656   1.305   5.728   1.311
28587SOL     OW87657   9.366   3.750   2.896
28587SOL    HW187658   9.363   3.842   2.921
28587SOL    HW287659   9.457   3.724   2.915
28588SOL     OW87660  13.624   3.212  10.505
28588SOL    HW187661  13.582   3.224  10.590
28588SOL    HW287662  13.713   3.184  10.526
28589SOL     OW87663  12.906   1.882   8.560
28589SOL    HW187664  12.948   1.823   8.623
28589SOL    HW287665  12.845   1.826   8.513
28590SOL     OW87666   9.993  10.605  11.517
28590SOL    HW187667   9.964  10.514  11.515
28590SOL    HW287668   9.920  10.655  11.480
28591SOL     OW87669   5.105   3.598   0.520
28591SOL    HW187670   5.011   3.592   0.541
28591SOL    HW287671   5.113   3.556   0.435
28592SOL     OW87672  10.229   1.947  12.357
28592SOL    HW187673  10.181   2.029  12.362
28592SOL    HW287674  10.161   1.880  12.346
28593SOL     OW87675   4.198   7.540  13.856
28593SOL    HW187676   4.284   7.499  13.844
28593SOL    HW287677   4.159   7.492  13.929
28594SOL     OW87678   0.817   9.435   7.459
28594SOL    HW187679   0.793   9.358   7.409
28594SOL    HW287680   0.828   9.403   7.549
28595SOL     OW87681   7.191  13.716   8.981
28595SOL    HW187682   7.112  13.680   9.022
28595SOL    HW287683   7.159  13.776   8.914
28596SOL     OW87684  11.199  11.494  12.741
28596SOL    HW187685  11.281  11.482  12.788
28596SOL    HW287686  11.131  11.490  12.808
28597SOL     OW87687   7.836  12.076   7.033
28597SOL    HW187688   7.890  12.023   6.975
28597SOL    HW287689   7.758  12.096   6.981
28598SOL     OW87690   4.671   9.841   6.627
28598SOL    HW187691   4.627   9.764   6.661
28598SOL    HW287692   4.762   9.832   6.655
28599SOL     OW87693  12.217   8.091   8.844
28599SOL    HW187694  12.270   8.020   8.881
28599SOL    HW287695  12.127   8.065   8.862
28600SOL     OW87696   9.721   1.808  13.780
28600SOL    HW187697   9.764   1.735  13.823
28600SOL    HW287698   9.669   1.767  13.711
28601SOL     OW87699  12.468   9.092   6.368
28601SOL    HW187700  12.525   9.032   6.416
28601SOL    HW287701  12.383   9.084   6.410
28602SOL     OW87702   2.708   4.279   4.328
28602SOL    HW187703   2.671   4.315   4.409
28602SOL    HW287704   2.793   4.243   4.355
28603SOL     OW87705   2.291  14.524   5.140
28603SOL    HW187706   2.386  14.523   5.129
28603SOL    HW287707   2.256  14.518   5.051
28604SOL     OW87708  13.026   6.713   2.991
28604SOL    HW187709  13.054   6.675   2.908
28604SOL    HW287710  12.934   6.736   2.976
28605SOL     OW87711  12.718  12.195  12.199
28605SOL    HW187712  12.696  12.120  12.144
28605SOL    HW287713  12.791  12.165  12.253
28606SOL     OW87714   1.413   4.268  14.314
28606SOL    HW187715   1.460   4.236  14.236
28606SOL    HW287716   1.447   4.214  14.386
28607SOL     OW87717   6.435  10.222   2.499
28607SOL    HW187718   6.438  10.314   2.524
28607SOL    HW287719   6.507  10.211   2.437
28608SOL     OW87720  12.897   9.434   1.274
28608SOL    HW187721  12.829   9.478   1.325
28608SOL    HW287722  12.882   9.464   1.184
28609SOL     OW87723   3.475   3.705   0.135
28609SOL    HW187724   3.415   3.672   0.202
28609SOL    HW287725   3.453   3.798   0.127
28610SOL     OW87726   6.571  12.768  12.741
28610SOL    HW187727   6.549  12.781  12.833
28610SOL    HW287728   6.590  12.857  12.709
28611SOL     OW87729  14.061   5.431  10.571
28611SOL    HW187730  14.131   5.457  10.512
28611SOL    HW287731  13.990   5.492  10.553
28612SOL     OW87732  10.252   1.553   6.821
28612SOL    HW187733  10.199   1.593   6.890
28612SOL    HW287734  10.211   1.467   6.806
28613SOL     OW87735  11.444   1.352  13.826
28613SOL    HW187736  11.425   1.258  13.820
28613SOL    HW287737  11.364   1.390  13.862
28614SOL     OW87738   3.823   1.791   6.545
28614SOL    HW187739   3.886   1.752   6.606
28614SOL    HW287740   3.790   1.868   6.592
28615SOL     OW87741   6.384   5.523   1.448
28615SOL    HW187742   6.395   5.589   1.380
28615SOL    HW287743   6.298   5.485   1.432
28616SOL     OW87744   1.430   1.522   6.332
28616SOL    HW187745   1.341   1.529   6.366
28616SOL    HW287746   1.430   1.441   6.280
28617SOL     OW87747   9.563   9.140   3.354
28617SOL    HW187748   9.497   9.204   3.329
28617SOL    HW287749   9.637   9.192   3.384
28618SOL     OW87750   9.927  11.331   3.134
28618SOL    HW187751   9.960  11.417   3.162
28618SOL    HW287752  10.002  11.288   3.095
28619SOL     OW87753   7.325   6.186   5.774
28619SOL    HW187754   7.303   6.093   5.779
28619SOL    HW287755   7.384   6.201   5.848
28620SOL     OW87756   5.856   4.751  14.768
28620SOL    HW187757   5.870   4.666  14.808
28620SOL    HW287758   5.768   4.746  14.731
28621SOL     OW87759   6.701   2.858   2.461
28621SOL    HW187760   6.644   2.896   2.527
28621SOL    HW287761   6.769   2.923   2.446
28622SOL     OW87762   0.528   3.805  13.563
28622SOL    HW187763   0.487   3.770  13.642
28622SOL    HW287764   0.460   3.859  13.523
28623SOL     OW87765   3.573   8.121  13.569
28623SOL    HW187766   3.511   8.053  13.598
28623SOL    HW287767   3.592   8.099  13.478
28624SOL     OW87768   8.691   7.096   1.248
28624SOL    HW187769   8.680   7.032   1.178
28624SOL    HW287770   8.752   7.054   1.309
28625SOL     OW87771   0.990  11.841   7.924
28625SOL    HW187772   0.986  11.763   7.869
28625SOL    HW287773   1.045  11.816   7.998
28626SOL     OW87774  11.639  12.864   9.490
28626SOL    HW187775  11.703  12.793   9.489
28626SOL    HW287776  11.666  12.922   9.418
28627SOL     OW87777   4.616  10.059  12.167
28627SOL    HW187778   4.546  10.008  12.126
28627SOL    HW287779   4.572  10.137  12.201
28628SOL     OW87780   5.547  14.356   1.981
28628SOL    HW187781   5.574  14.402   1.902
28628SOL    HW287782   5.510  14.274   1.949
28629SOL     OW87783  11.550   3.644  11.929
28629SOL    HW187784  11.554   3.636  11.834
28629SOL    HW287785  11.472   3.698  11.945
28630SOL     OW87786  13.171   4.441  14.053
28630SOL    HW187787  13.197   4.360  14.010
28630SOL    HW287788  13.247   4.464  14.107
28631SOL     OW87789   7.551   3.334  11.832
28631SOL    HW187790   7.526   3.385  11.909
28631SOL    HW287791   7.612   3.391  11.784
28632SOL     OW87792   6.468   8.780   8.963
28632SOL    HW187793   6.552   8.751   8.927
28632SOL    HW287794   6.413   8.702   8.961
28633SOL     OW87795   1.826  10.402  12.680
28633SOL    HW187796   1.917  10.388  12.653
28633SOL    HW287797   1.774  10.359  12.612
28634SOL     OW87798   0.837   9.960   3.124
28634SOL    HW187799   0.841   9.926   3.213
28634SOL    HW287800   0.885  10.043   3.128
28635SOL     OW87801   0.593   6.775   5.603
28635SOL    HW187802   0.672   6.724   5.589
28635SOL    HW287803   0.589   6.835   5.528
28636SOL     OW87804  14.179  13.494  12.396
28636SOL    HW187805  14.155  13.580  12.431
28636SOL    HW287806  14.273  13.488  12.412
28637SOL     OW87807   0.732   4.062   2.839
28637SOL    HW187808   0.731   4.157   2.834
28637SOL    HW287809   0.656   4.034   2.787
28638SOL     OW87810  13.290   5.756   7.317
28638SOL    HW187811  13.378   5.792   7.315
28638SOL    HW287812  13.233   5.832   7.307
28639SOL     OW87813   1.166   5.199   8.076
28639SOL    HW187814   1.177   5.290   8.102
28639SOL    HW287815   1.252   5.159   8.090
28640SOL     OW87816   9.630  11.918   0.253
28640SOL    HW187817   9.688  11.985   0.215
28640SOL    HW287818   9.644  11.924   0.347
28641SOL     OW87819  10.827  13.956  13.420
28641SOL    HW187820  10.916  13.988  13.404
28641SOL    HW287821  10.770  14.028  13.393
28642SOL     OW87822   5.470   0.622  12.876
28642SOL    HW187823   5.542   0.683  12.890
28642SOL    HW287824   5.450   0.587  12.963
28643SOL     OW87825  14.607   8.762   3.162
28643SOL    HW187826  14.555   8.838   3.136
28643SOL    HW287827  14.544   8.690   3.166
28644SOL     OW87828  11.778  12.105   0.626
28644SOL    HW187829  11.698  12.091   0.676
28644SOL    HW287830  11.848  12.094   0.691
28645SOL     OW87831   4.584   1.574   4.561
28645SOL    HW187832   4.547   1.568   4.473
28645SOL    HW287833   4.621   1.487   4.578
28646SOL     OW87834   3.704   7.502   3.209
28646SOL    HW187835   3.630   7.440   3.213
28646SOL    HW287836   3.782   7.447   3.217
28647SOL     OW87837  14.692   7.014  11.109
28647SOL    HW187838  14.677   6.920  11.122
28647SOL    HW287839  14.643   7.056  11.180
28648SOL     OW87840   7.319   3.085   1.620
28648SOL    HW187841   7.231   3.116   1.600
28648SOL    HW287842   7.321   3.077   1.715
28649SOL     OW87843   5.916  12.942   7.471
28649SOL    HW187844   5.888  13.020   7.519
28649SOL    HW287845   5.984  12.903   7.526
28650SOL     OW87846   0.607   7.651   0.333
28650SOL    HW187847   0.512   7.641   0.346
28650SOL    HW287848   0.619   7.646   0.238
28651SOL     OW87849  11.553   8.190  11.798
28651SOL    HW187850  11.571   8.283  11.809
28651SOL    HW287851  11.461   8.180  11.823
28652SOL     OW87852   7.517  10.645  10.229
28652SOL    HW187853   7.484  10.557  10.210
28652SOL    HW287854   7.441  10.691  10.265
28653SOL     OW87855   5.942   8.077  13.484
28653SOL    HW187856   5.993   8.038  13.555
28653SOL    HW287857   5.852   8.049  13.500
28654SOL     OW87858   1.451   1.599   5.432
28654SOL    HW187859   1.377   1.578   5.489
28654SOL    HW287860   1.528   1.582   5.486
28655SOL     OW87861   0.852  13.045   0.276
28655SOL    HW187862   0.938  13.082   0.257
28655SOL    HW287863   0.856  13.023   0.369
28656SOL     OW87864   5.372  14.154   9.826
28656SOL    HW187865   5.316  14.120   9.756
28656SOL    HW287866   5.423  14.078   9.854
28657SOL     OW87867  12.729  12.622  12.500
28657SOL    HW187868  12.682  12.587  12.424
28657SOL    HW287869  12.788  12.688  12.463
28658SOL     OW87870   5.101   7.855   5.724
28658SOL    HW187871   5.157   7.850   5.647
28658SOL    HW287872   5.148   7.804   5.791
28659SOL     OW87873  14.636   2.169   1.926
28659SOL    HW187874  14.618   2.085   1.970
28659SOL    HW287875  14.711   2.204   1.973
28660SOL     OW87876  11.586   0.185   2.650
28660SOL    HW187877  11.614   0.153   2.564
28660SOL    HW287878  11.516   0.125   2.676
28661SOL     OW87879   5.434   2.642  14.704
28661SOL    HW187880   5.499   2.672  14.768
28661SOL    HW287881   5.485   2.619  14.626
28662SOL     OW87882   1.780  13.826   2.979
28662SOL    HW187883   1.775  13.761   2.909
28662SOL    HW287884   1.866  13.867   2.966
28663SOL     OW87885  11.753   7.776   3.137
28663SOL    HW187886  11.688   7.844   3.119
28663SOL    HW287887  11.800   7.809   3.215
28664SOL     OW87888   1.587   9.707   9.482
28664SOL    HW187889   1.540   9.678   9.560
28664SOL    HW287890   1.533   9.777   9.446
28665SOL     OW87891  14.534  12.649  11.500
28665SOL    HW187892  14.498  12.565  11.474
28665SOL    HW287893  14.623  12.630  11.529
28666SOL     OW87894  14.276   2.185   9.028
28666SOL    HW187895  14.256   2.185   9.121
28666SOL    HW287896  14.310   2.273   9.010
28667SOL     OW87897  11.035   4.764  12.410
28667SOL    HW187898  11.072   4.773  12.322
28667SOL    HW287899  11.074   4.836  12.460
28668SOL     OW87900  10.891   1.940   4.072
28668SOL    HW187901  10.799   1.967   4.072
28668SOL    HW287902  10.919   1.951   4.163
28669SOL     OW87903   6.807   9.205   4.151
28669SOL    HW187904   6.761   9.150   4.087
28669SOL    HW287905   6.894   9.166   4.158
28670SOL     OW87906  11.520   3.257   6.573
28670SOL    HW187907  11.521   3.301   6.658
28670SOL    HW287908  11.429   3.266   6.543
28671SOL     OW87909   5.608   7.464   5.242
28671SOL    HW187910   5.523   7.502   5.264
28671SOL    HW287911   5.655   7.459   5.325
28672SOL     OW87912   1.324   3.646   9.218
28672SOL    HW187913   1.255   3.684   9.272
28672SOL    HW287914   1.338   3.558   9.254
28673SOL     OW87915  13.547   2.373   1.854
28673SOL    HW187916  13.502   2.333   1.779
28673SOL    HW287917  13.636   2.389   1.822
28674SOL     OW87918   9.479   8.841   9.363
28674SOL    HW187919   9.507   8.798   9.443
28674SOL    HW287920   9.419   8.910   9.391
28675SOL     OW87921  12.172   6.065  12.528
28675SOL    HW187922  12.219   6.148  12.528
28675SOL    HW287923  12.146   6.053  12.436
28676SOL     OW87924   4.918  12.767   4.302
28676SOL    HW187925   4.999  12.793   4.346
28676SOL    HW287926   4.862  12.735   4.373
28677SOL     OW87927  13.129   3.294  11.900
28677SOL    HW187928  13.191   3.312  11.829
28677SOL    HW287929  13.178   3.238  11.960
28678SOL     OW87930  14.700   1.889   0.436
28678SOL    HW187931  14.635   1.918   0.371
28678SOL    HW287932  14.662   1.914   0.520
28679SOL     OW87933   2.716   1.218   9.885
28679SOL    HW187934   2.765   1.216   9.803
28679SOL    HW287935   2.654   1.290   9.874
28680SOL     OW87936   9.244   8.569  10.062
28680SOL    HW187937   9.172   8.533  10.012
28680SOL    HW287938   9.216   8.659  10.083
28681SOL     OW87939  10.190   8.777  13.247
28681SOL    HW187940  10.165   8.816  13.331
28681SOL    HW287941  10.283   8.794  13.240
28682SOL     OW87942   7.224   5.998   7.365
28682SOL    HW187943   7.271   6.051   7.300
28682SOL    HW287944   7.155   6.056   7.398
28683SOL     OW87945   4.800   5.682  13.176
28683SOL    HW187946   4.813   5.677  13.271
28683SOL    HW287947   4.886   5.668  13.138
28684SOL     OW87948  13.727  14.821   5.211
28684SOL    HW187949  13.738  14.726   5.203
28684SOL    HW287950  13.809  14.852   5.251
28685SOL     OW87951   1.778   2.785  11.332
28685SOL    HW187952   1.871   2.762  11.333
28685SOL    HW287953   1.738   2.718  11.276
28686SOL     OW87954   9.096   3.047  11.919
28686SOL    HW187955   9.125   2.988  11.988
28686SOL    HW287956   9.018   3.005  11.883
28687SOL     OW87957   1.975   1.528   9.722
28687SOL    HW187958   1.921   1.540   9.800
28687SOL    HW287959   2.045   1.470   9.750
28688SOL     OW87960   0.610   9.660  10.144
28688SOL    HW187961   0.621   9.701  10.230
28688SOL    HW287962   0.608   9.566  10.163
28689SOL     OW87963   2.412  10.004  10.831
28689SOL    HW187964   2.422  10.079  10.772
28689SOL    HW287965   2.499   9.990  10.867
28690SOL     OW87966  14.729   3.835  13.018
28690SOL    HW187967  14.667   3.868  12.953
28690SOL    HW287968  14.782   3.911  13.042
28691SOL     OW87969   1.190  11.097   4.826
28691SOL    HW187970   1.211  11.145   4.746
28691SOL    HW287971   1.169  11.165   4.890
28692SOL     OW87972   2.119   8.144   9.082
28692SOL    HW187973   2.178   8.105   9.145
28692SOL    HW287974   2.176   8.187   9.018
28693SOL     OW87975   2.388   8.895  10.177
28693SOL    HW187976   2.319   8.928  10.120
28693SOL    HW287977   2.353   8.906  10.265
28694SOL     OW87978   2.778   8.838   6.294
28694SOL    HW187979   2.799   8.846   6.387
28694SOL    HW287980   2.733   8.920   6.272
28695SOL     OW87981  14.675   5.792   8.021
28695SOL    HW187982  14.622   5.712   8.018
28695SOL    HW287983  14.766   5.761   8.024
28696SOL     OW87984   1.041   2.251  14.593
28696SOL    HW187985   1.112   2.192  14.617
28696SOL    HW287986   1.084   2.328  14.558
28697SOL     OW87987  13.841   2.817   8.951
28697SOL    HW187988  13.836   2.893   9.008
28697SOL    HW287989  13.796   2.747   8.999
28698SOL     OW87990   9.937   4.231   4.870
28698SOL    HW187991   9.847   4.228   4.838
28698SOL    HW287992   9.984   4.169   4.815
28699SOL     OW87993   3.127  10.481   7.656
28699SOL    HW187994   3.169  10.477   7.570
28699SOL    HW287995   3.050  10.535   7.642
28700SOL     OW87996   9.296   5.062   8.355
28700SOL    HW187997   9.222   5.034   8.409
28700SOL    HW287998   9.374   5.041   8.406
28701SOL     OW87999  11.004  14.012   6.165
28701SOL    HW188000  10.972  13.981   6.249
28701SOL    HW288001  10.938  14.074   6.135
28702SOL     OW88002   5.585   9.174  10.793
28702SOL    HW188003   5.598   9.199  10.884
28702SOL    HW288004   5.558   9.255  10.750
28703SOL     OW88005   9.735   7.806  11.415
28703SOL    HW188006   9.688   7.883  11.383
28703SOL    HW288007   9.671   7.760  11.471
28704SOL     OW88008  11.640  12.441   9.325
28704SOL    HW188009  11.679  12.358   9.297
28704SOL    HW288010  11.670  12.505   9.260
28705SOL     OW88011   0.814   9.079   3.866
28705SOL    HW188012   0.860   9.062   3.948
28705SOL    HW288013   0.881   9.068   3.798
28706SOL     OW88014   7.558  11.616   6.239
28706SOL    HW188015   7.510  11.544   6.280
28706SOL    HW288016   7.646  11.611   6.276
28707SOL     OW88017   1.012   2.789   8.043
28707SOL    HW188018   0.996   2.882   8.062
28707SOL    HW288019   1.048   2.755   8.124
28708SOL     OW88020   4.896  12.999  12.370
28708SOL    HW188021   4.985  13.024  12.346
28708SOL    HW288022   4.863  12.950  12.295
28709SOL     OW88023   6.834   5.321  11.641
28709SOL    HW188024   6.906   5.383  11.651
28709SOL    HW288025   6.824   5.283  11.729
28710SOL     OW88026   2.139   9.575  10.206
28710SOL    HW188027   2.137   9.482  10.225
28710SOL    HW288028   2.197   9.583  10.130
28711SOL     OW88029   9.760   7.403  11.030
28711SOL    HW188030   9.791   7.427  11.117
28711SOL    HW288031   9.823   7.441  10.970
28712SOL     OW88032   3.990   4.890  12.804
28712SOL    HW188033   3.989   4.982  12.832
28712SOL    HW288034   3.902   4.875  12.770
28713SOL     OW88035  10.746  13.387   0.838
28713SOL    HW188036  10.788  13.386   0.924
28713SOL    HW288037  10.817  13.368   0.776
28714SOL     OW88038   0.278   6.921  14.412
28714SOL    HW188039   0.235   6.952  14.332
28714SOL    HW288040   0.219   6.855  14.447
28715SOL     OW88041   6.486   6.249  12.260
28715SOL    HW188042   6.561   6.215  12.212
28715SOL    HW288043   6.431   6.172  12.276
28716SOL     OW88044   1.154   7.044   1.842
28716SOL    HW188045   1.090   7.081   1.781
28716SOL    HW288046   1.104   6.981   1.893
28717SOL     OW88047  10.538   2.332   4.316
28717SOL    HW188048  10.612   2.368   4.365
28717SOL    HW288049  10.469   2.322   4.381
28718SOL     OW88050  12.477   2.612  10.802
28718SOL    HW188051  12.449   2.656  10.722
28718SOL    HW288052  12.398   2.572  10.838
28719SOL     OW88053  12.532   8.561   6.536
28719SOL    HW188054  12.469   8.533   6.603
28719SOL    HW288055  12.615   8.567   6.582
28720SOL     OW88056   0.649   2.571  12.541
28720SOL    HW188057   0.708   2.543  12.471
28720SOL    HW288058   0.703   2.566  12.620
28721SOL     OW88059  13.666  12.460   5.908
28721SOL    HW188060  13.649  12.395   5.839
28721SOL    HW288061  13.662  12.410   5.989
28722SOL     OW88062  10.103  11.777  14.174
28722SOL    HW188063  10.015  11.777  14.212
28722SOL    HW288064  10.122  11.869  14.156
28723SOL     OW88065   5.869   3.101  14.060
28723SOL    HW188066   5.950   3.150  14.075
28723SOL    HW288067   5.800   3.167  14.058
28724SOL     OW88068  10.197   2.529  10.632
28724SOL    HW188069  10.198   2.449  10.578
28724SOL    HW288070  10.113   2.526  10.677
28725SOL     OW88071  11.398   0.004   4.158
28725SOL    HW188072  11.414  14.879   4.253
28725SOL    HW288073  11.459  14.821   4.120
28726SOL     OW88074   2.381   9.469  13.253
28726SOL    HW188075   2.308   9.411  13.272
28726SOL    HW288076   2.381   9.533  13.324
28727SOL     OW88077   1.993   8.493   5.418
28727SOL    HW188078   2.071   8.446   5.448
28727SOL    HW288079   1.980   8.462   5.329
28728SOL     OW88080   8.548   9.035  13.253
28728SOL    HW188081   8.638   9.019  13.225
28728SOL    HW288082   8.543   8.998  13.341
28729SOL     OW88083  14.446  11.202   2.018
28729SOL    HW188084  14.516  11.183   2.080
28729SOL    HW288085  14.372  11.149   2.048
28730SOL     OW88086   6.636   4.013   5.715
28730SOL    HW188087   6.566   4.007   5.780
28730SOL    HW288088   6.651   3.922   5.688
28731SOL     OW88089  10.286  14.808  11.604
28731SOL    HW188090  10.285  14.763  11.520
28731SOL    HW288091  10.330   0.011  11.585
28732SOL     OW88092   4.729   6.307   1.651
28732SOL    HW188093   4.807   6.343   1.610
28732SOL    HW288094   4.722   6.218   1.618
28733SOL     OW88095   6.223   4.118   7.655
28733SOL    HW188096   6.184   4.107   7.568
28733SOL    HW288097   6.239   4.028   7.686
28734SOL     OW88098   4.462  12.270  13.486
28734SOL    HW188099   4.546  12.274  13.440
28734SOL    HW288100   4.463  12.185  13.530
28735SOL     OW88101  13.713   1.408  11.947
28735SOL    HW188102  13.710   1.386  11.854
28735SOL    HW288103  13.793   1.460  11.956
28736SOL     OW88104   0.292  11.874   6.436
28736SOL    HW188105   0.263  11.901   6.349
28736SOL    HW288106   0.351  11.944   6.464
28737SOL     OW88107  11.560   8.186   0.720
28737SOL    HW188108  11.653   8.206   0.720
28737SOL    HW288109  11.540   8.164   0.811
28738SOL     OW88110   9.052   7.028   0.564
28738SOL    HW188111   9.029   6.963   0.631
28738SOL    HW288112   9.056   7.111   0.612
28739SOL     OW88113   2.626   9.992   5.464
28739SOL    HW188114   2.633  10.087   5.472
28739SOL    HW288115   2.635   9.959   5.553
28740SOL     OW88116   0.758  13.474  13.387
28740SOL    HW188117   0.832  13.444  13.440
28740SOL    HW288118   0.682  13.461  13.444
28741SOL     OW88119  10.619   8.649   9.598
28741SOL    HW188120  10.641   8.615   9.511
28741SOL    HW288121  10.571   8.577   9.640
28742SOL     OW88122  11.961   6.420   3.438
28742SOL    HW188123  11.901   6.443   3.509
28742SOL    HW288124  11.941   6.482   3.369
28743SOL     OW88125   3.311   4.091   9.353
28743SOL    HW188126   3.249   4.019   9.342
28743SOL    HW288127   3.270   4.148   9.419
28744SOL     OW88128   8.614   6.560   9.706
28744SOL    HW188129   8.589   6.469   9.690
28744SOL    HW288130   8.582   6.579   9.794
28745SOL     OW88131   1.930   1.047   5.312
28745SOL    HW188132   2.018   1.046   5.276
28745SOL    HW288133   1.876   1.088   5.244
28746SOL     OW88134   2.505   3.095   5.038
28746SOL    HW188135   2.567   3.121   4.970
28746SOL    HW288136   2.520   3.157   5.109
28747SOL     OW88137   9.781   8.759   6.361
28747SOL    HW188138   9.815   8.765   6.451
28747SOL    HW288139   9.688   8.742   6.372
28748SOL     OW88140  11.392   4.909   7.329
28748SOL    HW188141  11.313   4.876   7.286
28748SOL    HW288142  11.424   4.834   7.380
28749SOL     OW88143   7.049  14.429  12.791
28749SOL    HW188144   7.068  14.346  12.749
28749SOL    HW288145   7.066  14.414  12.884
28750SOL     OW88146  14.340  12.781   0.777
28750SOL    HW188147  14.342  12.764   0.871
28750SOL    HW288148  14.307  12.870   0.769
28751SOL     OW88149   4.740  13.698   9.127
28751SOL    HW188150   4.742  13.780   9.079
28751SOL    HW288151   4.707  13.722   9.214
28752SOL     OW88152   8.905  13.230   1.146
28752SOL    HW188153   8.971  13.241   1.077
28752SOL    HW288154   8.851  13.156   1.116
28753SOL     OW88155  14.069  10.299   5.423
28753SOL    HW188156  14.160  10.281   5.401
28753SOL    HW288157  14.052  10.247   5.502
28754SOL     OW88158  10.104   4.519   7.718
28754SOL    HW188159  10.010   4.506   7.729
28754SOL    HW288160  10.142   4.432   7.724
28755SOL     OW88161   7.501   1.097   0.746
28755SOL    HW188162   7.411   1.111   0.777
28755SOL    HW288163   7.538   1.185   0.740
28756SOL     OW88164   2.807  14.869   5.952
28756SOL    HW188165   2.868   0.062   5.964
28756SOL    HW288166   2.761   0.009   5.871
28757SOL     OW88167  11.739  14.212  13.474
28757SOL    HW188168  11.831  14.189  13.484
28757SOL    HW288169  11.697  14.181  13.554
28758SOL     OW88170  14.769   9.278   5.586
28758SOL    HW188171  14.813   9.356   5.620
28758SOL    HW288172  14.770   9.290   5.491
28759SOL     OW88173  13.311  11.298  14.855
28759SOL    HW188174  13.367  11.288   0.052
28759SOL    HW288175  13.339  11.380  14.815
28760SOL     OW88176   9.751   4.819   9.395
28760SOL    HW188177   9.758   4.792   9.487
28760SOL    HW288178   9.706   4.904   9.399
28761SOL     OW88179   9.051   7.033   8.995
28761SOL    HW188180   9.006   7.110   9.028
28761SOL    HW288181   9.120   7.068   8.938
28762SOL     OW88182   7.213  14.743   8.317
28762SOL    HW188183   7.161  14.732   8.397
28762SOL    HW288184   7.258  14.826   8.329
28763SOL     OW88185   2.711  11.018  14.592
28763SOL    HW188186   2.758  11.095  14.561
28763SOL    HW288187   2.720  10.954  14.521
28764SOL     OW88188   4.256   7.379  12.584
28764SOL    HW188189   4.219   7.464  12.559
28764SOL    HW288190   4.293   7.345  12.503
28765SOL     OW88191   3.473   7.194   8.754
28765SOL    HW188192   3.457   7.103   8.729
28765SOL    HW288193   3.427   7.245   8.687
28766SOL     OW88194   4.686   7.371   0.606
28766SOL    HW188195   4.752   7.387   0.539
28766SOL    HW288196   4.703   7.282   0.636
28767SOL     OW88197   7.100   8.408  11.869
28767SOL    HW188198   7.011   8.434  11.893
28767SOL    HW288199   7.134   8.363  11.947
28768SOL     OW88200  11.858   0.983   6.259
28768SOL    HW188201  11.861   0.961   6.352
28768SOL    HW288202  11.930   0.934   6.220
28769SOL     OW88203   9.926   5.222  12.405
28769SOL    HW188204   9.855   5.173  12.362
28769SOL    HW288205   9.967   5.159  12.464
28770SOL     OW88206   8.685   4.490   5.915
28770SOL    HW188207   8.707   4.457   6.002
28770SOL    HW288208   8.592   4.510   5.919
28771SOL     OW88209   3.752   1.979   1.032
28771SOL    HW188210   3.775   1.910   1.094
28771SOL    HW288211   3.689   2.034   1.079
28772SOL     OW88212  13.117  13.071  13.556
28772SOL    HW188213  13.042  13.041  13.607
28772SOL    HW288214  13.176  13.109  13.622
28773SOL     OW88215   5.543  12.311   8.846
28773SOL    HW188216   5.486  12.245   8.806
28773SOL    HW288217   5.525  12.304   8.940
28774SOL     OW88218   5.187   6.363  11.940
28774SOL    HW188219   5.206   6.443  11.988
28774SOL    HW288220   5.271   6.317  11.935
28775SOL     OW88221  13.393   2.582   6.813
28775SOL    HW188222  13.447   2.565   6.735
28775SOL    HW288223  13.303   2.577   6.781
28776SOL     OW88224   9.641   4.717   9.038
28776SOL    HW188225   9.675   4.770   8.966
28776SOL    HW288226   9.678   4.631   9.024
28777SOL     OW88227   5.423  13.996   5.969
28777SOL    HW188228   5.376  14.015   5.888
28777SOL    HW288229   5.508  14.040   5.958
28778SOL     OW88230   1.522  12.414  13.510
28778SOL    HW188231   1.535  12.334  13.459
28778SOL    HW288232   1.566  12.482  13.458
28779SOL     OW88233   5.483  11.389   3.689
28779SOL    HW188234   5.513  11.438   3.613
28779SOL    HW288235   5.544  11.315   3.695
28780SOL     OW88236  10.587  13.590   3.628
28780SOL    HW188237  10.628  13.659   3.681
28780SOL    HW288238  10.651  13.570   3.561
28781SOL     OW88239   0.082   6.473   5.704
28781SOL    HW188240   0.162   6.503   5.748
28781SOL    HW288241   0.015   6.476   5.772
28782SOL     OW88242  12.135  12.624  10.606
28782SOL    HW188243  12.222  12.582  10.601
28782SOL    HW288244  12.088  12.590  10.530
28783SOL     OW88245   5.875   1.992   4.954
28783SOL    HW188246   5.909   1.903   4.958
28783SOL    HW288247   5.781   1.982   4.944
28784SOL     OW88248   1.013   0.170   3.757
28784SOL    HW188249   0.961   0.091   3.769
28784SOL    HW288250   1.104   0.141   3.764
28785SOL     OW88251   7.916   4.820   0.002
28785SOL    HW188252   7.875   4.902   0.028
28785SOL    HW288253   7.920   4.823  14.787
28786SOL     OW88254  12.396   0.538   9.288
28786SOL    HW188255  12.471   0.516   9.233
28786SOL    HW288256  12.401   0.476   9.361
28787SOL     OW88257  10.503   9.861   8.199
28787SOL    HW188258  10.528   9.882   8.289
28787SOL    HW288259  10.412   9.832   8.206
28788SOL     OW88260   2.580   0.009   1.856
28788SOL    HW188261   2.624   0.062   1.790
28788SOL    HW288262   2.646  14.874   1.923
28789SOL     OW88263   2.798   9.464  10.348
28789SOL    HW188264   2.820   9.473  10.255
28789SOL    HW288265   2.782   9.553  10.378
28790SOL     OW88266  13.178  14.501  11.058
28790SOL    HW188267  13.188  14.541  11.145
28790SOL    HW288268  13.251  14.535  11.008
28791SOL     OW88269  10.743  10.245   7.597
28791SOL    HW188270  10.770  10.283   7.514
28791SOL    HW288271  10.692  10.167   7.573
28792SOL     OW88272  10.007   6.135   9.390
28792SOL    HW188273  10.041   6.160   9.476
28792SOL    HW288274   9.989   6.218   9.345
28793SOL     OW88275   5.305   1.665   3.378
28793SOL    HW188276   5.253   1.625   3.308
28793SOL    HW288277   5.240   1.695   3.441
28794SOL     OW88278   9.790   4.725  14.171
28794SOL    HW188279   9.819   4.816  14.165
28794SOL    HW288280   9.827   4.683  14.093
28795SOL     OW88281  12.015   3.160   4.772
28795SOL    HW188282  12.096   3.209   4.790
28795SOL    HW288283  11.969   3.212   4.706
28796SOL     OW88284   9.687  10.451   9.141
28796SOL    HW188285   9.751  10.379   9.141
28796SOL    HW288286   9.677  10.473   9.234
28797SOL     OW88287  13.257   4.667   9.246
28797SOL    HW188288  13.278   4.611   9.321
28797SOL    HW288289  13.333   4.659   9.188
28798SOL     OW88290   0.986   4.848   0.913
28798SOL    HW188291   1.045   4.843   0.838
28798SOL    HW288292   0.899   4.859   0.874
28799SOL     OW88293   8.418   0.448   0.580
28799SOL    HW188294   8.509   0.452   0.550
28799SOL    HW288295   8.411   0.517   0.646
28800SOL     OW88296   6.931  11.137   3.552
28800SOL    HW188297   7.026  11.138   3.539
28800SOL    HW288298   6.897  11.085   3.479
28801SOL     OW88299   0.923   5.019   5.639
28801SOL    HW188300   0.952   5.060   5.720
28801SOL    HW288301   0.831   4.997   5.654
28802SOL     OW88302   8.429   8.634  12.430
28802SOL    HW188303   8.378   8.644  12.510
28802SOL    HW288304   8.376   8.675  12.362
28803SOL     OW88305   9.426  14.812   0.056
28803SOL    HW188306   9.463  14.747  14.876
28803SOL    HW288307   9.380  14.760   0.121
28804SOL     OW88308   9.825   0.261   2.268
28804SOL    HW188309   9.895   0.196   2.278
28804SOL    HW288310   9.861   0.342   2.304
28805SOL     OW88311  13.477   4.124   7.570
28805SOL    HW188312  13.415   4.055   7.594
28805SOL    HW288313  13.547   4.117   7.634
28806SOL     OW88314   8.522   9.745   1.838
28806SOL    HW188315   8.548   9.811   1.773
28806SOL    HW288316   8.568   9.666   1.810
28807SOL     OW88317  11.743   6.817  12.083
28807SOL    HW188318  11.678   6.887  12.082
28807SOL    HW288319  11.693   6.738  12.105
28808SOL     OW88320   7.542  14.075  10.212
28808SOL    HW188321   7.600  14.045  10.142
28808SOL    HW288322   7.573  14.164  10.232
28809SOL     OW88323   2.895   7.091   1.457
28809SOL    HW188324   2.844   7.057   1.384
28809SOL    HW288325   2.882   7.027   1.528
28810SOL     OW88326   6.580   5.754   6.497
28810SOL    HW188327   6.497   5.789   6.467
28810SOL    HW288328   6.581   5.770   6.591
28811SOL     OW88329  13.704   1.616  10.581
28811SOL    HW188330  13.732   1.689  10.525
28811SOL    HW288331  13.648   1.656  10.647
28812SOL     OW88332   2.783   7.555   1.261
28812SOL    HW188333   2.735   7.498   1.322
28812SOL    HW288334   2.847   7.497   1.220
28813SOL     OW88335   1.538   2.348   8.170
28813SOL    HW188336   1.605   2.314   8.228
28813SOL    HW288337   1.529   2.281   8.102
28814SOL     OW88338   8.920   0.569  11.056
28814SOL    HW188339   8.831   0.553  11.086
28814SOL    HW288340   8.917   0.556  10.961
28815SOL     OW88341   1.321   8.337   8.749
28815SOL    HW188342   1.250   8.344   8.685
28815SOL    HW288343   1.391   8.391   8.712
28816SOL     OW88344  10.585   3.929   8.466
28816SOL    HW188345  10.671   3.971   8.461
28816SOL    HW288346  10.557   3.921   8.375
28817SOL     OW88347   2.008   8.052   2.697
28817SOL    HW188348   2.057   8.018   2.772
28817SOL    HW288349   2.006   8.147   2.710
28818SOL     OW88350   4.216   0.554  14.743
28818SOL    HW188351   4.215   0.642  14.705
28818SOL    HW288352   4.309   0.531  14.748
28819SOL     OW88353   4.448  13.316   0.225
28819SOL    HW188354   4.393  13.340   0.151
28819SOL    HW288355   4.473  13.400   0.264
28820SOL     OW88356   0.087   4.786   5.807
28820SOL    HW188357   0.084   4.845   5.883
28820SOL    HW288358   0.020   4.720   5.826
28821SOL     OW88359   5.758   8.875   9.278
28821SOL    HW188360   5.790   8.955   9.321
28821SOL    HW288361   5.836   8.822   9.263
28822SOL     OW88362   1.692   7.862   1.892
28822SOL    HW188363   1.630   7.932   1.911
28822SOL    HW288364   1.671   7.834   1.803
28823SOL     OW88365  14.361   0.380   7.211
28823SOL    HW188366  14.360   0.455   7.151
28823SOL    HW288367  14.440   0.332   7.188
28824SOL     OW88368   0.168  10.613   2.447
28824SOL    HW188369   0.090  10.667   2.435
28824SOL    HW288370   0.204  10.604   2.359
28825SOL     OW88371   3.652  13.202   2.783
28825SOL    HW188372   3.571  13.199   2.834
28825SOL    HW288373   3.657  13.293   2.753
28826SOL     OW88374   4.561   8.293   1.797
28826SOL    HW188375   4.586   8.314   1.887
28826SOL    HW288376   4.543   8.199   1.798
28827SOL     OW88377   5.935  13.743   3.784
28827SOL    HW188378   5.887  13.791   3.717
28827SOL    HW288379   5.901  13.776   3.867
28828SOL     OW88380   8.704   3.572   4.573
28828SOL    HW188381   8.628   3.627   4.554
28828SOL    HW288382   8.679   3.486   4.539
28829SOL     OW88383  11.423   5.553   9.832
28829SOL    HW188384  11.516   5.571   9.846
28829SOL    HW288385  11.406   5.582   9.742
28830SOL     OW88386  14.493  14.289  11.711
28830SOL    HW188387  14.573  14.255  11.672
28830SOL    HW288388  14.500  14.384  11.700
28831SOL     OW88389  14.550   3.147   1.425
28831SOL    HW188390  14.529   3.184   1.511
28831SOL    HW288391  14.558   3.224   1.368
28832SOL     OW88392   9.569   8.610   1.894
28832SOL    HW188393   9.529   8.617   1.807
28832SOL    HW288394   9.544   8.523   1.925
28833SOL     OW88395  12.221   4.901   8.479
28833SOL    HW188396  12.129   4.878   8.494
28833SOL    HW288397  12.263   4.818   8.456
28834SOL     OW88398   2.220   2.672  12.398
28834SOL    HW188399   2.300   2.725  12.387
28834SOL    HW288400   2.211   2.626  12.314
28835SOL     OW88401   7.596  10.273   2.532
28835SOL    HW188402   7.688  10.269   2.558
28835SOL    HW288403   7.547  10.264   2.614
28836SOL     OW88404  11.577  10.428   0.354
28836SOL    HW188405  11.579  10.522   0.373
28836SOL    HW288406  11.606  10.422   0.263
28837SOL     OW88407   8.196   4.462   2.082
28837SOL    HW188408   8.103   4.462   2.062
28837SOL    HW288409   8.200   4.471   2.178
28838SOL     OW88410   9.853   9.085  14.620
28838SOL    HW188411   9.923   9.043  14.669
28838SOL    HW288412   9.858   9.046  14.533
28839SOL     OW88413  10.779   7.772  12.564
28839SOL    HW188414  10.690   7.789  12.594
28839SOL    HW288415  10.774   7.686  12.523
28840SOL     OW88416  10.035   0.021   6.880
28840SOL    HW188417  10.125  14.869   6.887
28840SOL    HW288418   9.992  14.839   6.822
28841SOL     OW88419  14.326   8.365  12.270
28841SOL    HW188420  14.391   8.295  12.266
28841SOL    HW288421  14.261   8.340  12.204
28842SOL     OW88422   5.843   7.018   3.350
28842SOL    HW188423   5.777   7.052   3.411
28842SOL    HW288424   5.904   7.091   3.337
28843SOL     OW88425   3.413   7.898   4.100
28843SOL    HW188426   3.469   7.974   4.112
28843SOL    HW288427   3.431   7.842   4.175
28844SOL     OW88428   8.167   0.316  10.928
28844SOL    HW188429   8.154   0.380  10.997
28844SOL    HW288430   8.235   0.258  10.961
28845SOL     OW88431  14.697   4.182  12.742
28845SOL    HW188432  14.777   4.233  12.751
28845SOL    HW288433  14.652   4.220  12.666
28846SOL     OW88434   8.638  13.700   1.816
28846SOL    HW188435   8.602  13.778   1.856
28846SOL    HW288436   8.626  13.631   1.882
28847SOL     OW88437  11.664  10.980  13.494
28847SOL    HW188438  11.743  10.993  13.545
28847SOL    HW288439  11.695  10.943  13.411
28848SOL     OW88440  14.720  10.250   5.673
28848SOL    HW188441  14.631  10.216   5.672
28848SOL    HW288442  14.738  10.268   5.766
28849SOL     OW88443   1.810   7.307   1.573
28849SOL    HW188444   1.768   7.314   1.488
28849SOL    HW288445   1.873   7.379   1.575
28850SOL     OW88446   0.360   7.834  10.656
28850SOL    HW188447   0.337   7.766  10.593
28850SOL    HW288448   0.297   7.824  10.726
28851SOL     OW88449   2.905   5.236   4.981
28851SOL    HW188450   2.877   5.167   4.920
28851SOL    HW288451   2.899   5.196   5.067
28852SOL     OW88452   6.354  12.556  14.492
28852SOL    HW188453   6.264  12.587  14.488
28852SOL    HW288454   6.386  12.565  14.402
28853SOL     OW88455  10.890   9.874   4.202
28853SOL    HW188456  10.897   9.875   4.106
28853SOL    HW288457  10.964   9.821   4.231
28854SOL     OW88458   3.090   9.280   1.255
28854SOL    HW188459   3.035   9.267   1.332
28854SOL    HW288460   3.124   9.369   1.265
28855SOL     OW88461  10.189   3.402  14.001
28855SOL    HW188462  10.195   3.451  13.919
28855SOL    HW288463  10.164   3.468  14.066
28856SOL     OW88464   4.966   1.667  14.501
28856SOL    HW188465   5.061   1.683  14.503
28856SOL    HW288466   4.955   1.603  14.430
28857SOL     OW88467  10.678   2.523   2.810
28857SOL    HW188468  10.613   2.561   2.869
28857SOL    HW288469  10.740   2.479   2.869
28858SOL     OW88470  13.999  11.633   0.439
28858SOL    HW188471  13.936  11.561   0.439
28858SOL    HW288472  14.065  11.608   0.374
28859SOL     OW88473   2.303   6.923  12.835
28859SOL    HW188474   2.382   6.935  12.781
28859SOL    HW288475   2.337   6.894  12.920
28860SOL     OW88476  11.509  14.329   3.756
28860SOL    HW188477  11.538  14.419   3.746
28860SOL    HW288478  11.423  14.335   3.797
28861SOL     OW88479   5.331  11.068  14.335
28861SOL    HW188480   5.301  11.158  14.335
28861SOL    HW288481   5.384  11.060  14.255
28862SOL     OW88482   6.499   2.552   7.317
28862SOL    HW188483   6.416   2.508   7.335
28862SOL    HW288484   6.477   2.620   7.253
28863SOL     OW88485   1.108  14.087   9.637
28863SOL    HW188486   1.033  14.030   9.651
28863SOL    HW288487   1.163  14.074   9.715
28864SOL     OW88488   3.077   4.204   6.525
28864SOL    HW188489   3.086   4.248   6.609
28864SOL    HW288490   2.987   4.221   6.499
28865SOL     OW88491  10.855  10.460  10.386
28865SOL    HW188492  10.920  10.400  10.423
28865SOL    HW288493  10.812  10.410  10.317
28866SOL     OW88494  12.312   9.352  10.512
28866SOL    HW188495  12.397   9.309  10.512
28866SOL    HW288496  12.292   9.365  10.419
28867SOL     OW88497  14.669   5.562   3.662
28867SOL    HW188498  14.725   5.504   3.610
28867SOL    HW288499  14.630   5.622   3.598
28868SOL     OW88500  13.749   2.799  10.588
28868SOL    HW188501  13.730   2.726  10.530
28868SOL    HW288502  13.665   2.844  10.598
28869SOL     OW88503  10.112   4.575  11.456
28869SOL    HW188504  10.114   4.670  11.457
28869SOL    HW288505  10.188   4.549  11.404
28870SOL     OW88506   0.691  14.417   5.198
28870SOL    HW188507   0.657  14.414   5.109
28870SOL    HW288508   0.613  14.412   5.253
28871SOL     OW88509  10.785  14.084   1.502
28871SOL    HW188510  10.857  14.119   1.555
28871SOL    HW288511  10.734  14.161   1.476
28872SOL     OW88512   6.894   4.543   5.487
28872SOL    HW188513   6.927   4.631   5.467
28872SOL    HW288514   6.799   4.550   5.475
28873SOL     OW88515  10.886  10.157  13.408
28873SOL    HW188516  10.815  10.210  13.372
28873SOL    HW288517  10.963  10.184  13.359
28874SOL     OW88518   3.931   9.711   6.077
28874SOL    HW188519   3.965   9.657   6.148
28874SOL    HW288520   3.956   9.666   5.997
28875SOL     OW88521   4.634   3.497   3.315
28875SOL    HW188522   4.568   3.525   3.378
28875SOL    HW288523   4.688   3.574   3.301
28876SOL     OW88524   1.232   0.404  13.104
28876SOL    HW188525   1.296   0.401  13.034
28876SOL    HW288526   1.211   0.497  13.113
28877SOL     OW88527   5.738   5.627  11.528
28877SOL    HW188528   5.776   5.566  11.591
28877SOL    HW288529   5.671   5.674  11.578
28878SOL     OW88530   1.511   9.126   0.157
28878SOL    HW188531   1.440   9.061   0.158
28878SOL    HW288532   1.591   9.074   0.168
28879SOL     OW88533  13.293   6.935   2.842
28879SOL    HW188534  13.316   6.927   2.934
28879SOL    HW288535  13.197   6.934   2.841
28880SOL     OW88536   7.212   5.364   6.985
28880SOL    HW188537   7.276   5.297   6.960
28880SOL    HW288538   7.231   5.438   6.928
28881SOL     OW88539   6.838   2.667  13.715
28881SOL    HW188540   6.776   2.634  13.650
28881SOL    HW288541   6.783   2.697  13.788
28882SOL     OW88542  14.587   1.556  10.975
28882SOL    HW188543  14.504   1.536  11.017
28882SOL    HW288544  14.615   1.473  10.936
28883SOL     OW88545   4.074   0.597   3.857
28883SOL    HW188546   4.152   0.567   3.811
28883SOL    HW288547   4.062   0.534   3.928
28884SOL     OW88548   9.532  10.718   9.424
28884SOL    HW188549   9.480  10.798   9.417
28884SOL    HW288550   9.557  10.714   9.516
28885SOL     OW88551   4.163   7.068   0.372
28885SOL    HW188552   4.124   7.008   0.435
28885SOL    HW288553   4.169   7.016   0.291
28886SOL     OW88554   0.098   5.178   5.572
28886SOL    HW188555   0.066   5.212   5.489
28886SOL    HW288556   0.018   5.161   5.623
28887SOL     OW88557   1.394   5.116   2.162
28887SOL    HW188558   1.435   5.031   2.147
28887SOL    HW288559   1.338   5.103   2.239
28888SOL     OW88560   0.066  14.716   4.124
28888SOL    HW188561   0.114  14.776   4.067
28888SOL    HW288562   0.048  14.640   4.069
28889SOL     OW88563   3.307   2.385  13.329
28889SOL    HW188564   3.237   2.435  13.287
28889SOL    HW288565   3.387   2.412  13.282
28890SOL     OW88566  11.139  12.771  13.986
28890SOL    HW188567  11.044  12.784  13.981
28890SOL    HW288568  11.154  12.687  13.943
28891SOL     OW88569  13.211  13.694   5.218
28891SOL    HW188570  13.220  13.762   5.150
28891SOL    HW288571  13.250  13.734   5.296
28892SOL     OW88572  13.121   0.935   8.586
28892SOL    HW188573  13.077   0.991   8.521
28892SOL    HW288574  13.160   0.864   8.534
28893SOL     OW88575   6.889   7.967  11.262
28893SOL    HW188576   6.931   7.979  11.347
28893SOL    HW288577   6.835   8.045  11.250
28894SOL     OW88578   6.243   3.511   7.589
28894SOL    HW188579   6.273   3.595   7.553
28894SOL    HW288580   6.159   3.531   7.630
28895SOL     OW88581  12.743   7.721   3.864
28895SOL    HW188582  12.669   7.733   3.923
28895SOL    HW288583  12.797   7.799   3.877
28896SOL     OW88584  12.285   5.329   0.783
28896SOL    HW188585  12.297   5.304   0.874
28896SOL    HW288586  12.372   5.320   0.744
28897SOL     OW88587   5.875  10.537   6.201
28897SOL    HW188588   5.894  10.540   6.107
28897SOL    HW288589   5.923  10.460   6.232
28898SOL     OW88590   6.444   0.961   9.485
28898SOL    HW188591   6.387   0.949   9.560
28898SOL    HW288592   6.401   1.028   9.432
28899SOL     OW88593  13.269   0.401   0.178
28899SOL    HW188594  13.219   0.374   0.101
28899SOL    HW288595  13.204   0.415   0.246
28900SOL     OW88596   5.525   5.634   3.003
28900SOL    HW188597   5.501   5.710   2.950
28900SOL    HW288598   5.491   5.654   3.090
28901SOL     OW88599   8.607   4.909  12.668
28901SOL    HW188600   8.675   4.843  12.684
28901SOL    HW288601   8.547   4.901  12.742
28902SOL     OW88602   0.384   1.834   1.445
28902SOL    HW188603   0.348   1.770   1.506
28902SOL    HW288604   0.309   1.890   1.423
28903SOL     OW88605   5.343  13.630   6.045
28903SOL    HW188606   5.365  13.542   6.076
28903SOL    HW288607   5.336  13.621   5.950
28904SOL     OW88608   4.395  14.208   3.223
28904SOL    HW188609   4.349  14.279   3.180
28904SOL    HW288610   4.370  14.130   3.174
28905SOL     OW88611   8.246   1.950  14.399
28905SOL    HW188612   8.171   1.965  14.342
28905SOL    HW288613   8.209   1.912  14.479
28906SOL     OW88614   8.016   8.277  10.957
28906SOL    HW188615   8.057   8.353  11.000
28906SOL    HW288616   7.976   8.228  11.029
28907SOL     OW88617   1.750  14.318   8.593
28907SOL    HW188618   1.774  14.410   8.598
28907SOL    HW288619   1.660  14.318   8.561
28908SOL     OW88620  13.451   8.996   4.115
28908SOL    HW188621  13.386   8.993   4.044
28908SOL    HW288622  13.400   9.018   4.193
28909SOL     OW88623   3.751   7.039   1.729
28909SOL    HW188624   3.826   7.037   1.669
28909SOL    HW288625   3.786   7.006   1.812
28910SOL     OW88626   0.201  11.762   3.560
28910SOL    HW188627   0.186  11.668   3.558
28910SOL    HW288628   0.287  11.773   3.521
28911SOL     OW88629  14.296   1.071   2.992
28911SOL    HW188630  14.228   1.004   2.979
28911SOL    HW288631  14.253   1.138   3.045
28912SOL     OW88632   9.258  14.007  13.931
28912SOL    HW188633   9.322  14.065  13.973
28912SOL    HW288634   9.174  14.049  13.949
28913SOL     OW88635   6.467  11.334   7.601
28913SOL    HW188636   6.374  11.330   7.625
28913SOL    HW288637   6.513  11.333   7.684
28914SOL     OW88638   9.605   2.232  11.511
28914SOL    HW188639   9.670   2.227  11.440
28914SOL    HW288640   9.592   2.141  11.539
28915SOL     OW88641   5.404  12.948   1.312
28915SOL    HW188642   5.403  12.960   1.407
28915SOL    HW288643   5.333  13.005   1.280
28916SOL     OW88644   5.123   8.858   7.616
28916SOL    HW188645   5.028   8.854   7.631
28916SOL    HW288646   5.160   8.808   7.689
28917SOL     OW88647   3.587   6.382  13.422
28917SOL    HW188648   3.509   6.354  13.374
28917SOL    HW288649   3.640   6.428  13.356
28918SOL     OW88650   0.711   6.323  10.628
28918SOL    HW188651   0.651   6.398  10.620
28918SOL    HW288652   0.797   6.363  10.640
28919SOL     OW88653  13.356   7.515   0.074
28919SOL    HW188654  13.370   7.568  14.876
28919SOL    HW288655  13.329   7.429   0.041
28920SOL     OW88656   5.530   9.181  12.338
28920SOL    HW188657   5.591   9.134  12.394
28920SOL    HW288658   5.519   9.123  12.262
28921SOL     OW88659  11.486   7.085  11.178
28921SOL    HW188660  11.503   7.096  11.271
28921SOL    HW288661  11.518   7.166  11.138
28922SOL     OW88662   0.868  10.274   5.610
28922SOL    HW188663   0.953  10.277   5.565
28922SOL    HW288664   0.807  10.243   5.544
28923SOL     OW88665  11.935   6.285   1.476
28923SOL    HW188666  11.856   6.259   1.523
28923SOL    HW288667  11.930   6.238   1.393
28924SOL     OW88668   1.865  11.830   3.257
28924SOL    HW188669   1.930  11.816   3.189
28924SOL    HW288670   1.858  11.925   3.265
28925SOL     OW88671  14.462   0.224   0.386
28925SOL    HW188672  14.428   0.290   0.326
28925SOL    HW288673  14.409   0.146   0.368
28926SOL     OW88674   7.563   4.832   8.632
28926SOL    HW188675   7.607   4.753   8.664
28926SOL    HW288676   7.493   4.847   8.695
28927SOL     OW88677   0.598  12.093   2.780
28927SOL    HW188678   0.548  12.132   2.709
28927SOL    HW288679   0.636  12.014   2.743
28928SOL     OW88680   0.479   0.062   9.409
28928SOL    HW188681   0.478   0.158   9.419
28928SOL    HW288682   0.393   0.042   9.370
28929SOL     OW88683  10.887  10.822  10.814
28929SOL    HW188684  10.796  10.806  10.841
28929SOL    HW288685  10.929  10.736  10.819
28930SOL     OW88686   7.447   0.911  12.626
28930SOL    HW188687   7.389   0.929  12.700
28930SOL    HW288688   7.520   0.972  12.638
28931SOL     OW88689  12.846   3.088   4.909
28931SOL    HW188690  12.843   3.076   5.004
28931SOL    HW288691  12.934   3.059   4.884
28932SOL     OW88692   5.569   5.565   0.574
28932SOL    HW188693   5.646   5.523   0.612
28932SOL    HW288694   5.603   5.643   0.529
28933SOL     OW88695   2.506   7.129   9.556
28933SOL    HW188696   2.534   7.221   9.556
28933SOL    HW288697   2.411   7.133   9.559
28934SOL     OW88698   1.478   1.547   8.292
28934SOL    HW188699   1.528   1.621   8.327
28934SOL    HW288700   1.545   1.490   8.253
28935SOL     OW88701   5.435   0.546   6.918
28935SOL    HW188702   5.421   0.452   6.906
28935SOL    HW288703   5.523   0.552   6.957
28936SOL     OW88704   2.796   9.446  11.961
28936SOL    HW188705   2.891   9.451  11.957
28936SOL    HW288706   2.770   9.528  12.004
28937SOL     OW88707  12.808   9.408  12.725
28937SOL    HW188708  12.848   9.387  12.809
28937SOL    HW288709  12.714   9.400  12.741
28938SOL     OW88710  13.530   1.971  11.586
28938SOL    HW188711  13.445   1.957  11.628
28938SOL    HW288712  13.550   1.888  11.542
28939SOL     OW88713  14.455  11.339   4.770
28939SOL    HW188714  14.456  11.255   4.725
28939SOL    HW288715  14.434  11.403   4.702
28940SOL     OW88716  13.591   8.683   2.481
28940SOL    HW188717  13.558   8.594   2.494
28940SOL    HW288718  13.597   8.720   2.569
28941SOL     OW88719  10.736  12.606  10.258
28941SOL    HW188720  10.712  12.513  10.252
28941SOL    HW288721  10.652  12.652  10.248
28942SOL     OW88722  14.012   1.316   2.048
28942SOL    HW188723  13.917   1.308   2.054
28942SOL    HW288724  14.028   1.408   2.031
28943SOL     OW88725  11.648   0.418  13.645
28943SOL    HW188726  11.725   0.363  13.634
28943SOL    HW288727  11.609   0.388  13.728
28944SOL     OW88728   7.186   1.841   7.812
28944SOL    HW188729   7.234   1.827   7.731
28944SOL    HW288730   7.179   1.937   7.820
28945SOL     OW88731   9.334   9.234   8.659
28945SOL    HW188732   9.327   9.256   8.752
28945SOL    HW288733   9.426   9.212   8.646
28946SOL     OW88734  13.490   9.755  10.875
28946SOL    HW188735  13.560   9.811  10.841
28946SOL    HW288736  13.465   9.795  10.958
28947SOL     OW88737   9.698  14.492   3.440
28947SOL    HW188738   9.659  14.549   3.374
28947SOL    HW288739   9.783  14.469   3.405
28948SOL     OW88740   0.247  14.645   3.642
28948SOL    HW188741   0.240  14.550   3.645
28948SOL    HW288742   0.295  14.663   3.561
28949SOL     OW88743   3.283   0.765   0.171
28949SOL    HW188744   3.278   0.840   0.111
28949SOL    HW288745   3.285   0.805   0.258
28950SOL     OW88746   7.286   4.539   5.822
28950SOL    HW188747   7.221   4.479   5.859
28950SOL    HW288748   7.303   4.505   5.734
28951SOL     OW88749   9.786   0.109   8.939
28951SOL    HW188750   9.845   0.093   8.865
28951SOL    HW288751   9.814   0.193   8.974
28952SOL     OW88752   0.484   7.246   7.030
28952SOL    HW188753   0.489   7.310   7.100
28952SOL    HW288754   0.438   7.171   7.069
28953SOL     OW88755   3.698  10.854   3.011
28953SOL    HW188756   3.738  10.875   3.096
28953SOL    HW288757   3.772  10.833   2.954
28954SOL     OW88758  12.789   6.151  11.704
28954SOL    HW188759  12.781   6.077  11.764
28954SOL    HW288760  12.883   6.163  11.693
28955SOL     OW88761  13.116   7.380  10.270
28955SOL    HW188762  13.071   7.464  10.272
28955SOL    HW288763  13.058   7.321  10.318
28956SOL     OW88764  14.119  14.080  13.780
28956SOL    HW188765  14.090  13.989  13.774
28956SOL    HW288766  14.142  14.091  13.872
28957SOL     OW88767   0.728   5.323  11.733
28957SOL    HW188768   0.682   5.289  11.657
28957SOL    HW288769   0.820   5.302  11.716
28958SOL     OW88770   1.320  13.071  10.156
28958SOL    HW188771   1.353  12.981  10.165
28958SOL    HW288772   1.394  13.119  10.119
28959SOL     OW88773   8.845   8.677   9.145
28959SOL    HW188774   8.920   8.651   9.198
28959SOL    HW288775   8.879   8.744   9.087
28960SOL     OW88776   1.701   5.604   5.578
28960SOL    HW188777   1.638   5.552   5.629
28960SOL    HW288778   1.657   5.687   5.563
28961SOL     OW88779   8.639   8.533   1.603
28961SOL    HW188780   8.577   8.605   1.613
28961SOL    HW288781   8.620   8.496   1.517
28962SOL     OW88782  14.023  14.321   8.281
28962SOL    HW188783  13.936  14.343   8.248
28962SOL    HW288784  14.009  14.303   8.374
28963SOL     OW88785  13.096   3.820   2.280
28963SOL    HW188786  13.111   3.748   2.219
28963SOL    HW288787  13.153   3.800   2.354
28964SOL     OW88788  13.146   2.410  12.326
28964SOL    HW188789  13.070   2.410  12.269
28964SOL    HW288790  13.156   2.319  12.354
28965SOL     OW88791  12.747   3.303   0.490
28965SOL    HW188792  12.710   3.354   0.418
28965SOL    HW288793  12.837   3.336   0.498
28966SOL     OW88794   1.789   3.660  10.660
28966SOL    HW188795   1.765   3.726  10.595
28966SOL    HW288796   1.856   3.703  10.713
28967SOL     OW88797   1.849   2.002   6.953
28967SOL    HW188798   1.903   2.080   6.968
28967SOL    HW288799   1.835   2.000   6.859
28968SOL     OW88800   4.198  11.300   2.186
28968SOL    HW188801   4.182  11.380   2.136
28968SOL    HW288802   4.157  11.230   2.135
28969SOL     OW88803   3.992  10.151  12.809
28969SOL    HW188804   3.934  10.189  12.874
28969SOL    HW288805   3.958  10.182  12.725
28970SOL     OW88806  10.269   2.679   5.161
28970SOL    HW188807  10.276   2.591   5.197
28970SOL    HW288808  10.176   2.700   5.167
28971SOL     OW88809   1.050   3.984   0.514
28971SOL    HW188810   0.983   3.977   0.581
28971SOL    HW288811   1.099   4.063   0.536
28972SOL     OW88812  14.576   6.009   4.117
28972SOL    HW188813  14.502   5.993   4.058
28972SOL    HW288814  14.537   6.056   4.191
28973SOL     OW88815   0.306   1.174   3.093
28973SOL    HW188816   0.383   1.208   3.048
28973SOL    HW288817   0.321   1.194   3.185
28974SOL     OW88818  10.155  12.221  11.173
28974SOL    HW188819  10.203  12.244  11.093
28974SOL    HW288820  10.086  12.287  11.179
28975SOL     OW88821   9.753   2.870   2.604
28975SOL    HW188822   9.726   2.961   2.598
28975SOL    HW288823   9.835   2.872   2.653
28976SOL     OW88824   5.895  13.046   0.399
28976SOL    HW188825   5.979  13.028   0.357
28976SOL    HW288826   5.834  13.061   0.327
28977SOL     OW88827  10.771   3.671   0.204
28977SOL    HW188828  10.675   3.669   0.211
28977SOL    HW288829  10.788   3.660   0.110
28978SOL     OW88830  10.225  13.414  11.490
28978SOL    HW188831  10.223  13.318  11.487
28978SOL    HW288832  10.142  13.439  11.531
28979SOL     OW88833  13.832   8.663   5.257
28979SOL    HW188834  13.866   8.597   5.318
28979SOL    HW288835  13.908   8.716   5.234
28980SOL     OW88836   0.763   0.740   4.422
28980SOL    HW188837   0.805   0.824   4.442
28980SOL    HW288838   0.795   0.717   4.335
28981SOL     OW88839   6.288   9.035   2.849
28981SOL    HW188840   6.356   9.060   2.912
28981SOL    HW288841   6.210   9.082   2.879
28982SOL     OW88842   4.427   3.502   1.955
28982SOL    HW188843   4.442   3.461   2.040
28982SOL    HW288844   4.331   3.508   1.948
28983SOL     OW88845   4.200  12.945   2.080
28983SOL    HW188846   4.220  13.032   2.115
28983SOL    HW288847   4.215  12.953   1.985
28984SOL     OW88848   2.296  10.050  12.843
28984SOL    HW188849   2.241  10.071  12.918
28984SOL    HW288850   2.358  10.123  12.838
28985SOL     OW88851  10.848  14.864   7.773
28985SOL    HW188852  10.886   0.026   7.696
28985SOL    HW288853  10.811  14.782   7.740
28986SOL     OW88854   7.836   8.812  13.101
28986SOL    HW188855   7.852   8.862  13.021
28986SOL    HW288856   7.885   8.860  13.169
28987SOL     OW88857   6.570   3.820   7.400
28987SOL    HW188858   6.659   3.800   7.371
28987SOL    HW288859   6.514   3.783   7.332
28988SOL     OW88860  11.271  14.489  12.743
28988SOL    HW188861  11.326  14.424  12.786
28988SOL    HW288862  11.282  14.474  12.650
28989SOL     OW88863   9.137  11.538  11.323
28989SOL    HW188864   9.160  11.447  11.305
28989SOL    HW288865   9.128  11.543  11.418
28990SOL     OW88866  13.026   0.765  11.140
28990SOL    HW188867  12.996   0.849  11.105
28990SOL    HW288868  12.974   0.752  11.219
28991SOL     OW88869  10.856   8.267   2.169
28991SOL    HW188870  10.785   8.308   2.219
28991SOL    HW288871  10.935   8.304   2.207
28992SOL     OW88872   4.025   2.635   3.234
28992SOL    HW188873   4.051   2.631   3.142
28992SOL    HW288874   4.068   2.714   3.267
28993SOL     OW88875   8.589   5.630   3.316
28993SOL    HW188876   8.675   5.593   3.295
28993SOL    HW288877   8.539   5.556   3.352
28994SOL     OW88878   9.118   7.215  10.362
28994SOL    HW188879   9.105   7.123  10.386
28994SOL    HW288880   9.194   7.214  10.304
28995SOL     OW88881  11.417   9.041   2.268
28995SOL    HW188882  11.328   9.021   2.297
28995SOL    HW288883  11.414   9.032   2.173
28996SOL     OW88884  10.804  14.135   6.702
28996SOL    HW188885  10.852  14.207   6.662
28996SOL    HW288886  10.808  14.154   6.796
28997SOL     OW88887  11.324   5.292   4.812
28997SOL    HW188888  11.347   5.371   4.763
28997SOL    HW288889  11.406   5.242   4.816
28998SOL     OW88890  11.402   6.957   5.424
28998SOL    HW188891  11.357   7.039   5.403
28998SOL    HW288892  11.472   6.952   5.360
28999SOL     OW88893   0.555   1.854   9.682
28999SOL    HW188894   0.552   1.940   9.640
28999SOL    HW288895   0.598   1.869   9.766
29000SOL     OW88896  13.616   8.370   3.031
29000SOL    HW188897  13.668   8.330   3.100
29000SOL    HW288898  13.670   8.364   2.953
29001SOL     OW88899  13.768   4.856  13.285
29001SOL    HW188900  13.699   4.818  13.231
29001SOL    HW288901  13.833   4.786  13.294
29002SOL     OW88902  14.814   3.623   5.667
29002SOL    HW188903  14.839   3.534   5.690
29002SOL    HW288904  14.720   3.619   5.652
29003SOL     OW88905   4.332   8.425  11.649
29003SOL    HW188906   4.387   8.500  11.671
29003SOL    HW288907   4.388   8.349  11.663
29004SOL     OW88908   0.915  14.674   9.954
29004SOL    HW188909   0.880  14.593   9.990
29004SOL    HW288910   0.857  14.696   9.881
29005SOL     OW88911   3.792   6.877   5.355
29005SOL    HW188912   3.830   6.834   5.432
29005SOL    HW288913   3.865   6.927   5.317
29006SOL     OW88914   7.421   0.356   1.527
29006SOL    HW188915   7.457   0.439   1.559
29006SOL    HW288916   7.395   0.309   1.606
29007SOL     OW88917   0.079   0.677   4.392
29007SOL    HW188918  14.865   0.663   4.401
29007SOL    HW288919   0.087   0.765   4.356
29008SOL     OW88920   9.534  12.493   1.576
29008SOL    HW188921   9.583  12.574   1.561
29008SOL    HW288922   9.445  12.523   1.597
29009SOL     OW88923  12.317  13.865  10.279
29009SOL    HW188924  12.303  13.945  10.227
29009SOL    HW288925  12.253  13.871  10.349
29010SOL     OW88926   3.447   6.491   5.130
29010SOL    HW188927   3.464   6.582   5.151
29010SOL    HW288928   3.533   6.455   5.108
29011SOL     OW88929   0.015   0.117   1.415
29011SOL    HW188930  14.829   0.096   1.481
29011SOL    HW288931  14.860   0.193   1.369
29012SOL     OW88932   7.584   0.693  10.265
29012SOL    HW188933   7.520   0.762  10.284
29012SOL    HW288934   7.668   0.738  10.263
29013SOL     OW88935   1.151   8.187   4.381
29013SOL    HW188936   1.127   8.188   4.288
29013SOL    HW288937   1.068   8.191   4.427
29014SOL     OW88938  12.976   1.577   8.960
29014SOL    HW188939  12.914   1.588   8.888
29014SOL    HW288940  13.011   1.489   8.949
29015SOL     OW88941   3.658   6.737   7.287
29015SOL    HW188942   3.749   6.709   7.300
29015SOL    HW288943   3.635   6.701   7.201
29016SOL     OW88944   2.415   6.332  11.594
29016SOL    HW188945   2.427   6.277  11.516
29016SOL    HW288946   2.462   6.285  11.663
29017SOL     OW88947  12.415   3.579   0.455
29017SOL    HW188948  12.397   3.520   0.528
29017SOL    HW288949  12.461   3.653   0.496
29018SOL     OW88950  13.296   6.740  11.874
29018SOL    HW188951  13.293   6.646  11.891
29018SOL    HW288952  13.323   6.747  11.782
29019SOL     OW88953   4.407  12.785  13.623
29019SOL    HW188954   4.465  12.713  13.597
29019SOL    HW288955   4.410  12.845  13.549
29020SOL     OW88956   0.877   5.973  12.117
29020SOL    HW188957   0.951   5.915  12.096
29020SOL    HW288958   0.840   5.936  12.197
29021SOL     OW88959  12.900   1.080  11.299
29021SOL    HW188960  12.912   1.064  11.205
29021SOL    HW288961  12.980   1.045  11.339
29022SOL     OW88962   0.102   7.148  13.849
29022SOL    HW188963   0.191   7.115  13.832
29022SOL    HW288964   0.115   7.223  13.906
29023SOL     OW88965   3.672   8.744  12.192
29023SOL    HW188966   3.586   8.701  12.195
29023SOL    HW288967   3.700   8.735  12.101
29024SOL     OW88968  12.701   2.319   9.648
29024SOL    HW188969  12.736   2.369   9.574
29024SOL    HW288970  12.742   2.358   9.725
29025SOL     OW88971  13.893   7.338   2.074
29025SOL    HW188972  13.871   7.344   2.167
29025SOL    HW288973  13.812   7.306   2.033
29026SOL     OW88974   9.369   1.652  11.010
29026SOL    HW188975   9.319   1.693  10.939
29026SOL    HW288976   9.346   1.702  11.088
29027SOL     OW88977   9.913   0.761  11.605
29027SOL    HW188978   9.936   0.783  11.695
29027SOL    HW288979   9.951   0.674  11.592
29028SOL     OW88980   1.127   0.580   7.340
29028SOL    HW188981   1.209   0.563   7.386
29028SOL    HW288982   1.141   0.664   7.296
29029SOL     OW88983   9.757   7.018  13.872
29029SOL    HW188984   9.799   7.059  13.797
29029SOL    HW288985   9.815   7.035  13.946
29030SOL     OW88986   7.839   9.971  13.916
29030SOL    HW188987   7.904   9.928  13.860
29030SOL    HW288988   7.826   9.910  13.989
29031SOL     OW88989  13.967  10.808   7.526
29031SOL    HW188990  14.037  10.867   7.499
29031SOL    HW288991  14.010  10.724   7.543
29032SOL     OW88992   6.560  11.689  14.279
29032SOL    HW188993   6.530  11.692  14.188
29032SOL    HW288994   6.651  11.658  14.273
29033SOL     OW88995  13.641   5.449   6.424
29033SOL    HW188996  13.567   5.391   6.446
29033SOL    HW288997  13.641   5.453   6.329
29034SOL     OW88998   0.159   5.248   0.753
29034SOL    HW188999   0.087   5.204   0.798
29034SOL    HW289000   0.178   5.192   0.678
29035SOL     OW89001  12.049   4.440   5.367
29035SOL    HW189002  12.013   4.499   5.300
29035SOL    HW289003  12.074   4.361   5.319
29036SOL     OW89004  14.398   4.470   7.001
29036SOL    HW189005  14.349   4.455   7.082
29036SOL    HW289006  14.377   4.394   6.946
29037SOL     OW89007   6.822   1.295   6.180
29037SOL    HW189008   6.879   1.230   6.138
29037SOL    HW289009   6.883   1.356   6.221
29038SOL     OW89010  13.550  13.149   1.122
29038SOL    HW189011  13.497  13.181   1.049
29038SOL    HW289012  13.562  13.226   1.178
29039SOL     OW89013  14.379  13.174  11.109
29039SOL    HW189014  14.333  13.253  11.137
29039SOL    HW289015  14.309  13.109  11.098
29040SOL     OW89016   2.264  13.689   6.723
29040SOL    HW189017   2.252  13.768   6.670
29040SOL    HW289018   2.180  13.644   6.719
29041SOL     OW89019  11.854   6.376   9.458
29041SOL    HW189020  11.886   6.305   9.514
29041SOL    HW289021  11.784   6.417   9.509
29042SOL     OW89022   9.596  13.339   0.045
29042SOL    HW189023   9.533  13.307  14.860
29042SOL    HW289024   9.613  13.430   0.019
29043SOL     OW89025  10.600   6.108  11.660
29043SOL    HW189026  10.656   6.033  11.682
29043SOL    HW289027  10.526   6.069  11.613
29044SOL     OW89028   5.454   7.523  12.883
29044SOL    HW189029   5.368   7.510  12.844
29044SOL    HW289030   5.452   7.472  12.964
29045SOL     OW89031   5.832   1.727  13.776
29045SOL    HW189032   5.815   1.639  13.811
29045SOL    HW289033   5.821   1.718  13.682
29046SOL     OW89034  11.002   6.326  12.290
29046SOL    HW189035  11.029   6.286  12.372
29046SOL    HW289036  11.075   6.384  12.266
29047SOL     OW89037   9.452   1.311   4.765
29047SOL    HW189038   9.413   1.284   4.849
29047SOL    HW289039   9.462   1.406   4.773
29048SOL     OW89040   3.959   5.343   4.953
29048SOL    HW189041   4.014   5.283   5.003
29048SOL    HW289042   3.970   5.427   4.996
29049SOL     OW89043   6.292  12.968   1.570
29049SOL    HW189044   6.328  12.960   1.658
29049SOL    HW289045   6.215  12.911   1.570
29050SOL     OW89046  13.701  10.433  11.100
29050SOL    HW189047  13.769  10.431  11.166
29050SOL    HW289048  13.740  10.480  11.026
29051SOL     OW89049  11.685  10.138  14.244
29051SOL    HW189050  11.734  10.118  14.324
29051SOL    HW289051  11.751  10.169  14.182
29052SOL     OW89052   1.627   5.072   1.426
29052SOL    HW189053   1.556   5.116   1.380
29052SOL    HW289054   1.588   4.992   1.460
29053SOL     OW89055   2.066   0.781   6.146
29053SOL    HW189056   2.000   0.736   6.093
29053SOL    HW289057   2.080   0.864   6.101
29054SOL     OW89058  12.360  12.738   7.338
29054SOL    HW189059  12.305  12.662   7.357
29054SOL    HW289060  12.301  12.813   7.341
29055SOL     OW89061   2.317   7.822   0.588
29055SOL    HW189062   2.262   7.791   0.516
29055SOL    HW289063   2.393   7.764   0.587
29056SOL     OW89064   2.589   3.404   3.394
29056SOL    HW189065   2.630   3.490   3.407
29056SOL    HW289066   2.636   3.346   3.454
29057SOL     OW89067   1.473  11.965   5.303
29057SOL    HW189068   1.530  11.943   5.377
29057SOL    HW289069   1.399  11.906   5.312
29058SOL     OW89070   9.634  13.529  10.456
29058SOL    HW189071   9.562  13.561  10.510
29058SOL    HW289072   9.709  13.583  10.480
29059SOL     OW89073  10.226   0.913   8.730
29059SOL    HW189074  10.167   0.854   8.777
29059SOL    HW289075  10.314   0.883   8.754
29060SOL     OW89076   9.805   2.359  10.593
29060SOL    HW189077   9.824   2.297  10.523
29060SOL    HW289078   9.880   2.354  10.652
29061SOL     OW89079   9.399   7.691  11.494
29061SOL    HW189080   9.387   7.597  11.502
29061SOL    HW289081   9.413   7.722  11.583
29062SOL     OW89082   0.979   6.921   9.579
29062SOL    HW189083   1.003   7.011   9.600
29062SOL    HW289084   0.886   6.916   9.601
29063SOL     OW89085   7.273  13.527  12.552
29063SOL    HW189086   7.368  13.526  12.564
29063SOL    HW289087   7.244  13.438  12.573
29064SOL     OW89088   4.682   7.918   4.510
29064SOL    HW189089   4.614   7.981   4.533
29064SOL    HW289090   4.727   7.959   4.436
29065SOL     OW89091  14.828   2.115   2.465
29065SOL    HW189092  14.792   2.047   2.522
29065SOL    HW289093   0.023   2.149   2.514
29066SOL     OW89094  13.007  12.841   0.529
29066SOL    HW189095  13.005  12.922   0.581
29066SOL    HW289096  12.919  12.804   0.540
29067SOL     OW89097  10.526  12.355   5.071
29067SOL    HW189098  10.548  12.268   5.106
29067SOL    HW289099  10.452  12.338   5.012
29068SOL     OW89100   4.613  10.139   6.088
29068SOL    HW189101   4.631  10.156   5.995
29068SOL    HW289102   4.558  10.213   6.115
29069SOL     OW89103   9.641  11.339  11.408
29069SOL    HW189104   9.709  11.275  11.386
29069SOL    HW289105   9.635  11.395  11.330
29070SOL     OW89106   2.171   5.379   6.335
29070SOL    HW189107   2.262   5.377   6.364
29070SOL    HW289108   2.172   5.439   6.260
29071SOL     OW89109  14.210  11.756   4.771
29071SOL    HW189110  14.254  11.682   4.812
29071SOL    HW289111  14.178  11.809   4.845
29072SOL     OW89112  14.689  13.528   2.798
29072SOL    HW189113  14.613  13.543   2.742
29072SOL    HW289114  14.696  13.433   2.805
29073SOL     OW89115   8.289   7.260   6.212
29073SOL    HW189116   8.292   7.355   6.224
29073SOL    HW289117   8.266   7.248   6.120
29074SOL     OW89118   2.892   6.969   1.999
29074SOL    HW189119   2.976   6.957   2.042
29074SOL    HW289120   2.914   6.982   1.906
29075SOL     OW89121   0.607  11.872  13.576
29075SOL    HW189122   0.554  11.952  13.569
29075SOL    HW289123   0.611  11.855  13.670
29076SOL     OW89124  14.442   8.701   5.532
29076SOL    HW189125  14.494   8.625   5.507
29076SOL    HW289126  14.408   8.736   5.450
29077SOL     OW89127   9.969   3.094   0.236
29077SOL    HW189128   9.938   3.159   0.174
29077SOL    HW289129   9.964   3.137   0.321
29078SOL     OW89130  13.067   1.834   8.795
29078SOL    HW189131  13.124   1.829   8.871
29078SOL    HW289132  13.015   1.753   8.800
29079SOL     OW89133   8.551   5.587   2.250
29079SOL    HW189134   8.524   5.653   2.185
29079SOL    HW289135   8.593   5.519   2.198
29080SOL     OW89136   5.272   0.233  12.988
29080SOL    HW189137   5.333   0.205  12.919
29080SOL    HW289138   5.199   0.274  12.941
29081SOL     OW89139  14.704   2.743   7.533
29081SOL    HW189140  14.701   2.838   7.539
29081SOL    HW289141  14.663   2.713   7.614
29082SOL     OW89142  11.705   1.536   8.437
29082SOL    HW189143  11.624   1.521   8.387
29082SOL    HW289144  11.676   1.578   8.518
29083SOL     OW89145   9.168   9.745   3.574
29083SOL    HW189146   9.202   9.702   3.653
29083SOL    HW289147   9.102   9.806   3.607
29084SOL     OW89148  11.771  14.084  13.223
29084SOL    HW189149  11.690  14.117  13.185
29084SOL    HW289150  11.769  14.115  13.314
29085SOL     OW89151   0.140  13.967   1.853
29085SOL    HW189152   0.150  13.908   1.928
29085SOL    HW289153   0.223  14.014   1.848
29086SOL     OW89154   8.944   2.078   9.440
29086SOL    HW189155   8.986   2.084   9.354
29086SOL    HW289156   9.008   2.117   9.500
29087SOL     OW89157   3.732  12.211   3.578
29087SOL    HW189158   3.777  12.164   3.647
29087SOL    HW289159   3.662  12.259   3.622
29088SOL     OW89160   7.947   6.185   4.809
29088SOL    HW189161   7.963   6.218   4.897
29088SOL    HW289162   7.955   6.090   4.818
29089SOL     OW89163  14.801   9.331   4.332
29089SOL    HW189164  14.798   9.295   4.244
29089SOL    HW289165  14.711   9.326   4.364
29090SOL     OW89166  13.395   3.130  11.322
29090SOL    HW189167  13.408   3.159  11.412
29090SOL    HW289168  13.429   3.202  11.268
29091SOL     OW89169   2.491   7.271  13.743
29091SOL    HW189170   2.481   7.179  13.769
29091SOL    HW289171   2.437   7.279  13.664
29092SOL     OW89172  13.026   8.587  11.034
29092SOL    HW189173  13.062   8.675  11.040
29092SOL    HW289174  13.023   8.556  11.124
29093SOL     OW89175   3.265   6.284   5.198
29093SOL    HW189176   3.340   6.340   5.181
29093SOL    HW289177   3.255   6.285   5.293
29094SOL     OW89178  11.142  13.498  10.178
29094SOL    HW189179  11.208  13.556  10.217
29094SOL    HW289180  11.138  13.525  10.086
29095SOL     OW89181   4.003  11.343  11.585
29095SOL    HW189182   4.003  11.286  11.508
29095SOL    HW289183   3.955  11.294  11.651
29096SOL     OW89184   4.563  12.288  13.778
29096SOL    HW189185   4.471  12.311  13.785
29096SOL    HW289186   4.601  12.315  13.861
29097SOL     OW89187  11.001  14.060   3.599
29097SOL    HW189188  10.981  14.080   3.690
29097SOL    HW289189  10.991  13.965   3.593
29098SOL     OW89190  14.848   9.211   4.039
29098SOL    HW189191  14.760   9.240   4.019
29098SOL    HW289192   0.024   9.286   4.017
29099SOL     OW89193   2.536   1.315   1.612
29099SOL    HW189194   2.509   1.405   1.633
29099SOL    HW289195   2.543   1.272   1.697
29100SOL     OW89196  13.820  14.876  12.699
29100SOL    HW189197  13.872   0.076  12.697
29100SOL    HW289198  13.871  14.816  12.753
29101SOL     OW89199   0.599   7.586  13.169
29101SOL    HW189200   0.623   7.630  13.251
29101SOL    HW289201   0.678   7.539  13.143
29102SOL     OW89202   5.955   9.698   7.143
29102SOL    HW189203   5.929   9.607   7.128
29102SOL    HW289204   6.033   9.693   7.198
29103SOL     OW89205  13.593  13.790  14.618
29103SOL    HW189206  13.551  13.721  14.670
29103SOL    HW289207  13.558  13.871  14.655
29104SOL     OW89208   3.460  14.230   5.313
29104SOL    HW189209   3.405  14.156   5.339
29104SOL    HW289210   3.441  14.298   5.378
29105SOL     OW89211   5.527   9.286   3.146
29105SOL    HW189212   5.535   9.191   3.157
29105SOL    HW289213   5.481   9.317   3.224
29106SOL     OW89214   1.566   4.599   1.284
29106SOL    HW189215   1.590   4.687   1.257
29106SOL    HW289216   1.610   4.586   1.368
29107SOL     OW89217   5.341   9.605   9.946
29107SOL    HW189218   5.249   9.591   9.925
29107SOL    HW289219   5.341   9.678  10.007
29108SOL     OW89220   2.045   4.339   2.532
29108SOL    HW189221   2.126   4.315   2.577
29108SOL    HW289222   2.072   4.351   2.441
29109SOL     OW89223  12.663  13.950   2.654
29109SOL    HW189224  12.728  13.881   2.668
29109SOL    HW289225  12.715  14.026   2.628
29110SOL     OW89226   9.142   6.791  14.636
29110SOL    HW189227   9.217   6.756  14.589
29110SOL    HW289228   9.116   6.720  14.695
29111SOL     OW89229   9.173   7.430   1.527
29111SOL    HW189230   9.180   7.388   1.442
29111SOL    HW289231   9.209   7.517   1.514
29112SOL     OW89232   9.393   7.005   9.067
29112SOL    HW189233   9.351   6.956   9.138
29112SOL    HW289234   9.468   6.951   9.042
29113SOL     OW89235   3.937  11.809   9.764
29113SOL    HW189236   3.964  11.738   9.822
29113SOL    HW289237   3.923  11.884   9.822
29114SOL     OW89238  13.067  14.523   7.281
29114SOL    HW189239  13.106  14.595   7.331
29114SOL    HW289240  13.043  14.562   7.197
29115SOL     OW89241   0.790   1.030   3.859
29115SOL    HW189242   0.854   1.035   3.788
29115SOL    HW289243   0.806   0.945   3.900
29116SOL     OW89244  14.617   0.484  12.463
29116SOL    HW189245  14.613   0.465  12.557
29116SOL    HW289246  14.558   0.558  12.451
29117SOL     OW89247   0.923  11.748  12.871
29117SOL    HW189248   0.938  11.671  12.817
29117SOL    HW289249   1.002  11.802  12.858
29118SOL     OW89250  12.508   4.195  10.336
29118SOL    HW189251  12.587   4.164  10.292
29118SOL    HW289252  12.497   4.285  10.306
29119SOL     OW89253   1.384  11.517   3.990
29119SOL    HW189254   1.333  11.569   3.929
29119SOL    HW289255   1.472  11.515   3.952
29120SOL     OW89256   2.432   8.288   2.376
29120SOL    HW189257   2.373   8.256   2.443
29120SOL    HW289258   2.500   8.221   2.369
29121SOL     OW89259   3.101   9.508   7.217
29121SOL    HW189260   3.182   9.555   7.235
29121SOL    HW289261   3.043   9.533   7.289
29122SOL     OW89262  10.566   0.847   8.231
29122SOL    HW189263  10.569   0.752   8.228
29122SOL    HW289264  10.630   0.875   8.165
29123SOL     OW89265   0.494   0.604  10.219
29123SOL    HW189266   0.466   0.692  10.196
29123SOL    HW289267   0.535   0.613  10.304
29124SOL     OW89268   9.130   0.031   5.871
29124SOL    HW189269   9.144  14.823   5.839
29124SOL    HW289270   9.076   0.073   5.804
29125SOL     OW89271  10.425   3.577  14.226
29125SOL    HW189272  10.511   3.612  14.250
29125SOL    HW289273  10.371   3.655  14.212
29126SOL     OW89274  13.248   0.442   7.296
29126SOL    HW189275  13.166   0.492   7.298
29126SOL    HW289276  13.282   0.450   7.385
29127SOL     OW89277  10.154  11.708  11.988
29127SOL    HW189278  10.158  11.739  12.078
29127SOL    HW289279  10.232  11.653  11.978
29128SOL     OW89280   2.015   2.067  11.196
29128SOL    HW189281   2.100   2.024  11.186
29128SOL    HW289282   1.951   1.996  11.193
29129SOL     OW89283   9.349  12.120   7.892
29129SOL    HW189284   9.312  12.182   7.829
29129SOL    HW289285   9.434  12.158   7.916
29130SOL     OW89286   7.140  14.081   3.025
29130SOL    HW189287   7.229  14.065   3.058
29130SOL    HW289288   7.111  13.996   2.993
29131SOL     OW89289   7.470   1.780   4.793
29131SOL    HW189290   7.525   1.829   4.854
29131SOL    HW289291   7.462   1.693   4.832
29132SOL     OW89292  11.282   2.698   9.907
29132SOL    HW189293  11.352   2.723   9.967
29132SOL    HW289294  11.312   2.730   9.821
29133SOL     OW89295   3.671   2.267   3.327
29133SOL    HW189296   3.631   2.350   3.300
29133SOL    HW289297   3.685   2.219   3.246
29134SOL     OW89298   0.892   6.220   3.575
29134SOL    HW189299   0.898   6.240   3.482
29134SOL    HW289300   0.896   6.306   3.618
29135SOL     OW89301   8.770   4.039   1.752
29135SOL    HW189302   8.831   3.993   1.694
29135SOL    HW289303   8.708   3.972   1.779
29136SOL     OW89304   3.023   4.767   5.875
29136SOL    HW189305   2.970   4.744   5.951
29136SOL    HW289306   3.043   4.684   5.833
29137SOL     OW89307   9.570   2.001   3.315
29137SOL    HW189308   9.603   2.028   3.401
29137SOL    HW289309   9.476   2.017   3.320
29138SOL     OW89310  11.123   1.467   4.204
29138SOL    HW189311  11.215   1.464   4.228
29138SOL    HW289312  11.083   1.525   4.270
29139SOL     OW89313  14.183   2.277  14.094
29139SOL    HW189314  14.096   2.315  14.102
29139SOL    HW289315  14.188   2.246  14.004
29140SOL     OW89316   4.804   4.100  14.155
29140SOL    HW189317   4.724   4.047  14.153
29140SOL    HW289318   4.788   4.170  14.091
29141SOL     OW89319   5.168  10.091   2.258
29141SOL    HW189320   5.200  10.151   2.325
29141SOL    HW289321   5.209  10.007   2.279
29142SOL     OW89322   9.024   9.734   6.100
29142SOL    HW189323   8.944   9.755   6.149
29142SOL    HW289324   9.095   9.768   6.155
29143SOL     OW89325   6.597   5.421   1.555
29143SOL    HW189326   6.517   5.462   1.521
29143SOL    HW289327   6.663   5.490   1.552
29144SOL     OW89328  14.444   8.047   2.031
29144SOL    HW189329  14.518   8.049   2.092
29144SOL    HW289330  14.367   8.054   2.087
29145SOL     OW89331   7.256  10.121   6.318
29145SOL    HW189332   7.214  10.077   6.392
29145SOL    HW289333   7.195  10.111   6.246
29146SOL     OW89334   8.999  14.538   8.304
29146SOL    HW189335   9.028  14.510   8.217
29146SOL    HW289336   9.081  14.555   8.352
29147SOL     OW89337  11.887   3.591   5.653
29147SOL    HW189338  11.867   3.598   5.747
29147SOL    HW289339  11.835   3.661   5.613
29148SOL     OW89340   8.829  11.904   2.787
29148SOL    HW189341   8.806  11.997   2.787
29148SOL    HW289342   8.791  11.870   2.869
29149SOL     OW89343   7.770  13.671   3.085
29149SOL    HW189344   7.726  13.712   3.160
29149SOL    HW289345   7.713  13.692   3.011
29150SOL     OW89346   6.104  13.874  13.466
29150SOL    HW189347   6.133  13.835  13.383
29150SOL    HW289348   6.164  13.838  13.531
29151SOL     OW89349   4.377  11.121   0.352
29151SOL    HW189350   4.408  11.080   0.432
29151SOL    HW289351   4.388  11.054   0.285
29152SOL     OW89352   1.638   8.290  13.051
29152SOL    HW189353   1.580   8.349  13.003
29152SOL    HW289354   1.723   8.298  13.007
29153SOL     OW89355   0.715   9.700   5.593
29153SOL    HW189356   0.713   9.787   5.553
29153SOL    HW289357   0.697   9.715   5.686
29154SOL     OW89358  13.514  10.077   2.427
29154SOL    HW189359  13.466  10.097   2.347
29154SOL    HW289360  13.604  10.103   2.408
29155SOL     OW89361  13.036  11.240  10.692
29155SOL    HW189362  13.091  11.241  10.614
29155SOL    HW289363  12.971  11.309  10.675
29156SOL     OW89364  13.720  10.198  12.186
29156SOL    HW189365  13.633  10.221  12.155
29156SOL    HW289366  13.727  10.242  12.271
29157SOL     OW89367   9.182   8.997   9.771
29157SOL    HW189368   9.141   8.918   9.736
29157SOL    HW289369   9.267   8.967   9.804
29158SOL     OW89370   0.994   2.486   1.057
29158SOL    HW189371   1.019   2.446   1.140
29158SOL    HW289372   0.917   2.539   1.077
29159SOL     OW89373   1.578   4.451   6.219
29159SOL    HW189374   1.617   4.417   6.138
29159SOL    HW289375   1.548   4.539   6.196
29160SOL     OW89376   8.904   4.438   5.801
29160SOL    HW189377   8.953   4.405   5.876
29160SOL    HW289378   8.816   4.455   5.835
29161SOL     OW89379   2.701   1.695   0.639
29161SOL    HW189380   2.607   1.677   0.638
29161SOL    HW289381   2.741   1.616   0.602
29162SOL     OW89382   6.938   8.940  10.097
29162SOL    HW189383   6.985   8.914  10.018
29162SOL    HW289384   6.867   8.996  10.065
29163SOL     OW89385  13.463  10.106   4.126
29163SOL    HW189386  13.435  10.161   4.199
29163SOL    HW289387  13.397  10.036   4.122
29164SOL     OW89388   3.858   7.219   1.152
29164SOL    HW189389   3.813   7.143   1.187
29164SOL    HW289390   3.809   7.294   1.186
29165SOL     OW89391   0.543   0.698   3.273
29165SOL    HW189392   0.531   0.674   3.365
29165SOL    HW289393   0.554   0.793   3.273
29166SOL     OW89394  11.898   8.645  10.072
29166SOL    HW189395  11.860   8.569  10.027
29166SOL    HW289396  11.991   8.623  10.080
29167SOL     OW89397   1.176   5.847  13.889
29167SOL    HW189398   1.088   5.847  13.927
29167SOL    HW289399   1.189   5.756  13.862
29168SOL     OW89400  12.220   9.422   3.299
29168SOL    HW189401  12.275   9.441   3.375
29168SOL    HW289402  12.174   9.505   3.281
29169SOL     OW89403   2.023  13.572  10.663
29169SOL    HW189404   1.935  13.535  10.667
29169SOL    HW289405   2.031  13.624  10.743
29170SOL     OW89406  10.952   4.776   3.141
29170SOL    HW189407  10.883   4.714   3.116
29170SOL    HW289408  10.957   4.769   3.236
29171SOL     OW89409  14.698   4.977   4.085
29171SOL    HW189410  14.701   4.975   4.181
29171SOL    HW289411  14.649   5.057   4.065
29172SOL     OW89412   6.386   4.990  10.182
29172SOL    HW189413   6.347   5.052  10.120
29172SOL    HW289414   6.468   5.032  10.208
29173SOL     OW89415  11.914   1.408   3.943
29173SOL    HW189416  11.825   1.375   3.937
29173SOL    HW289417  11.925   1.431   4.036
29174SOL     OW89418   6.605   1.505  10.533
29174SOL    HW189419   6.517   1.538  10.513
29174SOL    HW289420   6.608   1.418  10.493
29175SOL     OW89421  10.133  10.092  13.717
29175SOL    HW189422  10.174  10.177  13.700
29175SOL    HW289423  10.199  10.028  13.690
29176SOL     OW89424  10.891   8.286  11.861
29176SOL    HW189425  10.949   8.343  11.810
29176SOL    HW289426  10.884   8.329  11.946
29177SOL     OW89427   2.440  13.515   4.850
29177SOL    HW189428   2.496  13.591   4.831
29177SOL    HW289429   2.367  13.525   4.790
29178SOL     OW89430   1.145   6.429   5.440
29178SOL    HW189431   1.117   6.453   5.352
29178SOL    HW289432   1.189   6.507   5.473
29179SOL     OW89433   5.631  10.969  12.119
29179SOL    HW189434   5.699  10.902  12.117
29179SOL    HW289435   5.584  10.958  12.036
29180SOL     OW89436   7.108   2.861  14.347
29180SOL    HW189437   7.141   2.943  14.384
29180SOL    HW289438   7.180   2.828  14.294
29181SOL     OW89439  12.248  11.365   0.785
29181SOL    HW189440  12.327  11.347   0.734
29181SOL    HW289441  12.219  11.280   0.815
29182SOL     OW89442   6.846   1.620   9.501
29182SOL    HW189443   6.796   1.695   9.533
29182SOL    HW289444   6.915   1.659   9.447
29183SOL     OW89445   9.153  10.905  14.718
29183SOL    HW189446   9.190  10.821  14.691
29183SOL    HW289447   9.058  10.893  14.711
29184SOL     OW89448   5.100   8.493   9.077
29184SOL    HW189449   5.028   8.498   9.139
29184SOL    HW289450   5.099   8.576   9.030
29185SOL     OW89451   9.824  13.278   9.319
29185SOL    HW189452   9.881  13.340   9.274
29185SOL    HW289453   9.832  13.197   9.269
29186SOL     OW89454  11.398  12.145   9.184
29186SOL    HW189455  11.441  12.079   9.239
29186SOL    HW289456  11.388  12.221   9.241
29187SOL     OW89457   9.608   6.319  14.043
29187SOL    HW189458   9.570   6.243  13.999
29187SOL    HW289459   9.700   6.295  14.056
29188SOL     OW89460  11.151  10.627  11.347
29188SOL    HW189461  11.070  10.662  11.311
29188SOL    HW289462  11.218  10.689  11.319
29189SOL     OW89463  13.861   3.213   5.014
29189SOL    HW189464  13.930   3.277   4.994
29189SOL    HW289465  13.905   3.147   5.067
29190SOL     OW89466   7.601   4.640   0.902
29190SOL    HW189467   7.548   4.715   0.878
29190SOL    HW289468   7.605   4.586   0.823
29191SOL     OW89469   8.198   3.734   9.248
29191SOL    HW189470   8.183   3.730   9.343
29191SOL    HW289471   8.156   3.655   9.214
29192SOL     OW89472   7.138   0.823   1.112
29192SOL    HW189473   7.197   0.890   1.146
29192SOL    HW289474   7.055   0.838   1.157
29193SOL     OW89475   7.983   0.343   3.995
29193SOL    HW189476   7.991   0.251   3.969
29193SOL    HW289477   7.889   0.360   3.997
29194SOL     OW89478   2.760  12.082   7.775
29194SOL    HW189479   2.851  12.055   7.759
29194SOL    HW289480   2.739  12.047   7.861
29195SOL     OW89481  12.809  10.759  13.672
29195SOL    HW189482  12.733  10.805  13.707
29195SOL    HW289483  12.805  10.672  13.713
29196SOL     OW89484  13.103   7.882   4.823
29196SOL    HW189485  13.133   7.791   4.812
29196SOL    HW289486  13.051   7.899   4.744
29197SOL     OW89487   0.257  11.763  12.627
29197SOL    HW189488   0.290  11.684  12.583
29197SOL    HW289489   0.162  11.756  12.620
29198SOL     OW89490   3.348   9.012   8.041
29198SOL    HW189491   3.426   9.020   7.987
29198SOL    HW289492   3.310   9.100   8.040
29199SOL     OW89493  13.209   9.069   1.305
29199SOL    HW189494  13.192   9.016   1.227
29199SOL    HW289495  13.123   9.077   1.347
29200SOL     OW89496   3.018  11.730  10.501
29200SOL    HW189497   3.094  11.743  10.557
29200SOL    HW289498   2.950  11.785  10.540
29201SOL     OW89499  11.405  11.200   0.448
29201SOL    HW189500  11.389  11.183   0.541
29201SOL    HW289501  11.320  11.230   0.414
29202SOL     OW89502   6.500  10.134  14.127
29202SOL    HW189503   6.591  10.130  14.157
29202SOL    HW289504   6.473  10.225  14.142
29203SOL     OW89505  11.342   1.065   2.640
29203SOL    HW189506  11.271   1.041   2.581
29203SOL    HW289507  11.404   1.113   2.585
29204SOL     OW89508   7.415  12.492   7.363
29204SOL    HW189509   7.482  12.430   7.390
29204SOL    HW289510   7.350  12.438   7.316
29205SOL     OW89511  13.934  13.066  14.050
29205SOL    HW189512  13.873  13.075  14.124
29205SOL    HW289513  13.931  13.150  14.006
29206SOL     OW89514  14.600  14.047  13.850
29206SOL    HW189515  14.641  14.124  13.890
29206SOL    HW289516  14.665  13.977  13.861
29207SOL     OW89517  10.112  13.040   0.778
29207SOL    HW189518  10.177  13.065   0.844
29207SOL    HW289519  10.119  12.944   0.773
29208SOL     OW89520   7.480   9.654  13.932
29208SOL    HW189521   7.453   9.632  14.020
29208SOL    HW289522   7.494   9.749  13.934
29209SOL     OW89523   2.075  10.619  12.563
29209SOL    HW189524   2.071  10.524  12.554
29209SOL    HW289525   2.150  10.644  12.509
29210SOL     OW89526   7.549   7.596  11.929
29210SOL    HW189527   7.612   7.662  11.956
29210SOL    HW289528   7.463   7.637  11.942
29211SOL     OW89529  12.220  11.344   0.283
29211SOL    HW189530  12.228  11.286   0.206
29211SOL    HW289531  12.239  11.431   0.249
29212SOL     OW89532  10.807  13.927   2.088
29212SOL    HW189533  10.831  13.898   2.176
29212SOL    HW289534  10.890  13.948   2.045
29213SOL     OW89535   2.278  14.741   1.593
29213SOL    HW189536   2.286  14.834   1.614
29213SOL    HW289537   2.269  14.698   1.679
29214SOL     OW89538  10.385   9.537  13.827
29214SOL    HW189539  10.441   9.460  13.811
29214SOL    HW289540  10.417   9.573  13.910
29215SOL     OW89541   1.817  11.323   7.433
29215SOL    HW189542   1.862  11.408   7.424
29215SOL    HW289543   1.762  11.317   7.356
29216SOL     OW89544   6.887   7.881  10.230
29216SOL    HW189545   6.979   7.870  10.208
29216SOL    HW289546   6.848   7.922  10.152
29217SOL     OW89547   7.438   1.593   2.914
29217SOL    HW189548   7.362   1.651   2.922
29217SOL    HW289549   7.412   1.512   2.958
29218SOL     OW89550   7.501   0.140   4.354
29218SOL    HW189551   7.491   0.220   4.406
29218SOL    HW289552   7.558   0.166   4.282
29219SOL     OW89553   3.648   2.860   0.003
29219SOL    HW189554   3.668   2.953   0.017
29219SOL    HW289555   3.732   2.816   0.015
29220SOL     OW89556  11.386   9.336   2.362
29220SOL    HW189557  11.312   9.322   2.421
29220SOL    HW289558  11.358   9.297   2.279
29221SOL     OW89559   9.867   7.949   5.842
29221SOL    HW189560   9.855   7.917   5.932
29221SOL    HW289561   9.862   7.870   5.788
29222SOL     OW89562   0.582   3.622   6.455
29222SOL    HW189563   0.533   3.629   6.537
29222SOL    HW289564   0.544   3.546   6.411
29223SOL     OW89565  14.153   1.746   9.866
29223SOL    HW189566  14.189   1.679   9.807
29223SOL    HW289567  14.127   1.697   9.944
29224SOL     OW89568  10.780  11.385   6.023
29224SOL    HW189569  10.841  11.416   5.957
29224SOL    HW289570  10.700  11.366   5.975
29225SOL     OW89571   2.012  12.761   9.209
29225SOL    HW189572   2.006  12.840   9.155
29225SOL    HW289573   1.926  12.719   9.199
29226SOL     OW89574   8.746   2.778  12.968
29226SOL    HW189575   8.758   2.872  12.982
29226SOL    HW289576   8.831   2.740  12.989
29227SOL     OW89577   6.235  13.424   6.016
29227SOL    HW189578   6.162  13.458   6.068
29227SOL    HW289579   6.227  13.468   5.931
29228SOL     OW89580  10.290   8.268   5.346
29228SOL    HW189581  10.305   8.256   5.440
29228SOL    HW289582  10.377   8.263   5.307
29229SOL     OW89583   4.311  11.011  13.536
29229SOL    HW189584   4.320  11.005  13.631
29229SOL    HW289585   4.353  11.094  13.513
29230SOL     OW89586   1.263  11.321   3.734
29230SOL    HW189587   1.347  11.303   3.692
29230SOL    HW289588   1.278  11.301   3.826
29231SOL     OW89589   5.456  11.387   1.467
29231SOL    HW189590   5.507  11.335   1.530
29231SOL    HW289591   5.475  11.347   1.382
29232SOL     OW89592  10.729   6.701   7.246
29232SOL    HW189593  10.656   6.760   7.227
29232SOL    HW289594  10.785   6.750   7.306
29233SOL     OW89595   1.379  10.548   5.862
29233SOL    HW189596   1.395  10.631   5.818
29233SOL    HW289597   1.463  10.502   5.856
29234SOL     OW89598  11.072   3.624   2.286
29234SOL    HW189599  11.001   3.683   2.312
29234SOL    HW289600  11.030   3.561   2.228
29235SOL     OW89601   4.106   7.278   6.541
29235SOL    HW189602   4.154   7.347   6.495
29235SOL    HW289603   4.016   7.312   6.547
29236SOL     OW89604   5.441   5.176   3.886
29236SOL    HW189605   5.473   5.113   3.820
29236SOL    HW289606   5.374   5.226   3.840
29237SOL     OW89607   6.742  14.521   1.409
29237SOL    HW189608   6.827  14.478   1.411
29237SOL    HW289609   6.758  14.608   1.446
29238SOL     OW89610   3.930   9.362   8.994
29238SOL    HW189611   4.024   9.358   9.009
29238SOL    HW289612   3.900   9.271   9.001
29239SOL     OW89613   3.641  10.035  14.401
29239SOL    HW189614   3.610   9.979  14.329
29239SOL    HW289615   3.561  10.075  14.436
29240SOL     OW89616  13.205   5.805  12.596
29240SOL    HW189617  13.245   5.726  12.634
29240SOL    HW289618  13.170   5.775  12.512
29241SOL     OW89619  10.531  11.186   2.175
29241SOL    HW189620  10.537  11.195   2.270
29241SOL    HW289621  10.438  11.171   2.159
29242SOL     OW89622  13.200   7.944   3.242
29242SOL    HW189623  13.219   7.865   3.292
29242SOL    HW289624  13.110   7.965   3.264
29243SOL     OW89625   2.180  10.605  14.061
29243SOL    HW189626   2.096  10.596  14.105
29243SOL    HW289627   2.227  10.671  14.112
29244SOL     OW89628   2.772   8.256   3.105
29244SOL    HW189629   2.847   8.197   3.103
29244SOL    HW289630   2.699   8.204   3.069
29245SOL     OW89631   4.936  10.105  13.223
29245SOL    HW189632   4.904  10.111  13.133
29245SOL    HW289633   4.889  10.031  13.261
29246SOL     OW89634   5.224   2.489  12.814
29246SOL    HW189635   5.277   2.503  12.893
29246SOL    HW289636   5.209   2.577  12.780
29247SOL     OW89637  14.105   2.980   6.942
29247SOL    HW189638  14.050   2.926   6.886
29247SOL    HW289639  14.049   3.004   7.016
29248SOL     OW89640  10.915   0.390   9.607
29248SOL    HW189641  11.004   0.398   9.642
29248SOL    HW289642  10.896   0.297   9.610
29249SOL     OW89643   9.318   2.779   4.970
29249SOL    HW189644   9.324   2.769   5.065
29249SOL    HW289645   9.394   2.732   4.935
29250SOL     OW89646   7.855  12.464  11.795
29250SOL    HW189647   7.849  12.558  11.809
29250SOL    HW289648   7.948  12.447  11.785
29251SOL     OW89649   1.727   4.403   5.367
29251SOL    HW189650   1.773   4.447   5.296
29251SOL    HW289651   1.790   4.340   5.401
29252SOL     OW89652   8.553   7.725   1.792
29252SOL    HW189653   8.543   7.705   1.698
29252SOL    HW289654   8.577   7.818   1.794
29253SOL     OW89655  11.021   7.887  11.677
29253SOL    HW189656  11.028   7.797  11.710
29253SOL    HW289657  10.929   7.909  11.690
29254SOL     OW89658  10.359  11.806   5.327
29254SOL    HW189659  10.385  11.832   5.239
29254SOL    HW289660  10.292  11.738   5.313
29255SOL     OW89661   0.483   8.107  13.143
29255SOL    HW189662   0.443   8.052  13.211
29255SOL    HW289663   0.424   8.097  13.068
29256SOL     OW89664   7.857   2.322   5.599
29256SOL    HW189665   7.820   2.315   5.511
29256SOL    HW289666   7.832   2.409   5.629
29257SOL     OW89667   7.154   1.446  12.966
29257SOL    HW189668   7.173   1.523  13.020
29257SOL    HW289669   7.136   1.482  12.879
29258SOL     OW89670   2.502   1.504   0.290
29258SOL    HW189671   2.455   1.428   0.254
29258SOL    HW289672   2.502   1.488   0.385
29259SOL     OW89673   1.017   7.361   2.580
29259SOL    HW189674   1.079   7.303   2.537
29259SOL    HW289675   1.066   7.399   2.653
29260SOL     OW89676   3.551   3.013   8.719
29260SOL    HW189677   3.462   2.991   8.690
29260SOL    HW289678   3.539   3.089   8.776
29261SOL     OW89679  14.666   1.057   8.312
29261SOL    HW189680  14.639   1.131   8.367
29261SOL    HW289681  14.749   1.028   8.350
29262SOL     OW89682   7.795  13.458   9.967
29262SOL    HW189683   7.775  13.383  10.023
29262SOL    HW289684   7.816  13.529  10.027
29263SOL     OW89685  12.974   8.881   4.480
29263SOL    HW189686  13.018   8.955   4.522
29263SOL    HW289687  12.882   8.890   4.505
29264SOL     OW89688  13.882  13.423   1.181
29264SOL    HW189689  13.882  13.379   1.096
29264SOL    HW289690  13.960  13.389   1.224
29265SOL     OW89691  12.467   1.346  11.687
29265SOL    HW189692  12.409   1.295  11.630
29265SOL    HW289693  12.464   1.301  11.771
29266SOL     OW89694  14.660   8.979   2.657
29266SOL    HW189695  14.651   9.034   2.735
29266SOL    HW289696  14.671   9.041   2.585
29267SOL     OW89697   7.799  12.999   6.397
29267SOL    HW189698   7.754  13.000   6.481
29267SOL    HW289699   7.801  13.091   6.369
29268SOL     OW89700   5.871  10.628  12.390
29268SOL    HW189701   5.819  10.701  12.423
29268SOL    HW289702   5.956  10.638  12.432
29269SOL     OW89703  12.024   2.368  13.699
29269SOL    HW189704  12.096   2.311  13.670
29269SOL    HW289705  12.066   2.448  13.728
29270SOL     OW89706   8.697   7.772   0.196
29270SOL    HW189707   8.605   7.765   0.168
29270SOL    HW289708   8.747   7.759   0.115
29271SOL     OW89709  14.015  13.669   9.196
29271SOL    HW189710  14.074  13.627   9.259
29271SOL    HW289711  14.061  13.665   9.113
29272SOL     OW89712   1.349   7.720  14.754
29272SOL    HW189713   1.310   7.803  14.780
29272SOL    HW289714   1.324   7.659  14.824
29273SOL     OW89715   8.154   3.263   6.513
29273SOL    HW189716   8.228   3.206   6.532
29273SOL    HW289717   8.186   3.323   6.446
29274SOL     OW89718   9.801  10.673  10.823
29274SOL    HW189719   9.890  10.672  10.858
29274SOL    HW289720   9.772  10.764  10.832
29275SOL     OW89721   2.122  13.352  13.163
29275SOL    HW189722   2.123  13.269  13.115
29275SOL    HW289723   2.193  13.344  13.227
29276SOL     OW89724   5.501   7.335  13.690
29276SOL    HW189725   5.463   7.423  13.682
29276SOL    HW289726   5.578   7.348  13.745
29277SOL     OW89727   3.318  10.538   3.181
29277SOL    HW189728   3.390  10.512   3.123
29277SOL    HW289729   3.274  10.455   3.202
29278SOL     OW89730   5.806   9.667   3.739
29278SOL    HW189731   5.727   9.620   3.714
29278SOL    HW289732   5.878   9.609   3.711
29279SOL     OW89733   4.853   6.201   2.137
29279SOL    HW189734   4.817   6.287   2.115
29279SOL    HW289735   4.854   6.200   2.233
29280SOL     OW89736  12.621  10.765  10.124
29280SOL    HW189737  12.565  10.716  10.185
29280SOL    HW289738  12.570  10.767  10.043
29281SOL     OW89739   8.914  13.523  11.336
29281SOL    HW189740   8.869  13.607  11.348
29281SOL    HW289741   8.996  13.545  11.292
29282SOL     OW89742   3.517   8.545   8.939
29282SOL    HW189743   3.583   8.525   8.872
29282SOL    HW289744   3.539   8.488   9.012
29283SOL     OW89745   9.848   7.347   4.574
29283SOL    HW189746   9.878   7.313   4.489
29283SOL    HW289747   9.867   7.276   4.635
29284SOL     OW89748  12.935   1.380  10.771
29284SOL    HW189749  12.920   1.350  10.681
29284SOL    HW289750  12.908   1.307  10.826
29285SOL     OW89751   1.370   1.090   3.921
29285SOL    HW189752   1.339   1.130   3.839
29285SOL    HW289753   1.291   1.054   3.961
29286SOL     OW89754   9.367   3.611   5.369
29286SOL    HW189755   9.434   3.549   5.398
29286SOL    HW289756   9.345   3.582   5.281
29287SOL     OW89757  14.710   7.476   7.695
29287SOL    HW189758  14.713   7.465   7.790
29287SOL    HW289759  14.719   7.388   7.660
29288SOL     OW89760   8.139  13.150  14.293
29288SOL    HW189761   8.178  13.199  14.221
29288SOL    HW289762   8.210  13.095  14.326
29289SOL     OW89763   9.921   1.495   8.896
29289SOL    HW189764   9.914   1.578   8.943
29289SOL    HW289765   9.985   1.510   8.827
29290SOL     OW89766  10.764   0.819   9.007
29290SOL    HW189767  10.804   0.897   9.046
29290SOL    HW289768  10.673   0.821   9.038
29291SOL     OW89769   6.448  14.493   7.321
29291SOL    HW189770   6.515  14.425   7.320
29291SOL    HW289771   6.485  14.563   7.374
29292SOL     OW89772   1.557  10.664  13.036
29292SOL    HW189773   1.638  10.629  13.000
29292SOL    HW289774   1.581  10.696  13.123
29293SOL     OW89775  12.225   1.752  12.907
29293SOL    HW189776  12.167   1.744  12.983
29293SOL    HW289777  12.311   1.773  12.944
29294SOL     OW89778  12.401   7.012  12.928
29294SOL    HW189779  12.462   7.072  12.886
29294SOL    HW289780  12.425   6.926  12.893
29295SOL     OW89781  10.244   9.649   6.912
29295SOL    HW189782  10.335   9.637   6.885
29295SOL    HW289783  10.195   9.659   6.831
29296SOL     OW89784  13.790   3.858   6.192
29296SOL    HW189785  13.830   3.776   6.221
29296SOL    HW289786  13.803   3.859   6.097
29297SOL     OW89787  12.759   7.449   4.157
29297SOL    HW189788  12.695   7.520   4.166
29297SOL    HW289789  12.707   7.369   4.153
29298SOL     OW89790  14.523   7.487   0.261
29298SOL    HW189791  14.550   7.422   0.197
29298SOL    HW289792  14.522   7.441   0.345
29299SOL     OW89793   5.540  10.254   5.464
29299SOL    HW189794   5.530  10.243   5.558
29299SOL    HW289795   5.612  10.196   5.440
29300SOL     OW89796   1.204  12.398   0.405
29300SOL    HW189797   1.277  12.460   0.399
29300SOL    HW289798   1.242  12.321   0.446
29301SOL     OW89799   5.501  11.844   1.813
29301SOL    HW189800   5.413  11.816   1.787
29301SOL    HW289801   5.491  11.938   1.832
29302SOL     OW89802   1.080   3.367  11.016
29302SOL    HW189803   1.126   3.283  11.011
29302SOL    HW289804   1.050   3.372  11.106
29303SOL     OW89805   6.836   3.500   2.974
29303SOL    HW189806   6.911   3.524   3.028
29303SOL    HW289807   6.821   3.408   2.993
29304SOL     OW89808   7.225  10.965  10.139
29304SOL    HW189809   7.280  10.971  10.061
29304SOL    HW289810   7.200  11.055  10.157
29305SOL     OW89811   0.079  11.863   7.821
29305SOL    HW189812   0.053  11.955   7.819
29305SOL    HW289813   0.105  11.847   7.911
29306SOL     OW89814   5.014   6.970   0.639
29306SOL    HW189815   5.047   6.881   0.650
29306SOL    HW289816   5.079   7.014   0.585
29307SOL     OW89817  10.776   7.044   2.370
29307SOL    HW189818  10.699   7.017   2.421
29307SOL    HW289819  10.780   6.981   2.299
29308SOL     OW89820   7.489  13.698  13.942
29308SOL    HW189821   7.491  13.769  14.006
29308SOL    HW289822   7.565  13.643  13.964
29309SOL     OW89823  11.460  11.391   6.506
29309SOL    HW189824  11.470  11.388   6.601
29309SOL    HW289825  11.522  11.325   6.474
29310SOL     OW89826   5.481   7.329   7.631
29310SOL    HW189827   5.574   7.348   7.645
29310SOL    HW289828   5.472   7.236   7.651
29311SOL     OW89829   3.644   4.770  10.907
29311SOL    HW189830   3.573   4.711  10.884
29311SOL    HW289831   3.633   4.844  10.847
29312SOL     OW89832  11.019   4.479  14.330
29312SOL    HW189833  11.074   4.435  14.395
29312SOL    HW289834  11.046   4.570  14.333
29313SOL     OW89835   3.277  11.846   2.005
29313SOL    HW189836   3.337  11.878   1.938
29313SOL    HW289837   3.197  11.896   1.992
29314SOL     OW89838  12.877   7.838   1.951
29314SOL    HW189839  12.967   7.867   1.959
29314SOL    HW289840  12.878   7.776   1.878
29315SOL     OW89841   3.385  14.712  12.987
29315SOL    HW189842   3.388  14.663  12.904
29315SOL    HW289843   3.417  14.799  12.964
29316SOL     OW89844  11.804   1.229  14.457
29316SOL    HW189845  11.727   1.283  14.441
29316SOL    HW289846  11.852   1.230  14.374
29317SOL     OW89847  11.067   8.122   0.852
29317SOL    HW189848  11.106   8.074   0.925
29317SOL    HW289849  11.048   8.209   0.889
29318SOL     OW89850  12.754   4.085  10.291
29318SOL    HW189851  12.786   4.174  10.301
29318SOL    HW289852  12.733   4.057  10.381
29319SOL     OW89853   7.645  13.334  12.772
29319SOL    HW189854   7.740  13.322  12.781
29319SOL    HW289855   7.612  13.331  12.862
29320SOL     OW89856   4.206  12.053  10.041
29320SOL    HW189857   4.284  12.082  10.090
29320SOL    HW289858   4.234  11.975   9.995
29321SOL     OW89859   7.839  10.634   7.501
29321SOL    HW189860   7.781  10.560   7.482
29321SOL    HW289861   7.813  10.701   7.438
29322SOL     OW89862  10.356  14.417  11.519
29322SOL    HW189863  10.413  14.342  11.537
29322SOL    HW289864  10.272  14.394  11.557
29323SOL     OW89865   0.640   4.237   8.236
29323SOL    HW189866   0.563   4.280   8.198
29323SOL    HW289867   0.659   4.288   8.315
29324SOL     OW89868   4.225   1.929   4.474
29324SOL    HW189869   4.163   1.999   4.456
29324SOL    HW289870   4.281   1.925   4.396
29325SOL     OW89871  10.568  13.191   8.500
29325SOL    HW189872  10.518  13.170   8.578
29325SOL    HW289873  10.597  13.106   8.466
29326SOL     OW89874  12.764   5.039  11.175
29326SOL    HW189875  12.835   5.050  11.239
29326SOL    HW289876  12.693   5.093  11.209
29327SOL     OW89877  11.274  10.716  14.225
29327SOL    HW189878  11.326  10.785  14.183
29327SOL    HW289879  11.260  10.748  14.314
29328SOL     OW89880   4.156   8.424   1.739
29328SOL    HW189881   4.214   8.416   1.663
29328SOL    HW289882   4.187   8.357   1.800
29329SOL     OW89883   5.132  12.380  10.969
29329SOL    HW189884   5.172  12.294  10.966
29329SOL    HW289885   5.038  12.362  10.973
29330SOL     OW89886   5.444  10.471   5.894
29330SOL    HW189887   5.396  10.400   5.935
29330SOL    HW289888   5.497  10.508   5.965
29331SOL     OW89889   1.411   1.289  12.718
29331SOL    HW189890   1.434   1.200  12.691
29331SOL    HW289891   1.360   1.324  12.645
29332SOL     OW89892  12.445   6.268   1.050
29332SOL    HW189893  12.393   6.305   0.978
29332SOL    HW289894  12.453   6.176   1.028
29333SOL     OW89895   7.003   5.964   9.899
29333SOL    HW189896   7.004   5.900   9.970
29333SOL    HW289897   6.998   6.049   9.943
29334SOL     OW89898   2.810   5.298   7.722
29334SOL    HW189899   2.807   5.362   7.793
29334SOL    HW289900   2.896   5.257   7.729
29335SOL     OW89901   8.272   3.050  14.569
29335SOL    HW189902   8.234   3.138  14.569
29335SOL    HW289903   8.275   3.025  14.477
29336SOL     OW89904   8.942   5.198   6.702
29336SOL    HW189905   8.985   5.259   6.642
29336SOL    HW289906   8.850   5.201   6.677
29337SOL     OW89907  11.514   2.651  11.308
29337SOL    HW189908  11.477   2.564  11.293
29337SOL    HW289909  11.506   2.665  11.402
29338SOL     OW89910   1.551   5.130   0.815
29338SOL    HW189911   1.635   5.150   0.775
29338SOL    HW289912   1.495   5.204   0.791
29339SOL     OW89913   8.452   3.989   8.919
29339SOL    HW189914   8.513   3.916   8.909
29339SOL    HW289915   8.506   4.061   8.953
29340SOL     OW89916   9.682   2.480   9.551
29340SOL    HW189917   9.636   2.530   9.618
29340SOL    HW289918   9.729   2.412   9.599
29341SOL     OW89919   3.875   3.809   5.360
29341SOL    HW189920   3.891   3.775   5.272
29341SOL    HW289921   3.784   3.838   5.358
29342SOL     OW89922   6.661   8.957  10.280
29342SOL    HW189923   6.599   9.031  10.283
29342SOL    HW289924   6.606   8.880  10.291
29343SOL     OW89925  11.783  13.552   1.476
29343SOL    HW189926  11.728  13.583   1.404
29343SOL    HW289927  11.728  13.560   1.554
29344SOL     OW89928   0.132   4.480  14.513
29344SOL    HW189929   0.151   4.561  14.466
29344SOL    HW289930   0.037   4.469  14.505
29345SOL     OW89931   8.348   8.038  13.283
29345SOL    HW189932   8.301   7.959  13.256
29345SOL    HW289933   8.348   8.034  13.379
29346SOL     OW89934   8.974   3.776   7.028
29346SOL    HW189935   8.880   3.762   7.039
29346SOL    HW289936   9.007   3.694   6.990
29347SOL     OW89937   1.531   4.198  11.115
29347SOL    HW189938   1.502   4.115  11.153
29347SOL    HW289939   1.622   4.183  11.089
29348SOL     OW89940  11.823  11.367  13.194
29348SOL    HW189941  11.786  11.351  13.107
29348SOL    HW289942  11.904  11.316  13.195
29349SOL     OW89943  13.623   6.099   9.014
29349SOL    HW189944  13.541   6.076   8.971
29349SOL    HW289945  13.636   6.192   8.993
29350SOL     OW89946   2.421   7.516   3.445
29350SOL    HW189947   2.351   7.561   3.492
29350SOL    HW289948   2.384   7.430   3.424
29351SOL     OW89949  14.038   9.981  12.620
29351SOL    HW189950  13.990   9.898  12.616
29351SOL    HW289951  14.121   9.962  12.576
29352SOL     OW89952   7.522  11.604  14.430
29352SOL    HW189953   7.500  11.692  14.401
29352SOL    HW289954   7.618  11.605  14.436
29353SOL     OW89955   1.191  13.032   7.402
29353SOL    HW189956   1.130  12.992   7.464
29353SOL    HW289957   1.232  12.959   7.356
29354SOL     OW89958   6.346   0.050   9.970
29354SOL    HW189959   6.407   0.124   9.972
29354SOL    HW289960   6.368   0.004   9.889
29355SOL     OW89961  12.525   9.198   0.810
29355SOL    HW189962  12.594   9.139   0.782
29355SOL    HW289963  12.562   9.246   0.884
29356SOL     OW89964   1.443   9.203   9.918
29356SOL    HW189965   1.486   9.167   9.841
29356SOL    HW289966   1.455   9.137   9.985
29357SOL     OW89967   0.508   7.609   5.679
29357SOL    HW189968   0.507   7.704   5.669
29357SOL    HW289969   0.430   7.579   5.631
29358SOL     OW89970   5.590   0.251   3.951
29358SOL    HW189971   5.540   0.327   3.921
29358SOL    HW289972   5.582   0.254   4.047
29359SOL     OW89973   8.271   4.016  12.528
29359SOL    HW189974   8.279   4.007  12.623
29359SOL    HW289975   8.301   3.932  12.493
29360SOL     OW89976   1.592   1.483   7.201
29360SOL    HW189977   1.586   1.532   7.118
29360SOL    HW289978   1.573   1.549   7.268
29361SOL     OW89979  13.841  14.662   5.986
29361SOL    HW189980  13.876  14.692   6.070
29361SOL    HW289981  13.858  14.734   5.926
29362SOL     OW89982   3.656  11.989   2.359
29362SOL    HW189983   3.746  12.022   2.367
29362SOL    HW289984   3.623  12.030   2.278
29363SOL     OW89985   0.728   2.612  12.141
29363SOL    HW189986   0.634   2.599  12.152
29363SOL    HW289987   0.740   2.707  12.148
29364SOL     OW89988   5.661   7.292  11.191
29364SOL    HW189989   5.743   7.266  11.234
29364SOL    HW289990   5.617   7.209  11.172
29365SOL     OW89991   4.332   8.097   0.197
29365SOL    HW189992   4.387   8.050   0.135
29365SOL    HW289993   4.319   8.183   0.157
29366SOL     OW89994  13.244   9.743   7.670
29366SOL    HW189995  13.177   9.722   7.736
29366SOL    HW289996  13.280   9.658   7.645
29367SOL     OW89997   5.514  12.136   1.814
29367SOL    HW189998   5.435  12.178   1.780
29367SOL    HW289999   5.585  12.168   1.757
29368SOL     OW90000   8.086   9.718  12.964
29368SOL    HW190001   8.111   9.632  12.997
29368SOL    HW290002   8.112   9.779  13.033
29369SOL     OW90003   4.684   4.646  11.679
29369SOL    HW190004   4.599   4.689  11.691
29369SOL    HW290005   4.664   4.571  11.624
29370SOL     OW90006   7.527  13.847   4.715
29370SOL    HW190007   7.505  13.754   4.719
29370SOL    HW290008   7.538  13.865   4.621
29371SOL     OW90009   8.483   7.093   2.897
29371SOL    HW190010   8.529   7.009   2.890
29371SOL    HW290011   8.520   7.146   2.826
29372SOL     OW90012   9.039   6.985   3.592
29372SOL    HW190013   9.091   6.905   3.597
29372SOL    HW290014   9.073   7.031   3.515
29373SOL     OW90015  14.118   6.451  10.267
29373SOL    HW190016  14.071   6.434  10.185
29373SOL    HW290017  14.157   6.367  10.290
29374SOL     OW90018  10.301  13.217  13.546
29374SOL    HW190019  10.224  13.160  13.555
29374SOL    HW290020  10.366  13.178  13.605
29375SOL     OW90021  14.099   8.243  10.854
29375SOL    HW190022  14.134   8.319  10.809
29375SOL    HW290023  14.114   8.262  10.947
29376SOL     OW90024   2.808   7.057   6.756
29376SOL    HW190025   2.753   6.980   6.765
29376SOL    HW290026   2.882   7.041   6.814
29377SOL     OW90027   3.497   9.674  10.858
29377SOL    HW190028   3.415   9.659  10.905
29377SOL    HW290029   3.473   9.665  10.765
29378SOL     OW90030   3.363   6.241   4.894
29378SOL    HW190031   3.355   6.218   4.987
29378SOL    HW290032   3.313   6.174   4.848
29379SOL     OW90033   0.617   4.934   9.050
29379SOL    HW190034   0.657   4.999   8.992
29379SOL    HW290035   0.579   4.869   8.991
29380SOL     OW90036   7.777   3.852   9.155
29380SOL    HW190037   7.743   3.834   9.243
29380SOL    HW290038   7.734   3.788   9.099
29381SOL     OW90039   2.232   6.934   6.786
29381SOL    HW190040   2.234   7.021   6.745
29381SOL    HW290041   2.266   6.875   6.720
29382SOL     OW90042   8.621   0.467   9.364
29382SOL    HW190043   8.710   0.458   9.397
29382SOL    HW290044   8.583   0.539   9.416
29383SOL     OW90045   6.732   4.022   3.742
29383SOL    HW190046   6.685   4.099   3.775
29383SOL    HW290047   6.755   4.044   3.652
29384SOL     OW90048   9.936  10.969  13.736
29384SOL    HW190049   9.990  10.958  13.814
29384SOL    HW290050   9.915  11.063  13.735
29385SOL     OW90051  12.262   4.952   4.698
29385SOL    HW190052  12.343   5.002   4.693
29385SOL    HW290053  12.245   4.942   4.792
29386SOL     OW90054  10.150  12.497   3.321
29386SOL    HW190055  10.162  12.435   3.394
29386SOL    HW290056  10.215  12.565   3.336
29387SOL     OW90057   9.103  11.485   6.344
29387SOL    HW190058   9.018  11.446   6.325
29387SOL    HW290059   9.148  11.419   6.397
29388SOL     OW90060   1.759   3.327   0.742
29388SOL    HW190061   1.769   3.338   0.836
29388SOL    HW290062   1.829   3.379   0.704
29389SOL     OW90063   4.164  10.637  11.974
29389SOL    HW190064   4.131  10.727  11.968
29389SOL    HW290065   4.094  10.589  12.018
29390SOL     OW90066  14.223  12.951  13.157
29390SOL    HW190067  14.159  12.985  13.094
29390SOL    HW290068  14.308  12.980  13.123
29391SOL     OW90069   1.248   9.482   5.581
29391SOL    HW190070   1.221   9.453   5.493
29391SOL    HW290071   1.167   9.480   5.632
29392SOL     OW90072   1.140   4.809   9.762
29392SOL    HW190073   1.061   4.838   9.808
29392SOL    HW290074   1.206   4.874   9.783
29393SOL     OW90075  12.599   0.069  13.926
29393SOL    HW190076  12.601   0.132  13.998
29393SOL    HW290077  12.633   0.117  13.851
29394SOL     OW90078   9.797  10.892   1.122
29394SOL    HW190079   9.815  10.864   1.032
29394SOL    HW290080   9.881  10.923   1.155
29395SOL     OW90081   4.843   2.619   9.476
29395SOL    HW190082   4.857   2.709   9.506
29395SOL    HW290083   4.812   2.573   9.554
29396SOL     OW90084   9.240  12.626   7.150
29396SOL    HW190085   9.158  12.601   7.106
29396SOL    HW290086   9.241  12.573   7.230
29397SOL     OW90087   3.112  12.353  13.363
29397SOL    HW190088   3.163  12.433  13.350
29397SOL    HW290089   3.110  12.312  13.277
29398SOL     OW90090   2.144  11.905   3.556
29398SOL    HW190091   2.220  11.958   3.580
29398SOL    HW290092   2.171  11.815   3.575
29399SOL     OW90093   9.761   7.481   5.823
29399SOL    HW190094   9.669   7.456   5.830
29399SOL    HW290095   9.785   7.461   5.733
29400SOL     OW90096   6.206   5.213   3.859
29400SOL    HW190097   6.239   5.302   3.870
29400SOL    HW290098   6.199   5.179   3.948
29401SOL     OW90099  13.944   5.957   9.690
29401SOL    HW190100  13.957   5.862   9.686
29401SOL    HW290101  13.875   5.968   9.756
29402SOL     OW90102  14.011   0.635  13.997
29402SOL    HW190103  14.021   0.554  14.046
29402SOL    HW290104  14.062   0.700  14.046
29403SOL     OW90105   4.437   4.432  14.240
29403SOL    HW190106   4.371   4.367  14.265
29403SOL    HW290107   4.506   4.423  14.305
29404SOL     OW90108   6.923   6.653  14.341
29404SOL    HW190109   7.009   6.649  14.299
29404SOL    HW290110   6.919   6.740  14.381
29405SOL     OW90111   2.260   8.436  10.722
29405SOL    HW190112   2.207   8.508  10.686
29405SOL    HW290113   2.198   8.364  10.731
29406SOL     OW90114   5.014   5.246  13.932
29406SOL    HW190115   4.942   5.192  13.900
29406SOL    HW290116   5.068   5.186  13.984
29407SOL     OW90117   1.330   2.763  10.826
29407SOL    HW190118   1.374   2.817  10.760
29407SOL    HW290119   1.392   2.760  10.899
29408SOL     OW90120   0.781  10.366   1.065
29408SOL    HW190121   0.764  10.460   1.069
29408SOL    HW290122   0.711  10.327   1.117
29409SOL     OW90123   9.242   7.080   7.993
29409SOL    HW190124   9.195   7.121   8.066
29409SOL    HW290125   9.239   7.146   7.923
29410SOL     OW90126  12.642   3.051  12.108
29410SOL    HW190127  12.665   3.143  12.095
29410SOL    HW290128  12.567   3.036  12.051
29411SOL     OW90129  10.264  13.367   0.164
29411SOL    HW190130  10.321  13.385   0.239
29411SOL    HW290131  10.176  13.361   0.202
29412SOL     OW90132   9.059   9.393  14.607
29412SOL    HW190133   8.982   9.450  14.599
29412SOL    HW290134   9.052   9.355  14.694
29413SOL     OW90135   9.584   1.037   7.965
29413SOL    HW190136   9.509   1.093   7.945
29413SOL    HW290137   9.599   0.987   7.885
29414SOL     OW90138   9.643   5.695   2.692
29414SOL    HW190139   9.609   5.640   2.763
29414SOL    HW290140   9.685   5.634   2.632
29415SOL     OW90141  14.138   2.676   8.583
29415SOL    HW190142  14.212   2.736   8.595
29415SOL    HW290143  14.122   2.676   8.489
29416SOL     OW90144   9.600  10.840  13.858
29416SOL    HW190145   9.509  10.810  13.859
29416SOL    HW290146   9.608  10.892  13.937
29417SOL     OW90147  14.152  13.869   1.694
29417SOL    HW190148  14.138  13.959   1.724
29417SOL    HW290149  14.148  13.874   1.599
29418SOL     OW90150  12.556   5.902   4.052
29418SOL    HW190151  12.511   5.846   4.116
29418SOL    HW290152  12.588   5.976   4.104
29419SOL     OW90153   7.310   8.190   0.272
29419SOL    HW190154   7.401   8.201   0.300
29419SOL    HW290155   7.297   8.096   0.269
29420SOL     OW90156   6.477   5.166   0.517
29420SOL    HW190157   6.466   5.070   0.514
29420SOL    HW290158   6.413   5.198   0.453
29421SOL     OW90159   7.934  14.034   7.749
29421SOL    HW190160   7.868  14.052   7.816
29421SOL    HW290161   7.892  14.060   7.667
29422SOL     OW90162  14.109   2.337   5.039
29422SOL    HW190163  14.137   2.292   5.119
29422SOL    HW290164  14.173   2.406   5.026
29423SOL     OW90165  12.428  12.251   6.362
29423SOL    HW190166  12.495  12.276   6.297
29423SOL    HW290167  12.366  12.323   6.361
29424SOL     OW90168  12.555   9.077   3.140
29424SOL    HW190169  12.477   9.087   3.193
29424SOL    HW290170  12.575   8.983   3.143
29425SOL     OW90171   9.665  13.883   5.661
29425SOL    HW190172   9.610  13.944   5.712
29425SOL    HW290173   9.738  13.863   5.720
29426SOL     OW90174   0.280   8.070   0.549
29426SOL    HW190175   0.298   8.068   0.642
29426SOL    HW290176   0.191   8.106   0.542
29427SOL     OW90177  13.073  11.728   4.673
29427SOL    HW190178  13.105  11.639   4.660
29427SOL    HW290179  13.151  11.782   4.674
29428SOL     OW90180  10.332   4.065  14.012
29428SOL    HW190181  10.354   4.065  13.919
29428SOL    HW290182  10.302   4.154  14.030
29429SOL     OW90183   2.530  14.875   5.723
29429SOL    HW190184   2.483  14.806   5.676
29429SOL    HW290185   2.513  14.856   5.816
29430SOL     OW90186  13.971   0.064   2.709
29430SOL    HW190187  14.060   0.083   2.739
29430SOL    HW290188  13.954   0.132   2.643
29431SOL     OW90189  10.207  10.918   8.165
29431SOL    HW190190  10.284  10.861   8.163
29431SOL    HW290191  10.239  11.003   8.137
29432SOL     OW90192  12.157   6.914  10.225
29432SOL    HW190193  12.127   6.840  10.172
29432SOL    HW290194  12.189   6.874  10.306
29433SOL     OW90195  13.327   1.831   1.874
29433SOL    HW190196  13.309   1.818   1.967
29433SOL    HW290197  13.280   1.760   1.830
29434SOL     OW90198   4.136   5.090   3.262
29434SOL    HW190199   4.048   5.062   3.235
29434SOL    HW290200   4.194   5.019   3.233
29435SOL     OW90201   5.742   9.411  10.592
29435SOL    HW190202   5.661   9.405  10.641
29435SOL    HW290203   5.745   9.502  10.562
29436SOL     OW90204   8.345   0.476   8.986
29436SOL    HW190205   8.436   0.452   9.000
29436SOL    HW290206   8.296   0.394   8.996
29437SOL     OW90207  12.776  10.011   7.012
29437SOL    HW190208  12.768  10.107   7.016
29437SOL    HW290209  12.712   9.985   6.947
29438SOL     OW90210  13.500   8.557   9.788
29438SOL    HW190211  13.573   8.617   9.805
29438SOL    HW290212  13.539   8.486   9.738
29439SOL     OW90213   2.147   6.893   9.132
29439SOL    HW190214   2.084   6.883   9.203
29439SOL    HW290215   2.126   6.823   9.071
29440SOL     OW90216  11.756   5.571  13.574
29440SOL    HW190217  11.758   5.476  13.577
29440SOL    HW290218  11.753   5.592  13.480
29441SOL     OW90219   2.534   8.631   2.688
29441SOL    HW190220   2.446   8.626   2.650
29441SOL    HW290221   2.586   8.569   2.637
29442SOL     OW90222  11.257   8.676  11.448
29442SOL    HW190223  11.168   8.699  11.475
29442SOL    HW290224  11.295   8.634  11.525
29443SOL     OW90225   7.598   5.877   4.335
29443SOL    HW190226   7.536   5.835   4.394
29443SOL    HW290227   7.684   5.861   4.374
29444SOL     OW90228   3.955   0.748   1.551
29444SOL    HW190229   4.023   0.748   1.484
29444SOL    HW290230   3.950   0.657   1.579
29445SOL     OW90231   4.280   4.920   3.120
29445SOL    HW190232   4.277   4.936   3.025
29445SOL    HW290233   4.295   4.826   3.128
29446SOL     OW90234   8.282   3.246   9.404
29446SOL    HW190235   8.225   3.202   9.467
29446SOL    HW290236   8.226   3.261   9.327
29447SOL     OW90237   3.140   9.597  10.405
29447SOL    HW190238   3.210   9.645  10.362
29447SOL    HW290239   3.079   9.664  10.436
29448SOL     OW90240   1.353  13.247  11.740
29448SOL    HW190241   1.438  13.226  11.701
29448SOL    HW290242   1.306  13.164  11.740
29449SOL     OW90243   6.217  14.299   7.014
29449SOL    HW190244   6.272  14.268   6.942
29449SOL    HW290245   6.206  14.222   7.071
29450SOL     OW90246   6.701  10.005  13.485
29450SOL    HW190247   6.727   9.930  13.431
29450SOL    HW290248   6.753   9.995  13.565
29451SOL     OW90249   0.128   6.614  14.769
29451SOL    HW190250   0.073   6.638  14.843
29451SOL    HW290251   0.164   6.529  14.792
29452SOL     OW90252   4.083   1.512  14.459
29452SOL    HW190253   4.071   1.485  14.368
29452SOL    HW290254   4.062   1.606  14.458
29453SOL     OW90255   1.737   4.633   2.191
29453SOL    HW190256   1.658   4.583   2.213
29453SOL    HW290257   1.721   4.665   2.102
29454SOL     OW90258  13.491   1.278   0.075
29454SOL    HW190259  13.445   1.341   0.020
29454SOL    HW290260  13.423   1.215   0.101
29455SOL     OW90261   3.432  11.134   8.393
29455SOL    HW190262   3.385  11.154   8.312
29455SOL    HW290263   3.514  11.094   8.364
29456SOL     OW90264   4.267   0.191   9.234
29456SOL    HW190265   4.266   0.256   9.305
29456SOL    HW290266   4.241   0.109   9.276
29457SOL     OW90267  13.154   9.663  12.438
29457SOL    HW190268  13.078   9.653  12.495
29457SOL    HW290269  13.196   9.744  12.469
29458SOL     OW90270   7.303   7.394   8.561
29458SOL    HW190271   7.246   7.446   8.504
29458SOL    HW290272   7.391   7.416   8.532
29459SOL     OW90273   0.629  14.282  12.891
29459SOL    HW190274   0.710  14.331  12.882
29459SOL    HW290275   0.646  14.198  12.848
29460SOL     OW90276   7.293   5.968  13.086
29460SOL    HW190277   7.317   5.885  13.127
29460SOL    HW290278   7.268   5.944  12.997
29461SOL     OW90279   5.463  13.446   9.173
29461SOL    HW190280   5.512  13.445   9.091
29461SOL    HW290281   5.379  13.407   9.151
29462SOL     OW90282   6.843   4.969   9.557
29462SOL    HW190283   6.774   4.902   9.557
29462SOL    HW290284   6.923   4.921   9.578
29463SOL     OW90285   7.843  12.815  10.179
29463SOL    HW190286   7.751  12.838  10.194
29463SOL    HW290287   7.874  12.881  10.116
29464SOL     OW90288  12.449  11.506  14.121
29464SOL    HW190289  12.403  11.585  14.092
29464SOL    HW290290  12.381  11.453  14.162
29465SOL     OW90291  14.261   6.985   1.227
29465SOL    HW190292  14.326   6.924   1.192
29465SOL    HW290293  14.259   6.965   1.321
29466SOL     OW90294  13.192   2.345   8.636
29466SOL    HW190295  13.110   2.309   8.671
29466SOL    HW290296  13.178   2.439   8.636
29467SOL     OW90297  11.931   8.611  11.517
29467SOL    HW190298  11.860   8.580  11.461
29467SOL    HW290299  11.894   8.688  11.561
29468SOL     OW90300   9.830   8.898  12.726
29468SOL    HW190301   9.859   8.880  12.816
29468SOL    HW290302   9.862   8.824  12.675
29469SOL     OW90303   3.108   8.266  10.379
29469SOL    HW190304   3.031   8.213  10.359
29469SOL    HW290305   3.138   8.299  10.294
29470SOL     OW90306   9.613   6.192   6.214
29470SOL    HW190307   9.535   6.148   6.247
29470SOL    HW290308   9.685   6.157   6.266
29471SOL     OW90309   3.748   9.350   5.155
29471SOL    HW190310   3.774   9.422   5.213
29471SOL    HW290311   3.713   9.283   5.214
29472SOL     OW90312   8.565   5.129   7.856
29472SOL    HW190313   8.521   5.055   7.898
29472SOL    HW290314   8.560   5.109   7.762
29473SOL     OW90315  10.453   2.007   1.968
29473SOL    HW190316  10.422   2.011   1.877
29473SOL    HW290317  10.514   1.933   1.969
29474SOL     OW90318   2.838  14.779   2.460
29474SOL    HW190319   2.855  14.739   2.546
29474SOL    HW290320   2.745  14.799   2.462
29475SOL     OW90321   6.416   9.589  14.701
29475SOL    HW190322   6.383   9.575  14.612
29475SOL    HW290323   6.350   9.644  14.743
29476SOL     OW90324   4.237   7.666   9.525
29476SOL    HW190325   4.292   7.744   9.516
29476SOL    HW290326   4.242   7.644   9.617
29477SOL     OW90327   0.053   3.210   2.496
29477SOL    HW190328   0.121   3.230   2.560
29477SOL    HW290329  14.869   3.281   2.506
29478SOL     OW90330   1.518  13.787   5.097
29478SOL    HW190331   1.441  13.749   5.140
29478SOL    HW290332   1.504  13.881   5.102
29479SOL     OW90333   7.852   6.323  13.081
29479SOL    HW190334   7.917   6.339  13.013
29479SOL    HW290335   7.903   6.291  13.156
29480SOL     OW90336  11.068   4.408   1.150
29480SOL    HW190337  10.985   4.430   1.107
29480SOL    HW290338  11.054   4.434   1.242
29481SOL     OW90339  12.891   0.026   8.182
29481SOL    HW190340  12.975   0.049   8.221
29481SOL    HW290341  12.881  14.813   8.201
29482SOL     OW90342   0.088   8.716  13.414
29482SOL    HW190343   0.143   8.638  13.414
29482SOL    HW290344   0.011   8.692  13.464
29483SOL     OW90345  11.166   8.747   8.697
29483SOL    HW190346  11.206   8.801   8.765
29483SOL    HW290347  11.123   8.676   8.745
29484SOL     OW90348   1.772  14.875  12.992
29484SOL    HW190349   1.804   0.073  12.946
29484SOL    HW290350   1.844  14.850  13.049
29485SOL     OW90351  11.990   6.850   4.664
29485SOL    HW190352  11.991   6.875   4.571
29485SOL    HW290353  11.897   6.855   4.688
29486SOL     OW90354   9.110  13.745   2.899
29486SOL    HW190355   9.056  13.823   2.907
29486SOL    HW290356   9.114  13.709   2.988
29487SOL     OW90357   9.951   6.924   9.320
29487SOL    HW190358   9.876   6.936   9.263
29487SOL    HW290359   9.999   6.851   9.282
29488SOL     OW90360   0.744   8.826   1.240
29488SOL    HW190361   0.677   8.828   1.309
29488SOL    HW290362   0.702   8.779   1.168
29489SOL     OW90363  12.188   5.969   0.658
29489SOL    HW190364  12.177   6.026   0.582
29489SOL    HW290365  12.262   5.913   0.636
29490SOL     OW90366   4.449  13.847  11.467
29490SOL    HW190367   4.439  13.939  11.489
29490SOL    HW290368   4.463  13.846  11.373
29491SOL     OW90369   8.685  13.081   9.422
29491SOL    HW190370   8.642  13.105   9.504
29491SOL    HW290371   8.707  13.164   9.381
29492SOL     OW90372   0.782  10.982  13.184
29492SOL    HW190373   0.772  10.987  13.279
29492SOL    HW290374   0.692  10.987  13.151
29493SOL     OW90375  14.733   6.051   4.721
29493SOL    HW190376  14.733   6.005   4.637
29493SOL    HW290377  14.770   5.987   4.782
29494SOL     OW90378   8.610   1.843  14.539
29494SOL    HW190379   8.689   1.818  14.586
29494SOL    HW290380   8.614   1.938  14.533
29495SOL     OW90381   2.316   8.874   0.955
29495SOL    HW190382   2.395   8.919   0.922
29495SOL    HW290383   2.314   8.897   1.048
29496SOL     OW90384   4.161   5.938  12.950
29496SOL    HW190385   4.224   6.000  12.912
29496SOL    HW290386   4.192   5.852  12.921
29497SOL     OW90387  11.948   8.760   3.821
29497SOL    HW190388  12.040   8.734   3.817
29497SOL    HW290389  11.905   8.691   3.871
29498SOL     OW90390  10.628   0.069  13.840
29498SOL    HW190391  10.566   0.101  13.905
29498SOL    HW290392  10.629  14.854  13.853
29499SOL     OW90393   9.777   1.350   2.054
29499SOL    HW190394   9.717   1.313   2.120
29499SOL    HW290395   9.859   1.361   2.101
29500SOL     OW90396  14.732  10.520   9.663
29500SOL    HW190397  14.679  10.443   9.645
29500SOL    HW290398  14.681  10.593   9.630
29501SOL     OW90399   7.952  13.219   9.829
29501SOL    HW190400   7.889  13.197   9.760
29501SOL    HW290401   7.915  13.297   9.871
29502SOL     OW90402   4.091   9.214   2.892
29502SOL    HW190403   4.011   9.222   2.943
29502SOL    HW290404   4.062   9.195   2.803
29503SOL     OW90405   4.929  10.033   4.136
29503SOL    HW190406   4.892   9.985   4.210
29503SOL    HW290407   4.979  10.104   4.176
29504SOL     OW90408   6.572   1.663  13.583
29504SOL    HW190409   6.647   1.694  13.633
29504SOL    HW290410   6.594   1.572  13.560
29505SOL     OW90411  10.510  10.969   3.776
29505SOL    HW190412  10.520  10.887   3.824
29505SOL    HW290413  10.467  11.028   3.839
29506SOL     OW90414  12.378  10.079   1.331
29506SOL    HW190415  12.376  10.148   1.265
29506SOL    HW290416  12.292  10.037   1.324
29507SOL     OW90417   2.200  12.391  12.271
29507SOL    HW190418   2.233  12.303  12.290
29507SOL    HW290419   2.143  12.412  12.346
29508SOL     OW90420  11.872   0.061   5.764
29508SOL    HW190421  11.902   0.130   5.824
29508SOL    HW290422  11.778   0.056   5.780
29509SOL     OW90423   3.061   0.978   6.431
29509SOL    HW190424   3.039   0.996   6.339
29509SOL    HW290425   2.976   0.968   6.474
29510SOL     OW90426   1.238   3.234   6.119
29510SOL    HW190427   1.203   3.161   6.170
29510SOL    HW290428   1.306   3.272   6.174
29511SOL     OW90429   7.354  12.490   2.537
29511SOL    HW190430   7.445  12.461   2.544
29511SOL    HW290431   7.306  12.412   2.509
29512SOL     OW90432   9.611   9.717   8.252
29512SOL    HW190433   9.620   9.622   8.247
29512SOL    HW290434   9.516   9.732   8.247
29513SOL     OW90435   9.599   4.597   7.122
29513SOL    HW190436   9.551   4.676   7.097
29513SOL    HW290437   9.666   4.587   7.055
29514SOL     OW90438   6.344   6.108   1.381
29514SOL    HW190439   6.342   6.202   1.402
29514SOL    HW290440   6.309   6.066   1.459
29515SOL     OW90441  11.102   3.813  14.868
29515SOL    HW190442  11.144   3.784  14.787
29515SOL    HW290443  11.051   3.890  14.842
29516SOL     OW90444   7.209  12.440   7.684
29516SOL    HW190445   7.195  12.495   7.607
29516SOL    HW290446   7.170  12.355   7.660
29517SOL     OW90447  13.598  14.416  10.894
29517SOL    HW190448  13.602  14.506  10.863
29517SOL    HW290449  13.616  14.422  10.988
29518SOL     OW90450   8.429   0.337   4.306
29518SOL    HW190451   8.428   0.429   4.333
29518SOL    HW290452   8.459   0.340   4.215
29519SOL     OW90453   5.477  13.622   7.093
29519SOL    HW190454   5.443  13.648   7.178
29519SOL    HW290455   5.473  13.701   7.039
29520SOL     OW90456   2.096   2.671   6.197
29520SOL    HW190457   2.089   2.663   6.292
29520SOL    HW290458   2.064   2.759   6.178
29521SOL     OW90459   0.808   5.229   4.653
29521SOL    HW190460   0.793   5.208   4.561
29521SOL    HW290461   0.743   5.296   4.673
29522SOL     OW90462   9.011   3.557   4.021
29522SOL    HW190463   9.035   3.649   4.032
29522SOL    HW290464   9.095   3.511   4.016
29523SOL     OW90465   7.073   4.491   8.376
29523SOL    HW190466   6.999   4.509   8.318
29523SOL    HW290467   7.054   4.541   8.455
29524SOL     OW90468   9.146   8.115   2.316
29524SOL    HW190469   9.101   8.032   2.297
29524SOL    HW290470   9.184   8.102   2.402
29525SOL     OW90471   3.352  12.457   5.844
29525SOL    HW190472   3.434  12.479   5.887
29525SOL    HW290473   3.339  12.364   5.862
29526SOL     OW90474  14.383  11.607   3.319
29526SOL    HW190475  14.312  11.671   3.316
29526SOL    HW290476  14.425  11.614   3.233
29527SOL     OW90477  13.628  11.802   8.525
29527SOL    HW190478  13.596  11.740   8.590
29527SOL    HW290479  13.637  11.750   8.445
29528SOL     OW90480  14.111   4.539   2.240
29528SOL    HW190481  14.102   4.634   2.235
29528SOL    HW290482  14.051   4.506   2.173
29529SOL     OW90483   7.626   2.518  13.946
29529SOL    HW190484   7.668   2.437  13.917
29529SOL    HW290485   7.535   2.494  13.960
29530SOL     OW90486   2.002   8.575   2.792
29530SOL    HW190487   1.973   8.594   2.881
29530SOL    HW290488   2.012   8.661   2.751
29531SOL     OW90489   3.916   7.211  13.781
29531SOL    HW190490   3.997   7.209  13.832
29531SOL    HW290491   3.939   7.258  13.701
29532SOL     OW90492   1.485   6.220   6.840
29532SOL    HW190493   1.495   6.309   6.873
29532SOL    HW290494   1.526   6.165   6.907
29533SOL     OW90495   6.516   0.613   8.819
29533SOL    HW190496   6.590   0.581   8.768
29533SOL    HW290497   6.551   0.689   8.867
29534SOL     OW90498   9.001   5.940   1.898
29534SOL    HW190499   8.925   5.972   1.849
29534SOL    HW290500   9.024   6.013   1.956
29535SOL     OW90501   8.317   1.758  11.320
29535SOL    HW190502   8.295   1.851  11.322
29535SOL    HW290503   8.363   1.742  11.402
29536SOL     OW90504   8.656   0.326   0.557
29536SOL    HW190505   8.634   0.295   0.469
29536SOL    HW290506   8.671   0.246   0.608
29537SOL     OW90507   4.746  14.312   2.612
29537SOL    HW190508   4.782  14.388   2.567
29537SOL    HW290509   4.818  14.278   2.665
29538SOL     OW90510   1.541  11.031   1.697
29538SOL    HW190511   1.570  10.984   1.619
29538SOL    HW290512   1.621  11.068   1.735
29539SOL     OW90513  14.634  14.820   4.223
29539SOL    HW190514  14.629   0.035   4.226
29539SOL    HW290515  14.725  14.801   4.200
29540SOL     OW90516   2.997   2.191   4.096
29540SOL    HW190517   2.979   2.223   4.185
29540SOL    HW290518   3.004   2.270   4.043
29541SOL     OW90519   8.504  13.535   1.108
29541SOL    HW190520   8.444  13.462   1.119
29541SOL    HW290521   8.519  13.539   1.014
29542SOL     OW90522   2.036  12.058  11.472
29542SOL    HW190523   2.055  11.969  11.444
29542SOL    HW290524   2.104  12.079  11.535
29543SOL     OW90525   0.463   5.682   1.228
29543SOL    HW190526   0.540   5.635   1.194
29543SOL    HW290527   0.489   5.774   1.227
29544SOL     OW90528  12.851  10.043  11.205
29544SOL    HW190529  12.829   9.964  11.155
29544SOL    HW290530  12.935  10.071  11.168
29545SOL     OW90531   8.678  11.442   0.993
29545SOL    HW190532   8.674  11.464   0.900
29545SOL    HW290533   8.754  11.384   1.001
29546SOL     OW90534  10.124   3.611  13.044
29546SOL    HW190535  10.041   3.642  13.008
29546SOL    HW290536  10.104   3.589  13.135
29547SOL     OW90537   8.212   2.329   6.578
29547SOL    HW190538   8.232   2.273   6.503
29547SOL    HW290539   8.138   2.382   6.550
29548SOL     OW90540   0.246  11.803   5.695
29548SOL    HW190541   0.152  11.809   5.713
29548SOL    HW290542   0.284  11.761   5.772
29549SOL     OW90543   3.179   9.759  12.220
29549SOL    HW190544   3.187   9.801  12.305
29549SOL    HW290545   3.118   9.687  12.234
29550SOL     OW90546   9.732  14.255   6.774
29550SOL    HW190547   9.728  14.179   6.716
29550SOL    HW290548   9.825  14.276   6.780
29551SOL     OW90549   7.035   9.757  12.433
29551SOL    HW190550   6.941   9.750  12.449
29551SOL    HW290551   7.042   9.778  12.340
29552SOL     OW90552   5.275   4.998  11.304
29552SOL    HW190553   5.238   5.029  11.387
29552SOL    HW290554   5.226   5.046  11.237
29553SOL     OW90555   9.032   9.660   0.960
29553SOL    HW190556   9.086   9.713   0.902
29553SOL    HW290557   8.943   9.675   0.931
29554SOL     OW90558   2.077   5.162  13.332
29554SOL    HW190559   2.015   5.124  13.270
29554SOL    HW290560   2.060   5.117  13.414
29555SOL     OW90561  10.206  10.388   6.596
29555SOL    HW190562  10.226  10.300   6.563
29555SOL    HW290563  10.292  10.428   6.612
29556SOL     OW90564   5.078  13.055   5.095
29556SOL    HW190565   4.994  13.072   5.138
29556SOL    HW290566   5.067  13.091   5.007
29557SOL     OW90567   8.630  10.582  10.482
29557SOL    HW190568   8.688  10.656  10.463
29557SOL    HW290569   8.689  10.506  10.482
29558SOL     OW90570   5.077  11.413   6.456
29558SOL    HW190571   5.009  11.480   6.447
29558SOL    HW290572   5.067  11.381   6.546
29559SOL     OW90573  10.039   0.187   4.455
29559SOL    HW190574  10.054   0.257   4.392
29559SOL    HW290575   9.960   0.213   4.502
29560SOL     OW90576  12.930   8.314   6.353
29560SOL    HW190577  13.016   8.271   6.362
29560SOL    HW290578  12.948   8.407   6.367
29561SOL     OW90579   7.778   2.648   7.896
29561SOL    HW190580   7.786   2.666   7.802
29561SOL    HW290581   7.684   2.647   7.912
29562SOL     OW90582   3.691   8.389   3.301
29562SOL    HW190583   3.711   8.472   3.344
29562SOL    HW290584   3.655   8.333   3.370
29563SOL     OW90585  11.437  12.732  10.862
29563SOL    HW190586  11.468  12.681  10.937
29563SOL    HW290587  11.408  12.666  10.799
29564SOL     OW90588   4.799  12.868   6.810
29564SOL    HW190589   4.768  12.893   6.722
29564SOL    HW290590   4.878  12.817   6.794
29565SOL     OW90591   6.573  13.529   2.554
29565SOL    HW190592   6.549  13.514   2.462
29565SOL    HW290593   6.492  13.562   2.594
29566SOL     OW90594   1.031   9.934   6.207
29566SOL    HW190595   1.087   9.861   6.236
29566SOL    HW290596   1.076  10.012   6.238
29567SOL     OW90597  12.642   1.089  11.240
29567SOL    HW190598  12.725   1.065  11.282
29567SOL    HW290599  12.605   1.158  11.297
29568SOL     OW90600   9.023   8.340   3.146
29568SOL    HW190601   9.033   8.268   3.208
29568SOL    HW290602   9.054   8.305   3.063
29569SOL     OW90603  14.694   8.299   5.117
29569SOL    HW190604  14.741   8.226   5.077
29569SOL    HW290605  14.754   8.373   5.111
29570SOL     OW90606   9.418   5.656  13.497
29570SOL    HW190607   9.419   5.563  13.474
29570SOL    HW290608   9.348   5.693  13.444
29571SOL     OW90609   4.948   3.437  14.364
29571SOL    HW190610   4.987   3.476  14.286
29571SOL    HW290611   5.020   3.430  14.426
29572SOL     OW90612  13.062  13.202   6.035
29572SOL    HW190613  13.086  13.192   5.943
29572SOL    HW290614  12.992  13.267   6.035
29573SOL     OW90615   5.509   3.687  14.588
29573SOL    HW190616   5.568   3.612  14.581
29573SOL    HW290617   5.459   3.685  14.506
29574SOL     OW90618   5.493  14.352  10.844
29574SOL    HW190619   5.538  14.303  10.914
29574SOL    HW290620   5.411  14.305  10.831
29575SOL     OW90621  14.015   7.888   3.595
29575SOL    HW190622  14.066   7.942   3.534
29575SOL    HW290623  14.073   7.875   3.670
29576SOL     OW90624   4.562  14.124   2.690
29576SOL    HW190625   4.624  14.066   2.734
29576SOL    HW290626   4.613  14.200   2.664
29577SOL     OW90627   8.150  13.057   1.151
29577SOL    HW190628   8.070  13.049   1.203
29577SOL    HW290629   8.126  13.025   1.065
29578SOL     OW90630   8.419   4.895  11.709
29578SOL    HW190631   8.477   4.971  11.707
29578SOL    HW290632   8.476   4.823  11.737
29579SOL     OW90633   7.061   0.343  12.756
29579SOL    HW190634   6.983   0.393  12.732
29579SOL    HW290635   7.108   0.332  12.673
29580SOL     OW90636  10.890   6.208  11.116
29580SOL    HW190637  10.839   6.245  11.044
29580SOL    HW290638  10.845   6.125  11.136
29581SOL     OW90639  11.415   3.780   0.333
29581SOL    HW190640  11.354   3.727   0.280
29581SOL    HW290641  11.446   3.848   0.272
29582SOL     OW90642  13.143   9.945   8.391
29582SOL    HW190643  13.117   9.947   8.483
29582SOL    HW290644  13.238   9.941   8.393
29583SOL     OW90645  13.808   7.304   0.318
29583SOL    HW190646  13.766   7.379   0.361
29583SOL    HW290647  13.831   7.336   0.231
29584SOL     OW90648  11.577   5.179   2.233
29584SOL    HW190649  11.558   5.270   2.207
29584SOL    HW290650  11.538   5.170   2.319
29585SOL     OW90651  13.985   4.171   6.126
29585SOL    HW190652  14.073   4.135   6.140
29585SOL    HW290653  13.960   4.207   6.211
29586SOL     OW90654   5.460  13.613   3.870
29586SOL    HW190655   5.383  13.561   3.844
29586SOL    HW290656   5.475  13.589   3.961
29587SOL     OW90657  12.220   4.012  14.102
29587SOL    HW190658  12.155   4.073  14.138
29587SOL    HW290659  12.223   4.033  14.009
29588SOL     OW90660   5.278  14.524   0.613
29588SOL    HW190661   5.344  14.466   0.575
29588SOL    HW290662   5.328  14.601   0.642
29589SOL     OW90663   6.178   7.928   8.754
29589SOL    HW190664   6.221   7.977   8.824
29589SOL    HW290665   6.114   7.990   8.717
29590SOL     OW90666  10.409   7.543   8.366
29590SOL    HW190667  10.436   7.514   8.279
29590SOL    HW290668  10.313   7.549   8.360
29591SOL     OW90669   0.050   2.311   9.446
29591SOL    HW190670   0.032   2.397   9.408
29591SOL    HW290671  14.846   2.267   9.446
29592SOL     OW90672  13.134   3.195   2.556
29592SOL    HW190673  13.072   3.262   2.529
29592SOL    HW290674  13.085   3.139   2.616
29593SOL     OW90675   6.194   0.628   0.340
29593SOL    HW190676   6.240   0.644   0.257
29593SOL    HW290677   6.173   0.716   0.372
29594SOL     OW90678   1.667   2.904  13.965
29594SOL    HW190679   1.595   2.866  14.015
29594SOL    HW290680   1.630   2.983  13.927
29595SOL     OW90681  14.324  11.045   7.050
29595SOL    HW190682  14.415  11.071   7.034
29595SOL    HW290683  14.329  10.953   7.073
29596SOL     OW90684   2.996  14.101  13.056
29596SOL    HW190685   3.007  14.016  13.098
29596SOL    HW290686   2.902  14.118  13.058
29597SOL     OW90687   8.675  10.034   9.930
29597SOL    HW190688   8.711  10.094   9.865
29597SOL    HW290689   8.606   9.986   9.884
29598SOL     OW90690   9.141  11.612   7.377
29598SOL    HW190691   9.092  11.531   7.364
29598SOL    HW290692   9.081  11.670   7.423
29599SOL     OW90693   6.747  12.120   4.631
29599SOL    HW190694   6.825  12.163   4.665
29599SOL    HW290695   6.780  12.040   4.590
29600SOL     OW90696   3.632   1.349   5.464
29600SOL    HW190697   3.643   1.255   5.450
29600SOL    HW290698   3.645   1.361   5.559
29601SOL     OW90699   3.615   5.050   5.527
29601SOL    HW190700   3.627   5.127   5.583
29601SOL    HW290701   3.536   5.008   5.561
29602SOL     OW90702  13.113  11.027   9.244
29602SOL    HW190703  13.025  11.029   9.205
29602SOL    HW290704  13.133  11.119   9.263
29603SOL     OW90705   3.894   1.801   4.394
29603SOL    HW190706   3.859   1.835   4.477
29603SOL    HW290707   3.828   1.738   4.365
29604SOL     OW90708  11.839   7.253   3.660
29604SOL    HW190709  11.888   7.232   3.580
29604SOL    HW290710  11.801   7.170   3.687
29605SOL     OW90711   1.833   5.351  13.358
29605SOL    HW190712   1.877   5.267  13.375
29605SOL    HW290713   1.852   5.369  13.266
29606SOL     OW90714   8.265   3.849   8.194
29606SOL    HW190715   8.248   3.824   8.103
29606SOL    HW290716   8.178   3.861   8.233
29607SOL     OW90717   2.710  14.609   1.166
29607SOL    HW190718   2.674  14.645   1.086
29607SOL    HW290719   2.688  14.515   1.163
29608SOL     OW90720  12.738   1.240   2.749
29608SOL    HW190721  12.724   1.330   2.781
29608SOL    HW290722  12.675   1.231   2.678
29609SOL     OW90723  13.211  12.441   7.849
29609SOL    HW190724  13.213  12.367   7.909
29609SOL    HW290725  13.158  12.412   7.775
29610SOL     OW90726  11.514   8.049   6.521
29610SOL    HW190727  11.586   7.998   6.484
29610SOL    HW290728  11.530   8.138   6.490
29611SOL     OW90729   6.011   8.766  10.916
29611SOL    HW190730   5.936   8.706  10.913
29611SOL    HW290731   5.988   8.835  10.854
29612SOL     OW90732   6.661   2.599  11.950
29612SOL    HW190733   6.646   2.669  11.887
29612SOL    HW290734   6.581   2.546  11.947
29613SOL     OW90735   9.434   1.602   0.731
29613SOL    HW190736   9.506   1.609   0.793
29613SOL    HW290737   9.439   1.512   0.698
29614SOL     OW90738   5.794  11.422   3.876
29614SOL    HW190739   5.744  11.383   3.947
29614SOL    HW290740   5.807  11.351   3.813
29615SOL     OW90741   7.853   4.374   7.658
29615SOL    HW190742   7.760   4.374   7.681
29615SOL    HW290743   7.898   4.393   7.741
29616SOL     OW90744  14.776   6.761   7.090
29616SOL    HW190745  14.788   6.775   7.184
29616SOL    HW290746  14.864   6.741   7.058
29617SOL     OW90747  12.052   2.009   1.500
29617SOL    HW190748  12.051   2.077   1.432
29617SOL    HW290749  11.984   2.036   1.562
29618SOL     OW90750   4.387   7.848   1.982
29618SOL    HW190751   4.355   7.759   1.965
29618SOL    HW290752   4.313   7.893   2.023
29619SOL     OW90753  13.494  13.041   8.073
29619SOL    HW190754  13.552  13.025   7.998
29619SOL    HW290755  13.453  12.956   8.090
29620SOL     OW90756   8.792   8.950   0.960
29620SOL    HW190757   8.846   9.024   0.932
29620SOL    HW290758   8.702   8.978   0.944
29621SOL     OW90759   0.114  11.719   2.601
29621SOL    HW190760   0.105  11.698   2.508
29621SOL    HW290761   0.146  11.639   2.642
29622SOL     OW90762   4.731   8.800  13.435
29622SOL    HW190763   4.649   8.764  13.468
29622SOL    HW290764   4.720   8.803  13.340
29623SOL     OW90765  14.409   5.069   2.398
29623SOL    HW190766  14.493   5.112   2.412
29623SOL    HW290767  14.353   5.137   2.361
29624SOL     OW90768   1.165   8.311  12.815
29624SOL    HW190769   1.204   8.230  12.782
29624SOL    HW290770   1.083   8.319  12.767
29625SOL     OW90771   0.022   8.057   2.906
29625SOL    HW190772   0.072   8.005   2.843
29625SOL    HW290773  14.830   8.000   2.933
29626SOL     OW90774   8.979  13.853   3.612
29626SOL    HW190775   9.053  13.793   3.611
29626SOL    HW290776   8.950  13.854   3.703
29627SOL     OW90777  10.203  13.633  11.829
29627SOL    HW190778  10.140  13.583  11.777
29627SOL    HW290779  10.259  13.567  11.870
29628SOL     OW90780   7.587  13.680   1.840
29628SOL    HW190781   7.579  13.648   1.750
29628SOL    HW290782   7.624  13.768   1.831
29629SOL     OW90783   7.276   4.330   8.311
29629SOL    HW190784   7.345   4.397   8.314
29629SOL    HW290785   7.199   4.373   8.349
29630SOL     OW90786  13.304  14.208   7.379
29630SOL    HW190787  13.371  14.263   7.337
29630SOL    HW290788  13.313  14.226   7.472
29631SOL     OW90789   8.658   6.463  13.740
29631SOL    HW190790   8.590   6.404  13.708
29631SOL    HW290791   8.611   6.544  13.761
29632SOL     OW90792   4.013  13.315   0.770
29632SOL    HW190793   4.094  13.336   0.723
29632SOL    HW290794   4.012  13.375   0.844
29633SOL     OW90795   4.305   6.635  12.604
29633SOL    HW190796   4.316   6.725  12.633
29633SOL    HW290797   4.232   6.638  12.542
29634SOL     OW90798  12.540   1.991   9.046
29634SOL    HW190799  12.631   1.962   9.038
29634SOL    HW290800  12.489   1.910   9.046
29635SOL     OW90801   9.490   2.811   2.574
29635SOL    HW190802   9.452   2.867   2.506
29635SOL    HW290803   9.582   2.838   2.578
29636SOL     OW90804  13.930  11.275  11.486
29636SOL    HW190805  13.978  11.229  11.418
29636SOL    HW290806  13.844  11.292  11.448
29637SOL     OW90807  12.028   6.426   6.921
29637SOL    HW190808  12.032   6.521   6.936
29637SOL    HW290809  12.120   6.400   6.913
29638SOL     OW90810   8.405  11.853   4.353
29638SOL    HW190811   8.443  11.782   4.301
29638SOL    HW290812   8.431  11.834   4.443
29639SOL     OW90813   2.018  11.559   1.271
29639SOL    HW190814   1.942  11.566   1.213
29639SOL    HW290815   2.069  11.638   1.255
29640SOL     OW90816   7.053   8.096   1.389
29640SOL    HW190817   6.967   8.077   1.427
29640SOL    HW290818   7.114   8.093   1.463
29641SOL     OW90819  13.602   8.316   3.471
29641SOL    HW190820  13.542   8.352   3.406
29641SOL    HW290821  13.568   8.347   3.555
29642SOL     OW90822   5.675  10.897   1.086
29642SOL    HW190823   5.699  10.933   1.171
29642SOL    HW290824   5.611  10.829   1.105
29643SOL     OW90825  12.605  14.012  11.426
29643SOL    HW190826  12.573  14.008  11.336
29643SOL    HW290827  12.628  13.922  11.448
29644SOL     OW90828   9.786  10.158   2.898
29644SOL    HW190829   9.699  10.143   2.861
29644SOL    HW290830   9.840  10.179   2.822
29645SOL     OW90831  10.379   4.745   5.523
29645SOL    HW190832  10.310   4.786   5.576
29645SOL    HW290833  10.404   4.812   5.459
29646SOL     OW90834   2.570  10.549   5.021
29646SOL    HW190835   2.623  10.517   4.948
29646SOL    HW290836   2.580  10.644   5.017
29647SOL     OW90837   1.271  13.717   2.677
29647SOL    HW190838   1.212  13.751   2.744
29647SOL    HW290839   1.224  13.643   2.637
29648SOL     OW90840   4.735   9.040  13.788
29648SOL    HW190841   4.762   9.036  13.880
29648SOL    HW290842   4.797   8.983  13.743
29649SOL     OW90843   8.739  11.326  12.955
29649SOL    HW190844   8.775  11.367  13.034
29649SOL    HW290845   8.733  11.233  12.977
29650SOL     OW90846   6.903   6.511  14.580
29650SOL    HW190847   6.940   6.544  14.498
29650SOL    HW290848   6.978   6.478  14.629
29651SOL     OW90849  10.926   7.165   5.440
29651SOL    HW190850  10.971   7.224   5.500
29651SOL    HW290851  10.947   7.078   5.471
29652SOL     OW90852   8.436  13.851   9.840
29652SOL    HW190853   8.405  13.770   9.801
29652SOL    HW290854   8.437  13.834   9.934
29653SOL     OW90855   8.790   4.122  10.196
29653SOL    HW190856   8.780   4.103  10.289
29653SOL    HW290857   8.711   4.172  10.173
29654SOL     OW90858   0.682   8.457  14.283
29654SOL    HW190859   0.650   8.373  14.315
29654SOL    HW290860   0.604   8.513  14.281
29655SOL     OW90861   6.137   8.948  12.677
29655SOL    HW190862   6.048   8.924  12.701
29655SOL    HW290863   6.185   8.951  12.759
29656SOL     OW90864  10.335  12.069   2.086
29656SOL    HW190865  10.378  12.146   2.049
29656SOL    HW290866  10.288  12.103   2.163
29657SOL     OW90867   5.611   1.034   6.725
29657SOL    HW190868   5.603   0.967   6.793
29657SOL    HW290869   5.536   1.092   6.740
29658SOL     OW90870   8.991   6.939   4.263
29658SOL    HW190871   9.068   6.904   4.217
29658SOL    HW290872   8.946   6.992   4.198
29659SOL     OW90873   7.344   9.084   8.845
29659SOL    HW190874   7.430   9.116   8.818
29659SOL    HW290875   7.336   9.110   8.937
29660SOL     OW90876  12.536   6.816  12.275
29660SOL    HW190877  12.512   6.792  12.185
29660SOL    HW290878  12.625   6.851  12.267
29661SOL     OW90879   6.469   1.125   6.401
29661SOL    HW190880   6.467   1.200   6.342
29661SOL    HW290881   6.471   1.049   6.343
29662SOL     OW90882   4.779   9.610  14.391
29662SOL    HW190883   4.795   9.520  14.421
29662SOL    HW290884   4.716   9.600  14.319
29663SOL     OW90885   9.549  11.250   9.345
29663SOL    HW190886   9.482  11.234   9.411
29663SOL    HW290887   9.601  11.170   9.344
29664SOL     OW90888   0.715   1.175   8.513
29664SOL    HW190889   0.811   1.177   8.512
29664SOL    HW290890   0.693   1.093   8.468
29665SOL     OW90891   2.435   5.683  10.324
29665SOL    HW190892   2.455   5.607  10.379
29665SOL    HW290893   2.339   5.686  10.322
29666SOL     OW90894   4.828   7.766   6.094
29666SOL    HW190895   4.922   7.777   6.112
29666SOL    HW290896   4.800   7.850   6.059
29667SOL     OW90897  12.486   5.675   3.178
29667SOL    HW190898  12.426   5.724   3.122
29667SOL    HW290899  12.444   5.589   3.188
29668SOL     OW90900   3.340   2.929  13.157
29668SOL    HW190901   3.331   2.940  13.252
29668SOL    HW290902   3.411   2.866  13.147
29669SOL     OW90903   6.517  10.769  12.054
29669SOL    HW190904   6.428  10.735  12.061
29669SOL    HW290905   6.554  10.757  12.141
29670SOL     OW90906  10.336   0.487   5.213
29670SOL    HW190907  10.425   0.460   5.233
29670SOL    HW290908  10.322   0.461   5.122
29671SOL     OW90909   9.167   6.727   8.780
29671SOL    HW190910   9.139   6.812   8.746
29671SOL    HW290911   9.173   6.671   8.702
29672SOL     OW90912  11.327  14.012   2.425
29672SOL    HW190913  11.271  13.961   2.484
29672SOL    HW290914  11.265  14.056   2.367
29673SOL     OW90915   5.556   6.191   5.888
29673SOL    HW190916   5.480   6.168   5.835
29673SOL    HW290917   5.530   6.171   5.978
29674SOL     OW90918   2.091   0.245  11.803
29674SOL    HW190919   2.064   0.248  11.895
29674SOL    HW290920   2.032   0.182  11.762
29675SOL     OW90921   0.336  11.595  13.616
29675SOL    HW190922   0.250  11.558  13.635
29675SOL    HW290923   0.372  11.540  13.546
29676SOL     OW90924   2.665   2.733  10.026
29676SOL    HW190925   2.630   2.668   9.965
29676SOL    HW290926   2.759   2.735  10.009
29677SOL     OW90927   8.605   0.676   8.235
29677SOL    HW190928   8.577   0.639   8.318
29677SOL    HW290929   8.530   0.727   8.204
29678SOL     OW90930   9.120  12.913  11.677
29678SOL    HW190931   9.199  12.860  11.687
29678SOL    HW290932   9.145  12.984  11.618
29679SOL     OW90933   5.115  11.289   4.359
29679SOL    HW190934   5.137  11.206   4.401
29679SOL    HW290935   5.071  11.263   4.277
29680SOL     OW90936   6.054  13.822   2.382
29680SOL    HW190937   5.973  13.826   2.331
29680SOL    HW290938   6.106  13.896   2.351
29681SOL     OW90939   1.717   5.740  13.435
29681SOL    HW190940   1.676   5.728  13.520
29681SOL    HW290941   1.724   5.835  13.425
29682SOL     OW90942  12.396   6.117  13.340
29682SOL    HW190943  12.356   6.104  13.426
29682SOL    HW290944  12.323   6.145  13.284
29683SOL     OW90945   5.947   5.282   4.729
29683SOL    HW190946   5.912   5.303   4.643
29683SOL    HW290947   5.932   5.361   4.781
29684SOL     OW90948   0.973   2.811   9.027
29684SOL    HW190949   0.930   2.885   9.071
29684SOL    HW290950   1.054   2.848   8.992
29685SOL     OW90951  14.377   9.746   6.566
29685SOL    HW190952  14.339   9.761   6.652
29685SOL    HW290953  14.397   9.833   6.532
29686SOL     OW90954  11.976   6.952  11.450
29686SOL    HW190955  12.048   7.012  11.468
29686SOL    HW290956  11.978   6.889  11.521
29687SOL     OW90957   8.521   5.079  12.071
29687SOL    HW190958   8.426   5.076  12.072
29687SOL    HW290959   8.545   5.038  11.988
29688SOL     OW90960  13.128  11.028  14.083
29688SOL    HW190961  13.168  11.018  14.170
29688SOL    HW290962  13.202  11.024  14.022
29689SOL     OW90963   1.079   0.019  11.219
29689SOL    HW190964   1.070  14.877  11.312
29689SOL    HW290965   1.166  14.869  11.195
29690SOL     OW90966   8.495  12.403   0.066
29690SOL    HW190967   8.432  12.331   0.058
29690SOL    HW290968   8.537  12.388   0.151
29691SOL     OW90969   1.158   8.794   4.501
29691SOL    HW190970   1.176   8.716   4.553
29691SOL    HW290971   1.192   8.773   4.414
29692SOL     OW90972   4.797   1.203   8.564
29692SOL    HW190973   4.859   1.260   8.609
29692SOL    HW290974   4.716   1.254   8.560
29693SOL     OW90975  10.308  13.345  11.836
29693SOL    HW190976  10.382  13.333  11.896
29693SOL    HW290977  10.340  13.312  11.752
29694SOL     OW90978   1.700   7.277  14.648
29694SOL    HW190979   1.685   7.364  14.611
29694SOL    HW290980   1.623   7.226  14.623
29695SOL     OW90981   9.122  12.501  13.421
29695SOL    HW190982   9.213  12.528  13.412
29695SOL    HW290983   9.072  12.564  13.370
29696SOL     OW90984  13.714   5.330   6.173
29696SOL    HW190985  13.773   5.371   6.110
29696SOL    HW290986  13.771   5.272   6.224
29697SOL     OW90987   0.703   2.904   5.670
29697SOL    HW190988   0.718   2.961   5.745
29697SOL    HW290989   0.635   2.844   5.699
29698SOL     OW90990  14.495   0.288   4.181
29698SOL    HW190991  14.462   0.376   4.203
29698SOL    HW290992  14.455   0.231   4.246
29699SOL     OW90993  11.775   4.061   3.807
29699SOL    HW190994  11.857   4.025   3.772
29699SOL    HW290995  11.753   4.003   3.879
29700SOL     OW90996  12.944  12.641   5.291
29700SOL    HW190997  13.018  12.654   5.233
29700SOL    HW290998  12.982  12.609   5.373
29701SOL     OW90999  10.888   8.746  11.998
29701SOL    HW191000  10.937   8.692  12.060
29701SOL    HW291001  10.920   8.720  11.912
29702SOL     OW91002   5.720   5.173  12.665
29702SOL    HW191003   5.809   5.173  12.701
29702SOL    HW291004   5.693   5.081  12.671
29703SOL     OW91005   0.705  14.170   7.222
29703SOL    HW191006   0.716  14.143   7.314
29703SOL    HW291007   0.786  14.214   7.201
29704SOL     OW91008   3.102   5.490   6.881
29704SOL    HW191009   3.121   5.449   6.796
29704SOL    HW291010   3.176   5.548   6.897
29705SOL     OW91011   7.883  10.879  10.141
29705SOL    HW191012   7.815  10.820  10.174
29705SOL    HW291013   7.924  10.915  10.219
29706SOL     OW91014   7.054  11.984   0.925
29706SOL    HW191015   6.993  11.991   0.851
29706SOL    HW291016   7.138  11.961   0.885
29707SOL     OW91017   8.457   2.515  11.497
29707SOL    HW191018   8.494   2.565  11.424
29707SOL    HW291019   8.533   2.497  11.553
29708SOL     OW91020   5.510  10.193  11.817
29708SOL    HW191021   5.578  10.184  11.884
29708SOL    HW291022   5.545  10.256  11.755
29709SOL     OW91023   2.788   8.839  14.430
29709SOL    HW191024   2.769   8.759  14.381
29709SOL    HW291025   2.860   8.815  14.488
29710SOL     OW91026   6.522  13.338   3.342
29710SOL    HW191027   6.608  13.296   3.349
29710SOL    HW291028   6.463  13.268   3.315
29711SOL     OW91029   2.892   6.156   2.312
29711SOL    HW191030   2.885   6.177   2.219
29711SOL    HW291031   2.959   6.216   2.346
29712SOL     OW91032  10.719  10.966  11.009
29712SOL    HW191033  10.644  10.966  11.069
29712SOL    HW291034  10.711  11.049  10.961
29713SOL     OW91035   9.009  11.719  12.746
29713SOL    HW191036   8.973  11.698  12.832
29713SOL    HW291037   9.020  11.634  12.703
29714SOL     OW91038   0.907  10.938   8.531
29714SOL    HW191039   0.989  10.925   8.483
29714SOL    HW291040   0.914  10.880   8.606
29715SOL     OW91041   9.217   7.543   6.076
29715SOL    HW191042   9.178   7.457   6.059
29715SOL    HW291043   9.142   7.599   6.094
29716SOL     OW91044   7.955   6.470   9.119
29716SOL    HW191045   7.905   6.392   9.096
29716SOL    HW291046   7.915   6.501   9.201
29717SOL     OW91047  10.004   1.213  13.590
29717SOL    HW191048  10.084   1.265  13.583
29717SOL    HW291049   9.934   1.277  13.596
29718SOL     OW91050  12.813  14.202   5.784
29718SOL    HW191051  12.776  14.115   5.770
29718SOL    HW291052  12.772  14.256   5.715
29719SOL     OW91053  11.872  13.971  12.170
29719SOL    HW191054  11.871  13.903  12.103
29719SOL    HW291055  11.895  13.925  12.251
29720SOL     OW91056   2.603   8.061  12.099
29720SOL    HW191057   2.643   8.072  12.185
29720SOL    HW291058   2.677   8.042  12.041
29721SOL     OW91059   0.777   5.881   4.924
29721SOL    HW191060   0.682   5.888   4.937
29721SOL    HW291061   0.791   5.913   4.834
29722SOL     OW91062   4.550   1.872   2.294
29722SOL    HW191063   4.554   1.954   2.246
29722SOL    HW291064   4.541   1.897   2.386
29723SOL     OW91065   5.949  13.772   6.220
29723SOL    HW191066   5.924  13.773   6.312
29723SOL    HW291067   5.910  13.851   6.183
29724SOL     OW91068   3.628  10.496   8.916
29724SOL    HW191069   3.586  10.505   9.001
29724SOL    HW291070   3.689  10.423   8.927
29725SOL     OW91071   0.858  13.575   1.697
29725SOL    HW191072   0.765  13.555   1.705
29725SOL    HW291073   0.872  13.650   1.754
29726SOL     OW91074  11.295  12.219  10.813
29726SOL    HW191075  11.250  12.136  10.795
29726SOL    HW291076  11.386  12.202  10.790
29727SOL     OW91077  14.021   9.760   5.495
29727SOL    HW191078  14.105   9.783   5.456
29727SOL    HW291079  14.026   9.794   5.584
29728SOL     OW91080   4.870   2.278  12.295
29728SOL    HW191081   4.776   2.263  12.300
29728SOL    HW291082   4.879   2.372  12.279
29729SOL     OW91083  10.645   9.971  11.622
29729SOL    HW191084  10.557   9.935  11.632
29729SOL    HW291085  10.633  10.053  11.576
29730SOL     OW91086  12.284  10.671   5.595
29730SOL    HW191087  12.290  10.690   5.502
29730SOL    HW291088  12.374  10.684   5.628
29731SOL     OW91089   0.263   9.959  13.840
29731SOL    HW191090   0.331  10.021  13.815
29731SOL    HW291091   0.194  10.013  13.879
29732SOL     OW91092  13.198  14.247  11.187
29732SOL    HW191093  13.142  14.252  11.264
29732SOL    HW291094  13.158  14.306  11.123
29733SOL     OW91095  14.249  14.563  10.305
29733SOL    HW191096  14.192  14.488  10.288
29733SOL    HW291097  14.230  14.587  10.396
29734SOL     OW91098   6.724   3.881   5.109
29734SOL    HW191099   6.736   3.818   5.180
29734SOL    HW291100   6.631   3.874   5.088
29735SOL     OW91101  13.248   6.654   3.637
29735SOL    HW191102  13.218   6.584   3.579
29735SOL    HW291103  13.344   6.647   3.634
29736SOL     OW91104  12.461   1.483   3.130
29736SOL    HW191105  12.537   1.430   3.154
29736SOL    HW291106  12.498   1.567   3.104
29737SOL     OW91107   5.289   1.172   9.019
29737SOL    HW191108   5.354   1.227   8.977
29737SOL    HW291109   5.334   1.089   9.035
29738SOL     OW91110   5.293   8.434  12.896
29738SOL    HW191111   5.215   8.459  12.945
29738SOL    HW291112   5.287   8.339  12.888
29739SOL     OW91113   8.283   7.167   5.513
29739SOL    HW191114   8.285   7.260   5.489
29739SOL    HW291115   8.371   7.148   5.544
29740SOL     OW91116   0.066  14.092   6.442
29740SOL    HW191117   0.037  14.093   6.533
29740SOL    HW291118   0.001  14.039   6.397
29741SOL     OW91119   1.914   7.886   7.496
29741SOL    HW191120   1.836   7.881   7.441
29741SOL    HW291121   1.911   7.807   7.550
29742SOL     OW91122   6.249   1.594   4.497
29742SOL    HW191123   6.223   1.661   4.433
29742SOL    HW291124   6.176   1.591   4.559
29743SOL     OW91125  13.057   2.822   0.952
29743SOL    HW191126  13.068   2.749   0.890
29743SOL    HW291127  12.975   2.863   0.925
29744SOL     OW91128   5.374   0.252   5.928
29744SOL    HW191129   5.457   0.208   5.913
29744SOL    HW291130   5.385   0.338   5.887
29745SOL     OW91131   9.450   9.839   4.081
29745SOL    HW191132   9.502   9.913   4.111
29745SOL    HW291133   9.504   9.763   4.098
29746SOL     OW91134  12.828   2.049  11.648
29746SOL    HW191135  12.849   2.000  11.727
29746SOL    HW291136  12.818   2.140  11.678
29747SOL     OW91137  10.139   9.317   0.488
29747SOL    HW191138  10.108   9.379   0.422
29747SOL    HW291139  10.081   9.241   0.478
29748SOL     OW91140  13.384   3.697   1.003
29748SOL    HW191141  13.294   3.667   0.999
29748SOL    HW291142  13.383   3.782   0.959
29749SOL     OW91143  13.947  11.416   7.718
29749SOL    HW191144  13.909  11.339   7.676
29749SOL    HW291145  13.898  11.490   7.683
29750SOL     OW91146   9.109   0.274  10.010
29750SOL    HW191147   9.088   0.182  10.022
29750SOL    HW291148   9.185   0.274   9.952
29751SOL     OW91149   9.872  13.571  12.807
29751SOL    HW191150   9.926  13.495  12.786
29751SOL    HW291151   9.933  13.635  12.844
29752SOL     OW91152   8.627  14.531   1.871
29752SOL    HW191153   8.717  14.505   1.852
29752SOL    HW291154   8.635  14.603   1.934
29753SOL     OW91155  10.781  11.366   0.596
29753SOL    HW191156  10.803  11.316   0.675
29753SOL    HW291157  10.687  11.350   0.583
29754SOL     OW91158   4.529  13.647   0.669
29754SOL    HW191159   4.584  13.689   0.735
29754SOL    HW291160   4.453  13.704   0.662
29755SOL     OW91161   0.735   6.394   9.379
29755SOL    HW191162   0.662   6.427   9.326
29755SOL    HW291163   0.738   6.300   9.359
29756SOL     OW91164   8.175   9.000   5.812
29756SOL    HW191165   8.249   8.997   5.872
29756SOL    HW291166   8.215   9.005   5.725
29757SOL     OW91167   9.443  10.929  13.392
29757SOL    HW191168   9.420  11.017  13.422
29757SOL    HW291169   9.378  10.908  13.326
29758SOL     OW91170   6.426   0.229  14.581
29758SOL    HW191171   6.418   0.321  14.554
29758SOL    HW291172   6.433   0.181  14.498
29759SOL     OW91173  13.795  13.132   7.124
29759SOL    HW191174  13.867  13.172   7.075
29759SOL    HW291175  13.729  13.112   7.057
29760SOL     OW91176  11.460   7.920  13.828
29760SOL    HW191177  11.387   7.874  13.870
29760SOL    HW291178  11.448   8.012  13.855
29761SOL     OW91179   4.035  13.078   7.693
29761SOL    HW191180   3.984  13.138   7.639
29761SOL    HW291181   4.104  13.046   7.636
29762SOL     OW91182   2.673  12.391  10.376
29762SOL    HW191183   2.712  12.446  10.307
29762SOL    HW291184   2.585  12.372  10.344
29763SOL     OW91185   1.787   1.388   2.516
29763SOL    HW191186   1.860   1.328   2.535
29763SOL    HW291187   1.828   1.474   2.513
29764SOL     OW91188   6.638   6.064   0.563
29764SOL    HW191189   6.717   6.047   0.512
29764SOL    HW291190   6.620   5.983   0.609
29765SOL     OW91191  10.626   5.503   5.395
29765SOL    HW191192  10.619   5.420   5.348
29765SOL    HW291193  10.713   5.502   5.434
29766SOL     OW91194   8.912   5.104  11.955
29766SOL    HW191195   8.921   5.135  12.045
29766SOL    HW291196   8.864   5.022  11.962
29767SOL     OW91197   5.663   7.619  14.844
29767SOL    HW191198   5.655   7.527  14.820
29767SOL    HW291199   5.720   7.657  14.777
29768SOL     OW91200   5.959   2.815   6.820
29768SOL    HW191201   5.904   2.880   6.863
29768SOL    HW291202   5.974   2.749   6.888
29769SOL     OW91203  13.507   0.831   9.543
29769SOL    HW191204  13.487   0.879   9.463
29769SOL    HW291205  13.422   0.813   9.583
29770SOL     OW91206  11.421   0.084   4.983
29770SOL    HW191207  11.478   0.159   4.997
29770SOL    HW291208  11.446   0.022   5.051
29771SOL     OW91209   0.477  10.379   9.069
29771SOL    HW191210   0.558  10.351   9.112
29771SOL    HW291211   0.434  10.436   9.133
29772SOL     OW91212  12.785   8.223   4.126
29772SOL    HW191213  12.804   8.133   4.098
29772SOL    HW291214  12.863   8.249   4.175
29773SOL     OW91215  14.634  11.591   9.662
29773SOL    HW191216  14.602  11.678   9.636
29773SOL    HW291217  14.729  11.595   9.651
29774SOL     OW91218   5.058   5.043   8.043
29774SOL    HW191219   4.964   5.050   8.025
29774SOL    HW291220   5.082   5.128   8.080
29775SOL     OW91221  10.878   6.391  12.052
29775SOL    HW191222  10.791   6.429  12.065
29775SOL    HW291223  10.907   6.369  12.141
29776SOL     OW91224   8.388   8.677   3.681
29776SOL    HW191225   8.419   8.624   3.607
29776SOL    HW291226   8.450   8.659   3.751
29777SOL     OW91227  12.002  14.139  13.988
29777SOL    HW191228  12.096  14.132  14.003
29777SOL    HW291229  11.962  14.116  14.072
29778SOL     OW91230  10.155   9.377   0.990
29778SOL    HW191231  10.159   9.467   1.023
29778SOL    HW291232  10.081   9.376   0.930
29779SOL     OW91233  11.404   6.960  13.748
29779SOL    HW191234  11.378   6.967  13.840
29779SOL    HW291235  11.321   6.953  13.701
29780SOL     OW91236   7.968   3.089  12.959
29780SOL    HW191237   8.014   3.168  12.988
29780SOL    HW291238   8.019   3.017  12.997
29781SOL     OW91239   0.828  13.601   9.097
29781SOL    HW191240   0.823  13.673   9.034
29781SOL    HW291241   0.781  13.632   9.174
29782SOL     OW91242   4.233   3.213   4.760
29782SOL    HW191243   4.242   3.144   4.826
29782SOL    HW291244   4.241   3.168   4.676
29783SOL     OW91245   9.046   3.188   0.230
29783SOL    HW191246   8.959   3.225   0.247
29783SOL    HW291247   9.091   3.192   0.314
29784SOL     OW91248   8.661  12.228   8.412
29784SOL    HW191249   8.614  12.303   8.376
29784SOL    HW291250   8.668  12.167   8.338
29785SOL     OW91251   7.637   7.108  13.075
29785SOL    HW191252   7.543   7.118  13.088
29785SOL    HW291253   7.663   7.043  13.140
29786SOL     OW91254   0.844   0.343   2.704
29786SOL    HW191255   0.873   0.421   2.656
29786SOL    HW291256   0.925   0.299   2.729
29787SOL     OW91257   4.819   8.716   3.950
29787SOL    HW191258   4.908   8.750   3.943
29787SOL    HW291259   4.822   8.658   4.026
29788SOL     OW91260   9.370   8.724   8.742
29788SOL    HW191261   9.333   8.763   8.664
29788SOL    HW291262   9.465   8.739   8.734
29789SOL     OW91263   4.814  12.452  11.202
29789SOL    HW191264   4.796  12.541  11.174
29789SOL    HW291265   4.880  12.420  11.141
29790SOL     OW91266   5.145   0.799  14.008
29790SOL    HW191267   5.235   0.776  14.032
29790SOL    HW291268   5.153   0.846  13.925
29791SOL     OW91269   2.386   6.528   3.384
29791SOL    HW191270   2.293   6.508   3.375
29791SOL    HW291271   2.388   6.618   3.417
29792SOL     OW91272   4.513   4.179   0.131
29792SOL    HW191273   4.459   4.131   0.069
29792SOL    HW291274   4.577   4.115   0.163
29793SOL     OW91275   6.095   5.051   6.680
29793SOL    HW191276   6.080   5.058   6.775
29793SOL    HW291277   6.066   4.962   6.658
29794SOL     OW91278   1.245   6.354   3.609
29794SOL    HW191279   1.194   6.431   3.588
29794SOL    HW291280   1.195   6.309   3.677
29795SOL     OW91281   7.056   2.033   8.794
29795SOL    HW191282   6.978   2.050   8.847
29795SOL    HW291283   7.053   1.940   8.774
29796SOL     OW91284  14.242   1.963   9.470
29796SOL    HW191285  14.334   1.977   9.448
29796SOL    HW291286  14.237   1.870   9.492
29797SOL     OW91287   2.992  13.803   8.255
29797SOL    HW191288   3.068  13.810   8.198
29797SOL    HW291289   2.954  13.891   8.256
29798SOL     OW91290   6.843  10.623   1.015
29798SOL    HW191291   6.800  10.693   0.967
29798SOL    HW291292   6.778  10.596   1.081
29799SOL     OW91293   8.334   4.078  11.506
29799SOL    HW191294   8.400   4.122  11.452
29799SOL    HW291295   8.353   4.106  11.595
29800SOL     OW91296  12.078  14.510   3.396
29800SOL    HW191297  12.162  14.466   3.384
29800SOL    HW291298  12.034  14.460   3.464
29801SOL     OW91299   2.167   3.618   0.841
29801SOL    HW191300   2.093   3.578   0.886
29801SOL    HW291301   2.243   3.569   0.873
29802SOL     OW91302   3.084   0.060   3.397
29802SOL    HW191303   3.145   0.083   3.327
29802SOL    HW291304   3.048  14.855   3.370
29803SOL     OW91305  11.460   2.809   0.408
29803SOL    HW191306  11.495   2.848   0.488
29803SOL    HW291307  11.465   2.879   0.343
29804SOL     OW91308   4.601   1.164  11.289
29804SOL    HW191309   4.669   1.198  11.230
29804SOL    HW291310   4.649   1.118  11.357
29805SOL     OW91311  10.490   0.615   7.111
29805SOL    HW191312  10.463   0.643   7.198
29805SOL    HW291313  10.500   0.696   7.062
29806SOL     OW91314   0.058   0.038   9.158
29806SOL    HW191315   0.000  14.856   9.114
29806SOL    HW291316   0.032   0.033   9.250
29807SOL     OW91317  14.812   8.629   0.101
29807SOL    HW191318  14.802   8.671   0.186
29807SOL    HW291319  14.726   8.636   0.061
29808SOL     OW91320  10.313  14.664   4.338
29808SOL    HW191321  10.341  14.573   4.340
29808SOL    HW291322  10.370  14.706   4.273
29809SOL     OW91323   3.532   1.195  12.666
29809SOL    HW191324   3.440   1.166  12.670
29809SOL    HW291325   3.562   1.188  12.757
29810SOL     OW91326   1.961   2.049  12.078
29810SOL    HW191327   2.005   1.979  12.031
29810SOL    HW291328   1.877   2.011  12.104
29811SOL     OW91329  10.995   7.266   9.430
29811SOL    HW191330  11.045   7.198   9.384
29811SOL    HW291331  11.052   7.294   9.501
29812SOL     OW91332  11.137   4.534   9.382
29812SOL    HW191333  11.174   4.453   9.416
29812SOL    HW291334  11.138   4.522   9.287
29813SOL     OW91335  11.030  11.189  11.051
29813SOL    HW191336  10.941  11.222  11.042
29813SOL    HW291337  11.046  11.138  10.972
29814SOL     OW91338  13.125   6.334   1.210
29814SOL    HW191339  13.035   6.346   1.241
29814SOL    HW291340  13.131   6.240   1.191
29815SOL     OW91341  13.035   3.069   8.919
29815SOL    HW191342  13.101   3.008   8.885
29815SOL    HW291343  12.951   3.028   8.897
29816SOL     OW91344   3.680   6.093   9.052
29816SOL    HW191345   3.712   6.171   9.008
29816SOL    HW291346   3.755   6.033   9.052
29817SOL     OW91347   2.028   4.270  10.920
29817SOL    HW191348   2.004   4.363  10.915
29817SOL    HW291349   2.076   4.262  11.002
29818SOL     OW91350   8.998   0.397   8.852
29818SOL    HW191351   8.979   0.478   8.899
29818SOL    HW291352   9.034   0.338   8.918
29819SOL     OW91353   0.801   7.266  10.584
29819SOL    HW191354   0.793   7.185  10.635
29819SOL    HW291355   0.895   7.279  10.574
29820SOL     OW91356  14.187  10.376   6.407
29820SOL    HW191357  14.150  10.449   6.357
29820SOL    HW291358  14.127  10.365   6.481
29821SOL     OW91359   8.513  13.978   8.479
29821SOL    HW191360   8.558  13.944   8.402
29821SOL    HW291361   8.485  13.900   8.526
29822SOL     OW91362   1.556   8.587   4.620
29822SOL    HW191363   1.519   8.673   4.600
29822SOL    HW291364   1.650   8.603   4.628
29823SOL     OW91365  14.544  11.969  12.011
29823SOL    HW191366  14.497  11.895  12.051
29823SOL    HW291367  14.499  12.046  12.043
29824SOL     OW91368   3.917   1.186  13.161
29824SOL    HW191369   3.831   1.230  13.168
29824SOL    HW291370   3.896   1.093  13.167
29825SOL     OW91371   3.532  14.352  10.283
29825SOL    HW191372   3.620  14.348  10.245
29825SOL    HW291373   3.546  14.382  10.372
29826SOL     OW91374   6.120   1.427  13.893
29826SOL    HW191375   6.151   1.340  13.917
29826SOL    HW291376   6.124   1.428  13.797
29827SOL     OW91377   0.860   3.946   6.233
29827SOL    HW191378   0.920   3.907   6.297
29827SOL    HW291379   0.868   4.040   6.246
29828SOL     OW91380  10.954  13.639   8.712
29828SOL    HW191381  10.869  13.678   8.692
29828SOL    HW291382  10.987  13.691   8.786
29829SOL     OW91383  11.717   1.010   4.717
29829SOL    HW191384  11.761   0.952   4.656
29829SOL    HW291385  11.749   1.098   4.694
29830SOL     OW91386  14.683   0.696   3.925
29830SOL    HW191387  14.736   0.635   3.874
29830SOL    HW291388  14.594   0.660   3.922
29831SOL     OW91389   2.284   9.304  11.802
29831SOL    HW191390   2.324   9.390  11.793
29831SOL    HW291391   2.309   9.257  11.722
29832SOL     OW91392   6.830  11.149  12.367
29832SOL    HW191393   6.847  11.066  12.321
29832SOL    HW291394   6.917  11.188  12.379
29833SOL     OW91395   3.059   4.604   2.163
29833SOL    HW191396   3.154   4.594   2.153
29833SOL    HW291397   3.049   4.673   2.229
29834SOL     OW91398  13.130   2.574   2.612
29834SOL    HW191399  13.143   2.656   2.564
29834SOL    HW291400  13.151   2.596   2.703
29835SOL     OW91401   1.481   0.704  13.929
29835SOL    HW191402   1.471   0.642  14.001
29835SOL    HW291403   1.544   0.663  13.870
29836SOL     OW91404   0.702   3.017   3.196
29836SOL    HW191405   0.642   3.017   3.270
29836SOL    HW291406   0.770   2.954   3.220
29837SOL     OW91407   8.306  11.219   8.544
29837SOL    HW191408   8.252  11.203   8.622
29837SOL    HW291409   8.251  11.191   8.471
29838SOL     OW91410   3.841   8.944  14.563
29838SOL    HW191411   3.878   9.000  14.495
29838SOL    HW291412   3.903   8.872  14.573
29839SOL     OW91413   2.278  12.308  13.240
29839SOL    HW191414   2.246  12.289  13.327
29839SOL    HW291415   2.302  12.223  13.203
29840SOL     OW91416   0.617   3.854  13.296
29840SOL    HW191417   0.612   3.820  13.385
29840SOL    HW291418   0.581   3.785  13.241
29841SOL     OW91419  12.580   7.629   1.949
29841SOL    HW191420  12.662   7.676   1.967
29841SOL    HW291421  12.606   7.537   1.940
29842SOL     OW91422  11.479   6.481  11.166
29842SOL    HW191423  11.553   6.524  11.124
29842SOL    HW291424  11.499   6.485  11.260
29843SOL     OW91425   4.926   8.144   5.377
29843SOL    HW191426   5.015   8.110   5.386
29843SOL    HW291427   4.871   8.066   5.371
29844SOL     OW91428   3.312   9.139  10.128
29844SOL    HW191429   3.313   9.113  10.220
29844SOL    HW291430   3.402   9.165  10.109
29845SOL     OW91431  10.048  11.998   5.272
29845SOL    HW191432  10.009  12.009   5.185
29845SOL    HW291433  10.002  11.923   5.309
29846SOL     OW91434   3.423   3.288   1.640
29846SOL    HW191435   3.362   3.299   1.713
29846SOL    HW291436   3.497   3.345   1.662
29847SOL     OW91437   0.887  11.026   1.435
29847SOL    HW191438   0.838  10.949   1.466
29847SOL    HW291439   0.921  11.066   1.515
29848SOL     OW91440  12.576  12.850  10.537
29848SOL    HW191441  12.613  12.780  10.592
29848SOL    HW291442  12.618  12.838  10.452
29849SOL     OW91443   2.703   5.794   9.412
29849SOL    HW191444   2.773   5.774   9.474
29849SOL    HW291445   2.625   5.806   9.466
29850SOL     OW91446   3.321  13.667  11.580
29850SOL    HW191447   3.323  13.684  11.486
29850SOL    HW291448   3.231  13.640  11.598
29851SOL     OW91449   3.864   6.969   2.881
29851SOL    HW191450   3.816   7.036   2.930
29851SOL    HW291451   3.829   6.886   2.913
29852SOL     OW91452   0.962   1.591   8.626
29852SOL    HW191453   0.883   1.542   8.646
29852SOL    HW291454   0.996   1.617   8.712
29853SOL     OW91455   3.177  12.110   3.356
29853SOL    HW191456   3.213  12.085   3.271
29853SOL    HW291457   3.092  12.149   3.336
29854SOL     OW91458   6.044  12.513   5.314
29854SOL    HW191459   6.111  12.468   5.265
29854SOL    HW291460   6.092  12.575   5.369
29855SOL     OW91461   3.726   6.298  12.185
29855SOL    HW191462   3.719   6.241  12.109
29855SOL    HW291463   3.690   6.247  12.257
29856SOL     OW91464   5.036   1.841   1.534
29856SOL    HW191465   5.042   1.762   1.588
29856SOL    HW291466   5.125   1.878   1.537
29857SOL     OW91467   5.929  13.290   1.299
29857SOL    HW191468   5.946  13.311   1.391
29857SOL    HW291469   6.015  13.280   1.259
29858SOL     OW91470  11.676  10.027   8.629
29858SOL    HW191471  11.608   9.970   8.593
29858SOL    HW291472  11.735  10.042   8.556
29859SOL     OW91473   4.455   5.121  11.950
29859SOL    HW191474   4.399   5.043  11.943
29859SOL    HW291475   4.403   5.191  11.909
29860SOL     OW91476   1.051   2.828  13.324
29860SOL    HW191477   1.120   2.783  13.276
29860SOL    HW291478   1.095   2.902  13.366
29861SOL     OW91479  10.488   1.368   6.871
29861SOL    HW191480  10.456   1.283   6.842
29861SOL    HW291481  10.410   1.418   6.892
29862SOL     OW91482  10.091   0.490   1.070
29862SOL    HW191483  10.058   0.530   0.990
29862SOL    HW291484  10.055   0.402   1.070
29863SOL     OW91485   0.675  11.217  14.064
29863SOL    HW191486   0.581  11.234  14.054
29863SOL    HW291487   0.683  11.172  14.148
29864SOL     OW91488   2.548   7.877   7.501
29864SOL    HW191489   2.587   7.793   7.478
29864SOL    HW291490   2.617   7.923   7.550
29865SOL     OW91491  14.864   1.277   6.951
29865SOL    HW191492  14.843   1.202   7.007
29865SOL    HW291493   0.019   1.238   6.871
29866SOL     OW91494  10.632   2.261   9.188
29866SOL    HW191495  10.710   2.215   9.216
29866SOL    HW291496  10.562   2.226   9.242
29867SOL     OW91497  10.641  12.872   6.684
29867SOL    HW191498  10.573  12.865   6.751
29867SOL    HW291499  10.655  12.782   6.654
29868SOL     OW91500   8.198   5.090  11.954
29868SOL    HW191501   8.144   5.114  12.029
29868SOL    HW291502   8.172   5.000  11.934
29869SOL     OW91503  11.622  11.937   2.266
29869SOL    HW191504  11.622  11.905   2.176
29869SOL    HW291505  11.689  11.886   2.311
29870SOL     OW91506  10.336  14.132   2.736
29870SOL    HW191507  10.241  14.124   2.734
29870SOL    HW291508  10.365  14.063   2.796
29871SOL     OW91509  10.073   7.680   9.778
29871SOL    HW191510  10.004   7.636   9.827
29871SOL    HW291511  10.083   7.627   9.699
29872SOL     OW91512   5.762  10.483  13.714
29872SOL    HW191513   5.817  10.510  13.787
29872SOL    HW291514   5.672  10.497  13.744
29873SOL     OW91515   5.796   0.665   3.508
29873SOL    HW191516   5.850   0.729   3.461
29873SOL    HW291517   5.714   0.661   3.458
29874SOL     OW91518  12.057  13.506   1.841
29874SOL    HW191519  12.094  13.424   1.807
29874SOL    HW291520  12.123  13.539   1.902
29875SOL     OW91521  11.761  11.749  12.043
29875SOL    HW191522  11.714  11.666  12.047
29875SOL    HW291523  11.853  11.725  12.045
29876SOL     OW91524   7.200   5.857   8.064
29876SOL    HW191525   7.258   5.805   8.009
29876SOL    HW291526   7.248   5.939   8.079
29877SOL     OW91527   1.779   1.665   4.501
29877SOL    HW191528   1.695   1.694   4.464
29877SOL    HW291529   1.754   1.598   4.565
29878SOL     OW91530   8.098   6.985   7.070
29878SOL    HW191531   8.015   6.976   7.022
29878SOL    HW291532   8.165   6.965   7.005
29879SOL     OW91533   5.324   5.760   4.763
29879SOL    HW191534   5.269   5.826   4.805
29879SOL    HW291535   5.360   5.709   4.835
29880SOL     OW91536   0.985   2.258  14.187
29880SOL    HW191537   1.029   2.336  14.221
29880SOL    HW291538   0.907   2.248  14.241
29881SOL     OW91539  14.655  13.562   5.180
29881SOL    HW191540  14.649  13.512   5.098
29881SOL    HW291541  14.568  13.597   5.193
29882SOL     OW91542   5.533   4.390  12.681
29882SOL    HW191543   5.479   4.382  12.759
29882SOL    HW291544   5.502   4.321  12.622
29883SOL     OW91545   5.396  11.155  11.948
29883SOL    HW191546   5.319  11.098  11.946
29883SOL    HW291547   5.466  11.103  11.909
29884SOL     OW91548   0.178   7.375  12.851
29884SOL    HW191549   0.246   7.442  12.857
29884SOL    HW291550   0.198   7.326  12.772
29885SOL     OW91551   6.384   4.727  11.660
29885SOL    HW191552   6.317   4.783  11.621
29885SOL    HW291553   6.450   4.788  11.693
29886SOL     OW91554  11.408   4.907  10.199
29886SOL    HW191555  11.356   4.978  10.236
29886SOL    HW291556  11.347   4.862  10.140
29887SOL     OW91557   6.268   1.224   1.503
29887SOL    HW191558   6.237   1.141   1.539
29887SOL    HW291559   6.217   1.236   1.423
29888SOL     OW91560  12.599  11.566   4.791
29888SOL    HW191561  12.666  11.498   4.789
29888SOL    HW291562  12.540  11.540   4.862
29889SOL     OW91563  12.083   5.199  13.845
29889SOL    HW191564  12.066   5.272  13.904
29889SOL    HW291565  12.004   5.191  13.792
29890SOL     OW91566   5.034  10.072  12.006
29890SOL    HW191567   5.049  10.064  12.100
29890SOL    HW291568   4.955  10.021  11.991
29891SOL     OW91569   6.117   3.062   0.146
29891SOL    HW191570   6.152   3.141   0.186
29891SOL    HW291571   6.178   2.993   0.169
29892SOL     OW91572   9.734   4.222   7.601
29892SOL    HW191573   9.676   4.298   7.609
29892SOL    HW291574   9.769   4.229   7.512
29893SOL     OW91575   0.767  11.203   3.200
29893SOL    HW191576   0.849  11.242   3.230
29893SOL    HW291577   0.787  11.110   3.189
29894SOL     OW91578  12.019   8.167   0.541
29894SOL    HW191579  12.021   8.162   0.446
29894SOL    HW291580  11.955   8.236   0.560
29895SOL     OW91581   7.239   6.489   8.047
29895SOL    HW191582   7.155   6.488   8.093
29895SOL    HW291583   7.218   6.524   7.961
29896SOL     OW91584   1.748   6.373   1.872
29896SOL    HW191585   1.768   6.282   1.848
29896SOL    HW291586   1.700   6.407   1.796
29897SOL     OW91587   5.526  10.819   1.526
29897SOL    HW191588   5.477  10.796   1.604
29897SOL    HW291589   5.602  10.868   1.559
29898SOL     OW91590   5.662  13.533   4.830
29898SOL    HW191591   5.706  13.461   4.786
29898SOL    HW291592   5.581  13.494   4.864
29899SOL     OW91593   6.836  14.828  12.082
29899SOL    HW191594   6.776  14.765  12.122
29899SOL    HW291595   6.779   0.015  12.044
29900SOL     OW91596  14.427   6.013   8.150
29900SOL    HW191597  14.334   5.995   8.156
29900SOL    HW291598  14.453   5.979   8.064
29901SOL     OW91599  13.043   7.674   3.305
29901SOL    HW191600  13.122   7.630   3.335
29901SOL    HW291601  12.975   7.648   3.367
29902SOL     OW91602   0.736   4.717  13.422
29902SOL    HW191603   0.821   4.760  13.431
29902SOL    HW291604   0.729   4.698  13.329
29903SOL     OW91605   4.268   9.012  13.751
29903SOL    HW191606   4.218   9.032  13.671
29903SOL    HW291607   4.203   9.014  13.821
29904SOL     OW91608   5.943   5.188  14.326
29904SOL    HW191609   5.853   5.167  14.350
29904SOL    HW291610   5.986   5.103  14.318
29905SOL     OW91611   3.094   8.448  13.309
29905SOL    HW191612   3.123   8.412  13.226
29905SOL    HW291613   3.113   8.541  13.303
29906SOL     OW91614   6.060  12.074   3.205
29906SOL    HW191615   6.050  12.133   3.131
29906SOL    HW291616   5.987  12.012   3.197
29907SOL     OW91617  14.852   9.212   0.473
29907SOL    HW191618  14.772   9.159   0.468
29907SOL    HW291619   0.028   9.174   0.406
29908SOL     OW91620   0.797   9.385  10.902
29908SOL    HW191621   0.754   9.420  10.980
29908SOL    HW291622   0.788   9.290  10.910
29909SOL     OW91623   9.712  11.094  10.466
29909SOL    HW191624   9.752  11.067  10.384
29909SOL    HW291625   9.758  11.043  10.533
29910SOL     OW91626  13.722  14.468  11.718
29910SOL    HW191627  13.654  14.435  11.777
29910SOL    HW291628  13.800  14.478  11.773
29911SOL     OW91629   6.315  12.216   7.417
29911SOL    HW191630   6.338  12.174   7.334
29911SOL    HW291631   6.396  12.260   7.445
29912SOL     OW91632   6.852  10.816   2.986
29912SOL    HW191633   6.913  10.858   2.925
29912SOL    HW291634   6.766  10.846   2.958
29913SOL     OW91635  13.237   9.254  14.198
29913SOL    HW191636  13.239   9.269  14.293
29913SOL    HW291637  13.323   9.219  14.177
29914SOL     OW91638   8.918  14.274   7.245
29914SOL    HW191639   8.862  14.307   7.315
29914SOL    HW291640   8.941  14.186   7.273
29915SOL     OW91641  12.033   4.598   1.098
29915SOL    HW191642  11.949   4.612   1.141
29915SOL    HW291643  12.064   4.686   1.076
29916SOL     OW91644   6.712   8.424  14.311
29916SOL    HW191645   6.721   8.365  14.385
29916SOL    HW291646   6.732   8.370  14.235
29917SOL     OW91647  14.211   4.520  14.557
29917SOL    HW191648  14.145   4.459  14.527
29917SOL    HW291649  14.269   4.532  14.482
29918SOL     OW91650  13.126  10.567  10.522
29918SOL    HW191651  13.032  10.581  10.524
29918SOL    HW291652  13.159  10.638  10.467
29919SOL     OW91653   3.780   4.490  12.559
29919SOL    HW191654   3.755   4.582  12.556
29919SOL    HW291655   3.715   4.445  12.504
29920SOL     OW91656   0.860   1.961   9.678
29920SOL    HW191657   0.816   1.949   9.594
29920SOL    HW291658   0.953   1.956   9.658
29921SOL     OW91659   9.362   8.181   5.666
29921SOL    HW191660   9.446   8.222   5.648
29921SOL    HW291661   9.300   8.227   5.609
29922SOL     OW91662   6.469  12.469   5.140
29922SOL    HW191663   6.536  12.411   5.176
29922SOL    HW291664   6.386  12.429   5.168
29923SOL     OW91665  14.694   5.113  12.917
29923SOL    HW191666  14.620   5.089  12.861
29923SOL    HW291667  14.770   5.111  12.858
29924SOL     OW91668   3.097   8.809  10.371
29924SOL    HW191669   3.164   8.858  10.418
29924SOL    HW291670   3.021   8.867  10.371
29925SOL     OW91671   6.820  12.858  10.163
29925SOL    HW191672   6.759  12.874  10.235
29925SOL    HW291673   6.835  12.763  10.165
29926SOL     OW91674  12.998   5.664  13.433
29926SOL    HW191675  12.975   5.595  13.497
29926SOL    HW291676  13.001   5.744  13.485
29927SOL     OW91677   0.988  13.811  12.480
29927SOL    HW191678   0.908  13.801  12.429
29927SOL    HW291679   0.964  13.871  12.551
29928SOL     OW91680  10.787   8.646   6.065
29928SOL    HW191681  10.864   8.617   6.115
29928SOL    HW291682  10.790   8.741   6.070
29929SOL     OW91683   1.313  13.923   9.414
29929SOL    HW191684   1.402  13.951   9.393
29929SOL    HW291685   1.269  14.003   9.444
29930SOL     OW91686  14.178  10.921  11.148
29930SOL    HW191687  14.092  10.902  11.110
29930SOL    HW291688  14.172  10.889  11.238
29931SOL     OW91689   4.159   7.511   3.914
29931SOL    HW191690   4.229   7.576   3.919
29931SOL    HW291691   4.098   7.546   3.849
29932SOL     OW91692  12.321   3.539   0.044
29932SOL    HW191693  12.406   3.546   0.000
29932SOL    HW291694  12.267   3.607   0.002
29933SOL     OW91695   2.967   6.109  13.270
29933SOL    HW191696   2.901   6.040  13.265
29933SOL    HW291697   3.047   6.063  13.298
29934SOL     OW91698  11.629   2.662   7.928
29934SOL    HW191699  11.620   2.673   8.022
29934SOL    HW291700  11.679   2.580   7.918
29935SOL     OW91701   2.670   7.873   7.855
29935SOL    HW191702   2.691   7.963   7.830
29935SOL    HW291703   2.610   7.881   7.929
29936SOL     OW91704  12.351   1.042   0.546
29936SOL    HW191705  12.400   1.098   0.486
29936SOL    HW291706  12.400   0.959   0.546
29937SOL     OW91707   2.847  10.623   3.138
29937SOL    HW191708   2.755  10.622   3.164
29937SOL    HW291709   2.854  10.698   3.078
29938SOL     OW91710   2.993   3.146  12.856
29938SOL    HW191711   3.075   3.134  12.904
29938SOL    HW291712   2.947   3.063  12.867
29939SOL     OW91713   9.306   1.930   5.472
29939SOL    HW191714   9.330   1.876   5.396
29939SOL    HW291715   9.371   1.907   5.538
29940SOL     OW91716   3.188   1.589   7.933
29940SOL    HW191717   3.173   1.633   7.850
29940SOL    HW291718   3.275   1.550   7.923
29941SOL     OW91719   4.474  14.837   1.090
29941SOL    HW191720   4.382  14.861   1.073
29941SOL    HW291721   4.502   0.019   1.157
29942SOL     OW91722   1.782   2.161   6.513
29942SOL    HW191723   1.867   2.189   6.549
29942SOL    HW291724   1.801   2.137   6.423
29943SOL     OW91725   4.962   8.795   2.873
29943SOL    HW191726   4.966   8.731   2.802
29943SOL    HW291727   5.023   8.762   2.938
29944SOL     OW91728   9.811   0.720   7.043
29944SOL    HW191729   9.872   0.708   7.115
29944SOL    HW291730   9.813   0.637   6.996
29945SOL     OW91731   1.273   3.752  11.793
29945SOL    HW191732   1.284   3.681  11.856
29945SOL    HW291733   1.251   3.828  11.847
29946SOL     OW91734   6.250   6.738  13.590
29946SOL    HW191735   6.266   6.721  13.682
29946SOL    HW291736   6.236   6.652  13.551
29947SOL     OW91737   8.700   4.414   2.171
29947SOL    HW191738   8.736   4.501   2.153
29947SOL    HW291739   8.694   4.372   2.086
29948SOL     OW91740  14.703  12.287  12.817
29948SOL    HW191741  14.722  12.360  12.758
29948SOL    HW291742  14.781  12.281  12.873
29949SOL     OW91743  11.677   0.787   8.514
29949SOL    HW191744  11.720   0.809   8.432
29949SOL    HW291745  11.691   0.693   8.524
29950SOL     OW91746   5.726  10.188   3.724
29950SOL    HW191747   5.638  10.171   3.756
29950SOL    HW291748   5.754  10.104   3.685
29951SOL     OW91749   0.476   9.868   7.924
29951SOL    HW191750   0.459   9.774   7.918
29951SOL    HW291751   0.408   9.900   7.985
29952SOL     OW91752   0.127   9.374   8.303
29952SOL    HW191753   0.104   9.305   8.241
29952SOL    HW291754   0.154   9.328   8.382
29953SOL     OW91755  11.753   0.897   5.011
29953SOL    HW191756  11.717   0.896   4.923
29953SOL    HW291757  11.833   0.845   5.006
29954SOL     OW91758   4.641  14.749  10.894
29954SOL    HW191759   4.686  14.727  10.976
29954SOL    HW291760   4.689  14.702  10.827
29955SOL     OW91761   0.074  10.416   2.198
29955SOL    HW191762   0.066  10.361   2.120
29955SOL    HW291763   0.107  10.499   2.165
29956SOL     OW91764   2.991   5.223   6.652
29956SOL    HW191765   3.043   5.143   6.643
29956SOL    HW291766   2.932   5.206   6.725
29957SOL     OW91767   2.189   0.729   3.888
29957SOL    HW191768   2.107   0.722   3.839
29957SOL    HW291769   2.256   0.692   3.829
29958SOL     OW91770   7.388  13.668  10.269
29958SOL    HW191771   7.426  13.615  10.339
29958SOL    HW291772   7.348  13.742  10.314
29959SOL     OW91773  13.440  13.764   6.073
29959SOL    HW191774  13.437  13.858   6.089
29959SOL    HW291775  13.530  13.739   6.094
29960SOL     OW91776   1.359  13.617  10.841
29960SOL    HW191777   1.351  13.546  10.905
29960SOL    HW291778   1.350  13.574  10.757
29961SOL     OW91779   9.179   0.212   9.458
29961SOL    HW191780   9.191   0.188   9.366
29961SOL    HW291781   9.249   0.167   9.504
29962SOL     OW91782   1.608   3.861   3.115
29962SOL    HW191783   1.689   3.814   3.131
29962SOL    HW291784   1.633   3.953   3.117
29963SOL     OW91785   9.972   7.323   9.781
29963SOL    HW191786  10.045   7.342   9.840
29963SOL    HW291787   9.912   7.271   9.834
29964SOL     OW91788   9.780   5.675   5.295
29964SOL    HW191789   9.741   5.600   5.248
29964SOL    HW291790   9.861   5.694   5.248
29965SOL     OW91791  11.273  11.689   6.376
29965SOL    HW191792  11.218  11.612   6.396
29965SOL    HW291793  11.346  11.654   6.326
29966SOL     OW91794   9.967   8.314   8.690
29966SOL    HW191795   9.937   8.256   8.759
29966SOL    HW291796  10.006   8.256   8.625
29967SOL     OW91797   9.113   3.506   7.530
29967SOL    HW191798   9.113   3.488   7.624
29967SOL    HW291799   9.206   3.503   7.505
29968SOL     OW91800   6.779   5.114   6.825
29968SOL    HW191801   6.771   5.164   6.906
29968SOL    HW291802   6.828   5.035   6.850
29969SOL     OW91803   9.190   0.689   5.743
29969SOL    HW191804   9.191   0.702   5.838
29969SOL    HW291805   9.282   0.686   5.718
29970SOL     OW91806   3.881   5.302  13.984
29970SOL    HW191807   3.850   5.321  14.072
29970SOL    HW291808   3.855   5.211  13.969
29971SOL     OW91809   5.510   1.275   4.269
29971SOL    HW191810   5.589   1.276   4.323
29971SOL    HW291811   5.541   1.296   4.181
29972SOL     OW91812   8.304  14.100   8.056
29972SOL    HW191813   8.251  14.156   8.112
29972SOL    HW291814   8.254  14.092   7.975
29973SOL     OW91815  12.811   7.801   4.938
29973SOL    HW191816  12.809   7.895   4.925
29973SOL    HW291817  12.888   7.785   4.992
29974SOL     OW91818  14.725  13.583   3.441
29974SOL    HW191819  14.737  13.494   3.409
29974SOL    HW291820  14.649  13.615   3.391
29975SOL     OW91821   6.919  12.770   5.299
29975SOL    HW191822   6.882  12.858   5.300
29975SOL    HW291823   6.958  12.761   5.212
29976SOL     OW91824   0.257  13.015  11.722
29976SOL    HW191825   0.319  12.960  11.771
29976SOL    HW291826   0.258  12.980  11.633
29977SOL     OW91827   1.833  12.934  11.535
29977SOL    HW191828   1.833  12.968  11.625
29977SOL    HW291829   1.923  12.947  11.505
29978SOL     OW91830   9.714   6.214   7.866
29978SOL    HW191831   9.669   6.136   7.834
29978SOL    HW291832   9.805   6.186   7.877
29979SOL     OW91833   7.931   4.548   8.807
29979SOL    HW191834   7.990   4.485   8.765
29979SOL    HW291835   7.984   4.628   8.815
29980SOL     OW91836  13.538  14.668   1.306
29980SOL    HW191837  13.463  14.696   1.358
29980SOL    HW291838  13.536  14.572   1.311
29981SOL     OW91839  13.889   9.776   0.197
29981SOL    HW191840  13.978   9.803   0.221
29981SOL    HW291841  13.869   9.704   0.256
29982SOL     OW91842  12.083   6.287   8.165
29982SOL    HW191843  12.005   6.303   8.217
29982SOL    HW291844  12.099   6.193   8.173
29983SOL     OW91845  10.850   2.454  10.601
29983SOL    HW191846  10.910   2.396  10.555
29983SOL    HW291847  10.884   2.542  10.586
29984SOL     OW91848   1.404   4.199   3.230
29984SOL    HW191849   1.357   4.245   3.300
29984SOL    HW291850   1.369   4.110   3.232
29985SOL     OW91851   7.880   9.262   2.046
29985SOL    HW191852   7.874   9.343   2.096
29985SOL    HW291853   7.820   9.202   2.090
29986SOL     OW91854   5.339   9.344   1.663
29986SOL    HW191855   5.326   9.334   1.568
29986SOL    HW291856   5.396   9.420   1.672
29987SOL     OW91857   9.572  13.866   0.166
29987SOL    HW191858   9.649  13.918   0.189
29987SOL    HW291859   9.543  13.827   0.249
29988SOL     OW91860   2.500   3.359   8.797
29988SOL    HW191861   2.563   3.385   8.729
29988SOL    HW291862   2.551   3.306   8.858
29989SOL     OW91863   9.551   7.496   0.319
29989SOL    HW191864   9.559   7.447   0.401
29989SOL    HW291865   9.468   7.465   0.281
29990SOL     OW91866   9.431   1.275   7.691
29990SOL    HW191867   9.393   1.222   7.761
29990SOL    HW291868   9.490   1.335   7.735
29991SOL     OW91869   5.755  12.984  12.649
29991SOL    HW191870   5.781  13.065  12.605
29991SOL    HW291871   5.683  12.951  12.597
29992SOL     OW91872   1.199   4.249   8.916
29992SOL    HW191873   1.111   4.216   8.897
29992SOL    HW291874   1.231   4.282   8.831
29993SOL     OW91875  10.560   8.885  12.232
29993SOL    HW191876  10.479   8.852  12.270
29993SOL    HW291877  10.589   8.816  12.173
29994SOL     OW91878   1.081   7.193   5.445
29994SOL    HW191879   1.059   7.100   5.440
29994SOL    HW291880   1.133   7.202   5.525
29995SOL     OW91881   6.492   6.864   3.041
29995SOL    HW191882   6.535   6.931   3.094
29995SOL    HW291883   6.524   6.878   2.953
29996SOL     OW91884   2.587   2.546   5.022
29996SOL    HW191885   2.580   2.633   4.982
29996SOL    HW291886   2.609   2.563   5.114
29997SOL     OW91887   5.900   6.206  12.749
29997SOL    HW191888   5.833   6.209  12.817
29997SOL    HW291889   5.851   6.207  12.667
29998SOL     OW91890   2.278   7.002   2.324
29998SOL    HW191891   2.206   7.049   2.282
29998SOL    HW291892   2.237   6.956   2.397
29999SOL     OW91893   4.253  12.483   6.080
29999SOL    HW191894   4.244  12.392   6.053
29999SOL    HW291895   4.347  12.501   6.072
30000SOL     OW91896   0.880   4.092   2.000
30000SOL    HW191897   0.817   4.073   2.070
30000SOL    HW291898   0.920   4.175   2.026
30001SOL     OW91899   5.511   2.599  12.325
30001SOL    HW191900   5.421   2.624  12.346
30001SOL    HW291901   5.541   2.668  12.266
30002SOL     OW91902   8.280  10.224   6.106
30002SOL    HW191903   8.257  10.225   6.199
30002SOL    HW291904   8.343  10.296   6.096
30003SOL     OW91905   8.592   4.670   1.534
30003SOL    HW191906   8.536   4.732   1.489
30003SOL    HW291907   8.680   4.685   1.498
30004SOL     OW91908   8.014   8.121  11.825
30004SOL    HW191909   8.001   8.153  11.915
30004SOL    HW291910   7.930   8.081  11.802
30005SOL     OW91911   1.852   5.424   6.978
30005SOL    HW191912   1.920   5.469   7.028
30005SOL    HW291913   1.801   5.494   6.938
30006SOL     OW91914  12.897   8.843  14.241
30006SOL    HW191915  12.883   8.831  14.147
30006SOL    HW291916  12.968   8.907  14.247
30007SOL     OW91917   0.836   0.093   7.334
30007SOL    HW191918   0.867   0.148   7.407
30007SOL    HW291919   0.812   0.156   7.266
30008SOL     OW91920   4.762  13.788   6.115
30008SOL    HW191921   4.797  13.699   6.108
30008SOL    HW291922   4.702  13.796   6.042
30009SOL     OW91923   5.442   1.465   8.213
30009SOL    HW191924   5.375   1.462   8.145
30009SOL    HW291925   5.484   1.379   8.211
30010SOL     OW91926   9.527   0.648  11.056
30010SOL    HW191927   9.464   0.593  11.009
30010SOL    HW291928   9.562   0.591  11.125
30011SOL     OW91929   6.810   5.169   5.126
30011SOL    HW191930   6.792   5.167   5.032
30011SOL    HW291931   6.736   5.122   5.165
30012SOL     OW91932   1.316  11.938   5.817
30012SOL    HW191933   1.333  11.992   5.740
30012SOL    HW291934   1.290  11.853   5.781
30013SOL     OW91935  10.378  14.862   2.193
30013SOL    HW191936  10.296   0.029   2.207
30013SOL    HW291937  10.371  14.829   2.103
30014SOL     OW91938  13.284   5.487  11.123
30014SOL    HW191939  13.326   5.461  11.040
30014SOL    HW291940  13.210   5.427  11.131
30015SOL     OW91941   5.259  10.596   8.534
30015SOL    HW191942   5.203  10.548   8.473
30015SOL    HW291943   5.347  10.562   8.516
30016SOL     OW91944   4.295  12.224   9.569
30016SOL    HW191945   4.350  12.149   9.546
30016SOL    HW291946   4.227  12.187   9.625
30017SOL     OW91947  14.500   7.269  11.551
30017SOL    HW191948  14.505   7.176  11.573
30017SOL    HW291949  14.474   7.270  11.459
30018SOL     OW91950   3.541   3.762   6.665
30018SOL    HW191951   3.500   3.683   6.630
30018SOL    HW291952   3.468   3.812   6.701
30019SOL     OW91953   7.135   2.668   5.689
30019SOL    HW191954   7.073   2.650   5.759
30019SOL    HW291955   7.101   2.747   5.646
30020SOL     OW91956  14.199   4.913   1.013
30020SOL    HW191957  14.256   4.988   0.997
30020SOL    HW291958  14.208   4.896   1.107
30021SOL     OW91959  14.454   6.230  12.956
30021SOL    HW191960  14.423   6.308  13.001
30021SOL    HW291961  14.521   6.193  13.014
30022SOL     OW91962  10.142  12.607   2.530
30022SOL    HW191963  10.053  12.577   2.547
30022SOL    HW291964  10.189  12.591   2.612
30023SOL     OW91965   5.104  13.484   8.388
30023SOL    HW191966   5.068  13.568   8.417
30023SOL    HW291967   5.041  13.419   8.417
30024SOL     OW91968   1.151   5.871   8.088
30024SOL    HW191969   1.074   5.829   8.125
30024SOL    HW291970   1.124   5.962   8.073
30025SOL     OW91971  14.697   0.638   4.389
30025SOL    HW191972  14.675   0.661   4.299
30025SOL    HW291973  14.649   0.557   4.406
30026SOL     OW91974   8.389   1.546   2.674
30026SOL    HW191975   8.421   1.461   2.705
30026SOL    HW291976   8.357   1.529   2.585
30027SOL     OW91977   2.005  11.715   5.351
30027SOL    HW191978   1.948  11.741   5.279
30027SOL    HW291979   1.954  11.651   5.400
30028SOL     OW91980   8.974  14.588  12.319
30028SOL    HW191981   8.965  14.572  12.413
30028SOL    HW291982   8.909  14.532  12.278
30029SOL     OW91983   0.701   0.696  13.856
30029SOL    HW191984   0.616   0.669  13.890
30029SOL    HW291985   0.714   0.785  13.890
30030SOL     OW91986  13.747   4.590   7.099
30030SOL    HW191987  13.754   4.634   7.183
30030SOL    HW291988  13.727   4.499   7.121
30031SOL     OW91989   9.261  10.514   9.254
30031SOL    HW191990   9.246  10.608   9.265
30031SOL    HW291991   9.273  10.481   9.343
30032SOL     OW91992  10.901   2.777   4.683
30032SOL    HW191993  10.814   2.756   4.717
30032SOL    HW291994  10.961   2.752   4.752
30033SOL     OW91995  14.076   9.103   8.341
30033SOL    HW191996  14.095   9.099   8.435
30033SOL    HW291997  13.999   9.047   8.330
30034SOL     OW91998   0.675   6.364   0.627
30034SOL    HW191999   0.655   6.441   0.679
30034SOL    HW292000   0.591   6.319   0.618
30035SOL     OW92001  12.736   1.801   7.131
30035SOL    HW192002  12.780   1.881   7.161
30035SOL    HW292003  12.688   1.828   7.053
30036SOL     OW92004  11.350  10.486  12.795
30036SOL    HW192005  11.276  10.458  12.740
30036SOL    HW292006  11.372  10.573  12.762
30037SOL     OW92007   0.424  12.323   2.202
30037SOL    HW192008   0.364  12.265   2.249
30037SOL    HW292009   0.491  12.346   2.267
30038SOL     OW92010  14.317   8.221  14.226
30038SOL    HW192011  14.286   8.189  14.141
30038SOL    HW292012  14.255   8.291  14.249
30039SOL     OW92013  14.347   7.353  13.182
30039SOL    HW192014  14.336   7.258  13.190
30039SOL    HW292015  14.383   7.380  13.266
30040SOL     OW92016   4.756   0.628  13.156
30040SOL    HW192017   4.836   0.666  13.120
30040SOL    HW292018   4.707   0.598  13.079
30041SOL     OW92019   3.632   2.688   2.097
30041SOL    HW192020   3.562   2.638   2.139
30041SOL    HW292021   3.668   2.628   2.032
30042SOL     OW92022  10.962   7.378   1.623
30042SOL    HW192023  11.013   7.417   1.694
30042SOL    HW292024  11.015   7.391   1.545
30043SOL     OW92025  12.858   9.879   8.191
30043SOL    HW192026  12.855   9.794   8.148
30043SOL    HW292027  12.767   9.907   8.197
30044SOL     OW92028  14.638  14.275  11.071
30044SOL    HW192029  14.724  14.236  11.056
30044SOL    HW292030  14.621  14.261  11.165
30045SOL     OW92031  14.355   8.911   7.325
30045SOL    HW192032  14.440   8.944   7.353
30045SOL    HW292033  14.307   8.989   7.295
30046SOL     OW92034   7.276  11.102   6.066
30046SOL    HW192035   7.317  11.118   6.151
30046SOL    HW292036   7.315  11.020   6.036
30047SOL     OW92037   7.651   3.127  11.487
30047SOL    HW192038   7.578   3.093  11.538
30047SOL    HW292039   7.729   3.096  11.533
30048SOL     OW92040   2.725  13.347   2.462
30048SOL    HW192041   2.632  13.334   2.480
30048SOL    HW292042   2.749  13.425   2.512
30049SOL     OW92043   8.489  13.852  10.247
30049SOL    HW192044   8.472  13.941  10.278
30049SOL    HW292045   8.421  13.836  10.181
30050SOL     OW92046   9.798   1.256   8.057
30050SOL    HW192047   9.884   1.231   8.022
30050SOL    HW292048   9.740   1.185   8.032
30051SOL     OW92049   5.536   9.015  12.127
30051SOL    HW192050   5.602   8.950  12.148
30051SOL    HW292051   5.463   8.965  12.090
30052SOL     OW92052  13.952  11.414   1.776
30052SOL    HW192053  14.034  11.376   1.746
30052SOL    HW292054  13.885  11.354   1.743
30053SOL     OW92055  11.402  14.082   7.107
30053SOL    HW192056  11.458  14.057   7.180
30053SOL    HW292057  11.411  14.177   7.100
30054SOL     OW92058   8.136   5.397   6.378
30054SOL    HW192059   8.182   5.479   6.400
30054SOL    HW292060   8.088   5.417   6.298
30055SOL     OW92061  10.742   0.759   9.441
30055SOL    HW192062  10.797   0.804   9.505
30055SOL    HW292063  10.801   0.695   9.401
30056SOL     OW92064   7.361   4.595  11.806
30056SOL    HW192065   7.355   4.508  11.767
30056SOL    HW292066   7.449   4.625  11.786
30057SOL     OW92067   1.899   6.842   7.000
30057SOL    HW192068   1.967   6.895   7.042
30057SOL    HW292069   1.845   6.812   7.073
30058SOL     OW92070  11.834  12.766  14.595
30058SOL    HW192071  11.764  12.748  14.658
30058SOL    HW292072  11.818  12.704  14.523
30059SOL     OW92073   5.116   7.115   4.069
30059SOL    HW192074   5.080   7.198   4.101
30059SOL    HW292075   5.178   7.088   4.138
30060SOL     OW92076  10.491  10.379   4.210
30060SOL    HW192077  10.461  10.288   4.208
30060SOL    HW292078  10.471  10.409   4.299
30061SOL     OW92079   5.389   7.154  10.769
30061SOL    HW192080   5.344   7.191  10.845
30061SOL    HW292081   5.423   7.070  10.799
30062SOL     OW92082   8.803   1.077  10.397
30062SOL    HW192083   8.751   1.139  10.346
30062SOL    HW292084   8.852   1.131  10.459
30063SOL     OW92085   6.005  10.200   9.431
30063SOL    HW192086   6.020  10.252   9.352
30063SOL    HW292087   5.910  10.184   9.430
30064SOL     OW92088  12.241   0.781   2.270
30064SOL    HW192089  12.146   0.792   2.270
30064SOL    HW292090  12.256   0.695   2.309
30065SOL     OW92091   2.476   8.810   7.550
30065SOL    HW192092   2.496   8.884   7.493
30065SOL    HW292093   2.409   8.761   7.502
30066SOL     OW92094  11.808  10.873   9.815
30066SOL    HW192095  11.820  10.948   9.757
30066SOL    HW292096  11.713  10.869   9.829
30067SOL     OW92097   7.362  11.336  10.440
30067SOL    HW192098   7.325  11.285  10.368
30067SOL    HW292099   7.386  11.420  10.399
30068SOL     OW92100  12.765   8.526   0.889
30068SOL    HW192101  12.792   8.479   0.810
30068SOL    HW292102  12.846   8.536   0.939
30069SOL     OW92103   6.224   0.041   5.351
30069SOL    HW192104   6.239   0.101   5.278
30069SOL    HW292105   6.147   0.077   5.396
30070SOL     OW92106   0.046   2.039   7.771
30070SOL    HW192107   0.052   1.953   7.812
30070SOL    HW292108  14.880   2.024   7.689
30071SOL     OW92109  12.010   2.100  10.827
30071SOL    HW192110  12.022   2.127  10.736
30071SOL    HW292111  11.995   2.006  10.822
30072SOL     OW92112   2.239   5.721   0.935
30072SOL    HW192113   2.226   5.815   0.948
30072SOL    HW292114   2.197   5.703   0.851
30073SOL     OW92115   4.185   1.640   4.497
30073SOL    HW192116   4.229   1.611   4.577
30073SOL    HW292117   4.160   1.731   4.514
30074SOL     OW92118   8.460  14.531   1.427
30074SOL    HW192119   8.437  14.553   1.518
30074SOL    HW292120   8.504  14.609   1.394
30075SOL     OW92121   7.090   7.657  12.924
30075SOL    HW192122   7.089   7.619  13.013
30075SOL    HW292123   7.183   7.667  12.904
30076SOL     OW92124   5.762   3.623  13.121
30076SOL    HW192125   5.775   3.609  13.215
30076SOL    HW292126   5.803   3.548  13.079
30077SOL     OW92127  10.216  13.328   2.912
30077SOL    HW192128  10.124  13.303   2.903
30077SOL    HW292129  10.226  13.402   2.852
30078SOL     OW92130   2.963  14.112  12.010
30078SOL    HW192131   3.055  14.096  12.028
30078SOL    HW292132   2.935  14.170  12.081
30079SOL     OW92133  11.261   1.165  14.111
30079SOL    HW192134  11.175   1.186  14.073
30079SOL    HW292135  11.242   1.100  14.178
30080SOL     OW92136   8.633   4.512   4.443
30080SOL    HW192137   8.608   4.604   4.434
30080SOL    HW292138   8.553   4.468   4.470
30081SOL     OW92139   3.327   4.553   2.155
30081SOL    HW192140   3.325   4.483   2.220
30081SOL    HW292141   3.353   4.510   2.074
30082SOL     OW92142   4.654  12.956   2.781
30082SOL    HW192143   4.601  12.933   2.705
30082SOL    HW292144   4.743  12.931   2.758
30083SOL     OW92145   0.239  14.636   4.342
30083SOL    HW192146   0.265  14.581   4.268
30083SOL    HW292147   0.164  14.685   4.310
30084SOL     OW92148   2.637   7.503  10.614
30084SOL    HW192149   2.609   7.563  10.545
30084SOL    HW292150   2.654   7.420  10.568
30085SOL     OW92151   2.594   2.028   3.951
30085SOL    HW192152   2.686   2.045   3.932
30085SOL    HW292153   2.566   2.104   4.002
30086SOL     OW92154   0.948  11.573   4.747
30086SOL    HW192155   1.033  11.601   4.782
30086SOL    HW292156   0.893  11.560   4.825
30087SOL     OW92157   5.824  13.346   4.688
30087SOL    HW192158   5.765  13.271   4.688
30087SOL    HW292159   5.911  13.308   4.697
30088SOL     OW92160   9.609  13.704   1.396
30088SOL    HW192161   9.637  13.691   1.486
30088SOL    HW292162   9.530  13.759   1.403
30089SOL     OW92163   5.514   2.075   4.089
30089SOL    HW192164   5.590   2.017   4.084
30089SOL    HW292165   5.501   2.089   4.183
30090SOL     OW92166   1.844  13.903   1.564
30090SOL    HW192167   1.770  13.844   1.553
30090SOL    HW292168   1.806  13.982   1.604
30091SOL     OW92169   8.305   9.976   2.793
30091SOL    HW192170   8.366   9.935   2.855
30091SOL    HW292171   8.224   9.927   2.803
30092SOL     OW92172  14.284  10.615  10.907
30092SOL    HW192173  14.204  10.650  10.868
30092SOL    HW292174  14.320  10.687  10.958
30093SOL     OW92175  11.411   0.537   2.809
30093SOL    HW192176  11.375   0.600   2.747
30093SOL    HW292177  11.356   0.546   2.887
30094SOL     OW92178   0.572   8.224  11.987
30094SOL    HW192179   0.589   8.294  11.924
30094SOL    HW292180   0.476   8.215  11.987
30095SOL     OW92181   6.960  11.367  14.458
30095SOL    HW192182   6.957  11.461  14.478
30095SOL    HW292183   7.047  11.339  14.485
30096SOL     OW92184   7.116   7.806   1.021
30096SOL    HW192185   7.110   7.900   1.039
30096SOL    HW292186   7.096   7.764   1.105
30097SOL     OW92187   2.644   4.354  12.666
30097SOL    HW192188   2.614   4.445  12.664
30097SOL    HW292189   2.720   4.355  12.724
30098SOL     OW92190  12.412  13.810   8.337
30098SOL    HW192191  12.443  13.731   8.293
30098SOL    HW292192  12.321  13.791   8.360
30099SOL     OW92193   2.036   6.815  13.279
30099SOL    HW192194   1.972   6.748  13.254
30099SOL    HW292195   1.984   6.885  13.317
30100SOL     OW92196  14.727   8.888   5.275
30100SOL    HW192197  14.732   8.961   5.213
30100SOL    HW292198  14.776   8.917   5.352
30101SOL     OW92199   0.449   9.761   7.258
30101SOL    HW192200   0.528   9.749   7.311
30101SOL    HW292201   0.420   9.672   7.239
30102SOL     OW92202   1.619   4.215   2.315
30102SOL    HW192203   1.574   4.196   2.397
30102SOL    HW292204   1.592   4.145   2.255
30103SOL     OW92205   8.231   7.514   6.192
30103SOL    HW192206   8.315   7.560   6.194
30103SOL    HW292207   8.165   7.582   6.207
30104SOL     OW92208   9.640   8.140   1.085
30104SOL    HW192209   9.558   8.154   1.132
30104SOL    HW292210   9.621   8.166   0.995
30105SOL     OW92211  14.643   7.997   5.432
30105SOL    HW192212  14.550   7.972   5.437
30105SOL    HW292213  14.643   8.091   5.448
30106SOL     OW92214  14.582  11.371   3.475
30106SOL    HW192215  14.519  11.440   3.456
30106SOL    HW292216  14.665  11.417   3.489
30107SOL     OW92217  11.621  13.419   7.552
30107SOL    HW192218  11.535  13.448   7.520
30107SOL    HW292219  11.615  13.323   7.551
30108SOL     OW92220  13.661  14.585   4.094
30108SOL    HW192221  13.614  14.502   4.088
30108SOL    HW292222  13.746  14.563   4.133
30109SOL     OW92223   5.661  14.866   9.846
30109SOL    HW192224   5.586  14.816   9.814
30109SOL    HW292225   5.725  14.862   9.775
30110SOL     OW92226   0.285  13.286   6.663
30110SOL    HW192227   0.320  13.312   6.749
30110SOL    HW292228   0.317  13.196   6.651
30111SOL     OW92229  14.455   6.073  14.086
30111SOL    HW192230  14.450   6.090  13.992
30111SOL    HW292231  14.393   6.003  14.102
30112SOL     OW92232   2.065   2.150   1.689
30112SOL    HW192233   2.127   2.174   1.620
30112SOL    HW292234   1.997   2.217   1.684
30113SOL     OW92235  12.401  10.485   4.911
30113SOL    HW192236  12.480  10.438   4.884
30113SOL    HW292237  12.329  10.434   4.874
30114SOL     OW92238   6.340  13.193   5.178
30114SOL    HW192239   6.429  13.195   5.143
30114SOL    HW292240   6.297  13.267   5.137
30115SOL     OW92241   8.555   8.563   0.188
30115SOL    HW192242   8.592   8.547   0.275
30115SOL    HW292243   8.616   8.520   0.128
30116SOL     OW92244   0.484   7.349   3.803
30116SOL    HW192245   0.549   7.417   3.787
30116SOL    HW292246   0.529   7.286   3.860
30117SOL     OW92247   9.303   7.411   2.076
30117SOL    HW192248   9.352   7.448   2.003
30117SOL    HW292249   9.229   7.366   2.034
30118SOL     OW92250   5.693  14.266   9.775
30118SOL    HW192251   5.781  14.292   9.751
30118SOL    HW292252   5.703  14.179   9.814
30119SOL     OW92253   2.826   6.386   7.632
30119SOL    HW192254   2.893   6.440   7.590
30119SOL    HW292255   2.792   6.331   7.562
30120SOL     OW92256   8.475   4.546   8.016
30120SOL    HW192257   8.413   4.607   8.056
30120SOL    HW292258   8.484   4.475   8.080
30121SOL     OW92259  12.889  10.848  14.110
30121SOL    HW192260  12.974  10.889  14.097
30121SOL    HW292261  12.858  10.827  14.022
30122SOL     OW92262   1.154   1.523   5.367
30122SOL    HW192263   1.188   1.455   5.309
30122SOL    HW292264   1.134   1.476   5.449
30123SOL     OW92265   3.114   8.910  12.141
30123SOL    HW192266   3.033   8.859  12.146
30123SOL    HW292267   3.104   8.965  12.064
30124SOL     OW92268   0.423  11.983   5.546
30124SOL    HW192269   0.468  11.907   5.510
30124SOL    HW292270   0.337  11.949   5.572
30125SOL     OW92271   5.561  11.677  14.418
30125SOL    HW192272   5.647  11.703  14.384
30125SOL    HW292273   5.554  11.584  14.397
30126SOL     OW92274   2.807   4.245   3.737
30126SOL    HW192275   2.892   4.257   3.781
30126SOL    HW292276   2.828   4.250   3.644
30127SOL     OW92277   1.077   9.112   7.640
30127SOL    HW192278   1.028   9.034   7.613
30127SOL    HW292279   1.071   9.171   7.566
30128SOL     OW92280   4.736  13.151   1.409
30128SOL    HW192281   4.826  13.160   1.379
30128SOL    HW292282   4.714  13.237   1.446
30129SOL     OW92283  11.823   4.670   0.200
30129SOL    HW192284  11.832   4.638   0.110
30129SOL    HW292285  11.780   4.599   0.247
30130SOL     OW92286   7.555   7.718   1.368
30130SOL    HW192287   7.503   7.639   1.353
30130SOL    HW292288   7.537   7.773   1.291
30131SOL     OW92289   4.709  14.728   9.009
30131SOL    HW192290   4.680  14.710   9.098
30131SOL    HW292291   4.731  14.642   8.973
30132SOL     OW92292   3.208   9.015  11.372
30132SOL    HW192293   3.137   8.953  11.356
30132SOL    HW292294   3.174   9.074  11.439
30133SOL     OW92295   2.960   5.957  14.844
30133SOL    HW192296   3.029   5.906   0.006
30133SOL    HW292297   2.937   5.907  14.766
30134SOL     OW92298  11.686   4.005   2.472
30134SOL    HW192299  11.630   4.070   2.514
30134SOL    HW292300  11.665   4.011   2.379
30135SOL     OW92301   8.269   6.435   7.020
30135SOL    HW192302   8.184   6.475   7.036
30135SOL    HW292303   8.254   6.341   7.027
30136SOL     OW92304  14.264   7.450   5.995
30136SOL    HW192305  14.233   7.436   6.084
30136SOL    HW292306  14.309   7.369   5.972
30137SOL     OW92307  12.448   7.966  13.638
30137SOL    HW192308  12.406   8.047  13.669
30137SOL    HW292309  12.375   7.909  13.614
30138SOL     OW92310   9.185   8.445   2.099
30138SOL    HW192311   9.238   8.500   2.156
30138SOL    HW292312   9.173   8.497   2.019
30139SOL     OW92313  10.678   0.549   0.235
30139SOL    HW192314  10.643   0.605   0.304
30139SOL    HW292315  10.686   0.463   0.275
30140SOL     OW92316   4.825  10.023   8.709
30140SOL    HW192317   4.824  10.038   8.615
30140SOL    HW292318   4.755  10.079   8.743
30141SOL     OW92319   2.347   6.202   4.943
30141SOL    HW192320   2.370   6.130   5.001
30141SOL    HW292321   2.416   6.267   4.957
30142SOL     OW92322   6.135  13.857  11.937
30142SOL    HW192323   6.114  13.844  12.029
30142SOL    HW292324   6.221  13.899  11.937
30143SOL     OW92325   2.373   2.101  11.786
30143SOL    HW192326   2.401   2.009  11.780
30143SOL    HW292327   2.386   2.124  11.878
30144SOL     OW92328  10.526   3.100  14.433
30144SOL    HW192329  10.483   3.076  14.514
30144SOL    HW292330  10.553   3.017  14.394
30145SOL     OW92331  10.749  14.683   0.365
30145SOL    HW192332  10.723  14.759   0.313
30145SOL    HW292333  10.690  14.684   0.441
30146SOL     OW92334   2.081   0.869  11.088
30146SOL    HW192335   2.015   0.935  11.109
30146SOL    HW292336   2.087   0.871  10.992
30147SOL     OW92337   3.732   8.820   2.097
30147SOL    HW192338   3.705   8.750   2.037
30147SOL    HW292339   3.758   8.775   2.177
30148SOL     OW92340   2.891   6.123  13.965
30148SOL    HW192341   2.901   6.169  14.048
30148SOL    HW292342   2.917   6.187  13.899
30149SOL     OW92343   1.484   9.174   3.043
30149SOL    HW192344   1.506   9.164   3.136
30149SOL    HW292345   1.494   9.086   3.007
30150SOL     OW92346   8.133  11.868   8.196
30150SOL    HW192347   8.055  11.889   8.246
30150SOL    HW292348   8.198  11.841   8.261
30151SOL     OW92349   3.090  10.299   2.606
30151SOL    HW192350   3.061  10.232   2.669
30151SOL    HW292351   3.059  10.382   2.643
30152SOL     OW92352   4.294   8.369   0.002
30152SOL    HW192353   4.216   8.407  14.842
30152SOL    HW292354   4.354   8.354  14.809
30153SOL     OW92355   8.027   4.564  12.891
30153SOL    HW192356   8.043   4.506  12.817
30153SOL    HW292357   8.050   4.651  12.858
30154SOL     OW92358  11.341  10.811  14.468
30154SOL    HW192359  11.426  10.814  14.425
30154SOL    HW292360  11.330  10.899  14.505
30155SOL     OW92361   2.916   4.392  11.027
30155SOL    HW192362   2.931   4.298  11.015
30155SOL    HW292363   2.836   4.397  11.078
30156SOL     OW92364   8.031  12.865  13.540
30156SOL    HW192365   8.041  12.821  13.456
30156SOL    HW292366   8.085  12.814  13.600
30157SOL     OW92367   5.483   2.381   7.831
30157SOL    HW192368   5.502   2.475   7.837
30157SOL    HW292369   5.390   2.374   7.852
30158SOL     OW92370  12.085   5.962  14.664
30158SOL    HW192371  12.119   5.953  14.575
30158SOL    HW292372  11.997   5.925  14.661
30159SOL     OW92373   8.550   1.029   2.314
30159SOL    HW192374   8.635   1.053   2.276
30159SOL    HW292375   8.536   0.939   2.287
30160SOL     OW92376  12.714   4.034   4.383
30160SOL    HW192377  12.699   4.124   4.354
30160SOL    HW292378  12.724   4.040   4.478
30161SOL     OW92379  10.395   2.782   7.926
30161SOL    HW192380  10.457   2.750   7.991
30161SOL    HW292381  10.309   2.764   7.964
30162SOL     OW92382   0.709  14.034   0.288
30162SOL    HW192383   0.702  13.942   0.263
30162SOL    HW292384   0.620  14.068   0.279
30163SOL     OW92385   4.462   6.101  11.218
30163SOL    HW192386   4.378   6.144  11.202
30163SOL    HW292387   4.440   6.019  11.261
30164SOL     OW92388  11.266  10.068  14.474
30164SOL    HW192389  11.201  10.004  14.447
30164SOL    HW292390  11.350  10.032  14.446
30165SOL     OW92391   7.382   1.550   0.780
30165SOL    HW192392   7.316   1.536   0.713
30165SOL    HW292393   7.445   1.479   0.767
30166SOL     OW92394   3.591  14.273   6.081
30166SOL    HW192395   3.669  14.242   6.034
30166SOL    HW292396   3.588  14.367   6.063
30167SOL     OW92397  10.121   5.189  13.343
30167SOL    HW192398  10.182   5.212  13.273
30167SOL    HW292399  10.152   5.104  13.375
30168SOL     OW92400  14.214   2.229   6.202
30168SOL    HW192401  14.156   2.300   6.173
30168SOL    HW292402  14.240   2.256   6.290
30169SOL     OW92403   5.205  10.852   5.096
30169SOL    HW192404   5.118  10.885   5.077
30169SOL    HW292405   5.190  10.774   5.150
30170SOL     OW92406   2.087   9.572   5.710
30170SOL    HW192407   2.059   9.662   5.726
30170SOL    HW292408   2.159   9.580   5.648
30171SOL     OW92409  10.956   1.349   9.626
30171SOL    HW192410  10.962   1.401   9.546
30171SOL    HW292411  11.005   1.269   9.607
30172SOL     OW92412   6.008  11.152  14.441
30172SOL    HW192413   6.087  11.125  14.395
30172SOL    HW292414   6.036  11.169  14.531
30173SOL     OW92415   8.041  13.782  10.761
30173SOL    HW192416   7.991  13.753  10.685
30173SOL    HW292417   8.113  13.719  10.768
30174SOL     OW92418  12.969  10.897   5.768
30174SOL    HW192419  13.036  10.948   5.722
30174SOL    HW292420  13.019  10.837   5.824
30175SOL     OW92421   5.921   5.091   5.461
30175SOL    HW192422   5.979   5.165   5.442
30175SOL    HW292423   5.960   5.018   5.413
30176SOL     OW92424   4.590   0.369   2.451
30176SOL    HW192425   4.502   0.353   2.417
30176SOL    HW292426   4.628   0.281   2.462
30177SOL     OW92427   3.331  10.318  14.743
30177SOL    HW192428   3.307  10.295  14.833
30177SOL    HW292429   3.366  10.407  14.749
30178SOL     OW92430  11.038  14.443   3.559
30178SOL    HW192431  11.080  14.484   3.635
30178SOL    HW292432  10.950  14.421   3.590
30179SOL     OW92433   4.171  12.896  10.330
30179SOL    HW192434   4.160  12.974  10.386
30179SOL    HW292435   4.109  12.909  10.258
30180SOL     OW92436   4.160   6.802  12.285
30180SOL    HW192437   4.075   6.830  12.253
30180SOL    HW292438   4.199   6.880  12.324
30181SOL     OW92439   8.984   5.695   7.186
30181SOL    HW192440   8.906   5.671   7.236
30181SOL    HW292441   9.055   5.696   7.251
30182SOL     OW92442   7.492   3.273   4.740
30182SOL    HW192443   7.587   3.267   4.730
30182SOL    HW292444   7.478   3.313   4.825
30183SOL     OW92445  13.936   3.601   8.818
30183SOL    HW192446  13.906   3.517   8.853
30183SOL    HW292447  13.902   3.603   8.728
30184SOL     OW92448   1.038   7.507  12.143
30184SOL    HW192449   1.133   7.499  12.137
30184SOL    HW292450   1.023   7.601  12.147
30185SOL     OW92451  13.818   1.832   4.275
30185SOL    HW192452  13.729   1.836   4.308
30185SOL    HW292453  13.819   1.890   4.199
30186SOL     OW92454   1.491   4.593   0.120
30186SOL    HW192455   1.404   4.554   0.113
30186SOL    HW292456   1.504   4.638   0.037
30187SOL     OW92457   8.062   9.927   4.717
30187SOL    HW192458   7.967   9.934   4.716
30187SOL    HW292459   8.089   9.974   4.796
30188SOL     OW92460   0.971  14.794   8.480
30188SOL    HW192461   0.937  14.819   8.566
30188SOL    HW292462   0.911  14.836   8.418
30189SOL     OW92463   2.549  14.510   5.109
30189SOL    HW192464   2.630  14.523   5.159
30189SOL    HW292465   2.564  14.558   5.027
30190SOL     OW92466  13.574   7.594   5.296
30190SOL    HW192467  13.498   7.549   5.260
30190SOL    HW292468  13.587   7.554   5.382
30191SOL     OW92469   1.793  11.169   0.085
30191SOL    HW192470   1.834  11.250   0.055
30191SOL    HW292471   1.699  11.186   0.079
30192SOL     OW92472  14.816   9.647   2.745
30192SOL    HW192473  14.800   9.741   2.738
30192SOL    HW292474   0.031   9.638   2.735
30193SOL     OW92475   6.246   4.492   7.588
30193SOL    HW192476   6.176   4.463   7.530
30193SOL    HW292477   6.322   4.440   7.561
30194SOL     OW92478   7.254   2.746  13.770
30194SOL    HW192479   7.339   2.710  13.744
30194SOL    HW292480   7.191   2.676  13.751
30195SOL     OW92481  12.568   3.887  12.749
30195SOL    HW192482  12.664   3.882  12.747
30195SOL    HW292483  12.540   3.798  12.770
30196SOL     OW92484   0.226   7.573   5.889
30196SOL    HW192485   0.265   7.660   5.883
30196SOL    HW292486   0.276   7.520   5.827
30197SOL     OW92487  14.448   0.252   4.584
30197SOL    HW192488  14.529   0.289   4.547
30197SOL    HW292489  14.408   0.325   4.631
30198SOL     OW92490   8.613   1.195   0.872
30198SOL    HW192491   8.616   1.231   0.960
30198SOL    HW292492   8.658   1.259   0.817
30199SOL     OW92493   8.916   3.378  13.992
30199SOL    HW192494   8.861   3.300  13.990
30199SOL    HW292495   8.918   3.404  14.085
30200SOL     OW92496  12.259   5.616  11.757
30200SOL    HW192497  12.307   5.555  11.814
30200SOL    HW292498  12.254   5.697  11.807
30201SOL     OW92499  11.606  11.886  11.844
30201SOL    HW192500  11.537  11.824  11.821
30201SOL    HW292501  11.669  11.835  11.895
30202SOL     OW92502   6.326  13.676   8.294
30202SOL    HW192503   6.418  13.687   8.322
30202SOL    HW292504   6.286  13.762   8.309
30203SOL     OW92505  13.822   2.711   1.359
30203SOL    HW192506  13.737   2.745   1.386
30203SOL    HW292507  13.828   2.734   1.266
30204SOL     OW92508  12.931   8.691   5.297
30204SOL    HW192509  12.887   8.771   5.323
30204SOL    HW292510  12.953   8.647   5.379
30205SOL     OW92511   9.567   7.320  14.551
30205SOL    HW192512   9.641   7.341  14.608
30205SOL    HW292513   9.603   7.257  14.488
30206SOL     OW92514  13.966  13.310   8.486
30206SOL    HW192515  13.907  13.276   8.553
30206SOL    HW292516  13.908  13.349   8.421
30207SOL     OW92517   7.078   6.782  12.468
30207SOL    HW192518   7.012   6.713  12.470
30207SOL    HW292519   7.087   6.805  12.375
30208SOL     OW92520  12.584  10.849   0.210
30208SOL    HW192521  12.667  10.839   0.164
30208SOL    HW292522  12.605  10.906   0.284
30209SOL     OW92523   5.929   6.131   5.536
30209SOL    HW192524   5.845   6.106   5.574
30209SOL    HW292525   5.923   6.104   5.444
30210SOL     OW92526   6.576  14.072   4.720
30210SOL    HW192527   6.590  14.143   4.657
30210SOL    HW292528   6.618  14.103   4.800
30211SOL     OW92529   2.017  13.429   6.214
30211SOL    HW192530   2.057  13.470   6.138
30211SOL    HW292531   2.087  13.376   6.252
30212SOL     OW92532  10.482   8.187   9.171
30212SOL    HW192533  10.446   8.276   9.164
30212SOL    HW292534  10.406   8.131   9.182
30213SOL     OW92535  13.063   1.844   9.671
30213SOL    HW192536  13.033   1.918   9.618
30213SOL    HW292537  13.029   1.767   9.625
30214SOL     OW92538  13.922   4.554   4.369
30214SOL    HW192539  13.939   4.590   4.456
30214SOL    HW292540  13.867   4.619   4.326
30215SOL     OW92541   1.673   6.869  14.091
30215SOL    HW192542   1.681   6.927  14.016
30215SOL    HW292543   1.717   6.789  14.064
30216SOL     OW92544   9.292   4.860   1.241
30216SOL    HW192545   9.209   4.820   1.214
30216SOL    HW292546   9.281   4.878   1.334
30217SOL     OW92547   1.750   8.872   2.185
30217SOL    HW192548   1.831   8.882   2.135
30217SOL    HW292549   1.689   8.828   2.124
30218SOL     OW92550   2.864  11.391   8.245
30218SOL    HW192551   2.816  11.323   8.199
30218SOL    HW292552   2.854  11.369   8.338
30219SOL     OW92553  12.441   4.640  11.253
30219SOL    HW192554  12.484   4.561  11.286
30219SOL    HW292555  12.437   4.627  11.158
30220SOL     OW92556   3.699   0.039   1.697
30220SOL    HW192557   3.632   0.079   1.751
30220SOL    HW292558   3.758  14.876   1.759
30221SOL     OW92559   9.110   4.756   5.868
30221SOL    HW192560   9.020   4.767   5.898
30221SOL    HW292561   9.135   4.669   5.901
30222SOL     OW92562   0.163  10.814  10.521
30222SOL    HW192563   0.141  10.777  10.435
30222SOL    HW292564   0.126  10.752  10.584
30223SOL     OW92565   8.386   1.528   7.059
30223SOL    HW192566   8.399   1.488   6.973
30223SOL    HW292567   8.455   1.492   7.114
30224SOL     OW92568  10.217  10.310  11.069
30224SOL    HW192569  10.131  10.281  11.100
30224SOL    HW292570  10.266  10.328  11.150
30225SOL     OW92571   3.313   5.135   1.921
30225SOL    HW192572   3.291   5.176   2.004
30225SOL    HW292573   3.273   5.049   1.925
30226SOL     OW92574  14.606  12.926  11.674
30226SOL    HW192575  14.602  12.963  11.586
30226SOL    HW292576  14.620  13.002  11.731
30227SOL     OW92577   5.078  12.872   9.026
30227SOL    HW192578   5.059  12.791   8.979
30227SOL    HW292579   5.016  12.935   8.990
30228SOL     OW92580  12.239   5.859  13.581
30228SOL    HW192581  12.204   5.922  13.518
30228SOL    HW292582  12.284   5.913  13.647
30229SOL     OW92583   8.676   9.626   6.281
30229SOL    HW192584   8.723   9.560   6.333
30229SOL    HW292585   8.706   9.611   6.191
30230SOL     OW92586  10.432   5.629  13.806
30230SOL    HW192587  10.377   5.581  13.745
30230SOL    HW292588  10.517   5.635  13.762
30231SOL     OW92589   3.456   4.876   2.180
30231SOL    HW192590   3.435   4.857   2.271
30231SOL    HW292591   3.462   4.972   2.177
30232SOL     OW92592   5.078   3.184   9.437
30232SOL    HW192593   5.137   3.137   9.378
30232SOL    HW292594   5.128   3.261   9.465
30233SOL     OW92595  12.112   8.357   8.915
30233SOL    HW192596  12.174   8.293   8.880
30233SOL    HW292597  12.151   8.442   8.895
30234SOL     OW92598   1.435   0.892  11.343
30234SOL    HW192599   1.493   0.927  11.276
30234SOL    HW292600   1.351   0.935  11.328
30235SOL     OW92601   2.530   1.357   0.520
30235SOL    HW192602   2.439   1.328   0.515
30235SOL    HW292603   2.552   1.351   0.613
30236SOL     OW92604   6.150   1.203  12.535
30236SOL    HW192605   6.173   1.275  12.476
30236SOL    HW292606   6.233   1.157  12.551
30237SOL     OW92607  14.793   7.070  10.156
30237SOL    HW192608  14.717   7.073  10.098
30237SOL    HW292609  14.846   6.998  10.123
30238SOL     OW92610   4.747   5.193   5.424
30238SOL    HW192611   4.755   5.241   5.507
30238SOL    HW292612   4.832   5.205   5.381
30239SOL     OW92613  10.678  13.709   3.130
30239SOL    HW192614  10.639  13.719   3.043
30239SOL    HW292615  10.772  13.708   3.115
30240SOL     OW92616  12.377  11.002   8.500
30240SOL    HW192617  12.285  11.004   8.474
30240SOL    HW292618  12.423  11.053   8.434
30241SOL     OW92619   7.980   3.344   7.913
30241SOL    HW192620   7.987   3.398   7.992
30241SOL    HW292621   8.024   3.262   7.936
30242SOL     OW92622  12.654   8.775   2.579
30242SOL    HW192623  12.651   8.694   2.527
30242SOL    HW292624  12.730   8.822   2.545
30243SOL     OW92625   5.770   2.309   7.315
30243SOL    HW192626   5.851   2.314   7.366
30243SOL    HW292627   5.702   2.331   7.378
30244SOL     OW92628   9.747   2.407   8.326
30244SOL    HW192629   9.748   2.335   8.262
30244SOL    HW292630   9.672   2.387   8.383
30245SOL     OW92631  12.740   7.835   2.446
30245SOL    HW192632  12.710   7.919   2.481
30245SOL    HW292633  12.725   7.772   2.517
30246SOL     OW92634  13.944   2.396   5.784
30246SOL    HW192635  14.018   2.371   5.839
30246SOL    HW292636  13.969   2.482   5.749
30247SOL     OW92637   8.166   4.123   0.096
30247SOL    HW192638   8.106   4.134   0.169
30247SOL    HW292639   8.248   4.162   0.126
30248SOL     OW92640  11.316  13.561   3.643
30248SOL    HW192641  11.302  13.655   3.629
30248SOL    HW292642  11.333  13.526   3.556
30249SOL     OW92643   2.790  13.895   3.783
30249SOL    HW192644   2.755  13.869   3.868
30249SOL    HW292645   2.845  13.822   3.756
30250SOL     OW92646   5.626   8.432   4.863
30250SOL    HW192647   5.659   8.358   4.811
30250SOL    HW292648   5.625   8.399   4.953
30251SOL     OW92649   4.319   0.267   1.134
30251SOL    HW192650   4.243   0.218   1.164
30251SOL    HW292651   4.291   0.311   1.054
30252SOL     OW92652  12.619   6.108  10.283
30252SOL    HW192653  12.556   6.037  10.299
30252SOL    HW292654  12.574   6.187  10.312
30253SOL     OW92655  12.873   3.855   3.066
30253SOL    HW192656  12.783   3.836   3.040
30253SOL    HW292657  12.917   3.880   2.984
30254SOL     OW92658  13.945   6.539   4.050
30254SOL    HW192659  13.912   6.628   4.037
30254SOL    HW292660  14.007   6.546   4.123
30255SOL     OW92661   6.282   5.971   4.275
30255SOL    HW192662   6.257   5.896   4.328
30255SOL    HW292663   6.377   5.977   4.286
30256SOL     OW92664   0.133  12.362  11.323
30256SOL    HW192665   0.173  12.290  11.274
30256SOL    HW292666   0.182  12.440  11.296
30257SOL     OW92667  13.099   8.808   1.864
30257SOL    HW192668  13.183   8.804   1.909
30257SOL    HW292669  13.057   8.887   1.897
30258SOL     OW92670   7.404   6.935   8.885
30258SOL    HW192671   7.396   6.840   8.873
30258SOL    HW292672   7.476   6.961   8.827
30259SOL     OW92673   4.889   2.367  11.827
30259SOL    HW192674   4.951   2.356  11.755
30259SOL    HW292675   4.936   2.421  11.890
30260SOL     OW92676   9.559   0.233  14.188
30260SOL    HW192677   9.494   0.286  14.234
30260SOL    HW292678   9.511   0.154  14.162
30261SOL     OW92679   7.981  11.560   2.050
30261SOL    HW192680   7.928  11.637   2.071
30261SOL    HW292681   7.926  11.486   2.077
30262SOL     OW92682  11.842  10.749  14.742
30262SOL    HW192683  11.912  10.762  14.677
30262SOL    HW292684  11.771  10.804  14.712
30263SOL     OW92685   0.508   4.485   7.566
30263SOL    HW192686   0.599   4.505   7.591
30263SOL    HW292687   0.514   4.406   7.513
30264SOL     OW92688   1.761   0.489   2.469
30264SOL    HW192689   1.830   0.550   2.496
30264SOL    HW292690   1.706   0.541   2.410
30265SOL     OW92691   2.623   7.190   5.189
30265SOL    HW192692   2.678   7.192   5.111
30265SOL    HW292693   2.680   7.217   5.260
30266SOL     OW92694   9.315  13.779   0.932
30266SOL    HW192695   9.374  13.804   1.003
30266SOL    HW292696   9.370  13.782   0.853
30267SOL     OW92697  12.896   5.635   9.222
30267SOL    HW192698  12.921   5.668   9.136
30267SOL    HW292699  12.800   5.631   9.220
30268SOL     OW92700  13.240  12.733   0.515
30268SOL    HW192701  13.157  12.780   0.504
30268SOL    HW292702  13.258  12.696   0.428
30269SOL     OW92703  13.174   8.010  12.642
30269SOL    HW192704  13.093   8.030  12.689
30269SOL    HW292705  13.235   7.981  12.709
30270SOL     OW92706  10.275   6.533  13.107
30270SOL    HW192707  10.191   6.576  13.092
30270SOL    HW292708  10.338   6.583  13.056
30271SOL     OW92709   9.237  12.537   2.624
30271SOL    HW192710   9.236  12.577   2.537
30271SOL    HW292711   9.270  12.448   2.610
30272SOL     OW92712   6.441   2.232   3.151
30272SOL    HW192713   6.451   2.323   3.180
30272SOL    HW292714   6.527   2.210   3.114
30273SOL     OW92715   0.974   8.923   3.080
30273SOL    HW192716   0.888   8.883   3.067
30273SOL    HW292717   1.025   8.854   3.122
30274SOL     OW92718  13.795   9.171  10.016
30274SOL    HW192719  13.705   9.179  10.049
30274SOL    HW292720  13.795   9.223   9.936
30275SOL     OW92721   6.939   8.524  10.948
30275SOL    HW192722   6.865   8.574  10.982
30275SOL    HW292723   6.905   8.483  10.868
30276SOL     OW92724  14.775   2.393  10.742
30276SOL    HW192725  14.705   2.455  10.725
30276SOL    HW292726  14.783   2.392  10.837
30277SOL     OW92727   4.989   3.598   4.395
30277SOL    HW192728   5.052   3.551   4.449
30277SOL    HW292729   4.975   3.681   4.440
30278SOL     OW92730   3.368  10.761   9.184
30278SOL    HW192731   3.390  10.760   9.091
30278SOL    HW292732   3.290  10.705   9.191
30279SOL     OW92733   6.086  11.980  13.616
30279SOL    HW192734   6.002  11.992  13.571
30279SOL    HW292735   6.124  12.067  13.619
30280SOL     OW92736   8.156  12.482   5.700
30280SOL    HW192737   8.191  12.498   5.788
30280SOL    HW292738   8.103  12.403   5.709
30281SOL     OW92739   5.443   4.567   6.195
30281SOL    HW192740   5.479   4.516   6.268
30281SOL    HW292741   5.412   4.648   6.236
30282SOL     OW92742   2.855  14.615   8.614
30282SOL    HW192743   2.931  14.558   8.603
30282SOL    HW292744   2.872  14.664   8.695
30283SOL     OW92745   3.463   3.888   5.770
30283SOL    HW192746   3.421   3.974   5.772
30283SOL    HW292747   3.487   3.871   5.861
30284SOL     OW92748   1.127   6.239   7.612
30284SOL    HW192749   1.108   6.330   7.631
30284SOL    HW292750   1.198   6.216   7.672
30285SOL     OW92751   3.005   4.552   0.619
30285SOL    HW192752   2.969   4.506   0.544
30285SOL    HW292753   2.997   4.491   0.692
30286SOL     OW92754  10.911   6.443   9.889
30286SOL    HW192755  10.967   6.515   9.860
30286SOL    HW292756  10.970   6.381   9.930
30287SOL     OW92757   4.746  12.280  13.992
30287SOL    HW192758   4.821  12.332  13.964
30287SOL    HW292759   4.784  12.196  14.018
30288SOL     OW92760   7.789  13.146   2.743
30288SOL    HW192761   7.705  13.142   2.789
30288SOL    HW292762   7.776  13.095   2.663
30289SOL     OW92763  12.124   3.159   6.412
30289SOL    HW192764  12.125   3.066   6.391
30289SOL    HW292765  12.144   3.162   6.506
30290SOL     OW92766   9.815   8.467   7.286
30290SOL    HW192767   9.898   8.430   7.317
30290SOL    HW292768   9.827   8.479   7.192
30291SOL     OW92769   5.038  11.787   8.048
30291SOL    HW192770   4.956  11.836   8.045
30291SOL    HW292771   5.051  11.755   7.959
30292SOL     OW92772  12.362   2.875   9.330
30292SOL    HW192773  12.415   2.815   9.277
30292SOL    HW292774  12.299   2.818   9.374
30293SOL     OW92775  14.819  10.103   8.261
30293SOL    HW192776   0.034  10.108   8.269
30293SOL    HW292777  14.788  10.189   8.289
30294SOL     OW92778   7.734   8.411   4.823
30294SOL    HW192779   7.751   8.321   4.794
30294SOL    HW292780   7.779   8.466   4.759
30295SOL     OW92781   1.023   2.400   4.507
30295SOL    HW192782   1.102   2.454   4.508
30295SOL    HW292783   0.975   2.426   4.585
30296SOL     OW92784  13.977  14.169   3.960
30296SOL    HW192785  13.935  14.228   3.898
30296SOL    HW292786  14.015  14.227   4.026
30297SOL     OW92787   0.195   6.568   7.220
30297SOL    HW192788   0.223   6.528   7.138
30297SOL    HW292789   0.124   6.512   7.252
30298SOL     OW92790   1.660   1.383   1.435
30298SOL    HW192791   1.611   1.375   1.517
30298SOL    HW292792   1.750   1.402   1.462
30299SOL     OW92793   9.539   9.106   7.814
30299SOL    HW192794   9.622   9.085   7.857
30299SOL    HW292795   9.558   9.095   7.720
30300SOL     OW92796   3.098   9.204   4.670
30300SOL    HW192797   3.153   9.282   4.673
30300SOL    HW292798   3.140   9.148   4.605
30301SOL     OW92799   0.651  11.291   7.929
30301SOL    HW192800   0.660  11.369   7.874
30301SOL    HW292801   0.729  11.291   7.984
30302SOL     OW92802  14.818  11.515   2.164
30302SOL    HW192803  14.835  11.560   2.081
30302SOL    HW292804  14.855  11.427   2.151
30303SOL     OW92805   4.099  12.147   0.777
30303SOL    HW192806   4.161  12.103   0.719
30303SOL    HW292807   4.069  12.079   0.837
30304SOL     OW92808   2.590   3.860   8.654
30304SOL    HW192809   2.658   3.925   8.633
30304SOL    HW292810   2.565   3.823   8.569
30305SOL     OW92811   3.884   0.441   5.977
30305SOL    HW192812   3.873   0.518   6.034
30305SOL    HW292813   3.961   0.397   6.013
30306SOL     OW92814  10.871   0.157   3.312
30306SOL    HW192815  10.877   0.251   3.323
30306SOL    HW292816  10.924   0.139   3.234
30307SOL     OW92817   9.182   7.009   0.927
30307SOL    HW192818   9.197   7.080   0.990
30307SOL    HW292819   9.135   6.942   0.977
30308SOL     OW92820  14.581   8.221  10.375
30308SOL    HW192821  14.660   8.266  10.345
30308SOL    HW292822  14.509   8.265  10.329
30309SOL     OW92823   0.417  12.649   1.495
30309SOL    HW192824   0.342  12.657   1.437
30309SOL    HW292825   0.406  12.564   1.538
30310SOL     OW92826   4.881   4.157   5.371
30310SOL    HW192827   4.974   4.176   5.384
30310SOL    HW292828   4.858   4.101   5.445
30311SOL     OW92829   1.977  13.280   2.010
30311SOL    HW192830   2.032  13.357   2.001
30311SOL    HW292831   2.035  13.212   2.045
30312SOL     OW92832   7.691   8.108  10.485
30312SOL    HW192833   7.724   8.182  10.536
30312SOL    HW292834   7.663   8.146  10.402
30313SOL     OW92835   9.314   5.010   1.663
30313SOL    HW192836   9.325   5.020   1.758
30313SOL    HW292837   9.293   5.098   1.632
30314SOL     OW92838  10.774   5.171   7.400
30314SOL    HW192839  10.725   5.090   7.389
30314SOL    HW292840  10.864   5.148   7.376
30315SOL     OW92841   2.798   1.991   5.710
30315SOL    HW192842   2.797   1.955   5.621
30315SOL    HW292843   2.809   1.915   5.767
30316SOL     OW92844   3.870   2.889  11.353
30316SOL    HW192845   3.922   2.809  11.352
30316SOL    HW292846   3.877   2.922  11.443
30317SOL     OW92847   2.218   4.615   4.967
30317SOL    HW192848   2.227   4.679   4.897
30317SOL    HW292849   2.135   4.635   5.009
30318SOL     OW92850  14.824   9.403   3.772
30318SOL    HW192851   0.031   9.364   3.774
30318SOL    HW292852  14.834   9.488   3.815
30319SOL     OW92853   6.280   6.074   2.465
30319SOL    HW192854   6.236   6.008   2.518
30319SOL    HW292855   6.365   6.086   2.508
30320SOL     OW92856   5.477   7.034   0.930
30320SOL    HW192857   5.422   7.087   0.988
30320SOL    HW292858   5.415   6.990   0.872
30321SOL     OW92859   3.345   8.821  10.569
30321SOL    HW192860   3.307   8.786  10.649
30321SOL    HW292861   3.440   8.808  10.580
30322SOL     OW92862   0.262   8.670   0.935
30322SOL    HW192863   0.267   8.612   0.859
30322SOL    HW292864   0.174   8.657   0.969
30323SOL     OW92865  11.467   6.694   6.639
30323SOL    HW192866  11.371   6.687   6.640
30323SOL    HW292867  11.497   6.604   6.651
30324SOL     OW92868  14.556   8.518  11.384
30324SOL    HW192869  14.526   8.526  11.474
30324SOL    HW292870  14.627   8.454  11.388
30325SOL     OW92871   2.386   5.193   6.898
30325SOL    HW192872   2.310   5.187   6.957
30325SOL    HW292873   2.419   5.281   6.911
30326SOL     OW92874   2.558  11.461   1.702
30326SOL    HW192875   2.504  11.453   1.623
30326SOL    HW292876   2.633  11.514   1.675
30327SOL     OW92877   4.330   8.403   6.965
30327SOL    HW192878   4.265   8.334   6.976
30327SOL    HW292879   4.281   8.485   6.970
30328SOL     OW92880   4.810   4.787   6.071
30328SOL    HW192881   4.812   4.754   6.161
30328SOL    HW292882   4.772   4.716   6.020
30329SOL     OW92883  13.037   6.240   7.199
30329SOL    HW192884  12.986   6.295   7.259
30329SOL    HW292885  13.128   6.265   7.217
30330SOL     OW92886   0.675   0.564   1.101
30330SOL    HW192887   0.671   0.469   1.105
30330SOL    HW292888   0.748   0.583   1.042
30331SOL     OW92889  12.036   3.764  11.186
30331SOL    HW192890  12.005   3.760  11.276
30331SOL    HW292891  12.012   3.852  11.156
30332SOL     OW92892   6.720   0.586   6.364
30332SOL    HW192893   6.721   0.669   6.412
30332SOL    HW292894   6.644   0.539   6.399
30333SOL     OW92895   5.930   7.956   8.913
30333SOL    HW192896   5.840   7.985   8.929
30333SOL    HW292897   5.924   7.898   8.837
30334SOL     OW92898   7.117   3.369   1.945
30334SOL    HW192899   7.031   3.327   1.946
30334SOL    HW292900   7.165   3.328   2.017
30335SOL     OW92901   9.926  14.338  14.299
30335SOL    HW192902   9.835  14.327  14.326
30335SOL    HW292903   9.967  14.385  14.372
30336SOL     OW92904   1.173  13.761   0.639
30336SOL    HW192905   1.138  13.705   0.570
30336SOL    HW292906   1.101  13.770   0.702
30337SOL     OW92907  12.334   8.466   7.951
30337SOL    HW192908  12.422   8.437   7.926
30337SOL    HW292909  12.315   8.419   8.032
30338SOL     OW92910   0.167   7.008   2.706
30338SOL    HW192911   0.104   7.004   2.634
30338SOL    HW292912   0.113   6.999   2.785
30339SOL     OW92913  12.907   7.667   3.065
30339SOL    HW192914  12.898   7.574   3.043
30339SOL    HW292915  12.971   7.668   3.137
30340SOL     OW92916  11.946   5.188  13.321
30340SOL    HW192917  11.940   5.282  13.308
30340SOL    HW292918  11.891   5.151  13.252
30341SOL     OW92919   6.449  14.275   8.422
30341SOL    HW192920   6.359  14.242   8.429
30341SOL    HW292921   6.450  14.325   8.341
30342SOL     OW92922   5.516   7.309   6.040
30342SOL    HW192923   5.422   7.292   6.038
30342SOL    HW292924   5.557   7.223   6.033
30343SOL     OW92925   0.782   5.015  13.710
30343SOL    HW192926   0.728   4.967  13.647
30343SOL    HW292927   0.844   5.064  13.656
30344SOL     OW92928  12.557   4.223   1.228
30344SOL    HW192929  12.564   4.316   1.247
30344SOL    HW292930  12.473   4.196   1.266
30345SOL     OW92931   8.943   8.136   2.597
30345SOL    HW192932   8.962   8.225   2.624
30345SOL    HW292933   9.024   8.087   2.615
30346SOL     OW92934  14.213   4.509   3.107
30346SOL    HW192935  14.129   4.535   3.144
30346SOL    HW292936  14.241   4.435   3.161
30347SOL     OW92937   7.469   3.723  12.539
30347SOL    HW192938   7.450   3.632  12.515
30347SOL    HW292939   7.535   3.751  12.475
30348SOL     OW92940   3.963   3.227   2.725
30348SOL    HW192941   3.877   3.248   2.689
30348SOL    HW292942   3.983   3.300   2.784
30349SOL     OW92943  10.122  12.008  12.579
30349SOL    HW192944  10.065  12.029  12.652
30349SOL    HW292945  10.065  12.011  12.502
30350SOL     OW92946  14.687   1.339   5.783
30350SOL    HW192947  14.660   1.395   5.856
30350SOL    HW292948  14.665   1.389   5.704
30351SOL     OW92949   7.802   3.380   9.675
30351SOL    HW192950   7.721   3.330   9.662
30351SOL    HW292951   7.785   3.465   9.635
30352SOL     OW92952   8.982   3.339   1.881
30352SOL    HW192953   8.971   3.418   1.828
30352SOL    HW292954   8.915   3.279   1.849
30353SOL     OW92955   9.449   2.323  10.264
30353SOL    HW192956   9.401   2.400  10.232
30353SOL    HW292957   9.404   2.249  10.222
30354SOL     OW92958   8.049   1.575   9.910
30354SOL    HW192959   8.110   1.520   9.862
30354SOL    HW292960   8.088   1.585   9.997
30355SOL     OW92961   1.239  13.885  11.476
30355SOL    HW192962   1.265  13.807  11.525
30355SOL    HW292963   1.191  13.939  11.540
30356SOL     OW92964   9.235   3.299   0.493
30356SOL    HW192965   9.254   3.390   0.516
30356SOL    HW292966   9.140   3.292   0.500
30357SOL     OW92967   9.304   2.433   8.357
30357SOL    HW192968   9.250   2.367   8.399
30357SOL    HW292969   9.393   2.397   8.360
30358SOL     OW92970  12.051   9.283  10.589
30358SOL    HW192971  12.019   9.268  10.500
30358SOL    HW292972  12.145   9.267  10.584
30359SOL     OW92973  14.445  13.537  13.479
30359SOL    HW192974  14.498  13.484  13.419
30359SOL    HW292975  14.359  13.494  13.479
30360SOL     OW92976   6.733   9.253   0.601
30360SOL    HW192977   6.722   9.307   0.680
30360SOL    HW292978   6.820   9.216   0.610
30361SOL     OW92979  14.234   8.678   4.650
30361SOL    HW192980  14.251   8.736   4.576
30361SOL    HW292981  14.253   8.591   4.617
30362SOL     OW92982   7.521  11.495  14.679
30362SOL    HW192983   7.482  11.486  14.593
30362SOL    HW292984   7.532  11.589  14.691
30363SOL     OW92985   8.646  11.665   2.115
30363SOL    HW192986   8.595  11.678   2.195
30363SOL    HW292987   8.737  11.656   2.145
30364SOL     OW92988   9.382   7.748  11.778
30364SOL    HW192989   9.291   7.743  11.751
30364SOL    HW292990   9.378   7.756  11.873
30365SOL     OW92991  13.046   0.730  12.079
30365SOL    HW192992  13.100   0.651  12.075
30365SOL    HW292993  12.998   0.730  11.996
30366SOL     OW92994   0.705  12.417   1.741
30366SOL    HW192995   0.609  12.410   1.749
30366SOL    HW292996   0.720  12.434   1.649
30367SOL     OW92997  12.881  12.390   5.217
30367SOL    HW192998  12.883  12.481   5.246
30367SOL    HW292999  12.956  12.381   5.159
30368SOL     OW93000   9.289   9.946   2.868
30368SOL    HW193001   9.319   9.870   2.917
30368SOL    HW293002   9.202   9.922   2.837
30369SOL     OW93003  10.584  11.157   6.508
30369SOL    HW193004  10.679  11.149   6.517
30369SOL    HW293005  10.560  11.090   6.444
30370SOL     OW93006   5.605   5.125  10.260
30370SOL    HW193007   5.571   5.214  10.248
30370SOL    HW293008   5.528   5.069  10.256
30371SOL     OW93009  12.081   8.388   6.241
30371SOL    HW193010  12.103   8.389   6.148
30371SOL    HW293011  12.036   8.304   6.255
30372SOL     OW93012   2.102  12.420  13.013
30372SOL    HW193013   2.042  12.468  13.070
30372SOL    HW293014   2.166  12.381  13.073
30373SOL     OW93015   3.093   9.989   2.414
30373SOL    HW193016   3.146   9.990   2.494
30373SOL    HW293017   3.137  10.051   2.356
30374SOL     OW93018   9.480   9.963   5.650
30374SOL    HW193019   9.569   9.995   5.641
30374SOL    HW293020   9.445   9.963   5.561
30375SOL     OW93021   1.375   8.982   1.953
30375SOL    HW193022   1.430   9.002   2.029
30375SOL    HW293023   1.380   9.061   1.899
30376SOL     OW93024  10.691   4.550  11.938
30376SOL    HW193025  10.741   4.577  11.861
30376SOL    HW293026  10.757   4.538  12.007
30377SOL     OW93027   9.844   9.862   3.574
30377SOL    HW193028   9.892   9.800   3.628
30377SOL    HW293029   9.890   9.861   3.490
30378SOL     OW93030  12.011   1.256   0.498
30378SOL    HW193031  12.068   1.190   0.537
30378SOL    HW293032  11.943   1.205   0.454
30379SOL     OW93033   5.548  12.261   0.020
30379SOL    HW193034   5.553  12.180  14.848
30379SOL    HW293035   5.479  12.312  14.857
30380SOL     OW93036  13.814  10.702   7.797
30380SOL    HW193037  13.731  10.681   7.754
30380SOL    HW293038  13.881  10.679   7.732
30381SOL     OW93039   3.199   8.646   2.998
30381SOL    HW193040   3.176   8.700   2.923
30381SOL    HW293041   3.119   8.597   3.018
30382SOL     OW93042  13.873   5.578   8.805
30382SOL    HW193043  13.811   5.538   8.866
30382SOL    HW293044  13.926   5.636   8.860
30383SOL     OW93045   4.236  11.686  11.324
30383SOL    HW193046   4.297  11.616  11.349
30383SOL    HW293047   4.185  11.647  11.253
30384SOL     OW93048   7.290   6.605   9.872
30384SOL    HW193049   7.374   6.582   9.832
30384SOL    HW293050   7.229   6.610   9.799
30385SOL     OW93051   7.942  14.522   9.325
30385SOL    HW193052   7.903  14.565   9.249
30385SOL    HW293053   8.036  14.534   9.314
30386SOL     OW93054  13.384   0.689  12.617
30386SOL    HW193055  13.457   0.635  12.586
30386SOL    HW293056  13.330   0.628  12.668
30387SOL     OW93057   9.233  11.230  14.463
30387SOL    HW193058   9.149  11.255  14.500
30387SOL    HW293059   9.298  11.276  14.517
30388SOL     OW93060   4.195  13.723   8.817
30388SOL    HW193061   4.190  13.644   8.763
30388SOL    HW293062   4.288  13.730   8.839
30389SOL     OW93063  14.063   1.088  11.725
30389SOL    HW193064  13.987   1.075  11.782
30389SOL    HW293065  14.134   1.040  11.768
30390SOL     OW93066   2.481   7.692  11.422
30390SOL    HW193067   2.460   7.764  11.364
30390SOL    HW293068   2.498   7.618  11.364
30391SOL     OW93069  13.587   2.276  10.286
30391SOL    HW193070  13.560   2.252  10.375
30391SOL    HW293071  13.631   2.360  10.295
30392SOL     OW93072  12.282   3.037   8.049
30392SOL    HW193073  12.363   3.086   8.059
30392SOL    HW293074  12.212   3.101   8.062
30393SOL     OW93075   1.330   2.343   3.776
30393SOL    HW193076   1.350   2.253   3.803
30393SOL    HW293077   1.409   2.393   3.798
30394SOL     OW93078   4.653   2.190   8.719
30394SOL    HW193079   4.697   2.239   8.788
30394SOL    HW293080   4.700   2.107   8.714
30395SOL     OW93081   9.874   5.498  11.707
30395SOL    HW193082   9.892   5.501  11.801
30395SOL    HW293083   9.811   5.568  11.693
30396SOL     OW93084   7.944   9.370   4.776
30396SOL    HW193085   7.910   9.281   4.785
30396SOL    HW293086   7.957   9.381   4.681
30397SOL     OW93087   3.252   1.689  12.050
30397SOL    HW193088   3.284   1.625  11.987
30397SOL    HW293089   3.157   1.679  12.047
30398SOL     OW93090   2.071   8.635   3.955
30398SOL    HW193091   2.092   8.544   3.976
30398SOL    HW293092   2.099   8.684   4.033
30399SOL     OW93093   0.602   7.306   4.994
30399SOL    HW193094   0.516   7.329   4.957
30399SOL    HW293095   0.663   7.321   4.922
30400SOL     OW93096   2.372   4.024   0.133
30400SOL    HW193097   2.279   4.002   0.133
30400SOL    HW293098   2.407   3.981   0.210
30401SOL     OW93099   1.347  12.255   3.732
30401SOL    HW193100   1.276  12.291   3.787
30401SOL    HW293101   1.333  12.296   3.646
30402SOL     OW93102   3.058  10.751   6.590
30402SOL    HW193103   3.055  10.840   6.557
30402SOL    HW293104   3.036  10.759   6.683
30403SOL     OW93105  10.408   2.324  11.443
30403SOL    HW193106  10.325   2.296  11.402
30403SOL    HW293107  10.406   2.420  11.436
30404SOL     OW93108  14.880   9.644   3.074
30404SOL    HW193109  14.799   9.667   3.118
30404SOL    HW293110  14.863   9.557   3.038
30405SOL     OW93111   3.936  12.010  11.467
30405SOL    HW193112   3.998  11.941  11.491
30405SOL    HW293113   3.986  12.091  11.473
30406SOL     OW93114   4.871   3.390   2.959
30406SOL    HW193115   4.936   3.323   2.982
30406SOL    HW293116   4.787   3.344   2.958
30407SOL     OW93117   3.584  14.495  11.874
30407SOL    HW193118   3.657  14.434  11.868
30407SOL    HW293119   3.507  14.444  11.849
30408SOL     OW93120  14.463  14.273   2.643
30408SOL    HW193121  14.459  14.361   2.681
30408SOL    HW293122  14.530  14.279   2.575
30409SOL     OW93123   2.151  11.748   8.484
30409SOL    HW193124   2.184  11.723   8.570
30409SOL    HW293125   2.058  11.764   8.498
30410SOL     OW93126   1.991   7.434   1.874
30410SOL    HW193127   2.001   7.527   1.893
30410SOL    HW293128   1.898   7.417   1.889
30411SOL     OW93129   5.622   6.442   2.123
30411SOL    HW193130   5.579   6.505   2.064
30411SOL    HW293131   5.714   6.468   2.123
30412SOL     OW93132   8.393   8.581   9.050
30412SOL    HW193133   8.449   8.551   9.121
30412SOL    HW293134   8.417   8.673   9.038
30413SOL     OW93135   8.383   5.817   5.080
30413SOL    HW193136   8.363   5.763   5.003
30413SOL    HW293137   8.298   5.847   5.111
30414SOL     OW93138   0.681   9.065   1.742
30414SOL    HW193139   0.727   9.121   1.805
30414SOL    HW293140   0.749   9.008   1.707
30415SOL     OW93141   3.301   2.522   5.560
30415SOL    HW193142   3.263   2.583   5.623
30415SOL    HW293143   3.236   2.517   5.489
30416SOL     OW93144   6.079  10.493   2.679
30416SOL    HW193145   6.043  10.404   2.679
30416SOL    HW293146   6.046  10.532   2.760
30417SOL     OW93147  12.283   1.936   7.074
30417SOL    HW193148  12.214   1.906   7.133
30417SOL    HW293149  12.354   1.964   7.132
30418SOL     OW93150   2.402  12.889   3.271
30418SOL    HW193151   2.376  12.856   3.357
30418SOL    HW293152   2.387  12.815   3.212
30419SOL     OW93153   4.491  10.257  12.828
30419SOL    HW193154   4.565  10.200  12.850
30419SOL    HW293155   4.430  10.245  12.901
30420SOL     OW93156   0.597   6.696   2.295
30420SOL    HW193157   0.630   6.774   2.341
30420SOL    HW293158   0.514   6.677   2.337
30421SOL     OW93159   6.040  13.536   4.841
30421SOL    HW193160   5.968  13.511   4.783
30421SOL    HW293161   6.111  13.477   4.817
30422SOL     OW93162   3.038   6.769  13.824
30422SOL    HW193163   3.095   6.718  13.882
30422SOL    HW293164   3.097   6.807  13.759
30423SOL     OW93165   4.009  10.525   6.664
30423SOL    HW193166   4.068  10.601   6.668
30423SOL    HW293167   4.036  10.479   6.584
30424SOL     OW93168   3.448   5.125   3.021
30424SOL    HW193169   3.451   5.197   3.084
30424SOL    HW293170   3.497   5.157   2.945
30425SOL     OW93171   2.984  13.778  10.667
30425SOL    HW193172   2.949  13.867  10.675
30425SOL    HW293173   3.031  13.765  10.750
30426SOL     OW93174   3.747  11.390   9.108
30426SOL    HW193175   3.811  11.455   9.136
30426SOL    HW293176   3.792  11.341   9.039
30427SOL     OW93177   4.601   5.684   6.639
30427SOL    HW193178   4.686   5.714   6.673
30427SOL    HW293179   4.540   5.756   6.660
30428SOL     OW93180  12.955   1.234  13.597
30428SOL    HW193181  12.923   1.287  13.524
30428SOL    HW293182  12.886   1.242  13.664
30429SOL     OW93183   0.072  12.148  14.401
30429SOL    HW193184   0.120  12.095  14.337
30429SOL    HW293185   0.081  12.238  14.368
30430SOL     OW93186   5.433   6.553   9.440
30430SOL    HW193187   5.345   6.577   9.469
30430SOL    HW293188   5.487   6.628   9.463
30431SOL     OW93189  10.843   7.486   4.545
30431SOL    HW193190  10.786   7.528   4.610
30431SOL    HW293191  10.931   7.501   4.579
30432SOL     OW93192   6.969  13.419   5.090
30432SOL    HW193193   7.062  13.440   5.081
30432SOL    HW293194   6.928  13.460   5.014
30433SOL     OW93195   4.920   9.043   7.853
30433SOL    HW193196   4.882   8.985   7.919
30433SOL    HW293197   4.912   8.994   7.771
30434SOL     OW93198   6.038  14.571   1.765
30434SOL    HW193199   6.106  14.517   1.808
30434SOL    HW293200   6.087  14.629   1.707
30435SOL     OW93201   6.630  10.604   3.144
30435SOL    HW193202   6.617  10.598   3.049
30435SOL    HW293203   6.599  10.520   3.178
30436SOL     OW93204   5.906   5.584  14.875
30436SOL    HW193205   5.973   5.521  14.853
30436SOL    HW293206   5.855   5.542   0.064
30437SOL     OW93207  12.018   3.195   1.996
30437SOL    HW193208  12.082   3.163   2.059
30437SOL    HW293209  12.003   3.122   1.937
30438SOL     OW93210   5.135  14.454   4.444
30438SOL    HW193211   5.194  14.402   4.498
30438SOL    HW293212   5.192  14.491   4.376
30439SOL     OW93213   4.399   8.015   2.953
30439SOL    HW193214   4.469   7.996   3.016
30439SOL    HW293215   4.333   7.949   2.969
30440SOL     OW93216  13.570   7.077   6.431
30440SOL    HW193217  13.532   7.163   6.414
30440SOL    HW293218  13.596   7.081   6.523
30441SOL     OW93219  14.618  10.549   4.421
30441SOL    HW193220  14.699  10.499   4.412
30441SOL    HW293221  14.616  10.605   4.343
30442SOL     OW93222   1.433  12.971  10.589
30442SOL    HW193223   1.505  12.952  10.529
30442SOL    HW293224   1.356  12.933  10.547
30443SOL     OW93225   3.388   8.943   9.273
30443SOL    HW193226   3.407   8.915   9.362
30443SOL    HW293227   3.421   8.871   9.218
30444SOL     OW93228  12.895  10.567   6.373
30444SOL    HW193229  12.803  10.563   6.348
30444SOL    HW293230  12.931  10.640   6.322
30445SOL     OW93231  12.709   5.525   1.261
30445SOL    HW193232  12.773   5.589   1.292
30445SOL    HW293233  12.701   5.542   1.167
30446SOL     OW93234   3.870   8.642   3.001
30446SOL    HW193235   3.955   8.600   3.007
30446SOL    HW293236   3.807   8.572   3.021
30447SOL     OW93237   2.650   9.919  13.902
30447SOL    HW193238   2.584   9.877  13.957
30447SOL    HW293239   2.676   9.997  13.950
30448SOL     OW93240  13.467   9.534   0.136
30448SOL    HW193241  13.429   9.459   0.182
30448SOL    HW293242  13.416   9.541   0.055
30449SOL     OW93243   5.736  12.471   8.068
30449SOL    HW193244   5.758  12.455   7.976
30449SOL    HW293245   5.686  12.394   8.094
30450SOL     OW93246   3.250   7.828   5.584
30450SOL    HW193247   3.167   7.818   5.537
30450SOL    HW293248   3.264   7.743   5.625
30451SOL     OW93249   0.164   2.988   0.650
30451SOL    HW193250   0.212   3.071   0.649
30451SOL    HW293251   0.193   2.943   0.570
30452SOL     OW93252   3.878   3.805   0.864
30452SOL    HW193253   3.810   3.806   0.931
30452SOL    HW293254   3.900   3.712   0.854
30453SOL     OW93255  12.753  11.716   2.705
30453SOL    HW193256  12.669  11.694   2.746
30453SOL    HW293257  12.795  11.632   2.689
30454SOL     OW93258   8.004   1.546   7.958
30454SOL    HW193259   8.062   1.524   7.884
30454SOL    HW293260   8.045   1.504   8.034
30455SOL     OW93261   5.502   6.189   3.328
30455SOL    HW193262   5.471   6.275   3.357
30455SOL    HW293263   5.544   6.152   3.406
30456SOL     OW93264   9.836  13.015   3.947
30456SOL    HW193265   9.775  13.073   3.991
30456SOL    HW293266   9.910  13.007   4.007
30457SOL     OW93267  13.038   0.574   7.093
30457SOL    HW193268  13.122   0.558   7.051
30457SOL    HW293269  13.005   0.486   7.113
30458SOL     OW93270   5.334  13.983  12.174
30458SOL    HW193271   5.366  14.073  12.173
30458SOL    HW293272   5.280  13.978  12.253
30459SOL     OW93273   5.069  11.829   9.858
30459SOL    HW193274   5.162  11.850   9.849
30459SOL    HW293275   5.036  11.823   9.769
30460SOL     OW93276  14.791   4.542  10.184
30460SOL    HW193277  14.830   4.455  10.179
30460SOL    HW293278  14.858   4.601  10.151
30461SOL     OW93279   4.488  14.537   5.696
30461SOL    HW193280   4.482  14.454   5.743
30461SOL    HW293281   4.397  14.567   5.689
30462SOL     OW93282   0.116   9.742  11.315
30462SOL    HW193283   0.127   9.765  11.223
30462SOL    HW293284   0.081   9.653  11.314
30463SOL     OW93285   8.512   7.197  13.217
30463SOL    HW193286   8.516   7.106  13.246
30463SOL    HW293287   8.429   7.204  13.170
30464SOL     OW93288  10.354  14.310  13.624
30464SOL    HW193289  10.422  14.245  13.610
30464SOL    HW293290  10.311  14.319  13.539
30465SOL     OW93291   2.291   3.245   7.872
30465SOL    HW193292   2.211   3.192   7.878
30465SOL    HW293293   2.345   3.216   7.946
30466SOL     OW93294  11.703   7.211  10.252
30466SOL    HW193295  11.617   7.175  10.228
30466SOL    HW293296  11.764   7.139  10.237
30467SOL     OW93297  10.819   0.604   5.948
30467SOL    HW193298  10.844   0.511   5.942
30467SOL    HW293299  10.868   0.637   6.024
30468SOL     OW93300  12.952   0.423   8.097
30468SOL    HW193301  12.897   0.355   8.135
30468SOL    HW293302  12.921   0.433   8.007
30469SOL     OW93303   1.593  11.416   1.442
30469SOL    HW193304   1.556  11.463   1.366
30469SOL    HW293305   1.654  11.353   1.404
30470SOL     OW93306   0.004   9.528   0.973
30470SOL    HW193307  14.849   9.516   1.061
30470SOL    HW293308  14.873   9.621   0.955
30471SOL     OW93309   2.067  13.574  13.338
30471SOL    HW193310   2.091  13.617  13.256
30471SOL    HW293311   2.065  13.481  13.316
30472SOL     OW93312   4.565  13.884   9.919
30472SOL    HW193313   4.656  13.856   9.916
30472SOL    HW293314   4.519  13.822   9.863
30473SOL     OW93315   0.751   8.869  11.722
30473SOL    HW193316   0.819   8.841  11.783
30473SOL    HW293317   0.714   8.948  11.762
30474SOL     OW93318   3.681   8.435   5.386
30474SOL    HW193319   3.757   8.421   5.442
30474SOL    HW293320   3.658   8.347   5.355
30475SOL     OW93321   8.801   5.713   5.078
30475SOL    HW193322   8.799   5.637   5.136
30475SOL    HW293323   8.831   5.678   4.994
30476SOL     OW93324  12.778  13.022   2.034
30476SOL    HW193325  12.750  13.074   2.110
30476SOL    HW293326  12.715  13.046   1.966
30477SOL     OW93327   6.464  12.928   8.486
30477SOL    HW193328   6.412  12.853   8.517
30477SOL    HW293329   6.541  12.928   8.542
30478SOL     OW93330  12.826   5.463  12.459
30478SOL    HW193331  12.782   5.382  12.433
30478SOL    HW293332  12.755   5.524  12.479
30479SOL     OW93333   5.072   5.973  14.765
30479SOL    HW193334   5.107   5.903  14.820
30479SOL    HW293335   5.146   6.003  14.714
30480SOL     OW93336   8.466   8.127   2.053
30480SOL    HW193337   8.527   8.054   2.064
30480SOL    HW293338   8.416   8.104   1.974
30481SOL     OW93339   2.169  13.119  11.533
30481SOL    HW193340   2.129  13.206  11.528
30481SOL    HW293341   2.232  13.125  11.605
30482SOL     OW93342  14.047   2.192   7.827
30482SOL    HW193343  14.080   2.165   7.741
30482SOL    HW293344  13.955   2.163   7.828
30483SOL     OW93345   3.937   2.583  14.712
30483SOL    HW193346   3.995   2.545  14.646
30483SOL    HW293347   3.851   2.585  14.671
30484SOL     OW93348   3.956   7.987  11.471
30484SOL    HW193349   3.940   7.954  11.383
30484SOL    HW293350   4.052   7.991  11.478
30485SOL     OW93351   1.606   9.652  10.950
30485SOL    HW193352   1.696   9.644  10.979
30485SOL    HW293353   1.574   9.733  10.989
30486SOL     OW93354   6.984  10.671  13.900
30486SOL    HW193355   7.024  10.681  13.987
30486SOL    HW293356   6.951  10.581  13.900
30487SOL     OW93357   5.226   7.681   4.264
30487SOL    HW193358   5.292   7.750   4.256
30487SOL    HW293359   5.255   7.628   4.338
30488SOL     OW93360   6.066   5.747  14.554
30488SOL    HW193361   5.978   5.723  14.583
30488SOL    HW293362   6.058   5.839  14.527
30489SOL     OW93363   2.777  13.994  12.238
30489SOL    HW193364   2.696  14.033  12.206
30489SOL    HW293365   2.750  13.915  12.285
30490SOL     OW93366  12.318  11.034   5.892
30490SOL    HW193367  12.256  11.106   5.888
30490SOL    HW293368  12.275  10.968   5.946
30491SOL     OW93369  13.474  11.571   5.192
30491SOL    HW193370  13.389  11.610   5.174
30491SOL    HW293371  13.489  11.589   5.285
30492SOL     OW93372  10.583   4.253   5.011
30492SOL    HW193373  10.589   4.169   4.964
30492SOL    HW293374  10.624   4.316   4.952
30493SOL     OW93375   5.119   0.533   4.821
30493SOL    HW193376   5.128   0.561   4.912
30493SOL    HW293377   5.052   0.592   4.785
30494SOL     OW93378   2.174  12.512   3.193
30494SOL    HW193379   2.178  12.453   3.118
30494SOL    HW293380   2.101  12.571   3.174
30495SOL     OW93381  13.827   6.575  11.181
30495SOL    HW193382  13.825   6.635  11.107
30495SOL    HW293383  13.863   6.493  11.145
30496SOL     OW93384  10.444   7.384   1.986
30496SOL    HW193385  10.439   7.292   1.958
30496SOL    HW293386  10.388   7.431   1.925
30497SOL     OW93387   8.833  13.113   8.747
30497SOL    HW193388   8.910  13.103   8.803
30497SOL    HW293389   8.787  13.029   8.754
30498SOL     OW93390   2.022   0.451   7.145
30498SOL    HW193391   1.952   0.460   7.080
30498SOL    HW293392   2.009   0.364   7.183
30499SOL     OW93393   1.748  12.750   0.711
30499SOL    HW193394   1.820  12.753   0.648
30499SOL    HW293395   1.785  12.787   0.791
30500SOL     OW93396  10.242  12.625   0.318
30500SOL    HW193397  10.182  12.653   0.249
30500SOL    HW293398  10.322  12.674   0.303
30501SOL     OW93399   6.121  13.269   0.422
30501SOL    HW193400   6.149  13.223   0.500
30501SOL    HW293401   6.059  13.209   0.379
30502SOL     OW93402  11.131   6.559  10.519
30502SOL    HW193403  11.225   6.578  10.514
30502SOL    HW293404  11.090   6.645  10.530
30503SOL     OW93405  14.612   8.430   9.859
30503SOL    HW193406  14.617   8.359   9.923
30503SOL    HW293407  14.569   8.501   9.906
30504SOL     OW93408   7.952   7.100  11.732
30504SOL    HW193409   7.911   7.148  11.660
30504SOL    HW293410   7.887   7.100  11.802
30505SOL     OW93411   7.584  13.798   4.247
30505SOL    HW193412   7.567  13.706   4.266
30505SOL    HW293413   7.547  13.812   4.160
30506SOL     OW93414   4.389  13.460  12.528
30506SOL    HW193415   4.462  13.504  12.484
30506SOL    HW293416   4.410  13.367  12.523
30507SOL     OW93417   7.755  11.437  10.526
30507SOL    HW193418   7.741  11.468  10.437
30507SOL    HW293419   7.716  11.505  10.581
30508SOL     OW93420   7.178  11.661   2.848
30508SOL    HW193421   7.126  11.667   2.768
30508SOL    HW293422   7.260  11.620   2.820
30509SOL     OW93423   8.034   6.113   0.325
30509SOL    HW193424   8.128   6.094   0.326
30509SOL    HW293425   8.023   6.175   0.253
30510SOL     OW93426  10.900  13.063   2.765
30510SOL    HW193427  10.989  13.089   2.743
30510SOL    HW293428  10.911  12.985   2.821
30511SOL     OW93429   9.344   9.220   1.527
30511SOL    HW193430   9.310   9.136   1.558
30511SOL    HW293431   9.407   9.248   1.593
30512SOL     OW93432   6.241   3.758   3.374
30512SOL    HW193433   6.259   3.834   3.430
30512SOL    HW293434   6.146   3.757   3.364
30513SOL     OW93435   0.654   4.322  14.166
30513SOL    HW193436   0.702   4.257  14.217
30513SOL    HW293437   0.590   4.271  14.117
30514SOL     OW93438   5.745  12.653  14.354
30514SOL    HW193439   5.795  12.706  14.416
30514SOL    HW293440   5.707  12.583  14.408
30515SOL     OW93441   4.059  14.124  10.340
30515SOL    HW193442   3.995  14.131  10.410
30515SOL    HW293443   4.007  14.119  10.260
30516SOL     OW93444   0.370  13.679   9.843
30516SOL    HW193445   0.340  13.589   9.827
30516SOL    HW293446   0.455  13.669   9.885
30517SOL     OW93447  11.831  10.155   7.070
30517SOL    HW193448  11.856  10.191   6.985
30517SOL    HW293449  11.744  10.190   7.086
30518SOL     OW93450   4.552   6.783   3.080
30518SOL    HW193451   4.536   6.875   3.060
30518SOL    HW293452   4.512   6.769   3.165
30519SOL     OW93453  10.903  10.574  11.587
30519SOL    HW193454  10.879  10.520  11.512
30519SOL    HW293455  10.821  10.586  11.636
30520SOL     OW93456  10.591   4.063   3.778
30520SOL    HW193457  10.633   4.107   3.704
30520SOL    HW293458  10.578   3.973   3.749
30521SOL     OW93459   6.889   6.513   0.253
30521SOL    HW193460   6.872   6.607   0.250
30521SOL    HW293461   6.947   6.501   0.328
30522SOL     OW93462  13.419   2.067   7.982
30522SOL    HW193463  13.356   1.995   7.983
30522SOL    HW293464  13.436   2.082   7.889
30523SOL     OW93465  14.291   5.686   2.726
30523SOL    HW193466  14.205   5.655   2.755
30523SOL    HW293467  14.351   5.659   2.795
30524SOL     OW93468  10.265   6.700   1.011
30524SOL    HW193469  10.317   6.649   0.949
30524SOL    HW293470  10.199   6.744   0.957
30525SOL     OW93471   9.462  14.780  11.131
30525SOL    HW193472   9.431  14.755  11.218
30525SOL    HW293473   9.532  14.844  11.148
30526SOL     OW93474   0.908  13.223  12.092
30526SOL    HW193475   0.893  13.277  12.170
30526SOL    HW293476   1.001  13.234  12.072
30527SOL     OW93477   1.580   2.630  14.043
30527SOL    HW193478   1.570   2.539  14.070
30527SOL    HW293479   1.514   2.677  14.094
30528SOL     OW93480   8.543  11.454  13.142
30528SOL    HW193481   8.599  11.531  13.132
30528SOL    HW293482   8.605  11.382  13.158
30529SOL     OW93483   6.488  12.204  13.310
30529SOL    HW193484   6.466  12.181  13.401
30529SOL    HW293485   6.491  12.120  13.265
30530SOL     OW93486   0.991  13.284   5.473
30530SOL    HW193487   1.000  13.256   5.382
30530SOL    HW293488   0.984  13.379   5.468
30531SOL     OW93489  10.933   5.505   6.974
30531SOL    HW193490  10.959   5.570   7.039
30531SOL    HW293491  10.851   5.540   6.937
30532SOL     OW93492   6.577   0.046   0.790
30532SOL    HW193493   6.554   0.083   0.705
30532SOL    HW293494   6.671   0.064   0.799
30533SOL     OW93495   8.948  13.124   5.706
30533SOL    HW193496   8.976  13.033   5.695
30533SOL    HW293497   9.022  13.166   5.749
30534SOL     OW93498   3.331   4.399   2.777
30534SOL    HW193499   3.363   4.425   2.690
30534SOL    HW293500   3.248   4.446   2.787
30535SOL     OW93501   9.236   9.093  10.032
30535SOL    HW193502   9.235   9.058   9.943
30535SOL    HW293503   9.323   9.133  10.042
30536SOL     OW93504   5.152   6.047   2.417
30536SOL    HW193505   5.201   5.968   2.439
30536SOL    HW293506   5.170   6.063   2.324
30537SOL     OW93507   7.938  10.258  13.654
30537SOL    HW193508   7.934  10.238  13.560
30537SOL    HW293509   8.016  10.313  13.663
30538SOL     OW93510  12.153  12.629   9.514
30538SOL    HW193511  12.091  12.688   9.557
30538SOL    HW293512  12.236  12.677   9.512
30539SOL     OW93513   8.963   5.612   8.259
30539SOL    HW193514   8.964   5.520   8.287
30539SOL    HW293515   8.995   5.610   8.169
30540SOL     OW93516  11.784  13.025   3.828
30540SOL    HW193517  11.747  13.046   3.914
30540SOL    HW293518  11.734  12.949   3.798
30541SOL     OW93519   5.432  14.105  13.501
30541SOL    HW193520   5.382  14.145  13.430
30541SOL    HW293521   5.452  14.178  13.560
30542SOL     OW93522   6.277  13.572   1.499
30542SOL    HW193523   6.367  13.552   1.472
30542SOL    HW293524   6.287  13.622   1.580
30543SOL     OW93525   6.449  10.291  13.298
30543SOL    HW193526   6.439  10.368  13.243
30543SOL    HW293527   6.398  10.311  13.377
30544SOL     OW93528   6.254   1.832   1.957
30544SOL    HW193529   6.329   1.787   1.997
30544SOL    HW293530   6.259   1.922   1.991
30545SOL     OW93531  14.839   0.150   6.690
30545SOL    HW193532  14.791   0.074   6.724
30545SOL    HW293533  14.870   0.196   6.768
30546SOL     OW93534   4.653   1.501   7.679
30546SOL    HW193535   4.742   1.520   7.709
30546SOL    HW293536   4.651   1.535   7.589
30547SOL     OW93537  11.609   1.653   2.127
30547SOL    HW193538  11.563   1.736   2.141
30547SOL    HW293539  11.662   1.668   2.049
30548SOL     OW93540  12.373   7.528   8.084
30548SOL    HW193541  12.326   7.506   8.164
30548SOL    HW293542  12.305   7.547   8.020
30549SOL     OW93543   6.391   2.050   4.888
30549SOL    HW193544   6.468   2.107   4.879
30549SOL    HW293545   6.356   2.070   4.975
30550SOL     OW93546   6.778   7.392   0.265
30550SOL    HW193547   6.829   7.395   0.183
30550SOL    HW293548   6.788   7.479   0.302
30551SOL     OW93549  11.795   1.681   1.905
30551SOL    HW193550  11.885   1.655   1.883
30551SOL    HW293551  11.791   1.774   1.882
30552SOL     OW93552   8.572   7.801  14.240
30552SOL    HW193553   8.604   7.712  14.247
30552SOL    HW293554   8.495   7.795  14.184
30553SOL     OW93555   8.207   0.307   5.928
30553SOL    HW193556   8.218   0.401   5.944
30553SOL    HW293557   8.138   0.281   5.988
30554SOL     OW93558   4.827  13.690  11.820
30554SOL    HW193559   4.799  13.771  11.863
30554SOL    HW293560   4.793  13.697  11.731
30555SOL     OW93561  10.569   9.770  12.100
30555SOL    HW193562  10.480   9.788  12.069
30555SOL    HW293563  10.611   9.856  12.104
30556SOL     OW93564  14.468   0.800   6.813
30556SOL    HW193565  14.505   0.758   6.735
30556SOL    HW293566  14.521   0.769   6.885
30557SOL     OW93567   6.463   5.853  14.713
30557SOL    HW193568   6.493   5.903  14.789
30557SOL    HW293569   6.440   5.920  14.648
30558SOL     OW93570   9.139   8.078  13.979
30558SOL    HW193571   9.141   8.174  13.974
30558SOL    HW293572   9.230   8.052  13.984
30559SOL     OW93573  12.834   0.403   3.264
30559SOL    HW193574  12.815   0.487   3.221
30559SOL    HW293575  12.821   0.420   3.357
30560SOL     OW93576  10.362   7.395   7.043
30560SOL    HW193577  10.426   7.396   7.115
30560SOL    HW293578  10.404   7.343   6.975
30561SOL     OW93579   7.932   9.107   3.532
30561SOL    HW193580   7.937   9.203   3.530
30561SOL    HW293581   7.960   9.085   3.621
30562SOL     OW93582   8.808   7.324   8.377
30562SOL    HW193583   8.746   7.268   8.331
30562SOL    HW293584   8.828   7.395   8.316
30563SOL     OW93585   5.358   7.392   4.162
30563SOL    HW193586   5.321   7.466   4.210
30563SOL    HW293587   5.366   7.422   4.072
30564SOL     OW93588  14.098  14.693   2.513
30564SOL    HW193589  14.168  14.646   2.558
30564SOL    HW293590  14.027  14.698   2.577
30565SOL     OW93591   8.321   3.581   9.467
30565SOL    HW193592   8.238   3.537   9.449
30565SOL    HW293593   8.300   3.650   9.530
30566SOL     OW93594   0.318   1.261  14.808
30566SOL    HW193595   0.237   1.297  14.771
30566SOL    HW293596   0.290   1.184  14.857
30567SOL     OW93597   9.199   3.256   3.122
30567SOL    HW193598   9.220   3.337   3.168
30567SOL    HW293599   9.108   3.239   3.143
30568SOL     OW93600  11.066  13.812   2.853
30568SOL    HW193601  11.023  13.743   2.803
30568SOL    HW293602  11.115  13.765   2.920
30569SOL     OW93603   5.671   1.123  10.909
30569SOL    HW193604   5.609   1.194  10.891
30569SOL    HW293605   5.659   1.105  11.002
30570SOL     OW93606   5.391  12.460  14.012
30570SOL    HW193607   5.382  12.505  14.096
30570SOL    HW293608   5.372  12.368  14.031
30571SOL     OW93609  14.167  10.659   2.125
30571SOL    HW193610  14.111  10.585   2.102
30571SOL    HW293611  14.188  10.645   2.218
30572SOL     OW93612  10.105  12.987   9.021
30572SOL    HW193613  10.195  12.973   8.991
30572SOL    HW293614  10.057  13.014   8.943
30573SOL     OW93615   5.295   8.691   4.541
30573SOL    HW193616   5.376   8.738   4.558
30573SOL    HW293617   5.241   8.752   4.492
30574SOL     OW93618   2.521   2.793   5.618
30574SOL    HW193619   2.488   2.754   5.538
30574SOL    HW293620   2.557   2.720   5.668
30575SOL     OW93621   5.032   1.466  10.275
30575SOL    HW193622   4.970   1.477  10.203
30575SOL    HW293623   5.002   1.528  10.342
30576SOL     OW93624  12.382   7.589   5.269
30576SOL    HW193625  12.346   7.678   5.261
30576SOL    HW293626  12.452   7.586   5.203
30577SOL     OW93627   8.187   0.650   3.018
30577SOL    HW193628   8.224   0.653   2.930
30577SOL    HW293629   8.098   0.683   3.008
30578SOL     OW93630  13.201   7.000   5.435
30578SOL    HW193631  13.280   6.949   5.454
30578SOL    HW293632  13.129   6.944   5.466
30579SOL     OW93633  11.221  10.234   0.916
30579SOL    HW193634  11.310  10.204   0.932
30579SOL    HW293635  11.228  10.292   0.840
30580SOL     OW93636   7.345  12.208  14.283
30580SOL    HW193637   7.309  12.125  14.316
30580SOL    HW293638   7.435  12.187  14.258
30581SOL     OW93639   4.698   7.989  14.269
30581SOL    HW193640   4.717   8.000  14.176
30581SOL    HW293641   4.753   7.916  14.296
30582SOL     OW93642   9.405  14.108  12.381
30582SOL    HW193643   9.353  14.175  12.425
30582SOL    HW293644   9.427  14.045  12.450
30583SOL     OW93645  14.821   2.420   2.462
30583SOL    HW193646  14.865   2.478   2.524
30583SOL    HW293647  14.870   2.338   2.467
30584SOL     OW93648   8.191   4.431   1.153
30584SOL    HW193649   8.231   4.517   1.167
30584SOL    HW293650   8.265   4.372   1.141
30585SOL     OW93651   1.307   2.549   9.722
30585SOL    HW193652   1.303   2.621   9.660
30585SOL    HW293653   1.236   2.566   9.784
30586SOL     OW93654   9.135  14.056   6.250
30586SOL    HW193655   9.115  14.067   6.343
30586SOL    HW293656   9.057  14.012   6.214
30587SOL     OW93657   3.095  13.175   8.577
30587SOL    HW193658   3.026  13.125   8.535
30587SOL    HW293659   3.064  13.190   8.666
30588SOL     OW93660   9.310  11.603   5.262
30588SOL    HW193661   9.403  11.620   5.243
30588SOL    HW293662   9.312  11.542   5.335
30589SOL     OW93663   0.920   9.716  10.230
30589SOL    HW193664   1.004   9.764  10.230
30589SOL    HW293665   0.934   9.645  10.167
30590SOL     OW93666   7.354  13.721   8.102
30590SOL    HW193667   7.362  13.671   8.020
30590SOL    HW293668   7.340  13.655   8.169
30591SOL     OW93669   1.543   7.629  13.390
30591SOL    HW193670   1.509   7.643  13.478
30591SOL    HW293671   1.596   7.706  13.372
30592SOL     OW93672   2.423   4.648   2.618
30592SOL    HW193673   2.397   4.561   2.587
30592SOL    HW293674   2.369   4.663   2.695
30593SOL     OW93675   1.530   4.733   9.229
30593SOL    HW193676   1.532   4.737   9.325
30593SOL    HW293677   1.438   4.718   9.208
30594SOL     OW93678  14.053   5.012   7.392
30594SOL    HW193679  13.990   4.997   7.462
30594SOL    HW293680  14.004   5.062   7.327
30595SOL     OW93681  12.967  11.505   1.873
30595SOL    HW193682  13.013  11.433   1.916
30595SOL    HW293683  13.021  11.582   1.891
30596SOL     OW93684   2.890  11.642   6.738
30596SOL    HW193685   2.797  11.649   6.762
30596SOL    HW293686   2.909  11.725   6.694
30597SOL     OW93687  11.258   5.403   9.433
30597SOL    HW193688  11.325   5.338   9.453
30597SOL    HW293689  11.224   5.377   9.348
30598SOL     OW93690  14.255  11.411   6.129
30598SOL    HW193691  14.183  11.360   6.092
30598SOL    HW293692  14.327  11.349   6.138
30599SOL     OW93693  11.959   0.638   7.000
30599SOL    HW193694  11.924   0.549   7.003
30599SOL    HW293695  12.052   0.628   7.021
30600SOL     OW93696  14.876   5.538   0.303
30600SOL    HW193697   0.018   5.450   0.332
30600SOL    HW293698  14.852   5.585   0.382
30601SOL     OW93699   3.187   8.423  11.984
30601SOL    HW193700   3.229   8.387  12.062
30601SOL    HW293701   3.196   8.518  11.994
30602SOL     OW93702   4.642  10.901   5.309
30602SOL    HW193703   4.656  10.807   5.320
30602SOL    HW293704   4.629  10.912   5.214
30603SOL     OW93705  11.810   1.026   5.723
30603SOL    HW193706  11.822   0.932   5.713
30603SOL    HW293707  11.732   1.035   5.778
30604SOL     OW93708  13.846   9.931  11.491
30604SOL    HW193709  13.829   9.850  11.443
30604SOL    HW293710  13.941   9.933  11.501
30605SOL     OW93711   9.924   0.343   5.008
30605SOL    HW193712  10.010   0.384   5.011
30605SOL    HW293713   9.892   0.362   4.920
30606SOL     OW93714  11.576   6.347   0.420
30606SOL    HW193715  11.648   6.383   0.472
30606SOL    HW293716  11.583   6.391   0.335
30607SOL     OW93717   4.497   0.567   0.493
30607SOL    HW193718   4.576   0.547   0.544
30607SOL    HW293719   4.485   0.661   0.503
30608SOL     OW93720  10.191   0.681   3.798
30608SOL    HW193721  10.182   0.658   3.705
30608SOL    HW293722  10.269   0.737   3.801
30609SOL     OW93723  13.127  14.682  11.266
30609SOL    HW193724  13.151  14.706  11.355
30609SOL    HW293725  13.061  14.613  11.276
30610SOL     OW93726   2.751   0.682   3.138
30610SOL    HW193727   2.776   0.659   3.049
30610SOL    HW293728   2.718   0.600   3.176
30611SOL     OW93729   1.558   6.168  13.604
30611SOL    HW193730   1.531   6.142  13.515
30611SOL    HW293731   1.538   6.091  13.658
30612SOL     OW93732  14.268   2.980  10.241
30612SOL    HW193733  14.218   3.048  10.286
30612SOL    HW293734  14.317   2.936  10.310
30613SOL     OW93735  10.126   4.144   2.779
30613SOL    HW193736  10.162   4.108   2.698
30613SOL    HW293737  10.055   4.201   2.751
30614SOL     OW93738  14.601  10.824   2.173
30614SOL    HW193739  14.575  10.758   2.237
30614SOL    HW293740  14.693  10.843   2.194
30615SOL     OW93741   9.077  11.745   6.485
30615SOL    HW193742   9.166  11.749   6.519
30615SOL    HW293743   9.057  11.652   6.481
30616SOL     OW93744  12.118   1.595   6.773
30616SOL    HW193745  12.107   1.684   6.740
30616SOL    HW293746  12.091   1.539   6.699
30617SOL     OW93747   7.041  10.333   4.401
30617SOL    HW193748   6.987  10.333   4.480
30617SOL    HW293749   6.983  10.302   4.332
30618SOL     OW93750  14.454  11.658   9.300
30618SOL    HW193751  14.379  11.607   9.331
30618SOL    HW293752  14.488  11.701   9.379
30619SOL     OW93753  10.256  10.762   7.363
30619SOL    HW193754  10.326  10.739   7.302
30619SOL    HW293755  10.230  10.679   7.402
30620SOL     OW93756  10.046  10.870  12.562
30620SOL    HW193757  10.141  10.858  12.566
30620SOL    HW293758  10.032  10.925  12.485
30621SOL     OW93759  12.136  11.698   9.220
30621SOL    HW193760  12.187  11.765   9.266
30621SOL    HW293761  12.118  11.737   9.135
30622SOL     OW93762  12.402  13.539   9.552
30622SOL    HW193763  12.371  13.598   9.483
30622SOL    HW293764  12.483  13.581   9.584
30623SOL     OW93765   3.692  13.325  10.201
30623SOL    HW193766   3.776  13.362  10.227
30623SOL    HW293767   3.630  13.355  10.268
30624SOL     OW93768   4.645   8.225   7.587
30624SOL    HW193769   4.634   8.238   7.493
30624SOL    HW293770   4.559   8.244   7.624
30625SOL     OW93771   1.763  11.568  14.016
30625SOL    HW193772   1.809  11.591  14.096
30625SOL    HW293773   1.763  11.648  13.964
30626SOL     OW93774   9.569   1.945   7.956
30626SOL    HW193775   9.515   1.994   8.018
30626SOL    HW293776   9.651   1.994   7.952
30627SOL     OW93777   3.237   7.989   8.353
30627SOL    HW193778   3.327   7.955   8.354
30627SOL    HW293779   3.188   7.924   8.303
30628SOL     OW93780   2.983  12.983   5.022
30628SOL    HW193781   3.023  12.932   4.952
30628SOL    HW293782   2.900  12.939   5.041
30629SOL     OW93783  14.546   2.471   9.433
30629SOL    HW193784  14.572   2.443   9.521
30629SOL    HW293785  14.582   2.558   9.423
30630SOL     OW93786   1.612   0.383   2.702
30630SOL    HW193787   1.689   0.404   2.650
30630SOL    HW293788   1.589   0.466   2.744
30631SOL     OW93789   6.493  14.350  14.005
30631SOL    HW193790   6.460  14.349  14.095
30631SOL    HW293791   6.550  14.427  14.002
30632SOL     OW93792   5.914   6.662   8.952
30632SOL    HW193793   5.987   6.619   8.996
30632SOL    HW293794   5.949   6.684   8.865
30633SOL     OW93795   8.428   4.739   8.738
30633SOL    HW193796   8.406   4.654   8.702
30633SOL    HW293797   8.383   4.802   8.681
30634SOL     OW93798   1.449   0.080   9.845
30634SOL    HW193799   1.520   0.028   9.808
30634SOL    HW293800   1.452   0.060   9.939
30635SOL     OW93801  10.383   7.104   0.413
30635SOL    HW193802  10.417   7.109   0.324
30635SOL    HW293803  10.342   7.018   0.419
30636SOL     OW93804   6.661   1.589   5.574
30636SOL    HW193805   6.593   1.566   5.510
30636SOL    HW293806   6.738   1.542   5.543
30637SOL     OW93807   8.924  14.708   7.913
30637SOL    HW193808   8.844  14.737   7.957
30637SOL    HW293809   8.986  14.780   7.926
30638SOL     OW93810   6.223   2.157   9.782
30638SOL    HW193811   6.297   2.107   9.818
30638SOL    HW293812   6.148   2.098   9.789
30639SOL     OW93813   1.301  10.968   7.991
30639SOL    HW193814   1.348  10.885   7.987
30639SOL    HW293815   1.249  10.970   7.911
30640SOL     OW93816  10.858  14.636  10.113
30640SOL    HW193817  10.834  14.609  10.202
30640SOL    HW293818  10.807  14.578  10.056
30641SOL     OW93819   1.639   0.490   0.472
30641SOL    HW193820   1.617   0.551   0.401
30641SOL    HW293821   1.556   0.477   0.518
30642SOL     OW93822   1.440   2.999   8.674
30642SOL    HW193823   1.452   3.068   8.609
30642SOL    HW293824   1.452   3.042   8.759
30643SOL     OW93825   0.005   5.748   8.478
30643SOL    HW193826  14.839   5.731   8.560
30643SOL    HW293827   0.009   5.844   8.472
30644SOL     OW93828  10.003  14.135   4.406
30644SOL    HW193829  10.001  14.182   4.322
30644SOL    HW293830  10.094  14.142   4.436
30645SOL     OW93831  11.563   4.738   2.874
30645SOL    HW193832  11.501   4.809   2.892
30645SOL    HW293833  11.617   4.733   2.952
30646SOL     OW93834   7.787  11.385   1.790
30646SOL    HW193835   7.697  11.370   1.761
30646SOL    HW293836   7.785  11.368   1.884
30647SOL     OW93837  14.625   3.556   0.579
30647SOL    HW193838  14.560   3.615   0.540
30647SOL    HW293839  14.698   3.613   0.602
30648SOL     OW93840  11.742  13.656   2.921
30648SOL    HW193841  11.803  13.587   2.893
30648SOL    HW293842  11.796  13.735   2.921
30649SOL     OW93843   1.489   9.108   5.726
30649SOL    HW193844   1.553   9.179   5.732
30649SOL    HW293845   1.523   9.050   5.657
30650SOL     OW93846   2.761  12.976   3.190
30650SOL    HW193847   2.682  13.003   3.237
30650SOL    HW293848   2.732  12.908   3.130
30651SOL     OW93849   1.064   4.626  12.428
30651SOL    HW193850   1.035   4.634  12.338
30651SOL    HW293851   1.151   4.667  12.429
30652SOL     OW93852   2.520   4.843   8.205
30652SOL    HW193853   2.454   4.893   8.253
30652SOL    HW293854   2.542   4.899   8.130
30653SOL     OW93855   6.145   7.441   8.505
30653SOL    HW193856   6.093   7.518   8.481
30653SOL    HW293857   6.122   7.375   8.440
30654SOL     OW93858   3.323   7.423   9.665
30654SOL    HW193859   3.245   7.472   9.690
30654SOL    HW293860   3.292   7.361   9.598
30655SOL     OW93861   3.006   4.037  12.562
30655SOL    HW193862   3.100   4.052  12.547
30655SOL    HW293863   3.003   3.969  12.629
30656SOL     OW93864   0.646   3.381   5.065
30656SOL    HW193865   0.575   3.325   5.095
30656SOL    HW293866   0.655   3.447   5.133
30657SOL     OW93867   9.937   8.193   1.651
30657SOL    HW193868   9.881   8.179   1.575
30657SOL    HW293869   9.986   8.111   1.660
30658SOL     OW93870   6.881   2.798   2.163
30658SOL    HW193871   6.895   2.849   2.243
30658SOL    HW293872   6.849   2.713   2.194
30659SOL     OW93873   6.870  12.637   8.401
30659SOL    HW193874   6.891  12.607   8.489
30659SOL    HW293875   6.895  12.729   8.400
30660SOL     OW93876   3.535  10.207   8.021
30660SOL    HW193877   3.589  10.180   8.095
30660SOL    HW293878   3.449  10.169   8.039
30661SOL     OW93879   5.592   2.259   6.869
30661SOL    HW193880   5.668   2.317   6.871
30661SOL    HW293881   5.559   2.266   6.779
30662SOL     OW93882   4.284   0.538  14.270
30662SOL    HW193883   4.339   0.584  14.333
30662SOL    HW293884   4.224   0.486  14.324
30663SOL     OW93885   5.713   8.564   4.147
30663SOL    HW193886   5.712   8.471   4.123
30663SOL    HW293887   5.625   8.581   4.181
30664SOL     OW93888   2.489   1.148  14.854
30664SOL    HW193889   2.570   1.104  14.827
30664SOL    HW293890   2.442   1.163  14.773
30665SOL     OW93891  11.436  10.664   7.192
30665SOL    HW193892  11.526  10.636   7.177
30665SOL    HW293893  11.443  10.754   7.224
30666SOL     OW93894   3.219  11.112   0.923
30666SOL    HW193895   3.232  11.028   0.966
30666SOL    HW293896   3.292  11.119   0.861
30667SOL     OW93897  13.931  10.861   1.278
30667SOL    HW193898  13.990  10.786   1.276
30667SOL    HW293899  13.888  10.856   1.363
30668SOL     OW93900   0.810   8.404   2.203
30668SOL    HW193901   0.887   8.353   2.231
30668SOL    HW293902   0.769   8.431   2.285
30669SOL     OW93903   9.240   3.369  13.182
30669SOL    HW193904   9.248   3.328  13.268
30669SOL    HW293905   9.299   3.444  13.185
30670SOL     OW93906   8.298   8.139   5.497
30670SOL    HW193907   8.281   8.230   5.473
30670SOL    HW293908   8.300   8.139   5.593
30671SOL     OW93909  13.879  14.227  12.067
30671SOL    HW193910  13.880  14.132  12.055
30671SOL    HW293911  13.786  14.250  12.070
30672SOL     OW93912  11.422  13.767   0.494
30672SOL    HW193913  11.441  13.781   0.587
30672SOL    HW293914  11.382  13.849   0.466
30673SOL     OW93915   7.192   6.562  13.910
30673SOL    HW193916   7.215   6.469  13.901
30673SOL    HW293917   7.136   6.580  13.834
30674SOL     OW93918  10.073  12.730   6.822
30674SOL    HW193919  10.155  12.709   6.778
30674SOL    HW293920  10.097  12.794   6.889
30675SOL     OW93921  13.053   0.066   7.169
30675SOL    HW193922  13.135   0.114   7.156
30675SOL    HW293923  13.041   0.065   7.264
30676SOL     OW93924   3.342  11.511   8.171
30676SOL    HW193925   3.323  11.417   8.172
30676SOL    HW293926   3.287  11.548   8.240
30677SOL     OW93927   2.837  10.058   3.589
30677SOL    HW193928   2.803  10.141   3.621
30677SOL    HW293929   2.924  10.050   3.628
30678SOL     OW93930  14.148   1.021   1.411
30678SOL    HW193931  14.080   0.989   1.352
30678SOL    HW293932  14.224   1.036   1.354
30679SOL     OW93933  14.503  13.409   8.130
30679SOL    HW193934  14.592  13.402   8.164
30679SOL    HW293935  14.485  13.323   8.090
30680SOL     OW93936  11.656   2.915  11.848
30680SOL    HW193937  11.564   2.895  11.828
30680SOL    HW293938  11.690   2.952  11.767
30681SOL     OW93939  11.314   5.783   9.022
30681SOL    HW193940  11.319   5.877   9.005
30681SOL    HW293941  11.371   5.769   9.098
30682SOL     OW93942   3.327   5.962   7.794
30682SOL    HW193943   3.245   5.987   7.751
30682SOL    HW293944   3.330   6.017   7.873
30683SOL     OW93945   4.718   1.966   8.959
30683SOL    HW193946   4.771   1.990   9.034
30683SOL    HW293947   4.716   1.871   8.959
30684SOL     OW93948  11.603  13.270   4.417
30684SOL    HW193949  11.557  13.219   4.350
30684SOL    HW293950  11.632  13.349   4.371
30685SOL     OW93951   3.469   8.325   9.111
30685SOL    HW193952   3.386   8.369   9.130
30685SOL    HW293953   3.450   8.271   9.034
30686SOL     OW93954   3.815  10.399   8.192
30686SOL    HW193955   3.763  10.320   8.204
30686SOL    HW293956   3.900  10.367   8.161
30687SOL     OW93957  11.332   6.278   6.556
30687SOL    HW193958  11.283   6.263   6.475
30687SOL    HW293959  11.424   6.269   6.530
30688SOL     OW93960   9.442   7.793   7.655
30688SOL    HW193961   9.389   7.720   7.686
30688SOL    HW293962   9.445   7.853   7.729
30689SOL     OW93963   7.549   9.577   3.137
30689SOL    HW193964   7.459   9.550   3.155
30689SOL    HW293965   7.604   9.512   3.180
30690SOL     OW93966  11.641   2.939  10.129
30690SOL    HW193967  11.729   2.916  10.097
30690SOL    HW293968  11.657   2.974  10.217
30691SOL     OW93969   8.376   6.990   0.545
30691SOL    HW193970   8.452   6.975   0.602
30691SOL    HW293971   8.384   6.923   0.476
30692SOL     OW93972   8.741  14.379   2.507
30692SOL    HW193973   8.699  14.462   2.527
30692SOL    HW293974   8.815  14.374   2.567
30693SOL     OW93975  12.315   9.255   7.437
30693SOL    HW193976  12.352   9.315   7.502
30693SOL    HW293977  12.299   9.174   7.486
30694SOL     OW93978   3.753   3.713   9.322
30694SOL    HW193979   3.764   3.672   9.236
30694SOL    HW293980   3.669   3.758   9.317
30695SOL     OW93981   3.191  14.441   3.793
30695SOL    HW193982   3.130  14.495   3.743
30695SOL    HW293983   3.190  14.478   3.881
30696SOL     OW93984  12.823   6.239  13.426
30696SOL    HW193985  12.844   6.232  13.333
30696SOL    HW293986  12.784   6.155  13.448
30697SOL     OW93987   6.490   8.377   8.754
30697SOL    HW193988   6.408   8.346   8.793
30697SOL    HW293989   6.465   8.404   8.665
30698SOL     OW93990  11.700   2.937   4.368
30698SOL    HW193991  11.685   2.895   4.453
30698SOL    HW293992  11.645   3.016   4.371
30699SOL     OW93993   8.395  11.297  13.420
30699SOL    HW193994   8.427  11.244  13.347
30699SOL    HW293995   8.397  11.387  13.386
30700SOL     OW93996   3.509  13.942  10.646
30700SOL    HW193997   3.555  13.933  10.563
30700SOL    HW293998   3.463  14.026  10.639
30701SOL     OW93999   8.102  10.691   1.023
30701SOL    HW194000   8.145  10.770   1.057
30701SOL    HW294001   8.152  10.619   1.061
30702SOL     OW94002  10.237   3.976  10.602
30702SOL    HW194003  10.298   3.928  10.546
30702SOL    HW294004  10.232   4.063  10.564
30703SOL     OW94005  11.094   5.560   3.950
30703SOL    HW194006  11.176   5.543   3.997
30703SOL    HW294007  11.037   5.601   4.015
30704SOL     OW94008   9.796   5.749  10.884
30704SOL    HW194009   9.808   5.731  10.791
30704SOL    HW294010   9.701   5.757  10.895
30705SOL     OW94011  10.401   1.911  12.085
30705SOL    HW194012  10.419   1.885  12.175
30705SOL    HW294013  10.355   1.836  12.047
30706SOL     OW94014   2.541  10.640  14.351
30706SOL    HW194015   2.470  10.677  14.298
30706SOL    HW294016   2.599  10.598  14.288
30707SOL     OW94017   9.224   7.921  13.675
30707SOL    HW194018   9.152   7.933  13.613
30707SOL    HW294019   9.244   8.010  13.705
30708SOL     OW94020  12.830  10.255   5.070
30708SOL    HW194021  12.871  10.192   5.010
30708SOL    HW294022  12.820  10.207   5.152
30709SOL     OW94023   3.102   1.064   6.883
30709SOL    HW194024   3.059   1.132   6.935
30709SOL    HW294025   3.076   0.982   6.925
30710SOL     OW94026  12.907  14.329   7.137
30710SOL    HW194027  12.975  14.381   7.179
30710SOL    HW294028  12.940  14.239   7.142
30711SOL     OW94029   2.011  12.901   8.146
30711SOL    HW194030   2.059  12.845   8.207
30711SOL    HW294031   1.968  12.965   8.203
30712SOL     OW94032  13.330  10.595   5.814
30712SOL    HW194033  13.290  10.508   5.809
30712SOL    HW294034  13.417  10.579   5.851
30713SOL     OW94035  13.655   0.064   7.142
30713SOL    HW194036  13.733   0.097   7.097
30713SOL    HW294037  13.683   0.053   7.233
30714SOL     OW94038   3.712  10.426   1.956
30714SOL    HW194039   3.806  10.415   1.971
30714SOL    HW294040   3.703  10.518   1.929
30715SOL     OW94041   3.229   7.124  11.663
30715SOL    HW194042   3.176   7.077  11.599
30715SOL    HW294043   3.281   7.185  11.611
30716SOL     OW94044   0.076   7.873  10.592
30716SOL    HW194045   0.146   7.932  10.564
30716SOL    HW294046   0.102   7.787  10.559
30717SOL     OW94047   7.455  10.001  10.961
30717SOL    HW194048   7.514  10.077  10.957
30717SOL    HW294049   7.467   9.967  11.050
30718SOL     OW94050  12.205   0.620   3.256
30718SOL    HW194051  12.235   0.682   3.322
30718SOL    HW294052  12.282   0.567   3.236
30719SOL     OW94053   1.026  10.409  11.529
30719SOL    HW194054   1.011  10.502  11.516
30719SOL    HW294055   1.007  10.394  11.622
30720SOL     OW94056   9.220  14.036   1.200
30720SOL    HW194057   9.310  14.068   1.208
30720SOL    HW294058   9.201  13.997   1.285
30721SOL     OW94059   8.194   7.183  11.586
30721SOL    HW194060   8.152   7.246  11.526
30721SOL    HW294061   8.125   7.159  11.647
30722SOL     OW94062   4.401   8.306   2.880
30722SOL    HW194063   4.373   8.221   2.912
30722SOL    HW294064   4.462   8.287   2.810
30723SOL     OW94065   6.062   9.835   2.124
30723SOL    HW194066   6.007   9.835   2.202
30723SOL    HW294067   6.140   9.786   2.150
30724SOL     OW94068   5.205  11.581   7.393
30724SOL    HW194069   5.119  11.607   7.425
30724SOL    HW294070   5.257  11.569   7.472
30725SOL     OW94071  14.288   0.373  14.204
30725SOL    HW194072  14.266   0.281  14.191
30725SOL    HW294073  14.211   0.421  14.175
30726SOL     OW94074  12.264   3.452   2.006
30726SOL    HW194075  12.213   3.518   1.959
30726SOL    HW294076  12.277   3.382   1.943
30727SOL     OW94077   9.394   6.085   3.543
30727SOL    HW194078   9.436   6.064   3.626
30727SOL    HW294079   9.301   6.075   3.560
30728SOL     OW94080  14.529   0.110   7.374
30728SOL    HW194081  14.525   0.193   7.420
30728SOL    HW294082  14.618   0.078   7.391
30729SOL     OW94083  12.722   5.663   3.304
30729SOL    HW194084  12.634   5.682   3.270
30729SOL    HW294085  12.769   5.746   3.297
30730SOL     OW94086   3.954  13.273  13.974
30730SOL    HW194087   4.001  13.275  13.890
30730SOL    HW294088   3.923  13.363  13.986
30731SOL     OW94089   8.983   0.050   1.591
30731SOL    HW194090   8.969   0.140   1.561
30731SOL    HW294091   9.077   0.035   1.578
30732SOL     OW94092   9.868  13.519  13.521
30732SOL    HW194093   9.835  13.555  13.602
30732SOL    HW294094   9.937  13.580  13.493
30733SOL     OW94095  10.341   6.937   5.906
30733SOL    HW194096  10.427   6.924   5.948
30733SOL    HW294097  10.311   7.022   5.940
30734SOL     OW94098  11.660  14.684   1.580
30734SOL    HW194099  11.710  14.719   1.654
30734SOL    HW294100  11.591  14.632   1.621
30735SOL     OW94101   6.308   2.963   4.729
30735SOL    HW194102   6.274   3.003   4.809
30735SOL    HW294103   6.263   3.009   4.658
30736SOL     OW94104  11.908   4.128   2.998
30736SOL    HW194105  11.836   4.132   3.060
30736SOL    HW294106  11.939   4.218   2.990
30737SOL     OW94107  11.825  13.692  12.891
30737SOL    HW194108  11.901  13.654  12.935
30737SOL    HW294109  11.761  13.705  12.962
30738SOL     OW94110  13.597   6.477   3.144
30738SOL    HW194111  13.671   6.451   3.089
30738SOL    HW294112  13.579   6.568   3.118
30739SOL     OW94113  12.574   9.222  10.572
30739SOL    HW194114  12.528   9.140  10.584
30739SOL    HW294115  12.665   9.202  10.592
30740SOL     OW94116   1.609  13.278   0.207
30740SOL    HW194117   1.530  13.227   0.227
30740SOL    HW294118   1.678  13.213   0.200
30741SOL     OW94119  10.728   7.350  14.482
30741SOL    HW194120  10.813   7.319  14.451
30741SOL    HW294121  10.743   7.369  14.575
30742SOL     OW94122   1.813  14.498  14.139
30742SOL    HW194123   1.774  14.433  14.197
30742SOL    HW294124   1.902  14.467  14.123
30743SOL     OW94125   3.846  10.307  14.296
30743SOL    HW194126   3.847  10.245  14.223
30743SOL    HW294127   3.761  10.350  14.290
30744SOL     OW94128   8.323  11.607  11.411
30744SOL    HW194129   8.312  11.651  11.327
30744SOL    HW294130   8.302  11.515  11.392
30745SOL     OW94131   1.917  10.510   0.463
30745SOL    HW194132   1.932  10.585   0.522
30745SOL    HW294133   1.979  10.524   0.391
30746SOL     OW94134  13.512  10.922   2.478
30746SOL    HW194135  13.548  11.009   2.464
30746SOL    HW294136  13.574  10.880   2.538
30747SOL     OW94137  12.625  11.467   1.117
30747SOL    HW194138  12.721  11.465   1.124
30747SOL    HW294139  12.608  11.525   1.043
30748SOL     OW94140   2.432  12.777   0.907
30748SOL    HW194141   2.484  12.800   0.983
30748SOL    HW294142   2.496  12.757   0.839
30749SOL     OW94143   8.274   4.831  14.849
30749SOL    HW194144   8.193   4.780  14.850
30749SOL    HW294145   8.341   4.770   0.001
30750SOL     OW94146   9.988   2.768  10.049
30750SOL    HW194147   9.901   2.804  10.066
30750SOL    HW294148  10.042   2.801  10.121
30751SOL     OW94149   0.762   8.405   1.081
30751SOL    HW194150   0.768   8.343   1.008
30751SOL    HW294151   0.835   8.382   1.139
30752SOL     OW94152   4.126   7.387   3.245
30752SOL    HW194153   4.145   7.294   3.251
30752SOL    HW294154   4.204   7.430   3.281
30753SOL     OW94155   2.674  13.276  11.574
30753SOL    HW194156   2.670  13.185  11.604
30753SOL    HW294157   2.752  13.281  11.520
30754SOL     OW94158   7.757  13.333   7.521
30754SOL    HW194159   7.767  13.249   7.566
30754SOL    HW294160   7.662  13.341   7.508
30755SOL     OW94161  10.518   9.917   4.005
30755SOL    HW194162  10.568   9.883   3.931
30755SOL    HW294163  10.552   9.869   4.080
30756SOL     OW94164   9.746   3.216   2.876
30756SOL    HW194165   9.680   3.152   2.850
30756SOL    HW294166   9.776   3.187   2.962
30757SOL     OW94167  13.305   6.698  11.605
30757SOL    HW194168  13.329   6.781  11.564
30757SOL    HW294169  13.219   6.677  11.569
30758SOL     OW94170   2.248   8.416   9.685
30758SOL    HW194171   2.167   8.365   9.672
30758SOL    HW294172   2.223   8.485   9.747
30759SOL     OW94173   4.628  14.461   3.234
30759SOL    HW194174   4.553  14.499   3.280
30759SOL    HW294175   4.697  14.527   3.242
30760SOL     OW94176   6.220  14.823   7.130
30760SOL    HW194177   6.214  14.766   7.053
30760SOL    HW294178   6.218   0.031   7.093
30761SOL     OW94179  10.841   6.827   3.042
30761SOL    HW194180  10.754   6.787   3.047
30761SOL    HW294181  10.854   6.842   2.948
30762SOL     OW94182  10.614   6.129   5.650
30762SOL    HW194183  10.522   6.107   5.635
30762SOL    HW294184  10.612   6.188   5.725
30763SOL     OW94185   5.790   0.232  13.030
30763SOL    HW194186   5.847   0.309  13.033
30763SOL    HW294187   5.810   0.190  12.946
30764SOL     OW94188  10.108   8.223  11.590
30764SOL    HW194189  10.151   8.166  11.526
30764SOL    HW294190  10.085   8.164  11.662
30765SOL     OW94191   3.629  10.885   7.506
30765SOL    HW194192   3.607  10.891   7.413
30765SOL    HW294193   3.599  10.967   7.544
30766SOL     OW94194   3.022   3.441   8.310
30766SOL    HW194195   3.112   3.463   8.336
30766SOL    HW294196   2.991   3.520   8.266
30767SOL     OW94197   6.337  11.906   2.878
30767SOL    HW194198   6.407  11.934   2.937
30767SOL    HW294199   6.314  11.818   2.908
30768SOL     OW94200  13.230   8.112  14.205
30768SOL    HW194201  13.202   8.021  14.217
30768SOL    HW294202  13.241   8.121  14.111
30769SOL     OW94203  10.813  10.667   6.877
30769SOL    HW194204  10.827  10.758   6.904
30769SOL    HW294205  10.895  10.623   6.900
30770SOL     OW94206  11.817   4.475   8.675
30770SOL    HW194207  11.770   4.396   8.648
30770SOL    HW294208  11.881   4.490   8.605
30771SOL     OW94209  10.381   6.557   9.032
30771SOL    HW194210  10.473   6.538   9.018
30771SOL    HW294211  10.350   6.485   9.087
30772SOL     OW94212  14.652  14.121  12.542
30772SOL    HW194213  14.720  14.053  12.535
30772SOL    HW294214  14.584  14.092  12.482
30773SOL     OW94215  12.246   2.210   5.380
30773SOL    HW194216  12.217   2.300   5.366
30773SOL    HW294217  12.323   2.201   5.324
30774SOL     OW94218  11.070   0.070   8.676
30774SOL    HW194219  10.979   0.050   8.654
30774SOL    HW294220  11.078   0.165   8.666
30775SOL     OW94221   8.244   2.612   2.544
30775SOL    HW194222   8.305   2.557   2.494
30775SOL    HW294223   8.259   2.700   2.510
30776SOL     OW94224  14.354   0.617  10.921
30776SOL    HW194225  14.423   0.646  10.862
30776SOL    HW294226  14.321   0.697  10.962
30777SOL     OW94227   1.672   7.398  10.121
30777SOL    HW194228   1.745   7.357  10.075
30777SOL    HW294229   1.711   7.438  10.198
30778SOL     OW94230   8.854   1.197   1.593
30778SOL    HW194231   8.782   1.139   1.569
30778SOL    HW294232   8.928   1.139   1.608
30779SOL     OW94233   0.297  14.386   0.512
30779SOL    HW194234   0.244  14.376   0.592
30779SOL    HW294235   0.387  14.387   0.544
30780SOL     OW94236   6.957   7.052   0.258
30780SOL    HW194237   7.051   7.065   0.272
30780SOL    HW294238   6.945   7.061   0.164
30781SOL     OW94239  13.416   4.836  10.395
30781SOL    HW194240  13.346   4.829  10.460
30781SOL    HW294241  13.491   4.868  10.445
30782SOL     OW94242  12.957   9.602   0.342
30782SOL    HW194243  12.885   9.573   0.286
30782SOL    HW294244  12.996   9.521   0.375
30783SOL     OW94245   0.102  11.492  13.700
30783SOL    HW194246   0.010  11.477  13.682
30783SOL    HW294247   0.142  11.405  13.700
30784SOL     OW94248   3.643   9.371  10.955
30784SOL    HW194249   3.730   9.356  10.919
30784SOL    HW294250   3.587   9.384  10.878
30785SOL     OW94251   7.165  14.586  11.783
30785SOL    HW194252   7.123  14.633  11.855
30785SOL    HW294253   7.136  14.495  11.792
30786SOL     OW94254   6.155  11.481  11.105
30786SOL    HW194255   6.232  11.466  11.051
30786SOL    HW294256   6.151  11.404  11.162
30787SOL     OW94257  13.545  11.383   9.321
30787SOL    HW194258  13.555  11.319   9.392
30787SOL    HW294259  13.577  11.338   9.243
30788SOL     OW94260   0.746   4.672   7.436
30788SOL    HW194261   0.722   4.629   7.354
30788SOL    HW294262   0.826   4.627   7.464
30789SOL     OW94263  14.664   0.399   0.922
30789SOL    HW194264  14.740   0.428   0.871
30789SOL    HW294265  14.677   0.437   1.009
30790SOL     OW94266  10.768   6.557  12.439
30790SOL    HW194267  10.693   6.505  12.469
30790SOL    HW294268  10.843   6.499  12.447
30791SOL     OW94269  12.848   8.205  12.498
30791SOL    HW194270  12.935   8.215  12.458
30791SOL    HW294271  12.831   8.111  12.494
30792SOL     OW94272   7.582   4.631  10.529
30792SOL    HW194273   7.524   4.638  10.453
30792SOL    HW294274   7.596   4.537  10.540
30793SOL     OW94275  11.941   4.221   2.351
30793SOL    HW194276  11.999   4.192   2.280
30793SOL    HW294277  11.988   4.196   2.431
30794SOL     OW94278   8.626  12.345   5.626
30794SOL    HW194279   8.674  12.286   5.684
30794SOL    HW294280   8.670  12.338   5.542
30795SOL     OW94281   5.078   4.687  11.119
30795SOL    HW194282   5.009   4.633  11.084
30795SOL    HW294283   5.034   4.743  11.184
30796SOL     OW94284  11.725   3.898   8.624
30796SOL    HW194285  11.797   3.859   8.676
30796SOL    HW294286  11.665   3.934   8.689
30797SOL     OW94287   6.414   6.959  12.288
30797SOL    HW194288   6.319   6.957  12.281
30797SOL    HW294289   6.437   6.877  12.332
30798SOL     OW94290   7.064   4.477   1.218
30798SOL    HW194291   7.132   4.430   1.171
30798SOL    HW294292   7.104   4.560   1.242
30799SOL     OW94293   4.455   4.880  14.624
30799SOL    HW194294   4.364   4.901  14.645
30799SOL    HW294295   4.503   4.906  14.702
30800SOL     OW94296  13.221  14.077  14.351
30800SOL    HW194297  13.182  14.012  14.292
30800SOL    HW294298  13.211  14.160  14.305
30801SOL     OW94299   2.092  10.758   2.984
30801SOL    HW194300   2.019  10.813   2.956
30801SOL    HW294301   2.109  10.700   2.910
30802SOL     OW94302  10.498   3.454  10.318
30802SOL    HW194303  10.408   3.482  10.331
30802SOL    HW294304  10.539   3.527  10.271
30803SOL     OW94305   5.872  13.234  12.542
30803SOL    HW194306   5.945  13.221  12.482
30803SOL    HW294307   5.905  13.296  12.607
30804SOL     OW94308   8.692   9.639   9.312
30804SOL    HW194309   8.625   9.680   9.258
30804SOL    HW294310   8.717   9.560   9.263
30805SOL     OW94311  10.865   3.747  10.998
30805SOL    HW194312  10.809   3.799  11.055
30805SOL    HW294313  10.866   3.795  10.915
30806SOL     OW94314  12.310   3.680   6.300
30806SOL    HW194315  12.259   3.658   6.378
30806SOL    HW294316  12.392   3.631   6.310
30807SOL     OW94317   2.112  14.245   1.854
30807SOL    HW194318   2.090  14.282   1.769
30807SOL    HW294319   2.176  14.176   1.835
30808SOL     OW94320   1.015  10.868  11.783
30808SOL    HW194321   1.020  10.786  11.735
30808SOL    HW294322   0.923  10.874  11.811
30809SOL     OW94323   1.791   8.685   4.804
30809SOL    HW194324   1.715   8.703   4.858
30809SOL    HW294325   1.829   8.771   4.785
30810SOL     OW94326   4.355   6.209   6.733
30810SOL    HW194327   4.381   6.301   6.742
30810SOL    HW294328   4.396   6.180   6.652
30811SOL     OW94329  10.753   4.688  10.307
30811SOL    HW194330  10.724   4.779  10.296
30811SOL    HW294331  10.693   4.653  10.374
30812SOL     OW94332  13.752   0.316  14.256
30812SOL    HW194333  13.716   0.398  14.222
30812SOL    HW294334  13.725   0.250  14.192
30813SOL     OW94335  11.547   4.824   9.866
30813SOL    HW194336  11.620   4.884   9.853
30813SOL    HW294337  11.566   4.781   9.950
30814SOL     OW94338   8.158   2.038   1.210
30814SOL    HW194339   8.192   2.049   1.121
30814SOL    HW294340   8.071   2.078   1.208
30815SOL     OW94341   0.700   2.283   8.008
30815SOL    HW194342   0.684   2.190   7.992
30815SOL    HW294343   0.612   2.321   8.015
30816SOL     OW94344   6.932  12.249  12.667
30816SOL    HW194345   6.910  12.340  12.649
30816SOL    HW294346   7.018  12.252  12.708
30817SOL     OW94347   4.885   1.428  11.432
30817SOL    HW194348   4.938   1.472  11.499
30817SOL    HW294349   4.795   1.439  11.461
30818SOL     OW94350   6.747   0.228  11.557
30818SOL    HW194351   6.790   0.313  11.563
30818SOL    HW294352   6.745   0.208  11.463
30819SOL     OW94353   8.613   3.465   3.940
30819SOL    HW194354   8.667   3.512   3.877
30819SOL    HW294355   8.523   3.481   3.911
30820SOL     OW94356  12.563   9.298   4.590
30820SOL    HW194357  12.549   9.355   4.515
30820SOL    HW294358  12.492   9.234   4.587
30821SOL     OW94359   2.225  10.991  13.580
30821SOL    HW194360   2.251  10.900  13.594
30821SOL    HW294361   2.190  11.019  13.665
30822SOL     OW94362  13.614   6.352  12.371
30822SOL    HW194363  13.702   6.357  12.410
30822SOL    HW294364  13.597   6.258  12.362
30823SOL     OW94365   3.942   2.361  12.893
30823SOL    HW194366   3.974   2.432  12.838
30823SOL    HW294367   4.020   2.326  12.935
30824SOL     OW94368   0.286   1.118   5.720
30824SOL    HW194369   0.312   1.141   5.809
30824SOL    HW294370   0.354   1.156   5.665
30825SOL     OW94371   2.601   0.088   0.925
30825SOL    HW194372   2.524   0.129   0.886
30825SOL    HW294373   2.634   0.153   0.986
30826SOL     OW94374  10.680   1.403   4.680
30826SOL    HW194375  10.667   1.435   4.591
30826SOL    HW294376  10.691   1.308   4.670
30827SOL     OW94377   6.389   4.895  10.941
30827SOL    HW194378   6.359   4.928  11.025
30827SOL    HW294379   6.421   4.973  10.894
30828SOL     OW94380   3.804   0.759  11.290
30828SOL    HW194381   3.750   0.820  11.239
30828SOL    HW294382   3.761   0.756  11.376
30829SOL     OW94383  14.327   2.405   7.123
30829SOL    HW194384  14.324   2.465   7.197
30829SOL    HW294385  14.253   2.346   7.136
30830SOL     OW94386   5.105   8.895   6.700
30830SOL    HW194387   5.110   8.987   6.673
30830SOL    HW294388   5.012   8.880   6.716
30831SOL     OW94389   6.681   1.660   3.712
30831SOL    HW194390   6.684   1.604   3.635
30831SOL    HW294391   6.587   1.666   3.733
30832SOL     OW94392   1.823  13.629  13.491
30832SOL    HW194393   1.916  13.617  13.476
30832SOL    HW294394   1.781  13.570  13.429
30833SOL     OW94395   0.351   4.757   1.420
30833SOL    HW194396   0.319   4.778   1.508
30833SOL    HW294397   0.445   4.774   1.424
30834SOL     OW94398  11.850   6.446   0.176
30834SOL    HW194399  11.808   6.441   0.090
30834SOL    HW294400  11.849   6.539   0.198
30835SOL     OW94401  13.431  13.904   6.504
30835SOL    HW194402  13.432  13.885   6.598
30835SOL    HW294403  13.356  13.854   6.471
30836SOL     OW94404  14.665   2.967   1.745
30836SOL    HW194405  14.642   2.943   1.835
30836SOL    HW294406  14.713   3.049   1.754
30837SOL     OW94407   1.570  12.053   6.834
30837SOL    HW194408   1.536  12.078   6.920
30837SOL    HW294409   1.502  12.080   6.772
30838SOL     OW94410  10.183   8.617  11.955
30838SOL    HW194411  10.233   8.616  12.037
30838SOL    HW294412  10.146   8.705  11.951
30839SOL     OW94413   7.787  13.225   9.249
30839SOL    HW194414   7.880  13.221   9.269
30839SOL    HW294415   7.782  13.231   9.154
30840SOL     OW94416   1.819   9.465   6.985
30840SOL    HW194417   1.797   9.499   6.898
30840SOL    HW294418   1.749   9.404   7.006
30841SOL     OW94419   6.237   2.047  11.298
30841SOL    HW194420   6.321   2.057  11.252
30841SOL    HW294421   6.260   2.049  11.391
30842SOL     OW94422  11.222   5.864   4.784
30842SOL    HW194423  11.166   5.877   4.707
30842SOL    HW294424  11.237   5.952   4.818
30843SOL     OW94425   3.699   0.268   4.480
30843SOL    HW194426   3.737   0.188   4.445
30843SOL    HW294427   3.755   0.338   4.446
30844SOL     OW94428   7.555  13.034  10.119
30844SOL    HW194429   7.486  13.043  10.052
30844SOL    HW294430   7.545  12.944  10.151
30845SOL     OW94431   9.723  13.001   6.208
30845SOL    HW194432   9.694  13.076   6.260
30845SOL    HW294433   9.734  13.036   6.120
30846SOL     OW94434  13.745   2.493   5.969
30846SOL    HW194435  13.728   2.582   5.939
30846SOL    HW294436  13.813   2.461   5.910
30847SOL     OW94437  11.448  12.549  10.116
30847SOL    HW194438  11.411  12.523  10.031
30847SOL    HW294439  11.539  12.572  10.097
30848SOL     OW94440   8.948   0.255   2.205
30848SOL    HW194441   8.866   0.303   2.219
30848SOL    HW294442   9.016   0.318   2.230
30849SOL     OW94443  11.758   1.418   1.582
30849SOL    HW194444  11.686   1.480   1.593
30849SOL    HW294445  11.835   1.473   1.569
30850SOL     OW94446  14.731   4.423   0.992
30850SOL    HW194447  14.748   4.517   0.990
30850SOL    HW294448  14.658   4.413   1.054
30851SOL     OW94449   3.784  11.954  10.831
30851SOL    HW194450   3.764  11.997  10.748
30851SOL    HW294451   3.699  11.947  10.875
30852SOL     OW94452  14.548   1.150  10.583
30852SOL    HW194453  14.555   1.111  10.495
30852SOL    HW294454  14.599   1.092  10.639
30853SOL     OW94455   8.870  11.861   5.761
30853SOL    HW194456   8.932  11.920   5.718
30853SOL    HW294457   8.924  11.795   5.803
30854SOL     OW94458  13.810   6.606   2.366
30854SOL    HW194459  13.762   6.528   2.395
30854SOL    HW294460  13.826   6.656   2.446
30855SOL     OW94461   8.133  14.417   2.636
30855SOL    HW194462   8.040  14.428   2.658
30855SOL    HW294463   8.180  14.454   2.711
30856SOL     OW94464   2.556   4.024   2.250
30856SOL    HW194465   2.513   3.973   2.181
30856SOL    HW294466   2.633   4.061   2.208
30857SOL     OW94467   2.064   4.526  13.761
30857SOL    HW194468   2.151   4.485  13.760
30857SOL    HW294469   2.011   4.468  13.815
30858SOL     OW94470   6.744  13.178   7.579
30858SOL    HW194471   6.684  13.109   7.549
30858SOL    HW294472   6.830  13.150   7.548
30859SOL     OW94473  11.599   4.828  11.145
30859SOL    HW194474  11.692   4.834  11.167
30859SOL    HW294475  11.565   4.916  11.161
30860SOL     OW94476   4.483  10.799   6.469
30860SOL    HW194477   4.427  10.840   6.403
30860SOL    HW294478   4.563  10.777   6.422
30861SOL     OW94479   1.912  13.836   0.747
30861SOL    HW194480   1.886  13.874   0.663
30861SOL    HW294481   1.985  13.778   0.726
30862SOL     OW94482  11.556   2.014   8.139
30862SOL    HW194483  11.637   2.009   8.089
30862SOL    HW294484  11.511   2.090   8.104
30863SOL     OW94485   7.734  11.289   7.821
30863SOL    HW194486   7.789  11.298   7.899
30863SOL    HW294487   7.747  11.198   7.793
30864SOL     OW94488  13.621  13.272   4.641
30864SOL    HW194489  13.670  13.323   4.578
30864SOL    HW294490  13.534  13.262   4.602
30865SOL     OW94491   1.618   0.196  11.359
30865SOL    HW194492   1.706   0.188  11.323
30865SOL    HW294493   1.600   0.110  11.397
30866SOL     OW94494   7.235   7.672   9.464
30866SOL    HW194495   7.240   7.576   9.464
30866SOL    HW294496   7.168   7.692   9.398
30867SOL     OW94497   9.249   6.892   0.690
30867SOL    HW194498   9.268   6.801   0.714
30867SOL    HW294499   9.233   6.935   0.774
30868SOL     OW94500   2.487   1.670   2.776
30868SOL    HW194501   2.530   1.586   2.759
30868SOL    HW294502   2.403   1.647   2.815
30869SOL     OW94503   3.819  11.175   4.374
30869SOL    HW194504   3.831  11.149   4.282
30869SOL    HW294505   3.802  11.093   4.420
30870SOL     OW94506   0.247   2.508   5.257
30870SOL    HW194507   0.200   2.591   5.250
30870SOL    HW294508   0.260   2.495   5.351
30871SOL     OW94509  12.111   2.930  10.283
30871SOL    HW194510  12.102   3.007  10.226
30871SOL    HW294511  12.071   2.956  10.365
30872SOL     OW94512  14.316   1.039  12.664
30872SOL    HW194513  14.274   0.976  12.723
30872SOL    HW294514  14.277   1.023  12.579
30873SOL     OW94515   9.661   8.626  13.437
30873SOL    HW194516   9.653   8.561  13.367
30873SOL    HW294517   9.570   8.652  13.455
30874SOL     OW94518   4.629   6.092  14.824
30874SOL    HW194519   4.679   6.010  14.826
30874SOL    HW294520   4.696   6.160  14.830
30875SOL     OW94521   9.240   7.122   4.034
30875SOL    HW194522   9.206   7.143   3.947
30875SOL    HW294523   9.228   7.028   4.043
30876SOL     OW94524  13.476   6.947   2.101
30876SOL    HW194525  13.433   7.030   2.122
30876SOL    HW294526  13.480   6.946   2.005
30877SOL     OW94527   8.405   6.898   2.304
30877SOL    HW194528   8.392   6.816   2.254
30877SOL    HW294529   8.317   6.923   2.330
30878SOL     OW94530  10.768  11.606  13.512
30878SOL    HW194531  10.804  11.558  13.586
30878SOL    HW294532  10.808  11.565  13.435
30879SOL     OW94533  11.766   1.236  13.866
30879SOL    HW194534  11.845   1.257  13.916
30879SOL    HW294535  11.699   1.219  13.932
30880SOL     OW94536   0.161   8.436   0.114
30880SOL    HW194537   0.140   8.486   0.193
30880SOL    HW294538   0.097   8.466   0.049
30881SOL     OW94539   5.689  13.561  11.663
30881SOL    HW194540   5.700  13.654  11.642
30881SOL    HW294541   5.772  13.521  11.636
30882SOL     OW94542   4.116   1.347   8.100
30882SOL    HW194543   4.036   1.365   8.050
30882SOL    HW294544   4.171   1.424   8.086
30883SOL     OW94545  10.543   7.966  13.220
30883SOL    HW194546  10.594   7.958  13.139
30883SOL    HW294547  10.592   7.915  13.284
30884SOL     OW94548   1.978   6.051   7.600
30884SOL    HW194549   1.895   6.051   7.647
30884SOL    HW294550   1.977   5.970   7.548
30885SOL     OW94551   7.015   7.177   3.648
30885SOL    HW194552   7.047   7.097   3.607
30885SOL    HW294553   6.940   7.149   3.701
30886SOL     OW94554  12.777  10.560  12.439
30886SOL    HW194555  12.824  10.627  12.489
30886SOL    HW294556  12.694  10.548  12.485
30887SOL     OW94557  10.474   4.205   1.577
30887SOL    HW194558  10.432   4.151   1.510
30887SOL    HW294559  10.458   4.158   1.659
30888SOL     OW94560   6.459   2.603   8.202
30888SOL    HW194561   6.546   2.609   8.163
30888SOL    HW294562   6.404   2.659   8.148
30889SOL     OW94563   0.325   1.683  13.256
30889SOL    HW194564   0.307   1.602  13.304
30889SOL    HW294565   0.315   1.659  13.164
30890SOL     OW94566   0.987   2.289  11.165
30890SOL    HW194567   0.946   2.212  11.125
30890SOL    HW294568   0.966   2.360  11.105
30891SOL     OW94569   0.333  10.854   0.721
30891SOL    HW194570   0.240  10.865   0.739
30891SOL    HW294571   0.338  10.840   0.627
30892SOL     OW94572  14.089  13.537   8.938
30892SOL    HW194573  14.063  13.446   8.930
30892SOL    HW294574  14.059  13.578   8.856
30893SOL     OW94575   8.334   9.510  14.404
30893SOL    HW194576   8.369   9.480  14.320
30893SOL    HW294577   8.371   9.597  14.415
30894SOL     OW94578   8.420   1.615   7.892
30894SOL    HW194579   8.452   1.641   7.979
30894SOL    HW294580   8.432   1.693   7.838
30895SOL     OW94581  10.418   8.146   0.887
30895SOL    HW194582  10.351   8.099   0.936
30895SOL    HW294583  10.464   8.078   0.838
30896SOL     OW94584   3.265   5.653   3.528
30896SOL    HW194585   3.346   5.646   3.478
30896SOL    HW294586   3.206   5.703   3.471
30897SOL     OW94587   3.000  10.647   0.862
30897SOL    HW194588   3.044  10.709   0.804
30897SOL    HW294589   2.918  10.627   0.817
30898SOL     OW94590   4.405   0.386   9.566
30898SOL    HW194591   4.416   0.314   9.628
30898SOL    HW294592   4.435   0.349   9.482
30899SOL     OW94593  10.170  12.316   8.259
30899SOL    HW194594  10.235  12.273   8.203
30899SOL    HW294595  10.167  12.261   8.338
30900SOL     OW94596   9.908  13.855  14.486
30900SOL    HW194597   9.989  13.804  14.488
30900SOL    HW294598   9.934  13.942  14.517
30901SOL     OW94599   3.337  14.171  10.558
30901SOL    HW194600   3.333  14.161  10.463
30901SOL    HW294601   3.409  14.233  10.572
30902SOL     OW94602   3.867  12.168   2.887
30902SOL    HW194603   3.962  12.161   2.876
30902SOL    HW294604   3.856  12.194   2.979
30903SOL     OW94605  13.981   0.385   6.016
30903SOL    HW194606  13.920   0.313   6.034
30903SOL    HW294607  13.962   0.450   6.084
30904SOL     OW94608   7.510   2.792   8.379
30904SOL    HW194609   7.472   2.844   8.450
30904SOL    HW294610   7.590   2.839   8.355
30905SOL     OW94611  14.763  13.982   1.728
30905SOL    HW194612  14.778  14.068   1.688
30905SOL    HW294613  14.842  13.965   1.780
30906SOL     OW94614  12.763   8.504   5.634
30906SOL    HW194615  12.853   8.531   5.615
30906SOL    HW294616  12.733   8.567   5.700
30907SOL     OW94617  11.166   4.384  14.552
30907SOL    HW194618  11.211   4.463  14.582
30907SOL    HW294619  11.109   4.359  14.625
30908SOL     OW94620  12.096   1.961   8.687
30908SOL    HW194621  12.045   1.926   8.760
30908SOL    HW294622  12.112   1.886   8.630
30909SOL     OW94623   9.700   3.442   8.434
30909SOL    HW194624   9.781   3.419   8.390
30909SOL    HW294625   9.655   3.358   8.447
30910SOL     OW94626   8.814   8.459   8.540
30910SOL    HW194627   8.790   8.395   8.607
30910SOL    HW294628   8.857   8.529   8.589
30911SOL     OW94629   1.362   8.262  12.377
30911SOL    HW194630   1.398   8.175  12.394
30911SOL    HW294631   1.340   8.261  12.284
30912SOL     OW94632  10.451   6.231   7.464
30912SOL    HW194633  10.359   6.247   7.440
30912SOL    HW294634  10.461   6.136   7.458
30913SOL     OW94635   2.746  12.406   6.417
30913SOL    HW194636   2.761  12.490   6.460
30913SOL    HW294637   2.823  12.354   6.438
30914SOL     OW94638   4.402  12.428  11.819
30914SOL    HW194639   4.401  12.335  11.795
30914SOL    HW294640   4.396  12.428  11.914
30915SOL     OW94641  12.223   9.560  13.064
30915SOL    HW194642  12.210   9.646  13.104
30915SOL    HW294643  12.304   9.568  13.013
30916SOL     OW94644   9.383  11.177  12.697
30916SOL    HW194645   9.474  11.195  12.723
30916SOL    HW294646   9.354  11.108  12.756
30917SOL     OW94647   4.235  12.518   8.433
30917SOL    HW194648   4.154  12.568   8.429
30917SOL    HW294649   4.232  12.474   8.518
30918SOL     OW94650   6.033   1.424   4.168
30918SOL    HW194651   6.073   1.355   4.115
30918SOL    HW294652   6.107   1.478   4.196
30919SOL     OW94653   0.056   9.530  14.726
30919SOL    HW194654   0.084   9.552  14.637
30919SOL    HW294655   0.049   9.434  14.726
30920SOL     OW94656  11.160   2.070   3.443
30920SOL    HW194657  11.237   2.067   3.385
30920SOL    HW294658  11.092   2.023   3.394
30921SOL     OW94659  14.204   9.698   7.682
30921SOL    HW194660  14.200   9.705   7.586
30921SOL    HW294661  14.197   9.603   7.698
30922SOL     OW94662   6.207   2.820   3.763
30922SOL    HW194663   6.273   2.865   3.816
30922SOL    HW294664   6.145   2.889   3.738
30923SOL     OW94665   6.270   7.194   3.729
30923SOL    HW194666   6.289   7.200   3.822
30923SOL    HW294667   6.316   7.269   3.690
30924SOL     OW94668  12.015   6.422  10.331
30924SOL    HW194669  11.960   6.496  10.305
30924SOL    HW294670  12.043   6.383  10.248
30925SOL     OW94671   0.377  12.439   9.352
30925SOL    HW194672   0.332  12.440   9.268
30925SOL    HW294673   0.419  12.353   9.355
30926SOL     OW94674   4.766  13.129  10.641
30926SOL    HW194675   4.846  13.142  10.590
30926SOL    HW294676   4.797  13.116  10.731
30927SOL     OW94677  14.720   2.804  11.798
30927SOL    HW194678  14.629   2.782  11.779
30927SOL    HW294679  14.725   2.807  11.894
30928SOL     OW94680  13.865  12.787   3.377
30928SOL    HW194681  13.793  12.724   3.387
30928SOL    HW294682  13.941  12.742   3.413
30929SOL     OW94683  10.450   0.911   7.007
30929SOL    HW194684  10.400   0.855   6.947
30929SOL    HW294685  10.460   0.994   6.960
30930SOL     OW94686   7.549   5.723   9.172
30930SOL    HW194687   7.604   5.648   9.151
30930SOL    HW294688   7.473   5.714   9.114
30931SOL     OW94689  14.468   4.601  10.921
30931SOL    HW194690  14.439   4.510  10.912
30931SOL    HW294691  14.563   4.597  10.911
30932SOL     OW94692   7.014   6.100  14.546
30932SOL    HW194693   6.963   6.155  14.486
30932SOL    HW294694   6.959   6.024  14.562
30933SOL     OW94695   5.876   7.483   2.398
30933SOL    HW194696   5.823   7.558   2.422
30933SOL    HW294697   5.858   7.418   2.466
30934SOL     OW94698   8.142   6.061   9.350
30934SOL    HW194699   8.183   6.066   9.437
30934SOL    HW294700   8.137   6.152   9.321
30935SOL     OW94701   0.232   6.830   3.122
30935SOL    HW194702   0.308   6.833   3.063
30935SOL    HW294703   0.248   6.753   3.176
30936SOL     OW94704   8.565   6.912   9.621
30936SOL    HW194705   8.635   6.931   9.558
30936SOL    HW294706   8.611   6.895   9.703
30937SOL     OW94707  11.659   7.314  12.522
30937SOL    HW194708  11.742   7.270  12.543
30937SOL    HW294709  11.619   7.259  12.455
30938SOL     OW94710   1.580  13.065   8.683
30938SOL    HW194711   1.558  12.974   8.665
30938SOL    HW294712   1.508  13.097   8.738
30939SOL     OW94713  13.835   5.025  11.513
30939SOL    HW194714  13.790   4.985  11.588
30939SOL    HW294715  13.903   5.079  11.553
30940SOL     OW94716  13.523   7.527   9.135
30940SOL    HW194717  13.475   7.610   9.130
30940SOL    HW294718  13.597   7.539   9.075
30941SOL     OW94719   3.131   1.337  10.537
30941SOL    HW194720   3.148   1.381  10.453
30941SOL    HW294721   3.193   1.263  10.538
30942SOL     OW94722   2.408  14.661   5.611
30942SOL    HW194723   2.490  14.647   5.564
30942SOL    HW294724   2.392  14.578   5.656
30943SOL     OW94725   0.238   0.853  10.490
30943SOL    HW194726   0.315   0.816  10.447
30943SOL    HW294727   0.222   0.795  10.564
30944SOL     OW94728  10.507   0.446   2.124
30944SOL    HW194729  10.443   0.397   2.072
30944SOL    HW294730  10.538   0.383   2.190
30945SOL     OW94731  11.613   5.312  11.813
30945SOL    HW194732  11.648   5.398  11.840
30945SOL    HW294733  11.690   5.263  11.785
30946SOL     OW94734   9.166  11.225   9.219
30946SOL    HW194735   9.087  11.211   9.270
30946SOL    HW294736   9.178  11.143   9.171
30947SOL     OW94737   3.506  12.918   1.224
30947SOL    HW194738   3.440  12.988   1.217
30947SOL    HW294739   3.474  12.849   1.167
30948SOL     OW94740   4.550   9.003  12.616
30948SOL    HW194741   4.608   8.932  12.643
30948SOL    HW294742   4.579   9.026  12.528
30949SOL     OW94743  11.052  10.152   4.759
30949SOL    HW194744  11.092  10.094   4.694
30949SOL    HW294745  11.100  10.235   4.750
30950SOL     OW94746  12.406  11.257   5.530
30950SOL    HW194747  12.414  11.226   5.439
30950SOL    HW294748  12.446  11.344   5.529
30951SOL     OW94749  11.738   2.668   9.464
30951SOL    HW194750  11.829   2.637   9.468
30951SOL    HW294751  11.711   2.650   9.374
30952SOL     OW94752   4.612   4.924   5.426
30952SOL    HW194753   4.646   4.963   5.506
30952SOL    HW294754   4.586   4.999   5.372
30953SOL     OW94755  11.506   3.261   5.376
30953SOL    HW194756  11.496   3.182   5.323
30953SOL    HW294757  11.600   3.281   5.373
30954SOL     OW94758   3.024   5.407   8.451
30954SOL    HW194759   3.083   5.444   8.385
30954SOL    HW294760   3.022   5.473   8.521
30955SOL     OW94761   1.908  14.678   4.699
30955SOL    HW194762   1.983  14.691   4.757
30955SOL    HW294763   1.860  14.761   4.703
30956SOL     OW94764  10.923   8.593   0.778
30956SOL    HW194765  10.909   8.666   0.838
30956SOL    HW294766  10.994   8.543   0.818
30957SOL     OW94767   4.234  13.952   3.653
30957SOL    HW194768   4.302  14.013   3.625
30957SOL    HW294769   4.208  13.982   3.740
30958SOL     OW94770  14.045   0.771   5.694
30958SOL    HW194771  13.975   0.754   5.631
30958SOL    HW294772  14.083   0.684   5.710
30959SOL     OW94773   1.644   4.690   7.694
30959SOL    HW194774   1.603   4.678   7.780
30959SOL    HW294775   1.738   4.686   7.711
30960SOL     OW94776  12.385   8.677   4.200
30960SOL    HW194777  12.392   8.585   4.226
30960SOL    HW294778  12.466   8.694   4.151
30961SOL     OW94779  14.000   0.467   9.671
30961SOL    HW194780  13.965   0.555   9.687
30961SOL    HW294781  13.997   0.457   9.576
30962SOL     OW94782  10.086   8.614   8.096
30962SOL    HW194783  10.139   8.657   8.164
30962SOL    HW294784  10.085   8.522   8.122
30963SOL     OW94785  10.338   0.502   5.922
30963SOL    HW194786  10.279   0.534   5.854
30963SOL    HW294787  10.296   0.423   5.956
30964SOL     OW94788  10.172   6.868   0.430
30964SOL    HW194789  10.122   6.913   0.498
30964SOL    HW294790  10.143   6.777   0.435
30965SOL     OW94791  13.363   2.240   4.440
30965SOL    HW194792  13.324   2.195   4.364
30965SOL    HW294793  13.446   2.274   4.407
30966SOL     OW94794   3.887  12.869   8.667
30966SOL    HW194795   3.923  12.949   8.630
30966SOL    HW294796   3.796  12.890   8.688
30967SOL     OW94797  13.514  14.213  14.243
30967SOL    HW194798  13.511  14.125  14.205
30967SOL    HW294799  13.478  14.202  14.331
30968SOL     OW94800  13.123   6.683   4.769
30968SOL    HW194801  13.032   6.711   4.762
30968SOL    HW294802  13.118   6.593   4.800
30969SOL     OW94803   0.398   2.644   9.727
30969SOL    HW194804   0.367   2.555   9.706
30969SOL    HW294805   0.424   2.639   9.819
30970SOL     OW94806   3.129   3.710   2.314
30970SOL    HW194807   3.171   3.745   2.392
30970SOL    HW294808   3.121   3.786   2.255
30971SOL     OW94809   9.456   5.065  11.875
30971SOL    HW194810   9.511   5.127  11.827
30971SOL    HW294811   9.518   5.001  11.910
30972SOL     OW94812   2.859   8.355   4.875
30972SOL    HW194813   2.830   8.395   4.957
30972SOL    HW294814   2.849   8.424   4.809
30973SOL     OW94815   3.290   6.020   1.179
30973SOL    HW194816   3.227   6.064   1.122
30973SOL    HW294817   3.267   5.928   1.173
30974SOL     OW94818   4.334   1.016   7.843
30974SOL    HW194819   4.282   1.095   7.831
30974SOL    HW294820   4.413   1.031   7.791
30975SOL     OW94821   5.266  10.397  10.364
30975SOL    HW194822   5.330  10.351  10.418
30975SOL    HW294823   5.300  10.389  10.275
30976SOL     OW94824   7.145   0.189  13.642
30976SOL    HW194825   7.212   0.125  13.668
30976SOL    HW294826   7.194   0.271  13.632
30977SOL     OW94827   2.188  14.204  14.238
30977SOL    HW194828   2.251  14.254  14.289
30977SOL    HW294829   2.158  14.265  14.170
30978SOL     OW94830  14.708   4.047  13.594
30978SOL    HW194831  14.768   3.995  13.540
30978SOL    HW294832  14.699   3.996  13.675
30979SOL     OW94833  12.850  12.621   2.342
30979SOL    HW194834  12.925  12.573   2.308
30979SOL    HW294835  12.875  12.714   2.336
30980SOL     OW94836   4.969   5.619   1.903
30980SOL    HW194837   4.949   5.692   1.844
30980SOL    HW294838   5.065   5.614   1.903
30981SOL     OW94839  11.955   1.480   3.082
30981SOL    HW194840  11.994   1.517   3.161
30981SOL    HW294841  11.871   1.444   3.110
30982SOL     OW94842   1.818   1.546  10.066
30982SOL    HW194843   1.754   1.477  10.046
30982SOL    HW294844   1.824   1.598   9.986
30983SOL     OW94845   7.732  11.009   7.739
30983SOL    HW194846   7.694  10.947   7.801
30983SOL    HW294847   7.808  10.963   7.702
30984SOL     OW94848   9.674   5.904   9.963
30984SOL    HW194849   9.713   5.846   9.898
30984SOL    HW294850   9.745   5.924  10.024
30985SOL     OW94851   1.550   2.339  11.853
30985SOL    HW194852   1.560   2.404  11.922
30985SOL    HW294853   1.611   2.269  11.877
30986SOL     OW94854   3.784  12.564   1.025
30986SOL    HW194855   3.819  12.620   1.095
30986SOL    HW294856   3.833  12.482   1.033
30987SOL     OW94857  11.659   1.893   9.632
30987SOL    HW194858  11.612   1.834   9.573
30987SOL    HW294859  11.592   1.956   9.660
30988SOL     OW94860  10.400  12.103  10.469
30988SOL    HW194861  10.473  12.088  10.409
30988SOL    HW294862  10.372  12.193  10.451
30989SOL     OW94863   0.612   0.976  14.358
30989SOL    HW194864   0.604   1.066  14.390
30989SOL    HW294865   0.661   0.931  14.426
30990SOL     OW94866  10.837   3.326   4.171
30990SOL    HW194867  10.814   3.233   4.173
30990SOL    HW294868  10.809   3.360   4.255
30991SOL     OW94869  13.482   7.143   0.385
30991SOL    HW194870  13.408   7.096   0.344
30991SOL    HW294871  13.558   7.088   0.365
30992SOL     OW94872   1.737  10.621   8.346
30992SOL    HW194873   1.807  10.616   8.411
30992SOL    HW294874   1.771  10.681   8.279
30993SOL     OW94875   0.768   8.935  14.308
30993SOL    HW194876   0.819   8.907  14.383
30993SOL    HW294877   0.729   9.018  14.335
30994SOL     OW94878   6.723   9.162  11.523
30994SOL    HW194879   6.726   9.072  11.492
30994SOL    HW294880   6.688   9.212  11.449
30995SOL     OW94881  10.334  11.121  14.567
30995SOL    HW194882  10.405  11.112  14.631
30995SOL    HW294883  10.254  11.113  14.619
30996SOL     OW94884   7.517   1.688  10.749
30996SOL    HW194885   7.434   1.708  10.791
30996SOL    HW294886   7.577   1.670  10.821
30997SOL     OW94887  13.848  14.388   1.745
30997SOL    HW194888  13.851  14.325   1.673
30997SOL    HW294889  13.782  14.452   1.718
30998SOL     OW94890  13.486  14.216   5.776
30998SOL    HW194891  13.494  14.157   5.852
30998SOL    HW294892  13.485  14.304   5.814
30999SOL     OW94893   6.120   1.451  14.280
30999SOL    HW194894   6.155   1.524  14.330
30999SOL    HW294895   6.055   1.490  14.222
31000SOL     OW94896   9.805   5.319   6.081
31000SOL    HW194897   9.717   5.351   6.103
31000SOL    HW294898   9.855   5.398   6.064
31001SOL     OW94899   9.720   6.090   2.144
31001SOL    HW194900   9.678   6.103   2.229
31001SOL    HW294901   9.672   6.147   2.084
31002SOL     OW94902   5.831   9.774  13.791
31002SOL    HW194903   5.894   9.809  13.728
31002SOL    HW294904   5.780   9.711  13.741
31003SOL     OW94905   3.742   5.042  10.056
31003SOL    HW194906   3.774   5.132  10.053
31003SOL    HW294907   3.807   4.995  10.108
31004SOL     OW94908  12.340   3.157  14.469
31004SOL    HW194909  12.362   3.068  14.496
31004SOL    HW294910  12.414   3.210  14.499
31005SOL     OW94911  12.668   7.536   9.125
31005SOL    HW194912  12.613   7.530   9.046
31005SOL    HW294913  12.757   7.540   9.091
31006SOL     OW94914   9.809   6.621   1.585
31006SOL    HW194915   9.889   6.673   1.588
31006SOL    HW294916   9.739   6.684   1.606
31007SOL     OW94917   0.596   0.957   9.195
31007SOL    HW194918   0.579   0.990   9.107
31007SOL    HW294919   0.632   0.869   9.182
31008SOL     OW94920  12.386  11.305  10.292
31008SOL    HW194921  12.446  11.339  10.226
31008SOL    HW294922  12.379  11.212  10.274
31009SOL     OW94923   3.840   5.171   6.879
31009SOL    HW194924   3.776   5.166   6.808
31009SOL    HW294925   3.835   5.085   6.921
31010SOL     OW94926   2.034  14.284   8.943
31010SOL    HW194927   1.943  14.307   8.925
31010SOL    HW294928   2.031  14.189   8.960
31011SOL     OW94929  11.807   7.472   9.703
31011SOL    HW194930  11.760   7.473   9.619
31011SOL    HW294931  11.747   7.426   9.763
31012SOL     OW94932  14.796   1.331   3.035
31012SOL    HW194933  14.870   1.389   3.016
31012SOL    HW294934  14.831   1.243   3.023
31013SOL     OW94935  14.085   0.368   9.903
31013SOL    HW194936  14.017   0.376   9.969
31013SOL    HW294937  14.044   0.399   9.822
31014SOL     OW94938   5.805  12.222   6.140
31014SOL    HW194939   5.793  12.160   6.068
31014SOL    HW294940   5.800  12.308   6.099
31015SOL     OW94941  11.352   1.293   1.856
31015SOL    HW194942  11.317   1.311   1.769
31015SOL    HW294943  11.421   1.229   1.842
31016SOL     OW94944   4.391   5.411   1.724
31016SOL    HW194945   4.455   5.407   1.653
31016SOL    HW294946   4.424   5.480   1.782
31017SOL     OW94947  13.343   1.394   0.480
31017SOL    HW194948  13.248   1.379   0.474
31017SOL    HW294949  13.382   1.310   0.454
31018SOL     OW94950  10.373  14.166  12.281
31018SOL    HW194951  10.438  14.106  12.245
31018SOL    HW294952  10.303  14.168  12.216
31019SOL     OW94953   5.683  10.880   5.629
31019SOL    HW194954   5.598  10.840   5.645
31019SOL    HW294955   5.663  10.970   5.604
31020SOL     OW94956   2.474  11.842   3.277
31020SOL    HW194957   2.536  11.843   3.204
31020SOL    HW294958   2.523  11.805   3.350
31021SOL     OW94959   3.858   0.513  10.475
31021SOL    HW194960   3.903   0.435  10.506
31021SOL    HW294961   3.805   0.541  10.550
31022SOL     OW94962   6.446  10.649   7.743
31022SOL    HW194963   6.452  10.646   7.647
31022SOL    HW294964   6.369  10.703   7.760
31023SOL     OW94965  11.787  12.141  10.729
31023SOL    HW194966  11.805  12.048  10.732
31023SOL    HW294967  11.700  12.148  10.689
31024SOL     OW94968   4.429   2.717   9.149
31024SOL    HW194969   4.444   2.807   9.120
31024SOL    HW294970   4.334   2.707   9.150
31025SOL     OW94971   4.115  11.534  13.075
31025SOL    HW194972   4.189  11.493  13.030
31025SOL    HW294973   4.108  11.488  13.158
31026SOL     OW94974  13.263   6.687   2.163
31026SOL    HW194975  13.271   6.774   2.203
31026SOL    HW294976  13.284   6.701   2.070
31027SOL     OW94977   9.434   1.643  14.224
31027SOL    HW194978   9.393   1.727  14.204
31027SOL    HW294979   9.468   1.612  14.140
31028SOL     OW94980   6.292   4.784  12.952
31028SOL    HW194981   6.232   4.783  13.027
31028SOL    HW294982   6.262   4.713  12.896
31029SOL     OW94983  12.295  13.413   0.668
31029SOL    HW194984  12.286  13.474   0.595
31029SOL    HW294985  12.240  13.339   0.644
31030SOL     OW94986   7.612   7.084   6.026
31030SOL    HW194987   7.642   6.993   6.028
31030SOL    HW294988   7.559   7.093   6.105
31031SOL     OW94989  11.779   7.916   5.910
31031SOL    HW194990  11.747   7.861   5.981
31031SOL    HW294991  11.852   7.965   5.949
31032SOL     OW94992  13.010  14.623   8.959
31032SOL    HW194993  13.019  14.565   8.883
31032SOL    HW294994  13.087  14.680   8.953
31033SOL     OW94995   3.498   9.905   4.196
31033SOL    HW194996   3.554   9.841   4.153
31033SOL    HW294997   3.410   9.885   4.165
31034SOL     OW94998   1.221   5.592   2.951
31034SOL    HW194999   1.310   5.609   2.919
31034SOL    HW295000   1.227   5.508   2.995
31035SOL     OW95001   3.306   5.665   6.910
31035SOL    HW195002   3.292   5.757   6.888
31035SOL    HW295003   3.391   5.662   6.952
31036SOL     OW95004   4.312  10.523  13.425
31036SOL    HW195005   4.345  10.609  13.451
31036SOL    HW295006   4.378  10.461  13.458
31037SOL     OW95007   5.006   4.947  14.564
31037SOL    HW195008   5.088   4.900  14.575
31037SOL    HW295009   5.030   5.028  14.520
31038SOL     OW95010   9.676   9.765   9.228
31038SOL    HW195011   9.586   9.748   9.200
31038SOL    HW295012   9.673   9.852   9.268
31039SOL     OW95013   2.508  12.014  14.334
31039SOL    HW195014   2.503  12.066  14.254
31039SOL    HW295015   2.578  12.056  14.385
31040SOL     OW95016   2.048   6.979   0.912
31040SOL    HW195017   2.034   6.964   0.818
31040SOL    HW295018   2.087   7.066   0.917
31041SOL     OW95019   7.862   9.126   6.102
31041SOL    HW195020   7.789   9.138   6.162
31041SOL    HW295021   7.824   9.082   6.026
31042SOL     OW95022   4.626   9.866  14.259
31042SOL    HW195023   4.553   9.805  14.271
31042SOL    HW295024   4.601   9.919  14.183
31043SOL     OW95025   0.421   9.379  10.754
31043SOL    HW195026   0.432   9.315  10.824
31043SOL    HW295027   0.330   9.409  10.763
31044SOL     OW95028   7.909   1.302   9.774
31044SOL    HW195029   7.884   1.325   9.863
31044SOL    HW295030   7.918   1.207   9.775
31045SOL     OW95031   2.457  13.394  11.463
31045SOL    HW195032   2.457  13.321  11.402
31045SOL    HW295033   2.506  13.363  11.539
31046SOL     OW95034  10.095  10.641   0.826
31046SOL    HW195035  10.153  10.623   0.752
31046SOL    HW295036  10.007  10.639   0.789
31047SOL     OW95037   4.993   2.203   1.064
31047SOL    HW195038   5.057   2.251   1.117
31047SOL    HW295039   4.912   2.252   1.075
31048SOL     OW95040   6.518   0.441  10.405
31048SOL    HW195041   6.488   0.501  10.337
31048SOL    HW295042   6.568   0.374  10.358
31049SOL     OW95043   3.946   0.867   7.054
31049SOL    HW195044   4.017   0.885   6.992
31049SOL    HW295045   3.978   0.793   7.106
31050SOL     OW95046   6.169   0.964   5.089
31050SOL    HW195047   6.218   1.041   5.119
31050SOL    HW295048   6.152   0.914   5.169
31051SOL     OW95049   9.640  13.459   3.284
31051SOL    HW195050   9.675  13.483   3.198
31051SOL    HW295051   9.709  13.404   3.323
31052SOL     OW95052  11.745   7.556  14.531
31052SOL    HW195053  11.726   7.644  14.499
31052SOL    HW295054  11.771   7.569  14.622
31053SOL     OW95055   5.784  10.684  10.473
31053SOL    HW195056   5.828  10.721  10.397
31053SOL    HW295057   5.852  10.633  10.517
31054SOL     OW95058  13.374  13.943   2.626
31054SOL    HW195059  13.326  13.983   2.554
31054SOL    HW295060  13.415  13.865   2.589
31055SOL     OW95061   1.630   9.700   4.534
31055SOL    HW195062   1.698   9.633   4.542
31055SOL    HW295063   1.677   9.783   4.541
31056SOL     OW95064   2.474   2.885   0.896
31056SOL    HW195065   2.455   2.792   0.897
31056SOL    HW295066   2.558   2.893   0.942
31057SOL     OW95067   4.280  10.551   0.714
31057SOL    HW195068   4.205  10.564   0.657
31057SOL    HW295069   4.346  10.613   0.682
31058SOL     OW95070   2.979   0.127  14.650
31058SOL    HW195071   2.973   0.195  14.717
31058SOL    HW295072   3.073   0.111  14.640
31059SOL     OW95073   8.901  12.294   5.354
31059SOL    HW195074   8.807  12.285   5.342
31059SOL    HW295075   8.917  12.389   5.352
31060SOL     OW95076   7.644   1.265   4.530
31060SOL    HW195077   7.572   1.260   4.593
31060SOL    HW295078   7.660   1.175   4.504
31061SOL     OW95079   6.200  12.636   5.853
31061SOL    HW195080   6.180  12.724   5.886
31061SOL    HW295081   6.294  12.638   5.836
31062SOL     OW95082  11.779   3.151  10.856
31062SOL    HW195083  11.852   3.111  10.904
31062SOL    HW295084  11.717   3.079  10.843
31063SOL     OW95085   6.733   6.500   3.489
31063SOL    HW195086   6.799   6.498   3.558
31063SOL    HW295087   6.688   6.583   3.502
31064SOL     OW95088  11.044   0.663  12.239
31064SOL    HW195089  11.122   0.717  12.223
31064SOL    HW295090  10.978   0.725  12.271
31065SOL     OW95091  12.817  12.744  14.635
31065SOL    HW195092  12.847  12.772  14.721
31065SOL    HW295093  12.777  12.658  14.650
31066SOL     OW95094   3.975  12.357  10.688
31066SOL    HW195095   3.922  12.377  10.610
31066SOL    HW295096   3.969  12.435  10.742
31067SOL     OW95097   3.424   7.671  12.943
31067SOL    HW195098   3.378   7.719  12.874
31067SOL    HW295099   3.508   7.648  12.904
31068SOL     OW95100  11.299   6.135   4.522
31068SOL    HW195101  11.214   6.120   4.562
31068SOL    HW295102  11.287   6.213   4.467
31069SOL     OW95103   2.191   0.850  11.586
31069SOL    HW195104   2.139   0.908  11.530
31069SOL    HW295105   2.234   0.790  11.525
31070SOL     OW95106  12.683   9.646  14.719
31070SOL    HW195107  12.757   9.676  14.666
31070SOL    HW295108  12.662   9.721  14.775
31071SOL     OW95109   7.472  10.167   3.876
31071SOL    HW195110   7.395  10.154   3.821
31071SOL    HW295111   7.437  10.174   3.965
31072SOL     OW95112   0.762  13.295  11.521
31072SOL    HW195113   0.698  13.250  11.575
31072SOL    HW295114   0.729  13.384  11.513
31073SOL     OW95115   1.542   0.502   6.890
31073SOL    HW195116   1.526   0.409   6.902
31073SOL    HW295117   1.557   0.511   6.796
31074SOL     OW95118  10.608   5.154  11.481
31074SOL    HW195119  10.606   5.248  11.463
31074SOL    HW295120  10.589   5.113  11.397
31075SOL     OW95121   8.377   6.366  12.015
31075SOL    HW195122   8.402   6.450  12.054
31075SOL    HW295123   8.410   6.370  11.926
31076SOL     OW95124   9.932  13.352   8.806
31076SOL    HW195125   9.883  13.434   8.816
31076SOL    HW295126   9.879  13.299   8.747
31077SOL     OW95127  14.230   0.307   6.135
31077SOL    HW195128  14.160   0.340   6.078
31077SOL    HW295129  14.265   0.386   6.178
31078SOL     OW95130   3.766   2.906   9.147
31078SOL    HW195131   3.708   2.958   9.203
31078SOL    HW295132   3.744   2.935   9.058
31079SOL     OW95133  10.138   0.521   4.613
31079SOL    HW195134  10.053   0.495   4.650
31079SOL    HW295135  10.183   0.438   4.597
31080SOL     OW95136   0.295   8.173  12.118
31080SOL    HW195137   0.308   8.091  12.167
31080SOL    HW295138   0.202   8.173  12.096
31081SOL     OW95139   7.414  11.595   7.544
31081SOL    HW195140   7.426  11.533   7.616
31081SOL    HW295141   7.323  11.583   7.517
31082SOL     OW95142   5.006   1.883   0.764
31082SOL    HW195143   5.035   1.849   0.679
31082SOL    HW295144   4.965   1.808   0.808
31083SOL     OW95145  13.058   7.866  14.725
31083SOL    HW195146  13.083   7.917  14.802
31083SOL    HW295147  13.099   7.912  14.651
31084SOL     OW95148  11.762  10.245   9.016
31084SOL    HW195149  11.799  10.207   9.096
31084SOL    HW295150  11.710  10.175   8.978
31085SOL     OW95151   7.730  13.452   3.540
31085SOL    HW195152   7.748  13.544   3.561
31085SOL    HW295153   7.668  13.424   3.606
31086SOL     OW95154  12.726   8.113  12.899
31086SOL    HW195155  12.766   8.059  12.830
31086SOL    HW295156  12.724   8.201  12.861
31087SOL     OW95157  13.596   2.346   0.495
31087SOL    HW195158  13.645   2.424   0.470
31087SOL    HW295159  13.587   2.296   0.414
31088SOL     OW95160   0.842  10.472   3.755
31088SOL    HW195161   0.788  10.550   3.766
31088SOL    HW295162   0.814  10.413   3.825
31089SOL     OW95163   5.198   5.013   5.048
31089SOL    HW195164   5.115   4.975   5.020
31089SOL    HW295165   5.221   4.964   5.127
31090SOL     OW95166   7.417   0.265  10.948
31090SOL    HW195167   7.401   0.201  10.880
31090SOL    HW295168   7.493   0.315  10.917
31091SOL     OW95169   9.530   2.725   5.644
31091SOL    HW195170   9.451   2.674   5.627
31091SOL    HW295171   9.545   2.715   5.738
31092SOL     OW95172  14.347   9.102   9.812
31092SOL    HW195173  14.365   9.166   9.743
31092SOL    HW295174  14.259   9.125   9.843
31093SOL     OW95175  10.729   1.497   4.034
31093SOL    HW195176  10.649   1.547   4.023
31093SOL    HW295177  10.797   1.550   3.991
31094SOL     OW95178   2.206  11.514  11.621
31094SOL    HW195179   2.283  11.481  11.667
31094SOL    HW295180   2.178  11.590  11.672
31095SOL     OW95181   2.110   2.750  11.643
31095SOL    HW195182   2.100   2.754  11.548
31095SOL    HW295183   2.037   2.802  11.677
31096SOL     OW95184   6.817  10.976   1.228
31096SOL    HW195185   6.786  11.034   1.297
31096SOL    HW295186   6.880  11.028   1.179
31097SOL     OW95187   5.283  12.760   2.498
31097SOL    HW195188   5.285  12.785   2.591
31097SOL    HW295189   5.372  12.728   2.480
31098SOL     OW95190   4.633   4.963   9.986
31098SOL    HW195191   4.635   5.059   9.986
31098SOL    HW295192   4.561   4.941   9.927
31099SOL     OW95193   6.981   0.618   0.755
31099SOL    HW195194   6.950   0.683   0.819
31099SOL    HW295195   7.063   0.654   0.722
31100SOL     OW95196   6.609   7.029   9.029
31100SOL    HW195197   6.516   7.022   9.006
31100SOL    HW295198   6.610   7.030   9.125
31101SOL     OW95199   3.099  12.992   1.139
31101SOL    HW195200   3.041  12.986   1.215
31101SOL    HW295201   3.169  13.050   1.167
31102SOL     OW95202   1.909  11.282  13.436
31102SOL    HW195203   1.914  11.189  13.457
31102SOL    HW295204   1.877  11.284  13.345
31103SOL     OW95205   4.569   1.966   4.226
31103SOL    HW195206   4.602   2.041   4.276
31103SOL    HW295207   4.620   1.892   4.258
31104SOL     OW95208  10.321  11.458   9.332
31104SOL    HW195209  10.229  11.470   9.308
31104SOL    HW295210  10.350  11.544   9.362
31105SOL     OW95211   9.553  10.958   3.638
31105SOL    HW195212   9.517  10.892   3.579
31105SOL    HW295213   9.548  10.918   3.725
31106SOL     OW95214  12.060   3.956  14.369
31106SOL    HW195215  12.012   3.980  14.448
31106SOL    HW295216  12.009   3.884  14.330
31107SOL     OW95217  12.398   0.512   1.523
31107SOL    HW195218  12.360   0.552   1.444
31107SOL    HW295219  12.440   0.585   1.569
31108SOL     OW95220  10.537  11.492   5.491
31108SOL    HW195221  10.461  11.442   5.520
31108SOL    HW295222  10.596  11.427   5.455
31109SOL     OW95223   7.354   1.773  13.025
31109SOL    HW195224   7.342   1.861  13.063
31109SOL    HW295225   7.344   1.714  13.100
31110SOL     OW95226   8.866   1.431  14.394
31110SOL    HW195227   8.817   1.497  14.343
31110SOL    HW295228   8.804   1.403  14.461
31111SOL     OW95229   4.200   3.664   8.264
31111SOL    HW195230   4.127   3.656   8.203
31111SOL    HW295231   4.209   3.577   8.302
31112SOL     OW95232   6.865   9.291  12.512
31112SOL    HW195233   6.903   9.203  12.509
31112SOL    HW295234   6.810   9.296  12.434
31113SOL     OW95235   1.474   8.117   6.382
31113SOL    HW195236   1.402   8.140   6.440
31113SOL    HW295237   1.451   8.156   6.297
31114SOL     OW95238   8.044  11.773  10.090
31114SOL    HW195239   8.026  11.834  10.161
31114SOL    HW295240   7.958  11.739  10.066
31115SOL     OW95241   8.351  10.448   6.618
31115SOL    HW195242   8.421  10.402   6.664
31115SOL    HW295243   8.278  10.450   6.681
31116SOL     OW95244   1.971  10.603  12.252
31116SOL    HW195245   1.883  10.593  12.287
31116SOL    HW295246   1.988  10.697  12.258
31117SOL     OW95247   2.348   7.270  14.745
31117SOL    HW195248   2.326   7.293  14.654
31117SOL    HW295249   2.273   7.219  14.775
31118SOL     OW95250   9.204   7.554   0.295
31118SOL    HW195251   9.259   7.490   0.250
31118SOL    HW295252   9.138   7.578   0.230
31119SOL     OW95253   8.917  10.653   6.618
31119SOL    HW195254   8.835  10.647   6.667
31119SOL    HW295255   8.902  10.601   6.539
31120SOL     OW95256   6.325   6.477  11.762
31120SOL    HW195257   6.247   6.438  11.722
31120SOL    HW295258   6.379   6.402  11.785
31121SOL     OW95259   7.548  14.752   6.523
31121SOL    HW195260   7.640  14.728   6.514
31121SOL    HW295261   7.527  14.735   6.615
31122SOL     OW95262   0.374  11.052   1.556
31122SOL    HW195263   0.381  11.069   1.463
31122SOL    HW295264   0.358  10.958   1.563
31123SOL     OW95265   6.892  14.526  13.913
31123SOL    HW195266   6.960  14.562  13.970
31123SOL    HW295267   6.921  14.437  13.895
31124SOL     OW95268   1.450   9.141  10.608
31124SOL    HW195269   1.357   9.157  10.590
31124SOL    HW295270   1.470   9.061  10.559
31125SOL     OW95271   3.862  13.356   2.972
31125SOL    HW195272   3.944  13.395   3.000
31125SOL    HW295273   3.816  13.427   2.927
31126SOL     OW95274   7.013   3.558   3.227
31126SOL    HW195275   6.962   3.550   3.308
31126SOL    HW295276   7.104   3.550   3.255
31127SOL     OW95277  13.174   9.491   1.372
31127SOL    HW195278  13.104   9.426   1.375
31127SOL    HW295279  13.156   9.543   1.294
31128SOL     OW95280   8.979   4.713  14.010
31128SOL    HW195281   8.970   4.779  13.942
31128SOL    HW295282   8.947   4.755  14.089
31129SOL     OW95283  11.733   9.020  10.837
31129SOL    HW195284  11.730   8.999  10.744
31129SOL    HW295285  11.647   9.058  10.856
31130SOL     OW95286   1.261   3.111   3.215
31130SOL    HW195287   1.353   3.134   3.224
31130SOL    HW295288   1.221   3.135   3.299
31131SOL     OW95289   7.010  13.809   4.972
31131SOL    HW195290   6.965  13.879   4.926
31131SOL    HW295291   6.969  13.729   4.940
31132SOL     OW95292   2.942  12.314   0.493
31132SOL    HW195293   2.978  12.400   0.517
31132SOL    HW295294   2.856  12.312   0.534
31133SOL     OW95295   5.191   7.368  10.018
31133SOL    HW195296   5.219   7.460  10.016
31133SOL    HW295297   5.191   7.341   9.926
31134SOL     OW95298   1.210  14.349   1.336
31134SOL    HW195299   1.252  14.435   1.329
31134SOL    HW295300   1.127  14.359   1.290
31135SOL     OW95301   5.998   7.508   0.179
31135SOL    HW195302   6.068   7.529   0.241
31135SOL    HW295303   6.042   7.462   0.107
31136SOL     OW95304  11.483   9.941  14.406
31136SOL    HW195305  11.527   9.953  14.322
31136SOL    HW295306  11.544   9.889  14.458
31137SOL     OW95307   6.559   5.070   9.229
31137SOL    HW195308   6.502   4.998   9.203
31137SOL    HW295309   6.542   5.082   9.322
31138SOL     OW95310   0.195   7.912   7.707
31138SOL    HW195311   0.101   7.918   7.692
31138SOL    HW295312   0.214   7.818   7.701
31139SOL     OW95313   5.744   0.931   4.757
31139SOL    HW195314   5.839   0.933   4.749
31139SOL    HW295315   5.724   0.997   4.822
31140SOL     OW95316  11.407  13.197   0.883
31140SOL    HW195317  11.491  13.188   0.928
31140SOL    HW295318  11.426  13.183   0.791
31141SOL     OW95319   5.778  10.503   9.389
31141SOL    HW195320   5.863  10.546   9.403
31141SOL    HW295321   5.735  10.556   9.322
31142SOL     OW95322   2.587   6.711   1.112
31142SOL    HW195323   2.606   6.641   1.174
31142SOL    HW295324   2.618   6.791   1.156
31143SOL     OW95325   6.208   3.708   0.925
31143SOL    HW195326   6.150   3.776   0.893
31143SOL    HW295327   6.221   3.650   0.849
31144SOL     OW95328   0.888   7.579   1.540
31144SOL    HW195329   0.794   7.564   1.551
31144SOL    HW295330   0.923   7.575   1.629
31145SOL     OW95331   0.137   4.929   3.720
31145SOL    HW195332   0.072   4.886   3.775
31145SOL    HW295333   0.206   4.863   3.709
31146SOL     OW95334   3.190   4.852   9.156
31146SOL    HW195335   3.120   4.797   9.122
31146SOL    HW295336   3.214   4.812   9.240
31147SOL     OW95337   1.496   4.043   7.444
31147SOL    HW195338   1.558   4.116   7.435
31147SOL    HW295339   1.513   3.988   7.368
31148SOL     OW95340  11.705   2.642  11.859
31148SOL    HW195341  11.612   2.620  11.857
31148SOL    HW295342  11.707   2.737  11.873
31149SOL     OW95343   6.334   3.756   7.512
31149SOL    HW195344   6.325   3.780   7.420
31149SOL    HW295345   6.422   3.783   7.535
31150SOL     OW95346  12.746   5.400   2.683
31150SOL    HW195347  12.756   5.494   2.697
31150SOL    HW295348  12.789   5.359   2.759
31151SOL     OW95349   5.969  10.821   8.996
31151SOL    HW195350   5.944  10.856   9.082
31151SOL    HW295351   5.893  10.771   8.968
31152SOL     OW95352   9.498   7.130   7.834
31152SOL    HW195353   9.556   7.120   7.909
31152SOL    HW295354   9.557   7.136   7.759
31153SOL     OW95355   4.516  12.024   8.450
31153SOL    HW195356   4.502  12.102   8.503
31153SOL    HW295357   4.611  12.012   8.448
31154SOL     OW95358   6.752   9.379   1.603
31154SOL    HW195359   6.781   9.436   1.531
31154SOL    HW295360   6.815   9.396   1.674
31155SOL     OW95361   1.102  12.043   1.662
31155SOL    HW195362   1.134  12.110   1.722
31155SOL    HW295363   1.007  12.053   1.662
31156SOL     OW95364   2.123  12.951   7.618
31156SOL    HW195365   2.068  12.898   7.676
31156SOL    HW295366   2.187  12.890   7.583
31157SOL     OW95367   8.741   9.575   5.820
31157SOL    HW195368   8.784   9.658   5.803
31157SOL    HW295369   8.788   9.537   5.894
31158SOL     OW95370   0.063   4.130  13.957
31158SOL    HW195371  14.857   4.102  13.986
31158SOL    HW295372   0.049   4.166  13.870
31159SOL     OW95373   8.745   3.873  13.861
31159SOL    HW195374   8.749   3.828  13.946
31159SOL    HW295375   8.711   3.960  13.881
31160SOL     OW95376  14.716  10.770  10.611
31160SOL    HW195377  14.737  10.682  10.641
31160SOL    HW295378  14.653  10.804  10.675
31161SOL     OW95379  14.273   1.764  13.155
31161SOL    HW195380  14.277   1.846  13.204
31161SOL    HW295381  14.339   1.708  13.195
31162SOL     OW95382   4.521   5.664  13.222
31162SOL    HW195383   4.614   5.680  13.204
31162SOL    HW295384   4.496   5.595  13.160
31163SOL     OW95385   6.293  12.576   0.581
31163SOL    HW195386   6.246  12.559   0.499
31163SOL    HW295387   6.379  12.536   0.568
31164SOL     OW95388   1.051   7.026   5.115
31164SOL    HW195389   0.996   7.094   5.076
31164SOL    HW295390   1.120   7.075   5.161
31165SOL     OW95391   8.782  10.217   0.290
31165SOL    HW195392   8.758  10.230   0.198
31165SOL    HW295393   8.699  10.218   0.337
31166SOL     OW95394   5.270   7.995  11.848
31166SOL    HW195395   5.362   8.015  11.860
31166SOL    HW295396   5.265   7.899  11.856
31167SOL     OW95397   9.836   3.174   2.536
31167SOL    HW195398   9.893   3.199   2.463
31167SOL    HW295399   9.751   3.159   2.495
31168SOL     OW95400   2.999   2.455   6.002
31168SOL    HW195401   2.990   2.517   6.074
31168SOL    HW295402   2.924   2.472   5.946
31169SOL     OW95403  14.376  11.235   8.929
31169SOL    HW195404  14.436  11.190   8.990
31169SOL    HW295405  14.294  11.243   8.978
31170SOL     OW95406   4.997   1.854   7.714
31170SOL    HW195407   4.991   1.900   7.798
31170SOL    HW295408   5.065   1.901   7.666
31171SOL     OW95409   4.386   1.094  10.245
31171SOL    HW195410   4.332   1.118  10.320
31171SOL    HW295411   4.409   1.178  10.204
31172SOL     OW95412   0.070   6.138  14.263
31172SOL    HW195413   0.107   6.226  14.277
31172SOL    HW295414  14.870   6.153  14.213
31173SOL     OW95415  10.203   1.403  13.510
31173SOL    HW195416  10.276   1.441  13.557
31173SOL    HW295417  10.156   1.478  13.473
31174SOL     OW95418  10.622   4.410   1.123
31174SOL    HW195419  10.629   4.371   1.210
31174SOL    HW295420  10.545   4.466   1.128
31175SOL     OW95421   5.518   3.022   4.542
31175SOL    HW195422   5.524   3.108   4.501
31175SOL    HW295423   5.430   2.991   4.520
31176SOL     OW95424   1.949  12.935   1.497
31176SOL    HW195425   2.032  12.893   1.521
31176SOL    HW295426   1.893  12.922   1.574
31177SOL     OW95427   4.283  14.351   2.352
31177SOL    HW195428   4.323  14.382   2.434
31177SOL    HW295429   4.356  14.317   2.301
31178SOL     OW95430   3.677   3.271   8.052
31178SOL    HW195431   3.659   3.179   8.032
31178SOL    HW295432   3.619   3.320   7.994
31179SOL     OW95433   4.792   7.857   5.745
31179SOL    HW195434   4.849   7.789   5.710
31179SOL    HW295435   4.851   7.929   5.767
31180SOL     OW95436   0.244   6.287  13.294
31180SOL    HW195437   0.263   6.227  13.366
31180SOL    HW295438   0.328   6.326  13.272
31181SOL     OW95439   7.600  10.065  13.911
31181SOL    HW195440   7.573  10.028  13.995
31181SOL    HW295441   7.695  10.050  13.909
31182SOL     OW95442  11.134  14.174   7.023
31182SOL    HW195443  11.223  14.139   7.021
31182SOL    HW295444  11.080  14.100   7.050
31183SOL     OW95445   8.493   3.219   9.237
31183SOL    HW195446   8.484   3.297   9.182
31183SOL    HW295447   8.419   3.225   9.298
31184SOL     OW95448  10.046   3.214  14.427
31184SOL    HW195449  10.099   3.265  14.488
31184SOL    HW295450  10.071   3.123  14.443
31185SOL     OW95451   5.868   8.965   8.988
31185SOL    HW195452   5.841   9.054   9.011
31185SOL    HW295453   5.963   8.967   8.989
31186SOL     OW95454   6.289   4.467   1.950
31186SOL    HW195455   6.232   4.407   1.902
31186SOL    HW295456   6.236   4.497   2.024
31187SOL     OW95457   0.069  10.797  13.086
31187SOL    HW195458  14.855  10.779  13.082
31187SOL    HW295459   0.109  10.712  13.103
31188SOL     OW95460   7.123   5.190  13.909
31188SOL    HW195461   7.157   5.116  13.960
31188SOL    HW295462   7.048   5.155  13.861
31189SOL     OW95463   1.621  12.257   7.930
31189SOL    HW195464   1.700  12.209   7.951
31189SOL    HW295465   1.628  12.339   7.980
31190SOL     OW95466   4.796  13.171   0.450
31190SOL    HW195467   4.807  13.171   0.355
31190SOL    HW295468   4.794  13.264   0.474
31191SOL     OW95469  13.881  12.297   6.757
31191SOL    HW195470  13.920  12.209   6.762
31191SOL    HW295471  13.950  12.351   6.719
31192SOL     OW95472   9.429  14.441   5.162
31192SOL    HW195473   9.346  14.487   5.175
31192SOL    HW295474   9.450  14.454   5.070
31193SOL     OW95475  10.250  11.185  11.089
31193SOL    HW195476  10.290  11.151  11.009
31193SOL    HW295477  10.299  11.265  11.109
31194SOL     OW95478   1.516   6.147   2.213
31194SOL    HW195479   1.473   6.200   2.281
31194SOL    HW295480   1.501   6.056   2.240
31195SOL     OW95481   5.928  12.948   2.554
31195SOL    HW195482   5.857  12.900   2.513
31195SOL    HW295483   5.907  13.040   2.538
31196SOL     OW95484   4.386   2.812   3.592
31196SOL    HW195485   4.415   2.826   3.502
31196SOL    HW295486   4.397   2.897   3.634
31197SOL     OW95487   6.956   8.293   9.980
31197SOL    HW195488   6.961   8.371  10.035
31197SOL    HW295489   6.954   8.327   9.890
31198SOL     OW95490   0.491   0.752  14.247
31198SOL    HW195491   0.400   0.745  14.276
31198SOL    HW295492   0.520   0.839  14.276
31199SOL     OW95493   3.266   5.945   7.158
31199SOL    HW195494   3.241   5.927   7.249
31199SOL    HW295495   3.361   5.934   7.156
31200SOL     OW95496   9.133   2.393   5.296
31200SOL    HW195497   9.131   2.304   5.331
31200SOL    HW295498   9.046   2.428   5.314
31201SOL     OW95499   8.039   9.023   8.809
31201SOL    HW195500   8.024   8.928   8.811
31201SOL    HW295501   8.015   9.048   8.720
31202SOL     OW95502   2.502   4.214  12.484
31202SOL    HW195503   2.566   4.211  12.555
31202SOL    HW295504   2.458   4.299  12.494
31203SOL     OW95505  10.290  10.530  10.249
31203SOL    HW195506  10.311  10.602  10.309
31203SOL    HW295507  10.374  10.507  10.209
31204SOL     OW95508  13.943  10.931  12.887
31204SOL    HW195509  13.981  10.846  12.867
31204SOL    HW295510  13.952  10.941  12.982
31205SOL     OW95511   3.909   2.550  10.400
31205SOL    HW195512   3.962   2.526  10.475
31205SOL    HW295513   3.863   2.470  10.376
31206SOL     OW95514   7.859   1.320   2.460
31206SOL    HW195515   7.820   1.255   2.402
31206SOL    HW295516   7.952   1.323   2.435
31207SOL     OW95517   2.950   5.758  12.324
31207SOL    HW195518   2.978   5.667  12.329
31207SOL    HW295519   3.032   5.808  12.321
31208SOL     OW95520   9.587   0.516   9.853
31208SOL    HW195521   9.499   0.552   9.861
31208SOL    HW295522   9.645   0.588   9.877
31209SOL     OW95523   4.586  13.209   9.856
31209SOL    HW195524   4.599  13.284   9.914
31209SOL    HW295525   4.562  13.247   9.772
31210SOL     OW95526   8.600   4.740  13.585
31210SOL    HW195527   8.561   4.801  13.647
31210SOL    HW295528   8.628   4.666  13.639
31211SOL     OW95529  12.110  10.178   3.273
31211SOL    HW195530  12.166  10.106   3.302
31211SOL    HW295531  12.037  10.178   3.335
31212SOL     OW95532  12.285   9.616   6.120
31212SOL    HW195533  12.348   9.685   6.138
31212SOL    HW295534  12.201   9.654   6.145
31213SOL     OW95535   2.066   7.921   3.947
31213SOL    HW195536   2.070   7.876   4.031
31213SOL    HW295537   2.153   7.908   3.908
31214SOL     OW95538   7.948  13.729   8.546
31214SOL    HW195539   7.932  13.704   8.637
31214SOL    HW295540   8.042  13.746   8.543
31215SOL     OW95541   0.639   5.301   9.185
31215SOL    HW195542   0.705   5.356   9.226
31215SOL    HW295543   0.690   5.238   9.134
31216SOL     OW95544   6.609   1.550  10.249
31216SOL    HW195545   6.604   1.504  10.165
31216SOL    HW295546   6.565   1.633  10.233
31217SOL     OW95547   4.908   0.382  14.137
31217SOL    HW195548   4.996   0.391  14.173
31217SOL    HW295549   4.887   0.469  14.102
31218SOL     OW95550   4.350   6.596  14.544
31218SOL    HW195551   4.362   6.509  14.582
31218SOL    HW295552   4.352   6.656  14.619
31219SOL     OW95553   9.883  12.987   9.420
31219SOL    HW195554   9.933  13.047   9.365
31219SOL    HW295555   9.932  12.905   9.416
31220SOL     OW95556   8.614   7.906   2.114
31220SOL    HW195557   8.567   7.824   2.124
31220SOL    HW295558   8.679   7.906   2.185
31221SOL     OW95559   6.035  10.794   4.331
31221SOL    HW195560   6.004  10.856   4.265
31221SOL    HW295561   5.985  10.714   4.316
31222SOL     OW95562   5.322   8.868   2.443
31222SOL    HW195563   5.289   8.917   2.519
31222SOL    HW295564   5.245   8.854   2.388
31223SOL     OW95565  14.032   1.961   0.349
31223SOL    HW195566  14.102   1.983   0.412
31223SOL    HW295567  14.078   1.926   0.273
31224SOL     OW95568  10.554  13.007  12.489
31224SOL    HW195569  10.468  13.042  12.466
31224SOL    HW295570  10.541  12.913  12.499
31225SOL     OW95571  12.587   9.611   1.880
31225SOL    HW195572  12.665   9.659   1.909
31225SOL    HW295573  12.515   9.651   1.930
31226SOL     OW95574   0.477   6.678   0.134
31226SOL    HW195575   0.405   6.629   0.173
31226SOL    HW295576   0.546   6.614   0.122
31227SOL     OW95577  11.173   4.716   3.882
31227SOL    HW195578  11.212   4.708   3.795
31227SOL    HW295579  11.236   4.766   3.933
31228SOL     OW95580  13.619   7.887   9.991
31228SOL    HW195581  13.567   7.808  10.001
31228SOL    HW295582  13.690   7.862   9.932
31229SOL     OW95583   9.559  12.360   9.803
31229SOL    HW195584   9.498  12.336   9.733
31229SOL    HW295585   9.636  12.395   9.757
31230SOL     OW95586   5.331  10.222  10.573
31230SOL    HW195587   5.380  10.186  10.647
31230SOL    HW295588   5.241  10.193  10.588
31231SOL     OW95589  14.590  10.333  10.116
31231SOL    HW195590  14.670  10.350  10.067
31231SOL    HW295591  14.533  10.286  10.055
31232SOL     OW95592   8.420  14.683  12.178
31232SOL    HW195593   8.509  14.698  12.210
31232SOL    HW295594   8.396  14.597  12.213
31233SOL     OW95595   3.524  14.442   7.234
31233SOL    HW195596   3.580  14.457   7.158
31233SOL    HW295597   3.572  14.379   7.287
31234SOL     OW95598   2.036   1.764  12.297
31234SOL    HW195599   1.993   1.811  12.369
31234SOL    HW295600   1.965   1.716  12.255
31235SOL     OW95601   6.014  10.231   2.730
31235SOL    HW195602   5.966  10.228   2.813
31235SOL    HW295603   6.102  10.201   2.753
31236SOL     OW95604   5.423   4.723   6.690
31236SOL    HW195605   5.420   4.816   6.714
31236SOL    HW295606   5.342   4.686   6.727
31237SOL     OW95607   8.941  11.881   0.564
31237SOL    HW195608   8.850  11.862   0.542
31237SOL    HW295609   8.977  11.797   0.593
31238SOL     OW95610   1.712   9.089   5.031
31238SOL    HW195611   1.691   9.180   5.010
31238SOL    HW295612   1.677   9.039   4.958
31239SOL     OW95613   5.728   8.249   1.624
31239SOL    HW195614   5.771   8.269   1.541
31239SOL    HW295615   5.787   8.284   1.691
31240SOL     OW95616   3.836   4.350   4.418
31240SOL    HW195617   3.769   4.393   4.365
31240SOL    HW295618   3.919   4.380   4.381
31241SOL     OW95619   3.812   7.951   5.292
31241SOL    HW195620   3.904   7.964   5.271
31241SOL    HW295621   3.786   7.876   5.237
31242SOL     OW95622   8.493   8.409   7.930
31242SOL    HW195623   8.456   8.421   8.018
31242SOL    HW295624   8.432   8.350   7.886
31243SOL     OW95625  14.474   3.230   7.565
31243SOL    HW195626  14.412   3.262   7.631
31243SOL    HW295627  14.492   3.140   7.591
31244SOL     OW95628   8.582  13.924  13.143
31244SOL    HW195629   8.638  13.848  13.156
31244SOL    HW295630   8.643  13.998  13.136
31245SOL     OW95631   7.409   3.446   8.888
31245SOL    HW195632   7.486   3.400   8.921
31245SOL    HW295633   7.339   3.381   8.891
31246SOL     OW95634  13.610   6.973   9.860
31246SOL    HW195635  13.662   6.904   9.901
31246SOL    HW295636  13.528   6.975   9.910
31247SOL     OW95637   2.740   8.463   3.677
31247SOL    HW195638   2.673   8.398   3.700
31247SOL    HW295639   2.693   8.530   3.628
31248SOL     OW95640   7.613   3.499   4.318
31248SOL    HW195641   7.616   3.592   4.339
31248SOL    HW295642   7.559   3.493   4.239
31249SOL     OW95643   0.742  13.502   5.173
31249SOL    HW195644   0.797  13.529   5.100
31249SOL    HW295645   0.794  13.522   5.251
31250SOL     OW95646   3.287  11.379  13.078
31250SOL    HW195647   3.358  11.319  13.056
31250SOL    HW295648   3.219  11.323  13.115
31251SOL     OW95649   7.823   2.073  13.015
31251SOL    HW195650   7.818   2.164  12.985
31251SOL    HW295651   7.899   2.071  13.072
31252SOL     OW95652  12.758   2.145  14.653
31252SOL    HW195653  12.703   2.067  14.653
31252SOL    HW295654  12.726   2.197  14.727
31253SOL     OW95655   4.816  10.003  11.465
31253SOL    HW195656   4.765  10.011  11.384
31253SOL    HW295657   4.862   9.920  11.455
31254SOL     OW95658   4.491   0.284   6.534
31254SOL    HW195659   4.445   0.363   6.503
31254SOL    HW295660   4.435   0.250   6.604
31255SOL     OW95661   9.543   0.127   8.729
31255SOL    HW195662   9.567   0.044   8.769
31255SOL    HW295663   9.583   0.124   8.642
31256SOL     OW95664   1.335   6.361  14.541
31256SOL    HW195665   1.380   6.407  14.470
31256SOL    HW295666   1.242   6.363  14.515
31257SOL     OW95667   4.367   4.791   4.409
31257SOL    HW195668   4.313   4.766   4.484
31257SOL    HW295669   4.399   4.707   4.374
31258SOL     OW95670   9.015  12.219  11.101
31258SOL    HW195671   8.982  12.286  11.160
31258SOL    HW295672   9.068  12.162  11.156
31259SOL     OW95673  13.560   0.366   2.815
31259SOL    HW195674  13.583   0.403   2.730
31259SOL    HW295675  13.641   0.371   2.867
31260SOL     OW95676   2.946   4.620  14.206
31260SOL    HW195677   2.937   4.620  14.110
31260SOL    HW295678   3.024   4.672  14.223
31261SOL     OW95679   4.501   3.060   1.508
31261SOL    HW195680   4.449   2.983   1.484
31261SOL    HW295681   4.518   3.104   1.425
31262SOL     OW95682   0.307  10.598   2.146
31262SOL    HW195683   0.345  10.512   2.130
31262SOL    HW295684   0.376  10.647   2.191
31263SOL     OW95685  13.306   0.573  13.326
31263SOL    HW195686  13.264   0.497  13.287
31263SOL    HW295687  13.290   0.645  13.264
31264SOL     OW95688   6.460   1.457   7.624
31264SOL    HW195689   6.446   1.550   7.603
31264SOL    HW295690   6.427   1.410   7.547
31265SOL     OW95691   7.746   8.442   0.347
31265SOL    HW195692   7.715   8.510   0.287
31265SOL    HW295693   7.837   8.428   0.322
31266SOL     OW95694   3.161   7.806   8.151
31266SOL    HW195695   3.170   7.881   8.092
31266SOL    HW295696   3.076   7.767   8.127
31267SOL     OW95697   7.304   1.024  12.817
31267SOL    HW195698   7.223   0.977  12.838
31267SOL    HW295699   7.274   1.105  12.775
31268SOL     OW95700   4.558  12.133   4.017
31268SOL    HW195701   4.590  12.181   4.094
31268SOL    HW295702   4.636  12.116   3.965
31269SOL     OW95703   6.994   4.349   5.276
31269SOL    HW195704   7.070   4.404   5.258
31269SOL    HW295705   6.964   4.377   5.363
31270SOL     OW95706   4.227  14.419  10.743
31270SOL    HW195707   4.230  14.413  10.648
31270SOL    HW295708   4.182  14.501  10.761
31271SOL     OW95709   3.651   5.801  12.538
31271SOL    HW195710   3.707   5.805  12.460
31271SOL    HW295711   3.597   5.723  12.524
31272SOL     OW95712  10.660   0.069   0.739
31272SOL    HW195713  10.620   0.110   0.662
31272SOL    HW295714  10.594   0.076   0.808
31273SOL     OW95715  13.649  14.349   4.259
31273SOL    HW195716  13.575  14.352   4.318
31273SOL    HW295717  13.632  14.273   4.203
31274SOL     OW95718  11.759  13.708  14.216
31274SOL    HW195719  11.845  13.701  14.258
31274SOL    HW295720  11.730  13.617  14.206
31275SOL     OW95721  11.174  10.242  12.115
31275SOL    HW195722  11.140  10.297  12.044
31275SOL    HW295723  11.163  10.294  12.194
31276SOL     OW95724   3.890   3.140  10.548
31276SOL    HW195725   3.947   3.065  10.567
31276SOL    HW295726   3.802   3.101  10.538
31277SOL     OW95727  10.623  13.846   6.935
31277SOL    HW195728  10.582  13.828   6.851
31277SOL    HW295729  10.610  13.941   6.947
31278SOL     OW95730  13.829   4.756   6.712
31278SOL    HW195731  13.877   4.694   6.767
31278SOL    HW295732  13.788   4.816   6.774
31279SOL     OW95733  11.661   2.245  13.945
31279SOL    HW195734  11.676   2.181  13.875
31279SOL    HW295735  11.748   2.279  13.966
31280SOL     OW95736  11.759   5.128   7.499
31280SOL    HW195737  11.724   5.201   7.449
31280SOL    HW295738  11.710   5.129   7.581
31281SOL     OW95739   1.874   2.206  11.383
31281SOL    HW195740   1.944   2.149  11.352
31281SOL    HW295741   1.901   2.232  11.471
31282SOL     OW95742   6.214   4.592   3.518
31282SOL    HW195743   6.137   4.554   3.561
31282SOL    HW295744   6.178   4.646   3.448
31283SOL     OW95745   4.326   7.778  14.051
31283SOL    HW195746   4.242   7.738  14.074
31283SOL    HW295747   4.388   7.743  14.115
31284SOL     OW95748   3.088  13.334   7.617
31284SOL    HW195749   3.024  13.263   7.607
31284SOL    HW295750   3.051  13.406   7.566
31285SOL     OW95751  12.122  11.302  10.759
31285SOL    HW195752  12.101  11.209  10.773
31285SOL    HW295753  12.062  11.330  10.690
31286SOL     OW95754  14.016   8.218   9.171
31286SOL    HW195755  14.046   8.160   9.241
31286SOL    HW295756  13.921   8.211   9.173
31287SOL     OW95757   8.017   1.129  10.086
31287SOL    HW195758   8.008   1.035  10.069
31287SOL    HW295759   8.107   1.139  10.118
31288SOL     OW95760   7.621  13.683  12.729
31288SOL    HW195761   7.694  13.647  12.779
31288SOL    HW295762   7.656  13.763  12.689
31289SOL     OW95763   3.223   1.658   5.911
31289SOL    HW195764   3.292   1.723   5.923
31289SOL    HW295765   3.142   1.705   5.932
31290SOL     OW95766   6.909   5.430  14.376
31290SOL    HW195767   6.832   5.392  14.335
31290SOL    HW295768   6.972   5.440  14.305
31291SOL     OW95769   1.884   8.674  14.585
31291SOL    HW195770   1.870   8.606  14.519
31291SOL    HW295771   1.961   8.721  14.555
31292SOL     OW95772   8.383   8.406   9.968
31292SOL    HW195773   8.384   8.478   9.906
31292SOL    HW295774   8.474   8.375   9.971
31293SOL     OW95775  13.642  10.739  12.952
31293SOL    HW195776  13.704  10.711  13.019
31293SOL    HW295777  13.609  10.823  12.983
31294SOL     OW95778   1.731  11.738   3.484
31294SOL    HW195779   1.641  11.703   3.480
31294SOL    HW295780   1.747  11.772   3.396
31295SOL     OW95781  14.151   3.568  13.328
31295SOL    HW195782  14.154   3.521  13.245
31295SOL    HW295783  14.242   3.595  13.343
31296SOL     OW95784   1.294   6.407   9.964
31296SOL    HW195785   1.250   6.492   9.954
31296SOL    HW295786   1.272   6.380  10.053
31297SOL     OW95787   6.666  13.715   4.369
31297SOL    HW195788   6.642  13.623   4.370
31297SOL    HW295789   6.612  13.755   4.437
31298SOL     OW95790  11.090  10.582   0.888
31298SOL    HW195791  11.052  10.574   0.801
31298SOL    HW295792  11.042  10.519   0.942
31299SOL     OW95793   0.687  13.682   8.535
31299SOL    HW195794   0.730  13.622   8.597
31299SOL    HW295795   0.726  13.660   8.450
31300SOL     OW95796  13.279  13.179   1.899
31300SOL    HW195797  13.192  13.154   1.931
31300SOL    HW295798  13.292  13.125   1.821
31301SOL     OW95799   2.154   9.348  14.288
31301SOL    HW195800   2.124   9.394  14.366
31301SOL    HW295801   2.102   9.386  14.217
31302SOL     OW95802   1.486  12.800  11.601
31302SOL    HW195803   1.423  12.843  11.659
31302SOL    HW295804   1.505  12.865  11.534
31303SOL     OW95805   7.782   3.373   3.554
31303SOL    HW195806   7.791   3.339   3.465
31303SOL    HW295807   7.792   3.297   3.611
31304SOL     OW95808   3.182  14.337  13.582
31304SOL    HW195809   3.130  14.343  13.501
31304SOL    HW295810   3.254  14.399  13.568
31305SOL     OW95811  14.323  12.203   1.403
31305SOL    HW195812  14.377  12.266   1.451
31305SOL    HW295813  14.249  12.186   1.461
31306SOL     OW95814   1.655   1.144   7.677
31306SOL    HW195815   1.730   1.159   7.620
31306SOL    HW295816   1.579   1.148   7.618
31307SOL     OW95817  12.138   3.742   7.739
31307SOL    HW195818  12.150   3.766   7.831
31307SOL    HW295819  12.044   3.753   7.723
31308SOL     OW95820   1.291   3.103   0.551
31308SOL    HW195821   1.268   3.180   0.603
31308SOL    HW295822   1.212   3.083   0.502
31309SOL     OW95823  12.861   0.558  12.210
31309SOL    HW195824  12.929   0.599  12.157
31309SOL    HW295825  12.854   0.469  12.176
31310SOL     OW95826   4.267   2.483   7.415
31310SOL    HW195827   4.290   2.431   7.338
31310SOL    HW295828   4.174   2.500   7.406
31311SOL     OW95829  11.216  12.157  10.317
31311SOL    HW195830  11.152  12.189  10.380
31311SOL    HW295831  11.206  12.062  10.320
31312SOL     OW95832  14.090   5.555   1.658
31312SOL    HW195833  14.142   5.594   1.728
31312SOL    HW295834  14.043   5.483   1.700
31313SOL     OW95835   8.676   4.913   3.357
31313SOL    HW195836   8.635   4.839   3.311
31313SOL    HW295837   8.602   4.960   3.397
31314SOL     OW95838   0.076   0.486   4.069
31314SOL    HW195839   0.060   0.504   3.976
31314SOL    HW295840   0.157   0.533   4.089
31315SOL     OW95841   0.505   7.344   8.760
31315SOL    HW195842   0.600   7.341   8.766
31315SOL    HW295843   0.475   7.275   8.820
31316SOL     OW95844   3.927  12.655   4.383
31316SOL    HW195845   3.886  12.693   4.460
31316SOL    HW295846   4.020  12.648   4.406
31317SOL     OW95847   7.508   5.451  14.844
31317SOL    HW195848   7.479   5.363  14.819
31317SOL    HW295849   7.495   5.454   0.058
31318SOL     OW95850   8.156   7.678   2.535
31318SOL    HW195851   8.097   7.681   2.460
31318SOL    HW295852   8.114   7.618   2.596
31319SOL     OW95853   7.078   3.382   1.388
31319SOL    HW195854   7.150   3.413   1.334
31319SOL    HW295855   7.005   3.439   1.367
31320SOL     OW95856   8.489   3.697   2.486
31320SOL    HW195857   8.532   3.709   2.571
31320SOL    HW295858   8.457   3.607   2.488
31321SOL     OW95859   6.363   6.023   1.126
31321SOL    HW195860   6.339   6.052   1.214
31321SOL    HW295861   6.451   5.987   1.136
31322SOL     OW95862   1.505  11.252   0.057
31322SOL    HW195863   1.483  11.261   0.150
31322SOL    HW295864   1.539  11.337   0.032
31323SOL     OW95865   0.095   2.007  12.416
31323SOL    HW195866   0.122   1.916  12.431
31323SOL    HW295867   0.157   2.040  12.351
31324SOL     OW95868   2.134  14.494   3.438
31324SOL    HW195869   2.222  14.520   3.412
31324SOL    HW295870   2.115  14.417   3.385
31325SOL     OW95871   8.598  10.330   2.651
31325SOL    HW195872   8.510  10.315   2.684
31325SOL    HW295873   8.615  10.257   2.592
31326SOL     OW95874  13.456   0.729   7.182
31326SOL    HW195875  13.512   0.673   7.236
31326SOL    HW295876  13.491   0.817   7.195
31327SOL     OW95877  10.620   9.341   5.427
31327SOL    HW195878  10.697   9.397   5.421
31327SOL    HW295879  10.639   9.282   5.500
31328SOL     OW95880   2.741   0.392   2.509
31328SOL    HW195881   2.672   0.392   2.444
31328SOL    HW295882   2.704   0.344   2.583
31329SOL     OW95883   7.620   8.273   3.495
31329SOL    HW195884   7.588   8.308   3.578
31329SOL    HW295885   7.542   8.272   3.438
31330SOL     OW95886   8.104  13.405  10.641
31330SOL    HW195887   8.109  13.385  10.735
31330SOL    HW295888   8.194  13.423  10.615
31331SOL     OW95889  14.459   0.288  13.880
31331SOL    HW195890  14.368   0.262  13.895
31331SOL    HW295891  14.455   0.348  13.805
31332SOL     OW95892   5.130  11.517   2.775
31332SOL    HW195893   5.194  11.446   2.771
31332SOL    HW295894   5.051  11.477   2.812
31333SOL     OW95895  14.470   1.527   3.281
31333SOL    HW195896  14.543   1.535   3.220
31333SOL    HW295897  14.481   1.441   3.321
31334SOL     OW95898   5.211  12.569  12.485
31334SOL    HW195899   5.127  12.610  12.505
31334SOL    HW295900   5.190  12.476  12.471
31335SOL     OW95901  14.634  11.077  14.521
31335SOL    HW195902  14.659  11.009  14.584
31335SOL    HW295903  14.541  11.090  14.535
31336SOL     OW95904   9.105   4.573   7.605
31336SOL    HW195905   9.084   4.627   7.529
31336SOL    HW295906   9.073   4.485   7.582
31337SOL     OW95907   3.010   2.610  12.643
31337SOL    HW195908   3.104   2.618  12.656
31337SOL    HW295909   2.998   2.519  12.614
31338SOL     OW95910   4.898   7.830   7.512
31338SOL    HW195911   4.834   7.770   7.549
31338SOL    HW295912   4.898   7.906   7.571
31339SOL     OW95913   7.259   4.571   2.645
31339SOL    HW195914   7.174   4.591   2.684
31339SOL    HW295915   7.320   4.629   2.690
31340SOL     OW95916  14.145   4.396   7.839
31340SOL    HW195917  14.166   4.421   7.749
31340SOL    HW295918  14.229   4.370   7.877
31341SOL     OW95919   4.829   1.972   3.281
31341SOL    HW195920   4.757   1.952   3.340
31341SOL    HW295921   4.902   1.995   3.339
31342SOL     OW95922   0.215   7.173   3.153
31342SOL    HW195923   0.167   7.098   3.116
31342SOL    HW295924   0.180   7.181   3.242
31343SOL     OW95925  10.398   5.796   2.052
31343SOL    HW195926  10.344   5.819   2.128
31343SOL    HW295927  10.459   5.869   2.043
31344SOL     OW95928   1.582  14.068   9.889
31344SOL    HW195929   1.642  13.994   9.881
31344SOL    HW295930   1.566  14.095   9.798
31345SOL     OW95931  11.798   8.955  10.571
31345SOL    HW195932  11.874   8.926  10.521
31345SOL    HW295933  11.723   8.940  10.513
31346SOL     OW95934  10.418   9.581   7.924
31346SOL    HW195935  10.345   9.629   7.885
31346SOL    HW295936  10.464   9.543   7.849
31347SOL     OW95937  12.569   1.688  11.745
31347SOL    HW195938  12.512   1.612  11.736
31347SOL    HW295939  12.533   1.737  11.819
31348SOL     OW95940   5.022   4.650   2.056
31348SOL    HW195941   4.963   4.702   2.111
31348SOL    HW295942   5.063   4.714   1.998
31349SOL     OW95943   4.221   3.163   8.620
31349SOL    HW195944   4.306   3.150   8.578
31349SOL    HW295945   4.201   3.079   8.660
31350SOL     OW95946   4.713   0.353   5.442
31350SOL    HW195947   4.665   0.300   5.377
31350SOL    HW295948   4.779   0.292   5.477
31351SOL     OW95949   2.537  10.372   1.129
31351SOL    HW195950   2.617  10.413   1.098
31351SOL    HW295951   2.491  10.344   1.050
31352SOL     OW95952  11.966   0.396   2.999
31352SOL    HW195953  11.878   0.386   2.964
31352SOL    HW295954  12.017   0.431   2.926
31353SOL     OW95955   4.209  13.593   4.443
31353SOL    HW195956   4.164  13.671   4.409
31353SOL    HW295957   4.152  13.562   4.514
31354SOL     OW95958  11.264  12.216   2.114
31354SOL    HW195959  11.320  12.287   2.085
31354SOL    HW295960  11.187  12.259   2.152
31355SOL     OW95961  12.852   1.892  11.370
31355SOL    HW195962  12.859   1.797  11.368
31355SOL    HW295963  12.761   1.909  11.394
31356SOL     OW95964   5.959   5.340   4.024
31356SOL    HW195965   5.984   5.329   3.932
31356SOL    HW295966   5.864   5.339   4.024
31357SOL     OW95967   0.158   0.174  13.276
31357SOL    HW195968   0.220   0.145  13.208
31357SOL    HW295969   0.140   0.094  13.326
31358SOL     OW95970   4.685  13.820   7.093
31358SOL    HW195971   4.596  13.854   7.088
31358SOL    HW295972   4.714  13.843   7.182
31359SOL     OW95973   2.741   9.515  14.168
31359SOL    HW195974   2.757   9.424  14.196
31359SOL    HW295975   2.705   9.557  14.246
31360SOL     OW95976  14.490  14.641   2.446
31360SOL    HW195977  14.429  14.647   2.519
31360SOL    HW295978  14.575  14.626   2.487
31361SOL     OW95979   3.953  10.296  10.556
31361SOL    HW195980   3.865  10.260  10.548
31361SOL    HW295981   3.963  10.315  10.649
31362SOL     OW95982  11.437  11.996   5.148
31362SOL    HW195983  11.382  11.929   5.108
31362SOL    HW295984  11.483  11.951   5.219
31363SOL     OW95985   2.273   7.894   6.591
31363SOL    HW195986   2.206   7.951   6.554
31363SOL    HW295987   2.355   7.941   6.577
31364SOL     OW95988  12.088  14.586   7.936
31364SOL    HW195989  12.099  14.493   7.953
31364SOL    HW295990  12.092  14.594   7.840
31365SOL     OW95991   3.581  13.084   2.389
31365SOL    HW195992   3.504  13.027   2.387
31365SOL    HW295993   3.655  13.025   2.375
31366SOL     OW95994   6.786  12.280   9.804
31366SOL    HW195995   6.845  12.329   9.861
31366SOL    HW295996   6.705  12.272   9.855
31367SOL     OW95997  14.792   1.282   3.984
31367SOL    HW195998  14.790   1.322   4.071
31367SOL    HW295999  14.767   1.353   3.925
31368SOL     OW96000  13.954  13.255   0.714
31368SOL    HW196001  13.866  13.224   0.692
31368SOL    HW296002  13.977  13.316   0.644
31369SOL     OW96003  13.999   8.192  13.009
31369SOL    HW196004  14.093   8.192  13.028
31369SOL    HW296005  13.989   8.130  12.937
31370SOL     OW96006   1.177   3.639   9.994
31370SOL    HW196007   1.191   3.725   9.953
31370SOL    HW296008   1.248   3.585   9.959
31371SOL     OW96009   3.415  11.592   6.697
31371SOL    HW196010   3.362  11.525   6.739
31371SOL    HW296011   3.499  11.550   6.681
31372SOL     OW96012   5.753   4.639  13.831
31372SOL    HW196013   5.839   4.681  13.822
31372SOL    HW296014   5.740   4.632  13.925
31373SOL     OW96015   6.682   2.177   0.248
31373SOL    HW196016   6.720   2.106   0.301
31373SOL    HW296017   6.755   2.208   0.195
31374SOL     OW96018   6.287   1.138   1.130
31374SOL    HW196019   6.215   1.120   1.069
31374SOL    HW296020   6.347   1.065   1.118
31375SOL     OW96021   0.376   1.277  11.999
31375SOL    HW196022   0.392   1.287  12.093
31375SOL    HW296023   0.281   1.265  11.992
31376SOL     OW96024  10.302   4.319  10.144
31376SOL    HW196025  10.306   4.347  10.052
31376SOL    HW296026  10.386   4.276  10.159
31377SOL     OW96027  10.690  10.750  12.469
31377SOL    HW196028  10.663  10.752  12.560
31377SOL    HW296029  10.640  10.678  12.430
31378SOL     OW96030  14.675   5.059   9.027
31378SOL    HW196031  14.603   5.110   9.063
31378SOL    HW296032  14.740   5.123   8.999
31379SOL     OW96033   4.855   0.342   3.519
31379SOL    HW196034   4.763   0.363   3.538
31379SOL    HW296035   4.902   0.424   3.532
31380SOL     OW96036   4.809  14.875   2.752
31380SOL    HW196037   4.810   0.087   2.727
31380SOL    HW296038   4.892  14.840   2.720
31381SOL     OW96039   9.808  12.476   4.509
31381SOL    HW196040   9.746  12.449   4.441
31381SOL    HW296041   9.784  12.567   4.528
31382SOL     OW96042   3.412  10.367  14.356
31382SOL    HW196043   3.417  10.314  14.276
31382SOL    HW296044   3.425  10.305  14.427
31383SOL     OW96045   0.358  11.305   0.681
31383SOL    HW196046   0.294  11.290   0.611
31383SOL    HW296047   0.438  11.263   0.650
31384SOL     OW96048  13.048   7.973   7.642
31384SOL    HW196049  12.974   7.932   7.687
31384SOL    HW296050  13.048   8.064   7.673
31385SOL     OW96051   3.442  14.560  11.212
31385SOL    HW196052   3.513  14.621  11.192
31385SOL    HW296053   3.446  14.549  11.307
31386SOL     OW96054  14.307   2.575   6.888
31386SOL    HW196055  14.259   2.646   6.931
31386SOL    HW296056  14.349   2.528   6.960
31387SOL     OW96057  12.924   6.108   8.036
31387SOL    HW196058  12.905   6.149   7.951
31387SOL    HW296059  12.872   6.028   8.036
31388SOL     OW96060  10.897   2.748   8.967
31388SOL    HW196061  10.947   2.767   8.887
31388SOL    HW296062  10.872   2.657   8.959
31389SOL     OW96063  13.488   8.883   8.258
31389SOL    HW196064  13.512   8.800   8.298
31389SOL    HW296065  13.544   8.889   8.180
31390SOL     OW96066  11.023   6.637   1.775
31390SOL    HW196067  11.047   6.602   1.860
31390SOL    HW296068  11.013   6.731   1.790
31391SOL     OW96069   3.929  13.380   2.079
31391SOL    HW196070   3.835  13.378   2.098
31391SOL    HW296071   3.938  13.451   2.015
31392SOL     OW96072   8.357  11.470   3.708
31392SOL    HW196073   8.438  11.496   3.665
31392SOL    HW296074   8.305  11.551   3.712
31393SOL     OW96075  13.502   3.903   1.795
31393SOL    HW196076  13.412   3.902   1.826
31393SOL    HW296077  13.526   3.996   1.791
31394SOL     OW96078  14.611   7.375   3.457
31394SOL    HW196079  14.603   7.348   3.549
31394SOL    HW296080  14.521   7.373   3.424
31395SOL     OW96081   7.840   9.713  10.124
31395SOL    HW196082   7.824   9.797  10.169
31395SOL    HW296083   7.770   9.707  10.059
31396SOL     OW96084   8.072   1.980   0.151
31396SOL    HW196085   8.074   1.889   0.122
31396SOL    HW296086   8.016   1.979   0.229
31397SOL     OW96087  13.596   5.278  11.143
31397SOL    HW196088  13.631   5.211  11.202
31397SOL    HW296089  13.670   5.335  11.125
31398SOL     OW96090   0.751   9.881   9.998
31398SOL    HW196091   0.720   9.811  10.056
31398SOL    HW296092   0.777   9.952  10.058
31399SOL     OW96093  12.648   6.018  12.991
31399SOL    HW196094  12.560   6.042  12.962
31399SOL    HW296095  12.699   6.013  12.911
31400SOL     OW96096   5.044  12.768   6.798
31400SOL    HW196097   5.083  12.682   6.779
31400SOL    HW296098   5.083  12.792   6.882
31401SOL     OW96099   9.539  11.221   5.672
31401SOL    HW196100   9.465  11.213   5.732
31401SOL    HW296101   9.596  11.147   5.694
31402SOL     OW96102  11.847  12.007   6.736
31402SOL    HW196103  11.874  11.941   6.800
31402SOL    HW296104  11.913  12.075   6.741
31403SOL     OW96105  13.669  12.341  13.164
31403SOL    HW196106  13.650  12.322  13.256
31403SOL    HW296107  13.607  12.287  13.114
31404SOL     OW96108  12.280   3.838  13.700
31404SOL    HW196109  12.263   3.787  13.621
31404SOL    HW296110  12.316   3.775  13.762
31405SOL     OW96111   6.348   2.442  11.099
31405SOL    HW196112   6.266   2.393  11.107
31405SOL    HW296113   6.369   2.439  11.006
31406SOL     OW96114   6.244   7.682   0.589
31406SOL    HW196115   6.302   7.706   0.661
31406SOL    HW296116   6.216   7.593   0.609
31407SOL     OW96117  10.873   6.866   2.768
31407SOL    HW196118  10.921   6.923   2.708
31407SOL    HW296119  10.898   6.777   2.744
31408SOL     OW96120   9.907   0.600   0.911
31408SOL    HW196121   9.881   0.667   0.973
31408SOL    HW296122   9.841   0.531   0.920
31409SOL     OW96123   2.732  10.684  10.894
31409SOL    HW196124   2.805  10.622  10.893
31409SOL    HW296125   2.746  10.740  10.818
31410SOL     OW96126   5.011  13.046   0.625
31410SOL    HW196127   4.925  13.035   0.666
31410SOL    HW296128   4.992  13.047   0.531
31411SOL     OW96129   3.684   4.633  13.015
31411SOL    HW196130   3.668   4.667  12.927
31411SOL    HW296131   3.653   4.702  13.073
31412SOL     OW96132   3.583  12.248   4.418
31412SOL    HW196133   3.505  12.301   4.435
31412SOL    HW296134   3.642  12.308   4.373
31413SOL     OW96135   1.873   2.458   1.203
31413SOL    HW196136   1.843   2.544   1.230
31413SOL    HW296137   1.876   2.462   1.107
31414SOL     OW96138  10.220  11.923   4.655
31414SOL    HW196139  10.130  11.902   4.630
31414SOL    HW296140  10.222  12.018   4.660
31415SOL     OW96141   6.137  11.533  11.541
31415SOL    HW196142   6.084  11.470  11.492
31415SOL    HW296143   6.177  11.588  11.474
31416SOL     OW96144  11.033   5.671   7.149
31416SOL    HW196145  10.971   5.733   7.188
31416SOL    HW296146  11.114   5.722   7.139
31417SOL     OW96147  12.379  12.672   8.986
31417SOL    HW196148  12.379  12.748   8.929
31417SOL    HW296149  12.466  12.673   9.027
31418SOL     OW96150  11.171  13.339   7.491
31418SOL    HW196151  11.176  13.244   7.497
31418SOL    HW296152  11.083  13.361   7.520
31419SOL     OW96153   3.174  13.973  12.386
31419SOL    HW196154   3.118  14.049  12.399
31419SOL    HW296155   3.258  13.998  12.424
31420SOL     OW96156  13.027  10.062  13.204
31420SOL    HW196157  12.968   9.993  13.172
31420SOL    HW296158  13.064  10.101  13.125
31421SOL     OW96159  10.948   7.105  10.733
31421SOL    HW196160  10.968   7.045  10.805
31421SOL    HW296161  10.990   7.065  10.657
31422SOL     OW96162  11.471   8.844   6.722
31422SOL    HW196163  11.507   8.932   6.736
31422SOL    HW296164  11.376   8.856   6.730
31423SOL     OW96165   2.978   3.314   7.338
31423SOL    HW196166   2.936   3.284   7.257
31423SOL    HW296167   2.914   3.371   7.380
31424SOL     OW96168   9.776  12.672  10.688
31424SOL    HW196169   9.684  12.689  10.706
31424SOL    HW296170   9.823  12.728  10.750
31425SOL     OW96171   0.045   2.686  13.016
31425SOL    HW196172   0.033   2.781  13.015
31425SOL    HW296173  14.839   2.652  13.042
31426SOL     OW96174   0.248   9.347   3.610
31426SOL    HW196175   0.329   9.369   3.565
31426SOL    HW296176   0.267   9.266   3.656
31427SOL     OW96177   1.225   1.607  12.918
31427SOL    HW196178   1.179   1.646  12.991
31427SOL    HW296179   1.173   1.528  12.897
31428SOL     OW96180   7.471   2.297   3.638
31428SOL    HW196181   7.387   2.289   3.592
31428SOL    HW296182   7.461   2.240   3.714
31429SOL     OW96183   7.195   3.212   4.133
31429SOL    HW196184   7.123   3.167   4.088
31429SOL    HW296185   7.222   3.151   4.201
31430SOL     OW96186  14.222   4.227  13.437
31430SOL    HW196187  14.295   4.187  13.484
31430SOL    HW296188  14.261   4.302  13.391
31431SOL     OW96189   6.360   9.495  11.243
31431SOL    HW196190   6.299   9.555  11.286
31431SOL    HW296191   6.442   9.543  11.238
31432SOL     OW96192   5.972   9.593   4.339
31432SOL    HW196193   5.984   9.562   4.249
31432SOL    HW296194   6.035   9.542   4.390
31433SOL     OW96195   3.392  13.362   8.965
31433SOL    HW196196   3.487  13.358   8.974
31433SOL    HW296197   3.364  13.271   8.963
31434SOL     OW96198  14.040  13.701  13.172
31434SOL    HW196199  13.979  13.637  13.209
31434SOL    HW296200  14.092  13.731  13.246
31435SOL     OW96201   0.094  10.696  10.763
31435SOL    HW196202   0.051  10.629  10.708
31435SOL    HW296203   0.101  10.655  10.849
31436SOL     OW96204   7.734  13.968  14.542
31436SOL    HW196205   7.800  13.920  14.593
31436SOL    HW296206   7.661  13.907  14.535
31437SOL     OW96207   0.025   0.627  10.430
31437SOL    HW196208   0.084   0.570  10.381
31437SOL    HW296209   0.050   0.716  10.404
31438SOL     OW96210  11.438   0.029   9.334
31438SOL    HW196211  11.455   0.120   9.306
31438SOL    HW296212  11.427   0.035   9.428
31439SOL     OW96213  13.189  11.687   1.887
31439SOL    HW196214  13.216  11.656   1.974
31439SOL    HW296215  13.240  11.635   1.826
31440SOL     OW96216  14.213   5.385  14.335
31440SOL    HW196217  14.298   5.415  14.303
31440SOL    HW296218  14.165   5.465  14.356
31441SOL     OW96219   2.313   7.228   0.508
31441SOL    HW196220   2.319   7.312   0.554
31441SOL    HW296221   2.244   7.180   0.553
31442SOL     OW96222   6.319   2.237   1.789
31442SOL    HW196223   6.365   2.186   1.723
31442SOL    HW296224   6.257   2.175   1.828
31443SOL     OW96225   1.878   4.856   0.338
31443SOL    HW196226   1.962   4.832   0.298
31443SOL    HW296227   1.902   4.921   0.405
31444SOL     OW96228   1.605  14.785   8.635
31444SOL    HW196229   1.545  14.859   8.625
31444SOL    HW296230   1.576  14.741   8.715
31445SOL     OW96231   8.295   0.404  11.792
31445SOL    HW196232   8.307   0.314  11.762
31445SOL    HW296233   8.275   0.396  11.885
31446SOL     OW96234  10.620   4.943   7.390
31446SOL    HW196235  10.569   4.911   7.316
31446SOL    HW296236  10.586   4.895   7.466
31447SOL     OW96237   5.842  10.667  13.903
31447SOL    HW196238   5.916  10.667  13.964
31447SOL    HW296239   5.870  10.727  13.833
31448SOL     OW96240  14.614   1.679  10.259
31448SOL    HW196241  14.677   1.709  10.324
31448SOL    HW296242  14.546   1.634  10.309
31449SOL     OW96243  13.181  11.113   6.351
31449SOL    HW196244  13.162  11.047   6.417
31449SOL    HW296245  13.195  11.193   6.400
31450SOL     OW96246   0.073   6.721  11.502
31450SOL    HW196247   0.026   6.775  11.565
31450SOL    HW296248   0.139   6.779  11.464
31451SOL     OW96249   0.615   0.965  10.962
31451SOL    HW196250   0.547   0.952  10.896
31451SOL    HW296251   0.687   1.007  10.914
31452SOL     OW96252  12.584  14.159   9.556
31452SOL    HW196253  12.565  14.246   9.591
31452SOL    HW296254  12.676  14.163   9.529
31453SOL     OW96255  11.712  14.654  13.686
31453SOL    HW196256  11.708  14.644  13.591
31453SOL    HW296257  11.652  14.726  13.705
31454SOL     OW96258  14.192   5.098   4.524
31454SOL    HW196259  14.159   5.172   4.575
31454SOL    HW296260  14.253   5.053   4.583
31455SOL     OW96261  13.396  10.176   9.113
31455SOL    HW196262  13.481  10.201   9.149
31455SOL    HW296263  13.369  10.251   9.060
31456SOL     OW96264  11.337   3.959   4.738
31456SOL    HW196265  11.284   3.957   4.817
31456SOL    HW296266  11.422   3.925   4.765
31457SOL     OW96267  14.753   5.729  14.128
31457SOL    HW196268  14.722   5.813  14.161
31457SOL    HW296269  14.779   5.746  14.037
31458SOL     OW96270  14.355   7.211   7.857
31458SOL    HW196271  14.282   7.272   7.846
31458SOL    HW296272  14.421   7.260   7.905
31459SOL     OW96273   1.724   8.686   8.879
31459SOL    HW196274   1.684   8.626   8.942
31459SOL    HW296275   1.799   8.722   8.925
31460SOL     OW96276   4.452   3.946   2.754
31460SOL    HW196277   4.360   3.922   2.769
31460SOL    HW296278   4.473   3.907   2.669
31461SOL     OW96279  12.737   4.494   3.366
31461SOL    HW196280  12.814   4.484   3.422
31461SOL    HW296281  12.767   4.547   3.292
31462SOL     OW96282  10.718   3.700   5.584
31462SOL    HW196283  10.795   3.755   5.572
31462SOL    HW296284  10.657   3.754   5.632
31463SOL     OW96285   4.574   6.429   5.382
31463SOL    HW196286   4.631   6.485   5.434
31463SOL    HW296287   4.506   6.489   5.350
31464SOL     OW96288   9.254  13.853  13.352
31464SOL    HW196289   9.193  13.784  13.328
31464SOL    HW296290   9.209  13.902  13.421
31465SOL     OW96291  12.569   6.528   4.679
31465SOL    HW196292  12.483   6.498   4.707
31465SOL    HW296293  12.627   6.454   4.695
31466SOL     OW96294  12.467   3.656  12.795
31466SOL    HW196295  12.522   3.587  12.834
31466SOL    HW296296  12.451   3.626  12.706
31467SOL     OW96297   7.647   2.396  10.106
31467SOL    HW196298   7.563   2.402  10.060
31467SOL    HW296299   7.633   2.328  10.173
31468SOL     OW96300  11.492   6.796   2.919
31468SOL    HW196301  11.538   6.879   2.926
31468SOL    HW296302  11.422   6.812   2.855
31469SOL     OW96303   4.523   8.101  10.296
31469SOL    HW196304   4.535   8.126  10.387
31469SOL    HW296305   4.544   8.008  10.293
31470SOL     OW96306   1.847   4.618  10.141
31470SOL    HW196307   1.867   4.703  10.181
31470SOL    HW296308   1.896   4.618  10.059
31471SOL     OW96309   5.432  14.495  12.523
31471SOL    HW196310   5.473  14.409  12.513
31471SOL    HW296311   5.396  14.515  12.437
31472SOL     OW96312   0.978   3.807   2.056
31472SOL    HW196313   0.959   3.900   2.065
31472SOL    HW296314   0.974   3.772   2.145
31473SOL     OW96315   0.483  14.541  14.634
31473SOL    HW196316   0.525  14.504  14.712
31473SOL    HW296317   0.518  14.630  14.627
31474SOL     OW96318   5.172   9.296   7.269
31474SOL    HW196319   5.163   9.267   7.179
31474SOL    HW296320   5.163   9.216   7.321
31475SOL     OW96321   5.836  12.243  10.636
31475SOL    HW196322   5.874  12.157  10.653
31475SOL    HW296323   5.905  12.291  10.590
31476SOL     OW96324   3.541  12.149  12.970
31476SOL    HW196325   3.462  12.148  13.025
31476SOL    HW296326   3.559  12.057  12.953
31477SOL     OW96327   3.596   9.072  10.439
31477SOL    HW196328   3.520   9.038  10.392
31477SOL    HW296329   3.575   9.060  10.532
31478SOL     OW96330  11.111  11.883   6.321
31478SOL    HW196331  11.175  11.818   6.347
31478SOL    HW296332  11.158  11.966   6.325
31479SOL     OW96333   4.350  12.088   9.202
31479SOL    HW196334   4.265  12.048   9.184
31479SOL    HW296335   4.328  12.174   9.239
31480SOL     OW96336   9.715   9.313  11.074
31480SOL    HW196337   9.752   9.264  11.001
31480SOL    HW296338   9.686   9.247  11.136
31481SOL     OW96339   3.201   3.178   8.812
31481SOL    HW196340   3.241   3.112   8.756
31481SOL    HW296341   3.140   3.224   8.753
31482SOL     OW96342  12.315  12.835   4.422
31482SOL    HW196343  12.275  12.782   4.353
31482SOL    HW296344  12.391  12.785   4.450
31483SOL     OW96345   8.850  13.372  10.409
31483SOL    HW196346   8.801  13.438  10.360
31483SOL    HW296347   8.938  13.375  10.371
31484SOL     OW96348  13.956   0.175   0.923
31484SOL    HW196349  13.967   0.165   0.829
31484SOL    HW296350  14.044   0.166   0.959
31485SOL     OW96351   0.200   1.011   1.985
31485SOL    HW196352   0.157   1.088   2.021
31485SOL    HW296353   0.147   0.937   2.016
31486SOL     OW96354  13.623   4.738   2.772
31486SOL    HW196355  13.599   4.696   2.689
31486SOL    HW296356  13.719   4.742   2.769
31487SOL     OW96357  10.922  13.021  13.736
31487SOL    HW196358  10.871  12.941  13.748
31487SOL    HW296359  10.948  13.047  13.824
31488SOL     OW96360   8.498  13.111   5.678
31488SOL    HW196361   8.525  13.026   5.712
31488SOL    HW296362   8.437  13.091   5.607
31489SOL     OW96363  10.445   2.881   5.850
31489SOL    HW196364  10.537   2.883   5.877
31489SOL    HW296365  10.397   2.858   5.930
31490SOL     OW96366   4.169   9.018   1.248
31490SOL    HW196367   4.147   9.048   1.160
31490SOL    HW296368   4.226   9.087   1.282
31491SOL     OW96369   3.487   8.650  11.121
31491SOL    HW196370   3.428   8.575  11.113
31491SOL    HW296371   3.429   8.726  11.125
31492SOL     OW96372   9.873   2.632  11.294
31492SOL    HW196373   9.959   2.670  11.313
31492SOL    HW296374   9.843   2.597  11.377
31493SOL     OW96375  14.486  11.074  11.743
31493SOL    HW196376  14.422  11.074  11.671
31493SOL    HW296377  14.484  11.164  11.776
31494SOL     OW96378   1.175  12.622  14.176
31494SOL    HW196379   1.090  12.653  14.145
31494SOL    HW296380   1.195  12.677  14.252
31495SOL     OW96381   3.761   3.566   9.991
31495SOL    HW196382   3.780   3.472   9.989
31495SOL    HW296383   3.830   3.602  10.048
31496SOL     OW96384  11.229   1.054   6.460
31496SOL    HW196385  11.258   1.075   6.549
31496SOL    HW296386  11.149   1.104   6.447
31497SOL     OW96387   3.173   1.692   9.714
31497SOL    HW196388   3.104   1.723   9.656
31497SOL    HW296389   3.219   1.771   9.741
31498SOL     OW96390   4.109   7.185   1.273
31498SOL    HW196391   4.016   7.192   1.251
31498SOL    HW296392   4.138   7.105   1.228
31499SOL     OW96393  12.587   1.103   3.572
31499SOL    HW196394  12.621   1.168   3.634
31499SOL    HW296395  12.528   1.152   3.515
31500SOL     OW96396   1.037   0.323   7.290
31500SOL    HW196397   1.114   0.268   7.298
31500SOL    HW296398   1.070   0.412   7.300
31501SOL     OW96399  11.243   3.865  10.295
31501SOL    HW196400  11.207   3.862  10.384
31501SOL    HW296401  11.207   3.944  10.256
31502SOL     OW96402   5.083   1.655   1.729
31502SOL    HW196403   5.053   1.616   1.811
31502SOL    HW296404   5.176   1.673   1.744
31503SOL     OW96405  14.618   0.528   7.769
31503SOL    HW196406  14.534   0.482   7.773
31503SOL    HW296407  14.631   0.562   7.857
31504SOL     OW96408  11.113  12.963   3.174
31504SOL    HW196409  11.134  12.872   3.194
31504SOL    HW296410  11.197  13.009   3.180
31505SOL     OW96411  11.863   1.450   4.731
31505SOL    HW196412  11.833   1.389   4.663
31505SOL    HW296413  11.957   1.433   4.739
31506SOL     OW96414   5.302   1.756   2.233
31506SOL    HW196415   5.243   1.821   2.271
31506SOL    HW296416   5.289   1.677   2.286
31507SOL     OW96417   1.451   6.701   5.266
31507SOL    HW196418   1.490   6.635   5.209
31507SOL    HW296419   1.526   6.742   5.310
31508SOL     OW96420   0.821  11.771   9.899
31508SOL    HW196421   0.879  11.698   9.880
31508SOL    HW296422   0.734  11.732   9.904
31509SOL     OW96423  14.558  12.590   9.655
31509SOL    HW196424  14.652  12.586   9.672
31509SOL    HW296425  14.531  12.675   9.689
31510SOL     OW96426   6.186  13.320   2.085
31510SOL    HW196427   6.254  13.371   2.040
31510SOL    HW296428   6.226  13.293   2.167
31511SOL     OW96429  13.723   5.871   4.494
31511SOL    HW196430  13.637   5.889   4.532
31511SOL    HW296431  13.745   5.783   4.525
31512SOL     OW96432   4.027  14.473  10.300
31512SOL    HW196433   4.077  14.528  10.361
31512SOL    HW296434   4.091  14.445  10.235
31513SOL     OW96435   6.507   6.798   0.785
31513SOL    HW196436   6.434   6.856   0.763
31513SOL    HW296437   6.531   6.758   0.701
31514SOL     OW96438   8.955  12.829  12.736
31514SOL    HW196439   9.007  12.906  12.759
31514SOL    HW296440   8.975  12.765  12.803
31515SOL     OW96441   6.998  11.984  10.131
31515SOL    HW196442   7.029  12.007  10.043
31515SOL    HW296443   7.034  11.897  10.147
31516SOL     OW96444   3.660   1.296   4.758
31516SOL    HW196445   3.620   1.210   4.749
31516SOL    HW296446   3.718   1.304   4.683
31517SOL     OW96447   0.168  13.693   4.059
31517SOL    HW196448   0.093  13.699   4.117
31517SOL    HW296449   0.166  13.775   4.009
31518SOL     OW96450  11.213   1.601  14.792
31518SOL    HW196451  11.190   1.672  14.731
31518SOL    HW296452  11.175   1.523  14.752
31519SOL     OW96453   2.927   4.241  14.310
31519SOL    HW196454   2.888   4.254  14.224
31519SOL    HW296455   2.920   4.327  14.353
31520SOL     OW96456   7.022   2.632   3.495
31520SOL    HW196457   6.949   2.680   3.456
31520SOL    HW296458   7.058   2.580   3.422
31521SOL     OW96459   9.623   0.505  11.295
31521SOL    HW196460   9.547   0.454  11.324
31521SOL    HW296461   9.624   0.583  11.350
31522SOL     OW96462   6.857   7.751   9.673
31522SOL    HW196463   6.878   7.821   9.611
31522SOL    HW296464   6.920   7.764   9.744
31523SOL     OW96465   6.214   1.533   8.038
31523SOL    HW196466   6.288   1.585   8.007
31523SOL    HW296467   6.226   1.526   8.132
31524SOL     OW96468   4.422   0.196   8.329
31524SOL    HW196469   4.474   0.120   8.351
31524SOL    HW296470   4.412   0.243   8.412
31525SOL     OW96471   4.309   4.732  10.139
31525SOL    HW196472   4.341   4.780  10.215
31525SOL    HW296473   4.214   4.744  10.141
31526SOL     OW96474   6.715  13.937   7.427
31526SOL    HW196475   6.666  13.984   7.495
31526SOL    HW296476   6.668  13.957   7.346
31527SOL     OW96477   2.605   5.488   3.772
31527SOL    HW196478   2.644   5.447   3.849
31527SOL    HW296479   2.512   5.462   3.776
31528SOL     OW96480   1.855  12.177   1.354
31528SOL    HW196481   1.900  12.168   1.270
31528SOL    HW296482   1.909  12.237   1.404
31529SOL     OW96483   9.759   1.863   1.827
31529SOL    HW196484   9.706   1.812   1.889
31529SOL    HW296485   9.751   1.953   1.857
31530SOL     OW96486   0.627   2.960   7.498
31530SOL    HW196487   0.672   2.952   7.414
31530SOL    HW296488   0.649   2.879   7.544
31531SOL     OW96489   7.050  11.096   2.588
31531SOL    HW196490   7.000  11.119   2.510
31531SOL    HW296491   7.115  11.165   2.596
31532SOL     OW96492  14.032   7.444  10.855
31532SOL    HW196493  14.091   7.489  10.915
31532SOL    HW296494  13.958   7.504  10.844
31533SOL     OW96495   2.481   8.422   4.576
31533SOL    HW196496   2.538   8.359   4.531
31533SOL    HW296497   2.466   8.384   4.662
31534SOL     OW96498  14.491  14.034   1.240
31534SOL    HW196499  14.480  14.047   1.335
31534SOL    HW296500  14.408  14.062   1.202
31535SOL     OW96501   6.665   8.963   9.632
31535SOL    HW196502   6.688   9.032   9.570
31535SOL    HW296503   6.674   8.882   9.581
31536SOL     OW96504   0.589   6.837  11.611
31536SOL    HW196505   0.507   6.858  11.567
31536SOL    HW296506   0.649   6.814  11.540
31537SOL     OW96507   9.373  11.034   6.354
31537SOL    HW196508   9.342  10.950   6.388
31537SOL    HW296509   9.430  11.068   6.424
31538SOL     OW96510   0.526   5.093   0.910
31538SOL    HW196511   0.437   5.070   0.882
31538SOL    HW296512   0.558   5.151   0.842
31539SOL     OW96513   5.235  10.109   3.636
31539SOL    HW196514   5.257  10.019   3.611
31539SOL    HW296515   5.154  10.101   3.686
31540SOL     OW96516   6.290   3.682   9.253
31540SOL    HW196517   6.275   3.772   9.282
31540SOL    HW296518   6.216   3.662   9.196
31541SOL     OW96519   9.376   8.969   3.483
31541SOL    HW196520   9.286   8.987   3.456
31541SOL    HW296521   9.429   9.032   3.435
31542SOL     OW96522   3.879   9.078  11.384
31542SOL    HW196523   3.849   9.107  11.297
31542SOL    HW296524   3.826   9.001  11.404
31543SOL     OW96525   1.859  12.041  14.289
31543SOL    HW196526   1.922  12.111  14.306
31543SOL    HW296527   1.812  12.031  14.372
31544SOL     OW96528   8.432  12.243   6.162
31544SOL    HW196529   8.446  12.263   6.254
31544SOL    HW296530   8.490  12.302   6.115
31545SOL     OW96531  11.312  14.771   9.932
31545SOL    HW196532  11.374  14.706   9.964
31545SOL    HW296533  11.345  14.855   9.964
31546SOL     OW96534   5.492  12.917   7.995
31546SOL    HW196535   5.422  12.898   7.933
31546SOL    HW296536   5.483  12.849   8.062
31547SOL     OW96537   8.663  13.329   8.788
31547SOL    HW196538   8.601  13.300   8.721
31547SOL    HW296539   8.725  13.257   8.796
31548SOL     OW96540   6.234   9.134  14.210
31548SOL    HW196541   6.208   9.058  14.159
31548SOL    HW296542   6.209   9.112  14.300
31549SOL     OW96543   3.325  11.396   5.285
31549SOL    HW196544   3.237  11.376   5.253
31549SOL    HW296545   3.316  11.400   5.380
31550SOL     OW96546  13.062   9.916  10.099
31550SOL    HW196547  13.080   9.884  10.188
31550SOL    HW296548  13.066  10.012  10.108
31551SOL     OW96549  10.995  14.585   0.367
31551SOL    HW196550  10.953  14.503   0.342
31551SOL    HW296551  10.922  14.646   0.380
31552SOL     OW96552  11.918  11.428  10.547
31552SOL    HW196553  12.001  11.396  10.513
31552SOL    HW296554  11.874  11.466  10.471
31553SOL     OW96555   0.146  12.254   0.891
31553SOL    HW196556   0.177  12.303   0.815
31553SOL    HW296557   0.158  12.162   0.867
31554SOL     OW96558   4.863  14.688   1.117
31554SOL    HW196559   4.888  14.627   1.185
31554SOL    HW296560   4.933  14.683   1.052
31555SOL     OW96561  13.647   8.105  12.320
31555SOL    HW196562  13.566   8.058  12.297
31555SOL    HW296563  13.681   8.136  12.236
31556SOL     OW96564   1.019  12.316  10.728
31556SOL    HW196565   1.102  12.353  10.758
31556SOL    HW296566   1.011  12.234  10.777
31557SOL     OW96567   6.304  11.749  11.816
31557SOL    HW196568   6.288  11.802  11.738
31557SOL    HW296569   6.255  11.793  11.886
31558SOL     OW96570  12.313  10.929   6.933
31558SOL    HW196571  12.387  10.966   6.885
31558SOL    HW296572  12.236  10.957   6.883
31559SOL     OW96573   7.101   2.710   4.526
31559SOL    HW196574   7.145   2.629   4.550
31559SOL    HW296575   7.153   2.746   4.455
31560SOL     OW96576   1.256   5.978   9.379
31560SOL    HW196577   1.337   5.985   9.430
31560SOL    HW296578   1.187   6.007   9.438
31561SOL     OW96579   2.614   4.788  11.375
31561SOL    HW196580   2.563   4.751  11.448
31561SOL    HW296581   2.565   4.866  11.349
31562SOL     OW96582  14.035  14.743   3.630
31562SOL    HW196583  14.035  14.662   3.580
31562SOL    HW296584  13.959  14.736   3.688
31563SOL     OW96585  13.144   4.633   3.358
31563SOL    HW196586  13.055   4.603   3.339
31563SOL    HW296587  13.201   4.566   3.320
31564SOL     OW96588   8.265   9.662  10.058
31564SOL    HW196589   8.345   9.697  10.020
31564SOL    HW296590   8.215   9.629   9.983
31565SOL     OW96591   5.075  14.085   1.123
31565SOL    HW196592   4.992  14.109   1.081
31565SOL    HW296593   5.127  14.045   1.053
31566SOL     OW96594  13.462   3.264   4.870
31566SOL    HW196595  13.483   3.354   4.898
31566SOL    HW296596  13.367   3.261   4.872
31567SOL     OW96597   5.804  13.675   9.560
31567SOL    HW196598   5.718  13.694   9.521
31567SOL    HW296599   5.857  13.644   9.487
31568SOL     OW96600   9.810  10.395   1.364
31568SOL    HW196601   9.764  10.467   1.408
31568SOL    HW296602   9.883  10.438   1.319
31569SOL     OW96603   9.593   1.809   7.260
31569SOL    HW196604   9.666   1.851   7.214
31569SOL    HW296605   9.592   1.719   7.227
31570SOL     OW96606  12.744  13.176  10.048
31570SOL    HW196607  12.717  13.255  10.095
31570SOL    HW296608  12.710  13.189   9.959
31571SOL     OW96609  11.241   8.454  10.303
31571SOL    HW196610  11.286   8.379  10.266
31571SOL    HW296611  11.310   8.506  10.345
31572SOL     OW96612   8.908   6.244   9.017
31572SOL    HW196613   8.973   6.304   9.054
31572SOL    HW296614   8.945   6.216   8.934
31573SOL     OW96615   5.685   1.596   5.853
31573SOL    HW196616   5.591   1.581   5.857
31573SOL    HW296617   5.695   1.667   5.789
31574SOL     OW96618  14.659   9.210   6.364
31574SOL    HW196619  14.708   9.153   6.305
31574SOL    HW296620  14.568   9.183   6.354
31575SOL     OW96621   2.026  13.130   3.531
31575SOL    HW196622   2.112  13.156   3.563
31575SOL    HW296623   2.000  13.056   3.586
31576SOL     OW96624  12.377  13.943  13.553
31576SOL    HW196625  12.438  14.012  13.527
31576SOL    HW296626  12.331  13.920  13.472
31577SOL     OW96627   7.087   9.739   8.044
31577SOL    HW196628   7.150   9.784   8.100
31577SOL    HW296629   7.119   9.649   8.039
31578SOL     OW96630   0.653   9.443   4.823
31578SOL    HW196631   0.674   9.459   4.915
31578SOL    HW296632   0.599   9.364   4.825
31579SOL     OW96633   0.425   5.668   1.576
31579SOL    HW196634   0.360   5.652   1.507
31579SOL    HW296635   0.455   5.758   1.559
31580SOL     OW96636  12.445   2.205   0.603
31580SOL    HW196637  12.382   2.174   0.668
31580SOL    HW296638  12.484   2.283   0.642
31581SOL     OW96639   0.559   3.099  12.524
31581SOL    HW196640   0.533   3.184  12.559
31581SOL    HW296641   0.620   3.120  12.453
31582SOL     OW96642   8.599   7.905   7.186
31582SOL    HW196643   8.630   7.926   7.097
31582SOL    HW296644   8.644   7.968   7.242
31583SOL     OW96645   1.087   4.321   0.283
31583SOL    HW196646   1.078   4.242   0.230
31583SOL    HW296647   1.117   4.290   0.368
31584SOL     OW96648   5.993   0.047  14.087
31584SOL    HW196649   5.940   0.126  14.095
31584SOL    HW296650   5.990   0.026  13.994
31585SOL     OW96651   4.107   8.507  12.475
31585SOL    HW196652   4.145   8.568  12.411
31585SOL    HW296653   4.013   8.514  12.461
31586SOL     OW96654   7.170   6.475   9.075
31586SOL    HW196655   7.075   6.474   9.075
31586SOL    HW296656   7.194   6.495   9.165
31587SOL     OW96657  13.063   6.226  12.363
31587SOL    HW196658  13.066   6.317  12.391
31587SOL    HW296659  13.006   6.183  12.428
31588SOL     OW96660   7.216   6.190   6.718
31588SOL    HW196661   7.202   6.113   6.663
31588SOL    HW296662   7.130   6.229   6.728
31589SOL     OW96663   2.070   3.424   5.173
31589SOL    HW196664   2.035   3.427   5.262
31589SOL    HW296665   2.074   3.330   5.153
31590SOL     OW96666   1.825  13.192   9.838
31590SOL    HW196667   1.815  13.097   9.830
31590SOL    HW296668   1.875  13.204   9.918
31591SOL     OW96669   3.607   7.251   9.037
31591SOL    HW196670   3.564   7.242   8.952
31591SOL    HW296671   3.699   7.232   9.020
31592SOL     OW96672   9.492   9.588   6.665
31592SOL    HW196673   9.420   9.604   6.726
31592SOL    HW296674   9.520   9.498   6.684
31593SOL     OW96675   4.295   3.191   5.562
31593SOL    HW196676   4.237   3.173   5.637
31593SOL    HW296677   4.291   3.286   5.552
31594SOL     OW96678   4.172  11.828   1.489
31594SOL    HW196679   4.143  11.859   1.404
31594SOL    HW296680   4.109  11.864   1.551
31595SOL     OW96681   1.798   0.646   7.362
31595SOL    HW196682   1.832   0.605   7.282
31595SOL    HW296683   1.750   0.723   7.330
31596SOL     OW96684   8.897  11.615   3.438
31596SOL    HW196685   8.915  11.634   3.530
31596SOL    HW296686   8.815  11.660   3.420
31597SOL     OW96687  12.710   7.502  13.010
31597SOL    HW196688  12.678   7.495  13.100
31597SOL    HW296689  12.738   7.593  13.001
31598SOL     OW96690   7.873   5.654   2.274
31598SOL    HW196691   7.861   5.641   2.180
31598SOL    HW296692   7.820   5.731   2.294
31599SOL     OW96693   2.661  12.756   3.009
31599SOL    HW196694   2.696  12.680   3.057
31599SOL    HW296695   2.576  12.727   2.977
31600SOL     OW96696   7.200   8.689   3.788
31600SOL    HW196697   7.116   8.651   3.814
31600SOL    HW296698   7.253   8.614   3.761
31601SOL     OW96699   7.299   7.255  12.223
31601SOL    HW196700   7.352   7.175  12.220
31601SOL    HW296701   7.212   7.225  12.251
31602SOL     OW96702   7.536   9.992  13.271
31602SOL    HW196703   7.455   9.974  13.224
31602SOL    HW296704   7.521  10.075  13.316
31603SOL     OW96705  12.262   7.017  11.415
31603SOL    HW196706  12.246   7.025  11.509
31603SOL    HW296707  12.352   7.049  11.404
31604SOL     OW96708   9.319   0.492  12.217
31604SOL    HW196709   9.377   0.537  12.279
31604SOL    HW296710   9.256   0.559  12.190
31605SOL     OW96711  11.061   9.226   7.822
31605SOL    HW196712  11.071   9.167   7.897
31605SOL    HW296713  11.098   9.309   7.852
31606SOL     OW96714   0.830  11.167   1.206
31606SOL    HW196715   0.820  11.115   1.126
31606SOL    HW296716   0.870  11.107   1.269
31607SOL     OW96717   9.149   6.813  13.742
31607SOL    HW196718   9.225   6.848  13.695
31607SOL    HW296719   9.116   6.743  13.686
31608SOL     OW96720   6.164  11.974  12.265
31608SOL    HW196721   6.225  11.921  12.315
31608SOL    HW296722   6.077  11.947  12.295
31609SOL     OW96723   0.435   1.691   0.476
31609SOL    HW196724   0.378   1.758   0.438
31609SOL    HW296725   0.392   1.668   0.559
31610SOL     OW96726  13.667   6.260   7.776
31610SOL    HW196727  13.603   6.197   7.809
31610SOL    HW296728  13.749   6.211   7.769
31611SOL     OW96729  11.080   5.381   5.887
31611SOL    HW196730  11.046   5.318   5.824
31611SOL    HW296731  11.003   5.432   5.914
31612SOL     OW96732   6.857   7.694  14.826
31612SOL    HW196733   6.824   7.604  14.828
31612SOL    HW296734   6.779   7.749  14.833
31613SOL     OW96735   0.099  10.709   7.773
31613SOL    HW196736   0.155  10.693   7.697
31613SOL    HW296737   0.098  10.804   7.782
31614SOL     OW96738   6.252   5.517   0.342
31614SOL    HW196739   6.298   5.597   0.320
31614SOL    HW296740   6.300   5.482   0.418
31615SOL     OW96741  14.658   0.380  12.701
31615SOL    HW196742  14.663   0.406  12.793
31615SOL    HW296743  14.610   0.297  12.702
31616SOL     OW96744   6.729   5.228  12.451
31616SOL    HW196745   6.797   5.237  12.384
31616SOL    HW296746   6.652   5.199  12.403
31617SOL     OW96747   3.456   7.304   6.478
31617SOL    HW196748   3.486   7.216   6.457
31617SOL    HW296749   3.510   7.361   6.424
31618SOL     OW96750  13.116   0.555   7.812
31618SOL    HW196751  13.058   0.482   7.835
31618SOL    HW296752  13.204   0.520   7.820
31619SOL     OW96753   2.546   8.994   4.545
31619SOL    HW196754   2.459   9.031   4.530
31619SOL    HW296755   2.604   9.070   4.547
31620SOL     OW96756   0.194  13.025   1.290
31620SOL    HW196757   0.256  13.098   1.283
31620SOL    HW296758   0.166  13.025   1.381
31621SOL     OW96759   6.793   3.549   9.249
31621SOL    HW196760   6.843   3.554   9.331
31621SOL    HW296761   6.713   3.503   9.273
31622SOL     OW96762  11.665   4.117   4.648
31622SOL    HW196763  11.635   4.031   4.680
31622SOL    HW296764  11.584   4.167   4.637
31623SOL     OW96765   6.349  10.804   6.886
31623SOL    HW196766   6.339  10.784   6.792
31623SOL    HW296767   6.348  10.718   6.928
31624SOL     OW96768  12.993   9.848   6.975
31624SOL    HW196769  13.087   9.866   6.973
31624SOL    HW296770  12.953   9.933   6.995
31625SOL     OW96771  11.628  13.207   1.550
31625SOL    HW196772  11.604  13.179   1.462
31625SOL    HW296773  11.716  13.171   1.563
31626SOL     OW96774   0.766   1.780   7.455
31626SOL    HW196775   0.753   1.848   7.521
31626SOL    HW296776   0.820   1.714   7.499
31627SOL     OW96777   2.830  14.531   2.806
31627SOL    HW196778   2.887  14.601   2.772
31627SOL    HW296779   2.851  14.455   2.752
31628SOL     OW96780  12.063  12.081  11.298
31628SOL    HW196781  12.048  12.052  11.208
31628SOL    HW296782  12.134  12.025  11.330
31629SOL     OW96783   2.486  11.245  13.792
31629SOL    HW196784   2.524  11.288  13.869
31629SOL    HW296785   2.513  11.153  13.800
31630SOL     OW96786   9.420  14.148  14.500
31630SOL    HW196787   9.341  14.203  14.502
31630SOL    HW296788   9.401  14.083  14.432
31631SOL     OW96789   0.433   4.752   0.235
31631SOL    HW196790   0.353   4.715   0.199
31631SOL    HW296791   0.466   4.810   0.166
31632SOL     OW96792   6.376   8.465  10.295
31632SOL    HW196793   6.307   8.424  10.348
31632SOL    HW296794   6.396   8.399  10.228
31633SOL     OW96795   6.871   8.573   2.600
31633SOL    HW196796   6.785   8.579   2.641
31633SOL    HW296797   6.853   8.570   2.506
31634SOL     OW96798   5.145   0.615  13.745
31634SOL    HW196799   5.116   0.705  13.759
31634SOL    HW296800   5.064   0.566  13.728
31635SOL     OW96801   9.918   8.850   8.038
31635SOL    HW196802   9.829   8.832   8.069
31635SOL    HW296803   9.962   8.764   8.039
31636SOL     OW96804   7.681  11.718   8.756
31636SOL    HW196805   7.614  11.777   8.789
31636SOL    HW296806   7.670  11.719   8.661
31637SOL     OW96807   9.504   7.179   8.653
31637SOL    HW196808   9.537   7.202   8.740
31637SOL    HW296809   9.537   7.090   8.637
31638SOL     OW96810  14.710  11.034  11.291
31638SOL    HW196811  14.693  11.036  11.386
31638SOL    HW296812  14.747  10.948  11.275
31639SOL     OW96813   3.163   0.299   6.749
31639SOL    HW196814   3.182   0.385   6.786
31639SOL    HW296815   3.109   0.317   6.672
31640SOL     OW96816  10.200   8.175  12.056
31640SOL    HW196817  10.120   8.205  12.013
31640SOL    HW296818  10.196   8.212  12.144
31641SOL     OW96819  10.076   6.752   2.789
31641SOL    HW196820  10.004   6.800   2.830
31641SOL    HW296821  10.100   6.806   2.714
31642SOL     OW96822   9.721   0.104   7.778
31642SOL    HW196823   9.750   0.161   7.707
31642SOL    HW296824   9.732   0.015   7.743
31643SOL     OW96825  12.764  13.991  10.864
31643SOL    HW196826  12.801  13.975  10.777
31643SOL    HW296827  12.704  14.065  10.852
31644SOL     OW96828   5.796   3.774  10.357
31644SOL    HW196829   5.776   3.691  10.400
31644SOL    HW296830   5.888   3.767  10.333
31645SOL     OW96831   2.049  13.097  14.688
31645SOL    HW196832   2.010  13.021  14.733
31645SOL    HW296833   2.015  13.092  14.599
31646SOL     OW96834  11.073   7.702  11.963
31646SOL    HW196835  11.047   7.622  12.008
31646SOL    HW296836  11.149   7.677  11.911
31647SOL     OW96837   7.477   3.637  14.809
31647SOL    HW196838   7.426   3.704  14.763
31647SOL    HW296839   7.445   3.639   0.018
31648SOL     OW96840   5.208  10.799   3.963
31648SOL    HW196841   5.259  10.748   3.901
31648SOL    HW296842   5.197  10.740   4.038
31649SOL     OW96843   5.101   7.490   2.336
31649SOL    HW196844   5.166   7.554   2.363
31649SOL    HW296845   5.041   7.484   2.411
31650SOL     OW96846  11.251   3.638   5.156
31650SOL    HW196847  11.322   3.639   5.220
31650SOL    HW296848  11.269   3.713   5.099
31651SOL     OW96849   7.944  12.795   4.051
31651SOL    HW196850   7.971  12.781   3.960
31651SOL    HW296851   7.905  12.711   4.077
31652SOL     OW96852   1.887  12.110  13.079
31652SOL    HW196853   1.810  12.165  13.063
31652SOL    HW296854   1.918  12.136  13.165
31653SOL     OW96855   3.646   3.468   2.692
31653SOL    HW196856   3.703   3.540   2.666
31653SOL    HW296857   3.692   3.390   2.660
31654SOL     OW96858   9.825   4.051   0.074
31654SOL    HW196859   9.814   4.079  14.863
31654SOL    HW296860   9.860   4.129   0.118
31655SOL     OW96861   6.529  10.951   1.749
31655SOL    HW196862   6.562  11.013   1.684
31655SOL    HW296863   6.458  10.905   1.703
31656SOL     OW96864   6.158  11.532   3.761
31656SOL    HW196865   6.198  11.600   3.707
31656SOL    HW296866   6.110  11.477   3.699
31657SOL     OW96867   2.771  13.771   2.982
31657SOL    HW196868   2.759  13.862   2.955
31657SOL    HW296869   2.683  13.735   2.984
31658SOL     OW96870   1.155   6.421   8.130
31658SOL    HW196871   1.071   6.415   8.085
31658SOL    HW296872   1.194   6.503   8.098
31659SOL     OW96873  10.824   1.259   3.839
31659SOL    HW196874  10.784   1.346   3.841
31659SOL    HW296875  10.767   1.208   3.782
31660SOL     OW96876   7.520  12.889  11.031
31660SOL    HW196877   7.508  12.984  11.019
31660SOL    HW296878   7.615  12.878  11.043
31661SOL     OW96879   2.898  12.518   9.279
31661SOL    HW196880   2.807  12.497   9.260
31661SOL    HW296881   2.900  12.533   9.373
31662SOL     OW96882  14.251   2.374  14.341
31662SOL    HW196883  14.344   2.360  14.321
31662SOL    HW296884  14.204   2.335  14.266
31663SOL     OW96885   6.252   7.846   7.815
31663SOL    HW196886   6.332   7.817   7.772
31663SOL    HW296887   6.266   7.825   7.908
31664SOL     OW96888   5.772   6.577  13.904
31664SOL    HW196889   5.830   6.518  13.856
31664SOL    HW296890   5.828   6.616  13.971
31665SOL     OW96891  13.467   5.204   4.293
31665SOL    HW196892  13.503   5.275   4.239
31665SOL    HW296893  13.409   5.248   4.356
31666SOL     OW96894   6.649   0.565   0.688
31666SOL    HW196895   6.600   0.643   0.711
31666SOL    HW296896   6.735   0.576   0.728
31667SOL     OW96897  10.154   9.347   2.943
31667SOL    HW196898  10.202   9.421   2.906
31667SOL    HW296899  10.062   9.376   2.944
31668SOL     OW96900   8.154  11.304  12.360
31668SOL    HW196901   8.159  11.225  12.308
31668SOL    HW296902   8.237  11.348  12.347
31669SOL     OW96903  11.607   5.534  13.318
31669SOL    HW196904  11.559   5.613  13.293
31669SOL    HW296905  11.539   5.473  13.344
31670SOL     OW96906   8.160   9.656   4.579
31670SOL    HW196907   8.075   9.629   4.545
31670SOL    HW296908   8.140   9.724   4.643
31671SOL     OW96909  10.658  14.511  10.450
31671SOL    HW196910  10.740  14.522  10.500
31671SOL    HW296911  10.641  14.417  10.451
31672SOL     OW96912  13.475  13.477   5.310
31672SOL    HW196913  13.431  13.500   5.228
31672SOL    HW296914  13.495  13.383   5.301
31673SOL     OW96915   1.628   6.779   6.480
31673SOL    HW196916   1.539   6.809   6.499
31673SOL    HW296917   1.638   6.790   6.385
31674SOL     OW96918  12.312  14.863   7.355
31674SOL    HW196919  12.390  14.856   7.300
31674SOL    HW296920  12.268  14.779   7.344
31675SOL     OW96921   3.661   8.015  14.654
31675SOL    HW196922   3.591   7.973  14.704
31675SOL    HW296923   3.730   8.030  14.719
31676SOL     OW96924   6.198   6.307   2.780
31676SOL    HW196925   6.165   6.396   2.765
31676SOL    HW296926   6.126   6.250   2.752
31677SOL     OW96927  12.113   7.673   5.720
31677SOL    HW196928  12.057   7.606   5.761
31677SOL    HW296929  12.085   7.676   5.629
31678SOL     OW96930   8.491  11.736  12.744
31678SOL    HW196931   8.455  11.816  12.706
31678SOL    HW296932   8.519  11.762  12.832
31679SOL     OW96933  10.532  12.078  12.870
31679SOL    HW196934  10.588  12.147  12.905
31679SOL    HW296935  10.492  12.038  12.947
31680SOL     OW96936   1.471   7.852  12.088
31680SOL    HW196937   1.500   7.928  12.037
31680SOL    HW296938   1.551   7.813  12.121
31681SOL     OW96939   4.076  11.447   7.022
31681SOL    HW196940   4.149  11.387   7.037
31681SOL    HW296941   4.115  11.534   7.023
31682SOL     OW96942   3.218   2.463   4.583
31682SOL    HW196943   3.187   2.378   4.554
31682SOL    HW296944   3.211   2.519   4.505
31683SOL     OW96945  10.073  11.124  14.679
31683SOL    HW196946  10.076  11.040  14.725
31683SOL    HW296947  10.016  11.179  14.732
31684SOL     OW96948   9.831   2.294  12.678
31684SOL    HW196949   9.905   2.321  12.623
31684SOL    HW296950   9.755   2.299  12.621
31685SOL     OW96951  13.119  11.977   4.321
31685SOL    HW196952  13.105  11.998   4.413
31685SOL    HW296953  13.200  12.022   4.298
31686SOL     OW96954  10.020   1.462   3.227
31686SOL    HW196955  10.078   1.436   3.299
31686SOL    HW296956  10.022   1.557   3.227
31687SOL     OW96957  12.746   4.900   5.708
31687SOL    HW196958  12.715   4.827   5.654
31687SOL    HW296959  12.681   4.969   5.694
31688SOL     OW96960   0.902   6.052   6.366
31688SOL    HW196961   0.819   6.061   6.412
31688SOL    HW296962   0.880   6.065   6.274
31689SOL     OW96963  11.225  13.952   4.319
31689SOL    HW196964  11.250  13.995   4.401
31689SOL    HW296965  11.147  13.902   4.341
31690SOL     OW96966   7.783   5.901   6.027
31690SOL    HW196967   7.774   5.996   6.037
31690SOL    HW296968   7.767   5.867   6.115
31691SOL     OW96969   0.235   8.422   8.595
31691SOL    HW196970   0.316   8.425   8.646
31691SOL    HW296971   0.256   8.470   8.514
31692SOL     OW96972   8.710   7.315   0.191
31692SOL    HW196973   8.769   7.335   0.264
31692SOL    HW296974   8.622   7.321   0.229
31693SOL     OW96975  12.477  11.872  14.874
31693SOL    HW196976  12.412  11.898   0.058
31693SOL    HW296977  12.539  11.818   0.043
31694SOL     OW96978   6.419  13.400  12.157
31694SOL    HW196979   6.385  13.488  12.145
31694SOL    HW296980   6.414  13.385  12.252
31695SOL     OW96981   7.491   8.775   6.246
31695SOL    HW196982   7.563   8.764   6.308
31695SOL    HW296983   7.502   8.704   6.183
31696SOL     OW96984   0.340   0.951  13.072
31696SOL    HW196985   0.317   0.897  13.147
31696SOL    HW296986   0.260   1.000  13.052
31697SOL     OW96987  12.102  12.432  14.100
31697SOL    HW196988  12.190  12.457  14.128
31697SOL    HW296989  12.089  12.344  14.135
31698SOL     OW96990  12.422   2.893  13.511
31698SOL    HW196991  12.396   2.848  13.592
31698SOL    HW296992  12.489   2.837  13.473
31699SOL     OW96993   8.025   8.848   0.360
31699SOL    HW196994   7.939   8.808   0.347
31699SOL    HW296995   8.065   8.847   0.273
31700SOL     OW96996  10.963   4.357  12.022
31700SOL    HW196997  10.993   4.365  11.932
31700SOL    HW296998  10.916   4.273  12.024
31701SOL     OW96999   9.652  10.613   2.547
31701SOL    HW197000   9.693  10.629   2.632
31701SOL    HW297001   9.685  10.683   2.491
31702SOL     OW97002  11.922  11.227  11.197
31702SOL    HW197003  12.003  11.182  11.172
31702SOL    HW297004  11.952  11.311  11.234
31703SOL     OW97005  13.158   6.462   3.460
31703SOL    HW197006  13.103   6.385   3.443
31703SOL    HW297007  13.142   6.519   3.385
31704SOL     OW97008   5.654   6.753   0.857
31704SOL    HW197009   5.722   6.763   0.790
31704SOL    HW297010   5.575   6.788   0.816
31705SOL     OW97011  11.087   8.535   8.837
31705SOL    HW197012  11.173   8.524   8.878
31705SOL    HW297013  11.027   8.490   8.896
31706SOL     OW97014   7.446  13.942  11.615
31706SOL    HW197015   7.481  13.853  11.621
31706SOL    HW297016   7.523  13.997  11.603
31707SOL     OW97017   3.573  14.536  10.087
31707SOL    HW197018   3.565  14.461  10.146
31707SOL    HW297019   3.653  14.580  10.116
31708SOL     OW97020   9.935   6.196   2.264
31708SOL    HW197021   9.867   6.263   2.278
31708SOL    HW297022   9.898   6.139   2.196
31709SOL     OW97023   8.927   9.697   2.979
31709SOL    HW197024   8.895   9.705   3.069
31709SOL    HW297025   8.946   9.603   2.969
31710SOL     OW97026   4.994  10.053  10.886
31710SOL    HW197027   4.917   9.999  10.873
31710SOL    HW297028   5.055  10.025  10.817
31711SOL     OW97029   4.039   7.464  10.170
31711SOL    HW197030   4.072   7.498  10.087
31711SOL    HW297031   4.094   7.388  10.189
31712SOL     OW97032   7.520   1.076  10.612
31712SOL    HW197033   7.511   1.171  10.608
31712SOL    HW297034   7.447   1.042  10.560
31713SOL     OW97035   1.007   7.794   3.571
31713SOL    HW197036   0.968   7.881   3.582
31713SOL    HW297037   1.100   7.807   3.590
31714SOL     OW97038   8.879   8.594  12.557
31714SOL    HW197039   8.843   8.524  12.612
31714SOL    HW297040   8.812   8.609  12.490
31715SOL     OW97041   1.533   3.498  10.404
31715SOL    HW197042   1.525   3.591  10.383
31715SOL    HW297043   1.584   3.496  10.484
31716SOL     OW97044   9.195  13.762  13.992
31716SOL    HW197045   9.170  13.783  14.082
31716SOL    HW297046   9.230  13.845  13.958
31717SOL     OW97047   0.032   3.628  13.939
31717SOL    HW197048  14.831   3.642  13.989
31717SOL    HW297049   0.081   3.564  13.990
31718SOL     OW97050   0.025   7.537   5.047
31718SOL    HW197051   0.014   7.575   5.134
31718SOL    HW297052   0.111   7.567   5.018
31719SOL     OW97053   3.269   0.169   3.170
31719SOL    HW197054   3.323   0.217   3.108
31719SOL    HW297055   3.284   0.077   3.149
31720SOL     OW97056   9.143  10.335   2.524
31720SOL    HW197057   9.069  10.296   2.571
31720SOL    HW297058   9.124  10.428   2.523
31721SOL     OW97059  10.438   6.956  11.573
31721SOL    HW197060  10.402   6.884  11.625
31721SOL    HW297061  10.429   7.033  11.630
31722SOL     OW97062  12.786   2.121   6.811
31722SOL    HW197063  12.763   2.179   6.883
31722SOL    HW297064  12.823   2.179   6.744
31723SOL     OW97065   2.789  11.803  10.257
31723SOL    HW197066   2.840  11.881  10.280
31723SOL    HW297067   2.825  11.775  10.172
31724SOL     OW97068   7.730   5.606  14.059
31724SOL    HW197069   7.721   5.682  14.001
31724SOL    HW297070   7.824   5.585  14.057
31725SOL     OW97071   7.969   0.241   8.939
31725SOL    HW197072   7.944   0.202   9.023
31725SOL    HW297073   7.922   0.189   8.874
31726SOL     OW97074  10.136  13.942   1.073
31726SOL    HW197075  10.054  13.935   1.122
31726SOL    HW297076  10.114  13.910   0.986
31727SOL     OW97077   7.462  13.188   4.635
31727SOL    HW197078   7.498  13.168   4.548
31727SOL    HW297079   7.521  13.255   4.670
31728SOL     OW97080   0.444  13.176   9.844
31728SOL    HW197081   0.397  13.200   9.763
31728SOL    HW297082   0.397  13.100   9.877
31729SOL     OW97083   4.260  13.111   3.668
31729SOL    HW197084   4.304  13.084   3.748
31729SOL    HW297085   4.263  13.033   3.612
31730SOL     OW97086  14.177  14.151   7.672
31730SOL    HW197087  14.136  14.237   7.677
31730SOL    HW297088  14.111  14.094   7.633
31731SOL     OW97089   7.093   0.751  10.086
31731SOL    HW197090   7.089   0.786   9.997
31731SOL    HW297091   7.178   0.707  10.091
31732SOL     OW97092   9.108   7.694   0.056
31732SOL    HW197093   9.077   7.605   0.074
31732SOL    HW297094   9.128   7.693  14.842
31733SOL     OW97095  14.084   3.770   9.241
31733SOL    HW197096  14.043   3.734   9.162
31733SOL    HW297097  14.011   3.798   9.296
31734SOL     OW97098  14.343  12.283  13.011
31734SOL    HW197099  14.430  12.307  13.045
31734SOL    HW297100  14.318  12.356  12.956
31735SOL     OW97101   1.416   8.610   0.697
31735SOL    HW197102   1.373   8.527   0.718
31735SOL    HW297103   1.508   8.595   0.715
31736SOL     OW97104  10.471   5.014   5.686
31736SOL    HW197105  10.421   5.021   5.767
31736SOL    HW297106  10.550   4.965   5.710
31737SOL     OW97107   4.718   5.944   9.195
31737SOL    HW197108   4.675   6.027   9.177
31737SOL    HW297109   4.806   5.969   9.225
31738SOL     OW97110   4.143   6.566  13.107
31738SOL    HW197111   4.057   6.531  13.086
31738SOL    HW297112   4.126   6.657  13.131
31739SOL     OW97113   8.195   2.119   1.535
31739SOL    HW197114   8.245   2.081   1.463
31739SOL    HW297115   8.109   2.137   1.496
31740SOL     OW97116  11.347   9.176   7.143
31740SOL    HW197117  11.277   9.148   7.085
31740SOL    HW297118  11.397   9.096   7.160
31741SOL     OW97119   7.827   3.199   0.496
31741SOL    HW197120   7.916   3.166   0.492
31741SOL    HW297121   7.781   3.138   0.553
31742SOL     OW97122   2.477   0.008   3.278
31742SOL    HW197123   2.491  14.799   3.246
31742SOL    HW297124   2.553   0.057   3.248
31743SOL     OW97125  14.787  13.042   0.553
31743SOL    HW197126  14.818  13.067   0.640
31743SOL    HW297127  14.865  13.004   0.511
31744SOL     OW97128   3.132   9.676   5.225
31744SOL    HW197129   3.127   9.748   5.288
31744SOL    HW297130   3.053   9.624   5.243
31745SOL     OW97131  13.389   1.170  12.279
31745SOL    HW197132  13.353   1.087  12.248
31745SOL    HW297133  13.448   1.198  12.209
31746SOL     OW97134  14.199   2.607   4.331
31746SOL    HW197135  14.176   2.577   4.419
31746SOL    HW297136  14.117   2.642   4.296
31747SOL     OW97137   6.523   8.510  13.973
31747SOL    HW197138   6.451   8.458  13.936
31747SOL    HW297139   6.559   8.558  13.899
31748SOL     OW97140   2.968   1.631   5.375
31748SOL    HW197141   3.038   1.691   5.397
31748SOL    HW297142   3.003   1.544   5.396
31749SOL     OW97143   9.469  14.436   5.589
31749SOL    HW197144   9.553  14.396   5.564
31749SOL    HW297145   9.406  14.401   5.526
31750SOL     OW97146  12.906  12.783   0.021
31750SOL    HW197147  12.998  12.806   0.036
31750SOL    HW297148  12.891  12.708   0.079
31751SOL     OW97149   1.394   0.614   4.481
31751SOL    HW197150   1.477   0.659   4.465
31751SOL    HW297151   1.362   0.591   4.394
31752SOL     OW97152  11.461   8.672   3.922
31752SOL    HW197153  11.485   8.582   3.947
31752SOL    HW297154  11.369   8.680   3.947
31753SOL     OW97155   9.225  10.710  10.885
31753SOL    HW197156   9.270  10.631  10.857
31753SOL    HW297157   9.237  10.772  10.813
31754SOL     OW97158   1.857  12.477   7.677
31754SOL    HW197159   1.833  12.384   7.676
31754SOL    HW297160   1.782  12.520   7.719
31755SOL     OW97161   0.339   5.012  12.889
31755SOL    HW197162   0.285   4.972  12.821
31755SOL    HW297163   0.418   5.042  12.843
31756SOL     OW97164   9.325  10.206   5.103
31756SOL    HW197165   9.357  10.268   5.170
31756SOL    HW297166   9.283  10.137   5.153
31757SOL     OW97167  12.339   8.944   6.108
31757SOL    HW197168  12.397   8.980   6.175
31757SOL    HW297169  12.250   8.965   6.138
31758SOL     OW97170   2.511  14.700   2.685
31758SOL    HW197171   2.506  14.619   2.735
31758SOL    HW297172   2.596  14.737   2.707
31759SOL     OW97173  12.636  12.097   6.823
31759SOL    HW197174  12.688  12.145   6.758
31759SOL    HW297175  12.668  12.007   6.817
31760SOL     OW97176   7.853   9.277   0.985
31760SOL    HW197177   7.925   9.228   1.026
31760SOL    HW297178   7.896   9.333   0.921
31761SOL     OW97179  13.071   5.530  12.909
31761SOL    HW197180  13.001   5.479  12.950
31761SOL    HW297181  13.025   5.594  12.855
31762SOL     OW97182   4.348   0.133  14.691
31762SOL    HW197183   4.312   0.097  14.610
31762SOL    HW297184   4.390   0.215  14.664
31763SOL     OW97185  13.168   0.359   0.987
31763SOL    HW197186  13.191   0.267   1.003
31763SOL    HW297187  13.161   0.397   1.074
31764SOL     OW97188  11.345   5.014   6.492
31764SOL    HW197189  11.425   5.065   6.487
31764SOL    HW297190  11.275   5.079   6.503
31765SOL     OW97191   8.626  12.507   9.605
31765SOL    HW197192   8.682  12.434   9.632
31765SOL    HW297193   8.624  12.565   9.680
31766SOL     OW97194   7.591   7.917   1.738
31766SOL    HW197195   7.506   7.877   1.757
31766SOL    HW297196   7.643   7.902   1.817
31767SOL     OW97197   3.220   2.916  14.248
31767SOL    HW197198   3.271   2.980  14.197
31767SOL    HW297199   3.135   2.960  14.262
31768SOL     OW97200   5.001   1.191   2.239
31768SOL    HW197201   4.979   1.178   2.332
31768SOL    HW297202   4.931   1.147   2.192
31769SOL     OW97203   3.558  12.820   9.103
31769SOL    HW197204   3.551  12.819   9.199
31769SOL    HW297205   3.468  12.825   9.072
31770SOL     OW97206   8.174   0.476   2.281
31770SOL    HW197207   8.135   0.398   2.242
31770SOL    HW297208   8.128   0.487   2.365
31771SOL     OW97209   6.777  13.091  10.559
31771SOL    HW197210   6.686  13.112  10.577
31771SOL    HW297211   6.800  13.024  10.623
31772SOL     OW97212   7.924   3.931  12.447
31772SOL    HW197213   7.833   3.962  12.450
31772SOL    HW297214   7.969   3.981  12.514
31773SOL     OW97215  10.844   9.287  13.221
31773SOL    HW197216  10.786   9.243  13.282
31773SOL    HW297217  10.797   9.367  13.197
31774SOL     OW97218   9.363  13.065   4.932
31774SOL    HW197219   9.437  13.061   4.872
31774SOL    HW297220   9.348  12.974   4.958
31775SOL     OW97221  14.613  14.169  12.093
31775SOL    HW197222  14.689  14.113  12.080
31775SOL    HW297223  14.636  14.252  12.052
31776SOL     OW97224  10.697   3.680  10.696
31776SOL    HW197225  10.749   3.672  10.616
31776SOL    HW297226  10.738   3.619  10.758
31777SOL     OW97227   6.482   1.943   5.617
31777SOL    HW197228   6.413   1.973   5.557
31777SOL    HW297229   6.471   1.848   5.620
31778SOL     OW97230  11.091  13.185  10.811
31778SOL    HW197231  11.022  13.249  10.828
31778SOL    HW297232  11.071  13.112  10.870
31779SOL     OW97233   3.291   1.947   5.230
31779SOL    HW197234   3.280   2.017   5.164
31779SOL    HW297235   3.359   1.980   5.288
31780SOL     OW97236   1.138   7.657   4.381
31780SOL    HW197237   1.204   7.710   4.425
31780SOL    HW297238   1.058   7.708   4.385
31781SOL     OW97239   2.834  11.566   0.068
31781SOL    HW197240   2.877  11.609   0.142
31781SOL    HW297241   2.822  11.636   0.003
31782SOL     OW97242  14.178   4.573   7.361
31782SOL    HW197243  14.091   4.599   7.392
31782SOL    HW297244  14.208   4.647   7.309
31783SOL     OW97245   3.302  14.077  10.966
31783SOL    HW197246   3.298  14.042  11.054
31783SOL    HW297247   3.335  14.166  10.977
31784SOL     OW97248  12.188   4.710  11.814
31784SOL    HW197249  12.201   4.779  11.748
31784SOL    HW297250  12.275   4.696  11.851
31785SOL     OW97251   0.449   3.960   5.512
31785SOL    HW197252   0.484   3.871   5.503
31785SOL    HW297253   0.411   3.980   5.427
31786SOL     OW97254   4.885   5.676   6.041
31786SOL    HW197255   4.950   5.658   6.108
31786SOL    HW297256   4.882   5.772   6.036
31787SOL     OW97257  10.789   5.920  11.120
31787SOL    HW197258  10.797   5.890  11.030
31787SOL    HW297259  10.695   5.935  11.132
31788SOL     OW97260   6.411   3.310   6.343
31788SOL    HW197261   6.338   3.301   6.404
31788SOL    HW297262   6.385   3.382   6.285
31789SOL     OW97263  10.461  10.670   5.146
31789SOL    HW197264  10.393  10.660   5.080
31789SOL    HW297265  10.467  10.584   5.188
31790SOL     OW97266   2.722   4.130   2.670
31790SOL    HW197267   2.643   4.159   2.716
31790SOL    HW297268   2.782   4.204   2.675
31791SOL     OW97269   5.390  13.807  10.980
31791SOL    HW197270   5.420  13.828  11.068
31791SOL    HW297271   5.427  13.876  10.925
31792SOL     OW97272   3.941   1.048   9.244
31792SOL    HW197273   3.987   1.122   9.204
31792SOL    HW297274   4.001   0.974   9.232
31793SOL     OW97275   7.948   5.615   1.046
31793SOL    HW197276   7.895   5.616   1.126
31793SOL    HW297277   7.969   5.707   1.032
31794SOL     OW97278   1.439   2.034   0.833
31794SOL    HW197279   1.494   2.073   0.902
31794SOL    HW297280   1.366   1.995   0.880
31795SOL     OW97281   0.849   3.245   4.354
31795SOL    HW197282   0.895   3.326   4.332
31795SOL    HW297283   0.825   3.255   4.446
31796SOL     OW97284  12.829   7.913   5.479
31796SOL    HW197285  12.763   7.890   5.413
31796SOL    HW297286  12.825   8.009   5.484
31797SOL     OW97287   4.866  12.479   3.560
31797SOL    HW197288   4.900  12.561   3.595
31797SOL    HW297289   4.869  12.490   3.465
31798SOL     OW97290  13.580   9.379  11.560
31798SOL    HW197291  13.508   9.371  11.622
31798SOL    HW297292  13.561   9.314  11.493
31799SOL     OW97293  10.016   1.979   1.792
31799SOL    HW197294  10.039   1.974   1.700
31799SOL    HW297295   9.944   1.916   1.803
31800SOL     OW97296   9.644   3.706   3.840
31800SOL    HW197297   9.648   3.614   3.863
31800SOL    HW297298   9.673   3.752   3.919
31801SOL     OW97299  13.946   2.706   5.104
31801SOL    HW197300  13.984   2.708   5.192
31801SOL    HW297301  14.019   2.725   5.046
31802SOL     OW97302  13.492   1.294   7.645
31802SOL    HW197303  13.420   1.331   7.593
31802SOL    HW297304  13.450   1.256   7.722
31803SOL     OW97305   7.595  10.409   7.456
31803SOL    HW197306   7.556  10.452   7.532
31803SOL    HW297307   7.522  10.363   7.414
31804SOL     OW97308   0.963   6.728  12.661
31804SOL    HW197309   0.922   6.719  12.747
31804SOL    HW297310   0.919   6.662  12.607
31805SOL     OW97311  13.200   7.615   2.912
31805SOL    HW197312  13.222   7.565   2.990
31805SOL    HW297313  13.266   7.589   2.848
31806SOL     OW97314   5.273   0.995   6.191
31806SOL    HW197315   5.289   1.077   6.144
31806SOL    HW297316   5.241   1.022   6.277
31807SOL     OW97317   6.864  13.444   1.104
31807SOL    HW197318   6.930  13.380   1.131
31807SOL    HW297319   6.896  13.477   1.020
31808SOL     OW97320  10.412  11.543  11.962
31808SOL    HW197321  10.450  11.476  12.019
31808SOL    HW297322  10.487  11.598  11.938
31809SOL     OW97323  10.826   7.549   7.091
31809SOL    HW197324  10.856   7.566   7.181
31809SOL    HW297325  10.904   7.517   7.046
31810SOL     OW97326   4.541  12.028   5.317
31810SOL    HW197327   4.553  11.934   5.304
31810SOL    HW297328   4.609  12.051   5.381
31811SOL     OW97329   4.652   2.117   0.091
31811SOL    HW197330   4.693   2.045   0.140
31811SOL    HW297331   4.704   2.194   0.115
31812SOL     OW97332   1.099  13.349   0.046
31812SOL    HW197333   1.097  13.335  14.832
31812SOL    HW297334   1.008  13.342   0.074
31813SOL     OW97335   8.948   6.308   4.508
31813SOL    HW197336   8.987   6.222   4.524
31813SOL    HW297337   9.016   6.356   4.462
31814SOL     OW97338   5.929  10.957  10.392
31814SOL    HW197339   5.980  10.897  10.446
31814SOL    HW297340   5.969  11.042  10.406
31815SOL     OW97341   4.678  14.250  13.089
31815SOL    HW197342   4.713  14.161  13.089
31815SOL    HW297343   4.629  14.256  13.172
31816SOL     OW97344   1.137   6.757   9.719
31816SOL    HW197345   1.071   6.814   9.679
31816SOL    HW297346   1.117   6.670   9.684
31817SOL     OW97347   2.642   7.779   3.301
31817SOL    HW197348   2.618   7.829   3.379
31817SOL    HW297349   2.726   7.816   3.273
31818SOL     OW97350  13.707   2.225   3.932
31818SOL    HW197351  13.699   2.136   3.899
31818SOL    HW297352  13.736   2.214   4.023
31819SOL     OW97353   1.060  14.256   5.868
31819SOL    HW197354   1.004  14.189   5.906
31819SOL    HW297355   1.003  14.333   5.860
31820SOL     OW97356   8.104  12.511  13.858
31820SOL    HW197357   8.015  12.515  13.893
31820SOL    HW297358   8.153  12.575  13.909
31821SOL     OW97359   2.087  12.757   5.491
31821SOL    HW197360   2.071  12.833   5.548
31821SOL    HW297361   2.171  12.776   5.450
31822SOL     OW97362   8.628   0.422   7.393
31822SOL    HW197363   8.719   0.448   7.407
31822SOL    HW297364   8.586   0.433   7.479
31823SOL     OW97365   7.469   2.082   5.790
31823SOL    HW197366   7.466   2.142   5.865
31823SOL    HW297367   7.524   2.009   5.820
31824SOL     OW97368   5.706   3.521  11.481
31824SOL    HW197369   5.740   3.539  11.393
31824SOL    HW297370   5.714   3.605  11.527
31825SOL     OW97371   9.476  12.668   8.313
31825SOL    HW197372   9.406  12.707   8.261
31825SOL    HW297373   9.544  12.735   8.317
31826SOL     OW97374   9.225   6.045   0.974
31826SOL    HW197375   9.288   5.983   1.010
31826SOL    HW297376   9.245   6.128   1.017
31827SOL     OW97377   9.333   6.002  14.356
31827SOL    HW197378   9.258   6.025  14.301
31827SOL    HW297379   9.307   5.920  14.398
31828SOL     OW97380   4.250  14.614   3.802
31828SOL    HW197381   4.202  14.683   3.757
31828SOL    HW297382   4.337  14.615   3.763
31829SOL     OW97383   4.220   0.555   2.958
31829SOL    HW197384   4.241   0.494   2.887
31829SOL    HW297385   4.149   0.609   2.923
31830SOL     OW97386  13.685   5.289   1.151
31830SOL    HW197387  13.665   5.203   1.186
31830SOL    HW297388  13.780   5.289   1.139
31831SOL     OW97389   1.697  12.687   8.291
31831SOL    HW197390   1.700  12.782   8.281
31831SOL    HW297391   1.710  12.653   8.202
31832SOL     OW97392  14.477   6.027  12.624
31832SOL    HW197393  14.478   5.951  12.566
31832SOL    HW297394  14.422   6.001  12.697
31833SOL     OW97395   2.712  11.941   0.231
31833SOL    HW197396   2.707  11.904   0.319
31833SOL    HW297397   2.784  12.004   0.236
31834SOL     OW97398   7.359  11.392  11.196
31834SOL    HW197399   7.391  11.310  11.160
31834SOL    HW297400   7.313  11.368  11.276
31835SOL     OW97401   0.237  11.868   1.408
31835SOL    HW197402   0.159  11.824   1.373
31835SOL    HW297403   0.281  11.905   1.332
31836SOL     OW97404   7.106   4.533  10.617
31836SOL    HW197405   7.078   4.565  10.531
31836SOL    HW297406   7.168   4.598  10.648
31837SOL     OW97407  12.191   1.935   4.495
31837SOL    HW197408  12.171   2.020   4.535
31837SOL    HW297409  12.182   1.952   4.401
31838SOL     OW97410  11.021   2.866  13.955
31838SOL    HW197411  11.003   2.959  13.941
31838SOL    HW297412  11.109   2.864  13.993
31839SOL     OW97413  14.211   9.672  14.711
31839SOL    HW197414  14.268   9.664  14.788
31839SOL    HW297415  14.134   9.718  14.744
31840SOL     OW97416  10.660  13.804   0.316
31840SOL    HW197417  10.691  13.756   0.239
31840SOL    HW297418  10.683  13.748   0.390
31841SOL     OW97419   1.694   6.385   9.835
31841SOL    HW197420   1.747   6.308   9.855
31841SOL    HW297421   1.639   6.398   9.912
31842SOL     OW97422   9.748   1.323   2.672
31842SOL    HW197423   9.725   1.404   2.626
31842SOL    HW297424   9.671   1.302   2.724
31843SOL     OW97425   2.827   9.188   0.023
31843SOL    HW197426   2.867   9.166  14.819
31843SOL    HW297427   2.735   9.161   0.014
31844SOL     OW97428  13.908  14.768   0.448
31844SOL    HW197429  13.848  14.829   0.492
31844SOL    HW297430  13.857  14.731   0.376
31845SOL     OW97431   6.893   8.424  13.037
31845SOL    HW197432   6.957   8.357  13.013
31845SOL    HW297433   6.810   8.392  13.002
31846SOL     OW97434  10.024   3.519   2.485
31846SOL    HW197435  10.116   3.536   2.464
31846SOL    HW297436  10.005   3.575   2.560
31847SOL     OW97437  12.993   7.540   7.557
31847SOL    HW197438  13.061   7.601   7.526
31847SOL    HW297439  13.034   7.454   7.552
31848SOL     OW97440   4.452   1.880  10.870
31848SOL    HW197441   4.375   1.923  10.832
31848SOL    HW297442   4.509   1.953  10.895
31849SOL     OW97443  13.013   3.842   1.871
31849SOL    HW197444  12.971   3.828   1.786
31849SOL    HW297445  12.940   3.857   1.931
31850SOL     OW97446   2.517  14.395  13.450
31850SOL    HW197447   2.474  14.477  13.477
31850SOL    HW297448   2.562  14.365  13.529
31851SOL     OW97449   9.764  12.947   7.459
31851SOL    HW197450   9.710  12.998   7.519
31851SOL    HW297451   9.706  12.879   7.425
31852SOL     OW97452   8.251   2.376   7.490
31852SOL    HW197453   8.197   2.319   7.545
31852SOL    HW297454   8.269   2.324   7.411
31853SOL     OW97455  14.153   0.481   0.020
31853SOL    HW197456  14.215   0.469  14.828
31853SOL    HW297457  14.067   0.467  14.861
31854SOL     OW97458   1.643   9.358   5.174
31854SOL    HW197459   1.638   9.349   5.079
31854SOL    HW297460   1.562   9.404   5.198
31855SOL     OW97461  10.493   2.849   5.171
31855SOL    HW197462  10.409   2.806   5.158
31855SOL    HW297463  10.497   2.865   5.266
31856SOL     OW97464   8.722   9.740   9.557
31856SOL    HW197465   8.806   9.787   9.556
31856SOL    HW297466   8.713   9.705   9.468
31857SOL     OW97467  11.351   8.535  11.698
31857SOL    HW197468  11.353   8.507  11.790
31857SOL    HW297469  11.329   8.455  11.650
31858SOL     OW97470   5.437   6.223   9.734
31858SOL    HW197471   5.496   6.250   9.663
31858SOL    HW297472   5.359   6.278   9.722
31859SOL     OW97473   2.048   9.981   0.465
31859SOL    HW197474   1.955  10.002   0.476
31859SOL    HW297475   2.070   9.932   0.545
31860SOL     OW97476   1.808   7.440   2.248
31860SOL    HW197477   1.896   7.414   2.222
31860SOL    HW297478   1.795   7.526   2.207
31861SOL     OW97479   7.673   8.758   0.607
31861SOL    HW197480   7.602   8.699   0.633
31861SOL    HW297481   7.748   8.700   0.591
31862SOL     OW97482   4.931   9.292  12.179
31862SOL    HW197483   5.018   9.283  12.220
31862SOL    HW297484   4.901   9.379  12.207
31863SOL     OW97485  14.873   1.418   8.588
31863SOL    HW197486   0.013   1.396   8.497
31863SOL    HW297487  14.795   1.365   8.608
31864SOL     OW97488   4.439  14.622   3.048
31864SOL    HW197489   4.493  14.614   3.127
31864SOL    HW297490   4.503  14.622   2.976
31865SOL     OW97491   7.169   8.037   6.688
31865SOL    HW197492   7.127   8.122   6.692
31865SOL    HW297493   7.229   8.043   6.613
31866SOL     OW97494  12.691   8.118   2.472
31866SOL    HW197495  12.684   8.158   2.385
31866SOL    HW297496  12.783   8.129   2.496
31867SOL     OW97497   9.872  14.438   9.164
31867SOL    HW197498   9.951  14.385   9.149
31867SOL    HW297499   9.902  14.510   9.219
31868SOL     OW97500   8.863   4.602  13.178
31868SOL    HW197501   8.865   4.594  13.083
31868SOL    HW297502   8.861   4.697  13.194
31869SOL     OW97503   1.875   1.335  14.543
31869SOL    HW197504   1.808   1.301  14.483
31869SOL    HW297505   1.952   1.280  14.526
31870SOL     OW97506   4.373  12.462   2.295
31870SOL    HW197507   4.325  12.481   2.214
31870SOL    HW297508   4.347  12.373   2.319
31871SOL     OW97509  12.167   9.176   3.860
31871SOL    HW197510  12.120   9.237   3.917
31871SOL    HW297511  12.099   9.121   3.821
31872SOL     OW97512   2.420   5.577  14.015
31872SOL    HW197513   2.457   5.636  13.949
31872SOL    HW297514   2.468   5.600  14.095
31873SOL     OW97515  10.205   7.164   2.926
31873SOL    HW197516  10.149   7.242   2.928
31873SOL    HW297517  10.276   7.183   2.987
31874SOL     OW97518  12.349   3.365   4.424
31874SOL    HW197519  12.402   3.388   4.348
31874SOL    HW297520  12.279   3.309   4.389
31875SOL     OW97521  10.179   2.044   5.487
31875SOL    HW197522  10.271   2.039   5.463
31875SOL    HW297523  10.176   2.107   5.559
31876SOL     OW97524   7.710  10.470  14.640
31876SOL    HW197525   7.735  10.525  14.714
31876SOL    HW297526   7.708  10.529  14.565
31877SOL     OW97527   4.468   6.062   4.458
31877SOL    HW197528   4.557   6.092   4.441
31877SOL    HW297529   4.413   6.115   4.401
31878SOL     OW97530   7.753  11.410   9.088
31878SOL    HW197531   7.705  11.431   9.008
31878SOL    HW297532   7.796  11.492   9.112
31879SOL     OW97533   9.986   1.495   0.283
31879SOL    HW197534   9.999   1.588   0.264
31879SOL    HW297535  10.001   1.451   0.199
31880SOL     OW97536   3.266  10.931   7.891
31880SOL    HW197537   3.335  10.885   7.843
31880SOL    HW297538   3.279  10.905   7.982
31881SOL     OW97539   6.148   1.633   2.772
31881SOL    HW197540   6.112   1.680   2.696
31881SOL    HW297541   6.076   1.632   2.835
31882SOL     OW97542  13.773  12.025   0.390
31882SOL    HW197543  13.816  12.110   0.387
31882SOL    HW297544  13.828  11.972   0.447
31883SOL     OW97545  11.985   3.079  10.486
31883SOL    HW197546  12.046   3.065  10.559
31883SOL    HW297547  12.008   3.166  10.452
31884SOL     OW97548   8.831   7.462   7.860
31884SOL    HW197549   8.759   7.475   7.799
31884SOL    HW297550   8.837   7.367   7.870
31885SOL     OW97551  10.055  13.344  11.886
31885SOL    HW197552  10.142  13.309  11.866
31885SOL    HW297553  10.066  13.387  11.970
31886SOL     OW97554   5.293   3.129   3.239
31886SOL    HW197555   5.235   3.055   3.253
31886SOL    HW297556   5.289   3.145   3.145
31887SOL     OW97557  11.639  13.723  10.524
31887SOL    HW197558  11.588  13.645  10.501
31887SOL    HW297559  11.678  13.701  10.609
31888SOL     OW97560  12.946   0.180   4.539
31888SOL    HW197561  13.003   0.255   4.558
31888SOL    HW297562  12.995   0.130   4.473
31889SOL     OW97563  12.868  10.667  10.206
31889SOL    HW197564  12.844  10.625  10.289
31889SOL    HW297565  12.786  10.669  10.156
31890SOL     OW97566   3.027   2.531   9.800
31890SOL    HW197567   3.105   2.580   9.774
31890SOL    HW297568   2.956   2.596   9.795
31891SOL     OW97569   2.113   0.636   1.916
31891SOL    HW197570   2.134   0.672   1.830
31891SOL    HW297571   2.059   0.704   1.957
31892SOL     OW97572  14.621   8.250  10.643
31892SOL    HW197573  14.642   8.343  10.651
31892SOL    HW297574  14.605   8.237  10.549
31893SOL     OW97575   3.437   9.687   2.723
31893SOL    HW197576   3.446   9.675   2.817
31893SOL    HW297577   3.389   9.610   2.693
31894SOL     OW97578  14.658   2.226   5.327
31894SOL    HW197579  14.705   2.256   5.405
31894SOL    HW297580  14.633   2.307   5.282
31895SOL     OW97581  12.113   7.329   5.761
31895SOL    HW197582  12.193   7.350   5.713
31895SOL    HW297583  12.042   7.354   5.701
31896SOL     OW97584  11.568   1.099  14.057
31896SOL    HW197585  11.595   1.112  14.148
31896SOL    HW297586  11.501   1.165  14.042
31897SOL     OW97587   1.522   7.177   3.096
31897SOL    HW197588   1.477   7.124   3.162
31897SOL    HW297589   1.460   7.248   3.077
31898SOL     OW97590   0.375   3.555   2.629
31898SOL    HW197591   0.285   3.555   2.662
31898SOL    HW297592   0.364   3.550   2.533
31899SOL     OW97593   3.650  13.892   2.407
31899SOL    HW197594   3.576  13.833   2.425
31899SOL    HW297595   3.726  13.835   2.405
31900SOL     OW97596  13.078  12.008   5.195
31900SOL    HW197597  13.082  12.063   5.117
31900SOL    HW297598  13.093  11.919   5.163
31901SOL     OW97599  12.298   6.644  11.681
31901SOL    HW197600  12.279   6.582  11.751
31901SOL    HW297601  12.226   6.634  11.619
31902SOL     OW97602   1.833   9.140   1.933
31902SOL    HW197603   1.799   9.099   1.854
31902SOL    HW297604   1.768   9.208   1.955
31903SOL     OW97605  13.275  10.591   5.257
31903SOL    HW197606  13.342  10.526   5.234
31903SOL    HW297607  13.310  10.674   5.226
31904SOL     OW97608   0.179   1.767   3.167
31904SOL    HW197609   0.106   1.811   3.123
31904SOL    HW297610   0.245   1.755   3.099
31905SOL     OW97611   7.647   4.118   1.610
31905SOL    HW197612   7.573   4.088   1.663
31905SOL    HW297613   7.702   4.040   1.601
31906SOL     OW97614   9.685   3.707  10.332
31906SOL    HW197615   9.621   3.756  10.382
31906SOL    HW297616   9.640   3.627  10.306
31907SOL     OW97617   4.033   0.934  10.746
31907SOL    HW197618   4.121   0.967  10.727
31907SOL    HW297619   4.015   0.966  10.835
31908SOL     OW97620   3.299   6.965   7.206
31908SOL    HW197621   3.249   6.925   7.135
31908SOL    HW297622   3.386   6.979   7.170
31909SOL     OW97623   8.545   5.475   5.070
31909SOL    HW197624   8.552   5.549   5.010
31909SOL    HW297625   8.492   5.507   5.143
31910SOL     OW97626  13.768   8.319   7.312
31910SOL    HW197627  13.792   8.270   7.233
31910SOL    HW297628  13.733   8.252   7.372
31911SOL     OW97629   5.437  10.044   6.938
31911SOL    HW197630   5.482   9.965   6.910
31911SOL    HW297631   5.402  10.023   7.025
31912SOL     OW97632  13.654   1.124   0.951
31912SOL    HW197633  13.596   1.199   0.938
31912SOL    HW297634  13.601   1.060   0.998
31913SOL     OW97635  11.964  14.861   1.103
31913SOL    HW197636  12.005  14.855   1.188
31913SOL    HW297637  11.972   0.073   1.079
31914SOL     OW97638   1.503  10.708   8.032
31914SOL    HW197639   1.541  10.731   7.947
31914SOL    HW297640   1.577  10.708   8.092
31915SOL     OW97641  11.043   3.420   6.586
31915SOL    HW197642  11.095   3.403   6.666
31915SOL    HW297643  11.108   3.447   6.521
31916SOL     OW97644   2.363   5.333  14.180
31916SOL    HW197645   2.363   5.406  14.118
31916SOL    HW297646   2.297   5.357  14.245
31917SOL     OW97647   7.888   4.829   6.955
31917SOL    HW197648   7.910   4.743   6.991
31917SOL    HW297649   7.792   4.833   6.962
31918SOL     OW97650   8.309   9.043   8.643
31918SOL    HW197651   8.400   9.048   8.612
31918SOL    HW297652   8.315   9.044   8.738
31919SOL     OW97653  11.627  13.683  13.122
31919SOL    HW197654  11.692  13.743  13.159
31919SOL    HW297655  11.544  13.731  13.128
31920SOL     OW97656   0.323   7.270   4.954
31920SOL    HW197657   0.283   7.334   4.896
31920SOL    HW297658   0.255   7.204   4.968
31921SOL     OW97659  13.367   5.482  13.519
31921SOL    HW197660  13.282   5.516  13.490
31921SOL    HW297661  13.377   5.515  13.608
31922SOL     OW97662   6.704   5.454   6.833
31922SOL    HW197663   6.673   5.432   6.921
31922SOL    HW297664   6.652   5.398   6.775
31923SOL     OW97665  10.789   4.050   5.578
31923SOL    HW197666  10.800   3.971   5.633
31923SOL    HW297667  10.866   4.050   5.521
31924SOL     OW97668   7.759   0.900   8.941
31924SOL    HW197669   7.846   0.889   8.904
31924SOL    HW297670   7.722   0.975   8.894
31925SOL     OW97671   7.523   9.711   6.946
31925SOL    HW197672   7.494   9.787   6.894
31925SOL    HW297673   7.443   9.683   6.992
31926SOL     OW97674   1.992   8.774  14.314
31926SOL    HW197675   2.045   8.734  14.244
31926SOL    HW297676   2.043   8.850  14.342
31927SOL     OW97677  10.147  11.177   1.646
31927SOL    HW197678  10.163  11.099   1.594
31927SOL    HW297679  10.155  11.148   1.737
31928SOL     OW97680   9.277   4.823   4.426
31928SOL    HW197681   9.246   4.903   4.383
31928SOL    HW297682   9.372   4.830   4.423
31929SOL     OW97683  13.908   9.321  13.327
31929SOL    HW197684  13.937   9.341  13.238
31929SOL    HW297685  13.813   9.309  13.319
31930SOL     OW97686   6.844   8.730  12.132
31930SOL    HW197687   6.839   8.818  12.170
31930SOL    HW297688   6.858   8.672  12.206
31931SOL     OW97689  13.638  11.037  11.364
31931SOL    HW197690  13.668  10.959  11.317
31931SOL    HW297691  13.709  11.057  11.424
31932SOL     OW97692   7.637  11.501   4.731
31932SOL    HW197693   7.606  11.583   4.693
31932SOL    HW297694   7.598  11.433   4.677
31933SOL     OW97695   1.533   9.100   6.667
31933SOL    HW197696   1.515   9.101   6.573
31933SOL    HW297697   1.569   9.187   6.685
31934SOL     OW97698  10.919   7.277   2.441
31934SOL    HW197699  10.862   7.209   2.405
31934SOL    HW297700  10.931   7.339   2.369
31935SOL     OW97701  10.874   9.363  11.068
31935SOL    HW197702  10.920   9.376  11.150
31935SOL    HW297703  10.932   9.306  11.017
31936SOL     OW97704   2.260  11.802   1.600
31936SOL    HW197705   2.224  11.714   1.585
31936SOL    HW297706   2.190  11.849   1.645
31937SOL     OW97707   9.602  13.601  12.810
31937SOL    HW197708   9.695  13.621  12.805
31937SOL    HW297709   9.593  13.546  12.888
31938SOL     OW97710  12.776   5.621   5.904
31938SOL    HW197711  12.824   5.546   5.868
31938SOL    HW297712  12.760   5.678   5.829
31939SOL     OW97713   1.926   5.687  13.687
31939SOL    HW197714   1.968   5.624  13.627
31939SOL    HW297715   1.945   5.772  13.649
31940SOL     OW97716  12.022  12.102  11.736
31940SOL    HW197717  11.929  12.099  11.714
31940SOL    HW297718  12.035  12.189  11.774
31941SOL     OW97719   5.256  13.468   3.787
31941SOL    HW197720   5.189  13.411   3.823
31941SOL    HW297721   5.214  13.510   3.712
31942SOL     OW97722   3.970  13.265   0.174
31942SOL    HW197723   3.987  13.358   0.158
31942SOL    HW297724   3.917  13.263   0.253
31943SOL     OW97725  14.087   1.554   0.019
31943SOL    HW197726  13.993   1.546   0.007
31943SOL    HW297727  14.120   1.465   0.006
31944SOL     OW97728  12.962  14.540  14.629
31944SOL    HW197729  13.039  14.490  14.656
31944SOL    HW297730  12.949  14.514  14.538
31945SOL     OW97731   8.864   6.452  12.346
31945SOL    HW197732   8.818   6.390  12.403
31945SOL    HW297733   8.795   6.496  12.297
31946SOL     OW97734  12.425  11.999  11.554
31946SOL    HW197735  12.444  12.092  11.557
31946SOL    HW297736  12.502  11.957  11.592
31947SOL     OW97737   6.315   3.622  10.873
31947SOL    HW197738   6.341   3.654  10.786
31947SOL    HW297739   6.220   3.634  10.875
31948SOL     OW97740  13.496   8.722   3.666
31948SOL    HW197741  13.438   8.766   3.603
31948SOL    HW297742  13.446   8.721   3.748
31949SOL     OW97743  10.618   4.258  11.030
31949SOL    HW197744  10.632   4.353  11.027
31949SOL    HW297745  10.706   4.221  11.019
31950SOL     OW97746   0.868   9.952   3.737
31950SOL    HW197747   0.812   9.874   3.741
31950SOL    HW297748   0.946   9.928   3.786
31951SOL     OW97749   9.727  11.522   6.577
31951SOL    HW197750   9.800  11.560   6.529
31951SOL    HW297751   9.765  11.489   6.658
31952SOL     OW97752   8.278   5.343  14.636
31952SOL    HW197753   8.249   5.252  14.625
31952SOL    HW297754   8.347   5.354  14.571
31953SOL     OW97755  12.028  14.180   9.096
31953SOL    HW197756  11.962  14.249   9.090
31953SOL    HW297757  12.102  14.214   9.046
31954SOL     OW97758   9.444   8.207   2.972
31954SOL    HW197759   9.426   8.232   3.063
31954SOL    HW297760   9.497   8.128   2.980
31955SOL     OW97761   2.767  10.128   9.157
31955SOL    HW197762   2.839  10.176   9.117
31955SOL    HW297763   2.723  10.085   9.084
31956SOL     OW97764   9.121   7.023  10.024
31956SOL    HW197765   9.169   7.090  10.074
31956SOL    HW297766   9.147   6.940  10.065
31957SOL     OW97767  13.029  13.312   6.301
31957SOL    HW197768  13.096  13.273   6.356
31957SOL    HW297769  13.065  13.308   6.213
31958SOL     OW97770  14.289   7.219   5.178
31958SOL    HW197771  14.197   7.243   5.172
31958SOL    HW297772  14.337   7.301   5.165
31959SOL     OW97773   2.838   2.081   8.360
31959SOL    HW197774   2.808   2.085   8.269
31959SOL    HW297775   2.759   2.096   8.412
31960SOL     OW97776   3.223  13.397   8.777
31960SOL    HW197777   3.153  13.333   8.787
31960SOL    HW297778   3.283  13.380   8.849
31961SOL     OW97779   8.857  12.533   8.022
31961SOL    HW197780   8.908  12.573   7.952
31961SOL    HW297781   8.922  12.503   8.085
31962SOL     OW97782   5.380  14.049  13.081
31962SOL    HW197783   5.360  14.095  13.162
31962SOL    HW297784   5.474  14.030  13.087
31963SOL     OW97785  10.451   9.839   1.724
31963SOL    HW197786  10.403   9.839   1.641
31963SOL    HW297787  10.539   9.868   1.700
31964SOL     OW97788   7.003   9.280   0.875
31964SOL    HW197789   6.916   9.318   0.859
31964SOL    HW297790   6.995   9.190   0.844
31965SOL     OW97791  12.720  12.540   9.545
31965SOL    HW197792  12.784  12.530   9.616
31965SOL    HW297793  12.682  12.454   9.534
31966SOL     OW97794  13.897  12.890  14.643
31966SOL    HW197795  13.908  12.816  14.583
31966SOL    HW297796  13.864  12.849  14.724
31967SOL     OW97797   5.240   6.413   9.790
31967SOL    HW197798   5.199   6.412   9.703
31967SOL    HW297799   5.192   6.481   9.838
31968SOL     OW97800   4.269  12.927   4.213
31968SOL    HW197801   4.360  12.946   4.234
31968SOL    HW297802   4.239  13.003   4.163
31969SOL     OW97803  14.570   6.832  12.996
31969SOL    HW197804  14.627   6.759  12.976
31969SOL    HW297805  14.582   6.894  12.924
31970SOL     OW97806  12.101  10.015  11.115
31970SOL    HW197807  12.038  10.087  11.120
31970SOL    HW297808  12.130  10.015  11.024
31971SOL     OW97809   3.932   7.917   8.441
31971SOL    HW197810   3.916   7.902   8.534
31971SOL    HW297811   3.863   7.868   8.397
31972SOL     OW97812  11.126   4.950   9.675
31972SOL    HW197813  11.209   4.991   9.701
31972SOL    HW297814  11.152   4.871   9.628
31973SOL     OW97815   0.700  11.791   0.744
31973SOL    HW197816   0.683  11.815   0.835
31973SOL    HW297817   0.699  11.874   0.697
31974SOL     OW97818   2.367   6.311   0.813
31974SOL    HW197819   2.395   6.402   0.826
31974SOL    HW297820   2.402   6.288   0.727
31975SOL     OW97821   0.293  13.142   5.071
31975SOL    HW197822   0.282  13.069   5.131
31975SOL    HW297823   0.373  13.122   5.023
31976SOL     OW97824   2.839   0.504  12.794
31976SOL    HW197825   2.834   0.500  12.889
31976SOL    HW297826   2.865   0.595  12.776
31977SOL     OW97827  12.265   5.907  14.479
31977SOL    HW197828  12.349   5.865  14.457
31977SOL    HW297829  12.268   5.991  14.433
31978SOL     OW97830  14.340   6.866   3.696
31978SOL    HW197831  14.364   6.774   3.705
31978SOL    HW297832  14.409   6.904   3.642
31979SOL     OW97833   1.500   7.033  12.126
31979SOL    HW197834   1.526   6.978  12.052
31979SOL    HW297835   1.562   7.011  12.196
31980SOL     OW97836   0.109   5.494   6.788
31980SOL    HW197837   0.049   5.491   6.714
31980SOL    HW297838   0.052   5.515   6.863
31981SOL     OW97839   6.159   8.804   5.868
31981SOL    HW197840   6.241   8.853   5.871
31981SOL    HW297841   6.109   8.844   5.797
31982SOL     OW97842   9.493   3.805   8.661
31982SOL    HW197843   9.569   3.859   8.684
31982SOL    HW297844   9.519   3.759   8.582
31983SOL     OW97845  11.569  11.071   5.755
31983SOL    HW197846  11.627  11.119   5.695
31983SOL    HW297847  11.527  11.139   5.807
31984SOL     OW97848  12.575  14.661   5.192
31984SOL    HW197849  12.508  14.719   5.156
31984SOL    HW297850  12.576  14.585   5.133
31985SOL     OW97851   6.910   3.491   4.786
31985SOL    HW197852   6.903   3.568   4.842
31985SOL    HW297853   6.913   3.417   4.846
31986SOL     OW97854  11.078   2.994  13.635
31986SOL    HW197855  11.154   2.938  13.645
31986SOL    HW297856  11.037   2.966  13.554
31987SOL     OW97857  12.411  10.359   5.265
31987SOL    HW197858  12.461  10.425   5.217
31987SOL    HW297859  12.471  10.327   5.332
31988SOL     OW97860   3.211  12.321  14.718
31988SOL    HW197861   3.305  12.306  14.729
31988SOL    HW297862   3.171  12.279  14.794
31989SOL     OW97863   9.422   1.024  14.188
31989SOL    HW197864   9.403   0.946  14.135
31989SOL    HW297865   9.337   1.049  14.225
31990SOL     OW97866   6.922  11.541  14.787
31990SOL    HW197867   7.000  11.586  14.754
31990SOL    HW297868   6.956  11.473  14.845
31991SOL     OW97869  13.656   1.714  14.581
31991SOL    HW197870  13.733   1.662  14.604
31991SOL    HW297871  13.690   1.800  14.557
31992SOL     OW97872   2.181  14.237   7.719
31992SOL    HW197873   2.221  14.311   7.673
31992SOL    HW297874   2.089  14.262   7.730
31993SOL     OW97875  13.541   8.783   0.423
31993SOL    HW197876  13.632   8.752   0.429
31993SOL    HW297877  13.489   8.703   0.430
31994SOL     OW97878   2.972   5.719   6.381
31994SOL    HW197879   3.013   5.695   6.298
31994SOL    HW297880   3.045   5.726   6.442
31995SOL     OW97881   2.688   7.708   8.887
31995SOL    HW197882   2.710   7.787   8.937
31995SOL    HW297883   2.762   7.649   8.900
31996SOL     OW97884   0.343   1.177   1.451
31996SOL    HW197885   0.366   1.131   1.370
31996SOL    HW297886   0.409   1.149   1.514
31997SOL     OW97887   2.279   0.815  14.797
31997SOL    HW197888   2.329   0.810  14.716
31997SOL    HW297889   2.215   0.885  14.782
31998SOL     OW97890   2.004   3.800  13.714
31998SOL    HW197891   2.039   3.881  13.751
31998SOL    HW297892   2.056   3.785  13.635
31999SOL     OW97893   5.959   4.369  11.108
31999SOL    HW197894   5.959   4.464  11.122
31999SOL    HW297895   5.948   4.359  11.014
32000SOL     OW97896   9.803   1.594  12.451
32000SOL    HW197897   9.857   1.667  12.479
32000SOL    HW297898   9.713   1.623  12.468
32001SOL     OW97899   5.220   0.222   7.398
32001SOL    HW197900   5.278   0.184   7.333
32001SOL    HW297901   5.270   0.293   7.438
32002SOL     OW97902   7.506   6.669   9.505
32002SOL    HW197903   7.428   6.725   9.514
32002SOL    HW297904   7.471   6.585   9.477
32003SOL     OW97905   9.324   8.860   0.398
32003SOL    HW197906   9.351   8.938   0.351
32003SOL    HW297907   9.385   8.792   0.369
32004SOL     OW97908  10.883   2.307   4.826
32004SOL    HW197909  10.911   2.215   4.819
32004SOL    HW297910  10.950   2.356   4.779
32005SOL     OW97911   8.840   0.078  10.199
32005SOL    HW197912   8.839   0.123  10.284
32005SOL    HW297913   8.751   0.045  10.189
32006SOL     OW97914   0.993  10.419  14.645
32006SOL    HW197915   1.039  10.350  14.692
32006SOL    HW297916   0.977  10.487  14.711
32007SOL     OW97917   3.728   2.790   3.083
32007SOL    HW197918   3.784   2.722   3.121
32007SOL    HW297919   3.639   2.756   3.093
32008SOL     OW97920   5.149   9.070   7.441
32008SOL    HW197921   5.150   8.985   7.485
32008SOL    HW297922   5.186   9.130   7.505
32009SOL     OW97923   8.575  12.431   4.488
32009SOL    HW197924   8.491  12.387   4.475
32009SOL    HW297925   8.553  12.512   4.533
32010SOL     OW97926   1.352   0.522   7.506
32010SOL    HW197927   1.365   0.615   7.521
32010SOL    HW297928   1.309   0.490   7.585
32011SOL     OW97929   1.639   5.445  14.395
32011SOL    HW197930   1.697   5.467  14.321
32011SOL    HW297931   1.659   5.512  14.460
32012SOL     OW97932   2.755   6.374  14.377
32012SOL    HW197933   2.670   6.374  14.420
32012SOL    HW297934   2.773   6.466  14.359
32013SOL     OW97935   1.194  14.086  12.761
32013SOL    HW197936   1.269  14.029  12.742
32013SOL    HW297937   1.231  14.156  12.816
32014SOL     OW97938  14.486   6.782   5.964
32014SOL    HW197939  14.521   6.862   6.001
32014SOL    HW297940  14.520   6.712   6.020
32015SOL     OW97941  10.503   5.921   0.319
32015SOL    HW197942  10.409   5.939   0.319
32015SOL    HW297943  10.510   5.832   0.284
32016SOL     OW97944   9.662   4.470  13.157
32016SOL    HW197945   9.609   4.390  13.162
32016SOL    HW297946   9.734   4.455  13.218
32017SOL     OW97947   6.545   5.019   5.101
32017SOL    HW197948   6.456   4.988   5.121
32017SOL    HW297949   6.535   5.067   5.019
32018SOL     OW97950  12.365   9.175   3.308
32018SOL    HW197951  12.347   9.269   3.307
32018SOL    HW297952  12.285   9.134   3.277
32019SOL     OW97953  12.988   2.768   7.664
32019SOL    HW197954  13.014   2.715   7.739
32019SOL    HW297955  13.057   2.753   7.599
32020SOL     OW97956  13.982   7.888   7.784
32020SOL    HW197957  14.051   7.954   7.789
32020SOL    HW297958  13.944   7.885   7.872
32021SOL     OW97959   8.960  13.082  11.271
32021SOL    HW197960   9.034  13.038  11.231
32021SOL    HW297961   8.889  13.072  11.207
32022SOL     OW97962  10.452   4.254   6.358
32022SOL    HW197963  10.406   4.196   6.418
32022SOL    HW297964  10.544   4.229   6.366
32023SOL     OW97965   1.839   5.085   1.068
32023SOL    HW197966   1.839   5.072   0.973
32023SOL    HW297967   1.875   5.003   1.103
32024SOL     OW97968  11.443   0.969   4.754
32024SOL    HW197969  11.444   1.003   4.843
32024SOL    HW297970  11.535   0.965   4.729
32025SOL     OW97971   6.496   9.381   2.754
32025SOL    HW197972   6.470   9.306   2.700
32025SOL    HW297973   6.413   9.416   2.787
32026SOL     OW97974   6.882  11.754   1.275
32026SOL    HW197975   6.788  11.739   1.276
32026SOL    HW297976   6.911  11.723   1.189
32027SOL     OW97977   5.408   9.836   2.685
32027SOL    HW197978   5.389   9.907   2.746
32027SOL    HW297979   5.503   9.832   2.681
32028SOL     OW97980   5.370   9.355  11.164
32028SOL    HW197981   5.421   9.384  11.240
32028SOL    HW297982   5.288   9.403  11.170
32029SOL     OW97983   5.803   6.653   2.719
32029SOL    HW197984   5.825   6.640   2.627
32029SOL    HW297985   5.887   6.664   2.762
32030SOL     OW97986   9.844   7.123   3.837
32030SOL    HW197987   9.808   7.045   3.795
32030SOL    HW297988   9.933   7.129   3.803
32031SOL     OW97989  10.027   7.953   2.069
32031SOL    HW197990  10.035   7.939   2.163
32031SOL    HW297991   9.965   7.887   2.040
32032SOL     OW97992   3.558  12.389   2.087
32032SOL    HW197993   3.564  12.357   2.178
32032SOL    HW297994   3.471  12.427   2.080
32033SOL     OW97995   2.914  13.821   6.806
32033SOL    HW197996   2.869  13.776   6.735
32033SOL    HW297997   2.903  13.763   6.882
32034SOL     OW97998   6.171   5.984   0.358
32034SOL    HW197999   6.148   5.902   0.401
32034SOL    HW298000   6.175   5.962   0.265
32035SOL     OW98001   5.766   3.943   4.864
32035SOL    HW198002   5.845   3.961   4.812
32035SOL    HW298003   5.732   4.030   4.887
32036SOL     OW98004  13.875  11.287   2.453
32036SOL    HW198005  13.861  11.312   2.544
32036SOL    HW298006  13.970  11.287   2.442
32037SOL     OW98007   3.195   6.953   0.623
32037SOL    HW198008   3.190   6.994   0.537
32037SOL    HW298009   3.263   6.885   0.614
32038SOL     OW98010   1.241   3.393   0.724
32038SOL    HW198011   1.151   3.420   0.744
32038SOL    HW298012   1.287   3.475   0.709
32039SOL     OW98013   8.851  14.770   0.600
32039SOL    HW198014   8.804  14.803   0.523
32039SOL    HW298015   8.923  14.831   0.613
32040SOL     OW98016   5.104  10.296  13.387
32040SOL    HW198017   5.058  10.294  13.471
32040SOL    HW298018   5.039  10.272  13.322
32041SOL     OW98019  14.450   6.753   7.956
32041SOL    HW198020  14.536   6.720   7.930
32041SOL    HW298021  14.389   6.685   7.928
32042SOL     OW98022   4.279   1.512   3.449
32042SOL    HW198023   4.216   1.523   3.377
32042SOL    HW298024   4.354   1.468   3.409
32043SOL     OW98025   7.259   5.814   4.946
32043SOL    HW198026   7.251   5.860   5.029
32043SOL    HW298027   7.200   5.739   4.954
32044SOL     OW98028  14.196   7.794   8.167
32044SOL    HW198029  14.237   7.709   8.179
32044SOL    HW298030  14.138   7.804   8.242
32045SOL     OW98031   1.848   1.253   9.597
32045SOL    HW198032   1.869   1.273   9.688
32045SOL    HW298033   1.828   1.338   9.558
32046SOL     OW98034   5.834   3.403   2.290
32046SOL    HW198035   5.777   3.331   2.263
32046SOL    HW298036   5.775   3.475   2.311
32047SOL     OW98037  13.482   5.539   3.604
32047SOL    HW198038  13.490   5.482   3.527
32047SOL    HW298039  13.521   5.622   3.576
32048SOL     OW98040   4.104   8.195   1.229
32048SOL    HW198041   4.098   8.289   1.244
32048SOL    HW298042   4.042   8.157   1.292
32049SOL     OW98043  10.889  12.104  11.268
32049SOL    HW198044  10.801  12.136  11.285
32049SOL    HW298045  10.933  12.111  11.353
32050SOL     OW98046  12.453   7.065   9.865
32050SOL    HW198047  12.418   7.045   9.778
32050SOL    HW298048  12.544   7.092   9.848
32051SOL     OW98049  12.333   7.104   5.916
32051SOL    HW198050  12.330   7.101   6.012
32051SOL    HW298051  12.243   7.125   5.891
32052SOL     OW98052   5.624   6.215  13.070
32052SOL    HW198053   5.623   6.248  13.161
32052SOL    HW298054   5.560   6.270  13.025
32053SOL     OW98055  11.602   8.943  12.901
32053SOL    HW198056  11.628   8.892  12.978
32053SOL    HW298057  11.612   8.882  12.827
32054SOL     OW98058  11.542   7.028  12.106
32054SOL    HW198059  11.467   6.988  12.062
32054SOL    HW298060  11.518   7.029  12.199
32055SOL     OW98061   2.814   1.458  13.303
32055SOL    HW198062   2.791   1.474  13.394
32055SOL    HW298063   2.755   1.515  13.253
32056SOL     OW98064   2.925   7.528   3.076
32056SOL    HW198065   2.984   7.600   3.053
32056SOL    HW298066   2.908   7.540   3.169
32057SOL     OW98067   1.781   2.181  10.617
32057SOL    HW198068   1.799   2.241  10.544
32057SOL    HW298069   1.822   2.099  10.592
32058SOL     OW98070   1.076   6.502   6.789
32058SOL    HW198071   1.112   6.454   6.714
32058SOL    HW298072   1.071   6.593   6.759
32059SOL     OW98073  10.218   9.220   2.473
32059SOL    HW198074  10.139   9.191   2.428
32059SOL    HW298075  10.217   9.315   2.463
32060SOL     OW98076   4.163  11.624   3.080
32060SOL    HW198077   4.075  11.595   3.105
32060SOL    HW298078   4.217  11.545   3.090
32061SOL     OW98079  10.478   8.110  14.305
32061SOL    HW198080  10.414   8.049  14.342
32061SOL    HW298081  10.437   8.196  14.312
32062SOL     OW98082   9.854   7.528  12.658
32062SOL    HW198083   9.787   7.566  12.715
32062SOL    HW298084   9.870   7.596  12.592
32063SOL     OW98085   5.079   6.960   1.165
32063SOL    HW198086   5.033   6.933   1.244
32063SOL    HW298087   5.068   6.887   1.104
32064SOL     OW98088  10.518   7.252   8.631
32064SOL    HW198089  10.507   7.215   8.544
32064SOL    HW298090  10.613   7.253   8.646
32065SOL     OW98091  10.945  14.320  11.029
32065SOL    HW198092  11.007  14.247  11.031
32065SOL    HW298093  10.983  14.385  11.089
32066SOL     OW98094   9.863   6.984  12.710
32066SOL    HW198095   9.876   7.078  12.695
32066SOL    HW298096   9.935   6.960  12.769
32067SOL     OW98097   1.902   2.927   3.645
32067SOL    HW198098   1.899   3.020   3.620
32067SOL    HW298099   1.853   2.882   3.577
32068SOL     OW98100   5.734  11.506   9.580
32068SOL    HW198101   5.817  11.541   9.546
32068SOL    HW298102   5.722  11.551   9.664
32069SOL     OW98103   5.099   1.603  13.130
32069SOL    HW198104   5.114   1.565  13.216
32069SOL    HW298105   5.086   1.696  13.147
32070SOL     OW98106   8.407   8.175   4.126
32070SOL    HW198107   8.460   8.106   4.166
32070SOL    HW298108   8.325   8.131   4.101
32071SOL     OW98109  13.002   6.785   5.060
32071SOL    HW198110  13.072   6.722   5.074
32071SOL    HW298111  12.936   6.736   5.009
32072SOL     OW98112   8.979  11.860   7.339
32072SOL    HW198113   9.038  11.888   7.269
32072SOL    HW298114   8.918  11.800   7.296
32073SOL     OW98115   5.615   3.216  10.838
32073SOL    HW198116   5.666   3.292  10.809
32073SOL    HW298117   5.528   3.252  10.858
32074SOL     OW98118   3.398   2.116  12.573
32074SOL    HW198119   3.365   2.100  12.662
32074SOL    HW298120   3.321   2.104  12.517
32075SOL     OW98121  13.178  10.250  11.635
32075SOL    HW198122  13.148  10.304  11.561
32075SOL    HW298123  13.099  10.230  11.685
32076SOL     OW98124   4.948   2.364  13.884
32076SOL    HW198125   4.891   2.330  13.815
32076SOL    HW298126   4.938   2.302  13.956
32077SOL     OW98127  12.839  11.985  11.828
32077SOL    HW198128  12.871  11.913  11.882
32077SOL    HW298129  12.885  12.062  11.861
32078SOL     OW98130   1.734   6.068   7.226
32078SOL    HW198131   1.822   6.084   7.261
32078SOL    HW298132   1.748   6.041   7.136
32079SOL     OW98133   9.135   1.073   6.208
32079SOL    HW198134   9.091   0.988   6.212
32079SOL    HW298135   9.071   1.132   6.168
32080SOL     OW98136  10.342   9.131   0.459
32080SOL    HW198137  10.305   9.069   0.522
32080SOL    HW298138  10.274   9.197   0.447
32081SOL     OW98139   9.286  12.047   6.375
32081SOL    HW198140   9.258  11.982   6.310
32081SOL    HW298141   9.335  12.112   6.325
32082SOL     OW98142   4.370  13.927   2.981
32082SOL    HW198143   4.317  13.872   3.040
32082SOL    HW298144   4.457  13.926   3.020
32083SOL     OW98145   5.542   2.313   6.590
32083SOL    HW198146   5.592   2.374   6.536
32083SOL    HW298147   5.468   2.365   6.623
32084SOL     OW98148   4.346   9.944   5.049
32084SOL    HW198149   4.315   9.883   5.116
32084SOL    HW298150   4.437   9.917   5.032
32085SOL     OW98151   6.491   5.480   8.480
32085SOL    HW198152   6.461   5.565   8.449
32085SOL    HW298153   6.411   5.436   8.510
32086SOL     OW98154   9.776   9.232  14.851
32086SOL    HW198155   9.736   9.175   0.036
32086SOL    HW298156   9.775   9.180  14.770
32087SOL     OW98157   7.920   8.513   4.517
32087SOL    HW198158   7.824   8.509   4.521
32087SOL    HW298159   7.950   8.465   4.594
32088SOL     OW98160   6.404  14.790   4.605
32088SOL    HW198161   6.400  14.695   4.617
32088SOL    HW298162   6.393  14.803   4.510
32089SOL     OW98163  12.813  11.573  12.810
32089SOL    HW198164  12.784  11.566  12.901
32089SOL    HW298165  12.813  11.666  12.792
32090SOL     OW98166   6.353   8.806  11.454
32090SOL    HW198167   6.271   8.775  11.492
32090SOL    HW298168   6.411   8.816  11.530
32091SOL     OW98169   8.211   2.151  13.200
32091SOL    HW198170   8.145   2.096  13.243
32091SOL    HW298171   8.164   2.193  13.127
32092SOL     OW98172  11.722   1.048  12.839
32092SOL    HW198173  11.664   1.099  12.896
32092SOL    HW298174  11.740   1.106  12.765
32093SOL     OW98175   6.797  10.726   2.003
32093SOL    HW198176   6.834  10.671   1.933
32093SOL    HW298177   6.744  10.666   2.055
32094SOL     OW98178   3.265  11.669   7.828
32094SOL    HW198179   3.247  11.728   7.755
32094SOL    HW298180   3.360  11.673   7.839
32095SOL     OW98181   1.538   6.718   1.157
32095SOL    HW198182   1.557   6.625   1.153
32095SOL    HW298183   1.591   6.758   1.088
32096SOL     OW98184   6.347   3.545   8.514
32096SOL    HW198185   6.262   3.535   8.555
32096SOL    HW298186   6.405   3.573   8.586
32097SOL     OW98187  12.903   5.032  12.411
32097SOL    HW198188  12.933   5.050  12.322
32097SOL    HW298189  12.894   4.937  12.415
32098SOL     OW98190   9.234   2.728  14.115
32098SOL    HW198191   9.299   2.658  14.112
32098SOL    HW298192   9.278   2.804  14.079
32099SOL     OW98193   3.868  10.490   5.258
32099SOL    HW198194   3.937  10.448   5.206
32099SOL    HW298195   3.890  10.583   5.257
32100SOL     OW98196  13.692   5.297   8.135
32100SOL    HW198197  13.737   5.381   8.146
32100SOL    HW298198  13.599   5.318   8.142
32101SOL     OW98199  12.745  13.734  11.532
32101SOL    HW198200  12.710  13.672  11.596
32101SOL    HW298201  12.838  13.713  11.526
32102SOL     OW98202   5.536   2.280   9.043
32102SOL    HW198203   5.585   2.332   8.979
32102SOL    HW298204   5.470   2.340   9.077
32103SOL     OW98205   6.017   0.523   1.984
32103SOL    HW198206   5.971   0.571   1.915
32103SOL    HW298207   6.105   0.510   1.949
32104SOL     OW98208  14.068   9.226   4.332
32104SOL    HW198209  14.132   9.294   4.309
32104SOL    HW298210  14.106   9.184   4.409
32105SOL     OW98211   0.957   7.070   3.007
32105SOL    HW198212   0.947   7.005   3.076
32105SOL    HW298213   1.049   7.097   3.012
32106SOL     OW98214   3.848   7.823  13.540
32106SOL    HW198215   3.843   7.909  13.497
32106SOL    HW298216   3.766   7.817  13.590
32107SOL     OW98217   9.154   4.712   6.686
32107SOL    HW198218   9.131   4.631   6.731
32107SOL    HW298219   9.107   4.708   6.603
32108SOL     OW98220   3.168   6.887   0.347
32108SOL    HW198221   3.242   6.873   0.288
32108SOL    HW298222   3.108   6.814   0.330
32109SOL     OW98223  12.216   8.858  11.412
32109SOL    HW198224  12.136   8.833  11.367
32109SOL    HW298225  12.252   8.776  11.446
32110SOL     OW98226  14.598  13.696   6.699
32110SOL    HW198227  14.620  13.620   6.645
32110SOL    HW298228  14.676  13.711   6.753
32111SOL     OW98229   0.917   1.265   2.644
32111SOL    HW198230   0.846   1.213   2.607
32111SOL    HW298231   0.876   1.347   2.672
32112SOL     OW98232  12.173   2.371  10.335
32112SOL    HW198233  12.266   2.361  10.314
32112SOL    HW298234  12.171   2.387  10.429
32113SOL     OW98235  12.899  12.839   3.666
32113SOL    HW198236  12.982  12.882   3.644
32113SOL    HW298237  12.924  12.762   3.717
32114SOL     OW98238   4.662  12.593   3.704
32114SOL    HW198239   4.609  12.670   3.683
32114SOL    HW298240   4.711  12.575   3.624
32115SOL     OW98241  14.279   8.490   2.639
32115SOL    HW198242  14.314   8.557   2.697
32115SOL    HW298243  14.266   8.414   2.696
32116SOL     OW98244   9.538   9.172  10.081
32116SOL    HW198245   9.577   9.249  10.123
32116SOL    HW298246   9.553   9.185   9.988
32117SOL     OW98247   8.614   0.611  11.973
32117SOL    HW198248   8.608   0.516  11.972
32117SOL    HW298249   8.703   0.631  11.943
32118SOL     OW98250   3.804   8.523   1.459
32118SOL    HW198251   3.883   8.559   1.499
32118SOL    HW298252   3.740   8.519   1.531
32119SOL     OW98253   2.780   2.347   5.228
32119SOL    HW198254   2.759   2.400   5.151
32119SOL    HW298255   2.848   2.287   5.199
32120SOL     OW98256   8.320   2.229   1.739
32120SOL    HW198257   8.259   2.181   1.684
32120SOL    HW298258   8.393   2.252   1.681
32121SOL     OW98259   9.594   1.199  14.811
32121SOL    HW198260   9.653   1.166  14.879
32121SOL    HW298261   9.550   1.273  14.851
32122SOL     OW98262  13.561  13.508  11.819
32122SOL    HW198263  13.532  13.436  11.875
32122SOL    HW298264  13.617  13.561  11.876
32123SOL     OW98265   1.722   2.381  12.722
32123SOL    HW198266   1.634   2.399  12.756
32123SOL    HW298267   1.753   2.467  12.692
32124SOL     OW98268   5.277   2.942   8.938
32124SOL    HW198269   5.280   2.880   9.011
32124SOL    HW298270   5.351   3.000   8.953
32125SOL     OW98271  10.419   2.560   3.290
32125SOL    HW198272  10.371   2.564   3.372
32125SOL    HW298273  10.486   2.629   3.297
32126SOL     OW98274   8.482   2.148  13.213
32126SOL    HW198275   8.387   2.149  13.200
32126SOL    HW298276   8.516   2.209  13.149
32127SOL     OW98277  11.612   6.011   0.186
32127SOL    HW198278  11.658   6.075   0.131
32127SOL    HW298279  11.575   5.948   0.124
32128SOL     OW98280   9.220   5.558   3.354
32128SOL    HW198281   9.239   5.553   3.261
32128SOL    HW298282   9.296   5.519   3.397
32129SOL     OW98283  11.886   3.939  13.997
32129SOL    HW198284  11.908   4.024  14.036
32129SOL    HW298285  11.969   3.892  13.993
32130SOL     OW98286   3.260   5.585   1.650
32130SOL    HW198287   3.330   5.608   1.590
32130SOL    HW298288   3.277   5.493   1.672
32131SOL     OW98289   6.764   8.950   6.287
32131SOL    HW198290   6.720   8.921   6.367
32131SOL    HW298291   6.708   9.019   6.252
32132SOL     OW98292   9.232   9.818   1.295
32132SOL    HW198293   9.148   9.789   1.331
32132SOL    HW298294   9.247   9.904   1.335
32133SOL     OW98295   1.969  10.701   9.980
32133SOL    HW198296   1.969  10.613  10.019
32133SOL    HW298297   1.879  10.730   9.986
32134SOL     OW98298   1.029  12.764  12.148
32134SOL    HW198299   0.947  12.739  12.105
32134SOL    HW298300   1.040  12.699  12.217
32135SOL     OW98301  14.448   9.994  11.880
32135SOL    HW198302  14.490  10.015  11.797
32135SOL    HW298303  14.410   9.907  11.867
32136SOL     OW98304   5.763  12.687  12.935
32136SOL    HW198305   5.843  12.734  12.915
32136SOL    HW298306   5.699  12.718  12.871
32137SOL     OW98307   6.187   4.964   1.743
32137SOL    HW198308   6.129   5.016   1.688
32137SOL    HW298309   6.269   4.958   1.693
32138SOL     OW98310  10.837   1.528   7.938
32138SOL    HW198311  10.779   1.452   7.941
32138SOL    HW298312  10.809   1.575   7.859
32139SOL     OW98313   7.943   4.227   2.305
32139SOL    HW198314   7.868   4.233   2.246
32139SOL    HW298315   7.938   4.306   2.359
32140SOL     OW98316  12.486  14.000  10.993
32140SOL    HW198317  12.471  14.086  10.953
32140SOL    HW298318  12.555  13.960  10.940
32141SOL     OW98319   5.531   7.766   5.141
32141SOL    HW198320   5.457   7.742   5.084
32141SOL    HW298321   5.525   7.706   5.214
32142SOL     OW98322  10.626  11.588   4.269
32142SOL    HW198323  10.532  11.571   4.259
32142SOL    HW298324  10.667  11.535   4.201
32143SOL     OW98325   8.690   9.210   4.439
32143SOL    HW198326   8.675   9.187   4.347
32143SOL    HW298327   8.762   9.273   4.436
32144SOL     OW98328   4.370   9.937  13.540
32144SOL    HW198329   4.381   9.854  13.587
32144SOL    HW298330   4.456   9.954  13.502
32145SOL     OW98331   3.897  10.229   6.861
32145SOL    HW198332   3.905  10.182   6.944
32145SOL    HW298333   3.896  10.321   6.886
32146SOL     OW98334   9.350   6.577  12.064
32146SOL    HW198335   9.346   6.502  12.005
32146SOL    HW298336   9.318   6.544  12.148
32147SOL     OW98337   1.996  10.262   0.600
32147SOL    HW198338   2.089  10.260   0.624
32147SOL    HW298339   1.985  10.347   0.556
32148SOL     OW98340   4.132  12.388   6.442
32148SOL    HW198341   4.061  12.346   6.491
32148SOL    HW298342   4.092  12.466   6.404
32149SOL     OW98343  12.532   0.328   0.571
32149SOL    HW198344  12.461   0.392   0.562
32149SOL    HW298345  12.585   0.340   0.493
32150SOL     OW98346   8.681   8.829  12.638
32150SOL    HW198347   8.731   8.764  12.589
32150SOL    HW298348   8.728   8.911  12.623
32151SOL     OW98349  11.669   2.525  12.591
32151SOL    HW198350  11.725   2.583  12.642
32151SOL    HW298351  11.727   2.455  12.562
32152SOL     OW98352   7.477   7.191   4.468
32152SOL    HW198353   7.502   7.244   4.392
32152SOL    HW298354   7.405   7.138   4.437
32153SOL     OW98355   0.839  12.426  11.095
32153SOL    HW198356   0.930  12.399  11.083
32153SOL    HW298357   0.789  12.365  11.041
32154SOL     OW98358   7.982   3.685   4.397
32154SOL    HW198359   8.025   3.749   4.454
32154SOL    HW298360   7.952   3.616   4.456
32155SOL     OW98361  11.234   6.258  11.565
32155SOL    HW198362  11.323   6.292  11.567
32155SOL    HW298363  11.179   6.336  11.574
32156SOL     OW98364  14.699  12.977   3.149
32156SOL    HW198365  14.767  13.038   3.177
32156SOL    HW298366  14.619  13.009   3.192
32157SOL     OW98367   7.931   0.247   2.869
32157SOL    HW198368   7.956   0.154   2.874
32157SOL    HW298369   7.999   0.293   2.917
32158SOL     OW98370   5.563   0.422   6.092
32158SOL    HW198371   5.631   0.463   6.147
32158SOL    HW298372   5.588   0.445   6.003
32159SOL     OW98373   0.548  13.030   2.252
32159SOL    HW198374   0.604  13.107   2.248
32159SOL    HW298375   0.459  13.065   2.244
32160SOL     OW98376   0.478   9.095   8.423
32160SOL    HW198377   0.565   9.132   8.434
32160SOL    HW298378   0.421   9.149   8.477
32161SOL     OW98379   0.580  12.082   7.381
32161SOL    HW198380   0.668  12.045   7.388
32161SOL    HW298381   0.537  12.029   7.313
32162SOL     OW98382  13.917   4.033   3.726
32162SOL    HW198383  13.963   4.112   3.697
32162SOL    HW298384  13.950   4.017   3.814
32163SOL     OW98385   6.736   1.585  11.310
32163SOL    HW198386   6.728   1.671  11.268
32163SOL    HW298387   6.658   1.537  11.281
32164SOL     OW98388   6.467  13.761   2.282
32164SOL    HW198389   6.514  13.832   2.325
32164SOL    HW298390   6.412  13.804   2.217
32165SOL     OW98391   6.115   6.470   1.041
32165SOL    HW198392   6.203   6.495   1.010
32165SOL    HW298393   6.068   6.553   1.049
32166SOL     OW98394   5.524   0.039   2.838
32166SOL    HW198395   5.462  14.874   2.782
32166SOL    HW298396   5.597   0.062   2.780
32167SOL     OW98397   3.870   6.028  11.778
32167SOL    HW198398   3.858   6.082  11.700
32167SOL    HW298399   3.894   6.090  11.847
32168SOL     OW98400   2.515  10.089  13.719
32168SOL    HW198401   2.565  10.029  13.775
32168SOL    HW298402   2.440  10.115  13.773
32169SOL     OW98403  10.785  13.760  13.716
32169SOL    HW198404  10.761  13.758  13.624
32169SOL    HW298405  10.854  13.695  13.724
32170SOL     OW98406   2.839  12.345   4.707
32170SOL    HW198407   2.820  12.435   4.735
32170SOL    HW298408   2.847  12.351   4.612
32171SOL     OW98409  11.052   6.086   9.107
32171SOL    HW198410  10.973   6.124   9.070
32171SOL    HW298411  11.032   6.073   9.200
32172SOL     OW98412   7.544   7.559   7.788
32172SOL    HW198413   7.552   7.507   7.868
32172SOL    HW298414   7.628   7.545   7.743
32173SOL     OW98415   4.823   4.802   4.382
32173SOL    HW198416   4.834   4.788   4.476
32173SOL    HW298417   4.825   4.897   4.372
32174SOL     OW98418  12.487   1.533   8.002
32174SOL    HW198419  12.394   1.548   8.022
32174SOL    HW298420  12.486   1.494   7.915
32175SOL     OW98421   2.279   6.924  10.484
32175SOL    HW198422   2.295   6.937  10.391
32175SOL    HW298423   2.248   7.009  10.516
32176SOL     OW98424   2.578   1.051   1.050
32176SOL    HW198425   2.490   1.087   1.038
32176SOL    HW298426   2.563   0.961   1.076
32177SOL     OW98427  12.762   2.455   8.417
32177SOL    HW198428  12.839   2.399   8.427
32177SOL    HW298429  12.767   2.485   8.326
32178SOL     OW98430  10.044  13.418  12.665
32178SOL    HW198431  10.131  13.452  12.682
32178SOL    HW298432  10.055  13.361  12.589
32179SOL     OW98433   7.389  11.167  10.652
32179SOL    HW198434   7.388  11.215  10.569
32179SOL    HW298435   7.478  11.133  10.658
32180SOL     OW98436   3.758   5.430   4.181
32180SOL    HW198437   3.831   5.368   4.174
32180SOL    HW298438   3.686   5.386   4.136
32181SOL     OW98439   6.933   2.338   5.593
32181SOL    HW198440   6.850   2.292   5.579
32181SOL    HW298441   7.000   2.279   5.559
32182SOL     OW98442   2.543  11.524  13.243
32182SOL    HW198443   2.465  11.532  13.187
32182SOL    HW298444   2.508  11.508  13.331
32183SOL     OW98445   9.313   2.760  11.757
32183SOL    HW198446   9.223   2.765  11.790
32183SOL    HW298447   9.339   2.670  11.775
32184SOL     OW98448  10.884   1.435  12.898
32184SOL    HW198449  10.793   1.409  12.879
32184SOL    HW298450  10.913   1.478  12.818
32185SOL     OW98451   6.790  14.660  11.174
32185SOL    HW198452   6.856  14.718  11.137
32185SOL    HW298453   6.779  14.690  11.264
32186SOL     OW98454   7.003   6.201   9.999
32186SOL    HW198455   7.062   6.275   9.984
32186SOL    HW298456   6.951   6.226  10.075
32187SOL     OW98457   0.979   2.175   4.777
32187SOL    HW198458   1.033   2.232   4.833
32187SOL    HW298459   0.899   2.161   4.828
32188SOL     OW98460   6.708   1.703   2.303
32188SOL    HW198461   6.800   1.704   2.278
32188SOL    HW298462   6.682   1.795   2.303
32189SOL     OW98463   0.180   6.314   9.358
32189SOL    HW198464   0.235   6.343   9.285
32189SOL    HW298465   0.243   6.296   9.428
32190SOL     OW98466  10.429  14.182  13.317
32190SOL    HW198467  10.360  14.125  13.351
32190SOL    HW298468  10.387  14.267  13.308
32191SOL     OW98469   8.511   7.304   1.727
32191SOL    HW198470   8.566   7.232   1.698
32191SOL    HW298471   8.568   7.358   1.782
32192SOL     OW98472   6.609   1.521   8.180
32192SOL    HW198473   6.687   1.470   8.201
32192SOL    HW298474   6.636   1.576   8.107
32193SOL     OW98475  12.865   4.055   0.596
32193SOL    HW198476  12.924   4.025   0.665
32193SOL    HW298477  12.859   4.150   0.610
32194SOL     OW98478   4.225   8.022  13.716
32194SOL    HW198479   4.318   8.004  13.704
32194SOL    HW298480   4.215   8.115  13.697
32195SOL     OW98481   6.835  10.169   4.325
32195SOL    HW198482   6.797  10.196   4.409
32195SOL    HW298483   6.802  10.080   4.312
32196SOL     OW98484   7.436   9.536   6.460
32196SOL    HW198485   7.527   9.541   6.490
32196SOL    HW298486   7.400   9.622   6.478
32197SOL     OW98487  13.524   6.796   6.430
32197SOL    HW198488  13.547   6.888   6.443
32197SOL    HW298489  13.569   6.770   6.350
32198SOL     OW98490  11.561   3.838  12.193
32198SOL    HW198491  11.565   3.799  12.105
32198SOL    HW298492  11.490   3.791  12.237
32199SOL     OW98493   1.737   1.742   9.231
32199SOL    HW198494   1.763   1.802   9.161
32199SOL    HW298495   1.786   1.661   9.213
32200SOL     OW98496  14.298   2.034  11.420
32200SOL    HW198497  14.259   2.058  11.336
32200SOL    HW298498  14.231   1.980  11.462
32201SOL     OW98499  12.301   6.724  14.552
32201SOL    HW198500  12.288   6.671  14.631
32201SOL    HW298501  12.313   6.813  14.585
32202SOL     OW98502  11.644   5.451   3.164
32202SOL    HW198503  11.609   5.538   3.150
32202SOL    HW298504  11.703   5.460   3.239
32203SOL     OW98505   3.606   1.089   8.638
32203SOL    HW198506   3.573   1.163   8.587
32203SOL    HW298507   3.637   1.026   8.573
32204SOL     OW98508  12.656   8.343   9.137
32204SOL    HW198509  12.626   8.258   9.105
32204SOL    HW298510  12.743   8.354   9.100
32205SOL     OW98511   7.058  11.046  10.404
32205SOL    HW198512   7.076  10.958  10.370
32205SOL    HW298513   7.106  11.105  10.346
32206SOL     OW98514   4.597   9.140  11.978
32206SOL    HW198515   4.548   9.064  12.009
32206SOL    HW298516   4.688   9.119  11.999
32207SOL     OW98517  11.843   5.639  14.781
32207SOL    HW198518  11.837   5.681  14.867
32207SOL    HW298519  11.936   5.620  14.770
32208SOL     OW98520   8.511  13.522  11.890
32208SOL    HW198521   8.553  13.555  11.969
32208SOL    HW298522   8.420  13.508  11.916
32209SOL     OW98523   4.181  10.534   4.599
32209SOL    HW198524   4.153  10.624   4.614
32209SOL    HW298525   4.192  10.528   4.504
32210SOL     OW98526   6.369  13.734   9.441
32210SOL    HW198527   6.402  13.645   9.452
32210SOL    HW298528   6.335  13.736   9.352
32211SOL     OW98529  11.119   5.309  12.038
32211SOL    HW198530  11.105   5.403  12.047
32211SOL    HW298531  11.209   5.300  12.009
32212SOL     OW98532   3.801   0.029  11.576
32212SOL    HW198533   3.855   0.047  11.652
32212SOL    HW298534   3.811   0.107  11.520
32213SOL     OW98535   8.042  10.045   8.580
32213SOL    HW198536   7.951  10.064   8.560
32213SOL    HW298537   8.045  10.035   8.675
32214SOL     OW98538   3.654   9.805  11.982
32214SOL    HW198539   3.618   9.729  12.028
32214SOL    HW298540   3.687   9.769  11.899
32215SOL     OW98541  14.696   9.757  12.135
32215SOL    HW198542  14.688   9.723  12.046
32215SOL    HW298543  14.622   9.816  12.146
32216SOL     OW98544   2.004  11.596   4.082
32216SOL    HW198545   2.048  11.634   4.157
32216SOL    HW298546   1.985  11.671   4.025
32217SOL     OW98547   4.607   7.006   5.574
32217SOL    HW198548   4.515   6.999   5.548
32217SOL    HW298549   4.614   7.092   5.613
32218SOL     OW98550   7.930   7.401   4.039
32218SOL    HW198551   7.972   7.486   4.024
32218SOL    HW298552   7.842   7.411   4.004
32219SOL     OW98553   5.780   8.795   4.953
32219SOL    HW198554   5.729   8.783   4.873
32219SOL    HW298555   5.715   8.803   5.023
32220SOL     OW98556  13.082  11.239  12.611
32220SOL    HW198557  13.060  11.320  12.565
32220SOL    HW298558  13.100  11.266  12.701
32221SOL     OW98559   5.068   9.800  10.463
32221SOL    HW198560   5.139   9.737  10.465
32221SOL    HW298561   4.989   9.749  10.480
32222SOL     OW98562   4.086   2.920   2.294
32222SOL    HW198563   4.011   2.905   2.236
32222SOL    HW298564   4.163   2.900   2.240
32223SOL     OW98565  10.222  11.336  11.350
32223SOL    HW198566  10.178  11.256  11.320
32223SOL    HW298567  10.240  11.319  11.443
32224SOL     OW98568   6.458   9.534   9.081
32224SOL    HW198569   6.418   9.595   9.143
32224SOL    HW298570   6.547   9.521   9.114
32225SOL     OW98571  12.511   7.163  10.714
32225SOL    HW198572  12.601   7.177  10.685
32225SOL    HW298573  12.457   7.178  10.636
32226SOL     OW98574  10.441  10.629  12.908
32226SOL    HW198575  10.489  10.575  12.971
32226SOL    HW298576  10.356  10.585  12.899
32227SOL     OW98577   4.941   5.254   1.318
32227SOL    HW198578   5.002   5.182   1.303
32227SOL    HW298579   4.871   5.216   1.371
32228SOL     OW98580   8.483   6.517   8.883
32228SOL    HW198581   8.489   6.476   8.797
32228SOL    HW298582   8.565   6.495   8.926
32229SOL     OW98583   9.759   4.218   8.026
32229SOL    HW198584   9.708   4.296   8.007
32229SOL    HW298585   9.712   4.147   7.982
32230SOL     OW98586   5.773   1.506  12.462
32230SOL    HW198587   5.777   1.564  12.539
32230SOL    HW298588   5.763   1.419  12.499
32231SOL     OW98589   7.299  13.209   7.557
32231SOL    HW198590   7.209  13.215   7.588
32231SOL    HW298591   7.337  13.136   7.606
32232SOL     OW98592   3.297   1.382  12.212
32232SOL    HW198593   3.259   1.354  12.129
32232SOL    HW298594   3.222   1.399  12.268
32233SOL     OW98595  10.287  13.972  14.545
32233SOL    HW198596  10.205  14.006  14.511
32233SOL    HW298597  10.315  14.036  14.610
32234SOL     OW98598   7.911   3.740   1.016
32234SOL    HW198599   7.949   3.811   1.068
32234SOL    HW298600   7.925   3.662   1.069
32235SOL     OW98601   8.193   4.189   2.440
32235SOL    HW198602   8.108   4.193   2.396
32235SOL    HW298603   8.232   4.276   2.424
32236SOL     OW98604  13.377   2.206   6.405
32236SOL    HW198605  13.292   2.184   6.366
32236SOL    HW298606  13.356   2.273   6.471
32237SOL     OW98607   8.537  14.216   4.549
32237SOL    HW198608   8.549  14.283   4.481
32237SOL    HW298609   8.506  14.265   4.625
32238SOL     OW98610   4.619   2.849  12.350
32238SOL    HW198611   4.580   2.845  12.263
32238SOL    HW298612   4.598   2.937  12.381
32239SOL     OW98613  10.501  12.080  11.527
32239SOL    HW198614  10.414  12.043  11.541
32239SOL    HW298615  10.518  12.066  11.434
32240SOL     OW98616   6.973   6.119  13.948
32240SOL    HW198617   6.992   6.026  13.937
32240SOL    HW298618   6.892   6.121  13.999
32241SOL     OW98619   3.339  11.228  13.623
32241SOL    HW198620   3.414  11.287  13.628
32241SOL    HW298621   3.287  11.262  13.551
32242SOL     OW98622  12.417   3.990   5.724
32242SOL    HW198623  12.374   3.906   5.738
32242SOL    HW298624  12.346   4.051   5.709
32243SOL     OW98625   1.759   9.994   6.184
32243SOL    HW198626   1.739  10.084   6.209
32243SOL    HW298627   1.745   9.943   6.264
32244SOL     OW98628   0.594  12.121   8.373
32244SOL    HW198629   0.651  12.198   8.380
32244SOL    HW298630   0.566  12.103   8.463
32245SOL     OW98631   6.112   5.195   2.798
32245SOL    HW198632   6.032   5.143   2.807
32245SOL    HW298633   6.180   5.130   2.777
32246SOL     OW98634  13.506  11.819   9.658
32246SOL    HW198635  13.424  11.858   9.629
32246SOL    HW298636  13.547  11.784   9.579
32247SOL     OW98637  10.186  13.752   0.332
32247SOL    HW198638  10.233  13.680   0.290
32247SOL    HW298639  10.254  13.818   0.347
32248SOL     OW98640  14.126  14.683   5.452
32248SOL    HW198641  14.094  14.713   5.537
32248SOL    HW298642  14.077  14.602   5.435
32249SOL     OW98643   5.954  12.352   8.356
32249SOL    HW198644   5.929  12.443   8.339
32249SOL    HW298645   6.015  12.356   8.430
32250SOL     OW98646   8.997   5.219  11.512
32250SOL    HW198647   8.986   5.228  11.417
32250SOL    HW298648   9.080   5.261  11.531
32251SOL     OW98649  12.264  11.284  12.021
32251SOL    HW198650  12.220  11.329  11.949
32251SOL    HW298651  12.338  11.341  12.043
32252SOL     OW98652   8.745   2.445  14.230
32252SOL    HW198653   8.700   2.421  14.149
32252SOL    HW298654   8.807   2.513  14.204
32253SOL     OW98655   5.042  10.091   8.970
32253SOL    HW198656   5.131  10.084   8.936
32253SOL    HW298657   5.029  10.186   8.982
32254SOL     OW98658   1.331  14.585   1.258
32254SOL    HW198659   1.305  14.657   1.201
32254SOL    HW298660   1.394  14.535   1.206
32255SOL     OW98661   0.011   4.988   8.296
32255SOL    HW198662  14.864   5.079   8.283
32255SOL    HW298663  14.827   4.952   8.357
32256SOL     OW98664   6.082   5.818  12.078
32256SOL    HW198665   6.106   5.888  12.017
32256SOL    HW298666   6.161   5.764  12.085
32257SOL     OW98667  10.597   5.382   4.958
32257SOL    HW198668  10.509   5.357   4.985
32257SOL    HW298669  10.629   5.440   5.027
32258SOL     OW98670   3.521  14.396  13.352
32258SOL    HW198671   3.520  14.415  13.258
32258SOL    HW298672   3.458  14.325  13.362
32259SOL     OW98673   9.246   9.327   3.091
32259SOL    HW198674   9.224   9.419   3.108
32259SOL    HW298675   9.341   9.324   3.100
32260SOL     OW98676   6.703  11.438  12.767
32260SOL    HW198677   6.751  11.364  12.805
32260SOL    HW298678   6.769  11.486  12.716
32261SOL     OW98679  10.835   5.665   5.727
32261SOL    HW198680  10.795   5.733   5.672
32261SOL    HW298681  10.833   5.703   5.815
32262SOL     OW98682   1.849   5.199   7.788
32262SOL    HW198683   1.924   5.244   7.828
32262SOL    HW298684   1.773   5.238   7.831
32263SOL     OW98685   8.477   1.019  12.927
32263SOL    HW198686   8.567   0.991  12.909
32263SOL    HW298687   8.432   0.938  12.950
32264SOL     OW98688   8.497  11.653  14.304
32264SOL    HW198689   8.524  11.623  14.217
32264SOL    HW298690   8.494  11.748  14.297
32265SOL     OW98691   0.818   9.859   2.309
32265SOL    HW198692   0.912   9.876   2.317
32265SOL    HW298693   0.811   9.789   2.245
32266SOL     OW98694   5.023  12.048   7.106
32266SOL    HW198695   5.006  12.124   7.050
32266SOL    HW298696   5.072  11.988   7.050
32267SOL     OW98697   7.585   6.481   1.552
32267SOL    HW198698   7.569   6.492   1.646
32267SOL    HW298699   7.679   6.490   1.543
32268SOL     OW98700   5.998  10.046   3.895
32268SOL    HW198701   5.910  10.063   3.928
32268SOL    HW298702   6.049  10.121   3.923
32269SOL     OW98703   9.311   4.225  11.799
32269SOL    HW198704   9.336   4.165  11.729
32269SOL    HW298705   9.246   4.177  11.850
32270SOL     OW98706   3.935   2.804  14.877
32270SOL    HW198707   4.027   2.827   0.010
32270SOL    HW298708   3.937   2.733  14.812
32271SOL     OW98709   7.026   0.173   5.802
32271SOL    HW198710   7.052   0.263   5.782
32271SOL    HW298711   6.934   0.169   5.776
32272SOL     OW98712   7.009  13.600   9.128
32272SOL    HW198713   7.064  13.544   9.183
32272SOL    HW298714   6.967  13.661   9.190
32273SOL     OW98715   7.079   0.677  13.346
32273SOL    HW198716   7.055   0.588  13.372
32273SOL    HW298717   7.091   0.723  13.429
32274SOL     OW98718  12.237   5.000   2.647
32274SOL    HW198719  12.254   4.913   2.683
32274SOL    HW298720  12.188   5.045   2.715
32275SOL     OW98721  12.371   1.576   6.379
32275SOL    HW198722  12.297   1.608   6.327
32275SOL    HW298723  12.330   1.524   6.449
32276SOL     OW98724   5.282   2.082   3.410
32276SOL    HW198725   5.251   2.171   3.388
32276SOL    HW298726   5.241   2.063   3.494
32277SOL     OW98727  14.748   3.641  12.650
32277SOL    HW198728  14.835   3.681  12.658
32277SOL    HW298729  14.755   3.587  12.571
32278SOL     OW98730   7.684  12.787   2.708
32278SOL    HW198731   7.721  12.749   2.787
32278SOL    HW298732   7.616  12.847   2.739
32279SOL     OW98733  14.380   1.173  13.035
32279SOL    HW198734  14.450   1.170  13.101
32279SOL    HW298735  14.363   1.081  13.014
32280SOL     OW98736   9.447   1.717   9.841
32280SOL    HW198737   9.535   1.681   9.852
32280SOL    HW298738   9.389   1.651   9.878
32281SOL     OW98739  14.087  13.391   4.027
32281SOL    HW198740  14.133  13.425   3.950
32281SOL    HW298741  14.112  13.450   4.098
32282SOL     OW98742  13.625   4.327   8.000
32282SOL    HW198743  13.576   4.373   7.932
32282SOL    HW298744  13.565   4.325   8.075
32283SOL     OW98745  14.280   6.895  11.318
32283SOL    HW198746  14.254   6.899  11.410
32283SOL    HW298747  14.198   6.903  11.269
32284SOL     OW98748   4.194   7.717  13.312
32284SOL    HW198749   4.264   7.667  13.271
32284SOL    HW298750   4.205   7.702  13.406
32285SOL     OW98751   7.117  10.657  14.184
32285SOL    HW198752   7.154  10.584  14.135
32285SOL    HW298753   7.092  10.620  14.269
32286SOL     OW98754   1.012  12.870   1.597
32286SOL    HW198755   1.028  12.956   1.559
32286SOL    HW298756   0.989  12.889   1.688
32287SOL     OW98757  13.632   9.466   0.369
32287SOL    HW198758  13.599   9.488   0.282
32287SOL    HW298759  13.727   9.470   0.361
32288SOL     OW98760   8.364   3.826  14.456
32288SOL    HW198761   8.313   3.757  14.498
32288SOL    HW298762   8.346   3.904  14.508
32289SOL     OW98763   5.449   3.416   7.247
32289SOL    HW198764   5.420   3.480   7.312
32289SOL    HW298765   5.544   3.424   7.246
32290SOL     OW98766  14.838   2.462   9.745
32290SOL    HW198767  14.843   2.524   9.818
32290SOL    HW298768  14.766   2.404   9.768
32291SOL     OW98769  10.160   8.015   3.675
32291SOL    HW198770  10.098   8.030   3.603
32291SOL    HW298771  10.171   7.920   3.677
32292SOL     OW98772   6.271   4.819   3.799
32292SOL    HW198773   6.319   4.893   3.762
32292SOL    HW298774   6.305   4.810   3.888
32293SOL     OW98775   7.655   1.121  14.418
32293SOL    HW198776   7.625   1.121  14.328
32293SOL    HW298777   7.578   1.144  14.470
32294SOL     OW98778   8.124   5.513  11.861
32294SOL    HW198779   8.153   5.427  11.891
32294SOL    HW298780   8.204   5.566  11.862
32295SOL     OW98781   7.140   5.730  14.344
32295SOL    HW198782   7.141   5.689  14.430
32295SOL    HW298783   7.216   5.693  14.299
32296SOL     OW98784   7.474  14.097   5.340
32296SOL    HW198785   7.445  14.007   5.332
32296SOL    HW298786   7.446  14.125   5.427
32297SOL     OW98787   2.150  14.604   0.402
32297SOL    HW198788   2.167  14.640   0.489
32297SOL    HW298789   2.074  14.652   0.371
32298SOL     OW98790   9.340   2.600   2.714
32298SOL    HW198791   9.275   2.658   2.756
32298SOL    HW298792   9.373   2.650   2.640
32299SOL     OW98793   6.376   9.167   1.090
32299SOL    HW198794   6.440   9.129   1.149
32299SOL    HW298795   6.384   9.116   1.009
32300SOL     OW98796  12.051   7.073   0.136
32300SOL    HW198797  12.001   7.060   0.056
32300SOL    HW298798  12.118   7.137   0.113
32301SOL     OW98799   4.816   1.386  10.683
32301SOL    HW198800   4.762   1.462  10.707
32301SOL    HW298801   4.808   1.328  10.759
32302SOL     OW98802   5.953   6.783  10.556
32302SOL    HW198803   5.969   6.800  10.463
32302SOL    HW298804   5.879   6.839  10.578
32303SOL     OW98805   6.048   7.403  10.569
32303SOL    HW198806   5.981   7.381  10.632
32303SOL    HW298807   6.055   7.499  10.574
32304SOL     OW98808  12.369   3.776   4.212
32304SOL    HW198809  12.285   3.769   4.258
32304SOL    HW298810  12.352   3.741   4.125
32305SOL     OW98811  10.548   6.580  13.688
32305SOL    HW198812  10.478   6.626  13.642
32305SOL    HW298813  10.595   6.649  13.735
32306SOL     OW98814  12.733   0.586   2.402
32306SOL    HW198815  12.763   0.599   2.312
32306SOL    HW298816  12.709   0.674   2.432
32307SOL     OW98817   3.118   6.220   4.145
32307SOL    HW198818   3.153   6.257   4.226
32307SOL    HW298819   3.186   6.236   4.079
32308SOL     OW98820   8.874  12.258  14.443
32308SOL    HW198821   8.857  12.253  14.349
32308SOL    HW298822   8.789  12.245  14.484
32309SOL     OW98823  10.039   3.800   6.163
32309SOL    HW198824  10.047   3.728   6.100
32309SOL    HW298825  10.011   3.875   6.110
32310SOL     OW98826   9.758   2.133   7.473
32310SOL    HW198827   9.753   2.219   7.430
32310SOL    HW298828   9.670   2.118   7.507
32311SOL     OW98829  12.263   4.594   6.793
32311SOL    HW198830  12.263   4.619   6.886
32311SOL    HW298831  12.215   4.664   6.749
32312SOL     OW98832   2.169   7.973   0.788
32312SOL    HW198833   2.107   8.012   0.727
32312SOL    HW298834   2.219   7.910   0.735
32313SOL     OW98835   7.906  12.063   9.909
32313SOL    HW198836   7.918  12.007   9.832
32313SOL    HW298837   7.825  12.033   9.949
32314SOL     OW98838  14.860   0.212  14.350
32314SOL    HW198839  14.827   0.301  14.360
32314SOL    HW298840   0.022   0.193  14.434
32315SOL     OW98841   4.034   3.343  10.421
32315SOL    HW198842   3.999   3.275  10.480
32315SOL    HW298843   3.964   3.356  10.357
32316SOL     OW98844  14.526   7.783   4.061
32316SOL    HW198845  14.479   7.713   4.016
32316SOL    HW298846  14.618   7.756   4.058
32317SOL     OW98847   7.904   0.695   5.500
32317SOL    HW198848   7.996   0.672   5.484
32317SOL    HW298849   7.890   0.674   5.592
32318SOL     OW98850   4.140  11.014   3.544
32318SOL    HW198851   4.075  10.945   3.554
32318SOL    HW298852   4.224  10.968   3.537
32319SOL     OW98853   5.042  14.080  12.478
32319SOL    HW198854   5.004  14.091  12.391
32319SOL    HW298855   5.106  14.150  12.486
32320SOL     OW98856  13.388   8.435   8.360
32320SOL    HW198857  13.400   8.496   8.433
32320SOL    HW298858  13.332   8.483   8.299
32321SOL     OW98859   5.557   4.589   2.285
32321SOL    HW198860   5.494   4.517   2.281
32321SOL    HW298861   5.624   4.558   2.347
32322SOL     OW98862   0.589  11.237   2.981
32322SOL    HW198863   0.637  11.232   2.898
32322SOL    HW298864   0.658  11.244   3.048
32323SOL     OW98865  10.837   9.776   2.534
32323SOL    HW198866  10.867   9.772   2.625
32323SOL    HW298867  10.868   9.861   2.502
32324SOL     OW98868  13.437  12.533  14.576
32324SOL    HW198869  13.478  12.447  14.564
32324SOL    HW298870  13.498  12.594  14.534
32325SOL     OW98871   9.118  12.216  13.373
32325SOL    HW198872   9.167  12.201  13.292
32325SOL    HW298873   9.110  12.311  13.379
32326SOL     OW98874   7.998   1.994   7.741
32326SOL    HW198875   7.983   2.073   7.689
32326SOL    HW298876   7.931   1.933   7.712
32327SOL     OW98877   1.090  13.507   2.599
32327SOL    HW198878   1.073  13.415   2.583
32327SOL    HW298879   1.058  13.552   2.520
32328SOL     OW98880   2.523  10.310   5.244
32328SOL    HW198881   2.570  10.379   5.197
32328SOL    HW298882   2.543  10.230   5.195
32329SOL     OW98883  12.214  12.958  12.096
32329SOL    HW198884  12.275  12.980  12.025
32329SOL    HW298885  12.256  12.886  12.142
32330SOL     OW98886   3.996  14.796   5.686
32330SOL    HW198887   3.982  14.830   5.598
32330SOL    HW298888   3.981  14.871   5.743
32331SOL     OW98889  11.002   7.564  12.400
32331SOL    HW198890  10.987   7.474  12.374
32331SOL    HW298891  10.966   7.616  12.328
32332SOL     OW98892  13.315  11.541   9.322
32332SOL    HW198893  13.350  11.618   9.276
32332SOL    HW298894  13.387  11.478   9.321
32333SOL     OW98895   1.263   0.745   2.761
32333SOL    HW198896   1.328   0.719   2.827
32333SOL    HW298897   1.313   0.794   2.696
32334SOL     OW98898   4.078   0.559  12.019
32334SOL    HW198899   4.044   0.561  12.109
32334SOL    HW298900   4.016   0.613  11.969
32335SOL     OW98901   8.150   2.591   5.101
32335SOL    HW198902   8.149   2.561   5.192
32335SOL    HW298903   8.096   2.670   5.102
32336SOL     OW98904   2.334   0.053   4.339
32336SOL    HW198905   2.269  14.865   4.357
32336SOL    HW298906   2.290   0.134   4.364
32337SOL     OW98907   9.843  13.459  13.136
32337SOL    HW198908   9.765  13.511  13.116
32337SOL    HW298909   9.914  13.523  13.140
32338SOL     OW98910   0.693   4.674   6.911
32338SOL    HW198911   0.632   4.748   6.909
32338SOL    HW298912   0.679   4.634   6.997
32339SOL     OW98913   9.352   8.663   2.236
32339SOL    HW198914   9.270   8.703   2.208
32339SOL    HW298915   9.379   8.714   2.313
32340SOL     OW98916  14.789  12.745   9.726
32340SOL    HW198917  14.706  12.778   9.760
32340SOL    HW298918  14.847  12.821   9.728
32341SOL     OW98919   6.159  13.731  10.406
32341SOL    HW198920   6.180  13.640  10.383
32341SOL    HW298921   6.176  13.781  10.326
32342SOL     OW98922  10.711   0.879   8.692
32342SOL    HW198923  10.641   0.846   8.635
32342SOL    HW298924  10.756   0.800   8.722
32343SOL     OW98925  12.100   9.105  11.111
32343SOL    HW198926  12.069   9.135  11.026
32343SOL    HW298927  12.020   9.100  11.164
32344SOL     OW98928   4.790   0.946  11.893
32344SOL    HW198929   4.875   0.969  11.856
32344SOL    HW298930   4.806   0.936  11.987
32345SOL     OW98931  10.406   4.783  12.955
32345SOL    HW198932  10.395   4.715  12.889
32345SOL    HW298933  10.329   4.838  12.946
32346SOL     OW98934  11.148   2.398  10.989
32346SOL    HW198935  11.102   2.478  11.012
32346SOL    HW298936  11.236   2.427  10.963
32347SOL     OW98937  10.171  11.360  10.160
32347SOL    HW198938  10.135  11.273  10.142
32347SOL    HW298939  10.229  11.378  10.086
32348SOL     OW98940   7.500  13.365   7.451
32348SOL    HW198941   7.423  13.325   7.491
32348SOL    HW298942   7.488  13.459   7.465
32349SOL     OW98943   0.402   0.958   9.594
32349SOL    HW198944   0.406   1.054   9.592
32349SOL    HW298945   0.341   0.939   9.666
32350SOL     OW98946   9.056  11.447  12.081
32350SOL    HW198947   9.056  11.530  12.034
32350SOL    HW298948   8.994  11.393  12.034
32351SOL     OW98949   3.283  13.162   1.237
32351SOL    HW198950   3.268  13.186   1.328
32351SOL    HW298951   3.340  13.231   1.203
32352SOL     OW98952   8.768   6.698   3.095
32352SOL    HW198953   8.714   6.650   3.158
32352SOL    HW298954   8.830   6.747   3.149
32353SOL     OW98955  11.047   9.910  11.642
32353SOL    HW198956  10.968   9.901  11.588
32353SOL    HW298957  11.099   9.832  11.620
32354SOL     OW98958   5.417   2.924   1.623
32354SOL    HW198959   5.471   2.915   1.701
32354SOL    HW298960   5.340   2.871   1.641
32355SOL     OW98961  10.618   3.756   7.731
32355SOL    HW198962  10.612   3.836   7.679
32355SOL    HW298963  10.674   3.698   7.680
32356SOL     OW98964   9.179   6.651  13.481
32356SOL    HW198965   9.117   6.713  13.442
32356SOL    HW298966   9.258   6.660  13.429
32357SOL     OW98967  10.361  14.674   5.090
32357SOL    HW198968  10.349  14.580   5.102
32357SOL    HW298969  10.304  14.697   5.017
32358SOL     OW98970   9.298   4.888  10.884
32358SOL    HW198971   9.377   4.912  10.836
32358SOL    HW298972   9.329   4.836  10.958
32359SOL     OW98973  11.408  14.358   5.423
32359SOL    HW198974  11.413  14.330   5.332
32359SOL    HW298975  11.404  14.453   5.419
32360SOL     OW98976   4.758  12.329   2.196
32360SOL    HW198977   4.782  12.316   2.105
32360SOL    HW298978   4.804  12.409   2.222
32361SOL     OW98979   3.114  13.498  11.693
32361SOL    HW198980   3.201  13.458  11.699
32361SOL    HW298981   3.089  13.514  11.784
32362SOL     OW98982   3.196   3.559  10.863
32362SOL    HW198983   3.109   3.528  10.886
32362SOL    HW298984   3.183   3.646  10.827
32363SOL     OW98985   7.070   0.381   9.345
32363SOL    HW198986   7.008   0.386   9.418
32363SOL    HW298987   7.020   0.345   9.272
32364SOL     OW98988   6.760  14.079  14.246
32364SOL    HW198989   6.803  14.029  14.177
32364SOL    HW298990   6.759  14.169  14.214
32365SOL     OW98991   4.037   9.837   9.290
32365SOL    HW198992   4.064   9.823   9.381
32365SOL    HW298993   4.059   9.929   9.273
32366SOL     OW98994   8.319   6.956  10.986
32366SOL    HW198995   8.307   6.867  10.953
32366SOL    HW298996   8.412   6.974  10.974
32367SOL     OW98997  13.059   8.720   4.704
32367SOL    HW198998  13.142   8.673   4.700
32367SOL    HW298999  13.042   8.747   4.614
32368SOL     OW99000  11.305  13.733   6.708
32368SOL    HW199001  11.376  13.743   6.644
32368SOL    HW299002  11.333  13.785   6.783
32369SOL     OW99003   6.979  13.162   6.728
32369SOL    HW199004   6.909  13.097   6.717
32369SOL    HW299005   7.020  13.139   6.811
32370SOL     OW99006  12.267   3.767   6.967
32370SOL    HW199007  12.272   3.739   6.876
32370SOL    HW299008  12.222   3.694   7.011
32371SOL     OW99009   8.821  14.251   5.308
32371SOL    HW199010   8.726  14.244   5.316
32371SOL    HW299011   8.847  14.305   5.382
32372SOL     OW99012   2.168   9.768   6.777
32372SOL    HW199013   2.076   9.776   6.751
32372SOL    HW299014   2.172   9.807   6.864
32373SOL     OW99015   5.362   5.534   4.602
32373SOL    HW199016   5.341   5.606   4.662
32373SOL    HW299017   5.301   5.465   4.627
32374SOL     OW99018   3.795  12.830  12.772
32374SOL    HW199019   3.710  12.801  12.738
32374SOL    HW299020   3.832  12.753  12.814
32375SOL     OW99021  12.732   6.407  12.896
32375SOL    HW199022  12.731   6.374  12.806
32375SOL    HW299023  12.817   6.378  12.931
32376SOL     OW99024  13.996   5.974   1.315
32376SOL    HW199025  14.021   5.896   1.364
32376SOL    HW299026  14.077   6.024   1.304
32377SOL     OW99027  11.518  13.042   4.274
32377SOL    HW199028  11.432  13.021   4.237
32377SOL    HW299029  11.539  12.969   4.332
32378SOL     OW99030   5.957  11.738   4.538
32378SOL    HW199031   5.931  11.817   4.584
32378SOL    HW299032   6.052  11.732   4.552
32379SOL     OW99033   6.155  13.865   4.067
32379SOL    HW199034   6.237  13.885   4.111
32379SOL    HW299035   6.158  13.770   4.053
32380SOL     OW99036   1.963  10.639   4.176
32380SOL    HW199037   2.043  10.624   4.227
32380SOL    HW299038   1.991  10.629   4.085
32381SOL     OW99039   0.910   6.063   7.535
32381SOL    HW199040   0.981   6.112   7.577
32381SOL    HW299041   0.951   5.983   7.503
32382SOL     OW99042   3.788   4.521  11.494
32382SOL    HW199043   3.864   4.579  11.485
32382SOL    HW299044   3.728   4.569  11.550
32383SOL     OW99045   7.463   4.277  12.869
32383SOL    HW199046   7.544   4.300  12.914
32383SOL    HW299047   7.491   4.234  12.789
32384SOL     OW99048   8.304  12.357   2.581
32384SOL    HW199049   8.304  12.429   2.644
32384SOL    HW299050   8.223  12.369   2.531
32385SOL     OW99051   0.608  14.332   8.490
32385SOL    HW199052   0.561  14.391   8.431
32385SOL    HW299053   0.676  14.386   8.530
32386SOL     OW99054  13.408   9.712   0.981
32386SOL    HW199055  13.374   9.700   0.892
32386SOL    HW299056  13.334   9.690   1.038
32387SOL     OW99057  11.064  12.398   6.385
32387SOL    HW199058  11.117  12.458   6.333
32387SOL    HW299059  10.974  12.424   6.366
32388SOL     OW99060   1.367   7.231  11.969
32388SOL    HW199061   1.434   7.285  11.926
32388SOL    HW299062   1.415   7.183  12.036
32389SOL     OW99063   5.783  12.321  13.529
32389SOL    HW199064   5.704  12.372  13.512
32389SOL    HW299065   5.758  12.261  13.599
32390SOL     OW99066   9.617  13.059  13.978
32390SOL    HW199067   9.644  13.150  13.994
32390SOL    HW299068   9.643  13.012  14.056
32391SOL     OW99069   5.182  12.730   9.856
32391SOL    HW199070   5.272  12.699   9.844
32391SOL    HW299071   5.152  12.687   9.936
32392SOL     OW99072   8.014   8.887   6.762
32392SOL    HW199073   8.071   8.811   6.749
32392SOL    HW299074   8.013   8.901   6.857
32393SOL     OW99075   6.964   0.453  13.766
32393SOL    HW199076   6.921   0.530  13.729
32393SOL    HW299077   7.057   0.465  13.746
32394SOL     OW99078  13.061  10.874  13.146
32394SOL    HW199079  13.022  10.832  13.069
32394SOL    HW299080  13.140  10.916  13.112
32395SOL     OW99081  14.699   7.302   0.144
32395SOL    HW199082  14.669   7.330   0.057
32395SOL    HW299083  14.670   7.211   0.151
32396SOL     OW99084   0.940   7.753  11.133
32396SOL    HW199085   1.004   7.815  11.167
32396SOL    HW299086   0.948   7.759  11.038
32397SOL     OW99087   3.314  14.562  13.505
32397SOL    HW199088   3.314  14.615  13.585
32397SOL    HW299089   3.275  14.620  13.439
32398SOL     OW99090  13.297   4.470   1.055
32398SOL    HW199091  13.211   4.445   1.020
32398SOL    HW299092  13.301   4.428   1.141
32399SOL     OW99093   0.608  11.381   0.885
32399SOL    HW199094   0.605  11.327   0.805
32399SOL    HW299095   0.518  11.413   0.895
32400SOL     OW99096   9.882  13.714  11.848
32400SOL    HW199097   9.817  13.680  11.909
32400SOL    HW299098   9.937  13.771  11.901
32401SOL     OW99099  13.451  12.424   0.820
32401SOL    HW199100  13.415  12.511   0.799
32401SOL    HW299101  13.488  12.435   0.908
32402SOL     OW99102   5.565   7.527   9.060
32402SOL    HW199103   5.574   7.439   9.097
32402SOL    HW299104   5.566   7.513   8.966
32403SOL     OW99105   5.170   7.968  10.735
32403SOL    HW199106   5.161   7.875  10.718
32403SOL    HW299107   5.087   7.993  10.777
32404SOL     OW99108  14.681   6.153   8.907
32404SOL    HW199109  14.650   6.115   8.825
32404SOL    HW299110  14.748   6.092   8.937
32405SOL     OW99111  13.292  14.687   3.521
32405SOL    HW199112  13.198  14.674   3.532
32405SOL    HW299113  13.303  14.782   3.522
32406SOL     OW99114   7.646   6.928   1.787
32406SOL    HW199115   7.611   7.013   1.758
32406SOL    HW299116   7.665   6.881   1.706
32407SOL     OW99117   7.912  11.551   2.392
32407SOL    HW199118   7.848  11.520   2.457
32407SOL    HW299119   7.964  11.473   2.372
32408SOL     OW99120   1.350  12.260  14.057
32408SOL    HW199121   1.294  12.335  14.032
32408SOL    HW299122   1.436  12.299  14.072
32409SOL     OW99123   8.135  11.984   7.845
32409SOL    HW199124   8.126  12.067   7.892
32409SOL    HW299125   8.053  11.938   7.863
32410SOL     OW99126   8.719  11.215   5.564
32410SOL    HW199127   8.790  11.210   5.500
32410SOL    HW299128   8.726  11.135   5.615
32411SOL     OW99129   9.909   0.820   9.775
32411SOL    HW199130   9.889   0.728   9.758
32411SOL    HW299131   9.998   0.833   9.743
32412SOL     OW99132   2.493  11.746   0.379
32412SOL    HW199133   2.448  11.732   0.463
32412SOL    HW299134   2.579  11.781   0.404
32413SOL     OW99135  10.884  11.242  13.810
32413SOL    HW199136  10.887  11.188  13.889
32413SOL    HW299137  10.870  11.179  13.739
32414SOL     OW99138   0.272   9.967   0.030
32414SOL    HW199139   0.194   9.979  14.856
32414SOL    HW299140   0.280   9.872   0.041
32415SOL     OW99141   9.864  11.707  12.122
32415SOL    HW199142   9.806  11.632  12.112
32415SOL    HW299143   9.940  11.686  12.068
32416SOL     OW99144   4.219   5.508   6.355
32416SOL    HW199145   4.285   5.473   6.295
32416SOL    HW299146   4.269   5.560   6.418
32417SOL     OW99147   2.668   4.961  12.588
32417SOL    HW199148   2.727   4.935  12.658
32417SOL    HW299149   2.644   5.051  12.608
32418SOL     OW99150   3.939  10.542   8.793
32418SOL    HW199151   3.896  10.460   8.770
32418SOL    HW299152   3.973  10.528   8.881
32419SOL     OW99153   6.226   9.909   8.283
32419SOL    HW199154   6.300   9.890   8.225
32419SOL    HW299155   6.257   9.980   8.339
32420SOL     OW99156   0.464  12.605  12.045
32420SOL    HW199157   0.496  12.623  12.134
32420SOL    HW299158   0.492  12.515  12.027
32421SOL     OW99159   3.439   3.590   3.484
32421SOL    HW199160   3.454   3.664   3.425
32421SOL    HW299161   3.495   3.607   3.559
32422SOL     OW99162  13.050   5.082   8.764
32422SOL    HW199163  12.991   5.018   8.802
32422SOL    HW299164  13.021   5.166   8.798
32423SOL     OW99165   2.569   9.562   8.441
32423SOL    HW199166   2.594   9.608   8.522
32423SOL    HW299167   2.517   9.626   8.393
32424SOL     OW99168   7.852  11.904   3.879
32424SOL    HW199169   7.795  11.963   3.928
32424SOL    HW299170   7.791  11.844   3.834
32425SOL     OW99171   6.826   4.906   3.554
32425SOL    HW199172   6.897   4.852   3.590
32425SOL    HW299173   6.758   4.904   3.620
32426SOL     OW99174  11.030   5.684   3.715
32426SOL    HW199175  11.050   5.630   3.792
32426SOL    HW299176  11.107   5.676   3.660
32427SOL     OW99177   7.849   5.515   2.032
32427SOL    HW199178   7.841   5.420   2.043
32427SOL    HW299179   7.784   5.536   1.965
32428SOL     OW99180  13.153   2.694   6.433
32428SOL    HW199181  13.125   2.784   6.421
32428SOL    HW299182  13.247   2.695   6.414
32429SOL     OW99183   4.820   5.856  14.821
32429SOL    HW199184   4.903   5.904  14.825
32429SOL    HW299185   4.827   5.802  14.742
32430SOL     OW99186   6.795   3.703   2.391
32430SOL    HW199187   6.744   3.764   2.444
32430SOL    HW299188   6.751   3.619   2.402
32431SOL     OW99189   2.345   7.838   8.628
32431SOL    HW199190   2.389   7.768   8.675
32431SOL    HW299191   2.395   7.917   8.650
32432SOL     OW99192   6.941   8.605   3.863
32432SOL    HW199193   6.930   8.522   3.910
32432SOL    HW299194   6.921   8.584   3.772
32433SOL     OW99195  13.066   2.582   9.636
32433SOL    HW199196  13.075   2.585   9.731
32433SOL    HW299197  12.982   2.624   9.618
32434SOL     OW99198  12.536   6.681   3.940
32434SOL    HW199199  12.472   6.742   3.977
32434SOL    HW299200  12.539   6.610   4.004
32435SOL     OW99201   3.283   8.470  11.021
32435SOL    HW199202   3.338   8.391  11.025
32435SOL    HW299203   3.225   8.461  11.097
32436SOL     OW99204   0.325   6.298   1.213
32436SOL    HW199205   0.275   6.316   1.293
32436SOL    HW299206   0.287   6.357   1.147
32437SOL     OW99207   8.106   6.299   4.655
32437SOL    HW199208   8.035   6.246   4.691
32437SOL    HW299209   8.078   6.389   4.670
32438SOL     OW99210   2.043  12.162  11.925
32438SOL    HW199211   2.124  12.159  11.874
32438SOL    HW299212   2.048  12.244  11.974
32439SOL     OW99213   3.455  12.853   6.625
32439SOL    HW199214   3.478  12.904   6.547
32439SOL    HW299215   3.360  12.859   6.630
32440SOL     OW99216  12.512   3.835   4.510
32440SOL    HW199217  12.463   3.834   4.428
32440SOL    HW299218  12.582   3.898   4.496
32441SOL     OW99219   7.332  12.671   2.299
32441SOL    HW199220   7.328  12.639   2.388
32441SOL    HW299221   7.426  12.679   2.280
32442SOL     OW99222  14.573   9.597  13.250
32442SOL    HW199223  14.520   9.677  13.254
32442SOL    HW299224  14.536   9.541  13.318
32443SOL     OW99225   6.821   3.229  14.092
32443SOL    HW199226   6.759   3.299  14.071
32443SOL    HW299227   6.822   3.226  14.187
32444SOL     OW99228   6.192  11.565   3.338
32444SOL    HW199229   6.148  11.635   3.291
32444SOL    HW299230   6.138  11.487   3.322
32445SOL     OW99231   2.421  13.225   7.128
32445SOL    HW199232   2.485  13.249   7.060
32445SOL    HW299233   2.338  13.221   7.081
32446SOL     OW99234   0.689   1.701   0.660
32446SOL    HW199235   0.605   1.734   0.628
32446SOL    HW299236   0.745   1.779   0.664
32447SOL     OW99237  11.931   1.225   5.308
32447SOL    HW199238  11.907   1.254   5.396
32447SOL    HW299239  11.993   1.292   5.278
32448SOL     OW99240   0.109  11.068  10.537
32448SOL    HW199241   0.131  10.975  10.544
32448SOL    HW299242   0.169  11.112  10.598
32449SOL     OW99243   2.555   3.988   7.841
32449SOL    HW199244   2.562   3.924   7.912
32449SOL    HW299245   2.510   3.940   7.771
32450SOL     OW99246   3.349   0.229  13.042
32450SOL    HW199247   3.395   0.156  13.002
32450SOL    HW299248   3.378   0.230  13.133
32451SOL     OW99249   7.612   9.941   6.806
32451SOL    HW199250   7.663   9.882   6.751
32451SOL    HW299251   7.642   9.923   6.895
32452SOL     OW99252   8.783   5.945   1.243
32452SOL    HW199253   8.780   5.966   1.337
32452SOL    HW299254   8.846   6.007   1.207
32453SOL     OW99255  14.418   8.970   9.159
32453SOL    HW199256  14.441   8.898   9.099
32453SOL    HW299257  14.441   8.937   9.246
32454SOL     OW99258   2.413  12.381   1.590
32454SOL    HW199259   2.373  12.464   1.614
32454SOL    HW299260   2.429  12.337   1.674
32455SOL     OW99261   0.089   4.892   6.049
32455SOL    HW199262   0.062   4.914   6.138
32455SOL    HW299263   0.151   4.961   6.026
32456SOL     OW99264   7.066  11.724   6.283
32456SOL    HW199265   7.135  11.711   6.218
32456SOL    HW299266   6.993  11.761   6.232
32457SOL     OW99267   5.269   9.940  13.551
32457SOL    HW199268   5.301  10.030  13.538
32457SOL    HW299269   5.317   9.909  13.627
32458SOL     OW99270   7.656  12.421   0.685
32458SOL    HW199271   7.605  12.490   0.728
32458SOL    HW299272   7.592  12.372   0.634
32459SOL     OW99273   5.919  11.762   7.043
32459SOL    HW199274   5.867  11.791   7.118
32459SOL    HW299275   5.958  11.841   7.008
32460SOL     OW99276   2.610   1.148  13.146
32460SOL    HW199277   2.587   1.227  13.194
32460SOL    HW299278   2.597   1.171  13.054
32461SOL     OW99279   7.479   5.657  12.147
32461SOL    HW199280   7.572   5.641  12.166
32461SOL    HW299281   7.463   5.609  12.065
32462SOL     OW99282   9.480  10.695   6.100
32462SOL    HW199283   9.511  10.780   6.131
32462SOL    HW299284   9.556  10.637   6.104
32463SOL     OW99285  14.348   9.095   1.496
32463SOL    HW199286  14.274   9.125   1.445
32463SOL    HW299287  14.424   9.112   1.441
32464SOL     OW99288   5.675   2.419   2.131
32464SOL    HW199289   5.609   2.365   2.175
32464SOL    HW299290   5.733   2.356   2.089
32465SOL     OW99291  13.600  11.276   2.708
32465SOL    HW199292  13.694  11.267   2.722
32465SOL    HW299293  13.579  11.363   2.741
32466SOL     OW99294  10.083   5.173   1.398
32466SOL    HW199295  10.108   5.122   1.322
32466SOL    HW299296  10.165   5.214   1.427
32467SOL     OW99297  12.142   2.991  14.197
32467SOL    HW199298  12.133   3.077  14.157
32467SOL    HW299299  12.237   2.978  14.205
32468SOL     OW99300   3.684   6.686   0.034
32468SOL    HW199301   3.604   6.738   0.021
32468SOL    HW299302   3.710   6.660  14.826
32469SOL     OW99303   6.528   7.096  11.931
32469SOL    HW199304   6.479   7.018  11.956
32469SOL    HW299305   6.531   7.093  11.835
32470SOL     OW99306  12.424   4.929   1.683
32470SOL    HW199307  12.423   4.874   1.761
32470SOL    HW299308  12.467   5.010   1.710
32471SOL     OW99309   0.368  10.249  12.676
32471SOL    HW199310   0.386  10.169  12.626
32471SOL    HW299311   0.435  10.311  12.648
32472SOL     OW99312   5.159   7.933   4.640
32472SOL    HW199313   5.132   8.022   4.620
32472SOL    HW299314   5.078   7.886   4.657
32473SOL     OW99315  12.775   8.550   4.239
32473SOL    HW199316  12.703   8.491   4.218
32473SOL    HW299317  12.733   8.629   4.272
32474SOL     OW99318   7.413  13.285  10.152
32474SOL    HW199319   7.420  13.191  10.164
32474SOL    HW299320   7.472  13.322  10.217
32475SOL     OW99321   6.256   5.916  12.555
32475SOL    HW199322   6.242   6.004  12.591
32475SOL    HW299323   6.172   5.894  12.513
32476SOL     OW99324  11.113  13.106   4.672
32476SOL    HW199325  11.053  13.036   4.700
32476SOL    HW299326  11.118  13.096   4.577
32477SOL     OW99327   1.948   9.017   0.318
32477SOL    HW199328   1.870   8.968   0.291
32477SOL    HW299329   1.917   9.078   0.385
32478SOL     OW99330   2.878   7.383   6.905
32478SOL    HW199331   2.876   7.308   6.963
32478SOL    HW299332   2.956   7.432   6.932
32479SOL     OW99333   9.373   6.132   7.741
32479SOL    HW199334   9.389   6.045   7.777
32479SOL    HW299335   9.353   6.117   7.649
32480SOL     OW99336  11.585   9.105   0.021
32480SOL    HW199337  11.524   9.167   0.061
32480SOL    HW299338  11.644   9.081   0.093
32481SOL     OW99339   3.240   2.286  10.104
32481SOL    HW199340   3.265   2.300  10.196
32481SOL    HW299341   3.164   2.342  10.091
32482SOL     OW99342   5.999   3.790   5.000
32482SOL    HW199343   5.990   3.714   5.057
32482SOL    HW299344   5.911   3.805   4.965
32483SOL     OW99345   2.251   9.732   4.824
32483SOL    HW199346   2.265   9.648   4.866
32483SOL    HW299347   2.163   9.727   4.788
32484SOL     OW99348   1.755   6.797   7.244
32484SOL    HW199349   1.769   6.824   7.335
32484SOL    HW299350   1.720   6.709   7.250
32485SOL     OW99351   0.423   6.557   9.401
32485SOL    HW199352   0.456   6.636   9.445
32485SOL    HW299353   0.400   6.498   9.473
32486SOL     OW99354   9.336   1.280   1.155
32486SOL    HW199355   9.416   1.322   1.125
32486SOL    HW299356   9.268   1.347   1.147
32487SOL     OW99357   1.230   6.595   5.666
32487SOL    HW199358   1.150   6.605   5.717
32487SOL    HW299359   1.297   6.640   5.718
32488SOL     OW99360   4.686   4.043   2.904
32488SOL    HW199361   4.621   3.987   2.861
32488SOL    HW299362   4.757   4.051   2.841
32489SOL     OW99363   0.352   2.573  10.458
32489SOL    HW199364   0.288   2.502  10.466
32489SOL    HW299365   0.434   2.529  10.438
32490SOL     OW99366   1.937  10.431   1.824
32490SOL    HW199367   1.884  10.353   1.841
32490SOL    HW299368   1.974  10.417   1.737
32491SOL     OW99369  11.814  10.498  10.654
32491SOL    HW199370  11.797  10.487  10.748
32491SOL    HW299371  11.893  10.448  10.638
32492SOL     OW99372  14.192   0.865  11.345
32492SOL    HW199373  14.173   0.825  11.260
32492SOL    HW299374  14.112   0.855  11.395
32493SOL     OW99375   5.354  13.698   2.152
32493SOL    HW199376   5.324  13.695   2.061
32493SOL    HW299377   5.277  13.724   2.202
32494SOL     OW99378   2.024   6.031   5.309
32494SOL    HW199379   2.071   5.964   5.260
32494SOL    HW299380   1.936   5.994   5.323
32495SOL     OW99381   3.206   7.776  11.823
32495SOL    HW199382   3.222   7.862  11.862
32495SOL    HW299383   3.194   7.717  11.898
32496SOL     OW99384   1.849  10.646   1.209
32496SOL    HW199385   1.764  10.691   1.214
32496SOL    HW299386   1.911  10.706   1.250
32497SOL     OW99387  12.126   3.217   9.874
32497SOL    HW199388  12.106   3.282   9.806
32497SOL    HW299389  12.083   3.137   9.844
32498SOL     OW99390  12.065  12.375   2.723
32498SOL    HW199391  12.107  12.429   2.790
32498SOL    HW299392  11.981  12.418   2.708
32499SOL     OW99393   8.995  14.084   2.464
32499SOL    HW199394   8.940  14.132   2.525
32499SOL    HW299395   9.008  13.998   2.506
32500SOL     OW99396  12.342   7.985   2.202
32500SOL    HW199397  12.386   8.061   2.241
32500SOL    HW299398  12.291   7.948   2.274
32501SOL     OW99399  12.908  14.797   7.006
32501SOL    HW199400  12.959  14.718   6.985
32501SOL    HW299401  12.962  14.845   7.068
32502SOL     OW99402  11.217  12.288  12.876
32502SOL    HW199403  11.171  12.214  12.915
32502SOL    HW299404  11.255  12.252  12.795
32503SOL     OW99405  11.113   2.584  14.736
32503SOL    HW199406  11.054   2.509  14.746
32503SOL    HW299407  11.090   2.621  14.651
32504SOL     OW99408   1.049   4.897   5.876
32504SOL    HW199409   1.008   4.813   5.858
32504SOL    HW299410   1.085   4.925   5.792
32505SOL     OW99411  11.322  11.817  12.350
32505SOL    HW199412  11.286  11.805  12.262
32505SOL    HW299413  11.416  11.829  12.336
32506SOL     OW99414   5.547   1.980   8.553
32506SOL    HW199415   5.638   1.969   8.579
32506SOL    HW299416   5.551   2.019   8.465
32507SOL     OW99417   0.307   8.419  10.054
32507SOL    HW199418   0.329   8.423  10.147
32507SOL    HW299419   0.366   8.481  10.012
32508SOL     OW99420   8.757  13.312   7.929
32508SOL    HW199421   8.771  13.285   8.020
32508SOL    HW299422   8.725  13.233   7.885
32509SOL     OW99423   9.881   2.617   7.811
32509SOL    HW199424   9.793   2.608   7.848
32509SOL    HW299425   9.917   2.528   7.813
32510SOL     OW99426   7.955   8.635   8.636
32510SOL    HW199427   7.925   8.605   8.551
32510SOL    HW299428   7.954   8.557   8.691
32511SOL     OW99429   1.261  13.213   4.233
32511SOL    HW199430   1.237  13.214   4.141
32511SOL    HW299431   1.180  13.232   4.280
32512SOL     OW99432   6.010   9.764  11.256
32512SOL    HW199433   5.932   9.801  11.298
32512SOL    HW299434   6.023   9.679  11.297
32513SOL     OW99435   5.591   0.965   5.566
32513SOL    HW199436   5.542   0.917   5.633
32513SOL    HW299437   5.659   0.905   5.538
32514SOL     OW99438   4.520   5.317   3.095
32514SOL    HW199439   4.610   5.349   3.100
32514SOL    HW299440   4.502   5.309   3.001
32515SOL     OW99441   7.674  13.098   1.727
32515SOL    HW199442   7.677  13.023   1.787
32515SOL    HW299443   7.610  13.158   1.767
32516SOL     OW99444   1.878   5.420   5.878
32516SOL    HW199445   1.958   5.400   5.829
32516SOL    HW299446   1.890   5.509   5.909
32517SOL     OW99447  13.449   0.864   3.328
32517SOL    HW199448  13.391   0.885   3.401
32517SOL    HW299449  13.390   0.851   3.254
32518SOL     OW99450   9.782   0.416   3.945
32518SOL    HW199451   9.715   0.484   3.956
32518SOL    HW299452   9.750   0.342   3.996
32519SOL     OW99453   3.634   1.936   2.656
32519SOL    HW199454   3.640   1.849   2.616
32519SOL    HW299455   3.628   1.996   2.583
32520SOL     OW99456   1.280   3.287  11.267
32520SOL    HW199457   1.231   3.206  11.255
32520SOL    HW299458   1.372   3.260  11.265
32521SOL     OW99459  13.898   0.052   6.074
32521SOL    HW199460  13.978   0.005   6.098
32521SOL    HW299461  13.887   0.116   6.145
32522SOL     OW99462   5.484  12.176  12.839
32522SOL    HW199463   5.560  12.129  12.804
32522SOL    HW299464   5.516  12.266  12.853
32523SOL     OW99465   3.608   6.001   7.663
32523SOL    HW199466   3.526   5.984   7.710
32523SOL    HW299467   3.661   5.923   7.679
32524SOL     OW99468   2.399   9.239   1.663
32524SOL    HW199469   2.325   9.236   1.724
32524SOL    HW299470   2.402   9.152   1.624
32525SOL     OW99471  12.457   7.107  14.296
32525SOL    HW199472  12.409   7.054  14.232
32525SOL    HW299473  12.513   7.044  14.342
32526SOL     OW99474  12.660   4.003   1.083
32526SOL    HW199475  12.666   3.941   1.156
32526SOL    HW299476  12.613   4.078   1.119
32527SOL     OW99477   0.556  11.912  12.061
32527SOL    HW199478   0.560  11.886  12.153
32527SOL    HW299479   0.514  11.998  12.061
32528SOL     OW99480   1.878   2.720   5.767
32528SOL    HW199481   1.935   2.655   5.809
32528SOL    HW299482   1.798   2.719   5.820
32529SOL     OW99483  14.796  13.434   3.194
32529SOL    HW199484  14.730  13.387   3.144
32529SOL    HW299485  14.830  13.500   3.133
32530SOL     OW99486   2.793   9.818   1.148
32530SOL    HW199487   2.716   9.769   1.122
32530SOL    HW299488   2.849   9.818   1.070
32531SOL     OW99489   8.607   4.435   2.419
32531SOL    HW199490   8.628   4.450   2.327
32531SOL    HW299491   8.640   4.347   2.437
32532SOL     OW99492  13.325   5.137   8.968
32532SOL    HW199493  13.328   5.083   8.889
32532SOL    HW299494  13.266   5.089   9.027
32533SOL     OW99495   4.120   2.253   5.600
32533SOL    HW199496   4.185   2.319   5.578
32533SOL    HW299497   4.172   2.179   5.632
32534SOL     OW99498   1.608  12.103  14.783
32534SOL    HW199499   1.634  12.128  14.872
32534SOL    HW299500   1.513  12.097  14.787
32535SOL     OW99501  14.810  13.481   5.379
32535SOL    HW199502  14.754  13.514   5.309
32535SOL    HW299503  14.761  13.499   5.459
32536SOL     OW99504  12.248   2.166   9.737
32536SOL    HW199505  12.226   2.247   9.690
32536SOL    HW299506  12.228   2.096   9.676
32537SOL     OW99507  10.639   3.995   5.351
32537SOL    HW199508  10.694   4.044   5.290
32537SOL    HW299509  10.645   4.044   5.433
32538SOL     OW99510  11.178   3.284   0.127
32538SOL    HW199511  11.262   3.240   0.140
32538SOL    HW299512  11.143   3.297   0.215
32539SOL     OW99513   3.317   9.525   4.888
32539SOL    HW199514   3.353   9.452   4.938
32539SOL    HW299515   3.304   9.489   4.800
32540SOL     OW99516   5.934   7.173  13.752
32540SOL    HW199517   5.903   7.239  13.689
32540SOL    HW299518   5.881   7.187  13.830
32541SOL     OW99519   0.984  12.966   7.950
32541SOL    HW199520   0.973  12.895   8.014
32541SOL    HW299521   0.929  12.940   7.876
32542SOL     OW99522   7.074   9.518  11.793
32542SOL    HW199523   7.081   9.611  11.771
32542SOL    HW299524   7.008   9.484  11.734
32543SOL     OW99525   8.129  13.981  14.182
32543SOL    HW199526   8.171  13.989  14.267
32543SOL    HW299527   8.125  13.886  14.166
32544SOL     OW99528   0.747   9.112  10.141
32544SOL    HW199529   0.779   9.159  10.218
32544SOL    HW299530   0.798   9.031  10.139
32545SOL     OW99531   3.396   9.958   2.334
32545SOL    HW199532   3.345   9.959   2.415
32545SOL    HW299533   3.360   9.885   2.284
32546SOL     OW99534   3.550   4.364  10.618
32546SOL    HW199535   3.474   4.382  10.562
32546SOL    HW299536   3.554   4.438  10.678
32547SOL     OW99537   0.746   6.880   1.770
32547SOL    HW199538   0.819   6.916   1.719
32547SOL    HW299539   0.774   6.886   1.861
32548SOL     OW99540  10.276   3.706  12.067
32548SOL    HW199541  10.337   3.634  12.081
32548SOL    HW299542  10.192   3.663  12.047
32549SOL     OW99543   4.824   0.536   6.410
32549SOL    HW199544   4.767   0.591   6.463
32549SOL    HW299545   4.781   0.451   6.407
32550SOL     OW99546   0.627  14.665  13.012
32550SOL    HW199547   0.606  14.717  12.934
32550SOL    HW299548   0.707  14.704  13.046
32551SOL     OW99549   9.810  14.852   5.891
32551SOL    HW199550   9.720  14.850   5.857
32551SOL    HW299551   9.865  14.852   5.814
32552SOL     OW99552  11.388  10.012   2.046
32552SOL    HW199553  11.473   9.986   2.009
32552SOL    HW299554  11.328   9.943   2.021
32553SOL     OW99555   5.386  13.190   5.173
32553SOL    HW199556   5.347  13.117   5.124
32553SOL    HW299557   5.313  13.249   5.190
32554SOL     OW99558   4.303   5.112  12.219
32554SOL    HW199559   4.244   5.048  12.179
32554SOL    HW299560   4.303   5.186  12.158
32555SOL     OW99561  12.876   6.926   8.882
32555SOL    HW199562  12.865   6.836   8.850
32555SOL    HW299563  12.822   6.930   8.961
32556SOL     OW99564   7.550   2.993   3.042
32556SOL    HW199565   7.605   3.010   3.118
32556SOL    HW299566   7.530   2.899   3.047
32557SOL     OW99567   2.781   9.194  10.299
32557SOL    HW199568   2.769   9.278  10.344
32557SOL    HW299569   2.761   9.129  10.367
32558SOL     OW99570   2.742   8.583  14.826
32558SOL    HW199571   2.671   8.581   0.010
32558SOL    HW299572   2.793   8.504  14.843
32559SOL     OW99573   4.235   6.954  14.001
32559SOL    HW199574   4.197   6.955  14.089
32559SOL    HW299575   4.215   6.867  13.967
32560SOL     OW99576   8.438   5.777   1.753
32560SOL    HW199577   8.521   5.811   1.787
32560SOL    HW299578   8.458   5.689   1.723
32561SOL     OW99579   3.970   1.270  14.530
32561SOL    HW199580   3.985   1.243  14.621
32561SOL    HW299581   3.989   1.363  14.528
32562SOL     OW99582   5.659   0.854  11.887
32562SOL    HW199583   5.683   0.947  11.888
32562SOL    HW299584   5.735   0.811  11.849
32563SOL     OW99585   1.496   4.444   6.665
32563SOL    HW199586   1.407   4.438   6.630
32563SOL    HW299587   1.502   4.534   6.698
32564SOL     OW99588   2.273   9.646   9.963
32564SOL    HW199589   2.240   9.562   9.933
32564SOL    HW299590   2.317   9.684   9.887
32565SOL     OW99591  11.786  11.660   5.850
32565SOL    HW199592  11.767  11.661   5.756
32565SOL    HW299593  11.741  11.738   5.884
32566SOL     OW99594   7.177   8.042   6.383
32566SOL    HW199595   7.169   8.043   6.288
32566SOL    HW299596   7.087   8.047   6.415
32567SOL     OW99597   4.534  14.364  13.341
32567SOL    HW199598   4.599  14.427  13.371
32567SOL    HW299599   4.456  14.416  13.321
32568SOL     OW99600  14.035  11.271   7.348
32568SOL    HW199601  13.970  11.202   7.363
32568SOL    HW299602  14.078  11.245   7.266
32569SOL     OW99603   9.829   5.287  14.528
32569SOL    HW199604   9.739   5.317  14.535
32569SOL    HW299605   9.876   5.359  14.487
32570SOL     OW99606  11.206   2.231  12.831
32570SOL    HW199607  11.198   2.137  12.847
32570SOL    HW299608  11.300   2.249  12.837
32571SOL     OW99609  10.503   7.049   1.207
32571SOL    HW199610  10.504   7.127   1.262
32571SOL    HW299611  10.476   6.978   1.266
32572SOL     OW99612  13.082   6.947   7.776
32572SOL    HW199613  13.173   6.968   7.755
32572SOL    HW299614  13.074   6.969   7.869
32573SOL     OW99615  14.452   5.353  10.795
32573SOL    HW199616  14.427   5.423  10.855
32573SOL    HW299617  14.474   5.397  10.713
32574SOL     OW99618  11.484  12.127  13.756
32574SOL    HW199619  11.389  12.127  13.748
32574SOL    HW299620  11.512  12.043  13.720
32575SOL     OW99621   4.793  14.585  14.116
32575SOL    HW199622   4.866  14.548  14.065
32575SOL    HW299623   4.715  14.566  14.064
32576SOL     OW99624   0.765   5.780   7.722
32576SOL    HW199625   0.773   5.843   7.794
32576SOL    HW299626   0.736   5.832   7.647
32577SOL     OW99627   5.706   1.230   7.340
32577SOL    HW199628   5.747   1.163   7.285
32577SOL    HW299629   5.615   1.234   7.309
32578SOL     OW99630   6.283  12.077   9.005
32578SOL    HW199631   6.348  12.034   8.949
32578SOL    HW299632   6.236  12.005   9.047
32579SOL     OW99633   7.969   5.126  14.129
32579SOL    HW199634   8.026   5.093  14.199
32579SOL    HW299635   8.010   5.093  14.048
32580SOL     OW99636  12.268   9.782  13.235
32580SOL    HW199637  12.348   9.779  13.287
32580SOL    HW299638  12.260   9.874  13.209
32581SOL     OW99639   7.569   3.247  13.476
32581SOL    HW199640   7.557   3.337  13.507
32581SOL    HW299641   7.569   3.194  13.555
32582SOL     OW99642   9.956   9.389   6.042
32582SOL    HW199643   9.914   9.451   6.102
32582SOL    HW299644   9.916   9.304   6.063
32583SOL     OW99645  13.304  14.473   7.731
32583SOL    HW199646  13.383  14.506   7.688
32583SOL    HW299647  13.239  14.542   7.718
32584SOL     OW99648  12.522   8.177   4.843
32584SOL    HW199649  12.478   8.260   4.857
32584SOL    HW299650  12.458   8.111   4.870
32585SOL     OW99651  10.766   7.616   8.950
32585SOL    HW199652  10.813   7.582   8.874
32585SOL    HW299653  10.762   7.542   9.010
32586SOL     OW99654   3.181  12.505  10.514
32586SOL    HW199655   3.108  12.445  10.503
32586SOL    HW299656   3.181  12.525  10.608
32587SOL     OW99657   0.371   3.520   5.062
32587SOL    HW199658   0.288   3.545   5.102
32587SOL    HW299659   0.391   3.434   5.099
32588SOL     OW99660  10.324  13.840  13.521
32588SOL    HW199661  10.367  13.755  13.507
32588SOL    HW299662  10.375  13.883  13.589
32589SOL     OW99663   7.728   8.094  11.453
32589SOL    HW199664   7.645   8.069  11.413
32589SOL    HW299665   7.746   8.181  11.416
32590SOL     OW99666  12.789   6.837  13.142
32590SOL    HW199667  12.876   6.816  13.110
32590SOL    HW299668  12.730   6.816  13.070
32591SOL     OW99669   1.053  11.822   4.078
32591SOL    HW199670   1.032  11.738   4.121
32591SOL    HW299671   1.041  11.805   3.985
32592SOL     OW99672  12.510   6.599  14.735
32592SOL    HW199673  12.512   6.694  14.749
32592SOL    HW299674  12.602   6.573  14.733
32593SOL     OW99675  13.243   3.764   2.511
32593SOL    HW199676  13.304   3.700   2.549
32593SOL    HW299677  13.167   3.762   2.569
32594SOL     OW99678   0.320  14.245  10.997
32594SOL    HW199679   0.280  14.200  11.070
32594SOL    HW299680   0.268  14.218  10.921
32595SOL     OW99681  11.249   9.109  12.739
32595SOL    HW199682  11.338   9.114  12.774
32595SOL    HW299683  11.231   9.197  12.707
32596SOL     OW99684  11.482  13.177  10.237
32596SOL    HW199685  11.508  13.266  10.214
32596SOL    HW299686  11.400  13.163  10.190
32597SOL     OW99687   8.078   5.819   0.741
32597SOL    HW199688   8.121   5.750   0.792
32597SOL    HW299689   8.134   5.831   0.664
32598SOL     OW99690  11.786   3.491   6.423
32598SOL    HW199691  11.789   3.409   6.374
32598SOL    HW299692  11.751   3.555   6.361
32599SOL     OW99693  10.085   1.376   1.419
32599SOL    HW199694  10.080   1.281   1.412
32599SOL    HW299695  10.097   1.406   1.328
32600SOL     OW99696   2.755   3.060  11.743
32600SOL    HW199697   2.669   3.050  11.783
32600SOL    HW299698   2.817   3.046  11.814
32601SOL     OW99699   2.722   2.187  11.701
32601SOL    HW199700   2.794   2.196  11.638
32601SOL    HW299701   2.700   2.277  11.725
32602SOL     OW99702  12.322   2.799  13.760
32602SOL    HW199703  12.261   2.734  13.794
32602SOL    HW299704  12.320   2.870  13.825
32603SOL     OW99705  12.034   7.222  13.486
32603SOL    HW199706  12.028   7.295  13.548
32603SOL    HW299707  12.111   7.173  13.515
32604SOL     OW99708  12.300   7.537   1.423
32604SOL    HW199709  12.248   7.526   1.504
32604SOL    HW299710  12.360   7.463   1.424
32605SOL     OW99711   9.273   5.638  13.855
32605SOL    HW199712   9.215   5.562  13.864
32605SOL    HW299713   9.331   5.615  13.783
32606SOL     OW99714   5.070  13.663   4.790
32606SOL    HW199715   5.008  13.647   4.860
32606SOL    HW299716   5.063  13.756   4.772
32607SOL     OW99717   1.430   7.696   0.603
32607SOL    HW199718   1.425   7.655   0.689
32607SOL    HW299719   1.435   7.623   0.542
32608SOL     OW99720  10.291   0.211  13.825
32608SOL    HW199721  10.364   0.239  13.770
32608SOL    HW299722  10.240   0.290  13.841
32609SOL     OW99723  11.784  14.779   4.333
32609SOL    HW199724  11.751  14.839   4.267
32609SOL    HW299725  11.717  14.710   4.339
32610SOL     OW99726  12.404   7.837   3.947
32610SOL    HW199727  12.385   7.751   3.983
32610SOL    HW299728  12.357   7.898   4.005
32611SOL     OW99729  11.619  11.995   4.766
32611SOL    HW199730  11.707  12.011   4.732
32611SOL    HW299731  11.620  11.903   4.792
32612SOL     OW99732  10.193   5.650   8.656
32612SOL    HW199733  10.287   5.668   8.646
32612SOL    HW299734  10.157   5.731   8.693
32613SOL     OW99735  13.977   8.361   0.130
32613SOL    HW199736  14.037   8.395   0.063
32613SOL    HW299737  14.030   8.299   0.180
32614SOL     OW99738  13.655   3.551  10.911
32614SOL    HW199739  13.739   3.528  10.871
32614SOL    HW299740  13.602   3.472  10.902
32615SOL     OW99741   5.187   8.783   0.873
32615SOL    HW199742   5.195   8.747   0.785
32615SOL    HW299743   5.278   8.794   0.903
32616SOL     OW99744  14.453   3.404   5.075
32616SOL    HW199745  14.434   3.427   4.984
32616SOL    HW299746  14.403   3.324   5.092
32617SOL     OW99747   8.586   8.167   5.807
32617SOL    HW199748   8.628   8.109   5.743
32617SOL    HW299749   8.649   8.237   5.820
32618SOL     OW99750   1.622  11.294   1.971
32618SOL    HW199751   1.570  11.215   1.986
32618SOL    HW299752   1.570  11.344   1.908
32619SOL     OW99753   2.289   5.390   2.179
32619SOL    HW199754   2.364   5.442   2.149
32619SOL    HW299755   2.212   5.435   2.145
32620SOL     OW99756   1.292   6.630   4.563
32620SOL    HW199757   1.286   6.667   4.651
32620SOL    HW299758   1.212   6.660   4.519
32621SOL     OW99759   6.624   2.503   5.130
32621SOL    HW199760   6.601   2.429   5.185
32621SOL    HW299761   6.553   2.508   5.065
32622SOL     OW99762   7.887   9.084   9.972
32622SOL    HW199763   7.798   9.084  10.006
32622SOL    HW299764   7.893   9.163   9.919
32623SOL     OW99765  10.794  14.373  14.401
32623SOL    HW199766  10.812  14.352  14.493
32623SOL    HW299767  10.699  14.365  14.393
32624SOL     OW99768   6.121  12.250  13.667
32624SOL    HW199769   6.039  12.238  13.715
32624SOL    HW299770   6.114  12.336  13.628
32625SOL     OW99771  12.604  10.021  13.312
32625SOL    HW199772  12.695  10.017  13.282
32625SOL    HW299773  12.607   9.987  13.401
32626SOL     OW99774   6.112   6.568   2.768
32626SOL    HW199775   6.150   6.600   2.850
32626SOL    HW299776   6.162   6.614   2.700
32627SOL     OW99777  13.693   7.044   8.088
32627SOL    HW199778  13.667   7.041   8.180
32627SOL    HW299779  13.775   7.094   8.089
32628SOL     OW99780   7.413   6.412   2.262
32628SOL    HW199781   7.423   6.507   2.260
32628SOL    HW299782   7.401   6.391   2.355
32629SOL     OW99783  12.645   9.151   4.264
32629SOL    HW199784  12.632   9.106   4.180
32629SOL    HW299785  12.572   9.213   4.270
32630SOL     OW99786   5.666   6.287  10.407
32630SOL    HW199787   5.585   6.292  10.458
32630SOL    HW299788   5.688   6.194  10.406
32631SOL     OW99789   2.527   7.500  12.305
32631SOL    HW199790   2.524   7.500  12.209
32631SOL    HW299791   2.436   7.489  12.332
32632SOL     OW99792   6.251   3.870   5.995
32632SOL    HW199793   6.220   3.951   5.954
32632SOL    HW299794   6.173   3.833   6.036
32633SOL     OW99795   4.767   5.857   6.402
32633SOL    HW199796   4.690   5.818   6.362
32633SOL    HW299797   4.839   5.798   6.380
32634SOL     OW99798  13.267   8.621   2.262
32634SOL    HW199799  13.248   8.527   2.261
32634SOL    HW299800  13.245   8.650   2.173
32635SOL     OW99801   5.071   0.413   4.124
32635SOL    HW199802   5.110   0.445   4.205
32635SOL    HW299803   5.110   0.468   4.056
32636SOL     OW99804   1.380   0.237   2.373
32636SOL    HW199805   1.370   0.223   2.467
32636SOL    HW299806   1.360   0.152   2.333
32637SOL     OW99807   8.784   6.955  12.704
32637SOL    HW199808   8.831   6.907  12.772
32637SOL    HW299809   8.691   6.947  12.728
32638SOL     OW99810   2.758   6.391  13.769
32638SOL    HW199811   2.840   6.406  13.722
32638SOL    HW299812   2.781   6.406  13.861
32639SOL     OW99813   3.435   5.570   9.583
32639SOL    HW199814   3.499   5.526   9.638
32639SOL    HW299815   3.408   5.647   9.633
32640SOL     OW99816   1.921   5.193   4.597
32640SOL    HW199817   1.873   5.220   4.519
32640SOL    HW299818   2.007   5.235   4.588
32641SOL     OW99819  13.913   4.669   5.303
32641SOL    HW199820  13.996   4.670   5.256
32641SOL    HW299821  13.866   4.746   5.270
32642SOL     OW99822   8.397  13.615   9.412
32642SOL    HW199823   8.324  13.586   9.358
32642SOL    HW299824   8.404  13.709   9.396
32643SOL     OW99825   2.175   1.480   5.548
32643SOL    HW199826   2.118   1.517   5.617
32643SOL    HW299827   2.247   1.543   5.541
32644SOL     OW99828   2.004   9.166  10.287
32644SOL    HW199829   1.951   9.106  10.339
32644SOL    HW299830   2.028   9.236  10.348
32645SOL     OW99831   0.938   7.428   9.686
32645SOL    HW199832   0.864   7.370   9.671
32645SOL    HW299833   0.987   7.427   9.604
32646SOL     OW99834   2.304   5.775   9.914
32646SOL    HW199835   2.271   5.850   9.864
32646SOL    HW299836   2.352   5.813   9.987
32647SOL     OW99837  14.751   1.054   1.622
32647SOL    HW199838  14.752   1.124   1.686
32647SOL    HW299839  14.758   1.098   1.537
32648SOL     OW99840  10.527   3.328  10.758
32648SOL    HW199841  10.451   3.275  10.730
32648SOL    HW299842  10.584   3.329  10.681
32649SOL     OW99843  11.612  11.489   9.191
32649SOL    HW199844  11.566  11.514   9.111
32649SOL    HW299845  11.688  11.440   9.160
32650SOL     OW99846   5.618  14.005  13.226
32650SOL    HW199847   5.643  13.945  13.295
32650SOL    HW299848   5.664  14.087  13.245
32651SOL     OW99849  13.884   4.405   5.752
32651SOL    HW199850  13.850   4.398   5.841
32651SOL    HW299851  13.964   4.354   5.753
32652SOL     OW99852  11.384  10.668   5.970
32652SOL    HW199853  11.425  10.609   5.906
32652SOL    HW299854  11.442  10.663   6.047
32653SOL     OW99855   1.905   3.492  10.318
32653SOL    HW199856   1.932   3.581  10.341
32653SOL    HW299857   1.924   3.441  10.397
32654SOL     OW99858   0.122  10.446  14.422
32654SOL    HW199859   0.055  10.487  14.367
32654SOL    HW299860   0.128  10.503  14.498
32655SOL     OW99861   8.582  12.402  12.674
32655SOL    HW199862   8.504  12.353  12.648
32655SOL    HW299863   8.556  12.446  12.755
32656SOL     OW99864   7.255   4.579   9.687
32656SOL    HW199865   7.280   4.508   9.629
32656SOL    HW299866   7.336   4.602   9.734
32657SOL     OW99867   6.434  12.742   1.042
32657SOL    HW199868   6.361  12.681   1.034
32657SOL    HW299869   6.477  12.717   1.124
32658SOL     OW99870  14.435  13.878   7.605
32658SOL    HW199871  14.519  13.832   7.602
32658SOL    HW299872  14.369  13.808   7.602
32659SOL     OW99873  14.819   1.307   6.384
32659SOL    HW199874  14.839   1.351   6.466
32659SOL    HW299875  14.870   1.354   6.318
32660SOL     OW99876   3.104  14.298   4.247
32660SOL    HW199877   3.099  14.280   4.153
32660SOL    HW299878   3.035  14.363   4.262
32661SOL     OW99879   5.668   8.410   9.664
32661SOL    HW199880   5.719   8.395   9.584
32661SOL    HW299881   5.591   8.354   9.655
32662SOL     OW99882  13.667   4.704  14.346
32662SOL    HW199883  13.612   4.717  14.269
32662SOL    HW299884  13.724   4.781  14.348
32663SOL     OW99885   6.007   5.203   6.092
32663SOL    HW199886   6.008   5.263   6.166
32663SOL    HW299887   5.933   5.232   6.039
32664SOL     OW99888   0.449  13.510   3.347
32664SOL    HW199889   0.356  13.505   3.328
32664SOL    HW299890   0.453  13.526   3.441
32665SOL     OW99891  12.745   9.360   9.517
32665SOL    HW199892  12.675   9.359   9.582
32665SOL    HW299893  12.816   9.409   9.559
32666SOL     OW99894   3.118   1.897   8.264
32666SOL    HW199895   3.058   1.955   8.312
32666SOL    HW299896   3.093   1.809   8.291
32667SOL     OW99897   1.683   9.434   0.339
32667SOL    HW199898   1.588   9.438   0.325
32667SOL    HW299899   1.719   9.414   0.253
32668SOL     OW99900   3.619   5.735  14.589
32668SOL    HW199901   3.526   5.733  14.610
32668SOL    HW299902   3.623   5.733  14.493
32669SOL     OW99903   4.471   8.780  11.302
32669SOL    HW199904   4.564   8.802  11.305
32669SOL    HW299905   4.468   8.685  11.301
32670SOL     OW99906   8.967  10.085   8.313
32670SOL    HW199907   9.013  10.002   8.300
32670SOL    HW299908   9.035  10.151   8.303
32671SOL     OW99909   3.013   4.700  13.902
32671SOL    HW199910   3.037   4.792  13.889
32671SOL    HW299911   2.926   4.692  13.865
32672SOL     OW99912   9.528   3.992   0.020
32672SOL    HW199913   9.454   3.965   0.074
32672SOL    HW299914   9.520   4.087   0.013
32673SOL     OW99915   5.932   3.302   9.770
32673SOL    HW199916   5.841   3.307   9.800
32673SOL    HW299917   5.927   3.314   9.675
32674SOL     OW99918   1.315  10.726   1.239
32674SOL    HW199919   1.284  10.816   1.237
32674SOL    HW299920   1.294  10.691   1.152
32675SOL     OW99921   6.997   1.787  12.475
32675SOL    HW199922   6.981   1.796  12.568
32675SOL    HW299923   7.065   1.851  12.456
32676SOL     OW99924   1.190   4.557  13.473
32676SOL    HW199925   1.195   4.462  13.480
32676SOL    HW299926   1.130   4.573  13.400
32677SOL     OW99927   0.734   6.212  10.375
32677SOL    HW199928   0.716   6.238  10.465
32677SOL    HW299929   0.650   6.181  10.341
32678SOL     OW99930  10.106   4.706  12.517
32678SOL    HW199931  10.091   4.672  12.429
32678SOL    HW299932  10.028   4.680  12.567
32679SOL     OW99933  11.201   6.667   9.063
32679SOL    HW199934  11.166   6.700   8.980
32679SOL    HW299935  11.296   6.665   9.050
32680SOL     OW99936   2.629   2.349   4.792
32680SOL    HW199937   2.695   2.375   4.727
32680SOL    HW299938   2.593   2.432   4.824
32681SOL     OW99939   3.812   9.845   6.305
32681SOL    HW199940   3.851   9.814   6.223
32681SOL    HW299941   3.737   9.897   6.278
32682SOL     OW99942   9.222   3.322  11.528
32682SOL    HW199943   9.243   3.352  11.616
32682SOL    HW299944   9.288   3.255  11.509
32683SOL     OW99945   4.214   7.062   2.976
32683SOL    HW199946   4.246   6.981   2.936
32683SOL    HW299947   4.188   7.036   3.064
32684SOL     OW99948  12.486   9.373  12.168
32684SOL    HW199949  12.423   9.360  12.239
32684SOL    HW299950  12.441   9.432  12.107
32685SOL     OW99951   1.278   2.323  10.489
32685SOL    HW199952   1.337   2.263  10.534
32685SOL    HW299953   1.289   2.407  10.534
32686SOL     OW99954   4.107   4.717  10.955
32686SOL    HW199955   4.198   4.724  10.924
32686SOL    HW299956   4.060   4.786  10.908
32687SOL     OW99957   4.779  11.515  11.793
32687SOL    HW199958   4.721  11.572  11.742
32687SOL    HW299959   4.736  11.430  11.792
32688SOL     OW99960   6.236  10.024   5.267
32688SOL    HW199961   6.185  10.069   5.334
32688SOL    HW299962   6.190   9.941   5.253
32689SOL     OW99963  13.109   7.561  10.779
32689SOL    HW199964  13.044   7.627  10.753
32689SOL    HW299965  13.103   7.559  10.874
32690SOL     OW99966   5.607   1.988   6.029
32690SOL    HW199967   5.625   1.979   5.935
32690SOL    HW299968   5.577   1.902   6.056
32691SOL     OW99969   4.010   1.416  12.926
32691SOL    HW199970   4.021   1.321  12.922
32691SOL    HW299971   3.917   1.431  12.908
32692SOL     OW99972   0.620   5.218  13.075
32692SOL    HW199973   0.583   5.152  13.134
32692SOL    HW299974   0.675   5.168  13.014
32693SOL     OW99975   2.736   8.696   0.954
32693SOL    HW199976   2.697   8.647   1.026
32693SOL    HW299977   2.739   8.787   0.985
32694SOL     OW99978   5.245   6.154   0.041
32694SOL    HW199979   5.184   6.152  14.847
32694SOL    HW299980   5.214   6.225   0.096
32695SOL     OW99981   0.861   5.585   9.288
32695SOL    HW199982   0.907   5.650   9.235
32695SOL    HW299983   0.796   5.637   9.336
32696SOL     OW99984  10.187   9.518   8.965
32696SOL    HW199985  10.129   9.478   9.030
32696SOL    HW299986  10.143   9.504   8.881
32697SOL     OW99987   2.010   4.328   4.050
32697SOL    HW199988   1.935   4.339   4.109
32697SOL    HW299989   1.994   4.244   4.007
32698SOL     OW99990   1.024   6.528   9.646
32698SOL    HW199991   1.039   6.435   9.628
32698SOL    HW299992   0.992   6.563   9.563
32699SOL     OW99993  12.748   9.453  13.466
32699SOL    HW199994  12.656   9.474  13.449
32699SOL    HW299995  12.745   9.370  13.515
32700SOL     OW99996   6.678   2.657  14.487
32700SOL    HW199997   6.691   2.614  14.403
32700SOL    HW299998   6.759   2.705  14.502
32701SOL     OW99999   5.949   2.604   6.992
32701SOL    HW1    0   5.870   2.588   7.043
32701SOL    HW2    1   6.020   2.573   7.048
32702SOL     OW    2  13.031   4.055  14.440
32702SOL    HW1    3  13.083   4.116  14.388
32702SOL    HW2    4  12.952   4.040  14.389
32703SOL     OW    5   3.781   3.871   6.576
32703SOL    HW1    6   3.814   3.931   6.643
32703SOL    HW2    7   3.712   3.822   6.621
32704SOL     OW    8  11.129  11.906   3.061
32704SOL    HW1    9  11.076  11.972   3.105
32704SOL    HW2   10  11.136  11.834   3.124
32705SOL     OW   11   9.010   2.042   8.091
32705SOL    HW1   12   9.078   1.975   8.101
32705SOL    HW2   13   9.033   2.087   8.010
32706SOL     OW   14   0.279  11.143   6.780
32706SOL    HW1   15   0.333  11.135   6.701
32706SOL    HW2   16   0.265  11.237   6.789
32707SOL     OW   17   1.140  10.578   5.725
32707SOL    HW1   18   1.168  10.662   5.689
32707SOL    HW2   19   1.221  10.539   5.760
32708SOL     OW   20  14.356   0.985   2.173
32708SOL    HW1   21  14.408   0.981   2.093
32708SOL    HW2   22  14.407   1.042   2.232
32709SOL     OW   23   6.940   5.793   4.727
32709SOL    HW1   24   6.857   5.784   4.679
32709SOL    HW2   25   6.919   5.764   4.816
32710SOL     OW   26   4.224  12.399   3.835
32710SOL    HW1   27   4.228  12.318   3.886
32710SOL    HW2   28   4.315  12.417   3.811
32711SOL     OW   29   2.453   4.918   3.982
32711SOL    HW1   30   2.394   4.868   4.039
32711SOL    HW2   31   2.401   4.992   3.952
32712SOL     OW   32   3.573   8.928   8.959
32712SOL    HW1   33   3.608   8.953   8.874
32712SOL    HW2   34   3.479   8.949   8.954
32713SOL     OW   35  13.795   3.680   7.580
32713SOL    HW1   36  13.802   3.618   7.652
32713SOL    HW2   37  13.837   3.636   7.506
32714SOL     OW   38   8.678   0.990   5.515
32714SOL    HW1   39   8.773   0.994   5.517
32714SOL    HW2   40   8.658   0.941   5.435
32715SOL     OW   41  14.314   4.239   9.605
32715SOL    HW1   42  14.295   4.149   9.630
32715SOL    HW2   43  14.385   4.232   9.541
32716SOL     OW   44  13.175   3.765   5.056
32716SOL    HW1   45  13.202   3.724   4.974
32716SOL    HW2   46  13.255   3.801   5.093
32717SOL     OW   47   7.266   2.110   2.131
32717SOL    HW1   48   7.271   2.056   2.210
32717SOL    HW2   49   7.357   2.118   2.102
32718SOL     OW   50   6.412   5.210   1.392
32718SOL    HW1   51   6.481   5.178   1.334
32718SOL    HW2   52   6.457   5.265   1.456
32719SOL     OW   53   9.542   2.818   7.464
32719SOL    HW1   54   9.558   2.899   7.512
32719SOL    HW2   55   9.604   2.822   7.391
32720SOL     OW   56   3.530   9.274  14.458
32720SOL    HW1   57   3.502   9.183  14.470
32720SOL    HW2   58   3.565   9.277  14.369
32721SOL     OW   59  12.837   7.138   7.382
32721SOL    HW1   60  12.839   7.129   7.478
32721SOL    HW2   61  12.793   7.222   7.368
32722SOL     OW   62  12.614   2.974   4.787
32722SOL    HW1   63  12.666   3.045   4.824
32722SOL    HW2   64  12.678   2.906   4.765
32723SOL     OW   65   5.545   7.232   9.117
32723SOL    HW1   66   5.551   7.196   9.029
32723SOL    HW2   67   5.496   7.166   9.166
32724SOL     OW   68   7.896   1.224  13.580
32724SOL    HW1   69   7.906   1.200  13.672
32724SOL    HW2   70   7.923   1.146  13.532
32725SOL     OW   71  11.964   8.805   7.964
32725SOL    HW1   72  12.043   8.849   7.931
32725SOL    HW2   73  11.973   8.809   8.059
32726SOL     OW   74   5.871   5.458   5.517
32726SOL    HW1   75   5.868   5.549   5.486
32726SOL    HW2   76   5.964   5.437   5.519
32727SOL     OW   77  11.929   5.364   9.169
32727SOL    HW1   78  11.998   5.359   9.103
32727SOL    HW2   79  11.869   5.293   9.146
32728SOL     OW   80  10.392   8.436   9.132
32728SOL    HW1   81  10.324   8.436   9.200
32728SOL    HW2   82  10.373   8.514   9.080
32729SOL     OW   83   0.748   9.644   7.816
32729SOL    HW1   84   0.705   9.709   7.762
32729SOL    HW2   85   0.838   9.675   7.826
32730SOL     OW   86   4.865   1.155   0.017
32730SOL    HW1   87   4.851   1.241  14.859
32730SOL    HW2   88   4.954   1.158   0.050
32731SOL     OW   89   0.681   6.895   3.453
32731SOL    HW1   90   0.643   6.871   3.369
32731SOL    HW2   91   0.640   6.979   3.475
32732SOL     OW   92   3.518   1.785  10.052
32732SOL    HW1   93   3.492   1.842  10.124
32732SOL    HW2   94   3.614   1.789  10.052
32733SOL     OW   95   1.134   1.674   2.783
32733SOL    HW1   96   1.086   1.743   2.739
32733SOL    HW2   97   1.164   1.713   2.865
32734SOL     OW   98  10.814   7.480   0.146
32734SOL    HW1   99  10.855   7.398   0.172
32734SOL    HW2  100  10.877   7.519   0.085
32735SOL     OW  101   4.971   5.832  14.484
32735SOL    HW1  102   4.972   5.901  14.550
32735SOL    HW2  103   4.939   5.875  14.405
32736SOL     OW  104   9.145   6.949   0.057
32736SOL    HW1  105   9.194   7.003  14.875
32736SOL    HW2  106   9.092   6.892   0.003
32737SOL     OW  107  12.468   4.158  14.771
32737SOL    HW1  108  12.521   4.169  14.692
32737SOL    HW2  109  12.482   4.239  14.820
32738SOL     OW  110   3.958   6.227   7.477
32738SOL    HW1  111   4.044   6.264   7.458
32738SOL    HW2  112   3.946   6.242   7.571
32739SOL     OW  113  10.650   6.648   7.681
32739SOL    HW1  114  10.577   6.593   7.651
32739SOL    HW2  115  10.657   6.630   7.774
32740SOL     OW  116   7.944   6.199   0.587
32740SOL    HW1  117   7.975   6.284   0.557
32740SOL    HW2  118   7.966   6.139   0.515
32741SOL     OW  119  14.620   6.954   3.195
32741SOL    HW1  120  14.542   6.900   3.200
32741SOL    HW2  121  14.691   6.897   3.225
32742SOL     OW  122  14.708   3.239   1.876
32742SOL    HW1  123  14.669   3.223   1.962
32742SOL    HW2  124  14.722   3.334   1.873
32743SOL     OW  125   6.501   1.006  12.337
32743SOL    HW1  126   6.557   1.045  12.269
32743SOL    HW2  127   6.415   1.000  12.296
32744SOL     OW  128   8.046  11.900   5.368
32744SOL    HW1  129   7.974  11.837   5.365
32744SOL    HW2  130   8.113  11.863   5.310
32745SOL     OW  131   1.508   1.400  10.282
32745SOL    HW1  132   1.502   1.491  10.254
32745SOL    HW2  133   1.467   1.350  10.212
32746SOL     OW  134   8.098   6.806   8.138
32746SOL    HW1  135   8.120   6.773   8.225
32746SOL    HW2  136   8.175   6.855   8.110
32747SOL     OW  137  14.303  14.702   6.975
32747SOL    HW1  138  14.260  14.787   6.983
32747SOL    HW2  139  14.336  14.683   7.063
32748SOL     OW  140   3.422  11.569   6.287
32748SOL    HW1  141   3.370  11.497   6.322
32748SOL    HW2  142   3.465  11.532   6.210
32749SOL     OW  143   0.608   5.025   3.486
32749SOL    HW1  144   0.653   5.072   3.416
32749SOL    HW2  145   0.515   5.029   3.462
32750SOL     OW  146  11.019  12.819   4.506
32750SOL    HW1  147  10.946  12.872   4.474
32750SOL    HW2  148  11.097  12.861   4.469
32751SOL     OW  149   5.159   9.432  13.273
32751SOL    HW1  150   5.150   9.512  13.326
32751SOL    HW2  151   5.251   9.407  13.283
32752SOL     OW  152   6.507   4.307  11.284
32752SOL    HW1  153   6.458   4.335  11.362
32752SOL    HW2  154   6.596   4.291  11.317
32753SOL     OW  155   9.961  14.855  12.246
32753SOL    HW1  156   9.898  14.791  12.214
32753SOL    HW2  157  10.034  14.850  12.185
32754SOL     OW  158   5.387   8.882   0.068
32754SOL    HW1  159   5.321   8.945   0.041
32754SOL    HW2  160   5.415   8.840  14.867
32755SOL     OW  161   7.260  12.918   5.064
32755SOL    HW1  162   7.333  12.860   5.041
32755SOL    HW2  163   7.243  12.900   5.156
32756SOL     OW  164   4.796   1.364  10.135
32756SOL    HW1  165   4.846   1.392  10.059
32756SOL    HW2  166   4.787   1.269  10.125
32757SOL     OW  167   2.528  12.401  14.437
32757SOL    HW1  168   2.474  12.351  14.498
32757SOL    HW2  169   2.611  12.352  14.433
32758SOL     OW  170  14.100   6.925  10.563
32758SOL    HW1  171  14.058   6.988  10.504
32758SOL    HW2  172  14.068   6.840  10.532
32759SOL     OW  173   2.615   9.509  12.581
32759SOL    HW1  174   2.591   9.566  12.653
32759SOL    HW2  175   2.682   9.557  12.533
32760SOL     OW  176  12.076   0.300   4.704
32760SOL    HW1  177  12.045   0.258   4.624
32760SOL    HW2  178  12.016   0.373   4.718
32761SOL     OW  179  10.077   8.937  11.226
32761SOL    HW1  180  10.121   8.883  11.292
32761SOL    HW2  181  10.014   8.878  11.185
32762SOL     OW  182   9.168   3.200   7.206
32762SOL    HW1  183   9.102   3.261   7.239
32762SOL    HW2  184   9.174   3.219   7.113
32763SOL     OW  185  10.280  10.501   1.139
32763SOL    HW1  186  10.320  10.575   1.093
32763SOL    HW2  187  10.277  10.528   1.231
32764SOL     OW  188   3.499   2.641  14.871
32764SOL    HW1  189   3.542   2.726  14.864
32764SOL    HW2  190   3.545   2.596   0.062
32765SOL     OW  191   1.326   5.536   0.769
32765SOL    HW1  192   1.417   5.566   0.761
32765SOL    HW2  193   1.287   5.559   0.685
32766SOL     OW  194  12.944   1.429   4.917
32766SOL    HW1  195  12.987   1.505   4.878
32766SOL    HW2  196  12.985   1.421   5.003
32767SOL     OW  197   6.106   6.785  12.061
32767SOL    HW1  198   6.091   6.832  12.144
32767SOL    HW2  199   6.063   6.839  11.995
32768SOL     OW  200  13.090  12.340   5.053
32768SOL    HW1  201  13.136  12.264   5.016
32768SOL    HW2  202  13.029  12.367   4.985
32769SOL     OW  203  14.583   0.198  12.223
32769SOL    HW1  204  14.608   0.130  12.161
32769SOL    HW2  205  14.579   0.154  12.307
32770SOL     OW  206  13.556  12.655   9.485
32770SOL    HW1  207  13.586  12.565   9.499
32770SOL    HW2  208  13.462  12.653   9.505
32771SOL     OW  209   0.417  12.823   2.633
32771SOL    HW1  210   0.343  12.849   2.579
32771SOL    HW2  211   0.494  12.838   2.579
32772SOL     OW  212   8.645   3.950   8.105
32772SOL    HW1  213   8.615   4.041   8.096
32772SOL    HW2  214   8.690   3.948   8.189
32773SOL     OW  215  11.427  14.515   0.441
32773SOL    HW1  216  11.457  14.497   0.530
32773SOL    HW2  217  11.506  14.505   0.387
32774SOL     OW  218   0.865  14.441   0.323
32774SOL    HW1  219   0.934  14.507   0.319
32774SOL    HW2  220   0.784  14.491   0.334
32775SOL     OW  221   7.374   3.088  11.921
32775SOL    HW1  222   7.461   3.128  11.913
32775SOL    HW2  223   7.389   3.010  11.974
32776SOL     OW  224  14.648   4.407   7.995
32776SOL    HW1  225  14.690   4.493   7.985
32776SOL    HW2  226  14.717   4.351   8.031
32777SOL     OW  227   0.956   7.135   8.432
32777SOL    HW1  228   0.990   7.050   8.460
32777SOL    HW2  229   1.025   7.197   8.456
32778SOL     OW  230   3.296  10.054   4.430
32778SOL    HW1  231   3.377  10.103   4.440
32778SOL    HW2  232   3.305  10.008   4.346
32779SOL     OW  233   0.119   7.389   6.521
32779SOL    HW1  234   0.142   7.306   6.564
32779SOL    HW2  235   0.046   7.366   6.464
32780SOL     OW  236   0.459   0.237   1.298
32780SOL    HW1  237   0.414   0.315   1.330
32780SOL    HW2  238   0.517   0.269   1.230
32781SOL     OW  239   3.996   5.966   5.023
32781SOL    HW1  240   4.073   5.972   4.967
32781SOL    HW2  241   3.937   5.906   4.977
32782SOL     OW  242   8.306   9.734   1.505
32782SOL    HW1  243   8.222   9.779   1.505
32782SOL    HW2  244   8.341   9.748   1.593
32783SOL     OW  245   5.243   4.151  10.437
32783SOL    HW1  246   5.326   4.165  10.482
32783SOL    HW2  247   5.267   4.104  10.357
32784SOL     OW  248  12.327  10.983  12.764
32784SOL    HW1  249  12.396  10.918  12.779
32784SOL    HW2  250  12.296  11.005  12.852
32785SOL     OW  251  11.258   2.039   8.074
32785SOL    HW1  252  11.293   1.970   8.130
32785SOL    HW2  253  11.240   1.995   7.991
32786SOL     OW  254   4.255  13.380   5.665
32786SOL    HW1  255   4.195  13.305   5.670
32786SOL    HW2  256   4.321  13.362   5.732
32787SOL     OW  257   5.441   0.524   5.528
32787SOL    HW1  258   5.511   0.506   5.465
32787SOL    HW2  259   5.432   0.442   5.577
32788SOL     OW  260  11.643   9.060   1.260
32788SOL    HW1  261  11.650   9.059   1.355
32788SOL    HW2  262  11.734   9.068   1.230
32789SOL     OW  263   3.394   1.828   3.562
32789SOL    HW1  264   3.457   1.847   3.493
32789SOL    HW2  265   3.440   1.766   3.620
32790SOL     OW  266  12.754   6.682   2.959
32790SOL    HW1  267  12.708   6.765   2.968
32790SOL    HW2  268  12.720   6.645   2.877
32791SOL     OW  269  11.724   2.045   1.587
32791SOL    HW1  270  11.787   2.048   1.659
32791SOL    HW2  271  11.639   2.035   1.630
32792SOL     OW  272  13.498  11.305  12.811
32792SOL    HW1  273  13.477  11.356  12.889
32792SOL    HW2  274  13.478  11.364  12.738
32793SOL     OW  275   9.211   5.891   5.273
32793SOL    HW1  276   9.172   5.973   5.243
32793SOL    HW2  277   9.194   5.829   5.202
32794SOL     OW  278  12.702  12.586   2.961
32794SOL    HW1  279  12.613  12.552   2.946
32794SOL    HW2  280  12.752  12.555   2.885
32795SOL     OW  281  12.331   3.899  13.297
32795SOL    HW1  282  12.405   3.853  13.257
32795SOL    HW2  283  12.369   3.945  13.372
32796SOL     OW  284   8.057   8.196  13.048
32796SOL    HW1  285   8.133   8.236  13.007
32796SOL    HW2  286   7.987   8.260  13.036
32797SOL     OW  287   4.133   8.769  13.385
32797SOL    HW1  288   4.196   8.744  13.317
32797SOL    HW2  289   4.073   8.830  13.341
32798SOL     OW  290   9.940  10.711   2.381
32798SOL    HW1  291   9.910  10.649   2.314
32798SOL    HW2  292   9.928  10.797   2.340
32799SOL     OW  293  14.077   8.822  12.589
32799SOL    HW1  294  14.016   8.851  12.522
32799SOL    HW2  295  14.114   8.740  12.554
32800SOL     OW  296   4.747   8.382   8.503
32800SOL    HW1  297   4.726   8.472   8.477
32800SOL    HW2  298   4.795   8.347   8.428
32801SOL     OW  299   1.547   6.682  12.451
32801SOL    HW1  300   1.459   6.648  12.470
32801SOL    HW2  301   1.582   6.623  12.384
32802SOL     OW  302   8.022   6.749   2.312
32802SOL    HW1  303   7.937   6.719   2.281
32802SOL    HW2  304   8.019   6.845   2.303
32803SOL     OW  305   1.473  12.545  11.474
32803SOL    HW1  306   1.550  12.492  11.452
32803SOL    HW2  307   1.508  12.615  11.530
32804SOL     OW  308   1.352   6.776  10.894
32804SOL    HW1  309   1.367   6.847  10.958
32804SOL    HW2  310   1.438   6.760  10.857
32805SOL     OW  311  13.616   7.117   7.105
32805SOL    HW1  312  13.644   7.204   7.078
32805SOL    HW2  313  13.671   7.057   7.054
32806SOL     OW  314  14.874   5.441  13.929
32806SOL    HW1  315  14.862   5.366  13.987
32806SOL    HW2  316   0.060   5.495  13.973
32807SOL     OW  317   3.088   7.843   1.024
32807SOL    HW1  318   3.104   7.827   0.930
32807SOL    HW2  319   3.026   7.916   1.025
32808SOL     OW  320   5.002  13.187   2.813
32808SOL    HW1  321   4.983  13.158   2.902
32808SOL    HW2  322   5.068  13.124   2.782
32809SOL     OW  323   7.412   2.495   4.290
32809SOL    HW1  324   7.403   2.564   4.224
32809SOL    HW2  325   7.323   2.484   4.325
32810SOL     OW  326   2.624  13.791  10.254
32810SOL    HW1  327   2.595  13.816  10.166
32810SOL    HW2  328   2.659  13.703  10.244
32811SOL     OW  329  13.830   3.209   0.028
32811SOL    HW1  330  13.758   3.147   0.019
32811SOL    HW2  331  13.838   3.224   0.122
32812SOL     OW  332   7.909   8.115  11.207
32812SOL    HW1  333   7.883   8.035  11.160
32812SOL    HW2  334   7.854   8.114  11.286
32813SOL     OW  335   9.932   9.539  10.864
32813SOL    HW1  336   9.995   9.473  10.896
32813SOL    HW2  337   9.962   9.621  10.904
32814SOL     OW  338   1.684  12.938   8.199
32814SOL    HW1  339   1.691  13.033   8.211
32814SOL    HW2  340   1.694  12.924   8.105
32815SOL     OW  341  13.141   7.159  11.055
32815SOL    HW1  342  13.201   7.184  11.125
32815SOL    HW2  343  13.065   7.122  11.101
32816SOL     OW  344   2.390  14.562   4.433
32816SOL    HW1  345   2.456  14.621   4.397
32816SOL    HW2  346   2.342  14.530   4.357
32817SOL     OW  347   1.246   6.591  12.259
32817SOL    HW1  348   1.233   6.592  12.164
32817SOL    HW2  349   1.225   6.680  12.287
32818SOL     OW  350  13.152  10.508   7.051
32818SOL    HW1  351  13.074  10.473   7.008
32818SOL    HW2  352  13.223  10.497   6.988
32819SOL     OW  353   7.071  14.595   9.667
32819SOL    HW1  354   6.987  14.618   9.627
32819SOL    HW2  355   7.106  14.678   9.697
32820SOL     OW  356  11.088   5.305  11.754
32820SOL    HW1  357  11.178   5.321  11.725
32820SOL    HW2  358  11.085   5.338  11.843
32821SOL     OW  359  14.272   5.756   3.709
32821SOL    HW1  360  14.292   5.666   3.682
32821SOL    HW2  361  14.247   5.800   3.629
32822SOL     OW  362  14.765   0.407   1.408
32822SOL    HW1  363  14.781   0.468   1.480
32822SOL    HW2  364  14.711   0.457   1.346
32823SOL     OW  365   2.361   3.234   6.551
32823SOL    HW1  366   2.313   3.165   6.504
32823SOL    HW2  367   2.451   3.201   6.556
32824SOL     OW  368   7.982   3.252   9.447
32824SOL    HW1  369   7.948   3.242   9.535
32824SOL    HW2  370   7.975   3.164   9.408
32825SOL     OW  371   4.042  14.518   0.497
32825SOL    HW1  372   4.138  14.523   0.492
32825SOL    HW2  373   4.016  14.602   0.536
32826SOL     OW  374   9.490   8.191   3.258
32826SOL    HW1  375   9.405   8.168   3.296
32826SOL    HW2  376   9.553   8.138   3.306
32827SOL     OW  377  11.950  12.359   5.496
32827SOL    HW1  378  12.045  12.374   5.489
32827SOL    HW2  379  11.911  12.438   5.458
32828SOL     OW  380  12.462   5.078   0.174
32828SOL    HW1  381  12.521   5.050   0.104
32828SOL    HW2  382  12.399   5.135   0.130
32829SOL     OW  383  13.867   5.000   3.020
32829SOL    HW1  384  13.772   4.990   3.025
32829SOL    HW2  385  13.900   4.956   3.099
32830SOL     OW  386  11.087   6.609   6.027
32830SOL    HW1  387  11.057   6.663   6.100
32830SOL    HW2  388  11.104   6.671   5.956
32831SOL     OW  389   6.530   2.078   6.185
32831SOL    HW1  390   6.500   2.076   6.094
32831SOL    HW2  391   6.623   2.057   6.180
32832SOL     OW  392  12.534   8.557   6.035
32832SOL    HW1  393  12.518   8.514   6.119
32832SOL    HW2  394  12.477   8.634   6.037
32833SOL     OW  395   6.772   7.474   9.856
32833SOL    HW1  396   6.768   7.569   9.865
32833SOL    HW2  397   6.683   7.444   9.876
32834SOL     OW  398   8.807   7.041   2.994
32834SOL    HW1  399   8.880   7.001   3.041
32834SOL    HW2  400   8.803   7.130   3.028
32835SOL     OW  401   9.960   8.068   0.529
32835SOL    HW1  402   9.873   8.036   0.552
32835SOL    HW2  403  10.018   8.032   0.596
32836SOL     OW  404  12.619   5.380  11.610
32836SOL    HW1  405  12.618   5.468  11.573
32836SOL    HW2  406  12.712   5.360  11.622
32837SOL     OW  407   6.233  11.747   7.246
32837SOL    HW1  408   6.265  11.668   7.203
32837SOL    HW2  409   6.216  11.808   7.174
32838SOL     OW  410   1.528   3.880   7.205
32838SOL    HW1  411   1.591   3.922   7.147
32838SOL    HW2  412   1.576   3.807   7.244
32839SOL     OW  413   7.495   2.526   0.569
32839SOL    HW1  414   7.541   2.584   0.630
32839SOL    HW2  415   7.553   2.451   0.558
32840SOL     OW  416  14.690   4.396   9.694
32840SOL    HW1  417  14.600   4.418   9.718
32840SOL    HW2  418  14.740   4.476   9.713
32841SOL     OW  419   7.094   7.478  10.026
32841SOL    HW1  420   7.149   7.509  10.098
32841SOL    HW2  421   7.022   7.432  10.068
32842SOL     OW  422   5.897  13.260   8.406
32842SOL    HW1  423   5.924  13.256   8.498
32842SOL    HW2  424   5.860  13.347   8.395
32843SOL     OW  425   9.649   9.912  11.679
32843SOL    HW1  426   9.633   9.877  11.766
32843SOL    HW2  427   9.567   9.952  11.653
32844SOL     OW  428  13.158  13.074   7.422
32844SOL    HW1  429  13.243  13.117   7.410
32844SOL    HW2  430  13.177  13.000   7.480
32845SOL     OW  431   7.219   0.872   7.759
32845SOL    HW1  432   7.184   0.955   7.724
32845SOL    HW2  433   7.145   0.834   7.807
32846SOL     OW  434  11.341  14.291  14.557
32846SOL    HW1  435  11.395  14.274  14.634
32846SOL    HW2  436  11.315  14.383  14.565
32847SOL     OW  437  10.901  13.475   9.904
32847SOL    HW1  438  10.875  13.436   9.987
32847SOL    HW2  439  10.978  13.527   9.925
32848SOL     OW  440   9.144   2.636   6.802
32848SOL    HW1  441   9.149   2.698   6.729
32848SOL    HW2  442   9.160   2.689   6.879
32849SOL     OW  443  10.132   8.074   5.190
32849SOL    HW1  444  10.042   8.107   5.195
32849SOL    HW2  445  10.185   8.141   5.232
32850SOL     OW  446   5.428   6.897   3.324
32850SOL    HW1  447   5.464   6.985   3.332
32850SOL    HW2  448   5.484   6.854   3.260
32851SOL     OW  449   4.476   9.297   7.010
32851SOL    HW1  450   4.498   9.241   7.085
32851SOL    HW2  451   4.519   9.380   7.030
32852SOL     OW  452   3.399   3.164   0.703
32852SOL    HW1  453   3.340   3.114   0.647
32852SOL    HW2  454   3.483   3.118   0.698
32853SOL     OW  455  13.564   4.418   8.820
32853SOL    HW1  456  13.568   4.427   8.915
32853SOL    HW2  457  13.655   4.409   8.792
32854SOL     OW  458  13.165  11.034   3.065
32854SOL    HW1  459  13.223  10.992   3.002
32854SOL    HW2  460  13.207  11.118   3.083
32855SOL     OW  461   8.429  14.318   0.093
32855SOL    HW1  462   8.417  14.352   0.182
32855SOL    HW2  463   8.501  14.256   0.101
32856SOL     OW  464  13.305   4.031  11.173
32856SOL    HW1  465  13.380   4.057  11.119
32856SOL    HW2  466  13.254   4.112  11.183
32857SOL     OW  467   4.457   5.904  14.852
32857SOL    HW1  468   4.506   5.985  14.843
32857SOL    HW2  469   4.409   5.914   0.054
32858SOL     OW  470   2.806   5.585   5.607
32858SOL    HW1  471   2.827   5.535   5.528
32858SOL    HW2  472   2.712   5.574   5.618
32859SOL     OW  473  14.661   0.870  12.942
32859SOL    HW1  474  14.705   0.809  12.882
32859SOL    HW2  475  14.612   0.929  12.884
32860SOL     OW  476   6.303  14.775   6.132
32860SOL    HW1  477   6.223  14.745   6.088
32860SOL    HW2  478   6.373  14.758   6.068
32861SOL     OW  479  10.303   8.803  10.306
32861SOL    HW1  480  10.385   8.780  10.348
32861SOL    HW2  481  10.326   8.818  10.214
32862SOL     OW  482   2.479  13.326   2.592
32862SOL    HW1  483   2.481  13.377   2.673
32862SOL    HW2  484   2.394  13.345   2.554
32863SOL     OW  485   8.684   6.293   9.194
32863SOL    HW1  486   8.640   6.228   9.139
32863SOL    HW2  487   8.771   6.303   9.154
32864SOL     OW  488   4.062   5.155   7.641
32864SOL    HW1  489   4.111   5.183   7.565
32864SOL    HW2  490   4.113   5.082   7.678
32865SOL     OW  491   4.562  11.407   0.175
32865SOL    HW1  492   4.575  11.313   0.177
32865SOL    HW2  493   4.628  11.440   0.114
32866SOL     OW  494  11.015   5.332   6.201
32866SOL    HW1  495  11.037   5.325   6.108
32866SOL    HW2  496  11.006   5.426   6.216
32867SOL     OW  497   9.825   6.660  10.310
32867SOL    HW1  498   9.902   6.702  10.272
32867SOL    HW2  499   9.774   6.631  10.234
32868SOL     OW  500   6.567  12.117   1.612
32868SOL    HW1  501   6.486  12.114   1.562
32868SOL    HW2  502   6.541  12.095   1.702
32869SOL     OW  503  13.864  11.015   0.466
32869SOL    HW1  504  13.788  10.984   0.416
32869SOL    HW2  505  13.834  11.014   0.557
32870SOL     OW  506  13.321   5.285  13.348
32870SOL    HW1  507  13.400   5.232  13.354
32870SOL    HW2  508  13.332   5.353  13.414
32871SOL     OW  509   2.153   2.432   5.676
32871SOL    HW1  510   2.123   2.381   5.751
32871SOL    HW2  511   2.161   2.521   5.710
32872SOL     OW  512  13.995  12.281   7.796
32872SOL    HW1  513  14.039  12.328   7.867
32872SOL    HW2  514  13.945  12.213   7.840
32873SOL     OW  515   4.821  13.494   2.419
32873SOL    HW1  516   4.735  13.532   2.438
32873SOL    HW2  517   4.846  13.448   2.499
32874SOL     OW  518   3.881   6.252  13.246
32874SOL    HW1  519   3.833   6.331  13.222
32874SOL    HW2  520   3.936   6.233  13.171
32875SOL     OW  521   0.587   4.469  12.450
32875SOL    HW1  522   0.612   4.536  12.513
32875SOL    HW2  523   0.656   4.402  12.458
32876SOL     OW  524   6.685   7.866  10.958
32876SOL    HW1  525   6.761   7.807  10.959
32876SOL    HW2  526   6.679   7.896  10.867
32877SOL     OW  527   7.458   8.894   2.863
32877SOL    HW1  528   7.402   8.969   2.845
32877SOL    HW2  529   7.531   8.903   2.802
32878SOL     OW  530   7.998  11.943   1.754
32878SOL    HW1  531   8.031  11.854   1.751
32878SOL    HW2  532   7.913  11.939   1.710
32879SOL     OW  533  12.464   2.132   5.207
32879SOL    HW1  534  12.444   2.108   5.117
32879SOL    HW2  535  12.520   2.210   5.200
32880SOL     OW  536   2.423   8.454  13.311
32880SOL    HW1  537   2.378   8.435  13.229
32880SOL    HW2  538   2.486   8.523  13.288
32881SOL     OW  539  13.620   4.388   2.949
32881SOL    HW1  540  13.623   4.299   2.914
32881SOL    HW2  541  13.597   4.377   3.041
32882SOL     OW  542   5.725   4.409  14.488
32882SOL    HW1  543   5.767   4.405  14.574
32882SOL    HW2  544   5.750   4.326  14.446
32883SOL     OW  545  10.452   9.385  11.869
32883SOL    HW1  546  10.397   9.432  11.806
32883SOL    HW2  547  10.463   9.298  11.831
32884SOL     OW  548   6.983   7.080  13.400
32884SOL    HW1  549   6.899   7.039  13.381
32884SOL    HW2  550   7.003   7.055  13.490
32885SOL     OW  551   7.331  10.729   0.760
32885SOL    HW1  552   7.385  10.662   0.802
32885SOL    HW2  553   7.248  10.686   0.742
32886SOL     OW  554   3.473   6.923  13.243
32886SOL    HW1  555   3.487   7.018  13.251
32886SOL    HW2  556   3.502   6.888  13.327
32887SOL     OW  557   6.554  13.520  14.381
32887SOL    HW1  558   6.568  13.471  14.462
32887SOL    HW2  559   6.536  13.609  14.410
32888SOL     OW  560   3.067  12.026   9.084
32888SOL    HW1  561   3.099  12.056   9.169
32888SOL    HW2  562   2.980  11.991   9.102
32889SOL     OW  563  11.954   7.189  14.580
32889SOL    HW1  564  11.862   7.212  14.589
32889SOL    HW2  565  11.963   7.158  14.489
32890SOL     OW  566   5.187  11.983   6.356
32890SOL    HW1  567   5.170  12.007   6.447
32890SOL    HW2  568   5.123  12.033   6.305
32891SOL     OW  569   1.921   8.090   8.123
32891SOL    HW1  570   1.858   8.019   8.129
32891SOL    HW2  571   1.886   8.157   8.182
32892SOL     OW  572   2.895   5.172   5.267
32892SOL    HW1  573   2.809   5.130   5.272
32892SOL    HW2  574   2.886   5.253   5.317
32893SOL     OW  575   2.020   2.857   8.813
32893SOL    HW1  576   1.950   2.922   8.823
32893SOL    HW2  577   2.046   2.836   8.903
32894SOL     OW  578   5.546   3.661   6.999
32894SOL    HW1  579   5.497   3.741   7.020
32894SOL    HW2  580   5.513   3.596   7.061
32895SOL     OW  581  10.398   7.714   5.372
32895SOL    HW1  582  10.340   7.778   5.330
32895SOL    HW2  583  10.459   7.688   5.303
32896SOL     OW  584   0.804   4.730   4.062
32896SOL    HW1  585   0.880   4.693   4.017
32896SOL    HW2  586   0.759   4.781   3.995
32897SOL     OW  587   3.321   6.206  11.849
32897SOL    HW1  588   3.340   6.206  11.943
32897SOL    HW2  589   3.373   6.134  11.813
32898SOL     OW  590   6.568   9.421   7.265
32898SOL    HW1  591   6.659   9.435   7.290
32898SOL    HW2  592   6.521   9.412   7.348
32899SOL     OW  593   8.975   3.343   6.638
32899SOL    HW1  594   9.050   3.287   6.614
32899SOL    HW2  595   8.958   3.322   6.730
32900SOL     OW  596   2.863  13.577   2.637
32900SOL    HW1  597   2.877  13.581   2.731
32900SOL    HW2  598   2.949  13.553   2.601
32901SOL     OW  599   5.821   0.742   6.996
32901SOL    HW1  600   5.793   0.812   7.055
32901SOL    HW2  601   5.895   0.779   6.948
32902SOL     OW  602  14.548   5.483   3.911
32902SOL    HW1  603  14.588   5.498   3.825
32902SOL    HW2  604  14.566   5.563   3.960
32903SOL     OW  605  10.864   3.816   6.575
32903SOL    HW1  606  10.813   3.800   6.496
32903SOL    HW2  607  10.953   3.794   6.551
32904SOL     OW  608   8.892   6.483   9.897
32904SOL    HW1  609   8.901   6.539   9.819
32904SOL    HW2  610   8.877   6.544   9.969
32905SOL     OW  611  11.492   3.255  14.339
32905SOL    HW1  612  11.507   3.212  14.423
32905SOL    HW2  613  11.431   3.326  14.358
32906SOL     OW  614  12.655   8.079   7.783
32906SOL    HW1  615  12.695   7.992   7.781
32906SOL    HW2  616  12.658   8.105   7.875
32907SOL     OW  617   5.297   0.842   2.241
32907SOL    HW1  618   5.215   0.796   2.224
32907SOL    HW2  619   5.287   0.926   2.196
32908SOL     OW  620   8.831   3.498   4.220
32908SOL    HW1  621   8.845   3.404   4.221
32908SOL    HW2  622   8.884   3.530   4.147
32909SOL     OW  623   3.836  12.107   4.359
32909SOL    HW1  624   3.762  12.135   4.414
32909SOL    HW2  625   3.907  12.168   4.381
32910SOL     OW  626   2.147   8.629   1.641
32910SOL    HW1  627   2.084   8.598   1.577
32910SOL    HW2  628   2.101   8.620   1.725
32911SOL     OW  629  12.522   9.072   2.181
32911SOL    HW1  630  12.587   9.109   2.241
32911SOL    HW2  631  12.462   9.024   2.238
32912SOL     OW  632   1.305  12.317   2.569
32912SOL    HW1  633   1.398  12.319   2.589
32912SOL    HW2  634   1.277  12.408   2.577
32913SOL     OW  635   4.252   1.383  12.218
32913SOL    HW1  636   4.285   1.372  12.129
32913SOL    HW2  637   4.157   1.380  12.208
32914SOL     OW  638   0.594   8.747  14.117
32914SOL    HW1  639   0.619   8.789  14.035
32914SOL    HW2  640   0.676   8.741  14.166
32915SOL     OW  641   0.085   3.471   6.642
32915SOL    HW1  642   0.119   3.525   6.714
32915SOL    HW2  643  14.871   3.464   6.660
32916SOL     OW  644   4.096   3.988  12.245
32916SOL    HW1  645   4.041   3.925  12.199
32916SOL    HW2  646   4.055   4.073  12.227
32917SOL     OW  647   9.778  13.054  10.286
32917SOL    HW1  648   9.807  12.996  10.356
32917SOL    HW2  649   9.723  13.119  10.329
32918SOL     OW  650  12.514  10.939  13.755
32918SOL    HW1  651  12.507  10.992  13.676
32918SOL    HW2  652  12.442  10.877  13.749
32919SOL     OW  653   3.305   5.302   1.710
32919SOL    HW1  654   3.305   5.239   1.782
32919SOL    HW2  655   3.304   5.248   1.631
32920SOL     OW  656   1.501  11.256   6.794
32920SOL    HW1  657   1.550  11.319   6.742
32920SOL    HW2  658   1.453  11.203   6.730
32921SOL     OW  659   1.420  13.366   7.987
32921SOL    HW1  660   1.415  13.439   7.925
32921SOL    HW2  661   1.436  13.407   8.072
32922SOL     OW  662  10.748   7.909   8.163
32922SOL    HW1  663  10.787   7.835   8.209
32922SOL    HW2  664  10.732   7.877   8.075
32923SOL     OW  665   0.729   7.738   3.026
32923SOL    HW1  666   0.741   7.757   3.119
32923SOL    HW2  667   0.807   7.774   2.983
32924SOL     OW  668   5.034  14.294   5.981
32924SOL    HW1  669   5.086  14.373   5.994
32924SOL    HW2  670   5.086  14.224   6.020
32925SOL     OW  671   5.557   5.287   0.060
32925SOL    HW1  672   5.527   5.351  14.876
32925SOL    HW2  673   5.480   5.234   0.079
32926SOL     OW  674  10.518   6.085   6.023
32926SOL    HW1  675  10.560   6.027   5.960
32926SOL    HW2  676  10.472   6.149   5.970
32927SOL     OW  677  14.241  11.875   4.157
32927SOL    HW1  678  14.155  11.913   4.139
32927SOL    HW2  679  14.273  11.924   4.233
32928SOL     OW  680   4.358   8.396   3.141
32928SOL    HW1  681   4.365   8.383   3.047
32928SOL    HW2  682   4.448   8.412   3.170
32929SOL     OW  683  11.804   9.137   5.020
32929SOL    HW1  684  11.887   9.180   5.042
32929SOL    HW2  685  11.826   9.044   5.016
32930SOL     OW  686   5.939   8.040   8.617
32930SOL    HW1  687   5.995   8.066   8.545
32930SOL    HW2  688   5.885   8.118   8.635
32931SOL     OW  689  10.594   1.875   4.128
32931SOL    HW1  690  10.620   1.838   4.212
32931SOL    HW2  691  10.511   1.918   4.146
32932SOL     OW  692   3.830   2.086   2.383
32932SOL    HW1  693   3.848   2.025   2.455
32932SOL    HW2  694   3.891   2.060   2.314
32933SOL     OW  695   3.943   9.178  11.619
32933SOL    HW1  696   3.967   9.087  11.641
32933SOL    HW2  697   3.920   9.175  11.527
32934SOL     OW  698  13.127   2.319   0.693
32934SOL    HW1  699  13.112   2.239   0.744
32934SOL    HW2  700  13.221   2.335   0.700
32935SOL     OW  701   9.292   5.785   3.652
32935SOL    HW1  702   9.232   5.847   3.610
32935SOL    HW2  703   9.374   5.795   3.603
32936SOL     OW  704  10.461  13.005   0.651
32936SOL    HW1  705  10.466  12.989   0.746
32936SOL    HW2  706  10.384  13.061   0.640
32937SOL     OW  707   2.723   8.043   9.769
32937SOL    HW1  708   2.785   8.022   9.839
32937SOL    HW2  709   2.700   7.959   9.731
32938SOL     OW  710  13.991   5.183   6.196
32938SOL    HW1  711  14.084   5.167   6.213
32938SOL    HW2  712  13.986   5.197   6.101
32939SOL     OW  713   5.790   1.964  12.785
32939SOL    HW1  714   5.777   2.049  12.825
32939SOL    HW2  715   5.846   1.916  12.846
32940SOL     OW  716   5.091  11.323   4.638
32940SOL    HW1  717   5.160  11.376   4.679
32940SOL    HW2  718   5.103  11.337   4.544
32941SOL     OW  719  12.304   5.431   4.823
32941SOL    HW1  720  12.311   5.496   4.893
32941SOL    HW2  721  12.309   5.347   4.868
32942SOL     OW  722   8.417   4.125  13.136
32942SOL    HW1  723   8.368   4.057  13.183
32942SOL    HW2  724   8.482   4.156  13.200
32943SOL     OW  725  12.872   3.382   2.039
32943SOL    HW1  726  12.833   3.441   1.975
32943SOL    HW2  727  12.871   3.296   1.997
32944SOL     OW  728   2.734  13.035   0.564
32944SOL    HW1  729   2.703  12.951   0.599
32944SOL    HW2  730   2.816  13.051   0.610
32945SOL     OW  731  14.735   9.295   2.401
32945SOL    HW1  732  14.695   9.381   2.417
32945SOL    HW2  733  14.824   9.303   2.436
32946SOL     OW  734   1.142   7.604   6.764
32946SOL    HW1  735   1.057   7.647   6.753
32946SOL    HW2  736   1.174   7.636   6.848
32947SOL     OW  737   1.740   5.568  14.860
32947SOL    HW1  738   1.801   5.629   0.021
32947SOL    HW2  739   1.702   5.518   0.052
32948SOL     OW  740  10.691   6.285   6.796
32948SOL    HW1  741  10.676   6.362   6.740
32948SOL    HW2  742  10.696   6.321   6.884
32949SOL     OW  743   1.430   0.689   5.194
32949SOL    HW1  744   1.516   0.680   5.235
32949SOL    HW2  745   1.436   0.771   5.145
32950SOL     OW  746  10.809  13.030  12.370
32950SOL    HW1  747  10.842  12.942  12.355
32950SOL    HW2  748  10.724  13.017  12.413
32951SOL     OW  749   5.126   7.218   9.274
32951SOL    HW1  750   5.050   7.200   9.330
32951SOL    HW2  751   5.092   7.273   9.204
32952SOL     OW  752   9.994   0.053  14.770
32952SOL    HW1  753  10.050   0.129  14.782
32952SOL    HW2  754  10.046  14.859  14.802
32953SOL     OW  755   3.952   4.161   8.772
32953SOL    HW1  756   3.926   4.215   8.698
32953SOL    HW2  757   4.038   4.194   8.796
32954SOL     OW  758   0.927   9.550  13.190
32954SOL    HW1  759   0.989   9.570  13.119
32954SOL    HW2  760   0.841   9.563  13.150
32955SOL     OW  761   7.727   5.773   9.509
32955SOL    HW1  762   7.632   5.777   9.516
32955SOL    HW2  763   7.750   5.836   9.442
32956SOL     OW  764  13.306   4.781  11.622
32956SOL    HW1  765  13.398   4.785  11.645
32956SOL    HW2  766  13.299   4.830  11.540
32957SOL     OW  767  10.864   3.219   6.580
32957SOL    HW1  768  10.930   3.281   6.549
32957SOL    HW2  769  10.902   3.133   6.564
32958SOL     OW  770   9.339   3.430   9.562
32958SOL    HW1  771   9.300   3.505   9.518
32958SOL    HW2  772   9.283   3.356   9.538
32959SOL     OW  773  11.714   6.517   4.084
32959SOL    HW1  774  11.778   6.481   4.145
32959SOL    HW2  775  11.728   6.469   4.003
32960SOL     OW  776  14.034  13.897   2.403
32960SOL    HW1  777  14.050  13.970   2.463
32960SOL    HW2  778  14.105  13.903   2.338
32961SOL     OW  779   3.564   8.029  12.210
32961SOL    HW1  780   3.651   8.021  12.249
32961SOL    HW2  781   3.579   8.068  12.125
32962SOL     OW  782   6.911   2.695   5.873
32962SOL    HW1  783   6.843   2.628   5.880
32962SOL    HW2  784   6.974   2.673   5.942
32963SOL     OW  785  11.345   4.506  11.922
32963SOL    HW1  786  11.329   4.423  11.876
32963SOL    HW2  787  11.265   4.556  11.910
32964SOL     OW  788  11.275   5.437   3.219
32964SOL    HW1  789  11.197   5.466   3.267
32964SOL    HW2  790  11.347   5.483   3.262
32965SOL     OW  791   2.007   0.706  13.990
32965SOL    HW1  792   2.020   0.612  13.972
32965SOL    HW2  793   1.916   0.712  14.020
32966SOL     OW  794   0.184   1.749   2.373
32966SOL    HW1  795   0.094   1.780   2.382
32966SOL    HW2  796   0.224   1.766   2.458
32967SOL     OW  797  14.481  10.411   3.636
32967SOL    HW1  798  14.518  10.326   3.663
32967SOL    HW2  799  14.545  10.475   3.666
32968SOL     OW  800   6.030  10.763   5.942
32968SOL    HW1  801   6.006  10.726   5.856
32968SOL    HW2  802   6.097  10.703   5.975
32969SOL     OW  803   3.788  13.023   2.065
32969SOL    HW1  804   3.868  13.021   2.013
32969SOL    HW2  805   3.817  13.042   2.154
32970SOL     OW  806   0.145   0.203   4.177
32970SOL    HW1  807   0.052   0.184   4.188
32970SOL    HW2  808   0.147   0.281   4.121
32971SOL     OW  809   1.138   6.516   0.908
32971SOL    HW1  810   1.046   6.530   0.887
32971SOL    HW2  811   1.140   6.431   0.952
32972SOL     OW  812   2.662   0.805  11.036
32972SOL    HW1  813   2.628   0.755  11.109
32972SOL    HW2  814   2.755   0.782  11.032
32973SOL     OW  815   5.921   9.140   6.730
32973SOL    HW1  816   5.874   9.057   6.728
32973SOL    HW2  817   5.873   9.194   6.793
32974SOL     OW  818   9.677  14.093   8.437
32974SOL    HW1  819   9.696  14.165   8.497
32974SOL    HW2  820   9.731  14.020   8.469
32975SOL     OW  821   2.586   2.130   8.476
32975SOL    HW1  822   2.564   2.203   8.533
32975SOL    HW2  823   2.502   2.092   8.451
32976SOL     OW  824   0.729  10.403   6.432
32976SOL    HW1  825   0.771  10.369   6.511
32976SOL    HW2  826   0.716  10.325   6.377
32977SOL     OW  827   0.114   7.163  11.402
32977SOL    HW1  828   0.057   7.182  11.328
32977SOL    HW2  829   0.074   7.210  11.476
32978SOL     OW  830   7.772  10.873   0.609
32978SOL    HW1  831   7.744  10.940   0.672
32978SOL    HW2  832   7.863  10.854   0.633
32979SOL     OW  833  10.886   5.063   1.815
32979SOL    HW1  834  10.948   5.036   1.747
32979SOL    HW2  835  10.913   5.151   1.839
32980SOL     OW  836   3.752   6.861  11.458
32980SOL    HW1  837   3.842   6.858  11.426
32980SOL    HW2  838   3.702   6.811  11.394
32981SOL     OW  839   3.880   9.164   3.096
32981SOL    HW1  840   3.810   9.102   3.117
32981SOL    HW2  841   3.947   9.148   3.162
32982SOL     OW  842  12.697   0.910   7.413
32982SOL    HW1  843  12.717   0.827   7.370
32982SOL    HW2  844  12.739   0.976   7.358
32983SOL     OW  845  11.412   0.608   8.568
32983SOL    HW1  846  11.321   0.615   8.594
32983SOL    HW2  847  11.427   0.685   8.512
32984SOL     OW  848   3.697   8.420   4.124
32984SOL    HW1  849   3.768   8.360   4.104
32984SOL    HW2  850   3.718   8.499   4.074
32985SOL     OW  851   4.578   8.713   2.546
32985SOL    HW1  852   4.621   8.712   2.631
32985SOL    HW2  853   4.583   8.804   2.516
32986SOL     OW  854   6.750  10.408  10.343
32986SOL    HW1  855   6.703  10.325  10.355
32986SOL    HW2  856   6.683  10.469  10.313
32987SOL     OW  857   7.037   0.224  13.881
32987SOL    HW1  858   7.061   0.188  13.796
32987SOL    HW2  859   7.014   0.315  13.864
32988SOL     OW  860   3.177   2.625   0.589
32988SOL    HW1  861   3.208   2.608   0.677
32988SOL    HW2  862   3.082   2.609   0.593
32989SOL     OW  863   9.641   4.446  12.453
32989SOL    HW1  864   9.594   4.529  12.449
32989SOL    HW2  865   9.618   4.409  12.538
32990SOL     OW  866   4.057   4.285  13.213
32990SOL    HW1  867   4.037   4.291  13.120
32990SOL    HW2  868   4.151   4.299  13.219
32991SOL     OW  869   1.347   4.035  14.611
32991SOL    HW1  870   1.365   3.953  14.657
32991SOL    HW2  871   1.391   4.025  14.527
32992SOL     OW  872  14.561   6.781   3.888
32992SOL    HW1  873  14.586   6.697   3.848
32992SOL    HW2  874  14.470   6.769   3.914
32993SOL     OW  875   7.554  12.384  12.908
32993SOL    HW1  876   7.535  12.381  13.001
32993SOL    HW2  877   7.647  12.362  12.901
32994SOL     OW  878   4.757  10.917  11.347
32994SOL    HW1  879   4.684  10.971  11.316
32994SOL    HW2  880   4.716  10.853  11.406
32995SOL     OW  881   6.878   9.458  13.860
32995SOL    HW1  882   6.966   9.479  13.891
32995SOL    HW2  883   6.877   9.487  13.768
32996SOL     OW  884  10.755  11.379  14.577
32996SOL    HW1  885  10.697  11.445  14.538
32996SOL    HW2  886  10.843  11.417  14.569
32997SOL     OW  887  13.706   4.309   7.193
32997SOL    HW1  888  13.639   4.251   7.230
32997SOL    HW2  889  13.789   4.275   7.227
32998SOL     OW  890   9.133   0.333  13.319
32998SOL    HW1  891   9.194   0.287  13.262
32998SOL    HW2  892   9.160   0.309  13.408
32999SOL     OW  893   1.606   2.751  14.388
32999SOL    HW1  894   1.639   2.687  14.452
32999SOL    HW2  895   1.512   2.734  14.383
33000SOL     OW  896   2.710  11.600  12.170
33000SOL    HW1  897   2.745  11.598  12.259
33000SOL    HW2  898   2.724  11.511  12.137
33001SOL     OW  899   0.497   3.981   7.717
33001SOL    HW1  900   0.571   3.925   7.692
33001SOL    HW2  901   0.538   4.059   7.753
33002SOL     OW  902  11.481  10.551   3.707
33002SOL    HW1  903  11.541  10.623   3.689
33002SOL    HW2  904  11.487  10.494   3.630
33003SOL     OW  905   2.760   9.939   4.220
33003SOL    HW1  906   2.801  10.022   4.243
33003SOL    HW2  907   2.771   9.933   4.125
33004SOL     OW  908   3.513   5.366   1.207
33004SOL    HW1  909   3.423   5.343   1.233
33004SOL    HW2  910   3.517   5.461   1.215
33005SOL     OW  911   6.135  13.316   0.816
33005SOL    HW1  912   6.060  13.361   0.776
33005SOL    HW2  913   6.150  13.363   0.898
33006SOL     OW  914  10.188   1.662   8.195
33006SOL    HW1  915  10.189   1.655   8.290
33006SOL    HW2  916  10.264   1.716   8.174
33007SOL     OW  917  13.327   9.785   5.009
33007SOL    HW1  918  13.272   9.729   5.063
33007SOL    HW2  919  13.416   9.757   5.027
33008SOL     OW  920  12.105   9.500  11.240
33008SOL    HW1  921  12.172   9.432  11.244
33008SOL    HW2  922  12.153   9.580  11.220
33009SOL     OW  923   2.282  14.484   7.652
33009SOL    HW1  924   2.292  14.577   7.630
33009SOL    HW2  925   2.330  14.473   7.734
33010SOL     OW  926  14.023  10.573   6.300
33010SOL    HW1  927  14.099  10.609   6.253
33010SOL    HW2  928  13.953  10.574   6.235
33011SOL     OW  929  13.727   4.114   4.934
33011SOL    HW1  930  13.663   4.185   4.937
33011SOL    HW2  931  13.718   4.071   5.020
33012SOL     OW  932  13.742   4.281   1.621
33012SOL    HW1  933  13.815   4.291   1.682
33012SOL    HW2  934  13.780   4.302   1.535
33013SOL     OW  935   7.837  11.275  13.079
33013SOL    HW1  936   7.809  11.186  13.060
33013SOL    HW2  937   7.896  11.298  13.007
33014SOL     OW  938  13.330   6.675  10.482
33014SOL    HW1  939  13.277   6.704  10.408
33014SOL    HW2  940  13.284   6.710  10.559
33015SOL     OW  941  10.015  13.730   7.355
33015SOL    HW1  942  10.003  13.674   7.431
33015SOL    HW2  943  10.075  13.682   7.299
33016SOL     OW  944   5.915  11.553   1.686
33016SOL    HW1  945   5.847  11.608   1.724
33016SOL    HW2  946   5.900  11.466   1.724
33017SOL     OW  947  12.302   0.741  11.687
33017SOL    HW1  948  12.257   0.754  11.770
33017SOL    HW2  949  12.255   0.669  11.645
33018SOL     OW  950   4.667   0.899   9.017
33018SOL    HW1  951   4.607   0.941   9.080
33018SOL    HW2  952   4.693   0.970   8.959
33019SOL     OW  953  11.939  12.803   6.518
33019SOL    HW1  954  11.929  12.790   6.612
33019SOL    HW2  955  11.987  12.885   6.511
33020SOL     OW  956   1.972  10.482   5.919
33020SOL    HW1  957   2.022  10.457   5.997
33020SOL    HW2  958   2.037  10.511   5.856
33021SOL     OW  959   2.384   3.719   4.999
33021SOL    HW1  960   2.366   3.760   5.084
33021SOL    HW2  961   2.475   3.745   4.980
33022SOL     OW  962  11.687   1.936   3.251
33022SOL    HW1  963  11.648   1.981   3.326
33022SOL    HW2  964  11.613   1.921   3.191
33023SOL     OW  965  10.911  11.603  13.286
33023SOL    HW1  966  10.862  11.641  13.213
33023SOL    HW2  967  10.954  11.526  13.248
33024SOL     OW  968   9.402   4.982   6.622
33024SOL    HW1  969   9.386   4.983   6.528
33024SOL    HW2  970   9.436   5.069   6.641
33025SOL     OW  971  14.472   8.868   1.707
33025SOL    HW1  972  14.383   8.835   1.711
33025SOL    HW2  973  14.517   8.824   1.780
33026SOL     OW  974   0.299   5.122   7.695
33026SOL    HW1  975   0.256   5.058   7.751
33026SOL    HW2  976   0.304   5.080   7.609
33027SOL     OW  977  10.752  12.471  13.935
33027SOL    HW1  978  10.668  12.427  13.926
33027SOL    HW2  979  10.816  12.409  13.901
33028SOL     OW  980  10.358   4.058   7.829
33028SOL    HW1  981  10.300   4.016   7.892
33028SOL    HW2  982  10.431   4.091   7.881
33029SOL     OW  983   9.288   9.607  12.192
33029SOL    HW1  984   9.230   9.627  12.118
33029SOL    HW2  985   9.312   9.692  12.227
33030SOL     OW  986   6.155   1.064   2.770
33030SOL    HW1  987   6.191   1.026   2.690
33030SOL    HW2  988   6.210   1.141   2.787
33031SOL     OW  989  12.057  13.341   7.015
33031SOL    HW1  990  12.018  13.302   7.093
33031SOL    HW2  991  12.067  13.267   6.954
33032SOL     OW  992   1.776   5.454  10.100
33032SOL    HW1  993   1.767   5.465  10.195
33032SOL    HW2  994   1.746   5.537  10.063
33033SOL     OW  995   3.278   2.872  13.435
33033SOL    HW1  996   3.225   2.896  13.511
33033SOL    HW2  997   3.316   2.787  13.458
33034SOL     OW  998   2.739  14.841   8.830
33034SOL    HW1  999   2.656  14.798   8.848
33034SOL    HW2 1000   2.726   0.051   8.858
33035SOL     OW 1001   7.513   0.402   6.316
33035SOL    HW1 1002   7.459   0.345   6.261
33035SOL    HW2 1003   7.512   0.360   6.402
33036SOL     OW 1004   9.740  13.046   0.123
33036SOL    HW1 1005   9.820  13.099   0.115
33036SOL    HW2 1006   9.672  13.109   0.148
33037SOL     OW 1007  14.783   3.285  11.502
33037SOL    HW1 1008  14.723   3.266  11.574
33037SOL    HW2 1009  14.730   3.335  11.440
33038SOL     OW 1010   6.765   9.420   0.845
33038SOL    HW1 1011   6.698   9.399   0.909
33038SOL    HW2 1012   6.748   9.512   0.821
33039SOL     OW 1013   4.522  11.716  13.712
33039SOL    HW1 1014   4.559  11.664  13.784
33039SOL    HW2 1015   4.438  11.675  13.693
33040SOL     OW 1016   7.321  11.173   4.743
33040SOL    HW1 1017   7.275  11.157   4.661
33040SOL    HW2 1018   7.253  11.205   4.802
33041SOL     OW 1019   5.865   8.876   0.931
33041SOL    HW1 1020   5.822   8.959   0.911
33041SOL    HW2 1021   5.812   8.838   1.001
33042SOL     OW 1022  13.376   3.374  12.711
33042SOL    HW1 1023  13.385   3.307  12.778
33042SOL    HW2 1024  13.456   3.366  12.658
33043SOL     OW 1025   8.596   0.145   0.181
33043SOL    HW1 1026   8.652   0.182   0.113
33043SOL    HW2 1027   8.528   0.097   0.133
33044SOL     OW 1028  10.385  13.697   7.458
33044SOL    HW1 1029  10.367  13.631   7.391
33044SOL    HW2 1030  10.477  13.721   7.443
33045SOL     OW 1031  10.290   0.763  13.488
33045SOL    HW1 1032  10.342   0.844  13.497
33045SOL    HW2 1033  10.349   0.694  13.518
33046SOL     OW 1034   0.741   7.291  13.584
33046SOL    HW1 1035   0.801   7.299  13.509
33046SOL    HW2 1036   0.798   7.266  13.657
33047SOL     OW 1037   8.041   1.408  14.428
33047SOL    HW1 1038   7.985   1.353  14.374
33047SOL    HW2 1039   8.122   1.417  14.378
33048SOL     OW 1040   3.308   6.270   3.947
33048SOL    HW1 1041   3.398   6.292   3.973
33048SOL    HW2 1042   3.309   6.272   3.851
33049SOL     OW 1043  13.473  11.020   3.060
33049SOL    HW1 1044  13.416  11.034   2.984
33049SOL    HW2 1045  13.516  11.105   3.074
33050SOL     OW 1046   5.850   3.652  12.683
33050SOL    HW1 1047   5.863   3.747  12.691
33050SOL    HW2 1048   5.925   3.613  12.728
33051SOL     OW 1049   5.908   5.438  13.792
33051SOL    HW1 1050   5.977   5.461  13.854
33051SOL    HW2 1051   5.850   5.379  13.841
33052SOL     OW 1052   6.683   1.537   1.039
33052SOL    HW1 1053   6.601   1.488   1.051
33052SOL    HW2 1054   6.725   1.496   0.964
33053SOL     OW 1055   4.207  11.607   2.061
33053SOL    HW1 1056   4.179  11.607   1.970
33053SOL    HW2 1057   4.126  11.589   2.110
33054SOL     OW 1058  13.668  10.507  14.840
33054SOL    HW1 1059  13.665  10.596  14.874
33054SOL    HW2 1060  13.630  10.454   0.029
33055SOL     OW 1061   5.413   3.481   4.379
33055SOL    HW1 1062   5.367   3.558   4.411
33055SOL    HW2 1063   5.431   3.429   4.457
33056SOL     OW 1064  11.688  12.341  13.827
33056SOL    HW1 1065  11.618  12.314  13.768
33056SOL    HW2 1066  11.682  12.437  13.828
33057SOL     OW 1067   2.706  10.301  14.245
33057SOL    HW1 1068   2.733  10.392  14.246
33057SOL    HW2 1069   2.612  10.303  14.260
33058SOL     OW 1070  13.598  13.557   1.576
33058SOL    HW1 1071  13.555  13.639   1.551
33058SOL    HW2 1072  13.526  13.494   1.583
33059SOL     OW 1073  14.060   2.691  11.505
33059SOL    HW1 1074  13.975   2.726  11.527
33059SOL    HW2 1075  14.121   2.763  11.520
33060SOL     OW 1076   3.584   1.809  12.079
33060SOL    HW1 1077   3.679   1.812  12.089
33060SOL    HW2 1078   3.567   1.723  12.041
33061SOL     OW 1079   1.326   8.949  12.220
33061SOL    HW1 1080   1.323   8.882  12.289
33061SOL    HW2 1081   1.282   8.909  12.145
33062SOL     OW 1082   0.563   4.635   9.630
33062SOL    HW1 1083   0.524   4.628   9.543
33062SOL    HW2 1084   0.623   4.710   9.623
33063SOL     OW 1085  10.585   6.310   9.860
33063SOL    HW1 1086  10.629   6.247   9.916
33063SOL    HW2 1087  10.551   6.259   9.787
33064SOL     OW 1088   2.905  12.992   4.516
33064SOL    HW1 1089   2.896  13.077   4.557
33064SOL    HW2 1090   2.987  12.956   4.551
33065SOL     OW 1091   3.288   0.783  11.432
33065SOL    HW1 1092   3.248   0.727  11.498
33065SOL    HW2 1093   3.368   0.815  11.473
33066SOL     OW 1094   4.793   4.269   9.436
33066SOL    HW1 1095   4.799   4.350   9.385
33066SOL    HW2 1096   4.731   4.215   9.388
33067SOL     OW 1097   1.823   8.214   0.013
33067SOL    HW1 1098   1.845   8.233   0.104
33067SOL    HW2 1099   1.892   8.257  14.842
33068SOL     OW 1100  10.845   3.592  10.463
33068SOL    HW1 1101  10.933   3.606  10.499
33068SOL    HW2 1102  10.838   3.497  10.453
33069SOL     OW 1103   7.543   4.769   1.708
33069SOL    HW1 1104   7.612   4.792   1.770
33069SOL    HW2 1105   7.523   4.678   1.729
33070SOL     OW 1106   6.674   1.965  12.616
33070SOL    HW1 1107   6.671   1.881  12.662
33070SOL    HW2 1108   6.717   1.945  12.533
33071SOL     OW 1109   6.840   9.512  14.316
33071SOL    HW1 1110   6.779   9.473  14.253
33071SOL    HW2 1111   6.817   9.470  14.399
33072SOL     OW 1112  13.460   6.975  13.730
33072SOL    HW1 1113  13.435   7.049  13.675
33072SOL    HW2 1114  13.388   6.968  13.794
33073SOL     OW 1115  12.784  14.281  12.785
33073SOL    HW1 1116  12.773  14.201  12.735
33073SOL    HW2 1117  12.695  14.310  12.806
33074SOL     OW 1118   3.494   3.957  14.263
33074SOL    HW1 1119   3.492   3.867  14.232
33074SOL    HW2 1120   3.518   3.950  14.356
33075SOL     OW 1121  11.486   2.618  13.107
33075SOL    HW1 1122  11.416   2.595  13.045
33075SOL    HW2 1123  11.532   2.691  13.066
33076SOL     OW 1124   8.648   5.989   8.400
33076SOL    HW1 1125   8.617   5.947   8.480
33076SOL    HW2 1126   8.667   5.917   8.340
33077SOL     OW 1127   2.458  12.855  11.737
33077SOL    HW1 1128   2.368  12.843  11.769
33077SOL    HW2 1129   2.494  12.767  11.733
33078SOL     OW 1130   8.883   5.237  12.247
33078SOL    HW1 1131   8.924   5.249  12.332
33078SOL    HW2 1132   8.789   5.237  12.265
33079SOL     OW 1133   6.575  13.741   1.622
33079SOL    HW1 1134   6.616  13.673   1.675
33079SOL    HW2 1135   6.509  13.779   1.680
33080SOL     OW 1136  13.594   5.827   7.387
33080SOL    HW1 1137  13.609   5.739   7.421
33080SOL    HW2 1138  13.641   5.884   7.447
33081SOL     OW 1139   6.516   4.014  14.790
33081SOL    HW1 1140   6.579   3.954  14.751
33081SOL    HW2 1141   6.569   4.086  14.825
33082SOL     OW 1142   5.076   8.131   6.565
33082SOL    HW1 1143   5.145   8.170   6.618
33082SOL    HW2 1144   5.085   8.037   6.578
33083SOL     OW 1145   2.780  14.593   9.638
33083SOL    HW1 1146   2.868  14.589   9.602
33083SOL    HW2 1147   2.756  14.502   9.656
33084SOL     OW 1148  12.188   3.426   6.064
33084SOL    HW1 1149  12.251   3.491   6.034
33084SOL    HW2 1150  12.218   3.343   6.027
33085SOL     OW 1151  13.859   8.471   4.971
33085SOL    HW1 1152  13.874   8.551   4.920
33085SOL    HW2 1153  13.911   8.483   5.050
33086SOL     OW 1154   7.573   0.378   2.823
33086SOL    HW1 1155   7.522   0.399   2.902
33086SOL    HW2 1156   7.605   0.463   2.792
33087SOL     OW 1157  11.134  14.003  12.218
33087SOL    HW1 1158  11.140  14.039  12.129
33087SOL    HW2 1159  11.075  13.928  12.210
33088SOL     OW 1160  14.644  10.439  14.813
33088SOL    HW1 1161  14.664  10.415   0.023
33088SOL    HW2 1162  14.556  10.404  14.797
33089SOL     OW 1163   0.289   8.789   0.345
33089SOL    HW1 1164   0.375   8.780   0.304
33089SOL    HW2 1165   0.289   8.878   0.380
33090SOL     OW 1166   6.524  14.737   3.196
33090SOL    HW1 1167   6.484  14.766   3.278
33090SOL    HW2 1168   6.602  14.688   3.224
33091SOL     OW 1169   5.826   3.062   5.580
33091SOL    HW1 1170   5.825   2.991   5.644
33091SOL    HW2 1171   5.775   3.131   5.621
33092SOL     OW 1172  10.321   1.810  11.183
33092SOL    HW1 1173  10.279   1.895  11.197
33092SOL    HW2 1174  10.251   1.754  11.150
33093SOL     OW 1175  14.054   0.112   2.041
33093SOL    HW1 1176  14.008   0.148   2.117
33093SOL    HW2 1177  14.015   0.157   1.966
33094SOL     OW 1178   9.027   1.444  10.446
33094SOL    HW1 1179   8.932   1.458  10.443
33094SOL    HW2 1180   9.037   1.361  10.493
33095SOL     OW 1181   9.951   7.563   4.742
33095SOL    HW1 1182   9.868   7.609   4.737
33095SOL    HW2 1183   9.945   7.493   4.677
33096SOL     OW 1184   6.664   9.803  10.669
33096SOL    HW1 1185   6.643   9.719  10.628
33096SOL    HW2 1186   6.714   9.851  10.603
33097SOL     OW 1187   8.988   4.845  11.188
33097SOL    HW1 1188   9.066   4.893  11.160
33097SOL    HW2 1189   9.022   4.778  11.248
33098SOL     OW 1190   5.346  10.956   3.670
33098SOL    HW1 1191   5.325  10.862   3.664
33098SOL    HW2 1192   5.381  10.967   3.758
33099SOL     OW 1193   4.820  10.081   3.510
33099SOL    HW1 1194   4.874  10.007   3.481
33099SOL    HW2 1195   4.755  10.041   3.568
33100SOL     OW 1196   4.000   1.327   9.090
33100SOL    HW1 1197   4.015   1.333   8.996
33100SOL    HW2 1198   3.989   1.418   9.118
33101SOL     OW 1199   8.094   1.569  12.811
33101SOL    HW1 1200   8.110   1.519  12.891
33101SOL    HW2 1201   8.097   1.661  12.840
33102SOL     OW 1202   7.852  14.705   5.153
33102SOL    HW1 1203   7.863  14.762   5.077
33102SOL    HW2 1204   7.849  14.616   5.117
33103SOL     OW 1205  12.541   5.828  10.001
33103SOL    HW1 1206  12.459   5.839   9.953
33103SOL    HW2 1207  12.609   5.861   9.942
33104SOL     OW 1208   8.341   7.716   9.114
33104SOL    HW1 1209   8.295   7.800   9.107
33104SOL    HW2 1210   8.420   7.737   9.164
33105SOL     OW 1211   0.665   0.503   4.636
33105SOL    HW1 1212   0.603   0.576   4.629
33105SOL    HW2 1213   0.637   0.440   4.570
33106SOL     OW 1214  14.220   1.917  11.706
33106SOL    HW1 1215  14.127   1.893  11.701
33106SOL    HW2 1216  14.266   1.836  11.684
33107SOL     OW 1217  14.797  14.623   6.674
33107SOL    HW1 1218  14.770  14.705   6.717
33107SOL    HW2 1219  14.863  14.586   6.733
33108SOL     OW 1220   8.302   3.329  14.729
33108SOL    HW1 1221   8.280   3.300  14.640
33108SOL    HW2 1222   8.218   3.342  14.772
33109SOL     OW 1223   4.265   4.453  13.856
33109SOL    HW1 1224   4.242   4.435  13.764
33109SOL    HW2 1225   4.243   4.545  13.868
33110SOL     OW 1226   9.266   6.682   5.949
33110SOL    HW1 1227   9.184   6.711   5.988
33110SOL    HW2 1228   9.248   6.595   5.915
33111SOL     OW 1229   3.815   9.722   9.461
33111SOL    HW1 1230   3.814   9.627   9.464
33111SOL    HW2 1231   3.873   9.743   9.388
33112SOL     OW 1232  12.125   7.866   9.304
33112SOL    HW1 1233  12.100   7.874   9.396
33112SOL    HW2 1234  12.123   7.956   9.271
33113SOL     OW 1235  14.361   6.855  10.474
33113SOL    HW1 1236  14.271   6.871  10.502
33113SOL    HW2 1237  14.406   6.938  10.486
33114SOL     OW 1238   8.960   9.999  14.156
33114SOL    HW1 1239   9.044   9.964  14.188
33114SOL    HW2 1240   8.900   9.986  14.229
33115SOL     OW 1241  10.569   5.119   3.132
33115SOL    HW1 1242  10.629   5.072   3.189
33115SOL    HW2 1243  10.623   5.152   3.061
33116SOL     OW 1244  14.216   9.536   1.245
33116SOL    HW1 1245  14.282   9.592   1.204
33116SOL    HW2 1246  14.144   9.533   1.183
33117SOL     OW 1247   8.520   7.225   6.390
33117SOL    HW1 1248   8.459   7.232   6.317
33117SOL    HW2 1249   8.594   7.281   6.365
33118SOL     OW 1250   3.230   6.207   7.078
33118SOL    HW1 1251   3.216   6.113   7.090
33118SOL    HW2 1252   3.154   6.237   7.030
33119SOL     OW 1253   1.948   5.065   0.500
33119SOL    HW1 1254   1.945   5.161   0.495
33119SOL    HW2 1255   2.006   5.047   0.574
33120SOL     OW 1256   1.202   2.374   1.784
33120SOL    HW1 1257   1.173   2.375   1.693
33120SOL    HW2 1258   1.288   2.417   1.782
33121SOL     OW 1259   4.478  11.487  11.301
33121SOL    HW1 1260   4.518  11.554  11.356
33121SOL    HW2 1261   4.501  11.513  11.212
33122SOL     OW 1262  11.953   9.251  14.487
33122SOL    HW1 1263  11.944   9.171  14.539
33122SOL    HW2 1264  11.906   9.317  14.538
33123SOL     OW 1265   8.791  10.969   5.087
33123SOL    HW1 1266   8.859  10.925   5.035
33123SOL    HW2 1267   8.807  10.939   5.177
33124SOL     OW 1268   0.995   1.740   2.323
33124SOL    HW1 1269   1.052   1.817   2.326
33124SOL    HW2 1270   0.931   1.761   2.255
33125SOL     OW 1271   6.296  14.207   5.146
33125SOL    HW1 1272   6.203  14.184   5.152
33125SOL    HW2 1273   6.304  14.252   5.062
33126SOL     OW 1274   4.936  14.488   0.299
33126SOL    HW1 1275   4.967  14.561   0.351
33126SOL    HW2 1276   4.912  14.421   0.363
33127SOL     OW 1277   0.551   8.678   7.415
33127SOL    HW1 1278   0.580   8.626   7.491
33127SOL    HW2 1279   0.629   8.725   7.387
33128SOL     OW 1280   0.451   9.182   8.068
33128SOL    HW1 1281   0.429   9.275   8.061
33128SOL    HW2 1282   0.512   9.177   8.141
33129SOL     OW 1283  11.024   0.540   6.325
33129SOL    HW1 1284  10.977   0.598   6.266
33129SOL    HW2 1285  10.991   0.452   6.304
33130SOL     OW 1286   4.233   9.403   9.482
33130SOL    HW1 1287   4.198   9.348   9.551
33130SOL    HW2 1288   4.229   9.349   9.403
33131SOL     OW 1289   6.632   0.763  10.629
33131SOL    HW1 1290   6.694   0.775  10.558
33131SOL    HW2 1291   6.680   0.790  10.707
33132SOL     OW 1292   4.870   2.987   8.490
33132SOL    HW1 1293   4.950   2.996   8.542
33132SOL    HW2 1294   4.819   3.065   8.511
33133SOL     OW 1295  11.118   8.567  14.742
33133SOL    HW1 1296  11.054   8.623  14.697
33133SOL    HW2 1297  11.127   8.606  14.829
33134SOL     OW 1298   8.666   5.600   8.388
33134SOL    HW1 1299   8.727   5.658   8.434
33134SOL    HW2 1300   8.721   5.552   8.325
33135SOL     OW 1301   6.608   8.684   1.547
33135SOL    HW1 1302   6.676   8.743   1.515
33135SOL    HW2 1303   6.556   8.737   1.607
33136SOL     OW 1304   2.924   4.705  13.469
33136SOL    HW1 1305   2.840   4.739  13.497
33136SOL    HW2 1306   2.949   4.643  13.537
33137SOL     OW 1307   1.264  14.764  13.641
33137SOL    HW1 1308   1.243  14.751  13.733
33137SOL    HW2 1309   1.275  14.676  13.606
33138SOL     OW 1310   1.929   6.375  12.540
33138SOL    HW1 1311   1.981   6.403  12.464
33138SOL    HW2 1312   1.840   6.402  12.520
33139SOL     OW 1313   2.114   5.002   1.796
33139SOL    HW1 1314   2.083   4.929   1.849
33139SOL    HW2 1315   2.191   4.967   1.750
33140SOL     OW 1316   6.135   6.338   6.544
33140SOL    HW1 1317   6.091   6.254   6.537
33140SOL    HW2 1318   6.228   6.316   6.551
33141SOL     OW 1319   7.304   0.393  10.344
33141SOL    HW1 1320   7.252   0.473  10.351
33141SOL    HW2 1321   7.295   0.366  10.253
33142SOL     OW 1322   8.400   5.511   9.014
33142SOL    HW1 1323   8.386   5.605   9.012
33142SOL    HW2 1324   8.423   5.488   8.924
33143SOL     OW 1325   8.172   4.615   7.441
33143SOL    HW1 1326   8.254   4.580   7.477
33143SOL    HW2 1327   8.199   4.667   7.365
33144SOL     OW 1328   1.407   3.193   0.899
33144SOL    HW1 1329   1.345   3.252   0.857
33144SOL    HW2 1330   1.461   3.159   0.827
33145SOL     OW 1331  12.860   6.360   4.760
33145SOL    HW1 1332  12.941   6.385   4.715
33145SOL    HW2 1333  12.812   6.307   4.696
33146SOL     OW 1334   1.307  14.781  12.554
33146SOL    HW1 1335   1.293  14.854  12.615
33146SOL    HW2 1336   1.243  14.715  12.580
33147SOL     OW 1337   4.705   8.055  13.980
33147SOL    HW1 1338   4.617   8.083  13.953
33147SOL    HW2 1339   4.725   7.981  13.922
33148SOL     OW 1340   4.095  12.623  11.000
33148SOL    HW1 1341   4.164  12.624  10.934
33148SOL    HW2 1342   4.027  12.680  10.964
33149SOL     OW 1343   8.446  12.510   1.023
33149SOL    HW1 1344   8.395  12.463   0.956
33149SOL    HW2 1345   8.388  12.515   1.098
33150SOL     OW 1346  10.237   2.594  14.015
33150SOL    HW1 1347  10.280   2.670  13.976
33150SOL    HW2 1348  10.146   2.621  14.027
33151SOL     OW 1349   7.509   2.602   2.681
33151SOL    HW1 1350   7.542   2.665   2.617
33151SOL    HW2 1351   7.449   2.653   2.735
33152SOL     OW 1352   9.718  13.773   6.037
33152SOL    HW1 1353   9.699  13.741   6.125
33152SOL    HW2 1354   9.684  13.862   6.036
33153SOL     OW 1355   1.868   3.193   1.019
33153SOL    HW1 1356   1.946   3.248   1.030
33153SOL    HW2 1357   1.812   3.216   1.094
33154SOL     OW 1358   9.010   7.526   4.371
33154SOL    HW1 1359   8.966   7.446   4.342
33154SOL    HW2 1360   8.940   7.591   4.376
33155SOL     OW 1361  14.655   4.507   1.437
33155SOL    HW1 1362  14.705   4.572   1.388
33155SOL    HW2 1363  14.621   4.447   1.370
33156SOL     OW 1364   7.972   1.506   0.886
33156SOL    HW1 1365   7.937   1.422   0.856
33156SOL    HW2 1366   8.032   1.483   0.957
33157SOL     OW 1367   8.303   8.003   8.151
33157SOL    HW1 1368   8.294   8.057   8.230
33157SOL    HW2 1369   8.345   7.923   8.182
33158SOL     OW 1370  12.068  12.199   0.136
33158SOL    HW1 1371  12.046  12.186   0.044
33158SOL    HW2 1372  12.057  12.293   0.151
33159SOL     OW 1373   0.969   7.390   4.361
33159SOL    HW1 1374   1.011   7.470   4.393
33159SOL    HW2 1375   0.897   7.421   4.306
33160SOL     OW 1376  11.356  12.000   3.887
33160SOL    HW1 1377  11.262  12.013   3.871
33160SOL    HW2 1378  11.364  11.906   3.902
33161SOL     OW 1379   0.402   7.473  13.031
33161SOL    HW1 1380   0.431   7.504  12.945
33161SOL    HW2 1381   0.466   7.508  13.092
33162SOL     OW 1382   4.435   8.528   1.345
33162SOL    HW1 1383   4.434   8.622   1.329
33162SOL    HW2 1384   4.527   8.510   1.368
33163SOL     OW 1385   7.335   1.397   4.254
33163SOL    HW1 1386   7.382   1.451   4.318
33163SOL    HW2 1387   7.319   1.314   4.299
33164SOL     OW 1388  13.302   1.075   8.241
33164SOL    HW1 1389  13.320   1.170   8.241
33164SOL    HW2 1390  13.218   1.066   8.285
33165SOL     OW 1391   0.482   2.360  12.737
33165SOL    HW1 1392   0.502   2.426  12.803
33165SOL    HW2 1393   0.393   2.331  12.757
33166SOL     OW 1394   8.813  13.130   6.382
33166SOL    HW1 1395   8.764  13.179   6.317
33166SOL    HW2 1396   8.751  13.117   6.454
33167SOL     OW 1397   1.905   9.955   5.951
33167SOL    HW1 1398   1.985  10.005   5.966
33167SOL    HW2 1399   1.849   9.977   6.026
33168SOL     OW 1400  11.828   5.452  13.127
33168SOL    HW1 1401  11.782   5.441  13.210
33168SOL    HW2 1402  11.804   5.540  13.098
33169SOL     OW 1403  11.367   3.748   8.203
33169SOL    HW1 1404  11.434   3.681   8.191
33169SOL    HW2 1405  11.386   3.814   8.137
33170SOL     OW 1406  11.108   3.569   4.264
33170SOL    HW1 1407  11.033   3.607   4.311
33170SOL    HW2 1408  11.164   3.534   4.333
33171SOL     OW 1409  11.771   5.371   5.250
33171SOL    HW1 1410  11.797   5.349   5.161
33171SOL    HW2 1411  11.853   5.397   5.293
33172SOL     OW 1412  14.727   8.377   6.344
33172SOL    HW1 1413  14.791   8.447   6.339
33172SOL    HW2 1414  14.694   8.367   6.255
33173SOL     OW 1415  12.675   9.505   2.743
33173SOL    HW1 1416  12.612   9.521   2.813
33173SOL    HW2 1417  12.674   9.585   2.691
33174SOL     OW 1418   6.694  11.863  14.690
33174SOL    HW1 1419   6.647  11.842  14.771
33174SOL    HW2 1420   6.636  11.924  14.645
33175SOL     OW 1421   6.606   6.820   8.442
33175SOL    HW1 1422   6.655   6.897   8.413
33175SOL    HW2 1423   6.571   6.781   8.362
33176SOL     OW 1424   9.821  10.789   3.477
33176SOL    HW1 1425   9.779  10.829   3.401
33176SOL    HW2 1426   9.914  10.809   3.465
33177SOL     OW 1427   5.643   9.878   9.854
33177SOL    HW1 1428   5.568   9.933   9.833
33177SOL    HW2 1429   5.661   9.896   9.946
33178SOL     OW 1430   3.474   9.400   4.197
33178SOL    HW1 1431   3.488   9.434   4.108
33178SOL    HW2 1432   3.457   9.478   4.250
33179SOL     OW 1433   8.393   9.166   4.342
33179SOL    HW1 1434   8.420   9.100   4.405
33179SOL    HW2 1435   8.471   9.182   4.288
33180SOL     OW 1436  10.290  11.592   2.315
33180SOL    HW1 1437  10.366  11.569   2.368
33180SOL    HW2 1438  10.317  11.669   2.265
33181SOL     OW 1439   7.151   5.591  14.833
33181SOL    HW1 1440   7.191   5.537   0.020
33181SOL    HW2 1441   7.070   5.623  14.872
33182SOL     OW 1442  10.324   7.379  13.705
33182SOL    HW1 1443  10.338   7.470  13.734
33182SOL    HW2 1444  10.288   7.388  13.617
33183SOL     OW 1445   2.722   2.559   6.728
33183SOL    HW1 1446   2.774   2.520   6.798
33183SOL    HW2 1447   2.763   2.528   6.647
33184SOL     OW 1448   3.820   0.479  10.210
33184SOL    HW1 1449   3.828   0.497  10.304
33184SOL    HW2 1450   3.788   0.389  10.206
33185SOL     OW 1451   8.599   3.607  11.243
33185SOL    HW1 1452   8.633   3.584  11.156
33185SOL    HW2 1453   8.648   3.552  11.303
33186SOL     OW 1454   8.197   6.090   6.746
33186SOL    HW1 1455   8.160   6.041   6.672
33186SOL    HW2 1456   8.121   6.114   6.799
33187SOL     OW 1457   4.993   4.111   9.311
33187SOL    HW1 1458   5.033   4.027   9.286
33187SOL    HW2 1459   4.905   4.087   9.340
33188SOL     OW 1460  12.646   4.737   5.251
33188SOL    HW1 1461  12.631   4.678   5.177
33188SOL    HW2 1462  12.727   4.783   5.230
33189SOL     OW 1463  12.527  13.884   9.642
33189SOL    HW1 1464  12.565  13.969   9.622
33189SOL    HW2 1465  12.600  13.822   9.635
33190SOL     OW 1466   7.681   1.250   3.398
33190SOL    HW1 1467   7.763   1.299   3.389
33190SOL    HW2 1468   7.698   1.166   3.355
33191SOL     OW 1469  12.614   3.365  10.627
33191SOL    HW1 1470  12.605   3.329  10.715
33191SOL    HW2 1471  12.702   3.338  10.600
33192SOL     OW 1472   0.772   1.527   9.561
33192SOL    HW1 1473   0.680   1.543   9.582
33192SOL    HW2 1474   0.795   1.596   9.499
33193SOL     OW 1475  10.582   1.805   6.946
33193SOL    HW1 1476  10.570   1.888   6.992
33193SOL    HW2 1477  10.639   1.754   7.003
33194SOL     OW 1478   3.885   6.422  13.001
33194SOL    HW1 1479   3.910   6.473  12.924
33194SOL    HW2 1480   3.917   6.334  12.983
33195SOL     OW 1481  14.747  10.515   1.707
33195SOL    HW1 1482  14.676  10.451   1.706
33195SOL    HW2 1483  14.826  10.464   1.726
33196SOL     OW 1484   4.326   7.069   5.430
33196SOL    HW1 1485   4.373   7.135   5.378
33196SOL    HW2 1486   4.315   7.110   5.516
33197SOL     OW 1487  12.958  11.623   6.328
33197SOL    HW1 1488  12.874  11.597   6.289
33197SOL    HW2 1489  12.943  11.621   6.422
33198SOL     OW 1490   9.623   7.221  10.530
33198SOL    HW1 1491   9.617   7.145  10.588
33198SOL    HW2 1492   9.541   7.268  10.543
33199SOL     OW 1493   2.694  14.307  14.244
33199SOL    HW1 1494   2.788  14.313  14.228
33199SOL    HW2 1495   2.677  14.369  14.314
33200SOL     OW 1496   0.001   9.366   1.290
33200SOL    HW1 1497   0.066   9.339   1.355
33200SOL    HW2 1498  14.799   9.370   1.339
33201SOL     OW 1499   7.367   5.021  10.609
33201SOL    HW1 1500   7.427   5.047  10.540
33201SOL    HW2 1501   7.415   4.957  10.661
33202SOL     OW 1502  11.275  13.727   5.342
33202SOL    HW1 1503  11.294  13.758   5.431
33202SOL    HW2 1504  11.245  13.637   5.355
33203SOL     OW 1505   0.704   1.278   9.401
33203SOL    HW1 1506   0.745   1.306   9.483
33203SOL    HW2 1507   0.644   1.349   9.379
33204SOL     OW 1508  10.543   5.277   5.256
33204SOL    HW1 1509  10.449   5.290   5.244
33204SOL    HW2 1510  10.571   5.234   5.175
33205SOL     OW 1511  11.724   8.528  11.367
33205SOL    HW1 1512  11.695   8.605  11.318
33205SOL    HW2 1513  11.719   8.457  11.304
33206SOL     OW 1514   4.306   4.114   5.203
33206SOL    HW1 1515   4.278   4.074   5.286
33206SOL    HW2 1516   4.342   4.199   5.229
33207SOL     OW 1517   6.028  11.505  13.454
33207SOL    HW1 1518   5.959  11.445  13.425
33207SOL    HW2 1519   6.005  11.589  13.414
33208SOL     OW 1520   8.935   4.634   7.805
33208SOL    HW1 1521   8.865   4.659   7.744
33208SOL    HW2 1522   9.011   4.619   7.749
33209SOL     OW 1523   0.466  10.780   2.258
33209SOL    HW1 1524   0.497  10.831   2.183
33209SOL    HW2 1525   0.545  10.739   2.293
33210SOL     OW 1526   8.577   5.878   4.718
33210SOL    HW1 1527   8.602   5.837   4.635
33210SOL    HW2 1528   8.587   5.972   4.702
33211SOL     OW 1529  11.914   6.654  10.596
33211SOL    HW1 1530  11.887   6.681  10.684
33211SOL    HW2 1531  11.995   6.606  10.609
33212SOL     OW 1532   0.167  13.848   6.026
33212SOL    HW1 1533   0.186  13.927   5.975
33212SOL    HW2 1534   0.248  13.829   6.072
33213SOL     OW 1535   1.540   5.422   2.686
33213SOL    HW1 1536   1.550   5.518   2.682
33213SOL    HW2 1537   1.500   5.406   2.771
33214SOL     OW 1538  10.071   3.953  11.848
33214SOL    HW1 1539   9.998   4.010  11.875
33214SOL    HW2 1540  10.029   3.875  11.812
33215SOL     OW 1541   3.242   6.355  10.310
33215SOL    HW1 1542   3.297   6.422  10.269
33215SOL    HW2 1543   3.283   6.272  10.285
33216SOL     OW 1544   5.845   2.568   4.645
33216SOL    HW1 1545   5.940   2.566   4.649
33216SOL    HW2 1546   5.823   2.661   4.647
33217SOL     OW 1547   5.437   1.627   4.490
33217SOL    HW1 1548   5.387   1.706   4.474
33217SOL    HW2 1549   5.384   1.556   4.455
33218SOL     OW 1550   3.211   6.585   3.608
33218SOL    HW1 1551   3.211   6.662   3.666
33218SOL    HW2 1552   3.304   6.566   3.594
33219SOL     OW 1553   4.301   1.663   6.715
33219SOL    HW1 1554   4.249   1.718   6.657
33219SOL    HW2 1555   4.367   1.623   6.658
33220SOL     OW 1556  10.943  13.334   5.649
33220SOL    HW1 1557  10.899  13.417   5.630
33220SOL    HW2 1558  10.917  13.314   5.739
33221SOL     OW 1559   0.549   6.056  13.628
33221SOL    HW1 1560   0.537   5.962  13.644
33221SOL    HW2 1561   0.622   6.061  13.567
33222SOL     OW 1562   5.062   9.006   3.537
33222SOL    HW1 1563   5.104   8.924   3.564
33222SOL    HW2 1564   4.968   8.990   3.552
33223SOL     OW 1565  13.430  10.156  14.384
33223SOL    HW1 1566  13.407  10.068  14.414
33223SOL    HW2 1567  13.493  10.142  14.313
33224SOL     OW 1568   6.488   6.007   6.648
33224SOL    HW1 1569   6.438   6.017   6.567
33224SOL    HW2 1570   6.438   5.943   6.699
33225SOL     OW 1571  14.192  10.551   3.981
33225SOL    HW1 1572  14.212  10.579   3.892
33225SOL    HW2 1573  14.119  10.490   3.972
33226SOL     OW 1574   7.915  11.453   4.727
33226SOL    HW1 1575   7.823  11.466   4.748
33226SOL    HW2 1576   7.915  11.384   4.660
33227SOL     OW 1577   9.702   2.384   4.590
33227SOL    HW1 1578   9.723   2.461   4.644
33227SOL    HW2 1579   9.607   2.387   4.581
33228SOL     OW 1580   4.566   9.328  10.381
33228SOL    HW1 1581   4.506   9.400  10.402
33228SOL    HW2 1582   4.548   9.308  10.289
33229SOL     OW 1583  11.697   7.862   8.439
33229SOL    HW1 1584  11.737   7.798   8.379
33229SOL    HW2 1585  11.764   7.929   8.450
33230SOL     OW 1586   0.080   4.434   2.913
33230SOL    HW1 1587   0.154   4.404   2.965
33230SOL    HW2 1588   0.063   4.363   2.851
33231SOL     OW 1589   5.631   4.738  11.367
33231SOL    HW1 1590   5.582   4.679  11.310
33231SOL    HW2 1591   5.566   4.770  11.430
33232SOL     OW 1592   8.066  11.232  12.624
33232SOL    HW1 1593   8.005  11.303  12.645
33232SOL    HW2 1594   8.110  11.260  12.544
33233SOL     OW 1595  10.384  10.563   8.336
33233SOL    HW1 1596  10.309  10.523   8.293
33233SOL    HW2 1597  10.455  10.556   8.273
33234SOL     OW 1598  12.033   3.804  14.733
33234SOL    HW1 1599  12.031   3.837  14.823
33234SOL    HW2 1600  11.995   3.716  14.739
33235SOL     OW 1601   7.658   3.899   7.646
33235SOL    HW1 1602   7.577   3.933   7.610
33235SOL    HW2 1603   7.718   3.973   7.644
33236SOL     OW 1604  10.051   5.289  10.501
33236SOL    HW1 1605  10.092   5.216  10.547
33236SOL    HW2 1606   9.967   5.301  10.544
33237SOL     OW 1607   4.517   4.249   2.739
33237SOL    HW1 1608   4.486   4.201   2.815
33237SOL    HW2 1609   4.488   4.197   2.664
33238SOL     OW 1610  11.958  13.594  10.006
33238SOL    HW1 1611  12.050  13.615  10.022
33238SOL    HW2 1612  11.960  13.508   9.964
33239SOL     OW 1613  14.835  14.776   4.530
33239SOL    HW1 1614  14.870  14.846   4.475
33239SOL    HW2 1615   0.002  14.785   4.613
33240SOL     OW 1616  10.111  11.944   3.678
33240SOL    HW1 1617  10.170  11.875   3.648
33240SOL    HW2 1618  10.158  11.986   3.750
33241SOL     OW 1619  11.144   9.151   4.406
33241SOL    HW1 1620  11.198   9.097   4.464
33241SOL    HW2 1621  11.109   9.220   4.463
33242SOL     OW 1622  10.664   9.493   2.689
33242SOL    HW1 1623  10.579   9.537   2.684
33242SOL    HW2 1624  10.688   9.499   2.782
33243SOL     OW 1625   0.051   2.983  10.784
33243SOL    HW1 1626   0.114   2.980  10.856
33243SOL    HW2 1627   0.105   2.982  10.705
33244SOL     OW 1628  14.034  11.906   1.817
33244SOL    HW1 1629  14.014  11.819   1.852
33244SOL    HW2 1630  14.121  11.926   1.851
33245SOL     OW 1631   7.436   4.014  10.952
33245SOL    HW1 1632   7.433   4.099  10.997
33245SOL    HW2 1633   7.495   3.961  11.006
33246SOL     OW 1634   1.277   0.324   6.638
33246SOL    HW1 1635   1.328   0.274   6.574
33246SOL    HW2 1636   1.186   0.300   6.621
33247SOL     OW 1637  13.816   8.734   7.349
33247SOL    HW1 1638  13.734   8.783   7.344
33247SOL    HW2 1639  13.881   8.799   7.375
33248SOL     OW 1640   4.718   0.806  12.831
33248SOL    HW1 1641   4.686   0.747  12.762
33248SOL    HW2 1642   4.792   0.852  12.791
33249SOL     OW 1643   6.489  13.852   4.554
33249SOL    HW1 1644   6.432  13.801   4.611
33249SOL    HW2 1645   6.524  13.921   4.611
33250SOL     OW 1646   4.016   9.077   9.784
33250SOL    HW1 1647   4.021   8.993   9.740
33250SOL    HW2 1648   3.922   9.093   9.796
33251SOL     OW 1649  14.243   6.375   5.698
33251SOL    HW1 1650  14.204   6.460   5.680
33251SOL    HW2 1651  14.335   6.394   5.718
33252SOL     OW 1652  13.661  12.436  11.561
33252SOL    HW1 1653  13.655  12.486  11.480
33252SOL    HW2 1654  13.755  12.427  11.577
33253SOL     OW 1655   4.039  12.692   2.447
33253SOL    HW1 1656   4.001  12.605   2.430
33253SOL    HW2 1657   3.984  12.729   2.516
33254SOL     OW 1658   0.701   6.286   4.677
33254SOL    HW1 1659   0.652   6.363   4.648
33254SOL    HW2 1660   0.792   6.316   4.682
33255SOL     OW 1661   2.221  13.975   3.544
33255SOL    HW1 1662   2.287  13.921   3.586
33255SOL    HW2 1663   2.246  13.977   3.452
33256SOL     OW 1664  12.601   5.129   1.836
33256SOL    HW1 1665  12.598   5.098   1.926
33256SOL    HW2 1666  12.663   5.202   1.838
33257SOL     OW 1667   9.913   6.270  12.447
33257SOL    HW1 1668   9.876   6.323  12.376
33257SOL    HW2 1669   9.869   6.185  12.439
33258SOL     OW 1670   9.588   2.306  12.195
33258SOL    HW1 1671   9.503   2.301  12.239
33258SOL    HW2 1672   9.615   2.397  12.206
33259SOL     OW 1673  10.436   6.330   2.340
33259SOL    HW1 1674  10.363   6.274   2.367
33259SOL    HW2 1675  10.420   6.413   2.385
33260SOL     OW 1676  13.236   2.678   7.087
33260SOL    HW1 1677  13.300   2.607   7.091
33260SOL    HW2 1678  13.266   2.741   7.152
33261SOL     OW 1679  11.950  13.473  10.789
33261SOL    HW1 1680  11.892  13.472  10.713
33261SOL    HW2 1681  11.892  13.487  10.864
33262SOL     OW 1682   6.197   6.758   2.538
33262SOL    HW1 1683   6.281   6.796   2.563
33262SOL    HW2 1684   6.140   6.833   2.522
33263SOL     OW 1685   3.728   5.222   5.894
33263SOL    HW1 1686   3.815   5.258   5.875
33263SOL    HW2 1687   3.690   5.205   5.808
33264SOL     OW 1688   9.497   5.490   8.224
33264SOL    HW1 1689   9.523   5.398   8.235
33264SOL    HW2 1690   9.530   5.533   8.303
33265SOL     OW 1691   8.723   7.120  12.046
33265SOL    HW1 1692   8.653   7.183  12.027
33265SOL    HW2 1693   8.688   7.036  12.016
33266SOL     OW 1694   6.299   3.084   0.431
33266SOL    HW1 1695   6.209   3.086   0.465
33266SOL    HW2 1696   6.349   3.039   0.498
33267SOL     OW 1697  12.564  11.419   7.695
33267SOL    HW1 1698  12.635  11.370   7.738
33267SOL    HW2 1699  12.528  11.475   7.764
33268SOL     OW 1700   7.766  13.766   9.721
33268SOL    HW1 1701   7.730  13.853   9.704
33268SOL    HW2 1702   7.722  13.738   9.802
33269SOL     OW 1703   9.955   1.939   7.413
33269SOL    HW1 1704   9.886   2.003   7.424
33269SOL    HW2 1705   9.925   1.861   7.460
33270SOL     OW 1706  12.565  11.929  13.641
33270SOL    HW1 1707  12.551  11.978  13.722
33270SOL    HW2 1708  12.487  11.874  13.632
33271SOL     OW 1709   7.679  14.578   4.669
33271SOL    HW1 1710   7.617  14.560   4.598
33271SOL    HW2 1711   7.726  14.495   4.682
33272SOL     OW 1712   4.661   7.023   7.734
33272SOL    HW1 1713   4.729   6.982   7.681
33272SOL    HW2 1714   4.700   7.106   7.763
33273SOL     OW 1715  12.364   0.309   5.097
33273SOL    HW1 1716  12.319   0.293   5.181
33273SOL    HW2 1717  12.385   0.403   5.099
33274SOL     OW 1718   5.658   0.068   5.770
33274SOL    HW1 1719   5.635   0.161   5.772
33274SOL    HW2 1720   5.704   0.057   5.687
33275SOL     OW 1721   7.595  12.719   2.284
33275SOL    HW1 1722   7.618  12.674   2.366
33275SOL    HW2 1723   7.638  12.668   2.216
33276SOL     OW 1724   4.453   5.011  11.617
33276SOL    HW1 1725   4.410   5.008  11.531
33276SOL    HW2 1726   4.534   4.962  11.605
33277SOL     OW 1727  11.624   9.240  14.476
33277SOL    HW1 1728  11.672   9.231  14.558
33277SOL    HW2 1729  11.643   9.160  14.427
33278SOL     OW 1730  11.029  13.512   3.665
33278SOL    HW1 1731  11.106  13.530   3.611
33278SOL    HW2 1732  11.004  13.422   3.644
33279SOL     OW 1733  14.666   1.654   8.759
33279SOL    HW1 1734  14.694   1.681   8.672
33279SOL    HW2 1735  14.620   1.571   8.746
33280SOL     OW 1736   1.254   4.411   5.085
33280SOL    HW1 1737   1.201   4.370   5.155
33280SOL    HW2 1738   1.203   4.487   5.058
33281SOL     OW 1739   6.696  14.581  14.801
33281SOL    HW1 1740   6.704  14.522  14.727
33281SOL    HW2 1741   6.640  14.652  14.770
33282SOL     OW 1742   2.223   2.453  13.300
33282SOL    HW1 1743   2.201   2.459  13.207
33282SOL    HW2 1744   2.145   2.417  13.342
33283SOL     OW 1745  13.271   2.160   7.065
33283SOL    HW1 1746  13.328   2.148   6.989
33283SOL    HW2 1747  13.208   2.088   7.059
33284SOL     OW 1748   2.340   6.517   1.562
33284SOL    HW1 1749   2.310   6.585   1.622
33284SOL    HW2 1750   2.293   6.534   1.481
33285SOL     OW 1751   0.299   4.036   0.953
33285SOL    HW1 1752   0.314   3.949   0.989
33285SOL    HW2 1753   0.292   4.093   1.029
33286SOL     OW 1754  11.661   1.021  12.039
33286SOL    HW1 1755  11.618   1.063  11.965
33286SOL    HW2 1756  11.753   1.042  12.029
33287SOL     OW 1757   7.155   4.676   5.323
33287SOL    HW1 1758   7.089   4.737   5.354
33287SOL    HW2 1759   7.228   4.732   5.295
33288SOL     OW 1760   4.360   4.886   5.909
33288SOL    HW1 1761   4.383   4.956   5.847
33288SOL    HW2 1762   4.408   4.909   5.989
33289SOL     OW 1763   3.984   6.740   1.893
33289SOL    HW1 1764   3.934   6.765   1.971
33289SOL    HW2 1765   3.918   6.722   1.826
33290SOL     OW 1766   8.299   8.757   9.833
33290SOL    HW1 1767   8.275   8.849   9.844
33290SOL    HW2 1768   8.249   8.729   9.755
33291SOL     OW 1769  12.925   9.074   0.582
33291SOL    HW1 1770  12.910   9.147   0.521
33291SOL    HW2 1771  12.916   8.995   0.528
33292SOL     OW 1772   2.158   7.327   6.154
33292SOL    HW1 1773   2.197   7.408   6.121
33292SOL    HW2 1774   2.068   7.329   6.122
33293SOL     OW 1775   9.336   9.582   1.185
33293SOL    HW1 1776   9.309   9.671   1.206
33293SOL    HW2 1777   9.287   9.527   1.247
33294SOL     OW 1778   9.771   9.792   9.629
33294SOL    HW1 1779   9.729   9.878   9.625
33294SOL    HW2 1780   9.784   9.776   9.723
33295SOL     OW 1781   8.736   0.668   4.555
33295SOL    HW1 1782   8.711   0.577   4.570
33295SOL    HW2 1783   8.825   0.663   4.521
33296SOL     OW 1784  10.720  11.423   2.929
33296SOL    HW1 1785  10.778  11.370   2.983
33296SOL    HW2 1786  10.779  11.481   2.880
33297SOL     OW 1787   5.639  10.417   2.045
33297SOL    HW1 1788   5.714  10.384   1.995
33297SOL    HW2 1789   5.565  10.367   2.012
33298SOL     OW 1790   5.001  11.122   5.988
33298SOL    HW1 1791   4.956  11.196   6.028
33298SOL    HW2 1792   4.937  11.083   5.929
33299SOL     OW 1793   6.645   4.505   8.973
33299SOL    HW1 1794   6.554   4.527   8.992
33299SOL    HW2 1795   6.652   4.511   8.878
33300SOL     OW 1796  13.244   0.360  12.491
33300SOL    HW1 1797  13.248   0.386  12.583
33300SOL    HW2 1798  13.197   0.431  12.448
33301SOL     OW 1799   2.929  14.875  13.344
33301SOL    HW1 1800   2.959   0.085  13.337
33301SOL    HW2 1801   2.979  14.838  13.417
33302SOL     OW 1802  10.283   9.195  13.998
33302SOL    HW1 1803  10.314   9.112  14.035
33302SOL    HW2 1804  10.333   9.262  14.043
33303SOL     OW 1805   0.672   6.951   3.177
33303SOL    HW1 1806   0.710   7.032   3.210
33303SOL    HW2 1807   0.597   6.980   3.125
33304SOL     OW 1808   4.995  13.305  10.620
33304SOL    HW1 1809   4.914  13.344  10.587
33304SOL    HW2 1810   5.064  13.365  10.591
33305SOL     OW 1811   4.405  10.412   7.216
33305SOL    HW1 1812   4.369  10.351   7.279
33305SOL    HW2 1813   4.454  10.358   7.154
33306SOL     OW 1814   1.903   9.767   3.323
33306SOL    HW1 1815   1.929   9.857   3.307
33306SOL    HW2 1816   1.967   9.714   3.276
33307SOL     OW 1817  13.536   9.731  12.376
33307SOL    HW1 1818  13.455   9.764  12.337
33307SOL    HW2 1819  13.574   9.806  12.421
33308SOL     OW 1820  10.803   6.136   4.699
33308SOL    HW1 1821  10.730   6.075   4.701
33308SOL    HW2 1822  10.785   6.198   4.770
33309SOL     OW 1823   2.645   9.205   7.908
33309SOL    HW1 1824   2.589   9.243   7.840
33309SOL    HW2 1825   2.668   9.119   7.874
33310SOL     OW 1826   0.321   9.601  12.788
33310SOL    HW1 1827   0.349   9.684  12.827
33310SOL    HW2 1828   0.399   9.546  12.790
33311SOL     OW 1829  14.464   7.823   9.422
33311SOL    HW1 1830  14.397   7.888   9.442
33311SOL    HW2 1831  14.524   7.826   9.497
33312SOL     OW 1832   5.729  12.778   2.466
33312SOL    HW1 1833   5.750  12.773   2.373
33312SOL    HW2 1834   5.681  12.697   2.485
33313SOL     OW 1835  14.489  12.428   6.342
33313SOL    HW1 1836  14.526  12.345   6.312
33313SOL    HW2 1837  14.396  12.423   6.321
33314SOL     OW 1838   9.389  14.331   8.857
33314SOL    HW1 1839   9.361  14.376   8.937
33314SOL    HW2 1840   9.396  14.401   8.792
33315SOL     OW 1841   9.407  13.140   9.859
33315SOL    HW1 1842   9.497  13.166   9.880
33315SOL    HW2 1843   9.355  13.171   9.933
33316SOL     OW 1844   8.934   2.599   7.618
33316SOL    HW1 1845   8.946   2.693   7.606
33316SOL    HW2 1846   8.841   2.584   7.603
33317SOL     OW 1847   5.681   9.527  12.099
33317SOL    HW1 1848   5.774   9.544  12.113
33317SOL    HW2 1849   5.676   9.433  12.080
33318SOL     OW 1850   2.265   2.958   0.424
33318SOL    HW1 1851   2.316   2.986   0.348
33318SOL    HW2 1852   2.321   2.979   0.499
33319SOL     OW 1853   4.093   9.898   3.554
33319SOL    HW1 1854   4.042   9.858   3.625
33319SOL    HW2 1855   4.070   9.991   3.557
33320SOL     OW 1856   2.402   6.378  12.756
33320SOL    HW1 1857   2.329   6.342  12.706
33320SOL    HW2 1858   2.468   6.399  12.690
33321SOL     OW 1859  10.232  10.962   5.158
33321SOL    HW1 1860  10.301  10.925   5.214
33321SOL    HW2 1861  10.204  11.041   5.204
33322SOL     OW 1862   4.934   1.749   6.734
33322SOL    HW1 1863   4.909   1.676   6.677
33322SOL    HW2 1864   4.856   1.765   6.787
33323SOL     OW 1865   3.386   3.159   4.879
33323SOL    HW1 1866   3.394   3.064   4.868
33323SOL    HW2 1867   3.468   3.186   4.921
33324SOL     OW 1868   2.457   0.938   3.678
33324SOL    HW1 1869   2.408   0.893   3.609
33324SOL    HW2 1870   2.499   0.868   3.728
33325SOL     OW 1871   0.235   8.382   4.465
33325SOL    HW1 1872   0.328   8.364   4.481
33325SOL    HW2 1873   0.202   8.304   4.420
33326SOL     OW 1874   6.396  11.222   3.021
33326SOL    HW1 1875   6.420  11.168   3.096
33326SOL    HW2 1876   6.449  11.189   2.949
33327SOL     OW 1877   7.985   0.919   7.533
33327SOL    HW1 1878   8.061   0.905   7.477
33327SOL    HW2 1879   7.950   0.832   7.550
33328SOL     OW 1880  10.531   0.585   9.955
33328SOL    HW1 1881  10.499   0.672   9.931
33328SOL    HW2 1882  10.600   0.567   9.891
33329SOL     OW 1883   7.364   3.619   5.834
33329SOL    HW1 1884   7.388   3.710   5.851
33329SOL    HW2 1885   7.425   3.568   5.888
33330SOL     OW 1886  10.119  14.519   8.771
33330SOL    HW1 1887  10.140  14.547   8.860
33330SOL    HW2 1888  10.157  14.587   8.715
33331SOL     OW 1889   4.332   7.099   8.836
33331SOL    HW1 1890   4.409   7.041   8.830
33331SOL    HW2 1891   4.258   7.043   8.813
33332SOL     OW 1892   5.415   0.259   9.583
33332SOL    HW1 1893   5.489   0.278   9.525
33332SOL    HW2 1894   5.452   0.258   9.671
33333SOL     OW 1895   0.357   3.061  13.095
33333SOL    HW1 1896   0.342   3.061  13.001
33333SOL    HW2 1897   0.294   2.998  13.130
33334SOL     OW 1898  14.014   8.550   9.258
33334SOL    HW1 1899  14.033   8.461   9.226
33334SOL    HW2 1900  14.071   8.561   9.333
33335SOL     OW 1901  10.261   1.683   0.379
33335SOL    HW1 1902  10.265   1.598   0.423
33335SOL    HW2 1903  10.233   1.743   0.447
33336SOL     OW 1904   4.646   5.068   9.662
33336SOL    HW1 1905   4.692   5.151   9.647
33336SOL    HW2 1906   4.683   5.035   9.743
33337SOL     OW 1907  12.613   2.176   1.113
33337SOL    HW1 1908  12.580   2.120   1.183
33337SOL    HW2 1909  12.561   2.151   1.036
33338SOL     OW 1910   5.772   9.600  11.427
33338SOL    HW1 1911   5.850   9.556  11.392
33338SOL    HW2 1912   5.751   9.552  11.507
33339SOL     OW 1913  12.467   4.672   6.366
33339SOL    HW1 1914  12.419   4.745   6.326
33339SOL    HW2 1915  12.484   4.701   6.455
33340SOL     OW 1916  13.451  11.336  11.766
33340SOL    HW1 1917  13.490  11.400  11.708
33340SOL    HW2 1918  13.493  11.253  11.743
33341SOL     OW 1919   9.375   9.328   5.015
33341SOL    HW1 1920   9.467   9.321   4.992
33341SOL    HW2 1921   9.330   9.273   4.951
33342SOL     OW 1922   7.614   5.526   4.110
33342SOL    HW1 1923   7.634   5.462   4.179
33342SOL    HW2 1924   7.691   5.527   4.055
33343SOL     OW 1925   5.425   3.050   1.231
33343SOL    HW1 1926   5.453   2.958   1.230
33343SOL    HW2 1927   5.499   3.097   1.192
33344SOL     OW 1928  11.423  14.485   8.458
33344SOL    HW1 1929  11.399  14.521   8.543
33344SOL    HW2 1930  11.486  14.548   8.422
33345SOL     OW 1931   1.358   8.640   0.338
33345SOL    HW1 1932   1.416   8.568   0.315
33345SOL    HW2 1933   1.416   8.716   0.345
33346SOL     OW 1934   8.097   1.524   2.223
33346SOL    HW1 1935   8.147   1.501   2.145
33346SOL    HW2 1936   8.010   1.549   2.191
33347SOL     OW 1937   9.742   9.696  12.811
33347SOL    HW1 1938   9.744   9.632  12.740
33347SOL    HW2 1939   9.762   9.779  12.769
33348SOL     OW 1940  12.349   1.227   6.928
33348SOL    HW1 1941  12.404   1.153   6.954
33348SOL    HW2 1942  12.411   1.301   6.920
33349SOL     OW 1943   9.455   6.465  10.303
33349SOL    HW1 1944   9.521   6.484  10.237
33349SOL    HW2 1945   9.502   6.471  10.386
33350SOL     OW 1946   2.935   6.770   0.223
33350SOL    HW1 1947   2.868   6.791   0.159
33350SOL    HW2 1948   2.914   6.681   0.251
33351SOL     OW 1949   6.248   8.495  13.777
33351SOL    HW1 1950   6.241   8.405  13.746
33351SOL    HW2 1951   6.169   8.508  13.830
33352SOL     OW 1952   6.031   2.275   7.443
33352SOL    HW1 1953   6.009   2.187   7.412
33352SOL    HW2 1954   6.020   2.270   7.538
33353SOL     OW 1955   7.281  13.359   0.749
33353SOL    HW1 1956   7.306  13.416   0.676
33353SOL    HW2 1957   7.325  13.276   0.731
33354SOL     OW 1958   8.976   5.405   0.943
33354SOL    HW1 1959   9.049   5.386   1.002
33354SOL    HW2 1960   8.953   5.496   0.962
33355SOL     OW 1961  12.842   7.652   7.025
33355SOL    HW1 1962  12.759   7.695   7.002
33355SOL    HW2 1963  12.864   7.688   7.111
33356SOL     OW 1964   9.891   5.695  13.330
33356SOL    HW1 1965   9.816   5.666  13.278
33356SOL    HW2 1966   9.957   5.628  13.314
33357SOL     OW 1967   6.592  10.150   2.019
33357SOL    HW1 1968   6.656  10.089   2.056
33357SOL    HW2 1969   6.547  10.099   1.951
33358SOL     OW 1970   4.265   7.374   9.121
33358SOL    HW1 1971   4.349   7.334   9.146
33358SOL    HW2 1972   4.251   7.347   9.031
33359SOL     OW 1973  12.761   3.500  11.491
33359SOL    HW1 1974  12.795   3.555  11.420
33359SOL    HW2 1975  12.690   3.552  11.529
33360SOL     OW 1976   7.095   7.001  13.156
33360SOL    HW1 1977   7.176   6.959  13.185
33360SOL    HW2 1978   7.066   7.051  13.232
33361SOL     OW 1979  13.053   2.314   3.334
33361SOL    HW1 1980  13.024   2.368   3.262
33361SOL    HW2 1981  12.975   2.265   3.362
33362SOL     OW 1982   7.408  12.691   9.899
33362SOL    HW1 1983   7.393  12.718   9.989
33362SOL    HW2 1984   7.402  12.595   9.902
33363SOL     OW 1985  14.211   2.487   2.620
33363SOL    HW1 1986  14.201   2.581   2.603
33363SOL    HW2 1987  14.293   2.480   2.668
33364SOL     OW 1988   2.153   9.766   8.965
33364SOL    HW1 1989   2.105   9.826   9.022
33364SOL    HW2 1990   2.189   9.700   9.025
33365SOL     OW 1991   0.166   5.562   5.304
33365SOL    HW1 1992   0.253   5.555   5.266
33365SOL    HW2 1993   0.163   5.649   5.344
33366SOL     OW 1994  11.578  12.929  11.831
33366SOL    HW1 1995  11.505  12.992  11.830
33366SOL    HW2 1996  11.556  12.867  11.762
33367SOL     OW 1997   8.723  13.381  12.906
33367SOL    HW1 1998   8.716  13.378  12.811
33367SOL    HW2 1999   8.743  13.291  12.932
33368SOL     OW 2000   0.039  10.926   1.596
33368SOL    HW1 2001   0.100  10.923   1.669
33368SOL    HW2 2002  14.836  10.896   1.633
33369SOL     OW 2003   5.556   8.881   4.180
33369SOL    HW1 2004   5.581   8.887   4.273
33369SOL    HW2 2005   5.465   8.911   4.178
33370SOL     OW 2006   2.875   4.057  14.489
33370SOL    HW1 2007   2.902   3.970  14.460
33370SOL    HW2 2008   2.888   4.114  14.413
33371SOL     OW 2009   9.511   5.042  14.415
33371SOL    HW1 2010   9.565   4.969  14.447
33371SOL    HW2 2011   9.554   5.070  14.335
33372SOL     OW 2012  12.650   7.020   3.691
33372SOL    HW1 2013  12.712   7.066   3.747
33372SOL    HW2 2014  12.698   6.944   3.658
33373SOL     OW 2015   8.196  13.576   1.547
33373SOL    HW1 2016   8.260  13.635   1.587
33373SOL    HW2 2017   8.209  13.493   1.593
33374SOL     OW 2018   8.113  10.007   4.394
33374SOL    HW1 2019   8.140  10.015   4.485
33374SOL    HW2 2020   8.102  10.097   4.364
33375SOL     OW 2021   5.466  12.118   8.452
33375SOL    HW1 2022   5.419  12.198   8.427
33375SOL    HW2 2023   5.555  12.131   8.419
33376SOL     OW 2024   0.761   1.138  11.979
33376SOL    HW1 2025   0.785   1.058  12.025
33376SOL    HW2 2026   0.791   1.209  12.036
33377SOL     OW 2027   9.783  14.871  13.246
33377SOL    HW1 2028   9.737   0.009  13.165
33377SOL    HW2 2029   9.723  14.816  13.297
33378SOL     OW 2030   4.280   3.436   3.219
33378SOL    HW1 2031   4.333   3.378   3.165
33378SOL    HW2 2032   4.219   3.478   3.157
33379SOL     OW 2033   4.491  10.140   2.162
33379SOL    HW1 2034   4.505  10.145   2.067
33379SOL    HW2 2035   4.411  10.189   2.177
33380SOL     OW 2036  12.275   1.146   8.872
33380SOL    HW1 2037  12.294   1.132   8.779
33380SOL    HW2 2038  12.211   1.078   8.894
33381SOL     OW 2039   5.020   7.514  14.646
33381SOL    HW1 2040   5.018   7.436  14.701
33381SOL    HW2 2041   4.965   7.577  14.693
33382SOL     OW 2042   3.088   3.535   8.596
33382SOL    HW1 2043   3.018   3.534   8.531
33382SOL    HW2 2044   3.163   3.572   8.551
33383SOL     OW 2045  10.365   4.573   1.726
33383SOL    HW1 2046  10.411   4.634   1.784
33383SOL    HW2 2047  10.430   4.552   1.659
33384SOL     OW 2048  10.927   1.198   7.462
33384SOL    HW1 2049  10.996   1.132   7.453
33384SOL    HW2 2050  10.848   1.155   7.429
33385SOL     OW 2051   1.664  12.294   5.367
33385SOL    HW1 2052   1.667  12.379   5.324
33385SOL    HW2 2053   1.583  12.295   5.419
33386SOL     OW 2054   9.958  14.796   1.674
33386SOL    HW1 2055   9.957  14.811   1.579
33386SOL    HW2 2056   9.892  14.855   1.709
33387SOL     OW 2057   8.328   9.920   8.876
33387SOL    HW1 2058   8.375   9.903   8.958
33387SOL    HW2 2059   8.239   9.940   8.904
33388SOL     OW 2060   4.087   5.035   7.283
33388SOL    HW1 2061   4.153   5.087   7.327
33388SOL    HW2 2062   4.119   5.024   7.194
33389SOL     OW 2063  13.539  10.524   6.128
33389SOL    HW1 2064  13.494  10.510   6.211
33389SOL    HW2 2065  13.503  10.606   6.094
33390SOL     OW 2066   8.917   8.210   4.513
33390SOL    HW1 2067   8.893   8.151   4.442
33390SOL    HW2 2068   8.894   8.297   4.481
33391SOL     OW 2069   5.059   8.861  10.227
33391SOL    HW1 2070   4.980   8.842  10.278
33391SOL    HW2 2071   5.129   8.861  10.292
33392SOL     OW 2072   4.830   6.311  10.622
33392SOL    HW1 2073   4.848   6.399  10.589
33392SOL    HW2 2074   4.774   6.324  10.698
33393SOL     OW 2075   4.202   4.173   1.607
33393SOL    HW1 2076   4.274   4.115   1.580
33393SOL    HW2 2077   4.123   4.121   1.592
33394SOL     OW 2078   5.038  14.364  14.494
33394SOL    HW1 2079   4.956  14.323  14.523
33394SOL    HW2 2080   5.038  14.354  14.399
33395SOL     OW 2081   8.148   0.811   5.662
33395SOL    HW1 2082   8.107   0.897   5.648
33395SOL    HW2 2083   8.086   0.765   5.719
33396SOL     OW 2084  12.016   5.737   6.794
33396SOL    HW1 2085  11.945   5.762   6.854
33396SOL    HW2 2086  12.081   5.806   6.805
33397SOL     OW 2087   2.564   3.014  11.966
33397SOL    HW1 2088   2.606   2.982  12.046
33397SOL    HW2 2089   2.508   2.942  11.937
33398SOL     OW 2090   5.782  12.833   8.956
33398SOL    HW1 2091   5.838  12.757   8.977
33398SOL    HW2 2092   5.707  12.824   9.014
33399SOL     OW 2093   6.618   6.925  14.821
33399SOL    HW1 2094   6.652   6.949   0.028
33399SOL    HW2 2095   6.683   6.864  14.787
33400SOL     OW 2096   7.553  12.630   0.810
33400SOL    HW1 2097   7.469  12.636   0.764
33400SOL    HW2 2098   7.540  12.680   0.890
33401SOL     OW 2099   9.841   1.436   7.664
33401SOL    HW1 2100   9.902   1.498   7.703
33401SOL    HW2 2101   9.758   1.453   7.709
33402SOL     OW 2102   7.775   9.359   0.273
33402SOL    HW1 2103   7.796   9.431   0.333
33402SOL    HW2 2104   7.761   9.401   0.188
33403SOL     OW 2105   5.454  14.765   5.317
33403SOL    HW1 2106   5.508  14.688   5.304
33403SOL    HW2 2107   5.379  14.752   5.259
33404SOL     OW 2108   9.110   2.267   0.958
33404SOL    HW1 2109   9.154   2.186   0.931
33404SOL    HW2 2110   9.182   2.328   0.976
33405SOL     OW 2111   8.366  12.980   6.572
33405SOL    HW1 2112   8.274  12.992   6.596
33405SOL    HW2 2113   8.365  12.917   6.500
33406SOL     OW 2114   0.995   3.338   3.745
33406SOL    HW1 2115   0.903   3.320   3.726
33406SOL    HW2 2116   1.020   3.271   3.809
33407SOL     OW 2117   1.877   9.325   3.414
33407SOL    HW1 2118   1.845   9.411   3.386
33407SOL    HW2 2119   1.856   9.267   3.341
33408SOL     OW 2120  13.435  10.762   4.746
33408SOL    HW1 2121  13.442  10.740   4.653
33408SOL    HW2 2122  13.356  10.716   4.775
33409SOL     OW 2123   5.679   6.404   9.975
33409SOL    HW1 2124   5.626   6.463   9.922
33409SOL    HW2 2125   5.669   6.319   9.933
33410SOL     OW 2126   4.874   9.518   7.725
33410SOL    HW1 2127   4.952   9.561   7.760
33410SOL    HW2 2128   4.881   9.531   7.630
33411SOL     OW 2129   6.741   2.685  13.051
33411SOL    HW1 2130   6.775   2.758  13.000
33411SOL    HW2 2131   6.727   2.615  12.987
33412SOL     OW 2132   3.503   1.412   3.451
33412SOL    HW1 2133   3.544   1.454   3.527
33412SOL    HW2 2134   3.523   1.319   3.462
33413SOL     OW 2135   9.119   4.099  10.831
33413SOL    HW1 2136   9.026   4.103  10.852
33413SOL    HW2 2137   9.129   4.018  10.781
33414SOL     OW 2138   3.745   8.642   9.961
33414SOL    HW1 2139   3.810   8.572   9.966
33414SOL    HW2 2140   3.687   8.626  10.035
33415SOL     OW 2141   8.278   0.661  11.352
33415SOL    HW1 2142   8.356   0.715  11.338
33415SOL    HW2 2143   8.288   0.626  11.440
33416SOL     OW 2144   0.746   1.065   7.458
33416SOL    HW1 2145   0.713   0.981   7.427
33416SOL    HW2 2146   0.691   1.086   7.534
33417SOL     OW 2147   5.117   5.650   6.671
33417SOL    HW1 2148   5.191   5.680   6.723
33417SOL    HW2 2149   5.077   5.731   6.638
33418SOL     OW 2150   7.473   5.645  12.713
33418SOL    HW1 2151   7.552   5.675  12.758
33418SOL    HW2 2152   7.435   5.579  12.771
33419SOL     OW 2153   2.982   9.918   5.356
33419SOL    HW1 2154   2.960  10.003   5.317
33419SOL    HW2 2155   2.918   9.857   5.319
33420SOL     OW 2156  14.263   7.967   5.401
33420SOL    HW1 2157  14.196   7.915   5.445
33420SOL    HW2 2158  14.303   7.907   5.338
33421SOL     OW 2159   7.191  13.230   7.965
33421SOL    HW1 2160   7.125  13.191   8.021
33421SOL    HW2 2161   7.149  13.309   7.930
33422SOL     OW 2162   1.576   5.502   5.887
33422SOL    HW1 2163   1.646   5.473   5.946
33422SOL    HW2 2164   1.591   5.453   5.806
33423SOL     OW 2165  12.336   6.334   8.815
33423SOL    HW1 2166  12.407   6.280   8.850
33423SOL    HW2 2167  12.292   6.370   8.892
33424SOL     OW 2168  12.761   5.404   0.722
33424SOL    HW1 2169  12.842   5.422   0.769
33424SOL    HW2 2170  12.781   5.328   0.667
33425SOL     OW 2171   9.953   1.732  12.799
33425SOL    HW1 2172  10.024   1.708  12.859
33425SOL    HW2 2173   9.972   1.823  12.775
33426SOL     OW 2174  10.815   2.283   5.283
33426SOL    HW1 2175  10.850   2.364   5.245
33426SOL    HW2 2176  10.815   2.300   5.378
33427SOL     OW 2177   5.872   3.228  13.670
33427SOL    HW1 2178   5.946   3.287  13.684
33427SOL    HW2 2179   5.797   3.275  13.706
33428SOL     OW 2180   3.997   6.732  11.406
33428SOL    HW1 2181   4.014   6.783  11.327
33428SOL    HW2 2182   4.003   6.641  11.377
33429SOL     OW 2183   2.324   6.294   7.865
33429SOL    HW1 2184   2.267   6.217   7.866
33429SOL    HW2 2185   2.340   6.313   7.957
33430SOL     OW 2186   5.178   3.441  14.536
33430SOL    HW1 2187   5.191   3.535  14.546
33430SOL    HW2 2188   5.230   3.417  14.459
33431SOL     OW 2189   2.557   4.875   2.769
33431SOL    HW1 2190   2.485   4.813   2.754
33431SOL    HW2 2191   2.516   4.951   2.809
33432SOL     OW 2192   0.669   2.232   7.299
33432SOL    HW1 2193   0.609   2.168   7.337
33432SOL    HW2 2194   0.670   2.304   7.362
33433SOL     OW 2195  13.645   5.818  14.682
33433SOL    HW1 2196  13.701   5.833  14.606
33433SOL    HW2 2197  13.557   5.809  14.645
33434SOL     OW 2198  11.845  10.080   4.136
33434SOL    HW1 2199  11.750  10.079   4.129
33434SOL    HW2 2200  11.863  10.133   4.213
33435SOL     OW 2201   6.737   8.353  14.049
33435SOL    HW1 2202   6.771   8.344  13.960
33435SOL    HW2 2203   6.682   8.432  14.046
33436SOL     OW 2204   2.886  10.734   3.756
33436SOL    HW1 2205   2.971  10.691   3.761
33436SOL    HW2 2206   2.866  10.759   3.846
33437SOL     OW 2207  14.422  12.389  11.973
33437SOL    HW1 2208  14.424  12.340  11.891
33437SOL    HW2 2209  14.391  12.476  11.948
33438SOL     OW 2210  13.155  13.415  14.510
33438SOL    HW1 2211  13.245  13.399  14.481
33438SOL    HW2 2212  13.164  13.438  14.603
33439SOL     OW 2213   9.207  12.664   8.443
33439SOL    HW1 2214   9.183  12.720   8.517
33439SOL    HW2 2215   9.302  12.654   8.450
33440SOL     OW 2216   2.257   9.222  11.537
33440SOL    HW1 2217   2.308   9.156  11.490
33440SOL    HW2 2218   2.257   9.298  11.478
33441SOL     OW 2219   7.159  10.326   9.574
33441SOL    HW1 2220   7.181  10.413   9.540
33441SOL    HW2 2221   7.091  10.342   9.639
33442SOL     OW 2222  11.286  13.603   4.844
33442SOL    HW1 2223  11.285  13.510   4.865
33442SOL    HW2 2224  11.240  13.609   4.761
33443SOL     OW 2225   2.365   5.117  13.521
33443SOL    HW1 2226   2.301   5.100  13.591
33443SOL    HW2 2227   2.365   5.212  13.511
33444SOL     OW 2228   8.679  13.003   4.184
33444SOL    HW1 2229   8.607  13.017   4.123
33444SOL    HW2 2230   8.727  13.086   4.185
33445SOL     OW 2231   5.193   4.712   5.119
33445SOL    HW1 2232   5.136   4.660   5.175
33445SOL    HW2 2233   5.154   4.704   5.032
33446SOL     OW 2234   8.251  11.917   7.612
33446SOL    HW1 2235   8.225  11.932   7.703
33446SOL    HW2 2236   8.339  11.881   7.618
33447SOL     OW 2237  12.116   3.470   3.632
33447SOL    HW1 2238  12.080   3.447   3.546
33447SOL    HW2 2239  12.077   3.555   3.652
33448SOL     OW 2240  13.574   0.846   8.419
33448SOL    HW1 2241  13.535   0.804   8.496
33448SOL    HW2 2242  13.543   0.936   8.422
33449SOL     OW 2243   6.702  13.851   4.081
33449SOL    HW1 2244   6.751  13.786   4.030
33449SOL    HW2 2245   6.701  13.816   4.170
33450SOL     OW 2246  11.868   9.821   1.204
33450SOL    HW1 2247  11.809   9.751   1.234
33450SOL    HW2 2248  11.952   9.800   1.245
33451SOL     OW 2249  13.765  12.497   1.768
33451SOL    HW1 2250  13.831  12.544   1.718
33451SOL    HW2 2251  13.814  12.426   1.811
33452SOL     OW 2252   6.445   9.201  12.553
33452SOL    HW1 2253   6.410   9.115  12.576
33452SOL    HW2 2254   6.508   9.184  12.483
33453SOL     OW 2255  10.174   5.263  11.675
33453SOL    HW1 2256  10.137   5.175  11.683
33453SOL    HW2 2257  10.181   5.295  11.765
33454SOL     OW 2258  11.604   8.626   3.511
33454SOL    HW1 2259  11.657   8.686   3.457
33454SOL    HW2 2260  11.587   8.552   3.454
33455SOL     OW 2261  11.023  13.832   4.548
33455SOL    HW1 2262  11.017  13.786   4.632
33455SOL    HW2 2263  10.943  13.807   4.501
33456SOL     OW 2264   9.745  10.479   7.821
33456SOL    HW1 2265   9.735  10.521   7.907
33456SOL    HW2 2266   9.796  10.541   7.770
33457SOL     OW 2267   0.974   5.427  14.677
33457SOL    HW1 2268   1.054   5.381  14.649
33457SOL    HW2 2269   0.998   5.520  14.675
33458SOL     OW 2270  14.291  12.062  12.807
33458SOL    HW1 2271  14.200  12.033  12.812
33458SOL    HW2 2272  14.297  12.135  12.868
33459SOL     OW 2273  11.675  14.650  11.364
33459SOL    HW1 2274  11.706  14.648  11.273
33459SOL    HW2 2275  11.700  14.566  11.400
33460SOL     OW 2276   4.304  10.188   4.731
33460SOL    HW1 2277   4.275  10.133   4.658
33460SOL    HW2 2278   4.226  10.237   4.756
33461SOL     OW 2279   5.555   2.418  10.102
33461SOL    HW1 2280   5.524   2.372  10.180
33461SOL    HW2 2281   5.548   2.353  10.032
33462SOL     OW 2282   8.073  14.663  10.414
33462SOL    HW1 2283   7.999  14.706  10.370
33462SOL    HW2 2284   8.151  14.699  10.370
33463SOL     OW 2285   2.195  13.315   1.020
33463SOL    HW1 2286   2.219  13.223   1.015
33463SOL    HW2 2287   2.259  13.361   0.966
33464SOL     OW 2288  13.850   9.520   3.915
33464SOL    HW1 2289  13.923   9.458   3.908
33464SOL    HW2 2290  13.882   9.600   3.874
33465SOL     OW 2291  13.865  13.439   9.456
33465SOL    HW1 2292  13.784  13.391   9.473
33465SOL    HW2 2293  13.838  13.508   9.395
33466SOL     OW 2294   4.585   0.600   7.368
33466SOL    HW1 2295   4.532   0.536   7.320
33466SOL    HW2 2296   4.672   0.560   7.373
33467SOL     OW 2297   7.374  14.132   3.156
33467SOL    HW1 2298   7.375  14.204   3.093
33467SOL    HW2 2299   7.463  14.095   3.151
33468SOL     OW 2300  13.617   7.470  13.664
33468SOL    HW1 2301  13.541   7.500  13.715
33468SOL    HW2 2302  13.620   7.531  13.590
33469SOL     OW 2303   5.631  11.884   4.877
33469SOL    HW1 2304   5.605  11.851   4.963
33469SOL    HW2 2305   5.656  11.975   4.894
33470SOL     OW 2306  10.949   8.593  10.489
33470SOL    HW1 2307  10.972   8.544  10.567
33470SOL    HW2 2308  10.977   8.538  10.416
33471SOL     OW 2309   1.466   7.096   7.014
33471SOL    HW1 2310   1.559   7.110   6.997
33471SOL    HW2 2311   1.422   7.158   6.956
33472SOL     OW 2312   5.112   4.356   9.402
33472SOL    HW1 2313   5.029   4.400   9.421
33472SOL    HW2 2314   5.089   4.289   9.338
33473SOL     OW 2315   7.135   9.137   3.166
33473SOL    HW1 2316   7.094   9.087   3.236
33473SOL    HW2 2317   7.106   9.094   3.086
33474SOL     OW 2318   8.074   9.533   3.124
33474SOL    HW1 2319   8.154   9.496   3.087
33474SOL    HW2 2320   8.029   9.459   3.165
33475SOL     OW 2321  11.030   0.410  11.787
33475SOL    HW1 2322  11.029   0.442  11.697
33475SOL    HW2 2323  10.940   0.424  11.818
33476SOL     OW 2324  11.832  10.842  11.827
33476SOL    HW1 2325  11.905  10.788  11.798
33476SOL    HW2 2326  11.774  10.849  11.750
33477SOL     OW 2327  12.217  10.495  11.511
33477SOL    HW1 2328  12.166  10.492  11.592
33477SOL    HW2 2329  12.239  10.587  11.500
33478SOL     OW 2330   6.526   0.022   2.039
33478SOL    HW1 2331   6.617   0.006   2.065
33478SOL    HW2 2332   6.501   0.101   2.087
33479SOL     OW 2333  12.900   5.874   3.281
33479SOL    HW1 2334  12.921   5.942   3.217
33479SOL    HW2 2335  12.986   5.840   3.309
33480SOL     OW 2336   1.356   7.696   8.361
33480SOL    HW1 2337   1.379   7.615   8.317
33480SOL    HW2 2338   1.402   7.692   8.445
33481SOL     OW 2339   3.558   3.327  12.401
33481SOL    HW1 2340   3.480   3.297  12.448
33481SOL    HW2 2341   3.565   3.267  12.326
33482SOL     OW 2342  11.555   0.304  11.419
33482SOL    HW1 2343  11.563   0.227  11.362
33482SOL    HW2 2344  11.475   0.288  11.469
33483SOL     OW 2345   5.396   4.808  11.486
33483SOL    HW1 2346   5.344   4.866  11.429
33483SOL    HW2 2347   5.332   4.747  11.523
33484SOL     OW 2348  13.382   6.338   3.993
33484SOL    HW1 2349  13.290   6.328   4.016
33484SOL    HW2 2350  13.429   6.327   4.076
33485SOL     OW 2351   2.436  13.134  11.061
33485SOL    HW1 2352   2.485  13.210  11.028
33485SOL    HW2 2353   2.378  13.170  11.128
33486SOL     OW 2354   2.671   0.743  13.255
33486SOL    HW1 2355   2.709   0.689  13.324
33486SOL    HW2 2356   2.583   0.763  13.285
33487SOL     OW 2357  12.600   7.170   6.997
33487SOL    HW1 2358  12.689   7.149   6.968
33487SOL    HW2 2359  12.559   7.210   6.920
33488SOL     OW 2360   1.254  12.348   8.555
33488SOL    HW1 2361   1.186  12.316   8.496
33488SOL    HW2 2362   1.280  12.432   8.519
33489SOL     OW 2363  12.694  10.047   5.625
33489SOL    HW1 2364  12.737   9.963   5.641
33489SOL    HW2 2365  12.713  10.100   5.702
33490SOL     OW 2366   0.105   7.094  10.648
33490SOL    HW1 2367   0.084   7.039  10.572
33490SOL    HW2 2368   0.021   7.122  10.681
33491SOL     OW 2369   0.969  11.371   0.738
33491SOL    HW1 2370   1.006  11.326   0.814
33491SOL    HW2 2371   0.951  11.460   0.769
33492SOL     OW 2372   9.200   1.604  12.992
33492SOL    HW1 2373   9.218   1.549  13.068
33492SOL    HW2 2374   9.169   1.543  12.925
33493SOL     OW 2375   9.845  10.187  11.094
33493SOL    HW1 2376   9.892  10.123  11.040
33493SOL    HW2 2377   9.759  10.147  11.109
33494SOL     OW 2378   3.776   1.679   6.991
33494SOL    HW1 2379   3.871   1.673   7.001
33494SOL    HW2 2380   3.754   1.607   6.931
33495SOL     OW 2381  14.415   4.454   7.342
33495SOL    HW1 2382  14.472   4.518   7.385
33495SOL    HW2 2383  14.329   4.495   7.341
33496SOL     OW 2384   3.228   3.458   7.357
33496SOL    HW1 2385   3.257   3.434   7.446
33496SOL    HW2 2386   3.143   3.416   7.348
33497SOL     OW 2387  11.570   0.258  10.163
33497SOL    HW1 2388  11.627   0.283  10.091
33497SOL    HW2 2389  11.614   0.182  10.203
33498SOL     OW 2390  12.561  13.141   2.412
33498SOL    HW1 2391  12.485  13.088   2.388
33498SOL    HW2 2392  12.593  13.101   2.493
33499SOL     OW 2393   8.749   1.382  14.678
33499SOL    HW1 2394   8.802   1.435  14.738
33499SOL    HW2 2395   8.662   1.423  14.681
33500SOL     OW 2396   3.069  10.794  10.625
33500SOL    HW1 2397   3.016  10.715  10.639
33500SOL    HW2 2398   3.101  10.784  10.535
33501SOL     OW 2399   8.963  11.027  12.797
33501SOL    HW1 2400   8.878  11.017  12.753
33501SOL    HW2 2401   9.028  11.004  12.730
33502SOL     OW 2402   5.546   6.823   9.136
33502SOL    HW1 2403   5.514   6.792   9.051
33502SOL    HW2 2404   5.469   6.821   9.192
33503SOL     OW 2405   5.145  12.753   2.025
33503SOL    HW1 2406   5.189  12.668   2.027
33503SOL    HW2 2407   5.068  12.739   1.969
33504SOL     OW 2408  10.634   0.761   1.396
33504SOL    HW1 2409  10.680   0.701   1.338
33504SOL    HW2 2410  10.600   0.829   1.338
33505SOL     OW 2411   8.857   9.263   5.621
33505SOL    HW1 2412   8.771   9.278   5.659
33505SOL    HW2 2413   8.870   9.168   5.626
33506SOL     OW 2414   6.675  14.813   2.918
33506SOL    HW1 2415   6.763  14.829   2.951
33506SOL    HW2 2416   6.620  14.814   2.997
33507SOL     OW 2417   8.075  11.255  14.861
33507SOL    HW1 2418   8.023  11.241  14.781
33507SOL    HW2 2419   8.164  11.234  14.835
33508SOL     OW 2420   5.931   8.463   2.273
33508SOL    HW1 2421   6.015   8.509   2.272
33508SOL    HW2 2422   5.867   8.532   2.290
33509SOL     OW 2423   8.291   7.175   0.024
33509SOL    HW1 2424   8.254   7.103   0.075
33509SOL    HW2 2425   8.367   7.136  14.861
33510SOL     OW 2426   5.749   0.857  10.557
33510SOL    HW1 2427   5.757   0.882  10.649
33510SOL    HW2 2428   5.659   0.828  10.547
33511SOL     OW 2429   0.518   2.547   7.305
33511SOL    HW1 2430   0.582   2.530   7.375
33511SOL    HW2 2431   0.434   2.552   7.350
33512SOL     OW 2432   1.511   5.185  13.327
33512SOL    HW1 2433   1.561   5.265  13.310
33512SOL    HW2 2434   1.555   5.145  13.402
33513SOL     OW 2435   6.843  11.889   9.689
33513SOL    HW1 2436   6.835  11.894   9.593
33513SOL    HW2 2437   6.843  11.795   9.708
33514SOL     OW 2438   9.807   2.919   6.506
33514SOL    HW1 2439   9.788   3.008   6.477
33514SOL    HW2 2440   9.902   2.918   6.520
33515SOL     OW 2441   0.549  13.610   0.381
33515SOL    HW1 2442   0.534  13.658   0.463
33515SOL    HW2 2443   0.596  13.673   0.326
33516SOL     OW 2444  13.467  13.211  12.475
33516SOL    HW1 2445  13.508  13.145  12.419
33516SOL    HW2 2446  13.485  13.294  12.432
33517SOL     OW 2447   2.686   3.200   8.116
33517SOL    HW1 2448   2.685   3.237   8.204
33517SOL    HW2 2449   2.765   3.147   8.113
33518SOL     OW 2450   1.173  10.893   2.475
33518SOL    HW1 2451   1.267  10.875   2.477
33518SOL    HW2 2452   1.137  10.843   2.548
33519SOL     OW 2453  13.193   3.508  14.182
33519SOL    HW1 2454  13.163   3.598  14.195
33519SOL    HW2 2455  13.279   3.518  14.140
33520SOL     OW 2456   2.244   6.866   4.640
33520SOL    HW1 2457   2.289   6.794   4.684
33520SOL    HW2 2458   2.253   6.846   4.547
33521SOL     OW 2459   3.400  10.391   7.857
33521SOL    HW1 2460   3.443  10.322   7.908
33521SOL    HW2 2461   3.313  10.398   7.897
33522SOL     OW 2462   8.481   7.325   7.329
33522SOL    HW1 2463   8.440   7.244   7.298
33522SOL    HW2 2464   8.435   7.345   7.411
33523SOL     OW 2465   7.954   9.702   1.656
33523SOL    HW1 2466   7.910   9.769   1.707
33523SOL    HW2 2467   7.974   9.744   1.572
33524SOL     OW 2468   4.411  13.720  12.188
33524SOL    HW1 2469   4.354  13.699  12.262
33524SOL    HW2 2470   4.375  13.669  12.115
33525SOL     OW 2471  11.081   6.025   9.677
33525SOL    HW1 2472  11.154   6.003   9.735
33525SOL    HW2 2473  11.057   6.115   9.700
33526SOL     OW 2474  10.707   1.359   7.046
33526SOL    HW1 2475  10.648   1.359   7.122
33526SOL    HW2 2476  10.648   1.364   6.970
33527SOL     OW 2477   3.247  13.961   8.445
33527SOL    HW1 2478   3.195  13.881   8.446
33527SOL    HW2 2479   3.246  13.991   8.536
33528SOL     OW 2480   6.715   0.538  13.588
33528SOL    HW1 2481   6.717   0.611  13.651
33528SOL    HW2 2482   6.691   0.579  13.505
33529SOL     OW 2483   2.526   1.198   8.309
33529SOL    HW1 2484   2.538   1.182   8.402
33529SOL    HW2 2485   2.614   1.196   8.272
33530SOL     OW 2486   5.536   8.472  13.605
33530SOL    HW1 2487   5.630   8.457  13.610
33530SOL    HW2 2488   5.497   8.384  13.603
33531SOL     OW 2489   0.939  13.443  12.545
33531SOL    HW1 2490   0.894  13.410  12.467
33531SOL    HW2 2491   0.889  13.407  12.618
33532SOL     OW 2492   2.206  14.611   0.055
33532SOL    HW1 2493   2.214  14.691   0.108
33532SOL    HW2 2494   2.297  14.586   0.037
33533SOL     OW 2495   3.386  13.057   4.876
33533SOL    HW1 2496   3.379  13.088   4.967
33533SOL    HW2 2497   3.465  13.101   4.843
33534SOL     OW 2498   4.341   5.216  12.878
33534SOL    HW1 2499   4.304   5.195  12.964
33534SOL    HW2 2500   4.309   5.146  12.821
33535SOL     OW 2501  10.169  10.673   1.859
33535SOL    HW1 2502  10.095  10.713   1.905
33535SOL    HW2 2503  10.164  10.580   1.883
33536SOL     OW 2504  11.353   4.168   7.444
33536SOL    HW1 2505  11.267   4.210   7.436
33536SOL    HW2 2506  11.393   4.210   7.519
33537SOL     OW 2507  12.780   9.582  10.461
33537SOL    HW1 2508  12.849   9.527  10.425
33537SOL    HW2 2509  12.788   9.572  10.556
33538SOL     OW 2510   1.875   1.534   3.854
33538SOL    HW1 2511   1.955   1.553   3.904
33538SOL    HW2 2512   1.904   1.534   3.762
33539SOL     OW 2513   3.996   7.834   1.831
33539SOL    HW1 2514   4.037   7.751   1.809
33539SOL    HW2 2515   3.914   7.811   1.873
33540SOL     OW 2516   9.027   5.967  11.434
33540SOL    HW1 2517   8.944   5.970  11.386
33540SOL    HW2 2518   9.072   6.047  11.408
33541SOL     OW 2519   9.443  14.447   0.478
33541SOL    HW1 2520   9.498  14.455   0.556
33541SOL    HW2 2521   9.440  14.353   0.461
33542SOL     OW 2522   5.637   6.652   3.808
33542SOL    HW1 2523   5.624   6.746   3.794
33542SOL    HW2 2524   5.599   6.611   3.730
33543SOL     OW 2525   9.827  14.840   2.348
33543SOL    HW1 2526   9.807  14.748   2.332
33543SOL    HW2 2527   9.916  14.851   2.314
33544SOL     OW 2528  11.818  13.338  10.214
33544SOL    HW1 2529  11.866  13.416  10.243
33544SOL    HW2 2530  11.730  13.370  10.197
33545SOL     OW 2531   6.678   4.062   6.330
33545SOL    HW1 2532   6.740   4.129   6.360
33545SOL    HW2 2533   6.721   4.022   6.255
33546SOL     OW 2534  10.902   9.841   2.832
33546SOL    HW1 2535  10.807   9.842   2.822
33546SOL    HW2 2536  10.920   9.759   2.878
33547SOL     OW 2537   4.681  13.129   3.331
33547SOL    HW1 2538   4.682  13.046   3.284
33547SOL    HW2 2539   4.758  13.126   3.388
33548SOL     OW 2540   2.131   9.563  14.850
33548SOL    HW1 2541   2.096   9.643  14.811
33548SOL    HW2 2542   2.225   9.569  14.836
33549SOL     OW 2543   9.943   0.468   7.740
33549SOL    HW1 2544  10.015   0.483   7.801
33549SOL    HW2 2545   9.962   0.383   7.700
33550SOL     OW 2546   2.060   8.437   8.444
33550SOL    HW1 2547   2.152   8.466   8.441
33550SOL    HW2 2548   2.055   8.383   8.523
33551SOL     OW 2549  13.456  10.319   2.841
33551SOL    HW1 2550  13.510  10.253   2.797
33551SOL    HW2 2551  13.403  10.269   2.903
33552SOL     OW 2552   7.231   0.694   5.202
33552SOL    HW1 2553   7.289   0.747   5.257
33552SOL    HW2 2554   7.288   0.628   5.163
33553SOL     OW 2555  14.262  10.751  14.729
33553SOL    HW1 2556  14.227  10.662  14.738
33553SOL    HW2 2557  14.327  10.744  14.659
33554SOL     OW 2558   6.270   1.886   6.535
33554SOL    HW1 2559   6.260   1.793   6.558
33554SOL    HW2 2560   6.288   1.885   6.441
33555SOL     OW 2561   8.929   3.732   3.262
33555SOL    HW1 2562   8.850   3.786   3.272
33555SOL    HW2 2563   8.906   3.649   3.302
33556SOL     OW 2564   0.985   2.170   3.647
33556SOL    HW1 2565   1.076   2.145   3.633
33556SOL    HW2 2566   0.959   2.122   3.726
33557SOL     OW 2567  10.747  10.790   8.020
33557SOL    HW1 2568  10.822  10.809   8.077
33557SOL    HW2 2569  10.760  10.698   7.995
33558SOL     OW 2570  12.077  11.539   8.927
33558SOL    HW1 2571  12.163  11.513   8.960
33558SOL    HW2 2572  12.078  11.512   8.835
33559SOL     OW 2573   1.638   9.460   1.780
33559SOL    HW1 2574   1.560   9.495   1.737
33559SOL    HW2 2575   1.646   9.513   1.860
33560SOL     OW 2576   9.625  14.833   1.723
33560SOL    HW1 2577   9.547  14.819   1.776
33560SOL    HW2 2578   9.656  14.745   1.701
33561SOL     OW 2579   9.184   2.560   3.569
33561SOL    HW1 2580   9.264   2.580   3.618
33561SOL    HW2 2581   9.200   2.597   3.482
33562SOL     OW 2582  13.128   8.537   7.116
33562SOL    HW1 2583  13.183   8.607   7.153
33562SOL    HW2 2584  13.042   8.577   7.106
33563SOL     OW 2585   4.971   2.788   4.814
33563SOL    HW1 2586   4.906   2.783   4.883
33563SOL    HW2 2587   5.046   2.831   4.854
33564SOL     OW 2588   8.079  12.047   6.671
33564SOL    HW1 2589   8.016  12.091   6.728
33564SOL    HW2 2590   8.103  12.113   6.606
33565SOL     OW 2591  10.274   8.399   1.807
33565SOL    HW1 2592  10.228   8.322   1.839
33565SOL    HW2 2593  10.357   8.365   1.774
33566SOL     OW 2594  10.929   5.606   2.764
33566SOL    HW1 2595  10.971   5.535   2.716
33566SOL    HW2 2596  11.001   5.667   2.783
33567SOL     OW 2597   4.291   4.449  10.201
33567SOL    HW1 2598   4.383   4.421  10.201
33567SOL    HW2 2599   4.293   4.539  10.170
33568SOL     OW 2600   5.495   9.232   6.257
33568SOL    HW1 2601   5.552   9.159   6.231
33568SOL    HW2 2602   5.482   9.281   6.177
33569SOL     OW 2603   3.108   9.925  12.658
33569SOL    HW1 2604   3.019   9.939  12.690
33569SOL    HW2 2605   3.130   9.837  12.688
33570SOL     OW 2606  14.772   6.593   2.367
33570SOL    HW1 2607  14.696   6.648   2.382
33570SOL    HW2 2608  14.801   6.616   2.278
33571SOL     OW 2609   7.199   5.659   5.692
33571SOL    HW1 2610   7.233   5.640   5.604
33571SOL    HW2 2611   7.106   5.638   5.686
33572SOL     OW 2612   7.038   2.553   9.248
33572SOL    HW1 2613   7.023   2.602   9.329
33572SOL    HW2 2614   7.008   2.611   9.178
33573SOL     OW 2615   1.248   7.627  12.649
33573SOL    HW1 2616   1.203   7.643  12.732
33573SOL    HW2 2617   1.341   7.631  12.671
33574SOL     OW 2618   1.912  10.372   3.388
33574SOL    HW1 2619   1.831  10.361   3.438
33574SOL    HW2 2620   1.895  10.445   3.329
33575SOL     OW 2621   9.369  10.369   1.243
33575SOL    HW1 2622   9.373  10.418   1.325
33575SOL    HW2 2623   9.394  10.279   1.268
33576SOL     OW 2624  14.318   2.188  10.347
33576SOL    HW1 2625  14.307   2.163  10.255
33576SOL    HW2 2626  14.390   2.133  10.378
33577SOL     OW 2627   7.813   7.382   7.122
33577SOL    HW1 2628   7.869   7.428   7.059
33577SOL    HW2 2629   7.787   7.302   7.077
33578SOL     OW 2630   0.593   3.668   2.406
33578SOL    HW1 2631   0.546   3.749   2.389
33578SOL    HW2 2632   0.525   3.600   2.404
33579SOL     OW 2633   8.763   1.201   8.471
33579SOL    HW1 2634   8.813   1.162   8.400
33579SOL    HW2 2635   8.731   1.126   8.521
33580SOL     OW 2636   2.299   6.627   4.084
33580SOL    HW1 2637   2.229   6.564   4.100
33580SOL    HW2 2638   2.377   6.587   4.123
33581SOL     OW 2639  12.222  12.183   0.918
33581SOL    HW1 2640  12.278  12.105   0.916
33581SOL    HW2 2641  12.256  12.239   0.848
33582SOL     OW 2642   0.796   8.596   6.438
33582SOL    HW1 2643   0.747   8.516   6.416
33582SOL    HW2 2644   0.888   8.572   6.428
33583SOL     OW 2645   6.184   4.835   8.519
33583SOL    HW1 2646   6.157   4.899   8.454
33583SOL    HW2 2647   6.115   4.838   8.586
33584SOL     OW 2648   5.846  10.350  10.994
33584SOL    HW1 2649   5.914  10.306  10.942
33584SOL    HW2 2650   5.839  10.437  10.954
33585SOL     OW 2651   0.278   1.263   6.415
33585SOL    HW1 2652   0.270   1.280   6.321
33585SOL    HW2 2653   0.350   1.200   6.422
33586SOL     OW 2654   7.925   1.590  11.261
33586SOL    HW1 2655   7.882   1.505  11.255
33586SOL    HW2 2656   7.855   1.654  11.244
33587SOL     OW 2657   1.125   6.144   8.310
33587SOL    HW1 2658   1.079   6.227   8.327
33587SOL    HW2 2659   1.076   6.079   8.360
33588SOL     OW 2660   1.103   6.844  12.298
33588SOL    HW1 2661   1.103   6.917  12.236
33588SOL    HW2 2662   1.127   6.884  12.382
33589SOL     OW 2663  14.007  10.614  11.244
33589SOL    HW1 2664  14.028  10.548  11.178
33589SOL    HW2 2665  13.944  10.571  11.302
33590SOL     OW 2666   5.177   0.665   6.856
33590SOL    HW1 2667   5.198   0.584   6.810
33590SOL    HW2 2668   5.126   0.716   6.792
33591SOL     OW 2669   5.689   6.493   5.595
33591SOL    HW1 2670   5.665   6.574   5.551
33591SOL    HW2 2671   5.608   6.463   5.636
33592SOL     OW 2672   7.865   7.620   1.761
33592SOL    HW1 2673   7.796   7.648   1.700
33592SOL    HW2 2674   7.947   7.634   1.713
33593SOL     OW 2675   7.139   6.658  14.150
33593SOL    HW1 2676   7.228   6.671  14.183
33593SOL    HW2 2677   7.152   6.628  14.059
33594SOL     OW 2678   4.524  12.518   6.143
33594SOL    HW1 2679   4.531  12.497   6.236
33594SOL    HW2 2680   4.585  12.590   6.130
33595SOL     OW 2681   7.214   8.471   2.325
33595SOL    HW1 2682   7.295   8.518   2.307
33595SOL    HW2 2683   7.154   8.539   2.357
33596SOL     OW 2684   2.423   2.770   5.969
33596SOL    HW1 2685   2.509   2.751   5.933
33596SOL    HW2 2686   2.365   2.705   5.929
33597SOL     OW 2687  12.663  13.731  12.289
33597SOL    HW1 2688  12.578  13.735  12.333
33597SOL    HW2 2689  12.703  13.816  12.307
33598SOL     OW 2690  14.451  14.765   9.153
33598SOL    HW1 2691  14.451  14.789   9.245
33598SOL    HW2 2692  14.439  14.670   9.153
33599SOL     OW 2693   0.350   3.820   0.031
33599SOL    HW1 2694   0.432   3.855  14.877
33599SOL    HW2 2695   0.292   3.817  14.835
33600SOL     OW 2696  14.855   2.858   6.813
33600SOL    HW1 2697  14.844   2.832   6.722
33600SOL    HW2 2698   0.067   2.882   6.820
33601SOL     OW 2699   5.072   0.003   1.441
33601SOL    HW1 2700   5.135  14.868   1.512
33601SOL    HW2 2701   5.013   0.069   1.475
33602SOL     OW 2702  14.526   8.625   6.122
33602SOL    HW1 2703  14.463   8.592   6.186
33602SOL    HW2 2704  14.477   8.688   6.070
33603SOL     OW 2705   0.943   5.443   7.983
33603SOL    HW1 2706   0.854   5.469   8.007
33603SOL    HW2 2707   0.950   5.352   8.011
33604SOL     OW 2708   7.758   0.113   9.579
33604SOL    HW1 2709   7.760   0.179   9.510
33604SOL    HW2 2710   7.814   0.149   9.648
33605SOL     OW 2711  10.401   6.410   0.630
33605SOL    HW1 2712  10.421   6.337   0.572
33605SOL    HW2 2713  10.335   6.461   0.582
33606SOL     OW 2714   5.091  14.842  11.163
33606SOL    HW1 2715   5.010  14.841  11.214
33606SOL    HW2 2716   5.091   0.047  11.120
33607SOL     OW 2717   5.224  14.040   4.119
33607SOL    HW1 2718   5.168  13.963   4.130
33607SOL    HW2 2719   5.170  14.102   4.070
33608SOL     OW 2720  12.143  14.657   7.319
33608SOL    HW1 2721  12.055  14.695   7.313
33608SOL    HW2 2722  12.128  14.564   7.336
33609SOL     OW 2723   7.080   9.380   2.719
33609SOL    HW1 2724   7.143   9.447   2.692
33609SOL    HW2 2725   7.118   9.341   2.797
33610SOL     OW 2726  13.693   7.425   3.586
33610SOL    HW1 2727  13.723   7.516   3.582
33610SOL    HW2 2728  13.605   7.431   3.623
33611SOL     OW 2729  11.816   4.997   3.823
33611SOL    HW1 2730  11.882   4.990   3.891
33611SOL    HW2 2731  11.861   4.970   3.743
33612SOL     OW 2732   9.906   3.620   1.408
33612SOL    HW1 2733   9.860   3.613   1.492
33612SOL    HW2 2734   9.840   3.654   1.347
33613SOL     OW 2735   8.907  12.138  13.087
33613SOL    HW1 2736   8.927  12.231  13.092
33613SOL    HW2 2737   8.972  12.103  13.026
33614SOL     OW 2738  11.000   6.403   3.927
33614SOL    HW1 2739  10.961   6.490   3.919
33614SOL    HW2 2740  11.078   6.407   3.871
33615SOL     OW 2741  13.899  11.002   9.813
33615SOL    HW1 2742  13.969  11.016   9.749
33615SOL    HW2 2743  13.899  11.082   9.866
33616SOL     OW 2744   3.758  10.534   7.942
33616SOL    HW1 2745   3.700  10.541   8.017
33616SOL    HW2 2746   3.846  10.524   7.979
33617SOL     OW 2747  11.214   4.826  14.048
33617SOL    HW1 2748  11.300   4.865  14.034
33617SOL    HW2 2749  11.155   4.901  14.057
33618SOL     OW 2750  10.508   8.717  10.468
33618SOL    HW1 2751  10.498   8.646  10.404
33618SOL    HW2 2752  10.600   8.742  10.461
33619SOL     OW 2753   6.481  10.945  12.870
33619SOL    HW1 2754   6.511  10.927  12.781
33619SOL    HW2 2755   6.418  11.017  12.860
33620SOL     OW 2756   7.213   1.759   5.104
33620SOL    HW1 2757   7.191   1.843   5.064
33620SOL    HW2 2758   7.155   1.753   5.180
33621SOL     OW 2759   1.627   9.224   1.360
33621SOL    HW1 2760   1.701   9.166   1.346
33621SOL    HW2 2761   1.664   9.300   1.405
33622SOL     OW 2762  10.466   4.127   8.996
33622SOL    HW1 2763  10.500   4.150   9.082
33622SOL    HW2 2764  10.382   4.174   8.990
33623SOL     OW 2765  13.812  13.776   6.237
33623SOL    HW1 2766  13.779  13.736   6.156
33623SOL    HW2 2767  13.809  13.705   6.302
33624SOL     OW 2768   7.727  14.228  11.916
33624SOL    HW1 2769   7.792  14.210  11.984
33624SOL    HW2 2770   7.726  14.148  11.863
33625SOL     OW 2771  14.579   2.072  14.540
33625SOL    HW1 2772  14.549   2.102  14.455
33625SOL    HW2 2773  14.649   2.132  14.565
33626SOL     OW 2774  11.870  11.062   7.934
33626SOL    HW1 2775  11.953  11.106   7.918
33626SOL    HW2 2776  11.894  10.973   7.959
33627SOL     OW 2777   6.914  12.964   3.210
33627SOL    HW1 2778   6.871  13.043   3.243
33627SOL    HW2 2779   6.985  12.998   3.155
33628SOL     OW 2780   1.344  13.178   3.976
33628SOL    HW1 2781   1.304  13.135   3.900
33628SOL    HW2 2782   1.360  13.107   4.038
33629SOL     OW 2783  11.967  14.274   0.812
33629SOL    HW1 2784  12.014  14.247   0.891
33629SOL    HW2 2785  12.020  14.345   0.776
33630SOL     OW 2786   5.884   8.777   7.637
33630SOL    HW1 2787   5.907   8.706   7.577
33630SOL    HW2 2788   5.789   8.786   7.628
33631SOL     OW 2789  14.286   8.178  14.815
33631SOL    HW1 2790  14.284   8.263  14.858
33631SOL    HW2 2791  14.213   8.130  14.855
33632SOL     OW 2792   9.199   6.212   5.517
33632SOL    HW1 2793   9.106   6.226   5.496
33632SOL    HW2 2794   9.199   6.143   5.584
33633SOL     OW 2795   8.674  13.265  12.402
33633SOL    HW1 2796   8.584  13.240  12.422
33633SOL    HW2 2797   8.715  13.185  12.370
33634SOL     OW 2798  11.106   6.478  11.588
33634SOL    HW1 2799  11.158   6.557  11.572
33634SOL    HW2 2800  11.022   6.496  11.546
33635SOL     OW 2801  13.674   3.701   5.210
33635SOL    HW1 2802  13.608   3.632   5.209
33635SOL    HW2 2803  13.701   3.707   5.302
33636SOL     OW 2804   4.127   4.020   0.398
33636SOL    HW1 2805   4.087   3.950   0.450
33636SOL    HW2 2806   4.142   3.980   0.312
33637SOL     OW 2807   7.871   9.598   6.041
33637SOL    HW1 2808   7.799   9.647   6.001
33637SOL    HW2 2809   7.859   9.611   6.135
33638SOL     OW 2810  12.645   3.808   0.055
33638SOL    HW1 2811  12.576   3.807   0.121
33638SOL    HW2 2812  12.719   3.764   0.097
33639SOL     OW 2813   8.626  13.377  10.080
33639SOL    HW1 2814   8.709  13.328  10.076
33639SOL    HW2 2815   8.588  13.366   9.993
33640SOL     OW 2816   8.587   4.416  11.336
33640SOL    HW1 2817   8.511   4.372  11.298
33640SOL    HW2 2818   8.549   4.484  11.392
33641SOL     OW 2819   8.961  10.363   9.903
33641SOL    HW1 2820   8.882  10.311   9.916
33641SOL    HW2 2821   8.931  10.454   9.903
33642SOL     OW 2822   0.567  12.416   5.765
33642SOL    HW1 2823   0.480  12.415   5.726
33642SOL    HW2 2824   0.620  12.467   5.704
33643SOL     OW 2825  12.498   4.768   4.006
33643SOL    HW1 2826  12.457   4.709   4.069
33643SOL    HW2 2827  12.501   4.717   3.925
33644SOL     OW 2828   3.501   7.451   2.578
33644SOL    HW1 2829   3.409   7.434   2.597
33644SOL    HW2 2830   3.511   7.432   2.485
33645SOL     OW 2831  12.555  12.723  11.713
33645SOL    HW1 2832  12.500  12.751  11.640
33645SOL    HW2 2833  12.642  12.758  11.693
33646SOL     OW 2834   5.551   3.076   6.999
33646SOL    HW1 2835   5.527   3.098   7.089
33646SOL    HW2 2836   5.481   3.114   6.946
33647SOL     OW 2837   6.420   9.923   1.512
33647SOL    HW1 2838   6.425   9.860   1.440
33647SOL    HW2 2839   6.332   9.910   1.548
33648SOL     OW 2840  14.854   6.196  10.565
33648SOL    HW1 2841   0.024   6.204  10.646
33648SOL    HW2 2842   0.024   6.246  10.501
33649SOL     OW 2843   5.287   9.322   3.290
33649SOL    HW1 2844   5.245   9.277   3.217
33649SOL    HW2 2845   5.257   9.275   3.368
33650SOL     OW 2846   1.811  13.640   2.760
33650SOL    HW1 2847   1.724  13.641   2.721
33650SOL    HW2 2848   1.813  13.562   2.815
33651SOL     OW 2849  12.512   8.899   5.257
33651SOL    HW1 2850  12.603   8.884   5.281
33651SOL    HW2 2851  12.512   8.901   5.161
33652SOL     OW 2852   4.425  10.759   3.765
33652SOL    HW1 2853   4.483  10.707   3.820
33652SOL    HW2 2854   4.337  10.729   3.788
33653SOL     OW 2855   7.727   6.775  13.903
33653SOL    HW1 2856   7.816   6.805  13.885
33653SOL    HW2 2857   7.702   6.725  13.825
33654SOL     OW 2858   0.514  11.368   4.674
33654SOL    HW1 2859   0.449  11.303   4.645
33654SOL    HW2 2860   0.474  11.453   4.656
33655SOL     OW 2861  11.796  14.859  10.573
33655SOL    HW1 2862  11.750   0.031  10.639
33655SOL    HW2 2863  11.889   0.000  10.587
33656SOL     OW 2864   0.645   4.555  11.772
33656SOL    HW1 2865   0.570   4.504  11.741
33656SOL    HW2 2866   0.716   4.534  11.711
33657SOL     OW 2867   7.585   6.594   4.390
33657SOL    HW1 2868   7.665   6.558   4.428
33657SOL    HW2 2869   7.536   6.517   4.361
33658SOL     OW 2870   6.744   9.170  14.820
33658SOL    HW1 2871   6.754   9.097   0.001
33658SOL    HW2 2872   6.661   9.153  14.776
33659SOL     OW 2873   2.782   9.629   2.281
33659SOL    HW1 2874   2.691   9.658   2.294
33659SOL    HW2 2875   2.823   9.642   2.367
33660SOL     OW 2876   1.952  12.695   3.092
33660SOL    HW1 2877   2.011  12.720   3.020
33660SOL    HW2 2878   1.899  12.773   3.107
33661SOL     OW 2879   7.269   2.995  14.722
33661SOL    HW1 2880   7.318   2.923  14.682
33661SOL    HW2 2881   7.290   3.071  14.668
33662SOL     OW 2882  13.258  10.928   1.239
33662SOL    HW1 2883  13.177  10.968   1.207
33662SOL    HW2 2884  13.325  10.994   1.223
33663SOL     OW 2885   9.773  12.037   0.878
33663SOL    HW1 2886   9.703  11.975   0.896
33663SOL    HW2 2887   9.843  11.985   0.838
33664SOL     OW 2888   3.309   5.835   5.376
33664SOL    HW1 2889   3.379   5.892   5.344
33664SOL    HW2 2890   3.353   5.757   5.407
33665SOL     OW 2891  14.577  14.007   8.180
33665SOL    HW1 2892  14.518  13.994   8.254
33665SOL    HW2 2893  14.531  13.969   8.105
33666SOL     OW 2894  12.792  11.186  13.275
33666SOL    HW1 2895  12.793  11.204  13.180
33666SOL    HW2 2896  12.828  11.266  13.314
33667SOL     OW 2897   4.284   8.696   3.393
33667SOL    HW1 2898   4.311   8.621   3.447
33667SOL    HW2 2899   4.360   8.754   3.391
33668SOL     OW 2900   2.319   2.669   3.965
33668SOL    HW1 2901   2.277   2.702   3.885
33668SOL    HW2 2902   2.272   2.713   4.036
33669SOL     OW 2903   3.804  12.441   8.444
33669SOL    HW1 2904   3.831  12.434   8.536
33669SOL    HW2 2905   3.710  12.459   8.447
33670SOL     OW 2906  13.661   7.066   4.141
33670SOL    HW1 2907  13.611   7.144   4.165
33670SOL    HW2 2908  13.732   7.099   4.085
33671SOL     OW 2909   8.348   8.257  13.084
33671SOL    HW1 2910   8.348   8.168  13.120
33671SOL    HW2 2911   8.422   8.258  13.024
33672SOL     OW 2912   5.026   1.824   5.868
33672SOL    HW1 2913   5.028   1.904   5.921
33672SOL    HW2 2914   5.063   1.757   5.925
33673SOL     OW 2915  12.009  14.131   6.145
33673SOL    HW1 2916  12.055  14.047   6.133
33673SOL    HW2 2917  11.942  14.132   6.076
33674SOL     OW 2918   4.405  11.236   2.371
33674SOL    HW1 2919   4.325  11.263   2.326
33674SOL    HW2 2920   4.401  11.141   2.373
33675SOL     OW 2921  13.552   5.405  10.403
33675SOL    HW1 2922  13.503   5.475  10.361
33675SOL    HW2 2923  13.600   5.363  10.331
33676SOL     OW 2924   6.737   6.968  13.462
33676SOL    HW1 2925   6.771   6.962  13.551
33676SOL    HW2 2926   6.645   6.947  13.470
33677SOL     OW 2927   3.150   8.077  10.116
33677SOL    HW1 2928   3.157   8.056  10.209
33677SOL    HW2 2929   3.217   8.024  10.074
33678SOL     OW 2930  13.511   5.484  11.671
33678SOL    HW1 2931  13.526   5.412  11.610
33678SOL    HW2 2932  13.579   5.473  11.738
33679SOL     OW 2933  10.394   8.179  11.002
33679SOL    HW1 2934  10.488   8.178  10.984
33679SOL    HW2 2935  10.353   8.187  10.916
33680SOL     OW 2936  12.197   5.026   1.782
33680SOL    HW1 2937  12.270   4.984   1.737
33680SOL    HW2 2938  12.203   4.994   1.872
33681SOL     OW 2939   9.325   1.056   3.143
33681SOL    HW1 2940   9.338   0.991   3.213
33681SOL    HW2 2941   9.330   1.140   3.187
33682SOL     OW 2942   2.898   1.659   9.308
33682SOL    HW1 2943   2.942   1.745   9.311
33682SOL    HW2 2944   2.877   1.640   9.400
33683SOL     OW 2945   0.148   5.204   2.414
33683SOL    HW1 2946   0.120   5.238   2.328
33683SOL    HW2 2947   0.066   5.192   2.462
33684SOL     OW 2948   5.837   6.146  11.787
33684SOL    HW1 2949   5.861   6.198  11.864
33684SOL    HW2 2950   5.899   6.073  11.786
33685SOL     OW 2951  13.478   8.361   7.828
33685SOL    HW1 2952  13.553   8.418   7.812
33685SOL    HW2 2953  13.517   8.273   7.834
33686SOL     OW 2954   5.565   4.484   7.236
33686SOL    HW1 2955   5.507   4.531   7.177
33686SOL    HW2 2956   5.539   4.514   7.324
33687SOL     OW 2957  11.174   4.621   1.348
33687SOL    HW1 2958  11.221   4.691   1.393
33687SOL    HW2 2959  11.186   4.640   1.255
33688SOL     OW 2960   8.403   8.095   5.064
33688SOL    HW1 2961   8.389   8.176   5.113
33688SOL    HW2 2962   8.357   8.108   4.982
33689SOL     OW 2963   7.689   1.606  11.613
33689SOL    HW1 2964   7.776   1.643  11.604
33689SOL    HW2 2965   7.631   1.669  11.569
33690SOL     OW 2966  12.951  12.905   2.578
33690SOL    HW1 2967  13.009  12.941   2.510
33690SOL    HW2 2968  13.010  12.856   2.636
33691SOL     OW 2969   8.720   3.821   4.351
33691SOL    HW1 2970   8.678   3.798   4.268
33691SOL    HW2 2971   8.804   3.777   4.349
33692SOL     OW 2972  11.099   8.605   5.088
33692SOL    HW1 2973  11.148   8.601   5.007
33692SOL    HW2 2974  11.087   8.699   5.105
33693SOL     OW 2975   0.987  13.498   4.684
33693SOL    HW1 2976   0.901  13.539   4.685
33693SOL    HW2 2977   0.974  13.415   4.638
33694SOL     OW 2978   7.428   2.795  14.639
33694SOL    HW1 2979   7.439   2.760  14.728
33694SOL    HW2 2980   7.509   2.770  14.594
33695SOL     OW 2981   6.131   4.748   1.446
33695SOL    HW1 2982   6.178   4.669   1.422
33695SOL    HW2 2983   6.195   4.819   1.437
33696SOL     OW 2984  12.832  10.783   0.039
33696SOL    HW1 2985  12.891  10.859   0.043
33696SOL    HW2 2986  12.801  10.782  14.828
33697SOL     OW 2987  11.974  11.163   0.057
33697SOL    HW1 2988  12.069  11.164   0.063
33697SOL    HW2 2989  11.945  11.218   0.130
33698SOL     OW 2990  11.200  14.500   0.709
33698SOL    HW1 2991  11.188  14.591   0.737
33698SOL    HW2 2992  11.294  14.492   0.692
33699SOL     OW 2993  14.022   7.667   1.842
33699SOL    HW1 2994  13.942   7.620   1.821
33699SOL    HW2 2995  14.022   7.743   1.784
33700SOL     OW 2996  10.539  14.335  11.100
33700SOL    HW1 2997  10.582  14.416  11.126
33700SOL    HW2 2998  10.585  14.309  11.020
33701SOL     OW 2999   6.881   2.647   8.797
33701SOL    HW1 3000   6.898   2.672   8.888
33701SOL    HW2 3001   6.789   2.619   8.796
33702SOL     OW 3002  14.371   8.870   5.731
33702SOL    HW1 3003  14.404   8.809   5.666
33702SOL    HW2 3004  14.404   8.837   5.815
33703SOL     OW 3005   4.999   9.423  10.742
33703SOL    HW1 3006   4.988   9.377  10.826
33703SOL    HW2 3007   5.046   9.360  10.687
33704SOL     OW 3008  14.016  10.725   5.154
33704SOL    HW1 3009  13.966  10.662   5.101
33704SOL    HW2 3010  14.065  10.776   5.090
33705SOL     OW 3011  13.600   2.961   6.416
33705SOL    HW1 3012  13.579   2.869   6.425
33705SOL    HW2 3013  13.627   2.988   6.504
33706SOL     OW 3014   4.731   9.991   2.157
33706SOL    HW1 3015   4.770  10.047   2.090
33706SOL    HW2 3016   4.644  10.028   2.172
33707SOL     OW 3017  13.003  11.676   0.593
33707SOL    HW1 3018  12.995  11.589   0.633
33707SOL    HW2 3019  12.920  11.719   0.612
33708SOL     OW 3020  12.409   9.911   2.865
33708SOL    HW1 3021  12.329   9.872   2.900
33708SOL    HW2 3022  12.479   9.876   2.920
33709SOL     OW 3023   5.863   2.340  13.252
33709SOL    HW1 3024   5.806   2.417  13.256
33709SOL    HW2 3025   5.941   2.365  13.302
33710SOL     OW 3026  11.426  13.499   3.395
33710SOL    HW1 3027  11.355  13.439   3.372
33710SOL    HW2 3028  11.503  13.463   3.353
33711SOL     OW 3029   5.704   1.809   8.927
33711SOL    HW1 3030   5.615   1.799   8.892
33711SOL    HW2 3031   5.731   1.896   8.899
33712SOL     OW 3032  10.127  14.503   2.548
33712SOL    HW1 3033  10.186  14.571   2.580
33712SOL    HW2 3034  10.175  14.421   2.560
33713SOL     OW 3035  14.246   8.883   8.249
33713SOL    HW1 3036  14.218   8.974   8.253
33713SOL    HW2 3037  14.173   8.836   8.209
33714SOL     OW 3038   7.620   2.233   5.027
33714SOL    HW1 3039   7.564   2.241   4.949
33714SOL    HW2 3040   7.568   2.273   5.097
33715SOL     OW 3041   7.121   6.967  14.067
33715SOL    HW1 3042   7.142   6.955  13.975
33715SOL    HW2 3043   7.096   6.879  14.098
33716SOL     OW 3044  12.829   4.484   9.543
33716SOL    HW1 3045  12.792   4.535   9.471
33716SOL    HW2 3046  12.796   4.395   9.529
33717SOL     OW 3047   1.587   0.692  12.702
33717SOL    HW1 3048   1.580   0.598  12.713
33717SOL    HW2 3049   1.572   0.707  12.609
33718SOL     OW 3050   1.556   2.749  10.507
33718SOL    HW1 3051   1.487   2.780  10.449
33718SOL    HW2 3052   1.566   2.819  10.572
33719SOL     OW 3053  13.198  14.508  13.772
33719SOL    HW1 3054  13.268  14.498  13.708
33719SOL    HW2 3055  13.165  14.597  13.758
33720SOL     OW 3056   8.351  12.773  14.197
33720SOL    HW1 3057   8.428  12.783  14.142
33720SOL    HW2 3058   8.343  12.857  14.242
33721SOL     OW 3059   6.066   9.820  12.303
33721SOL    HW1 3060   5.986   9.873  12.309
33721SOL    HW2 3061   6.109   9.832  12.387
33722SOL     OW 3062   8.853   8.056   8.747
33722SOL    HW1 3063   8.895   8.132   8.707
33722SOL    HW2 3064   8.888   8.053   8.837
33723SOL     OW 3065  10.361   1.270   9.049
33723SOL    HW1 3066  10.282   1.320   9.071
33723SOL    HW2 3067  10.406   1.257   9.132
33724SOL     OW 3068   8.124   3.131   8.477
33724SOL    HW1 3069   8.115   3.084   8.394
33724SOL    HW2 3070   8.049   3.103   8.529
33725SOL     OW 3071   2.238   2.683   0.388
33725SOL    HW1 3072   2.190   2.765   0.398
33725SOL    HW2 3073   2.328   2.705   0.413
33726SOL     OW 3074  11.047   5.303   0.650
33726SOL    HW1 3075  10.990   5.226   0.651
33726SOL    HW2 3076  11.101   5.291   0.572
33727SOL     OW 3077   9.127   0.143  14.623
33727SOL    HW1 3078   9.199   0.135  14.686
33727SOL    HW2 3079   9.169   0.176  14.543
33728SOL     OW 3080  10.218   9.901   2.957
33728SOL    HW1 3081  10.131   9.861   2.958
33728SOL    HW2 3082  10.267   9.856   3.026
33729SOL     OW 3083   2.232  13.659  14.188
33729SOL    HW1 3084   2.196  13.570  14.190
33729SOL    HW2 3085   2.168  13.709  14.137
33730SOL     OW 3086   3.489   8.990   5.183
33730SOL    HW1 3087   3.406   8.941   5.189
33730SOL    HW2 3088   3.508   9.015   5.274
33731SOL     OW 3089   8.020   2.401   9.278
33731SOL    HW1 3090   8.096   2.445   9.241
33731SOL    HW2 3091   8.053   2.315   9.305
33732SOL     OW 3092   5.025   2.577  10.905
33732SOL    HW1 3093   5.093   2.643  10.889
33732SOL    HW2 3094   5.017   2.574  11.001
33733SOL     OW 3095   3.899   9.977   5.032
33733SOL    HW1 3096   3.945   9.906   5.077
33733SOL    HW2 3097   3.832  10.005   5.094
33734SOL     OW 3098   8.961   7.984   9.104
33734SOL    HW1 3099   8.940   7.957   9.193
33734SOL    HW2 3100   8.938   7.908   9.050
33735SOL     OW 3101   9.550   7.851   1.259
33735SOL    HW1 3102   9.627   7.889   1.217
33735SOL    HW2 3103   9.584   7.778   1.311
33736SOL     OW 3104   7.946  12.300   3.019
33736SOL    HW1 3105   7.919  12.390   3.000
33736SOL    HW2 3106   7.974  12.265   2.935
33737SOL     OW 3107   9.069   5.060   1.153
33737SOL    HW1 3108   9.085   5.143   1.109
33737SOL    HW2 3109   9.078   5.079   1.246
33738SOL     OW 3110   1.899  14.509   6.519
33738SOL    HW1 3111   1.927  14.492   6.429
33738SOL    HW2 3112   1.945  14.589   6.544
33739SOL     OW 3113   6.780   5.195  11.875
33739SOL    HW1 3114   6.821   5.110  11.861
33739SOL    HW2 3115   6.701   5.175  11.925
33740SOL     OW 3116  10.441  14.779   0.966
33740SOL    HW1 3117  10.478  14.692   0.948
33740SOL    HW2 3118  10.379  14.793   0.895
33741SOL     OW 3119   2.524   5.848   6.342
33741SOL    HW1 3120   2.479   5.876   6.262
33741SOL    HW2 3121   2.597   5.794   6.311
33742SOL     OW 3122   9.657  11.173   4.886
33742SOL    HW1 3123   9.748  11.165   4.857
33742SOL    HW2 3124   9.606  11.159   4.806
33743SOL     OW 3125   8.773   9.377   8.274
33743SOL    HW1 3126   8.785   9.345   8.364
33743SOL    HW2 3127   8.746   9.299   8.225
33744SOL     OW 3128  10.496   2.730   4.258
33744SOL    HW1 3129  10.574   2.723   4.203
33744SOL    HW2 3130  10.527   2.707   4.346
33745SOL     OW 3131  14.516   7.463   4.615
33745SOL    HW1 3132  14.447   7.443   4.551
33745SOL    HW2 3133  14.525   7.382   4.666
33746SOL     OW 3134  10.297   1.044   8.149
33746SOL    HW1 3135  10.343   1.054   8.233
33746SOL    HW2 3136  10.290   0.949   8.138
33747SOL     OW 3137  12.254  10.545   4.347
33747SOL    HW1 3138  12.282  10.625   4.304
33747SOL    HW2 3139  12.170  10.568   4.388
33748SOL     OW 3140  11.038  14.168   9.984
33748SOL    HW1 3141  11.121  14.159   9.936
33748SOL    HW2 3142  11.033  14.088  10.036
33749SOL     OW 3143   9.656  10.769   9.149
33749SOL    HW1 3144   9.665  10.714   9.071
33749SOL    HW2 3145   9.619  10.712   9.216
33750SOL     OW 3146   0.309  11.038  13.825
33750SOL    HW1 3147   0.374  10.968  13.821
33750SOL    HW2 3148   0.225  10.994  13.812
33751SOL     OW 3149   6.536   7.243   6.902
33751SOL    HW1 3150   6.626   7.276   6.898
33751SOL    HW2 3151   6.544   7.151   6.875
33752SOL     OW 3152   2.561   2.006  11.439
33752SOL    HW1 3153   2.520   2.091  11.456
33752SOL    HW2 3154   2.502   1.942  11.478
33753SOL     OW 3155   9.316   6.895  12.708
33753SOL    HW1 3156   9.346   6.962  12.769
33753SOL    HW2 3157   9.307   6.816  12.761
33754SOL     OW 3158   4.946   6.722   7.713
33754SOL    HW1 3159   4.974   6.641   7.671
33754SOL    HW2 3160   5.015   6.741   7.777
33755SOL     OW 3161   6.714   4.278   5.579
33755SOL    HW1 3162   6.721   4.190   5.616
33755SOL    HW2 3163   6.682   4.333   5.650
33756SOL     OW 3164   0.464   3.698  12.055
33756SOL    HW1 3165   0.549   3.737  12.036
33756SOL    HW2 3166   0.455   3.704  12.150
33757SOL     OW 3167   4.954   4.775  13.126
33757SOL    HW1 3168   5.028   4.743  13.074
33757SOL    HW2 3169   4.993   4.812  13.205
33758SOL     OW 3170   1.564  12.345   1.600
33758SOL    HW1 3171   1.607  12.405   1.538
33758SOL    HW2 3172   1.634  12.286   1.629
33759SOL     OW 3173  13.523  12.079   9.394
33759SOL    HW1 3174  13.593  12.014   9.390
33759SOL    HW2 3175  13.497  12.093   9.303
33760SOL     OW 3176  11.704  11.344   8.283
33760SOL    HW1 3177  11.717  11.289   8.205
33760SOL    HW2 3178  11.782  11.400   8.285
33761SOL     OW 3179   3.892   1.732   6.268
33761SOL    HW1 3180   3.953   1.801   6.293
33761SOL    HW2 3181   3.875   1.684   6.349
33762SOL     OW 3182   8.242   1.577  12.436
33762SOL    HW1 3183   8.191   1.547  12.361
33762SOL    HW2 3184   8.201   1.660  12.461
33763SOL     OW 3185  14.700  12.124   2.470
33763SOL    HW1 3186  14.770  12.087   2.417
33763SOL    HW2 3187  14.638  12.052   2.482
33764SOL     OW 3188   9.838   0.168  12.371
33764SOL    HW1 3189   9.887   0.183  12.452
33764SOL    HW2 3190   9.886   0.098  12.327
33765SOL     OW 3191   0.395   5.307   8.184
33765SOL    HW1 3192   0.371   5.292   8.275
33765SOL    HW2 3193   0.390   5.403   8.174
33766SOL     OW 3194  12.549  13.571   8.740
33766SOL    HW1 3195  12.629  13.518   8.735
33766SOL    HW2 3196  12.576  13.658   8.713
33767SOL     OW 3197   5.705  12.093   7.754
33767SOL    HW1 3198   5.755  12.096   7.835
33767SOL    HW2 3199   5.635  12.157   7.766
33768SOL     OW 3200  10.516  13.347   3.726
33768SOL    HW1 3201  10.476  13.386   3.804
33768SOL    HW2 3202  10.545  13.422   3.674
33769SOL     OW 3203   4.796   3.363   2.065
33769SOL    HW1 3204   4.777   3.400   1.978
33769SOL    HW2 3205   4.811   3.270   2.049
33770SOL     OW 3206   9.257   6.028   9.163
33770SOL    HW1 3207   9.246   6.014   9.069
33770SOL    HW2 3208   9.284   6.120   9.170
33771SOL     OW 3209   1.680   0.800  13.103
33771SOL    HW1 3210   1.756   0.857  13.118
33771SOL    HW2 3211   1.630   0.844  13.035
33772SOL     OW 3212   4.933   3.574   6.653
33772SOL    HW1 3213   5.012   3.530   6.682
33772SOL    HW2 3214   4.961   3.628   6.579
33773SOL     OW 3215   4.940   5.456   7.690
33773SOL    HW1 3216   4.936   5.515   7.765
33773SOL    HW2 3217   4.936   5.513   7.613
33774SOL     OW 3218   6.441   2.407   8.906
33774SOL    HW1 3219   6.365   2.415   8.848
33774SOL    HW2 3220   6.410   2.439   8.990
33775SOL     OW 3221   4.600   5.506  12.812
33775SOL    HW1 3222   4.519   5.532  12.767
33775SOL    HW2 3223   4.667   5.565  12.778
33776SOL     OW 3224  10.778   5.023  11.637
33776SOL    HW1 3225  10.731   5.082  11.578
33776SOL    HW2 3226  10.862   5.065  11.652
33777SOL     OW 3227  14.254   5.808   7.175
33777SOL    HW1 3228  14.241   5.732   7.118
33777SOL    HW2 3229  14.187   5.871   7.147
33778SOL     OW 3230   2.413   6.576   7.933
33778SOL    HW1 3231   2.496   6.565   7.887
33778SOL    HW2 3232   2.352   6.518   7.886
33779SOL     OW 3233   0.148  13.456   0.895
33779SOL    HW1 3234   0.154  13.549   0.918
33779SOL    HW2 3235   0.156  13.410   0.979
33780SOL     OW 3236   2.241  11.500   3.856
33780SOL    HW1 3237   2.195  11.467   3.933
33780SOL    HW2 3238   2.285  11.580   3.886
33781SOL     OW 3239   7.270   6.617   5.096
33781SOL    HW1 3240   7.250   6.553   5.027
33781SOL    HW2 3241   7.278   6.700   5.050
33782SOL     OW 3242   6.539   0.553   6.625
33782SOL    HW1 3243   6.455   0.554   6.670
33782SOL    HW2 3244   6.598   0.604   6.681
33783SOL     OW 3245   4.192   3.284  11.914
33783SOL    HW1 3246   4.155   3.359  11.959
33783SOL    HW2 3247   4.261   3.321  11.858
33784SOL     OW 3248   7.668   3.092   8.879
33784SOL    HW1 3249   7.752   3.131   8.855
33784SOL    HW2 3250   7.606   3.125   8.814
33785SOL     OW 3251   7.144   6.255   3.017
33785SOL    HW1 3252   7.215   6.219   3.071
33785SOL    HW2 3253   7.091   6.306   3.079
33786SOL     OW 3254   0.484   4.368   8.024
33786SOL    HW1 3255   0.539   4.336   7.953
33786SOL    HW2 3256   0.478   4.463   8.009
33787SOL     OW 3257   3.725   1.317   2.736
33787SOL    HW1 3258   3.728   1.221   2.742
33787SOL    HW2 3259   3.817   1.344   2.734
33788SOL     OW 3260   2.255  11.074   7.860
33788SOL    HW1 3261   2.179  11.133   7.866
33788SOL    HW2 3262   2.327  11.124   7.899
33789SOL     OW 3263  11.646   9.468   7.301
33789SOL    HW1 3264  11.616   9.377   7.298
33789SOL    HW2 3265  11.692   9.475   7.385
33790SOL     OW 3266   0.243  14.300   7.100
33790SOL    HW1 3267   0.206  14.273   7.184
33790SOL    HW2 3268   0.215  14.233   7.038
33791SOL     OW 3269   6.952   5.074   8.388
33791SOL    HW1 3270   6.858   5.082   8.373
33791SOL    HW2 3271   6.985   5.164   8.383
33792SOL     OW 3272   4.657   9.144   3.434
33792SOL    HW1 3273   4.734   9.200   3.431
33792SOL    HW2 3274   4.596   9.182   3.371
33793SOL     OW 3275   9.668   1.291   5.665
33793SOL    HW1 3276   9.623   1.303   5.748
33793SOL    HW2 3277   9.689   1.198   5.662
33794SOL     OW 3278   2.686  11.888  12.321
33794SOL    HW1 3279   2.738  11.966  12.340
33794SOL    HW2 3280   2.730  11.818  12.368
33795SOL     OW 3281   5.208   8.312   1.640
33795SOL    HW1 3282   5.175   8.332   1.727
33795SOL    HW2 3283   5.280   8.373   1.626
33796SOL     OW 3284   4.812  12.512   0.543
33796SOL    HW1 3285   4.888  12.457   0.524
33796SOL    HW2 3286   4.804  12.569   0.467
33797SOL     OW 3287   2.124   9.647   3.550
33797SOL    HW1 3288   2.188   9.715   3.573
33797SOL    HW2 3289   2.039   9.685   3.573
33798SOL     OW 3290  14.128   4.635   4.778
33798SOL    HW1 3291  14.088   4.577   4.843
33798SOL    HW2 3292  14.062   4.644   4.709
33799SOL     OW 3293   9.399   6.299   1.199
33799SOL    HW1 3294   9.413   6.388   1.231
33799SOL    HW2 3295   9.337   6.261   1.260
33800SOL     OW 3296   2.474   0.187   9.144
33800SOL    HW1 3297   2.454   0.266   9.194
33800SOL    HW2 3298   2.448   0.115   9.201
33801SOL     OW 3299   8.709   4.040  13.568
33801SOL    HW1 3300   8.782   4.075  13.619
33801SOL    HW2 3301   8.669   3.975  13.625
33802SOL     OW 3302  14.070   5.710   2.936
33802SOL    HW1 3303  13.984   5.717   2.894
33802SOL    HW2 3304  14.076   5.619   2.965
33803SOL     OW 3305   2.907   7.591   3.336
33803SOL    HW1 3306   2.894   7.510   3.385
33803SOL    HW2 3307   2.954   7.649   3.396
33804SOL     OW 3308   7.147   4.879  14.685
33804SOL    HW1 3309   7.153   4.802  14.629
33804SOL    HW2 3310   7.227   4.928  14.667
33805SOL     OW 3311   8.124   5.525   7.492
33805SOL    HW1 3312   8.120   5.447   7.436
33805SOL    HW2 3313   8.108   5.598   7.432
33806SOL     OW 3314   7.410  14.024  12.653
33806SOL    HW1 3315   7.423  14.116  12.630
33806SOL    HW2 3316   7.393  14.026  12.747
33807SOL     OW 3317   0.041   7.211  11.676
33807SOL    HW1 3318   0.094   7.219  11.755
33807SOL    HW2 3319  14.840   7.258  11.697
33808SOL     OW 3320   3.686   2.406   0.511
33808SOL    HW1 3321   3.600   2.377   0.481
33808SOL    HW2 3322   3.726   2.328   0.549
33809SOL     OW 3323   6.918  13.988  12.862
33809SOL    HW1 3324   6.833  13.969  12.823
33809SOL    HW2 3325   6.944  14.072  12.824
33810SOL     OW 3326   4.290   3.652  10.526
33810SOL    HW1 3327   4.362   3.635  10.587
33810SOL    HW2 3328   4.290   3.576  10.467
33811SOL     OW 3329  12.155   7.395  14.638
33811SOL    HW1 3330  12.115   7.324  14.587
33811SOL    HW2 3331  12.240   7.408  14.597
33812SOL     OW 3332   9.524   0.830  10.378
33812SOL    HW1 3333   9.562   0.909  10.417
33812SOL    HW2 3334   9.435   0.857  10.354
33813SOL     OW 3335  14.642   5.482   2.533
33813SOL    HW1 3336  14.629   5.478   2.628
33813SOL    HW2 3337  14.711   5.548   2.522
33814SOL     OW 3338   3.585   2.977   3.970
33814SOL    HW1 3339   3.540   3.031   4.035
33814SOL    HW2 3340   3.528   2.901   3.957
33815SOL     OW 3341   8.409   0.957  12.572
33815SOL    HW1 3342   8.441   1.041  12.604
33815SOL    HW2 3343   8.315   0.971  12.560
33816SOL     OW 3344   4.306   2.829  12.669
33816SOL    HW1 3345   4.289   2.771  12.595
33816SOL    HW2 3346   4.285   2.917  12.636
33817SOL     OW 3347   9.740   8.695   9.395
33817SOL    HW1 3348   9.715   8.730   9.310
33817SOL    HW2 3349   9.729   8.768   9.455
33818SOL     OW 3350   7.847   5.926   1.273
33818SOL    HW1 3351   7.873   5.904   1.183
33818SOL    HW2 3352   7.801   5.849   1.304
33819SOL     OW 3353   4.105   0.981   5.815
33819SOL    HW1 3354   4.025   0.989   5.763
33819SOL    HW2 3355   4.175   0.977   5.749
33820SOL     OW 3356   1.268  12.515  13.554
33820SOL    HW1 3357   1.355  12.476  13.549
33820SOL    HW2 3358   1.282  12.600  13.596
33821SOL     OW 3359   8.555   4.907   3.816
33821SOL    HW1 3360   8.558   4.820   3.778
33821SOL    HW2 3361   8.500   4.897   3.894
33822SOL     OW 3362   8.722   2.440  11.048
33822SOL    HW1 3363   8.798   2.497  11.044
33822SOL    HW2 3364   8.757   2.352  11.063
33823SOL     OW 3365  13.854  12.572   4.401
33823SOL    HW1 3366  13.766  12.541   4.378
33823SOL    HW2 3367  13.854  12.665   4.379
33824SOL     OW 3368  13.099  13.831   3.394
33824SOL    HW1 3369  13.111  13.736   3.394
33824SOL    HW2 3370  13.188  13.866   3.393
33825SOL     OW 3371   9.386   8.570  13.991
33825SOL    HW1 3372   9.399   8.639  13.926
33825SOL    HW2 3373   9.437   8.599  14.067
33826SOL     OW 3374   7.070  13.918   5.599
33826SOL    HW1 3375   7.050  13.872   5.681
33826SOL    HW2 3376   6.985  13.933   5.559
33827SOL     OW 3377   1.423  14.276   9.020
33827SOL    HW1 3378   1.366  14.330   9.075
33827SOL    HW2 3379   1.512  14.302   9.044
33828SOL     OW 3380   8.316   0.977   4.212
33828SOL    HW1 3381   8.228   0.989   4.247
33828SOL    HW2 3382   8.315   0.890   4.172
33829SOL     OW 3383   8.599   7.522   5.412
33829SOL    HW1 3384   8.599   7.593   5.347
33829SOL    HW2 3385   8.673   7.543   5.469
33830SOL     OW 3386   1.469   1.927   3.642
33830SOL    HW1 3387   1.555   1.958   3.611
33830SOL    HW2 3388   1.487   1.842   3.680
33831SOL     OW 3389   7.490   0.249   7.123
33831SOL    HW1 3390   7.450   0.175   7.171
33831SOL    HW2 3391   7.415   0.298   7.089
33832SOL     OW 3392   4.752   2.824   0.137
33832SOL    HW1 3393   4.686   2.782   0.082
33832SOL    HW2 3394   4.765   2.910   0.097
33833SOL     OW 3395   4.170  13.688   3.914
33833SOL    HW1 3396   4.127  13.769   3.889
33833SOL    HW2 3397   4.240  13.677   3.851
33834SOL     OW 3398  11.040   0.251  13.565
33834SOL    HW1 3399  10.962   0.246  13.620
33834SOL    HW2 3400  11.006   0.266  13.477
33835SOL     OW 3401   4.637  13.209  14.875
33835SOL    HW1 3402   4.607  13.274   0.058
33835SOL    HW2 3403   4.707  13.162   0.041
33836SOL     OW 3404   2.715  12.273   6.840
33836SOL    HW1 3405   2.738  12.220   6.764
33836SOL    HW2 3406   2.628  12.307   6.821
33837SOL     OW 3407  12.369   4.612  14.505
33837SOL    HW1 3408  12.401   4.621  14.415
33837SOL    HW2 3409  12.335   4.522  14.508
33838SOL     OW 3410  14.320   3.676   6.681
33838SOL    HW1 3411  14.228   3.695   6.667
33838SOL    HW2 3412  14.367   3.744   6.632
33839SOL     OW 3413  14.470   8.139  12.177
33839SOL    HW1 3414  14.529   8.122  12.104
33839SOL    HW2 3415  14.397   8.079  12.163
33840SOL     OW 3416   9.432   0.551  11.688
33840SOL    HW1 3417   9.424   0.477  11.747
33840SOL    HW2 3418   9.387   0.623  11.733
33841SOL     OW 3419   1.326  13.475   3.635
33841SOL    HW1 3420   1.407  13.459   3.588
33841SOL    HW2 3421   1.270  13.521   3.573
33842SOL     OW 3422   9.103  10.802   5.843
33842SOL    HW1 3423   9.095  10.853   5.923
33842SOL    HW2 3424   9.186  10.756   5.852
33843SOL     OW 3425   0.549   1.173   9.975
33843SOL    HW1 3426   0.556   1.268   9.970
33843SOL    HW2 3427   0.586   1.151  10.061
33844SOL     OW 3428   0.174   1.443  13.852
33844SOL    HW1 3429   0.222   1.401  13.781
33844SOL    HW2 3430   0.215   1.410  13.932
33845SOL     OW 3431   5.013   1.046   3.733
33845SOL    HW1 3432   5.032   0.979   3.798
33845SOL    HW2 3433   5.097   1.086   3.714
33846SOL     OW 3434   8.416   7.101   5.202
33846SOL    HW1 3435   8.453   7.147   5.277
33846SOL    HW2 3436   8.322   7.099   5.218
33847SOL     OW 3437   0.831   9.871  13.735
33847SOL    HW1 3438   0.765   9.909  13.677
33847SOL    HW2 3439   0.914   9.886  13.691
33848SOL     OW 3440   8.103   8.837   5.389
33848SOL    HW1 3441   8.067   8.906   5.444
33848SOL    HW2 3442   8.187   8.815   5.430
33849SOL     OW 3443   2.128   8.037   8.649
33849SOL    HW1 3444   2.162   7.948   8.643
33849SOL    HW2 3445   2.147   8.076   8.563
33850SOL     OW 3446   4.074  10.005  13.774
33850SOL    HW1 3447   4.076   9.910  13.765
33850SOL    HW2 3448   4.163  10.033  13.752
33851SOL     OW 3449  14.653   3.547  13.982
33851SOL    HW1 3450  14.615   3.461  13.995
33851SOL    HW2 3451  14.644   3.563  13.888
33852SOL     OW 3452  14.155   8.087   4.995
33852SOL    HW1 3453  14.205   8.006   4.988
33852SOL    HW2 3454  14.184   8.126   5.078
33853SOL     OW 3455   5.040   5.390   8.693
33853SOL    HW1 3456   4.996   5.400   8.777
33853SOL    HW2 3457   5.122   5.438   8.703
33854SOL     OW 3458  12.373  10.950   7.897
33854SOL    HW1 3459  12.344  10.892   7.827
33854SOL    HW2 3460  12.447  10.997   7.861
33855SOL     OW 3461   7.107  11.891   1.844
33855SOL    HW1 3462   7.032  11.912   1.900
33855SOL    HW2 3463   7.183  11.925   1.893
33856SOL     OW 3464  12.949  13.284   2.423
33856SOL    HW1 3465  12.949  13.374   2.390
33856SOL    HW2 3466  12.924  13.293   2.515
33857SOL     OW 3467  12.148  13.678   3.462
33857SOL    HW1 3468  12.205  13.649   3.534
33857SOL    HW2 3469  12.152  13.606   3.398
33858SOL     OW 3470   8.734  10.978  13.106
33858SOL    HW1 3471   8.655  10.925  13.118
33858SOL    HW2 3472   8.778  10.939  13.031
33859SOL     OW 3473  13.589   1.917  11.186
33859SOL    HW1 3474  13.667   1.903  11.133
33859SOL    HW2 3475  13.565   1.830  11.218
33860SOL     OW 3476   5.198   7.486  11.826
33860SOL    HW1 3477   5.204   7.392  11.812
33860SOL    HW2 3478   5.135   7.516  11.761
33861SOL     OW 3479  10.314   3.845  14.851
33861SOL    HW1 3480  10.354   3.897   0.041
33861SOL    HW2 3481  10.265   3.908  14.799
33862SOL     OW 3482   1.609  12.724   5.064
33862SOL    HW1 3483   1.681  12.787   5.059
33862SOL    HW2 3484   1.537  12.767   5.016
33863SOL     OW 3485   4.763   8.501  13.072
33863SOL    HW1 3486   4.753   8.516  12.978
33863SOL    HW2 3487   4.722   8.416  13.087
33864SOL     OW 3488   6.168   5.731  14.848
33864SOL    HW1 3489   6.081   5.693  14.852
33864SOL    HW2 3490   6.180   5.755  14.756
33865SOL     OW 3491   1.295   8.746   8.429
33865SOL    HW1 3492   1.347   8.688   8.372
33865SOL    HW2 3493   1.354   8.820   8.446
33866SOL     OW 3494   7.433   6.796   6.068
33866SOL    HW1 3495   7.396   6.879   6.039
33866SOL    HW2 3496   7.362   6.754   6.117
33867SOL     OW 3497  14.549  12.423  14.410
33867SOL    HW1 3498  14.546  12.516  14.388
33867SOL    HW2 3499  14.517  12.419  14.501
33868SOL     OW 3500   9.135   0.871   4.425
33868SOL    HW1 3501   9.136   0.942   4.489
33868SOL    HW2 3502   9.203   0.896   4.361
33869SOL     OW 3503   6.165   2.805   6.114
33869SOL    HW1 3504   6.207   2.719   6.120
33869SOL    HW2 3505   6.087   2.789   6.060
33870SOL     OW 3506   3.719   2.567   8.425
33870SOL    HW1 3507   3.708   2.489   8.371
33870SOL    HW2 3508   3.728   2.535   8.514
33871SOL     OW 3509  10.741  10.451  14.377
33871SOL    HW1 3510  10.728  10.428  14.285
33871SOL    HW2 3511  10.654  10.471  14.410
33872SOL     OW 3512   1.732   8.870   3.096
33872SOL    HW1 3513   1.761   8.914   3.176
33872SOL    HW2 3514   1.799   8.803   3.081
33873SOL     OW 3515   8.831   6.016   9.150
33873SOL    HW1 3516   8.864   6.071   9.078
33873SOL    HW2 3517   8.882   6.042   9.226
33874SOL     OW 3518   5.476  10.720   6.406
33874SOL    HW1 3519   5.414  10.755   6.342
33874SOL    HW2 3520   5.557  10.708   6.358
33875SOL     OW 3521   5.569  11.976  11.350
33875SOL    HW1 3522   5.650  12.024  11.366
33875SOL    HW2 3523   5.503  12.043  11.333
33876SOL     OW 3524   8.882   8.503   6.577
33876SOL    HW1 3525   8.795   8.463   6.568
33876SOL    HW2 3526   8.866   8.597   6.570
33877SOL     OW 3527  10.754   9.810  10.832
33877SOL    HW1 3528  10.803   9.791  10.912
33877SOL    HW2 3529  10.821   9.837  10.769
33878SOL     OW 3530   6.418  13.895   4.951
33878SOL    HW1 3531   6.468  13.976   4.960
33878SOL    HW2 3532   6.484  13.826   4.954
33879SOL     OW 3533   1.364   9.833  14.675
33879SOL    HW1 3534   1.270   9.824  14.658
33879SOL    HW2 3535   1.388   9.750  14.716
33880SOL     OW 3536   9.774   3.475   9.187
33880SOL    HW1 3537   9.860   3.433   9.191
33880SOL    HW2 3538   9.717   3.416   9.235
33881SOL     OW 3539  13.612   1.083   4.230
33881SOL    HW1 3540  13.588   0.992   4.213
33881SOL    HW2 3541  13.537   1.134   4.199
33882SOL     OW 3542   1.994  13.486   8.292
33882SOL    HW1 3543   2.081  13.485   8.331
33882SOL    HW2 3544   2.009  13.473   8.198
33883SOL     OW 3545   5.474  12.241  12.105
33883SOL    HW1 3546   5.424  12.165  12.073
33883SOL    HW2 3547   5.464  12.238  12.200
33884SOL     OW 3548  11.406  12.844   6.263
33884SOL    HW1 3549  11.398  12.911   6.331
33884SOL    HW2 3550  11.433  12.892   6.185
33885SOL     OW 3551   8.762   8.790   0.036
33885SOL    HW1 3552   8.694   8.845   0.075
33885SOL    HW2 3553   8.715   8.713   0.003
33886SOL     OW 3554  14.191   8.832   9.835
33886SOL    HW1 3555  14.156   8.890   9.903
33886SOL    HW2 3556  14.193   8.887   9.756
33887SOL     OW 3557   7.163  12.327   2.397
33887SOL    HW1 3558   7.120  12.277   2.466
33887SOL    HW2 3559   7.094  12.341   2.332
33888SOL     OW 3560  14.570   7.172   2.229
33888SOL    HW1 3561  14.537   7.087   2.256
33888SOL    HW2 3562  14.664   7.160   2.218
33889SOL     OW 3563  11.118   1.097   3.937
33889SOL    HW1 3564  11.132   1.113   4.030
33889SOL    HW2 3565  11.063   1.170   3.908
33890SOL     OW 3566   0.256  10.490  11.204
33890SOL    HW1 3567   0.309  10.415  11.230
33890SOL    HW2 3568   0.282  10.507  11.114
33891SOL     OW 3569   3.591   1.791   7.415
33891SOL    HW1 3570   3.624   1.831   7.335
33891SOL    HW2 3571   3.514   1.741   7.387
33892SOL     OW 3572  13.656  14.567   1.663
33892SOL    HW1 3573  13.561  14.561   1.665
33892SOL    HW2 3574  13.676  14.653   1.701
33893SOL     OW 3575   5.956  10.696   3.870
33893SOL    HW1 3576   5.923  10.678   3.958
33893SOL    HW2 3577   5.878  10.721   3.820
33894SOL     OW 3578  10.193  10.374   5.321
33894SOL    HW1 3579  10.215  10.356   5.412
33894SOL    HW2 3580  10.237  10.306   5.270
33895SOL     OW 3581   3.973   1.595   9.170
33895SOL    HW1 3582   4.007   1.565   9.254
33895SOL    HW2 3583   4.039   1.656   9.138
33896SOL     OW 3584   1.163   8.447  11.624
33896SOL    HW1 3585   1.199   8.368  11.584
33896SOL    HW2 3586   1.161   8.511  11.553
33897SOL     OW 3587   1.092   2.309   5.293
33897SOL    HW1 3588   1.093   2.216   5.272
33897SOL    HW2 3589   1.131   2.351   5.216
33898SOL     OW 3590  10.837   2.097  11.861
33898SOL    HW1 3591  10.807   2.110  11.771
33898SOL    HW2 3592  10.761   2.118  11.915
33899SOL     OW 3593   8.288   6.076   0.299
33899SOL    HW1 3594   8.282   6.171   0.303
33899SOL    HW2 3595   8.382   6.057   0.298
33900SOL     OW 3596  12.498   2.946  11.242
33900SOL    HW1 3597  12.499   2.862  11.196
33900SOL    HW2 3598  12.578   2.947  11.293
33901SOL     OW 3599   1.632   1.188   5.293
33901SOL    HW1 3600   1.575   1.233   5.230
33901SOL    HW2 3601   1.687   1.258   5.328
33902SOL     OW 3602   8.002   0.379  14.332
33902SOL    HW1 3603   7.941   0.453  14.324
33902SOL    HW2 3604   8.003   0.339  14.245
33903SOL     OW 3605  14.503  12.438   3.077
33903SOL    HW1 3606  14.409  12.427   3.066
33903SOL    HW2 3607  14.514  12.529   3.107
33904SOL     OW 3608  11.588   1.486  14.025
33904SOL    HW1 3609  11.677   1.510  14.001
33904SOL    HW2 3610  11.548   1.457  13.942
33905SOL     OW 3611  11.102   2.382   8.293
33905SOL    HW1 3612  11.113   2.470   8.331
33905SOL    HW2 3613  11.130   2.392   8.202
33906SOL     OW 3614  12.322   4.589   9.604
33906SOL    HW1 3615  12.379   4.513   9.595
33906SOL    HW2 3616  12.316   4.603   9.699
33907SOL     OW 3617  13.508   5.045   2.026
33907SOL    HW1 3618  13.597   5.017   2.046
33907SOL    HW2 3619  13.493   5.014   1.937
33908SOL     OW 3620   5.611   5.405  12.019
33908SOL    HW1 3621   5.678   5.401  12.087
33908SOL    HW2 3622   5.634   5.336  11.957
33909SOL     OW 3623  13.709   9.447   4.360
33909SOL    HW1 3624  13.658   9.519   4.396
33909SOL    HW2 3625  13.800   9.474   4.371
33910SOL     OW 3626   0.267   6.427   6.984
33910SOL    HW1 3627   0.308   6.446   6.900
33910SOL    HW2 3628   0.293   6.338   7.005
33911SOL     OW 3629   3.318   4.891  13.087
33911SOL    HW1 3630   3.274   4.812  13.118
33911SOL    HW2 3631   3.301   4.957  13.155
33912SOL     OW 3632   7.381   2.066  13.975
33912SOL    HW1 3633   7.476   2.080  13.966
33912SOL    HW2 3634   7.342   2.117  13.904
33913SOL     OW 3635   2.087   8.700   6.321
33913SOL    HW1 3636   2.177   8.669   6.316
33913SOL    HW2 3637   2.034   8.626   6.290
33914SOL     OW 3638   5.147  10.516   2.540
33914SOL    HW1 3639   5.068  10.474   2.505
33914SOL    HW2 3640   5.120  10.550   2.626
33915SOL     OW 3641   2.780   6.939   5.295
33915SOL    HW1 3642   2.800   6.967   5.384
33915SOL    HW2 3643   2.707   6.996   5.269
33916SOL     OW 3644   0.640   6.162   6.247
33916SOL    HW1 3645   0.599   6.091   6.197
33916SOL    HW2 3646   0.626   6.138   6.338
33917SOL     OW 3647   9.847   8.349   2.938
33917SOL    HW1 3648   9.794   8.324   2.862
33917SOL    HW2 3649   9.891   8.268   2.965
33918SOL     OW 3650  12.310   7.377   5.575
33918SOL    HW1 3651  12.281   7.400   5.487
33918SOL    HW2 3652  12.388   7.431   5.589
33919SOL     OW 3653   4.046  14.228   7.170
33919SOL    HW1 3654   4.041  14.259   7.260
33919SOL    HW2 3655   4.005  14.141   7.172
33920SOL     OW 3656   9.035  12.930   2.572
33920SOL    HW1 3657   9.130  12.921   2.579
33920SOL    HW2 3658   9.021  13.025   2.561
33921SOL     OW 3659   0.768  13.655   4.706
33921SOL    HW1 3660   0.688  13.618   4.743
33921SOL    HW2 3661   0.794  13.723   4.769
33922SOL     OW 3662   5.732  11.787   7.976
33922SOL    HW1 3663   5.745  11.843   7.900
33922SOL    HW2 3664   5.818  11.781   8.018
33923SOL     OW 3665  11.392  10.058   7.286
33923SOL    HW1 3666  11.311  10.088   7.245
33923SOL    HW2 3667  11.387   9.962   7.281
33924SOL     OW 3668   6.395   8.079   4.224
33924SOL    HW1 3669   6.438   7.998   4.194
33924SOL    HW2 3670   6.320   8.090   4.165
33925SOL     OW 3671  14.658   5.890   2.709
33925SOL    HW1 3672  14.735   5.946   2.722
33925SOL    HW2 3673  14.695   5.804   2.690
33926SOL     OW 3674  10.206  10.598   4.710
33926SOL    HW1 3675  10.230  10.606   4.618
33926SOL    HW2 3676  10.117  10.563   4.708
33927SOL     OW 3677  13.958   9.906   4.907
33927SOL    HW1 3678  14.020   9.906   4.980
33927SOL    HW2 3679  13.979   9.827   4.857
33928SOL     OW 3680   2.472   6.083   8.735
33928SOL    HW1 3681   2.410   6.054   8.801
33928SOL    HW2 3682   2.468   6.016   8.667
33929SOL     OW 3683  13.067   2.530  13.642
33929SOL    HW1 3684  13.128   2.461  13.616
33929SOL    HW2 3685  13.114   2.581  13.708
33930SOL     OW 3686   4.300  11.960  10.839
33930SOL    HW1 3687   4.358  11.927  10.907
33930SOL    HW2 3688   4.219  11.911  10.851
33931SOL     OW 3689  10.826   8.295   7.537
33931SOL    HW1 3690  10.851   8.228   7.472
33931SOL    HW2 3691  10.828   8.377   7.488
33932SOL     OW 3692   3.141   0.762  12.801
33932SOL    HW1 3693   3.090   0.781  12.880
33932SOL    HW2 3694   3.075   0.733  12.737
33933SOL     OW 3695  13.634   6.373   5.584
33933SOL    HW1 3696  13.578   6.446   5.559
33933SOL    HW2 3697  13.582   6.295   5.567
33934SOL     OW 3698   3.582  12.531   1.706
33934SOL    HW1 3699   3.658  12.520   1.764
33934SOL    HW2 3700   3.620  12.555   1.622
33935SOL     OW 3701   2.583   0.983   6.496
33935SOL    HW1 3702   2.564   1.076   6.503
33935SOL    HW2 3703   2.507   0.945   6.452
33936SOL     OW 3704   1.997   5.619   0.181
33936SOL    HW1 3705   1.986   5.529   0.150
33936SOL    HW2 3706   2.030   5.666   0.105
33937SOL     OW 3707  11.647   2.271   1.812
33937SOL    HW1 3708  11.573   2.308   1.859
33937SOL    HW2 3709  11.701   2.231   1.881
33938SOL     OW 3710   0.788   7.515  12.378
33938SOL    HW1 3711   0.734   7.569  12.437
33938SOL    HW2 3712   0.878   7.538  12.402
33939SOL     OW 3713  14.513  12.908  13.962
33939SOL    HW1 3714  14.560  12.850  13.903
33939SOL    HW2 3715  14.493  12.985  13.909
33940SOL     OW 3716  13.022   6.828  14.759
33940SOL    HW1 3717  12.970   6.865  14.830
33940SOL    HW2 3718  13.057   6.905  14.713
33941SOL     OW 3719  11.546   6.418   4.462
33941SOL    HW1 3720  11.505   6.430   4.548
33941SOL    HW2 3721  11.472   6.410   4.402
33942SOL     OW 3722  12.979   4.193   7.421
33942SOL    HW1 3723  12.977   4.098   7.424
33942SOL    HW2 3724  12.942   4.215   7.335
33943SOL     OW 3725  14.117  11.954   1.265
33943SOL    HW1 3726  14.038  11.911   1.299
33943SOL    HW2 3727  14.145  12.012   1.335
33944SOL     OW 3728   5.416  11.134  11.418
33944SOL    HW1 3729   5.464  11.208  11.455
33944SOL    HW2 3730   5.433  11.139  11.324
33945SOL     OW 3731  12.186  10.773   6.618
33945SOL    HW1 3732  12.221  10.810   6.698
33945SOL    HW2 3733  12.214  10.832   6.549
33946SOL     OW 3734  10.804   0.014   2.599
33946SOL    HW1 3735  10.896  14.878   2.620
33946SOL    HW2 3736  10.798   0.109   2.591
33947SOL     OW 3737   9.869  10.999   6.444
33947SOL    HW1 3738   9.935  10.972   6.508
33947SOL    HW2 3739   9.911  10.986   6.359
33948SOL     OW 3740   2.900   3.301  14.265
33948SOL    HW1 3741   2.964   3.342  14.207
33948SOL    HW2 3742   2.868   3.373  14.320
33949SOL     OW 3743   3.496   1.606   2.950
33949SOL    HW1 3744   3.587   1.635   2.938
33949SOL    HW2 3745   3.501   1.510   2.945
33950SOL     OW 3746   0.291   1.878   0.352
33950SOL    HW1 3747   0.293   1.973   0.363
33950SOL    HW2 3748   0.204   1.859   0.317
33951SOL     OW 3749  13.694   0.241   4.945
33951SOL    HW1 3750  13.774   0.277   4.984
33951SOL    HW2 3751  13.725   0.190   4.870
33952SOL     OW 3752   5.032  13.040   7.267
33952SOL    HW1 3753   5.068  12.965   7.313
33952SOL    HW2 3754   4.942  13.047   7.298
33953SOL     OW 3755  10.594   7.122   6.431
33953SOL    HW1 3756  10.632   7.087   6.350
33953SOL    HW2 3757  10.654   7.092   6.500
33954SOL     OW 3758   9.521   9.701  12.993
33954SOL    HW1 3759   9.594   9.694  12.931
33954SOL    HW2 3760   9.536   9.783  13.038
33955SOL     OW 3761   7.479   3.979   2.723
33955SOL    HW1 3762   7.551   3.942   2.773
33955SOL    HW2 3763   7.477   3.928   2.642
33956SOL     OW 3764  13.165  14.483   1.252
33956SOL    HW1 3765  13.091  14.445   1.301
33956SOL    HW2 3766  13.203  14.409   1.205
33957SOL     OW 3767   8.426  14.774  10.871
33957SOL    HW1 3768   8.342  14.751  10.831
33957SOL    HW2 3769   8.419  14.745  10.962
33958SOL     OW 3770  11.889   3.541   8.140
33958SOL    HW1 3771  11.846   3.606   8.084
33958SOL    HW2 3772  11.906   3.467   8.081
33959SOL     OW 3773   1.738   7.551  12.821
33959SOL    HW1 3774   1.829   7.575  12.839
33959SOL    HW2 3775   1.714   7.492  12.893
33960SOL     OW 3776  12.094  11.418   1.079
33960SOL    HW1 3777  12.178  11.377   1.058
33960SOL    HW2 3778  12.034  11.384   1.012
33961SOL     OW 3779  12.291   0.308   7.930
33961SOL    HW1 3780  12.231   0.335   7.862
33961SOL    HW2 3781  12.357   0.377   7.934
33962SOL     OW 3782   2.043   6.712   3.243
33962SOL    HW1 3783   2.103   6.661   3.297
33962SOL    HW2 3784   2.006   6.649   3.181
33963SOL     OW 3785  14.814   8.021  14.200
33963SOL    HW1 3786  14.837   7.953  14.263
33963SOL    HW2 3787  14.734   8.061  14.235
33964SOL     OW 3788   9.048   9.871   2.531
33964SOL    HW1 3789   9.034   9.899   2.622
33964SOL    HW2 3790   9.126   9.816   2.535
33965SOL     OW 3791   4.953   5.460   8.945
33965SOL    HW1 3792   4.912   5.528   8.999
33965SOL    HW2 3793   4.909   5.379   8.971
33966SOL     OW 3794   8.662   7.704  10.992
33966SOL    HW1 3795   8.567   7.695  10.995
33966SOL    HW2 3796   8.683   7.768  11.060
33967SOL     OW 3797   9.543  11.869   5.479
33967SOL    HW1 3798   9.555  11.960   5.505
33967SOL    HW2 3799   9.562  11.819   5.559
33968SOL     OW 3800   9.427  12.178  11.329
33968SOL    HW1 3801   9.404  12.258  11.375
33968SOL    HW2 3802   9.508  12.149  11.369
33969SOL     OW 3803  10.812   2.095  11.366
33969SOL    HW1 3804  10.856   2.020  11.327
33969SOL    HW2 3805  10.756   2.129  11.296
33970SOL     OW 3806  11.177  11.190   5.417
33970SOL    HW1 3807  11.215  11.170   5.502
33970SOL    HW2 3808  11.179  11.107   5.370
33971SOL     OW 3809   1.322   1.394   1.093
33971SOL    HW1 3810   1.284   1.449   1.161
33971SOL    HW2 3811   1.416   1.392   1.113
33972SOL     OW 3812   2.368   0.982   7.602
33972SOL    HW1 3813   2.318   0.902   7.587
33972SOL    HW2 3814   2.367   1.027   7.517
33973SOL     OW 3815  13.194  13.022  10.376
33973SOL    HW1 3816  13.173  13.071  10.296
33973SOL    HW2 3817  13.160  13.077  10.447
33974SOL     OW 3818   6.169   0.894   2.994
33974SOL    HW1 3819   6.142   0.955   2.925
33974SOL    HW2 3820   6.237   0.841   2.953
33975SOL     OW 3821   8.965  13.804  12.700
33975SOL    HW1 3822   8.951  13.753  12.779
33975SOL    HW2 3823   8.892  13.865  12.697
33976SOL     OW 3824   2.301   1.052   2.354
33976SOL    HW1 3825   2.380   1.013   2.317
33976SOL    HW2 3826   2.265   1.105   2.283
33977SOL     OW 3827   6.214   5.201   1.153
33977SOL    HW1 3828   6.145   5.159   1.206
33977SOL    HW2 3829   6.225   5.288   1.192
33978SOL     OW 3830   7.171   5.292   9.556
33978SOL    HW1 3831   7.205   5.314   9.643
33978SOL    HW2 3832   7.216   5.210   9.533
33979SOL     OW 3833  10.995   8.296   1.325
33979SOL    HW1 3834  10.921   8.356   1.317
33979SOL    HW2 3835  10.957   8.209   1.327
33980SOL     OW 3836   3.887  13.047   6.054
33980SOL    HW1 3837   3.859  13.032   5.964
33980SOL    HW2 3838   3.949  13.120   6.049
33981SOL     OW 3839   6.749   5.468  12.634
33981SOL    HW1 3840   6.769   5.376  12.622
33981SOL    HW2 3841   6.675   5.484  12.574
33982SOL     OW 3842   7.966  14.152  12.027
33982SOL    HW1 3843   8.061  14.160  12.025
33982SOL    HW2 3844   7.942  14.169  12.118
33983SOL     OW 3845   5.260   9.397   4.903
33983SOL    HW1 3846   5.204   9.410   4.980
33983SOL    HW2 3847   5.302   9.482   4.890
33984SOL     OW 3848  13.101   5.931   4.903
33984SOL    HW1 3849  13.086   5.857   4.844
33984SOL    HW2 3850  13.028   5.991   4.884
33985SOL     OW 3851  14.709  14.781   9.036
33985SOL    HW1 3852  14.698  14.876   9.032
33985SOL    HW2 3853  14.624  14.747   9.064
33986SOL     OW 3854  10.344   2.990   9.739
33986SOL    HW1 3855  10.266   3.040   9.762
33986SOL    HW2 3856  10.409   3.016   9.804
33987SOL     OW 3857  12.763  12.029   5.660
33987SOL    HW1 3858  12.759  11.936   5.682
33987SOL    HW2 3859  12.688  12.043   5.601
33988SOL     OW 3860  14.344   2.993  12.523
33988SOL    HW1 3861  14.348   2.980  12.428
33988SOL    HW2 3862  14.258   3.032  12.538
33989SOL     OW 3863  11.496   1.402   1.077
33989SOL    HW1 3864  11.451   1.469   1.128
33989SOL    HW2 3865  11.440   1.324   1.086
33990SOL     OW 3866  11.870   6.171   5.013
33990SOL    HW1 3867  11.795   6.113   5.024
33990SOL    HW2 3868  11.832   6.259   5.010
33991SOL     OW 3869   1.083   2.194   4.350
33991SOL    HW1 3870   1.026   2.146   4.410
33991SOL    HW2 3871   1.076   2.285   4.378
33992SOL     OW 3872   7.148   6.575   2.334
33992SOL    HW1 3873   7.125   6.523   2.257
33992SOL    HW2 3874   7.102   6.533   2.406
33993SOL     OW 3875  10.421   6.337   6.769
33993SOL    HW1 3876  10.413   6.281   6.691
33993SOL    HW2 3877  10.494   6.396   6.749
33994SOL     OW 3878   8.080  10.102   8.320
33994SOL    HW1 3879   8.065  10.085   8.413
33994SOL    HW2 3880   8.130  10.026   8.289
33995SOL     OW 3881   8.285  10.804   5.547
33995SOL    HW1 3882   8.195  10.814   5.518
33995SOL    HW2 3883   8.318  10.893   5.556
33996SOL     OW 3884   8.548  10.803   0.572
33996SOL    HW1 3885   8.500  10.753   0.505
33996SOL    HW2 3886   8.579  10.881   0.525
33997SOL     OW 3887  10.564   3.152   5.910
33997SOL    HW1 3888  10.633   3.108   5.960
33997SOL    HW2 3889  10.516   3.204   5.974
33998SOL     OW 3890   0.118   7.639  14.653
33998SOL    HW1 3891   0.028   7.628  14.682
33998SOL    HW2 3892   0.133   7.733  14.654
33999SOL     OW 3893   9.284   5.886   9.808
33999SOL    HW1 3894   9.343   5.957   9.833
33999SOL    HW2 3895   9.334   5.806   9.822
34000SOL     OW 3896   3.989   8.449  12.814
34000SOL    HW1 3897   4.056   8.439  12.747
34000SOL    HW2 3898   3.935   8.370  12.805
34001SOL     OW 3899  10.816   7.821   5.481
34001SOL    HW1 3900  10.818   7.907   5.523
34001SOL    HW2 3901  10.896   7.778   5.511
34002SOL     OW 3902   2.678   9.510  14.724
34002SOL    HW1 3903   2.640   9.434  14.679
34002SOL    HW2 3904   2.734   9.551  14.659
34003SOL     OW 3905  14.357   5.081   0.013
34003SOL    HW1 3906  14.318   5.005   0.057
34003SOL    HW2 3907  14.327   5.074  14.803
34004SOL     OW 3908   1.334   2.514   3.541
34004SOL    HW1 3909   1.363   2.598   3.577
34004SOL    HW2 3910   1.308   2.463   3.617
34005SOL     OW 3911   0.049   9.940   6.555
34005SOL    HW1 3912   0.137   9.903   6.559
34005SOL    HW2 3913   0.061  10.023   6.508
34006SOL     OW 3914  12.445   6.682  14.066
34006SOL    HW1 3915  12.540   6.690  14.057
34006SOL    HW2 3916  12.422   6.604  14.015
34007SOL     OW 3917  11.290   2.650  12.895
34007SOL    HW1 3918  11.288   2.735  12.850
34007SOL    HW2 3919  11.334   2.592  12.834
34008SOL     OW 3920  13.078  13.744   5.901
34008SOL    HW1 3921  13.084  13.689   5.979
34008SOL    HW2 3922  13.128  13.823   5.923
34009SOL     OW 3923  13.724   0.994  14.466
34009SOL    HW1 3924  13.640   1.029  14.494
34009SOL    HW2 3925  13.708   0.961  14.378
34010SOL     OW 3926   3.213   0.200  11.321
34010SOL    HW1 3927   3.291   0.250  11.344
34010SOL    HW2 3928   3.142   0.264  11.322
34011SOL     OW 3929   6.177   7.854  12.180
34011SOL    HW1 3930   6.258   7.825  12.139
34011SOL    HW2 3931   6.136   7.774  12.213
34012SOL     OW 3932  11.911   3.319   7.930
34012SOL    HW1 3933  11.860   3.254   7.979
34012SOL    HW2 3934  11.890   3.301   7.838
34013SOL     OW 3935   8.961   7.347   4.700
34013SOL    HW1 3936   8.972   7.314   4.789
34013SOL    HW2 3937   8.868   7.369   4.694
34014SOL     OW 3938   2.905   9.366  13.344
34014SOL    HW1 3939   2.830   9.422  13.321
34014SOL    HW2 3940   2.900   9.360  13.440
34015SOL     OW 3941   1.808  13.722   4.238
34015SOL    HW1 3942   1.809  13.776   4.159
34015SOL    HW2 3943   1.737  13.758   4.291
34016SOL     OW 3944   9.186   3.834   4.631
34016SOL    HW1 3945   9.235   3.776   4.572
34016SOL    HW2 3946   9.094   3.815   4.611
34017SOL     OW 3947   3.428  12.647  14.727
34017SOL    HW1 3948   3.344  12.602  14.730
34017SOL    HW2 3949   3.467  12.618  14.645
34018SOL     OW 3950  12.775   1.632   9.275
34018SOL    HW1 3951  12.859   1.587   9.273
34018SOL    HW2 3952  12.777   1.684   9.356
34019SOL     OW 3953  11.350  13.473   3.913
34019SOL    HW1 3954  11.392  13.394   3.878
34019SOL    HW2 3955  11.318  13.519   3.836
34020SOL     OW 3956   0.177   0.174   2.907
34020SOL    HW1 3957   0.123   0.253   2.898
34020SOL    HW2 3958   0.226   0.169   2.825
34021SOL     OW 3959  12.342  12.286   4.567
34021SOL    HW1 3960  12.289  12.362   4.542
34021SOL    HW2 3961  12.412  12.282   4.502
34022SOL     OW 3962   2.512   2.851   6.777
34022SOL    HW1 3963   2.502   2.829   6.684
34022SOL    HW2 3964   2.467   2.935   6.786
34023SOL     OW 3965  13.110   0.584   6.508
34023SOL    HW1 3966  13.126   0.572   6.601
34023SOL    HW2 3967  13.186   0.544   6.465
34024SOL     OW 3968   4.699  11.766   8.974
34024SOL    HW1 3969   4.768  11.773   9.039
34024SOL    HW2 3970   4.647  11.846   8.985
34025SOL     OW 3971  13.089   4.753   2.903
34025SOL    HW1 3972  13.100   4.738   2.809
34025SOL    HW2 3973  13.048   4.672   2.935
34026SOL     OW 3974  12.183  11.276   4.590
34026SOL    HW1 3975  12.142  11.199   4.550
34026SOL    HW2 3976  12.230  11.318   4.517
34027SOL     OW 3977   1.258  11.757  13.281
34027SOL    HW1 3978   1.196  11.697  13.323
34027SOL    HW2 3979   1.282  11.714  13.199
34028SOL     OW 3980   4.828   5.280   2.323
34028SOL    HW1 3981   4.830   5.254   2.231
34028SOL    HW2 3982   4.881   5.359   2.328
34029SOL     OW 3983   2.822  12.862  12.998
34029SOL    HW1 3984   2.803  12.786  13.053
34029SOL    HW2 3985   2.850  12.824  12.914
34030SOL     OW 3986  10.993   9.581  10.270
34030SOL    HW1 3987  10.945   9.501  10.292
34030SOL    HW2 3988  10.987   9.634  10.350
34031SOL     OW 3989   5.667  11.692   4.200
34031SOL    HW1 3990   5.762  11.679   4.204
34031SOL    HW2 3991   5.648  11.707   4.108
34032SOL     OW 3992   6.816  13.514   1.655
34032SOL    HW1 3993   6.881  13.583   1.671
34032SOL    HW2 3994   6.738  13.543   1.701
34033SOL     OW 3995   8.636  10.093   5.767
34033SOL    HW1 3996   8.637  10.070   5.860
34033SOL    HW2 3997   8.664  10.184   5.764
34034SOL     OW 3998   7.596   9.445  10.086
34034SOL    HW1 3999   7.584   9.514  10.152
34034SOL    HW2 4000   7.680   9.406  10.108
34035SOL     OW 4001   8.863   7.402  13.545
34035SOL    HW1 4002   8.859   7.484  13.494
34035SOL    HW2 4003   8.908   7.427  13.626
34036SOL     OW 4004  10.160   8.854  14.541
34036SOL    HW1 4005  10.227   8.923  14.532
34036SOL    HW2 4006  10.102   8.886  14.610
34037SOL     OW 4007  10.017   3.326   4.321
34037SOL    HW1 4008  10.109   3.300   4.328
34037SOL    HW2 4009  10.005   3.348   4.229
34038SOL     OW 4010  14.861   0.801   1.698
34038SOL    HW1 4011   0.068   0.832   1.673
34038SOL    HW2 4012  14.802   0.873   1.676
34039SOL     OW 4013   4.319   1.310   2.775
34039SOL    HW1 4014   4.305   1.349   2.689
34039SOL    HW2 4015   4.242   1.256   2.790
34040SOL     OW 4016  10.993   0.970  13.662
34040SOL    HW1 4017  10.903   0.965  13.630
34040SOL    HW2 4018  11.027   1.052  13.627
34041SOL     OW 4019   6.786  12.349  11.806
34041SOL    HW1 4020   6.829  12.339  11.722
34041SOL    HW2 4021   6.695  12.369  11.785
34042SOL     OW 4022   3.693  10.924  11.445
34042SOL    HW1 4023   3.782  10.959  11.450
34042SOL    HW2 4024   3.702  10.832  11.470
34043SOL     OW 4025   5.514   1.069  14.668
34043SOL    HW1 4026   5.475   1.127  14.603
34043SOL    HW2 4027   5.603   1.100  14.679
34044SOL     OW 4028   3.161  10.062   3.649
34044SOL    HW1 4029   3.181  10.019   3.732
34044SOL    HW2 4030   3.182   9.996   3.582
34045SOL     OW 4031  11.358   2.960   9.592
34045SOL    HW1 4032  11.326   2.870   9.589
34045SOL    HW2 4033  11.283   3.012   9.620
34046SOL     OW 4034  11.061   9.410   0.455
34046SOL    HW1 4035  11.018   9.325   0.469
34046SOL    HW2 4036  11.015   9.448   0.380
34047SOL     OW 4037   2.065  13.993   2.866
34047SOL    HW1 4038   2.136  14.014   2.805
34047SOL    HW2 4039   1.994  13.960   2.810
34048SOL     OW 4040   6.249  14.249   7.836
34048SOL    HW1 4041   6.337  14.263   7.869
34048SOL    HW2 4042   6.259  14.185   7.766
34049SOL     OW 4043   8.689   0.021   7.597
34049SOL    HW1 4044   8.693   0.116   7.593
34049SOL    HW2 4045   8.779  14.874   7.613
34050SOL     OW 4046   3.522   5.173  11.920
34050SOL    HW1 4047   3.471   5.254  11.921
34050SOL    HW2 4048   3.609   5.200  11.891
34051SOL     OW 4049  12.652  10.391  13.001
34051SOL    HW1 4050  12.719  10.408  12.935
34051SOL    HW2 4051  12.700  10.354  13.075
34052SOL     OW 4052   0.655   7.615  10.704
34052SOL    HW1 4053   0.647   7.707  10.729
34052SOL    HW2 4054   0.642   7.615  10.609
34053SOL     OW 4055   4.345   9.578   9.665
34053SOL    HW1 4056   4.269   9.635   9.672
34053SOL    HW2 4057   4.314   9.503   9.613
34054SOL     OW 4058   6.126  12.975   3.141
34054SOL    HW1 4059   6.117  13.070   3.139
34054SOL    HW2 4060   6.045  12.944   3.181
34055SOL     OW 4061  11.350  13.897  12.587
34055SOL    HW1 4062  11.425  13.889  12.647
34055SOL    HW2 4063  11.384  13.947  12.513
34056SOL     OW 4064   1.033   2.058   5.269
34056SOL    HW1 4065   0.988   2.065   5.353
34056SOL    HW2 4066   1.043   1.964   5.255
34057SOL     OW 4067  10.116   8.565   4.716
34057SOL    HW1 4068  10.120   8.469   4.715
34057SOL    HW2 4069  10.041   8.586   4.770
34058SOL     OW 4070   7.755   3.487   2.845
34058SOL    HW1 4071   7.696   3.481   2.920
34058SOL    HW2 4072   7.783   3.578   2.843
34059SOL     OW 4073  10.417   5.136   4.467
34059SOL    HW1 4074  10.443   5.124   4.376
34059SOL    HW2 4075  10.396   5.229   4.474
34060SOL     OW 4076   6.514   9.417   0.144
34060SOL    HW1 4077   6.587   9.408   0.206
34060SOL    HW2 4078   6.555   9.449   0.064
34061SOL     OW 4079   6.266   0.318  11.393
34061SOL    HW1 4080   6.294   0.227  11.387
34061SOL    HW2 4081   6.316   0.355  11.466
34062SOL     OW 4082   7.435  14.037   8.905
34062SOL    HW1 4083   7.476  13.973   8.846
34062SOL    HW2 4084   7.508  14.075   8.954
34063SOL     OW 4085   9.180   0.554   8.660
34063SOL    HW1 4086   9.258   0.499   8.658
34063SOL    HW2 4087   9.126   0.516   8.729
34064SOL     OW 4088  14.859  14.151   4.112
34064SOL    HW1 4089   0.047  14.156   4.046
34064SOL    HW2 4090  14.805  14.229   4.097
34065SOL     OW 4091   4.631  14.462   6.620
34065SOL    HW1 4092   4.663  14.375   6.643
34065SOL    HW2 4093   4.566  14.447   6.552
34066SOL     OW 4094   2.592   3.916   5.585
34066SOL    HW1 4095   2.568   3.836   5.538
34066SOL    HW2 4096   2.659   3.888   5.647
34067SOL     OW 4097   6.637   5.968   9.511
34067SOL    HW1 4098   6.617   6.033   9.445
34067SOL    HW2 4099   6.728   5.944   9.494
34068SOL     OW 4100  13.950  14.785  13.413
34068SOL    HW1 4101  14.040  14.773  13.384
34068SOL    HW2 4102  13.952  14.865  13.465
34069SOL     OW 4103  14.632  14.363   5.997
34069SOL    HW1 4104  14.659  14.448   6.032
34069SOL    HW2 4105  14.537  14.364   6.002
34070SOL     OW 4106   9.747   3.425  12.521
34070SOL    HW1 4107   9.732   3.448  12.430
34070SOL    HW2 4108   9.835   3.458  12.540
34071SOL     OW 4109  10.800   6.736   5.432
34071SOL    HW1 4110  10.823   6.693   5.515
34071SOL    HW2 4111  10.864   6.807   5.423
34072SOL     OW 4112   8.253  12.138   0.871
34072SOL    HW1 4113   8.280  12.066   0.927
34072SOL    HW2 4114   8.307  12.130   0.792
34073SOL     OW 4115   2.945  12.243   4.020
34073SOL    HW1 4116   2.974  12.200   3.940
34073SOL    HW2 4117   2.986  12.193   4.091
34074SOL     OW 4118  11.980   9.053   5.993
34074SOL    HW1 4119  11.893   9.019   6.012
34074SOL    HW2 4120  12.031   9.037   6.072
34075SOL     OW 4121   3.519  10.772   2.683
34075SOL    HW1 4122   3.453  10.755   2.616
34075SOL    HW2 4123   3.574  10.693   2.683
34076SOL     OW 4124  13.722  11.688  14.652
34076SOL    HW1 4125  13.780  11.631  14.602
34076SOL    HW2 4126  13.719  11.769  14.602
34077SOL     OW 4127   5.755   2.084  11.118
34077SOL    HW1 4128   5.731   1.992  11.110
34077SOL    HW2 4129   5.797   2.090  11.204
34078SOL     OW 4130  11.515   5.349  13.751
34078SOL    HW1 4131  11.501   5.444  13.753
34078SOL    HW2 4132  11.595   5.338  13.700
34079SOL     OW 4133  10.563   3.616   9.488
34079SOL    HW1 4134  10.551   3.676   9.415
34079SOL    HW2 4135  10.553   3.670   9.566
34080SOL     OW 4136   2.775  10.934   0.662
34080SOL    HW1 4137   2.841  11.003   0.676
34080SOL    HW2 4138   2.797  10.897   0.576
34081SOL     OW 4139  12.689   8.307   0.059
34081SOL    HW1 4140  12.709   8.390   0.016
34081SOL    HW2 4141  12.673   8.329   0.150
34082SOL     OW 4142   2.481   1.518  14.681
34082SOL    HW1 4143   2.403   1.523  14.737
34082SOL    HW2 4144   2.550   1.487  14.738
34083SOL     OW 4145  12.260   6.643  10.671
34083SOL    HW1 4146  12.323   6.590  10.719
34083SOL    HW2 4147  12.201   6.677  10.738
34084SOL     OW 4148  13.764  12.305   3.579
34084SOL    HW1 4149  13.722  12.329   3.496
34084SOL    HW2 4150  13.854  12.284   3.555
34085SOL     OW 4151   8.399   9.779   7.993
34085SOL    HW1 4152   8.333   9.842   8.022
34085SOL    HW2 4153   8.482   9.815   8.027
34086SOL     OW 4154   2.382  11.267   5.724
34086SOL    HW1 4155   2.322  11.340   5.708
34086SOL    HW2 4156   2.333  11.190   5.696
34087SOL     OW 4157   9.892   9.106   2.981
34087SOL    HW1 4158   9.831   9.044   3.020
34087SOL    HW2 4159   9.938   9.057   2.913
34088SOL     OW 4160   1.199   6.139   5.944
34088SOL    HW1 4161   1.177   6.049   5.968
34088SOL    HW2 4162   1.122   6.190   5.970
34089SOL     OW 4163  11.666  13.971   3.929
34089SOL    HW1 4164  11.643  13.982   3.837
34089SOL    HW2 4165  11.653  13.877   3.946
34090SOL     OW 4166   2.005   9.505   8.061
34090SOL    HW1 4167   1.965   9.433   8.109
34090SOL    HW2 4168   2.022   9.468   7.974
34091SOL     OW 4169   5.007   2.542   7.134
34091SOL    HW1 4170   4.981   2.528   7.225
34091SOL    HW2 4171   5.000   2.636   7.121
34092SOL     OW 4172   7.831  13.834  10.149
34092SOL    HW1 4173   7.900  13.823  10.083
34092SOL    HW2 4174   7.872  13.887  10.217
34093SOL     OW 4175  14.863   2.827   2.750
34093SOL    HW1 4176   0.008   2.905   2.800
34093SOL    HW2 4177  14.780   2.800   2.789
34094SOL     OW 4178  13.745  13.034   7.936
34094SOL    HW1 4179  13.748  12.959   7.996
34094SOL    HW2 4180  13.828  13.079   7.951
34095SOL     OW 4181   1.363   9.217  13.359
34095SOL    HW1 4182   1.309   9.152  13.404
34095SOL    HW2 4183   1.409   9.262  13.430
34096SOL     OW 4184  12.534   9.399   2.508
34096SOL    HW1 4185  12.464   9.461   2.485
34096SOL    HW2 4186  12.552   9.416   2.600
34097SOL     OW 4187   4.316  10.230   9.263
34097SOL    HW1 4188   4.358  10.211   9.346
34097SOL    HW2 4189   4.389  10.241   9.201
34098SOL     OW 4190  10.191   9.325   6.341
34098SOL    HW1 4191  10.100   9.347   6.321
34098SOL    HW2 4192  10.213   9.255   6.279
34099SOL     OW 4193   1.014   4.531  10.790
34099SOL    HW1 4194   1.057   4.587  10.855
34099SOL    HW2 4195   1.031   4.573  10.706
34100SOL     OW 4196   0.887  12.807   6.780
34100SOL    HW1 4197   0.863  12.806   6.687
34100SOL    HW2 4198   0.926  12.722   6.796
34101SOL     OW 4199   2.955   9.682   7.998
34101SOL    HW1 4200   2.952   9.693   7.903
34101SOL    HW2 4201   2.863   9.671   8.023
34102SOL     OW 4202   7.017   3.341   7.009
34102SOL    HW1 4203   7.000   3.247   7.020
34102SOL    HW2 4204   7.111   3.350   7.022
34103SOL     OW 4205   7.996   4.362  12.042
34103SOL    HW1 4206   7.923   4.403  11.997
34103SOL    HW2 4207   8.012   4.418  12.118
34104SOL     OW 4208   6.122   4.226  13.575
34104SOL    HW1 4209   6.192   4.162  13.560
34104SOL    HW2 4210   6.084   4.241  13.488
34105SOL     OW 4211   6.335   0.849  12.973
34105SOL    HW1 4212   6.296   0.923  13.020
34105SOL    HW2 4213   6.416   0.884  12.935
34106SOL     OW 4214   2.968   0.203  12.951
34106SOL    HW1 4215   3.038   0.267  12.936
34106SOL    HW2 4216   2.985   0.169  13.038
34107SOL     OW 4217   9.900   0.612   8.452
34107SOL    HW1 4218   9.852   0.689   8.422
34107SOL    HW2 4219   9.987   0.621   8.415
34108SOL     OW 4220   3.480  14.252   0.378
34108SOL    HW1 4221   3.463  14.220   0.290
34108SOL    HW2 4222   3.443  14.341   0.379
34109SOL     OW 4223   3.790  13.983   2.701
34109SOL    HW1 4224   3.696  13.998   2.706
34109SOL    HW2 4225   3.798  13.892   2.670
34110SOL     OW 4226   1.311  11.239  10.626
34110SOL    HW1 4227   1.357  11.316  10.661
34110SOL    HW2 4228   1.230  11.274  10.589
34111SOL     OW 4229   7.647   8.776  14.354
34111SOL    HW1 4230   7.672   8.836  14.284
34111SOL    HW2 4231   7.631   8.693  14.310
34112SOL     OW 4232   2.230  11.799   5.175
34112SOL    HW1 4233   2.258  11.735   5.110
34112SOL    HW2 4234   2.185  11.748   5.242
34113SOL     OW 4235  13.997   6.916  11.313
34113SOL    HW1 4236  13.931   6.966  11.361
34113SOL    HW2 4237  13.980   6.825  11.337
34114SOL     OW 4238  14.071   4.955   1.450
34114SOL    HW1 4239  14.016   5.009   1.507
34114SOL    HW2 4240  14.049   4.982   1.361
34115SOL     OW 4241   2.745   7.625  14.704
34115SOL    HW1 4242   2.729   7.704  14.652
34115SOL    HW2 4243   2.701   7.642  14.788
34116SOL     OW 4244   1.926  12.995  10.950
34116SOL    HW1 4245   1.897  13.083  10.973
34116SOL    HW2 4246   1.895  12.940  11.022
34117SOL     OW 4247  14.700   0.680  10.602
34117SOL    HW1 4248  14.751   0.631  10.538
34117SOL    HW2 4249  14.736   0.768  10.599
34118SOL     OW 4250  12.176  11.043  12.089
34118SOL    HW1 4251  12.159  11.124  12.041
34118SOL    HW2 4252  12.254  11.062  12.142
34119SOL     OW 4253   5.570  12.809   0.856
34119SOL    HW1 4254   5.554  12.883   0.914
34119SOL    HW2 4255   5.654  12.829   0.814
34120SOL     OW 4256  10.475   4.167   6.065
34120SOL    HW1 4257  10.391   4.122   6.067
34120SOL    HW2 4258  10.459   4.245   6.012
34121SOL     OW 4259   7.046   4.146  14.717
34121SOL    HW1 4260   7.072   4.097  14.795
34121SOL    HW2 4261   7.116   4.211  14.705
34122SOL     OW 4262   7.911   9.140   1.623
34122SOL    HW1 4263   7.946   9.229   1.625
34122SOL    HW2 4264   7.916   9.111   1.714
34123SOL     OW 4265   7.562  13.361   9.015
34123SOL    HW1 4266   7.647  13.324   8.989
34123SOL    HW2 4267   7.565  13.452   8.986
34124SOL     OW 4268   9.848   1.279   3.341
34124SOL    HW1 4269   9.899   1.349   3.300
34124SOL    HW2 4270   9.765   1.321   3.365
34125SOL     OW 4271   2.996  11.905   1.999
34125SOL    HW1 4272   2.957  11.985   1.966
34125SOL    HW2 4273   2.928  11.838   1.988
34126SOL     OW 4274  10.675  12.455  14.482
34126SOL    HW1 4275  10.738  12.408  14.537
34126SOL    HW2 4276  10.616  12.497  14.544
34127SOL     OW 4277   2.654  11.114   5.031
34127SOL    HW1 4278   2.636  11.127   5.124
34127SOL    HW2 4279   2.727  11.172   5.013
34128SOL     OW 4280  10.080  14.005   9.948
34128SOL    HW1 4281  10.091  13.960  10.032
34128SOL    HW2 4282  10.034  13.941   9.893
34129SOL     OW 4283  11.090   4.418   8.122
34129SOL    HW1 4284  10.998   4.406   8.145
34129SOL    HW2 4285  11.100   4.512   8.107
34130SOL     OW 4286   4.552   7.082   6.818
34130SOL    HW1 4287   4.641   7.087   6.784
34130SOL    HW2 4288   4.499   7.130   6.754
34131SOL     OW 4289   4.385   4.711   1.338
34131SOL    HW1 4290   4.387   4.675   1.249
34131SOL    HW2 4291   4.430   4.795   1.331
34132SOL     OW 4292   9.013   4.793   7.028
34132SOL    HW1 4293   9.084   4.830   6.976
34132SOL    HW2 4294   9.042   4.705   7.050
34133SOL     OW 4295  12.643  14.563  14.554
34133SOL    HW1 4296  12.736  14.542  14.561
34133SOL    HW2 4297  12.598  14.485  14.587
34134SOL     OW 4298   3.024   5.030   8.340
34134SOL    HW1 4299   2.973   4.979   8.403
34134SOL    HW2 4300   3.102   5.057   8.390
34135SOL     OW 4301  10.696  11.921   3.051
34135SOL    HW1 4302  10.758  11.974   3.102
34135SOL    HW2 4303  10.731  11.832   3.055
34136SOL     OW 4304   5.619   9.891  12.613
34136SOL    HW1 4305   5.686   9.950  12.647
34136SOL    HW2 4306   5.602   9.829  12.684
34137SOL     OW 4307   2.076  14.867  11.090
34137SOL    HW1 4308   2.087  14.772  11.093
34137SOL    HW2 4309   1.990   0.002  11.129
34138SOL     OW 4310   9.226   8.396  10.324
34138SOL    HW1 4311   9.254   8.401  10.233
34138SOL    HW2 4312   9.302   8.359  10.370
34139SOL     OW 4313  11.543   7.212   0.272
34139SOL    HW1 4314  11.558   7.222   0.366
34139SOL    HW2 4315  11.576   7.293   0.234
34140SOL     OW 4316   6.068   9.675   1.867
34140SOL    HW1 4317   6.029   9.758   1.838
34140SOL    HW2 4318   6.085   9.687   1.960
34141SOL     OW 4319   7.878   4.532  10.255
34141SOL    HW1 4320   7.841   4.555  10.170
34141SOL    HW2 4321   7.809   4.481  10.298
34142SOL     OW 4322   4.075   9.297   0.338
34142SOL    HW1 4323   4.066   9.222   0.398
34142SOL    HW2 4324   3.985   9.326   0.324
34143SOL     OW 4325  10.018  12.213   3.635
34143SOL    HW1 4326  10.050  12.126   3.657
34143SOL    HW2 4327   9.959  12.199   3.561
34144SOL     OW 4328  13.115   2.900   8.550
34144SOL    HW1 4329  13.145   2.934   8.465
34144SOL    HW2 4330  13.178   2.935   8.613
34145SOL     OW 4331  10.498   0.451   3.178
34145SOL    HW1 4332  10.425   0.399   3.145
34145SOL    HW2 4333  10.457   0.518   3.232
34146SOL     OW 4334  11.741  14.576  11.077
34146SOL    HW1 4335  11.782  14.662  11.086
34146SOL    HW2 4336  11.667  14.590  11.018
34147SOL     OW 4337   2.944   8.417   2.796
34147SOL    HW1 4338   3.036   8.410   2.820
34147SOL    HW2 4339   2.898   8.366   2.863
34148SOL     OW 4340   4.655   6.660  10.915
34148SOL    HW1 4341   4.561   6.670  10.902
34148SOL    HW2 4342   4.691   6.650  10.827
34149SOL     OW 4343  12.401   7.640   1.199
34149SOL    HW1 4344  12.483   7.661   1.242
34149SOL    HW2 4345  12.352   7.588   1.262
34150SOL     OW 4346   6.479  13.599   3.431
34150SOL    HW1 4347   6.473  13.612   3.526
34150SOL    HW2 4348   6.464  13.506   3.418
34151SOL     OW 4349   8.544   7.040   3.177
34151SOL    HW1 4350   8.543   7.053   3.083
34151SOL    HW2 4351   8.473   6.978   3.193
34152SOL     OW 4352   1.107  13.839   2.841
34152SOL    HW1 4353   1.109  13.891   2.921
34152SOL    HW2 4354   1.014  13.827   2.822
34153SOL     OW 4355  12.030   3.573  10.999
34153SOL    HW1 4356  12.038   3.649  11.056
34153SOL    HW2 4357  12.047   3.498  11.055
34154SOL     OW 4358   4.357   2.259   2.213
34154SOL    HW1 4359   4.423   2.195   2.184
34154SOL    HW2 4360   4.381   2.340   2.167
34155SOL     OW 4361  10.398  13.058   2.489
34155SOL    HW1 4362  10.455  13.023   2.557
34155SOL    HW2 4363  10.431  13.147   2.474
34156SOL     OW 4364   0.908   1.675  11.018
34156SOL    HW1 4365   0.870   1.622  11.088
34156SOL    HW2 4366   0.865   1.642  10.938
34157SOL     OW 4367  10.225   6.147   9.019
34157SOL    HW1 4368  10.224   6.226   9.073
34157SOL    HW2 4369  10.207   6.178   8.930
34158SOL     OW 4370   0.886   7.779   8.965
34158SOL    HW1 4371   0.805   7.787   8.914
34158SOL    HW2 4372   0.946   7.733   8.906
34159SOL     OW 4373  10.603  11.321   0.212
34159SOL    HW1 4374  10.666  11.289   0.276
34159SOL    HW2 4375  10.657  11.347   0.136
34160SOL     OW 4376  12.237   4.496  13.318
34160SOL    HW1 4377  12.220   4.570  13.260
34160SOL    HW2 4378  12.227   4.531  13.407
34161SOL     OW 4379   6.393  11.570  13.094
34161SOL    HW1 4380   6.482  11.543  13.117
34161SOL    HW2 4381   6.372  11.639  13.157
34162SOL     OW 4382   3.158   2.286  12.475
34162SOL    HW1 4383   3.138   2.262  12.384
34162SOL    HW2 4384   3.118   2.217  12.528
34163SOL     OW 4385  10.160   4.916   9.064
34163SOL    HW1 4386  10.124   4.859   8.996
34163SOL    HW2 4387  10.102   4.902   9.140
34164SOL     OW 4388   0.794  13.205  13.320
34164SOL    HW1 4389   0.723  13.155  13.360
34164SOL    HW2 4390   0.808  13.279  13.379
34165SOL     OW 4391  14.289   3.373   3.640
34165SOL    HW1 4392  14.259   3.396   3.728
34165SOL    HW2 4393  14.362   3.432   3.623
34166SOL     OW 4394  13.631   2.420   8.827
34166SOL    HW1 4395  13.618   2.495   8.768
34166SOL    HW2 4396  13.724   2.424   8.849
34167SOL     OW 4397  13.465   7.015  12.547
34167SOL    HW1 4398  13.440   6.987  12.635
34167SOL    HW2 4399  13.448   6.939  12.491
34168SOL     OW 4400  14.640   9.601  11.420
34168SOL    HW1 4401  14.648   9.691  11.388
34168SOL    HW2 4402  14.560   9.567  11.380
34169SOL     OW 4403   6.470   1.752  13.347
34169SOL    HW1 4404   6.419   1.821  13.389
34169SOL    HW2 4405   6.510   1.704  13.419
34170SOL     OW 4406   5.965   4.500  11.506
34170SOL    HW1 4407   5.997   4.538  11.587
34170SOL    HW2 4408   5.913   4.424  11.534
34171SOL     OW 4409  10.718   3.217   2.196
34171SOL    HW1 4410  10.646   3.185   2.142
34171SOL    HW2 4411  10.778   3.143   2.203
34172SOL     OW 4412   2.424  12.067   4.672
34172SOL    HW1 4413   2.475  11.988   4.651
34172SOL    HW2 4414   2.346  12.061   4.618
34173SOL     OW 4415   4.201   4.942   2.476
34173SOL    HW1 4416   4.288   4.951   2.514
34173SOL    HW2 4417   4.216   4.943   2.381
34174SOL     OW 4418  11.914  10.603   3.582
34174SOL    HW1 4419  11.971  10.579   3.509
34174SOL    HW2 4420  11.955  10.565   3.659
34175SOL     OW 4421  10.514  10.547   9.465
34175SOL    HW1 4422  10.470  10.507   9.390
34175SOL    HW2 4423  10.600  10.571   9.432
34176SOL     OW 4424  13.414   9.591   7.347
34176SOL    HW1 4425  13.456   9.677   7.340
34176SOL    HW2 4426  13.434   9.548   7.264
34177SOL     OW 4427   2.600   1.510   1.197
34177SOL    HW1 4428   2.559   1.548   1.274
34177SOL    HW2 4429   2.649   1.434   1.230
34178SOL     OW 4430   5.849   4.230   8.267
34178SOL    HW1 4431   5.928   4.283   8.265
34178SOL    HW2 4432   5.799   4.264   8.341
34179SOL     OW 4433   8.254   0.215   8.987
34179SOL    HW1 4434   8.259   0.169   9.071
34179SOL    HW2 4435   8.161   0.214   8.965
34180SOL     OW 4436  14.715   1.100   7.122
34180SOL    HW1 4437  14.637   1.098   7.068
34180SOL    HW2 4438  14.739   1.008   7.133
34181SOL     OW 4439  14.785   7.359   7.405
34181SOL    HW1 4440  14.745   7.295   7.464
34181SOL    HW2 4441  14.869   7.319   7.380
34182SOL     OW 4442   2.075  14.485   6.035
34182SOL    HW1 4443   2.084  14.472   6.129
34182SOL    HW2 4444   2.120  14.568   6.018
34183SOL     OW 4445   1.213   1.536   6.994
34183SOL    HW1 4446   1.226   1.629   7.014
34183SOL    HW2 4447   1.298   1.506   6.964
34184SOL     OW 4448  11.481   4.325  14.829
34184SOL    HW1 4449  11.576   4.325  14.843
34184SOL    HW2 4450  11.462   4.415  14.801
34185SOL     OW 4451   5.944   3.956   6.348
34185SOL    HW1 4452   5.877   3.927   6.410
34185SOL    HW2 4453   6.009   4.001   6.402
34186SOL     OW 4454   4.873   6.269   3.825
34186SOL    HW1 4455   4.895   6.278   3.918
34186SOL    HW2 4456   4.868   6.175   3.811
34187SOL     OW 4457   2.094   8.257  12.602
34187SOL    HW1 4458   2.050   8.292  12.524
34187SOL    HW2 4459   2.107   8.334  12.658
34188SOL     OW 4460  10.563  11.468  10.793
34188SOL    HW1 4461  10.544  11.516  10.713
34188SOL    HW2 4462  10.521  11.519  10.862
34189SOL     OW 4463   9.163   6.407   9.350
34189SOL    HW1 4464   9.165   6.337   9.416
34189SOL    HW2 4465   9.211   6.479   9.391
34190SOL     OW 4466   4.055   6.393  10.106
34190SOL    HW1 4467   4.073   6.304  10.076
34190SOL    HW2 4468   4.129   6.445  10.075
34191SOL     OW 4469   0.855   4.270   7.682
34191SOL    HW1 4470   0.790   4.270   7.612
34191SOL    HW2 4471   0.923   4.209   7.652
34192SOL     OW 4472  12.903   2.570  12.410
34192SOL    HW1 4473  12.993   2.541  12.395
34192SOL    HW2 4474  12.856   2.547  12.330
34193SOL     OW 4475   2.342  13.280   7.523
34193SOL    HW1 4476   2.422  13.256   7.476
34193SOL    HW2 4477   2.285  13.204   7.514
34194SOL     OW 4478  12.694  14.767   1.492
34194SOL    HW1 4479  12.771  14.710   1.491
34194SOL    HW2 4480  12.722  14.846   1.446
34195SOL     OW 4481   3.531   7.532   1.691
34195SOL    HW1 4482   3.526   7.437   1.702
34195SOL    HW2 4483   3.593   7.545   1.619
34196SOL     OW 4484  10.174   1.837   0.614
34196SOL    HW1 4485  10.080   1.837   0.628
34196SOL    HW2 4486  10.207   1.907   0.672
34197SOL     OW 4487   7.889  14.864  12.166
34197SOL    HW1 4488   7.802  14.839  12.136
34197SOL    HW2 4489   7.911   0.062  12.115
34198SOL     OW 4490  12.928  11.582   6.608
34198SOL    HW1 4491  12.962  11.501   6.646
34198SOL    HW2 4492  12.973  11.652   6.657
34199SOL     OW 4493   9.684   8.007   3.013
34199SOL    HW1 4494   9.682   7.943   2.942
34199SOL    HW2 4495   9.774   8.039   3.014
34200SOL     OW 4496   6.921   9.624   3.988
34200SOL    HW1 4497   6.860   9.688   4.025
34200SOL    HW2 4498   7.003   9.672   3.978
34201SOL     OW 4499   0.466   2.338   6.376
34201SOL    HW1 4500   0.561   2.334   6.389
34201SOL    HW2 4501   0.454   2.402   6.307
34202SOL     OW 4502   2.674   0.312   1.225
34202SOL    HW1 4503   2.758   0.275   1.253
34202SOL    HW2 4504   2.696   0.394   1.183
34203SOL     OW 4505   6.758  14.410  11.431
34203SOL    HW1 4506   6.845  14.423  11.391
34203SOL    HW2 4507   6.719  14.339  11.380
34204SOL     OW 4508  14.209  13.087  12.393
34204SOL    HW1 4509  14.186  13.027  12.322
34204SOL    HW2 4510  14.125  13.124  12.421
34205SOL     OW 4511   4.752   6.292   6.068
34205SOL    HW1 4512   4.814   6.249   6.127
34205SOL    HW2 4513   4.801   6.365   6.031
34206SOL     OW 4514  10.252   6.835  11.764
34206SOL    HW1 4515  10.194   6.909  11.744
34206SOL    HW2 4516  10.261   6.837  11.860
34207SOL     OW 4517   9.551  11.779   7.655
34207SOL    HW1 4518   9.599  11.855   7.622
34207SOL    HW2 4519   9.465  11.786   7.615
34208SOL     OW 4520   7.892   4.155   9.596
34208SOL    HW1 4521   7.814   4.175   9.544
34208SOL    HW2 4522   7.955   4.223   9.573
34209SOL     OW 4523  12.184   7.169  12.578
34209SOL    HW1 4524  12.240   7.107  12.532
34209SOL    HW2 4525  12.229   7.253  12.570
34210SOL     OW 4526  10.936   4.626  10.678
34210SOL    HW1 4527  10.997   4.557  10.654
34210SOL    HW2 4528  10.861   4.579  10.716
34211SOL     OW 4529   2.529  13.672   4.240
34211SOL    HW1 4530   2.503  13.752   4.285
34211SOL    HW2 4531   2.454  13.614   4.249
34212SOL     OW 4532   9.133  13.357   3.213
34212SOL    HW1 4533   9.112  13.275   3.258
34212SOL    HW2 4534   9.065  13.418   3.240
34213SOL     OW 4535  13.630   2.352   9.523
34213SOL    HW1 4536  13.580   2.275   9.548
34213SOL    HW2 4537  13.563   2.416   9.496
34214SOL     OW 4538   8.217  14.468  13.120
34214SOL    HW1 4539   8.301  14.447  13.079
34214SOL    HW2 4540   8.152  14.437  13.057
34215SOL     OW 4541  13.166  13.320  14.106
34215SOL    HW1 4542  13.115  13.299  14.028
34215SOL    HW2 4543  13.119  13.392  14.147
34216SOL     OW 4544   9.602   4.356  10.963
34216SOL    HW1 4545   9.579   4.426  11.024
34216SOL    HW2 4546   9.534   4.359  10.897
34217SOL     OW 4547  12.107   3.042   5.232
34217SOL    HW1 4548  12.093   2.975   5.299
34217SOL    HW2 4549  12.026   3.042   5.182
34218SOL     OW 4550  11.769  13.764   0.111
34218SOL    HW1 4551  11.805  13.732   0.028
34218SOL    HW2 4552  11.684  13.720   0.118
34219SOL     OW 4553  14.330  11.821   5.444
34219SOL    HW1 4554  14.262  11.803   5.509
34219SOL    HW2 4555  14.374  11.737   5.431
34220SOL     OW 4556  14.199   2.907   2.189
34220SOL    HW1 4557  14.208   2.985   2.134
34220SOL    HW2 4558  14.289   2.875   2.200
34221SOL     OW 4559   1.592   9.008   4.779
34221SOL    HW1 4560   1.593   8.932   4.837
34221SOL    HW2 4561   1.540   8.980   4.704
34222SOL     OW 4562   4.796   2.134   2.287
34222SOL    HW1 4563   4.823   2.087   2.366
34222SOL    HW2 4564   4.853   2.211   2.285
34223SOL     OW 4565   5.510   0.197   2.193
34223SOL    HW1 4566   5.550   0.161   2.114
34223SOL    HW2 4567   5.579   0.193   2.259
34224SOL     OW 4568  10.604   8.194  10.111
34224SOL    HW1 4569  10.528   8.155  10.156
34224SOL    HW2 4570  10.573   8.210  10.022
34225SOL     OW 4571  12.678   4.755   4.330
34225SOL    HW1 4572  12.708   4.823   4.390
34225SOL    HW2 4573  12.759   4.715   4.297
34226SOL     OW 4574  12.436  10.129   7.462
34226SOL    HW1 4575  12.476  10.046   7.487
34226SOL    HW2 4576  12.370  10.105   7.397
34227SOL     OW 4577   2.640   9.805   9.639
34227SOL    HW1 4578   2.663   9.893   9.671
34227SOL    HW2 4579   2.640   9.750   9.717
34228SOL     OW 4580   6.532   3.013   5.178
34228SOL    HW1 4581   6.621   2.988   5.152
34228SOL    HW2 4582   6.545   3.087   5.237
34229SOL     OW 4583   9.835   7.062   0.377
34229SOL    HW1 4584   9.889   7.076   0.455
34229SOL    HW2 4585   9.810   7.149   0.349
34230SOL     OW 4586   8.388   7.715   7.129
34230SOL    HW1 4587   8.428   7.798   7.156
34230SOL    HW2 4588   8.407   7.709   7.036
34231SOL     OW 4589  12.353  14.750   8.312
34231SOL    HW1 4590  12.318  14.725   8.398
34231SOL    HW2 4591  12.275  14.761   8.258
34232SOL     OW 4592   4.884  10.585  10.188
34232SOL    HW1 4593   4.864  10.561  10.097
34232SOL    HW2 4594   4.911  10.677  10.183
34233SOL     OW 4595   3.897   2.641  12.043
34233SOL    HW1 4596   3.903   2.551  12.075
34233SOL    HW2 4597   3.804   2.663  12.049
34234SOL     OW 4598   1.092   0.929  14.755
34234SOL    HW1 4599   1.132   1.001  14.803
34234SOL    HW2 4600   1.055   0.872  14.823
34235SOL     OW 4601   9.685   6.806  11.413
34235SOL    HW1 4602   9.680   6.713  11.392
34235SOL    HW2 4603   9.596   6.838  11.402
34236SOL     OW 4604   0.440  13.587  11.625
34236SOL    HW1 4605   0.475  13.546  11.704
34236SOL    HW2 4606   0.353  13.548  11.615
34237SOL     OW 4607   9.550   6.043   6.621
34237SOL    HW1 4608   9.610   6.057   6.547
34237SOL    HW2 4609   9.469   6.086   6.595
34238SOL     OW 4610   2.323  12.457   0.451
34238SOL    HW1 4611   2.320  12.364   0.472
34238SOL    HW2 4612   2.364  12.497   0.528
34239SOL     OW 4613  14.564  11.509   2.270
34239SOL    HW1 4614  14.489  11.517   2.210
34239SOL    HW2 4615  14.641  11.526   2.215
34240SOL     OW 4616  11.369  10.660   7.606
34240SOL    HW1 4617  11.295  10.715   7.631
34240SOL    HW2 4618  11.427  10.718   7.557
34241SOL     OW 4619   7.073   8.343   0.803
34241SOL    HW1 4620   7.121   8.269   0.765
34241SOL    HW2 4621   7.132   8.380   0.868
34242SOL     OW 4622   9.258  10.105   4.171
34242SOL    HW1 4623   9.248  10.011   4.189
34242SOL    HW2 4624   9.192  10.123   4.104
34243SOL     OW 4625   8.291   3.935   3.616
34243SOL    HW1 4626   8.201   3.962   3.632
34243SOL    HW2 4627   8.328   4.006   3.563
34244SOL     OW 4628   6.706  10.689   5.720
34244SOL    HW1 4629   6.770  10.758   5.706
34244SOL    HW2 4630   6.631  10.734   5.760
34245SOL     OW 4631  11.067   3.762   1.395
34245SOL    HW1 4632  10.999   3.732   1.454
34245SOL    HW2 4633  11.030   3.750   1.307
34246SOL     OW 4634   4.770   3.965   7.752
34246SOL    HW1 4635   4.839   4.024   7.782
34246SOL    HW2 4636   4.705   4.023   7.712
34247SOL     OW 4637   6.968  13.364   4.318
34247SOL    HW1 4638   6.886  13.373   4.269
34247SOL    HW2 4639   6.942  13.319   4.399
34248SOL     OW 4640  12.832   8.966  11.131
34248SOL    HW1 4641  12.809   9.043  11.184
34248SOL    HW2 4642  12.770   8.969  11.059
34249SOL     OW 4643  11.437   4.934  14.394
34249SOL    HW1 4644  11.513   4.975  14.434
34249SOL    HW2 4645  11.362   4.986  14.425
34250SOL     OW 4646   2.415   1.624   0.651
34250SOL    HW1 4647   2.405   1.556   0.717
34250SOL    HW2 4648   2.327   1.659   0.639
34251SOL     OW 4649   5.595   9.700   4.924
34251SOL    HW1 4650   5.619   9.615   4.960
34251SOL    HW2 4651   5.675   9.753   4.931
34252SOL     OW 4652   9.586   7.463  10.154
34252SOL    HW1 4653   9.633   7.381  10.166
34252SOL    HW2 4654   9.554   7.459  10.064
34253SOL     OW 4655   1.042   9.019   4.101
34253SOL    HW1 4656   1.102   9.085   4.136
34253SOL    HW2 4657   0.965   9.025   4.157
34254SOL     OW 4658   1.704   5.923   7.986
34254SOL    HW1 4659   1.610   5.909   7.974
34254SOL    HW2 4660   1.711   5.981   8.061
34255SOL     OW 4661   3.731  10.345   3.449
34255SOL    HW1 4662   3.637  10.338   3.466
34255SOL    HW2 4663   3.737  10.369   3.357
34256SOL     OW 4664   7.607   5.036   2.353
34256SOL    HW1 4665   7.538   5.090   2.315
34256SOL    HW2 4666   7.632   5.082   2.433
34257SOL     OW 4667   8.955   7.587  13.848
34257SOL    HW1 4668   8.919   7.674  13.832
34257SOL    HW2 4669   9.050   7.599  13.843
34258SOL     OW 4670   4.722  12.839   5.677
34258SOL    HW1 4671   4.668  12.784   5.734
34258SOL    HW2 4672   4.679  12.924   5.677
34259SOL     OW 4673   7.521   4.833  10.281
34259SOL    HW1 4674   7.495   4.909  10.229
34259SOL    HW2 4675   7.617   4.839  10.285
34260SOL     OW 4676  11.385  13.110   4.775
34260SOL    HW1 4677  11.291  13.125   4.765
34260SOL    HW2 4678  11.425  13.196   4.758
34261SOL     OW 4679  14.697   6.418  11.801
34261SOL    HW1 4680  14.745   6.500  11.798
34261SOL    HW2 4681  14.742   6.366  11.868
34262SOL     OW 4682   8.304   5.952  10.778
34262SOL    HW1 4683   8.360   5.912  10.844
34262SOL    HW2 4684   8.317   6.046  10.788
34263SOL     OW 4685   7.311   0.011   6.153
34263SOL    HW1 4686   7.386   0.017   6.212
34263SOL    HW2 4687   7.335  14.823   6.090
34264SOL     OW 4688   5.763   3.217  14.767
34264SOL    HW1 4689   5.807   3.149  14.717
34264SOL    HW2 4690   5.685   3.175  14.802
34265SOL     OW 4691   1.928  13.178   7.569
34265SOL    HW1 4692   1.852  13.120   7.561
34265SOL    HW2 4693   1.986  13.133   7.629
34266SOL     OW 4694   0.063   4.877  10.753
34266SOL    HW1 4695   0.114   4.852  10.676
34266SOL    HW2 4696  14.853   4.853  10.732
34267SOL     OW 4697   2.908   3.636  11.622
34267SOL    HW1 4698   2.978   3.580  11.656
34267SOL    HW2 4699   2.951   3.720  11.605
34268SOL     OW 4700   7.534   7.862   2.155
34268SOL    HW1 4701   7.612   7.888   2.107
34268SOL    HW2 4702   7.470   7.930   2.137
34269SOL     OW 4703  14.011   0.075   9.907
34269SOL    HW1 4704  14.053   0.098   9.824
34269SOL    HW2 4705  14.083   0.064   9.969
34270SOL     OW 4706   7.471   7.100   0.993
34270SOL    HW1 4707   7.385   7.064   1.014
34270SOL    HW2 4708   7.484   7.078   0.901
34271SOL     OW 4709   3.144   5.699   6.595
34271SOL    HW1 4710   3.153   5.603   6.601
34271SOL    HW2 4711   3.234   5.731   6.600
34272SOL     OW 4712   1.726   4.345  14.442
34272SOL    HW1 4713   1.693   4.420  14.392
34272SOL    HW2 4714   1.705   4.366  14.533
34273SOL     OW 4715   1.344   4.303  10.317
34273SOL    HW1 4716   1.354   4.350  10.400
34273SOL    HW2 4717   1.421   4.329  10.265
34274SOL     OW 4718   8.718   2.729   2.119
34274SOL    HW1 4719   8.728   2.679   2.199
34274SOL    HW2 4720   8.623   2.730   2.103
34275SOL     OW 4721   8.059   0.092   8.609
34275SOL    HW1 4722   8.035   0.098   8.517
34275SOL    HW2 4723   7.976   0.075   8.654
34276SOL     OW 4724   4.173   1.035   6.964
34276SOL    HW1 4725   4.104   1.098   6.947
34276SOL    HW2 4726   4.204   1.055   7.053
34277SOL     OW 4727   4.883   5.043   2.849
34277SOL    HW1 4728   4.862   5.112   2.786
34277SOL    HW2 4729   4.872   5.084   2.934
34278SOL     OW 4730  14.216   8.701  13.297
34278SOL    HW1 4731  14.211   8.797  13.298
34278SOL    HW2 4732  14.162   8.675  13.223
34279SOL     OW 4733   4.865  14.428   6.426
34279SOL    HW1 4734   4.858  14.345   6.379
34279SOL    HW2 4735   4.810  14.417   6.504
34280SOL     OW 4736   7.313   4.515   0.554
34280SOL    HW1 4737   7.270   4.562   0.625
34280SOL    HW2 4738   7.246   4.456   0.520
34281SOL     OW 4739   3.968   7.018   1.581
34281SOL    HW1 4740   3.954   6.972   1.498
34281SOL    HW2 4741   4.058   6.998   1.605
34282SOL     OW 4742  10.332   1.319   8.058
34282SOL    HW1 4743  10.305   1.228   8.073
34282SOL    HW2 4744  10.256   1.371   8.085
34283SOL     OW 4745   2.684  12.985   2.856
34283SOL    HW1 4746   2.696  12.939   2.773
34283SOL    HW2 4747   2.654  12.917   2.917
34284SOL     OW 4748   8.558   6.115   1.946
34284SOL    HW1 4749   8.499   6.124   1.871
34284SOL    HW2 4750   8.500   6.095   2.019
34285SOL     OW 4751  11.726   5.872   8.219
34285SOL    HW1 4752  11.796   5.829   8.169
34285SOL    HW2 4753  11.720   5.959   8.181
34286SOL     OW 4754  14.059   9.642  12.480
34286SOL    HW1 4755  14.044   9.576  12.412
34286SOL    HW2 4756  14.104   9.595  12.550
34287SOL     OW 4757  10.394   0.931  10.184
34287SOL    HW1 4758  10.310   0.913  10.142
34287SOL    HW2 4759  10.382   0.903  10.275
34288SOL     OW 4760   7.869   2.494  14.582
34288SOL    HW1 4761   7.886   2.412  14.535
34288SOL    HW2 4762   7.908   2.562  14.528
34289SOL     OW 4763   8.167   8.432   9.746
34289SOL    HW1 4764   8.151   8.473   9.831
34289SOL    HW2 4765   8.164   8.503   9.683
34290SOL     OW 4766   8.286   8.752  14.458
34290SOL    HW1 4767   8.307   8.827  14.403
34290SOL    HW2 4768   8.342   8.762  14.535
34291SOL     OW 4769   0.643  13.416   4.568
34291SOL    HW1 4770   0.617  13.440   4.479
34291SOL    HW2 4771   0.724  13.367   4.558
34292SOL     OW 4772  12.992   4.545   2.100
34292SOL    HW1 4773  12.902   4.568   2.123
34292SOL    HW2 4774  13.024   4.622   2.053
34293SOL     OW 4775  12.256   3.376  10.332
34293SOL    HW1 4776  12.279   3.451  10.278
34293SOL    HW2 4777  12.303   3.302  10.293
34294SOL     OW 4778   2.265   8.974   2.069
34294SOL    HW1 4779   2.176   8.998   2.094
34294SOL    HW2 4780   2.316   8.979   2.150
34295SOL     OW 4781   7.786   9.326   2.585
34295SOL    HW1 4782   7.718   9.384   2.553
34295SOL    HW2 4783   7.765   9.241   2.546
34296SOL     OW 4784  13.638  10.786  13.882
34296SOL    HW1 4785  13.570  10.719  13.877
34296SOL    HW2 4786  13.637  10.828  13.796
34297SOL     OW 4787   0.598   5.215  10.191
34297SOL    HW1 4788   0.627   5.303  10.166
34297SOL    HW2 4789   0.511   5.207  10.152
34298SOL     OW 4790   6.285   8.907  10.778
34298SOL    HW1 4791   6.198   8.886  10.811
34298SOL    HW2 4792   6.291   8.860  10.695
34299SOL     OW 4793   8.129   3.119   0.941
34299SOL    HW1 4794   8.106   3.035   0.982
34299SOL    HW2 4795   8.070   3.183   0.983
34300SOL     OW 4796   4.073   1.964   9.657
34300SOL    HW1 4797   4.031   2.016   9.726
34300SOL    HW2 4798   4.002   1.942   9.597
34301SOL     OW 4799   3.035   4.808   7.458
34301SOL    HW1 4800   3.109   4.753   7.485
34301SOL    HW2 4801   3.064   4.848   7.376
34302SOL     OW 4802  13.139   3.972  14.013
34302SOL    HW1 4803  13.074   3.971  13.943
34302SOL    HW2 4804  13.191   4.050  13.996
34303SOL     OW 4805  11.505   1.815   4.926
34303SOL    HW1 4806  11.495   1.720   4.915
34303SOL    HW2 4807  11.586   1.824   4.975
34304SOL     OW 4808  10.555   6.153   1.322
34304SOL    HW1 4809  10.511   6.145   1.406
34304SOL    HW2 4810  10.549   6.066   1.283
34305SOL     OW 4811   7.084  13.084   6.980
34305SOL    HW1 4812   7.167  13.045   7.008
34305SOL    HW2 4813   7.047  13.122   7.060
34306SOL     OW 4814   5.154   8.961  12.130
34306SOL    HW1 4815   5.154   8.992  12.220
34306SOL    HW2 4816   5.163   8.866  12.138
34307SOL     OW 4817   3.244   9.051  13.010
34307SOL    HW1 4818   3.318   9.072  12.953
34307SOL    HW2 4819   3.186   9.127  13.004
34308SOL     OW 4820   5.453   0.483  11.709
34308SOL    HW1 4821   5.471   0.390  11.721
34308SOL    HW2 4822   5.358   0.488  11.698
34309SOL     OW 4823  13.160  13.194   0.291
34309SOL    HW1 4824  13.211  13.263   0.332
34309SOL    HW2 4825  13.226  13.135   0.254
34310SOL     OW 4826  14.702   7.734   3.869
34310SOL    HW1 4827  14.782   7.778   3.840
34310SOL    HW2 4828  14.636   7.759   3.803
34311SOL     OW 4829   3.978   1.532   2.747
34311SOL    HW1 4830   4.070   1.535   2.722
34311SOL    HW2 4831   3.951   1.624   2.751
34312SOL     OW 4832  13.540   2.383   9.128
34312SOL    HW1 4833  13.574   2.382   9.038
34312SOL    HW2 4834  13.483   2.307   9.133
34313SOL     OW 4835   1.674  11.879   2.240
34313SOL    HW1 4836   1.601  11.816   2.236
34313SOL    HW2 4837   1.631  11.964   2.248
34314SOL     OW 4838   4.894   6.228   4.106
34314SOL    HW1 4839   4.904   6.172   4.183
34314SOL    HW2 4840   4.850   6.306   4.139
34315SOL     OW 4841  11.692   7.484   2.498
34315SOL    HW1 4842  11.632   7.521   2.434
34315SOL    HW2 4843  11.757   7.437   2.447
34316SOL     OW 4844  10.007   2.565  13.738
34316SOL    HW1 4845   9.992   2.489  13.682
34316SOL    HW2 4846   9.959   2.545  13.819
34317SOL     OW 4847   4.350   6.679  12.992
34317SOL    HW1 4848   4.349   6.766  13.031
34317SOL    HW2 4849   4.277   6.633  13.032
34318SOL     OW 4850   8.636   1.105  14.444
34318SOL    HW1 4851   8.665   1.106  14.535
34318SOL    HW2 4852   8.568   1.037  14.442
34319SOL     OW 4853  11.342   9.329  13.629
34319SOL    HW1 4854  11.341   9.393  13.558
34319SOL    HW2 4855  11.430   9.336  13.666
34320SOL     OW 4856   2.812   2.507   1.704
34320SOL    HW1 4857   2.818   2.450   1.627
34320SOL    HW2 4858   2.734   2.478   1.750
34321SOL     OW 4859  12.989   3.158  12.880
34321SOL    HW1 4860  12.979   3.246  12.845
34321SOL    HW2 4861  13.035   3.110  12.811
34322SOL     OW 4862   4.476   8.494   9.570
34322SOL    HW1 4863   4.447   8.541   9.492
34322SOL    HW2 4864   4.440   8.405   9.559
34323SOL     OW 4865   0.325   6.727   1.856
34323SOL    HW1 4866   0.404   6.679   1.882
34323SOL    HW2 4867   0.338   6.815   1.892
34324SOL     OW 4868   5.278   2.718   0.613
34324SOL    HW1 4869   5.320   2.731   0.698
34324SOL    HW2 4870   5.184   2.729   0.631
34325SOL     OW 4871   4.751   6.659  12.451
34325SOL    HW1 4872   4.761   6.716  12.375
34325SOL    HW2 4873   4.673   6.607  12.432
34326SOL     OW 4874   4.748   9.352  13.546
34326SOL    HW1 4875   4.771   9.305  13.466
34326SOL    HW2 4876   4.823   9.339  13.604
34327SOL     OW 4877   0.291   4.210   1.173
34327SOL    HW1 4878   0.383   4.184   1.186
34327SOL    HW2 4879   0.282   4.291   1.223
34328SOL     OW 4880  13.812   5.817   6.078
34328SOL    HW1 4881  13.810   5.826   5.983
34328SOL    HW2 4882  13.721   5.825   6.105
34329SOL     OW 4883   0.321   5.416   3.314
34329SOL    HW1 4884   0.408   5.377   3.316
34329SOL    HW2 4885   0.325   5.480   3.243
34330SOL     OW 4886   5.783  13.067  10.159
34330SOL    HW1 4887   5.710  13.026  10.111
34330SOL    HW2 4888   5.826  13.121  10.093
34331SOL     OW 4889   7.661   8.109  13.715
34331SOL    HW1 4890   7.592   8.175  13.703
34331SOL    HW2 4891   7.616   8.033  13.751
34332SOL     OW 4892   3.538  12.167   9.836
34332SOL    HW1 4893   3.524  12.249   9.882
34332SOL    HW2 4894   3.461  12.114   9.857
34333SOL     OW 4895   6.625  14.064   8.344
34333SOL    HW1 4896   6.555  14.127   8.361
34333SOL    HW2 4897   6.669  14.054   8.428
34334SOL     OW 4898   3.868  11.559  11.676
34334SOL    HW1 4899   3.794  11.522  11.724
34334SOL    HW2 4900   3.935  11.491  11.677
34335SOL     OW 4901   6.352   2.840   6.562
34335SOL    HW1 4902   6.262   2.865   6.586
34335SOL    HW2 4903   6.406   2.873   6.634
34336SOL     OW 4904   7.802  10.179  13.397
34336SOL    HW1 4905   7.862  10.111  13.368
34336SOL    HW2 4906   7.726  10.132  13.431
34337SOL     OW 4907  13.010  13.615  11.583
34337SOL    HW1 4908  13.049  13.583  11.665
34337SOL    HW2 4909  13.050  13.560  11.515
34338SOL     OW 4910   8.263   9.075   2.857
34338SOL    HW1 4911   8.317   9.044   2.929
34338SOL    HW2 4912   8.319   9.068   2.779
34339SOL     OW 4913   0.339   4.363   3.575
34339SOL    HW1 4914   0.327   4.448   3.533
34339SOL    HW2 4915   0.288   4.302   3.521
34340SOL     OW 4916  14.047   6.865  10.843
34340SOL    HW1 4917  13.951   6.861  10.847
34340SOL    HW2 4918  14.066   6.896  10.755
34341SOL     OW 4919   7.143  13.027  13.585
34341SOL    HW1 4920   7.162  13.005  13.676
34341SOL    HW2 4921   7.057  12.989  13.569
34342SOL     OW 4922  10.556  11.751   0.141
34342SOL    HW1 4923  10.639  11.779   0.102
34342SOL    HW2 4924  10.490  11.807   0.100
34343SOL     OW 4925   7.154   4.903   3.814
34343SOL    HW1 4926   7.067   4.867   3.795
34343SOL    HW2 4927   7.155   4.989   3.772
34344SOL     OW 4928   0.071  12.245   5.139
34344SOL    HW1 4929   0.081  12.273   5.048
34344SOL    HW2 4930  14.877  12.296   5.171
34345SOL     OW 4931   2.112   3.553   4.323
34345SOL    HW1 4932   2.165   3.582   4.397
34345SOL    HW2 4933   2.058   3.629   4.301
34346SOL     OW 4934   4.160   9.012   2.218
34346SOL    HW1 4935   4.184   8.989   2.308
34346SOL    HW2 4936   4.135   8.929   2.178
34347SOL     OW 4937   3.590   6.353   2.649
34347SOL    HW1 4938   3.621   6.439   2.678
34347SOL    HW2 4939   3.586   6.301   2.729
34348SOL     OW 4940   0.630   7.696   7.645
34348SOL    HW1 4941   0.682   7.773   7.667
34348SOL    HW2 4942   0.685   7.621   7.672
34349SOL     OW 4943  13.659   8.340  12.477
34349SOL    HW1 4944  13.599   8.371  12.544
34349SOL    HW2 4945  13.613   8.267  12.436
34350SOL     OW 4946   5.486  12.566  13.746
34350SOL    HW1 4947   5.442  12.650  13.731
34350SOL    HW2 4948   5.503  12.564  13.840
34351SOL     OW 4949   8.382  12.828   5.401
34351SOL    HW1 4950   8.475  12.850   5.412
34351SOL    HW2 4951   8.377  12.735   5.422
34352SOL     OW 4952   5.806   7.763  11.958
34352SOL    HW1 4953   5.873   7.741  12.023
34352SOL    HW2 4954   5.725   7.727  11.993
34353SOL     OW 4955   7.335   3.614   7.748
34353SOL    HW1 4956   7.261   3.567   7.709
34353SOL    HW2 4957   7.406   3.604   7.685
34354SOL     OW 4958  11.926   7.314   7.470
34354SOL    HW1 4959  11.909   7.405   7.493
34354SOL    HW2 4960  11.875   7.263   7.533
34355SOL     OW 4961   2.242   4.613  10.965
34355SOL    HW1 4962   2.283   4.693  10.931
34355SOL    HW2 4963   2.187   4.644  11.037
34356SOL     OW 4964   3.083  12.077   1.103
34356SOL    HW1 4965   3.033  11.997   1.122
34356SOL    HW2 4966   3.018  12.137   1.067
34357SOL     OW 4967  11.712   6.359   9.925
34357SOL    HW1 4968  11.702   6.425   9.856
34357SOL    HW2 4969  11.738   6.280   9.878
34358SOL     OW 4970   3.064   0.902   5.144
34358SOL    HW1 4971   3.143   0.941   5.106
34358SOL    HW2 4972   2.998   0.911   5.076
34359SOL     OW 4973   4.900   8.509   4.537
34359SOL    HW1 4974   4.877   8.581   4.478
34359SOL    HW2 4975   4.976   8.468   4.496
34360SOL     OW 4976   5.053   1.156   2.758
34360SOL    HW1 4977   5.134   1.114   2.727
34360SOL    HW2 4978   5.007   1.087   2.805
34361SOL     OW 4979  11.352   4.959   1.034
34361SOL    HW1 4980  11.355   4.877   0.985
34361SOL    HW2 4981  11.439   4.997   1.023
34362SOL     OW 4982  14.817   0.704   3.305
34362SOL    HW1 4983  14.781   0.785   3.268
34362SOL    HW2 4984   0.030   0.709   3.285
34363SOL     OW 4985  11.000   9.171  10.100
34363SOL    HW1 4986  10.995   9.235  10.171
34363SOL    HW2 4987  10.919   9.120  10.108
34364SOL     OW 4988  11.900  11.812   2.155
34364SOL    HW1 4989  11.808  11.803   2.129
34364SOL    HW2 4990  11.937  11.876   2.095
34365SOL     OW 4991   1.446   7.812   1.087
34365SOL    HW1 4992   1.444   7.787   1.180
34365SOL    HW2 4993   1.529   7.858   1.077
34366SOL     OW 4994   9.660  14.543   7.983
34366SOL    HW1 4995   9.713  14.494   7.920
34366SOL    HW2 4996   9.594  14.587   7.929
34367SOL     OW 4997  13.991   9.523   4.422
34367SOL    HW1 4998  14.044   9.602   4.432
34367SOL    HW2 4999  14.040   9.470   4.359
34368SOL     OW 5000   5.493  11.874   4.406
34368SOL    HW1 5001   5.476  11.962   4.372
34368SOL    HW2 5002   5.461  11.815   4.337
34369SOL     OW 5003  11.580   0.209   9.210
34369SOL    HW1 5004  11.671   0.237   9.220
34369SOL    HW2 5005  11.529   0.290   9.215
34370SOL     OW 5006  11.274   4.990   8.248
34370SOL    HW1 5007  11.318   4.930   8.187
34370SOL    HW2 5008  11.342   5.017   8.310
34371SOL     OW 5009  12.152   8.766   4.368
34371SOL    HW1 5010  12.244   8.761   4.342
34371SOL    HW2 5011  12.115   8.682   4.342
34372SOL     OW 5012  12.338   7.688  13.505
34372SOL    HW1 5013  12.272   7.732  13.558
34372SOL    HW2 5014  12.323   7.594  13.521
34373SOL     OW 5015  11.851   0.013   9.993
34373SOL    HW1 5016  11.907   0.084   9.963
34373SOL    HW2 5017  11.772   0.020   9.939
34374SOL     OW 5018   8.703  10.449   9.471
34374SOL    HW1 5019   8.769  10.500   9.518
34374SOL    HW2 5020   8.622  10.499   9.482
34375SOL     OW 5021   4.461  12.416   3.689
34375SOL    HW1 5022   4.539  12.471   3.686
34375SOL    HW2 5023   4.461  12.369   3.606
34376SOL     OW 5024   5.809  10.987   8.489
34376SOL    HW1 5025   5.756  11.014   8.414
34376SOL    HW2 5026   5.886  10.945   8.451
34377SOL     OW 5027   7.054  11.266  10.817
34377SOL    HW1 5028   7.145  11.239  10.826
34377SOL    HW2 5029   7.057  11.360  10.804
34378SOL     OW 5030   2.533   5.128  11.926
34378SOL    HW1 5031   2.460   5.149  11.985
34378SOL    HW2 5032   2.607   5.113  11.984
34379SOL     OW 5033   0.969  11.587   5.507
34379SOL    HW1 5034   1.004  11.628   5.427
34379SOL    HW2 5035   0.908  11.652   5.542
34380SOL     OW 5036  13.072   3.978   3.746
34380SOL    HW1 5037  13.020   3.905   3.780
34380SOL    HW2 5038  13.132   3.938   3.684
34381SOL     OW 5039   4.072   1.742  11.361
34381SOL    HW1 5040   3.980   1.717  11.370
34381SOL    HW2 5041   4.071   1.813  11.297
34382SOL     OW 5042   6.545   9.614  13.151
34382SOL    HW1 5043   6.455   9.583  13.144
34382SOL    HW2 5044   6.597   9.551  13.101
34383SOL     OW 5045   2.844   5.834  10.043
34383SOL    HW1 5046   2.836   5.817   9.950
34383SOL    HW2 5047   2.790   5.912  10.058
34384SOL     OW 5048   0.816   1.134  10.858
34384SOL    HW1 5049   0.781   1.221  10.879
34384SOL    HW2 5050   0.911   1.146  10.854
34385SOL     OW 5051  12.302   1.535  13.742
34385SOL    HW1 5052  12.226   1.593  13.743
34385SOL    HW2 5053  12.343   1.548  13.828
34386SOL     OW 5054   2.196  14.849  10.117
34386SOL    HW1 5055   2.211  14.839  10.023
34386SOL    HW2 5056   2.243  14.776  10.157
34387SOL     OW 5057   4.765   8.733   8.325
34387SOL    HW1 5058   4.718   8.698   8.250
34387SOL    HW2 5059   4.839   8.674   8.337
34388SOL     OW 5060   8.052   2.646  13.852
34388SOL    HW1 5061   8.100   2.564  13.849
34388SOL    HW2 5062   8.067   2.681  13.940
34389SOL     OW 5063   6.696   9.943   4.272
34389SOL    HW1 5064   6.682   9.952   4.178
34389SOL    HW2 5065   6.656   9.860   4.295
34390SOL     OW 5066   3.491  14.583   2.998
34390SOL    HW1 5067   3.573  14.542   3.027
34390SOL    HW2 5068   3.423  14.519   3.018
34391SOL     OW 5069   8.677  13.312  11.787
34391SOL    HW1 5070   8.767  13.279  11.786
34391SOL    HW2 5071   8.683  13.397  11.829
34392SOL     OW 5072   1.085   7.584  13.425
34392SOL    HW1 5073   1.019   7.645  13.391
34392SOL    HW2 5074   1.166   7.612  13.383
34393SOL     OW 5075   7.526   8.966  13.118
34393SOL    HW1 5076   7.614   8.944  13.147
34393SOL    HW2 5077   7.480   8.882  13.114
34394SOL     OW 5078   8.763   4.381   8.152
34394SOL    HW1 5079   8.777   4.467   8.191
34394SOL    HW2 5080   8.844   4.333   8.168
34395SOL     OW 5081   6.028   8.151  11.774
34395SOL    HW1 5082   6.110   8.106  11.795
34395SOL    HW2 5083   6.053   8.242  11.761
34396SOL     OW 5084   8.941   1.278   2.272
34396SOL    HW1 5085   8.902   1.363   2.294
34396SOL    HW2 5086   9.034   1.296   2.263
34397SOL     OW 5087   2.411  11.183   4.655
34397SOL    HW1 5088   2.385  11.145   4.739
34397SOL    HW2 5089   2.461  11.261   4.680
34398SOL     OW 5090  12.597   8.362  10.958
34398SOL    HW1 5091  12.680   8.403  10.935
34398SOL    HW2 5092  12.569   8.316  10.879
34399SOL     OW 5093   9.673   0.952  10.807
34399SOL    HW1 5094   9.692   0.885  10.872
34399SOL    HW2 5095   9.587   0.986  10.832
34400SOL     OW 5096   0.352  11.240  14.598
34400SOL    HW1 5097   0.326  11.266  14.687
34400SOL    HW2 5098   0.280  11.271  14.543
34401SOL     OW 5099  14.388   1.408   6.338
34401SOL    HW1 5100  14.454   1.477   6.336
34401SOL    HW2 5101  14.371   1.393   6.431
34402SOL     OW 5102   1.566   0.474   6.357
34402SOL    HW1 5103   1.538   0.562   6.330
34402SOL    HW2 5104   1.658   0.469   6.332
34403SOL     OW 5105  13.356   3.221   5.156
34403SOL    HW1 5106  13.425   3.264   5.105
34403SOL    HW2 5107  13.286   3.204   5.093
34404SOL     OW 5108  11.499   5.175   3.113
34404SOL    HW1 5109  11.479   5.207   3.025
34404SOL    HW2 5110  11.484   5.251   3.170
34405SOL     OW 5111  13.486  12.742  13.820
34405SOL    HW1 5112  13.457  12.782  13.738
34405SOL    HW2 5113  13.512  12.816  13.875
34406SOL     OW 5114   4.105   4.624   3.292
34406SOL    HW1 5115   4.191   4.632   3.334
34406SOL    HW2 5116   4.059   4.705   3.315
34407SOL     OW 5117  14.604  10.472   7.260
34407SOL    HW1 5118  14.520  10.514   7.243
34407SOL    HW2 5119  14.662  10.544   7.283
34408SOL     OW 5120  11.672  10.705   2.433
34408SOL    HW1 5121  11.757  10.744   2.414
34408SOL    HW2 5122  11.610  10.777   2.422
34409SOL     OW 5123  11.080  12.865   9.164
34409SOL    HW1 5124  11.119  12.789   9.121
34409SOL    HW2 5125  11.064  12.836   9.253
34410SOL     OW 5126  10.679   7.994   2.184
34410SOL    HW1 5127  10.763   7.983   2.229
34410SOL    HW2 5128  10.624   7.924   2.219
34411SOL     OW 5129   6.626   7.243   7.705
34411SOL    HW1 5130   6.649   7.330   7.672
34411SOL    HW2 5131   6.537   7.252   7.738
34412SOL     OW 5132   0.484  14.835   4.082
34412SOL    HW1 5133   0.458   0.039   4.118
34412SOL    HW2 5134   0.415  14.812   4.019
34413SOL     OW 5135  11.220   1.967  13.889
34413SOL    HW1 5136  11.238   2.044  13.943
34413SOL    HW2 5137  11.226   1.999  13.799
34414SOL     OW 5138   9.188  10.346  11.296
34414SOL    HW1 5139   9.187  10.391  11.212
34414SOL    HW2 5140   9.263  10.287  11.291
34415SOL     OW 5141  13.336   3.017   3.044
34415SOL    HW1 5142  13.268   2.963   3.087
34415SOL    HW2 5143  13.335   2.989   2.953
34416SOL     OW 5144   0.992  13.663  11.620
34416SOL    HW1 5145   0.978  13.717  11.698
34416SOL    HW2 5146   0.934  13.700  11.554
34417SOL     OW 5147   8.612   0.426   0.944
34417SOL    HW1 5148   8.536   0.370   0.962
34417SOL    HW2 5149   8.676   0.368   0.905
34418SOL     OW 5150  10.915   0.764   4.864
34418SOL    HW1 5151  10.903   0.799   4.952
34418SOL    HW2 5152  10.841   0.799   4.814
34419SOL     OW 5153   8.761   6.673  13.565
34419SOL    HW1 5154   8.743   6.605  13.630
34419SOL    HW2 5155   8.755   6.628  13.481
34420SOL     OW 5156  13.905   5.068   1.719
34420SOL    HW1 5157  13.817   5.086   1.750
34420SOL    HW2 5158  13.924   4.979   1.750
34421SOL     OW 5159  13.362  12.846  11.005
34421SOL    HW1 5160  13.334  12.821  10.917
34421SOL    HW2 5161  13.448  12.886  10.992
34422SOL     OW 5162   8.584  14.867  14.749
34422SOL    HW1 5163   8.652  14.821  14.799
34422SOL    HW2 5164   8.536  14.796  14.704
34423SOL     OW 5165  10.908  12.400   9.810
34423SOL    HW1 5166  10.826  12.365   9.844
34423SOL    HW2 5167  10.970  12.391   9.883
34424SOL     OW 5168   2.050  11.884   0.402
34424SOL    HW1 5169   2.118  11.931   0.354
34424SOL    HW2 5170   2.035  11.937   0.480
34425SOL     OW 5171   5.530   7.960   1.936
34425SOL    HW1 5172   5.443   7.943   1.971
34425SOL    HW2 5173   5.514   8.008   1.854
34426SOL     OW 5174   0.738  13.862   2.215
34426SOL    HW1 5175   0.809  13.880   2.153
34426SOL    HW2 5176   0.703  13.777   2.186
34427SOL     OW 5177   6.145   8.474   4.359
34427SOL    HW1 5178   6.119   8.382   4.365
34427SOL    HW2 5179   6.156   8.502   4.450
34428SOL     OW 5180  12.288   8.029   0.545
34428SOL    HW1 5181  12.316   8.025   0.453
34428SOL    HW2 5182  12.233   7.951   0.557
34429SOL     OW 5183   2.668   9.321   5.496
34429SOL    HW1 5184   2.649   9.236   5.457
34429SOL    HW2 5185   2.584   9.350   5.533
34430SOL     OW 5186   9.255   9.245   1.213
34430SOL    HW1 5187   9.212   9.311   1.268
34430SOL    HW2 5188   9.296   9.296   1.143
34431SOL     OW 5189   3.566   2.994  14.297
34431SOL    HW1 5190   3.500   2.937  14.338
34431SOL    HW2 5191   3.650   2.957  14.324
34432SOL     OW 5192   7.149   1.394   8.527
34432SOL    HW1 5193   7.203   1.469   8.554
34432SOL    HW2 5194   7.163   1.328   8.595
34433SOL     OW 5195   0.651   6.988  13.269
34433SOL    HW1 5196   0.620   7.007  13.180
34433SOL    HW2 5197   0.581   7.019  13.326
34434SOL     OW 5198   5.807   9.728   4.064
34434SOL    HW1 5199   5.819   9.645   4.111
34434SOL    HW2 5200   5.891   9.773   4.072
34435SOL     OW 5201   9.462  10.906   4.697
34435SOL    HW1 5202   9.404  10.969   4.655
34435SOL    HW2 5203   9.437  10.822   4.659
34436SOL     OW 5204   0.037  10.268   8.599
34436SOL    HW1 5205   0.114  10.322   8.614
34436SOL    HW2 5206  14.847  10.314   8.644
34437SOL     OW 5207   3.249   9.849   3.486
34437SOL    HW1 5208   3.165   9.805   3.498
34437SOL    HW2 5209   3.284   9.812   3.405
34438SOL     OW 5210   8.171  10.333   3.135
34438SOL    HW1 5211   8.150  10.240   3.130
34438SOL    HW2 5212   8.239  10.345   3.069
34439SOL     OW 5213   1.120   3.196  12.795
34439SOL    HW1 5214   1.168   3.126  12.840
34439SOL    HW2 5215   1.133   3.273  12.850
34440SOL     OW 5216   0.685   1.675   5.100
34440SOL    HW1 5217   0.621   1.604   5.102
34440SOL    HW2 5218   0.769   1.632   5.115
34441SOL     OW 5219   2.153   9.163  12.367
34441SOL    HW1 5220   2.059   9.183  12.363
34441SOL    HW2 5221   2.181   9.202  12.450
34442SOL     OW 5222  12.380   6.708  13.391
34442SOL    HW1 5223  12.473   6.686  13.392
34442SOL    HW2 5224  12.343   6.650  13.324
34443SOL     OW 5225   1.751   6.543   8.261
34443SOL    HW1 5226   1.701   6.513   8.185
34443SOL    HW2 5227   1.756   6.638   8.250
34444SOL     OW 5228  10.468   5.399   8.603
34444SOL    HW1 5229  10.405   5.360   8.542
34444SOL    HW2 5230  10.460   5.347   8.683
34445SOL     OW 5231   9.614  10.766   3.195
34445SOL    HW1 5232   9.578  10.855   3.204
34445SOL    HW2 5233   9.571  10.731   3.117
34446SOL     OW 5234  13.903  14.257  12.372
34446SOL    HW1 5235  13.861  14.341  12.389
34446SOL    HW2 5236  13.892  14.244  12.277
34447SOL     OW 5237  12.409   5.838   9.734
34447SOL    HW1 5238  12.412   5.761   9.677
34447SOL    HW2 5239  12.470   5.900   9.694
34448SOL     OW 5240   4.007   2.699  13.575
34448SOL    HW1 5241   4.051   2.730  13.654
34448SOL    HW2 5242   4.066   2.724  13.504
34449SOL     OW 5243   6.523   8.043  12.548
34449SOL    HW1 5244   6.513   7.949  12.529
34449SOL    HW2 5245   6.512   8.049  12.643
34450SOL     OW 5246   3.683   7.707  12.313
34450SOL    HW1 5247   3.717   7.790  12.348
34450SOL    HW2 5248   3.671   7.723  12.220
34451SOL     OW 5249   0.868   5.983   3.697
34451SOL    HW1 5250   0.954   5.941   3.695
34451SOL    HW2 5251   0.882   6.069   3.656
34452SOL     OW 5252  10.494   1.863   0.345
34452SOL    HW1 5253  10.540   1.784   0.316
34452SOL    HW2 5254  10.405   1.852   0.312
34453SOL     OW 5255  13.024   5.071   8.484
34453SOL    HW1 5256  13.037   5.071   8.579
34453SOL    HW2 5257  13.107   5.102   8.448
34454SOL     OW 5258   6.450   4.503  14.127
34454SOL    HW1 5259   6.428   4.567  14.060
34454SOL    HW2 5260   6.457   4.420  14.080
34455SOL     OW 5261   6.312   0.926   6.759
34455SOL    HW1 5262   6.369   0.900   6.686
34455SOL    HW2 5263   6.273   1.009   6.730
34456SOL     OW 5264  12.399  10.625   6.337
34456SOL    HW1 5265  12.401  10.580   6.253
34456SOL    HW2 5266  12.346  10.704   6.320
34457SOL     OW 5267   6.314   0.318   6.851
34457SOL    HW1 5268   6.329   0.257   6.778
34457SOL    HW2 5269   6.301   0.403   6.808
34458SOL     OW 5270  11.114   8.464   6.833
34458SOL    HW1 5271  11.181   8.412   6.876
34458SOL    HW2 5272  11.067   8.403   6.777
34459SOL     OW 5273   7.780   5.460   4.402
34459SOL    HW1 5274   7.760   5.530   4.465
34459SOL    HW2 5275   7.875   5.465   4.391
34460SOL     OW 5276   4.375   5.384   0.733
34460SOL    HW1 5277   4.414   5.308   0.776
34460SOL    HW2 5278   4.392   5.457   0.793
34461SOL     OW 5279   6.102   2.693   6.610
34461SOL    HW1 5280   6.042   2.733   6.673
34461SOL    HW2 5281   6.052   2.692   6.528
34462SOL     OW 5282   6.050   2.999  10.101
34462SOL    HW1 5283   6.073   2.908  10.117
34462SOL    HW2 5284   6.034   3.003  10.006
34463SOL     OW 5285  11.247   1.446  10.475
34463SOL    HW1 5286  11.229   1.377  10.539
34463SOL    HW2 5287  11.245   1.527  10.525
34464SOL     OW 5288   4.625   9.054   5.619
34464SOL    HW1 5289   4.667   9.124   5.570
34464SOL    HW2 5290   4.531   9.071   5.610
34465SOL     OW 5291  10.149   1.336   1.153
34465SOL    HW1 5292  10.154   1.240   1.154
34465SOL    HW2 5293  10.131   1.357   1.061
34466SOL     OW 5294   7.975   7.706  14.291
34466SOL    HW1 5295   7.951   7.762  14.218
34466SOL    HW2 5296   7.916   7.733  14.362
34467SOL     OW 5297   2.036  13.536   1.855
34467SOL    HW1 5298   2.089  13.564   1.930
34467SOL    HW2 5299   2.001  13.617   1.818
34468SOL     OW 5300   0.605  12.568  12.563
34468SOL    HW1 5301   0.600  12.479  12.528
34468SOL    HW2 5302   0.575  12.560  12.653
34469SOL     OW 5303   8.817  12.176   5.115
34469SOL    HW1 5304   8.769  12.110   5.164
34469SOL    HW2 5305   8.894  12.196   5.169
34470SOL     OW 5306   7.332  10.736   3.370
34470SOL    HW1 5307   7.374  10.676   3.432
34470SOL    HW2 5308   7.250  10.761   3.412
34471SOL     OW 5309  11.417  11.396   5.539
34471SOL    HW1 5310  11.463  11.461   5.485
34471SOL    HW2 5311  11.328  11.394   5.503
34472SOL     OW 5312   4.252   0.465   7.902
34472SOL    HW1 5313   4.182   0.401   7.893
34472SOL    HW2 5314   4.318   0.422   7.957
34473SOL     OW 5315   4.108  13.774   4.927
34473SOL    HW1 5316   4.111  13.853   4.980
34473SOL    HW2 5317   4.016  13.745   4.932
34474SOL     OW 5318  12.952   6.377  13.897
34474SOL    HW1 5319  13.021   6.442  13.902
34474SOL    HW2 5320  12.902   6.388  13.978
34475SOL     OW 5321  11.860   9.889   2.111
34475SOL    HW1 5322  11.780   9.919   2.069
34475SOL    HW2 5323  11.920   9.964   2.106
34476SOL     OW 5324  12.835  12.651   7.780
34476SOL    HW1 5325  12.807  12.734   7.742
34476SOL    HW2 5326  12.930  12.661   7.791
34477SOL     OW 5327  11.973   5.336   1.401
34477SOL    HW1 5328  11.997   5.298   1.486
34477SOL    HW2 5329  12.054   5.374   1.368
34478SOL     OW 5330   3.549   6.454   2.326
34478SOL    HW1 5331   3.575   6.367   2.357
34478SOL    HW2 5332   3.494   6.489   2.396
34479SOL     OW 5333  12.619  14.768   3.496
34479SOL    HW1 5334  12.581  14.747   3.411
34479SOL    HW2 5335  12.652  14.858   3.486
34480SOL     OW 5336  11.824  12.248  11.385
34480SOL    HW1 5337  11.866  12.322  11.428
34480SOL    HW2 5338  11.897  12.192  11.357
34481SOL     OW 5339  12.403  13.509   4.688
34481SOL    HW1 5340  12.388  13.465   4.604
34481SOL    HW2 5341  12.471  13.574   4.668
34482SOL     OW 5342   2.022   7.828   2.545
34482SOL    HW1 5343   2.032   7.879   2.465
34482SOL    HW2 5344   2.003   7.893   2.613
34483SOL     OW 5345   3.863  10.289   8.738
34483SOL    HW1 5346   3.844  10.196   8.751
34483SOL    HW2 5347   3.867  10.299   8.643
34484SOL     OW 5348   6.296   3.930   0.441
34484SOL    HW1 5349   6.340   3.965   0.364
34484SOL    HW2 5350   6.363   3.929   0.509
34485SOL     OW 5351   0.743   0.259  10.292
34485SOL    HW1 5352   0.789   0.295  10.217
34485SOL    HW2 5353   0.755   0.164  10.284
34486SOL     OW 5354  11.323  11.244   1.896
34486SOL    HW1 5355  11.327  11.233   1.801
34486SOL    HW2 5356  11.248  11.191   1.924
34487SOL     OW 5357   0.778   4.513   6.464
34487SOL    HW1 5358   0.853   4.485   6.515
34487SOL    HW2 5359   0.711   4.536   6.529
34488SOL     OW 5360   9.681  12.217   1.990
34488SOL    HW1 5361   9.644  12.274   1.923
34488SOL    HW2 5362   9.727  12.148   1.941
34489SOL     OW 5363  14.262   5.336  11.956
34489SOL    HW1 5364  14.198   5.401  11.927
34489SOL    HW2 5365  14.347   5.378  11.941
34490SOL     OW 5366  12.181  12.353   4.819
34490SOL    HW1 5367  12.258  12.298   4.827
34490SOL    HW2 5368  12.115  12.297   4.778
34491SOL     OW 5369  10.605   0.189  11.412
34491SOL    HW1 5370  10.574   0.128  11.345
34491SOL    HW2 5371  10.527   0.209  11.463
34492SOL     OW 5372  13.512   2.669   4.503
34492SOL    HW1 5373  13.496   2.605   4.573
34492SOL    HW2 5374  13.599   2.704   4.522
34493SOL     OW 5375   6.508  14.677  11.469
34493SOL    HW1 5376   6.573  14.628  11.521
34493SOL    HW2 5377   6.512  14.637  11.382
34494SOL     OW 5378  11.289  12.971  11.001
34494SOL    HW1 5379  11.349  12.987  10.928
34494SOL    HW2 5380  11.277  12.876  11.002
34495SOL     OW 5381  10.274   2.445  13.781
34495SOL    HW1 5382  10.289   2.468  13.872
34495SOL    HW2 5383  10.189   2.483  13.760
34496SOL     OW 5384   4.646   0.580   4.186
34496SOL    HW1 5385   4.639   0.568   4.092
34496SOL    HW2 5386   4.730   0.539   4.209
34497SOL     OW 5387  11.066  14.271  11.771
34497SOL    HW1 5388  11.095  14.348  11.821
34497SOL    HW2 5389  11.146  14.236  11.732
34498SOL     OW 5390   0.846   8.236   5.355
34498SOL    HW1 5391   0.828   8.185   5.276
34498SOL    HW2 5392   0.871   8.323   5.323
34499SOL     OW 5393  11.882  11.595   5.155
34499SOL    HW1 5394  11.856  11.677   5.114
34499SOL    HW2 5395  11.977  11.601   5.165
34500SOL     OW 5396   1.723  12.603   8.688
34500SOL    HW1 5397   1.731  12.521   8.640
34500SOL    HW2 5398   1.778  12.665   8.639
34501SOL     OW 5399  12.255  11.921   4.739
34501SOL    HW1 5400  12.286  11.832   4.754
34501SOL    HW2 5401  12.324  11.962   4.686
34502SOL     OW 5402   1.153  12.426   2.079
34502SOL    HW1 5403   1.103  12.422   1.998
34502SOL    HW2 5404   1.211  12.501   2.067
34503SOL     OW 5405   5.184   7.932   0.327
34503SOL    HW1 5406   5.176   7.850   0.376
34503SOL    HW2 5407   5.251   7.914   0.261
34504SOL     OW 5408   8.486  12.381   4.806
34504SOL    HW1 5409   8.479  12.303   4.752
34504SOL    HW2 5410   8.568  12.422   4.778
34505SOL     OW 5411  11.117  12.550   6.943
34505SOL    HW1 5412  11.035  12.584   6.907
34505SOL    HW2 5413  11.108  12.559   7.038
34506SOL     OW 5414  10.253   7.299   1.243
34506SOL    HW1 5415  10.337   7.308   1.288
34506SOL    HW2 5416  10.267   7.343   1.158
34507SOL     OW 5417  11.149  10.820   2.272
34507SOL    HW1 5418  11.132  10.749   2.209
34507SOL    HW2 5419  11.076  10.880   2.261
34508SOL     OW 5420   2.582  11.625   9.663
34508SOL    HW1 5421   2.511  11.628   9.599
34508SOL    HW2 5422   2.538  11.632   9.748
34509SOL     OW 5423  13.527  11.245   3.733
34509SOL    HW1 5424  13.476  11.326   3.736
34509SOL    HW2 5425  13.461  11.175   3.734
34510SOL     OW 5426  10.811   3.486  12.078
34510SOL    HW1 5427  10.806   3.472  12.172
34510SOL    HW2 5428  10.725   3.519  12.054
34511SOL     OW 5429   5.485   9.782   8.391
34511SOL    HW1 5430   5.572   9.819   8.404
34511SOL    HW2 5431   5.471   9.726   8.467
34512SOL     OW 5432   8.480   2.348   3.178
34512SOL    HW1 5433   8.574   2.331   3.167
34512SOL    HW2 5434   8.444   2.342   3.090
34513SOL     OW 5435   0.060   9.805  12.262
34513SOL    HW1 5436  14.855   9.791  12.220
34513SOL    HW2 5437   0.040   9.817  12.354
34514SOL     OW 5438  14.026  11.592   5.156
34514SOL    HW1 5439  14.024  11.497   5.139
34514SOL    HW2 5440  13.950  11.607   5.212
34515SOL     OW 5441   5.769   6.840  11.720
34515SOL    HW1 5442   5.737   6.752  11.740
34515SOL    HW2 5443   5.799   6.835  11.629
34516SOL     OW 5444  13.239  11.201   0.307
34516SOL    HW1 5445  13.230  11.296   0.295
34516SOL    HW2 5446  13.212  11.187   0.398
34517SOL     OW 5447  10.413   1.186   1.215
34517SOL    HW1 5448  10.346   1.118   1.208
34517SOL    HW2 5449  10.385   1.254   1.154
34518SOL     OW 5450   3.688  12.228   2.566
34518SOL    HW1 5451   3.638  12.155   2.602
34518SOL    HW2 5452   3.778  12.195   2.561
34519SOL     OW 5453  14.809   6.900   8.837
34519SOL    HW1 5454   0.013   6.918   8.794
34519SOL    HW2 5455  14.806   6.960   8.911
34520SOL     OW 5456   9.705   8.990   3.121
34520SOL    HW1 5457   9.612   8.988   3.141
34520SOL    HW2 5458   9.747   8.960   3.202
34521SOL     OW 5459  12.967  12.605  13.891
34521SOL    HW1 5460  13.031  12.675  13.906
34521SOL    HW2 5461  12.966  12.556  13.973
34522SOL     OW 5462  14.727   2.593   5.456
34522SOL    HW1 5463  14.756   2.655   5.523
34522SOL    HW2 5464  14.684   2.523   5.505
34523SOL     OW 5465   5.277   5.231   9.024
34523SOL    HW1 5466   5.341   5.271   8.965
34523SOL    HW2 5467   5.268   5.294   9.095
34524SOL     OW 5468  13.380  11.837   6.213
34524SOL    HW1 5469  13.404  11.930   6.211
34524SOL    HW2 5470  13.450  11.795   6.262
34525SOL     OW 5471  11.967   2.234   2.937
34525SOL    HW1 5472  12.056   2.262   2.956
34525SOL    HW2 5473  11.959   2.239   2.842
34526SOL     OW 5474   0.968   2.008  10.269
34526SOL    HW1 5475   1.019   2.017  10.350
34526SOL    HW2 5476   1.022   2.050  10.202
34527SOL     OW 5477  10.623   6.056  11.362
34527SOL    HW1 5478  10.546   6.043  11.418
34527SOL    HW2 5479  10.696   6.019  11.412
34528SOL     OW 5480  12.089   1.694   9.431
34528SOL    HW1 5481  12.181   1.717   9.443
34528SOL    HW2 5482  12.049   1.707   9.518
34529SOL     OW 5483   9.042   9.290   1.709
34529SOL    HW1 5484   9.102   9.359   1.738
34529SOL    HW2 5485   9.058   9.281   1.615
34530SOL     OW 5486  11.771  10.906   4.443
34530SOL    HW1 5487  11.701  10.971   4.437
34530SOL    HW2 5488  11.831  10.928   4.372
34531SOL     OW 5489  11.999   4.826  13.822
34531SOL    HW1 5490  12.038   4.827  13.734
34531SOL    HW2 5491  12.041   4.753  13.867
34532SOL     OW 5492  14.542   4.481  14.601
34532SOL    HW1 5493  14.500   4.406  14.643
34532SOL    HW2 5494  14.505   4.483  14.513
34533SOL     OW 5495  11.668   2.068  12.996
34533SOL    HW1 5496  11.712   2.042  12.915
34533SOL    HW2 5497  11.597   2.125  12.967
34534SOL     OW 5498  14.585  11.372   3.178
34534SOL    HW1 5499  14.645  11.302   3.153
34534SOL    HW2 5500  14.586  11.370   3.274
34535SOL     OW 5501  12.768   9.001   6.414
34535SOL    HW1 5502  12.745   9.003   6.507
34535SOL    HW2 5503  12.864   9.003   6.413
34536SOL     OW 5504   2.811  13.214  12.801
34536SOL    HW1 5505   2.856  13.156  12.740
34536SOL    HW2 5506   2.808  13.299  12.756
34537SOL     OW 5507   1.929   8.435  10.650
34537SOL    HW1 5508   1.854   8.493  10.643
34537SOL    HW2 5509   1.996   8.486  10.696
34538SOL     OW 5510  14.169  12.808   6.788
34538SOL    HW1 5511  14.152  12.796   6.695
34538SOL    HW2 5512  14.099  12.759   6.832
34539SOL     OW 5513  11.794   5.199   6.040
34539SOL    HW1 5514  11.819   5.107   6.049
34539SOL    HW2 5515  11.705   5.196   6.005
34540SOL     OW 5516   7.811   6.607   6.976
34540SOL    HW1 5517   7.762   6.667   6.919
34540SOL    HW2 5518   7.751   6.589   7.049
34541SOL     OW 5519   0.207   6.243   0.608
34541SOL    HW1 5520   0.145   6.269   0.540
34541SOL    HW2 5521   0.182   6.294   0.685
34542SOL     OW 5522  10.559   1.379  10.801
34542SOL    HW1 5523  10.644   1.386  10.843
34542SOL    HW2 5524  10.536   1.469  10.778
34543SOL     OW 5525  12.781   1.064   8.451
34543SOL    HW1 5526  12.790   1.109   8.535
34543SOL    HW2 5527  12.690   1.081   8.425
34544SOL     OW 5528  13.877   3.635   2.313
34544SOL    HW1 5529  13.841   3.549   2.336
34544SOL    HW2 5530  13.811   3.673   2.255
34545SOL     OW 5531   5.731   0.017   2.631
34545SOL    HW1 5532   5.754  14.839   2.559
34545SOL    HW2 5533   5.806   0.076   2.639
34546SOL     OW 5534  14.563  12.519  13.983
34546SOL    HW1 5535  14.518  12.435  13.995
34546SOL    HW2 5536  14.583  12.548  14.072
34547SOL     OW 5537  14.727  12.039  10.490
34547SOL    HW1 5538  14.728  12.054  10.585
34547SOL    HW2 5539  14.642  11.998  10.474
34548SOL     OW 5540   8.548   3.265  11.508
34548SOL    HW1 5541   8.579   3.245  11.420
34548SOL    HW2 5542   8.460   3.301  11.494
34549SOL     OW 5543  14.871   3.235   0.446
34549SOL    HW1 5544  14.837   3.169   0.507
34549SOL    HW2 5545   0.018   3.308   0.503
34550SOL     OW 5546   1.751   4.638  12.288
34550SOL    HW1 5547   1.821   4.579  12.315
34550SOL    HW2 5548   1.790   4.691  12.218
34551SOL     OW 5549   1.450   7.771   1.382
34551SOL    HW1 5550   1.488   7.851   1.419
34551SOL    HW2 5551   1.357   7.777   1.404
34552SOL     OW 5552   4.187  11.626   7.827
34552SOL    HW1 5553   4.221  11.705   7.869
34552SOL    HW2 5554   4.113  11.600   7.882
34553SOL     OW 5555  12.491  10.882   3.245
34553SOL    HW1 5556  12.575  10.841   3.263
34553SOL    HW2 5557  12.511  10.975   3.237
34554SOL     OW 5558   6.771  11.708   5.135
34554SOL    HW1 5559   6.729  11.792   5.117
34554SOL    HW2 5560   6.863  11.730   5.152
34555SOL     OW 5561   2.564  11.612   7.888
34555SOL    HW1 5562   2.627  11.606   7.959
34555SOL    HW2 5563   2.566  11.703   7.860
34556SOL     OW 5564   3.712   3.093  13.108
34556SOL    HW1 5565   3.806   3.111  13.104
34556SOL    HW2 5566   3.677   3.163  13.164
34557SOL     OW 5567   6.163   1.708   4.185
34557SOL    HW1 5568   6.104   1.741   4.253
34557SOL    HW2 5569   6.217   1.784   4.162
34558SOL     OW 5570   1.367   8.421   4.209
34558SOL    HW1 5571   1.449   8.401   4.255
34558SOL    HW2 5572   1.394   8.475   4.134
34559SOL     OW 5573  13.834  12.335   8.515
34559SOL    HW1 5574  13.796  12.255   8.479
34559SOL    HW2 5575  13.809  12.334   8.608
34560SOL     OW 5576  14.363   1.694   3.911
34560SOL    HW1 5577  14.414   1.762   3.866
34560SOL    HW2 5578  14.418   1.667   3.984
34561SOL     OW 5579  11.624   4.632   3.170
34561SOL    HW1 5580  11.548   4.578   3.192
34561SOL    HW2 5581  11.599   4.721   3.195
34562SOL     OW 5582  10.954   3.365   3.521
34562SOL    HW1 5583  10.927   3.337   3.608
34562SOL    HW2 5584  11.023   3.430   3.536
34563SOL     OW 5585  13.453  14.626   0.349
34563SOL    HW1 5586  13.375  14.671   0.381
34563SOL    HW2 5587  13.428  14.595   0.261
34564SOL     OW 5588   8.413  12.562   2.219
34564SOL    HW1 5589   8.398  12.656   2.208
34564SOL    HW2 5590   8.328  12.522   2.204
34565SOL     OW 5591   5.398   8.015   2.722
34565SOL    HW1 5592   5.331   7.955   2.687
34565SOL    HW2 5593   5.354   8.099   2.729
34566SOL     OW 5594  12.574   3.666   6.794
34566SOL    HW1 5595  12.619   3.683   6.876
34566SOL    HW2 5596  12.526   3.747   6.776
34567SOL     OW 5597  13.213  14.176   3.188
34567SOL    HW1 5598  13.285  14.165   3.250
34567SOL    HW2 5599  13.147  14.225   3.237
34568SOL     OW 5600   3.314   6.498   4.860
34568SOL    HW1 5601   3.297   6.404   4.854
34568SOL    HW2 5602   3.363   6.508   4.942
34569SOL     OW 5603  13.999  10.573  10.197
34569SOL    HW1 5604  14.005  10.629  10.119
34569SOL    HW2 5605  14.009  10.633  10.271
34570SOL     OW 5606   7.012   5.238   4.780
34570SOL    HW1 5607   6.993   5.154   4.820
34570SOL    HW2 5608   6.981   5.230   4.690
34571SOL     OW 5609   3.880   1.783  12.067
34571SOL    HW1 5610   3.971   1.755  12.077
34571SOL    HW2 5611   3.885   1.865  12.018
34572SOL     OW 5612   4.364   1.902   6.012
34572SOL    HW1 5613   4.299   1.891   5.943
34572SOL    HW2 5614   4.428   1.832   5.997
34573SOL     OW 5615  12.130   0.862   1.804
34573SOL    HW1 5616  12.071   0.930   1.836
34573SOL    HW2 5617  12.216   0.904   1.802
34574SOL     OW 5618   8.685   4.336   0.705
34574SOL    HW1 5619   8.652   4.252   0.737
34574SOL    HW2 5620   8.611   4.396   0.712
34575SOL     OW 5621   7.130  10.958   4.281
34575SOL    HW1 5622   7.190  10.904   4.333
34575SOL    HW2 5623   7.051  10.905   4.272
34576SOL     OW 5624   7.738  12.111  12.437
34576SOL    HW1 5625   7.652  12.109  12.395
34576SOL    HW2 5626   7.722  12.080  12.526
34577SOL     OW 5627   6.533   7.027   1.386
34577SOL    HW1 5628   6.530   7.031   1.481
34577SOL    HW2 5629   6.625   7.042   1.363
34578SOL     OW 5630  13.062   7.552   4.813
34578SOL    HW1 5631  12.979   7.543   4.765
34578SOL    HW2 5632  13.129   7.553   4.744
34579SOL     OW 5633   9.872   0.909  12.669
34579SOL    HW1 5634   9.944   0.846  12.665
34579SOL    HW2 5635   9.808   0.876  12.606
34580SOL     OW 5636   0.142   2.387   6.757
34580SOL    HW1 5637   0.164   2.388   6.664
34580SOL    HW2 5638   0.046   2.380   6.759
34581SOL     OW 5639   1.006   7.134   6.115
34581SOL    HW1 5640   1.055   7.123   6.196
34581SOL    HW2 5641   0.921   7.167   6.143
34582SOL     OW 5642   2.131   9.050   3.241
34582SOL    HW1 5643   2.179   8.967   3.242
34582SOL    HW2 5644   2.129   9.079   3.332
34583SOL     OW 5645  13.541   2.739   9.331
34583SOL    HW1 5646  13.619   2.755   9.383
34583SOL    HW2 5647  13.495   2.669   9.376
34584SOL     OW 5648  10.833   3.127   8.891
34584SOL    HW1 5649  10.805   3.218   8.901
34584SOL    HW2 5650  10.924   3.127   8.921
34585SOL     OW 5651  12.554   6.517   9.253
34585SOL    HW1 5652  12.650   6.517   9.259
34585SOL    HW2 5653  12.525   6.477   9.335
34586SOL     OW 5654  10.609  11.699   1.996
34586SOL    HW1 5655  10.642  11.697   1.906
34586SOL    HW2 5656  10.688  11.708   2.050
34587SOL     OW 5657   2.717  11.907   9.727
34587SOL    HW1 5658   2.632  11.950   9.727
34587SOL    HW2 5659   2.697  11.814   9.716
34588SOL     OW 5660   5.786   7.399  10.172
34588SOL    HW1 5661   5.857   7.361  10.224
34588SOL    HW2 5662   5.708   7.351  10.199
34589SOL     OW 5663  14.735   3.660   4.319
34589SOL    HW1 5664  14.829   3.656   4.300
34589SOL    HW2 5665  14.729   3.646   4.414
34590SOL     OW 5666   8.882  13.912   8.427
34590SOL    HW1 5667   8.905  13.821   8.409
34590SOL    HW2 5668   8.863  13.914   8.521
34591SOL     OW 5669   5.847  12.075   1.849
34591SOL    HW1 5670   5.895  12.002   1.887
34591SOL    HW2 5671   5.902  12.151   1.866
34592SOL     OW 5672   6.445   9.733   9.257
34592SOL    HW1 5673   6.518   9.794   9.264
34592SOL    HW2 5674   6.464   9.665   9.321
34593SOL     OW 5675   7.901   4.538  14.851
34593SOL    HW1 5676   7.894   4.495   0.055
34593SOL    HW2 5677   7.856   4.621  14.862
34594SOL     OW 5678   1.019   5.902   5.053
34594SOL    HW1 5679   0.932   5.887   5.016
34594SOL    HW2 5680   1.058   5.969   4.997
34595SOL     OW 5681   0.700  11.329   9.439
34595SOL    HW1 5682   0.661  11.242   9.434
34595SOL    HW2 5683   0.671  11.364   9.523
34596SOL     OW 5684   4.387   8.124   6.376
34596SOL    HW1 5685   4.448   8.058   6.410
34596SOL    HW2 5686   4.381   8.105   6.282
34597SOL     OW 5687   7.548   4.069  11.705
34597SOL    HW1 5688   7.640   4.063  11.677
34597SOL    HW2 5689   7.551   4.057  11.800
34598SOL     OW 5690   5.223  10.277   7.448
34598SOL    HW1 5691   5.309  10.261   7.409
34598SOL    HW2 5692   5.238  10.346   7.513
34599SOL     OW 5693   4.953   1.012  10.331
34599SOL    HW1 5694   4.972   1.099  10.365
34599SOL    HW2 5695   4.919   1.028  10.243
34600SOL     OW 5696   7.995   7.693  10.731
34600SOL    HW1 5697   8.089   7.686  10.714
34600SOL    HW2 5698   7.953   7.661  10.651
34601SOL     OW 5699   0.890   7.764  12.063
34601SOL    HW1 5700   0.920   7.854  12.079
34601SOL    HW2 5701   0.876   7.760  11.969
34602SOL     OW 5702   8.233   9.267  11.999
34602SOL    HW1 5703   8.327   9.288  11.996
34602SOL    HW2 5704   8.201   9.292  11.912
34603SOL     OW 5705  11.888   2.202  12.134
34603SOL    HW1 5706  11.933   2.218  12.051
34603SOL    HW2 5707  11.891   2.107  12.145
34604SOL     OW 5708   3.470  11.853   7.194
34604SOL    HW1 5709   3.534  11.801   7.146
34604SOL    HW2 5710   3.415  11.893   7.127
34605SOL     OW 5711  14.556   2.811   0.006
34605SOL    HW1 5712  14.493   2.789  14.818
34605SOL    HW2 5713  14.617   2.737   0.006
34606SOL     OW 5714  10.006  13.864  10.575
34606SOL    HW1 5715  10.090  13.855  10.529
34606SOL    HW2 5716   9.970  13.947  10.544
34607SOL     OW 5717  11.511  12.581  13.173
34607SOL    HW1 5718  11.476  12.634  13.102
34607SOL    HW2 5719  11.490  12.491  13.147
34608SOL     OW 5720   1.739   2.476   7.883
34608SOL    HW1 5721   1.795   2.514   7.816
34608SOL    HW2 5722   1.788   2.402   7.918
34609SOL     OW 5723  11.467  12.195  10.407
34609SOL    HW1 5724  11.376  12.187  10.376
34609SOL    HW2 5725  11.519  12.194  10.326
34610SOL     OW 5726   8.173  10.122   5.537
34610SOL    HW1 5727   8.180  10.199   5.480
34610SOL    HW2 5728   8.086  10.087   5.519
34611SOL     OW 5729   6.626   3.381   4.275
34611SOL    HW1 5730   6.677   3.394   4.354
34611SOL    HW2 5731   6.587   3.295   4.285
34612SOL     OW 5732   5.562  10.890   4.282
34612SOL    HW1 5733   5.591  10.875   4.372
34612SOL    HW2 5734   5.517  10.975   4.286
34613SOL     OW 5735   1.580   7.590   4.066
34613SOL    HW1 5736   1.554   7.606   4.157
34613SOL    HW2 5737   1.670   7.560   4.071
34614SOL     OW 5738  12.322   1.695  10.401
34614SOL    HW1 5739  12.367   1.680  10.318
34614SOL    HW2 5740  12.365   1.638  10.463
34615SOL     OW 5741   6.972   4.007   4.742
34615SOL    HW1 5742   6.962   4.025   4.836
34615SOL    HW2 5743   6.882   3.998   4.710
34616SOL     OW 5744   1.529  14.732  12.358
34616SOL    HW1 5745   1.470  14.734  12.433
34616SOL    HW2 5746   1.604  14.681  12.387
34617SOL     OW 5747   0.151   5.541   2.260
34617SOL    HW1 5748   0.167   5.526   2.167
34617SOL    HW2 5749   0.056   5.549   2.267
34618SOL     OW 5750   2.251  11.935   3.913
34618SOL    HW1 5751   2.273  11.945   3.821
34618SOL    HW2 5752   2.292  11.852   3.939
34619SOL     OW 5753  12.923  12.164   7.134
34619SOL    HW1 5754  12.866  12.190   7.207
34619SOL    HW2 5755  13.006  12.209   7.152
34620SOL     OW 5756  11.840  14.838   9.079
34620SOL    HW1 5757  11.909   0.023   9.070
34620SOL    HW2 5758  11.886  14.756   9.095
34621SOL     OW 5759   6.891  10.313  12.253
34621SOL    HW1 5760   6.868  10.244  12.190
34621SOL    HW2 5761   6.807  10.350  12.279
34622SOL     OW 5762   3.050   6.995   4.320
34622SOL    HW1 5763   3.073   6.933   4.390
34622SOL    HW2 5764   2.959   6.975   4.299
34623SOL     OW 5765   4.768  10.533   5.977
34623SOL    HW1 5766   4.841  10.595   5.986
34623SOL    HW2 5767   4.702  10.582   5.928
34624SOL     OW 5768   1.059   5.718   0.212
34624SOL    HW1 5769   1.091   5.659   0.144
34624SOL    HW2 5770   0.970   5.740   0.184
34625SOL     OW 5771  10.228   4.617   6.773
34625SOL    HW1 5772  10.138   4.586   6.770
34625SOL    HW2 5773  10.226   4.690   6.835
34626SOL     OW 5774  10.598  10.464   8.188
34626SOL    HW1 5775  10.603  10.369   8.176
34626SOL    HW2 5776  10.639  10.500   8.110
34627SOL     OW 5777   1.113  12.844   2.050
34627SOL    HW1 5778   1.088  12.844   2.142
34627SOL    HW2 5779   1.158  12.928   2.038
34628SOL     OW 5780   8.472   5.853   6.718
34628SOL    HW1 5781   8.532   5.849   6.643
34628SOL    HW2 5782   8.474   5.945   6.745
34629SOL     OW 5783   5.750  14.842   7.698
34629SOL    HW1 5784   5.701  14.862   7.618
34629SOL    HW2 5785   5.832  14.805   7.667
34630SOL     OW 5786   4.751   7.212  10.320
34630SOL    HW1 5787   4.806   7.277  10.277
34630SOL    HW2 5788   4.736   7.145  10.253
34631SOL     OW 5789  13.645  13.376   9.969
34631SOL    HW1 5790  13.622  13.283   9.971
34631SOL    HW2 5791  13.625  13.407  10.057
34632SOL     OW 5792  12.401  12.585   3.953
34632SOL    HW1 5793  12.420  12.537   3.872
34632SOL    HW2 5794  12.414  12.521   4.023
34633SOL     OW 5795   3.021   9.206   1.513
34633SOL    HW1 5796   3.049   9.282   1.564
34633SOL    HW2 5797   2.926   9.204   1.523
34634SOL     OW 5798  10.359   5.014   5.400
34634SOL    HW1 5799  10.371   5.051   5.487
34634SOL    HW2 5800  10.314   5.083   5.351
34635SOL     OW 5801   2.725   5.908   2.017
34635SOL    HW1 5802   2.721   5.838   1.951
34635SOL    HW2 5803   2.818   5.914   2.039
34636SOL     OW 5804   7.725  12.911   3.525
34636SOL    HW1 5805   7.782  12.953   3.590
34636SOL    HW2 5806   7.765  12.825   3.510
34637SOL     OW 5807   4.349  12.952   7.968
34637SOL    HW1 5808   4.273  12.898   7.986
34637SOL    HW2 5809   4.366  12.940   7.875
34638SOL     OW 5810  10.193   9.958   4.316
34638SOL    HW1 5811  10.161   9.991   4.400
34638SOL    HW2 5812  10.119   9.909   4.281
34639SOL     OW 5813   6.951   1.292  12.206
34639SOL    HW1 5814   7.009   1.217  12.211
34639SOL    HW2 5815   6.988   1.356  12.267
34640SOL     OW 5816  14.546  12.341   4.680
34640SOL    HW1 5817  14.478  12.331   4.746
34640SOL    HW2 5818  14.627  12.322   4.726
34641SOL     OW 5819  12.378  14.433   6.767
34641SOL    HW1 5820  12.445  14.497   6.743
34641SOL    HW2 5821  12.368  14.444   6.861
34642SOL     OW 5822   6.717  10.147   0.462
34642SOL    HW1 5823   6.713  10.179   0.552
34642SOL    HW2 5824   6.707  10.052   0.470
34643SOL     OW 5825   8.965   5.341  13.191
34643SOL    HW1 5826   9.038   5.363  13.248
34643SOL    HW2 5827   8.889   5.336  13.250
34644SOL     OW 5828   0.577  14.404   8.047
34644SOL    HW1 5829   0.582  14.310   8.063
34644SOL    HW2 5830   0.666  14.436   8.065
34645SOL     OW 5831  12.941   3.931   2.812
34645SOL    HW1 5832  13.028   3.962   2.787
34645SOL    HW2 5833  12.904   3.896   2.731
34646SOL     OW 5834   8.939   7.010   6.141
34646SOL    HW1 5835   8.965   7.012   6.233
34646SOL    HW2 5836   9.016   6.978   6.095
34647SOL     OW 5837   0.532   0.887   3.794
34647SOL    HW1 5838   0.592   0.960   3.812
34647SOL    HW2 5839   0.573   0.839   3.722
34648SOL     OW 5840  10.253   2.242  13.290
34648SOL    HW1 5841  10.244   2.336  13.272
34648SOL    HW2 5842  10.327   2.215  13.236
34649SOL     OW 5843  11.286   2.044   8.959
34649SOL    HW1 5844  11.265   2.057   8.867
34649SOL    HW2 5845  11.296   1.949   8.968
34650SOL     OW 5846   0.394   7.156  11.449
34650SOL    HW1 5847   0.306   7.137  11.415
34650SOL    HW2 5848   0.432   7.215  11.384
34651SOL     OW 5849   5.218  13.025   7.577
34651SOL    HW1 5850   5.258  13.113   7.572
34651SOL    HW2 5851   5.282  12.968   7.533
34652SOL     OW 5852   3.953   9.274   5.494
34652SOL    HW1 5853   3.984   9.359   5.525
34652SOL    HW2 5854   3.990   9.266   5.406
34653SOL     OW 5855   8.594   6.362   3.316
34653SOL    HW1 5856   8.510   6.398   3.287
34653SOL    HW2 5857   8.572   6.306   3.390
34654SOL     OW 5858   8.748  11.702  14.854
34654SOL    HW1 5859   8.670  11.662   0.013
34654SOL    HW2 5860   8.769  11.776   0.031
34655SOL     OW 5861   7.385  13.697   7.327
34655SOL    HW1 5862   7.293  13.685   7.302
34655SOL    HW2 5863   7.386  13.678   7.421
34656SOL     OW 5864   6.594   7.660   5.695
34656SOL    HW1 5865   6.546   7.579   5.712
34656SOL    HW2 5866   6.549   7.699   5.620
34657SOL     OW 5867   9.870  13.893   4.848
34657SOL    HW1 5868   9.837  13.823   4.904
34657SOL    HW2 5869   9.819  13.970   4.873
34658SOL     OW 5870  10.657   8.297   6.110
34658SOL    HW1 5871  10.673   8.213   6.066
34658SOL    HW2 5872  10.565   8.316   6.091
34659SOL     OW 5873  13.932   4.194  10.269
34659SOL    HW1 5874  13.866   4.253  10.306
34659SOL    HW2 5875  14.015   4.234  10.293
34660SOL     OW 5876  10.036  13.853   4.055
34660SOL    HW1 5877  10.029  13.765   4.018
34660SOL    HW2 5878  10.127  13.860   4.085
34661SOL     OW 5879   1.356   5.927  10.190
34661SOL    HW1 5880   1.357   5.999  10.253
34661SOL    HW2 5881   1.264   5.900  10.186
34662SOL     OW 5882   8.369  14.411   2.431
34662SOL    HW1 5883   8.437  14.344   2.440
34662SOL    HW2 5884   8.333  14.421   2.519
34663SOL     OW 5885  14.156   8.469  14.220
34663SOL    HW1 5886  14.076   8.434  14.262
34663SOL    HW2 5887  14.138   8.462  14.126
34664SOL     OW 5888   0.853  14.062  10.467
34664SOL    HW1 5889   0.943  14.068  10.501
34664SOL    HW2 5890   0.838  14.146  10.424
34665SOL     OW 5891   9.900  10.793  12.165
34665SOL    HW1 5892   9.963  10.723  12.149
34665SOL    HW2 5893   9.954  10.869  12.186
34666SOL     OW 5894  11.553  11.251  14.543
34666SOL    HW1 5895  11.571  11.312  14.615
34666SOL    HW2 5896  11.508  11.304  14.478
34667SOL     OW 5897  14.780   0.884   3.608
34667SOL    HW1 5898  14.874   0.898   3.593
34667SOL    HW2 5899  14.777   0.807   3.666
34668SOL     OW 5900   3.158   7.806   0.753
34668SOL    HW1 5901   3.113   7.729   0.720
34668SOL    HW2 5902   3.248   7.778   0.765
34669SOL     OW 5903   6.290  12.092  10.111
34669SOL    HW1 5904   6.385  12.099  10.105
34669SOL    HW2 5905   6.264  12.164  10.168
34670SOL     OW 5906   9.859  12.373   2.104
34670SOL    HW1 5907   9.814  12.313   2.044
34670SOL    HW2 5908   9.797  12.385   2.176
34671SOL     OW 5909  10.109  11.359   8.197
34671SOL    HW1 5910  10.168  11.295   8.156
34671SOL    HW2 5911  10.129  11.441   8.152
34672SOL     OW 5912  14.813  11.115   5.028
34672SOL    HW1 5913  14.771  11.071   5.101
34672SOL    HW2 5914  14.790  11.208   5.039
34673SOL     OW 5915   9.589   8.363   4.986
34673SOL    HW1 5916   9.525   8.310   5.033
34673SOL    HW2 5917   9.647   8.397   5.054
34674SOL     OW 5918   6.510   6.164   5.508
34674SOL    HW1 5919   6.529   6.252   5.477
34674SOL    HW2 5920   6.526   6.167   5.602
34675SOL     OW 5921   3.734   4.498   9.566
34675SOL    HW1 5922   3.687   4.493   9.482
34675SOL    HW2 5923   3.819   4.537   9.543
34676SOL     OW 5924   8.928   9.790   6.531
34676SOL    HW1 5925   8.984   9.846   6.478
34676SOL    HW2 5926   8.839   9.820   6.511
34677SOL     OW 5927   7.014   6.723   2.672
34677SOL    HW1 5928   6.956   6.648   2.655
34677SOL    HW2 5929   7.042   6.752   2.586
34678SOL     OW 5930  13.099   4.721   8.841
34678SOL    HW1 5931  13.057   4.693   8.759
34678SOL    HW2 5932  13.181   4.672   8.843
34679SOL     OW 5933   7.860   7.033  12.841
34679SOL    HW1 5934   7.806   7.077  12.907
34679SOL    HW2 5935   7.913   6.971  12.892
34680SOL     OW 5936   1.122   0.646  12.188
34680SOL    HW1 5937   1.172   0.635  12.269
34680SOL    HW2 5938   1.106   0.557  12.158
34681SOL     OW 5939   2.481  11.111   3.053
34681SOL    HW1 5940   2.471  11.132   2.960
34681SOL    HW2 5941   2.482  11.196   3.097
34682SOL     OW 5942   3.142   7.171   3.022
34682SOL    HW1 5943   3.057   7.130   3.038
34682SOL    HW2 5944   3.189   7.163   3.105
34683SOL     OW 5945  11.673  14.625   4.734
34683SOL    HW1 5946  11.728  14.655   4.806
34683SOL    HW2 5947  11.669  14.700   4.674
34684SOL     OW 5948   4.306   0.595  12.349
34684SOL    HW1 5949   4.347   0.557  12.426
34684SOL    HW2 5950   4.264   0.521  12.305
34685SOL     OW 5951   2.725   1.820   2.671
34685SOL    HW1 5952   2.653   1.761   2.651
34685SOL    HW2 5953   2.803   1.773   2.641
34686SOL     OW 5954  10.542  13.267   2.280
34686SOL    HW1 5955  10.592  13.230   2.352
34686SOL    HW2 5956  10.493  13.340   2.319
34687SOL     OW 5957   0.687   7.787   6.062
34687SOL    HW1 5958   0.632   7.775   6.139
34687SOL    HW2 5959   0.776   7.796   6.096
34688SOL     OW 5960   1.165   8.074   6.564
34688SOL    HW1 5961   1.172   8.045   6.655
34688SOL    HW2 5962   1.180   7.994   6.513
34689SOL     OW 5963   9.824  12.524   7.614
34689SOL    HW1 5964   9.918  12.538   7.625
34689SOL    HW2 5965   9.794  12.599   7.563
34690SOL     OW 5966   7.425   1.426   2.418
34690SOL    HW1 5967   7.441   1.347   2.469
34690SOL    HW2 5968   7.489   1.489   2.450
34691SOL     OW 5969  13.451  12.737   4.009
34691SOL    HW1 5970  13.496  12.822   4.006
34691SOL    HW2 5971  13.358  12.759   4.008
34692SOL     OW 5972  10.021  10.824  10.850
34692SOL    HW1 5973  10.057  10.809  10.762
34692SOL    HW2 5974  10.000  10.918  10.850
34693SOL     OW 5975   9.862   2.277   0.848
34693SOL    HW1 5976   9.937   2.297   0.905
34693SOL    HW2 5977   9.877   2.331   0.771
34694SOL     OW 5978  12.670   5.960   7.508
34694SOL    HW1 5979  12.625   5.938   7.590
34694SOL    HW2 5980  12.753   5.912   7.513
34695SOL     OW 5981   8.631  14.627   9.531
34695SOL    HW1 5982   8.721  14.600   9.551
34695SOL    HW2 5983   8.607  14.683   9.605
34696SOL     OW 5984  10.497  14.655  13.556
34696SOL    HW1 5985  10.431  14.623  13.618
34696SOL    HW2 5986  10.472  14.615  13.472
34697SOL     OW 5987   6.882   3.380   0.427
34697SOL    HW1 5988   6.871   3.317   0.356
34697SOL    HW2 5989   6.794   3.413   0.444
34698SOL     OW 5990   0.866  14.251   2.696
34698SOL    HW1 5991   0.823  14.182   2.646
34698SOL    HW2 5992   0.859  14.329   2.640
34699SOL     OW 5993   7.826   3.484   0.478
34699SOL    HW1 5994   7.734   3.472   0.455
34699SOL    HW2 5995   7.844   3.414   0.541
34700SOL     OW 5996   6.630   0.177  14.768
34700SOL    HW1 5997   6.706   0.185  14.710
34700SOL    HW2 5998   6.555   0.194  14.711
34701SOL     OW 5999   8.238   8.537  12.880
34701SOL    HW1 6000   8.298   8.468  12.907
34701SOL    HW2 6001   8.174   8.493  12.824
34702SOL     OW 6002   8.035   9.366  14.402
34702SOL    HW1 6003   8.077   9.299  14.457
34702SOL    HW2 6004   8.107   9.403  14.351
34703SOL     OW 6005  12.520   1.981  14.291
34703SOL    HW1 6006  12.516   2.055  14.353
34703SOL    HW2 6007  12.510   1.904  14.346
34704SOL     OW 6008   3.461   6.290  14.234
34704SOL    HW1 6009   3.442   6.245  14.152
34704SOL    HW2 6010   3.400   6.364  14.236
34705SOL     OW 6011   9.023   1.390  12.912
34705SOL    HW1 6012   8.957   1.406  12.845
34705SOL    HW2 6013   8.997   1.446  12.985
34706SOL     OW 6014   5.459   7.296   7.325
34706SOL    HW1 6015   5.376   7.331   7.357
34706SOL    HW2 6016   5.511   7.373   7.303
34707SOL     OW 6017   7.927   5.306   0.697
34707SOL    HW1 6018   7.849   5.349   0.733
34707SOL    HW2 6019   7.912   5.213   0.714
34708SOL     OW 6020  11.332   0.398  13.287
34708SOL    HW1 6021  11.413   0.385  13.239
34708SOL    HW2 6022  11.359   0.436  13.371
34709SOL     OW 6023  14.030  12.009  10.979
34709SOL    HW1 6024  13.982  12.048  11.052
34709SOL    HW2 6025  14.077  11.935  11.019
34710SOL     OW 6026  13.280   2.579  12.502
34710SOL    HW1 6027  13.315   2.644  12.441
34710SOL    HW2 6028  13.218   2.529  12.450
34711SOL     OW 6029  11.766   5.087  10.199
34711SOL    HW1 6030  11.754   5.083  10.105
34711SOL    HW2 6031  11.732   5.173  10.224
34712SOL     OW 6032   5.888   4.730   2.230
34712SOL    HW1 6033   5.806   4.746   2.277
34712SOL    HW2 6034   5.950   4.707   2.300
34713SOL     OW 6035   0.851   6.730  14.173
34713SOL    HW1 6036   0.798   6.772  14.105
34713SOL    HW2 6037   0.826   6.775  14.254
34714SOL     OW 6038   0.994   9.906   5.550
34714SOL    HW1 6039   0.988   9.870   5.638
34714SOL    HW2 6040   0.904   9.922   5.524
34715SOL     OW 6041  12.354  14.413   6.243
34715SOL    HW1 6042  12.301  14.383   6.169
34715SOL    HW2 6043  12.291  14.429   6.313
34716SOL     OW 6044  13.775   9.968  10.569
34716SOL    HW1 6045  13.729   9.909  10.509
34716SOL    HW2 6046  13.722  10.048  10.570
34717SOL     OW 6047   3.548   1.605   0.642
34717SOL    HW1 6048   3.591   1.520   0.639
34717SOL    HW2 6049   3.620   1.668   0.654
34718SOL     OW 6050  14.119   1.449   4.074
34718SOL    HW1 6051  14.082   1.519   4.128
34718SOL    HW2 6052  14.123   1.487   3.986
34719SOL     OW 6053   5.194   2.904  13.202
34719SOL    HW1 6054   5.157   2.895  13.290
34719SOL    HW2 6055   5.280   2.862  13.208
34720SOL     OW 6056  14.225   1.977   0.557
34720SOL    HW1 6057  14.197   1.888   0.578
34720SOL    HW2 6058  14.196   2.030   0.631
34721SOL     OW 6059  13.805   1.951   3.957
34721SOL    HW1 6060  13.899   1.971   3.949
34721SOL    HW2 6061  13.802   1.857   3.975
34722SOL     OW 6062   2.301  13.874   1.661
34722SOL    HW1 6063   2.355  13.796   1.651
34722SOL    HW2 6064   2.228  13.861   1.601
34723SOL     OW 6065   9.095   9.124   6.856
34723SOL    HW1 6066   9.170   9.150   6.803
34723SOL    HW2 6067   9.122   9.043   6.899
34724SOL     OW 6068   2.515   6.254   2.391
34724SOL    HW1 6069   2.585   6.304   2.432
34724SOL    HW2 6070   2.450   6.320   2.366
34725SOL     OW 6071  12.921   9.081   1.882
34725SOL    HW1 6072  12.927   9.127   1.798
34725SOL    HW2 6073  12.828   9.086   1.905
34726SOL     OW 6074   9.387  13.453   1.154
34726SOL    HW1 6075   9.479  13.456   1.128
34726SOL    HW2 6076   9.389  13.455   1.249
34727SOL     OW 6077  10.421  12.256   4.247
34727SOL    HW1 6078  10.369  12.216   4.177
34727SOL    HW2 6079  10.362  12.318   4.289
34728SOL     OW 6080  13.763   0.153   4.684
34728SOL    HW1 6081  13.846   0.195   4.663
34728SOL    HW2 6082  13.709   0.166   4.606
34729SOL     OW 6083   0.533   2.070   7.455
34729SOL    HW1 6084   0.486   2.122   7.521
34729SOL    HW2 6085   0.494   1.982   7.462
34730SOL     OW 6086   8.492  14.312   4.796
34730SOL    HW1 6087   8.483  14.354   4.881
34730SOL    HW2 6088   8.490  14.218   4.815
34731SOL     OW 6089   0.227   2.677  10.779
34731SOL    HW1 6090   0.234   2.772  10.784
34731SOL    HW2 6091   0.133   2.659  10.777
34732SOL     OW 6092   3.776   9.947  12.234
34732SOL    HW1 6093   3.792  10.018  12.171
34732SOL    HW2 6094   3.683   9.927  12.225
34733SOL     OW 6095  14.365  14.806   0.832
34733SOL    HW1 6096  14.452  14.847   0.830
34733SOL    HW2 6097  14.317  14.848   0.761
34734SOL     OW 6098   2.334   8.890   5.608
34734SOL    HW1 6099   2.250   8.855   5.578
34734SOL    HW2 6100   2.313   8.935   5.690
34735SOL     OW 6101   1.750   1.162   2.763
34735SOL    HW1 6102   1.734   1.256   2.772
34735SOL    HW2 6103   1.663   1.123   2.762
34736SOL     OW 6104   1.583  14.732  13.891
34736SOL    HW1 6105   1.608  14.641  13.903
34736SOL    HW2 6106   1.576  14.743  13.796
34737SOL     OW 6107   8.732  11.368   3.239
34737SOL    HW1 6108   8.799  11.413   3.291
34737SOL    HW2 6109   8.689  11.309   3.301
34738SOL     OW 6110  11.713   5.245   8.406
34738SOL    HW1 6111  11.785   5.204   8.357
34738SOL    HW2 6112  11.748   5.261   8.493
34739SOL     OW 6113  11.318   4.712   8.423
34739SOL    HW1 6114  11.340   4.805   8.431
34739SOL    HW2 6115  11.352   4.672   8.503
34740SOL     OW 6116   7.071   6.563  11.772
34740SOL    HW1 6117   7.096   6.519  11.690
34740SOL    HW2 6118   7.153   6.571  11.821
34741SOL     OW 6119   1.448  11.994   8.108
34741SOL    HW1 6120   1.505  12.048   8.054
34741SOL    HW2 6121   1.416  12.052   8.177
34742SOL     OW 6122   5.270   5.850  13.716
34742SOL    HW1 6123   5.199   5.841  13.779
34742SOL    HW2 6124   5.332   5.909  13.759
34743SOL     OW 6125   7.093  14.681   8.543
34743SOL    HW1 6126   7.088  14.609   8.481
34743SOL    HW2 6127   7.098  14.638   8.629
34744SOL     OW 6128   5.373   4.810   0.968
34744SOL    HW1 6129   5.403   4.878   1.028
34744SOL    HW2 6130   5.381   4.729   1.018
34745SOL     OW 6131   4.205   7.940  14.345
34745SOL    HW1 6132   4.283   7.977  14.385
34745SOL    HW2 6133   4.150   8.016  14.326
34746SOL     OW 6134   2.698   5.376   3.009
34746SOL    HW1 6135   2.730   5.347   3.094
34746SOL    HW2 6136   2.636   5.446   3.029
34747SOL     OW 6137   8.626   8.293   6.931
34747SOL    HW1 6138   8.569   8.369   6.937
34747SOL    HW2 6139   8.711   8.327   6.903
34748SOL     OW 6140  12.071   2.538   1.760
34748SOL    HW1 6141  12.083   2.492   1.843
34748SOL    HW2 6142  11.978   2.529   1.740
34749SOL     OW 6143   7.247   2.797   6.920
34749SOL    HW1 6144   7.272   2.851   6.995
34749SOL    HW2 6145   7.319   2.805   6.858
34750SOL     OW 6146   7.329  12.563   7.895
34750SOL    HW1 6147   7.291  12.507   7.827
34750SOL    HW2 6148   7.422  12.566   7.875
34751SOL     OW 6149  11.701   0.159   9.461
34751SOL    HW1 6150  11.620   0.154   9.512
34751SOL    HW2 6151  11.691   0.092   9.393
34752SOL     OW 6152  14.596   9.979   8.393
34752SOL    HW1 6153  14.678  10.002   8.349
34752SOL    HW2 6154  14.615   9.992   8.486
34753SOL     OW 6155  11.651   6.440  13.186
34753SOL    HW1 6156  11.639   6.477  13.099
34753SOL    HW2 6157  11.730   6.483  13.220
34754SOL     OW 6158   1.398   1.749   1.834
34754SOL    HW1 6159   1.350   1.734   1.915
34754SOL    HW2 6160   1.474   1.801   1.861
34755SOL     OW 6161  11.104  12.792   6.110
34755SOL    HW1 6162  11.070  12.734   6.042
34755SOL    HW2 6163  11.158  12.735   6.165
34756SOL     OW 6164   7.695   6.843  14.432
34756SOL    HW1 6165   7.776   6.849  14.483
34756SOL    HW2 6166   7.646   6.772  14.473
34757SOL     OW 6167  12.720   7.134   9.858
34757SOL    HW1 6168  12.774   7.118   9.935
34757SOL    HW2 6169  12.725   7.228   9.844
34758SOL     OW 6170   6.435   3.065   6.782
34758SOL    HW1 6171   6.392   3.119   6.849
34758SOL    HW2 6172   6.502   3.122   6.745
34759SOL     OW 6173   5.279   9.456   9.536
34759SOL    HW1 6174   5.336   9.438   9.611
34759SOL    HW2 6175   5.314   9.402   9.465
34760SOL     OW 6176  13.442   1.934   7.181
34760SOL    HW1 6177  13.427   2.022   7.215
34760SOL    HW2 6178  13.518   1.902   7.229
34761SOL     OW 6179   7.182  10.164  11.976
34761SOL    HW1 6180   7.193  10.260  11.980
34761SOL    HW2 6181   7.088  10.150  11.980
34762SOL     OW 6182   3.582  12.148   7.952
34762SOL    HW1 6183   3.592  12.071   8.009
34762SOL    HW2 6184   3.638  12.129   7.876
34763SOL     OW 6185   8.955  11.808  14.689
34763SOL    HW1 6186   8.961  11.889  14.739
34763SOL    HW2 6187   8.872  11.769  14.717
34764SOL     OW 6188  13.911   7.525   5.912
34764SOL    HW1 6189  13.981   7.586   5.934
34764SOL    HW2 6190  13.918   7.456   5.978
34765SOL     OW 6191   6.430   3.107   5.737
34765SOL    HW1 6192   6.467   3.195   5.747
34765SOL    HW2 6193   6.499   3.048   5.769
34766SOL     OW 6194   0.252   8.928   4.279
34766SOL    HW1 6195   0.160   8.943   4.256
34766SOL    HW2 6196   0.294   9.013   4.266
34767SOL     OW 6197   5.688   3.636   1.195
34767SOL    HW1 6198   5.625   3.673   1.257
34767SOL    HW2 6199   5.771   3.678   1.217
34768SOL     OW 6200   3.646   8.252   1.598
34768SOL    HW1 6201   3.702   8.320   1.638
34768SOL    HW2 6202   3.573   8.301   1.561
34769SOL     OW 6203   1.265   4.792   2.792
34769SOL    HW1 6204   1.361   4.791   2.786
34769SOL    HW2 6205   1.247   4.826   2.880
34770SOL     OW 6206   4.681   6.270  13.113
34770SOL    HW1 6207   4.702   6.179  13.090
34770SOL    HW2 6208   4.662   6.312  13.029
34771SOL     OW 6209   5.147  12.753   8.172
34771SOL    HW1 6210   5.100  12.782   8.250
34771SOL    HW2 6211   5.106  12.669   8.150
34772SOL     OW 6212  13.401   2.239   6.832
34772SOL    HW1 6213  13.347   2.283   6.767
34772SOL    HW2 6214  13.475   2.299   6.847
34773SOL     OW 6215   8.366   6.031  14.450
34773SOL    HW1 6216   8.308   6.091  14.497
34773SOL    HW2 6217   8.377   5.957  14.510
34774SOL     OW 6218  13.909  10.924   7.888
34774SOL    HW1 6219  13.859  10.849   7.857
34774SOL    HW2 6220  14.000  10.895   7.888
34775SOL     OW 6221   4.003   4.350  13.697
34775SOL    HW1 6222   4.011   4.327  13.789
34775SOL    HW2 6223   3.948   4.281  13.659
34776SOL     OW 6224  13.403  10.391   6.941
34776SOL    HW1 6225  13.388  10.308   6.986
34776SOL    HW2 6226  13.457  10.441   7.002
34777SOL     OW 6227   1.431   7.947   3.132
34777SOL    HW1 6228   1.495   7.897   3.082
34777SOL    HW2 6229   1.404   7.889   3.202
34778SOL     OW 6230  10.381   7.075   6.584
34778SOL    HW1 6231  10.459   7.105   6.536
34778SOL    HW2 6232  10.366   6.986   6.553
34779SOL     OW 6233  13.229   0.594   5.165
34779SOL    HW1 6234  13.206   0.635   5.249
34779SOL    HW2 6235  13.323   0.611   5.156
34780SOL     OW 6236   3.673  14.108   9.617
34780SOL    HW1 6237   3.690  14.058   9.697
34780SOL    HW2 6238   3.602  14.061   9.574
34781SOL     OW 6239   2.021   9.602  13.208
34781SOL    HW1 6240   2.001   9.532  13.146
34781SOL    HW2 6241   2.070   9.667  13.157
34782SOL     OW 6242  12.259   8.579   2.015
34782SOL    HW1 6243  12.306   8.529   1.949
34782SOL    HW2 6244  12.217   8.649   1.966
34783SOL     OW 6245   3.374   0.418  12.538
34783SOL    HW1 6246   3.384   0.338  12.589
34783SOL    HW2 6247   3.343   0.483  12.601
34784SOL     OW 6248   9.115  13.603   4.869
34784SOL    HW1 6249   9.081  13.535   4.927
34784SOL    HW2 6250   9.160  13.665   4.927
34785SOL     OW 6251  12.558  11.233   3.694
34785SOL    HW1 6252  12.539  11.325   3.710
34785SOL    HW2 6253  12.480  11.200   3.649
34786SOL     OW 6254   7.287   5.473  14.631
34786SOL    HW1 6255   7.230   5.512  14.697
34786SOL    HW2 6256   7.374   5.471  14.672
34787SOL     OW 6257   1.494   5.599   3.140
34787SOL    HW1 6258   1.582   5.617   3.108
34787SOL    HW2 6259   1.459   5.686   3.162
34788SOL     OW 6260  13.670   1.013   0.274
34788SOL    HW1 6261  13.705   0.948   0.213
34788SOL    HW2 6262  13.704   0.986   0.359
34789SOL     OW 6263   7.578   2.985   0.008
34789SOL    HW1 6264   7.527   2.956   0.083
34789SOL    HW2 6265   7.622   3.064   0.038
34790SOL     OW 6266   1.127   8.386  13.549
34790SOL    HW1 6267   1.063   8.457  13.539
34790SOL    HW2 6268   1.206   8.417  13.505
34791SOL     OW 6269   8.374   7.345   7.608
34791SOL    HW1 6270   8.308   7.287   7.647
34791SOL    HW2 6271   8.338   7.433   7.619
34792SOL     OW 6272   2.101   7.305   7.986
34792SOL    HW1 6273   2.117   7.220   8.028
34792SOL    HW2 6274   2.050   7.284   7.908
34793SOL     OW 6275  14.083   0.112  10.929
34793SOL    HW1 6276  14.022   0.182  10.904
34793SOL    HW2 6277  14.170   0.149  10.913
34794SOL     OW 6278   4.764  11.831  14.125
34794SOL    HW1 6279   4.682  11.871  14.096
34794SOL    HW2 6280   4.785  11.768  14.056
34795SOL     OW 6281   0.831   1.645   6.121
34795SOL    HW1 6282   0.900   1.708   6.100
34795SOL    HW2 6283   0.878   1.565   6.146
34796SOL     OW 6284   9.832  13.197   0.444
34796SOL    HW1 6285   9.777  13.126   0.477
34796SOL    HW2 6286   9.921  13.170   0.467
34797SOL     OW 6287   0.219   8.887   9.844
34797SOL    HW1 6288   0.167   8.828   9.898
34797SOL    HW2 6289   0.197   8.864   9.754
34798SOL     OW 6290   3.995   7.723   0.632
34798SOL    HW1 6291   4.068   7.670   0.662
34798SOL    HW2 6292   3.952   7.753   0.712
34799SOL     OW 6293  12.695  12.150   4.528
34799SOL    HW1 6294  12.745  12.199   4.593
34799SOL    HW2 6295  12.754  12.141   4.454
34800SOL     OW 6296  13.192   1.944  10.545
34800SOL    HW1 6297  13.125   1.992  10.496
34800SOL    HW2 6298  13.231   1.886  10.479
34801SOL     OW 6299  12.741  11.253   2.793
34801SOL    HW1 6300  12.804  11.195   2.835
34801SOL    HW2 6301  12.704  11.304   2.864
34802SOL     OW 6302  11.683   4.816   1.606
34802SOL    HW1 6303  11.733   4.841   1.683
34802SOL    HW2 6304  11.720   4.868   1.535
34803SOL     OW 6305  11.710  13.265   5.476
34803SOL    HW1 6306  11.692  13.268   5.570
34803SOL    HW2 6307  11.647  13.327   5.438
34804SOL     OW 6308  13.959   2.584   0.486
34804SOL    HW1 6309  13.943   2.569   0.580
34804SOL    HW2 6310  14.055   2.585   0.479
34805SOL     OW 6311  13.266   8.318   8.762
34805SOL    HW1 6312  13.175   8.336   8.736
34805SOL    HW2 6313  13.283   8.230   8.730
34806SOL     OW 6314   5.435  13.970   1.348
34806SOL    HW1 6315   5.530  13.983   1.353
34806SOL    HW2 6316   5.407  13.969   1.440
34807SOL     OW 6317   9.183  11.055   3.961
34807SOL    HW1 6318   9.115  10.988   3.969
34807SOL    HW2 6319   9.147  11.132   4.005
34808SOL     OW 6320   7.397  11.255  12.935
34808SOL    HW1 6321   7.370  11.166  12.913
34808SOL    HW2 6322   7.321  11.292  12.980
34809SOL     OW 6323  11.831  14.206  10.508
34809SOL    HW1 6324  11.899  14.240  10.449
34809SOL    HW2 6325  11.877  14.142  10.562
34810SOL     OW 6326   9.618   2.597   2.293
34810SOL    HW1 6327   9.526   2.622   2.290
34810SOL    HW2 6328   9.626   2.525   2.230
34811SOL     OW 6329   3.985   0.387   0.287
34811SOL    HW1 6330   4.007   0.418   0.199
34811SOL    HW2 6331   4.024   0.300   0.292
34812SOL     OW 6332   2.627   7.958   8.147
34812SOL    HW1 6333   2.557   7.925   8.203
34812SOL    HW2 6334   2.707   7.945   8.198
34813SOL     OW 6335   8.970  11.986  11.964
34813SOL    HW1 6336   8.951  11.892  11.961
34813SOL    HW2 6337   9.065  11.991  11.979
34814SOL     OW 6338   2.184  13.804   9.938
34814SOL    HW1 6339   2.095  13.822   9.906
34814SOL    HW2 6340   2.182  13.827  10.031
34815SOL     OW 6341   7.621   0.278  11.553
34815SOL    HW1 6342   7.596   0.239  11.470
34815SOL    HW2 6343   7.543   0.271  11.608
34816SOL     OW 6344   6.384   3.196   7.296
34816SOL    HW1 6345   6.294   3.171   7.316
34816SOL    HW2 6346   6.389   3.289   7.319
34817SOL     OW 6347   6.372   7.828   9.840
34817SOL    HW1 6348   6.390   7.768   9.912
34817SOL    HW2 6349   6.451   7.824   9.786
34818SOL     OW 6350  13.463   0.924   5.580
34818SOL    HW1 6351  13.535   0.861   5.576
34818SOL    HW2 6352  13.401   0.885   5.642
34819SOL     OW 6353   9.388   4.709   2.787
34819SOL    HW1 6354   9.322   4.718   2.719
34819SOL    HW2 6355   9.362   4.773   2.854
34820SOL     OW 6356  14.122   5.431   4.318
34820SOL    HW1 6357  14.104   5.483   4.239
34820SOL    HW2 6358  14.201   5.381   4.296
34821SOL     OW 6359   1.441  10.451   7.520
34821SOL    HW1 6360   1.356  10.460   7.563
34821SOL    HW2 6361   1.430  10.377   7.460
34822SOL     OW 6362  10.941   0.624   8.348
34822SOL    HW1 6363  10.992   0.558   8.395
34822SOL    HW2 6364  10.866   0.642   8.406
34823SOL     OW 6365   5.699   2.330  10.615
34823SOL    HW1 6366   5.685   2.238  10.595
34823SOL    HW2 6367   5.756   2.362  10.545
34824SOL     OW 6368  14.694  11.930   2.158
34824SOL    HW1 6369  14.641  11.852   2.139
34824SOL    HW2 6370  14.630  11.996   2.183
34825SOL     OW 6371   8.610  11.662   9.486
34825SOL    HW1 6372   8.596  11.661   9.391
34825SOL    HW2 6373   8.554  11.592   9.519
34826SOL     OW 6374   4.679   5.356   8.199
34826SOL    HW1 6375   4.594   5.314   8.209
34826SOL    HW2 6376   4.710   5.371   8.288
34827SOL     OW 6377   9.179  10.485   4.215
34827SOL    HW1 6378   9.135  10.400   4.215
34827SOL    HW2 6379   9.123  10.542   4.163
34828SOL     OW 6380  14.815   3.767  10.538
34828SOL    HW1 6381  14.811   3.674  10.559
34828SOL    HW2 6382   0.018   3.797  10.575
34829SOL     OW 6383  13.131   3.522   8.844
34829SOL    HW1 6384  13.161   3.495   8.931
34829SOL    HW2 6385  13.151   3.615   8.840
34830SOL     OW 6386   9.320   5.047   3.935
34830SOL    HW1 6387   9.286   5.133   3.912
34830SOL    HW2 6388   9.278   4.987   3.873
34831SOL     OW 6389   5.853   8.149   1.327
34831SOL    HW1 6390   5.761   8.176   1.316
34831SOL    HW2 6391   5.849   8.054   1.338
34832SOL     OW 6392   5.270  13.095   4.408
34832SOL    HW1 6393   5.363  13.110   4.393
34832SOL    HW2 6394   5.244  13.034   4.339
34833SOL     OW 6395  13.601  14.265   1.856
34833SOL    HW1 6396  13.678  14.323   1.852
34833SOL    HW2 6397  13.638  14.178   1.871
34834SOL     OW 6398  13.697   8.901  14.300
34834SOL    HW1 6399  13.643   8.891  14.221
34834SOL    HW2 6400  13.635   8.922  14.369
34835SOL     OW 6401   0.540  10.556   7.429
34835SOL    HW1 6402   0.607  10.491   7.406
34835SOL    HW2 6403   0.489  10.566   7.348
34836SOL     OW 6404  13.552  10.822  10.512
34836SOL    HW1 6405  13.566  10.913  10.485
34836SOL    HW2 6406  13.640  10.786  10.522
34837SOL     OW 6407  11.943   0.803  12.111
34837SOL    HW1 6408  11.894   0.795  12.030
34837SOL    HW2 6409  11.961   0.713  12.138
34838SOL     OW 6410   6.659   9.899   9.672
34838SOL    HW1 6411   6.708   9.828   9.713
34838SOL    HW2 6412   6.662   9.879   9.578
34839SOL     OW 6413  12.814   9.884   3.600
34839SOL    HW1 6414  12.761   9.826   3.655
34839SOL    HW2 6415  12.802   9.971   3.638
34840SOL     OW 6416  12.617   6.718   5.439
34840SOL    HW1 6417  12.591   6.657   5.508
34840SOL    HW2 6418  12.699   6.756   5.470
34841SOL     OW 6419   3.603   7.104   5.763
34841SOL    HW1 6420   3.658   7.182   5.755
34841SOL    HW2 6421   3.557   7.099   5.679
34842SOL     OW 6422  10.260   8.930   8.480
34842SOL    HW1 6423  10.260   8.860   8.545
34842SOL    HW2 6424  10.293   9.006   8.527
34843SOL     OW 6425   4.203   0.451   8.284
34843SOL    HW1 6426   4.153   0.508   8.226
34843SOL    HW2 6427   4.284   0.434   8.237
34844SOL     OW 6428   6.174   2.528   6.111
34844SOL    HW1 6429   6.101   2.561   6.058
34844SOL    HW2 6430   6.133   2.469   6.174
34845SOL     OW 6431  10.636   7.574  11.290
34845SOL    HW1 6432  10.622   7.479  11.286
34845SOL    HW2 6433  10.598   7.607  11.209
34846SOL     OW 6434  14.640   8.274  13.253
34846SOL    HW1 6435  14.622   8.251  13.162
34846SOL    HW2 6436  14.584   8.215  13.304
34847SOL     OW 6437  10.432   7.233   3.479
34847SOL    HW1 6438  10.433   7.137   3.482
34847SOL    HW2 6439  10.519   7.259   3.510
34848SOL     OW 6440   4.506   8.875  12.005
34848SOL    HW1 6441   4.412   8.890  12.019
34848SOL    HW2 6442   4.514   8.864  11.910
34849SOL     OW 6443  10.491   9.470   4.332
34849SOL    HW1 6444  10.535   9.555   4.330
34849SOL    HW2 6445  10.481   9.450   4.425
34850SOL     OW 6446   4.120   5.382   6.915
34850SOL    HW1 6447   4.185   5.336   6.862
34850SOL    HW2 6448   4.165   5.402   6.997
34851SOL     OW 6449  10.598   6.148   3.259
34851SOL    HW1 6450  10.667   6.207   3.230
34851SOL    HW2 6451  10.637   6.099   3.331
34852SOL     OW 6452  13.842  11.783   0.027
34852SOL    HW1 6453  13.778  11.832   0.079
34852SOL    HW2 6454  13.807  11.784  14.818
34853SOL     OW 6455   0.551   4.995   6.407
34853SOL    HW1 6456   0.578   4.995   6.315
34853SOL    HW2 6457   0.625   5.034   6.454
34854SOL     OW 6458  10.810  14.353  12.169
34854SOL    HW1 6459  10.782  14.309  12.250
34854SOL    HW2 6460  10.800  14.287  12.101
34855SOL     OW 6461   7.233   3.858   0.894
34855SOL    HW1 6462   7.308   3.917   0.888
34855SOL    HW2 6463   7.271   3.771   0.881
34856SOL     OW 6464  10.241   9.438   5.991
34856SOL    HW1 6465  10.238   9.525   5.953
34856SOL    HW2 6466  10.152   9.422   6.023
34857SOL     OW 6467   1.557   0.578   3.221
34857SOL    HW1 6468   1.502   0.599   3.146
34857SOL    HW2 6469   1.634   0.536   3.183
34858SOL     OW 6470   3.166   8.340   7.128
34858SOL    HW1 6471   3.123   8.303   7.051
34858SOL    HW2 6472   3.098   8.394   7.169
34859SOL     OW 6473   2.048  12.850   0.461
34859SOL    HW1 6474   2.031  12.756   0.456
34859SOL    HW2 6475   2.024  12.874   0.551
34860SOL     OW 6476   3.639  12.064  13.581
34860SOL    HW1 6477   3.660  12.131  13.647
34860SOL    HW2 6478   3.546  12.076  13.565
34861SOL     OW 6479   2.678  11.676   2.866
34861SOL    HW1 6480   2.666  11.705   2.775
34861SOL    HW2 6481   2.771  11.656   2.873
34862SOL     OW 6482   6.666   7.967   2.523
34862SOL    HW1 6483   6.660   7.958   2.427
34862SOL    HW2 6484   6.589   8.018   2.547
34863SOL     OW 6485  14.547   6.339  14.707
34863SOL    HW1 6486  14.516   6.321  14.618
34863SOL    HW2 6487  14.479   6.304  14.764
34864SOL     OW 6488  10.986   1.617  12.203
34864SOL    HW1 6489  10.892   1.625  12.189
34864SOL    HW2 6490  11.022   1.696  12.161
34865SOL     OW 6491   7.969   6.697   5.895
34865SOL    HW1 6492   7.997   6.772   5.843
34865SOL    HW2 6493   7.875   6.711   5.908
34866SOL     OW 6494  14.127   4.961  10.665
34866SOL    HW1 6495  14.161   5.021  10.731
34866SOL    HW2 6496  14.204   4.912  10.635
34867SOL     OW 6497  12.674   9.134  11.278
34867SOL    HW1 6498  12.587   9.113  11.312
34867SOL    HW2 6499  12.680   9.229  11.285
34868SOL     OW 6500  10.329   8.638   6.783
34868SOL    HW1 6501  10.261   8.582   6.822
34868SOL    HW2 6502  10.328   8.717   6.838
34869SOL     OW 6503   6.770  14.350  14.191
34869SOL    HW1 6504   6.778  14.444  14.208
34869SOL    HW2 6505   6.847  14.328  14.139
34870SOL     OW 6506   0.064   6.638   1.806
34870SOL    HW1 6507   0.158   6.656   1.815
34870SOL    HW2 6508   0.026   6.722   1.781
34871SOL     OW 6509   7.163  14.678  10.226
34871SOL    HW1 6510   7.193  14.763  10.195
34871SOL    HW2 6511   7.183  14.618  10.155
34872SOL     OW 6512   1.407   9.481   8.178
34872SOL    HW1 6513   1.338   9.548   8.183
34872SOL    HW2 6514   1.364   9.406   8.137
34873SOL     OW 6515  10.774  13.300  10.574
34873SOL    HW1 6516  10.753  13.222  10.624
34873SOL    HW2 6517  10.812  13.267  10.492
34874SOL     OW 6518   7.013  11.810  12.038
34874SOL    HW1 6519   7.010  11.856  12.122
34874SOL    HW2 6520   6.998  11.718  12.061
34875SOL     OW 6521  13.372  14.796  14.349
34875SOL    HW1 6522  13.428  14.857  14.396
34875SOL    HW2 6523  13.402  14.709  14.375
34876SOL     OW 6524   7.591   5.413   5.000
34876SOL    HW1 6525   7.657   5.343   5.004
34876SOL    HW2 6526   7.642   5.492   4.981
34877SOL     OW 6527  13.172  13.452   3.525
34877SOL    HW1 6528  13.264  13.448   3.497
34877SOL    HW2 6529  13.174  13.505   3.605
34878SOL     OW 6530   0.327   0.689   1.008
34878SOL    HW1 6531   0.417   0.717   1.023
34878SOL    HW2 6532   0.276   0.740   1.071
34879SOL     OW 6533   2.528  11.861   0.648
34879SOL    HW1 6534   2.597  11.816   0.598
34879SOL    HW2 6535   2.486  11.792   0.699
34880SOL     OW 6536   2.970  13.582  12.937
34880SOL    HW1 6537   2.917  13.555  12.862
34880SOL    HW2 6538   3.057  13.544  12.919
34881SOL     OW 6539   8.467   5.403   4.049
34881SOL    HW1 6540   8.468   5.314   4.013
34881SOL    HW2 6541   8.537   5.448   4.003
34882SOL     OW 6542   2.598   6.277  14.666
34882SOL    HW1 6543   2.557   6.205  14.617
34882SOL    HW2 6544   2.579   6.355  14.614
34883SOL     OW 6545  10.639   3.145   4.509
34883SOL    HW1 6546  10.631   3.063   4.557
34883SOL    HW2 6547  10.592   3.129   4.427
34884SOL     OW 6548  12.800   6.286   5.209
34884SOL    HW1 6549  12.791   6.368   5.256
34884SOL    HW2 6550  12.711   6.266   5.179
34885SOL     OW 6551  11.970  12.264  10.550
34885SOL    HW1 6552  11.916  12.233  10.623
34885SOL    HW2 6553  11.926  12.231  10.472
34886SOL     OW 6554  13.922  11.527   7.398
34886SOL    HW1 6555  13.951  11.438   7.381
34886SOL    HW2 6556  13.992  11.582   7.364
34887SOL     OW 6557  14.211   8.871   3.546
34887SOL    HW1 6558  14.279   8.810   3.575
34887SOL    HW2 6559  14.147   8.870   3.617
34888SOL     OW 6560  10.462   8.712   9.841
34888SOL    HW1 6561  10.437   8.621   9.858
34888SOL    HW2 6562  10.554   8.707   9.814
34889SOL     OW 6563   0.850   5.179   9.074
34889SOL    HW1 6564   0.937   5.165   9.111
34889SOL    HW2 6565   0.847   5.120   8.999
34890SOL     OW 6566   8.911   1.656   7.970
34890SOL    HW1 6567   8.939   1.685   7.883
34890SOL    HW2 6568   8.823   1.620   7.956
34891SOL     OW 6569   6.045   3.735   5.380
34891SOL    HW1 6570   5.994   3.657   5.399
34891SOL    HW2 6571   5.984   3.795   5.339
34892SOL     OW 6572   4.908  11.780   9.157
34892SOL    HW1 6573   4.996  11.765   9.191
34892SOL    HW2 6574   4.869  11.844   9.217
34893SOL     OW 6575  11.318   9.352   7.357
34893SOL    HW1 6576  11.326   9.298   7.278
34893SOL    HW2 6577  11.268   9.297   7.418
34894SOL     OW 6578  13.781  14.451   2.457
34894SOL    HW1 6579  13.754  14.392   2.386
34894SOL    HW2 6580  13.876  14.440   2.461
34895SOL     OW 6581   3.897   9.066  13.757
34895SOL    HW1 6582   3.919   9.076  13.849
34895SOL    HW2 6583   3.881   8.972  13.746
34896SOL     OW 6584   4.046   8.819   9.166
34896SOL    HW1 6585   3.998   8.767   9.102
34896SOL    HW2 6586   4.137   8.811   9.141
34897SOL     OW 6587   9.345   0.850  10.966
34897SOL    HW1 6588   9.262   0.804  10.953
34897SOL    HW2 6589   9.401   0.786  11.011
34898SOL     OW 6590   1.634  14.016   3.145
34898SOL    HW1 6591   1.715  14.029   3.194
34898SOL    HW2 6592   1.648  13.935   3.096
34899SOL     OW 6593   5.547  13.732   3.310
34899SOL    HW1 6594   5.567  13.773   3.394
34899SOL    HW2 6595   5.633  13.710   3.273
34900SOL     OW 6596   8.180   5.812  12.917
34900SOL    HW1 6597   8.183   5.716  12.924
34900SOL    HW2 6598   8.157   5.842  13.005
34901SOL     OW 6599   2.973   5.997   7.911
34901SOL    HW1 6600   3.028   6.043   7.975
34901SOL    HW2 6601   2.914   6.065   7.877
34902SOL     OW 6602   9.972   2.277  13.710
34902SOL    HW1 6603   9.881   2.258  13.734
34902SOL    HW2 6604  10.016   2.289  13.794
34903SOL     OW 6605   7.597  11.579   8.437
34903SOL    HW1 6606   7.555  11.589   8.352
34903SOL    HW2 6607   7.623  11.668   8.462
34904SOL     OW 6608   9.710   6.749  12.085
34904SOL    HW1 6609   9.695   6.655  12.082
34904SOL    HW2 6610   9.804   6.758  12.103
34905SOL     OW 6611   6.686   1.520   4.599
34905SOL    HW1 6612   6.732   1.574   4.535
34905SOL    HW2 6613   6.606   1.568   4.618
34906SOL     OW 6614  13.948   4.899  11.116
34906SOL    HW1 6615  13.957   4.803  11.113
34906SOL    HW2 6616  13.928   4.924  11.027
34907SOL     OW 6617  12.428   3.515   8.438
34907SOL    HW1 6618  12.499   3.462   8.472
34907SOL    HW2 6619  12.414   3.583   8.505
34908SOL     OW 6620   3.350   3.996   5.527
34908SOL    HW1 6621   3.296   4.055   5.475
34908SOL    HW2 6622   3.356   4.038   5.613
34909SOL     OW 6623  10.939   6.658   5.166
34909SOL    HW1 6624  10.955   6.721   5.237
34909SOL    HW2 6625  11.023   6.652   5.121
34910SOL     OW 6626   9.613  11.160  14.348
34910SOL    HW1 6627   9.708  11.167  14.343
34910SOL    HW2 6628   9.583  11.251  14.354
34911SOL     OW 6629   2.156   3.456   8.602
34911SOL    HW1 6630   2.132   3.363   8.607
34911SOL    HW2 6631   2.251   3.455   8.592
34912SOL     OW 6632  14.410  13.000  12.579
34912SOL    HW1 6633  14.418  13.061  12.653
34912SOL    HW2 6634  14.330  13.027  12.534
34913SOL     OW 6635   3.704   3.935   3.433
34913SOL    HW1 6636   3.754   3.865   3.475
34913SOL    HW2 6637   3.755   4.014   3.449
34914SOL     OW 6638   1.319   2.850   6.613
34914SOL    HW1 6639   1.396   2.797   6.593
34914SOL    HW2 6640   1.282   2.810   6.692
34915SOL     OW 6641  12.053  14.124  11.272
34915SOL    HW1 6642  12.141  14.094  11.249
34915SOL    HW2 6643  12.067  14.207  11.316
34916SOL     OW 6644   4.092   6.610   3.425
34916SOL    HW1 6645   4.144   6.588   3.348
34916SOL    HW2 6646   4.040   6.531   3.442
34917SOL     OW 6647   9.591   8.854  10.904
34917SOL    HW1 6648   9.558   8.914  10.837
34917SOL    HW2 6649   9.671   8.818  10.867
34918SOL     OW 6650   9.410   9.813   9.951
34918SOL    HW1 6651   9.336   9.794  10.008
34918SOL    HW2 6652   9.425   9.731   9.902
34919SOL     OW 6653   2.899  12.031   7.250
34919SOL    HW1 6654   2.981  12.079   7.260
34919SOL    HW2 6655   2.905  11.961   7.316
34920SOL     OW 6656   8.994   8.633  10.622
34920SOL    HW1 6657   8.950   8.716  10.639
34920SOL    HW2 6658   9.085   8.648  10.648
34921SOL     OW 6659   5.219   5.398   2.376
34921SOL    HW1 6660   5.230   5.304   2.391
34921SOL    HW2 6661   5.142   5.421   2.428
34922SOL     OW 6662  14.656   5.835   0.362
34922SOL    HW1 6663  14.658   5.930   0.370
34922SOL    HW2 6664  14.745   5.811   0.339
34923SOL     OW 6665  13.695   2.071   7.040
34923SOL    HW1 6666  13.618   2.081   7.096
34923SOL    HW2 6667  13.745   2.000   7.079
34924SOL     OW 6668   6.788  14.343  12.178
34924SOL    HW1 6669   6.865  14.287  12.189
34924SOL    HW2 6670   6.807  14.393  12.099
34925SOL     OW 6671  12.819  11.234   7.672
34925SOL    HW1 6672  12.791  11.245   7.581
34925SOL    HW2 6673  12.914  11.226   7.668
34926SOL     OW 6674  12.417  13.845   9.950
34926SOL    HW1 6675  12.379  13.924   9.988
34926SOL    HW2 6676  12.500  13.875   9.912
34927SOL     OW 6677   9.165  14.835  11.059
34927SOL    HW1 6678   9.154  14.740  11.053
34927SOL    HW2 6679   9.237  14.854  10.998
34928SOL     OW 6680   4.152  11.377  10.399
34928SOL    HW1 6681   4.059  11.364  10.379
34928SOL    HW2 6682   4.156  11.467  10.432
34929SOL     OW 6683  10.022   0.235   7.624
34929SOL    HW1 6684   9.991   0.154   7.665
34929SOL    HW2 6685  10.004   0.222   7.531
34930SOL     OW 6686   5.639  12.228   0.263
34930SOL    HW1 6687   5.732  12.205   0.253
34930SOL    HW2 6688   5.600  12.205   0.179
34931SOL     OW 6689   6.825   6.103  10.819
34931SOL    HW1 6690   6.861   6.161  10.886
34931SOL    HW2 6691   6.898   6.047  10.794
34932SOL     OW 6692   1.117   0.012  12.976
34932SOL    HW1 6693   1.035  14.860  12.940
34932SOL    HW2 6694   1.168   0.040  12.900
34933SOL     OW 6695   3.751   3.291   8.333
34933SOL    HW1 6696   3.829   3.235   8.338
34933SOL    HW2 6697   3.723   3.285   8.241
34934SOL     OW 6698   8.783   2.978   0.440
34934SOL    HW1 6699   8.766   3.068   0.413
34934SOL    HW2 6700   8.878   2.974   0.452
34935SOL     OW 6701  13.681   0.861  10.536
34935SOL    HW1 6702  13.735   0.844  10.613
34935SOL    HW2 6703  13.624   0.785  10.530
34936SOL     OW 6704   9.059   2.456   7.830
34936SOL    HW1 6705   9.098   2.539   7.858
34936SOL    HW2 6706   8.994   2.482   7.764
34937SOL     OW 6707  12.706  11.321   6.087
34937SOL    HW1 6708  12.738  11.399   6.133
34937SOL    HW2 6709  12.620  11.346   6.055
34938SOL     OW 6710  13.389   8.676   3.955
34938SOL    HW1 6711  13.305   8.645   3.989
34938SOL    HW2 6712  13.422   8.734   4.023
34939SOL     OW 6713  12.147   2.625   3.173
34939SOL    HW1 6714  12.239   2.615   3.149
34939SOL    HW2 6715  12.143   2.709   3.220
34940SOL     OW 6716   8.099   4.185  10.888
34940SOL    HW1 6717   8.087   4.119  10.820
34940SOL    HW2 6718   8.027   4.169  10.949
34941SOL     OW 6719   0.938   4.122   8.016
34941SOL    HW1 6720   0.943   4.185   8.088
34941SOL    HW2 6721   0.926   4.037   8.059
34942SOL     OW 6722   3.888   6.373  13.531
34942SOL    HW1 6723   3.943   6.338  13.461
34942SOL    HW2 6724   3.919   6.330  13.610
34943SOL     OW 6725  14.159   1.849   6.864
34943SOL    HW1 6726  14.103   1.921   6.836
34943SOL    HW2 6727  14.107   1.770   6.846
34944SOL     OW 6728   9.239   8.184   5.917
34944SOL    HW1 6729   9.310   8.146   5.968
34944SOL    HW2 6730   9.257   8.156   5.827
34945SOL     OW 6731   2.452   7.331   9.235
34945SOL    HW1 6732   2.425   7.423   9.230
34945SOL    HW2 6733   2.371   7.284   9.257
34946SOL     OW 6734   7.028   4.831   8.547
34946SOL    HW1 6735   6.990   4.919   8.545
34946SOL    HW2 6736   7.103   4.836   8.487
34947SOL     OW 6737  13.217  13.781   0.605
34947SOL    HW1 6738  13.308  13.772   0.632
34947SOL    HW2 6739  13.192  13.869   0.634
34948SOL     OW 6740  10.771   4.065   7.790
34948SOL    HW1 6741  10.685   4.040   7.823
34948SOL    HW2 6742  10.772   4.161   7.795
34949SOL     OW 6743  13.865  10.437   0.850
34949SOL    HW1 6744  13.907  10.399   0.772
34949SOL    HW2 6745  13.772  10.440   0.827
34950SOL     OW 6746   9.949   2.182   7.741
34950SOL    HW1 6747   9.880   2.181   7.675
34950SOL    HW2 6748   9.983   2.093   7.742
34951SOL     OW 6749  12.490   8.429  11.204
34951SOL    HW1 6750  12.509   8.378  11.125
34951SOL    HW2 6751  12.443   8.368  11.260
34952SOL     OW 6752   7.647   8.837   3.562
34952SOL    HW1 6753   7.569   8.852   3.509
34952SOL    HW2 6754   7.613   8.807   3.646
34953SOL     OW 6755   9.497   6.402   3.858
34953SOL    HW1 6756   9.527   6.396   3.767
34953SOL    HW2 6757   9.401   6.407   3.852
34954SOL     OW 6758   8.187  12.750  13.945
34954SOL    HW1 6759   8.096  12.776  13.963
34954SOL    HW2 6760   8.235  12.775  14.024
34955SOL     OW 6761   5.341   3.299  10.885
34955SOL    HW1 6762   5.359   3.393  10.893
34955SOL    HW2 6763   5.309   3.288  10.796
34956SOL     OW 6764   7.756   7.300   6.112
34956SOL    HW1 6765   7.800   7.235   6.166
34956SOL    HW2 6766   7.700   7.250   6.054
34957SOL     OW 6767   4.365   3.043   8.189
34957SOL    HW1 6768   4.351   3.112   8.124
34957SOL    HW2 6769   4.460   3.030   8.189
34958SOL     OW 6770   3.981   8.447   7.344
34958SOL    HW1 6771   4.062   8.468   7.392
34958SOL    HW2 6772   3.920   8.516   7.369
34959SOL     OW 6773   7.912   4.052  13.995
34959SOL    HW1 6774   8.004   4.027  13.995
34959SOL    HW2 6775   7.903   4.112  14.069
34960SOL     OW 6776  13.668   5.509   2.793
34960SOL    HW1 6777  13.673   5.468   2.879
34960SOL    HW2 6778  13.586   5.477   2.756
34961SOL     OW 6779   9.170  10.693   8.954
34961SOL    HW1 6780   9.158  10.767   8.894
34961SOL    HW2 6781   9.229  10.726   9.021
34962SOL     OW 6782  12.694  11.188   1.931
34962SOL    HW1 6783  12.776  11.138   1.929
34962SOL    HW2 6784  12.701  11.249   1.858
34963SOL     OW 6785   6.755   7.486   6.599
34963SOL    HW1 6786   6.770   7.446   6.514
34963SOL    HW2 6787   6.703   7.564   6.580
34964SOL     OW 6788   6.964  14.396   7.749
34964SOL    HW1 6789   6.983  14.343   7.826
34964SOL    HW2 6790   6.888  14.448   7.774
34965SOL     OW 6791   1.767   0.272  10.176
34965SOL    HW1 6792   1.712   0.197  10.198
34965SOL    HW2 6793   1.826   0.281  10.251
34966SOL     OW 6794  13.095  12.471   0.845
34966SOL    HW1 6795  13.118  12.427   0.763
34966SOL    HW2 6796  13.031  12.537   0.820
34967SOL     OW 6797   9.146   9.607  13.090
34967SOL    HW1 6798   9.127   9.527  13.042
34967SOL    HW2 6799   9.240   9.605  13.106
34968SOL     OW 6800   0.574   7.254   7.607
34968SOL    HW1 6801   0.511   7.228   7.674
34968SOL    HW2 6802   0.543   7.209   7.528
34969SOL     OW 6803   9.312   5.845   3.256
34969SOL    HW1 6804   9.239   5.907   3.254
34969SOL    HW2 6805   9.278   5.767   3.211
34970SOL     OW 6806   6.515  14.168   9.435
34970SOL    HW1 6807   6.529  14.081   9.399
34970SOL    HW2 6808   6.498  14.153   9.528
34971SOL     OW 6809   5.957   3.067  14.601
34971SOL    HW1 6810   6.020   3.113  14.546
34971SOL    HW2 6811   6.009   3.000  14.646
34972SOL     OW 6812  11.884   0.788  11.586
34972SOL    HW1 6813  11.917   0.778  11.676
34972SOL    HW2 6814  11.789   0.780  11.595
34973SOL     OW 6815   2.922   8.709  11.652
34973SOL    HW1 6816   2.926   8.698  11.747
34973SOL    HW2 6817   2.830   8.729  11.633
34974SOL     OW 6818   7.107   6.973   9.831
34974SOL    HW1 6819   7.100   7.062   9.795
34974SOL    HW2 6820   7.017   6.947   9.849
34975SOL     OW 6821  12.903   9.139   5.656
34975SOL    HW1 6822  12.952   9.158   5.736
34975SOL    HW2 6823  12.839   9.073   5.683
34976SOL     OW 6824  10.105   2.491  10.285
34976SOL    HW1 6825  10.110   2.421  10.349
34976SOL    HW2 6826  10.196   2.512  10.264
34977SOL     OW 6827   7.134  13.645  11.566
34977SOL    HW1 6828   7.117  13.606  11.652
34977SOL    HW2 6829   7.125  13.572  11.505
34978SOL     OW 6830  10.013   5.325   2.375
34978SOL    HW1 6831   9.974   5.411   2.358
34978SOL    HW2 6832  10.091   5.322   2.319
34979SOL     OW 6833   0.709   4.985  11.562
34979SOL    HW1 6834   0.768   4.917  11.528
34979SOL    HW2 6835   0.755   5.067  11.544
34980SOL     OW 6836   1.293   4.188  13.950
34980SOL    HW1 6837   1.299   4.144  13.865
34980SOL    HW2 6838   1.278   4.118  14.013
34981SOL     OW 6839   4.712   7.872   0.260
34981SOL    HW1 6840   4.793   7.893   0.213
34981SOL    HW2 6841   4.712   7.930   0.336
34982SOL     OW 6842   5.346   3.207   2.127
34982SOL    HW1 6843   5.317   3.296   2.110
34982SOL    HW2 6844   5.304   3.154   2.059
34983SOL     OW 6845   9.621   8.873   1.666
34983SOL    HW1 6846   9.643   8.857   1.574
34983SOL    HW2 6847   9.551   8.811   1.685
34984SOL     OW 6848   0.536  13.470  11.849
34984SOL    HW1 6849   0.495  13.431  11.926
34984SOL    HW2 6850   0.606  13.525  11.884
34985SOL     OW 6851   2.546  10.296   6.487
34985SOL    HW1 6852   2.613  10.230   6.504
34985SOL    HW2 6853   2.582  10.377   6.523
34986SOL     OW 6854   8.140  10.685   5.763
34986SOL    HW1 6855   8.195  10.727   5.697
34986SOL    HW2 6856   8.110  10.757   5.818
34987SOL     OW 6857   1.489   9.956   9.427
34987SOL    HW1 6858   1.488   9.948   9.523
34987SOL    HW2 6859   1.403   9.991   9.405
34988SOL     OW 6860  10.913   6.600   7.583
34988SOL    HW1 6861  10.921   6.544   7.505
34988SOL    HW2 6862  10.819   6.606   7.599
34989SOL     OW 6863   9.595  13.593  14.361
34989SOL    HW1 6864   9.662  13.656  14.389
34989SOL    HW2 6865   9.612  13.515  14.413
34990SOL     OW 6866   0.974   4.644   3.830
34990SOL    HW1 6867   0.931   4.583   3.770
34990SOL    HW2 6868   0.959   4.730   3.791
34991SOL     OW 6869  14.661  13.432   9.197
34991SOL    HW1 6870  14.603  13.385   9.137
34991SOL    HW2 6871  14.601  13.471   9.261
34992SOL     OW 6872   7.350   0.089   4.831
34992SOL    HW1 6873   7.434   0.091   4.783
34992SOL    HW2 6874   7.292   0.037   4.775
34993SOL     OW 6875  14.016  11.762   8.274
34993SOL    HW1 6876  13.934  11.712   8.271
34993SOL    HW2 6877  14.080  11.701   8.309
34994SOL     OW 6878   2.589   2.129   9.078
34994SOL    HW1 6879   2.611   2.077   9.156
34994SOL    HW2 6880   2.530   2.197   9.111
34995SOL     OW 6881   5.616   5.994   2.525
34995SOL    HW1 6882   5.632   5.913   2.573
34995SOL    HW2 6883   5.619   6.062   2.591
34996SOL     OW 6884  12.380  13.535   8.236
34996SOL    HW1 6885  12.317  13.554   8.166
34996SOL    HW2 6886  12.338  13.468   8.289
34997SOL     OW 6887   4.819   9.484   4.866
34997SOL    HW1 6888   4.727   9.486   4.840
34997SOL    HW2 6889   4.863   9.544   4.806
34998SOL     OW 6890  13.402   2.257   5.696
34998SOL    HW1 6891  13.325   2.242   5.750
34998SOL    HW2 6892  13.437   2.341   5.726
34999SOL     OW 6893   7.616   6.933  12.585
34999SOL    HW1 6894   7.674   6.868  12.625
34999SOL    HW2 6895   7.674   6.990  12.534
35000SOL     OW 6896   0.464   9.317  11.989
35000SOL    HW1 6897   0.410   9.255  12.037
35000SOL    HW2 6898   0.402   9.374  11.944
35001SOL     OW 6899   8.434   0.327   1.974
35001SOL    HW1 6900   8.476   0.248   2.008
35001SOL    HW2 6901   8.504   0.392   1.973
35002SOL     OW 6902   9.920  10.646  10.319
35002SOL    HW1 6903   9.944  10.580  10.254
35002SOL    HW2 6904   9.921  10.599  10.402
35003SOL     OW 6905   2.861   0.017  12.032
35003SOL    HW1 6906   2.863   0.061  12.117
35003SOL    HW2 6907   2.820  14.813  12.049
35004SOL     OW 6908   4.620   1.212   2.204
35004SOL    HW1 6909   4.697   1.156   2.198
35004SOL    HW2 6910   4.573   1.197   2.122
35005SOL     OW 6911   1.670  14.490  11.422
35005SOL    HW1 6912   1.762  14.483  11.398
35005SOL    HW2 6913   1.665  14.460  11.512
35006SOL     OW 6914   7.441  12.099   8.973
35006SOL    HW1 6915   7.496  12.162   9.020
35006SOL    HW2 6916   7.437  12.023   9.032
35007SOL     OW 6917   2.637   9.207   2.258
35007SOL    HW1 6918   2.606   9.194   2.169
35007SOL    HW2 6919   2.732   9.196   2.252
35008SOL     OW 6920   6.977   1.705  10.501
35008SOL    HW1 6921   6.949   1.614  10.504
35008SOL    HW2 6922   6.896   1.756  10.507
35009SOL     OW 6923   4.209   8.284  14.063
35009SOL    HW1 6924   4.268   8.213  14.088
35009SOL    HW2 6925   4.258   8.336  14.000
35010SOL     OW 6926   3.953   1.990   5.832
35010SOL    HW1 6927   3.887   2.046   5.873
35010SOL    HW2 6928   3.930   1.992   5.739
35011SOL     OW 6929   8.756  11.957   4.606
35011SOL    HW1 6930   8.717  11.994   4.685
35011SOL    HW2 6931   8.724  12.012   4.535
35012SOL     OW 6932   0.329   1.961  10.513
35012SOL    HW1 6933   0.375   2.024  10.569
35012SOL    HW2 6934   0.398   1.905  10.478
35013SOL     OW 6935  11.446   3.359   9.403
35013SOL    HW1 6936  11.361   3.361   9.446
35013SOL    HW2 6937  11.451   3.273   9.363
35014SOL     OW 6938   6.488   8.396  13.248
35014SOL    HW1 6939   6.566   8.410  13.300
35014SOL    HW2 6940   6.435   8.475  13.261
35015SOL     OW 6941   2.137   0.004   6.809
35015SOL    HW1 6942   2.168   0.037   6.893
35015SOL    HW2 6943   2.215  14.880   6.754
35016SOL     OW 6944  11.182   5.796   0.470
35016SOL    HW1 6945  11.258   5.745   0.442
35016SOL    HW2 6946  11.191   5.802   0.566
35017SOL     OW 6947  14.371   5.289   4.956
35017SOL    HW1 6948  14.442   5.233   4.926
35017SOL    HW2 6949  14.340   5.248   5.037
35018SOL     OW 6950   4.689   4.635   0.228
35018SOL    HW1 6951   4.777   4.637   0.191
35018SOL    HW2 6952   4.634   4.607   0.154
35019SOL     OW 6953   0.288   6.615   2.185
35019SOL    HW1 6954   0.260   6.707   2.181
35019SOL    HW2 6955   0.307   6.600   2.277
35020SOL     OW 6956  11.578  14.010   9.691
35020SOL    HW1 6957  11.533  13.928   9.673
35020SOL    HW2 6958  11.615  14.037   9.607
35021SOL     OW 6959   7.419   4.273   0.049
35021SOL    HW1 6960   7.449   4.341  14.869
35021SOL    HW2 6961   7.327   4.293   0.065
35022SOL     OW 6962  12.362   0.994  10.491
35022SOL    HW1 6963  12.283   0.962  10.448
35022SOL    HW2 6964  12.397   0.918  10.538
35023SOL     OW 6965   3.890   8.479   3.756
35023SOL    HW1 6966   3.880   8.558   3.810
35023SOL    HW2 6967   3.804   8.465   3.716
35024SOL     OW 6968   9.042   0.312   0.444
35024SOL    HW1 6969   9.018   0.302   0.351
35024SOL    HW2 6970   8.970   0.363   0.482
35025SOL     OW 6971   4.797   8.605  10.887
35025SOL    HW1 6972   4.879   8.613  10.839
35025SOL    HW2 6973   4.822   8.577  10.975
35026SOL     OW 6974   0.074  12.309  10.266
35026SOL    HW1 6975   0.144  12.244  10.258
35026SOL    HW2 6976   0.086  12.346  10.354
35027SOL     OW 6977  14.639   7.098   2.942
35027SOL    HW1 6978  14.603   7.045   3.012
35027SOL    HW2 6979  14.631   7.188   2.973
35028SOL     OW 6980   8.942   8.748   0.865
35028SOL    HW1 6981   8.964   8.787   0.780
35028SOL    HW2 6982   8.897   8.818   0.912
35029SOL     OW 6983   7.711   6.463  14.561
35029SOL    HW1 6984   7.729   6.446  14.468
35029SOL    HW2 6985   7.642   6.529  14.560
35030SOL     OW 6986   5.432  11.628  11.687
35030SOL    HW1 6987   5.473  11.714  11.673
35030SOL    HW2 6988   5.390  11.636  11.773
35031SOL     OW 6989   5.102  10.547  13.750
35031SOL    HW1 6990   5.046  10.488  13.801
35031SOL    HW2 6991   5.183  10.553  13.801
35032SOL     OW 6992   5.165  14.671   5.916
35032SOL    HW1 6993   5.113  14.750   5.934
35032SOL    HW2 6994   5.248  14.705   5.883
35033SOL     OW 6995   0.975   6.561  12.971
35033SOL    HW1 6996   1.063   6.597  12.971
35033SOL    HW2 6997   0.924   6.621  13.026
35034SOL     OW 6998   3.199   3.396   0.798
35034SOL    HW1 6999   3.279   3.354   0.831
35034SOL    HW2 7000   3.128   3.339   0.829
35035SOL     OW 7001   3.845   7.661   3.876
35035SOL    HW1 7002   3.816   7.585   3.925
35035SOL    HW2 7003   3.839   7.635   3.784
35036SOL     OW 7004  11.307   8.388   9.619
35036SOL    HW1 7005  11.347   8.458   9.567
35036SOL    HW2 7006  11.222   8.373   9.577
35037SOL     OW 7007   0.312  10.595   5.246
35037SOL    HW1 7008   0.391  10.644   5.220
35037SOL    HW2 7009   0.284  10.551   5.166
35038SOL     OW 7010  12.149   5.834  13.918
35038SOL    HW1 7011  12.201   5.757  13.942
35038SOL    HW2 7012  12.089   5.802  13.851
35039SOL     OW 7013   9.060   2.295   3.320
35039SOL    HW1 7014   8.996   2.278   3.389
35039SOL    HW2 7015   9.008   2.301   3.240
35040SOL     OW 7016   9.542  14.290   9.614
35040SOL    HW1 7017   9.589  14.210   9.592
35040SOL    HW2 7018   9.524  14.332   9.529
35041SOL     OW 7019  13.533   6.190   7.254
35041SOL    HW1 7020  13.563   6.242   7.329
35041SOL    HW2 7021  13.502   6.108   7.293
35042SOL     OW 7022   5.631   5.056  14.791
35042SOL    HW1 7023   5.700   5.095  14.846
35042SOL    HW2 7024   5.614   5.122  14.724
35043SOL     OW 7025   9.286   4.893   9.198
35043SOL    HW1 7026   9.353   4.850   9.145
35043SOL    HW2 7027   9.218   4.827   9.210
35044SOL     OW 7028  13.200   9.494   5.875
35044SOL    HW1 7029  13.238   9.558   5.816
35044SOL    HW2 7030  13.205   9.535   5.962
35045SOL     OW 7031   5.287   1.437   4.415
35045SOL    HW1 7032   5.198   1.404   4.412
35045SOL    HW2 7033   5.326   1.410   4.332
35046SOL     OW 7034   3.071   4.245  13.293
35046SOL    HW1 7035   2.998   4.186  13.313
35046SOL    HW2 7036   3.146   4.186  13.279
35047SOL     OW 7037   9.072   5.850   5.520
35047SOL    HW1 7038   9.129   5.841   5.444
35047SOL    HW2 7039   8.991   5.805   5.496
35048SOL     OW 7040   8.733  13.104   7.659
35048SOL    HW1 7041   8.684  13.022   7.651
35048SOL    HW2 7042   8.708  13.155   7.582
35049SOL     OW 7043   7.347   7.458   3.256
35049SOL    HW1 7044   7.318   7.376   3.216
35049SOL    HW2 7045   7.391   7.431   3.336
35050SOL     OW 7046   8.850   2.024  12.829
35050SOL    HW1 7047   8.940   2.050  12.808
35050SOL    HW2 7048   8.860   1.949  12.888
35051SOL     OW 7049  11.302  11.547  10.515
35051SOL    HW1 7050  11.397  11.533  10.518
35051SOL    HW2 7051  11.283  11.595  10.595
35052SOL     OW 7052   3.715   0.043  12.112
35052SOL    HW1 7053   3.705   0.111  12.178
35052SOL    HW2 7054   3.790  14.871  12.143
35053SOL     OW 7055   5.453  13.293   9.760
35053SOL    HW1 7056   5.395  13.369   9.757
35053SOL    HW2 7057   5.393  13.218   9.757
35054SOL     OW 7058   3.167   3.653   3.437
35054SOL    HW1 7059   3.155   3.731   3.382
35054SOL    HW2 7060   3.261   3.644   3.447
35055SOL     OW 7061  13.677   4.837   0.296
35055SOL    HW1 7062  13.608   4.780   0.333
35055SOL    HW2 7063  13.750   4.777   0.278
35056SOL     OW 7064  10.173  12.709   4.980
35056SOL    HW1 7065  10.114  12.676   4.913
35056SOL    HW2 7066  10.155  12.804   4.982
35057SOL     OW 7067  13.342  11.084  10.339
35057SOL    HW1 7068  13.375  11.149  10.277
35057SOL    HW2 7069  13.416  11.064  10.395
35058SOL     OW 7070   7.062  14.705   7.863
35058SOL    HW1 7071   7.155  14.728   7.871
35058SOL    HW2 7072   7.044  14.650   7.939
35059SOL     OW 7073   4.982   2.642  10.201
35059SOL    HW1 7074   4.930   2.617  10.278
35059SOL    HW2 7075   5.061   2.588  10.208
35060SOL     OW 7076  12.139  11.024   3.762
35060SOL    HW1 7077  12.157  11.098   3.819
35060SOL    HW2 7078  12.216  10.968   3.770
35061SOL     OW 7079  12.233  10.656  14.540
35061SOL    HW1 7080  12.195  10.586  14.487
35061SOL    HW2 7081  12.288  10.611  14.604
35062SOL     OW 7082  12.045   1.493   0.662
35062SOL    HW1 7083  12.004   1.407   0.650
35062SOL    HW2 7084  12.112   1.497   0.594
35063SOL     OW 7085  10.980   1.089  12.744
35063SOL    HW1 7086  10.969   1.132  12.659
35063SOL    HW2 7087  11.074   1.078  12.753
35064SOL     OW 7088  14.084   2.349   3.506
35064SOL    HW1 7089  13.990   2.335   3.495
35064SOL    HW2 7090  14.114   2.272   3.554
35065SOL     OW 7091   4.819   7.886   3.877
35065SOL    HW1 7092   4.765   7.933   3.813
35065SOL    HW2 7093   4.878   7.953   3.912
35066SOL     OW 7094   1.229   8.355   7.755
35066SOL    HW1 7095   1.322   8.374   7.742
35066SOL    HW2 7096   1.220   8.342   7.849
35067SOL     OW 7097   7.531  12.546   3.396
35067SOL    HW1 7098   7.540  12.629   3.442
35067SOL    HW2 7099   7.480  12.491   3.454
35068SOL     OW 7100   9.669   4.902   3.308
35068SOL    HW1 7101   9.673   4.810   3.281
35068SOL    HW2 7102   9.587   4.934   3.270
35069SOL     OW 7103   9.317   2.347   4.133
35069SOL    HW1 7104   9.342   2.267   4.087
35069SOL    HW2 7105   9.393   2.404   4.124
35070SOL     OW 7106   0.299  11.224   2.625
35070SOL    HW1 7107   0.225  11.177   2.586
35070SOL    HW2 7108   0.311  11.184   2.711
35071SOL     OW 7109   9.233   7.737   2.134
35071SOL    HW1 7110   9.250   7.748   2.041
35071SOL    HW2 7111   9.255   7.645   2.152
35072SOL     OW 7112  13.206   0.287   1.599
35072SOL    HW1 7113  13.239   0.254   1.682
35072SOL    HW2 7114  13.268   0.356   1.574
35073SOL     OW 7115  12.846  13.056   4.084
35073SOL    HW1 7116  12.936  13.046   4.053
35073SOL    HW2 7117  12.794  13.005   4.023
35074SOL     OW 7118  10.191   2.910  10.195
35074SOL    HW1 7119  10.275   2.914  10.149
35074SOL    HW2 7120  10.213   2.875  10.281
35075SOL     OW 7121   8.542   2.805  11.024
35075SOL    HW1 7122   8.508   2.857  10.951
35075SOL    HW2 7123   8.599   2.865  11.072
35076SOL     OW 7124  13.819  13.884   3.004
35076SOL    HW1 7125  13.869  13.845   3.076
35076SOL    HW2 7126  13.740  13.830   2.997
35077SOL     OW 7127   4.623   9.871   4.968
35077SOL    HW1 7128   4.653   9.818   5.041
35077SOL    HW2 7129   4.698   9.925   4.945
35078SOL     OW 7130   1.459   2.122   9.203
35078SOL    HW1 7131   1.540   2.137   9.154
35078SOL    HW2 7132   1.438   2.030   9.188
35079SOL     OW 7133   8.326   6.524   5.753
35079SOL    HW1 7134   8.317   6.540   5.659
35079SOL    HW2 7135   8.236   6.529   5.786
35080SOL     OW 7136   4.915  11.154   9.798
35080SOL    HW1 7137   4.887  11.170   9.888
35080SOL    HW2 7138   5.002  11.116   9.806
35081SOL     OW 7139   3.054   2.178   7.117
35081SOL    HW1 7140   3.041   2.200   7.024
35081SOL    HW2 7141   3.063   2.262   7.161
35082SOL     OW 7142   5.341   0.666  10.227
35082SOL    HW1 7143   5.426   0.706  10.210
35082SOL    HW2 7144   5.290   0.736  10.268
35083SOL     OW 7145  11.587   7.487   7.548
35083SOL    HW1 7146  11.597   7.428   7.622
35083SOL    HW2 7147  11.523   7.552   7.577
35084SOL     OW 7148   5.099  12.959   1.705
35084SOL    HW1 7149   5.003  12.964   1.705
35084SOL    HW2 7150   5.118  12.875   1.747
35085SOL     OW 7151  13.654   2.599   1.603
35085SOL    HW1 7152  13.636   2.645   1.520
35085SOL    HW2 7153  13.705   2.662   1.654
35086SOL     OW 7154  12.069   7.906   2.036
35086SOL    HW1 7155  12.145   7.905   1.978
35086SOL    HW2 7156  11.999   7.942   1.982
35087SOL     OW 7157  13.906   6.685  13.668
35087SOL    HW1 7158  13.841   6.663  13.601
35087SOL    HW2 7159  13.896   6.617  13.735
35088SOL     OW 7160  10.246  10.017   0.865
35088SOL    HW1 7161  10.313   9.981   0.923
35088SOL    HW2 7162  10.294  10.047   0.788
35089SOL     OW 7163   5.764  12.799  11.705
35089SOL    HW1 7164   5.707  12.876  11.708
35089SOL    HW2 7165   5.836  12.819  11.765
35090SOL     OW 7166   3.698  13.753  13.742
35090SOL    HW1 7167   3.632  13.789  13.683
35090SOL    HW2 7168   3.781  13.763  13.695
35091SOL     OW 7169   9.005  14.477   0.189
35091SOL    HW1 7170   8.912  14.480   0.208
35091SOL    HW2 7171   9.047  14.511   0.269
35092SOL     OW 7172   7.092   2.924  13.154
35092SOL    HW1 7173   7.143   2.844  13.141
35092SOL    HW2 7174   7.046   2.909  13.237
35093SOL     OW 7175   2.029  10.943   4.103
35093SOL    HW1 7176   2.079  10.876   4.150
35093SOL    HW2 7177   2.062  11.026   4.139
35094SOL     OW 7178  13.523   9.240  11.022
35094SOL    HW1 7179  13.531   9.330  11.053
35094SOL    HW2 7180  13.597   9.228  10.963
35095SOL     OW 7181   2.133   0.047   3.782
35095SOL    HW1 7182   2.171   0.110   3.844
35095SOL    HW2 7183   2.209   0.002   3.744
35096SOL     OW 7184   7.982   6.025   9.778
35096SOL    HW1 7185   7.958   6.090   9.845
35096SOL    HW2 7186   8.040   6.072   9.718
35097SOL     OW 7187  12.268   2.326  12.032
35097SOL    HW1 7188  12.279   2.352  12.124
35097SOL    HW2 7189  12.347   2.358  11.989
35098SOL     OW 7190  14.499  14.763  14.179
35098SOL    HW1 7191  14.583  14.791  14.218
35098SOL    HW2 7192  14.504  14.793  14.088
35099SOL     OW 7193   0.870  11.511   2.854
35099SOL    HW1 7194   0.910  11.491   2.939
35099SOL    HW2 7195   0.803  11.444   2.843
35100SOL     OW 7196  14.642   8.044   8.615
35100SOL    HW1 7197  14.705   8.038   8.687
35100SOL    HW2 7198  14.636   7.954   8.581
35101SOL     OW 7199   9.022   4.232  12.344
35101SOL    HW1 7200   9.094   4.170  12.342
35101SOL    HW2 7201   8.997   4.243  12.252
35102SOL     OW 7202   2.103   1.449   9.180
35102SOL    HW1 7203   2.096   1.460   9.275
35102SOL    HW2 7204   2.168   1.513   9.153
35103SOL     OW 7205  12.016  13.647   6.006
35103SOL    HW1 7206  12.094  13.591   6.005
35103SOL    HW2 7207  11.973  13.625   6.089
35104SOL     OW 7208   2.885  11.936   3.262
35104SOL    HW1 7209   2.948  11.887   3.315
35104SOL    HW2 7210   2.813  11.875   3.248
35105SOL     OW 7211   2.751  14.247  13.192
35105SOL    HW1 7212   2.688  14.296  13.140
35105SOL    HW2 7213   2.825  14.306  13.203
35106SOL     OW 7214   4.077   7.417   9.648
35106SOL    HW1 7215   4.082   7.455   9.560
35106SOL    HW2 7216   4.118   7.331   9.640
35107SOL     OW 7217   2.070   2.193  12.412
35107SOL    HW1 7218   2.058   2.243  12.332
35107SOL    HW2 7219   2.116   2.252  12.471
35108SOL     OW 7220  11.572   1.617  14.461
35108SOL    HW1 7221  11.511   1.562  14.511
35108SOL    HW2 7222  11.612   1.557  14.397
35109SOL     OW 7223   4.428   5.008   2.601
35109SOL    HW1 7224   4.494   4.940   2.617
35109SOL    HW2 7225   4.479   5.086   2.579
35110SOL     OW 7226   5.416   7.704   0.136
35110SOL    HW1 7227   5.345   7.690   0.075
35110SOL    HW2 7228   5.494   7.670   0.092
35111SOL     OW 7229  10.483   8.511   5.374
35111SOL    HW1 7230  10.520   8.441   5.321
35111SOL    HW2 7231  10.554   8.575   5.383
35112SOL     OW 7232   6.726  14.844  12.449
35112SOL    HW1 7233   6.768   0.038  12.406
35112SOL    HW2 7234   6.635  14.847  12.420
35113SOL     OW 7235  11.990   9.926  10.227
35113SOL    HW1 7236  11.920   9.862  10.242
35113SOL    HW2 7237  12.058   9.904  10.290
35114SOL     OW 7238  13.281   4.465   1.864
35114SOL    HW1 7239  13.228   4.480   1.786
35114SOL    HW2 7240  13.251   4.531   1.926
35115SOL     OW 7241   5.269  13.324   2.127
35115SOL    HW1 7242   5.192  13.381   2.126
35115SOL    HW2 7243   5.236  13.240   2.094
35116SOL     OW 7244   5.590   8.842  10.348
35116SOL    HW1 7245   5.565   8.885  10.429
35116SOL    HW2 7246   5.683   8.863  10.336
35117SOL     OW 7247   2.503   2.703   7.790
35117SOL    HW1 7248   2.573   2.670   7.733
35117SOL    HW2 7249   2.527   2.794   7.808
35118SOL     OW 7250   7.573   9.438   8.246
35118SOL    HW1 7251   7.573   9.344   8.232
35118SOL    HW2 7252   7.662   9.466   8.224
35119SOL     OW 7253   9.918   5.510  12.299
35119SOL    HW1 7254   9.979   5.535  12.230
35119SOL    HW2 7255   9.929   5.416  12.308
35120SOL     OW 7256   2.468   2.487   2.700
35120SOL    HW1 7257   2.562   2.473   2.707
35120SOL    HW2 7258   2.459   2.578   2.672
35121SOL     OW 7259   8.643   0.757  10.929
35121SOL    HW1 7260   8.729   0.719  10.910
35121SOL    HW2 7261   8.581   0.694  10.892
35122SOL     OW 7262  13.623  13.376   1.229
35122SOL    HW1 7263  13.583  13.454   1.191
35122SOL    HW2 7264  13.715  13.400   1.241
35123SOL     OW 7265  13.183   6.660  12.822
35123SOL    HW1 7266  13.157   6.703  12.740
35123SOL    HW2 7267  13.276   6.680  12.831
35124SOL     OW 7268  13.742   0.861  13.673
35124SOL    HW1 7269  13.661   0.817  13.650
35124SOL    HW2 7270  13.793   0.861  13.592
35125SOL     OW 7271   9.104  12.695   8.958
35125SOL    HW1 7272   9.027  12.646   8.928
35125SOL    HW2 7273   9.078  12.787   8.951
35126SOL     OW 7274   8.720  14.398   9.712
35126SOL    HW1 7275   8.634  14.438   9.727
35126SOL    HW2 7276   8.780  14.447   9.768
35127SOL     OW 7277   0.466   0.085   1.799
35127SOL    HW1 7278   0.393   0.031   1.769
35127SOL    HW2 7279   0.475   0.153   1.733
35128SOL     OW 7280   2.579   1.957   7.520
35128SOL    HW1 7281   2.664   2.000   7.529
35128SOL    HW2 7282   2.593   1.889   7.455
35129SOL     OW 7283  11.646   4.346   9.016
35129SOL    HW1 7284  11.558   4.318   8.993
35129SOL    HW2 7285  11.642   4.441   9.015
35130SOL     OW 7286   1.112  12.762  11.287
35130SOL    HW1 7287   1.206  12.751  11.293
35130SOL    HW2 7288   1.078  12.673  11.272
35131SOL     OW 7289   0.107  11.333   6.717
35131SOL    HW1 7290   0.059  11.250   6.719
35131SOL    HW2 7291   0.111  11.357   6.625
35132SOL     OW 7292  13.557  13.008   8.657
35132SOL    HW1 7293  13.478  12.963   8.626
35132SOL    HW2 7294  13.608  13.024   8.578
35133SOL     OW 7295   2.389   9.998   9.270
35133SOL    HW1 7296   2.435   9.927   9.313
35133SOL    HW2 7297   2.296   9.982   9.288
35134SOL     OW 7298   9.043  12.049   8.759
35134SOL    HW1 7299   9.035  12.044   8.664
35134SOL    HW2 7300   9.014  12.137   8.782
35135SOL     OW 7301  10.145  11.503  12.255
35135SOL    HW1 7302  10.240  11.505  12.266
35135SOL    HW2 7303  10.117  11.592  12.278
35136SOL     OW 7304   0.670  14.074   9.739
35136SOL    HW1 7305   0.613  14.033   9.674
35136SOL    HW2 7306   0.670  14.167   9.717
35137SOL     OW 7307   6.799   6.022   2.895
35137SOL    HW1 7308   6.867   5.967   2.857
35137SOL    HW2 7309   6.838   6.109   2.901
35138SOL     OW 7310  14.397  14.652   6.012
35138SOL    HW1 7311  14.489  14.647   6.037
35138SOL    HW2 7312  14.368  14.561   6.010
35139SOL     OW 7313  11.679   9.157  14.108
35139SOL    HW1 7314  11.675   9.066  14.080
35139SOL    HW2 7315  11.761   9.165  14.156
35140SOL     OW 7316  13.237  10.237   7.899
35140SOL    HW1 7317  13.158  10.281   7.931
35140SOL    HW2 7318  13.238  10.256   7.805
35141SOL     OW 7319   1.098   2.024   2.326
35141SOL    HW1 7320   1.023   2.045   2.270
35141SOL    HW2 7321   1.171   2.071   2.287
35142SOL     OW 7322  10.266  14.211   9.370
35142SOL    HW1 7323  10.282  14.164   9.288
35142SOL    HW2 7324  10.171  14.210   9.379
35143SOL     OW 7325  12.246   1.277  11.890
35143SOL    HW1 7326  12.190   1.326  11.950
35143SOL    HW2 7327  12.230   1.317  11.804
35144SOL     OW 7328  10.430   6.802   7.186
35144SOL    HW1 7329  10.370   6.866   7.224
35144SOL    HW2 7330  10.424   6.818   7.091
35145SOL     OW 7331   8.453   1.368   0.587
35145SOL    HW1 7332   8.504   1.422   0.527
35145SOL    HW2 7333   8.444   1.284   0.542
35146SOL     OW 7334   3.519  14.335  13.623
35146SOL    HW1 7335   3.572  14.402  13.665
35146SOL    HW2 7336   3.493  14.373  13.540
35147SOL     OW 7337   4.670  10.135   5.179
35147SOL    HW1 7338   4.601  10.137   5.113
35147SOL    HW2 7339   4.625  10.142   5.263
35148SOL     OW 7340  12.828   4.084   5.040
35148SOL    HW1 7341  12.874   4.135   4.973
35148SOL    HW2 7342  12.741   4.069   5.003
35149SOL     OW 7343   5.239   6.884  13.679
35149SOL    HW1 7344   5.334   6.888  13.685
35149SOL    HW2 7345   5.222   6.807  13.624
35150SOL     OW 7346   0.171   1.448  11.308
35150SOL    HW1 7347   0.109   1.488  11.247
35150SOL    HW2 7348   0.144   1.479  11.394
35151SOL     OW 7349   1.018   3.886  11.616
35151SOL    HW1 7350   1.035   3.845  11.530
35151SOL    HW2 7351   1.093   3.943  11.631
35152SOL     OW 7352   1.376   7.469   6.416
35152SOL    HW1 7353   1.290   7.510   6.418
35152SOL    HW2 7354   1.403   7.473   6.324
35153SOL     OW 7355   1.529   9.535   4.758
35153SOL    HW1 7356   1.440   9.568   4.769
35153SOL    HW2 7357   1.576   9.606   4.715
35154SOL     OW 7358   7.321  11.654   2.589
35154SOL    HW1 7359   7.397  11.712   2.600
35154SOL    HW2 7360   7.263  11.702   2.530
35155SOL     OW 7361  10.499   9.106   0.145
35155SOL    HW1 7362  10.524   9.133   0.056
35155SOL    HW2 7363  10.417   9.151   0.161
35156SOL     OW 7364   7.405  14.664   6.052
35156SOL    HW1 7365   7.368  14.645   6.138
35156SOL    HW2 7366   7.413  14.578   6.010
35157SOL     OW 7367   6.250  14.437   1.905
35157SOL    HW1 7368   6.291  14.358   1.869
35157SOL    HW2 7369   6.323  14.490   1.937
35158SOL     OW 7370   8.690  11.353   3.961
35158SOL    HW1 7371   8.706  11.259   3.963
35158SOL    HW2 7372   8.609  11.365   4.011
35159SOL     OW 7373   1.868   3.894   0.061
35159SOL    HW1 7374   1.775   3.913   0.071
35159SOL    HW2 7375   1.879   3.808   0.102
35160SOL     OW 7376   5.728   6.481   2.921
35160SOL    HW1 7377   5.735   6.545   2.850
35160SOL    HW2 7378   5.757   6.529   2.999
35161SOL     OW 7379   7.803   4.219   4.922
35161SOL    HW1 7380   7.822   4.163   4.997
35161SOL    HW2 7381   7.725   4.180   4.882
35162SOL     OW 7382   8.852   6.153   8.292
35162SOL    HW1 7383   8.948   6.153   8.286
35162SOL    HW2 7384   8.830   6.064   8.317
35163SOL     OW 7385  10.106   6.173   6.027
35163SOL    HW1 7386  10.113   6.080   6.004
35163SOL    HW2 7387  10.174   6.187   6.092
35164SOL     OW 7388  14.544   0.644   6.079
35164SOL    HW1 7389  14.478   0.650   6.009
35164SOL    HW2 7390  14.570   0.735   6.094
35165SOL     OW 7391   9.828   6.900   9.546
35165SOL    HW1 7392   9.892   6.920   9.615
35165SOL    HW2 7393   9.879   6.903   9.465
35166SOL     OW 7394   7.314   9.714  10.779
35166SOL    HW1 7395   7.225   9.744  10.763
35166SOL    HW2 7396   7.311   9.675  10.867
35167SOL     OW 7397   6.176   3.008   2.581
35167SOL    HW1 7398   6.205   2.980   2.668
35167SOL    HW2 7399   6.217   3.094   2.568
35168SOL     OW 7400  13.859  11.593   2.696
35168SOL    HW1 7401  13.876  11.662   2.760
35168SOL    HW2 7402  13.936  11.537   2.701
35169SOL     OW 7403  14.596   9.701   9.901
35169SOL    HW1 7404  14.529   9.637   9.925
35169SOL    HW2 7405  14.662   9.693   9.970
35170SOL     OW 7406   0.514  11.503  13.150
35170SOL    HW1 7407   0.532  11.593  13.177
35170SOL    HW2 7408   0.498  11.456  13.232
35171SOL     OW 7409   2.032   5.824   9.589
35171SOL    HW1 7410   2.094   5.751   9.594
35171SOL    HW2 7411   2.086   5.903   9.600
35172SOL     OW 7412   9.130   5.566   0.654
35172SOL    HW1 7413   9.097   5.560   0.744
35172SOL    HW2 7414   9.052   5.577   0.601
35173SOL     OW 7415   0.821   6.102   7.055
35173SOL    HW1 7416   0.776   6.114   7.138
35173SOL    HW2 7417   0.900   6.155   7.062
35174SOL     OW 7418   9.751   9.292   2.834
35174SOL    HW1 7419   9.802   9.308   2.755
35174SOL    HW2 7420   9.806   9.233   2.887
35175SOL     OW 7421   4.494   3.852   5.078
35175SOL    HW1 7422   4.536   3.920   5.132
35175SOL    HW2 7423   4.556   3.779   5.079
35176SOL     OW 7424   1.901  13.716   7.187
35176SOL    HW1 7425   1.934  13.726   7.277
35176SOL    HW2 7426   1.952  13.643   7.152
35177SOL     OW 7427  10.837   9.233  14.310
35177SOL    HW1 7428  10.865   9.323  14.328
35177SOL    HW2 7429  10.916   9.180  14.321
35178SOL     OW 7430   4.082   0.445   1.289
35178SOL    HW1 7431   4.108   0.409   1.204
35178SOL    HW2 7432   3.987   0.450   1.284
35179SOL     OW 7433  12.715  10.257  12.159
35179SOL    HW1 7434  12.690  10.239  12.069
35179SOL    HW2 7435  12.715  10.352  12.166
35180SOL     OW 7436   1.635   1.803   5.934
35180SOL    HW1 7437   1.567   1.807   6.002
35180SOL    HW2 7438   1.586   1.788   5.853
35181SOL     OW 7439   8.588   9.289  11.153
35181SOL    HW1 7440   8.663   9.332  11.194
35181SOL    HW2 7441   8.520   9.290  11.222
35182SOL     OW 7442   4.589   1.821   6.553
35182SOL    HW1 7443   4.660   1.767   6.587
35182SOL    HW2 7444   4.539   1.846   6.630
35183SOL     OW 7445   5.295  14.782   6.965
35183SOL    HW1 7446   5.340  14.722   7.024
35183SOL    HW2 7447   5.279  14.729   6.886
35184SOL     OW 7448   6.667   7.647  10.674
35184SOL    HW1 7449   6.737   7.689  10.725
35184SOL    HW2 7450   6.698   7.650  10.584
35185SOL     OW 7451   1.072  10.982  14.646
35185SOL    HW1 7452   0.978  11.000  14.651
35185SOL    HW2 7453   1.114  11.061  14.679
35186SOL     OW 7454   1.613   2.411   0.886
35186SOL    HW1 7455   1.568   2.388   0.804
35186SOL    HW2 7456   1.609   2.506   0.890
35187SOL     OW 7457  14.743   0.048   3.924
35187SOL    HW1 7458  14.682  14.879   3.978
35187SOL    HW2 7459  14.787  14.863   3.871
35188SOL     OW 7460   9.801  14.593  13.969
35188SOL    HW1 7461   9.746  14.628  13.899
35188SOL    HW2 7462   9.870  14.659  13.979
35189SOL     OW 7463  12.095  11.385   9.719
35189SOL    HW1 7464  12.120  11.305   9.672
35189SOL    HW2 7465  12.165  11.447   9.699
35190SOL     OW 7466  11.502  10.321  10.981
35190SOL    HW1 7467  11.560  10.345  11.053
35190SOL    HW2 7468  11.491  10.227  10.988
35191SOL     OW 7469   3.158   4.744  14.286
35191SOL    HW1 7470   3.214   4.674  14.320
35191SOL    HW2 7471   3.218   4.799  14.234
35192SOL     OW 7472   5.625   8.156   2.156
35192SOL    HW1 7473   5.553   8.217   2.173
35192SOL    HW2 7474   5.596   8.104   2.081
35193SOL     OW 7475   3.618   7.838  13.703
35193SOL    HW1 7476   3.534   7.825  13.659
35193SOL    HW2 7477   3.597   7.893  13.779
35194SOL     OW 7478   9.899   2.460  12.917
35194SOL    HW1 7479   9.885   2.444  12.823
35194SOL    HW2 7480   9.942   2.545  12.921
35195SOL     OW 7481   0.651   5.346   9.809
35195SOL    HW1 7482   0.717   5.294   9.764
35195SOL    HW2 7483   0.579   5.353   9.747
35196SOL     OW 7484  13.312   8.515   7.440
35196SOL    HW1 7485  13.298   8.514   7.345
35196SOL    HW2 7486  13.316   8.422   7.464
35197SOL     OW 7487  10.663   7.802  13.422
35197SOL    HW1 7488  10.586   7.792  13.478
35197SOL    HW2 7489  10.737   7.781  13.480
35198SOL     OW 7490   4.568  10.747   3.311
35198SOL    HW1 7491   4.509  10.682   3.274
35198SOL    HW2 7492   4.548  10.828   3.264
35199SOL     OW 7493   0.993  13.006   1.165
35199SOL    HW1 7494   1.088  13.012   1.166
35199SOL    HW2 7495   0.974  12.918   1.197
35200SOL     OW 7496   3.039   3.623  13.014
35200SOL    HW1 7497   2.947   3.632  12.987
35200SOL    HW2 7498   3.086   3.602  12.933
35201SOL     OW 7499  11.203   4.331   3.990
35201SOL    HW1 7500  11.261   4.393   4.035
35201SOL    HW2 7501  11.261   4.277   3.938
35202SOL     OW 7502   4.681  12.920  11.636
35202SOL    HW1 7503   4.770  12.884  11.641
35202SOL    HW2 7504   4.656  12.936  11.727
35203SOL     OW 7505   7.154   0.093   8.565
35203SOL    HW1 7506   7.116   0.008   8.585
35203SOL    HW2 7507   7.248   0.081   8.578
35204SOL     OW 7508   5.359   3.859  13.094
35204SOL    HW1 7509   5.320   3.868  13.008
35204SOL    HW2 7510   5.426   3.791  13.084
35205SOL     OW 7511   8.227   4.050  11.162
35205SOL    HW1 7512   8.150   3.995  11.147
35205SOL    HW2 7513   8.260   4.069  11.074
35206SOL     OW 7514   0.034   4.058   4.119
35206SOL    HW1 7515   0.063   4.133   4.171
35206SOL    HW2 7516   0.018   4.093   4.032
35207SOL     OW 7517   7.683   6.960   4.582
35207SOL    HW1 7518   7.735   7.010   4.645
35207SOL    HW2 7519   7.602   6.940   4.628
35208SOL     OW 7520   6.248   2.823  12.795
35208SOL    HW1 7521   6.333   2.780  12.789
35208SOL    HW2 7522   6.186   2.750  12.805
35209SOL     OW 7523   1.596   6.811  12.842
35209SOL    HW1 7524   1.640   6.813  12.756
35209SOL    HW2 7525   1.505   6.833  12.822
35210SOL     OW 7526   1.076  11.699   1.529
35210SOL    HW1 7527   1.032  11.617   1.552
35210SOL    HW2 7528   1.043  11.763   1.592
35211SOL     OW 7529   3.526   1.324   2.942
35211SOL    HW1 7530   3.581   1.336   2.865
35211SOL    HW2 7531   3.580   1.272   3.002
35212SOL     OW 7532   5.057  13.204   1.553
35212SOL    HW1 7533   5.023  13.276   1.606
35212SOL    HW2 7534   5.075  13.135   1.617
35213SOL     OW 7535   2.611   1.659   1.913
35213SOL    HW1 7536   2.663   1.600   1.969
35213SOL    HW2 7537   2.674   1.725   1.884
35214SOL     OW 7538   7.620   2.357   1.204
35214SOL    HW1 7539   7.533   2.391   1.183
35214SOL    HW2 7540   7.622   2.271   1.162
35215SOL     OW 7541   7.741  10.059   9.055
35215SOL    HW1 7542   7.755  10.049   8.961
35215SOL    HW2 7543   7.650  10.089   9.063
35216SOL     OW 7544  11.099   9.837   1.611
35216SOL    HW1 7545  11.037   9.866   1.544
35216SOL    HW2 7546  11.051   9.844   1.693
35217SOL     OW 7547   6.715  12.602  13.042
35217SOL    HW1 7548   6.652  12.672  13.060
35217SOL    HW2 7549   6.689  12.569  12.956
35218SOL     OW 7550   8.080   9.259   5.350
35218SOL    HW1 7551   8.084   9.206   5.270
35218SOL    HW2 7552   8.150   9.323   5.341
35219SOL     OW 7553   7.887   7.599  10.491
35219SOL    HW1 7554   7.857   7.620  10.403
35219SOL    HW2 7555   7.930   7.514  10.482
35220SOL     OW 7556   3.519   3.544   8.978
35220SOL    HW1 7557   3.442   3.586   8.938
35220SOL    HW2 7558   3.492   3.523   9.067
35221SOL     OW 7559  14.547  12.841  12.413
35221SOL    HW1 7560  14.499  12.761  12.436
35221SOL    HW2 7561  14.504  12.910  12.463
35222SOL     OW 7562   1.697  13.597   8.260
35222SOL    HW1 7563   1.753  13.523   8.236
35222SOL    HW2 7564   1.751  13.674   8.246
35223SOL     OW 7565   2.852   4.324  14.656
35223SOL    HW1 7566   2.853   4.238  14.614
35223SOL    HW2 7567   2.806   4.380  14.594
35224SOL     OW 7568  11.537   8.538  14.109
35224SOL    HW1 7569  11.445   8.534  14.082
35224SOL    HW2 7570  11.564   8.628  14.087
35225SOL     OW 7571   7.565  14.232   0.815
35225SOL    HW1 7572   7.637  14.226   0.878
35225SOL    HW2 7573   7.486  14.230   0.869
35226SOL     OW 7574   5.758   2.993   3.489
35226SOL    HW1 7575   5.714   3.045   3.557
35226SOL    HW2 7576   5.770   3.055   3.417
35227SOL     OW 7577  11.463   1.014  11.490
35227SOL    HW1 7578  11.539   1.010  11.548
35227SOL    HW2 7579  11.495   1.054  11.409
35228SOL     OW 7580  10.805   7.843   6.446
35228SOL    HW1 7581  10.741   7.813   6.383
35228SOL    HW2 7582  10.830   7.931   6.416
35229SOL     OW 7583   9.899  12.088   8.352
35229SOL    HW1 7584   9.862  12.161   8.401
35229SOL    HW2 7585   9.993  12.092   8.370
35230SOL     OW 7586  10.803  13.633   6.376
35230SOL    HW1 7587  10.748  13.660   6.449
35230SOL    HW2 7588  10.892  13.657   6.403
35231SOL     OW 7589  13.220   1.717   4.194
35231SOL    HW1 7590  13.306   1.740   4.159
35231SOL    HW2 7591  13.159   1.741   4.124
35232SOL     OW 7592  11.791  12.562   8.248
35232SOL    HW1 7593  11.787  12.479   8.296
35232SOL    HW2 7594  11.769  12.538   8.158
35233SOL     OW 7595   1.486   8.225  10.687
35233SOL    HW1 7596   1.516   8.136  10.668
35233SOL    HW2 7597   1.397   8.213  10.721
35234SOL     OW 7598   5.575   8.879   7.095
35234SOL    HW1 7599   5.610   8.893   7.183
35234SOL    HW2 7600   5.512   8.807   7.105
35235SOL     OW 7601  10.699   4.314  12.563
35235SOL    HW1 7602  10.636   4.305  12.492
35235SOL    HW2 7603  10.721   4.407  12.564
35236SOL     OW 7604   5.184   4.907   2.750
35236SOL    HW1 7605   5.125   4.977   2.778
35236SOL    HW2 7606   5.131   4.828   2.752
35237SOL     OW 7607   4.742  11.836   9.683
35237SOL    HW1 7608   4.691  11.786   9.746
35237SOL    HW2 7609   4.739  11.926   9.716
35238SOL     OW 7610   9.168  14.028   0.523
35238SOL    HW1 7611   9.173  13.937   0.552
35238SOL    HW2 7612   9.076  14.041   0.500
35239SOL     OW 7613  11.941   0.494  11.205
35239SOL    HW1 7614  11.856   0.452  11.191
35239SOL    HW2 7615  11.920   0.585  11.227
35240SOL     OW 7616   6.752  11.538   1.653
35240SOL    HW1 7617   6.808  11.524   1.576
35240SOL    HW2 7618   6.779  11.624   1.686
35241SOL     OW 7619   5.222  11.100  13.075
35241SOL    HW1 7620   5.231  11.015  13.117
35241SOL    HW2 7621   5.310  11.137  13.074
35242SOL     OW 7622  12.021   4.371   0.500
35242SOL    HW1 7623  12.009   4.301   0.564
35242SOL    HW2 7624  12.108   4.406   0.519
35243SOL     OW 7625   2.732  14.088  12.747
35243SOL    HW1 7626   2.784  14.033  12.688
35243SOL    HW2 7627   2.795  14.151  12.782
35244SOL     OW 7628   3.372  10.026   1.430
35244SOL    HW1 7629   3.466  10.028   1.444
35244SOL    HW2 7630   3.341  10.111   1.462
35245SOL     OW 7631  14.825  13.284   9.659
35245SOL    HW1 7632  14.734  13.253   9.653
35245SOL    HW2 7633  14.836  13.307   9.752
35246SOL     OW 7634   1.463   5.233   5.871
35246SOL    HW1 7635   1.390   5.292   5.855
35246SOL    HW2 7636   1.516   5.239   5.791
35247SOL     OW 7637  14.431   6.275   6.754
35247SOL    HW1 7638  14.500   6.320   6.802
35247SOL    HW2 7639  14.383   6.226   6.821
35248SOL     OW 7640  10.003  11.988  13.535
35248SOL    HW1 7641  10.054  11.906  13.533
35248SOL    HW2 7642   9.988  12.005  13.628
35249SOL     OW 7643   3.541   9.524  10.058
35249SOL    HW1 7644   3.496   9.605  10.033
35249SOL    HW2 7645   3.591   9.547  10.136
35250SOL     OW 7646   1.600  13.951  10.925
35250SOL    HW1 7647   1.511  13.947  10.960
35250SOL    HW2 7648   1.624  14.043  10.931
35251SOL     OW 7649   7.253  13.363   5.038
35251SOL    HW1 7650   7.341  13.401   5.035
35251SOL    HW2 7651   7.261  13.279   4.992
35252SOL     OW 7652  10.485  10.543  14.164
35252SOL    HW1 7653  10.463  10.594  14.086
35252SOL    HW2 7654  10.547  10.477  14.133
35253SOL     OW 7655   8.857   5.305   5.294
35253SOL    HW1 7656   8.880   5.242   5.362
35253SOL    HW2 7657   8.776   5.271   5.257
35254SOL     OW 7658  11.145   6.824   3.443
35254SOL    HW1 7659  11.079   6.867   3.389
35254SOL    HW2 7660  11.198   6.896   3.477
35255SOL     OW 7661   3.561  13.492   2.755
35255SOL    HW1 7662   3.504  13.434   2.703
35255SOL    HW2 7663   3.503  13.528   2.822
35256SOL     OW 7664  10.862   1.257   1.150
35256SOL    HW1 7665  10.858   1.200   1.227
35256SOL    HW2 7666  10.868   1.197   1.076
35257SOL     OW 7667   4.551   8.009  12.005
35257SOL    HW1 7668   4.546   8.061  11.925
35257SOL    HW2 7669   4.460   7.998  12.033
35258SOL     OW 7670  12.979  10.499   5.336
35258SOL    HW1 7671  12.909  10.563   5.352
35258SOL    HW2 7672  13.060  10.549   5.350
35259SOL     OW 7673   2.658  11.074   6.323
35259SOL    HW1 7674   2.653  10.980   6.342
35259SOL    HW2 7675   2.579  11.093   6.274
35260SOL     OW 7676   2.530  13.919   8.699
35260SOL    HW1 7677   2.532  13.942   8.606
35260SOL    HW2 7678   2.496  13.830   8.701
35261SOL     OW 7679   1.278   7.882   6.394
35261SOL    HW1 7680   1.367   7.851   6.377
35261SOL    HW2 7681   1.234   7.809   6.436
35262SOL     OW 7682  14.492   3.549   3.558
35262SOL    HW1 7683  14.563   3.532   3.496
35262SOL    HW2 7684  14.533   3.598   3.629
35263SOL     OW 7685   6.384   6.620   7.487
35263SOL    HW1 7686   6.398   6.597   7.395
35263SOL    HW2 7687   6.437   6.556   7.535
35264SOL     OW 7688  11.298  12.680   9.647
35264SOL    HW1 7689  11.255  12.597   9.627
35264SOL    HW2 7690  11.386  12.656   9.674
35265SOL     OW 7691   8.103   2.457   2.205
35265SOL    HW1 7692   8.067   2.379   2.248
35265SOL    HW2 7693   8.028   2.515   2.193
35266SOL     OW 7694   6.959   9.650   7.523
35266SOL    HW1 7695   7.039   9.700   7.511
35266SOL    HW2 7696   6.891   9.700   7.477
35267SOL     OW 7697  10.279   9.597  10.048
35267SOL    HW1 7698  10.219   9.527  10.072
35267SOL    HW2 7699  10.363   9.554  10.034
35268SOL     OW 7700  10.344  11.861   4.261
35268SOL    HW1 7701  10.357  11.848   4.355
35268SOL    HW2 7702  10.424  11.906   4.232
35269SOL     OW 7703   1.013   5.753   4.685
35269SOL    HW1 7704   1.046   5.836   4.720
35269SOL    HW2 7705   1.034   5.756   4.592
35270SOL     OW 7706   1.418   5.854   7.988
35270SOL    HW1 7707   1.328   5.868   8.016
35270SOL    HW2 7708   1.445   5.773   8.030
35271SOL     OW 7709  14.817   6.247   1.112
35271SOL    HW1 7710  14.863   6.226   1.030
35271SOL    HW2 7711  14.848   6.182   1.174
35272SOL     OW 7712   8.233   2.887   5.362
35272SOL    HW1 7713   8.291   2.822   5.399
35272SOL    HW2 7714   8.145   2.849   5.371
35273SOL     OW 7715   4.571  10.385   2.878
35273SOL    HW1 7716   4.622  10.450   2.830
35273SOL    HW2 7717   4.629  10.355   2.948
35274SOL     OW 7718  11.192   3.198  13.827
35274SOL    HW1 7719  11.224   3.283  13.797
35274SOL    HW2 7720  11.153   3.157  13.750
35275SOL     OW 7721  14.642  11.423  13.917
35275SOL    HW1 7722  14.673  11.362  13.851
35275SOL    HW2 7723  14.656  11.510  13.878
35276SOL     OW 7724   7.730  10.522   5.006
35276SOL    HW1 7725   7.732  10.427   5.001
35276SOL    HW2 7726   7.652  10.547   4.957
35277SOL     OW 7727   7.843   6.750   6.417
35277SOL    HW1 7728   7.758   6.784   6.389
35277SOL    HW2 7729   7.849   6.774   6.509
35278SOL     OW 7730   4.501   5.934  13.088
35278SOL    HW1 7731   4.465   6.005  13.034
35278SOL    HW2 7732   4.472   5.954  13.177
35279SOL     OW 7733   1.749  14.420   1.233
35279SOL    HW1 7734   1.685  14.358   1.268
35279SOL    HW2 7735   1.760  14.394   1.142
35280SOL     OW 7736  10.666  11.157   8.616
35280SOL    HW1 7737  10.726  11.089   8.586
35280SOL    HW2 7738  10.703  11.186   8.699
35281SOL     OW 7739   5.808   5.736   6.804
35281SOL    HW1 7740   5.860   5.778   6.735
35281SOL    HW2 7741   5.789   5.807   6.866
35282SOL     OW 7742  14.304  11.645  11.358
35282SOL    HW1 7743  14.220  11.662  11.402
35282SOL    HW2 7744  14.338  11.732  11.338
35283SOL     OW 7745   4.535  10.511  12.704
35283SOL    HW1 7746   4.522  10.421  12.734
35283SOL    HW2 7747   4.480  10.563  12.762
35284SOL     OW 7748   0.995   4.841   4.235
35284SOL    HW1 7749   0.931   4.855   4.166
35284SOL    HW2 7750   0.951   4.867   4.315
35285SOL     OW 7751  12.145   8.571   9.190
35285SOL    HW1 7752  12.081   8.503   9.168
35285SOL    HW2 7753  12.230   8.532   9.169
35286SOL     OW 7754  10.896  12.212  13.914
35286SOL    HW1 7755  10.864  12.182  13.999
35286SOL    HW2 7756  10.824  12.192  13.853
35287SOL     OW 7757  12.578   0.568  13.790
35287SOL    HW1 7758  12.577   0.662  13.769
35287SOL    HW2 7759  12.569   0.565  13.886
35288SOL     OW 7760   1.267   9.763  12.180
35288SOL    HW1 7761   1.283   9.817  12.103
35288SOL    HW2 7762   1.320   9.685  12.167
35289SOL     OW 7763   6.201  11.070   3.329
35289SOL    HW1 7764   6.242  11.024   3.403
35289SOL    HW2 7765   6.191  11.003   3.262
35290SOL     OW 7766   7.849  11.710  12.176
35290SOL    HW1 7767   7.906  11.643  12.214
35290SOL    HW2 7768   7.761  11.673  12.180
35291SOL     OW 7769   7.340   4.731  14.318
35291SOL    HW1 7770   7.284   4.684  14.256
35291SOL    HW2 7771   7.385   4.797  14.265
35292SOL     OW 7772  13.503   7.962   8.491
35292SOL    HW1 7773  13.489   8.050   8.456
35292SOL    HW2 7774  13.536   7.912   8.416
35293SOL     OW 7775  12.719   6.142   1.518
35293SOL    HW1 7776  12.636   6.180   1.489
35293SOL    HW2 7777  12.704   6.047   1.517
35294SOL     OW 7778   7.526  13.788  10.687
35294SOL    HW1 7779   7.432  13.771  10.694
35294SOL    HW2 7780   7.558  13.786  10.778
35295SOL     OW 7781  14.026   7.750  14.487
35295SOL    HW1 7782  13.934   7.723  14.492
35295SOL    HW2 7783  14.064   7.694  14.419
35296SOL     OW 7784   7.989   5.884  14.588
35296SOL    HW1 7785   7.986   5.975  14.619
35296SOL    HW2 7786   8.017   5.890  14.497
35297SOL     OW 7787  14.839   7.150   8.110
35297SOL    HW1 7788  14.841   7.096   8.189
35297SOL    HW2 7789  14.791   7.097   8.047
35298SOL     OW 7790   1.031  11.431   6.864
35298SOL    HW1 7791   1.111  11.390   6.897
35298SOL    HW2 7792   1.055  11.464   6.777
35299SOL     OW 7793  11.121  13.406   4.259
35299SOL    HW1 7794  11.042  13.460   4.270
35299SOL    HW2 7795  11.192  13.470   4.250
35300SOL     OW 7796  13.972  13.022   5.785
35300SOL    HW1 7797  13.940  13.012   5.695
35300SOL    HW2 7798  13.985  12.933   5.816
35301SOL     OW 7799  11.862   7.737   4.980
35301SOL    HW1 7800  11.816   7.655   5.000
35301SOL    HW2 7801  11.794   7.793   4.941
35302SOL     OW 7802   4.165  11.139   1.151
35302SOL    HW1 7803   4.260  11.142   1.143
35302SOL    HW2 7804   4.136  11.227   1.123
35303SOL     OW 7805  12.174   8.544  11.244
35303SOL    HW1 7806  12.229   8.586  11.311
35303SOL    HW2 7807  12.211   8.573  11.161
35304SOL     OW 7808   6.865   0.276   4.169
35304SOL    HW1 7809   6.885   0.320   4.252
35304SOL    HW2 7810   6.924   0.318   4.105
35305SOL     OW 7811   9.404  13.890   1.422
35305SOL    HW1 7812   9.430  13.973   1.462
35305SOL    HW2 7813   9.309  13.891   1.425
35306SOL     OW 7814   2.629   1.300   3.503
35306SOL    HW1 7815   2.589   1.380   3.538
35306SOL    HW2 7816   2.716   1.326   3.474
35307SOL     OW 7817   9.903  12.425  10.726
35307SOL    HW1 7818   9.945  12.457  10.806
35307SOL    HW2 7819   9.834  12.490  10.709
35308SOL     OW 7820  12.311   8.186   8.113
35308SOL    HW1 7821  12.266   8.239   8.179
35308SOL    HW2 7822  12.373   8.132   8.163
35309SOL     OW 7823   6.127   6.148  11.611
35309SOL    HW1 7824   6.128   6.243  11.621
35309SOL    HW2 7825   6.139   6.133  11.517
35310SOL     OW 7826  11.573   0.165  10.939
35310SOL    HW1 7827  11.635   0.094  10.920
35310SOL    HW2 7828  11.581   0.225  10.865
35311SOL     OW 7829  14.255   6.700   6.942
35311SOL    HW1 7830  14.340   6.668   6.972
35311SOL    HW2 7831  14.191   6.653   6.994
35312SOL     OW 7832   4.148   5.115   0.260
35312SOL    HW1 7833   4.136   5.021   0.261
35312SOL    HW2 7834   4.235   5.128   0.298
35313SOL     OW 7835   0.408   6.078  11.037
35313SOL    HW1 7836   0.364   6.156  11.003
35313SOL    HW2 7837   0.368   6.005  10.989
35314SOL     OW 7838   8.156  10.049  12.567
35314SOL    HW1 7839   8.229  10.111  12.556
35314SOL    HW2 7840   8.185   9.991  12.637
35315SOL     OW 7841   8.867  12.116   6.693
35315SOL    HW1 7842   8.883  12.210   6.688
35315SOL    HW2 7843   8.924  12.078   6.626
35316SOL     OW 7844   6.067   0.460   3.475
35316SOL    HW1 7845   6.083   0.519   3.549
35316SOL    HW2 7846   5.981   0.422   3.493
35317SOL     OW 7847   3.314  13.429  14.427
35317SOL    HW1 7848   3.317  13.345  14.382
35317SOL    HW2 7849   3.344  13.409  14.516
35318SOL     OW 7850  14.245   9.043   4.852
35318SOL    HW1 7851  14.311   8.973   4.846
35318SOL    HW2 7852  14.195   9.022   4.931
35319SOL     OW 7853   6.048  11.521  10.484
35319SOL    HW1 7854   6.126  11.508  10.430
35319SOL    HW2 7855   6.008  11.601  10.449
35320SOL     OW 7856  14.522  10.306   2.623
35320SOL    HW1 7857  14.545  10.381   2.678
35320SOL    HW2 7858  14.574  10.316   2.544
35321SOL     OW 7859   0.041   9.688   5.415
35321SOL    HW1 7860  14.870   9.741   5.353
35321SOL    HW2 7861   0.125   9.733   5.420
35322SOL     OW 7862   3.788  12.856   4.540
35322SOL    HW1 7863   3.727  12.859   4.613
35322SOL    HW2 7864   3.791  12.945   4.507
35323SOL     OW 7865   6.677   2.314   3.933
35323SOL    HW1 7866   6.756   2.261   3.941
35323SOL    HW2 7867   6.688   2.360   3.850
35324SOL     OW 7868   1.886   7.165  14.293
35324SOL    HW1 7869   1.883   7.232  14.362
35324SOL    HW2 7870   1.843   7.207  14.218
35325SOL     OW 7871  13.588   5.832   4.884
35325SOL    HW1 7872  13.549   5.807   4.968
35325SOL    HW2 7873  13.680   5.809   4.892
35326SOL     OW 7874  14.087   8.557   1.142
35326SOL    HW1 7875  14.179   8.551   1.167
35326SOL    HW2 7876  14.089   8.550   1.046
35327SOL     OW 7877   5.857  14.617   3.216
35327SOL    HW1 7878   5.825  14.693   3.265
35327SOL    HW2 7879   5.881  14.652   3.131
35328SOL     OW 7880   0.575   8.108   9.743
35328SOL    HW1 7881   0.527   8.040   9.791
35328SOL    HW2 7882   0.663   8.105   9.781
35329SOL     OW 7883   6.351   2.484   9.754
35329SOL    HW1 7884   6.422   2.441   9.802
35329SOL    HW2 7885   6.283   2.498   9.820
35330SOL     OW 7886   8.469  10.135  14.021
35330SOL    HW1 7887   8.446  10.226  14.001
35330SOL    HW2 7888   8.511  10.103  13.941
35331SOL     OW 7889   2.743   1.251  14.028
35331SOL    HW1 7890   2.700   1.193  14.091
35331SOL    HW2 7891   2.837   1.241  14.046
35332SOL     OW 7892   2.284   4.506   6.132
35332SOL    HW1 7893   2.306   4.599   6.122
35332SOL    HW2 7894   2.201   4.496   6.085
35333SOL     OW 7895  13.447   8.751   5.795
35333SOL    HW1 7896  13.369   8.804   5.781
35333SOL    HW2 7897  13.413   8.662   5.811
35334SOL     OW 7898   8.090   6.727   8.999
35334SOL    HW1 7899   8.036   6.648   8.995
35334SOL    HW2 7900   8.049   6.781   9.067
35335SOL     OW 7901   9.375  11.828   3.577
35335SOL    HW1 7902   9.384  11.734   3.595
35335SOL    HW2 7903   9.392  11.836   3.484
35336SOL     OW 7904   3.244   5.961   1.659
35336SOL    HW1 7905   3.310   5.956   1.727
35336SOL    HW2 7906   3.281   5.912   1.585
35337SOL     OW 7907   5.842  14.872  14.668
35337SOL    HW1 7908   5.822   0.084  14.688
35337SOL    HW2 7909   5.830  14.866  14.573
35338SOL     OW 7910  13.487   6.155   5.537
35338SOL    HW1 7911  13.469   6.167   5.444
35338SOL    HW2 7912  13.490   6.060   5.549
35339SOL     OW 7913   5.199  11.013   4.359
35339SOL    HW1 7914   5.255  10.999   4.436
35339SOL    HW2 7915   5.129  10.948   4.368
35340SOL     OW 7916   6.625   5.240   6.142
35340SOL    HW1 7917   6.592   5.259   6.053
35340SOL    HW2 7918   6.575   5.299   6.198
35341SOL     OW 7919   0.664   1.635  14.801
35341SOL    HW1 7920   0.595   1.699  14.818
35341SOL    HW2 7921   0.624   1.550  14.819
35342SOL     OW 7922   0.138   2.725   8.248
35342SOL    HW1 7923   0.089   2.803   8.221
35342SOL    HW2 7924   0.077   2.652   8.236
35343SOL     OW 7925   0.423   0.936  10.755
35343SOL    HW1 7926   0.328   0.934  10.759
35343SOL    HW2 7927   0.442   0.946  10.662
35344SOL     OW 7928   2.631   8.631  13.275
35344SOL    HW1 7929   2.685   8.599  13.347
35344SOL    HW2 7930   2.690   8.684  13.222
35345SOL     OW 7931  14.637   0.443   6.655
35345SOL    HW1 7932  14.619   0.405   6.741
35345SOL    HW2 7933  14.608   0.534   6.663
35346SOL     OW 7934   0.866   8.991  13.952
35346SOL    HW1 7935   0.870   9.018  13.860
35346SOL    HW2 7936   0.892   8.899  13.951
35347SOL     OW 7937   3.226   4.002  11.076
35347SOL    HW1 7938   3.220   4.097  11.064
35347SOL    HW2 7939   3.209   3.965  10.989
35348SOL     OW 7940  11.755  13.696   8.814
35348SOL    HW1 7941  11.660  13.708   8.804
35348SOL    HW2 7942  11.789  13.785   8.828
35349SOL     OW 7943   3.349   2.048  13.897
35349SOL    HW1 7944   3.339   2.050  13.802
35349SOL    HW2 7945   3.422   1.988  13.913
35350SOL     OW 7946  10.663   9.682   4.481
35350SOL    HW1 7947  10.754   9.669   4.458
35350SOL    HW2 7948  10.652   9.634   4.563
35351SOL     OW 7949   4.333  11.170  13.145
35351SOL    HW1 7950   4.410  11.218  13.114
35351SOL    HW2 7951   4.313  11.210  13.230
35352SOL     OW 7952   9.916   4.206   3.766
35352SOL    HW1 7953   9.873   4.130   3.727
35352SOL    HW2 7954  10.008   4.197   3.742
35353SOL     OW 7955  10.583   2.677   3.592
35353SOL    HW1 7956  10.558   2.683   3.684
35353SOL    HW2 7957  10.672   2.642   3.593
35354SOL     OW 7958   2.086   2.782  14.800
35354SOL    HW1 7959   2.016   2.775  14.864
35354SOL    HW2 7960   2.165   2.757  14.848
35355SOL     OW 7961   5.070  12.512   6.195
35355SOL    HW1 7962   5.041  12.592   6.152
35355SOL    HW2 7963   5.039  12.520   6.285
35356SOL     OW 7964  10.391   3.485   9.990
35356SOL    HW1 7965  10.387   3.393  10.014
35356SOL    HW2 7966  10.313   3.500   9.938
35357SOL     OW 7967   2.465   9.090  10.805
35357SOL    HW1 7968   2.451   9.008  10.852
35357SOL    HW2 7969   2.548   9.124  10.839
35358SOL     OW 7970   9.513   5.582   4.305
35358SOL    HW1 7971   9.525   5.508   4.364
35358SOL    HW2 7972   9.592   5.583   4.251
35359SOL     OW 7973   0.378   0.243  13.476
35359SOL    HW1 7974   0.438   0.275  13.544
35359SOL    HW2 7975   0.433   0.194  13.416
35360SOL     OW 7976  11.474  10.011   5.604
35360SOL    HW1 7977  11.382  10.018   5.628
35360SOL    HW2 7978  11.507   9.937   5.655
35361SOL     OW 7979   7.713   8.080   7.123
35361SOL    HW1 7980   7.664   8.138   7.182
35361SOL    HW2 7981   7.650   8.012   7.098
35362SOL     OW 7982   3.402   5.191  14.177
35362SOL    HW1 7983   3.440   5.264  14.225
35362SOL    HW2 7984   3.352   5.232  14.106
35363SOL     OW 7985   5.112   2.988   8.698
35363SOL    HW1 7986   5.173   2.965   8.768
35363SOL    HW2 7987   5.168   3.022   8.628
35364SOL     OW 7988  11.780   2.185   0.191
35364SOL    HW1 7989  11.688   2.210   0.187
35364SOL    HW2 7990  11.815   2.208   0.105
35365SOL     OW 7991   2.592  14.208   8.128
35365SOL    HW1 7992   2.552  14.125   8.102
35365SOL    HW2 7993   2.607  14.254   8.046
35366SOL     OW 7994  10.330   1.884  13.033
35366SOL    HW1 7995  10.408   1.895  13.087
35366SOL    HW2 7996  10.347   1.936  12.954
35367SOL     OW 7997   8.490  14.708   5.935
35367SOL    HW1 7998   8.541  14.641   5.889
35367SOL    HW2 7999   8.540  14.788   5.923
35368SOL     OW 8000  12.060   6.718  13.182
35368SOL    HW1 8001  12.084   6.804  13.215
35368SOL    HW2 8002  12.117   6.705  13.106
35369SOL     OW 8003   6.627  14.195   4.962
35369SOL    HW1 8004   6.669  14.268   5.007
35369SOL    HW2 8005   6.539  14.225   4.942
35370SOL     OW 8006   1.729   3.042   9.228
35370SOL    HW1 8007   1.708   3.136   9.229
35370SOL    HW2 8008   1.655   3.002   9.182
35371SOL     OW 8009  14.561   5.531  12.834
35371SOL    HW1 8010  14.556   5.482  12.752
35371SOL    HW2 8011  14.651   5.517  12.865
35372SOL     OW 8012   0.774   9.104  14.533
35372SOL    HW1 8013   0.826   9.051  14.593
35372SOL    HW2 8014   0.828   9.182  14.516
35373SOL     OW 8015  12.868   0.366   0.165
35373SOL    HW1 8016  12.944   0.307   0.170
35373SOL    HW2 8017  12.793   0.309   0.178
35374SOL     OW 8018   4.273  10.184  13.594
35374SOL    HW1 8019   4.305  10.094  13.591
35374SOL    HW2 8020   4.348  10.237  13.567
35375SOL     OW 8021   1.153  11.378   2.631
35375SOL    HW1 8022   1.107  11.304   2.672
35375SOL    HW2 8023   1.152  11.357   2.538
35376SOL     OW 8024   7.625  11.677   4.138
35376SOL    HW1 8025   7.542  11.631   4.127
35376SOL    HW2 8026   7.692  11.609   4.129
35377SOL     OW 8027   0.879   0.905   7.127
35377SOL    HW1 8028   0.943   0.924   7.196
35377SOL    HW2 8029   0.810   0.970   7.139
35378SOL     OW 8030   1.074   7.678   8.374
35378SOL    HW1 8031   1.032   7.645   8.453
35378SOL    HW2 8032   1.168   7.679   8.395
35379SOL     OW 8033   0.618   2.138   0.202
35379SOL    HW1 8034   0.603   2.051   0.166
35379SOL    HW2 8035   0.713   2.150   0.197
35380SOL     OW 8036  12.803  14.028  13.686
35380SOL    HW1 8037  12.731  13.969  13.663
35380SOL    HW2 8038  12.882  13.981  13.660
35381SOL     OW 8039   7.660   5.849  12.830
35381SOL    HW1 8040   7.721   5.824  12.761
35381SOL    HW2 8041   7.707   5.832  12.912
35382SOL     OW 8042  11.772   5.163   9.111
35382SOL    HW1 8043  11.679   5.145   9.093
35382SOL    HW2 8044  11.814   5.155   9.026
35383SOL     OW 8045  11.212   7.706   1.136
35383SOL    HW1 8046  11.257   7.626   1.108
35383SOL    HW2 8047  11.269   7.744   1.202
35384SOL     OW 8048   3.137   7.660   2.520
35384SOL    HW1 8049   3.194   7.718   2.470
35384SOL    HW2 8050   3.165   7.572   2.497
35385SOL     OW 8051  10.929  11.367   7.929
35385SOL    HW1 8052  10.890  11.279   7.929
35385SOL    HW2 8053  11.014  11.355   7.971
35386SOL     OW 8054  14.394   3.282   9.424
35386SOL    HW1 8055  14.367   3.360   9.376
35386SOL    HW2 8056  14.315   3.252   9.468
35387SOL     OW 8057   7.382   4.751  13.250
35387SOL    HW1 8058   7.462   4.706  13.275
35387SOL    HW2 8059   7.412   4.831  13.207
35388SOL     OW 8060   5.082   1.697   7.400
35388SOL    HW1 8061   5.108   1.624   7.455
35388SOL    HW2 8062   5.164   1.728   7.360
35389SOL     OW 8063   6.087  13.800   8.854
35389SOL    HW1 8064   6.136  13.876   8.887
35389SOL    HW2 8065   5.998  13.832   8.844
35390SOL     OW 8066  10.291   8.740  12.876
35390SOL    HW1 8067  10.384   8.736  12.896
35390SOL    HW2 8068  10.266   8.830  12.895
35391SOL     OW 8069   0.986  13.723   8.185
35391SOL    HW1 8070   1.052  13.655   8.176
35391SOL    HW2 8071   0.937  13.699   8.264
35392SOL     OW 8072   2.622   9.477   6.354
35392SOL    HW1 8073   2.578   9.561   6.365
35392SOL    HW2 8074   2.623   9.438   6.441
35393SOL     OW 8075   7.207   9.462   0.166
35393SOL    HW1 8076   7.152   9.536   0.192
35393SOL    HW2 8077   7.181   9.392   0.226
35394SOL     OW 8078  14.261   5.943   8.998
35394SOL    HW1 8079  14.171   5.971   9.011
35394SOL    HW2 8080  14.275   5.950   8.904
35395SOL     OW 8081   7.242   4.747  10.400
35395SOL    HW1 8082   7.180   4.818  10.384
35395SOL    HW2 8083   7.327   4.784  10.374
35396SOL     OW 8084   8.604  13.660   7.135
35396SOL    HW1 8085   8.656  13.727   7.180
35396SOL    HW2 8086   8.513  13.680   7.158
35397SOL     OW 8087  13.873  13.232   2.276
35397SOL    HW1 8088  13.829  13.153   2.244
35397SOL    HW2 8089  13.961  13.203   2.297
35398SOL     OW 8090   5.993   7.978   7.011
35398SOL    HW1 8091   5.956   7.975   6.923
35398SOL    HW2 8092   6.080   8.017   6.999
35399SOL     OW 8093   3.179   8.840   8.083
35399SOL    HW1 8094   3.211   8.767   8.136
35399SOL    HW2 8095   3.245   8.909   8.093
35400SOL     OW 8096   7.557   7.646   4.342
35400SOL    HW1 8097   7.565   7.632   4.437
35400SOL    HW2 8098   7.641   7.616   4.307
35401SOL     OW 8099   0.312  14.087  12.440
35401SOL    HW1 8100   0.309  14.011  12.382
35401SOL    HW2 8101   0.221  14.115  12.450
35402SOL     OW 8102   3.866   1.309   6.848
35402SOL    HW1 8103   3.895   1.220   6.827
35402SOL    HW2 8104   3.911   1.330   6.930
35403SOL     OW 8105   1.947   3.690   5.152
35403SOL    HW1 8106   1.859   3.691   5.189
35403SOL    HW2 8107   1.966   3.598   5.137
35404SOL     OW 8108   9.381  10.874   6.593
35404SOL    HW1 8109   9.422  10.958   6.615
35404SOL    HW2 8110   9.319  10.859   6.664
35405SOL     OW 8111   9.658   9.498   8.088
35405SOL    HW1 8112   9.672   9.440   8.163
35405SOL    HW2 8113   9.614   9.442   8.023
35406SOL     OW 8114   1.021  13.547   4.075
35406SOL    HW1 8115   1.115  13.531   4.076
35406SOL    HW2 8116   1.000  13.560   3.982
35407SOL     OW 8117   5.604   1.183   6.152
35407SOL    HW1 8118   5.644   1.116   6.097
35407SOL    HW2 8119   5.515   1.192   6.118
35408SOL     OW 8120   4.984   1.523   2.404
35408SOL    HW1 8121   4.919   1.550   2.339
35408SOL    HW2 8122   4.945   1.447   2.447
35409SOL     OW 8123   7.940   2.861   7.191
35409SOL    HW1 8124   8.023   2.887   7.151
35409SOL    HW2 8125   7.899   2.803   7.126
35410SOL     OW 8126   7.435   9.334   9.858
35410SOL    HW1 8127   7.345   9.306   9.878
35410SOL    HW2 8128   7.475   9.349   9.944
35411SOL     OW 8129   1.197   6.155   1.943
35411SOL    HW1 8130   1.217   6.184   1.854
35411SOL    HW2 8131   1.109   6.117   1.937
35412SOL     OW 8132   8.795  10.125  10.393
35412SOL    HW1 8133   8.783  10.052  10.332
35412SOL    HW2 8134   8.812  10.083  10.477
35413SOL     OW 8135   6.502   5.869   2.109
35413SOL    HW1 8136   6.591   5.904   2.104
35413SOL    HW2 8137   6.491   5.821   2.027
35414SOL     OW 8138  11.429   8.132  12.406
35414SOL    HW1 8139  11.401   8.184  12.331
35414SOL    HW2 8140  11.521   8.158  12.420
35415SOL     OW 8141  11.196   5.278  14.355
35415SOL    HW1 8142  11.245   5.298  14.275
35415SOL    HW2 8143  11.177   5.184  14.349
35416SOL     OW 8144   0.592  12.334  10.591
35416SOL    HW1 8145   0.559  12.370  10.673
35416SOL    HW2 8146   0.537  12.373  10.523
35417SOL     OW 8147   7.219   3.635   7.368
35417SOL    HW1 8148   7.173   3.692   7.430
35417SOL    HW2 8149   7.172   3.648   7.285
35418SOL     OW 8150   0.512   3.176  10.843
35418SOL    HW1 8151   0.607   3.183  10.854
35418SOL    HW2 8152   0.480   3.266  10.853
35419SOL     OW 8153  13.245   6.358   7.307
35419SOL    HW1 8154  13.341   6.354   7.315
35419SOL    HW2 8155  13.224   6.450   7.320
35420SOL     OW 8156   5.042  13.292   8.905
35420SOL    HW1 8157   5.099  13.282   8.828
35420SOL    HW2 8158   4.999  13.207   8.913
35421SOL     OW 8159   2.604  11.958  14.664
35421SOL    HW1 8160   2.646  11.921  14.742
35421SOL    HW2 8161   2.677  11.978  14.605
35422SOL     OW 8162   4.204  11.470   8.514
35422SOL    HW1 8163   4.265  11.470   8.588
35422SOL    HW2 8164   4.238  11.403   8.455
35423SOL     OW 8165   5.058   9.812   3.121
35423SOL    HW1 8166   5.095   9.725   3.138
35423SOL    HW2 8167   5.129   9.873   3.142
35424SOL     OW 8168   3.818   0.246  12.999
35424SOL    HW1 8169   3.729   0.279  13.016
35424SOL    HW2 8170   3.858   0.314  12.944
35425SOL     OW 8171   4.456   3.751   0.650
35425SOL    HW1 8172   4.362   3.766   0.658
35425SOL    HW2 8173   4.469   3.662   0.682
35426SOL     OW 8174   2.639   1.146  12.865
35426SOL    HW1 8175   2.702   1.219  12.856
35426SOL    HW2 8176   2.688   1.069  12.836
35427SOL     OW 8177  14.590   2.861  12.646
35427SOL    HW1 8178  14.646   2.898  12.578
35427SOL    HW2 8179  14.503   2.896  12.626
35428SOL     OW 8180  14.430   0.462   9.729
35428SOL    HW1 8181  14.463   0.468   9.640
35428SOL    HW2 8182  14.399   0.372   9.738
35429SOL     OW 8183  12.164  12.603  12.646
35429SOL    HW1 8184  12.138  12.680  12.697
35429SOL    HW2 8185  12.165  12.633  12.555
35430SOL     OW 8186  12.471   2.811   1.789
35430SOL    HW1 8187  12.421   2.778   1.714
35430SOL    HW2 8188  12.429   2.895   1.810
35431SOL     OW 8189   3.122   4.733   5.296
35431SOL    HW1 8190   3.160   4.806   5.247
35431SOL    HW2 8191   3.185   4.716   5.366
35432SOL     OW 8192   7.932   2.206   1.182
35432SOL    HW1 8193   7.869   2.162   1.239
35432SOL    HW2 8194   7.883   2.223   1.101
35433SOL     OW 8195   2.051   8.717   1.002
35433SOL    HW1 8196   2.135   8.758   1.023
35433SOL    HW2 8197   1.988   8.761   1.058
35434SOL     OW 8198   9.001  11.722  13.540
35434SOL    HW1 8199   9.057  11.664  13.489
35434SOL    HW2 8200   9.011  11.808  13.499
35435SOL     OW 8201   9.253  10.718   7.601
35435SOL    HW1 8202   9.276  10.755   7.516
35435SOL    HW2 8203   9.169  10.675   7.587
35436SOL     OW 8204  12.668  14.257   8.034
35436SOL    HW1 8205  12.644  14.192   8.100
35436SOL    HW2 8206  12.585  14.296   8.007
35437SOL     OW 8207   5.761   1.536   4.084
35437SOL    HW1 8208   5.828   1.590   4.042
35437SOL    HW2 8209   5.763   1.563   4.176
35438SOL     OW 8210  14.631  10.571   8.291
35438SOL    HW1 8211  14.699  10.601   8.351
35438SOL    HW2 8212  14.652  10.479   8.274
35439SOL     OW 8213   9.634  13.369   5.971
35439SOL    HW1 8214   9.599  13.458   5.973
35439SOL    HW2 8215   9.575  13.318   6.026
35440SOL     OW 8216   2.858   3.874  12.869
35440SOL    HW1 8217   2.820   3.900  12.785
35440SOL    HW2 8218   2.857   3.778  12.867
35441SOL     OW 8219  13.366   0.364  10.685
35441SOL    HW1 8220  13.354   0.271  10.703
35441SOL    HW2 8221  13.379   0.403  10.772
35442SOL     OW 8222   7.181  10.923   8.239
35442SOL    HW1 8223   7.255  10.908   8.180
35442SOL    HW2 8224   7.220  10.937   8.325
35443SOL     OW 8225  13.092  10.660   3.308
35443SOL    HW1 8226  13.109  10.571   3.277
35443SOL    HW2 8227  12.997  10.666   3.316
35444SOL     OW 8228   0.133   9.320   4.486
35444SOL    HW1 8229   0.143   9.229   4.513
35444SOL    HW2 8230   0.050   9.322   4.439
35445SOL     OW 8231   0.990  14.338  11.634
35445SOL    HW1 8232   1.015  14.430  11.634
35445SOL    HW2 8233   1.061  14.294  11.586
35446SOL     OW 8234  11.763   5.400   8.782
35446SOL    HW1 8235  11.795   5.324   8.733
35446SOL    HW2 8236  11.842   5.443   8.814
35447SOL     OW 8237  10.977  14.324  10.207
35447SOL    HW1 8238  10.885  14.339  10.187
35447SOL    HW2 8239  11.007  14.266  10.137
35448SOL     OW 8240   5.927   1.567  14.081
35448SOL    HW1 8241   5.987   1.527  14.018
35448SOL    HW2 8242   5.952   1.659  14.084
35449SOL     OW 8243   2.234   3.582  13.974
35449SOL    HW1 8244   2.283   3.663  13.979
35449SOL    HW2 8245   2.258   3.534  14.053
35450SOL     OW 8246  10.865   5.772   3.107
35450SOL    HW1 8247  10.852   5.719   3.186
35450SOL    HW2 8248  10.809   5.730   3.041
35451SOL     OW 8249  13.169   9.828  14.588
35451SOL    HW1 8250  13.146   9.736  14.580
35451SOL    HW2 8251  13.248   9.838  14.535
35452SOL     OW 8252   3.776  13.041   6.362
35452SOL    HW1 8253   3.774  13.008   6.272
35452SOL    HW2 8254   3.802  12.966   6.414
35453SOL     OW 8255  10.515   0.609   3.692
35453SOL    HW1 8256  10.473   0.529   3.724
35453SOL    HW2 8257  10.455   0.643   3.626
35454SOL     OW 8258  13.962  14.798   0.898
35454SOL    HW1 8259  14.035  14.779   0.956
35454SOL    HW2 8260  13.915  14.870   0.940
35455SOL     OW 8261   8.356   2.464   4.961
35455SOL    HW1 8262   8.269   2.447   4.998
35455SOL    HW2 8263   8.367   2.559   4.968
35456SOL     OW 8264   2.344  10.506   9.187
35456SOL    HW1 8265   2.366  10.592   9.152
35456SOL    HW2 8266   2.426  10.456   9.179
35457SOL     OW 8267   4.727   7.291  14.276
35457SOL    HW1 8268   4.700   7.210  14.233
35457SOL    HW2 8269   4.646   7.333  14.304
35458SOL     OW 8270   7.255   9.128   7.604
35458SOL    HW1 8271   7.308   9.152   7.528
35458SOL    HW2 8272   7.298   9.051   7.640
35459SOL     OW 8273   8.016  11.774   7.570
35459SOL    HW1 8274   8.099  11.819   7.582
35459SOL    HW2 8275   8.039  11.693   7.524
35460SOL     OW 8276  14.226   5.075  14.650
35460SOL    HW1 8277  14.139   5.091  14.687
35460SOL    HW2 8278  14.212   5.071  14.556
35461SOL     OW 8279   6.695   7.091  10.191
35461SOL    HW1 8280   6.635   7.166  10.192
35461SOL    HW2 8281   6.769   7.121  10.138
35462SOL     OW 8282   3.416   0.037   9.758
35462SOL    HW1 8283   3.403   0.087   9.678
35462SOL    HW2 8284   3.389  14.828   9.735
35463SOL     OW 8285   8.938  14.230  12.249
35463SOL    HW1 8286   8.889  14.311  12.236
35463SOL    HW2 8287   9.030  14.257  12.242
35464SOL     OW 8288   0.231   4.406   9.003
35464SOL    HW1 8289   0.313   4.359   9.020
35464SOL    HW2 8290   0.162   4.347   9.032
35465SOL     OW 8291   7.638   6.944   7.295
35465SOL    HW1 8292   7.558   6.942   7.348
35465SOL    HW2 8293   7.633   7.027   7.247
35466SOL     OW 8294   7.322  12.952   3.354
35466SOL    HW1 8295   7.231  12.930   3.371
35466SOL    HW2 8296   7.331  13.042   3.384
35467SOL     OW 8297   7.893  10.530   3.707
35467SOL    HW1 8298   7.899  10.434   3.713
35467SOL    HW2 8299   7.975  10.556   3.665
35468SOL     OW 8300   9.417  10.031   2.282
35468SOL    HW1 8301   9.453   9.979   2.354
35468SOL    HW2 8302   9.380  10.108   2.324
35469SOL     OW 8303  13.291   9.372   8.907
35469SOL    HW1 8304  13.337   9.367   8.823
35469SOL    HW2 8305  13.250   9.459   8.907
35470SOL     OW 8306   0.073  14.389  13.655
35470SOL    HW1 8307   0.075  14.447  13.580
35470SOL    HW2 8308  14.860  14.381  13.677
35471SOL     OW 8309  11.006   4.243   3.558
35471SOL    HW1 8310  11.047   4.195   3.486
35471SOL    HW2 8311  10.913   4.248   3.533
35472SOL     OW 8312  10.176  11.737   1.624
35472SOL    HW1 8313  10.102  11.719   1.682
35472SOL    HW2 8314  10.245  11.769   1.682
35473SOL     OW 8315   9.113  14.489   2.215
35473SOL    HW1 8316   9.018  14.479   2.226
35473SOL    HW2 8317   9.144  14.400   2.197
35474SOL     OW 8318   4.788   2.412  11.247
35474SOL    HW1 8319   4.865   2.460  11.216
35474SOL    HW2 8320   4.804   2.399  11.340
35475SOL     OW 8321  12.436  12.297  13.717
35475SOL    HW1 8322  12.449  12.331  13.629
35475SOL    HW2 8323  12.362  12.347  13.752
35476SOL     OW 8324  11.439  10.136   3.319
35476SOL    HW1 8325  11.484  10.206   3.273
35476SOL    HW2 8326  11.485  10.129   3.403
35477SOL     OW 8327   6.874  11.653   9.858
35477SOL    HW1 8328   6.833  11.687   9.937
35477SOL    HW2 8329   6.932  11.584   9.889
35478SOL     OW 8330   4.058   6.928  14.189
35478SOL    HW1 8331   4.003   6.881  14.126
35478SOL    HW2 8332   4.047   6.880  14.271
35479SOL     OW 8333   3.570   8.155   8.101
35479SOL    HW1 8334   3.656   8.166   8.142
35479SOL    HW2 8335   3.556   8.061   8.100
35480SOL     OW 8336   3.110   1.910  14.393
35480SOL    HW1 8337   3.110   1.981  14.328
35480SOL    HW2 8338   3.179   1.850  14.363
35481SOL     OW 8339   6.162   1.259  11.146
35481SOL    HW1 8340   6.227   1.206  11.192
35481SOL    HW2 8341   6.082   1.208  11.152
35482SOL     OW 8342   2.112   5.837  14.659
35482SOL    HW1 8343   2.205   5.820  14.674
35482SOL    HW2 8344   2.104   5.848  14.564
35483SOL     OW 8345   5.840  13.227   2.474
35483SOL    HW1 8346   5.769  13.264   2.421
35483SOL    HW2 8347   5.914  13.222   2.414
35484SOL     OW 8348  10.770   8.517   4.012
35484SOL    HW1 8349  10.737   8.499   4.100
35484SOL    HW2 8350  10.692   8.525   3.957
35485SOL     OW 8351   5.266  14.375   8.299
35485SOL    HW1 8352   5.187  14.426   8.285
35485SOL    HW2 8353   5.325  14.403   8.229
35486SOL     OW 8354   4.648  13.878  11.943
35486SOL    HW1 8355   4.629  13.970  11.921
35486SOL    HW2 8356   4.565  13.833  11.928
35487SOL     OW 8357   9.693   8.738  12.294
35487SOL    HW1 8358   9.623   8.685  12.332
35487SOL    HW2 8359   9.755   8.674  12.260
35488SOL     OW 8360   2.024  14.521   9.478
35488SOL    HW1 8361   2.106  14.491   9.518
35488SOL    HW2 8362   2.035  14.503   9.384
35489SOL     OW 8363   1.523   0.352   9.218
35489SOL    HW1 8364   1.470   0.385   9.291
35489SOL    HW2 8365   1.599   0.411   9.214
35490SOL     OW 8366   2.367   3.502   1.523
35490SOL    HW1 8367   2.453   3.479   1.559
35490SOL    HW2 8368   2.316   3.529   1.599
35491SOL     OW 8369   1.431   6.882   9.002
35491SOL    HW1 8370   1.513   6.872   8.953
35491SOL    HW2 8371   1.435   6.814   9.069
35492SOL     OW 8372   1.760   7.775  11.810
35492SOL    HW1 8373   1.849   7.747  11.831
35492SOL    HW2 8374   1.741   7.844  11.874
35493SOL     OW 8375   3.147   7.741  10.766
35493SOL    HW1 8376   3.169   7.648  10.761
35493SOL    HW2 8377   3.204   7.775  10.835
35494SOL     OW 8378   4.866  14.376   7.930
35494SOL    HW1 8379   4.933  14.411   7.871
35494SOL    HW2 8380   4.838  14.295   7.888
35495SOL     OW 8381  11.624   1.150   2.093
35495SOL    HW1 8382  11.681   1.147   2.170
35495SOL    HW2 8383  11.630   1.240   2.062
35496SOL     OW 8384  13.173  13.430   2.180
35496SOL    HW1 8385  13.171  13.342   2.143
35496SOL    HW2 8386  13.264  13.443   2.206
35497SOL     OW 8387   0.874   4.831   7.961
35497SOL    HW1 8388   0.941   4.880   7.914
35497SOL    HW2 8389   0.816   4.798   7.892
35498SOL     OW 8390   6.225   9.587   5.651
35498SOL    HW1 8391   6.285   9.655   5.682
35498SOL    HW2 8392   6.221   9.523   5.722
35499SOL     OW 8393  11.936   5.961   9.955
35499SOL    HW1 8394  11.897   6.009   9.882
35499SOL    HW2 8395  12.029   5.954   9.932
35500SOL     OW 8396  14.642   9.479   8.260
35500SOL    HW1 8397  14.681   9.545   8.318
35500SOL    HW2 8398  14.555   9.514   8.240
35501SOL     OW 8399  11.630  14.359  10.022
35501SOL    HW1 8400  11.553  14.338   9.969
35501SOL    HW2 8401  11.644  14.281  10.076
35502SOL     OW 8402   5.240  14.384  14.171
35502SOL    HW1 8403   5.326  14.362  14.135
35502SOL    HW2 8404   5.216  14.308  14.224
35503SOL     OW 8405   6.996  11.888   0.101
35503SOL    HW1 8406   7.089  11.869   0.086
35503SOL    HW2 8407   6.969  11.936   0.022
35504SOL     OW 8408   4.316   9.481   5.944
35504SOL    HW1 8409   4.356   9.491   6.031
35504SOL    HW2 8410   4.373   9.531   5.886
35505SOL     OW 8411  13.589   9.328  14.324
35505SOL    HW1 8412  13.556   9.341  14.235
35505SOL    HW2 8413  13.660   9.391  14.333
35506SOL     OW 8414  12.469  14.497   0.855
35506SOL    HW1 8415  12.403  14.526   0.791
35506SOL    HW2 8416  12.462  14.401   0.854
35507SOL     OW 8417   0.062   6.324   0.362
35507SOL    HW1 8418   0.055   6.419   0.357
35507SOL    HW2 8419   0.133   6.302   0.302
35508SOL     OW 8420   8.399   0.088   2.396
35508SOL    HW1 8421   8.313   0.108   2.360
35508SOL    HW2 8422   8.412  14.875   2.376
35509SOL     OW 8423  13.559  12.986   6.931
35509SOL    HW1 8424  13.590  13.071   6.902
35509SOL    HW2 8425  13.556  12.933   6.851
35510SOL     OW 8426   3.193   9.041   4.489
35510SOL    HW1 8427   3.255   9.045   4.416
35510SOL    HW2 8428   3.147   8.958   4.477
35511SOL     OW 8429   6.722   0.138   5.256
35511SOL    HW1 8430   6.744   0.221   5.214
35511SOL    HW2 8431   6.758   0.072   5.197
35512SOL     OW 8432   2.077  14.410   3.721
35512SOL    HW1 8433   2.170  14.387   3.722
35512SOL    HW2 8434   2.060  14.434   3.630
35513SOL     OW 8435   4.450   7.748   1.192
35513SOL    HW1 8436   4.493   7.663   1.195
35513SOL    HW2 8437   4.431   7.762   1.099
35514SOL     OW 8438  13.202  13.556   5.725
35514SOL    HW1 8439  13.286  13.602   5.721
35514SOL    HW2 8440  13.148  13.609   5.784
35515SOL     OW 8441   1.057   2.390  10.356
35515SOL    HW1 8442   1.141   2.366  10.394
35515SOL    HW2 8443   1.019   2.452  10.418
35516SOL     OW 8444   8.078   6.053   3.149
35516SOL    HW1 8445   8.173   6.052   3.138
35516SOL    HW2 8446   8.062   5.994   3.223
35517SOL     OW 8447   4.740   6.769  11.600
35517SOL    HW1 8448   4.658   6.756  11.648
35517SOL    HW2 8449   4.722   6.734  11.512
35518SOL     OW 8450   1.118  12.505   1.259
35518SOL    HW1 8451   1.136  12.415   1.232
35518SOL    HW2 8452   1.024  12.508   1.274
35519SOL     OW 8453  10.567   0.255   5.023
35519SOL    HW1 8454  10.519   0.237   5.104
35519SOL    HW2 8455  10.658   0.236   5.044
35520SOL     OW 8456   9.530  13.105   8.063
35520SOL    HW1 8457   9.484  13.170   8.010
35520SOL    HW2 8458   9.550  13.034   8.003
35521SOL     OW 8459   7.414   7.022   1.530
35521SOL    HW1 8460   7.507   7.008   1.549
35521SOL    HW2 8461   7.393   6.954   1.466
35522SOL     OW 8462  13.306   5.839   9.897
35522SOL    HW1 8463  13.308   5.933   9.878
35522SOL    HW2 8464  13.236   5.804   9.841
35523SOL     OW 8465   6.928   6.054   5.707
35523SOL    HW1 8466   6.860   5.998   5.671
35523SOL    HW2 8467   6.991   5.994   5.746
35524SOL     OW 8468  10.419  12.982   0.230
35524SOL    HW1 8469  10.478  13.008   0.300
35524SOL    HW2 8470  10.332  12.986   0.269
35525SOL     OW 8471   3.118   8.375   3.176
35525SOL    HW1 8472   3.124   8.335   3.263
35525SOL    HW2 8473   3.032   8.416   3.175
35526SOL     OW 8474   1.561   5.676   0.701
35526SOL    HW1 8475   1.539   5.713   0.615
35526SOL    HW2 8476   1.585   5.751   0.755
35527SOL     OW 8477  10.870  10.631   3.741
35527SOL    HW1 8478  10.910  10.690   3.804
35527SOL    HW2 8479  10.795  10.680   3.706
35528SOL     OW 8480   1.836   3.689  12.704
35528SOL    HW1 8481   1.810   3.781  12.693
35528SOL    HW2 8482   1.847   3.657  12.614
35529SOL     OW 8483   6.746   8.699  11.866
35529SOL    HW1 8484   6.798   8.731  11.792
35529SOL    HW2 8485   6.794   8.731  11.943
35530SOL     OW 8486  10.737   0.341   4.431
35530SOL    HW1 8487  10.702   0.420   4.472
35530SOL    HW2 8488  10.679   0.323   4.358
35531SOL     OW 8489  12.770   2.001  12.738
35531SOL    HW1 8490  12.684   1.960  12.733
35531SOL    HW2 8491  12.760   2.070  12.803
35532SOL     OW 8492   9.411   1.947   1.816
35532SOL    HW1 8493   9.423   2.002   1.893
35532SOL    HW2 8494   9.456   1.865   1.838
35533SOL     OW 8495  10.411   5.397  13.363
35533SOL    HW1 8496  10.506   5.402  13.365
35533SOL    HW2 8497  10.387   5.422  13.274
35534SOL     OW 8498  11.580   8.183   4.555
35534SOL    HW1 8499  11.516   8.164   4.486
35534SOL    HW2 8500  11.583   8.278   4.559
35535SOL     OW 8501   8.917   1.662  13.277
35535SOL    HW1 8502   8.909   1.747  13.321
35535SOL    HW2 8503   8.985   1.616  13.326
35536SOL     OW 8504   2.755  10.755  12.641
35536SOL    HW1 8505   2.834  10.810  12.640
35536SOL    HW2 8506   2.777  10.682  12.699
35537SOL     OW 8507   1.097  13.553   7.688
35537SOL    HW1 8508   1.004  13.550   7.710
35537SOL    HW2 8509   1.137  13.483   7.740
35538SOL     OW 8510  11.672   9.793  13.681
35538SOL    HW1 8511  11.633   9.764  13.598
35538SOL    HW2 8512  11.599   9.793  13.743
35539SOL     OW 8513   1.955   0.725   3.720
35539SOL    HW1 8514   1.917   0.653   3.771
35539SOL    HW2 8515   1.880   0.777   3.693
35540SOL     OW 8516   0.718   7.375   4.751
35540SOL    HW1 8517   0.781   7.400   4.683
35540SOL    HW2 8518   0.660   7.451   4.757
35541SOL     OW 8519  11.821   9.900   1.686
35541SOL    HW1 8520  11.900   9.932   1.729
35541SOL    HW2 8521  11.825   9.939   1.599
35542SOL     OW 8522   1.208   5.070  11.482
35542SOL    HW1 8523   1.163   5.154  11.494
35542SOL    HW2 8524   1.291   5.094  11.440
35543SOL     OW 8525  13.449   1.633   8.379
35543SOL    HW1 8526  13.539   1.633   8.411
35543SOL    HW2 8527  13.396   1.656   8.455
35544SOL     OW 8528   0.729   3.455  13.615
35544SOL    HW1 8529   0.696   3.517  13.551
35544SOL    HW2 8530   0.817   3.487  13.637
35545SOL     OW 8531   7.965  10.692   5.070
35545SOL    HW1 8532   8.033  10.705   5.136
35545SOL    HW2 8533   7.925  10.609   5.093
35546SOL     OW 8534  13.502   9.868  14.145
35546SOL    HW1 8535  13.570   9.847  14.210
35546SOL    HW2 8536  13.430   9.808  14.165
35547SOL     OW 8537   2.566   1.057   0.429
35547SOL    HW1 8538   2.584   1.051   0.523
35547SOL    HW2 8539   2.476   1.026   0.420
35548SOL     OW 8540   6.665  13.591   4.752
35548SOL    HW1 8541   6.610  13.670   4.761
35548SOL    HW2 8542   6.654  13.565   4.660
35549SOL     OW 8543  10.100   2.386   7.871
35549SOL    HW1 8544  10.053   2.315   7.829
35549SOL    HW2 8545  10.187   2.384   7.830
35550SOL     OW 8546  14.210   4.464   5.277
35550SOL    HW1 8547  14.299   4.439   5.255
35550SOL    HW2 8548  14.205   4.454   5.372
35551SOL     OW 8549  14.305   6.677   8.407
35551SOL    HW1 8550  14.316   6.628   8.326
35551SOL    HW2 8551  14.359   6.630   8.471
35552SOL     OW 8552   6.074   2.028   8.254
35552SOL    HW1 8553   5.986   2.000   8.230
35552SOL    HW2 8554   6.109   2.069   8.174
35553SOL     OW 8555  14.156  13.359   1.525
35553SOL    HW1 8556  14.225  13.416   1.493
35553SOL    HW2 8557  14.096  13.417   1.572
35554SOL     OW 8558   2.874  13.690  14.750
35554SOL    HW1 8559   2.889  13.768  14.803
35554SOL    HW2 8560   2.879  13.618  14.813
35555SOL     OW 8561  11.537   8.725   2.878
35555SOL    HW1 8562  11.595   8.652   2.901
35555SOL    HW2 8563  11.484   8.692   2.806
35556SOL     OW 8564   7.894  13.177   5.875
35556SOL    HW1 8565   7.803  13.149   5.885
35556SOL    HW2 8566   7.927  13.187   5.965
35557SOL     OW 8567   9.914   2.373   0.322
35557SOL    HW1 8568   9.939   2.460   0.290
35557SOL    HW2 8569   9.989   2.317   0.304
35558SOL     OW 8570   3.984  11.439   4.366
35558SOL    HW1 8571   3.946  11.372   4.309
35558SOL    HW2 8572   3.911  11.474   4.416
35559SOL     OW 8573   9.328   4.483   0.682
35559SOL    HW1 8574   9.407   4.527   0.652
35559SOL    HW2 8575   9.279   4.550   0.730
35560SOL     OW 8576   1.381   1.344   6.079
35560SOL    HW1 8577   1.359   1.252   6.090
35560SOL    HW2 8578   1.458   1.343   6.022
35561SOL     OW 8579   2.857   0.748   9.275
35561SOL    HW1 8580   2.919   0.788   9.214
35561SOL    HW2 8581   2.836   0.663   9.236
35562SOL     OW 8582   3.896   0.277   2.962
35562SOL    HW1 8583   3.928   0.321   3.040
35562SOL    HW2 8584   3.968   0.282   2.900
35563SOL     OW 8585  14.352   7.854   8.550
35563SOL    HW1 8586  14.352   7.829   8.642
35563SOL    HW2 8587  14.293   7.930   8.546
35564SOL     OW 8588  14.457  11.600   5.379
35564SOL    HW1 8589  14.551  11.607   5.366
35564SOL    HW2 8590  14.428  11.539   5.312
35565SOL     OW 8591   1.262   7.885   8.187
35565SOL    HW1 8592   1.335   7.944   8.168
35565SOL    HW2 8593   1.298   7.821   8.248
35566SOL     OW 8594  11.248   9.425   3.052
35566SOL    HW1 8595  11.228   9.507   3.098
35566SOL    HW2 8596  11.248   9.359   3.121
35567SOL     OW 8597   6.086  13.383  11.353
35567SOL    HW1 8598   6.083  13.475  11.327
35567SOL    HW2 8599   6.176  13.369  11.383
35568SOL     OW 8600   0.759   1.024   9.414
35568SOL    HW1 8601   0.729   1.114   9.404
35568SOL    HW2 8602   0.709   0.974   9.349
35569SOL     OW 8603  11.969   2.735   9.168
35569SOL    HW1 8604  12.023   2.812   9.186
35569SOL    HW2 8605  11.923   2.757   9.087
35570SOL     OW 8606   6.355   4.656  13.925
35570SOL    HW1 8607   6.293   4.601  13.878
35570SOL    HW2 8608   6.420   4.681  13.860
35571SOL     OW 8609  13.133   1.962   4.787
35571SOL    HW1 8610  13.052   1.972   4.736
35571SOL    HW2 8611  13.203   1.965   4.721
35572SOL     OW 8612  14.151   5.414  11.098
35572SOL    HW1 8613  14.128   5.495  11.143
35572SOL    HW2 8614  14.104   5.419  11.014
35573SOL     OW 8615   6.598   4.804  13.448
35573SOL    HW1 8616   6.668   4.745  13.420
35573SOL    HW2 8617   6.538   4.808  13.374
35574SOL     OW 8618   0.988   1.444   5.880
35574SOL    HW1 8619   0.914   1.501   5.857
35574SOL    HW2 8620   1.036   1.493   5.948
35575SOL     OW 8621   3.236   1.720   6.729
35575SOL    HW1 8622   3.192   1.799   6.699
35575SOL    HW2 8623   3.322   1.750   6.758
35576SOL     OW 8624   7.036  13.772  10.483
35576SOL    HW1 8625   7.092  13.742  10.412
35576SOL    HW2 8626   6.960  13.714  10.481
35577SOL     OW 8627   7.803  10.441   5.400
35577SOL    HW1 8628   7.865  10.439   5.327
35577SOL    HW2 8629   7.852  10.481   5.472
35578SOL     OW 8630   5.914   3.875   9.078
35578SOL    HW1 8631   5.824   3.843   9.085
35578SOL    HW2 8632   5.915   3.927   8.997
35579SOL     OW 8633  13.923   1.495   3.816
35579SOL    HW1 8634  14.017   1.510   3.810
35579SOL    HW2 8635  13.907   1.422   3.755
35580SOL     OW 8636  11.700  12.837  10.649
35580SOL    HW1 8637  11.615  12.822  10.607
35580SOL    HW2 8638  11.745  12.754  10.641
35581SOL     OW 8639  12.247   2.063   6.446
35581SOL    HW1 8640  12.321   2.004   6.461
35581SOL    HW2 8641  12.170   2.007   6.448
35582SOL     OW 8642   4.336  12.423   9.377
35582SOL    HW1 8643   4.306  12.346   9.426
35582SOL    HW2 8644   4.341  12.493   9.442
35583SOL     OW 8645   3.539   0.775  13.762
35583SOL    HW1 8646   3.577   0.789  13.848
35583SOL    HW2 8647   3.557   0.856  13.714
35584SOL     OW 8648   3.271  10.187   5.419
35584SOL    HW1 8649   3.258  10.240   5.340
35584SOL    HW2 8650   3.327  10.240   5.474
35585SOL     OW 8651   5.388   8.803  11.972
35585SOL    HW1 8652   5.344   8.744  12.033
35585SOL    HW2 8653   5.324   8.817  11.903
35586SOL     OW 8654  11.120  10.526   6.325
35586SOL    HW1 8655  11.162  10.604   6.287
35586SOL    HW2 8656  11.039  10.516   6.274
35587SOL     OW 8657  13.056   3.329   9.450
35587SOL    HW1 8658  12.986   3.300   9.508
35587SOL    HW2 8659  13.074   3.253   9.395
35588SOL     OW 8660   5.809  13.577  12.080
35588SOL    HW1 8661   5.737  13.640  12.081
35588SOL    HW2 8662   5.783  13.510  12.143
35589SOL     OW 8663   8.875   2.202   4.311
35589SOL    HW1 8664   8.967   2.177   4.302
35589SOL    HW2 8665   8.863   2.213   4.405
35590SOL     OW 8666   0.218   6.594   2.957
35590SOL    HW1 8667   0.134   6.636   2.939
35590SOL    HW2 8668   0.213   6.510   2.911
35591SOL     OW 8669   1.029  11.612   9.818
35591SOL    HW1 8670   1.087  11.688   9.813
35591SOL    HW2 8671   1.087  11.540   9.841
35592SOL     OW 8672  12.869   5.215   0.100
35592SOL    HW1 8673  12.853   5.149   0.167
35592SOL    HW2 8674  12.880   5.166   0.019
35593SOL     OW 8675   8.757   3.680   0.443
35593SOL    HW1 8676   8.845   3.656   0.471
35593SOL    HW2 8677   8.766   3.694   0.348
35594SOL     OW 8678  13.951   8.068  14.478
35594SOL    HW1 8679  14.044   8.093  14.475
35594SOL    HW2 8680  13.951   7.975  14.456
35595SOL     OW 8681   1.593   7.671  11.211
35595SOL    HW1 8682   1.619   7.617  11.136
35595SOL    HW2 8683   1.641   7.633  11.285
35596SOL     OW 8684  12.685   3.342   8.984
35596SOL    HW1 8685  12.689   3.251   8.954
35596SOL    HW2 8686  12.747   3.346   9.057
35597SOL     OW 8687   7.274  13.224  13.885
35597SOL    HW1 8688   7.274  13.319  13.901
35597SOL    HW2 8689   7.343  13.212  13.820
35598SOL     OW 8690  14.564  13.733  10.565
35598SOL    HW1 8691  14.474  13.706  10.584
35598SOL    HW2 8692  14.584  13.800  10.630
35599SOL     OW 8693  13.758  12.965   6.634
35599SOL    HW1 8694  13.735  13.057   6.648
35599SOL    HW2 8695  13.827  12.968   6.568
35600SOL     OW 8696  12.933   3.148  12.077
35600SOL    HW1 8697  12.903   3.197  12.153
35600SOL    HW2 8698  12.941   3.214  12.008
35601SOL     OW 8699  11.320   7.621   2.767
35601SOL    HW1 8700  11.365   7.556   2.713
35601SOL    HW2 8701  11.244   7.647   2.715
35602SOL     OW 8702   2.940   6.766   1.236
35602SOL    HW1 8703   2.966   6.753   1.144
35602SOL    HW2 8704   2.881   6.693   1.254
35603SOL     OW 8705   3.169   3.014   7.831
35603SOL    HW1 8706   3.169   3.085   7.768
35603SOL    HW2 8707   3.076   3.000   7.851
35604SOL     OW 8708  11.370   2.037   3.890
35604SOL    HW1 8709  11.302   1.991   3.941
35604SOL    HW2 8710  11.444   1.976   3.890
35605SOL     OW 8711   0.412   2.698   7.029
35605SOL    HW1 8712   0.393   2.643   6.953
35605SOL    HW2 8713   0.458   2.639   7.089
35606SOL     OW 8714   4.521   8.438  12.833
35606SOL    HW1 8715   4.497   8.356  12.877
35606SOL    HW2 8716   4.440   8.466  12.790
35607SOL     OW 8717   7.982   1.977  13.250
35607SOL    HW1 8718   7.937   1.915  13.308
35607SOL    HW2 8719   7.948   2.063  13.276
35608SOL     OW 8720  12.262  11.783  10.661
35608SOL    HW1 8721  12.196  11.737  10.609
35608SOL    HW2 8722  12.335  11.799  10.600
35609SOL     OW 8723   0.498   8.412  13.608
35609SOL    HW1 8724   0.515   8.504  13.588
35609SOL    HW2 8725   0.434   8.384  13.541
35610SOL     OW 8726   0.041  12.641   8.752
35610SOL    HW1 8727  14.870  12.563   8.771
35610SOL    HW2 8728   0.109  12.641   8.819
35611SOL     OW 8729   9.452   2.990   4.753
35611SOL    HW1 8730   9.384   2.947   4.700
35611SOL    HW2 8731   9.424   3.082   4.757
35612SOL     OW 8732   4.342  10.456  12.512
35612SOL    HW1 8733   4.368  10.519  12.444
35612SOL    HW2 8734   4.391  10.485  12.590
35613SOL     OW 8735   3.188   6.751   1.409
35613SOL    HW1 8736   3.105   6.777   1.369
35613SOL    HW2 8737   3.253   6.809   1.369
35614SOL     OW 8738   6.016   3.415   2.924
35614SOL    HW1 8739   5.932   3.440   2.962
35614SOL    HW2 8740   6.016   3.319   2.928
35615SOL     OW 8741   8.102  12.155  12.101
35615SOL    HW1 8742   8.108  12.061  12.113
35615SOL    HW2 8743   8.010  12.170  12.078
35616SOL     OW 8744   4.432  10.498   7.617
35616SOL    HW1 8745   4.465  10.575   7.664
35616SOL    HW2 8746   4.383  10.535   7.544
35617SOL     OW 8747   0.721   9.270   8.211
35617SOL    HW1 8748   0.787   9.201   8.199
35617SOL    HW2 8749   0.752   9.319   8.287
35618SOL     OW 8750  12.807   5.004   0.282
35618SOL    HW1 8751  12.745   5.041   0.345
35618SOL    HW2 8752  12.763   4.927   0.247
35619SOL     OW 8753  11.761  11.505   4.118
35619SOL    HW1 8754  11.759  11.518   4.213
35619SOL    HW2 8755  11.841  11.455   4.102
35620SOL     OW 8756   8.073   3.532   6.940
35620SOL    HW1 8757   8.066   3.452   6.992
35620SOL    HW2 8758   8.042   3.508   6.853
35621SOL     OW 8759  10.728   5.562  12.062
35621SOL    HW1 8760  10.729   5.470  12.085
35621SOL    HW2 8761  10.724   5.563  11.966
35622SOL     OW 8762  13.280   5.514  12.156
35622SOL    HW1 8763  13.357   5.560  12.124
35622SOL    HW2 8764  13.315   5.442  12.209
35623SOL     OW 8765   9.943   9.358   5.761
35623SOL    HW1 8766   9.931   9.445   5.723
35623SOL    HW2 8767   9.945   9.373   5.856
35624SOL     OW 8768  12.008   9.505   0.027
35624SOL    HW1 8769  11.948   9.548  14.846
35624SOL    HW2 8770  11.950   9.461   0.089
35625SOL     OW 8771   8.375   7.073   7.265
35625SOL    HW1 8772   8.352   7.032   7.349
35625SOL    HW2 8773   8.361   7.004   7.200
35626SOL     OW 8774   1.083   9.946   4.268
35626SOL    HW1 8775   1.075   9.939   4.363
35626SOL    HW2 8776   1.061  10.037   4.248
35627SOL     OW 8777   2.063  14.838  12.676
35627SOL    HW1 8778   2.049   0.016  12.751
35627SOL    HW2 8779   2.109   0.012  12.612
35628SOL     OW 8780  10.145   6.558  11.730
35628SOL    HW1 8781  10.207   6.628  11.749
35628SOL    HW2 8782  10.066   6.603  11.701
35629SOL     OW 8783  11.547  13.948  10.838
35629SOL    HW1 8784  11.598  13.877  10.799
35629SOL    HW2 8785  11.598  14.027  10.819
35630SOL     OW 8786   0.296   2.490   4.786
35630SOL    HW1 8787   0.338   2.409   4.815
35630SOL    HW2 8788   0.277   2.476   4.694
35631SOL     OW 8789  10.139   5.393  13.866
35631SOL    HW1 8790  10.098   5.479  13.861
35631SOL    HW2 8791  10.118   5.351  13.783
35632SOL     OW 8792  12.127   3.427   1.381
35632SOL    HW1 8793  12.054   3.447   1.439
35632SOL    HW2 8794  12.170   3.351   1.421
35633SOL     OW 8795  13.516   9.549   2.140
35633SOL    HW1 8796  13.436   9.498   2.152
35633SOL    HW2 8797  13.508   9.586   2.052
35634SOL     OW 8798   1.363   8.807  12.674
35634SOL    HW1 8799   1.446   8.811  12.721
35634SOL    HW2 8800   1.323   8.892  12.690
35635SOL     OW 8801   2.351   7.586  14.550
35635SOL    HW1 8802   2.414   7.573  14.479
35635SOL    HW2 8803   2.398   7.639  14.614
35636SOL     OW 8804   4.880   9.817  11.057
35636SOL    HW1 8805   4.974   9.825  11.042
35636SOL    HW2 8806   4.872   9.803  11.152
35637SOL     OW 8807   1.991   7.002   7.855
35637SOL    HW1 8808   1.974   7.091   7.826
35637SOL    HW2 8809   2.074   7.007   7.902
35638SOL     OW 8810  10.328  13.383   6.062
35638SOL    HW1 8811  10.251  13.339   6.026
35638SOL    HW2 8812  10.335  13.351   6.152
35639SOL     OW 8813  10.728   2.337   7.171
35639SOL    HW1 8814  10.680   2.337   7.088
35639SOL    HW2 8815  10.690   2.409   7.220
35640SOL     OW 8816   3.119   1.856   1.167
35640SOL    HW1 8817   3.087   1.769   1.194
35640SOL    HW2 8818   3.153   1.895   1.248
35641SOL     OW 8819  11.549   1.276   5.517
35641SOL    HW1 8820  11.494   1.227   5.455
35641SOL    HW2 8821  11.517   1.249   5.603
35642SOL     OW 8822  12.133   4.741   0.776
35642SOL    HW1 8823  12.048   4.779   0.799
35642SOL    HW2 8824  12.122   4.647   0.795
35643SOL     OW 8825   8.905  13.101  10.828
35643SOL    HW1 8826   8.946  13.175  10.783
35643SOL    HW2 8827   8.838  13.070  10.767
35644SOL     OW 8828   2.373   0.578   0.092
35644SOL    HW1 8829   2.467   0.586   0.108
35644SOL    HW2 8830   2.346   0.664   0.060
35645SOL     OW 8831   7.235   4.151  10.240
35645SOL    HW1 8832   7.194   4.206  10.307
35645SOL    HW2 8833   7.161   4.111  10.194
35646SOL     OW 8834  14.829  10.532   5.862
35646SOL    HW1 8835  14.804  10.448   5.825
35646SOL    HW2 8836  14.849  10.514   5.954
35647SOL     OW 8837   9.060   6.768   1.492
35647SOL    HW1 8838   9.146   6.728   1.506
35647SOL    HW2 8839   9.008   6.697   1.454
35648SOL     OW 8840   9.981  12.798   1.192
35648SOL    HW1 8841  10.004  12.715   1.150
35648SOL    HW2 8842   9.977  12.777   1.285
35649SOL     OW 8843   4.729   7.422   4.829
35649SOL    HW1 8844   4.690   7.509   4.822
35649SOL    HW2 8845   4.655   7.364   4.847
35650SOL     OW 8846  11.553   3.672  11.664
35650SOL    HW1 8847  11.625   3.731  11.640
35650SOL    HW2 8848  11.485   3.689  11.598
35651SOL     OW 8849   0.274   4.962   8.417
35651SOL    HW1 8850   0.314   4.910   8.347
35651SOL    HW2 8851   0.183   4.972   8.391
35652SOL     OW 8852   0.902  10.878   2.111
35652SOL    HW1 8853   0.876  10.833   2.191
35652SOL    HW2 8854   0.971  10.823   2.074
35653SOL     OW 8855   8.028  12.108   8.346
35653SOL    HW1 8856   7.971  12.047   8.392
35653SOL    HW2 8857   8.113  12.099   8.389
35654SOL     OW 8858  11.633  11.569   9.735
35654SOL    HW1 8859  11.647  11.644   9.677
35654SOL    HW2 8860  11.716  11.557   9.780
35655SOL     OW 8861  11.032   5.312  10.354
35655SOL    HW1 8862  11.040   5.263  10.436
35655SOL    HW2 8863  11.099   5.380  10.361
35656SOL     OW 8864   7.388   2.527  12.074
35656SOL    HW1 8865   7.410   2.464  12.143
35656SOL    HW2 8866   7.314   2.487  12.028
35657SOL     OW 8867   7.470   3.984   2.108
35657SOL    HW1 8868   7.492   4.025   2.025
35657SOL    HW2 8869   7.536   3.915   2.119
35658SOL     OW 8870   6.887   1.138   5.138
35658SOL    HW1 8871   6.909   1.191   5.061
35658SOL    HW2 8872   6.860   1.054   5.102
35659SOL     OW 8873   0.249   2.049  12.710
35659SOL    HW1 8874   0.254   2.144  12.714
35659SOL    HW2 8875   0.167   2.031  12.663
35660SOL     OW 8876   8.232   3.228  12.789
35660SOL    HW1 8877   8.208   3.310  12.746
35660SOL    HW2 8878   8.242   3.252  12.881
35661SOL     OW 8879   1.783  10.571   2.896
35661SOL    HW1 8880   1.734  10.643   2.934
35661SOL    HW2 8881   1.799  10.597   2.805
35662SOL     OW 8882  10.185  11.796   4.906
35662SOL    HW1 8883  10.100  11.830   4.935
35662SOL    HW2 8884  10.195  11.832   4.817
35663SOL     OW 8885   6.359  12.001   6.776
35663SOL    HW1 8886   6.453  11.987   6.781
35663SOL    HW2 8887   6.339  11.994   6.682
35664SOL     OW 8888   6.055   8.043  10.446
35664SOL    HW1 8889   5.975   8.096  10.446
35664SOL    HW2 8890   6.097   8.063  10.529
35665SOL     OW 8891  12.788   3.796  10.978
35665SOL    HW1 8892  12.827   3.727  10.924
35665SOL    HW2 8893  12.852   3.866  10.978
35666SOL     OW 8894   1.512  11.834   7.502
35666SOL    HW1 8895   1.443  11.791   7.551
35666SOL    HW2 8896   1.576  11.860   7.568
35667SOL     OW 8897   5.728   8.279   4.065
35667SOL    HW1 8898   5.668   8.297   3.993
35667SOL    HW2 8899   5.815   8.279   4.024
35668SOL     OW 8900  10.362  11.222   1.113
35668SOL    HW1 8901  10.375  11.164   1.038
35668SOL    HW2 8902  10.273  11.204   1.143
35669SOL     OW 8903   0.350  13.383  13.763
35669SOL    HW1 8904   0.323  13.463  13.809
35669SOL    HW2 8905   0.412  13.413  13.697
35670SOL     OW 8906   3.659   0.452  12.053
35670SOL    HW1 8907   3.689   0.370  12.093
35670SOL    HW2 8908   3.731   0.513  12.067
35671SOL     OW 8909   6.965   7.305  12.084
35671SOL    HW1 8910   6.977   7.312  11.989
35671SOL    HW2 8911   6.987   7.214  12.104
35672SOL     OW 8912   6.944   8.745   0.873
35672SOL    HW1 8913   6.936   8.688   0.797
35672SOL    HW2 8914   6.979   8.689   0.942
35673SOL     OW 8915  13.502   3.770   7.380
35673SOL    HW1 8916  13.485   3.754   7.288
35673SOL    HW2 8917  13.416   3.777   7.420
35674SOL     OW 8918   9.601   3.657   7.615
35674SOL    HW1 8919   9.642   3.599   7.678
35674SOL    HW2 8920   9.553   3.720   7.668
35675SOL     OW 8921  10.796   2.062   7.864
35675SOL    HW1 8922  10.809   2.081   7.957
35675SOL    HW2 8923  10.789   2.148   7.823
35676SOL     OW 8924  12.610  11.628   0.895
35676SOL    HW1 8925  12.665  11.587   0.828
35676SOL    HW2 8926  12.584  11.712   0.856
35677SOL     OW 8927   6.629   7.430   5.467
35677SOL    HW1 8928   6.573   7.364   5.425
35677SOL    HW2 8929   6.671   7.383   5.539
35678SOL     OW 8930   3.761   6.594  10.480
35678SOL    HW1 8931   3.669   6.569  10.482
35678SOL    HW2 8932   3.801   6.535  10.416
35679SOL     OW 8933   2.713   6.333   8.983
35679SOL    HW1 8934   2.789   6.367   9.031
35679SOL    HW2 8935   2.727   6.362   8.893
35680SOL     OW 8936   2.146   5.231  14.405
35680SOL    HW1 8937   2.090   5.175  14.459
35680SOL    HW2 8938   2.106   5.227  14.318
35681SOL     OW 8939   6.281   7.016  10.251
35681SOL    HW1 8940   6.323   7.101  10.237
35681SOL    HW2 8941   6.333   6.974  10.319
35682SOL     OW 8942   6.978   5.935   9.601
35682SOL    HW1 8943   6.988   5.842   9.623
35682SOL    HW2 8944   6.975   5.980   9.686
35683SOL     OW 8945  12.853   6.080   8.825
35683SOL    HW1 8946  12.807   6.107   8.745
35683SOL    HW2 8947  12.867   5.986   8.814
35684SOL     OW 8948  13.450   0.715   0.187
35684SOL    HW1 8949  13.546   0.710   0.189
35684SOL    HW2 8950  13.424   0.652   0.119
35685SOL     OW 8951   1.479  12.999   9.419
35685SOL    HW1 8952   1.389  13.014   9.389
35685SOL    HW2 8953   1.479  13.026   9.511
35686SOL     OW 8954   6.777   4.267   0.726
35686SOL    HW1 8955   6.713   4.331   0.757
35686SOL    HW2 8956   6.783   4.203   0.797
35687SOL     OW 8957   8.661   5.299  14.083
35687SOL    HW1 8958   8.612   5.271  14.160
35687SOL    HW2 8959   8.685   5.218  14.039
35688SOL     OW 8960  11.746   4.672  11.760
35688SOL    HW1 8961  11.679   4.703  11.821
35688SOL    HW2 8962  11.789   4.752  11.730
35689SOL     OW 8963   4.007   1.931  10.682
35689SOL    HW1 8964   4.058   1.923  10.601
35689SOL    HW2 8965   4.042   2.008  10.726
35690SOL     OW 8966  10.111   4.071  13.239
35690SOL    HW1 8967  10.054   4.112  13.303
35690SOL    HW2 8968  10.073   4.094  13.154
35691SOL     OW 8969   3.447   7.277   4.246
35691SOL    HW1 8970   3.452   7.363   4.288
35691SOL    HW2 8971   3.372   7.234   4.288
35692SOL     OW 8972   6.974  14.100   8.178
35692SOL    HW1 8973   6.957  14.067   8.266
35692SOL    HW2 8974   7.060  14.065   8.155
35693SOL     OW 8975   3.962   0.143   9.366
35693SOL    HW1 8976   4.006   0.228   9.361
35693SOL    HW2 8977   3.891   0.157   9.429
35694SOL     OW 8978  11.108   5.330   8.933
35694SOL    HW1 8979  11.051   5.336   8.857
35694SOL    HW2 8980  11.189   5.291   8.900
35695SOL     OW 8981   7.833   4.156   0.845
35695SOL    HW1 8982   7.885   4.234   0.864
35695SOL    HW2 8983   7.789   4.136   0.927
35696SOL     OW 8984   1.019  14.724  13.496
35696SOL    HW1 8985   0.997  14.817  13.492
35696SOL    HW2 8986   1.096  14.720  13.551
35697SOL     OW 8987   2.975  13.164  10.381
35697SOL    HW1 8988   2.997  13.158  10.288
35697SOL    HW2 8989   3.001  13.079  10.417
35698SOL     OW 8990  11.721   2.601   1.451
35698SOL    HW1 8991  11.667   2.552   1.389
35698SOL    HW2 8992  11.810   2.588   1.420
35699SOL     OW 8993   3.207   3.893  14.806
35699SOL    HW1 8994   3.249   3.926   0.005
35699SOL    HW2 8995   3.115   3.917  14.816
35700SOL     OW 8996   3.798  11.537  14.699
35700SOL    HW1 8997   3.858  11.558  14.627
35700SOL    HW2 8998   3.736  11.474  14.662
35701SOL     OW 8999  12.548   1.695  12.186
35701SOL    HW1 9000  12.497   1.705  12.106
35701SOL    HW2 9001  12.635   1.666  12.157
35702SOL     OW 9002   0.396  11.737  11.927
35702SOL    HW1 9003   0.450  11.807  11.964
35702SOL    HW2 9004   0.443  11.710  11.848
35703SOL     OW 9005  11.255   0.950   0.521
35703SOL    HW1 9006  11.296   0.950   0.608
35703SOL    HW2 9007  11.304   1.016   0.472
35704SOL     OW 9008   2.107  10.232   6.219
35704SOL    HW1 9009   2.120  10.314   6.171
35704SOL    HW2 9010   2.195  10.205   6.244
35705SOL     OW 9011   5.239   3.093   6.066
35705SOL    HW1 9012   5.160   3.106   6.119
35705SOL    HW2 9013   5.243   2.999   6.052
35706SOL     OW 9014  12.271  11.511  13.080
35706SOL    HW1 9015  12.352  11.541  13.121
35706SOL    HW2 9016  12.211  11.586  13.085
35707SOL     OW 9017   4.462  11.808   4.863
35707SOL    HW1 9018   4.477  11.874   4.931
35707SOL    HW2 9019   4.371  11.820   4.837
35708SOL     OW 9020   9.909   3.547   9.927
35708SOL    HW1 9021   9.977   3.508   9.873
35708SOL    HW2 9022   9.847   3.586   9.865
35709SOL     OW 9023  14.862   5.159   1.173
35709SOL    HW1 9024  14.841   5.198   1.088
35709SOL    HW2 9025  14.792   5.190   1.231
35710SOL     OW 9026  11.755   8.155   8.707
35710SOL    HW1 9027  11.669   8.181   8.675
35710SOL    HW2 9028  11.816   8.193   8.643
35711SOL     OW 9029   9.972  13.273   1.152
35711SOL    HW1 9030   9.901  13.208   1.161
35711SOL    HW2 9031   9.973  13.292   1.058
35712SOL     OW 9032   3.016   6.345   8.590
35712SOL    HW1 9033   2.969   6.262   8.602
35712SOL    HW2 9034   3.108   6.319   8.577
35713SOL     OW 9035  10.649   1.419   6.678
35713SOL    HW1 9036  10.580   1.388   6.737
35713SOL    HW2 9037  10.604   1.437   6.596
35714SOL     OW 9038   2.762  11.170   8.758
35714SOL    HW1 9039   2.843  11.125   8.737
35714SOL    HW2 9040   2.786  11.233   8.826
35715SOL     OW 9041   4.383   0.098  13.468
35715SOL    HW1 9042   4.337   0.172  13.507
35715SOL    HW2 9043   4.411   0.129  13.382
35716SOL     OW 9044   0.865  11.422  13.511
35716SOL    HW1 9045   0.806  11.497  13.507
35716SOL    HW2 9046   0.941  11.453  13.560
35717SOL     OW 9047   4.720   8.454  11.439
35717SOL    HW1 9048   4.663   8.434  11.365
35717SOL    HW2 9049   4.751   8.542  11.423
35718SOL     OW 9050   1.913   1.681   3.396
35718SOL    HW1 9051   1.998   1.691   3.354
35718SOL    HW2 9052   1.927   1.617   3.465
35719SOL     OW 9053   1.654   2.143   6.040
35719SOL    HW1 9054   1.702   2.153   6.123
35719SOL    HW2 9055   1.562   2.137   6.066
35720SOL     OW 9056  11.281  12.009   1.357
35720SOL    HW1 9057  11.374  12.031   1.345
35720SOL    HW2 9058  11.276  11.975   1.446
35721SOL     OW 9059  12.835   0.787   8.459
35721SOL    HW1 9060  12.824   0.882   8.463
35721SOL    HW2 9061  12.799   0.755   8.542
35722SOL     OW 9062   5.160  12.682  10.511
35722SOL    HW1 9063   5.114  12.645  10.586
35722SOL    HW2 9064   5.227  12.738  10.549
35723SOL     OW 9065   5.356   9.692   7.047
35723SOL    HW1 9066   5.447   9.688   7.016
35723SOL    HW2 9067   5.350   9.778   7.089
35724SOL     OW 9068   5.048   1.839   8.772
35724SOL    HW1 9069   5.136   1.847   8.736
35724SOL    HW2 9070   4.998   1.793   8.703
35725SOL     OW 9071   0.582  10.010   9.549
35725SOL    HW1 9072   0.576  10.007   9.454
35725SOL    HW2 9073   0.539  10.092   9.574
35726SOL     OW 9074   6.526   0.418   1.936
35726SOL    HW1 9075   6.563   0.337   1.971
35726SOL    HW2 9076   6.574   0.488   1.980
35727SOL     OW 9077   8.841   1.701   4.972
35727SOL    HW1 9078   8.921   1.752   4.985
35727SOL    HW2 9079   8.781   1.762   4.929
35728SOL     OW 9080   6.749   1.087  13.786
35728SOL    HW1 9081   6.676   1.079  13.725
35728SOL    HW2 9082   6.826   1.095  13.730
35729SOL     OW 9083   2.885   2.446  13.351
35729SOL    HW1 9084   2.893   2.486  13.438
35729SOL    HW2 9085   2.967   2.469  13.307
35730SOL     OW 9086   4.782  12.718   8.740
35730SOL    HW1 9087   4.802  12.633   8.702
35730SOL    HW2 9088   4.774  12.701   8.834
35731SOL     OW 9089   5.237   6.169   9.517
35731SOL    HW1 9090   5.175   6.138   9.583
35731SOL    HW2 9091   5.205   6.256   9.493
35732SOL     OW 9092   8.666   2.119  14.451
35732SOL    HW1 9093   8.616   2.197  14.427
35732SOL    HW2 9094   8.724   2.149  14.521
35733SOL     OW 9095  13.866  13.461  12.407
35733SOL    HW1 9096  13.799  13.523  12.439
35733SOL    HW2 9097  13.949  13.507  12.420
35734SOL     OW 9098   3.897   7.079   1.983
35734SOL    HW1 9099   3.930   7.032   2.061
35734SOL    HW2 9100   3.851   7.155   2.019
35735SOL     OW 9101   5.124   6.615  12.316
35735SOL    HW1 9102   5.065   6.569  12.257
35735SOL    HW2 9103   5.206   6.566  12.311
35736SOL     OW 9104   4.214   1.091   1.904
35736SOL    HW1 9105   4.174   1.059   1.823
35736SOL    HW2 9106   4.226   1.185   1.890
35737SOL     OW 9107   9.714   8.876  11.763
35737SOL    HW1 9108   9.721   8.954  11.818
35737SOL    HW2 9109   9.629   8.884  11.720
35738SOL     OW 9110  12.250   2.625  10.482
35738SOL    HW1 9111  12.328   2.641  10.428
35738SOL    HW2 9112  12.278   2.648  10.570
35739SOL     OW 9113  13.108   3.996   0.710
35739SOL    HW1 9114  13.185   3.949   0.678
35739SOL    HW2 9115  13.136   4.088   0.711
35740SOL     OW 9116  10.370   8.101   7.509
35740SOL    HW1 9117  10.398   8.026   7.562
35740SOL    HW2 9118  10.395   8.177   7.561
35741SOL     OW 9119   0.192   3.984  11.698
35741SOL    HW1 9120   0.252   3.954  11.629
35741SOL    HW2 9121   0.166   3.904  11.743
35742SOL     OW 9122   1.256   6.059  14.869
35742SOL    HW1 9123   1.228   6.017   0.070
35742SOL    HW2 9124   1.345   6.089   0.007
35743SOL     OW 9125   5.203  12.445  10.423
35743SOL    HW1 9126   5.196  12.535  10.457
35743SOL    HW2 9127   5.184  12.454  10.329
35744SOL     OW 9128  14.707  12.658   2.883
35744SOL    HW1 9129  14.635  12.676   2.823
35744SOL    HW2 9130  14.752  12.583   2.843
35745SOL     OW 9131  14.710   4.022  14.099
35745SOL    HW1 9132  14.683   4.095  14.155
35745SOL    HW2 9133  14.676   3.944  14.143
35746SOL     OW 9134   3.902   8.463   8.326
35746SOL    HW1 9135   3.827   8.424   8.370
35746SOL    HW2 9136   3.896   8.557   8.344
35747SOL     OW 9137   5.680   6.145  12.589
35747SOL    HW1 9138   5.685   6.050  12.587
35747SOL    HW2 9139   5.597   6.164  12.633
35748SOL     OW 9140   8.538   7.862  10.163
35748SOL    HW1 9141   8.583   7.872  10.079
35748SOL    HW2 9142   8.582   7.788  10.205
35749SOL     OW 9143  12.525   6.460  11.971
35749SOL    HW1 9144  12.448   6.418  11.933
35749SOL    HW2 9145  12.504   6.554  11.971
35750SOL     OW 9146  14.112  10.012   0.447
35750SOL    HW1 9147  14.027  10.056   0.451
35750SOL    HW2 9148  14.146  10.019   0.536
35751SOL     OW 9149   2.454   1.198   5.682
35751SOL    HW1 9150   2.495   1.120   5.719
35751SOL    HW2 9151   2.370   1.168   5.649
35752SOL     OW 9152  11.553   5.357   1.073
35752SOL    HW1 9153  11.508   5.293   1.129
35752SOL    HW2 9154  11.544   5.322   0.985
35753SOL     OW 9155   1.935   9.582   0.675
35753SOL    HW1 9156   1.878   9.625   0.738
35753SOL    HW2 9157   1.902   9.612   0.590
35754SOL     OW 9158   3.867   1.416   9.446
35754SOL    HW1 9159   3.950   1.444   9.407
35754SOL    HW2 9160   3.830   1.496   9.484
35755SOL     OW 9161   2.470   2.097   0.141
35755SOL    HW1 9162   2.518   2.041   0.202
35755SOL    HW2 9163   2.488   2.186   0.170
35756SOL     OW 9164   1.870   1.208   0.410
35756SOL    HW1 9165   1.897   1.287   0.364
35756SOL    HW2 9166   1.918   1.137   0.366
35757SOL     OW 9167   5.725  10.894  11.377
35757SOL    HW1 9168   5.688  10.876  11.291
35757SOL    HW2 9169   5.799  10.834  11.385
35758SOL     OW 9170   7.166  11.544  11.074
35758SOL    HW1 9171   7.242  11.515  11.125
35758SOL    HW2 9172   7.134  11.621  11.119
35759SOL     OW 9173   2.539  14.423   3.399
35759SOL    HW1 9174   2.617  14.369   3.392
35759SOL    HW2 9175   2.555  14.478   3.476
35760SOL     OW 9176  11.883  11.940   3.015
35760SOL    HW1 9177  11.807  11.900   3.057
35760SOL    HW2 9178  11.847  12.012   2.963
35761SOL     OW 9179  13.908   0.707   8.260
35761SOL    HW1 9180  13.875   0.796   8.271
35761SOL    HW2 9181  13.847   0.652   8.309
35762SOL     OW 9182   8.569   1.674  12.265
35762SOL    HW1 9183   8.559   1.623  12.344
35762SOL    HW2 9184   8.484   1.670  12.222
35763SOL     OW 9185  11.827   4.362   9.326
35763SOL    HW1 9186  11.737   4.361   9.292
35763SOL    HW2 9187  11.818   4.355   9.420
35764SOL     OW 9188  14.043   3.545   1.266
35764SOL    HW1 9189  14.098   3.481   1.221
35764SOL    HW2 9190  14.007   3.496   1.341
35765SOL     OW 9191   8.790  13.195   8.209
35765SOL    HW1 9192   8.787  13.220   8.301
35765SOL    HW2 9193   8.773  13.101   8.208
35766SOL     OW 9194   4.115   9.368  12.039
35766SOL    HW1 9195   4.036   9.415  12.067
35766SOL    HW2 9196   4.175   9.437  12.009
35767SOL     OW 9197   8.617   8.938   1.364
35767SOL    HW1 9198   8.660   8.881   1.299
35767SOL    HW2 9199   8.569   8.878   1.420
35768SOL     OW 9200   5.019   2.501   8.270
35768SOL    HW1 9201   5.066   2.460   8.342
35768SOL    HW2 9202   4.983   2.582   8.308
35769SOL     OW 9203  10.730  14.735  14.428
35769SOL    HW1 9204  10.812  14.687  14.416
35769SOL    HW2 9205  10.758  14.825  14.447
35770SOL     OW 9206  11.156   3.032   5.625
35770SOL    HW1 9207  11.153   3.100   5.558
35770SOL    HW2 9208  11.078   2.979   5.609
35771SOL     OW 9209   3.269   4.687   6.572
35771SOL    HW1 9210   3.202   4.749   6.544
35771SOL    HW2 9211   3.245   4.604   6.529
35772SOL     OW 9212   8.543  13.957   6.230
35772SOL    HW1 9213   8.604  13.966   6.303
35772SOL    HW2 9214   8.582  13.889   6.174
35773SOL     OW 9215  10.770   6.309   1.349
35773SOL    HW1 9216  10.737   6.399   1.342
35773SOL    HW2 9217  10.700   6.255   1.312
35774SOL     OW 9218  12.787   7.584   7.726
35774SOL    HW1 9219  12.877   7.570   7.698
35774SOL    HW2 9220  12.793   7.600   7.820
35775SOL     OW 9221   2.283  12.900  12.401
35775SOL    HW1 9222   2.357  12.947  12.438
35775SOL    HW2 9223   2.216  12.966  12.389
35776SOL     OW 9224   8.966   0.679   1.875
35776SOL    HW1 9225   8.926   0.696   1.790
35776SOL    HW2 9226   9.040   0.621   1.854
35777SOL     OW 9227   2.528  12.831  14.402
35777SOL    HW1 9228   2.588  12.805  14.472
35777SOL    HW2 9229   2.453  12.870  14.448
35778SOL     OW 9230   4.754   8.772  13.156
35778SOL    HW1 9231   4.767   8.681  13.127
35778SOL    HW2 9232   4.755   8.823  13.075
35779SOL     OW 9233   0.702   0.181  12.568
35779SOL    HW1 9234   0.688   0.213  12.479
35779SOL    HW2 9235   0.652   0.099  12.572
35780SOL     OW 9236  10.790  11.757  13.073
35780SOL    HW1 9237  10.718  11.816  13.093
35780SOL    HW2 9238  10.747  11.674  13.049
35781SOL     OW 9239  13.518   7.860   2.083
35781SOL    HW1 9240  13.568   7.781   2.065
35781SOL    HW2 9241  13.427   7.832   2.079
35782SOL     OW 9242   6.803  11.682  10.298
35782SOL    HW1 9243   6.811  11.724  10.213
35782SOL    HW2 9244   6.806  11.754  10.361
35783SOL     OW 9245  12.935   4.072  12.594
35783SOL    HW1 9246  12.912   4.063  12.686
35783SOL    HW2 9247  13.031   4.064  12.592
35784SOL     OW 9248  11.059   4.765   7.301
35784SOL    HW1 9249  11.119   4.695   7.275
35784SOL    HW2 9250  11.081   4.784   7.392
35785SOL     OW 9251  13.726  13.869  10.520
35785SOL    HW1 9252  13.787  13.943  10.530
35785SOL    HW2 9253  13.655  13.904  10.466
35786SOL     OW 9254  10.859   9.884   4.841
35786SOL    HW1 9255  10.936   9.914   4.891
35786SOL    HW2 9256  10.792   9.868   4.908
35787SOL     OW 9257   9.843  13.885   0.924
35787SOL    HW1 9258   9.870  13.940   0.850
35787SOL    HW2 9259   9.910  13.816   0.928
35788SOL     OW 9260  12.942   7.803   0.374
35788SOL    HW1 9261  13.009   7.735   0.367
35788SOL    HW2 9262  12.990   7.885   0.362
35789SOL     OW 9263  13.554   4.565   1.841
35789SOL    HW1 9264  13.484   4.527   1.788
35789SOL    HW2 9265  13.549   4.518   1.924
35790SOL     OW 9266  12.827  12.126  10.557
35790SOL    HW1 9267  12.886  12.096  10.626
35790SOL    HW2 9268  12.875  12.197  10.514
35791SOL     OW 9269   3.290   9.205   2.763
35791SOL    HW1 9270   3.208   9.183   2.718
35791SOL    HW2 9271   3.334   9.121   2.776
35792SOL     OW 9272   8.883   0.280   6.956
35792SOL    HW1 9273   8.788   0.279   6.973
35792SOL    HW2 9274   8.900   0.370   6.927
35793SOL     OW 9275  11.740   7.779  14.230
35793SOL    HW1 9276  11.653   7.799  14.196
35793SOL    HW2 9277  11.740   7.815  14.318
35794SOL     OW 9278  11.911   6.076   2.616
35794SOL    HW1 9279  11.918   6.168   2.594
35794SOL    HW2 9280  11.978   6.033   2.563
35795SOL     OW 9281   2.475   6.691   5.829
35795SOL    HW1 9282   2.380   6.677   5.837
35795SOL    HW2 9283   2.485   6.785   5.813
35796SOL     OW 9284   8.936   2.169   1.659
35796SOL    HW1 9285   9.005   2.118   1.701
35796SOL    HW2 9286   8.982   2.228   1.600
35797SOL     OW 9287   6.801  10.814   4.554
35797SOL    HW1 9288   6.886  10.807   4.597
35797SOL    HW2 9289   6.814  10.774   4.468
35798SOL     OW 9290   2.812  12.544  12.515
35798SOL    HW1 9291   2.853  12.462  12.543
35798SOL    HW2 9292   2.846  12.558  12.426
35799SOL     OW 9293  11.626   0.867   1.836
35799SOL    HW1 9294  11.593   0.952   1.866
35799SOL    HW2 9295  11.567   0.803   1.876
35800SOL     OW 9296   7.109   2.359  12.754
35800SOL    HW1 9297   7.116   2.454  12.745
35800SOL    HW2 9298   7.164   2.337  12.828
35801SOL     OW 9299  12.840   8.880  12.572
35801SOL    HW1 9300  12.876   8.959  12.531
35801SOL    HW2 9301  12.859   8.890  12.665
35802SOL     OW 9302  10.501   3.024   4.301
35802SOL    HW1 9303  10.477   2.934   4.321
35802SOL    HW2 9304  10.417   3.068   4.283
35803SOL     OW 9305   7.397  12.939   4.715
35803SOL    HW1 9306   7.322  12.945   4.774
35803SOL    HW2 9307   7.408  13.028   4.681
35804SOL     OW 9308   1.703  11.583  10.885
35804SOL    HW1 9309   1.731  11.656  10.831
35804SOL    HW2 9310   1.783  11.554  10.929
35805SOL     OW 9311  13.433  14.724  13.870
35805SOL    HW1 9312  13.390  14.661  13.813
35805SOL    HW2 9313  13.405  14.701  13.958
35806SOL     OW 9314   9.533   9.471  10.884
35806SOL    HW1 9315   9.491   9.386  10.869
35806SOL    HW2 9316   9.597   9.454  10.952
35807SOL     OW 9317  10.673   0.013   6.695
35807SOL    HW1 9318  10.605   0.047   6.636
35807SOL    HW2 9319  10.682   0.081   6.762
35808SOL     OW 9320   2.053   3.666  12.940
35808SOL    HW1 9321   2.094   3.614  13.009
35808SOL    HW2 9322   1.967   3.625  12.927
35809SOL     OW 9323  11.864  13.462   8.893
35809SOL    HW1 9324  11.810  13.536   8.865
35809SOL    HW2 9325  11.913  13.495   8.968
35810SOL     OW 9326   3.828   0.655  13.049
35810SOL    HW1 9327   3.846   0.580  12.992
35810SOL    HW2 9328   3.895   0.719  13.025
35811SOL     OW 9329  11.173   4.347   6.588
35811SOL    HW1 9330  11.095   4.310   6.628
35811SOL    HW2 9331  11.171   4.440   6.613
35812SOL     OW 9332  11.459  10.964   0.350
35812SOL    HW1 9333  11.427  11.040   0.398
35812SOL    HW2 9334  11.463  10.992   0.259
35813SOL     OW 9335   9.239   7.386   1.002
35813SOL    HW1 9336   9.294   7.319   1.043
35813SOL    HW2 9337   9.257   7.465   1.052
35814SOL     OW 9338   2.874   7.164   6.506
35814SOL    HW1 9339   2.833   7.120   6.580
35814SOL    HW2 9340   2.853   7.257   6.520
35815SOL     OW 9341  11.635  13.566   1.219
35815SOL    HW1 9342  11.708  13.541   1.162
35815SOL    HW2 9343  11.563  13.509   1.193
35816SOL     OW 9344   8.842   2.695   2.602
35816SOL    HW1 9345   8.905   2.627   2.624
35816SOL    HW2 9346   8.895   2.770   2.576
35817SOL     OW 9347  11.778  11.947  11.433
35817SOL    HW1 9348  11.773  11.971  11.525
35817SOL    HW2 9349  11.865  11.976  11.405
35818SOL     OW 9350   2.237  11.468   4.812
35818SOL    HW1 9351   2.143  11.465   4.829
35818SOL    HW2 9352   2.255  11.388   4.761
35819SOL     OW 9353   7.517  13.206   2.818
35819SOL    HW1 9354   7.536  13.259   2.896
35819SOL    HW2 9355   7.445  13.252   2.775
35820SOL     OW 9356  11.175  12.647  12.184
35820SOL    HW1 9357  11.184  12.740  12.165
35820SOL    HW2 9358  11.202  12.604  12.103
35821SOL     OW 9359   4.308   3.360   8.844
35821SOL    HW1 9360   4.401   3.381   8.834
35821SOL    HW2 9361   4.299   3.273   8.805
35822SOL     OW 9362  13.662   7.808   0.538
35822SOL    HW1 9363  13.606   7.768   0.604
35822SOL    HW2 9364  13.705   7.881   0.583
35823SOL     OW 9365  12.455   9.755   3.677
35823SOL    HW1 9366  12.426   9.670   3.710
35823SOL    HW2 9367  12.549   9.744   3.664
35824SOL     OW 9368  11.558   6.076  12.160
35824SOL    HW1 9369  11.587   6.079  12.251
35824SOL    HW2 9370  11.473   6.121  12.161
35825SOL     OW 9371   7.739  12.017  10.971
35825SOL    HW1 9372   7.794  12.033  11.047
35825SOL    HW2 9373   7.708  12.104  10.945
35826SOL     OW 9374   3.687   0.655   6.362
35826SOL    HW1 9375   3.761   0.677   6.417
35826SOL    HW2 9376   3.692   0.560   6.351
35827SOL     OW 9377   1.788   3.403   6.519
35827SOL    HW1 9378   1.735   3.350   6.459
35827SOL    HW2 9379   1.877   3.400   6.482
35828SOL     OW 9380  10.215   6.570   1.576
35828SOL    HW1 9381  10.194   6.653   1.617
35828SOL    HW2 9382  10.200   6.505   1.644
35829SOL     OW 9383   9.813   5.154   3.268
35829SOL    HW1 9384   9.886   5.120   3.216
35829SOL    HW2 9385   9.760   5.077   3.289
35830SOL     OW 9386   3.137   5.104  12.063
35830SOL    HW1 9387   3.118   5.148  11.980
35830SOL    HW2 9388   3.070   5.035  12.069
35831SOL     OW 9389   8.512  11.320   9.315
35831SOL    HW1 9390   8.507  11.249   9.251
35831SOL    HW2 9391   8.422  11.337   9.340
35832SOL     OW 9392   4.530   5.755   0.353
35832SOL    HW1 9393   4.455   5.765   0.294
35832SOL    HW2 9394   4.498   5.697   0.422
35833SOL     OW 9395   4.118   2.861  10.414
35833SOL    HW1 9396   4.046   2.863  10.351
35833SOL    HW2 9397   4.078   2.891  10.496
35834SOL     OW 9398  14.004  14.016  10.980
35834SOL    HW1 9399  13.928  14.024  11.037
35834SOL    HW2 9400  14.077  13.996  11.039
35835SOL     OW 9401  10.426   2.611   2.689
35835SOL    HW1 9402  10.411   2.568   2.773
35835SOL    HW2 9403  10.380   2.694   2.697
35836SOL     OW 9404  12.932   1.653   1.614
35836SOL    HW1 9405  12.906   1.630   1.524
35836SOL    HW2 9406  12.875   1.726   1.637
35837SOL     OW 9407   0.555   7.929   8.905
35837SOL    HW1 9408   0.526   7.984   8.978
35837SOL    HW2 9409   0.475   7.892   8.869
35838SOL     OW 9410   2.725  10.903   0.204
35838SOL    HW1 9411   2.684  10.933   0.123
35838SOL    HW2 9412   2.657  10.912   0.270
35839SOL     OW 9413  13.272   0.242  13.196
35839SOL    HW1 9414  13.221   0.165  13.169
35839SOL    HW2 9415  13.315   0.215  13.277
35840SOL     OW 9416   8.019   6.681   3.450
35840SOL    HW1 9417   7.950   6.641   3.503
35840SOL    HW2 9418   7.993   6.773   3.442
35841SOL     OW 9419  13.943   9.957   6.264
35841SOL    HW1 9420  13.901   9.948   6.179
35841SOL    HW2 9421  13.998  10.034   6.256
35842SOL     OW 9422   8.400   1.694   8.558
35842SOL    HW1 9423   8.381   1.777   8.603
35842SOL    HW2 9424   8.476   1.714   8.503
35843SOL     OW 9425   7.648   3.629   9.040
35843SOL    HW1 9426   7.599   3.690   8.985
35843SOL    HW2 9427   7.610   3.543   9.019
35844SOL     OW 9428  13.728   0.655   6.466
35844SOL    HW1 9429  13.657   0.689   6.411
35844SOL    HW2 9430  13.683   0.604   6.533
35845SOL     OW 9431  11.975   3.091   6.824
35845SOL    HW1 9432  11.925   3.169   6.800
35845SOL    HW2 9433  11.940   3.065   6.909
35846SOL     OW 9434  14.326   1.178   0.154
35846SOL    HW1 9435  14.371   1.096   0.135
35846SOL    HW2 9436  14.303   1.214   0.068
35847SOL     OW 9437   7.029   8.274  14.880
35847SOL    HW1 9438   7.120   8.278  14.850
35847SOL    HW2 9439   6.984   8.341  14.827
35848SOL     OW 9440   1.068  13.711  10.648
35848SOL    HW1 9441   1.137  13.657  10.610
35848SOL    HW2 9442   1.115  13.782  10.692
35849SOL     OW 9443   6.122  12.714  13.034
35849SOL    HW1 9444   6.095  12.796  12.992
35849SOL    HW2 9445   6.069  12.708  13.113
35850SOL     OW 9446  11.539   5.204   5.911
35850SOL    HW1 9447  11.460   5.244   5.946
35850SOL    HW2 9448  11.531   5.112   5.934
35851SOL     OW 9449   2.831   5.824   3.030
35851SOL    HW1 9450   2.753   5.785   3.070
35851SOL    HW2 9451   2.808   5.835   2.938
35852SOL     OW 9452   5.975   1.122   2.411
35852SOL    HW1 9453   5.990   1.209   2.450
35852SOL    HW2 9454   5.909   1.137   2.344
35853SOL     OW 9455   0.066   1.503   9.273
35853SOL    HW1 9456   0.020   1.562   9.213
35853SOL    HW2 9457   0.071   1.420   9.225
35854SOL     OW 9458   1.396   5.236   9.980
35854SOL    HW1 9459   1.411   5.329   9.960
35854SOL    HW2 9460   1.483   5.202  10.002
35855SOL     OW 9461  14.084   1.421  13.272
35855SOL    HW1 9462  14.111   1.421  13.180
35855SOL    HW2 9463  13.997   1.462  13.272
35856SOL     OW 9464   5.810   6.758   9.808
35856SOL    HW1 9465   5.851   6.819   9.747
35856SOL    HW2 9466   5.729   6.732   9.766
35857SOL     OW 9467   8.129   7.855   7.004
35857SOL    HW1 9468   8.166   7.799   7.072
35857SOL    HW2 9469   8.056   7.900   7.046
35858SOL     OW 9470   8.121   6.695   4.175
35858SOL    HW1 9471   8.073   6.774   4.202
35858SOL    HW2 9472   8.188   6.683   4.242
35859SOL     OW 9473   8.828  12.214   2.267
35859SOL    HW1 9474   8.766  12.284   2.289
35859SOL    HW2 9475   8.914  12.257   2.267
35860SOL     OW 9476  12.771  11.023   5.931
35860SOL    HW1 9477  12.785  10.945   5.876
35860SOL    HW2 9478  12.815  11.094   5.884
35861SOL     OW 9479   9.242   6.044   6.034
35861SOL    HW1 9480   9.274   6.116   5.979
35861SOL    HW2 9481   9.151   6.032   6.008
35862SOL     OW 9482  10.806   9.420   2.363
35862SOL    HW1 9483  10.792   9.373   2.281
35862SOL    HW2 9484  10.741   9.490   2.361
35863SOL     OW 9485   1.244   7.361  10.721
35863SOL    HW1 9486   1.152   7.368  10.744
35863SOL    HW2 9487   1.270   7.274  10.753
35864SOL     OW 9488   2.564  14.832   0.671
35864SOL    HW1 9489   2.631  14.784   0.622
35864SOL    HW2 9490   2.609  14.862   0.750
35865SOL     OW 9491   7.638   1.575   7.550
35865SOL    HW1 9492   7.630   1.494   7.602
35865SOL    HW2 9493   7.730   1.578   7.525
35866SOL     OW 9494  12.671   8.811  10.220
35866SOL    HW1 9495  12.627   8.736  10.180
35866SOL    HW2 9496  12.604   8.879  10.222
35867SOL     OW 9497  14.107  13.793   0.604
35867SOL    HW1 9498  14.201  13.792   0.586
35867SOL    HW2 9499  14.078  13.878   0.570
35868SOL     OW 9500   0.351   2.805   7.341
35868SOL    HW1 9501   0.400   2.800   7.259
35868SOL    HW2 9502   0.259   2.809   7.315
35869SOL     OW 9503   7.496   2.601   8.005
35869SOL    HW1 9504   7.545   2.585   8.085
35869SOL    HW2 9505   7.461   2.516   7.981
35870SOL     OW 9506  12.574   0.235  13.083
35870SOL    HW1 9507  12.629   0.214  13.007
35870SOL    HW2 9508  12.512   0.162  13.088
35871SOL     OW 9509   8.857  10.280  14.487
35871SOL    HW1 9510   8.937  10.231  14.505
35871SOL    HW2 9511   8.805  10.222  14.431
35872SOL     OW 9512  12.205   1.453  13.070
35872SOL    HW1 9513  12.140   1.490  13.010
35872SOL    HW2 9514  12.275   1.421  13.012
35873SOL     OW 9515   9.527   7.429  14.038
35873SOL    HW1 9516   9.487   7.343  14.054
35873SOL    HW2 9517   9.462   7.491  14.071
35874SOL     OW 9518   7.805  12.068   2.757
35874SOL    HW1 9519   7.825  11.974   2.763
35874SOL    HW2 9520   7.891  12.111   2.757
35875SOL     OW 9521  13.718   2.124   0.718
35875SOL    HW1 9522  13.639   2.155   0.674
35875SOL    HW2 9523  13.687   2.093   0.803
35876SOL     OW 9524  13.839   5.766   0.833
35876SOL    HW1 9525  13.845   5.671   0.820
35876SOL    HW2 9526  13.867   5.781   0.923
35877SOL     OW 9527  13.862  10.114   4.770
35877SOL    HW1 9528  13.898  10.035   4.812
35877SOL    HW2 9529  13.923  10.183   4.793
35878SOL     OW 9530   6.254   5.827  10.248
35878SOL    HW1 9531   6.240   5.733  10.234
35878SOL    HW2 9532   6.190   5.851  10.315
35879SOL     OW 9533   7.376  12.711   6.606
35879SOL    HW1 9534   7.347  12.620   6.599
35879SOL    HW2 9535   7.350  12.737   6.694
35880SOL     OW 9536  13.732  14.710  12.106
35880SOL    HW1 9537  13.676  14.769  12.157
35880SOL    HW2 9538  13.819  14.720  12.144
35881SOL     OW 9539   9.247   8.888  10.625
35881SOL    HW1 9540   9.238   8.947  10.700
35881SOL    HW2 9541   9.274   8.805  10.663
35882SOL     OW 9542   9.592  10.198   3.345
35882SOL    HW1 9543   9.674  10.190   3.392
35882SOL    HW2 9544   9.607  10.151   3.262
35883SOL     OW 9545   9.661   5.013   2.040
35883SOL    HW1 9546   9.580   4.962   2.036
35883SOL    HW2 9547   9.688   5.008   2.131
35884SOL     OW 9548   0.822   1.242   4.910
35884SOL    HW1 9549   0.891   1.283   4.858
35884SOL    HW2 9550   0.743   1.293   4.891
35885SOL     OW 9551   1.666   8.348   9.931
35885SOL    HW1 9552   1.618   8.360   9.849
35885SOL    HW2 9553   1.598   8.341   9.998
35886SOL     OW 9554   7.196   6.296   1.352
35886SOL    HW1 9555   7.280   6.264   1.384
35886SOL    HW2 9556   7.186   6.382   1.392
35887SOL     OW 9557   0.002   0.614   8.230
35887SOL    HW1 9558  14.832   0.689   8.200
35887SOL    HW2 9559  14.829   0.576   8.300
35888SOL     OW 9560   3.815   6.122   0.858
35888SOL    HW1 9561   3.781   6.039   0.892
35888SOL    HW2 9562   3.887   6.096   0.801
35889SOL     OW 9563   5.708   1.422   4.971
35889SOL    HW1 9564   5.685   1.515   4.969
35889SOL    HW2 9565   5.737   1.406   5.061
35890SOL     OW 9566   3.537   9.486   1.234
35890SOL    HW1 9567   3.603   9.493   1.302
35890SOL    HW2 9568   3.552   9.400   1.195
35891SOL     OW 9569   4.940   3.516  13.005
35891SOL    HW1 9570   4.896   3.581  12.950
35891SOL    HW2 9571   4.988   3.568  13.070
35892SOL     OW 9572   2.176   1.746   1.552
35892SOL    HW1 9573   2.110   1.728   1.484
35892SOL    HW2 9574   2.129   1.734   1.635
35893SOL     OW 9575  14.799   7.904   8.259
35893SOL    HW1 9576  14.759   7.989   8.238
35893SOL    HW2 9577  14.838   7.876   8.176
35894SOL     OW 9578  14.388   1.219  13.623
35894SOL    HW1 9579  14.369   1.308  13.594
35894SOL    HW2 9580  14.318   1.199  13.685
35895SOL     OW 9581   7.238   1.181   0.818
35895SOL    HW1 9582   7.194   1.096   0.817
35895SOL    HW2 9583   7.223   1.215   0.906
35896SOL     OW 9584   1.137  13.293   7.838
35896SOL    HW1 9585   1.152  13.334   7.923
35896SOL    HW2 9586   1.209  13.231   7.828
35897SOL     OW 9587  14.611   4.352   0.506
35897SOL    HW1 9588  14.674   4.280   0.506
35897SOL    HW2 9589  14.657   4.423   0.461
35898SOL     OW 9590  10.164   6.499  11.010
35898SOL    HW1 9591  10.136   6.430  10.949
35898SOL    HW2 9592  10.095   6.502  11.076
35899SOL     OW 9593   3.035   4.691   3.576
35899SOL    HW1 9594   2.958   4.654   3.533
35899SOL    HW2 9595   3.089   4.615   3.597
35900SOL     OW 9596  14.773   9.549   0.091
35900SOL    HW1 9597  14.805   9.540   0.002
35900SOL    HW2 9598  14.760   9.644   0.103
35901SOL     OW 9599   8.620   2.915   1.507
35901SOL    HW1 9600   8.566   2.994   1.496
35901SOL    HW2 9601   8.632   2.907   1.602
35902SOL     OW 9602   9.764   2.104   9.533
35902SOL    HW1 9603   9.776   2.176   9.595
35902SOL    HW2 9604   9.759   2.026   9.588
35903SOL     OW 9605   2.138   2.008   3.218
35903SOL    HW1 9606   2.063   2.004   3.159
35903SOL    HW2 9607   2.214   2.022   3.161
35904SOL     OW 9608   8.577  14.246  12.954
35904SOL    HW1 9609   8.525  14.225  12.877
35904SOL    HW2 9610   8.559  14.339  12.971
35905SOL     OW 9611   3.855   4.569   0.335
35905SOL    HW1 9612   3.903   4.613   0.265
35905SOL    HW2 9613   3.876   4.476   0.324
35906SOL     OW 9614  10.290   8.769  12.322
35906SOL    HW1 9615  10.289   8.816  12.238
35906SOL    HW2 9616  10.264   8.834  12.387
35907SOL     OW 9617   2.910   3.965   5.880
35907SOL    HW1 9618   2.984   3.909   5.902
35907SOL    HW2 9619   2.907   3.965   5.785
35908SOL     OW 9620  12.195  11.687   6.193
35908SOL    HW1 9621  12.199  11.751   6.264
35908SOL    HW2 9622  12.116  11.710   6.145
35909SOL     OW 9623   6.810   3.340  12.766
35909SOL    HW1 9624   6.797   3.282  12.691
35909SOL    HW2 9625   6.899   3.373  12.754
35910SOL     OW 9626   6.874   9.629   1.446
35910SOL    HW1 9627   6.844   9.708   1.402
35910SOL    HW2 9628   6.898   9.658   1.534
35911SOL     OW 9629   8.250   5.420  12.431
35911SOL    HW1 9630   8.180   5.479  12.403
35911SOL    HW2 9631   8.233   5.338  12.385
35912SOL     OW 9632   3.529   4.221   7.347
35912SOL    HW1 9633   3.625   4.227   7.341
35912SOL    HW2 9634   3.512   4.128   7.364
35913SOL     OW 9635   3.560  12.514   8.705
35913SOL    HW1 9636   3.653  12.492   8.714
35913SOL    HW2 9637   3.550  12.540   8.614
35914SOL     OW 9638   4.821  14.586   3.063
35914SOL    HW1 9639   4.874  14.665   3.052
35914SOL    HW2 9640   4.885  14.515   3.070
35915SOL     OW 9641   9.621  12.459  14.033
35915SOL    HW1 9642   9.527  12.456  14.015
35915SOL    HW2 9643   9.633  12.396  14.104
35916SOL     OW 9644   1.244  11.974   4.306
35916SOL    HW1 9645   1.233  11.893   4.257
35916SOL    HW2 9646   1.155  12.002   4.327
35917SOL     OW 9647  13.250   6.539   0.829
35917SOL    HW1 9648  13.345   6.530   0.819
35917SOL    HW2 9649  13.237   6.548   0.924
35918SOL     OW 9650   8.942   0.311   8.573
35918SOL    HW1 9651   8.952   0.352   8.659
35918SOL    HW2 9652   8.878   0.366   8.528
35919SOL     OW 9653  14.603   6.532   6.038
35919SOL    HW1 9654  14.667   6.504   6.105
35919SOL    HW2 9655  14.523   6.484   6.059
35920SOL     OW 9656  12.532   7.515   7.771
35920SOL    HW1 9657  12.469   7.588   7.778
35920SOL    HW2 9658  12.617   7.558   7.762
35921SOL     OW 9659  14.714   5.445   7.180
35921SOL    HW1 9660  14.734   5.496   7.101
35921SOL    HW2 9661  14.782   5.469   7.243
35922SOL     OW 9662   9.158  13.037   0.513
35922SOL    HW1 9663   9.135  13.116   0.561
35922SOL    HW2 9664   9.126  13.053   0.424
35923SOL     OW 9665   5.138   4.722  12.500
35923SOL    HW1 9666   5.115   4.638  12.463
35923SOL    HW2 9667   5.205   4.758  12.441
35924SOL     OW 9668   6.885  12.930  10.779
35924SOL    HW1 9669   6.979  12.946  10.783
35924SOL    HW2 9670   6.846  13.016  10.795
35925SOL     OW 9671  14.679   4.484   7.065
35925SOL    HW1 9672  14.713   4.395   7.059
35925SOL    HW2 9673  14.595   4.480   7.018
35926SOL     OW 9674  12.551   3.572   6.361
35926SOL    HW1 9675  12.620   3.592   6.424
35926SOL    HW2 9676  12.590   3.596   6.276
35927SOL     OW 9677   0.355  13.745   5.633
35927SOL    HW1 9678   0.424  13.707   5.579
35927SOL    HW2 9679   0.309  13.670   5.670
35928SOL     OW 9680   9.978   6.366   4.619
35928SOL    HW1 9681  10.004   6.372   4.711
35928SOL    HW2 9682   9.964   6.456   4.591
35929SOL     OW 9683   7.493   6.363  12.947
35929SOL    HW1 9684   7.405   6.342  12.977
35929SOL    HW2 9685   7.500   6.321  12.861
35930SOL     OW 9686  14.131   3.670   6.933
35930SOL    HW1 9687  14.199   3.737   6.938
35930SOL    HW2 9688  14.144   3.617   7.012
35931SOL     OW 9689  14.813   3.737   3.648
35931SOL    HW1 9690  14.865   3.665   3.685
35931SOL    HW2 9691  14.729   3.732   3.693
35932SOL     OW 9692   0.253   5.124  13.411
35932SOL    HW1 9693   0.221   5.212  13.426
35932SOL    HW2 9694   0.342   5.124  13.447
35933SOL     OW 9695   3.051  14.469   9.878
35933SOL    HW1 9696   3.042  14.379   9.910
35933SOL    HW2 9697   3.116  14.509   9.936
35934SOL     OW 9698   4.839  10.422   3.217
35934SOL    HW1 9699   4.778  10.359   3.256
35934SOL    HW2 9700   4.878  10.375   3.143
35935SOL     OW 9701  10.532   1.183   5.474
35935SOL    HW1 9702  10.570   1.165   5.388
35935SOL    HW2 9703  10.602   1.225   5.523
35936SOL     OW 9704  10.059  12.944  11.580
35936SOL    HW1 9705  10.125  12.926  11.647
35936SOL    HW2 9706  10.007  13.016  11.617
35937SOL     OW 9707   8.763  10.816   1.471
35937SOL    HW1 9708   8.723  10.784   1.551
35937SOL    HW2 9709   8.704  10.787   1.401
35938SOL     OW 9710   2.535  10.849   3.374
35938SOL    HW1 9711   2.608  10.902   3.341
35938SOL    HW2 9712   2.462  10.870   3.315
35939SOL     OW 9713   3.358   6.474   6.860
35939SOL    HW1 9714   3.429   6.486   6.796
35939SOL    HW2 9715   3.286   6.438   6.808
35940SOL     OW 9716   5.427  12.119   4.755
35940SOL    HW1 9717   5.343  12.096   4.795
35940SOL    HW2 9718   5.440  12.211   4.778
35941SOL     OW 9719  14.445  14.310   2.018
35941SOL    HW1 9720  14.352  14.296   2.034
35941SOL    HW2 9721  14.464  14.256   1.941
35942SOL     OW 9722   1.085   0.561   0.511
35942SOL    HW1 9723   1.046   0.474   0.514
35942SOL    HW2 9724   1.175   0.548   0.541
35943SOL     OW 9725   5.898   3.981   0.309
35943SOL    HW1 9726   5.880   4.075   0.313
35943SOL    HW2 9727   5.811   3.940   0.303
35944SOL     OW 9728  13.220   0.940  12.187
35944SOL    HW1 9729  13.193   0.874  12.124
35944SOL    HW2 9730  13.138   0.982  12.214
35945SOL     OW 9731   4.768   7.749   8.301
35945SOL    HW1 9732   4.722   7.688   8.243
35945SOL    HW2 9733   4.857   7.752   8.266
35946SOL     OW 9734   1.019   5.919   2.487
35946SOL    HW1 9735   0.962   5.876   2.552
35946SOL    HW2 9736   1.039   6.004   2.525
35947SOL     OW 9737   3.181   1.753  12.315
35947SOL    HW1 9738   3.248   1.756  12.247
35947SOL    HW2 9739   3.185   1.663  12.348
35948SOL     OW 9740  11.616   9.945   0.665
35948SOL    HW1 9741  11.654   9.923   0.750
35948SOL    HW2 9742  11.526   9.911   0.669
35949SOL     OW 9743   6.501  13.233  10.661
35949SOL    HW1 9744   6.407  13.223  10.668
35949SOL    HW2 9745   6.529  13.258  10.749
35950SOL     OW 9746   9.683   9.252  13.983
35950SOL    HW1 9747   9.742   9.249  13.908
35950SOL    HW2 9748   9.655   9.344  13.987
35951SOL     OW 9749   2.383   4.027   3.023
35951SOL    HW1 9750   2.333   3.947   3.034
35951SOL    HW2 9751   2.473   4.003   3.048
35952SOL     OW 9752   6.671   3.693  12.084
35952SOL    HW1 9753   6.649   3.747  12.008
35952SOL    HW2 9754   6.596   3.703  12.142
35953SOL     OW 9755  11.725   2.589   0.038
35953SOL    HW1 9756  11.694   2.634   0.117
35953SOL    HW2 9757  11.658   2.609  14.852
35954SOL     OW 9758  13.147   0.106  11.539
35954SOL    HW1 9759  13.233   0.142  11.516
35954SOL    HW2 9760  13.098   0.109  11.458
35955SOL     OW 9761   0.745   5.610   3.888
35955SOL    HW1 9762   0.696   5.683   3.850
35955SOL    HW2 9763   0.817   5.651   3.934
35956SOL     OW 9764   7.515   7.095   7.965
35956SOL    HW1 9765   7.505   7.073   7.872
35956SOL    HW2 9766   7.584   7.036   7.996
35957SOL     OW 9767  10.162   3.760   5.466
35957SOL    HW1 9768  10.205   3.783   5.384
35957SOL    HW2 9769  10.185   3.668   5.481
35958SOL     OW 9770  13.297  12.242  13.361
35958SOL    HW1 9771  13.300  12.161  13.309
35958SOL    HW2 9772  13.389  12.264  13.376
35959SOL     OW 9773   2.976  12.686  10.444
35959SOL    HW1 9774   3.062  12.649  10.467
35959SOL    HW2 9775   2.997  12.767  10.398
35960SOL     OW 9776   5.805   2.062   5.646
35960SOL    HW1 9777   5.808   1.996   5.577
35960SOL    HW2 9778   5.883   2.046   5.698
35961SOL     OW 9779  10.006   2.096   0.442
35961SOL    HW1 9780   9.990   2.100   0.536
35961SOL    HW2 9781   9.979   2.008   0.416
35962SOL     OW 9782   0.495  13.193  14.106
35962SOL    HW1 9783   0.406  13.204  14.072
35962SOL    HW2 9784   0.526  13.282  14.121
35963SOL     OW 9785   6.926   1.759   6.672
35963SOL    HW1 9786   6.913   1.718   6.757
35963SOL    HW2 9787   7.021   1.765   6.662
35964SOL     OW 9788  14.491   5.991  10.714
35964SOL    HW1 9789  14.457   5.977  10.626
35964SOL    HW2 9790  14.445   5.926  10.767
35965SOL     OW 9791   4.819   8.690   4.345
35965SOL    HW1 9792   4.724   8.693   4.328
35965SOL    HW2 9793   4.855   8.649   4.267
35966SOL     OW 9794   7.763   5.986   4.618
35966SOL    HW1 9795   7.826   5.967   4.550
35966SOL    HW2 9796   7.815   6.024   4.689
35967SOL     OW 9797   7.829   7.839   7.637
35967SOL    HW1 9798   7.780   7.786   7.574
35967SOL    HW2 9799   7.890   7.890   7.584
35968SOL     OW 9800   4.269   9.732   2.098
35968SOL    HW1 9801   4.348   9.786   2.106
35968SOL    HW2 9802   4.213   9.781   2.038
35969SOL     OW 9803  14.277   0.688  12.110
35969SOL    HW1 9804  14.220   0.620  12.144
35969SOL    HW2 9805  14.361   0.644  12.094
35970SOL     OW 9806   8.542   7.448   4.279
35970SOL    HW1 9807   8.463   7.401   4.305
35970SOL    HW2 9808   8.515   7.503   4.206
35971SOL     OW 9809   1.990   6.591   1.383
35971SOL    HW1 9810   2.084   6.606   1.375
35971SOL    HW2 9811   1.954   6.625   1.301
35972SOL     OW 9812  10.419  11.353   7.924
35972SOL    HW1 9813  10.494  11.413   7.933
35972SOL    HW2 9814  10.386  11.368   7.836
35973SOL     OW 9815  13.321  12.477   4.132
35973SOL    HW1 9816  13.379  12.538   4.087
35973SOL    HW2 9817  13.298  12.412   4.065
35974SOL     OW 9818   3.087   1.495   4.696
35974SOL    HW1 9819   3.020   1.427   4.696
35974SOL    HW2 9820   3.072   1.544   4.777
35975SOL     OW 9821   1.366   0.766   2.358
35975SOL    HW1 9822   1.326   0.681   2.339
35975SOL    HW2 9823   1.396   0.798   2.274
35976SOL     OW 9824   9.014   7.423   0.066
35976SOL    HW1 9825   9.036   7.345   0.116
35976SOL    HW2 9826   8.928   7.406   0.030
35977SOL     OW 9827   8.770  13.073  12.581
35977SOL    HW1 9828   8.745  12.984  12.604
35977SOL    HW2 9829   8.863  13.067  12.559
35978SOL     OW 9830   2.621   0.673   1.479
35978SOL    HW1 9831   2.699   0.714   1.441
35978SOL    HW2 9832   2.547   0.716   1.436
35979SOL     OW 9833  12.057   2.976   0.785
35979SOL    HW1 9834  12.078   2.886   0.760
35979SOL    HW2 9835  11.966   2.988   0.756
35980SOL     OW 9836   0.613   0.879   6.650
35980SOL    HW1 9837   0.584   0.967   6.674
35980SOL    HW2 9838   0.659   0.891   6.567
35981SOL     OW 9839  11.544  14.403   4.118
35981SOL    HW1 9840  11.450  14.397   4.136
35981SOL    HW2 9841  11.578  14.316   4.138
35982SOL     OW 9842  11.239   1.863   1.234
35982SOL    HW1 9843  11.159   1.889   1.189
35982SOL    HW2 9844  11.238   1.914   1.315
35983SOL     OW 9845  11.848   1.047   0.430
35983SOL    HW1 9846  11.834   1.002   0.347
35983SOL    HW2 9847  11.820   0.983   0.496
35984SOL     OW 9848  11.425   8.709  12.940
35984SOL    HW1 9849  11.426   8.633  12.998
35984SOL    HW2 9850  11.401   8.783  12.996
35985SOL     OW 9851   5.288  14.555  10.550
35985SOL    HW1 9852   5.222  14.519  10.491
35985SOL    HW2 9853   5.246  14.556  10.636
35986SOL     OW 9854   2.979   8.306  13.513
35986SOL    HW1 9855   3.048   8.277  13.572
35986SOL    HW2 9856   3.024   8.357  13.446
35987SOL     OW 9857   9.205   6.106  14.130
35987SOL    HW1 9858   9.255   6.176  14.088
35987SOL    HW2 9859   9.170   6.055  14.057
35988SOL     OW 9860   4.565   3.707   9.814
35988SOL    HW1 9861   4.529   3.757   9.742
35988SOL    HW2 9862   4.568   3.617   9.781
35989SOL     OW 9863   0.930   9.755   2.593
35989SOL    HW1 9864   0.943   9.850   2.596
35989SOL    HW2 9865   0.862   9.738   2.657
35990SOL     OW 9866  12.370   5.201   6.903
35990SOL    HW1 9867  12.378   5.295   6.886
35990SOL    HW2 9868  12.434   5.161   6.844
35991SOL     OW 9869   2.327   3.785   6.196
35991SOL    HW1 9870   2.280   3.856   6.239
35991SOL    HW2 9871   2.419   3.812   6.199
35992SOL     OW 9872   8.707   0.350   8.117
35992SOL    HW1 9873   8.742   0.439   8.115
35992SOL    HW2 9874   8.612   0.361   8.115
35993SOL     OW 9875   4.769  11.496   8.495
35993SOL    HW1 9876   4.778  11.589   8.519
35993SOL    HW2 9877   4.840  11.480   8.434
35994SOL     OW 9878  13.299   6.807   6.234
35994SOL    HW1 9879  13.319   6.749   6.161
35994SOL    HW2 9880  13.369   6.790   6.298
35995SOL     OW 9881   6.144   1.676   1.365
35995SOL    HW1 9882   6.165   1.756   1.316
35995SOL    HW2 9883   6.221   1.658   1.418
35996SOL     OW 9884   8.096   6.603   0.321
35996SOL    HW1 9885   8.082   6.697   0.307
35996SOL    HW2 9886   8.046   6.561   0.252
35997SOL     OW 9887   0.746  14.228  11.710
35997SOL    HW1 9888   0.824  14.278  11.689
35997SOL    HW2 9889   0.772  14.170  11.781
35998SOL     OW 9890  13.013   7.448   7.178
35998SOL    HW1 9891  13.015   7.538   7.143
35998SOL    HW2 9892  12.952   7.401   7.121
35999SOL     OW 9893   5.076   0.325  12.588
35999SOL    HW1 9894   5.022   0.400  12.611
35999SOL    HW2 9895   5.159   0.340  12.633
36000SOL     OW 9896  11.061  12.518  13.606
36000SOL    HW1 9897  11.133  12.464  13.574
36000SOL    HW2 9898  10.985  12.460  13.607
36001SOL     OW 9899  12.613   0.848   8.732
36001SOL    HW1 9900  12.611   0.753   8.746
36001SOL    HW2 9901  12.568   0.861   8.649
36002SOL     OW 9902   4.327   2.523  13.383
36002SOL    HW1 9903   4.411   2.546  13.344
36002SOL    HW2 9904   4.330   2.427  13.390
36003SOL     OW 9905  14.574  10.290   3.268
36003SOL    HW1 9906  14.665  10.318   3.274
36003SOL    HW2 9907  14.553  10.296   3.175
36004SOL     OW 9908   8.428   3.425   4.625
36004SOL    HW1 9909   8.334   3.438   4.612
36004SOL    HW2 9910   8.447   3.469   4.708
36005SOL     OW 9911   1.190  10.785  12.650
36005SOL    HW1 9912   1.244  10.799  12.727
36005SOL    HW2 9913   1.108  10.749  12.684
36006SOL     OW 9914   4.992   1.330   4.607
36006SOL    HW1 9915   4.998   1.425   4.621
36006SOL    HW2 9916   4.907   1.317   4.566
36007SOL     OW 9917   2.211  14.136   3.854
36007SOL    HW1 9918   2.260  14.176   3.782
36007SOL    HW2 9919   2.187  14.050   3.821
36008SOL     OW 9920   9.805   2.541  13.951
36008SOL    HW1 9921   9.716   2.534  13.917
36008SOL    HW2 9922   9.825   2.453  13.982
36009SOL     OW 9923   7.347  12.540  13.409
36009SOL    HW1 9924   7.331  12.459  13.361
36009SOL    HW2 9925   7.405  12.590  13.352
36010SOL     OW 9926   5.300  10.955   1.277
36010SOL    HW1 9927   5.309  10.958   1.372
36010SOL    HW2 9928   5.205  10.954   1.262
36011SOL     OW 9929   2.108   4.776   1.500
36011SOL    HW1 9930   2.149   4.761   1.415
36011SOL    HW2 9931   2.165   4.839   1.543
36012SOL     OW 9932   9.639   5.142  11.072
36012SOL    HW1 9933   9.715   5.121  11.127
36012SOL    HW2 9934   9.661   5.105  10.987
36013SOL     OW 9935   6.159   6.716  14.555
36013SOL    HW1 9936   6.253   6.705  14.544
36013SOL    HW2 9937   6.146   6.721  14.650
36014SOL     OW 9938   0.953   2.690   0.845
36014SOL    HW1 9939   0.925   2.704   0.935
36014SOL    HW2 9940   0.925   2.768   0.798
36015SOL     OW 9941   0.552   6.557   5.938
36015SOL    HW1 9942   0.609   6.630   5.965
36015SOL    HW2 9943   0.581   6.537   5.849
36016SOL     OW 9944   2.754   5.031  11.097
36016SOL    HW1 9945   2.780   5.080  11.175
36016SOL    HW2 9946   2.835   4.992  11.065
36017SOL     OW 9947   6.064   3.548   7.789
36017SOL    HW1 9948   6.062   3.641   7.811
36017SOL    HW2 9949   6.002   3.508   7.849
36018SOL     OW 9950  14.874   1.726  12.359
36018SOL    HW1 9951  14.868   1.772  12.276
36018SOL    HW2 9952   0.011   1.635  12.335
36019SOL     OW 9953   3.695   6.096   7.354
36019SOL    HW1 9954   3.770   6.155   7.348
36019SOL    HW2 9955   3.701   6.058   7.442
36020SOL     OW 9956  13.189   6.515   2.816
36020SOL    HW1 9957  13.262   6.531   2.875
36020SOL    HW2 9958  13.215   6.555   2.733
36021SOL     OW 9959   8.195   7.111   4.766
36021SOL    HW1 9960   8.171   7.019   4.753
36021SOL    HW2 9961   8.270   7.108   4.826
36022SOL     OW 9962  12.584   4.921   7.390
36022SOL    HW1 9963  12.589   4.893   7.299
36022SOL    HW2 9964  12.528   4.856   7.432
36023SOL     OW 9965  10.446  12.623   6.011
36023SOL    HW1 9966  10.521  12.569   5.984
36023SOL    HW2 9967  10.480  12.712   6.011
36024SOL     OW 9968   5.611   2.994  12.018
36024SOL    HW1 9969   5.515   2.990  12.027
36024SOL    HW2 9970   5.626   3.062  11.952
36025SOL     OW 9971   1.690   7.187   7.704
36025SOL    HW1 9972   1.651   7.100   7.695
36025SOL    HW2 9973   1.616   7.247   7.692
36026SOL     OW 9974   1.330   8.149   5.562
36026SOL    HW1 9975   1.263   8.205   5.522
36026SOL    HW2 9976   1.296   8.060   5.552
36027SOL     OW 9977   6.540  11.821   6.193
36027SOL    HW1 9978   6.452  11.851   6.216
36027SOL    HW2 9979   6.526  11.748   6.133
36028SOL     OW 9980  14.857  12.405  14.586
36028SOL    HW1 9981  14.773  12.446  14.608
36028SOL    HW2 9982  14.866  12.332  14.648
36029SOL     OW 9983  10.917   7.831  13.220
36029SOL    HW1 9984  10.887   7.813  13.309
36029SOL    HW2 9985  10.989   7.769  13.205
36030SOL     OW 9986  14.425   1.908  11.160
36030SOL    HW1 9987  14.479   1.963  11.217
36030SOL    HW2 9988  14.384   1.845  11.219
36031SOL     OW 9989   3.377   2.098   2.179
36031SOL    HW1 9990   3.365   2.079   2.272
36031SOL    HW2 9991   3.341   2.022   2.134
36032SOL     OW 9992   9.616   0.044   6.759
36032SOL    HW1 9993   9.586  14.873   6.683
36032SOL    HW2 9994   9.574   0.129   6.747
36033SOL     OW 9995  12.407   9.697  13.498
36033SOL    HW1 9996  12.493   9.740  13.495
36033SOL    HW2 9997  12.427   9.604  13.497
36034SOL     OW 9998  14.106   0.269  14.568
36034SOL    HW1 9999  14.161   0.237  14.497
36034SOL    HW210000  14.069   0.190  14.607
36035SOL     OW10001   8.622  11.243  10.310
36035SOL    HW110002   8.541  11.212  10.350
36035SOL    HW210003   8.597  11.324  10.265
36036SOL     OW10004  10.024  13.407   4.954
36036SOL    HW110005  10.034  13.481   4.894
36036SOL    HW210006  10.093  13.420   5.020
36037SOL     OW10007   5.593   5.263   1.628
36037SOL    HW110008   5.539   5.218   1.693
36037SOL    HW210009   5.628   5.339   1.673
36038SOL     OW10010   0.602   4.586  14.071
36038SOL    HW110011   0.630   4.498  14.096
36038SOL    HW210012   0.675   4.642  14.097
36039SOL     OW10013   9.418  11.916   4.018
36039SOL    HW110014   9.465  11.840   3.982
36039SOL    HW210015   9.374  11.954   3.943
36040SOL     OW10016  11.432   4.217   3.001
36040SOL    HW110017  11.385   4.279   3.056
36040SOL    HW210018  11.374   4.204   2.925
36041SOL     OW10019  13.392   5.946   8.526
36041SOL    HW110020  13.462   6.010   8.517
36041SOL    HW210021  13.392   5.900   8.442
36042SOL     OW10022  14.067   3.246   2.447
36042SOL    HW110023  14.032   3.158   2.432
36042SOL    HW210024  14.019   3.278   2.524
36043SOL     OW10025   8.350   5.776   6.152
36043SOL    HW110026   8.377   5.686   6.171
36043SOL    HW210027   8.402   5.800   6.075
36044SOL     OW10028   9.081  13.981  10.653
36044SOL    HW110029   9.002  14.012  10.696
36044SOL    HW210030   9.068  13.886  10.644
36045SOL     OW10031   7.614  14.230   5.578
36045SOL    HW110032   7.587  14.321   5.569
36045SOL    HW210033   7.651  14.224   5.666
36046SOL     OW10034   8.299   5.496  12.694
36046SOL    HW110035   8.337   5.414  12.724
36046SOL    HW210036   8.270   5.478  12.605
36047SOL     OW10037   1.066  11.775  14.134
36047SOL    HW110038   1.133  11.720  14.172
36047SOL    HW210039   1.110  11.858  14.115
36048SOL     OW10040   0.968   0.119  12.703
36048SOL    HW110041   0.933   0.030  12.712
36048SOL    HW210042   0.911   0.161  12.639
36049SOL     OW10043   7.587   2.953   6.092
36049SOL    HW110044   7.547   2.867   6.106
36049SOL    HW210045   7.675   2.946   6.130
36050SOL     OW10046  14.099   0.092  11.561
36050SOL    HW110047  14.187   0.057  11.548
36050SOL    HW210048  14.042   0.016  11.557
36051SOL     OW10049   2.110  12.972   7.114
36051SOL    HW110050   2.076  13.049   7.067
36051SOL    HW210051   2.033  12.933   7.155
36052SOL     OW10052   0.446  10.634   1.157
36052SOL    HW110053   0.381  10.692   1.117
36052SOL    HW210054   0.530  10.668   1.126
36053SOL     OW10055  13.073   7.153   2.053
36053SOL    HW110056  13.032   7.137   1.968
36053SOL    HW210057  12.999   7.159   2.114
36054SOL     OW10058  14.551  13.061   2.798
36054SOL    HW110059  14.527  12.991   2.857
36054SOL    HW210060  14.616  13.022   2.739
36055SOL     OW10061   3.882   2.022  11.911
36055SOL    HW110062   3.951   2.089  11.910
36055SOL    HW210063   3.803   2.071  11.933
36056SOL     OW10064  13.935  13.417   9.904
36056SOL    HW110065  13.938  13.387   9.995
36056SOL    HW210066  13.844  13.404   9.878
36057SOL     OW10067  10.802  12.102   3.677
36057SOL    HW110068  10.852  12.020   3.679
36057SOL    HW210069  10.755  12.099   3.594
36058SOL     OW10070   5.530   5.820   3.655
36058SOL    HW110071   5.529   5.827   3.750
36058SOL    HW210072   5.518   5.726   3.637
36059SOL     OW10073   3.656   7.877  14.415
36059SOL    HW110074   3.591   7.812  14.440
36059SOL    HW210075   3.666   7.932  14.493
36060SOL     OW10076   9.849  14.524   9.597
36060SOL    HW110077   9.811  14.464   9.660
36060SOL    HW210078   9.911  14.471   9.547
36061SOL     OW10079  10.139  13.766   2.827
36061SOL    HW110080  10.164  13.830   2.761
36061SOL    HW210081  10.071  13.712   2.785
36062SOL     OW10082   5.693   5.670  13.090
36062SOL    HW110083   5.624   5.681  13.024
36062SOL    HW210084   5.680   5.582  13.123
36063SOL     OW10085  13.368  14.731  11.973
36063SOL    HW110086  13.285  14.688  11.955
36063SOL    HW210087  13.429  14.692  11.910
36064SOL     OW10088   3.613   7.118  13.968
36064SOL    HW110089   3.525   7.154  13.954
36064SOL    HW210090   3.653   7.177  14.031
36065SOL     OW10091   2.444   0.145   1.217
36065SOL    HW110092   2.530   0.184   1.233
36065SOL    HW210093   2.462   0.063   1.172
36066SOL     OW10094   8.771   1.411   8.674
36066SOL    HW110095   8.789   1.354   8.598
36066SOL    HW210096   8.721   1.355   8.734
36067SOL     OW10097  11.758   6.801  14.541
36067SOL    HW110098  11.663   6.814  14.534
36067SOL    HW210099  11.789   6.803  14.451
36068SOL     OW10100  12.575   6.211  11.547
36068SOL    HW110101  12.534   6.126  11.531
36068SOL    HW210102  12.658   6.190  11.590
36069SOL     OW10103   2.064  13.951  12.596
36069SOL    HW110104   2.114  14.019  12.553
36069SOL    HW210105   2.028  13.994  12.675
36070SOL     OW10106   2.191   6.454   5.412
36070SOL    HW110107   2.264   6.516   5.404
36070SOL    HW210108   2.176   6.448   5.507
36071SOL     OW10109   9.865  10.954   9.423
36071SOL    HW110110   9.812  10.984   9.497
36071SOL    HW210111   9.806  10.963   9.347
36072SOL     OW10112  11.366   4.892  10.699
36072SOL    HW110113  11.361   4.936  10.614
36072SOL    HW210114  11.413   4.954  10.755
36073SOL     OW10115   7.419   3.314   7.481
36073SOL    HW110116   7.473   3.273   7.548
36073SOL    HW210117   7.420   3.407   7.503
36074SOL     OW10118  13.464  14.184  11.432
36074SOL    HW110119  13.468  14.265  11.380
36074SOL    HW210120  13.550  14.177  11.473
36075SOL     OW10121   9.807   6.582  14.814
36075SOL    HW110122   9.893   6.553  14.784
36075SOL    HW210123   9.823   6.669  14.852
36076SOL     OW10124   4.099   8.481   1.312
36076SOL    HW110125   4.063   8.521   1.391
36076SOL    HW210126   4.191   8.509   1.311
36077SOL     OW10127  14.289  11.418   7.438
36077SOL    HW110128  14.207  11.399   7.392
36077SOL    HW210129  14.263  11.434   7.529
36078SOL     OW10130  10.498   8.694   0.601
36078SOL    HW110131  10.477   8.603   0.618
36078SOL    HW210132  10.427   8.743   0.643
36079SOL     OW10133   1.076   3.244   9.351
36079SOL    HW110134   1.006   3.305   9.329
36079SOL    HW210135   1.043   3.196   9.428
36080SOL     OW10136   7.397   8.894   8.234
36080SOL    HW110137   7.379   8.803   8.260
36080SOL    HW210138   7.427   8.936   8.315
36081SOL     OW10139   5.510   8.406   2.185
36081SOL    HW110140   5.549   8.412   2.098
36081SOL    HW210141   5.565   8.462   2.240
36082SOL     OW10142   5.908   4.057   8.534
36082SOL    HW110143   5.981   4.067   8.472
36082SOL    HW210144   5.850   3.992   8.493
36083SOL     OW10145   6.763  11.713   5.530
36083SOL    HW110146   6.749  11.803   5.502
36083SOL    HW210147   6.843  11.717   5.584
36084SOL     OW10148   6.311  13.039  14.879
36084SOL    HW110149   6.296  13.084  14.795
36084SOL    HW210150   6.227  13.044   0.044
36085SOL     OW10151   4.298  13.360   6.793
36085SOL    HW110152   4.375  13.399   6.835
36085SOL    HW210153   4.230  13.427   6.802
36086SOL     OW10154   7.483   0.062   9.671
36086SOL    HW110155   7.567   0.080   9.628
36086SOL    HW210156   7.459   0.145   9.712
36087SOL     OW10157   9.531   6.495   4.690
36087SOL    HW110158   9.485   6.573   4.659
36087SOL    HW210159   9.598   6.527   4.750
36088SOL     OW10160   6.150   6.915   9.591
36088SOL    HW110161   6.062   6.880   9.600
36088SOL    HW210162   6.140   6.992   9.534
36089SOL     OW10163  11.397   7.494  13.905
36089SOL    HW110164  11.376   7.540  13.986
36089SOL    HW210165  11.331   7.524  13.843
36090SOL     OW10166   3.229  11.086   2.299
36090SOL    HW110167   3.297  11.070   2.233
36090SOL    HW210168   3.147  11.074   2.252
36091SOL     OW10169   0.973   2.884   0.449
36091SOL    HW110170   0.899   2.918   0.399
36091SOL    HW210171   0.969   2.930   0.532
36092SOL     OW10172   2.593   8.595  14.596
36092SOL    HW110173   2.635   8.595  14.682
36092SOL    HW210174   2.644   8.532  14.544
36093SOL     OW10175   8.399   4.082   6.805
36093SOL    HW110176   8.437   4.164   6.837
36093SOL    HW210177   8.316   4.107   6.765
36094SOL     OW10178   4.349  14.533   8.561
36094SOL    HW110179   4.421  14.540   8.623
36094SOL    HW210180   4.390  14.542   8.475
36095SOL     OW10181   6.960  14.034   4.631
36095SOL    HW110182   6.875  14.028   4.675
36095SOL    HW210183   6.943  14.003   4.542
36096SOL     OW10184   3.106   3.437  11.676
36096SOL    HW110185   3.191   3.445  11.720
36096SOL    HW210186   3.057   3.376  11.731
36097SOL     OW10187   3.307   5.467   4.893
36097SOL    HW110188   3.357   5.471   4.811
36097SOL    HW210189   3.229   5.415   4.871
36098SOL     OW10190  13.281   2.952   9.035
36098SOL    HW110191  13.303   3.039   9.069
36098SOL    HW210192  13.343   2.893   9.077
36099SOL     OW10193  11.912  12.795   6.919
36099SOL    HW110194  11.930  12.886   6.941
36099SOL    HW210195  11.948  12.746   6.993
36100SOL     OW10196  13.298  12.529   3.135
36100SOL    HW110197  13.318  12.485   3.052
36100SOL    HW210198  13.213  12.570   3.121
36101SOL     OW10199   2.157   4.073  14.084
36101SOL    HW110200   2.153   4.021  14.164
36101SOL    HW210201   2.240   4.048  14.043
36102SOL     OW10202  14.823   4.763   1.795
36102SOL    HW110203  14.815   4.840   1.739
36102SOL    HW210204  14.825   4.798   1.884
36103SOL     OW10205   0.648   9.302   9.426
36103SOL    HW110206   0.737   9.330   9.407
36103SOL    HW210207   0.658   9.227   9.484
36104SOL     OW10208  12.392  12.271   8.404
36104SOL    HW110209  12.359  12.350   8.361
36104SOL    HW210210  12.448  12.230   8.338
36105SOL     OW10211   8.988   2.231  14.308
36105SOL    HW110212   8.902   2.272  14.310
36105SOL    HW210213   9.046   2.299  14.275
36106SOL     OW10214   7.192   3.750   3.089
36106SOL    HW110215   7.222   3.816   3.027
36106SOL    HW210216   7.169   3.675   3.034
36107SOL     OW10217  14.545   9.977   5.717
36107SOL    HW110218  14.619   9.937   5.672
36107SOL    HW210219  14.523   9.914   5.787
36108SOL     OW10220  12.317   7.892   6.684
36108SOL    HW110221  12.400   7.898   6.731
36108SOL    HW210222  12.304   7.979   6.647
36109SOL     OW10223  10.078  12.657   5.423
36109SOL    HW110224  10.123  12.632   5.342
36109SOL    HW210225   9.985  12.638   5.406
36110SOL     OW10226  11.133   8.385   7.349
36110SOL    HW110227  11.128   8.318   7.281
36110SOL    HW210228  11.136   8.336   7.431
36111SOL     OW10229   8.654   4.289   1.934
36111SOL    HW110230   8.588   4.310   1.867
36111SOL    HW210231   8.662   4.194   1.930
36112SOL     OW10232  11.375   5.087  13.818
36112SOL    HW110233  11.434   5.156  13.789
36112SOL    HW210234  11.398   5.011  13.765
36113SOL     OW10235   0.713   4.861   9.537
36113SOL    HW110236   0.712   4.876   9.631
36113SOL    HW210237   0.700   4.948   9.498
36114SOL     OW10238   1.350   4.790  12.187
36114SOL    HW110239   1.349   4.765  12.279
36114SOL    HW210240   1.314   4.879  12.186
36115SOL     OW10241  12.044  14.157   8.298
36115SOL    HW110242  11.955  14.192   8.295
36115SOL    HW210243  12.080  14.189   8.380
36116SOL     OW10244   7.680   8.637  13.280
36116SOL    HW110245   7.756   8.668  13.231
36116SOL    HW210246   7.673   8.697  13.354
36117SOL     OW10247   1.708  14.873   4.790
36117SOL    HW110248   1.701   0.011   4.884
36117SOL    HW210249   1.623   0.017   4.755
36118SOL     OW10250   3.035   2.777  13.292
36118SOL    HW110251   3.116   2.805  13.334
36118SOL    HW210252   2.989   2.859  13.271
36119SOL     OW10253   5.007  14.686   2.638
36119SOL    HW110254   4.999  14.598   2.603
36119SOL    HW210255   5.006  14.743   2.561
36120SOL     OW10256   6.394  12.246   0.094
36120SOL    HW110257   6.399  12.339   0.116
36120SOL    HW210258   6.484  12.215   0.105
36121SOL     OW10259   8.490   8.710  13.154
36121SOL    HW110260   8.430   8.696  13.227
36121SOL    HW210261   8.495   8.626  13.110
36122SOL     OW10262  13.941   4.901   3.803
36122SOL    HW110263  13.862   4.926   3.851
36122SOL    HW210264  14.012   4.944   3.849
36123SOL     OW10265   3.601  10.419   0.326
36123SOL    HW110266   3.526  10.400   0.269
36123SOL    HW210267   3.638  10.333   0.346
36124SOL     OW10268  14.020   7.528   7.436
36124SOL    HW110269  14.111   7.544   7.414
36124SOL    HW210270  13.973   7.541   7.353
36125SOL     OW10271   7.010   5.782   7.436
36125SOL    HW110272   7.065   5.703   7.440
36125SOL    HW210273   7.064   5.847   7.391
36126SOL     OW10274   4.026   3.662  14.082
36126SOL    HW110275   4.107   3.712  14.075
36126SOL    HW210276   4.054   3.575  14.111
36127SOL     OW10277  14.385  11.191  11.263
36127SOL    HW110278  14.434  11.124  11.311
36127SOL    HW210279  14.429  11.273  11.285
36128SOL     OW10280  10.115   3.139  14.801
36128SOL    HW110281  10.037   3.171  14.755
36128SOL    HW210282  10.082   3.072  14.860
36129SOL     OW10283   5.245   1.357  12.741
36129SOL    HW110284   5.306   1.339  12.812
36129SOL    HW210285   5.177   1.289  12.750
36130SOL     OW10286  14.668   6.170   0.841
36130SOL    HW110287  14.690   6.263   0.845
36130SOL    HW210288  14.748   6.126   0.870
36131SOL     OW10289   8.586  11.542   4.491
36131SOL    HW110290   8.670  11.586   4.483
36131SOL    HW210291   8.548  11.547   4.403
36132SOL     OW10292   7.158  11.028   6.747
36132SOL    HW110293   7.121  11.030   6.836
36132SOL    HW210294   7.108  10.960   6.702
36133SOL     OW10295  13.030   3.451   1.649
36133SOL    HW110296  12.958   3.389   1.640
36133SOL    HW210297  13.076   3.448   1.565
36134SOL     OW10298  12.613   4.133  12.377
36134SOL    HW110299  12.576   4.121  12.290
36134SOL    HW210300  12.544   4.105  12.437
36135SOL     OW10301  11.313   8.582  13.931
36135SOL    HW110302  11.245   8.518  13.906
36135SOL    HW210303  11.265   8.664  13.944
36136SOL     OW10304   8.980   2.252   5.756
36136SOL    HW110305   9.056   2.310   5.746
36136SOL    HW210306   9.018   2.164   5.762
36137SOL     OW10307   2.064   7.124   8.413
36137SOL    HW110308   2.105   7.199   8.457
36137SOL    HW210309   2.016   7.079   8.482
36138SOL     OW10310  13.876   6.102   2.723
36138SOL    HW110311  13.872   6.089   2.818
36138SOL    HW210312  13.924   6.026   2.691
36139SOL     OW10313   4.376   9.157   8.112
36139SOL    HW110314   4.453   9.207   8.140
36139SOL    HW210315   4.396   9.131   8.021
36140SOL     OW10316  12.569   6.272   9.924
36140SOL    HW110317  12.543   6.180   9.927
36140SOL    HW210318  12.526   6.311  10.000
36141SOL     OW10319  14.604  13.684  14.700
36141SOL    HW110320  14.547  13.697  14.625
36141SOL    HW210321  14.567  13.608  14.745
36142SOL     OW10322   7.742   4.173  13.033
36142SOL    HW110323   7.751   4.133  12.946
36142SOL    HW210324   7.715   4.100  13.089
36143SOL     OW10325   5.592   3.635   7.567
36143SOL    HW110326   5.544   3.556   7.588
36143SOL    HW210327   5.554   3.703   7.623
36144SOL     OW10328   1.340   6.076  14.092
36144SOL    HW110329   1.349   6.171  14.084
36144SOL    HW210330   1.247   6.062  14.112
36145SOL     OW10331   9.958   1.308   6.633
36145SOL    HW110332   9.888   1.361   6.671
36145SOL    HW210333   9.957   1.329   6.539
36146SOL     OW10334  12.055   9.430   3.945
36146SOL    HW110335  12.093   9.514   3.973
36146SOL    HW210336  12.056   9.376   4.024
36147SOL     OW10337   8.495   2.849   9.303
36147SOL    HW110338   8.489   2.929   9.356
36147SOL    HW210339   8.537   2.877   9.222
36148SOL     OW10340  14.870  12.016  11.123
36148SOL    HW110341  14.870  11.967  11.205
36148SOL    HW210342  14.844  12.105  11.147
36149SOL     OW10343   3.002   1.600   4.912
36149SOL    HW110344   3.065   1.623   4.980
36149SOL    HW210345   2.929   1.661   4.924
36150SOL     OW10346   5.447   8.788  14.420
36150SOL    HW110347   5.371   8.780  14.363
36150SOL    HW210348   5.520   8.753  14.367
36151SOL     OW10349   2.336   8.600   0.876
36151SOL    HW110350   2.310   8.690   0.897
36151SOL    HW210351   2.253   8.552   0.872
36152SOL     OW10352   3.197  11.346   7.376
36152SOL    HW110353   3.131  11.366   7.442
36152SOL    HW210354   3.219  11.254   7.391
36153SOL     OW10355  12.933  11.729   9.773
36153SOL    HW110356  12.922  11.735   9.868
36153SOL    HW210357  12.980  11.647   9.760
36154SOL     OW10358  10.403   3.228   5.271
36154SOL    HW110359  10.454   3.183   5.204
36154SOL    HW210360  10.458   3.300   5.300
36155SOL     OW10361   8.846  10.325  10.797
36155SOL    HW110362   8.858  10.420  10.792
36155SOL    HW210363   8.777  10.306  10.735
36156SOL     OW10364   9.388  10.441  12.073
36156SOL    HW110365   9.481  10.450  12.091
36156SOL    HW210366   9.350  10.408  12.155
36157SOL     OW10367   8.129  10.711  11.699
36157SOL    HW110368   8.182  10.637  11.728
36157SOL    HW210369   8.152  10.723  11.607
36158SOL     OW10370  14.565  13.165  10.931
36158SOL    HW110371  14.630  13.106  10.970
36158SOL    HW210372  14.485  13.148  10.981
36159SOL     OW10373   6.444   2.894   4.403
36159SOL    HW110374   6.521   2.838   4.418
36159SOL    HW210375   6.429   2.937   4.487
36160SOL     OW10376   4.585   2.625   1.520
36160SOL    HW110377   4.508   2.640   1.466
36160SOL    HW210378   4.552   2.629   1.610
36161SOL     OW10379  10.878  13.827   1.747
36161SOL    HW110380  10.782  13.822   1.746
36161SOL    HW210381  10.905  13.748   1.793
36162SOL     OW10382   2.382   2.666  12.028
36162SOL    HW110383   2.311   2.644  11.968
36162SOL    HW210384   2.462   2.648  11.979
36163SOL     OW10385   1.754   7.996  13.046
36163SOL    HW110386   1.800   8.026  13.125
36163SOL    HW210387   1.766   8.067  12.983
36164SOL     OW10388   7.337   4.360   1.519
36164SOL    HW110389   7.321   4.266   1.510
36164SOL    HW210390   7.431   4.367   1.533
36165SOL     OW10391   1.403   2.278   7.066
36165SOL    HW110392   1.381   2.187   7.048
36165SOL    HW210393   1.357   2.328   6.999
36166SOL     OW10394  14.561   0.998  13.530
36166SOL    HW110395  14.537   1.063  13.596
36166SOL    HW210396  14.588   0.921  13.581
36167SOL     OW10397  11.332   7.541  11.337
36167SOL    HW110398  11.273   7.596  11.388
36167SOL    HW210399  11.275   7.487  11.282
36168SOL     OW10400   9.868   2.613   6.396
36168SOL    HW110401   9.879   2.588   6.488
36168SOL    HW210402   9.856   2.708   6.399
36169SOL     OW10403   2.979   1.814   0.603
36169SOL    HW110404   2.888   1.786   0.613
36169SOL    HW210405   2.987   1.837   0.510
36170SOL     OW10406  14.761   7.052   6.224
36170SOL    HW110407  14.809   7.017   6.299
36170SOL    HW210408  14.802   7.136   6.206
36171SOL     OW10409   3.659   8.382  14.054
36171SOL    HW110410   3.751   8.393  14.077
36171SOL    HW210411   3.660   8.373  13.958
36172SOL     OW10412   0.539   4.101   5.974
36172SOL    HW110413   0.495   4.071   5.895
36172SOL    HW210414   0.628   4.123   5.945
36173SOL     OW10415  10.481  13.365   6.954
36173SOL    HW110416  10.569  13.349   6.989
36173SOL    HW210417  10.491  13.445   6.901
36174SOL     OW10418  12.678   7.055   9.255
36174SOL    HW110419  12.766   7.058   9.216
36174SOL    HW210420  12.631   6.991   9.202
36175SOL     OW10421  11.378   6.376   8.811
36175SOL    HW110422  11.286   6.400   8.795
36175SOL    HW210423  11.386   6.376   8.907
36176SOL     OW10424   0.162   2.355  14.239
36176SOL    HW110425   0.250   2.374  14.207
36176SOL    HW210426   0.176   2.297  14.314
36177SOL     OW10427   0.806   3.621   2.526
36177SOL    HW110428   0.723   3.642   2.483
36177SOL    HW210429   0.813   3.683   2.598
36178SOL     OW10430   2.809  14.270   7.760
36178SOL    HW110431   2.748  14.297   7.691
36178SOL    HW210432   2.797  14.175   7.766
36179SOL     OW10433   8.587   4.419   0.116
36179SOL    HW110434   8.637   4.411   0.197
36179SOL    HW210435   8.506   4.371   0.132
36180SOL     OW10436  10.351  14.793   1.935
36180SOL    HW110437  10.305  14.784   1.851
36180SOL    HW210438  10.444  14.793   1.911
36181SOL     OW10439   4.386  13.646  13.064
36181SOL    HW110440   4.327  13.643  12.988
36181SOL    HW210441   4.390  13.739  13.088
36182SOL     OW10442   1.688   2.681   2.125
36182SOL    HW110443   1.681   2.673   2.220
36182SOL    HW210444   1.626   2.749   2.101
36183SOL     OW10445   7.029   3.502  14.266
36183SOL    HW110446   7.073   3.585  14.282
36183SOL    HW210447   6.942   3.513  14.305
36184SOL     OW10448   6.203   4.337   8.094
36184SOL    HW110449   6.165   4.355   8.179
36184SOL    HW210450   6.199   4.242   8.085
36185SOL     OW10451   2.955   0.286   5.637
36185SOL    HW110452   3.039   0.297   5.592
36185SOL    HW210453   2.940   0.370   5.680
36186SOL     OW10454   6.647   4.587   1.125
36186SOL    HW110455   6.719   4.625   1.175
36186SOL    HW210456   6.583   4.561   1.191
36187SOL     OW10457   0.761  14.172   7.883
36187SOL    HW110458   0.795  14.083   7.894
36187SOL    HW210459   0.780  14.216   7.966
36188SOL     OW10460   5.711  13.242   7.980
36188SOL    HW110461   5.766  13.301   7.929
36188SOL    HW210462   5.756  13.157   7.975
36189SOL     OW10463  11.654  10.544  14.535
36189SOL    HW110464  11.612  10.600  14.599
36189SOL    HW210465  11.676  10.464  14.583
36190SOL     OW10466   0.842  12.496  10.645
36190SOL    HW110467   0.913  12.434  10.664
36190SOL    HW210468   0.766  12.442  10.628
36191SOL     OW10469   3.802  13.128   4.478
36191SOL    HW110470   3.791  13.149   4.385
36191SOL    HW210471   3.871  13.186   4.508
36192SOL     OW10472  11.973  14.445   5.622
36192SOL    HW110473  11.949  14.482   5.707
36192SOL    HW210474  12.066  14.425   5.630
36193SOL     OW10475  11.219  12.725  12.927
36193SOL    HW110476  11.215  12.658  12.860
36193SOL    HW210477  11.204  12.678  13.009
36194SOL     OW10478  14.448  14.510  14.352
36194SOL    HW110479  14.456  14.561  14.271
36194SOL    HW210480  14.358  14.477  14.350
36195SOL     OW10481   6.615   2.176   8.071
36195SOL    HW110482   6.644   2.219   8.151
36195SOL    HW210483   6.537   2.224   8.045
36196SOL     OW10484   8.913   9.203   3.313
36196SOL    HW110485   8.874   9.251   3.386
36196SOL    HW210486   9.001   9.239   3.305
36197SOL     OW10487   5.641   6.355  12.833
36197SOL    HW110488   5.561   6.329  12.788
36197SOL    HW210489   5.634   6.450  12.843
36198SOL     OW10490   2.906  13.254   1.784
36198SOL    HW110491   2.975  13.311   1.817
36198SOL    HW210492   2.952  13.187   1.734
36199SOL     OW10493   6.514   5.437   2.915
36199SOL    HW110494   6.513   5.347   2.884
36199SOL    HW210495   6.564   5.434   2.996
36200SOL     OW10496   0.468   6.562   0.801
36200SOL    HW110497   0.461   6.655   0.822
36200SOL    HW210498   0.408   6.550   0.727
36201SOL     OW10499   5.554  12.354   4.891
36201SOL    HW110500   5.622  12.422   4.897
36201SOL    HW210501   5.480  12.390   4.941
36202SOL     OW10502   5.809   3.109   8.008
36202SOL    HW110503   5.899   3.098   8.038
36202SOL    HW210504   5.816   3.110   7.913
36203SOL     OW10505   1.128  14.081  13.754
36203SOL    HW110506   1.094  14.163  13.791
36203SOL    HW210507   1.140  14.024  13.829
36204SOL     OW10508  11.143   8.213   7.124
36204SOL    HW110509  11.220   8.177   7.080
36204SOL    HW210510  11.069   8.172   7.079
36205SOL     OW10511   7.674  10.199  10.928
36205SOL    HW110512   7.732  10.129  10.896
36205SOL    HW210513   7.728  10.248  10.990
36206SOL     OW10514   0.179  10.846   6.985
36206SOL    HW110515   0.172  10.824   7.078
36206SOL    HW210516   0.274  10.849   6.968
36207SOL     OW10517   8.779   4.060   9.132
36207SOL    HW110518   8.740   4.024   9.211
36207SOL    HW210519   8.716   4.126   9.102
36208SOL     OW10520   4.623   1.217   2.493
36208SOL    HW110521   4.605   1.196   2.401
36208SOL    HW210522   4.626   1.312   2.496
36209SOL     OW10523   5.502  14.504   1.452
36209SOL    HW110524   5.562  14.470   1.385
36209SOL    HW210525   5.474  14.589   1.419
36210SOL     OW10526   6.537  13.378   5.370
36210SOL    HW110527   6.613  13.418   5.327
36210SOL    HW210528   6.462  13.409   5.320
36211SOL     OW10529   7.637  14.684   8.398
36211SOL    HW110530   7.602  14.620   8.336
36211SOL    HW210531   7.629  14.768   8.352
36212SOL     OW10532  14.399   6.800  12.296
36212SOL    HW110533  14.445   6.737  12.351
36212SOL    HW210534  14.321   6.823  12.347
36213SOL     OW10535  12.983   7.175   1.632
36213SOL    HW110536  12.917   7.142   1.571
36213SOL    HW210537  13.066   7.148   1.594
36214SOL     OW10538   6.117   9.080   2.466
36214SOL    HW110539   6.027   9.111   2.454
36214SOL    HW210540   6.115   8.988   2.442
36215SOL     OW10541  12.264  13.768  14.808
36215SOL    HW110542  12.353  13.734  14.823
36215SOL    HW210543  12.239  13.805   0.013
36216SOL     OW10544   3.572   4.778  10.248
36216SOL    HW110545   3.518   4.825  10.184
36216SOL    HW210546   3.521   4.781  10.329
36217SOL     OW10547  12.141   2.977   9.210
36217SOL    HW110548  12.197   2.954   9.285
36217SOL    HW210549  12.201   2.982   9.136
36218SOL     OW10550  14.825  13.009   5.142
36218SOL    HW110551  14.738  12.976   5.119
36218SOL    HW210552  14.878  12.990   5.064
36219SOL     OW10553   4.009   2.629   5.091
36219SOL    HW110554   3.917   2.627   5.119
36219SOL    HW210555   4.051   2.559   5.141
36220SOL     OW10556  11.527  10.005  12.122
36220SOL    HW110557  11.610  10.033  12.083
36220SOL    HW210558  11.462  10.018  12.054
36221SOL     OW10559  10.334   0.613  14.033
36221SOL    HW110560  10.310   0.579  13.947
36221SOL    HW210561  10.310   0.705  14.031
36222SOL     OW10562   8.717   4.245   4.496
36222SOL    HW110563   8.776   4.184   4.453
36222SOL    HW210564   8.707   4.317   4.434
36223SOL     OW10565   3.751   8.876   9.795
36223SOL    HW110566   3.790   8.819   9.861
36223SOL    HW210567   3.736   8.819   9.720
36224SOL     OW10568   9.978  11.833   9.455
36224SOL    HW110569   9.969  11.754   9.509
36224SOL    HW210570   9.888  11.855   9.430
36225SOL     OW10571   5.962   4.289   7.008
36225SOL    HW110572   5.903   4.359   7.036
36225SOL    HW210573   5.957   4.224   7.078
36226SOL     OW10574   1.846   5.700   2.624
36226SOL    HW110575   1.877   5.632   2.565
36226SOL    HW210576   1.766   5.733   2.582
36227SOL     OW10577   8.914   2.062  11.754
36227SOL    HW110578   8.887   2.077  11.663
36227SOL    HW210579   8.845   2.007  11.791
36228SOL     OW10580  12.162   1.313   3.552
36228SOL    HW110581  12.125   1.260   3.481
36228SOL    HW210582  12.215   1.379   3.509
36229SOL     OW10583   5.881   6.128   7.951
36229SOL    HW110584   5.931   6.207   7.931
36229SOL    HW210585   5.854   6.138   8.043
36230SOL     OW10586  14.724  10.549   9.263
36230SOL    HW110587  14.683  10.553   9.349
36230SOL    HW210588  14.651  10.561   9.201
36231SOL     OW10589   5.838   9.822   7.605
36231SOL    HW110590   5.920   9.800   7.648
36231SOL    HW210591   5.772   9.810   7.673
36232SOL     OW10592   4.597   4.281   9.014
36232SOL    HW110593   4.628   4.265   9.103
36232SOL    HW210594   4.504   4.257   9.016
36233SOL     OW10595   9.622   6.077  11.132
36233SOL    HW110596   9.573   6.012  11.182
36233SOL    HW210597   9.594   6.064  11.042
36234SOL     OW10598   0.655  10.995   7.872
36234SOL    HW110599   0.701  11.078   7.886
36234SOL    HW210600   0.691  10.962   7.789
36235SOL     OW10601   4.265   7.392  12.963
36235SOL    HW110602   4.277   7.487  12.963
36235SOL    HW210603   4.316   7.362  12.887
36236SOL     OW10604   5.649   9.092   5.037
36236SOL    HW110605   5.688   9.068   5.121
36236SOL    HW210606   5.721   9.088   4.974
36237SOL     OW10607   2.302   0.566   1.505
36237SOL    HW110608   2.248   0.625   1.557
36237SOL    HW210609   2.349   0.623   1.444
36238SOL     OW10610  12.419   6.642   1.417
36238SOL    HW110611  12.481   6.574   1.391
36238SOL    HW210612  12.388   6.614   1.503
36239SOL     OW10613  12.276  12.738  13.078
36239SOL    HW110614  12.306  12.758  12.990
36239SOL    HW210615  12.211  12.669  13.066
36240SOL     OW10616  12.032  13.289  10.958
36240SOL    HW110617  12.111  13.321  11.001
36240SOL    HW210618  12.013  13.354  10.891
36241SOL     OW10619  12.064  10.897   5.121
36241SOL    HW110620  12.129  10.828   5.108
36241SOL    HW210621  12.068  10.917   5.215
36242SOL     OW10622   3.337  14.452   8.846
36242SOL    HW110623   3.352  14.424   8.755
36242SOL    HW210624   3.363  14.544   8.847
36243SOL     OW10625   6.511   5.562  13.084
36243SOL    HW110626   6.438   5.505  13.109
36243SOL    HW210627   6.510   5.562  12.988
36244SOL     OW10628   1.264  10.946   3.433
36244SOL    HW110629   1.346  10.926   3.387
36244SOL    HW210630   1.209  10.988   3.367
36245SOL     OW10631   3.881  11.218   0.996
36245SOL    HW110632   3.950  11.152   0.991
36245SOL    HW210633   3.883  11.261   0.910
36246SOL     OW10634   1.668  10.977   0.666
36246SOL    HW110635   1.589  10.980   0.720
36246SOL    HW210636   1.714  10.898   0.695
36247SOL     OW10637   4.132  14.098  14.443
36247SOL    HW110638   4.079  14.178  14.448
36247SOL    HW210639   4.096  14.050  14.369
36248SOL     OW10640  10.447   6.186   8.227
36248SOL    HW110641  10.524   6.178   8.171
36248SOL    HW210642  10.479   6.165   8.315
36249SOL     OW10643  14.176   7.138   4.857
36249SOL    HW110644  14.189   7.232   4.871
36249SOL    HW210645  14.222   7.097   4.931
36250SOL     OW10646   9.739   0.677   4.431
36250SOL    HW110647   9.780   0.660   4.346
36250SOL    HW210648   9.723   0.771   4.432
36251SOL     OW10649   9.909   9.081   6.717
36251SOL    HW110650   9.851   9.134   6.772
36251SOL    HW210651   9.975   9.046   6.778
36252SOL     OW10652   7.287   2.991   8.764
36252SOL    HW110653   7.313   2.914   8.814
36252SOL    HW210654   7.199   2.970   8.731
36253SOL     OW10655  11.076   1.858   5.906
36253SOL    HW110656  11.146   1.919   5.933
36253SOL    HW210657  11.017   1.912   5.853
36254SOL     OW10658   0.109   2.770   7.763
36254SOL    HW110659   0.050   2.708   7.806
36254SOL    HW210660   0.055   2.846   7.743
36255SOL     OW10661   8.193   2.948   5.886
36255SOL    HW110662   8.250   3.025   5.890
36255SOL    HW210663   8.175   2.936   5.793
36256SOL     OW10664   0.129   6.678   3.419
36256SOL    HW110665   0.175   6.604   3.378
36256SOL    HW210666   0.197   6.725   3.466
36257SOL     OW10667   5.636  14.595   8.814
36257SOL    HW110668   5.690  14.672   8.792
36257SOL    HW210669   5.674  14.561   8.895
36258SOL     OW10670   1.824  14.332   4.685
36258SOL    HW110671   1.825  14.263   4.750
36258SOL    HW210672   1.794  14.410   4.733
36259SOL     OW10673  10.702  13.840  11.333
36259SOL    HW110674  10.697  13.924  11.289
36259SOL    HW210675  10.746  13.782  11.271
36260SOL     OW10676   5.762   1.025   5.926
36260SOL    HW110677   5.776   1.043   5.833
36260SOL    HW210678   5.734   0.933   5.928
36261SOL     OW10679  14.103  14.092  12.444
36261SOL    HW110680  14.033  14.144  12.404
36261SOL    HW210681  14.091  14.004  12.408
36262SOL     OW10682  13.423  13.000   3.547
36262SOL    HW110683  13.433  13.095   3.549
36262SOL    HW210684  13.405  12.979   3.455
36263SOL     OW10685   4.673  14.555  11.755
36263SOL    HW110686   4.717  14.528  11.836
36263SOL    HW210687   4.632  14.639  11.777
36264SOL     OW10688   7.258   9.078  12.539
36264SOL    HW110689   7.232   9.027  12.616
36264SOL    HW210690   7.351   9.097  12.553
36265SOL     OW10691   0.188   0.971   5.200
36265SOL    HW110692   0.200   0.980   5.295
36265SOL    HW210693   0.272   0.998   5.163
36266SOL     OW10694  10.291  12.854   7.693
36266SOL    HW110695  10.218  12.868   7.632
36266SOL    HW210696  10.260  12.785   7.752
36267SOL     OW10697   7.777   8.782   1.231
36267SOL    HW110698   7.788   8.822   1.145
36267SOL    HW210699   7.838   8.709   1.232
36268SOL     OW10700   0.875   5.072  12.602
36268SOL    HW110701   0.892   5.143  12.664
36268SOL    HW210702   0.788   5.091  12.568
36269SOL     OW10703   4.753  12.678  13.688
36269SOL    HW110704   4.765  12.587  13.660
36269SOL    HW210705   4.660  12.695  13.674
36270SOL     OW10706   3.471  12.822   2.401
36270SOL    HW110707   3.562  12.803   2.376
36270SOL    HW210708   3.455  12.765   2.476
36271SOL     OW10709   4.833  13.826   2.077
36271SOL    HW110710   4.750  13.866   2.102
36271SOL    HW210711   4.871  13.796   2.159
36272SOL     OW10712  11.475   8.813  10.868
36272SOL    HW110713  11.405   8.778  10.923
36272SOL    HW210714  11.505   8.737  10.817
36273SOL     OW10715   3.304   2.906   3.929
36273SOL    HW110716   3.311   2.998   3.904
36273SOL    HW210717   3.281   2.908   4.022
36274SOL     OW10718  13.046   1.046   5.040
36274SOL    HW110719  13.124   1.099   5.026
36274SOL    HW210720  13.072   0.983   5.107
36275SOL     OW10721  10.278  11.725   3.614
36275SOL    HW110722  10.336  11.796   3.641
36275SOL    HW210723  10.337  11.652   3.596
36276SOL     OW10724   9.888   9.487   2.977
36276SOL    HW110725   9.825   9.456   2.912
36276SOL    HW210726   9.879   9.426   3.050
36277SOL     OW10727   6.039   2.317   1.361
36277SOL    HW110728   5.946   2.298   1.356
36277SOL    HW210729   6.076   2.243   1.411
36278SOL     OW10730   3.645  10.065   1.467
36278SOL    HW110731   3.702  10.111   1.404
36278SOL    HW210732   3.686  10.081   1.552
36279SOL     OW10733   0.571   9.335   0.086
36279SOL    HW110734   0.488   9.292   0.065
36279SOL    HW210735   0.638   9.281   0.043
36280SOL     OW10736   4.610  10.746  14.665
36280SOL    HW110737   4.682  10.718  14.721
36280SOL    HW210738   4.651  10.801  14.599
36281SOL     OW10739   8.296   3.018   9.117
36281SOL    HW110740   8.390   3.010   9.137
36281SOL    HW210741   8.264   2.928   9.116
36282SOL     OW10742  11.552   3.385   4.209
36282SOL    HW110743  11.473   3.356   4.254
36282SOL    HW210744  11.545   3.348   4.121
36283SOL     OW10745  12.908   5.737  12.277
36283SOL    HW110746  12.865   5.806  12.328
36283SOL    HW210747  12.858   5.658  12.295
36284SOL     OW10748   3.889  10.424   7.565
36284SOL    HW110749   3.816  10.413   7.625
36284SOL    HW210750   3.900  10.519   7.558
36285SOL     OW10751   2.061   1.891   8.999
36285SOL    HW110752   2.033   1.925   8.915
36285SOL    HW210753   2.095   1.967   9.046
36286SOL     OW10754  10.970  12.601   2.501
36286SOL    HW110755  11.014  12.686   2.504
36286SOL    HW210756  10.940  12.592   2.410
36287SOL     OW10757  13.211   2.094   3.385
36287SOL    HW110758  13.247   2.047   3.310
36287SOL    HW210759  13.163   2.167   3.347
36288SOL     OW10760  12.758   4.013   2.600
36288SOL    HW110761  12.817   4.074   2.556
36288SOL    HW210762  12.730   4.060   2.679
36289SOL     OW10763  14.363   4.726   0.850
36289SOL    HW110764  14.284   4.779   0.858
36289SOL    HW210765  14.332   4.641   0.818
36290SOL     OW10766   4.685   8.130   9.529
36290SOL    HW110767   4.698   8.225   9.536
36290SOL    HW210768   4.629   8.107   9.604
36291SOL     OW10769   9.611   3.141   6.063
36291SOL    HW110770   9.653   3.173   6.143
36291SOL    HW210771   9.528   3.187   6.059
36292SOL     OW10772   9.758   4.026   7.775
36292SOL    HW110773   9.748   4.087   7.703
36292SOL    HW210774   9.669   4.017   7.811
36293SOL     OW10775   1.235   4.645   9.543
36293SOL    HW110776   1.151   4.677   9.577
36293SOL    HW210777   1.290   4.635   9.621
36294SOL     OW10778   8.918  13.790   2.355
36294SOL    HW110779   8.895  13.789   2.262
36294SOL    HW210780   9.002  13.745   2.360
36295SOL     OW10781   8.857   0.854  12.424
36295SOL    HW110782   8.843   0.771  12.470
36295SOL    HW210783   8.834   0.834  12.333
36296SOL     OW10784  11.142  11.372  11.748
36296SOL    HW110785  11.200  11.296  11.756
36296SOL    HW210786  11.126  11.399  11.838
36297SOL     OW10787   1.777   4.374   9.499
36297SOL    HW110788   1.748   4.321   9.574
36297SOL    HW210789   1.808   4.456   9.538
36298SOL     OW10790   2.145   4.043   5.492
36298SOL    HW110791   2.108   4.060   5.579
36298SOL    HW210792   2.089   4.092   5.432
36299SOL     OW10793   6.383  12.122   7.150
36299SOL    HW110794   6.443  12.049   7.131
36299SOL    HW210795   6.414  12.193   7.094
36300SOL     OW10796   7.907   3.743  10.978
36300SOL    HW110797   7.987   3.706  10.943
36300SOL    HW210798   7.936   3.813  11.037
36301SOL     OW10799  14.459  10.027  13.921
36301SOL    HW110800  14.380   9.983  13.951
36301SOL    HW210801  14.454  10.022  13.825
36302SOL     OW10802   2.168  10.212   8.489
36302SOL    HW110803   2.175  10.145   8.421
36302SOL    HW210804   2.081  10.248   8.478
36303SOL     OW10805   8.790  12.260   0.592
36303SOL    HW110806   8.715  12.291   0.643
36303SOL    HW210807   8.861  12.321   0.614
36304SOL     OW10808  13.764   7.914   9.751
36304SOL    HW110809  13.695   7.928   9.686
36304SOL    HW210810  13.809   7.998   9.756
36305SOL     OW10811  10.715  11.655   9.953
36305SOL    HW110812  10.731  11.573   9.908
36305SOL    HW210813  10.801  11.684   9.984
36306SOL     OW10814   4.243   2.329   5.887
36306SOL    HW110815   4.161   2.299   5.848
36306SOL    HW210816   4.217   2.362   5.974
36307SOL     OW10817   2.980  14.579   6.241
36307SOL    HW110818   3.007  14.488   6.231
36307SOL    HW210819   3.013  14.604   6.327
36308SOL     OW10820   5.207   3.770   1.298
36308SOL    HW110821   5.131   3.713   1.301
36308SOL    HW210822   5.176   3.850   1.256
36309SOL     OW10823  13.453   6.184  12.051
36309SOL    HW110824  13.466   6.182  12.145
36309SOL    HW210825  13.534   6.149  12.014
36310SOL     OW10826   6.832   5.362   2.940
36310SOL    HW110827   6.843   5.354   2.845
36310SOL    HW210828   6.794   5.449   2.952
36311SOL     OW10829  14.832   1.379   9.566
36311SOL    HW110830   0.027   1.388   9.624
36311SOL    HW210831  14.870   1.358   9.480
36312SOL     OW10832  12.741   1.168  12.341
36312SOL    HW110833  12.759   1.253  12.300
36312SOL    HW210834  12.668   1.185  12.401
36313SOL     OW10835   5.805   3.113   7.741
36313SOL    HW110836   5.850   3.072   7.667
36313SOL    HW210837   5.740   3.170   7.700
36314SOL     OW10838   0.071  10.005   2.029
36314SOL    HW110839  14.878   9.962   1.985
36314SOL    HW210840   0.148   9.979   1.980
36315SOL     OW10841  13.910   8.421   5.387
36315SOL    HW110842  13.882   8.346   5.334
36315SOL    HW210843  13.920   8.385   5.476
36316SOL     OW10844   1.917  13.190   2.252
36316SOL    HW110845   1.836  13.208   2.299
36316SOL    HW210846   1.908  13.237   2.169
36317SOL     OW10847   6.357   9.324  14.705
36317SOL    HW110848   6.386   9.413  14.725
36317SOL    HW210849   6.438   9.277  14.686
36318SOL     OW10850  10.713  10.741  10.275
36318SOL    HW110851  10.694  10.825  10.233
36318SOL    HW210852  10.673  10.749  10.361
36319SOL     OW10853   1.607   7.248   1.368
36319SOL    HW110854   1.544   7.209   1.306
36319SOL    HW210855   1.650   7.173   1.408
36320SOL     OW10856   1.577   0.064   8.913
36320SOL    HW110857   1.545  14.865   8.870
36320SOL    HW210858   1.502   0.097   8.961
36321SOL     OW10859  11.027  10.985   4.208
36321SOL    HW110860  10.939  10.985   4.172
36321SOL    HW210861  11.075  11.048   4.155
36322SOL     OW10862   3.893  11.072  12.287
36322SOL    HW110863   3.935  10.986  12.277
36322SOL    HW210864   3.835  11.062  12.363
36323SOL     OW10865  10.628   0.949   1.168
36323SOL    HW110866  10.591   1.037   1.168
36323SOL    HW210867  10.678   0.944   1.086
36324SOL     OW10868  14.204   3.604   4.348
36324SOL    HW110869  14.223   3.524   4.398
36324SOL    HW210870  14.219   3.675   4.410
36325SOL     OW10871   2.678   2.423   4.392
36325SOL    HW110872   2.606   2.482   4.367
36325SOL    HW210873   2.649   2.336   4.364
36326SOL     OW10874   3.600  10.024   2.036
36326SOL    HW110875   3.615  10.049   2.127
36326SOL    HW210876   3.551   9.941   2.042
36327SOL     OW10877   0.246  10.581   6.781
36327SOL    HW110878   0.152  10.581   6.799
36327SOL    HW210879   0.282  10.520   6.844
36328SOL     OW10880   8.545   2.771   0.084
36328SOL    HW110881   8.493   2.818   0.019
36328SOL    HW210882   8.542   2.680   0.055
36329SOL     OW10883  14.604   8.345  14.557
36329SOL    HW110884  14.608   8.433  14.595
36329SOL    HW210885  14.644   8.354  14.471
36330SOL     OW10886  10.080  13.122   8.226
36330SOL    HW110887  10.128  13.068   8.163
36330SOL    HW210888  10.118  13.100   8.311
36331SOL     OW10889   2.095  13.281   3.306
36331SOL    HW110890   2.177  13.327   3.322
36331SOL    HW210891   2.076  13.236   3.388
36332SOL     OW10892   8.778   4.558   0.316
36332SOL    HW110893   8.716   4.500   0.360
36332SOL    HW210894   8.856   4.556   0.371
36333SOL     OW10895   2.482   0.883   8.859
36333SOL    HW110896   2.445   0.970   8.873
36333SOL    HW210897   2.432   0.847   8.786
36334SOL     OW10898   4.142   1.132   0.322
36334SOL    HW110899   4.096   1.051   0.344
36334SOL    HW210900   4.072   1.197   0.309
36335SOL     OW10901   8.423   3.978   0.565
36335SOL    HW110902   8.447   3.887   0.581
36335SOL    HW210903   8.358   3.998   0.632
36336SOL     OW10904   4.218   4.537   6.709
36336SOL    HW110905   4.293   4.486   6.679
36336SOL    HW210906   4.148   4.516   6.647
36337SOL     OW10907   4.492   4.700   7.490
36337SOL    HW110908   4.448   4.785   7.498
36337SOL    HW210909   4.497   4.667   7.580
36338SOL     OW10910   9.588   6.758   1.576
36338SOL    HW110911   9.503   6.799   1.564
36338SOL    HW210912   9.593   6.691   1.507
36339SOL     OW10913   8.813   4.217   6.078
36339SOL    HW110914   8.728   4.201   6.037
36339SOL    HW210915   8.797   4.206   6.172
36340SOL     OW10916  11.453   7.081   6.034
36340SOL    HW110917  11.481   6.989   6.033
36340SOL    HW210918  11.433   7.101   5.942
36341SOL     OW10919   0.781   0.836  10.075
36341SOL    HW110920   0.854   0.827  10.136
36341SOL    HW210921   0.750   0.747  10.061
36342SOL     OW10922   6.624   8.271  11.567
36342SOL    HW110923   6.580   8.199  11.523
36342SOL    HW210924   6.606   8.257  11.660
36343SOL     OW10925   1.028  11.824   3.698
36343SOL    HW110926   1.008  11.730   3.695
36343SOL    HW210927   1.077  11.841   3.618
36344SOL     OW10928   7.915  10.188   3.359
36344SOL    HW110929   7.906  10.275   3.397
36344SOL    HW210930   7.909  10.128   3.433
36345SOL     OW10931   5.136   2.688   9.339
36345SOL    HW110932   5.140   2.618   9.405
36345SOL    HW210933   5.107   2.765   9.388
36346SOL     OW10934   8.283   6.383   1.873
36346SOL    HW110935   8.252   6.363   1.961
36346SOL    HW210936   8.347   6.454   1.886
36347SOL     OW10937   9.549   5.110   4.081
36347SOL    HW110938   9.510   5.189   4.044
36347SOL    HW210939   9.500   5.038   4.040
36348SOL     OW10940   1.473  11.166   4.551
36348SOL    HW110941   1.548  11.179   4.609
36348SOL    HW210942   1.437  11.081   4.578
36349SOL     OW10943   0.795  13.705   3.378
36349SOL    HW110944   0.705  13.739   3.379
36349SOL    HW210945   0.806  13.668   3.291
36350SOL     OW10946   4.812  10.592   8.492
36350SOL    HW110947   4.837  10.552   8.409
36350SOL    HW210948   4.866  10.546   8.558
36351SOL     OW10949   1.207   5.945   0.238
36351SOL    HW110950   1.165   6.000   0.304
36351SOL    HW210951   1.148   5.871   0.226
36352SOL     OW10952  13.560   9.877   9.363
36352SOL    HW110953  13.605   9.793   9.369
36352SOL    HW210954  13.531   9.895   9.452
36353SOL     OW10955   8.041  10.608  13.596
36353SOL    HW110956   8.067  10.685  13.544
36353SOL    HW210957   7.980  10.561  13.539
36354SOL     OW10958   1.765   4.367   4.200
36354SOL    HW110959   1.786   4.448   4.248
36354SOL    HW210960   1.671   4.375   4.181
36355SOL     OW10961   9.275   0.055   4.447
36355SOL    HW110962   9.247   0.106   4.523
36355SOL    HW210963   9.289  14.847   4.481
36356SOL     OW10964  12.276   5.913   7.993
36356SOL    HW110965  12.184   5.937   7.989
36356SOL    HW210966  12.278   5.833   8.046
36357SOL     OW10967  13.824   5.049   4.822
36357SOL    HW110968  13.821   5.046   4.727
36357SOL    HW210969  13.788   5.134   4.845
36358SOL     OW10970  11.118   4.498   5.939
36358SOL    HW110971  11.066   4.419   5.954
36358SOL    HW210972  11.202   4.467   5.907
36359SOL     OW10973   5.257  12.584   1.449
36359SOL    HW110974   5.350  12.578   1.474
36359SOL    HW210975   5.255  12.549   1.360
36360SOL     OW10976   7.714   4.595  10.047
36360SOL    HW110977   7.649   4.661  10.022
36360SOL    HW210978   7.693   4.519   9.992
36361SOL     OW10979   9.701   3.152   4.791
36361SOL    HW110980   9.661   3.204   4.860
36361SOL    HW210981   9.645   3.075   4.783
36362SOL     OW10982   9.478   9.030  13.736
36362SOL    HW110983   9.462   9.124  13.721
36362SOL    HW210984   9.561   9.027  13.783
36363SOL     OW10985   4.176   3.383  12.659
36363SOL    HW110986   4.175   3.478  12.662
36363SOL    HW210987   4.261   3.360  12.622
36364SOL     OW10988  11.720   2.350  12.880
36364SOL    HW110989  11.777   2.303  12.940
36364SOL    HW210990  11.759   2.438  12.873
36365SOL     OW10991   3.962   0.855   8.392
36365SOL    HW110992   4.046   0.825   8.427
36365SOL    HW210993   3.984   0.930   8.337
36366SOL     OW10994  11.089   5.286  10.928
36366SOL    HW110995  11.139   5.273  10.848
36366SOL    HW210996  11.086   5.382  10.939
36367SOL     OW10997   8.685   0.051   0.413
36367SOL    HW110998   8.640  14.848   0.425
36367SOL    HW210999   8.672   0.073   0.321
36368SOL     OW11000  12.412  11.566  12.143
36368SOL    HW111001  12.363  11.618  12.207
36368SOL    HW211002  12.421  11.624  12.067
36369SOL     OW11003   5.448   3.931   2.773
36369SOL    HW111004   5.373   3.975   2.812
36369SOL    HW211005   5.464   3.856   2.830
36370SOL     OW11006   4.178  12.796  13.384
36370SOL    HW111007   4.222  12.712  13.394
36370SOL    HW211008   4.086  12.779  13.404
36371SOL     OW11009  12.671  14.239   8.928
36371SOL    HW111010  12.688  14.315   8.982
36371SOL    HW211011  12.643  14.171   8.990
36372SOL     OW11012  11.366  12.385   9.871
36372SOL    HW111013  11.336  12.333   9.946
36372SOL    HW211014  11.312  12.355   9.798
36373SOL     OW11015   5.451   5.287   9.692
36373SOL    HW111016   5.421   5.374   9.718
36373SOL    HW211017   5.380   5.251   9.639
36374SOL     OW11018  13.132   0.708   4.206
36374SOL    HW111019  13.049   0.708   4.158
36374SOL    HW211020  13.196   0.679   4.142
36375SOL     OW11021  11.382   2.038   4.511
36375SOL    HW111022  11.369   2.001   4.424
36375SOL    HW211023  11.420   1.966   4.562
36376SOL     OW11024  12.721   9.152   6.144
36376SOL    HW111025  12.665   9.085   6.104
36376SOL    HW211026  12.756   9.110   6.223
36377SOL     OW11027  12.837  13.676   7.423
36377SOL    HW111028  12.921  13.629   7.420
36377SOL    HW211029  12.814  13.689   7.332
36378SOL     OW11030   3.399   8.686  11.552
36378SOL    HW111031   3.426   8.743  11.480
36378SOL    HW211032   3.308   8.665  11.534
36379SOL     OW11033   5.021   7.775  11.834
36379SOL    HW111034   5.048   7.858  11.874
36379SOL    HW211035   4.961   7.737  11.898
36380SOL     OW11036   0.178   7.858   0.084
36380SOL    HW111037   0.163   7.822   0.171
36380SOL    HW211038   0.124   7.937   0.081
36381SOL     OW11039  10.310   6.810   5.686
36381SOL    HW111040  10.322   6.871   5.759
36381SOL    HW211041  10.342   6.726   5.719
36382SOL     OW11042   4.706   5.434   6.650
36382SOL    HW111043   4.647   5.509   6.642
36382SOL    HW211044   4.764   5.456   6.723
36383SOL     OW11045   4.170   0.821   4.374
36383SOL    HW111046   4.262   0.798   4.369
36383SOL    HW211047   4.124   0.739   4.356
36384SOL     OW11048   9.350   9.765  13.806
36384SOL    HW111049   9.391   9.837  13.759
36384SOL    HW211050   9.380   9.686  13.759
36385SOL     OW11051   3.485   0.545   0.202
36385SOL    HW111052   3.470   0.639   0.192
36385SOL    HW211053   3.551   0.524   0.136
36386SOL     OW11054   2.429  11.685   9.918
36386SOL    HW111055   2.472  11.738   9.985
36386SOL    HW211056   2.433  11.595   9.953
36387SOL     OW11057  10.737   1.829  10.788
36387SOL    HW111058  10.679   1.785  10.851
36387SOL    HW211059  10.690   1.909  10.764
36388SOL     OW11060   5.916   0.011  12.829
36388SOL    HW111061   5.987  14.829  12.844
36388SOL    HW211062   5.958   0.083  12.782
36389SOL     OW11063  11.152   9.031   0.941
36389SOL    HW111064  11.104   8.948   0.949
36389SOL    HW211065  11.191   9.044   1.027
36390SOL     OW11066   2.057  12.435   3.492
36390SOL    HW111067   2.033  12.435   3.400
36390SOL    HW211068   2.141  12.481   3.495
36391SOL     OW11069   0.190   4.403   6.254
36391SOL    HW111070   0.250   4.478   6.249
36391SOL    HW211071   0.217   4.346   6.182
36392SOL     OW11072   5.417  14.108   3.170
36392SOL    HW111073   5.355  14.055   3.220
36392SOL    HW211074   5.372  14.126   3.087
36393SOL     OW11075   0.263   8.397  11.326
36393SOL    HW111076   0.263   8.334  11.253
36393SOL    HW211077   0.246   8.481  11.285
36394SOL     OW11078   9.413   0.108  10.206
36394SOL    HW111079   9.383   0.199  10.199
36394SOL    HW211080   9.433   0.082  10.116
36395SOL     OW11081   5.856  12.469   1.393
36395SOL    HW111082   5.831  12.453   1.484
36395SOL    HW211083   5.925  12.405   1.376
36396SOL     OW11084  11.630  11.686   0.109
36396SOL    HW111085  11.670  11.755   0.056
36396SOL    HW211086  11.655  11.604   0.067
36397SOL     OW11087   5.837  12.327   2.149
36397SOL    HW111088   5.862  12.236   2.137
36397SOL    HW211089   5.920  12.375   2.151
36398SOL     OW11090   0.012   4.776   6.692
36398SOL    HW111091  14.840   4.716   6.745
36398SOL    HW211092  14.850   4.861   6.702
36399SOL     OW11093   2.106   1.990  10.322
36399SOL    HW111094   2.125   2.031  10.238
36399SOL    HW211095   2.189   1.994  10.370
36400SOL     OW11096   8.265   5.643   6.387
36400SOL    HW111097   8.230   5.687   6.310
36400SOL    HW211098   8.234   5.695   6.461
36401SOL     OW11099   7.066   3.578   5.069
36401SOL    HW111100   7.137   3.643   5.067
36401SOL    HW211101   7.107   3.498   5.035
36402SOL     OW11102   0.740  10.269   3.547
36402SOL    HW111103   0.644  10.266   3.542
36402SOL    HW211104   0.758  10.291   3.638
36403SOL     OW11105   2.191   7.439   8.865
36403SOL    HW111106   2.165   7.460   8.955
36403SOL    HW211107   2.188   7.523   8.819
36404SOL     OW11108  14.831  13.078   3.569
36404SOL    HW111109  14.855  13.170   3.559
36404SOL    HW211110  14.880  13.049   3.646
36405SOL     OW11111   8.712  12.071   3.375
36405SOL    HW111112   8.760  12.034   3.449
36405SOL    HW211113   8.622  12.042   3.387
36406SOL     OW11114   4.575   7.717   6.594
36406SOL    HW111115   4.642   7.682   6.653
36406SOL    HW211116   4.543   7.640   6.546
36407SOL     OW11117   7.909  13.621   8.793
36407SOL    HW111118   7.936  13.628   8.884
36407SOL    HW211119   7.814  13.613   8.796
36408SOL     OW11120  12.998  10.213  13.438
36408SOL    HW111121  13.009  10.156  13.361
36408SOL    HW211122  13.047  10.292  13.416
36409SOL     OW11123   4.459   8.850   0.081
36409SOL    HW111124   4.552   8.855   0.062
36409SOL    HW211125   4.448   8.896   0.164
36410SOL     OW11126  12.728   8.916   5.679
36410SOL    HW111127  12.814   8.883   5.705
36410SOL    HW211128  12.674   8.838   5.669
36411SOL     OW11129   1.643  12.657   7.743
36411SOL    HW111130   1.702  12.686   7.673
36411SOL    HW211131   1.562  12.631   7.698
36412SOL     OW11132   6.346  14.673  10.083
36412SOL    HW111133   6.267  14.629  10.052
36412SOL    HW211134   6.349  14.754  10.032
36413SOL     OW11135  11.883   5.574   6.609
36413SOL    HW111136  11.909   5.608   6.695
36413SOL    HW211137  11.834   5.494   6.628
36414SOL     OW11138   6.891   5.896  13.052
36414SOL    HW111139   6.799   5.869  13.045
36414SOL    HW211140   6.898   5.973  12.996
36415SOL     OW11141   9.497   1.681  14.496
36415SOL    HW111142   9.448   1.762  14.503
36415SOL    HW211143   9.455   1.632  14.426
36416SOL     OW11144   1.464   4.288   9.172
36416SOL    HW111145   1.521   4.356   9.208
36416SOL    HW211146   1.520   4.211   9.164
36417SOL     OW11147   4.529   5.750   5.895
36417SOL    HW111148   4.500   5.792   5.976
36417SOL    HW211149   4.582   5.817   5.851
36418SOL     OW11150   1.971   7.794   4.797
36418SOL    HW111151   2.011   7.878   4.774
36418SOL    HW211152   1.975   7.743   4.716
36419SOL     OW11153   3.507   4.989   7.175
36419SOL    HW111154   3.555   4.907   7.162
36419SOL    HW211155   3.495   4.995   7.270
36420SOL     OW11156   2.608  13.322  13.255
36420SOL    HW111157   2.630  13.230  13.274
36420SOL    HW211158   2.591  13.322  13.161
36421SOL     OW11159  11.926   5.469   9.405
36421SOL    HW111160  12.018   5.480   9.430
36421SOL    HW211161  11.930   5.429   9.318
36422SOL     OW11162   0.535   3.340  11.371
36422SOL    HW111163   0.471   3.304  11.309
36422SOL    HW211164   0.543   3.273  11.439
36423SOL     OW11165  12.170   9.296  14.787
36423SOL    HW111166  12.083   9.289  14.824
36423SOL    HW211167  12.222   9.340  14.855
36424SOL     OW11168  13.097  12.856   3.079
36424SOL    HW111169  13.100  12.835   3.172
36424SOL    HW211170  13.053  12.941   3.074
36425SOL     OW11171   6.156  12.067   0.989
36425SOL    HW111172   6.152  12.107   1.076
36425SOL    HW211173   6.242  12.027   0.984
36426SOL     OW11174   1.804   1.132  14.317
36426SOL    HW111175   1.770   1.049  14.350
36426SOL    HW211176   1.769   1.138  14.228
36427SOL     OW11177   2.862   0.773   1.687
36427SOL    HW111178   2.888   0.727   1.608
36427SOL    HW211179   2.823   0.855   1.655
36428SOL     OW11180   9.207  11.231  12.027
36428SOL    HW111181   9.129  11.187  11.993
36428SOL    HW211182   9.176  11.319  12.050
36429SOL     OW11183   5.027   3.240   0.295
36429SOL    HW111184   5.104   3.289   0.325
36429SOL    HW211185   5.059   3.151   0.282
36430SOL     OW11186   1.995   6.400   0.370
36430SOL    HW111187   2.055   6.335   0.333
36430SOL    HW211188   1.914   6.390   0.320
36431SOL     OW11189   6.997  10.786   9.093
36431SOL    HW111190   6.903  10.774   9.099
36431SOL    HW211191   7.022  10.735   9.016
36432SOL     OW11192   6.229   9.475   5.908
36432SOL    HW111193   6.175   9.435   5.975
36432SOL    HW211194   6.317   9.441   5.924
36433SOL     OW11195  12.004   1.299  13.960
36433SOL    HW111196  12.053   1.378  13.982
36433SOL    HW211197  12.068   1.244  13.915
36434SOL     OW11198   8.038   0.455   6.354
36434SOL    HW111199   8.012   0.363   6.348
36434SOL    HW211200   7.971   0.496   6.409
36435SOL     OW11201   3.823   5.108   7.296
36435SOL    HW111202   3.787   5.039   7.351
36435SOL    HW211203   3.916   5.087   7.289
36436SOL     OW11204   8.991   2.758   0.217
36436SOL    HW111205   8.984   2.821   0.145
36436SOL    HW211206   9.028   2.679   0.177
36437SOL     OW11207  14.835   6.566   1.267
36437SOL    HW111208  14.788   6.503   1.322
36437SOL    HW211209  14.854   6.639   1.326
36438SOL     OW11210   0.244  13.964   0.587
36438SOL    HW111211   0.284  14.017   0.656
36438SOL    HW211212   0.218  14.027   0.520
36439SOL     OW11213   2.790   6.992  12.486
36439SOL    HW111214   2.746   7.075  12.501
36439SOL    HW211215   2.846   7.008  12.410
36440SOL     OW11216   8.182   0.205   5.393
36440SOL    HW111217   8.248   0.193   5.325
36440SOL    HW211218   8.226   0.182   5.474
36441SOL     OW11219   5.092   2.496   7.403
36441SOL    HW111220   5.160   2.438   7.437
36441SOL    HW211221   5.125   2.585   7.419
36442SOL     OW11222  11.521  13.454  11.780
36442SOL    HW111223  11.547  13.365  11.760
36442SOL    HW211224  11.546  13.466  11.872
36443SOL     OW11225  10.499   6.383  13.081
36443SOL    HW111226  10.512   6.339  13.165
36443SOL    HW211227  10.412   6.423  13.089
36444SOL     OW11228  12.617  10.105   6.298
36444SOL    HW111229  12.669  10.134   6.223
36444SOL    HW211230  12.682  10.090   6.367
36445SOL     OW11231   2.917   7.473   7.714
36445SOL    HW111232   3.004   7.478   7.754
36445SOL    HW211233   2.899   7.562   7.685
36446SOL     OW11234   5.218   1.158  14.636
36446SOL    HW111235   5.206   1.251  14.655
36446SOL    HW211236   5.268   1.156  14.555
36447SOL     OW11237   9.450   3.195   8.709
36447SOL    HW111238   9.376   3.205   8.769
36447SOL    HW211239   9.518   3.153   8.761
36448SOL     OW11240   3.189   5.944   3.715
36448SOL    HW111241   3.168   6.014   3.778
36448SOL    HW211242   3.267   5.975   3.670
36449SOL     OW11243   7.543   4.410  12.284
36449SOL    HW111244   7.537   4.404  12.189
36449SOL    HW211245   7.474   4.352  12.316
36450SOL     OW11246   2.969   5.371   9.110
36450SOL    HW111247   3.032   5.416   9.055
36450SOL    HW211248   3.011   5.288   9.132
36451SOL     OW11249   9.614  10.063   1.518
36451SOL    HW111250   9.612  10.130   1.586
36451SOL    HW211251   9.672   9.996   1.554
36452SOL     OW11252  12.675   9.169   8.944
36452SOL    HW111253  12.709   9.107   8.879
36452SOL    HW211254  12.673   9.118   9.025
36453SOL     OW11255   4.866   9.873   2.406
36453SOL    HW111256   4.893   9.894   2.316
36453SOL    HW211257   4.814   9.793   2.397
36454SOL     OW11258   2.538   5.366   8.399
36454SOL    HW111259   2.533   5.450   8.353
36454SOL    HW211260   2.593   5.383   8.475
36455SOL     OW11261  14.821  12.515   4.019
36455SOL    HW111262  14.863  12.536   4.102
36455SOL    HW211263  14.849  12.426   3.999
36456SOL     OW11264  11.843   7.094   4.973
36456SOL    HW111265  11.853   6.999   4.982
36456SOL    HW211266  11.915   7.131   5.024
36457SOL     OW11267   2.785   8.398   9.412
36457SOL    HW111268   2.788   8.312   9.453
36457SOL    HW211269   2.794   8.460   9.485
36458SOL     OW11270   1.971   7.863  11.159
36458SOL    HW111271   1.910   7.834  11.090
36458SOL    HW211272   1.972   7.790  11.222
36459SOL     OW11273   1.376   1.869   0.317
36459SOL    HW111274   1.314   1.808   0.278
36459SOL    HW211275   1.348   1.877   0.409
36460SOL     OW11276   5.670   8.864   7.336
36460SOL    HW111277   5.750   8.915   7.323
36460SOL    HW211278   5.627   8.907   7.409
36461SOL     OW11279   8.396   3.287  10.255
36461SOL    HW111280   8.421   3.232  10.181
36461SOL    HW211281   8.331   3.347  10.219
36462SOL     OW11282   6.027  14.217  13.850
36462SOL    HW111283   5.960  14.149  13.844
36462SOL    HW211284   6.012  14.273  13.774
36463SOL     OW11285  10.964  12.171   1.342
36463SOL    HW111286  10.976  12.186   1.436
36463SOL    HW211287  10.941  12.258   1.307
36464SOL     OW11288   5.469  14.395   3.262
36464SOL    HW111289   5.431  14.316   3.223
36464SOL    HW211290   5.546  14.362   3.310
36465SOL     OW11291  11.291   7.586   9.511
36465SOL    HW111292  11.341   7.631   9.579
36465SOL    HW211293  11.209   7.635   9.506
36466SOL     OW11294  12.216   1.556  11.257
36466SOL    HW111295  12.300   1.588  11.225
36466SOL    HW211296  12.217   1.575  11.351
36467SOL     OW11297  10.307  13.631  13.815
36467SOL    HW111298  10.373  13.627  13.884
36467SOL    HW211299  10.292  13.725  13.801
36468SOL     OW11300   5.893   8.874  11.249
36468SOL    HW111301   5.933   8.914  11.326
36468SOL    HW211302   5.932   8.787  11.245
36469SOL     OW11303  14.671   2.990   3.959
36469SOL    HW111304  14.593   3.041   3.982
36469SOL    HW211305  14.644   2.937   3.884
36470SOL     OW11306   2.966   6.816   0.946
36470SOL    HW111307   2.960   6.741   0.886
36470SOL    HW211308   2.912   6.883   0.905
36471SOL     OW11309   4.047   8.991   0.831
36471SOL    HW111310   4.052   8.900   0.861
36471SOL    HW211311   3.970   8.994   0.774
36472SOL     OW11312   1.683  11.053  14.624
36472SOL    HW111313   1.648  11.110  14.555
36472SOL    HW211314   1.776  11.077  14.629
36473SOL     OW11315   9.615   1.905  11.163
36473SOL    HW111316   9.635   1.816  11.191
36473SOL    HW211317   9.519   1.907  11.159
36474SOL     OW11318   3.164  11.982   0.184
36474SOL    HW111319   3.154  12.032   0.265
36474SOL    HW211320   3.094  12.015   0.127
36475SOL     OW11321  12.257   1.716   2.974
36475SOL    HW111322  12.251   1.696   3.067
36475SOL    HW211323  12.259   1.631   2.930
36476SOL     OW11324   8.162   9.169  14.543
36476SOL    HW111325   8.248   9.202  14.516
36476SOL    HW211326   8.156   9.192  14.635
36477SOL     OW11327   8.208  12.493   4.089
36477SOL    HW111328   8.113  12.487   4.079
36477SOL    HW211329   8.234  12.409   4.127
36478SOL     OW11330   1.557  13.581  10.288
36478SOL    HW111331   1.473  13.557  10.248
36478SOL    HW211332   1.606  13.621  10.216
36479SOL     OW11333  14.348   7.694  12.069
36479SOL    HW111334  14.383   7.650  11.992
36479SOL    HW211335  14.267   7.647  12.089
36480SOL     OW11336   2.753   0.107  14.139
36480SOL    HW111337   2.787   0.150  14.218
36480SOL    HW211338   2.703   0.032  14.173
36481SOL     OW11339  10.352  11.897  11.227
36481SOL    HW111340  10.289  11.916  11.157
36481SOL    HW211341  10.321  11.815  11.265
36482SOL     OW11342  13.802   1.876   8.003
36482SOL    HW111343  13.733   1.821   7.967
36482SOL    HW211344  13.824   1.937   7.932
36483SOL     OW11345   2.327  13.080   0.977
36483SOL    HW111346   2.347  13.083   0.884
36483SOL    HW211347   2.372  13.001   1.008
36484SOL     OW11348   2.586   1.681   9.101
36484SOL    HW111349   2.607   1.589   9.086
36484SOL    HW211350   2.572   1.687   9.195
36485SOL     OW11351  14.509   6.391   5.762
36485SOL    HW111352  14.561   6.337   5.821
36485SOL    HW211353  14.541   6.480   5.777
36486SOL     OW11354  11.983   3.224   8.508
36486SOL    HW111355  12.026   3.138   8.509
36486SOL    HW211356  12.050   3.284   8.542
36487SOL     OW11357   7.007   6.532   8.209
36487SOL    HW111358   7.054   6.555   8.289
36487SOL    HW211359   6.946   6.463   8.236
36488SOL     OW11360  11.062   8.408   5.415
36488SOL    HW111361  11.002   8.473   5.379
36488SOL    HW211362  11.018   8.375   5.494
36489SOL     OW11363   9.443  14.117  14.126
36489SOL    HW111364   9.536  14.097  14.110
36489SOL    HW211365   9.415  14.052  14.190
36490SOL     OW11366   2.943   3.144   5.066
36490SOL    HW111367   2.919   3.134   4.974
36490SOL    HW211368   3.025   3.193   5.065
36491SOL     OW11369   2.569  12.072   6.541
36491SOL    HW111370   2.513  12.105   6.611
36491SOL    HW211371   2.561  11.977   6.546
36492SOL     OW11372  12.824   8.300   5.861
36492SOL    HW111373  12.795   8.389   5.843
36492SOL    HW211374  12.743   8.249   5.866
36493SOL     OW11375   2.452   9.468   8.139
36493SOL    HW111376   2.396   9.539   8.171
36493SOL    HW211377   2.393   9.393   8.132
36494SOL     OW11378   1.246  11.854   2.613
36494SOL    HW111379   1.171  11.909   2.589
36494SOL    HW211380   1.290  11.904   2.682
36495SOL     OW11381   5.643   9.242   9.087
36495SOL    HW111382   5.635   9.291   9.169
36495SOL    HW211383   5.568   9.182   9.088
36496SOL     OW11384   4.836   7.351  12.791
36496SOL    HW111385   4.900   7.396  12.846
36496SOL    HW211386   4.752   7.392  12.813
36497SOL     OW11387   8.683   5.702  10.277
36497SOL    HW111388   8.654   5.750  10.355
36497SOL    HW211389   8.758   5.751  10.244
36498SOL     OW11390   8.983   9.452  11.408
36498SOL    HW111391   9.051   9.389  11.431
36498SOL    HW211392   9.029   9.535  11.398
36499SOL     OW11393  13.851  14.418  12.998
36499SOL    HW111394  13.809  14.345  12.953
36499SOL    HW211395  13.827  14.406  13.090
36500SOL     OW11396  10.546   2.917   6.756
36500SOL    HW111397  10.636   2.901   6.787
36500SOL    HW211398  10.554   2.995   6.701
36501SOL     OW11399   1.227   5.155   4.339
36501SOL    HW111400   1.144   5.177   4.297
36501SOL    HW211401   1.284   5.229   4.320
36502SOL     OW11402  10.174  11.572   1.263
36502SOL    HW111403  10.129  11.510   1.320
36502SOL    HW211404  10.112  11.590   1.193
36503SOL     OW11405   3.674   5.441  12.648
36503SOL    HW111406   3.649   5.356  12.684
36503SOL    HW211407   3.627   5.447  12.565
36504SOL     OW11408   2.802   7.183  11.233
36504SOL    HW111409   2.897   7.172  11.233
36504SOL    HW211410   2.784   7.241  11.307
36505SOL     OW11411   2.402   9.144   9.310
36505SOL    HW111412   2.494   9.121   9.321
36505SOL    HW211413   2.402   9.238   9.293
36506SOL     OW11414   2.626   2.530  12.348
36506SOL    HW111415   2.577   2.593  12.401
36506SOL    HW211416   2.564   2.458  12.333
36507SOL     OW11417  11.592  14.722   4.016
36507SOL    HW111418  11.619  14.798   3.966
36507SOL    HW211419  11.667  14.662   4.012
36508SOL     OW11420   5.293  13.931   0.163
36508SOL    HW111421   5.244  13.937   0.081
36508SOL    HW211422   5.286  13.839   0.189
36509SOL     OW11423  12.985   0.201  11.321
36509SOL    HW111424  12.942   0.281  11.350
36509SOL    HW211425  12.977   0.202  11.226
36510SOL     OW11426  14.853  14.753   1.184
36510SOL    HW111427  14.777  14.785   1.232
36510SOL    HW211428  14.867  14.817   1.115
36511SOL     OW11429   6.735   9.513   2.014
36511SOL    HW111430   6.781   9.476   1.939
36511SOL    HW211431   6.801   9.518   2.083
36512SOL     OW11432  13.444  12.527   8.167
36512SOL    HW111433  13.422  12.547   8.076
36512SOL    HW211434  13.500  12.449   8.161
36513SOL     OW11435  12.550   2.341   1.812
36513SOL    HW111436  12.624   2.362   1.754
36513SOL    HW211437  12.478   2.394   1.778
36514SOL     OW11438  12.497   4.728  14.725
36514SOL    HW111439  12.464   4.693  14.642
36514SOL    HW211440  12.589   4.702  14.727
36515SOL     OW11441   4.903   3.481   5.605
36515SOL    HW111442   4.814   3.450   5.590
36515SOL    HW211443   4.893   3.570   5.639
36516SOL     OW11444  13.783   6.006  14.161
36516SOL    HW111445  13.854   5.956  14.120
36516SOL    HW211446  13.707   5.988  14.106
36517SOL     OW11447   5.024   7.229   3.515
36517SOL    HW111448   5.082   7.172   3.464
36517SOL    HW211449   4.995   7.174   3.588
36518SOL     OW11450   9.100   1.959   8.455
36518SOL    HW111451   9.139   1.924   8.534
36518SOL    HW211452   9.119   2.053   8.459
36519SOL     OW11453   3.349  13.675  11.308
36519SOL    HW111454   3.376  13.748  11.253
36519SOL    HW211455   3.393  13.599  11.271
36520SOL     OW11456   2.175   9.861   9.358
36520SOL    HW111457   2.237   9.795   9.390
36520SOL    HW211458   2.125   9.888   9.435
36521SOL     OW11459   9.414   3.193   1.914
36521SOL    HW111460   9.369   3.257   1.969
36521SOL    HW211461   9.372   3.200   1.828
36522SOL     OW11462   8.606   9.890   2.833
36522SOL    HW111463   8.571   9.806   2.863
36522SOL    HW211464   8.640   9.931   2.913
36523SOL     OW11465   5.692   6.024   1.720
36523SOL    HW111466   5.762   6.089   1.730
36523SOL    HW211467   5.629   6.046   1.789
36524SOL     OW11468  13.192  12.084  13.140
36524SOL    HW111469  13.250  12.009  13.131
36524SOL    HW211470  13.130  12.076  13.068
36525SOL     OW11471   5.541   2.084   5.271
36525SOL    HW111472   5.490   2.116   5.197
36525SOL    HW211473   5.625   2.130   5.263
36526SOL     OW11474   2.034  13.618  11.174
36526SOL    HW111475   2.050  13.555  11.104
36526SOL    HW211476   1.981  13.686  11.133
36527SOL     OW11477   6.520  14.264   8.701
36527SOL    HW111478   6.516  14.281   8.607
36527SOL    HW211479   6.600  14.214   8.713
36528SOL     OW11480  10.332   8.650   0.863
36528SOL    HW111481  10.402   8.704   0.900
36528SOL    HW211482  10.366   8.561   0.867
36529SOL     OW11483  12.332   8.443   1.143
36529SOL    HW111484  12.265   8.485   1.197
36529SOL    HW211485  12.381   8.516   1.105
36530SOL     OW11486   7.405   4.855   6.814
36530SOL    HW111487   7.373   4.782   6.866
36530SOL    HW211488   7.369   4.840   6.726
36531SOL     OW11489   6.634   8.159  13.702
36531SOL    HW111490   6.661   8.246  13.671
36531SOL    HW211491   6.709   8.127  13.751
36532SOL     OW11492  12.347   4.589   1.733
36532SOL    HW111493  12.299   4.507   1.748
36532SOL    HW211494  12.362   4.624   1.821
36533SOL     OW11495   1.896   7.561   9.553
36533SOL    HW111496   1.837   7.623   9.596
36533SOL    HW211497   1.906   7.596   9.464
36534SOL     OW11498   3.077  12.715   9.112
36534SOL    HW111499   3.073  12.619   9.116
36534SOL    HW211500   2.993  12.741   9.074
36535SOL     OW11501   2.302  11.174   0.627
36535SOL    HW111502   2.305  11.175   0.531
36535SOL    HW211503   2.379  11.122   0.653
36536SOL     OW11504  13.885  10.161   3.616
36536SOL    HW111505  13.952  10.223   3.588
36536SOL    HW211506  13.838  10.138   3.536
36537SOL     OW11507   2.741  11.850   7.099
36537SOL    HW111508   2.800  11.881   7.168
36537SOL    HW211509   2.710  11.929   7.056
36538SOL     OW11510   2.674   6.147   1.433
36538SOL    HW111511   2.604   6.203   1.401
36538SOL    HW211512   2.754   6.195   1.414
36539SOL     OW11513   8.147  13.213  11.799
36539SOL    HW111514   8.102  13.257  11.870
36539SOL    HW211515   8.240  13.215  11.824
36540SOL     OW11516   7.313   1.690   9.419
36540SOL    HW111517   7.389   1.743   9.393
36540SOL    HW211518   7.345   1.636   9.491
36541SOL     OW11519   6.861  10.301   4.606
36541SOL    HW111520   6.804  10.376   4.617
36541SOL    HW211521   6.848  10.249   4.686
36542SOL     OW11522   2.412   5.527   6.712
36542SOL    HW111523   2.338   5.501   6.657
36542SOL    HW211524   2.443   5.609   6.674
36543SOL     OW11525   9.456  14.400   4.151
36543SOL    HW111526   9.505  14.369   4.075
36543SOL    HW211527   9.452  14.495   4.140
36544SOL     OW11528   3.290  10.756   9.642
36544SOL    HW111529   3.345  10.680   9.664
36544SOL    HW211530   3.351  10.830   9.641
36545SOL     OW11531  14.762   3.665  14.349
36545SOL    HW111532  14.739   3.575  14.372
36545SOL    HW211533  14.710   3.685  14.272
36546SOL     OW11534   4.925  12.637   5.768
36546SOL    HW111535   4.931  12.563   5.708
36546SOL    HW211536   4.857  12.693   5.731
36547SOL     OW11537  10.090   4.495   1.741
36547SOL    HW111538  10.183   4.476   1.731
36547SOL    HW211539  10.061   4.521   1.653
36548SOL     OW11540  14.757   4.464   8.942
36548SOL    HW111541  14.793   4.397   9.001
36548SOL    HW211542  14.825   4.531   8.937
36549SOL     OW11543   6.412   4.549  13.086
36549SOL    HW111544   6.356   4.531  13.162
36549SOL    HW211545   6.406   4.643  13.073
36550SOL     OW11546   5.245  10.590   1.842
36550SOL    HW111547   5.313  10.530   1.811
36550SOL    HW211548   5.178  10.532   1.878
36551SOL     OW11549  14.086   6.069   5.338
36551SOL    HW111550  13.998   6.100   5.357
36551SOL    HW211551  14.142   6.118   5.398
36552SOL     OW11552  12.583   0.848  12.575
36552SOL    HW111553  12.582   0.877  12.666
36552SOL    HW211554  12.498   0.876  12.540
36553SOL     OW11555   1.915   9.339   9.237
36553SOL    HW111556   1.908   9.279   9.312
36553SOL    HW211557   1.937   9.424   9.275
36554SOL     OW11558   5.866   1.605   8.944
36554SOL    HW111559   5.806   1.679   8.934
36554SOL    HW211560   5.865   1.562   8.858
36555SOL     OW11561   4.727   2.240   7.684
36555SOL    HW111562   4.723   2.279   7.772
36555SOL    HW211563   4.759   2.310   7.628
36556SOL     OW11564   2.046   9.531  12.176
36556SOL    HW111565   2.069   9.606  12.121
36556SOL    HW211566   1.959   9.504  12.146
36557SOL     OW11567   4.683   4.001   0.235
36557SOL    HW111568   4.648   3.989   0.323
36557SOL    HW211569   4.760   3.944   0.232
36558SOL     OW11570  10.533   2.248   0.642
36558SOL    HW111571  10.564   2.166   0.602
36558SOL    HW211572  10.519   2.225   0.735
36559SOL     OW11573   0.898   9.369  10.614
36559SOL    HW111574   0.837   9.435  10.580
36559SOL    HW211575   0.876   9.362  10.706
36560SOL     OW11576   1.928   8.065   6.699
36560SOL    HW111577   1.966   8.040   6.615
36560SOL    HW211578   1.856   8.124   6.676
36561SOL     OW11579  11.386   1.732   1.810
36561SOL    HW111580  11.305   1.692   1.778
36561SOL    HW211581  11.406   1.682   1.890
36562SOL     OW11582   8.653   5.992  10.933
36562SOL    HW111583   8.577   6.043  10.904
36562SOL    HW211584   8.618   5.909  10.962
36563SOL     OW11585   5.764   1.447   0.403
36563SOL    HW111586   5.710   1.378   0.365
36563SOL    HW211587   5.736   1.527   0.358
36564SOL     OW11588   9.268   4.389   8.575
36564SOL    HW111589   9.363   4.386   8.583
36564SOL    HW211590   9.250   4.341   8.494
36565SOL     OW11591   0.195  10.556   3.005
36565SOL    HW111592   0.198  10.463   3.026
36565SOL    HW211593   0.178  10.559   2.911
36566SOL     OW11594  11.274  12.158  12.033
36566SOL    HW111595  11.291  12.090  12.097
36566SOL    HW211596  11.200  12.208  12.070
36567SOL     OW11597   7.678   1.537   4.939
36567SOL    HW111598   7.703   1.596   5.011
36567SOL    HW211599   7.757   1.531   4.885
36568SOL     OW11600   0.765   3.860  14.594
36568SOL    HW111601   0.788   3.952  14.581
36568SOL    HW211602   0.718   3.836  14.514
36569SOL     OW11603   2.166   2.001   4.531
36569SOL    HW111604   2.177   2.022   4.438
36569SOL    HW211605   2.086   1.949   4.534
36570SOL     OW11606   1.324   2.424   7.712
36570SOL    HW111607   1.333   2.328   7.712
36570SOL    HW211608   1.373   2.453   7.789
36571SOL     OW11609  13.510   0.935  11.935
36571SOL    HW111610  13.566   0.910  11.861
36571SOL    HW211611  13.571   0.950  12.007
36572SOL     OW11612   9.246  11.030   5.021
36572SOL    HW111613   9.324  10.980   4.998
36572SOL    HW211614   9.280  11.108   5.065
36573SOL     OW11615   7.091   0.416   5.728
36573SOL    HW111616   7.018   0.471   5.700
36573SOL    HW211617   7.168   0.458   5.692
36574SOL     OW11618  10.349   9.228   3.590
36574SOL    HW111619  10.401   9.217   3.670
36574SOL    HW211620  10.330   9.139   3.562
36575SOL     OW11621  13.325   1.268   3.790
36575SOL    HW111622  13.375   1.200   3.745
36575SOL    HW211623  13.248   1.281   3.734
36576SOL     OW11624   4.291   6.805   4.457
36576SOL    HW111625   4.385   6.796   4.437
36576SOL    HW211626   4.275   6.740   4.526
36577SOL     OW11627   1.476  11.813   0.601
36577SOL    HW111628   1.445  11.766   0.524
36577SOL    HW211629   1.414  11.789   0.670
36578SOL     OW11630   6.154  14.128  10.227
36578SOL    HW111631   6.061  14.112  10.239
36578SOL    HW211632   6.185  14.052  10.178
36579SOL     OW11633   1.939   2.561  14.021
36579SOL    HW111634   1.871   2.549  13.956
36579SOL    HW211635   1.957   2.474  14.056
36580SOL     OW11636   8.223   3.045   2.552
36580SOL    HW111637   8.292   3.060   2.487
36580SOL    HW211638   8.145   3.025   2.501
36581SOL     OW11639   2.909   3.084  10.013
36581SOL    HW111640   2.842   3.109   9.950
36581SOL    HW211641   2.907   3.154  10.079
36582SOL     OW11642   6.020   4.905  10.985
36582SOL    HW111643   6.094   4.888  10.926
36582SOL    HW211644   5.990   4.992  10.961
36583SOL     OW11645  14.608   4.163   1.813
36583SOL    HW111646  14.517   4.138   1.800
36583SOL    HW211647  14.615   4.250   1.773
36584SOL     OW11648   2.377  13.705  10.332
36584SOL    HW111649   2.409  13.749  10.253
36584SOL    HW211650   2.449  13.647  10.357
36585SOL     OW11651   8.783   8.312   2.435
36585SOL    HW111652   8.825   8.264   2.506
36585SOL    HW211653   8.855   8.336   2.377
36586SOL     OW11654   5.388   9.386   8.656
36586SOL    HW111655   5.307   9.345   8.626
36586SOL    HW211656   5.421   9.328   8.724
36587SOL     OW11657   1.005  14.665   1.334
36587SOL    HW111658   1.084  14.650   1.282
36587SOL    HW211659   0.953  14.725   1.282
36588SOL     OW11660   9.579   4.474   3.250
36588SOL    HW111661   9.497   4.520   3.235
36588SOL    HW211662   9.646   4.531   3.211
36589SOL     OW11663  13.260   6.311   0.370
36589SOL    HW111664  13.218   6.378   0.424
36589SOL    HW211665  13.352   6.314   0.395
36590SOL     OW11666   9.320   4.157  11.171
36590SOL    HW111667   9.408   4.195  11.177
36590SOL    HW211668   9.310   4.107  11.252
36591SOL     OW11669   7.978   8.524  10.757
36591SOL    HW111670   7.968   8.431  10.776
36591SOL    HW211671   8.020   8.526  10.671
36592SOL     OW11672  11.219   3.647   0.166
36592SOL    HW111673  11.171   3.710   0.111
36592SOL    HW211674  11.180   3.562   0.145
36593SOL     OW11675   9.024   3.453  10.855
36593SOL    HW111676   9.000   3.528  10.909
36593SOL    HW211677   9.119   3.447  10.863
36594SOL     OW11678   2.669   6.743  12.522
36594SOL    HW111679   2.719   6.825  12.523
36594SOL    HW211680   2.642   6.733  12.431
36595SOL     OW11681   0.218   7.520   2.149
36595SOL    HW111682   0.262   7.538   2.232
36595SOL    HW211683   0.125   7.531   2.168
36596SOL     OW11684   8.385   9.524   4.416
36596SOL    HW111685   8.342   9.542   4.500
36596SOL    HW211686   8.338   9.580   4.354
36597SOL     OW11687   5.797   6.417   4.942
36597SOL    HW111688   5.819   6.326   4.925
36597SOL    HW211689   5.839   6.466   4.871
36598SOL     OW11690   1.772   2.596  10.486
36598SOL    HW111691   1.696   2.654  10.480
36598SOL    HW211692   1.761   2.535  10.413
36599SOL     OW11693   9.631   9.134   0.314
36599SOL    HW111694   9.550   9.121   0.264
36599SOL    HW211695   9.614   9.089   0.397
36600SOL     OW11696   0.780   0.877  10.428
36600SOL    HW111697   0.804   0.908  10.516
36600SOL    HW211698   0.788   0.782  10.433
36601SOL     OW11699  10.291  13.666   5.038
36601SOL    HW111700  10.357  13.696   5.101
36601SOL    HW211701  10.334  13.672   4.953
36602SOL     OW11702  12.349  12.533   7.611
36602SOL    HW111703  12.438  12.498   7.605
36602SOL    HW211704  12.309  12.514   7.527
36603SOL     OW11705   9.178   9.200  13.839
36603SOL    HW111706   9.266   9.229  13.813
36603SOL    HW211707   9.122   9.227  13.766
36604SOL     OW11708   3.496  13.214  11.394
36604SOL    HW111709   3.509  13.293  11.342
36604SOL    HW211710   3.407  13.186  11.372
36605SOL     OW11711  10.192  14.066  13.381
36605SOL    HW111712  10.129  14.125  13.423
36605SOL    HW211713  10.205  13.996  13.445
36606SOL     OW11714  12.493  14.692  13.648
36606SOL    HW111715  12.535  14.610  13.672
36606SOL    HW211716  12.426  14.668  13.584
36607SOL     OW11717   4.578  10.758  11.602
36607SOL    HW111718   4.632  10.686  11.570
36607SOL    HW211719   4.498  10.754  11.549
36608SOL     OW11720   9.844   0.560   7.471
36608SOL    HW111721   9.826   0.487   7.530
36608SOL    HW211722   9.806   0.533   7.387
36609SOL     OW11723  13.252  13.871   4.953
36609SOL    HW111724  13.198  13.950   4.948
36609SOL    HW211725  13.319  13.893   5.019
36610SOL     OW11726  14.743  10.399   8.021
36610SOL    HW111727  14.701  10.325   8.064
36610SOL    HW211728  14.750  10.374   7.929
36611SOL     OW11729   4.699   4.872   8.611
36611SOL    HW111730   4.696   4.957   8.655
36611SOL    HW211731   4.779   4.831   8.644
36612SOL     OW11732   8.079  13.256   7.049
36612SOL    HW111733   8.089  13.339   7.095
36612SOL    HW211734   8.166  13.216   7.050
36613SOL     OW11735   2.300  10.535   5.057
36613SOL    HW111736   2.288  10.514   5.150
36613SOL    HW211737   2.394  10.523   5.041
36614SOL     OW11738  14.499  11.289  14.781
36614SOL    HW111739  14.520  11.197  14.797
36614SOL    HW211740  14.568  11.320  14.721
36615SOL     OW11741   9.685   9.072  13.019
36615SOL    HW111742   9.689   9.163  12.990
36615SOL    HW211743   9.618   9.072  13.088
36616SOL     OW11744   7.031   6.224   6.941
36616SOL    HW111745   7.009   6.317   6.930
36616SOL    HW211746   7.019   6.207   7.034
36617SOL     OW11747   6.849   9.740   1.721
36617SOL    HW111748   6.942   9.722   1.732
36617SOL    HW211749   6.845   9.828   1.684
36618SOL     OW11750  14.489   6.946   6.929
36618SOL    HW111751  14.485   6.943   6.833
36618SOL    HW211752  14.505   6.855   6.955
36619SOL     OW11753   9.521  13.949   1.192
36619SOL    HW111754   9.486  13.914   1.274
36619SOL    HW211755   9.558  13.873   1.147
36620SOL     OW11756   4.696   2.493  11.985
36620SOL    HW111757   4.759   2.439  11.937
36620SOL    HW211758   4.620   2.436  11.996
36621SOL     OW11759   8.266  11.131  10.776
36621SOL    HW111760   8.312  11.203  10.819
36621SOL    HW211761   8.178  11.164  10.762
36622SOL     OW11762  14.501   2.750  12.883
36622SOL    HW111763  14.539   2.757  12.796
36622SOL    HW211764  14.408   2.771  12.870
36623SOL     OW11765   6.848   2.101   3.897
36623SOL    HW111766   6.917   2.101   3.963
36623SOL    HW211767   6.857   2.017   3.853
36624SOL     OW11768   6.508   3.590   9.377
36624SOL    HW111769   6.554   3.667   9.412
36624SOL    HW211770   6.430   3.626   9.334
36625SOL     OW11771   7.558  11.157   7.112
36625SOL    HW111772   7.582  11.089   7.175
36625SOL    HW211773   7.641  11.181   7.070
36626SOL     OW11774   3.455  10.397   4.688
36626SOL    HW111775   3.454  10.305   4.663
36626SOL    HW211776   3.465  10.445   4.606
36627SOL     OW11777   6.850   5.909   8.473
36627SOL    HW111778   6.938   5.923   8.440
36627SOL    HW211779   6.811   5.844   8.414
36628SOL     OW11780   7.187   6.379  12.973
36628SOL    HW111781   7.166   6.448  13.036
36628SOL    HW211782   7.117   6.386  12.907
36629SOL     OW11783   3.745  14.480   4.769
36629SOL    HW111784   3.780  14.407   4.717
36629SOL    HW211785   3.682  14.439   4.828
36630SOL     OW11786   1.283  12.393   7.283
36630SOL    HW111787   1.207  12.442   7.315
36630SOL    HW211788   1.301  12.329   7.352
36631SOL     OW11789  14.213   5.100   0.655
36631SOL    HW111790  14.123   5.076   0.631
36631SOL    HW211791  14.260   5.017   0.656
36632SOL     OW11792   5.564   4.535   2.892
36632SOL    HW111793   5.538   4.508   2.980
36632SOL    HW211794   5.492   4.508   2.836
36633SOL     OW11795   1.386   8.392  12.985
36633SOL    HW111796   1.397   8.313  13.037
36633SOL    HW211797   1.292   8.410  12.989
36634SOL     OW11798   9.279  14.621   0.283
36634SOL    HW111799   9.298  14.565   0.358
36634SOL    HW211800   9.339  14.591   0.215
36635SOL     OW11801   5.846   7.247   8.233
36635SOL    HW111802   5.882   7.228   8.320
36635SOL    HW211803   5.794   7.326   8.246
36636SOL     OW11804  14.350   4.119  14.343
36636SOL    HW111805  14.304   4.036  14.328
36636SOL    HW211806  14.322   4.176  14.272
36637SOL     OW11807   8.000   8.900  14.444
36637SOL    HW111808   8.028   8.989  14.462
36637SOL    HW211809   8.067   8.865  14.385
36638SOL     OW11810   9.073  11.985   2.324
36638SOL    HW111811   9.147  12.047   2.327
36638SOL    HW211812   8.998  12.040   2.300
36639SOL     OW11813   5.717  11.908  10.955
36639SOL    HW111814   5.696  12.001  10.948
36639SOL    HW211815   5.782  11.892  10.887
36640SOL     OW11816   0.223  13.898  13.008
36640SOL    HW111817   0.214  13.825  13.069
36640SOL    HW211818   0.178  13.971  13.052
36641SOL     OW11819  11.933  12.409   8.551
36641SOL    HW111820  11.875  12.359   8.493
36641SOL    HW211821  11.899  12.392   8.639
36642SOL     OW11822   2.612   2.915  13.812
36642SOL    HW111823   2.641   2.960  13.892
36642SOL    HW211824   2.536   2.864  13.839
36643SOL     OW11825   3.183   1.108  10.784
36643SOL    HW111826   3.123   1.182  10.791
36643SOL    HW211827   3.151   1.059  10.708
36644SOL     OW11828   7.976   9.841   8.090
36644SOL    HW111829   7.968   9.747   8.108
36644SOL    HW211830   8.061   9.850   8.047
36645SOL     OW11831   0.987   1.532  14.015
36645SOL    HW111832   0.975   1.442  13.987
36645SOL    HW211833   0.914   1.580  13.977
36646SOL     OW11834   1.647  14.541   5.739
36646SOL    HW111835   1.585  14.578   5.676
36646SOL    HW211836   1.706  14.488   5.686
36647SOL     OW11837  11.258  14.622   4.020
36647SOL    HW111838  11.176  14.668   4.033
36647SOL    HW211839  11.325  14.680   4.056
36648SOL     OW11840   2.099   1.848  12.972
36648SOL    HW111841   2.111   1.869  12.880
36648SOL    HW211842   2.139   1.922  13.019
36649SOL     OW11843   4.998   0.641   1.589
36649SOL    HW111844   5.063   0.677   1.650
36649SOL    HW211845   5.042   0.568   1.547
36650SOL     OW11846   6.624   0.041   6.469
36650SOL    HW111847   6.614   0.123   6.518
36650SOL    HW211848   6.639   0.069   6.379
36651SOL     OW11849  10.063   3.465   5.735
36651SOL    HW111850  10.149   3.482   5.696
36651SOL    HW211851  10.057   3.370   5.739
36652SOL     OW11852   1.054  14.755  12.205
36652SOL    HW111853   1.072  14.847  12.182
36652SOL    HW211854   0.960  14.746  12.195
36653SOL     OW11855  12.801  13.675  14.559
36653SOL    HW111856  12.887  13.647  14.529
36653SOL    HW211857  12.793  13.766  14.531
36654SOL     OW11858   7.048   0.244  13.273
36654SOL    HW111859   7.074   0.315  13.213
36654SOL    HW211860   6.953   0.239  13.263
36655SOL     OW11861  12.807   1.494  14.735
36655SOL    HW111862  12.778   1.445  14.659
36655SOL    HW211863  12.733   1.493  14.795
36656SOL     OW11864   0.573   4.119   4.759
36656SOL    HW111865   0.590   4.026   4.746
36656SOL    HW211866   0.521   4.144   4.682
36657SOL     OW11867   8.883   9.483   6.054
36657SOL    HW111868   8.934   9.562   6.073
36657SOL    HW211869   8.948   9.416   6.036
36658SOL     OW11870  13.986   2.119   1.817
36658SOL    HW111871  14.056   2.146   1.877
36658SOL    HW211872  14.031   2.092   1.738
36659SOL     OW11873  14.381   4.178   1.089
36659SOL    HW111874  14.389   4.083   1.099
36659SOL    HW211875  14.351   4.190   0.998
36660SOL     OW11876   8.404   8.467   7.223
36660SOL    HW111877   8.405   8.477   7.127
36660SOL    HW211878   8.483   8.417   7.242
36661SOL     OW11879   9.110   6.489   1.909
36661SOL    HW111880   9.188   6.507   1.856
36661SOL    HW211881   9.118   6.396   1.933
36662SOL     OW11882  13.001  11.635  10.142
36662SOL    HW111883  13.058  11.650  10.066
36662SOL    HW211884  13.043  11.686  10.212
36663SOL     OW11885  13.755   3.955   1.409
36663SOL    HW111886  13.783   4.030   1.358
36663SOL    HW211887  13.836   3.918   1.444
36664SOL     OW11888   1.838   4.552   6.688
36664SOL    HW111889   1.803   4.474   6.731
36664SOL    HW211890   1.804   4.625   6.739
36665SOL     OW11891  14.036   6.222   2.355
36665SOL    HW111892  14.122   6.209   2.395
36665SOL    HW211893  13.996   6.135   2.357
36666SOL     OW11894  10.620  13.015   5.484
36666SOL    HW111895  10.608  13.106   5.510
36666SOL    HW211896  10.545  12.969   5.521
36667SOL     OW11897   4.311  13.947   7.284
36667SOL    HW111898   4.365  13.897   7.223
36667SOL    HW211899   4.235  13.891   7.300
36668SOL     OW11900  13.973   9.949   4.473
36668SOL    HW111901  13.956   9.945   4.567
36668SOL    HW211902  14.010   9.863   4.451
36669SOL     OW11903   5.903  12.043   9.984
36669SOL    HW111904   5.834  11.987   9.948
36669SOL    HW211905   5.984  11.995   9.967
36670SOL     OW11906   1.039   4.379   2.662
36670SOL    HW111907   1.032   4.369   2.568
36670SOL    HW211908   1.134   4.381   2.679
36671SOL     OW11909   8.638   5.043  13.519
36671SOL    HW111910   8.691   5.063  13.597
36671SOL    HW211911   8.620   4.949  13.526
36672SOL     OW11912   7.557  14.404   8.353
36672SOL    HW111913   7.474  14.447   8.334
36672SOL    HW211914   7.553  14.384   8.447
36673SOL     OW11915   6.910   5.524  13.257
36673SOL    HW111916   7.001   5.538  13.281
36673SOL    HW211917   6.866   5.606  13.279
36674SOL     OW11918   8.330  11.355  13.041
36674SOL    HW111919   8.412  11.387  13.078
36674SOL    HW211920   8.296  11.295  13.107
36675SOL     OW11921   1.079   4.949  13.065
36675SOL    HW111922   1.006   4.905  13.022
36675SOL    HW211923   1.096   5.026  13.011
36676SOL     OW11924   6.967  11.836   3.887
36676SOL    HW111925   6.923  11.915   3.856
36676SOL    HW211926   6.952  11.771   3.819
36677SOL     OW11927   4.950  14.857   3.110
36677SOL    HW111928   5.033  14.854   3.063
36677SOL    HW211929   4.961   0.048   3.173
36678SOL     OW11930  11.327   4.317   6.345
36678SOL    HW111931  11.288   4.400   6.318
36678SOL    HW211932  11.273   4.288   6.419
36679SOL     OW11933   3.284   1.357   2.828
36679SOL    HW111934   3.363   1.329   2.874
36679SOL    HW211935   3.258   1.438   2.872
36680SOL     OW11936  10.484   0.159  14.055
36680SOL    HW111937  10.487   0.216  14.132
36680SOL    HW211938  10.412   0.193  14.002
36681SOL     OW11939  12.858   5.106  10.424
36681SOL    HW111940  12.924   5.135  10.362
36681SOL    HW211941  12.775   5.135  10.386
36682SOL     OW11942  13.346   1.619   2.642
36682SOL    HW111943  13.441   1.630   2.650
36682SOL    HW211944  13.309   1.702   2.672
36683SOL     OW11945   8.968  11.861  11.392
36683SOL    HW111946   8.889  11.811  11.371
36683SOL    HW211947   9.023  11.854  11.314
36684SOL     OW11948   5.046  13.758  10.668
36684SOL    HW111949   5.138  13.739  10.683
36684SOL    HW211950   5.023  13.821  10.737
36685SOL     OW11951  12.553  14.263  13.364
36685SOL    HW111952  12.618  14.283  13.432
36685SOL    HW211953  12.606  14.237  13.288
36686SOL     OW11954   3.729   8.333  14.566
36686SOL    HW111955   3.670   8.285  14.624
36686SOL    HW211956   3.706   8.304  14.478
36687SOL     OW11957   6.462  14.668  14.694
36687SOL    HW111958   6.447  14.580  14.727
36687SOL    HW211959   6.418  14.725  14.757
36688SOL     OW11960   6.967   9.993  13.615
36688SOL    HW111961   7.029   9.934  13.574
36688SOL    HW211962   7.003  10.081  13.599
36689SOL     OW11963  10.200   5.237   5.302
36689SOL    HW111964  10.182   5.310   5.361
36689SOL    HW211965  10.116   5.219   5.259
36690SOL     OW11966   8.396  10.242   9.938
36690SOL    HW111967   8.353  10.213  10.019
36690SOL    HW211968   8.413  10.335   9.952
36691SOL     OW11969   3.638   1.575   6.579
36691SOL    HW111970   3.628   1.539   6.491
36691SOL    HW211971   3.730   1.602   6.584
36692SOL     OW11972   2.331   8.137  11.721
36692SOL    HW111973   2.392   8.158  11.792
36692SOL    HW211974   2.347   8.045  11.702
36693SOL     OW11975   3.093  13.278   2.113
36693SOL    HW111976   3.116  13.348   2.052
36693SOL    HW211977   3.000  13.261   2.096
36694SOL     OW11978   3.235   8.532   0.477
36694SOL    HW111979   3.270   8.567   0.395
36694SOL    HW211980   3.264   8.593   0.544
36695SOL     OW11981   9.575   4.712  14.786
36695SOL    HW111982   9.552   4.701  14.878
36695SOL    HW211983   9.496   4.688  14.739
36696SOL     OW11984   4.608   0.160   5.267
36696SOL    HW111985   4.690   0.109   5.275
36696SOL    HW211986   4.585   0.153   5.175
36697SOL     OW11987  14.606   9.851   4.776
36697SOL    HW111988  14.549   9.849   4.852
36697SOL    HW211989  14.551   9.888   4.706
36698SOL     OW11990  13.366  12.477   1.449
36698SOL    HW111991  13.411  12.531   1.384
36698SOL    HW211992  13.436  12.437   1.500
36699SOL     OW11993   0.990   5.466   8.317
36699SOL    HW111994   1.072   5.441   8.361
36699SOL    HW211995   0.935   5.501   8.386
36700SOL     OW11996  12.268   4.388   2.472
36700SOL    HW111997  12.341   4.403   2.412
36700SOL    HW211998  12.308   4.349   2.550
36701SOL     OW11999   8.673  11.068  10.080
36701SOL    HW112000   8.768  11.066  10.090
36701SOL    HW212001   8.640  11.092  10.167
36702SOL     OW12002   4.813   3.520   8.641
36702SOL    HW112003   4.755   3.448   8.618
36702SOL    HW212004   4.756   3.597   8.642
36703SOL     OW12005   9.454   0.087   9.939
36703SOL    HW112006   9.414   0.144   9.873
36703SOL    HW212007   9.546   0.082   9.913
36704SOL     OW12008   5.444  13.621   8.318
36704SOL    HW112009   5.364  13.648   8.272
36704SOL    HW212010   5.513  13.630   8.252
36705SOL     OW12011   5.902  13.903  14.379
36705SOL    HW112012   5.902  13.810  14.399
36705SOL    HW212013   5.844  13.942  14.444
36706SOL     OW12014   1.328  12.917   1.423
36706SOL    HW112015   1.240  12.954   1.437
36706SOL    HW212016   1.381  12.956   1.492
36707SOL     OW12017   9.305   3.311   2.523
36707SOL    HW112018   9.284   3.224   2.558
36707SOL    HW212019   9.221   3.357   2.523
36708SOL     OW12020  14.019   3.231   4.240
36708SOL    HW112021  14.040   3.194   4.326
36708SOL    HW212022  14.093   3.206   4.185
36709SOL     OW12023  12.173  11.062   0.572
36709SOL    HW112024  12.229  11.012   0.512
36709SOL    HW212025  12.184  11.018   0.657
36710SOL     OW12026  12.550   3.835  13.844
36710SOL    HW112027  12.567   3.883  13.925
36710SOL    HW212028  12.544   3.743  13.872
36711SOL     OW12029  10.341   2.453   9.966
36711SOL    HW112030  10.297   2.389  10.023
36711SOL    HW212031  10.270   2.508   9.933
36712SOL     OW12032   3.928   5.362  12.675
36712SOL    HW112033   3.982   5.360  12.597
36712SOL    HW212034   3.843   5.395  12.645
36713SOL     OW12035   4.689   5.789   0.671
36713SOL    HW112036   4.661   5.859   0.612
36713SOL    HW212037   4.668   5.708   0.623
36714SOL     OW12038   6.552   5.528   3.600
36714SOL    HW112039   6.470   5.507   3.555
36714SOL    HW212040   6.618   5.474   3.556
36715SOL     OW12041  10.897  13.970  14.715
36715SOL    HW112042  10.962  13.987  14.783
36715SOL    HW212043  10.843  13.899  14.750
36716SOL     OW12044   2.927  14.428  10.252
36716SOL    HW112045   2.871  14.504  10.234
36716SOL    HW212046   3.014  14.455  10.223
36717SOL     OW12047   8.789   4.193   6.349
36717SOL    HW112048   8.706   4.149   6.365
36717SOL    HW212049   8.793   4.262   6.414
36718SOL     OW12050  12.709  12.485  13.268
36718SOL    HW112051  12.749  12.571  13.256
36718SOL    HW212052  12.657  12.472  13.188
36719SOL     OW12053  14.349   5.052   8.723
36719SOL    HW112054  14.434   5.022   8.755
36719SOL    HW212055  14.350   5.029   8.630
36720SOL     OW12056   4.398   7.588  12.749
36720SOL    HW112057   4.390   7.683  12.739
36720SOL    HW212058   4.321   7.553  12.705
36721SOL     OW12059   5.144  14.210   9.654
36721SOL    HW112060   5.203  14.231   9.582
36721SOL    HW212061   5.063  14.181   9.612
36722SOL     OW12062  13.581  10.206   7.236
36722SOL    HW112063  13.631  10.139   7.282
36722SOL    HW212064  13.613  10.204   7.146
36723SOL     OW12065   0.710   9.408   4.103
36723SOL    HW112066   0.745   9.480   4.051
36723SOL    HW212067   0.676   9.346   4.038
36724SOL     OW12068   6.360  14.582   2.380
36724SOL    HW112069   6.278  14.540   2.405
36724SOL    HW212070   6.334  14.658   2.328
36725SOL     OW12071   4.752  10.296  11.047
36725SOL    HW112072   4.705  10.375  11.023
36725SOL    HW212073   4.842  10.312  11.018
36726SOL     OW12074   6.011  13.162   2.279
36726SOL    HW112075   5.939  13.171   2.216
36726SOL    HW212076   6.085  13.207   2.238
36727SOL     OW12077   6.570  13.764   3.151
36727SOL    HW112078   6.635  13.706   3.190
36727SOL    HW212079   6.530  13.809   3.226
36728SOL     OW12080  13.895   0.512   0.597
36728SOL    HW112081  13.824   0.571   0.571
36728SOL    HW212082  13.973   0.551   0.559
36729SOL     OW12083   1.765   8.338   9.611
36729SOL    HW112084   1.671   8.336   9.630
36729SOL    HW212085   1.795   8.420   9.650
36730SOL     OW12086   1.749   5.719  12.945
36730SOL    HW112087   1.690   5.755  12.878
36730SOL    HW212088   1.814   5.788  12.960
36731SOL     OW12089  11.117   7.647  11.458
36731SOL    HW112090  11.115   7.635  11.553
36731SOL    HW212091  11.031   7.618  11.428
36732SOL     OW12092  10.788   3.787  12.254
36732SOL    HW112093  10.845   3.797  12.331
36732SOL    HW212094  10.848   3.783  12.180
36733SOL     OW12095  12.633  14.462  12.526
36733SOL    HW112096  12.662  14.380  12.485
36733SOL    HW212097  12.556  14.436  12.576
36734SOL     OW12098  12.064   0.967   0.772
36734SOL    HW112099  12.114   0.885   0.761
36734SOL    HW212100  11.985   0.953   0.720
36735SOL     OW12101  12.016   6.685   9.421
36735SOL    HW112102  12.014   6.599   9.462
36735SOL    HW212103  12.101   6.721   9.445
36736SOL     OW12104   4.766   7.016   9.616
36736SOL    HW112105   4.686   7.037   9.568
36736SOL    HW212106   4.835   7.060   9.567
36737SOL     OW12107  10.161  10.060  12.953
36737SOL    HW112108  10.155  10.043  13.047
36737SOL    HW212109  10.255  10.061  12.935
36738SOL     OW12110  13.317   6.837   8.808
36738SOL    HW112111  13.372   6.896   8.858
36738SOL    HW212112  13.365   6.754   8.805
36739SOL     OW12113   2.382   8.694  13.020
36739SOL    HW112114   2.474   8.674  13.038
36739SOL    HW212115   2.335   8.616  13.050
36740SOL     OW12116   3.296  11.417  11.463
36740SOL    HW112117   3.318  11.330  11.431
36740SOL    HW212118   3.236  11.402  11.536
36741SOL     OW12119   7.645  11.343   3.081
36741SOL    HW112120   7.610  11.268   3.128
36741SOL    HW212121   7.669  11.406   3.149
36742SOL     OW12122  13.306  13.878   7.676
36742SOL    HW112123  13.371  13.820   7.716
36742SOL    HW212124  13.268  13.925   7.750
36743SOL     OW12125   5.654  12.640  14.103
36743SOL    HW112126   5.686  12.569  14.047
36743SOL    HW212127   5.686  12.617  14.190
36744SOL     OW12128   0.166   0.748   3.895
36744SOL    HW112129   0.108   0.821   3.915
36744SOL    HW212130   0.218   0.736   3.975
36745SOL     OW12131   6.256   9.934   8.630
36745SOL    HW112132   6.179   9.970   8.586
36745SOL    HW212133   6.253   9.841   8.611
36746SOL     OW12134  14.555  11.015  14.858
36746SOL    HW112135  14.507  10.950   0.030
36746SOL    HW212136  14.647  10.995  14.875
36747SOL     OW12137  10.714   9.763  12.692
36747SOL    HW112138  10.749   9.679  12.660
36747SOL    HW212139  10.789   9.822  12.691
36748SOL     OW12140   6.720  11.915   7.282
36748SOL    HW112141   6.737  11.955   7.367
36748SOL    HW212142   6.648  11.854   7.298
36749SOL     OW12143   5.903  12.217  13.836
36749SOL    HW112144   5.912  12.230  13.931
36749SOL    HW212145   5.881  12.125  13.826
36750SOL     OW12146   6.374   1.949   8.905
36750SOL    HW112147   6.422   1.878   8.947
36750SOL    HW212148   6.407   1.951   8.815
36751SOL     OW12149  14.231   5.938   0.051
36751SOL    HW112150  14.144   5.898   0.051
36751SOL    HW212151  14.271   5.908  14.850
36752SOL     OW12152  14.349   4.488   2.629
36752SOL    HW112153  14.299   4.408   2.650
36752SOL    HW212154  14.318   4.553   2.691
36753SOL     OW12155   9.044   5.027   6.156
36753SOL    HW112156   9.095   4.962   6.107
36753SOL    HW212157   8.962   4.982   6.177
36754SOL     OW12158   6.403   7.253   1.300
36754SOL    HW112159   6.434   7.165   1.323
36754SOL    HW212160   6.456   7.277   1.225
36755SOL     OW12161  12.022   8.066   2.770
36755SOL    HW112162  11.952   8.001   2.771
36755SOL    HW212163  12.088   8.030   2.830
36756SOL     OW12164  10.099  11.945  11.062
36756SOL    HW112165  10.038  11.972  10.993
36756SOL    HW212166  10.078  12.003  11.136
36757SOL     OW12167   2.068  13.956  11.289
36757SOL    HW112168   2.044  13.943  11.381
36757SOL    HW212169   2.139  13.893  11.273
36758SOL     OW12170  10.228  13.781  14.136
36758SOL    HW112171  10.254  13.696  14.171
36758SOL    HW212172  10.294  13.842  14.169
36759SOL     OW12173   3.708   3.237   3.310
36759SOL    HW112174   3.692   3.251   3.216
36759SOL    HW212175   3.629   3.191   3.340
36760SOL     OW12176   8.845  11.513   2.555
36760SOL    HW112177   8.805  11.429   2.531
36760SOL    HW212178   8.772  11.566   2.585
36761SOL     OW12179   7.666  13.929  12.661
36761SOL    HW112180   7.580  13.970  12.670
36761SOL    HW212181   7.726  13.992  12.702
36762SOL     OW12182   2.405  13.509  14.624
36762SOL    HW112183   2.324  13.471  14.591
36762SOL    HW212184   2.417  13.588  14.572
36763SOL     OW12185  11.863   1.225   5.026
36763SOL    HW112186  11.844   1.147   4.974
36763SOL    HW212187  11.861   1.195   5.117
36764SOL     OW12188   3.599   9.028   4.400
36764SOL    HW112189   3.537   8.989   4.337
36764SOL    HW212190   3.548   9.093   4.447
36765SOL     OW12191   4.947   2.623   7.641
36765SOL    HW112192   5.022   2.575   7.607
36765SOL    HW212193   4.888   2.554   7.674
36766SOL     OW12194  10.775   4.000   4.950
36766SOL    HW112195  10.855   4.046   4.927
36766SOL    HW212196  10.772   3.925   4.890
36767SOL     OW12197   8.170   6.909  12.836
36767SOL    HW112198   8.236   6.886  12.771
36767SOL    HW212199   8.218   6.951  12.907
36768SOL     OW12200   2.171   2.653   5.885
36768SOL    HW112201   2.160   2.657   5.980
36768SOL    HW212202   2.198   2.741   5.860
36769SOL     OW12203   8.107   1.162   3.203
36769SOL    HW112204   8.057   1.181   3.282
36769SOL    HW212205   8.087   1.235   3.144
36770SOL     OW12206   2.508  14.457  10.328
36770SOL    HW112207   2.515  14.362  10.327
36770SOL    HW212208   2.579  14.487  10.270
36771SOL     OW12209   1.995   5.602   9.128
36771SOL    HW112210   1.944   5.639   9.200
36771SOL    HW212211   2.041   5.527   9.167
36772SOL     OW12212   2.801   2.146   7.543
36772SOL    HW112213   2.832   2.141   7.453
36772SOL    HW212214   2.873   2.113   7.596
36773SOL     OW12215   1.849  12.198   2.710
36773SOL    HW112216   1.850  12.187   2.615
36773SOL    HW212217   1.766  12.158   2.737
36774SOL     OW12218   5.321  10.672   3.662
36774SOL    HW112219   5.249  10.624   3.701
36774SOL    HW212220   5.399  10.618   3.679
36775SOL     OW12221   5.388   1.198   5.351
36775SOL    HW112222   5.439   1.225   5.427
36775SOL    HW212223   5.432   1.239   5.276
36776SOL     OW12224  12.690   7.750  12.253
36776SOL    HW112225  12.697   7.671  12.200
36776SOL    HW212226  12.663   7.818  12.192
36777SOL     OW12227   9.328   2.993  13.192
36777SOL    HW112228   9.396   3.056  13.213
36777SOL    HW212229   9.373   2.909  13.183
36778SOL     OW12230   6.639   8.935   4.187
36778SOL    HW112231   6.667   8.903   4.273
36778SOL    HW212232   6.608   8.856   4.142
36779SOL     OW12233   5.778  12.932   3.490
36779SOL    HW112234   5.699  12.984   3.476
36779SOL    HW212235   5.750  12.842   3.478
36780SOL     OW12236   4.027   6.776   1.113
36780SOL    HW112237   4.081   6.729   1.177
36780SOL    HW212238   4.068   6.862   1.106
36781SOL     OW12239  14.622   5.072   7.278
36781SOL    HW112240  14.586   4.983   7.281
36781SOL    HW212241  14.716   5.059   7.265
36782SOL     OW12242   4.323   0.752  13.324
36782SOL    HW112243   4.283   0.673  13.286
36782SOL    HW212244   4.309   0.741  13.419
36783SOL     OW12245   7.644   1.833   0.239
36783SOL    HW112246   7.653   1.834   0.143
36783SOL    HW212247   7.690   1.754   0.266
36784SOL     OW12248   9.266   0.823   5.240
36784SOL    HW112249   9.186   0.773   5.252
36784SOL    HW212250   9.244   0.891   5.176
36785SOL     OW12251  13.674  11.798  10.611
36785SOL    HW112252  13.580  11.788  10.625
36785SOL    HW212253  13.682  11.874  10.554
36786SOL     OW12254  14.036  11.708   9.435
36786SOL    HW112255  14.009  11.691   9.525
36786SOL    HW212256  14.049  11.620   9.398
36787SOL     OW12257  14.094   4.317   9.928
36787SOL    HW112258  14.066   4.245   9.985
36787SOL    HW212259  14.183   4.337   9.956
36788SOL     OW12260  14.055  10.830   7.150
36788SOL    HW112261  14.137  10.843   7.198
36788SOL    HW212262  14.035  10.737   7.162
36789SOL     OW12263   2.309  13.746  10.946
36789SOL    HW112264   2.220  13.778  10.937
36789SOL    HW212265   2.314  13.671  10.887
36790SOL     OW12266  11.936   2.614  10.489
36790SOL    HW112267  12.017   2.633  10.443
36790SOL    HW212268  11.952   2.529  10.531
36791SOL     OW12269   2.409  13.501   1.766
36791SOL    HW112270   2.495  13.474   1.796
36791SOL    HW212271   2.355  13.502   1.846
36792SOL     OW12272   7.434  14.858   0.933
36792SOL    HW112273   7.514   0.019   0.967
36792SOL    HW212274   7.465  14.789   0.875
36793SOL     OW12275   1.811   0.439   3.190
36793SOL    HW112276   1.888   0.409   3.239
36793SOL    HW212277   1.799   0.373   3.122
36794SOL     OW12278   3.798  13.039  14.162
36794SOL    HW112279   3.769  13.050  14.072
36794SOL    HW212280   3.843  12.955  14.163
36795SOL     OW12281   0.547   4.911   2.432
36795SOL    HW112282   0.633   4.910   2.389
36795SOL    HW212283   0.504   4.831   2.401
36796SOL     OW12284   2.982   5.973   9.118
36796SOL    HW112285   2.959   5.904   9.055
36796SOL    HW212286   2.969   6.055   9.069
36797SOL     OW12287   9.543  14.375  11.567
36797SOL    HW112288   9.573  14.459  11.532
36797SOL    HW212289   9.549  14.385  11.662
36798SOL     OW12290   2.070   8.024  13.896
36798SOL    HW112291   2.120   7.944  13.880
36798SOL    HW212292   2.120   8.093  13.852
36799SOL     OW12293   3.267   2.871   2.334
36799SOL    HW112294   3.358   2.866   2.362
36799SOL    HW212295   3.218   2.824   2.402
36800SOL     OW12296   6.409   9.006   9.169
36800SOL    HW112297   6.474   8.966   9.111
36800SOL    HW212298   6.401   9.096   9.137
36801SOL     OW12299  13.836   1.107  11.942
36801SOL    HW112300  13.823   1.200  11.960
36801SOL    HW212301  13.801   1.094  11.854
36802SOL     OW12302   7.977  13.294   1.995
36802SOL    HW112303   7.909  13.227   2.008
36802SOL    HW212304   7.931  13.366   1.952
36803SOL     OW12305  13.839   7.945  14.829
36803SOL    HW112306  13.910   7.932  14.766
36803SOL    HW212307  13.825   7.859  14.868
36804SOL     OW12308  14.856  10.904   6.309
36804SOL    HW112309  14.873  10.841   6.379
36804SOL    HW212310   0.053  10.960   6.308
36805SOL     OW12311   5.579   8.917  10.880
36805SOL    HW112312   5.594   8.990  10.820
36805SOL    HW212313   5.667   8.890  10.906
36806SOL     OW12314   2.696   2.175  12.048
36806SOL    HW112315   2.719   2.099  11.994
36806SOL    HW212316   2.601   2.170  12.056
36807SOL     OW12317   1.481   7.497   0.234
36807SOL    HW112318   1.539   7.430   0.197
36807SOL    HW212319   1.520   7.519   0.318
36808SOL     OW12320  10.277   3.245  12.211
36808SOL    HW112321  10.191   3.272  12.241
36808SOL    HW212322  10.270   3.244  12.116
36809SOL     OW12323   8.861   4.707   1.448
36809SOL    HW112324   8.891   4.643   1.512
36809SOL    HW212325   8.919   4.782   1.460
36810SOL     OW12326   5.337   1.733   9.273
36810SOL    HW112327   5.271   1.733   9.204
36810SOL    HW212328   5.412   1.688   9.236
36811SOL     OW12329   4.072   4.865   8.929
36811SOL    HW112330   4.055   4.939   8.987
36811SOL    HW212331   3.999   4.868   8.866
36812SOL     OW12332   3.498  11.960  10.590
36812SOL    HW112333   3.470  11.999  10.507
36812SOL    HW212334   3.594  11.954  10.583
36813SOL     OW12335  12.633   5.930   8.224
36813SOL    HW112336  12.708   5.984   8.252
36813SOL    HW212337  12.669   5.871   8.158
36814SOL     OW12338  13.558   3.035   7.472
36814SOL    HW112339  13.483   3.019   7.530
36814SOL    HW212340  13.565   2.956   7.419
36815SOL     OW12341  11.948   1.087   1.864
36815SOL    HW112342  11.924   1.180   1.870
36815SOL    HW212343  11.888   1.050   1.800
36816SOL     OW12344   3.890  11.187  11.776
36816SOL    HW112345   3.920  11.223  11.859
36816SOL    HW212346   3.800  11.160  11.792
36817SOL     OW12347   5.582   5.329   3.284
36817SOL    HW112348   5.589   5.414   3.328
36817SOL    HW212349   5.671   5.310   3.254
36818SOL     OW12350   1.479   0.816   2.614
36818SOL    HW112351   1.452   0.786   2.527
36818SOL    HW212352   1.560   0.768   2.632
36819SOL     OW12353   3.508   5.371   6.147
36819SOL    HW112354   3.506   5.307   6.075
36819SOL    HW212355   3.598   5.403   6.148
36820SOL     OW12356   4.430  14.401   2.569
36820SOL    HW112357   4.411  14.433   2.658
36820SOL    HW212358   4.473  14.317   2.583
36821SOL     OW12359   0.434   5.933   0.481
36821SOL    HW112360   0.505   5.884   0.438
36821SOL    HW212361   0.361   5.870   0.485
36822SOL     OW12362   3.634  10.186   7.493
36822SOL    HW112363   3.661  10.271   7.526
36822SOL    HW212364   3.601  10.140   7.571
36823SOL     OW12365  11.367  12.112   2.493
36823SOL    HW112366  11.414  12.035   2.526
36823SOL    HW212367  11.328  12.082   2.411
36824SOL     OW12368   9.888   0.486   4.727
36824SOL    HW112369   9.873   0.574   4.761
36824SOL    HW212370   9.811   0.468   4.672
36825SOL     OW12371   4.373   0.374   4.938
36825SOL    HW112372   4.286   0.409   4.919
36825SOL    HW212373   4.361   0.279   4.940
36826SOL     OW12374  10.345   6.232  12.582
36826SOL    HW112375  10.409   6.250  12.651
36826SOL    HW212376  10.308   6.318  12.561
36827SOL     OW12377  13.528   2.898   7.040
36827SOL    HW112378  13.486   2.856   7.115
36827SOL    HW212379  13.530   2.991   7.062
36828SOL     OW12380   8.743   2.262   3.197
36828SOL    HW112381   8.771   2.253   3.288
36828SOL    HW212382   8.805   2.325   3.159
36829SOL     OW12383  12.057   5.008   0.533
36829SOL    HW112384  12.143   4.969   0.521
36829SOL    HW212385  12.050   5.024   0.627
36830SOL     OW12386   1.066   6.373   2.701
36830SOL    HW112387   1.109   6.452   2.666
36830SOL    HW212388   1.122   6.301   2.673
36831SOL     OW12389  14.743   2.572   1.000
36831SOL    HW112390  14.767   2.623   1.077
36831SOL    HW212391  14.650   2.589   0.987
36832SOL     OW12392  12.441   9.658   1.363
36832SOL    HW112393  12.428   9.667   1.457
36832SOL    HW212394  12.526   9.615   1.354
36833SOL     OW12395   8.242   3.740  14.794
36833SOL    HW112396   8.307   3.766  14.860
36833SOL    HW212397   8.198   3.822  14.771
36834SOL     OW12398   1.837   2.152   2.409
36834SOL    HW112399   1.772   2.095   2.448
36834SOL    HW212400   1.814   2.156   2.316
36835SOL     OW12401  11.301   9.315   0.400
36835SOL    HW112402  11.323   9.232   0.443
36835SOL    HW212403  11.228   9.350   0.452
36836SOL     OW12404   5.917  10.051  11.382
36836SOL    HW112405   5.874  10.001  11.452
36836SOL    HW212406   5.849  10.111  11.350
36837SOL     OW12407   9.102   0.951  11.787
36837SOL    HW112408   9.098   0.940  11.692
36837SOL    HW212409   9.011   0.962  11.814
36838SOL     OW12410   9.279   9.281   9.459
36838SOL    HW112411   9.238   9.288   9.545
36838SOL    HW212412   9.237   9.349   9.406
36839SOL     OW12413   9.735   2.712  13.615
36839SOL    HW112414   9.828   2.706  13.593
36839SOL    HW212415   9.733   2.753  13.701
36840SOL     OW12416   6.253  12.453   5.515
36840SOL    HW112417   6.323  12.391   5.491
36840SOL    HW212418   6.279  12.535   5.472
36841SOL     OW12419   5.892   4.546   9.040
36841SOL    HW112420   5.856   4.462   9.012
36841SOL    HW212421   5.978   4.524   9.075
36842SOL     OW12422   2.754  10.779   7.799
36842SOL    HW112423   2.698  10.705   7.775
36842SOL    HW212424   2.791  10.808   7.715
36843SOL     OW12425   7.460   1.062   4.244
36843SOL    HW112426   7.374   1.079   4.282
36843SOL    HW212427   7.470   1.129   4.176
36844SOL     OW12428  12.051  14.082   2.739
36844SOL    HW112429  12.002  14.125   2.809
36844SOL    HW212430  12.113  14.148   2.709
36845SOL     OW12431   6.531   9.581   8.746
36845SOL    HW112432   6.528   9.519   8.819
36845SOL    HW212433   6.439   9.591   8.719
36846SOL     OW12434   8.930   8.977   9.991
36846SOL    HW112435   8.938   9.040  10.062
36846SOL    HW212436   9.011   8.986   9.941
36847SOL     OW12437   9.710   0.024   1.277
36847SOL    HW112438   9.767   0.095   1.248
36847SOL    HW212439   9.639   0.022   1.214
36848SOL     OW12440  13.742  10.386   6.503
36848SOL    HW112441  13.784  10.398   6.588
36848SOL    HW212442  13.651  10.365   6.525
36849SOL     OW12443   1.156  12.091   4.035
36849SOL    HW112444   1.174  12.021   4.097
36849SOL    HW212445   1.096  12.052   3.971
36850SOL     OW12446  14.198   6.136  13.728
36850SOL    HW112447  14.232   6.223  13.746
36850SOL    HW212448  14.108   6.138  13.759
36851SOL     OW12449  10.596   2.343   3.642
36851SOL    HW112450  10.544   2.423   3.651
36851SOL    HW212451  10.546   2.288   3.583
36852SOL     OW12452   6.255   5.004   8.260
36852SOL    HW112453   6.267   5.093   8.292
36852SOL    HW212454   6.332   4.987   8.206
36853SOL     OW12455   5.693   0.675  14.480
36853SOL    HW112456   5.766   0.615  14.494
36853SOL    HW212457   5.699   0.738  14.552
36854SOL     OW12458   9.886   0.840   9.090
36854SOL    HW112459   9.916   0.767   9.144
36854SOL    HW212460   9.962   0.898   9.082
36855SOL     OW12461   8.246   9.524   3.492
36855SOL    HW112462   8.262   9.473   3.413
36855SOL    HW212463   8.333   9.556   3.518
36856SOL     OW12464  10.500  10.289   6.013
36856SOL    HW112465  10.440  10.218   6.039
36856SOL    HW212466  10.444  10.353   5.969
36857SOL     OW12467  11.959  13.997   1.579
36857SOL    HW112468  11.968  13.926   1.516
36857SOL    HW212469  11.892  13.967   1.641
36858SOL     OW12470   5.516   2.880  12.354
36858SOL    HW112471   5.426   2.867  12.324
36858SOL    HW212472   5.513   2.860  12.448
36859SOL     OW12473  13.237   1.210  10.613
36859SOL    HW112474  13.158   1.247  10.574
36859SOL    HW212475  13.235   1.239  10.705
36860SOL     OW12476   1.958  14.580   1.245
36860SOL    HW112477   1.877  14.529   1.251
36860SOL    HW212478   2.026  14.522   1.281
36861SOL     OW12479   1.093   5.307   8.726
36861SOL    HW112480   1.180   5.347   8.716
36861SOL    HW212481   1.110   5.213   8.718
36862SOL     OW12482   0.389   9.995   4.953
36862SOL    HW112483   0.466   9.943   4.928
36862SOL    HW212484   0.329   9.986   4.880
36863SOL     OW12485   6.260   4.365  11.455
36863SOL    HW112486   6.319   4.402  11.520
36863SOL    HW212487   6.203   4.438  11.430
36864SOL     OW12488   3.941   3.740   6.375
36864SOL    HW112489   3.880   3.667   6.365
36864SOL    HW212490   3.916   3.781   6.458
36865SOL     OW12491   1.595  12.896   1.649
36865SOL    HW112492   1.559  12.980   1.620
36865SOL    HW212493   1.596  12.841   1.570
36866SOL     OW12494   9.629  13.952   2.575
36866SOL    HW112495   9.573  13.903   2.635
36866SOL    HW212496   9.705  13.977   2.628
36867SOL     OW12497   4.932  11.887  10.598
36867SOL    HW112498   4.910  11.794  10.597
36867SOL    HW212499   4.852  11.931  10.570
36868SOL     OW12500   5.884   4.986   2.856
36868SOL    HW112501   5.807   4.956   2.905
36868SOL    HW212502   5.933   4.906   2.837
36869SOL     OW12503   4.801   8.871   1.382
36869SOL    HW112504   4.852   8.925   1.443
36869SOL    HW212505   4.861   8.800   1.358
36870SOL     OW12506   4.855   9.648  10.664
36870SOL    HW112507   4.799   9.591  10.611
36870SOL    HW212508   4.908   9.587  10.715
36871SOL     OW12509  13.745   9.077   3.507
36871SOL    HW112510  13.776   8.996   3.466
36871SOL    HW212511  13.665   9.051   3.554
36872SOL     OW12512   5.289   5.212  13.481
36872SOL    HW112513   5.223   5.254  13.426
36872SOL    HW212514   5.239   5.172  13.553
36873SOL     OW12515   7.378  11.217  13.728
36873SOL    HW112516   7.438  11.143  13.725
36873SOL    HW212517   7.296  11.184  13.695
36874SOL     OW12518  12.309  11.863  14.142
36874SOL    HW112519  12.289  11.951  14.110
36874SOL    HW212520  12.375  11.876  14.210
36875SOL     OW12521   7.650   1.060  10.186
36875SOL    HW112522   7.648   1.145  10.231
36875SOL    HW212523   7.728   1.017  10.220
36876SOL     OW12524  13.143   2.485   7.451
36876SOL    HW112525  13.154   2.530   7.535
36876SOL    HW212526  13.062   2.521   7.414
36877SOL     OW12527  13.315   2.191  10.202
36877SOL    HW112528  13.393   2.234  10.167
36877SOL    HW212529  13.307   2.224  10.292
36878SOL     OW12530   9.757  12.654   1.760
36878SOL    HW112531   9.849  12.637   1.778
36878SOL    HW212532   9.755  12.691   1.672
36879SOL     OW12533   7.586   9.763  10.830
36879SOL    HW112534   7.589   9.762  10.925
36879SOL    HW212535   7.493   9.777  10.809
36880SOL     OW12536   5.546   9.435   6.429
36880SOL    HW112537   5.605   9.489   6.377
36880SOL    HW212538   5.522   9.363   6.371
36881SOL     OW12539   2.796   5.115   7.198
36881SOL    HW112540   2.736   5.170   7.249
36881SOL    HW212541   2.738   5.060   7.145
36882SOL     OW12542  10.203  11.088  13.565
36882SOL    HW112543  10.273  11.099  13.501
36882SOL    HW212544  10.225  11.006  13.610
36883SOL     OW12545   3.232   3.384   5.732
36883SOL    HW112546   3.201   3.472   5.756
36883SOL    HW212547   3.153   3.336   5.710
36884SOL     OW12548   5.651  11.017   3.111
36884SOL    HW112549   5.580  11.072   3.144
36884SOL    HW212550   5.651  11.032   3.016
36885SOL     OW12551  12.478  12.944  14.204
36885SOL    HW112552  12.530  12.892  14.266
36885SOL    HW212553  12.388  12.934  14.235
36886SOL     OW12554   4.329  14.609   6.047
36886SOL    HW112555   4.308  14.694   6.008
36886SOL    HW212556   4.416  14.621   6.086
36887SOL     OW12557   8.217   2.468   9.117
36887SOL    HW112558   8.280   2.399   9.138
36887SOL    HW212559   8.196   2.454   9.025
36888SOL     OW12560   9.600   7.416   3.524
36888SOL    HW112561   9.591   7.341   3.583
36888SOL    HW212562   9.640   7.484   3.577
36889SOL     OW12563   4.871   9.136  14.050
36889SOL    HW112564   4.922   9.134  13.969
36889SOL    HW212565   4.844   9.228  14.060
36890SOL     OW12566   3.358   2.136   3.338
36890SOL    HW112567   3.442   2.094   3.356
36890SOL    HW212568   3.342   2.191   3.415
36891SOL     OW12569   8.801   2.901   8.367
36891SOL    HW112570   8.886   2.917   8.326
36891SOL    HW212571   8.758   2.987   8.366
36892SOL     OW12572   9.667   0.880  11.936
36892SOL    HW112573   9.576   0.853  11.926
36892SOL    HW212574   9.672   0.915  12.025
36893SOL     OW12575   7.963  12.730  13.125
36893SOL    HW112576   7.911  12.654  13.099
36893SOL    HW212577   7.898  12.799  13.142
36894SOL     OW12578   7.450   2.902   2.680
36894SOL    HW112579   7.425   2.920   2.771
36894SOL    HW212580   7.462   2.988   2.641
36895SOL     OW12581   0.097   1.684   7.581
36895SOL    HW112582   0.173   1.656   7.530
36895SOL    HW212583   0.050   1.743   7.523
36896SOL     OW12584   2.076   9.561   2.592
36896SOL    HW112585   2.070   9.656   2.594
36896SOL    HW212586   2.080   9.534   2.684
36897SOL     OW12587   4.264   2.975   7.071
36897SOL    HW112588   4.186   3.029   7.076
36897SOL    HW212589   4.335   3.038   7.056
36898SOL     OW12590  10.186   2.028   7.274
36898SOL    HW112591  10.193   2.117   7.240
36898SOL    HW212592  10.096   2.021   7.306
36899SOL     OW12593  10.402   7.648   0.416
36899SOL    HW112594  10.487   7.605   0.408
36899SOL    HW212595  10.359   7.603   0.489
36900SOL     OW12596   4.376  14.702  13.782
36900SOL    HW112597   4.431  14.682  13.707
36900SOL    HW212598   4.422  14.772  13.828
36901SOL     OW12599   2.530   1.680   4.263
36901SOL    HW112600   2.595   1.741   4.299
36901SOL    HW212601   2.455   1.735   4.242
36902SOL     OW12602   1.011   4.241   9.340
36902SOL    HW112603   0.966   4.245   9.424
36902SOL    HW212604   1.102   4.262   9.359
36903SOL     OW12605   5.995   7.965  10.879
36903SOL    HW112606   6.020   8.048  10.838
36903SOL    HW212607   5.901   7.972  10.892
36904SOL     OW12608   6.113  11.313   5.616
36904SOL    HW112609   6.194  11.299   5.666
36904SOL    HW212610   6.106  11.236   5.560
36905SOL     OW12611   8.716  14.593   0.166
36905SOL    HW112612   8.785  14.655   0.142
36905SOL    HW212613   8.664  14.640   0.232
36906SOL     OW12614  13.373  10.242   6.499
36906SOL    HW112615  13.315  10.179   6.543
36906SOL    HW212616  13.396  10.200   6.416
36907SOL     OW12617   3.726  11.513   1.875
36907SOL    HW112618   3.752  11.424   1.900
36907SOL    HW212619   3.635  11.520   1.902
36908SOL     OW12620   4.537  14.663   6.941
36908SOL    HW112621   4.555  14.622   7.026
36908SOL    HW212622   4.451  14.629   6.916
36909SOL     OW12623   9.481   9.288   7.280
36909SOL    HW112624   9.565   9.309   7.242
36909SOL    HW212625   9.500   9.220   7.345
36910SOL     OW12626  12.398   2.542  13.906
36910SOL    HW112627  12.466   2.607  13.888
36910SOL    HW212628  12.362   2.521  13.820
36911SOL     OW12629   9.113  14.008   8.601
36911SOL    HW112630   9.181  13.973   8.544
36911SOL    HW212631   9.056  14.057   8.542
36912SOL     OW12632   5.017   0.671  11.929
36912SOL    HW112633   4.978   0.586  11.910
36912SOL    HW212634   4.958   0.711  11.993
36913SOL     OW12635   5.879   8.281   2.025
36913SOL    HW112636   5.901   8.335   2.100
36913SOL    HW212637   5.786   8.261   2.036
36914SOL     OW12638  14.240  14.447   8.927
36914SOL    HW112639  14.296  14.383   8.971
36914SOL    HW212640  14.301  14.510   8.888
36915SOL     OW12641   1.334   4.269   8.682
36915SOL    HW112642   1.391   4.193   8.670
36915SOL    HW212643   1.379   4.341   8.639
36916SOL     OW12644   9.624   1.322   2.936
36916SOL    HW112645   9.659   1.410   2.921
36916SOL    HW212646   9.684   1.283   2.999
36917SOL     OW12647   7.847  13.140   4.648
36917SOL    HW112648   7.894  13.155   4.731
36917SOL    HW212649   7.786  13.069   4.668
36918SOL     OW12650   6.914  12.057   0.718
36918SOL    HW112651   6.827  12.078   0.685
36918SOL    HW212652   6.954  12.004   0.649
36919SOL     OW12653   7.123   7.692   2.765
36919SOL    HW112654   7.045   7.639   2.780
36919SOL    HW212655   7.196   7.631   2.779
36920SOL     OW12656   4.029  10.590   7.271
36920SOL    HW112657   3.934  10.588   7.282
36920SOL    HW212658   4.060  10.644   7.344
36921SOL     OW12659  14.488   9.600   5.683
36921SOL    HW112660  14.572   9.573   5.646
36921SOL    HW212661  14.453   9.662   5.620
36922SOL     OW12662  10.174   8.484   8.923
36922SOL    HW112663  10.191   8.438   8.841
36922SOL    HW212664  10.113   8.427   8.971
36923SOL     OW12665   3.468   5.750  14.007
36923SOL    HW112666   3.449   5.745  13.913
36923SOL    HW212667   3.549   5.801  14.012
36924SOL     OW12668  11.727   7.492   3.118
36924SOL    HW112669  11.759   7.581   3.133
36924SOL    HW212670  11.699   7.492   3.026
36925SOL     OW12671   4.597  14.559   9.634
36925SOL    HW112672   4.692  14.558   9.624
36925SOL    HW212673   4.569  14.472   9.604
36926SOL     OW12674  10.104  10.924   4.806
36926SOL    HW112675  10.075  10.865   4.876
36926SOL    HW212676  10.197  10.937   4.823
36927SOL     OW12677   5.100   9.007   8.218
36927SOL    HW112678   5.109   9.032   8.126
36927SOL    HW212679   5.012   9.034   8.242
36928SOL     OW12680   5.330   4.344  10.751
36928SOL    HW112681   5.341   4.400  10.828
36928SOL    HW212682   5.277   4.395  10.691
36929SOL     OW12683  13.423   1.130   5.404
36929SOL    HW112684  13.419   1.065   5.474
36929SOL    HW212685  13.377   1.206   5.439
36930SOL     OW12686   3.967   6.403   1.196
36930SOL    HW112687   4.000   6.342   1.130
36930SOL    HW212688   3.872   6.386   1.199
36931SOL     OW12689   1.453  13.435   6.029
36931SOL    HW112690   1.520  13.451   5.963
36931SOL    HW212691   1.437  13.340   6.025
36932SOL     OW12692  11.271   5.924   4.306
36932SOL    HW112693  11.303   6.009   4.337
36932SOL    HW212694  11.256   5.937   4.212
36933SOL     OW12695  11.866   4.693   2.356
36933SOL    HW112696  11.940   4.692   2.417
36933SOL    HW212697  11.795   4.733   2.406
36934SOL     OW12698   0.725  14.674   0.223
36934SOL    HW112699   0.639  14.716   0.222
36934SOL    HW212700   0.748  14.665   0.130
36935SOL     OW12701   9.907  13.923   8.519
36935SOL    HW112702   9.962  13.903   8.443
36935SOL    HW212703   9.944  14.004   8.553
36936SOL     OW12704   6.301   5.962  13.473
36936SOL    HW112705   6.375   6.019  13.449
36936SOL    HW212706   6.320   5.935  13.563
36937SOL     OW12707   5.339   4.676   7.814
36937SOL    HW112708   5.433   4.679   7.831
36937SOL    HW212709   5.316   4.765   7.789
36938SOL     OW12710  10.083  11.336   1.435
36938SOL    HW112711  10.110  11.275   1.503
36938SOL    HW212712   9.997  11.367   1.463
36939SOL     OW12713   5.960   4.238  13.819
36939SOL    HW112714   5.995   4.245  13.730
36939SOL    HW212715   5.919   4.152  13.822
36940SOL     OW12716   0.078   9.798   7.366
36940SOL    HW112717   0.028   9.729   7.408
36940SOL    HW212718   0.024   9.876   7.375
36941SOL     OW12719   1.764  10.757   8.101
36941SOL    HW112720   1.749  10.711   8.019
36941SOL    HW212721   1.762  10.850   8.078
36942SOL     OW12722   8.727   9.737  14.285
36942SOL    HW112723   8.721   9.763  14.193
36942SOL    HW212724   8.781   9.659  14.284
36943SOL     OW12725  12.196   7.988   8.467
36943SOL    HW112726  12.182   7.918   8.531
36943SOL    HW212727  12.281   7.967   8.427
36944SOL     OW12728   8.037   1.453  13.747
36944SOL    HW112729   7.993   1.417  13.823
36944SOL    HW212730   8.129   1.430  13.760
36945SOL     OW12731  14.522  12.805   0.206
36945SOL    HW112732  14.520  12.882   0.264
36945SOL    HW212733  14.588  12.826   0.140
36946SOL     OW12734   1.030   8.486   4.053
36946SOL    HW112735   1.071   8.400   4.040
36946SOL    HW212736   1.047   8.533   3.972
36947SOL     OW12737   3.245   0.125   5.829
36947SOL    HW112738   3.273   0.091   5.913
36947SOL    HW212739   3.149   0.118   5.830
36948SOL     OW12740   2.595  11.196   7.153
36948SOL    HW112741   2.527  11.263   7.149
36948SOL    HW212742   2.648  11.221   7.229
36949SOL     OW12743  11.080  10.347  10.549
36949SOL    HW112744  11.130  10.325  10.628
36949SOL    HW212745  11.126  10.422  10.512
36950SOL     OW12746   0.978   5.175  11.898
36950SOL    HW112747   1.033   5.119  11.952
36950SOL    HW212748   1.031   5.253  11.882
36951SOL     OW12749  10.261  14.421   5.149
36951SOL    HW112750  10.227  14.337   5.180
36951SOL    HW212751  10.192  14.484   5.170
36952SOL     OW12752   7.874   0.563   8.587
36952SOL    HW112753   7.945   0.625   8.567
36952SOL    HW212754   7.919   0.483   8.615
36953SOL     OW12755   7.700   0.095   1.871
36953SOL    HW112756   7.725   0.156   1.802
36953SOL    HW212757   7.758   0.020   1.859
36954SOL     OW12758   3.723  13.675   7.087
36954SOL    HW112759   3.663  13.712   7.023
36954SOL    HW212760   3.810  13.702   7.057
36955SOL     OW12761   8.846   8.279  10.996
36955SOL    HW112762   8.823   8.331  11.073
36955SOL    HW212763   8.790   8.313  10.926
36956SOL     OW12764  12.212   4.354  14.199
36956SOL    HW112765  12.224   4.437  14.245
36956SOL    HW212766  12.119   4.334  14.210
36957SOL     OW12767   8.109   0.228  12.125
36957SOL    HW112768   8.033   0.287  12.132
36957SOL    HW212769   8.096   0.182  12.041
36958SOL     OW12770  12.702   8.349  12.764
36958SOL    HW112771  12.606   8.348  12.767
36958SOL    HW212772  12.723   8.396  12.683
36959SOL     OW12773  12.322   8.185   1.112
36959SOL    HW112774  12.326   8.280   1.115
36959SOL    HW212775  12.229   8.164   1.119
36960SOL     OW12776  14.721  12.696  14.594
36960SOL    HW112777  14.808  12.730  14.616
36960SOL    HW212778  14.702  12.735  14.509
36961SOL     OW12779  13.898   4.534   7.453
36961SOL    HW112780  13.848   4.454   7.438
36961SOL    HW212781  13.947   4.517   7.534
36962SOL     OW12782   8.863   4.577  10.021
36962SOL    HW112783   8.793   4.574   9.956
36962SOL    HW212784   8.891   4.486  10.029
36963SOL     OW12785   9.305  14.023   2.702
36963SOL    HW112786   9.366  14.097   2.705
36963SOL    HW212787   9.225  14.056   2.742
36964SOL     OW12788   3.816   8.216   6.007
36964SOL    HW112789   3.746   8.280   6.015
36964SOL    HW212790   3.774   8.138   5.972
36965SOL     OW12791   9.314  14.158  12.760
36965SOL    HW112792   9.253  14.097  12.800
36965SOL    HW212793   9.379  14.176  12.828
36966SOL     OW12794   3.732  14.078   1.162
36966SOL    HW112795   3.805  14.070   1.223
36966SOL    HW212796   3.698  13.990   1.153
36967SOL     OW12797   2.631  12.458   3.473
36967SOL    HW112798   2.679  12.502   3.403
36967SOL    HW212799   2.690  12.463   3.548
36968SOL     OW12800   1.200   5.839   0.646
36968SOL    HW112801   1.188   5.810   0.737
36968SOL    HW212802   1.250   5.920   0.653
36969SOL     OW12803  13.155   3.443  14.781
36969SOL    HW112804  13.148   3.477  14.692
36969SOL    HW212805  13.248   3.422  14.792
36970SOL     OW12806  10.492  10.465   1.636
36970SOL    HW112807  10.549  10.388   1.638
36970SOL    HW212808  10.543  10.534   1.680
36971SOL     OW12809  13.960   0.685  10.860
36971SOL    HW112810  14.028   0.626  10.828
36971SOL    HW212811  13.902   0.628  10.911
36972SOL     OW12812  14.287   0.866   9.655
36972SOL    HW112813  14.294   0.781   9.612
36972SOL    HW212814  14.257   0.925   9.586
36973SOL     OW12815  14.866   9.231   1.870
36973SOL    HW112816  14.794   9.167   1.865
36973SOL    HW212817  14.831   9.310   1.829
36974SOL     OW12818   6.281   0.930  10.596
36974SOL    HW112819   6.278   0.836  10.580
36974SOL    HW212820   6.190   0.954  10.614
36975SOL     OW12821   0.771  13.588  14.100
36975SOL    HW112822   0.765  13.547  14.014
36975SOL    HW212823   0.762  13.681  14.083
36976SOL     OW12824   1.389   5.264   9.269
36976SOL    HW112825   1.472   5.279   9.224
36976SOL    HW212826   1.394   5.174   9.300
36977SOL     OW12827  10.237  14.523   9.203
36977SOL    HW112828  10.275  14.436   9.214
36977SOL    HW212829  10.312  14.582   9.200
36978SOL     OW12830   0.279   1.247   5.287
36978SOL    HW112831   0.236   1.244   5.201
36978SOL    HW212832   0.364   1.206   5.271
36979SOL     OW12833   3.536  13.217   7.630
36979SOL    HW112834   3.531  13.258   7.544
36979SOL    HW212835   3.448  13.225   7.666
36980SOL     OW12836   7.265   8.736   4.302
36980SOL    HW112837   7.297   8.815   4.346
36980SOL    HW212838   7.202   8.699   4.363
36981SOL     OW12839   6.544   5.232  13.647
36981SOL    HW112840   6.468   5.273  13.607
36981SOL    HW212841   6.615   5.295  13.636
36982SOL     OW12842   4.607  12.155   5.586
36982SOL    HW112843   4.553  12.121   5.657
36982SOL    HW212844   4.676  12.204   5.630
36983SOL     OW12845   0.213   7.814  13.193
36983SOL    HW112846   0.121   7.827  13.217
36983SOL    HW212847   0.215   7.823  13.098
36984SOL     OW12848   1.287   3.742   6.217
36984SOL    HW112849   1.317   3.696   6.139
36984SOL    HW212850   1.338   3.823   6.218
36985SOL     OW12851   9.980   2.126   6.706
36985SOL    HW112852   9.921   2.181   6.654
36985SOL    HW212853  10.032   2.188   6.757
36986SOL     OW12854  14.840   3.169   1.601
36986SOL    HW112855  14.779   3.130   1.539
36986SOL    HW212856   0.016   3.096   1.628
36987SOL     OW12857   8.518  14.044   4.855
36987SOL    HW112858   8.537  13.991   4.933
36987SOL    HW212859   8.430  14.015   4.829
36988SOL     OW12860   4.463   1.027   5.968
36988SOL    HW112861   4.420   0.952   5.927
36988SOL    HW212862   4.506   1.073   5.896
36989SOL     OW12863   1.710  13.832   3.466
36989SOL    HW112864   1.803  13.809   3.467
36989SOL    HW212865   1.705  13.916   3.512
36990SOL     OW12866  13.043  11.801   7.287
36990SOL    HW112867  13.119  11.844   7.326
36990SOL    HW212868  13.028  11.724   7.342
36991SOL     OW12869  13.925   1.146  10.655
36991SOL    HW112870  13.872   1.095  10.716
36991SOL    HW212871  13.866   1.214  10.623
36992SOL     OW12872   4.124   9.302  13.239
36992SOL    HW112873   4.191   9.348  13.290
36992SOL    HW212874   4.161   9.215  13.225
36993SOL     OW12875   3.678   0.673  11.523
36993SOL    HW112876   3.742   0.630  11.580
36993SOL    HW212877   3.605   0.695  11.581
36994SOL     OW12878  13.079  11.321  13.344
36994SOL    HW112879  13.012  11.388  13.358
36994SOL    HW212880  13.150  11.346  13.403
36995SOL     OW12881   3.016  14.831  11.804
36995SOL    HW112882   2.961  14.877  11.868
36995SOL    HW212883   3.082   0.015  11.779
36996SOL     OW12884   9.311  14.874  12.909
36996SOL    HW112885   9.218  14.866  12.928
36996SOL    HW212886   9.354  14.858  12.994
36997SOL     OW12887   3.740   1.886   7.636
36997SOL    HW112888   3.685   1.848   7.568
36997SOL    HW212889   3.773   1.967   7.597
36998SOL     OW12890   9.032   4.080   9.551
36998SOL    HW112891   9.006   4.173   9.550
36998SOL    HW212892   9.107   4.077   9.610
36999SOL     OW12893   5.295   2.439   9.142
36999SOL    HW112894   5.260   2.519   9.183
36999SOL    HW212895   5.252   2.435   9.057
37000SOL     OW12896   0.112   1.165  13.003
37000SOL    HW112897   0.105   1.244  12.949
37000SOL    HW212898   0.053   1.181  13.077
37001SOL     OW12899  12.803   6.317   6.003
37001SOL    HW112900  12.884   6.367   6.001
37001SOL    HW212901  12.791   6.296   6.096
37002SOL     OW12902  13.425   3.915   5.143
37002SOL    HW112903  13.516   3.903   5.115
37002SOL    HW212904  13.416   4.009   5.154
37003SOL     OW12905   3.398  13.324   8.532
37003SOL    HW112906   3.420  13.415   8.513
37003SOL    HW212907   3.309  13.327   8.567
37004SOL     OW12908   1.258  10.099   5.566
37004SOL    HW112909   1.180  10.118   5.513
37004SOL    HW212910   1.270  10.005   5.557
37005SOL     OW12911   1.735   7.392  13.055
37005SOL    HW112912   1.792   7.420  13.127
37005SOL    HW212913   1.767   7.305  13.032
37006SOL     OW12914  12.198  14.078  11.740
37006SOL    HW112915  12.279  14.045  11.779
37006SOL    HW212916  12.196  14.039  11.653
37007SOL     OW12917  14.405   1.902   1.676
37007SOL    HW112918  14.413   1.851   1.756
37007SOL    HW212919  14.495   1.923   1.651
37008SOL     OW12920   9.303  14.729   6.411
37008SOL    HW112921   9.311  14.739   6.316
37008SOL    HW212922   9.321  14.637   6.428
37009SOL     OW12923   1.934  11.308   4.862
37009SOL    HW112924   2.017  11.308   4.910
37009SOL    HW212925   1.935  11.227   4.812
37010SOL     OW12926   8.937   8.762   8.547
37010SOL    HW112927   8.925   8.712   8.466
37010SOL    HW212928   8.953   8.852   8.517
37011SOL     OW12929   7.654   4.369   1.491
37011SOL    HW112930   7.664   4.284   1.535
37011SOL    HW212931   7.687   4.354   1.403
37012SOL     OW12932   7.398   0.832   7.996
37012SOL    HW112933   7.366   0.906   7.945
37012SOL    HW212934   7.360   0.755   7.954
37013SOL     OW12935   6.567   6.569   1.123
37013SOL    HW112936   6.502   6.570   1.053
37013SOL    HW212937   6.592   6.477   1.132
37014SOL     OW12938  13.359   4.882  11.366
37014SOL    HW112939  13.382   4.975  11.360
37014SOL    HW212940  13.390   4.844  11.284
37015SOL     OW12941   4.854   4.400   3.823
37015SOL    HW112942   4.807   4.478   3.853
37015SOL    HW212943   4.889   4.424   3.737
37016SOL     OW12944   0.678  13.368   9.816
37016SOL    HW112945   0.626  13.288   9.828
37016SOL    HW212946   0.627  13.436   9.861
37017SOL     OW12947  14.006   5.132   5.080
37017SOL    HW112948  14.100   5.123   5.067
37017SOL    HW212949  13.969   5.133   4.992
37018SOL     OW12950  13.676   7.276  10.383
37018SOL    HW112951  13.606   7.288  10.448
37018SOL    HW212952  13.757   7.292  10.432
37019SOL     OW12953  11.769   1.930   0.147
37019SOL    HW112954  11.788   2.016   0.184
37019SOL    HW212955  11.676   1.918   0.160
37020SOL     OW12956   9.161  12.819   7.505
37020SOL    HW112957   9.095  12.833   7.437
37020SOL    HW212958   9.117  12.846   7.586
37021SOL     OW12959   1.204   2.941  14.559
37021SOL    HW112960   1.159   2.934  14.643
37021SOL    HW212961   1.194   3.033  14.534
37022SOL     OW12962   5.391   0.356   5.212
37022SOL    HW112963   5.421   0.402   5.134
37022SOL    HW212964   5.460   0.371   5.277
37023SOL     OW12965  14.520   8.672   8.118
37023SOL    HW112966  14.544   8.745   8.059
37023SOL    HW212967  14.447   8.629   8.074
37024SOL     OW12968   5.717   7.976  10.886
37024SOL    HW112969   5.683   8.062  10.859
37024SOL    HW212970   5.639   7.921  10.893
37025SOL     OW12971   3.558  12.572  14.482
37025SOL    HW112972   3.488  12.598  14.423
37025SOL    HW212973   3.633  12.626  14.455
37026SOL     OW12974  10.760   2.953   2.834
37026SOL    HW112975  10.785   3.017   2.768
37026SOL    HW212976  10.710   2.887   2.787
37027SOL     OW12977   7.079   5.285   0.837
37027SOL    HW112978   6.993   5.317   0.865
37027SOL    HW212979   7.065   5.250   0.749
37028SOL     OW12980  11.394   3.713  12.908
37028SOL    HW112981  11.316   3.661  12.926
37028SOL    HW212982  11.422   3.744  12.995
37029SOL     OW12983   9.816   8.214   0.346
37029SOL    HW112984   9.846   8.150   0.410
37029SOL    HW212985   9.781   8.286   0.398
37030SOL     OW12986  11.193  14.281   6.725
37030SOL    HW112987  11.126  14.308   6.787
37030SOL    HW212988  11.187  14.186   6.723
37031SOL     OW12989  13.400  10.950   0.887
37031SOL    HW112990  13.382  11.034   0.931
37031SOL    HW212991  13.394  10.970   0.794
37032SOL     OW12992   7.692   1.595   3.508
37032SOL    HW112993   7.771   1.564   3.551
37032SOL    HW212994   7.656   1.661   3.567
37033SOL     OW12995   8.985   7.366   3.697
37033SOL    HW112996   9.070   7.409   3.707
37033SOL    HW212997   8.950   7.401   3.614
37034SOL     OW12998   4.208   3.770   2.243
37034SOL    HW112999   4.215   3.694   2.185
37034SOL    HW213000   4.297   3.784   2.275
37035SOL     OW13001  14.424   7.492  12.525
37035SOL    HW113002  14.450   7.481  12.433
37035SOL    HW213003  14.435   7.405  12.563
37036SOL     OW13004   5.044   4.497   7.246
37036SOL    HW113005   4.959   4.523   7.213
37036SOL    HW213006   5.107   4.543   7.190
37037SOL     OW13007  12.918  10.463   4.388
37037SOL    HW113008  12.950  10.415   4.312
37037SOL    HW213009  12.896  10.395   4.452
37038SOL     OW13010   9.305  12.559   9.987
37038SOL    HW113011   9.321  12.590   9.898
37038SOL    HW213012   9.211  12.546   9.992
37039SOL     OW13013  11.273  13.742   0.910
37039SOL    HW113014  11.324  13.814   0.872
37039SOL    HW213015  11.257  13.769   1.000
37040SOL     OW13016   1.130   4.462  14.583
37040SOL    HW113017   1.095   4.522  14.517
37040SOL    HW213018   1.153   4.518  14.657
37041SOL     OW13019   5.002   5.329   6.867
37041SOL    HW113020   5.023   5.313   6.960
37041SOL    HW213021   4.912   5.362   6.868
37042SOL     OW13022  13.798   5.438   3.855
37042SOL    HW113023  13.858   5.408   3.787
37042SOL    HW213024  13.735   5.366   3.864
37043SOL     OW13025  14.469   0.342  10.784
37043SOL    HW113026  14.472   0.424  10.833
37043SOL    HW213027  14.561   0.319  10.770
37044SOL     OW13028  12.720   4.362   4.332
37044SOL    HW113029  12.637   4.388   4.290
37044SOL    HW213030  12.776   4.335   4.259
37045SOL     OW13031   6.627   5.020   1.589
37045SOL    HW113032   6.711   5.049   1.625
37045SOL    HW213033   6.649   4.988   1.501
37046SOL     OW13034  10.000  13.417  11.220
37046SOL    HW113035  10.028  13.369  11.299
37046SOL    HW213036   9.905  13.414  11.223
37047SOL     OW13037   0.675   5.439   0.592
37047SOL    HW113038   0.631   5.523   0.579
37047SOL    HW213039   0.608   5.382   0.632
37048SOL     OW13040   5.876   5.641   1.576
37048SOL    HW113041   5.948   5.579   1.580
37048SOL    HW213042   5.817   5.615   1.647
37049SOL     OW13043  12.937  13.694  10.712
37049SOL    HW113044  12.856  13.684  10.763
37049SOL    HW213045  13.005  13.657  10.769
37050SOL     OW13046  13.983   0.863  11.517
37050SOL    HW113047  13.993   0.939  11.574
37050SOL    HW213048  13.950   0.794  11.574
37051SOL     OW13049  13.088   5.216   5.876
37051SOL    HW113050  13.043   5.135   5.900
37051SOL    HW213051  13.130   5.196   5.793
37052SOL     OW13052   4.792   9.032   5.189
37052SOL    HW113053   4.769   9.090   5.262
37052SOL    HW213054   4.860   8.975   5.224
37053SOL     OW13055   2.434   4.628   1.593
37053SOL    HW113056   2.457   4.690   1.663
37053SOL    HW213057   2.512   4.574   1.583
37054SOL     OW13058   1.198  11.758   1.051
37054SOL    HW113059   1.122  11.702   1.065
37054SOL    HW213060   1.262  11.701   1.009
37055SOL     OW13061   1.632  11.968  10.820
37055SOL    HW113062   1.543  11.986  10.789
37055SOL    HW213063   1.623  11.959  10.915
37056SOL     OW13064   3.227   8.615   2.532
37056SOL    HW113065   3.278   8.663   2.466
37056SOL    HW213066   3.144   8.662   2.537
37057SOL     OW13067  14.105  11.250  13.787
37057SOL    HW113068  14.082  11.313  13.719
37057SOL    HW213069  14.098  11.299  13.869
37058SOL     OW13070   9.716   4.425   0.567
37058SOL    HW113071   9.750   4.425   0.478
37058SOL    HW213072   9.655   4.499   0.570
37059SOL     OW13073   6.869   2.621   4.868
37059SOL    HW113074   6.804   2.620   4.798
37059SOL    HW213075   6.932   2.688   4.842
37060SOL     OW13076   5.051   7.647   9.141
37060SOL    HW113077   5.021   7.557   9.122
37060SOL    HW213078   5.094   7.640   9.226
37061SOL     OW13079   0.642  12.907   1.189
37061SOL    HW113080   0.562  12.854   1.182
37061SOL    HW213081   0.708  12.847   1.225
37062SOL     OW13082   9.177   1.923   5.984
37062SOL    HW113083   9.186   1.972   5.902
37062SOL    HW213084   9.214   1.982   6.050
37063SOL     OW13085   3.396   4.246   9.695
37063SOL    HW113086   3.342   4.168   9.687
37063SOL    HW213087   3.476   4.225   9.647
37064SOL     OW13088   6.371  13.032  13.204
37064SOL    HW113089   6.358  12.937  13.202
37064SOL    HW213090   6.460  13.045  13.173
37065SOL     OW13091   7.598   8.810   6.558
37065SOL    HW113092   7.612   8.829   6.651
37065SOL    HW213093   7.529   8.744   6.557
37066SOL     OW13094   0.934  14.046   4.698
37066SOL    HW113095   0.913  13.978   4.762
37066SOL    HW213096   0.985  14.000   4.631
37067SOL     OW13097  13.364   5.700   4.464
37067SOL    HW113098  13.380   5.730   4.374
37067SOL    HW213099  13.401   5.769   4.519
37068SOL     OW13100   6.513   7.533  13.256
37068SOL    HW113101   6.437   7.527  13.314
37068SOL    HW213102   6.535   7.626  13.256
37069SOL     OW13103   4.666  13.355   7.485
37069SOL    HW113104   4.620  13.311   7.413
37069SOL    HW213105   4.597  13.399   7.535
37070SOL     OW13106  11.092   3.408  10.338
37070SOL    HW113107  11.163   3.349  10.362
37070SOL    HW213108  11.091   3.474  10.407
37071SOL     OW13109  12.731  10.578   9.848
37071SOL    HW113110  12.771  10.664   9.835
37071SOL    HW213111  12.805  10.521   9.871
37072SOL     OW13112  11.250  11.535   1.945
37072SOL    HW113113  11.260  11.440   1.938
37072SOL    HW213114  11.169  11.546   1.995
37073SOL     OW13115   7.464  14.438  10.862
37073SOL    HW113116   7.396  14.383  10.824
37073SOL    HW213117   7.544  14.385  10.856
37074SOL     OW13118   0.081  11.167   6.329
37074SOL    HW113119   0.068  11.190   6.421
37074SOL    HW213120   0.120  11.245   6.289
37075SOL     OW13121   2.551   6.738  12.831
37075SOL    HW113122   2.566   6.660  12.884
37075SOL    HW213123   2.485   6.711  12.767
37076SOL     OW13124  14.571   6.985   3.511
37076SOL    HW113125  14.581   7.029   3.596
37076SOL    HW213126  14.646   7.014   3.460
37077SOL     OW13127   4.224  14.576   7.915
37077SOL    HW113128   4.152  14.637   7.901
37077SOL    HW213129   4.184  14.501   7.959
37078SOL     OW13130   8.775   4.232   3.961
37078SOL    HW113131   8.819   4.314   3.983
37078SOL    HW213132   8.686   4.242   3.993
37079SOL     OW13133  11.024  12.899   6.810
37079SOL    HW113134  10.956  12.849   6.765
37079SOL    HW213135  10.997  12.900   6.902
37080SOL     OW13136   4.041  10.357  13.581
37080SOL    HW113137   4.076  10.445  13.590
37080SOL    HW213138   4.112  10.300  13.608
37081SOL     OW13139  12.052  11.489   2.526
37081SOL    HW113140  12.134  11.457   2.489
37081SOL    HW213141  11.990  11.488   2.453
37082SOL     OW13142   3.726  10.057   3.207
37082SOL    HW113143   3.810  10.075   3.164
37082SOL    HW213144   3.741   9.978   3.257
37083SOL     OW13145  10.028  11.505   9.312
37083SOL    HW113146  10.017  11.540   9.400
37083SOL    HW213147   9.981  11.422   9.312
37084SOL     OW13148  14.726   3.612   6.699
37084SOL    HW113149  14.717   3.549   6.627
37084SOL    HW213150  14.637   3.628   6.728
37085SOL     OW13151   9.305   2.852   4.587
37085SOL    HW113152   9.316   2.780   4.649
37085SOL    HW213153   9.249   2.817   4.518
37086SOL     OW13154   9.207   8.383  14.071
37086SOL    HW113155   9.229   8.353  14.159
37086SOL    HW213156   9.278   8.441  14.045
37087SOL     OW13157   0.191   0.867  13.724
37087SOL    HW113158   0.285   0.859  13.710
37087SOL    HW213159   0.153   0.874  13.637
37088SOL     OW13160  13.173   0.389   2.075
37088SOL    HW113161  13.224   0.461   2.038
37088SOL    HW213162  13.087   0.428   2.093
37089SOL     OW13163   7.667   8.123   6.030
37089SOL    HW113164   7.716   8.058   5.981
37089SOL    HW213165   7.731   8.164   6.088
37090SOL     OW13166  12.199  13.131  13.698
37090SOL    HW113167  12.155  13.140  13.614
37090SOL    HW213168  12.223  13.039  13.704
37091SOL     OW13169   9.886   9.875  11.531
37091SOL    HW113170   9.918   9.789  11.560
37091SOL    HW213171   9.795   9.878  11.561
37092SOL     OW13172   4.977   9.704  12.209
37092SOL    HW113173   4.916   9.692  12.281
37092SOL    HW213174   5.029   9.781  12.234
37093SOL     OW13175   1.209   9.814  10.979
37093SOL    HW113176   1.139   9.879  10.970
37093SOL    HW213177   1.222   9.781  10.890
37094SOL     OW13178  10.739   4.043   2.540
37094SOL    HW113179  10.797   4.085   2.476
37094SOL    HW213180  10.792   4.036   2.619
37095SOL     OW13181   7.577   2.657   7.565
37095SOL    HW113182   7.526   2.618   7.494
37095SOL    HW213183   7.625   2.582   7.603
37096SOL     OW13184  12.311   0.481   4.479
37096SOL    HW113185  12.366   0.463   4.556
37096SOL    HW213186  12.271   0.566   4.498
37097SOL     OW13187   5.643  13.611  12.651
37097SOL    HW113188   5.677  13.655  12.729
37097SOL    HW213189   5.588  13.541  12.685
37098SOL     OW13190   0.670   3.921   7.012
37098SOL    HW113191   0.668   3.839   6.962
37098SOL    HW213192   0.583   3.959   6.998
37099SOL     OW13193   8.980   0.101   3.996
37099SOL    HW113194   9.061   0.051   3.997
37099SOL    HW213195   8.999   0.179   4.048
37100SOL     OW13196   8.053   5.405   8.410
37100SOL    HW113197   8.000   5.385   8.333
37100SOL    HW213198   8.090   5.492   8.392
37101SOL     OW13199  13.285   9.915  10.709
37101SOL    HW113200  13.215   9.853  10.726
37101SOL    HW213201  13.363   9.875  10.747
37102SOL     OW13202  12.206  12.117  10.530
37102SOL    HW113203  12.142  12.185  10.548
37102SOL    HW213204  12.261  12.112  10.608
37103SOL     OW13205   0.754   0.556  13.608
37103SOL    HW113206   0.672   0.549  13.558
37103SOL    HW213207   0.727   0.578  13.697
37104SOL     OW13208   4.472  14.307   4.354
37104SOL    HW113209   4.387  14.286   4.394
37104SOL    HW213210   4.516  14.363   4.418
37105SOL     OW13211   3.047   5.742   7.022
37105SOL    HW113212   2.992   5.690   6.964
37105SOL    HW213213   3.135   5.707   7.009
37106SOL     OW13214   5.307   3.779   0.040
37106SOL    HW113215   5.387   3.832   0.037
37106SOL    HW213216   5.236   3.842   0.037
37107SOL     OW13217  11.169   9.609   8.768
37107SOL    HW113218  11.146   9.548   8.697
37107SOL    HW213219  11.243   9.658   8.733
37108SOL     OW13220   0.364  12.852   6.014
37108SOL    HW113221   0.404  12.770   5.987
37108SOL    HW213222   0.276  12.828   6.042
37109SOL     OW13223  10.883  10.278   2.641
37109SOL    HW113224  10.917  10.325   2.717
37109SOL    HW213225  10.942  10.300   2.569
37110SOL     OW13226   0.947   8.741  10.885
37110SOL    HW113227   0.976   8.811  10.944
37110SOL    HW213228   0.954   8.661  10.938
37111SOL     OW13229   5.625   7.044  10.189
37111SOL    HW113230   5.576   6.975  10.233
37111SOL    HW213231   5.582   7.125  10.217
37112SOL     OW13232   2.774   8.579  12.340
37112SOL    HW113233   2.816   8.501  12.373
37112SOL    HW213234   2.693   8.548  12.300
37113SOL     OW13235  10.392   0.003  10.020
37113SOL    HW113236  10.377   0.056  10.098
37113SOL    HW213237  10.487   0.003  10.009
37114SOL     OW13238   0.886   9.621   9.804
37114SOL    HW113239   0.835   9.545   9.776
37114SOL    HW213240   0.827   9.695   9.790
37115SOL     OW13241   5.962   5.324   0.800
37115SOL    HW113242   6.055   5.323   0.821
37115SOL    HW213243   5.922   5.263   0.862
37116SOL     OW13244   2.244   7.690  13.185
37116SOL    HW113245   2.174   7.695  13.120
37116SOL    HW213246   2.233   7.604  13.225
37117SOL     OW13247  13.386  10.421  11.136
37117SOL    HW113248  13.477  10.426  11.163
37117SOL    HW213249  13.382  10.471  11.054
37118SOL     OW13250  10.919   4.430   2.491
37118SOL    HW113251  10.966   4.484   2.427
37118SOL    HW213252  10.827   4.433   2.463
37119SOL     OW13253   1.869  14.628   0.628
37119SOL    HW113254   1.925  14.564   0.671
37119SOL    HW213255   1.832  14.581   0.553
37120SOL     OW13256  14.054  10.123   1.460
37120SOL    HW113257  14.139  10.090   1.432
37120SOL    HW213258  14.011  10.047   1.499
37121SOL     OW13259   1.730   6.268   0.303
37121SOL    HW113260   1.740   6.211   0.227
37121SOL    HW213261   1.667   6.222   0.360
37122SOL     OW13262   9.389   1.941   2.890
37122SOL    HW113263   9.424   2.029   2.909
37122SOL    HW213264   9.358   1.947   2.800
37123SOL     OW13265   6.197   8.184   4.748
37123SOL    HW113266   6.117   8.191   4.697
37123SOL    HW213267   6.169   8.147   4.832
37124SOL     OW13268   6.381   0.341   4.898
37124SOL    HW113269   6.320   0.318   4.828
37124SOL    HW213270   6.455   0.281   4.886
37125SOL     OW13271  13.482   2.978   4.219
37125SOL    HW113272  13.575   2.986   4.239
37125SOL    HW213273  13.462   3.057   4.168
37126SOL     OW13274  10.053  11.708   5.783
37126SOL    HW113275  10.070  11.781   5.724
37126SOL    HW213276   9.967  11.726   5.821
37127SOL     OW13277  11.817   2.355   9.636
37127SOL    HW113278  11.805   2.434   9.688
37127SOL    HW213279  11.740   2.301   9.656
37128SOL     OW13280   5.413   3.289   3.868
37128SOL    HW113281   5.403   3.308   3.774
37128SOL    HW213282   5.323   3.275   3.899
37129SOL     OW13283   9.135   0.799   5.992
37129SOL    HW113284   9.080   0.781   6.068
37129SOL    HW213285   9.084   0.860   5.939
37130SOL     OW13286  10.789   7.269   8.514
37130SOL    HW113287  10.821   7.185   8.548
37130SOL    HW213288  10.860   7.302   8.460
37131SOL     OW13289   1.660   4.467   3.221
37131SOL    HW113290   1.717   4.415   3.278
37131SOL    HW213291   1.577   4.472   3.269
37132SOL     OW13292   7.705   1.636  10.956
37132SOL    HW113293   7.715   1.542  10.939
37132SOL    HW213294   7.710   1.643  11.052
37133SOL     OW13295  12.963   9.389   5.473
37133SOL    HW113296  12.919   9.317   5.517
37133SOL    HW213297  12.903   9.414   5.403
37134SOL     OW13298   6.059   8.787  14.377
37134SOL    HW113299   6.142   8.767  14.420
37134SOL    HW213300   6.051   8.882  14.385
37135SOL     OW13301   5.422   6.437   1.843
37135SOL    HW113302   5.416   6.359   1.787
37135SOL    HW213303   5.394   6.407   1.930
37136SOL     OW13304   0.051   3.616   3.910
37136SOL    HW113305   0.141   3.587   3.894
37136SOL    HW213306  14.877   3.540   3.888
37137SOL     OW13307  14.663   9.986   1.878
37137SOL    HW113308  14.662  10.050   1.949
37137SOL    HW213309  14.600   9.919   1.906
37138SOL     OW13310   0.374   9.138  10.596
37138SOL    HW113311   0.409   9.062  10.642
37138SOL    HW213312   0.399   9.213  10.650
37139SOL     OW13313  10.436   5.335   6.313
37139SOL    HW113314  10.527   5.336   6.282
37139SOL    HW213315  10.384   5.329   6.234
37140SOL     OW13316   5.369   7.149   2.737
37140SOL    HW113317   5.436   7.148   2.669
37140SOL    HW213318   5.382   7.234   2.781
37141SOL     OW13319   2.385   6.036   9.145
37141SOL    HW113320   2.385   5.954   9.194
37141SOL    HW213321   2.476   6.066   9.148
37142SOL     OW13322   0.739   7.010   7.645
37142SOL    HW113323   0.783   7.095   7.641
37142SOL    HW213324   0.710   6.994   7.555
37143SOL     OW13325   8.286   1.661   3.482
37143SOL    HW113326   8.311   1.714   3.558
37143SOL    HW213327   8.254   1.579   3.520
37144SOL     OW13328   9.179  11.783   4.146
37144SOL    HW113329   9.140  11.788   4.234
37144SOL    HW213330   9.270  11.762   4.162
37145SOL     OW13331   5.222   9.392   7.891
37145SOL    HW113332   5.307   9.386   7.934
37145SOL    HW213333   5.182   9.471   7.927
37146SOL     OW13334   9.644   0.727   9.023
37146SOL    HW113335   9.629   0.666   9.094
37146SOL    HW213336   9.731   0.764   9.040
37147SOL     OW13337   3.069   1.790   8.985
37147SOL    HW113338   3.126   1.770   9.059
37147SOL    HW213339   3.128   1.793   8.909
37148SOL     OW13340  13.222   6.342  12.635
37148SOL    HW113341  13.254   6.257  12.603
37148SOL    HW213342  13.298   6.400  12.628
37149SOL     OW13343   3.854  12.110   8.409
37149SOL    HW113344   3.910  12.176   8.451
37149SOL    HW213345   3.765  12.144   8.419
37150SOL     OW13346   2.094  10.515   9.282
37150SOL    HW113347   2.071  10.545   9.370
37150SOL    HW213348   2.189  10.503   9.286
37151SOL     OW13349   8.099  11.910   0.391
37151SOL    HW113350   8.081  11.963   0.469
37151SOL    HW213351   8.132  11.827   0.426
37152SOL     OW13352   8.352   5.844   2.638
37152SOL    HW113353   8.420   5.790   2.597
37152SOL    HW213354   8.400   5.907   2.692
37153SOL     OW13355   8.032   3.633  12.964
37153SOL    HW113356   7.976   3.625  12.887
37153SOL    HW213357   8.051   3.543  12.990
37154SOL     OW13358  11.441  14.874   1.274
37154SOL    HW113359  11.481   0.029   1.353
37154SOL    HW213360  11.464   0.057   1.206
37155SOL     OW13361   3.167  10.761  10.364
37155SOL    HW113362   3.121  10.744  10.281
37155SOL    HW213363   3.259  10.753  10.342
37156SOL     OW13364   8.082  13.136  13.513
37156SOL    HW113365   8.029  13.148  13.434
37156SOL    HW213366   8.061  13.047  13.542
37157SOL     OW13367   0.742   7.225   6.215
37157SOL    HW113368   0.649   7.209   6.199
37157SOL    HW213369   0.747   7.245   6.309
37158SOL     OW13370   6.116   8.972   4.846
37158SOL    HW113371   6.126   8.907   4.777
37158SOL    HW213372   6.117   8.921   4.928
37159SOL     OW13373  12.651  10.451   6.230
37159SOL    HW113374  12.640  10.423   6.321
37159SOL    HW213375  12.587  10.398   6.181
37160SOL     OW13376  10.664   0.293   8.719
37160SOL    HW113377  10.625   0.293   8.632
37160SOL    HW213378  10.601   0.338   8.774
37161SOL     OW13379  10.893   9.440   5.443
37161SOL    HW113380  10.898   9.449   5.539
37161SOL    HW213381  10.971   9.485   5.411
37162SOL     OW13382  12.093   7.667   6.895
37162SOL    HW113383  12.072   7.583   6.855
37162SOL    HW213384  12.182   7.656   6.928
37163SOL     OW13385   1.442  13.971   0.298
37163SOL    HW113386   1.471  13.999   0.211
37163SOL    HW213387   1.511  13.912   0.328
37164SOL     OW13388   8.356   7.151   6.604
37164SOL    HW113389   8.406   7.179   6.680
37164SOL    HW213390   8.410   7.177   6.529
37165SOL     OW13391   4.429  11.917   3.412
37165SOL    HW113392   4.491  11.846   3.396
37165SOL    HW213393   4.360  11.905   3.347
37166SOL     OW13394  11.158  10.743   4.275
37166SOL    HW113395  11.111  10.823   4.251
37166SOL    HW213396  11.147  10.685   4.200
37167SOL     OW13397   8.978   0.049   3.060
37167SOL    HW113398   8.999   0.074   2.970
37167SOL    HW213399   8.928   0.122   3.095
37168SOL     OW13400  13.977   4.078  14.830
37168SOL    HW113401  13.950   4.116  14.747
37168SOL    HW213402  13.901   4.089   0.007
37169SOL     OW13403   8.610  11.541   7.101
37169SOL    HW113404   8.603  11.535   7.006
37169SOL    HW213405   8.644  11.456   7.129
37170SOL     OW13406   2.320   5.494   1.070
37170SOL    HW113407   2.295   5.578   1.032
37170SOL    HW213408   2.369   5.516   1.149
37171SOL     OW13409   4.353   7.394   9.847
37171SOL    HW113410   4.294   7.323   9.874
37171SOL    HW213411   4.413   7.354   9.785
37172SOL     OW13412  13.801  14.217  10.085
37172SOL    HW113413  13.767  14.246  10.170
37172SOL    HW213414  13.796  14.121  10.089
37173SOL     OW13415   4.943   7.588   1.247
37173SOL    HW113416   4.929   7.565   1.339
37173SOL    HW213417   4.858   7.615   1.215
37174SOL     OW13418   9.184   9.518   5.233
37174SOL    HW113419   9.217   9.511   5.144
37174SOL    HW213420   9.091   9.536   5.224
37175SOL     OW13421   8.447   7.158   6.874
37175SOL    HW113422   8.373   7.181   6.929
37175SOL    HW213423   8.518   7.216   6.902
37176SOL     OW13424   9.427  11.435   5.523
37176SOL    HW113425   9.459  11.388   5.600
37176SOL    HW213426   9.345  11.392   5.501
37177SOL     OW13427   3.264  10.505  12.184
37177SOL    HW113428   3.183  10.458  12.164
37177SOL    HW213429   3.325  10.477  12.116
37178SOL     OW13430   5.186   7.905   0.770
37178SOL    HW113431   5.103   7.873   0.805
37178SOL    HW213432   5.248   7.896   0.843
37179SOL     OW13433   9.658   3.271  14.025
37179SOL    HW113434   9.747   3.299  14.048
37179SOL    HW213435   9.603   3.343  14.056
37180SOL     OW13436   0.567   8.974   3.798
37180SOL    HW113437   0.512   8.968   3.875
37180SOL    HW213438   0.657   8.979   3.832
37181SOL     OW13439  14.735   6.408  13.164
37181SOL    HW113440  14.807   6.350  13.142
37181SOL    HW213441  14.769   6.496  13.147
37182SOL     OW13442   3.422  14.279   9.457
37182SOL    HW113443   3.405  14.187   9.477
37182SOL    HW213444   3.375  14.328   9.524
37183SOL     OW13445  10.144  14.221  13.013
37183SOL    HW113446  10.122  14.294  13.072
37183SOL    HW213447  10.238  14.230  12.999
37184SOL     OW13448  13.740   7.553  13.367
37184SOL    HW113449  13.737   7.640  13.327
37184SOL    HW213450  13.684   7.499  13.311
37185SOL     OW13451  10.271   0.785   6.155
37185SOL    HW113452  10.195   0.736   6.186
37185SOL    HW213453  10.256   0.799   6.062
37186SOL     OW13454   9.121  10.172   4.559
37186SOL    HW113455   9.128  10.078   4.544
37186SOL    HW213456   9.186  10.190   4.627
37187SOL     OW13457   0.785   2.651   1.307
37187SOL    HW113458   0.704   2.601   1.295
37187SOL    HW213459   0.806   2.640   1.400
37188SOL     OW13460   4.661  12.402   0.732
37188SOL    HW113461   4.650  12.472   0.796
37188SOL    HW213462   4.713  12.441   0.662
37189SOL     OW13463   0.600   2.516   4.163
37189SOL    HW113464   0.640   2.602   4.156
37189SOL    HW213465   0.663   2.457   4.122
37190SOL     OW13466   1.281  11.311   6.935
37190SOL    HW113467   1.269  11.217   6.922
37190SOL    HW213468   1.370  11.329   6.904
37191SOL     OW13469   0.688  12.208   2.547
37191SOL    HW113470   0.729  12.144   2.605
37191SOL    HW213471   0.732  12.291   2.569
37192SOL     OW13472   6.743   1.694  13.779
37192SOL    HW113473   6.781   1.610  13.806
37192SOL    HW213474   6.676   1.712  13.844
37193SOL     OW13475   2.276   5.307  10.151
37193SOL    HW113476   2.324   5.372  10.100
37193SOL    HW213477   2.309   5.316  10.240
37194SOL     OW13478   9.537   6.954   9.733
37194SOL    HW113479   9.475   6.959   9.805
37194SOL    HW213480   9.593   6.879   9.755
37195SOL     OW13481   7.390   8.108   6.914
37195SOL    HW113482   7.404   8.038   6.978
37195SOL    HW213483   7.323   8.073   6.855
37196SOL     OW13484  12.804   8.575   5.939
37196SOL    HW113485  12.859   8.580   6.017
37196SOL    HW213486  12.714   8.574   5.973
37197SOL     OW13487  14.670   5.483   2.828
37197SOL    HW113488  14.674   5.578   2.840
37197SOL    HW213489  14.593   5.456   2.878
37198SOL     OW13490   6.244   9.233   5.395
37198SOL    HW113491   6.225   9.180   5.318
37198SOL    HW213492   6.294   9.174   5.452
37199SOL     OW13493   3.253   5.548  14.265
37199SOL    HW113494   3.321   5.481  14.257
37199SOL    HW213495   3.295   5.628  14.234
37200SOL     OW13496   0.008  14.186  11.035
37200SOL    HW113497   0.032  14.185  10.942
37200SOL    HW213498   0.063  14.119  11.075
37201SOL     OW13499   3.553   9.131   0.617
37201SOL    HW113500   3.492   9.062   0.643
37201SOL    HW213501   3.498   9.195   0.571
37202SOL     OW13502   8.657   2.030   3.493
37202SOL    HW113503   8.675   2.024   3.400
37202SOL    HW213504   8.628   1.942   3.518
37203SOL     OW13505   2.533   4.577  13.868
37203SOL    HW113506   2.488   4.529  13.938
37203SOL    HW213507   2.476   4.651  13.848
37204SOL     OW13508   7.140   4.086  10.807
37204SOL    HW113509   7.056   4.081  10.851
37204SOL    HW213510   7.190   4.151  10.857
37205SOL     OW13511  12.807   3.787  11.326
37205SOL    HW113512  12.749   3.743  11.264
37205SOL    HW213513  12.833   3.868  11.280
37206SOL     OW13514  13.681   7.118   3.653
37206SOL    HW113515  13.601   7.105   3.603
37206SOL    HW213516  13.704   7.210   3.640
37207SOL     OW13517   1.521  12.126   4.134
37207SOL    HW113518   1.464  12.050   4.129
37207SOL    HW213519   1.512  12.158   4.224
37208SOL     OW13520  12.192   9.304   8.781
37208SOL    HW113521  12.154   9.368   8.721
37208SOL    HW213522  12.281   9.337   8.798
37209SOL     OW13523   3.786  10.653   3.380
37209SOL    HW113524   3.709  10.619   3.424
37209SOL    HW213525   3.805  10.589   3.312
37210SOL     OW13526   5.718   3.483   7.232
37210SOL    HW113527   5.788   3.485   7.167
37210SOL    HW213528   5.761   3.510   7.314
37211SOL     OW13529   2.141   3.189  10.731
37211SOL    HW113530   2.145   3.147  10.645
37211SOL    HW213531   2.231   3.188  10.763
37212SOL     OW13532   0.638  13.844   5.763
37212SOL    HW113533   0.560  13.804   5.725
37212SOL    HW213534   0.627  13.836   5.858
37213SOL     OW13535   0.841   0.201   9.539
37213SOL    HW113536   0.920   0.228   9.492
37213SOL    HW213537   0.826   0.110   9.511
37214SOL     OW13538  12.656   9.256  12.445
37214SOL    HW113539  12.672   9.338  12.399
37214SOL    HW213540  12.581   9.274  12.502
37215SOL     OW13541  10.385   0.637   4.686
37215SOL    HW113542  10.379   0.656   4.780
37215SOL    HW213543  10.305   0.588   4.667
37216SOL     OW13544   0.533   8.623   3.942
37216SOL    HW113545   0.466   8.690   3.934
37216SOL    HW213546   0.596   8.643   3.873
37217SOL     OW13547  12.021  10.507   4.473
37217SOL    HW113548  11.948  10.551   4.517
37217SOL    HW213549  11.989  10.418   4.455
37218SOL     OW13550  10.972  10.435  11.831
37218SOL    HW113551  11.004  10.377  11.762
37218SOL    HW213552  10.900  10.483  11.790
37219SOL     OW13553   6.812   1.906   9.562
37219SOL    HW113554   6.863   1.910   9.643
37219SOL    HW213555   6.871   1.941   9.495
37220SOL     OW13556   2.344   0.628  10.539
37220SOL    HW113557   2.300   0.551  10.504
37220SOL    HW213558   2.345   0.614  10.634
37221SOL     OW13559   3.935   1.323   7.547
37221SOL    HW113560   3.929   1.418   7.549
37221SOL    HW213561   4.021   1.304   7.508
37222SOL     OW13562   8.450  11.712  11.824
37222SOL    HW113563   8.482  11.686  11.737
37222SOL    HW213564   8.501  11.790  11.845
37223SOL     OW13565   8.195   5.906   1.724
37223SOL    HW113566   8.223   5.888   1.634
37223SOL    HW213567   8.258   5.860   1.779
37224SOL     OW13568   5.482   2.668   5.194
37224SOL    HW113569   5.457   2.589   5.147
37224SOL    HW213570   5.575   2.657   5.214
37225SOL     OW13571  11.106   6.336   2.906
37225SOL    HW113572  11.121   6.318   2.813
37225SOL    HW213573  11.041   6.406   2.906
37226SOL     OW13574   8.714   8.662  13.510
37226SOL    HW113575   8.754   8.584  13.548
37226SOL    HW213576   8.754   8.735  13.557
37227SOL     OW13577  13.630   1.159  13.775
37227SOL    HW113578  13.597   1.174  13.686
37227SOL    HW213579  13.689   1.084  13.766
37228SOL     OW13580   5.673   4.918   2.334
37228SOL    HW113581   5.745   4.942   2.392
37228SOL    HW213582   5.617   4.861   2.388
37229SOL     OW13583  12.698   0.034   5.288
37229SOL    HW113584  12.791   0.040   5.312
37229SOL    HW213585  12.674  14.824   5.311
37230SOL     OW13586   9.762   7.393  14.801
37230SOL    HW113587   9.820   7.330  14.758
37230SOL    HW213588   9.814   7.473  14.807
37231SOL     OW13589   4.994   9.265   4.934
37231SOL    HW113590   4.920   9.204   4.941
37231SOL    HW213591   4.958   9.341   4.888
37232SOL     OW13592   6.620   6.375   6.174
37232SOL    HW113593   6.676   6.300   6.194
37232SOL    HW213594   6.532   6.346   6.196
37233SOL     OW13595  14.381   2.484  11.920
37233SOL    HW113596  14.308   2.472  11.980
37233SOL    HW213597  14.342   2.518  11.840
37234SOL     OW13598  12.030   0.047   4.186
37234SOL    HW113599  12.102   0.105   4.211
37234SOL    HW213600  11.964   0.107   4.149
37235SOL     OW13601  14.032  13.162   4.263
37235SOL    HW113602  14.087  13.205   4.197
37235SOL    HW213603  14.093  13.110   4.315
37236SOL     OW13604   0.104   3.542   6.925
37236SOL    HW113605   0.160   3.469   6.951
37236SOL    HW213606   0.016   3.516   6.952
37237SOL     OW13607   6.951  13.649   3.022
37237SOL    HW113608   6.991  13.662   3.108
37237SOL    HW213609   6.876  13.593   3.038
37238SOL     OW13610   6.710  11.341  11.678
37238SOL    HW113611   6.785  11.385  11.638
37238SOL    HW213612   6.642  11.408  11.683
37239SOL     OW13613   1.479  12.659  13.041
37239SOL    HW113614   1.453  12.696  12.956
37239SOL    HW213615   1.473  12.733  13.102
37240SOL     OW13616  13.763  10.531   9.834
37240SOL    HW113617  13.679  10.531   9.880
37240SOL    HW213618  13.818  10.591   9.884
37241SOL     OW13619  14.056  13.661  10.796
37241SOL    HW113620  13.963  13.682  10.784
37241SOL    HW213621  14.079  13.608  10.720
37242SOL     OW13622  10.933  12.506   0.616
37242SOL    HW113623  10.980  12.423   0.620
37242SOL    HW213624  10.919  12.522   0.523
37243SOL     OW13625   8.766  14.790   0.885
37243SOL    HW113626   8.841  14.814   0.939
37243SOL    HW213627   8.797  14.799   0.795
37244SOL     OW13628   3.529   7.162  13.360
37244SOL    HW113629   3.539   7.160  13.455
37244SOL    HW213630   3.524   7.255  13.339
37245SOL     OW13631  11.165   9.882   6.098
37245SOL    HW113632  11.187   9.849   6.010
37245SOL    HW213633  11.101   9.951   6.082
37246SOL     OW13634   6.125  14.865  11.060
37246SOL    HW113635   6.044  14.823  11.087
37246SOL    HW213636   6.098   0.051  10.996
37247SOL     OW13637   5.225  14.246  13.875
37247SOL    HW113638   5.246  14.153  13.871
37247SOL    HW213639   5.139  14.249  13.917
37248SOL     OW13640  13.961   5.326   5.292
37248SOL    HW113641  13.938   5.403   5.240
37248SOL    HW213642  13.956   5.253   5.230
37249SOL     OW13643   4.616   8.424  14.787
37249SOL    HW113644   4.704   8.461  14.779
37249SOL    HW213645   4.607   8.404   0.000
37250SOL     OW13646   4.949   1.149   9.617
37250SOL    HW113647   4.972   1.098   9.540
37250SOL    HW213648   5.032   1.162   9.663
37251SOL     OW13649   5.706  10.983   1.629
37251SOL    HW113650   5.634  11.023   1.678
37251SOL    HW213651   5.772  10.961   1.695
37252SOL     OW13652  10.370  12.707  14.538
37252SOL    HW113653  10.360  12.681  14.447
37252SOL    HW213654  10.423  12.787  14.534
37253SOL     OW13655   0.605   0.401   6.207
37253SOL    HW113656   0.699   0.385   6.202
37253SOL    HW213657   0.570   0.330   6.260
37254SOL     OW13658   9.637   0.306  14.844
37254SOL    HW113659   9.699   0.252  14.795
37254SOL    HW213660   9.607   0.250   0.035
37255SOL     OW13661   9.017  10.053   3.041
37255SOL    HW113662   9.023  10.122   3.108
37255SOL    HW213663   9.095  10.000   3.054
37256SOL     OW13664   0.468   1.605   5.745
37256SOL    HW113665   0.408   1.569   5.811
37256SOL    HW213666   0.412   1.632   5.673
37257SOL     OW13667   3.571   8.307   0.356
37257SOL    HW113668   3.495   8.285   0.303
37257SOL    HW213669   3.577   8.236   0.420
37258SOL     OW13670   7.947   9.062   8.534
37258SOL    HW113671   8.002   9.014   8.472
37258SOL    HW213672   7.904   9.130   8.482
37259SOL     OW13673  13.467   8.614   1.209
37259SOL    HW113674  13.465   8.563   1.290
37259SOL    HW213675  13.552   8.657   1.211
37260SOL     OW13676  13.211  10.691   3.586
37260SOL    HW113677  13.174  10.779   3.598
37260SOL    HW213678  13.187  10.667   3.497
37261SOL     OW13679  12.735  13.811   6.933
37261SOL    HW113680  12.728  13.739   6.870
37261SOL    HW213681  12.734  13.891   6.879
37262SOL     OW13682   3.175  13.899   3.720
37262SOL    HW113683   3.136  13.824   3.765
37262SOL    HW213684   3.208  13.863   3.638
37263SOL     OW13685  12.900   7.084  11.179
37263SOL    HW113686  12.843   7.128  11.116
37263SOL    HW213687  12.893   6.991  11.157
37264SOL     OW13688  11.956  14.030   1.006
37264SOL    HW113689  12.035  14.070   1.041
37264SOL    HW213690  11.920  13.978   1.078
37265SOL     OW13691  13.573   7.608   0.848
37265SOL    HW113692  13.506   7.623   0.915
37265SOL    HW213693  13.523   7.583   0.770
37266SOL     OW13694   6.717   8.980  12.732
37266SOL    HW113695   6.747   8.889  12.740
37266SOL    HW213696   6.623   8.975  12.750
37267SOL     OW13697   6.676   6.875  11.024
37267SOL    HW113698   6.719   6.805  10.975
37267SOL    HW213699   6.586   6.877  10.990
37268SOL     OW13700  10.277   2.267   1.311
37268SOL    HW113701  10.353   2.315   1.279
37268SOL    HW213702  10.311   2.182   1.336
37269SOL     OW13703   6.218   4.106  12.996
37269SOL    HW113704   6.192   4.036  12.937
37269SOL    HW213705   6.211   4.186  12.943
37270SOL     OW13706   6.677   3.304  10.600
37270SOL    HW113707   6.625   3.317  10.680
37270SOL    HW213708   6.643   3.224  10.561
37271SOL     OW13709   2.534  12.219   8.370
37271SOL    HW113710   2.492  12.179   8.446
37271SOL    HW213711   2.469  12.213   8.300
37272SOL     OW13712   7.688   0.369   8.757
37272SOL    HW113713   7.648   0.417   8.685
37272SOL    HW213714   7.675   0.425   8.834
37273SOL     OW13715   0.240   6.564  12.915
37273SOL    HW113716   0.222   6.613  12.995
37273SOL    HW213717   0.177   6.492  12.916
37274SOL     OW13718   5.275  13.407   2.790
37274SOL    HW113719   5.316  13.473   2.734
37274SOL    HW213720   5.186  13.399   2.756
37275SOL     OW13721   6.531   3.166  13.810
37275SOL    HW113722   6.448   3.199  13.774
37275SOL    HW213723   6.568   3.113  13.740
37276SOL     OW13724   6.643   5.120  12.860
37276SOL    HW113725   6.570   5.180  12.843
37276SOL    HW213726   6.612   5.036  12.826
37277SOL     OW13727   7.570   9.117  10.880
37277SOL    HW113728   7.658   9.144  10.852
37277SOL    HW213729   7.572   9.022  10.875
37278SOL     OW13730  11.853   9.949   9.951
37278SOL    HW113731  11.784   9.893   9.915
37278SOL    HW213732  11.921   9.888   9.979
37279SOL     OW13733   9.284   1.747  10.401
37279SOL    HW113734   9.366   1.701  10.385
37279SOL    HW213735   9.302   1.837  10.375
37280SOL     OW13736   5.899   6.515   5.388
37280SOL    HW113737   5.906   6.608   5.408
37280SOL    HW213738   5.848   6.478   5.460
37281SOL     OW13739   1.652   8.001   5.879
37281SOL    HW113740   1.730   8.013   5.933
37281SOL    HW213741   1.583   7.981   5.942
37282SOL     OW13742   5.895   9.320  10.095
37282SOL    HW113743   5.871   9.300  10.004
37282SOL    HW213744   5.816   9.360  10.131
37283SOL     OW13745  14.137   4.530   0.302
37283SOL    HW113746  14.127   4.443   0.342
37283SOL    HW213747  14.050   4.569   0.308
37284SOL     OW13748   0.545  10.173   1.170
37284SOL    HW113749   0.553  10.204   1.260
37284SOL    HW213750   0.451  10.158   1.159
37285SOL     OW13751   1.949  14.062  10.343
37285SOL    HW113752   1.994  14.099  10.419
37285SOL    HW213753   1.862  14.102  10.345
37286SOL     OW13754   5.014   8.804   1.820
37286SOL    HW113755   5.099   8.821   1.860
37286SOL    HW213756   5.019   8.714   1.789
37287SOL     OW13757   6.282  12.665   1.737
37287SOL    HW113758   6.208  12.722   1.755
37287SOL    HW213759   6.243  12.583   1.706
37288SOL     OW13760  14.255   2.688   7.870
37288SOL    HW113761  14.257   2.624   7.942
37288SOL    HW213762  14.191   2.653   7.808
37289SOL     OW13763   4.342   9.771   3.766
37289SOL    HW113764   4.413   9.745   3.824
37289SOL    HW213765   4.349   9.866   3.761
37290SOL     OW13766   2.450  14.095   4.593
37290SOL    HW113767   2.366  14.130   4.623
37290SOL    HW213768   2.508  14.171   4.590
37291SOL     OW13769  10.858   1.779   1.868
37291SOL    HW113770  10.837   1.687   1.858
37291SOL    HW213771  10.940   1.781   1.917
37292SOL     OW13772  11.561   3.074  12.568
37292SOL    HW113773  11.566   2.995  12.621
37292SOL    HW213774  11.634   3.128  12.598
37293SOL     OW13775   8.472   6.406   6.119
37293SOL    HW113776   8.535   6.383   6.187
37293SOL    HW213777   8.465   6.502   6.125
37294SOL     OW13778  12.939   1.960   9.424
37294SOL    HW113779  12.983   1.919   9.350
37294SOL    HW213780  12.876   2.019   9.384
37295SOL     OW13781   3.833   1.353   4.527
37295SOL    HW113782   3.847   1.446   4.543
37295SOL    HW213783   3.914   1.311   4.558
37296SOL     OW13784  13.171  11.674  14.665
37296SOL    HW113785  13.176  11.583  14.634
37296SOL    HW213786  13.121  11.669  14.746
37297SOL     OW13787   1.465   6.659   8.621
37297SOL    HW113788   1.456   6.612   8.539
37297SOL    HW213789   1.553   6.638   8.652
37298SOL     OW13790   9.546  10.949   8.281
37298SOL    HW113791   9.476  11.008   8.250
37298SOL    HW213792   9.617  10.963   8.219
37299SOL     OW13793   8.752   5.385   0.507
37299SOL    HW113794   8.771   5.373   0.600
37299SOL    HW213795   8.710   5.303   0.480
37300SOL     OW13796   8.456   6.369   4.429
37300SOL    HW113797   8.450   6.274   4.417
37300SOL    HW213798   8.531   6.381   4.487
37301SOL     OW13799   1.004  12.732  10.639
37301SOL    HW113800   1.087  12.685  10.640
37301SOL    HW213801   0.938  12.665  10.627
37302SOL     OW13802   0.291   9.577   1.204
37302SOL    HW113803   0.374   9.541   1.235
37302SOL    HW213804   0.234   9.501   1.194
37303SOL     OW13805   5.892  12.326   5.445
37303SOL    HW113806   5.937  12.242   5.448
37303SOL    HW213807   5.960  12.388   5.417
37304SOL     OW13808  12.494   2.705   7.368
37304SOL    HW113809  12.577   2.696   7.415
37304SOL    HW213810  12.518   2.745   7.284
37305SOL     OW13811   4.280  14.426   1.721
37305SOL    HW113812   4.242  14.497   1.773
37305SOL    HW213813   4.373  14.447   1.717
37306SOL     OW13814  12.012  13.103  12.018
37306SOL    HW113815  12.005  13.137  12.107
37306SOL    HW213816  12.074  13.031  12.025
37307SOL     OW13817  12.488   9.484   5.941
37307SOL    HW113818  12.418   9.490   6.006
37307SOL    HW213819  12.561   9.445   5.989
37308SOL     OW13820   4.679   4.434   1.004
37308SOL    HW113821   4.663   4.341   0.987
37308SOL    HW213822   4.774   4.443   0.999
37309SOL     OW13823   8.319  13.012   2.129
37309SOL    HW113824   8.296  13.104   2.142
37309SOL    HW213825   8.367  13.011   2.046
37310SOL     OW13826  11.321   6.891   9.250
37310SOL    HW113827  11.401   6.879   9.198
37310SOL    HW213828  11.257   6.832   9.210
37311SOL     OW13829  10.340  14.437   0.646
37311SOL    HW113830  10.358  14.495   0.572
37311SOL    HW213831  10.352  14.349   0.610
37312SOL     OW13832   4.010  13.118   9.066
37312SOL    HW113833   3.920  13.091   9.047
37312SOL    HW213834   4.062  13.075   8.998
37313SOL     OW13835  12.158   2.137   3.796
37313SOL    HW113836  12.196   2.225   3.805
37313SOL    HW213837  12.064   2.150   3.810
37314SOL     OW13838   5.292   8.205   4.722
37314SOL    HW113839   5.253   8.277   4.772
37314SOL    HW213840   5.329   8.147   4.788
37315SOL     OW13841  11.573   6.364   1.807
37315SOL    HW113842  11.632   6.388   1.878
37315SOL    HW213843  11.496   6.419   1.819
37316SOL     OW13844  14.389   1.044   6.738
37316SOL    HW113845  14.481   1.063   6.721
37316SOL    HW213846  14.391   0.975   6.804
37317SOL     OW13847   3.339   3.215   2.255
37317SOL    HW113848   3.272   3.166   2.303
37317SOL    HW213849   3.355   3.293   2.309
37318SOL     OW13850   9.741   6.553   4.875
37318SOL    HW113851   9.831   6.520   4.866
37318SOL    HW213852   9.702   6.498   4.944
37319SOL     OW13853   0.286   2.599   1.760
37319SOL    HW113854   0.330   2.656   1.822
37319SOL    HW213855   0.213   2.562   1.809
37320SOL     OW13856  12.414  10.058   5.916
37320SOL    HW113857  12.399   9.964   5.907
37320SOL    HW213858  12.508  10.065   5.935
37321SOL     OW13859   5.499  11.411  14.342
37321SOL    HW113860   5.440  11.385  14.272
37321SOL    HW213861   5.581  11.365  14.324
37322SOL     OW13862   4.410   6.867   7.572
37322SOL    HW113863   4.487   6.906   7.614
37322SOL    HW213864   4.355   6.942   7.550
37323SOL     OW13865   5.929   3.092   7.271
37323SOL    HW113866   5.865   3.020   7.273
37323SOL    HW213867   5.949   3.103   7.178
37324SOL     OW13868  12.938  11.970   0.227
37324SOL    HW113869  12.867  11.996   0.285
37324SOL    HW213870  12.942  11.875   0.235
37325SOL     OW13871   8.087  14.803   8.170
37325SOL    HW113872   8.070  14.782   8.078
37325SOL    HW213873   8.178  14.832   8.172
37326SOL     OW13874   0.020   7.352   2.822
37326SOL    HW113875   0.103   7.361   2.868
37326SOL    HW213876   0.038   7.290   2.752
37327SOL     OW13877   1.671   3.344  10.157
37327SOL    HW113878   1.587   3.334  10.202
37327SOL    HW213879   1.727   3.391  10.220
37328SOL     OW13880   0.445  10.839  14.841
37328SOL    HW113881   0.373  10.856   0.021
37328SOL    HW213882   0.421  10.886  14.761
37329SOL     OW13883   7.665   2.183   4.454
37329SOL    HW113884   7.680   2.274   4.480
37329SOL    HW213885   7.570   2.172   4.461
37330SOL     OW13886   4.812  13.204   9.624
37330SOL    HW113887   4.899  13.233   9.652
37330SOL    HW213888   4.785  13.267   9.557
37331SOL     OW13889   9.593  14.027   0.532
37331SOL    HW113890   9.550  14.108   0.507
37331SOL    HW213891   9.604  14.033   0.627
37332SOL     OW13892   3.990  12.775  10.555
37332SOL    HW113893   4.075  12.787  10.511
37332SOL    HW213894   3.926  12.777  10.484
37333SOL     OW13895   5.887   8.247   9.552
37333SOL    HW113896   5.810   8.190   9.560
37333SOL    HW213897   5.930   8.241   9.637
37334SOL     OW13898   3.926   9.896   3.770
37334SOL    HW113899   3.968   9.979   3.792
37334SOL    HW213900   3.890   9.864   3.852
37335SOL     OW13901   7.324  10.327   9.235
37335SOL    HW113902   7.417  10.340   9.252
37335SOL    HW213903   7.318  10.317   9.140
37336SOL     OW13904   5.370   5.448   3.837
37336SOL    HW113905   5.354   5.490   3.922
37336SOL    HW213906   5.465   5.450   3.827
37337SOL     OW13907   4.944   7.445   1.980
37337SOL    HW113908   4.930   7.539   1.989
37337SOL    HW213909   4.907   7.424   1.894
37338SOL     OW13910   7.965   9.791   3.073
37338SOL    HW113911   7.901   9.720   3.077
37338SOL    HW213912   8.045   9.750   3.039
37339SOL     OW13913  14.635   7.536   5.367
37339SOL    HW113914  14.582   7.470   5.411
37339SOL    HW213915  14.575   7.576   5.303
37340SOL     OW13916  13.958   9.421   7.475
37340SOL    HW113917  13.982   9.360   7.406
37340SOL    HW213918  14.005   9.390   7.553
37341SOL     OW13919   4.759   7.208   3.418
37341SOL    HW113920   4.850   7.238   3.417
37341SOL    HW213921   4.707   7.288   3.405
37342SOL     OW13922  14.467   6.534   4.575
37342SOL    HW113923  14.502   6.609   4.527
37342SOL    HW213924  14.511   6.458   4.537
37343SOL     OW13925   4.478   4.694  11.156
37343SOL    HW113926   4.461   4.629  11.224
37343SOL    HW213927   4.396   4.700  11.108
37344SOL     OW13928   7.208   0.122  14.714
37344SOL    HW113929   7.162   0.184  14.657
37344SOL    HW213930   7.141   0.058  14.740
37345SOL     OW13931   8.602  10.205  12.005
37345SOL    HW113932   8.616  10.296  12.029
37345SOL    HW213933   8.508  10.191  12.019
37346SOL     OW13934  10.158  13.012   0.297
37346SOL    HW113935  10.128  13.064   0.371
37346SOL    HW213936  10.089  12.947   0.284
37347SOL     OW13937  10.608   1.627   3.378
37347SOL    HW113938  10.580   1.536   3.382
37347SOL    HW213939  10.667   1.638   3.453
37348SOL     OW13940   0.452   1.555   6.119
37348SOL    HW113941   0.486   1.645   6.121
37348SOL    HW213942   0.387   1.556   6.049
37349SOL     OW13943   3.093  12.597   0.187
37349SOL    HW113944   3.177  12.563   0.218
37349SOL    HW213945   3.104  12.692   0.185
37350SOL     OW13946  10.539  11.388   1.383
37350SOL    HW113947  10.577  11.437   1.455
37350SOL    HW213948  10.455  11.355   1.416
37351SOL     OW13949   2.847   2.949   0.727
37351SOL    HW113950   2.856   2.857   0.752
37351SOL    HW213951   2.935   2.986   0.736
37352SOL     OW13952  11.712  13.432  11.287
37352SOL    HW113953  11.640  13.486  11.321
37352SOL    HW213954  11.669  13.370  11.227
37353SOL     OW13955   6.058   3.494  12.772
37353SOL    HW113956   6.093   3.405  12.780
37353SOL    HW213957   6.111   3.535  12.704
37354SOL     OW13958   0.982   0.035   6.334
37354SOL    HW113959   0.944   0.035   6.246
37354SOL    HW213960   0.919  14.865   6.387
37355SOL     OW13961   0.191   7.329   0.341
37355SOL    HW113962   0.265   7.350   0.397
37355SOL    HW213963   0.206   7.379   0.261
37356SOL     OW13964   4.823  14.317  13.627
37356SOL    HW113965   4.802  14.238  13.577
37356SOL    HW213966   4.827  14.288  13.718
37357SOL     OW13967   2.947   4.760  10.160
37357SOL    HW113968   2.867   4.814  10.161
37357SOL    HW213969   2.982   4.774  10.072
37358SOL     OW13970   3.989  12.541   3.834
37358SOL    HW113971   4.015  12.569   3.922
37358SOL    HW213972   4.041  12.462   3.818
37359SOL     OW13973   2.062   7.538   6.810
37359SOL    HW113974   2.059   7.443   6.796
37359SOL    HW213975   1.972   7.567   6.802
37360SOL     OW13976  10.192   7.816   5.184
37360SOL    HW113977  10.167   7.908   5.187
37360SOL    HW213978  10.131   7.776   5.122
37361SOL     OW13979   4.248  13.934  13.550
37361SOL    HW113980   4.192  13.946  13.473
37361SOL    HW213981   4.321  13.995  13.536
37362SOL     OW13982  11.211  12.470   8.220
37362SOL    HW113983  11.215  12.397   8.281
37362SOL    HW213984  11.123  12.506   8.230
37363SOL     OW13985   4.450   9.669  12.836
37363SOL    HW113986   4.474   9.604  12.770
37363SOL    HW213987   4.415   9.618  12.909
37364SOL     OW13988  13.536   5.804   3.861
37364SOL    HW113989  13.606   5.790   3.925
37364SOL    HW213990  13.464   5.750   3.892
37365SOL     OW13991   9.028   4.498   6.358
37365SOL    HW113992   9.045   4.405   6.373
37365SOL    HW213993   9.114   4.537   6.343
37366SOL     OW13994   9.547  12.258  10.688
37366SOL    HW113995   9.635  12.224  10.674
37366SOL    HW213996   9.554  12.351  10.668
37367SOL     OW13997   1.658  11.147   5.295
37367SOL    HW113998   1.696  11.151   5.383
37367SOL    HW213999   1.600  11.071   5.297
37368SOL     OW14000  10.332   1.766   4.638
37368SOL    HW114001  10.274   1.690   4.636
37368SOL    HW214002  10.337   1.790   4.730
37369SOL     OW14003   9.751   8.871   0.606
37369SOL    HW114004   9.774   8.908   0.692
37369SOL    HW214005   9.669   8.914   0.583
37370SOL     OW14006   0.594  13.883  10.876
37370SOL    HW114007   0.577  13.964  10.924
37370SOL    HW214008   0.688  13.868  10.886
37371SOL     OW14009  10.210   3.134   3.239
37371SOL    HW114010  10.224   3.039   3.249
37371SOL    HW214011  10.246   3.154   3.153
37372SOL     OW14012   3.849  13.406   4.796
37372SOL    HW114013   3.859  13.319   4.835
37372SOL    HW214014   3.891  13.465   4.859
37373SOL     OW14015  13.351  10.243   1.927
37373SOL    HW114016  13.285  10.299   1.968
37373SOL    HW214017  13.435  10.283   1.951
37374SOL     OW14018  13.901   5.885   1.075
37374SOL    HW114019  13.926   5.903   1.165
37374SOL    HW214020  13.891   5.972   1.035
37375SOL     OW14021  13.521  12.696  11.727
37375SOL    HW114022  13.503  12.612  11.769
37375SOL    HW214023  13.439  12.719  11.684
37376SOL     OW14024   0.196   6.900   2.161
37376SOL    HW114025   0.234   6.932   2.242
37376SOL    HW214026   0.265   6.912   2.095
37377SOL     OW14027   3.710  11.744  11.081
37377SOL    HW114028   3.729  11.797  11.158
37377SOL    HW214029   3.615  11.749  11.071
37378SOL     OW14030  12.722  11.845   6.306
37378SOL    HW114031  12.645  11.900   6.293
37378SOL    HW214032  12.768  11.885   6.379
37379SOL     OW14033   9.753   8.219  10.773
37379SOL    HW114034   9.828   8.159  10.767
37379SOL    HW214035   9.679   8.169  10.740
37380SOL     OW14036  13.473   7.285  12.625
37380SOL    HW114037  13.453   7.224  12.554
37380SOL    HW214038  13.497   7.229  12.699
37381SOL     OW14039   8.085   7.917   7.998
37381SOL    HW114040   8.007   7.961   8.032
37381SOL    HW214041   8.152   7.932   8.065
37382SOL     OW14042   2.571   1.480   3.153
37382SOL    HW114043   2.502   1.420   3.125
37382SOL    HW214044   2.652   1.429   3.145
37383SOL     OW14045  11.442   8.034   1.042
37383SOL    HW114046  11.481   7.951   1.016
37383SOL    HW214047  11.509   8.075   1.098
37384SOL     OW14048   8.388  10.969  10.149
37384SOL    HW114049   8.455  10.912  10.112
37384SOL    HW214050   8.361  10.925  10.230
37385SOL     OW14051  12.951   1.059   6.306
37385SOL    HW114052  12.947   1.117   6.230
37385SOL    HW214053  12.888   0.990   6.287
37386SOL     OW14054   1.131   5.842   2.944
37386SOL    HW114055   1.141   5.748   2.962
37386SOL    HW214056   1.048   5.865   2.984
37387SOL     OW14057   1.664   9.644   1.077
37387SOL    HW114058   1.638   9.735   1.089
37387SOL    HW214059   1.727   9.646   1.005
37388SOL     OW14060   3.066   6.485  11.850
37388SOL    HW114061   2.994   6.547  11.861
37388SOL    HW214062   3.138   6.522  11.901
37389SOL     OW14063   3.056   4.848   5.605
37389SOL    HW114064   2.979   4.828   5.553
37389SOL    HW214065   3.031   4.828   5.695
37390SOL     OW14066  10.517  13.622   7.781
37390SOL    HW114067  10.595  13.599   7.731
37390SOL    HW214068  10.521  13.565   7.858
37391SOL     OW14069  14.867  11.203  14.091
37391SOL    HW114070  14.828  11.271  14.036
37391SOL    HW214071  14.799  11.179  14.153
37392SOL     OW14072   3.609   5.644   0.129
37392SOL    HW114073   3.546   5.585   0.169
37392SOL    HW214074   3.557   5.695   0.067
37393SOL     OW14075  11.520   0.777   8.888
37393SOL    HW114076  11.453   0.828   8.843
37393SOL    HW214077  11.483   0.690   8.896
37394SOL     OW14078  14.764   0.809   7.152
37394SOL    HW114079  14.781   0.827   7.245
37394SOL    HW214080  14.850   0.795   7.114
37395SOL     OW14081   2.673  14.577   5.520
37395SOL    HW114082   2.620  14.508   5.480
37395SOL    HW214083   2.689  14.639   5.449
37396SOL     OW14084   4.183  12.888   8.242
37396SOL    HW114085   4.125  12.817   8.214
37396SOL    HW214086   4.124  12.960   8.264
37397SOL     OW14087   5.128   1.842   5.594
37397SOL    HW114088   5.223   1.830   5.598
37397SOL    HW214089   5.105   1.881   5.678
37398SOL     OW14090   9.882   8.311   8.306
37398SOL    HW114091   9.863   8.349   8.220
37398SOL    HW214092   9.960   8.356   8.336
37399SOL     OW14093  13.563   4.505  12.533
37399SOL    HW114094  13.654   4.507  12.504
37399SOL    HW214095  13.568   4.524  12.627
37400SOL     OW14096   5.356   9.400   5.257
37400SOL    HW114097   5.428   9.339   5.275
37400SOL    HW214098   5.289   9.347   5.214
37401SOL     OW14099   1.017  14.415   9.553
37401SOL    HW114100   1.078  14.479   9.518
37401SOL    HW214101   1.051  14.330   9.523
37402SOL     OW14102   0.844   8.935  11.992
37402SOL    HW114103   0.752   8.965  11.992
37402SOL    HW214104   0.842   8.853  12.042
37403SOL     OW14105  14.545  14.668   3.744
37403SOL    HW114106  14.454  14.696   3.734
37403SOL    HW214107  14.555  14.653   3.838
37404SOL     OW14108   4.892  13.594   6.746
37404SOL    HW114109   4.869  13.558   6.832
37404SOL    HW214110   4.878  13.688   6.755
37405SOL     OW14111   6.820  10.930  11.953
37405SOL    HW114112   6.771  10.857  11.990
37405SOL    HW214113   6.836  10.905  11.862
37406SOL     OW14114  13.002  13.433  12.575
37406SOL    HW114115  12.935  13.493  12.542
37406SOL    HW214116  12.968  13.405  12.661
37407SOL     OW14117   8.705   6.075   6.027
37407SOL    HW114118   8.680   6.141   6.091
37407SOL    HW214119   8.702   6.120   5.943
37408SOL     OW14120   8.606   5.584   7.070
37408SOL    HW114121   8.694   5.551   7.057
37408SOL    HW214122   8.564   5.575   6.984
37409SOL     OW14123  12.344   6.977   4.549
37409SOL    HW114124  12.363   6.891   4.510
37409SOL    HW214125  12.255   6.997   4.521
37410SOL     OW14126  11.869  11.468  13.861
37410SOL    HW114127  11.831  11.380  13.870
37410SOL    HW214128  11.794  11.527  13.859
37411SOL     OW14129   5.499  10.946   0.508
37411SOL    HW114130   5.408  10.923   0.491
37411SOL    HW214131   5.514  10.920   0.599
37412SOL     OW14132   7.841  11.017   1.900
37412SOL    HW114133   7.891  11.053   1.827
37412SOL    HW214134   7.766  11.076   1.910
37413SOL     OW14135   2.005   2.508   8.270
37413SOL    HW114136   1.942   2.565   8.227
37413SOL    HW214137   2.089   2.531   8.231
37414SOL     OW14138  14.097   0.531  13.315
37414SOL    HW114139  14.072   0.445  13.280
37414SOL    HW214140  14.191   0.537  13.298
37415SOL     OW14141   7.821  12.645   2.022
37415SOL    HW114142   7.798  12.553   2.035
37415SOL    HW214143   7.887  12.645   1.953
37416SOL     OW14144   3.969   8.977  13.299
37416SOL    HW114145   3.936   9.020  13.378
37416SOL    HW214146   3.946   9.036  13.228
37417SOL     OW14147   3.729   9.780  10.797
37417SOL    HW114148   3.640   9.759  10.823
37417SOL    HW214149   3.777   9.787  10.880
37418SOL     OW14150   6.431  10.032   0.626
37418SOL    HW114151   6.420   9.952   0.677
37418SOL    HW214152   6.444  10.002   0.536
37419SOL     OW14153   0.917   0.501   9.132
37419SOL    HW114154   0.855   0.431   9.151
37419SOL    HW214155   0.995   0.455   9.100
37420SOL     OW14156   2.194   3.685   2.023
37420SOL    HW114157   2.130   3.713   1.958
37420SOL    HW214158   2.233   3.605   1.987
37421SOL     OW14159  12.568   7.928   0.271
37421SOL    HW114160  12.530   7.867   0.207
37421SOL    HW214161  12.528   7.903   0.354
37422SOL     OW14162  10.120   3.118   6.366
37422SOL    HW114163  10.204   3.162   6.357
37422SOL    HW214164  10.077   3.160   6.441
37423SOL     OW14165   3.812   2.646   9.075
37423SOL    HW114166   3.858   2.726   9.098
37423SOL    HW214167   3.758   2.627   9.152
37424SOL     OW14168   0.969   0.240   5.514
37424SOL    HW114169   1.033   0.204   5.576
37424SOL    HW214170   0.970   0.334   5.532
37425SOL     OW14171   3.975   8.211   2.314
37425SOL    HW114172   4.017   8.257   2.241
37425SOL    HW214173   4.011   8.252   2.392
37426SOL     OW14174   0.461   8.309   8.743
37426SOL    HW114175   0.450   8.337   8.834
37426SOL    HW214176   0.407   8.231   8.735
37427SOL     OW14177   4.532  12.567   1.889
37427SOL    HW114178   4.563  12.593   1.976
37427SOL    HW214179   4.566  12.478   1.878
37428SOL     OW14180   6.568   9.249   9.443
37428SOL    HW114181   6.500   9.238   9.376
37428SOL    HW214182   6.647   9.272   9.393
37429SOL     OW14183   7.881   3.098  11.820
37429SOL    HW114184   7.957   3.065  11.867
37429SOL    HW214185   7.888   3.060  11.732
37430SOL     OW14186   2.295  13.615  14.877
37430SOL    HW114187   2.343  13.578  14.803
37430SOL    HW214188   2.205  13.586  14.865
37431SOL     OW14189   1.545   7.953   0.589
37431SOL    HW114190   1.493   7.875   0.573
37431SOL    HW214191   1.496   8.024   0.547
37432SOL     OW14192  10.689  13.006   4.001
37432SOL    HW114193  10.731  13.036   3.921
37432SOL    HW214194  10.656  12.918   3.979
37433SOL     OW14195  11.744   9.582   0.918
37433SOL    HW114196  11.677   9.610   0.981
37433SOL    HW214197  11.783   9.504   0.957
37434SOL     OW14198   2.554   9.896   3.731
37434SOL    HW114199   2.462   9.867   3.731
37434SOL    HW214200   2.551   9.983   3.770
37435SOL     OW14201  11.408  14.658   7.336
37435SOL    HW114202  11.395  14.564   7.347
37435SOL    HW214203  11.324  14.691   7.304
37436SOL     OW14204  11.571   4.238   4.034
37436SOL    HW114205  11.489   4.194   4.009
37436SOL    HW214206  11.600   4.281   3.954
37437SOL     OW14207   2.813   4.391   5.109
37437SOL    HW114208   2.873   4.465   5.106
37437SOL    HW214209   2.807   4.361   5.019
37438SOL     OW14210  13.305   0.572   2.361
37438SOL    HW114211  13.268   0.495   2.404
37438SOL    HW214212  13.283   0.561   2.268
37439SOL     OW14213  12.802   7.040  10.338
37439SOL    HW114214  12.737   6.975  10.364
37439SOL    HW214215  12.767   7.124  10.367
37440SOL     OW14216   0.414   3.079   9.794
37440SOL    HW114217   0.333   3.048   9.834
37440SOL    HW214218   0.423   3.169   9.825
37441SOL     OW14219   5.520  12.350   9.985
37441SOL    HW114220   5.580  12.418  10.015
37441SOL    HW214221   5.544  12.272  10.035
37442SOL     OW14222   9.631   6.322  11.248
37442SOL    HW114223   9.615   6.238  11.205
37442SOL    HW214224   9.614   6.388  11.180
37443SOL     OW14225  10.648   1.611   1.265
37443SOL    HW114226  10.561   1.570   1.262
37443SOL    HW214227  10.687   1.591   1.180
37444SOL     OW14228   4.772   4.297   1.575
37444SOL    HW114229   4.818   4.223   1.613
37444SOL    HW214230   4.756   4.356   1.649
37445SOL     OW14231   7.708   9.015   9.463
37445SOL    HW114232   7.630   9.068   9.478
37445SOL    HW214233   7.678   8.925   9.471
37446SOL     OW14234  11.117   3.476   8.895
37446SOL    HW114235  11.022   3.482   8.884
37446SOL    HW214236  11.132   3.492   8.988
37447SOL     OW14237   4.467  13.434   7.676
37447SOL    HW114238   4.389  13.399   7.632
37447SOL    HW214239   4.496  13.363   7.732
37448SOL     OW14240   9.422   9.103   2.911
37448SOL    HW114241   9.381   9.054   2.982
37448SOL    HW214242   9.514   9.113   2.939
37449SOL     OW14243  11.170  14.693  12.524
37449SOL    HW114244  11.221  14.649  12.456
37449SOL    HW214245  11.211  14.779  12.533
37450SOL     OW14246   9.197   9.791   0.799
37450SOL    HW114247   9.233   9.717   0.749
37450SOL    HW214248   9.269   9.854   0.804
37451SOL     OW14249   5.316   1.275  13.662
37451SOL    HW114250   5.251   1.335  13.698
37451SOL    HW214251   5.288   1.260  13.572
37452SOL     OW14252  11.931   5.179   8.293
37452SOL    HW114253  12.009   5.201   8.344
37452SOL    HW214254  11.962   5.118   8.226
37453SOL     OW14255   6.531  11.802   3.631
37453SOL    HW114256   6.527  11.891   3.598
37453SOL    HW214257   6.443  11.767   3.615
37454SOL     OW14258   8.341  10.172  13.245
37454SOL    HW114259   8.280  10.204  13.311
37454SOL    HW214260   8.426  10.208  13.271
37455SOL     OW14261  12.940   8.763  14.502
37455SOL    HW114262  12.983   8.734  14.422
37455SOL    HW214263  12.864   8.705  14.511
37456SOL     OW14264   9.711   7.674   0.808
37456SOL    HW114265   9.665   7.671   0.892
37456SOL    HW214266   9.733   7.582   0.790
37457SOL     OW14267  13.605  13.095   5.385
37457SOL    HW114268  13.537  13.051   5.436
37457SOL    HW214269  13.575  13.091   5.295
37458SOL     OW14270   6.984   1.131   5.873
37458SOL    HW114271   7.071   1.162   5.847
37458SOL    HW214272   6.963   1.063   5.810
37459SOL     OW14273   0.027   1.426   1.424
37459SOL    HW114274   0.050   1.478   1.347
37459SOL    HW214275  14.856   1.487   1.478
37460SOL     OW14276  10.357   9.886   1.080
37460SOL    HW114277  10.441   9.931   1.080
37460SOL    HW214278  10.364   9.821   1.011
37461SOL     OW14279   1.999   5.258   1.539
37461SOL    HW114280   1.945   5.295   1.609
37461SOL    HW214281   1.947   5.185   1.505
37462SOL     OW14282   8.035  13.741   2.776
37462SOL    HW114283   8.058  13.654   2.808
37462SOL    HW214284   7.951  13.761   2.816
37463SOL     OW14285   4.423  14.270  11.934
37463SOL    HW114286   4.456  14.359  11.947
37463SOL    HW214287   4.501  14.219  11.913
37464SOL     OW14288  13.319   3.783  13.672
37464SOL    HW114289  13.268   3.714  13.630
37464SOL    HW214290  13.322   3.758  13.764
37465SOL     OW14291  14.623  14.877  13.207
37465SOL    HW114292  14.631  14.782  13.216
37465SOL    HW214293  14.703   0.031  13.248
37466SOL     OW14294   1.625   9.963  14.464
37466SOL    HW114295   1.536   9.949  14.495
37466SOL    HW214296   1.635   9.902  14.391
37467SOL     OW14297   0.905   5.699   1.932
37467SOL    HW114298   0.879   5.613   1.897
37467SOL    HW214299   0.833   5.725   1.989
37468SOL     OW14300   0.563  14.054   6.892
37468SOL    HW114301   0.497  13.995   6.855
37468SOL    HW214302   0.634  13.997   6.919
37469SOL     OW14303   9.672   3.203   3.250
37469SOL    HW114304   9.702   3.290   3.277
37469SOL    HW214305   9.577   3.208   3.258
37470SOL     OW14306  11.076  13.125   1.137
37470SOL    HW114307  11.153  13.089   1.180
37470SOL    HW214308  11.003  13.103   1.195
37471SOL     OW14309   4.393   9.079   3.700
37471SOL    HW114310   4.483   9.104   3.721
37471SOL    HW214311   4.356   9.051   3.784
37472SOL     OW14312   3.648   7.246   4.841
37472SOL    HW114313   3.664   7.171   4.784
37472SOL    HW214314   3.554   7.259   4.838
37473SOL     OW14315  14.062   1.137   2.754
37473SOL    HW114316  14.031   1.058   2.710
37473SOL    HW214317  13.995   1.156   2.821
37474SOL     OW14318   0.741   7.341   6.469
37474SOL    HW114319   0.782   7.279   6.529
37474SOL    HW214320   0.652   7.351   6.502
37475SOL     OW14321   7.766   8.505   0.007
37475SOL    HW114322   7.734   8.595   0.006
37475SOL    HW214323   7.858   8.512  14.862
37476SOL     OW14324   0.133  12.755  12.788
37476SOL    HW114325   0.171  12.709  12.714
37476SOL    HW214326   0.101  12.685  12.846
37477SOL     OW14327   6.106   9.903  12.055
37477SOL    HW114328   6.090   9.842  12.127
37477SOL    HW214329   6.059   9.982  12.079
37478SOL     OW14330   7.433  14.345   3.638
37478SOL    HW114331   7.525  14.338   3.667
37478SOL    HW214332   7.436  14.324   3.545
37479SOL     OW14333   0.281   6.571   0.529
37479SOL    HW114334   0.330   6.503   0.483
37479SOL    HW214335   0.296   6.651   0.479
37480SOL     OW14336   6.515   2.541   9.366
37480SOL    HW114337   6.489   2.582   9.448
37480SOL    HW214338   6.438   2.550   9.309
37481SOL     OW14339   0.925  10.054  10.487
37481SOL    HW114340   0.880  10.138  10.497
37481SOL    HW214341   0.871   9.992  10.536
37482SOL     OW14342  13.224   2.757   1.699
37482SOL    HW114343  13.294   2.800   1.748
37482SOL    HW214344  13.244   2.664   1.705
37483SOL     OW14345  12.672  13.602  12.742
37483SOL    HW114346  12.627  13.568  12.819
37483SOL    HW214347  12.744  13.654  12.777
37484SOL     OW14348   0.930   9.648  13.904
37484SOL    HW114349   0.975   9.732  13.893
37484SOL    HW214350   0.872   9.642  13.828
37485SOL     OW14351  13.801  10.524   4.907
37485SOL    HW114352  13.806  10.486   4.994
37485SOL    HW214353  13.732  10.474   4.862
37486SOL     OW14354   6.300   7.293   0.924
37486SOL    HW114355   6.380   7.274   0.973
37486SOL    HW214356   6.295   7.224   0.859
37487SOL     OW14357   6.609   0.075   2.667
37487SOL    HW114358   6.645   0.038   2.748
37487SOL    HW214359   6.565   0.155   2.694
37488SOL     OW14360  14.027   9.313  10.139
37488SOL    HW114361  14.015   9.220  10.153
37488SOL    HW214362  14.016   9.325  10.045
37489SOL     OW14363  10.836   7.887   9.075
37489SOL    HW114364  10.929   7.908   9.071
37489SOL    HW214365  10.828   7.804   9.028
37490SOL     OW14366   4.578  12.485   7.161
37490SOL    HW114367   4.659  12.467   7.112
37490SOL    HW214368   4.526  12.539   7.102
37491SOL     OW14369  13.704  14.718  13.789
37491SOL    HW114370  13.618  14.731  13.829
37491SOL    HW214371  13.692  14.644  13.730
37492SOL     OW14372   2.750   9.980   0.550
37492SOL    HW114373   2.666  10.026   0.543
37492SOL    HW214374   2.733   9.893   0.515
37493SOL     OW14375  13.671  10.948  11.913
37493SOL    HW114376  13.659  10.988  11.826
37493SOL    HW214377  13.588  10.964  11.958
37494SOL     OW14378  12.796   7.615   0.195
37494SOL    HW114379  12.834   7.559   0.263
37494SOL    HW214380  12.849   7.599   0.118
37495SOL     OW14381  11.435  10.974   0.688
37495SOL    HW114382  11.379  10.900   0.710
37495SOL    HW214383  11.401  11.046   0.741
37496SOL     OW14384   6.770   4.378  11.409
37496SOL    HW114385   6.786   4.465  11.445
37496SOL    HW214386   6.760   4.322  11.486
37497SOL     OW14387  14.653   3.766   3.400
37497SOL    HW114388  14.714   3.765   3.473
37497SOL    HW214389  14.654   3.677   3.366
37498SOL     OW14390  13.049   3.658   9.514
37498SOL    HW114391  13.034   3.567   9.538
37498SOL    HW214392  13.035   3.660   9.419
37499SOL     OW14393   3.949   9.555  13.720
37499SOL    HW114394   3.965   9.621  13.788
37499SOL    HW214395   3.942   9.605  13.639
37500SOL     OW14396   4.997   0.081   7.040
37500SOL    HW114397   4.929   0.032   6.994
37500SOL    HW214398   5.001   0.041   7.127
37501SOL     OW14399   1.664   3.684   9.442
37501SOL    HW114400   1.686   3.752   9.506
37501SOL    HW214401   1.656   3.731   9.359
37502SOL     OW14402  12.714   4.673   3.068
37502SOL    HW114403  12.765   4.688   2.988
37502SOL    HW214404  12.726   4.753   3.119
37503SOL     OW14405  10.543  10.184  10.729
37503SOL    HW114406  10.505  10.096  10.730
37503SOL    HW214407  10.559  10.203  10.637
37504SOL     OW14408   9.147   4.648  10.996
37504SOL    HW114409   9.177   4.718  10.938
37504SOL    HW214410   9.168   4.679  11.084
37505SOL     OW14411  12.458   6.767   6.241
37505SOL    HW114412  12.521   6.710   6.286
37505SOL    HW214413  12.494   6.855   6.252
37506SOL     OW14414  10.571  10.668   7.736
37506SOL    HW114415  10.567  10.578   7.768
37506SOL    HW214416  10.665  10.684   7.723
37507SOL     OW14417   2.599  10.910  13.284
37507SOL    HW114418   2.678  10.889  13.335
37507SOL    HW214419   2.543  10.956  13.346
37508SOL     OW14420   0.474  12.898  13.677
37508SOL    HW114421   0.410  12.955  13.719
37508SOL    HW214422   0.540  12.882  13.744
37509SOL     OW14423  10.123   9.303   6.688
37509SOL    HW114424  10.202   9.286   6.637
37509SOL    HW214425  10.052   9.268   6.633
37510SOL     OW14426  10.636  10.421   2.593
37510SOL    HW114427  10.583  10.346   2.620
37510SOL    HW214428  10.727  10.391   2.603
37511SOL     OW14429  12.693   8.831  10.603
37511SOL    HW114430  12.759   8.839  10.672
37511SOL    HW214431  12.740   8.792  10.529
37512SOL     OW14432   2.527   8.326   7.390
37512SOL    HW114433   2.614   8.362   7.375
37512SOL    HW214434   2.534   8.234   7.364
37513SOL     OW14435   0.341   6.266   4.675
37513SOL    HW114436   0.247   6.256   4.660
37513SOL    HW214437   0.349   6.293   4.766
37514SOL     OW14438   7.885   8.238   6.743
37514SOL    HW114439   7.801   8.209   6.778
37514SOL    HW214440   7.924   8.159   6.706
37515SOL     OW14441  14.204   1.843   8.224
37515SOL    HW114442  14.156   1.860   8.306
37515SOL    HW214443  14.200   1.926   8.177
37516SOL     OW14444   0.988   9.835  12.008
37516SOL    HW114445   0.994   9.877  12.094
37516SOL    HW214446   1.026   9.749  12.021
37517SOL     OW14447  13.185  11.225   4.451
37517SOL    HW114448  13.276  11.237   4.477
37517SOL    HW214449  13.188  11.164   4.377
37518SOL     OW14450  12.732   1.153  12.980
37518SOL    HW114451  12.719   1.194  13.066
37518SOL    HW214452  12.817   1.108  12.988
37519SOL     OW14453   5.903   9.095  12.067
37519SOL    HW114454   5.900   9.150  12.146
37519SOL    HW214455   5.813   9.095  12.035
37520SOL     OW14456   7.626  11.002   6.123
37520SOL    HW114457   7.669  10.977   6.042
37520SOL    HW214458   7.538  10.965   6.116
37521SOL     OW14459  11.662   7.459   0.226
37521SOL    HW114460  11.728   7.516   0.266
37521SOL    HW214461  11.579   7.503   0.246
37522SOL     OW14462   9.136  12.943   4.740
37522SOL    HW114463   9.113  12.895   4.660
37522SOL    HW214464   9.221  12.908   4.765
37523SOL     OW14465   1.040  14.181   9.201
37523SOL    HW114466   1.053  14.210   9.111
37523SOL    HW214467   1.122  14.201   9.245
37524SOL     OW14468  12.190   3.993   4.456
37524SOL    HW114469  12.111   4.020   4.502
37524SOL    HW214470  12.163   3.919   4.402
37525SOL     OW14471   3.456   0.933   1.126
37525SOL    HW114472   3.415   0.847   1.138
37525SOL    HW214473   3.452   0.974   1.213
37526SOL     OW14474  14.682   4.891   7.837
37526SOL    HW114475  14.640   4.970   7.869
37526SOL    HW214476  14.616   4.848   7.783
37527SOL     OW14477   0.412  13.345   3.887
37527SOL    HW114478   0.469  13.370   3.960
37527SOL    HW214479   0.340  13.407   3.890
37528SOL     OW14480   7.095   8.612   1.103
37528SOL    HW114481   7.175   8.581   1.059
37528SOL    HW214482   7.080   8.548   1.173
37529SOL     OW14483  10.232  14.039   7.617
37529SOL    HW114484  10.158  14.007   7.667
37529SOL    HW214485  10.206  14.029   7.526
37530SOL     OW14486  12.343  11.304   1.338
37530SOL    HW114487  12.406  11.240   1.371
37530SOL    HW214488  12.340  11.287   1.243
37531SOL     OW14489   0.217   5.673   9.845
37531SOL    HW114490   0.131   5.672   9.803
37531SOL    HW214491   0.246   5.582   9.840
37532SOL     OW14492   3.711  12.042   7.725
37532SOL    HW114493   3.702  11.950   7.698
37532SOL    HW214494   3.658  12.091   7.663
37533SOL     OW14495   5.254   7.058  11.617
37533SOL    HW114496   5.178   7.054  11.675
37533SOL    HW214497   5.297   7.141  11.640
37534SOL     OW14498  10.747   6.300   6.074
37534SOL    HW114499  10.837   6.279   6.097
37534SOL    HW214500  10.697   6.278   6.152
37535SOL     OW14501   3.738   1.476   5.248
37535SOL    HW114502   3.685   1.550   5.217
37535SOL    HW214503   3.702   1.456   5.334
37536SOL     OW14504   9.064  11.761   8.700
37536SOL    HW114505   9.017  11.797   8.624
37536SOL    HW214506   9.100  11.838   8.744
37537SOL     OW14507  12.452  12.902   1.216
37537SOL    HW114508  12.450  12.838   1.288
37537SOL    HW214509  12.445  12.987   1.260
37538SOL     OW14510   4.363  13.365   5.169
37538SOL    HW114511   4.431  13.391   5.106
37538SOL    HW214512   4.335  13.447   5.210
37539SOL     OW14513  12.580   4.975   3.717
37539SOL    HW114514  12.645   4.973   3.787
37539SOL    HW214515  12.621   5.027   3.647
37540SOL     OW14516   9.368  14.263   1.762
37540SOL    HW114517   9.438  14.229   1.706
37540SOL    HW214518   9.362  14.355   1.739
37541SOL     OW14519   6.691   4.406   7.113
37541SOL    HW114520   6.739   4.325   7.100
37541SOL    HW214521   6.618   4.401   7.051
37542SOL     OW14522   5.189  12.161   4.176
37542SOL    HW114523   5.122  12.154   4.108
37542SOL    HW214524   5.220  12.071   4.188
37543SOL     OW14525   8.741   8.862   3.629
37543SOL    HW114526   8.836   8.868   3.643
37543SOL    HW214527   8.730   8.878   3.535
37544SOL     OW14528   3.048  10.650   1.708
37544SOL    HW114529   2.989  10.610   1.644
37544SOL    HW214530   3.085  10.576   1.756
37545SOL     OW14531  11.793   9.984  10.980
37545SOL    HW114532  11.753   9.979  11.067
37545SOL    HW214533  11.873   9.932  10.988
37546SOL     OW14534   5.280  10.177   0.784
37546SOL    HW114535   5.373  10.184   0.805
37546SOL    HW214536   5.235  10.175   0.869
37547SOL     OW14537   9.027   2.332   2.224
37547SOL    HW114538   8.945   2.324   2.274
37547SOL    HW214539   9.019   2.416   2.180
37548SOL     OW14540   5.201  10.762   7.263
37548SOL    HW114541   5.227  10.836   7.207
37548SOL    HW214542   5.237  10.685   7.218
37549SOL     OW14543   4.363   6.347   5.786
37549SOL    HW114544   4.386   6.424   5.735
37549SOL    HW214545   4.439   6.290   5.779
37550SOL     OW14546   8.427   4.792   0.485
37550SOL    HW114547   8.351   4.787   0.426
37550SOL    HW214548   8.431   4.706   0.526
37551SOL     OW14549   5.334  12.469  12.075
37551SOL    HW114550   5.335  12.485  11.981
37551SOL    HW214551   5.385  12.388  12.086
37552SOL     OW14552  11.897   0.151   4.882
37552SOL    HW114553  11.824   0.196   4.923
37552SOL    HW214554  11.973   0.207   4.901
37553SOL     OW14555  13.088  11.008  11.301
37553SOL    HW114556  13.049  11.050  11.377
37553SOL    HW214557  13.177  11.044  11.297
37554SOL     OW14558   4.412   3.094  13.488
37554SOL    HW114559   4.449   3.182  13.476
37554SOL    HW214560   4.318   3.109  13.494
37555SOL     OW14561   0.239  10.413   5.005
37555SOL    HW114562   0.253  10.398   4.911
37555SOL    HW214563   0.315  10.373   5.047
37556SOL     OW14564  13.277  11.687  10.512
37556SOL    HW114565  13.184  11.710  10.514
37556SOL    HW214566  13.322  11.762  10.551
37557SOL     OW14567  10.719  14.834   9.396
37557SOL    HW114568  10.800   0.002   9.407
37557SOL    HW214569  10.687  14.820   9.486
37558SOL     OW14570   8.403  12.437   0.623
37558SOL    HW114571   8.382  12.530   0.620
37558SOL    HW214572   8.383  12.405   0.535
37559SOL     OW14573   7.973  12.516   4.280
37559SOL    HW114574   7.921  12.445   4.318
37559SOL    HW214575   7.930  12.534   4.197
37560SOL     OW14576  10.609   6.976   8.396
37560SOL    HW114577  10.526   7.025   8.389
37560SOL    HW214578  10.592   6.894   8.349
37561SOL     OW14579  10.931   6.685   6.778
37561SOL    HW114580  10.847   6.725   6.757
37561SOL    HW214581  10.996   6.744   6.740
37562SOL     OW14582   3.269  11.695   9.027
37562SOL    HW114583   3.275  11.600   9.037
37562SOL    HW214584   3.175  11.713   9.024
37563SOL     OW14585   8.110  11.130   1.212
37563SOL    HW114586   8.115  11.221   1.183
37563SOL    HW214587   8.072  11.136   1.300
37564SOL     OW14588  13.728  10.244  12.457
37564SOL    HW114589  13.787  10.226  12.530
37564SOL    HW214590  13.729  10.340  12.448
37565SOL     OW14591   4.766  12.803  12.206
37565SOL    HW114592   4.849  12.814  12.160
37565SOL    HW214593   4.717  12.742  12.151
37566SOL     OW14594  10.624   9.746   2.851
37566SOL    HW114595  10.562   9.763   2.779
37566SOL    HW214596  10.569   9.739   2.929
37567SOL     OW14597   4.283  12.193   7.115
37567SOL    HW114598   4.305  12.236   7.198
37567SOL    HW214599   4.367  12.186   7.070
37568SOL     OW14600   6.225   6.178   0.948
37568SOL    HW114601   6.293   6.129   0.996
37568SOL    HW214602   6.241   6.269   0.971
37569SOL     OW14603   5.360  14.012  14.698
37569SOL    HW114604   5.266  13.991  14.704
37569SOL    HW214605   5.403  13.927  14.689
37570SOL     OW14606  13.857   9.268  10.597
37570SOL    HW114607  13.903   9.185  10.584
37570SOL    HW214608  13.927   9.332  10.612
37571SOL     OW14609  13.125   0.027  14.400
37571SOL    HW114610  13.072  14.861  14.465
37571SOL    HW214611  13.195  14.845  14.378
37572SOL     OW14612   4.697  13.114  11.466
37572SOL    HW114613   4.675  13.042  11.525
37572SOL    HW214614   4.778  13.151  11.502
37573SOL     OW14615   9.730   9.007   5.379
37573SOL    HW114616   9.765   9.096   5.385
37573SOL    HW214617   9.709   8.984   5.470
37574SOL     OW14618   6.656   5.477   8.280
37574SOL    HW114619   6.597   5.465   8.206
37574SOL    HW214620   6.600   5.468   8.357
37575SOL     OW14621   0.724  11.526  11.658
37575SOL    HW114622   0.740  11.432  11.663
37575SOL    HW214623   0.631  11.536  11.676
37576SOL     OW14624   7.559   2.471  12.515
37576SOL    HW114625   7.639   2.421  12.530
37576SOL    HW214626   7.505   2.453  12.592
37577SOL     OW14627   5.895   9.056  14.775
37577SOL    HW114628   5.820   9.104  14.809
37577SOL    HW214629   5.944   9.031  14.854
37578SOL     OW14630  10.900  13.735   4.782
37578SOL    HW114631  10.874  13.796   4.851
37578SOL    HW214632  10.892  13.649   4.824
37579SOL     OW14633   7.609  13.961   6.085
37579SOL    HW114634   7.561  13.885   6.119
37579SOL    HW214635   7.541  14.027   6.071
37580SOL     OW14636   9.498  13.222  11.524
37580SOL    HW114637   9.413  13.260  11.545
37580SOL    HW214638   9.507  13.232  11.430
37581SOL     OW14639   9.006   6.636  14.803
37581SOL    HW114640   9.031   6.580  14.876
37581SOL    HW214641   8.915   6.613  14.785
37582SOL     OW14642  14.241  14.823  12.948
37582SOL    HW114643  14.242   0.016  12.887
37582SOL    HW214644  14.165  14.770  12.921
37583SOL     OW14645   6.597   4.824   3.385
37583SOL    HW114646   6.646   4.900   3.417
37583SOL    HW214647   6.660   4.776   3.332
37584SOL     OW14648   9.527   7.883   1.703
37584SOL    HW114649   9.503   7.953   1.763
37584SOL    HW214650   9.623   7.879   1.708
37585SOL     OW14651   5.358   8.613   1.884
37585SOL    HW114652   5.386   8.595   1.794
37585SOL    HW214653   5.289   8.549   1.901
37586SOL     OW14654  11.075   1.774   7.007
37586SOL    HW114655  11.064   1.866   7.031
37586SOL    HW214656  11.137   1.740   7.071
37587SOL     OW14657   5.761   0.639  12.601
37587SOL    HW114658   5.843   0.619  12.646
37587SOL    HW214659   5.775   0.725  12.561
37588SOL     OW14660   6.491   2.385   0.312
37588SOL    HW114661   6.570   2.335   0.288
37588SOL    HW214662   6.419   2.332   0.280
37589SOL     OW14663   6.324   1.771   2.939
37589SOL    HW114664   6.281   1.727   2.865
37589SOL    HW214665   6.283   1.857   2.944
37590SOL     OW14666   6.473  10.808   9.674
37590SOL    HW114667   6.561  10.786   9.702
37590SOL    HW214668   6.447  10.737   9.616
37591SOL     OW14669   2.512  12.476   1.303
37591SOL    HW114670   2.475  12.563   1.289
37591SOL    HW214671   2.519  12.469   1.399
37592SOL     OW14672   6.621  12.187   6.158
37592SOL    HW114673   6.550  12.198   6.094
37592SOL    HW214674   6.666  12.271   6.160
37593SOL     OW14675   4.835   1.296   3.807
37593SOL    HW114676   4.832   1.337   3.721
37593SOL    HW214677   4.899   1.225   3.798
37594SOL     OW14678   2.169   3.760   2.296
37594SOL    HW114679   2.102   3.827   2.309
37594SOL    HW214680   2.193   3.767   2.204
37595SOL     OW14681  10.587   7.984   8.457
37595SOL    HW114682  10.616   7.942   8.376
37595SOL    HW214683  10.522   7.924   8.493
37596SOL     OW14684   1.578  10.518   5.415
37596SOL    HW114685   1.603  10.448   5.475
37596SOL    HW214686   1.661  10.551   5.380
37597SOL     OW14687   4.196  14.076  13.870
37597SOL    HW114688   4.269  14.059  13.811
37597SOL    HW214689   4.156  14.157  13.837
37598SOL     OW14690  10.195   1.938   7.997
37598SOL    HW114691  10.221   2.028   8.018
37598SOL    HW214692  10.244   1.884   8.057
37599SOL     OW14693   4.657  13.508   4.014
37599SOL    HW114694   4.644  13.583   3.956
37599SOL    HW214695   4.731  13.533   4.070
37600SOL     OW14696  10.072  11.489   6.702
37600SOL    HW114697  10.107  11.469   6.789
37600SOL    HW214698  10.044  11.580   6.708
37601SOL     OW14699   8.392   4.160   5.086
37601SOL    HW114700   8.356   4.247   5.105
37601SOL    HW214701   8.484   4.175   5.065
37602SOL     OW14702   2.229   9.320   8.712
37602SOL    HW114703   2.296   9.331   8.780
37602SOL    HW214704   2.278   9.315   8.630
37603SOL     OW14705   4.990   9.780  14.387
37603SOL    HW114706   4.980   9.813  14.477
37603SOL    HW214707   4.904   9.744  14.366
37604SOL     OW14708   5.334  10.943   7.465
37604SOL    HW114709   5.267  10.902   7.411
37604SOL    HW214710   5.396  10.980   7.402
37605SOL     OW14711   8.541   9.999   0.670
37605SOL    HW114712   8.624  10.033   0.704
37605SOL    HW214713   8.487   9.984   0.748
37606SOL     OW14714  14.401   6.894   0.322
37606SOL    HW114715  14.341   6.926   0.390
37606SOL    HW214716  14.428   6.808   0.354
37607SOL     OW14717   6.159   7.831   0.214
37607SOL    HW114718   6.153   7.736   0.207
37607SOL    HW214719   6.147   7.849   0.307
37608SOL     OW14720   3.621   4.094   8.539
37608SOL    HW114721   3.569   4.015   8.526
37608SOL    HW214722   3.580   4.139   8.612
37609SOL     OW14723   0.525   7.966   9.472
37609SOL    HW114724   0.606   7.917   9.456
37609SOL    HW214725   0.549   8.032   9.536
37610SOL     OW14726   6.179   8.936   9.053
37610SOL    HW114727   6.244   8.979   9.108
37610SOL    HW214728   6.211   8.949   8.963
37611SOL     OW14729  14.292  10.693  13.714
37611SOL    HW114730  14.238  10.657  13.643
37611SOL    HW214731  14.326  10.616  13.759
37612SOL     OW14732   8.672   8.554  11.919
37612SOL    HW114733   8.739   8.611  11.880
37612SOL    HW214734   8.709   8.528  12.003
37613SOL     OW14735   7.317   7.409   7.247
37613SOL    HW114736   7.381   7.477   7.264
37613SOL    HW214737   7.331   7.385   7.155
37614SOL     OW14738  10.299   3.507   2.063
37614SOL    HW114739  10.359   3.436   2.087
37614SOL    HW214740  10.356   3.581   2.044
37615SOL     OW14741   5.766   7.728   9.216
37615SOL    HW114742   5.683   7.715   9.169
37615SOL    HW214743   5.770   7.655   9.278
37616SOL     OW14744   9.202  11.246   0.240
37616SOL    HW114745   9.244  11.205   0.164
37616SOL    HW214746   9.173  11.173   0.294
37617SOL     OW14747   7.251  11.084  12.060
37617SOL    HW114748   7.291  11.153  12.113
37617SOL    HW214749   7.325  11.036  12.024
37618SOL     OW14750  13.875  10.757   9.952
37618SOL    HW114751  13.822  10.818   9.900
37618SOL    HW214752  13.961  10.760   9.911
37619SOL     OW14753   8.798  10.330   7.549
37619SOL    HW114754   8.719  10.383   7.561
37619SOL    HW214755   8.837  10.324   7.636
37620SOL     OW14756  12.556   2.173   9.483
37620SOL    HW114757  12.575   2.261   9.514
37620SOL    HW214758  12.461   2.169   9.478
37621SOL     OW14759  12.051  12.383  12.465
37621SOL    HW114760  12.078  12.429  12.545
37621SOL    HW214761  12.071  12.445  12.395
37622SOL     OW14762   3.273  11.739  13.948
37622SOL    HW114763   3.311  11.775  13.868
37622SOL    HW214764   3.259  11.647  13.928
37623SOL     OW14765   7.880   0.170  11.130
37623SOL    HW114766   7.894   0.079  11.105
37623SOL    HW214767   7.925   0.180  11.214
37624SOL     OW14768   5.545   9.452   7.617
37624SOL    HW114769   5.533   9.497   7.701
37624SOL    HW214770   5.482   9.493   7.558
37625SOL     OW14771   7.614   6.659  11.521
37625SOL    HW114772   7.551   6.589  11.540
37625SOL    HW214773   7.697   6.625  11.555
37626SOL     OW14774   2.946  13.227  14.769
37626SOL    HW114775   3.036  13.205  14.791
37626SOL    HW214776   2.939  13.321  14.787
37627SOL     OW14777   8.320   5.422   2.142
37627SOL    HW114778   8.246   5.480   2.123
37627SOL    HW214779   8.376   5.473   2.200
37628SOL     OW14780   3.757   2.500   4.995
37628SOL    HW114781   3.722   2.460   5.075
37628SOL    HW214782   3.720   2.588   4.996
37629SOL     OW14783   3.950   8.593  10.750
37629SOL    HW114784   4.016   8.552  10.805
37629SOL    HW214785   3.867   8.560  10.785
37630SOL     OW14786   8.796  14.146   2.737
37630SOL    HW114787   8.748  14.156   2.819
37630SOL    HW214788   8.745  14.196   2.673
37631SOL     OW14789   6.537   1.813   2.683
37631SOL    HW114790   6.472   1.880   2.703
37631SOL    HW214791   6.584   1.800   2.766
37632SOL     OW14792  11.260  10.557  14.704
37632SOL    HW114793  11.184  10.611  14.727
37632SOL    HW214794  11.331  10.619  14.689
37633SOL     OW14795  14.439   7.493  14.225
37633SOL    HW114796  14.445   7.581  14.261
37633SOL    HW214797  14.517   7.448  14.257
37634SOL     OW14798  11.774   3.443   3.566
37634SOL    HW114799  11.780   3.502   3.642
37634SOL    HW214800  11.849   3.467   3.512
37635SOL     OW14801   8.599   0.625   4.329
37635SOL    HW114802   8.587   0.712   4.291
37635SOL    HW214803   8.635   0.642   4.416
37636SOL     OW14804   6.617   6.542  10.624
37636SOL    HW114805   6.636   6.476  10.557
37636SOL    HW214806   6.638   6.625  10.583
37637SOL     OW14807  12.303   9.632   0.297
37637SOL    HW114808  12.250   9.703   0.334
37637SOL    HW214809  12.292   9.641   0.203
37638SOL     OW14810  11.131   7.372   1.853
37638SOL    HW114811  11.078   7.405   1.926
37638SOL    HW214812  11.211   7.340   1.894
37639SOL     OW14813   2.224  12.704   7.322
37639SOL    HW114814   2.189  12.619   7.298
37639SOL    HW214815   2.285  12.727   7.252
37640SOL     OW14816   5.809  11.845  12.970
37640SOL    HW114817   5.836  11.773  12.912
37640SOL    HW214818   5.880  11.851  13.035
37641SOL     OW14819   4.523   5.830  14.609
37641SOL    HW114820   4.486   5.851  14.694
37641SOL    HW214821   4.532   5.915  14.565
37642SOL     OW14822   7.339   0.130   8.310
37642SOL    HW114823   7.366   0.146   8.400
37642SOL    HW214824   7.287   0.207   8.286
37643SOL     OW14825   3.719   7.079   4.633
37643SOL    HW114826   3.729   7.132   4.553
37643SOL    HW214827   3.684   6.996   4.603
37644SOL     OW14828   9.699   1.045  12.846
37644SOL    HW114829   9.759   1.014  12.778
37644SOL    HW214830   9.647   0.968  12.869
37645SOL     OW14831   8.182   3.718   0.469
37645SOL    HW114832   8.270   3.755   0.464
37645SOL    HW214833   8.177   3.681   0.558
37646SOL     OW14834  14.273   2.560   8.109
37646SOL    HW114835  14.285   2.466   8.125
37646SOL    HW214836  14.191   2.581   8.153
37647SOL     OW14837   3.301   7.546   0.999
37647SOL    HW114838   3.270   7.611   0.936
37647SOL    HW214839   3.383   7.583   1.033
37648SOL     OW14840  11.252   3.573   2.653
37648SOL    HW114841  11.246   3.489   2.607
37648SOL    HW214842  11.181   3.569   2.717
37649SOL     OW14843   5.222  12.939   0.776
37649SOL    HW114844   5.177  12.889   0.844
37649SOL    HW214845   5.152  12.975   0.722
37650SOL     OW14846  12.801   4.210   5.805
37650SOL    HW114847  12.775   4.182   5.893
37650SOL    HW214848  12.719   4.242   5.766
37651SOL     OW14849   3.105  12.126   1.725
37651SOL    HW114850   3.131  12.035   1.707
37651SOL    HW214851   3.019  12.135   1.685
37652SOL     OW14852   9.708   5.758   7.994
37652SOL    HW114853   9.641   5.694   8.018
37652SOL    HW214854   9.682   5.838   8.042
37653SOL     OW14855   1.637  10.528   0.535
37653SOL    HW114856   1.728  10.538   0.510
37653SOL    HW214857   1.591  10.595   0.483
37654SOL     OW14858  10.437   8.149   7.259
37654SOL    HW114859  10.523   8.185   7.280
37654SOL    HW214860  10.397   8.131   7.344
37655SOL     OW14861  10.633   5.237   5.614
37655SOL    HW114862  10.586   5.154   5.624
37655SOL    HW214863  10.590   5.279   5.540
37656SOL     OW14864   7.649   3.591   1.009
37656SOL    HW114865   7.643   3.514   1.064
37656SOL    HW214866   7.728   3.636   1.038
37657SOL     OW14867   7.464   5.787   4.773
37657SOL    HW114868   7.533   5.822   4.830
37657SOL    HW214869   7.387   5.782   4.829
37658SOL     OW14870   5.886   2.594  14.648
37658SOL    HW114871   5.825   2.662  14.619
37658SOL    HW214872   5.944   2.580  14.574
37659SOL     OW14873   0.348   7.663   7.637
37659SOL    HW114874   0.441   7.685   7.637
37659SOL    HW214875   0.345   7.569   7.621
37660SOL     OW14876  11.633  13.432   6.764
37660SOL    HW114877  11.710  13.393   6.805
37660SOL    HW214878  11.641  13.409   6.671
37661SOL     OW14879   1.502   8.341   5.644
37661SOL    HW114880   1.471   8.407   5.705
37661SOL    HW214881   1.432   8.275   5.642
37662SOL     OW14882   9.692  13.413  14.540
37662SOL    HW114883   9.637  13.348  14.584
37662SOL    HW214884   9.776  13.408  14.585
37663SOL     OW14885  12.660  11.668   8.797
37663SOL    HW114886  12.712  11.675   8.877
37663SOL    HW214887  12.711  11.715   8.731
37664SOL     OW14888   0.008  12.040   3.229
37664SOL    HW114889   0.031  12.132   3.212
37664SOL    HW214890  14.840  12.013   3.150
37665SOL     OW14891   6.325   2.316  13.962
37665SOL    HW114892   6.383   2.241  13.954
37665SOL    HW214893   6.337   2.365  13.880
37666SOL     OW14894   5.729   7.325  13.236
37666SOL    HW114895   5.803   7.366  13.190
37666SOL    HW214896   5.716   7.242  13.190
37667SOL     OW14897   3.376   7.459   8.025
37667SOL    HW114898   3.282   7.441   8.035
37667SOL    HW214899   3.415   7.427   8.106
37668SOL     OW14900  14.811   9.631   9.289
37668SOL    HW114901  14.830   9.668   9.375
37668SOL    HW214902  14.829   9.537   9.298
37669SOL     OW14903   6.895  13.285   5.431
37669SOL    HW114904   6.849  13.339   5.367
37669SOL    HW214905   6.979  13.329   5.444
37670SOL     OW14906   5.700   9.531  11.698
37670SOL    HW114907   5.774   9.576  11.739
37670SOL    HW214908   5.623   9.578  11.730
37671SOL     OW14909   4.632  12.600   7.426
37671SOL    HW114910   4.702  12.543   7.458
37671SOL    HW214911   4.624  12.579   7.333
37672SOL     OW14912   0.593   1.248   2.975
37672SOL    HW114913   0.686   1.238   2.996
37672SOL    HW214914   0.571   1.171   2.922
37673SOL     OW14915   8.133  10.766   9.292
37673SOL    HW114916   8.202  10.724   9.239
37673SOL    HW214917   8.159  10.858   9.296
37674SOL     OW14918  10.610  12.663  12.320
37674SOL    HW114919  10.677  12.649  12.388
37674SOL    HW214920  10.652  12.634  12.239
37675SOL     OW14921   7.655   0.338   8.387
37675SOL    HW114922   7.701   0.421   8.371
37675SOL    HW214923   7.571   0.365   8.426
37676SOL     OW14924   6.347   1.189  10.525
37676SOL    HW114925   6.429   1.200  10.477
37676SOL    HW214926   6.341   1.094  10.540
37677SOL     OW14927   8.200  11.946  13.400
37677SOL    HW114928   8.220  11.858  13.433
37677SOL    HW214929   8.139  11.981  13.465
37678SOL     OW14930   3.699   2.187   3.061
37678SOL    HW114931   3.790   2.198   3.033
37678SOL    HW214932   3.667   2.113   3.010
37679SOL     OW14933   8.677   2.620   7.515
37679SOL    HW114934   8.659   2.683   7.446
37679SOL    HW214935   8.624   2.649   7.589
37680SOL     OW14936   4.860   6.572  12.702
37680SOL    HW114937   4.955   6.565  12.708
37680SOL    HW214938   4.844   6.611  12.616
37681SOL     OW14939   9.539   5.873  13.648
37681SOL    HW114940   9.487   5.802  13.610
37681SOL    HW214941   9.615   5.879  13.590
37682SOL     OW14942   6.771   8.451   1.591
37682SOL    HW114943   6.691   8.504   1.582
37682SOL    HW214944   6.769   8.420   1.681
37683SOL     OW14945   6.058   3.746  10.662
37683SOL    HW114946   6.090   3.815  10.721
37683SOL    HW214947   6.053   3.668  10.717
37684SOL     OW14948  14.319   1.273   1.948
37684SOL    HW114949  14.241   1.279   2.002
37684SOL    HW214950  14.375   1.345   1.978
37685SOL     OW14951   4.122   3.531  12.336
37685SOL    HW114952   4.131   3.475  12.413
37685SOL    HW214953   4.049   3.493  12.287
37686SOL     OW14954  13.931  10.129  10.028
37686SOL    HW114955  13.923  10.170   9.942
37686SOL    HW214956  14.000  10.179  10.072
37687SOL     OW14957   9.287  13.986  12.128
37687SOL    HW114958   9.334  14.007  12.209
37687SOL    HW214959   9.350  13.934  12.077
37688SOL     OW14960  14.231   7.303   9.996
37688SOL    HW114961  14.315   7.347  10.003
37688SOL    HW214962  14.196   7.331   9.911
37689SOL     OW14963  14.709   5.052   6.281
37689SOL    HW114964  14.677   5.094   6.361
37689SOL    HW214965  14.765   4.981   6.313
37690SOL     OW14966   5.589   7.701   1.651
37690SOL    HW114967   5.644   7.715   1.728
37690SOL    HW214968   5.577   7.789   1.614
37691SOL     OW14969   7.181   1.620   8.896
37691SOL    HW114970   7.128   1.630   8.975
37691SOL    HW214971   7.186   1.525   8.882
37692SOL     OW14972   6.522   5.180   9.488
37692SOL    HW114973   6.535   5.123   9.564
37692SOL    HW214974   6.439   5.151   9.451
37693SOL     OW14975  13.606  12.296   5.675
37693SOL    HW114976  13.620  12.227   5.610
37693SOL    HW214977  13.526  12.340   5.646
37694SOL     OW14978   5.437   8.033   9.857
37694SOL    HW114979   5.489   7.954   9.873
37694SOL    HW214980   5.443   8.083   9.938
37695SOL     OW14981   0.798   8.092   8.810
37695SOL    HW114982   0.708   8.060   8.824
37695SOL    HW214983   0.793   8.138   8.725
37696SOL     OW14984   0.715   0.869  14.586
37696SOL    HW114985   0.708   0.955  14.626
37696SOL    HW214986   0.733   0.810  14.660
37697SOL     OW14987  13.020   3.778  12.043
37697SOL    HW114988  13.000   3.868  12.066
37697SOL    HW214989  13.080   3.784  11.969
37698SOL     OW14990   9.961  12.790  10.183
37698SOL    HW114991   9.932  12.787  10.092
37698SOL    HW214992   9.976  12.884  10.200
37699SOL     OW14993   4.800   3.988   4.698
37699SOL    HW114994   4.886   3.990   4.654
37699SOL    HW214995   4.765   4.076   4.683
37700SOL     OW14996  13.659   4.428   0.073
37700SOL    HW114997  13.709   4.465   0.001
37700SOL    HW214998  13.715   4.358   0.108
37701SOL     OW14999  11.243   5.791  13.061
37701SOL    HW115000  11.314   5.727  13.052
37701SOL    HW215001  11.268   5.845  13.136
37702SOL     OW15002  13.295  10.164   3.010
37702SOL    HW115003  13.339  10.080   3.003
37702SOL    HW215004  13.266  10.168   3.102
37703SOL     OW15005   8.603   8.015   6.939
37703SOL    HW115006   8.548   8.093   6.944
37703SOL    HW215007   8.547   7.948   6.901
37704SOL     OW15008  10.543   5.681   4.392
37704SOL    HW115009  10.615   5.672   4.455
37704SOL    HW215010  10.571   5.752   4.334
37705SOL     OW15011  11.424  13.120   1.698
37705SOL    HW115012  11.503  13.156   1.657
37705SOL    HW215013  11.358  13.188   1.686
37706SOL     OW15014   3.527  10.484   9.159
37706SOL    HW115015   3.447  10.431   9.151
37706SOL    HW215016   3.527  10.514   9.250
37707SOL     OW15017  14.635   8.567   9.250
37707SOL    HW115018  14.650   8.562   9.345
37707SOL    HW215019  14.547   8.533   9.237
37708SOL     OW15020   3.348  14.716   5.593
37708SOL    HW115021   3.306  14.714   5.678
37708SOL    HW215022   3.440  14.696   5.610
37709SOL     OW15023   4.232   7.573   0.693
37709SOL    HW115024   4.260   7.554   0.604
37709SOL    HW215025   4.227   7.488   0.736
37710SOL     OW15026   5.782   3.981   6.563
37710SOL    HW115027   5.755   4.039   6.633
37710SOL    HW215028   5.815   3.903   6.608
37711SOL     OW15029  12.111  10.947   7.182
37711SOL    HW115030  12.168  10.921   7.110
37711SOL    HW215031  12.025  10.913   7.159
37712SOL     OW15032   0.390  11.461   9.873
37712SOL    HW115033   0.348  11.405   9.939
37712SOL    HW215034   0.338  11.448   9.794
37713SOL     OW15035  14.691   4.986   1.699
37713SOL    HW115036  14.636   5.012   1.624
37713SOL    HW215037  14.633   4.992   1.775
37714SOL     OW15038   9.194  12.006   8.530
37714SOL    HW115039   9.174  11.925   8.483
37714SOL    HW215040   9.278  11.988   8.572
37715SOL     OW15041   0.136   9.468  10.756
37715SOL    HW115042   0.138   9.396  10.819
37715SOL    HW215043   0.066   9.446  10.695
37716SOL     OW15044   4.284  10.671   1.631
37716SOL    HW115045   4.337  10.742   1.667
37716SOL    HW215046   4.347  10.609   1.595
37717SOL     OW15047   3.365   4.171   1.976
37717SOL    HW115048   3.413   4.171   2.059
37717SOL    HW215049   3.422   4.123   1.916
37718SOL     OW15050   4.985   7.622  13.620
37718SOL    HW115051   4.916   7.574  13.575
37718SOL    HW215052   4.979   7.595  13.711
37719SOL     OW15053   6.206   9.933   3.528
37719SOL    HW115054   6.232   9.865   3.590
37719SOL    HW215055   6.149   9.888   3.465
37720SOL     OW15056  10.675   8.382   0.996
37720SOL    HW115057  10.670   8.477   0.998
37720SOL    HW215058  10.586   8.353   0.976
37721SOL     OW15059  10.376   2.717   8.811
37721SOL    HW115060  10.334   2.746   8.730
37721SOL    HW215061  10.460   2.682   8.783
37722SOL     OW15062   6.057   1.488  11.062
37722SOL    HW115063   5.965   1.460  11.058
37722SOL    HW215064   6.103   1.413  11.100
37723SOL     OW15065   5.363   3.233   0.962
37723SOL    HW115066   5.289   3.265   1.012
37723SOL    HW215067   5.439   3.275   1.002
37724SOL     OW15068   0.934   7.024   0.804
37724SOL    HW115069   0.904   7.094   0.746
37724SOL    HW215070   1.030   7.027   0.798
37725SOL     OW15071   7.993  14.478   8.382
37725SOL    HW115072   7.961  14.507   8.297
37725SOL    HW215073   8.088  14.487   8.376
37726SOL     OW15074   2.623   7.222  12.432
37726SOL    HW115075   2.547   7.165  12.450
37726SOL    HW215076   2.605   7.259  12.345
37727SOL     OW15077   0.335   4.123   8.306
37727SOL    HW115078   0.374   4.048   8.261
37727SOL    HW215079   0.283   4.167   8.239
37728SOL     OW15080  14.003   7.451   9.067
37728SOL    HW115081  14.046   7.536   9.056
37728SOL    HW215082  13.950   7.461   9.146
37729SOL     OW15083   6.378  13.421   5.600
37729SOL    HW115084   6.429  13.412   5.519
37729SOL    HW215085   6.392  13.512   5.627
37730SOL     OW15086   0.552   0.941   8.503
37730SOL    HW115087   0.526   0.859   8.462
37730SOL    HW215088   0.485   1.004   8.476
37731SOL     OW15089   0.575   1.869   0.982
37731SOL    HW115090   0.560   1.943   1.040
37731SOL    HW215091   0.567   1.905   0.893
37732SOL     OW15092   7.850   2.305  12.899
37732SOL    HW115093   7.830   2.297  12.805
37732SOL    HW215094   7.806   2.386  12.925
37733SOL     OW15095   8.293  12.039  10.152
37733SOL    HW115096   8.245  12.044  10.069
37733SOL    HW215097   8.347  12.118  10.153
37734SOL     OW15098   5.661   1.894   1.378
37734SOL    HW115099   5.713   1.966   1.341
37734SOL    HW215100   5.701   1.815   1.344
37735SOL     OW15101   2.833  10.412   2.948
37735SOL    HW115102   2.809  10.447   2.862
37735SOL    HW215103   2.856  10.489   2.999
37736SOL     OW15104   9.040   5.386   5.083
37736SOL    HW115105   8.984   5.359   5.156
37736SOL    HW215106   9.104   5.316   5.075
37737SOL     OW15107   8.304   5.666   2.904
37737SOL    HW115108   8.399   5.666   2.897
37737SOL    HW215109   8.286   5.695   2.994
37738SOL     OW15110  11.265   5.698   6.327
37738SOL    HW115111  11.277   5.792   6.314
37738SOL    HW215112  11.195   5.692   6.392
37739SOL     OW15113   2.244   4.891   4.772
37739SOL    HW115114   2.162   4.905   4.725
37739SOL    HW215115   2.291   4.974   4.765
37740SOL     OW15116   9.907  12.543   2.647
37740SOL    HW115117   9.958  12.467   2.674
37740SOL    HW215118   9.902  12.597   2.726
37741SOL     OW15119   6.862   1.225   0.047
37741SOL    HW115120   6.849   1.255   0.137
37741SOL    HW215121   6.802   1.152   0.037
37742SOL     OW15122   3.133  12.682  12.838
37742SOL    HW115123   3.215  12.731  12.837
37742SOL    HW215124   3.126  12.649  12.927
37743SOL     OW15125   3.684   7.075   3.740
37743SOL    HW115126   3.628   7.014   3.693
37743SOL    HW215127   3.762   7.084   3.684
37744SOL     OW15128   5.691   8.488   8.453
37744SOL    HW115129   5.678   8.582   8.465
37744SOL    HW215130   5.763   8.483   8.390
37745SOL     OW15131  10.094   0.638   6.334
37745SOL    HW115132  10.097   0.707   6.400
37745SOL    HW215133  10.123   0.559   6.380
37746SOL     OW15134   4.759   8.639  10.032
37746SOL    HW115135   4.777   8.549  10.060
37746SOL    HW215136   4.758   8.690  10.113
37747SOL     OW15137   4.450   4.477   7.976
37747SOL    HW115138   4.448   4.530   7.896
37747SOL    HW215139   4.519   4.413   7.960
37748SOL     OW15140   7.396   5.393  10.133
37748SOL    HW115141   7.315   5.432  10.166
37748SOL    HW215142   7.412   5.438  10.050
37749SOL     OW15143   5.016   3.988  10.552
37749SOL    HW115144   5.076   4.051  10.514
37749SOL    HW215145   5.023   3.911  10.495
37750SOL     OW15146   0.218  11.578   4.363
37750SOL    HW115147   0.154  11.600   4.296
37750SOL    HW215148   0.168  11.575   4.445
37751SOL     OW15149   3.976  13.240   3.959
37751SOL    HW115150   4.024  13.299   3.902
37751SOL    HW215151   3.907  13.294   3.998
37752SOL     OW15152   4.151  11.435   9.580
37752SOL    HW115153   4.057  11.448   9.589
37752SOL    HW215154   4.185  11.523   9.563
37753SOL     OW15155   9.747  10.350   6.335
37753SOL    HW115156   9.707  10.270   6.300
37753SOL    HW215157   9.838  10.326   6.352
37754SOL     OW15158   2.102  11.068   9.566
37754SOL    HW115159   2.083  10.991   9.620
37754SOL    HW215160   2.101  11.142   9.627
37755SOL     OW15161   6.689   4.307  14.702
37755SOL    HW115162   6.648   4.305  14.616
37755SOL    HW215163   6.717   4.216  14.716
37756SOL     OW15164   3.257   8.429   1.149
37756SOL    HW115165   3.276   8.505   1.204
37756SOL    HW215166   3.317   8.437   1.075
37757SOL     OW15167   6.555  10.978  14.597
37757SOL    HW115168   6.596  10.894  14.618
37757SOL    HW215169   6.603  11.010  14.520
37758SOL     OW15170   0.230  13.784   1.307
37758SOL    HW115171   0.189  13.811   1.225
37758SOL    HW215172   0.259  13.866   1.347
37759SOL     OW15173   0.912  10.658   9.945
37759SOL    HW115174   0.871  10.653   9.858
37759SOL    HW215175   0.840  10.675  10.005
37760SOL     OW15176  14.525  10.837   8.440
37760SOL    HW115177  14.483  10.838   8.354
37760SOL    HW215178  14.501  10.920   8.480
37761SOL     OW15179   3.786   5.535  13.327
37761SOL    HW115180   3.842   5.506  13.399
37761SOL    HW215181   3.768   5.627  13.347
37762SOL     OW15182  14.174  12.448  12.519
37762SOL    HW115183  14.102  12.463  12.458
37762SOL    HW215184  14.136  12.394  12.588
37763SOL     OW15185   5.602  14.739   1.887
37763SOL    HW115186   5.546  14.816   1.874
37763SOL    HW215187   5.573  14.677   1.821
37764SOL     OW15188   5.687  13.392   0.840
37764SOL    HW115189   5.760  13.333   0.820
37764SOL    HW215190   5.685  13.453   0.766
37765SOL     OW15191  12.367   3.336   0.677
37765SOL    HW115192  12.361   3.291   0.760
37765SOL    HW215193  12.444   3.299   0.634
37766SOL     OW15194   6.280   2.684  10.912
37766SOL    HW115195   6.343   2.731  10.856
37766SOL    HW215196   6.299   2.715  11.000
37767SOL     OW15197   1.331  13.614   2.159
37767SOL    HW115198   1.310  13.546   2.223
37767SOL    HW215199   1.409  13.582   2.115
37768SOL     OW15200   9.720   4.321  13.604
37768SOL    HW115201   9.653   4.282  13.547
37768SOL    HW215202   9.765   4.246  13.643
37769SOL     OW15203   6.463   8.054  11.912
37769SOL    HW115204   6.450   8.021  12.001
37769SOL    HW215205   6.425   7.986  11.856
37770SOL     OW15206  10.698   1.996  12.228
37770SOL    HW115207  10.633   2.063  12.248
37770SOL    HW215208  10.702   1.942  12.307
37771SOL     OW15209   2.447   3.727  14.529
37771SOL    HW115210   2.390   3.732  14.606
37771SOL    HW215211   2.496   3.645  14.541
37772SOL     OW15212   6.344   2.118   8.632
37772SOL    HW115213   6.258   2.128   8.674
37772SOL    HW215214   6.323   2.087   8.544
37773SOL     OW15215   4.857  14.489   5.269
37773SOL    HW115216   4.931  14.538   5.306
37773SOL    HW215217   4.881  14.474   5.178
37774SOL     OW15218   4.062  12.416  12.847
37774SOL    HW115219   4.047  12.345  12.910
37774SOL    HW215220   3.992  12.479  12.864
37775SOL     OW15221   8.665   0.471   1.757
37775SOL    HW115222   8.731   0.495   1.692
37775SOL    HW215223   8.688   0.522   1.835
37776SOL     OW15224  13.008  14.205   5.973
37776SOL    HW115225  13.028  14.114   5.994
37776SOL    HW215226  12.942  14.200   5.905
37777SOL     OW15227   8.940   3.244   3.147
37777SOL    HW115228   8.897   3.298   3.080
37777SOL    HW215229   8.879   3.172   3.162
37778SOL     OW15230  12.581   0.049   1.815
37778SOL    HW115231  12.676   0.037   1.811
37778SOL    HW215232  12.551   0.029   1.727
37779SOL     OW15233   1.957   1.872  14.552
37779SOL    HW115234   1.963   1.965  14.574
37779SOL    HW215235   2.043   1.837  14.574
37780SOL     OW15236   5.364   8.112  14.524
37780SOL    HW115237   5.393   8.200  14.500
37780SOL    HW215238   5.269   8.114  14.514
37781SOL     OW15239  10.844  13.223   8.555
37781SOL    HW115240  10.750  13.228   8.566
37781SOL    HW215241  10.857  13.220   8.460
37782SOL     OW15242  11.693   7.905   1.474
37782SOL    HW115243  11.726   7.847   1.406
37782SOL    HW215244  11.650   7.847   1.537
37783SOL     OW15245   5.928   1.565  14.695
37783SOL    HW115246   5.876   1.543  14.773
37783SOL    HW215247   5.875   1.535  14.621
37784SOL     OW15248   7.923   0.320  10.718
37784SOL    HW115249   7.921   0.345  10.811
37784SOL    HW215250   7.877   0.391  10.673
37785SOL     OW15251  11.259   1.020  13.144
37785SOL    HW115252  11.293   0.985  13.227
37785SOL    HW215253  11.279   1.113  13.147
37786SOL     OW15254  14.156   1.468   1.729
37786SOL    HW115255  14.122   1.379   1.722
37786SOL    HW215256  14.078   1.522   1.741
37787SOL     OW15257   9.419   3.737   8.226
37787SOL    HW115258   9.469   3.722   8.307
37787SOL    HW215259   9.341   3.785   8.255
37788SOL     OW15260   8.131   0.893  12.491
37788SOL    HW115261   8.146   0.953  12.418
37788SOL    HW215262   8.131   0.806  12.452
37789SOL     OW15263   6.336  11.609   8.643
37789SOL    HW115264   6.317  11.700   8.667
37789SOL    HW215265   6.268  11.586   8.580
37790SOL     OW15266   8.041   3.487   2.515
37790SOL    HW115267   8.044   3.439   2.598
37790SOL    HW215268   8.033   3.579   2.541
37791SOL     OW15269  10.719  12.373   3.975
37791SOL    HW115270  10.692  12.458   4.011
37791SOL    HW215271  10.755  12.326   4.050
37792SOL     OW15272   4.512   8.128  10.586
37792SOL    HW115273   4.524   8.151  10.678
37792SOL    HW215274   4.417   8.126  10.574
37793SOL     OW15275   0.844   3.270   6.517
37793SOL    HW115276   0.874   3.179   6.517
37793SOL    HW215277   0.787   3.277   6.593
37794SOL     OW15278   9.141   5.486   2.826
37794SOL    HW115279   9.079   5.473   2.754
37794SOL    HW215280   9.087   5.519   2.898
37795SOL     OW15281   5.151  14.127   0.372
37795SOL    HW115282   5.188  14.041   0.390
37795SOL    HW215283   5.122  14.159   0.457
37796SOL     OW15284   8.843  13.985   8.706
37796SOL    HW115285   8.817  13.989   8.798
37796SOL    HW215286   8.919  14.043   8.700
37797SOL     OW15287   6.193  13.394   8.603
37797SOL    HW115288   6.263  13.329   8.596
37797SOL    HW215289   6.116  13.343   8.628
37798SOL     OW15290   0.959   8.152   2.753
37798SOL    HW115291   0.941   8.072   2.704
37798SOL    HW215292   1.001   8.122   2.833
37799SOL     OW15293   6.490  14.625   7.088
37799SOL    HW115294   6.439  14.604   7.010
37799SOL    HW215295   6.466  14.558   7.152
37800SOL     OW15296   2.889  10.936   1.472
37800SOL    HW115297   2.962  10.919   1.412
37800SOL    HW215298   2.834  10.858   1.465
37801SOL     OW15299   1.191   5.701   9.295
37801SOL    HW115300   1.211   5.788   9.328
37801SOL    HW215301   1.190   5.645   9.372
37802SOL     OW15302  10.331  12.096   2.433
37802SOL    HW115303  10.353  12.178   2.477
37802SOL    HW215304  10.236  12.098   2.424
37803SOL     OW15305   4.397   1.643  10.587
37803SOL    HW115306   4.315   1.676  10.552
37803SOL    HW215307   4.383   1.549  10.598
37804SOL     OW15308   3.160  14.537   5.115
37804SOL    HW115309   3.143  14.564   5.025
37804SOL    HW215310   3.245  14.493   5.112
37805SOL     OW15311   1.784   6.553   6.965
37805SOL    HW115312   1.763   6.579   6.876
37805SOL    HW215313   1.705   6.509   6.997
37806SOL     OW15314  10.008   0.582  12.544
37806SOL    HW115315  10.049   0.553  12.462
37806SOL    HW215316  10.073   0.639  12.584
37807SOL     OW15317   0.698  12.185   5.862
37807SOL    HW115318   0.659  12.272   5.867
37807SOL    HW215319   0.712  12.169   5.769
37808SOL     OW15320   2.432  14.387  12.193
37808SOL    HW115321   2.501  14.448  12.218
37808SOL    HW215322   2.361  14.405  12.255
37809SOL     OW15323   5.780   7.371  12.136
37809SOL    HW115324   5.814   7.324  12.059
37809SOL    HW215325   5.690   7.341  12.145
37810SOL     OW15326   7.585   1.336   1.257
37810SOL    HW115327   7.675   1.342   1.224
37810SOL    HW215328   7.594   1.292   1.341
37811SOL     OW15329   2.940  10.540  10.691
37811SOL    HW115330   2.981  10.526  10.776
37811SOL    HW215331   2.982  10.476  10.633
37812SOL     OW15332  14.739   7.493  12.772
37812SOL    HW115333  14.676   7.542  12.719
37812SOL    HW215334  14.763   7.553  12.842
37813SOL     OW15335   3.636  12.988  12.470
37813SOL    HW115336   3.622  13.071  12.424
37813SOL    HW215337   3.564  12.932  12.441
37814SOL     OW15338   4.683   0.029   3.895
37814SOL    HW115339   4.701  14.839   3.958
37814SOL    HW215340   4.676   0.108   3.949
37815SOL     OW15341  12.650   9.701  12.435
37815SOL    HW115342  12.623   9.610  12.446
37815SOL    HW215343  12.571   9.746  12.405
37816SOL     OW15344  12.544  13.322   3.583
37816SOL    HW115345  12.619  13.374   3.611
37816SOL    HW215346  12.506  13.288   3.664
37817SOL     OW15347   8.960   3.738  11.452
37817SOL    HW115348   9.046   3.762  11.418
37817SOL    HW215349   8.906   3.816  11.438
37818SOL     OW15350  14.382   8.667  13.543
37818SOL    HW115351  14.466   8.631  13.515
37818SOL    HW215352  14.323   8.650  13.470
37819SOL     OW15353  12.107   7.199  11.184
37819SOL    HW115354  12.024   7.169  11.221
37819SOL    HW215355  12.173   7.144  11.225
37820SOL     OW15356  11.897   7.385   6.119
37820SOL    HW115357  11.858   7.361   6.203
37820SOL    HW215358  11.981   7.424   6.143
37821SOL     OW15359   9.916   5.313   1.611
37821SOL    HW115360   9.837   5.277   1.570
37821SOL    HW215361   9.988   5.279   1.557
37822SOL     OW15362  13.853   7.738  13.002
37822SOL    HW115363  13.931   7.699  12.964
37822SOL    HW215364  13.780   7.697  12.954
37823SOL     OW15365  14.208   9.898   1.111
37823SOL    HW115366  14.175   9.890   1.200
37823SOL    HW215367  14.149   9.844   1.059
37824SOL     OW15368   5.192   6.824   8.835
37824SOL    HW115369   5.112   6.845   8.786
37824SOL    HW215370   5.204   6.898   8.894
37825SOL     OW15371   9.468   0.915   8.232
37825SOL    HW115372   9.474   0.977   8.304
37825SOL    HW215373   9.468   0.969   8.153
37826SOL     OW15374   0.303   7.753   4.419
37826SOL    HW115375   0.267   7.842   4.426
37826SOL    HW215376   0.241   7.698   4.467
37827SOL     OW15377   5.766   6.648   3.173
37827SOL    HW115378   5.838   6.708   3.189
37827SOL    HW215379   5.699   6.702   3.131
37828SOL     OW15380   5.401   5.412   1.422
37828SOL    HW115381   5.481   5.464   1.436
37828SOL    HW215382   5.376   5.383   1.510
37829SOL     OW15383  12.797   5.813   7.149
37829SOL    HW115384  12.890   5.792   7.157
37829SOL    HW215385  12.780   5.808   7.055
37830SOL     OW15386   2.810   3.618   8.841
37830SOL    HW115387   2.851   3.667   8.770
37830SOL    HW215388   2.727   3.586   8.804
37831SOL     OW15389   1.861  11.614  12.900
37831SOL    HW115390   1.803  11.575  12.966
37831SOL    HW215391   1.809  11.685  12.863
37832SOL     OW15392   9.899  10.380   4.952
37832SOL    HW115393   9.936  10.294   4.935
37832SOL    HW215394   9.948  10.414   5.027
37833SOL     OW15395   4.323   3.379   0.364
37833SOL    HW115396   4.361   3.402   0.280
37833SOL    HW215397   4.312   3.284   0.361
37834SOL     OW15398   6.859  12.955   2.761
37834SOL    HW115399   6.950  12.985   2.752
37834SOL    HW215400   6.824  12.957   2.672
37835SOL     OW15401  12.987   8.959  10.716
37835SOL    HW115402  12.907   8.987  10.759
37835SOL    HW215403  13.056   9.013  10.756
37836SOL     OW15404   3.077  12.570  13.082
37836SOL    HW115405   3.095  12.476  13.090
37836SOL    HW215406   3.106  12.607  13.165
37837SOL     OW15407   4.260   5.558   8.588
37837SOL    HW115408   4.205   5.513   8.652
37837SOL    HW215409   4.341   5.577   8.636
37838SOL     OW15410   2.848   3.998   0.138
37838SOL    HW115411   2.861   4.071   0.198
37838SOL    HW215412   2.781   3.944   0.179
37839SOL     OW15413   7.967   6.899   4.281
37839SOL    HW115414   7.875   6.878   4.297
37839SOL    HW215415   7.965   6.991   4.252
37840SOL     OW15416  10.030  12.434   5.928
37840SOL    HW115417  10.093  12.467   5.992
37840SOL    HW215418   9.971  12.508   5.913
37841SOL     OW15419   4.286   3.705  13.589
37841SOL    HW115420   4.265   3.693  13.496
37841SOL    HW215421   4.357   3.769  13.589
37842SOL     OW15422  11.396   2.961   3.196
37842SOL    HW115423  11.425   3.034   3.142
37842SOL    HW215424  11.347   3.001   3.268
37843SOL     OW15425   2.788  10.806  12.331
37843SOL    HW115426   2.788  10.712  12.350
37843SOL    HW215427   2.714  10.841  12.380
37844SOL     OW15428   0.484   3.226   3.399
37844SOL    HW115429   0.508   3.297   3.340
37844SOL    HW215430   0.411   3.260   3.450
37845SOL     OW15431   8.781  13.007  13.133
37845SOL    HW115432   8.832  12.935  13.169
37845SOL    HW215433   8.804  13.009  13.040
37846SOL     OW15434   7.170   9.304   7.071
37846SOL    HW115435   7.076   9.301   7.052
37846SOL    HW215436   7.200   9.215   7.052
37847SOL     OW15437   0.569   8.865   2.519
37847SOL    HW115438   0.527   8.889   2.437
37847SOL    HW215439   0.661   8.850   2.496
37848SOL     OW15440   8.988  13.566   2.053
37848SOL    HW115441   9.064  13.585   2.109
37848SOL    HW215442   8.928  13.639   2.068
37849SOL     OW15443   1.864   1.542  11.111
37849SOL    HW115444   1.815   1.581  11.039
37849SOL    HW215445   1.955   1.568  11.095
37850SOL     OW15446   4.363  11.016   7.036
37850SOL    HW115447   4.434  10.951   7.033
37850SOL    HW215448   4.391  11.079   7.102
37851SOL     OW15449   1.726  11.077   5.548
37851SOL    HW115450   1.743  10.983   5.544
37851SOL    HW215451   1.809  11.115   5.578
37852SOL     OW15452   3.420   6.074  11.302
37852SOL    HW115453   3.387   6.005  11.360
37852SOL    HW215454   3.352   6.085  11.236
37853SOL     OW15455   9.253  13.493  14.059
37853SOL    HW115456   9.333  13.456  14.022
37853SOL    HW215457   9.258  13.587  14.039
37854SOL     OW15458   6.364   1.156   0.011
37854SOL    HW115459   6.281   1.198  14.871
37854SOL    HW215460   6.417   1.169  14.812
37855SOL     OW15461  11.850  14.823   6.178
37855SOL    HW115462  11.806  14.850   6.258
37855SOL    HW215463  11.827  14.730   6.168
37856SOL     OW15464   7.532   8.746  10.402
37856SOL    HW115465   7.570   8.815  10.456
37856SOL    HW215466   7.559   8.665  10.444
37857SOL     OW15467  10.258   3.380   8.659
37857SOL    HW115468  10.176   3.342   8.626
37857SOL    HW215469  10.308   3.401   8.580
37858SOL     OW15470  13.181   5.192  12.199
37858SOL    HW115471  13.238   5.232  12.264
37858SOL    HW215472  13.099   5.240  12.206
37859SOL     OW15473   6.251  13.327  14.284
37859SOL    HW115474   6.297  13.379  14.218
37859SOL    HW215475   6.165  13.368  14.291
37860SOL     OW15476  11.472   5.262   6.511
37860SOL    HW115477  11.533   5.220   6.449
37860SOL    HW215478  11.474   5.355   6.487
37861SOL     OW15479  13.629  10.118  14.198
37861SOL    HW115480  13.721  10.108  14.174
37861SOL    HW215481  13.586  10.040  14.162
37862SOL     OW15482   0.919   9.094   8.134
37862SOL    HW115483   0.877   9.030   8.076
37862SOL    HW215484   1.007   9.059   8.148
37863SOL     OW15485  12.116   0.586   4.154
37863SOL    HW115486  12.125   0.513   4.215
37863SOL    HW215487  12.069   0.654   4.203
37864SOL     OW15488  11.270  13.161  14.568
37864SOL    HW115489  11.250  13.204  14.651
37864SOL    HW215490  11.222  13.078  14.571
37865SOL     OW15491   9.961   4.344   9.450
37865SOL    HW115492   9.879   4.314   9.491
37865SOL    HW215493   9.965   4.297   9.367
37866SOL     OW15494  14.328   1.384   6.635
37866SOL    HW115495  14.395   1.359   6.698
37866SOL    HW215496  14.246   1.377   6.683
37867SOL     OW15497   3.143   4.530  12.618
37867SOL    HW115498   3.066   4.515  12.672
37867SOL    HW215499   3.109   4.542  12.529
37868SOL     OW15500   9.526  12.283   6.975
37868SOL    HW115501   9.502  12.375   6.980
37868SOL    HW215502   9.587  12.278   6.901
37869SOL     OW15503   1.575   4.939   4.372
37869SOL    HW115504   1.530   4.979   4.298
37869SOL    HW215505   1.505   4.918   4.434
37870SOL     OW15506   1.462  14.711   3.780
37870SOL    HW115507   1.546  14.693   3.738
37870SOL    HW215508   1.446  14.634   3.834
37871SOL     OW15509  14.268  13.642   4.902
37871SOL    HW115510  14.202  13.591   4.948
37871SOL    HW215511  14.225  13.725   4.881
37872SOL     OW15512   8.245  10.718  11.431
37872SOL    HW115513   8.213  10.635  11.396
37872SOL    HW215514   8.338  10.704  11.446
37873SOL     OW15515  12.673   5.960   7.822
37873SOL    HW115516  12.708   5.923   7.904
37873SOL    HW215517  12.728   6.035   7.804
37874SOL     OW15518  13.940  13.391  12.884
37874SOL    HW115519  13.999  13.380  12.959
37874SOL    HW215520  13.910  13.303  12.865
37875SOL     OW15521   5.210   5.379  14.206
37875SOL    HW115522   5.215   5.341  14.294
37875SOL    HW215523   5.137   5.333  14.164
37876SOL     OW15524   8.411   7.021   2.595
37876SOL    HW115525   8.330   6.986   2.633
37876SOL    HW215526   8.461   6.943   2.570
37877SOL     OW15527   9.110   3.957  10.430
37877SOL    HW115528   9.127   4.051  10.441
37877SOL    HW215529   9.125   3.919  10.517
37878SOL     OW15530   9.406   1.872  13.111
37878SOL    HW115531   9.457   1.925  13.050
37878SOL    HW215532   9.315   1.888  13.087
37879SOL     OW15533  11.204   0.353   6.838
37879SOL    HW115534  11.124   0.379   6.792
37879SOL    HW215535  11.275   0.379   6.780
37880SOL     OW15536   0.398   0.286   6.827
37880SOL    HW115537   0.360   0.275   6.914
37880SOL    HW215538   0.327   0.266   6.767
37881SOL     OW15539   6.049   7.176   0.513
37881SOL    HW115540   5.964   7.134   0.502
37881SOL    HW215541   6.109   7.122   0.461
37882SOL     OW15542  14.032   1.017  10.432
37882SOL    HW115543  14.125   0.996  10.439
37882SOL    HW215544  14.019   1.094  10.486
37883SOL     OW15545  12.380  13.919   2.774
37883SOL    HW115546  12.473  13.937   2.762
37883SOL    HW215547  12.338  14.004   2.763
37884SOL     OW15548   0.440   7.908  11.489
37884SOL    HW115549   0.475   7.974  11.548
37884SOL    HW215550   0.347   7.931  11.479
37885SOL     OW15551   7.249  14.107  14.304
37885SOL    HW115552   7.329  14.064  14.332
37885SOL    HW215553   7.276  14.166  14.233
37886SOL     OW15554  14.850  12.411   7.602
37886SOL    HW115555   0.000  12.500   7.620
37886SOL    HW215556   0.037  12.375   7.543
37887SOL     OW15557   9.680  14.306  14.458
37887SOL    HW115558   9.616  14.236  14.469
37887SOL    HW215559   9.679  14.354  14.541
37888SOL     OW15560  12.542  10.525   2.310
37888SOL    HW115561  12.548  10.467   2.234
37888SOL    HW215562  12.523  10.467   2.383
37889SOL     OW15563  12.534  10.728   4.958
37889SOL    HW115564  12.591  10.712   5.033
37889SOL    HW215565  12.512  10.641   4.925
37890SOL     OW15566   6.081   4.550  12.406
37890SOL    HW115567   6.103   4.474  12.352
37890SOL    HW215568   6.157   4.608  12.397
37891SOL     OW15569   2.257  11.842   9.775
37891SOL    HW115570   2.178  11.870   9.819
37891SOL    HW215571   2.289  11.767   9.826
37892SOL     OW15572   9.657   2.938   4.396
37892SOL    HW115573   9.618   2.994   4.463
37892SOL    HW215574   9.586   2.882   4.367
37893SOL     OW15575   7.141  12.524   4.060
37893SOL    HW115576   7.119  12.444   4.012
37893SOL    HW215577   7.064  12.580   4.051
37894SOL     OW15578  10.665  10.652   2.170
37894SOL    HW115579  10.665  10.747   2.181
37894SOL    HW215580  10.665  10.618   2.260
37895SOL     OW15581   1.111   9.369   1.174
37895SOL    HW115582   1.161   9.293   1.206
37895SOL    HW215583   1.093   9.420   1.252
37896SOL     OW15584   8.396  10.527   4.249
37896SOL    HW115585   8.454  10.496   4.179
37896SOL    HW215586   8.392  10.454   4.310
37897SOL     OW15587   6.931  11.405   5.060
37897SOL    HW115588   6.980  11.436   5.137
37897SOL    HW215589   6.865  11.346   5.096
37898SOL     OW15590   6.663   1.041   4.365
37898SOL    HW115591   6.697   1.119   4.409
37898SOL    HW215592   6.662   0.974   4.434
37899SOL     OW15593   8.519  10.321   4.461
37899SOL    HW115594   8.499  10.240   4.413
37899SOL    HW215595   8.607  10.306   4.496
37900SOL     OW15596   1.536  13.960   9.276
37900SOL    HW115597   1.547  13.977   9.182
37900SOL    HW215598   1.555  13.867   9.286
37901SOL     OW15599   1.654  14.773   8.365
37901SOL    HW115600   1.650  14.768   8.461
37901SOL    HW215601   1.680  14.685   8.338
37902SOL     OW15602   1.182   1.207   6.245
37902SOL    HW115603   1.196   1.176   6.156
37902SOL    HW215604   1.133   1.289   6.235
37903SOL     OW15605   2.427   0.474  11.865
37903SOL    HW115606   2.505   0.419  11.861
37903SOL    HW215607   2.407   0.481  11.959
37904SOL     OW15608   5.119   6.697   0.029
37904SOL    HW115609   5.025   6.718   0.020
37904SOL    HW215610   5.163   6.762  14.853
37905SOL     OW15611   5.156   0.971  11.250
37905SOL    HW115612   5.061   0.973  11.267
37905SOL    HW215613   5.172   0.884  11.212
37906SOL     OW15614  10.235  13.265   1.236
37906SOL    HW115615  10.189  13.184   1.212
37906SOL    HW215616  10.215  13.277   1.329
37907SOL     OW15617   7.936  14.596  12.162
37907SOL    HW115618   7.930  14.691  12.152
37907SOL    HW215619   7.871  14.561  12.102
37908SOL     OW15620  11.905   9.672   4.698
37908SOL    HW115621  11.944   9.697   4.782
37908SOL    HW215622  11.945   9.732   4.635
37909SOL     OW15623   3.898   8.202  10.257
37909SOL    HW115624   3.841   8.221  10.183
37909SOL    HW215625   3.893   8.279  10.313
37910SOL     OW15626  13.550   5.577   7.485
37910SOL    HW115627  13.465   5.620   7.478
37910SOL    HW215628  13.551   5.515   7.412
37911SOL     OW15629   0.466  10.111   0.741
37911SOL    HW115630   0.538  10.119   0.804
37911SOL    HW215631   0.388  10.138   0.790
37912SOL     OW15632   6.650  10.452  14.454
37912SOL    HW115633   6.608  10.474  14.537
37912SOL    HW215634   6.720  10.391  14.477
37913SOL     OW15635   5.898  10.520  11.250
37913SOL    HW115636   5.900  10.460  11.175
37913SOL    HW215637   5.805  10.526  11.272
37914SOL     OW15638  13.197   2.447   6.218
37914SOL    HW115639  13.283   2.421   6.252
37914SOL    HW215640  13.208   2.537   6.189
37915SOL     OW15641   7.873  13.491   9.610
37915SOL    HW115642   7.804  13.541   9.653
37915SOL    HW215643   7.846  13.488   9.518
37916SOL     OW15644  13.672   7.367   6.760
37916SOL    HW115645  13.693   7.376   6.853
37916SOL    HW215646  13.727   7.432   6.716
37917SOL     OW15647   5.742  10.398   2.714
37917SOL    HW115648   5.770  10.420   2.625
37917SOL    HW215649   5.647  10.395   2.710
37918SOL     OW15650  10.799   8.003   5.765
37918SOL    HW115651  10.838   8.079   5.808
37918SOL    HW215652  10.826   7.928   5.817
37919SOL     OW15653   0.395  10.507  12.437
37919SOL    HW115654   0.383  10.458  12.355
37919SOL    HW215655   0.481  10.481  12.468
37920SOL     OW15656   3.892   6.758   3.574
37920SOL    HW115657   3.891   6.687   3.639
37920SOL    HW215658   3.922   6.717   3.494
37921SOL     OW15659   8.815  10.164  11.520
37921SOL    HW115660   8.766  10.172  11.602
37921SOL    HW215661   8.750  10.135  11.456
37922SOL     OW15662  11.634   0.676   0.506
37922SOL    HW115663  11.679   0.593   0.517
37922SOL    HW215664  11.702   0.742   0.515
37923SOL     OW15665   3.546   9.965   9.272
37923SOL    HW115666   3.610   9.930   9.210
37923SOL    HW215667   3.483   9.894   9.284
37924SOL     OW15668  11.571   2.537   3.971
37924SOL    HW115669  11.604   2.506   3.887
37924SOL    HW215670  11.649   2.568   4.017
37925SOL     OW15671   4.550   8.841   3.943
37925SOL    HW115672   4.644   8.823   3.934
37925SOL    HW215673   4.507   8.776   3.888
37926SOL     OW15674   3.970  10.820  13.823
37926SOL    HW115675   3.970  10.910  13.794
37926SOL    HW215676   3.932  10.823  13.911
37927SOL     OW15677   2.967   2.728   4.527
37927SOL    HW115678   2.980   2.720   4.433
37927SOL    HW215679   2.879   2.765   4.537
37928SOL     OW15680   5.511   8.578   5.754
37928SOL    HW115681   5.442   8.566   5.820
37928SOL    HW215682   5.579   8.515   5.779
37929SOL     OW15683  11.024   5.564  13.443
37929SOL    HW115684  11.072   5.493  13.486
37929SOL    HW215685  10.938   5.527  13.423
37930SOL     OW15686   3.395  12.526   7.812
37930SOL    HW115687   3.483  12.542   7.778
37930SOL    HW215688   3.410  12.482   7.896
37931SOL     OW15689   0.438   6.865  13.714
37931SOL    HW115690   0.454   6.959  13.713
37931SOL    HW215691   0.378   6.850  13.641
37932SOL     OW15692  12.329   0.686   6.286
37932SOL    HW115693  12.292   0.751   6.226
37932SOL    HW215694  12.285   0.604   6.262
37933SOL     OW15695  13.311   2.811   2.192
37933SOL    HW115696  13.302   2.764   2.275
37933SOL    HW215697  13.347   2.747   2.131
37934SOL     OW15698   9.024  12.240   2.631
37934SOL    HW115699   9.008  12.270   2.720
37934SOL    HW215700   8.969  12.296   2.576
37935SOL     OW15701   9.196   9.255   0.333
37935SOL    HW115702   9.269   9.297   0.378
37935SOL    HW215703   9.168   9.318   0.267
37936SOL     OW15704  11.557  11.551   7.636
37936SOL    HW115705  11.619  11.558   7.563
37936SOL    HW215706  11.605  11.505   7.704
37937SOL     OW15707   5.369   1.704   7.283
37937SOL    HW115708   5.396   1.627   7.333
37937SOL    HW215709   5.413   1.777   7.326
37938SOL     OW15710   3.999  14.527  14.662
37938SOL    HW115711   3.932  14.483  14.611
37938SOL    HW215712   4.071  14.465  14.667
37939SOL     OW15713   9.115   7.625   0.547
37939SOL    HW115714   9.144   7.605   0.458
37939SOL    HW215715   9.185   7.591   0.603
37940SOL     OW15716  11.169  12.354  11.493
37940SOL    HW115717  11.076  12.352  11.519
37940SOL    HW215718  11.215  12.311  11.566
37941SOL     OW15719   8.278   5.139   1.621
37941SOL    HW115720   8.344   5.142   1.552
37941SOL    HW215721   8.313   5.078   1.685
37942SOL     OW15722   5.747   7.896   4.683
37942SOL    HW115723   5.837   7.922   4.667
37942SOL    HW215724   5.734   7.819   4.628
37943SOL     OW15725  13.849   7.828   8.044
37943SOL    HW115726  13.770   7.833   7.990
37943SOL    HW215727  13.821   7.788   8.126
37944SOL     OW15728   2.403   7.933   5.398
37944SOL    HW115729   2.402   7.917   5.304
37944SOL    HW215730   2.330   7.994   5.412
37945SOL     OW15731  10.255   4.309  13.139
37945SOL    HW115732  10.260   4.293  13.045
37945SOL    HW215733  10.245   4.222  13.178
37946SOL     OW15734   6.046   7.690  13.753
37946SOL    HW115735   6.054   7.745  13.675
37946SOL    HW215736   6.083   7.606  13.727
37947SOL     OW15737   4.470   8.540   7.540
37947SOL    HW115738   4.450   8.481   7.612
37947SOL    HW215739   4.565   8.552   7.545
37948SOL     OW15740  11.591   3.361   1.271
37948SOL    HW115741  11.668   3.305   1.283
37948SOL    HW215742  11.545   3.355   1.355
37949SOL     OW15743   4.503   8.377   4.409
37949SOL    HW115744   4.428   8.428   4.379
37949SOL    HW215745   4.566   8.381   4.336
37950SOL     OW15746   7.681   8.051   5.275
37950SOL    HW115747   7.643   8.075   5.190
37950SOL    HW215748   7.716   8.133   5.310
37951SOL     OW15749  10.101  11.763   8.861
37951SOL    HW115750  10.079  11.673   8.884
37951SOL    HW215751  10.018  11.800   8.829
37952SOL     OW15752  13.646   6.265   6.849
37952SOL    HW115753  13.676   6.236   6.763
37952SOL    HW215754  13.558   6.297   6.835
37953SOL     OW15755   6.807  14.237   1.564
37953SOL    HW115756   6.777  14.146   1.562
37953SOL    HW215757   6.895  14.232   1.601
37954SOL     OW15758  14.077   5.673  13.586
37954SOL    HW115759  13.990   5.640  13.610
37954SOL    HW215760  14.059   5.754  13.538
37955SOL     OW15761   8.383   4.735   8.202
37955SOL    HW115762   8.363   4.700   8.289
37955SOL    HW215763   8.445   4.805   8.218
37956SOL     OW15764   3.879   2.763   5.963
37956SOL    HW115765   3.913   2.752   5.875
37956SOL    HW215766   3.888   2.676   6.003
37957SOL     OW15767  14.187   3.360   1.100
37957SOL    HW115768  14.146   3.274   1.096
37957SOL    HW215769  14.266   3.351   1.046
37958SOL     OW15770   3.579   8.807   6.249
37958SOL    HW115771   3.530   8.879   6.208
37958SOL    HW215772   3.529   8.728   6.227
37959SOL     OW15773   7.864   0.611  11.231
37959SOL    HW115774   7.832   0.690  11.187
37959SOL    HW215775   7.954   0.600  11.198
37960SOL     OW15776   0.165   9.369  12.804
37960SOL    HW115777   0.185   9.352  12.896
37960SOL    HW215778   0.212   9.450  12.783
37961SOL     OW15779   8.350  14.491   4.413
37961SOL    HW115780   8.424  14.445   4.373
37961SOL    HW215781   8.390  14.551   4.476
37962SOL     OW15782  13.482  12.313  10.698
37962SOL    HW115783  13.390  12.287  10.686
37962SOL    HW215784  13.491  12.324  10.792
37963SOL     OW15785   6.248   8.307  14.447
37963SOL    HW115786   6.327   8.254  14.450
37963SOL    HW215787   6.256   8.367  14.521
37964SOL     OW15788   2.980  12.575   6.169
37964SOL    HW115789   2.957  12.520   6.094
37964SOL    HW215790   2.976  12.517   6.245
37965SOL     OW15791   5.563   8.755   4.530
37965SOL    HW115792   5.613   8.680   4.499
37965SOL    HW215793   5.628   8.814   4.568
37966SOL     OW15794  14.183  11.622   4.137
37966SOL    HW115795  14.220  11.710   4.132
37966SOL    HW215796  14.220  11.577   4.061
37967SOL     OW15797   8.273   4.418   5.143
37967SOL    HW115798   8.256   4.434   5.050
37967SOL    HW215799   8.193   4.446   5.188
37968SOL     OW15800  11.085   5.274  13.345
37968SOL    HW115801  11.017   5.227  13.394
37968SOL    HW215802  11.161   5.216  13.348
37969SOL     OW15803   7.870   1.539   2.082
37969SOL    HW115804   7.857   1.448   2.110
37969SOL    HW215805   7.801   1.554   2.017
37970SOL     OW15806   9.510   2.262   4.800
37970SOL    HW115807   9.478   2.200   4.735
37970SOL    HW215808   9.594   2.227   4.828
37971SOL     OW15809  13.043  11.491   9.728
37971SOL    HW115810  12.962  11.446   9.705
37971SOL    HW215811  13.091  11.499   9.646
37972SOL     OW15812  11.929   6.118  13.093
37972SOL    HW115813  11.922   6.208  13.063
37972SOL    HW215814  11.882   6.115  13.176
37973SOL     OW15815   7.658  10.816  11.208
37973SOL    HW115816   7.661  10.882  11.139
37973SOL    HW215817   7.576  10.769  11.192
37974SOL     OW15818  11.561   1.580   5.172
37974SOL    HW115819  11.636   1.548   5.122
37974SOL    HW215820  11.590   1.577   5.263
37975SOL     OW15821   1.697   0.605   8.706
37975SOL    HW115822   1.675   0.521   8.746
37975SOL    HW215823   1.703   0.666   8.781
37976SOL     OW15824  10.253  12.206  13.410
37976SOL    HW115825  10.319  12.219  13.341
37976SOL    HW215826  10.286  12.132  13.460
37977SOL     OW15827  12.950   2.335  13.835
37977SOL    HW115828  12.928   2.335  13.742
37977SOL    HW215829  12.960   2.428  13.857
37978SOL     OW15830   6.838   7.222   7.513
37978SOL    HW115831   6.774   7.224   7.584
37978SOL    HW215832   6.920   7.245   7.554
37979SOL     OW15833   6.850   9.031  11.785
37979SOL    HW115834   6.940   9.065  11.776
37979SOL    HW215835   6.850   8.951  11.733
37980SOL     OW15836   0.208   3.682   5.988
37980SOL    HW115837   0.296   3.647   6.000
37980SOL    HW215838   0.150   3.611   6.015
37981SOL     OW15839   1.439  12.132   7.079
37981SOL    HW115840   1.508  12.122   7.145
37981SOL    HW215841   1.385  12.054   7.088
37982SOL     OW15842   9.331  13.109   5.579
37982SOL    HW115843   9.401  13.161   5.618
37982SOL    HW215844   9.365  13.020   5.578
37983SOL     OW15845  14.360   5.321   6.849
37983SOL    HW115846  14.355   5.239   6.800
37983SOL    HW215847  14.410   5.299   6.927
37984SOL     OW15848  10.760   4.617   7.345
37984SOL    HW115849  10.745   4.646   7.255
37984SOL    HW215850  10.855   4.610   7.353
37985SOL     OW15851   1.936   6.102   8.445
37985SOL    HW115852   1.924   6.174   8.382
37985SOL    HW215853   1.931   6.145   8.530
37986SOL     OW15854   4.134   5.382   5.358
37986SOL    HW115855   4.158   5.474   5.348
37986SOL    HW215856   4.039   5.381   5.346
37987SOL     OW15857   0.729   2.660   8.640
37987SOL    HW115858   0.743   2.737   8.585
37987SOL    HW215859   0.794   2.597   8.610
37988SOL     OW15860  10.502   2.778  13.965
37988SOL    HW115861  10.524   2.709  13.902
37988SOL    HW215862  10.513   2.860  13.916
37989SOL     OW15863   6.977   4.866  11.418
37989SOL    HW115864   7.002   4.945  11.369
37989SOL    HW215865   7.050   4.853  11.479
37990SOL     OW15866   9.488   2.403   5.340
37990SOL    HW115867   9.504   2.471   5.406
37990SOL    HW215868   9.472   2.324   5.391
37991SOL     OW15869   0.115   0.216   8.195
37991SOL    HW115870   0.097   0.279   8.126
37991SOL    HW215871   0.033   0.166   8.205
37992SOL     OW15872   9.044   4.368   6.038
37992SOL    HW115873   9.012   4.451   6.073
37992SOL    HW215874   8.976   4.305   6.061
37993SOL     OW15875   3.223   7.973   2.985
37993SOL    HW115876   3.265   8.053   3.017
37993SOL    HW215877   3.294   7.909   2.979
37994SOL     OW15878  14.783   1.560   1.998
37994SOL    HW115879  14.805   1.468   2.016
37994SOL    HW215880  14.846   1.610   2.048
37995SOL     OW15881  13.521   1.004  13.469
37995SOL    HW115882  13.557   0.935  13.414
37995SOL    HW215883  13.522   1.082  13.413
37996SOL     OW15884   8.858   6.556  11.176
37996SOL    HW115885   8.791   6.498  11.212
37996SOL    HW215886   8.884   6.515  11.093
37997SOL     OW15887   6.643   3.915  12.783
37997SOL    HW115888   6.680   3.998  12.814
37997SOL    HW215889   6.718   3.868  12.748
37998SOL     OW15890   1.417   3.159  13.437
37998SOL    HW115891   1.471   3.148  13.515
37998SOL    HW215892   1.462   3.108  13.370
37999SOL     OW15893  12.289   0.467   5.649
37999SOL    HW115894  12.331   0.552   5.661
37999SOL    HW215895  12.348   0.419   5.591
38000SOL     OW15896   2.058  11.528   2.690
38000SOL    HW115897   1.965  11.509   2.678
38000SOL    HW215898   2.094  11.528   2.601
38001SOL     OW15899   7.196  12.229   8.805
38001SOL    HW115900   7.207  12.315   8.845
38001SOL    HW215901   7.285  12.194   8.799
38002SOL     OW15902   7.407   7.952   1.261
38002SOL    HW115903   7.355   7.873   1.278
38002SOL    HW215904   7.439   7.978   1.347
38003SOL     OW15905   0.778  14.339   9.688
38003SOL    HW115906   0.860  14.341   9.638
38003SOL    HW215907   0.761  14.430   9.709
38004SOL     OW15908   4.904   6.832   8.786
38004SOL    HW115909   4.886   6.750   8.831
38004SOL    HW215910   4.895   6.810   8.693
38005SOL     OW15911   4.823   4.343   0.447
38005SOL    HW115912   4.799   4.265   0.397
38005SOL    HW215913   4.784   4.329   0.534
38006SOL     OW15914   0.370  13.070   8.405
38006SOL    HW115915   0.347  13.162   8.415
38006SOL    HW215916   0.360  13.052   8.312
38007SOL     OW15917   6.930  10.298  14.445
38007SOL    HW115918   6.974  10.252  14.374
38007SOL    HW215919   6.941  10.240  14.521
38008SOL     OW15920   1.926   5.035   7.156
38008SOL    HW115921   1.888   5.123   7.155
38008SOL    HW215922   1.854   4.979   7.185
38009SOL     OW15923  13.395   7.004  14.660
38009SOL    HW115924  13.381   6.910  14.675
38009SOL    HW215925  13.474   7.007  14.606
38010SOL     OW15926   7.439   1.271   4.704
38010SOL    HW115927   7.456   1.279   4.797
38010SOL    HW215928   7.358   1.220   4.698
38011SOL     OW15929  11.896   3.022  11.220
38011SOL    HW115930  11.976   2.982  11.254
38011SOL    HW215931  11.899   3.004  11.126
38012SOL     OW15932   1.110   2.509   0.705
38012SOL    HW115933   1.146   2.464   0.781
38012SOL    HW215934   1.043   2.567   0.741
38013SOL     OW15935  12.919   7.658  12.564
38013SOL    HW115936  12.953   7.573  12.591
38013SOL    HW215937  12.832   7.640  12.530
38014SOL     OW15938  14.278   6.925  11.611
38014SOL    HW115939  14.372   6.936  11.623
38014SOL    HW215940  14.247   6.887  11.693
38015SOL     OW15941  11.288  10.290  13.707
38015SOL    HW115942  11.193  10.298  13.701
38015SOL    HW215943  11.321  10.334  13.629
38016SOL     OW15944   4.886   1.099  10.089
38016SOL    HW115945   4.836   1.054  10.021
38016SOL    HW215946   4.967   1.127  10.046
38017SOL     OW15947   6.995  11.473  12.521
38017SOL    HW115948   6.960  11.521  12.596
38017SOL    HW215949   7.021  11.542  12.459
38018SOL     OW15950   4.154   0.765   9.282
38018SOL    HW115951   4.179   0.731   9.196
38018SOL    HW215952   4.210   0.842   9.294
38019SOL     OW15953  13.345   5.786  14.493
38019SOL    HW115954  13.299   5.742  14.422
38019SOL    HW215955  13.289   5.773  14.570
38020SOL     OW15956   5.697  14.515   6.887
38020SOL    HW115957   5.704  14.426   6.921
38020SOL    HW215958   5.752  14.568   6.944
38021SOL     OW15959   6.550   1.919   8.496
38021SOL    HW115960   6.463   1.959   8.495
38021SOL    HW215961   6.553   1.868   8.415
38022SOL     OW15962  11.380  12.702   0.172
38022SOL    HW115963  11.428  12.717   0.254
38022SOL    HW215964  11.377  12.788   0.130
38023SOL     OW15965   3.476  12.021   2.137
38023SOL    HW115966   3.484  12.105   2.091
38023SOL    HW215967   3.394  11.984   2.105
38024SOL     OW15968   5.987   4.907   8.932
38024SOL    HW115969   5.940   4.965   8.992
38024SOL    HW215970   6.065   4.956   8.907
38025SOL     OW15971  10.258   5.345   4.574
38025SOL    HW115972  10.288   5.431   4.544
38025SOL    HW215973  10.177   5.363   4.621
38026SOL     OW15974  10.966   1.126   3.559
38026SOL    HW115975  10.907   1.158   3.491
38026SOL    HW215976  10.994   1.204   3.607
38027SOL     OW15977  11.728   0.333   7.205
38027SOL    HW115978  11.689   0.378   7.281
38027SOL    HW215979  11.716   0.395   7.133
38028SOL     OW15980   1.035  11.683   8.580
38028SOL    HW115981   0.960  11.720   8.626
38028SOL    HW215982   1.094  11.653   8.649
38029SOL     OW15983   1.164   5.513   9.047
38029SOL    HW115984   1.223   5.555   9.109
38029SOL    HW215985   1.085   5.567   9.048
38030SOL     OW15986   4.169  13.431   7.818
38030SOL    HW115987   4.239  13.483   7.858
38030SOL    HW215988   4.157  13.471   7.732
38031SOL     OW15989   5.002   2.448   0.894
38031SOL    HW115990   4.971   2.425   0.981
38031SOL    HW215991   5.042   2.368   0.860
38032SOL     OW15992   7.239  13.893   2.080
38032SOL    HW115993   7.291  13.943   2.017
38032SOL    HW215994   7.257  13.934   2.164
38033SOL     OW15995   5.311   3.091   4.187
38033SOL    HW115996   5.398   3.067   4.154
38033SOL    HW215997   5.271   3.141   4.117
38034SOL     OW15998  13.054  13.327  13.164
38034SOL    HW115999  12.975  13.358  13.119
38034SOL    HW216000  13.109  13.405  13.171
38035SOL     OW16001   6.835   2.916   6.392
38035SOL    HW116002   6.816   2.893   6.483
38035SOL    HW216003   6.883   2.999   6.398
38036SOL     OW16004  14.863  11.701   4.247
38036SOL    HW116005  14.859  11.757   4.169
38036SOL    HW216006  14.778  11.657   4.250
38037SOL     OW16007   8.366   7.407  11.668
38037SOL    HW116008   8.435   7.426  11.731
38037SOL    HW216009   8.351   7.313  11.678
38038SOL     OW16010   7.797  10.392  11.125
38038SOL    HW116011   7.880  10.414  11.084
38038SOL    HW216012   7.800  10.435  11.211
38039SOL     OW16013   4.098   6.577   1.332
38039SOL    HW116014   4.028   6.533   1.282
38039SOL    HW216015   4.136   6.507   1.385
38040SOL     OW16016  11.072  10.383   1.141
38040SOL    HW116017  11.146  10.348   1.091
38040SOL    HW216018  10.995  10.340   1.104
38041SOL     OW16019   7.888   3.123   9.208
38041SOL    HW116020   7.824   3.189   9.234
38041SOL    HW216021   7.882   3.056   9.275
38042SOL     OW16022   3.550   0.296   4.876
38042SOL    HW116023   3.466   0.339   4.893
38042SOL    HW216024   3.613   0.343   4.932
38043SOL     OW16025   3.340   2.546   7.551
38043SOL    HW116026   3.408   2.526   7.487
38043SOL    HW216027   3.305   2.631   7.524
38044SOL     OW16028  12.368   6.026   9.174
38044SOL    HW116029  12.443   6.013   9.116
38044SOL    HW216030  12.350   6.120   9.168
38045SOL     OW16031  12.488   9.968   7.188
38045SOL    HW116032  12.394   9.960   7.176
38045SOL    HW216033  12.505  10.062   7.192
38046SOL     OW16034   1.581  13.689   1.582
38046SOL    HW116035   1.541  13.683   1.496
38046SOL    HW216036   1.622  13.604   1.596
38047SOL     OW16037   0.483   5.809  10.397
38047SOL    HW116038   0.568   5.853  10.392
38047SOL    HW216039   0.458   5.794  10.306
38048SOL     OW16040   3.321  12.203   7.927
38048SOL    HW116041   3.323  12.285   7.977
38048SOL    HW216042   3.403  12.159   7.950
38049SOL     OW16043  11.184   8.196  11.378
38049SOL    HW116044  11.101   8.149  11.384
38049SOL    HW216045  11.214   8.180  11.289
38050SOL     OW16046   4.542   6.097   7.609
38050SOL    HW116047   4.598   6.173   7.626
38050SOL    HW216048   4.514   6.068   7.696
38051SOL     OW16049  11.325   3.781   1.290
38051SOL    HW116050  11.368   3.711   1.242
38051SOL    HW216051  11.244   3.742   1.322
38052SOL     OW16052   4.679  13.462   2.878
38052SOL    HW116053   4.636  13.426   2.800
38052SOL    HW216054   4.688  13.387   2.937
38053SOL     OW16055   5.197   2.023   2.374
38053SOL    HW116056   5.224   1.980   2.455
38053SOL    HW216057   5.101   2.026   2.380
38054SOL     OW16058   2.785  13.536   1.214
38054SOL    HW116059   2.761  13.627   1.229
38054SOL    HW216060   2.878  13.539   1.193
38055SOL     OW16061   8.186  14.456  11.912
38055SOL    HW116062   8.216  14.547  11.907
38055SOL    HW216063   8.223  14.423  11.994
38056SOL     OW16064  11.172   7.309   3.303
38056SOL    HW116065  11.100   7.255   3.335
38056SOL    HW216066  11.213   7.256   3.235
38057SOL     OW16067  14.745   7.150   3.364
38057SOL    HW116068  14.736   7.245   3.369
38057SOL    HW216069  14.684   7.123   3.296
38058SOL     OW16070  13.913   4.877   1.116
38058SOL    HW116071  13.957   4.950   1.160
38058SOL    HW216072  13.973   4.851   1.046
38059SOL     OW16073   0.767   3.306   6.246
38059SOL    HW116074   0.791   3.291   6.337
38059SOL    HW216075   0.672   3.319   6.248
38060SOL     OW16076   0.894   7.712   5.036
38060SOL    HW116077   0.939   7.696   4.952
38060SOL    HW216078   0.931   7.794   5.067
38061SOL     OW16079   4.154  12.457   7.357
38061SOL    HW116080   4.231  12.403   7.345
38061SOL    HW216081   4.148  12.507   7.275
38062SOL     OW16082  14.094  10.463  11.035
38062SOL    HW116083  14.089  10.385  10.980
38062SOL    HW216084  14.182  10.497  11.020
38063SOL     OW16085  10.539   1.021   4.039
38063SOL    HW116086  10.577   0.951   3.987
38063SOL    HW216087  10.605   1.039   4.106
38064SOL     OW16088  12.380  12.287   9.894
38064SOL    HW116089  12.318  12.244   9.953
38064SOL    HW216090  12.391  12.225   9.822
38065SOL     OW16091  10.381  13.149  10.523
38065SOL    HW116092  10.351  13.064  10.555
38065SOL    HW216093  10.477  13.141  10.518
38066SOL     OW16094   2.136  12.048   7.075
38066SOL    HW116095   2.084  12.048   7.155
38066SOL    HW216096   2.097  12.117   7.021
38067SOL     OW16097   3.236   8.760  13.941
38067SOL    HW116098   3.163   8.722  13.990
38067SOL    HW216099   3.251   8.846  13.981
38068SOL     OW16100  14.419  14.146   2.332
38068SOL    HW116101  14.414  14.051   2.343
38068SOL    HW216102  14.498  14.172   2.380
38069SOL     OW16103  10.430   5.343   2.827
38069SOL    HW116104  10.432   5.402   2.752
38069SOL    HW216105  10.413   5.401   2.902
38070SOL     OW16106   6.446  11.114  14.805
38070SOL    HW116107   6.452  11.055  14.730
38070SOL    HW216108   6.450  11.202  14.768
38071SOL     OW16109   0.717   9.777   8.677
38071SOL    HW116110   0.741   9.868   8.689
38071SOL    HW216111   0.745   9.757   8.587
38072SOL     OW16112  11.418   9.587  12.023
38072SOL    HW116113  11.337   9.566  11.977
38072SOL    HW216114  11.406   9.550  12.110
38073SOL     OW16115  12.720   3.827   5.483
38073SOL    HW116116  12.803   3.872   5.469
38073SOL    HW216117  12.654   3.895   5.476
38074SOL     OW16118   5.231  13.910   3.633
38074SOL    HW116119   5.173  13.862   3.693
38074SOL    HW216120   5.180  13.986   3.606
38075SOL     OW16121   0.690  13.902   3.581
38075SOL    HW116122   0.748  13.903   3.504
38075SOL    HW216123   0.750  13.907   3.655
38076SOL     OW16124   3.972   5.692  11.188
38076SOL    HW116125   3.881   5.717  11.171
38076SOL    HW216126   3.986   5.614  11.135
38077SOL     OW16127   4.502   4.956  14.296
38077SOL    HW116128   4.576   5.013  14.276
38077SOL    HW216129   4.541   4.882  14.343
38078SOL     OW16130  13.976   2.855   4.516
38078SOL    HW116131  13.998   2.771   4.557
38078SOL    HW216132  14.058   2.885   4.477
38079SOL     OW16133  13.221   3.526  11.632
38079SOL    HW116134  13.178   3.590  11.689
38079SOL    HW216135  13.150   3.488  11.580
38080SOL     OW16136   8.905   9.101   5.111
38080SOL    HW116137   8.991   9.095   5.151
38080SOL    HW216138   8.874   9.011   5.108
38081SOL     OW16139   5.061   5.310   4.059
38081SOL    HW116140   5.133   5.370   4.079
38081SOL    HW216141   5.105   5.227   4.039
38082SOL     OW16142   9.847   8.632  13.185
38082SOL    HW116143   9.774   8.577  13.214
38082SOL    HW216144   9.916   8.617  13.249
38083SOL     OW16145  13.750  12.770  11.558
38083SOL    HW116146  13.663  12.740  11.585
38083SOL    HW216147  13.759  12.856  11.599
38084SOL     OW16148   2.268   6.007  14.200
38084SOL    HW116149   2.174   6.014  14.213
38084SOL    HW216150   2.287   5.913  14.207
38085SOL     OW16151  11.122   3.955   5.320
38085SOL    HW116152  11.068   3.902   5.261
38085SOL    HW216153  11.145   3.896   5.392
38086SOL     OW16154   7.369   6.760   5.728
38086SOL    HW116155   7.300   6.736   5.667
38086SOL    HW216156   7.324   6.804   5.800
38087SOL     OW16157   2.314   4.773   6.133
38087SOL    HW116158   2.246   4.806   6.075
38087SOL    HW216159   2.288   4.803   6.220
38088SOL     OW16160   5.208  10.792   9.227
38088SOL    HW116161   5.239  10.765   9.140
38088SOL    HW216162   5.128  10.841   9.210
38089SOL     OW16163   5.958   5.022   4.699
38089SOL    HW116164   5.953   5.117   4.688
38089SOL    HW216165   5.972   5.010   4.793
38090SOL     OW16166  11.917   7.761  12.984
38090SOL    HW116167  11.829   7.752  12.949
38090SOL    HW216168  11.908   7.748  13.078
38091SOL     OW16169  13.393   3.947   4.266
38091SOL    HW116170  13.352   3.959   4.180
38091SOL    HW216171  13.320   3.933   4.325
38092SOL     OW16172  11.294   6.425  10.024
38092SOL    HW116173  11.332   6.494   9.970
38092SOL    HW216174  11.245   6.472  10.092
38093SOL     OW16175   1.938   5.806   4.636
38093SOL    HW116176   1.862   5.854   4.669
38093SOL    HW216177   2.011   5.867   4.647
38094SOL     OW16178   5.078  12.741  14.718
38094SOL    HW116179   5.042  12.705  14.637
38094SOL    HW216180   5.163  12.697  14.728
38095SOL     OW16181  11.470   3.724  10.916
38095SOL    HW116182  11.556   3.764  10.927
38095SOL    HW216183  11.452   3.684  11.001
38096SOL     OW16184  10.825   9.155   2.833
38096SOL    HW116185  10.818   9.081   2.773
38096SOL    HW216186  10.839   9.231   2.777
38097SOL     OW16187   4.336   1.215  11.378
38097SOL    HW116188   4.338   1.310  11.379
38097SOL    HW216189   4.425   1.189  11.354
38098SOL     OW16190   4.703   2.725   3.869
38098SOL    HW116191   4.651   2.805   3.860
38098SOL    HW216192   4.781   2.751   3.916
38099SOL     OW16193   4.535  10.700  10.122
38099SOL    HW116194   4.448  10.729  10.092
38099SOL    HW216195   4.520  10.670  10.211
38100SOL     OW16196  14.793   6.212   7.050
38100SOL    HW116197  14.829   6.141   7.103
38100SOL    HW216198  14.801   6.290   7.104
38101SOL     OW16199  10.262  14.192   6.488
38101SOL    HW116200  10.227  14.139   6.416
38101SOL    HW216201  10.296  14.271   6.445
38102SOL     OW16202   2.726   9.329   8.657
38102SOL    HW116203   2.762   9.417   8.659
38102SOL    HW216204   2.693   9.317   8.568
38103SOL     OW16205  10.433   0.706   8.516
38103SOL    HW116206  10.402   0.668   8.598
38103SOL    HW216207  10.356   0.751   8.480
38104SOL     OW16208   3.065  13.859   9.536
38104SOL    HW116209   3.026  13.880   9.451
38104SOL    HW216210   3.068  13.943   9.582
38105SOL     OW16211   5.277  10.430  14.435
38105SOL    HW116212   5.348  10.452  14.495
38105SOL    HW216213   5.268  10.335  14.442
38106SOL     OW16214   1.295   2.161  11.116
38106SOL    HW116215   1.300   2.216  11.039
38106SOL    HW216216   1.385   2.157  11.149
38107SOL     OW16217   5.030   1.869  13.181
38107SOL    HW116218   5.033   1.891  13.274
38107SOL    HW216219   4.944   1.898  13.152
38108SOL     OW16220  10.225  12.576   1.815
38108SOL    HW116221  10.133  12.562   1.834
38108SOL    HW216222  10.262  12.488   1.806
38109SOL     OW16223   7.587   1.880   2.106
38109SOL    HW116224   7.648   1.876   2.179
38109SOL    HW216225   7.549   1.793   2.101
38110SOL     OW16226   4.414  11.678   7.180
38110SOL    HW116227   4.392  11.614   7.247
38110SOL    HW216228   4.334  11.687   7.128
38111SOL     OW16229   7.223  14.472   5.684
38111SOL    HW116230   7.130  14.482   5.662
38111SOL    HW216231   7.262  14.556   5.660
38112SOL     OW16232   5.802   2.338   1.027
38112SOL    HW116233   5.811   2.386   0.945
38112SOL    HW216234   5.870   2.272   1.024
38113SOL     OW16235  12.032  11.684   5.576
38113SOL    HW116236  11.945  11.660   5.609
38113SOL    HW216237  12.063  11.605   5.531
38114SOL     OW16238  13.157  12.799   7.489
38114SOL    HW116239  13.209  12.772   7.414
38114SOL    HW216240  13.067  12.778   7.465
38115SOL     OW16241  10.518   6.477  10.964
38115SOL    HW116242  10.508   6.520  11.049
38115SOL    HW216243  10.448   6.513  10.910
38116SOL     OW16244   0.358   4.776   2.924
38116SOL    HW116245   0.382   4.748   2.836
38116SOL    HW216246   0.312   4.859   2.911
38117SOL     OW16247   0.816   2.833  11.071
38117SOL    HW116248   0.892   2.805  11.021
38117SOL    HW216249   0.745   2.775  11.041
38118SOL     OW16250   1.035   6.792   1.902
38118SOL    HW116251   1.108   6.761   1.954
38118SOL    HW216252   1.045   6.749   1.817
38119SOL     OW16253   8.334   1.951   6.598
38119SOL    HW116254   8.401   2.006   6.556
38119SOL    HW216255   8.255   1.965   6.546
38120SOL     OW16256   2.278   6.051  10.791
38120SOL    HW116257   2.298   5.962  10.761
38120SOL    HW216258   2.345   6.105  10.749
38121SOL     OW16259   1.316  14.745   9.632
38121SOL    HW116260   1.270  14.793   9.702
38121SOL    HW216261   1.406  14.777   9.637
38122SOL     OW16262   2.003  14.689   6.282
38122SOL    HW116263   2.094  14.660   6.279
38122SOL    HW216264   1.995  14.751   6.209
38123SOL     OW16265   9.616   8.542   2.201
38123SOL    HW116266   9.614   8.496   2.117
38123SOL    HW216267   9.526   8.571   2.215
38124SOL     OW16268   9.143  11.458  13.924
38124SOL    HW116269   9.089  11.383  13.901
38124SOL    HW216270   9.147  11.456  14.020
38125SOL     OW16271   7.078  13.849   2.869
38125SOL    HW116272   7.008  13.870   2.808
38125SOL    HW216273   7.044  13.775   2.920
38126SOL     OW16274   5.218   2.303   4.799
38126SOL    HW116275   5.149   2.278   4.860
38126SOL    HW216276   5.298   2.265   4.837
38127SOL     OW16277  10.005   3.262   7.570
38127SOL    HW116278   9.940   3.300   7.629
38127SOL    HW216279  10.089   3.285   7.609
38128SOL     OW16280   0.902   9.867   2.868
38128SOL    HW116281   0.887   9.930   2.798
38128SOL    HW216282   0.917   9.921   2.946
38129SOL     OW16283   7.698  12.070   3.599
38129SOL    HW116284   7.708  12.164   3.613
38129SOL    HW216285   7.763  12.049   3.532
38130SOL     OW16286   6.987  13.472   8.473
38130SOL    HW116287   6.904  13.486   8.426
38130SOL    HW216288   7.012  13.383   8.452
38131SOL     OW16289   9.236  12.245  12.557
38131SOL    HW116290   9.251  12.316  12.620
38131SOL    HW216291   9.157  12.272  12.510
38132SOL     OW16292   7.866   6.031   3.383
38132SOL    HW116293   7.824   5.945   3.375
38132SOL    HW216294   7.829   6.082   3.311
38133SOL     OW16295   4.480   5.560   0.541
38133SOL    HW116296   4.508   5.488   0.484
38133SOL    HW216297   4.437   5.517   0.614
38134SOL     OW16298   7.566   5.949   4.058
38134SOL    HW116299   7.536   5.942   4.148
38134SOL    HW216300   7.512   6.019   4.020
38135SOL     OW16301   6.496   2.054   1.057
38135SOL    HW116302   6.573   2.110   1.045
38135SOL    HW216303   6.528   1.982   1.112
38136SOL     OW16304   7.021  13.170  10.994
38136SOL    HW116305   7.043  13.133  10.908
38136SOL    HW216306   6.925  13.171  10.995
38137SOL     OW16307   4.228   4.384  13.568
38137SOL    HW116308   4.150   4.378  13.622
38137SOL    HW216309   4.217   4.315  13.503
38138SOL     OW16310  14.580  12.329   7.085
38138SOL    HW116311  14.608  12.255   7.138
38138SOL    HW216312  14.654  12.348   7.028
38139SOL     OW16313   7.785  12.077  13.026
38139SOL    HW116314   7.808  12.170  13.032
38139SOL    HW216315   7.828  12.047  12.946
38140SOL     OW16316  11.500   5.125   9.168
38140SOL    HW116317  11.435   5.160   9.107
38140SOL    HW216318  11.487   5.176   9.248
38141SOL     OW16319   5.069   6.644   3.553
38141SOL    HW116320   5.062   6.649   3.648
38141SOL    HW216321   5.137   6.708   3.530
38142SOL     OW16322   3.711   9.057  12.788
38142SOL    HW116323   3.754   8.974  12.812
38142SOL    HW216324   3.778   9.106  12.741
38143SOL     OW16325   4.327  10.222   9.540
38143SOL    HW116326   4.323  10.136   9.581
38143SOL    HW216327   4.254  10.271   9.579
38144SOL     OW16328   8.106  13.157  14.634
38144SOL    HW116329   8.043  13.142  14.563
38144SOL    HW216330   8.056  13.204  14.701
38145SOL     OW16331   8.337   4.795   2.522
38145SOL    HW116332   8.324   4.792   2.428
38145SOL    HW216333   8.423   4.756   2.536
38146SOL     OW16334   1.700   2.391   6.991
38146SOL    HW116335   1.656   2.469   7.024
38146SOL    HW216336   1.630   2.336   6.957
38147SOL     OW16337   1.629   9.026  13.420
38147SOL    HW116338   1.578   8.946  13.435
38147SOL    HW216339   1.668   9.013  13.333
38148SOL     OW16340   1.037   7.487  12.520
38148SOL    HW116341   1.037   7.418  12.454
38148SOL    HW216342   1.128   7.492  12.550
38149SOL     OW16343   5.672  10.906   9.942
38149SOL    HW116344   5.689  10.902  10.036
38149SOL    HW216345   5.745  10.858   9.903
38150SOL     OW16346  14.112   2.722  13.459
38150SOL    HW116347  14.044   2.657  13.443
38150SOL    HW216348  14.073   2.782  13.523
38151SOL     OW16349   4.755  13.532   7.271
38151SOL    HW116350   4.761  13.471   7.345
38151SOL    HW216351   4.700  13.603   7.303
38152SOL     OW16352  11.531   1.869   3.061
38152SOL    HW116353  11.558   1.926   2.989
38152SOL    HW216354  11.551   1.780   3.030
38153SOL     OW16355  11.380  12.701   0.879
38153SOL    HW116356  11.324  12.691   0.955
38153SOL    HW216357  11.320  12.708   0.805
38154SOL     OW16358   0.716   2.878  12.147
38154SOL    HW116359   0.699   2.967  12.118
38154SOL    HW216360   0.732   2.886  12.242
38155SOL     OW16361  14.140   1.485  12.250
38155SOL    HW116362  14.213   1.523  12.298
38155SOL    HW216363  14.166   1.394  12.235
38156SOL     OW16364   4.319   9.950  14.372
38156SOL    HW116365   4.274   9.904  14.443
38156SOL    HW216366   4.318   9.888  14.299
38157SOL     OW16367  14.268   7.226   9.623
38157SOL    HW116368  14.190   7.212   9.677
38157SOL    HW216369  14.244   7.192   9.537
38158SOL     OW16370  10.216  14.427   3.269
38158SOL    HW116371  10.181  14.357   3.323
38158SOL    HW216372  10.203  14.397   3.179
38159SOL     OW16373   7.898   6.611  10.613
38159SOL    HW116374   7.806   6.604  10.638
38159SOL    HW216375   7.899   6.597  10.518
38160SOL     OW16376   2.409  13.520   5.112
38160SOL    HW116377   2.421  13.529   5.017
38160SOL    HW216378   2.451  13.598   5.148
38161SOL     OW16379   8.224  11.611   6.293
38161SOL    HW116380   8.248  11.547   6.226
38161SOL    HW216381   8.158  11.666   6.251
38162SOL     OW16382   5.751   3.238   8.476
38162SOL    HW116383   5.784   3.169   8.418
38162SOL    HW216384   5.830   3.284   8.505
38163SOL     OW16385  13.324   6.130  10.507
38163SOL    HW116386  13.387   6.203  10.508
38163SOL    HW216387  13.374   6.054  10.537
38164SOL     OW16388  11.953  11.855   6.954
38164SOL    HW116389  11.932  11.945   6.980
38164SOL    HW216390  11.990  11.815   7.032
38165SOL     OW16391   5.992   9.687  12.658
38165SOL    HW116392   5.898   9.700  12.641
38165SOL    HW216393   6.016   9.615  12.600
38166SOL     OW16394   1.041   7.997   8.884
38166SOL    HW116395   1.024   7.954   8.967
38166SOL    HW216396   0.954   8.017   8.848
38167SOL     OW16397   1.776  13.179   1.613
38167SOL    HW116398   1.776  13.100   1.558
38167SOL    HW216399   1.867  13.187   1.642
38168SOL     OW16400  10.743   4.135   7.231
38168SOL    HW116401  10.787   4.211   7.270
38168SOL    HW216402  10.735   4.158   7.139
38169SOL     OW16403   9.942   1.180  13.887
38169SOL    HW116404   9.857   1.225  13.880
38169SOL    HW216405   9.978   1.185  13.799
38170SOL     OW16406   0.995   3.628   8.691
38170SOL    HW116407   1.063   3.634   8.758
38170SOL    HW216408   1.009   3.542   8.651
38171SOL     OW16409   7.661   7.334  10.005
38171SOL    HW116410   7.752   7.338  10.034
38171SOL    HW216411   7.628   7.251  10.039
38172SOL     OW16412   2.789   1.868   9.076
38172SOL    HW116413   2.865   1.824   9.038
38172SOL    HW216414   2.725   1.798   9.090
38173SOL     OW16415   5.847   4.363   0.776
38173SOL    HW116416   5.796   4.309   0.836
38173SOL    HW216417   5.790   4.373   0.699
38174SOL     OW16418   3.284   9.934  10.679
38174SOL    HW116419   3.342   9.860  10.662
38174SOL    HW216420   3.231   9.906  10.753
38175SOL     OW16421  14.364  10.297   1.312
38175SOL    HW116422  14.437  10.248   1.350
38175SOL    HW216423  14.366  10.382   1.355
38176SOL     OW16424  14.740   0.868  13.272
38176SOL    HW116425  14.691   0.947  13.251
38176SOL    HW216426  14.681   0.796  13.250
38177SOL     OW16427  13.915   5.098   7.977
38177SOL    HW116428  13.868   5.034   8.030
38177SOL    HW216429  13.968   5.046   7.917
38178SOL     OW16430   7.175   0.918   0.828
38178SOL    HW116431   7.232   0.875   0.764
38178SOL    HW216432   7.198   0.877   0.912
38179SOL     OW16433  11.439   8.783  13.203
38179SOL    HW116434  11.421   8.775  13.297
38179SOL    HW216435  11.503   8.854  13.197
38180SOL     OW16436  12.335  14.575   9.458
38180SOL    HW116437  12.289  14.638   9.513
38180SOL    HW216438  12.414  14.553   9.507
38181SOL     OW16439   4.869   5.019  12.723
38181SOL    HW116440   4.830   5.106  12.720
38181SOL    HW216441   4.816   4.968  12.661
38182SOL     OW16442   1.756   1.639  10.885
38182SOL    HW116443   1.691   1.709  10.882
38182SOL    HW216444   1.821   1.663  10.819
38183SOL     OW16445   7.078  14.616   8.788
38183SOL    HW116446   7.018  14.598   8.860
38183SOL    HW216447   7.133  14.688   8.821
38184SOL     OW16448  10.243   6.490  10.553
38184SOL    HW116449  10.286   6.554  10.609
38184SOL    HW216450  10.298   6.487  10.474
38185SOL     OW16451  14.078   0.159   9.650
38185SOL    HW116452  14.027   0.130   9.575
38185SOL    HW216453  14.030   0.235   9.684
38186SOL     OW16454  12.166   3.713   5.387
38186SOL    HW116455  12.115   3.789   5.360
38186SOL    HW216456  12.207   3.681   5.307
38187SOL     OW16457  12.788   9.760   9.070
38187SOL    HW116458  12.780   9.680   9.018
38187SOL    HW216459  12.878   9.790   9.053
38188SOL     OW16460  12.067   8.175   7.633
38188SOL    HW116461  12.103   8.245   7.686
38188SOL    HW216462  12.001   8.217   7.579
38189SOL     OW16463   9.220   3.607   8.024
38189SOL    HW116464   9.251   3.612   8.114
38189SOL    HW216465   9.252   3.687   7.983
38190SOL     OW16466   9.720   0.647   2.042
38190SOL    HW116467   9.630   0.673   2.022
38190SOL    HW216468   9.774   0.710   1.994
38191SOL     OW16469  10.290  12.170  12.713
38191SOL    HW116470  10.229  12.111  12.670
38191SOL    HW216471  10.334  12.116  12.778
38192SOL     OW16472   8.983  12.352  12.511
38192SOL    HW116473   8.953  12.279  12.456
38192SOL    HW216474   8.904  12.404  12.527
38193SOL     OW16475   1.589   1.212   0.866
38193SOL    HW116476   1.650   1.184   0.935
38193SOL    HW216477   1.574   1.305   0.885
38194SOL     OW16478   3.771   9.843   9.134
38194SOL    HW116479   3.857   9.836   9.176
38194SOL    HW216480   3.753   9.756   9.100
38195SOL     OW16481   2.521   8.074   7.291
38195SOL    HW116482   2.453   8.051   7.227
38195SOL    HW216483   2.523   8.001   7.352
38196SOL     OW16484   4.420  10.600  13.122
38196SOL    HW116485   4.400  10.521  13.173
38196SOL    HW216486   4.404  10.672  13.183
38197SOL     OW16487  12.345   0.515   2.299
38197SOL    HW116488  12.340   0.466   2.381
38197SOL    HW216489  12.410   0.468   2.247
38198SOL     OW16490   0.845  11.025   2.884
38198SOL    HW116491   0.810  10.938   2.904
38198SOL    HW216492   0.912  11.040   2.950
38199SOL     OW16493   7.049  12.378   6.222
38199SOL    HW116494   7.109  12.371   6.296
38199SOL    HW216495   7.106  12.393   6.146
38200SOL     OW16496   1.618   6.117   8.463
38200SOL    HW116497   1.711   6.136   8.473
38200SOL    HW216498   1.578   6.201   8.443
38201SOL     OW16499   8.526   4.632   9.346
38201SOL    HW116500   8.479   4.690   9.286
38201SOL    HW216501   8.463   4.614   9.416
38202SOL     OW16502   9.300   6.349   8.816
38202SOL    HW116503   9.371   6.336   8.880
38202SOL    HW216504   9.345   6.383   8.738
38203SOL     OW16505   1.378   4.763  13.417
38203SOL    HW116506   1.303   4.707  13.434
38203SOL    HW216507   1.348   4.824  13.349
38204SOL     OW16508   9.230   0.938   9.961
38204SOL    HW116509   9.215   1.022  10.004
38204SOL    HW216510   9.147   0.890   9.970
38205SOL     OW16511  10.483   4.333   0.475
38205SOL    HW116512  10.479   4.331   0.570
38205SOL    HW216513  10.547   4.402   0.454
38206SOL     OW16514   9.214  13.177  10.043
38206SOL    HW116515   9.153  13.210   9.978
38206SOL    HW216516   9.178  13.092  10.069
38207SOL     OW16517   7.410   3.326  12.981
38207SOL    HW116518   7.378   3.239  12.958
38207SOL    HW216519   7.499   3.329  12.944
38208SOL     OW16520   8.458   3.831   1.841
38208SOL    HW116521   8.465   3.753   1.897
38208SOL    HW216522   8.444   3.903   1.903
38209SOL     OW16523  10.679  13.176   2.525
38209SOL    HW116524  10.631  13.127   2.592
38209SOL    HW216525  10.768  13.143   2.530
38210SOL     OW16526  12.370   1.203   9.772
38210SOL    HW116527  12.308   1.206   9.698
38210SOL    HW216528  12.335   1.267   9.834
38211SOL     OW16529  14.687  14.570  14.493
38211SOL    HW116530  14.618  14.513  14.460
38211SOL    HW216531  14.642  14.632  14.550
38212SOL     OW16532   2.652   6.541   7.769
38212SOL    HW116533   2.727   6.505   7.722
38212SOL    HW216534   2.650   6.633   7.743
38213SOL     OW16535   6.182   3.500   6.192
38213SOL    HW116536   6.142   3.419   6.225
38213SOL    HW216537   6.195   3.483   6.098
38214SOL     OW16538   7.667   3.957   3.331
38214SOL    HW116539   7.659   4.006   3.250
38214SOL    HW216540   7.589   3.979   3.381
38215SOL     OW16541   6.813   6.361   8.295
38215SOL    HW116542   6.771   6.313   8.224
38215SOL    HW216543   6.824   6.295   8.364
38216SOL     OW16544  12.146   4.487   5.081
38216SOL    HW116545  12.175   4.534   5.159
38216SOL    HW216546  12.182   4.537   5.008
38217SOL     OW16547   7.334  10.290   8.677
38217SOL    HW116548   7.390  10.365   8.655
38217SOL    HW216549   7.278  10.322   8.748
38218SOL     OW16550   6.211  10.982   5.613
38218SOL    HW116551   6.281  11.012   5.670
38218SOL    HW216552   6.252  10.916   5.557
38219SOL     OW16553   3.229  11.415   9.879
38219SOL    HW116554   3.283  11.360   9.936
38219SOL    HW216555   3.273  11.412   9.794
38220SOL     OW16556   4.356  13.932   0.614
38220SOL    HW116557   4.261  13.941   0.619
38220SOL    HW216558   4.388  13.961   0.700
38221SOL     OW16559   2.723  11.332   8.980
38221SOL    HW116560   2.738  11.325   9.074
38221SOL    HW216561   2.631  11.307   8.968
38222SOL     OW16562   0.543   2.243   8.268
38222SOL    HW116563   0.486   2.303   8.220
38222SOL    HW216564   0.485   2.172   8.295
38223SOL     OW16565  12.915   2.899   7.046
38223SOL    HW116566  12.974   2.867   6.977
38223SOL    HW216567  12.942   2.852   7.124
38224SOL     OW16568   4.409   5.110   4.750
38224SOL    HW116569   4.372   5.052   4.816
38224SOL    HW216570   4.337   5.169   4.727
38225SOL     OW16571   3.604  11.221   6.085
38225SOL    HW116572   3.600  11.241   5.991
38225SOL    HW216573   3.517  11.246   6.118
38226SOL     OW16574   9.129  13.281  12.437
38226SOL    HW116575   9.091  13.365  12.463
38226SOL    HW216576   9.055  13.220  12.439
38227SOL     OW16577  12.189  14.816   0.608
38227SOL    HW116578  12.113  14.861   0.647
38227SOL    HW216579  12.260  14.879   0.615
38228SOL     OW16580   0.881  14.428   1.424
38228SOL    HW116581   0.935  14.385   1.357
38228SOL    HW216582   0.875  14.519   1.396
38229SOL     OW16583  12.225   9.910   4.107
38229SOL    HW116584  12.239   9.857   4.186
38229SOL    HW216585  12.309   9.908   4.062
38230SOL     OW16586   8.415  14.113   0.381
38230SOL    HW116587   8.329  14.121   0.340
38230SOL    HW216588   8.456  14.039   0.337
38231SOL     OW16589  11.012   7.418  14.153
38231SOL    HW116590  10.992   7.340  14.206
38231SOL    HW216591  11.000   7.389  14.062
38232SOL     OW16592   5.365   1.286   2.472
38232SOL    HW116593   5.411   1.321   2.548
38232SOL    HW216594   5.360   1.192   2.489
38233SOL     OW16595   5.889   6.526   4.642
38233SOL    HW116596   5.974   6.543   4.600
38233SOL    HW216597   5.834   6.600   4.614
38234SOL     OW16598   7.512  13.937   6.455
38234SOL    HW116599   7.504  13.920   6.549
38234SOL    HW216600   7.473  14.023   6.443
38235SOL     OW16601   0.451  14.721   7.793
38235SOL    HW116602   0.517  14.769   7.743
38235SOL    HW216603   0.379  14.784   7.803
38236SOL     OW16604  14.050   8.063  13.903
38236SOL    HW116605  14.043   8.046  13.809
38236SOL    HW216606  14.139   8.094  13.916
38237SOL     OW16607  13.273  12.753  14.185
38237SOL    HW116608  13.246  12.833  14.229
38237SOL    HW216609  13.229  12.683  14.232
38238SOL     OW16610   8.055   2.847  12.429
38238SOL    HW116611   8.046   2.862  12.335
38238SOL    HW216612   8.031   2.930  12.470
38239SOL     OW16613   6.628  12.525  10.631
38239SOL    HW116614   6.677  12.575  10.696
38239SOL    HW216615   6.580  12.460  10.681
38240SOL     OW16616  11.863   4.985  11.138
38240SOL    HW116617  11.878   4.936  11.057
38240SOL    HW216618  11.875   5.077  11.114
38241SOL     OW16619   2.526   1.382  12.257
38241SOL    HW116620   2.511   1.424  12.342
38241SOL    HW216621   2.621   1.375  12.251
38242SOL     OW16622  14.824   5.575  10.604
38242SOL    HW116623  14.783   5.522  10.672
38242SOL    HW216624  14.808   5.666  10.631
38243SOL     OW16625   0.641   1.840  13.000
38243SOL    HW116626   0.674   1.915  12.949
38243SOL    HW216627   0.629   1.771  12.935
38244SOL     OW16628  14.595   5.261   7.685
38244SOL    HW116629  14.597   5.250   7.780
38244SOL    HW216630  14.533   5.332   7.671
38245SOL     OW16631   0.578  14.118  11.479
38245SOL    HW116632   0.620  14.168  11.549
38245SOL    HW216633   0.534  14.046  11.524
38246SOL     OW16634  13.002   6.501   6.004
38246SOL    HW116635  13.049   6.557   5.943
38246SOL    HW216636  13.071   6.460   6.057
38247SOL     OW16637   4.868  12.001   2.163
38247SOL    HW116638   4.807  12.046   2.104
38247SOL    HW216639   4.926  12.071   2.194
38248SOL     OW16640  14.535   7.781   0.605
38248SOL    HW116641  14.502   7.694   0.629
38248SOL    HW216642  14.457   7.833   0.590
38249SOL     OW16643   5.695  10.704   5.164
38249SOL    HW116644   5.737  10.659   5.091
38249SOL    HW216645   5.745  10.785   5.175
38250SOL     OW16646  12.857   1.386  11.561
38250SOL    HW116647  12.901   1.432  11.489
38250SOL    HW216648  12.866   1.294  11.540
38251SOL     OW16649  12.985  14.377   8.169
38251SOL    HW116650  12.991  14.322   8.247
38251SOL    HW216651  12.979  14.316   8.096
38252SOL     OW16652  13.719   3.025   1.911
38252SOL    HW116653  13.671   3.061   1.986
38252SOL    HW216654  13.808   3.058   1.921
38253SOL     OW16655   1.324   6.087   7.110
38253SOL    HW116656   1.239   6.119   7.140
38253SOL    HW216657   1.387   6.146   7.152
38254SOL     OW16658   2.953  12.260   8.176
38254SOL    HW116659   2.889  12.212   8.228
38254SOL    HW216660   2.988  12.195   8.115
38255SOL     OW16661   1.486   0.683  11.507
38255SOL    HW116662   1.462   0.754  11.448
38255SOL    HW216663   1.546   0.629  11.455
38256SOL     OW16664   7.081   1.628  10.995
38256SOL    HW116665   7.072   1.699  10.932
38256SOL    HW216666   7.051   1.666  11.078
38257SOL     OW16667   6.914   4.838   3.258
38257SOL    HW116668   6.950   4.782   3.327
38257SOL    HW216669   6.884   4.916   3.305
38258SOL     OW16670   1.368   2.080   5.504
38258SOL    HW116671   1.429   2.023   5.457
38258SOL    HW216672   1.358   2.157   5.448
38259SOL     OW16673   5.959   8.237  12.154
38259SOL    HW116674   5.983   8.279  12.237
38259SOL    HW216675   5.903   8.164  12.179
38260SOL     OW16676   9.290   3.525   5.863
38260SOL    HW116677   9.234   3.474   5.922
38260SOL    HW216678   9.284   3.480   5.779
38261SOL     OW16679  13.689  13.202   6.874
38261SOL    HW116680  13.677  13.286   6.917
38261SOL    HW216681  13.757  13.217   6.808
38262SOL     OW16682   8.663  10.224   0.039
38262SOL    HW116683   8.617  10.141   0.028
38262SOL    HW216684   8.644  10.272  14.839
38263SOL     OW16685   7.828   4.561   5.562
38263SOL    HW116686   7.905   4.545   5.508
38263SOL    HW216687   7.770   4.487   5.542
38264SOL     OW16688   3.218  13.747   0.737
38264SOL    HW116689   3.298  13.699   0.759
38264SOL    HW216690   3.199  13.721   0.646
38265SOL     OW16691   1.055  12.937  11.505
38265SOL    HW116692   0.981  12.985  11.467
38265SOL    HW216693   1.082  12.876  11.437
38266SOL     OW16694   7.350  10.464   4.209
38266SOL    HW116695   7.346  10.378   4.250
38266SOL    HW216696   7.275  10.511   4.243
38267SOL     OW16697   1.500   1.231   9.712
38267SOL    HW116698   1.514   1.299   9.645
38267SOL    HW216699   1.576   1.173   9.703
38268SOL     OW16700  13.090   0.007   0.416
38268SOL    HW116701  13.121  14.807   0.376
38268SOL    HW216702  13.091  14.869   0.510
38269SOL     OW16703   4.686   3.732   4.728
38269SOL    HW116704   4.702   3.818   4.688
38269SOL    HW216705   4.667   3.752   4.820
38270SOL     OW16706   1.129  10.128  10.086
38270SOL    HW116707   1.199  10.073  10.052
38270SOL    HW216708   1.081  10.157  10.008
38271SOL     OW16709  10.492   3.828   9.339
38271SOL    HW116710  10.441   3.901   9.373
38271SOL    HW216711  10.583   3.855   9.350
38272SOL     OW16712   9.014  10.833   3.182
38272SOL    HW116713   9.011  10.747   3.140
38272SOL    HW216714   9.108  10.854   3.185
38273SOL     OW16715   9.696   8.786   3.653
38273SOL    HW116716   9.650   8.811   3.573
38273SOL    HW216717   9.751   8.862   3.673
38274SOL     OW16718   9.388  10.048   9.809
38274SOL    HW116719   9.305  10.086   9.780
38274SOL    HW216720   9.364   9.971   9.859
38275SOL     OW16721   7.093   1.314   2.822
38275SOL    HW116722   7.010   1.297   2.779
38275SOL    HW216723   7.151   1.346   2.753
38276SOL     OW16724   1.388  10.227   6.606
38276SOL    HW116725   1.457  10.208   6.543
38276SOL    HW216726   1.359  10.316   6.585
38277SOL     OW16727   1.075   3.712   8.207
38277SOL    HW116728   1.131   3.685   8.281
38277SOL    HW216729   1.137   3.744   8.141
38278SOL     OW16730  11.867   8.412  12.561
38278SOL    HW116731  11.938   8.442  12.617
38278SOL    HW216732  11.907   8.405  12.474
38279SOL     OW16733   1.217   6.278  13.592
38279SOL    HW116734   1.279   6.212  13.561
38279SOL    HW216735   1.185   6.321  13.512
38280SOL     OW16736   3.075   8.549   4.134
38280SOL    HW116737   3.013   8.545   4.061
38280SOL    HW216738   3.158   8.573   4.092
38281SOL     OW16739  12.730   0.079   6.889
38281SOL    HW116740  12.686   0.008   6.842
38281SOL    HW216741  12.788   0.034   6.951
38282SOL     OW16742   2.648  12.932   1.635
38282SOL    HW116743   2.616  13.000   1.575
38282SOL    HW216744   2.740  12.920   1.611
38283SOL     OW16745   8.167   9.354   2.872
38283SOL    HW116746   8.075   9.329   2.867
38283SOL    HW216747   8.214   9.271   2.882
38284SOL     OW16748  11.938   7.682   4.348
38284SOL    HW116749  11.945   7.771   4.381
38284SOL    HW216750  11.908   7.631   4.423
38285SOL     OW16751   1.011   1.867   8.526
38285SOL    HW116752   0.993   1.777   8.554
38285SOL    HW216753   1.069   1.856   8.450
38286SOL     OW16754   2.595   6.774   6.180
38286SOL    HW116755   2.571   6.683   6.160
38286SOL    HW216756   2.618   6.773   6.273
38287SOL     OW16757   4.591   6.033  14.437
38287SOL    HW116758   4.617   6.041  14.346
38287SOL    HW216759   4.654   6.087  14.485
38288SOL     OW16760   5.321  14.846  12.585
38288SOL    HW116761   5.394  14.785  12.582
38288SOL    HW216762   5.361   0.050  12.605
38289SOL     OW16763   4.587   6.025  14.060
38289SOL    HW116764   4.563   6.118  14.063
38289SOL    HW216765   4.506   5.980  14.034
38290SOL     OW16766  11.320   6.608   5.699
38290SOL    HW116767  11.318   6.533   5.759
38290SOL    HW216768  11.353   6.572   5.617
38291SOL     OW16769  12.460   4.656  14.225
38291SOL    HW116770  12.467   4.744  14.263
38291SOL    HW216771  12.397   4.666  14.154
38292SOL     OW16772  10.000   2.088   5.260
38292SOL    HW116773   9.957   2.171   5.239
38292SOL    HW216774  10.086   2.114   5.294
38293SOL     OW16775  10.137  12.961   5.965
38293SOL    HW116776  10.108  12.985   5.877
38293SOL    HW216777  10.212  12.902   5.950
38294SOL     OW16778  11.617   1.748   0.335
38294SOL    HW116779  11.689   1.701   0.293
38294SOL    HW216780  11.607   1.706   0.420
38295SOL     OW16781   2.045  13.052   2.456
38295SOL    HW116782   2.017  13.131   2.410
38295SOL    HW216783   2.035  12.982   2.392
38296SOL     OW16784  11.077   6.166   1.841
38296SOL    HW116785  11.119   6.182   1.925
38296SOL    HW216786  11.117   6.230   1.782
38297SOL     OW16787   2.780   9.398   9.521
38297SOL    HW116788   2.779   9.493   9.535
38297SOL    HW216789   2.754   9.361   9.606
38298SOL     OW16790   1.708   7.526  14.549
38298SOL    HW116791   1.625   7.568  14.525
38298SOL    HW216792   1.742   7.579  14.621
38299SOL     OW16793   2.543   6.553   0.680
38299SOL    HW116794   2.622   6.509   0.648
38299SOL    HW216795   2.553   6.644   0.653
38300SOL     OW16796   3.504   5.249   0.552
38300SOL    HW116797   3.476   5.336   0.579
38300SOL    HW216798   3.508   5.199   0.633
38301SOL     OW16799   8.360   4.501   4.523
38301SOL    HW116800   8.378   4.440   4.452
38301SOL    HW216801   8.288   4.555   4.492
38302SOL     OW16802  10.794  12.427  11.325
38302SOL    HW116803  10.818  12.513  11.360
38302SOL    HW216804  10.799  12.368  11.400
38303SOL     OW16805   8.427  13.903   4.340
38303SOL    HW116806   8.457  13.944   4.259
38303SOL    HW216807   8.378  13.826   4.311
38304SOL     OW16808  10.767   8.079  11.488
38304SOL    HW116809  10.805   8.088  11.576
38304SOL    HW216810  10.843   8.073  11.430
38305SOL     OW16811   0.127   8.622   8.179
38305SOL    HW116812   0.043   8.664   8.195
38305SOL    HW216813   0.174   8.629   8.262
38306SOL     OW16814   3.604  12.492   5.614
38306SOL    HW116815   3.683  12.455   5.574
38306SOL    HW216816   3.534  12.431   5.588
38307SOL     OW16817   4.918   2.185   5.784
38307SOL    HW116818   4.952   2.142   5.862
38307SOL    HW216819   4.860   2.253   5.818
38308SOL     OW16820   7.794   2.934   6.336
38308SOL    HW116821   7.830   2.846   6.346
38308SOL    HW216822   7.871   2.991   6.326
38309SOL     OW16823  10.895   7.739   0.261
38309SOL    HW116824  10.845   7.657   0.263
38309SOL    HW216825  10.951   7.731   0.184
38310SOL     OW16826  13.007   0.612   0.623
38310SOL    HW116827  13.058   0.551   0.677
38310SOL    HW216828  13.072   0.668   0.582
38311SOL     OW16829   1.012  13.819  14.414
38311SOL    HW116830   1.038  13.804  14.505
38311SOL    HW216831   1.048  13.744  14.366
38312SOL     OW16832   9.693   6.831   4.048
38312SOL    HW116833   9.663   6.853   3.960
38312SOL    HW216834   9.621   6.782   4.086
38313SOL     OW16835   6.696  10.866  10.960
38313SOL    HW116836   6.660  10.782  10.931
38313SOL    HW216837   6.733  10.904  10.881
38314SOL     OW16838   0.399  10.899   7.440
38314SOL    HW116839   0.487  10.898   7.478
38314SOL    HW216840   0.414  10.915   7.346
38315SOL     OW16841   1.978   3.820  14.402
38315SOL    HW116842   1.995   3.844  14.493
38315SOL    HW216843   2.023   3.736  14.391
38316SOL     OW16844   4.991   4.997  10.315
38316SOL    HW116845   5.070   4.947  10.335
38316SOL    HW216846   5.009   5.084  10.349
38317SOL     OW16847  11.873   8.100   3.550
38317SOL    HW116848  11.829   8.150   3.481
38317SOL    HW216849  11.801   8.055   3.596
38318SOL     OW16850   6.238   6.793   7.997
38318SOL    HW116851   6.197   6.875   7.970
38318SOL    HW216852   6.195   6.726   7.945
38319SOL     OW16853  10.626   9.338  10.991
38319SOL    HW116854  10.709   9.356  11.035
38319SOL    HW216855  10.640   9.254  10.947
38320SOL     OW16856  12.090   7.899  10.514
38320SOL    HW116857  12.120   7.990  10.509
38320SOL    HW216858  12.065   7.887  10.606
38321SOL     OW16859   0.240  14.475   4.580
38321SOL    HW116860   0.318  14.525   4.602
38321SOL    HW216861   0.253  14.446   4.489
38322SOL     OW16862  14.504   8.005  14.739
38322SOL    HW116863  14.468   7.922  14.772
38322SOL    HW216864  14.434   8.069  14.752
38323SOL     OW16865  14.598   1.490   5.557
38323SOL    HW116866  14.530   1.453   5.500
38323SOL    HW216867  14.549   1.538   5.624
38324SOL     OW16868   1.360   0.541   4.210
38324SOL    HW116869   1.336   0.467   4.155
38324SOL    HW216870   1.455   0.546   4.204
38325SOL     OW16871  12.513   6.920   9.568
38325SOL    HW116872  12.576   6.848   9.575
38325SOL    HW216873  12.566   6.997   9.548
38326SOL     OW16874  10.184  11.457   4.320
38326SOL    HW116875  10.265  11.468   4.270
38326SOL    HW216876  10.168  11.363   4.320
38327SOL     OW16877   7.591   5.844  14.731
38327SOL    HW116878   7.678   5.827  14.767
38327SOL    HW216879   7.603   5.844  14.636
38328SOL     OW16880   2.509   8.782   9.276
38328SOL    HW116881   2.520   8.870   9.241
38328SOL    HW216882   2.598   8.749   9.287
38329SOL     OW16883   6.077   4.193  11.280
38329SOL    HW116884   6.024   4.247  11.221
38329SOL    HW216885   6.133   4.255  11.326
38330SOL     OW16886   2.715   9.833  10.166
38330SOL    HW116887   2.734   9.898  10.098
38330SOL    HW216888   2.697   9.752  10.118
38331SOL     OW16889   8.937   6.264   3.540
38331SOL    HW116890   8.943   6.260   3.635
38331SOL    HW216891   8.858   6.315   3.523
38332SOL     OW16892   8.941  13.406   4.641
38332SOL    HW116893   8.965  13.492   4.606
38332SOL    HW216894   8.873  13.374   4.580
38333SOL     OW16895   4.318   0.772   7.317
38333SOL    HW116896   4.253   0.768   7.387
38333SOL    HW216897   4.393   0.724   7.350
38334SOL     OW16898   5.167   3.766   2.831
38334SOL    HW116899   5.188   3.720   2.749
38334SOL    HW216900   5.075   3.746   2.847
38335SOL     OW16901   2.859  11.055   9.200
38335SOL    HW116902   2.870  11.024   9.290
38335SOL    HW216903   2.824  11.144   9.209
38336SOL     OW16904   5.001  14.326   4.884
38336SOL    HW116905   4.918  14.372   4.880
38336SOL    HW216906   4.992  14.265   4.957
38337SOL     OW16907   4.609   2.485  10.824
38337SOL    HW116908   4.577   2.406  10.868
38337SOL    HW216909   4.562   2.557  10.867
38338SOL     OW16910  14.760   6.396   8.059
38338SOL    HW116911  14.782   6.379   7.967
38338SOL    HW216912  14.826   6.348   8.109
38339SOL     OW16913  10.897  14.790   0.740
38339SOL    HW116914  10.827  14.850   0.718
38339SOL    HW216915  10.855  14.704   0.746
38340SOL     OW16916   2.056  11.144   9.928
38340SOL    HW116917   1.976  11.154   9.877
38340SOL    HW216918   2.028  11.154  10.019
38341SOL     OW16919  11.948   7.300  12.017
38341SOL    HW116920  12.005   7.327  11.944
38341SOL    HW216921  11.887   7.372  12.028
38342SOL     OW16922  11.573  12.621   4.489
38342SOL    HW116923  11.608  12.585   4.571
38342SOL    HW216924  11.479  12.630   4.505
38343SOL     OW16925  12.581   7.633  13.445
38343SOL    HW116926  12.618   7.678  13.369
38343SOL    HW216927  12.488   7.653  13.442
38344SOL     OW16928   3.125   7.844   9.292
38344SOL    HW116929   3.152   7.830   9.202
38344SOL    HW216930   3.202   7.884   9.334
38345SOL     OW16931   8.835  14.548   7.386
38345SOL    HW116932   8.744  14.559   7.359
38345SOL    HW216933   8.831  14.532   7.480
38346SOL     OW16934  13.161   4.477   2.680
38346SOL    HW116935  13.207   4.475   2.764
38346SOL    HW216936  13.219   4.429   2.620
38347SOL     OW16937   8.627  10.847   9.136
38347SOL    HW116938   8.536  10.838   9.109
38347SOL    HW216939   8.653  10.934   9.104
38348SOL     OW16940  13.318   2.378   0.363
38348SOL    HW116941  13.360   2.442   0.421
38348SOL    HW216942  13.321   2.296   0.411
38349SOL     OW16943   2.075   1.746   5.113
38349SOL    HW116944   2.106   1.819   5.060
38349SOL    HW216945   2.127   1.671   5.083
38350SOL     OW16946   7.116   8.323   2.856
38350SOL    HW116947   7.091   8.297   2.767
38350SOL    HW216948   7.067   8.404   2.872
38351SOL     OW16949   3.385  11.472  13.940
38351SOL    HW116950   3.480  11.457  13.938
38351SOL    HW216951   3.348  11.393  13.901
38352SOL     OW16952   6.661   3.454   1.907
38352SOL    HW116953   6.711   3.477   1.985
38352SOL    HW216954   6.723   3.463   1.835
38353SOL     OW16955  10.255   1.549   9.843
38353SOL    HW116956  10.326   1.512   9.791
38353SOL    HW216957  10.181   1.491   9.827
38354SOL     OW16958   2.071   5.346   9.183
38354SOL    HW116959   2.120   5.324   9.103
38354SOL    HW216960   2.091   5.274   9.243
38355SOL     OW16961   4.128   0.638   8.080
38355SOL    HW116962   4.192   0.703   8.108
38355SOL    HW216963   4.171   0.593   8.007
38356SOL     OW16964   3.352   9.816  13.103
38356SOL    HW116965   3.324   9.897  13.061
38356SOL    HW216966   3.371   9.841  13.193
38357SOL     OW16967   0.114  10.903   4.283
38357SOL    HW116968   0.136  10.996   4.285
38357SOL    HW216969   0.188  10.860   4.326
38358SOL     OW16970   8.223  11.674   1.511
38358SOL    HW116971   8.288  11.713   1.452
38358SOL    HW216972   8.185  11.602   1.461
38359SOL     OW16973   2.608  11.636   8.257
38359SOL    HW116974   2.688  11.657   8.306
38359SOL    HW216975   2.638  11.621   8.168
38360SOL     OW16976   2.422   7.595   9.253
38360SOL    HW116977   2.394   7.685   9.271
38360SOL    HW216978   2.516   7.596   9.268
38361SOL     OW16979   3.278  10.436   0.846
38361SOL    HW116980   3.199  10.388   0.821
38361SOL    HW216981   3.295  10.408   0.936
38362SOL     OW16982   0.468  10.409   8.751
38362SOL    HW116983   0.517  10.460   8.815
38362SOL    HW216984   0.393  10.464   8.729
38363SOL     OW16985  10.778   2.632   3.138
38363SOL    HW116986  10.704   2.679   3.100
38363SOL    HW216987  10.808   2.688   3.210
38364SOL     OW16988   3.906   6.632  10.747
38364SOL    HW116989   3.967   6.567  10.782
38364SOL    HW216990   3.877   6.595  10.663
38365SOL     OW16991  10.881   2.582  12.764
38365SOL    HW116992  10.894   2.493  12.732
38365SOL    HW216993  10.915   2.581  12.853
38366SOL     OW16994  13.194   5.969   9.383
38366SOL    HW116995  13.234   6.042   9.335
38366SOL    HW216996  13.161   6.009   9.463
38367SOL     OW16997   1.370  12.966   0.304
38367SOL    HW116998   1.357  13.060   0.289
38367SOL    HW216999   1.465  12.953   0.293
38368SOL     OW17000  14.834   0.083   7.113
38368SOL    HW117001   0.044   0.053   7.121
38368SOL    HW217002  14.836   0.149   7.044
38369SOL     OW17003   4.181  12.507  10.214
38369SOL    HW117004   4.103  12.533  10.165
38369SOL    HW217005   4.240  12.582  10.208
38370SOL     OW17006  14.183   3.956  13.387
38370SOL    HW117007  14.166   4.043  13.422
38370SOL    HW217008  14.233   3.911  13.456
38371SOL     OW17009   7.801   4.265   4.138
38371SOL    HW117010   7.762   4.264   4.226
38371SOL    HW217011   7.736   4.222   4.083
38372SOL     OW17012   7.110   6.595   1.756
38372SOL    HW117013   7.031   6.600   1.810
38372SOL    HW217014   7.167   6.664   1.790
38373SOL     OW17015   9.903   8.235  13.526
38373SOL    HW117016   9.902   8.293  13.603
38373SOL    HW217017   9.829   8.176  13.540
38374SOL     OW17018  10.665  12.707   0.897
38374SOL    HW117019  10.585  12.722   0.947
38374SOL    HW217020  10.674  12.786   0.843
38375SOL     OW17021   3.925   7.570   1.060
38375SOL    HW117022   4.016   7.541   1.060
38375SOL    HW217023   3.905   7.589   1.151
38376SOL     OW17024   5.082  14.320   8.914
38376SOL    HW117025   5.172  14.352   8.921
38376SOL    HW217026   5.080  14.273   8.830
38377SOL     OW17027   5.813   5.581  14.480
38377SOL    HW117028   5.741   5.549  14.426
38377SOL    HW217029   5.877   5.615  14.417
38378SOL     OW17030   4.852  11.069   7.885
38378SOL    HW117031   4.899  11.009   7.827
38378SOL    HW217032   4.762  11.068   7.853
38379SOL     OW17033   0.793   2.140   8.269
38379SOL    HW117034   0.711   2.184   8.292
38379SOL    HW217035   0.783   2.117   8.177
38380SOL     OW17036   4.727   4.282   3.293
38380SOL    HW117037   4.680   4.325   3.221
38380SOL    HW217038   4.788   4.223   3.249
38381SOL     OW17039  11.616   5.502  11.589
38381SOL    HW117040  11.616   5.476  11.496
38381SOL    HW217041  11.651   5.591  11.588
38382SOL     OW17042   4.156   1.149   8.434
38382SOL    HW117043   4.160   1.114   8.345
38382SOL    HW217044   4.120   1.237   8.422
38383SOL     OW17045  11.302   9.291   8.796
38383SOL    HW117046  11.295   9.232   8.721
38383SOL    HW217047  11.221   9.276   8.846
38384SOL     OW17048   8.071   2.869   0.422
38384SOL    HW117049   8.118   2.817   0.357
38384SOL    HW217050   8.121   2.951   0.429
38385SOL     OW17051   7.942   2.377  10.271
38385SOL    HW117052   7.939   2.369  10.175
38385SOL    HW217053   7.856   2.411  10.295
38386SOL     OW17054   7.453   8.920  12.810
38386SOL    HW117055   7.447   9.000  12.758
38386SOL    HW217056   7.472   8.951  12.899
38387SOL     OW17057   5.514  14.188  14.816
38387SOL    HW117058   5.477  14.132  14.747
38387SOL    HW217059   5.468  14.160   0.016
38388SOL     OW17060   0.610   1.347   4.592
38388SOL    HW117061   0.518   1.340   4.566
38388SOL    HW217062   0.642   1.425   4.546
38389SOL     OW17063  10.157   3.595   6.586
38389SOL    HW117064  10.181   3.660   6.520
38389SOL    HW217065  10.075   3.628   6.623
38390SOL     OW17066   9.046  14.440  13.602
38390SOL    HW117067   8.998  14.499  13.660
38390SOL    HW217068   9.133  14.432  13.642
38391SOL     OW17069   6.307   0.744   5.952
38391SOL    HW117070   6.245   0.816   5.966
38391SOL    HW217071   6.251   0.668   5.936
38392SOL     OW17072   0.454  13.328  10.675
38392SOL    HW117073   0.531  13.294  10.630
38392SOL    HW217074   0.486  13.353  10.761
38393SOL     OW17075  13.902   9.678  10.215
38393SOL    HW117076  13.906   9.633  10.130
38393SOL    HW217077  13.821   9.730  10.210
38394SOL     OW17078   5.255   3.933  11.311
38394SOL    HW117079   5.336   3.982  11.326
38394SOL    HW217080   5.203   3.947  11.391
38395SOL     OW17081  12.290  11.292   1.828
38395SOL    HW117082  12.287  11.205   1.788
38395SOL    HW217083  12.204  11.330   1.808
38396SOL     OW17084   6.200   4.189   7.287
38396SOL    HW117085   6.122   4.239   7.308
38396SOL    HW217086   6.273   4.248   7.309
38397SOL     OW17087   0.333   4.325   3.976
38397SOL    HW117088   0.251   4.353   4.016
38397SOL    HW217089   0.306   4.270   3.902
38398SOL     OW17090   4.128  12.288  12.615
38398SOL    HW117091   4.218  12.320  12.605
38398SOL    HW217092   4.097  12.327  12.696
38399SOL     OW17093  10.886   3.762  13.443
38399SOL    HW117094  10.798   3.740  13.413
38399SOL    HW217095  10.875   3.783  13.536
38400SOL     OW17096   0.816  12.218   4.076
38400SOL    HW117097   0.893  12.243   4.025
38400SOL    HW217098   0.787  12.299   4.119
38401SOL     OW17099  14.848  11.216  14.616
38401SOL    HW117100   0.024  11.276  14.566
38401SOL    HW217101  14.763  11.221  14.574
38402SOL     OW17102  10.863  13.386   9.410
38402SOL    HW117103  10.924  13.384   9.336
38402SOL    HW217104  10.913  13.425   9.482
38403SOL     OW17105  12.289   7.053   8.383
38403SOL    HW117106  12.328   6.992   8.445
38403SOL    HW217107  12.360   7.113   8.359
38404SOL     OW17108   3.672   3.534  12.226
38404SOL    HW117109   3.632   3.484  12.298
38404SOL    HW217110   3.763   3.504  12.224
38405SOL     OW17111  11.864  13.799  10.359
38405SOL    HW117112  11.811  13.772  10.284
38405SOL    HW217113  11.805  13.791  10.434
38406SOL     OW17114   0.511  10.047   7.723
38406SOL    HW117115   0.418  10.065   7.708
38406SOL    HW217116   0.512   9.981   7.792
38407SOL     OW17117  13.587   5.341   2.334
38407SOL    HW117118  13.626   5.281   2.397
38407SOL    HW217119  13.585   5.425   2.380
38408SOL     OW17120   2.630  13.233   3.010
38408SOL    HW117121   2.673  13.162   2.963
38408SOL    HW217122   2.577  13.190   3.077
38409SOL     OW17123  12.120  14.131   1.420
38409SOL    HW117124  12.059  14.085   1.477
38409SOL    HW217125  12.064  14.186   1.365
38410SOL     OW17126   1.513  14.855  11.437
38410SOL    HW117127   1.514  14.810  11.522
38410SOL    HW217128   1.477  14.790  11.376
38411SOL     OW17129   0.877  13.774   6.471
38411SOL    HW117130   0.960  13.773   6.422
38411SOL    HW217131   0.878  13.857   6.518
38412SOL     OW17132   1.452   8.999  11.385
38412SOL    HW117133   1.380   8.936  11.386
38412SOL    HW217134   1.466   9.018  11.292
38413SOL     OW17135   5.873   3.513   3.495
38413SOL    HW117136   5.780   3.502   3.475
38413SOL    HW217137   5.911   3.550   3.415
38414SOL     OW17138   0.552   2.825   0.561
38414SOL    HW117139   0.466   2.830   0.519
38414SOL    HW217140   0.579   2.734   0.548
38415SOL     OW17141  12.420   9.611   8.963
38415SOL    HW117142  12.482   9.645   9.027
38415SOL    HW217143  12.341   9.591   9.013
38416SOL     OW17144   8.498   3.546  10.298
38416SOL    HW117145   8.528   3.555  10.207
38416SOL    HW217146   8.472   3.454  10.305
38417SOL     OW17147  11.387  13.227   8.141
38417SOL    HW117148  11.372  13.298   8.078
38417SOL    HW217149  11.482  13.219   8.147
38418SOL     OW17150   0.848   4.941   1.979
38418SOL    HW117151   0.780   4.917   1.917
38418SOL    HW217152   0.857   5.036   1.970
38419SOL     OW17153   7.060  10.259   6.550
38419SOL    HW117154   7.081  10.305   6.468
38419SOL    HW217155   7.089  10.169   6.534
38420SOL     OW17156   0.896  13.536   5.389
38420SOL    HW117157   0.827  13.533   5.455
38420SOL    HW217158   0.971  13.574   5.435
38421SOL     OW17159  13.445   6.304   2.338
38421SOL    HW117160  13.398   6.227   2.370
38421SOL    HW217161  13.392   6.378   2.367
38422SOL     OW17162  13.476   2.974  12.457
38422SOL    HW117163  13.474   2.990  12.552
38422SOL    HW217164  13.562   3.007  12.429
38423SOL     OW17165   6.386   5.945   3.601
38423SOL    HW117166   6.422   5.965   3.687
38423SOL    HW217167   6.434   6.001   3.541
38424SOL     OW17168  13.734   1.848  13.582
38424SOL    HW117169  13.756   1.761  13.615
38424SOL    HW217170  13.657   1.874  13.633
38425SOL     OW17171  10.523  10.686   6.359
38425SOL    HW117172  10.602  10.634   6.370
38425SOL    HW217173  10.462  10.629   6.311
38426SOL     OW17174   1.159   5.108   0.998
38426SOL    HW117175   1.178   5.201   1.003
38426SOL    HW217176   1.148   5.090   0.905
38427SOL     OW17177   9.731   4.116  12.865
38427SOL    HW117178   9.677   4.170  12.808
38427SOL    HW217179   9.799   4.080  12.807
38428SOL     OW17180   2.086   1.160  14.456
38428SOL    HW117181   2.065   1.184  14.366
38428SOL    HW217182   2.058   1.069  14.464
38429SOL     OW17183  11.404  10.758   3.386
38429SOL    HW117184  11.311  10.773   3.376
38429SOL    HW217185  11.446  10.818   3.325
38430SOL     OW17186   4.172   2.216   8.155
38430SOL    HW117187   4.265   2.219   8.130
38430SOL    HW217188   4.128   2.183   8.077
38431SOL     OW17189   6.031   9.667  10.749
38431SOL    HW117190   6.033   9.747  10.802
38431SOL    HW217191   5.964   9.684  10.683
38432SOL     OW17192   0.614  14.420   2.533
38432SOL    HW117193   0.661  14.503   2.524
38432SOL    HW217194   0.622  14.378   2.447
38433SOL     OW17195  12.985   3.947   9.454
38433SOL    HW117196  12.905   3.913   9.415
38433SOL    HW217197  12.993   3.902   9.538
38434SOL     OW17198   1.875  13.467  13.043
38434SOL    HW117199   1.967  13.485  13.061
38434SOL    HW217200   1.877  13.403  12.972
38435SOL     OW17201   5.915  12.863   5.302
38435SOL    HW117202   5.901  12.928   5.371
38435SOL    HW217203   5.893  12.909   5.221
38436SOL     OW17204   1.329   9.089   8.441
38436SOL    HW117205   1.282   9.061   8.520
38436SOL    HW217206   1.268   9.149   8.397
38437SOL     OW17207  11.965   8.518   0.599
38437SOL    HW117208  11.966   8.593   0.539
38437SOL    HW217209  12.058   8.495   0.609
38438SOL     OW17210   8.775   4.601   1.231
38438SOL    HW117211   8.735   4.676   1.187
38438SOL    HW217212   8.825   4.639   1.304
38439SOL     OW17213   2.606   0.314   5.372
38439SOL    HW117214   2.548   0.280   5.440
38439SOL    HW217215   2.550   0.369   5.317
38440SOL     OW17216   4.652   6.047   7.230
38440SOL    HW117217   4.658   6.025   7.137
38440SOL    HW217218   4.565   6.087   7.239
38441SOL     OW17219  14.202   5.152   3.631
38441SOL    HW117220  14.138   5.213   3.597
38441SOL    HW217221  14.238   5.108   3.554
38442SOL     OW17222   3.473   7.083   5.526
38442SOL    HW117223   3.483   6.993   5.493
38442SOL    HW217224   3.505   7.138   5.455
38443SOL     OW17225   2.139  12.138  13.424
38443SOL    HW117226   2.165  12.187  13.502
38443SOL    HW217227   2.181  12.052  13.434
38444SOL     OW17228   1.524   7.869   3.773
38444SOL    HW117229   1.485   7.815   3.841
38444SOL    HW217230   1.608   7.827   3.754
38445SOL     OW17231   5.869   3.900   3.084
38445SOL    HW117232   5.774   3.911   3.091
38445SOL    HW217233   5.886   3.907   2.990
38446SOL     OW17234   2.791   2.209  13.413
38446SOL    HW117235   2.809   2.299  13.388
38446SOL    HW217236   2.873   2.162  13.397
38447SOL     OW17237  13.441   3.044   3.290
38447SOL    HW117238  13.466   2.960   3.326
38447SOL    HW217239  13.415   3.025   3.199
38448SOL     OW17240   5.145   8.351  10.499
38448SOL    HW117241   5.225   8.379  10.453
38448SOL    HW217242   5.176   8.291  10.566
38449SOL     OW17243  10.215  12.424   9.826
38449SOL    HW117244  10.138  12.368   9.817
38449SOL    HW217245  10.187  12.508   9.791
38450SOL     OW17246   7.375   2.071   7.311
38450SOL    HW117247   7.307   2.127   7.273
38450SOL    HW217248   7.374   1.993   7.256
38451SOL     OW17249   8.133  10.488  12.630
38451SOL    HW117250   8.124  10.436  12.550
38451SOL    HW217251   8.102  10.575  12.607
38452SOL     OW17252  10.286   6.351   7.168
38452SOL    HW117253  10.246   6.303   7.241
38452SOL    HW217254  10.346   6.289   7.128
38453SOL     OW17255  12.230   4.312  14.559
38453SOL    HW117256  12.261   4.249  14.494
38453SOL    HW217257  12.210   4.259  14.636
38454SOL     OW17258   4.465   4.141   9.952
38454SOL    HW117259   4.466   4.057   9.999
38454SOL    HW217260   4.544   4.187   9.983
38455SOL     OW17261   5.329   4.400   6.827
38455SOL    HW117262   5.405   4.443   6.868
38455SOL    HW217263   5.275   4.472   6.795
38456SOL     OW17264  14.199   5.162   8.258
38456SOL    HW117265  14.268   5.199   8.313
38456SOL    HW217266  14.243   5.142   8.175
38457SOL     OW17267   3.022   6.014   1.868
38457SOL    HW117268   3.016   5.964   1.787
38457SOL    HW217269   3.099   5.979   1.912
38458SOL     OW17270   0.668  10.303  14.663
38458SOL    HW117271   0.581  10.269  14.642
38458SOL    HW217272   0.651  10.380  14.718
38459SOL     OW17273   8.004   0.576   1.108
38459SOL    HW117274   8.094   0.593   1.136
38459SOL    HW217275   7.957   0.656   1.132
38460SOL     OW17276   3.981   2.732  12.884
38460SOL    HW117277   4.002   2.677  12.809
38460SOL    HW217278   3.886   2.721  12.896
38461SOL     OW17279   7.756  10.679   6.307
38461SOL    HW117280   7.777  10.590   6.278
38461SOL    HW217281   7.815  10.735   6.257
38462SOL     OW17282  13.110  11.662   7.045
38462SOL    HW117283  13.200  11.629   7.047
38462SOL    HW217284  13.103  11.717   7.123
38463SOL     OW17285   9.974  11.577   9.576
38463SOL    HW117286  10.041  11.531   9.627
38463SOL    HW217287   9.898  11.518   9.577
38464SOL     OW17288   0.220   7.626  14.414
38464SOL    HW117289   0.295   7.567  14.419
38464SOL    HW217290   0.188   7.631  14.504
38465SOL     OW17291   5.072   3.787  10.363
38465SOL    HW117292   5.057   3.704  10.317
38465SOL    HW217293   5.147   3.770  10.420
38466SOL     OW17294  13.969   7.420   1.404
38466SOL    HW117295  14.030   7.453   1.469
38466SOL    HW217296  13.978   7.481   1.330
38467SOL     OW17297  10.158   4.489   2.196
38467SOL    HW117298  10.134   4.486   2.103
38467SOL    HW217299  10.185   4.579   2.211
38468SOL     OW17300   6.473  14.367  13.662
38468SOL    HW117301   6.552  14.314  13.674
38468SOL    HW217302   6.409  14.306  13.626
38469SOL     OW17303  10.291   0.135   4.342
38469SOL    HW117304  10.218   0.157   4.400
38469SOL    HW217305  10.294   0.039   4.344
38470SOL     OW17306   4.861  14.312   0.523
38470SOL    HW117307   4.918  14.265   0.583
38470SOL    HW217308   4.774  14.305   0.562
38471SOL     OW17309  13.065   7.299   7.417
38471SOL    HW117310  13.045   7.363   7.349
38471SOL    HW217311  13.019   7.220   7.390
38472SOL     OW17312   1.165   4.485   6.377
38472SOL    HW117313   1.104   4.556   6.394
38472SOL    HW217314   1.156   4.468   6.284
38473SOL     OW17315   0.456   5.002  11.630
38473SOL    HW117316   0.481   4.912  11.609
38473SOL    HW217317   0.535   5.053  11.614
38474SOL     OW17318   2.492  14.459  14.742
38474SOL    HW117319   2.461  14.435  14.830
38474SOL    HW217320   2.485  14.378  14.692
38475SOL     OW17321   5.371  12.364   8.360
38475SOL    HW117322   5.420  12.445   8.379
38475SOL    HW217323   5.280  12.393   8.351
38476SOL     OW17324  11.756   2.149   9.018
38476SOL    HW117325  11.771   2.078   9.080
38476SOL    HW217326  11.683   2.119   8.964
38477SOL     OW17327  13.573  11.204   3.341
38477SOL    HW117328  13.542  11.241   3.259
38477SOL    HW217329  13.664  11.178   3.323
38478SOL     OW17330   1.161  13.095   0.814
38478SOL    HW117331   1.097  13.062   0.877
38478SOL    HW217332   1.232  13.030   0.815
38479SOL     OW17333  11.033  12.330  11.121
38479SOL    HW117334  11.097  12.350  11.190
38479SOL    HW217335  10.950  12.322  11.168
38480SOL     OW17336  11.530   1.155  13.059
38480SOL    HW117337  11.442   1.188  13.042
38480SOL    HW217338  11.585   1.234  13.060
38481SOL     OW17339   7.774  11.653  12.754
38481SOL    HW117340   7.802  11.722  12.814
38481SOL    HW217341   7.800  11.684  12.667
38482SOL     OW17342   7.394  10.095   5.709
38482SOL    HW117343   7.300  10.094   5.725
38482SOL    HW217344   7.433  10.049   5.784
38483SOL     OW17345   2.264   2.584   1.758
38483SOL    HW117346   2.170   2.587   1.739
38483SOL    HW217347   2.306   2.606   1.675
38484SOL     OW17348  11.738   7.724   6.120
38484SOL    HW117349  11.659   7.693   6.166
38484SOL    HW217350  11.807   7.717   6.186
38485SOL     OW17351   9.047  13.934  12.244
38485SOL    HW117352   9.054  13.924  12.339
38485SOL    HW217353   9.130  13.974  12.218
38486SOL     OW17354   6.475   5.776   6.064
38486SOL    HW117355   6.507   5.714   6.131
38486SOL    HW217356   6.493   5.862   6.102
38487SOL     OW17357   8.217   4.804  13.797
38487SOL    HW117358   8.206   4.711  13.817
38487SOL    HW217359   8.152   4.823  13.730
38488SOL     OW17360  10.044  12.682   6.401
38488SOL    HW117361  10.128  12.702   6.441
38488SOL    HW217362  10.041  12.586   6.398
38489SOL     OW17363   7.981   2.668   8.340
38489SOL    HW117364   7.955   2.694   8.429
38489SOL    HW217365   7.904   2.685   8.287
38490SOL     OW17366  13.329   2.872   0.976
38490SOL    HW117367  13.234   2.884   0.982
38490SOL    HW217368  13.345   2.788   1.020
38491SOL     OW17369  10.347   7.250   0.635
38491SOL    HW117370  10.305   7.180   0.686
38491SOL    HW217371  10.364   7.210   0.550
38492SOL     OW17372   4.154   2.756   4.917
38492SOL    HW117373   4.147   2.849   4.940
38492SOL    HW217374   4.099   2.712   4.982
38493SOL     OW17375   4.164   3.623   6.238
38493SOL    HW117376   4.084   3.666   6.267
38493SOL    HW217377   4.138   3.533   6.218
38494SOL     OW17378  11.572   4.218   1.195
38494SOL    HW117379  11.518   4.297   1.200
38494SOL    HW217380  11.523   4.152   1.244
38495SOL     OW17381   5.868   3.676   8.744
38495SOL    HW117382   5.849   3.684   8.651
38495SOL    HW217383   5.926   3.750   8.763
38496SOL     OW17384   1.602   9.273   1.079
38496SOL    HW117385   1.611   9.243   1.170
38496SOL    HW217386   1.670   9.339   1.069
38497SOL     OW17387   0.763   7.336   2.256
38497SOL    HW117388   0.836   7.284   2.290
38497SOL    HW217389   0.785   7.350   2.164
38498SOL     OW17390   7.271   4.542   8.900
38498SOL    HW117391   7.205   4.529   8.968
38498SOL    HW217392   7.234   4.608   8.843
38499SOL     OW17393  10.315   3.670   6.382
38499SOL    HW117394  10.305   3.642   6.291
38499SOL    HW217395  10.396   3.628   6.411
38500SOL     OW17396   5.325  11.516   8.255
38500SOL    HW117397   5.296  11.523   8.346
38500SOL    HW217398   5.403  11.572   8.251
38501SOL     OW17399  14.167   2.192   9.282
38501SOL    HW117400  14.091   2.217   9.229
38501SOL    HW217401  14.170   2.097   9.276
38502SOL     OW17402   3.204   9.682   8.119
38502SOL    HW117403   3.158   9.614   8.167
38502SOL    HW217404   3.161   9.686   8.034
38503SOL     OW17405   3.964   2.793   9.597
38503SOL    HW117406   4.005   2.878   9.613
38503SOL    HW217407   3.997   2.767   9.511
38504SOL     OW17408  10.616  11.029   9.809
38504SOL    HW117409  10.524  11.056   9.808
38504SOL    HW217410  10.645  11.041   9.718
38505SOL     OW17411   1.098   5.803  10.175
38505SOL    HW117412   1.006   5.787  10.154
38505SOL    HW217413   1.109   5.767  10.264
38506SOL     OW17414   7.953  11.134  11.500
38506SOL    HW117415   7.905  11.184  11.435
38506SOL    HW217416   7.922  11.044  11.490
38507SOL     OW17417   0.994   1.046   0.274
38507SOL    HW117418   0.920   1.048   0.335
38507SOL    HW217419   0.993   1.131   0.232
38508SOL     OW17420   1.532  13.138  11.364
38508SOL    HW117421   1.532  13.044  11.349
38508SOL    HW217422   1.604  13.171  11.309
38509SOL     OW17423   1.852   8.626  12.063
38509SOL    HW117424   1.916   8.655  12.128
38509SOL    HW217425   1.882   8.538  12.038
38510SOL     OW17426  13.943   3.655   0.582
38510SOL    HW117427  13.951   3.592   0.653
38510SOL    HW217428  14.011   3.721   0.600
38511SOL     OW17429   8.754   9.302  13.764
38511SOL    HW117430   8.724   9.220  13.726
38511SOL    HW217431   8.818   9.277  13.830
38512SOL     OW17432   6.463   7.427   0.602
38512SOL    HW117433   6.443   7.413   0.510
38512SOL    HW217434   6.415   7.358   0.648
38513SOL     OW17435   8.871   7.320   0.436
38513SOL    HW117436   8.916   7.302   0.519
38513SOL    HW217437   8.849   7.413   0.441
38514SOL     OW17438   4.586  14.057   8.045
38514SOL    HW117439   4.599  14.052   8.140
38514SOL    HW217440   4.491  14.061   8.034
38515SOL     OW17441  10.054  13.216   5.734
38515SOL    HW117442  10.012  13.267   5.803
38515SOL    HW217443   9.980  13.181   5.683
38516SOL     OW17444  14.840  13.902   7.892
38516SOL    HW117445   0.040  13.865   7.854
38516SOL    HW217446  14.861  13.994   7.908
38517SOL     OW17447  10.416   6.538   3.441
38517SOL    HW117448  10.437   6.485   3.365
38517SOL    HW217449  10.362   6.482   3.496
38518SOL     OW17450   7.441  12.502   6.887
38518SOL    HW117451   7.503  12.573   6.901
38518SOL    HW217452   7.364  12.526   6.938
38519SOL     OW17453   5.270  10.218   9.247
38519SOL    HW117454   5.208  10.286   9.274
38519SOL    HW217455   5.354  10.246   9.285
38520SOL     OW17456  11.829   3.866  12.735
38520SOL    HW117457  11.828   3.960  12.714
38520SOL    HW217458  11.778   3.859  12.816
38521SOL     OW17459   4.893  11.680   6.420
38521SOL    HW117460   4.814  11.683   6.367
38521SOL    HW217461   4.965  11.683   6.358
38522SOL     OW17462   1.389   0.364   0.013
38522SOL    HW117463   1.483   0.379   0.020
38522SOL    HW217464   1.354   0.390   0.098
38523SOL     OW17465  12.159   7.136  13.229
38523SOL    HW117466  12.167   7.045  13.257
38523SOL    HW217467  12.120   7.181  13.304
38524SOL     OW17468   5.454   5.309  11.568
38524SOL    HW117469   5.460   5.303  11.473
38524SOL    HW217470   5.545   5.318  11.597
38525SOL     OW17471   9.708  14.864  11.969
38525SOL    HW117472   9.771  14.827  12.031
38525SOL    HW217473   9.741   0.072  11.951
38526SOL     OW17474  12.432  11.145   6.391
38526SOL    HW117475  12.405  11.176   6.304
38526SOL    HW217476  12.508  11.089   6.373
38527SOL     OW17477   6.565   0.970   0.196
38527SOL    HW117478   6.562   1.030   0.121
38527SOL    HW217479   6.619   0.897   0.166
38528SOL     OW17480   2.470   0.911  11.383
38528SOL    HW117481   2.430   0.861  11.311
38528SOL    HW217482   2.479   1.000  11.349
38529SOL     OW17483   1.442  14.869   1.375
38529SOL    HW117484   1.347  14.858   1.372
38529SOL    HW217485   1.474  14.791   1.420
38530SOL     OW17486  11.261   8.980  13.817
38530SOL    HW117487  11.244   9.034  13.740
38530SOL    HW217488  11.284   9.042  13.886
38531SOL     OW17489   0.579  12.097   0.098
38531SOL    HW117490   0.577  12.163   0.168
38531SOL    HW217491   0.591  12.147   0.018
38532SOL     OW17492   4.947  13.260   4.072
38532SOL    HW117493   5.025  13.210   4.098
38532SOL    HW217494   4.900  13.275   4.154
38533SOL     OW17495   2.379   2.709   1.982
38533SOL    HW117496   2.342   2.667   1.903
38533SOL    HW217497   2.441   2.645   2.016
38534SOL     OW17498  12.429   9.289  14.464
38534SOL    HW117499  12.504   9.341  14.494
38534SOL    HW217500  12.409   9.232  14.538
38535SOL     OW17501   9.141   2.757  13.554
38535SOL    HW117502   9.077   2.812  13.508
38535SOL    HW217503   9.198   2.819  13.600
38536SOL     OW17504   6.317   4.406   0.327
38536SOL    HW117505   6.234   4.359   0.316
38536SOL    HW217506   6.358   4.363   0.401
38537SOL     OW17507  11.466   1.341   7.715
38537SOL    HW117508  11.482   1.435   7.712
38537SOL    HW217509  11.371   1.332   7.702
38538SOL     OW17510   6.095  12.385   4.955
38538SOL    HW117511   6.138  12.372   4.871
38538SOL    HW217512   6.004  12.357   4.940
38539SOL     OW17513   2.277   4.604   6.498
38539SOL    HW117514   2.308   4.620   6.587
38539SOL    HW217515   2.252   4.690   6.465
38540SOL     OW17516   4.804  11.407   2.514
38540SOL    HW117517   4.711  11.423   2.531
38540SOL    HW217518   4.817  11.315   2.538
38541SOL     OW17519   6.338   9.451   1.997
38541SOL    HW117520   6.376   9.473   1.912
38541SOL    HW217521   6.252   9.414   1.977
38542SOL     OW17522  10.412  11.413   3.806
38542SOL    HW117523  10.491  11.467   3.806
38542SOL    HW217524  10.344  11.469   3.843
38543SOL     OW17525   5.414  10.442   4.864
38543SOL    HW117526   5.371  10.357   4.867
38543SOL    HW217527   5.343  10.505   4.875
38544SOL     OW17528  14.338   6.242   8.434
38544SOL    HW117529  14.415   6.265   8.383
38544SOL    HW217530  14.366   6.247   8.525
38545SOL     OW17531  11.633  14.046  14.099
38545SOL    HW117532  11.704  14.008  14.151
38545SOL    HW217533  11.611  14.127  14.145
38546SOL     OW17534   2.274  11.896   1.980
38546SOL    HW117535   2.233  11.817   1.943
38546SOL    HW217536   2.336  11.925   1.913
38547SOL     OW17537  11.661   9.490   6.113
38547SOL    HW117538  11.651   9.397   6.093
38547SOL    HW217539  11.754   9.499   6.134
38548SOL     OW17540  14.346   1.779   0.347
38548SOL    HW117541  14.376   1.869   0.358
38548SOL    HW217542  14.336   1.745   0.436
38549SOL     OW17543   2.417   4.092  12.249
38549SOL    HW117544   2.447   4.133  12.330
38549SOL    HW217545   2.489   4.103  12.187
38550SOL     OW17546  10.688   7.970   3.270
38550SOL    HW117547  10.618   7.963   3.335
38550SOL    HW217548  10.750   8.032   3.308
38551SOL     OW17549  14.232   5.410   6.009
38551SOL    HW117550  14.171   5.336   6.015
38551SOL    HW217551  14.235   5.430   5.915
38552SOL     OW17552   0.127   5.620  12.184
38552SOL    HW117553   0.097   5.642  12.272
38552SOL    HW217554   0.115   5.525  12.177
38553SOL     OW17555   7.188   7.847  14.260
38553SOL    HW117556   7.249   7.777  14.284
38553SOL    HW217557   7.197   7.855  14.165
38554SOL     OW17558   4.096   6.234   3.090
38554SOL    HW117559   4.132   6.314   3.050
38554SOL    HW217560   4.173   6.184   3.118
38555SOL     OW17561   2.929  11.611   1.502
38555SOL    HW117562   3.001  11.547   1.499
38555SOL    HW217563   2.919  11.631   1.594
38556SOL     OW17564   8.490   7.293  10.150
38556SOL    HW117565   8.584   7.288  10.135
38556SOL    HW217566   8.467   7.384  10.132
38557SOL     OW17567   6.520   8.287   4.334
38557SOL    HW117568   6.487   8.285   4.424
38557SOL    HW217569   6.470   8.218   4.290
38558SOL     OW17570   1.762   1.832   4.918
38558SOL    HW117571   1.835   1.801   4.972
38558SOL    HW217572   1.702   1.758   4.915
38559SOL     OW17573   4.432   6.370   0.651
38559SOL    HW117574   4.468   6.284   0.631
38559SOL    HW217575   4.337   6.357   0.650
38560SOL     OW17576   5.092   8.130  14.523
38560SOL    HW117577   5.016   8.083  14.556
38560SOL    HW217578   5.076   8.139  14.429
38561SOL     OW17579   5.067   9.055   4.638
38561SOL    HW117580   4.978   9.046   4.670
38561SOL    HW217581   5.119   9.002   4.699
38562SOL     OW17582   1.789   8.259  10.479
38562SOL    HW117583   1.703   8.290  10.504
38562SOL    HW217584   1.850   8.320  10.520
38563SOL     OW17585   8.670   8.217  12.182
38563SOL    HW117586   8.666   8.250  12.092
38563SOL    HW217587   8.760   8.234  12.210
38564SOL     OW17588   7.683   6.794   0.226
38564SOL    HW117589   7.618   6.728   0.251
38564SOL    HW217590   7.686   6.853   0.301
38565SOL     OW17591  10.288  11.841   3.923
38565SOL    HW117592  10.286  11.937   3.914
38565SOL    HW217593  10.367  11.815   3.876
38566SOL     OW17594   2.241   1.982   9.533
38566SOL    HW117595   2.308   2.031   9.486
38566SOL    HW217596   2.260   1.997   9.626
38567SOL     OW17597  12.819   7.967   8.775
38567SOL    HW117598  12.729   7.947   8.750
38567SOL    HW217599  12.868   7.965   8.693
38568SOL     OW17600  11.612   2.955  10.872
38568SOL    HW117601  11.636   2.872  10.915
38568SOL    HW217602  11.524   2.939  10.837
38569SOL     OW17603   5.755   4.762   9.158
38569SOL    HW117604   5.704   4.718   9.226
38569SOL    HW217605   5.830   4.703   9.143
38570SOL     OW17606   7.761   9.825   6.604
38570SOL    HW117607   7.729   9.857   6.520
38570SOL    HW217608   7.707   9.748   6.621
38571SOL     OW17609   3.922   1.875   2.003
38571SOL    HW117610   3.883   1.788   2.013
38571SOL    HW217611   3.925   1.889   1.908
38572SOL     OW17612   0.767   6.742   4.965
38572SOL    HW117613   0.693   6.723   4.907
38572SOL    HW217614   0.740   6.820   5.013
38573SOL     OW17615   4.872   5.031   7.462
38573SOL    HW117616   4.942   4.973   7.431
38573SOL    HW217617   4.864   5.098   7.394
38574SOL     OW17618   2.433  14.348   9.052
38574SOL    HW117619   2.481  14.394   8.983
38574SOL    HW217620   2.399  14.270   9.009
38575SOL     OW17621   3.926   8.392  14.114
38575SOL    HW117622   4.008   8.442  14.111
38575SOL    HW217623   3.935   8.328  14.044
38576SOL     OW17624   3.907   3.872  13.219
38576SOL    HW117625   3.898   3.821  13.300
38576SOL    HW217626   3.911   3.963  13.248
38577SOL     OW17627   0.629  12.955   3.771
38577SOL    HW117628   0.598  12.948   3.861
38577SOL    HW217629   0.586  13.033   3.737
38578SOL     OW17630   1.473   1.253  13.873
38578SOL    HW117631   1.419   1.180  13.842
38578SOL    HW217632   1.415   1.307  13.926
38579SOL     OW17633  12.873   5.128   6.087
38579SOL    HW117634  12.885   5.034   6.097
38579SOL    HW217635  12.815   5.153   6.159
38580SOL     OW17636  11.524   4.324  13.510
38580SOL    HW117637  11.566   4.244  13.541
38580SOL    HW217638  11.529   4.384  13.584
38581SOL     OW17639   1.624   6.540  12.218
38581SOL    HW117640   1.573   6.571  12.144
38581SOL    HW217641   1.715   6.553  12.192
38582SOL     OW17642   5.770   4.718   4.921
38582SOL    HW117643   5.830   4.645   4.938
38582SOL    HW217644   5.684   4.683   4.942
38583SOL     OW17645  14.757  13.172   6.745
38583SOL    HW117646  14.684  13.193   6.686
38583SOL    HW217647  14.834  13.173   6.689
38584SOL     OW17648  12.351   8.880   9.660
38584SOL    HW117649  12.413   8.861   9.590
38584SOL    HW217650  12.342   8.797   9.707
38585SOL     OW17651   6.798  11.210   4.050
38585SOL    HW117652   6.831  11.288   4.003
38585SOL    HW217653   6.869  11.188   4.111
38586SOL     OW17654   8.576   0.826   1.722
38586SOL    HW117655   8.491   0.787   1.739
38586SOL    HW217656   8.576   0.906   1.775
38587SOL     OW17657  12.942  14.527   2.058
38587SOL    HW117658  12.972  14.468   2.127
38587SOL    HW217659  12.897  14.470   1.995
38588SOL     OW17660   2.442   2.611   4.299
38588SOL    HW117661   2.436   2.632   4.206
38588SOL    HW217662   2.413   2.690   4.344
38589SOL     OW17663   6.766   8.552  13.225
38589SOL    HW117664   6.827   8.498  13.175
38589SOL    HW217665   6.724   8.608  13.160
38590SOL     OW17666   2.739  14.233   3.381
38590SOL    HW117667   2.756  14.199   3.469
38590SOL    HW217668   2.744  14.156   3.324
38591SOL     OW17669  13.766   5.621  14.340
38591SOL    HW117670  13.811   5.560  14.282
38591SOL    HW217671  13.678   5.585  14.349
38592SOL     OW17672   8.768   2.833   9.923
38592SOL    HW117673   8.827   2.758   9.927
38592SOL    HW217674   8.803   2.887   9.852
38593SOL     OW17675  11.788   2.752   7.736
38593SOL    HW117676  11.725   2.729   7.805
38593SOL    HW217677  11.868   2.774   7.784
38594SOL     OW17678   8.884  11.114   3.348
38594SOL    HW117679   8.976  11.124   3.323
38594SOL    HW217680   8.837  11.106   3.264
38595SOL     OW17681  13.707   3.260   7.108
38595SOL    HW117682  13.628   3.213   7.133
38595SOL    HW217683  13.694   3.349   7.141
38596SOL     OW17684   0.579   0.707   8.014
38596SOL    HW117685   0.647   0.773   8.030
38596SOL    HW217686   0.498   0.749   8.043
38597SOL     OW17687  11.502  13.137  11.508
38597SOL    HW117688  11.569  13.135  11.440
38597SOL    HW217689  11.446  13.062  11.489
38598SOL     OW17690  13.822  10.742   0.933
38598SOL    HW117691  13.915  10.728   0.913
38598SOL    HW217692  13.799  10.668   0.989
38599SOL     OW17693  13.627  12.904   1.239
38599SOL    HW117694  13.613  12.835   1.175
38599SOL    HW217695  13.581  12.980   1.202
38600SOL     OW17696   4.861   6.586   4.524
38600SOL    HW117697   4.834   6.554   4.438
38600SOL    HW217698   4.796   6.551   4.585
38601SOL     OW17699  13.227   3.350   7.093
38601SOL    HW117700  13.158   3.360   7.159
38601SOL    HW217701  13.213   3.423   7.032
38602SOL     OW17702   2.721  13.112   1.922
38602SOL    HW117703   2.779  13.037   1.938
38602SOL    HW217704   2.778  13.178   1.882
38603SOL     OW17705   5.319   1.088   6.989
38603SOL    HW117706   5.335   1.173   7.032
38603SOL    HW217707   5.364   1.096   6.904
38604SOL     OW17708   6.461   3.459  13.274
38604SOL    HW117709   6.507   3.534  13.310
38604SOL    HW217710   6.503   3.383  13.314
38605SOL     OW17711   7.966  14.830   2.349
38605SOL    HW117712   7.891  14.823   2.409
38605SOL    HW217713   7.927  14.856   2.266
38606SOL     OW17714   9.488   3.967   1.497
38606SOL    HW117715   9.480   4.004   1.409
38606SOL    HW217716   9.446   4.031   1.554
38607SOL     OW17717   5.884  13.226   5.956
38607SOL    HW117718   5.971  13.187   5.950
38607SOL    HW217719   5.825  13.159   5.922
38608SOL     OW17720   7.781  14.058   6.807
38608SOL    HW117721   7.746  14.054   6.896
38608SOL    HW217722   7.810  13.968   6.789
38609SOL     OW17723   8.256   7.612  10.655
38609SOL    HW117724   8.201   7.609  10.576
38609SOL    HW217725   8.300   7.696  10.650
38610SOL     OW17726  12.183   4.257  10.782
38610SOL    HW117727  12.158   4.251  10.874
38610SOL    HW217728  12.279   4.260  10.783
38611SOL     OW17729  13.195  12.848   3.953
38611SOL    HW117730  13.145  12.796   3.891
38611SOL    HW217731  13.133  12.914   3.984
38612SOL     OW17732   4.092  10.398   5.084
38612SOL    HW117733   4.084  10.309   5.048
38612SOL    HW217734   4.183  10.422   5.068
38613SOL     OW17735  12.021   9.944   2.751
38613SOL    HW117736  11.987   9.883   2.817
38613SOL    HW217737  12.078  10.003   2.800
38614SOL     OW17738   3.418   7.073   2.714
38614SOL    HW117739   3.421   6.987   2.672
38614SOL    HW217740   3.452   7.133   2.647
38615SOL     OW17741   8.425   4.988   2.314
38615SOL    HW117742   8.394   5.066   2.360
38615SOL    HW217743   8.364   4.977   2.241
38616SOL     OW17744  10.855   9.980  11.428
38616SOL    HW117745  10.800   9.945  11.498
38616SOL    HW217746  10.796   9.986  11.352
38617SOL     OW17747   3.901  10.380   9.811
38617SOL    HW117748   3.805  10.379   9.810
38617SOL    HW217749   3.924  10.434   9.887
38618SOL     OW17750   2.035   6.329   1.681
38618SOL    HW117751   1.978   6.272   1.732
38618SOL    HW217752   2.041   6.409   1.732
38619SOL     OW17753  14.773   9.215  12.765
38619SOL    HW117754  14.854   9.261  12.745
38619SOL    HW217755  14.765   9.221  12.860
38620SOL     OW17756   6.111  10.375   5.125
38620SOL    HW117757   6.180  10.425   5.081
38620SOL    HW217758   6.134  10.379   5.218
38621SOL     OW17759   5.663   7.302   1.089
38621SOL    HW117760   5.572   7.276   1.073
38621SOL    HW217761   5.656   7.383   1.140
38622SOL     OW17762   1.909  14.081   5.857
38622SOL    HW117763   1.938  14.073   5.766
38622SOL    HW217764   1.906  13.990   5.889
38623SOL     OW17765  12.467   1.500   0.660
38623SOL    HW117766  12.513   1.553   0.595
38623SOL    HW217767  12.530   1.431   0.684
38624SOL     OW17768   0.984   9.375   8.705
38624SOL    HW117769   0.935   9.438   8.757
38624SOL    HW217770   1.018   9.426   8.631
38625SOL     OW17771  10.761   6.218   6.351
38625SOL    HW117772  10.843   6.268   6.348
38625SOL    HW217773  10.786   6.130   6.323
38626SOL     OW17774   5.993   9.901  13.614
38626SOL    HW117775   6.069   9.943  13.657
38626SOL    HW217776   6.029   9.864  13.534
38627SOL     OW17777   2.868   4.098   1.499
38627SOL    HW117778   2.879   4.149   1.419
38627SOL    HW217779   2.831   4.015   1.470
38628SOL     OW17780   0.499  13.199  11.346
38628SOL    HW117781   0.579  13.175  11.299
38628SOL    HW217782   0.490  13.293  11.331
38629SOL     OW17783  10.362   1.905  11.433
38629SOL    HW117784  10.373   1.811  11.421
38629SOL    HW217785  10.274   1.924  11.401
38630SOL     OW17786   3.959   8.243  11.216
38630SOL    HW117787   4.051   8.264  11.199
38630SOL    HW217788   3.956   8.148  11.220
38631SOL     OW17789   4.584  13.859   9.364
38631SOL    HW117790   4.522  13.915   9.317
38631SOL    HW217791   4.581  13.891   9.454
38632SOL     OW17792   6.658   4.560  13.182
38632SOL    HW117793   6.564   4.566  13.166
38632SOL    HW217794   6.697   4.620  13.118
38633SOL     OW17795   5.370   5.911  14.425
38633SOL    HW117796   5.332   5.834  14.383
38633SOL    HW217797   5.451   5.928  14.377
38634SOL     OW17798  14.219   9.221   3.817
38634SOL    HW117799  14.243   9.304   3.776
38634SOL    HW217800  14.130   9.204   3.788
38635SOL     OW17801   0.155   0.762   7.062
38635SOL    HW117802   0.238   0.750   7.016
38635SOL    HW217803   0.173   0.828   7.128
38636SOL     OW17804   3.294  12.671  13.565
38636SOL    HW117805   3.383  12.682  13.531
38636SOL    HW217806   3.294  12.583  13.603
38637SOL     OW17807  10.165   3.359  11.529
38637SOL    HW117808  10.206   3.374  11.614
38637SOL    HW217809  10.084   3.313  11.549
38638SOL     OW17810   1.638   2.471  13.060
38638SOL    HW117811   1.652   2.544  13.000
38638SOL    HW217812   1.598   2.510  13.137
38639SOL     OW17813   3.139   1.576  11.387
38639SOL    HW117814   3.102   1.503  11.435
38639SOL    HW217815   3.101   1.654  11.427
38640SOL     OW17816   3.402   7.547  14.301
38640SOL    HW117817   3.366   7.507  14.381
38640SOL    HW217818   3.477   7.492  14.279
38641SOL     OW17819   9.558  14.848   5.766
38641SOL    HW117820   9.498  14.825   5.696
38641SOL    HW217821   9.513   0.036   5.816
38642SOL     OW17822   2.703  13.362   3.266
38642SOL    HW117823   2.699  13.310   3.185
38642SOL    HW217824   2.664  13.306   3.333
38643SOL     OW17825   5.913   3.763   2.259
38643SOL    HW117826   5.888   3.824   2.189
38643SOL    HW217827   5.830   3.738   2.300
38644SOL     OW17828  10.713  11.742   1.738
38644SOL    HW117829  10.703  11.828   1.698
38644SOL    HW217830  10.807  11.724   1.733
38645SOL     OW17831   5.793  12.138  11.352
38645SOL    HW117832   5.874  12.155  11.401
38645SOL    HW217833   5.787  12.211  11.290
38646SOL     OW17834   8.386  12.131   0.645
38646SOL    HW117835   8.417  12.220   0.657
38646SOL    HW217836   8.380  12.120   0.550
38647SOL     OW17837   0.513  10.019   4.027
38647SOL    HW117838   0.593  10.043   4.074
38647SOL    HW217839   0.485   9.937   4.068
38648SOL     OW17840  10.737   0.798   0.558
38648SOL    HW117841  10.726   0.867   0.625
38648SOL    HW217842  10.817   0.822   0.512
38649SOL     OW17843   1.561  12.984   2.514
38649SOL    HW117844   1.496  13.045   2.480
38649SOL    HW217845   1.594  13.027   2.594
38650SOL     OW17846   4.843   5.384   6.366
38650SOL    HW117847   4.905   5.396   6.437
38650SOL    HW217848   4.768   5.439   6.390
38651SOL     OW17849   0.247   6.394   7.977
38651SOL    HW117850   0.255   6.429   7.888
38651SOL    HW217851   0.233   6.300   7.964
38652SOL     OW17852   0.596   2.328  14.472
38652SOL    HW117853   0.682   2.294  14.446
38652SOL    HW217854   0.613   2.375  14.554
38653SOL     OW17855  14.281   9.266   7.703
38653SOL    HW117856  14.309   9.269   7.611
38653SOL    HW217857  14.197   9.311   7.703
38654SOL     OW17858  13.999  11.982   4.513
38654SOL    HW117859  13.969  11.891   4.526
38654SOL    HW217860  14.046  12.003   4.593
38655SOL     OW17861   6.587  14.334  10.263
38655SOL    HW117862   6.530  14.286  10.323
38655SOL    HW217863   6.664  14.279  10.253
38656SOL     OW17864   2.764   3.892   5.277
38656SOL    HW117865   2.849   3.917   5.314
38656SOL    HW217866   2.751   3.801   5.306
38657SOL     OW17867   8.289   7.979   1.883
38657SOL    HW117868   8.274   7.885   1.885
38657SOL    HW217869   8.220   8.014   1.827
38658SOL     OW17870   0.045   9.850   0.382
38658SOL    HW117871   0.102   9.915   0.340
38658SOL    HW217872   0.024   9.887   0.467
38659SOL     OW17873  13.610  12.128   4.361
38659SOL    HW117874  13.647  12.188   4.296
38659SOL    HW217875  13.629  12.041   4.327
38660SOL     OW17876   4.368  13.089  14.012
38660SOL    HW117877   4.404  13.005  14.041
38660SOL    HW217878   4.397  13.098  13.922
38661SOL     OW17879  12.767   2.999   3.084
38661SOL    HW117880  12.697   3.053   3.047
38661SOL    HW217881  12.750   2.999   3.179
38662SOL     OW17882  11.678   0.559   5.282
38662SOL    HW117883  11.606   0.607   5.241
38662SOL    HW217884  11.674   0.584   5.374
38663SOL     OW17885   4.008   8.717  11.964
38663SOL    HW117886   3.925   8.753  11.994
38663SOL    HW217887   3.984   8.650  11.901
38664SOL     OW17888   4.150  11.658   0.355
38664SOL    HW117889   4.171  11.728   0.293
38664SOL    HW217890   4.098  11.701   0.423
38665SOL     OW17891  10.056   0.291   3.543
38665SOL    HW117892  10.016   0.225   3.601
38665SOL    HW217893  10.102   0.239   3.477
38666SOL     OW17894   2.036   2.254   2.968
38666SOL    HW117895   2.020   2.247   2.874
38666SOL    HW217896   1.957   2.293   3.003
38667SOL     OW17897  14.613   0.286   1.761
38667SOL    HW117898  14.550   0.286   1.834
38667SOL    HW217899  14.696   0.309   1.801
38668SOL     OW17900   4.643   0.846   8.500
38668SOL    HW117901   4.584   0.835   8.425
38668SOL    HW217902   4.716   0.897   8.465
38669SOL     OW17903   0.056   6.109   7.462
38669SOL    HW117904   0.124   6.070   7.517
38669SOL    HW217905  14.868   6.043   7.457
38670SOL     OW17906   7.313   5.548   4.422
38670SOL    HW117907   7.367   5.615   4.464
38670SOL    HW217908   7.223   5.571   4.446
38671SOL     OW17909   1.408   1.111  12.121
38671SOL    HW117910   1.352   1.033  12.120
38671SOL    HW217911   1.449   1.111  12.035
38672SOL     OW17912   9.504   2.858   1.168
38672SOL    HW117913   9.420   2.814   1.154
38672SOL    HW217914   9.480   2.947   1.195
38673SOL     OW17915   1.074   3.597   1.678
38673SOL    HW117916   1.018   3.524   1.707
38673SOL    HW217917   1.013   3.660   1.640
38674SOL     OW17918   1.869   2.495   4.955
38674SOL    HW117919   1.945   2.446   4.987
38674SOL    HW217920   1.885   2.585   4.983
38675SOL     OW17921  14.482  14.329   1.375
38675SOL    HW117922  14.483  14.289   1.288
38675SOL    HW217923  14.396  14.308   1.410
38676SOL     OW17924   2.996   6.574  10.400
38676SOL    HW117925   2.902   6.574  10.422
38676SOL    HW217926   3.013   6.662  10.366
38677SOL     OW17927   6.147   6.263   8.502
38677SOL    HW117928   6.080   6.312   8.548
38677SOL    HW217929   6.100   6.216   8.433
38678SOL     OW17930  13.461  11.504  10.478
38678SOL    HW117931  13.401  11.577  10.488
38678SOL    HW217932  13.448  11.451  10.557
38679SOL     OW17933   8.659   3.086   2.231
38679SOL    HW117934   8.745   3.122   2.212
38679SOL    HW217935   8.632   3.044   2.149
38680SOL     OW17936   5.003  14.158   3.355
38680SOL    HW117937   4.959  14.090   3.406
38680SOL    HW217938   5.027  14.114   3.273
38681SOL     OW17939   6.499  14.195   3.304
38681SOL    HW117940   6.506  14.210   3.210
38681SOL    HW217941   6.572  14.243   3.342
38682SOL     OW17942  14.589   3.739  14.160
38682SOL    HW117943  14.612   3.663  14.106
38682SOL    HW217944  14.496   3.728  14.178
38683SOL     OW17945  12.487   1.884   5.398
38683SOL    HW117946  12.433   1.899   5.476
38683SOL    HW217947  12.573   1.919   5.422
38684SOL     OW17948   3.836  12.392   4.608
38684SOL    HW117949   3.785  12.456   4.559
38684SOL    HW217950   3.783  12.374   4.686
38685SOL     OW17951  14.318  10.023   9.438
38685SOL    HW117952  14.296  10.096   9.380
38685SOL    HW217953  14.325  10.062   9.525
38686SOL     OW17954   7.461   8.532  12.129
38686SOL    HW117955   7.454   8.566  12.040
38686SOL    HW217956   7.403   8.589  12.181
38687SOL     OW17957   2.893   1.811   7.180
38687SOL    HW117958   2.829   1.861   7.130
38687SOL    HW217959   2.956   1.780   7.115
38688SOL     OW17960   5.006   5.959   5.742
38688SOL    HW117961   4.973   5.871   5.762
38688SOL    HW217962   5.008   6.004   5.826
38689SOL     OW17963  14.289   4.859   1.286
38689SOL    HW117964  14.379   4.854   1.320
38689SOL    HW217965  14.234   4.858   1.365
38690SOL     OW17966   3.424  14.091   9.865
38690SOL    HW117967   3.370  14.016   9.890
38690SOL    HW217968   3.442  14.078   9.772
38691SOL     OW17969   5.374  13.323  13.665
38691SOL    HW117970   5.442  13.261  13.640
38691SOL    HW217971   5.306  13.312  13.599
38692SOL     OW17972   4.436  12.161  11.244
38692SOL    HW117973   4.436  12.220  11.169
38692SOL    HW217974   4.373  12.093  11.221
38693SOL     OW17975   1.371  12.789  14.746
38693SOL    HW117976   1.369  12.770  14.840
38693SOL    HW217977   1.328  12.875  14.738
38694SOL     OW17978   4.557  14.824   8.348
38694SOL    HW117979   4.499  14.750   8.333
38694SOL    HW217980   4.604  14.803   8.429
38695SOL     OW17981   0.136  14.187   3.894
38695SOL    HW117982   0.228  14.166   3.877
38695SOL    HW217983   0.108  14.234   3.815
38696SOL     OW17984  14.650   0.634   7.513
38696SOL    HW117985  14.623   0.598   7.597
38696SOL    HW217986  14.657   0.558   7.455
38697SOL     OW17987  12.081   2.884   3.423
38697SOL    HW117988  12.175   2.886   3.437
38697SOL    HW217989  12.053   2.800   3.460
38698SOL     OW17990   5.915  14.287   6.635
38698SOL    HW117991   5.923  14.271   6.541
38698SOL    HW217992   5.929  14.202   6.676
38699SOL     OW17993   6.864   5.458   1.446
38699SOL    HW117994   6.952   5.494   1.451
38699SOL    HW217995   6.822   5.507   1.376
38700SOL     OW17996   8.797   0.006   1.783
38700SOL    HW117997   8.745   0.087   1.780
38700SOL    HW217998   8.858   0.014   1.710
38701SOL     OW17999   2.725   3.847   1.505
38701SOL    HW118000   2.765   3.771   1.463
38701SOL    HW218001   2.732   3.829   1.599
38702SOL     OW18002   2.193  13.226   5.135
38702SOL    HW118003   2.256  13.281   5.182
38702SOL    HW218004   2.200  13.255   5.044
38703SOL     OW18005   2.097   6.765   2.934
38703SOL    HW118006   2.057   6.808   3.010
38703SOL    HW218007   2.049   6.683   2.925
38704SOL     OW18008   9.728   0.723  10.194
38704SOL    HW118009   9.675   0.652  10.231
38704SOL    HW218010   9.726   0.792  10.261
38705SOL     OW18011  10.615   1.618   4.846
38705SOL    HW118012  10.641   1.530   4.818
38705SOL    HW218013  10.675   1.676   4.800
38706SOL     OW18014  13.811   3.106   3.948
38706SOL    HW118015  13.901   3.074   3.940
38706SOL    HW218016  13.811   3.191   3.904
38707SOL     OW18017  11.196   2.717  11.590
38707SOL    HW118018  11.154   2.736  11.674
38707SOL    HW218019  11.211   2.623  11.591
38708SOL     OW18020   4.054  13.457  11.319
38708SOL    HW118021   4.136  13.451  11.368
38708SOL    HW218022   3.996  13.509  11.375
38709SOL     OW18023   2.157   2.910   2.971
38709SOL    HW118024   2.222   2.919   3.041
38709SOL    HW218025   2.148   2.815   2.960
38710SOL     OW18026   9.966   0.122  13.599
38710SOL    HW118027   9.943   0.113  13.692
38710SOL    HW218028  10.049   0.076  13.591
38711SOL     OW18029   8.034   9.292   6.327
38711SOL    HW118030   8.097   9.222   6.343
38711SOL    HW218031   8.050   9.318   6.237
38712SOL     OW18032  12.456   4.126   2.535
38712SOL    HW118033  12.477   4.164   2.620
38712SOL    HW218034  12.472   4.196   2.472
38713SOL     OW18035  11.857   5.277   3.863
38713SOL    HW118036  11.847   5.325   3.781
38713SOL    HW218037  11.796   5.203   3.854
38714SOL     OW18038   9.229   3.934  12.716
38714SOL    HW118039   9.160   3.919  12.651
38714SOL    HW218040   9.299   3.979  12.668
38715SOL     OW18041   1.844  11.847  11.125
38715SOL    HW118042   1.816  11.771  11.176
38715SOL    HW218043   1.869  11.811  11.040
38716SOL     OW18044  11.131  13.212   7.177
38716SOL    HW118045  11.152  13.125   7.211
38716SOL    HW218046  11.038  13.208   7.157
38717SOL     OW18047  11.212   4.592  11.538
38717SOL    HW118048  11.206   4.688  11.543
38717SOL    HW218049  11.181   4.571  11.450
38718SOL     OW18050  11.841  10.498   0.996
38718SOL    HW118051  11.883  10.577   1.032
38718SOL    HW218052  11.851  10.506   0.902
38719SOL     OW18053  10.197  10.731  10.023
38719SOL    HW118054  10.240  10.646  10.016
38719SOL    HW218055  10.268  10.792  10.042
38720SOL     OW18056   2.959   7.911   6.993
38720SOL    HW118057   2.940   7.964   7.071
38720SOL    HW218058   2.886   7.929   6.934
38721SOL     OW18059   5.003   3.172   8.913
38721SOL    HW118060   5.058   3.245   8.885
38721SOL    HW218061   5.024   3.100   8.853
38722SOL     OW18062   3.875   2.233  10.632
38722SOL    HW118063   3.969   2.215  10.636
38722SOL    HW218064   3.848   2.200  10.547
38723SOL     OW18065  12.165   4.473  11.325
38723SOL    HW118066  12.210   4.543  11.277
38723SOL    HW218067  12.099   4.440  11.264
38724SOL     OW18068   0.109   9.141   0.179
38724SOL    HW118069   0.139   9.221   0.138
38724SOL    HW218070   0.188   9.100   0.215
38725SOL     OW18071  14.686   3.464  14.843
38725SOL    HW118072  14.662   3.426   0.047
38725SOL    HW218073  14.778   3.490  14.854
38726SOL     OW18074   5.491  13.630   9.588
38726SOL    HW118075   5.447  13.569   9.647
38726SOL    HW218076   5.478  13.592   9.501
38727SOL     OW18077   3.447   6.615   2.111
38727SOL    HW118078   3.461   6.539   2.168
38727SOL    HW218079   3.368   6.595   2.061
38728SOL     OW18080  11.951  11.622   3.589
38728SOL    HW118081  12.017  11.606   3.522
38728SOL    HW218082  11.983  11.576   3.666
38729SOL     OW18083  12.507  10.151  12.668
38729SOL    HW118084  12.586  10.194  12.634
38729SOL    HW218085  12.445  10.152  12.595
38730SOL     OW18086   0.024   3.500   6.057
38730SOL    HW118087   0.053   3.415   6.023
38730SOL    HW218088   0.032   3.491   6.152
38731SOL     OW18089   2.321   6.219   5.582
38731SOL    HW118090   2.235   6.249   5.611
38731SOL    HW218091   2.370   6.300   5.567
38732SOL     OW18092   6.769   7.831  12.663
38732SOL    HW118093   6.806   7.906  12.709
38732SOL    HW218094   6.818   7.755  12.697
38733SOL     OW18095   0.062   5.894   1.315
38733SOL    HW118096   0.089   5.943   1.393
38733SOL    HW218097   0.092   5.805   1.330
38734SOL     OW18098   3.521   3.567   1.722
38734SOL    HW118099   3.528   3.602   1.633
38734SOL    HW218100   3.453   3.620   1.763
38735SOL     OW18101   1.779  14.537   9.639
38735SOL    HW118102   1.780  14.498   9.726
38735SOL    HW218103   1.866  14.521   9.604
38736SOL     OW18104  10.728  14.677   3.096
38736SOL    HW118105  10.719  14.670   3.001
38736SOL    HW218106  10.795  14.744   3.109
38737SOL     OW18107   3.785   2.639   6.325
38737SOL    HW118108   3.834   2.708   6.369
38737SOL    HW218109   3.781   2.568   6.389
38738SOL     OW18110   8.028   2.037  11.534
38738SOL    HW118111   8.017   2.126  11.500
38738SOL    HW218112   8.037   1.982  11.457
38739SOL     OW18113   5.787   9.842  14.456
38739SOL    HW118114   5.881   9.839  14.442
38739SOL    HW218115   5.752   9.880  14.375
38740SOL     OW18116   5.015  10.915   7.045
38740SOL    HW118117   4.939  10.961   7.009
38740SOL    HW218118   4.977  10.842   7.095
38741SOL     OW18119   9.027   9.097  12.252
38741SOL    HW118120   9.062   9.154  12.320
38741SOL    HW218121   9.104   9.063  12.206
38742SOL     OW18122  10.905   5.448  14.759
38742SOL    HW118123  10.861   5.497  14.689
38742SOL    HW218124  10.988   5.420  14.720
38743SOL     OW18125   4.334   1.023  12.493
38743SOL    HW118126   4.353   1.055  12.582
38743SOL    HW218127   4.418   1.026  12.448
38744SOL     OW18128   9.322   1.620   7.394
38744SOL    HW118129   9.240   1.570   7.405
38744SOL    HW218130   9.379   1.587   7.463
38745SOL     OW18131   6.499   3.562  14.348
38745SOL    HW118132   6.421   3.614  14.368
38745SOL    HW218133   6.464   3.479  14.317
38746SOL     OW18134   8.135  10.822  13.434
38746SOL    HW118135   8.050  10.854  13.403
38746SOL    HW218136   8.184  10.902  13.456
38747SOL     OW18137   0.057  13.560   0.487
38747SOL    HW118138   0.115  13.585   0.415
38747SOL    HW218139   0.111  13.505   0.544
38748SOL     OW18140   0.476   0.001   1.435
38748SOL    HW118141   0.568  14.860   1.454
38748SOL    HW218142   0.480   0.087   1.394
38749SOL     OW18143  10.378   7.916  14.514
38749SOL    HW118144  10.356   7.852  14.447
38749SOL    HW218145  10.296   7.965  14.528
38750SOL     OW18146   0.345  12.074  12.655
38750SOL    HW118147   0.272  12.060  12.715
38750SOL    HW218148   0.332  12.009  12.586
38751SOL     OW18149   4.977   8.828   5.394
38751SOL    HW118150   5.042   8.790   5.453
38751SOL    HW218151   4.970   8.765   5.322
38752SOL     OW18152  13.472   9.415   2.499
38752SOL    HW118153  13.385   9.382   2.521
38752SOL    HW218154  13.462   9.450   2.410
38753SOL     OW18155   8.642  12.736   5.933
38753SOL    HW118156   8.629  12.670   5.865
38753SOL    HW218157   8.731  12.721   5.965
38754SOL     OW18158  10.701   4.989   0.811
38754SOL    HW118159  10.650   4.951   0.882
38754SOL    HW218160  10.707   4.920   0.745
38755SOL     OW18161  13.417   2.657  11.903
38755SOL    HW118162  13.436   2.727  11.965
38755SOL    HW218163  13.458   2.580  11.941
38756SOL     OW18164   2.372  11.625   4.996
38756SOL    HW118165   2.329  11.575   4.926
38756SOL    HW218166   2.398  11.707   4.955
38757SOL     OW18167  14.470   9.293   5.449
38757SOL    HW118168  14.546   9.300   5.506
38757SOL    HW218169  14.408   9.239   5.497
38758SOL     OW18170  13.560   7.850  13.288
38758SOL    HW118171  13.507   7.843  13.367
38758SOL    HW218172  13.501   7.828  13.217
38759SOL     OW18173   5.982  14.353  11.787
38759SOL    HW118174   6.015  14.269  11.754
38759SOL    HW218175   5.999  14.350  11.881
38760SOL     OW18176   8.132   5.079   7.149
38760SOL    HW118177   8.110   5.003   7.204
38760SOL    HW218178   8.204   5.048   7.093
38761SOL     OW18179  14.542  11.576   7.900
38761SOL    HW118180  14.473  11.510   7.906
38761SOL    HW218181  14.616  11.530   7.859
38762SOL     OW18182   7.368  14.578   6.321
38762SOL    HW118183   7.446  14.577   6.376
38762SOL    HW218184   7.304  14.526   6.368
38763SOL     OW18185   5.393   1.759  10.317
38763SOL    HW118186   5.308   1.785  10.283
38763SOL    HW218187   5.421   1.834  10.371
38764SOL     OW18188  12.763   3.812  13.013
38764SOL    HW118189  12.796   3.734  13.058
38764SOL    HW218190  12.674   3.822  13.047
38765SOL     OW18191   8.447  14.702  10.074
38765SOL    HW118192   8.398  14.714   9.992
38765SOL    HW218193   8.471  14.609  10.073
38766SOL     OW18194  13.475   4.845   1.478
38766SOL    HW118195  13.459   4.866   1.570
38766SOL    HW218196  13.429   4.762   1.465
38767SOL     OW18197  11.519   1.363  14.863
38767SOL    HW118198  11.463   1.301  14.815
38767SOL    HW218199  11.606   1.352  14.824
38768SOL     OW18200   2.825   0.119   0.356
38768SOL    HW118201   2.902   0.119   0.299
38768SOL    HW218202   2.770   0.048   0.324
38769SOL     OW18203  13.862   0.267   1.532
38769SOL    HW118204  13.842   0.182   1.493
38769SOL    HW218205  13.924   0.307   1.471
38770SOL     OW18206   3.197   1.611   2.611
38770SOL    HW118207   3.268   1.647   2.559
38770SOL    HW218208   3.210   1.649   2.698
38771SOL     OW18209  12.961   5.714  14.110
38771SOL    HW118210  12.900   5.736  14.180
38771SOL    HW218211  12.924   5.636  14.069
38772SOL     OW18212   3.640   5.849  13.710
38772SOL    HW118213   3.671   5.936  13.736
38772SOL    HW218214   3.710   5.789  13.736
38773SOL     OW18215  12.943   3.644   6.870
38773SOL    HW118216  12.875   3.660   6.936
38773SOL    HW218217  12.908   3.683   6.789
38774SOL     OW18218   1.160   5.986   6.849
38774SOL    HW118219   1.244   6.006   6.891
38774SOL    HW218220   1.117   6.071   6.841
38775SOL     OW18221   6.759   0.594   2.051
38775SOL    HW118222   6.777   0.503   2.074
38775SOL    HW218223   6.768   0.596   1.955
38776SOL     OW18224   3.942  14.288   4.560
38776SOL    HW118225   3.891  14.223   4.512
38776SOL    HW218226   3.985  14.239   4.629
38777SOL     OW18227   9.160   5.338  10.841
38777SOL    HW118228   9.169   5.395  10.764
38777SOL    HW218229   9.245   5.293  10.847
38778SOL     OW18230   4.131  13.815  12.784
38778SOL    HW118231   4.174  13.884  12.834
38778SOL    HW218232   4.066  13.778  12.845
38779SOL     OW18233   7.845   5.499  11.861
38779SOL    HW118234   7.832   5.404  11.865
38779SOL    HW218235   7.938   5.509  11.842
38780SOL     OW18236   5.519  13.769   6.845
38780SOL    HW118237   5.470  13.736   6.770
38780SOL    HW218238   5.610  13.743   6.828
38781SOL     OW18239   6.165  13.468   5.385
38781SOL    HW118240   6.207  13.381   5.390
38781SOL    HW218241   6.236  13.527   5.361
38782SOL     OW18242  13.860   5.042   6.494
38782SOL    HW118243  13.903   5.127   6.488
38782SOL    HW218244  13.810   5.045   6.575
38783SOL     OW18245   1.987   8.716   4.541
38783SOL    HW118246   2.059   8.701   4.602
38783SOL    HW218247   1.921   8.762   4.592
38784SOL     OW18248   3.561  12.740   0.321
38784SOL    HW118249   3.617  12.818   0.330
38784SOL    HW218250   3.601  12.676   0.379
38785SOL     OW18251   4.013   4.583   1.172
38785SOL    HW118252   3.967   4.590   1.088
38785SOL    HW218253   3.987   4.662   1.220
38786SOL     OW18254  14.663   7.595  13.835
38786SOL    HW118255  14.706   7.659  13.890
38786SOL    HW218256  14.728   7.525  13.822
38787SOL     OW18257  13.393   4.536   2.269
38787SOL    HW118258  13.364   4.463   2.324
38787SOL    HW218259  13.323   4.602   2.278
38788SOL     OW18260   8.282  10.921  14.251
38788SOL    HW118261   8.368  10.960  14.263
38788SOL    HW218262   8.294  10.828  14.272
38789SOL     OW18263  11.715  13.060   6.356
38789SOL    HW118264  11.774  13.089   6.426
38789SOL    HW218265  11.648  13.009   6.401
38790SOL     OW18266   7.273   7.145  14.361
38790SOL    HW118267   7.188   7.111  14.390
38790SOL    HW218268   7.269   7.239  14.378
38791SOL     OW18269   2.138   9.820   5.417
38791SOL    HW118270   2.214   9.861   5.376
38791SOL    HW218271   2.099   9.889   5.470
38792SOL     OW18272  10.250  13.420   9.417
38792SOL    HW118273  10.323  13.358   9.417
38792SOL    HW218274  10.204  13.404   9.499
38793SOL     OW18275  14.753  12.063  10.011
38793SOL    HW118276  14.735  12.093  10.100
38793SOL    HW218277  14.681  12.097   9.959
38794SOL     OW18278   0.256   6.126  10.106
38794SOL    HW118279   0.198   6.201  10.102
38794SOL    HW218280   0.219   6.063  10.044
38795SOL     OW18281  12.533  10.032   9.790
38795SOL    HW118282  12.582  10.038   9.708
38795SOL    HW218283  12.590   9.979   9.847
38796SOL     OW18284  12.533   1.959   7.265
38796SOL    HW118285  12.586   2.024   7.218
38796SOL    HW218286  12.596   1.912   7.320
38797SOL     OW18287  10.220   6.879   4.160
38797SOL    HW118288  10.221   6.849   4.251
38797SOL    HW218289  10.143   6.837   4.122
38798SOL     OW18290   4.033   7.016  13.028
38798SOL    HW118291   3.992   7.064  13.100
38798SOL    HW218292   3.962   6.996  12.968
38799SOL     OW18293  11.812   8.540   5.034
38799SOL    HW118294  11.819   8.495   5.118
38799SOL    HW218295  11.764   8.480   4.977
38800SOL     OW18296  12.152   8.729   3.442
38800SOL    HW118297  12.192   8.757   3.524
38800SOL    HW218298  12.217   8.751   3.375
38801SOL     OW18299  12.870  11.624  11.666
38801SOL    HW118300  12.832  11.645  11.751
38801SOL    HW218301  12.816  11.553  11.632
38802SOL     OW18302  12.757   8.925   8.798
38802SOL    HW118303  12.766   8.881   8.883
38802SOL    HW218304  12.697   8.869   8.749
38803SOL     OW18305   7.760  11.186  11.807
38803SOL    HW118306   7.727  11.110  11.758
38803SOL    HW218307   7.811  11.149  11.878
38804SOL     OW18308  14.844   6.241   6.367
38804SOL    HW118309  14.872   6.191   6.291
38804SOL    HW218310  14.820   6.175   6.432
38805SOL     OW18311   2.291   8.010  10.034
38805SOL    HW118312   2.318   8.095   9.998
38805SOL    HW218313   2.223   8.032  10.098
38806SOL     OW18314  12.499   0.513   4.675
38806SOL    HW118315  12.435   0.471   4.734
38806SOL    HW218316  12.574   0.453   4.675
38807SOL     OW18317  13.947   6.712   0.185
38807SOL    HW118318  14.024   6.678   0.139
38807SOL    HW218319  13.956   6.679   0.274
38808SOL     OW18320   4.176  12.797   3.224
38808SOL    HW118321   4.256  12.746   3.240
38808SOL    HW218322   4.116  12.735   3.184
38809SOL     OW18323   9.590   1.658   8.248
38809SOL    HW118324   9.512   1.603   8.246
38809SOL    HW218325   9.648   1.620   8.182
38810SOL     OW18326   7.980  10.257   9.701
38810SOL    HW118327   7.890  10.230   9.682
38810SOL    HW218328   7.970  10.337   9.754
38811SOL     OW18329   7.130   1.648   3.727
38811SOL    HW118330   7.211   1.693   3.703
38811SOL    HW218331   7.159   1.566   3.768
38812SOL     OW18332  13.668   2.003   2.304
38812SOL    HW118333  13.618   1.936   2.257
38812SOL    HW218334  13.637   2.086   2.267
38813SOL     OW18335  10.424  12.619   3.247
38813SOL    HW118336  10.485  12.651   3.181
38813SOL    HW218337  10.394  12.698   3.293
38814SOL     OW18338  13.128  12.419   8.227
38814SOL    HW118339  13.186  12.459   8.292
38814SOL    HW218340  13.040  12.448   8.252
38815SOL     OW18341  12.479   5.956  13.994
38815SOL    HW118342  12.504   5.891  13.928
38815SOL    HW218343  12.541   6.028  13.981
38816SOL     OW18344   2.582   2.134   1.534
38816SOL    HW118345   2.522   2.149   1.460
38816SOL    HW218346   2.595   2.039   1.535
38817SOL     OW18347   6.975  12.544   5.439
38817SOL    HW118348   7.058  12.589   5.429
38817SOL    HW218349   6.911  12.603   5.399
38818SOL     OW18350  11.536   7.689   8.223
38818SOL    HW118351  11.552   7.615   8.164
38818SOL    HW218352  11.442   7.683   8.243
38819SOL     OW18353   6.967   5.749  11.303
38819SOL    HW118354   7.001   5.660  11.310
38819SOL    HW218355   6.995   5.778  11.216
38820SOL     OW18356  14.480   8.533   2.448
38820SOL    HW118357  14.484   8.628   2.446
38820SOL    HW218358  14.398   8.514   2.495
38821SOL     OW18359   8.563   9.577   8.650
38821SOL    HW118360   8.574   9.482   8.653
38821SOL    HW218361   8.587   9.607   8.738
38822SOL     OW18362   9.478   2.889   9.266
38822SOL    HW118363   9.461   2.807   9.218
38822SOL    HW218364   9.431   2.878   9.349
38823SOL     OW18365   9.964   0.702  12.957
38823SOL    HW118366   9.885   0.738  12.998
38823SOL    HW218367   9.958   0.608  12.971
38824SOL     OW18368  10.402   7.995  12.024
38824SOL    HW118369  10.477   8.051  12.042
38824SOL    HW218370  10.344   8.048  11.969
38825SOL     OW18371   2.589  13.005  11.501
38825SOL    HW118372   2.651  12.952  11.451
38825SOL    HW218373   2.594  12.970  11.590
38826SOL     OW18374   8.104   3.020   4.338
38826SOL    HW118375   8.029   3.027   4.279
38826SOL    HW218376   8.073   2.963   4.409
38827SOL     OW18377   1.038   8.600   0.069
38827SOL    HW118378   1.046   8.694   0.058
38827SOL    HW218379   1.086   8.562  14.875
38828SOL     OW18380   9.965  11.029  11.529
38828SOL    HW118381   9.984  10.953  11.473
38828SOL    HW218382   9.887  11.004  11.578
38829SOL     OW18383   5.935  13.792  11.744
38829SOL    HW118384   5.866  13.859  11.749
38829SOL    HW218385   5.986  13.805  11.824
38830SOL     OW18386   3.906   9.020   7.134
38830SOL    HW118387   3.922   9.020   7.039
38830SOL    HW218388   3.921   9.110   7.161
38831SOL     OW18389   4.910   4.925   1.878
38831SOL    HW118390   4.960   4.862   1.826
38831SOL    HW218391   4.825   4.931   1.833
38832SOL     OW18392  12.379  12.745  14.608
38832SOL    HW118393  12.327  12.720  14.532
38832SOL    HW218394  12.440  12.811  14.576
38833SOL     OW18395  11.218  10.961   3.041
38833SOL    HW118396  11.284  10.938   2.975
38833SOL    HW218397  11.198  10.878   3.084
38834SOL     OW18398   5.998  10.797  14.838
38834SOL    HW118399   6.077  10.765   0.002
38834SOL    HW218400   5.935  10.725  14.846
38835SOL     OW18401   7.054  10.385   8.151
38835SOL    HW118402   7.036  10.459   8.209
38835SOL    HW218403   7.004  10.312   8.189
38836SOL     OW18404   7.830  12.538  13.885
38836SOL    HW118405   7.753  12.506  13.838
38836SOL    HW218406   7.812  12.630  13.901
38837SOL     OW18407  13.495  10.037   1.360
38837SOL    HW118408  13.479  10.130   1.371
38837SOL    HW218409  13.438  10.011   1.288
38838SOL     OW18410  10.495   4.448   0.150
38838SOL    HW118411  10.533   4.419   0.233
38838SOL    HW218412  10.561   4.425   0.084
38839SOL     OW18413  13.918   7.468   4.494
38839SOL    HW118414  13.917   7.429   4.406
38839SOL    HW218415  13.887   7.558   4.480
38840SOL     OW18416   6.468  13.868   1.846
38840SOL    HW118417   6.405  13.869   1.918
38840SOL    HW218418   6.508  13.954   1.848
38841SOL     OW18419   8.892   7.091   9.885
38841SOL    HW118420   8.848   7.010   9.861
38841SOL    HW218421   8.972   7.064   9.929
38842SOL     OW18422  14.131  13.384  13.094
38842SOL    HW118423  14.205  13.326  13.110
38842SOL    HW218424  14.147  13.460  13.151
38843SOL     OW18425   7.026   3.654  12.185
38843SOL    HW118426   7.008   3.740  12.146
38843SOL    HW218427   6.970   3.594  12.136
38844SOL     OW18428   0.722   7.413  10.362
38844SOL    HW118429   0.778   7.387  10.289
38844SOL    HW218430   0.742   7.350  10.431
38845SOL     OW18431   5.142   2.658   9.784
38845SOL    HW118432   5.096   2.637   9.702
38845SOL    HW218433   5.172   2.573   9.816
38846SOL     OW18434  11.342   0.323   8.734
38846SOL    HW118435  11.271   0.368   8.688
38846SOL    HW218436  11.331   0.231   8.711
38847SOL     OW18437  13.976   2.965   8.515
38847SOL    HW118438  14.050   3.022   8.536
38847SOL    HW218439  13.899   3.017   8.537
38848SOL     OW18440  12.652   3.105   3.445
38848SOL    HW118441  12.634   3.119   3.538
38848SOL    HW218442  12.573   3.134   3.400
38849SOL     OW18443   8.494   4.990  13.136
38849SOL    HW118444   8.414   4.951  13.174
38849SOL    HW218445   8.538   4.916  13.094
38850SOL     OW18446   4.890   9.134   0.517
38850SOL    HW118447   4.911   9.099   0.430
38850SOL    HW218448   4.891   9.058   0.574
38851SOL     OW18449  10.601  12.334   2.253
38851SOL    HW118450  10.691  12.334   2.220
38851SOL    HW218451  10.604  12.393   2.329
38852SOL     OW18452  14.614   6.213  12.748
38852SOL    HW118453  14.567   6.143  12.703
38852SOL    HW218454  14.561   6.231  12.826
38853SOL     OW18455  13.157   6.484   8.779
38853SOL    HW118456  13.251   6.494   8.795
38853SOL    HW218457  13.151   6.466   8.685
38854SOL     OW18458  11.624   0.196  14.440
38854SOL    HW118459  11.655   0.267  14.384
38854SOL    HW218460  11.549   0.234  14.486
38855SOL     OW18461  12.441   8.506   0.126
38855SOL    HW118462  12.380   8.436   0.150
38855SOL    HW218463  12.527   8.473   0.154
38856SOL     OW18464   0.688   8.377   3.865
38856SOL    HW118465   0.737   8.449   3.827
38856SOL    HW218466   0.633   8.417   3.932
38857SOL     OW18467   1.422   0.299  12.927
38857SOL    HW118468   1.451   0.225  12.981
38857SOL    HW218469   1.504   0.339  12.896
38858SOL     OW18470   5.652   7.418   8.347
38858SOL    HW118471   5.575   7.364   8.364
38858SOL    HW218472   5.618   7.496   8.304
38859SOL     OW18473   0.006   9.481   0.643
38859SOL    HW118474  14.869   9.450   0.554
38859SOL    HW218475   0.030   9.401   0.691
38860SOL     OW18476  12.597  13.949   7.845
38860SOL    HW118477  12.651  13.879   7.881
38860SOL    HW218478  12.619  13.950   7.752
38861SOL     OW18479   8.627   2.828   4.905
38861SOL    HW118480   8.618   2.909   4.853
38861SOL    HW218481   8.541   2.814   4.943
38862SOL     OW18482   6.075   4.927  12.499
38862SOL    HW118483   6.161   4.884  12.502
38862SOL    HW218484   6.055   4.945  12.591
38863SOL     OW18485  12.700   5.514  12.913
38863SOL    HW118486  12.679   5.574  12.985
38863SOL    HW218487  12.751   5.444  12.955
38864SOL     OW18488   5.122   2.962   1.336
38864SOL    HW118489   5.199   2.956   1.279
38864SOL    HW218490   5.050   2.986   1.278
38865SOL     OW18491   8.023  12.535   8.971
38865SOL    HW118492   7.948  12.492   8.930
38865SOL    HW218493   7.995  12.549   9.062
38866SOL     OW18494   0.135  11.163   8.099
38866SOL    HW118495   0.069  11.098   8.123
38866SOL    HW218496   0.185  11.121   8.029
38867SOL     OW18497  12.425   9.748   8.003
38867SOL    HW118498  12.453   9.716   8.089
38867SOL    HW218499  12.503   9.739   7.947
38868SOL     OW18500   5.219  11.940  11.302
38868SOL    HW118501   5.223  11.871  11.368
38868SOL    HW218502   5.301  11.988  11.313
38869SOL     OW18503  10.144   9.193   1.620
38869SOL    HW118504  10.173   9.152   1.702
38869SOL    HW218505  10.111   9.119   1.567
38870SOL     OW18506   3.550   4.208   2.184
38870SOL    HW118507   3.616   4.276   2.197
38870SOL    HW218508   3.596   4.126   2.197
38871SOL     OW18509  14.216   3.404   2.046
38871SOL    HW118510  14.135   3.384   1.999
38871SOL    HW218511  14.255   3.319   2.065
38872SOL     OW18512   4.365   9.568   0.959
38872SOL    HW118513   4.432   9.635   0.943
38872SOL    HW218514   4.393   9.525   1.040
38873SOL     OW18515  12.782   3.786  14.673
38873SOL    HW118516  12.779   3.793  14.577
38873SOL    HW218517  12.704   3.832  14.703
38874SOL     OW18518   8.213  12.022  11.358
38874SOL    HW118519   8.192  12.111  11.383
38874SOL    HW218520   8.169  12.008  11.275
38875SOL     OW18521   4.160   0.809   7.773
38875SOL    HW118522   4.225   0.867   7.812
38875SOL    HW218523   4.210   0.733   7.742
38876SOL     OW18524   6.579   7.339  10.500
38876SOL    HW118525   6.543   7.425  10.525
38876SOL    HW218526   6.528   7.276  10.551
38877SOL     OW18527  14.610   9.848   8.842
38877SOL    HW118528  14.651   9.765   8.818
38877SOL    HW218529  14.615   9.852   8.937
38878SOL     OW18530  11.544  14.540   8.200
38878SOL    HW118531  11.491  14.619   8.199
38878SOL    HW218532  11.518  14.492   8.122
38879SOL     OW18533  13.410   2.164  12.344
38879SOL    HW118534  13.482   2.107  12.371
38879SOL    HW218535  13.341   2.105  12.315
38880SOL     OW18536  14.023   3.996   0.658
38880SOL    HW118537  14.028   4.049   0.737
38880SOL    HW218538  14.103   3.944   0.659
38881SOL     OW18539  12.881   9.076  14.752
38881SOL    HW118540  12.833   8.994  14.759
38881SOL    HW218541  12.902   9.084  14.659
38882SOL     OW18542  14.476   9.726  12.438
38882SOL    HW118543  14.454   9.645  12.391
38882SOL    HW218544  14.518   9.781  12.372
38883SOL     OW18545   0.404   2.026   3.904
38883SOL    HW118546   0.357   2.059   3.981
38883SOL    HW218547   0.411   2.102   3.846
38884SOL     OW18548  14.184  13.497  10.002
38884SOL    HW118549  14.173  13.591  10.015
38884SOL    HW218550  14.105  13.469   9.956
38885SOL     OW18551   2.582   1.772  10.149
38885SOL    HW118552   2.608   1.861  10.126
38885SOL    HW218553   2.622   1.756  10.235
38886SOL     OW18554  14.609  13.524   8.699
38886SOL    HW118555  14.565  13.509   8.616
38886SOL    HW218556  14.686  13.577   8.676
38887SOL     OW18557  11.758  12.451  12.883
38887SOL    HW118558  11.706  12.388  12.834
38887SOL    HW218559  11.807  12.398  12.945
38888SOL     OW18560  11.301   7.061   2.885
38888SOL    HW118561  11.306   6.988   2.823
38888SOL    HW218562  11.376   7.117   2.862
38889SOL     OW18563   9.511   7.039  13.450
38889SOL    HW118564   9.539   7.130  13.462
38889SOL    HW218565   9.592   6.991  13.432
38890SOL     OW18566   2.293   1.590   6.919
38890SOL    HW118567   2.220   1.650   6.935
38890SOL    HW218568   2.370   1.638   6.949
38891SOL     OW18569   8.258   0.722   9.586
38891SOL    HW118570   8.165   0.745   9.582
38891SOL    HW218571   8.303   0.800   9.553
38892SOL     OW18572   2.329  11.457  11.019
38892SOL    HW118573   2.350  11.532  11.075
38892SOL    HW218574   2.265  11.491  10.956
38893SOL     OW18575   1.816   4.946   7.704
38893SOL    HW118576   1.803   4.919   7.795
38893SOL    HW218577   1.837   5.040   7.710
38894SOL     OW18578   0.445  10.156   6.565
38894SOL    HW118579   0.521  10.121   6.518
38894SOL    HW218580   0.385  10.082   6.571
38895SOL     OW18581   8.790   1.168   3.519
38895SOL    HW118582   8.852   1.210   3.461
38895SOL    HW218583   8.778   1.080   3.482
38896SOL     OW18584   8.399   5.991   4.306
38896SOL    HW118585   8.449   6.063   4.266
38896SOL    HW218586   8.340   6.034   4.368
38897SOL     OW18587  10.976  14.731   4.493
38897SOL    HW118588  11.014  14.711   4.579
38897SOL    HW218589  11.052  14.748   4.437
38898SOL     OW18590   2.653  11.819   3.957
38898SOL    HW118591   2.692  11.833   3.871
38898SOL    HW218592   2.690  11.888   4.012
38899SOL     OW18593  14.534   2.144   7.312
38899SOL    HW118594  14.438   2.140   7.318
38899SOL    HW218595  14.558   2.066   7.264
38900SOL     OW18596  12.165   5.968   2.104
38900SOL    HW118597  12.254   5.996   2.125
38900SOL    HW218598  12.176   5.885   2.057
38901SOL     OW18599  10.992   3.228   7.923
38901SOL    HW118600  11.015   3.140   7.953
38901SOL    HW218601  11.066   3.282   7.950
38902SOL     OW18602   5.920  12.528   0.647
38902SOL    HW118603   5.950  12.449   0.690
38902SOL    HW218604   5.913  12.505   0.555
38903SOL     OW18605  13.283   1.071  13.156
38903SOL    HW118606  13.252   1.115  13.235
38903SOL    HW218607  13.263   1.132  13.085
38904SOL     OW18608   1.261  14.209   4.468
38904SOL    HW118609   1.322  14.279   4.490
38904SOL    HW218610   1.204  14.246   4.401
38905SOL     OW18611   0.169   4.091  12.327
38905SOL    HW118612   0.155   4.156  12.258
38905SOL    HW218613   0.121   4.014  12.297
38906SOL     OW18614  12.989   0.560  14.176
38906SOL    HW118615  12.940   0.546  14.257
38906SOL    HW218616  12.982   0.654  14.160
38907SOL     OW18617  13.123  11.934   9.341
38907SOL    HW118618  13.094  12.011   9.390
38907SOL    HW218619  13.132  11.964   9.251
38908SOL     OW18620   1.148   2.536  11.087
38908SOL    HW118621   1.127   2.615  11.038
38908SOL    HW218622   1.081   2.531  11.155
38909SOL     OW18623   8.493   2.229   3.635
38909SOL    HW118624   8.549   2.175   3.579
38909SOL    HW218625   8.459   2.296   3.577
38910SOL     OW18626  11.909   9.425  11.956
38910SOL    HW118627  11.866   9.343  11.931
38910SOL    HW218628  11.910   9.477  11.875
38911SOL     OW18629   6.598   1.695   5.010
38911SOL    HW118630   6.542   1.743   5.070
38911SOL    HW218631   6.555   1.702   4.925
38912SOL     OW18632  11.316   3.478  13.759
38912SOL    HW118633  11.234   3.526  13.749
38912SOL    HW218634  11.351   3.507  13.844
38913SOL     OW18635  14.160  10.624   6.030
38913SOL    HW118636  14.108  10.662   5.958
38913SOL    HW218637  14.219  10.563   5.986
38914SOL     OW18638   9.526  13.299   9.470
38914SOL    HW118639   9.560  13.246   9.398
38914SOL    HW218640   9.443  13.257   9.494
38915SOL     OW18641  12.334   9.728   1.936
38915SOL    HW118642  12.331   9.714   1.842
38915SOL    HW218643  12.370   9.816   1.946
38916SOL     OW18644   1.335   1.294   7.810
38916SOL    HW118645   1.272   1.362   7.834
38916SOL    HW218646   1.287   1.212   7.821
38917SOL     OW18647   7.642  10.215   3.560
38917SOL    HW118648   7.668  10.288   3.505
38917SOL    HW218649   7.578  10.166   3.508
38918SOL     OW18650  10.591   1.104   3.272
38918SOL    HW118651  10.596   1.044   3.197
38918SOL    HW218652  10.508   1.083   3.314
38919SOL     OW18653   4.285  14.661   5.335
38919SOL    HW118654   4.330  14.744   5.320
38919SOL    HW218655   4.194  14.679   5.309
38920SOL     OW18656   6.368  14.509  12.152
38920SOL    HW118657   6.413  14.427  12.135
38920SOL    HW218658   6.310  14.490  12.226
38921SOL     OW18659   6.733   1.889   4.411
38921SOL    HW118660   6.794   1.820   4.385
38921SOL    HW218661   6.748   1.902   4.504
38922SOL     OW18662   3.326  13.004   0.808
38922SOL    HW118663   3.411  13.030   0.844
38922SOL    HW218664   3.347  12.968   0.722
38923SOL     OW18665  11.438  11.910   9.997
38923SOL    HW118666  11.440  11.815   9.983
38923SOL    HW218667  11.499  11.925  10.069
38924SOL     OW18668   7.273   8.765   5.644
38924SOL    HW118669   7.286   8.760   5.739
38924SOL    HW218670   7.341   8.825   5.614
38925SOL     OW18671  12.459   5.153  11.622
38925SOL    HW118672  12.405   5.162  11.543
38925SOL    HW218673  12.510   5.234  11.625
38926SOL     OW18674  12.749   9.518   5.677
38926SOL    HW118675  12.679   9.462   5.711
38926SOL    HW218676  12.823   9.501   5.736
38927SOL     OW18677  10.234   7.650  11.248
38927SOL    HW118678  10.239   7.571  11.302
38927SOL    HW218679  10.151   7.690  11.272
38928SOL     OW18680  14.606   0.024   6.259
38928SOL    HW118681  14.687   0.025   6.309
38928SOL    HW218682  14.547   0.083   6.306
38929SOL     OW18683   3.994   5.694  14.396
38929SOL    HW118684   4.061   5.730  14.338
38929SOL    HW218685   3.927   5.660  14.336
38930SOL     OW18686   1.967   3.453  10.588
38930SOL    HW118687   1.992   3.390  10.656
38930SOL    HW218688   1.942   3.532  10.637
38931SOL     OW18689   5.325  10.135   1.674
38931SOL    HW118690   5.236  10.147   1.639
38931SOL    HW218691   5.327  10.044   1.704
38932SOL     OW18692   7.662   9.313  12.656
38932SOL    HW118693   7.697   9.382  12.712
38932SOL    HW218694   7.707   9.326  12.572
38933SOL     OW18695   3.031   5.320   3.986
38933SOL    HW118696   3.113   5.329   3.936
38933SOL    HW218697   2.964   5.306   3.919
38934SOL     OW18698   3.629   3.862   4.745
38934SOL    HW118699   3.575   3.923   4.695
38934SOL    HW218700   3.701   3.915   4.779
38935SOL     OW18701   4.769   6.131   7.972
38935SOL    HW118702   4.736   6.116   8.061
38935SOL    HW218703   4.691   6.126   7.917
38936SOL     OW18704   0.450   5.528   0.940
38936SOL    HW118705   0.483   5.488   1.020
38936SOL    HW218706   0.515   5.595   0.918
38937SOL     OW18707  13.655   6.863   1.486
38937SOL    HW118708  13.663   6.796   1.553
38937SOL    HW218709  13.723   6.843   1.423
38938SOL     OW18710   3.249  11.684  12.052
38938SOL    HW118711   3.197  11.609  12.023
38938SOL    HW218712   3.340  11.657  12.037
38939SOL     OW18713   4.671   8.454   0.873
38939SOL    HW118714   4.614   8.530   0.869
38939SOL    HW218715   4.621   8.383   0.833
38940SOL     OW18716   6.977  14.831   8.155
38940SOL    HW118717   6.928  14.767   8.103
38940SOL    HW218718   7.041  14.779   8.203
38941SOL     OW18719  12.789  14.009  10.509
38941SOL    HW118720  12.866  13.958  10.534
38941SOL    HW218721  12.820  14.066  10.438
38942SOL     OW18722   4.612  10.996   4.970
38942SOL    HW118723   4.667  11.068   4.938
38942SOL    HW218724   4.523  11.031   4.967
38943SOL     OW18725   4.442   5.859   6.759
38943SOL    HW118726   4.379   5.799   6.798
38943SOL    HW218727   4.497   5.888   6.833
38944SOL     OW18728   4.263   4.503   8.714
38944SOL    HW118729   4.300   4.488   8.627
38944SOL    HW218730   4.244   4.597   8.716
38945SOL     OW18731  14.719  13.686   1.557
38945SOL    HW118732  14.799  13.732   1.583
38945SOL    HW218733  14.746  13.595   1.548
38946SOL     OW18734   0.333   8.048   8.064
38946SOL    HW118735   0.360   7.978   8.123
38946SOL    HW218736   0.307   8.120   8.122
38947SOL     OW18737   4.421   4.235   3.353
38947SOL    HW118738   4.413   4.145   3.385
38947SOL    HW218739   4.510   4.241   3.319
38948SOL     OW18740   4.481  12.851   5.401
38948SOL    HW118741   4.533  12.776   5.374
38948SOL    HW218742   4.424  12.869   5.327
38949SOL     OW18743  12.763   0.665   2.117
38949SOL    HW118744  12.819   0.742   2.124
38949SOL    HW218745  12.680   0.691   2.158
38950SOL     OW18746  13.279   9.774   1.700
38950SOL    HW118747  13.222   9.824   1.642
38950SOL    HW218748  13.225   9.701   1.730
38951SOL     OW18749   8.023   1.856   5.634
38951SOL    HW118750   8.014   1.798   5.710
38951SOL    HW218751   7.950   1.831   5.576
38952SOL     OW18752   3.368   3.624   7.168
38952SOL    HW118753   3.459   3.613   7.195
38952SOL    HW218754   3.318   3.581   7.237
38953SOL     OW18755  10.534  11.668   6.967
38953SOL    HW118756  10.517  11.715   7.049
38953SOL    HW218757  10.471  11.704   6.905
38954SOL     OW18758  14.642   9.053   6.744
38954SOL    HW118759  14.552   9.082   6.757
38954SOL    HW218760  14.641   8.960   6.768
38955SOL     OW18761   1.596   5.500  13.392
38955SOL    HW118762   1.674   5.445  13.385
38955SOL    HW218763   1.630   5.589  13.397
38956SOL     OW18764   0.579   5.587  13.496
38956SOL    HW118765   0.638   5.548  13.431
38956SOL    HW218766   0.584   5.528  13.571
38957SOL     OW18767   4.856   3.057   8.149
38957SOL    HW118768   4.838   3.004   8.071
38957SOL    HW218769   4.905   3.132   8.116
38958SOL     OW18770  13.679   2.843  10.092
38958SOL    HW118771  13.712   2.898  10.021
38958SOL    HW218772  13.743   2.853  10.162
38959SOL     OW18773   5.746   5.458   0.177
38959SOL    HW118774   5.672   5.513   0.202
38959SOL    HW218775   5.706   5.384   0.131
38960SOL     OW18776   8.900  13.896   3.879
38960SOL    HW118777   8.846  13.909   3.958
38960SOL    HW218778   8.948  13.978   3.869
38961SOL     OW18779   8.538   7.580   0.823
38961SOL    HW118780   8.578   7.615   0.903
38961SOL    HW218781   8.523   7.658   0.769
38962SOL     OW18782   0.557   8.026  10.962
38962SOL    HW118783   0.604   8.106  10.939
38962SOL    HW218784   0.540   8.034  11.056
38963SOL     OW18785   5.312   8.143   5.767
38963SOL    HW118786   5.217   8.142   5.776
38963SOL    HW218787   5.328   8.162   5.674
38964SOL     OW18788   3.855   2.778  11.733
38964SOL    HW118789   3.777   2.726  11.752
38964SOL    HW218790   3.892   2.799  11.819
38965SOL     OW18791   5.591   2.187   3.463
38965SOL    HW118792   5.643   2.118   3.422
38965SOL    HW218793   5.655   2.237   3.515
38966SOL     OW18794   7.597  11.724  13.071
38966SOL    HW118795   7.685  11.754  13.050
38966SOL    HW218796   7.584  11.647  13.016
38967SOL     OW18797   8.978  14.041  11.830
38967SOL    HW118798   8.914  14.000  11.888
38967SOL    HW218799   9.048  14.071  11.888
38968SOL     OW18800  10.108   2.388   3.431
38968SOL    HW118801  10.042   2.439   3.383
38968SOL    HW218802  10.181   2.449   3.442
38969SOL     OW18803   7.693   3.906   2.900
38969SOL    HW118804   7.742   3.952   2.831
38969SOL    HW218805   7.757   3.846   2.938
38970SOL     OW18806  10.563  14.531  12.526
38970SOL    HW118807  10.596  14.608  12.480
38970SOL    HW218808  10.632  14.466  12.516
38971SOL     OW18809  12.356   8.208   1.998
38971SOL    HW118810  12.411   8.286   2.001
38971SOL    HW218811  12.359   8.173   2.087
38972SOL     OW18812  11.519  10.363   3.502
38972SOL    HW118813  11.444  10.401   3.456
38972SOL    HW218814  11.595  10.386   3.448
38973SOL     OW18815   2.943   0.586   0.073
38973SOL    HW118816   2.940   0.669   0.119
38973SOL    HW218817   3.036   0.567   0.063
38974SOL     OW18818   8.643  11.980   9.536
38974SOL    HW118819   8.685  11.929   9.467
38974SOL    HW218820   8.553  11.948   9.539
38975SOL     OW18821   7.341   9.774  11.573
38975SOL    HW118822   7.396   9.772  11.651
38975SOL    HW218823   7.257   9.809  11.603
38976SOL     OW18824  12.745  11.434   5.327
38976SOL    HW118825  12.707  11.386   5.253
38976SOL    HW218826  12.766  11.367   5.391
38977SOL     OW18827  10.905  12.403   7.040
38977SOL    HW118828  10.837  12.412   6.973
38977SOL    HW218829  10.980  12.365   6.994
38978SOL     OW18830  10.871  10.582   4.875
38978SOL    HW118831  10.940  10.534   4.922
38978SOL    HW218832  10.883  10.556   4.783
38979SOL     OW18833  13.223  10.107   3.882
38979SOL    HW118834  13.230  10.153   3.966
38979SOL    HW218835  13.208  10.016   3.905
38980SOL     OW18836   8.573   3.910  12.867
38980SOL    HW118837   8.546   3.834  12.919
38980SOL    HW218838   8.565   3.881  12.776
38981SOL     OW18839  14.511   1.435   4.002
38981SOL    HW118840  14.523   1.400   3.914
38981SOL    HW218841  14.429   1.395   4.032
38982SOL     OW18842  12.473  13.618   1.116
38982SOL    HW118843  12.546  13.567   1.081
38982SOL    HW218844  12.453  13.577   1.201
38983SOL     OW18845   3.950   3.447   5.350
38983SOL    HW118846   3.878   3.498   5.386
38983SOL    HW218847   4.029   3.491   5.381
38984SOL     OW18848  10.993   4.965   7.974
38984SOL    HW118849  11.048   5.031   7.934
38984SOL    HW218850  10.919   5.014   8.010
38985SOL     OW18851   0.637   1.323  10.308
38985SOL    HW118852   0.691   1.385  10.259
38985SOL    HW218853   0.630   1.362  10.396
38986SOL     OW18854   0.639   4.266  11.623
38986SOL    HW118855   0.703   4.195  11.626
38986SOL    HW218856   0.591   4.251  11.541
38987SOL     OW18857   4.284   0.856   5.076
38987SOL    HW118858   4.329   0.897   5.149
38987SOL    HW218859   4.350   0.800   5.035
38988SOL     OW18860  14.220   5.139   9.592
38988SOL    HW118861  14.240   5.085   9.515
38988SOL    HW218862  14.128   5.120   9.611
38989SOL     OW18863  10.310   1.370  10.211
38989SOL    HW118864  10.266   1.454  10.228
38989SOL    HW218865  10.342   1.378  10.121
38990SOL     OW18866   8.749  12.180   5.793
38990SOL    HW118867   8.808  12.133   5.733
38990SOL    HW218868   8.724  12.115   5.858
38991SOL     OW18869   1.384   8.527   9.159
38991SOL    HW118870   1.369   8.461   9.227
38991SOL    HW218871   1.375   8.611   9.205
38992SOL     OW18872  12.168   6.421   9.036
38992SOL    HW118873  12.183   6.379   9.121
38992SOL    HW218874  12.085   6.386   9.006
38993SOL     OW18875   4.793  14.124   9.799
38993SOL    HW118876   4.806  14.111   9.705
38993SOL    HW218877   4.842  14.203   9.820
38994SOL     OW18878  12.174  14.679   8.509
38994SOL    HW118879  12.084  14.709   8.517
38994SOL    HW218880  12.167  14.587   8.483
38995SOL     OW18881   6.236  13.391   7.710
38995SOL    HW118882   6.178  13.370   7.783
38995SOL    HW218883   6.253  13.485   7.718
38996SOL     OW18884   8.501   3.643   3.085
38996SOL    HW118885   8.437   3.620   3.153
38996SOL    HW218886   8.453   3.698   3.024
38997SOL     OW18887   1.163   4.037   5.273
38997SOL    HW118888   1.124   4.028   5.187
38997SOL    HW218889   1.257   4.045   5.256
38998SOL     OW18890   2.073  10.652   6.289
38998SOL    HW118891   2.084  10.741   6.322
38998SOL    HW218892   1.983  10.649   6.257
38999SOL     OW18893  10.343   3.601   3.654
38999SOL    HW118894  10.320   3.570   3.566
38999SOL    HW218895  10.291   3.546   3.712
39000SOL     OW18896   6.396  13.779  10.557
39000SOL    HW118897   6.393  13.807  10.649
39000SOL    HW218898   6.311  13.739  10.542
39001SOL     OW18899   6.279   5.842   6.751
39001SOL    HW118900   6.248   5.810   6.666
39001SOL    HW218901   6.200   5.868   6.798
39002SOL     OW18902  12.050   9.667   5.857
39002SOL    HW118903  11.973   9.690   5.804
39002SOL    HW218904  12.091   9.751   5.878
39003SOL     OW18905   4.370  12.653   4.757
39003SOL    HW118906   4.279  12.683   4.758
39003SOL    HW218907   4.380  12.604   4.838
39004SOL     OW18908   7.318  10.961   0.270
39004SOL    HW118909   7.337  11.019   0.196
39004SOL    HW218910   7.231  10.987   0.301
39005SOL     OW18911   2.893   5.538   0.268
39005SOL    HW118912   2.971   5.486   0.289
39005SOL    HW218913   2.829   5.474   0.239
39006SOL     OW18914   5.763   1.230   7.985
39006SOL    HW118915   5.835   1.167   7.977
39006SOL    HW218916   5.694   1.195   7.927
39007SOL     OW18917   4.526  14.874   8.091
39007SOL    HW118918   4.546  14.871   8.185
39007SOL    HW218919   4.431  14.861   8.087
39008SOL     OW18920   7.449   9.319   8.683
39008SOL    HW118921   7.353   9.317   8.681
39008SOL    HW218922   7.475   9.231   8.657
39009SOL     OW18923  11.642  11.756   0.621
39009SOL    HW118924  11.629  11.791   0.533
39009SOL    HW218925  11.604  11.668   0.618
39010SOL     OW18926   8.527   0.295  10.003
39010SOL    HW118927   8.535   0.383  10.038
39010SOL    HW218928   8.563   0.300   9.914
39011SOL     OW18929  13.589  12.714  10.356
39011SOL    HW118930  13.597  12.682  10.446
39011SOL    HW218931  13.608  12.637  10.302
39012SOL     OW18932  12.411   0.359   9.494
39012SOL    HW118933  12.427   0.266   9.507
39012SOL    HW218934  12.435   0.400   9.577
39013SOL     OW18935   1.229   4.657   8.725
39013SOL    HW118936   1.197   4.611   8.648
39013SOL    HW218937   1.151   4.697   8.764
39014SOL     OW18938  13.249   5.028   4.278
39014SOL    HW118939  13.331   5.077   4.274
39014SOL    HW218940  13.238   4.990   4.191
39015SOL     OW18941   7.263   0.666   2.913
39015SOL    HW118942   7.171   0.657   2.939
39015SOL    HW218943   7.294   0.742   2.961
39016SOL     OW18944  10.265  11.169   8.037
39016SOL    HW118945  10.259  11.110   7.962
39016SOL    HW218946  10.304  11.249   8.002
39017SOL     OW18947  13.517   6.306  13.843
39017SOL    HW118948  13.546   6.392  13.874
39017SOL    HW218949  13.473   6.267  13.919
39018SOL     OW18950   2.889   5.323   1.796
39018SOL    HW118951   2.896   5.304   1.889
39018SOL    HW218952   2.945   5.257   1.754
39019SOL     OW18953   5.824  10.300   8.034
39019SOL    HW118954   5.879  10.313   8.111
39019SOL    HW218955   5.832  10.382   7.985
39020SOL     OW18956  11.012   6.008   8.698
39020SOL    HW118957  10.930   6.048   8.726
39020SOL    HW218958  10.986   5.942   8.634
39021SOL     OW18959  13.076   2.710   5.532
39021SOL    HW118960  13.076   2.617   5.507
39021SOL    HW218961  12.984   2.736   5.526
39022SOL     OW18962   1.460   5.684   2.754
39022SOL    HW118963   1.511   5.724   2.684
39022SOL    HW218964   1.426   5.758   2.804
39023SOL     OW18965  11.660   7.348   7.752
39023SOL    HW118966  11.614   7.265   7.739
39023SOL    HW218967  11.735   7.325   7.807
39024SOL     OW18968  10.916   4.853   8.887
39024SOL    HW118969  10.926   4.933   8.939
39024SOL    HW218970  10.915   4.783   8.952
39025SOL     OW18971  11.817   3.071   2.155
39025SOL    HW118972  11.751   3.127   2.196
39025SOL    HW218973  11.883   3.132   2.122
39026SOL     OW18974   0.035   1.967   5.341
39026SOL    HW118975   0.009   1.879   5.316
39026SOL    HW218976   0.126   1.958   5.370
39027SOL     OW18977   9.562   5.660   3.021
39027SOL    HW118978   9.475   5.672   2.984
39027SOL    HW218979   9.562   5.569   3.052
39028SOL     OW18980   4.375  12.432   0.982
39028SOL    HW118981   4.435  12.506   0.984
39028SOL    HW218982   4.421  12.362   1.029
39029SOL     OW18983   2.475   1.352  13.296
39029SOL    HW118984   2.491   1.300  13.375
39029SOL    HW218985   2.393   1.317  13.261
39030SOL     OW18986   3.265  11.384   6.830
39030SOL    HW118987   3.172  11.388   6.808
39030SOL    HW218988   3.304  11.333   6.760
39031SOL     OW18989   7.423   1.685   6.006
39031SOL    HW118990   7.484   1.648   5.942
39031SOL    HW218991   7.391   1.610   6.056
39032SOL     OW18992   7.152  12.316  10.767
39032SOL    HW118993   7.154  12.400  10.720
39032SOL    HW218994   7.059  12.293  10.770
39033SOL     OW18995  10.724   1.327  14.331
39033SOL    HW118996  10.708   1.236  14.302
39033SOL    HW218997  10.661   1.340  14.402
39034SOL     OW18998   6.963   3.775  11.102
39034SOL    HW118999   6.887   3.791  11.158
39034SOL    HW219000   7.015   3.855  11.108
39035SOL     OW19001   4.925   5.366   3.759
39035SOL    HW119002   4.833   5.364   3.732
39035SOL    HW219003   4.933   5.296   3.824
39036SOL     OW19004   9.009   0.853   6.558
39036SOL    HW119005   9.010   0.946   6.583
39036SOL    HW219006   8.923   0.822   6.586
39037SOL     OW19007   4.667  10.303   7.861
39037SOL    HW119008   4.759  10.331   7.865
39037SOL    HW219009   4.626  10.343   7.938
39038SOL     OW19010   6.124   2.471   3.168
39038SOL    HW119011   6.039   2.516   3.164
39038SOL    HW219012   6.147   2.471   3.261
39039SOL     OW19013  10.145   3.557   9.473
39039SOL    HW119014  10.177   3.601   9.394
39039SOL    HW219015  10.051   3.543   9.457
39040SOL     OW19016   3.947   0.439   5.207
39040SOL    HW119017   4.036   0.404   5.218
39040SOL    HW219018   3.960   0.534   5.203
39041SOL     OW19019   5.032  10.523  14.390
39041SOL    HW119020   5.117  10.484  14.412
39041SOL    HW219021   5.002  10.471  14.316
39042SOL     OW19022  11.066   9.508  10.753
39042SOL    HW119023  11.079   9.446  10.825
39042SOL    HW219024  11.100   9.591  10.787
39043SOL     OW19025   9.155   1.558  11.288
39043SOL    HW119026   9.249   1.571  11.303
39043SOL    HW219027   9.131   1.487  11.347
39044SOL     OW19028  11.141   6.842   6.114
39044SOL    HW119029  11.226   6.800   6.102
39044SOL    HW219030  11.163   6.929   6.150
39045SOL     OW19031  14.185   7.803   5.044
39045SOL    HW119032  14.121   7.791   4.974
39045SOL    HW219033  14.134   7.788   5.124
39046SOL     OW19034  12.963   2.767  11.676
39046SOL    HW119035  13.011   2.849  11.665
39046SOL    HW219036  13.029   2.706  11.709
39047SOL     OW19037  12.563   5.386   4.420
39047SOL    HW119038  12.558   5.373   4.515
39047SOL    HW219039  12.471   5.392   4.392
39048SOL     OW19040   3.104   2.299   6.642
39048SOL    HW119041   3.156   2.291   6.563
39048SOL    HW219042   3.168   2.310   6.713
39049SOL     OW19043   8.845   6.363  10.339
39049SOL    HW119044   8.803   6.303  10.401
39049SOL    HW219045   8.896   6.306  10.281
39050SOL     OW19046   0.952   2.450  12.071
39050SOL    HW119047   0.997   2.422  12.151
39050SOL    HW219048   0.882   2.507  12.102
39051SOL     OW19049   1.382   4.957   3.634
39051SOL    HW119050   1.334   4.895   3.579
39051SOL    HW219051   1.432   4.902   3.695
39052SOL     OW19052  13.227   4.619   6.566
39052SOL    HW119053  13.304   4.652   6.518
39052SOL    HW219054  13.155   4.673   6.533
39053SOL     OW19055  12.433   3.833   9.766
39053SOL    HW119056  12.385   3.899   9.816
39053SOL    HW219057  12.524   3.843   9.796
39054SOL     OW19058  12.580  12.311   9.499
39054SOL    HW119059  12.565  12.306   9.405
39054SOL    HW219060  12.506  12.264   9.538
39055SOL     OW19061   6.765   0.887  10.815
39055SOL    HW119062   6.709   0.957  10.781
39055SOL    HW219063   6.792   0.918  10.902
39056SOL     OW19064   4.161   8.969   9.405
39056SOL    HW119065   4.125   8.972   9.494
39056SOL    HW219066   4.105   8.906   9.359
39057SOL     OW19067   8.993   6.884   2.172
39057SOL    HW119068   9.014   6.939   2.096
39057SOL    HW219069   8.899   6.869   2.165
39058SOL     OW19070   8.744   6.727   1.834
39058SOL    HW119071   8.742   6.750   1.742
39058SOL    HW219072   8.716   6.806   1.879
39059SOL     OW19073   8.283   3.632  10.645
39059SOL    HW119074   8.353   3.683  10.605
39059SOL    HW219075   8.304   3.541  10.621
39060SOL     OW19076   4.339   0.076   1.378
39060SOL    HW119077   4.428   0.095   1.348
39060SOL    HW219078   4.312   0.153   1.428
39061SOL     OW19079  12.203   9.856   3.709
39061SOL    HW119080  12.149   9.785   3.672
39061SOL    HW219081  12.290   9.819   3.716
39062SOL     OW19082  13.680  14.102   0.380
39062SOL    HW119083  13.638  14.123   0.463
39062SOL    HW219084  13.624  14.034   0.341
39063SOL     OW19085   0.378   5.111   0.240
39063SOL    HW119086   0.460   5.079   0.279
39063SOL    HW219087   0.339   5.034   0.199
39064SOL     OW19088   1.957   4.121   5.769
39064SOL    HW119089   1.900   4.164   5.833
39064SOL    HW219090   1.942   4.027   5.783
39065SOL     OW19091   0.533   3.817   3.793
39065SOL    HW119092   0.506   3.782   3.877
39065SOL    HW219093   0.622   3.850   3.807
39066SOL     OW19094   6.887   2.411   5.038
39066SOL    HW119095   6.792   2.410   5.055
39066SOL    HW219096   6.899   2.483   4.976
39067SOL     OW19097   9.083   2.825  10.716
39067SOL    HW119098   9.048   2.880  10.786
39067SOL    HW219099   9.085   2.737  10.754
39068SOL     OW19100   2.729   0.332  10.352
39068SOL    HW119101   2.654   0.345  10.295
39068SOL    HW219102   2.727   0.407  10.412
39069SOL     OW19103   4.778   8.873  13.996
39069SOL    HW119104   4.722   8.885  14.072
39069SOL    HW219105   4.720   8.836  13.929
39070SOL     OW19106   8.130   3.335  12.067
39070SOL    HW119107   8.061   3.370  12.012
39070SOL    HW219108   8.190   3.408  12.081
39071SOL     OW19109   1.870   0.265   4.203
39071SOL    HW119110   1.800   0.297   4.261
39071SOL    HW219111   1.837   0.183   4.169
39072SOL     OW19112  13.603  11.613   8.297
39072SOL    HW119113  13.543  11.613   8.223
39072SOL    HW219114  13.684  11.574   8.263
39073SOL     OW19115   0.834  12.290   0.001
39073SOL    HW119116   0.858  12.199   0.020
39073SOL    HW219117   0.767  12.285  14.814
39074SOL     OW19118   7.063   0.840  10.544
39074SOL    HW119119   7.063   0.788  10.625
39074SOL    HW219120   7.080   0.930  10.574
39075SOL     OW19121   8.945   1.036   5.458
39075SOL    HW119122   8.989   1.092   5.522
39075SOL    HW219123   8.952   0.948   5.495
39076SOL     OW19124  12.765   0.462   3.565
39076SOL    HW119125  12.747   0.540   3.617
39076SOL    HW219126  12.782   0.393   3.629
39077SOL     OW19127  13.871  12.869  10.155
39077SOL    HW119128  13.783  12.864  10.117
39077SOL    HW219129  13.867  12.813  10.232
39078SOL     OW19130   1.191  10.788  10.202
39078SOL    HW119131   1.103  10.808  10.236
39078SOL    HW219132   1.190  10.693  10.188
39079SOL     OW19133  10.292   6.972  14.542
39079SOL    HW119134  10.214   6.944  14.494
39079SOL    HW219135  10.360   6.909  14.516
39080SOL     OW19136  12.386  11.956   0.929
39080SOL    HW119137  12.334  11.876   0.921
39080SOL    HW219138  12.449  11.938   0.999
39081SOL     OW19139   7.869   2.684   4.723
39081SOL    HW119140   7.823   2.621   4.779
39081SOL    HW219141   7.959   2.651   4.719
39082SOL     OW19142  11.805   7.323   6.383
39082SOL    HW119143  11.836   7.240   6.420
39082SOL    HW219144  11.864   7.389   6.420
39083SOL     OW19145   2.665   9.153   9.398
39083SOL    HW119146   2.751   9.111   9.392
39083SOL    HW219147   2.685   9.247   9.398
39084SOL     OW19148   7.917   3.946  10.104
39084SOL    HW119149   7.931   3.879  10.037
39084SOL    HW219150   7.862   3.902  10.170
39085SOL     OW19151   0.515   1.147   5.190
39085SOL    HW119152   0.564   1.065   5.182
39085SOL    HW219153   0.563   1.209   5.136
39086SOL     OW19154  13.672   5.333   2.028
39086SOL    HW119155  13.765   5.331   2.049
39086SOL    HW219156  13.630   5.367   2.107
39087SOL     OW19157   5.483   8.416   1.691
39087SOL    HW119158   5.509   8.326   1.674
39087SOL    HW219159   5.550   8.469   1.646
39088SOL     OW19160  11.107   6.033   5.898
39088SOL    HW119161  11.012   6.022   5.894
39088SOL    HW219162  11.135   6.032   5.807
39089SOL     OW19163   9.413   3.464   5.112
39089SOL    HW119164   9.478   3.403   5.147
39089SOL    HW219165   9.331   3.414   5.111
39090SOL     OW19166   0.881   8.520   8.533
39090SOL    HW119167   0.925   8.451   8.484
39090SOL    HW219168   0.803   8.478   8.569
39091SOL     OW19169   6.813   3.578   7.901
39091SOL    HW119170   6.800   3.584   7.995
39091SOL    HW219171   6.840   3.488   7.886
39092SOL     OW19172   7.529   4.418   0.717
39092SOL    HW119173   7.499   4.452   0.633
39092SOL    HW219174   7.583   4.342   0.694
39093SOL     OW19175   4.654  13.770   8.033
39093SOL    HW119176   4.749  13.757   8.030
39093SOL    HW219177   4.644  13.864   8.048
39094SOL     OW19178   1.040   0.526   9.968
39094SOL    HW119179   1.131   0.498   9.982
39094SOL    HW219180   1.039   0.558   9.878
39095SOL     OW19181  14.421   7.239   8.235
39095SOL    HW119182  14.499   7.254   8.288
39095SOL    HW219183  14.415   7.143   8.228
39096SOL     OW19184   1.943  11.968   7.572
39096SOL    HW119185   2.024  11.917   7.579
39096SOL    HW219186   1.954  12.039   7.635
39097SOL     OW19187   3.344   9.592   5.853
39097SOL    HW119188   3.438   9.599   5.873
39097SOL    HW219189   3.330   9.498   5.840
39098SOL     OW19190  11.988   9.185   0.842
39098SOL    HW119191  11.963   9.243   0.770
39098SOL    HW219192  12.083   9.178   0.836
39099SOL     OW19193   5.904   7.572   3.006
39099SOL    HW119194   5.888   7.518   2.929
39099SOL    HW219195   5.977   7.629   2.981
39100SOL     OW19196   4.102   9.227  11.090
39100SOL    HW119197   4.188   9.214  11.051
39100SOL    HW219198   4.042   9.179  11.032
39101SOL     OW19199   4.930   5.087   4.782
39101SOL    HW119200   4.965   5.043   4.705
39101SOL    HW219201   4.924   5.179   4.758
39102SOL     OW19202   8.552   3.621   9.236
39102SOL    HW119203   8.624   3.597   9.294
39102SOL    HW219204   8.475   3.621   9.291
39103SOL     OW19205   7.512  12.322   8.719
39103SOL    HW119206   7.560  12.242   8.737
39103SOL    HW219207   7.505  12.366   8.804
39104SOL     OW19208   1.234   7.877   4.138
39104SOL    HW119209   1.282   7.909   4.215
39104SOL    HW219210   1.230   7.953   4.080
39105SOL     OW19211  14.571  12.928   4.272
39105SOL    HW119212  14.511  12.977   4.216
39105SOL    HW219213  14.651  12.981   4.274
39106SOL     OW19214  13.181   3.020  13.429
39106SOL    HW119215  13.168   2.927  13.445
39106SOL    HW219216  13.260   3.025  13.376
39107SOL     OW19217   4.382   3.437   7.374
39107SOL    HW119218   4.445   3.366   7.378
39107SOL    HW219219   4.419   3.506   7.428
39108SOL     OW19220   3.730   4.236   8.939
39108SOL    HW119221   3.705   4.163   8.996
39108SOL    HW219222   3.780   4.195   8.868
39109SOL     OW19223   7.059  11.201   3.011
39109SOL    HW119224   7.148  11.176   3.036
39109SOL    HW219225   7.051  11.293   3.035
39110SOL     OW19226  12.509   8.550   0.536
39110SOL    HW119227  12.508   8.590   0.623
39110SOL    HW219228  12.421   8.564   0.502
39111SOL     OW19229   4.147  11.113  10.317
39111SOL    HW119230   4.150  11.208  10.318
39111SOL    HW219231   4.189  11.088  10.234
39112SOL     OW19232   0.332  13.807  13.489
39112SOL    HW119233   0.292  13.888  13.522
39112SOL    HW219234   0.275  13.737  13.521
39113SOL     OW19235   9.938  11.236  13.306
39113SOL    HW119236   9.878  11.172  13.268
39113SOL    HW219237   9.886  11.281  13.372
39114SOL     OW19238  10.496   6.603   4.620
39114SOL    HW119239  10.467   6.677   4.674
39114SOL    HW219240  10.416   6.569   4.580
39115SOL     OW19241   6.828  11.848   8.485
39115SOL    HW119242   6.765  11.899   8.435
39115SOL    HW219243   6.775  11.796   8.546
39116SOL     OW19244   6.907   7.594  11.921
39116SOL    HW119245   6.835   7.539  11.952
39116SOL    HW219246   6.937   7.640  11.999
39117SOL     OW19247   1.147   0.790   1.608
39117SOL    HW119248   1.152   0.723   1.540
39117SOL    HW219249   1.083   0.853   1.575
39118SOL     OW19250   2.074   5.260  14.096
39118SOL    HW119251   2.147   5.260  14.034
39118SOL    HW219252   2.018   5.188  14.067
39119SOL     OW19253   6.624  12.823   3.381
39119SOL    HW119254   6.611  12.731   3.360
39119SOL    HW219255   6.683  12.856   3.313
39120SOL     OW19256  12.408   0.161   4.586
39120SOL    HW119257  12.387   0.146   4.679
39120SOL    HW219258  12.482   0.222   4.587
39121SOL     OW19259   0.981   5.980   1.936
39121SOL    HW119260   0.986   5.888   1.963
39121SOL    HW219261   0.889   6.003   1.949
39122SOL     OW19262  14.660  12.999   9.168
39122SOL    HW119263  14.616  13.046   9.099
39122SOL    HW219264  14.712  13.065   9.214
39123SOL     OW19265  10.989   7.038  14.084
39123SOL    HW119266  10.915   6.992  14.124
39123SOL    HW219267  11.060   7.031  14.148
39124SOL     OW19268  12.702   2.044   3.815
39124SOL    HW119269  12.663   1.977   3.759
39124SOL    HW219270  12.676   2.019   3.904
39125SOL     OW19271   9.032   6.017   1.385
39125SOL    HW119272   8.945   6.021   1.424
39125SOL    HW219273   9.052   5.923   1.380
39126SOL     OW19274  13.843   7.948   2.779
39126SOL    HW119275  13.841   7.871   2.723
39126SOL    HW219276  13.871   8.019   2.721
39127SOL     OW19277  12.506   2.275  13.954
39127SOL    HW119278  12.469   2.355  13.917
39127SOL    HW219279  12.429   2.225  13.983
39128SOL     OW19280  11.948   0.539  12.759
39128SOL    HW119281  11.910   0.575  12.678
39128SOL    HW219282  12.031   0.584  12.768
39129SOL     OW19283  10.729  10.031   0.754
39129SOL    HW119284  10.814  10.038   0.799
39129SOL    HW219285  10.751  10.007   0.664
39130SOL     OW19286  12.382   6.392   3.182
39130SOL    HW119287  12.461   6.443   3.165
39130SOL    HW219288  12.378   6.386   3.278
39131SOL     OW19289   5.948   5.790   6.326
39131SOL    HW119290   6.028   5.840   6.312
39131SOL    HW219291   5.923   5.809   6.417
39132SOL     OW19292   0.644  10.966  10.856
39132SOL    HW119293   0.563  10.935  10.896
39132SOL    HW219294   0.656  10.910  10.780
39133SOL     OW19295   9.181   1.383  12.566
39133SOL    HW119296   9.175   1.301  12.517
39133SOL    HW219297   9.253   1.370  12.627
39134SOL     OW19298  11.233   6.993  13.177
39134SOL    HW119299  11.323   6.970  13.201
39134SOL    HW219300  11.203   7.049  13.248
39135SOL     OW19301   2.663   3.178  14.223
39135SOL    HW119302   2.646   3.125  14.301
39135SOL    HW219303   2.756   3.202  14.230
39136SOL     OW19304  11.976   1.035  14.283
39136SOL    HW119305  11.931   1.117  14.265
39136SOL    HW219306  11.964   0.983  14.204
39137SOL     OW19307   3.125  13.123   6.505
39137SOL    HW119308   3.071  13.202   6.513
39137SOL    HW219309   3.186  13.128   6.578
39138SOL     OW19310   1.370   9.227   5.214
39138SOL    HW119311   1.357   9.265   5.127
39138SOL    HW219312   1.382   9.303   5.272
39139SOL     OW19313   9.391  10.893   9.864
39139SOL    HW119314   9.311  10.944   9.853
39139SOL    HW219315   9.361  10.804   9.881
39140SOL     OW19316  11.294   1.726   4.083
39140SOL    HW119317  11.277   1.633   4.065
39140SOL    HW219318  11.238   1.773   4.021
39141SOL     OW19319   6.567   4.471  12.450
39141SOL    HW119320   6.550   4.397  12.392
39141SOL    HW219321   6.481   4.511  12.463
39142SOL     OW19322   5.677   7.327   3.225
39142SOL    HW119323   5.629   7.402   3.190
39142SOL    HW219324   5.718   7.287   3.149
39143SOL     OW19325  11.425   5.205  10.287
39143SOL    HW119326  11.368   5.240  10.218
39143SOL    HW219327  11.504   5.259  10.283
39144SOL     OW19328   4.691  10.238  11.888
39144SOL    HW119329   4.762  10.190  11.845
39144SOL    HW219330   4.688  10.201  11.976
39145SOL     OW19331   0.541   9.529   9.413
39145SOL    HW119332   0.530   9.434   9.419
39145SOL    HW219333   0.542   9.558   9.505
39146SOL     OW19334   9.272  11.620   8.566
39146SOL    HW119335   9.195  11.656   8.611
39146SOL    HW219336   9.346  11.649   8.619
39147SOL     OW19337  14.393   2.675   5.565
39147SOL    HW119338  14.381   2.589   5.526
39147SOL    HW219339  14.415   2.733   5.492
39148SOL     OW19340   7.855   2.367   4.629
39148SOL    HW119341   7.906   2.347   4.551
39148SOL    HW219342   7.774   2.406   4.595
39149SOL     OW19343   8.290  10.952   8.202
39149SOL    HW119344   8.206  10.906   8.199
39149SOL    HW219345   8.302  10.987   8.113
39150SOL     OW19346   8.316   5.613   4.427
39150SOL    HW119347   8.309   5.538   4.485
39150SOL    HW219348   8.363   5.581   4.350
39151SOL     OW19349  13.588   3.427  10.231
39151SOL    HW119350  13.576   3.403  10.139
39151SOL    HW219351  13.681   3.450  10.238
39152SOL     OW19352   6.840  14.258   2.434
39152SOL    HW119353   6.862  14.236   2.524
39152SOL    HW219354   6.819  14.351   2.436
39153SOL     OW19355   7.565   0.139  12.507
39153SOL    HW119356   7.506   0.201  12.550
39153SOL    HW219357   7.530   0.130  12.418
39154SOL     OW19358   8.468  10.302   0.758
39154SOL    HW119359   8.494  10.212   0.778
39154SOL    HW219360   8.550  10.346   0.736
39155SOL     OW19361   5.091   1.022   6.413
39155SOL    HW119362   5.093   1.067   6.497
39155SOL    HW219363   5.039   1.078   6.356
39156SOL     OW19364   8.949   7.759   1.889
39156SOL    HW119365   8.914   7.833   1.939
39156SOL    HW219366   8.891   7.686   1.910
39157SOL     OW19367   7.920   4.456   4.974
39157SOL    HW119368   7.854   4.509   5.020
39157SOL    HW219369   7.869   4.390   4.927
39158SOL     OW19370   3.199   0.340   5.488
39158SOL    HW119371   3.241   0.262   5.452
39158SOL    HW219372   3.264   0.376   5.549
39159SOL     OW19373  11.463   7.901  14.129
39159SOL    HW119374  11.397   7.849  14.082
39159SOL    HW219375  11.412   7.961  14.183
39160SOL     OW19376   7.886   1.693  13.228
39160SOL    HW119377   7.940   1.696  13.150
39160SOL    HW219378   7.860   1.601  13.235
39161SOL     OW19379   5.276  10.311   6.671
39161SOL    HW119380   5.370  10.301   6.654
39161SOL    HW219381   5.242  10.221   6.673
39162SOL     OW19382   4.083  10.800  13.172
39162SOL    HW119383   4.051  10.714  13.201
39162SOL    HW219384   4.163  10.813  13.222
39163SOL     OW19385   6.796   9.364  14.652
39163SOL    HW119386   6.782   9.285  14.705
39163SOL    HW219387   6.843   9.332  14.575
39164SOL     OW19388   6.926   2.379  13.345
39164SOL    HW119389   6.874   2.458  13.336
39164SOL    HW219390   6.906   2.348  13.434
39165SOL     OW19391   0.003  14.214   2.157
39165SOL    HW119392  14.811  14.273   2.178
39165SOL    HW219393   0.026  14.235   2.067
39166SOL     OW19394  13.348  14.242   6.639
39166SOL    HW119395  13.391  14.236   6.724
39166SOL    HW219396  13.307  14.329   6.639
39167SOL     OW19397   8.594   7.751   2.626
39167SOL    HW119398   8.522   7.812   2.608
39167SOL    HW219399   8.670   7.807   2.638
39168SOL     OW19400   2.361   3.143  14.828
39168SOL    HW119401   2.440   3.198  14.821
39168SOL    HW219402   2.294   3.193  14.782
39169SOL     OW19403   0.957   9.966  12.782
39169SOL    HW119404   1.028   9.953  12.845
39169SOL    HW219405   0.935   9.878  12.751
39170SOL     OW19406   9.351  10.199   6.089
39170SOL    HW119407   9.347  10.294   6.093
39170SOL    HW219408   9.353  10.179   5.996
39171SOL     OW19409   7.641   4.275   3.377
39171SOL    HW119410   7.570   4.281   3.441
39171SOL    HW219411   7.599   4.295   3.293
39172SOL     OW19412   3.664  13.719   3.114
39172SOL    HW119413   3.622  13.637   3.138
39172SOL    HW219414   3.704  13.701   3.029
39173SOL     OW19415   5.618   8.878   5.859
39173SOL    HW119416   5.643   8.880   5.767
39173SOL    HW219417   5.659   8.798   5.893
39174SOL     OW19418   9.079  12.374  13.058
39174SOL    HW119419   9.058  12.344  12.969
39174SOL    HW219420   9.155  12.431  13.046
39175SOL     OW19421   7.708  10.778   0.934
39175SOL    HW119422   7.720  10.815   1.022
39175SOL    HW219423   7.796  10.780   0.895
39176SOL     OW19424   2.589   3.593   4.652
39176SOL    HW119425   2.675   3.565   4.684
39176SOL    HW219426   2.589   3.688   4.667
39177SOL     OW19427  10.166   4.849   6.087
39177SOL    HW119428  10.261   4.832   6.084
39177SOL    HW219429  10.152   4.913   6.017
39178SOL     OW19430   6.357   8.199   8.096
39178SOL    HW119431   6.323   8.160   8.015
39178SOL    HW219432   6.292   8.266   8.119
39179SOL     OW19433   0.252   3.235   4.914
39179SOL    HW119434   0.197   3.313   4.914
39179SOL    HW219435   0.291   3.234   4.827
39180SOL     OW19436   4.244   5.799   0.236
39180SOL    HW119437   4.205   5.735   0.177
39180SOL    HW219438   4.201   5.881   0.214
39181SOL     OW19439   4.194   5.792  12.037
39181SOL    HW119440   4.267   5.737  12.008
39181SOL    HW219441   4.134   5.793  11.963
39182SOL     OW19442  11.393   6.616   0.488
39182SOL    HW119443  11.400   6.710   0.504
39182SOL    HW219444  11.369   6.579   0.573
39183SOL     OW19445   3.656   8.752   5.907
39183SOL    HW119446   3.590   8.718   5.967
39183SOL    HW219447   3.642   8.704   5.825
39184SOL     OW19448   0.216   3.867  12.032
39184SOL    HW119449   0.272   3.943  12.041
39184SOL    HW219450   0.276   3.792  12.030
39185SOL     OW19451   2.245   2.195   6.161
39185SOL    HW119452   2.186   2.123   6.141
39185SOL    HW219453   2.188   2.265   6.192
39186SOL     OW19454   9.343   3.566   0.589
39186SOL    HW119455   9.404   3.563   0.662
39186SOL    HW219456   9.326   3.659   0.576
39187SOL     OW19457   5.673   8.410   2.988
39187SOL    HW119458   5.663   8.354   2.911
39187SOL    HW219459   5.761   8.448   2.979
39188SOL     OW19460  12.210   9.861  14.370
39188SOL    HW119461  12.301   9.830  14.371
39188SOL    HW219462  12.194   9.893  14.459
39189SOL     OW19463   2.238  11.815  10.749
39189SOL    HW119464   2.308  11.880  10.757
39189SOL    HW219465   2.284  11.732  10.736
39190SOL     OW19466  10.954   3.145   3.349
39190SOL    HW119467  10.982   3.071   3.403
39190SOL    HW219468  10.943   3.217   3.412
39191SOL     OW19469   9.227   8.982  13.211
39191SOL    HW119470   9.195   8.903  13.168
39191SOL    HW219471   9.322   8.977  13.202
39192SOL     OW19472   9.111  13.532  14.477
39192SOL    HW119473   9.087  13.493  14.393
39192SOL    HW219474   9.099  13.461  14.541
39193SOL     OW19475   8.747   2.617   3.984
39193SOL    HW119476   8.748   2.709   4.011
39193SOL    HW219477   8.798   2.615   3.903
39194SOL     OW19478  12.361   2.751   0.533
39194SOL    HW119479  12.361   2.681   0.467
39194SOL    HW219480  12.312   2.822   0.492
39195SOL     OW19481   8.356   6.044   3.108
39195SOL    HW119482   8.441   6.081   3.086
39195SOL    HW219483   8.367   6.008   3.196
39196SOL     OW19484   4.287   6.787   6.713
39196SOL    HW119485   4.356   6.721   6.711
39196SOL    HW219486   4.300   6.839   6.633
39197SOL     OW19487   8.230   9.820   5.564
39197SOL    HW119488   8.325   9.815   5.577
39197SOL    HW219489   8.206   9.906   5.598
39198SOL     OW19490  11.444  11.279   8.176
39198SOL    HW119491  11.482  11.364   8.153
39198SOL    HW219492  11.519  11.220   8.179
39199SOL     OW19493  10.230   5.745   0.108
39199SOL    HW119494  10.199   5.835   0.123
39199SOL    HW219495  10.286   5.752   0.031
39200SOL     OW19496   0.465   8.117   8.372
39200SOL    HW119497   0.374   8.141   8.353
39200SOL    HW219498   0.475   8.029   8.334
39201SOL     OW19499   0.026  10.094   7.831
39201SOL    HW119500   0.059  10.004   7.835
39201SOL    HW219501   0.103  10.147   7.808
39202SOL     OW19502   8.912   7.304   5.539
39202SOL    HW119503   8.901   7.375   5.602
39202SOL    HW219504   8.937   7.348   5.458
39203SOL     OW19505  11.259  14.231  10.858
39203SOL    HW119506  11.199  14.200  10.925
39203SOL    HW219507  11.215  14.211  10.775
39204SOL     OW19508   8.198   3.550   5.093
39204SOL    HW119509   8.223   3.484   5.158
39204SOL    HW219510   8.145   3.613   5.141
39205SOL     OW19511   8.686   7.674  10.732
39205SOL    HW119512   8.608   7.715  10.695
39205SOL    HW219513   8.668   7.668  10.826
39206SOL     OW19514   4.002   3.170  12.662
39206SOL    HW119515   4.056   3.249  12.657
39206SOL    HW219516   3.934   3.182  12.597
39207SOL     OW19517   0.678  12.995   6.555
39207SOL    HW119518   0.749  12.930   6.549
39207SOL    HW219519   0.607  12.957   6.503
39208SOL     OW19520   0.100   8.590  11.888
39208SOL    HW119521   0.147   8.529  11.944
39208SOL    HW219522   0.154   8.596  11.809
39209SOL     OW19523   3.868  10.006   7.428
39209SOL    HW119524   3.858   9.926   7.479
39209SOL    HW219525   3.812  10.070   7.472
39210SOL     OW19526  13.287   9.757  11.913
39210SOL    HW119527  13.269   9.846  11.885
39210SOL    HW219528  13.205   9.709  11.894
39211SOL     OW19529  14.227  13.479   3.820
39211SOL    HW119530  14.285  13.554   3.832
39211SOL    HW219531  14.211  13.475   3.725
39212SOL     OW19532   8.319   6.839  14.688
39212SOL    HW119533   8.253   6.906  14.670
39212SOL    HW219534   8.402   6.880  14.664
39213SOL     OW19535  10.493   6.402   5.090
39213SOL    HW119536  10.468   6.375   5.178
39213SOL    HW219537  10.467   6.494   5.084
39214SOL     OW19538   9.372   9.638   7.552
39214SOL    HW119539   9.315   9.677   7.618
39214SOL    HW219540   9.405   9.557   7.592
39215SOL     OW19541  13.116   1.876   2.411
39215SOL    HW119542  13.173   1.912   2.343
39215SOL    HW219543  13.122   1.781   2.400
39216SOL     OW19544   9.628  10.027   7.616
39216SOL    HW119545   9.582  10.107   7.643
39216SOL    HW219546   9.715  10.035   7.655
39217SOL     OW19547   7.980  10.399   5.192
39217SOL    HW119548   8.036  10.429   5.120
39217SOL    HW219549   7.968  10.306   5.175
39218SOL     OW19550   3.021   7.029   6.941
39218SOL    HW119551   3.113   7.010   6.922
39218SOL    HW219552   2.980   6.943   6.952
39219SOL     OW19553   1.773  13.331  13.909
39219SOL    HW119554   1.787  13.237  13.921
39219SOL    HW219555   1.845  13.359  13.852
39220SOL     OW19556  10.801   6.968  11.374
39220SOL    HW119557  10.873   6.904  11.373
39220SOL    HW219558  10.788   6.992  11.283
39221SOL     OW19559   8.076  12.465   8.516
39221SOL    HW119560   8.094  12.466   8.422
39221SOL    HW219561   8.145  12.409   8.552
39222SOL     OW19562   5.847   6.853  14.379
39222SOL    HW119563   5.833   6.935  14.334
39222SOL    HW219564   5.871   6.878  14.468
39223SOL     OW19565  14.418   5.351  13.011
39223SOL    HW119566  14.455   5.287  12.951
39223SOL    HW219567  14.492   5.406  13.037
39224SOL     OW19568   6.313   8.266  14.016
39224SOL    HW119569   6.219   8.254  13.998
39224SOL    HW219570   6.356   8.197  13.965
39225SOL     OW19571  10.609  13.040  13.950
39225SOL    HW119572  10.582  13.023  14.040
39225SOL    HW219573  10.705  13.034  13.952
39226SOL     OW19574  13.642  10.733   6.776
39226SOL    HW119575  13.599  10.773   6.851
39226SOL    HW219576  13.573  10.723   6.710
39227SOL     OW19577   2.926   6.180   5.347
39227SOL    HW119578   2.901   6.114   5.283
39227SOL    HW219579   3.017   6.160   5.368
39228SOL     OW19580   4.357   6.847  12.772
39228SOL    HW119581   4.347   6.770  12.828
39228SOL    HW219582   4.334   6.921  12.829
39229SOL     OW19583   7.740   4.486  11.947
39229SOL    HW119584   7.673   4.433  11.990
39229SOL    HW219585   7.692   4.532  11.877
39230SOL     OW19586   9.021   5.547   4.458
39230SOL    HW119587   8.960   5.612   4.493
39230SOL    HW219588   8.996   5.536   4.367
39231SOL     OW19589  12.360   8.779   8.157
39231SOL    HW119590  12.281   8.825   8.131
39231SOL    HW219591  12.343   8.749   8.246
39232SOL     OW19592  12.361   6.691   9.236
39232SOL    HW119593  12.427   6.622   9.242
39232SOL    HW219594  12.326   6.699   9.325
39233SOL     OW19595  11.583   5.277   8.915
39233SOL    HW119596  11.551   5.319   8.995
39233SOL    HW219597  11.651   5.337   8.883
39234SOL     OW19598   9.738  13.493   4.045
39234SOL    HW119599   9.767  13.560   4.106
39234SOL    HW219600   9.663  13.532   4.000
39235SOL     OW19601  10.641   4.871   5.300
39235SOL    HW119602  10.656   4.875   5.206
39235SOL    HW219603  10.594   4.951   5.321
39236SOL     OW19604   7.041   8.206  12.954
39236SOL    HW119605   7.106   8.150  12.997
39236SOL    HW219606   7.086   8.236  12.875
39237SOL     OW19607  10.857   5.254   8.490
39237SOL    HW119608  10.808   5.335   8.478
39237SOL    HW219609  10.819   5.193   8.426
39238SOL     OW19610   2.327   9.184  13.595
39238SOL    HW119611   2.405   9.170  13.542
39238SOL    HW219612   2.353   9.156  13.683
39239SOL     OW19613  11.729  13.449  10.629
39239SOL    HW119614  11.635  13.439  10.615
39239SOL    HW219615  11.759  13.363  10.657
39240SOL     OW19616  13.430  14.070   6.016
39240SOL    HW119617  13.512  14.023   6.031
39240SOL    HW219618  13.417  14.123   6.095
39241SOL     OW19619  13.084  14.722  11.989
39241SOL    HW119620  13.028  14.696  12.062
39241SOL    HW219621  13.039  14.796  11.949
39242SOL     OW19622  14.463   2.722   9.938
39242SOL    HW119623  14.433   2.777   9.866
39242SOL    HW219624  14.558   2.715   9.924
39243SOL     OW19625   5.576   2.272  11.273
39243SOL    HW119626   5.642   2.244  11.210
39243SOL    HW219627   5.515   2.198  11.278
39244SOL     OW19628   9.433  12.017   6.875
39244SOL    HW119629   9.489  12.022   6.798
39244SOL    HW219630   9.482  12.061   6.944
39245SOL     OW19631  12.787  11.603   5.943
39245SOL    HW119632  12.853  11.672   5.944
39245SOL    HW219633  12.741  11.612   6.027
39246SOL     OW19634   6.126  10.872   7.152
39246SOL    HW119635   6.082  10.925   7.085
39246SOL    HW219636   6.059  10.810   7.181
39247SOL     OW19637  11.422   4.676  14.466
39247SOL    HW119638  11.516   4.669  14.454
39247SOL    HW219639  11.402   4.768  14.447
39248SOL     OW19640   0.721   9.136   6.417
39248SOL    HW119641   0.740   9.163   6.327
39248SOL    HW219642   0.807   9.121   6.456
39249SOL     OW19643   0.971  12.543   5.475
39249SOL    HW119644   0.913  12.592   5.417
39249SOL    HW219645   0.921  12.465   5.499
39250SOL     OW19646  12.994   5.310   0.895
39250SOL    HW119647  13.088   5.314   0.876
39250SOL    HW219648  12.986   5.346   0.983
39251SOL     OW19649   8.678   9.896   8.033
39251SOL    HW119650   8.689   9.838   8.108
39251SOL    HW219651   8.608   9.956   8.058
39252SOL     OW19652   0.925   7.194  13.125
39252SOL    HW119653   0.907   7.103  13.100
39252SOL    HW219654   1.020   7.197  13.139
39253SOL     OW19655  13.834   5.650   5.276
39253SOL    HW119656  13.754   5.613   5.313
39253SOL    HW219657  13.892   5.661   5.350
39254SOL     OW19658   2.549   0.238   6.038
39254SOL    HW119659   2.643   0.237   6.022
39254SOL    HW219660   2.536   0.309   6.102
39255SOL     OW19661  13.459   4.645   8.284
39255SOL    HW119662  13.523   4.613   8.347
39255SOL    HW219663  13.411   4.714   8.330
39256SOL     OW19664   5.664   5.930  12.025
39256SOL    HW119665   5.639   5.890  12.108
39256SOL    HW219666   5.718   5.864  11.982
39257SOL     OW19667   3.424   0.698   5.702
39257SOL    HW119668   3.399   0.685   5.610
39257SOL    HW219669   3.423   0.610   5.740
39258SOL     OW19670   6.992   8.301   2.611
39258SOL    HW119671   6.927   8.370   2.627
39258SOL    HW219672   6.965   8.229   2.669
39259SOL     OW19673   0.942  13.469   2.859
39259SOL    HW119674   1.015  13.481   2.798
39259SOL    HW219675   0.984  13.452   2.943
39260SOL     OW19676  11.544   9.355   5.657
39260SOL    HW119677  11.620   9.311   5.695
39260SOL    HW219678  11.475   9.289   5.659
39261SOL     OW19679   8.126  13.877   1.599
39261SOL    HW119680   8.192  13.873   1.669
39261SOL    HW219681   8.177  13.875   1.518
39262SOL     OW19682   8.147   4.582  13.414
39262SOL    HW119683   8.139   4.582  13.319
39262SOL    HW219684   8.195   4.663  13.434
39263SOL     OW19685   9.591   5.350  12.222
39263SOL    HW119686   9.614   5.268  12.266
39263SOL    HW219687   9.651   5.356  12.148
39264SOL     OW19688   2.393   2.772   6.296
39264SOL    HW119689   2.378   2.802   6.206
39264SOL    HW219690   2.313   2.725   6.319
39265SOL     OW19691   5.748   0.547   8.545
39265SOL    HW119692   5.701   0.604   8.606
39265SOL    HW219693   5.840   0.561   8.566
39266SOL     OW19694  13.466   7.171   0.738
39266SOL    HW119695  13.433   7.126   0.815
39266SOL    HW219696  13.555   7.197   0.761
39267SOL     OW19697   6.071   4.145   2.260
39267SOL    HW119698   6.014   4.069   2.249
39267SOL    HW219699   6.066   4.165   2.353
39268SOL     OW19700  11.805  13.930   8.275
39268SOL    HW119701  11.803  13.955   8.367
39268SOL    HW219702  11.792  13.836   8.276
39269SOL     OW19703   8.897   2.564   5.358
39269SOL    HW119704   8.814   2.606   5.334
39269SOL    HW219705   8.872   2.493   5.417
39270SOL     OW19706   8.928   7.461   3.420
39270SOL    HW119707   8.963   7.513   3.347
39270SOL    HW219708   8.931   7.371   3.389
39271SOL     OW19709  13.955  10.695   4.748
39271SOL    HW119710  13.997  10.634   4.687
39271SOL    HW219711  13.885  10.645   4.789
39272SOL     OW19712   9.102   2.960   4.841
39272SOL    HW119713   9.116   3.046   4.880
39272SOL    HW219714   9.173   2.906   4.876
39273SOL     OW19715  11.668   0.030   3.003
39273SOL    HW119716  11.670   0.020   2.908
39273SOL    HW219717  11.586   0.076   3.021
39274SOL     OW19718   9.989   1.263  12.994
39274SOL    HW119719   9.989   1.288  12.902
39274SOL    HW219720   9.899   1.278  13.023
39275SOL     OW19721  12.782   0.691   7.291
39275SOL    HW119722  12.790   0.604   7.332
39275SOL    HW219723  12.872   0.718   7.274
39276SOL     OW19724  11.630   1.707  14.734
39276SOL    HW119725  11.556   1.740  14.784
39276SOL    HW219726  11.602   1.713  14.643
39277SOL     OW19727  12.901   2.634  10.702
39277SOL    HW119728  12.987   2.595  10.689
39277SOL    HW219729  12.873   2.662  10.615
39278SOL     OW19730   5.936   4.074  10.771
39278SOL    HW119731   6.027   4.042  10.773
39278SOL    HW219732   5.944   4.169  10.779
39279SOL     OW19733   8.022   8.220   9.694
39279SOL    HW119734   7.931   8.249   9.692
39279SOL    HW219735   8.070   8.295   9.728
39280SOL     OW19736  11.569   5.218  14.434
39280SOL    HW119737  11.608   5.304  14.450
39280SOL    HW219738  11.488   5.219  14.486
39281SOL     OW19739   2.186  10.397   7.914
39281SOL    HW119740   2.190  10.492   7.921
39281SOL    HW219741   2.129  10.370   7.986
39282SOL     OW19742  14.674  12.627   0.334
39282SOL    HW119743  14.718  12.677   0.403
39282SOL    HW219744  14.620  12.691   0.288
39283SOL     OW19745   5.542  13.065   2.097
39283SOL    HW119746   5.472  13.001   2.109
39283SOL    HW219747   5.518  13.113   2.018
39284SOL     OW19748   2.487  12.882   2.064
39284SOL    HW119749   2.551  12.864   1.996
39284SOL    HW219750   2.422  12.812   2.056
39285SOL     OW19751   2.543  13.800  11.820
39285SOL    HW119752   2.603  13.841  11.883
39285SOL    HW219753   2.533  13.865  11.750
39286SOL     OW19754   4.198  13.015   7.192
39286SOL    HW119755   4.229  12.924   7.192
39286SOL    HW219756   4.253  13.059   7.128
39287SOL     OW19757   0.122   2.955   4.248
39287SOL    HW119758   0.214   2.952   4.275
39287SOL    HW219759   0.110   2.875   4.197
39288SOL     OW19760   7.874   9.548  13.956
39288SOL    HW119761   7.841   9.592  13.877
39288SOL    HW219762   7.955   9.594  13.977
39289SOL     OW19763   2.365   2.010   9.811
39289SOL    HW119764   2.283   2.051   9.839
39289SOL    HW219765   2.375   1.935   9.869
39290SOL     OW19766   0.341   8.015  14.368
39290SOL    HW119767   0.430   8.051  14.368
39290SOL    HW219768   0.307   8.032  14.280
39291SOL     OW19769  14.053   7.622   6.790
39291SOL    HW119770  14.060   7.586   6.702
39291SOL    HW219771  14.106   7.564   6.844
39292SOL     OW19772   0.315   5.509   5.906
39292SOL    HW119773   0.259   5.454   5.960
39292SOL    HW219774   0.262   5.530   5.829
39293SOL     OW19775   9.090   0.110  10.605
39293SOL    HW119776   9.172   0.118  10.557
39293SOL    HW219777   9.099   0.029  10.656
39294SOL     OW19778   8.049  10.683   9.728
39294SOL    HW119779   8.025  10.747   9.795
39294SOL    HW219780   7.965  10.649   9.697
39295SOL     OW19781   2.597   1.206   5.415
39295SOL    HW119782   2.676   1.152   5.409
39295SOL    HW219783   2.571   1.200   5.507
39296SOL     OW19784   6.034  14.254   2.520
39296SOL    HW119785   6.057  14.176   2.570
39296SOL    HW219786   6.102  14.261   2.453
39297SOL     OW19787  11.084   5.649   2.108
39297SOL    HW119788  11.072   5.743   2.092
39297SOL    HW219789  11.032   5.607   2.040
39298SOL     OW19790   3.787   5.519   5.765
39298SOL    HW119791   3.787   5.516   5.860
39298SOL    HW219792   3.724   5.589   5.743
39299SOL     OW19793   7.619  13.489  13.753
39299SOL    HW119794   7.660  13.495  13.840
39299SOL    HW219795   7.577  13.574  13.741
39300SOL     OW19796   3.518   9.699   6.788
39300SOL    HW119797   3.574   9.734   6.719
39300SOL    HW219798   3.523   9.604   6.776
39301SOL     OW19799   4.692  12.967  14.055
39301SOL    HW119800   4.669  13.042  14.110
39301SOL    HW219801   4.633  12.898  14.082
39302SOL     OW19802   6.180   5.384   7.483
39302SOL    HW119803   6.172   5.319   7.553
39302SOL    HW219804   6.272   5.409   7.483
39303SOL     OW19805  11.204  13.835   2.602
39303SOL    HW119806  11.157  13.849   2.684
39303SOL    HW219807  11.201  13.740   2.588
39304SOL     OW19808   0.577   2.380  10.169
39304SOL    HW119809   0.609   2.463  10.205
39304SOL    HW219810   0.539   2.403  10.085
39305SOL     OW19811   4.701  13.330  12.869
39305SOL    HW119812   4.628  13.372  12.914
39305SOL    HW219813   4.723  13.389  12.797
39306SOL     OW19814   6.932   9.488   3.154
39306SOL    HW119815   6.871   9.436   3.205
39306SOL    HW219816   6.893   9.576   3.152
39307SOL     OW19817   7.549   4.679   3.424
39307SOL    HW119818   7.503   4.656   3.343
39307SOL    HW219819   7.635   4.639   3.415
39308SOL     OW19820   9.344   9.900  13.358
39308SOL    HW119821   9.301   9.884  13.274
39308SOL    HW219822   9.437   9.895  13.339
39309SOL     OW19823  12.840   7.142  14.051
39309SOL    HW119824  12.812   7.176  14.136
39309SOL    HW219825  12.876   7.055  14.070
39310SOL     OW19826  10.299  12.266   4.720
39310SOL    HW119827  10.308  12.361   4.730
39310SOL    HW219828  10.373  12.240   4.666
39311SOL     OW19829   8.383  12.034   8.723
39311SOL    HW119830   8.431  12.111   8.695
39311SOL    HW219831   8.363  12.051   8.815
39312SOL     OW19832   2.443  13.198  10.382
39312SOL    HW119833   2.493  13.275  10.410
39312SOL    HW219834   2.477  13.127  10.436
39313SOL     OW19835  13.563   7.599  14.222
39313SOL    HW119836  13.626   7.539  14.262
39313SOL    HW219837  13.577   7.590  14.128
39314SOL     OW19838   5.143   1.068   7.301
39314SOL    HW119839   5.088   1.009   7.354
39314SOL    HW219840   5.144   1.028   7.214
39315SOL     OW19841   2.316   8.571  11.750
39315SOL    HW119842   2.412   8.580  11.753
39315SOL    HW219843   2.291   8.557  11.841
39316SOL     OW19844   3.377   5.329   3.178
39316SOL    HW119845   3.317   5.306   3.250
39316SOL    HW219846   3.374   5.424   3.174
39317SOL     OW19847   0.658   2.010   7.961
39317SOL    HW119848   0.564   2.019   7.943
39317SOL    HW219849   0.666   1.923   8.000
39318SOL     OW19850   2.634   4.738   7.788
39318SOL    HW119851   2.557   4.762   7.737
39318SOL    HW219852   2.674   4.822   7.812
39319SOL     OW19853  10.479  12.056   0.435
39319SOL    HW119854  10.465  11.962   0.425
39319SOL    HW219855  10.574  12.066   0.443
39320SOL     OW19856  10.237   8.960   3.527
39320SOL    HW119857  10.178   8.889   3.552
39320SOL    HW219858  10.179   9.034   3.510
39321SOL     OW19859  12.527   5.525   6.705
39321SOL    HW119860  12.574   5.449   6.740
39321SOL    HW219861  12.568   5.541   6.620
39322SOL     OW19862   2.544   5.694   8.204
39322SOL    HW119863   2.461   5.680   8.160
39322SOL    HW219864   2.570   5.783   8.178
39323SOL     OW19865   1.778  14.011   4.454
39323SOL    HW119866   1.769  14.031   4.547
39323SOL    HW219867   1.854  13.953   4.449
39324SOL     OW19868   2.680   1.647  13.170
39324SOL    HW119869   2.640   1.720  13.218
39324SOL    HW219870   2.610   1.615  13.114
39325SOL     OW19871  12.261  12.483  10.051
39325SOL    HW119872  12.293  12.410   9.998
39325SOL    HW219873  12.238  12.550   9.987
39326SOL     OW19874  11.842   3.390   2.467
39326SOL    HW119875  11.932   3.360   2.476
39326SOL    HW219876  11.832   3.406   2.373
39327SOL     OW19877   8.404   6.094   9.777
39327SOL    HW119878   8.476   6.133   9.728
39327SOL    HW219879   8.412   6.000   9.762
39328SOL     OW19880   8.560  14.073   4.161
39328SOL    HW119881   8.537  14.165   4.174
39328SOL    HW219882   8.517  14.048   4.079
39329SOL     OW19883  10.606  14.550  11.968
39329SOL    HW119884  10.591  14.568  11.875
39329SOL    HW219885  10.662  14.473  11.969
39330SOL     OW19886   5.869   0.193   9.184
39330SOL    HW119887   5.896   0.179   9.093
39330SOL    HW219888   5.950   0.187   9.234
39331SOL     OW19889   2.857   2.367  12.452
39331SOL    HW119890   2.784   2.428  12.443
39331SOL    HW219891   2.924   2.400  12.393
39332SOL     OW19892   8.587  12.183   6.664
39332SOL    HW119893   8.683  12.176   6.666
39332SOL    HW219894   8.560  12.120   6.597
39333SOL     OW19895   1.845   6.645   5.536
39333SOL    HW119896   1.926   6.695   5.526
39333SOL    HW219897   1.826   6.647   5.629
39334SOL     OW19898   9.105   1.214   8.380
39334SOL    HW119899   9.197   1.238   8.369
39334SOL    HW219900   9.088   1.149   8.311
39335SOL     OW19901   6.287  14.118  10.686
39335SOL    HW119902   6.230  14.093  10.613
39335SOL    HW219903   6.274  14.049  10.751
39336SOL     OW19904  14.424   7.348  12.295
39336SOL    HW119905  14.409   7.270  12.349
39336SOL    HW219906  14.407   7.319  12.206
39337SOL     OW19907   2.433   2.117   9.371
39337SOL    HW119908   2.445   2.205   9.336
39337SOL    HW219909   2.492   2.114   9.447
39338SOL     OW19910  14.807   6.070   5.657
39338SOL    HW119911   0.015   6.085   5.624
39338SOL    HW219912  14.750   6.085   5.581
39339SOL     OW19913  12.738   9.459  12.275
39339SOL    HW119914  12.653   9.479  12.237
39339SOL    HW219915  12.785   9.542  12.275
39340SOL     OW19916   4.128   9.782  12.531
39340SOL    HW119917   4.153   9.839  12.604
39340SOL    HW219918   4.209   9.770  12.482
39341SOL     OW19919  10.294  11.800  10.796
39341SOL    HW119920  10.371  11.783  10.742
39341SOL    HW219921  10.272  11.892  10.780
39342SOL     OW19922   8.046   2.400   2.518
39342SOL    HW119923   7.966   2.428   2.473
39342SOL    HW219924   8.100   2.478   2.522
39343SOL     OW19925   7.580   3.838   9.965
39343SOL    HW119926   7.509   3.864   9.906
39343SOL    HW219927   7.606   3.751   9.936
39344SOL     OW19928   8.419   8.997   0.721
39344SOL    HW119929   8.365   8.918   0.717
39344SOL    HW219930   8.377   9.057   0.659
39345SOL     OW19931   5.538   0.463  14.748
39345SOL    HW119932   5.446   0.452  14.726
39345SOL    HW219933   5.538   0.526  14.820
39346SOL     OW19934  13.903   6.766   1.388
39346SOL    HW119935  13.949   6.777   1.305
39346SOL    HW219936  13.932   6.681   1.420
39347SOL     OW19937   8.913  14.854   4.640
39347SOL    HW119938   8.887  14.867   4.549
39347SOL    HW219939   8.833  14.823   4.683
39348SOL     OW19940   8.562   8.857   2.776
39348SOL    HW119941   8.650   8.851   2.740
39348SOL    HW219942   8.514   8.913   2.715
39349SOL     OW19943   6.093   3.514   7.254
39349SOL    HW119944   6.101   3.579   7.183
39349SOL    HW219945   6.067   3.565   7.330
39350SOL     OW19946   4.238  10.309   5.476
39350SOL    HW119947   4.171  10.294   5.409
39350SOL    HW219948   4.242  10.404   5.485
39351SOL     OW19949  11.296   3.058   7.710
39351SOL    HW119950  11.369   3.003   7.739
39351SOL    HW219951  11.335   3.145   7.698
39352SOL     OW19952   3.815  12.423  13.528
39352SOL    HW119953   3.771  12.436  13.612
39352SOL    HW219954   3.811  12.508  13.485
39353SOL     OW19955  11.901  10.052  13.089
39353SOL    HW119956  11.813  10.079  13.115
39353SOL    HW219957  11.920   9.976  13.145
39354SOL     OW19958   5.002  14.743  14.530
39354SOL    HW119959   5.081  14.690  14.521
39354SOL    HW219960   5.032  14.833  14.525
39355SOL     OW19961   1.574  13.199   3.620
39355SOL    HW119962   1.490  13.219   3.581
39355SOL    HW219963   1.568  13.107   3.646
39356SOL     OW19964  10.207   0.898   8.454
39356SOL    HW119965  10.228   0.988   8.428
39356SOL    HW219966  10.209   0.900   8.550
39357SOL     OW19967  14.458  14.207  12.750
39357SOL    HW119968  14.395  14.231  12.683
39357SOL    HW219969  14.542  14.199  12.704
39358SOL     OW19970  12.030   2.998   9.756
39358SOL    HW119971  11.957   2.943   9.727
39358SOL    HW219972  12.105   2.966   9.707
39359SOL     OW19973  10.149   4.783  11.990
39359SOL    HW119974  10.238   4.747  11.983
39359SOL    HW219975  10.148   4.828  12.074
39360SOL     OW19976   9.460   4.892   2.321
39360SOL    HW119977   9.468   4.802   2.290
39360SOL    HW219978   9.540   4.906   2.372
39361SOL     OW19979   3.762   4.679   2.947
39361SOL    HW119980   3.751   4.758   2.894
39361SOL    HW219981   3.855   4.679   2.972
39362SOL     OW19982  10.255  11.046   7.234
39362SOL    HW119983  10.328  11.101   7.261
39362SOL    HW219984  10.250  10.977   7.300
39363SOL     OW19985   9.881  10.134   6.536
39363SOL    HW119986   9.950  10.158   6.598
39363SOL    HW219987   9.809  10.195   6.555
39364SOL     OW19988   0.981   4.993   9.922
39364SOL    HW119989   0.909   5.035   9.969
39364SOL    HW219990   1.060   5.034   9.958
39365SOL     OW19991  13.988   7.738  12.573
39365SOL    HW119992  14.067   7.782  12.604
39365SOL    HW219993  13.998   7.734  12.477
39366SOL     OW19994   2.999   8.442   6.407
39366SOL    HW119995   3.058   8.488   6.467
39366SOL    HW219996   2.968   8.510   6.347
39367SOL     OW19997   4.893   3.740   1.607
39367SOL    HW119998   4.810   3.787   1.605
39367SOL    HW219999   4.923   3.748   1.698
39368SOL     OW20000   5.120  14.727   9.036
39368SOL    HW120001   5.182  14.800   9.028
39368SOL    HW220002   5.075  14.743   9.119
39369SOL     OW20003   0.838   1.219   9.143
39369SOL    HW120004   0.779   1.239   9.216
39369SOL    HW220005   0.798   1.263   9.068
39370SOL     OW20006  11.537   2.810   0.031
39370SOL    HW120007  11.455   2.761   0.031
39370SOL    HW220008  11.526   2.876  14.843
39371SOL     OW20009   1.611  14.866   0.545
39371SOL    HW120010   1.687  14.818   0.576
39371SOL    HW220011   1.647   0.053   0.487
39372SOL     OW20012   6.777  13.612   3.913
39372SOL    HW120013   6.868  13.637   3.894
39372SOL    HW220014   6.782  13.564   3.995
39373SOL     OW20015   9.304  10.972   6.013
39373SOL    HW120016   9.394  10.966   6.045
39373SOL    HW220017   9.308  11.042   5.947
39374SOL     OW20018   2.320   5.099   4.228
39374SOL    HW120019   2.336   5.004   4.230
39374SOL    HW220020   2.330   5.122   4.136
39375SOL     OW20021  11.540   7.089   4.024
39375SOL    HW120022  11.568   7.100   3.933
39375SOL    HW220023  11.586   7.158   4.072
39376SOL     OW20024   4.696   5.530   0.849
39376SOL    HW120025   4.664   5.479   0.775
39376SOL    HW220026   4.643   5.610   0.847
39377SOL     OW20027   7.052  14.443   8.364
39377SOL    HW120028   6.981  14.474   8.307
39377SOL    HW220029   7.011  14.375   8.417
39378SOL     OW20030  11.273  10.260  13.318
39378SOL    HW120031  11.190  10.306  13.324
39378SOL    HW220032  11.335  10.316  13.366
39379SOL     OW20033   6.463  11.860  14.480
39379SOL    HW120034   6.501  11.804  14.413
39379SOL    HW220035   6.379  11.887  14.444
39380SOL     OW20036   7.886   6.180   2.905
39380SOL    HW120037   7.829   6.256   2.913
39380SOL    HW220038   7.942   6.183   2.983
39381SOL     OW20039   0.961  12.058   3.839
39381SOL    HW120040   0.870  12.050   3.866
39381SOL    HW220041   0.978  11.979   3.788
39382SOL     OW20042   0.848   2.008  10.872
39382SOL    HW120043   0.873   1.979  10.960
39382SOL    HW220044   0.914   1.969  10.814
39383SOL     OW20045  13.040   1.524  12.093
39383SOL    HW120046  13.127   1.485  12.084
39383SOL    HW220047  13.057   1.617  12.109
39384SOL     OW20048  14.636  13.191  12.978
39384SOL    HW120049  14.709  13.231  13.026
39384SOL    HW220050  14.663  13.101  12.963
39385SOL     OW20051   4.558   4.452  10.489
39385SOL    HW120052   4.552   4.362  10.521
39385SOL    HW220053   4.542   4.506  10.567
39386SOL     OW20054   5.988   5.270   3.727
39386SOL    HW120055   6.072   5.240   3.763
39386SOL    HW220056   6.012   5.319   3.648
39387SOL     OW20057   1.224  11.826   6.055
39387SOL    HW120058   1.175  11.845   6.135
39387SOL    HW220059   1.182  11.880   5.988
39388SOL     OW20060   6.696  11.374   9.505
39388SOL    HW120061   6.746  11.332   9.575
39388SOL    HW220062   6.750  11.449   9.479
39389SOL     OW20063   6.840   9.917   4.718
39389SOL    HW120064   6.904   9.895   4.786
39389SOL    HW220065   6.758   9.879   4.750
39390SOL     OW20066  12.806  12.352   0.629
39390SOL    HW120067  12.712  12.339   0.615
39390SOL    HW220068  12.837  12.392   0.548
39391SOL     OW20069  11.135  13.594  13.100
39391SOL    HW120070  11.052  13.578  13.146
39391SOL    HW220071  11.109  13.620  13.012
39392SOL     OW20072   2.162   1.814   5.707
39392SOL    HW120073   2.153   1.816   5.611
39392SOL    HW220074   2.251   1.846   5.723
39393SOL     OW20075  10.642   6.968  10.691
39393SOL    HW120076  10.655   6.918  10.771
39393SOL    HW220077  10.681   7.054  10.709
39394SOL     OW20078  10.874   3.671   4.409
39394SOL    HW120079  10.793   3.710   4.442
39394SOL    HW220080  10.854   3.578   4.403
39395SOL     OW20081  10.760   7.630   0.598
39395SOL    HW120082  10.752   7.722   0.573
39395SOL    HW220083  10.787   7.632   0.689
39396SOL     OW20084  13.025   3.807  11.507
39396SOL    HW120085  12.964   3.768  11.445
39396SOL    HW220086  13.109   3.809  11.461
39397SOL     OW20087   8.097   4.687   7.074
39397SOL    HW120088   8.132   4.709   6.988
39397SOL    HW220089   8.039   4.612   7.058
39398SOL     OW20090   2.541   2.367   1.751
39398SOL    HW120091   2.574   2.280   1.728
39398SOL    HW220092   2.474   2.350   1.818
39399SOL     OW20093  12.014   9.776  12.806
39399SOL    HW120094  11.957   9.737  12.872
39399SOL    HW220095  12.067   9.703  12.775
39400SOL     OW20096   7.329   4.189   2.592
39400SOL    HW120097   7.248   4.202   2.641
39400SOL    HW220098   7.386   4.141   2.652
39401SOL     OW20099  13.003   5.703  11.271
39401SOL    HW120100  12.976   5.794  11.285
39401SOL    HW220101  12.922   5.659  11.244
39402SOL     OW20102   8.823  13.686   8.618
39402SOL    HW120103   8.900  13.640   8.651
39402SOL    HW220104   8.825  13.770   8.664
39403SOL     OW20105  12.516   2.390   2.412
39403SOL    HW120106  12.590   2.416   2.467
39403SOL    HW220107  12.518   2.453   2.339
39404SOL     OW20108   6.848  12.757  12.522
39404SOL    HW120109   6.860  12.816  12.596
39404SOL    HW220110   6.805  12.810  12.455
39405SOL     OW20111   6.349   0.652   7.745
39405SOL    HW120112   6.344   0.578   7.805
39405SOL    HW220113   6.415   0.710   7.783
39406SOL     OW20114   5.313  12.267   2.225
39406SOL    HW120115   5.393  12.251   2.176
39406SOL    HW220116   5.342  12.311   2.305
39407SOL     OW20117   3.348   3.198   0.974
39407SOL    HW120118   3.380   3.190   0.885
39407SOL    HW220119   3.391   3.127   1.022
39408SOL     OW20120   7.738   9.499   6.865
39408SOL    HW120121   7.789   9.573   6.898
39408SOL    HW220122   7.649   9.534   6.857
39409SOL     OW20123   0.442   6.238   8.106
39409SOL    HW120124   0.519   6.256   8.161
39409SOL    HW220125   0.390   6.318   8.111
39410SOL     OW20126   2.578   2.865   4.218
39410SOL    HW120127   2.505   2.880   4.278
39410SOL    HW220128   2.603   2.953   4.189
39411SOL     OW20129   3.486  14.600   9.818
39411SOL    HW120130   3.526  14.581   9.903
39411SOL    HW220131   3.555  14.644   9.768
39412SOL     OW20132   2.607  12.951  10.461
39412SOL    HW120133   2.648  12.869  10.433
39412SOL    HW220134   2.527  12.923  10.505
39413SOL     OW20135   7.486   2.980   2.120
39413SOL    HW120136   7.546   2.927   2.173
39413SOL    HW220137   7.403   2.933   2.124
39414SOL     OW20138  13.039  13.081   1.433
39414SOL    HW120139  13.094  13.015   1.391
39414SOL    HW220140  12.983  13.113   1.363
39415SOL     OW20141  13.484   4.425   1.580
39415SOL    HW120142  13.437   4.342   1.579
39415SOL    HW220143  13.576   4.399   1.595
39416SOL     OW20144   3.175   3.151  14.598
39416SOL    HW120145   3.242   3.166  14.664
39416SOL    HW220146   3.201   3.069  14.555
39417SOL     OW20147  13.985   0.097  12.011
39417SOL    HW120148  14.055   0.144  11.965
39417SOL    HW220149  14.032   0.035  12.067
39418SOL     OW20150   8.858   4.132  12.559
39418SOL    HW120151   8.907   4.053  12.579
39418SOL    HW220152   8.921   4.190  12.517
39419SOL     OW20153   0.317   2.423  10.793
39419SOL    HW120154   0.236   2.392  10.753
39419SOL    HW220155   0.310   2.518  10.793
39420SOL     OW20156   0.746   7.043  10.737
39420SOL    HW120157   0.752   6.960  10.690
39420SOL    HW220158   0.720   7.020  10.826
39421SOL     OW20159   7.127   4.742   1.292
39421SOL    HW120160   7.167   4.765   1.209
39421SOL    HW220161   7.200   4.709   1.346
39422SOL     OW20162  12.354  10.740  13.772
39422SOL    HW120163  12.291  10.684  13.726
39422SOL    HW220164  12.301  10.794  13.830
39423SOL     OW20165   2.034   6.691  10.194
39423SOL    HW120166   2.117   6.700  10.147
39423SOL    HW220167   2.006   6.602  10.176
39424SOL     OW20168   7.255  12.184   9.227
39424SOL    HW120169   7.223  12.270   9.254
39424SOL    HW220170   7.184  12.147   9.174
39425SOL     OW20171   8.325  12.593   1.417
39425SOL    HW120172   8.313  12.545   1.336
39425SOL    HW220173   8.288  12.680   1.398
39426SOL     OW20174   4.420  12.168  13.162
39426SOL    HW120175   4.488  12.228  13.131
39426SOL    HW220176   4.372  12.143  13.083
39427SOL     OW20177   7.216  14.535   6.922
39427SOL    HW120178   7.167  14.453   6.930
39427SOL    HW220179   7.157  14.602   6.956
39428SOL     OW20180  10.029  10.583   0.067
39428SOL    HW120181  10.021  10.488   0.062
39428SOL    HW220182  10.085  10.606  14.873
39429SOL     OW20183   5.456   1.340   9.326
39429SOL    HW120184   5.397   1.279   9.370
39429SOL    HW220185   5.534   1.342   9.380
39430SOL     OW20186   1.419   1.696   5.163
39430SOL    HW120187   1.352   1.634   5.134
39430SOL    HW220188   1.443   1.666   5.251
39431SOL     OW20189   0.588  14.126  14.371
39431SOL    HW120190   0.669  14.084  14.401
39431SOL    HW220191   0.599  14.218  14.394
39432SOL     OW20192   9.135  11.170   3.624
39432SOL    HW120193   9.165  11.146   3.536
39432SOL    HW220194   9.042  11.148   3.624
39433SOL     OW20195   9.923   7.715  12.490
39433SOL    HW120196   9.876   7.782  12.540
39433SOL    HW220197  10.012   7.749  12.483
39434SOL     OW20198   9.707   7.230  14.252
39434SOL    HW120199   9.770   7.228  14.179
39434SOL    HW220200   9.622   7.221  14.210
39435SOL     OW20201   5.306  10.521   7.178
39435SOL    HW120202   5.350  10.457   7.234
39435SOL    HW220203   5.289  10.474   7.096
39436SOL     OW20204  10.951   7.121   3.698
39436SOL    HW120205  10.950   7.039   3.748
39436SOL    HW220206  10.876   7.170   3.731
39437SOL     OW20207   5.954   9.309  14.434
39437SOL    HW120208   6.040   9.268  14.429
39437SOL    HW220209   5.971   9.398  14.464
39438SOL     OW20210  10.283   4.174  11.288
39438SOL    HW120211  10.323   4.090  11.264
39438SOL    HW220212  10.347   4.240  11.260
39439SOL     OW20213  10.793   5.747  14.820
39439SOL    HW120214  10.775   5.681   0.007
39439SOL    HW220215  10.821   5.824  14.868
39440SOL     OW20216   9.538  13.722  14.128
39440SOL    HW120217   9.491  13.803  14.146
39440SOL    HW220218   9.539  13.676  14.211
39441SOL     OW20219  10.442   0.705  13.083
39441SOL    HW120220  10.443   0.765  13.158
39441SOL    HW220221  10.425   0.619  13.122
39442SOL     OW20222   6.856   7.049  11.718
39442SOL    HW120223   6.818   6.990  11.653
39442SOL    HW220224   6.941   7.074  11.680
39443SOL     OW20225   7.333  12.941   8.077
39443SOL    HW120226   7.268  12.990   8.127
39443SOL    HW220227   7.323  12.851   8.108
39444SOL     OW20228  14.387   9.812   7.029
39444SOL    HW120229  14.401   9.887   6.971
39444SOL    HW220230  14.443   9.829   7.105
39445SOL     OW20231   7.056  10.472   9.262
39445SOL    HW120232   6.981  10.484   9.204
39445SOL    HW220233   7.110  10.406   9.219
39446SOL     OW20234   8.737  13.713  13.298
39446SOL    HW120235   8.727  13.628  13.256
39446SOL    HW220236   8.770  13.771  13.229
39447SOL     OW20237   3.183   5.003   9.424
39447SOL    HW120238   3.269   5.047   9.420
39447SOL    HW220239   3.164   4.996   9.517
39448SOL     OW20240   0.256  11.031   9.077
39448SOL    HW120241   0.276  11.068   9.163
39448SOL    HW220242   0.335  11.046   9.025
39449SOL     OW20243   6.051  14.693   6.062
39449SOL    HW120244   5.983  14.648   6.113
39449SOL    HW220245   6.015  14.698   5.974
39450SOL     OW20246   1.594  14.174   2.128
39450SOL    HW120247   1.575  14.236   2.058
39450SOL    HW220248   1.548  14.210   2.204
39451SOL     OW20249  14.339  13.537   1.416
39451SOL    HW120250  14.293  13.555   1.334
39451SOL    HW220251  14.389  13.617   1.433
39452SOL     OW20252   9.477   3.930   5.098
39452SOL    HW120253   9.563   3.949   5.061
39452SOL    HW220254   9.467   3.835   5.089
39453SOL     OW20255   4.589   1.212  10.489
39453SOL    HW120256   4.599   1.118  10.476
39453SOL    HW220257   4.663   1.237  10.544
39454SOL     OW20258  11.496   8.175   8.826
39454SOL    HW120259  11.470   8.093   8.783
39454SOL    HW220260  11.461   8.244   8.770
39455SOL     OW20261   2.906   9.152   8.724
39455SOL    HW120262   2.962   9.221   8.760
39455SOL    HW220263   2.842   9.198   8.670
39456SOL     OW20264   8.527   0.680   7.661
39456SOL    HW120265   8.592   0.705   7.726
39456SOL    HW220266   8.543   0.587   7.645
39457SOL     OW20267  11.269   9.880   1.290
39457SOL    HW120268  11.331   9.932   1.240
39457SOL    HW220269  11.187   9.888   1.242
39458SOL     OW20270   7.604   3.183  12.294
39458SOL    HW120271   7.614   3.261  12.349
39458SOL    HW220272   7.624   3.214  12.206
39459SOL     OW20273  11.876   3.301   4.235
39459SOL    HW120274  11.781   3.301   4.247
39459SOL    HW220275  11.906   3.223   4.283
39460SOL     OW20276   2.895  12.682   4.879
39460SOL    HW120277   2.857  12.634   4.953
39460SOL    HW220278   2.826  12.681   4.812
39461SOL     OW20279   4.106   4.778   8.201
39461SOL    HW120280   4.092   4.690   8.237
39461SOL    HW220281   4.143   4.828   8.273
39462SOL     OW20282   9.584  11.706   7.327
39462SOL    HW120283   9.653  11.673   7.385
39462SOL    HW220284   9.514  11.641   7.333
39463SOL     OW20285   7.477   4.443   3.577
39463SOL    HW120286   7.472   4.531   3.540
39463SOL    HW220287   7.413   4.392   3.527
39464SOL     OW20288   9.804   5.176   4.096
39464SOL    HW120289   9.721   5.145   4.060
39464SOL    HW220290   9.785   5.192   4.189
39465SOL     OW20291  13.379  11.655  12.243
39465SOL    HW120292  13.316  11.585  12.256
39465SOL    HW220293  13.394  11.691  12.330
39466SOL     OW20294   1.637   5.683  12.358
39466SOL    HW120295   1.704   5.708  12.421
39466SOL    HW220296   1.686   5.647  12.284
39467SOL     OW20297   1.190  10.874   2.194
39467SOL    HW120298   1.197  10.931   2.271
39467SOL    HW220299   1.265  10.897   2.140
39468SOL     OW20300   3.700   8.870   5.085
39468SOL    HW120301   3.712   8.790   5.135
39468SOL    HW220302   3.638   8.922   5.135
39469SOL     OW20303  11.436  11.336   1.451
39469SOL    HW120304  11.522  11.300   1.427
39469SOL    HW220305  11.415  11.398   1.381
39470SOL     OW20306   2.653  12.865   2.471
39470SOL    HW120307   2.743  12.862   2.504
39470SOL    HW220308   2.615  12.943   2.511
39471SOL     OW20309   0.779  13.957   1.701
39471SOL    HW120310   0.815  14.011   1.771
39471SOL    HW220311   0.685  13.959   1.715
39472SOL     OW20312   8.836  11.431   6.159
39472SOL    HW120313   8.817  11.395   6.246
39472SOL    HW220314   8.751  11.457   6.124
39473SOL     OW20315   4.049   7.740   4.545
39473SOL    HW120316   3.986   7.792   4.596
39473SOL    HW220317   4.117   7.802   4.521
39474SOL     OW20318  14.219  13.730  11.497
39474SOL    HW120319  14.247  13.696  11.413
39474SOL    HW220320  14.138  13.682  11.517
39475SOL     OW20321   9.263  11.332   6.535
39475SOL    HW120322   9.352  11.306   6.510
39475SOL    HW220323   9.224  11.251   6.567
39476SOL     OW20324   1.148  11.697   0.383
39476SOL    HW120325   1.154  11.688   0.478
39476SOL    HW220326   1.239  11.710   0.355
39477SOL     OW20327  14.222   7.842  13.777
39477SOL    HW120328  14.205   7.793  13.697
39477SOL    HW220329  14.316   7.856  13.777
39478SOL     OW20330   3.036   3.508   2.796
39478SOL    HW120331   3.014   3.601   2.797
39478SOL    HW220332   3.083   3.495   2.713
39479SOL     OW20333  10.129   7.283   7.579
39479SOL    HW120334  10.202   7.338   7.550
39479SOL    HW220335  10.100   7.238   7.499
39480SOL     OW20336   2.265  14.182   9.673
39480SOL    HW120337   2.268  14.265   9.624
39480SOL    HW220338   2.172  14.157   9.672
39481SOL     OW20339  10.251   0.775   8.069
39481SOL    HW120340  10.330   0.788   8.017
39481SOL    HW220341  10.204   0.705   8.025
39482SOL     OW20342   5.355   3.629   0.675
39482SOL    HW120343   5.418   3.615   0.604
39482SOL    HW220344   5.270   3.632   0.632
39483SOL     OW20345  14.062   1.095  13.136
39483SOL    HW120346  14.060   1.010  13.179
39483SOL    HW220347  14.111   1.151  13.196
39484SOL     OW20348  14.787   1.481  14.841
39484SOL    HW120349  14.765   1.518   0.046
39484SOL    HW220350  14.710   1.499  14.787
39485SOL     OW20351   9.998   1.634   1.126
39485SOL    HW120352  10.027   1.561   1.071
39485SOL    HW220353  10.008   1.711   1.069
39486SOL     OW20354   9.853   4.607  12.608
39486SOL    HW120355   9.793   4.603  12.533
39486SOL    HW220356   9.813   4.670  12.668
39487SOL     OW20357   1.481   1.853   9.168
39487SOL    HW120358   1.471   1.758   9.173
39487SOL    HW220359   1.576   1.867   9.158
39488SOL     OW20360  13.334   3.105  10.571
39488SOL    HW120361  13.344   3.143  10.484
39488SOL    HW220362  13.297   3.176  10.624
39489SOL     OW20363   1.832   5.361  12.400
39489SOL    HW120364   1.876   5.445  12.411
39489SOL    HW220365   1.890   5.297  12.441
39490SOL     OW20366  13.037  11.321   6.665
39490SOL    HW120367  12.959  11.268   6.646
39490SOL    HW220368  13.055  11.304   6.758
39491SOL     OW20369   9.956   0.484  11.908
39491SOL    HW120370   9.877   0.538  11.914
39491SOL    HW220371  10.026   0.546  11.887
39492SOL     OW20372  10.197  11.529  14.167
39492SOL    HW120373  10.115  11.481  14.180
39492SOL    HW220374  10.170  11.621  14.164
39493SOL     OW20375   3.007   1.989   1.662
39493SOL    HW120376   3.057   1.922   1.708
39493SOL    HW220377   3.030   2.071   1.707
39494SOL     OW20378   7.040   9.229   0.590
39494SOL    HW120379   7.105   9.215   0.658
39494SOL    HW220380   7.009   9.141   0.568
39495SOL     OW20381   7.765  14.714   6.113
39495SOL    HW120382   7.808  14.646   6.164
39495SOL    HW220383   7.709  14.667   6.051
39496SOL     OW20384   4.825   0.001   6.129
39496SOL    HW120385   4.817  14.879   6.224
39496SOL    HW220386   4.736   0.019   6.098
39497SOL     OW20387   0.658   1.032  12.669
39497SOL    HW120388   0.627   0.941  12.663
39497SOL    HW220389   0.649   1.054  12.762
39498SOL     OW20390   9.568  14.430  11.834
39498SOL    HW120391   9.651  14.403  11.872
39498SOL    HW220392   9.508  14.436  11.908
39499SOL     OW20393  12.019   2.675   8.780
39499SOL    HW120394  11.955   2.620   8.735
39499SOL    HW220395  11.968   2.746   8.818
39500SOL     OW20396   3.435   6.579  12.523
39500SOL    HW120397   3.351   6.620  12.542
39500SOL    HW220398   3.413   6.492  12.491
39501SOL     OW20399   6.344   8.692  13.587
39501SOL    HW120400   6.379   8.771  13.628
39501SOL    HW220401   6.315   8.638  13.661
39502SOL     OW20402   0.365  10.052  13.370
39502SOL    HW120403   0.355  10.131  13.423
39502SOL    HW220404   0.394   9.985  13.433
39503SOL     OW20405  13.750   4.039   9.528
39503SOL    HW120406  13.687   4.110   9.531
39503SOL    HW220407  13.824   4.071   9.580
39504SOL     OW20408  13.336  12.667  14.835
39504SOL    HW120409  13.373  12.581  14.858
39504SOL    HW220410  13.384  12.693  14.757
39505SOL     OW20411   9.145   3.596   8.615
39505SOL    HW120412   9.214   3.529   8.616
39505SOL    HW220413   9.122   3.608   8.707
39506SOL     OW20414   4.501  10.199  10.470
39506SOL    HW120415   4.593  10.225  10.466
39506SOL    HW220416   4.500  10.108  10.442
39507SOL     OW20417   8.169  13.559   4.068
39507SOL    HW120418   8.102  13.519   4.124
39507SOL    HW220419   8.243  13.498   4.072
39508SOL     OW20420  13.784   4.654   3.008
39508SOL    HW120421  13.693   4.632   2.990
39508SOL    HW220422  13.831   4.630   2.928
39509SOL     OW20423   4.200   4.212  11.901
39509SOL    HW120424   4.289   4.246  11.909
39509SOL    HW220425   4.145   4.290  11.893
39510SOL     OW20426   3.625  13.612   5.950
39510SOL    HW120427   3.628  13.516   5.952
39510SOL    HW220428   3.683  13.636   5.878
39511SOL     OW20429   1.297   0.692   4.745
39511SOL    HW120430   1.336   0.675   4.660
39511SOL    HW220431   1.370   0.723   4.799
39512SOL     OW20432   9.502   4.541   3.677
39512SOL    HW120433   9.515   4.622   3.628
39512SOL    HW220434   9.588   4.498   3.675
39513SOL     OW20435   6.782   1.495  11.712
39513SOL    HW120436   6.720   1.561  11.743
39513SOL    HW220437   6.787   1.431  11.784
39514SOL     OW20438   6.701   4.141   1.463
39514SOL    HW120439   6.786   4.173   1.432
39514SOL    HW220440   6.670   4.085   1.393
39515SOL     OW20441  11.020   1.553  14.118
39515SOL    HW120442  10.926   1.555  14.099
39515SOL    HW220443  11.052   1.639  14.094
39516SOL     OW20444   8.706   8.041   2.326
39516SOL    HW120445   8.789   8.068   2.366
39516SOL    HW220446   8.641   8.056   2.394
39517SOL     OW20447   0.986   2.382   9.846
39517SOL    HW120448   0.969   2.341   9.931
39517SOL    HW220449   1.069   2.429   9.858
39518SOL     OW20450   0.900   4.416   1.019
39518SOL    HW120451   0.807   4.426   1.003
39518SOL    HW220452   0.925   4.495   1.067
39519SOL     OW20453   2.750   2.702  13.026
39519SOL    HW120454   2.681   2.647  12.989
39519SOL    HW220455   2.732   2.704  13.120
39520SOL     OW20456   1.837   2.108  12.992
39520SOL    HW120457   1.898   2.131  12.923
39520SOL    HW220458   1.888   2.113  13.073
39521SOL     OW20459   2.750  14.352   6.385
39521SOL    HW120460   2.716  14.316   6.466
39521SOL    HW220461   2.844  14.331   6.386
39522SOL     OW20462   0.498   6.719   3.751
39522SOL    HW120463   0.492   6.814   3.754
39522SOL    HW220464   0.531   6.694   3.837
39523SOL     OW20465   7.359   3.583   5.241
39523SOL    HW120466   7.293   3.527   5.283
39523SOL    HW220467   7.351   3.667   5.286
39524SOL     OW20468   9.250   1.663   9.125
39524SOL    HW120469   9.215   1.574   9.114
39524SOL    HW220470   9.338   1.650   9.158
39525SOL     OW20471   1.239  13.245   5.674
39525SOL    HW120472   1.146  13.227   5.691
39525SOL    HW220473   1.249  13.227   5.580
39526SOL     OW20474   0.069   0.390  12.492
39526SOL    HW120475  14.868   0.362  12.534
39526SOL    HW220476   0.138   0.356  12.549
39527SOL     OW20477   9.999   6.748   0.830
39527SOL    HW120478   9.960   6.727   0.915
39527SOL    HW220479   9.953   6.827   0.801
39528SOL     OW20480  13.197   8.254  13.083
39528SOL    HW120481  13.177   8.215  12.997
39528SOL    HW220482  13.231   8.182  13.135
39529SOL     OW20483   2.160   4.777  13.452
39529SOL    HW120484   2.171   4.842  13.522
39529SOL    HW220485   2.089   4.721  13.483
39530SOL     OW20486   4.033  11.339  13.942
39530SOL    HW120487   4.091  11.279  13.989
39530SOL    HW220488   4.042  11.314  13.850
39531SOL     OW20489   4.570   9.855  11.059
39531SOL    HW120490   4.578   9.945  11.089
39531SOL    HW220491   4.660   9.825  11.046
39532SOL     OW20492  12.076   1.958   7.307
39532SOL    HW120493  11.985   1.983   7.325
39532SOL    HW220494  12.073   1.863   7.298
39533SOL     OW20495   2.964   1.236   7.063
39533SOL    HW120496   3.043   1.227   7.116
39533SOL    HW220497   2.918   1.311   7.101
39534SOL     OW20498   1.683  13.269   8.559
39534SOL    HW120499   1.629  13.348   8.561
39534SOL    HW220500   1.640  13.208   8.619
39535SOL     OW20501   7.695  13.093   0.639
39535SOL    HW120502   7.750  13.116   0.714
39535SOL    HW220503   7.741  13.128   0.563
39536SOL     OW20504   9.529   1.563  10.355
39536SOL    HW120505   9.592   1.618  10.309
39536SOL    HW220506   9.529   1.480  10.308
39537SOL     OW20507   7.401   9.239   4.477
39537SOL    HW120508   7.469   9.262   4.539
39537SOL    HW220509   7.422   9.289   4.398
39538SOL     OW20510   4.615   8.483   7.058
39538SOL    HW120511   4.535   8.452   7.017
39538SOL    HW220512   4.640   8.561   7.007
39539SOL     OW20513   3.615  13.451   7.198
39539SOL    HW120514   3.673  13.409   7.262
39539SOL    HW220515   3.665  13.527   7.168
39540SOL     OW20516  13.890  11.913   7.051
39540SOL    HW120517  13.842  11.966   6.988
39540SOL    HW220518  13.958  11.972   7.084
39541SOL     OW20519   9.470  14.635  13.011
39541SOL    HW120520   9.507  14.582  13.082
39541SOL    HW220521   9.427  14.572  12.953
39542SOL     OW20522   8.116   2.866   5.623
39542SOL    HW120523   8.117   2.776   5.590
39542SOL    HW220524   8.051   2.910   5.569
39543SOL     OW20525   1.598   8.433   5.131
39543SOL    HW120526   1.574   8.434   5.224
39543SOL    HW220527   1.693   8.421   5.131
39544SOL     OW20528  10.973   0.496  12.934
39544SOL    HW120529  10.890   0.449  12.928
39544SOL    HW220530  10.948   0.588  12.943
39545SOL     OW20531   6.080  13.364  13.076
39545SOL    HW120532   6.094  13.274  13.046
39545SOL    HW220533   5.998  13.390  13.036
39546SOL     OW20534  10.102   3.044  12.064
39546SOL    HW120535  10.098   2.978  12.133
39546SOL    HW220536  10.188   3.086  12.076
39547SOL     OW20537   8.924   4.427  10.928
39547SOL    HW120538   9.003   4.440  10.979
39547SOL    HW220539   8.874   4.508  10.941
39548SOL     OW20540  13.161   5.634  12.351
39548SOL    HW120541  13.074   5.673  12.336
39548SOL    HW220542  13.194   5.615  12.263
39549SOL     OW20543  12.077  11.207   9.146
39549SOL    HW120544  11.999  11.152   9.152
39549SOL    HW220545  12.144  11.160   9.195
39550SOL     OW20546   5.109   2.439   3.077
39550SOL    HW120547   5.159   2.520   3.071
39550SOL    HW220548   5.061   2.446   3.159
39551SOL     OW20549  11.278   0.868  12.205
39551SOL    HW120550  11.272   0.949  12.256
39551SOL    HW220551  11.369   0.865  12.177
39552SOL     OW20552   9.695   3.865   6.818
39552SOL    HW120553   9.697   3.951   6.776
39552SOL    HW220554   9.605   3.834   6.806
39553SOL     OW20555  13.419  11.345  12.037
39553SOL    HW120556  13.452  11.432  12.060
39553SOL    HW220557  13.414  11.346  11.942
39554SOL     OW20558  13.956   8.182   3.435
39554SOL    HW120559  14.041   8.147   3.461
39554SOL    HW220560  13.918   8.215   3.517
39555SOL     OW20561   3.455   0.704   8.970
39555SOL    HW120562   3.462   0.609   8.978
39555SOL    HW220563   3.363   0.720   8.948
39556SOL     OW20564  12.466   1.232   5.595
39556SOL    HW120565  12.475   1.178   5.674
39556SOL    HW220566  12.373   1.231   5.576
39557SOL     OW20567   0.429   5.671   4.579
39557SOL    HW120568   0.369   5.656   4.652
39557SOL    HW220569   0.512   5.694   4.621
39558SOL     OW20570  14.464   8.153   1.065
39558SOL    HW120571  14.394   8.133   1.128
39558SOL    HW220572  14.423   8.213   1.002
39559SOL     OW20573   6.005  11.749   6.651
39559SOL    HW120574   6.094  11.744   6.617
39559SOL    HW220575   5.979  11.658   6.665
39560SOL     OW20576   4.840   5.637   2.584
39560SOL    HW120577   4.836   5.733   2.585
39560SOL    HW220578   4.752   5.610   2.557
39561SOL     OW20579   7.351  14.434  14.284
39561SOL    HW120580   7.444  14.424  14.263
39561SOL    HW220581   7.308  14.437  14.199
39562SOL     OW20582  10.381   5.522   2.080
39562SOL    HW120583  10.382   5.616   2.097
39562SOL    HW220584  10.337   5.513   1.996
39563SOL     OW20585  10.009   6.474   8.419
39563SOL    HW120586  10.088   6.426   8.443
39563SOL    HW220587   9.960   6.413   8.364
39564SOL     OW20588   4.299  11.534   6.735
39564SOL    HW120589   4.253  11.590   6.673
39564SOL    HW220590   4.348  11.595   6.791
39565SOL     OW20591  10.512  14.766   4.170
39565SOL    HW120592  10.566  14.845   4.168
39565SOL    HW220593  10.483  14.754   4.079
39566SOL     OW20594   7.391  10.926  12.916
39566SOL    HW120595   7.392  10.834  12.890
39566SOL    HW220596   7.436  10.928  13.001
39567SOL     OW20597   3.398   3.680   5.161
39567SOL    HW120598   3.459   3.619   5.203
39567SOL    HW220599   3.324   3.626   5.133
39568SOL     OW20600   2.286   9.595   0.824
39568SOL    HW120601   2.289   9.534   0.897
39568SOL    HW220602   2.269   9.680   0.864
39569SOL     OW20603   1.112   7.179   1.589
39569SOL    HW120604   1.178   7.114   1.565
39569SOL    HW220605   1.157   7.239   1.649
39570SOL     OW20606   2.575   1.027   7.823
39570SOL    HW120607   2.507   1.035   7.889
39570SOL    HW220608   2.528   1.010   7.742
39571SOL     OW20609   4.071  12.838   7.890
39571SOL    HW120610   4.041  12.846   7.800
39571SOL    HW220611   3.996  12.869   7.942
39572SOL     OW20612  10.480   1.720  12.688
39572SOL    HW120613  10.530   1.741  12.767
39572SOL    HW220614  10.537   1.661  12.639
39573SOL     OW20615   4.489  10.816   8.987
39573SOL    HW120616   4.443  10.740   8.953
39573SOL    HW220617   4.423  10.863   9.039
39574SOL     OW20618  14.589  14.229   6.351
39574SOL    HW120619  14.616  14.252   6.440
39574SOL    HW220620  14.671  14.226   6.301
39575SOL     OW20621   7.562   9.348   3.289
39575SOL    HW120622   7.527   9.287   3.224
39575SOL    HW220623   7.587   9.293   3.363
39576SOL     OW20624  13.439   4.821   1.871
39576SOL    HW120625  13.497   4.748   1.849
39576SOL    HW220626  13.377   4.784   1.935
39577SOL     OW20627   3.402   6.328   7.568
39577SOL    HW120628   3.440   6.316   7.481
39577SOL    HW220629   3.463   6.284   7.628
39578SOL     OW20630   7.886   5.516  13.739
39578SOL    HW120631   7.908   5.425  13.758
39578SOL    HW220632   7.795   5.525  13.768
39579SOL     OW20633  12.385   8.580   9.426
39579SOL    HW120634  12.318   8.567   9.359
39579SOL    HW220635  12.467   8.555   9.385
39580SOL     OW20636   5.864  13.215  13.280
39580SOL    HW120637   5.796  13.213  13.212
39580SOL    HW220638   5.871  13.124  13.309
39581SOL     OW20639   5.107  13.971   8.810
39581SOL    HW120640   5.164  13.895   8.798
39581SOL    HW220641   5.079  13.966   8.901
39582SOL     OW20642   9.094   9.782   1.667
39582SOL    HW120643   9.144   9.781   1.749
39582SOL    HW220644   9.088   9.690   1.641
39583SOL     OW20645  11.380   9.099  13.464
39583SOL    HW120646  11.351   9.177  13.511
39583SOL    HW220647  11.432   9.050  13.528
39584SOL     OW20648   3.757  12.386   4.054
39584SOL    HW120649   3.851  12.403   4.051
39584SOL    HW220650   3.730  12.415   4.141
39585SOL     OW20651  10.092  10.086   3.180
39585SOL    HW120652  10.039  10.018   3.221
39585SOL    HW220653  10.082  10.071   3.086
39586SOL     OW20654   9.084   7.326  11.977
39586SOL    HW120655   9.179   7.331  11.988
39586SOL    HW220656   9.058   7.251  12.031
39587SOL     OW20657  13.045   7.354   8.585
39587SOL    HW120658  12.960   7.375   8.545
39587SOL    HW220659  13.098   7.432   8.572
39588SOL     OW20660   8.067   9.240   5.979
39588SOL    HW120661   8.085   9.161   5.928
39588SOL    HW220662   8.020   9.208   6.056
39589SOL     OW20663   3.083   8.264   8.885
39589SOL    HW120664   3.049   8.296   8.802
39589SOL    HW220665   3.073   8.337   8.945
39590SOL     OW20666  11.607   5.887   3.118
39590SOL    HW120667  11.696   5.922   3.123
39590SOL    HW220668  11.582   5.875   3.210
39591SOL     OW20669  12.582   6.854   5.082
39591SOL    HW120670  12.498   6.879   5.121
39591SOL    HW220671  12.569   6.867   4.988
39592SOL     OW20672   8.305   2.689   9.914
39592SOL    HW120673   8.263   2.658   9.994
39592SOL    HW220674   8.282   2.623   9.848
39593SOL     OW20675  14.323   7.910  14.412
39593SOL    HW120676  14.279   7.932  14.330
39593SOL    HW220677  14.304   7.983  14.470
39594SOL     OW20678  11.333  11.056  13.660
39594SOL    HW120679  11.279  10.977  13.664
39594SOL    HW220680  11.383  11.047  13.579
39595SOL     OW20681   9.344  13.415  12.209
39595SOL    HW120682   9.252  13.391  12.226
39595SOL    HW220683   9.341  13.507  12.186
39596SOL     OW20684  14.730   2.173  13.631
39596SOL    HW120685  14.736   2.081  13.656
39596SOL    HW220686  14.766   2.221  13.705
39597SOL     OW20687  12.357   2.085  11.222
39597SOL    HW120688  12.453   2.082  11.215
39597SOL    HW220689  12.339   2.058  11.312
39598SOL     OW20690   4.859   2.614  10.441
39598SOL    HW120691   4.910   2.657  10.510
39598SOL    HW220692   4.845   2.525  10.473
39599SOL     OW20693   3.633  11.150   9.507
39599SOL    HW120694   3.554  11.201   9.485
39599SOL    HW220695   3.663  11.117   9.423
39600SOL     OW20696   1.050  14.670   5.453
39600SOL    HW120697   1.014  14.611   5.387
39600SOL    HW220698   0.975  14.694   5.507
39601SOL     OW20699  13.951  14.362   1.990
39601SOL    HW120700  13.898  14.377   1.911
39601SOL    HW220701  14.002  14.443   2.000
39602SOL     OW20702   9.226  11.960   0.516
39602SOL    HW120703   9.131  11.970   0.504
39602SOL    HW220704   9.243  11.867   0.496
39603SOL     OW20705  10.337   2.676   7.179
39603SOL    HW120706  10.390   2.687   7.100
39603SOL    HW220707  10.268   2.615   7.153
39604SOL     OW20708   1.753  14.304  11.993
39604SOL    HW120709   1.849  14.304  11.993
39604SOL    HW220710   1.729  14.388  12.031
39605SOL     OW20711   6.677   6.832   2.109
39605SOL    HW120712   6.716   6.920   2.104
39605SOL    HW220713   6.727   6.788   2.177
39606SOL     OW20714   4.350  10.156   6.467
39606SOL    HW120715   4.279  10.093   6.476
39606SOL    HW220716   4.414  10.111   6.411
39607SOL     OW20717  14.778  11.841   6.390
39607SOL    HW120718  14.795  11.881   6.304
39607SOL    HW220719  14.861  11.798   6.413
39608SOL     OW20720  13.736  14.608   8.376
39608SOL    HW120721  13.665  14.671   8.369
39608SOL    HW220722  13.697  14.533   8.422
39609SOL     OW20723   8.022   3.801   7.170
39609SOL    HW120724   7.996   3.837   7.255
39609SOL    HW220725   7.940   3.771   7.131
39610SOL     OW20726  11.961   3.772   3.298
39610SOL    HW120727  12.021   3.700   3.313
39610SOL    HW220728  11.980   3.834   3.368
39611SOL     OW20729   9.745   4.314   3.428
39611SOL    HW120730   9.688   4.372   3.377
39611SOL    HW220731   9.755   4.359   3.512
39612SOL     OW20732   6.369   3.452   3.587
39612SOL    HW120733   6.457   3.428   3.618
39612SOL    HW220734   6.345   3.527   3.641
39613SOL     OW20735  12.200   8.142   9.944
39613SOL    HW120736  12.188   8.142  10.039
39613SOL    HW220737  12.270   8.206   9.929
39614SOL     OW20738   1.693  14.106   8.794
39614SOL    HW120739   1.746  14.183   8.815
39614SOL    HW220740   1.700  14.097   8.698
39615SOL     OW20741   0.251  14.591  10.521
39615SOL    HW120742   0.327  14.628  10.566
39615SOL    HW220743   0.286  14.516  10.473
39616SOL     OW20744   0.297   7.612   8.340
39616SOL    HW120745   0.284   7.542   8.276
39616SOL    HW220746   0.318   7.566   8.421
39617SOL     OW20747   1.663   6.824   8.834
39617SOL    HW120748   1.670   6.777   8.751
39617SOL    HW220749   1.738   6.793   8.886
39618SOL     OW20750   0.210  14.340   5.665
39618SOL    HW120751   0.196  14.389   5.584
39618SOL    HW220752   0.125  14.340   5.709
39619SOL     OW20753  10.303   9.009   2.609
39619SOL    HW120754  10.282   9.021   2.702
39619SOL    HW220755  10.287   9.095   2.570
39620SOL     OW20756   2.498   7.654   9.587
39620SOL    HW120757   2.455   7.726   9.634
39620SOL    HW220758   2.590   7.662   9.611
39621SOL     OW20759   0.054   8.075   2.169
39621SOL    HW120760  14.848   8.110   2.191
39621SOL    HW220761   0.049   8.053   2.076
39622SOL     OW20762   2.818   4.307   8.787
39622SOL    HW120763   2.863   4.280   8.868
39622SOL    HW220764   2.725   4.295   8.806
39623SOL     OW20765   8.066  12.929  12.942
39623SOL    HW120766   8.065  12.871  13.019
39623SOL    HW220767   8.017  13.006  12.970
39624SOL     OW20768  13.214   3.891   8.620
39624SOL    HW120769  13.132   3.852   8.591
39624SOL    HW220770  13.197   3.985   8.621
39625SOL     OW20771  12.359   5.692   1.382
39625SOL    HW120772  12.423   5.677   1.451
39625SOL    HW220773  12.297   5.754   1.420
39626SOL     OW20774  10.436  14.152  14.719
39626SOL    HW120775  10.507  14.101  14.679
39626SOL    HW220776  10.480  14.201  14.789
39627SOL     OW20777  11.667  14.608   9.047
39627SOL    HW120778  11.617  14.538   9.003
39627SOL    HW220779  11.680  14.674   8.979
39628SOL     OW20780  11.363   0.471   0.067
39628SOL    HW120781  11.291   0.453   0.006
39628SOL    HW220782  11.439   0.485   0.011
39629SOL     OW20783  12.036  10.870   4.715
39629SOL    HW120784  12.125  10.839   4.732
39629SOL    HW220785  12.017  10.843   4.626
39630SOL     OW20786   3.640  11.884   9.471
39630SOL    HW120787   3.595  11.915   9.549
39630SOL    HW220788   3.605  11.938   9.400
39631SOL     OW20789  14.308   8.556  11.278
39631SOL    HW120790  14.401   8.543  11.295
39631SOL    HW220791  14.263   8.507  11.347
39632SOL     OW20792  10.105   3.362   3.776
39632SOL    HW120793  10.112   3.269   3.755
39632SOL    HW220794  10.057   3.399   3.702
39633SOL     OW20795   0.419   5.723   7.613
39633SOL    HW120796   0.466   5.672   7.679
39633SOL    HW220797   0.407   5.664   7.540
39634SOL     OW20798   1.072   1.928  12.485
39634SOL    HW120799   1.116   1.843  12.484
39634SOL    HW220800   1.076   1.958  12.394
39635SOL     OW20801   2.814  10.127   5.799
39635SOL    HW120802   2.841  10.140   5.890
39635SOL    HW220803   2.893  10.100   5.754
39636SOL     OW20804  10.293  13.442   5.502
39636SOL    HW120805  10.227  13.464   5.567
39636SOL    HW220806  10.313  13.350   5.519
39637SOL     OW20807   3.185   6.124   0.263
39637SOL    HW120808   3.248   6.069   0.216
39637SOL    HW220809   3.197   6.212   0.227
39638SOL     OW20810   7.720  13.155  11.243
39638SOL    HW120811   7.692  13.067  11.271
39638SOL    HW220812   7.669  13.173  11.164
39639SOL     OW20813   8.152   3.690   4.124
39639SOL    HW120814   8.197   3.665   4.205
39639SOL    HW220815   8.062   3.710   4.152
39640SOL     OW20816   9.642  12.713   1.474
39640SOL    HW120817   9.614  12.776   1.408
39640SOL    HW220818   9.680  12.641   1.423
39641SOL     OW20819   5.381   0.909   5.395
39641SOL    HW120820   5.440   0.893   5.468
39641SOL    HW220821   5.392   1.002   5.376
39642SOL     OW20822  13.873   4.651   4.648
39642SOL    HW120823  13.864   4.677   4.739
39642SOL    HW220824  13.791   4.607   4.627
39643SOL     OW20825  11.094  12.904   0.036
39643SOL    HW120826  11.115  12.821  14.875
39643SOL    HW220827  11.179  12.946   0.050
39644SOL     OW20828  11.419  14.372   7.435
39644SOL    HW120829  11.358  14.299   7.427
39644SOL    HW220830  11.471  14.352   7.513
39645SOL     OW20831   2.180  12.480   1.803
39645SOL    HW120832   2.247  12.426   1.844
39645SOL    HW220833   2.111  12.487   1.869
39646SOL     OW20834  13.025   1.346   8.197
39646SOL    HW120835  13.087   1.376   8.131
39646SOL    HW220836  12.965   1.289   8.149
39647SOL     OW20837  13.608   1.744   7.821
39647SOL    HW120838  13.585   1.810   7.755
39647SOL    HW220839  13.663   1.682   7.773
39648SOL     OW20840   1.020   4.075   3.130
39648SOL    HW120841   1.100   4.028   3.156
39648SOL    HW220842   0.977   4.016   3.068
39649SOL     OW20843  14.591   6.414   0.383
39649SOL    HW120844  14.683   6.398   0.364
39649SOL    HW220845  14.561   6.332   0.424
39650SOL     OW20846   9.945  12.353   9.807
39650SOL    HW120847   9.942  12.302   9.726
39650SOL    HW220848   9.903  12.436   9.784
39651SOL     OW20849   2.463  11.573   5.447
39651SOL    HW120850   2.378  11.602   5.481
39651SOL    HW220851   2.522  11.584   5.521
39652SOL     OW20852  12.614   1.904  11.569
39652SOL    HW120853  12.695   1.954  11.578
39652SOL    HW220854  12.611   1.847  11.646
39653SOL     OW20855  14.674  12.853   6.498
39653SOL    HW120856  14.641  12.871   6.586
39653SOL    HW220857  14.621  12.909   6.441
39654SOL     OW20858  14.829   2.054   0.914
39654SOL    HW120859  14.872   2.129   0.873
39654SOL    HW220860  14.756   2.033   0.856
39655SOL     OW20861   5.255   1.696  14.515
39655SOL    HW120862   5.319   1.766  14.526
39655SOL    HW220863   5.302   1.626  14.469
39656SOL     OW20864   8.983  12.809   2.833
39656SOL    HW120865   9.007  12.853   2.751
39656SOL    HW220866   9.017  12.721   2.824
39657SOL     OW20867   6.911  13.038   8.927
39657SOL    HW120868   6.935  13.130   8.939
39657SOL    HW220869   6.818  13.041   8.903
39658SOL     OW20870  11.902  13.269   6.382
39658SOL    HW120871  11.962  13.336   6.414
39658SOL    HW220872  11.888  13.292   6.290
39659SOL     OW20873  11.903   1.375  11.332
39659SOL    HW120874  11.858   1.410  11.255
39659SOL    HW220875  11.921   1.453  11.386
39660SOL     OW20876   2.686  11.639  11.255
39660SOL    HW120877   2.762  11.617  11.309
39660SOL    HW220878   2.626  11.566  11.266
39661SOL     OW20879   3.627   5.115   6.328
39661SOL    HW120880   3.622   5.201   6.288
39661SOL    HW220881   3.536   5.091   6.345
39662SOL     OW20882   2.993   5.477  10.645
39662SOL    HW120883   3.065   5.491  10.706
39662SOL    HW220884   2.996   5.383  10.625
39663SOL     OW20885   5.704   3.886  14.700
39663SOL    HW120886   5.725   3.803  14.743
39663SOL    HW220887   5.621   3.870  14.655
39664SOL     OW20888   2.035   4.441   5.678
39664SOL    HW120889   2.100   4.372   5.670
39664SOL    HW220890   2.046   4.475   5.767
39665SOL     OW20891   0.184   1.800   1.910
39665SOL    HW120892   0.163   1.739   1.980
39665SOL    HW220893   0.217   1.878   1.954
39666SOL     OW20894   6.746   3.863   7.094
39666SOL    HW120895   6.796   3.825   7.166
39666SOL    HW220896   6.658   3.874   7.130
39667SOL     OW20897   3.068   0.832   8.223
39667SOL    HW120898   3.116   0.820   8.305
39667SOL    HW220899   3.001   0.763   8.225
39668SOL     OW20900   6.321  13.463   5.110
39668SOL    HW120901   6.378  13.453   5.034
39668SOL    HW220902   6.286  13.552   5.102
39669SOL     OW20903   1.681   0.859   6.916
39669SOL    HW120904   1.623   0.809   6.973
39669SOL    HW220905   1.641   0.853   6.829
39670SOL     OW20906  13.750   1.350  10.603
39670SOL    HW120907  13.764   1.444  10.607
39670SOL    HW220908  13.655   1.339  10.605
39671SOL     OW20909   7.724   0.922   0.723
39671SOL    HW120910   7.700   0.876   0.642
39671SOL    HW220911   7.663   0.996   0.727
39672SOL     OW20912  12.205   6.711   4.798
39672SOL    HW120913  12.149   6.733   4.723
39672SOL    HW220914  12.153   6.735   4.874
39673SOL     OW20915  13.192   2.470   1.747
39673SOL    HW120916  13.136   2.442   1.674
39673SOL    HW220917  13.206   2.390   1.798
39674SOL     OW20918  10.730   1.707   8.472
39674SOL    HW120919  10.791   1.778   8.489
39674SOL    HW220920  10.780   1.642   8.423
39675SOL     OW20921   8.536  10.386   7.573
39675SOL    HW120922   8.530  10.293   7.595
39675SOL    HW220923   8.465  10.427   7.623
39676SOL     OW20924   1.945  11.483   6.262
39676SOL    HW120925   1.891  11.497   6.340
39676SOL    HW220926   2.035  11.488   6.294
39677SOL     OW20927   2.492   6.363  13.789
39677SOL    HW120928   2.454   6.437  13.742
39677SOL    HW220929   2.587   6.377  13.783
39678SOL     OW20930  14.694  11.357  13.118
39678SOL    HW120931  14.745  11.312  13.185
39678SOL    HW220932  14.607  11.319  13.125
39679SOL     OW20933   3.462   3.033   1.543
39679SOL    HW120934   3.438   3.123   1.562
39679SOL    HW220935   3.487   2.996   1.627
39680SOL     OW20936   5.168  11.221   7.978
39680SOL    HW120937   5.156  11.311   8.009
39680SOL    HW220938   5.135  11.222   7.888
39681SOL     OW20939  13.612   8.106   5.658
39681SOL    HW120940  13.677   8.103   5.588
39681SOL    HW220941  13.605   8.015   5.689
39682SOL     OW20942  12.462   2.022  10.712
39682SOL    HW120943  12.369   2.001  10.720
39682SOL    HW220944  12.503   1.937  10.696
39683SOL     OW20945  14.493   6.187   3.793
39683SOL    HW120946  14.448   6.258   3.840
39683SOL    HW220947  14.452   6.107   3.826
39684SOL     OW20948   3.467   1.525  12.559
39684SOL    HW120949   3.405   1.462  12.596
39684SOL    HW220950   3.412   1.590  12.517
39685SOL     OW20951   8.294   3.584  12.847
39685SOL    HW120952   8.268   3.551  12.761
39685SOL    HW220953   8.212   3.604  12.891
39686SOL     OW20954   4.090   7.990   1.620
39686SOL    HW120955   4.177   8.030   1.625
39686SOL    HW220956   4.085   7.934   1.698
39687SOL     OW20957   8.650  12.798  12.625
39687SOL    HW120958   8.689  12.714  12.600
39687SOL    HW220959   8.678  12.811  12.716
39688SOL     OW20960  13.466   3.565   3.285
39688SOL    HW120961  13.535   3.605   3.233
39688SOL    HW220962  13.473   3.471   3.265
39689SOL     OW20963  11.669  10.679   4.269
39689SOL    HW120964  11.695  10.719   4.185
39689SOL    HW220965  11.746  10.690   4.325
39690SOL     OW20966   0.580   0.680  10.779
39690SOL    HW120967   0.529   0.755  10.812
39690SOL    HW220968   0.526   0.604  10.798
39691SOL     OW20969   0.261   2.068  14.240
39691SOL    HW120970   0.239   2.121  14.317
39691SOL    HW220971   0.357   2.072  14.235
39692SOL     OW20972  14.008   2.367   9.855
39692SOL    HW120973  14.051   2.293   9.812
39692SOL    HW220974  14.077   2.407   9.908
39693SOL     OW20975   9.873   4.343   5.679
39693SOL    HW120976   9.789   4.315   5.642
39693SOL    HW220977   9.865   4.325   5.773
39694SOL     OW20978   7.928  12.771  11.352
39694SOL    HW120979   7.852  12.768  11.410
39694SOL    HW220980   7.990  12.709  11.391
39695SOL     OW20981   3.060   8.701  11.134
39695SOL    HW120982   3.068   8.606  11.140
39695SOL    HW220983   2.967   8.717  11.114
39696SOL     OW20984  14.824   0.325  14.082
39696SOL    HW120985  14.877   0.272  14.140
39696SOL    HW220986  14.734   0.313  14.113
39697SOL     OW20987  14.518   4.548   5.241
39697SOL    HW120988  14.538   4.603   5.317
39697SOL    HW220989  14.522   4.459   5.275
39698SOL     OW20990   7.465   9.374   4.248
39698SOL    HW120991   7.518   9.426   4.186
39698SOL    HW220992   7.378   9.372   4.209
39699SOL     OW20993   4.011  12.775   5.023
39699SOL    HW120994   3.980  12.708   4.962
39699SOL    HW220995   4.081  12.820   4.976
39700SOL     OW20996   6.290   6.325  13.980
39700SOL    HW120997   6.279   6.262  14.051
39700SOL    HW220998   6.318   6.272  13.905
39701SOL     OW20999   1.212  11.876   9.259
39701SOL    HW121000   1.270  11.849   9.188
39701SOL    HW221001   1.126  11.887   9.217
39702SOL     OW21002   5.774  13.838   3.996
39702SOL    HW121003   5.682  13.815   3.978
39702SOL    HW221004   5.770  13.889   4.077
39703SOL     OW21005   3.247  12.483  12.118
39703SOL    HW121006   3.268  12.393  12.146
39703SOL    HW221007   3.211  12.472  12.030
39704SOL     OW21008   8.751  11.525   5.830
39704SOL    HW121009   8.796  11.574   5.762
39704SOL    HW221010   8.753  11.434   5.800
39705SOL     OW21011  12.066   7.111   1.723
39705SOL    HW121012  12.013   7.115   1.644
39705SOL    HW221013  12.057   7.198   1.762
39706SOL     OW21014   0.608  12.931   4.517
39706SOL    HW121015   0.677  12.950   4.580
39706SOL    HW221016   0.526  12.941   4.567
39707SOL     OW21017  12.462  11.897   9.081
39707SOL    HW121018  12.393  11.903   9.014
39707SOL    HW221019  12.543  11.898   9.031
39708SOL     OW21020   1.013   7.632   4.796
39708SOL    HW121021   1.087   7.572   4.787
39708SOL    HW221022   1.044   7.714   4.758
39709SOL     OW21023   1.427   6.928  13.471
39709SOL    HW121024   1.406   7.020  13.487
39709SOL    HW221025   1.417   6.917  13.376
39710SOL     OW21026   9.077   3.144   5.518
39710SOL    HW121027   9.029   3.126   5.437
39710SOL    HW221028   9.166   3.115   5.500
39711SOL     OW21029   5.974  10.740  11.386
39711SOL    HW121030   5.982  10.657  11.339
39711SOL    HW221031   6.041  10.796  11.347
39712SOL     OW21032  10.924   4.786   8.623
39712SOL    HW121033  10.910   4.788   8.718
39712SOL    HW221034  10.969   4.869   8.605
39713SOL     OW21035   1.147   3.060  13.426
39713SOL    HW121036   1.239   3.085  13.431
39713SOL    HW221037   1.125   3.033  13.516
39714SOL     OW21038   8.090   2.324  11.903
39714SOL    HW121039   8.042   2.242  11.895
39714SOL    HW221040   8.022   2.391  11.906
39715SOL     OW21041   9.030  10.452   5.970
39715SOL    HW121042   9.114  10.489   5.998
39715SOL    HW221043   9.026  10.469   5.876
39716SOL     OW21044   3.819   5.368   0.249
39716SOL    HW121045   3.802   5.434   0.317
39716SOL    HW221046   3.786   5.286   0.287
39717SOL     OW21047   5.054  14.326  10.624
39717SOL    HW121048   4.968  14.334  10.584
39717SOL    HW221049   5.114  14.309  10.551
39718SOL     OW21050  12.628   9.629   2.293
39718SOL    HW121051  12.594   9.580   2.368
39718SOL    HW221052  12.656   9.561   2.231
39719SOL     OW21053   2.207   3.565   6.670
39719SOL    HW121054   2.139   3.632   6.668
39719SOL    HW221055   2.160   3.482   6.682
39720SOL     OW21056   3.940   8.373   3.214
39720SOL    HW121057   3.856   8.385   3.258
39720SOL    HW221058   4.005   8.369   3.284
39721SOL     OW21059   8.496  10.638   4.503
39721SOL    HW121060   8.494  10.542   4.497
39721SOL    HW221061   8.413  10.667   4.466
39722SOL     OW21062  10.589   5.344  12.515
39722SOL    HW121063  10.518   5.305  12.465
39722SOL    HW221064  10.582   5.304  12.602
39723SOL     OW21065  14.857   4.738   0.743
39723SOL    HW121066   0.068   4.756   0.720
39723SOL    HW221067  14.823   4.688   0.669
39724SOL     OW21068  11.984  12.491   7.437
39724SOL    HW121069  11.944  12.451   7.360
39724SOL    HW221070  12.078  12.479   7.424
39725SOL     OW21071   9.361   4.497   5.977
39725SOL    HW121072   9.341   4.446   6.056
39725SOL    HW221073   9.382   4.430   5.911
39726SOL     OW21074  14.607  13.484  10.973
39726SOL    HW121075  14.614  13.389  10.988
39726SOL    HW221076  14.533  13.493  10.913
39727SOL     OW21077   4.716   7.594  13.492
39727SOL    HW121078   4.649   7.527  13.497
39727SOL    HW221079   4.752   7.586  13.403
39728SOL     OW21080   3.341   4.406   9.106
39728SOL    HW121081   3.249   4.428   9.120
39728SOL    HW221082   3.345   4.311   9.116
39729SOL     OW21083   1.873  14.720  11.165
39729SOL    HW121084   1.805  14.787  11.161
39729SOL    HW221085   1.848  14.656  11.099
39730SOL     OW21086  13.371   4.426   4.734
39730SOL    HW121087  13.329   4.509   4.758
39730SOL    HW221088  13.446   4.452   4.681
39731SOL     OW21089  13.252   0.465   8.961
39731SOL    HW121090  13.293   0.478   8.875
39731SOL    HW221091  13.326   0.453   9.021
39732SOL     OW21092   4.139   4.599   0.533
39732SOL    HW121093   4.075   4.531   0.513
39732SOL    HW221094   4.090   4.681   0.523
39733SOL     OW21095   4.141  12.884  11.409
39733SOL    HW121096   4.232  12.860  11.427
39733SOL    HW221097   4.094  12.801  11.409
39734SOL     OW21098  13.234  12.485  12.131
39734SOL    HW121099  13.317  12.464  12.175
39734SOL    HW221100  13.205  12.402  12.093
39735SOL     OW21101   9.175   5.043  11.112
39735SOL    HW121102   9.183   4.992  11.032
39735SOL    HW221103   9.262   5.080  11.126
39736SOL     OW21104   0.175   8.802   0.048
39736SOL    HW121105   0.104   8.750   0.087
39736SOL    HW221106   0.239   8.811   0.118
39737SOL     OW21107   2.325  12.150   7.716
39737SOL    HW121108   2.238  12.188   7.701
39737SOL    HW221109   2.308  12.069   7.764
39738SOL     OW21110   1.151   4.531  11.706
39738SOL    HW121111   1.192   4.585  11.774
39738SOL    HW221112   1.222   4.513  11.644
39739SOL     OW21113   2.947  11.081   3.642
39739SOL    HW121114   3.006  11.042   3.578
39739SOL    HW221115   3.004  11.136   3.697
39740SOL     OW21116  10.864   9.783   9.114
39740SOL    HW121117  10.942   9.821   9.156
39740SOL    HW221118  10.855   9.832   9.032
39741SOL     OW21119   1.470  13.769   8.897
39741SOL    HW121120   1.519  13.700   8.942
39741SOL    HW221121   1.482  13.847   8.952
39742SOL     OW21122   7.203   2.326   8.323
39742SOL    HW121123   7.269   2.263   8.352
39742SOL    HW221124   7.150   2.342   8.401
39743SOL     OW21125  14.866   3.540  10.707
39743SOL    HW121126   0.067   3.516  10.663
39743SOL    HW221127   0.013   3.568  10.794
39744SOL     OW21128   1.535   7.708   9.901
39744SOL    HW121129   1.624   7.699   9.866
39744SOL    HW221130   1.498   7.783   9.853
39745SOL     OW21131  13.212   8.676   9.724
39745SOL    HW121132  13.256   8.761   9.733
39745SOL    HW221133  13.283   8.613   9.720
39746SOL     OW21134   1.962   4.517   1.822
39746SOL    HW121135   2.030   4.516   1.754
39746SOL    HW221136   2.005   4.478   1.899
39747SOL     OW21137   5.963   1.682   3.985
39747SOL    HW121138   6.010   1.683   4.068
39747SOL    HW221139   5.989   1.763   3.941
39748SOL     OW21140   1.046  14.589  11.682
39748SOL    HW121141   1.097  14.598  11.762
39748SOL    HW221142   1.050  14.675  11.640
39749SOL     OW21143  10.948   5.824   8.521
39749SOL    HW121144  10.947   5.823   8.425
39749SOL    HW221145  10.987   5.740   8.545
39750SOL     OW21146   7.965   1.771   8.288
39750SOL    HW121147   8.033   1.732   8.344
39750SOL    HW221148   7.974   1.865   8.301
39751SOL     OW21149   8.367   7.200   4.489
39751SOL    HW121150   8.338   7.154   4.567
39751SOL    HW221151   8.322   7.157   4.417
39752SOL     OW21152   5.158  14.754   9.564
39752SOL    HW121153   5.225  14.797   9.510
39752SOL    HW221154   5.191  14.665   9.577
39753SOL     OW21155  14.259   2.949  14.354
39753SOL    HW121156  14.343   2.972  14.394
39753SOL    HW221157  14.259   2.997  14.271
39754SOL     OW21158   4.489   9.500   2.871
39754SOL    HW121159   4.405   9.478   2.911
39754SOL    HW221160   4.515   9.581   2.915
39755SOL     OW21161   8.817  10.928   5.756
39755SOL    HW121162   8.800  10.849   5.808
39755SOL    HW221163   8.912  10.930   5.745
39756SOL     OW21164  10.083   3.956  13.545
39756SOL    HW121165  10.002   3.940  13.498
39756SOL    HW221166  10.149   3.905  13.498
39757SOL     OW21167   6.899  10.783   5.007
39757SOL    HW121168   6.896  10.689   5.027
39757SOL    HW221169   6.808  10.809   4.998
39758SOL     OW21170   4.561  10.580   3.927
39758SOL    HW121171   4.623  10.587   4.000
39758SOL    HW221172   4.615  10.561   3.851
39759SOL     OW21173  10.378   2.616  11.103
39759SOL    HW121174  10.441   2.688  11.106
39759SOL    HW221175  10.359   2.604  11.010
39760SOL     OW21176  13.163  13.894   3.924
39760SOL    HW121177  13.142  13.884   3.831
39760SOL    HW221178  13.094  13.951   3.958
39761SOL     OW21179   6.490   3.876   3.749
39761SOL    HW121180   6.549   3.801   3.758
39761SOL    HW221181   6.548   3.952   3.746
39762SOL     OW21182  12.451   1.837   5.147
39762SOL    HW121183  12.475   1.869   5.234
39762SOL    HW221184  12.385   1.769   5.165
39763SOL     OW21185  12.846  11.335   4.013
39763SOL    HW121186  12.858  11.315   3.920
39763SOL    HW221187  12.864  11.253   4.058
39764SOL     OW21188   3.880   4.994  10.663
39764SOL    HW121189   3.899   5.084  10.636
39764SOL    HW221190   3.790   4.979  10.634
39765SOL     OW21191   1.832  11.568   1.087
39765SOL    HW121192   1.795  11.494   1.040
39765SOL    HW221193   1.769  11.639   1.075
39766SOL     OW21194   2.067  13.670   2.958
39766SOL    HW121195   2.047  13.655   2.866
39766SOL    HW221196   2.109  13.589   2.988
39767SOL     OW21197  12.513  10.805   7.308
39767SOL    HW121198  12.431  10.825   7.353
39767SOL    HW221199  12.576  10.868   7.343
39768SOL     OW21200   3.458  10.568  14.818
39768SOL    HW121201   3.486  10.550  14.728
39768SOL    HW221202   3.452  10.664  14.823
39769SOL     OW21203   4.297  12.064   8.301
39769SOL    HW121204   4.227  12.006   8.331
39769SOL    HW221205   4.372  12.041   8.356
39770SOL     OW21206  14.408   9.380   5.926
39770SOL    HW121207  14.331   9.354   5.976
39770SOL    HW221208  14.372   9.421   5.847
39771SOL     OW21209  14.324   0.147   2.197
39771SOL    HW121210  14.245   0.093   2.191
39771SOL    HW221211  14.301   0.218   2.257
39772SOL     OW21212   2.950   6.182   6.887
39772SOL    HW121213   2.969   6.129   6.810
39772SOL    HW221214   2.924   6.118   6.954
39773SOL     OW21215   6.830   2.883  14.731
39773SOL    HW121216   6.903   2.874  14.793
39773SOL    HW221217   6.765   2.935  14.779
39774SOL     OW21218   5.229   9.066  10.803
39774SOL    HW121219   5.143   9.024  10.812
39774SOL    HW221220   5.237   9.121  10.881
39775SOL     OW21221  14.264   6.140  11.125
39775SOL    HW121222  14.334   6.177  11.179
39775SOL    HW221223  14.190   6.130  11.185
39776SOL     OW21224   0.582  12.841   1.750
39776SOL    HW121225   0.512  12.787   1.714
39776SOL    HW221226   0.581  12.822   1.844
39777SOL     OW21227   9.848   7.172   8.937
39777SOL    HW121228   9.907   7.204   9.005
39777SOL    HW221229   9.874   7.219   8.858
39778SOL     OW21230   4.323  12.872   5.183
39778SOL    HW121231   4.301  12.871   5.090
39778SOL    HW221232   4.240  12.889   5.227
39779SOL     OW21233   0.563   2.873   9.619
39779SOL    HW121234   0.504   2.798   9.627
39779SOL    HW221235   0.506   2.949   9.626
39780SOL     OW21236   0.713   9.952   5.514
39780SOL    HW121237   0.701  10.014   5.442
39780SOL    HW221238   0.632   9.959   5.565
39781SOL     OW21239  14.392   2.783   5.211
39781SOL    HW121240  14.427   2.862   5.250
39781SOL    HW221241  14.467   2.741   5.170
39782SOL     OW21242   0.925  14.673  12.957
39782SOL    HW121243   0.894  14.688  12.867
39782SOL    HW221244   0.919  14.578  12.968
39783SOL     OW21245   1.458   7.254   5.160
39783SOL    HW121246   1.363   7.259   5.150
39783SOL    HW221247   1.474   7.165   5.194
39784SOL     OW21248   9.342   5.473   0.145
39784SOL    HW121249   9.265   5.530   0.138
39784SOL    HW221250   9.353   5.438   0.056
39785SOL     OW21251   1.453  10.870   2.403
39785SOL    HW121252   1.498  10.938   2.352
39785SOL    HW221253   1.496  10.788   2.377
39786SOL     OW21254  12.833  12.898   4.838
39786SOL    HW121255  12.822  12.978   4.890
39786SOL    HW221256  12.842  12.929   4.748
39787SOL     OW21257  11.160  14.400  10.388
39787SOL    HW121258  11.242  14.379  10.345
39787SOL    HW221259  11.093  14.391  10.320
39788SOL     OW21260  11.066   1.176  11.301
39788SOL    HW121261  11.074   1.082  11.316
39788SOL    HW221262  10.972   1.190  11.289
39789SOL     OW21263  10.530   0.012  14.324
39789SOL    HW121264  10.589  14.818  14.311
39789SOL    HW221265  10.508   0.041  14.235
39790SOL     OW21266   4.268   2.715   7.078
39790SOL    HW121267   4.256   2.804   7.045
39790SOL    HW221268   4.181   2.676   7.073
39791SOL     OW21269   4.158   5.115  13.631
39791SOL    HW121270   4.096   5.180  13.599
39791SOL    HW221271   4.176   5.060  13.554
39792SOL     OW21272   3.731   0.374   7.122
39792SOL    HW121273   3.688   0.429   7.056
39792SOL    HW221274   3.775   0.437   7.180
39793SOL     OW21275  13.390  11.761   6.836
39793SOL    HW121276  13.458  11.764   6.768
39793SOL    HW221277  13.309  11.784   6.790
39794SOL     OW21278  14.264  10.933   5.730
39794SOL    HW121279  14.277  11.002   5.795
39794SOL    HW221280  14.352  10.899   5.714
39795SOL     OW21281   7.775  14.790   7.812
39795SOL    HW121282   7.859  14.768   7.853
39795SOL    HW221283   7.746  14.708   7.772
39796SOL     OW21284   4.109   2.185   4.471
39796SOL    HW121285   4.125   2.221   4.558
39796SOL    HW221286   4.034   2.234   4.438
39797SOL     OW21287   2.249   2.695   9.059
39797SOL    HW121288   2.238   2.629   9.128
39797SOL    HW221289   2.174   2.754   9.070
39798SOL     OW21290   1.510   5.272   1.762
39798SOL    HW121291   1.552   5.193   1.796
39798SOL    HW221292   1.426   5.276   1.808
39799SOL     OW21293   4.004  10.996   4.918
39799SOL    HW121294   4.060  11.059   4.872
39799SOL    HW221295   4.065  10.936   4.961
39800SOL     OW21296   2.920   4.141   6.959
39800SOL    HW121297   2.870   4.076   6.909
39800SOL    HW221298   2.882   4.225   6.934
39801SOL     OW21299   9.031   2.631   8.822
39801SOL    HW121300   8.987   2.547   8.838
39801SOL    HW221301   8.960   2.695   8.815
39802SOL     OW21302   6.336   5.954  12.267
39802SOL    HW121303   6.297   5.874  12.231
39802SOL    HW221304   6.390   5.923  12.340
39803SOL     OW21305  11.930   2.759   8.274
39803SOL    HW121306  11.913   2.803   8.357
39803SOL    HW221307  11.917   2.826   8.207
39804SOL     OW21308   5.158  11.943   9.128
39804SOL    HW121309   5.222  12.009   9.102
39804SOL    HW221310   5.193  11.861   9.093
39805SOL     OW21311  10.117   8.562  11.691
39805SOL    HW121312  10.169   8.484  11.671
39805SOL    HW221313  10.134   8.578  11.784
39806SOL     OW21314   6.095   4.039   0.074
39806SOL    HW121315   6.057   3.968   0.022
39806SOL    HW221316   6.042   4.040   0.154
39807SOL     OW21317   5.170   8.657  11.063
39807SOL    HW121318   5.109   8.584  11.053
39807SOL    HW221319   5.256   8.619  11.043
39808SOL     OW21320   3.999   8.550   1.066
39808SOL    HW121321   4.020   8.512   1.151
39808SOL    HW221322   3.965   8.477   1.015
39809SOL     OW21323   6.633   9.119   5.322
39809SOL    HW121324   6.548   9.089   5.288
39809SOL    HW221325   6.696   9.097   5.254
39810SOL     OW21326   0.987   1.301   3.668
39810SOL    HW121327   0.947   1.373   3.717
39810SOL    HW221328   1.051   1.344   3.611
39811SOL     OW21329   0.424  10.743   2.977
39811SOL    HW121330   0.346  10.697   3.006
39811SOL    HW221331   0.403  10.773   2.889
39812SOL     OW21332   0.775   7.325   8.477
39812SOL    HW121333   0.788   7.352   8.567
39812SOL    HW221334   0.840   7.256   8.462
39813SOL     OW21335  10.517   3.399   4.320
39813SOL    HW121336  10.458   3.339   4.366
39813SOL    HW221337  10.515   3.369   4.229
39814SOL     OW21338   4.584   6.210   5.725
39814SOL    HW121339   4.628   6.294   5.713
39814SOL    HW221340   4.562   6.183   5.636
39815SOL     OW21341  12.855   9.261   0.411
39815SOL    HW121342  12.773   9.230   0.373
39815SOL    HW221343  12.839   9.354   0.431
39816SOL     OW21344   1.107   5.139  12.878
39816SOL    HW121345   1.065   5.194  12.812
39816SOL    HW221346   1.162   5.200  12.927
39817SOL     OW21347   6.338  10.385   8.525
39817SOL    HW121348   6.430  10.411   8.514
39817SOL    HW221349   6.336  10.343   8.611
39818SOL     OW21350  12.410   7.433   9.707
39818SOL    HW121351  12.335   7.397   9.754
39818SOL    HW221352  12.464   7.473   9.775
39819SOL     OW21353   2.281   0.723   4.261
39819SOL    HW121354   2.209   0.785   4.258
39819SOL    HW221355   2.350   0.769   4.310
39820SOL     OW21356  11.838   3.654   9.617
39820SOL    HW121357  11.748   3.631   9.596
39820SOL    HW221358  11.889   3.576   9.596
39821SOL     OW21359  10.083  10.847  13.937
39821SOL    HW121360   9.995  10.835  13.973
39821SOL    HW221361  10.133  10.884  14.009
39822SOL     OW21362   6.831  13.607  10.448
39822SOL    HW121363   6.758  13.634  10.504
39822SOL    HW221364   6.831  13.511  10.454
39823SOL     OW21365   5.081  13.956   5.718
39823SOL    HW121366   5.051  13.936   5.806
39823SOL    HW221367   5.013  14.012   5.681
39824SOL     OW21368   6.001  10.202   5.993
39824SOL    HW121369   5.970  10.113   6.003
39824SOL    HW221370   5.996  10.240   6.080
39825SOL     OW21371   8.555   1.397   2.281
39825SOL    HW121372   8.558   1.313   2.234
39825SOL    HW221373   8.591   1.377   2.367
39826SOL     OW21374   5.701  13.536   6.229
39826SOL    HW121375   5.704  13.446   6.196
39826SOL    HW221376   5.740  13.588   6.159
39827SOL     OW21377  10.908  14.861   4.222
39827SOL    HW121378  10.986  14.870   4.278
39827SOL    HW221379  10.911  14.770   4.192
39828SOL     OW21380   0.497   1.841  13.486
39828SOL    HW121381   0.461   1.766  13.439
39828SOL    HW221382   0.544   1.891  13.420
39829SOL     OW21383  11.503   5.082  11.214
39829SOL    HW121384  11.455   5.165  11.210
39829SOL    HW221385  11.508   5.062  11.307
39830SOL     OW21386  10.861   4.022   0.046
39830SOL    HW121387  10.914   4.089   0.004
39830SOL    HW221388  10.784   4.069   0.078
39831SOL     OW21389   5.676   5.418  14.252
39831SOL    HW121390   5.645   5.330  14.271
39831SOL    HW221391   5.623   5.446  14.177
39832SOL     OW21392  12.282   5.637   0.508
39832SOL    HW121393  12.228   5.563   0.536
39832SOL    HW221394  12.307   5.680   0.589
39833SOL     OW21395  10.467   4.011   2.292
39833SOL    HW121396  10.408   3.936   2.282
39833SOL    HW221397  10.409   4.085   2.309
39834SOL     OW21398   4.353   6.643   2.940
39834SOL    HW121399   4.439   6.666   2.977
39834SOL    HW221400   4.303   6.609   3.014
39835SOL     OW21401  12.534   5.337   3.405
39835SOL    HW121402  12.451   5.350   3.452
39835SOL    HW221403  12.510   5.335   3.313
39836SOL     OW21404   3.118  13.513   5.600
39836SOL    HW121405   3.189  13.509   5.537
39836SOL    HW221406   3.105  13.606   5.616
39837SOL     OW21407   1.164   6.134   8.710
39837SOL    HW121408   1.133   6.043   8.717
39837SOL    HW221409   1.209   6.150   8.793
39838SOL     OW21410  14.227   5.808   7.906
39838SOL    HW121411  14.297   5.815   7.841
39838SOL    HW221412  14.229   5.716   7.933
39839SOL     OW21413   4.483   6.085   0.704
39839SOL    HW121414   4.507   6.089   0.796
39839SOL    HW221415   4.429   6.006   0.696
39840SOL     OW21416   6.593   4.704   0.209
39840SOL    HW121417   6.627   4.748   0.131
39840SOL    HW221418   6.659   4.639   0.230
39841SOL     OW21419  13.852   8.245  12.667
39841SOL    HW121420  13.818   8.304  12.600
39841SOL    HW221421  13.947   8.253  12.660
39842SOL     OW21422   6.095   7.646   8.779
39842SOL    HW121423   6.148   7.720   8.750
39842SOL    HW221424   6.061   7.673   8.865
39843SOL     OW21425  11.824  13.126   7.686
39843SOL    HW121426  11.735  13.119   7.652
39843SOL    HW221427  11.876  13.067   7.631
39844SOL     OW21428   9.855   8.428   9.889
39844SOL    HW121429   9.905   8.351   9.861
39844SOL    HW221430   9.884   8.444   9.979
39845SOL     OW21431  11.757   0.426   0.511
39845SOL    HW121432  11.738   0.336   0.486
39845SOL    HW221433  11.822   0.455   0.447
39846SOL     OW21434   5.695   8.348   0.220
39846SOL    HW121435   5.789   8.348   0.199
39846SOL    HW221436   5.654   8.397   0.149
39847SOL     OW21437   4.361   6.496   2.567
39847SOL    HW121438   4.446   6.522   2.603
39847SOL    HW221439   4.301   6.502   2.642
39848SOL     OW21440   0.138  12.503  14.356
39848SOL    HW121441   0.127  12.598  14.344
39848SOL    HW221442   0.145  12.491  14.451
39849SOL     OW21443  11.498  11.843  13.420
39849SOL    HW121444  11.420  11.817  13.371
39849SOL    HW221445  11.469  11.916  13.474
39850SOL     OW21446   6.036   0.239   1.796
39850SOL    HW121447   6.072   0.211   1.879
39850SOL    HW221448   6.066   0.330   1.786
39851SOL     OW21449   0.522   8.553   3.084
39851SOL    HW121450   0.437   8.581   3.050
39851SOL    HW221451   0.522   8.582   3.175
39852SOL     OW21452   0.139   9.930  14.283
39852SOL    HW121453   0.062   9.911  14.230
39852SOL    HW221454   0.154   9.850  14.332
39853SOL     OW21455  10.917  13.358  14.479
39853SOL    HW121456  10.930  13.403  14.562
39853SOL    HW221457  11.005  13.350  14.441
39854SOL     OW21458  13.326  14.374   0.356
39854SOL    HW121459  13.282  14.418   0.284
39854SOL    HW221460  13.359  14.445   0.411
39855SOL     OW21461   1.801   7.706   1.590
39855SOL    HW121462   1.753   7.785   1.564
39855SOL    HW221463   1.759   7.635   1.540
39856SOL     OW21464  10.746   4.813   0.610
39856SOL    HW121465  10.706   4.805   0.523
39856SOL    HW221466  10.816   4.749   0.610
39857SOL     OW21467   6.152   3.997  14.441
39857SOL    HW121468   6.209   3.975  14.514
39857SOL    HW221469   6.206   4.049  14.382
39858SOL     OW21470   7.796  13.604  13.122
39858SOL    HW121471   7.817  13.606  13.029
39858SOL    HW221472   7.844  13.679  13.159
39859SOL     OW21473  14.330   4.009  11.434
39859SOL    HW121474  14.380   4.090  11.434
39859SOL    HW221475  14.277   4.013  11.514
39860SOL     OW21476  11.986   3.653  12.666
39860SOL    HW121477  11.937   3.725  12.705
39860SOL    HW221478  11.935   3.627  12.589
39861SOL     OW21479   7.558  10.303   6.202
39861SOL    HW121480   7.619  10.376   6.191
39861SOL    HW221481   7.504  10.327   6.278
39862SOL     OW21482   9.659  11.990   4.165
39862SOL    HW121483   9.678  12.083   4.155
39862SOL    HW221484   9.574  11.978   4.122
39863SOL     OW21485  13.019   2.276   6.070
39863SOL    HW121486  13.067   2.344   6.119
39863SOL    HW221487  12.936   2.318   6.046
39864SOL     OW21488   8.985   0.285  13.892
39864SOL    HW121489   8.974   0.378  13.875
39864SOL    HW221490   8.967   0.275  13.986
39865SOL     OW21491  10.423   2.796   9.235
39865SOL    HW121492  10.426   2.875   9.181
39865SOL    HW221493  10.509   2.755   9.223
39866SOL     OW21494   2.211   2.506   6.771
39866SOL    HW121495   2.283   2.544   6.721
39866SOL    HW221496   2.196   2.568   6.842
39867SOL     OW21497   6.473   4.714   1.411
39867SOL    HW121498   6.398   4.656   1.398
39867SOL    HW221499   6.548   4.655   1.417
39868SOL     OW21500   4.035   5.963   4.484
39868SOL    HW121501   3.952   5.974   4.438
39868SOL    HW221502   4.101   5.960   4.415
39869SOL     OW21503  10.508  12.278   2.021
39869SOL    HW121504  10.525  12.302   2.112
39869SOL    HW221505  10.546  12.349   1.970
39870SOL     OW21506   5.872  10.795   5.387
39870SOL    HW121507   5.919  10.720   5.352
39870SOL    HW221508   5.781  10.768   5.390
39871SOL     OW21509   3.987   3.555   0.891
39871SOL    HW121510   4.061   3.564   0.831
39871SOL    HW221511   4.023   3.575   0.977
39872SOL     OW21512  10.286   4.832   4.618
39872SOL    HW121513  10.377   4.840   4.591
39872SOL    HW221514  10.246   4.775   4.551
39873SOL     OW21515   7.215  14.188  13.682
39873SOL    HW121516   7.310  14.188  13.695
39873SOL    HW221517   7.202  14.134  13.604
39874SOL     OW21518   5.888  10.360  12.866
39874SOL    HW121519   5.968  10.370  12.917
39874SOL    HW221520   5.822  10.334  12.930
39875SOL     OW21521  11.561   6.168   7.631
39875SOL    HW121522  11.472   6.181   7.599
39875SOL    HW221523  11.594   6.255   7.651
39876SOL     OW21524  11.226  12.301   3.783
39876SOL    HW121525  11.152  12.245   3.805
39876SOL    HW221526  11.208  12.383   3.829
39877SOL     OW21527  10.207  12.524   6.091
39877SOL    HW121528  10.281  12.569   6.051
39877SOL    HW221529  10.148  12.594   6.118
39878SOL     OW21530  13.281  13.506  14.754
39878SOL    HW121531  13.351  13.571  14.758
39878SOL    HW221532  13.222  13.530  14.825
39879SOL     OW21533   3.387  12.181   6.627
39879SOL    HW121534   3.430  12.259   6.660
39879SOL    HW221535   3.405  12.113   6.693
39880SOL     OW21536   9.183   8.881   2.929
39880SOL    HW121537   9.099   8.837   2.937
39880SOL    HW221538   9.216   8.854   2.843
39881SOL     OW21539   4.656   4.106  10.898
39881SOL    HW121540   4.701   4.065  10.825
39881SOL    HW221541   4.601   4.174  10.857
39882SOL     OW21542   8.924   4.584   3.490
39882SOL    HW121543   8.831   4.595   3.510
39882SOL    HW221544   8.943   4.656   3.430
39883SOL     OW21545  14.847  14.173   6.033
39883SOL    HW121546   0.033  14.218   6.086
39883SOL    HW221547  14.774  14.235   6.028
39884SOL     OW21548   5.494   8.842   9.209
39884SOL    HW121549   5.588   8.847   9.226
39884SOL    HW221550   5.479   8.751   9.183
39885SOL     OW21551   4.032  14.831   4.921
39885SOL    HW121552   4.103  14.782   4.880
39885SOL    HW221553   4.058  14.841   5.012
39886SOL     OW21554  11.985   4.772  11.267
39886SOL    HW121555  12.080   4.778  11.283
39886SOL    HW221556  11.961   4.858  11.232
39887SOL     OW21557   7.795   3.938   5.852
39887SOL    HW121558   7.826   3.982   5.931
39887SOL    HW221559   7.725   3.994   5.819
39888SOL     OW21560  11.699   3.410  13.485
39888SOL    HW121561  11.780   3.421  13.434
39888SOL    HW221562  11.696   3.486  13.543
39889SOL     OW21563  11.137   8.206   5.064
39889SOL    HW121564  11.094   8.287   5.089
39889SOL    HW221565  11.067   8.141   5.062
39890SOL     OW21566   0.903   0.698   8.928
39890SOL    HW121567   0.928   0.635   8.996
39890SOL    HW221568   0.823   0.662   8.890
39891SOL     OW21569   3.278  12.947   9.451
39891SOL    HW121570   3.285  12.975   9.542
39891SOL    HW221571   3.249  12.855   9.457
39892SOL     OW21572  10.864  13.335   5.899
39892SOL    HW121573  10.795  13.391   5.934
39892SOL    HW221574  10.884  13.275   5.970
39893SOL     OW21575  10.851  13.904  12.217
39893SOL    HW121576  10.807  13.907  12.132
39893SOL    HW221577  10.863  13.811  12.235
39894SOL     OW21578   0.441  10.315   1.433
39894SOL    HW121579   0.522  10.366   1.438
39894SOL    HW221580   0.409  10.312   1.523
39895SOL     OW21581  14.641  12.516  14.782
39895SOL    HW121582  14.547  12.505  14.768
39895SOL    HW221583  14.667  12.582  14.718
39896SOL     OW21584   4.977  11.485   0.487
39896SOL    HW121585   5.002  11.488   0.394
39896SOL    HW221586   4.885  11.511   0.488
39897SOL     OW21587  11.619   7.733   0.575
39897SOL    HW121588  11.580   7.703   0.657
39897SOL    HW221589  11.572   7.684   0.508
39898SOL     OW21590   0.730   6.250  12.144
39898SOL    HW121591   0.801   6.187  12.133
39898SOL    HW221592   0.700   6.268  12.055
39899SOL     OW21593   8.183   2.886   6.227
39899SOL    HW121594   8.126   2.821   6.186
39899SOL    HW221595   8.127   2.963   6.239
39900SOL     OW21596  14.808   8.564   0.709
39900SOL    HW121597  14.779   8.554   0.618
39900SOL    HW221598   0.020   8.540   0.707
39901SOL     OW21599   3.888  12.785   9.130
39901SOL    HW121600   3.938  12.862   9.160
39901SOL    HW221601   3.811  12.783   9.187
39902SOL     OW21602   9.055   8.722   0.173
39902SOL    HW121603   9.009   8.753   0.095
39902SOL    HW221604   9.020   8.775   0.245
39903SOL     OW21605  11.176   8.026  13.978
39903SOL    HW121606  11.113   8.027  14.050
39903SOL    HW221607  11.252   8.072  14.012
39904SOL     OW21608   1.772   4.387   7.635
39904SOL    HW121609   1.868   4.393   7.638
39904SOL    HW221610   1.741   4.472   7.665
39905SOL     OW21611   8.465  10.403  10.899
39905SOL    HW121612   8.424  10.483  10.930
39905SOL    HW221613   8.548  10.398  10.948
39906SOL     OW21614  11.449   0.359   8.073
39906SOL    HW121615  11.404   0.386   8.152
39906SOL    HW221616  11.410   0.275   8.051
39907SOL     OW21617   6.631   6.380   3.935
39907SOL    HW121618   6.650   6.403   4.026
39907SOL    HW221619   6.647   6.461   3.886
39908SOL     OW21620  11.765  14.209   1.791
39908SOL    HW121621  11.797  14.254   1.870
39908SOL    HW221622  11.752  14.119   1.819
39909SOL     OW21623   5.267   7.735   2.695
39909SOL    HW121624   5.178   7.718   2.663
39909SOL    HW221625   5.254   7.782   2.777
39910SOL     OW21626   3.313   6.812  14.511
39910SOL    HW121627   3.278   6.843  14.427
39910SOL    HW221628   3.248   6.838  14.576
39911SOL     OW21629  10.240   0.414   6.374
39911SOL    HW121630  10.323   0.461   6.386
39911SOL    HW221631  10.267   0.324   6.354
39912SOL     OW21632   3.646   8.123   6.873
39912SOL    HW121633   3.552   8.130   6.890
39912SOL    HW221634   3.681   8.075   6.948
39913SOL     OW21635  12.083   9.306   6.219
39913SOL    HW121636  11.993   9.337   6.218
39913SOL    HW221637  12.077   9.213   6.237
39914SOL     OW21638   5.521   0.608  11.019
39914SOL    HW121639   5.521   0.700  10.991
39914SOL    HW221640   5.477   0.610  11.104
39915SOL     OW21641   5.847   6.602   1.944
39915SOL    HW121642   5.917   6.662   1.919
39915SOL    HW221643   5.877   6.563   2.026
39916SOL     OW21644   7.759  10.788  13.746
39916SOL    HW121645   7.786  10.879  13.761
39916SOL    HW221646   7.700  10.793  13.671
39917SOL     OW21647   0.401   5.332  12.512
39917SOL    HW121648   0.432   5.277  12.441
39917SOL    HW221649   0.434   5.290  12.592
39918SOL     OW21650   4.218   2.778   7.582
39918SOL    HW121651   4.296   2.723   7.572
39918SOL    HW221652   4.184   2.789   7.494
39919SOL     OW21653   5.536  11.659   0.160
39919SOL    HW121654   5.602  11.720   0.194
39919SOL    HW221655   5.508  11.610   0.238
39920SOL     OW21656   8.300   0.767  11.007
39920SOL    HW121657   8.276   0.848  11.053
39920SOL    HW221658   8.376   0.792  10.954
39921SOL     OW21659  13.337   7.597   1.005
39921SOL    HW121660  13.305   7.507   1.008
39921SOL    HW221661  13.412   7.597   1.064
39922SOL     OW21662  14.044   0.151  13.565
39922SOL    HW121663  14.106   0.078  13.566
39922SOL    HW221664  13.974   0.124  13.625
39923SOL     OW21665   7.320   2.008  10.206
39923SOL    HW121666   7.368   1.974  10.281
39923SOL    HW221667   7.255   1.940  10.186
39924SOL     OW21668   5.667   5.290   4.029
39924SOL    HW121669   5.672   5.279   4.124
39924SOL    HW221670   5.594   5.233   4.003
39925SOL     OW21671   3.282   4.297   5.165
39925SOL    HW121672   3.343   4.365   5.194
39925SOL    HW221673   3.239   4.335   5.087
39926SOL     OW21674   9.029   3.919  13.447
39926SOL    HW121675   8.968   3.914  13.374
39926SOL    HW221676   8.988   3.869  13.517
39927SOL     OW21677  11.945   8.861   7.064
39927SOL    HW121678  11.884   8.853   7.138
39927SOL    HW221679  11.933   8.950   7.033
39928SOL     OW21680   6.691   2.382   6.945
39928SOL    HW121681   6.655   2.363   6.858
39928SOL    HW221682   6.740   2.302   6.968
39929SOL     OW21683  14.752   1.463   8.984
39929SOL    HW121684  14.787   1.476   8.896
39929SOL    HW221685  14.756   1.550   9.025
39930SOL     OW21686   4.698   9.331  14.378
39930SOL    HW121687   4.614   9.317  14.422
39930SOL    HW221688   4.739   9.244  14.378
39931SOL     OW21689  12.509   5.361   8.499
39931SOL    HW121690  12.492   5.361   8.405
39931SOL    HW221691  12.440   5.416   8.536
39932SOL     OW21692  13.788   9.647  10.541
39932SOL    HW121693  13.815   9.646  10.449
39932SOL    HW221694  13.714   9.586  10.544
39933SOL     OW21695  13.817  14.047  10.760
39933SOL    HW121696  13.889  14.037  10.822
39933SOL    HW221697  13.748  13.990  10.794
39934SOL     OW21698   3.417   9.077   1.836
39934SOL    HW121699   3.346   9.030   1.792
39934SOL    HW221700   3.373   9.144   1.888
39935SOL     OW21701   7.908  11.705  12.509
39935SOL    HW121702   7.911  11.633  12.446
39935SOL    HW221703   7.994  11.746  12.504
39936SOL     OW21704   7.259   5.007  12.158
39936SOL    HW121705   7.202   4.931  12.164
39936SOL    HW221706   7.333   4.987  12.215
39937SOL     OW21707  13.235   0.541  13.753
39937SOL    HW121708  13.213   0.523  13.845
39937SOL    HW221709  13.207   0.632  13.740
39938SOL     OW21710  11.656  11.603   1.587
39938SOL    HW121711  11.653  11.644   1.501
39938SOL    HW221712  11.565  11.580   1.607
39939SOL     OW21713   8.476   5.634  12.371
39939SOL    HW121714   8.411   5.570  12.400
39939SOL    HW221715   8.560   5.591  12.384
39940SOL     OW21716  11.494  13.529   0.345
39940SOL    HW121717  11.514  13.487   0.429
39940SOL    HW221718  11.478  13.620   0.366
39941SOL     OW21719   9.602  13.284   6.953
39941SOL    HW121720   9.515  13.279   6.992
39941SOL    HW221721   9.587  13.306   6.861
39942SOL     OW21722   8.599  11.841  10.106
39942SOL    HW121723   8.670  11.874  10.050
39942SOL    HW221724   8.535  11.913  10.109
39943SOL     OW21725  10.497  12.017  10.919
39943SOL    HW121726  10.556  12.084  10.954
39943SOL    HW221727  10.416  12.030  10.969
39944SOL     OW21728   6.629   0.809   0.807
39944SOL    HW121729   6.694   0.817   0.877
39944SOL    HW221730   6.622   0.897   0.771
39945SOL     OW21731   9.552  13.218   5.726
39945SOL    HW121732   9.570  13.298   5.776
39945SOL    HW221733   9.624  13.159   5.747
39946SOL     OW21734   7.859  10.431   4.450
39946SOL    HW121735   7.783  10.442   4.393
39946SOL    HW221736   7.822  10.409   4.536
39947SOL     OW21737  13.143  10.144   6.793
39947SOL    HW121738  13.185  10.116   6.712
39947SOL    HW221739  13.193  10.101   6.862
39948SOL     OW21740   2.836   9.216  14.143
39948SOL    HW121741   2.925   9.251  14.136
39948SOL    HW221742   2.818   9.181  14.056
39949SOL     OW21743  11.126   7.406   7.559
39949SOL    HW121744  11.193   7.448   7.505
39949SOL    HW221745  11.159   7.318   7.574
39950SOL     OW21746  14.653   9.842   2.206
39950SOL    HW121747  14.745   9.836   2.182
39950SOL    HW221748  14.651   9.903   2.280
39951SOL     OW21749   1.112  12.074  11.775
39951SOL    HW121750   1.127  12.114  11.860
39951SOL    HW221751   1.199  12.048  11.744
39952SOL     OW21752   0.645   8.606  10.459
39952SOL    HW121753   0.590   8.616  10.536
39952SOL    HW221754   0.653   8.694  10.423
39953SOL     OW21755  14.491   9.158   7.031
39953SOL    HW121756  14.487   9.131   6.939
39953SOL    HW221757  14.584   9.163   7.051
39954SOL     OW21758   2.581   5.851   3.218
39954SOL    HW121759   2.587   5.909   3.142
39954SOL    HW221760   2.649   5.883   3.277
39955SOL     OW21761  11.995   0.621   8.178
39955SOL    HW121762  12.032   0.541   8.216
39955SOL    HW221763  12.071   0.677   8.161
39956SOL     OW21764   4.046   2.086  14.296
39956SOL    HW121765   4.130   2.041  14.299
39956SOL    HW221766   4.030   2.115  14.386
39957SOL     OW21767   4.877   8.662  14.199
39957SOL    HW121768   4.880   8.647  14.104
39957SOL    HW221769   4.783   8.669  14.218
39958SOL     OW21770   5.857   9.751   6.054
39958SOL    HW121771   5.890   9.750   5.964
39958SOL    HW221772   5.891   9.832   6.091
39959SOL     OW21773   8.514   7.379   3.527
39959SOL    HW121774   8.430   7.412   3.495
39959SOL    HW221775   8.579   7.428   3.477
39960SOL     OW21776   1.529   3.087   0.040
39960SOL    HW121777   1.565   3.043   0.118
39960SOL    HW221778   1.454   3.034   0.014
39961SOL     OW21779  13.551  12.927   0.057
39961SOL    HW121780  13.621  12.993   0.058
39961SOL    HW221781  13.593  12.849   0.093
39962SOL     OW21782  14.309   1.440  11.814
39962SOL    HW121783  14.380   1.496  11.844
39962SOL    HW221784  14.348   1.353  11.807
39963SOL     OW21785   9.849   4.557   8.015
39963SOL    HW121786   9.865   4.562   7.921
39963SOL    HW221787   9.756   4.534   8.022
39964SOL     OW21788   6.158   9.297   6.134
39964SOL    HW121789   6.109   9.241   6.074
39964SOL    HW221790   6.235   9.245   6.158
39965SOL     OW21791   1.822  14.873   9.746
39965SOL    HW121792   1.801  14.865   9.839
39965SOL    HW221793   1.813   0.086   9.727
39966SOL     OW21794  10.868   9.062   2.214
39966SOL    HW121795  10.816   9.070   2.134
39966SOL    HW221796  10.942   9.006   2.189
39967SOL     OW21797   1.554   7.685  10.447
39967SOL    HW121798   1.518   7.701  10.360
39967SOL    HW221799   1.647   7.708  10.439
39968SOL     OW21800   3.701   0.428   8.100
39968SOL    HW121801   3.749   0.508   8.080
39968SOL    HW221802   3.728   0.404   8.189
39969SOL     OW21803   0.746   8.529  14.005
39969SOL    HW121804   0.715   8.505  14.092
39969SOL    HW221805   0.751   8.446  13.958
39970SOL     OW21806  11.635   0.104   1.446
39970SOL    HW121807  11.698   0.078   1.514
39970SOL    HW221808  11.673   0.181   1.405
39971SOL     OW21809   5.519   2.942  11.166
39971SOL    HW121810   5.581   2.972  11.100
39971SOL    HW221811   5.462   3.018  11.181
39972SOL     OW21812  11.458   6.776   2.129
39972SOL    HW121813  11.400   6.837   2.173
39972SOL    HW221814  11.451   6.695   2.178
39973SOL     OW21815   7.561   5.062  14.404
39973SOL    HW121816   7.510   5.007  14.344
39973SOL    HW221817   7.618   5.113  14.346
39974SOL     OW21818   4.328   3.888   7.720
39974SOL    HW121819   4.298   3.832   7.792
39974SOL    HW221820   4.397   3.838   7.678
39975SOL     OW21821   2.063  10.772  10.694
39975SOL    HW121822   2.119  10.742  10.623
39975SOL    HW221823   2.084  10.865  10.703
39976SOL     OW21824   6.857   6.785   6.683
39976SOL    HW121825   6.816   6.830   6.609
39976SOL    HW221826   6.786   6.733   6.721
39977SOL     OW21827  10.628  12.832   5.851
39977SOL    HW121828  10.722  12.846   5.862
39977SOL    HW221829  10.588  12.913   5.883
39978SOL     OW21830  10.728   2.899   8.766
39978SOL    HW121831  10.729   2.841   8.842
39978SOL    HW221832  10.755   2.984   8.799
39979SOL     OW21833   0.035   2.369   2.895
39979SOL    HW121834   0.118   2.334   2.929
39979SOL    HW221835   0.061   2.427   2.824
39980SOL     OW21836  11.050   8.529   5.769
39980SOL    HW121837  11.068   8.446   5.726
39980SOL    HW221838  10.955   8.536   5.770
39981SOL     OW21839  11.511  12.739   2.322
39981SOL    HW121840  11.537  12.703   2.407
39981SOL    HW221841  11.548  12.828   2.322
39982SOL     OW21842  11.310   2.236   6.691
39982SOL    HW121843  11.302   2.249   6.596
39982SOL    HW221844  11.329   2.323   6.725
39983SOL     OW21845   1.596   3.927   7.806
39983SOL    HW121846   1.552   4.005   7.772
39983SOL    HW221847   1.548   3.905   7.886
39984SOL     OW21848   3.605  14.719   1.527
39984SOL    HW121849   3.637  14.779   1.593
39984SOL    HW221850   3.513  14.703   1.551
39985SOL     OW21851  10.709  14.648   6.826
39985SOL    HW121852  10.796  14.645   6.866
39985SOL    HW221853  10.704  14.735   6.787
39986SOL     OW21854  14.427   2.458  13.922
39986SOL    HW121855  14.341   2.480  13.959
39986SOL    HW221856  14.489   2.507  13.975
39987SOL     OW21857  14.184  13.586   4.205
39987SOL    HW121858  14.131  13.632   4.269
39987SOL    HW221859  14.271  13.625   4.213
39988SOL     OW21860   2.210  14.276  10.229
39988SOL    HW121861   2.234  14.253  10.140
39988SOL    HW221862   2.152  14.205  10.257
39989SOL     OW21863   2.909  14.677  13.832
39989SOL    HW121864   2.940  14.598  13.876
39989SOL    HW221865   2.958  14.749  13.873
39990SOL     OW21866   5.358   1.023   2.517
39990SOL    HW121867   5.345   0.963   2.444
39990SOL    HW221868   5.444   0.999   2.553
39991SOL     OW21869  12.159   6.572  11.410
39991SOL    HW121870  12.244   6.534  11.387
39991SOL    HW221871  12.097   6.529  11.350
39992SOL     OW21872  14.161   9.880  13.739
39992SOL    HW121873  14.221   9.898  13.667
39992SOL    HW221874  14.083   9.843  13.697
39993SOL     OW21875   8.872   3.956  14.844
39993SOL    HW121876   8.863   3.999   0.049
39993SOL    HW221877   8.784   3.955  14.808
39994SOL     OW21878   1.946   2.167   8.585
39994SOL    HW121879   1.977   2.097   8.527
39994SOL    HW221880   1.973   2.248   8.542
39995SOL     OW21881  14.747   0.525   3.486
39995SOL    HW121882  14.764   0.439   3.447
39995SOL    HW221883  14.776   0.588   3.420
39996SOL     OW21884   0.990   6.849   7.676
39996SOL    HW121885   0.906   6.893   7.685
39996SOL    HW221886   1.035   6.896   7.606
39997SOL     OW21887  12.099   6.026   8.220
39997SOL    HW121888  12.058   5.979   8.146
39997SOL    HW221889  12.066   5.981   8.297
39998SOL     OW21890   7.135   0.560  11.943
39998SOL    HW121891   7.212   0.592  11.991
39998SOL    HW221892   7.070   0.630  11.952
39999SOL     OW21893  13.492   7.851   0.358
39999SOL    HW121894  13.504   7.946   0.369
39999SOL    HW221895  13.549   7.812   0.424
40000SOL     OW21896   5.722   1.299  11.572
40000SOL    HW121897   5.728   1.238  11.646
40000SOL    HW221898   5.764   1.379  11.604
40001SOL     OW21899   7.324  13.493   6.250
40001SOL    HW121900   7.351  13.462   6.336
40001SOL    HW221901   7.369  13.577   6.239
40002SOL     OW21902   8.187   8.788  11.070
40002SOL    HW121903   8.196   8.842  10.991
40002SOL    HW221904   8.274   8.791  11.111
40003SOL     OW21905   3.126  13.227   0.464
40003SOL    HW121906   3.150  13.168   0.392
40003SOL    HW221907   3.044  13.268   0.435
40004SOL     OW21908   7.211  10.702  13.122
40004SOL    HW121909   7.276  10.687  13.053
40004SOL    HW221910   7.139  10.642  13.101
40005SOL     OW21911   9.845   2.821   7.407
40005SOL    HW121912   9.856   2.765   7.483
40005SOL    HW221913   9.930   2.819   7.363
40006SOL     OW21914   6.793   1.958   8.916
40006SOL    HW121915   6.738   1.928   8.843
40006SOL    HW221916   6.731   1.999   8.977
40007SOL     OW21917  14.737   7.449  11.277
40007SOL    HW121918  14.785   7.375  11.239
40007SOL    HW221919  14.646   7.421  11.276
40008SOL     OW21920   9.332   1.690   6.992
40008SOL    HW121921   9.396   1.661   6.927
40008SOL    HW221922   9.369   1.664   7.076
40009SOL     OW21923   2.649   7.336   0.631
40009SOL    HW121924   2.708   7.401   0.592
40009SOL    HW221925   2.590   7.387   0.686
40010SOL     OW21926  10.448  12.411   9.125
40010SOL    HW121927  10.525  12.359   9.150
40010SOL    HW221928  10.439  12.396   9.031
40011SOL     OW21929   4.974   5.323  11.674
40011SOL    HW121930   4.952   5.416  11.669
40011SOL    HW221931   4.958   5.299  11.765
40012SOL     OW21932   3.824  12.922   2.998
40012SOL    HW121933   3.782  12.974   3.067
40012SOL    HW221934   3.866  12.850   3.046
40013SOL     OW21935   9.191   5.317   3.945
40013SOL    HW121936   9.149   5.394   3.981
40013SOL    HW221937   9.284   5.326   3.968
40014SOL     OW21938   6.538   1.764  13.998
40014SOL    HW121939   6.484   1.702  13.949
40014SOL    HW221940   6.510   1.756  14.089
40015SOL     OW21941   2.177   0.657   2.971
40015SOL    HW121942   2.189   0.672   3.065
40015SOL    HW221943   2.158   0.745   2.936
40016SOL     OW21944   6.037   0.245  10.496
40016SOL    HW121945   6.030   0.277  10.406
40016SOL    HW221946   6.122   0.200  10.499
40017SOL     OW21947   4.992   8.688  11.748
40017SOL    HW121948   5.019   8.749  11.816
40017SOL    HW221949   4.898   8.677  11.761
40018SOL     OW21950  10.536   5.730   9.083
40018SOL    HW121951  10.527   5.810   9.134
40018SOL    HW221952  10.627   5.704   9.094
40019SOL     OW21953   1.688  11.635   9.635
40019SOL    HW121954   1.630  11.630   9.558
40019SOL    HW221955   1.773  11.659   9.599
40020SOL     OW21956  14.109   6.646   5.698
40020SOL    HW121957  14.186   6.687   5.657
40020SOL    HW221958  14.132   6.640   5.791
40021SOL     OW21959  10.198   6.147   2.362
40021SOL    HW121960  10.158   6.196   2.291
40021SOL    HW221961  10.124   6.121   2.417
40022SOL     OW21962   1.197  12.535   3.037
40022SOL    HW121963   1.173  12.627   3.027
40022SOL    HW221964   1.133  12.488   2.983
40023SOL     OW21965   8.011   5.350   8.157
40023SOL    HW121966   8.031   5.424   8.101
40023SOL    HW221967   8.072   5.282   8.130
40024SOL     OW21968  13.161  14.601   7.960
40024SOL    HW121969  13.245  14.561   7.939
40024SOL    HW221970  13.106  14.583   7.884
40025SOL     OW21971   6.756   5.339   1.081
40025SOL    HW121972   6.711   5.317   0.999
40025SOL    HW221973   6.707   5.413   1.117
40026SOL     OW21974   2.947   9.296  10.711
40026SOL    HW121975   3.011   9.327  10.775
40026SOL    HW221976   2.980   9.329  10.627
40027SOL     OW21977  13.202   6.416   8.039
40027SOL    HW121978  13.235   6.463   7.962
40027SOL    HW221979  13.123   6.464   8.064
40028SOL     OW21980   2.397  10.728  14.818
40028SOL    HW121981   2.377  10.772  14.735
40028SOL    HW221982   2.328  10.663  14.828
40029SOL     OW21983   4.907   9.792   6.371
40029SOL    HW121984   4.938   9.732   6.303
40029SOL    HW221985   4.812   9.785   6.368
40030SOL     OW21986   7.827  12.972  13.133
40030SOL    HW121987   7.853  13.037  13.199
40030SOL    HW221988   7.738  12.998  13.108
40031SOL     OW21989   0.292   8.860   7.305
40031SOL    HW121990   0.326   8.770   7.308
40031SOL    HW221991   0.249   8.872   7.389
40032SOL     OW21992   8.233   9.191  13.553
40032SOL    HW121993   8.145   9.192  13.591
40032SOL    HW221994   8.267   9.103  13.572
40033SOL     OW21995   9.945   8.280   5.180
40033SOL    HW121996  10.001   8.356   5.191
40033SOL    HW221997   9.856   8.315   5.179
40034SOL     OW21998   7.540   4.758   4.030
40034SOL    HW121999   7.600   4.731   3.960
40034SOL    HW222000   7.584   4.733   4.111
40035SOL     OW22001   9.948   8.537   0.176
40035SOL    HW122002   9.860   8.540   0.213
40035SOL    HW222003  10.004   8.512   0.250
40036SOL     OW22004  10.030  14.119   5.926
40036SOL    HW122005  10.121  14.137   5.904
40036SOL    HW222006  10.007  14.185   5.992
40037SOL     OW22007   7.895  10.604  10.068
40037SOL    HW122008   7.845  10.651  10.001
40037SOL    HW222009   7.944  10.673  10.114
40038SOL     OW22010  13.371   5.567  10.217
40038SOL    HW122011  13.396   5.656  10.193
40038SOL    HW222012  13.343   5.528  10.134
40039SOL     OW22013   9.593  11.692   5.117
40039SOL    HW122014   9.684  11.722   5.112
40039SOL    HW222015   9.585  11.627   5.047
40040SOL     OW22016   4.339  10.034   2.581
40040SOL    HW122017   4.394  10.037   2.504
40040SOL    HW222018   4.389  10.080   2.649
40041SOL     OW22019  10.942   0.500   4.565
40041SOL    HW122020  10.900   0.460   4.489
40041SOL    HW222021  10.873   0.505   4.631
40042SOL     OW22022   8.446   1.161   9.638
40042SOL    HW122023   8.362   1.165   9.683
40042SOL    HW222024   8.511   1.167   9.707
40043SOL     OW22025  10.524   2.170  13.228
40043SOL    HW122026  10.534   2.145  13.320
40043SOL    HW222027  10.545   2.091  13.179
40044SOL     OW22028  12.296   0.826   8.730
40044SOL    HW122029  12.207   0.825   8.765
40044SOL    HW222030  12.353   0.831   8.806
40045SOL     OW22031   1.285   3.995   6.663
40045SOL    HW122032   1.262   4.047   6.740
40045SOL    HW222033   1.206   3.943   6.645
40046SOL     OW22034  10.223   6.542   4.581
40046SOL    HW122035  10.218   6.479   4.509
40046SOL    HW222036  10.146   6.597   4.570
40047SOL     OW22037   4.305   8.715   3.745
40047SOL    HW122038   4.293   8.652   3.674
40047SOL    HW222039   4.259   8.793   3.716
40048SOL     OW22040  11.459  11.649   9.931
40048SOL    HW122041  11.518  11.642   9.856
40048SOL    HW222042  11.405  11.571   9.926
40049SOL     OW22043   3.231  11.060   7.505
40049SOL    HW122044   3.145  11.072   7.545
40049SOL    HW222045   3.220  10.985   7.447
40050SOL     OW22046   1.027   9.987   1.453
40050SOL    HW122047   0.937   9.996   1.420
40050SOL    HW222048   1.077  10.052   1.403
40051SOL     OW22049  13.427   5.311   0.347
40051SOL    HW122050  13.493   5.381   0.342
40051SOL    HW222051  13.344   5.355   0.330
40052SOL     OW22052   7.209  10.081  12.212
40052SOL    HW122053   7.208  10.111  12.121
40052SOL    HW222054   7.206   9.985  12.205
40053SOL     OW22055  13.779  10.065   0.875
40053SOL    HW122056  13.783  10.070   0.971
40053SOL    HW222057  13.705  10.007   0.858
40054SOL     OW22058   7.605   3.818   0.297
40054SOL    HW122059   7.568   3.760   0.364
40054SOL    HW222060   7.699   3.817   0.314
40055SOL     OW22061  10.313  11.838   5.596
40055SOL    HW122062  10.218  11.850   5.601
40055SOL    HW222063  10.330  11.829   5.502
40056SOL     OW22064   0.679   3.107   1.108
40056SOL    HW122065   0.693   3.048   1.182
40056SOL    HW222066   0.584   3.114   1.101
40057SOL     OW22067  10.444   9.136  11.670
40057SOL    HW122068  10.530   9.162  11.703
40057SOL    HW222069  10.434   9.045  11.696
40058SOL     OW22070  14.738   7.383   1.190
40058SOL    HW122071  14.672   7.315   1.177
40058SOL    HW222072  14.738   7.399   1.285
40059SOL     OW22073   6.446   9.855   7.655
40059SOL    HW122074   6.513   9.850   7.724
40059SOL    HW222075   6.386   9.784   7.676
40060SOL     OW22076  11.947   5.357   5.828
40060SOL    HW122077  11.909   5.311   5.904
40060SOL    HW222078  11.879   5.418   5.801
40061SOL     OW22079   7.460   0.766   0.359
40061SOL    HW122080   7.456   0.684   0.408
40061SOL    HW222081   7.530   0.816   0.401
40062SOL     OW22082   7.873   0.378  12.164
40062SOL    HW122083   7.781   0.378  12.188
40062SOL    HW222084   7.920   0.393  12.247
40063SOL     OW22085   8.147   5.877   0.168
40063SOL    HW122086   8.205   5.804   0.189
40063SOL    HW222087   8.206   5.952   0.161
40064SOL     OW22088  13.584   0.803   3.620
40064SOL    HW122089  13.610   0.714   3.597
40064SOL    HW222090  13.523   0.829   3.551
40065SOL     OW22091   8.651   2.578  10.776
40065SOL    HW122092   8.683   2.546  10.861
40065SOL    HW222093   8.653   2.673  10.784
40066SOL     OW22094   7.639   5.570  10.488
40066SOL    HW122095   7.655   5.509  10.416
40066SOL    HW222096   7.726   5.601  10.513
40067SOL     OW22097   2.860   1.858  11.198
40067SOL    HW122098   2.954   1.872  11.183
40067SOL    HW222099   2.820   1.943  11.184
40068SOL     OW22100   0.737   2.214  10.987
40068SOL    HW122101   0.764   2.146  10.926
40068SOL    HW222102   0.702   2.166  11.062
40069SOL     OW22103   7.512   7.188   4.008
40069SOL    HW122104   7.558   7.131   3.946
40069SOL    HW222105   7.424   7.198   3.971
40070SOL     OW22106   2.308  11.066   1.004
40070SOL    HW122107   2.398  11.078   0.973
40070SOL    HW222108   2.287  11.147   1.050
40071SOL     OW22109  14.136   6.601  12.827
40071SOL    HW122110  14.133   6.644  12.912
40071SOL    HW222111  14.053   6.555  12.820
40072SOL     OW22112   9.523   8.378   8.115
40072SOL    HW122113   9.454   8.336   8.063
40072SOL    HW222114   9.597   8.385   8.054
40073SOL     OW22115  12.526   1.038  10.770
40073SOL    HW122116  12.499   1.055  10.860
40073SOL    HW222117  12.501   0.947  10.754
40074SOL     OW22118   1.603   3.715   8.413
40074SOL    HW122119   1.663   3.641   8.415
40074SOL    HW222120   1.624   3.761   8.332
40075SOL     OW22121  10.975   1.170   7.887
40075SOL    HW122122  11.038   1.111   7.845
40075SOL    HW222123  10.966   1.243   7.825
40076SOL     OW22124   4.772  12.789   1.095
40076SOL    HW122125   4.861  12.826   1.100
40076SOL    HW222126   4.729  12.820   1.174
40077SOL     OW22127   5.789   2.090   4.520
40077SOL    HW122128   5.726   2.052   4.459
40077SOL    HW222129   5.751   2.174   4.545
40078SOL     OW22130   1.779   6.782  11.945
40078SOL    HW122131   1.852   6.812  11.890
40078SOL    HW222132   1.820   6.723  12.008
40079SOL     OW22133   9.921  10.568  14.603
40079SOL    HW122134  10.014  10.557  14.624
40079SOL    HW222135   9.903  10.660  14.624
40080SOL     OW22136   8.426  11.979   5.240
40080SOL    HW122137   8.502  11.928   5.211
40080SOL    HW222138   8.417  11.958   5.333
40081SOL     OW22139   4.712   5.180  10.294
40081SOL    HW122140   4.766   5.212  10.222
40081SOL    HW222141   4.739   5.089  10.306
40082SOL     OW22142  12.082  14.824  13.491
40082SOL    HW122143  12.049   0.011  13.551
40082SOL    HW222144  12.042  14.743  13.521
40083SOL     OW22145   1.305  11.760   5.288
40083SOL    HW122146   1.334  11.682   5.242
40083SOL    HW222147   1.294  11.732   5.379
40084SOL     OW22148   9.356   5.813   2.347
40084SOL    HW122149   9.315   5.806   2.262
40084SOL    HW222150   9.293   5.860   2.402
40085SOL     OW22151   9.797   5.669   9.442
40085SOL    HW122152   9.731   5.677   9.373
40085SOL    HW222153   9.836   5.757   9.448
40086SOL     OW22154  13.877  10.239   7.204
40086SOL    HW122155  13.918  10.154   7.185
40086SOL    HW222156  13.937  10.282   7.265
40087SOL     OW22157  13.274   4.685   4.762
40087SOL    HW122158  13.319   4.762   4.726
40087SOL    HW222159  13.246   4.712   4.850
40088SOL     OW22160   9.993  13.664  13.161
40088SOL    HW122161  10.029  13.752  13.147
40088SOL    HW222162  10.060  13.618  13.211
40089SOL     OW22163   2.619   5.833   1.752
40089SOL    HW122164   2.570   5.914   1.743
40089SOL    HW222165   2.702   5.849   1.707
40090SOL     OW22166   5.085   6.259   6.488
40090SOL    HW122167   5.114   6.175   6.523
40090SOL    HW222168   5.137   6.324   6.535
40091SOL     OW22169  13.620   1.157   3.942
40091SOL    HW122170  13.641   1.215   4.015
40091SOL    HW222171  13.704   1.116   3.918
40092SOL     OW22172   8.849   5.106  13.326
40092SOL    HW122173   8.781   5.100  13.392
40092SOL    HW222174   8.923   5.148  13.371
40093SOL     OW22175   7.532  13.326  11.939
40093SOL    HW122176   7.485  13.322  12.023
40093SOL    HW222177   7.502  13.248  11.892
40094SOL     OW22178  14.309  12.882   7.458
40094SOL    HW122179  14.392  12.912   7.420
40094SOL    HW222180  14.324  12.884   7.552
40095SOL     OW22181  10.720   7.203  12.431
40095SOL    HW122182  10.720   7.220  12.525
40095SOL    HW222183  10.787   7.135  12.419
40096SOL     OW22184   7.220  10.028   7.727
40096SOL    HW122185   7.300  10.018   7.779
40096SOL    HW222186   7.150  10.035   7.791
40097SOL     OW22187   6.174  11.588   4.980
40097SOL    HW122188   6.245  11.526   4.967
40097SOL    HW222189   6.204  11.668   4.936
40098SOL     OW22190  10.227   0.181   3.369
40098SOL    HW122191  10.311   0.220   3.394
40098SOL    HW222192  10.250   0.103   3.319
40099SOL     OW22193  13.051   6.039  13.064
40099SOL    HW122194  13.066   5.945  13.053
40099SOL    HW222195  13.137   6.074  13.087
40100SOL     OW22196   5.914  12.972  13.371
40100SOL    HW122197   5.973  12.906  13.334
40100SOL    HW222198   5.856  12.922  13.428
40101SOL     OW22199   3.849  14.418   0.290
40101SOL    HW122200   3.918  14.435   0.353
40101SOL    HW222201   3.821  14.328   0.308
40102SOL     OW22202   9.527   4.713   8.525
40102SOL    HW122203   9.451   4.749   8.570
40102SOL    HW222204   9.535   4.624   8.559
40103SOL     OW22205   2.735   6.198  11.578
40103SOL    HW122206   2.668   6.198  11.509
40103SOL    HW222207   2.705   6.132  11.641
40104SOL     OW22208  12.726   0.926   6.170
40104SOL    HW122209  12.702   0.833   6.168
40104SOL    HW222210  12.644   0.972   6.148
40105SOL     OW22211   2.463   2.085   4.854
40105SOL    HW122212   2.414   2.106   4.774
40105SOL    HW222213   2.553   2.110   4.833
40106SOL     OW22214   7.970   3.179   9.731
40106SOL    HW122215   7.918   3.254   9.705
40106SOL    HW222216   7.910   3.124   9.782
40107SOL     OW22217  10.752   9.089   9.628
40107SOL    HW122218  10.770   9.178   9.658
40107SOL    HW222219  10.830   9.040   9.653
40108SOL     OW22220   3.408   6.914   8.651
40108SOL    HW122221   3.403   6.830   8.606
40108SOL    HW222222   3.452   6.895   8.734
40109SOL     OW22223   2.817   0.981   5.820
40109SOL    HW122224   2.783   0.943   5.739
40109SOL    HW222225   2.901   1.020   5.796
40110SOL     OW22226  13.576  14.134   9.287
40110SOL    HW122227  13.485  14.146   9.312
40110SOL    HW222228  13.591  14.040   9.292
40111SOL     OW22229  14.521   9.963   7.616
40111SOL    HW122230  14.515  10.009   7.699
40111SOL    HW222231  14.597   9.905   7.625
40112SOL     OW22232   5.799   8.450  13.722
40112SOL    HW122233   5.752   8.520  13.767
40112SOL    HW222234   5.868   8.425  13.784
40113SOL     OW22235   9.953   8.134   5.467
40113SOL    HW122236  10.023   8.196   5.445
40113SOL    HW222237   9.973   8.105   5.556
40114SOL     OW22238   3.280   4.976  11.107
40114SOL    HW122239   3.343   5.017  11.166
40114SOL    HW222240   3.309   4.886  11.098
40115SOL     OW22241  12.417   1.415   8.913
40115SOL    HW122242  12.415   1.400   9.008
40115SOL    HW222243  12.383   1.334   8.875
40116SOL     OW22244   2.296   0.693   9.389
40116SOL    HW122245   2.333   0.772   9.348
40116SOL    HW222246   2.257   0.644   9.317
40117SOL     OW22247  11.922  14.580   4.619
40117SOL    HW122248  11.929  14.668   4.584
40117SOL    HW222249  11.828  14.566   4.631
40118SOL     OW22250   6.010   1.331   7.374
40118SOL    HW122251   5.960   1.408   7.401
40118SOL    HW222252   5.983   1.315   7.284
40119SOL     OW22253   9.655   8.601  13.704
40119SOL    HW122254   9.676   8.693  13.720
40119SOL    HW222255   9.668   8.589  13.610
40120SOL     OW22256   6.262  11.978   5.067
40120SOL    HW122257   6.173  11.992   5.098
40120SOL    HW222258   6.300  11.915   5.127
40121SOL     OW22259   3.165  14.700   2.363
40121SOL    HW122260   3.149  14.772   2.302
40121SOL    HW222261   3.084  14.650   2.364
40122SOL     OW22262   5.661   4.593  10.863
40122SOL    HW122263   5.623   4.560  10.782
40122SOL    HW222264   5.630   4.683  10.870
40123SOL     OW22265   6.851   1.219   8.643
40123SOL    HW122266   6.835   1.309   8.615
40123SOL    HW222267   6.936   1.222   8.688
40124SOL     OW22268  12.125   6.053   0.380
40124SOL    HW122269  12.203   5.998   0.388
40124SOL    HW222270  12.158   6.135   0.344
40125SOL     OW22271  13.126   6.349  10.880
40125SOL    HW122272  13.038   6.335  10.914
40125SOL    HW222273  13.125   6.310  10.793
40126SOL     OW22274   1.421  11.889   4.083
40126SOL    HW122275   1.426  11.852   3.995
40126SOL    HW222276   1.385  11.818   4.137
40127SOL     OW22277   7.567   4.066  11.986
40127SOL    HW122278   7.660   4.074  12.007
40127SOL    HW222279   7.536   3.992  12.038
40128SOL     OW22280   4.090  10.407  14.806
40128SOL    HW122281   4.142  10.330  14.785
40128SOL    HW222282   4.039  10.381   0.002
40129SOL     OW22283  14.415   1.414   1.720
40129SOL    HW122284  14.383   1.350   1.784
40129SOL    HW222285  14.336   1.460   1.691
40130SOL     OW22286   1.572   1.172   6.630
40130SOL    HW122287   1.658   1.143   6.600
40130SOL    HW222288   1.529   1.206   6.551
40131SOL     OW22289  14.778   4.496   6.200
40131SOL    HW122290  14.870   4.512   6.179
40131SOL    HW222291  14.756   4.416   6.152
40132SOL     OW22292   6.376   2.976   3.937
40132SOL    HW122293   6.330   2.982   4.020
40132SOL    HW222294   6.380   3.066   3.904
40133SOL     OW22295  13.248   7.691   7.523
40133SOL    HW122296  13.306   7.762   7.496
40133SOL    HW222297  13.219   7.715   7.611
40134SOL     OW22298  10.420   4.676  11.978
40134SOL    HW122299  10.420   4.695  12.072
40134SOL    HW222300  10.506   4.704  11.947
40135SOL     OW22301   6.442   6.135  10.570
40135SOL    HW122302   6.414   6.127  10.479
40135SOL    HW222303   6.509   6.204  10.569
40136SOL     OW22304   1.292   3.404  10.168
40136SOL    HW122305   1.295   3.404  10.072
40136SOL    HW222306   1.362   3.464  10.194
40137SOL     OW22307   1.725   1.892  12.842
40137SOL    HW122308   1.633   1.889  12.867
40137SOL    HW222309   1.759   1.972  12.884
40138SOL     OW22310   9.378   4.091   3.706
40138SOL    HW122311   9.285   4.091   3.729
40138SOL    HW222312   9.379   4.089   3.611
40139SOL     OW22313   9.708   8.415   8.687
40139SOL    HW122314   9.716   8.494   8.634
40139SOL    HW222315   9.796   8.378   8.690
40140SOL     OW22316   0.636  10.348  12.070
40140SOL    HW122317   0.729  10.324  12.075
40140SOL    HW222318   0.591  10.276  12.113
40141SOL     OW22319   3.812   3.260  10.052
40141SOL    HW122320   3.784   3.303  10.133
40141SOL    HW222321   3.819   3.167  10.076
40142SOL     OW22322  11.204   1.977  12.949
40142SOL    HW122323  11.175   1.888  12.972
40142SOL    HW222324  11.240   2.012  13.030
40143SOL     OW22325   1.017   3.155   9.622
40143SOL    HW122326   1.071   3.089   9.665
40143SOL    HW222327   0.934   3.110   9.605
40144SOL     OW22328   9.444  10.961  10.423
40144SOL    HW122329   9.491  11.045  10.424
40144SOL    HW222330   9.508  10.899  10.389
40145SOL     OW22331  12.821   1.029  12.595
40145SOL    HW122332  12.769   0.999  12.520
40145SOL    HW222333  12.895   0.968  12.598
40146SOL     OW22334   2.841   1.547   7.742
40146SOL    HW122335   2.895   1.476   7.777
40146SOL    HW222336   2.787   1.575   7.816
40147SOL     OW22337  12.975  14.759   8.474
40147SOL    HW122338  13.031  14.682   8.469
40147SOL    HW222339  12.931  14.764   8.389
40148SOL     OW22340   1.121   1.995   3.362
40148SOL    HW122341   1.119   1.900   3.366
40148SOL    HW222342   1.125   2.023   3.453
40149SOL     OW22343   7.018  13.305  12.275
40149SOL    HW122344   7.092  13.277  12.330
40149SOL    HW222345   6.991  13.388  12.313
40150SOL     OW22346  14.033  10.304   7.631
40150SOL    HW122347  14.063  10.258   7.709
40150SOL    HW222348  13.938  10.303   7.637
40151SOL     OW22349   7.190   3.264   2.915
40151SOL    HW122350   7.144   3.218   2.845
40151SOL    HW222351   7.122   3.306   2.967
40152SOL     OW22352  10.046  10.215   2.490
40152SOL    HW122353  10.061  10.155   2.564
40152SOL    HW222354   9.990  10.284   2.527
40153SOL     OW22355   0.885   9.954   6.533
40153SOL    HW122356   0.950  10.021   6.552
40153SOL    HW222357   0.918   9.876   6.578
40154SOL     OW22358   9.841   5.541  13.594
40154SOL    HW122359   9.786   5.618  13.587
40154SOL    HW222360   9.917   5.560  13.539
40155SOL     OW22361   4.382  10.536   7.988
40155SOL    HW122362   4.353  10.452   7.953
40155SOL    HW222363   4.415  10.583   7.911
40156SOL     OW22364   8.950  12.561  13.904
40156SOL    HW122365   9.016  12.508  13.859
40156SOL    HW222366   8.951  12.645  13.858
40157SOL     OW22367   0.167   2.189  11.373
40157SOL    HW122368   0.196   2.273  11.337
40157SOL    HW222369   0.189   2.125  11.305
40158SOL     OW22370   0.460   9.239   1.760
40158SOL    HW122371   0.505   9.324   1.755
40158SOL    HW222372   0.531   9.176   1.776
40159SOL     OW22373  14.398  14.323   4.656
40159SOL    HW122374  14.336  14.262   4.615
40159SOL    HW222375  14.478  14.313   4.605
40160SOL     OW22376   9.563   5.003   5.204
40160SOL    HW122377   9.546   5.051   5.123
40160SOL    HW222378   9.621   4.932   5.179
40161SOL     OW22379   5.876   1.746   9.858
40161SOL    HW122380   5.961   1.702   9.844
40161SOL    HW222381   5.841   1.758   9.770
40162SOL     OW22382   0.251   6.647   8.755
40162SOL    HW122383   0.214   6.693   8.680
40162SOL    HW222384   0.289   6.567   8.718
40163SOL     OW22385   2.256   7.797   9.351
40163SOL    HW122386   2.170   7.801   9.311
40163SOL    HW222387   2.240   7.771   9.442
40164SOL     OW22388   3.118   0.825   1.969
40164SOL    HW122389   3.147   0.906   1.928
40164SOL    HW222390   3.198   0.776   1.986
40165SOL     OW22391   7.738  14.855   2.160
40165SOL    HW122392   7.691   0.039   2.107
40165SOL    HW222393   7.752  14.781   2.100
40166SOL     OW22394   2.392  13.725  14.421
40166SOL    HW122395   2.317  13.728  14.362
40166SOL    HW222396   2.376  13.794  14.485
40167SOL     OW22397  14.320  14.817   3.811
40167SOL    HW122398  14.270  14.855   3.738
40167SOL    HW222399  14.341   0.010   3.868
40168SOL     OW22400   3.191   3.181   9.495
40168SOL    HW122401   3.188   3.270   9.460
40168SOL    HW222402   3.283   3.156   9.492
40169SOL     OW22403   7.267   7.855   8.890
40169SOL    HW122404   7.186   7.870   8.939
40169SOL    HW222405   7.329   7.822   8.955
40170SOL     OW22406  12.884  14.426   8.771
40170SOL    HW122407  12.845  14.473   8.697
40170SOL    HW222408  12.810  14.406   8.828
40171SOL     OW22409  10.662   2.832   1.022
40171SOL    HW122410  10.599   2.900   0.999
40171SOL    HW222411  10.739   2.851   0.969
40172SOL     OW22412   3.540   8.062  11.460
40172SOL    HW122413   3.551   7.972  11.488
40172SOL    HW222414   3.505   8.056  11.372
40173SOL     OW22415   5.617   9.864  11.706
40173SOL    HW122416   5.524   9.867  11.685
40173SOL    HW222417   5.620   9.854  11.802
40174SOL     OW22418   3.964  13.376  12.452
40174SOL    HW122419   4.016  13.299  12.474
40174SOL    HW222420   3.957  13.424  12.535
40175SOL     OW22421  10.485   6.262   4.529
40175SOL    HW122422  10.430   6.306   4.595
40175SOL    HW222423  10.426   6.198   4.488
40176SOL     OW22424   1.378  13.539  12.434
40176SOL    HW122425   1.328  13.485  12.372
40176SOL    HW222426   1.312  13.568  12.498
40177SOL     OW22427  14.101  10.379   2.344
40177SOL    HW122428  14.052  10.413   2.420
40177SOL    HW222429  14.057  10.418   2.269
40178SOL     OW22430   5.551  11.552   5.110
40178SOL    HW122431   5.602  11.549   5.029
40178SOL    HW222432   5.574  11.637   5.149
40179SOL     OW22433   0.158  14.171   9.875
40179SOL    HW122434   0.180  14.230   9.948
40179SOL    HW222435   0.172  14.083   9.910
40180SOL     OW22436  11.309  14.228  13.138
40180SOL    HW122437  11.287  14.317  13.110
40180SOL    HW222438  11.290  14.173  13.063
40181SOL     OW22439   2.636   6.947   2.050
40181SOL    HW122440   2.729   6.931   2.035
40181SOL    HW222441   2.593   6.864   2.028
40182SOL     OW22442  13.355   1.763   3.112
40182SOL    HW122443  13.355   1.857   3.131
40182SOL    HW222444  13.263   1.740   3.107
40183SOL     OW22445  11.420  11.237   3.857
40183SOL    HW122446  11.483  11.274   3.796
40183SOL    HW222447  11.365  11.179   3.804
40184SOL     OW22448   9.396   9.961   0.801
40184SOL    HW122449   9.482   9.951   0.761
40184SOL    HW222450   9.414   9.986   0.891
40185SOL     OW22451  13.209   6.214   1.551
40185SOL    HW122452  13.291   6.166   1.557
40185SOL    HW222453  13.147   6.152   1.513
40186SOL     OW22454   7.669  12.183   3.137
40186SOL    HW122455   7.757  12.185   3.101
40186SOL    HW222456   7.674  12.235   3.217
40187SOL     OW22457   1.927   5.093   8.347
40187SOL    HW122458   1.948   5.116   8.438
40187SOL    HW222459   1.920   4.997   8.348
40188SOL     OW22460  11.024   6.001  13.676
40188SOL    HW122461  11.091   5.933  13.667
40188SOL    HW222462  11.013   6.011  13.771
40189SOL     OW22463   6.613   8.746   2.400
40189SOL    HW122464   6.580   8.669   2.447
40189SOL    HW222465   6.537   8.804   2.393
40190SOL     OW22466   3.373  10.632   4.032
40190SOL    HW122467   3.456  10.586   4.026
40190SOL    HW222468   3.312  10.582   3.978
40191SOL     OW22469  14.649   8.114   8.157
40191SOL    HW122470  14.657   8.208   8.139
40191SOL    HW222471  14.665   8.072   8.073
40192SOL     OW22472   9.679   6.849  12.929
40192SOL    HW122473   9.713   6.915  12.989
40192SOL    HW222474   9.706   6.879  12.842
40193SOL     OW22475   1.147  11.931   5.550
40193SOL    HW122476   1.224  11.982   5.576
40193SOL    HW222477   1.084  11.946   5.620
40194SOL     OW22478   1.252   4.448   2.812
40194SOL    HW122479   1.239   4.543   2.809
40194SOL    HW222480   1.317   4.435   2.881
40195SOL     OW22481   3.153  10.715   0.043
40195SOL    HW122482   3.133  10.729  14.830
40195SOL    HW222483   3.247  10.731   0.050
40196SOL     OW22484   6.758   7.805   8.422
40196SOL    HW122485   6.698   7.844   8.486
40196SOL    HW222486   6.844   7.839   8.446
40197SOL     OW22487  11.775   2.421   7.561
40197SOL    HW122488  11.868   2.424   7.583
40197SOL    HW222489  11.754   2.510   7.533
40198SOL     OW22490  10.511   5.506   0.766
40198SOL    HW122491  10.441   5.542   0.713
40198SOL    HW222492  10.531   5.421   0.727
40199SOL     OW22493  11.993   7.273   4.113
40199SOL    HW122494  12.038   7.262   4.030
40199SOL    HW222495  11.945   7.191   4.126
40200SOL     OW22496   6.362  14.198   0.536
40200SOL    HW122497   6.417  14.271   0.566
40200SOL    HW222498   6.302  14.182   0.608
40201SOL     OW22499  11.173   2.546   3.034
40201SOL    HW122500  11.108   2.615   3.044
40201SOL    HW222501  11.255   2.585   3.062
40202SOL     OW22502   7.247   1.984   0.910
40202SOL    HW122503   7.241   2.046   0.983
40202SOL    HW222504   7.237   2.038   0.832
40203SOL     OW22505   5.737   9.024   2.790
40203SOL    HW122506   5.670   9.090   2.769
40203SOL    HW222507   5.808   9.074   2.830
40204SOL     OW22508   0.539   4.339   1.441
40204SOL    HW122509   0.551   4.270   1.507
40204SOL    HW222510   0.628   4.367   1.420
40205SOL     OW22511   9.642   9.882  13.322
40205SOL    HW122512   9.721   9.902  13.372
40205SOL    HW222513   9.650   9.936  13.243
40206SOL     OW22514  10.531  10.745   3.984
40206SOL    HW122515  10.457  10.686   3.967
40206SOL    HW222516  10.598  10.688   4.022
40207SOL     OW22517   7.513   0.072  10.123
40207SOL    HW122518   7.484  14.864  10.100
40207SOL    HW222519   7.553   0.106  10.043
40208SOL     OW22520   9.691  12.458   6.220
40208SOL    HW122521   9.648  12.543   6.214
40208SOL    HW222522   9.625  12.395   6.190
40209SOL     OW22523   4.006   1.605   0.266
40209SOL    HW122524   4.096   1.621   0.293
40209SOL    HW222525   4.007   1.618   0.171
40210SOL     OW22526  14.192   2.607  14.013
40210SOL    HW122527  14.243   2.647  14.083
40210SOL    HW222528  14.117   2.568  14.057
40211SOL     OW22529   7.427   7.672  11.096
40211SOL    HW122530   7.483   7.733  11.143
40211SOL    HW222531   7.359   7.727  11.057
40212SOL     OW22532  11.714   9.942   5.064
40212SOL    HW122533  11.782   9.966   5.001
40212SOL    HW222534  11.741   9.984   5.145
40213SOL     OW22535   3.214   6.822   3.745
40213SOL    HW122536   3.226   6.895   3.684
40213SOL    HW222537   3.164   6.859   3.817
40214SOL     OW22538   6.395   2.353  14.782
40214SOL    HW122539   6.428   2.313  14.702
40214SOL    HW222540   6.449   2.432  14.793
40215SOL     OW22541   1.366  13.189   7.630
40215SOL    HW122542   1.397  13.257   7.569
40215SOL    HW222543   1.325  13.123   7.574
40216SOL     OW22544  10.894   2.947  11.216
40216SOL    HW122545  10.927   2.959  11.305
40216SOL    HW222546  10.804   2.918  11.227
40217SOL     OW22547   1.263   9.662   1.315
40217SOL    HW122548   1.258   9.728   1.384
40217SOL    HW222549   1.192   9.602   1.334
40218SOL     OW22550  13.895   6.118  14.830
40218SOL    HW122551  13.937   6.100  14.745
40218SOL    HW222552  13.962   6.164  14.880
40219SOL     OW22553   3.483   9.984   8.377
40219SOL    HW122554   3.511  10.001   8.467
40219SOL    HW222555   3.500   9.891   8.364
40220SOL     OW22556  12.558   8.392   2.047
40220SOL    HW122557  12.530   8.432   1.964
40220SOL    HW222558  12.649   8.419   2.057
40221SOL     OW22559   8.687  10.132   3.824
40221SOL    HW122560   8.642  10.050   3.844
40221SOL    HW222561   8.625  10.180   3.769
40222SOL     OW22562  12.759   7.958  10.823
40222SOL    HW122563  12.736   8.040  10.777
40222SOL    HW222564  12.797   7.987  10.906
40223SOL     OW22565   6.507   1.765   7.511
40223SOL    HW122566   6.434   1.757   7.450
40223SOL    HW222567   6.519   1.860   7.522
40224SOL     OW22568   5.256   3.667   4.893
40224SOL    HW122569   5.325   3.602   4.895
40224SOL    HW222570   5.263   3.713   4.976
40225SOL     OW22571   7.775  10.475  11.918
40225SOL    HW122572   7.855  10.464  11.969
40225SOL    HW222573   7.707  10.438  11.974
40226SOL     OW22574   3.316  13.883   6.465
40226SOL    HW122575   3.385  13.925   6.516
40226SOL    HW222576   3.261  13.839   6.530
40227SOL     OW22577  12.326   3.213   2.645
40227SOL    HW122578  12.413   3.178   2.666
40227SOL    HW222579  12.343   3.302   2.613
40228SOL     OW22580  14.334   6.687   5.533
40228SOL    HW122581  14.363   6.696   5.442
40228SOL    HW222582  14.358   6.770   5.574
40229SOL     OW22583   7.459  13.517  10.022
40229SOL    HW122584   7.444  13.427  10.051
40229SOL    HW222585   7.400  13.570  10.075
40230SOL     OW22586   4.928   9.536   2.345
40230SOL    HW122587   4.841   9.567   2.369
40230SOL    HW222588   4.982   9.616   2.345
40231SOL     OW22589  11.596   8.346  12.932
40231SOL    HW122590  11.672   8.289  12.942
40231SOL    HW222591  11.634   8.432  12.911
40232SOL     OW22592   2.548  14.207  14.604
40232SOL    HW122593   2.643  14.206  14.611
40232SOL    HW222594   2.522  14.116  14.618
40233SOL     OW22595  12.465  12.397   5.769
40233SOL    HW122596  12.473  12.431   5.858
40233SOL    HW222597  12.548  12.353   5.752
40234SOL     OW22598  11.470   2.323   9.304
40234SOL    HW122599  11.565   2.325   9.318
40234SOL    HW222600  11.455   2.242   9.255
40235SOL     OW22601  13.809   0.798  10.107
40235SOL    HW122602  13.812   0.853  10.185
40235SOL    HW222603  13.886   0.825  10.057
40236SOL     OW22604  12.952  12.630  13.014
40236SOL    HW122605  12.976  12.669  12.930
40236SOL    HW222606  12.911  12.547  12.991
40237SOL     OW22607  13.645  11.231  14.087
40237SOL    HW122608  13.698  11.242  14.166
40237SOL    HW222609  13.700  11.181  14.027
40238SOL     OW22610  14.103  12.101   1.568
40238SOL    HW122611  14.140  12.014   1.560
40238SOL    HW222612  14.009  12.086   1.577
40239SOL     OW22613   1.682   0.564  12.193
40239SOL    HW122614   1.763   0.571  12.143
40239SOL    HW222615   1.620   0.524  12.132
40240SOL     OW22616   2.008  10.937  13.313
40240SOL    HW122617   1.940  10.952  13.247
40240SOL    HW222618   2.070  10.878  13.272
40241SOL     OW22619   7.372   2.649   4.726
40241SOL    HW122620   7.326   2.650   4.810
40241SOL    HW222621   7.411   2.736   4.720
40242SOL     OW22622   1.296   4.411   0.991
40242SOL    HW122623   1.290   4.498   0.951
40242SOL    HW222624   1.373   4.416   1.048
40243SOL     OW22625   9.079  11.067  11.301
40243SOL    HW122626   9.084  10.990  11.244
40243SOL    HW222627   8.985  11.084  11.309
40244SOL     OW22628  12.376   6.538  12.359
40244SOL    HW122629  12.305   6.525  12.296
40244SOL    HW222630  12.433   6.603  12.317
40245SOL     OW22631   3.069   7.575   1.933
40245SOL    HW122632   3.148   7.623   1.909
40245SOL    HW222633   3.071   7.570   2.028
40246SOL     OW22634  10.604   8.186  14.572
40246SOL    HW122635  10.603   8.121  14.642
40246SOL    HW222636  10.520   8.175  14.529
40247SOL     OW22637   5.403  10.833   0.185
40247SOL    HW122638   5.371  10.882   0.110
40247SOL    HW222639   5.461  10.894   0.231
40248SOL     OW22640   2.713   6.515   5.194
40248SOL    HW122641   2.795   6.516   5.243
40248SOL    HW222642   2.660   6.584   5.235
40249SOL     OW22643   5.550  11.846   9.257
40249SOL    HW122644   5.493  11.821   9.184
40249SOL    HW222645   5.614  11.776   9.262
40250SOL     OW22646  10.481   2.184  12.296
40250SOL    HW122647  10.444   2.188  12.208
40250SOL    HW222648  10.405   2.179  12.354
40251SOL     OW22649   7.250   1.529   5.475
40251SOL    HW122650   7.330   1.538   5.527
40251SOL    HW222651   7.279   1.538   5.384
40252SOL     OW22652   1.683   0.508  11.726
40252SOL    HW122653   1.638   0.520  11.642
40252SOL    HW222654   1.613   0.506  11.791
40253SOL     OW22655   7.419   5.568   0.545
40253SOL    HW122656   7.336   5.613   0.530
40253SOL    HW222657   7.483   5.638   0.556
40254SOL     OW22658   8.863   9.007   6.582
40254SOL    HW122659   8.879   9.101   6.586
40254SOL    HW222660   8.937   8.967   6.627
40255SOL     OW22661  10.118   4.574  13.866
40255SOL    HW122662  10.161   4.492  13.892
40255SOL    HW222663  10.096   4.561  13.774
40256SOL     OW22664   4.579   6.752   2.465
40256SOL    HW122665   4.653   6.734   2.406
40256SOL    HW222666   4.533   6.824   2.423
40257SOL     OW22667  13.416  14.829   0.636
40257SOL    HW122668  13.380  14.741   0.649
40257SOL    HW222669  13.477  14.841   0.709
40258SOL     OW22670   8.468   5.885  13.048
40258SOL    HW122671   8.488   5.970  13.010
40258SOL    HW222672   8.410   5.843  12.985
40259SOL     OW22673   2.472  12.845   8.609
40259SOL    HW122674   2.561  12.809   8.607
40259SOL    HW222675   2.470  12.908   8.537
40260SOL     OW22676  11.726   6.088  12.393
40260SOL    HW122677  11.684   6.079  12.478
40260SOL    HW222678  11.781   6.010  12.385
40261SOL     OW22679   4.827  13.999  14.862
40261SOL    HW122680   4.770  14.030  14.792
40261SOL    HW222681   4.796  14.046   0.060
40262SOL     OW22682   1.774  13.474  11.523
40262SOL    HW122683   1.795  13.515  11.607
40262SOL    HW222684   1.689  13.433  11.537
40263SOL     OW22685  11.471  14.573  14.814
40263SOL    HW122686  11.497  14.485  14.785
40263SOL    HW222687  11.389  14.559  14.862
40264SOL     OW22688   0.068   8.272  13.288
40264SOL    HW122689   0.099   8.260  13.198
40264SOL    HW222690  14.853   8.271  13.281
40265SOL     OW22691   9.303   5.241   5.677
40265SOL    HW122692   9.282   5.204   5.591
40265SOL    HW222693   9.314   5.335   5.661
40266SOL     OW22694   6.203   0.547   0.779
40266SOL    HW122695   6.210   0.493   0.858
40266SOL    HW222696   6.252   0.500   0.712
40267SOL     OW22697   7.573  11.363  13.858
40267SOL    HW122698   7.520  11.331  13.785
40267SOL    HW222699   7.601  11.284  13.904
40268SOL     OW22700   3.945  11.486   3.180
40268SOL    HW122701   3.906  11.399   3.176
40268SOL    HW222702   4.001  11.484   3.258
40269SOL     OW22703  11.483   4.686   6.227
40269SOL    HW122704  11.527   4.637   6.158
40269SOL    HW222705  11.398   4.644   6.235
40270SOL     OW22706  13.698   1.010   3.323
40270SOL    HW122707  13.648   1.075   3.373
40270SOL    HW222708  13.641   0.933   3.321
40271SOL     OW22709   3.020   0.034   2.278
40271SOL    HW122710   2.991   0.117   2.315
40271SOL    HW222711   2.965  14.849   2.322
40272SOL     OW22712   0.894  12.632  12.654
40272SOL    HW122713   0.908  12.724  12.631
40272SOL    HW222714   0.823  12.603  12.597
40273SOL     OW22715  13.528   4.137   4.616
40273SOL    HW122716  13.567   4.222   4.637
40273SOL    HW222717  13.538   4.129   4.521
40274SOL     OW22718  10.635  11.752   5.399
40274SOL    HW122719  10.619  11.663   5.429
40274SOL    HW222720  10.550  11.784   5.370
40275SOL     OW22721   9.796   2.709   8.370
40275SOL    HW122722   9.792   2.618   8.340
40275SOL    HW222723   9.716   2.749   8.336
40276SOL     OW22724  13.694  13.429   7.259
40276SOL    HW122725  13.763  13.370   7.230
40276SOL    HW222726  13.632  13.432   7.187
40277SOL     OW22727   3.096  14.039  10.384
40277SOL    HW122728   3.145  13.969  10.426
40277SOL    HW222729   3.161  14.108  10.367
40278SOL     OW22730   5.396  10.073  12.260
40278SOL    HW122731   5.480  10.103  12.224
40278SOL    HW222732   5.330  10.127  12.217
40279SOL     OW22733   2.383  10.239  13.198
40279SOL    HW122734   2.400  10.202  13.111
40279SOL    HW222735   2.338  10.169  13.245
40280SOL     OW22736   4.196   7.345   7.383
40280SOL    HW122737   4.179   7.396   7.462
40280SOL    HW222738   4.291   7.344   7.375
40281SOL     OW22739   1.601  13.434   5.156
40281SOL    HW122740   1.619  13.497   5.086
40281SOL    HW222741   1.653  13.358   5.134
40282SOL     OW22742   3.214   3.716   5.604
40282SOL    HW122743   3.202   3.662   5.525
40282SOL    HW222744   3.299   3.759   5.591
40283SOL     OW22745  10.339  11.274   2.598
40283SOL    HW122746  10.268  11.288   2.661
40283SOL    HW222747  10.415  11.251   2.651
40284SOL     OW22748  10.676   2.835  13.099
40284SOL    HW122749  10.640   2.862  13.184
40284SOL    HW222750  10.649   2.904  13.039
40285SOL     OW22751   0.601   4.915  14.184
40285SOL    HW122752   0.592   5.001  14.224
40285SOL    HW222753   0.593   4.930  14.090
40286SOL     OW22754  10.889   1.683   3.919
40286SOL    HW122755  10.908   1.704   3.827
40286SOL    HW222756  10.871   1.768   3.959
40287SOL     OW22757   1.970   4.826   5.373
40287SOL    HW122758   2.009   4.791   5.453
40287SOL    HW222759   1.876   4.817   5.386
40288SOL     OW22760   0.089  11.008  11.657
40288SOL    HW122761   0.126  10.978  11.740
40288SOL    HW222762   0.055  10.928  11.616
40289SOL     OW22763   0.685   3.432   0.742
40289SOL    HW122764   0.598   3.466   0.721
40289SOL    HW222765   0.706   3.473   0.826
40290SOL     OW22766   5.001   9.788   3.737
40290SOL    HW122767   5.016   9.821   3.649
40290SOL    HW222768   4.981   9.695   3.725
40291SOL     OW22769   7.739   7.292  11.040
40291SOL    HW122770   7.797   7.217  11.030
40291SOL    HW222771   7.692   7.274  11.122
40292SOL     OW22772  10.155  10.067   8.736
40292SOL    HW122773  10.082  10.111   8.691
40292SOL    HW222774  10.128   9.976   8.742
40293SOL     OW22775   4.300  11.012   2.170
40293SOL    HW122776   4.308  10.993   2.264
40293SOL    HW222777   4.208  11.032   2.157
40294SOL     OW22778   4.474  12.021   9.565
40294SOL    HW122779   4.539  12.082   9.528
40294SOL    HW222780   4.502  12.010   9.656
40295SOL     OW22781  14.604   5.262  12.206
40295SOL    HW122782  14.665   5.336  12.196
40295SOL    HW222783  14.658   5.192  12.243
40296SOL     OW22784   3.628   8.645   4.598
40296SOL    HW122785   3.546   8.682   4.632
40296SOL    HW222786   3.678   8.721   4.569
40297SOL     OW22787   1.384   7.498  10.029
40297SOL    HW122788   1.402   7.405  10.017
40297SOL    HW222789   1.457   7.542   9.986
40298SOL     OW22790   1.780   9.859   6.970
40298SOL    HW122791   1.820   9.924   6.913
40298SOL    HW222792   1.754   9.788   6.911
40299SOL     OW22793   5.708   2.419   8.891
40299SOL    HW122794   5.798   2.393   8.906
40299SOL    HW222795   5.699   2.503   8.936
40300SOL     OW22796  12.007   6.532   4.487
40300SOL    HW122797  11.983   6.463   4.549
40300SOL    HW222798  12.072   6.491   4.430
40301SOL     OW22799   8.608  11.779  12.998
40301SOL    HW122800   8.541  11.791  13.066
40301SOL    HW222801   8.675  11.725  13.040
40302SOL     OW22802  11.008   0.962   6.269
40302SOL    HW122803  10.941   1.025   6.296
40302SOL    HW222804  11.084   0.985   6.322
40303SOL     OW22805   0.860   3.093   4.668
40303SOL    HW122806   0.789   3.054   4.719
40303SOL    HW222807   0.878   3.029   4.599
40304SOL     OW22808   6.084   5.365   9.765
40304SOL    HW122809   6.117   5.309   9.695
40304SOL    HW222810   6.053   5.444   9.720
40305SOL     OW22811   3.873   3.965  10.782
40305SOL    HW122812   3.957   3.919  10.789
40305SOL    HW222813   3.876   4.008  10.696
40306SOL     OW22814   0.649  13.731  14.521
40306SOL    HW122815   0.626  13.772  14.437
40306SOL    HW222816   0.577  13.670  14.538
40307SOL     OW22817   3.224   7.118   6.638
40307SOL    HW122818   3.182   7.133   6.554
40307SOL    HW222819   3.223   7.204   6.681
40308SOL     OW22820   1.875  11.791   0.802
40308SOL    HW122821   1.902  11.699   0.809
40308SOL    HW222822   1.948  11.834   0.757
40309SOL     OW22823   8.363   0.348  12.068
40309SOL    HW122824   8.288   0.299  12.100
40309SOL    HW222825   8.344   0.439  12.091
40310SOL     OW22826   0.616  12.701  13.845
40310SOL    HW122827   0.596  12.778  13.899
40310SOL    HW222828   0.712  12.698  13.842
40311SOL     OW22829   4.338  11.166   3.226
40311SOL    HW122830   4.356  11.255   3.197
40311SOL    HW222831   4.412  11.143   3.283
40312SOL     OW22832  12.235   6.398   5.811
40312SOL    HW122833  12.204   6.413   5.721
40312SOL    HW222834  12.253   6.485   5.845
40313SOL     OW22835  10.660   0.256   8.206
40313SOL    HW122836  10.617   0.314   8.143
40313SOL    HW222837  10.618   0.276   8.289
40314SOL     OW22838  14.223   8.274   5.695
40314SOL    HW122839  14.190   8.246   5.609
40314SOL    HW222840  14.154   8.247   5.756
40315SOL     OW22841   7.384   2.356   5.204
40315SOL    HW122842   7.291   2.341   5.186
40315SOL    HW222843   7.394   2.335   5.297
40316SOL     OW22844  10.480   1.851   9.766
40316SOL    HW122845  10.499   1.879   9.677
40316SOL    HW222846  10.551   1.791   9.789
40317SOL     OW22847   7.041   9.480  11.073
40317SOL    HW122848   7.034   9.517  10.985
40317SOL    HW222849   7.103   9.407  11.064
40318SOL     OW22850   8.283   6.354   0.336
40318SOL    HW122851   8.279   6.354   0.432
40318SOL    HW222852   8.272   6.447   0.313
40319SOL     OW22853   9.890  14.710   4.663
40319SOL    HW122854   9.862  14.707   4.754
40319SOL    HW222855   9.900  14.618   4.638
40320SOL     OW22856  13.979   6.614   0.749
40320SOL    HW122857  14.057   6.610   0.805
40320SOL    HW222858  14.013   6.617   0.660
40321SOL     OW22859   0.561  11.893   3.654
40321SOL    HW122860   0.602  11.972   3.689
40321SOL    HW222861   0.473  11.892   3.691
40322SOL     OW22862  13.056   5.622   1.764
40322SOL    HW122863  13.125   5.556   1.758
40322SOL    HW222864  13.100   5.706   1.750
40323SOL     OW22865   3.450  14.597   2.711
40323SOL    HW122866   3.473  14.615   2.802
40323SOL    HW222867   3.517  14.535   2.682
40324SOL     OW22868  13.411   1.083   0.252
40324SOL    HW122869  13.506   1.075   0.248
40324SOL    HW222870  13.386   1.033   0.330
40325SOL     OW22871   2.101   2.681   6.474
40325SOL    HW122872   2.097   2.708   6.566
40325SOL    HW222873   2.016   2.640   6.457
40326SOL     OW22874  13.614   6.245  11.096
40326SOL    HW122875  13.592   6.267  11.187
40326SOL    HW222876  13.623   6.330  11.052
40327SOL     OW22877   4.153   1.652   4.213
40327SOL    HW122878   4.162   1.742   4.180
40327SOL    HW222879   4.154   1.662   4.308
40328SOL     OW22880   0.411   5.368   2.215
40328SOL    HW122881   0.492   5.413   2.238
40328SOL    HW222882   0.402   5.299   2.280
40329SOL     OW22883   1.144  10.990   9.026
40329SOL    HW122884   1.133  11.072   8.977
40329SOL    HW222885   1.155  10.923   8.958
40330SOL     OW22886   0.704   6.449   1.212
40330SOL    HW122887   0.689   6.435   1.118
40330SOL    HW222888   0.668   6.536   1.229
40331SOL     OW22889   4.860  11.621   3.322
40331SOL    HW122890   4.861  11.613   3.227
40331SOL    HW222891   4.895  11.538   3.354
40332SOL     OW22892   9.759   2.287   4.339
40332SOL    HW122893   9.740   2.200   4.375
40332SOL    HW222894   9.754   2.345   4.415
40333SOL     OW22895   3.502   5.008   2.624
40333SOL    HW122896   3.507   4.920   2.663
40333SOL    HW222897   3.588   5.047   2.640
40334SOL     OW22898   3.461  14.387   7.747
40334SOL    HW122899   3.478  14.473   7.709
40334SOL    HW222900   3.479  14.397   7.840
40335SOL     OW22901  14.703  13.031  12.629
40335SOL    HW122902  14.709  13.126  12.617
40335SOL    HW222903  14.625  13.005  12.579
40336SOL     OW22904   5.478   8.574   9.133
40336SOL    HW122905   5.527   8.497   9.164
40336SOL    HW222906   5.386   8.548   9.139
40337SOL     OW22907  11.504   1.627   7.701
40337SOL    HW122908  11.410   1.642   7.714
40337SOL    HW222909  11.544   1.656   7.783
40338SOL     OW22910   8.285   9.320  14.152
40338SOL    HW122911   8.247   9.341  14.067
40338SOL    HW222912   8.376   9.351  14.146
40339SOL     OW22913   8.303  12.688   8.023
40339SOL    HW122914   8.375  12.644   7.977
40339SOL    HW222915   8.248  12.723   7.954
40340SOL     OW22916  12.996   1.690   7.134
40340SOL    HW122917  12.919   1.731   7.174
40340SOL    HW222918  13.069   1.745   7.161
40341SOL     OW22919   3.754  10.479  11.830
40341SOL    HW122920   3.806  10.507  11.755
40341SOL    HW222921   3.722  10.392  11.807
40342SOL     OW22922   3.192  11.650  13.032
40342SOL    HW122923   3.163  11.667  13.121
40342SOL    HW222924   3.194  11.555  13.024
40343SOL     OW22925   1.392  11.546  10.560
40343SOL    HW122926   1.312  11.577  10.603
40343SOL    HW222927   1.443  11.505  10.630
40344SOL     OW22928  10.721   5.571   4.577
40344SOL    HW122929  10.788   5.640   4.574
40344SOL    HW222930  10.746   5.516   4.652
40345SOL     OW22931   8.552  11.044   0.448
40345SOL    HW122932   8.630  11.097   0.462
40345SOL    HW222933   8.505  11.048   0.531
40346SOL     OW22934   6.405   6.864   9.980
40346SOL    HW122935   6.408   6.840   9.887
40346SOL    HW222936   6.365   6.951   9.980
40347SOL     OW22937   5.859  12.131   2.939
40347SOL    HW122938   5.766  12.113   2.953
40347SOL    HW222939   5.898  12.045   2.929
40348SOL     OW22940   9.994   3.066   4.992
40348SOL    HW122941   9.907   3.035   5.017
40348SOL    HW222942  10.038   3.084   5.075
40349SOL     OW22943   7.123   2.738   8.469
40349SOL    HW122944   7.063   2.738   8.394
40349SOL    HW222945   7.210   2.730   8.430
40350SOL     OW22946   8.321   3.353  10.561
40350SOL    HW122947   8.263   3.334  10.487
40350SOL    HW222948   8.395   3.294  10.549
40351SOL     OW22949   0.848   4.485  11.169
40351SOL    HW122950   0.931   4.481  11.216
40351SOL    HW222951   0.858   4.558  11.108
40352SOL     OW22952   7.972   0.710   9.441
40352SOL    HW122953   7.909   0.695   9.512
40352SOL    HW222954   7.928   0.772   9.383
40353SOL     OW22955  13.471  13.923   3.103
40353SOL    HW122956  13.389  13.874   3.104
40353SOL    HW222957  13.473  13.966   3.017
40354SOL     OW22958   7.171   8.193  11.046
40354SOL    HW122959   7.210   8.201  11.133
40354SOL    HW222960   7.238   8.148  10.994
40355SOL     OW22961   8.916  13.164  11.713
40355SOL    HW122962   8.928  13.201  11.625
40355SOL    HW222963   8.954  13.076  11.707
40356SOL     OW22964   6.157  11.368  12.996
40356SOL    HW122965   6.115  11.446  12.962
40356SOL    HW222966   6.242  11.398  13.028
40357SOL     OW22967   7.926   2.080   6.416
40357SOL    HW122968   7.862   2.122   6.473
40357SOL    HW222969   7.890   1.993   6.399
40358SOL     OW22970   0.230   1.152   2.271
40358SOL    HW122971   0.269   1.069   2.297
40358SOL    HW222972   0.137   1.143   2.292
40359SOL     OW22973  11.996   5.395  11.267
40359SOL    HW122974  11.994   5.367  11.358
40359SOL    HW222975  12.079   5.359  11.233
40360SOL     OW22976   9.992  12.574   5.650
40360SOL    HW122977  10.023  12.603   5.564
40360SOL    HW222978  10.070  12.576   5.705
40361SOL     OW22979   0.501   7.778   1.421
40361SOL    HW122980   0.467   7.829   1.496
40361SOL    HW222981   0.544   7.843   1.366
40362SOL     OW22982   7.040   3.647  11.436
40362SOL    HW122983   7.077   3.734  11.452
40362SOL    HW222984   6.955   3.664  11.395
40363SOL     OW22985  13.070   1.576   9.226
40363SOL    HW122986  13.038   1.488   9.246
40363SOL    HW222987  13.070   1.580   9.130
40364SOL     OW22988   5.349  13.982   9.418
40364SOL    HW122989   5.324  13.932   9.495
40364SOL    HW222990   5.405  14.052   9.453
40365SOL     OW22991   8.229  10.065  14.428
40365SOL    HW122992   8.194  10.151  14.402
40365SOL    HW222993   8.248  10.021  14.346
40366SOL     OW22994   9.140   7.452  13.251
40366SOL    HW122995   9.184   7.379  13.206
40366SOL    HW222996   9.052   7.420  13.268
40367SOL     OW22997   5.380  13.630   0.731
40367SOL    HW122998   5.446  13.571   0.693
40367SOL    HW222999   5.385  13.709   0.677
40368SOL     OW23000   5.689   6.211   7.701
40368SOL    HW123001   5.659   6.152   7.770
40368SOL    HW223002   5.628   6.285   7.704
40369SOL     OW23003   3.501  14.436  12.282
40369SOL    HW123004   3.562  14.365  12.264
40369SOL    HW223005   3.415  14.401  12.257
40370SOL     OW23006   3.070   9.065  10.538
40370SOL    HW123007   3.052   9.154  10.506
40370SOL    HW223008   2.989   9.039  10.582
40371SOL     OW23009   0.403   6.418  12.410
40371SOL    HW123010   0.374   6.487  12.469
40371SOL    HW223011   0.339   6.420  12.338
40372SOL     OW23012   1.848  11.791   6.496
40372SOL    HW123013   1.856  11.853   6.569
40372SOL    HW223014   1.932  11.797   6.451
40373SOL     OW23015   3.421   0.554   1.618
40373SOL    HW123016   3.347   0.494   1.615
40373SOL    HW223017   3.498   0.498   1.603
40374SOL     OW23018  13.057   8.016  13.231
40374SOL    HW123019  13.105   7.963  13.294
40374SOL    HW223020  13.031   7.955  13.162
40375SOL     OW23021   8.033  14.398   3.717
40375SOL    HW123022   8.116  14.386   3.764
40375SOL    HW223023   7.990  14.313   3.723
40376SOL     OW23024   7.600   9.963   5.042
40376SOL    HW123025   7.694   9.947   5.052
40376SOL    HW223026   7.568   9.975   5.131
40377SOL     OW23027   1.473   0.169  12.544
40377SOL    HW123028   1.532   0.100  12.574
40377SOL    HW223029   1.393   0.156  12.595
40378SOL     OW23030   7.748   7.680   8.020
40378SOL    HW123031   7.770   7.773   8.022
40378SOL    HW223032   7.763   7.654   7.929
40379SOL     OW23033  13.081  10.094   0.030
40379SOL    HW123034  13.169  10.058   0.025
40379SOL    HW223035  13.054  10.079   0.121
40380SOL     OW23036   4.627  13.894   7.734
40380SOL    HW123037   4.644  13.833   7.806
40380SOL    HW223038   4.694  13.874   7.668
40381SOL     OW23039   6.154  12.147   0.190
40381SOL    HW123040   6.143  12.072   0.131
40381SOL    HW223041   6.235  12.189   0.160
40382SOL     OW23042   6.161   6.846  14.310
40382SOL    HW123043   6.075   6.872  14.277
40382SOL    HW223044   6.142   6.792  14.387
40383SOL     OW23045   3.507   5.086  12.343
40383SOL    HW123046   3.424   5.086  12.391
40383SOL    HW223047   3.484   5.045  12.259
40384SOL     OW23048   5.222   3.969  10.015
40384SOL    HW123049   5.131   3.938  10.019
40384SOL    HW223050   5.272   3.893   9.984
40385SOL     OW23051  13.673  13.729  11.566
40385SOL    HW123052  13.584  13.693  11.575
40385SOL    HW223053  13.682  13.746  11.472
40386SOL     OW23054   5.640   0.829   9.176
40386SOL    HW123055   5.668   0.849   9.087
40386SOL    HW223056   5.702   0.876   9.232
40387SOL     OW23057   9.322   8.248  12.343
40387SOL    HW123058   9.262   8.179  12.372
40387SOL    HW223059   9.409   8.211  12.354
40388SOL     OW23060   8.291  11.197   5.979
40388SOL    HW123061   8.251  11.165   6.060
40388SOL    HW223062   8.336  11.277   6.006
40389SOL     OW23063   6.180  11.839   3.792
40389SOL    HW123064   6.198  11.800   3.706
40389SOL    HW223065   6.106  11.897   3.777
40390SOL     OW23066   5.779   0.219  14.181
40390SOL    HW123067   5.746   0.309  14.175
40390SOL    HW223068   5.704   0.165  14.157
40391SOL     OW23069   3.520  14.500  13.985
40391SOL    HW123070   3.576  14.472  14.058
40391SOL    HW223071   3.451  14.551  14.026
40392SOL     OW23072  14.614   2.304  13.045
40392SOL    HW123073  14.702   2.265  13.037
40392SOL    HW223074  14.603   2.353  12.964
40393SOL     OW23075   6.681   9.072  12.013
40393SOL    HW123076   6.735   9.076  12.092
40393SOL    HW223077   6.733   9.021  11.951
40394SOL     OW23078   3.382   8.556   2.761
40394SOL    HW123079   3.470   8.549   2.725
40394SOL    HW223080   3.328   8.585   2.688
40395SOL     OW23081   3.180   7.751   6.412
40395SOL    HW123082   3.180   7.769   6.506
40395SOL    HW223083   3.118   7.815   6.376
40396SOL     OW23084   1.714  12.394  11.446
40396SOL    HW123085   1.726  12.393  11.351
40396SOL    HW223086   1.729  12.304  11.473
40397SOL     OW23087   8.491  12.819  11.335
40397SOL    HW123088   8.476  12.903  11.379
40397SOL    HW223089   8.407  12.797  11.296
40398SOL     OW23090   6.438   7.697   6.753
40398SOL    HW123091   6.411   7.628   6.692
40398SOL    HW223092   6.532   7.705   6.740
40399SOL     OW23093   1.055  12.199   2.208
40399SOL    HW123094   1.091  12.276   2.164
40399SOL    HW223095   1.121  12.175   2.272
40400SOL     OW23096  13.401  12.406   2.873
40400SOL    HW123097  13.396  12.354   2.793
40400SOL    HW223098  13.447  12.350   2.935
40401SOL     OW23099   0.768  14.673  12.169
40401SOL    HW123100   0.702  14.742  12.166
40401SOL    HW223101   0.751  14.620  12.091
40402SOL     OW23102   1.782   1.749  10.427
40402SOL    HW123103   1.703   1.710  10.464
40402SOL    HW223104   1.843   1.675  10.418
40403SOL     OW23105   6.032   1.277   7.114
40403SOL    HW123106   5.997   1.324   7.039
40403SOL    HW223107   6.087   1.208   7.076
40404SOL     OW23108   8.344   7.129  10.519
40404SOL    HW123109   8.436   7.106  10.528
40404SOL    HW223110   8.297   7.054  10.555
40405SOL     OW23111   6.353  12.037   5.818
40405SOL    HW123112   6.391  11.982   5.749
40405SOL    HW223113   6.421  12.103   5.836
40406SOL     OW23114  13.833  11.001   6.567
40406SOL    HW123115  13.801  10.988   6.656
40406SOL    HW223116  13.815  10.917   6.523
40407SOL     OW23117   1.009  12.164   0.254
40407SOL    HW123118   1.060  12.201   0.182
40407SOL    HW223119   0.959  12.238   0.289
40408SOL     OW23120  14.010   2.505   7.028
40408SOL    HW123121  13.983   2.422   6.988
40408SOL    HW223122  14.088   2.482   7.079
40409SOL     OW23123  11.391  12.579   4.175
40409SOL    HW123124  11.332  12.557   4.247
40409SOL    HW223125  11.445  12.500   4.163
40410SOL     OW23126   2.051   4.053   4.235
40410SOL    HW123127   2.083   4.063   4.325
40410SOL    HW223128   2.126   4.075   4.180
40411SOL     OW23129   8.041   3.415  14.813
40411SOL    HW123130   8.026   3.488  14.873
40411SOL    HW223131   7.970   3.420  14.750
40412SOL     OW23132  13.425   6.564   1.374
40412SOL    HW123133  13.388   6.632   1.430
40412SOL    HW223134  13.482   6.513   1.431
40413SOL     OW23135   0.015  13.363  11.744
40413SOL    HW123136   0.108  13.369  11.769
40413SOL    HW223137  14.856  13.310  11.814
40414SOL     OW23138   1.729   4.204  13.746
40414SOL    HW123139   1.709   4.184  13.655
40414SOL    HW223140   1.799   4.143  13.769
40415SOL     OW23141   1.644   5.371  11.770
40415SOL    HW123142   1.658   5.463  11.747
40415SOL    HW223143   1.555   5.353  11.739
40416SOL     OW23144   1.469   8.787  13.343
40416SOL    HW123145   1.386   8.799  13.389
40416SOL    HW223146   1.446   8.738  13.264
40417SOL     OW23147   8.563   0.421   6.757
40417SOL    HW123148   8.610   0.407   6.675
40417SOL    HW223149   8.584   0.511   6.781
40418SOL     OW23150  14.186   6.277   2.062
40418SOL    HW123151  14.114   6.290   2.000
40418SOL    HW223152  14.147   6.224   2.132
40419SOL     OW23153  11.871   4.572   3.027
40419SOL    HW123154  11.896   4.646   2.972
40419SOL    HW223155  11.792   4.600   3.072
40420SOL     OW23156  12.667   1.776   3.700
40420SOL    HW123157  12.745   1.732   3.665
40420SOL    HW223158  12.636   1.718   3.769
40421SOL     OW23159  12.676   3.606   0.804
40421SOL    HW123160  12.680   3.699   0.781
40421SOL    HW223161  12.733   3.563   0.741
40422SOL     OW23162   2.485   8.525   3.564
40422SOL    HW123163   2.410   8.525   3.504
40422SOL    HW223164   2.484   8.437   3.602
40423SOL     OW23165   0.123  13.697   6.611
40423SOL    HW123166   0.108  13.708   6.705
40423SOL    HW223167   0.218  13.693   6.603
40424SOL     OW23168   9.084  11.491   8.819
40424SOL    HW123169   9.069  11.584   8.834
40424SOL    HW223170   9.133  11.461   8.896
40425SOL     OW23171  14.658   7.967  10.435
40425SOL    HW123172  14.743   7.951  10.394
40425SOL    HW223173  14.635   8.056  10.410
40426SOL     OW23174   1.453  14.575  14.503
40426SOL    HW123175   1.368  14.618  14.497
40426SOL    HW223176   1.451  14.531  14.588
40427SOL     OW23177  12.167   4.944  12.048
40427SOL    HW123178  12.198   4.975  11.964
40427SOL    HW223179  12.150   5.023  12.099
40428SOL     OW23180  10.904  12.481   2.951
40428SOL    HW123181  10.979  12.468   3.009
40428SOL    HW223182  10.911  12.412   2.885
40429SOL     OW23183   4.791   8.290  12.409
40429SOL    HW123184   4.869   8.289  12.353
40429SOL    HW223185   4.729   8.233  12.363
40430SOL     OW23186   7.006   8.215   7.674
40430SOL    HW123187   6.943   8.187   7.740
40430SOL    HW223188   7.091   8.206   7.718
40431SOL     OW23189   6.769  14.611  14.262
40431SOL    HW123190   6.723  14.600  14.345
40431SOL    HW223191   6.837  14.675  14.280
40432SOL     OW23192  11.913   3.321  14.785
40432SOL    HW123193  11.991   3.280  14.824
40432SOL    HW223194  11.926   3.313  14.691
40433SOL     OW23195   4.191   5.961   4.248
40433SOL    HW123196   4.141   5.995   4.173
40433SOL    HW223197   4.264   6.022   4.256
40434SOL     OW23198   9.515   9.134  14.624
40434SOL    HW123199   9.495   9.222  14.593
40434SOL    HW223200   9.610   9.134  14.635
40435SOL     OW23201  10.695   4.170   0.425
40435SOL    HW123202  10.718   4.189   0.516
40435SOL    HW223203  10.610   4.212   0.413
40436SOL     OW23204   8.439   8.759  12.005
40436SOL    HW123205   8.396   8.770  11.920
40436SOL    HW223206   8.524   8.719  11.983
40437SOL     OW23207  13.685   4.408   4.062
40437SOL    HW123208  13.591   4.410   4.078
40437SOL    HW223209  13.706   4.496   4.030
40438SOL     OW23210  11.323   5.180   0.373
40438SOL    HW123211  11.301   5.145   0.459
40438SOL    HW223212  11.238   5.205   0.335
40439SOL     OW23213  13.350   5.499  13.056
40439SOL    HW123214  13.279   5.465  13.002
40439SOL    HW223215  13.397   5.421  13.085
40440SOL     OW23216   7.183   5.093   2.314
40440SOL    HW123217   7.202   5.166   2.255
40440SOL    HW223218   7.248   5.101   2.384
40441SOL     OW23219   7.135  14.764  13.839
40441SOL    HW123220   7.079  14.815  13.781
40441SOL    HW223221   7.077  14.733  13.908
40442SOL     OW23222   1.584  10.114  11.397
40442SOL    HW123223   1.574  10.085  11.488
40442SOL    HW223224   1.671  10.083  11.372
40443SOL     OW23225   0.226  14.119   5.403
40443SOL    HW123226   0.233  14.026   5.423
40443SOL    HW223227   0.178  14.156   5.477
40444SOL     OW23228   5.479   2.214   0.495
40444SOL    HW123229   5.416   2.246   0.430
40444SOL    HW223230   5.537   2.156   0.446
40445SOL     OW23231   5.507  14.739  10.501
40445SOL    HW123232   5.442  14.668  10.494
40445SOL    HW223233   5.491  14.777  10.588
40446SOL     OW23234  11.161   1.182   2.230
40446SOL    HW123235  11.092   1.135   2.276
40446SOL    HW223236  11.146   1.163   2.138
40447SOL     OW23237   4.609  10.505  13.762
40447SOL    HW123238   4.532  10.561  13.772
40447SOL    HW223239   4.602  10.443  13.835
40448SOL     OW23240  13.919   8.387   5.684
40448SOL    HW123241  13.834   8.419   5.716
40448SOL    HW223242  13.947   8.324   5.750
40449SOL     OW23243  13.709   1.384  13.062
40449SOL    HW123244  13.730   1.420  13.148
40449SOL    HW223245  13.633   1.434  13.033
40450SOL     OW23246  10.298   6.527   8.425
40450SOL    HW123247  10.350   6.526   8.345
40450SOL    HW223248  10.238   6.600   8.414
40451SOL     OW23249   3.325   7.591   5.665
40451SOL    HW123250   3.409   7.620   5.701
40451SOL    HW223251   3.347   7.550   5.582
40452SOL     OW23252   4.510  10.768  11.848
40452SOL    HW123253   4.510  10.674  11.864
40452SOL    HW223254   4.551  10.777  11.762
40453SOL     OW23255  13.313   8.032   6.250
40453SOL    HW123256  13.239   8.064   6.199
40453SOL    HW223257  13.352   7.964   6.195
40454SOL     OW23258   3.213  13.339  11.105
40454SOL    HW123259   3.285  13.279  11.124
40454SOL    HW223260   3.149  13.323  11.174
40455SOL     OW23261   1.488  10.762   5.480
40455SOL    HW123262   1.572  10.793   5.514
40455SOL    HW223263   1.498  10.667   5.473
40456SOL     OW23264  11.567   6.324  14.042
40456SOL    HW123265  11.652   6.282  14.026
40456SOL    HW223266  11.512   6.296  13.968
40457SOL     OW23267  12.287   5.591   5.039
40457SOL    HW123268  12.262   5.607   5.130
40457SOL    HW223269  12.296   5.678   5.001
40458SOL     OW23270   1.102  10.020   7.383
40458SOL    HW123271   1.070   9.991   7.469
40458SOL    HW223272   1.183   9.971   7.370
40459SOL     OW23273   8.430  11.487   8.891
40459SOL    HW123274   8.405  11.561   8.948
40459SOL    HW223275   8.494  11.438   8.943
40460SOL     OW23276   7.576   1.016   6.533
40460SOL    HW123277   7.560   1.071   6.456
40460SOL    HW223278   7.532   0.934   6.514
40461SOL     OW23279   5.635  10.359  11.605
40461SOL    HW123280   5.619  10.348  11.511
40461SOL    HW223281   5.715  10.411  11.610
40462SOL     OW23282   0.383   8.142   5.813
40462SOL    HW123283   0.329   8.218   5.833
40462SOL    HW223284   0.463   8.154   5.864
40463SOL     OW23285  14.465   8.636   1.000
40463SOL    HW123286  14.530   8.580   0.958
40463SOL    HW223287  14.424   8.580   1.066
40464SOL     OW23288   0.337   3.791   9.101
40464SOL    HW123289   0.361   3.826   9.187
40464SOL    HW223290   0.285   3.860   9.060
40465SOL     OW23291   2.839   4.018  10.226
40465SOL    HW123292   2.910   4.066  10.268
40465SOL    HW223293   2.831   4.058  10.139
40466SOL     OW23294  13.319   5.955  11.692
40466SOL    HW123295  13.270   5.905  11.757
40466SOL    HW223296  13.373   5.890  11.647
40467SOL     OW23297   5.896   5.297   8.145
40467SOL    HW123298   5.917   5.390   8.155
40467SOL    HW223299   5.808   5.297   8.107
40468SOL     OW23300   8.613  14.791   9.746
40468SOL    HW123301   8.580  14.860   9.689
40468SOL    HW223302   8.686  14.831   9.793
40469SOL     OW23303  10.890  11.268   7.385
40469SOL    HW123304  10.949  11.276   7.310
40469SOL    HW223305  10.946  11.238   7.456
40470SOL     OW23306  13.298   5.155   1.186
40470SOL    HW123307  13.327   5.178   1.098
40470SOL    HW223308  13.378   5.126   1.230
40471SOL     OW23309   2.159  11.446  11.942
40471SOL    HW123310   2.115  11.404  11.868
40471SOL    HW223311   2.133  11.538  11.937
40472SOL     OW23312   8.754  10.500  11.159
40472SOL    HW123313   8.788  10.440  11.225
40472SOL    HW223314   8.832  10.537  11.117
40473SOL     OW23315   5.360  13.066   8.766
40473SOL    HW123316   5.441  13.108   8.738
40473SOL    HW223317   5.291  13.117   8.723
40474SOL     OW23318   0.994  13.873   5.369
40474SOL    HW123319   0.990  13.933   5.295
40474SOL    HW223320   0.906  13.874   5.405
40475SOL     OW23321   0.462   2.612  11.238
40475SOL    HW123322   0.522   2.538  11.249
40475SOL    HW223323   0.516   2.690  11.253
40476SOL     OW23324   9.076   5.813  14.242
40476SOL    HW123325   9.046   5.746  14.304
40476SOL    HW223326   9.011   5.883  14.248
40477SOL     OW23327  10.296   2.844   6.644
40477SOL    HW123328  10.347   2.913   6.686
40477SOL    HW223329  10.354   2.810   6.575
40478SOL     OW23330   5.266  10.316  11.858
40478SOL    HW123331   5.292  10.408  11.865
40478SOL    HW223332   5.347  10.267  11.868
40479SOL     OW23333   0.053  14.462   1.544
40479SOL    HW123334   0.015  14.499   1.464
40479SOL    HW223335   0.042  14.530   1.610
40480SOL     OW23336   5.026   9.481   0.762
40480SOL    HW123337   4.960   9.426   0.720
40480SOL    HW223338   5.023   9.456   0.855
40481SOL     OW23339   3.830  14.422   3.596
40481SOL    HW123340   3.844  14.505   3.643
40481SOL    HW223341   3.874  14.434   3.512
40482SOL     OW23342  12.766  10.338   1.342
40482SOL    HW123343  12.819  10.409   1.306
40482SOL    HW223344  12.676  10.367   1.329
40483SOL     OW23345   3.416  10.398   7.180
40483SOL    HW123346   3.458  10.416   7.096
40483SOL    HW223347   3.330  10.364   7.157
40484SOL     OW23348   6.803   0.072  14.559
40484SOL    HW123349   6.710   0.049  14.561
40484SOL    HW223350   6.809   0.144  14.496
40485SOL     OW23351  12.168  14.148   9.309
40485SOL    HW123352  12.107  14.152   9.235
40485SOL    HW223353  12.222  14.227   9.300
40486SOL     OW23354   7.414   6.126  13.812
40486SOL    HW123355   7.337   6.154  13.861
40486SOL    HW223356   7.380   6.070  13.742
40487SOL     OW23357   4.832   3.081   7.624
40487SOL    HW123358   4.737   3.080   7.624
40487SOL    HW223359   4.858   2.994   7.655
40488SOL     OW23360   4.985   0.932   3.452
40488SOL    HW123361   5.072   0.912   3.418
40488SOL    HW223362   5.001   0.989   3.527
40489SOL     OW23363   8.919  10.300   9.436
40489SOL    HW123364   8.911  10.266   9.347
40489SOL    HW223365   8.835  10.343   9.453
40490SOL     OW23366   6.864   8.807   4.647
40490SOL    HW123367   6.950   8.764   4.649
40490SOL    HW223368   6.834   8.796   4.557
40491SOL     OW23369  11.360  11.842  14.107
40491SOL    HW123370  11.401  11.801  14.031
40491SOL    HW223371  11.333  11.768  14.161
40492SOL     OW23372   0.358  12.815   0.280
40492SOL    HW123373   0.334  12.735   0.327
40492SOL    HW223374   0.351  12.884   0.346
40493SOL     OW23375   0.519   0.125  14.868
40493SOL    HW123376   0.572   0.050  14.841
40493SOL    HW223377   0.582   0.191   0.017
40494SOL     OW23378   7.962  13.179   6.138
40494SOL    HW123379   7.874  13.198   6.170
40494SOL    HW223380   7.989  13.100   6.185
40495SOL     OW23381   1.495   1.374   2.300
40495SOL    HW123382   1.530   1.287   2.319
40495SOL    HW223383   1.434   1.360   2.228
40496SOL     OW23384  12.396  14.307  11.431
40496SOL    HW123385  12.368  14.222  11.465
40496SOL    HW223386  12.318  14.344  11.390
40497SOL     OW23387   6.404   2.769  10.640
40497SOL    HW123388   6.498   2.763  10.620
40497SOL    HW223389   6.369   2.830  10.575
40498SOL     OW23390   3.635   0.933   6.350
40498SOL    HW123391   3.550   0.951   6.389
40498SOL    HW223392   3.653   0.842   6.372
40499SOL     OW23393   8.406   1.889   6.272
40499SOL    HW123394   8.432   1.822   6.209
40499SOL    HW223395   8.325   1.856   6.310
40500SOL     OW23396   1.770  12.711   7.041
40500SOL    HW123397   1.823  12.659   6.980
40500SOL    HW223398   1.742  12.787   6.990
40501SOL     OW23399   7.805   8.393  12.121
40501SOL    HW123400   7.882   8.397  12.064
40501SOL    HW223401   7.815   8.311  12.169
40502SOL     OW23402  12.802   0.015  11.476
40502SOL    HW123403  12.808   0.042  11.568
40502SOL    HW223404  12.877   0.056  11.434
40503SOL     OW23405  13.575   0.089  14.454
40503SOL    HW123406  13.661   0.132  14.460
40503SOL    HW223407  13.512   0.160  14.466
40504SOL     OW23408   7.573  13.343   3.057
40504SOL    HW123409   7.662  13.377   3.045
40504SOL    HW223410   7.586  13.258   3.099
40505SOL     OW23411   4.906  12.530   2.221
40505SOL    HW123412   4.954  12.577   2.289
40505SOL    HW223413   4.974  12.492   2.165
40506SOL     OW23414   4.507  10.216   1.683
40506SOL    HW123415   4.524  10.202   1.590
40506SOL    HW223416   4.476  10.307   1.688
40507SOL     OW23417   1.431   8.551   9.926
40507SOL    HW123418   1.358   8.611   9.910
40507SOL    HW223419   1.485   8.596   9.990
40508SOL     OW23420   1.453  13.725  10.067
40508SOL    HW123421   1.542  13.737  10.033
40508SOL    HW223422   1.399  13.715   9.988
40509SOL     OW23423   6.927   4.966  12.073
40509SOL    HW123424   6.864   5.027  12.112
40509SOL    HW223425   6.886   4.880  12.084
40510SOL     OW23426   1.732  12.651  10.982
40510SOL    HW123427   1.823  12.680  10.985
40510SOL    HW223428   1.734  12.564  11.020
40511SOL     OW23429   1.371   6.536  11.255
40511SOL    HW123430   1.291   6.588  11.269
40511SOL    HW223431   1.393   6.551  11.163
40512SOL     OW23432   9.456   6.979  11.450
40512SOL    HW123433   9.391   6.974  11.379
40512SOL    HW223434   9.404   6.983  11.530
40513SOL     OW23435   4.825   4.501  12.810
40513SOL    HW123436   4.872   4.546  12.880
40513SOL    HW223437   4.766   4.441  12.856
40514SOL     OW23438  14.714  12.331   0.616
40514SOL    HW123439  14.720  12.241   0.582
40514SOL    HW223440  14.781  12.379   0.568
40515SOL     OW23441  12.861  11.845   7.934
40515SOL    HW123442  12.944  11.887   7.911
40515SOL    HW223443  12.885  11.772   7.990
40516SOL     OW23444  13.756   2.753  13.222
40516SOL    HW123445  13.828   2.817  13.229
40516SOL    HW223446  13.731   2.755  13.130
40517SOL     OW23447   0.819   7.329   3.034
40517SOL    HW123448   0.890   7.383   3.066
40517SOL    HW223449   0.849   7.239   3.047
40518SOL     OW23450   8.615   2.388   0.153
40518SOL    HW123451   8.674   2.316   0.130
40518SOL    HW223452   8.645   2.417   0.239
40519SOL     OW23453  11.800   1.618   6.031
40519SOL    HW123454  11.816   1.524   6.018
40519SOL    HW223455  11.785   1.652   5.942
40520SOL     OW23456  14.037   7.867  11.634
40520SOL    HW123457  14.064   7.954  11.603
40520SOL    HW223458  14.116   7.813  11.625
40521SOL     OW23459   4.302  12.515   5.488
40521SOL    HW123460   4.254  12.436   5.463
40521SOL    HW223461   4.363  12.530   5.417
40522SOL     OW23462  14.332   9.278  13.819
40522SOL    HW123463  14.297   9.308  13.902
40522SOL    HW223464  14.318   9.352  13.759
40523SOL     OW23465  13.185   1.315  11.384
40523SOL    HW123466  13.146   1.227  11.382
40523SOL    HW223467  13.233   1.318  11.467
40524SOL     OW23468  14.748   2.743   1.581
40524SOL    HW123469  14.738   2.820   1.637
40524SOL    HW223470  14.661   2.728   1.545
40525SOL     OW23471   3.574   6.997  11.609
40525SOL    HW123472   3.639   6.942  11.566
40525SOL    HW223473   3.607   7.008  11.698
40526SOL     OW23474  14.341  10.138   6.375
40526SOL    HW123475  14.297  10.090   6.446
40526SOL    HW223476  14.301  10.225   6.377
40527SOL     OW23477   8.453  14.121   3.095
40527SOL    HW123478   8.363  14.091   3.105
40527SOL    HW223479   8.506  14.056   3.141
40528SOL     OW23480  14.558  11.049  10.209
40528SOL    HW123481  14.480  10.993  10.208
40528SOL    HW223482  14.617  11.008  10.272
40529SOL     OW23483   0.946   0.114  13.489
40529SOL    HW123484   0.960   0.118  13.394
40529SOL    HW223485   0.939   0.206  13.516
40530SOL     OW23486   8.228  12.623   6.626
40530SOL    HW123487   8.319  12.640   6.602
40530SOL    HW223488   8.228  12.623   6.721
40531SOL     OW23489  10.592   0.048   3.001
40531SOL    HW123490  10.564  14.855   2.946
40531SOL    HW223491  10.683   0.030   3.022
40532SOL     OW23492  14.374  12.936  11.932
40532SOL    HW123493  14.347  13.018  11.891
40532SOL    HW223494  14.369  12.871  11.861
40533SOL     OW23495  11.137   3.302   4.140
40533SOL    HW123496  11.043   3.309   4.157
40533SOL    HW223497  11.155   3.370   4.075
40534SOL     OW23498  11.990  13.112   7.188
40534SOL    HW123499  11.966  13.023   7.214
40534SOL    HW223500  12.008  13.157   7.271
40535SOL     OW23501   2.511  14.465  13.832
40535SOL    HW123502   2.591  14.509  13.805
40535SOL    HW223503   2.443  14.532  13.828
40536SOL     OW23504   8.532   4.514  13.120
40536SOL    HW123505   8.516   4.537  13.212
40536SOL    HW223506   8.445   4.494  13.085
40537SOL     OW23507   3.156  14.540   1.040
40537SOL    HW123508   3.198  14.530   1.126
40537SOL    HW223509   3.225  14.571   0.982
40538SOL     OW23510   0.083   8.168   3.800
40538SOL    HW123511   0.019   8.185   3.869
40538SOL    HW223512   0.168   8.177   3.844
40539SOL     OW23513  12.305   3.769  14.228
40539SOL    HW123514  12.267   3.840  14.176
40539SOL    HW223515  12.263   3.777  14.313
40540SOL     OW23516   9.726  11.776  12.495
40540SOL    HW123517   9.635  11.745  12.495
40540SOL    HW223518   9.719  11.871  12.497
40541SOL     OW23519  11.165   4.820   9.149
40541SOL    HW123520  11.201   4.909   9.143
40541SOL    HW223521  11.100   4.825   9.219
40542SOL     OW23522   4.564   2.551   8.990
40542SOL    HW123523   4.509   2.605   9.047
40542SOL    HW223524   4.513   2.471   8.978
40543SOL     OW23525   2.087  11.435   6.682
40543SOL    HW123526   2.162  11.381   6.659
40543SOL    HW223527   2.107  11.468   6.770
40544SOL     OW23528  12.924   4.132   5.302
40544SOL    HW123529  12.873   4.135   5.221
40544SOL    HW223530  12.946   4.039   5.313
40545SOL     OW23531   9.443   4.273   5.356
40545SOL    HW123532   9.447   4.366   5.376
40545SOL    HW223533   9.372   4.240   5.412
40546SOL     OW23534   7.139   2.271   2.589
40546SOL    HW123535   7.211   2.304   2.642
40546SOL    HW223536   7.151   2.314   2.504
40547SOL     OW23537  10.874  14.387   0.175
40547SOL    HW123538  10.861  14.442   0.098
40547SOL    HW223539  10.792  14.392   0.223
40548SOL     OW23540  11.925   7.557   0.665
40548SOL    HW123541  11.883   7.631   0.707
40548SOL    HW223542  12.018   7.581   0.661
40549SOL     OW23543  10.889   2.188   0.056
40549SOL    HW123544  10.970   2.179   0.107
40549SOL    HW223545  10.853   2.272   0.082
40550SOL     OW23546   0.590   0.131  10.887
40550SOL    HW123547   0.651   0.194  10.926
40550SOL    HW223548   0.581   0.158  10.796
40551SOL     OW23549   7.411   5.848   8.712
40551SOL    HW123550   7.472   5.780   8.738
40551SOL    HW223551   7.349   5.805   8.654
40552SOL     OW23552   2.805  11.053  14.235
40552SOL    HW123553   2.900  11.051  14.234
40552SOL    HW223554   2.780  10.978  14.289
40553SOL     OW23555   7.029  13.801   8.742
40553SOL    HW123556   6.970  13.814   8.668
40553SOL    HW223557   7.094  13.871   8.733
40554SOL     OW23558  10.482   1.795  12.388
40554SOL    HW123559  10.546   1.813  12.457
40554SOL    HW223560  10.409   1.854  12.406
40555SOL     OW23561  13.037   5.869   2.901
40555SOL    HW123562  13.124   5.908   2.898
40555SOL    HW223563  12.987   5.925   2.960
40556SOL     OW23564  11.750  13.163  11.336
40556SOL    HW123565  11.812  13.230  11.305
40556SOL    HW223566  11.788  13.081  11.305
40557SOL     OW23567   0.891  14.589  13.907
40557SOL    HW123568   0.881  14.684  13.903
40557SOL    HW223569   0.872  14.559  13.818
40558SOL     OW23570   9.402   9.489   6.231
40558SOL    HW123571   9.331   9.430   6.204
40558SOL    HW223572   9.410   9.552   6.159
40559SOL     OW23573   8.355   4.496   7.772
40559SOL    HW123574   8.378   4.505   7.865
40559SOL    HW223575   8.267   4.533   7.765
40560SOL     OW23576   0.242   6.399   1.464
40560SOL    HW123577   0.284   6.484   1.454
40560SOL    HW223578   0.165   6.416   1.519
40561SOL     OW23579   7.171   2.369   3.763
40561SOL    HW123580   7.089   2.411   3.788
40561SOL    HW223581   7.173   2.376   3.667
40562SOL     OW23582   2.169  11.690   8.000
40562SOL    HW123583   2.246  11.684   8.056
40562SOL    HW223584   2.097  11.713   8.059
40563SOL     OW23585  10.562   8.111   8.041
40563SOL    HW123586  10.633   8.133   8.101
40563SOL    HW223587  10.594   8.035   7.993
40564SOL     OW23588   3.877   3.118   6.284
40564SOL    HW123589   3.888   3.056   6.356
40564SOL    HW223590   3.822   3.188   6.321
40565SOL     OW23591   2.681  13.924  10.474
40565SOL    HW123592   2.631  13.892  10.399
40565SOL    HW223593   2.642  13.880  10.549
40566SOL     OW23594   6.053   0.332   4.826
40566SOL    HW123595   6.002   0.304   4.749
40566SOL    HW223596   6.039   0.427   4.831
40567SOL     OW23597   1.103  12.318   6.125
40567SOL    HW123598   1.172  12.253   6.141
40567SOL    HW223599   1.021  12.273   6.144
40568SOL     OW23600   9.960   9.976   7.143
40568SOL    HW123601  10.052   9.985   7.117
40568SOL    HW223602   9.912   9.979   7.060
40569SOL     OW23603   6.854   7.421   2.986
40569SOL    HW123604   6.802   7.342   3.001
40569SOL    HW223605   6.933   7.408   3.040
40570SOL     OW23606   0.623  13.532  12.877
40570SOL    HW123607   0.613  13.491  12.963
40570SOL    HW223608   0.707  13.576  12.882
40571SOL     OW23609   9.965   3.721  11.732
40571SOL    HW123610  10.016   3.752  11.657
40571SOL    HW223611   9.940   3.632  11.709
40572SOL     OW23612  10.510   6.115  14.728
40572SOL    HW123613  10.526   6.092  14.820
40572SOL    HW223614  10.518   6.031  14.681
40573SOL     OW23615   3.342   2.291  10.381
40573SOL    HW123616   3.349   2.380  10.348
40573SOL    HW223617   3.432   2.264  10.399
40574SOL     OW23618  13.091   3.111   7.952
40574SOL    HW123619  13.159   3.161   7.906
40574SOL    HW223620  13.138   3.038   7.993
40575SOL     OW23621   4.039   4.611  13.663
40575SOL    HW123622   4.024   4.520  13.689
40575SOL    HW223623   4.135   4.620  13.660
40576SOL     OW23624  12.173  13.071   3.356
40576SOL    HW123625  12.224  13.054   3.277
40576SOL    HW223626  12.082  13.075   3.326
40577SOL     OW23627   1.005   0.556  12.959
40577SOL    HW123628   0.987   0.462  12.957
40577SOL    HW223629   0.952   0.592  12.887
40578SOL     OW23630   0.610  11.632   7.835
40578SOL    HW123631   0.596  11.713   7.884
40578SOL    HW223632   0.527  11.618   7.789
40579SOL     OW23633   7.031   0.387  11.432
40579SOL    HW123634   7.105   0.337  11.466
40579SOL    HW223635   7.033   0.469  11.483
40580SOL     OW23636   9.970   3.051   4.708
40580SOL    HW123637  10.035   3.052   4.778
40580SOL    HW223638   9.888   3.072   4.752
40581SOL     OW23639  11.554   6.293   1.215
40581SOL    HW123640  11.541   6.198   1.219
40581SOL    HW223641  11.642   6.304   1.181
40582SOL     OW23642   3.725  10.903   3.305
40582SOL    HW123643   3.744  10.817   3.342
40582SOL    HW223644   3.635  10.921   3.331
40583SOL     OW23645   7.201   5.939  13.361
40583SOL    HW123646   7.221   5.993  13.284
40583SOL    HW223647   7.128   5.884  13.333
40584SOL     OW23648   1.317   5.639   8.458
40584SOL    HW123649   1.227   5.672   8.462
40584SOL    HW223650   1.372   5.717   8.462
40585SOL     OW23651  12.660   5.284   5.155
40585SOL    HW123652  12.622   5.197   5.145
40585SOL    HW223653  12.744   5.279   5.110
40586SOL     OW23654   3.694  12.111   7.411
40586SOL    HW123655   3.688  12.207   7.409
40586SOL    HW223656   3.775  12.093   7.460
40587SOL     OW23657  11.921   7.603   1.389
40587SOL    HW123658  11.990   7.607   1.323
40587SOL    HW223659  11.841   7.623   1.340
40588SOL     OW23660   6.711   9.371   9.636
40588SOL    HW123661   6.633   9.399   9.686
40588SOL    HW223662   6.675   9.322   9.562
40589SOL     OW23663   4.101   1.851   2.382
40589SOL    HW123664   4.053   1.900   2.449
40589SOL    HW223665   4.154   1.789   2.432
40590SOL     OW23666   6.275   9.106   9.449
40590SOL    HW123667   6.251   9.170   9.381
40590SOL    HW223668   6.325   9.040   9.403
40591SOL     OW23669  12.055   7.387  10.962
40591SOL    HW123670  12.031   7.333  11.037
40591SOL    HW223671  11.971   7.413  10.924
40592SOL     OW23672   6.415   9.079  11.473
40592SOL    HW123673   6.489   9.117  11.424
40592SOL    HW223674   6.408   8.990  11.438
40593SOL     OW23675   8.361   5.453  13.337
40593SOL    HW123676   8.351   5.409  13.253
40593SOL    HW223677   8.400   5.538  13.315
40594SOL     OW23678   4.028   4.424  10.279
40594SOL    HW123679   4.004   4.383  10.196
40594SOL    HW223680   4.124   4.420  10.280
40595SOL     OW23681  14.531   9.295   0.848
40595SOL    HW123682  14.613   9.261   0.882
40595SOL    HW223683  14.463   9.245   0.892
40596SOL     OW23684  12.992  12.918   9.257
40596SOL    HW123685  13.015  12.953   9.343
40596SOL    HW223686  12.896  12.910   9.260
40597SOL     OW23687   3.768  14.568   2.765
40597SOL    HW123688   3.777  14.493   2.707
40597SOL    HW223689   3.858  14.596   2.783
40598SOL     OW23690   3.065   7.495   9.257
40598SOL    HW123691   3.031   7.409   9.283
40598SOL    HW223692   3.142   7.508   9.312
40599SOL     OW23693   1.186   2.170  10.791
40599SOL    HW123694   1.181   2.090  10.844
40599SOL    HW223695   1.254   2.151  10.727
40600SOL     OW23696  11.522   0.513  13.049
40600SOL    HW123697  11.486   0.424  13.048
40600SOL    HW223698  11.456   0.566  13.004
40601SOL     OW23699   1.347   0.831   6.327
40601SOL    HW123700   1.255   0.855   6.335
40601SOL    HW223701   1.368   0.789   6.411
40602SOL     OW23702  13.907   3.279   2.654
40602SOL    HW123703  13.955   3.356   2.682
40602SOL    HW223704  13.817   3.296   2.683
40603SOL     OW23705   1.166   7.394   1.401
40603SOL    HW123706   1.168   7.326   1.469
40603SOL    HW223707   1.113   7.464   1.439
40604SOL     OW23708  10.068   1.542   6.362
40604SOL    HW123709  10.004   1.568   6.428
40604SOL    HW223710  10.144   1.511   6.412
40605SOL     OW23711   0.826   8.549   9.114
40605SOL    HW123712   0.780   8.524   9.194
40605SOL    HW223713   0.845   8.466   9.071
40606SOL     OW23714   5.478   4.589  11.188
40606SOL    HW123715   5.434   4.652  11.130
40606SOL    HW223716   5.410   4.525  11.210
40607SOL     OW23717   8.449   6.172  10.920
40607SOL    HW123718   8.476   6.264  10.929
40607SOL    HW223719   8.354   6.175  10.922
40608SOL     OW23720   3.504   9.714   8.368
40608SOL    HW123721   3.593   9.686   8.388
40608SOL    HW223722   3.465   9.639   8.324
40609SOL     OW23723   7.975   6.238  13.935
40609SOL    HW123724   8.064   6.229  13.969
40609SOL    HW223725   7.959   6.333  13.936
40610SOL     OW23726   9.971   3.845   8.926
40610SOL    HW123727   9.923   3.764   8.939
40610SOL    HW223728  10.031   3.849   9.001
40611SOL     OW23729   4.497   0.485   5.525
40611SOL    HW123730   4.588   0.459   5.509
40611SOL    HW223731   4.451   0.402   5.539
40612SOL     OW23732   5.128   7.733   3.605
40612SOL    HW123733   5.100   7.680   3.679
40612SOL    HW223734   5.060   7.800   3.596
40613SOL     OW23735  14.845  11.223   0.009
40613SOL    HW123736  14.825  11.313   0.034
40613SOL    HW223737  14.866  11.228  14.796
40614SOL     OW23738  10.890  13.479  11.416
40614SOL    HW123739  10.962  13.516  11.467
40614SOL    HW223740  10.886  13.533  11.337
40615SOL     OW23741  12.571  13.165   1.362
40615SOL    HW123742  12.620  13.109   1.423
40615SOL    HW223743  12.622  13.245   1.356
40616SOL     OW23744   9.111  12.358   3.849
40616SOL    HW123745   9.038  12.346   3.910
40616SOL    HW223746   9.079  12.423   3.787
40617SOL     OW23747   2.264   8.191   6.241
40617SOL    HW123748   2.282   8.262   6.180
40617SOL    HW223749   2.239   8.118   6.185
40618SOL     OW23750  13.211   1.600  12.888
40618SOL    HW123751  13.117   1.620  12.886
40618SOL    HW223752  13.250   1.662  12.826
40619SOL     OW23753  12.103   6.841   5.782
40619SOL    HW123754  12.099   6.930   5.748
40619SOL    HW223755  12.193   6.813   5.765
40620SOL     OW23756   1.922   7.678  14.662
40620SOL    HW123757   1.947   7.637  14.580
40620SOL    HW223758   1.943   7.771  14.651
40621SOL     OW23759   1.803   9.617  12.614
40621SOL    HW123760   1.879   9.562  12.595
40621SOL    HW223761   1.827   9.664  12.694
40622SOL     OW23762   4.756   3.013   1.581
40622SOL    HW123763   4.669   3.045   1.558
40622SOL    HW223764   4.742   2.957   1.657
40623SOL     OW23765   3.999   6.209  11.951
40623SOL    HW123766   3.981   6.273  12.020
40623SOL    HW223767   4.090   6.224  11.927
40624SOL     OW23768   7.251   1.416   7.087
40624SOL    HW123769   7.214   1.443   7.171
40624SOL    HW223770   7.321   1.356   7.110
40625SOL     OW23771   1.547   2.280  11.065
40625SOL    HW123772   1.601   2.253  10.991
40625SOL    HW223773   1.583   2.365  11.091
40626SOL     OW23774   9.534  13.979  11.204
40626SOL    HW123775   9.618  13.977  11.158
40626SOL    HW223776   9.557  13.960  11.295
40627SOL     OW23777   8.781  10.565   4.369
40627SOL    HW123778   8.786  10.555   4.274
40627SOL    HW223779   8.715  10.502   4.396
40628SOL     OW23780   3.341   3.984   3.570
40628SOL    HW123781   3.407   4.010   3.634
40628SOL    HW223782   3.279   3.930   3.620
40629SOL     OW23783   7.162   2.908   7.511
40629SOL    HW123784   7.190   2.880   7.424
40629SOL    HW223785   7.239   2.896   7.566
40630SOL     OW23786   4.642  12.865   7.531
40630SOL    HW123787   4.627  12.773   7.509
40630SOL    HW223788   4.679  12.862   7.619
40631SOL     OW23789   4.800   8.004  13.090
40631SOL    HW123790   4.802   7.972  13.180
40631SOL    HW223791   4.818   7.926  13.037
40632SOL     OW23792  12.413   1.371   0.255
40632SOL    HW123793  12.449   1.354   0.343
40632SOL    HW223794  12.395   1.464   0.254
40633SOL     OW23795  13.090   8.055   1.730
40633SOL    HW123796  13.060   7.979   1.680
40633SOL    HW223797  13.060   8.130   1.679
40634SOL     OW23798   8.348   7.912   2.665
40634SOL    HW123799   8.304   7.830   2.645
40634SOL    HW223800   8.392   7.897   2.748
40635SOL     OW23801   1.323  13.199   3.455
40635SOL    HW123802   1.324  13.156   3.370
40635SOL    HW223803   1.277  13.282   3.440
40636SOL     OW23804   2.592  14.454   4.014
40636SOL    HW123805   2.583  14.448   4.109
40636SOL    HW223806   2.687  14.456   3.999
40637SOL     OW23807   1.946   9.769   6.623
40637SOL    HW123808   2.010   9.773   6.552
40637SOL    HW223809   1.922   9.676   6.628
40638SOL     OW23810  12.392  13.484   9.196
40638SOL    HW123811  12.376  13.390   9.191
40638SOL    HW223812  12.434  13.506   9.113
40639SOL     OW23813   5.041   8.195   0.575
40639SOL    HW123814   5.102   8.269   0.575
40639SOL    HW223815   5.096   8.119   0.595
40640SOL     OW23816  12.359  12.514  14.853
40640SOL    HW123817  12.366  12.536   0.066
40640SOL    HW223818  12.282  12.562  14.823
40641SOL     OW23819  14.232   5.567   5.285
40641SOL    HW123820  14.289   5.607   5.351
40641SOL    HW223821  14.289   5.507   5.238
40642SOL     OW23822   2.127  10.606   2.721
40642SOL    HW123823   2.064  10.572   2.657
40642SOL    HW223824   2.196  10.646   2.669
40643SOL     OW23825   4.249  14.124   1.987
40643SOL    HW123826   4.203  14.156   1.910
40643SOL    HW223827   4.317  14.066   1.952
40644SOL     OW23828   0.369   2.736  14.485
40644SOL    HW123829   0.386   2.732  14.391
40644SOL    HW223830   0.341   2.826  14.501
40645SOL     OW23831   8.434   1.645  11.699
40645SOL    HW123832   8.354   1.606  11.664
40645SOL    HW223833   8.470   1.695  11.625
40646SOL     OW23834   2.307  11.717  11.056
40646SOL    HW123835   2.214  11.696  11.055
40646SOL    HW223836   2.313  11.805  11.018
40647SOL     OW23837  10.563  12.388   0.496
40647SOL    HW123838  10.472  12.368   0.518
40647SOL    HW223839  10.558  12.465   0.440
40648SOL     OW23840   9.717  13.442  11.545
40648SOL    HW123841   9.660  13.454  11.470
40648SOL    HW223842   9.663  13.468  11.620
40649SOL     OW23843   3.131   6.005  12.860
40649SOL    HW123844   3.146   5.981  12.768
40649SOL    HW223845   3.041   5.978  12.877
40650SOL     OW23846   3.488   0.811   5.200
40650SOL    HW123847   3.459   0.768   5.119
40650SOL    HW223848   3.582   0.822   5.188
40651SOL     OW23849   5.305  12.288   1.689
40651SOL    HW123850   5.245  12.291   1.615
40651SOL    HW223851   5.392  12.298   1.650
40652SOL     OW23852   4.279  11.280   6.875
40652SOL    HW123853   4.339  11.215   6.839
40652SOL    HW223854   4.307  11.363   6.837
40653SOL     OW23855   8.297  11.884   6.519
40653SOL    HW123856   8.316  11.796   6.488
40653SOL    HW223857   8.350  11.894   6.598
40654SOL     OW23858   6.000  11.128   2.577
40654SOL    HW123859   5.974  11.086   2.659
40654SOL    HW223860   6.038  11.212   2.603
40655SOL     OW23861  13.627   6.530   4.617
40655SOL    HW123862  13.681   6.607   4.632
40655SOL    HW223863  13.538   6.565   4.606
40656SOL     OW23864   6.789  14.536  13.661
40656SOL    HW123865   6.800  14.571  13.750
40656SOL    HW223866   6.694  14.536  13.647
40657SOL     OW23867  10.072  13.367   6.619
40657SOL    HW123868  10.051  13.423   6.694
40657SOL    HW223869  10.134  13.303   6.654
40658SOL     OW23870   7.152  10.051  13.350
40658SOL    HW123871   7.192  10.065  13.264
40658SOL    HW223872   7.088  10.122  13.359
40659SOL     OW23873   9.134  11.577  12.535
40659SOL    HW123874   9.166  11.487  12.539
40659SOL    HW223875   9.209  11.628  12.504
40660SOL     OW23876   0.584   0.954   0.758
40660SOL    HW123877   0.583   0.887   0.690
40660SOL    HW223878   0.671   0.994   0.752
40661SOL     OW23879   6.295   3.502  13.882
40661SOL    HW123880   6.269   3.567  13.949
40661SOL    HW223881   6.346   3.437  13.931
40662SOL     OW23882   7.921  13.401   1.509
40662SOL    HW123883   7.908  13.308   1.526
40662SOL    HW223884   8.002  13.424   1.554
40663SOL     OW23885   1.196   8.071   7.115
40663SOL    HW123886   1.242   8.002   7.163
40663SOL    HW223887   1.126   8.098   7.175
40664SOL     OW23888  12.559  14.573   3.667
40664SOL    HW123889  12.588  14.643   3.609
40664SOL    HW223890  12.552  14.614   3.753
40665SOL     OW23891   4.517  10.272   0.420
40665SOL    HW123892   4.523  10.229   0.505
40665SOL    HW223893   4.509  10.200   0.357
40666SOL     OW23894   9.140   1.608   0.095
40666SOL    HW123895   9.219   1.663   0.089
40666SOL    HW223896   9.165   1.537   0.154
40667SOL     OW23897   2.579   4.564  14.275
40667SOL    HW123898   2.622   4.628  14.218
40667SOL    HW223899   2.502   4.610  14.308
40668SOL     OW23900  10.076  12.325   2.704
40668SOL    HW123901  10.161  12.343   2.662
40668SOL    HW223902  10.098  12.307   2.795
40669SOL     OW23903   0.368   8.685   1.218
40669SOL    HW123904   0.405   8.597   1.227
40669SOL    HW223905   0.334   8.688   1.129
40670SOL     OW23906  14.154   9.162  12.269
40670SOL    HW123907  14.119   9.074  12.252
40670SOL    HW223908  14.204   9.153  12.350
40671SOL     OW23909   4.702   0.703   3.343
40671SOL    HW123910   4.682   0.796   3.335
40671SOL    HW223911   4.624   0.659   3.310
40672SOL     OW23912   3.534   1.758  14.487
40672SOL    HW123913   3.599   1.688  14.477
40672SOL    HW223914   3.568   1.812  14.558
40673SOL     OW23915   3.166   2.344   5.814
40673SOL    HW123916   3.118   2.386   5.885
40673SOL    HW223917   3.102   2.289   5.770
40674SOL     OW23918   5.035   0.446   6.760
40674SOL    HW123919   4.942   0.462   6.772
40674SOL    HW223920   5.051   0.363   6.806
40675SOL     OW23921   6.240   5.282   7.101
40675SOL    HW123922   6.149   5.289   7.132
40675SOL    HW223923   6.236   5.215   7.033
40676SOL     OW23924   1.994  11.350   8.592
40676SOL    HW123925   2.047  11.285   8.638
40676SOL    HW223926   2.015  11.338   8.500
40677SOL     OW23927   8.617  13.432   1.978
40677SOL    HW123928   8.609  13.427   2.073
40677SOL    HW223929   8.672  13.356   1.955
40678SOL     OW23930  12.202  13.469   2.644
40678SOL    HW123931  12.120  13.452   2.598
40678SOL    HW223932  12.199  13.563   2.664
40679SOL     OW23933   9.717   3.533   6.695
40679SOL    HW123934   9.762   3.460   6.738
40679SOL    HW223935   9.784   3.601   6.688
40680SOL     OW23936  11.706  14.090   5.470
40680SOL    HW123937  11.675  14.006   5.434
40680SOL    HW223938  11.736  14.139   5.393
40681SOL     OW23939   9.726   7.324   7.141
40681SOL    HW123940   9.659   7.347   7.077
40681SOL    HW223941   9.778   7.403   7.151
40682SOL     OW23942   1.944   1.691  13.110
40682SOL    HW123943   1.867   1.676  13.055
40682SOL    HW223944   1.996   1.755  13.062
40683SOL     OW23945   9.262   9.714  11.590
40683SOL    HW123946   9.204   9.787  11.568
40683SOL    HW223947   9.295   9.683  11.505
40684SOL     OW23948  14.825  11.106   2.761
40684SOL    HW123949  14.798  11.058   2.682
40684SOL    HW223950  14.871  11.041   2.814
40685SOL     OW23951   0.690  14.500   2.099
40685SOL    HW123952   0.727  14.579   2.059
40685SOL    HW223953   0.764  14.439   2.104
40686SOL     OW23954   0.391  10.595  10.668
40686SOL    HW123955   0.473  10.546  10.673
40686SOL    HW223956   0.330  10.537  10.623
40687SOL     OW23957   1.630  10.183  12.568
40687SOL    HW123958   1.615  10.090  12.551
40687SOL    HW223959   1.693  10.210  12.501
40688SOL     OW23960   0.412   5.710  12.761
40688SOL    HW123961   0.406   5.770  12.686
40688SOL    HW223962   0.328   5.719  12.806
40689SOL     OW23963   6.693  11.984   5.440
40689SOL    HW123964   6.756  12.046   5.403
40689SOL    HW223965   6.607  12.025   5.423
40690SOL     OW23966   6.734   0.445   4.884
40690SOL    HW123967   6.664   0.382   4.868
40690SOL    HW223968   6.807   0.392   4.917
40691SOL     OW23969  10.258   6.186  14.831
40691SOL    HW123970  10.210   6.268  14.839
40691SOL    HW223971  10.338   6.210  14.784
40692SOL     OW23972   0.700   4.860   6.160
40692SOL    HW123973   0.724   4.952   6.170
40692SOL    HW223974   0.692   4.848   6.065
40693SOL     OW23975  10.756   1.203  12.291
40693SOL    HW123976  10.788   1.183  12.203
40693SOL    HW223977  10.687   1.268  12.276
40694SOL     OW23978   9.796   3.272   6.569
40694SOL    HW123979   9.763   3.270   6.659
40694SOL    HW223980   9.892   3.272   6.580
40695SOL     OW23981   5.029   0.669   7.885
40695SOL    HW123982   5.005   0.757   7.914
40695SOL    HW223983   5.001   0.611   7.956
40696SOL     OW23984   9.202  11.015   7.130
40696SOL    HW123985   9.176  11.067   7.054
40696SOL    HW223986   9.178  10.925   7.106
40697SOL     OW23987   2.177   2.812   9.825
40697SOL    HW123988   2.109   2.865   9.866
40697SOL    HW223989   2.258   2.862   9.840
40698SOL     OW23990   6.699   8.551   7.057
40698SOL    HW123991   6.667   8.595   6.978
40698SOL    HW223992   6.716   8.461   7.028
40699SOL     OW23993   4.889  12.842   9.997
40699SOL    HW123994   4.803  12.878  10.016
40699SOL    HW223995   4.874  12.749   9.985
40700SOL     OW23996   4.889   6.517   1.295
40700SOL    HW123997   4.834   6.549   1.223
40700SOL    HW223998   4.975   6.506   1.255
40701SOL     OW23999  11.032   2.364  12.686
40701SOL    HW124000  11.000   2.308  12.616
40701SOL    HW224001  11.092   2.309  12.736
40702SOL     OW24002   9.715   5.592   3.991
40702SOL    HW124003   9.778   5.582   4.062
40702SOL    HW224004   9.711   5.505   3.950
40703SOL     OW24005   2.464  11.523   0.219
40703SOL    HW124006   2.398  11.476   0.270
40703SOL    HW224007   2.488  11.598   0.275
40704SOL     OW24008   0.944   9.545  14.151
40704SOL    HW124009   0.916   9.454  14.144
40704SOL    HW224010   0.931   9.581  14.063
40705SOL     OW24011  12.390  12.843   4.039
40705SOL    HW124012  12.392  12.747   4.034
40705SOL    HW224013  12.300  12.867   4.022
40706SOL     OW24014  12.615   6.101  10.821
40706SOL    HW124015  12.554   6.041  10.778
40706SOL    HW224016  12.693   6.047  10.838
40707SOL     OW24017   3.756  10.533   7.259
40707SOL    HW124018   3.741  10.564   7.348
40707SOL    HW224019   3.751  10.437   7.266
40708SOL     OW24020   0.860  10.604   1.970
40708SOL    HW124021   0.954  10.618   1.975
40708SOL    HW224022   0.827  10.678   1.919
40709SOL     OW24023  10.733   9.938   9.747
40709SOL    HW124024  10.732  10.014   9.690
40709SOL    HW224025  10.696   9.867   9.693
40710SOL     OW24026   8.128  14.573   1.623
40710SOL    HW124027   8.102  14.560   1.715
40710SOL    HW224028   8.197  14.639   1.627
40711SOL     OW24029   6.541  13.309  14.178
40711SOL    HW124030   6.535  13.354  14.263
40711SOL    HW224031   6.501  13.223  14.194
40712SOL     OW24032   6.720   7.696   1.236
40712SOL    HW124033   6.722   7.735   1.323
40712SOL    HW224034   6.671   7.760   1.183
40713SOL     OW24035   5.636   8.976   6.184
40713SOL    HW124036   5.682   8.944   6.106
40713SOL    HW224037   5.551   8.931   6.182
40714SOL     OW24038   3.835   8.335   2.751
40714SOL    HW124039   3.857   8.387   2.673
40714SOL    HW224040   3.745   8.360   2.772
40715SOL     OW24041   3.268  14.783   6.738
40715SOL    HW124042   3.262  14.691   6.765
40715SOL    HW224043   3.232  14.832   6.812
40716SOL     OW24044  12.535  12.227   8.118
40716SOL    HW124045  12.616  12.196   8.078
40716SOL    HW224046  12.492  12.278   8.049
40717SOL     OW24047   2.457  12.834   0.325
40717SOL    HW124048   2.389  12.859   0.387
40717SOL    HW224049   2.466  12.910   0.267
40718SOL     OW24050   9.892  14.304   6.493
40718SOL    HW124051   9.910  14.307   6.587
40718SOL    HW224052   9.972  14.337   6.452
40719SOL     OW24053   2.660   0.432   0.821
40719SOL    HW124054   2.576   0.473   0.801
40719SOL    HW224055   2.677   0.374   0.747
40720SOL     OW24056   2.282   3.775   4.765
40720SOL    HW124057   2.296   3.870   4.771
40720SOL    HW224058   2.332   3.739   4.838
40721SOL     OW24059  10.340   8.344  14.183
40721SOL    HW124060  10.420   8.395  14.192
40721SOL    HW224061  10.318   8.350  14.089
40722SOL     OW24062   3.335   3.146  14.151
40722SOL    HW124063   3.405   3.166  14.088
40722SOL    HW224064   3.381   3.115  14.229
40723SOL     OW24065   9.617  10.985   9.995
40723SOL    HW124066   9.541  10.948   9.951
40723SOL    HW224067   9.677  11.009   9.924
40724SOL     OW24068   3.885   8.631   8.990
40724SOL    HW124069   3.797   8.630   8.954
40724SOL    HW224070   3.886   8.558   9.053
40725SOL     OW24071   6.112  13.460   9.675
40725SOL    HW124072   6.140  13.408   9.600
40725SOL    HW224073   6.186  13.460   9.735
40726SOL     OW24074   1.010   9.667   3.018
40726SOL    HW124075   1.061   9.595   2.980
40726SOL    HW224076   0.972   9.712   2.942
40727SOL     OW24077   7.074  13.628  14.009
40727SOL    HW124078   7.101  13.687  13.939
40727SOL    HW224079   7.006  13.675  14.056
40728SOL     OW24080  10.027   4.859   0.274
40728SOL    HW124081  10.082   4.796   0.321
40728SOL    HW224082  10.000   4.922   0.340
40729SOL     OW24083  10.404   5.019   1.033
40729SOL    HW124084  10.313   5.040   1.011
40729SOL    HW224085  10.440   5.101   1.068
40730SOL     OW24086   9.349   8.073   4.444
40730SOL    HW124087   9.324   8.085   4.353
40730SOL    HW224088   9.289   8.006   4.477
40731SOL     OW24089  14.729   9.023  14.563
40731SOL    HW124090  14.745   9.033  14.470
40731SOL    HW224091  14.645   9.068  14.578
40732SOL     OW24092  14.056   8.004   2.429
40732SOL    HW124093  14.007   8.014   2.347
40732SOL    HW224094  14.043   7.912   2.453
40733SOL     OW24095   7.408   7.032   5.644
40733SOL    HW124096   7.339   7.070   5.699
40733SOL    HW224097   7.418   6.943   5.677
40734SOL     OW24098   3.679   6.880   8.801
40734SOL    HW124099   3.641   6.942   8.863
40734SOL    HW224100   3.761   6.852   8.841
40735SOL     OW24101  10.976   3.091   6.861
40735SOL    HW124102  10.929   3.105   6.943
40735SOL    HW224103  10.987   3.180   6.825
40736SOL     OW24104   4.782   4.553  13.245
40736SOL    HW124105   4.815   4.634  13.206
40736SOL    HW224106   4.849   4.528  13.309
40737SOL     OW24107  13.962   7.807   0.322
40737SOL    HW124108  13.888   7.863   0.346
40737SOL    HW224109  13.934   7.762   0.242
40738SOL     OW24110   1.913   5.080  10.730
40738SOL    HW124111   1.955   5.016  10.787
40738SOL    HW224112   1.861   5.135  10.789
40739SOL     OW24113   7.824   8.951  14.159
40739SOL    HW124114   7.845   9.043  14.174
40739SOL    HW224115   7.900   8.903  14.191
40740SOL     OW24116   1.721  10.742   0.800
40740SOL    HW124117   1.714  10.647   0.797
40740SOL    HW224118   1.807  10.758   0.839
40741SOL     OW24119   6.037   3.440   4.785
40741SOL    HW124120   5.958   3.481   4.821
40741SOL    HW224121   6.109   3.485   4.828
40742SOL     OW24122  14.055  10.643   1.231
40742SOL    HW124123  14.150  10.636   1.218
40742SOL    HW224124  14.018  10.620   1.145
40743SOL     OW24125   7.925   5.785  12.305
40743SOL    HW124126   7.832   5.760  12.299
40743SOL    HW224127   7.972   5.703  12.300
40744SOL     OW24128   0.773  11.119   7.277
40744SOL    HW124129   0.752  11.138   7.186
40744SOL    HW224130   0.745  11.196   7.326
40745SOL     OW24131   9.606  14.489   1.975
40745SOL    HW124132   9.602  14.435   1.896
40745SOL    HW224133   9.519  14.481   2.015
40746SOL     OW24134   8.212  13.433   0.928
40746SOL    HW124135   8.246  13.522   0.938
40746SOL    HW224136   8.139  13.429   0.991
40747SOL     OW24137   5.807   3.152   3.280
40747SOL    HW124138   5.796   3.088   3.209
40747SOL    HW224139   5.897   3.183   3.270
40748SOL     OW24140  14.271   1.271   8.624
40748SOL    HW124141  14.337   1.206   8.602
40748SOL    HW224142  14.223   1.285   8.542
40749SOL     OW24143   7.849   0.605   6.479
40749SOL    HW124144   7.756   0.586   6.493
40749SOL    HW224145   7.875   0.656   6.556
40750SOL     OW24146  12.080   9.955   5.873
40750SOL    HW124147  12.100  10.042   5.837
40750SOL    HW224148  12.112   9.959   5.963
40751SOL     OW24149   2.535   2.243   4.185
40751SOL    HW124150   2.537   2.268   4.092
40751SOL    HW224151   2.447   2.264   4.214
40752SOL     OW24152  13.069   8.745   4.050
40752SOL    HW124153  13.086   8.805   3.977
40752SOL    HW224154  13.002   8.789   4.103
40753SOL     OW24155   5.847   7.646  14.610
40753SOL    HW124156   5.869   7.731  14.572
40753SOL    HW224157   5.932   7.606  14.629
40754SOL     OW24158  14.670   2.689   4.452
40754SOL    HW124159  14.635   2.777   4.466
40754SOL    HW224160  14.706   2.692   4.363
40755SOL     OW24161  13.388  12.533   9.139
40755SOL    HW124162  13.358  12.621   9.117
40755SOL    HW224163  13.347  12.513   9.223
40756SOL     OW24164   5.037  12.013   8.486
40756SOL    HW124165   5.105  11.970   8.538
40756SOL    HW224166   5.060  11.994   8.395
40757SOL     OW24167   5.285   4.224   1.744
40757SOL    HW124168   5.295   4.215   1.649
40757SOL    HW224169   5.305   4.316   1.762
40758SOL     OW24170   7.573   7.310   4.251
40758SOL    HW124171   7.610   7.395   4.227
40758SOL    HW224172   7.550   7.270   4.167
40759SOL     OW24173   2.679   0.256  11.149
40759SOL    HW124174   2.630   0.188  11.101
40759SOL    HW224175   2.740   0.291  11.085
40760SOL     OW24176  11.686  12.609  11.865
40760SOL    HW124177  11.770  12.653  11.880
40760SOL    HW224178  11.625  12.654  11.924
40761SOL     OW24179   3.077   8.196  10.793
40761SOL    HW124180   3.028   8.114  10.782
40761SOL    HW224181   3.116   8.188  10.880
40762SOL     OW24182   1.353   4.409   5.414
40762SOL    HW124183   1.368   4.345   5.483
40762SOL    HW224184   1.293   4.366   5.353
40763SOL     OW24185  11.783   5.405  14.670
40763SOL    HW124186  11.856   5.355  14.633
40763SOL    HW224187  11.826   5.480  14.712
40764SOL     OW24188  14.432   3.958   8.197
40764SOL    HW124189  14.350   3.911   8.211
40764SOL    HW224190  14.443   4.011   8.276
40765SOL     OW24191  14.816   2.638   9.965
40765SOL    HW124192  14.862   2.598  10.038
40765SOL    HW224193  14.853   2.726   9.959
40766SOL     OW24194   1.866   1.284   4.235
40766SOL    HW124195   1.787   1.232   4.249
40766SOL    HW224196   1.834   1.371   4.214
40767SOL     OW24197   3.531  13.660   3.485
40767SOL    HW124198   3.560  13.745   3.452
40767SOL    HW224199   3.550  13.662   3.579
40768SOL     OW24200  11.189   3.593   8.390
40768SOL    HW124201  11.242   3.528   8.436
40768SOL    HW224202  11.250   3.635   8.329
40769SOL     OW24203   8.891   8.376   6.837
40769SOL    HW124204   8.906   8.421   6.754
40769SOL    HW224205   8.943   8.296   6.830
40770SOL     OW24206   3.631   8.525   2.601
40770SOL    HW124207   3.609   8.468   2.527
40770SOL    HW224208   3.727   8.530   2.598
40771SOL     OW24209   1.394  10.571  12.017
40771SOL    HW124210   1.389  10.507  11.946
40771SOL    HW224211   1.463  10.632  11.989
40772SOL     OW24212   0.256   8.379   7.767
40772SOL    HW124213   0.297   8.293   7.764
40772SOL    HW224214   0.304   8.427   7.834
40773SOL     OW24215   7.797  13.691  14.326
40773SOL    HW124216   7.737  13.619  14.343
40773SOL    HW224217   7.740  13.763  14.298
40774SOL     OW24218   5.082   6.715   0.970
40774SOL    HW124219   5.068   6.779   0.900
40774SOL    HW224220   5.177   6.709   0.979
40775SOL     OW24221   1.857  13.969   1.966
40775SOL    HW124222   1.930  14.014   2.009
40775SOL    HW224223   1.792  13.957   2.035
40776SOL     OW24224  12.038   5.851  12.608
40776SOL    HW124225  12.101   5.921  12.590
40776SOL    HW224226  12.087   5.788  12.661
40777SOL     OW24227   0.772  11.018   0.971
40777SOL    HW124228   0.783  11.034   0.878
40777SOL    HW224229   0.680  10.994   0.981
40778SOL     OW24230   7.518   5.216   7.107
40778SOL    HW124231   7.548   5.190   7.194
40778SOL    HW224232   7.567   5.296   7.087
40779SOL     OW24233   3.150   7.606  12.753
40779SOL    HW124234   3.198   7.539  12.704
40779SOL    HW224235   3.064   7.566  12.769
40780SOL     OW24236  12.425   2.364   0.985
40780SOL    HW124237  12.375   2.297   0.938
40780SOL    HW224238  12.360   2.429   1.010
40781SOL     OW24239   4.612   0.419   7.741
40781SOL    HW124240   4.524   0.394   7.713
40781SOL    HW224241   4.668   0.347   7.714
40782SOL     OW24242  11.220   9.406   6.023
40782SOL    HW124243  11.291   9.414   6.087
40782SOL    HW224244  11.162   9.479   6.043
40783SOL     OW24245   5.289   9.950   3.189
40783SOL    HW124246   5.296  10.034   3.145
40783SOL    HW224247   5.365   9.947   3.247
40784SOL     OW24248   9.503  13.549   9.966
40784SOL    HW124249   9.539  13.536  10.053
40784SOL    HW224250   9.516  13.465   9.922
40785SOL     OW24251   3.244  11.265   1.421
40785SOL    HW124252   3.216  11.178   1.447
40785SOL    HW224253   3.238  11.265   1.325
40786SOL     OW24254  12.835  12.233   9.077
40786SOL    HW124255  12.807  12.318   9.112
40786SOL    HW224256  12.836  12.175   9.153
40787SOL     OW24257   9.116  12.379  14.336
40787SOL    HW124258   9.051  12.348  14.399
40787SOL    HW224259   9.079  12.461  14.302
40788SOL     OW24260   6.624  13.222   7.235
40788SOL    HW124261   6.583  13.211   7.149
40788SOL    HW224262   6.690  13.153   7.239
40789SOL     OW24263   9.526  10.733   0.511
40789SOL    HW124264   9.472  10.770   0.442
40789SOL    HW224265   9.468  10.672   0.558
40790SOL     OW24266   3.477   0.236   9.950
40790SOL    HW124267   3.392   0.270   9.977
40790SOL    HW224268   3.461   0.144   9.930
40791SOL     OW24269   1.401   4.607  10.110
40791SOL    HW124270   1.349   4.599  10.030
40791SOL    HW224271   1.350   4.560  10.176
40792SOL     OW24272   6.434   1.209  13.711
40792SOL    HW124273   6.386   1.135  13.673
40792SOL    HW224274   6.451   1.267  13.637
40793SOL     OW24275   0.604   7.637  10.447
40793SOL    HW124276   0.515   7.639  10.413
40793SOL    HW224277   0.642   7.557  10.410
40794SOL     OW24278  14.507  13.392  13.826
40794SOL    HW124279  14.513  13.423  13.916
40794SOL    HW224280  14.580  13.434  13.781
40795SOL     OW24281   3.194  11.979   0.814
40795SOL    HW124282   3.106  12.017   0.811
40795SOL    HW224283   3.238  12.027   0.884
40796SOL     OW24284  11.122   4.556   7.798
40796SOL    HW124285  11.137   4.616   7.871
40796SOL    HW224286  11.030   4.530   7.806
40797SOL     OW24287  11.427  12.133   6.580
40797SOL    HW124288  11.421  12.060   6.641
40797SOL    HW224289  11.460  12.095   6.499
40798SOL     OW24290   3.936   1.077  12.533
40798SOL    HW124291   4.018   1.113  12.500
40798SOL    HW224292   3.905   1.142  12.597
40799SOL     OW24293  12.018  11.904  10.739
40799SOL    HW124294  12.103  11.864  10.719
40799SOL    HW224295  11.963  11.832  10.768
40800SOL     OW24296   0.947   7.344  13.428
40800SOL    HW124297   1.014   7.276  13.441
40800SOL    HW224298   0.996   7.426  13.423
40801SOL     OW24299   0.127   3.557  14.280
40801SOL    HW124300   0.186   3.517  14.344
40801SOL    HW224301   0.052   3.585  14.332
40802SOL     OW24302  12.901  10.614   7.154
40802SOL    HW124303  12.840  10.605   7.226
40802SOL    HW224304  12.975  10.559   7.178
40803SOL     OW24305   0.058   7.897   3.795
40803SOL    HW124306   0.080   7.990   3.786
40803SOL    HW224307   0.076   7.859   3.708
40804SOL     OW24308   5.428   8.426   3.081
40804SOL    HW124309   5.387   8.478   3.012
40804SOL    HW224310   5.517   8.409   3.049
40805SOL     OW24311  12.835   1.625   2.073
40805SOL    HW124312  12.794   1.560   2.131
40805SOL    HW224313  12.928   1.601   2.072
40806SOL     OW24314   6.035  11.411   6.074
40806SOL    HW124315   6.067  11.329   6.113
40806SOL    HW224316   6.009  11.387   5.985
40807SOL     OW24317   8.073   7.732   4.320
40807SOL    HW124318   8.063   7.755   4.412
40807SOL    HW224319   8.071   7.816   4.274
40808SOL     OW24320   2.602   0.637   8.523
40808SOL    HW124321   2.636   0.631   8.612
40808SOL    HW224322   2.569   0.727   8.516
40809SOL     OW24323   9.228  10.408   3.683
40809SOL    HW124324   9.277  10.382   3.761
40809SOL    HW224325   9.295  10.438   3.622
40810SOL     OW24326   1.454   2.321   3.079
40810SOL    HW124327   1.520   2.261   3.113
40810SOL    HW224328   1.441   2.385   3.150
40811SOL     OW24329   3.814   3.591   1.817
40811SOL    HW124330   3.723   3.562   1.806
40811SOL    HW224331   3.860   3.513   1.848
40812SOL     OW24332  11.659   7.011  10.023
40812SOL    HW124333  11.705   7.041   9.944
40812SOL    HW224334  11.727   7.004  10.089
40813SOL     OW24335   8.755   7.333  10.628
40813SOL    HW124336   8.756   7.291  10.714
40813SOL    HW224337   8.670   7.376  10.623
40814SOL     OW24338   0.609  13.819   6.516
40814SOL    HW124339   0.581  13.902   6.478
40814SOL    HW224340   0.699  13.808   6.485
40815SOL     OW24341   5.734  11.660   9.281
40815SOL    HW124342   5.815  11.694   9.318
40815SOL    HW224343   5.677  11.644   9.356
40816SOL     OW24344   6.809   4.969   6.090
40816SOL    HW124345   6.806   4.973   6.186
40816SOL    HW224346   6.814   5.060   6.062
40817SOL     OW24347   4.225   0.169   3.286
40817SOL    HW124348   4.234   0.244   3.227
40817SOL    HW224349   4.138   0.178   3.324
40818SOL     OW24350  10.862   8.346   5.616
40818SOL    HW124351  10.812   8.424   5.641
40818SOL    HW224352  10.898   8.314   5.699
40819SOL     OW24353   9.839   2.855  13.827
40819SOL    HW124354   9.924   2.815  13.812
40819SOL    HW224355   9.848   2.902  13.910
40820SOL     OW24356   8.810  12.023  11.740
40820SOL    HW124357   8.872  12.076  11.690
40820SOL    HW224358   8.852  12.011  11.825
40821SOL     OW24359  14.705  13.776   7.686
40821SOL    HW124360  14.751  13.697   7.658
40821SOL    HW224361  14.739  13.795   7.773
40822SOL     OW24362   6.048   4.939  14.285
40822SOL    HW124363   6.026   4.869  14.346
40822SOL    HW224364   6.125   4.907  14.237
40823SOL     OW24365   6.090   2.559   2.062
40823SOL    HW124366   6.163   2.552   2.000
40823SOL    HW224367   6.014   2.530   2.012
40824SOL     OW24368   9.581   3.422   7.745
40824SOL    HW124369   9.521   3.348   7.750
40824SOL    HW224370   9.668   3.383   7.740
40825SOL     OW24371  14.055   0.465  12.867
40825SOL    HW124372  14.030   0.545  12.819
40825SOL    HW224373  14.021   0.478  12.955
40826SOL     OW24374   6.733   9.225  11.072
40826SOL    HW124375   6.812   9.173  11.087
40826SOL    HW224376   6.661   9.164  11.090
40827SOL     OW24377  14.308   7.279   6.879
40827SOL    HW124378  14.309   7.216   6.806
40827SOL    HW224379  14.375   7.343   6.855
40828SOL     OW24380   4.895   2.167  13.032
40828SOL    HW124381   4.858   2.192  12.947
40828SOL    HW224382   4.839   2.096  13.062
40829SOL     OW24383   6.788   0.873   6.611
40829SOL    HW124384   6.821   0.943   6.556
40829SOL    HW224385   6.833   0.884   6.694
40830SOL     OW24386  10.082  10.964  12.238
40830SOL    HW124387  10.177  10.953  12.232
40830SOL    HW224388  10.070  11.050  12.277
40831SOL     OW24389   5.555   2.088  13.074
40831SOL    HW124390   5.546   2.117  13.165
40831SOL    HW224391   5.482   2.028  13.060
40832SOL     OW24392   5.684   3.872  11.517
40832SOL    HW124393   5.756   3.891  11.458
40832SOL    HW224394   5.723   3.821  11.588
40833SOL     OW24395   3.217   3.428   9.362
40833SOL    HW124396   3.178   3.437   9.275
40833SOL    HW224397   3.153   3.466   9.421
40834SOL     OW24398   1.033   1.229   7.727
40834SOL    HW124399   1.024   1.169   7.801
40834SOL    HW224400   1.079   1.305   7.764
40835SOL     OW24401   7.120   9.521   5.595
40835SOL    HW124402   7.034   9.486   5.620
40835SOL    HW224403   7.118   9.521   5.499
40836SOL     OW24404   8.260   5.400   1.809
40836SOL    HW124405   8.295   5.333   1.751
40836SOL    HW224406   8.336   5.450   1.837
40837SOL     OW24407  10.128   8.085  12.497
40837SOL    HW124408  10.081   8.145  12.556
40837SOL    HW224409  10.090   8.104  12.411
40838SOL     OW24410   6.019   8.654  13.617
40838SOL    HW124411   6.057   8.576  13.577
40838SOL    HW224412   6.000   8.628  13.707
40839SOL     OW24413   1.961   8.180   5.307
40839SOL    HW124414   1.866   8.182   5.320
40839SOL    HW224415   1.997   8.177   5.395
40840SOL     OW24416  10.597   5.330  11.013
40840SOL    HW124417  10.597   5.245  11.057
40840SOL    HW224418  10.570   5.392  11.081
40841SOL     OW24419   2.110   2.134   8.154
40841SOL    HW124420   2.041   2.069   8.141
40841SOL    HW224421   2.121   2.175   8.068
40842SOL     OW24422   3.292  12.102   9.972
40842SOL    HW124423   3.257  12.136   9.889
40842SOL    HW224424   3.246  12.153  10.039
40843SOL     OW24425   8.054   0.035   2.598
40843SOL    HW124426   8.019  14.840   2.646
40843SOL    HW224427   8.038   0.015   2.506
40844SOL     OW24428  10.085   3.182  13.122
40844SOL    HW124429  10.077   3.103  13.175
40844SOL    HW224430   9.998   3.221  13.123
40845SOL     OW24431   2.112   3.034  10.491
40845SOL    HW124432   2.087   3.075  10.408
40845SOL    HW224433   2.188   2.981  10.470
40846SOL     OW24434  13.673   9.566   1.523
40846SOL    HW124435  13.598   9.580   1.465
40846SOL    HW224436  13.664   9.634   1.590
40847SOL     OW24437   7.816   6.257  14.336
40847SOL    HW124438   7.721   6.259  14.332
40847SOL    HW224439   7.842   6.346  14.313
40848SOL     OW24440   1.534   3.305   2.653
40848SOL    HW124441   1.615   3.264   2.682
40848SOL    HW224442   1.523   3.381   2.709
40849SOL     OW24443  14.409  13.687   5.200
40849SOL    HW124444  14.329  13.703   5.150
40849SOL    HW224445  14.393  13.729   5.284
40850SOL     OW24446   8.737   1.957  13.883
40850SOL    HW124447   8.668   1.918  13.937
40850SOL    HW224448   8.794   2.002  13.946
40851SOL     OW24449  11.918   2.213   3.930
40851SOL    HW124450  11.833   2.226   3.971
40851SOL    HW224451  11.960   2.299   3.933
40852SOL     OW24452   8.373   8.245   0.648
40852SOL    HW124453   8.437   8.190   0.603
40852SOL    HW224454   8.320   8.283   0.577
40853SOL     OW24455   5.640  11.180   3.752
40853SOL    HW124456   5.666  11.146   3.666
40853SOL    HW224457   5.581  11.113   3.787
40854SOL     OW24458   7.748   5.991  11.830
40854SOL    HW124459   7.718   5.908  11.794
40854SOL    HW224460   7.717   5.992  11.920
40855SOL     OW24461  11.762  11.627   3.400
40855SOL    HW124462  11.684  11.582   3.433
40855SOL    HW224463  11.829  11.610   3.467
40856SOL     OW24464   6.696   7.429  11.944
40856SOL    HW124465   6.602   7.435  11.930
40856SOL    HW224466   6.707   7.351  11.998
40857SOL     OW24467   4.883   2.789  11.682
40857SOL    HW124468   4.960   2.733  11.672
40857SOL    HW224469   4.901   2.842  11.759
40858SOL     OW24470  11.698  12.654   5.180
40858SOL    HW124471  11.623  12.684   5.230
40858SOL    HW224472  11.730  12.732   5.135
40859SOL     OW24473  13.721   7.317   7.660
40859SOL    HW124474  13.745   7.274   7.578
40859SOL    HW224475  13.782   7.390   7.668
40860SOL     OW24476   0.608  10.434   9.466
40860SOL    HW124477   0.631  10.408   9.555
40860SOL    HW224478   0.517  10.406   9.455
40861SOL     OW24479  10.180   6.888   8.020
40861SOL    HW124480  10.194   6.939   7.940
40861SOL    HW224481  10.268   6.871   8.053
40862SOL     OW24482   2.922   2.754   2.384
40862SOL    HW124483   2.995   2.792   2.433
40862SOL    HW224484   2.897   2.677   2.433
40863SOL     OW24485  10.889   9.806   6.120
40863SOL    HW124486  10.953   9.755   6.070
40863SOL    HW224487  10.852   9.867   6.055
40864SOL     OW24488   3.000   2.729   3.615
40864SOL    HW124489   2.997   2.652   3.558
40864SOL    HW224490   2.952   2.703   3.694
40865SOL     OW24491   3.056   1.658  14.676
40865SOL    HW124492   3.148   1.671  14.651
40865SOL    HW224493   3.028   1.583  14.623
40866SOL     OW24494  11.279  10.289   5.785
40866SOL    HW124495  11.220  10.339   5.730
40866SOL    HW224496  11.342  10.354   5.818
40867SOL     OW24497   3.830  11.577  11.417
40867SOL    HW124498   3.830  11.567  11.512
40867SOL    HW224499   3.916  11.615  11.397
40868SOL     OW24500  14.587   5.383  14.094
40868SOL    HW124501  14.599   5.380  13.999
40868SOL    HW224502  14.633   5.306  14.126
40869SOL     OW24503  13.694   0.108  11.993
40869SOL    HW124504  13.675   0.059  12.073
40869SOL    HW224505  13.789   0.117  11.992
40870SOL     OW24506   9.571   9.191  12.552
40870SOL    HW124507   9.514   9.178  12.476
40870SOL    HW224508   9.511   9.198  12.626
40871SOL     OW24509   0.074   0.102  14.594
40871SOL    HW124510   0.167   0.079  14.585
40871SOL    HW224511   0.072   0.166  14.665
40872SOL     OW24512  13.295   9.188  13.862
40872SOL    HW124513  13.261   9.139  13.787
40872SOL    HW224514  13.272   9.279  13.843
40873SOL     OW24515   0.271   2.058   8.741
40873SOL    HW124516   0.261   2.152   8.724
40873SOL    HW224517   0.298   2.052   8.832
40874SOL     OW24518   3.898  10.849  14.845
40874SOL    HW124519   3.891  10.842   0.060
40874SOL    HW224520   3.890  10.759  14.814
40875SOL     OW24521  10.185  12.906  11.812
40875SOL    HW124522  10.260  12.965  11.805
40875SOL    HW224523  10.138  12.936  11.890
40876SOL     OW24524   6.142  14.441   9.062
40876SOL    HW124525   6.076  14.372   9.068
40876SOL    HW224526   6.200  14.412   8.992
40877SOL     OW24527   0.975  12.030  13.155
40877SOL    HW124528   1.056  12.010  13.201
40877SOL    HW224529   0.913  11.962  13.184
40878SOL     OW24530   7.067  14.378  12.475
40878SOL    HW124531   7.030  14.409  12.557
40878SOL    HW224532   7.060  14.452  12.415
40879SOL     OW24533  14.031   3.337   7.539
40879SOL    HW124534  13.990   3.308   7.457
40879SOL    HW224535  14.034   3.259   7.594
40880SOL     OW24536   1.875   2.998   7.362
40880SOL    HW124537   1.846   2.922   7.412
40880SOL    HW224538   1.815   3.068   7.387
40881SOL     OW24539   7.382  10.649  12.911
40881SOL    HW124540   7.453  10.598  12.950
40881SOL    HW224541   7.325  10.583  12.872
40882SOL     OW24542   5.523   4.489   5.844
40882SOL    HW124543   5.618   4.500   5.840
40882SOL    HW224544   5.510   4.396   5.862
40883SOL     OW24545   9.333  10.651   9.974
40883SOL    HW124546   9.293  10.565   9.960
40883SOL    HW224547   9.383  10.642  10.055
40884SOL     OW24548   5.853   2.920   7.529
40884SOL    HW124549   5.779   2.870   7.496
40884SOL    HW224550   5.928   2.889   7.477
40885SOL     OW24551   2.492   2.056   3.359
40885SOL    HW124552   2.575   2.053   3.313
40885SOL    HW224553   2.492   1.978   3.415
40886SOL     OW24554  13.757   1.771   0.345
40886SOL    HW124555  13.709   1.708   0.291
40886SOL    HW224556  13.829   1.721   0.383
40887SOL     OW24557   3.727   9.592   2.016
40887SOL    HW124558   3.786   9.642   1.959
40887SOL    HW224559   3.743   9.501   1.993
40888SOL     OW24560  11.293   4.275   9.147
40888SOL    HW124561  11.199   4.266   9.162
40888SOL    HW224562  11.309   4.369   9.151
40889SOL     OW24563  10.014   9.868   7.934
40889SOL    HW124564   9.951   9.855   8.005
40889SOL    HW224565  10.067   9.942   7.963
40890SOL     OW24566   9.683  10.705   6.357
40890SOL    HW124567   9.694  10.796   6.328
40890SOL    HW224568   9.763  10.661   6.328
40891SOL     OW24569  12.236   9.765  11.197
40891SOL    HW124570  12.280   9.744  11.114
40891SOL    HW224571  12.175   9.835  11.175
40892SOL     OW24572   9.646   9.151   1.697
40892SOL    HW124573   9.624   9.063   1.667
40892SOL    HW224574   9.612   9.156   1.786
40893SOL     OW24575  12.219   0.129  14.768
40893SOL    HW124576  12.283   0.097  14.704
40893SOL    HW224577  12.258   0.208  14.803
40894SOL     OW24578   3.352  10.499   4.422
40894SOL    HW124579   3.360  10.439   4.347
40894SOL    HW224580   3.266  10.539   4.412
40895SOL     OW24581   4.458   5.459  13.062
40895SOL    HW124582   4.498   5.469  12.976
40895SOL    HW224583   4.497   5.380  13.098
40896SOL     OW24584   6.507  11.276   9.338
40896SOL    HW124585   6.493  11.185   9.363
40896SOL    HW224586   6.566  11.311   9.405
40897SOL     OW24587   5.565   0.174   6.241
40897SOL    HW124588   5.547   0.099   6.186
40897SOL    HW224589   5.505   0.242   6.210
40898SOL     OW24590  14.506   9.262   2.603
40898SOL    HW124591  14.572   9.302   2.661
40898SOL    HW224592  14.525   9.300   2.517
40899SOL     OW24593   5.668  10.601   9.756
40899SOL    HW124594   5.714  10.672   9.710
40899SOL    HW224595   5.712  10.521   9.727
40900SOL     OW24596   2.981  11.575   9.116
40900SOL    HW124597   2.891  11.608   9.119
40900SOL    HW224598   2.998  11.543   9.204
40901SOL     OW24599  10.899   7.779   5.851
40901SOL    HW124600  10.973   7.803   5.907
40901SOL    HW224601  10.939   7.766   5.764
40902SOL     OW24602   4.668  10.837   2.975
40902SOL    HW124603   4.713  10.753   2.977
40902SOL    HW224604   4.628  10.841   2.888
40903SOL     OW24605  13.197   8.500   3.695
40903SOL    HW124606  13.103   8.499   3.712
40903SOL    HW224607  13.205   8.529   3.604
40904SOL     OW24608   7.765   8.670   4.034
40904SOL    HW124609   7.703   8.598   4.033
40904SOL    HW224610   7.833   8.643   4.096
40905SOL     OW24611  14.394   9.508   4.339
40905SOL    HW124612  14.453   9.574   4.303
40905SOL    HW224613  14.452   9.437   4.368
40906SOL     OW24614  13.837   2.096  10.677
40906SOL    HW124615  13.807   2.042  10.603
40906SOL    HW224616  13.904   2.042  10.720
40907SOL     OW24617   8.822   3.500   9.837
40907SOL    HW124618   8.876   3.424   9.858
40907SOL    HW224619   8.876   3.575   9.860
40908SOL     OW24620  11.829   2.308  12.468
40908SOL    HW124621  11.764   2.273  12.407
40908SOL    HW224622  11.898   2.242  12.470
40909SOL     OW24623   9.207   1.481   6.018
40909SOL    HW124624   9.259   1.548   6.064
40909SOL    HW224625   9.273   1.425   5.977
40910SOL     OW24626  10.018  12.753   2.340
40910SOL    HW124627  10.029  12.692   2.267
40910SOL    HW224628  10.046  12.704   2.417
40911SOL     OW24629   6.356   0.300  11.032
40911SOL    HW124630   6.413   0.269  10.962
40911SOL    HW224631   6.270   0.309  10.991
40912SOL     OW24632   7.614   3.362  11.346
40912SOL    HW124633   7.690   3.420  11.348
40912SOL    HW224634   7.643   3.282  11.391
40913SOL     OW24635   1.931   7.255   4.498
40913SOL    HW124636   1.900   7.288   4.583
40913SOL    HW224637   1.992   7.186   4.521
40914SOL     OW24638  12.032   3.965   1.454
40914SOL    HW124639  11.976   3.964   1.532
40914SOL    HW224640  11.995   4.034   1.399
40915SOL     OW24641   2.042   3.127   8.421
40915SOL    HW124642   2.088   3.186   8.363
40915SOL    HW224643   2.076   3.147   8.508
40916SOL     OW24644   1.111   0.314   5.019
40916SOL    HW124645   1.170   0.302   5.094
40916SOL    HW224646   1.134   0.400   4.984
40917SOL     OW24647   4.466   9.740   5.428
40917SOL    HW124648   4.460   9.700   5.515
40917SOL    HW224649   4.542   9.799   5.434
40918SOL     OW24650   5.426   7.298   3.570
40918SOL    HW124651   5.441   7.392   3.570
40918SOL    HW224652   5.378   7.281   3.651
40919SOL     OW24653  12.463   0.219   4.006
40919SOL    HW124654  12.450   0.270   3.926
40919SOL    HW224655  12.431   0.276   4.076
40920SOL     OW24656  14.508  10.390   2.965
40920SOL    HW124657  14.418  10.363   2.945
40920SOL    HW224658  14.503  10.486   2.971
40921SOL     OW24659   0.336   8.514   1.779
40921SOL    HW124660   0.254   8.558   1.801
40921SOL    HW224661   0.379   8.500   1.864
40922SOL     OW24662   6.651   7.463  13.021
40922SOL    HW124663   6.700   7.521  12.962
40922SOL    HW224664   6.584   7.519  13.060
40923SOL     OW24665   0.197  11.540  10.714
40923SOL    HW124666   0.133  11.588  10.661
40923SOL    HW224667   0.222  11.465  10.661
40924SOL     OW24668   0.822   8.435   7.321
40924SOL    HW124669   0.734   8.399   7.331
40924SOL    HW224670   0.849   8.407   7.233
40925SOL     OW24671  10.040   9.882   1.627
40925SOL    HW124672  10.032   9.977   1.617
40925SOL    HW224673  10.006   9.864   1.715
40926SOL     OW24674   9.440   0.418  10.289
40926SOL    HW124675   9.507   0.385  10.229
40926SOL    HW224676   9.489   0.470  10.353
40927SOL     OW24677   3.434  13.538  10.098
40927SOL    HW124678   3.423  13.542  10.193
40927SOL    HW224679   3.491  13.613  10.079
40928SOL     OW24680   6.234   4.520  11.802
40928SOL    HW124681   6.296   4.575  11.754
40928SOL    HW224682   6.152   4.570  11.802
40929SOL     OW24683   5.651   3.086  12.264
40929SOL    HW124684   5.651   3.070  12.169
40929SOL    HW224685   5.611   3.008  12.302
40930SOL     OW24686   2.330   2.393  12.840
40930SOL    HW124687   2.342   2.300  12.858
40930SOL    HW224688   2.395   2.437  12.895
40931SOL     OW24689  12.270   8.147  11.050
40931SOL    HW124690  12.309   8.114  11.131
40931SOL    HW224691  12.179   8.164  11.073
40932SOL     OW24692   1.801  13.416   0.388
40932SOL    HW124693   1.761  13.363   0.318
40932SOL    HW224694   1.840  13.490   0.341
40933SOL     OW24695   0.969  13.587   2.356
40933SOL    HW124696   0.988  13.680   2.368
40933SOL    HW224697   1.008  13.565   2.272
40934SOL     OW24698  10.254  10.121   6.577
40934SOL    HW124699  10.292  10.075   6.652
40934SOL    HW224700  10.310  10.097   6.503
40935SOL     OW24701   4.334   7.898   7.389
40935SOL    HW124702   4.266   7.839   7.357
40935SOL    HW224703   4.383   7.923   7.311
40936SOL     OW24704   4.760   8.402   5.781
40936SOL    HW124705   4.732   8.325   5.732
40936SOL    HW224706   4.718   8.476   5.735
40937SOL     OW24707   9.892   2.856   5.806
40937SOL    HW124708   9.896   2.879   5.713
40937SOL    HW224709   9.881   2.940   5.851
40938SOL     OW24710  13.804  12.453   2.211
40938SOL    HW124711  13.883  12.427   2.259
40938SOL    HW224712  13.820  12.543   2.185
40939SOL     OW24713   9.142   3.161  14.005
40939SOL    HW124714   9.116   3.242  14.048
40939SOL    HW224715   9.060   3.113  13.992
40940SOL     OW24716   9.226  12.870   0.083
40940SOL    HW124717   9.239  12.940   0.019
40940SOL    HW224718   9.263  12.904   0.164
40941SOL     OW24719   1.026  10.267   9.095
40941SOL    HW124720   1.015  10.288   9.188
40941SOL    HW224721   1.022  10.172   9.091
40942SOL     OW24722   0.584   8.501  12.550
40942SOL    HW124723   0.579   8.406  12.562
40942SOL    HW224724   0.584   8.513  12.455
40943SOL     OW24725  13.899   0.564   5.074
40943SOL    HW124726  13.967   0.577   5.007
40943SOL    HW224727  13.897   0.469   5.087
40944SOL     OW24728   7.561   7.193   1.771
40944SOL    HW124729   7.561   7.265   1.707
40944SOL    HW224730   7.549   7.236   1.855
40945SOL     OW24731   1.132  13.160   2.355
40945SOL    HW124732   1.097  13.167   2.443
40945SOL    HW224733   1.149  13.066   2.343
40946SOL     OW24734  11.155   9.617   8.017
40946SOL    HW124735  11.249   9.596   8.018
40946SOL    HW224736  11.143   9.674   8.093
40947SOL     OW24737  14.066   3.292  14.465
40947SOL    HW124738  14.055   3.245  14.547
40947SOL    HW224739  14.157   3.277  14.440
40948SOL     OW24740  13.115  12.684   9.172
40948SOL    HW124741  13.113  12.776   9.200
40948SOL    HW224742  13.058  12.639   9.235
40949SOL     OW24743  12.716   3.682   9.057
40949SOL    HW124744  12.780   3.726   9.113
40949SOL    HW224745  12.640   3.668   9.114
40950SOL     OW24746   3.102  10.097  12.116
40950SOL    HW124747   3.086  10.011  12.077
40950SOL    HW224748   3.125  10.078  12.207
40951SOL     OW24749   7.955   8.719   7.160
40951SOL    HW124750   8.009   8.790   7.125
40951SOL    HW224751   7.943   8.741   7.252
40952SOL     OW24752  10.429   5.154   2.184
40952SOL    HW124753  10.502   5.189   2.133
40952SOL    HW224754  10.471   5.095   2.247
40953SOL     OW24755   5.491  10.826   3.411
40953SOL    HW124756   5.420  10.860   3.467
40953SOL    HW224757   5.449  10.759   3.357
40954SOL     OW24758   4.178   8.288   3.350
40954SOL    HW124759   4.227   8.221   3.399
40954SOL    HW224760   4.241   8.324   3.288
40955SOL     OW24761   8.015  14.106   1.266
40955SOL    HW124762   8.097  14.072   1.228
40955SOL    HW224763   7.974  14.031   1.306
40956SOL     OW24764  10.093   8.946   1.512
40956SOL    HW124765  10.154   8.932   1.584
40956SOL    HW224766  10.077   8.858   1.477
40957SOL     OW24767   5.783   9.781  13.416
40957SOL    HW124768   5.843   9.780  13.491
40957SOL    HW224769   5.747   9.869  13.416
40958SOL     OW24770   7.565   3.169   0.383
40958SOL    HW124771   7.564   3.075   0.400
40958SOL    HW224772   7.658   3.193   0.390
40959SOL     OW24773  13.377  12.463   5.257
40959SOL    HW124774  13.401  12.371   5.240
40959SOL    HW224775  13.370  12.502   5.170
40960SOL     OW24776   0.150   0.691  14.359
40960SOL    HW124777   0.130   0.646  14.277
40960SOL    HW224778   0.098   0.646  14.425
40961SOL     OW24779  11.352   7.030  14.014
40961SOL    HW124780  11.358   7.047  14.108
40961SOL    HW224781  11.280   7.085  13.983
40962SOL     OW24782   0.706   4.631  13.172
40962SOL    HW124783   0.742   4.585  13.096
40962SOL    HW224784   0.638   4.573  13.206
40963SOL     OW24785  14.867   2.441  11.589
40963SOL    HW124786  14.840   2.444  11.681
40963SOL    HW224787   0.063   2.383  11.588
40964SOL     OW24788  13.393   5.124   9.492
40964SOL    HW124789  13.369   5.139   9.401
40964SOL    HW224790  13.332   5.179   9.542
40965SOL     OW24791  13.168   1.612   2.407
40965SOL    HW124792  13.246   1.625   2.460
40965SOL    HW224793  13.183   1.530   2.360
40966SOL     OW24794  11.824   6.027   0.379
40966SOL    HW124795  11.916   6.017   0.405
40966SOL    HW224796  11.826   6.084   0.302
40967SOL     OW24797   1.192   9.140   1.553
40967SOL    HW124798   1.265   9.186   1.512
40967SOL    HW224799   1.141   9.208   1.595
40968SOL     OW24800   8.080  11.883  12.107
40968SOL    HW124801   8.117  11.859  12.022
40968SOL    HW224802   8.025  11.808  12.131
40969SOL     OW24803  13.743   5.078  11.273
40969SOL    HW124804  13.810   5.104  11.209
40969SOL    HW224805  13.793   5.040  11.345
40970SOL     OW24806   9.921   2.594   1.570
40970SOL    HW124807   9.896   2.550   1.651
40970SOL    HW224808   9.866   2.554   1.503
40971SOL     OW24809  12.144   6.245   9.657
40971SOL    HW124810  12.177   6.187   9.589
40971SOL    HW224811  12.189   6.218   9.737
40972SOL     OW24812   6.430   9.661   7.101
40972SOL    HW124813   6.498   9.677   7.166
40972SOL    HW224814   6.425   9.566   7.093
40973SOL     OW24815  10.232   4.288  12.860
40973SOL    HW124816  10.310   4.281  12.806
40973SOL    HW224817  10.163   4.317  12.800
40974SOL     OW24818   1.733   9.125   6.137
40974SOL    HW124819   1.744   9.069   6.060
40974SOL    HW224820   1.795   9.197   6.124
40975SOL     OW24821   1.443  10.447  10.947
40975SOL    HW124822   1.478  10.530  10.915
40975SOL    HW224823   1.463  10.385  10.876
40976SOL     OW24824   4.025  11.941   5.095
40976SOL    HW124825   3.972  11.874   5.138
40976SOL    HW224826   3.979  12.023   5.112
40977SOL     OW24827  10.593   3.157  14.762
40977SOL    HW124828  10.607   3.197  14.848
40977SOL    HW224829  10.641   3.214  14.701
40978SOL     OW24830   7.949  12.582   7.004
40978SOL    HW124831   8.031  12.615   7.041
40978SOL    HW224832   7.889  12.579   7.079
40979SOL     OW24833   9.722   1.992  12.605
40979SOL    HW124834   9.804   2.034  12.632
40979SOL    HW224835   9.676   1.974  12.686
40980SOL     OW24836   7.366   2.674   0.072
40980SOL    HW124837   7.383   2.739   0.140
40980SOL    HW224838   7.454   2.644   0.045
40981SOL     OW24839   2.123   1.324   2.888
40981SOL    HW124840   2.079   1.401   2.925
40981SOL    HW224841   2.204   1.317   2.938
40982SOL     OW24842   1.629  12.577   4.614
40982SOL    HW124843   1.656  12.530   4.693
40982SOL    HW224844   1.589  12.510   4.559
40983SOL     OW24845   4.601  10.082  14.825
40983SOL    HW124846   4.586  10.163  14.777
40983SOL    HW224847   4.682  10.047  14.789
40984SOL     OW24848  11.636   3.019   6.476
40984SOL    HW124849  11.614   3.034   6.384
40984SOL    HW224850  11.589   3.088   6.523
40985SOL     OW24851   1.643   2.211   6.784
40985SOL    HW124852   1.615   2.127   6.821
40985SOL    HW224853   1.673   2.189   6.696
40986SOL     OW24854  13.354   3.893   0.606
40986SOL    HW124855  13.385   3.906   0.696
40986SOL    HW224856  13.395   3.811   0.578
40987SOL     OW24857   4.853   2.756   5.081
40987SOL    HW124858   4.918   2.761   5.151
40987SOL    HW224859   4.808   2.672   5.095
40988SOL     OW24860  13.518  12.842   7.586
40988SOL    HW124861  13.545  12.901   7.516
40988SOL    HW224862  13.494  12.901   7.658
40989SOL     OW24863   3.088   6.217  10.493
40989SOL    HW124864   3.110   6.160  10.566
40989SOL    HW224865   3.172   6.240  10.454
40990SOL     OW24866  14.159   8.732   6.500
40990SOL    HW124867  14.147   8.701   6.589
40990SOL    HW224868  14.070   8.734   6.463
40991SOL     OW24869  10.311   6.838   6.468
40991SOL    HW124870  10.362   6.757   6.461
40991SOL    HW224871  10.220   6.809   6.468
40992SOL     OW24872  13.128   5.819   4.637
40992SOL    HW124873  13.172   5.762   4.574
40992SOL    HW224874  13.084   5.884   4.583
40993SOL     OW24875  14.657   7.199   2.482
40993SOL    HW124876  14.589   7.193   2.415
40993SOL    HW224877  14.726   7.252   2.441
40994SOL     OW24878   8.394   0.463   2.799
40994SOL    HW124879   8.420   0.374   2.776
40994SOL    HW224880   8.475   0.514   2.795
40995SOL     OW24881  14.777   7.309  12.529
40995SOL    HW124882  14.781   7.326  12.623
40995SOL    HW224883  14.757   7.215  12.523
40996SOL     OW24884   6.291   8.455   3.988
40996SOL    HW124885   6.306   8.529   4.046
40996SOL    HW224886   6.375   8.441   3.945
40997SOL     OW24887   9.010  10.968   7.668
40997SOL    HW124888   9.086  10.967   7.727
40997SOL    HW224889   9.037  10.913   7.594
40998SOL     OW24890   7.018  13.362   0.855
40998SOL    HW124891   7.059  13.316   0.929
40998SOL    HW224892   7.089  13.373   0.792
40999SOL     OW24893  13.623   2.319  13.570
40999SOL    HW124894  13.656   2.277  13.650
40999SOL    HW224895  13.630   2.413  13.587
41000SOL     OW24896  10.999   4.807  11.668
41000SOL    HW124897  11.050   4.880  11.702
41000SOL    HW224898  10.944   4.846  11.600
41001SOL     OW24899  13.902  10.953   6.212
41001SOL    HW124900  13.877  10.895   6.284
41001SOL    HW224901  13.894  11.041   6.248
41002SOL     OW24902  14.791  11.928  12.075
41002SOL    HW124903  14.709  11.950  12.031
41002SOL    HW224904  14.811  12.005  12.128
41003SOL     OW24905   0.101   1.344   5.454
41003SOL    HW124906   0.120   1.335   5.547
41003SOL    HW224907   0.178   1.309   5.409
41004SOL     OW24908  13.955  11.454   8.503
41004SOL    HW124909  13.955  11.436   8.598
41004SOL    HW224910  13.988  11.373   8.464
41005SOL     OW24911   7.473  12.048   2.735
41005SOL    HW124912   7.463  12.143   2.726
41005SOL    HW224913   7.557  12.037   2.778
41006SOL     OW24914   4.637   3.233  11.720
41006SOL    HW124915   4.661   3.300  11.656
41006SOL    HW224916   4.682   3.154  11.689
41007SOL     OW24917   6.333   3.440   0.309
41007SOL    HW124918   6.248   3.458   0.348
41007SOL    HW224919   6.314   3.384   0.234
41008SOL     OW24920   7.315   9.691  10.150
41008SOL    HW124921   7.253   9.636  10.197
41008SOL    HW224922   7.400   9.668  10.187
41009SOL     OW24923   3.295   4.596   6.854
41009SOL    HW124924   3.278   4.659   6.785
41009SOL    HW224925   3.375   4.550   6.826
41010SOL     OW24926  13.156   9.680  11.575
41010SOL    HW124927  13.120   9.609  11.628
41010SOL    HW224928  13.153   9.757  11.632
41011SOL     OW24929   7.703   1.010   7.050
41011SOL    HW124930   7.656   1.064   7.114
41011SOL    HW224931   7.712   0.924   7.092
41012SOL     OW24932   3.543   8.070  10.018
41012SOL    HW124933   3.482   8.031   9.955
41012SOL    HW224934   3.500   8.058  10.103
41013SOL     OW24935   6.561   0.343   0.135
41013SOL    HW124936   6.576   0.280   0.065
41013SOL    HW224937   6.639   0.398   0.135
41014SOL     OW24938   1.750   8.557   5.536
41014SOL    HW124939   1.688   8.488   5.511
41014SOL    HW224940   1.836   8.519   5.518
41015SOL     OW24941   3.299  11.948  11.936
41015SOL    HW124942   3.378  11.989  11.971
41015SOL    HW224943   3.280  11.877  11.997
41016SOL     OW24944  11.637   1.188   8.563
41016SOL    HW124945  11.611   1.238   8.641
41016SOL    HW224946  11.723   1.153   8.585
41017SOL     OW24947   5.115   3.256  14.730
41017SOL    HW124948   5.166   3.319  14.679
41017SOL    HW224949   5.112   3.294  14.818
41018SOL     OW24950   3.284  10.803  11.026
41018SOL    HW124951   3.360  10.850  11.060
41018SOL    HW224952   3.298  10.797  10.932
41019SOL     OW24953  13.369   1.265  13.687
41019SOL    HW124954  13.367   1.213  13.767
41019SOL    HW224955  13.398   1.352  13.715
41020SOL     OW24956  12.366   7.140   3.122
41020SOL    HW124957  12.405   7.218   3.084
41020SOL    HW224958  12.438   7.077   3.128
41021SOL     OW24959   1.236   1.230   3.746
41021SOL    HW124960   1.265   1.320   3.760
41021SOL    HW224961   1.141   1.237   3.737
41022SOL     OW24962   4.996   3.767   8.108
41022SOL    HW124963   4.905   3.798   8.113
41022SOL    HW224964   5.045   3.831   8.159
41023SOL     OW24965   4.403   7.286   2.933
41023SOL    HW124966   4.327   7.231   2.952
41023SOL    HW224967   4.386   7.321   2.846
41024SOL     OW24968   0.485   9.312   2.361
41024SOL    HW124969   0.435   9.233   2.341
41024SOL    HW224970   0.431   9.384   2.329
41025SOL     OW24971   3.098  12.984  13.377
41025SOL    HW124972   3.068  12.990  13.468
41025SOL    HW224973   3.027  13.023  13.326
41026SOL     OW24974   0.086   9.098  11.341
41026SOL    HW124975   0.053   9.064  11.424
41026SOL    HW224976   0.032   9.175  11.323
41027SOL     OW24977  14.649   0.451  12.208
41027SOL    HW124978  14.619   0.362  12.190
41027SOL    HW224979  14.647   0.459  12.303
41028SOL     OW24980  14.549   2.996   6.131
41028SOL    HW124981  14.596   2.913   6.144
41028SOL    HW224982  14.525   2.995   6.038
41029SOL     OW24983  14.723  14.580   7.278
41029SOL    HW124984  14.662  14.530   7.331
41029SOL    HW224985  14.723  14.667   7.318
41030SOL     OW24986   2.358   0.893   8.408
41030SOL    HW124987   2.449   0.920   8.418
41030SOL    HW224988   2.335   0.920   8.320
41031SOL     OW24989   5.518  14.300   9.181
41031SOL    HW124990   5.512  14.369   9.248
41031SOL    HW224991   5.427  14.280   9.159
41032SOL     OW24992  14.144  13.917   1.424
41032SOL    HW124993  14.111  13.828   1.412
41032SOL    HW224994  14.071  13.973   1.398
41033SOL     OW24995   2.413  11.939   8.115
41033SOL    HW124996   2.377  11.873   8.175
41033SOL    HW224997   2.364  12.019   8.135
41034SOL     OW24998  14.790   2.030   5.088
41034SOL    HW124999  14.743   2.094   5.142
41034SOL    HW225000  14.813   1.960   5.149
41035SOL     OW25001   5.822   0.616   9.756
41035SOL    HW125002   5.745   0.621   9.700
41035SOL    HW225003   5.791   0.577   9.837
41036SOL     OW25004   2.030   8.248   9.679
41036SOL    HW125005   2.002   8.243   9.771
41036SOL    HW225006   1.949   8.268   9.631
41037SOL     OW25007   4.458   3.778   2.322
41037SOL    HW125008   4.527   3.838   2.349
41037SOL    HW225009   4.504   3.705   2.279
41038SOL     OW25010   1.339   3.424  12.100
41038SOL    HW125011   1.281   3.455  12.030
41038SOL    HW225012   1.289   3.355  12.144
41039SOL     OW25013  14.328   0.886   9.232
41039SOL    HW125014  14.391   0.941   9.186
41039SOL    HW225015  14.382   0.824   9.281
41040SOL     OW25016   7.926   7.303   5.488
41040SOL    HW125017   7.903   7.365   5.419
41040SOL    HW225018   7.857   7.315   5.554
41041SOL     OW25019   9.415   1.309  14.514
41041SOL    HW125020   9.383   1.287  14.602
41041SOL    HW225021   9.341   1.353  14.472
41042SOL     OW25022   7.871   9.160  12.955
41042SOL    HW125023   7.806   9.095  12.929
41042SOL    HW225024   7.955   9.119  12.935
41043SOL     OW25025  12.308  13.025   5.618
41043SOL    HW125026  12.222  12.984   5.609
41043SOL    HW225027  12.342  12.993   5.702
41044SOL     OW25028   3.677   9.350   2.620
41044SOL    HW125029   3.653   9.261   2.647
41044SOL    HW225030   3.635   9.360   2.535
41045SOL     OW25031   8.496   9.284   5.074
41045SOL    HW125032   8.442   9.335   5.134
41045SOL    HW225033   8.586   9.299   5.103
41046SOL     OW25034   4.672   8.079  11.314
41046SOL    HW125035   4.704   8.169  11.326
41046SOL    HW225036   4.634   8.057  11.400
41047SOL     OW25037   1.444   4.122  12.877
41047SOL    HW125038   1.462   4.039  12.831
41047SOL    HW225039   1.463   4.189  12.812
41048SOL     OW25040   1.548  10.451  13.704
41048SOL    HW125041   1.624  10.483  13.753
41048SOL    HW225042   1.473  10.492  13.749
41049SOL     OW25043  11.195   9.393   5.706
41049SOL    HW125044  11.197   9.429   5.795
41049SOL    HW225045  11.191   9.470   5.649
41050SOL     OW25046   0.809   2.295   1.833
41050SOL    HW125047   0.724   2.291   1.878
41050SOL    HW225048   0.850   2.375   1.867
41051SOL     OW25049  12.078   9.683   8.388
41051SOL    HW125050  12.168   9.692   8.358
41051SOL    HW225051  12.034   9.763   8.359
41052SOL     OW25052   0.273   0.041  11.547
41052SOL    HW125053   0.299   0.017  11.458
41052SOL    HW225054   0.217  14.849  11.576
41053SOL     OW25055   8.665   1.421   3.602
41053SOL    HW125056   8.570   1.430   3.591
41053SOL    HW225057   8.681   1.327   3.596
41054SOL     OW25058   2.284   4.353  10.848
41054SOL    HW125059   2.193   4.331  10.866
41054SOL    HW225060   2.299   4.435  10.895
41055SOL     OW25061   8.236   1.291   9.904
41055SOL    HW125062   8.154   1.243   9.911
41055SOL    HW225063   8.269   1.295   9.994
41056SOL     OW25064   6.205   3.942   5.530
41056SOL    HW125065   6.235   4.001   5.461
41056SOL    HW225066   6.170   3.867   5.483
41057SOL     OW25067   4.433  12.780  14.447
41057SOL    HW125068   4.447  12.851  14.510
41057SOL    HW225069   4.521  12.763  14.411
41058SOL     OW25070  13.478  13.929  14.832
41058SOL    HW125071  13.445  14.013  14.799
41058SOL    HW225072  13.399  13.877  14.847
41059SOL     OW25073  12.447   2.370   7.077
41059SOL    HW125074  12.448   2.453   7.028
41059SOL    HW225075  12.366   2.327   7.048
41060SOL     OW25076   2.489  10.186   8.807
41060SOL    HW125077   2.433  10.182   8.885
41060SOL    HW225078   2.440  10.241   8.745
41061SOL     OW25079  13.298   0.108   9.328
41061SOL    HW125080  13.272   0.197   9.350
41061SOL    HW225081  13.357   0.081   9.398
41062SOL     OW25082   5.935   9.665   1.058
41062SOL    HW125083   5.861   9.702   1.009
41062SOL    HW225084   5.959   9.734   1.119
41063SOL     OW25085   0.250   3.958  13.736
41063SOL    HW125086   0.299   4.013  13.675
41063SOL    HW225087   0.197   4.020  13.786
41064SOL     OW25088   6.060   9.175   2.923
41064SOL    HW125089   6.008   9.108   2.968
41064SOL    HW225090   6.005   9.253   2.926
41065SOL     OW25091   2.241   7.592   1.344
41065SOL    HW125092   2.335   7.586   1.323
41065SOL    HW225093   2.235   7.668   1.402
41066SOL     OW25094   3.327   9.439   1.669
41066SOL    HW125095   3.384   9.369   1.702
41066SOL    HW225096   3.239   9.401   1.672
41067SOL     OW25097  12.895   4.790  13.746
41067SOL    HW125098  12.959   4.861  13.760
41067SOL    HW225099  12.931   4.716  13.794
41068SOL     OW25100   8.153  10.563   2.439
41068SOL    HW125101   8.113  10.650   2.439
41068SOL    HW225102   8.202  10.560   2.357
41069SOL     OW25103   4.933   7.810   0.913
41069SOL    HW125104   4.970   7.837   0.997
41069SOL    HW225105   4.880   7.733   0.935
41070SOL     OW25106   9.004   0.191   0.209
41070SOL    HW125107   8.945   0.158   0.141
41070SOL    HW225108   9.051   0.113   0.239
41071SOL     OW25109   8.023  13.527  11.242
41071SOL    HW125110   8.056  13.611  11.209
41071SOL    HW225111   8.089  13.463  11.216
41072SOL     OW25112   1.659   2.887  10.074
41072SOL    HW125113   1.697   2.944  10.007
41072SOL    HW225114   1.697   2.801  10.057
41073SOL     OW25115  10.484   2.476   2.169
41073SOL    HW125116  10.486   2.417   2.244
41073SOL    HW225117  10.522   2.424   2.098
41074SOL     OW25118   2.797   1.263   8.224
41074SOL    HW125119   2.842   1.205   8.285
41074SOL    HW225120   2.791   1.212   8.143
41075SOL     OW25121   6.047  13.993   4.560
41075SOL    HW125122   6.025  14.037   4.478
41075SOL    HW225123   6.097  13.915   4.533
41076SOL     OW25124   9.417   1.116  10.998
41076SOL    HW125125   9.385   1.028  11.015
41076SOL    HW225126   9.362   1.149  10.927
41077SOL     OW25127   2.027   3.443   9.408
41077SOL    HW125128   2.084   3.493   9.467
41077SOL    HW225129   2.017   3.499   9.331
41078SOL     OW25130  13.994   2.872  14.789
41078SOL    HW125131  14.056   2.939  14.763
41078SOL    HW225132  13.967   2.831  14.707
41079SOL     OW25133   4.991   3.397   6.012
41079SOL    HW125134   4.995   3.402   6.107
41079SOL    HW225135   4.937   3.471   5.986
41080SOL     OW25136  11.845   5.119   2.911
41080SOL    HW125137  11.840   5.109   3.006
41080SOL    HW225138  11.815   5.209   2.895
41081SOL     OW25139   1.225   2.445   2.388
41081SOL    HW125140   1.146   2.495   2.406
41081SOL    HW225141   1.220   2.369   2.446
41082SOL     OW25142   1.896   9.055  14.468
41082SOL    HW125143   1.842   8.976  14.477
41082SOL    HW225144   1.883   9.082  14.378
41083SOL     OW25145  14.491  10.803  11.827
41083SOL    HW125146  14.404  10.765  11.813
41083SOL    HW225147  14.478  10.897  11.816
41084SOL     OW25148   3.066   6.738   6.601
41084SOL    HW125149   3.057   6.830   6.625
41084SOL    HW225150   3.103   6.696   6.678
41085SOL     OW25151  12.226   4.331   6.814
41085SOL    HW125152  12.151   4.335   6.873
41085SOL    HW225153  12.253   4.422   6.801
41086SOL     OW25154   2.587   8.636   7.225
41086SOL    HW125155   2.492   8.647   7.228
41086SOL    HW225156   2.602   8.565   7.164
41087SOL     OW25157   6.038   3.605   6.890
41087SOL    HW125158   6.050   3.671   6.958
41087SOL    HW225159   6.123   3.600   6.846
41088SOL     OW25160   3.171   1.537   8.660
41088SOL    HW125161   3.234   1.470   8.636
41088SOL    HW225162   3.215   1.588   8.729
41089SOL     OW25163   3.611   0.041   6.055
41089SOL    HW125164   3.617  14.836   6.099
41089SOL    HW225165   3.634   0.104   6.123
41090SOL     OW25166   4.310   7.691   2.230
41090SOL    HW125167   4.223   7.730   2.234
41090SOL    HW225168   4.369   7.758   2.265
41091SOL     OW25169  11.381   4.373   5.899
41091SOL    HW125170  11.461   4.388   5.848
41091SOL    HW225171  11.411   4.363   5.989
41092SOL     OW25172   1.954   2.269   7.031
41092SOL    HW125173   2.019   2.278   6.961
41092SOL    HW225174   1.881   2.325   7.003
41093SOL     OW25175   1.371   1.679  14.800
41093SOL    HW125176   1.279   1.675  14.826
41093SOL    HW225177   1.398   1.769  14.819
41094SOL     OW25178  13.676  13.046   8.407
41094SOL    HW125179  13.660  13.002   8.324
41094SOL    HW225180  13.766  13.023   8.430
41095SOL     OW25181   6.942   4.649   3.622
41095SOL    HW125182   6.952   4.655   3.717
41095SOL    HW225183   6.859   4.601   3.610
41096SOL     OW25184   9.048  12.785   8.258
41096SOL    HW125185   8.967  12.741   8.282
41096SOL    HW225186   9.107  12.767   8.331
41097SOL     OW25187   2.242  14.198  11.538
41097SOL    HW125188   2.309  14.257  11.573
41097SOL    HW225189   2.284  14.157  11.463
41098SOL     OW25190   2.839  11.689  11.945
41098SOL    HW125191   2.794  11.669  12.027
41098SOL    HW225192   2.807  11.624  11.883
41099SOL     OW25193  14.752   8.675   1.396
41099SOL    HW125194  14.721   8.765   1.405
41099SOL    HW225195  14.723   8.632   1.476
41100SOL     OW25196  10.029   1.746  10.438
41100SOL    HW125197   9.962   1.759  10.506
41100SOL    HW225198  10.017   1.820  10.379
41101SOL     OW25199  11.895  14.549  10.330
41101SOL    HW125200  11.880  14.580  10.240
41101SOL    HW225201  11.920  14.457  10.319
41102SOL     OW25202  13.619   0.383  11.630
41102SOL    HW125203  13.563   0.458  11.649
41102SOL    HW225204  13.597   0.320  11.699
41103SOL     OW25205  10.463   6.404   3.219
41103SOL    HW125206  10.442   6.312   3.237
41103SOL    HW225207  10.491   6.404   3.127
41104SOL     OW25208   0.426   4.013   6.947
41104SOL    HW125209   0.382   3.934   6.916
41104SOL    HW225210   0.365   4.084   6.926
41105SOL     OW25211   5.762   2.558   1.218
41105SOL    HW125212   5.825   2.561   1.290
41105SOL    HW225213   5.771   2.471   1.182
41106SOL     OW25214   2.084   8.241  10.786
41106SOL    HW125215   2.012   8.276  10.734
41106SOL    HW225216   2.043   8.213  10.868
41107SOL     OW25217   6.039   5.710   9.147
41107SOL    HW125218   5.946   5.690   9.136
41107SOL    HW225219   6.082   5.625   9.142
41108SOL     OW25220  10.924  11.503   2.517
41108SOL    HW125221  10.873  11.489   2.437
41108SOL    HW225222  11.015  11.502   2.487
41109SOL     OW25223   0.261   7.879  13.783
41109SOL    HW125224   0.259   7.940  13.856
41109SOL    HW225225   0.183   7.900  13.731
41110SOL     OW25226   6.416   3.472  10.079
41110SOL    HW125227   6.385   3.542  10.136
41110SOL    HW225228   6.339   3.447  10.028
41111SOL     OW25229   7.770   3.630   5.995
41111SOL    HW125230   7.823   3.557   6.027
41111SOL    HW225231   7.791   3.636   5.902
41112SOL     OW25232  14.680  12.146   8.326
41112SOL    HW125233  14.613  12.106   8.270
41112SOL    HW225234  14.719  12.214   8.271
41113SOL     OW25235  11.970   9.774  14.833
41113SOL    HW125236  12.029   9.706  14.865
41113SOL    HW225237  11.948   9.826   0.031
41114SOL     OW25238   7.389  14.297  10.444
41114SOL    HW125239   7.470  14.279  10.396
41114SOL    HW225240   7.373  14.390  10.430
41115SOL     OW25241   7.464  10.638   2.268
41115SOL    HW125242   7.490  10.565   2.211
41115SOL    HW225243   7.387  10.607   2.315
41116SOL     OW25244   6.437  14.720   6.454
41116SOL    HW125245   6.523  14.750   6.483
41116SOL    HW225246   6.396  14.798   6.417
41117SOL     OW25247   8.839  13.577   0.049
41117SOL    HW125248   8.912  13.541   0.100
41117SOL    HW225249   8.879  13.608  14.849
41118SOL     OW25250  10.483   2.470  11.700
41118SOL    HW125251  10.498   2.376  11.693
41118SOL    HW225252  10.522   2.507  11.621
41119SOL     OW25253  14.817   3.400   3.761
41119SOL    HW125254  14.775   3.324   3.721
41119SOL    HW225255   0.009   3.421   3.702
41120SOL     OW25256  11.059   6.570   0.023
41120SOL    HW125257  11.086   6.481   0.044
41120SOL    HW225258  10.993   6.591   0.089
41121SOL     OW25259   6.711  12.962   7.279
41121SOL    HW125260   6.769  12.903   7.327
41121SOL    HW225261   6.623  12.940   7.309
41122SOL     OW25262  13.612   5.078   9.944
41122SOL    HW125263  13.679   5.024   9.988
41122SOL    HW225264  13.572   5.128  10.015
41123SOL     OW25265   1.592  14.520  12.754
41123SOL    HW125266   1.641  14.519  12.836
41123SOL    HW225267   1.553  14.608  12.750
41124SOL     OW25268  10.734   0.738   7.797
41124SOL    HW125269  10.828   0.754   7.802
41124SOL    HW225270  10.726   0.645   7.778
41125SOL     OW25271   1.350   8.143  12.694
41125SOL    HW125272   1.391   8.110  12.614
41125SOL    HW225273   1.402   8.104  12.765
41126SOL     OW25274  11.213   1.340   0.484
41126SOL    HW125275  11.242   1.409   0.424
41126SOL    HW225276  11.140   1.298   0.439
41127SOL     OW25277   2.764   1.200   2.609
41127SOL    HW125278   2.854   1.198   2.577
41127SOL    HW225279   2.725   1.120   2.574
41128SOL     OW25280   5.784   4.509   9.780
41128SOL    HW125281   5.845   4.466   9.840
41128SOL    HW225282   5.809   4.602   9.784
41129SOL     OW25283   5.535   6.625  12.142
41129SOL    HW125284   5.444   6.628  12.112
41129SOL    HW225285   5.562   6.534  12.128
41130SOL     OW25286  14.646   5.165   0.565
41130SOL    HW125287  14.657   5.204   0.478
41130SOL    HW225288  14.577   5.099   0.553
41131SOL     OW25289   2.189   1.846   7.750
41131SOL    HW125290   2.188   1.769   7.806
41131SOL    HW225291   2.269   1.837   7.698
41132SOL     OW25292   7.374  11.175   8.371
41132SOL    HW125293   7.460  11.159   8.333
41132SOL    HW225294   7.336  11.245   8.317
41133SOL     OW25295  11.804   4.323   4.503
41133SOL    HW125296  11.739   4.255   4.522
41133SOL    HW225297  11.837   4.349   4.589
41134SOL     OW25298   2.391  10.646  12.017
41134SOL    HW125299   2.303  10.631  11.982
41134SOL    HW225300   2.449  10.598  11.958
41135SOL     OW25301   8.212   0.577   5.943
41135SOL    HW125302   8.169   0.662   5.938
41135SOL    HW225303   8.305   0.598   5.955
41136SOL     OW25304  13.451  13.212  10.274
41136SOL    HW125305  13.439  13.205  10.179
41136SOL    HW225306  13.399  13.288  10.299
41137SOL     OW25307   2.870   6.657  12.859
41137SOL    HW125308   2.785   6.686  12.826
41137SOL    HW225309   2.859   6.562  12.871
41138SOL     OW25310  11.816   1.086   2.293
41138SOL    HW125311  11.866   1.051   2.219
41138SOL    HW225312  11.864   1.165   2.318
41139SOL     OW25313   0.471   1.878   3.306
41139SOL    HW125314   0.458   1.921   3.390
41139SOL    HW225315   0.511   1.794   3.327
41140SOL     OW25316   9.912   4.252   6.505
41140SOL    HW125317   9.827   4.296   6.499
41140SOL    HW225318   9.967   4.299   6.442
41141SOL     OW25319   8.162   1.718   2.756
41141SOL    HW125320   8.239   1.662   2.757
41141SOL    HW225321   8.169   1.768   2.674
41142SOL     OW25322   7.071   3.156   1.542
41142SOL    HW125323   6.991   3.121   1.501
41142SOL    HW225324   7.080   3.244   1.505
41143SOL     OW25325  14.535   8.756  12.057
41143SOL    HW125326  14.555   8.663  12.061
41143SOL    HW225327  14.585   8.795  12.129
41144SOL     OW25328   9.699  12.293   3.820
41144SOL    HW125329   9.692  12.242   3.739
41144SOL    HW225330   9.791  12.285   3.844
41145SOL     OW25331   3.516   1.959  13.512
41145SOL    HW125332   3.433   1.992  13.547
41145SOL    HW225333   3.579   1.974  13.583
41146SOL     OW25334   9.391  12.661  12.352
41146SOL    HW125335   9.331  12.732  12.378
41146SOL    HW225336   9.444  12.699  12.283
41147SOL     OW25337   5.053  12.880  12.743
41147SOL    HW125338   4.987  12.934  12.787
41147SOL    HW225339   5.107  12.943  12.694
41148SOL     OW25340   9.441   7.434   4.429
41148SOL    HW125341   9.479   7.478   4.505
41148SOL    HW225342   9.355   7.405   4.458
41149SOL     OW25343  12.316   8.552   9.688
41149SOL    HW125344  12.290   8.460   9.679
41149SOL    HW225345  12.346   8.577   9.601
41150SOL     OW25346   4.151   6.121  11.451
41150SOL    HW125347   4.188   6.033  11.453
41150SOL    HW225348   4.180   6.157  11.367
41151SOL     OW25349   6.114   8.132   6.753
41151SOL    HW125350   6.035   8.121   6.700
41151SOL    HW225351   6.180   8.080   6.707
41152SOL     OW25352   9.604   1.223   7.464
41152SOL    HW125353   9.561   1.236   7.549
41152SOL    HW225354   9.532   1.210   7.402
41153SOL     OW25355   3.998   5.304   2.551
41153SOL    HW125356   3.985   5.392   2.587
41153SOL    HW225357   3.985   5.314   2.457
41154SOL     OW25358  12.880   1.046   1.794
41154SOL    HW125359  12.806   1.104   1.811
41154SOL    HW225360  12.882   1.035   1.699
41155SOL     OW25361   5.909   5.449  10.373
41155SOL    HW125362   5.826   5.495  10.384
41155SOL    HW225363   5.915   5.432  10.279
41156SOL     OW25364  12.979   6.246   3.438
41156SOL    HW125365  13.010   6.164   3.478
41156SOL    HW225366  12.886   6.232   3.421
41157SOL     OW25367   2.242  13.330  13.685
41157SOL    HW125368   2.302  13.285  13.744
41157SOL    HW225369   2.276  13.311  13.597
41158SOL     OW25370   3.551   2.166  13.327
41158SOL    HW125371   3.543   2.086  13.379
41158SOL    HW225372   3.483   2.224  13.363
41159SOL     OW25373   5.472   5.250   0.334
41159SOL    HW125374   5.424   5.284   0.409
41159SOL    HW225375   5.564   5.260   0.358
41160SOL     OW25376  11.810   5.169   8.649
41160SOL    HW125377  11.859   5.134   8.723
41160SOL    HW225378  11.730   5.116   8.646
41161SOL     OW25379   4.663   6.632  11.387
41161SOL    HW125380   4.706   6.610  11.304
41161SOL    HW225381   4.573   6.604  11.375
41162SOL     OW25382   1.657   4.437   9.264
41162SOL    HW125383   1.686   4.412   9.351
41162SOL    HW225384   1.647   4.532   9.268
41163SOL     OW25385   5.158  11.569   2.063
41163SOL    HW125386   5.088  11.632   2.045
41163SOL    HW225387   5.128  11.519   2.138
41164SOL     OW25388   3.303  13.057   9.215
41164SOL    HW125389   3.308  12.987   9.150
41164SOL    HW225390   3.294  13.012   9.299
41165SOL     OW25391   7.887  14.517  12.400
41165SOL    HW125392   7.833  14.591  12.426
41165SOL    HW225393   7.913  14.536  12.310
41166SOL     OW25394   4.252  12.647   7.876
41166SOL    HW125395   4.173  12.697   7.896
41166SOL    HW225396   4.308  12.708   7.827
41167SOL     OW25397   7.341   2.311  10.303
41167SOL    HW125398   7.255   2.353  10.298
41167SOL    HW225399   7.340   2.244  10.235
41168SOL     OW25400   0.155   1.248  12.340
41168SOL    HW125401   0.138   1.169  12.289
41168SOL    HW225402   0.234   1.229  12.390
41169SOL     OW25403  10.128   9.872   1.204
41169SOL    HW125404  10.206   9.878   1.149
41169SOL    HW225405  10.159   9.831   1.285
41170SOL     OW25406   0.298   3.162   2.386
41170SOL    HW125407   0.251   3.162   2.470
41170SOL    HW225408   0.229   3.148   2.321
41171SOL     OW25409   4.314  12.172   6.128
41171SOL    HW125410   4.305  12.077   6.130
41171SOL    HW225411   4.337  12.196   6.217
41172SOL     OW25412   4.802   8.065   0.460
41172SOL    HW125413   4.855   8.144   0.461
41172SOL    HW225414   4.779   8.050   0.552
41173SOL     OW25415  10.805   2.747   9.325
41173SOL    HW125416  10.801   2.807   9.251
41173SOL    HW225417  10.743   2.677   9.303
41174SOL     OW25418   9.761   0.269  11.976
41174SOL    HW125419   9.683   0.306  12.017
41174SOL    HW225420   9.825   0.340  11.977
41175SOL     OW25421  11.110   1.009   4.842
41175SOL    HW125422  11.068   0.929   4.810
41175SOL    HW225423  11.131   1.059   4.763
41176SOL     OW25424   8.399   0.123  10.758
41176SOL    HW125425   8.403   0.038  10.802
41176SOL    HW225426   8.305   0.141  10.750
41177SOL     OW25427   4.492   8.032   9.297
41177SOL    HW125428   4.417   7.984   9.332
41177SOL    HW225429   4.535   8.068   9.375
41178SOL     OW25430   8.509   6.225   7.022
41178SOL    HW125431   8.429   6.216   7.074
41178SOL    HW225432   8.548   6.138   7.022
41179SOL     OW25433   6.537  11.902   4.178
41179SOL    HW125434   6.614  11.932   4.129
41179SOL    HW225435   6.520  11.814   4.144
41180SOL     OW25436   0.350   2.091   6.513
41180SOL    HW125437   0.344   2.111   6.607
41180SOL    HW225438   0.274   2.134   6.475
41181SOL     OW25439  12.183   1.288  11.090
41181SOL    HW125440  12.199   1.218  11.153
41181SOL    HW225441  12.132   1.353  11.139
41182SOL     OW25442  13.292  13.553  13.239
41182SOL    HW125443  13.284  13.646  13.260
41182SOL    HW225444  13.274  13.508  13.322
41183SOL     OW25445   3.324   5.929   6.820
41183SOL    HW125446   3.393   5.973   6.869
41183SOL    HW225447   3.361   5.913   6.733
41184SOL     OW25448   9.171   6.801  12.990
41184SOL    HW125449   9.239   6.752  13.037
41184SOL    HW225450   9.195   6.892  13.001
41185SOL     OW25451   3.414   6.668   0.227
41185SOL    HW125452   3.448   6.700   0.310
41185SOL    HW225453   3.462   6.718   0.160
41186SOL     OW25454  13.168  11.418  14.567
41186SOL    HW125455  13.240  11.360  14.542
41186SOL    HW225456  13.115  11.366  14.627
41187SOL     OW25457   0.781  13.719  10.663
41187SOL    HW125458   0.875  13.731  10.679
41187SOL    HW225459   0.749  13.676  10.743
41188SOL     OW25460   4.070   3.539  10.070
41188SOL    HW125461   4.013   3.614  10.088
41188SOL    HW225462   4.157   3.577  10.064
41189SOL     OW25463   1.944   0.125   0.059
41189SOL    HW125464   1.958   0.110  14.846
41189SOL    HW225465   2.004   0.196   0.081
41190SOL     OW25466   4.476  11.691   0.347
41190SOL    HW125467   4.436  11.682   0.434
41190SOL    HW225468   4.410  11.657   0.287
41191SOL     OW25469   7.196   5.381   7.453
41191SOL    HW125470   7.111   5.368   7.411
41191SOL    HW225471   7.246   5.434   7.390
41192SOL     OW25472   0.059   8.225   8.469
41192SOL    HW125473   0.125   8.273   8.519
41192SOL    HW225474  14.862   8.227   8.525
41193SOL     OW25475   1.678   5.912  14.500
41193SOL    HW125476   1.696   5.998  14.536
41193SOL    HW225477   1.658   5.928  14.408
41194SOL     OW25478   5.644   4.730  14.340
41194SOL    HW125479   5.610   4.794  14.403
41194SOL    HW225480   5.609   4.646  14.370
41195SOL     OW25481   7.302   9.554  11.332
41195SOL    HW125482   7.217   9.575  11.293
41195SOL    HW225483   7.306   9.608  11.411
41196SOL     OW25484   0.858   9.658  12.338
41196SOL    HW125485   0.919   9.730  12.322
41196SOL    HW225486   0.868   9.602  12.261
41197SOL     OW25487   3.211   5.963  11.490
41197SOL    HW125488   3.157   5.961  11.569
41197SOL    HW225489   3.189   5.882  11.444
41198SOL     OW25490   9.649  10.043   9.658
41198SOL    HW125491   9.692  10.098   9.723
41198SOL    HW225492   9.569  10.012   9.701
41199SOL     OW25493   6.699  13.922   6.738
41199SOL    HW125494   6.673  13.836   6.768
41199SOL    HW225495   6.720  13.970   6.818
41200SOL     OW25496  10.162   5.525  14.119
41200SOL    HW125497  10.203   5.468  14.055
41200SOL    HW225498  10.079   5.551  14.079
41201SOL     OW25499   5.338  11.810   6.764
41201SOL    HW125500   5.351  11.731   6.711
41201SOL    HW225501   5.420  11.858   6.756
41202SOL     OW25502  12.419   2.780   9.832
41202SOL    HW125503  12.468   2.702   9.859
41202SOL    HW225504  12.430   2.842   9.904
41203SOL     OW25505   6.643   4.528  10.266
41203SOL    HW125506   6.641   4.459  10.332
41203SOL    HW225507   6.586   4.596  10.300
41204SOL     OW25508   7.132   1.019   1.481
41204SOL    HW125509   7.174   1.101   1.506
41204SOL    HW225510   7.172   0.997   1.397
41205SOL     OW25511  10.706  11.510   8.947
41205SOL    HW125512  10.649  11.525   8.872
41205SOL    HW225513  10.683  11.579   9.009
41206SOL     OW25514   9.720   2.100   4.930
41206SOL    HW125515   9.809   2.079   4.904
41206SOL    HW225516   9.715   2.075   5.023
41207SOL     OW25517   6.054  11.036  13.600
41207SOL    HW125518   6.085  11.084  13.677
41207SOL    HW225519   6.111  11.065  13.529
41208SOL     OW25520   6.661   3.932   8.904
41208SOL    HW125521   6.742   3.881   8.893
41208SOL    HW225522   6.611   3.916   8.824
41209SOL     OW25523   8.841   3.255  11.906
41209SOL    HW125524   8.882   3.184  11.857
41209SOL    HW225525   8.775   3.290  11.846
41210SOL     OW25526   8.831   8.661   7.498
41210SOL    HW125527   8.843   8.667   7.593
41210SOL    HW225528   8.820   8.567   7.481
41211SOL     OW25529  13.666  13.958   6.046
41211SOL    HW125530  13.724  14.034   6.047
41211SOL    HW225531  13.720  13.886   6.012
41212SOL     OW25532   2.737  12.799   9.832
41212SOL    HW125533   2.781  12.805   9.747
41212SOL    HW225534   2.788  12.735   9.881
41213SOL     OW25535  10.940   1.836  13.333
41213SOL    HW125536  10.908   1.917  13.373
41213SOL    HW225537  10.874   1.814  13.268
41214SOL     OW25538   4.991   3.165  10.698
41214SOL    HW125539   4.945   3.103  10.755
41214SOL    HW225540   4.943   3.162  10.616
41215SOL     OW25541   3.358  12.307   8.332
41215SOL    HW125542   3.318  12.232   8.288
41215SOL    HW225543   3.284  12.356   8.368
41216SOL     OW25544   9.224  11.453  11.010
41216SOL    HW125545   9.229  11.374  11.065
41216SOL    HW225546   9.198  11.522  11.071
41217SOL     OW25547   5.663  13.515   2.766
41217SOL    HW125548   5.616  13.596   2.744
41217SOL    HW225549   5.603  13.445   2.738
41218SOL     OW25550   9.451   8.590   4.640
41218SOL    HW125551   9.466   8.657   4.707
41218SOL    HW225552   9.361   8.605   4.612
41219SOL     OW25553   7.005   6.090   2.118
41219SOL    HW125554   6.937   6.023   2.119
41219SOL    HW225555   7.086   6.042   2.104
41220SOL     OW25556   3.058   1.438   0.462
41220SOL    HW125557   3.021   1.515   0.419
41220SOL    HW225558   3.150   1.460   0.478
41221SOL     OW25559  13.298   1.940   6.558
41221SOL    HW125560  13.388   1.933   6.527
41221SOL    HW225561  13.250   1.975   6.483
41222SOL     OW25562   9.964  11.229   9.490
41222SOL    HW125563  10.056  11.250   9.506
41222SOL    HW225564   9.967  11.141   9.452
41223SOL     OW25565  11.849   8.061   2.545
41223SOL    HW125566  11.894   7.976   2.548
41223SOL    HW225567  11.893   8.113   2.613
41224SOL     OW25568   1.758  12.500   1.432
41224SOL    HW125569   1.793  12.423   1.387
41224SOL    HW225570   1.834  12.535   1.480
41225SOL     OW25571   2.922  11.252   9.453
41225SOL    HW125572   2.989  11.259   9.522
41225SOL    HW225573   2.843  11.224   9.499
41226SOL     OW25574   6.448   2.637   1.491
41226SOL    HW125575   6.393   2.693   1.546
41226SOL    HW225576   6.496   2.699   1.435
41227SOL     OW25577   2.089   9.856   3.953
41227SOL    HW125578   2.117   9.768   3.980
41227SOL    HW225579   2.161   9.913   3.978
41228SOL     OW25580   5.842  14.340   4.127
41228SOL    HW125581   5.903  14.374   4.061
41228SOL    HW225582   5.786  14.279   4.079
41229SOL     OW25583   7.980   8.640   3.658
41229SOL    HW125584   7.977   8.725   3.615
41229SOL    HW225585   8.050   8.592   3.613
41230SOL     OW25586  14.498  13.733  11.933
41230SOL    HW125587  14.490  13.821  11.969
41230SOL    HW225588  14.408  13.708  11.910
41231SOL     OW25589   3.647   0.790   0.706
41231SOL    HW125590   3.600   0.743   0.637
41231SOL    HW225591   3.595   0.777   0.785
41232SOL     OW25592   3.981   8.189   4.907
41232SOL    HW125593   3.998   8.210   4.999
41232SOL    HW225594   3.885   8.194   4.899
41233SOL     OW25595   7.515   4.181   9.091
41233SOL    HW125596   7.536   4.105   9.146
41233SOL    HW225597   7.600   4.218   9.068
41234SOL     OW25598   5.938  13.984   9.544
41234SOL    HW125599   5.867  14.011   9.486
41234SOL    HW225600   5.898  13.980   9.630
41235SOL     OW25601  11.469  11.503  14.401
41235SOL    HW125602  11.559  11.526  14.426
41235SOL    HW225603  11.430  11.586  14.374
41236SOL     OW25604  10.913   2.398   8.846
41236SOL    HW125605  10.972   2.420   8.919
41236SOL    HW225606  10.953   2.438   8.769
41237SOL     OW25607   9.545   6.596   6.693
41237SOL    HW125608   9.586   6.568   6.611
41237SOL    HW225609   9.520   6.687   6.677
41238SOL     OW25610  10.239   5.275   8.456
41238SOL    HW125611  10.191   5.355   8.476
41238SOL    HW225612  10.173   5.206   8.459
41239SOL     OW25613  13.420  10.195  13.807
41239SOL    HW125614  13.461  10.117  13.771
41239SOL    HW225615  13.434  10.188  13.902
41240SOL     OW25616   6.693  10.855   6.685
41240SOL    HW125617   6.665  10.914   6.755
41240SOL    HW225618   6.691  10.768   6.724
41241SOL     OW25619   6.339   7.926  14.196
41241SOL    HW125620   6.292   7.899  14.275
41241SOL    HW225621   6.272   7.926  14.127
41242SOL     OW25622   2.578   7.054   0.645
41242SOL    HW125623   2.518   7.077   0.716
41242SOL    HW225624   2.577   7.130   0.587
41243SOL     OW25625   5.583   5.725   2.344
41243SOL    HW125626   5.571   5.817   2.318
41243SOL    HW225627   5.627   5.684   2.270
41244SOL     OW25628   3.672  14.845  10.816
41244SOL    HW125629   3.731   0.034  10.786
41244SOL    HW225630   3.585  14.875  10.792
41245SOL     OW25631   6.972  14.429   4.994
41245SOL    HW125632   6.971  14.485   5.071
41245SOL    HW225633   7.020  14.351   5.022
41246SOL     OW25634   7.435   3.503   4.562
41246SOL    HW125635   7.485   3.426   4.591
41246SOL    HW225636   7.373   3.468   4.499
41247SOL     OW25637   6.510  14.232   3.033
41247SOL    HW125638   6.416  14.232   3.014
41247SOL    HW225639   6.551  14.260   2.952
41248SOL     OW25640  14.532  10.851   5.763
41248SOL    HW125641  14.554  10.818   5.676
41248SOL    HW225642  14.563  10.783   5.822
41249SOL     OW25643   0.469   9.538   3.930
41249SOL    HW125644   0.420   9.487   3.995
41249SOL    HW225645   0.496   9.475   3.864
41250SOL     OW25646   4.076   2.480  12.394
41250SOL    HW125647   4.070   2.554  12.334
41250SOL    HW225648   3.998   2.428  12.376
41251SOL     OW25649   0.368  10.335   2.158
41251SOL    HW125650   0.305  10.268   2.183
41251SOL    HW225651   0.454  10.294   2.171
41252SOL     OW25652   0.053   1.376  11.975
41252SOL    HW125653   0.064   1.413  12.063
41252SOL    HW225654  14.843   1.343  11.974
41253SOL     OW25655   4.591  14.379   0.942
41253SOL    HW125656   4.555  14.373   1.030
41253SOL    HW225657   4.630  14.466   0.938
41254SOL     OW25658   5.651  10.703   2.012
41254SOL    HW125659   5.702  10.757   2.073
41254SOL    HW225660   5.687  10.615   2.023
41255SOL     OW25661   6.929   7.558   1.858
41255SOL    HW125662   6.898   7.629   1.914
41255SOL    HW225663   6.970   7.495   1.919
41256SOL     OW25664   0.555  10.999   4.327
41256SOL    HW125665   0.511  10.938   4.268
41256SOL    HW225666   0.490  11.067   4.344
41257SOL     OW25667   4.719  10.726   6.306
41257SOL    HW125668   4.796  10.670   6.297
41257SOL    HW225669   4.746  10.809   6.266
41258SOL     OW25670   9.318   9.574   9.771
41258SOL    HW125671   9.406   9.553   9.801
41258SOL    HW225672   9.264   9.500   9.798
41259SOL     OW25673  13.362  10.287  12.350
41259SOL    HW125674  13.324  10.203  12.323
41259SOL    HW225675  13.398  10.324  12.270
41260SOL     OW25676   9.194   5.081  13.725
41260SOL    HW125677   9.188   4.999  13.677
41260SOL    HW225678   9.186   5.057  13.817
41261SOL     OW25679   2.099  13.277   1.440
41261SOL    HW125680   2.153  13.201   1.462
41261SOL    HW225681   2.095  13.327   1.522
41262SOL     OW25682   9.268   0.783  11.312
41262SOL    HW125683   9.240   0.694  11.290
41262SOL    HW225684   9.234   0.838  11.242
41263SOL     OW25685   9.064   8.458  11.785
41263SOL    HW125686   9.022   8.482  11.867
41263SOL    HW225687   9.141   8.514  11.780
41264SOL     OW25688   9.816   5.427  13.177
41264SOL    HW125689   9.755   5.500  13.185
41264SOL    HW225690   9.761   5.353  13.150
41265SOL     OW25691   7.555  13.474  12.580
41265SOL    HW125692   7.573  13.544  12.643
41265SOL    HW225693   7.573  13.394  12.629
41266SOL     OW25694   8.618   1.854   8.484
41266SOL    HW125695   8.675   1.927   8.507
41266SOL    HW225696   8.635   1.838   8.391
41267SOL     OW25697  12.695   0.846   5.014
41267SOL    HW125698  12.665   0.883   5.096
41267SOL    HW225699  12.786   0.821   5.030
41268SOL     OW25700  12.635   0.445  10.700
41268SOL    HW125701  12.663   0.391  10.626
41268SOL    HW225702  12.716   0.480  10.736
41269SOL     OW25703   1.911  11.904   5.778
41269SOL    HW125704   1.990  11.893   5.726
41269SOL    HW225705   1.923  11.987   5.824
41270SOL     OW25706   7.660   3.058   1.263
41270SOL    HW125707   7.571   3.028   1.240
41270SOL    HW225708   7.652   3.090   1.352
41271SOL     OW25709   6.466  10.859  13.305
41271SOL    HW125710   6.523  10.829  13.235
41271SOL    HW225711   6.465  10.954  13.297
41272SOL     OW25712   3.416  10.946   8.651
41272SOL    HW125713   3.470  10.867   8.651
41272SOL    HW225714   3.419  10.977   8.560
41273SOL     OW25715  10.785   5.503   6.044
41273SOL    HW125716  10.853   5.571   6.044
41273SOL    HW225717  10.781   5.473   6.135
41274SOL     OW25718  13.286  12.567   4.705
41274SOL    HW125719  13.309  12.644   4.757
41274SOL    HW225720  13.220  12.598   4.644
41275SOL     OW25721   3.901   1.991   8.913
41275SOL    HW125722   3.892   1.946   8.829
41275SOL    HW225723   3.984   2.039   8.906
41276SOL     OW25724  10.085  13.137   0.515
41276SOL    HW125725  10.083  13.100   0.604
41276SOL    HW225726  10.128  13.222   0.525
41277SOL     OW25727  10.638  12.002   3.919
41277SOL    HW125728  10.658  12.079   3.866
41277SOL    HW225729  10.611  11.936   3.856
41278SOL     OW25730  12.507   2.215   9.850
41278SOL    HW125731  12.426   2.251   9.813
41278SOL    HW225732  12.568   2.216   9.776
41279SOL     OW25733   2.818  12.499   3.681
41279SOL    HW125734   2.900  12.536   3.648
41279SOL    HW225735   2.806  12.540   3.767
41280SOL     OW25736   1.419   7.965  13.636
41280SOL    HW125737   1.391   7.988  13.725
41280SOL    HW225738   1.436   8.049  13.594
41281SOL     OW25739   3.705   6.565  12.261
41281SOL    HW125740   3.693   6.605  12.176
41281SOL    HW225741   3.731   6.474  12.242
41282SOL     OW25742   0.740   2.999   7.195
41282SOL    HW125743   0.772   3.088   7.209
41282SOL    HW225744   0.647   3.003   7.220
41283SOL     OW25745   2.862   3.777  10.589
41283SOL    HW125746   2.792   3.799  10.528
41283SOL    HW225747   2.876   3.683  10.578
41284SOL     OW25748   6.020   5.300   3.030
41284SOL    HW125749   6.072   5.357   3.087
41284SOL    HW225750   6.065   5.303   2.946
41285SOL     OW25751   1.390   8.164   2.140
41285SOL    HW125752   1.337   8.242   2.153
41285SOL    HW225753   1.388   8.119   2.224
41286SOL     OW25754   1.017  12.054  10.881
41286SOL    HW125755   0.943  12.040  10.939
41286SOL    HW225756   1.087  11.999  10.916
41287SOL     OW25757  12.227   7.351   6.312
41287SOL    HW125758  12.138   7.338   6.346
41287SOL    HW225759  12.255   7.264   6.284
41288SOL     OW25760   4.169   9.945   0.148
41288SOL    HW125761   4.135   9.979   0.065
41288SOL    HW225762   4.150   9.851   0.144
41289SOL     OW25763   7.615   9.967  14.665
41289SOL    HW125764   7.620   9.950  14.571
41289SOL    HW225765   7.589  10.059  14.672
41290SOL     OW25766   5.496   6.659   1.955
41290SOL    HW125767   5.439   6.735   1.965
41290SOL    HW225768   5.462   6.613   1.878
41291SOL     OW25769  10.866   4.149  10.449
41291SOL    HW125770  10.773   4.137  10.469
41291SOL    HW225771  10.905   4.173  10.534
41292SOL     OW25772   9.006   1.244  14.238
41292SOL    HW125773   9.008   1.340  14.240
41292SOL    HW225774   8.915   1.221  14.258
41293SOL     OW25775   4.653   0.766   6.861
41293SOL    HW125776   4.587   0.822   6.903
41293SOL    HW225777   4.731   0.776   6.916
41294SOL     OW25778   1.646  13.501   4.749
41294SOL    HW125779   1.607  13.582   4.717
41294SOL    HW225780   1.577  13.459   4.801
41295SOL     OW25781   2.068  13.396  10.242
41295SOL    HW125782   1.976  13.371  10.232
41295SOL    HW225783   2.066  13.483  10.283
41296SOL     OW25784   8.151   4.259  13.216
41296SOL    HW125785   8.083   4.241  13.282
41296SOL    HW225786   8.156   4.179  13.164
41297SOL     OW25787  13.507   7.768   5.088
41297SOL    HW125788  13.416   7.793   5.102
41297SOL    HW225789  13.532   7.721   5.167
41298SOL     OW25790  13.546   1.990   1.740
41298SOL    HW125791  13.460   2.021   1.768
41298SOL    HW225792  13.560   2.031   1.655
41299SOL     OW25793   3.731   3.025   1.363
41299SOL    HW125794   3.656   2.968   1.382
41299SOL    HW225795   3.694   3.114   1.364
41300SOL     OW25796   4.588  13.984   4.082
41300SOL    HW125797   4.503  13.942   4.077
41300SOL    HW225798   4.569  14.075   4.106
41301SOL     OW25799  11.450   1.248   4.366
41301SOL    HW125800  11.393   1.206   4.430
41301SOL    HW225801  11.502   1.177   4.329
41302SOL     OW25802  14.570  13.157   2.177
41302SOL    HW125803  14.619  13.117   2.104
41302SOL    HW225804  14.515  13.223   2.135
41303SOL     OW25805  12.890   3.004   7.790
41303SOL    HW125806  12.964   3.034   7.843
41303SOL    HW225807  12.913   2.915   7.765
41304SOL     OW25808  11.319   8.136  13.156
41304SOL    HW125809  11.338   8.203  13.091
41304SOL    HW225810  11.261   8.179  13.218
41305SOL     OW25811  12.811   8.483   9.456
41305SOL    HW125812  12.775   8.453   9.539
41305SOL    HW225813  12.738   8.528   9.413
41306SOL     OW25814  10.761  14.173   3.359
41306SOL    HW125815  10.732  14.249   3.410
41306SOL    HW225816  10.851  14.193   3.335
41307SOL     OW25817   7.867   3.967   8.503
41307SOL    HW125818   7.902   4.006   8.583
41307SOL    HW225819   7.835   4.041   8.452
41308SOL     OW25820   9.504   8.498  12.784
41308SOL    HW125821   9.564   8.570  12.803
41308SOL    HW225822   9.450   8.529  12.712
41309SOL     OW25823   0.424   7.080   0.626
41309SOL    HW125824   0.450   7.127   0.546
41309SOL    HW225825   0.499   7.088   0.684
41310SOL     OW25826   5.843  14.190   1.151
41310SOL    HW125827   5.849  14.099   1.123
41310SOL    HW225828   5.885  14.240   1.081
41311SOL     OW25829   5.337   7.986   8.071
41311SOL    HW125830   5.310   8.052   8.007
41311SOL    HW225831   5.280   8.001   8.147
41312SOL     OW25832   0.830  12.466   9.892
41312SOL    HW125833   0.884  12.390   9.873
41312SOL    HW225834   0.867  12.503   9.972
41313SOL     OW25835   8.392   9.297   1.724
41313SOL    HW125836   8.316   9.355   1.732
41313SOL    HW225837   8.363   9.214   1.761
41314SOL     OW25838  12.259   7.253  12.837
41314SOL    HW125839  12.216   7.246  12.752
41314SOL    HW225840  12.269   7.163  12.867
41315SOL     OW25841  12.173  10.386   4.785
41315SOL    HW125842  12.159  10.292   4.790
41315SOL    HW225843  12.125  10.413   4.707
41316SOL     OW25844  13.948   2.403   7.971
41316SOL    HW125845  13.964   2.349   8.048
41316SOL    HW225846  13.993   2.356   7.900
41317SOL     OW25847   3.607   7.707   4.490
41317SOL    HW125848   3.595   7.644   4.561
41317SOL    HW225849   3.688   7.680   4.448
41318SOL     OW25850  10.167  11.545   0.232
41318SOL    HW125851  10.220  11.491   0.290
41318SOL    HW225852  10.168  11.632   0.271
41319SOL     OW25853  12.627   9.413   3.181
41319SOL    HW125854  12.648   9.429   3.273
41319SOL    HW225855  12.574   9.333   3.181
41320SOL     OW25856   4.723  12.119   6.279
41320SOL    HW125857   4.688  12.108   6.190
41320SOL    HW225858   4.688  12.203   6.308
41321SOL     OW25859  14.645  10.113  14.106
41321SOL    HW125860  14.667  10.041  14.165
41321SOL    HW225861  14.576  10.079  14.050
41322SOL     OW25862   7.373  13.050  11.331
41322SOL    HW125863   7.291  13.014  11.296
41322SOL    HW225864   7.373  13.141  11.304
41323SOL     OW25865  12.786   9.289   0.020
41323SOL    HW125866  12.692   9.304   0.016
41323SOL    HW225867  12.798   9.204  14.858
41324SOL     OW25868  12.281  13.355  11.093
41324SOL    HW125869  12.361  13.318  11.056
41324SOL    HW225870  12.262  13.300  11.170
41325SOL     OW25871   8.831   0.146   4.988
41325SOL    HW125872   8.922   0.168   4.965
41325SOL    HW225873   8.791   0.231   5.007
41326SOL     OW25874   4.037   1.565  14.042
41326SOL    HW125875   4.033   1.651  14.084
41326SOL    HW225876   4.019   1.582  13.949
41327SOL     OW25877  13.100   2.139   6.384
41327SOL    HW125878  13.097   2.186   6.467
41327SOL    HW225879  13.022   2.083   6.386
41328SOL     OW25880   0.299   3.070   9.006
41328SOL    HW125881   0.248   3.114   9.073
41328SOL    HW225882   0.242   3.066   8.930
41329SOL     OW25883   8.912   4.392  11.949
41329SOL    HW125884   8.819   4.388  11.930
41329SOL    HW225885   8.938   4.481  11.924
41330SOL     OW25886   4.688  11.757   3.459
41330SOL    HW125887   4.726  11.843   3.479
41330SOL    HW225888   4.760  11.706   3.425
41331SOL     OW25889   6.751   0.625   0.440
41331SOL    HW125890   6.772   0.717   0.458
41331SOL    HW225891   6.722   0.591   0.524
41332SOL     OW25892   4.010   1.157   9.545
41332SOL    HW125893   3.955   1.235   9.555
41332SOL    HW225894   4.006   1.138   9.451
41333SOL     OW25895   7.857   1.349   7.127
41333SOL    HW125896   7.938   1.344   7.077
41333SOL    HW225897   7.862   1.277   7.190
41334SOL     OW25898   8.617  13.888   0.752
41334SOL    HW125899   8.539  13.851   0.711
41334SOL    HW225900   8.642  13.824   0.818
41335SOL     OW25901  13.639   2.244  12.149
41335SOL    HW125902  13.698   2.277  12.218
41335SOL    HW225903  13.552   2.253  12.187
41336SOL     OW25904  11.714  12.854  12.077
41336SOL    HW125905  11.656  12.855  12.154
41336SOL    HW225906  11.658  12.880  12.004
41337SOL     OW25907   5.045  10.984  11.912
41337SOL    HW125908   5.103  10.958  11.983
41337SOL    HW225909   5.009  11.068  11.940
41338SOL     OW25910  11.438   4.629  11.284
41338SOL    HW125911  11.485   4.605  11.365
41338SOL    HW225912  11.506   4.669  11.229
41339SOL     OW25913   8.040   6.326   7.159
41339SOL    HW125914   7.951   6.307   7.188
41339SOL    HW225915   8.068   6.399   7.213
41340SOL     OW25916  10.729   1.705  13.574
41340SOL    HW125917  10.784   1.718  13.496
41340SOL    HW225918  10.641   1.689  13.540
41341SOL     OW25919   2.593  14.270   1.428
41341SOL    HW125920   2.585  14.286   1.334
41341SOL    HW225921   2.511  14.303   1.465
41342SOL     OW25922   4.774  14.872   9.439
41342SOL    HW125923   4.687   0.031   9.449
41342SOL    HW225924   4.801  14.852   9.528
41343SOL     OW25925   0.943   3.474  10.300
41343SOL    HW125926   0.910   3.481  10.390
41343SOL    HW225927   1.008   3.403  10.303
41344SOL     OW25928  11.844  11.341   9.353
41344SOL    HW125929  11.831  11.403   9.424
41344SOL    HW225930  11.922  11.372   9.307
41345SOL     OW25931  12.225  10.335   6.775
41345SOL    HW125932  12.222  10.396   6.849
41345SOL    HW225933  12.258  10.387   6.702
41346SOL     OW25934   4.488   1.256   1.203
41346SOL    HW125935   4.478   1.350   1.220
41346SOL    HW225936   4.581   1.239   1.216
41347SOL     OW25937  11.857  10.295   8.098
41347SOL    HW125938  11.830  10.207   8.123
41347SOL    HW225939  11.911  10.283   8.020
41348SOL     OW25940  10.885  11.821   4.460
41348SOL    HW125941  10.952  11.888   4.449
41348SOL    HW225942  10.932  11.747   4.498
41349SOL     OW25943   0.605   8.497  10.791
41349SOL    HW125944   0.638   8.426  10.846
41349SOL    HW225945   0.510   8.491  10.798
41350SOL     OW25946  10.517   4.353  13.332
41350SOL    HW125947  10.565   4.276  13.301
41350SOL    HW225948  10.448   4.366  13.268
41351SOL     OW25949   8.721   6.446   7.076
41351SOL    HW125950   8.651   6.401   7.123
41351SOL    HW225951   8.791   6.382   7.070
41352SOL     OW25952  14.525   1.316   8.077
41352SOL    HW125953  14.532   1.377   8.004
41352SOL    HW225954  14.461   1.358   8.136
41353SOL     OW25955  10.195   0.706   0.430
41353SOL    HW125956  10.136   0.778   0.450
41353SOL    HW225957  10.283   0.743   0.441
41354SOL     OW25958   3.152  10.252   4.570
41354SOL    HW125959   3.206  10.176   4.548
41354SOL    HW225960   3.205  10.327   4.546
41355SOL     OW25961   4.313   3.043   3.849
41355SOL    HW125962   4.257   3.102   3.799
41355SOL    HW225963   4.280   3.050   3.939
41356SOL     OW25964   8.979   1.035  13.726
41356SOL    HW125965   8.927   1.111  13.702
41356SOL    HW225966   8.975   0.976  13.651
41357SOL     OW25967   3.920   7.272   2.218
41357SOL    HW125968   3.925   7.186   2.259
41357SOL    HW225969   3.913   7.333   2.293
41358SOL     OW25970  12.623  10.343  14.119
41358SOL    HW125971  12.580  10.384  14.044
41358SOL    HW225972  12.716  10.354  14.103
41359SOL     OW25973  14.523   6.000   3.486
41359SOL    HW125974  14.557   6.043   3.408
41359SOL    HW225975  14.522   6.069   3.553
41360SOL     OW25976   5.806   3.036   9.382
41360SOL    HW125977   5.863   3.109   9.407
41360SOL    HW225978   5.739   3.034   9.450
41361SOL     OW25979  12.165   2.947  12.873
41361SOL    HW125980  12.218   3.026  12.860
41361SOL    HW225981  12.119   2.935  12.790
41362SOL     OW25982   7.090  12.901   9.592
41362SOL    HW125983   7.023  12.848   9.548
41362SOL    HW225984   7.168  12.846   9.594
41363SOL     OW25985  13.936   4.559   6.875
41363SOL    HW125986  13.918   4.568   6.969
41363SOL    HW225987  13.888   4.480   6.849
41364SOL     OW25988  12.058   7.332   9.701
41364SOL    HW125989  11.967   7.355   9.720
41364SOL    HW225990  12.059   7.313   9.608
41365SOL     OW25991   4.118  14.452  12.264
41365SOL    HW125992   4.023  14.456  12.250
41365SOL    HW225993   4.155  14.489  12.185
41366SOL     OW25994   0.510   1.653   3.455
41366SOL    HW125995   0.588   1.597   3.464
41366SOL    HW225996   0.516   1.715   3.528
41367SOL     OW25997   0.862   4.627   6.207
41367SOL    HW125998   0.807   4.685   6.155
41367SOL    HW225999   0.807   4.605   6.283
41368SOL     OW26000  11.858   1.119   7.660
41368SOL    HW126001  11.845   1.146   7.750
41368SOL    HW226002  11.808   1.182   7.608
41369SOL     OW26003   5.157   5.690  14.362
41369SOL    HW126004   5.099   5.630  14.315
41369SOL    HW226005   5.099   5.748  14.411
41370SOL     OW26006   4.301   5.522   3.860
41370SOL    HW126007   4.381   5.470   3.866
41370SOL    HW226008   4.301   5.575   3.939
41371SOL     OW26009   6.231   3.787  11.455
41371SOL    HW126010   6.153   3.753  11.499
41371SOL    HW226011   6.229   3.881  11.473
41372SOL     OW26012   0.206   1.315  11.759
41372SOL    HW126013   0.287   1.367  11.766
41372SOL    HW226014   0.153   1.345  11.832
41373SOL     OW26015  14.675   1.328  11.720
41373SOL    HW126016  14.607   1.394  11.734
41373SOL    HW226017  14.685   1.286  11.806
41374SOL     OW26018   2.760  14.577   5.262
41374SOL    HW126019   2.845  14.542   5.289
41374SOL    HW226020   2.761  14.668   5.290
41375SOL     OW26021   1.723  12.697  10.071
41375SOL    HW126022   1.782  12.746  10.128
41375SOL    HW226023   1.678  12.636  10.130
41376SOL     OW26024   5.227   0.058  11.697
41376SOL    HW126025   5.208   0.054  11.790
41376SOL    HW226026   5.237   0.152  11.678
41377SOL     OW26027  10.998  14.179   5.337
41377SOL    HW126028  10.989  14.214   5.248
41377SOL    HW226029  10.913  14.140   5.356
41378SOL     OW26030   2.791  10.310  11.088
41378SOL    HW126031   2.886  10.320  11.093
41378SOL    HW226032   2.772  10.311  10.994
41379SOL     OW26033   3.214   7.930   7.894
41379SOL    HW126034   3.207   8.000   7.959
41379SOL    HW226035   3.303   7.897   7.904
41380SOL     OW26036   1.564   7.293   7.304
41380SOL    HW126037   1.531   7.263   7.220
41380SOL    HW226038   1.656   7.268   7.304
41381SOL     OW26039   7.241   5.105   8.492
41381SOL    HW126040   7.305   5.167   8.527
41381SOL    HW226041   7.157   5.150   8.499
41382SOL     OW26042  11.765   2.715   4.032
41382SOL    HW126043  11.741   2.799   3.994
41382SOL    HW226044  11.832   2.736   4.097
41383SOL     OW26045  12.743   5.292  10.799
41383SOL    HW126046  12.667   5.234  10.797
41383SOL    HW226047  12.746   5.325  10.889
41384SOL     OW26048   8.316   1.230   6.484
41384SOL    HW126049   8.267   1.168   6.537
41384SOL    HW226050   8.408   1.212   6.505
41385SOL     OW26051  10.754   4.813   7.928
41385SOL    HW126052  10.850   4.811   7.937
41385SOL    HW226053  10.735   4.902   7.901
41386SOL     OW26054   3.954   6.213   5.791
41386SOL    HW126055   4.011   6.279   5.830
41386SOL    HW226056   4.013   6.155   5.743
41387SOL     OW26057   5.440   7.381  12.043
41387SOL    HW126058   5.475   7.332  12.117
41387SOL    HW226059   5.478   7.338  11.966
41388SOL     OW26060  14.847  12.379   9.108
41388SOL    HW126061   0.058  12.378   9.078
41388SOL    HW226062  14.844  12.451   9.172
41389SOL     OW26063  13.009   7.430   6.248
41389SOL    HW126064  12.934   7.371   6.246
41389SOL    HW226065  12.975   7.512   6.283
41390SOL     OW26066   1.421   4.873  10.202
41390SOL    HW126067   1.415   4.780  10.181
41390SOL    HW226068   1.514   4.888  10.221
41391SOL     OW26069  10.511  12.786   4.032
41391SOL    HW126070  10.496  12.814   3.942
41391SOL    HW226071  10.424  12.780   4.070
41392SOL     OW26072  10.122  14.364   7.800
41392SOL    HW126073  10.107  14.335   7.890
41392SOL    HW226074  10.089  14.454   7.799
41393SOL     OW26075   4.680   1.308   4.531
41393SOL    HW126076   4.651   1.295   4.441
41393SOL    HW226077   4.654   1.227   4.576
41394SOL     OW26078   9.168   9.999   1.484
41394SOL    HW126079   9.121   9.922   1.518
41394SOL    HW226080   9.158  10.066   1.551
41395SOL     OW26081   6.468   9.860  11.012
41395SOL    HW126082   6.473   9.869  11.107
41395SOL    HW226083   6.458   9.766  10.997
41396SOL     OW26084  13.199   3.543  13.039
41396SOL    HW126085  13.121   3.496  13.069
41396SOL    HW226086  13.271   3.502  13.087
41397SOL     OW26087   6.544   3.970  10.000
41397SOL    HW126088   6.449   3.970  10.006
41397SOL    HW226089   6.567   4.057   9.968
41398SOL     OW26090  12.086  11.458   4.834
41398SOL    HW126091  11.998  11.490   4.854
41398SOL    HW226092  12.075  11.402   4.757
41399SOL     OW26093   8.506  10.077  12.840
41399SOL    HW126094   8.569  10.062  12.769
41399SOL    HW226095   8.441  10.007  12.830
41400SOL     OW26096   9.131   6.202  13.637
41400SOL    HW126097   9.051   6.197  13.691
41400SOL    HW226098   9.175   6.118  13.651
41401SOL     OW26099  12.633   1.177   1.792
41401SOL    HW126100  12.616   1.253   1.847
41401SOL    HW226101  12.572   1.186   1.719
41402SOL     OW26102   6.184   5.893   7.448
41402SOL    HW126103   6.239   5.965   7.415
41402SOL    HW226104   6.197   5.822   7.385
41403SOL     OW26105  11.362   1.360   3.787
41403SOL    HW126106  11.401   1.387   3.704
41403SOL    HW226107  11.350   1.442   3.836
41404SOL     OW26108   0.958   8.485   5.237
41404SOL    HW126109   1.019   8.549   5.274
41404SOL    HW226110   0.903   8.536   5.178
41405SOL     OW26111  10.180   5.308  14.790
41405SOL    HW126112  10.190   5.224  14.745
41405SOL    HW226113  10.254   5.361  14.760
41406SOL     OW26114   4.181   4.279   0.476
41406SOL    HW126115   4.141   4.194   0.456
41406SOL    HW226116   4.218   4.309   0.393
41407SOL     OW26117  11.445   3.847   1.956
41407SOL    HW126118  11.374   3.892   2.002
41407SOL    HW226119  11.508   3.916   1.936
41408SOL     OW26120  10.270   0.391  13.426
41408SOL    HW126121  10.289   0.299  13.406
41408SOL    HW226122  10.356   0.431  13.440
41409SOL     OW26123   2.984   7.294   1.887
41409SOL    HW126124   3.009   7.385   1.872
41409SOL    HW226125   2.895   7.298   1.922
41410SOL     OW26126   6.331   9.744   6.025
41410SOL    HW126127   6.307   9.797   5.949
41410SOL    HW226128   6.280   9.664   6.016
41411SOL     OW26129   0.448  11.687   0.892
41411SOL    HW126130   0.495  11.688   0.809
41411SOL    HW226131   0.366  11.643   0.872
41412SOL     OW26132   7.169   0.678  10.334
41412SOL    HW126133   7.106   0.715  10.272
41412SOL    HW226134   7.145   0.717  10.419
41413SOL     OW26135   8.257  12.220   7.599
41413SOL    HW126136   8.317  12.177   7.659
41413SOL    HW226137   8.204  12.149   7.563
41414SOL     OW26138   4.002  14.074  12.733
41414SOL    HW126139   4.058  14.142  12.771
41414SOL    HW226140   3.997  14.007  12.801
41415SOL     OW26141   1.546  13.561   6.933
41415SOL    HW126142   1.609  13.589   6.867
41415SOL    HW226143   1.593  13.567   7.016
41416SOL     OW26144   7.031   3.689   3.880
41416SOL    HW126145   6.960   3.728   3.931
41416SOL    HW226146   7.083   3.641   3.944
41417SOL     OW26147  10.423  10.094   9.280
41417SOL    HW126148  10.420  10.175   9.332
41417SOL    HW226149  10.339  10.093   9.234
41418SOL     OW26150  13.009  11.378   6.954
41418SOL    HW126151  13.024  11.465   6.992
41418SOL    HW226152  12.914  11.371   6.948
41419SOL     OW26153   4.601  13.707   7.432
41419SOL    HW126154   4.654  13.784   7.410
41419SOL    HW226155   4.531  13.742   7.487
41420SOL     OW26156   9.420   8.390   8.357
41420SOL    HW126157   9.452   8.477   8.379
41420SOL    HW226158   9.447   8.377   8.266
41421SOL     OW26159   6.281  11.313   6.821
41421SOL    HW126160   6.366  11.300   6.778
41421SOL    HW226161   6.269  11.233   6.873
41422SOL     OW26162   4.611   8.138  11.057
41422SOL    HW126163   4.531   8.087  11.037
41422SOL    HW226164   4.618   8.134  11.152
41423SOL     OW26165   9.835   4.036   5.301
41423SOL    HW126166   9.916   4.080   5.326
41423SOL    HW226167   9.806   3.993   5.382
41424SOL     OW26168   9.357  10.443  13.903
41424SOL    HW126169   9.329  10.369  13.957
41424SOL    HW226170   9.280  10.499  13.897
41425SOL     OW26171   4.545  11.044  11.223
41425SOL    HW126172   4.522  10.995  11.144
41425SOL    HW226173   4.467  11.039  11.278
41426SOL     OW26174  12.624  11.626  14.288
41426SOL    HW126175  12.671  11.658  14.211
41426SOL    HW226176  12.551  11.576  14.252
41427SOL     OW26177   8.256  11.782   7.177
41427SOL    HW126178   8.291  11.855   7.227
41427SOL    HW226179   8.166  11.809   7.156
41428SOL     OW26180   2.515  12.526   9.859
41428SOL    HW126181   2.509  12.594   9.792
41428SOL    HW226182   2.424  12.510   9.885
41429SOL     OW26183   1.646   7.817  14.420
41429SOL    HW126184   1.728   7.777  14.393
41429SOL    HW226185   1.671   7.883  14.485
41430SOL     OW26186   3.979   1.841   8.617
41430SOL    HW126187   3.996   1.790   8.537
41430SOL    HW226188   3.992   1.778   8.688
41431SOL     OW26189   7.169   0.814   4.905
41431SOL    HW126190   7.085   0.845   4.941
41431SOL    HW226191   7.148   0.727   4.869
41432SOL     OW26192   8.274   6.485  11.135
41432SOL    HW126193   8.308   6.555  11.079
41432SOL    HW226194   8.309   6.404  11.097
41433SOL     OW26195   9.894   0.251  14.183
41433SOL    HW126196   9.915   0.301  14.104
41433SOL    HW226197   9.854   0.170  14.151
41434SOL     OW26198  12.561  12.032   2.434
41434SOL    HW126199  12.551  12.032   2.529
41434SOL    HW226200  12.527  12.116   2.406
41435SOL     OW26201  10.709   1.238   9.028
41435SOL    HW126202  10.788   1.240   8.973
41435SOL    HW226203  10.637   1.243   8.966
41436SOL     OW26204  13.477   1.457   7.056
41436SOL    HW126205  13.548   1.451   7.120
41436SOL    HW226206  13.456   1.550   7.052
41437SOL     OW26207   5.511   9.694   4.258
41437SOL    HW126208   5.441   9.705   4.194
41437SOL    HW226209   5.549   9.609   4.238
41438SOL     OW26210   7.504   5.906   5.573
41438SOL    HW126211   7.565   5.916   5.646
41438SOL    HW226212   7.422   5.943   5.604
41439SOL     OW26213  12.301   2.996  12.250
41439SOL    HW126214  12.347   3.025  12.172
41439SOL    HW226215  12.211   2.982  12.221
41440SOL     OW26216   7.991   1.487  11.758
41440SOL    HW126217   7.952   1.569  11.729
41440SOL    HW226218   7.917   1.435  11.789
41441SOL     OW26219  10.689   3.777  13.960
41441SOL    HW126220  10.605   3.731  13.962
41441SOL    HW226221  10.750   3.719  14.006
41442SOL     OW26222   7.622   2.125   5.443
41442SOL    HW126223   7.614   2.034   5.414
41442SOL    HW226224   7.693   2.161   5.390
41443SOL     OW26225  13.729   2.463  11.987
41443SOL    HW126226  13.716   2.385  12.041
41443SOL    HW226227  13.675   2.449  11.910
41444SOL     OW26228  13.204   1.944   8.284
41444SOL    HW126229  13.232   1.863   8.241
41444SOL    HW226230  13.200   1.922   8.377
41445SOL     OW26231   7.796  14.034   8.031
41445SOL    HW126232   7.790  14.129   8.032
41445SOL    HW226233   7.723  14.005   8.087
41446SOL     OW26234   3.833   0.805   2.984
41446SOL    HW126235   3.832   0.866   3.058
41446SOL    HW226236   3.924   0.803   2.955
41447SOL     OW26237   1.879   7.603  10.717
41447SOL    HW126238   1.863   7.671  10.781
41447SOL    HW226239   1.863   7.521  10.764
41448SOL     OW26240  12.751   8.584  14.509
41448SOL    HW126241  12.732   8.538  14.427
41448SOL    HW226242  12.671   8.633  14.528
41449SOL     OW26243   3.248   1.504   3.526
41449SOL    HW126244   3.333   1.466   3.504
41449SOL    HW226245   3.270   1.593   3.556
41450SOL     OW26246   3.098   6.303  13.102
41450SOL    HW126247   3.121   6.270  13.015
41450SOL    HW226248   3.086   6.224  13.155
41451SOL     OW26249   3.618  11.210  13.967
41451SOL    HW126250   3.671  11.201  13.888
41451SOL    HW226251   3.530  11.183  13.941
41452SOL     OW26252   5.488   2.636   2.388
41452SOL    HW126253   5.412   2.665   2.437
41452SOL    HW226254   5.513   2.712   2.335
41453SOL     OW26255   8.222  11.759  11.188
41453SOL    HW126256   8.169  11.839  11.192
41453SOL    HW226257   8.304  11.787  11.146
41454SOL     OW26258   2.180   0.128  10.378
41454SOL    HW126259   2.193   0.117  10.284
41454SOL    HW226260   2.207   0.044  10.416
41455SOL     OW26261  10.374   1.714   4.934
41455SOL    HW126262  10.458   1.675   4.910
41455SOL    HW226263  10.310   1.644   4.922
41456SOL     OW26264   2.495  13.809  10.014
41456SOL    HW126265   2.556  13.818   9.941
41456SOL    HW226266   2.409  13.820   9.974
41457SOL     OW26267   7.535   0.969   2.817
41457SOL    HW126268   7.565   0.977   2.727
41457SOL    HW226269   7.553   1.055   2.856
41458SOL     OW26270  13.368  12.527  13.510
41458SOL    HW126271  13.340  12.606  13.555
41458SOL    HW226272  13.422  12.559  13.437
41459SOL     OW26273  14.141   0.401  13.570
41459SOL    HW126274  14.113   0.310  13.555
41459SOL    HW226275  14.093   0.452  13.505
41460SOL     OW26276   3.407   6.889   1.963
41460SOL    HW126277   3.460   6.811   1.943
41460SOL    HW226278   3.466   6.944   2.015
41461SOL     OW26279   2.539   4.586  12.699
41461SOL    HW126280   2.471   4.645  12.732
41461SOL    HW226281   2.592   4.641  12.641
41462SOL     OW26282   3.205   2.363   1.870
41462SOL    HW126283   3.159   2.353   1.786
41462SOL    HW226284   3.295   2.340   1.850
41463SOL     OW26285   5.740  12.393   7.771
41463SOL    HW126286   5.818  12.359   7.728
41463SOL    HW226287   5.674  12.399   7.701
41464SOL     OW26288  12.011   3.486   2.807
41464SOL    HW126289  11.917   3.492   2.793
41464SOL    HW226290  12.024   3.522   2.895
41465SOL     OW26291  12.651  12.430  11.558
41465SOL    HW126292  12.670  12.517  11.525
41465SOL    HW226293  12.556  12.421  11.551
41466SOL     OW26294   4.882   8.778   6.861
41466SOL    HW126295   4.945   8.719   6.819
41466SOL    HW226296   4.799   8.731   6.860
41467SOL     OW26297   7.460  12.697   1.303
41467SOL    HW126298   7.446  12.610   1.338
41467SOL    HW226299   7.430  12.756   1.371
41468SOL     OW26300  14.307   9.499   2.224
41468SOL    HW126301  14.396   9.531   2.238
41468SOL    HW226302  14.256   9.540   2.294
41469SOL     OW26303   3.242   3.335  12.303
41469SOL    HW126304   3.321   3.359  12.255
41469SOL    HW226305   3.274   3.313  12.391
41470SOL     OW26306   7.287   3.938   4.228
41470SOL    HW126307   7.371   3.939   4.183
41470SOL    HW226308   7.223   3.962   4.161
41471SOL     OW26309   2.457   5.645   1.695
41471SOL    HW126310   2.505   5.564   1.679
41471SOL    HW226311   2.526   5.712   1.703
41472SOL     OW26312  10.518  11.573   8.752
41472SOL    HW126313  10.453  11.605   8.815
41472SOL    HW226314  10.475  11.499   8.708
41473SOL     OW26315   6.570  10.777  11.772
41473SOL    HW126316   6.578  10.759  11.866
41473SOL    HW226317   6.544  10.869  11.768
41474SOL     OW26318   3.194   8.166  14.513
41474SOL    HW126319   3.220   8.103  14.580
41474SOL    HW226320   3.110   8.200  14.543
41475SOL     OW26321   0.539   7.558   4.760
41475SOL    HW126322   0.546   7.633   4.702
41475SOL    HW226323   0.577   7.587   4.843
41476SOL     OW26324  14.282   7.589   0.181
41476SOL    HW126325  14.370   7.555   0.198
41476SOL    HW226326  14.261   7.640   0.260
41477SOL     OW26327   0.204   5.152   1.452
41477SOL    HW126328   0.272   5.123   1.512
41477SOL    HW226329   0.246   5.149   1.365
41478SOL     OW26330   9.362   0.391  12.992
41478SOL    HW126331   9.285   0.447  12.979
41478SOL    HW226332   9.436   0.451  12.989
41479SOL     OW26333   6.064   6.929   0.960
41479SOL    HW126334   5.999   6.999   0.968
41479SOL    HW226335   6.028   6.857   1.012
41480SOL     OW26336   7.286   6.083   4.788
41480SOL    HW126337   7.303   5.988   4.791
41480SOL    HW226338   7.191   6.090   4.785
41481SOL     OW26339   2.523   2.338   8.638
41481SOL    HW126340   2.538   2.431   8.655
41481SOL    HW226341   2.442   2.317   8.685
41482SOL     OW26342   1.254   5.477   1.364
41482SOL    HW126343   1.194   5.475   1.439
41482SOL    HW226344   1.199   5.505   1.291
41483SOL     OW26345  12.582  14.228   3.409
41483SOL    HW126346  12.608  14.145   3.369
41483SOL    HW226347  12.577  14.209   3.503
41484SOL     OW26348  11.167   2.024   9.261
41484SOL    HW126349  11.154   1.954   9.325
41484SOL    HW226350  11.085   2.074   9.263
41485SOL     OW26351   4.134   1.509   9.384
41485SOL    HW126352   4.222   1.501   9.347
41485SOL    HW226353   4.149   1.532   9.476
41486SOL     OW26354   5.260   7.336   9.000
41486SOL    HW126355   5.264   7.374   8.912
41486SOL    HW226356   5.351   7.324   9.026
41487SOL     OW26357   5.913   1.307  11.387
41487SOL    HW126358   5.926   1.229  11.334
41487SOL    HW226359   5.837   1.286  11.442
41488SOL     OW26360  13.305   3.214   0.160
41488SOL    HW126361  13.273   3.134   0.202
41488SOL    HW226362  13.232   3.275   0.167
41489SOL     OW26363   8.020   6.393  12.892
41489SOL    HW126364   8.086   6.326  12.872
41489SOL    HW226365   7.973   6.405  12.810
41490SOL     OW26366   1.992   3.150   6.881
41490SOL    HW126367   2.005   3.195   6.965
41490SOL    HW226368   2.018   3.213   6.815
41491SOL     OW26369   8.423   7.354   8.780
41491SOL    HW126370   8.416   7.360   8.876
41491SOL    HW226371   8.475   7.430   8.756
41492SOL     OW26372  14.626   4.505   9.412
41492SOL    HW126373  14.612   4.411   9.425
41492SOL    HW226374  14.575   4.526   9.334
41493SOL     OW26375   4.738   3.829   8.159
41493SOL    HW126376   4.691   3.830   8.075
41493SOL    HW226377   4.678   3.870   8.221
41494SOL     OW26378   6.686   3.265  11.312
41494SOL    HW126379   6.592   3.253  11.303
41494SOL    HW226380   6.722   3.241  11.226
41495SOL     OW26381  10.839  12.494   7.657
41495SOL    HW126382  10.916  12.443   7.681
41495SOL    HW226383  10.846  12.505   7.562
41496SOL     OW26384   7.692  14.789   3.932
41496SOL    HW126385   7.671  14.805   4.024
41496SOL    HW226386   7.756  14.718   3.935
41497SOL     OW26387   0.886   2.295   5.737
41497SOL    HW126388   0.824   2.245   5.685
41497SOL    HW226389   0.954   2.322   5.675
41498SOL     OW26390   6.555  12.962  11.688
41498SOL    HW126391   6.638  13.003  11.710
41498SOL    HW226392   6.578  12.871  11.668
41499SOL     OW26393   3.125  14.120   9.666
41499SOL    HW126394   3.131  14.199   9.611
41499SOL    HW226395   3.212  14.112   9.704
41500SOL     OW26396   2.227   8.214   0.132
41500SOL    HW126397   2.257   8.278   0.196
41500SOL    HW226398   2.196   8.265   0.058
41501SOL     OW26399   8.441   3.831   3.837
41501SOL    HW126400   8.374   3.867   3.779
41501SOL    HW226401   8.470   3.905   3.890
41502SOL     OW26402   5.027   4.413   1.826
41502SOL    HW126403   5.017   4.364   1.744
41502SOL    HW226404   5.015   4.504   1.801
41503SOL     OW26405  12.805  14.624  12.279
41503SOL    HW126406  12.746  14.698  12.265
41503SOL    HW226407  12.749  14.556  12.315
41504SOL     OW26408   3.221   5.235   8.887
41504SOL    HW126409   3.220   5.187   8.804
41504SOL    HW226410   3.158   5.306   8.875
41505SOL     OW26411   2.106  14.278   4.932
41505SOL    HW126412   2.131  14.368   4.910
41505SOL    HW226413   2.155  14.258   5.011
41506SOL     OW26414   9.521  11.935   6.517
41506SOL    HW126415   9.446  11.983   6.483
41506SOL    HW226416   9.508  11.845   6.489
41507SOL     OW26417   6.093   2.273  14.289
41507SOL    HW126418   5.999   2.276  14.271
41507SOL    HW226419   6.101   2.299  14.380
41508SOL     OW26420  13.293   7.586   6.423
41508SOL    HW126421  13.325   7.562   6.510
41508SOL    HW226422  13.264   7.504   6.384
41509SOL     OW26423  11.773   7.084   7.632
41509SOL    HW126424  11.747   6.992   7.640
41509SOL    HW226425  11.848   7.093   7.691
41510SOL     OW26426   1.338   3.353  11.684
41510SOL    HW126427   1.373   3.281  11.736
41510SOL    HW226428   1.399   3.361  11.610
41511SOL     OW26429   5.666   8.199   4.337
41511SOL    HW126430   5.619   8.117   4.355
41511SOL    HW226431   5.675   8.201   4.242
41512SOL     OW26432   5.644   1.301   4.036
41512SOL    HW126433   5.678   1.389   4.050
41512SOL    HW226434   5.722   1.245   4.035
41513SOL     OW26435  11.635   1.388   2.286
41513SOL    HW126436  11.697   1.389   2.359
41513SOL    HW226437  11.624   1.480   2.263
41514SOL     OW26438   4.118  13.985   5.703
41514SOL    HW126439   4.043  13.946   5.659
41514SOL    HW226440   4.107  14.079   5.689
41515SOL     OW26441   4.245   4.286   3.615
41515SOL    HW126442   4.283   4.245   3.537
41515SOL    HW226443   4.309   4.352   3.641
41516SOL     OW26444   6.287  11.102   4.711
41516SOL    HW126445   6.195  11.079   4.695
41516SOL    HW226446   6.331  11.017   4.722
41517SOL     OW26447  12.141   1.630   4.679
41517SOL    HW126448  12.074   1.601   4.618
41517SOL    HW226449  12.114   1.718   4.704
41518SOL     OW26450   6.563   2.717   6.743
41518SOL    HW126451   6.479   2.679   6.719
41518SOL    HW226452   6.552   2.746   6.833
41519SOL     OW26453   1.132  13.445  10.329
41519SOL    HW126454   1.193  13.404  10.268
41519SOL    HW226455   1.046  13.435  10.288
41520SOL     OW26456   7.897   0.648  13.800
41520SOL    HW126457   7.931   0.669  13.887
41520SOL    HW226458   7.913   0.727  13.749
41521SOL     OW26459  10.316  14.050   4.458
41521SOL    HW126460  10.378  14.060   4.385
41521SOL    HW226461  10.332  13.961   4.491
41522SOL     OW26462  11.570  12.185  10.135
41522SOL    HW126463  11.627  12.254  10.100
41522SOL    HW226464  11.510  12.165  10.063
41523SOL     OW26465   9.059   1.518   0.521
41523SOL    HW126466   9.087   1.529   0.430
41523SOL    HW226467   9.074   1.425   0.539
41524SOL     OW26468  12.582  12.523   2.169
41524SOL    HW126469  12.618  12.468   2.100
41524SOL    HW226470  12.656  12.576   2.199
41525SOL     OW26471   1.384   2.726   3.694
41525SOL    HW126472   1.341   2.811   3.696
41525SOL    HW226473   1.391   2.700   3.786
41526SOL     OW26474   3.083  11.580  10.750
41526SOL    HW126475   3.011  11.623  10.796
41526SOL    HW226476   3.155  11.580  10.814
41527SOL     OW26477   2.801   5.718   2.493
41527SOL    HW126478   2.884   5.686   2.457
41527SOL    HW226479   2.742   5.643   2.488
41528SOL     OW26480   2.697   3.823   3.972
41528SOL    HW126481   2.677   3.890   3.907
41528SOL    HW226482   2.792   3.830   3.985
41529SOL     OW26483   3.351  13.428   9.839
41529SOL    HW126484   3.259  13.449   9.830
41529SOL    HW226485   3.381  13.482   9.912
41530SOL     OW26486  10.141  10.821   5.535
41530SOL    HW126487  10.201  10.865   5.595
41530SOL    HW226488  10.198  10.774   5.474
41531SOL     OW26489   8.038   7.113  10.376
41531SOL    HW126490   8.030   7.203  10.407
41531SOL    HW226491   7.994   7.060  10.442
41532SOL     OW26492   0.578   4.396   4.277
41532SOL    HW126493   0.494   4.392   4.323
41532SOL    HW226494   0.597   4.490   4.271
41533SOL     OW26495   0.684   8.737   2.044
41533SOL    HW126496   0.645   8.787   2.116
41533SOL    HW226497   0.633   8.656   2.041
41534SOL     OW26498   6.074   5.439   9.112
41534SOL    HW126499   6.013   5.367   9.128
41534SOL    HW226500   6.153   5.416   9.159
41535SOL     OW26501   1.236  12.542   9.971
41535SOL    HW126502   1.200  12.510   9.889
41535SOL    HW226503   1.267  12.631   9.951
41536SOL     OW26504  11.722   2.807   0.242
41536SOL    HW126505  11.685   2.821   0.329
41536SOL    HW226506  11.651   2.825   0.181
41537SOL     OW26507   3.587   3.191  13.991
41537SOL    HW126508   3.597   3.119  13.928
41537SOL    HW226509   3.660   3.179  14.052
41538SOL     OW26510   5.794   2.856  14.282
41538SOL    HW126511   5.806   2.864  14.376
41538SOL    HW226512   5.879   2.880  14.245
41539SOL     OW26513   1.686   9.461   3.217
41539SOL    HW126514   1.618   9.408   3.258
41539SOL    HW226515   1.654   9.551   3.224
41540SOL     OW26516   1.320   1.133  11.066
41540SOL    HW126517   1.385   1.107  11.000
41540SOL    HW226518   1.363   1.203  11.115
41541SOL     OW26519  13.883   6.346   4.568
41541SOL    HW126520  13.872   6.441   4.577
41541SOL    HW226521  13.958   6.336   4.510
41542SOL     OW26522   0.636   0.836  12.994
41542SOL    HW126523   0.561   0.778  12.979
41542SOL    HW226524   0.602   0.924  12.977
41543SOL     OW26525  14.727   5.711   5.238
41543SOL    HW126526  14.763   5.690   5.324
41543SOL    HW226527  14.648   5.762   5.257
41544SOL     OW26528  10.593  11.359   5.173
41544SOL    HW126529  10.511  11.322   5.141
41544SOL    HW226530  10.607  11.436   5.117
41545SOL     OW26531   1.953  11.505   5.093
41545SOL    HW126532   1.878  11.512   5.152
41545SOL    HW226533   1.948  11.415   5.058
41546SOL     OW26534   8.334   6.662   9.547
41546SOL    HW126535   8.399   6.596   9.520
41546SOL    HW226536   8.383   6.744   9.550
41547SOL     OW26537   6.333   2.297   8.066
41547SOL    HW126538   6.323   2.387   8.035
41547SOL    HW226539   6.357   2.306   8.158
41548SOL     OW26540   3.475  11.667   2.080
41548SOL    HW126541   3.448  11.752   2.044
41548SOL    HW226542   3.488  11.684   2.173
41549SOL     OW26543   1.032  12.297   7.997
41549SOL    HW126544   1.026  12.378   7.947
41549SOL    HW226545   1.114  12.257   7.968
41550SOL     OW26546   9.058  12.890  14.574
41550SOL    HW126547   9.057  12.812  14.518
41550SOL    HW226548   9.028  12.859  14.659
41551SOL     OW26549   2.638  13.786   8.198
41551SOL    HW126550   2.669  13.706   8.157
41551SOL    HW226551   2.715  13.822   8.242
41552SOL     OW26552   8.681  11.219  12.636
41552SOL    HW126553   8.655  11.307  12.664
41552SOL    HW226554   8.730  11.234  12.555
41553SOL     OW26555   5.717  11.680  12.025
41553SOL    HW126556   5.793  11.626  12.042
41553SOL    HW226557   5.697  11.721  12.109
41554SOL     OW26558  12.517   5.511   5.210
41554SOL    HW126559  12.566   5.429   5.201
41554SOL    HW226560  12.465   5.516   5.129
41555SOL     OW26561   1.516   2.457   4.502
41555SOL    HW126562   1.575   2.387   4.475
41555SOL    HW226563   1.492   2.435   4.592
41556SOL     OW26564   4.547  10.062   0.230
41556SOL    HW126565   4.546   9.982   0.282
41556SOL    HW226566   4.564  10.032   0.140
41557SOL     OW26567   8.639  12.358  12.137
41557SOL    HW126568   8.581  12.353  12.213
41557SOL    HW226569   8.724  12.328  12.168
41558SOL     OW26570   4.946  11.082   7.358
41558SOL    HW126571   5.024  11.137   7.351
41558SOL    HW226572   4.980  10.994   7.371
41559SOL     OW26573   8.216  10.752   3.000
41559SOL    HW126574   8.238  10.827   3.056
41559SOL    HW226575   8.198  10.791   2.914
41560SOL     OW26576   2.547   1.386  12.568
41560SOL    HW126577   2.580   1.467  12.605
41560SOL    HW226578   2.480   1.356  12.630
41561SOL     OW26579  10.438  11.308   9.858
41561SOL    HW126580  10.519  11.282   9.903
41561SOL    HW226581  10.446  11.402   9.847
41562SOL     OW26582   4.814   6.261  10.038
41562SOL    HW126583   4.727   6.235  10.070
41562SOL    HW226584   4.845   6.184   9.991
41563SOL     OW26585   2.829   9.021  11.766
41563SOL    HW126586   2.794   9.067  11.690
41563SOL    HW226587   2.754   9.010  11.824
41564SOL     OW26588  13.773   1.581   1.334
41564SOL    HW126589  13.695   1.537   1.367
41564SOL    HW226590  13.789   1.651   1.397
41565SOL     OW26591   6.814   0.755   0.114
41565SOL    HW126592   6.880   0.811   0.155
41565SOL    HW226593   6.817   0.673   0.163
41566SOL     OW26594   0.274  12.262   9.167
41566SOL    HW126595   0.335  12.213   9.112
41566SOL    HW226596   0.188  12.227   9.143
41567SOL     OW26597   1.989  11.819   6.955
41567SOL    HW126598   1.952  11.851   6.873
41567SOL    HW226599   2.035  11.895   6.992
41568SOL     OW26600   5.558   2.731  11.401
41568SOL    HW126601   5.547   2.679  11.321
41568SOL    HW226602   5.517   2.815  11.381
41569SOL     OW26603  11.225  14.027   5.387
41569SOL    HW126604  11.146  14.079   5.373
41569SOL    HW226605  11.211  13.985   5.472
41570SOL     OW26606   0.792  12.434   4.250
41570SOL    HW126607   0.705  12.473   4.239
41570SOL    HW226608   0.792  12.398   4.339
41571SOL     OW26609   6.440   3.337   1.632
41571SOL    HW126610   6.405   3.283   1.560
41571SOL    HW226611   6.481   3.275   1.691
41572SOL     OW26612   4.760   7.053  11.497
41572SOL    HW126613   4.757   6.960  11.520
41572SOL    HW226614   4.851   7.068  11.468
41573SOL     OW26615   8.702   4.851   1.098
41573SOL    HW126616   8.779   4.877   1.047
41573SOL    HW226617   8.632   4.908   1.065
41574SOL     OW26618   7.132   5.040  14.182
41574SOL    HW126619   7.203   4.977  14.165
41574SOL    HW226620   7.176   5.124  14.193
41575SOL     OW26621   8.776  10.543  14.491
41575SOL    HW126622   8.838  10.568  14.559
41575SOL    HW226623   8.801  10.454  14.467
41576SOL     OW26624  13.422   7.592   5.762
41576SOL    HW126625  13.387   7.503   5.755
41576SOL    HW226626  13.345   7.647   5.774
41577SOL     OW26627   4.455  12.435  12.750
41577SOL    HW126628   4.548  12.424  12.768
41577SOL    HW226629   4.418  12.348  12.763
41578SOL     OW26630   9.925   6.963   4.521
41578SOL    HW126631   9.884   6.930   4.441
41578SOL    HW226632   9.872   6.926   4.592
41579SOL     OW26633   0.539  12.034  10.139
41579SOL    HW126634   0.589  12.023  10.220
41579SOL    HW226635   0.556  12.125  10.113
41580SOL     OW26636   7.400   7.519   4.106
41580SOL    HW126637   7.400   7.563   4.190
41580SOL    HW226638   7.335   7.450   4.115
41581SOL     OW26639   5.906   2.493  11.261
41581SOL    HW126640   5.954   2.418  11.228
41581SOL    HW226641   5.931   2.565  11.203
41582SOL     OW26642   4.346   3.906  10.641
41582SOL    HW126643   4.438   3.889  10.621
41582SOL    HW226644   4.300   3.829  10.609
41583SOL     OW26645  11.572   9.324   1.050
41583SOL    HW126646  11.537   9.363   1.130
41583SOL    HW226647  11.666   9.340   1.054
41584SOL     OW26648   5.841   0.968   7.808
41584SOL    HW126649   5.749   0.996   7.800
41584SOL    HW226650   5.860   0.926   7.724
41585SOL     OW26651   5.687  11.230   6.813
41585SOL    HW126652   5.763  11.261   6.862
41585SOL    HW226653   5.614  11.282   6.846
41586SOL     OW26654   0.414  10.002   2.700
41586SOL    HW126655   0.417   9.918   2.655
41586SOL    HW226656   0.488   9.999   2.761
41587SOL     OW26657   4.190   1.899  12.967
41587SOL    HW126658   4.155   1.853  12.891
41587SOL    HW226659   4.119   1.958  12.994
41588SOL     OW26660   9.479  14.046   9.179
41588SOL    HW126661   9.455  14.078   9.266
41588SOL    HW226662   9.397  14.013   9.142
41589SOL     OW26663  10.007   1.884   1.532
41589SOL    HW126664  10.034   1.840   1.452
41589SOL    HW226665   9.912   1.878   1.533
41590SOL     OW26666  12.496   2.662   6.725
41590SOL    HW126667  12.518   2.628   6.812
41590SOL    HW226668  12.429   2.603   6.692
41591SOL     OW26669   6.670  10.634   7.097
41591SOL    HW126670   6.588  10.614   7.141
41591SOL    HW226671   6.724  10.556   7.108
41592SOL     OW26672  10.989   3.282   9.274
41592SOL    HW126673  11.034   3.354   9.317
41592SOL    HW226674  10.896   3.301   9.287
41593SOL     OW26675   5.386  10.661   2.503
41593SOL    HW126676   5.387  10.698   2.415
41593SOL    HW226677   5.306  10.609   2.507
41594SOL     OW26678   1.797   7.856  13.613
41594SOL    HW126679   1.792   7.882  13.705
41594SOL    HW226680   1.735   7.783  13.605
41595SOL     OW26681  13.295   0.584  11.426
41595SOL    HW126682  13.265   0.523  11.358
41595SOL    HW226683  13.380   0.615  11.394
41596SOL     OW26684   1.304   5.491  13.435
41596SOL    HW126685   1.260   5.407  13.428
41596SOL    HW226686   1.384   5.472  13.484
41597SOL     OW26687   9.341  11.383   9.935
41597SOL    HW126688   9.274  11.449   9.952
41597SOL    HW226689   9.413  11.406   9.994
41598SOL     OW26690   1.718   6.065   2.029
41598SOL    HW126691   1.656   6.053   1.957
41598SOL    HW226692   1.666   6.104   2.099
41599SOL     OW26693   9.848  10.461   3.313
41599SOL    HW126694   9.913  10.457   3.384
41599SOL    HW226695   9.799  10.541   3.331
41600SOL     OW26696   5.269  14.093   0.766
41600SOL    HW126697   5.251  14.012   0.814
41600SOL    HW226698   5.364  14.095   0.757
41601SOL     OW26699   9.183   5.760   5.039
41601SOL    HW126700   9.119   5.704   4.995
41601SOL    HW226701   9.260   5.705   5.052
41602SOL     OW26702   2.275   1.272   8.387
41602SOL    HW126703   2.243   1.191   8.428
41602SOL    HW226704   2.357   1.247   8.344
41603SOL     OW26705   4.472  14.255   3.962
41603SOL    HW126706   4.376  14.253   3.957
41603SOL    HW226707   4.501  14.210   3.883
41604SOL     OW26708   6.417   6.274  11.445
41604SOL    HW126709   6.377   6.194  11.413
41604SOL    HW226710   6.511   6.255  11.447
41605SOL     OW26711   4.008  14.789  14.791
41605SOL    HW126712   3.985  14.715  14.735
41605SOL    HW226713   4.102  14.780  14.805
41606SOL     OW26714   3.547   7.271   1.070
41606SOL    HW126715   3.569   7.178   1.074
41606SOL    HW226716   3.509   7.282   0.982
41607SOL     OW26717   9.668   3.377   3.540
41607SOL    HW126718   9.723   3.382   3.618
41607SOL    HW226719   9.655   3.469   3.514
41608SOL     OW26720   3.570   1.168   3.507
41608SOL    HW126721   3.529   1.082   3.513
41608SOL    HW226722   3.611   1.181   3.593
41609SOL     OW26723   6.086   7.780  13.491
41609SOL    HW126724   6.040   7.829  13.424
41609SOL    HW226725   6.178   7.803  13.478
41610SOL     OW26726   2.731   7.943   3.545
41610SOL    HW126727   2.781   8.004   3.599
41610SOL    HW226728   2.698   7.877   3.606
41611SOL     OW26729   8.195   0.140   3.903
41611SOL    HW126730   8.118   0.089   3.878
41611SOL    HW226731   8.266   0.076   3.909
41612SOL     OW26732  13.854   4.651   1.810
41612SOL    HW126733  13.783   4.589   1.792
41612SOL    HW226734  13.923   4.597   1.849
41613SOL     OW26735   6.639   4.901   1.867
41613SOL    HW126736   6.644   4.806   1.851
41613SOL    HW226737   6.601   4.936   1.787
41614SOL     OW26738   2.465   3.947   3.564
41614SOL    HW126739   2.467   4.043   3.570
41614SOL    HW226740   2.398   3.929   3.498
41615SOL     OW26741   1.616  10.845   3.248
41615SOL    HW126742   1.684  10.901   3.287
41615SOL    HW226743   1.621  10.763   3.297
41616SOL     OW26744   7.095  13.350  14.551
41616SOL    HW126745   7.182  13.318  14.575
41616SOL    HW226746   7.055  13.277  14.504
41617SOL     OW26747   8.259  12.838  11.624
41617SOL    HW126748   8.331  12.891  11.589
41617SOL    HW226749   8.181  12.892  11.612
41618SOL     OW26750  12.052  11.686   6.727
41618SOL    HW126751  12.020  11.760   6.779
41618SOL    HW226752  12.147  11.692   6.733
41619SOL     OW26753   1.245  10.187   2.942
41619SOL    HW126754   1.158  10.227   2.939
41619SOL    HW226755   1.305  10.261   2.945
41620SOL     OW26756   9.905   3.092   0.963
41620SOL    HW126757   9.986   3.115   1.009
41620SOL    HW226758   9.835   3.131   1.015
41621SOL     OW26759   1.333   6.728  12.768
41621SOL    HW126760   1.272   6.679  12.823
41621SOL    HW226761   1.356   6.667  12.698
41622SOL     OW26762  10.139  11.423  13.293
41622SOL    HW126763  10.169  11.441  13.204
41622SOL    HW226764  10.073  11.354  13.283
41623SOL     OW26765   8.296  13.739   8.472
41623SOL    HW126766   8.312  13.658   8.424
41623SOL    HW226767   8.279  13.804   8.404
41624SOL     OW26768   0.791   4.530   9.715
41624SOL    HW126769   0.790   4.489   9.801
41624SOL    HW226770   0.701   4.558   9.700
41625SOL     OW26771   5.249  14.508   0.902
41625SOL    HW126772   5.296  14.493   0.819
41625SOL    HW226773   5.259  14.426   0.950
41626SOL     OW26774   6.840   3.761   1.257
41626SOL    HW126775   6.877   3.801   1.178
41626SOL    HW226776   6.916   3.741   1.311
41627SOL     OW26777   8.515   8.615   8.293
41627SOL    HW126778   8.420   8.622   8.305
41627SOL    HW226779   8.540   8.542   8.349
41628SOL     OW26780   5.169   0.827  10.346
41628SOL    HW126781   5.118   0.771  10.404
41628SOL    HW226782   5.122   0.909  10.342
41629SOL     OW26783   9.332  10.125  11.171
41629SOL    HW126784   9.241  10.098  11.180
41629SOL    HW226785   9.356  10.101  11.082
41630SOL     OW26786  11.501   6.490   5.255
41630SOL    HW126787  11.480   6.502   5.348
41630SOL    HW226788  11.437   6.426   5.224
41631SOL     OW26789   5.668   1.722  11.684
41631SOL    HW126790   5.622   1.762  11.611
41631SOL    HW226791   5.736   1.668  11.644
41632SOL     OW26792   4.400   9.005  11.510
41632SOL    HW126793   4.327   8.950  11.482
41632SOL    HW226794   4.454   9.016  11.431
41633SOL     OW26795  12.820   5.589   4.928
41633SOL    HW126796  12.844   5.582   5.020
41633SOL    HW226797  12.904   5.585   4.881
41634SOL     OW26798   7.241   4.783   4.039
41634SOL    HW126799   7.334   4.772   4.022
41634SOL    HW226800   7.210   4.840   3.968
41635SOL     OW26801   3.842  10.808   0.818
41635SOL    HW126802   3.750  10.806   0.793
41635SOL    HW226803   3.853  10.734   0.878
41636SOL     OW26804  10.087   9.638   4.145
41636SOL    HW126805  10.146   9.659   4.072
41636SOL    HW226806  10.056   9.723   4.176
41637SOL     OW26807   7.933   5.020  11.696
41637SOL    HW126808   7.996   5.081  11.658
41637SOL    HW226809   7.960   4.934  11.663
41638SOL     OW26810   5.256  11.704  10.397
41638SOL    HW126811   5.308  11.631  10.431
41638SOL    HW226812   5.170  11.667  10.381
41639SOL     OW26813  13.283  10.388  13.974
41639SOL    HW126814  13.238  10.363  13.894
41639SOL    HW226815  13.282  10.309  14.029
41640SOL     OW26816   1.532  11.198   7.666
41640SOL    HW126817   1.524  11.279   7.616
41640SOL    HW226818   1.599  11.148   7.619
41641SOL     OW26819   4.653   7.230   8.967
41641SOL    HW126820   4.629   7.183   9.048
41641SOL    HW226821   4.689   7.162   8.910
41642SOL     OW26822   8.474  10.997  12.440
41642SOL    HW126823   8.556  10.980  12.394
41642SOL    HW226824   8.485  10.953  12.524
41643SOL     OW26825   1.135   5.844   7.650
41643SOL    HW126826   1.199   5.894   7.700
41643SOL    HW226827   1.101   5.780   7.712
41644SOL     OW26828  12.325   4.919   6.411
41644SOL    HW126829  12.289   4.898   6.497
41644SOL    HW226830  12.254   4.962   6.364
41645SOL     OW26831   8.838   0.359  13.056
41645SOL    HW126832   8.767   0.391  13.001
41645SOL    HW226833   8.796   0.299  13.118
41646SOL     OW26834   0.215   5.184   9.119
41646SOL    HW126835   0.270   5.232   9.057
41646SOL    HW226836   0.233   5.226   9.204
41647SOL     OW26837  12.090   9.042  10.131
41647SOL    HW126838  12.093   8.975  10.063
41647SOL    HW226839  12.137   9.117  10.094
41648SOL     OW26840   5.667   0.944   3.646
41648SOL    HW126841   5.663   1.028   3.693
41648SOL    HW226842   5.734   0.894   3.693
41649SOL     OW26843   4.944   0.653   5.210
41649SOL    HW126844   5.008   0.654   5.138
41649SOL    HW226845   4.997   0.635   5.288
41650SOL     OW26846   5.208  12.137  10.914
41650SOL    HW126847   5.169  12.124  10.827
41650SOL    HW226848   5.237  12.050  10.940
41651SOL     OW26849  13.911   3.439  12.312
41651SOL    HW126850  13.933   3.394  12.393
41651SOL    HW226851  13.851   3.509  12.338
41652SOL     OW26852  14.129  10.586   5.563
41652SOL    HW126853  14.211  10.625   5.533
41652SOL    HW226854  14.095  10.649   5.627
41653SOL     OW26855   9.371   3.251   9.792
41653SOL    HW126856   9.371   3.333   9.742
41653SOL    HW226857   9.423   3.191   9.739
41654SOL     OW26858  12.537   3.215   5.337
41654SOL    HW126859  12.467   3.247   5.280
41654SOL    HW226860  12.511   3.242   5.425
41655SOL     OW26861   0.361  13.060   1.951
41655SOL    HW126862   0.381  13.041   1.860
41655SOL    HW226863   0.396  13.148   1.966
41656SOL     OW26864   5.244   9.846   4.770
41656SOL    HW126865   5.318   9.907   4.778
41656SOL    HW226866   5.218   9.851   4.678
41657SOL     OW26867   0.363   6.427   9.646
41657SOL    HW126868   0.359   6.333   9.664
41657SOL    HW226869   0.340   6.469   9.729
41658SOL     OW26870  12.062  10.014   6.468
41658SOL    HW126871  12.012  10.060   6.400
41658SOL    HW226872  12.153  10.028   6.444
41659SOL     OW26873  12.808   2.813   4.701
41659SOL    HW126874  12.814   2.870   4.625
41659SOL    HW226875  12.889   2.762   4.700
41660SOL     OW26876  11.740   9.538  10.647
41660SOL    HW126877  11.669   9.558  10.586
41660SOL    HW226878  11.820   9.563  10.601
41661SOL     OW26879   6.953   0.754  11.909
41661SOL    HW126880   6.914   0.841  11.914
41661SOL    HW226881   6.885   0.695  11.942
41662SOL     OW26882   0.204   9.320   3.901
41662SOL    HW126883   0.187   9.363   3.985
41662SOL    HW226884   0.240   9.389   3.846
41663SOL     OW26885   4.470   4.376   1.983
41663SOL    HW126886   4.500   4.310   2.046
41663SOL    HW226887   4.429   4.444   2.036
41664SOL     OW26888   9.302   1.115   6.454
41664SOL    HW126889   9.253   1.119   6.371
41664SOL    HW226890   9.370   1.182   6.445
41665SOL     OW26891  12.126  14.553  12.318
41665SOL    HW126892  12.039  14.514  12.318
41665SOL    HW226893  12.115  14.637  12.363
41666SOL     OW26894   9.058   8.281  13.268
41666SOL    HW126895   9.109   8.336  13.327
41666SOL    HW226896   9.095   8.298  13.181
41667SOL     OW26897   0.602   0.647   3.995
41667SOL    HW126898   0.522   0.636   4.048
41667SOL    HW226899   0.580   0.717   3.934
41668SOL     OW26900   7.635  12.141   6.864
41668SOL    HW126901   7.584  12.069   6.826
41668SOL    HW226902   7.573  12.188   6.920
41669SOL     OW26903   3.852   1.389   6.387
41669SOL    HW126904   3.932   1.442   6.391
41669SOL    HW226905   3.816   1.404   6.300
41670SOL     OW26906  11.704   9.008   4.216
41670SOL    HW126907  11.638   9.065   4.255
41670SOL    HW226908  11.653   8.938   4.174
41671SOL     OW26909  13.531  11.953   3.240
41671SOL    HW126910  13.460  12.013   3.266
41671SOL    HW226911  13.493  11.902   3.169
41672SOL     OW26912   8.036   6.613  11.680
41672SOL    HW126913   7.973   6.683  11.664
41672SOL    HW226914   8.076   6.635  11.764
41673SOL     OW26915   8.505  10.298   9.596
41673SOL    HW126916   8.533  10.377   9.550
41673SOL    HW226917   8.443  10.329   9.662
41674SOL     OW26918   7.480   5.163  10.409
41674SOL    HW126919   7.498   5.126  10.323
41674SOL    HW226920   7.553   5.223  10.425
41675SOL     OW26921  11.706  14.560   7.855
41675SOL    HW126922  11.719  14.652   7.879
41675SOL    HW226923  11.614  14.542   7.875
41676SOL     OW26924  13.827   4.780   7.738
41676SOL    HW126925  13.826   4.818   7.826
41676SOL    HW226926  13.909   4.730   7.734
41677SOL     OW26927   5.221   1.117   9.698
41677SOL    HW126928   5.235   1.025   9.718
41677SOL    HW226929   5.301   1.144   9.653
41678SOL     OW26930   1.604   6.970   2.919
41678SOL    HW126931   1.527   6.960   2.864
41678SOL    HW226932   1.599   7.059   2.952
41679SOL     OW26933   2.018   1.960  10.894
41679SOL    HW126934   2.016   2.029  10.828
41679SOL    HW226935   1.931   1.960  10.932
41680SOL     OW26936  10.390  12.654   4.455
41680SOL    HW126937  10.455  12.657   4.384
41680SOL    HW226938  10.341  12.735   4.446
41681SOL     OW26939  11.464  12.294   4.214
41681SOL    HW126940  11.548  12.309   4.170
41681SOL    HW226941  11.481  12.223   4.276
41682SOL     OW26942  10.961   2.137   2.004
41682SOL    HW126943  10.916   2.132   1.920
41682SOL    HW226944  10.892   2.124   2.069
41683SOL     OW26945   4.161   0.067  13.278
41683SOL    HW126946   4.181   0.073  13.372
41683SOL    HW226947   4.096   0.136  13.263
41684SOL     OW26948   5.193   3.078   5.713
41684SOL    HW126949   5.139   3.156   5.723
41684SOL    HW226950   5.250   3.097   5.638
41685SOL     OW26951   0.087   8.082  14.798
41685SOL    HW126952   0.106   8.171  14.769
41685SOL    HW226953  14.878   8.086  14.834
41686SOL     OW26954   6.305   0.689   7.387
41686SOL    HW126955   6.385   0.636   7.393
41686SOL    HW226956   6.300   0.714   7.295
41687SOL     OW26957   3.894   7.270   3.391
41687SOL    HW126958   3.929   7.313   3.313
41687SOL    HW226959   3.968   7.268   3.452
41688SOL     OW26960   3.929  12.103   6.150
41688SOL    HW126961   3.935  12.198   6.151
41688SOL    HW226962   3.970  12.076   6.232
41689SOL     OW26963  10.269   7.949  14.810
41689SOL    HW126964  10.308   7.994   0.005
41689SOL    HW226965  10.273   8.014  14.739
41690SOL     OW26966  13.734   7.490   8.908
41690SOL    HW126967  13.768   7.512   8.821
41690SOL    HW226968  13.802   7.520   8.968
41691SOL     OW26969   6.361   8.796   3.934
41691SOL    HW126970   6.402   8.845   3.862
41691SOL    HW226971   6.315   8.862   3.985
41692SOL     OW26972   4.789   2.869   5.719
41692SOL    HW126973   4.774   2.957   5.684
41692SOL    HW226974   4.871   2.876   5.767
41693SOL     OW26975   4.961   8.430   0.793
41693SOL    HW126976   4.946   8.398   0.704
41693SOL    HW226977   4.884   8.483   0.813
41694SOL     OW26978  14.343   8.667   8.394
41694SOL    HW126979  14.420   8.642   8.342
41694SOL    HW226980  14.316   8.752   8.357
41695SOL     OW26981  12.208   8.517   7.096
41695SOL    HW126982  12.149   8.592   7.092
41695SOL    HW226983  12.150   8.441   7.099
41696SOL     OW26984   0.398   1.987   7.934
41696SOL    HW126985   0.362   2.023   7.853
41696SOL    HW226986   0.329   2.000   7.999
41697SOL     OW26987   2.377  13.177  12.477
41697SOL    HW126988   2.452  13.125  12.449
41697SOL    HW226989   2.362  13.239  12.406
41698SOL     OW26990   4.907  12.038   9.926
41698SOL    HW126991   4.923  12.078  10.011
41698SOL    HW226992   4.961  11.960   9.925
41699SOL     OW26993  12.542  10.543   0.784
41699SOL    HW126994  12.635  10.521   0.777
41699SOL    HW226995  12.497  10.460   0.766
41700SOL     OW26996  13.389  11.372   0.526
41700SOL    HW126997  13.460  11.430   0.499
41700SOL    HW226998  13.379  11.311   0.453
41701SOL     OW26999  13.277  12.770  13.569
41701SOL    HW127000  13.275  12.819  13.487
41701SOL    HW227001  13.199  12.715  13.567
41702SOL     OW27002  12.470  13.521   2.648
41702SOL    HW127003  12.481  13.512   2.553
41702SOL    HW227004  12.379  13.498   2.664
41703SOL     OW27005   3.254   8.294   5.050
41703SOL    HW127006   3.174   8.265   5.006
41703SOL    HW227007   3.232   8.381   5.084
41704SOL     OW27008   3.525  10.045   9.563
41704SOL    HW127009   3.545  10.026   9.471
41704SOL    HW227010   3.433  10.074   9.561
41705SOL     OW27011   7.325   4.859   8.401
41705SOL    HW127012   7.322   4.943   8.447
41705SOL    HW227013   7.411   4.822   8.424
41706SOL     OW27014  11.826   0.807   8.275
41706SOL    HW127015  11.903   0.768   8.235
41706SOL    HW227016  11.755   0.787   8.214
41707SOL     OW27017  11.752  11.200   5.570
41707SOL    HW127018  11.765  11.121   5.518
41707SOL    HW227019  11.751  11.271   5.505
41708SOL     OW27020   6.764   7.392   7.222
41708SOL    HW127021   6.810   7.309   7.207
41708SOL    HW227022   6.761   7.400   7.318
41709SOL     OW27023   3.432  11.611   9.603
41709SOL    HW127024   3.396  11.652   9.525
41709SOL    HW227025   3.437  11.681   9.668
41710SOL     OW27026   3.150   4.010  14.332
41710SOL    HW127027   3.111   4.092  14.360
41710SOL    HW227028   3.225   4.036  14.279
41711SOL     OW27029   3.958   1.404  14.872
41711SOL    HW127030   4.021   1.337  14.845
41711SOL    HW227031   4.009   1.485  14.876
41712SOL     OW27032   0.718   0.934   8.044
41712SOL    HW127033   0.634   0.981   8.049
41712SOL    HW227034   0.765   0.962   8.122
41713SOL     OW27035   9.530   6.120   9.842
41713SOL    HW127036   9.571   6.051   9.893
41713SOL    HW227037   9.596   6.145   9.777
41714SOL     OW27038  13.802   3.216   0.289
41714SOL    HW127039  13.749   3.291   0.316
41714SOL    HW227040  13.884   3.226   0.337
41715SOL     OW27041   6.714   5.903  10.179
41715SOL    HW127042   6.649   5.970  10.158
41715SOL    HW227043   6.794   5.951  10.198
41716SOL     OW27044  10.640  14.403   2.592
41716SOL    HW127045  10.724  14.411   2.548
41716SOL    HW227046  10.659  14.422   2.684
41717SOL     OW27047   5.479   9.782  13.208
41717SOL    HW127048   5.415   9.718  13.177
41717SOL    HW227049   5.456   9.863  13.163
41718SOL     OW27050   6.681   2.827  10.331
41718SOL    HW127051   6.766   2.855  10.366
41718SOL    HW227052   6.693   2.734  10.311
41719SOL     OW27053   8.635   5.155   0.097
41719SOL    HW127054   8.574   5.085   0.118
41719SOL    HW227055   8.591   5.235   0.126
41720SOL     OW27056   4.816  11.088   6.730
41720SOL    HW127057   4.890  11.094   6.790
41720SOL    HW227058   4.807  10.995   6.711
41721SOL     OW27059  13.120   2.321  10.800
41721SOL    HW127060  13.076   2.349  10.881
41721SOL    HW227061  13.212   2.312  10.825
41722SOL     OW27062  10.048   1.554   7.837
41722SOL    HW127063  10.142   1.535   7.833
41722SOL    HW227064  10.021   1.519   7.922
41723SOL     OW27065   6.325   7.932   0.833
41723SOL    HW127066   6.328   8.018   0.790
41723SOL    HW227067   6.380   7.943   0.911
41724SOL     OW27068   9.482  10.629   3.004
41724SOL    HW127069   9.496  10.542   2.966
41724SOL    HW227070   9.466  10.685   2.928
41725SOL     OW27071   3.084  10.034   7.498
41725SOL    HW127072   3.154   9.981   7.462
41725SOL    HW227073   3.128  10.113   7.530
41726SOL     OW27074  14.468  13.773   3.624
41726SOL    HW127075  14.549  13.757   3.672
41726SOL    HW227076  14.449  13.866   3.638
41727SOL     OW27077   6.563  12.959   0.120
41727SOL    HW127078   6.549  12.992   0.209
41727SOL    HW227079   6.497  13.004   0.067
41728SOL     OW27080  14.876   6.932   6.474
41728SOL    HW127081   0.044   6.872   6.417
41728SOL    HW227082   0.061   6.965   6.535
41729SOL     OW27083  11.828  13.307   0.763
41729SOL    HW127084  11.857  13.220   0.734
41729SOL    HW227085  11.910  13.356   0.774
41730SOL     OW27086   0.403   8.396   8.998
41730SOL    HW127087   0.434   8.485   8.982
41730SOL    HW227088   0.309   8.405   9.013
41731SOL     OW27089   9.661  12.809  13.054
41731SOL    HW127090   9.726  12.853  13.110
41731SOL    HW227091   9.690  12.718  13.051
41732SOL     OW27092   8.293   8.159   8.382
41732SOL    HW127093   8.198   8.158   8.396
41732SOL    HW227094   8.330   8.155   8.471
41733SOL     OW27095  13.917   1.913   9.077
41733SOL    HW127096  13.902   2.007   9.071
41733SOL    HW227097  14.011   1.904   9.092
41734SOL     OW27098   4.569   8.813   5.777
41734SOL    HW127099   4.601   8.895   5.739
41734SOL    HW227100   4.481   8.834   5.806
41735SOL     OW27101   4.541   3.694  12.239
41735SOL    HW127102   4.543   3.745  12.320
41735SOL    HW227103   4.452   3.707  12.206
41736SOL     OW27104   3.142   5.528   7.998
41736SOL    HW127105   3.156   5.622   7.992
41736SOL    HW227106   3.110   5.503   7.912
41737SOL     OW27107   3.803   9.111   2.303
41737SOL    HW127108   3.890   9.149   2.318
41737SOL    HW227109   3.798   9.038   2.365
41738SOL     OW27110   6.656   9.896  13.800
41738SOL    HW127111   6.719   9.871  13.867
41738SOL    HW227112   6.663   9.827  13.733
41739SOL     OW27113   8.873   1.026   8.904
41739SOL    HW127114   8.908   1.003   8.817
41739SOL    HW227115   8.806   0.960   8.921
41740SOL     OW27116   1.446  10.951   0.226
41740SOL    HW127117   1.486  10.967   0.140
41740SOL    HW227118   1.488  11.013   0.285
41741SOL     OW27119   7.081  12.569   2.606
41741SOL    HW127120   7.072  12.500   2.671
41741SOL    HW227121   7.174  12.570   2.585
41742SOL     OW27122  13.454  12.208   2.662
41742SOL    HW127123  13.545  12.197   2.691
41742SOL    HW227124  13.451  12.163   2.578
41743SOL     OW27125   5.859  14.262   2.003
41743SOL    HW127126   5.860  14.357   1.994
41743SOL    HW227127   5.813  14.245   2.085
41744SOL     OW27128   5.150   3.517  11.099
41744SOL    HW127129   5.125   3.607  11.121
41744SOL    HW227130   5.243   3.512  11.122
41745SOL     OW27131   8.540   3.413   9.569
41745SOL    HW127132   8.611   3.473   9.545
41745SOL    HW227133   8.461   3.457   9.538
41746SOL     OW27134  14.234   8.755  10.260
41746SOL    HW127135  14.166   8.727  10.198
41746SOL    HW227136  14.306   8.785  10.204
41747SOL     OW27137   2.968   9.383  11.276
41747SOL    HW127138   2.989   9.397  11.368
41747SOL    HW227139   3.051   9.361  11.235
41748SOL     OW27140   5.400   4.447   9.427
41748SOL    HW127141   5.446   4.393   9.491
41748SOL    HW227142   5.308   4.438   9.449
41749SOL     OW27143   4.365   4.760   0.095
41749SOL    HW127144   4.325   4.707   0.164
41749SOL    HW227145   4.408   4.696   0.038
41750SOL     OW27146  14.189  10.919   7.927
41750SOL    HW127147  14.236  10.975   7.866
41750SOL    HW227148  14.257  10.879   7.981
41751SOL     OW27149   4.544  12.553  13.545
41751SOL    HW127150   4.570  12.567  13.454
41751SOL    HW227151   4.531  12.458  13.552
41752SOL     OW27152   3.805   9.670   4.136
41752SOL    HW127153   3.811   9.632   4.224
41752SOL    HW227154   3.887   9.644   4.094
41753SOL     OW27155   4.272   0.377  12.166
41753SOL    HW127156   4.321   0.377  12.084
41753SOL    HW227157   4.188   0.416  12.144
41754SOL     OW27158   1.954  12.939   5.694
41754SOL    HW127159   1.872  12.917   5.738
41754SOL    HW227160   1.998  12.999   5.755
41755SOL     OW27161   3.795   7.104   8.304
41755SOL    HW127162   3.763   7.077   8.391
41755SOL    HW227163   3.878   7.058   8.295
41756SOL     OW27164  13.828   3.662   9.356
41756SOL    HW127165  13.772   3.730   9.318
41756SOL    HW227166  13.849   3.605   9.282
41757SOL     OW27167  11.412   0.908   1.099
41757SOL    HW127168  11.363   0.841   1.050
41757SOL    HW227169  11.493   0.919   1.050
41758SOL     OW27170  11.572  10.258   8.030
41758SOL    HW127171  11.556  10.211   8.112
41758SOL    HW227172  11.664  10.282   8.034
41759SOL     OW27173   2.779  12.912   6.049
41759SOL    HW127174   2.730  12.831   6.065
41759SOL    HW227175   2.859  12.903   6.101
41760SOL     OW27176  13.507   5.401  12.791
41760SOL    HW127177  13.504   5.328  12.852
41760SOL    HW227178  13.597   5.435  12.798
41761SOL     OW27179  11.779  13.061   5.328
41761SOL    HW127180  11.740  13.142   5.361
41761SOL    HW227181  11.850  13.042   5.390
41762SOL     OW27182  14.103   8.523   0.875
41762SOL    HW127183  14.008   8.529   0.877
41762SOL    HW227184  14.128   8.558   0.790
41763SOL     OW27185  11.629  10.932   4.718
41763SOL    HW127186  11.669  10.956   4.635
41763SOL    HW227187  11.562  10.867   4.695
41764SOL     OW27188   9.379  13.438   7.279
41764SOL    HW127189   9.457  13.480   7.314
41764SOL    HW227190   9.394  13.344   7.293
41765SOL     OW27191  11.068   3.526   6.256
41765SOL    HW127192  10.974   3.518   6.240
41765SOL    HW227193  11.104   3.554   6.171
41766SOL     OW27194   7.326   5.074  12.895
41766SOL    HW127195   7.416   5.097  12.919
41766SOL    HW227196   7.274   5.097  12.972
41767SOL     OW27197  14.418   8.935   0.070
41767SOL    HW127198  14.344   8.875   0.064
41767SOL    HW227199  14.460   8.913   0.153
41768SOL     OW27200   5.641   9.205   9.920
41768SOL    HW127201   5.680   9.131   9.872
41768SOL    HW227202   5.590   9.163   9.990
41769SOL     OW27203   6.318   3.415   5.642
41769SOL    HW127204   6.403   3.395   5.681
41769SOL    HW227205   6.334   3.494   5.590
41770SOL     OW27206  10.548   1.305  14.843
41770SOL    HW127207  10.641   1.290  14.825
41770SOL    HW227208  10.515   1.221  14.873
41771SOL     OW27209   1.046   7.353   9.914
41771SOL    HW127210   1.088   7.268   9.900
41771SOL    HW227211   1.020   7.382   9.827
41772SOL     OW27212   9.980   0.275   6.928
41772SOL    HW127213   9.996   0.185   6.900
41772SOL    HW227214   9.925   0.266   7.006
41773SOL     OW27215   6.145   2.465  14.740
41773SOL    HW127216   6.228   2.425  14.764
41773SOL    HW227217   6.161   2.503  14.653
41774SOL     OW27218   3.212  10.318   5.824
41774SOL    HW127219   3.185  10.356   5.908
41774SOL    HW227220   3.212  10.391   5.763
41775SOL     OW27221  11.221  12.128   0.101
41775SOL    HW127222  11.186  12.137   0.012
41775SOL    HW227223  11.167  12.187   0.153
41776SOL     OW27224  12.305  12.874  12.835
41776SOL    HW127225  12.249  12.951  12.850
41776SOL    HW227226  12.282  12.844  12.747
41777SOL     OW27227   3.860   2.295  12.390
41777SOL    HW127228   3.765   2.283  12.390
41777SOL    HW227229   3.894   2.222  12.441
41778SOL     OW27230   8.087   8.068   6.692
41778SOL    HW127231   8.033   7.988   6.701
41778SOL    HW227232   8.136   8.054   6.611
41779SOL     OW27233  13.941  13.819  14.254
41779SOL    HW127234  13.899  13.829  14.339
41779SOL    HW227235  13.870  13.826  14.191
41780SOL     OW27236   6.899   6.002   6.477
41780SOL    HW127237   6.982   5.957   6.494
41780SOL    HW227238   6.887   6.059   6.553
41781SOL     OW27239   5.631  13.186   5.737
41781SOL    HW127240   5.649  13.135   5.658
41781SOL    HW227241   5.653  13.127   5.810
41782SOL     OW27242  12.062  12.946   4.126
41782SOL    HW127243  12.056  12.956   4.031
41782SOL    HW227244  12.067  13.035   4.160
41783SOL     OW27245   2.467   4.913   5.364
41783SOL    HW127246   2.497   4.837   5.414
41783SOL    HW227247   2.410   4.876   5.297
41784SOL     OW27248  11.787   0.621  12.993
41784SOL    HW127249  11.713   0.562  12.974
41784SOL    HW227250  11.861   0.582  12.946
41785SOL     OW27251   5.762   1.948   9.976
41785SOL    HW127252   5.830   2.008  10.005
41785SOL    HW227253   5.809   1.871   9.946
41786SOL     OW27254   1.132   8.970  13.359
41786SOL    HW127255   1.068   8.907  13.326
41786SOL    HW227256   1.080   9.037  13.402
41787SOL     OW27257   5.093  13.985  14.842
41787SOL    HW127258   5.086  14.077  14.869
41787SOL    HW227259   5.007  13.966  14.803
41788SOL     OW27260   6.063   4.885   0.507
41788SOL    HW127261   6.085   4.942   0.581
41788SOL    HW227262   6.108   4.803   0.525
41789SOL     OW27263  12.137   3.700   9.526
41789SOL    HW127264  12.202   3.633   9.505
41789SOL    HW227265  12.053   3.654   9.523
41790SOL     OW27266   6.135  12.786   0.977
41790SOL    HW127267   6.183  12.868   0.965
41790SOL    HW227268   6.092  12.795   1.062
41791SOL     OW27269   7.691   8.564   5.835
41791SOL    HW127270   7.719   8.501   5.901
41791SOL    HW227271   7.729   8.647   5.862
41792SOL     OW27272  14.337   7.571   7.186
41792SOL    HW127273  14.292   7.584   7.269
41792SOL    HW227274  14.428   7.553   7.210
41793SOL     OW27275   7.825   5.532   0.831
41793SOL    HW127276   7.833   5.611   0.778
41793SOL    HW227277   7.854   5.558   0.919
41794SOL     OW27278  12.416   3.225   4.642
41794SOL    HW127279  12.507   3.253   4.646
41794SOL    HW227280  12.379   3.273   4.568
41795SOL     OW27281   2.766   6.947   6.080
41795SOL    HW127282   2.729   6.981   5.998
41795SOL    HW227283   2.708   6.874   6.103
41796SOL     OW27284   9.225   7.016  13.393
41796SOL    HW127285   9.317   7.033  13.414
41796SOL    HW227286   9.177   7.086  13.436
41797SOL     OW27287   3.959   7.011   4.735
41797SOL    HW127288   3.956   6.918   4.710
41797SOL    HW227289   3.884   7.050   4.689
41798SOL     OW27290  11.048   9.997  12.227
41798SOL    HW127291  11.112  10.067  12.230
41798SOL    HW227292  11.079   9.939  12.158
41799SOL     OW27293   5.242   3.804   7.598
41799SOL    HW127294   5.159   3.770   7.631
41799SOL    HW227295   5.304   3.731   7.610
41800SOL     OW27296  10.084  10.436   6.821
41800SOL    HW127297  10.019  10.371   6.847
41800SOL    HW227298  10.105  10.413   6.730
41801SOL     OW27299   1.076  11.548   3.781
41801SOL    HW127300   1.123  11.482   3.731
41801SOL    HW227301   1.054  11.505   3.863
41802SOL     OW27302   2.961  12.279   2.300
41802SOL    HW127303   2.901  12.338   2.254
41802SOL    HW227304   3.038  12.274   2.243
41803SOL     OW27305   6.984  11.286   0.044
41803SOL    HW127306   6.999  11.200   0.003
41803SOL    HW227307   6.910  11.271   0.104
41804SOL     OW27308  12.464   9.424   3.461
41804SOL    HW127309  12.559   9.428   3.459
41804SOL    HW227310  12.440   9.453   3.549
41805SOL     OW27311   6.090  12.390   2.148
41805SOL    HW127312   6.179  12.425   2.143
41805SOL    HW227313   6.098  12.312   2.204
41806SOL     OW27314   1.908   6.175   2.787
41806SOL    HW127315   1.864   6.260   2.784
41806SOL    HW227316   1.870   6.125   2.715
41807SOL     OW27317   8.942   8.184   1.520
41807SOL    HW127318   8.847   8.177   1.515
41807SOL    HW227319   8.959   8.234   1.600
41808SOL     OW27320   4.483   1.027   9.191
41808SOL    HW127321   4.392   1.008   9.214
41808SOL    HW227322   4.516   1.081   9.263
41809SOL     OW27323   9.319   3.233   8.106
41809SOL    HW127324   9.386   3.293   8.072
41809SOL    HW227325   9.238   3.282   8.099
41810SOL     OW27326   5.657   1.569  11.909
41810SOL    HW127327   5.648   1.618  11.827
41810SOL    HW227328   5.570   1.572  11.949
41811SOL     OW27329  10.848  11.824   0.721
41811SOL    HW127330  10.828  11.882   0.794
41811SOL    HW227331  10.944  11.818   0.721
41812SOL     OW27332   3.685   9.188   3.772
41812SOL    HW127333   3.638   9.198   3.690
41812SOL    HW227334   3.721   9.275   3.789
41813SOL     OW27335   5.460   9.333   7.982
41813SOL    HW127336   5.468   9.251   7.933
41813SOL    HW227337   5.550   9.367   7.986
41814SOL     OW27338   8.125   1.882  14.645
41814SOL    HW127339   8.190   1.863  14.713
41814SOL    HW227340   8.041   1.880  14.691
41815SOL     OW27341  14.146   7.802   7.042
41815SOL    HW127342  14.196   7.731   7.081
41815SOL    HW227343  14.191   7.820   6.959
41816SOL     OW27344  12.659   2.092   8.540
41816SOL    HW127345  12.733   2.145   8.569
41816SOL    HW227346  12.698   2.012   8.505
41817SOL     OW27347   0.259   3.700  13.812
41817SOL    HW127348   0.254   3.795  13.802
41817SOL    HW227349   0.172   3.675  13.843
41818SOL     OW27350   9.710  12.884  12.777
41818SOL    HW127351   9.706  12.979  12.778
41818SOL    HW227352   9.695  12.858  12.868
41819SOL     OW27353   4.442   8.638   9.339
41819SOL    HW127354   4.503   8.704   9.373
41819SOL    HW227355   4.463   8.631   9.246
41820SOL     OW27356  12.826   7.365   0.917
41820SOL    HW127357  12.837   7.441   0.859
41820SOL    HW227358  12.909   7.359   0.964
41821SOL     OW27359  12.479  10.301   0.360
41821SOL    HW127360  12.388  10.330   0.355
41821SOL    HW227361  12.473  10.207   0.373
41822SOL     OW27362  14.079  14.463  13.957
41822SOL    HW127363  14.059  14.522  13.885
41822SOL    HW227364  14.002  14.466  14.013
41823SOL     OW27365   3.140  12.845   8.425
41823SOL    HW127366   3.095  12.930   8.421
41823SOL    HW227367   3.093  12.791   8.361
41824SOL     OW27368  10.818   2.022  13.949
41824SOL    HW127369  10.800   2.051  13.860
41824SOL    HW227370  10.805   1.928  13.948
41825SOL     OW27371  14.335   5.056   7.983
41825SOL    HW127372  14.292   4.970   7.982
41825SOL    HW227373  14.270   5.116   7.946
41826SOL     OW27374   7.148   6.195  10.731
41826SOL    HW127375   7.234   6.195  10.773
41826SOL    HW227376   7.101   6.267  10.772
41827SOL     OW27377   3.273  10.995   3.743
41827SOL    HW127378   3.257  10.920   3.685
41827SOL    HW227379   3.347  10.967   3.797
41828SOL     OW27380   9.875   7.365   1.180
41828SOL    HW127381   9.922   7.369   1.097
41828SOL    HW227382   9.848   7.455   1.196
41829SOL     OW27383  12.437  14.220   3.725
41829SOL    HW127384  12.398  14.149   3.674
41829SOL    HW227385  12.363  14.260   3.770
41830SOL     OW27386   7.750  11.178  10.315
41830SOL    HW127387   7.688  11.237  10.358
41830SOL    HW227388   7.820  11.165  10.379
41831SOL     OW27389   4.293   2.109   6.334
41831SOL    HW127390   4.282   2.110   6.429
41831SOL    HW227391   4.285   2.200   6.308
41832SOL     OW27392   7.800   9.884   4.738
41832SOL    HW127393   7.755   9.898   4.821
41832SOL    HW227394   7.791   9.791   4.721
41833SOL     OW27395   2.200  12.695   1.004
41833SOL    HW127396   2.153  12.765   1.050
41833SOL    HW227397   2.276  12.739   0.965
41834SOL     OW27398  11.985   1.404  12.556
41834SOL    HW127399  12.060   1.399  12.497
41834SOL    HW227400  12.017   1.365  12.638
41835SOL     OW27401  11.350   0.378   4.892
41835SOL    HW127402  11.322   0.397   4.982
41835SOL    HW227403  11.273   0.339   4.851
41836SOL     OW27404  12.806  13.838   3.396
41836SOL    HW127405  12.893  13.836   3.355
41836SOL    HW227406  12.774  13.748   3.388
41837SOL     OW27407  14.490   3.556   5.311
41837SOL    HW127408  14.480   3.508   5.229
41837SOL    HW227409  14.404   3.549   5.354
41838SOL     OW27410   2.437  10.851  10.719
41838SOL    HW127411   2.455  10.914  10.649
41838SOL    HW227412   2.439  10.903  10.799
41839SOL     OW27413   9.916  11.829   8.250
41839SOL    HW127414   9.966  11.784   8.317
41839SOL    HW227415   9.918  11.921   8.275
41840SOL     OW27416   8.206  11.616   6.563
41840SOL    HW127417   8.121  11.572   6.561
41840SOL    HW227418   8.237  11.613   6.473
41841SOL     OW27419  11.226  12.100  13.792
41841SOL    HW127420  11.195  12.156  13.864
41841SOL    HW227421  11.149  12.049  13.767
41842SOL     OW27422   8.440   2.216  10.044
41842SOL    HW127423   8.364   2.172  10.083
41842SOL    HW227424   8.408   2.251   9.961
41843SOL     OW27425   2.935   7.750  11.690
41843SOL    HW127426   3.023   7.739  11.725
41843SOL    HW227427   2.881   7.771  11.766
41844SOL     OW27428  11.782   6.656   6.976
41844SOL    HW127429  11.795   6.707   6.897
41844SOL    HW227430  11.870   6.630   7.004
41845SOL     OW27431   9.564  11.894   2.788
41845SOL    HW127432   9.558  11.870   2.881
41845SOL    HW227433   9.528  11.819   2.741
41846SOL     OW27434   5.606   1.031   2.290
41846SOL    HW127435   5.652   0.957   2.329
41846SOL    HW227436   5.561   0.994   2.214
41847SOL     OW27437   9.436   5.914  12.982
41847SOL    HW127438   9.464   5.828  13.014
41847SOL    HW227439   9.516   5.967  12.984
41848SOL     OW27440  14.739   2.395  12.476
41848SOL    HW127441  14.726   2.324  12.413
41848SOL    HW227442  14.832   2.417  12.468
41849SOL     OW27443   3.891  11.513  12.206
41849SOL    HW127444   3.831  11.442  12.183
41849SOL    HW227445   3.910  11.556  12.123
41850SOL     OW27446   2.429   2.860   5.118
41850SOL    HW127447   2.362   2.882   5.184
41850SOL    HW227448   2.457   2.944   5.083
41851SOL     OW27449  11.601  13.506  12.031
41851SOL    HW127450  11.542  13.452  12.083
41851SOL    HW227451  11.617  13.583  12.086
41852SOL     OW27452  13.795   0.321   3.026
41852SOL    HW127453  13.888   0.335   3.008
41852SOL    HW227454  13.771   0.247   2.970
41853SOL     OW27455  13.308   2.099   8.827
41853SOL    HW127456  13.220   2.137   8.824
41853SOL    HW227457  13.296   2.014   8.869
41854SOL     OW27458   2.022   6.018  14.374
41854SOL    HW127459   1.943   6.066  14.350
41854SOL    HW227460   1.993   5.929  14.390
41855SOL     OW27461  10.010   0.479  11.610
41855SOL    HW127462   9.939   0.433  11.655
41855SOL    HW227463  10.080   0.414  11.604
41856SOL     OW27464   6.096   5.241   4.378
41856SOL    HW127465   6.017   5.292   4.396
41856SOL    HW227466   6.145   5.245   4.460
41857SOL     OW27467   4.361   0.131   7.856
41857SOL    HW127468   4.402   0.044   7.852
41857SOL    HW227469   4.294   0.129   7.787
41858SOL     OW27470   7.480   1.694  12.565
41858SOL    HW127471   7.547   1.681  12.631
41858SOL    HW227472   7.483   1.614  12.512
41859SOL     OW27473  10.837   8.329  13.712
41859SOL    HW127474  10.829   8.255  13.652
41859SOL    HW227475  10.825   8.407  13.657
41860SOL     OW27476  12.875  11.187  14.136
41860SOL    HW127477  12.954  11.142  14.105
41860SOL    HW227478  12.805  11.153  14.081
41861SOL     OW27479   4.628   9.054   3.126
41861SOL    HW127480   4.535   9.054   3.104
41861SOL    HW227481   4.665   9.126   3.076
41862SOL     OW27482   4.785  12.818  10.819
41862SOL    HW127483   4.866  12.867  10.808
41862SOL    HW227484   4.745  12.817  10.732
41863SOL     OW27485   1.384  12.264  12.368
41863SOL    HW127486   1.325  12.196  12.336
41863SOL    HW227487   1.383  12.330  12.298
41864SOL     OW27488   2.626  10.511   3.358
41864SOL    HW127489   2.611  10.601   3.384
41864SOL    HW227490   2.678  10.473   3.429
41865SOL     OW27491  11.510   2.294  11.161
41865SOL    HW127492  11.598   2.329  11.177
41865SOL    HW227493  11.466   2.362  11.110
41866SOL     OW27494   6.595   5.964   7.276
41866SOL    HW127495   6.643   5.966   7.359
41866SOL    HW227496   6.503   5.972   7.302
41867SOL     OW27497  13.393  10.993   1.743
41867SOL    HW127498  13.357  10.952   1.821
41867SOL    HW227499  13.363  10.939   1.670
41868SOL     OW27500   0.679   7.948   5.793
41868SOL    HW127501   0.649   8.035   5.820
41868SOL    HW227502   0.664   7.893   5.870
41869SOL     OW27503   1.990   4.749   5.609
41869SOL    HW127504   2.086   4.752   5.615
41869SOL    HW227505   1.969   4.656   5.617
41870SOL     OW27506   6.614   1.330   9.815
41870SOL    HW127507   6.566   1.396   9.865
41870SOL    HW227508   6.548   1.290   9.759
41871SOL     OW27509   2.555   7.132   3.087
41871SOL    HW127510   2.622   7.200   3.079
41871SOL    HW227511   2.541   7.102   2.997
41872SOL     OW27512   4.224  14.583   4.211
41872SOL    HW127513   4.206  14.535   4.291
41872SOL    HW227514   4.296  14.535   4.170
41873SOL     OW27515   3.644   0.497   5.510
41873SOL    HW127516   3.579   0.566   5.523
41873SOL    HW227517   3.720   0.525   5.561
41874SOL     OW27518  11.012  13.945   5.894
41874SOL    HW127519  10.954  13.998   5.839
41874SOL    HW227520  11.021  13.996   5.975
41875SOL     OW27521  13.832   8.467   1.232
41875SOL    HW127522  13.776   8.537   1.199
41875SOL    HW227523  13.913   8.511   1.258
41876SOL     OW27524  14.179   6.433  11.333
41876SOL    HW127525  14.142   6.493  11.397
41876SOL    HW227526  14.178   6.348  11.376
41877SOL     OW27527   6.536   4.780   0.890
41877SOL    HW127528   6.594   4.838   0.941
41877SOL    HW227529   6.513   4.710   0.951
41878SOL     OW27530  12.294  13.195  10.365
41878SOL    HW127531  12.250  13.261  10.419
41878SOL    HW227532  12.325  13.130  10.428
41879SOL     OW27533   9.075   2.874  14.656
41879SOL    HW127534   9.006   2.934  14.628
41879SOL    HW227535   9.077   2.882  14.751
41880SOL     OW27536   7.098   7.257   8.276
41880SOL    HW127537   7.179   7.223   8.316
41880SOL    HW227538   7.072   7.329   8.334
41881SOL     OW27539   7.486  11.885   8.768
41881SOL    HW127540   7.489  11.947   8.841
41881SOL    HW227541   7.393  11.871   8.752
41882SOL     OW27542   7.397   0.253   6.115
41882SOL    HW127543   7.449   0.267   6.036
41882SOL    HW227544   7.366   0.163   6.108
41883SOL     OW27545  13.959  14.514   4.886
41883SOL    HW127546  13.958  14.609   4.871
41883SOL    HW227547  14.014  14.480   4.816
41884SOL     OW27548   2.206   9.206   9.733
41884SOL    HW127549   2.297   9.219   9.707
41884SOL    HW227550   2.173   9.139   9.673
41885SOL     OW27551   8.871   9.819  12.707
41885SOL    HW127552   8.905   9.780  12.626
41885SOL    HW227553   8.925   9.782  12.776
41886SOL     OW27554   2.018   4.010   3.360
41886SOL    HW127555   1.938   4.011   3.413
41886SOL    HW227556   1.987   4.000   3.270
41887SOL     OW27557   7.869   3.137   6.670
41887SOL    HW127558   7.834   3.160   6.584
41887SOL    HW227559   7.932   3.206   6.690
41888SOL     OW27560   4.084   4.763   8.644
41888SOL    HW127561   4.148   4.830   8.620
41888SOL    HW227562   4.007   4.784   8.591
41889SOL     OW27563  13.477   8.492   2.756
41889SOL    HW127564  13.419   8.499   2.681
41889SOL    HW227565  13.460   8.405   2.793
41890SOL     OW27566  11.127   1.054  10.177
41890SOL    HW127567  11.084   1.112  10.240
41890SOL    HW227568  11.064   1.045  10.106
41891SOL     OW27569  11.568   8.153  11.001
41891SOL    HW127570  11.597   8.202  11.078
41891SOL    HW227571  11.482   8.118  11.026
41892SOL     OW27572  14.052   9.382  14.332
41892SOL    HW127573  14.071   9.292  14.306
41892SOL    HW227574  14.114   9.401  14.402
41893SOL     OW27575   5.086   4.485  10.139
41893SOL    HW127576   5.024   4.547  10.101
41893SOL    HW227577   5.060   4.400  10.103
41894SOL     OW27578  11.481   4.746   7.524
41894SOL    HW127579  11.569   4.770   7.554
41894SOL    HW227580  11.472   4.654   7.549
41895SOL     OW27581   8.653   4.483   6.219
41895SOL    HW127582   8.629   4.575   6.230
41895SOL    HW227583   8.716   4.466   6.289
41896SOL     OW27584   9.045   2.850   8.597
41896SOL    HW127585   9.011   2.822   8.512
41896SOL    HW227586   9.124   2.798   8.609
41897SOL     OW27587   2.675   9.331   5.906
41897SOL    HW127588   2.616   9.383   5.851
41897SOL    HW227589   2.689   9.385   5.984
41898SOL     OW27590   6.060   9.230  11.264
41898SOL    HW127591   6.057   9.136  11.283
41898SOL    HW227592   6.145   9.243  11.222
41899SOL     OW27593  11.800   4.636   2.097
41899SOL    HW127594  11.840   4.637   2.184
41899SOL    HW227595  11.710   4.663   2.111
41900SOL     OW27596  13.724   5.085  14.700
41900SOL    HW127597  13.678   5.151  14.648
41900SOL    HW227598  13.665   5.065  14.772
41901SOL     OW27599   5.545  11.784  13.702
41901SOL    HW127600   5.616  11.719  13.697
41901SOL    HW227601   5.570  11.841  13.774
41902SOL     OW27602   7.765  13.631   2.627
41902SOL    HW127603   7.679  13.597   2.604
41902SOL    HW227604   7.826  13.562   2.599
41903SOL     OW27605   8.528  12.501   2.587
41903SOL    HW127606   8.501  12.561   2.656
41903SOL    HW227607   8.449  12.452   2.565
41904SOL     OW27608   5.095  10.420   4.636
41904SOL    HW127609   5.095  10.508   4.597
41904SOL    HW227610   5.110  10.435   4.729
41905SOL     OW27611   6.313   5.541   1.724
41905SOL    HW127612   6.326   5.447   1.742
41905SOL    HW227613   6.329   5.549   1.630
41906SOL     OW27614   3.402  11.203   0.260
41906SOL    HW127615   3.445  11.152   0.190
41906SOL    HW227616   3.456  11.281   0.268
41907SOL     OW27617   7.696   0.757  10.561
41907SOL    HW127618   7.606   0.729  10.576
41907SOL    HW227619   7.700   0.780  10.469
41908SOL     OW27620   2.910   5.904   0.945
41908SOL    HW127621   2.863   5.835   0.898
41908SOL    HW227622   2.851   5.927   1.017
41909SOL     OW27623   1.696   5.195  12.905
41909SOL    HW127624   1.779   5.231  12.873
41909SOL    HW227625   1.664   5.142  12.832
41910SOL     OW27626  12.416   4.933   9.764
41910SOL    HW127627  12.468   4.934   9.683
41910SOL    HW227628  12.480   4.955   9.832
41911SOL     OW27629   7.675   8.280   5.781
41911SOL    HW127630   7.581   8.282   5.763
41911SOL    HW227631   7.682   8.230   5.862
41912SOL     OW27632  13.705   2.522  10.087
41912SOL    HW127633  13.665   2.593  10.137
41912SOL    HW227634  13.790   2.508  10.130
41913SOL     OW27635   2.339   0.545   4.058
41913SOL    HW127636   2.297   0.620   4.101
41913SOL    HW227637   2.309   0.549   3.967
41914SOL     OW27638  12.055  11.872   4.591
41914SOL    HW127639  12.072  11.932   4.519
41914SOL    HW227640  12.130  11.882   4.649
41915SOL     OW27641   8.106   1.779   4.387
41915SOL    HW127642   8.150   1.801   4.305
41915SOL    HW227643   8.046   1.852   4.402
41916SOL     OW27644  12.495   8.922   1.353
41916SOL    HW127645  12.560   8.861   1.319
41916SOL    HW227646  12.536   9.008   1.346
41917SOL     OW27647   1.321   6.523  10.974
41917SOL    HW127648   1.306   6.478  10.890
41917SOL    HW227649   1.322   6.616  10.951
41918SOL     OW27650  13.584  12.254  13.424
41918SOL    HW127651  13.631  12.171  13.429
41918SOL    HW227652  13.630  12.312  13.486
41919SOL     OW27653   4.529   6.605  13.234
41919SOL    HW127654   4.478   6.535  13.274
41919SOL    HW227655   4.464   6.671  13.209
41920SOL     OW27656  10.339   3.079  14.177
41920SOL    HW127657  10.380   3.099  14.260
41920SOL    HW227658  10.315   2.987  14.183
41921SOL     OW27659   8.774   7.159  14.796
41921SOL    HW127660   8.848   7.136  14.740
41921SOL    HW227661   8.773   7.255  14.796
41922SOL     OW27662   4.271  13.114   6.909
41922SOL    HW127663   4.287  13.191   6.854
41922SOL    HW227664   4.199  13.068   6.866
41923SOL     OW27665  12.349  12.018  10.039
41923SOL    HW127666  12.282  12.086  10.032
41923SOL    HW227667  12.309  11.950  10.093
41924SOL     OW27668   1.970   5.186   1.946
41924SOL    HW127669   1.948   5.270   1.905
41924SOL    HW227670   2.032   5.145   1.886
41925SOL     OW27671   3.697   4.716  10.565
41925SOL    HW127672   3.677   4.795  10.615
41925SOL    HW227673   3.755   4.747  10.495
41926SOL     OW27674   1.602  13.300   2.302
41926SOL    HW127675   1.532  13.293   2.368
41926SOL    HW227676   1.609  13.393   2.284
41927SOL     OW27677   7.179   0.197   2.645
41927SOL    HW127678   7.200   0.265   2.710
41927SOL    HW227679   7.189   0.115   2.693
41928SOL     OW27680   5.373   4.845   6.221
41928SOL    HW127681   5.342   4.853   6.130
41928SOL    HW227682   5.456   4.892   6.222
41929SOL     OW27683   5.334  14.152  14.421
41929SOL    HW127684   5.261  14.143  14.360
41929SOL    HW227685   5.335  14.069  14.469
41930SOL     OW27686  10.804  12.847   5.556
41930SOL    HW127687  10.883  12.897   5.536
41930SOL    HW227688  10.732  12.908   5.543
41931SOL     OW27689   2.173   6.212   8.659
41931SOL    HW127690   2.120   6.284   8.626
41931SOL    HW227691   2.239   6.254   8.715
41932SOL     OW27692  11.989  11.115   9.986
41932SOL    HW127693  11.970  11.208  10.001
41932SOL    HW227694  11.932  11.090   9.914
41933SOL     OW27695  14.112   6.093   3.210
41933SOL    HW127696  14.052   6.131   3.273
41933SOL    HW227697  14.199   6.120   3.241
41934SOL     OW27698   6.990   5.909   3.124
41934SOL    HW127699   7.000   5.984   3.183
41934SOL    HW227700   7.076   5.899   3.083
41935SOL     OW27701  10.833  13.364   4.805
41935SOL    HW127702  10.838  13.402   4.893
41935SOL    HW227703  10.778  13.286   4.816
41936SOL     OW27704   8.552   3.534   2.756
41936SOL    HW127705   8.579   3.547   2.847
41936SOL    HW227706   8.626   3.567   2.705
41937SOL     OW27707   3.584   9.540  11.695
41937SOL    HW127708   3.670   9.546  11.735
41937SOL    HW227709   3.590   9.595  11.616
41938SOL     OW27710  11.553  12.654  12.890
41938SOL    HW127711  11.641  12.617  12.887
41938SOL    HW227712  11.562  12.740  12.848
41939SOL     OW27713   0.881   0.945   9.713
41939SOL    HW127714   0.864   0.930   9.619
41939SOL    HW227715   0.800   0.918   9.756
41940SOL     OW27716   5.534   1.840  12.782
41940SOL    HW127717   5.484   1.898  12.725
41940SOL    HW227718   5.616   1.887  12.798
41941SOL     OW27719   2.982   4.590   1.426
41941SOL    HW127720   2.918   4.583   1.497
41941SOL    HW227721   3.066   4.576   1.468
41942SOL     OW27722   6.762  14.763   9.425
41942SOL    HW127723   6.742  14.856   9.411
41942SOL    HW227724   6.698  14.717   9.370
41943SOL     OW27725  13.814   7.530  11.120
41943SOL    HW127726  13.784   7.521  11.029
41943SOL    HW227727  13.833   7.440  11.148
41944SOL     OW27728   8.642  12.045  11.151
41944SOL    HW127729   8.560  12.091  11.166
41944SOL    HW227730   8.709  12.114  11.156
41945SOL     OW27731   5.369   8.531  10.834
41945SOL    HW127732   5.405   8.501  10.751
41945SOL    HW227733   5.315   8.606  10.812
41946SOL     OW27734  10.002   9.016  12.118
41946SOL    HW127735   9.992   8.970  12.035
41946SOL    HW227736  10.097   9.016  12.134
41947SOL     OW27737   6.482   5.702   1.860
41947SOL    HW127738   6.553   5.647   1.827
41947SOL    HW227739   6.403   5.666   1.820
41948SOL     OW27740   1.450   6.767   8.203
41948SOL    HW127741   1.445   6.828   8.277
41948SOL    HW227742   1.456   6.681   8.244
41949SOL     OW27743   5.292   3.009  12.972
41949SOL    HW127744   5.376   2.998  13.018
41949SOL    HW227745   5.229   2.962  13.026
41950SOL     OW27746   3.049   3.565   9.496
41950SOL    HW127747   3.121   3.599   9.551
41950SOL    HW227748   2.971   3.575   9.551
41951SOL     OW27749  12.955  12.165  12.376
41951SOL    HW127750  12.941  12.254  12.345
41951SOL    HW227751  13.020  12.129  12.315
41952SOL     OW27752  12.168   1.800   5.549
41952SOL    HW127753  12.157   1.840   5.463
41952SOL    HW227754  12.079   1.773   5.575
41953SOL     OW27755  13.210  14.708   7.433
41953SOL    HW127756  13.242  14.798   7.444
41953SOL    HW227757  13.190  14.679   7.522
41954SOL     OW27758   0.380   6.601  13.664
41954SOL    HW127759   0.431   6.531  13.704
41954SOL    HW227760   0.419   6.681  13.698
41955SOL     OW27761  12.768   7.284  11.033
41955SOL    HW127762  12.741   7.372  11.061
41955SOL    HW227763  12.685   7.238  11.016
41956SOL     OW27764   9.041  10.196   2.094
41956SOL    HW127765   9.092  10.240   2.026
41956SOL    HW227766   9.022  10.109   2.058
41957SOL     OW27767   0.739  10.001  13.475
41957SOL    HW127768   0.712   9.938  13.408
41957SOL    HW227769   0.687  10.079  13.458
41958SOL     OW27770   2.577  10.696   7.475
41958SOL    HW127771   2.490  10.720   7.445
41958SOL    HW227772   2.562  10.629   7.541
41959SOL     OW27773  14.667  10.396  14.418
41959SOL    HW127774  14.594  10.438  14.465
41959SOL    HW227775  14.660  10.303  14.441
41960SOL     OW27776  14.826   7.378   9.428
41960SOL    HW127777  14.861   7.350   9.513
41960SOL    HW227778  14.734   7.352   9.431
41961SOL     OW27779   4.266  10.118   7.058
41961SOL    HW127780   4.335  10.159   7.006
41961SOL    HW227781   4.208  10.191   7.083
41962SOL     OW27782   3.868   9.905  13.066
41962SOL    HW127783   3.782   9.946  13.056
41962SOL    HW227784   3.924   9.975  13.099
41963SOL     OW27785  11.959   6.429  14.375
41963SOL    HW127786  12.004   6.506  14.412
41963SOL    HW227787  12.029   6.366  14.358
41964SOL     OW27788  10.829   0.805  12.317
41964SOL    HW127789  10.767   0.829  12.249
41964SOL    HW227790  10.829   0.879  12.377
41965SOL     OW27791   0.277  12.850  13.504
41965SOL    HW127792   0.227  12.787  13.554
41965SOL    HW227793   0.349  12.875  13.562
41966SOL     OW27794   5.747   4.763   7.592
41966SOL    HW127795   5.726   4.856   7.602
41966SOL    HW227796   5.781   4.755   7.503
41967SOL     OW27797   0.943  14.446   3.531
41967SOL    HW127798   0.898  14.457   3.615
41967SOL    HW227799   0.988  14.530   3.518
41968SOL     OW27800   1.878   4.232   1.716
41968SOL    HW127801   1.900   4.272   1.800
41968SOL    HW227802   1.931   4.152   1.713
41969SOL     OW27803   8.692   7.346  11.326
41969SOL    HW127804   8.719   7.422  11.378
41969SOL    HW227805   8.738   7.356  11.243
41970SOL     OW27806   3.375   3.344   8.271
41970SOL    HW127807   3.430   3.391   8.334
41970SOL    HW227808   3.340   3.270   8.320
41971SOL     OW27809  11.747   8.062  13.176
41971SOL    HW127810  11.669   8.074  13.121
41971SOL    HW227811  11.814   8.115  13.133
41972SOL     OW27812   4.188   5.272  11.882
41972SOL    HW127813   4.164   5.217  11.808
41972SOL    HW227814   4.118   5.258  11.946
41973SOL     OW27815   2.734   8.724   2.107
41973SOL    HW127816   2.755   8.807   2.065
41973SOL    HW227817   2.662   8.745   2.167
41974SOL     OW27818  13.653   6.102   5.129
41974SOL    HW127819  13.723   6.038   5.144
41974SOL    HW227820  13.694   6.187   5.144
41975SOL     OW27821  13.214  12.184   2.759
41975SOL    HW127822  13.157  12.125   2.710
41975SOL    HW227823  13.297  12.182   2.712
41976SOL     OW27824  10.535   0.148   9.794
41976SOL    HW127825  10.488   0.146   9.711
41976SOL    HW227826  10.466   0.156   9.860
41977SOL     OW27827   5.606   9.674   0.541
41977SOL    HW127828   5.621   9.749   0.484
41977SOL    HW227829   5.639   9.599   0.492
41978SOL     OW27830   5.371   0.072  11.932
41978SOL    HW127831   5.431   0.071  12.006
41978SOL    HW227832   5.414   0.127  11.867
41979SOL     OW27833   6.469   2.626   0.993
41979SOL    HW127834   6.444   2.577   1.072
41979SOL    HW227835   6.425   2.580   0.922
41980SOL     OW27836  13.229   1.140   9.268
41980SOL    HW127837  13.275   1.154   9.186
41980SOL    HW227838  13.235   1.223   9.315
41981SOL     OW27839   5.957  12.140   7.861
41981SOL    HW127840   6.024  12.072   7.847
41981SOL    HW227841   5.913  12.147   7.776
41982SOL     OW27842  13.727   8.526  10.821
41982SOL    HW127843  13.787   8.561  10.887
41982SOL    HW227844  13.640   8.552  10.852
41983SOL     OW27845   0.464   7.429  10.252
41983SOL    HW127846   0.446   7.494  10.184
41983SOL    HW227847   0.560   7.425  10.256
41984SOL     OW27848   9.745   8.684   4.568
41984SOL    HW127849   9.716   8.624   4.636
41984SOL    HW227850   9.808   8.634   4.517
41985SOL     OW27851   0.160  10.125   2.764
41985SOL    HW127852   0.169  10.158   2.854
41985SOL    HW227853   0.235  10.067   2.751
41986SOL     OW27854  11.175  10.065  10.366
41986SOL    HW127855  11.193  10.145  10.317
41986SOL    HW227856  11.178  10.092  10.458
41987SOL     OW27857  13.415   1.715   8.706
41987SOL    HW127858  13.445   1.677   8.788
41987SOL    HW227859  13.328   1.678   8.692
41988SOL     OW27860  13.924  14.747   2.245
41988SOL    HW127861  13.927  14.842   2.261
41988SOL    HW227862  13.959  14.709   2.326
41989SOL     OW27863   9.846   0.637   9.579
41989SOL    HW127864   9.935   0.602   9.574
41989SOL    HW227865   9.843   0.704   9.512
41990SOL     OW27866  13.475   3.298   1.198
41990SOL    HW127867  13.457   3.390   1.177
41990SOL    HW227868  13.458   3.252   1.116
41991SOL     OW27869   4.024  12.052   5.455
41991SOL    HW127870   4.066  11.986   5.510
41991SOL    HW227871   3.975  12.002   5.390
41992SOL     OW27872  12.972   9.893  11.428
41992SOL    HW127873  12.906   9.919  11.364
41992SOL    HW227874  13.028   9.971  11.437
41993SOL     OW27875   3.621   0.438   3.919
41993SOL    HW127876   3.606   0.520   3.873
41993SOL    HW227877   3.536   0.395   3.920
41994SOL     OW27878  14.864   2.446  11.030
41994SOL    HW127879  14.809   2.517  11.063
41994SOL    HW227880   0.072   2.483  11.030
41995SOL     OW27881   8.610   7.758   5.228
41995SOL    HW127882   8.622   7.828   5.163
41995SOL    HW227883   8.571   7.686   5.179
41996SOL     OW27884  12.270  12.789   8.397
41996SOL    HW127885  12.303  12.872   8.432
41996SOL    HW227886  12.234  12.744   8.474
41997SOL     OW27887   6.776   2.711   1.849
41997SOL    HW127888   6.808   2.717   1.939
41997SOL    HW227889   6.766   2.803   1.821
41998SOL     OW27890  12.279   3.389  10.048
41998SOL    HW127891  12.195   3.416  10.009
41998SOL    HW227892  12.335   3.373   9.973
41999SOL     OW27893   5.293  13.161   5.505
41999SOL    HW127894   5.355  13.088   5.497
41999SOL    HW227895   5.343  13.237   5.473
42000SOL     OW27896   7.399   5.341   8.570
42000SOL    HW127897   7.341   5.416   8.555
42000SOL    HW227898   7.487   5.374   8.553
42001SOL     OW27899  12.505   7.793   6.379
42001SOL    HW127900  12.543   7.714   6.342
42001SOL    HW227901  12.437   7.762   6.439
42002SOL     OW27902   2.400   9.089   2.348
42002SOL    HW127903   2.399   9.107   2.442
42002SOL    HW227904   2.489   9.111   2.320
42003SOL     OW27905   5.832   1.044   4.112
42003SOL    HW127906   5.795   1.095   4.184
42003SOL    HW227907   5.926   1.053   4.122
42004SOL     OW27908  14.722   8.550   7.177
42004SOL    HW127909  14.787   8.619   7.165
42004SOL    HW227910  14.753   8.477   7.123
42005SOL     OW27911  14.169   8.583   3.746
42005SOL    HW127912  14.252   8.626   3.726
42005SOL    HW227913  14.172   8.501   3.696
42006SOL     OW27914   8.669   6.919  11.872
42006SOL    HW127915   8.729   6.859  11.829
42006SOL    HW227916   8.644   6.982  11.804
42007SOL     OW27917  14.229  14.322   2.230
42007SOL    HW127918  14.309  14.280   2.261
42007SOL    HW227919  14.248  14.416   2.235
42008SOL     OW27920   6.603  13.751   5.392
42008SOL    HW127921   6.663  13.729   5.320
42008SOL    HW227922   6.654  13.806   5.450
42009SOL     OW27923   1.931   7.341  14.506
42009SOL    HW127924   1.903   7.282  14.576
42009SOL    HW227925   1.865   7.410  14.505
42010SOL     OW27926  11.001   5.184   5.579
42010SOL    HW127927  11.014   5.092   5.599
42010SOL    HW227928  10.906   5.196   5.576
42011SOL     OW27929   9.148  12.435  10.409
42011SOL    HW127930   9.187  12.519  10.433
42011SOL    HW227931   9.168  12.377  10.482
42012SOL     OW27932  13.408  14.067  13.425
42012SOL    HW127933  13.345  14.127  13.385
42012SOL    HW227934  13.493  14.110  13.413
42013SOL     OW27935  10.451  14.136   5.425
42013SOL    HW127936  10.452  14.054   5.474
42013SOL    HW227937  10.386  14.122   5.356
42014SOL     OW27938   0.675  12.714   9.270
42014SOL    HW127939   0.630  12.771   9.208
42014SOL    HW227940   0.605  12.680   9.326
42015SOL     OW27941  14.015  12.792   4.588
42015SOL    HW127942  14.049  12.881   4.596
42015SOL    HW227943  14.090  12.741   4.557
42016SOL     OW27944  13.868   1.279  14.561
42016SOL    HW127945  13.910   1.197  14.532
42016SOL    HW227946  13.829   1.256  14.645
42017SOL     OW27947   1.503   9.027   2.195
42017SOL    HW127948   1.527   8.952   2.249
42017SOL    HW227949   1.581   9.082   2.193
42018SOL     OW27950  14.782  12.452   7.904
42018SOL    HW127951  14.739  12.529   7.867
42018SOL    HW227952  14.870  12.483   7.928
42019SOL     OW27953   0.561   9.774   2.336
42019SOL    HW127954   0.642   9.819   2.359
42019SOL    HW227955   0.505   9.783   2.414
42020SOL     OW27956  12.935  11.755  13.058
42020SOL    HW127957  12.966  11.665  13.070
42020SOL    HW227958  12.848  11.746  13.021
42021SOL     OW27959  14.539  13.594   1.206
42021SOL    HW127960  14.468  13.637   1.253
42021SOL    HW227961  14.498  13.559   1.127
42022SOL     OW27962   5.120   1.159   4.407
42022SOL    HW127963   5.041   1.126   4.366
42022SOL    HW227964   5.090   1.198   4.489
42023SOL     OW27965  11.749   8.545   7.698
42023SOL    HW127966  11.680   8.486   7.728
42023SOL    HW227967  11.786   8.582   7.778
42024SOL     OW27968   0.410  10.930   2.480
42024SOL    HW127969   0.332  10.985   2.463
42024SOL    HW227970   0.420  10.878   2.400
42025SOL     OW27971  10.020   5.480   6.064
42025SOL    HW127972  10.021   5.575   6.070
42025SOL    HW227973  10.097   5.452   6.114
42026SOL     OW27974   6.256  11.708   3.558
42026SOL    HW127975   6.224  11.772   3.493
42026SOL    HW227976   6.255  11.625   3.512
42027SOL     OW27977   1.938   1.903  13.664
42027SOL    HW127978   1.849   1.907  13.629
42027SOL    HW227979   1.989   1.861  13.595
42028SOL     OW27980   3.044  11.120  12.185
42028SOL    HW127981   3.012  11.040  12.225
42028SOL    HW227982   3.027  11.188  12.251
42029SOL     OW27983  14.741   7.233   1.922
42029SOL    HW127984  14.789   7.249   2.003
42029SOL    HW227985  14.745   7.138   1.910
42030SOL     OW27986  13.389   2.046   0.202
42030SOL    HW127987  13.427   2.117   0.150
42030SOL    HW227988  13.355   2.090   0.280
42031SOL     OW27989   3.521   7.950   3.535
42031SOL    HW127990   3.443   7.960   3.591
42031SOL    HW227991   3.506   7.869   3.488
42032SOL     OW27992   0.988   2.544   2.472
42032SOL    HW127993   0.936   2.516   2.547
42032SOL    HW227994   0.948   2.502   2.397
42033SOL     OW27995  14.416  13.599  13.199
42033SOL    HW127996  14.412  13.591  13.294
42033SOL    HW227997  14.403  13.509  13.167
42034SOL     OW27998  12.293   7.971  11.284
42034SOL    HW127999  12.341   7.901  11.239
42034SOL    HW228000  12.254   7.928  11.360
42035SOL     OW28001   1.986  14.010   6.992
42035SOL    HW128002   1.927  14.052   6.930
42035SOL    HW228003   1.950  13.922   7.003
42036SOL     OW28004   3.647   9.938   0.755
42036SOL    HW128005   3.728   9.987   0.744
42036SOL    HW228006   3.578   9.998   0.727
42037SOL     OW28007   3.098   4.567  10.006
42037SOL    HW128008   3.105   4.634   9.938
42037SOL    HW228009   3.003   4.555  10.018
42038SOL     OW28010  12.979  14.240  11.365
42038SOL    HW128011  12.945  14.160  11.326
42038SOL    HW228012  12.956  14.233  11.458
42039SOL     OW28013  12.646   9.958  10.751
42039SOL    HW128014  12.647   9.904  10.672
42039SOL    HW228015  12.683   9.901  10.819
42040SOL     OW28016  12.943   9.843  14.751
42040SOL    HW128017  13.025   9.837  14.701
42040SOL    HW228018  12.942   9.933  14.783
42041SOL     OW28019   3.902  10.724  14.460
42041SOL    HW128020   3.866  10.698  14.546
42041SOL    HW228021   3.963  10.795  14.480
42042SOL     OW28022   5.027  13.625   7.226
42042SOL    HW128023   4.933  13.642   7.231
42042SOL    HW228024   5.034  13.532   7.205
42043SOL     OW28025  11.924   6.990   4.158
42043SOL    HW128026  11.859   6.948   4.102
42043SOL    HW228027  11.986   6.921   4.179
42044SOL     OW28028   9.497   1.352   0.315
42044SOL    HW128029   9.573   1.398   0.280
42044SOL    HW228030   9.521   1.259   0.312
42045SOL     OW28031   4.065   7.878   8.828
42045SOL    HW128032   4.100   7.935   8.759
42045SOL    HW228033   4.099   7.791   8.807
42046SOL     OW28034   0.239   9.270   7.791
42046SOL    HW128035   0.310   9.230   7.741
42046SOL    HW228036   0.162   9.217   7.771
42047SOL     OW28037  11.563   6.744  13.346
42047SOL    HW128038  11.638   6.691  13.371
42047SOL    HW228039  11.593   6.834  13.352
42048SOL     OW28040   7.915   5.535  12.814
42048SOL    HW128041   7.915   5.599  12.743
42048SOL    HW228042   8.002   5.496  12.812
42049SOL     OW28043   3.974   4.739  11.467
42049SOL    HW128044   4.012   4.767  11.384
42049SOL    HW228045   3.959   4.821  11.515
42050SOL     OW28046   8.162   5.931  10.122
42050SOL    HW128047   8.105   5.964  10.192
42050SOL    HW228048   8.219   6.005  10.100
42051SOL     OW28049  13.678  13.053   8.916
42051SOL    HW128050  13.689  13.008   8.832
42051SOL    HW228051  13.638  13.137   8.893
42052SOL     OW28052   0.350   5.027   3.398
42052SOL    HW128053   0.281   4.962   3.392
42052SOL    HW228054   0.319   5.101   3.345
42053SOL     OW28055   6.036   6.480   3.510
42053SOL    HW128056   5.993   6.433   3.439
42053SOL    HW228057   5.982   6.558   3.523
42054SOL     OW28058  11.889   4.037  13.183
42054SOL    HW128059  11.873   3.946  13.159
42054SOL    HW228060  11.974   4.058  13.143
42055SOL     OW28061   4.843   2.959   7.234
42055SOL    HW128062   4.867   3.034   7.288
42055SOL    HW228063   4.763   2.925   7.273
42056SOL     OW28064   7.580  13.306   2.301
42056SOL    HW128065   7.545  13.340   2.383
42056SOL    HW228066   7.552  13.215   2.298
42057SOL     OW28067  14.092   8.583   5.722
42057SOL    HW128068  14.037   8.662   5.718
42057SOL    HW228069  14.034   8.512   5.693
42058SOL     OW28070   3.395   4.746  13.830
42058SOL    HW128071   3.336   4.691  13.882
42058SOL    HW228072   3.363   4.738  13.740
42059SOL     OW28073   7.617   6.032   5.766
42059SOL    HW128074   7.676   6.042   5.692
42059SOL    HW228075   7.621   6.116   5.812
42060SOL     OW28076  11.574  11.553  10.454
42060SOL    HW128077  11.598  11.635  10.498
42060SOL    HW228078  11.579  11.574  10.360
42061SOL     OW28079   3.787   7.804   0.042
42061SOL    HW128080   3.872   7.766   0.021
42061SOL    HW228081   3.798   7.898   0.030
42062SOL     OW28082   9.022   0.811  13.200
42062SOL    HW128083   9.031   0.716  13.205
42062SOL    HW228084   9.081   0.838  13.130
42063SOL     OW28085   2.390   6.147   9.402
42063SOL    HW128086   2.431   6.177   9.483
42063SOL    HW228087   2.455   6.167   9.334
42064SOL     OW28088   6.860   8.462   7.271
42064SOL    HW128089   6.846   8.531   7.206
42064SOL    HW228090   6.875   8.383   7.219
42065SOL     OW28091   7.894   5.039   1.706
42065SOL    HW128092   7.887   5.007   1.615
42065SOL    HW228093   7.972   4.996   1.740
42066SOL     OW28094   8.309   2.320  10.372
42066SOL    HW128095   8.376   2.256  10.349
42066SOL    HW228096   8.340   2.359  10.454
42067SOL     OW28097  11.913   4.093   7.660
42067SOL    HW128098  11.866   4.056   7.586
42067SOL    HW228099  11.960   4.168   7.624
42068SOL     OW28100  14.044   5.004   7.766
42068SOL    HW128101  13.976   4.994   7.700
42068SOL    HW228102  14.125   5.009   7.715
42069SOL     OW28103  12.400  13.125   6.103
42069SOL    HW128104  12.491  13.099   6.119
42069SOL    HW228105  12.352  13.042   6.098
42070SOL     OW28106  11.397   9.674   7.747
42070SOL    HW128107  11.385   9.681   7.652
42070SOL    HW228108  11.311   9.697   7.784
42071SOL     OW28109   3.714   2.216   4.917
42071SOL    HW128110   3.738   2.193   5.007
42071SOL    HW228111   3.719   2.311   4.914
42072SOL     OW28112   2.094  10.476   7.350
42072SOL    HW128113   2.081  10.500   7.442
42072SOL    HW228114   2.068  10.553   7.300
42073SOL     OW28115  10.593  14.200   0.924
42073SOL    HW128116  10.665  14.258   0.949
42073SOL    HW228117  10.618  14.114   0.960
42074SOL     OW28118   7.833   9.475  13.250
42074SOL    HW128119   7.789   9.412  13.306
42074SOL    HW228120   7.819   9.559  13.293
42075SOL     OW28121   9.985   1.978   3.261
42075SOL    HW128122  10.054   2.034   3.294
42075SOL    HW228123   9.932   1.957   3.338
42076SOL     OW28124  13.077   8.677  12.410
42076SOL    HW128125  13.012   8.610  12.430
42076SOL    HW228126  13.058   8.702  12.319
42077SOL     OW28127   2.680  13.925   6.351
42077SOL    HW128128   2.685  13.851   6.291
42077SOL    HW228129   2.608  13.978   6.318
42078SOL     OW28130   3.512   1.585  14.840
42078SOL    HW128131   3.606   1.586  14.823
42078SOL    HW228132   3.503   1.628   0.045
42079SOL     OW28133   9.374  12.727  14.802
42079SOL    HW128134   9.345  12.772   0.001
42079SOL    HW228135   9.297  12.678  14.773
42080SOL     OW28136   5.790   2.565  10.220
42080SOL    HW128137   5.786   2.661  10.214
42080SOL    HW228138   5.705   2.536  10.187
42081SOL     OW28139  11.524  12.009   8.556
42081SOL    HW128140  11.489  11.969   8.476
42081SOL    HW228141  11.481  11.962   8.627
42082SOL     OW28142   1.106   8.922   7.391
42082SOL    HW128143   1.140   8.836   7.413
42082SOL    HW228144   1.128   8.934   7.298
42083SOL     OW28145   9.254   7.220  13.147
42083SOL    HW128146   9.289   7.193  13.061
42083SOL    HW228147   9.231   7.138  13.190
42084SOL     OW28148   7.214   0.768   9.568
42084SOL    HW128149   7.178   0.698   9.515
42084SOL    HW228150   7.295   0.793   9.523
42085SOL     OW28151  11.293   3.178  13.524
42085SOL    HW128152  11.334   3.132  13.450
42085SOL    HW228153  11.366   3.219  13.570
42086SOL     OW28154   2.908   1.308  12.414
42086SOL    HW128155   2.901   1.354  12.497
42086SOL    HW228156   2.868   1.367  12.350
42087SOL     OW28157   0.596   1.949  13.251
42087SOL    HW128158   0.617   1.890  13.178
42087SOL    HW228159   0.529   2.008  13.216
42088SOL     OW28160  12.025   5.325  11.541
42088SOL    HW128161  12.120   5.322  11.556
42088SOL    HW228162  11.991   5.249  11.588
42089SOL     OW28163  13.993   8.768   1.257
42089SOL    HW128164  14.043   8.756   1.338
42089SOL    HW228165  14.019   8.694   1.202
42090SOL     OW28166   5.846  13.796  13.242
42090SOL    HW128167   5.866  13.766  13.331
42090SOL    HW228168   5.780  13.734  13.210
42091SOL     OW28169   0.779   3.945   3.854
42091SOL    HW128170   0.850   3.952   3.791
42091SOL    HW228171   0.741   4.033   3.858
42092SOL     OW28172   5.496  12.136   3.240
42092SOL    HW128173   5.417  12.148   3.292
42092SOL    HW228174   5.567  12.165   3.298
42093SOL     OW28175   4.880   8.013   9.337
42093SOL    HW128176   4.844   7.937   9.291
42093SOL    HW228177   4.810   8.043   9.394
42094SOL     OW28178  11.902   1.386  10.012
42094SOL    HW128179  11.975   1.443  10.036
42094SOL    HW228180  11.825   1.428  10.049
42095SOL     OW28181  11.915   3.102   3.047
42095SOL    HW128182  11.833   3.108   3.095
42095SOL    HW228183  11.970   3.043   3.100
42096SOL     OW28184  10.917   7.780  11.201
42096SOL    HW128185  10.863   7.759  11.125
42096SOL    HW228186  10.870   7.740  11.275
42097SOL     OW28187   0.568   5.580   7.001
42097SOL    HW128188   0.631   5.516   7.034
42097SOL    HW228189   0.506   5.529   6.950
42098SOL     OW28190  13.419   2.282   3.993
42098SOL    HW128191  13.450   2.193   4.011
42098SOL    HW228192  13.397   2.317   4.080
42099SOL     OW28193   5.046  12.816   4.552
42099SOL    HW128194   5.027  12.812   4.646
42099SOL    HW228195   5.141  12.816   4.546
42100SOL     OW28196   4.014   4.674  14.039
42100SOL    HW128197   3.947   4.618  14.000
42100SOL    HW228198   3.965   4.744  14.083
42101SOL     OW28199   0.650   7.387  12.154
42101SOL    HW128200   0.730   7.417  12.197
42101SOL    HW228201   0.598   7.349  12.225
42102SOL     OW28202   1.328   1.870   4.830
42102SOL    HW128203   1.242   1.870   4.872
42102SOL    HW228204   1.390   1.860   4.902
42103SOL     OW28205  10.495   1.603   5.917
42103SOL    HW128206  10.478   1.677   5.975
42103SOL    HW228207  10.418   1.598   5.861
42104SOL     OW28208   1.257   3.835   7.162
42104SOL    HW128209   1.209   3.892   7.102
42104SOL    HW228210   1.349   3.856   7.146
42105SOL     OW28211   4.333   6.037  13.867
42105SOL    HW128212   4.375   6.099  13.807
42105SOL    HW228213   4.275   6.092  13.921
42106SOL     OW28214   7.302   8.943   0.393
42106SOL    HW128215   7.363   8.953   0.466
42106SOL    HW228216   7.231   8.889   0.429
42107SOL     OW28217   5.821  14.063   1.807
42107SOL    HW128218   5.755  14.081   1.740
42107SOL    HW228219   5.815  14.138   1.867
42108SOL     OW28220   9.828   3.135   8.138
42108SOL    HW128221   9.826   3.211   8.080
42108SOL    HW228222   9.901   3.082   8.105
42109SOL     OW28223  11.101   7.242   1.247
42109SOL    HW128224  11.048   7.195   1.311
42109SOL    HW228225  11.187   7.249   1.288
42110SOL     OW28226  10.384  12.427  12.691
42110SOL    HW128227  10.375  12.332  12.688
42110SOL    HW228228  10.470  12.442  12.731
42111SOL     OW28229  10.823  10.651   7.688
42111SOL    HW128230  10.892  10.679   7.627
42111SOL    HW228231  10.855  10.569   7.725
42112SOL     OW28232  11.134   2.500   9.311
42112SOL    HW128233  11.069   2.546   9.364
42112SOL    HW228234  11.176   2.439   9.372
42113SOL     OW28235  11.169   0.187   4.209
42113SOL    HW128236  11.120   0.206   4.128
42113SOL    HW228237  11.250   0.147   4.178
42114SOL     OW28238  12.635  14.132   9.998
42114SOL    HW128239  12.659  14.167  10.084
42114SOL    HW228240  12.715  14.095   9.963
42115SOL     OW28241   0.521  12.556   0.733
42115SOL    HW128242   0.479  12.600   0.807
42115SOL    HW228243   0.590  12.616   0.706
42116SOL     OW28244   7.144   8.492   3.512
42116SOL    HW128245   7.197   8.485   3.592
42116SOL    HW228246   7.061   8.450   3.534
42117SOL     OW28247   8.717  14.454   8.299
42117SOL    HW128248   8.716  14.422   8.209
42117SOL    HW228249   8.807  14.484   8.314
42118SOL     OW28250  13.745  12.795   7.744
42118SOL    HW128251  13.668  12.793   7.688
42118SOL    HW228252  13.714  12.765   7.829
42119SOL     OW28253  12.185   8.809   0.906
42119SOL    HW128254  12.101   8.823   0.864
42119SOL    HW228255  12.209   8.895   0.940
42120SOL     OW28256  12.925  12.861   1.823
42120SOL    HW128257  12.899  12.924   1.755
42120SOL    HW228258  12.859  12.870   1.891
42121SOL     OW28259   2.041   4.729   7.351
42121SOL    HW128260   1.963   4.773   7.384
42121SOL    HW228261   2.008   4.647   7.314
42122SOL     OW28262   4.894   2.539  14.388
42122SOL    HW128263   4.842   2.588  14.451
42122SOL    HW228264   4.857   2.563  14.303
42123SOL     OW28265   6.557  10.205  11.947
42123SOL    HW128266   6.533  10.212  11.854
42123SOL    HW228267   6.578  10.294  11.973
42124SOL     OW28268   4.383   5.096   0.393
42124SOL    HW128269   4.421   5.049   0.318
42124SOL    HW228270   4.427   5.059   0.469
42125SOL     OW28271   7.757   5.395   8.258
42125SOL    HW128272   7.826   5.420   8.198
42125SOL    HW228273   7.733   5.306   8.233
42126SOL     OW28274  11.978  13.893   3.464
42126SOL    HW128275  12.032  13.814   3.458
42126SOL    HW228276  11.907  13.869   3.523
42127SOL     OW28277   2.008  12.939   0.712
42127SOL    HW128278   1.950  12.960   0.785
42127SOL    HW228279   2.051  13.022   0.691
42128SOL     OW28280   7.320  14.710   7.785
42128SOL    HW128281   7.338  14.789   7.734
42128SOL    HW228282   7.348  14.732   7.874
42129SOL     OW28283   7.078   6.380   6.308
42129SOL    HW128284   7.070   6.428   6.225
42129SOL    HW228285   7.013   6.419   6.365
42130SOL     OW28286   2.465   5.215   1.621
42130SOL    HW128287   2.522   5.168   1.560
42130SOL    HW228288   2.525   5.256   1.684
42131SOL     OW28289   4.398   5.187   3.529
42131SOL    HW128290   4.346   5.263   3.504
42131SOL    HW228291   4.368   5.165   3.617
42132SOL     OW28292   4.299   3.717  14.259
42132SOL    HW128293   4.237   3.734  14.330
42132SOL    HW228294   4.320   3.804  14.224
42133SOL     OW28295   7.909   5.804   3.098
42133SOL    HW128296   7.819   5.835   3.089
42133SOL    HW228297   7.963   5.881   3.076
42134SOL     OW28298   9.840   7.181   1.857
42134SOL    HW128299   9.761   7.139   1.824
42134SOL    HW228300   9.809   7.253   1.912
42135SOL     OW28301  12.924   8.081  14.142
42135SOL    HW128302  12.930   8.176  14.132
42135SOL    HW228303  12.996   8.046  14.089
42136SOL     OW28304   6.966  13.273   0.245
42136SOL    HW128305   6.975  13.336   0.174
42136SOL    HW228306   6.918  13.200   0.206
42137SOL     OW28307   5.568   8.089  14.059
42137SOL    HW128308   5.503   8.132  14.004
42137SOL    HW228309   5.545   7.997  14.056
42138SOL     OW28310  14.752   2.074   6.510
42138SOL    HW128311  14.830   2.074   6.455
42138SOL    HW228312  14.782   2.045   6.596
42139SOL     OW28313   4.910  11.016  13.506
42139SOL    HW128314   4.922  10.922  13.494
42139SOL    HW228315   4.921  11.052  13.418
42140SOL     OW28316   4.609  10.346  13.978
42140SOL    HW128317   4.689  10.292  13.977
42140SOL    HW228318   4.539  10.286  13.953
42141SOL     OW28319   5.849  10.060  10.719
42141SOL    HW128320   5.879  10.027  10.804
42141SOL    HW228321   5.928  10.062  10.665
42142SOL     OW28322   3.496  11.308   9.113
42142SOL    HW128323   3.585  11.343   9.121
42142SOL    HW228324   3.499  11.255   9.033
42143SOL     OW28325   1.398   6.047   1.210
42143SOL    HW128326   1.431   5.959   1.228
42143SOL    HW228327   1.341   6.067   1.284
42144SOL     OW28328   9.638   5.252  11.795
42144SOL    HW128329   9.708   5.256  11.860
42144SOL    HW228330   9.595   5.338  11.801
42145SOL     OW28331  10.641   6.307   2.529
42145SOL    HW128332  10.596   6.305   2.445
42145SOL    HW228333  10.585   6.359   2.586
42146SOL     OW28334   7.823   3.721   3.050
42146SOL    HW128335   7.793   3.697   3.138
42146SOL    HW228336   7.918   3.706   3.053
42147SOL     OW28337   3.583   6.833  13.463
42147SOL    HW128338   3.528   6.868  13.533
42147SOL    HW228339   3.652   6.785  13.508
42148SOL     OW28340   5.584  13.868  11.948
42148SOL    HW128341   5.493  13.890  11.970
42148SOL    HW228342   5.582  13.774  11.934
42149SOL     OW28343  12.940  13.641   3.135
42149SOL    HW128344  12.851  13.653   3.100
42149SOL    HW228345  12.928  13.592   3.216
42150SOL     OW28346   6.981   1.779  12.758
42150SOL    HW128347   6.976   1.864  12.803
42150SOL    HW228348   7.056   1.735  12.798
42151SOL     OW28349  12.725  11.464  12.580
42151SOL    HW128350  12.650  11.519  12.559
42151SOL    HW228351  12.745  11.484  12.671
42152SOL     OW28352  14.846   4.177  11.021
42152SOL    HW128353  14.804   4.096  10.991
42152SOL    HW228354  14.841   4.235  10.945
42153SOL     OW28355   1.854   2.927   9.427
42153SOL    HW128356   1.808   2.979   9.361
42153SOL    HW228357   1.925   2.984   9.456
42154SOL     OW28358   7.910   5.545   0.384
42154SOL    HW128359   7.905   5.641   0.386
42154SOL    HW228360   7.987   5.524   0.438
42155SOL     OW28361   5.180  13.497  10.561
42155SOL    HW128362   5.252  13.530  10.507
42155SOL    HW228363   5.204  13.521  10.650
42156SOL     OW28364  14.249  14.282   1.562
42156SOL    HW128365  14.172  14.325   1.527
42156SOL    HW228366  14.219  14.240   1.642
42157SOL     OW28367   1.917   8.040   4.351
42157SOL    HW128368   2.009   8.016   4.363
42157SOL    HW228369   1.919   8.110   4.285
42158SOL     OW28370   9.268   2.005   6.987
42158SOL    HW128371   9.296   1.921   6.953
42158SOL    HW228372   9.173   2.006   6.974
42159SOL     OW28373   6.736   0.473   6.070
42159SOL    HW128374   6.721   0.514   6.155
42159SOL    HW228375   6.831   0.474   6.059
42160SOL     OW28376   6.460   7.051   4.092
42160SOL    HW128377   6.412   7.125   4.055
42160SOL    HW228378   6.440   7.054   4.186
42161SOL     OW28379  11.824   7.294   8.036
42161SOL    HW128380  11.912   7.262   8.054
42161SOL    HW228381  11.775   7.273   8.116
42162SOL     OW28382  12.787  12.575   4.504
42162SOL    HW128383  12.700  12.586   4.541
42162SOL    HW228384  12.806  12.660   4.463
42163SOL     OW28385   0.070   5.809   5.453
42163SOL    HW128386   0.143   5.822   5.513
42163SOL    HW228387   0.076   5.882   5.391
42164SOL     OW28388  14.717  12.420  13.771
42164SOL    HW128389  14.663  12.452  13.843
42164SOL    HW228390  14.804  12.410  13.808
42165SOL     OW28391  13.389   7.060   0.967
42165SOL    HW128392  13.348   6.973   0.974
42165SOL    HW228393  13.476   7.048   1.005
42166SOL     OW28394   0.389   0.407   5.252
42166SOL    HW128395   0.375   0.360   5.334
42166SOL    HW228396   0.310   0.389   5.201
42167SOL     OW28397   1.804   6.700   4.644
42167SOL    HW128398   1.814   6.618   4.596
42167SOL    HW228399   1.882   6.705   4.700
42168SOL     OW28400   1.169   2.440   2.741
42168SOL    HW128401   1.120   2.416   2.820
42168SOL    HW228402   1.121   2.398   2.669
42169SOL     OW28403  12.161   2.764   3.809
42169SOL    HW128404  12.078   2.790   3.849
42169SOL    HW228405  12.176   2.830   3.741
42170SOL     OW28406   0.266   1.422  12.699
42170SOL    HW128407   0.185   1.413  12.749
42170SOL    HW228408   0.320   1.482  12.750
42171SOL     OW28409   8.488  10.455  13.497
42171SOL    HW128410   8.411  10.487  13.544
42171SOL    HW228411   8.516  10.531  13.444
42172SOL     OW28412   9.576  12.840   0.213
42172SOL    HW128413   9.629  12.894   0.154
42172SOL    HW228414   9.511  12.900   0.249
42173SOL     OW28415   6.291   3.270   6.920
42173SOL    HW128416   6.379   3.282   6.955
42173SOL    HW228417   6.278   3.344   6.860
42174SOL     OW28418   4.359   6.397  10.018
42174SOL    HW128419   4.292   6.384   9.951
42174SOL    HW228420   4.440   6.412   9.969
42175SOL     OW28421   3.523   5.693   7.097
42175SOL    HW128422   3.543   5.765   7.156
42175SOL    HW228423   3.572   5.712   7.018
42176SOL     OW28424   4.804   6.052  12.078
42176SOL    HW128425   4.763   6.021  12.158
42176SOL    HW228426   4.774   5.992  12.010
42177SOL     OW28427  11.943  14.558  13.538
42177SOL    HW128428  11.859  14.525  13.569
42177SOL    HW228429  11.939  14.546  13.443
42178SOL     OW28430   3.088   3.356   9.874
42178SOL    HW128431   3.159   3.350   9.938
42178SOL    HW228432   3.040   3.435   9.900
42179SOL     OW28433  13.740  14.731   3.716
42179SOL    HW128434  13.656  14.712   3.759
42179SOL    HW228435  13.770  14.812   3.756
42180SOL     OW28436   7.222   8.466  14.459
42180SOL    HW128437   7.168   8.409  14.514
42180SOL    HW228438   7.235   8.416  14.378
42181SOL     OW28439   4.434   2.246   8.078
42181SOL    HW128440   4.464   2.328   8.120
42181SOL    HW228441   4.507   2.185   8.091
42182SOL     OW28442  14.543   2.781  10.912
42182SOL    HW128443  14.457   2.823  10.908
42182SOL    HW228444  14.524   2.689  10.927
42183SOL     OW28445   1.419  12.167   4.398
42183SOL    HW128446   1.363  12.106   4.350
42183SOL    HW228447   1.372  12.183   4.480
42184SOL     OW28448  12.171   2.601   9.792
42184SOL    HW128449  12.108   2.605   9.865
42184SOL    HW228450  12.242   2.658   9.819
42185SOL     OW28451  11.512  10.043  10.936
42185SOL    HW128452  11.527  10.025  10.843
42185SOL    HW228453  11.598  10.034  10.976
42186SOL     OW28454  11.754   0.307   1.024
42186SOL    HW128455  11.668   0.266   1.035
42186SOL    HW228456  11.765   0.313   0.929
42187SOL     OW28457   9.442   4.884  11.404
42187SOL    HW128458   9.413   4.833  11.480
42187SOL    HW228459   9.536   4.867  11.400
42188SOL     OW28460   4.956  13.155   3.091
42188SOL    HW128461   4.986  13.126   3.177
42188SOL    HW228462   4.875  13.202   3.109
42189SOL     OW28463  12.481  12.692   5.253
42189SOL    HW128464  12.388  12.680   5.274
42189SOL    HW228465  12.499  12.782   5.277
42190SOL     OW28466  12.101   6.404   2.727
42190SOL    HW128467  12.083   6.367   2.641
42190SOL    HW228468  12.016   6.406   2.771
42191SOL     OW28469   5.015   2.559   9.122
42191SOL    HW128470   5.029   2.613   9.201
42191SOL    HW228471   4.934   2.512   9.140
42192SOL     OW28472   2.425  10.734  13.149
42192SOL    HW128473   2.495  10.778  13.196
42192SOL    HW228474   2.429  10.643  13.179
42193SOL     OW28475   7.388   4.008   7.560
42193SOL    HW128476   7.311   3.953   7.548
42193SOL    HW228477   7.397   4.018   7.654
42194SOL     OW28478   3.587   5.107  13.815
42194SOL    HW128479   3.613   5.097  13.723
42194SOL    HW228480   3.491   5.099  13.814
42195SOL     OW28481   4.925  13.981   6.495
42195SOL    HW128482   4.990  13.913   6.509
42195SOL    HW228483   4.943  14.015   6.408
42196SOL     OW28484   9.088  13.314   0.913
42196SOL    HW128485   9.165  13.365   0.940
42196SOL    HW228486   9.101  13.299   0.820
42197SOL     OW28487  12.309   6.011   3.828
42197SOL    HW128488  12.372   6.077   3.798
42197SOL    HW228489  12.348   5.975   3.907
42198SOL     OW28490   5.841   3.164   5.894
42198SOL    HW128491   5.790   3.093   5.856
42198SOL    HW228492   5.920   3.168   5.841
42199SOL     OW28493  14.727   8.255   1.576
42199SOL    HW128494  14.644   8.212   1.556
42199SOL    HW228495  14.789   8.183   1.584
42200SOL     OW28496   9.936   9.394   4.714
42200SOL    HW128497   9.988   9.441   4.779
42200SOL    HW228498   9.957   9.302   4.729
42201SOL     OW28499  12.253   4.272   4.842
42201SOL    HW128500  12.239   4.188   4.886
42201SOL    HW228501  12.270   4.333   4.914
42202SOL     OW28502  13.265   9.375   9.515
42202SOL    HW128503  13.255   9.451   9.458
42202SOL    HW228504  13.256   9.300   9.455
42203SOL     OW28505  12.952   4.214   4.765
42203SOL    HW128506  13.027   4.202   4.824
42203SOL    HW228507  12.991   4.223   4.678
42204SOL     OW28508   9.666   7.590   8.343
42204SOL    HW128509   9.608   7.657   8.378
42204SOL    HW228510   9.683   7.618   8.253
42205SOL     OW28511  14.481  12.144   5.720
42205SOL    HW128512  14.428  12.217   5.688
42205SOL    HW228513  14.451  12.130   5.810
42206SOL     OW28514  13.701   4.468   9.660
42206SOL    HW128515  13.648   4.547   9.661
42206SOL    HW228516  13.718   4.449   9.752
42207SOL     OW28517  14.108   3.212   8.861
42207SOL    HW128518  14.192   3.199   8.907
42207SOL    HW228519  14.117   3.162   8.781
42208SOL     OW28520  12.660  14.550   7.463
42208SOL    HW128521  12.680  14.504   7.545
42208SOL    HW228522  12.565  14.559   7.463
42209SOL     OW28523  13.054   6.042   9.611
42209SOL    HW128524  13.004   5.969   9.645
42209SOL    HW228525  13.105   6.074   9.686
42210SOL     OW28526  11.622   0.002   4.617
42210SOL    HW128527  11.714  14.861   4.598
42210SOL    HW228528  11.627   0.078   4.676
42211SOL     OW28529   5.683   0.168   4.306
42211SOL    HW128530   5.605   0.208   4.269
42211SOL    HW228531   5.752   0.186   4.243
42212SOL     OW28532   4.804   2.599   9.997
42212SOL    HW128533   4.834   2.628  10.083
42212SOL    HW228534   4.757   2.674   9.961
42213SOL     OW28535   5.813   3.420  10.736
42213SOL    HW128536   5.821   3.444  10.644
42213SOL    HW228537   5.885   3.360  10.752
42214SOL     OW28538   4.703   0.409  13.537
42214SOL    HW128539   4.621   0.438  13.499
42214SOL    HW228540   4.710   0.317  13.515
42215SOL     OW28541  12.891   4.957  14.848
42215SOL    HW128542  12.840   4.887  14.808
42215SOL    HW228543  12.981   4.924  14.851
42216SOL     OW28544  10.388   0.436  12.369
42216SOL    HW128545  10.468   0.424  12.421
42216SOL    HW228546  10.352   0.519  12.401
42217SOL     OW28547   4.946  12.656   9.731
42217SOL    HW128548   4.937  12.723   9.662
42217SOL    HW228549   5.028  12.678   9.775
42218SOL     OW28550   9.772   3.938  13.878
42218SOL    HW128551   9.704   3.871  13.878
42218SOL    HW228552   9.729   4.015  13.916
42219SOL     OW28553   0.805   4.669   4.840
42219SOL    HW128554   0.724   4.720   4.844
42219SOL    HW228555   0.814   4.645   4.748
42220SOL     OW28556  10.797   5.783   1.822
42220SOL    HW128557  10.828   5.701   1.860
42220SOL    HW228558  10.839   5.788   1.736
42221SOL     OW28559   6.320   2.795   4.179
42221SOL    HW128560   6.353   2.846   4.253
42221SOL    HW228561   6.225   2.805   4.184
42222SOL     OW28562  10.384   4.027   1.830
42222SOL    HW128563  10.466   3.985   1.855
42222SOL    HW228564  10.333   4.030   1.910
42223SOL     OW28565   8.720  14.798  11.920
42223SOL    HW128566   8.687  14.852  11.848
42223SOL    HW228567   8.702  14.849  11.999
42224SOL     OW28568   9.306   4.019   4.245
42224SOL    HW128569   9.249   4.042   4.172
42224SOL    HW228570   9.395   4.032   4.212
42225SOL     OW28571  13.884  13.694  12.137
42225SOL    HW128572  13.810  13.677  12.078
42225SOL    HW228573  13.891  13.615  12.190
42226SOL     OW28574   4.822  14.773  10.508
42226SOL    HW128575   4.826  14.687  10.550
42226SOL    HW228576   4.785  14.756  10.422
42227SOL     OW28577  14.496   1.837  10.058
42227SOL    HW128578  14.422   1.789  10.023
42227SOL    HW228579  14.520   1.791  10.138
42228SOL     OW28580   7.239  12.654  13.637
42228SOL    HW128581   7.165  12.594  13.649
42228SOL    HW228582   7.281  12.624  13.556
42229SOL     OW28583   1.279  14.598  14.149
42229SOL    HW128584   1.325  14.514  14.144
42229SOL    HW228585   1.204  14.580  14.207
42230SOL     OW28586   4.099   6.963  14.587
42230SOL    HW128587   4.071   7.051  14.563
42230SOL    HW228588   4.098   6.963  14.683
42231SOL     OW28589   1.155  10.234   3.901
42231SOL    HW128590   1.228  10.203   3.846
42231SOL    HW228591   1.090  10.266   3.838
42232SOL     OW28592   4.640   4.609   9.485
42232SOL    HW128593   4.592   4.546   9.431
42232SOL    HW228594   4.607   4.695   9.457
42233SOL     OW28595   0.917   4.166   4.208
42233SOL    HW128596   0.824   4.148   4.216
42233SOL    HW228597   0.946   4.184   4.297
42234SOL     OW28598  14.640  10.862   9.219
42234SOL    HW128599  14.733  10.851   9.240
42234SOL    HW228600  14.614  10.777   9.183
42235SOL     OW28601   8.402   3.283  13.054
42235SOL    HW128602   8.385   3.221  13.125
42235SOL    HW228603   8.444   3.357  13.097
42236SOL     OW28604  10.167   1.025  13.719
42236SOL    HW128605  10.099   1.084  13.687
42236SOL    HW228606  10.174   0.957  13.651
42237SOL     OW28607   2.876   4.746  13.024
42237SOL    HW128608   2.820   4.675  13.055
42237SOL    HW228609   2.964   4.722  13.054
42238SOL     OW28610  12.896  12.552   8.328
42238SOL    HW128611  12.844  12.472   8.332
42238SOL    HW228612  12.861  12.599   8.252
42239SOL     OW28613   5.845   9.258   7.862
42239SOL    HW128614   5.810   9.257   7.951
42239SOL    HW228615   5.872   9.168   7.845
42240SOL     OW28616   5.940  13.039   5.510
42240SOL    HW128617   5.979  13.125   5.491
42240SOL    HW228618   5.979  13.014   5.594
42241SOL     OW28619   4.114   4.416  14.412
42241SOL    HW128620   4.123   4.508  14.438
42241SOL    HW228621   4.200   4.378  14.427
42242SOL     OW28622  11.434   9.011   0.406
42242SOL    HW128623  11.361   9.035   0.348
42242SOL    HW228624  11.407   8.928   0.445
42243SOL     OW28625   5.524  13.071   3.405
42243SOL    HW128626   5.429  13.081   3.399
42243SOL    HW228627   5.558  13.159   3.387
42244SOL     OW28628  11.032   6.096   6.291
42244SOL    HW128629  11.076   6.141   6.363
42244SOL    HW228630  11.038   6.157   6.218
42245SOL     OW28631   1.255   4.741   9.290
42245SOL    HW128632   1.175   4.732   9.238
42245SOL    HW228633   1.237   4.689   9.369
42246SOL     OW28634   8.433   2.920  12.242
42246SOL    HW128635   8.416   2.877  12.326
42246SOL    HW228636   8.454   3.010  12.264
42247SOL     OW28637   2.646   0.964   4.769
42247SOL    HW128638   2.679   0.992   4.683
42247SOL    HW228639   2.553   0.986   4.767
42248SOL     OW28640  12.920   8.889  12.201
42248SOL    HW128641  12.889   8.852  12.118
42248SOL    HW228642  12.866   8.966  12.215
42249SOL     OW28643   7.933   8.532  14.611
42249SOL    HW128644   7.989   8.536  14.533
42249SOL    HW228645   7.976   8.589  14.674
42250SOL     OW28646   4.742   0.998   3.650
42250SOL    HW128647   4.763   1.032   3.738
42250SOL    HW228648   4.827   0.978   3.611
42251SOL     OW28649  13.154  10.167   4.146
42251SOL    HW128650  13.072  10.217   4.145
42251SOL    HW228651  13.137  10.094   4.206
42252SOL     OW28652   7.462   6.248   0.674
42252SOL    HW128653   7.488   6.165   0.714
42252SOL    HW228654   7.367   6.251   0.685
42253SOL     OW28655   8.626   9.105  13.637
42253SOL    HW128656   8.623   9.171  13.568
42253SOL    HW228657   8.575   9.031  13.602
42254SOL     OW28658  13.325   4.888   3.706
42254SOL    HW128659  13.291   4.799   3.710
42254SOL    HW228660  13.264   4.939   3.760
42255SOL     OW28661  13.349  14.713   1.029
42255SOL    HW128662  13.291  14.696   1.103
42255SOL    HW228663  13.327  14.645   0.965
42256SOL     OW28664   1.711   4.733   6.815
42256SOL    HW128665   1.629   4.739   6.767
42256SOL    HW228666   1.704   4.800   6.883
42257SOL     OW28667  12.995   8.956  10.441
42257SOL    HW128668  12.986   8.958  10.537
42257SOL    HW228669  12.950   8.875  10.415
42258SOL     OW28670   4.809   0.480   3.953
42258SOL    HW128671   4.777   0.512   3.869
42258SOL    HW228672   4.885   0.427   3.931
42259SOL     OW28673  13.644   3.370  14.075
42259SOL    HW128674  13.717   3.374  14.137
42259SOL    HW228675  13.686   3.351  13.991
42260SOL     OW28676   4.582   8.178   2.737
42260SOL    HW128677   4.668   8.208   2.709
42260SOL    HW228678   4.583   8.084   2.720
42261SOL     OW28679   8.733  13.422   2.909
42261SOL    HW128680   8.793  13.485   2.868
42261SOL    HW228681   8.724  13.352   2.844
42262SOL     OW28682   9.012   6.249   9.809
42262SOL    HW128683   8.968   6.328   9.839
42262SOL    HW228684   8.973   6.178   9.860
42263SOL     OW28685   6.513  10.930   9.036
42263SOL    HW128686   6.526  11.017   8.997
42263SOL    HW228687   6.422  10.909   9.019
42264SOL     OW28688   1.442  13.803   3.540
42264SOL    HW128689   1.531  13.802   3.505
42264SOL    HW228690   1.453  13.826   3.632
42265SOL     OW28691   4.948   4.097  13.184
42265SOL    HW128692   4.916   4.075  13.097
42265SOL    HW228693   4.893   4.170  13.213
42266SOL     OW28694   0.618   3.285   4.208
42266SOL    HW128695   0.596   3.373   4.239
42266SOL    HW228696   0.695   3.260   4.258
42267SOL     OW28697   0.083   4.936   9.771
42267SOL    HW128698   0.029   4.903   9.700
42267SOL    HW228699   0.156   4.875   9.777
42268SOL     OW28700   5.944   3.248   9.041
42268SOL    HW128701   5.880   3.208   9.100
42268SOL    HW228702   5.901   3.328   9.010
42269SOL     OW28703   9.361   1.740   5.255
42269SOL    HW128704   9.299   1.688   5.306
42269SOL    HW228705   9.322   1.745   5.168
42270SOL     OW28706   3.871  10.707   9.727
42270SOL    HW128707   3.815  10.666   9.662
42270SOL    HW228708   3.916  10.777   9.679
42271SOL     OW28709  11.115  13.805  11.064
42271SOL    HW128710  11.102  13.712  11.080
42271SOL    HW228711  11.201  13.811  11.023
42272SOL     OW28712  14.324  13.208   3.901
42272SOL    HW128713  14.318  13.304   3.894
42272SOL    HW228714  14.356  13.180   3.816
42273SOL     OW28715  11.320   5.196   8.867
42273SOL    HW128716  11.413   5.214   8.856
42273SOL    HW228717  11.295   5.151   8.786
42274SOL     OW28718   8.104   8.689   9.333
42274SOL    HW128719   8.160   8.757   9.295
42274SOL    HW228720   8.138   8.607   9.297
42275SOL     OW28721  13.309   2.193   8.332
42275SOL    HW128722  13.378   2.194   8.398
42275SOL    HW228723  13.260   2.113   8.351
42276SOL     OW28724   6.516   0.653  11.091
42276SOL    HW128725   6.449   0.613  11.145
42276SOL    HW228726   6.513   0.746  11.113
42277SOL     OW28727   1.623  12.626  11.762
42277SOL    HW128728   1.610  12.647  11.854
42277SOL    HW228729   1.588  12.702  11.715
42278SOL     OW28730   6.440   8.059  13.861
42278SOL    HW128731   6.484   7.982  13.898
42278SOL    HW228732   6.495   8.085  13.788
42279SOL     OW28733   7.111  13.656   2.589
42279SOL    HW128734   7.031  13.638   2.540
42279SOL    HW228735   7.178  13.605   2.544
42280SOL     OW28736   7.460  13.293   1.790
42280SOL    HW128737   7.463  13.352   1.865
42280SOL    HW228738   7.422  13.212   1.825
42281SOL     OW28739   0.532   8.902   5.549
42281SOL    HW128740   0.462   8.889   5.484
42281SOL    HW228741   0.531   8.823   5.602
42282SOL     OW28742   2.356   9.615  13.515
42282SOL    HW128743   2.358   9.637  13.608
42282SOL    HW228744   2.296   9.680  13.477
42283SOL     OW28745  12.876  10.939   8.012
42283SOL    HW128746  12.940  10.875   7.981
42283SOL    HW228747  12.910  11.023   7.982
42284SOL     OW28748   3.088  10.929   1.295
42284SOL    HW128749   3.160  10.955   1.353
42284SOL    HW228750   3.111  10.841   1.266
42285SOL     OW28751  11.198  10.256   7.462
42285SOL    HW128752  11.155  10.180   7.501
42285SOL    HW228753  11.162  10.331   7.509
42286SOL     OW28754   9.331   4.734   1.988
42286SOL    HW128755   9.317   4.646   2.022
42286SOL    HW228756   9.384   4.722   1.910
42287SOL     OW28757   7.793   9.049   1.377
42287SOL    HW128758   7.813   9.098   1.456
42287SOL    HW228759   7.701   9.067   1.360
42288SOL     OW28760   7.025   9.579   7.158
42288SOL    HW128761   6.980   9.511   7.207
42288SOL    HW228762   6.982   9.580   7.072
42289SOL     OW28763   5.851  12.726   0.255
42289SOL    HW128764   5.899  12.763   0.329
42289SOL    HW228765   5.769  12.695   0.293
42290SOL     OW28766   1.448   7.646  14.522
42290SOL    HW128767   1.409   7.669  14.607
42290SOL    HW228768   1.501   7.722  14.498
42291SOL     OW28769   3.963   4.242   9.490
42291SOL    HW128770   3.934   4.232   9.399
42291SOL    HW228771   3.912   4.177   9.539
42292SOL     OW28772  13.888   0.781   0.999
42292SOL    HW128773  13.895   0.692   1.034
42292SOL    HW228774  13.823   0.774   0.929
42293SOL     OW28775   4.220   5.587   3.215
42293SOL    HW128776   4.210   5.496   3.246
42293SOL    HW228777   4.150   5.635   3.259
42294SOL     OW28778   3.993  10.965  14.367
42294SOL    HW128779   4.080  10.960  14.328
42294SOL    HW228780   3.999  11.038  14.429
42295SOL     OW28781   6.547   5.953   4.339
42295SOL    HW128782   6.529   6.046   4.349
42295SOL    HW228783   6.611   5.933   4.407
42296SOL     OW28784   6.842   4.769  13.076
42296SOL    HW128785   6.913   4.706  13.075
42296SOL    HW228786   6.874   4.841  13.131
42297SOL     OW28787  11.947   1.480   6.514
42297SOL    HW128788  11.982   1.503   6.428
42297SOL    HW228789  11.855   1.503   6.509
42298SOL     OW28790   9.531  12.766  10.754
42298SOL    HW128791   9.443  12.748  10.722
42298SOL    HW228792   9.532  12.860  10.772
42299SOL     OW28793   4.909  13.600  13.200
42299SOL    HW128794   4.989  13.617  13.149
42299SOL    HW228795   4.941  13.563  13.282
42300SOL     OW28796  14.364  14.739  14.671
42300SOL    HW128797  14.274  14.753  14.639
42300SOL    HW228798  14.373  14.644  14.677
42301SOL     OW28799   0.539  14.469   3.617
42301SOL    HW128800   0.513  14.513   3.536
42301SOL    HW228801   0.530  14.376   3.598
42302SOL     OW28802   0.697  10.948   3.478
42302SOL    HW128803   0.777  10.951   3.531
42302SOL    HW228804   0.728  10.944   3.388
42303SOL     OW28805   5.259   7.096  12.169
42303SOL    HW128806   5.200   7.025  12.197
42303SOL    HW228807   5.319   7.107  12.243
42304SOL     OW28808   2.300   0.016  13.024
42304SOL    HW128809   2.375   0.046  12.973
42304SOL    HW228810   2.320   0.045  13.113
42305SOL     OW28811  10.767  12.188  10.568
42305SOL    HW128812  10.719  12.119  10.522
42305SOL    HW228813  10.808  12.144  10.642
42306SOL     OW28814   6.019   5.716   3.925
42306SOL    HW128815   6.090   5.764   3.882
42306SOL    HW228816   6.064   5.648   3.976
42307SOL     OW28817   7.940   0.979   3.782
42307SOL    HW128818   7.992   1.055   3.755
42307SOL    HW228819   8.004   0.916   3.813
42308SOL     OW28820   4.557   6.381  14.281
42308SOL    HW128821   4.518   6.362  14.366
42308SOL    HW228822   4.541   6.475  14.267
42309SOL     OW28823  14.457   3.575   1.124
42309SOL    HW128824  14.384   3.625   1.087
42309SOL    HW228825  14.450   3.589   1.218
42310SOL     OW28826   0.958  14.542   0.041
42310SOL    HW128827   1.029  14.573   0.097
42310SOL    HW228828   0.910  14.479   0.095
42311SOL     OW28829   3.050  11.562   6.248
42311SOL    HW128830   3.108  11.489   6.271
42311SOL    HW228831   2.972  11.548   6.301
42312SOL     OW28832  12.697   6.305  14.602
42312SOL    HW128833  12.729   6.237  14.661
42312SOL    HW228834  12.734   6.386  14.636
42313SOL     OW28835   6.793   6.130   5.928
42313SOL    HW128836   6.865   6.158   5.985
42313SOL    HW228837   6.831   6.127   5.841
42314SOL     OW28838   0.191  12.034   8.017
42314SOL    HW128839   0.205  12.109   7.959
42314SOL    HW228840   0.271  12.030   8.070
42315SOL     OW28841   8.194  10.221   0.728
42315SOL    HW128842   8.177  10.290   0.793
42315SOL    HW228843   8.273  10.250   0.683
42316SOL     OW28844   6.671   5.352   5.867
42316SOL    HW128845   6.738   5.326   5.931
42316SOL    HW228846   6.692   5.301   5.789
42317SOL     OW28847  13.799  13.457  13.732
42317SOL    HW128848  13.737  13.516  13.688
42317SOL    HW228849  13.799  13.486  13.823
42318SOL     OW28850   2.072   3.762   6.335
42318SOL    HW128851   2.019   3.747   6.413
42318SOL    HW228852   2.141   3.696   6.340
42319SOL     OW28853   5.082   0.952   5.453
42319SOL    HW128854   5.175   0.933   5.446
42319SOL    HW228855   5.043   0.873   5.490
42320SOL     OW28856  13.464   6.778  12.752
42320SOL    HW128857  13.531   6.796  12.818
42320SOL    HW228858  13.492   6.695  12.713
42321SOL     OW28859   5.952   0.361  11.445
42321SOL    HW128860   5.931   0.290  11.506
42321SOL    HW228861   6.044   0.346  11.422
42322SOL     OW28862   2.085  13.097  12.217
42322SOL    HW128863   2.045  13.079  12.302
42322SOL    HW228864   2.013  13.128  12.162
42323SOL     OW28865   5.642  12.228  12.571
42323SOL    HW128866   5.695  12.172  12.628
42323SOL    HW228867   5.705  12.264  12.508
42324SOL     OW28868  10.986   0.921   5.265
42324SOL    HW128869  10.974   0.840   5.216
42324SOL    HW228870  11.062   0.963   5.224
42325SOL     OW28871   0.263   5.182   5.105
42325SOL    HW128872   0.197   5.231   5.057
42325SOL    HW228873   0.219   5.103   5.134
42326SOL     OW28874   2.118   6.203   3.817
42326SOL    HW128875   2.164   6.152   3.751
42326SOL    HW228876   2.163   6.183   3.899
42327SOL     OW28877   0.289  13.586   7.708
42327SOL    HW128878   0.260  13.553   7.793
42327SOL    HW228879   0.235  13.540   7.644
42328SOL     OW28880   5.741   4.794   3.547
42328SOL    HW128881   5.759   4.885   3.572
42328SOL    HW228882   5.697   4.757   3.623
42329SOL     OW28883   3.595   4.733   2.016
42329SOL    HW128884   3.536   4.772   2.080
42329SOL    HW228885   3.550   4.742   1.932
42330SOL     OW28886  11.880  13.565   6.237
42330SOL    HW128887  11.789  13.593   6.231
42330SOL    HW228888  11.908  13.592   6.325
42331SOL     OW28889   3.315   0.746   3.727
42331SOL    HW128890   3.316   0.761   3.822
42331SOL    HW228891   3.223   0.733   3.706
42332SOL     OW28892   0.049   7.290   8.857
42332SOL    HW128893   0.107   7.361   8.883
42332SOL    HW228894   0.054   7.227   8.929
42333SOL     OW28895  13.095   5.930   0.570
42333SOL    HW128896  13.091   5.911   0.476
42333SOL    HW228897  13.059   6.018   0.578
42334SOL     OW28898   5.140   0.128   2.590
42334SOL    HW128899   5.222   0.164   2.625
42334SOL    HW228900   5.079   0.202   2.592
42335SOL     OW28901   3.624  11.449  11.798
42335SOL    HW128902   3.576  11.438  11.716
42335SOL    HW228903   3.640  11.360  11.829
42336SOL     OW28904   1.704   1.021   9.548
42336SOL    HW128905   1.763   1.095   9.564
42336SOL    HW228906   1.652   1.047   9.472
42337SOL     OW28907   8.303  10.538   8.687
42337SOL    HW128908   8.243  10.468   8.661
42337SOL    HW228909   8.385  10.516   8.645
42338SOL     OW28910   1.246  14.570   9.435
42338SOL    HW128911   1.245  14.635   9.506
42338SOL    HW228912   1.339  14.556   9.416
42339SOL     OW28913   5.375   6.330  13.069
42339SOL    HW128914   5.337   6.314  13.156
42339SOL    HW228915   5.402   6.421  13.071
42340SOL     OW28916  14.342   4.175   4.741
42340SOL    HW128917  14.419   4.230   4.753
42340SOL    HW228918  14.299   4.210   4.663
42341SOL     OW28919   6.648   3.214   6.704
42341SOL    HW128920   6.646   3.207   6.608
42341SOL    HW228921   6.717   3.277   6.722
42342SOL     OW28922   0.934   5.486  10.048
42342SOL    HW128923   0.957   5.449  10.134
42342SOL    HW228924   0.842   5.508  10.056
42343SOL     OW28925   5.983   1.813   0.733
42343SOL    HW128926   5.913   1.783   0.676
42343SOL    HW228927   6.021   1.888   0.688
42344SOL     OW28928   5.904   3.194   3.842
42344SOL    HW128929   5.956   3.268   3.812
42344SOL    HW228930   5.826   3.234   3.881
42345SOL     OW28931   4.224   7.549  10.848
42345SOL    HW128932   4.144   7.568  10.799
42345SOL    HW228933   4.262   7.473  10.803
42346SOL     OW28934   6.688  10.045   7.134
42346SOL    HW128935   6.747   9.998   7.076
42346SOL    HW228936   6.634  10.099   7.076
42347SOL     OW28937   8.883   7.133   8.800
42347SOL    HW128938   8.872   7.080   8.879
42347SOL    HW228939   8.865   7.072   8.728
42348SOL     OW28940   0.259   8.210  11.119
42348SOL    HW128941   0.208   8.130  11.132
42348SOL    HW228942   0.301   8.197  11.034
42349SOL     OW28943   5.364   0.269   9.993
42349SOL    HW128944   5.351   0.180   9.958
42349SOL    HW228945   5.309   0.272  10.071
42350SOL     OW28946   0.359   2.861   2.849
42350SOL    HW128947   0.380   2.782   2.799
42350SOL    HW228948   0.441   2.911   2.851
42351SOL     OW28949   9.849   7.243  12.649
42351SOL    HW128950   9.857   7.336  12.668
42351SOL    HW228951   9.879   7.233  12.559
42352SOL     OW28952   5.247   5.489   6.279
42352SOL    HW128953   5.312   5.556   6.296
42352SOL    HW228954   5.291   5.407   6.299
42353SOL     OW28955  10.165   8.923   1.223
42353SOL    HW128956  10.209   8.954   1.302
42353SOL    HW228957  10.100   8.860   1.254
42354SOL     OW28958   9.947   5.122   6.805
42354SOL    HW128959   9.994   5.189   6.855
42354SOL    HW228960   9.861   5.161   6.789
42355SOL     OW28961   3.255   5.045   1.589
42355SOL    HW128962   3.268   4.952   1.604
42355SOL    HW228963   3.266   5.056   1.494
42356SOL     OW28964   9.541   6.436   4.177
42356SOL    HW128965   9.529   6.384   4.098
42356SOL    HW228966   9.602   6.504   4.153
42357SOL     OW28967  11.866   0.140   3.374
42357SOL    HW128968  11.777   0.170   3.359
42357SOL    HW228969  11.916   0.178   3.302
42358SOL     OW28970   8.088   2.341  13.925
42358SOL    HW128971   8.093   2.387  14.009
42358SOL    HW228972   8.178   2.340  13.893
42359SOL     OW28973   9.567   9.003   6.313
42359SOL    HW128974   9.602   9.062   6.380
42359SOL    HW228975   9.611   8.919   6.329
42360SOL     OW28976  10.762   6.991  13.832
42360SOL    HW128977  10.762   7.031  13.745
42360SOL    HW228978  10.747   7.064  13.892
42361SOL     OW28979   1.098   3.446   4.297
42361SOL    HW128980   1.112   3.427   4.204
42361SOL    HW228981   1.161   3.515   4.316
42362SOL     OW28982   0.896   8.707   1.882
42362SOL    HW128983   0.947   8.773   1.929
42362SOL    HW228984   0.816   8.697   1.934
42363SOL     OW28985  13.133  14.860   1.618
42363SOL    HW128986  13.148  14.857   1.523
42363SOL    HW228987  13.064   0.046   1.629
42364SOL     OW28988  11.554  11.516   8.079
42364SOL    HW128989  11.627  11.575   8.100
42364SOL    HW228990  11.501  11.566   8.017
42365SOL     OW28991   5.879  13.558   9.785
42365SOL    HW128992   5.971  13.537   9.771
42365SOL    HW228993   5.852  13.602   9.704
42366SOL     OW28994   6.600   8.650  14.189
42366SOL    HW128995   6.555   8.605  14.117
42366SOL    HW228996   6.625   8.580  14.249
42367SOL     OW28997  12.643   9.339   1.796
42367SOL    HW128998  12.611   9.301   1.878
42367SOL    HW228999  12.638   9.433   1.809
42368SOL     OW29000  12.081   1.889   4.832
42368SOL    HW129001  11.987   1.908   4.827
42368SOL    HW229002  12.122   1.965   4.792
42369SOL     OW29003   4.675  10.787  13.624
42369SOL    HW129004   4.769  10.808  13.625
42369SOL    HW229005   4.668  10.706  13.674
42370SOL     OW29006   8.642   5.595   7.844
42370SOL    HW129007   8.602   5.664   7.791
42370SOL    HW229008   8.677   5.533   7.780
42371SOL     OW29009   7.841   5.440   5.818
42371SOL    HW129010   7.805   5.418   5.732
42371SOL    HW229011   7.802   5.525   5.840
42372SOL     OW29012  10.292  12.106   5.981
42372SOL    HW129013  10.328  12.086   5.895
42372SOL    HW229014  10.330  12.039   6.039
42373SOL     OW29015  13.629   9.351   8.491
42373SOL    HW129016  13.708   9.375   8.538
42373SOL    HW229017  13.636   9.397   8.407
42374SOL     OW29018  11.950  12.893   5.914
42374SOL    HW129019  11.994  12.813   5.944
42374SOL    HW229020  11.907  12.867   5.833
42375SOL     OW29021  14.725  14.834  11.434
42375SOL    HW129022  14.717   0.048  11.446
42375SOL    HW229023  14.700  14.797  11.518
42376SOL     OW29024  14.011   4.720   5.559
42376SOL    HW129025  14.081   4.765   5.512
42376SOL    HW229026  13.946   4.699   5.491
42377SOL     OW29027   0.215  12.450  14.077
42377SOL    HW129028   0.177  12.472  14.162
42377SOL    HW229029   0.304  12.422  14.097
42378SOL     OW29030   9.331  14.114   7.206
42378SOL    HW129031   9.339  14.018   7.205
42378SOL    HW229032   9.264  14.133   7.142
42379SOL     OW29033   7.038  10.744   9.798
42379SOL    HW129034   7.064  10.655   9.772
42379SOL    HW229035   7.072  10.799   9.727
42380SOL     OW29036   7.457   0.485   1.110
42380SOL    HW129037   7.460   0.409   1.168
42380SOL    HW229038   7.382   0.470   1.052
42381SOL     OW29039   3.418  11.462  12.790
42381SOL    HW129040   3.446  11.544  12.832
42381SOL    HW229041   3.499  11.415  12.771
42382SOL     OW29042  12.109   3.595   9.033
42382SOL    HW129043  12.124   3.603   8.939
42382SOL    HW229044  12.137   3.505   9.053
42383SOL     OW29045   1.416   5.163   2.609
42383SOL    HW129046   1.447   5.253   2.608
42383SOL    HW229047   1.490   5.112   2.643
42384SOL     OW29048   4.389   7.615  14.851
42384SOL    HW129049   4.478   7.651  14.848
42384SOL    HW229050   4.347   7.661   0.043
42385SOL     OW29051  12.547   0.285   6.907
42385SOL    HW129052  12.615   0.220   6.926
42385SOL    HW229053  12.515   0.263   6.820
42386SOL     OW29054   3.298   8.646  12.420
42386SOL    HW129055   3.378   8.699  12.431
42386SOL    HW229056   3.309   8.574  12.482
42387SOL     OW29057   3.530   1.708  10.357
42387SOL    HW129058   3.468   1.717  10.429
42387SOL    HW229059   3.478   1.676  10.284
42388SOL     OW29060   4.094   3.173  10.866
42388SOL    HW129061   3.999   3.184  10.866
42388SOL    HW229062   4.122   3.207  10.951
42389SOL     OW29063  13.789  13.952  13.464
42389SOL    HW129064  13.740  14.009  13.524
42389SOL    HW229065  13.729  13.939  13.391
42390SOL     OW29066   5.528  11.085  10.358
42390SOL    HW129067   5.515  11.049  10.446
42390SOL    HW229068   5.446  11.066  10.312
42391SOL     OW29069  10.478   4.119  14.747
42391SOL    HW129070  10.513   4.208  14.747
42391SOL    HW229071  10.410   4.119  14.813
42392SOL     OW29072   8.910  13.954  10.358
42392SOL    HW129073   8.913  13.861  10.334
42392SOL    HW229074   9.000  13.984  10.353
42393SOL     OW29075  13.616  12.242  12.248
42393SOL    HW129076  13.627  12.174  12.182
42393SOL    HW229077  13.531  12.224  12.288
42394SOL     OW29078   8.552   4.631   3.790
42394SOL    HW129079   8.637   4.586   3.789
42394SOL    HW229080   8.491   4.567   3.826
42395SOL     OW29081  13.350   6.949   9.456
42395SOL    HW129082  13.278   6.887   9.464
42395SOL    HW229083  13.409   6.926   9.528
42396SOL     OW29084   9.240  13.932   5.614
42396SOL    HW129085   9.237  13.946   5.709
42396SOL    HW229086   9.306  13.995   5.583
42397SOL     OW29087   3.413  14.592  12.507
42397SOL    HW129088   3.455  14.545  12.435
42397SOL    HW229089   3.356  14.655  12.463
42398SOL     OW29090  13.518   1.712   0.730
42398SOL    HW129091  13.557   1.670   0.654
42398SOL    HW229092  13.566   1.677   0.805
42399SOL     OW29093  10.172   9.076   8.829
42399SOL    HW129094  10.230   9.000   8.818
42399SOL    HW229095  10.227   9.151   8.809
42400SOL     OW29096   3.409  13.032   3.732
42400SOL    HW129097   3.369  12.989   3.656
42400SOL    HW229098   3.496  12.993   3.738
42401SOL     OW29099   7.997   4.906   7.665
42401SOL    HW129100   7.946   4.873   7.592
42401SOL    HW229101   7.938   4.965   7.712
42402SOL     OW29102  10.218   9.074   0.086
42402SOL    HW129103  10.162   9.041   0.157
42402SOL    HW229104  10.271   8.998   0.060
42403SOL     OW29105   6.408   4.224   1.115
42403SOL    HW129106   6.349   4.157   1.081
42403SOL    HW229107   6.364   4.307   1.096
42404SOL     OW29108   5.935  13.732   0.714
42404SOL    HW129109   6.008  13.794   0.722
42404SOL    HW229110   5.882  13.748   0.793
42405SOL     OW29111  12.787   1.243   0.303
42405SOL    HW129112  12.861   1.219   0.359
42405SOL    HW229113  12.799   1.189   0.224
42406SOL     OW29114   9.818   6.189  12.796
42406SOL    HW129115   9.910   6.163  12.803
42406SOL    HW229116   9.786   6.143  12.718
42407SOL     OW29117   4.889   9.725   1.838
42407SOL    HW129118   4.809   9.751   1.883
42407SOL    HW229119   4.895   9.631   1.853
42408SOL     OW29120   5.023  10.429   7.294
42408SOL    HW129121   5.022  10.361   7.226
42408SOL    HW229122   5.100  10.409   7.347
42409SOL     OW29123   4.993   2.331  14.679
42409SOL    HW129124   5.070   2.385  14.659
42409SOL    HW229125   5.000   2.256  14.620
42410SOL     OW29126   2.411  10.036   6.853
42410SOL    HW129127   2.384  10.110   6.799
42410SOL    HW229128   2.434   9.968   6.791
42411SOL     OW29129   3.247   4.637   0.749
42411SOL    HW129130   3.162   4.631   0.705
42411SOL    HW229131   3.292   4.556   0.724
42412SOL     OW29132   8.415   0.656   3.189
42412SOL    HW129133   8.357   0.709   3.134
42412SOL    HW229134   8.436   0.580   3.135
42413SOL     OW29135   6.407  10.439   1.285
42413SOL    HW129136   6.431  10.359   1.239
42413SOL    HW229137   6.311  10.441   1.282
42414SOL     OW29138   8.914   7.266   6.444
42414SOL    HW129139   8.986   7.313   6.401
42414SOL    HW229140   8.926   7.285   6.537
42415SOL     OW29141   3.338  12.389  13.640
42415SOL    HW129142   3.349  12.325  13.710
42415SOL    HW229143   3.356  12.341  13.560
42416SOL     OW29144  11.856   0.988  13.801
42416SOL    HW129145  11.816   1.075  13.800
42416SOL    HW229146  11.839   0.952  13.714
42417SOL     OW29147   7.375   8.838  13.910
42417SOL    HW129148   7.329   8.876  13.985
42417SOL    HW229149   7.467   8.839  13.937
42418SOL     OW29150   8.119   0.316   4.376
42418SOL    HW129151   8.054   0.290   4.310
42418SOL    HW229152   8.178   0.241   4.381
42419SOL     OW29153   4.046  11.868   4.525
42419SOL    HW129154   3.970  11.839   4.474
42419SOL    HW229155   4.071  11.951   4.484
42420SOL     OW29156  12.541   9.897   6.875
42420SOL    HW129157  12.488   9.954   6.820
42420SOL    HW229158  12.481   9.868   6.945
42421SOL     OW29159  13.409   1.551  10.919
42421SOL    HW129160  13.460   1.632  10.926
42421SOL    HW229161  13.377   1.534  11.007
42422SOL     OW29162   3.838   4.163  12.084
42422SOL    HW129163   3.781   4.086  12.084
42422SOL    HW229164   3.827   4.201  12.170
42423SOL     OW29165   3.052  10.752   9.895
42423SOL    HW129166   3.106  10.802   9.833
42423SOL    HW229167   3.054  10.803   9.975
42424SOL     OW29168   7.555  11.322   6.311
42424SOL    HW129169   7.621  11.284   6.369
42424SOL    HW229170   7.499  11.373   6.370
42425SOL     OW29171   8.953  11.373   0.484
42425SOL    HW129172   9.001  11.420   0.416
42425SOL    HW229173   8.968  11.424   0.563
42426SOL     OW29174   8.904  11.265  10.360
42426SOL    HW129175   8.823  11.247  10.313
42426SOL    HW229176   8.877  11.271  10.452
42427SOL     OW29177  12.129   0.228  13.935
42427SOL    HW129178  12.210   0.214  13.984
42427SOL    HW229179  12.150   0.299  13.874
42428SOL     OW29180  11.329   1.874   4.297
42428SOL    HW129181  11.328   1.824   4.215
42428SOL    HW229182  11.333   1.807   4.366
42429SOL     OW29183  10.271   1.483   5.403
42429SOL    HW129184  10.230   1.432   5.333
42429SOL    HW229185  10.337   1.536   5.358
42430SOL     OW29186   8.486  10.587   2.606
42430SOL    HW129187   8.564  10.536   2.584
42430SOL    HW229188   8.417  10.522   2.618
42431SOL     OW29189  11.618   0.388   3.591
42431SOL    HW129190  11.539   0.338   3.611
42431SOL    HW229191  11.629   0.377   3.496
42432SOL     OW29192  13.144   8.481  13.956
42432SOL    HW129193  13.056   8.448  13.940
42432SOL    HW229194  13.202   8.410  13.927
42433SOL     OW29195   3.878   0.044   0.417
42433SOL    HW129196   3.951   0.104   0.406
42433SOL    HW229197   3.826   0.053   0.337
42434SOL     OW29198  13.522   6.806   8.442
42434SOL    HW129199  13.447   6.747   8.437
42434SOL    HW229200  13.594   6.758   8.401
42435SOL     OW29201   9.998   6.426   4.892
42435SOL    HW129202   9.946   6.390   4.964
42435SOL    HW229203  10.062   6.483   4.936
42436SOL     OW29204   0.619   9.083  12.311
42436SOL    HW129205   0.575   9.103  12.393
42436SOL    HW229206   0.693   9.145  12.308
42437SOL     OW29207   7.832  13.936   1.020
42437SOL    HW129208   7.741  13.906   1.014
42437SOL    HW229209   7.826  14.031   1.007
42438SOL     OW29210   7.299  13.256   9.642
42438SOL    HW129211   7.290  13.332   9.701
42438SOL    HW229212   7.222  13.202   9.661
42439SOL     OW29213  13.188  12.920   9.882
42439SOL    HW129214  13.208  12.860   9.954
42439SOL    HW229215  13.110  12.967   9.912
42440SOL     OW29216   0.149   5.496  13.680
42440SOL    HW129217   0.189   5.579  13.705
42440SOL    HW229218   0.095   5.471  13.756
42441SOL     OW29219   3.255  14.689   5.859
42441SOL    HW129220   3.271  14.756   5.925
42441SOL    HW229221   3.164  14.663   5.873
42442SOL     OW29222  10.725  12.623   6.995
42442SOL    HW129223  10.665  12.697   6.990
42442SOL    HW229224  10.784  12.645   7.068
42443SOL     OW29225   5.507  12.464   1.272
42443SOL    HW129226   5.488  12.376   1.239
42443SOL    HW229227   5.600  12.477   1.257
42444SOL     OW29228   4.201   6.682   0.044
42444SOL    HW129229   4.294   6.662   0.032
42444SOL    HW229230   4.156   6.625  14.862
42445SOL     OW29231   9.648  10.880  10.914
42445SOL    HW129232   9.598  10.864  10.834
42445SOL    HW229233   9.607  10.958  10.952
42446SOL     OW29234  10.898  11.587  14.022
42446SOL    HW129235  10.836  11.659  14.035
42446SOL    HW229236  10.898  11.573  13.927
42447SOL     OW29237  14.855  10.133   0.091
42447SOL    HW129238  14.783  10.195   0.091
42447SOL    HW229239   0.054  10.187   0.091
42448SOL     OW29240   8.905  12.328   4.705
42448SOL    HW129241   8.908  12.366   4.617
42448SOL    HW229242   8.865  12.396   4.759
42449SOL     OW29243   8.509   8.434  11.624
42449SOL    HW129244   8.448   8.418  11.552
42449SOL    HW229245   8.506   8.353  11.676
42450SOL     OW29246  11.058  14.723   5.701
42450SOL    HW129247  11.082  14.793   5.641
42450SOL    HW229248  10.964  14.737   5.718
42451SOL     OW29249  10.373   3.295   6.388
42451SOL    HW129250  10.452   3.285   6.334
42451SOL    HW229251  10.385   3.379   6.432
42452SOL     OW29252   7.766  10.747   8.256
42452SOL    HW129253   7.732  10.677   8.200
42452SOL    HW229254   7.689  10.787   8.295
42453SOL     OW29255  14.123   2.532  12.337
42453SOL    HW129256  14.157   2.463  12.395
42453SOL    HW229257  14.111   2.608  12.395
42454SOL     OW29258   9.732   5.979   6.962
42454SOL    HW129259   9.668   6.048   6.951
42454SOL    HW229260   9.731   5.931   6.878
42455SOL     OW29261  11.344   7.164   5.021
42455SOL    HW129262  11.341   7.247   4.973
42455SOL    HW229263  11.410   7.179   5.089
42456SOL     OW29264  11.503   2.496  13.917
42456SOL    HW129265  11.565   2.424  13.927
42456SOL    HW229266  11.430   2.458  13.869
42457SOL     OW29267   6.979  13.827   9.825
42457SOL    HW129268   6.980  13.876   9.743
42457SOL    HW229269   6.888  13.803   9.839
42458SOL     OW29270   3.465   3.068  13.529
42458SOL    HW129271   3.425   2.983  13.512
42458SOL    HW229272   3.418   3.128  13.471
42459SOL     OW29273  12.480   5.798   6.007
42459SOL    HW129274  12.459   5.708   6.033
42459SOL    HW229275  12.471   5.798   5.912
42460SOL     OW29276   7.119   9.229  10.105
42460SOL    HW129277   7.137   9.264  10.018
42460SOL    HW229278   7.181   9.158  10.116
42461SOL     OW29279   8.563   1.442  12.829
42461SOL    HW129280   8.536   1.512  12.770
42461SOL    HW229281   8.578   1.367  12.771
42462SOL     OW29282   7.085   3.199   0.464
42462SOL    HW129283   7.058   3.183   0.374
42462SOL    HW229284   7.018   3.259   0.498
42463SOL     OW29285   2.004   3.569  11.836
42463SOL    HW129286   2.084   3.621  11.823
42463SOL    HW229287   1.981   3.584  11.927
42464SOL     OW29288  12.588   6.878   7.773
42464SOL    HW129289  12.548   6.792   7.788
42464SOL    HW229290  12.683   6.861   7.775
42465SOL     OW29291   4.671   9.842   7.967
42465SOL    HW129292   4.704   9.754   7.984
42465SOL    HW229293   4.632   9.837   7.880
42466SOL     OW29294  11.318   0.519  14.405
42466SOL    HW129295  11.276   0.542  14.322
42466SOL    HW229296  11.324   0.601  14.453
42467SOL     OW29297   2.956   3.555   0.898
42467SOL    HW129298   2.962   3.527   0.989
42467SOL    HW229299   2.947   3.650   0.902
42468SOL     OW29300  12.300  13.966   1.295
42468SOL    HW129301  12.229  14.030   1.292
42468SOL    HW229302  12.323  13.958   1.388
42469SOL     OW29303   5.812  10.196   6.656
42469SOL    HW129304   5.717  10.189   6.662
42469SOL    HW229305   5.834  10.159   6.570
42470SOL     OW29306  13.329   2.897   7.234
42470SOL    HW129307  13.292   2.903   7.322
42470SOL    HW229308  13.369   2.982   7.218
42471SOL     OW29309   1.086   0.706   1.099
42471SOL    HW129310   1.146   0.737   1.031
42471SOL    HW229311   1.139   0.706   1.179
42472SOL     OW29312   6.860   1.058   2.138
42472SOL    HW129313   6.796   1.118   2.099
42472SOL    HW229314   6.841   0.974   2.098
42473SOL     OW29315   7.284  12.678   0.025
42473SOL    HW129316   7.223  12.751   0.012
42473SOL    HW229317   7.365  12.719   0.054
42474SOL     OW29318   8.827  11.545   9.131
42474SOL    HW129319   8.897  11.548   9.196
42474SOL    HW229320   8.821  11.636   9.099
42475SOL     OW29321   7.557  10.234  14.680
42475SOL    HW129322   7.539  10.220  14.773
42475SOL    HW229323   7.611  10.312  14.677
42476SOL     OW29324   9.536   1.880  13.373
42476SOL    HW129325   9.485   1.895  13.294
42476SOL    HW229326   9.473   1.844  13.436
42477SOL     OW29327   7.280  11.845   0.048
42477SOL    HW129328   7.300  11.854   0.142
42477SOL    HW229329   7.293  11.933   0.013
42478SOL     OW29330   2.284  13.604  10.696
42478SOL    HW129331   2.328  13.543  10.757
42478SOL    HW229332   2.204  13.559  10.671
42479SOL     OW29333   5.691   6.081  13.692
42479SOL    HW129334   5.769   6.105  13.642
42479SOL    HW229335   5.674   5.990  13.668
42480SOL     OW29336   3.093   8.220   2.392
42480SOL    HW129337   3.145   8.226   2.472
42480SOL    HW229338   3.045   8.138   2.400
42481SOL     OW29339   9.756   7.526  11.953
42481SOL    HW129340   9.661   7.520  11.947
42481SOL    HW229341   9.775   7.507  12.045
42482SOL     OW29342   0.119   8.753   8.623
42482SOL    HW129343   0.179   8.696   8.575
42482SOL    HW229344   0.154   8.757   8.712
42483SOL     OW29345   1.970  11.977  13.765
42483SOL    HW129346   2.043  12.005  13.820
42483SOL    HW229347   1.979  11.881  13.762
42484SOL     OW29348   8.444  11.450   1.578
42484SOL    HW129349   8.529  11.488   1.601
42484SOL    HW229350   8.386  11.526   1.566
42485SOL     OW29351   6.949  11.733  12.376
42485SOL    HW129352   6.923  11.727  12.468
42485SOL    HW229353   6.934  11.825  12.353
42486SOL     OW29354   3.736  10.600   9.513
42486SOL    HW129355   3.800  10.587   9.444
42486SOL    HW229356   3.721  10.513   9.549
42487SOL     OW29357  13.841  12.348   7.587
42487SOL    HW129358  13.879  12.319   7.671
42487SOL    HW229359  13.779  12.416   7.611
42488SOL     OW29360  14.487   1.542   5.786
42488SOL    HW129361  14.417   1.481   5.808
42488SOL    HW229362  14.459   1.625   5.825
42489SOL     OW29363   9.336   9.718  10.295
42489SOL    HW129364   9.274   9.646  10.287
42489SOL    HW229365   9.286   9.796  10.270
42490SOL     OW29366   5.855   1.236   2.733
42490SOL    HW129367   5.840   1.328   2.754
42490SOL    HW229368   5.923   1.237   2.666
42491SOL     OW29369   2.835   2.622   6.159
42491SOL    HW129370   2.876   2.632   6.245
42491SOL    HW229371   2.766   2.688   6.156
42492SOL     OW29372  12.935  12.433   7.375
42492SOL    HW129373  12.986  12.380   7.314
42492SOL    HW229374  12.867  12.373   7.407
42493SOL     OW29375  10.785   3.543   9.914
42493SOL    HW129376  10.858   3.578   9.965
42493SOL    HW229377  10.769   3.456   9.949
42494SOL     OW29378   3.816  13.028   9.435
42494SOL    HW129379   3.867  13.094   9.389
42494SOL    HW229380   3.801  13.066   9.522
42495SOL     OW29381   9.063   0.113   8.286
42495SOL    HW129382   9.096   0.101   8.375
42495SOL    HW229383   9.103   0.043   8.235
42496SOL     OW29384   5.563   8.710   2.035
42496SOL    HW129385   5.526   8.765   2.103
42496SOL    HW229386   5.488   8.659   2.002
42497SOL     OW29387   3.973   2.609   4.360
42497SOL    HW129388   4.067   2.616   4.379
42497SOL    HW229389   3.960   2.517   4.338
42498SOL     OW29390  11.786  12.652   8.755
42498SOL    HW129391  11.811  12.744   8.761
42498SOL    HW229392  11.752  12.642   8.666
42499SOL     OW29393   6.760   7.633   8.938
42499SOL    HW129394   6.785   7.570   9.005
42499SOL    HW229395   6.770   7.586   8.855
42500SOL     OW29396   9.145   4.093   7.139
42500SOL    HW129397   9.055   4.090   7.173
42500SOL    HW229398   9.135   4.085   7.044
42501SOL     OW29399   9.837  13.791  11.602
42501SOL    HW129400   9.904  13.769  11.537
42501SOL    HW229401   9.864  13.744  11.681
42502SOL     OW29402  13.470   4.127   6.123
42502SOL    HW129403  13.498   4.175   6.201
42502SOL    HW229404  13.536   4.058   6.112
42503SOL     OW29405   2.322  14.255  13.275
42503SOL    HW129406   2.339  14.195  13.347
42503SOL    HW229407   2.358  14.338  13.304
42504SOL     OW29408   6.148   4.645   0.582
42504SOL    HW129409   6.127   4.561   0.540
42504SOL    HW229410   6.243   4.642   0.593
42505SOL     OW29411   0.386  11.635  11.438
42505SOL    HW129412   0.323  11.674  11.498
42505SOL    HW229413   0.351  11.655  11.351
42506SOL     OW29414   8.770   6.067   0.161
42506SOL    HW129415   8.792   6.146   0.111
42506SOL    HW229416   8.854   6.025   0.178
42507SOL     OW29417   5.324   8.616   7.998
42507SOL    HW129418   5.296   8.545   7.939
42507SOL    HW229419   5.279   8.598   8.080
42508SOL     OW29420   5.139  10.452   2.166
42508SOL    HW129421   5.107  10.491   2.084
42508SOL    HW229422   5.197  10.519   2.202
42509SOL     OW29423   5.619   6.873   3.089
42509SOL    HW129424   5.704   6.909   3.115
42509SOL    HW229425   5.637   6.827   3.007
42510SOL     OW29426   0.856   6.586  11.712
42510SOL    HW129427   0.868   6.500  11.751
42510SOL    HW229428   0.782   6.576  11.653
42511SOL     OW29429  13.219   8.484  11.623
42511SOL    HW129430  13.172   8.566  11.638
42511SOL    HW229431  13.168   8.440  11.555
42512SOL     OW29432   5.876   1.735   7.901
42512SOL    HW129433   5.835   1.813   7.867
42512SOL    HW229434   5.968   1.759   7.912
42513SOL     OW29435   3.639   8.909   3.841
42513SOL    HW129436   3.636   9.003   3.826
42513SOL    HW229437   3.607   8.870   3.759
42514SOL     OW29438  13.394   7.576  14.422
42514SOL    HW129439  13.306   7.554  14.392
42514SOL    HW229440  13.449   7.568  14.345
42515SOL     OW29441   5.217  10.114   6.096
42515SOL    HW129442   5.224  10.067   6.179
42515SOL    HW229443   5.275  10.190   6.106
42516SOL     OW29444   7.051   9.809  10.145
42516SOL    HW129445   7.141   9.780  10.159
42516SOL    HW229446   6.997   9.735  10.175
42517SOL     OW29447   0.337   0.737  13.252
42517SOL    HW129448   0.328   0.642  13.259
42517SOL    HW229449   0.429   0.754  13.272
42518SOL     OW29450  14.477  10.113  12.425
42518SOL    HW129451  14.439  10.201  12.421
42518SOL    HW229452  14.564  10.124  12.385
42519SOL     OW29453   2.200   6.689   5.849
42519SOL    HW129454   2.125   6.747   5.838
42519SOL    HW229455   2.200   6.666   5.942
42520SOL     OW29456   9.072   4.156   3.776
42520SOL    HW129457   9.103   4.222   3.714
42520SOL    HW229458   8.989   4.190   3.809
42521SOL     OW29459   6.983   3.054   6.925
42521SOL    HW129460   6.999   2.993   6.997
42521SOL    HW229461   6.888   3.059   6.918
42522SOL     OW29462  14.573   7.128   1.161
42522SOL    HW129463  14.497   7.125   1.220
42522SOL    HW229464  14.648   7.113   1.219
42523SOL     OW29465   9.019   5.906   3.831
42523SOL    HW129466   8.964   5.884   3.906
42523SOL    HW229467   9.108   5.911   3.867
42524SOL     OW29468  14.308   1.416  14.588
42524SOL    HW129469  14.315   1.350  14.518
42524SOL    HW229470  14.257   1.372  14.656
42525SOL     OW29471  11.817   9.234   6.394
42525SOL    HW129472  11.822   9.326   6.417
42525SOL    HW229473  11.877   9.191   6.455
42526SOL     OW29474  13.808   8.569   9.437
42526SOL    HW129475  13.885   8.560   9.380
42526SOL    HW229476  13.842   8.613   9.516
42527SOL     OW29477   2.575   0.829   2.864
42527SOL    HW129478   2.497   0.862   2.907
42527SOL    HW229479   2.550   0.818   2.772
42528SOL     OW29480  10.770  13.060  10.704
42528SOL    HW129481  10.769  13.061  10.799
42528SOL    HW229482  10.809  12.976  10.680
42529SOL     OW29483   0.568  12.317  10.075
42529SOL    HW129484   0.628  12.387  10.101
42529SOL    HW229485   0.570  12.319   9.979
42530SOL     OW29486   1.522   7.503   5.256
42530SOL    HW129487   1.475   7.481   5.336
42530SOL    HW229488   1.528   7.421   5.208
42531SOL     OW29489  11.618   9.136   3.181
42531SOL    HW129490  11.624   9.138   3.276
42531SOL    HW229491  11.706   9.158   3.150
42532SOL     OW29492   4.866  10.111  12.678
42532SOL    HW129493   4.875  10.202  12.707
42532SOL    HW229494   4.953  10.087  12.647
42533SOL     OW29495   2.660  11.527   7.529
42533SOL    HW129496   2.695  11.495   7.612
42533SOL    HW229497   2.644  11.620   7.544
42534SOL     OW29498   1.298  13.670   0.129
42534SOL    HW129499   1.225  13.612   0.153
42534SOL    HW229500   1.266  13.758   0.150
42535SOL     OW29501   2.790   5.922   4.010
42535SOL    HW129502   2.853   5.975   3.962
42535SOL    HW229503   2.772   5.848   3.953
42536SOL     OW29504  10.479   8.737  13.142
42536SOL    HW129505  10.464   8.643  13.128
42536SOL    HW229506  10.573   8.744  13.158
42537SOL     OW29507   6.008  14.598   9.301
42537SOL    HW129508   5.998  14.572   9.210
42537SOL    HW229509   5.966  14.529   9.351
42538SOL     OW29510  13.976   2.521   1.583
42538SOL    HW129511  13.933   2.584   1.524
42538SOL    HW229512  14.066   2.552   1.589
42539SOL     OW29513  12.322   7.741   3.466
42539SOL    HW129514  12.356   7.658   3.432
42539SOL    HW229515  12.376   7.759   3.543
42540SOL     OW29516   3.162   5.232  14.393
42540SOL    HW129517   3.236   5.229  14.331
42540SOL    HW229518   3.155   5.143  14.426
42541SOL     OW29519  10.384   0.849  12.869
42541SOL    HW129520  10.394   0.808  12.955
42541SOL    HW229521  10.395   0.942  12.885
42542SOL     OW29522   7.730   9.668  13.672
42542SOL    HW129523   7.687   9.584  13.691
42542SOL    HW229524   7.693   9.694  13.588
42543SOL     OW29525   7.715   9.177   3.015
42543SOL    HW129526   7.690   9.132   3.096
42543SOL    HW229527   7.631   9.197   2.973
42544SOL     OW29528   2.743   3.405   2.365
42544SOL    HW129529   2.750   3.500   2.382
42544SOL    HW229530   2.834   3.375   2.360
42545SOL     OW29531   3.832  10.954   1.319
42545SOL    HW129532   3.848  10.959   1.413
42545SOL    HW229533   3.779  10.875   1.309
42546SOL     OW29534   7.427  10.507   8.218
42546SOL    HW129535   7.354  10.451   8.195
42546SOL    HW229536   7.443  10.560   8.140
42547SOL     OW29537  13.553   6.467   8.622
42547SOL    HW129538  13.549   6.391   8.563
42547SOL    HW229539  13.647   6.481   8.637
42548SOL     OW29540   7.194   9.560   9.393
42548SOL    HW129541   7.220   9.520   9.310
42548SOL    HW229542   7.224   9.651   9.386
42549SOL     OW29543   2.437   9.085  13.318
42549SOL    HW129544   2.484   9.141  13.379
42549SOL    HW229545   2.360   9.136  13.293
42550SOL     OW29546  11.074  12.056  14.418
42550SOL    HW129547  11.162  12.028  14.440
42550SOL    HW229548  11.084  12.147  14.391
42551SOL     OW29549   1.909   8.649   4.287
42551SOL    HW129550   1.973   8.708   4.247
42551SOL    HW229551   1.927   8.654   4.380
42552SOL     OW29552   2.179   1.323   0.271
42552SOL    HW129553   2.174   1.365   0.357
42552SOL    HW229554   2.255   1.265   0.277
42553SOL     OW29555   4.508   4.386  13.523
42553SOL    HW129556   4.430   4.427  13.561
42553SOL    HW229557   4.476   4.305  13.485
42554SOL     OW29558  11.249  13.484   0.769
42554SOL    HW129559  11.273  13.562   0.819
42554SOL    HW229560  11.332  13.451   0.735
42555SOL     OW29561  10.609   4.344   1.379
42555SOL    HW129562  10.694   4.301   1.389
42555SOL    HW229563  10.564   4.326   1.461
42556SOL     OW29564   0.423   9.096   0.125
42556SOL    HW129565   0.414   9.046   0.044
42556SOL    HW229566   0.499   9.058   0.169
42557SOL     OW29567   8.947  12.914   7.650
42557SOL    HW129568   8.989  12.983   7.599
42557SOL    HW229569   8.860  12.950   7.670
42558SOL     OW29570   1.558   2.876  11.924
42558SOL    HW129571   1.636   2.822  11.938
42558SOL    HW229572   1.504   2.824  11.865
42559SOL     OW29573   5.026   4.503  10.758
42559SOL    HW129574   5.093   4.548  10.810
42559SOL    HW229575   5.053   4.517  10.667
42560SOL     OW29576   9.682   2.763  13.237
42560SOL    HW129577   9.734   2.778  13.158
42560SOL    HW229578   9.730   2.696  13.285
42561SOL     OW29579   5.383  10.689   6.844
42561SOL    HW129580   5.434  10.674   6.765
42561SOL    HW229581   5.341  10.605   6.862
42562SOL     OW29582  14.803   0.517   3.766
42562SOL    HW129583  14.827   0.428   3.792
42562SOL    HW229584  14.803   0.515   3.671
42563SOL     OW29585  11.052   6.829  10.559
42563SOL    HW129586  11.094   6.914  10.545
42563SOL    HW229587  11.043   6.821  10.654
42564SOL     OW29588  14.584   2.020  12.038
42564SOL    HW129589  14.555   2.083  11.972
42564SOL    HW229590  14.509   2.009  12.096
42565SOL     OW29591   8.335  11.782  10.791
42565SOL    HW129592   8.241  11.769  10.801
42565SOL    HW229593   8.374  11.700  10.824
42566SOL     OW29594  11.292   0.745   2.638
42566SOL    HW129595  11.274   0.839   2.637
42566SOL    HW229596  11.242   0.711   2.564
42567SOL     OW29597  10.151  13.569   9.965
42567SOL    HW129598  10.127  13.643   9.910
42567SOL    HW229599  10.247  13.569   9.964
42568SOL     OW29600   6.140   0.441   8.274
42568SOL    HW129601   6.083   0.461   8.200
42568SOL    HW229602   6.161   0.348   8.264
42569SOL     OW29603   6.708  11.368  14.819
42569SOL    HW129604   6.758  11.445  14.844
42569SOL    HW229605   6.757  11.330  14.746
42570SOL     OW29606   1.193   9.047  12.678
42570SOL    HW129607   1.174   9.064  12.586
42570SOL    HW229608   1.133   9.106  12.725
42571SOL     OW29609  12.340   9.368  13.257
42571SOL    HW129610  12.292   9.430  13.312
42571SOL    HW229611  12.274   9.329  13.201
42572SOL     OW29612   7.101   8.551   8.458
42572SOL    HW129613   7.020   8.559   8.409
42572SOL    HW229614   7.090   8.608   8.534
42573SOL     OW29615   0.381   1.103   0.937
42573SOL    HW129616   0.420   1.036   0.881
42573SOL    HW229617   0.376   1.063   1.023
42574SOL     OW29618   8.711   9.754   3.766
42574SOL    HW129619   8.743   9.811   3.836
42574SOL    HW229620   8.624   9.726   3.794
42575SOL     OW29621   2.545   6.637   6.529
42575SOL    HW129622   2.631   6.596   6.515
42575SOL    HW229623   2.492   6.606   6.456
42576SOL     OW29624  11.298   0.150  13.980
42576SOL    HW129625  11.222   0.093  13.996
42576SOL    HW229626  11.367   0.114  14.035
42577SOL     OW29627   0.371   7.022  10.623
42577SOL    HW129628   0.363   6.935  10.584
42577SOL    HW229629   0.285   7.062  10.612
42578SOL     OW29630   8.186   9.097   8.391
42578SOL    HW129631   8.261   9.113   8.333
42578SOL    HW229632   8.224   9.073   8.475
42579SOL     OW29633  13.497  12.220   7.546
42579SOL    HW129634  13.548  12.149   7.507
42579SOL    HW229635  13.552  12.297   7.537
42580SOL     OW29636  11.317  10.494   3.421
42580SOL    HW129637  11.225  10.484   3.399
42580SOL    HW229638  11.336  10.587   3.407
42581SOL     OW29639  12.540  13.474  12.936
42581SOL    HW129640  12.525  13.382  12.916
42581SOL    HW229641  12.453  13.510  12.952
42582SOL     OW29642   9.840   3.626   8.970
42582SOL    HW129643   9.837   3.552   8.910
42582SOL    HW229644   9.823   3.588   9.057
42583SOL     OW29645   2.201  13.145   2.051
42583SOL    HW129646   2.210  13.155   2.146
42583SOL    HW229647   2.290  13.134   2.019
42584SOL     OW29648  13.805  14.460   5.735
42584SOL    HW129649  13.866  14.530   5.758
42584SOL    HW229650  13.744  14.500   5.673
42585SOL     OW29651  13.661   7.820   4.600
42585SOL    HW129652  13.599   7.841   4.671
42585SOL    HW229653  13.720   7.895   4.597
42586SOL     OW29654   5.970   9.816   1.282
42586SOL    HW129655   5.886   9.852   1.310
42586SOL    HW229656   6.034   9.885   1.299
42587SOL     OW29657  10.926  14.377   6.782
42587SOL    HW129658  10.925  14.392   6.877
42587SOL    HW229659  10.890  14.458   6.745
42588SOL     OW29660  13.027   9.246   0.172
42588SOL    HW129661  12.963   9.283   0.112
42588SOL    HW229662  12.979   9.234   0.254
42589SOL     OW29663   2.145   3.583  14.400
42589SOL    HW129664   2.180   3.550  14.317
42589SOL    HW229665   2.089   3.513  14.432
42590SOL     OW29666   0.297   2.242   3.002
42590SOL    HW129667   0.348   2.309   3.047
42590SOL    HW229668   0.292   2.170   3.065
42591SOL     OW29669  13.380   4.642   6.098
42591SOL    HW129670  13.330   4.672   6.174
42591SOL    HW229671  13.383   4.547   6.108
42592SOL     OW29672   2.586   3.581   4.111
42592SOL    HW129673   2.645   3.560   4.183
42592SOL    HW229674   2.623   3.659   4.071
42593SOL     OW29675   4.045   5.760   6.773
42593SOL    HW129676   3.965   5.799   6.737
42593SOL    HW229677   4.107   5.762   6.701
42594SOL     OW29678   5.147   8.678  12.112
42594SOL    HW129679   5.066   8.648  12.070
42594SOL    HW229680   5.180   8.600  12.157
42595SOL     OW29681   7.794   4.809   7.537
42595SOL    HW129682   7.715   4.760   7.558
42595SOL    HW229683   7.775   4.850   7.453
42596SOL     OW29684  13.654  12.189   0.886
42596SOL    HW129685  13.566  12.225   0.880
42596SOL    HW229686  13.660  12.154   0.976
42597SOL     OW29687  13.931   9.144   3.769
42597SOL    HW129688  13.896   9.216   3.716
42597SOL    HW229689  13.878   9.145   3.848
42598SOL     OW29690   8.443   7.173   1.399
42598SOL    HW129691   8.465   7.245   1.458
42598SOL    HW229692   8.527   7.136   1.373
42599SOL     OW29693  10.165   3.344   2.934
42599SOL    HW129694  10.125   3.343   2.847
42599SOL    HW229695  10.240   3.402   2.926
42600SOL     OW29696  10.410   7.175   9.251
42600SOL    HW129697  10.337   7.122   9.218
42600SOL    HW229698  10.381   7.205   9.337
42601SOL     OW29699  10.615  12.574  12.861
42601SOL    HW129700  10.579  12.603  12.944
42601SOL    HW229701  10.707  12.599  12.864
42602SOL     OW29702   1.323   0.237   0.453
42602SOL    HW129703   1.416   0.215   0.450
42602SOL    HW229704   1.303   0.242   0.546
42603SOL     OW29705   2.645  13.068   9.769
42603SOL    HW129706   2.680  12.980   9.779
42603SOL    HW229707   2.634  13.079   9.675
42604SOL     OW29708   8.381  10.904  10.422
42604SOL    HW129709   8.453  10.960  10.452
42604SOL    HW229710   8.393  10.822  10.470
42605SOL     OW29711   8.141   7.450   3.526
42605SOL    HW129712   8.156   7.391   3.453
42605SOL    HW229713   8.067   7.504   3.499
42606SOL     OW29714   9.394   3.645  13.207
42606SOL    HW129715   9.317   3.702  13.200
42606SOL    HW229716   9.395   3.617  13.298
42607SOL     OW29717  10.613   2.597   8.749
42607SOL    HW129718  10.632   2.563   8.662
42607SOL    HW229719  10.621   2.521   8.807
42608SOL     OW29720  14.103  12.507  11.116
42608SOL    HW129721  14.099  12.601  11.103
42608SOL    HW229722  14.037  12.489  11.183
42609SOL     OW29723   8.802   8.385  12.692
42609SOL    HW129724   8.723   8.413  12.738
42609SOL    HW229725   8.771   8.321  12.627
42610SOL     OW29726   9.040   8.719   4.333
42610SOL    HW129727   9.007   8.704   4.244
42610SOL    HW229728   8.984   8.790   4.367
42611SOL     OW29729   4.254   1.512   0.644
42611SOL    HW129730   4.279   1.426   0.613
42611SOL    HW229731   4.336   1.562   0.646
42612SOL     OW29732  14.234   5.721   5.970
42612SOL    HW129733  14.184   5.664   6.029
42612SOL    HW229734  14.230   5.807   6.010
42613SOL     OW29735   2.347  10.817   6.245
42613SOL    HW129736   2.363  10.779   6.331
42613SOL    HW229737   2.256  10.847   6.248
42614SOL     OW29738   3.071   9.669  11.731
42614SOL    HW129739   3.136   9.711  11.786
42614SOL    HW229740   3.103   9.681  11.642
42615SOL     OW29741   2.254   1.403  11.479
42615SOL    HW129742   2.347   1.391  11.460
42615SOL    HW229743   2.210   1.342  11.421
42616SOL     OW29744   3.491   0.915   5.887
42616SOL    HW129745   3.476   0.843   5.826
42616SOL    HW229746   3.551   0.880   5.952
42617SOL     OW29747  11.964   4.498   3.661
42617SOL    HW129748  12.047   4.543   3.648
42617SOL    HW229749  11.976   4.449   3.742
42618SOL     OW29750  13.635  12.590   8.709
42618SOL    HW129751  13.562  12.636   8.668
42618SOL    HW229752  13.664  12.648   8.779
42619SOL     OW29753   9.283   8.179   2.039
42619SOL    HW129754   9.236   8.259   2.065
42619SOL    HW229755   9.293   8.130   2.121
42620SOL     OW29756   2.728   3.722   0.214
42620SOL    HW129757   2.792   3.697   0.281
42620SOL    HW229758   2.776   3.716   0.132
42621SOL     OW29759   9.613   8.106  12.464
42621SOL    HW129760   9.645   8.196  12.474
42621SOL    HW229761   9.674   8.066  12.402
42622SOL     OW29762  12.351   3.074   6.237
42622SOL    HW129763  12.282   3.134   6.265
42622SOL    HW229764  12.329   2.990   6.277
42623SOL     OW29765  11.085   2.069   7.063
42623SOL    HW129766  11.179   2.080   7.079
42623SOL    HW229767  11.047   2.154   7.083
42624SOL     OW29768   3.998   5.941  14.059
42624SOL    HW129769   4.088   5.921  14.084
42624SOL    HW229770   3.951   5.949  14.142
42625SOL     OW29771   8.996  12.340   7.338
42625SOL    HW129772   9.016  12.338   7.245
42625SOL    HW229773   9.020  12.252   7.370
42626SOL     OW29774  13.679   5.303  10.185
42626SOL    HW129775  13.747   5.246  10.150
42626SOL    HW229776  13.695   5.388  10.143
42627SOL     OW29777   4.422   2.318   3.948
42627SOL    HW129778   4.390   2.340   3.860
42627SOL    HW229779   4.342   2.310   4.000
42628SOL     OW29780  13.280   2.952   8.774
42628SOL    HW129781  13.361   2.905   8.755
42628SOL    HW229782  13.268   2.944   8.868
42629SOL     OW29783  14.419  13.302  12.365
42629SOL    HW129784  14.369  13.220  12.357
42629SOL    HW229785  14.458  13.315  12.278
42630SOL     OW29786   1.772   7.518  11.731
42630SOL    HW129787   1.736   7.604  11.750
42630SOL    HW229788   1.842   7.534  11.668
42631SOL     OW29789   1.160  10.066  11.211
42631SOL    HW129790   1.224  10.137  11.211
42631SOL    HW229791   1.212   9.986  11.220
42632SOL     OW29792   2.235  11.045   5.133
42632SOL    HW129793   2.253  11.020   5.224
42632SOL    HW229794   2.208  10.964   5.091
42633SOL     OW29795   6.377   4.882  11.218
42633SOL    HW129796   6.299   4.831  11.241
42633SOL    HW229797   6.357   4.971  11.247
42634SOL     OW29798  14.543   1.969   8.136
42634SOL    HW129799  14.516   1.878   8.124
42634SOL    HW229800  14.485   2.003   8.204
42635SOL     OW29801   2.427  12.919   9.300
42635SOL    HW129802   2.365  12.986   9.272
42635SOL    HW229803   2.376  12.838   9.297
42636SOL     OW29804  13.200   4.666  14.514
42636SOL    HW129805  13.270   4.730  14.528
42636SOL    HW229806  13.235   4.606  14.448
42637SOL     OW29807  11.572   4.643   9.084
42637SOL    HW129808  11.641   4.679   9.140
42637SOL    HW229809  11.498   4.702   9.097
42638SOL     OW29810   1.326  10.499  13.034
42638SOL    HW129811   1.417  10.527  13.020
42638SOL    HW229812   1.291  10.561  13.098
42639SOL     OW29813   9.652   6.371   0.071
42639SOL    HW129814   9.704   6.423   0.010
42639SOL    HW229815   9.617   6.434   0.134
42640SOL     OW29816   0.910   5.753  13.997
42640SOL    HW129817   0.895   5.762  14.091
42640SOL    HW229818   0.835   5.796  13.955
42641SOL     OW29819   4.802   3.157   0.804
42641SOL    HW129820   4.829   3.247   0.788
42641SOL    HW229821   4.883   3.111   0.827
42642SOL     OW29822   6.254   4.504   0.844
42642SOL    HW129823   6.205   4.427   0.815
42642SOL    HW229824   6.327   4.511   0.783
42643SOL     OW29825   3.316   4.493  14.772
42643SOL    HW129826   3.372   4.570  14.784
42643SOL    HW229827   3.267   4.485  14.853
42644SOL     OW29828   5.922  11.292  10.358
42644SOL    HW129829   5.914  11.359  10.426
42644SOL    HW229830   5.834  11.286  10.320
42645SOL     OW29831   3.287  11.977  13.724
42645SOL    HW129832   3.232  12.040  13.769
42645SOL    HW229833   3.331  12.027  13.655
42646SOL     OW29834  14.611   8.528  12.386
42646SOL    HW129835  14.699   8.511  12.351
42646SOL    HW229836  14.557   8.536  12.308
42647SOL     OW29837  14.218  13.823   6.315
42647SOL    HW129838  14.293  13.873   6.281
42647SOL    HW229839  14.257  13.765   6.381
42648SOL     OW29840   1.637   5.996  14.242
42648SOL    HW129841   1.701   5.990  14.171
42648SOL    HW229842   1.553   6.008  14.198
42649SOL     OW29843   9.685   3.157   1.802
42649SOL    HW129844   9.730   3.228   1.847
42649SOL    HW229845   9.598   3.154   1.840
42650SOL     OW29846   1.435   6.225  12.416
42650SOL    HW129847   1.404   6.140  12.384
42650SOL    HW229848   1.369   6.287  12.385
42651SOL     OW29849  10.816  12.411   3.671
42651SOL    HW129850  10.726  12.398   3.701
42651SOL    HW229851  10.864  12.338   3.710
42652SOL     OW29852   6.763  12.471   2.714
42652SOL    HW129853   6.751  12.404   2.647
42652SOL    HW229854   6.678  12.514   2.720
42653SOL     OW29855   5.187   7.588   1.117
42653SOL    HW129856   5.207   7.682   1.121
42653SOL    HW229857   5.100   7.581   1.156
42654SOL     OW29858   2.871  12.822   5.788
42654SOL    HW129859   2.884  12.839   5.881
42654SOL    HW229860   2.921  12.891   5.744
42655SOL     OW29861   0.717   3.080   5.333
42655SOL    HW129862   0.621   3.085   5.333
42655SOL    HW229863   0.736   2.988   5.353
42656SOL     OW29864   2.258   9.264   2.105
42656SOL    HW129865   2.279   9.248   2.197
42656SOL    HW229866   2.306   9.344   2.083
42657SOL     OW29867   2.415   1.016  11.694
42657SOL    HW129868   2.341   0.956  11.706
42657SOL    HW229869   2.393   1.092  11.748
42658SOL     OW29870  11.826  11.727   2.709
42658SOL    HW129871  11.900  11.678   2.743
42658SOL    HW229872  11.865  11.798   2.657
42659SOL     OW29873   0.047   1.668   8.689
42659SOL    HW129874   0.124   1.640   8.739
42659SOL    HW229875   0.023   1.591   8.637
42660SOL     OW29876   2.513  11.788  10.159
42660SOL    HW129877   2.607  11.796  10.177
42660SOL    HW229878   2.477  11.749  10.238
42661SOL     OW29879   3.636  10.383   7.690
42661SOL    HW129880   3.589  10.446   7.635
42661SOL    HW229881   3.598  10.394   7.777
42662SOL     OW29882   3.156   0.574  11.249
42662SOL    HW129883   3.106   0.501  11.286
42662SOL    HW229884   3.148   0.644  11.314
42663SOL     OW29885  13.160  11.251   1.218
42663SOL    HW129886  13.198  11.245   1.306
42663SOL    HW229887  13.231  11.288   1.164
42664SOL     OW29888   1.349   7.031   5.820
42664SOL    HW129889   1.399   7.031   5.901
42664SOL    HW229890   1.259   7.014   5.847
42665SOL     OW29891  10.717  11.998   9.859
42665SOL    HW129892  10.755  12.060   9.796
42665SOL    HW229893  10.781  11.995   9.931
42666SOL     OW29894   3.865   1.189   6.099
42666SOL    HW129895   3.881   1.146   6.014
42666SOL    HW229896   3.952   1.194   6.139
42667SOL     OW29897  11.714   7.842  14.504
42667SOL    HW129898  11.736   7.924  14.550
42667SOL    HW229899  11.629   7.817  14.540
42668SOL     OW29900   3.961   3.435   4.032
42668SOL    HW129901   3.996   3.485   3.958
42668SOL    HW229902   3.914   3.362   3.991
42669SOL     OW29903   3.207  11.970  14.674
42669SOL    HW129904   3.155  11.971  14.594
42669SOL    HW229905   3.145  11.996  14.743
42670SOL     OW29906  12.983   3.970   4.090
42670SOL    HW129907  12.975   3.897   4.151
42670SOL    HW229908  12.935   3.941   4.012
42671SOL     OW29909  10.193  13.433   5.150
42671SOL    HW129910  10.239  13.508   5.113
42671SOL    HW229911  10.256  13.391   5.208
42672SOL     OW29912  11.941  10.166   1.251
42672SOL    HW129913  11.973  10.257   1.256
42672SOL    HW229914  11.894  10.153   1.334
42673SOL     OW29915   8.802   1.099   3.140
42673SOL    HW129916   8.791   1.055   3.225
42673SOL    HW229917   8.871   1.049   3.096
42674SOL     OW29918   9.685   0.249  10.992
42674SOL    HW129919   9.596   0.220  10.973
42674SOL    HW229920   9.712   0.299  10.915
42675SOL     OW29921  12.199   3.294   5.494
42675SOL    HW129922  12.148   3.366   5.455
42675SOL    HW229923  12.163   3.215   5.453
42676SOL     OW29924   9.836   3.126   7.380
42676SOL    HW129925   9.836   3.038   7.418
42676SOL    HW229926   9.892   3.177   7.440
42677SOL     OW29927   7.448   1.803   0.884
42677SOL    HW129928   7.380   1.869   0.874
42677SOL    HW229929   7.406   1.721   0.857
42678SOL     OW29930  14.144   2.668   9.017
42678SOL    HW129931  14.117   2.732   9.083
42678SOL    HW229932  14.075   2.602   9.018
42679SOL     OW29933  14.205   9.027  14.594
42679SOL    HW129934  14.248   9.036  14.509
42679SOL    HW229935  14.248   8.953  14.636
42680SOL     OW29936  11.063   9.330   2.254
42680SOL    HW129937  11.066   9.365   2.343
42680SOL    HW229938  10.998   9.260   2.257
42681SOL     OW29939  14.566   6.764   8.697
42681SOL    HW129940  14.540   6.825   8.627
42681SOL    HW229941  14.623   6.816   8.753
42682SOL     OW29942   3.745   0.479   0.091
42682SOL    HW129943   3.731   0.391   0.055
42682SOL    HW229944   3.833   0.503   0.062
42683SOL     OW29945   0.572   1.508   3.101
42683SOL    HW129946   0.527   1.588   3.071
42683SOL    HW229947   0.561   1.446   3.030
42684SOL     OW29948   9.553  13.984  10.645
42684SOL    HW129949   9.541  14.070  10.685
42684SOL    HW229950   9.561  14.003  10.551
42685SOL     OW29951   7.737   7.653   7.398
42685SOL    HW129952   7.679   7.592   7.353
42685SOL    HW229953   7.823   7.611   7.396
42686SOL     OW29954  14.798   4.724   3.785
42686SOL    HW129955  14.741   4.648   3.773
42686SOL    HW229956  14.742   4.800   3.764
42687SOL     OW29957   1.611  14.303  10.021
42687SOL    HW129958   1.585  14.220   9.982
42687SOL    HW229959   1.570  14.304  10.107
42688SOL     OW29960   8.865   0.576  10.787
42688SOL    HW129961   8.859   0.489  10.748
42688SOL    HW229962   8.867   0.635  10.712
42689SOL     OW29963   2.447   7.335   5.314
42689SOL    HW129964   2.509   7.297   5.251
42689SOL    HW229965   2.366   7.285   5.301
42690SOL     OW29966   1.167   7.187   9.295
42690SOL    HW129967   1.147   7.104   9.339
42690SOL    HW229968   1.247   7.169   9.246
42691SOL     OW29969  14.557   1.209   5.065
42691SOL    HW129970  14.588   1.234   5.152
42691SOL    HW229971  14.462   1.204   5.074
42692SOL     OW29972   7.745  11.822   1.401
42692SOL    HW129973   7.692  11.885   1.352
42692SOL    HW229974   7.824  11.871   1.425
42693SOL     OW29975   7.876   2.961  12.709
42693SOL    HW129976   7.955   2.989  12.662
42693SOL    HW229977   7.897   2.974  12.801
42694SOL     OW29978   2.869   8.252   8.054
42694SOL    HW129979   2.814   8.267   7.977
42694SOL    HW229980   2.812   8.270   8.129
42695SOL     OW29981   8.678   7.353   3.758
42695SOL    HW129982   8.632   7.351   3.674
42695SOL    HW229983   8.770   7.361   3.734
42696SOL     OW29984   8.584   2.136   5.095
42696SOL    HW129985   8.493   2.155   5.119
42696SOL    HW229986   8.604   2.196   5.024
42697SOL     OW29987  12.070   2.935   5.567
42697SOL    HW129988  12.133   2.867   5.541
42697SOL    HW229989  11.997   2.886   5.604
42698SOL     OW29990   2.294   3.290   1.030
42698SOL    HW129991   2.271   3.247   0.948
42698SOL    HW229992   2.361   3.234   1.070
42699SOL     OW29993   8.508   2.328  13.006
42699SOL    HW129994   8.549   2.405  13.045
42699SOL    HW229995   8.438   2.364  12.950
42700SOL     OW29996   7.159  13.365   5.565
42700SOL    HW129997   7.233  13.425   5.569
42700SOL    HW229998   7.176  13.301   5.633
42701SOL     OW29999  12.047   4.061   8.148
42701SOL    HW130000  12.040   4.118   8.071
42701SOL    HW230001  12.141   4.055   8.165
42702SOL     OW30002   6.961   5.423   6.824
42702SOL    HW130003   6.866   5.410   6.820
42702SOL    HW230004   6.979   5.437   6.917
42703SOL     OW30005   3.159  13.719   0.478
42703SOL    HW130006   3.121  13.787   0.422
42703SOL    HW230007   3.199  13.657   0.417
42704SOL     OW30008   3.931   3.558   8.297
42704SOL    HW130009   3.924   3.496   8.225
42704SOL    HW230010   3.963   3.506   8.371
42705SOL     OW30011  10.673   6.205  10.922
42705SOL    HW130012  10.632   6.290  10.907
42705SOL    HW230013  10.611   6.157  10.977
42706SOL     OW30014   3.738   6.368   3.717
42706SOL    HW130015   3.826   6.375   3.680
42706SOL    HW230016   3.747   6.307   3.790
42707SOL     OW30017  11.615  14.557   4.354
42707SOL    HW130018  11.589  14.528   4.267
42707SOL    HW230019  11.670  14.485   4.387
42708SOL     OW30020   9.775   8.125   2.688
42708SOL    HW130021   9.712   8.197   2.691
42708SOL    HW230022   9.835   8.148   2.617
42709SOL     OW30023   8.968  13.351  10.671
42709SOL    HW130024   9.042  13.400  10.634
42709SOL    HW230025   8.904  13.346  10.600
42710SOL     OW30026   8.735   1.567   0.181
42710SOL    HW130027   8.790   1.640   0.154
42710SOL    HW230028   8.765   1.493   0.129
42711SOL     OW30029   5.351   3.740   4.485
42711SOL    HW130030   5.405   3.793   4.544
42711SOL    HW230031   5.297   3.804   4.438
42712SOL     OW30032  13.957  13.464   6.461
42712SOL    HW130033  13.878  13.516   6.477
42712SOL    HW230034  14.002  13.512   6.391
42713SOL     OW30035   7.622   6.918   6.569
42713SOL    HW130036   7.595   6.872   6.489
42713SOL    HW230037   7.690   6.979   6.539
42714SOL     OW30038   8.221   2.580   7.956
42714SOL    HW130039   8.273   2.511   7.998
42714SOL    HW230040   8.216   2.649   8.021
42715SOL     OW30041   1.248  11.136   5.288
42715SOL    HW130042   1.311  11.069   5.262
42715SOL    HW230043   1.163  11.100   5.263
42716SOL     OW30044  12.729   1.775   9.513
42716SOL    HW130045  12.768   1.863   9.515
42716SOL    HW230046  12.714   1.754   9.605
42717SOL     OW30047   7.350   9.587   1.737
42717SOL    HW130048   7.279   9.556   1.681
42717SOL    HW230049   7.416   9.619   1.676
42718SOL     OW30050   2.711   8.824   3.899
42718SOL    HW130051   2.624   8.861   3.889
42718SOL    HW230052   2.699   8.749   3.958
42719SOL     OW30053  11.805   5.026   2.272
42719SOL    HW130054  11.725   5.078   2.261
42719SOL    HW230055  11.783   4.940   2.235
42720SOL     OW30056   8.372  12.235   4.462
42720SOL    HW130057   8.286  12.249   4.421
42720SOL    HW230058   8.413  12.167   4.409
42721SOL     OW30059   9.464   2.274   6.585
42721SOL    HW130060   9.456   2.222   6.665
42721SOL    HW230061   9.374   2.277   6.550
42722SOL     OW30062  13.115  12.230   8.044
42722SOL    HW130063  13.121  12.293   8.116
42722SOL    HW230064  13.073  12.154   8.082
42723SOL     OW30065   1.407   5.659   6.538
42723SOL    HW130066   1.377   5.577   6.576
42723SOL    HW230067   1.327   5.708   6.520
42724SOL     OW30068   8.938  12.506   2.443
42724SOL    HW130069   8.940  12.598   2.416
42724SOL    HW230070   8.988  12.461   2.376
42725SOL     OW30071   6.279   0.170   3.814
42725SOL    HW130072   6.212   0.139   3.753
42725SOL    HW230073   6.304   0.256   3.781
42726SOL     OW30074   8.036   2.977   8.266
42726SOL    HW130075   8.099   2.906   8.278
42726SOL    HW230076   8.028   2.987   8.172
42727SOL     OW30077   8.153   0.835   2.767
42727SOL    HW130078   8.098   0.902   2.726
42727SOL    HW230079   8.122   0.753   2.730
42728SOL     OW30080   1.427  14.599   5.581
42728SOL    HW130081   1.391  14.632   5.664
42728SOL    HW230082   1.368  14.634   5.514
42729SOL     OW30083   2.617   1.033  14.175
42729SOL    HW130084   2.532   0.994  14.192
42729SOL    HW230085   2.671   0.961  14.143
42730SOL     OW30086  13.760   0.255  14.825
42730SOL    HW130087  13.781   0.298  14.742
42730SOL    HW230088  13.842   0.211  14.849
42731SOL     OW30089  11.452   2.745  10.090
42731SOL    HW130090  11.528   2.803  10.095
42731SOL    HW230091  11.406   2.759  10.173
42732SOL     OW30092   7.906   3.183   3.962
42732SOL    HW130093   7.889   3.277   3.970
42732SOL    HW230094   7.997   3.178   3.933
42733SOL     OW30095   5.471   0.658  12.314
42733SOL    HW130096   5.489   0.750  12.295
42733SOL    HW230097   5.388   0.659  12.362
42734SOL     OW30098   8.124   3.995  14.741
42734SOL    HW130099   8.039   3.999  14.697
42734SOL    HW230100   8.105   4.019  14.832
42735SOL     OW30101  12.060   4.249  10.303
42735SOL    HW130102  11.966   4.260  10.290
42735SOL    HW230103  12.098   4.333  10.276
42736SOL     OW30104   7.086   5.133  12.515
42736SOL    HW130105   7.111   5.199  12.579
42736SOL    HW230106   7.036   5.068  12.565
42737SOL     OW30107   4.535   2.169  14.327
42737SOL    HW130108   4.592   2.094  14.310
42737SOL    HW230109   4.542   2.223  14.249
42738SOL     OW30110  13.975   5.799   3.733
42738SOL    HW130111  14.045   5.854   3.768
42738SOL    HW230112  13.931   5.765   3.811
42739SOL     OW30113  13.824   9.324   2.923
42739SOL    HW130114  13.860   9.235   2.927
42739SOL    HW230115  13.730   9.310   2.911
42740SOL     OW30116  12.696   7.738   9.753
42740SOL    HW130117  12.751   7.660   9.761
42740SOL    HW230118  12.615   7.714   9.798
42741SOL     OW30119   3.096   1.484   1.499
42741SOL    HW130120   3.178   1.483   1.449
42741SOL    HW230121   3.117   1.438   1.580
42742SOL     OW30122   8.032   5.730   9.821
42742SOL    HW130123   8.020   5.822   9.847
42742SOL    HW230124   8.015   5.730   9.727
42743SOL     OW30125   9.350   0.720  14.877
42743SOL    HW130126   9.438   0.754   0.013
42743SOL    HW230127   9.364   0.630  14.849
42744SOL     OW30128  12.883   2.842   9.803
42744SOL    HW130129  12.838   2.885   9.731
42744SOL    HW230130  12.955   2.903   9.826
42745SOL     OW30131   0.697  13.763   2.510
42745SOL    HW130132   0.694  13.670   2.485
42745SOL    HW230133   0.661  13.809   2.435
42746SOL     OW30134  12.957  12.274   9.589
42746SOL    HW130135  13.005  12.242   9.513
42746SOL    HW230136  13.019  12.266   9.662
42747SOL     OW30137   9.765   4.457   2.366
42747SOL    HW130138   9.717   4.539   2.371
42747SOL    HW230139   9.698   4.389   2.371
42748SOL     OW30140  10.360   2.566   9.369
42748SOL    HW130141  10.433   2.557   9.431
42748SOL    HW230142  10.383   2.643   9.316
42749SOL     OW30143   6.095  14.688   4.607
42749SOL    HW130144   6.067  14.745   4.679
42749SOL    HW230145   6.139  14.747   4.546
42750SOL     OW30146   7.134   9.909   0.460
42750SOL    HW130147   7.053   9.857   0.459
42750SOL    HW230148   7.201   9.847   0.489
42751SOL     OW30149  14.379  11.198  14.435
42751SOL    HW130150  14.386  11.283  14.479
42751SOL    HW230151  14.298  11.161  14.468
42752SOL     OW30152   9.488   8.749  13.071
42752SOL    HW130153   9.554   8.733  13.004
42752SOL    HW230154   9.405   8.727  13.028
42753SOL     OW30155   0.670   6.223   8.301
42753SOL    HW130156   0.728   6.299   8.293
42753SOL    HW230157   0.709   6.171   8.371
42754SOL     OW30158   6.701   5.437  13.473
42754SOL    HW130159   6.668   5.522  13.443
42754SOL    HW230160   6.780   5.422  13.422
42755SOL     OW30161   4.486  14.505  12.452
42755SOL    HW130162   4.479  14.486  12.546
42755SOL    HW230163   4.479  14.420  12.410
42756SOL     OW30164   5.974   0.466   7.286
42756SOL    HW130165   6.021   0.521   7.223
42756SOL    HW230166   5.893   0.515   7.304
42757SOL     OW30167   6.275  12.211   8.631
42757SOL    HW130168   6.317  12.200   8.716
42757SOL    HW230169   6.289  12.304   8.610
42758SOL     OW30170   5.784  13.900   1.124
42758SOL    HW130171   5.699  13.858   1.112
42758SOL    HW230172   5.786  13.924   1.217
42759SOL     OW30173  10.605   3.253   1.782
42759SOL    HW130174  10.543   3.188   1.815
42759SOL    HW230175  10.608   3.238   1.688
42760SOL     OW30176   7.385  14.749   9.988
42760SOL    HW130177   7.304  14.704   9.966
42760SOL    HW230178   7.443  14.733   9.914
42761SOL     OW30179  12.416   0.065  13.667
42761SOL    HW130180  12.440  14.853  13.675
42761SOL    HW230181  12.398   0.093  13.757
42762SOL     OW30182  10.788   8.763   9.769
42762SOL    HW130183  10.838   8.832   9.725
42762SOL    HW230184  10.740   8.719   9.699
42763SOL     OW30185  13.266  11.866   7.681
42763SOL    HW130186  13.222  11.790   7.643
42763SOL    HW230187  13.359  11.849   7.665
42764SOL     OW30188   6.144   5.621   1.092
42764SOL    HW130189   6.223   5.661   1.056
42764SOL    HW230190   6.079   5.691   1.092
42765SOL     OW30191   9.700   8.190   4.705
42765SOL    HW130192   9.699   8.286   4.698
42765SOL    HW230193   9.766   8.162   4.642
42766SOL     OW30194   5.709   7.962  13.662
42766SOL    HW130195   5.644   8.030  13.678
42766SOL    HW230196   5.689   7.930  13.574
42767SOL     OW30197   3.794   8.025   5.545
42767SOL    HW130198   3.713   8.075   5.539
42767SOL    HW230199   3.792   7.967   5.469
42768SOL     OW30200  10.878  12.179  10.970
42768SOL    HW130201  10.962  12.201  11.011
42768SOL    HW230202  10.827  12.259  10.978
42769SOL     OW30203   9.825   1.871   3.842
42769SOL    HW130204   9.769   1.797   3.816
42769SOL    HW230205   9.771   1.948   3.826
42770SOL     OW30206  13.326  10.937   8.443
42770SOL    HW130207  13.408  10.955   8.396
42770SOL    HW230208  13.323  11.003   8.512
42771SOL     OW30209   8.387   9.062   2.611
42771SOL    HW130210   8.405   9.154   2.592
42771SOL    HW230211   8.322   9.036   2.546
42772SOL     OW30212   5.822   2.077   9.096
42772SOL    HW130213   5.771   1.998   9.113
42772SOL    HW230214   5.910   2.044   9.075
42773SOL     OW30215   5.764   9.313   7.578
42773SOL    HW130216   5.795   9.283   7.664
42773SOL    HW230217   5.678   9.351   7.596
42774SOL     OW30218   1.853  11.771   2.419
42774SOL    HW130219   1.873  11.686   2.381
42774SOL    HW230220   1.776  11.802   2.370
42775SOL     OW30221   0.676   5.516   8.020
42775SOL    HW130222   0.627   5.507   7.938
42775SOL    HW230223   0.626   5.464   8.083
42776SOL     OW30224  13.267   7.819   2.048
42776SOL    HW130225  13.226   7.770   1.976
42776SOL    HW230226  13.193   7.860   2.094
42777SOL     OW30227   9.117   5.199   6.959
42777SOL    HW130228   9.110   5.111   6.920
42777SOL    HW230229   9.094   5.258   6.888
42778SOL     OW30230   1.909   7.989   2.336
42778SOL    HW130231   1.919   7.911   2.282
42778SOL    HW230232   1.836   7.969   2.395
42779SOL     OW30233  10.056   8.102   5.742
42779SOL    HW130234  10.048   8.191   5.776
42779SOL    HW230235   9.987   8.053   5.786
42780SOL     OW30236  10.559  14.595   5.974
42780SOL    HW130237  10.594  14.555   5.894
42780SOL    HW230238  10.555  14.689   5.954
42781SOL     OW30239   5.173  14.749   8.346
42781SOL    HW130240   5.085  14.754   8.310
42781SOL    HW230241   5.182  14.658   8.374
42782SOL     OW30242   6.116   2.083  14.038
42782SOL    HW130243   6.197   2.130  14.019
42782SOL    HW230244   6.079   2.128  14.113
42783SOL     OW30245   3.052   2.271  13.925
42783SOL    HW130246   3.134   2.312  13.951
42783SOL    HW230247   3.053   2.273  13.830
42784SOL     OW30248   6.504  13.932   3.361
42784SOL    HW130249   6.471  14.014   3.325
42784SOL    HW230250   6.596  13.948   3.379
42785SOL     OW30251   3.447   4.396  14.533
42785SOL    HW130252   3.416   4.315  14.493
42785SOL    HW230253   3.404   4.398  14.619
42786SOL     OW30254   8.731  12.257  13.406
42786SOL    HW130255   8.725  12.162  13.416
42786SOL    HW230256   8.663  12.291  13.464
42787SOL     OW30257   5.953   7.045  13.211
42787SOL    HW130258   5.867   7.086  13.223
42787SOL    HW230259   5.964   6.991  13.289
42788SOL     OW30260   6.601   2.189   7.302
42788SOL    HW130261   6.538   2.169   7.233
42788SOL    HW230262   6.650   2.264   7.268
42789SOL     OW30263   1.307  14.771   5.405
42789SOL    HW130264   1.217  14.738   5.412
42789SOL    HW230265   1.338  14.738   5.320
42790SOL     OW30266   2.745   4.215   7.808
42790SOL    HW130267   2.795   4.207   7.889
42790SOL    HW230268   2.687   4.139   7.808
42791SOL     OW30269  12.182   7.270   4.484
42791SOL    HW130270  12.149   7.308   4.566
42791SOL    HW230271  12.262   7.319   4.465
42792SOL     OW30272  14.050   0.720   3.840
42792SOL    HW130273  13.966   0.676   3.823
42792SOL    HW230274  14.108   0.651   3.871
42793SOL     OW30275  10.126   4.363  12.040
42793SOL    HW130276  10.090   4.292  12.093
42793SOL    HW230277  10.216   4.373  12.070
42794SOL     OW30278   9.012   8.386   4.046
42794SOL    HW130279   9.039   8.464   3.998
42794SOL    HW230280   9.043   8.399   4.135
42795SOL     OW30281   5.903   8.808   6.932
42795SOL    HW130282   5.841   8.740   6.955
42795SOL    HW230283   5.892   8.820   6.838
42796SOL     OW30284   1.869   3.645  14.756
42796SOL    HW130285   1.933   3.713  14.732
42796SOL    HW230286   1.914   3.592  14.822
42797SOL     OW30287   0.503  10.461   2.443
42797SOL    HW130288   0.471  10.449   2.353
42797SOL    HW230289   0.427  10.442   2.498
42798SOL     OW30290   4.232  14.576   1.468
42798SOL    HW130291   4.166  14.584   1.538
42798SOL    HW230292   4.243  14.482   1.457
42799SOL     OW30293  11.320   6.217  10.224
42799SOL    HW130294  11.389   6.239  10.287
42799SOL    HW230295  11.251   6.282  10.239
42800SOL     OW30296   4.624   1.434   9.843
42800SOL    HW130297   4.636   1.357   9.900
42800SOL    HW230298   4.653   1.405   9.757
42801SOL     OW30299   7.696   2.041   1.262
42801SOL    HW130300   7.607   2.018   1.238
42801SOL    HW230301   7.730   1.964   1.307
42802SOL     OW30302   1.169   0.339   5.286
42802SOL    HW130303   1.089   0.388   5.267
42802SOL    HW230304   1.227   0.403   5.327
42803SOL     OW30305  12.553   9.649   6.184
42803SOL    HW130306  12.616   9.583   6.154
42803SOL    HW230307  12.541   9.629   6.276
42804SOL     OW30308   5.018  12.169   6.317
42804SOL    HW130309   5.016  12.207   6.405
42804SOL    HW230310   4.926  12.166   6.291
42805SOL     OW30311   1.041   6.277   7.152
42805SOL    HW130312   1.093   6.242   7.224
42805SOL    HW230313   0.975   6.332   7.194
42806SOL     OW30314   9.810  10.293  13.019
42806SOL    HW130315   9.781  10.236  13.090
42806SOL    HW230316   9.730  10.314  12.971
42807SOL     OW30317   4.725   6.495   3.789
42807SOL    HW130318   4.776   6.414   3.801
42807SOL    HW230319   4.786   6.565   3.809
42808SOL     OW30320   5.374  14.052   5.712
42808SOL    HW130321   5.410  14.037   5.624
42808SOL    HW230322   5.280  14.045   5.701
42809SOL     OW30323   5.539   2.736   0.491
42809SOL    HW130324   5.454   2.707   0.525
42809SOL    HW230325   5.570   2.661   0.439
42810SOL     OW30326   1.143   2.072  10.471
42810SOL    HW130327   1.173   2.158  10.442
42810SOL    HW230328   1.089   2.090  10.548
42811SOL     OW30329   0.413  13.786  12.046
42811SOL    HW130330   0.503  13.753  12.041
42811SOL    HW230331   0.411  13.862  11.987
42812SOL     OW30332   2.930  10.401   3.937
42812SOL    HW130333   3.018  10.437   3.929
42812SOL    HW230334   2.895  10.442   4.016
42813SOL     OW30335  11.042   3.102   1.870
42813SOL    HW130336  11.026   3.103   1.964
42813SOL    HW230337  11.041   3.009   1.846
42814SOL     OW30338  11.148   2.981   1.204
42814SOL    HW130339  11.164   2.939   1.119
42814SOL    HW230340  11.089   3.053   1.184
42815SOL     OW30341   2.229   2.547   9.659
42815SOL    HW130342   2.141   2.515   9.680
42815SOL    HW230343   2.246   2.614   9.725
42816SOL     OW30344   9.599   5.218  13.908
42816SOL    HW130345   9.524   5.276  13.920
42816SOL    HW230346   9.603   5.168  13.990
42817SOL     OW30347   0.768   2.259   6.930
42817SOL    HW130348   0.758   2.190   6.864
42817SOL    HW230349   0.768   2.340   6.879
42818SOL     OW30350   4.702  12.649   9.881
42818SOL    HW130351   4.751  12.638   9.799
42818SOL    HW230352   4.653  12.730   9.869
42819SOL     OW30353   9.152   1.383   6.506
42819SOL    HW130354   9.181   1.448   6.570
42819SOL    HW230355   9.211   1.394   6.432
42820SOL     OW30356  10.709  10.793   1.160
42820SOL    HW130357  10.640  10.852   1.189
42820SOL    HW230358  10.715  10.807   1.065
42821SOL     OW30359  14.523   2.962   7.654
42821SOL    HW130360  14.514   2.951   7.749
42821SOL    HW230361  14.450   2.913   7.617
42822SOL     OW30362   0.005   6.003   9.070
42822SOL    HW130363  14.824   5.935   9.099
42822SOL    HW230364   0.058   6.022   9.148
42823SOL     OW30365   4.549   8.506   4.062
42823SOL    HW130366   4.587   8.588   4.092
42823SOL    HW230367   4.477   8.489   4.123
42824SOL     OW30368  14.782  14.318  12.407
42824SOL    HW130369  14.818  14.392  12.457
42824SOL    HW230370  14.735  14.265  12.472
42825SOL     OW30371  12.838   1.716   6.266
42825SOL    HW130372  12.850   1.661   6.343
42825SOL    HW230373  12.927   1.735   6.236
42826SOL     OW30374  14.599   6.290   4.488
42826SOL    HW130375  14.560   6.204   4.469
42826SOL    HW230376  14.672   6.271   4.546
42827SOL     OW30377  14.828   2.050   8.196
42827SOL    HW130378  14.810   2.072   8.287
42827SOL    HW230379  14.742   2.031   8.158
42828SOL     OW30380   3.861   5.570   2.213
42828SOL    HW130381   3.875   5.565   2.118
42828SOL    HW230382   3.927   5.633   2.242
42829SOL     OW30383   6.627   3.419   3.677
42829SOL    HW130384   6.695   3.366   3.719
42829SOL    HW230385   6.630   3.502   3.725
42830SOL     OW30386   3.949   5.782   1.304
42830SOL    HW130387   4.037   5.773   1.340
42830SOL    HW230388   3.941   5.875   1.282
42831SOL     OW30389   3.426   5.289   9.142
42831SOL    HW130390   3.357   5.354   9.156
42831SOL    HW230391   3.421   5.232   9.219
42832SOL     OW30392   5.756   2.315   9.240
42832SOL    HW130393   5.759   2.247   9.173
42832SOL    HW230394   5.668   2.310   9.276
42833SOL     OW30395   2.302   0.695   8.672
42833SOL    HW130396   2.296   0.667   8.580
42833SOL    HW230397   2.212   0.688   8.705
42834SOL     OW30398   2.948  14.726  12.896
42834SOL    HW130399   3.024  14.779  12.873
42834SOL    HW230400   2.881  14.789  12.922
42835SOL     OW30401   4.110   6.241  14.641
42835SOL    HW130402   4.116   6.253  14.546
42835SOL    HW230403   4.081   6.151  14.653
42836SOL     OW30404   6.213   0.926  11.601
42836SOL    HW130405   6.123   0.894  11.606
42836SOL    HW230406   6.235   0.950  11.691
42837SOL     OW30407   7.765  14.783   0.813
42837SOL    HW130408   7.749  14.790   0.719
42837SOL    HW230409   7.710  14.852   0.851
42838SOL     OW30410   4.465   5.364   4.168
42838SOL    HW130411   4.545   5.411   4.190
42838SOL    HW230412   4.470   5.350   4.074
42839SOL     OW30413   4.669  13.747  14.296
42839SOL    HW130414   4.679  13.661  14.337
42839SOL    HW230415   4.575  13.765  14.301
42840SOL     OW30416   0.078   4.785   7.585
42840SOL    HW130417   0.166   4.748   7.585
42840SOL    HW230418   0.085   4.862   7.642
42841SOL     OW30419  10.883  14.321   7.719
42841SOL    HW130420  10.861  14.380   7.791
42841SOL    HW230421  10.956  14.363   7.674
42842SOL     OW30422  14.651  10.805  13.164
42842SOL    HW130423  14.618  10.772  13.081
42842SOL    HW230424  14.577  10.853  13.201
42843SOL     OW30425   2.896  11.211  14.532
42843SOL    HW130426   2.930  11.243  14.449
42843SOL    HW230427   2.887  11.290  14.586
42844SOL     OW30428   3.439   6.650   5.892
42844SOL    HW130429   3.360   6.701   5.875
42844SOL    HW230430   3.480   6.692   5.968
42845SOL     OW30431   6.550   1.692   3.108
42845SOL    HW130432   6.467   1.658   3.072
42845SOL    HW230433   6.534   1.698   3.202
42846SOL     OW30434   5.597   5.370   4.652
42846SOL    HW130435   5.627   5.310   4.584
42846SOL    HW230436   5.530   5.424   4.610
42847SOL     OW30437   8.582   1.717  11.471
42847SOL    HW130438   8.672   1.683  11.468
42847SOL    HW230439   8.585   1.798  11.421
42848SOL     OW30440   8.170   8.786   8.566
42848SOL    HW130441   8.088   8.743   8.591
42848SOL    HW230442   8.210   8.813   8.649
42849SOL     OW30443  13.153   6.010  10.293
42849SOL    HW130444  13.072   5.968  10.322
42849SOL    HW230445  13.194   6.041  10.374
42850SOL     OW30446   6.775   2.202   8.681
42850SOL    HW130447   6.809   2.268   8.742
42850SOL    HW230448   6.741   2.132   8.737
42851SOL     OW30449   1.667   4.124   3.178
42851SOL    HW130450   1.735   4.165   3.232
42851SOL    HW230451   1.586   4.167   3.207
42852SOL     OW30452   3.545  10.483  10.622
42852SOL    HW130453   3.611  10.504  10.556
42852SOL    HW230454   3.536  10.564  10.674
42853SOL     OW30455   6.711   8.763   0.670
42853SOL    HW130456   6.690   8.781   0.762
42853SOL    HW230457   6.785   8.703   0.674
42854SOL     OW30458   9.198  14.773   8.168
42854SOL    HW130459   9.251  14.774   8.248
42854SOL    HW230460   9.215  14.687   8.129
42855SOL     OW30461  13.136   8.730  13.882
42855SOL    HW130462  13.124   8.641  13.913
42855SOL    HW230463  13.213   8.727  13.826
42856SOL     OW30464   2.108   0.786  12.290
42856SOL    HW130465   2.092   0.693  12.307
42856SOL    HW230466   2.021   0.820  12.267
42857SOL     OW30467   1.253   6.364   6.612
42857SOL    HW130468   1.201   6.321   6.545
42857SOL    HW230469   1.288   6.291   6.664
42858SOL     OW30470  12.474  14.873   9.720
42858SOL    HW130471  12.498  14.791   9.763
42858SOL    HW230472  12.487   0.060   9.787
42859SOL     OW30473  13.361   4.480  14.239
42859SOL    HW130474  13.399   4.563  14.210
42859SOL    HW230475  13.405   4.461  14.321
42860SOL     OW30476  12.889   6.165   4.057
42860SOL    HW130477  12.849   6.179   3.971
42860SOL    HW230478  12.877   6.072   4.075
42861SOL     OW30479   1.657   8.114   5.305
42861SOL    HW130480   1.684   8.126   5.396
42861SOL    HW230481   1.580   8.169   5.295
42862SOL     OW30482   3.232   4.460  11.305
42862SOL    HW130483   3.257   4.392  11.242
42862SOL    HW230484   3.293   4.448  11.378
42863SOL     OW30485   8.980   5.949  11.912
42863SOL    HW130486   8.977   5.897  11.832
42863SOL    HW230487   8.978   5.885  11.983
42864SOL     OW30488   0.511   7.837  12.807
42864SOL    HW130489   0.586   7.844  12.866
42864SOL    HW230490   0.492   7.927  12.783
42865SOL     OW30491   5.801   8.043   7.891
42865SOL    HW130492   5.853   7.967   7.866
42865SOL    HW230493   5.718   8.007   7.921
42866SOL     OW30494   4.064  13.469  11.814
42866SOL    HW130495   3.989  13.412  11.797
42866SOL    HW230496   4.130  13.410  11.850
42867SOL     OW30497   6.128  12.621   6.421
42867SOL    HW130498   6.071  12.560   6.468
42867SOL    HW230499   6.215  12.581   6.427
42868SOL     OW30500  13.207  11.809   5.583
42868SOL    HW130501  13.217  11.894   5.539
42868SOL    HW230502  13.162  11.754   5.520
42869SOL     OW30503   4.396  10.933  12.023
42869SOL    HW130504   4.309  10.938  11.982
42869SOL    HW230505   4.446  10.876  11.965
42870SOL     OW30506  14.357  13.715  12.399
42870SOL    HW130507  14.368  13.719  12.304
42870SOL    HW230508  14.427  13.658  12.429
42871SOL     OW30509   7.749  13.408   5.136
42871SOL    HW130510   7.783  13.347   5.202
42871SOL    HW230511   7.762  13.363   5.053
42872SOL     OW30512   4.401   0.851  14.766
42872SOL    HW130513   4.357   0.912  14.706
42872SOL    HW230514   4.477   0.819  14.716
42873SOL     OW30515  11.703   1.951   2.412
42873SOL    HW130516  11.693   1.870   2.461
42873SOL    HW230517  11.616   1.969   2.378
42874SOL     OW30518  10.151   0.153   3.891
42874SOL    HW130519  10.183   0.077   3.843
42874SOL    HW230520  10.057   0.155   3.873
42875SOL     OW30521   3.845   8.166  13.925
42875SOL    HW130522   3.916   8.104  13.940
42875SOL    HW230523   3.773   8.134  13.978
42876SOL     OW30524   9.031  11.607   3.695
42876SOL    HW130525   9.103  11.548   3.671
42876SOL    HW230526   9.064  11.658   3.768
42877SOL     OW30527  10.913   5.457   5.425
42877SOL    HW130528  10.967   5.518   5.475
42877SOL    HW230529  10.969   5.381   5.410
42878SOL     OW30530   3.597   2.525   0.235
42878SOL    HW130531   3.587   2.464   0.308
42878SOL    HW230532   3.691   2.534   0.224
42879SOL     OW30533   3.755   8.689   3.980
42879SOL    HW130534   3.848   8.712   3.980
42879SOL    HW230535   3.714   8.758   3.927
42880SOL     OW30536   3.871   0.716   3.307
42880SOL    HW130537   3.896   0.642   3.363
42880SOL    HW230538   3.952   0.739   3.261
42881SOL     OW30539   6.010  14.384   8.181
42881SOL    HW130540   5.932  14.371   8.236
42881SOL    HW230541   5.988  14.460   8.127
42882SOL     OW30542   1.347   0.445  14.587
42882SOL    HW130543   1.255   0.423  14.601
42882SOL    HW230544   1.388   0.433  14.672
42883SOL     OW30545   5.272   6.456   3.748
42883SOL    HW130546   5.254   6.509   3.670
42883SOL    HW230547   5.288   6.368   3.714
42884SOL     OW30548   9.403  14.837  14.258
42884SOL    HW130549   9.350  14.779  14.313
42884SOL    HW230550   9.435  14.780  14.188
42885SOL     OW30551   0.259  11.999   6.194
42885SOL    HW130552   0.251  12.082   6.241
42885SOL    HW230553   0.329  12.015   6.130
42886SOL     OW30554  10.039   7.286   1.660
42886SOL    HW130555   9.981   7.228   1.709
42886SOL    HW230556  10.021   7.267   1.568
42887SOL     OW30557   2.556  11.814   6.554
42887SOL    HW130558   2.569  11.758   6.477
42887SOL    HW230559   2.498  11.763   6.610
42888SOL     OW30560  14.247  10.246   2.610
42888SOL    HW130561  14.337  10.254   2.643
42888SOL    HW230562  14.211  10.334   2.616
42889SOL     OW30563   3.346   4.817  11.356
42889SOL    HW130564   3.323   4.910  11.364
42889SOL    HW230565   3.437   4.817  11.328
42890SOL     OW30566   7.882   5.640   2.807
42890SOL    HW130567   7.896   5.646   2.901
42890SOL    HW230568   7.812   5.576   2.797
42891SOL     OW30569   4.720   9.809  14.793
42891SOL    HW130570   4.636   9.783  14.755
42891SOL    HW230571   4.701   9.828   0.004
42892SOL     OW30572   0.741   9.972   0.408
42892SOL    HW130573   0.813  10.034   0.421
42892SOL    HW230574   0.715   9.945   0.496
42893SOL     OW30575   5.527   1.694   6.544
42893SOL    HW130576   5.600   1.697   6.483
42893SOL    HW230577   5.454   1.734   6.496
42894SOL     OW30578  11.350   4.247   2.408
42894SOL    HW130579  11.302   4.320   2.370
42894SOL    HW230580  11.299   4.170   2.383
42895SOL     OW30581  14.531   8.304  13.817
42895SOL    HW130582  14.507   8.329  13.906
42895SOL    HW230583  14.615   8.258  13.828
42896SOL     OW30584   3.332   6.572  14.801
42896SOL    HW130585   3.237   6.574  14.815
42896SOL    HW230586   3.367   6.535   0.002
42897SOL     OW30587   9.694  14.327   1.340
42897SOL    HW130588   9.655  14.408   1.308
42897SOL    HW230589   9.730  14.285   1.262
42898SOL     OW30590  12.478   0.318  12.522
42898SOL    HW130591  12.407   0.375  12.493
42898SOL    HW230592  12.437   0.233  12.536
42899SOL     OW30593   2.392  14.799   7.624
42899SOL    HW130594   2.348  14.805   7.708
42899SOL    HW230595   2.483  14.778   7.646
42900SOL     OW30596  13.930  11.403  13.507
42900SOL    HW130597  13.926  11.311  13.483
42900SOL    HW230598  13.851  11.418  13.559
42901SOL     OW30599   8.276   1.715   9.182
42901SOL    HW130600   8.298   1.679   9.096
42901SOL    HW230601   8.297   1.808   9.175
42902SOL     OW30602  11.829   7.984   0.974
42902SOL    HW130603  11.822   8.074   0.942
42902SOL    HW230604  11.858   7.934   0.897
42903SOL     OW30605   2.231   4.027   5.948
42903SOL    HW130606   2.178   4.072   6.013
42903SOL    HW230607   2.321   4.054   5.967
42904SOL     OW30608   3.521   4.984  13.502
42904SOL    HW130609   3.524   5.021  13.413
42904SOL    HW230610   3.612   4.986  13.532
42905SOL     OW30611  13.054   9.246   6.948
42905SOL    HW130612  13.125   9.229   6.887
42905SOL    HW230613  13.018   9.160   6.968
42906SOL     OW30614   1.433   0.099  13.667
42906SOL    HW130615   1.476   0.075  13.585
42906SOL    HW230616   1.354   0.046  13.670
42907SOL     OW30617  11.624  14.011  10.514
42907SOL    HW130618  11.640  13.919  10.535
42907SOL    HW230619  11.711  14.047  10.494
42908SOL     OW30620   2.581   9.269   8.863
42908SOL    HW130621   2.652   9.236   8.919
42908SOL    HW230622   2.624   9.289   8.780
42909SOL     OW30623  11.548   9.931   9.985
42909SOL    HW130624  11.595   9.849   9.969
42909SOL    HW230625  11.457   9.911   9.962
42910SOL     OW30626   1.316   3.424   9.877
42910SOL    HW130627   1.234   3.386   9.846
42910SOL    HW230628   1.385   3.372   9.836
42911SOL     OW30629   7.350   7.541   9.113
42911SOL    HW130630   7.387   7.522   9.199
42911SOL    HW230631   7.415   7.598   9.072
42912SOL     OW30632   0.766  13.772  12.066
42912SOL    HW130633   0.781  13.762  12.159
42912SOL    HW230634   0.800  13.692  12.027
42913SOL     OW30635  11.203  12.909  12.661
42913SOL    HW130636  11.185  12.843  12.728
42913SOL    HW230637  11.259  12.865  12.598
42914SOL     OW30638   8.043   5.536   4.391
42914SOL    HW130639   8.134   5.543   4.363
42914SOL    HW230640   8.032   5.444   4.414
42915SOL     OW30641   4.425   0.404   1.390
42915SOL    HW130642   4.379   0.369   1.314
42915SOL    HW230643   4.443   0.495   1.366
42916SOL     OW30644  11.511   0.987   7.816
42916SOL    HW130645  11.558   1.012   7.737
42916SOL    HW230646  11.433   0.942   7.784
42917SOL     OW30647   0.338   2.574   7.481
42917SOL    HW130648   0.355   2.666   7.459
42917SOL    HW230649   0.243   2.569   7.492
42918SOL     OW30650   2.605   9.388  11.739
42918SOL    HW130651   2.631   9.406  11.830
42918SOL    HW230652   2.678   9.420  11.687
42919SOL     OW30653   2.068   1.855   9.821
42919SOL    HW130654   2.020   1.898   9.892
42919SOL    HW230655   2.114   1.782   9.864
42920SOL     OW30656   5.577   0.966  10.372
42920SOL    HW130657   5.632   0.999  10.443
42920SOL    HW230658   5.489   0.963  10.410
42921SOL     OW30659   0.016  14.579   8.110
42921SOL    HW130660   0.004  14.515   8.180
42921SOL    HW230661  14.836  14.551   8.041
42922SOL     OW30662  12.054   6.271  11.978
42922SOL    HW130663  12.148   6.250  11.975
42922SOL    HW230664  12.022   6.227  12.057
42923SOL     OW30665   2.747  10.828  14.379
42923SOL    HW130666   2.677  10.764  14.366
42923SOL    HW230667   2.828  10.777  14.373
42924SOL     OW30668  11.043  13.917  12.863
42924SOL    HW130669  11.029  13.823  12.853
42924SOL    HW230670  10.957  13.951  12.891
42925SOL     OW30671   6.076  11.772   6.318
42925SOL    HW130672   6.018  11.837   6.278
42925SOL    HW230673   6.031  11.689   6.305
42926SOL     OW30674  11.216  11.570  12.190
42926SOL    HW130675  11.267  11.560  12.271
42926SOL    HW230676  11.154  11.498  12.191
42927SOL     OW30677  13.674  14.259   4.866
42927SOL    HW130678  13.601  14.198   4.856
42927SOL    HW230679  13.636  14.334   4.913
42928SOL     OW30680  14.348   3.006   0.081
42928SOL    HW130681  14.373   3.003   0.174
42928SOL    HW230682  14.411   2.948   0.038
42929SOL     OW30683   3.123   8.842   8.850
42929SOL    HW130684   3.178   8.807   8.920
42929SOL    HW230685   3.057   8.894   8.896
42930SOL     OW30686  13.356   5.613   2.831
42930SOL    HW130687  13.362   5.517   2.831
42930SOL    HW230688  13.426   5.640   2.891
42931SOL     OW30689   1.520  10.601  14.486
42931SOL    HW130690   1.477  10.523  14.453
42931SOL    HW230691   1.460  10.635  14.553
42932SOL     OW30692   7.444   8.748   7.436
42932SOL    HW130693   7.471   8.704   7.356
42932SOL    HW230694   7.372   8.695   7.469
42933SOL     OW30695  12.181  11.407   8.480
42933SOL    HW130696  12.145  11.370   8.561
42933SOL    HW230697  12.174  11.336   8.416
42934SOL     OW30698   9.703  11.552  11.773
42934SOL    HW130699   9.636  11.607  11.813
42934SOL    HW230700   9.653  11.483  11.729
42935SOL     OW30701   4.551   1.167   9.945
42935SOL    HW130702   4.457   1.159   9.932
42935SOL    HW230703   4.586   1.081   9.919
42936SOL     OW30704   0.097   6.286   3.043
42936SOL    HW130705   0.125   6.336   2.966
42936SOL    HW230706   0.015   6.245   3.016
42937SOL     OW30707   4.622   4.333  14.433
42937SOL    HW130708   4.653   4.285  14.510
42937SOL    HW230709   4.702   4.362  14.389
42938SOL     OW30710   1.494   8.792   6.395
42938SOL    HW130711   1.475   8.743   6.475
42938SOL    HW230712   1.410   8.803   6.352
42939SOL     OW30713   6.907   9.026  10.346
42939SOL    HW130714   6.962   8.982  10.281
42939SOL    HW230715   6.818   8.997  10.326
42940SOL     OW30716  12.426  14.133  12.666
42940SOL    HW130717  12.419  14.153  12.572
42940SOL    HW230718  12.500  14.073  12.672
42941SOL     OW30719   9.459  14.294  14.858
42941SOL    HW130720   9.501  14.214  14.827
42941SOL    HW230721   9.373  14.294  14.817
42942SOL     OW30722   2.571   3.204  11.359
42942SOL    HW130723   2.637   3.200  11.428
42942SOL    HW230724   2.487   3.203  11.406
42943SOL     OW30725  10.694   6.395   3.511
42943SOL    HW130726  10.747   6.471   3.535
42943SOL    HW230727  10.628   6.430   3.451
42944SOL     OW30728   9.804   4.155   9.895
42944SOL    HW130729   9.719   4.139   9.937
42944SOL    HW230730   9.808   4.250   9.884
42945SOL     OW30731   3.042   2.570  14.849
42945SOL    HW130732   3.078   2.488  14.816
42945SOL    HW230733   3.106   2.600   0.034
42946SOL     OW30734   5.192   5.005   9.898
42946SOL    HW130735   5.157   5.047   9.820
42946SOL    HW230736   5.177   5.068   9.968
42947SOL     OW30737   0.264  12.126  10.187
42947SOL    HW130738   0.235  12.146  10.098
42947SOL    HW230739   0.356  12.100  10.177
42948SOL     OW30740   8.696   9.560  10.095
42948SOL    HW130741   8.722   9.482  10.144
42948SOL    HW230742   8.609   9.580  10.127
42949SOL     OW30743  13.966   1.606   2.152
42949SOL    HW130744  13.971   1.676   2.087
42949SOL    HW230745  13.875   1.579   2.151
42950SOL     OW30746   0.555  11.461   1.898
42950SOL    HW130747   0.541  11.398   1.969
42950SOL    HW230748   0.495  11.433   1.829
42951SOL     OW30749   8.569  12.979  10.046
42951SOL    HW130750   8.474  12.972  10.034
42951SOL    HW230751   8.579  13.048  10.112
42952SOL     OW30752   5.458  12.585   8.720
42952SOL    HW130753   5.430  12.494   8.734
42952SOL    HW230754   5.434  12.630   8.801
42953SOL     OW30755  14.383   0.333   2.586
42953SOL    HW130756  14.344   0.381   2.512
42953SOL    HW230757  14.433   0.263   2.545
42954SOL     OW30758   4.758  14.835  12.083
42954SOL    HW130759   4.806  14.792  12.012
42954SOL    HW230760   4.780  14.785  12.161
42955SOL     OW30761   4.793   5.710  13.890
42955SOL    HW130762   4.844   5.639  13.928
42955SOL    HW230763   4.835   5.790  13.923
42956SOL     OW30764  12.195   2.382  10.616
42956SOL    HW130765  12.226   2.366  10.706
42956SOL    HW230766  12.202   2.476  10.605
42957SOL     OW30767   7.935  12.838   7.614
42957SOL    HW130768   7.942  12.743   7.623
42957SOL    HW230769   7.863  12.851   7.552
42958SOL     OW30770  13.884   5.986  12.536
42958SOL    HW130771  13.957   6.049  12.538
42958SOL    HW230772  13.835   6.004  12.616
42959SOL     OW30773   3.580   3.251   1.338
42959SOL    HW130774   3.603   3.299   1.259
42959SOL    HW230775   3.492   3.280   1.360
42960SOL     OW30776  11.678  11.239   1.329
42960SOL    HW130777  11.772  11.237   1.310
42960SOL    HW230778  11.637  11.272   1.249
42961SOL     OW30779  10.167   5.728   1.586
42961SOL    HW130780  10.126   5.770   1.661
42961SOL    HW230781  10.095   5.682   1.543
42962SOL     OW30782  14.746   5.977   8.211
42962SOL    HW130783  14.737   5.920   8.134
42962SOL    HW230784  14.685   5.941   8.275
42963SOL     OW30785   3.170   1.100   8.162
42963SOL    HW130786   3.202   1.106   8.073
42963SOL    HW230787   3.127   1.014   8.166
42964SOL     OW30788   8.977   0.690  11.623
42964SOL    HW130789   9.005   0.643  11.701
42964SOL    HW230790   8.937   0.624  11.567
42965SOL     OW30791   1.589   3.460   3.857
42965SOL    HW130792   1.673   3.441   3.900
42965SOL    HW230793   1.561   3.543   3.895
42966SOL     OW30794  12.263  11.946  11.027
42966SOL    HW130795  12.271  11.947  11.123
42966SOL    HW230796  12.181  11.992  11.010
42967SOL     OW30797  13.014   9.849   7.861
42967SOL    HW130798  13.056   9.912   7.920
42967SOL    HW230799  12.983   9.779   7.918
42968SOL     OW30800   2.850   5.958  12.941
42968SOL    HW130801   2.841   5.887  12.878
42968SOL    HW230802   2.815   5.923  13.023
42969SOL     OW30803  10.199   5.535   0.588
42969SOL    HW130804  10.123   5.501   0.540
42969SOL    HW230805  10.271   5.531   0.525
42970SOL     OW30806  12.569  10.420   5.732
42970SOL    HW130807  12.546  10.394   5.822
42970SOL    HW230808  12.595  10.512   5.740
42971SOL     OW30809   1.313   7.947  11.574
42971SOL    HW130810   1.348   7.879  11.518
42971SOL    HW230811   1.248   7.903  11.628
42972SOL     OW30812   9.772   4.521  10.152
42972SOL    HW130813   9.687   4.558  10.174
42972SOL    HW230814   9.777   4.440  10.203
42973SOL     OW30815   5.666  11.216  10.806
42973SOL    HW130816   5.719  11.160  10.749
42973SOL    HW230817   5.719  11.227  10.885
42974SOL     OW30818   8.660   3.010   4.643
42974SOL    HW130819   8.756   3.013   4.635
42974SOL    HW230820   8.631   3.097   4.618
42975SOL     OW30821  11.783  13.704   3.897
42975SOL    HW130822  11.835  13.650   3.957
42975SOL    HW230823  11.845  13.732   3.830
42976SOL     OW30824   3.893  12.954   7.196
42976SOL    HW130825   3.916  12.879   7.250
42976SOL    HW230826   3.951  13.024   7.225
42977SOL     OW30827   0.091  10.650   4.051
42977SOL    HW130828   0.039  10.694   4.118
42977SOL    HW230829   0.076  10.557   4.066
42978SOL     OW30830  12.681  10.750   1.624
42978SOL    HW130831  12.675  10.660   1.591
42978SOL    HW230832  12.693  10.740   1.718
42979SOL     OW30833   8.424  12.914   6.015
42979SOL    HW130834   8.463  12.962   6.088
42979SOL    HW230835   8.499  12.878   5.967
42980SOL     OW30836  12.430   9.174  11.676
42980SOL    HW130837  12.417   9.269  11.679
42980SOL    HW230838  12.466   9.153  11.762
42981SOL     OW30839   3.329   9.792   6.535
42981SOL    HW130840   3.391   9.741   6.483
42981SOL    HW230841   3.346   9.883   6.510
42982SOL     OW30842   8.325   3.455   2.428
42982SOL    HW130843   8.231   3.469   2.421
42982SOL    HW230844   8.334   3.387   2.495
42983SOL     OW30845   2.839   4.329   4.848
42983SOL    HW130846   2.841   4.248   4.796
42983SOL    HW230847   2.783   4.388   4.798
42984SOL     OW30848   4.082   2.082   6.856
42984SOL    HW130849   4.003   2.123   6.821
42984SOL    HW230850   4.086   2.111   6.947
42985SOL     OW30851   9.019   9.170   2.036
42985SOL    HW130852   8.989   9.237   1.974
42985SOL    HW230853   9.090   9.125   1.990
42986SOL     OW30854   8.060  11.425   7.741
42986SOL    HW130855   8.017  11.422   7.655
42986SOL    HW230856   8.006  11.484   7.793
42987SOL     OW30857  12.905   6.637  12.340
42987SOL    HW130858  12.919   6.567  12.404
42987SOL    HW230859  12.943   6.603  12.259
42988SOL     OW30860   4.718  12.356   2.489
42988SOL    HW130861   4.719  12.335   2.395
42988SOL    HW230862   4.784  12.299   2.527
42989SOL     OW30863   1.476   0.158   5.396
42989SOL    HW130864   1.430   0.118   5.470
42989SOL    HW230865   1.406   0.193   5.340
42990SOL     OW30866   5.892  14.737   8.251
42990SOL    HW130867   5.909  14.792   8.328
42990SOL    HW230868   5.847  14.660   8.286
42991SOL     OW30869   0.089   1.142   2.653
42991SOL    HW130870   0.068   1.190   2.573
42991SOL    HW230871   0.074   1.050   2.631
42992SOL     OW30872  12.592  13.088   1.761
42992SOL    HW130873  12.533  13.023   1.722
42992SOL    HW230874  12.672  13.083   1.707
42993SOL     OW30875   2.839  11.335   4.323
42993SOL    HW130876   2.850  11.242   4.342
42993SOL    HW230877   2.774  11.365   4.386
42994SOL     OW30878   4.930   8.740   0.980
42994SOL    HW130879   5.018   8.748   0.943
42994SOL    HW230880   4.878   8.805   0.932
42995SOL     OW30881   2.676   4.093  14.707
42995SOL    HW130882   2.728   4.076  14.629
42995SOL    HW230883   2.585   4.081  14.679
42996SOL     OW30884   9.469   4.222   8.388
42996SOL    HW130885   9.377   4.245   8.374
42996SOL    HW230886   9.509   4.230   8.302
42997SOL     OW30887   5.577   2.609  13.111
42997SOL    HW130888   5.648   2.576  13.166
42997SOL    HW230889   5.611   2.606  13.022
42998SOL     OW30890   1.150   4.158  11.074
42998SOL    HW130891   1.140   4.199  11.160
42998SOL    HW230892   1.207   4.083  11.089
42999SOL     OW30893   0.775   7.608   5.490
42999SOL    HW130894   0.845   7.661   5.452
42999SOL    HW230895   0.701   7.668   5.498
43000SOL     OW30896  11.956  11.254   6.764
43000SOL    HW130897  11.912  11.339   6.764
43000SOL    HW230898  12.044  11.272   6.797
43001SOL     OW30899   5.648   4.653  11.955
43001SOL    HW130900   5.571   4.600  11.938
43001SOL    HW230901   5.613   4.738  11.982
43002SOL     OW30902   6.653  14.418   4.229
43002SOL    HW130903   6.572  14.388   4.270
43002SOL    HW230904   6.706  14.338   4.220
43003SOL     OW30905   7.670   7.244   3.446
43003SOL    HW130906   7.734   7.190   3.492
43003SOL    HW230907   7.609   7.181   3.408
43004SOL     OW30908  12.556   5.887  14.606
43004SOL    HW130909  12.620   5.931  14.549
43004SOL    HW230910  12.519   5.958  14.658
43005SOL     OW30911   0.149   8.206   2.693
43005SOL    HW130912   0.122   8.145   2.763
43005SOL    HW230913   0.224   8.252   2.730
43006SOL     OW30914  10.068  13.943  13.645
43006SOL    HW130915  10.145  13.907  13.688
43006SOL    HW230916  10.029  14.001  13.710
43007SOL     OW30917   7.300   0.172   4.118
43007SOL    HW130918   7.252   0.192   4.198
43007SOL    HW230919   7.354   0.249   4.103
43008SOL     OW30920   6.201   1.693   0.539
43008SOL    HW130921   6.207   1.743   0.620
43008SOL    HW230922   6.114   1.652   0.542
43009SOL     OW30923   3.031  11.269   2.771
43009SOL    HW130924   3.097  11.335   2.750
43009SOL    HW230925   3.081  11.190   2.792
43010SOL     OW30926   7.064  12.434   8.117
43010SOL    HW130927   7.113  12.430   8.199
43010SOL    HW230928   7.036  12.344   8.101
43011SOL     OW30929   5.068   9.599   9.885
43011SOL    HW130930   5.028   9.680   9.853
43011SOL    HW230931   5.040   9.532   9.823
43012SOL     OW30932  11.652  11.067   2.100
43012SOL    HW130933  11.675  10.999   2.036
43012SOL    HW230934  11.722  11.132   2.091
43013SOL     OW30935   1.309  12.106   2.765
43013SOL    HW130936   1.295  12.181   2.707
43013SOL    HW230937   1.255  12.124   2.842
43014SOL     OW30938   9.454   2.534   4.876
43014SOL    HW130939   9.391   2.527   4.948
43014SOL    HW230940   9.466   2.444   4.846
43015SOL     OW30941  13.477   0.222  12.404
43015SOL    HW130942  13.471   0.190  12.314
43015SOL    HW230943  13.389   0.255  12.423
43016SOL     OW30944   1.992   1.138   6.868
43016SOL    HW130945   2.057   1.163   6.934
43016SOL    HW230946   1.922   1.203   6.878
43017SOL     OW30947   3.045   7.042  10.016
43017SOL    HW130948   3.117   6.995   9.976
43017SOL    HW230949   3.050   7.130   9.979
43018SOL     OW30950  13.734   6.061   2.989
43018SOL    HW130951  13.680   5.982   2.980
43018SOL    HW230952  13.752   6.068   3.082
43019SOL     OW30953   9.015  13.017   0.924
43019SOL    HW130954   9.010  12.930   0.884
43019SOL    HW230955   8.937  13.023   0.979
43020SOL     OW30956  14.781   2.631  13.360
43020SOL    HW130957  14.820   2.563  13.305
43020SOL    HW230958  14.718   2.676  13.303
43021SOL     OW30959   7.512  12.785   1.035
43021SOL    HW130960   7.480  12.775   1.125
43021SOL    HW230961   7.550  12.873   1.033
43022SOL     OW30962  12.484   5.512  14.011
43022SOL    HW130963  12.402   5.507  13.962
43022SOL    HW230964  12.459   5.553  14.094
43023SOL     OW30965  10.934   8.390   5.083
43023SOL    HW130966  10.994   8.460   5.059
43023SOL    HW230967  10.850   8.434   5.097
43024SOL     OW30968   7.232   2.398   6.708
43024SOL    HW130969   7.285   2.431   6.781
43024SOL    HW230970   7.223   2.473   6.649
43025SOL     OW30971  14.634  12.156   0.825
43025SOL    HW130972  14.668  12.228   0.772
43025SOL    HW230973  14.635  12.189   0.915
43026SOL     OW30974   3.209  12.738   1.074
43026SOL    HW130975   3.185  12.675   1.142
43026SOL    HW230976   3.164  12.818   1.100
43027SOL     OW30977   9.875  12.569   7.252
43027SOL    HW130978   9.811  12.539   7.187
43027SOL    HW230979   9.901  12.656   7.221
43028SOL     OW30980   5.676   7.339   1.997
43028SOL    HW130981   5.706   7.413   2.051
43028SOL    HW230982   5.581   7.343   2.002
43029SOL     OW30983   1.778  14.067   9.235
43029SOL    HW130984   1.726  13.997   9.273
43029SOL    HW230985   1.722  14.145   9.242
43030SOL     OW30986  11.648   8.676   9.788
43030SOL    HW130987  11.572   8.734   9.796
43030SOL    HW230988  11.613   8.595   9.752
43031SOL     OW30989   6.264   1.743   9.608
43031SOL    HW130990   6.268   1.838   9.608
43031SOL    HW230991   6.174   1.723   9.633
43032SOL     OW30992   7.860  10.778   8.657
43032SOL    HW130993   7.808  10.854   8.630
43032SOL    HW230994   7.945  10.792   8.616
43033SOL     OW30995  11.297   5.644  14.547
43033SOL    HW130996  11.231   5.582  14.517
43033SOL    HW230997  11.305   5.707  14.476
43034SOL     OW30998   5.961   2.835  13.956
43034SOL    HW130999   5.931   2.918  13.995
43034SOL    HW231000   6.014   2.862  13.881
43035SOL     OW31001   5.877  11.575   6.205
43035SOL    HW131002   5.928  11.497   6.183
43035SOL    HW231003   5.883  11.631   6.127
43036SOL     OW31004   6.854  10.760   3.256
43036SOL    HW131005   6.869  10.763   3.162
43036SOL    HW231006   6.772  10.711   3.265
43037SOL     OW31007   5.822  10.124   5.225
43037SOL    HW131008   5.772  10.045   5.206
43037SOL    HW231009   5.768  10.196   5.192
43038SOL     OW31010   2.760   3.750   3.118
43038SOL    HW131011   2.765   3.706   3.033
43038SOL    HW231012   2.794   3.685   3.180
43039SOL     OW31013   7.663  13.507   8.306
43039SOL    HW131014   7.747  13.547   8.282
43039SOL    HW231015   7.638  13.457   8.228
43040SOL     OW31016  13.754   9.264   2.539
43040SOL    HW131017  13.682   9.317   2.504
43040SOL    HW231018  13.712   9.189   2.580
43041SOL     OW31019   2.765   5.429   3.563
43041SOL    HW131020   2.843   5.391   3.602
43041SOL    HW231021   2.703   5.439   3.636
43042SOL     OW31022   8.478  12.882   4.635
43042SOL    HW131023   8.409  12.948   4.626
43042SOL    HW231024   8.557  12.933   4.654
43043SOL     OW31025  14.360  10.052   6.883
43043SOL    HW131026  14.429  10.118   6.884
43043SOL    HW231027  14.278  10.102   6.890
43044SOL     OW31028   5.249   7.304   6.301
43044SOL    HW131029   5.313   7.337   6.365
43044SOL    HW231030   5.299   7.241   6.248
43045SOL     OW31031   2.305   2.229   8.753
43045SOL    HW131032   2.368   2.181   8.807
43045SOL    HW231033   2.244   2.268   8.816
43046SOL     OW31034   7.124  10.263  12.366
43046SOL    HW131035   7.039  10.289  12.330
43046SOL    HW231036   7.156  10.195  12.307
43047SOL     OW31037  12.616   9.825   0.347
43047SOL    HW131038  12.700   9.858   0.314
43047SOL    HW231039  12.557   9.901   0.343
43048SOL     OW31040  11.414   4.320   7.019
43048SOL    HW131041  11.489   4.376   6.997
43048SOL    HW231042  11.339   4.363   6.980
43049SOL     OW31043   2.141   1.669   6.606
43049SOL    HW131044   2.091   1.605   6.658
43049SOL    HW231045   2.169   1.621   6.528
43050SOL     OW31046  10.744   7.321   1.480
43050SOL    HW131047  10.748   7.230   1.452
43050SOL    HW231048  10.826   7.336   1.525
43051SOL     OW31049   6.433   9.109  12.106
43051SOL    HW131050   6.443   9.110  12.201
43051SOL    HW231051   6.522   9.119  12.072
43052SOL     OW31052   5.047   7.541   7.258
43052SOL    HW131053   5.070   7.520   7.167
43052SOL    HW231054   5.119   7.596   7.289
43053SOL     OW31055   1.786   3.664   2.358
43053SOL    HW131056   1.724   3.593   2.342
43053SOL    HW231057   1.871   3.627   2.333
43054SOL     OW31058  13.931  14.529  11.342
43054SOL    HW131059  14.007  14.586  11.356
43054SOL    HW231060  13.871  14.552  11.412
43055SOL     OW31061   7.202   1.560   7.678
43055SOL    HW131062   7.288   1.601   7.674
43055SOL    HW231063   7.184   1.551   7.772
43056SOL     OW31064   3.352   7.969  14.671
43056SOL    HW131065   3.388   7.932  14.590
43056SOL    HW231066   3.367   7.900  14.737
43057SOL     OW31067  11.978   7.126  14.293
43057SOL    HW131068  12.045   7.195  14.289
43057SOL    HW231069  11.948   7.117  14.203
43058SOL     OW31070   0.869   7.352  14.338
43058SOL    HW131071   0.816   7.274  14.353
43058SOL    HW231072   0.890   7.384  14.426
43059SOL     OW31073  11.199   8.099   4.254
43059SOL    HW131074  11.118   8.060   4.222
43059SOL    HW231075  11.225   8.044   4.327
43060SOL     OW31076   6.147   0.225  10.066
43060SOL    HW131077   6.207   0.152  10.048
43060SOL    HW231078   6.069   0.184  10.103
43061SOL     OW31079  12.656   4.157   3.007
43061SOL    HW131080  12.648   4.215   2.931
43061SOL    HW231081  12.569   4.158   3.046
43062SOL     OW31082   4.210   9.550   2.430
43062SOL    HW131083   4.203   9.464   2.470
43062SOL    HW231084   4.166   9.541   2.345
43063SOL     OW31085  11.334   7.829   3.684
43063SOL    HW131086  11.349   7.807   3.593
43063SOL    HW231087  11.255   7.885   3.683
43064SOL     OW31088  11.216   1.415   4.585
43064SOL    HW131089  11.299   1.442   4.623
43064SOL    HW231090  11.219   1.319   4.586
43065SOL     OW31091   1.334   6.923  14.646
43065SOL    HW131092   1.262   6.880  14.692
43065SOL    HW231093   1.413   6.890  14.690
43066SOL     OW31094   5.683  11.014   3.533
43066SOL    HW131095   5.719  11.078   3.471
43066SOL    HW231096   5.622  10.962   3.480
43067SOL     OW31097   7.916   3.612   6.494
43067SOL    HW131098   7.852   3.673   6.531
43067SOL    HW231099   7.969   3.667   6.436
43068SOL     OW31100  12.972  13.890   0.213
43068SOL    HW131101  12.916  13.848   0.278
43068SOL    HW231102  12.912  13.919   0.144
43069SOL     OW31103  13.074   2.964   1.599
43069SOL    HW131104  13.142   3.027   1.623
43069SOL    HW231105  13.110   2.879   1.626
43070SOL     OW31106  14.679   2.064  12.812
43070SOL    HW131107  14.707   2.149  12.780
43070SOL    HW231108  14.630   2.083  12.892
43071SOL     OW31109  10.922   9.204   0.948
43071SOL    HW131110  10.858   9.209   0.877
43071SOL    HW231111  10.996   9.157   0.909
43072SOL     OW31112  11.507   9.941   1.146
43072SOL    HW131113  11.522  10.032   1.119
43072SOL    HW231114  11.578   9.891   1.106
43073SOL     OW31115  13.032   6.930   9.680
43073SOL    HW131116  13.086   6.876   9.737
43073SOL    HW231117  12.943   6.919   9.713
43074SOL     OW31118  12.166   7.613  12.089
43074SOL    HW131119  12.096   7.571  12.039
43074SOL    HW231120  12.137   7.609  12.180
43075SOL     OW31121   5.373   6.323  14.465
43075SOL    HW131122   5.404   6.271  14.391
43075SOL    HW231123   5.444   6.319  14.529
43076SOL     OW31124   5.234   7.215  12.702
43076SOL    HW131125   5.222   7.310  12.695
43076SOL    HW231126   5.281   7.190  12.623
43077SOL     OW31127   0.469   2.391   5.091
43077SOL    HW131128   0.460   2.347   5.007
43077SOL    HW231129   0.384   2.379   5.134
43078SOL     OW31130  10.151   5.613   6.788
43078SOL    HW131131  10.216   5.681   6.770
43078SOL    HW231132  10.107   5.643   6.867
43079SOL     OW31133   8.927   3.280  11.573
43079SOL    HW131134   8.992   3.227  11.618
43079SOL    HW231135   8.901   3.227  11.497
43080SOL     OW31136   1.390   2.518   8.326
43080SOL    HW131137   1.432   2.467   8.257
43080SOL    HW231138   1.335   2.581   8.279
43081SOL     OW31139   3.966   2.303   2.964
43081SOL    HW131140   4.055   2.333   2.944
43081SOL    HW231141   3.972   2.266   3.051
43082SOL     OW31142   6.355   8.309  12.231
43082SOL    HW131143   6.327   8.259  12.308
43082SOL    HW231144   6.276   8.316  12.178
43083SOL     OW31145   5.932   8.635   6.460
43083SOL    HW131146   5.910   8.720   6.423
43083SOL    HW231147   5.877   8.573   6.411
43084SOL     OW31148  14.769   7.058  10.856
43084SOL    HW131149  14.686   7.093  10.825
43084SOL    HW231150  14.757   7.049  10.951
43085SOL     OW31151   9.575   1.829   5.958
43085SOL    HW131152   9.656   1.879   5.945
43085SOL    HW231153   9.560   1.786   5.874
43086SOL     OW31154  10.295   4.012   9.420
43086SOL    HW131155  10.315   4.040   9.510
43086SOL    HW231156  10.203   3.988   9.422
43087SOL     OW31157   6.422   1.412   3.698
43087SOL    HW131158   6.348   1.470   3.682
43087SOL    HW231159   6.479   1.423   3.622
43088SOL     OW31160  10.853  12.430   1.655
43088SOL    HW131161  10.888  12.470   1.734
43088SOL    HW231162  10.838  12.503   1.595
43089SOL     OW31163   7.043   1.398   3.470
43089SOL    HW131164   7.096   1.363   3.542
43089SOL    HW231165   6.983   1.327   3.447
43090SOL     OW31166   8.532  13.358   3.075
43090SOL    HW131167   8.604  13.368   3.013
43090SOL    HW231168   8.454  13.383   3.026
43091SOL     OW31169  14.119   0.657  10.208
43091SOL    HW131170  14.153   0.617  10.128
43091SOL    HW231171  14.124   0.751  10.191
43092SOL     OW31172   0.155   0.594   6.399
43092SOL    HW131173   0.178   0.685   6.420
43092SOL    HW231174   0.224   0.565   6.339
43093SOL     OW31175  12.891   8.560  11.834
43093SOL    HW131176  12.812   8.506  11.842
43093SOL    HW231177  12.915   8.552  11.741
43094SOL     OW31178  11.213   3.365   7.977
43094SOL    HW131179  11.216   3.400   8.066
43094SOL    HW231180  11.265   3.426   7.926
43095SOL     OW31181   5.942   0.440   0.813
43095SOL    HW131182   5.960   0.448   0.907
43095SOL    HW231183   6.024   0.464   0.771
43096SOL     OW31184   6.705   4.193  11.881
43096SOL    HW131185   6.617   4.155  11.891
43096SOL    HW231186   6.703   4.237  11.796
43097SOL     OW31187   2.005  12.887   1.982
43097SOL    HW131188   2.081  12.905   2.039
43097SOL    HW231189   1.934  12.939   2.021
43098SOL     OW31190   6.117  10.471   3.925
43098SOL    HW131191   6.062  10.550   3.928
43098SOL    HW231192   6.107  10.438   3.836
43099SOL     OW31193   3.913   4.780   3.411
43099SOL    HW131194   3.837   4.769   3.354
43099SOL    HW231195   3.898   4.720   3.484
43100SOL     OW31196   6.848   6.439   6.419
43100SOL    HW131197   6.793   6.509   6.383
43100SOL    HW231198   6.807   6.358   6.389
43101SOL     OW31199   3.855   7.881   4.651
43101SOL    HW131200   3.808   7.832   4.719
43101SOL    HW231201   3.786   7.919   4.596
43102SOL     OW31202   7.506  13.837  11.285
43102SOL    HW131203   7.461  13.784  11.350
43102SOL    HW231204   7.596  13.844  11.318
43103SOL     OW31205   7.255  13.038   1.167
43103SOL    HW131206   7.245  13.003   1.079
43103SOL    HW231207   7.350  13.036   1.183
43104SOL     OW31208   6.769   3.813   4.424
43104SOL    HW131209   6.720   3.744   4.468
43104SOL    HW231210   6.838   3.767   4.376
43105SOL     OW31211  12.688   3.373  13.399
43105SOL    HW131212  12.759   3.375  13.464
43105SOL    HW231213  12.688   3.283  13.366
43106SOL     OW31214   3.926   7.722   9.460
43106SOL    HW131215   3.854   7.659   9.459
43106SOL    HW231216   3.954   7.724   9.551
43107SOL     OW31217   5.612   9.447   4.622
43107SOL    HW131218   5.704   9.421   4.617
43107SOL    HW231219   5.583   9.413   4.706
43108SOL     OW31220   4.408  14.374  12.720
43108SOL    HW131221   4.358  14.322  12.657
43108SOL    HW231222   4.342  14.417  12.774
43109SOL     OW31223  13.000   2.438   6.412
43109SOL    HW131224  13.031   2.528   6.413
43109SOL    HW231225  13.034   2.402   6.331
43110SOL     OW31226   3.317   8.900  14.859
43110SOL    HW131227   3.240   8.902   0.035
43110SOL    HW231228   3.342   8.807  14.855
43111SOL     OW31229   3.168   6.225   1.747
43111SOL    HW131230   3.210   6.177   1.676
43111SOL    HW231231   3.117   6.159   1.794
43112SOL     OW31232   6.898  11.416   7.097
43112SOL    HW131233   6.841  11.356   7.049
43112SOL    HW231234   6.960  11.447   7.031
43113SOL     OW31235  11.228  14.648   1.610
43113SOL    HW131236  11.170  14.722   1.630
43113SOL    HW231237  11.193  14.613   1.528
43114SOL     OW31238   0.109   2.525   9.159
43114SOL    HW131239   0.119   2.620   9.151
43114SOL    HW231240   0.197   2.494   9.180
43115SOL     OW31241   1.540  14.801  12.835
43115SOL    HW131242   1.603  14.817  12.904
43115SOL    HW231243   1.580  14.838  12.756
43116SOL     OW31244   3.462   6.773   3.912
43116SOL    HW131245   3.471   6.868   3.922
43116SOL    HW231246   3.377   6.760   3.871
43117SOL     OW31247  11.669  13.412   6.481
43117SOL    HW131248  11.731  13.352   6.439
43117SOL    HW231249  11.641  13.471   6.411
43118SOL     OW31250   5.302   1.030   7.752
43118SOL    HW131251   5.255   1.027   7.836
43118SOL    HW231252   5.258   0.965   7.697
43119SOL     OW31253   6.209   8.496  14.656
43119SOL    HW131254   6.117   8.517  14.676
43119SOL    HW231255   6.245   8.578  14.620
43120SOL     OW31256  13.656   6.272  14.833
43120SOL    HW131257  13.706   6.341  14.878
43120SOL    HW231258  13.717   6.235  14.770
43121SOL     OW31259   1.419   2.983   7.164
43121SOL    HW131260   1.412   2.966   7.257
43121SOL    HW231261   1.403   3.077   7.156
43122SOL     OW31262   2.290   2.333  10.919
43122SOL    HW131263   2.243   2.310  10.839
43122SOL    HW231264   2.225   2.378  10.973
43123SOL     OW31265  14.273   7.231   0.321
43123SOL    HW131266  14.218   7.220   0.398
43123SOL    HW231267  14.362   7.234   0.356
43124SOL     OW31268  12.728   8.013   8.309
43124SOL    HW131269  12.694   8.071   8.377
43124SOL    HW231270  12.795   7.961   8.353
43125SOL     OW31271   1.996   1.764   9.565
43125SOL    HW131272   2.033   1.821   9.632
43125SOL    HW231273   1.998   1.677   9.603
43126SOL     OW31274   4.921  13.947  10.233
43126SOL    HW131275   4.851  14.011  10.215
43126SOL    HW231276   4.896  13.907  10.316
43127SOL     OW31277   7.017   5.229   5.300
43127SOL    HW131278   6.971   5.176   5.236
43127SOL    HW231279   7.097   5.258   5.255
43128SOL     OW31280   2.856   1.387   1.765
43128SOL    HW131281   2.898   1.364   1.682
43128SOL    HW231282   2.764   1.363   1.753
43129SOL     OW31283   3.348   1.166   1.324
43129SOL    HW131284   3.253   1.159   1.315
43129SOL    HW231285   3.373   1.090   1.377
43130SOL     OW31286   7.735   3.312   9.316
43130SOL    HW131287   7.642   3.333   9.328
43130SOL    HW231288   7.781   3.381   9.364
43131SOL     OW31289   0.559   4.135  13.469
43131SOL    HW131290   0.521   4.051  13.443
43131SOL    HW231291   0.617   4.159  13.397
43132SOL     OW31292   0.142   1.416  13.491
43132SOL    HW131293   0.079   1.371  13.547
43132SOL    HW231294   0.095   1.493  13.458
43133SOL     OW31295  12.531  12.088  10.547
43133SOL    HW131296  12.625  12.068  10.540
43133SOL    HW231297  12.528  12.182  10.562
43134SOL     OW31298   3.523   9.690   7.267
43134SOL    HW131299   3.506   9.763   7.207
43134SOL    HW231300   3.446   9.688   7.324
43135SOL     OW31301   3.131   9.817  14.013
43135SOL    HW131302   3.067   9.837  14.081
43135SOL    HW231303   3.159   9.728  14.032
43136SOL     OW31304  12.165   6.345  13.460
43136SOL    HW131305  12.112   6.423  13.475
43136SOL    HW231306  12.145   6.319  13.370
43137SOL     OW31307  13.725  13.012  11.687
43137SOL    HW131308  13.760  13.033  11.774
43137SOL    HW231309  13.641  13.058  11.684
43138SOL     OW31310   7.594   8.462  10.454
43138SOL    HW131311   7.602   8.383  10.401
43138SOL    HW231312   7.585   8.429  10.544
43139SOL     OW31313   9.469   4.309   8.948
43139SOL    HW131314   9.557   4.287   8.980
43139SOL    HW231315   9.461   4.262   8.865
43140SOL     OW31316  11.734  13.548  10.987
43140SOL    HW131317  11.725  13.624  11.044
43140SOL    HW231318  11.654  13.497  11.002
43141SOL     OW31319   0.472   7.186   9.002
43141SOL    HW131320   0.540   7.141   9.053
43141SOL    HW231321   0.418   7.230   9.067
43142SOL     OW31322  13.366   3.893  10.394
43142SOL    HW131323  13.310   3.935  10.329
43142SOL    HW231324  13.387   3.808  10.355
43143SOL     OW31325   9.646  11.978   1.170
43143SOL    HW131326   9.630  11.884   1.166
43143SOL    HW231327   9.589  12.015   1.103
43144SOL     OW31328  14.531   0.026  14.551
43144SOL    HW131329  14.543  14.867  14.464
43144SOL    HW231330  14.462  14.854  14.592
43145SOL     OW31331   0.212   4.310  12.139
43145SOL    HW131332   0.230   4.395  12.101
43145SOL    HW231333   0.132   4.280  12.095
43146SOL     OW31334   8.889   4.161   3.531
43146SOL    HW131335   8.794   4.146   3.535
43146SOL    HW231336   8.927   4.075   3.545
43147SOL     OW31337   4.684   6.154   5.087
43147SOL    HW131338   4.729   6.184   5.166
43147SOL    HW231339   4.751   6.158   5.018
43148SOL     OW31340   8.509   4.178   5.557
43148SOL    HW131341   8.466   4.095   5.576
43148SOL    HW231342   8.593   4.173   5.604
43149SOL     OW31343   4.166   4.864   3.880
43149SOL    HW131344   4.262   4.868   3.879
43149SOL    HW231345   4.140   4.878   3.789
43150SOL     OW31346  13.648   0.981   9.933
43150SOL    HW131347  13.664   0.949   9.844
43150SOL    HW231348  13.686   0.914   9.990
43151SOL     OW31349   3.705  10.158   6.442
43151SOL    HW131350   3.708  10.248   6.474
43151SOL    HW231351   3.613  10.143   6.419
43152SOL     OW31352   7.811   8.455   7.461
43152SOL    HW131353   7.788   8.520   7.394
43152SOL    HW231354   7.819   8.506   7.542
43153SOL     OW31355   1.994   6.310   3.580
43153SOL    HW131356   1.902   6.285   3.570
43153SOL    HW231357   2.028   6.252   3.648
43154SOL     OW31358  12.315   5.782  14.811
43154SOL    HW131359  12.288   5.855  14.755
43154SOL    HW231360  12.317   5.819   0.019
43155SOL     OW31361  10.319   5.112  12.053
43155SOL    HW131362  10.330   5.206  12.067
43155SOL    HW231363  10.391   5.087  11.995
43156SOL     OW31364   9.694  13.689   1.940
43156SOL    HW131365   9.697  13.619   2.005
43156SOL    HW231366   9.622  13.746   1.968
43157SOL     OW31367   8.399  12.004   1.825
43157SOL    HW131368   8.401  11.951   1.904
43157SOL    HW231369   8.475  11.975   1.774
43158SOL     OW31370  10.752   8.655  12.618
43158SOL    HW131371  10.765   8.713  12.543
43158SOL    HW231372  10.673   8.606  12.597
43159SOL     OW31373  12.260  11.639   1.237
43159SOL    HW131374  12.302  11.690   1.306
43159SOL    HW231375  12.315  11.561   1.228
43160SOL     OW31376   4.005  11.151  12.042
43160SOL    HW131377   4.069  11.081  12.051
43160SOL    HW231378   3.955  11.149  12.123
43161SOL     OW31379  11.238  14.496   8.675
43161SOL    HW131380  11.281  14.414   8.699
43161SOL    HW231381  11.242  14.550   8.754
43162SOL     OW31382   5.835  10.538  13.394
43162SOL    HW131383   5.815  10.471  13.460
43162SOL    HW231384   5.910  10.503  13.346
43163SOL     OW31385   8.244   8.259   6.030
43163SOL    HW131386   8.310   8.270   6.099
43163SOL    HW231387   8.184   8.192   6.065
43164SOL     OW31388  13.867   7.136   6.981
43164SOL    HW131389  13.936   7.070   6.970
43164SOL    HW231390  13.881   7.170   7.070
43165SOL     OW31391   6.491   8.350   8.468
43165SOL    HW131392   6.564   8.300   8.431
43165SOL    HW231393   6.499   8.437   8.430
43166SOL     OW31394  13.253   2.048  13.710
43166SOL    HW131395  13.224   2.139  13.711
43166SOL    HW231396  13.228   2.014  13.796
43167SOL     OW31397  11.087   3.093   9.624
43167SOL    HW131398  11.072   3.028   9.694
43167SOL    HW231399  11.049   3.053   9.546
43168SOL     OW31400   7.105   4.986  10.324
43168SOL    HW131401   7.071   5.026  10.404
43168SOL    HW231402   7.161   5.054  10.286
43169SOL     OW31403   3.265  10.198   7.618
43169SOL    HW131404   3.271  10.278   7.566
43169SOL    HW231405   3.331  10.209   7.687
43170SOL     OW31406  13.193  12.914   7.007
43170SOL    HW131407  13.267  12.932   7.065
43170SOL    HW231408  13.198  12.819   6.992
43171SOL     OW31409   4.320  11.278  11.275
43171SOL    HW131410   4.322  11.223  11.353
43171SOL    HW231411   4.371  11.355  11.298
43172SOL     OW31412   5.555   1.315  10.339
43172SOL    HW131413   5.599   1.244  10.386
43172SOL    HW231414   5.462   1.293  10.343
43173SOL     OW31415  14.035  10.142   0.776
43173SOL    HW131416  13.953  10.126   0.823
43173SOL    HW231417  14.092  10.071   0.804
43174SOL     OW31418   6.727   9.830   6.322
43174SOL    HW131419   6.688   9.767   6.262
43174SOL    HW231420   6.722   9.788   6.408
43175SOL     OW31421  14.559   2.336   5.012
43175SOL    HW131422  14.599   2.378   4.936
43175SOL    HW231423  14.600   2.380   5.087
43176SOL     OW31424  11.263   5.263   5.658
43176SOL    HW131425  11.318   5.187   5.677
43176SOL    HW231426  11.174   5.229   5.658
43177SOL     OW31427   8.704   4.595  11.638
43177SOL    HW131428   8.694   4.567  11.729
43177SOL    HW231429   8.625   4.563  11.594
43178SOL     OW31430   7.272  13.817   4.943
43178SOL    HW131431   7.188  13.828   4.989
43178SOL    HW231432   7.282  13.898   4.893
43179SOL     OW31433   9.776   1.027   7.367
43179SOL    HW131434   9.715   1.084   7.414
43179SOL    HW231435   9.752   0.939   7.394
43180SOL     OW31436  10.910  14.096   9.728
43180SOL    HW131437  10.904  14.132   9.640
43180SOL    HW231438  10.957  14.163   9.778
43181SOL     OW31439   2.388   8.812   8.760
43181SOL    HW131440   2.371   8.868   8.836
43181SOL    HW231441   2.395   8.873   8.686
43182SOL     OW31442   3.149  14.825   8.646
43182SOL    HW131443   3.063  14.795   8.677
43182SOL    HW231444   3.210  14.799   8.715
43183SOL     OW31445   0.585  13.391   8.245
43183SOL    HW131446   0.492  13.381   8.265
43183SOL    HW231447   0.618  13.301   8.239
43184SOL     OW31448   7.094   7.911   1.770
43184SOL    HW131449   7.015   7.914   1.824
43184SOL    HW231450   7.094   7.823   1.732
43185SOL     OW31451   8.168   4.077  10.627
43185SOL    HW131452   8.093   4.029  10.591
43185SOL    HW231453   8.244   4.040  10.582
43186SOL     OW31454   8.028  12.258   2.771
43186SOL    HW131455   7.998  12.334   2.722
43186SOL    HW231456   8.124  12.261   2.763
43187SOL     OW31457  14.018  14.090   6.749
43187SOL    HW131458  14.061  14.030   6.687
43187SOL    HW231459  14.090  14.127   6.800
43188SOL     OW31460   3.819   3.812  10.529
43188SOL    HW131461   3.883   3.781  10.594
43188SOL    HW231462   3.835   3.907  10.524
43189SOL     OW31463  13.438  11.358  10.715
43189SOL    HW131464  13.423  11.389  10.805
43189SOL    HW231465  13.368  11.295  10.699
43190SOL     OW31466   1.778   2.459   5.882
43190SOL    HW131467   1.715   2.531   5.886
43190SOL    HW231468   1.724   2.380   5.880
43191SOL     OW31469  13.712   6.889   3.272
43191SOL    HW131470  13.747   6.871   3.185
43191SOL    HW231471  13.763   6.832   3.330
43192SOL     OW31472  10.420   8.000   0.163
43192SOL    HW131473  10.501   7.981   0.210
43192SOL    HW231474  10.381   8.073   0.212
43193SOL     OW31475  10.498   0.315   9.389
43193SOL    HW131476  10.563   0.366   9.438
43193SOL    HW231477  10.550   0.255   9.335
43194SOL     OW31478   3.695  14.385   2.979
43194SOL    HW131479   3.679  14.426   2.894
43194SOL    HW231480   3.784  14.350   2.972
43195SOL     OW31481  13.061  12.212   6.332
43195SOL    HW131482  13.080  12.305   6.317
43195SOL    HW231483  13.078  12.171   6.247
43196SOL     OW31484   4.333  10.944  10.616
43196SOL    HW131485   4.421  10.909  10.600
43196SOL    HW231486   4.343  11.039  10.604
43197SOL     OW31487  11.348   4.950   3.900
43197SOL    HW131488  11.442   4.966   3.914
43197SOL    HW231489  11.313   4.937   3.989
43198SOL     OW31490  11.052   1.042   4.509
43198SOL    HW131491  10.985   1.110   4.507
43198SOL    HW231492  11.008   0.964   4.475
43199SOL     OW31493   0.061   1.772   1.271
43199SOL    HW131494   0.007   1.713   1.220
43199SOL    HW231495   0.050   1.743   1.362
43200SOL     OW31496  12.176  11.481  12.807
43200SOL    HW131497  12.180  11.401  12.755
43200SOL    HW231498  12.193  11.452  12.897
43201SOL     OW31499   6.516   6.336   8.500
43201SOL    HW131500   6.610   6.322   8.493
43201SOL    HW231501   6.507   6.424   8.538
43202SOL     OW31502  12.145  14.734   3.152
43202SOL    HW131503  12.113  14.698   3.234
43202SOL    HW231504  12.221  14.787   3.177
43203SOL     OW31505   0.555   7.748   6.328
43203SOL    HW131506   0.608   7.736   6.406
43203SOL    HW231507   0.515   7.662   6.313
43204SOL     OW31508  13.518   8.592  11.009
43204SOL    HW131509  13.545   8.613  11.098
43204SOL    HW231510  13.445   8.531  11.020
43205SOL     OW31511   1.561   4.405   0.609
43205SOL    HW131512   1.467   4.413   0.620
43205SOL    HW231513   1.579   4.439   0.521
43206SOL     OW31514   6.580   0.576  12.830
43206SOL    HW131515   6.514   0.619  12.775
43206SOL    HW231516   6.573   0.483  12.808
43207SOL     OW31517   1.492   7.064   0.422
43207SOL    HW131518   1.471   6.994   0.484
43207SOL    HW231519   1.445   7.140   0.456
43208SOL     OW31520   8.636  13.047   6.820
43208SOL    HW131521   8.652  13.097   6.900
43208SOL    HW231522   8.635  13.113   6.750
43209SOL     OW31523  13.269   2.148  13.364
43209SOL    HW131524  13.340   2.101  13.408
43209SOL    HW231525  13.213   2.080  13.328
43210SOL     OW31526   3.605   8.270  14.319
43210SOL    HW131527   3.528   8.218  14.298
43210SOL    HW231528   3.641   8.295  14.234
43211SOL     OW31529   9.062   8.116  11.089
43211SOL    HW131530   9.055   8.205  11.125
43211SOL    HW231531   8.985   8.107  11.032
43212SOL     OW31532   3.900   6.779  13.303
43212SOL    HW131533   3.842   6.734  13.242
43212SOL    HW231534   3.988   6.766  13.266
43213SOL     OW31535   2.754   2.203   6.055
43213SOL    HW131536   2.762   2.259   5.977
43213SOL    HW231537   2.660   2.189   6.064
43214SOL     OW31538   0.738   3.780   3.446
43214SOL    HW131539   0.831   3.769   3.467
43214SOL    HW231540   0.737   3.848   3.378
43215SOL     OW31541   9.910   9.600   4.532
43215SOL    HW131542   9.908   9.517   4.581
43215SOL    HW231543   9.844   9.589   4.464
43216SOL     OW31544  10.609   2.575   9.164
43216SOL    HW131545  10.605   2.517   9.240
43216SOL    HW231546  10.585   2.520   9.090
43217SOL     OW31547  12.510   4.856  13.467
43217SOL    HW131548  12.469   4.888  13.548
43217SOL    HW231549  12.592   4.904  13.461
43218SOL     OW31550   6.735  14.660  12.971
43218SOL    HW131551   6.737  14.609  12.890
43218SOL    HW231552   6.770  14.601  13.038
43219SOL     OW31553   6.694   6.418   6.694
43219SOL    HW131554   6.684   6.506   6.731
43219SOL    HW231555   6.660   6.425   6.605
43220SOL     OW31556   5.287   2.840  14.332
43220SOL    HW131557   5.245   2.753  14.331
43220SOL    HW231558   5.331   2.846  14.248
43221SOL     OW31559   5.334   8.000   2.321
43221SOL    HW131560   5.329   8.096   2.317
43221SOL    HW231561   5.252   7.974   2.362
43222SOL     OW31562   7.566   4.991   0.638
43222SOL    HW131563   7.493   4.940   0.672
43222SOL    HW231564   7.531   5.038   0.562
43223SOL     OW31565   0.188   9.912   0.701
43223SOL    HW131566   0.271   9.915   0.653
43223SOL    HW231567   0.130   9.969   0.651
43224SOL     OW31568   1.850   6.898  10.154
43224SOL    HW131569   1.891   6.812  10.156
43224SOL    HW231570   1.883   6.942  10.232
43225SOL     OW31571   4.174  10.671   2.455
43225SOL    HW131572   4.203  10.616   2.382
43225SOL    HW231573   4.127  10.611   2.513
43226SOL     OW31574   6.408   9.658  11.755
43226SOL    HW131575   6.390   9.565  11.739
43226SOL    HW231576   6.493   9.673  11.714
43227SOL     OW31577  12.091   5.279   5.062
43227SOL    HW131578  12.006   5.245   5.036
43227SOL    HW231579  12.072   5.360   5.109
43228SOL     OW31580   0.305  13.953   4.216
43228SOL    HW131581   0.381  13.910   4.254
43228SOL    HW231582   0.272  14.010   4.286
43229SOL     OW31583   3.464   5.980   5.897
43229SOL    HW131584   3.554   6.010   5.884
43229SOL    HW231585   3.422   5.997   5.813
43230SOL     OW31586   4.050   6.459  11.392
43230SOL    HW131587   4.050   6.398  11.319
43230SOL    HW231588   4.065   6.405  11.470
43231SOL     OW31589  13.530   5.488   9.243
43231SOL    HW131590  13.488   5.519   9.323
43231SOL    HW231591  13.568   5.403   9.267
43232SOL     OW31592   5.488  10.481   0.365
43232SOL    HW131593   5.427  10.532   0.312
43232SOL    HW231594   5.498  10.399   0.317
43233SOL     OW31595   9.083   9.054  12.600
43233SOL    HW131596   9.170   9.093  12.587
43233SOL    HW231597   9.072   8.996  12.524
43234SOL     OW31598   1.975  14.805   5.501
43234SOL    HW131599   2.001  14.790   5.592
43234SOL    HW231600   1.883  14.780   5.498
43235SOL     OW31601  14.628  13.883  10.811
43235SOL    HW131602  14.704  13.869  10.867
43235SOL    HW231603  14.588  13.964  10.844
43236SOL     OW31604  11.270   1.497   6.537
43236SOL    HW131605  11.176   1.505   6.556
43236SOL    HW231606  11.312   1.558   6.598
43237SOL     OW31607   6.318   9.722  14.228
43237SOL    HW131608   6.313   9.814  14.202
43237SOL    HW231609   6.389   9.686  14.174
43238SOL     OW31610   5.056   4.685   5.630
43238SOL    HW131611   5.008   4.736   5.565
43238SOL    HW231612   4.989   4.654   5.691
43239SOL     OW31613   7.867   4.249  10.660
43239SOL    HW131614   7.918   4.177  10.697
43239SOL    HW231615   7.850   4.224  10.569
43240SOL     OW31616  14.547  13.753   1.758
43240SOL    HW131617  14.605  13.700   1.703
43240SOL    HW231618  14.597  13.833   1.776
43241SOL     OW31619   2.619   4.055   5.153
43241SOL    HW131620   2.635   4.138   5.199
43241SOL    HW231621   2.671   3.991   5.202
43242SOL     OW31622  10.706  10.523   8.448
43242SOL    HW131623  10.636  10.523   8.383
43242SOL    HW231624  10.787  10.525   8.397
43243SOL     OW31625   6.366  13.032  11.070
43243SOL    HW131626   6.270  13.030  11.069
43243SOL    HW231627   6.389  13.014  11.161
43244SOL     OW31628   3.127  10.855   5.720
43244SOL    HW131629   3.106  10.949   5.725
43244SOL    HW231630   3.106  10.822   5.808
43245SOL     OW31631  12.280  13.994  11.491
43245SOL    HW131632  12.256  13.938  11.418
43245SOL    HW231633  12.375  13.987  11.497
43246SOL     OW31634   5.158  10.521   6.950
43246SOL    HW131635   5.127  10.508   6.860
43246SOL    HW231636   5.104  10.593   6.984
43247SOL     OW31637   2.795   1.243   0.403
43247SOL    HW131638   2.823   1.158   0.437
43247SOL    HW231639   2.700   1.241   0.405
43248SOL     OW31640   5.024  11.071   3.366
43248SOL    HW131641   5.003  11.146   3.310
43248SOL    HW231642   4.949  11.013   3.357
43249SOL     OW31643   8.469   7.981   3.826
43249SOL    HW131644   8.417   8.024   3.758
43249SOL    HW231645   8.414   7.909   3.856
43250SOL     OW31646   3.011   0.365   0.690
43250SOL    HW131647   3.004   0.277   0.653
43250SOL    HW231648   3.101   0.391   0.672
43251SOL     OW31649  14.007   3.222  12.874
43251SOL    HW131650  13.912   3.223  12.889
43251SOL    HW231651  14.037   3.306  12.909
43252SOL     OW31652   5.063   8.969   6.390
43252SOL    HW131653   5.145   8.941   6.349
43252SOL    HW231654   5.026   9.034   6.330
43253SOL     OW31655  12.000   3.505   3.389
43253SOL    HW131656  11.960   3.459   3.316
43253SOL    HW231657  12.094   3.501   3.372
43254SOL     OW31658   6.759   8.526   2.305
43254SOL    HW131659   6.709   8.604   2.330
43254SOL    HW231660   6.699   8.453   2.319
43255SOL     OW31661   1.471  12.939   6.935
43255SOL    HW131662   1.408  12.884   6.888
43255SOL    HW231663   1.422  13.019   6.955
43256SOL     OW31664   9.358   7.592  10.655
43256SOL    HW131665   9.432   7.594  10.716
43256SOL    HW231666   9.373   7.513  10.602
43257SOL     OW31667  13.732   7.245  13.769
43257SOL    HW131668  13.747   7.184  13.697
43257SOL    HW231669  13.677   7.314  13.731
43258SOL     OW31670  13.395   3.171   4.044
43258SOL    HW131671  13.461   3.217   3.992
43258SOL    HW231672  13.348   3.117   3.980
43259SOL     OW31673  14.660  14.539   6.440
43259SOL    HW131674  14.729  14.484   6.402
43259SOL    HW231675  14.695  14.565   6.525
43260SOL     OW31676  12.648  10.802  13.932
43260SOL    HW131677  12.615  10.837  14.015
43260SOL    HW231678  12.599  10.849  13.865
43261SOL     OW31679  10.464   1.047  14.877
43261SOL    HW131680  10.525   0.985  14.836
43261SOL    HW231681  10.381   1.001  14.880
43262SOL     OW31682  11.204  14.874   6.433
43262SOL    HW131683  11.282  14.820   6.420
43262SOL    HW231684  11.134  14.825   6.390
43263SOL     OW31685   7.318   3.032   7.849
43263SOL    HW131686   7.357   2.981   7.920
43263SOL    HW231687   7.343   2.986   7.769
43264SOL     OW31688   9.162  14.449   3.289
43264SOL    HW131689   9.070  14.468   3.274
43264SOL    HW231690   9.163  14.362   3.329
43265SOL     OW31691  12.044   1.421   4.498
43265SOL    HW131692  12.010   1.332   4.486
43265SOL    HW231693  12.126   1.408   4.546
43266SOL     OW31694  14.301   7.273   7.490
43266SOL    HW131695  14.206   7.267   7.478
43266SOL    HW231696  14.311   7.310   7.578
43267SOL     OW31697   8.387  12.695   9.733
43267SOL    HW131698   8.344  12.618   9.695
43267SOL    HW231699   8.436  12.660   9.808
43268SOL     OW31700   5.221   0.952  11.585
43268SOL    HW131701   5.251   1.042  11.574
43268SOL    HW231702   5.286   0.911  11.641
43269SOL     OW31703  13.348  10.403   1.614
43269SOL    HW131704  13.350  10.378   1.707
43269SOL    HW231705  13.425  10.458   1.602
43270SOL     OW31706  10.652   0.342   6.984
43270SOL    HW131707  10.607   0.280   7.042
43270SOL    HW231708  10.719   0.290   6.940
43271SOL     OW31709  11.454   4.551   8.599
43271SOL    HW131710  11.386   4.485   8.615
43271SOL    HW231711  11.522   4.504   8.550
43272SOL     OW31712   1.844   6.205   1.145
43272SOL    HW131713   1.854   6.254   1.227
43272SOL    HW231714   1.876   6.265   1.077
43273SOL     OW31715   6.580   8.439   1.360
43273SOL    HW131716   6.611   8.521   1.398
43273SOL    HW231717   6.658   8.400   1.319
43274SOL     OW31718   8.629  12.437   2.303
43274SOL    HW131719   8.615  12.465   2.393
43274SOL    HW231720   8.551  12.465   2.256
43275SOL     OW31721  14.304   2.768  14.748
43275SOL    HW131722  14.281   2.842  14.691
43275SOL    HW231723  14.255   2.784  14.828
43276SOL     OW31724  12.675  13.699   7.955
43276SOL    HW131725  12.759  13.656   7.966
43276SOL    HW231726  12.635  13.657   7.878
43277SOL     OW31727   8.373  14.366  10.806
43277SOL    HW131728   8.339  14.284  10.841
43277SOL    HW231729   8.394  14.346  10.715
43278SOL     OW31730   7.063  12.022  10.715
43278SOL    HW131731   7.025  11.969  10.785
43278SOL    HW231732   7.028  12.109  10.729
43279SOL     OW31733   3.468  10.481  11.610
43279SOL    HW131734   3.528  10.556  11.608
43279SOL    HW231735   3.457  10.457  11.518
43280SOL     OW31736   6.624  14.649  12.195
43280SOL    HW131737   6.554  14.614  12.140
43280SOL    HW231738   6.582  14.717  12.248
43281SOL     OW31739  10.528   5.153  12.746
43281SOL    HW131740  10.462   5.112  12.690
43281SOL    HW231741  10.567   5.080  12.794
43282SOL     OW31742   3.637   7.607   3.594
43282SOL    HW131743   3.700   7.537   3.609
43282SOL    HW231744   3.570   7.594   3.661
43283SOL     OW31745   5.340   3.358  10.534
43283SOL    HW131746   5.374   3.354  10.445
43283SOL    HW231747   5.406   3.406  10.584
43284SOL     OW31748   7.033  12.307  14.503
43284SOL    HW131749   6.957  12.344  14.549
43284SOL    HW231750   6.999  12.282  14.418
43285SOL     OW31751   6.387   2.366  11.750
43285SOL    HW131752   6.368   2.406  11.666
43285SOL    HW231753   6.301   2.353  11.791
43286SOL     OW31754   6.094   4.864  10.218
43286SOL    HW131755   6.144   4.860  10.300
43286SOL    HW231756   6.033   4.936  10.230
43287SOL     OW31757   8.857   6.425  14.316
43287SOL    HW131758   8.925   6.474  14.363
43287SOL    HW231759   8.775   6.470  14.338
43288SOL     OW31760  10.119  12.776   0.766
43288SOL    HW131761  10.195  12.724   0.737
43288SOL    HW231762  10.079  12.723   0.835
43289SOL     OW31763   6.093   4.522  10.020
43289SOL    HW131764   6.032   4.504  10.091
43289SOL    HW231765   6.119   4.435   9.988
43290SOL     OW31766   7.224   2.777   3.237
43290SOL    HW131767   7.228   2.687   3.270
43290SOL    HW231768   7.284   2.777   3.162
43291SOL     OW31769  14.728  12.936   2.629
43291SOL    HW131770  14.824  12.944   2.626
43291SOL    HW231771  14.697  12.986   2.553
43292SOL     OW31772  12.921   4.146  13.295
43292SOL    HW131773  12.954   4.068  13.249
43292SOL    HW231774  12.929   4.217  13.232
43293SOL     OW31775  10.804   5.948   6.927
43293SOL    HW131776  10.897   5.964   6.946
43293SOL    HW231777  10.779   5.879   6.988
43294SOL     OW31778   0.960  11.028   7.480
43294SOL    HW131779   0.921  11.032   7.392
43294SOL    HW231780   0.895  11.070   7.536
43295SOL     OW31781   1.758   7.001   1.398
43295SOL    HW131782   1.819   6.975   1.329
43295SOL    HW231783   1.805   6.984   1.479
43296SOL     OW31784   0.591   2.219   4.339
43296SOL    HW131785   0.654   2.147   4.329
43296SOL    HW231786   0.527   2.205   4.268
43297SOL     OW31787  14.666   5.226   2.389
43297SOL    HW131788  14.714   5.256   2.311
43297SOL    HW231789  14.675   5.298   2.452
43298SOL     OW31790  14.718   1.582   4.354
43298SOL    HW131791  14.652   1.551   4.417
43298SOL    HW231792  14.770   1.645   4.404
43299SOL     OW31793  10.556   3.663   4.214
43299SOL    HW131794  10.537   3.572   4.238
43299SOL    HW231795  10.481   3.689   4.161
43300SOL     OW31796   9.991  12.130  14.394
43300SOL    HW131797   9.937  12.134  14.316
43300SOL    HW231798  10.052  12.204  14.385
43301SOL     OW31799  14.143  10.425   7.059
43301SOL    HW131800  14.065  10.452   7.108
43301SOL    HW231801  14.159  10.497   6.998
43302SOL     OW31802  12.475   4.154  10.824
43302SOL    HW131803  12.510   4.179  10.739
43302SOL    HW231804  12.529   4.201  10.887
43303SOL     OW31805   4.505   9.210  10.114
43303SOL    HW131806   4.442   9.151  10.074
43303SOL    HW231807   4.528   9.272  10.045
43304SOL     OW31808   7.872  11.801   1.979
43304SOL    HW131809   7.893  11.857   1.904
43304SOL    HW231810   7.891  11.855   2.055
43305SOL     OW31811   2.066   8.642   9.153
43305SOL    HW131812   2.161   8.650   9.159
43305SOL    HW231813   2.052   8.555   9.116
43306SOL     OW31814   2.498  10.392   3.785
43306SOL    HW131815   2.484  10.485   3.797
43306SOL    HW231816   2.591  10.384   3.763
43307SOL     OW31817  11.085   8.409   3.700
43307SOL    HW131818  11.113   8.482   3.643
43307SOL    HW231819  11.062   8.451   3.782
43308SOL     OW31820   9.179  10.601   4.495
43308SOL    HW131821   9.271  10.614   4.518
43308SOL    HW231822   9.180  10.581   4.402
43309SOL     OW31823  13.704   7.954  11.562
43309SOL    HW131824  13.699   7.992  11.474
43309SOL    HW231825  13.795   7.925  11.571
43310SOL     OW31826   2.069  14.449  12.130
43310SOL    HW131827   2.053  14.379  12.193
43310SOL    HW231828   2.010  14.520  12.158
43311SOL     OW31829  13.968   3.933   8.306
43311SOL    HW131830  13.962   3.877   8.384
43311SOL    HW231831  13.929   4.016   8.332
43312SOL     OW31832  13.303  14.308  13.046
43312SOL    HW131833  13.268  14.397  13.046
43312SOL    HW231834  13.271  14.270  13.128
43313SOL     OW31835   9.694   0.596   0.438
43313SOL    HW131836   9.708   0.648   0.517
43313SOL    HW231837   9.600   0.599   0.423
43314SOL     OW31838   8.611   8.102   3.454
43314SOL    HW131839   8.641   8.041   3.521
43314SOL    HW231840   8.516   8.089   3.451
43315SOL     OW31841  14.131   7.173  11.589
43315SOL    HW131842  14.175   7.088  11.588
43315SOL    HW231843  14.038   7.151  11.599
43316SOL     OW31844  10.611   9.767   3.390
43316SOL    HW131845  10.672   9.808   3.329
43316SOL    HW231846  10.656   9.770   3.474
43317SOL     OW31847   4.336  12.215   6.414
43317SOL    HW131848   4.295  12.128   6.414
43317SOL    HW231849   4.267  12.275   6.442
43318SOL     OW31850  10.056   5.767  12.635
43318SOL    HW131851  10.044   5.779  12.729
43318SOL    HW231852  10.043   5.673  12.621
43319SOL     OW31853   9.900   4.731   6.132
43319SOL    HW131854   9.906   4.636   6.127
43319SOL    HW231855   9.988   4.761   6.109
43320SOL     OW31856  11.012   8.223  10.851
43320SOL    HW131857  11.014   8.164  10.776
43320SOL    HW231858  11.078   8.289  10.832
43321SOL     OW31859   8.587   7.425  14.418
43321SOL    HW131860   8.605   7.476  14.339
43321SOL    HW231861   8.662   7.443  14.474
43322SOL     OW31862   8.604   1.612   9.170
43322SOL    HW131863   8.551   1.623   9.249
43322SOL    HW231864   8.549   1.642   9.098
43323SOL     OW31865   2.412   8.025   0.182
43323SOL    HW131866   2.480   8.058   0.124
43323SOL    HW231867   2.330   8.062   0.148
43324SOL     OW31868   3.032   8.807   9.170
43324SOL    HW131869   2.951   8.812   9.119
43324SOL    HW231870   3.012   8.745   9.240
43325SOL     OW31871   9.892   5.618  12.004
43325SOL    HW131872   9.973   5.669  11.997
43325SOL    HW231873   9.822   5.682  11.994
43326SOL     OW31874   0.956   7.304   5.788
43326SOL    HW131875   0.880   7.264   5.829
43326SOL    HW231876   1.020   7.311   5.858
43327SOL     OW31877   8.686  10.143   5.060
43327SOL    HW131878   8.652  10.060   5.094
43327SOL    HW231879   8.774  10.123   5.031
43328SOL     OW31880   8.594   4.682   2.554
43328SOL    HW131881   8.676   4.720   2.522
43328SOL    HW231882   8.600   4.590   2.530
43329SOL     OW31883  11.888   8.469  13.013
43329SOL    HW131884  11.823   8.401  12.996
43329SOL    HW231885  11.954   8.456  12.945
43330SOL     OW31886   0.922  14.310  12.250
43330SOL    HW131887   0.874  14.357  12.318
43330SOL    HW231888   1.010  14.349  12.251
43331SOL     OW31889   0.609   5.806   8.641
43331SOL    HW131890   0.546   5.854   8.587
43331SOL    HW231891   0.621   5.861   8.718
43332SOL     OW31892   2.234  10.789   0.969
43332SOL    HW131893   2.298  10.737   0.921
43332SOL    HW231894   2.275  10.876   0.977
43333SOL     OW31895   7.395  10.832   8.083
43333SOL    HW131896   7.438  10.895   8.025
43333SOL    HW231897   7.363  10.764   8.024
43334SOL     OW31898   8.076   7.391   5.731
43334SOL    HW131899   8.081   7.354   5.643
43334SOL    HW231900   7.982   7.397   5.749
43335SOL     OW31901   8.451   3.056   8.011
43335SOL    HW131902   8.454   3.057   8.107
43335SOL    HW231903   8.539   3.084   7.985
43336SOL     OW31904   4.782   4.022   1.924
43336SOL    HW131905   4.841   4.005   1.850
43336SOL    HW231906   4.741   3.937   1.942
43337SOL     OW31907   7.739   3.703   1.782
43337SOL    HW131908   7.676   3.690   1.711
43337SOL    HW231909   7.775   3.616   1.798
43338SOL     OW31910   4.847  11.503   9.892
43338SOL    HW131911   4.819  11.593   9.911
43338SOL    HW231912   4.911  11.513   9.821
43339SOL     OW31913   5.890   0.438   2.388
43339SOL    HW131914   5.897   0.384   2.310
43339SOL    HW231915   5.959   0.504   2.378
43340SOL     OW31916   7.888   1.664   9.221
43340SOL    HW131917   7.972   1.709   9.215
43340SOL    HW231918   7.828   1.729   9.257
43341SOL     OW31919   4.812  10.705   0.394
43341SOL    HW131920   4.886  10.722   0.453
43341SOL    HW231921   4.760  10.639   0.439
43342SOL     OW31922   9.798  11.646  13.345
43342SOL    HW131923   9.815  11.608  13.431
43342SOL    HW231924   9.702  11.653  13.341
43343SOL     OW31925  10.396   0.201  14.503
43343SOL    HW131926  10.430   0.142  14.436
43343SOL    HW231927  10.437   0.285  14.484
43344SOL     OW31928   6.107  14.420   0.194
43344SOL    HW131929   6.040  14.352   0.185
43344SOL    HW231930   6.089  14.481   0.122
43345SOL     OW31931   0.996  11.085   1.692
43345SOL    HW131932   1.089  11.087   1.712
43345SOL    HW231933   0.972  11.177   1.681
43346SOL     OW31934   5.967   5.149  12.934
43346SOL    HW131935   6.047   5.111  12.898
43346SOL    HW231936   5.983   5.244  12.934
43347SOL     OW31937   5.126   6.085   3.315
43347SOL    HW131938   5.047   6.060   3.268
43347SOL    HW231939   5.094   6.136   3.390
43348SOL     OW31940   9.945   0.849   5.005
43348SOL    HW131941   9.851   0.858   5.018
43348SOL    HW231942   9.955   0.830   4.912
43349SOL     OW31943   1.130   6.897   8.124
43349SOL    HW131944   1.056   6.957   8.110
43349SOL    HW231945   1.147   6.859   8.038
43350SOL     OW31946   0.994   2.404  12.402
43350SOL    HW131947   1.077   2.433  12.364
43350SOL    HW231948   0.973   2.470  12.468
43351SOL     OW31949   1.012   2.766  11.709
43351SOL    HW131950   0.924   2.732  11.696
43351SOL    HW231951   1.049   2.710  11.778
43352SOL     OW31952   9.207   7.656  13.404
43352SOL    HW131953   9.189   7.584  13.344
43352SOL    HW231954   9.302   7.667  13.402
43353SOL     OW31955   2.170   7.744  13.858
43353SOL    HW131956   2.223   7.800  13.800
43353SOL    HW231957   2.145   7.670  13.803
43354SOL     OW31958   6.137  14.635  14.416
43354SOL    HW131959   6.198  14.562  14.426
43354SOL    HW231960   6.105  14.652  14.505
43355SOL     OW31961  12.668   3.565   8.821
43355SOL    HW131962  12.689   3.622   8.895
43355SOL    HW231963  12.679   3.476   8.855
43356SOL     OW31964   8.558   4.473   1.337
43356SOL    HW131965   8.642   4.503   1.303
43356SOL    HW231966   8.562   4.493   1.431
43357SOL     OW31967   1.200  14.697   2.768
43357SOL    HW131968   1.138  14.624   2.764
43357SOL    HW231969   1.280  14.663   2.728
43358SOL     OW31970   0.651   0.105   5.554
43358SOL    HW131971   0.654   0.109   5.459
43358SOL    HW231972   0.562   0.077   5.575
43359SOL     OW31973   4.461   4.734   2.318
43359SOL    HW131974   4.376   4.776   2.306
43359SOL    HW231975   4.523   4.807   2.319
43360SOL     OW31976   9.598   2.136  14.074
43360SOL    HW131977   9.570   2.058  14.027
43360SOL    HW231978   9.519   2.168  14.117
43361SOL     OW31979   4.810   2.937  10.763
43361SOL    HW131980   4.734   2.963  10.710
43361SOL    HW231981   4.854   2.870  10.711
43362SOL     OW31982   4.937   1.531  12.634
43362SOL    HW131983   4.885   1.521  12.554
43362SOL    HW231984   5.019   1.570  12.604
43363SOL     OW31985   5.521   2.477   9.791
43363SOL    HW131986   5.480   2.502   9.874
43363SOL    HW231987   5.559   2.391   9.808
43364SOL     OW31988  12.391  12.376   0.784
43364SOL    HW131989  12.457  12.443   0.799
43364SOL    HW231990  12.433  12.315   0.723
43365SOL     OW31991   0.793   3.693   7.288
43365SOL    HW131992   0.707   3.734   7.298
43365SOL    HW231993   0.851   3.745   7.342
43366SOL     OW31994   9.536  14.357   3.584
43366SOL    HW131995   9.575  14.408   3.513
43366SOL    HW231996   9.591  14.280   3.592
43367SOL     OW31997  11.070   2.978   7.809
43367SOL    HW131998  11.019   3.058   7.795
43367SOL    HW231999  11.158   3.001   7.780
43368SOL     OW32000  13.262  12.648  11.200
43368SOL    HW132001  13.310  12.711  11.145
43368SOL    HW232002  13.316  12.638  11.278
43369SOL     OW32003  10.871   7.533   6.202
43369SOL    HW132004  10.881   7.448   6.245
43369SOL    HW232005  10.910   7.522   6.116
43370SOL     OW32006   0.685  13.074  11.163
43370SOL    HW132007   0.617  13.098  11.100
43370SOL    HW232008   0.737  13.007  11.118
43371SOL     OW32009   4.838   1.746   3.615
43371SOL    HW132010   4.821   1.824   3.562
43371SOL    HW232011   4.759   1.737   3.670
43372SOL     OW32012   0.938   4.304   1.603
43372SOL    HW132013   1.017   4.325   1.553
43372SOL    HW232014   0.948   4.353   1.685
43373SOL     OW32015  13.514  13.503   8.554
43373SOL    HW132016  13.502  13.443   8.481
43373SOL    HW232017  13.568  13.574   8.519
43374SOL     OW32018  10.250   5.929  10.014
43374SOL    HW132019  10.308   5.929  10.090
43374SOL    HW232020  10.293   5.871   9.951
43375SOL     OW32021   1.505  14.665   8.851
43375SOL    HW132022   1.477  14.589   8.800
43375SOL    HW232023   1.455  14.660   8.932
43376SOL     OW32024   8.985   9.624   9.338
43376SOL    HW132025   8.943   9.551   9.383
43376SOL    HW232026   8.992   9.692   9.406
43377SOL     OW32027   4.774   9.946   9.484
43377SOL    HW132028   4.807   9.896   9.410
43377SOL    HW232029   4.733  10.023   9.445
43378SOL     OW32030   3.924  13.456   4.291
43378SOL    HW132031   3.993  13.396   4.320
43378SOL    HW232032   3.880  13.409   4.220
43379SOL     OW32033   7.303   8.233   3.066
43379SOL    HW132034   7.235   8.250   3.001
43379SOL    HW232035   7.378   8.283   3.036
43380SOL     OW32036  13.985   1.252   0.112
43380SOL    HW132037  13.910   1.207   0.072
43380SOL    HW232038  14.010   1.195   0.185
43381SOL     OW32039   1.157   5.121  14.095
43381SOL    HW132040   1.140   5.055  14.027
43381SOL    HW232041   1.201   5.192  14.049
43382SOL     OW32042   6.794  14.004   3.889
43382SOL    HW132043   6.761  13.949   3.960
43382SOL    HW232044   6.738  13.983   3.814
43383SOL     OW32045  11.766   5.241   2.618
43383SOL    HW132046  11.785   5.296   2.694
43383SOL    HW232047  11.808   5.286   2.544
43384SOL     OW32048   1.026   8.289   7.555
43384SOL    HW132049   1.086   8.331   7.618
43384SOL    HW232050   1.030   8.196   7.578
43385SOL     OW32051   9.615   4.706  11.760
43385SOL    HW132052   9.549   4.735  11.697
43385SOL    HW232053   9.595   4.614  11.774
43386SOL     OW32054   2.274  11.446   9.321
43386SOL    HW132055   2.188  11.417   9.351
43386SOL    HW232056   2.262  11.466   9.228
43387SOL     OW32057   3.440   6.735   7.483
43387SOL    HW132058   3.424   6.828   7.467
43387SOL    HW232059   3.518   6.714   7.431
43388SOL     OW32060   7.102  14.545   1.181
43388SOL    HW132061   7.197  14.547   1.169
43388SOL    HW232062   7.074  14.463   1.142
43389SOL     OW32063   9.088   1.304  11.724
43389SOL    HW132064   9.104   1.343  11.810
43389SOL    HW232065   9.020   1.239  11.738
43390SOL     OW32066   3.688   7.970   9.259
43390SOL    HW132067   3.752   7.992   9.327
43390SOL    HW232068   3.710   7.880   9.233
43391SOL     OW32069   5.227   2.388   2.140
43391SOL    HW132070   5.313   2.392   2.183
43391SOL    HW232071   5.246   2.387   2.047
43392SOL     OW32072   3.767  11.555   4.491
43392SOL    HW132073   3.705  11.504   4.439
43392SOL    HW232074   3.724  11.565   4.576
43393SOL     OW32075  11.274  13.157   3.521
43393SOL    HW132076  11.197  13.211   3.507
43393SOL    HW232077  11.343  13.220   3.545
43394SOL     OW32078   1.209   6.342  10.236
43394SOL    HW132079   1.121   6.305  10.240
43394SOL    HW232080   1.261   6.288  10.295
43395SOL     OW32081   7.246  12.609  10.546
43395SOL    HW132082   7.262  12.702  10.533
43395SOL    HW232083   7.278  12.568  10.465
43396SOL     OW32084  10.805  10.127  12.860
43396SOL    HW132085  10.783  10.043  12.901
43396SOL    HW232086  10.836  10.181  12.932
43397SOL     OW32087   6.916   0.226   6.761
43397SOL    HW132088   6.906   0.166   6.688
43397SOL    HW232089   6.846   0.202   6.822
43398SOL     OW32090  11.511   3.776  10.365
43398SOL    HW132091  11.501   3.685  10.391
43398SOL    HW232092  11.424   3.804  10.337
43399SOL     OW32093   3.049  12.837   6.150
43399SOL    HW132094   3.092  12.832   6.236
43399SOL    HW232095   3.044  12.746   6.121
43400SOL     OW32096  14.848   0.914   3.928
43400SOL    HW132097  14.790   0.840   3.946
43400SOL    HW232098  14.789   0.983   3.898
43401SOL     OW32099   8.966   0.566  13.792
43401SOL    HW132100   8.887   0.608  13.758
43401SOL    HW232101   9.024   0.560  13.717
43402SOL     OW32102   2.165   7.547   7.894
43402SOL    HW132103   2.151   7.457   7.924
43402SOL    HW232104   2.116   7.601   7.956
43403SOL     OW32105  10.137   9.404  12.758
43403SOL    HW132106  10.163   9.313  12.769
43403SOL    HW232107  10.129   9.438  12.847
43404SOL     OW32108   7.166  12.932   0.146
43404SOL    HW132109   7.131  12.893   0.226
43404SOL    HW232110   7.260  12.914   0.150
43405SOL     OW32111  14.809   4.409  14.189
43405SOL    HW132112  14.830   4.350  14.117
43405SOL    HW232113  14.824   4.358  14.268
43406SOL     OW32114   7.511  13.399  13.378
43406SOL    HW132115   7.478  13.488  13.387
43406SOL    HW232116   7.454  13.346  13.433
43407SOL     OW32117  13.813   1.138   8.592
43407SOL    HW132118  13.881   1.072   8.607
43407SOL    HW232119  13.836   1.178   8.509
43408SOL     OW32120  11.069   6.765  13.208
43408SOL    HW132121  11.114   6.847  13.188
43408SOL    HW232122  11.093   6.745  13.298
43409SOL     OW32123   1.698   9.984   6.699
43409SOL    HW132124   1.707  10.079   6.696
43409SOL    HW232125   1.784   9.951   6.673
43410SOL     OW32126   8.773   7.567   6.941
43410SOL    HW132127   8.712   7.575   7.015
43410SOL    HW232128   8.851   7.529   6.980
43411SOL     OW32129   9.050  14.794  12.130
43411SOL    HW132130   9.035  14.733  12.202
43411SOL    HW232131   9.058  14.880  12.172
43412SOL     OW32132   3.999   2.409  10.899
43412SOL    HW132133   3.984   2.320  10.931
43412SOL    HW232134   3.911   2.446  10.889
43413SOL     OW32135   9.832   7.424   8.163
43413SOL    HW132136   9.800   7.389   8.079
43413SOL    HW232137   9.831   7.519   8.151
43414SOL     OW32138   9.696   6.661  14.388
43414SOL    HW132139   9.620   6.657  14.330
43414SOL    HW232140   9.730   6.571  14.390
43415SOL     OW32141   8.509  10.850   2.709
43415SOL    HW132142   8.490  10.845   2.803
43415SOL    HW232143   8.495  10.761   2.677
43416SOL     OW32144   4.030   8.769   6.022
43416SOL    HW132145   4.093   8.775   6.094
43416SOL    HW232146   3.989   8.684   6.034
43417SOL     OW32147   4.742   9.426   4.079
43417SOL    HW132148   4.741   9.453   3.987
43417SOL    HW232149   4.652   9.438   4.109
43418SOL     OW32150  12.760   0.658  12.663
43418SOL    HW132151  12.838   0.707  12.688
43418SOL    HW232152  12.701   0.724  12.627
43419SOL     OW32153  13.006  11.542  13.800
43419SOL    HW132154  13.077  11.485  13.827
43419SOL    HW232155  13.048  11.613  13.752
43420SOL     OW32156   8.378   0.888   0.552
43420SOL    HW132157   8.418   0.845   0.628
43420SOL    HW232158   8.393   0.828   0.479
43421SOL     OW32159   8.160  13.365  12.728
43421SOL    HW132160   8.186  13.305  12.658
43421SOL    HW232161   8.223  13.351  12.798
43422SOL     OW32162   5.080   0.800   9.148
43422SOL    HW132163   5.117   0.887   9.135
43422SOL    HW232164   5.035   0.780   9.065
43423SOL     OW32165  14.300  12.160  11.128
43423SOL    HW132166  14.373  12.111  11.091
43423SOL    HW232167  14.314  12.156  11.223
43424SOL     OW32168   1.345  11.520  12.194
43424SOL    HW132169   1.289  11.598  12.185
43424SOL    HW232170   1.420  11.538  12.138
43425SOL     OW32171   9.669   8.487   4.759
43425SOL    HW132172   9.634   8.442   4.836
43425SOL    HW232173   9.595   8.496   4.699
43426SOL     OW32174   6.868   8.925   7.730
43426SOL    HW132175   6.817   8.976   7.793
43426SOL    HW232176   6.918   8.990   7.681
43427SOL     OW32177   1.393  12.711  12.219
43427SOL    HW132178   1.352  12.678  12.298
43427SOL    HW232179   1.397  12.806  12.231
43428SOL     OW32180   8.210   0.172  12.371
43428SOL    HW132181   8.223   0.078  12.367
43428SOL    HW232182   8.174   0.195  12.285
43429SOL     OW32183   6.756   4.105  14.346
43429SOL    HW132184   6.693   4.034  14.356
43429SOL    HW232185   6.841   4.063  14.359
43430SOL     OW32186   0.957   6.499   3.584
43430SOL    HW132187   0.921   6.556   3.517
43430SOL    HW232188   1.014   6.556   3.636
43431SOL     OW32189  13.736   6.186   8.676
43431SOL    HW132190  13.735   6.106   8.728
43431SOL    HW232191  13.792   6.246   8.725
43432SOL     OW32192   2.585   4.884   6.182
43432SOL    HW132193   2.501   4.879   6.138
43432SOL    HW232194   2.590   4.974   6.214
43433SOL     OW32195   3.971   1.691   8.849
43433SOL    HW132196   4.065   1.706   8.858
43433SOL    HW232197   3.961   1.596   8.863
43434SOL     OW32198  12.855   4.772  12.378
43434SOL    HW132199  12.916   4.699  12.372
43434SOL    HW232200  12.776   4.740  12.334
43435SOL     OW32201   5.460  10.694  10.265
43435SOL    HW132202   5.364  10.690  10.256
43435SOL    HW232203   5.480  10.787  10.263
43436SOL     OW32204   1.425  11.505   2.767
43436SOL    HW132205   1.462  11.594   2.767
43436SOL    HW232206   1.416  11.482   2.675
43437SOL     OW32207  10.360   4.826  14.741
43437SOL    HW132208  10.300   4.860  14.808
43437SOL    HW232209  10.351   4.731  14.746
43438SOL     OW32210  13.903  10.974  10.985
43438SOL    HW132211  13.871  10.922  10.910
43438SOL    HW232212  13.876  11.063  10.965
43439SOL     OW32213  14.876   9.035  10.651
43439SOL    HW132214  14.784   9.026  10.675
43439SOL    HW232215  14.874   9.070  10.562
43440SOL     OW32216   2.382   4.100   2.446
43440SOL    HW132217   2.293   4.077   2.421
43440SOL    HW232218   2.432   4.097   2.364
43441SOL     OW32219  13.114  12.526   0.349
43441SOL    HW132220  13.189  12.468   0.337
43441SOL    HW232221  13.129  12.598   0.287
43442SOL     OW32222   0.324   8.696   4.410
43442SOL    HW132223   0.292   8.767   4.354
43442SOL    HW232224   0.367   8.635   4.349
43443SOL     OW32225   7.906  12.664   6.024
43443SOL    HW132226   7.840  12.702   6.083
43443SOL    HW232227   7.969  12.735   6.011
43444SOL     OW32228   4.640   5.715   7.148
43444SOL    HW132229   4.713   5.774   7.130
43444SOL    HW232230   4.562   5.767   7.133
43445SOL     OW32231   6.216   6.541  12.828
43445SOL    HW132232   6.286   6.479  12.847
43445SOL    HW232233   6.135   6.491  12.840
43446SOL     OW32234   5.398   4.163   0.861
43446SOL    HW132235   5.474   4.151   0.919
43446SOL    HW232236   5.431   4.143   0.774
43447SOL     OW32237   6.470   2.476   4.894
43447SOL    HW132238   6.376   2.474   4.877
43447SOL    HW232239   6.488   2.568   4.913
43448SOL     OW32240   8.504  11.563   9.194
43448SOL    HW132241   8.496  11.476   9.233
43448SOL    HW232242   8.598  11.578   9.190
43449SOL     OW32243  12.785  10.985   3.274
43449SOL    HW132244  12.880  10.996   3.269
43449SOL    HW232245  12.749  11.072   3.260
43450SOL     OW32246   2.196   3.492  12.286
43450SOL    HW132247   2.221   3.431  12.216
43450SOL    HW232248   2.126   3.545  12.248
43451SOL     OW32249  10.447  14.347  10.209
43451SOL    HW132250  10.395  14.411  10.161
43451SOL    HW232251  10.412  14.262  10.183
43452SOL     OW32252   3.024   3.665   6.467
43452SOL    HW132253   3.058   3.591   6.518
43452SOL    HW232254   2.930   3.648   6.461
43453SOL     OW32255   5.530  13.234   0.477
43453SOL    HW132256   5.532  13.186   0.560
43453SOL    HW232257   5.438  13.233   0.450
43454SOL     OW32258   4.813  14.639  11.110
43454SOL    HW132259   4.839  14.727  11.135
43454SOL    HW232260   4.890  14.601  11.069
43455SOL     OW32261   3.610   5.875   1.365
43455SOL    HW132262   3.586   5.958   1.326
43455SOL    HW232263   3.701   5.861   1.339
43456SOL     OW32264  13.041   4.546  11.176
43456SOL    HW132265  13.097   4.509  11.244
43456SOL    HW232266  12.953   4.515  11.197
43457SOL     OW32267   3.507  13.169  14.044
43457SOL    HW132268   3.562  13.225  14.098
43457SOL    HW232269   3.528  13.194  13.954
43458SOL     OW32270   3.567   8.983  10.002
43458SOL    HW132271   3.583   9.075  10.022
43458SOL    HW232272   3.648   8.953   9.963
43459SOL     OW32273   4.519   5.459   7.222
43459SOL    HW132274   4.551   5.547   7.201
43459SOL    HW232275   4.573   5.432   7.296
43460SOL     OW32276   4.052  12.382   9.685
43460SOL    HW132277   4.045  12.372   9.780
43460SOL    HW232278   4.105  12.461   9.673
43461SOL     OW32279  12.509   9.685  10.790
43461SOL    HW132280  12.548   9.693  10.877
43461SOL    HW232281  12.564   9.621  10.745
43462SOL     OW32282   9.940  10.469   5.567
43462SOL    HW132283   9.938  10.502   5.477
43462SOL    HW232284   9.897  10.383   5.562
43463SOL     OW32285   2.446  10.488  12.575
43463SOL    HW132286   2.448  10.570  12.623
43463SOL    HW232287   2.414  10.511  12.488
43464SOL     OW32288   7.713  14.505  13.681
43464SOL    HW132289   7.781  14.529  13.619
43464SOL    HW232290   7.640  14.476  13.627
43465SOL     OW32291   4.641  10.427   9.232
43465SOL    HW132292   4.694  10.375   9.171
43465SOL    HW232293   4.669  10.517   9.216
43466SOL     OW32294   5.378  12.337   2.512
43466SOL    HW132295   5.407  12.255   2.551
43466SOL    HW232296   5.293  12.354   2.552
43467SOL     OW32297   7.581   5.556   5.265
43467SOL    HW132298   7.649   5.615   5.231
43467SOL    HW232299   7.578   5.484   5.202
43468SOL     OW32300   5.674   3.055  13.525
43468SOL    HW132301   5.729   3.112  13.579
43468SOL    HW232302   5.633   2.995  13.588
43469SOL     OW32303   9.725   1.735   0.118
43469SOL    HW132304   9.653   1.747   0.056
43469SOL    HW232305   9.803   1.738   0.064
43470SOL     OW32306   5.006   5.154   8.593
43470SOL    HW132307   4.917   5.146   8.628
43470SOL    HW232308   5.033   5.243   8.619
43471SOL     OW32309   8.193   3.624  14.543
43471SOL    HW132310   8.105   3.657  14.557
43471SOL    HW232311   8.243   3.656  14.619
43472SOL     OW32312   6.908   1.616  11.511
43472SOL    HW132313   6.855   1.564  11.572
43472SOL    HW232314   6.863   1.608  11.427
43473SOL     OW32315   1.064   5.010   7.857
43473SOL    HW132316   1.060   5.034   7.765
43473SOL    HW232317   1.054   5.094   7.904
43474SOL     OW32318   0.417   0.256  11.065
43474SOL    HW132319   0.484   0.209  11.015
43474SOL    HW232320   0.359   0.188  11.098
43475SOL     OW32321  10.017   4.446   6.327
43475SOL    HW132322  10.100   4.459   6.280
43475SOL    HW232323  10.006   4.525   6.379
43476SOL     OW32324  11.730  11.498  11.109
43476SOL    HW132325  11.729  11.558  11.183
43476SOL    HW232326  11.822  11.486  11.088
43477SOL     OW32327   3.029   9.342  10.444
43477SOL    HW132328   2.948   9.382  10.412
43477SOL    HW232329   3.094   9.412  10.442
43478SOL     OW32330   2.071   0.226   4.637
43478SOL    HW132331   2.043   0.181   4.716
43478SOL    HW232332   1.994   0.273   4.607
43479SOL     OW32333   6.505  12.384   6.335
43479SOL    HW132334   6.584  12.356   6.289
43479SOL    HW232335   6.513  12.479   6.341
43480SOL     OW32336   1.721   5.227   5.418
43480SOL    HW132337   1.660   5.231   5.344
43480SOL    HW232338   1.732   5.133   5.435
43481SOL     OW32339   4.912   1.909  14.388
43481SOL    HW132340   4.916   1.893  14.294
43481SOL    HW232341   4.935   1.825  14.428
43482SOL     OW32342   7.895  12.744   8.015
43482SOL    HW132343   7.828  12.755   8.083
43482SOL    HW232344   7.880  12.657   7.980
43483SOL     OW32345   7.495   6.603   0.328
43483SOL    HW132346   7.434   6.541   0.290
43483SOL    HW232347   7.455   6.630   0.411
43484SOL     OW32348   2.636   7.689  10.830
43484SOL    HW132349   2.543   7.664  10.827
43484SOL    HW232350   2.680   7.621  10.780
43485SOL     OW32351   8.837   7.333   9.635
43485SOL    HW132352   8.920   7.320   9.591
43485SOL    HW232353   8.823   7.253   9.686
43486SOL     OW32354   3.914  11.091   0.330
43486SOL    HW132355   3.848  11.067   0.394
43486SOL    HW232356   3.865  11.107   0.249
43487SOL     OW32357  10.796   6.986   8.604
43487SOL    HW132358  10.730   6.994   8.535
43487SOL    HW232359  10.749   6.943   8.676
43488SOL     OW32360   4.274   4.177   7.774
43488SOL    HW132361   4.324   4.152   7.852
43488SOL    HW232362   4.273   4.097   7.720
43489SOL     OW32363  10.420   3.634   1.403
43489SOL    HW132364  10.327   3.648   1.420
43489SOL    HW232365  10.448   3.711   1.353
43490SOL     OW32366   8.005   2.479   6.481
43490SOL    HW132367   8.009   2.573   6.499
43490SOL    HW232368   7.960   2.472   6.397
43491SOL     OW32369  14.151   0.887  12.476
43491SOL    HW132370  14.073   0.921  12.521
43491SOL    HW232371  14.134   0.793  12.466
43492SOL     OW32372  13.123   2.408  14.711
43492SOL    HW132373  13.031   2.398  14.684
43492SOL    HW232374  13.128   2.496  14.747
43493SOL     OW32375  10.432   3.200   6.692
43493SOL    HW132376  10.417   3.227   6.601
43493SOL    HW232377  10.517   3.237   6.713
43494SOL     OW32378   1.953   1.644  14.119
43494SOL    HW132379   1.958   1.719  14.059
43494SOL    HW232380   1.900   1.676  14.192
43495SOL     OW32381   0.022  10.822   9.239
43495SOL    HW132382   0.083  10.748   9.243
43495SOL    HW232383   0.062  10.881   9.175
43496SOL     OW32384  11.976   9.648   3.258
43496SOL    HW132385  11.951   9.624   3.169
43496SOL    HW232386  11.895   9.640   3.309
43497SOL     OW32387   6.108  11.211   6.596
43497SOL    HW132388   6.016  11.236   6.593
43497SOL    HW232389   6.151  11.282   6.644
43498SOL     OW32390   8.541   8.129  11.546
43498SOL    HW132391   8.502   8.108  11.631
43498SOL    HW232392   8.635   8.134  11.563
43499SOL     OW32393   0.058   3.813  12.301
43499SOL    HW132394   0.139   3.769  12.327
43499SOL    HW232395   0.066   3.824  12.206
43500SOL     OW32396   9.211  12.216   6.920
43500SOL    HW132397   9.193  12.228   6.827
43500SOL    HW232398   9.280  12.150   6.922
43501SOL     OW32399   6.187  13.345   4.371
43501SOL    HW132400   6.191  13.268   4.315
43501SOL    HW232401   6.137  13.316   4.448
43502SOL     OW32402   9.537   0.421   1.083
43502SOL    HW132403   9.608   0.439   1.022
43502SOL    HW232404   9.551   0.482   1.156
43503SOL     OW32405  12.966  11.344  14.367
43503SOL    HW132406  12.957  11.304  14.281
43503SOL    HW232407  13.050  11.310  14.400
43504SOL     OW32408   8.529  12.986  14.641
43504SOL    HW132409   8.589  12.930  14.692
43504SOL    HW232410   8.444  12.974  14.683
43505SOL     OW32411  11.089  14.034   9.094
43505SOL    HW132412  11.046  14.069   9.016
43505SOL    HW232413  11.177  14.011   9.065
43506SOL     OW32414  12.094   6.616   8.613
43506SOL    HW132415  12.023   6.568   8.655
43506SOL    HW232416  12.127   6.675   8.681
43507SOL     OW32417  11.060   3.305   6.040
43507SOL    HW132418  11.143   3.284   5.996
43507SOL    HW232419  11.027   3.382   5.995
43508SOL     OW32420   1.549  11.305   2.932
43508SOL    HW132421   1.477  11.261   2.977
43508SOL    HW232422   1.506  11.372   2.877
43509SOL     OW32423   1.524  11.675   8.154
43509SOL    HW132424   1.604  11.630   8.130
43509SOL    HW232425   1.456  11.607   8.152
43510SOL     OW32426   7.310   3.766   6.133
43510SOL    HW132427   7.247   3.809   6.191
43510SOL    HW232428   7.264   3.690   6.099
43511SOL     OW32429   3.417   1.133  14.261
43511SOL    HW132430   3.441   1.215  14.218
43511SOL    HW232431   3.422   1.153  14.355
43512SOL     OW32432   1.579   6.125  11.220
43512SOL    HW132433   1.629   6.086  11.148
43512SOL    HW232434   1.643   6.177  11.268
43513SOL     OW32435   9.552  12.852  10.359
43513SOL    HW132436   9.543  12.946  10.370
43513SOL    HW232437   9.529  12.816  10.445
43514SOL     OW32438  14.351   9.826   9.636
43514SOL    HW132439  14.335   9.864   9.549
43514SOL    HW232440  14.377   9.900   9.690
43515SOL     OW32441   9.356  10.949   9.393
43515SOL    HW132442   9.286  10.930   9.455
43515SOL    HW232443   9.364  11.044   9.393
43516SOL     OW32444  10.636   3.974   1.259
43516SOL    HW132445  10.653   3.943   1.348
43516SOL    HW232446  10.695   4.048   1.248
43517SOL     OW32447  11.923   0.151  11.981
43517SOL    HW132448  11.923   0.234  11.935
43517SOL    HW232449  11.984   0.096  11.931
43518SOL     OW32450   2.812   1.209   9.350
43518SOL    HW132451   2.804   1.115   9.339
43518SOL    HW232452   2.828   1.243   9.262
43519SOL     OW32453  14.312   8.147  13.961
43519SOL    HW132454  14.345   8.200  13.888
43519SOL    HW232455  14.371   8.072  13.965
43520SOL     OW32456   7.419  14.537  11.173
43520SOL    HW132457   7.449  14.497  11.091
43520SOL    HW232458   7.329  14.566  11.154
43521SOL     OW32459  13.514   0.425   8.322
43521SOL    HW132460  13.595   0.456   8.362
43521SOL    HW232461  13.445   0.466   8.374
43522SOL     OW32462   3.172   4.897  10.294
43522SOL    HW132463   3.186   4.961  10.224
43522SOL    HW232464   3.124   4.826  10.253
43523SOL     OW32465  10.743   1.442   4.333
43523SOL    HW132466  10.693   1.417   4.255
43523SOL    HW232467  10.748   1.537   4.330
43524SOL     OW32468  11.833   1.551   9.267
43524SOL    HW132469  11.891   1.625   9.287
43524SOL    HW232470  11.756   1.565   9.322
43525SOL     OW32471   8.961   4.628   0.519
43525SOL    HW132472   8.938   4.584   0.601
43525SOL    HW232473   8.994   4.714   0.547
43526SOL     OW32474  12.518   7.038   3.927
43526SOL    HW132475  12.429   7.068   3.908
43526SOL    HW232476  12.555   7.018   3.841
43527SOL     OW32477   7.884   3.806   6.192
43527SOL    HW132478   7.821   3.875   6.212
43527SOL    HW232479   7.835   3.743   6.140
43528SOL     OW32480  10.613   4.119   8.762
43528SOL    HW132481  10.599   4.025   8.751
43528SOL    HW232482  10.580   4.140   8.849
43529SOL     OW32483   4.767  13.609   6.448
43529SOL    HW132484   4.808  13.566   6.523
43529SOL    HW232485   4.731  13.690   6.484
43530SOL     OW32486   3.369  13.539  12.081
43530SOL    HW132487   3.386  13.459  12.031
43530SOL    HW232488   3.292  13.518  12.134
43531SOL     OW32489   7.435   2.977   5.388
43531SOL    HW132490   7.390   2.893   5.399
43531SOL    HW232491   7.498   2.961   5.317
43532SOL     OW32492  14.779   6.919   5.877
43532SOL    HW132493  14.846   6.894   5.940
43532SOL    HW232494  14.826   6.972   5.812
43533SOL     OW32495   2.014  11.136   5.736
43533SOL    HW132496   2.007  11.177   5.650
43533SOL    HW232497   2.097  11.088   5.733
43534SOL     OW32498  11.651   6.073   4.350
43534SOL    HW132499  11.722   6.128   4.315
43534SOL    HW232500  11.592   6.060   4.275
43535SOL     OW32501   2.981   4.516  13.667
43535SOL    HW132502   2.896   4.535  13.708
43535SOL    HW232503   3.026   4.460  13.731
43536SOL     OW32504   7.850   3.030   0.220
43536SOL    HW132505   7.904   3.075   0.285
43536SOL    HW232506   7.809   3.100   0.170
43537SOL     OW32507   9.423   0.399   4.421
43537SOL    HW132508   9.399   0.481   4.378
43537SOL    HW232509   9.352   0.381   4.482
43538SOL     OW32510   5.875  10.908  12.574
43538SOL    HW132511   5.830  10.987  12.603
43538SOL    HW232512   5.915  10.872  12.652
43539SOL     OW32513  10.921   0.078   9.669
43539SOL    HW132514  10.954   0.010   9.728
43539SOL    HW232515  10.976   0.071   9.591
43540SOL     OW32516   4.218   9.852   7.700
43540SOL    HW132517   4.233   9.924   7.638
43540SOL    HW232518   4.128   9.824   7.683
43541SOL     OW32519  14.592  10.658   8.633
43541SOL    HW132520  14.581  10.705   8.551
43541SOL    HW232521  14.572  10.722   8.701
43542SOL     OW32522  10.578   4.129  11.965
43542SOL    HW132523  10.509   4.070  11.996
43542SOL    HW232524  10.532   4.210  11.942
43543SOL     OW32525  13.163   3.834   9.701
43543SOL    HW132526  13.166   3.828   9.796
43543SOL    HW232527  13.093   3.774   9.675
43544SOL     OW32528  10.372   6.098   9.280
43544SOL    HW132529  10.326   6.064   9.357
43544SOL    HW232530  10.405   6.019   9.235
43545SOL     OW32531  10.391   5.098  10.969
43545SOL    HW132532  10.467   5.101  10.911
43545SOL    HW232533  10.350   5.013  10.951
43546SOL     OW32534   7.618   5.078   6.665
43546SOL    HW132535   7.578   5.162   6.688
43546SOL    HW232536   7.667   5.097   6.584
43547SOL     OW32537  10.345   8.019   4.007
43547SOL    HW132538  10.414   7.952   4.005
43547SOL    HW232539  10.263   7.969   3.995
43548SOL     OW32540  13.486   9.879  10.413
43548SOL    HW132541  13.432   9.928  10.475
43548SOL    HW232542  13.483   9.789  10.445
43549SOL     OW32543   0.839  11.665   6.179
43549SOL    HW132544   0.813  11.573   6.184
43549SOL    HW232545   0.803  11.705   6.258
43550SOL     OW32546   1.913  13.639   7.938
43550SOL    HW132547   1.904  13.645   8.033
43550SOL    HW232548   1.952  13.723   7.912
43551SOL     OW32549  10.142   3.134   5.218
43551SOL    HW132550  10.081   3.203   5.243
43551SOL    HW232551  10.226   3.160   5.257
43552SOL     OW32552   0.902  10.986  12.860
43552SOL    HW132553   0.868  11.007  12.947
43552SOL    HW232554   0.969  11.053  12.844
43553SOL     OW32555   5.728   9.713   3.108
43553SOL    HW132556   5.721   9.658   3.186
43553SOL    HW232557   5.668   9.673   3.045
43554SOL     OW32558   7.453  10.752  11.005
43554SOL    HW132559   7.423  10.795  10.925
43554SOL    HW232560   7.511  10.682  10.975
43555SOL     OW32561   2.957  11.690   5.810
43555SOL    HW132562   2.917  11.771   5.778
43555SOL    HW232563   2.888  11.648   5.861
43556SOL     OW32564  13.119  12.294  12.786
43556SOL    HW132565  13.064  12.354  12.736
43556SOL    HW232566  13.084  12.300  12.875
43557SOL     OW32567   6.040   8.094   7.503
43557SOL    HW132568   5.955   8.107   7.545
43557SOL    HW232569   6.020   8.088   7.410
43558SOL     OW32570  14.796   3.245  14.584
43558SOL    HW132571  14.819   3.232  14.676
43558SOL    HW232572  14.721   3.304  14.586
43559SOL     OW32573   8.771   3.567   1.158
43559SOL    HW132574   8.790   3.507   1.087
43559SOL    HW232575   8.710   3.520   1.214
43560SOL     OW32576   9.376  12.855  11.729
43560SOL    HW132577   9.435  12.875  11.656
43560SOL    HW232578   9.430  12.804  11.790
43561SOL     OW32579   8.961  14.475  12.630
43561SOL    HW132580   8.867  14.456  12.620
43561SOL    HW232581   8.990  14.415  12.699
43562SOL     OW32582   9.873   6.605   0.245
43562SOL    HW132583   9.856   6.674   0.309
43562SOL    HW232584   9.933   6.644   0.183
43563SOL     OW32585  12.922   4.461   5.879
43563SOL    HW132586  12.878   4.379   5.854
43563SOL    HW232587  12.992   4.433   5.938
43564SOL     OW32588   2.816   0.205  13.902
43564SOL    HW132589   2.789   0.146  13.972
43564SOL    HW232590   2.797   0.292  13.936
43565SOL     OW32591   9.115   9.449   0.137
43565SOL    HW132592   9.112   9.395   0.058
43565SOL    HW232593   9.052   9.519   0.121
43566SOL     OW32594   9.950   8.323   2.151
43566SOL    HW132595   9.948   8.279   2.066
43566SOL    HW232596   9.950   8.416   2.130
43567SOL     OW32597   8.873  10.023   7.654
43567SOL    HW132598   8.801  10.044   7.594
43567SOL    HW232599   8.920   9.952   7.611
43568SOL     OW32600   0.400  12.822   8.511
43568SOL    HW132601   0.390  12.913   8.483
43568SOL    HW232602   0.316  12.781   8.490
43569SOL     OW32603   4.037  12.587   6.257
43569SOL    HW132604   3.999  12.674   6.263
43569SOL    HW232605   4.101  12.594   6.186
43570SOL     OW32606   3.744  11.114  10.422
43570SOL    HW132607   3.833  11.105  10.456
43570SOL    HW232608   3.713  11.197  10.459
43571SOL     OW32609  11.495   4.697   5.670
43571SOL    HW132610  11.416   4.666   5.626
43571SOL    HW232611  11.540   4.749   5.603
43572SOL     OW32612   0.121  10.716   8.539
43572SOL    HW132613   0.062  10.791   8.538
43572SOL    HW232614   0.104  10.671   8.456
43573SOL     OW32615  12.255  10.056   3.496
43573SOL    HW132616  12.333  10.112   3.498
43573SOL    HW232617  12.239  10.035   3.588
43574SOL     OW32618   1.034   9.237  14.846
43574SOL    HW132619   1.079   9.155  14.823
43574SOL    HW232620   1.104   9.303  14.848
43575SOL     OW32621   2.026   1.403   6.457
43575SOL    HW132622   2.018   1.402   6.553
43575SOL    HW232623   1.936   1.412   6.426
43576SOL     OW32624   0.843   2.124   2.314
43576SOL    HW132625   0.784   2.049   2.311
43576SOL    HW232626   0.789   2.195   2.349
43577SOL     OW32627  14.296   6.394  13.841
43577SOL    HW132628  14.360   6.462  13.822
43577SOL    HW232629  14.265   6.415  13.930
43578SOL     OW32630  11.696   9.954  11.253
43578SOL    HW132631  11.639   9.886  11.289
43578SOL    HW232632  11.729  10.001  11.329
43579SOL     OW32633  14.508  10.610   0.685
43579SOL    HW132634  14.448  10.644   0.618
43579SOL    HW232635  14.473  10.523   0.705
43580SOL     OW32636   3.663   1.873   7.166
43580SOL    HW132637   3.627   1.938   7.106
43580SOL    HW232638   3.692   1.802   7.110
43581SOL     OW32639   7.664   6.554  13.161
43581SOL    HW132640   7.641   6.635  13.115
43581SOL    HW232641   7.651   6.485  13.096
43582SOL     OW32642   7.532   6.430   9.136
43582SOL    HW132643   7.491   6.345   9.152
43582SOL    HW232644   7.524   6.443   9.042
43583SOL     OW32645   1.856   5.216   6.176
43583SOL    HW132646   1.906   5.217   6.258
43583SOL    HW232647   1.921   5.236   6.108
43584SOL     OW32648   0.521   5.539   8.786
43584SOL    HW132649   0.505   5.472   8.720
43584SOL    HW232650   0.564   5.610   8.739
43585SOL     OW32651   9.899  14.184  12.087
43585SOL    HW132652   9.957  14.109  12.070
43585SOL    HW232653   9.852  14.159  12.167
43586SOL     OW32654   1.463   5.901  13.921
43586SOL    HW132655   1.466   5.996  13.935
43586SOL    HW232656   1.370   5.880  13.916
43587SOL     OW32657  14.290  14.555   3.880
43587SOL    HW132658  14.296  14.649   3.865
43587SOL    HW232659  14.372  14.532   3.925
43588SOL     OW32660  13.859   8.830   4.466
43588SOL    HW132661  13.819   8.905   4.422
43588SOL    HW232662  13.899   8.780   4.396
43589SOL     OW32663   6.922   8.123  13.388
43589SOL    HW132664   6.865   8.094  13.316
43589SOL    HW232665   6.986   8.180  13.345
43590SOL     OW32666   1.187   8.591   4.739
43590SOL    HW132667   1.278   8.590   4.769
43590SOL    HW232668   1.136   8.608   4.818
43591SOL     OW32669  10.803   6.402   9.225
43591SOL    HW132670  10.749   6.382   9.302
43591SOL    HW232671  10.865   6.468   9.256
43592SOL     OW32672   4.583  10.160   8.325
43592SOL    HW132673   4.613  10.161   8.234
43592SOL    HW232674   4.494  10.194   8.321
43593SOL     OW32675  11.686   6.035   2.332
43593SOL    HW132676  11.659   6.073   2.415
43593SOL    HW232677  11.654   5.945   2.335
43594SOL     OW32678   3.801   8.332   7.523
43594SOL    HW132679   3.822   8.399   7.588
43594SOL    HW232680   3.864   8.347   7.452
43595SOL     OW32681   3.342  11.151   0.662
43595SOL    HW132682   3.321  11.092   0.590
43595SOL    HW232683   3.430  11.182   0.642
43596SOL     OW32684   1.916  14.600   4.400
43596SOL    HW132685   1.850  14.594   4.469
43596SOL    HW232686   1.949  14.511   4.391
43597SOL     OW32687   6.984  13.287   7.175
43597SOL    HW132688   7.046  13.354   7.148
43597SOL    HW232689   6.903  13.334   7.194
43598SOL     OW32690   9.992  14.576   5.288
43598SOL    HW132691   9.926  14.513   5.258
43598SOL    HW232692   9.963  14.600   5.377
43599SOL     OW32693   6.768   0.251   0.614
43599SOL    HW132694   6.765   0.156   0.612
43599SOL    HW232695   6.842   0.272   0.671
43600SOL     OW32696   1.524   3.143   7.412
43600SOL    HW132697   1.457   3.207   7.435
43600SOL    HW232698   1.607   3.187   7.430
43601SOL     OW32699   2.844   4.622  12.239
43601SOL    HW132700   2.797   4.687  12.187
43601SOL    HW232701   2.885   4.565  12.174
43602SOL     OW32702  12.305  11.324  14.716
43602SOL    HW132703  12.249  11.387  14.670
43602SOL    HW232704  12.344  11.271  14.646
43603SOL     OW32705  13.006  13.918   6.368
43603SOL    HW132706  13.054  13.995   6.398
43603SOL    HW232707  12.969  13.881   6.448
43604SOL     OW32708   5.363   8.670   8.637
43604SOL    HW132709   5.432   8.727   8.673
43604SOL    HW232710   5.303   8.731   8.594
43605SOL     OW32711  14.488   4.943   9.708
43605SOL    HW132712  14.403   4.979   9.680
43605SOL    HW232713  14.502   4.868   9.650
43606SOL     OW32714   8.102  12.012  12.579
43606SOL    HW132715   8.064  12.081  12.525
43606SOL    HW232716   8.137  11.949  12.516
43607SOL     OW32717   8.338   2.153   4.874
43607SOL    HW132718   8.408   2.115   4.821
43607SOL    HW232719   8.300   2.222   4.819
43608SOL     OW32720   3.191   0.932   5.962
43608SOL    HW132721   3.284   0.934   5.936
43608SOL    HW232722   3.145   0.972   5.888
43609SOL     OW32723   4.182   6.765   5.276
43609SOL    HW132724   4.150   6.763   5.366
43609SOL    HW232725   4.169   6.855   5.247
43610SOL     OW32726   3.659   1.616   5.680
43610SOL    HW132727   3.645   1.533   5.726
43610SOL    HW232728   3.729   1.659   5.729
43611SOL     OW32729   1.039   5.790   4.422
43611SOL    HW132730   0.948   5.813   4.402
43611SOL    HW232731   1.090   5.830   4.352
43612SOL     OW32732   7.186   6.079  12.026
43612SOL    HW132733   7.206   5.986  12.039
43612SOL    HW232734   7.098   6.081  11.988
43613SOL     OW32735   6.620  13.139   0.673
43613SOL    HW132736   6.566  13.214   0.698
43613SOL    HW232737   6.569  13.063   0.700
43614SOL     OW32738   6.049   7.028  10.424
43614SOL    HW132739   6.085   7.076  10.350
43614SOL    HW232740   5.972   6.983  10.389
43615SOL     OW32741  12.016   7.613  11.424
43615SOL    HW132742  11.930   7.650  11.443
43615SOL    HW232743  12.073   7.689  11.411
43616SOL     OW32744   4.434   0.536  10.262
43616SOL    HW132745   4.392   0.506  10.182
43616SOL    HW232746   4.413   0.629  10.267
43617SOL     OW32747   0.518   8.348   9.590
43617SOL    HW132748   0.447   8.319   9.534
43617SOL    HW232749   0.539   8.272   9.645
43618SOL     OW32750   1.512  13.993   5.761
43618SOL    HW132751   1.556  13.961   5.840
43618SOL    HW232752   1.500  14.086   5.777
43619SOL     OW32753   6.657   7.482   7.593
43619SOL    HW132754   6.720   7.526   7.536
43619SOL    HW232755   6.582   7.540   7.596
43620SOL     OW32756   9.976   5.206   7.126
43620SOL    HW132757   9.994   5.130   7.180
43620SOL    HW232758   9.886   5.193   7.095
43621SOL     OW32759  13.218   3.219  13.620
43621SOL    HW132760  13.232   3.139  13.569
43621SOL    HW232761  13.138   3.203  13.670
43622SOL     OW32762  13.075   9.782  14.137
43622SOL    HW132763  13.023   9.750  14.063
43622SOL    HW232764  13.104   9.869  14.110
43623SOL     OW32765   5.720   0.735  13.244
43623SOL    HW132766   5.806   0.761  13.276
43623SOL    HW232767   5.674   0.817  13.230
43624SOL     OW32768   7.775   6.345   6.878
43624SOL    HW132769   7.681   6.352   6.863
43624SOL    HW232770   7.801   6.431   6.912
43625SOL     OW32771   5.979  14.312   1.373
43625SOL    HW132772   5.892  14.314   1.332
43625SOL    HW232773   5.960  14.317   1.467
43626SOL     OW32774  11.726   3.630   4.156
43626SOL    HW132775  11.659   3.562   4.156
43626SOL    HW232776  11.721   3.669   4.243
43627SOL     OW32777   6.970  10.452  13.648
43627SOL    HW132778   6.910  10.511  13.603
43627SOL    HW232779   6.919  10.417  13.721
43628SOL     OW32780   0.773   5.351   5.894
43628SOL    HW132781   0.703   5.402   5.936
43628SOL    HW232782   0.760   5.364   5.800
43629SOL     OW32783  10.203   7.005   9.484
43629SOL    HW132784  10.272   6.941   9.463
43629SOL    HW232785  10.153   6.963   9.554
43630SOL     OW32786  11.687   6.606  10.444
43630SOL    HW132787  11.669   6.512  10.437
43630SOL    HW232788  11.762   6.612  10.503
43631SOL     OW32789  14.267   2.757  13.809
43631SOL    HW132790  14.251   2.691  13.876
43631SOL    HW232791  14.187   2.810  13.808
43632SOL     OW32792   1.303  12.057  10.515
43632SOL    HW132793   1.256  11.981  10.482
43632SOL    HW232794   1.304  12.119  10.442
43633SOL     OW32795  13.506   9.191  10.013
43633SOL    HW132796  13.463   9.263   9.966
43633SOL    HW232797  13.456   9.183  10.094
43634SOL     OW32798  11.780   9.624   2.077
43634SOL    HW132799  11.834   9.702   2.090
43634SOL    HW232800  11.844   9.553   2.066
43635SOL     OW32801   3.351   8.353  13.957
43635SOL    HW132802   3.357   8.361  13.861
43635SOL    HW232803   3.441   8.361  13.987
43636SOL     OW32804   4.006  14.484   3.345
43636SOL    HW132805   4.090  14.491   3.300
43636SOL    HW232806   3.941  14.495   3.275
43637SOL     OW32807   0.580   8.311  11.412
43637SOL    HW132808   0.554   8.403  11.413
43637SOL    HW232809   0.514   8.269  11.356
43638SOL     OW32810   8.696   3.331   6.157
43638SOL    HW132811   8.728   3.241   6.151
43638SOL    HW232812   8.759   3.374   6.216
43639SOL     OW32813   1.467   3.688   5.105
43639SOL    HW132814   1.501   3.629   5.038
43639SOL    HW232815   1.528   3.679   5.178
43640SOL     OW32816   5.935  13.017   1.914
43640SOL    HW132817   5.844  13.043   1.932
43640SOL    HW232818   5.979  13.098   1.891
43641SOL     OW32819   7.281   6.555   9.318
43641SOL    HW132820   7.225   6.631   9.328
43641SOL    HW232821   7.345   6.580   9.251
43642SOL     OW32822   9.627   8.953  13.410
43642SOL    HW132823   9.721   8.935  13.420
43642SOL    HW232824   9.588   8.921  13.492
43643SOL     OW32825   7.513  10.748   1.174
43643SOL    HW132826   7.432  10.799   1.168
43643SOL    HW232827   7.569  10.800   1.232
43644SOL     OW32828   2.439  10.417   4.542
43644SOL    HW132829   2.418  10.510   4.551
43644SOL    HW232830   2.354  10.374   4.543
43645SOL     OW32831   3.685  13.661   8.576
43645SOL    HW132832   3.688  13.595   8.646
43645SOL    HW232833   3.624  13.727   8.609
43646SOL     OW32834   4.264   9.295   4.147
43646SOL    HW132835   4.253   9.266   4.237
43646SOL    HW232836   4.254   9.216   4.095
43647SOL     OW32837  10.724   7.308   1.749
43647SOL    HW132838  10.680   7.318   1.664
43647SOL    HW232839  10.818   7.307   1.727
43648SOL     OW32840   3.099   3.361   6.910
43648SOL    HW132841   3.105   3.266   6.916
43648SOL    HW232842   3.027   3.384   6.969
43649SOL     OW32843   6.429   7.220  11.364
43649SOL    HW132844   6.504   7.209  11.305
43649SOL    HW232845   6.407   7.131  11.391
43650SOL     OW32846   1.008   5.619  11.902
43650SOL    HW132847   0.938   5.599  11.964
43650SOL    HW232848   1.042   5.703  11.930
43651SOL     OW32849   4.211   0.081   1.650
43651SOL    HW132850   4.161   0.013   1.606
43651SOL    HW232851   4.147   0.126   1.705
43652SOL     OW32852   4.511  10.401   4.179
43652SOL    HW132853   4.536  10.310   4.163
43652SOL    HW232854   4.442  10.419   4.115
43653SOL     OW32855   4.044   0.434   3.154
43653SOL    HW132856   4.039   0.511   3.210
43653SOL    HW232857   4.085   0.465   3.073
43654SOL     OW32858  10.174   7.806   3.410
43654SOL    HW132859  10.129   7.732   3.370
43654SOL    HW232860  10.160   7.795   3.504
43655SOL     OW32861   3.283   1.289   4.940
43655SOL    HW132862   3.326   1.361   4.894
43655SOL    HW232863   3.189   1.310   4.935
43656SOL     OW32864   7.484   8.006   8.081
43656SOL    HW132865   7.539   8.022   8.005
43656SOL    HW232866   7.409   7.956   8.046
43657SOL     OW32867   9.575   7.208   8.925
43657SOL    HW132868   9.659   7.163   8.917
43657SOL    HW232869   9.559   7.212   9.019
43658SOL     OW32870   8.349   7.868   5.449
43658SOL    HW132871   8.358   7.880   5.355
43658SOL    HW232872   8.322   7.953   5.482
43659SOL     OW32873  10.452   3.144   3.058
43659SOL    HW132874  10.529   3.088   3.058
43659SOL    HW232875  10.433   3.159   2.965
43660SOL     OW32876  11.818   2.785   8.960
43660SOL    HW132877  11.750   2.846   8.988
43660SOL    HW232878  11.771   2.706   8.933
43661SOL     OW32879   5.318   5.326   0.982
43661SOL    HW132880   5.331   5.265   0.910
43661SOL    HW232881   5.407   5.349   1.010
43662SOL     OW32882  14.360  10.085  10.807
43662SOL    HW132883  14.338  10.178  10.808
43662SOL    HW232884  14.298  10.044  10.867
43663SOL     OW32885   2.048   8.692  12.233
43663SOL    HW132886   2.077   8.611  12.275
43663SOL    HW232887   2.100   8.761  12.275
43664SOL     OW32888  13.214   8.212   7.948
43664SOL    HW132889  13.232   8.303   7.970
43664SOL    HW232890  13.125   8.212   7.913
43665SOL     OW32891  10.997   4.088   6.940
43665SOL    HW132892  11.088   4.113   6.958
43665SOL    HW232893  10.976   4.022   7.006
43666SOL     OW32894   1.916   9.335  13.092
43666SOL    HW132895   1.939   9.242  13.081
43666SOL    HW232896   1.868   9.337  13.175
43667SOL     OW32897   6.689   4.232   4.535
43667SOL    HW132898   6.697   4.147   4.578
43667SOL    HW232899   6.720   4.295   4.601
43668SOL     OW32900   9.008   1.154  12.141
43668SOL    HW132901   8.975   1.195  12.061
43668SOL    HW232902   8.965   1.202  12.211
43669SOL     OW32903  10.494   1.813  13.468
43669SOL    HW132904  10.529   1.902  13.476
43669SOL    HW232905  10.400   1.823  13.484
43670SOL     OW32906  11.487   2.198   5.915
43670SOL    HW132907  11.433   2.207   5.836
43670SOL    HW232908  11.425   2.172   5.983
43671SOL     OW32909  10.034   1.073  12.036
43671SOL    HW132910  10.001   1.040  12.120
43671SOL    HW232911   9.995   1.160  12.028
43672SOL     OW32912   0.523  10.323  14.371
43672SOL    HW132913   0.608  10.324  14.416
43672SOL    HW232914   0.462  10.288  14.435
43673SOL     OW32915  10.182   8.185  10.079
43673SOL    HW132916  10.106   8.168  10.024
43673SOL    HW232917  10.231   8.102  10.078
43674SOL     OW32918   5.273   6.852  14.757
43674SOL    HW132919   5.352   6.835  14.705
43674SOL    HW232920   5.299   6.919  14.820
43675SOL     OW32921   2.130   5.280   6.031
43675SOL    HW132922   2.195   5.231   6.081
43675SOL    HW232923   2.163   5.370   6.029
43676SOL     OW32924   3.721   1.222   1.695
43676SOL    HW132925   3.772   1.148   1.725
43676SOL    HW232926   3.771   1.259   1.622
43677SOL     OW32927   2.595   5.308   3.405
43677SOL    HW132928   2.657   5.366   3.448
43677SOL    HW232929   2.639   5.223   3.403
43678SOL     OW32930   7.309  10.840   2.510
43678SOL    HW132931   7.372  10.902   2.546
43678SOL    HW232932   7.287  10.782   2.582
43679SOL     OW32933   8.105   2.990  13.885
43679SOL    HW132934   8.158   2.958  13.958
43679SOL    HW232935   8.046   3.054  13.924
43680SOL     OW32936  13.471   0.077   0.350
43680SOL    HW132937  13.464   0.003   0.412
43680SOL    HW232938  13.495   0.151   0.405
43681SOL     OW32939   0.316  13.932   2.424
43681SOL    HW132940   0.257  13.865   2.457
43681SOL    HW232941   0.261  14.009   2.410
43682SOL     OW32942   8.575   6.829   3.786
43682SOL    HW132943   8.611   6.820   3.874
43682SOL    HW232944   8.650   6.854   3.732
43683SOL     OW32945   8.086   8.970  13.814
43683SOL    HW132946   8.123   8.990  13.900
43683SOL    HW232947   8.013   9.032  13.805
43684SOL     OW32948   2.416  13.873   0.474
43684SOL    HW132949   2.391  13.847   0.385
43684SOL    HW232950   2.425  13.791   0.522
43685SOL     OW32951   3.010  11.158  11.896
43685SOL    HW132952   3.080  11.099  11.868
43685SOL    HW232953   3.006  11.148  11.991
43686SOL     OW32954   5.167   6.574  12.892
43686SOL    HW132955   5.160   6.653  12.945
43686SOL    HW232956   5.131   6.505  12.947
43687SOL     OW32957  12.844  11.938  13.803
43687SOL    HW132958  12.889  12.022  13.813
43687SOL    HW232959  12.752  11.960  13.795
43688SOL     OW32960   1.520   9.693  11.538
43688SOL    HW132961   1.493   9.608  11.505
43688SOL    HW232962   1.614   9.698  11.519
43689SOL     OW32963   1.068   7.837  10.112
43689SOL    HW132964   1.143   7.894  10.094
43689SOL    HW232965   1.081   7.761  10.056
43690SOL     OW32966   2.834  14.787   6.740
43690SOL    HW132967   2.872  14.873   6.762
43690SOL    HW232968   2.803  14.797   6.650
43691SOL     OW32969   9.901   7.210   4.145
43691SOL    HW132970   9.896   7.304   4.160
43691SOL    HW232971   9.862   7.196   4.059
43692SOL     OW32972   3.403  14.184   8.935
43692SOL    HW132973   3.494  14.207   8.915
43692SOL    HW232974   3.356  14.267   8.930
43693SOL     OW32975   1.522   3.357   8.227
43693SOL    HW132976   1.532   3.333   8.135
43693SOL    HW232977   1.561   3.444   8.234
43694SOL     OW32978   8.642   8.237   6.288
43694SOL    HW132979   8.661   8.157   6.239
43694SOL    HW232980   8.728   8.275   6.307
43695SOL     OW32981  14.849   0.208   1.993
43695SOL    HW132982   0.042   0.188   2.051
43695SOL    HW232983   0.011   0.247   1.916
43696SOL     OW32984  12.392   3.901  10.821
43696SOL    HW132985  12.338   3.887  10.744
43696SOL    HW232986  12.422   3.991  10.813
43697SOL     OW32987  11.649   6.067   1.736
43697SOL    HW132988  11.643   6.127   1.661
43697SOL    HW232989  11.558   6.059   1.766
43698SOL     OW32990   2.393  12.897  10.637
43698SOL    HW132991   2.438  12.829  10.686
43698SOL    HW232992   2.349  12.950  10.703
43699SOL     OW32993   6.550  14.164  10.630
43699SOL    HW132994   6.460  14.169  10.663
43699SOL    HW232995   6.542  14.117  10.547
43700SOL     OW32996   7.093   9.577  13.037
43700SOL    HW132997   7.064   9.509  12.977
43700SOL    HW232998   7.040   9.653  13.014
43701SOL     OW32999   7.749   1.607   6.573
43701SOL    HW133000   7.839   1.635   6.590
43701SOL    HW233001   7.705   1.617   6.657
43702SOL     OW33002   4.028   2.489   8.190
43702SOL    HW133003   3.999   2.398   8.190
43702SOL    HW233004   4.046   2.508   8.282
43703SOL     OW33005   1.564   5.856   7.295
43703SOL    HW133006   1.619   5.923   7.254
43703SOL    HW233007   1.589   5.775   7.251
43704SOL     OW33008  10.227  10.483  11.654
43704SOL    HW133009  10.316  10.492  11.618
43704SOL    HW233010  10.224  10.545  11.726
43705SOL     OW33011  10.045  11.825   4.113
43705SOL    HW133012  10.131  11.847   4.078
43705SOL    HW233013   9.999  11.909   4.120
43706SOL     OW33014   6.322  12.073   4.170
43706SOL    HW133015   6.256  12.007   4.193
43706SOL    HW233016   6.401  12.022   4.153
43707SOL     OW33017  12.307   0.858   2.748
43707SOL    HW133018  12.237   0.835   2.808
43707SOL    HW233019  12.303   0.954   2.741
43708SOL     OW33020  13.647  11.761   7.152
43708SOL    HW133021  13.638  11.686   7.094
43708SOL    HW233022  13.721  11.810   7.117
43709SOL     OW33023   0.220   7.804  12.470
43709SOL    HW133024   0.217   7.716  12.507
43709SOL    HW233025   0.305   7.838  12.496
43710SOL     OW33026  10.674   9.290   3.543
43710SOL    HW133027  10.765   9.320   3.549
43710SOL    HW233028  10.622   9.368   3.560
43711SOL     OW33029   4.639  14.353   0.659
43711SOL    HW133030   4.597  14.438   0.649
43711SOL    HW233031   4.665  14.350   0.751
43712SOL     OW33032  11.007   8.770  11.501
43712SOL    HW133033  11.002   8.859  11.467
43712SOL    HW233034  10.928   8.728  11.468
43713SOL     OW33035   6.484  10.930  11.129
43713SOL    HW133036   6.488  11.026  11.127
43713SOL    HW233037   6.552  10.903  11.068
43714SOL     OW33038  11.762  12.152  11.094
43714SOL    HW133039  11.718  12.219  11.042
43714SOL    HW233040  11.778  12.195  11.179
43715SOL     OW33041  10.572  10.792  12.714
43715SOL    HW133042  10.507  10.862  12.715
43715SOL    HW233043  10.530  10.719  12.761
43716SOL     OW33044  10.507   9.990   5.772
43716SOL    HW133045  10.479   9.900   5.755
43716SOL    HW233046  10.449  10.020   5.842
43717SOL     OW33047   4.061  14.029   6.900
43717SOL    HW133048   4.131  14.066   6.847
43717SOL    HW233049   3.997  14.100   6.908
43718SOL     OW33050  11.169   6.058   0.347
43718SOL    HW133051  11.133   6.018   0.427
43718SOL    HW233052  11.249   6.008   0.330
43719SOL     OW33053   4.832   3.784  10.846
43719SOL    HW133054   4.830   3.728  10.767
43719SOL    HW233055   4.910   3.838  10.835
43720SOL     OW33056  10.214   1.772  10.042
43720SOL    HW133057  10.223   1.699  10.103
43720SOL    HW233058  10.214   1.732   9.955
43721SOL     OW33059   4.432   3.656   8.575
43721SOL    HW133060   4.410   3.657   8.669
43721SOL    HW233061   4.364   3.708   8.534
43722SOL     OW33062  11.569  14.311  14.336
43722SOL    HW133063  11.497  14.374  14.327
43722SOL    HW233064  11.629  14.332  14.265
43723SOL     OW33065  13.193  10.238   9.435
43723SOL    HW133066  13.177  10.302   9.504
43723SOL    HW233067  13.249  10.283   9.373
43724SOL     OW33068   2.223   7.688   3.559
43724SOL    HW133069   2.192   7.758   3.502
43724SOL    HW233070   2.145   7.637   3.579
43725SOL     OW33071   2.552   2.482  14.070
43725SOL    HW133072   2.605   2.545  14.021
43725SOL    HW233073   2.614   2.436  14.125
43726SOL     OW33074   1.296   8.154   3.078
43726SOL    HW133075   1.351   8.222   3.040
43726SOL    HW233076   1.354   8.078   3.086
43727SOL     OW33077   1.582   6.560  14.669
43727SOL    HW133078   1.565   6.540  14.577
43727SOL    HW233079   1.677   6.564  14.676
43728SOL     OW33080   2.011   8.309   0.521
43728SOL    HW133081   2.030   8.219   0.545
43728SOL    HW233082   1.971   8.347   0.600
43729SOL     OW33083   9.701  10.440   5.860
43729SOL    HW133084   9.651  10.505   5.809
43729SOL    HW233085   9.726  10.487   5.939
43730SOL     OW33086   0.439   4.710   0.487
43730SOL    HW133087   0.484   4.774   0.542
43730SOL    HW233088   0.448   4.745   0.398
43731SOL     OW33089   6.617   6.101   0.931
43731SOL    HW133090   6.563   6.174   0.961
43731SOL    HW233091   6.706   6.129   0.950
43732SOL     OW33092  10.279  10.433   1.947
43732SOL    HW133093  10.322  10.517   1.934
43732SOL    HW233094  10.305  10.405   2.035
43733SOL     OW33095   0.201   6.087  12.523
43733SOL    HW133096   0.292   6.087  12.492
43733SOL    HW233097   0.209   6.080  12.618
43734SOL     OW33098   7.171   7.118  10.206
43734SOL    HW133099   7.134   7.112  10.294
43734SOL    HW233100   7.250   7.171  10.217
43735SOL     OW33101   1.073   0.201   8.584
43735SOL    HW133102   1.006   0.134   8.574
43735SOL    HW233103   1.151   0.164   8.542
43736SOL     OW33104   3.484   4.267   0.966
43736SOL    HW133105   3.549   4.202   0.993
43736SOL    HW233106   3.509   4.346   1.013
43737SOL     OW33107   1.901   9.834   1.163
43737SOL    HW133108   1.806   9.846   1.170
43737SOL    HW233109   1.922   9.855   1.072
43738SOL     OW33110   6.256   9.540  10.935
43738SOL    HW133111   6.222   9.625  10.906
43738SOL    HW233112   6.349   9.556  10.951
43739SOL     OW33113   4.662   1.280   0.532
43739SOL    HW133114   4.664   1.294   0.437
43739SOL    HW233115   4.673   1.186   0.543
43740SOL     OW33116   4.052   5.344   1.289
43740SOL    HW133117   4.104   5.387   1.221
43740SOL    HW233118   4.089   5.376   1.371
43741SOL     OW33119   8.766  11.992   9.094
43741SOL    HW133120   8.731  12.046   9.024
43741SOL    HW233121   8.709  11.915   9.097
43742SOL     OW33122  11.910   8.867   3.541
43742SOL    HW133123  11.975   8.812   3.498
43742SOL    HW233124  11.910   8.837   3.632
43743SOL     OW33125   6.254  14.187   1.565
43743SOL    HW133126   6.323  14.198   1.500
43743SOL    HW233127   6.213  14.273   1.571
43744SOL     OW33128   9.812   5.755   3.519
43744SOL    HW133129   9.864   5.746   3.439
43744SOL    HW233130   9.790   5.848   3.523
43745SOL     OW33131  12.131   8.105   5.793
43745SOL    HW133132  12.104   8.151   5.714
43745SOL    HW233133  12.111   8.165   5.865
43746SOL     OW33134   7.825   1.289  11.888
43746SOL    HW133135   7.757   1.348  11.921
43746SOL    HW233136   7.778   1.211  11.859
43747SOL     OW33137   9.980   0.392  14.414
43747SOL    HW133138  10.069   0.364  14.392
43747SOL    HW233139   9.923   0.335  14.363
43748SOL     OW33140   4.556   3.237   7.218
43748SOL    HW133141   4.619   3.300   7.254
43748SOL    HW233142   4.580   3.231   7.125
43749SOL     OW33143  14.754  14.655  12.855
43749SOL    HW133144  14.768  14.750  12.847
43749SOL    HW233145  14.841  14.620  12.874
43750SOL     OW33146   2.581   1.046   5.947
43750SOL    HW133147   2.665   1.006   5.922
43750SOL    HW233148   2.604   1.111   6.014
43751SOL     OW33149   4.237  11.501   9.009
43751SOL    HW133150   4.213  11.491   9.101
43751SOL    HW233151   4.330  11.523   9.011
43752SOL     OW33152  10.575  14.477   3.780
43752SOL    HW133153  10.533  14.561   3.803
43752SOL    HW233154  10.623  14.452   3.858
43753SOL     OW33155   0.480   9.275  12.500
43753SOL    HW133156   0.406   9.275  12.561
43753SOL    HW233157   0.464   9.349  12.442
43754SOL     OW33158   5.739  14.512   0.248
43754SOL    HW133159   5.719  14.592   0.199
43754SOL    HW233160   5.771  14.450   0.182
43755SOL     OW33161   5.111  10.834   3.245
43755SOL    HW133162   5.086  10.794   3.328
43755SOL    HW233163   5.122  10.927   3.266
43756SOL     OW33164  11.550  14.870   1.995
43756SOL    HW133165  11.472  14.851   2.047
43756SOL    HW233166  11.574  14.786   1.956
43757SOL     OW33167   7.712  12.050  13.983
43757SOL    HW133168   7.667  11.966  13.991
43757SOL    HW233169   7.756  12.044  13.898
43758SOL     OW33170  11.103   5.297   4.179
43758SOL    HW133171  11.053   5.339   4.250
43758SOL    HW233172  11.169   5.361   4.155
43759SOL     OW33173   2.601   0.598   4.067
43759SOL    HW133174   2.509   0.573   4.065
43759SOL    HW233175   2.621   0.609   4.159
43760SOL     OW33176  13.715   0.835   6.977
43760SOL    HW133177  13.755   0.751   7.003
43760SOL    HW233178  13.760   0.900   7.031
43761SOL     OW33179   1.884  13.446   4.291
43761SOL    HW133180   1.843  13.530   4.271
43761SOL    HW233181   1.861  13.429   4.382
43762SOL     OW33182   2.335   4.058  13.132
43762SOL    HW133183   2.280   4.121  13.179
43762SOL    HW233184   2.422   4.098  13.132
43763SOL     OW33185   7.697   6.891   9.981
43763SOL    HW133186   7.712   6.859   9.893
43763SOL    HW233187   7.769   6.952   9.997
43764SOL     OW33188  11.760   8.074  14.716
43764SOL    HW133189  11.681   8.103  14.763
43764SOL    HW233190  11.826   8.066  14.785
43765SOL     OW33191  14.836   3.136   3.395
43765SOL    HW133192  14.812   3.188   3.319
43765SOL    HW233193  14.871   3.054   3.359
43766SOL     OW33194  10.430   3.474  12.157
43766SOL    HW133195  10.366   3.405  12.179
43766SOL    HW233196  10.419   3.539  12.227
43767SOL     OW33197   8.104  10.882  10.364
43767SOL    HW133198   8.194  10.887  10.396
43767SOL    HW233199   8.095  10.957  10.304
43768SOL     OW33200  11.908  14.815   7.348
43768SOL    HW133201  11.960   0.014   7.332
43768SOL    HW233202  11.818  14.841   7.324
43769SOL     OW33203   6.199   5.531  14.223
43769SOL    HW133204   6.254   5.551  14.298
43769SOL    HW233205   6.251   5.555  14.147
43770SOL     OW33206   0.757   9.458   8.428
43770SOL    HW133207   0.687   9.447   8.492
43770SOL    HW233208   0.835   9.477   8.481
43771SOL     OW33209   7.560   3.334  10.887
43771SOL    HW133210   7.608   3.405  10.928
43771SOL    HW233211   7.614   3.256  10.902
43772SOL     OW33212  14.783  11.355   5.960
43772SOL    HW133213  14.776  11.449   5.943
43772SOL    HW233214  14.730  11.314   5.891
43773SOL     OW33215   9.974  13.115  10.604
43773SOL    HW133216  10.031  13.153  10.671
43773SOL    HW233217   9.946  13.189  10.550
43774SOL     OW33218   2.512  14.756  11.265
43774SOL    HW133219   2.577  14.690  11.289
43774SOL    HW233220   2.556  14.812  11.201
43775SOL     OW33221  10.950   4.355  13.332
43775SOL    HW133222  10.931   4.337  13.424
43775SOL    HW233223  10.904   4.436  13.313
43776SOL     OW33224   5.108   5.955   0.244
43776SOL    HW133225   5.133   6.012   0.171
43776SOL    HW233226   5.056   6.010   0.301
43777SOL     OW33227   6.854   8.160   5.803
43777SOL    HW133228   6.876   8.105   5.727
43777SOL    HW233229   6.936   8.204   5.825
43778SOL     OW33230   4.034   2.416   2.519
43778SOL    HW133231   4.066   2.334   2.482
43778SOL    HW233232   3.964   2.443   2.460
43779SOL     OW33233  10.486   1.595  14.631
43779SOL    HW133234  10.471   1.673  14.576
43779SOL    HW233235  10.557   1.621  14.690
43780SOL     OW33236   1.722   4.162  13.476
43780SOL    HW133237   1.662   4.110  13.422
43780SOL    HW233238   1.754   4.230  13.417
43781SOL     OW33239   4.973   5.765  11.409
43781SOL    HW133240   4.913   5.736  11.341
43781SOL    HW233241   5.057   5.776  11.364
43782SOL     OW33242   8.630  10.865   6.516
43782SOL    HW133243   8.538  10.858   6.544
43782SOL    HW233244   8.635  10.810   6.438
43783SOL     OW33245   4.477  11.542   6.361
43783SOL    HW133246   4.384  11.563   6.357
43783SOL    HW233247   4.498  11.542   6.454
43784SOL     OW33248  13.201   3.912  14.788
43784SOL    HW133249  13.152   3.901  14.870
43784SOL    HW233250  13.206   4.007  14.776
43785SOL     OW33251   2.617  11.422  12.875
43785SOL    HW133252   2.591  11.514  12.870
43785SOL    HW233253   2.626  11.405  12.969
43786SOL     OW33254  14.280   4.264  11.733
43786SOL    HW133255  14.325   4.310  11.803
43786SOL    HW233256  14.295   4.318  11.655
43787SOL     OW33257   5.531  13.017   5.526
43787SOL    HW133258   5.572  13.078   5.465
43787SOL    HW233259   5.555  12.930   5.492
43788SOL     OW33260  12.781  10.263   8.893
43788SOL    HW133261  12.729  10.297   8.820
43788SOL    HW233262  12.727  10.195   8.932
43789SOL     OW33263   3.587   7.166   9.597
43789SOL    HW133264   3.655   7.098   9.599
43789SOL    HW233265   3.635   7.247   9.614
43790SOL     OW33266   3.896   9.879   5.859
43790SOL    HW133267   3.885   9.825   5.937
43790SOL    HW233268   3.961   9.945   5.882
43791SOL     OW33269  11.955   6.103   9.447
43791SOL    HW133270  11.901   6.114   9.368
43791SOL    HW233271  12.045   6.101   9.415
43792SOL     OW33272   4.226  10.111   1.798
43792SOL    HW133273   4.247  10.202   1.778
43792SOL    HW233274   4.189  10.113   1.886
43793SOL     OW33275  11.121   0.719  13.086
43793SOL    HW133276  11.155   0.809  13.089
43793SOL    HW233277  11.198   0.664  13.095
43794SOL     OW33278   1.862   8.884  10.721
43794SOL    HW133279   1.826   8.819  10.660
43794SOL    HW233280   1.885   8.833  10.798
43795SOL     OW33281   7.139  10.847   3.138
43795SOL    HW133282   7.096  10.763   3.159
43795SOL    HW233283   7.146  10.847   3.043
43796SOL     OW33284   3.701   0.918   8.453
43796SOL    HW133285   3.797   0.915   8.452
43796SOL    HW233286   3.674   0.865   8.378
43797SOL     OW33287   4.109   6.232  10.420
43797SOL    HW133288   4.037   6.180  10.384
43797SOL    HW233289   4.067   6.294  10.479
43798SOL     OW33290   7.060   4.179   3.720
43798SOL    HW133291   7.154   4.162   3.725
43798SOL    HW233292   7.043   4.197   3.627
43799SOL     OW33293   7.277  14.517   0.129
43799SOL    HW133294   7.216  14.444   0.116
43799SOL    HW233295   7.350  14.478   0.178
43800SOL     OW33296  13.431   1.906  11.955
43800SOL    HW133297  13.366   1.851  11.912
43800SOL    HW233298  13.430   1.878  12.046
43801SOL     OW33299  14.388   2.311   2.120
43801SOL    HW133300  14.362   2.312   2.212
43801SOL    HW233301  14.482   2.296   2.122
43802SOL     OW33302   5.193   9.092   7.982
43802SOL    HW133303   5.136   9.059   7.913
43802SOL    HW233304   5.218   9.180   7.953
43803SOL     OW33305   7.905  14.235   9.209
43803SOL    HW133306   7.856  14.230   9.127
43803SOL    HW233307   7.893  14.325   9.239
43804SOL     OW33308   7.463  12.923  11.641
43804SOL    HW133309   7.383  12.960  11.605
43804SOL    HW233310   7.433  12.857  11.703
43805SOL     OW33311   3.337   9.202  12.504
43805SOL    HW133312   3.403   9.243  12.561
43805SOL    HW233313   3.307   9.125  12.552
43806SOL     OW33314  14.506  14.737   4.442
43806SOL    HW133315  14.565  14.764   4.372
43806SOL    HW233316  14.560  14.680   4.497
43807SOL     OW33317   5.582  11.593  10.538
43807SOL    HW133318   5.603  11.686  10.549
43807SOL    HW233319   5.540  11.569  10.620
43808SOL     OW33320   5.802   1.112   6.927
43808SOL    HW133321   5.729   1.162   6.964
43808SOL    HW233322   5.768   1.077   6.845
43809SOL     OW33323   7.725   4.144   3.642
43809SOL    HW133324   7.714   4.151   3.548
43809SOL    HW233325   7.719   4.234   3.674
43810SOL     OW33326   7.139   9.528  13.927
43810SOL    HW133327   7.158   9.611  13.970
43810SOL    HW233328   7.216   9.510  13.873
43811SOL     OW33329   8.010   8.484   5.205
43811SOL    HW133330   7.995   8.389   5.207
43811SOL    HW233331   8.080   8.496   5.141
43812SOL     OW33332   9.688   4.912  12.591
43812SOL    HW133333   9.691   4.826  12.634
43812SOL    HW233334   9.762   4.960  12.629
43813SOL     OW33335   5.901   2.231   6.242
43813SOL    HW133336   5.898   2.285   6.322
43813SOL    HW233337   5.899   2.294   6.171
43814SOL     OW33338   0.074   8.293   6.066
43814SOL    HW133339  14.865   8.325   6.070
43814SOL    HW233340   0.117   8.330   6.143
43815SOL     OW33341   7.184   3.143   9.392
43815SOL    HW133342   7.155   3.053   9.410
43815SOL    HW233343   7.105   3.196   9.405
43816SOL     OW33344  10.145  12.765  12.674
43816SOL    HW133345  10.100  12.827  12.615
43816SOL    HW233346  10.077  12.702  12.698
43817SOL     OW33347   9.809   2.158  12.092
43817SOL    HW133348   9.767   2.116  12.017
43817SOL    HW233349   9.748   2.227  12.118
43818SOL     OW33350   7.495   1.893   9.698
43818SOL    HW133351   7.432   1.948   9.651
43818SOL    HW233352   7.516   1.823   9.636
43819SOL     OW33353   3.819   5.742   3.792
43819SOL    HW133354   3.741   5.703   3.752
43819SOL    HW233355   3.888   5.677   3.780
43820SOL     OW33356  14.774   4.567   3.089
43820SOL    HW133357  14.702   4.572   3.025
43820SOL    HW233358  14.850   4.539   3.037
43821SOL     OW33359   1.816  14.808   1.634
43821SOL    HW133360   1.763   0.007   1.625
43821SOL    HW233361   1.860  14.799   1.549
43822SOL     OW33362  12.794   2.484   8.146
43822SOL    HW133363  12.736   2.477   8.070
43822SOL    HW233364  12.871   2.431   8.123
43823SOL     OW33365   6.875   9.290  10.262
43823SOL    HW133366   6.950   9.320  10.211
43823SOL    HW233367   6.880   9.194  10.257
43824SOL     OW33368   7.999   6.277  10.239
43824SOL    HW133369   8.060   6.337  10.282
43824SOL    HW233370   7.912   6.306  10.268
43825SOL     OW33371   4.774   3.965   3.584
43825SOL    HW133372   4.739   3.882   3.616
43825SOL    HW233373   4.842   3.941   3.522
43826SOL     OW33374   6.595  14.164   5.259
43826SOL    HW133375   6.570  14.214   5.181
43826SOL    HW233376   6.540  14.200   5.329
43827SOL     OW33377  14.240   2.603   1.608
43827SOL    HW133378  14.255   2.528   1.666
43827SOL    HW233379  14.326   2.623   1.573
43828SOL     OW33380   3.356  12.919   0.536
43828SOL    HW133381   3.412  12.874   0.473
43828SOL    HW233382   3.343  13.006   0.499
43829SOL     OW33383   0.067  12.414   4.595
43829SOL    HW133384   0.010  12.462   4.536
43829SOL    HW233385   0.130  12.479   4.627
43830SOL     OW33386   6.873   4.224   8.885
43830SOL    HW133387   6.898   4.136   8.857
43830SOL    HW233388   6.785   4.237   8.850
43831SOL     OW33389   6.962   2.293   3.137
43831SOL    HW133390   6.984   2.386   3.144
43831SOL    HW233391   7.034   2.254   3.088
43832SOL     OW33392   3.772  11.727   5.854
43832SOL    HW133393   3.750  11.756   5.765
43832SOL    HW233394   3.838  11.659   5.841
43833SOL     OW33395  13.117   8.976  14.213
43833SOL    HW133396  13.188   8.917  14.190
43833SOL    HW233397  13.152   9.064  14.197
43834SOL     OW33398  11.837  14.518  12.284
43834SOL    HW133399  11.790  14.564  12.354
43834SOL    HW233400  11.789  14.541  12.205
43835SOL     OW33401  11.151   4.353  12.403
43835SOL    HW133402  11.088   4.422  12.425
43835SOL    HW233403  11.236   4.390  12.425
43836SOL     OW33404   0.181   9.280  13.537
43836SOL    HW133405   0.266   9.239  13.551
43836SOL    HW233406   0.178   9.299  13.443
43837SOL     OW33407   4.372  10.719   4.756
43837SOL    HW133408   4.293  10.665   4.752
43837SOL    HW233409   4.433  10.667   4.809
43838SOL     OW33410  13.055   6.124   5.664
43838SOL    HW133411  13.060   6.219   5.651
43838SOL    HW233412  12.979   6.111   5.721
43839SOL     OW33413  13.224  13.730   6.449
43839SOL    HW133414  13.145  13.770   6.411
43839SOL    HW233415  13.190  13.659   6.504
43840SOL     OW33416  11.393   4.727   2.584
43840SOL    HW133417  11.303   4.717   2.613
43840SOL    HW233418  11.411   4.649   2.532
43841SOL     OW33419   7.752  11.177   7.500
43841SOL    HW133420   7.724  11.110   7.438
43841SOL    HW233421   7.729  11.141   7.586
43842SOL     OW33422   4.708   8.878  10.898
43842SOL    HW133423   4.731   8.786  10.890
43842SOL    HW233424   4.633   8.889  10.839
43843SOL     OW33425   7.336   8.670   9.171
43843SOL    HW133426   7.417   8.622   9.158
43843SOL    HW233427   7.361   8.746   9.225
43844SOL     OW33428   3.618   6.096  12.323
43844SOL    HW133429   3.568   6.093  12.404
43844SOL    HW233430   3.615   6.007  12.288
43845SOL     OW33431   0.348   5.579   0.333
43845SOL    HW133432   0.388   5.560   0.418
43845SOL    HW233433   0.276   5.639   0.353
43846SOL     OW33434  12.218  11.535   6.418
43846SOL    HW133435  12.223  11.551   6.324
43846SOL    HW233436  12.139  11.482   6.429
43847SOL     OW33437  10.494   5.067  14.818
43847SOL    HW133438  10.469   4.989  14.768
43847SOL    HW233439  10.572   5.100  14.773
43848SOL     OW33440  12.895  10.239   1.617
43848SOL    HW133441  12.854  10.164   1.660
43848SOL    HW233442  12.889  10.220   1.524
43849SOL     OW33443  12.606  11.986  11.992
43849SOL    HW133444  12.608  11.958  11.901
43849SOL    HW233445  12.520  12.029  12.002
43850SOL     OW33446  11.715   8.668  13.899
43850SOL    HW133447  11.806   8.676  13.872
43850SOL    HW233448  11.675   8.610  13.834
43851SOL     OW33449   1.408   1.763  10.670
43851SOL    HW133450   1.464   1.714  10.609
43851SOL    HW233451   1.319   1.733  10.651
43852SOL     OW33452  11.265  14.263   0.153
43852SOL    HW133453  11.196  14.240   0.216
43852SOL    HW233454  11.343  14.273   0.207
43853SOL     OW33455   3.289   9.462   2.642
43853SOL    HW133456   3.313   9.383   2.691
43853SOL    HW233457   3.216   9.435   2.586
43854SOL     OW33458  11.062   0.966   7.434
43854SOL    HW133459  11.108   0.948   7.352
43854SOL    HW233460  10.973   0.934   7.420
43855SOL     OW33461   9.007  12.562   3.666
43855SOL    HW133462   8.970  12.536   3.582
43855SOL    HW233463   8.932  12.574   3.723
43856SOL     OW33464   2.603   6.699   9.181
43856SOL    HW133465   2.557   6.616   9.189
43856SOL    HW233466   2.689   6.676   9.144
43857SOL     OW33467  10.754  11.842   4.730
43857SOL    HW133468  10.692  11.783   4.773
43857SOL    HW233469  10.739  11.828   4.637
43858SOL     OW33470  11.914   5.753   2.529
43858SOL    HW133471  11.957   5.742   2.614
43858SOL    HW233472  11.829   5.794   2.551
43859SOL     OW33473   5.158  10.767   7.809
43859SOL    HW133474   5.192  10.835   7.868
43859SOL    HW233475   5.223  10.761   7.739
43860SOL     OW33476  11.593  12.027   1.084
43860SOL    HW133477  11.677  12.071   1.070
43860SOL    HW233478  11.611  11.935   1.061
43861SOL     OW33479   5.443   6.427   5.716
43861SOL    HW133480   5.399   6.342   5.728
43861SOL    HW233481   5.394   6.469   5.645
43862SOL     OW33482   0.193  10.176   7.452
43862SOL    HW133483   0.275  10.132   7.431
43862SOL    HW233484   0.132  10.148   7.383
43863SOL     OW33485  10.487   6.543   6.452
43863SOL    HW133486  10.540   6.605   6.402
43863SOL    HW233487  10.484   6.465   6.396
43864SOL     OW33488   7.254   2.683  10.119
43864SOL    HW133489   7.323   2.749  10.119
43864SOL    HW233490   7.257   2.645  10.206
43865SOL     OW33491   0.322  12.247   2.821
43865SOL    HW133492   0.308  12.342   2.816
43865SOL    HW233493   0.260  12.217   2.887
43866SOL     OW33494   0.348   8.433   2.620
43866SOL    HW133495   0.300   8.510   2.652
43866SOL    HW233496   0.284   8.385   2.567
43867SOL     OW33497   5.964  14.451   3.384
43867SOL    HW133498   5.926  14.503   3.313
43867SOL    HW233499   6.047  14.494   3.404
43868SOL     OW33500  13.400   5.339  10.939
43868SOL    HW133501  13.464   5.308  11.004
43868SOL    HW233502  13.449   5.343  10.857
43869SOL     OW33503  14.429  13.358   5.912
43869SOL    HW133504  14.350  13.304   5.904
43869SOL    HW233505  14.399  13.439   5.953
43870SOL     OW33506  13.812   1.545  13.314
43870SOL    HW133507  13.788   1.597  13.237
43870SOL    HW233508  13.803   1.605  13.387
43871SOL     OW33509  11.596  11.276  12.570
43871SOL    HW133510  11.643  11.340  12.622
43871SOL    HW233511  11.507  11.310  12.564
43872SOL     OW33512   9.137  13.162  13.723
43872SOL    HW133513   9.079  13.175  13.798
43872SOL    HW233514   9.164  13.250  13.698
43873SOL     OW33515   7.988   3.440   6.680
43873SOL    HW133516   8.041   3.373   6.637
43873SOL    HW233517   7.954   3.493   6.608
43874SOL     OW33518   5.956   7.868   9.432
43874SOL    HW133519   5.937   7.935   9.366
43874SOL    HW233520   5.920   7.787   9.395
43875SOL     OW33521   4.181   4.011  10.123
43875SOL    HW133522   4.143   4.049  10.202
43875SOL    HW233523   4.197   3.919  10.146
43876SOL     OW33524  12.482   9.886  12.339
43876SOL    HW133525  12.436   9.916  12.417
43876SOL    HW233526  12.553   9.949  12.327
43877SOL     OW33527  12.471   6.780  10.099
43877SOL    HW133528  12.448   6.732  10.179
43877SOL    HW233529  12.390   6.781  10.048
43878SOL     OW33530  11.148   5.375   9.187
43878SOL    HW133531  11.127   5.357   9.096
43878SOL    HW233532  11.069   5.416   9.223
43879SOL     OW33533   5.680   8.151   2.861
43879SOL    HW133534   5.748   8.123   2.801
43879SOL    HW233535   5.621   8.076   2.868
43880SOL     OW33536  13.417  13.866  13.621
43880SOL    HW133537  13.464  13.911  13.691
43880SOL    HW233538  13.403  13.933  13.554
43881SOL     OW33539   1.132   3.138  12.456
43881SOL    HW133540   1.130   3.121  12.551
43881SOL    HW233541   1.203   3.083  12.424
43882SOL     OW33542   1.586  13.387  14.333
43882SOL    HW133543   1.547  13.466  14.370
43882SOL    HW233544   1.597  13.328  14.408
43883SOL     OW33545  13.789   9.842   8.028
43883SOL    HW133546  13.772   9.800   8.112
43883SOL    HW233547  13.882   9.829   8.013
43884SOL     OW33548  13.058  14.341  13.538
43884SOL    HW133549  13.123  14.348  13.608
43884SOL    HW233550  13.061  14.426  13.494
43885SOL     OW33551   5.837   4.130   9.975
43885SOL    HW133552   5.767   4.154  10.035
43885SOL    HW233553   5.906   4.093  10.031
43886SOL     OW33554   1.914   0.554   0.503
43886SOL    HW133555   1.878   0.637   0.533
43886SOL    HW233556   1.840   0.508   0.463
43887SOL     OW33557  13.035  12.862   6.589
43887SOL    HW133558  13.007  12.859   6.680
43887SOL    HW233559  12.978  12.928   6.548
43888SOL     OW33560   5.584   6.926  12.241
43888SOL    HW133561   5.657   6.876  12.206
43888SOL    HW233562   5.568   6.888  12.328
43889SOL     OW33563   8.328   5.230   9.530
43889SOL    HW133564   8.418   5.262   9.531
43889SOL    HW233565   8.282   5.289   9.470
43890SOL     OW33566   1.169  12.594   8.404
43890SOL    HW133567   1.079  12.564   8.409
43890SOL    HW233568   1.162  12.688   8.384
43891SOL     OW33569  14.287  13.040   8.557
43891SOL    HW133570  14.200  13.006   8.539
43891SOL    HW233571  14.346  12.969   8.531
43892SOL     OW33572  11.191  10.558   7.150
43892SOL    HW133573  11.186  10.506   7.231
43892SOL    HW233574  11.279  10.594   7.151
43893SOL     OW33575   3.739   3.268  11.512
43893SOL    HW133576   3.693   3.305  11.587
43893SOL    HW233577   3.743   3.174  11.531
43894SOL     OW33578   9.790   4.084   8.260
43894SOL    HW133579   9.697   4.076   8.278
43894SOL    HW233580   9.796   4.144   8.186
43895SOL     OW33581   7.030   0.028   1.061
43895SOL    HW133582   7.104   0.058   1.115
43895SOL    HW233583   6.981  14.850   1.118
43896SOL     OW33584   2.919   4.326   2.717
43896SOL    HW133585   2.986   4.279   2.766
43896SOL    HW233586   2.927   4.417   2.746
43897SOL     OW33587   1.598   3.382   7.600
43897SOL    HW133588   1.606   3.437   7.678
43897SOL    HW233589   1.506   3.357   7.597
43898SOL     OW33590   6.862  12.039  12.469
43898SOL    HW133591   6.777  12.032  12.514
43898SOL    HW233592   6.909  12.106  12.519
43899SOL     OW33593   8.562  12.474   4.204
43899SOL    HW133594   8.548  12.403   4.267
43899SOL    HW233595   8.480  12.522   4.204
43900SOL     OW33596  14.596   0.424  10.499
43900SOL    HW133597  14.593   0.333  10.526
43900SOL    HW233598  14.597   0.473  10.581
43901SOL     OW33599   0.969  12.483   3.977
43901SOL    HW133600   0.932  12.489   4.065
43901SOL    HW233601   0.955  12.570   3.940
43902SOL     OW33602   0.586   1.850   5.314
43902SOL    HW133603   0.623   1.892   5.236
43902SOL    HW233604   0.655   1.790   5.343
43903SOL     OW33605   6.406  10.201   4.778
43903SOL    HW133606   6.395  10.145   4.854
43903SOL    HW233607   6.321  10.243   4.766
43904SOL     OW33608   5.265   9.724   6.355
43904SOL    HW133609   5.218   9.643   6.374
43904SOL    HW233610   5.252   9.778   6.433
43905SOL     OW33611  11.954   8.044   6.064
43905SOL    HW133612  11.983   8.127   6.029
43905SOL    HW233613  12.031   8.008   6.107
43906SOL     OW33614   6.361   3.540   4.666
43906SOL    HW133615   6.324   3.489   4.595
43906SOL    HW233616   6.298   3.612   4.679
43907SOL     OW33617   3.799   8.661   2.328
43907SOL    HW133618   3.892   8.656   2.350
43907SOL    HW233619   3.780   8.577   2.285
43908SOL     OW33620   7.053   1.718   6.367
43908SOL    HW133621   6.957   1.719   6.374
43908SOL    HW233622   7.079   1.809   6.384
43909SOL     OW33623   1.915   1.325   6.067
43909SOL    HW133624   1.967   1.315   5.987
43909SOL    HW233625   1.953   1.402   6.111
43910SOL     OW33626   5.638  14.338   6.234
43910SOL    HW133627   5.572  14.268   6.241
43910SOL    HW233628   5.597  14.414   6.274
43911SOL     OW33629   8.318   0.789  13.029
43911SOL    HW133630   8.280   0.723  12.972
43911SOL    HW233631   8.355   0.740  13.102
43912SOL     OW33632   9.062   1.299   7.971
43912SOL    HW133633   9.081   1.374   8.027
43912SOL    HW233634   9.092   1.325   7.884
43913SOL     OW33635   0.566   6.232   1.321
43913SOL    HW133636   0.481   6.266   1.292
43913SOL    HW233637   0.630   6.298   1.292
43914SOL     OW33638  14.430   2.890   7.904
43914SOL    HW133639  14.406   2.939   7.982
43914SOL    HW233640  14.382   2.808   7.911
43915SOL     OW33641   0.620   1.399   4.865
43915SOL    HW133642   0.550   1.391   4.799
43915SOL    HW233643   0.663   1.481   4.844
43916SOL     OW33644   4.014   1.588   7.535
43916SOL    HW133645   4.109   1.595   7.528
43916SOL    HW233646   3.993   1.630   7.618
43917SOL     OW33647   5.973   5.056   0.309
43917SOL    HW133648   5.949   5.001   0.234
43917SOL    HW233649   5.997   4.994   0.378
43918SOL     OW33650   2.578   4.654  14.777
43918SOL    HW133651   2.566   4.698  14.693
43918SOL    HW233652   2.673   4.639  14.783
43919SOL     OW33653  11.702   8.712   8.603
43919SOL    HW133654  11.673   8.627   8.569
43919SOL    HW233655  11.761   8.690   8.675
43920SOL     OW33656   4.889   1.132   0.804
43920SOL    HW133657   4.967   1.183   0.827
43920SOL    HW233658   4.831   1.141   0.879
43921SOL     OW33659   4.848   1.209   1.884
43921SOL    HW133660   4.844   1.295   1.843
43921SOL    HW233661   4.762   1.198   1.924
43922SOL     OW33662   3.654  11.002   2.694
43922SOL    HW133663   3.597  10.925   2.700
43922SOL    HW233664   3.630  11.056   2.769
43923SOL     OW33665  10.412   7.544  13.937
43923SOL    HW133666  10.477   7.474  13.933
43923SOL    HW233667  10.390   7.550  14.030
43924SOL     OW33668   9.057   7.514   7.071
43924SOL    HW133669   9.059   7.490   6.978
43924SOL    HW233670   9.124   7.582   7.079
43925SOL     OW33671   0.149  10.174   9.222
43925SOL    HW133672   0.135  10.262   9.187
43925SOL    HW233673   0.202  10.130   9.156
43926SOL     OW33674   3.868   4.801   7.645
43926SOL    HW133675   3.916   4.863   7.699
43926SOL    HW233676   3.805   4.856   7.597
43927SOL     OW33677  10.124  13.991   5.019
43927SOL    HW133678  10.132  13.976   4.925
43927SOL    HW233679  10.055  13.931   5.047
43928SOL     OW33680   4.615  12.991   9.629
43928SOL    HW133681   4.686  13.056   9.627
43928SOL    HW233682   4.537  13.040   9.600
43929SOL     OW33683   0.207   0.955   7.956
43929SOL    HW133684   0.239   0.981   7.869
43929SOL    HW233685   0.169   1.035   7.992
43930SOL     OW33686   9.248   2.583   1.247
43930SOL    HW133687   9.250   2.660   1.190
43930SOL    HW233688   9.265   2.618   1.335
43931SOL     OW33689   0.344   7.694  14.820
43931SOL    HW133690   0.280   7.753  14.859
43931SOL    HW233691   0.292   7.624  14.780
43932SOL     OW33692   4.682   9.448   2.005
43932SOL    HW133693   4.590   9.452   1.978
43932SOL    HW233694   4.724   9.394   1.938
43933SOL     OW33695  13.330  12.191  12.339
43933SOL    HW133696  13.327  12.130  12.413
43933SOL    HW233697  13.258  12.163  12.283
43934SOL     OW33698   1.174   1.201   8.914
43934SOL    HW133699   1.192   1.200   8.820
43934SOL    HW233700   1.092   1.152   8.923
43935SOL     OW33701  14.632   6.522   1.967
43935SOL    HW133702  14.708   6.466   1.982
43935SOL    HW233703  14.563   6.461   1.941
43936SOL     OW33704   4.614   3.589   9.473
43936SOL    HW133705   4.645   3.668   9.518
43936SOL    HW233706   4.526   3.611   9.442
43937SOL     OW33707   3.072  12.101   7.996
43937SOL    HW133708   3.034  12.078   7.911
43937SOL    HW233709   3.147  12.156   7.974
43938SOL     OW33710   3.667   0.959  11.770
43938SOL    HW133711   3.690   1.021  11.701
43938SOL    HW233712   3.708   0.994  11.849
43939SOL     OW33713   4.120   3.982   8.105
43939SOL    HW133714   4.033   3.948   8.125
43939SOL    HW233715   4.143   4.034   8.182
43940SOL     OW33716  11.781  11.992   8.208
43940SOL    HW133717  11.802  12.023   8.296
43940SOL    HW233718  11.849  12.031   8.152
43941SOL     OW33719  14.503   0.068  12.975
43941SOL    HW133720  14.430   0.007  12.975
43941SOL    HW233721  14.544   0.057  13.061
43942SOL     OW33722  10.219  12.383   3.566
43942SOL    HW133723  10.144  12.331   3.593
43942SOL    HW233724  10.288  12.319   3.548
43943SOL     OW33725  10.334  10.756  14.603
43943SOL    HW133726  10.304  10.799  14.523
43943SOL    HW233727  10.428  10.741  14.588
43944SOL     OW33728   8.203   7.661   6.821
43944SOL    HW133729   8.167   7.736   6.869
43944SOL    HW233730   8.297   7.664   6.838
43945SOL     OW33731   0.860  12.152  12.667
43945SOL    HW133732   0.772  12.176  12.637
43945SOL    HW233733   0.849  12.134  12.760
43946SOL     OW33734   6.263   5.812  10.541
43946SOL    HW133735   6.334   5.871  10.517
43946SOL    HW233736   6.188   5.870  10.556
43947SOL     OW33737   7.631  12.655   0.101
43947SOL    HW133738   7.567  12.726   0.094
43947SOL    HW233739   7.610  12.612   0.184
43948SOL     OW33740   6.585   0.400   2.498
43948SOL    HW133741   6.605   0.413   2.591
43948SOL    HW233742   6.489   0.396   2.495
43949SOL     OW33743   2.347  11.470   1.889
43949SOL    HW133744   2.390  11.503   1.968
43949SOL    HW233745   2.418  11.462   1.825
43950SOL     OW33746   8.868   6.331   5.106
43950SOL    HW133747   8.790   6.309   5.054
43950SOL    HW233748   8.852   6.420   5.136
43951SOL     OW33749   6.791   5.408   9.049
43951SOL    HW133750   6.712   5.458   9.071
43951SOL    HW233751   6.859   5.445   9.106
43952SOL     OW33752  10.951   8.608  11.013
43952SOL    HW133753  10.992   8.543  11.070
43952SOL    HW233754  10.936   8.683  11.070
43953SOL     OW33755   7.512  14.392  13.499
43953SOL    HW133756   7.519  14.370  13.406
43953SOL    HW233757   7.420  14.416  13.510
43954SOL     OW33758   8.541   5.737  10.015
43954SOL    HW133759   8.539   5.739  10.111
43954SOL    HW233760   8.450   5.720   9.990
43955SOL     OW33761   8.908   6.162   2.727
43955SOL    HW133762   8.994   6.203   2.732
43955SOL    HW233763   8.853   6.216   2.784
43956SOL     OW33764   1.338  11.439   1.079
43956SOL    HW133765   1.267  11.405   1.024
43956SOL    HW233766   1.408  11.374   1.070
43957SOL     OW33767  11.158   9.200   3.776
43957SOL    HW133768  11.103   9.154   3.840
43957SOL    HW233769  11.232   9.231   3.828
43958SOL     OW33770   4.924  12.530   4.049
43958SOL    HW133771   4.872  12.599   4.091
43958SOL    HW233772   4.971  12.488   4.121
43959SOL     OW33773   1.498  11.765   8.403
43959SOL    HW133774   1.404  11.774   8.418
43959SOL    HW233775   1.505  11.723   8.317
43960SOL     OW33776  13.435   5.520   8.404
43960SOL    HW133777  13.417   5.614   8.392
43960SOL    HW233778  13.367   5.490   8.464
43961SOL     OW33779   8.578  11.616   2.625
43961SOL    HW133780   8.533  11.653   2.701
43961SOL    HW233781   8.509  11.575   2.574
43962SOL     OW33782  10.751   7.354   8.132
43962SOL    HW133783  10.767   7.262   8.113
43962SOL    HW233784  10.793   7.401   8.060
43963SOL     OW33785   9.348  10.923  11.570
43963SOL    HW133786   9.327  10.879  11.487
43963SOL    HW233787   9.279  10.988  11.581
43964SOL     OW33788   6.413   4.287  13.922
43964SOL    HW133789   6.461   4.225  13.867
43964SOL    HW233790   6.360   4.338  13.861
43965SOL     OW33791  12.308  14.007   7.115
43965SOL    HW133792  12.314  13.949   7.191
43965SOL    HW233793  12.229  14.058   7.129
43966SOL     OW33794   2.607   0.681   1.760
43966SOL    HW133795   2.559   0.666   1.678
43966SOL    HW233796   2.689   0.723   1.732
43967SOL     OW33797  12.646   3.136   9.920
43967SOL    HW133798  12.722   3.141   9.977
43967SOL    HW233799  12.603   3.054   9.943
43968SOL     OW33800  13.467  12.589   7.516
43968SOL    HW133801  13.465  12.681   7.539
43968SOL    HW233802  13.529  12.550   7.578
43969SOL     OW33803   7.064  12.547   3.288
43969SOL    HW133804   7.077  12.601   3.366
43969SOL    HW233805   7.153  12.530   3.256
43970SOL     OW33806   5.987   7.852   1.071
43970SOL    HW133807   5.902   7.876   1.035
43970SOL    HW233808   6.012   7.772   1.024
43971SOL     OW33809   1.666   5.025  13.966
43971SOL    HW133810   1.628   5.051  14.051
43971SOL    HW233811   1.648   4.931  13.960
43972SOL     OW33812   2.809   8.495  11.069
43972SOL    HW133813   2.815   8.445  10.988
43972SOL    HW233814   2.865   8.447  11.130
43973SOL     OW33815  11.843   8.765  12.588
43973SOL    HW133816  11.776   8.759  12.656
43973SOL    HW233817  11.926   8.749  12.633
43974SOL     OW33818   4.473  10.146   5.403
43974SOL    HW133819   4.487  10.240   5.395
43974SOL    HW233820   4.391  10.137   5.452
43975SOL     OW33821   9.551   4.639   2.282
43975SOL    HW133822   9.577   4.616   2.193
43975SOL    HW233823   9.483   4.575   2.304
43976SOL     OW33824   3.518  12.304  14.559
43976SOL    HW133825   3.551  12.386  14.523
43976SOL    HW233826   3.426  12.301  14.532
43977SOL     OW33827  14.843   0.022  11.036
43977SOL    HW133828  14.861  14.850  10.957
43977SOL    HW233829  14.860   0.112  11.010
43978SOL     OW33830   9.552   6.761   9.007
43978SOL    HW133831   9.595   6.702   8.945
43978SOL    HW233832   9.465   6.723   9.019
43979SOL     OW33833   1.648   0.024   7.019
43979SOL    HW133834   1.726   0.019   6.964
43979SOL    HW233835   1.681   0.009   7.108
43980SOL     OW33836  12.525  13.333   1.859
43980SOL    HW133837  12.546  13.246   1.824
43980SOL    HW233838  12.578  13.341   1.938
43981SOL     OW33839   1.367   0.776   7.530
43981SOL    HW133840   1.379   0.771   7.435
43981SOL    HW233841   1.317   0.857   7.543
43982SOL     OW33842   8.723   2.653   3.100
43982SOL    HW133843   8.764   2.722   3.048
43982SOL    HW233844   8.665   2.608   3.039
43983SOL     OW33845   9.972   3.521  10.339
43983SOL    HW133846   9.886   3.513  10.382
43983SOL    HW233847  10.014   3.595  10.384
43984SOL     OW33848  14.786   2.431  14.059
43984SOL    HW133849  14.869   2.438  14.106
43984SOL    HW233850  14.768   2.521  14.031
43985SOL     OW33851  12.282  11.271  11.015
43985SOL    HW133852  12.249  11.284  10.926
43985SOL    HW233853  12.248  11.185  11.041
43986SOL     OW33854   1.461   0.010  10.514
43986SOL    HW133855   1.403   0.021  10.439
43986SOL    HW233856   1.435  14.806  10.552
43987SOL     OW33857   0.689   4.924   1.762
43987SOL    HW133858   0.763   4.912   1.702
43987SOL    HW233859   0.686   5.019   1.777
43988SOL     OW33860   1.894  11.091   6.851
43988SOL    HW133861   1.877  11.056   6.938
43988SOL    HW233862   1.907  11.185   6.865
43989SOL     OW33863   3.454   1.765  11.461
43989SOL    HW133864   3.426   1.711  11.535
43989SOL    HW233865   3.440   1.710  11.384
43990SOL     OW33866   2.296  13.255   3.651
43990SOL    HW133867   2.378  13.297   3.676
43990SOL    HW233868   2.296  13.172   3.699
43991SOL     OW33869  12.447   0.795  13.244
43991SOL    HW133870  12.542   0.804  13.246
43991SOL    HW233871  12.432   0.704  13.272
43992SOL     OW33872   8.551  10.317   8.215
43992SOL    HW133873   8.644  10.317   8.235
43992SOL    HW233874   8.537  10.398   8.166
43993SOL     OW33875   2.366   8.925  12.894
43993SOL    HW133876   2.448   8.973  12.906
43993SOL    HW233877   2.382   8.839  12.932
43994SOL     OW33878   8.601   5.779   0.058
43994SOL    HW133879   8.680   5.832   0.049
43994SOL    HW233880   8.532   5.831   0.018
43995SOL     OW33881   2.140  10.747   8.769
43995SOL    HW133882   2.134  10.687   8.844
43995SOL    HW233883   2.072  10.812   8.785
43996SOL     OW33884   3.821   9.234  10.132
43996SOL    HW133885   3.858   9.255  10.046
43996SOL    HW233886   3.841   9.310  10.186
43997SOL     OW33887  10.922   9.880   1.411
43997SOL    HW133888  10.960   9.910   1.329
43997SOL    HW233889  10.900   9.788   1.395
43998SOL     OW33890   2.375   7.444   1.086
43998SOL    HW133891   2.397   7.531   1.121
43998SOL    HW233892   2.431   7.385   1.136
43999SOL     OW33893   3.370  10.340   2.562
43999SOL    HW133894   3.277  10.324   2.578
43999SOL    HW233895   3.375  10.360   2.469
44000SOL     OW33896  12.357  13.373  13.756
44000SOL    HW133897  12.380  13.353  13.847
44000SOL    HW233898  12.287  13.311  13.735
44001SOL     OW33899  13.814   7.317   5.680
44001SOL    HW133900  13.888   7.365   5.717
44001SOL    HW233901  13.849   7.231   5.658
44002SOL     OW33902   3.998  14.391  11.499
44002SOL    HW133903   4.092  14.386  11.480
44002SOL    HW233904   3.972  14.301  11.517
44003SOL     OW33905  10.684  10.921  14.019
44003SOL    HW133906  10.733  10.932  13.938
44003SOL    HW233907  10.710  10.835  14.051
44004SOL     OW33908  13.703  12.126   5.472
44004SOL    HW133909  13.746  12.185   5.410
44004SOL    HW233910  13.630  12.089   5.422
44005SOL     OW33911   9.771   9.035   3.969
44005SOL    HW133912   9.811   8.949   3.978
44005SOL    HW233913   9.678   9.020   3.983
44006SOL     OW33914  11.515  12.425  14.531
44006SOL    HW133915  11.503  12.500  14.473
44006SOL    HW233916  11.431  12.380  14.530
44007SOL     OW33917   0.666   3.718  12.342
44007SOL    HW133918   0.722   3.782  12.298
44007SOL    HW233919   0.666   3.642  12.285
44008SOL     OW33920   0.342   8.102  11.813
44008SOL    HW133921   0.369   8.042  11.883
44008SOL    HW233922   0.415   8.098  11.751
44009SOL     OW33923   2.913  14.022   7.875
44009SOL    HW133924   3.000  14.010   7.839
44009SOL    HW233925   2.925  14.083   7.948
44010SOL     OW33926  14.683  14.131   1.072
44010SOL    HW133927  14.609  14.108   1.128
44010SOL    HW233928  14.686  14.227   1.075
44011SOL     OW33929   7.654   6.782  12.944
44011SOL    HW133930   7.566   6.749  12.925
44011SOL    HW233931   7.690   6.805  12.859
44012SOL     OW33932   6.435   6.173  11.725
44012SOL    HW133933   6.516   6.210  11.689
44012SOL    HW233934   6.379   6.160  11.648
44013SOL     OW33935   3.672   7.935   7.350
44013SOL    HW133936   3.584   7.936   7.388
44013SOL    HW233937   3.729   7.912   7.423
44014SOL     OW33938   0.297  10.948   3.338
44014SOL    HW133939   0.211  10.932   3.377
44014SOL    HW233940   0.286  11.029   3.288
44015SOL     OW33941  10.157  13.573   4.731
44015SOL    HW133942  10.190  13.490   4.697
44015SOL    HW233943  10.065  13.574   4.705
44016SOL     OW33944  12.940  14.034   4.016
44016SOL    HW133945  12.966  14.083   4.094
44016SOL    HW233946  12.856  14.072   3.990
44017SOL     OW33947   1.428   7.374   9.316
44017SOL    HW133948   1.367   7.409   9.381
44017SOL    HW233949   1.373   7.351   9.241
44018SOL     OW33950   0.465   6.981   1.350
44018SOL    HW133951   0.485   6.976   1.257
44018SOL    HW233952   0.550   6.979   1.394
44019SOL     OW33953  13.644   0.543  14.115
44019SOL    HW133954  13.669   0.592  14.036
44019SOL    HW233955  13.550   0.531  14.107
44020SOL     OW33956  11.243  10.798   0.783
44020SOL    HW133957  11.216  10.731   0.844
44020SOL    HW233958  11.168  10.858   0.777
44021SOL     OW33959   8.101   8.243   1.946
44021SOL    HW133960   8.022   8.227   1.998
44021SOL    HW233961   8.082   8.205   1.861
44022SOL     OW33962   8.557   0.941   7.568
44022SOL    HW133963   8.612   0.986   7.633
44022SOL    HW233964   8.526   0.862   7.612
44023SOL     OW33965  13.585  14.165   9.846
44023SOL    HW133966  13.563  14.192   9.757
44023SOL    HW233967  13.606  14.072   9.839
44024SOL     OW33968   3.823  14.555   3.950
44024SOL    HW133969   3.795  14.577   3.861
44024SOL    HW233970   3.872  14.632   3.979
44025SOL     OW33971   2.460   2.523  13.429
44025SOL    HW133972   2.387   2.487  13.379
44025SOL    HW233973   2.437   2.507  13.521
44026SOL     OW33974  14.415   4.759  11.144
44026SOL    HW133975  14.358   4.688  11.171
44026SOL    HW233976  14.418   4.752  11.048
44027SOL     OW33977   0.598   4.420   3.652
44027SOL    HW133978   0.587   4.514   3.638
44027SOL    HW233979   0.529   4.380   3.601
44028SOL     OW33980   5.135   1.228   0.929
44028SOL    HW133981   5.113   1.312   0.970
44028SOL    HW233982   5.190   1.184   0.993
44029SOL     OW33983  10.504   1.588   0.948
44029SOL    HW133984  10.589   1.565   0.984
44029SOL    HW233985  10.523   1.655   0.882
44030SOL     OW33986   4.137   5.788   5.735
44030SOL    HW133987   4.111   5.786   5.643
44030SOL    HW233988   4.206   5.855   5.739
44031SOL     OW33989   2.750   2.091   4.793
44031SOL    HW133990   2.839   2.057   4.799
44031SOL    HW233991   2.761   2.186   4.795
44032SOL     OW33992   3.420  14.165   0.901
44032SOL    HW133993   3.457  14.229   0.962
44032SOL    HW233994   3.435  14.203   0.815
44033SOL     OW33995   8.607   5.303  12.512
44033SOL    HW133996   8.577   5.283  12.424
44033SOL    HW233997   8.527   5.321  12.561
44034SOL     OW33998  12.130   0.826   7.411
44034SOL    HW133999  12.158   0.877   7.487
44034SOL    HW234000  12.090   0.890   7.352
44035SOL     OW34001   2.467   9.944  10.241
44035SOL    HW134002   2.544   9.904  10.201
44035SOL    HW234003   2.414   9.870  10.270
44036SOL     OW34004  13.001   0.884  10.340
44036SOL    HW134005  13.036   0.880  10.429
44036SOL    HW234006  12.911   0.915  10.351
44037SOL     OW34007   2.071   8.355  14.702
44037SOL    HW134008   2.145   8.416  14.690
44037SOL    HW234009   2.005   8.386  14.641
44038SOL     OW34010  10.895  12.125   6.475
44038SOL    HW134011  10.899  12.180   6.553
44038SOL    HW234012  10.984  12.123   6.442
44039SOL     OW34013   5.349   5.158   5.313
44039SOL    HW134014   5.386   5.175   5.400
44039SOL    HW234015   5.367   5.065   5.297
44040SOL     OW34016   6.838   8.870   2.430
44040SOL    HW134017   6.748   8.838   2.422
44040SOL    HW234018   6.828   8.961   2.460
44041SOL     OW34019   8.483   0.545  10.792
44041SOL    HW134020   8.531   0.558  10.711
44041SOL    HW234021   8.397   0.515  10.764
44042SOL     OW34022  12.682   6.660   5.878
44042SOL    HW134023  12.678   6.573   5.917
44042SOL    HW234024  12.592   6.691   5.878
44043SOL     OW34025   7.644  11.245   9.337
44043SOL    HW134026   7.647  11.307   9.264
44043SOL    HW234027   7.592  11.171   9.304
44044SOL     OW34028   1.698   4.588  11.019
44044SOL    HW134029   1.613   4.572  11.062
44044SOL    HW234030   1.675   4.612  10.929
44045SOL     OW34031   8.857   0.541  11.417
44045SOL    HW134032   8.789   0.561  11.352
44045SOL    HW234033   8.908   0.471  11.376
44046SOL     OW34034  14.525   1.940   6.365
44046SOL    HW134035  14.612   1.952   6.404
44046SOL    HW234036  14.465   1.981   6.427
44047SOL     OW34037  13.388   6.749   0.463
44047SOL    HW134038  13.319   6.814   0.446
44047SOL    HW234039  13.341   6.671   0.491
44048SOL     OW34040   0.154   2.398   7.895
44048SOL    HW134041   0.111   2.371   7.976
44048SOL    HW234042   0.082   2.416   7.835
44049SOL     OW34043   5.001   1.920  12.434
44049SOL    HW134044   5.038   1.923  12.523
44049SOL    HW234045   5.004   2.010  12.404
44050SOL     OW34046  13.959  10.761  10.401
44050SOL    HW134047  13.959  10.857  10.391
44050SOL    HW234048  14.030  10.744  10.463
44051SOL     OW34049  11.011   8.577   3.928
44051SOL    HW134050  11.069   8.506   3.956
44051SOL    HW234051  10.923   8.546   3.951
44052SOL     OW34052  12.652   2.204   6.054
44052SOL    HW134053  12.694   2.228   6.136
44052SOL    HW234054  12.590   2.275   6.037
44053SOL     OW34055   1.604   8.027   0.232
44053SOL    HW134056   1.591   8.045   0.139
44053SOL    HW234057   1.542   7.956   0.252
44054SOL     OW34058   2.725  10.456   4.803
44054SOL    HW134059   2.797  10.422   4.750
44054SOL    HW234060   2.661  10.384   4.804
44055SOL     OW34061   5.563   5.273   2.340
44055SOL    HW134062   5.494   5.316   2.290
44055SOL    HW234063   5.621   5.235   2.274
44056SOL     OW34064  12.188   6.726   2.018
44056SOL    HW134065  12.277   6.698   2.040
44056SOL    HW234066  12.160   6.664   1.951
44057SOL     OW34067   2.748   7.355  14.113
44057SOL    HW134068   2.837   7.388  14.123
44057SOL    HW234069   2.730   7.362  14.019
44058SOL     OW34070  12.716  13.974  14.579
44058SOL    HW134071  12.625  13.948  14.587
44058SOL    HW234072  12.718  14.033  14.504
44059SOL     OW34073   9.913   9.896   3.265
44059SOL    HW134074   9.823   9.928   3.262
44059SOL    HW234075   9.913   9.821   3.205
44060SOL     OW34076   5.966  13.439   0.661
44060SOL    HW134077   5.970  13.513   0.721
44060SOL    HW234078   5.997  13.473   0.577
44061SOL     OW34079   7.465   6.148   1.868
44061SOL    HW134080   7.423   6.099   1.797
44061SOL    HW234081   7.394   6.194   1.911
44062SOL     OW34082   9.713   3.382  12.235
44062SOL    HW134083   9.646   3.342  12.291
44062SOL    HW234084   9.758   3.307  12.196
44063SOL     OW34085  13.513  13.084   2.677
44063SOL    HW134086  13.486  13.134   2.600
44063SOL    HW234087  13.509  13.147   2.749
44064SOL     OW34088   3.839   0.020  10.173
44064SOL    HW134089   3.901  14.878  10.103
44064SOL    HW234090   3.889   0.076  10.233
44065SOL     OW34091  10.793  10.982   1.865
44065SOL    HW134092  10.856  10.964   1.794
44065SOL    HW234093  10.714  11.011   1.820
44066SOL     OW34094  11.621   2.872   1.508
44066SOL    HW134095  11.548   2.895   1.565
44066SOL    HW234096  11.644   2.783   1.533
44067SOL     OW34097   5.632   4.157   4.495
44067SOL    HW134098   5.578   4.095   4.544
44067SOL    HW234099   5.675   4.210   4.561
44068SOL     OW34100  13.147   5.745   3.291
44068SOL    HW134101  13.160   5.676   3.356
44068SOL    HW234102  13.161   5.702   3.207
44069SOL     OW34103   1.269   7.078   8.566
44069SOL    HW134104   1.262   6.984   8.584
44069SOL    HW234105   1.262   7.119   8.652
44070SOL     OW34106   2.803   8.738   1.276
44070SOL    HW134107   2.874   8.675   1.266
44070SOL    HW234108   2.746   8.700   1.342
44071SOL     OW34109   8.443   5.410  10.457
44071SOL    HW134110   8.463   5.326  10.416
44071SOL    HW234111   8.397   5.459  10.389
44072SOL     OW34112   7.656   5.045   9.317
44072SOL    HW134113   7.697   5.071   9.234
44072SOL    HW234114   7.599   5.119   9.339
44073SOL     OW34115   5.699   0.579   1.409
44073SOL    HW134116   5.709   0.654   1.350
44073SOL    HW234117   5.785   0.568   1.450
44074SOL     OW34118   6.278   7.740   8.071
44074SOL    HW134119   6.357   7.689   8.051
44074SOL    HW234120   6.289   7.766   8.162
44075SOL     OW34121   5.017   3.049  11.093
44075SOL    HW134122   4.949   3.113  11.116
44075SOL    HW234123   5.097   3.100  11.087
44076SOL     OW34124   2.649   3.485  11.049
44076SOL    HW134125   2.675   3.394  11.038
44076SOL    HW234126   2.628   3.515  10.961
44077SOL     OW34127   1.030   3.165  10.611
44077SOL    HW134128   1.072   3.246  10.583
44077SOL    HW234129   1.023   3.113  10.532
44078SOL     OW34130   7.820  10.335   0.845
44078SOL    HW134131   7.869  10.353   0.925
44078SOL    HW234132   7.864  10.387   0.777
44079SOL     OW34133  13.577  11.845   3.944
44079SOL    HW134134  13.509  11.796   3.991
44079SOL    HW234135  13.557  11.937   3.963
44080SOL     OW34136  14.604  12.921   5.038
44080SOL    HW134137  14.576  12.969   4.959
44080SOL    HW234138  14.523  12.880   5.070
44081SOL     OW34139   1.236   8.866   1.606
44081SOL    HW134140   1.223   8.957   1.577
44081SOL    HW234141   1.289   8.826   1.536
44082SOL     OW34142   2.829  11.902   4.164
44082SOL    HW134143   2.880  11.865   4.091
44082SOL    HW234144   2.843  11.841   4.236
44083SOL     OW34145   5.340   2.485  13.060
44083SOL    HW134146   5.421   2.532  13.082
44083SOL    HW234147   5.358   2.394  13.080
44084SOL     OW34148   2.746   6.722   5.619
44084SOL    HW134149   2.832   6.751   5.650
44084SOL    HW234150   2.743   6.628   5.639
44085SOL     OW34151   0.596  13.605   9.966
44085SOL    HW134152   0.670  13.664   9.978
44085SOL    HW234153   0.572  13.579  10.055
44086SOL     OW34154   0.400   7.757  12.023
44086SOL    HW134155   0.485   7.746  12.066
44086SOL    HW234156   0.418   7.738  11.931
44087SOL     OW34157   0.526  10.345   0.580
44087SOL    HW134158   0.474  10.425   0.579
44087SOL    HW234159   0.469  10.280   0.620
44088SOL     OW34160  12.104  14.130  12.158
44088SOL    HW134161  12.116  14.184  12.236
44088SOL    HW234162  12.020  14.088  12.169
44089SOL     OW34163   6.954  11.977   7.183
44089SOL    HW134164   6.942  12.061   7.227
44089SOL    HW234165   6.882  11.922   7.215
44090SOL     OW34166   3.911  14.644  13.845
44090SOL    HW134167   4.004  14.633  13.868
44090SOL    HW234168   3.909  14.719  13.787
44091SOL     OW34169  11.116   7.139   0.138
44091SOL    HW134170  11.188   7.201   0.122
44091SOL    HW234171  11.122   7.076   0.067
44092SOL     OW34172  13.469   4.677   9.077
44092SOL    HW134173  13.429   4.702   8.993
44092SOL    HW234174  13.523   4.752   9.101
44093SOL     OW34175  12.298   9.296  13.689
44093SOL    HW134176  12.370   9.310  13.627
44093SOL    HW234177  12.318   9.213  13.731
44094SOL     OW34178   1.156  10.344  12.800
44094SOL    HW134179   1.186  10.330  12.710
44094SOL    HW234180   1.237  10.351  12.851
44095SOL     OW34181   3.448   9.253  14.752
44095SOL    HW134182   3.484   9.310  14.685
44095SOL    HW234183   3.490   9.168  14.736
44096SOL     OW34184   3.844  12.616  10.740
44096SOL    HW134185   3.877  12.639  10.653
44096SOL    HW234186   3.869  12.690  10.795
44097SOL     OW34187   4.786  14.020   3.890
44097SOL    HW134188   4.845  14.092   3.914
44097SOL    HW234189   4.750  13.991   3.974
44098SOL     OW34190   2.121  11.153   0.287
44098SOL    HW134191   2.047  11.125   0.340
44098SOL    HW234192   2.083  11.174   0.202
44099SOL     OW34193   9.910   8.332  13.050
44099SOL    HW134194   9.950   8.283  13.121
44099SOL    HW234195   9.854   8.396  13.093
44100SOL     OW34196   2.024   2.786   7.875
44100SOL    HW134197   2.061   2.722   7.815
44100SOL    HW234198   2.099   2.814   7.929
44101SOL     OW34199   1.743   5.400  13.977
44101SOL    HW134200   1.664   5.399  14.032
44101SOL    HW234201   1.773   5.491  13.981
44102SOL     OW34202  14.254   3.924   8.580
44102SOL    HW134203  14.312   3.848   8.587
44102SOL    HW234204  14.168   3.886   8.564
44103SOL     OW34205   8.023   2.543  12.698
44103SOL    HW134206   8.070   2.475  12.652
44103SOL    HW234207   7.933   2.536  12.667
44104SOL     OW34208   6.708   3.933   7.752
44104SOL    HW134209   6.759   3.934   7.671
44104SOL    HW234210   6.631   3.987   7.733
44105SOL     OW34211   2.683  10.033  13.218
44105SOL    HW134212   2.719   9.945  13.229
44105SOL    HW234213   2.666  10.064  13.307
44106SOL     OW34214   0.745   7.947  14.584
44106SOL    HW134215   0.718   7.972  14.495
44106SOL    HW234216   0.665   7.953  14.636
44107SOL     OW34217  10.438  13.889   2.477
44107SOL    HW134218  10.489  13.969   2.491
44107SOL    HW234219  10.491  13.837   2.416
44108SOL     OW34220   9.656   2.603   7.995
44108SOL    HW134221   9.700   2.687   7.990
44108SOL    HW234222   9.571   2.622   8.036
44109SOL     OW34223   1.724  11.409   9.823
44109SOL    HW134224   1.747  11.491   9.867
44109SOL    HW234225   1.650  11.433   9.767
44110SOL     OW34226  10.969   3.981   3.260
44110SOL    HW134227  11.054   4.009   3.293
44110SOL    HW234228  10.965   4.016   3.171
44111SOL     OW34229  13.640  11.968  12.196
44111SOL    HW134230  13.731  11.985  12.221
44111SOL    HW234231  13.628  11.874  12.209
44112SOL     OW34232  14.544  12.378   0.338
44112SOL    HW134233  14.582  12.466   0.341
44112SOL    HW234234  14.450  12.392   0.342
44113SOL     OW34235   9.296   0.343   1.358
44113SOL    HW134236   9.311   0.304   1.271
44113SOL    HW234237   9.369   0.312   1.411
44114SOL     OW34238   6.672   8.706   7.738
44114SOL    HW134239   6.723   8.628   7.759
44114SOL    HW234240   6.734   8.778   7.745
44115SOL     OW34241   5.797   3.555   4.884
44115SOL    HW134242   5.712   3.600   4.885
44115SOL    HW234243   5.775   3.464   4.905
44116SOL     OW34244   7.787   9.074   3.802
44116SOL    HW134245   7.717   9.009   3.790
44116SOL    HW234246   7.843   9.035   3.869
44117SOL     OW34247   0.597   5.293  11.493
44117SOL    HW134248   0.511   5.276  11.455
44117SOL    HW234249   0.657   5.286  11.419
44118SOL     OW34250   1.063  12.133   7.337
44118SOL    HW134251   1.143  12.103   7.380
44118SOL    HW234252   0.998  12.065   7.359
44119SOL     OW34253  14.284   3.923   4.469
44119SOL    HW134254  14.285   3.958   4.558
44119SOL    HW234255  14.330   3.988   4.417
44120SOL     OW34256  14.036   0.861  13.315
44120SOL    HW134257  14.053   0.770  13.335
44120SOL    HW234258  14.113   0.908  13.345
44121SOL     OW34259   5.942  13.545   1.220
44121SOL    HW134260   5.917  13.602   1.293
44121SOL    HW234261   5.900  13.461   1.240
44122SOL     OW34262  10.822   1.431  13.473
44122SOL    HW134263  10.747   1.421  13.531
44122SOL    HW234264  10.787   1.410  13.386
44123SOL     OW34265   2.276   4.856  10.744
44123SOL    HW134266   2.353   4.912  10.746
44123SOL    HW234267   2.220   4.889  10.815
44124SOL     OW34268  13.828   4.519  12.516
44124SOL    HW134269  13.865   4.600  12.481
44124SOL    HW234270  13.892   4.489  12.580
44125SOL     OW34271   9.597  11.053  12.054
44125SOL    HW134272   9.620  10.979  12.111
44125SOL    HW234273   9.627  11.027  11.967
44126SOL     OW34274   8.548   6.424   4.757
44126SOL    HW134275   8.606   6.440   4.683
44126SOL    HW234276   8.479   6.491   4.748
44127SOL     OW34277   8.461  12.959   4.014
44127SOL    HW134278   8.392  12.972   3.948
44127SOL    HW234279   8.464  12.864   4.026
44128SOL     OW34280   9.645   2.317   7.752
44128SOL    HW134281   9.588   2.393   7.740
44128SOL    HW234282   9.596   2.244   7.714
44129SOL     OW34283  10.771   5.423   4.062
44129SOL    HW134284  10.732   5.506   4.091
44129SOL    HW234285  10.830   5.447   3.991
44130SOL     OW34286   9.235   3.789   1.150
44130SOL    HW134287   9.208   3.738   1.074
44130SOL    HW234288   9.237   3.880   1.119
44131SOL     OW34289   6.605   4.717  12.088
44131SOL    HW134290   6.638   4.670  12.011
44131SOL    HW234291   6.521   4.676  12.106
44132SOL     OW34292  12.292   7.102   6.206
44132SOL    HW134293  12.373   7.076   6.251
44132SOL    HW234294  12.222   7.056   6.253
44133SOL     OW34295  11.392   9.340   6.752
44133SOL    HW134296  11.376   9.421   6.703
44133SOL    HW234297  11.419   9.369   6.839
44134SOL     OW34298   3.118   6.873   2.108
44134SOL    HW134299   3.125   6.887   2.202
44134SOL    HW234300   3.205   6.898   2.074
44135SOL     OW34301   4.227   7.633  12.510
44135SOL    HW134302   4.271   7.622  12.426
44135SOL    HW234303   4.159   7.699  12.493
44136SOL     OW34304   4.943   6.509   2.563
44136SOL    HW134305   5.012   6.498   2.498
44136SOL    HW234306   4.980   6.567   2.629
44137SOL     OW34307   1.267   0.960   0.233
44137SOL    HW134308   1.266   0.984   0.326
44137SOL    HW234309   1.183   0.992   0.199
44138SOL     OW34310   3.177   1.449   1.920
44138SOL    HW134311   3.249   1.400   1.959
44138SOL    HW234312   3.166   1.410   1.833
44139SOL     OW34313   8.655   1.568   4.585
44139SOL    HW134314   8.655   1.568   4.680
44139SOL    HW234315   8.576   1.618   4.561
44140SOL     OW34316   6.684   6.240   6.903
44140SOL    HW134317   6.726   6.166   6.861
44140SOL    HW234318   6.691   6.311   6.839
44141SOL     OW34319  11.619   7.238   4.924
44141SOL    HW134320  11.693   7.178   4.926
44141SOL    HW234321  11.572   7.221   5.005
44142SOL     OW34322   3.833   7.752   1.519
44142SOL    HW134323   3.825   7.657   1.526
44142SOL    HW234324   3.907   7.774   1.576
44143SOL     OW34325   3.851   7.756  13.916
44143SOL    HW134326   3.821   7.799  13.836
44143SOL    HW234327   3.865   7.828  13.978
44144SOL     OW34328  13.951   6.345  10.581
44144SOL    HW134329  13.929   6.369  10.671
44144SOL    HW234330  14.033   6.392  10.563
44145SOL     OW34331   1.399   2.404   6.723
44145SOL    HW134332   1.466   2.472   6.722
44145SOL    HW234333   1.396   2.371   6.633
44146SOL     OW34334   8.775  11.106   4.751
44146SOL    HW134335   8.802  11.020   4.721
44146SOL    HW234336   8.854  11.160   4.743
44147SOL     OW34337   0.098  13.804   2.477
44147SOL    HW134338   0.076  13.740   2.545
44147SOL    HW234339   0.074  13.761   2.396
44148SOL     OW34340   2.053  11.519  10.926
44148SOL    HW134341   2.054  11.450  10.992
44148SOL    HW234342   2.011  11.478  10.850
44149SOL     OW34343   1.510  11.069  10.901
44149SOL    HW134344   1.452  11.007  10.857
44149SOL    HW234345   1.550  11.120  10.830
44150SOL     OW34346   1.354  10.474   3.296
44150SOL    HW134347   1.430  10.420   3.320
44150SOL    HW234348   1.302  10.478   3.376
44151SOL     OW34349   9.830  12.246   0.202
44151SOL    HW134350   9.796  12.322   0.155
44151SOL    HW234351   9.838  12.178   0.136
44152SOL     OW34352  14.513   3.982   0.643
44152SOL    HW134353  14.514   3.912   0.578
44152SOL    HW234354  14.520   3.936   0.727
44153SOL     OW34355  12.003   1.924  11.238
44153SOL    HW134356  12.017   2.008  11.194
44153SOL    HW234357  12.040   1.936  11.326
44154SOL     OW34358   3.995   8.453   8.752
44154SOL    HW134359   4.013   8.510   8.827
44154SOL    HW234360   4.074   8.399   8.744
44155SOL     OW34361   1.163   0.473   3.382
44155SOL    HW134362   1.205   0.429   3.456
44155SOL    HW234363   1.076   0.498   3.415
44156SOL     OW34364  13.678  12.770   9.730
44156SOL    HW134365  13.764  12.809   9.745
44156SOL    HW234366  13.630  12.836   9.679
44157SOL     OW34367  13.528  12.279  14.602
44157SOL    HW134368  13.563  12.199  14.642
44157SOL    HW234369  13.485  12.249  14.522
44158SOL     OW34370   5.066   2.356  12.627
44158SOL    HW134371   5.147   2.362  12.678
44158SOL    HW234372   5.079   2.280  12.571
44159SOL     OW34373   6.133   6.636   0.301
44159SOL    HW134374   6.214   6.676   0.334
44159SOL    HW234375   6.163   6.571   0.237
44160SOL     OW34376   6.876   0.845   4.507
44160SOL    HW134377   6.823   0.766   4.504
44160SOL    HW234378   6.950   0.828   4.448
44161SOL     OW34379  12.646  11.771  13.429
44161SOL    HW134380  12.732  11.740  13.457
44161SOL    HW234381  12.633  11.853  13.476
44162SOL     OW34382   8.310  12.256  12.252
44162SOL    HW134383   8.224  12.243  12.213
44162SOL    HW234384   8.315  12.351  12.269
44163SOL     OW34385   4.589  11.316   5.315
44163SOL    HW134386   4.656  11.382   5.336
44163SOL    HW234387   4.530  11.360   5.253
44164SOL     OW34388  14.652   4.409  11.109
44164SOL    HW134389  14.715   4.342  11.137
44164SOL    HW234390  14.630   4.456  11.189
44165SOL     OW34391   2.472   6.468   6.289
44165SOL    HW134392   2.378   6.448   6.283
44165SOL    HW234393   2.503   6.462   6.198
44166SOL     OW34394   9.525   4.284  10.701
44166SOL    HW134395   9.465   4.252  10.768
44166SOL    HW234396   9.539   4.208  10.644
44167SOL     OW34397  13.660  10.487  14.269
44167SOL    HW134398  13.578  10.520  14.232
44167SOL    HW234399  13.720  10.562  14.263
44168SOL     OW34400   8.117  13.811   7.770
44168SOL    HW134401   8.057  13.847   7.835
44168SOL    HW234402   8.116  13.874   7.698
44169SOL     OW34403   2.342  14.680   9.895
44169SOL    HW134404   2.248  14.665   9.882
44169SOL    HW234405   2.382  14.653   9.812
44170SOL     OW34406  12.897   4.618  10.024
44170SOL    HW134407  12.916   4.548   9.961
44170SOL    HW234408  12.978   4.668  10.030
44171SOL     OW34409   7.990   8.381  10.299
44171SOL    HW134410   8.048   8.350  10.229
44171SOL    HW234411   7.906   8.398  10.256
44172SOL     OW34412   3.359   6.626  13.321
44172SOL    HW134413   3.368   6.578  13.239
44172SOL    HW234414   3.429   6.692  13.319
44173SOL     OW34415  10.884   4.879  11.947
44173SOL    HW134416  10.940   4.892  11.870
44173SOL    HW234417  10.934   4.820  12.003
44174SOL     OW34418  14.164   1.364   6.164
44174SOL    HW134419  14.236   1.377   6.225
44174SOL    HW234420  14.139   1.272   6.175
44175SOL     OW34421   1.257   2.806   2.746
44175SOL    HW134422   1.342   2.848   2.753
44175SOL    HW234423   1.274   2.725   2.699
44176SOL     OW34424   2.810   8.781  13.116
44176SOL    HW134425   2.761   8.854  13.155
44176SOL    HW234426   2.895   8.784  13.160
44177SOL     OW34427   6.685  13.817   0.436
44177SOL    HW134428   6.678  13.885   0.369
44177SOL    HW234429   6.623  13.844   0.504
44178SOL     OW34430  10.458  14.669   0.155
44178SOL    HW134431  10.477  14.704   0.068
44178SOL    HW234432  10.489  14.736   0.215
44179SOL     OW34433   5.168   8.371   2.807
44179SOL    HW134434   5.175   8.293   2.752
44179SOL    HW234435   5.131   8.438   2.750
44180SOL     OW34436   0.411   6.767   2.892
44180SOL    HW134437   0.334   6.711   2.906
44180SOL    HW234438   0.486   6.709   2.904
44181SOL     OW34439   7.097  13.895  11.454
44181SOL    HW134440   7.122  13.808  11.485
44181SOL    HW234441   7.109  13.953  11.529
44182SOL     OW34442  13.661  10.011  12.780
44182SOL    HW134443  13.669   9.915  12.786
44182SOL    HW234444  13.585  10.025  12.723
44183SOL     OW34445   9.927  11.943  10.056
44183SOL    HW134446   9.896  11.922   9.968
44183SOL    HW234447   9.865  11.899  10.115
44184SOL     OW34448   3.327   5.029   4.772
44184SOL    HW134449   3.237   4.995   4.769
44184SOL    HW234450   3.332   5.077   4.855
44185SOL     OW34451   8.596  13.111   9.713
44185SOL    HW134452   8.604  13.018   9.691
44185SOL    HW234453   8.634  13.117   9.801
44186SOL     OW34454   9.462  13.395  13.943
44186SOL    HW134455   9.505  13.393  13.857
44186SOL    HW234456   9.520  13.342  13.999
44187SOL     OW34457  14.338   3.456  10.938
44187SOL    HW134458  14.367   3.523  10.877
44187SOL    HW234459  14.377   3.375  10.905
44188SOL     OW34460   7.423   0.795  10.510
44188SOL    HW134461   7.422   0.712  10.558
44188SOL    HW234462   7.331   0.813  10.492
44189SOL     OW34463   1.619  12.177  10.077
44189SOL    HW134464   1.682  12.246  10.099
44189SOL    HW234465   1.587  12.147  10.162
44190SOL     OW34466   0.908   1.495   5.101
44190SOL    HW134467   0.953   1.428   5.152
44190SOL    HW234468   0.947   1.488   5.013
44191SOL     OW34469   6.966   9.204   3.407
44191SOL    HW134470   6.885   9.234   3.449
44191SOL    HW234471   6.972   9.111   3.430
44192SOL     OW34472   9.978  14.276   2.288
44192SOL    HW134473  10.065  14.316   2.290
44192SOL    HW234474   9.969  14.233   2.373
44193SOL     OW34475  12.158   6.699   1.323
44193SOL    HW134476  12.242   6.699   1.369
44193SOL    HW234477  12.181   6.715   1.232
44194SOL     OW34478   5.180   2.036  14.721
44194SOL    HW134479   5.249   1.976  14.691
44194SOL    HW234480   5.137   2.065  14.641
44195SOL     OW34481   6.142  11.589   8.165
44195SOL    HW134482   6.189  11.553   8.090
44195SOL    HW234483   6.208  11.595   8.234
44196SOL     OW34484  10.216  13.870  11.949
44196SOL    HW134485  10.208  13.807  11.878
44196SOL    HW234486  10.129  13.873  11.989
44197SOL     OW34487   9.700  11.534  14.055
44197SOL    HW134488   9.723  11.602  13.993
44197SOL    HW234489   9.627  11.570  14.105
44198SOL     OW34490   7.627   5.238   1.252
44198SOL    HW134491   7.712   5.280   1.237
44198SOL    HW234492   7.642   5.181   1.328
44199SOL     OW34493   6.635  12.211   8.326
44199SOL    HW134494   6.729  12.196   8.315
44199SOL    HW234495   6.620  12.297   8.286
44200SOL     OW34496   1.937   2.984   5.653
44200SOL    HW134497   1.880   3.032   5.593
44200SOL    HW234498   1.899   2.897   5.660
44201SOL     OW34499  14.143  13.734  12.896
44201SOL    HW134500  14.205  13.806  12.884
44201SOL    HW234501  14.118  13.739  12.988
44202SOL     OW34502   7.272   8.151  10.697
44202SOL    HW134503   7.363   8.176  10.712
44202SOL    HW234504   7.221   8.228  10.719
44203SOL     OW34505   3.470  12.772   1.796
44203SOL    HW134506   3.501  12.684   1.775
44203SOL    HW234507   3.498  12.787   1.887
44204SOL     OW34508   1.115   7.119   1.125
44204SOL    HW134509   1.167   7.153   1.199
44204SOL    HW234510   1.087   7.197   1.077
44205SOL     OW34511   5.090  10.651   8.115
44205SOL    HW134512   5.129  10.737   8.100
44205SOL    HW234513   5.140  10.591   8.060
44206SOL     OW34514  14.629   6.738  12.088
44206SOL    HW134515  14.534   6.737  12.093
44206SOL    HW234516  14.649   6.725  11.995
44207SOL     OW34517  12.470   1.313   9.472
44207SOL    HW134518  12.382   1.349   9.460
44207SOL    HW234519  12.508   1.367   9.541
44208SOL     OW34520  12.101   6.674   2.552
44208SOL    HW134521  12.141   6.605   2.605
44208SOL    HW234522  12.164   6.690   2.482
44209SOL     OW34523   1.859   2.360   2.560
44209SOL    HW134524   1.909   2.425   2.510
44209SOL    HW234525   1.861   2.281   2.506
44210SOL     OW34526   2.251   6.928   5.395
44210SOL    HW134527   2.299   6.939   5.314
44210SOL    HW234528   2.278   7.003   5.449
44211SOL     OW34529  10.850   2.066   1.327
44211SOL    HW134530  10.834   2.057   1.421
44211SOL    HW234531  10.909   2.141   1.320
44212SOL     OW34532  10.096  12.457   7.418
44212SOL    HW134533  10.110  12.445   7.512
44212SOL    HW234534  10.001  12.453   7.408
44213SOL     OW34535   2.580  10.741   2.576
44213SOL    HW134536   2.557  10.789   2.656
44213SOL    HW234537   2.647  10.679   2.604
44214SOL     OW34538   8.493  12.502   3.489
44214SOL    HW134539   8.487  12.535   3.578
44214SOL    HW234540   8.557  12.431   3.493
44215SOL     OW34541   3.107   5.726   1.852
44215SOL    HW134542   3.016   5.706   1.829
44215SOL    HW234543   3.159   5.662   1.803
44216SOL     OW34544   5.493   0.297  14.509
44216SOL    HW134545   5.429   0.329  14.573
44216SOL    HW234546   5.574   0.288  14.559
44217SOL     OW34547  10.887   3.761   0.489
44217SOL    HW134548  10.879   3.821   0.415
44217SOL    HW234549  10.806   3.772   0.537
44218SOL     OW34550   0.440   2.108  13.122
44218SOL    HW134551   0.448   2.200  13.146
44218SOL    HW234552   0.471   2.104  13.032
44219SOL     OW34553   7.089   3.041   1.813
44219SOL    HW134554   7.073   3.074   1.725
44219SOL    HW234555   7.172   3.081   1.839
44220SOL     OW34556   2.769  14.107   5.088
44220SOL    HW134557   2.803  14.116   5.000
44220SOL    HW234558   2.678  14.137   5.082
44221SOL     OW34559  13.052   7.480  11.043
44221SOL    HW134560  12.975   7.538  11.047
44221SOL    HW234561  13.089   7.483  11.131
44222SOL     OW34562  11.003   0.917   8.864
44222SOL    HW134563  10.987   0.920   8.769
44222SOL    HW234564  10.932   0.863   8.898
44223SOL     OW34565  12.565   2.891   1.283
44223SOL    HW134566  12.649   2.855   1.255
44223SOL    HW234567  12.542   2.954   1.215
44224SOL     OW34568  13.681   9.303   0.593
44224SOL    HW134569  13.665   9.338   0.505
44224SOL    HW234570  13.706   9.380   0.645
44225SOL     OW34571  11.593  11.558  10.173
44225SOL    HW134572  11.601  11.643  10.128
44225SOL    HW234573  11.555  11.500  10.107
44226SOL     OW34574   6.468   4.827  13.170
44226SOL    HW134575   6.506   4.910  13.197
44226SOL    HW234576   6.397   4.851  13.111
44227SOL     OW34577   8.336  11.097  13.802
44227SOL    HW134578   8.326  11.190  13.819
44227SOL    HW234579   8.291  11.054  13.874
44228SOL     OW34580   6.786  11.220   0.660
44228SOL    HW134581   6.792  11.292   0.597
44228SOL    HW234582   6.698  11.185   0.647
44229SOL     OW34583   5.379   3.399  12.681
44229SOL    HW134584   5.467   3.429  12.701
44229SOL    HW234585   5.333   3.479  12.653
44230SOL     OW34586   3.621   8.169  11.986
44230SOL    HW134587   3.634   8.262  11.969
44230SOL    HW234588   3.704   8.128  11.963
44231SOL     OW34589   0.425   2.762   4.095
44231SOL    HW134590   0.440   2.668   4.100
44231SOL    HW234591   0.415   2.790   4.186
44232SOL     OW34592   3.706   4.445  13.541
44232SOL    HW134593   3.627   4.497  13.555
44232SOL    HW234594   3.772   4.507  13.513
44233SOL     OW34595   3.070   3.880  13.458
44233SOL    HW134596   3.003   3.936  13.419
44233SOL    HW234597   3.088   3.814  13.391
44234SOL     OW34598  10.310   8.856   9.666
44234SOL    HW134599  10.365   8.801   9.721
44234SOL    HW234600  10.364   8.933   9.647
44235SOL     OW34601   3.645  13.124   1.433
44235SOL    HW134602   3.630  13.095   1.343
44235SOL    HW234603   3.558  13.131   1.470
44236SOL     OW34604   5.923  12.850   3.264
44236SOL    HW134605   5.889  12.901   3.338
44236SOL    HW234606   5.849  12.796   3.236
44237SOL     OW34607   0.589  12.396   4.608
44237SOL    HW134608   0.655  12.330   4.589
44237SOL    HW234609   0.621  12.475   4.564
44238SOL     OW34610   7.900   7.437   8.807
44238SOL    HW134611   7.982   7.486   8.813
44238SOL    HW234612   7.862   7.442   8.894
44239SOL     OW34613   1.047   9.512   3.542
44239SOL    HW134614   1.063   9.587   3.484
44239SOL    HW234615   1.111   9.447   3.514
44240SOL     OW34616  13.195   4.125   9.689
44240SOL    HW134617  13.211   4.031   9.684
44240SOL    HW234618  13.152   4.147   9.607
44241SOL     OW34619   0.078  12.551   6.274
44241SOL    HW134620   0.074  12.473   6.218
44241SOL    HW234621  14.871  12.559   6.311
44242SOL     OW34622   0.048   7.788  10.921
44242SOL    HW134623   0.137   7.765  10.948
44242SOL    HW234624   0.031   7.731  10.845
44243SOL     OW34625  13.589  12.259  10.450
44243SOL    HW134626  13.629  12.337  10.413
44243SOL    HW234627  13.551  12.288  10.533
44244SOL     OW34628   0.697   6.371   2.640
44244SOL    HW134629   0.697   6.276   2.651
44244SOL    HW234630   0.750   6.403   2.713
44245SOL     OW34631   1.980   4.561   2.207
44245SOL    HW134632   1.889   4.588   2.218
44245SOL    HW234633   1.982   4.470   2.238
44246SOL     OW34634  13.445   2.248   2.462
44246SOL    HW134635  13.522   2.295   2.429
44246SOL    HW234636  13.412   2.303   2.533
44247SOL     OW34637  11.021  10.245   5.685
44247SOL    HW134638  10.977  10.197   5.755
44247SOL    HW234639  10.957  10.246   5.613
44248SOL     OW34640   1.755   0.542   4.758
44248SOL    HW134641   1.777   0.634   4.744
44248SOL    HW234642   1.839   0.500   4.779
44249SOL     OW34643   2.444  13.830   2.410
44249SOL    HW134644   2.392  13.906   2.436
44249SOL    HW234645   2.519  13.867   2.364
44250SOL     OW34646   3.283  13.492   7.138
44250SOL    HW134647   3.330  13.488   7.055
44250SOL    HW234648   3.339  13.445   7.200
44251SOL     OW34649   8.836   6.809   5.298
44251SOL    HW134650   8.914   6.864   5.293
44251SOL    HW234651   8.842   6.767   5.384
44252SOL     OW34652  14.860  11.124   8.978
44252SOL    HW134653   0.075  11.117   8.986
44252SOL    HW234654  14.838  11.203   9.028
44253SOL     OW34655   6.304   8.267  10.563
44253SOL    HW134656   6.364   8.203  10.524
44253SOL    HW234657   6.360   8.321  10.619
44254SOL     OW34658   9.297   3.664  12.501
44254SOL    HW134659   9.328   3.711  12.424
44254SOL    HW234660   9.358   3.689  12.570
44255SOL     OW34661   4.047   1.103   8.188
44255SOL    HW134662   3.953   1.116   8.178
44255SOL    HW234663   4.086   1.176   8.140
44256SOL     OW34664  13.888   1.419   2.609
44256SOL    HW134665  13.923   1.428   2.698
44256SOL    HW234666  13.964   1.398   2.555
44257SOL     OW34667   5.379   3.630   4.118
44257SOL    HW134668   5.360   3.558   4.178
44257SOL    HW234669   5.401   3.704   4.175
44258SOL     OW34670  12.861  13.308  11.618
44258SOL    HW134671  12.772  13.294  11.652
44258SOL    HW234672  12.860  13.265  11.532
44259SOL     OW34673   9.560   5.057   6.178
44259SOL    HW134674   9.519   5.123   6.123
44259SOL    HW234675   9.632   5.023   6.125
44260SOL     OW34676   6.121  11.947  14.445
44260SOL    HW134677   6.108  11.854  14.430
44260SOL    HW234678   6.034  11.982  14.463
44261SOL     OW34679   5.466  12.320   9.102
44261SOL    HW134680   5.370  12.320   9.091
44261SOL    HW234681   5.482  12.389   9.167
44262SOL     OW34682   0.515   4.130  12.502
44262SOL    HW134683   0.585   4.185  12.536
44262SOL    HW234684   0.501   4.162  12.412
44263SOL     OW34685  12.633  11.884   5.155
44263SOL    HW134686  12.568  11.923   5.097
44263SOL    HW234687  12.688  11.957   5.183
44264SOL     OW34688  14.065   1.394   1.411
44264SOL    HW134689  14.067   1.329   1.481
44264SOL    HW234690  14.074   1.343   1.331
44265SOL     OW34691  11.400  14.437   6.345
44265SOL    HW134692  11.378  14.410   6.434
44265SOL    HW234693  11.348  14.379   6.289
44266SOL     OW34694  12.170  14.147   8.569
44266SOL    HW134695  12.241  14.159   8.631
44266SOL    HW234696  12.168  14.053   8.552
44267SOL     OW34697  14.187  14.377   4.430
44267SOL    HW134698  14.214  14.462   4.465
44267SOL    HW234699  14.115  14.349   4.487
44268SOL     OW34700   2.174   7.794  10.941
44268SOL    HW134701   2.225   7.875  10.952
44268SOL    HW234702   2.101   7.804  11.003
44269SOL     OW34703  11.107   4.809   6.918
44269SOL    HW134704  11.200   4.828   6.921
44269SOL    HW234705  11.066   4.891   6.893
44270SOL     OW34706  11.867   4.858   0.724
44270SOL    HW134707  11.843   4.942   0.761
44270SOL    HW234708  11.787   4.805   0.727
44271SOL     OW34709  13.592   0.375   4.668
44271SOL    HW134710  13.531   0.442   4.637
44271SOL    HW234711  13.616   0.404   4.756
44272SOL     OW34712  10.673   4.851   5.579
44272SOL    HW134713  10.718   4.776   5.617
44272SOL    HW234714  10.637   4.819   5.497
44273SOL     OW34715   1.553  12.229   2.064
44273SOL    HW134716   1.573  12.152   2.011
44273SOL    HW234717   1.542  12.300   2.001
44274SOL     OW34718   6.872   8.476   3.626
44274SOL    HW134719   6.881   8.381   3.624
44274SOL    HW234720   6.777   8.491   3.629
44275SOL     OW34721   9.194   3.472   3.312
44275SOL    HW134722   9.254   3.503   3.245
44275SOL    HW234723   9.250   3.447   3.385
44276SOL     OW34724  14.214   5.430   6.426
44276SOL    HW134725  14.282   5.449   6.491
44276SOL    HW234726  14.261   5.416   6.344
44277SOL     OW34727  12.528   5.386   3.140
44277SOL    HW134728  12.477   5.412   3.063
44277SOL    HW234729  12.542   5.292   3.129
44278SOL     OW34730  11.649   9.464   3.167
44278SOL    HW134731  11.700   9.462   3.086
44278SOL    HW234732  11.593   9.387   3.161
44279SOL     OW34733  10.030  13.776   6.415
44279SOL    HW134734  10.007  13.775   6.322
44279SOL    HW234735  10.125  13.779   6.417
44280SOL     OW34736   9.054   2.934   3.021
44280SOL    HW134737   8.980   2.937   3.081
44280SOL    HW234738   9.104   3.013   3.041
44281SOL     OW34739   1.731  10.397   6.484
44281SOL    HW134740   1.639  10.419   6.473
44281SOL    HW234741   1.776  10.452   6.420
44282SOL     OW34742  11.301  11.036   5.663
44282SOL    HW134743  11.272  11.087   5.739
44282SOL    HW234744  11.391  11.013   5.683
44283SOL     OW34745   4.625  12.039   2.490
44283SOL    HW134746   4.694  11.974   2.477
44283SOL    HW234747   4.604  12.069   2.402
44284SOL     OW34748   1.052   8.050   1.267
44284SOL    HW134749   1.072   8.027   1.357
44284SOL    HW234750   1.061   7.967   1.218
44285SOL     OW34751   4.553   3.463   8.434
44285SOL    HW134752   4.639   3.500   8.417
44285SOL    HW234753   4.502   3.536   8.469
44286SOL     OW34754   3.869   0.406   7.641
44286SOL    HW134755   3.822   0.337   7.594
44286SOL    HW234756   3.806   0.477   7.649
44287SOL     OW34757   3.484   7.151  12.754
44287SOL    HW134758   3.396   7.131  12.786
44287SOL    HW234759   3.498   7.088  12.683
44288SOL     OW34760   4.555   5.018   5.036
44288SOL    HW134761   4.484   4.984   4.983
44288SOL    HW234762   4.528   5.107   5.060
44289SOL     OW34763   6.427  12.361   2.689
44289SOL    HW134764   6.441  12.443   2.736
44289SOL    HW234765   6.481  12.297   2.735
44290SOL     OW34766   7.210   9.030  12.017
44290SOL    HW134767   7.181   8.939  12.013
44290SOL    HW234768   7.131   9.081  12.034
44291SOL     OW34769  12.431   0.765   1.669
44291SOL    HW134770  12.473   0.803   1.591
44291SOL    HW234771  12.390   0.840   1.712
44292SOL     OW34772  10.537   6.729   8.345
44292SOL    HW134773  10.518   6.644   8.304
44292SOL    HW234774  10.574   6.707   8.430
44293SOL     OW34775  10.924   8.429   9.821
44293SOL    HW134776  10.855   8.382   9.775
44293SOL    HW234777  10.886   8.514   9.842
44294SOL     OW34778   6.333   3.084   2.076
44294SOL    HW134779   6.421   3.100   2.042
44294SOL    HW234780   6.345   3.017   2.143
44295SOL     OW34781   3.028   1.653  14.107
44295SOL    HW134782   3.057   1.697  14.028
44295SOL    HW234783   2.933   1.642  14.096
44296SOL     OW34784   0.123   7.692   6.410
44296SOL    HW134785   0.031   7.696   6.438
44296SOL    HW234786   0.129   7.757   6.341
44297SOL     OW34787  10.444   3.972  12.811
44297SOL    HW134788  10.475   4.032  12.879
44297SOL    HW234789  10.400   3.902  12.859
44298SOL     OW34790  11.574   6.789  12.946
44298SOL    HW134791  11.596   6.838  13.026
44298SOL    HW234792  11.599   6.848  12.875
44299SOL     OW34793   2.643  14.008   2.288
44299SOL    HW134794   2.632  14.070   2.360
44299SOL    HW234795   2.629  14.061   2.209
44300SOL     OW34796   4.602   4.116   7.226
44300SOL    HW134797   4.628   4.092   7.137
44300SOL    HW234798   4.508   4.099   7.229
44301SOL     OW34799   0.130  14.239  14.393
44301SOL    HW134800   0.149  14.321  14.440
44301SOL    HW234801   0.206  14.227  14.336
44302SOL     OW34802   7.828   3.250   1.587
44302SOL    HW134803   7.889   3.257   1.514
44302SOL    HW234804   7.882   3.219   1.660
44303SOL     OW34805  12.741   3.736   4.825
44303SOL    HW134806  12.780   3.730   4.912
44303SOL    HW234807  12.815   3.751   4.766
44304SOL     OW34808   0.214   8.609  11.161
44304SOL    HW134809   0.166   8.688  11.183
44304SOL    HW234810   0.161   8.566  11.094
44305SOL     OW34811   9.617   4.048  14.383
44305SOL    HW134812   9.655   3.976  14.333
44305SOL    HW234813   9.619   4.018  14.474
44306SOL     OW34814   5.755   9.583   6.279
44306SOL    HW134815   5.804   9.502   6.266
44306SOL    HW234816   5.750   9.622   6.191
44307SOL     OW34817   5.239   0.460   6.564
44307SOL    HW134818   5.238   0.374   6.523
44307SOL    HW234819   5.178   0.453   6.638
44308SOL     OW34820   8.441  13.163  10.647
44308SOL    HW134821   8.508  13.097  10.662
44308SOL    HW234822   8.369  13.116  10.605
44309SOL     OW34823  13.674   9.861   3.926
44309SOL    HW134824  13.725   9.784   3.900
44309SOL    HW234825  13.739   9.922   3.959
44310SOL     OW34826  14.826  11.354  12.872
44310SOL    HW134827  14.772  11.346  12.950
44310SOL    HW234828  14.763  11.364  12.800
44311SOL     OW34829   8.386   1.970   8.105
44311SOL    HW134830   8.447   2.033   8.144
44311SOL    HW234831   8.441   1.918   8.046
44312SOL     OW34832   0.555  11.295   1.673
44312SOL    HW134833   0.592  11.280   1.586
44312SOL    HW234834   0.616  11.249   1.732
44313SOL     OW34835   8.035   2.415  13.431
44313SOL    HW134836   8.128   2.416  13.455
44313SOL    HW234837   8.035   2.415  13.336
44314SOL     OW34838   0.074   1.375  14.655
44314SOL    HW134839   0.016   1.339  14.587
44314SOL    HW234840   0.014   1.406  14.723
44315SOL     OW34841  11.465  13.204   1.998
44315SOL    HW134842  11.409  13.134   1.966
44315SOL    HW234843  11.540  13.158   2.037
44316SOL     OW34844   8.067   1.008   4.360
44316SOL    HW134845   8.038   0.917   4.353
44316SOL    HW234846   8.004   1.048   4.420
44317SOL     OW34847   5.029   9.417   9.628
44317SOL    HW134848   5.109   9.468   9.614
44317SOL    HW234849   5.060   9.326   9.638
44318SOL     OW34850   3.362   4.976   8.038
44318SOL    HW134851   3.425   5.037   8.001
44318SOL    HW234852   3.276   5.010   8.013
44319SOL     OW34853   4.810   6.011  13.349
44319SOL    HW134854   4.717   6.009  13.371
44319SOL    HW234855   4.846   5.931  13.387
44320SOL     OW34856   4.262  13.810   1.637
44320SOL    HW134857   4.211  13.879   1.595
44320SOL    HW234858   4.352  13.840   1.632
44321SOL     OW34859   1.323   0.523   5.776
44321SOL    HW134860   1.375   0.455   5.733
44321SOL    HW234861   1.355   0.605   5.737
44322SOL     OW34862   1.968  11.858   3.955
44322SOL    HW134863   2.057  11.895   3.955
44322SOL    HW234864   1.947  11.846   3.863
44323SOL     OW34865  13.398   9.582  14.501
44323SOL    HW134866  13.489   9.610  14.512
44323SOL    HW234867  13.394   9.548  14.412
44324SOL     OW34868   7.939   4.205  11.104
44324SOL    HW134869   7.845   4.224  11.103
44324SOL    HW234870   7.970   4.241  11.186
44325SOL     OW34871   0.913  10.505   1.582
44325SOL    HW134872   0.928  10.411   1.571
44325SOL    HW234873   0.986  10.535   1.637
44326SOL     OW34874  10.691   1.328  13.264
44326SOL    HW134875  10.603   1.308  13.297
44326SOL    HW234876  10.681   1.411  13.217
44327SOL     OW34877   4.725   5.985   3.425
44327SOL    HW134878   4.759   5.898   3.446
44327SOL    HW234879   4.669   6.008   3.499
44328SOL     OW34880   6.138   9.901   7.880
44328SOL    HW134881   6.136   9.828   7.819
44328SOL    HW234882   6.053   9.897   7.925
44329SOL     OW34883   1.293   2.547  14.860
44329SOL    HW134884   1.379   2.562  14.821
44329SOL    HW234885   1.271   2.457  14.835
44330SOL     OW34886  14.057   3.445   0.062
44330SOL    HW134887  14.119   3.481  14.879
44330SOL    HW234888  14.082   3.353   0.072
44331SOL     OW34889   2.077  14.538   8.812
44331SOL    HW134890   2.132  14.601   8.859
44331SOL    HW234891   2.080  14.459   8.866
44332SOL     OW34892   4.867   6.007   3.744
44332SOL    HW134893   4.873   5.913   3.758
44332SOL    HW234894   4.778   6.022   3.712
44333SOL     OW34895   7.043   9.032   3.934
44333SOL    HW134896   6.995   8.949   3.936
44333SOL    HW234897   7.107   9.021   3.864
44334SOL     OW34898  12.936  14.786   6.008
44334SOL    HW134899  13.023  14.772   5.971
44334SOL    HW234900  12.932   0.000   6.024
44335SOL     OW34901   1.170   8.723   1.304
44335SOL    HW134902   1.139   8.814   1.307
44335SOL    HW234903   1.233   8.722   1.232
44336SOL     OW34904   6.810   6.443   5.515
44336SOL    HW134905   6.825   6.517   5.455
44336SOL    HW234906   6.841   6.366   5.466
44337SOL     OW34907   5.846   3.567   7.511
44337SOL    HW134908   5.770   3.608   7.552
44337SOL    HW234909   5.870   3.496   7.571
44338SOL     OW34910   0.824   9.416   6.569
44338SOL    HW134911   0.877   9.374   6.501
44338SOL    HW234912   0.887   9.451   6.632
44339SOL     OW34913   1.023   1.622  14.520
44339SOL    HW134914   1.110   1.663  14.518
44339SOL    HW234915   1.030   1.550  14.457
44340SOL     OW34916   7.116  14.500   2.127
44340SOL    HW134917   7.152  14.448   2.055
44340SOL    HW234918   7.081  14.579   2.085
44341SOL     OW34919   2.346  10.820  10.214
44341SOL    HW134920   2.331  10.869  10.133
44341SOL    HW234921   2.434  10.785  10.204
44342SOL     OW34922   8.795   8.715  14.293
44342SOL    HW134923   8.792   8.626  14.327
44342SOL    HW234924   8.842   8.764  14.361
44343SOL     OW34925   9.123  12.723   0.299
44343SOL    HW134926   9.140  12.758   0.212
44343SOL    HW234927   9.209  12.725   0.343
44344SOL     OW34928   6.997  10.232  11.400
44344SOL    HW134929   7.032  10.305  11.450
44344SOL    HW234930   7.009  10.156  11.457
44345SOL     OW34931   9.805   9.387  10.462
44345SOL    HW134932   9.823   9.478  10.437
44345SOL    HW234933   9.771   9.393  10.551
44346SOL     OW34934  13.246   5.084   0.774
44346SOL    HW134935  13.287   5.013   0.824
44346SOL    HW234936  13.166   5.045   0.739
44347SOL     OW34937  14.417  12.422  11.417
44347SOL    HW134938  14.420  12.408  11.323
44347SOL    HW234939  14.359  12.353  11.450
44348SOL     OW34940   4.406  12.885   1.358
44348SOL    HW134941   4.420  12.792   1.375
44348SOL    HW234942   4.479  12.910   1.300
44349SOL     OW34943   3.872   7.990   9.449
44349SOL    HW134944   3.896   7.897   9.438
44349SOL    HW234945   3.941   8.026   9.505
44350SOL     OW34946   3.219   7.512   6.832
44350SOL    HW134947   3.176   7.512   6.918
44350SOL    HW234948   3.168   7.451   6.779
44351SOL     OW34949   6.916  12.499   5.999
44351SOL    HW134950   6.977  12.496   5.925
44351SOL    HW234951   6.966  12.539   6.070
44352SOL     OW34952  11.154   8.832   2.770
44352SOL    HW134953  11.211   8.909   2.765
44352SOL    HW234954  11.157   8.795   2.682
44353SOL     OW34955  14.648   7.405   6.346
44353SOL    HW134956  14.592   7.470   6.302
44353SOL    HW234957  14.588   7.336   6.374
44354SOL     OW34958   7.159   0.143   1.817
44354SOL    HW134959   7.104   0.135   1.739
44354SOL    HW234960   7.107   0.102   1.886
44355SOL     OW34961  10.750   6.301  14.235
44355SOL    HW134962  10.719   6.254  14.313
44355SOL    HW234963  10.810   6.240  14.193
44356SOL     OW34964   9.325   5.972   8.651
44356SOL    HW134965   9.419   5.982   8.632
44356SOL    HW234966   9.283   6.038   8.596
44357SOL     OW34967  11.430  10.421  13.910
44357SOL    HW134968  11.392  10.410  13.997
44357SOL    HW234969  11.365  10.386  13.850
44358SOL     OW34970   5.908   4.756  12.358
44358SOL    HW134971   5.956   4.823  12.408
44358SOL    HW234972   5.953   4.674  12.379
44359SOL     OW34973  10.134   7.389  13.071
44359SOL    HW134974  10.149   7.299  13.100
44359SOL    HW234975  10.050   7.386  13.026
44360SOL     OW34976   0.606  12.143   4.242
44360SOL    HW134977   0.523  12.152   4.196
44360SOL    HW234978   0.673  12.147   4.173
44361SOL     OW34979  10.679   7.637  14.278
44361SOL    HW134980  10.607   7.637  14.341
44361SOL    HW234981  10.671   7.554  14.232
44362SOL     OW34982   3.752   0.102  13.222
44362SOL    HW134983   3.799   0.163  13.165
44362SOL    HW234984   3.701   0.158  13.280
44363SOL     OW34985  12.303   4.491   3.329
44363SOL    HW134986  12.223   4.534   3.298
44363SOL    HW234987  12.370   4.517   3.266
44364SOL     OW34988  13.407   2.377  13.300
44364SOL    HW134989  13.372   2.294  13.333
44364SOL    HW234990  13.502   2.363  13.297
44365SOL     OW34991   5.494   5.818   1.970
44365SOL    HW134992   5.544   5.877   2.026
44365SOL    HW234993   5.488   5.864   1.886
44366SOL     OW34994   5.576  13.096  11.453
44366SOL    HW134995   5.531  13.079  11.371
44366SOL    HW234996   5.554  13.186  11.476
44367SOL     OW34997   0.071   2.065   9.082
44367SOL    HW134998   0.120   2.135   9.125
44367SOL    HW234999  14.868   2.106   9.057
44368SOL     OW35000   9.761   5.374  12.642
44368SOL    HW135001   9.762   5.454  12.589
44368SOL    HW235002   9.769   5.303  12.578
44369SOL     OW35003  13.617  10.340   8.053
44369SOL    HW135004  13.653  10.258   8.019
44369SOL    HW235005  13.686  10.405   8.038
44370SOL     OW35006  13.738   9.753   7.486
44370SOL    HW135007  13.661   9.769   7.540
44370SOL    HW235008  13.811   9.755   7.547
44371SOL     OW35009   4.046   3.544  13.378
44371SOL    HW135010   4.028   3.501  13.295
44371SOL    HW235011   4.109   3.613  13.357
44372SOL     OW35012   5.496   8.663   2.582
44372SOL    HW135013   5.563   8.731   2.589
44372SOL    HW235014   5.420   8.708   2.546
44373SOL     OW35015   5.348  11.978   5.191
44373SOL    HW135016   5.349  12.071   5.169
44373SOL    HW235017   5.344  11.975   5.287
44374SOL     OW35018   1.743   6.434   9.571
44374SOL    HW135019   1.726   6.407   9.661
44374SOL    HW235020   1.683   6.380   9.518
44375SOL     OW35021   6.751  11.883   8.800
44375SOL    HW135022   6.740  11.925   8.714
44375SOL    HW235023   6.827  11.927   8.838
44376SOL     OW35024   1.730  14.568   4.149
44376SOL    HW135025   1.720  14.478   4.116
44376SOL    HW235026   1.807  14.565   4.205
44377SOL     OW35027   2.725  12.955  11.975
44377SOL    HW135028   2.674  13.019  12.025
44377SOL    HW235029   2.672  12.875  11.977
44378SOL     OW35030  14.156   4.050   3.340
44378SOL    HW135031  14.130   4.138   3.368
44378SOL    HW235032  14.074   4.003   3.328
44379SOL     OW35033  14.129  10.843   4.893
44379SOL    HW135034  14.098  10.781   4.826
44379SOL    HW235035  14.221  10.820   4.904
44380SOL     OW35036   2.939  14.326   8.406
44380SOL    HW135037   2.981  14.376   8.476
44380SOL    HW235038   3.009  14.308   8.344
44381SOL     OW35039   0.627  10.200   8.841
44381SOL    HW135040   0.714  10.239   8.849
44381SOL    HW235041   0.577  10.262   8.788
44382SOL     OW35042  10.248   7.450   3.484
44382SOL    HW135043  10.315   7.388   3.454
44382SOL    HW235044  10.194   7.466   3.406
44383SOL     OW35045   0.864   2.911   5.129
44383SOL    HW135046   0.907   2.993   5.154
44383SOL    HW235047   0.813   2.887   5.206
44384SOL     OW35048  12.959  13.001  10.053
44384SOL    HW135049  12.882  13.056  10.067
44384SOL    HW235050  12.924  12.913  10.044
44385SOL     OW35051  10.805  13.732  14.438
44385SOL    HW135052  10.856  13.688  14.370
44385SOL    HW235053  10.734  13.775  14.389
44386SOL     OW35054   0.350  12.684   7.252
44386SOL    HW135055   0.333  12.714   7.342
44386SOL    HW235056   0.295  12.606   7.243
44387SOL     OW35057   7.394   9.169   7.367
44387SOL    HW135058   7.400   9.098   7.303
44387SOL    HW235059   7.403   9.248   7.315
44388SOL     OW35060   7.075   0.952   5.285
44388SOL    HW135061   7.070   0.869   5.238
44388SOL    HW235062   6.986   0.966   5.319
44389SOL     OW35063   3.170   2.881   5.013
44389SOL    HW135064   3.132   2.879   4.925
44389SOL    HW235065   3.095   2.889   5.072
44390SOL     OW35066  14.307  10.814   1.962
44390SOL    HW135067  14.242  10.841   1.897
44390SOL    HW235068  14.261  10.749   2.015
44391SOL     OW35069   4.149   5.097  11.683
44391SOL    HW135070   4.204   5.073  11.609
44391SOL    HW235071   4.061   5.070  11.658
44392SOL     OW35072  13.834   6.397   3.024
44392SOL    HW135073  13.783   6.360   2.952
44392SOL    HW235074  13.922   6.361   3.013
44393SOL     OW35075   8.430  13.224  13.193
44393SOL    HW135076   8.523  13.200  13.189
44393SOL    HW235077   8.394  13.167  13.261
44394SOL     OW35078  13.004   8.606   5.537
44394SOL    HW135079  13.052   8.533   5.496
44394SOL    HW235080  13.061   8.682   5.525
44395SOL     OW35081   1.698   4.821   2.449
44395SOL    HW135082   1.724   4.779   2.366
44395SOL    HW235083   1.603   4.824   2.445
44396SOL     OW35084  14.515   7.931  14.055
44396SOL    HW135085  14.473   7.958  14.137
44396SOL    HW235086  14.605   7.909  14.081
44397SOL     OW35087  12.385  14.067  12.146
44397SOL    HW135088  12.299  14.092  12.112
44397SOL    HW235089  12.416  14.000  12.085
44398SOL     OW35090   7.980  11.365   6.205
44398SOL    HW135091   7.889  11.338   6.193
44398SOL    HW235092   7.998  11.420   6.129
44399SOL     OW35093   3.732   9.586   9.013
44399SOL    HW135094   3.817   9.542   9.018
44399SOL    HW235095   3.742   9.648   8.940
44400SOL     OW35096   8.334   2.687  13.587
44400SOL    HW135097   8.309   2.771  13.625
44400SOL    HW235098   8.419   2.703  13.546
44401SOL     OW35099  13.652   6.549   0.646
44401SOL    HW135100  13.588   6.567   0.715
44401SOL    HW235101  13.714   6.488   0.687
44402SOL     OW35102   5.738   6.239  12.326
44402SOL    HW135103   5.729   6.201  12.413
44402SOL    HW235104   5.739   6.164  12.267
44403SOL     OW35105   5.714   8.765   0.543
44403SOL    HW135106   5.651   8.705   0.503
44403SOL    HW235107   5.729   8.832   0.476
44404SOL     OW35108  10.816  12.262   4.775
44404SOL    HW135109  10.760  12.322   4.727
44404SOL    HW235110  10.847  12.313   4.850
44405SOL     OW35111   2.301  13.241   6.855
44405SOL    HW135112   2.381  13.192   6.840
44405SOL    HW235113   2.297  13.304   6.782
44406SOL     OW35114   7.239   2.988   6.645
44406SOL    HW135115   7.198   3.072   6.662
44406SOL    HW235116   7.166   2.925   6.644
44407SOL     OW35117   6.529   9.701   0.494
44407SOL    HW135118   6.451   9.737   0.452
44407SOL    HW235119   6.551   9.624   0.442
44408SOL     OW35120   0.519   5.512  11.765
44408SOL    HW135121   0.534   5.605  11.747
44408SOL    HW235122   0.600   5.469  11.737
44409SOL     OW35123   8.135   8.795   3.854
44409SOL    HW135124   8.055   8.762   3.813
44409SOL    HW235125   8.205   8.740   3.819
44410SOL     OW35126   6.550  11.908  11.433
44410SOL    HW135127   6.489  11.950  11.373
44410SOL    HW235128   6.584  11.979  11.487
44411SOL     OW35129   3.700  14.534   7.627
44411SOL    HW135130   3.786  14.552   7.589
44411SOL    HW235131   3.719  14.509   7.717
44412SOL     OW35132   6.834   1.218  10.733
44412SOL    HW135133   6.826   1.296  10.788
44412SOL    HW235134   6.746   1.179  10.733
44413SOL     OW35135   5.843   4.213   1.223
44413SOL    HW135136   5.858   4.299   1.264
44413SOL    HW235137   5.887   4.219   1.139
44414SOL     OW35138   1.313   1.417  11.569
44414SOL    HW135139   1.299   1.335  11.523
44414SOL    HW235140   1.375   1.395  11.639
44415SOL     OW35141   1.801   8.018   8.682
44415SOL    HW135142   1.812   7.942   8.626
44415SOL    HW235143   1.708   8.041   8.674
44416SOL     OW35144   4.884   6.203   2.422
44416SOL    HW135145   4.847   6.269   2.480
44416SOL    HW235146   4.979   6.211   2.434
44417SOL     OW35147   4.054   1.775   6.924
44417SOL    HW135148   4.150   1.767   6.931
44417SOL    HW235149   4.039   1.867   6.904
44418SOL     OW35150   6.968   8.789   6.541
44418SOL    HW135151   7.008   8.845   6.474
44418SOL    HW235152   6.937   8.713   6.493
44419SOL     OW35153   5.411   5.811   9.701
44419SOL    HW135154   5.484   5.873   9.703
44419SOL    HW235155   5.342   5.853   9.753
44420SOL     OW35156  13.414   1.212   1.186
44420SOL    HW135157  13.470   1.135   1.189
44420SOL    HW235158  13.439   1.263   1.263
44421SOL     OW35159  11.067  13.050   6.428
44421SOL    HW135160  11.009  12.974   6.425
44421SOL    HW235161  11.080  13.074   6.337
44422SOL     OW35162   6.650   0.180   1.670
44422SOL    HW135163   6.592   0.176   1.593
44422SOL    HW235164   6.724   0.234   1.641
44423SOL     OW35165  14.391  10.763   3.693
44423SOL    HW135166  14.310  10.748   3.644
44423SOL    HW235167  14.421  10.676   3.718
44424SOL     OW35168  13.200  10.886   6.858
44424SOL    HW135169  13.173  10.866   6.948
44424SOL    HW235170  13.234  10.803   6.824
44425SOL     OW35171   3.273   8.824   5.921
44425SOL    HW135172   3.306   8.791   5.837
44425SOL    HW235173   3.190   8.866   5.899
44426SOL     OW35174   1.514   5.655   8.146
44426SOL    HW135175   1.542   5.645   8.236
44426SOL    HW235176   1.587   5.623   8.093
44427SOL     OW35177   5.779   2.396   1.466
44427SOL    HW135178   5.704   2.375   1.410
44427SOL    HW235179   5.752   2.473   1.516
44428SOL     OW35180   9.753   2.452  13.160
44428SOL    HW135181   9.796   2.450  13.074
44428SOL    HW235182   9.820   2.485  13.220
44429SOL     OW35183   9.393   7.583   5.461
44429SOL    HW135184   9.406   7.513   5.524
44429SOL    HW235185   9.410   7.542   5.376
44430SOL     OW35186  12.681  10.579   7.342
44430SOL    HW135187  12.603  10.524   7.353
44430SOL    HW235188  12.647  10.668   7.337
44431SOL     OW35189  14.576  12.528   3.870
44431SOL    HW135190  14.508  12.568   3.924
44431SOL    HW235191  14.657  12.545   3.917
44432SOL     OW35192   9.327  14.798   6.149
44432SOL    HW135193   9.347  14.723   6.094
44432SOL    HW235194   9.329  14.873   6.089
44433SOL     OW35195   7.079  12.324   0.198
44433SOL    HW135196   7.043  12.235   0.196
44433SOL    HW235197   7.083  12.347   0.290
44434SOL     OW35198  12.548  12.856  12.944
44434SOL    HW135199  12.614  12.895  12.887
44434SOL    HW235200  12.472  12.844  12.887
44435SOL     OW35201   1.139  14.373  11.010
44435SOL    HW135202   1.103  14.371  11.099
44435SOL    HW235203   1.064  14.396  10.955
44436SOL     OW35204  13.579   9.772   3.041
44436SOL    HW135205  13.514   9.785   2.972
44436SOL    HW235206  13.663   9.766   2.994
44437SOL     OW35207  12.684   3.265   9.629
44437SOL    HW135208  12.658   3.174   9.641
44437SOL    HW235209  12.671   3.281   9.535
44438SOL     OW35210   1.451  10.250   0.686
44438SOL    HW135211   1.519  10.226   0.749
44438SOL    HW235212   1.446  10.176   0.626
44439SOL     OW35213   5.596   0.058   5.482
44439SOL    HW135214   5.660   0.003   5.527
44439SOL    HW235215   5.543  14.876   5.432
44440SOL     OW35216  11.259   6.934  14.561
44440SOL    HW135217  11.193   6.962  14.625
44440SOL    HW235218  11.280   7.013  14.512
44441SOL     OW35219  14.454  12.279   3.790
44441SOL    HW135220  14.408  12.328   3.858
44441SOL    HW235221  14.537  12.326   3.778
44442SOL     OW35222   8.116  13.527   3.411
44442SOL    HW135223   8.156  13.612   3.431
44442SOL    HW235224   8.085  13.495   3.496
44443SOL     OW35225   7.166   8.016  13.990
44443SOL    HW135226   7.088   7.961  14.001
44443SOL    HW235227   7.133   8.106  14.001
44444SOL     OW35228   9.502   0.292   6.699
44444SOL    HW135229   9.474   0.332   6.616
44444SOL    HW235230   9.468   0.351   6.766
44445SOL     OW35231   6.086  11.510   9.030
44445SOL    HW135232   6.079  11.459   8.949
44445SOL    HW235233   6.144  11.583   9.007
44446SOL     OW35234  12.579   8.598  10.784
44446SOL    HW135235  12.669   8.604  10.817
44446SOL    HW235236  12.590   8.575  10.692
44447SOL     OW35237   1.260  11.992   1.295
44447SOL    HW135238   1.316  12.070   1.302
44447SOL    HW235239   1.321  11.918   1.300
44448SOL     OW35240   0.823   0.590   4.201
44448SOL    HW135241   0.731   0.570   4.184
44448SOL    HW235242   0.860   0.508   4.232
44449SOL     OW35243  12.029  14.842   7.782
44449SOL    HW135244  11.980  14.791   7.847
44449SOL    HW235245  12.067   0.034   7.832
44450SOL     OW35246   0.126  10.743  14.779
44450SOL    HW135247   0.087  10.661  14.749
44450SOL    HW235248   0.151  10.788  14.698
44451SOL     OW35249   4.672   0.668   0.870
44451SOL    HW135250   4.689   0.754   0.830
44451SOL    HW235251   4.577   0.668   0.885
44452SOL     OW35252   5.471   4.591   6.944
44452SOL    HW135253   5.385   4.632   6.950
44452SOL    HW235254   5.525   4.655   6.898
44453SOL     OW35255   3.087   0.654  10.354
44453SOL    HW135256   3.182   0.642  10.354
44453SOL    HW235257   3.062   0.648  10.447
44454SOL     OW35258  12.080   5.335   3.095
44454SOL    HW135259  11.991   5.306   3.116
44454SOL    HW235260  12.068   5.412   3.039
44455SOL     OW35261   7.407  12.088   5.507
44455SOL    HW135262   7.406  12.152   5.435
44455SOL    HW235263   7.394  12.003   5.464
44456SOL     OW35264   3.360  12.647   8.871
44456SOL    HW135265   3.422  12.631   8.800
44456SOL    HW235266   3.358  12.564   8.919
44457SOL     OW35267  10.069   0.029   7.162
44457SOL    HW135268  10.056   0.048   7.069
44457SOL    HW235269  10.151  14.860   7.166
44458SOL     OW35270   8.631   6.171   5.779
44458SOL    HW135271   8.641   6.113   5.703
44458SOL    HW235272   8.544   6.208   5.769
44459SOL     OW35273   5.151   3.631   9.585
44459SOL    HW135274   5.143   3.635   9.489
44459SOL    HW235275   5.167   3.722   9.611
44460SOL     OW35276   2.911   8.080   1.051
44460SOL    HW135277   2.839   8.100   0.992
44460SOL    HW235278   2.975   8.150   1.034
44461SOL     OW35279   1.787   2.298   7.532
44461SOL    HW135280   1.696   2.294   7.502
44461SOL    HW235281   1.805   2.391   7.545
44462SOL     OW35282  10.268  14.409   3.671
44462SOL    HW135283  10.363  14.397   3.675
44462SOL    HW235284  10.233  14.321   3.653
44463SOL     OW35285   0.081   3.434  11.625
44463SOL    HW135286   0.032   3.377  11.566
44463SOL    HW235287   0.173   3.416  11.603
44464SOL     OW35288  13.365   3.494   1.508
44464SOL    HW135289  13.388   3.536   1.425
44464SOL    HW235290  13.397   3.554   1.575
44465SOL     OW35291   0.320   0.029  11.175
44465SOL    HW135292   0.247  14.868  11.221
44465SOL    HW235293   0.391  14.845  11.181
44466SOL     OW35294   3.179   2.144  12.241
44466SOL    HW135295   3.231   2.138  12.162
44466SOL    HW235296   3.132   2.060  12.246
44467SOL     OW35297   2.531  14.659  10.783
44467SOL    HW135298   2.614  14.617  10.806
44467SOL    HW235299   2.554  14.718  10.711
44468SOL     OW35300   8.369  10.240   2.779
44468SOL    HW135301   8.330  10.156   2.803
44468SOL    HW235302   8.294  10.296   2.760
44469SOL     OW35303   9.419   5.547   7.193
44469SOL    HW135304   9.499   5.572   7.147
44469SOL    HW235305   9.437   5.566   7.285
44470SOL     OW35306  12.558   2.778   2.548
44470SOL    HW135307  12.471   2.739   2.539
44470SOL    HW235308  12.618   2.709   2.519
44471SOL     OW35309   3.294   6.706  13.952
44471SOL    HW135310   3.380   6.664  13.942
44471SOL    HW235311   3.247   6.651  14.014
44472SOL     OW35312  13.821   7.052   3.914
44472SOL    HW135313  13.893   7.021   3.859
44472SOL    HW235314  13.742   7.028   3.866
44473SOL     OW35315   3.600   8.873   7.692
44473SOL    HW135316   3.696   8.875   7.690
44473SOL    HW235317   3.576   8.802   7.632
44474SOL     OW35318   8.947   3.887  11.111
44474SOL    HW135319   8.974   3.971  11.149
44474SOL    HW235320   8.888   3.912  11.040
44475SOL     OW35321  14.691   8.515  10.621
44475SOL    HW135322  14.682   8.588  10.560
44475SOL    HW235323  14.685   8.555  10.708
44476SOL     OW35324  12.953  10.140   9.318
44476SOL    HW135325  12.953  10.156   9.224
44476SOL    HW235326  13.021  10.199   9.352
44477SOL     OW35327   2.492  13.578   3.805
44477SOL    HW135328   2.538  13.556   3.886
44477SOL    HW235329   2.539  13.529   3.737
44478SOL     OW35330   0.176   9.747   1.421
44478SOL    HW135331   0.213   9.692   1.352
44478SOL    HW235332   0.126   9.686   1.475
44479SOL     OW35333   9.763  10.451   8.528
44479SOL    HW135334   9.766  10.497   8.611
44479SOL    HW235335   9.855  10.437   8.505
44480SOL     OW35336   7.586  11.159   8.216
44480SOL    HW135337   7.616  11.245   8.188
44480SOL    HW235338   7.567  11.112   8.135
44481SOL     OW35339   1.026   9.042   9.453
44481SOL    HW135340   1.103   9.027   9.507
44481SOL    HW235341   0.956   8.995   9.499
44482SOL     OW35342   3.162   4.285  12.871
44482SOL    HW135343   3.226   4.218  12.847
44482SOL    HW235344   3.215   4.355  12.908
44483SOL     OW35345  14.769   5.038   5.741
44483SOL    HW135346  14.674   5.029   5.752
44483SOL    HW235347  14.802   4.949   5.736
44484SOL     OW35348  12.789  10.060   1.284
44484SOL    HW135349  12.783  10.155   1.296
44484SOL    HW235350  12.729  10.025   1.350
44485SOL     OW35351  14.105  10.602  14.291
44485SOL    HW135352  14.095  10.509  14.314
44485SOL    HW235353  14.113  10.602  14.195
44486SOL     OW35354  14.846   1.545   2.741
44486SOL    HW135355  14.783   1.596   2.791
44486SOL    HW235356  14.805   1.459   2.731
44487SOL     OW35357   7.649   7.613  13.061
44487SOL    HW135358   7.597   7.534  13.053
44487SOL    HW235359   7.643   7.655  12.976
44488SOL     OW35360   7.329  14.518  12.231
44488SOL    HW135361   7.353  14.504  12.139
44488SOL    HW235362   7.259  14.582  12.228
44489SOL     OW35363   0.248   4.622   6.614
44489SOL    HW135364   0.324   4.679   6.601
44489SOL    HW235365   0.180   4.680   6.648
44490SOL     OW35366   5.904   6.485   2.171
44490SOL    HW135367   5.914   6.518   2.261
44490SOL    HW235368   5.923   6.392   2.178
44491SOL     OW35369  11.891   8.303  11.571
44491SOL    HW135370  11.813   8.351  11.600
44491SOL    HW235371  11.949   8.304  11.646
44492SOL     OW35372  11.265   8.597   1.840
44492SOL    HW135373  11.271   8.510   1.801
44492SOL    HW235374  11.346   8.640   1.813
44493SOL     OW35375   3.266   5.587  12.782
44493SOL    HW135376   3.342   5.547  12.739
44493SOL    HW235377   3.298   5.671  12.813
44494SOL     OW35378   1.684   8.297  11.933
44494SOL    HW135379   1.600   8.333  11.906
44494SOL    HW235380   1.736   8.293  11.853
44495SOL     OW35381   8.374  13.027   9.444
44495SOL    HW135382   8.455  12.977   9.459
44495SOL    HW235383   8.349  13.005   9.355
44496SOL     OW35384   4.249   5.972   0.906
44496SOL    HW135385   4.235   5.905   0.839
44496SOL    HW235386   4.281   5.923   0.982
44497SOL     OW35387  13.104   7.089   0.855
44497SOL    HW135388  13.195   7.093   0.883
44497SOL    HW235389  13.058   7.049   0.929
44498SOL     OW35390   8.955   6.692   2.852
44498SOL    HW135391   8.887   6.689   2.920
44498SOL    HW235392   8.923   6.755   2.788
44499SOL     OW35393   6.720   4.268   4.142
44499SOL    HW135394   6.775   4.274   4.063
44499SOL    HW235395   6.763   4.203   4.196
44500SOL     OW35396   3.521  13.563  13.315
44500SOL    HW135397   3.466  13.640  13.324
44500SOL    HW235398   3.599  13.583  13.368
44501SOL     OW35399   4.973   8.792   9.982
44501SOL    HW135400   4.883   8.767  10.004
44501SOL    HW235401   5.010   8.824  10.065
44502SOL     OW35402   4.211   9.931   8.190
44502SOL    HW135403   4.232   9.857   8.133
44502SOL    HW235404   4.265  10.003   8.158
44503SOL     OW35405  13.867  12.292   9.084
44503SOL    HW135406  13.786  12.321   9.126
44503SOL    HW235407  13.934  12.352   9.116
44504SOL     OW35408   6.245  14.416  12.546
44504SOL    HW135409   6.207  14.452  12.626
44504SOL    HW235410   6.305  14.484  12.515
44505SOL     OW35411   7.854  12.266   0.733
44505SOL    HW135412   7.779  12.326   0.727
44505SOL    HW235413   7.873  12.262   0.827
44506SOL     OW35414   8.965  13.732   4.674
44506SOL    HW135415   9.029  13.687   4.730
44506SOL    HW235416   9.013  13.806   4.638
44507SOL     OW35417  11.806   6.984   5.458
44507SOL    HW135418  11.882   7.024   5.500
44507SOL    HW235419  11.837   6.960   5.370
44508SOL     OW35420   2.112   7.250   6.715
44508SOL    HW135421   2.063   7.266   6.634
44508SOL    HW235422   2.202   7.275   6.694
44509SOL     OW35423   2.466   8.502   9.550
44509SOL    HW135424   2.440   8.474   9.462
44509SOL    HW235425   2.394   8.473   9.606
44510SOL     OW35426  13.664  13.455   9.059
44510SOL    HW135427  13.719  13.534   9.058
44510SOL    HW235428  13.593  13.475   8.999
44511SOL     OW35429   5.783   5.192  12.385
44511SOL    HW135430   5.787   5.102  12.415
44511SOL    HW235431   5.701   5.226  12.422
44512SOL     OW35432   6.669   7.832   8.133
44512SOL    HW135433   6.600   7.766   8.130
44512SOL    HW235434   6.630   7.905   8.183
44513SOL     OW35435   7.207   9.347  11.951
44513SOL    HW135436   7.202   9.259  11.914
44513SOL    HW235437   7.164   9.403  11.886
44514SOL     OW35438  13.541   4.290   9.859
44514SOL    HW135439  13.619   4.290   9.913
44514SOL    HW235440  13.554   4.217   9.799
44515SOL     OW35441   3.431  14.251   4.771
44515SOL    HW135442   3.516  14.233   4.731
44515SOL    HW235443   3.451  14.291   4.855
44516SOL     OW35444   1.189   8.758  10.759
44516SOL    HW135445   1.170   8.805  10.678
44516SOL    HW235446   1.103   8.744  10.799
44517SOL     OW35447  11.880   2.109  11.554
44517SOL    HW135448  11.959   2.137  11.507
44517SOL    HW235449  11.896   2.016  11.573
44518SOL     OW35450   2.697   7.550  11.070
44518SOL    HW135451   2.651   7.517  10.993
44518SOL    HW235452   2.786   7.567  11.040
44519SOL     OW35453  10.392  14.549  13.322
44519SOL    HW135454  10.297  14.561  13.329
44519SOL    HW235455  10.405  14.507  13.236
44520SOL     OW35456   1.719  11.255  12.387
44520SOL    HW135457   1.660  11.192  12.428
44520SOL    HW235458   1.666  11.295  12.318
44521SOL     OW35459   9.191  12.841   9.327
44521SOL    HW135460   9.134  12.834   9.404
44521SOL    HW235461   9.261  12.900   9.354
44522SOL     OW35462   4.755   8.398   9.540
44522SOL    HW135463   4.837   8.418   9.585
44522SOL    HW235464   4.688   8.442   9.592
44523SOL     OW35465  11.438  11.323  10.184
44523SOL    HW135466  11.513  11.264  10.192
44523SOL    HW235467  11.379  11.297  10.255
44524SOL     OW35468   2.119  10.451   9.568
44524SOL    HW135469   2.207  10.455   9.606
44524SOL    HW235470   2.109  10.360   9.540
44525SOL     OW35471   7.217  11.671  12.297
44525SOL    HW135472   7.225  11.747  12.240
44525SOL    HW235473   7.132  11.681  12.339
44526SOL     OW35474  10.481  12.293   3.864
44526SOL    HW135475  10.566  12.311   3.904
44526SOL    HW235476  10.487  12.328   3.776
44527SOL     OW35477   6.961  14.340  13.502
44527SOL    HW135478   6.939  14.250  13.525
44527SOL    HW235479   6.899  14.393  13.552
44528SOL     OW35480   3.579   3.361   4.266
44528SOL    HW135481   3.576   3.406   4.182
44528SOL    HW235482   3.662   3.390   4.306
44529SOL     OW35483   4.966   3.224  12.335
44529SOL    HW135484   5.009   3.297  12.379
44529SOL    HW235485   4.879   3.257  12.312
44530SOL     OW35486  11.516  13.147   5.132
44530SOL    HW135487  11.572  13.192   5.069
44530SOL    HW235488  11.483  13.216   5.189
44531SOL     OW35489   3.877  11.204  12.921
44531SOL    HW135490   3.861  11.251  13.003
44531SOL    HW235491   3.957  11.153  12.938
44532SOL     OW35492  11.666  12.032  14.265
44532SOL    HW135493  11.736  12.090  14.296
44532SOL    HW235494  11.669  12.040  14.170
44533SOL     OW35495   4.189   6.561   1.900
44533SOL    HW135496   4.133   6.637   1.917
44533SOL    HW235497   4.148   6.490   1.949
44534SOL     OW35498  13.130   1.937   4.058
44534SOL    HW135499  13.222   1.952   4.038
44534SOL    HW235500  13.088   1.927   3.972
44535SOL     OW35501   1.160   4.026   0.823
44535SOL    HW135502   1.153   3.997   0.914
44535SOL    HW235503   1.101   4.102   0.817
44536SOL     OW35504   1.164   2.186   1.952
44536SOL    HW135505   1.181   2.258   1.891
44536SOL    HW235506   1.213   2.210   2.031
44537SOL     OW35507   1.440   5.093  11.370
44537SOL    HW135508   1.484   5.138  11.297
44537SOL    HW235509   1.461   5.001  11.357
44538SOL     OW35510  14.281  13.732  10.647
44538SOL    HW135511  14.310  13.823  10.652
44538SOL    HW235512  14.209  13.725  10.709
44539SOL     OW35513   4.498  10.446   9.486
44539SOL    HW135514   4.451  10.364   9.505
44539SOL    HW235515   4.537  10.431   9.400
44540SOL     OW35516  14.694  10.758  14.551
44540SOL    HW135517  14.604  10.758  14.518
44540SOL    HW235518  14.746  10.793  14.479
44541SOL     OW35519   6.231   2.111   4.653
44541SOL    HW135520   6.143   2.075   4.644
44541SOL    HW235521   6.264   2.075   4.735
44542SOL     OW35522   3.298   8.842  11.123
44542SOL    HW135523   3.215   8.798  11.104
44542SOL    HW235524   3.272   8.929  11.155
44543SOL     OW35525   4.051   0.148  10.279
44543SOL    HW135526   4.118   0.083  10.302
44543SOL    HW235527   4.085   0.188  10.199
44544SOL     OW35528   7.714  14.806   2.473
44544SOL    HW135529   7.686  14.791   2.382
44544SOL    HW235530   7.633  14.808   2.523
44545SOL     OW35531   9.095   9.969   8.860
44545SOL    HW135532   9.149  10.024   8.918
44545SOL    HW235533   9.146   9.962   8.779
44546SOL     OW35534   7.463  13.567  10.522
44546SOL    HW135535   7.396  13.539  10.584
44546SOL    HW235536   7.501  13.646  10.560
44547SOL     OW35537   2.640   7.461   7.338
44547SOL    HW135538   2.592   7.483   7.418
44547SOL    HW235539   2.574   7.466   7.268
44548SOL     OW35540  10.450  10.764   8.819
44548SOL    HW135541  10.508  10.835   8.847
44548SOL    HW235542  10.488  10.734   8.736
44549SOL     OW35543   0.680   4.219   7.484
44549SOL    HW135544   0.733   4.233   7.405
44549SOL    HW235545   0.675   4.124   7.493
44550SOL     OW35546   9.321   1.875   7.342
44550SOL    HW135547   9.390   1.873   7.275
44550SOL    HW235548   9.326   1.788   7.383
44551SOL     OW35549   0.578  14.389  14.432
44551SOL    HW135550   0.541  14.457  14.376
44551SOL    HW235551   0.592  14.433  14.517
44552SOL     OW35552   9.563   0.194   7.328
44552SOL    HW135553   9.608   0.110   7.325
44552SOL    HW235554   9.471   0.171   7.337
44553SOL     OW35555  14.694   5.990   6.442
44553SOL    HW135556  14.677   5.896   6.446
44553SOL    HW235557  14.611   6.030   6.472
44554SOL     OW35558   3.326   5.554   7.219
44554SOL    HW135559   3.387   5.587   7.154
44554SOL    HW235560   3.307   5.630   7.275
44555SOL     OW35561   4.357  14.769   2.441
44555SOL    HW135562   4.295  14.841   2.430
44555SOL    HW235563   4.420  14.802   2.505
44556SOL     OW35564   1.382  11.762  13.814
44556SOL    HW135565   1.339  11.682  13.784
44556SOL    HW235566   1.323  11.833  13.789
44557SOL     OW35567   1.197   8.456   1.405
44557SOL    HW135568   1.182   8.422   1.317
44557SOL    HW235569   1.191   8.551   1.396
44558SOL     OW35570  12.018  12.740   9.964
44558SOL    HW135571  12.055  12.797  10.031
44558SOL    HW235572  11.942  12.700  10.005
44559SOL     OW35573   5.127   2.206  10.807
44559SOL    HW135574   5.182   2.268  10.855
44559SOL    HW235575   5.185   2.169  10.740
44560SOL     OW35576  10.356  14.285   7.671
44560SOL    HW135577  10.319  14.214   7.618
44560SOL    HW235578  10.281  14.324   7.715
44561SOL     OW35579   5.764   2.186  12.938
44561SOL    HW135580   5.769   2.281  12.948
44561SOL    HW235581   5.687   2.160  12.989
44562SOL     OW35582  14.578   0.467   9.488
44562SOL    HW135583  14.650   0.429   9.539
44562SOL    HW235584  14.596   0.439   9.398
44563SOL     OW35585   0.619   5.355   1.120
44563SOL    HW135586   0.700   5.356   1.171
44563SOL    HW235587   0.624   5.274   1.069
44564SOL     OW35588   9.972   1.392  11.685
44564SOL    HW135589  10.011   1.403  11.599
44564SOL    HW235590   9.886   1.354  11.668
44565SOL     OW35591   7.438   6.819  13.708
44565SOL    HW135592   7.509   6.755  13.702
44565SOL    HW235593   7.473   6.899  13.670
44566SOL     OW35594   3.357   9.964   6.174
44566SOL    HW135595   3.273  10.005   6.153
44566SOL    HW235596   3.419  10.002   6.111
44567SOL     OW35597   3.163   1.293   3.238
44567SOL    HW135598   3.185   1.238   3.313
44567SOL    HW235599   3.095   1.245   3.191
44568SOL     OW35600   3.954  13.825   7.062
44568SOL    HW135601   4.027  13.854   7.008
44568SOL    HW235602   3.932  13.901   7.116
44569SOL     OW35603  14.524  11.871   5.183
44569SOL    HW135604  14.456  11.811   5.213
44569SOL    HW235605  14.512  11.950   5.236
44570SOL     OW35606   8.615   6.865   2.867
44570SOL    HW135607   8.689   6.881   2.926
44570SOL    HW235608   8.645   6.898   2.782
44571SOL     OW35609   3.404   1.891   0.347
44571SOL    HW135610   3.455   1.942   0.410
44571SOL    HW235611   3.345   1.956   0.307
44572SOL     OW35612   4.944  10.197   0.976
44572SOL    HW135613   4.969  10.134   1.044
44572SOL    HW235614   5.027  10.230   0.943
44573SOL     OW35615   5.826   5.985  14.382
44573SOL    HW135616   5.859   5.962  14.295
44573SOL    HW235617   5.895   6.040  14.420
44574SOL     OW35618   5.468   1.534   9.780
44574SOL    HW135619   5.555   1.568   9.759
44574SOL    HW235620   5.480   1.440   9.784
44575SOL     OW35621   1.116  14.656   4.497
44575SOL    HW135622   1.037  14.674   4.547
44575SOL    HW235623   1.152  14.576   4.536
44576SOL     OW35624   6.108   4.291  12.065
44576SOL    HW135625   6.030   4.303  12.119
44576SOL    HW235626   6.075   4.288  11.975
44577SOL     OW35627  10.726  11.803   9.255
44577SOL    HW135628  10.679  11.814   9.337
44577SOL    HW235629  10.810  11.763   9.280
44578SOL     OW35630  12.944   1.372   9.315
44578SOL    HW135631  12.898   1.336   9.391
44578SOL    HW235632  12.946   1.301   9.251
44579SOL     OW35633   5.167   2.502  12.225
44579SOL    HW135634   5.207   2.428  12.272
44579SOL    HW235635   5.113   2.545  12.291
44580SOL     OW35636   2.078  14.824   7.988
44580SOL    HW135637   1.995  14.851   8.028
44580SOL    HW235638   2.053  14.762   7.920
44581SOL     OW35639   1.297  13.405   0.422
44581SOL    HW135640   1.313  13.359   0.505
44581SOL    HW235641   1.254  13.487   0.448
44582SOL     OW35642   1.414   5.381   5.403
44582SOL    HW135643   1.421   5.473   5.377
44582SOL    HW235644   1.433   5.331   5.323
44583SOL     OW35645  14.496  14.728  12.657
44583SOL    HW135646  14.496  14.652  12.716
44583SOL    HW235647  14.552  14.792  12.700
44584SOL     OW35648   2.151   3.505  10.791
44584SOL    HW135649   2.169   3.517  10.884
44584SOL    HW235650   2.235   3.477  10.754
44585SOL     OW35651   0.296  13.423   9.809
44585SOL    HW135652   0.214  13.419   9.859
44585SOL    HW235653   0.274  13.386   9.724
44586SOL     OW35654  11.094   4.915  10.648
44586SOL    HW135655  11.179   4.908  10.691
44586SOL    HW235656  11.038   4.852  10.694
44587SOL     OW35657  11.437   2.531  10.426
44587SOL    HW135658  11.517   2.580  10.409
44587SOL    HW235659  11.375   2.597  10.458
44588SOL     OW35660   1.093  12.362  13.993
44588SOL    HW135661   1.090  12.384  13.899
44588SOL    HW235662   1.041  12.430  14.035
44589SOL     OW35663  13.213   7.205   3.173
44589SOL    HW135664  13.303   7.193   3.204
44589SOL    HW235665  13.183   7.116   3.155
44590SOL     OW35666   1.911   4.450  10.554
44590SOL    HW135667   1.830   4.501  10.559
44590SOL    HW235668   1.915   4.421  10.462
44591SOL     OW35669   8.980   6.167   9.329
44591SOL    HW135670   9.048   6.172   9.397
44591SOL    HW235671   8.908   6.219   9.364
44592SOL     OW35672   6.530  12.062   6.397
44592SOL    HW135673   6.435  12.048   6.407
44592SOL    HW235674   6.541  12.079   6.303
44593SOL     OW35675   3.199  12.555  12.560
44593SOL    HW135676   3.287  12.541  12.527
44593SOL    HW235677   3.209  12.565  12.654
44594SOL     OW35678  10.859  14.469   5.908
44594SOL    HW135679  10.882  14.484   6.000
44594SOL    HW235680  10.767  14.495   5.903
44595SOL     OW35681   7.821  14.165   2.534
44595SOL    HW135682   7.834  14.072   2.513
44595SOL    HW235683   7.781  14.202   2.455
44596SOL     OW35684  13.539  12.978  14.660
44596SOL    HW135685  13.533  12.948  14.751
44596SOL    HW235686  13.473  13.048  14.654
44597SOL     OW35687  12.210   8.998  12.070
44597SOL    HW135688  12.295   8.985  12.113
44597SOL    HW235689  12.222   8.964  11.982
44598SOL     OW35690   0.086   4.114   9.290
44598SOL    HW135691   0.027   4.151   9.355
44598SOL    HW235692   0.173   4.137   9.321
44599SOL     OW35693  10.381   3.754   2.011
44599SOL    HW135694  10.433   3.832   1.990
44599SOL    HW235695  10.291   3.779   1.987
44600SOL     OW35696  10.637  11.486   1.772
44600SOL    HW135697  10.558  11.469   1.721
44600SOL    HW235698  10.649  11.581   1.766
44601SOL     OW35699  12.167   6.241   4.054
44601SOL    HW135700  12.251   6.279   4.029
44601SOL    HW235701  12.183   6.147   4.060
44602SOL     OW35702   7.388   6.665  14.269
44602SOL    HW135703   7.406   6.758  14.282
44602SOL    HW235704   7.471   6.627  14.240
44603SOL     OW35705   6.586  10.400   4.822
44603SOL    HW135706   6.581  10.373   4.914
44603SOL    HW235707   6.528  10.339   4.776
44604SOL     OW35708   5.792   2.538   2.343
44604SOL    HW135709   5.717   2.594   2.365
44604SOL    HW235710   5.761   2.485   2.269
44605SOL     OW35711   0.092   8.269   4.226
44605SOL    HW135712   0.175   8.295   4.185
44605SOL    HW235713   0.027   8.278   4.156
44606SOL     OW35714  11.203   9.169   6.637
44606SOL    HW135715  11.260   9.223   6.691
44606SOL    HW235716  11.159   9.110   6.698
44607SOL     OW35717  13.989   6.906   6.483
44607SOL    HW135718  14.057   6.838   6.488
44607SOL    HW235719  14.001   6.945   6.397
44608SOL     OW35720   4.970   6.455  12.166
44608SOL    HW135721   4.909   6.403  12.114
44608SOL    HW235722   4.955   6.426  12.256
44609SOL     OW35723   8.250  11.598   7.991
44609SOL    HW135724   8.158  11.587   8.013
44609SOL    HW235725   8.288  11.511   8.007
44610SOL     OW35726   9.185   5.633   9.116
44610SOL    HW135727   9.140   5.714   9.141
44610SOL    HW235728   9.278   5.658   9.110
44611SOL     OW35729  11.181   6.940   5.115
44611SOL    HW135730  11.133   6.874   5.066
44611SOL    HW235731  11.255   6.963   5.059
44612SOL     OW35732   8.274  13.340   0.236
44612SOL    HW135733   8.341  13.296   0.184
44612SOL    HW235734   8.323  13.391   0.300
44613SOL     OW35735  13.874   1.677  11.320
44613SOL    HW135736  13.950   1.630  11.354
44613SOL    HW235737  13.862   1.641  11.232
44614SOL     OW35738   6.456   6.680  11.637
44614SOL    HW135739   6.442   6.610  11.702
44614SOL    HW235740   6.499   6.636  11.564
44615SOL     OW35741  13.612  13.912  10.853
44615SOL    HW135742  13.577  13.973  10.918
44615SOL    HW235743  13.547  13.911  10.784
44616SOL     OW35744  13.735   0.860   5.498
44616SOL    HW135745  13.750   0.793   5.432
44616SOL    HW235746  13.717   0.940   5.448
44617SOL     OW35747   1.469   5.204   8.861
44617SOL    HW135748   1.489   5.273   8.924
44617SOL    HW235749   1.520   5.129   8.891
44618SOL     OW35750   2.206   2.938   7.670
44618SOL    HW135751   2.233   2.879   7.740
44618SOL    HW235752   2.167   3.012   7.715
44619SOL     OW35753   2.043  14.610  13.853
44619SOL    HW135754   1.957  14.650  13.848
44619SOL    HW235755   2.069  14.596  13.762
44620SOL     OW35756  11.356   7.657   7.073
44620SOL    HW135757  11.362   7.737   7.125
44620SOL    HW235758  11.281   7.673   7.015
44621SOL     OW35759   6.919   3.187  12.323
44621SOL    HW135760   6.845   3.187  12.384
44621SOL    HW235761   6.923   3.098  12.290
44622SOL     OW35762   3.535   2.072  10.682
44622SOL    HW135763   3.519   1.989  10.729
44622SOL    HW235764   3.612   2.109  10.724
44623SOL     OW35765   4.365   4.162  11.443
44623SOL    HW135766   4.409   4.206  11.371
44623SOL    HW235767   4.348   4.074  11.411
44624SOL     OW35768   3.577  13.241   3.913
44624SOL    HW135769   3.509  13.193   3.866
44624SOL    HW235770   3.615  13.300   3.847
44625SOL     OW35771  12.936   4.732  14.447
44625SOL    HW135772  13.023   4.722  14.485
44625SOL    HW235773  12.952   4.767  14.359
44626SOL     OW35774   3.845  10.224  14.766
44626SOL    HW135775   3.776  10.158  14.775
44626SOL    HW235776   3.856  10.260  14.854
44627SOL     OW35777   4.484   2.950   3.351
44627SOL    HW135778   4.441   2.993   3.277
44627SOL    HW235779   4.556   3.008   3.374
44628SOL     OW35780   1.018  12.460   1.627
44628SOL    HW135781   0.974  12.478   1.710
44628SOL    HW235782   1.109  12.487   1.642
44629SOL     OW35783   1.951   3.471   0.051
44629SOL    HW135784   1.970   3.499   0.141
44629SOL    HW235785   1.876   3.412   0.061
44630SOL     OW35786  14.579   0.913   0.540
44630SOL    HW135787  14.622   0.961   0.610
44630SOL    HW235788  14.555   0.979   0.476
44631SOL     OW35789  11.283  14.693   3.277
44631SOL    HW135790  11.315  14.657   3.359
44631SOL    HW235791  11.198  14.653   3.264
44632SOL     OW35792   4.076  10.109   9.273
44632SOL    HW135793   4.034  10.134   9.191
44632SOL    HW235794   4.166  10.141   9.264
44633SOL     OW35795   3.566   3.959   7.431
44633SOL    HW135796   3.523   3.894   7.486
44633SOL    HW235797   3.615   3.909   7.367
44634SOL     OW35798  10.338   0.489   9.555
44634SOL    HW135799  10.341   0.505   9.461
44634SOL    HW235800  10.419   0.440   9.573
44635SOL     OW35801   4.817   5.543   4.029
44635SOL    HW135802   4.837   5.455   3.997
44635SOL    HW235803   4.868   5.601   3.971
44636SOL     OW35804   2.778   7.445   4.052
44636SOL    HW135805   2.787   7.439   3.957
44636SOL    HW235806   2.844   7.509   4.078
44637SOL     OW35807   8.740  12.429   7.696
44637SOL    HW135808   8.781  12.343   7.686
44637SOL    HW235809   8.702  12.428   7.783
44638SOL     OW35810   5.658   3.511   5.517
44638SOL    HW135811   5.575   3.536   5.476
44638SOL    HW235812   5.656   3.554   5.603
44639SOL     OW35813   1.125   5.635  10.434
44639SOL    HW135814   1.105   5.560  10.491
44639SOL    HW235815   1.195   5.681  10.479
44640SOL     OW35816   5.321   0.043   9.441
44640SOL    HW135817   5.277   0.078   9.364
44640SOL    HW235818   5.332   0.118   9.499
44641SOL     OW35819   5.965   9.040  11.484
44641SOL    HW135820   5.987   8.977  11.553
44641SOL    HW235821   5.938   9.119  11.531
44642SOL     OW35822   9.068  10.140   3.779
44642SOL    HW135823   9.026  10.087   3.711
44642SOL    HW235824   9.159  10.147   3.751
44643SOL     OW35825  11.313   0.347   7.330
44643SOL    HW135826  11.347   0.287   7.264
44643SOL    HW235827  11.354   0.431   7.309
44644SOL     OW35828  12.078  10.466   6.076
44644SOL    HW135829  12.032  10.544   6.045
44644SOL    HW235830  12.067  10.402   6.005
44645SOL     OW35831  10.481   5.471   6.554
44645SOL    HW135832  10.502   5.399   6.614
44645SOL    HW235833  10.476   5.429   6.468
44646SOL     OW35834  12.704   9.686   3.743
44646SOL    HW135835  12.738   9.738   3.815
44646SOL    HW235836  12.743   9.599   3.754
44647SOL     OW35837   9.326   7.193   0.615
44647SOL    HW135838   9.279   7.229   0.540
44647SOL    HW235839   9.340   7.101   0.592
44648SOL     OW35840  14.443  13.133  13.831
44648SOL    HW135841  14.493  13.214  13.841
44648SOL    HW235842  14.369  13.142  13.891
44649SOL     OW35843   9.954   0.803   5.306
44649SOL    HW135844  10.046   0.775   5.310
44649SOL    HW235845   9.949   0.855   5.226
44650SOL     OW35846   8.144   6.923   8.600
44650SOL    HW135847   8.190   6.871   8.665
44650SOL    HW235848   8.187   7.009   8.602
44651SOL     OW35849   4.343  13.003  12.006
44651SOL    HW135850   4.374  13.090  12.032
44651SOL    HW235851   4.419  12.961  11.966
44652SOL     OW35852  13.451  14.320  10.702
44652SOL    HW135853  13.498  14.360  10.776
44652SOL    HW235854  13.499  14.239  10.685
44653SOL     OW35855   7.654  10.799   6.867
44653SOL    HW135856   7.562  10.780   6.889
44653SOL    HW235857   7.680  10.727   6.811
44654SOL     OW35858   4.067  10.936   2.335
44654SOL    HW135859   4.097  10.985   2.411
44654SOL    HW235860   4.095  10.846   2.352
44655SOL     OW35861  13.395   1.449   4.398
44655SOL    HW135862  13.317   1.504   4.397
44655SOL    HW235863  13.373   1.378   4.459
44656SOL     OW35864   0.039  12.093   9.020
44656SOL    HW135865   0.093  12.016   9.002
44656SOL    HW235866   0.044  12.145   8.939
44657SOL     OW35867   5.878   6.168  13.111
44657SOL    HW135868   5.789   6.197  13.091
44657SOL    HW235869   5.876   6.073  13.099
44658SOL     OW35870  12.005   7.561  12.820
44658SOL    HW135871  11.980   7.502  12.892
44658SOL    HW235872  11.993   7.649  12.856
44659SOL     OW35873  12.893  11.256   5.901
44659SOL    HW135874  12.834  11.280   5.972
44659SOL    HW235875  12.890  11.330   5.841
44660SOL     OW35876   3.982   9.802   2.141
44660SOL    HW135877   3.980   9.843   2.054
44660SOL    HW235878   4.058   9.840   2.184
44661SOL     OW35879   9.412   4.149   1.673
44661SOL    HW135880   9.448   4.136   1.761
44661SOL    HW235881   9.408   4.245   1.663
44662SOL     OW35882   0.559   8.915   9.352
44662SOL    HW135883   0.637   8.860   9.353
44662SOL    HW235884   0.581   8.987   9.293
44663SOL     OW35885  14.162  12.368   6.698
44663SOL    HW135886  14.247  12.328   6.714
44663SOL    HW235887  14.175  12.461   6.717
44664SOL     OW35888   9.495   3.573   0.834
44664SOL    HW135889   9.579   3.529   0.818
44664SOL    HW235890   9.515   3.639   0.900
44665SOL     OW35891   1.470  14.743   3.156
44665SOL    HW135892   1.392  14.704   3.195
44665SOL    HW235893   1.484  14.824   3.205
44666SOL     OW35894   6.836   7.969  10.483
44666SOL    HW135895   6.897   8.043  10.487
44666SOL    HW235896   6.843   7.937  10.393
44667SOL     OW35897   4.215   0.222   3.648
44667SOL    HW135898   4.234   0.303   3.696
44667SOL    HW235899   4.282   0.218   3.580
44668SOL     OW35900   4.333   8.469   3.527
44668SOL    HW135901   4.279   8.428   3.594
44668SOL    HW235902   4.412   8.415   3.525
44669SOL     OW35903  13.401   9.675   1.399
44669SOL    HW135904  13.321   9.625   1.387
44669SOL    HW235905  13.384   9.732   1.474
44670SOL     OW35906  14.432   8.094  10.731
44670SOL    HW135907  14.433   8.004  10.700
44670SOL    HW235908  14.509   8.134  10.690
44671SOL     OW35909  11.224  10.101   6.293
44671SOL    HW135910  11.173  10.024   6.269
44671SOL    HW235911  11.313  10.068   6.307
44672SOL     OW35912   0.518   7.406  12.582
44672SOL    HW135913   0.488   7.467  12.515
44672SOL    HW235914   0.613   7.404  12.571
44673SOL     OW35915  11.004   2.884   3.507
44673SOL    HW135916  11.094   2.867   3.479
44673SOL    HW235917  11.007   2.881   3.603
44674SOL     OW35918  11.869   4.714   5.412
44674SOL    HW135919  11.821   4.635   5.384
44674SOL    HW235920  11.832   4.735   5.497
44675SOL     OW35921  12.811   6.362   0.100
44675SOL    HW135922  12.753   6.409   0.160
44675SOL    HW235923  12.835   6.282   0.148
44676SOL     OW35924   2.995  10.410   8.323
44676SOL    HW135925   2.962  10.453   8.402
44676SOL    HW235926   2.946  10.328   8.318
44677SOL     OW35927  14.098   5.659  11.219
44677SOL    HW135928  14.035   5.711  11.269
44677SOL    HW235929  14.164   5.722  11.191
44678SOL     OW35930   5.000   4.443   7.758
44678SOL    HW135931   5.018   4.401   7.843
44678SOL    HW235932   5.002   4.537   7.776
44679SOL     OW35933   9.148   5.569   2.456
44679SOL    HW135934   9.198   5.611   2.526
44679SOL    HW235935   9.160   5.475   2.470
44680SOL     OW35936   5.257  11.419  13.455
44680SOL    HW135937   5.170  11.454  13.474
44680SOL    HW235938   5.316  11.493  13.467
44681SOL     OW35939   5.546  14.354   7.343
44681SOL    HW135940   5.494  14.430   7.368
44681SOL    HW235941   5.499  14.317   7.268
44682SOL     OW35942   9.580  14.451  12.253
44682SOL    HW135943   9.501  14.479  12.299
44682SOL    HW235944   9.549  14.420  12.168
44683SOL     OW35945  10.606  11.389  14.254
44683SOL    HW135946  10.527  11.373  14.202
44683SOL    HW235947  10.640  11.473  14.222
44684SOL     OW35948   2.811   2.489  10.523
44684SOL    HW135949   2.843   2.402  10.499
44684SOL    HW235950   2.726   2.496  10.479
44685SOL     OW35951   2.097   0.261   5.571
44685SOL    HW135952   2.130   0.174   5.594
44685SOL    HW235953   2.077   0.254   5.478
44686SOL     OW35954  13.949   6.979   0.094
44686SOL    HW135955  13.923   6.901   0.144
44686SOL    HW235956  14.044   6.972   0.086
44687SOL     OW35957   4.542   5.776   9.011
44687SOL    HW135958   4.530   5.786   8.916
44687SOL    HW235959   4.593   5.853   9.037
44688SOL     OW35960   0.303   5.166   8.627
44688SOL    HW135961   0.316   5.081   8.585
44688SOL    HW235962   0.322   5.151   8.720
44689SOL     OW35963   3.391   1.491  10.192
44689SOL    HW135964   3.380   1.537  10.109
44689SOL    HW235965   3.454   1.422  10.173
44690SOL     OW35966   4.225   8.865  12.023
44690SOL    HW135967   4.192   8.855  12.112
44690SOL    HW235968   4.151   8.840  11.967
44691SOL     OW35969   9.855   0.184   0.364
44691SOL    HW135970   9.942   0.194   0.326
44691SOL    HW235971   9.856   0.242   0.441
44692SOL     OW35972   0.236   7.296  12.586
44692SOL    HW135973   0.219   7.306  12.492
44692SOL    HW235974   0.326   7.326  12.597
44693SOL     OW35975   4.718   3.438   3.629
44693SOL    HW135976   4.783   3.386   3.582
44693SOL    HW235977   4.760   3.461   3.712
44694SOL     OW35978  14.615   6.117   0.570
44694SOL    HW135979  14.622   6.135   0.664
44694SOL    HW235980  14.532   6.071   0.560
44695SOL     OW35981  14.141  11.241  10.226
44695SOL    HW135982  14.104  11.267  10.141
44695SOL    HW235983  14.235  11.242  10.212
44696SOL     OW35984   9.105   0.387  10.373
44696SOL    HW135985   9.086   0.354  10.285
44696SOL    HW235986   9.160   0.319  10.413
44697SOL     OW35987   2.370   7.269   8.974
44697SOL    HW135988   2.312   7.235   9.042
44697SOL    HW235989   2.320   7.340   8.933
44698SOL     OW35990  11.620   0.446  14.294
44698SOL    HW135991  11.666   0.503  14.233
44698SOL    HW235992  11.527   0.457  14.271
44699SOL     OW35993   1.959  11.951   6.244
44699SOL    HW135994   1.949  12.031   6.294
44699SOL    HW235995   2.013  11.894   6.299
44700SOL     OW35996   2.314   6.696   1.776
44700SOL    HW135997   2.350   6.721   1.861
44700SOL    HW235998   2.219   6.698   1.788
44701SOL     OW35999   0.521   2.414   1.780
44701SOL    HW136000   0.540   2.452   1.865
44701SOL    HW236001   0.431   2.441   1.761
44702SOL     OW36002  10.261   0.955  10.837
44702SOL    HW136003  10.315   0.968  10.758
44702SOL    HW236004  10.214   1.037  10.848
44703SOL     OW36005   6.070   5.959   4.994
44703SOL    HW136006   6.118   5.876   4.995
44703SOL    HW236007   6.118   6.015   5.055
44704SOL     OW36008  13.548  14.180   7.629
44704SOL    HW136009  13.593  14.216   7.705
44704SOL    HW236010  13.458  14.164   7.659
44705SOL     OW36011   8.595   2.009   0.356
44705SOL    HW136012   8.685   1.978   0.358
44705SOL    HW236013   8.543   1.931   0.376
44706SOL     OW36014  14.116   9.353   0.532
44706SOL    HW136015  14.123   9.300   0.612
44706SOL    HW236016  14.041   9.316   0.485
44707SOL     OW36017   6.252   0.641  12.808
44707SOL    HW136018   6.305   0.650  12.729
44707SOL    HW236019   6.288   0.705  12.869
44708SOL     OW36020   6.080   9.822   2.559
44708SOL    HW136021   6.175   9.831   2.552
44708SOL    HW236022   6.066   9.732   2.588
44709SOL     OW36023   7.885   1.237   8.230
44709SOL    HW136024   7.861   1.145   8.229
44709SOL    HW236025   7.813   1.281   8.185
44710SOL     OW36026  12.980  11.693   0.235
44710SOL    HW136027  13.042  11.645   0.181
44710SOL    HW236028  12.979  11.646   0.318
44711SOL     OW36029   5.136  11.304   3.935
44711SOL    HW136030   5.177  11.390   3.927
44711SOL    HW236031   5.135  11.269   3.846
44712SOL     OW36032  10.402   5.033  11.697
44712SOL    HW136033  10.398   4.943  11.665
44712SOL    HW236034  10.495   5.052  11.703
44713SOL     OW36035   8.652   5.720   5.455
44713SOL    HW136036   8.594   5.648   5.430
44713SOL    HW236037   8.738   5.693   5.422
44714SOL     OW36038  12.640   4.782  10.221
44714SOL    HW136039  12.691   4.780  10.302
44714SOL    HW236040  12.558   4.826  10.246
44715SOL     OW36041   3.906   3.966   8.954
44715SOL    HW136042   3.987   3.972   9.005
44715SOL    HW236043   3.917   4.031   8.884
44716SOL     OW36044   8.387   1.373  10.469
44716SOL    HW136045   8.425   1.460  10.466
44716SOL    HW236046   8.364   1.360  10.561
44717SOL     OW36047   1.067  13.916   0.993
44717SOL    HW136048   1.054  13.833   0.947
44717SOL    HW236049   1.067  13.893   1.085
44718SOL     OW36050   9.429   7.833   6.070
44718SOL    HW136051   9.425   7.760   6.009
44718SOL    HW236052   9.487   7.803   6.140
44719SOL     OW36053   4.811   6.117   4.715
44719SOL    HW136054   4.872   6.144   4.783
44719SOL    HW236055   4.756   6.050   4.756
44720SOL     OW36056   1.174  10.151   7.926
44720SOL    HW136057   1.101  10.142   7.865
44720SOL    HW236058   1.145  10.107   8.005
44721SOL     OW36059   7.872   8.899   4.951
44721SOL    HW136060   7.920   8.845   5.014
44721SOL    HW236061   7.787   8.914   4.992
44722SOL     OW36062  10.382   8.424   6.529
44722SOL    HW136063  10.315   8.451   6.592
44722SOL    HW236064  10.395   8.331   6.546
44723SOL     OW36065  14.681   2.325   6.469
44723SOL    HW136066  14.597   2.317   6.423
44723SOL    HW236067  14.708   2.235   6.485
44724SOL     OW36068   2.791  13.095   3.730
44724SOL    HW136069   2.756  13.079   3.818
44724SOL    HW236070   2.801  13.008   3.692
44725SOL     OW36071   6.458   2.339   3.510
44725SOL    HW136072   6.495   2.262   3.467
44725SOL    HW236073   6.408   2.305   3.584
44726SOL     OW36074   7.179  12.140   7.034
44726SOL    HW136075   7.119  12.066   7.036
44726SOL    HW236076   7.191  12.159   6.941
44727SOL     OW36077   7.224   2.223  14.494
44727SOL    HW136078   7.191   2.170  14.421
44727SOL    HW236079   7.314   2.195  14.505
44728SOL     OW36080   1.591  10.029   8.704
44728SOL    HW136081   1.548  10.043   8.788
44728SOL    HW236082   1.521  10.036   8.639
44729SOL     OW36083  13.147   8.760   9.000
44729SOL    HW136084  13.235   8.797   8.994
44729SOL    HW236085  13.116   8.759   8.910
44730SOL     OW36086   4.858   8.688   7.280
44730SOL    HW136087   4.926   8.729   7.335
44730SOL    HW236088   4.905   8.621   7.231
44731SOL     OW36089   4.057   0.130   0.963
44731SOL    HW136090   3.973   0.099   0.930
44731SOL    HW236091   4.058   0.103   1.055
44732SOL     OW36092   2.523   8.658   1.919
44732SOL    HW136093   2.508   8.566   1.896
44732SOL    HW236094   2.591   8.655   1.986
44733SOL     OW36095  14.140   8.942   5.872
44733SOL    HW136096  14.080   8.875   5.838
44733SOL    HW236097  14.211   8.945   5.809
44734SOL     OW36098   4.738   3.303  11.160
44734SOL    HW136099   4.730   3.370  11.092
44734SOL    HW236100   4.826   3.314  11.195
44735SOL     OW36101   6.710   3.171   0.731
44735SOL    HW136102   6.651   3.245   0.737
44735SOL    HW236103   6.706   3.143   0.639
44736SOL     OW36104   1.591   5.170   6.098
44736SOL    HW136105   1.681   5.197   6.120
44736SOL    HW236106   1.587   5.177   6.003
44737SOL     OW36107   9.888   5.256  14.059
44737SOL    HW136108   9.865   5.318  13.990
44737SOL    HW236109   9.815   5.260  14.121
44738SOL     OW36110   9.267  10.596   6.422
44738SOL    HW136111   9.302  10.680   6.391
44738SOL    HW236112   9.296  10.590   6.513
44739SOL     OW36113   4.792  11.088  10.669
44739SOL    HW136114   4.773  11.144  10.744
44739SOL    HW236115   4.882  11.110  10.645
44740SOL     OW36116   8.435   3.697   1.620
44740SOL    HW136117   8.514   3.644   1.610
44740SOL    HW236118   8.453   3.753   1.696
44741SOL     OW36119   0.757  12.455  12.989
44741SOL    HW136120   0.711  12.497  13.062
44741SOL    HW236121   0.696  12.460  12.916
44742SOL     OW36122   8.535   3.526   8.841
44742SOL    HW136123   8.487   3.483   8.911
44742SOL    HW236124   8.469   3.543   8.774
44743SOL     OW36125   9.218   1.395   9.060
44743SOL    HW136126   9.226   1.327   8.994
44743SOL    HW236127   9.152   1.362   9.121
44744SOL     OW36128  10.352   7.046   6.990
44744SOL    HW136129  10.387   6.976   6.935
44744SOL    HW236130  10.258   7.031   6.992
44745SOL     OW36131  14.314  14.754   5.254
44745SOL    HW136132  14.258  14.737   5.330
44745SOL    HW236133  14.290  14.686   5.191
44746SOL     OW36134   1.339  13.334  10.819
44746SOL    HW136135   1.375  13.326  10.908
44746SOL    HW236136   1.273  13.265  10.814
44747SOL     OW36137   6.923  10.901  11.673
44747SOL    HW136138   6.864  10.969  11.639
44747SOL    HW236139   6.909  10.826  11.615
44748SOL     OW36140  11.504   6.574  14.817
44748SOL    HW136141  11.486   6.665  14.794
44748SOL    HW236142  11.504   6.572   0.032
44749SOL     OW36143   5.277  12.417   9.902
44749SOL    HW136144   5.368  12.402   9.929
44749SOL    HW236145   5.224  12.386   9.975
44750SOL     OW36146  13.571   8.122   8.144
44750SOL    HW136147  13.622   8.176   8.084
44750SOL    HW236148  13.632   8.055   8.174
44751SOL     OW36149  12.562   6.501   5.590
44751SOL    HW136150  12.502   6.432   5.561
44751SOL    HW236151  12.565   6.492   5.685
44752SOL     OW36152   4.349  10.691   8.670
44752SOL    HW136153   4.303  10.773   8.688
44752SOL    HW236154   4.391  10.706   8.585
44753SOL     OW36155  10.867   7.452   1.204
44753SOL    HW136156  10.919   7.464   1.283
44753SOL    HW236157  10.878   7.359   1.182
44754SOL     OW36158  12.504  12.061   9.304
44754SOL    HW136159  12.477  12.152   9.298
44754SOL    HW236160  12.496  12.027   9.214
44755SOL     OW36161   8.923  14.677   7.128
44755SOL    HW136162   8.914  14.758   7.179
44755SOL    HW236163   8.882  14.610   7.183
44756SOL     OW36164   8.292   6.179  13.473
44756SOL    HW136165   8.283   6.271  13.449
44756SOL    HW236166   8.217   6.136  13.431
44757SOL     OW36167   7.598   7.504  10.516
44757SOL    HW136168   7.562   7.521  10.603
44757SOL    HW236169   7.683   7.548  10.517
44758SOL     OW36170   8.732   8.035   4.012
44758SOL    HW136171   8.648   8.020   3.970
44758SOL    HW236172   8.744   8.130   4.010
44759SOL     OW36173   8.687  10.943  12.680
44759SOL    HW136174   8.674  11.036  12.660
44759SOL    HW236175   8.599  10.912  12.704
44760SOL     OW36176   2.575   3.407   5.171
44760SOL    HW136177   2.504   3.400   5.234
44760SOL    HW236178   2.531   3.418   5.087
44761SOL     OW36179  13.671  13.630  10.452
44761SOL    HW136180  13.722  13.709  10.471
44761SOL    HW236181  13.726  13.558  10.484
44762SOL     OW36182   7.051  14.314   2.825
44762SOL    HW136183   6.980  14.270   2.777
44762SOL    HW236184   7.038  14.289   2.916
44763SOL     OW36185   8.107   3.667   6.240
44763SOL    HW136186   8.169   3.724   6.195
44763SOL    HW236187   8.021   3.705   6.220
44764SOL     OW36188  13.484   8.360  13.659
44764SOL    HW136189  13.508   8.379  13.568
44764SOL    HW236190  13.444   8.273  13.656
44765SOL     OW36191  11.324   1.861   8.271
44765SOL    HW136192  11.256   1.830   8.331
44765SOL    HW236193  11.401   1.870   8.325
44766SOL     OW36194  12.265  14.542   0.686
44766SOL    HW136195  12.291  14.531   0.594
44766SOL    HW236196  12.246  14.635   0.694
44767SOL     OW36197   4.070  14.434  11.928
44767SOL    HW136198   4.042  14.479  11.848
44767SOL    HW236199   4.098  14.504  11.987
44768SOL     OW36200   4.501  11.565   9.006
44768SOL    HW136201   4.553  11.630   8.960
44768SOL    HW236202   4.564  11.519   9.062
44769SOL     OW36203   0.460   8.582   4.192
44769SOL    HW136204   0.506   8.501   4.212
44769SOL    HW236205   0.483   8.603   4.102
44770SOL     OW36206  10.125  13.271   4.077
44770SOL    HW136207  10.138  13.241   3.986
44770SOL    HW236208  10.079  13.198   4.119
44771SOL     OW36209   6.938   3.143   6.134
44771SOL    HW136210   6.904   3.062   6.095
44771SOL    HW236211   7.019   3.115   6.178
44772SOL     OW36212   8.288  13.654   8.142
44772SOL    HW136213   8.274  13.592   8.214
44772SOL    HW236214   8.258  13.738   8.175
44773SOL     OW36215  10.996  13.870   0.485
44773SOL    HW136216  11.019  13.843   0.574
44773SOL    HW236217  10.914  13.919   0.496
44774SOL     OW36218  11.362   8.208   5.211
44774SOL    HW136219  11.398   8.119   5.212
44774SOL    HW236220  11.285   8.201   5.153
44775SOL     OW36221   3.759  12.748  14.414
44775SOL    HW136222   3.844  12.748  14.459
44775SOL    HW236223   3.779  12.777  14.325
44776SOL     OW36224   4.791  10.814   1.182
44776SOL    HW136225   4.833  10.876   1.122
44776SOL    HW236226   4.712  10.858   1.211
44777SOL     OW36227   0.815   1.211   5.765
44777SOL    HW136228   0.771   1.160   5.833
44777SOL    HW236229   0.881   1.262   5.811
44778SOL     OW36230   2.542   8.927   9.558
44778SOL    HW136231   2.590   9.009   9.550
44778SOL    HW236232   2.548   8.887   9.471
44779SOL     OW36233  14.611  11.407   1.306
44779SOL    HW136234  14.602  11.481   1.365
44779SOL    HW236235  14.669  11.346   1.352
44780SOL     OW36236  10.082  14.148   3.252
44780SOL    HW136237  10.033  14.073   3.219
44780SOL    HW236238  10.173  14.118   3.256
44781SOL     OW36239   4.469  10.348   4.556
44781SOL    HW136240   4.414  10.304   4.622
44781SOL    HW236241   4.411  10.360   4.481
44782SOL     OW36242   2.750  11.400  11.093
44782SOL    HW136243   2.715  11.476  11.139
44782SOL    HW236244   2.845  11.408  11.102
44783SOL     OW36245  11.295   1.216   1.548
44783SOL    HW136246  11.319   1.305   1.572
44783SOL    HW236247  11.321   1.208   1.456
44784SOL     OW36248  10.007   2.602   2.649
44784SOL    HW136249  10.046   2.664   2.587
44784SOL    HW236250   9.921   2.584   2.613
44785SOL     OW36251   0.556   4.912   0.032
44785SOL    HW136252   0.536   4.994  14.867
44785SOL    HW236253   0.632   4.877  14.866
44786SOL     OW36254   4.458  12.964   6.253
44786SOL    HW136255   4.366  12.950   6.232
44786SOL    HW236256   4.459  12.978   6.347
44787SOL     OW36257   8.146  10.215  12.237
44787SOL    HW136258   8.069  10.186  12.285
44787SOL    HW236259   8.216  10.214  12.302
44788SOL     OW36260  12.839   3.443  12.680
44788SOL    HW136261  12.918   3.438  12.734
44788SOL    HW236262  12.869   3.420  12.592
44789SOL     OW36263  13.989   4.875  10.267
44789SOL    HW136264  13.933   4.901  10.340
44789SOL    HW236265  14.048   4.950  10.255
44790SOL     OW36266   1.582  13.804   1.827
44790SOL    HW136267   1.604  13.731   1.884
44790SOL    HW236268   1.578  13.766   1.739
44791SOL     OW36269   5.175  13.239   8.683
44791SOL    HW136270   5.211  13.317   8.643
44791SOL    HW236271   5.103  13.213   8.626
44792SOL     OW36272   1.534  11.170  14.297
44792SOL    HW136273   1.608  11.228  14.278
44792SOL    HW236274   1.507  11.195  14.386
44793SOL     OW36275   5.445   0.177   7.612
44793SOL    HW136276   5.375   0.230   7.651
44793SOL    HW236277   5.399   0.111   7.559
44794SOL     OW36278   9.626   2.855   3.006
44794SOL    HW136279   9.597   2.912   2.935
44794SOL    HW236280   9.679   2.789   2.962
44795SOL     OW36281   3.004   0.113   0.639
44795SOL    HW136282   3.067   0.091   0.570
44795SOL    HW236283   2.931   0.054   0.624
44796SOL     OW36284   6.219  10.782  12.324
44796SOL    HW136285   6.124  10.784  12.337
44796SOL    HW236286   6.234  10.838  12.248
44797SOL     OW36287  13.547   7.102   5.589
44797SOL    HW136288  13.569   7.156   5.513
44797SOL    HW236289  13.509   7.023   5.551
44798SOL     OW36290  14.663   4.600   3.324
44798SOL    HW136291  14.716   4.535   3.371
44798SOL    HW236292  14.689   4.590   3.233
44799SOL     OW36293   5.408   5.257   6.361
44799SOL    HW136294   5.479   5.257   6.424
44799SOL    HW236295   5.451   5.245   6.276
44800SOL     OW36296   9.231   7.720   6.993
44800SOL    HW136297   9.194   7.759   6.914
44800SOL    HW236298   9.246   7.793   7.052
44801SOL     OW36299   4.429   6.475   1.650
44801SOL    HW136300   4.494   6.441   1.711
44801SOL    HW236301   4.359   6.509   1.706
44802SOL     OW36302  10.313   4.819   3.217
44802SOL    HW136303  10.387   4.787   3.166
44802SOL    HW236304  10.238   4.812   3.157
44803SOL     OW36305   6.798   7.580   0.675
44803SOL    HW136306   6.713   7.609   0.641
44803SOL    HW236307   6.776   7.523   0.749
44804SOL     OW36308  11.306   4.788   1.800
44804SOL    HW136309  11.223   4.748   1.778
44804SOL    HW236310  11.300   4.877   1.766
44805SOL     OW36311   6.171  13.810   6.063
44805SOL    HW136312   6.201  13.723   6.038
44805SOL    HW236313   6.080  13.798   6.088
44806SOL     OW36314   5.336  10.360   6.137
44806SOL    HW136315   5.391  10.397   6.206
44806SOL    HW236316   5.257  10.414   6.137
44807SOL     OW36317   5.418  14.813   4.454
44807SOL    HW136318   5.505  14.812   4.414
44807SOL    HW236319   5.423  14.746   4.522
44808SOL     OW36320   1.457   0.722   3.675
44808SOL    HW136321   1.402   0.788   3.633
44808SOL    HW236322   1.504   0.680   3.603
44809SOL     OW36323   2.814   2.687   0.781
44809SOL    HW136324   2.736   2.667   0.832
44809SOL    HW236325   2.887   2.678   0.842
44810SOL     OW36326   0.299   4.425   4.390
44810SOL    HW136327   0.337   4.513   4.399
44810SOL    HW236328   0.246   4.414   4.469
44811SOL     OW36329   7.884   6.495   3.778
44811SOL    HW136330   7.949   6.564   3.767
44811SOL    HW236331   7.814   6.520   3.717
44812SOL     OW36332  12.189   6.180  11.015
44812SOL    HW136333  12.137   6.200  11.093
44812SOL    HW236334  12.276   6.216  11.034
44813SOL     OW36335  14.810   3.487   1.286
44813SOL    HW136336   0.016   3.518   1.258
44813SOL    HW236337  14.752   3.562   1.272
44814SOL     OW36338   6.490  11.269  12.041
44814SOL    HW136339   6.581  11.258  12.011
44814SOL    HW236340   6.498  11.283  12.135
44815SOL     OW36341   1.831   2.209   4.541
44815SOL    HW136342   1.921   2.218   4.573
44815SOL    HW236343   1.777   2.239   4.614
44816SOL     OW36344   9.172   1.928   2.150
44816SOL    HW136345   9.138   2.008   2.110
44816SOL    HW236346   9.208   1.878   2.077
44817SOL     OW36347   8.693  10.600  12.797
44817SOL    HW136348   8.682  10.511  12.830
44817SOL    HW236349   8.617  10.614  12.741
44818SOL     OW36350  13.438   5.109   7.970
44818SOL    HW136351  13.477   5.058   8.041
44818SOL    HW236352  13.364   5.056   7.940
44819SOL     OW36353  13.063   1.974   1.146
44819SOL    HW136354  13.039   2.067   1.144
44819SOL    HW236355  13.146   1.972   1.194
44820SOL     OW36356   6.646  11.657   4.157
44820SOL    HW136357   6.622  11.571   4.189
44820SOL    HW236358   6.737  11.648   4.128
44821SOL     OW36359  12.660   0.775  10.600
44821SOL    HW136360  12.712   0.705  10.642
44821SOL    HW236361  12.587   0.729  10.559
44822SOL     OW36362   0.291   1.803  11.116
44822SOL    HW136363   0.234   1.728  11.097
44822SOL    HW236364   0.379   1.765  11.117
44823SOL     OW36365  10.708   6.455   7.024
44823SOL    HW136366  10.700   6.392   7.095
44823SOL    HW236367  10.710   6.540   7.068
44824SOL     OW36368   8.016   7.134   1.541
44824SOL    HW136369   8.012   7.186   1.621
44824SOL    HW236370   8.074   7.062   1.562
44825SOL     OW36371  14.827   7.638  14.873
44825SOL    HW136372  14.736   7.650   0.021
44825SOL    HW236373  14.876   7.706   0.038
44826SOL     OW36374   7.364  10.328  11.737
44826SOL    HW136375   7.339  10.260  11.675
44826SOL    HW236376   7.392  10.281  11.815
44827SOL     OW36377  11.264  13.453   7.950
44827SOL    HW136378  11.357  13.475   7.962
44827SOL    HW236379  11.225  13.534   7.917
44828SOL     OW36380   1.394   9.597   1.697
44828SOL    HW136381   1.360   9.664   1.757
44828SOL    HW236382   1.457   9.643   1.642
44829SOL     OW36383  14.709  13.734   9.421
44829SOL    HW136384  14.625  13.725   9.376
44829SOL    HW236385  14.749  13.647   9.412
44830SOL     OW36386   6.806  12.852  11.904
44830SOL    HW136387   6.831  12.843  11.813
44830SOL    HW236388   6.739  12.785  11.917
44831SOL     OW36389   3.708   3.610   1.277
44831SOL    HW136390   3.792   3.565   1.277
44831SOL    HW236391   3.730   3.703   1.285
44832SOL     OW36392  11.335   1.031  11.736
44832SOL    HW136393  11.313   0.939  11.752
44832SOL    HW236394  11.352   1.036  11.642
44833SOL     OW36395   3.218   7.899  10.288
44833SOL    HW136396   3.167   7.898  10.369
44833SOL    HW236397   3.201   7.814  10.248
44834SOL     OW36398  10.830  11.873  11.687
44834SOL    HW136399  10.735  11.872  11.687
44834SOL    HW236400  10.855  11.809  11.753
44835SOL     OW36401  11.606   2.712   2.822
44835SOL    HW136402  11.598   2.617   2.820
44835SOL    HW236403  11.631   2.732   2.913
44836SOL     OW36404  10.962   0.064   7.552
44836SOL    HW136405  10.948   0.004   7.478
44836SOL    HW236406  10.986   0.147   7.510
44837SOL     OW36407  11.411   7.322   0.503
44837SOL    HW136408  11.439   7.378   0.576
44837SOL    HW236409  11.364   7.381   0.444
44838SOL     OW36410   8.108  10.293  13.990
44838SOL    HW136411   8.124  10.230  13.920
44838SOL    HW236412   8.034  10.345  13.959
44839SOL     OW36413   0.671  14.015  13.497
44839SOL    HW136414   0.757  13.992  13.533
44839SOL    HW236415   0.624  13.932  13.492
44840SOL     OW36416  10.879  13.161   6.127
44840SOL    HW136417  10.873  13.234   6.189
44840SOL    HW236418  10.970  13.130   6.135
44841SOL     OW36419  14.109   0.572   4.900
44841SOL    HW136420  14.057   0.551   4.823
44841SOL    HW236421  14.115   0.667   4.901
44842SOL     OW36422  11.972   9.187   4.078
44842SOL    HW136423  11.922   9.218   4.153
44842SOL    HW236424  11.954   9.093   4.073
44843SOL     OW36425  11.368   4.421   1.514
44843SOL    HW136426  11.300   4.462   1.460
44843SOL    HW236427  11.408   4.494   1.562
44844SOL     OW36428  14.255   6.589   5.920
44844SOL    HW136429  14.303   6.513   5.952
44844SOL    HW236430  14.321   6.658   5.913
44845SOL     OW36431   9.583   5.446  10.347
44845SOL    HW136432   9.500   5.443  10.301
44845SOL    HW236433   9.647   5.411  10.285
44846SOL     OW36434  12.590   7.543   3.713
44846SOL    HW136435  12.589   7.622   3.660
44846SOL    HW236436  12.614   7.573   3.801
44847SOL     OW36437   1.435  10.099  14.686
44847SOL    HW136438   1.522  10.102  14.727
44847SOL    HW236439   1.401  10.012  14.707
44848SOL     OW36440   3.639   4.347   1.795
44848SOL    HW136441   3.664   4.296   1.872
44848SOL    HW236442   3.722   4.379   1.760
44849SOL     OW36443   2.774   0.427   9.396
44849SOL    HW136444   2.689   0.448   9.358
44849SOL    HW236445   2.773   0.468   9.483
44850SOL     OW36446  13.232   7.019  13.113
44850SOL    HW136447  13.182   6.937  13.110
44850SOL    HW236448  13.166   7.087  13.124
44851SOL     OW36449   9.761  13.056  12.366
44851SOL    HW136450   9.668  13.036  12.363
44851SOL    HW236451   9.773  13.105  12.447
44852SOL     OW36452   0.149   2.988   9.838
44852SOL    HW136453   0.165   2.973   9.931
44852SOL    HW236454   0.064   3.033   9.836
44853SOL     OW36455   8.381   0.657   7.383
44853SOL    HW136456   8.460   0.702   7.354
44853SOL    HW236457   8.375   0.579   7.326
44854SOL     OW36458   1.079  14.581   8.669
44854SOL    HW136459   1.072  14.644   8.597
44854SOL    HW236460   1.158  14.608   8.716
44855SOL     OW36461   5.401  11.165   8.601
44855SOL    HW136462   5.468  11.232   8.611
44855SOL    HW236463   5.329  11.194   8.657
44856SOL     OW36464  12.488   5.552   4.010
44856SOL    HW136465  12.527   5.608   3.943
44856SOL    HW236466  12.563   5.503   4.045
44857SOL     OW36467   2.620   2.260  13.868
44857SOL    HW136468   2.574   2.311  13.935
44857SOL    HW236469   2.704   2.239  13.909
44858SOL     OW36470  11.106   1.644   0.164
44858SOL    HW136471  11.177   1.632   0.227
44858SOL    HW236472  11.143   1.618   0.080
44859SOL     OW36473  13.631   6.360  14.253
44859SOL    HW136474  13.560   6.305  14.285
44859SOL    HW236475  13.598   6.450  14.260
44860SOL     OW36476   2.068   5.366   5.704
44860SOL    HW136477   2.074   5.280   5.663
44860SOL    HW236478   2.045   5.425   5.633
44861SOL     OW36479   9.495  13.784   2.722
44861SOL    HW136480   9.430  13.715   2.731
44861SOL    HW236481   9.494  13.830   2.806
44862SOL     OW36482   8.709   7.426   6.395
44862SOL    HW136483   8.791   7.393   6.431
44862SOL    HW236484   8.651   7.435   6.470
44863SOL     OW36485   6.102   3.479   2.261
44863SOL    HW136486   6.099   3.540   2.187
44863SOL    HW236487   6.010   3.454   2.275
44864SOL     OW36488   2.587   2.366   2.420
44864SOL    HW136489   2.492   2.356   2.408
44864SOL    HW236490   2.598   2.458   2.443
44865SOL     OW36491   7.937   6.492   6.184
44865SOL    HW136492   8.033   6.491   6.184
44865SOL    HW236493   7.914   6.561   6.246
44866SOL     OW36494   9.095  14.410   6.041
44866SOL    HW136495   9.036  14.472   5.999
44866SOL    HW236496   9.079  14.327   5.997
44867SOL     OW36497  14.574   8.182   0.685
44867SOL    HW136498  14.632   8.181   0.609
44867SOL    HW236499  14.613   8.119   0.746
44868SOL     OW36500  13.158  12.314   4.596
44868SOL    HW136501  13.198  12.391   4.635
44868SOL    HW236502  13.064  12.334   4.594
44869SOL     OW36503  11.497  14.559  12.316
44869SOL    HW136504  11.545  14.576  12.235
44869SOL    HW236505  11.550  14.603  12.384
44870SOL     OW36506  10.279  14.096  10.281
44870SOL    HW136507  10.294  14.063  10.193
44870SOL    HW236508  10.272  14.017  10.335
44871SOL     OW36509   6.931  14.568   5.704
44871SOL    HW136510   6.857  14.507   5.709
44871SOL    HW236511   6.929  14.615   5.787
44872SOL     OW36512   2.906   0.528   4.135
44872SOL    HW136513   2.969   0.549   4.204
44872SOL    HW236514   2.904   0.606   4.080
44873SOL     OW36515  13.504   1.727   4.694
44873SOL    HW136516  13.574   1.742   4.758
44873SOL    HW236517  13.523   1.640   4.659
44874SOL     OW36518   8.115  11.154  10.305
44874SOL    HW136519   8.075  11.210  10.371
44874SOL    HW236520   8.209  11.164  10.318
44875SOL     OW36521   2.438   2.795   0.616
44875SOL    HW136522   2.519   2.811   0.567
44875SOL    HW236523   2.465   2.743   0.691
44876SOL     OW36524   9.457   8.541  12.062
44876SOL    HW136525   9.474   8.487  11.985
44876SOL    HW236526   9.368   8.517  12.088
44877SOL     OW36527   5.033   1.152  14.367
44877SOL    HW136528   4.979   1.137  14.445
44877SOL    HW236529   5.110   1.097  14.380
44878SOL     OW36530   8.175   7.559   0.659
44878SOL    HW136531   8.155   7.581   0.750
44878SOL    HW236532   8.228   7.480   0.664
44879SOL     OW36533   8.308   7.014  11.406
44879SOL    HW136534   8.270   7.074  11.469
44879SOL    HW236535   8.393   7.052  11.384
44880SOL     OW36536   9.854   5.064   0.400
44880SOL    HW136537   9.783   5.066   0.336
44880SOL    HW236538   9.810   5.059   0.485
44881SOL     OW36539   0.136  10.139   5.109
44881SOL    HW136540   0.168  10.224   5.078
44881SOL    HW236541   0.047  10.132   5.074
44882SOL     OW36542   5.503   2.540  11.821
44882SOL    HW136543   5.492   2.625  11.777
44882SOL    HW236544   5.466   2.477  11.759
44883SOL     OW36545   7.507   0.175   5.224
44883SOL    HW136546   7.514   0.105   5.159
44883SOL    HW236547   7.422   0.159   5.266
44884SOL     OW36548   7.577  11.092  11.282
44884SOL    HW136549   7.545  11.009  11.319
44884SOL    HW236550   7.509  11.119  11.220
44885SOL     OW36551  10.056   8.750   3.613
44885SOL    HW136552  10.009   8.719   3.690
44885SOL    HW236553  10.060   8.675   3.554
44886SOL     OW36554   0.027   3.822   6.665
44886SOL    HW136555  14.858   3.904   6.661
44886SOL    HW236556  14.842   3.756   6.688
44887SOL     OW36557   4.297   1.563   5.686
44887SOL    HW136558   4.231   1.574   5.617
44887SOL    HW236559   4.380   1.556   5.639
44888SOL     OW36560   6.967   7.925   8.574
44888SOL    HW136561   6.905   7.930   8.646
44888SOL    HW236562   7.023   7.849   8.595
44889SOL     OW36563   3.771   1.208   2.005
44889SOL    HW136564   3.796   1.139   1.945
44889SOL    HW236565   3.681   1.187   2.029
44890SOL     OW36566   6.829   7.136   7.870
44890SOL    HW136567   6.864   7.215   7.830
44890SOL    HW236568   6.736   7.136   7.847
44891SOL     OW36569   7.998   7.894   9.302
44891SOL    HW136570   8.025   7.923   9.389
44891SOL    HW236571   7.904   7.909   9.300
44892SOL     OW36572  11.550   1.286   0.698
44892SOL    HW136573  11.609   1.351   0.660
44892SOL    HW236574  11.603   1.240   0.763
44893SOL     OW36575   8.408   3.434   3.619
44893SOL    HW136576   8.388   3.520   3.582
44893SOL    HW236577   8.328   3.409   3.666
44894SOL     OW36578  13.680   6.063   8.038
44894SOL    HW136579  13.636   6.010   7.972
44894SOL    HW236580  13.617   6.131   8.061
44895SOL     OW36581   5.153   4.574  11.381
44895SOL    HW136582   5.225   4.518  11.352
44895SOL    HW236583   5.102   4.590  11.301
44896SOL     OW36584  11.043   4.211   5.332
44896SOL    HW136585  11.076   4.226   5.421
44896SOL    HW236586  11.056   4.117   5.317
44897SOL     OW36587   2.434  10.510   4.111
44897SOL    HW136588   2.375  10.477   4.179
44897SOL    HW236589   2.452  10.435   4.056
44898SOL     OW36590   4.645   2.798   2.326
44898SOL    HW136591   4.714   2.735   2.348
44898SOL    HW236592   4.652   2.865   2.394
44899SOL     OW36593   3.634  14.814   1.015
44899SOL    HW136594   3.614  14.788   0.925
44899SOL    HW236595   3.625  14.733   1.065
44900SOL     OW36596   0.677  13.490  13.863
44900SOL    HW136597   0.707  13.551  13.796
44900SOL    HW236598   0.587  13.515  13.880
44901SOL     OW36599   8.807  10.938   8.142
44901SOL    HW136600   8.898  10.908   8.151
44901SOL    HW236601   8.760  10.861   8.110
44902SOL     OW36602   8.776  12.510  10.206
44902SOL    HW136603   8.688  12.536  10.232
44902SOL    HW236604   8.813  12.587  10.165
44903SOL     OW36605   4.328  11.103   7.614
44903SOL    HW136606   4.280  11.043   7.671
44903SOL    HW236607   4.262  11.168   7.589
44904SOL     OW36608  14.448   9.103   8.590
44904SOL    HW136609  14.477   9.132   8.677
44904SOL    HW236610  14.503   9.154   8.529
44905SOL     OW36611   3.077   9.417   5.541
44905SOL    HW136612   2.994   9.433   5.586
44905SOL    HW236613   3.127   9.498   5.552
44906SOL     OW36614  12.820   5.167  13.964
44906SOL    HW136615  12.736   5.125  13.984
44906SOL    HW236616  12.805   5.216  13.884
44907SOL     OW36617  14.747  14.439  14.872
44907SOL    HW136618  14.777  14.428  14.782
44907SOL    HW236619  14.827  14.448   0.043
44908SOL     OW36620   5.759   4.459   9.343
44908SOL    HW136621   5.799   4.533   9.387
44908SOL    HW236622   5.823   4.389   9.350
44909SOL     OW36623   2.707   3.244  13.842
44909SOL    HW136624   2.664   3.304  13.902
44909SOL    HW236625   2.640   3.220  13.778
44910SOL     OW36626   8.798   6.330   9.444
44910SOL    HW136627   8.735   6.329   9.372
44910SOL    HW236628   8.795   6.420   9.477
44911SOL     OW36629  10.373   7.157   8.091
44911SOL    HW136630  10.363   7.067   8.123
44911SOL    HW236631  10.284   7.189   8.082
44912SOL     OW36632   1.782   0.018  14.464
44912SOL    HW136633   1.771  14.805  14.449
44912SOL    HW236634   1.765   0.059  14.379
44913SOL     OW36635  11.586   4.370   0.653
44913SOL    HW136636  11.638   4.297   0.685
44913SOL    HW236637  11.499   4.357   0.692
44914SOL     OW36638   9.525   3.657   4.949
44914SOL    HW136639   9.469   3.586   4.982
44914SOL    HW236640   9.614   3.627   4.964
44915SOL     OW36641  10.962   5.667   2.462
44915SOL    HW136642  10.985   5.584   2.504
44915SOL    HW236643  10.896   5.643   2.397
44916SOL     OW36644   0.013   4.999   9.276
44916SOL    HW136645   0.015   5.076   9.219
44916SOL    HW236646   0.106   4.981   9.294
44917SOL     OW36647   6.800   9.540   5.380
44917SOL    HW136648   6.885   9.507   5.352
44917SOL    HW236649   6.762   9.581   5.301
44918SOL     OW36650  10.636   8.151   0.538
44918SOL    HW136651  10.667   8.218   0.599
44918SOL    HW236652  10.619   8.198   0.456
44919SOL     OW36653   3.853   4.369   7.472
44919SOL    HW136654   3.928   4.353   7.529
44919SOL    HW236655   3.777   4.342   7.523
44920SOL     OW36656   0.699  14.074   6.407
44920SOL    HW136657   0.773  14.130   6.385
44920SOL    HW236658   0.648  14.126   6.469
44921SOL     OW36659   7.289   0.928  13.812
44921SOL    HW136660   7.225   0.971  13.868
44921SOL    HW236661   7.346   0.881  13.873
44922SOL     OW36662  10.749  10.891   5.298
44922SOL    HW136663  10.833  10.904   5.342
44922SOL    HW236664  10.710  10.817   5.343
44923SOL     OW36665  14.753  11.175   1.428
44923SOL    HW136666  14.699  11.111   1.475
44923SOL    HW236667  14.796  11.124   1.360
44924SOL     OW36668   8.519   9.512   7.549
44924SOL    HW136669   8.515   9.472   7.636
44924SOL    HW236670   8.585   9.581   7.557
44925SOL     OW36671   0.842   6.467   8.186
44925SOL    HW136672   0.913   6.526   8.213
44925SOL    HW236673   0.784   6.522   8.134
44926SOL     OW36674   1.140   2.882   5.296
44926SOL    HW136675   1.081   2.808   5.309
44926SOL    HW236676   1.169   2.905   5.384
44927SOL     OW36677  13.610   3.995   0.480
44927SOL    HW136678  13.530   3.971   0.526
44927SOL    HW236679  13.625   3.922   0.418
44928SOL     OW36680   0.915  12.774   3.876
44928SOL    HW136681   0.845  12.802   3.935
44928SOL    HW236682   0.884  12.800   3.789
44929SOL     OW36683   6.892   2.870   8.183
44929SOL    HW136684   6.986   2.884   8.182
44929SOL    HW236685   6.861   2.919   8.259
44930SOL     OW36686   7.103  10.605   5.533
44930SOL    HW136687   7.126  10.689   5.493
44930SOL    HW236688   7.122  10.618   5.626
44931SOL     OW36689   2.851   8.721   5.970
44931SOL    HW136690   2.822   8.812   5.970
44931SOL    HW236691   2.809   8.682   5.893
44932SOL     OW36692  12.791  13.121   4.971
44932SOL    HW136693  12.718  13.184   4.971
44932SOL    HW236694  12.796  13.091   5.062
44933SOL     OW36695  12.883  10.291   6.061
44933SOL    HW136696  12.855  10.361   6.121
44933SOL    HW236697  12.931  10.230   6.117
44934SOL     OW36698  14.257   4.915   6.496
44934SOL    HW136699  14.329   4.859   6.466
44934SOL    HW236700  14.178   4.863   6.483
44935SOL     OW36701   0.159   3.749  13.226
44935SOL    HW136702   0.235   3.696  13.202
44935SOL    HW236703   0.163   3.824  13.168
44936SOL     OW36704   4.653  10.963  12.585
44936SOL    HW136705   4.586  10.985  12.521
44936SOL    HW236706   4.730  11.013  12.559
44937SOL     OW36707   9.401   1.223  13.758
44937SOL    HW136708   9.385   1.151  13.819
44937SOL    HW236709   9.491   1.209  13.728
44938SOL     OW36710   5.884  10.841  11.134
44938SOL    HW136711   5.958  10.781  11.124
44938SOL    HW236712   5.921  10.928  11.120
44939SOL     OW36713   1.880  11.902   1.165
44939SOL    HW136714   1.945  11.838   1.139
44939SOL    HW236715   1.799  11.853   1.173
44940SOL     OW36716   0.259   4.273   6.890
44940SOL    HW136717   0.305   4.348   6.853
44940SOL    HW236718   0.244   4.215   6.815
44941SOL     OW36719  14.854  10.023   3.823
44941SOL    HW136720   0.017  10.062   3.748
44941SOL    HW236721   0.041   9.970   3.865
44942SOL     OW36722   7.464   1.545   9.583
44942SOL    HW136723   7.503   1.457   9.587
44942SOL    HW236724   7.537   1.602   9.559
44943SOL     OW36725   6.542   3.450   0.722
44943SOL    HW136726   6.459   3.405   0.707
44943SOL    HW236727   6.530   3.494   0.806
44944SOL     OW36728   5.103   0.868   3.903
44944SOL    HW136729   5.046   0.792   3.914
44944SOL    HW236730   5.185   0.843   3.946
44945SOL     OW36731  11.279   1.800  12.375
44945SOL    HW136732  11.348   1.744  12.411
44945SOL    HW236733  11.240   1.748  12.305
44946SOL     OW36734  14.485  13.485   8.455
44946SOL    HW136735  14.458  13.394   8.468
44946SOL    HW236736  14.462  13.503   8.363
44947SOL     OW36737  10.509  10.988   3.340
44947SOL    HW136738  10.480  10.899   3.361
44947SOL    HW236739  10.535  10.983   3.248
44948SOL     OW36740  14.242   8.121  14.565
44948SOL    HW136741  14.278   8.136  14.653
44948SOL    HW236742  14.228   8.209  14.530
44949SOL     OW36743  12.647   3.468  12.860
44949SOL    HW136744  12.719   3.459  12.798
44949SOL    HW236745  12.690   3.469  12.946
44950SOL     OW36746   6.061   8.865   4.363
44950SOL    HW136747   5.993   8.918   4.405
44950SOL    HW236748   6.020   8.778   4.353
44951SOL     OW36749  11.100  12.416  12.316
44951SOL    HW136750  11.188  12.390  12.342
44951SOL    HW236751  11.110  12.505  12.281
44952SOL     OW36752   4.482   6.455  12.876
44952SOL    HW136753   4.434   6.416  12.803
44952SOL    HW236754   4.419   6.514  12.917
44953SOL     OW36755   8.168   1.094   6.681
44953SOL    HW136756   8.126   1.177   6.702
44953SOL    HW236757   8.101   1.028   6.702
44954SOL     OW36758   1.119  11.328  13.968
44954SOL    HW136759   1.203  11.324  14.013
44954SOL    HW236760   1.072  11.400  14.009
44955SOL     OW36761   1.806  12.674  11.395
44955SOL    HW136762   1.869  12.608  11.425
44955SOL    HW236763   1.816  12.747  11.456
44956SOL     OW36764   9.762   0.972  12.218
44956SOL    HW136765   9.766   1.067  12.209
44956SOL    HW236766   9.715   0.958  12.299
44957SOL     OW36767   3.692  14.129   9.944
44957SOL    HW136768   3.678  14.192   9.873
44957SOL    HW236769   3.608  14.084   9.953
44958SOL     OW36770  11.508   3.625   0.068
44958SOL    HW136771  11.574   3.557   0.071
44958SOL    HW236772  11.433   3.588   0.115
44959SOL     OW36773   8.417   2.327  11.293
44959SOL    HW136774   8.356   2.292  11.358
44959SOL    HW236775   8.448   2.410  11.331
44960SOL     OW36776   6.888   9.803  14.316
44960SOL    HW136777   6.882   9.708  14.324
44960SOL    HW236778   6.966   9.826  14.366
44961SOL     OW36779  13.421   8.029   1.583
44961SOL    HW136780  13.380   8.020   1.669
44961SOL    HW236781  13.381   8.108   1.546
44962SOL     OW36782   2.000  14.121   8.548
44962SOL    HW136783   1.964  14.044   8.504
44962SOL    HW236784   1.926  14.180   8.558
44963SOL     OW36785   7.128  12.258   3.174
44963SOL    HW136786   7.175  12.320   3.229
44963SOL    HW236787   7.143  12.288   3.085
44964SOL     OW36788  10.332   9.456  11.641
44964SOL    HW136789  10.382   9.485  11.565
44964SOL    HW236790  10.306   9.367  11.620
44965SOL     OW36791   0.299  10.656   7.547
44965SOL    HW136792   0.290  10.751   7.544
44965SOL    HW236793   0.380  10.638   7.501
44966SOL     OW36794   0.959  13.206   7.658
44966SOL    HW136795   1.011  13.255   7.721
44966SOL    HW236796   1.022  13.177   7.592
44967SOL     OW36797   0.243   4.008   5.011
44967SOL    HW136798   0.258   3.994   5.105
44967SOL    HW236799   0.285   3.933   4.969
44968SOL     OW36800  13.791   5.345   9.633
44968SOL    HW136801  13.823   5.279   9.694
44968SOL    HW236802  13.770   5.295   9.554
44969SOL     OW36803   0.136   7.236   6.956
44969SOL    HW136804   0.090   7.156   6.931
44969SOL    HW236805   0.191   7.209   7.030
44970SOL     OW36806   0.456   6.023   4.670
44970SOL    HW136807   0.430   6.115   4.667
44970SOL    HW236808   0.414   5.984   4.593
44971SOL     OW36809  14.542   4.639   2.929
44971SOL    HW136810  14.462   4.682   2.898
44971SOL    HW236811  14.612   4.699   2.907
44972SOL     OW36812   6.416  13.004   4.626
44972SOL    HW136813   6.332  13.004   4.673
44972SOL    HW236814   6.409  12.930   4.565
44973SOL     OW36815   1.850   6.760   9.004
44973SOL    HW136816   1.929   6.708   8.989
44973SOL    HW236817   1.819   6.733   9.090
44974SOL     OW36818  11.664  13.671  11.698
44974SOL    HW136819  11.608  13.614  11.750
44974SOL    HW236820  11.697  13.615  11.628
44975SOL     OW36821   8.785   2.374  12.802
44975SOL    HW136822   8.800   2.384  12.896
44975SOL    HW236823   8.738   2.291  12.793
44976SOL     OW36824   8.133  12.191  14.663
44976SOL    HW136825   8.044  12.226  14.676
44976SOL    HW236826   8.124  12.130  14.590
44977SOL     OW36827   3.633   4.849  11.841
44977SOL    HW136828   3.587   4.897  11.909
44977SOL    HW236829   3.636   4.909  11.767
44978SOL     OW36830   7.388   9.773   4.743
44978SOL    HW136831   7.415   9.858   4.707
44978SOL    HW236832   7.383   9.788   4.838
44979SOL     OW36833   3.521   9.194   9.574
44979SOL    HW136834   3.446   9.163   9.625
44979SOL    HW236835   3.489   9.274   9.530
44980SOL     OW36836   9.836   7.757   6.243
44980SOL    HW136837   9.886   7.729   6.166
44980SOL    HW236838   9.864   7.698   6.313
44981SOL     OW36839  14.405   7.929   9.009
44981SOL    HW136840  14.393   7.844   8.965
44981SOL    HW236841  14.387   7.994   8.941
44982SOL     OW36842  14.024  12.013  13.929
44982SOL    HW136843  14.023  12.100  13.890
44982SOL    HW236844  13.994  12.026  14.019
44983SOL     OW36845   3.083   5.357  14.715
44983SOL    HW136846   3.134   5.398  14.646
44983SOL    HW236847   3.142   5.293  14.754
44984SOL     OW36848  12.283   9.625   3.967
44984SOL    HW136849  12.360   9.578   3.998
44984SOL    HW236850  12.316   9.710   3.938
44985SOL     OW36851   7.596  12.925  12.496
44985SOL    HW136852   7.508  12.898  12.521
44985SOL    HW236853   7.608  13.010  12.538
44986SOL     OW36854  12.154   7.051  10.600
44986SOL    HW136855  12.151   7.068  10.694
44986SOL    HW236856  12.215   7.116  10.566
44987SOL     OW36857  12.082   7.394   9.106
44987SOL    HW136858  12.036   7.439   9.176
44987SOL    HW236859  12.112   7.312   9.146
44988SOL     OW36860   0.586  10.620   5.586
44988SOL    HW136861   0.520  10.638   5.653
44988SOL    HW236862   0.568  10.530   5.558
44989SOL     OW36863  12.496   8.919   7.300
44989SOL    HW136864  12.583   8.919   7.259
44989SOL    HW236865  12.513   8.935   7.393
44990SOL     OW36866   8.607  13.934  14.651
44990SOL    HW136867   8.573  13.845  14.654
44990SOL    HW236868   8.578  13.968  14.566
44991SOL     OW36869   9.416   3.512   6.156
44991SOL    HW136870   9.484   3.511   6.088
44991SOL    HW236871   9.425   3.428   6.201
44992SOL     OW36872  13.402   8.178   5.331
44992SOL    HW136873  13.390   8.133   5.414
44992SOL    HW236874  13.461   8.251   5.351
44993SOL     OW36875   1.094   1.954  12.203
44993SOL    HW136876   1.093   1.873  12.151
44993SOL    HW236877   1.057   2.020  12.145
44994SOL     OW36878   4.562  13.115  14.283
44994SOL    HW136879   4.510  13.075  14.353
44994SOL    HW236880   4.515  13.196  14.263
44995SOL     OW36881   0.926  11.397  10.768
44995SOL    HW136882   0.903  11.336  10.838
44995SOL    HW236883   0.982  11.462  10.811
44996SOL     OW36884   0.872  13.335  10.736
44996SOL    HW136885   0.881  13.426  10.763
44996SOL    HW236886   0.899  13.334  10.644
44997SOL     OW36887  13.473  14.079   4.794
44997SOL    HW136888  13.451  14.128   4.714
44997SOL    HW236889  13.438  13.991   4.778
44998SOL     OW36890   4.772   0.612  14.331
44998SOL    HW136891   4.865   0.592  14.321
44998SOL    HW236892   4.764   0.703  14.301
44999SOL     OW36893   9.337   3.797  14.223
44999SOL    HW136894   9.317   3.866  14.287
44999SOL    HW236895   9.347   3.843  14.140
45000SOL     OW36896   5.352   3.200   6.801
45000SOL    HW136897   5.437   3.165   6.773
45000SOL    HW236898   5.326   3.259   6.731
45001SOL     OW36899  12.935   3.769  12.444
45001SOL    HW136900  12.926   3.863  12.461
45001SOL    HW236901  12.897   3.727  12.522
45002SOL     OW36902  12.411  14.454   5.473
45002SOL    HW136903  12.385  14.418   5.388
45002SOL    HW236904  12.406  14.549   5.461
45003SOL     OW36905   3.146  14.861   4.231
45003SOL    HW136906   3.213   0.028   4.182
45003SOL    HW236907   3.083  14.832   4.165
45004SOL     OW36908   9.623   7.838  12.095
45004SOL    HW136909   9.617   7.875  12.007
45004SOL    HW236910   9.557   7.768  12.097
45005SOL     OW36911  13.566  12.338   1.617
45005SOL    HW136912  13.642  12.372   1.665
45005SOL    HW236913  13.509  12.303   1.686
45006SOL     OW36914  14.629  12.810   5.577
45006SOL    HW136915  14.591  12.853   5.654
45006SOL    HW236916  14.723  12.814   5.591
45007SOL     OW36917  13.767  10.837  11.210
45007SOL    HW136918  13.817  10.760  11.239
45007SOL    HW236919  13.826  10.882  11.150
45008SOL     OW36920   4.781   1.306   6.602
45008SOL    HW136921   4.718   1.290   6.673
45008SOL    HW236922   4.781   1.225   6.552
45009SOL     OW36923   3.540   1.555  13.181
45009SOL    HW136924   3.633   1.574  13.168
45009SOL    HW236925   3.506   1.634  13.223
45010SOL     OW36926   1.237  10.063  13.280
45010SOL    HW136927   1.287  10.079  13.359
45010SOL    HW236928   1.152  10.032  13.311
45011SOL     OW36929   6.871   2.506  12.506
45011SOL    HW136930   6.882   2.555  12.588
45011SOL    HW236931   6.932   2.548  12.445
45012SOL     OW36932  10.780   7.654   3.301
45012SOL    HW136933  10.810   7.744   3.302
45012SOL    HW236934  10.765   7.632   3.393
45013SOL     OW36935   0.392  14.757   2.324
45013SOL    HW136936   0.360  14.721   2.241
45013SOL    HW236937   0.476  14.798   2.302
45014SOL     OW36938  12.334   5.357   3.591
45014SOL    HW136939  12.341   5.289   3.658
45014SOL    HW236940  12.374   5.434   3.632
45015SOL     OW36941  14.077  12.017   2.983
45015SOL    HW136942  14.023  12.091   3.011
45015SOL    HW236943  14.138  12.055   2.919
45016SOL     OW36944   5.906   6.072  12.107
45016SOL    HW136945   5.852   6.005  12.065
45016SOL    HW236946   5.989   6.028  12.126
45017SOL     OW36947   4.022   1.708  13.789
45017SOL    HW136948   4.083   1.651  13.743
45017SOL    HW236949   3.986   1.765  13.721
45018SOL     OW36950   3.110  12.848   2.434
45018SOL    HW136951   3.141  12.932   2.401
45018SOL    HW236952   3.068  12.869   2.517
45019SOL     OW36953   6.337  11.283   5.780
45019SOL    HW136954   6.384  11.366   5.794
45019SOL    HW236955   6.394  11.217   5.819
45020SOL     OW36956   8.060   7.925   5.244
45020SOL    HW136957   8.047   8.015   5.213
45020SOL    HW236958   8.070   7.934   5.339
45021SOL     OW36959   4.330   7.503  12.163
45021SOL    HW136960   4.347   7.460  12.079
45021SOL    HW236961   4.349   7.435  12.228
45022SOL     OW36962  12.728   3.539   6.586
45022SOL    HW136963  12.786   3.611   6.562
45022SOL    HW236964  12.679   3.571   6.662
45023SOL     OW36965   4.725  10.387   4.614
45023SOL    HW136966   4.774  10.316   4.573
45023SOL    HW236967   4.633  10.367   4.596
45024SOL     OW36968   1.826   3.195  10.024
45024SOL    HW136969   1.752   3.237  10.069
45024SOL    HW236970   1.853   3.259   9.958
45025SOL     OW36971   3.105   8.321   0.178
45025SOL    HW136972   3.092   8.318   0.273
45025SOL    HW236973   3.195   8.288   0.166
45026SOL     OW36974   9.481  11.971  10.668
45026SOL    HW136975   9.492  12.066  10.659
45026SOL    HW236976   9.425  11.946  10.595
45027SOL     OW36977   2.563   3.846   2.466
45027SOL    HW136978   2.482   3.794   2.474
45027SOL    HW236979   2.539   3.919   2.409
45028SOL     OW36980   7.918  13.985  10.364
45028SOL    HW136981   7.985  13.976  10.431
45028SOL    HW236982   7.835  13.973  10.411
45029SOL     OW36983   6.935   4.613   9.317
45029SOL    HW136984   7.022   4.652   9.327
45029SOL    HW236985   6.886   4.645   9.393
45030SOL     OW36986   0.917  12.916   1.871
45030SOL    HW136987   0.842  12.923   1.929
45030SOL    HW236988   0.989  12.888   1.928
45031SOL     OW36989  11.719  12.774   0.533
45031SOL    HW136990  11.724  12.727   0.617
45031SOL    HW236991  11.809  12.796   0.512
45032SOL     OW36992   9.246  12.656  13.699
45032SOL    HW136993   9.276  12.617  13.781
45032SOL    HW236994   9.198  12.735  13.725
45033SOL     OW36995  11.815   1.928   4.732
45033SOL    HW136996  11.794   1.834   4.728
45033SOL    HW236997  11.733   1.969   4.759
45034SOL     OW36998   1.148  13.965   3.076
45034SOL    HW136999   1.212  13.987   3.144
45034SOL    HW237000   1.066  13.950   3.123
45035SOL     OW37001   3.478   9.227   2.995
45035SOL    HW137002   3.396   9.211   2.948
45035SOL    HW237003   3.514   9.306   2.955
45036SOL     OW37004  13.825   3.075  14.269
45036SOL    HW137005  13.778   3.149  14.230
45036SOL    HW237006  13.875   3.038  14.196
45037SOL     OW37007   0.571  12.282  13.705
45037SOL    HW137008   0.528  12.234  13.634
45037SOL    HW237009   0.567  12.374  13.678
45038SOL     OW37010  14.528   7.234   0.510
45038SOL    HW137011  14.606   7.274   0.549
45038SOL    HW237012  14.478   7.201   0.585
45039SOL     OW37013  10.140  11.269  12.687
45039SOL    HW137014  10.049  11.239  12.677
45039SOL    HW237015  10.142  11.354  12.644
45040SOL     OW37016   8.040  13.013   4.240
45040SOL    HW137017   8.072  12.982   4.155
45040SOL    HW237018   8.014  12.933   4.286
45041SOL     OW37019   1.195  14.331   8.586
45041SOL    HW137020   1.195  14.330   8.681
45041SOL    HW237021   1.161  14.418   8.563
45042SOL     OW37022   8.876   6.429   7.966
45042SOL    HW137023   8.834   6.499   7.916
45042SOL    HW237024   8.927   6.474   8.033
45043SOL     OW37025   7.418   1.271  11.818
45043SOL    HW137026   7.339   1.217  11.823
45043SOL    HW237027   7.388   1.356  11.787
45044SOL     OW37028  13.327   7.848   4.533
45044SOL    HW137029  13.379   7.918   4.492
45044SOL    HW237030  13.392   7.796   4.580
45045SOL     OW37031  12.045  14.387   0.461
45045SOL    HW137032  12.123  14.369   0.513
45045SOL    HW237033  12.070  14.459   0.403
45046SOL     OW37034  10.557   4.801   0.987
45046SOL    HW137035  10.494   4.870   1.006
45046SOL    HW237036  10.598   4.780   1.071
45047SOL     OW37037   8.115  12.267   7.935
45047SOL    HW137038   8.079  12.265   8.024
45047SOL    HW237039   8.205  12.297   7.947
45048SOL     OW37040  11.225   5.791   2.882
45048SOL    HW137041  11.226   5.702   2.916
45048SOL    HW237042  11.216   5.847   2.959
45049SOL     OW37043   1.656   4.091   0.421
45049SOL    HW137044   1.564   4.113   0.435
45049SOL    HW237045   1.668   4.097   0.327
45050SOL     OW37046   5.362   0.487   1.040
45050SOL    HW137047   5.305   0.550   0.996
45050SOL    HW237048   5.402   0.438   0.969
45051SOL     OW37049   0.596  12.808   2.063
45051SOL    HW137050   0.600  12.892   2.107
45051SOL    HW237051   0.526  12.760   2.106
45052SOL     OW37052  12.249   9.157  10.806
45052SOL    HW137053  12.155   9.154  10.825
45052SOL    HW237054  12.269   9.069  10.774
45053SOL     OW37055   5.107   8.461   8.537
45053SOL    HW137056   5.062   8.379   8.560
45053SOL    HW237057   5.107   8.512   8.618
45054SOL     OW37058  10.505  10.004   8.436
45054SOL    HW137059  10.548  10.089   8.431
45054SOL    HW237060  10.532   9.969   8.521
45055SOL     OW37061   7.083   4.649   7.233
45055SOL    HW137062   7.025   4.626   7.305
45055SOL    HW237063   7.164   4.679   7.275
45056SOL     OW37064  13.700   6.672   1.103
45056SOL    HW137065  13.707   6.728   1.181
45056SOL    HW237066  13.751   6.718   1.037
45057SOL     OW37067   4.217   3.778  13.336
45057SOL    HW137068   4.252   3.867  13.335
45057SOL    HW237069   4.226   3.748  13.245
45058SOL     OW37070   6.564   2.300   8.569
45058SOL    HW137071   6.509   2.269   8.641
45058SOL    HW237072   6.645   2.250   8.578
45059SOL     OW37073   7.601  14.544  12.257
45059SOL    HW137074   7.606  14.529  12.162
45059SOL    HW237075   7.520  14.501  12.284
45060SOL     OW37076  12.988   6.229   5.017
45060SOL    HW137077  12.931   6.260   5.087
45060SOL    HW237078  12.929   6.180   4.959
45061SOL     OW37079   8.071   4.949  10.225
45061SOL    HW137080   8.019   4.985  10.296
45061SOL    HW237081   8.031   4.984  10.145
45062SOL     OW37082   7.143   0.651  12.308
45062SOL    HW137083   7.126   0.720  12.243
45062SOL    HW237084   7.203   0.690  12.370
45063SOL     OW37085   9.398   7.306   5.512
45063SOL    HW137086   9.381   7.278   5.602
45063SOL    HW237087   9.336   7.257   5.459
45064SOL     OW37088   1.747   2.977   8.864
45064SOL    HW137089   1.695   2.930   8.799
45064SOL    HW237090   1.712   2.948   8.948
45065SOL     OW37091   7.494   3.897   1.267
45065SOL    HW137092   7.471   3.867   1.179
45065SOL    HW237093   7.473   3.823   1.324
45066SOL     OW37094  13.748  10.752  12.703
45066SOL    HW137095  13.801  10.672  12.695
45066SOL    HW237096  13.730  10.759  12.797
45067SOL     OW37097   2.892  11.801   1.721
45067SOL    HW137098   2.987  11.798   1.730
45067SOL    HW237099   2.869  11.892   1.735
45068SOL     OW37100   5.772   5.469   1.034
45068SOL    HW137101   5.823   5.537   0.990
45068SOL    HW237102   5.834   5.429   1.095
45069SOL     OW37103   5.639   8.140  12.738
45069SOL    HW137104   5.683   8.058  12.713
45069SOL    HW237105   5.581   8.159  12.665
45070SOL     OW37106  13.939  10.343   8.224
45070SOL    HW137107  13.944  10.438   8.232
45070SOL    HW237108  13.923  10.312   8.313
45071SOL     OW37109  12.882   6.820  12.759
45071SOL    HW137110  12.796   6.795  12.725
45071SOL    HW237111  12.944   6.768  12.708
45072SOL     OW37112   0.035   0.502  13.449
45072SOL    HW137113   0.059   0.589  13.417
45072SOL    HW237114   0.103   0.481  13.513
45073SOL     OW37115  12.635  13.496  14.670
45073SOL    HW137116  12.666  13.422  14.616
45073SOL    HW237117  12.693  13.568  14.647
45074SOL     OW37118  11.682   2.077   2.655
45074SOL    HW137119  11.671   2.049   2.564
45074SOL    HW237120  11.777   2.086   2.666
45075SOL     OW37121   0.478  12.380  13.009
45075SOL    HW137122   0.548  12.321  13.036
45075SOL    HW237123   0.400  12.346  13.051
45076SOL     OW37124  14.704   8.199  12.315
45076SOL    HW137125  14.691   8.196  12.410
45076SOL    HW237126  14.619   8.174  12.279
45077SOL     OW37127  13.507  13.718   0.696
45077SOL    HW137128  13.567  13.792   0.681
45077SOL    HW237129  13.563  13.648   0.727
45078SOL     OW37130   8.673   3.614  10.093
45078SOL    HW137131   8.756   3.570  10.076
45078SOL    HW237132   8.698   3.705  10.111
45079SOL     OW37133  13.731   8.597   5.906
45079SOL    HW137134  13.707   8.506   5.891
45079SOL    HW237135  13.649   8.645   5.898
45080SOL     OW37136  11.882   2.623   6.310
45080SOL    HW137137  11.829   2.692   6.269
45080SOL    HW237138  11.972   2.644   6.284
45081SOL     OW37139   3.557  12.750  13.371
45081SOL    HW137140   3.529  12.759  13.280
45081SOL    HW237141   3.571  12.840  13.400
45082SOL     OW37142   2.351  10.666   9.900
45082SOL    HW137143   2.312  10.722   9.833
45082SOL    HW237144   2.375  10.726   9.971
45083SOL     OW37145  10.145   2.550   8.400
45083SOL    HW137146  10.111   2.505   8.323
45083SOL    HW237147  10.240   2.552   8.387
45084SOL     OW37148   0.729   0.505   2.911
45084SOL    HW137149   0.788   0.433   2.888
45084SOL    HW237150   0.711   0.492   3.005
45085SOL     OW37151   1.319  13.257   0.202
45085SOL    HW137152   1.304  13.317   0.275
45085SOL    HW237153   1.237  13.258   0.152
45086SOL     OW37154   9.281   0.279   5.500
45086SOL    HW137155   9.303   0.297   5.409
45086SOL    HW237156   9.363   0.246   5.538
45087SOL     OW37157   0.719  12.298   0.631
45087SOL    HW137158   0.718  12.360   0.704
45087SOL    HW237159   0.811  12.287   0.610
45088SOL     OW37160   2.830  13.957   8.542
45088SOL    HW137161   2.798  14.009   8.468
45088SOL    HW237162   2.761  13.894   8.558
45089SOL     OW37163  10.556  12.287  14.250
45089SOL    HW137164  10.472  12.251  14.279
45089SOL    HW237165  10.538  12.380  14.232
45090SOL     OW37166   5.332   1.132  12.247
45090SOL    HW137167   5.380   1.212  12.270
45090SOL    HW237168   5.391   1.061  12.272
45091SOL     OW37169  13.484  12.405   2.428
45091SOL    HW137170  13.483  12.392   2.523
45091SOL    HW237171  13.538  12.334   2.394
45092SOL     OW37172   7.700   2.232   9.041
45092SOL    HW137173   7.780   2.215   8.991
45092SOL    HW237174   7.710   2.322   9.072
45093SOL     OW37175   9.139   1.095   1.947
45093SOL    HW137176   9.059   1.085   1.895
45093SOL    HW237177   9.119   1.052   2.030
45094SOL     OW37178   1.949   2.503  12.430
45094SOL    HW137179   2.002   2.507  12.510
45094SOL    HW237180   1.868   2.548  12.452
45095SOL     OW37181   5.079  10.468   3.338
45095SOL    HW137182   5.116  10.384   3.311
45095SOL    HW237183   5.001  10.479   3.283
45096SOL     OW37184   5.731   8.590  13.958
45096SOL    HW137185   5.725   8.517  14.019
45096SOL    HW237186   5.646   8.633  13.963
45097SOL     OW37187   8.289   1.807   1.599
45097SOL    HW137188   8.315   1.737   1.540
45097SOL    HW237189   8.317   1.887   1.555
45098SOL     OW37190  13.820   4.260  13.164
45098SOL    HW137191  13.762   4.316  13.215
45098SOL    HW237192  13.906   4.271  13.205
45099SOL     OW37193   2.007   3.458   1.000
45099SOL    HW137194   1.926   3.507   0.992
45099SOL    HW237195   2.041   3.481   1.086
45100SOL     OW37196   2.526   3.630   5.631
45100SOL    HW137197   2.529   3.643   5.726
45100SOL    HW237198   2.460   3.562   5.618
45101SOL     OW37199  10.865   4.783   1.156
45101SOL    HW137200  10.803   4.770   1.227
45101SOL    HW237201  10.872   4.698   1.113
45102SOL     OW37202   4.321   4.589   0.308
45102SOL    HW137203   4.271   4.520   0.264
45102SOL    HW237204   4.271   4.606   0.389
45103SOL     OW37205   8.249   8.872  10.799
45103SOL    HW137206   8.337   8.895  10.771
45103SOL    HW237207   8.224   8.799  10.741
45104SOL     OW37208   4.031   5.571   5.549
45104SOL    HW137209   4.000   5.542   5.635
45104SOL    HW237210   3.952   5.575   5.495
45105SOL     OW37211   6.710   6.196  13.617
45105SOL    HW137212   6.728   6.289  13.623
45105SOL    HW237213   6.697   6.168  13.708
45106SOL     OW37214  14.847   6.211   2.408
45106SOL    HW137215  14.791   6.133   2.403
45106SOL    HW237216   0.015   6.211   2.326
45107SOL     OW37217  13.326  12.129   3.336
45107SOL    HW137218  13.233  12.149   3.333
45107SOL    HW237219  13.368  12.214   3.352
45108SOL     OW37220   9.114  12.572   5.822
45108SOL    HW137221   9.150  12.661   5.817
45108SOL    HW237222   9.033  12.576   5.771
45109SOL     OW37223   0.439  10.282  12.277
45109SOL    HW137224   0.427  10.188  12.268
45109SOL    HW237225   0.495  10.291  12.354
45110SOL     OW37226   2.528  13.240   4.965
45110SOL    HW137227   2.498  13.325   4.935
45110SOL    HW237228   2.554  13.194   4.886
45111SOL     OW37229   6.029   1.959   9.350
45111SOL    HW137230   5.997   1.869   9.354
45111SOL    HW237231   6.072   1.965   9.265
45112SOL     OW37232   0.400  10.756  10.918
45112SOL    HW137233   0.341  10.831  10.906
45112SOL    HW237234   0.391  10.705  10.838
45113SOL     OW37235  12.352   2.521   5.134
45113SOL    HW137236  12.396   2.579   5.072
45113SOL    HW237237  12.340   2.439   5.086
45114SOL     OW37238  12.407  13.918   0.279
45114SOL    HW137239  12.398  13.928   0.374
45114SOL    HW237240  12.477  13.979   0.255
45115SOL     OW37241   6.579  13.645   6.541
45115SOL    HW137242   6.666  13.663   6.505
45115SOL    HW237243   6.596  13.605   6.626
45116SOL     OW37244  14.228   9.908   5.371
45116SOL    HW137245  14.285   9.982   5.393
45116SOL    HW237246  14.283   9.831   5.386
45117SOL     OW37247   9.997   5.096   7.989
45117SOL    HW137248   9.982   5.036   7.915
45117SOL    HW237249  10.065   5.053   8.040
45118SOL     OW37250   4.354   9.716   6.745
45118SOL    HW137251   4.352   9.623   6.768
45118SOL    HW237252   4.406   9.756   6.815
45119SOL     OW37253   4.455   4.950   8.176
45119SOL    HW137254   4.490   5.005   8.246
45119SOL    HW237255   4.530   4.901   8.144
45120SOL     OW37256   5.549   8.379   8.062
45120SOL    HW137257   5.617   8.340   8.117
45120SOL    HW237258   5.562   8.473   8.070
45121SOL     OW37259   1.421   1.082  14.668
45121SOL    HW137260   1.472   1.030  14.730
45121SOL    HW237261   1.359   1.130  14.723
45122SOL     OW37262   6.844   9.161   4.905
45122SOL    HW137263   6.813   9.136   4.992
45122SOL    HW237264   6.939   9.166   4.914
45123SOL     OW37265  14.421   1.701   8.145
45123SOL    HW137266  14.397   1.658   8.063
45123SOL    HW237267  14.338   1.712   8.192
45124SOL     OW37268   5.118   2.627  13.216
45124SOL    HW137269   5.103   2.705  13.163
45124SOL    HW237270   5.189   2.581  13.173
45125SOL     OW37271   9.952   8.734   9.947
45125SOL    HW137272   9.898   8.710   9.871
45125SOL    HW237273   9.898   8.709  10.022
45126SOL     OW37274   0.536   2.667  11.578
45126SOL    HW137275   0.604   2.733  11.561
45126SOL    HW237276   0.578   2.583  11.560
45127SOL     OW37277   3.953   1.468  13.583
45127SOL    HW137278   3.887   1.413  13.541
45127SOL    HW237279   3.984   1.526  13.513
45128SOL     OW37280   9.875   2.973   7.793
45128SOL    HW137281   9.909   2.927   7.716
45128SOL    HW237282   9.952   2.984   7.850
45129SOL     OW37283  12.097   4.651  11.036
45129SOL    HW137284  12.101   4.736  10.991
45129SOL    HW237285  12.004   4.634  11.046
45130SOL     OW37286   2.467   0.982  13.820
45130SOL    HW137287   2.467   1.076  13.838
45130SOL    HW237288   2.389   0.949  13.866
45131SOL     OW37289   4.637  11.584  10.477
45131SOL    HW137290   4.645  11.665  10.527
45131SOL    HW237291   4.683  11.518  10.529
45132SOL     OW37292   1.716   4.598   1.921
45132SOL    HW137293   1.797   4.551   1.899
45132SOL    HW237294   1.721   4.679   1.869
45133SOL     OW37295   1.003  11.206  13.754
45133SOL    HW137296   0.996  11.259  13.675
45133SOL    HW237297   1.044  11.263  13.818
45134SOL     OW37298   2.249   7.615   4.620
45134SOL    HW137299   2.312   7.593   4.552
45134SOL    HW237300   2.302   7.649   4.692
45135SOL     OW37301   1.522  13.987   3.765
45135SOL    HW137302   1.600  14.037   3.740
45135SOL    HW237303   1.449  14.034   3.725
45136SOL     OW37304  11.016   0.442   3.059
45136SOL    HW137305  10.938   0.468   3.108
45136SOL    HW237306  10.983   0.414   2.974
45137SOL     OW37307   3.402   7.450   9.325
45137SOL    HW137308   3.402   7.365   9.368
45137SOL    HW237309   3.490   7.460   9.290
45138SOL     OW37310  14.036  12.850   1.496
45138SOL    HW137311  14.079  12.849   1.582
45138SOL    HW237312  13.969  12.782   1.502
45139SOL     OW37313  10.951  12.207  13.517
45139SOL    HW137314  11.025  12.159  13.555
45139SOL    HW237315  10.905  12.244  13.593
45140SOL     OW37316   6.513  11.026   6.553
45140SOL    HW137317   6.482  10.958   6.493
45140SOL    HW237318   6.591  10.988   6.594
45141SOL     OW37319   1.784   4.067   2.671
45141SOL    HW137320   1.774   4.059   2.766
45141SOL    HW237321   1.759   3.981   2.637
45142SOL     OW37322   9.729   0.969  11.210
45142SOL    HW137323   9.734   0.874  11.217
45142SOL    HW237324   9.689   0.997  11.292
45143SOL     OW37325  12.962  10.368   0.177
45143SOL    HW137326  13.022  10.316   0.230
45143SOL    HW237327  12.953  10.319   0.096
45144SOL     OW37328  14.463   5.315   9.823
45144SOL    HW137329  14.408   5.249   9.782
45144SOL    HW237330  14.497   5.273   9.902
45145SOL     OW37331  14.850   7.828   5.476
45145SOL    HW137332  14.822   7.806   5.565
45145SOL    HW237333  14.784   7.890   5.444
45146SOL     OW37334   9.641   4.283   5.121
45146SOL    HW137335   9.622   4.351   5.057
45146SOL    HW237336   9.557   4.264   5.162
45147SOL     OW37337   0.999   9.232   5.091
45147SOL    HW137338   0.967   9.147   5.122
45147SOL    HW237339   0.975   9.233   4.998
45148SOL     OW37340  11.372   8.893  14.132
45148SOL    HW137341  11.284   8.923  14.107
45148SOL    HW237342  11.357   8.830  14.202
45149SOL     OW37343   6.275   5.729   6.493
45149SOL    HW137344   6.285   5.741   6.398
45149SOL    HW237345   6.270   5.634   6.505
45150SOL     OW37346   8.562   2.308  12.562
45150SOL    HW137347   8.554   2.232  12.619
45150SOL    HW237348   8.504   2.374  12.601
45151SOL     OW37349   1.222   4.556  10.301
45151SOL    HW137350   1.276   4.549  10.380
45151SOL    HW237351   1.148   4.498  10.318
45152SOL     OW37352   6.659   0.007  11.686
45152SOL    HW137353   6.737  14.833  11.698
45152SOL    HW237354   6.693   0.093  11.660
45153SOL     OW37355   0.555  11.000   0.427
45153SOL    HW137356   0.621  10.977   0.361
45153SOL    HW237357   0.554  10.925   0.487
45154SOL     OW37358  14.640  11.396  14.581
45154SOL    HW137359  14.607  11.410  14.493
45154SOL    HW237360  14.722  11.446  14.584
45155SOL     OW37361   6.246  14.729   5.757
45155SOL    HW137362   6.285  14.668   5.820
45155SOL    HW237363   6.320  14.776   5.720
45156SOL     OW37364   4.055   3.434   5.932
45156SOL    HW137365   4.030   3.419   6.023
45156SOL    HW237366   4.072   3.347   5.896
45157SOL     OW37367   7.067   4.720   3.025
45157SOL    HW137368   7.062   4.802   3.074
45157SOL    HW237369   7.048   4.653   3.090
45158SOL     OW37370   0.568   1.656   2.495
45158SOL    HW137371   0.536   1.601   2.424
45158SOL    HW237372   0.659   1.675   2.472
45159SOL     OW37373   1.566   9.989   8.068
45159SOL    HW137374   1.649  10.019   8.103
45159SOL    HW237375   1.541  10.055   8.003
45160SOL     OW37376  10.804   7.845   7.141
45160SOL    HW137377  10.713   7.873   7.151
45160SOL    HW237378  10.799   7.753   7.117
45161SOL     OW37379  10.595  12.131   1.044
45161SOL    HW137380  10.547  12.055   1.011
45161SOL    HW237381  10.633  12.101   1.127
45162SOL     OW37382   4.648   9.478   7.093
45162SOL    HW137383   4.668   9.435   7.176
45162SOL    HW237384   4.638   9.570   7.116
45163SOL     OW37385  10.314  14.175  10.883
45163SOL    HW137386  10.399  14.193  10.921
45163SOL    HW237387  10.308  14.236  10.809
45164SOL     OW37388  13.043   2.198  12.685
45164SOL    HW137389  13.000   2.121  12.722
45164SOL    HW237390  12.972   2.261  12.671
45165SOL     OW37391   3.967  12.854  14.557
45165SOL    HW137392   4.041  12.867  14.497
45165SOL    HW237393   4.000  12.879  14.643
45166SOL     OW37394   4.686  12.711  14.379
45166SOL    HW137395   4.748  12.784  14.387
45166SOL    HW237396   4.739  12.633  14.398
45167SOL     OW37397   8.203   5.903  11.870
45167SOL    HW137398   8.249   5.819  11.881
45167SOL    HW237399   8.262   5.968  11.907
45168SOL     OW37400   1.882   3.449   8.094
45168SOL    HW137401   1.924   3.534   8.108
45168SOL    HW237402   1.838   3.458   8.009
45169SOL     OW37403   2.823   0.649   2.869
45169SOL    HW137404   2.867   0.647   2.784
45169SOL    HW237405   2.734   0.680   2.850
45170SOL     OW37406   0.477  13.772   4.518
45170SOL    HW137407   0.501  13.864   4.513
45170SOL    HW237408   0.537  13.728   4.459
45171SOL     OW37409  11.918   2.948  13.075
45171SOL    HW137410  11.915   2.972  13.168
45171SOL    HW237411  11.962   3.022  13.033
45172SOL     OW37412   4.662   2.431   5.575
45172SOL    HW137413   4.620   2.350   5.604
45172SOL    HW237414   4.746   2.432   5.621
45173SOL     OW37415  12.490   6.166  14.403
45173SOL    HW137416  12.407   6.180  14.356
45173SOL    HW237417  12.464   6.130  14.487
45174SOL     OW37418   7.770  14.009   4.811
45174SOL    HW137419   7.746  13.978   4.898
45174SOL    HW237420   7.687  14.035   4.771
45175SOL     OW37421   4.687  11.454   0.822
45175SOL    HW137422   4.690  11.377   0.765
45175SOL    HW237423   4.607  11.442   0.874
45176SOL     OW37424  11.106  11.746  14.822
45176SOL    HW137425  11.197  11.730  14.847
45176SOL    HW237426  11.058  11.671  14.858
45177SOL     OW37427   7.132   1.426  11.169
45177SOL    HW137428   7.226   1.418  11.155
45177SOL    HW237429   7.102   1.482  11.097
45178SOL     OW37430   8.997  11.600   8.071
45178SOL    HW137431   8.966  11.581   8.159
45178SOL    HW237432   8.923  11.580   8.014
45179SOL     OW37433   5.988  11.283  12.177
45179SOL    HW137434   6.018  11.296  12.267
45179SOL    HW237435   6.063  11.243  12.132
45180SOL     OW37436  13.708  13.518   4.403
45180SOL    HW137437  13.732  13.426   4.406
45180SOL    HW237438  13.751  13.552   4.324
45181SOL     OW37439  10.002   2.068   1.091
45181SOL    HW137440   9.938   1.999   1.104
45181SOL    HW237441  10.080   2.023   1.057
45182SOL     OW37442   5.663   5.951   9.775
45182SOL    HW137443   5.658   5.876   9.833
45182SOL    HW237444   5.727   6.010   9.816
45183SOL     OW37445   4.008   6.202  13.710
45183SOL    HW137446   4.048   6.220  13.795
45183SOL    HW237447   4.072   6.147  13.664
45184SOL     OW37448   1.881  14.857   6.904
45184SOL    HW137449   1.957   0.003   6.853
45184SOL    HW237450   1.916  14.833   6.990
45185SOL     OW37451  13.306  11.910   7.372
45185SOL    HW137452  13.327  11.904   7.279
45185SOL    HW237453  13.383  11.874   7.416
45186SOL     OW37454  13.496   9.494  12.655
45186SOL    HW137455  13.483   9.399  12.665
45186SOL    HW237456  13.493   9.508  12.561
45187SOL     OW37457  13.075   4.682   4.107
45187SOL    HW137458  13.020   4.651   4.178
45187SOL    HW237459  13.026   4.754   4.067
45188SOL     OW37460  11.508   9.046   1.595
45188SOL    HW137461  11.588   8.996   1.612
45188SOL    HW237462  11.437   8.989   1.628
45189SOL     OW37463   2.110  14.281   4.069
45189SOL    HW137464   2.047  14.228   4.117
45189SOL    HW237465   2.133  14.228   3.993
45190SOL     OW37466   7.349  11.576   3.907
45190SOL    HW137467   7.295  11.502   3.879
45190SOL    HW237468   7.356  11.567   4.002
45191SOL     OW37469   3.047   7.416   0.350
45191SOL    HW137470   3.036   7.327   0.316
45191SOL    HW237471   3.091   7.464   0.280
45192SOL     OW37472   1.924   8.679   8.494
45192SOL    HW137473   1.969   8.763   8.493
45192SOL    HW237474   1.993   8.615   8.476
45193SOL     OW37475   0.777   4.690  10.974
45193SOL    HW137476   0.818   4.765  10.932
45193SOL    HW237477   0.747   4.635  10.902
45194SOL     OW37478  10.911  10.518   0.109
45194SOL    HW137479  10.972  10.473   0.167
45194SOL    HW237480  10.953  10.601   0.089
45195SOL     OW37481  12.189   1.585   8.786
45195SOL    HW137482  12.180   1.623   8.874
45195SOL    HW237483  12.277   1.547   8.786
45196SOL     OW37484  14.835  12.599   0.093
45196SOL    HW137485  14.824  12.601   0.188
45196SOL    HW237486  14.747  12.584   0.059
45197SOL     OW37487   4.075  11.102   8.989
45197SOL    HW137488   4.062  11.143   9.074
45197SOL    HW237489   4.026  11.156   8.927
45198SOL     OW37490  10.751   0.879  11.517
45198SOL    HW137491  10.670   0.881  11.569
45198SOL    HW237492  10.809   0.822  11.567
45199SOL     OW37493  13.861   1.034   4.671
45199SOL    HW137494  13.908   1.024   4.753
45199SOL    HW237495  13.907   1.104   4.625
45200SOL     OW37496   2.227   5.060   0.633
45200SOL    HW137497   2.278   5.021   0.704
45200SOL    HW237498   2.235   4.997   0.561
45201SOL     OW37499  12.933   8.279   1.071
45201SOL    HW137500  12.979   8.259   0.989
45201SOL    HW237501  12.848   8.313   1.043
45202SOL     OW37502  14.047   9.442   0.021
45202SOL    HW137503  14.121   9.503   0.015
45202SOL    HW237504  14.082   9.360  14.866
45203SOL     OW37505   5.593   5.003   1.527
45203SOL    HW137506   5.561   5.092   1.540
45203SOL    HW237507   5.634   4.980   1.610
45204SOL     OW37508   2.118  10.096  14.338
45204SOL    HW137509   2.042  10.098  14.280
45204SOL    HW237510   2.133  10.002  14.354
45205SOL     OW37511   7.751   5.096   8.191
45205SOL    HW137512   7.840   5.072   8.217
45205SOL    HW237513   7.752   5.093   8.095
45206SOL     OW37514   9.869  11.142  12.706
45206SOL    HW137515   9.802  11.078  12.731
45206SOL    HW237516   9.819  11.219  12.680
45207SOL     OW37517   7.481   8.992   8.473
45207SOL    HW137518   7.528   9.074   8.457
45207SOL    HW237519   7.526   8.953   8.548
45208SOL     OW37520   7.867   6.256   2.139
45208SOL    HW137521   7.955   6.261   2.175
45208SOL    HW237522   7.809   6.279   2.212
45209SOL     OW37523   8.550   8.560   2.207
45209SOL    HW137524   8.606   8.488   2.236
45209SOL    HW237525   8.470   8.518   2.177
45210SOL     OW37526   5.387  12.882   5.291
45210SOL    HW137527   5.291  12.879   5.287
45210SOL    HW237528   5.411  12.804   5.339
45211SOL     OW37529  13.345  14.708   5.365
45211SOL    HW137530  13.354  14.716   5.270
45211SOL    HW237531  13.255  14.676   5.378
45212SOL     OW37532   0.872   8.054  11.476
45212SOL    HW137533   0.825   8.098  11.405
45212SOL    HW237534   0.960   8.091  11.473
45213SOL     OW37535  13.252   9.141   9.366
45213SOL    HW137536  13.284   9.161   9.278
45213SOL    HW237537  13.161   9.170   9.366
45214SOL     OW37538   7.084  13.939   9.606
45214SOL    HW137539   7.141  13.865   9.628
45214SOL    HW237540   7.073  13.933   9.511
45215SOL     OW37541   7.665  12.805   8.471
45215SOL    HW137542   7.725  12.850   8.530
45215SOL    HW237543   7.634  12.729   8.521
45216SOL     OW37544   8.354  10.316   5.191
45216SOL    HW137545   8.367  10.323   5.096
45216SOL    HW237546   8.432  10.357   5.228
45217SOL     OW37547   4.174   2.919   8.352
45217SOL    HW137548   4.242   2.967   8.306
45217SOL    HW237549   4.211   2.904   8.440
45218SOL     OW37550   8.835  12.430   4.471
45218SOL    HW137551   8.741  12.425   4.486
45218SOL    HW237552   8.851  12.521   4.447
45219SOL     OW37553   4.698   8.224   9.869
45219SOL    HW137554   4.775   8.280   9.874
45219SOL    HW237555   4.651   8.240   9.951
45220SOL     OW37556  10.435   0.294  12.086
45220SOL    HW137557  10.493   0.218  12.076
45220SOL    HW237558  10.466   0.337  12.166
45221SOL     OW37559   3.511  11.579  13.165
45221SOL    HW137560   3.427  11.533  13.164
45221SOL    HW237561   3.548  11.562  13.078
45222SOL     OW37562  13.716   3.952   9.914
45222SOL    HW137563  13.714   3.861   9.945
45222SOL    HW237564  13.627   3.969   9.882
45223SOL     OW37565  13.323   5.489   9.940
45223SOL    HW137566  13.344   5.409   9.893
45223SOL    HW237567  13.384   5.554   9.905
45224SOL     OW37568   9.047  11.945   9.019
45224SOL    HW137569   9.042  11.974   8.928
45224SOL    HW237570   8.960  11.962   9.055
45225SOL     OW37571   5.873   2.261   6.540
45225SOL    HW137572   5.813   2.328   6.506
45225SOL    HW237573   5.889   2.288   6.630
45226SOL     OW37574   2.272   3.956   3.357
45226SOL    HW137575   2.313   4.010   3.290
45226SOL    HW237576   2.179   3.975   3.350
45227SOL     OW37577   0.361   1.504   0.792
45227SOL    HW137578   0.407   1.575   0.838
45227SOL    HW237579   0.406   1.424   0.821
45228SOL     OW37580  13.268   6.121   4.745
45228SOL    HW137581  13.252   6.035   4.784
45228SOL    HW237582  13.343   6.155   4.793
45229SOL     OW37583   3.666   7.581   7.490
45229SOL    HW137584   3.654   7.604   7.582
45229SOL    HW237585   3.578   7.561   7.458
45230SOL     OW37586   4.496  13.245  11.980
45230SOL    HW137587   4.531  13.276  12.063
45230SOL    HW237588   4.570  13.248  11.920
45231SOL     OW37589   3.541   2.944  11.856
45231SOL    HW137590   3.471   3.008  11.871
45231SOL    HW237591   3.506   2.884  11.790
45232SOL     OW37592   8.359  11.202   0.114
45232SOL    HW137593   8.327  11.162   0.195
45232SOL    HW237594   8.423  11.267   0.143
45233SOL     OW37595   8.538  12.296   8.665
45233SOL    HW137596   8.590  12.275   8.588
45233SOL    HW237597   8.461  12.341   8.630
45234SOL     OW37598   6.343   5.540  10.990
45234SOL    HW137599   6.290   5.507  11.062
45234SOL    HW237600   6.378   5.623  11.021
45235SOL     OW37601  12.320   8.722   3.204
45235SOL    HW137602  12.366   8.781   3.145
45235SOL    HW237603  12.389   8.676   3.252
45236SOL     OW37604   2.154   5.727   5.380
45236SOL    HW137605   2.103   5.670   5.437
45236SOL    HW237606   2.093   5.754   5.311
45237SOL     OW37607   4.850   6.750   9.597
45237SOL    HW137608   4.935   6.733   9.558
45237SOL    HW237609   4.833   6.843   9.580
45238SOL     OW37610   7.445  12.483   1.480
45238SOL    HW137611   7.478  12.418   1.418
45238SOL    HW237612   7.502  12.474   1.557
45239SOL     OW37613   5.172   3.279   4.025
45239SOL    HW137614   5.095   3.223   4.020
45239SOL    HW237615   5.156   3.336   4.100
45240SOL     OW37616  13.156   6.802  11.181
45240SOL    HW137617  13.248   6.789  11.158
45240SOL    HW237618  13.156   6.817  11.276
45241SOL     OW37619   6.736   2.128   5.736
45241SOL    HW137620   6.788   2.160   5.809
45241SOL    HW237621   6.752   2.034   5.734
45242SOL     OW37622   6.114  14.211  11.465
45242SOL    HW137623   6.129  14.187  11.556
45242SOL    HW237624   6.197  14.194  11.421
45243SOL     OW37625  14.217   7.912   7.327
45243SOL    HW137626  14.228   7.873   7.240
45243SOL    HW237627  14.305   7.940   7.352
45244SOL     OW37628   0.173   3.320   5.715
45244SOL    HW137629   0.222   3.398   5.742
45244SOL    HW237630   0.163   3.330   5.621
45245SOL     OW37631   8.857   2.545   5.718
45245SOL    HW137632   8.775   2.559   5.671
45245SOL    HW237633   8.888   2.460   5.689
45246SOL     OW37634  14.736  12.149  10.256
45246SOL    HW137635  14.820  12.193  10.252
45246SOL    HW237636  14.733  12.111  10.344
45247SOL     OW37637   3.205   6.966   6.158
45247SOL    HW137638   3.299   6.980   6.150
45247SOL    HW237639   3.194   6.916   6.239
45248SOL     OW37640   9.069  10.025  12.752
45248SOL    HW137641   9.041  10.016  12.843
45248SOL    HW237642   9.015   9.962  12.704
45249SOL     OW37643   6.490  12.595  10.970
45249SOL    HW137644   6.572  12.555  10.998
45249SOL    HW237645   6.423  12.554  11.025
45250SOL     OW37646  14.278   4.927   7.597
45250SOL    HW137647  14.370   4.948   7.579
45250SOL    HW237648  14.229   4.973   7.529
45251SOL     OW37649   8.093   4.648   1.672
45251SOL    HW137650   8.148   4.585   1.625
45251SOL    HW237651   8.140   4.665   1.754
45252SOL     OW37652   1.378   6.396   4.198
45252SOL    HW137653   1.430   6.469   4.165
45252SOL    HW237654   1.409   6.320   4.149
45253SOL     OW37655   9.288  12.241  14.170
45253SOL    HW137656   9.314  12.158  14.210
45253SOL    HW237657   9.255  12.293  14.244
45254SOL     OW37658   6.781   9.176  12.934
45254SOL    HW137659   6.749   9.125  12.860
45254SOL    HW237660   6.831   9.247  12.894
45255SOL     OW37661   5.600   9.291   5.411
45255SOL    HW137662   5.691   9.314   5.396
45255SOL    HW237663   5.592   9.286   5.507
45256SOL     OW37664  12.054   6.068   4.838
45256SOL    HW137665  12.002   6.107   4.909
45256SOL    HW237666  11.990   6.050   4.770
45257SOL     OW37667   2.348   1.223   3.433
45257SOL    HW137668   2.440   1.250   3.442
45257SOL    HW237669   2.324   1.190   3.519
45258SOL     OW37670   8.759   3.671   8.235
45258SOL    HW137671   8.680   3.722   8.249
45258SOL    HW237672   8.757   3.650   8.142
45259SOL     OW37673   9.427   6.067   1.549
45259SOL    HW137674   9.446   5.984   1.592
45259SOL    HW237675   9.505   6.085   1.497
45260SOL     OW37676   9.174   8.118   6.570
45260SOL    HW137677   9.117   8.042   6.566
45260SOL    HW237678   9.235   8.106   6.497
45261SOL     OW37679   3.478   2.684   5.370
45261SOL    HW137680   3.394   2.672   5.414
45261SOL    HW237681   3.536   2.718   5.437
45262SOL     OW37682  13.031  11.676   7.673
45262SOL    HW137683  13.033  11.631   7.589
45262SOL    HW237684  12.942  11.712   7.679
45263SOL     OW37685  10.787   3.453  12.347
45263SOL    HW137686  10.791   3.370  12.395
45263SOL    HW237687  10.758   3.517  12.411
45264SOL     OW37688  13.119  10.532   8.820
45264SOL    HW137689  13.143  10.617   8.782
45264SOL    HW237690  13.104  10.476   8.744
45265SOL     OW37691   6.613  12.450   2.254
45265SOL    HW137692   6.672  12.495   2.193
45265SOL    HW237693   6.630  12.493   2.339
45266SOL     OW37694   7.857  13.035   1.193
45266SOL    HW137695   7.827  12.944   1.196
45266SOL    HW237696   7.822  13.074   1.274
45267SOL     OW37697   6.730  12.801   6.418
45267SOL    HW137698   6.810  12.749   6.421
45267SOL    HW237699   6.753  12.876   6.362
45268SOL     OW37700   2.071  11.008   4.599
45268SOL    HW137701   2.072  10.993   4.504
45268SOL    HW237702   2.065  11.103   4.608
45269SOL     OW37703   7.546   2.375  10.496
45269SOL    HW137704   7.603   2.299  10.507
45269SOL    HW237705   7.492   2.354  10.420
45270SOL     OW37706   4.763  11.927   3.177
45270SOL    HW137707   4.668  11.933   3.172
45270SOL    HW237708   4.783  11.835   3.160
45271SOL     OW37709   0.342  12.966   6.302
45271SOL    HW137710   0.410  12.955   6.235
45271SOL    HW237711   0.319  12.876   6.326
45272SOL     OW37712   7.424   0.108   3.551
45272SOL    HW137713   7.444   0.019   3.582
45272SOL    HW237714   7.482   0.122   3.477
45273SOL     OW37715  12.100  11.461  14.596
45273SOL    HW137716  12.035  11.418  14.652
45273SOL    HW237717  12.048  11.499  14.525
45274SOL     OW37718  10.000   6.190  14.570
45274SOL    HW137719   9.909   6.161  14.576
45274SOL    HW237720  10.051   6.111  14.590
45275SOL     OW37721   9.781   9.149   4.308
45275SOL    HW137722   9.794   9.057   4.285
45275SOL    HW237723   9.855   9.194   4.268
45276SOL     OW37724   6.032   3.910   9.327
45276SOL    HW137725   6.121   3.941   9.311
45276SOL    HW237726   5.991   3.910   9.240
45277SOL     OW37727   1.852  12.793   8.528
45277SOL    HW137728   1.868  12.886   8.547
45277SOL    HW237729   1.849  12.789   8.432
45278SOL     OW37730   3.480   6.354   8.776
45278SOL    HW137731   3.481   6.449   8.763
45278SOL    HW237732   3.569   6.332   8.803
45279SOL     OW37733  11.063   9.503   9.266
45279SOL    HW137734  11.039   9.516   9.174
45279SOL    HW237735  10.990   9.541   9.315
45280SOL     OW37736  14.383   8.477   1.212
45280SOL    HW137737  14.386   8.388   1.177
45280SOL    HW237738  14.359   8.466   1.304
45281SOL     OW37739   1.306   3.339   2.915
45281SOL    HW137740   1.316   3.300   2.828
45281SOL    HW237741   1.382   3.396   2.925
45282SOL     OW37742   9.596   4.369   7.272
45282SOL    HW137743   9.517   4.325   7.239
45282SOL    HW237744   9.605   4.446   7.217
45283SOL     OW37745   4.568   0.688   8.712
45283SOL    HW137746   4.516   0.632   8.654
45283SOL    HW237747   4.599   0.758   8.655
45284SOL     OW37748   5.155   6.039  13.521
45284SOL    HW137749   5.193   5.976  13.582
45284SOL    HW237750   5.062   6.042  13.544
45285SOL     OW37751   7.042  14.142   4.355
45285SOL    HW137752   7.038  14.148   4.260
45285SOL    HW237753   7.007  14.226   4.386
45286SOL     OW37754   3.060  10.917  14.244
45286SOL    HW137755   3.104  10.997  14.273
45286SOL    HW237756   3.063  10.921  14.148
45287SOL     OW37757   0.483   9.945   5.310
45287SOL    HW137758   0.550   9.974   5.248
45287SOL    HW237759   0.418  10.015   5.309
45288SOL     OW37760   8.164  10.042   1.042
45288SOL    HW137761   8.173  10.011   0.952
45288SOL    HW237762   8.086   9.997   1.075
45289SOL     OW37763   6.812   0.982  11.984
45289SOL    HW137764   6.725   0.943  11.988
45289SOL    HW237765   6.808   1.042  11.910
45290SOL     OW37766   5.219   2.745  10.804
45290SOL    HW137767   5.243   2.822  10.854
45290SOL    HW237768   5.302   2.699  10.789
45291SOL     OW37769   6.349   7.524   7.824
45291SOL    HW137770   6.353   7.429   7.812
45291SOL    HW237771   6.364   7.560   7.736
45292SOL     OW37772  13.335  13.317   2.773
45292SOL    HW137773  13.320  13.308   2.679
45292SOL    HW237774  13.289  13.397   2.797
45293SOL     OW37775   6.431  13.680   5.672
45293SOL    HW137776   6.513  13.722   5.698
45293SOL    HW237777   6.420  13.705   5.580
45294SOL     OW37778   2.639  10.024   8.613
45294SOL    HW137779   2.587  10.085   8.666
45294SOL    HW237780   2.726  10.025   8.653
45295SOL     OW37781  10.501   1.664  10.488
45295SOL    HW137782  10.531   1.654  10.398
45295SOL    HW237783  10.433   1.731  10.483
45296SOL     OW37784   6.285  11.855  11.579
45296SOL    HW137785   6.241  11.817  11.503
45296SOL    HW237786   6.377  11.859  11.552
45297SOL     OW37787  12.784  11.739   7.540
45297SOL    HW137788  12.723  11.676   7.501
45297SOL    HW237789  12.731  11.786   7.605
45298SOL     OW37790   8.434  12.211  11.985
45298SOL    HW137791   8.487  12.264  12.044
45298SOL    HW237792   8.353  12.194  12.033
45299SOL     OW37793  13.796   5.839   8.985
45299SOL    HW137794  13.795   5.776   9.058
45299SOL    HW237795  13.726   5.900   9.006
45300SOL     OW37796  13.704  13.288  10.310
45300SOL    HW137797  13.733  13.325  10.393
45300SOL    HW237798  13.609  13.288  10.315
45301SOL     OW37799  11.090   1.840  12.096
45301SOL    HW137800  11.056   1.911  12.150
45301SOL    HW237801  11.064   1.862  12.007
45302SOL     OW37802   5.325   3.554  14.795
45302SOL    HW137803   5.290   3.624  14.851
45302SOL    HW237804   5.396   3.596  14.746
45303SOL     OW37805   8.426   2.165   0.486
45303SOL    HW137806   8.480   2.102   0.438
45303SOL    HW237807   8.479   2.244   0.490
45304SOL     OW37808  11.935   4.945   7.814
45304SOL    HW137809  11.936   4.854   7.845
45304SOL    HW237810  11.970   4.940   7.725
45305SOL     OW37811   6.991  13.154   7.416
45305SOL    HW137812   7.000  13.059   7.410
45305SOL    HW237813   6.988  13.184   7.326
45306SOL     OW37814   7.864   9.614   8.468
45306SOL    HW137815   7.903   9.633   8.553
45306SOL    HW237816   7.860   9.699   8.424
45307SOL     OW37817   2.965   2.669  14.221
45307SOL    HW137818   2.997   2.704  14.304
45307SOL    HW237819   2.870   2.662  14.232
45308SOL     OW37820   0.681   8.672   2.860
45308SOL    HW137821   0.664   8.659   2.953
45308SOL    HW237822   0.737   8.599   2.835
45309SOL     OW37823   6.958   3.319   1.080
45309SOL    HW137824   6.991   3.364   1.002
45309SOL    HW237825   6.903   3.384   1.124
45310SOL     OW37826  12.649   4.488  12.715
45310SOL    HW137827  12.697   4.412  12.749
45310SOL    HW237828  12.628   4.465  12.625
45311SOL     OW37829   3.138  13.841   9.162
45311SOL    HW137830   3.188  13.884   9.093
45311SOL    HW237831   3.046  13.853   9.138
45312SOL     OW37832   7.707   9.181  14.861
45312SOL    HW137833   7.717   9.275  14.880
45312SOL    HW237834   7.645   9.178  14.789
45313SOL     OW37835  10.351  12.347   1.770
45313SOL    HW137836  10.398  12.299   1.838
45313SOL    HW237837  10.270  12.297   1.759
45314SOL     OW37838   9.462   7.960   6.936
45314SOL    HW137839   9.495   8.038   6.980
45314SOL    HW237840   9.387   7.932   6.988
45315SOL     OW37841   5.811   8.926  14.075
45315SOL    HW137842   5.767   8.868  14.138
45315SOL    HW237843   5.742   8.986  14.047
45316SOL     OW37844  13.780   0.734   4.595
45316SOL    HW137845  13.852   0.791   4.570
45316SOL    HW237846  13.730   0.721   4.514
45317SOL     OW37847   4.982  14.279   5.724
45317SOL    HW137848   4.939  14.359   5.755
45317SOL    HW237849   5.026  14.244   5.801
45318SOL     OW37850  12.506   8.866   6.517
45318SOL    HW137851  12.514   8.772   6.535
45318SOL    HW237852  12.491   8.905   6.603
45319SOL     OW37853   7.984   7.722   2.295
45319SOL    HW137854   7.983   7.777   2.216
45319SOL    HW237855   7.901   7.741   2.338
45320SOL     OW37856   1.053   9.713   1.917
45320SOL    HW137857   0.995   9.782   1.949
45320SOL    HW237858   1.014   9.632   1.947
45321SOL     OW37859  13.999   5.421   4.566
45321SOL    HW137860  14.062   5.475   4.614
45321SOL    HW237861  14.028   5.423   4.475
45322SOL     OW37862   8.721   3.192   6.644
45322SOL    HW137863   8.719   3.096   6.646
45322SOL    HW237864   8.807   3.214   6.609
45323SOL     OW37865  12.019   9.075  13.481
45323SOL    HW137866  11.957   9.017  13.526
45323SOL    HW237867  12.105   9.046  13.511
45324SOL     OW37868   9.279   9.773   4.295
45324SOL    HW137869   9.231   9.694   4.270
45324SOL    HW237870   9.354   9.774   4.235
45325SOL     OW37871   6.673   7.363   8.443
45325SOL    HW137872   6.715   7.432   8.392
45325SOL    HW237873   6.581   7.387   8.447
45326SOL     OW37874   3.332   8.182   3.664
45326SOL    HW137875   3.289   8.223   3.589
45326SOL    HW237876   3.314   8.240   3.738
45327SOL     OW37877   3.932   1.271   2.208
45327SOL    HW137878   3.888   1.258   2.124
45327SOL    HW237879   3.910   1.192   2.258
45328SOL     OW37880  11.895   9.646   6.753
45328SOL    HW137881  11.839   9.709   6.798
45328SOL    HW237882  11.955   9.615   6.821
45329SOL     OW37883   0.505   5.285  10.805
45329SOL    HW137884   0.532   5.234  10.881
45329SOL    HW237885   0.529   5.375  10.826
45330SOL     OW37886   7.344   6.692   2.194
45330SOL    HW137887   7.257   6.668   2.226
45330SOL    HW237888   7.336   6.690   2.099
45331SOL     OW37889  13.124   2.574   9.899
45331SOL    HW137890  13.176   2.619   9.965
45331SOL    HW237891  13.126   2.482   9.925
45332SOL     OW37892   3.387  13.383   0.597
45332SOL    HW137893   3.439  13.304   0.613
45332SOL    HW237894   3.430  13.426   0.523
45333SOL     OW37895  13.716  10.359   1.418
45333SOL    HW137896  13.690  10.311   1.496
45333SOL    HW237897  13.696  10.300   1.345
45334SOL     OW37898   1.823   3.523   1.719
45334SOL    HW137899   1.887   3.572   1.666
45334SOL    HW237900   1.741   3.571   1.707
45335SOL     OW37901   3.188   9.960   5.563
45335SOL    HW137902   3.117   9.975   5.501
45335SOL    HW237903   3.264  10.003   5.523
45336SOL     OW37904   6.600  13.496  12.551
45336SOL    HW137905   6.656  13.555  12.502
45336SOL    HW237906   6.653  13.418  12.565
45337SOL     OW37907  12.343  12.454   4.190
45337SOL    HW137908  12.375  12.406   4.267
45337SOL    HW237909  12.283  12.519   4.226
45338SOL     OW37910   6.640   6.495   8.996
45338SOL    HW137911   6.579   6.505   9.069
45338SOL    HW237912   6.593   6.529   8.920
45339SOL     OW37913  10.391   8.305   2.079
45339SOL    HW137914  10.347   8.387   2.057
45339SOL    HW237915  10.462   8.297   2.016
45340SOL     OW37916   9.033   0.563   0.884
45340SOL    HW137917   9.063   0.654   0.890
45340SOL    HW237918   9.007   0.552   0.792
45341SOL     OW37919   3.660  11.750  10.355
45341SOL    HW137920   3.622  11.692  10.289
45341SOL    HW237921   3.614  11.727  10.436
45342SOL     OW37922   5.198   8.308  10.941
45342SOL    HW137923   5.195   8.243  11.012
45342SOL    HW237924   5.240   8.384  10.981
45343SOL     OW37925   5.244   2.118   1.748
45343SOL    HW137926   5.235   2.174   1.671
45343SOL    HW237927   5.233   2.029   1.714
45344SOL     OW37928  12.624   4.997   8.140
45344SOL    HW137929  12.652   4.968   8.053
45344SOL    HW237930  12.700   4.981   8.196
45345SOL     OW37931  10.609  13.739   2.022
45345SOL    HW137932  10.667  13.815   2.038
45345SOL    HW237933  10.549  13.769   1.955
45346SOL     OW37934  10.775  11.789   2.442
45346SOL    HW137935  10.860  11.754   2.471
45346SOL    HW237936  10.797  11.840   2.364
45347SOL     OW37937  10.435   9.566  12.936
45347SOL    HW137938  10.361   9.576  12.997
45347SOL    HW237939  10.406   9.607  12.855
45348SOL     OW37940   6.953  13.258   2.427
45348SOL    HW137941   6.914  13.326   2.373
45348SOL    HW237942   6.981  13.191   2.364
45349SOL     OW37943  12.971  14.562   9.954
45349SOL    HW137944  13.048  14.598   9.910
45349SOL    HW237945  12.967  14.608  10.038
45350SOL     OW37946   9.630   3.193  13.529
45350SOL    HW137947   9.607   3.272  13.578
45350SOL    HW237948   9.635   3.124  13.595
45351SOL     OW37949   8.062   6.456  14.286
45351SOL    HW137950   8.103   6.371  14.300
45351SOL    HW237951   8.100   6.513  14.354
45352SOL     OW37952  14.877  11.394   2.785
45352SOL    HW137953  14.869  11.404   2.879
45352SOL    HW237954  14.867  11.300   2.769
45353SOL     OW37955   7.121   0.145  12.950
45353SOL    HW137956   7.055   0.077  12.933
45353SOL    HW237957   7.090   0.221  12.901
45354SOL     OW37958  10.315   6.269   8.789
45354SOL    HW137959  10.311   6.362   8.810
45354SOL    HW237960  10.280   6.263   8.700
45355SOL     OW37961   7.509   1.811  11.574
45355SOL    HW137962   7.558   1.875  11.625
45355SOL    HW237963   7.428   1.799  11.622
45356SOL     OW37964  10.696   1.394   5.582
45356SOL    HW137965  10.712   1.411   5.674
45356SOL    HW237966  10.620   1.447   5.560
45357SOL     OW37967   8.622   1.213  10.261
45357SOL    HW137968   8.592   1.164  10.184
45357SOL    HW237969   8.572   1.295  10.257
45358SOL     OW37970   5.126   9.221   1.255
45358SOL    HW137971   5.153   9.279   1.183
45358SOL    HW237972   5.160   9.135   1.230
45359SOL     OW37973   4.690  10.403   0.026
45359SOL    HW137974   4.623  10.411   0.094
45359SOL    HW237975   4.642  10.376  14.828
45360SOL     OW37976  13.720   7.262   8.537
45360SOL    HW137977  13.674   7.224   8.462
45360SOL    HW237978  13.655   7.316   8.581
45361SOL     OW37979   3.366   6.684   3.067
45361SOL    HW137980   3.282   6.641   3.084
45361SOL    HW237981   3.342   6.773   3.040
45362SOL     OW37982   3.853  13.028  10.592
45362SOL    HW137983   3.915  12.956  10.603
45362SOL    HW237984   3.892  13.084  10.525
45363SOL     OW37985   7.924   6.932   3.461
45363SOL    HW137986   7.906   6.975   3.545
45363SOL    HW237987   7.865   6.974   3.399
45364SOL     OW37988  12.840   1.911   4.192
45364SOL    HW137989  12.850   1.873   4.279
45364SOL    HW237990  12.894   1.856   4.135
45365SOL     OW37991  13.955   5.516  12.933
45365SOL    HW137992  13.888   5.569  12.975
45365SOL    HW237993  14.018   5.579  12.897
45366SOL     OW37994   0.817   4.468   8.927
45366SOL    HW137995   0.862   4.422   8.857
45366SOL    HW237996   0.858   4.437   9.007
45367SOL     OW37997  12.494   4.730   9.426
45367SOL    HW137998  12.436   4.682   9.484
45367SOL    HW237999  12.440   4.800   9.389
45368SOL     OW38000  13.931   9.296   6.497
45368SOL    HW138001  13.977   9.248   6.428
45368SOL    HW238002  13.838   9.278   6.481
45369SOL     OW38003   4.659   6.638  12.101
45369SOL    HW138004   4.676   6.687  12.181
45369SOL    HW238005   4.603   6.566  12.128
45370SOL     OW38006   6.058  12.502   0.315
45370SOL    HW138007   6.040  12.595   0.327
45370SOL    HW238008   6.152  12.498   0.299
45371SOL     OW38009  11.964   2.499   1.361
45371SOL    HW138010  12.048   2.485   1.318
45371SOL    HW238011  11.940   2.414   1.396
45372SOL     OW38012  13.736   0.935  11.330
45372SOL    HW138013  13.750   0.845  11.302
45372SOL    HW238014  13.789   0.987  11.269
45373SOL     OW38015  13.753   4.458   5.065
45373SOL    HW138016  13.785   4.419   5.146
45373SOL    HW238017  13.691   4.525   5.093
45374SOL     OW38018   2.725  12.320   4.181
45374SOL    HW138019   2.760  12.269   4.254
45374SOL    HW238020   2.775  12.290   4.105
45375SOL     OW38021  10.648   9.702   9.633
45375SOL    HW138022  10.581   9.693   9.701
45375SOL    HW238023  10.607   9.757   9.566
45376SOL     OW38024   5.028   1.325   7.685
45376SOL    HW138025   5.122   1.324   7.701
45376SOL    HW238026   5.019   1.308   7.592
45377SOL     OW38027  13.355  10.539   9.623
45377SOL    HW138028  13.295  10.579   9.687
45377SOL    HW238029  13.418  10.490   9.676
45378SOL     OW38030   7.581   3.424   6.763
45378SOL    HW138031   7.550   3.471   6.685
45378SOL    HW238032   7.675   3.442   6.766
45379SOL     OW38033   2.375  12.546   0.675
45379SOL    HW138034   2.317  12.535   0.751
45379SOL    HW238035   2.463  12.547   0.713
45380SOL     OW38036   9.095   2.757   5.276
45380SOL    HW138037   9.085   2.733   5.184
45380SOL    HW238038   9.051   2.687   5.324
45381SOL     OW38039   9.900   9.313  14.312
45381SOL    HW138040   9.942   9.315  14.226
45381SOL    HW238041   9.965   9.273  14.370
45382SOL     OW38042   6.842   1.201  11.044
45382SOL    HW138043   6.851   1.276  10.985
45382SOL    HW238044   6.926   1.155  11.039
45383SOL     OW38045   7.871  14.869  10.265
45383SOL    HW138046   7.802  14.804  10.280
45383SOL    HW238047   7.826   0.073  10.272
45384SOL     OW38048  11.767  10.889   3.251
45384SOL    HW138049  11.796  10.825   3.186
45384SOL    HW238050  11.818  10.867   3.329
45385SOL     OW38051   3.694   2.062  11.573
45385SOL    HW138052   3.769   2.118  11.554
45385SOL    HW238053   3.676   2.016  11.491
45386SOL     OW38054  10.209   7.438  14.829
45386SOL    HW138055  10.146   7.471   0.012
45386SOL    HW238056  10.208   7.343  14.842
45387SOL     OW38057   9.993  14.297   8.850
45387SOL    HW138058   9.994  14.295   8.945
45387SOL    HW238059  10.033  14.381   8.827
45388SOL     OW38060  14.490   1.472   0.995
45388SOL    HW138061  14.537   1.410   0.941
45388SOL    HW238062  14.527   1.557   0.972
45389SOL     OW38063   4.080   1.627  11.763
45389SOL    HW138064   4.016   1.697  11.748
45389SOL    HW238065   4.099   1.592  11.676
45390SOL     OW38066   3.081  11.418  11.154
45390SOL    HW138067   3.149  11.476  11.187
45390SOL    HW238068   3.125  11.362  11.090
45391SOL     OW38069   3.664   1.425   0.991
45391SOL    HW138070   3.610   1.364   1.041
45391SOL    HW238071   3.736   1.373   0.959
45392SOL     OW38072  13.842   1.733   9.314
45392SOL    HW138073  13.858   1.752   9.222
45392SOL    HW238074  13.866   1.814   9.359
45393SOL     OW38075   3.131   2.134  10.445
45393SOL    HW138076   3.205   2.188  10.418
45393SOL    HW238077   3.171   2.052  10.475
45394SOL     OW38078   6.538  13.325   0.444
45394SOL    HW138079   6.514  13.402   0.494
45394SOL    HW238080   6.613  13.288   0.491
45395SOL     OW38081  13.908  11.887   0.625
45395SOL    HW138082  13.890  11.951   0.694
45395SOL    HW238083  13.945  11.811   0.671
45396SOL     OW38084  10.920   5.731   4.653
45396SOL    HW138085  10.984   5.793   4.616
45396SOL    HW238086  10.904   5.763   4.742
45397SOL     OW38087  10.201   6.438  11.977
45397SOL    HW138088  10.182   6.469  11.889
45397SOL    HW238089  10.266   6.500  12.011
45398SOL     OW38090   0.097  14.574   6.429
45398SOL    HW138091   0.048  14.583   6.510
45398SOL    HW238092   0.055  14.501   6.383
45399SOL     OW38093   8.639   4.439  14.493
45399SOL    HW138094   8.600   4.404  14.573
45399SOL    HW238095   8.709   4.377  14.471
45400SOL     OW38096  10.889  13.380   6.292
45400SOL    HW138097  10.865  13.445   6.359
45400SOL    HW238098  10.984  13.371   6.301
45401SOL     OW38099   4.656   7.127  12.006
45401SOL    HW138100   4.668   7.221  12.020
45401SOL    HW238101   4.649   7.118  11.911
45402SOL     OW38102   2.329   1.326   8.745
45402SOL    HW138103   2.380   1.367   8.675
45402SOL    HW238104   2.243   1.368   8.740
45403SOL     OW38105   5.311  13.292   1.767
45403SOL    HW138106   5.256  13.362   1.803
45403SOL    HW238107   5.396  13.334   1.751
45404SOL     OW38108  10.252   9.848   8.369
45404SOL    HW138109  10.328   9.885   8.415
45404SOL    HW238110  10.201   9.925   8.343
45405SOL     OW38111   6.422   9.173   1.824
45405SOL    HW138112   6.441   9.258   1.785
45405SOL    HW238113   6.506   9.146   1.863
45406SOL     OW38114   4.565   5.910   2.555
45406SOL    HW138115   4.546   5.908   2.461
45406SOL    HW238116   4.658   5.934   2.560
45407SOL     OW38117   1.599  11.078   6.450
45407SOL    HW138118   1.688  11.051   6.470
45407SOL    HW238119   1.608  11.161   6.403
45408SOL     OW38120   9.145   2.749   9.804
45408SOL    HW138121   9.087   2.755   9.880
45408SOL    HW238122   9.097   2.790   9.733
45409SOL     OW38123   9.485   3.863  13.395
45409SOL    HW138124   9.395   3.892  13.383
45409SOL    HW238125   9.494   3.786  13.338
45410SOL     OW38126   9.426   5.405  13.400
45410SOL    HW138127   9.358   5.337  13.398
45410SOL    HW238128   9.491   5.372  13.462
45411SOL     OW38129  14.622   8.608   4.908
45411SOL    HW138130  14.631   8.598   5.003
45411SOL    HW238131  14.622   8.519   4.874
45412SOL     OW38132  12.307   3.887   5.098
45412SOL    HW138133  12.395   3.855   5.080
45412SOL    HW238134  12.255   3.808   5.112
45413SOL     OW38135   2.123   7.120  14.820
45413SOL    HW138136   2.039   7.165  14.829
45413SOL    HW238137   2.125   7.057   0.012
45414SOL     OW38138   9.860   5.636   8.441
45414SOL    HW138139   9.877   5.676   8.356
45414SOL    HW238140   9.766   5.620   8.442
45415SOL     OW38141   4.151   6.396   4.112
45415SOL    HW138142   4.152   6.485   4.147
45415SOL    HW238143   4.101   6.345   4.177
45416SOL     OW38144  13.483   7.188   9.610
45416SOL    HW138145  13.523   7.235   9.537
45416SOL    HW238146  13.491   7.249   9.684
45417SOL     OW38147   4.573   8.572  11.644
45417SOL    HW138148   4.620   8.561  11.727
45417SOL    HW238149   4.639   8.555  11.577
45418SOL     OW38150  14.793   3.100  14.845
45418SOL    HW138151   0.005   3.102  14.868
45418SOL    HW238152  14.748   3.135   0.043
45419SOL     OW38153   3.173  10.008   8.388
45419SOL    HW138154   3.259   9.992   8.349
45419SOL    HW238155   3.174   9.957   8.469
45420SOL     OW38156   2.060   8.536   0.803
45420SOL    HW138157   2.016   8.453   0.819
45420SOL    HW238158   2.036   8.591   0.879
45421SOL     OW38159  11.959   8.181   5.545
45421SOL    HW138160  11.898   8.146   5.480
45421SOL    HW238161  12.043   8.183   5.500
45422SOL     OW38162   6.469   5.757   9.425
45422SOL    HW138163   6.438   5.684   9.479
45422SOL    HW238164   6.495   5.824   9.488
45423SOL     OW38165  12.934  13.553   5.181
45423SOL    HW138166  13.005  13.603   5.219
45423SOL    HW238167  12.898  13.610   5.113
45424SOL     OW38168  13.096   9.089   4.823
45424SOL    HW138169  13.085   9.000   4.857
45424SOL    HW238170  13.136   9.138   4.895
45425SOL     OW38171   1.626   7.705   7.656
45425SOL    HW138172   1.615   7.614   7.629
45425SOL    HW238173   1.685   7.700   7.732
45426SOL     OW38174   3.951  13.024  10.126
45426SOL    HW138175   3.990  13.101  10.085
45426SOL    HW238176   3.914  12.974  10.054
45427SOL     OW38177   4.257  13.403   0.040
45427SOL    HW138178   4.279  13.490   0.074
45427SOL    HW238179   4.172  13.415  14.878
45428SOL     OW38180   2.060   4.307   8.920
45428SOL    HW138181   2.007   4.363   8.977
45428SOL    HW238182   2.003   4.232   8.901
45429SOL     OW38183   4.256   8.319   8.137
45429SOL    HW138184   4.199   8.261   8.086
45429SOL    HW238185   4.285   8.265   8.211
45430SOL     OW38186   5.819   2.281  14.256
45430SOL    HW138187   5.794   2.252  14.343
45430SOL    HW238188   5.810   2.202  14.201
45431SOL     OW38189  14.382  14.328   1.104
45431SOL    HW138190  14.357  14.321   1.012
45431SOL    HW238191  14.436  14.407   1.108
45432SOL     OW38192   5.547  11.572  10.197
45432SOL    HW138193   5.478  11.558  10.261
45432SOL    HW238194   5.504  11.618  10.125
45433SOL     OW38195  11.493   5.642   5.559
45433SOL    HW138196  11.565   5.585   5.587
45433SOL    HW238197  11.425   5.628   5.624
45434SOL     OW38198   5.886   6.152   4.872
45434SOL    HW138199   5.933   6.070   4.888
45434SOL    HW238200   5.796   6.134   4.898
45435SOL     OW38201  10.186   7.367   9.972
45435SOL    HW138202  10.172   7.425  10.047
45435SOL    HW238203  10.185   7.279  10.009
45436SOL     OW38204   4.674   1.480   8.826
45436SOL    HW138205   4.687   1.553   8.886
45436SOL    HW238206   4.751   1.480   8.769
45437SOL     OW38207   6.690  10.659   3.815
45437SOL    HW138208   6.605  10.630   3.847
45437SOL    HW238209   6.753  10.610   3.867
45438SOL     OW38210  13.381   8.876   4.652
45438SOL    HW138211  13.321   8.951   4.656
45438SOL    HW238212  13.370   8.841   4.563
45439SOL     OW38213   7.079   0.084   6.241
45439SOL    HW138214   7.165   0.046   6.222
45439SOL    HW238215   7.099   0.162   6.294
45440SOL     OW38216   8.996   3.780   9.580
45440SOL    HW138217   8.910   3.773   9.621
45440SOL    HW238218   9.011   3.874   9.570
45441SOL     OW38219   2.887  12.030   2.314
45441SOL    HW138220   2.924  12.118   2.322
45441SOL    HW238221   2.802  12.044   2.274
45442SOL     OW38222   4.519  11.636  10.776
45442SOL    HW138223   4.515  11.600  10.688
45442SOL    HW238224   4.450  11.703  10.778
45443SOL     OW38225  11.690  12.656   8.491
45443SOL    HW138226  11.610  12.622   8.451
45443SOL    HW238227  11.751  12.666   8.418
45444SOL     OW38228  13.183  12.760  10.303
45444SOL    HW138229  13.226  12.759  10.218
45444SOL    HW238230  13.199  12.848  10.338
45445SOL     OW38231   5.503   9.930   0.149
45445SOL    HW138232   5.449  10.008   0.139
45445SOL    HW238233   5.454   9.861   0.103
45446SOL     OW38234  12.801   1.210   5.072
45446SOL    HW138235  12.854   1.141   5.032
45446SOL    HW238236  12.840   1.292   5.040
45447SOL     OW38237   8.660   1.673  13.384
45447SOL    HW138238   8.746   1.659  13.344
45447SOL    HW238239   8.610   1.595  13.361
45448SOL     OW38240   2.513   2.525   6.392
45448SOL    HW138241   2.605   2.504   6.402
45448SOL    HW238242   2.503   2.550   6.300
45449SOL     OW38243   2.930   7.632   6.076
45449SOL    HW138244   2.912   7.725   6.093
45449SOL    HW238245   2.996   7.609   6.141
45450SOL     OW38246  14.308   3.750   1.675
45450SOL    HW138247  14.361   3.824   1.643
45450SOL    HW238248  14.255   3.725   1.600
45451SOL     OW38249   5.259   9.853   4.455
45451SOL    HW138250   5.316   9.867   4.380
45451SOL    HW238251   5.197   9.785   4.428
45452SOL     OW38252  11.489   5.951   5.517
45452SOL    HW138253  11.488   5.856   5.524
45452SOL    HW238254  11.569   5.970   5.467
45453SOL     OW38255  13.085  13.700  11.958
45453SOL    HW138256  13.051  13.788  11.937
45453SOL    HW238257  13.012  13.641  11.938
45454SOL     OW38258   9.361   2.393   0.508
45454SOL    HW138259   9.423   2.404   0.580
45454SOL    HW238260   9.278   2.426   0.542
45455SOL     OW38261   8.324   1.933   1.848
45455SOL    HW138262   8.294   1.874   1.779
45455SOL    HW238263   8.327   2.019   1.807
45456SOL     OW38264  11.457  11.608   6.201
45456SOL    HW138265  11.513  11.681   6.227
45456SOL    HW238266  11.500  11.570   6.124
45457SOL     OW38267   3.995  12.602   3.403
45457SOL    HW138268   4.059  12.533   3.421
45457SOL    HW238269   4.009  12.666   3.473
45458SOL     OW38270   0.218   3.843  14.247
45458SOL    HW138271   0.182   3.755  14.238
45458SOL    HW238272   0.180   3.876  14.328
45459SOL     OW38273   8.760   6.493   6.040
45459SOL    HW138274   8.690   6.432   6.018
45459SOL    HW238275   8.756   6.501   6.136
45460SOL     OW38276   1.795   3.104   7.760
45460SOL    HW138277   1.778   3.058   7.678
45460SOL    HW238278   1.710   3.109   7.803
45461SOL     OW38279  13.761   7.887  13.727
45461SOL    HW138280  13.800   7.874  13.641
45461SOL    HW238281  13.824   7.849  13.788
45462SOL     OW38282  11.813   1.998   1.999
45462SOL    HW138283  11.858   2.040   2.072
45462SOL    HW238284  11.727   1.974   2.034
45463SOL     OW38285   8.760  11.201   1.495
45463SOL    HW138286   8.674  11.182   1.532
45463SOL    HW238287   8.821  11.183   1.567
45464SOL     OW38288  13.093   5.380   9.069
45464SOL    HW138289  13.081   5.353   8.978
45464SOL    HW238290  13.029   5.450   9.082
45465SOL     OW38291  13.951   8.066   8.925
45465SOL    HW138292  13.989   8.135   8.980
45465SOL    HW238293  13.972   8.093   8.835
45466SOL     OW38294   1.017  12.159   5.682
45466SOL    HW138295   1.089  12.218   5.660
45466SOL    HW238296   0.946  12.186   5.623
45467SOL     OW38297   9.419   7.629   8.064
45467SOL    HW138298   9.504   7.663   8.036
45467SOL    HW238299   9.409   7.546   8.016
45468SOL     OW38300   9.408  11.004  14.638
45468SOL    HW138301   9.394  11.094  14.611
45468SOL    HW238302   9.323  10.974  14.668
45469SOL     OW38303   7.732  13.136   5.600
45469SOL    HW138304   7.750  13.188   5.678
45469SOL    HW238305   7.725  13.046   5.631
45470SOL     OW38306   6.252  10.478   9.727
45470SOL    HW138307   6.189  10.515   9.790
45470SOL    HW238308   6.210  10.398   9.696
45471SOL     OW38309   0.263   8.590   3.721
45471SOL    HW138310   0.188   8.590   3.661
45471SOL    HW238311   0.235   8.646   3.794
45472SOL     OW38312   5.654   7.576   1.131
45472SOL    HW138313   5.638   7.637   1.059
45472SOL    HW238314   5.704   7.626   1.195
45473SOL     OW38315   5.532   9.646   1.276
45473SOL    HW138316   5.571   9.652   1.189
45473SOL    HW238317   5.438   9.645   1.260
45474SOL     OW38318  13.330   4.324   3.250
45474SOL    HW138319  13.364   4.282   3.329
45474SOL    HW238320  13.290   4.253   3.200
45475SOL     OW38321   8.293   2.242   7.251
45475SOL    HW138322   8.292   2.161   7.200
45475SOL    HW238323   8.267   2.310   7.189
45476SOL     OW38324  14.282   4.842   9.030
45476SOL    HW138325  14.216   4.908   9.048
45476SOL    HW238326  14.234   4.760   9.023
45477SOL     OW38327   2.562   2.508   3.059
45477SOL    HW138328   2.565   2.458   2.977
45477SOL    HW238329   2.541   2.443   3.126
45478SOL     OW38330   7.524  11.863   0.946
45478SOL    HW138331   7.592  11.827   0.889
45478SOL    HW238332   7.571  11.887   1.026
45479SOL     OW38333  14.761   7.769  11.325
45479SOL    HW138334  14.732   7.696  11.271
45479SOL    HW238335  14.767   7.734  11.414
45480SOL     OW38336  11.084   0.460   8.509
45480SOL    HW138337  11.028   0.427   8.579
45480SOL    HW238338  11.115   0.381   8.464
45481SOL     OW38339  11.902   6.167   6.952
45481SOL    HW138340  11.980   6.116   6.970
45481SOL    HW238341  11.933   6.258   6.943
45482SOL     OW38342  12.954   9.836  13.756
45482SOL    HW138343  12.946   9.749  13.718
45482SOL    HW238344  12.914   9.894  13.692
45483SOL     OW38345   9.573   3.033  14.131
45483SOL    HW138346   9.531   3.072  14.208
45483SOL    HW238347   9.628   3.103  14.096
45484SOL     OW38348   4.780   6.901   9.870
45484SOL    HW138349   4.753   6.809   9.876
45484SOL    HW238350   4.753   6.928   9.783
45485SOL     OW38351   7.024   2.787   1.554
45485SOL    HW138352   7.120   2.788   1.548
45485SOL    HW238353   7.003   2.698   1.583
45486SOL     OW38354  12.811   1.070  14.595
45486SOL    HW138355  12.806   1.006  14.523
45486SOL    HW238356  12.881   1.130  14.569
45487SOL     OW38357   0.356  10.625  13.233
45487SOL    HW138358   0.346  10.638  13.139
45487SOL    HW238359   0.345  10.531  13.246
45488SOL     OW38360  12.717   0.867  13.238
45488SOL    HW138361  12.752   0.865  13.328
45488SOL    HW238362  12.785   0.825  13.185
45489SOL     OW38363  14.111   2.222   7.114
45489SOL    HW138364  14.041   2.225   7.179
45489SOL    HW238365  14.140   2.131   7.115
45490SOL     OW38366  14.332   8.374  14.573
45490SOL    HW138367  14.426   8.355  14.576
45490SOL    HW238368  14.326   8.461  14.533
45491SOL     OW38369   0.142   9.499  12.164
45491SOL    HW138370   0.183   9.414  12.148
45491SOL    HW238371   0.052   9.478  12.189
45492SOL     OW38372   5.223   3.732   3.693
45492SOL    HW138373   5.168   3.670   3.741
45492SOL    HW238374   5.263   3.680   3.623
45493SOL     OW38375   0.991   3.016   4.211
45493SOL    HW138376   1.074   3.043   4.251
45493SOL    HW238377   0.932   3.090   4.228
45494SOL     OW38378   6.307  11.812   1.744
45494SOL    HW138379   6.268  11.893   1.711
45494SOL    HW238380   6.335  11.834   1.833
45495SOL     OW38381   8.747   2.614   9.081
45495SOL    HW138382   8.759   2.704   9.051
45495SOL    HW238383   8.785   2.613   9.169
45496SOL     OW38384   9.221  14.474   0.672
45496SOL    HW138385   9.152  14.504   0.612
45496SOL    HW238386   9.228  14.380   0.654
45497SOL     OW38387   4.887   6.117   0.309
45497SOL    HW138388   4.817   6.174   0.339
45497SOL    HW238389   4.896   6.138   0.215
45498SOL     OW38390   5.776   3.922  11.951
45498SOL    HW138391   5.698   3.903  12.002
45498SOL    HW238392   5.842   3.947  12.016
45499SOL     OW38393   5.382   9.102   4.920
45499SOL    HW138394   5.322   9.169   4.888
45499SOL    HW238395   5.443   9.087   4.847
45500SOL     OW38396   4.660   1.007   1.511
45500SOL    HW138397   4.615   1.019   1.427
45500SOL    HW238398   4.615   1.066   1.571
45501SOL     OW38399   6.788   6.740   1.604
45501SOL    HW138400   6.705   6.699   1.628
45501SOL    HW238401   6.783   6.750   1.509
45502SOL     OW38402  12.809   8.868   9.987
45502SOL    HW138403  12.843   8.955  10.003
45502SOL    HW238404  12.795   8.830  10.074
45503SOL     OW38405  10.960  10.274  13.057
45503SOL    HW138406  10.946  10.319  13.140
45503SOL    HW238407  11.033  10.321  13.016
45504SOL     OW38408   0.909   0.174  12.214
45504SOL    HW138409   0.961   0.250  12.188
45504SOL    HW238410   0.868   0.143  12.133
45505SOL     OW38411  13.782  10.635   9.076
45505SOL    HW138412  13.739  10.570   9.020
45505SOL    HW238413  13.828  10.584   9.142
45506SOL     OW38414   2.879   1.275  13.096
45506SOL    HW138415   2.877   1.326  13.176
45506SOL    HW238416   2.937   1.201  13.116
45507SOL     OW38417   3.905   1.667   2.369
45507SOL    HW138418   3.833   1.686   2.429
45507SOL    HW238419   3.943   1.753   2.350
45508SOL     OW38420   9.789   1.158   7.688
45508SOL    HW138421   9.786   1.247   7.652
45508SOL    HW238422   9.841   1.166   7.767
45509SOL     OW38423  13.791   4.027  11.021
45509SOL    HW138424  13.865   3.969  11.002
45509SOL    HW238425  13.831   4.105  11.059
45510SOL     OW38426   5.043  13.072  13.113
45510SOL    HW138427   5.074  13.158  13.085
45510SOL    HW238428   5.004  13.034  13.034
45511SOL     OW38429   6.068   7.658  11.334
45511SOL    HW138430   6.097   7.731  11.280
45511SOL    HW238431   6.141   7.644  11.395
45512SOL     OW38432  13.914   3.581   1.904
45512SOL    HW138433  13.895   3.542   1.990
45512SOL    HW238434  13.977   3.521   1.864
45513SOL     OW38435   3.771   9.443  14.180
45513SOL    HW138436   3.848   9.466  14.231
45513SOL    HW238437   3.805   9.424  14.092
45514SOL     OW38438  11.576   5.934   6.051
45514SOL    HW138439  11.592   5.839   6.055
45514SOL    HW238440  11.482   5.942   6.067
45515SOL     OW38441   8.308   7.957  12.743
45515SOL    HW138442   8.277   7.893  12.679
45515SOL    HW238443   8.379   7.912  12.788
45516SOL     OW38444   0.063   3.805   7.027
45516SOL    HW138445   0.137   3.848   6.985
45516SOL    HW238446   0.071   3.713   6.999
45517SOL     OW38447  14.162   5.089  14.024
45517SOL    HW138448  14.236   5.071  14.082
45517SOL    HW238449  14.125   5.002  14.006
45518SOL     OW38450  11.797   5.356   9.774
45518SOL    HW138451  11.881   5.337   9.815
45518SOL    HW238452  11.767   5.436   9.816
45519SOL     OW38453   0.447   7.669   1.778
45519SOL    HW138454   0.527   7.712   1.746
45519SOL    HW238455   0.427   7.714   1.860
45520SOL     OW38456  13.708   2.601  10.410
45520SOL    HW138457  13.788   2.586  10.360
45520SOL    HW238458  13.692   2.518  10.456
45521SOL     OW38459   0.988  12.641  10.059
45521SOL    HW138460   1.074  12.599  10.060
45521SOL    HW238461   1.005  12.731  10.029
45522SOL     OW38462   0.961   0.722  13.748
45522SOL    HW138463   0.883   0.689  13.792
45522SOL    HW238464   1.034   0.690  13.800
45523SOL     OW38465  10.028   2.466   8.115
45523SOL    HW138466   9.933   2.465   8.113
45523SOL    HW238467  10.054   2.432   8.029
45524SOL     OW38468   4.584   2.105  13.056
45524SOL    HW138469   4.547   2.019  13.037
45524SOL    HW238470   4.597   2.106  13.151
45525SOL     OW38471  12.274   1.121   6.647
45525SOL    HW138472  12.179   1.126   6.636
45525SOL    HW238473  12.287   1.133   6.741
45526SOL     OW38474  12.453  10.175  13.029
45526SOL    HW138475  12.508  10.103  12.998
45526SOL    HW238476  12.503  10.254  13.009
45527SOL     OW38477  13.396  10.495   9.194
45527SOL    HW138478  13.318  10.501   9.250
45527SOL    HW238479  13.459  10.554   9.235
45528SOL     OW38480   5.450   1.589   2.745
45528SOL    HW138481   5.367   1.543   2.733
45528SOL    HW238482   5.516   1.519   2.745
45529SOL     OW38483   2.673   3.418   8.596
45529SOL    HW138484   2.590   3.440   8.553
45529SOL    HW238485   2.719   3.363   8.533
45530SOL     OW38486   2.380  13.757   9.241
45530SOL    HW138487   2.328  13.837   9.247
45530SOL    HW238488   2.421  13.762   9.154
45531SOL     OW38489   0.640   3.423   7.231
45531SOL    HW138490   0.666   3.360   7.299
45531SOL    HW238491   0.698   3.498   7.244
45532SOL     OW38492  14.359  10.496   3.396
45532SOL    HW138493  14.385  10.407   3.373
45532SOL    HW238494  14.403  10.513   3.479
45533SOL     OW38495   1.131   9.925   8.783
45533SOL    HW138496   1.174   9.856   8.835
45533SOL    HW238497   1.141  10.004   8.836
45534SOL     OW38498   7.698  12.324   3.673
45534SOL    HW138499   7.715  12.410   3.711
45534SOL    HW238500   7.609  12.302   3.701
45535SOL     OW38501  10.362  10.019   0.555
45535SOL    HW138502  10.373  10.012   0.461
45535SOL    HW238503  10.419   9.950   0.591
45536SOL     OW38504  10.300   0.585   2.256
45536SOL    HW138505  10.388   0.565   2.223
45536SOL    HW238506  10.306   0.572   2.351
45537SOL     OW38507   6.492   7.566  10.843
45537SOL    HW138508   6.423   7.628  10.817
45537SOL    HW238509   6.558   7.575  10.774
45538SOL     OW38510   7.339  13.831   5.322
45538SOL    HW138511   7.319  13.737   5.327
45538SOL    HW238512   7.255  13.874   5.337
45539SOL     OW38513   3.407  12.735   8.480
45539SOL    HW138514   3.464  12.793   8.428
45539SOL    HW238515   3.332  12.790   8.503
45540SOL     OW38516  13.857   1.697  12.506
45540SOL    HW138517  13.910   1.625  12.542
45540SOL    HW238518  13.894   1.712  12.419
45541SOL     OW38519  13.602  11.640  11.357
45541SOL    HW138520  13.508  11.655  11.372
45541SOL    HW238521  13.632  11.720  11.314
45542SOL     OW38522  13.723   4.713   4.265
45542SOL    HW138523  13.716   4.714   4.170
45542SOL    HW238524  13.692   4.799   4.293
45543SOL     OW38525   6.454   0.145   7.006
45543SOL    HW138526   6.388   0.198   6.963
45543SOL    HW238527   6.448   0.059   6.963
45544SOL     OW38528   0.348  14.876   2.046
45544SOL    HW138529   0.393  14.792   2.035
45544SOL    HW238530   0.385   0.051   1.978
45545SOL     OW38531   6.939  13.207   6.039
45545SOL    HW138532   6.935  13.287   5.987
45545SOL    HW238533   7.020  13.214   6.089
45546SOL     OW38534  12.454   8.288  13.393
45546SOL    HW138535  12.527   8.321  13.340
45546SOL    HW238536  12.419   8.214  13.344
45547SOL     OW38537  11.027   2.060   2.390
45547SOL    HW138538  11.069   2.126   2.445
45547SOL    HW238539  10.934   2.070   2.408
45548SOL     OW38540   8.450   4.514   5.611
45548SOL    HW138541   8.407   4.431   5.633
45548SOL    HW238542   8.454   4.514   5.515
45549SOL     OW38543   1.054   3.966   1.065
45549SOL    HW138544   1.039   3.872   1.078
45549SOL    HW238545   1.109   3.992   1.139
45550SOL     OW38546  11.637   2.230   4.002
45550SOL    HW138547  11.647   2.217   4.096
45550SOL    HW238548  11.594   2.150   3.971
45551SOL     OW38549   6.347  10.586  12.688
45551SOL    HW138550   6.391  10.607  12.605
45551SOL    HW238551   6.409  10.531  12.735
45552SOL     OW38552  11.323   7.863   9.370
45552SOL    HW138553  11.291   7.950   9.395
45552SOL    HW238554  11.369   7.832   9.449
45553SOL     OW38555   9.250  13.056   5.321
45553SOL    HW138556   9.281  13.093   5.404
45553SOL    HW238557   9.200  13.126   5.280
45554SOL     OW38558   6.802   0.322  14.448
45554SOL    HW138559   6.865   0.347  14.515
45554SOL    HW238560   6.833   0.365  14.368
45555SOL     OW38561  10.741  10.335   5.160
45555SOL    HW138562  10.765  10.418   5.201
45555SOL    HW238563  10.778  10.341   5.071
45556SOL     OW38564   2.293   8.031  10.956
45556SOL    HW138565   2.387   8.048  10.957
45556SOL    HW238566   2.265   8.053  10.867
45557SOL     OW38567   0.887   7.880   8.294
45557SOL    HW138568   0.947   7.809   8.315
45557SOL    HW238569   0.944   7.952   8.267
45558SOL     OW38570   0.602   2.368   3.544
45558SOL    HW138571   0.640   2.449   3.579
45558SOL    HW238572   0.508   2.378   3.557
45559SOL     OW38573   2.026   1.812  13.919
45559SOL    HW138574   2.113   1.779  13.899
45559SOL    HW238575   1.993   1.846  13.836
45560SOL     OW38576  13.921  13.161   4.711
45560SOL    HW138577  13.985  13.200   4.771
45560SOL    HW238578  13.837  13.171   4.756
45561SOL     OW38579   1.599   4.568   1.583
45561SOL    HW138580   1.618   4.482   1.621
45561SOL    HW238581   1.644   4.629   1.641
45562SOL     OW38582   2.182  13.601  13.799
45562SOL    HW138583   2.162  13.523  13.747
45562SOL    HW238584   2.276  13.593  13.818
45563SOL     OW38585  11.257   2.995   7.070
45563SOL    HW138586  11.310   3.075   7.075
45563SOL    HW238587  11.199   3.000   7.146
45564SOL     OW38588   0.368   4.878   4.358
45564SOL    HW138589   0.430   4.939   4.399
45564SOL    HW238590   0.424   4.816   4.311
45565SOL     OW38591  10.859   4.033  10.185
45565SOL    HW138592  10.865   3.939  10.201
45565SOL    HW238593  10.839   4.071  10.271
45566SOL     OW38594   6.047   2.120   5.850
45566SOL    HW138595   5.964   2.139   5.894
45566SOL    HW238596   6.110   2.179   5.890
45567SOL     OW38597   3.722   3.436   1.471
45567SOL    HW138598   3.688   3.512   1.424
45567SOL    HW238599   3.665   3.364   1.443
45568SOL     OW38600  12.738   3.569   1.856
45568SOL    HW138601  12.720   3.538   1.768
45568SOL    HW238602  12.663   3.539   1.908
45569SOL     OW38603   2.481  14.471   2.360
45569SOL    HW138604   2.467  14.565   2.364
45569SOL    HW238605   2.486  14.451   2.267
45570SOL     OW38606   4.830   0.129   4.888
45570SOL    HW138607   4.743   0.158   4.915
45570SOL    HW238608   4.887   0.203   4.906
45571SOL     OW38609  13.610   2.464   4.690
45571SOL    HW138610  13.633   2.387   4.638
45571SOL    HW238611  13.545   2.433   4.753
45572SOL     OW38612   3.069   3.055   1.682
45572SOL    HW138613   2.998   3.096   1.732
45572SOL    HW238614   3.144   3.057   1.741
45573SOL     OW38615   5.561   2.903   3.822
45573SOL    HW138616   5.520   2.859   3.897
45573SOL    HW238617   5.654   2.881   3.830
45574SOL     OW38618   6.540   9.103  10.484
45574SOL    HW138619   6.609   9.041  10.508
45574SOL    HW238620   6.497   9.124  10.567
45575SOL     OW38621   5.931   5.811   2.529
45575SOL    HW138622   5.875   5.876   2.572
45575SOL    HW238623   5.889   5.727   2.549
45576SOL     OW38624   5.169   1.363   3.705
45576SOL    HW138625   5.219   1.287   3.734
45576SOL    HW238626   5.126   1.334   3.625
45577SOL     OW38627   5.437  12.912   9.311
45577SOL    HW138628   5.385  12.832   9.310
45577SOL    HW238629   5.476  12.915   9.398
45578SOL     OW38630   5.600   0.585   1.144
45578SOL    HW138631   5.522   0.529   1.136
45578SOL    HW238632   5.590   0.649   1.074
45579SOL     OW38633   3.140   4.097   8.043
45579SOL    HW138634   3.206   4.096   8.112
45579SOL    HW238635   3.147   4.183   8.003
45580SOL     OW38636   4.487   2.243   6.585
45580SOL    HW138637   4.540   2.187   6.641
45580SOL    HW238638   4.421   2.280   6.644
45581SOL     OW38639   5.417   0.195   0.131
45581SOL    HW138640   5.351   0.163   0.070
45581SOL    HW238641   5.378   0.271   0.173
45582SOL     OW38642  10.198   2.699   5.755
45582SOL    HW138643  10.107   2.712   5.782
45582SOL    HW238644  10.250   2.723   5.832
45583SOL     OW38645   8.407  13.062   0.564
45583SOL    HW138646   8.454  12.988   0.525
45583SOL    HW238647   8.317  13.031   0.573
45584SOL     OW38648  13.146   8.322  14.653
45584SOL    HW138649  13.086   8.385  14.693
45584SOL    HW238650  13.089   8.255  14.616
45585SOL     OW38651   6.549   3.352   5.047
45585SOL    HW138652   6.501   3.363   5.129
45585SOL    HW238653   6.634   3.316   5.074
45586SOL     OW38654  11.174  10.387   8.789
45586SOL    HW138655  11.202  10.300   8.760
45586SOL    HW238656  11.082  10.377   8.813
45587SOL     OW38657   2.856   9.876   0.150
45587SOL    HW138658   2.787   9.849   0.211
45587SOL    HW238659   2.820   9.952   0.105
45588SOL     OW38660   3.064   7.493  13.308
45588SOL    HW138661   3.127   7.423  13.323
45588SOL    HW238662   3.085   7.527  13.221
45589SOL     OW38663   5.276  13.946   1.564
45589SOL    HW138664   5.345  13.932   1.628
45589SOL    HW238665   5.254  14.039   1.572
45590SOL     OW38666   8.450   3.233   4.260
45590SOL    HW138667   8.406   3.218   4.343
45590SOL    HW238668   8.486   3.322   4.267
45591SOL     OW38669   9.009   7.673  11.314
45591SOL    HW138670   8.969   7.606  11.258
45591SOL    HW238671   9.067   7.721  11.255
45592SOL     OW38672   5.826  12.972  11.483
45592SOL    HW138673   5.805  12.905  11.547
45592SOL    HW238674   5.742  13.006  11.453
45593SOL     OW38675   5.446   7.545  14.039
45593SOL    HW138676   5.472   7.490  14.113
45593SOL    HW238677   5.527   7.560  13.990
45594SOL     OW38678  14.181   6.355   6.250
45594SOL    HW138679  14.115   6.422   6.234
45594SOL    HW238680  14.238   6.392   6.317
45595SOL     OW38681   2.868   9.357   0.342
45595SOL    HW138682   2.913   9.440   0.327
45595SOL    HW238683   2.928   9.291   0.309
45596SOL     OW38684   0.076  10.894   9.729
45596SOL    HW138685   0.025  10.907   9.649
45596SOL    HW238686   0.167  10.893   9.699
45597SOL     OW38687   1.289  13.329   2.002
45597SOL    HW138688   1.220  13.393   1.985
45597SOL    HW238689   1.370  13.376   1.982
45598SOL     OW38690   6.391   1.721   7.907
45598SOL    HW138691   6.411   1.814   7.899
45598SOL    HW238692   6.470   1.677   7.879
45599SOL     OW38693   9.067  11.085   5.724
45599SOL    HW138694   9.115  11.058   5.645
45599SOL    HW238695   9.062  11.180   5.718
45600SOL     OW38696   5.265  11.893  10.986
45600SOL    HW138697   5.321  11.819  10.963
45600SOL    HW238698   5.270  11.897  11.082
45601SOL     OW38699   8.979   0.820   5.626
45601SOL    HW138700   9.048   0.784   5.681
45601SOL    HW238701   8.899   0.808   5.677
45602SOL     OW38702   7.582   4.591  13.346
45602SOL    HW138703   7.627   4.601  13.430
45602SOL    HW238704   7.644   4.545  13.290
45603SOL     OW38705  10.430   1.649   5.278
45603SOL    HW138706  10.514   1.668   5.236
45603SOL    HW238707  10.437   1.690   5.364
45604SOL     OW38708  13.654  13.543  14.419
45604SOL    HW138709  13.694  13.583  14.342
45604SOL    HW238710  13.725  13.541  14.484
45605SOL     OW38711  13.325   0.182   9.760
45605SOL    HW138712  13.252   0.125   9.786
45605SOL    HW238713  13.391   0.168   9.827
45606SOL     OW38714   6.770   9.353   3.548
45606SOL    HW138715   6.713   9.350   3.471
45606SOL    HW238716   6.722   9.305   3.615
45607SOL     OW38717   2.896   8.766   7.856
45607SOL    HW138718   2.990   8.776   7.870
45607SOL    HW238719   2.855   8.820   7.924
45608SOL     OW38720   5.870   8.447   9.122
45608SOL    HW138721   5.906   8.416   9.205
45608SOL    HW238722   5.894   8.379   9.059
45609SOL     OW38723  12.832   7.283   7.936
45609SOL    HW138724  12.833   7.369   7.976
45609SOL    HW238725  12.778   7.230   7.995
45610SOL     OW38726   7.636   4.327  11.068
45610SOL    HW138727   7.570   4.299  11.004
45610SOL    HW238728   7.686   4.395  11.022
45611SOL     OW38729  13.073  12.475   2.590
45611SOL    HW138730  13.066  12.535   2.516
45611SOL    HW238731  13.084  12.389   2.550
45612SOL     OW38732   6.574   3.390   8.653
45612SOL    HW138733   6.553   3.301   8.678
45612SOL    HW238734   6.593   3.386   8.559
45613SOL     OW38735   6.597   3.124   3.615
45613SOL    HW138736   6.545   3.118   3.535
45613SOL    HW238737   6.658   3.196   3.599
45614SOL     OW38738  11.922   4.604   9.296
45614SOL    HW138739  11.882   4.525   9.331
45614SOL    HW238740  11.914   4.669   9.366
45615SOL     OW38741   8.328   9.369   6.406
45615SOL    HW138742   8.421   9.355   6.389
45615SOL    HW238743   8.327   9.431   6.479
45616SOL     OW38744   0.936   2.545   0.440
45616SOL    HW138745   0.914   2.557   0.347
45616SOL    HW238746   0.941   2.633   0.475
45617SOL     OW38747   7.692   9.924   5.664
45617SOL    HW138748   7.730   9.892   5.746
45617SOL    HW238749   7.647  10.005   5.689
45618SOL     OW38750   0.305  13.865  12.269
45618SOL    HW138751   0.217  13.847  12.236
45618SOL    HW238752   0.362  13.856  12.193
45619SOL     OW38753  11.060   6.642   3.643
45619SOL    HW138754  11.086   6.692   3.566
45619SOL    HW238755  10.965   6.643   3.642
45620SOL     OW38756   9.489  12.025  11.108
45620SOL    HW138757   9.437  11.947  11.087
45620SOL    HW238758   9.442  12.066  11.181
45621SOL     OW38759   2.943  13.084   9.548
45621SOL    HW138760   3.026  13.092   9.595
45621SOL    HW238761   2.901  13.169   9.557
45622SOL     OW38762   9.390  13.622   6.035
45622SOL    HW138763   9.401  13.674   5.955
45622SOL    HW238764   9.317  13.664   6.081
45623SOL     OW38765  10.591   9.908  13.861
45623SOL    HW138766  10.596   9.823  13.818
45623SOL    HW238767  10.682   9.938  13.864
45624SOL     OW38768   2.957   9.085  14.697
45624SOL    HW138769   2.950   9.121  14.609
45624SOL    HW238770   3.026   9.018  14.690
45625SOL     OW38771   9.720  11.503   0.077
45625SOL    HW138772   9.645  11.474   0.130
45625SOL    HW238773   9.782  11.537   0.140
45626SOL     OW38774   1.106   5.442  12.610
45626SOL    HW138775   1.179   5.385  12.583
45626SOL    HW238776   1.149   5.518  12.649
45627SOL     OW38777   0.204  13.183  10.891
45627SOL    HW138778   0.267  13.201  10.822
45627SOL    HW238779   0.135  13.249  10.879
45628SOL     OW38780   7.272   1.532   6.582
45628SOL    HW138781   7.214   1.556   6.509
45628SOL    HW238782   7.357   1.568   6.557
45629SOL     OW38783  12.677   0.776  10.172
45629SOL    HW138784  12.760   0.815  10.144
45629SOL    HW238785  12.626   0.849  10.207
45630SOL     OW38786   4.703   7.944   2.633
45630SOL    HW138787   4.658   7.929   2.549
45630SOL    HW238788   4.672   7.873   2.689
45631SOL     OW38789   6.880   6.874   7.837
45631SOL    HW138790   6.855   6.963   7.861
45631SOL    HW238791   6.901   6.833   7.921
45632SOL     OW38792   8.073   8.561   0.035
45632SOL    HW138793   8.152   8.510   0.020
45632SOL    HW238794   8.086   8.641  14.864
45633SOL     OW38795   4.318   3.239   1.259
45633SOL    HW138796   4.345   3.330   1.269
45633SOL    HW238797   4.394   3.195   1.220
45634SOL     OW38798   9.053   7.075  12.074
45634SOL    HW138799   9.074   7.009  12.141
45634SOL    HW238800   8.964   7.054  12.047
45635SOL     OW38801   3.044   8.509   9.887
45635SOL    HW138802   3.113   8.453   9.922
45635SOL    HW238803   3.000   8.544   9.964
45636SOL     OW38804   1.189   9.255   3.504
45636SOL    HW138805   1.215   9.228   3.592
45636SOL    HW238806   1.164   9.173   3.461
45637SOL     OW38807  10.629   0.420  13.963
45637SOL    HW138808  10.565   0.415  14.034
45637SOL    HW238809  10.685   0.344  13.976
45638SOL     OW38810  11.221   9.831   5.840
45638SOL    HW138811  11.253   9.756   5.789
45638SOL    HW238812  11.220   9.904   5.778
45639SOL     OW38813   4.117  13.377   9.330
45639SOL    HW138814   4.074  13.424   9.402
45639SOL    HW238815   4.201  13.423   9.318
45640SOL     OW38816   5.780   4.893   2.012
45640SOL    HW138817   5.711   4.827   2.022
45640SOL    HW238818   5.849   4.865   2.072
45641SOL     OW38819   0.238   8.878   1.352
45641SOL    HW138820   0.242   8.817   1.426
45641SOL    HW238821   0.299   8.843   1.288
45642SOL     OW38822   7.766   5.620   1.233
45642SOL    HW138823   7.777   5.525   1.245
45642SOL    HW238824   7.735   5.651   1.318
45643SOL     OW38825   3.829  12.247   1.054
45643SOL    HW138826   3.797  12.185   0.988
45643SOL    HW238827   3.764  12.243   1.124
45644SOL     OW38828   6.127   8.577   5.021
45644SOL    HW138829   6.069   8.511   4.982
45644SOL    HW238830   6.214   8.552   4.992
45645SOL     OW38831   8.433   5.099   8.781
45645SOL    HW138832   8.491   5.162   8.739
45645SOL    HW238833   8.411   5.036   8.713
45646SOL     OW38834  11.696   8.651   5.361
45646SOL    HW138835  11.610   8.615   5.339
45646SOL    HW238836  11.684   8.746   5.353
45647SOL     OW38837   5.502  13.838   6.172
45647SOL    HW138838   5.448  13.763   6.147
45647SOL    HW238839   5.466  13.912   6.122
45648SOL     OW38840   0.332  14.848   6.698
45648SOL    HW138841   0.309   0.056   6.667
45648SOL    HW238842   0.332  14.795   6.619
45649SOL     OW38843   4.568   2.746  11.226
45649SOL    HW138844   4.594   2.810  11.159
45649SOL    HW238845   4.634   2.756  11.295
45650SOL     OW38846   6.226   8.865  10.160
45650SOL    HW138847   6.268   8.948  10.182
45650SOL    HW238848   6.146   8.890  10.114
45651SOL     OW38849   0.886  13.308   1.551
45651SOL    HW138850   0.864  13.401   1.558
45651SOL    HW238851   0.815  13.263   1.598
45652SOL     OW38852   9.262  12.988   3.938
45652SOL    HW138853   9.266  12.940   3.856
45652SOL    HW238854   9.320  12.940   3.997
45653SOL     OW38855   3.057   2.804   8.312
45653SOL    HW138856   3.124   2.872   8.321
45653SOL    HW238857   3.081   2.757   8.232
45654SOL     OW38858   3.214   1.369   7.691
45654SOL    HW138859   3.227   1.452   7.645
45654SOL    HW238860   3.300   1.348   7.727
45655SOL     OW38861   5.674   5.748  13.944
45655SOL    HW138862   5.657   5.811  14.014
45655SOL    HW238863   5.769   5.753  13.929
45656SOL     OW38864  12.743  14.628   0.659
45656SOL    HW138865  12.688  14.580   0.721
45656SOL    HW238866  12.831  14.592   0.673
45657SOL     OW38867   6.170   4.604   3.043
45657SOL    HW138868   6.138   4.532   3.097
45657SOL    HW238869   6.213   4.663   3.105
45658SOL     OW38870   0.617   4.443   8.479
45658SOL    HW138871   0.547   4.508   8.472
45658SOL    HW238872   0.571   4.361   8.497
45659SOL     OW38873   5.375   1.194   6.694
45659SOL    HW138874   5.284   1.184   6.668
45659SOL    HW238875   5.415   1.247   6.625
45660SOL     OW38876   6.463  11.060  11.781
45660SOL    HW138877   6.437  11.145  11.744
45660SOL    HW238878   6.481  11.078  11.873
45661SOL     OW38879  14.340  14.681   8.123
45661SOL    HW138880  14.312  14.590   8.120
45661SOL    HW238881  14.313  14.711   8.210
45662SOL     OW38882  12.427   7.191  13.138
45662SOL    HW138883  12.455   7.131  13.069
45662SOL    HW238884  12.334   7.173  13.150
45663SOL     OW38885   2.305   8.757   4.568
45663SOL    HW138886   2.293   8.700   4.492
45663SOL    HW238887   2.282   8.844   4.537
45664SOL     OW38888  10.960   4.652  11.151
45664SOL    HW138889  11.021   4.722  11.128
45664SOL    HW238890  10.964   4.592  11.076
45665SOL     OW38891  13.893   2.434  13.835
45665SOL    HW138892  13.893   2.369  13.905
45665SOL    HW238893  13.937   2.390  13.762
45666SOL     OW38894   0.875   8.991   7.110
45666SOL    HW138895   0.839   9.078   7.093
45666SOL    HW238896   0.970   9.004   7.114
45667SOL     OW38897   5.102  12.307  11.435
45667SOL    HW138898   5.099  12.279  11.343
45667SOL    HW238899   5.192  12.338  11.446
45668SOL     OW38900  14.516   2.996  14.498
45668SOL    HW138901  14.604   2.978  14.531
45668SOL    HW238902  14.505   3.090  14.509
45669SOL     OW38903   3.029  12.265  10.925
45669SOL    HW138904   3.090  12.251  10.998
45669SOL    HW238905   2.972  12.189  10.926
45670SOL     OW38906  10.373  11.377  14.473
45670SOL    HW138907  10.378  11.298  14.528
45670SOL    HW238908  10.401  11.347  14.386
45671SOL     OW38909  10.128  11.346   6.083
45671SOL    HW138910  10.066  11.365   6.012
45671SOL    HW238911  10.187  11.421   6.085
45672SOL     OW38912   6.057  10.643   1.090
45672SOL    HW138913   6.099  10.727   1.103
45672SOL    HW238914   6.081  10.591   1.167
45673SOL     OW38915   3.123   9.412   3.332
45673SOL    HW138916   3.102   9.485   3.274
45673SOL    HW238917   3.209   9.434   3.367
45674SOL     OW38918   3.681   9.303   7.871
45674SOL    HW138919   3.768   9.278   7.840
45674SOL    HW238920   3.657   9.378   7.816
45675SOL     OW38921  12.255   9.912  14.654
45675SOL    HW138922  12.285   9.980  14.715
45675SOL    HW238923  12.331   9.855  14.643
45676SOL     OW38924   7.635   0.429  10.863
45676SOL    HW138925   7.721   0.417  10.904
45676SOL    HW238926   7.600   0.507  10.905
45677SOL     OW38927  14.111   3.972   3.919
45677SOL    HW138928  14.177   3.977   3.987
45677SOL    HW238929  14.048   3.906   3.950
45678SOL     OW38930   7.913   7.176   8.681
45678SOL    HW138931   7.859   7.255   8.686
45678SOL    HW238932   8.003   7.208   8.688
45679SOL     OW38933   6.812   5.762   6.345
45679SOL    HW138934   6.725   5.758   6.384
45679SOL    HW238935   6.857   5.831   6.394
45680SOL     OW38936   2.119  13.113   5.845
45680SOL    HW138937   2.204  13.141   5.811
45680SOL    HW238938   2.137  13.031   5.892
45681SOL     OW38939  11.276   5.480   5.113
45681SOL    HW138940  11.241   5.472   5.201
45681SOL    HW238941  11.225   5.550   5.073
45682SOL     OW38942   3.670  14.190   7.673
45682SOL    HW138943   3.591  14.238   7.698
45682SOL    HW238944   3.733  14.258   7.649
45683SOL     OW38945   7.837   1.578  13.589
45683SOL    HW138946   7.755   1.546  13.626
45683SOL    HW238947   7.904   1.523  13.628
45684SOL     OW38948   2.190  12.047   2.851
45684SOL    HW138949   2.162  11.970   2.800
45684SOL    HW238950   2.237  12.010   2.926
45685SOL     OW38951  10.408   3.654   4.617
45685SOL    HW138952  10.478   3.715   4.594
45685SOL    HW238953  10.454   3.582   4.661
45686SOL     OW38954   6.992   8.450   7.516
45686SOL    HW138955   7.023   8.361   7.531
45686SOL    HW238956   6.944   8.445   7.433
45687SOL     OW38957   3.624  11.546   1.218
45687SOL    HW138958   3.684  11.557   1.144
45687SOL    HW238959   3.590  11.457   1.208
45688SOL     OW38960   7.955  13.486   6.144
45688SOL    HW138961   7.950  13.479   6.049
45688SOL    HW238962   7.866  13.472   6.174
45689SOL     OW38963  11.730   7.681  10.221
45689SOL    HW138964  11.737   7.616  10.291
45689SOL    HW238965  11.817   7.720  10.216
45690SOL     OW38966   8.982   3.735   6.342
45690SOL    HW138967   9.003   3.744   6.249
45690SOL    HW238968   9.033   3.803   6.385
45691SOL     OW38969  14.842  12.410  13.507
45691SOL    HW138970  14.799  12.411  13.593
45691SOL    HW238971   0.046  12.368  13.524
45692SOL     OW38972  12.117  12.575   1.136
45692SOL    HW138973  12.184  12.624   1.089
45692SOL    HW238974  12.036  12.624   1.120
45693SOL     OW38975   6.277   2.511   1.840
45693SOL    HW138976   6.303   2.420   1.825
45693SOL    HW238977   6.358   2.561   1.829
45694SOL     OW38978   0.608   0.999   0.187
45694SOL    HW138979   0.519   1.034   0.195
45694SOL    HW238980   0.647   1.047   0.114
45695SOL     OW38981   6.240  11.180  11.167
45695SOL    HW138982   6.331  11.204  11.153
45695SOL    HW238983   6.214  11.135  11.087
45696SOL     OW38984  10.530  13.875  11.832
45696SOL    HW138985  10.566  13.888  11.745
45696SOL    HW238986  10.441  13.909  11.827
45697SOL     OW38987  13.768   2.811   1.752
45697SOL    HW138988  13.752   2.898   1.790
45697SOL    HW238989  13.863   2.806   1.744
45698SOL     OW38990   5.358   4.982  12.600
45698SOL    HW138991   5.347   5.071  12.565
45698SOL    HW238992   5.272   4.960  12.636
45699SOL     OW38993   9.921   0.756   3.805
45699SOL    HW138994  10.013   0.730   3.806
45699SOL    HW238995   9.900   0.776   3.897
45700SOL     OW38996   4.067   0.039  10.894
45700SOL    HW138997   4.087   0.059  10.986
45700SOL    HW238998   3.990   0.091  10.874
45701SOL     OW38999   9.576   0.423   5.935
45701SOL    HW139000   9.592   0.362   6.007
45701SOL    HW239001   9.657   0.472   5.926
45702SOL     OW39002   1.145   1.122   1.681
45702SOL    HW139003   1.143   1.214   1.708
45702SOL    HW239004   1.060   1.088   1.708
45703SOL     OW39005  12.392  10.017  14.205
45703SOL    HW139006  12.399   9.991  14.297
45703SOL    HW239007  12.373  10.110  14.208
45704SOL     OW39008  12.925   2.283  13.047
45704SOL    HW139009  13.019   2.269  13.043
45704SOL    HW239010  12.912   2.331  13.129
45705SOL     OW39011   7.262   2.119   5.628
45705SOL    HW139012   7.260   2.210   5.656
45705SOL    HW239013   7.337   2.082   5.675
45706SOL     OW39014   5.336   8.618  14.007
45706SOL    HW139015   5.279   8.555  13.963
45706SOL    HW239016   5.343   8.691  13.946
45707SOL     OW39017   3.346  14.091   6.801
45707SOL    HW139018   3.412  14.090   6.732
45707SOL    HW239019   3.279  14.030   6.772
45708SOL     OW39020   5.832  14.057  14.191
45708SOL    HW139021   5.746  14.067  14.231
45708SOL    HW239022   5.880  13.999  14.250
45709SOL     OW39023   0.326  10.441   7.010
45709SOL    HW139024   0.239  10.400   7.013
45709SOL    HW239025   0.385  10.369   6.988
45710SOL     OW39026  11.485  13.407  12.984
45710SOL    HW139027  11.553  13.473  12.977
45710SOL    HW239028  11.426  13.426  12.912
45711SOL     OW39029   4.376   6.655  10.929
45711SOL    HW139030   4.393   6.569  10.967
45711SOL    HW239031   4.373   6.714  11.004
45712SOL     OW39032   7.138   9.270   5.930
45712SOL    HW139033   7.101   9.357   5.921
45712SOL    HW239034   7.214   9.282   5.987
45713SOL     OW39035   4.131  11.315   3.873
45713SOL    HW139036   4.197  11.248   3.856
45713SOL    HW239037   4.048  11.267   3.876
45714SOL     OW39038   9.509  10.064   6.876
45714SOL    HW139039   9.512  10.043   6.782
45714SOL    HW239040   9.416  10.072   6.895
45715SOL     OW39041   0.789  13.603   6.229
45715SOL    HW139042   0.819  13.569   6.314
45715SOL    HW239043   0.770  13.525   6.178
45716SOL     OW39044  10.837   0.200   6.869
45716SOL    HW139045  10.890   0.134   6.913
45716SOL    HW239046  10.886   0.222   6.790
45717SOL     OW39047   6.360  14.044  11.735
45717SOL    HW139048   6.397  14.124  11.697
45717SOL    HW239049   6.434  14.002  11.780
45718SOL     OW39050   9.987   1.530   7.252
45718SOL    HW139051   9.910   1.512   7.305
45718SOL    HW239052  10.041   1.587   7.307
45719SOL     OW39053   4.642  13.488   8.069
45719SOL    HW139054   4.664  13.573   8.031
45719SOL    HW239055   4.686  13.424   8.012
45720SOL     OW39056  13.857  14.119   5.215
45720SOL    HW139057  13.868  14.191   5.153
45720SOL    HW239058  13.822  14.047   5.162
45721SOL     OW39059  11.532  10.341  11.449
45721SOL    HW139060  11.439  10.359  11.431
45721SOL    HW239061  11.553  10.393  11.526
45722SOL     OW39062   4.993   4.242   6.624
45722SOL    HW139063   4.962   4.322   6.665
45722SOL    HW239064   4.948   4.239   6.539
45723SOL     OW39065   7.226   2.586  14.695
45723SOL    HW139066   7.261   2.594  14.784
45723SOL    HW239067   7.273   2.652  14.645
45724SOL     OW39068   7.792   3.493   1.425
45724SOL    HW139069   7.826   3.415   1.468
45724SOL    HW239070   7.733   3.532   1.489
45725SOL     OW39071  12.365   1.264   2.250
45725SOL    HW139072  12.356   1.183   2.200
45725SOL    HW239073  12.326   1.244   2.335
45726SOL     OW39074   8.660   5.232   3.247
45726SOL    HW139075   8.570   5.202   3.239
45726SOL    HW239076   8.713   5.156   3.223
45727SOL     OW39077   1.590   9.318   6.256
45727SOL    HW139078   1.506   9.279   6.233
45727SOL    HW239079   1.654   9.248   6.242
45728SOL     OW39080   2.490  10.960   9.856
45728SOL    HW139081   2.478  10.961   9.761
45728SOL    HW239082   2.574  11.005   9.870
45729SOL     OW39083  11.196   3.265  11.767
45729SOL    HW139084  11.273   3.318  11.788
45729SOL    HW239085  11.164   3.234  11.851
45730SOL     OW39086   1.788   0.814  11.391
45730SOL    HW139087   1.748   0.883  11.339
45730SOL    HW239088   1.813   0.747  11.327
45731SOL     OW39089  11.737   4.591   1.425
45731SOL    HW139090  11.709   4.511   1.469
45731SOL    HW239091  11.698   4.662   1.476
45732SOL     OW39092  14.487   1.119   2.646
45732SOL    HW139093  14.474   1.060   2.720
45732SOL    HW239094  14.563   1.082   2.600
45733SOL     OW39095   4.567   8.483   5.194
45733SOL    HW139096   4.544   8.445   5.279
45733SOL    HW239097   4.611   8.412   5.147
45734SOL     OW39098   8.613   5.314   2.565
45734SOL    HW139099   8.627   5.374   2.491
45734SOL    HW239100   8.557   5.363   2.625
45735SOL     OW39101  13.538  11.575   5.444
45735SOL    HW139102  13.457  11.532   5.472
45735SOL    HW239103  13.581  11.600   5.525
45736SOL     OW39104   3.595   1.007   7.836
45736SOL    HW139105   3.657   1.023   7.906
45736SOL    HW239106   3.544   0.931   7.865
45737SOL     OW39107  12.072   7.414   8.646
45737SOL    HW139108  12.160   7.437   8.618
45737SOL    HW239109  12.017   7.484   8.609
45738SOL     OW39110  14.879  11.482   2.515
45738SOL    HW139111  14.864  11.456   2.605
45738SOL    HW239112  14.871  11.401   2.464
45739SOL     OW39113  11.108   0.961  12.501
45739SOL    HW139114  11.104   0.869  12.528
45739SOL    HW239115  11.016   0.985  12.487
45740SOL     OW39116  13.627   3.650   4.055
45740SOL    HW139117  13.638   3.565   4.096
45740SOL    HW239118  13.712   3.670   4.016
45741SOL     OW39119   8.671   2.647  12.045
45741SOL    HW139120   8.619   2.636  11.965
45741SOL    HW239121   8.660   2.564  12.092
45742SOL     OW39122  10.822   9.233   0.701
45742SOL    HW139123  10.742   9.283   0.717
45742SOL    HW239124  10.797   9.167   0.636
45743SOL     OW39125  10.442   9.437  10.307
45743SOL    HW139126  10.430   9.493  10.383
45743SOL    HW239127  10.354   9.409  10.283
45744SOL     OW39128  13.989  12.979   6.474
45744SOL    HW139129  14.047  13.055   6.471
45744SOL    HW239130  13.988  12.947   6.384
45745SOL     OW39131  10.839   2.507   9.961
45745SOL    HW139132  10.782   2.445   9.915
45745SOL    HW239133  10.824   2.489  10.053
45746SOL     OW39134   3.478  14.615  12.094
45746SOL    HW139135   3.491  14.538  12.149
45746SOL    HW239136   3.518  14.591  12.010
45747SOL     OW39137   1.956   8.979   4.264
45747SOL    HW139138   2.050   8.971   4.250
45747SOL    HW239139   1.938   9.073   4.254
45748SOL     OW39140   5.204   7.588   6.955
45748SOL    HW139141   5.183   7.639   6.877
45748SOL    HW239142   5.280   7.632   6.993
45749SOL     OW39143   5.818   1.285   4.307
45749SOL    HW139144   5.827   1.285   4.402
45749SOL    HW239145   5.895   1.331   4.274
45750SOL     OW39146   5.587   0.316   9.783
45750SOL    HW139147   5.665   0.304   9.837
45750SOL    HW239148   5.514   0.303   9.844
45751SOL     OW39149   0.954   6.272   6.036
45751SOL    HW139150   0.883   6.328   6.068
45751SOL    HW239151   0.913   6.188   6.018
45752SOL     OW39152  14.746  12.465   6.716
45752SOL    HW139153  14.761  12.391   6.657
45752SOL    HW239154  14.770  12.432   6.803
45753SOL     OW39155  13.844   3.871   5.857
45753SOL    HW139156  13.896   3.791   5.866
45753SOL    HW239157  13.873   3.909   5.774
45754SOL     OW39158   0.040   0.655   0.396
45754SOL    HW139159   0.068   0.640   0.305
45754SOL    HW239160  14.827   0.676   0.389
45755SOL     OW39161   0.100  13.078   8.836
45755SOL    HW139162   0.087  13.077   8.742
45755SOL    HW239163   0.074  12.990   8.865
45756SOL     OW39164   5.620  10.000   8.021
45756SOL    HW139165   5.597  10.086   7.985
45756SOL    HW239166   5.620  10.013   8.116
45757SOL     OW39167  13.529   3.372  11.118
45757SOL    HW139168  13.485   3.327  11.046
45757SOL    HW239169  13.458   3.411  11.170
45758SOL     OW39170  14.131   8.302   3.781
45758SOL    HW139171  14.154   8.209   3.789
45758SOL    HW239172  14.046   8.302   3.737
45759SOL     OW39173   3.089   3.092   6.907
45759SOL    HW139174   3.050   3.024   6.961
45759SOL    HW239175   3.131   3.045   6.835
45760SOL     OW39176   3.139   3.300   6.130
45760SOL    HW139177   3.177   3.388   6.127
45760SOL    HW239178   3.212   3.242   6.109
45761SOL     OW39179   1.778   7.415   8.109
45761SOL    HW139180   1.724   7.341   8.138
45761SOL    HW239181   1.847   7.420   8.175
45762SOL     OW39182   1.980   6.066   4.196
45762SOL    HW139183   1.979   5.977   4.233
45762SOL    HW239184   1.951   6.122   4.268
45763SOL     OW39185  12.459   7.935  12.144
45763SOL    HW139186  12.368   7.964  12.153
45763SOL    HW239187  12.456   7.869  12.076
45764SOL     OW39188  13.036   5.205   6.690
45764SOL    HW139189  13.006   5.280   6.741
45764SOL    HW239190  13.060   5.139   6.755
45765SOL     OW39191   6.076   1.899   1.655
45765SOL    HW139192   6.062   1.937   1.742
45765SOL    HW239193   6.073   1.805   1.669
45766SOL     OW39194  13.675   0.639   0.779
45766SOL    HW139195  13.594   0.688   0.792
45766SOL    HW239196  13.648   0.561   0.730
45767SOL     OW39197   4.641   1.421   4.899
45767SOL    HW139198   4.614   1.513   4.901
45767SOL    HW239199   4.727   1.420   4.942
45768SOL     OW39200   8.744   2.263   6.919
45768SOL    HW139201   8.780   2.350   6.934
45768SOL    HW239202   8.771   2.213   6.996
45769SOL     OW39203   9.083  11.969   2.714
45769SOL    HW139204   8.991  11.964   2.743
45769SOL    HW239205   9.082  12.034   2.644
45770SOL     OW39206   1.739   3.203  10.729
45770SOL    HW139207   1.758   3.165  10.644
45770SOL    HW239208   1.700   3.288  10.710
45771SOL     OW39209   5.454   3.167   9.024
45771SOL    HW139210   5.466   3.251   8.979
45771SOL    HW239211   5.516   3.169   9.097
45772SOL     OW39212   9.999  10.807   7.097
45772SOL    HW139213  10.078  10.801   7.044
45772SOL    HW239214   9.931  10.766   7.044
45773SOL     OW39215   5.002   3.588  14.731
45773SOL    HW139216   5.046   3.612  14.649
45773SOL    HW239217   4.970   3.499  14.716
45774SOL     OW39218   4.004  11.590   6.578
45774SOL    HW139219   3.978  11.637   6.658
45774SOL    HW239220   3.937  11.613   6.514
45775SOL     OW39221   2.334   6.389  14.041
45775SOL    HW139222   2.381   6.385  13.958
45775SOL    HW239223   2.386   6.335  14.101
45776SOL     OW39224   0.631   4.501   0.518
45776SOL    HW139225   0.564   4.564   0.491
45776SOL    HW239226   0.666   4.466   0.436
45777SOL     OW39227   6.650  12.983   8.717
45777SOL    HW139228   6.644  12.994   8.812
45777SOL    HW239229   6.678  12.893   8.705
45778SOL     OW39230   1.183   5.760   1.870
45778SOL    HW139231   1.109   5.714   1.909
45778SOL    HW239232   1.260   5.723   1.913
45779SOL     OW39233   9.386  11.202   2.444
45779SOL    HW139234   9.373  11.184   2.537
45779SOL    HW239235   9.305  11.246   2.417
45780SOL     OW39236   1.213   2.655  12.549
45780SOL    HW139237   1.278   2.688  12.611
45780SOL    HW239238   1.229   2.705  12.469
45781SOL     OW39239   8.705   5.658  12.974
45781SOL    HW139240   8.697   5.593  12.904
45781SOL    HW239241   8.712   5.742  12.928
45782SOL     OW39242   7.971  11.071   5.676
45782SOL    HW139243   7.915  11.134   5.722
45782SOL    HW239244   8.055  11.117   5.667
45783SOL     OW39245   8.900   5.045   8.360
45783SOL    HW139246   8.844   5.064   8.435
45783SOL    HW239247   8.933   5.131   8.332
45784SOL     OW39248   2.139   9.360  10.456
45784SOL    HW139249   2.068   9.404  10.503
45784SOL    HW239250   2.183   9.307  10.522
45785SOL     OW39251  10.173   8.748  10.926
45785SOL    HW139252  10.187   8.657  10.954
45785SOL    HW239253  10.234   8.761  10.853
45786SOL     OW39254  11.050  10.215   8.378
45786SOL    HW139255  10.982  10.195   8.443
45786SOL    HW239256  11.036  10.150   8.309
45787SOL     OW39257   0.970   7.539   3.157
45787SOL    HW139258   1.047   7.579   3.115
45787SOL    HW239259   0.931   7.610   3.208
45788SOL     OW39260  10.827   5.595   3.322
45788SOL    HW139261  10.800   5.623   3.409
45788SOL    HW239262  10.766   5.524   3.299
45789SOL     OW39263  13.487  10.636   0.773
45789SOL    HW139264  13.465  10.688   0.850
45789SOL    HW239265  13.535  10.561   0.808
45790SOL     OW39266   7.918  12.385  14.502
45790SOL    HW139267   7.889  12.414  14.415
45790SOL    HW239268   7.906  12.462  14.558
45791SOL     OW39269  13.375  11.973  13.406
45791SOL    HW139270  13.375  12.014  13.492
45791SOL    HW239271  13.467  11.965  13.383
45792SOL     OW39272  10.858   3.510   7.120
45792SOL    HW139273  10.765   3.506   7.139
45792SOL    HW239274  10.896   3.439   7.171
45793SOL     OW39275  13.413  11.726   0.047
45793SOL    HW139276  13.482  11.670   0.081
45793SOL    HW239277  13.411  11.801   0.107
45794SOL     OW39278   4.120   4.961   8.410
45794SOL    HW139279   4.086   5.051   8.412
45794SOL    HW239280   4.202   4.966   8.458
45795SOL     OW39281  12.738   4.851   2.713
45795SOL    HW139282  12.808   4.901   2.753
45795SOL    HW239283  12.670   4.915   2.693
45796SOL     OW39284   3.989   7.239   0.506
45796SOL    HW139285   4.071   7.191   0.497
45796SOL    HW239286   3.997   7.285   0.590
45797SOL     OW39287  11.380   2.474   6.846
45797SOL    HW139288  11.472   2.450   6.830
45797SOL    HW239289  11.367   2.554   6.795
45798SOL     OW39290   6.497   3.017  10.479
45798SOL    HW139291   6.441   3.057  10.412
45798SOL    HW239292   6.553   2.957  10.430
45799SOL     OW39293   8.326   6.245   5.897
45799SOL    HW139294   8.323   6.326   5.846
45799SOL    HW239295   8.350   6.273   5.985
45800SOL     OW39296  11.985   0.289   5.902
45800SOL    HW139297  12.068   0.243   5.914
45800SOL    HW239298  11.978   0.347   5.978
45801SOL     OW39299   3.416   9.743  14.709
45801SOL    HW139300   3.362   9.731  14.631
45801SOL    HW239301   3.476   9.668  14.709
45802SOL     OW39302   2.579   5.902  10.812
45802SOL    HW139303   2.492   5.862  10.808
45802SOL    HW239304   2.568   5.980  10.866
45803SOL     OW39305   1.674  14.339   6.624
45803SOL    HW139306   1.741  14.377   6.566
45803SOL    HW239307   1.712  14.347   6.712
45804SOL     OW39308   3.290  11.931   5.888
45804SOL    HW139309   3.263  11.902   5.976
45804SOL    HW239310   3.357  11.868   5.862
45805SOL     OW39311   8.748  11.956  10.717
45805SOL    HW139312   8.768  12.007  10.796
45805SOL    HW239313   8.806  11.881  10.721
45806SOL     OW39314   9.360   4.965  14.720
45806SOL    HW139315   9.377   4.906  14.646
45806SOL    HW239316   9.441   5.015  14.729
45807SOL     OW39317   2.921   3.987   2.215
45807SOL    HW139318   2.910   4.028   2.301
45807SOL    HW239319   2.869   4.041   2.156
45808SOL     OW39320   3.238  11.138   7.091
45808SOL    HW139321   3.157  11.182   7.066
45808SOL    HW239322   3.229  11.049   7.058
45809SOL     OW39323   7.509   3.715  10.931
45809SOL    HW139324   7.569   3.746  10.864
45809SOL    HW239325   7.553   3.639  10.970
45810SOL     OW39326  12.554  12.725  11.121
45810SOL    HW139327  12.614  12.674  11.066
45810SOL    HW239328  12.485  12.753  11.061
45811SOL     OW39329   7.192   3.079  11.143
45811SOL    HW139330   7.259   3.136  11.182
45811SOL    HW239331   7.189   3.105  11.051
45812SOL     OW39332   2.527   6.446   4.434
45812SOL    HW139333   2.597   6.433   4.498
45812SOL    HW239334   2.509   6.358   4.400
45813SOL     OW39335   6.589   8.461   9.060
45813SOL    HW139336   6.499   8.441   9.087
45813SOL    HW239337   6.581   8.480   8.966
45814SOL     OW39338   8.563  10.244  13.356
45814SOL    HW139339   8.550  10.323  13.409
45814SOL    HW239340   8.649  10.256  13.316
45815SOL     OW39341  13.389   0.235   5.469
45815SOL    HW139342  13.386   0.259   5.376
45815SOL    HW239343  13.402   0.318   5.515
45816SOL     OW39344   5.112   7.274   2.114
45816SOL    HW139345   5.132   7.317   2.197
45816SOL    HW239346   5.057   7.337   2.066
45817SOL     OW39347  11.180   5.690   7.686
45817SOL    HW139348  11.167   5.598   7.664
45817SOL    HW239349  11.224   5.688   7.771
45818SOL     OW39350  12.728  13.349   2.989
45818SOL    HW139351  12.753  13.419   3.050
45818SOL    HW239352  12.719  13.271   3.043
45819SOL     OW39353   0.098  13.502   9.167
45819SOL    HW139354   0.074  13.451   9.089
45819SOL    HW239355   0.063  13.452   9.240
45820SOL     OW39356   6.733   8.975   3.575
45820SOL    HW139357   6.639   8.965   3.560
45820SOL    HW239358   6.744   8.959   3.669
45821SOL     OW39359   4.499  13.731   6.755
45821SOL    HW139360   4.511  13.747   6.661
45821SOL    HW239361   4.583  13.755   6.795
45822SOL     OW39362   3.419   6.127   3.246
45822SOL    HW139363   3.403   6.137   3.152
45822SOL    HW239364   3.496   6.070   3.252
45823SOL     OW39365   4.303   2.600   6.007
45823SOL    HW139366   4.245   2.587   6.082
45823SOL    HW239367   4.290   2.692   5.982
45824SOL     OW39368   4.554   0.658   4.420
45824SOL    HW139369   4.538   0.573   4.461
45824SOL    HW239370   4.588   0.637   4.333
45825SOL     OW39371   3.629   8.421   8.462
45825SOL    HW139372   3.595   8.484   8.526
45825SOL    HW239373   3.564   8.419   8.393
45826SOL     OW39374   1.885  14.756  12.468
45826SOL    HW139375   1.963  14.729  12.515
45826SOL    HW239376   1.823  14.684  12.481
45827SOL     OW39377   3.915   0.821  14.402
45827SOL    HW139378   3.958   0.904  14.380
45827SOL    HW239379   3.832   0.847  14.442
45828SOL     OW39380   2.991   0.055   0.129
45828SOL    HW139381   2.948   0.122   0.076
45828SOL    HW239382   3.069   0.030   0.078
45829SOL     OW39383   3.266   3.658   1.856
45829SOL    HW139384   3.179   3.652   1.894
45829SOL    HW239385   3.321   3.602   1.911
45830SOL     OW39386   7.844   3.641   7.054
45830SOL    HW139387   7.928   3.608   7.022
45830SOL    HW239388   7.798   3.563   7.086
45831SOL     OW39389   0.424  13.255   4.666
45831SOL    HW139390   0.503  13.287   4.623
45831SOL    HW239391   0.353  13.304   4.624
45832SOL     OW39392   5.695   3.411  13.796
45832SOL    HW139393   5.660   3.496  13.822
45832SOL    HW239394   5.704   3.363  13.878
45833SOL     OW39395   2.429   9.915   5.899
45833SOL    HW139396   2.465   9.829   5.921
45833SOL    HW239397   2.480   9.944   5.824
45834SOL     OW39398  14.152  10.937   6.868
45834SOL    HW139399  14.132  10.868   6.932
45834SOL    HW239400  14.230  10.980   6.903
45835SOL     OW39401   8.696   0.875   2.790
45835SOL    HW139402   8.644   0.926   2.728
45835SOL    HW239403   8.772   0.931   2.809
45836SOL     OW39404  13.769   4.458  14.655
45836SOL    HW139405  13.811   4.465  14.569
45836SOL    HW239406  13.694   4.517  14.650
45837SOL     OW39407  12.552  11.717   3.772
45837SOL    HW139408  12.521  11.793   3.723
45837SOL    HW239409  12.603  11.754   3.844
45838SOL     OW39410  12.698   7.390   7.352
45838SOL    HW139411  12.635   7.378   7.424
45838SOL    HW239412  12.740   7.474   7.371
45839SOL     OW39413   1.768  11.806  12.167
45839SOL    HW139414   1.728  11.890  12.190
45839SOL    HW239415   1.862  11.824  12.166
45840SOL     OW39416   7.590   4.512   8.194
45840SOL    HW139417   7.631   4.593   8.223
45840SOL    HW239418   7.513   4.540   8.145
45841SOL     OW39419   8.913   5.866  10.256
45841SOL    HW139420   8.893   5.834  10.344
45841SOL    HW239421   8.962   5.947  10.271
45842SOL     OW39422   6.717   5.128   7.223
45842SOL    HW139423   6.628   5.094   7.221
45842SOL    HW239424   6.772   5.051   7.238
45843SOL     OW39425  13.115   3.007   9.850
45843SOL    HW139426  13.178   2.938   9.827
45843SOL    HW239427  13.144   3.083   9.799
45844SOL     OW39428  12.197   1.681   6.049
45844SOL    HW139429  12.162   1.770   6.051
45844SOL    HW239430  12.266   1.684   5.983
45845SOL     OW39431   8.100   8.570   6.011
45845SOL    HW139432   8.128   8.532   6.094
45845SOL    HW239433   8.110   8.665   6.023
45846SOL     OW39434   5.470   9.033   5.264
45846SOL    HW139435   5.398   9.073   5.314
45846SOL    HW239436   5.540   9.021   5.328
45847SOL     OW39437  14.385   9.434   9.911
45847SOL    HW139438  14.415   9.405   9.825
45847SOL    HW239439  14.292   9.453   9.899
45848SOL     OW39440  12.624   3.891   4.169
45848SOL    HW139441  12.547   3.840   4.196
45848SOL    HW239442  12.643   3.947   4.244
45849SOL     OW39443   5.402   7.828   4.715
45849SOL    HW139444   5.391   7.733   4.709
45849SOL    HW239445   5.326   7.864   4.670
45850SOL     OW39446   0.567   6.753  12.673
45850SOL    HW139447   0.520   6.673  12.696
45850SOL    HW239448   0.499   6.821  12.674
45851SOL     OW39449   5.937  10.090  13.092
45851SOL    HW139450   5.878  10.015  13.089
45851SOL    HW239451   5.980  10.083  13.177
45852SOL     OW39452  14.375   0.202   8.139
45852SOL    HW139453  14.289   0.163   8.132
45852SOL    HW239454  14.406   0.179   8.227
45853SOL     OW39455   6.096  14.042   0.586
45853SOL    HW139456   6.125  13.959   0.549
45853SOL    HW239457   6.002  14.031   0.599
45854SOL     OW39458  10.373   4.443  10.834
45854SOL    HW139459  10.395   4.531  10.864
45854SOL    HW239460  10.357   4.453  10.740
45855SOL     OW39461   6.099  10.133   1.669
45855SOL    HW139462   6.138  10.047   1.653
45855SOL    HW239463   6.172  10.194   1.663
45856SOL     OW39464  11.875   6.869  14.312
45856SOL    HW139465  11.960   6.831  14.290
45856SOL    HW239466  11.889   6.964  14.306
45857SOL     OW39467   6.036   6.364   3.232
45857SOL    HW139468   5.949   6.364   3.192
45857SOL    HW239469   6.094   6.335   3.161
45858SOL     OW39470   3.490  11.116   7.632
45858SOL    HW139471   3.406  11.091   7.594
45858SOL    HW239472   3.502  11.207   7.604
45859SOL     OW39473   4.124   2.626   2.922
45859SOL    HW139474   4.132   2.714   2.885
45859SOL    HW239475   4.145   2.567   2.849
45860SOL     OW39476   1.453  13.246   4.896
45860SOL    HW139477   1.390  13.270   4.965
45860SOL    HW239478   1.418  13.286   4.817
45861SOL     OW39479   6.430  14.273   0.043
45861SOL    HW139480   6.431  14.317   0.128
45861SOL    HW239481   6.448  14.181   0.063
45862SOL     OW39482   2.549   3.154   9.069
45862SOL    HW139483   2.478   3.110   9.116
45862SOL    HW239484   2.549   3.243   9.103
45863SOL     OW39485  10.991   1.897   2.661
45863SOL    HW139486  10.921   1.837   2.687
45863SOL    HW239487  10.997   1.888   2.566
45864SOL     OW39488   0.319   1.910   8.518
45864SOL    HW139489   0.318   1.974   8.588
45864SOL    HW239490   0.409   1.876   8.518
45865SOL     OW39491   7.663   9.968   2.547
45865SOL    HW139492   7.642  10.033   2.614
45865SOL    HW239493   7.634   9.885   2.584
45866SOL     OW39494   5.569   3.449   8.316
45866SOL    HW139495   5.481   3.476   8.290
45866SOL    HW239496   5.562   3.355   8.332
45867SOL     OW39497   1.021   8.063  13.933
45867SOL    HW139498   0.993   8.027  13.849
45867SOL    HW239499   1.032   8.156  13.917
45868SOL     OW39500   8.822   1.795   5.939
45868SOL    HW139501   8.766   1.782   5.862
45868SOL    HW239502   8.898   1.740   5.923
45869SOL     OW39503  10.649  10.870  13.042
45869SOL    HW139504  10.609  10.956  13.049
45869SOL    HW239505  10.651  10.852  12.948
45870SOL     OW39506   6.143   3.791   8.394
45870SOL    HW139507   6.085   3.720   8.365
45870SOL    HW239508   6.231   3.754   8.388
45871SOL     OW39509  14.289   8.210   9.124
45871SOL    HW139510  14.206   8.219   9.171
45871SOL    HW239511  14.337   8.143   9.172
45872SOL     OW39512   1.576  14.134  13.633
45872SOL    HW139513   1.594  14.102  13.722
45872SOL    HW239514   1.496  14.185  13.642
45873SOL     OW39515   1.803   5.554   6.343
45873SOL    HW139516   1.763   5.467   6.352
45873SOL    HW239517   1.730   5.615   6.350
45874SOL     OW39518   8.671   7.171   7.502
45874SOL    HW139519   8.638   7.081   7.497
45874SOL    HW239520   8.624   7.218   7.432
45875SOL     OW39521   0.829   8.869   2.435
45875SOL    HW139522   0.832   8.830   2.347
45875SOL    HW239523   0.864   8.801   2.492
45876SOL     OW39524  11.629   2.928  11.549
45876SOL    HW139525  11.573   3.000  11.521
45876SOL    HW239526  11.570   2.852  11.549
45877SOL     OW39527  13.581  10.524   3.006
45877SOL    HW139528  13.514  10.593   3.014
45877SOL    HW239529  13.538  10.455   2.956
45878SOL     OW39530  14.473   1.497   2.029
45878SOL    HW139531  14.567   1.483   2.035
45878SOL    HW239532  14.452   1.554   2.103
45879SOL     OW39533  13.386   9.779  13.897
45879SOL    HW139534  13.445   9.837  13.945
45879SOL    HW239535  13.402   9.693  13.935
45880SOL     OW39536   4.920   9.987   7.628
45880SOL    HW139537   4.847   9.936   7.592
45880SOL    HW239538   4.997   9.932   7.615
45881SOL     OW39539   3.287   7.405   3.745
45881SOL    HW139540   3.311   7.317   3.774
45881SOL    HW239541   3.212   7.391   3.687
45882SOL     OW39542   2.408  12.434   7.906
45882SOL    HW139543   2.433  12.412   7.996
45882SOL    HW239544   2.468  12.382   7.852
45883SOL     OW39545   9.374   2.228  10.549
45883SOL    HW139546   9.432   2.262  10.480
45883SOL    HW239547   9.327   2.305  10.580
45884SOL     OW39548  11.678   7.716  13.351
45884SOL    HW139549  11.637   7.795  13.385
45884SOL    HW239550  11.673   7.653  13.423
45885SOL     OW39551  13.330   3.891  10.904
45885SOL    HW139552  13.330   3.817  10.965
45885SOL    HW239553  13.422   3.908  10.886
45886SOL     OW39554   4.904  12.071   7.760
45886SOL    HW139555   4.989  12.062   7.805
45886SOL    HW239556   4.839  12.052   7.828
45887SOL     OW39557  11.520  14.135   8.921
45887SOL    HW139558  11.598  14.080   8.921
45887SOL    HW239559  11.462  14.094   8.986
45888SOL     OW39560   8.094  12.357  12.614
45888SOL    HW139561   8.018  12.394  12.659
45888SOL    HW239562   8.056  12.297  12.549
45889SOL     OW39563  11.882   2.619   6.659
45889SOL    HW139564  11.843   2.576   6.582
45889SOL    HW239565  11.883   2.712   6.637
45890SOL     OW39566   6.913  12.083   0.252
45890SOL    HW139567   6.896  12.030   0.330
45890SOL    HW239568   6.942  12.020   0.186
45891SOL     OW39569   1.953  11.861   9.229
45891SOL    HW139570   1.992  11.948   9.217
45891SOL    HW239571   1.904  11.845   9.148
45892SOL     OW39572   9.613  10.270   0.951
45892SOL    HW139573   9.544  10.337   0.953
45892SOL    HW239574   9.623  10.243   1.042
45893SOL     OW39575  11.811   6.131   9.201
45893SOL    HW139576  11.732   6.079   9.215
45893SOL    HW239577  11.797   6.176   9.118
45894SOL     OW39578  13.741  12.122   9.592
45894SOL    HW139579  13.730  12.064   9.668
45894SOL    HW239580  13.765  12.063   9.521
45895SOL     OW39581  10.829  10.897   7.163
45895SOL    HW139582  10.791  10.949   7.233
45895SOL    HW239583  10.794  10.809   7.176
45896SOL     OW39584   4.996   1.109   8.853
45896SOL    HW139585   5.068   1.070   8.804
45896SOL    HW239586   5.038   1.173   8.911
45897SOL     OW39587   5.430   5.033   8.220
45897SOL    HW139588   5.524   5.016   8.224
45897SOL    HW239589   5.395   4.991   8.299
45898SOL     OW39590  10.955   2.837   8.428
45898SOL    HW139591  10.964   2.932   8.435
45898SOL    HW239592  11.043   2.807   8.405
45899SOL     OW39593   2.884   9.390   0.649
45899SOL    HW139594   2.844   9.304   0.666
45899SOL    HW239595   2.882   9.398   0.553
45900SOL     OW39596  11.770   8.471   2.412
45900SOL    HW139597  11.811   8.478   2.326
45900SOL    HW239598  11.833   8.424   2.466
45901SOL     OW39599  14.061   6.116   6.298
45901SOL    HW139600  14.105   6.197   6.273
45901SOL    HW239601  13.973   6.125   6.261
45902SOL     OW39602   9.256   2.281   4.586
45902SOL    HW139603   9.265   2.335   4.664
45902SOL    HW239604   9.191   2.326   4.532
45903SOL     OW39605   7.083   6.433  13.440
45903SOL    HW139606   7.072   6.468  13.352
45903SOL    HW239607   7.035   6.350  13.439
45904SOL     OW39608   9.399   9.236  12.761
45904SOL    HW139609   9.361   9.311  12.716
45904SOL    HW239610   9.371   9.246  12.852
45905SOL     OW39611   8.359   7.088  10.054
45905SOL    HW139612   8.300   7.125   9.989
45905SOL    HW239613   8.409   7.162  10.087
45906SOL     OW39614   9.420   3.277   4.760
45906SOL    HW139615   9.343   3.334   4.766
45906SOL    HW239616   9.484   3.328   4.712
45907SOL     OW39617  11.842   7.626   0.388
45907SOL    HW139618  11.812   7.714   0.410
45907SOL    HW239619  11.876   7.590   0.470
45908SOL     OW39620   1.590   6.021   1.791
45908SOL    HW139621   1.626   6.039   1.704
45908SOL    HW239622   1.501   5.990   1.775
45909SOL     OW39623  13.593   3.799  14.184
45909SOL    HW139624  13.594   3.813  14.089
45909SOL    HW239625  13.537   3.722  14.196
45910SOL     OW39626   6.470   5.050   5.737
45910SOL    HW139627   6.440   4.968   5.777
45910SOL    HW239628   6.399   5.112   5.755
45911SOL     OW39629  14.711   2.503   0.698
45911SOL    HW139630  14.660   2.465   0.769
45911SOL    HW239631  14.707   2.597   0.713
45912SOL     OW39632   9.016   3.365   0.008
45912SOL    HW139633   9.087   3.373  14.824
45912SOL    HW239634   9.041   3.289   0.061
45913SOL     OW39635  12.688   5.658  14.656
45913SOL    HW139636  12.634   5.738  14.658
45913SOL    HW239637  12.650   5.603  14.724
45914SOL     OW39638  10.723   4.317   9.578
45914SOL    HW139639  10.631   4.310   9.554
45914SOL    HW239640  10.723   4.371   9.657
45915SOL     OW39641   2.514   0.069  10.999
45915SOL    HW139642   2.566  14.872  10.979
45915SOL    HW239643   2.442   0.066  10.937
45916SOL     OW39644  14.803  14.208   9.734
45916SOL    HW139645  14.774  14.119   9.751
45916SOL    HW239646   0.012  14.211   9.768
45917SOL     OW39647   3.994   9.158   2.623
45917SOL    HW139648   4.024   9.195   2.540
45917SOL    HW239649   3.957   9.073   2.599
45918SOL     OW39650   8.781   0.862  11.787
45918SOL    HW139651   8.729   0.885  11.864
45918SOL    HW239652   8.851   0.806  11.822
45919SOL     OW39653   6.539  13.904   0.707
45919SOL    HW139654   6.550  13.849   0.784
45919SOL    HW239655   6.448  13.935   0.712
45920SOL     OW39656   7.557  11.562  14.033
45920SOL    HW139657   7.571  11.493  13.968
45920SOL    HW239658   7.615  11.539  14.106
45921SOL     OW39659   6.625  11.802   2.016
45921SOL    HW139660   6.681  11.837   1.946
45921SOL    HW239661   6.591  11.720   1.981
45922SOL     OW39662  12.721  10.574  11.416
45922SOL    HW139663  12.680  10.628  11.348
45922SOL    HW239664  12.685  10.487  11.402
45923SOL     OW39665   3.831   5.941   6.663
45923SOL    HW139666   3.797   6.012   6.718
45923SOL    HW239667   3.818   5.973   6.573
45924SOL     OW39668   9.703   7.916  10.257
45924SOL    HW139669   9.760   7.986  10.288
45924SOL    HW239670   9.729   7.902  10.166
45925SOL     OW39671   9.556   0.652   2.928
45925SOL    HW139672   9.647   0.668   2.904
45925SOL    HW239673   9.520   0.740   2.945
45926SOL     OW39674   9.578   2.952   8.794
45926SOL    HW139675   9.670   2.928   8.782
45926SOL    HW239676   9.576   2.996   8.879
45927SOL     OW39677  12.237  10.055  13.118
45927SOL    HW139678  12.178  10.035  13.046
45927SOL    HW239679  12.313  10.097  13.077
45928SOL     OW39680  11.164   7.058   1.008
45928SOL    HW139681  11.225   7.116   0.964
45928SOL    HW239682  11.157   7.093   1.097
45929SOL     OW39683  12.912   9.196   9.364
45929SOL    HW139684  12.862   9.205   9.445
45929SOL    HW239685  12.895   9.107   9.335
45930SOL     OW39686   2.764   7.260  13.175
45930SOL    HW139687   2.675   7.228  13.161
45930SOL    HW239688   2.752   7.349  13.209
45931SOL     OW39689   2.338  10.955   7.133
45931SOL    HW139690   2.382  11.002   7.203
45931SOL    HW239691   2.258  11.005   7.118
45932SOL     OW39692   5.798  10.023   2.074
45932SOL    HW139693   5.846  10.105   2.063
45932SOL    HW239694   5.847   9.974   2.140
45933SOL     OW39695   4.498   0.395   4.409
45933SOL    HW139696   4.491   0.338   4.486
45933SOL    HW239697   4.548   0.344   4.346
45934SOL     OW39698  14.095  12.056   4.780
45934SOL    HW139699  14.165  12.122   4.787
45934SOL    HW239700  14.112  11.996   4.852
45935SOL     OW39701  13.782   6.136   0.289
45935SOL    HW139702  13.700   6.151   0.242
45935SOL    HW239703  13.818   6.224   0.301
45936SOL     OW39704  11.279   1.994  10.546
45936SOL    HW139705  11.373   2.010  10.534
45936SOL    HW239706  11.274   1.940  10.625
45937SOL     OW39707   2.505   1.429   8.587
45937SOL    HW139708   2.495   1.380   8.506
45937SOL    HW239709   2.531   1.517   8.559
45938SOL     OW39710  11.847   5.609  12.574
45938SOL    HW139711  11.817   5.598  12.484
45938SOL    HW239712  11.925   5.664  12.568
45939SOL     OW39713   8.307   1.648  13.619
45939SOL    HW139714   8.308   1.595  13.540
45939SOL    HW239715   8.232   1.706  13.608
45940SOL     OW39716   5.167   5.096   8.408
45940SOL    HW139717   5.113   5.137   8.475
45940SOL    HW239718   5.170   5.159   8.337
45941SOL     OW39719   4.429  11.236  10.823
45941SOL    HW139720   4.364  11.290  10.868
45941SOL    HW239721   4.413  11.252  10.730
45942SOL     OW39722   8.641   3.378  11.742
45942SOL    HW139723   8.592   3.351  11.665
45942SOL    HW239724   8.607   3.465  11.764
45943SOL     OW39725   4.012   4.765   7.403
45943SOL    HW139726   3.956   4.792   7.477
45943SOL    HW239727   4.040   4.848   7.364
45944SOL     OW39728  10.189   1.985   9.702
45944SOL    HW139729  10.174   1.955   9.613
45944SOL    HW239730  10.271   1.944   9.729
45945SOL     OW39731   8.178  12.079   9.643
45945SOL    HW139732   8.255  12.136   9.643
45945SOL    HW239733   8.214  11.990   9.646
45946SOL     OW39734   6.929   2.018   0.031
45946SOL    HW139735   7.015   1.990  14.880
45946SOL    HW239736   6.933   2.114   0.028
45947SOL     OW39737   2.531   3.150  11.088
45947SOL    HW139738   2.491   3.063  11.086
45947SOL    HW239739   2.550   3.165  11.180
45948SOL     OW39740   9.820   7.877   7.153
45948SOL    HW139741   9.873   7.950   7.123
45948SOL    HW239742   9.732   7.913   7.160
45949SOL     OW39743  14.225  11.070   8.409
45949SOL    HW139744  14.213  10.993   8.465
45949SOL    HW239745  14.293  11.121   8.452
45950SOL     OW39746   9.490   3.598  13.692
45950SOL    HW139747   9.421   3.587  13.757
45950SOL    HW239748   9.544   3.519  13.701
45951SOL     OW39749   1.006   3.755   7.855
45951SOL    HW139750   1.075   3.778   7.793
45951SOL    HW239751   0.944   3.827   7.850
45952SOL     OW39752   9.006  14.102  13.881
45952SOL    HW139753   8.943  14.032  13.899
45952SOL    HW239754   8.988  14.127  13.790
45953SOL     OW39755   3.626   7.232   0.195
45953SOL    HW139756   3.531   7.231   0.191
45953SOL    HW239757   3.646   7.250   0.287
45954SOL     OW39758   4.061  13.839   4.410
45954SOL    HW139759   4.086  13.861   4.500
45954SOL    HW239760   4.000  13.765   4.420
45955SOL     OW39761   7.680  14.289  10.740
45955SOL    HW139762   7.701  14.355  10.674
45955SOL    HW239763   7.755  14.290  10.799
45956SOL     OW39764   4.404   1.491   4.368
45956SOL    HW139765   4.377   1.436   4.295
45956SOL    HW239766   4.336   1.558   4.374
45957SOL     OW39767   7.470  11.303   1.734
45957SOL    HW139768   7.471  11.220   1.782
45957SOL    HW239769   7.389  11.345   1.763
45958SOL     OW39770   7.153  12.963   4.079
45958SOL    HW139771   7.170  12.896   4.144
45958SOL    HW239772   7.170  12.921   3.995
45959SOL     OW39773   4.739  10.425   8.849
45959SOL    HW139774   4.716  10.342   8.808
45959SOL    HW239775   4.656  10.469   8.864
45960SOL     OW39776   8.496   0.284   7.872
45960SOL    HW139777   8.450   0.200   7.879
45960SOL    HW239778   8.483   0.326   7.957
45961SOL     OW39779   9.635   7.529  12.236
45961SOL    HW139780   9.716   7.581  12.233
45961SOL    HW239781   9.647   7.468  12.309
45962SOL     OW39782   3.249   5.485   2.358
45962SOL    HW139783   3.314   5.459   2.424
45962SOL    HW239784   3.301   5.511   2.282
45963SOL     OW39785   1.808  13.842   9.756
45963SOL    HW139786   1.842  13.907   9.818
45963SOL    HW239787   1.880  13.780   9.745
45964SOL     OW39788  10.941   5.837   0.356
45964SOL    HW139789  10.903   5.750   0.358
45964SOL    HW239790  11.028   5.827   0.394
45965SOL     OW39791   9.400   2.780   7.707
45965SOL    HW139792   9.378   2.790   7.614
45965SOL    HW239793   9.454   2.856   7.727
45966SOL     OW39794   2.200   9.913   8.355
45966SOL    HW139795   2.277   9.872   8.395
45966SOL    HW239796   2.127   9.886   8.411
45967SOL     OW39797   2.098   8.803  12.826
45967SOL    HW139798   2.117   8.884  12.873
45967SOL    HW239799   2.012   8.775  12.858
45968SOL     OW39800   7.085  10.954  12.359
45968SOL    HW139801   7.133  10.966  12.441
45968SOL    HW239802   7.085  11.041  12.319
45969SOL     OW39803   6.103  10.885  14.615
45969SOL    HW139804   6.132  10.976  14.624
45969SOL    HW239805   6.061  10.865  14.699
45970SOL     OW39806   2.386   1.625  14.111
45970SOL    HW139807   2.444   1.589  14.177
45970SOL    HW239808   2.324   1.554  14.092
45971SOL     OW39809   3.703   3.666  13.171
45971SOL    HW139810   3.690   3.759  13.150
45971SOL    HW239811   3.798   3.659  13.183
45972SOL     OW39812   9.838   7.419  13.371
45972SOL    HW139813   9.856   7.501  13.325
45972SOL    HW239814   9.742   7.416  13.377
45973SOL     OW39815   2.883   4.401   2.091
45973SOL    HW139816   2.943   4.327   2.081
45973SOL    HW239817   2.939   4.472   2.124
45974SOL     OW39818   0.555   4.490   8.930
45974SOL    HW139819   0.547   4.395   8.925
45974SOL    HW239820   0.649   4.506   8.936
45975SOL     OW39821   4.852  10.638  14.828
45975SOL    HW139822   4.900  10.576  14.772
45975SOL    HW239823   4.780  10.586  14.864
45976SOL     OW39824  13.193   6.678   0.214
45976SOL    HW139825  13.165   6.588   0.196
45976SOL    HW239826  13.138   6.708   0.286
45977SOL     OW39827   3.151   3.877   9.279
45977SOL    HW139828   3.085   3.809   9.265
45977SOL    HW239829   3.163   3.915   9.192
45978SOL     OW39830   9.623   3.735   6.263
45978SOL    HW139831   9.583   3.676   6.326
45978SOL    HW239832   9.639   3.680   6.186
45979SOL     OW39833   7.052  12.196  11.182
45979SOL    HW139834   7.054  12.248  11.262
45979SOL    HW239835   6.964  12.158  11.181
45980SOL     OW39836   7.396  11.487   9.275
45980SOL    HW139837   7.344  11.566   9.282
45980SOL    HW239838   7.402  11.470   9.181
45981SOL     OW39839   9.860   3.791   6.394
45981SOL    HW139840   9.859   3.877   6.352
45981SOL    HW239841   9.790   3.742   6.350
45982SOL     OW39842  13.610   2.026   2.600
45982SOL    HW139843  13.619   2.056   2.510
45982SOL    HW239844  13.684   2.066   2.646
45983SOL     OW39845  13.553  10.165   7.576
45983SOL    HW139846  13.618  10.116   7.525
45983SOL    HW239847  13.510  10.098   7.630
45984SOL     OW39848  13.172   6.114   9.846
45984SOL    HW139849  13.245   6.173   9.824
45984SOL    HW239850  13.169   6.114   9.941
45985SOL     OW39851  12.718  12.515   3.946
45985SOL    HW139852  12.694  12.570   3.871
45985SOL    HW239853  12.671  12.554   4.019
45986SOL     OW39854   4.974   3.157  14.222
45986SOL    HW139855   4.947   3.086  14.279
45986SOL    HW239856   5.015   3.221  14.280
45987SOL     OW39857   0.532  14.121   1.979
45987SOL    HW139858   0.481  14.088   2.053
45987SOL    HW239859   0.537  14.047   1.918
45988SOL     OW39860   9.755  10.298  10.202
45988SOL    HW139861   9.844  10.263  10.196
45988SOL    HW239862   9.699  10.225  10.179
45989SOL     OW39863  14.104   4.447   5.570
45989SOL    HW139864  14.161   4.466   5.645
45989SOL    HW239865  14.041   4.519   5.569
45990SOL     OW39866   1.048  14.628  13.204
45990SOL    HW139867   1.021  14.676  13.282
45990SOL    HW239868   0.999  14.670  13.132
45991SOL     OW39869   1.602   6.405  11.248
45991SOL    HW139870   1.617   6.383  11.156
45991SOL    HW239871   1.526   6.464  11.247
45992SOL     OW39872  13.609   7.992   6.384
45992SOL    HW139873  13.538   7.938   6.351
45992SOL    HW239874  13.683   7.931   6.392
45993SOL     OW39875   1.884  11.523  11.436
45993SOL    HW139876   1.818  11.454  11.446
45993SOL    HW239877   1.881  11.571  11.519
45994SOL     OW39878  12.185  11.058  10.187
45994SOL    HW139879  12.203  10.964  10.184
45994SOL    HW239880  12.119  11.072  10.119
45995SOL     OW39881  14.260   4.705  13.361
45995SOL    HW139882  14.296   4.752  13.436
45995SOL    HW239883  14.287   4.756  13.285
45996SOL     OW39884   8.640  11.849   5.116
45996SOL    HW139885   8.654  11.836   5.210
45996SOL    HW239886   8.714  11.805   5.074
45997SOL     OW39887   4.423  11.205  13.972
45997SOL    HW139888   4.482  11.262  14.022
45997SOL    HW239889   4.482  11.152  13.918
45998SOL     OW39890  11.406   9.161  14.022
45998SOL    HW139891  11.336   9.151  14.087
45998SOL    HW239892  11.487   9.148  14.072
45999SOL     OW39893  11.503   4.041  11.421
45999SOL    HW139894  11.523   4.082  11.506
45999SOL    HW239895  11.570   3.974  11.411
46000SOL     OW39896   0.282   3.276   4.457
46000SOL    HW139897   0.323   3.214   4.396
46000SOL    HW239898   0.199   3.299   4.416
46001SOL     OW39899  10.590   0.757   3.913
46001SOL    HW139900  10.603   0.726   3.823
46001SOL    HW239901  10.548   0.684   3.958
46002SOL     OW39902   8.466   9.771   8.295
46002SOL    HW139903   8.406   9.826   8.344
46002SOL    HW239904   8.445   9.682   8.323
46003SOL     OW39905  13.302  12.300  14.743
46003SOL    HW139906  13.342  12.274  14.826
46003SOL    HW239907  13.376  12.318  14.686
46004SOL     OW39908   6.437  13.131   3.193
46004SOL    HW139909   6.424  13.037   3.187
46004SOL    HW239910   6.403  13.165   3.110
46005SOL     OW39911  11.768   7.514  14.830
46005SOL    HW139912  11.747   7.450   0.017
46005SOL    HW239913  11.863   7.507  14.818
46006SOL     OW39914   2.675   0.164   3.146
46006SOL    HW139915   2.746   0.108   3.115
46006SOL    HW239916   2.717   0.246   3.171
46007SOL     OW39917  10.801   1.740  13.119
46007SOL    HW139918  10.761   1.653  13.118
46007SOL    HW239919  10.824   1.756  13.027
46008SOL     OW39920   1.741   7.929  11.363
46008SOL    HW139921   1.751   7.980  11.283
46008SOL    HW239922   1.766   7.989  11.433
46009SOL     OW39923   2.386   4.736   0.285
46009SOL    HW139924   2.435   4.777   0.213
46009SOL    HW239925   2.411   4.786   0.363
46010SOL     OW39926   1.129  11.407  10.121
46010SOL    HW139927   1.179  11.487  10.111
46010SOL    HW239928   1.183  11.338  10.083
46011SOL     OW39929   0.446   3.670  10.177
46011SOL    HW139930   0.480   3.735  10.115
46011SOL    HW239931   0.520   3.610  10.190
46012SOL     OW39932  12.238  11.897   7.351
46012SOL    HW139933  12.325  11.882   7.314
46012SOL    HW239934  12.256  11.925   7.441
46013SOL     OW39935   0.000  11.899   6.141
46013SOL    HW139936  14.850  11.931   6.056
46013SOL    HW239937   0.094  11.917   6.142
46014SOL     OW39938  10.391  13.465   8.611
46014SOL    HW139939  10.458  13.453   8.678
46014SOL    HW239940  10.317  13.412   8.642
46015SOL     OW39941   8.263  14.754   5.297
46015SOL    HW139942   8.238  14.844   5.275
46015SOL    HW239943   8.272  14.753   5.392
46016SOL     OW39944   7.443  10.894   1.457
46016SOL    HW139945   7.458  10.968   1.398
46016SOL    HW239946   7.351  10.872   1.443
46017SOL     OW39947  10.406  10.408   9.279
46017SOL    HW139948  10.316  10.421   9.249
46017SOL    HW239949  10.447  10.355   9.210
46018SOL     OW39950   6.458   3.428   7.410
46018SOL    HW139951   6.541   3.388   7.435
46018SOL    HW239952   6.409   3.434   7.492
46019SOL     OW39953   2.548  11.594   0.749
46019SOL    HW139954   2.480  11.562   0.690
46019SOL    HW239955   2.606  11.518   0.761
46020SOL     OW39956   9.381   7.032  11.703
46020SOL    HW139957   9.307   6.975  11.682
46020SOL    HW239958   9.356   7.073  11.786
46021SOL     OW39959   1.738   2.252  12.461
46021SOL    HW139960   1.777   2.317  12.403
46021SOL    HW239961   1.742   2.292  12.548
46022SOL     OW39962   7.405   2.646   5.654
46022SOL    HW139963   7.311   2.637   5.670
46022SOL    HW239964   7.445   2.648   5.741
46023SOL     OW39965  13.594  10.099   2.748
46023SOL    HW139966  13.550  10.017   2.728
46023SOL    HW239967  13.645  10.118   2.669
46024SOL     OW39968   9.849  10.884  10.607
46024SOL    HW139969   9.785  10.822  10.570
46024SOL    HW239970   9.934  10.846  10.585
46025SOL     OW39971   9.460   3.802   2.535
46025SOL    HW139972   9.454   3.897   2.544
46025SOL    HW239973   9.371   3.771   2.555
46026SOL     OW39974   0.865   4.224  14.878
46026SOL    HW139975   0.770   4.233  14.880
46026SOL    HW239976   0.896   4.307  14.843
46027SOL     OW39977   3.012  10.592   5.889
46027SOL    HW139978   3.046  10.519   5.941
46027SOL    HW239979   2.937  10.556   5.842
46028SOL     OW39980  12.151   8.054   7.943
46028SOL    HW139981  12.188   8.098   8.020
46028SOL    HW239982  12.164   8.115   7.871
46029SOL     OW39983   9.525   5.279   7.209
46029SOL    HW139984   9.450   5.225   7.236
46029SOL    HW239985   9.486   5.363   7.185
46030SOL     OW39986  11.326   6.296   5.748
46030SOL    HW139987  11.320   6.323   5.840
46030SOL    HW239988  11.239   6.259   5.729
46031SOL     OW39989  13.461   0.758  10.364
46031SOL    HW139990  13.379   0.769  10.410
46031SOL    HW239991  13.494   0.847  10.350
46032SOL     OW39992  10.252   8.065  11.430
46032SOL    HW139993  10.219   8.007  11.361
46032SOL    HW239994  10.343   8.082  11.406
46033SOL     OW39995  10.165  10.177  10.831
46033SOL    HW139996  10.201  10.219  10.909
46033SOL    HW239997  10.159  10.247  10.767
46034SOL     OW39998   3.997   4.110   3.931
46034SOL    HW139999   4.040   4.044   3.984
46034SOL    HW240000   3.972   4.064   3.850
46035SOL     OW40001   0.037   9.902  11.524
46035SOL    HW140002   0.102   9.968  11.499
46035SOL    HW240003   0.032   9.844  11.448
46036SOL     OW40004   3.398   9.984   7.937
46036SOL    HW140005   3.315   9.969   7.892
46036SOL    HW240006   3.409   9.907   7.992
46037SOL     OW40007   5.011   8.002   2.093
46037SOL    HW140008   5.052   8.020   2.009
46037SOL    HW240009   4.924   7.968   2.072
46038SOL     OW40010   8.364   1.610   1.437
46038SOL    HW140011   8.374   1.522   1.400
46038SOL    HW240012   8.348   1.666   1.362
46039SOL     OW40013   1.925   5.295   2.279
46039SOL    HW140014   1.917   5.230   2.209
46039SOL    HW240015   1.894   5.250   2.358
46040SOL     OW40016  12.172   5.077   9.818
46040SOL    HW140017  12.126   4.996   9.838
46040SOL    HW240018  12.262   5.049   9.801
46041SOL     OW40019  13.636   8.635   8.816
46041SOL    HW140020  13.546   8.627   8.785
46041SOL    HW240021  13.669   8.545   8.817
46042SOL     OW40022   5.863   9.121   4.829
46042SOL    HW140023   5.844   9.202   4.877
46042SOL    HW240024   5.953   9.100   4.853
46043SOL     OW40025   3.695   7.046  11.847
46043SOL    HW140026   3.779   7.003  11.832
46043SOL    HW240027   3.708   7.096  11.928
46044SOL     OW40028  12.467   5.984   8.741
46044SOL    HW140029  12.436   5.894   8.754
46044SOL    HW240030  12.400   6.024   8.686
46045SOL     OW40031   0.609   9.779  12.856
46045SOL    HW140032   0.587   9.786  12.763
46045SOL    HW240033   0.703   9.761  12.857
46046SOL     OW40034   9.887   8.413  13.761
46046SOL    HW140035   9.829   8.489  13.754
46046SOL    HW240036   9.934   8.427  13.844
46047SOL     OW40037   1.064   0.750  14.106
46047SOL    HW140038   1.027   0.663  14.086
46047SOL    HW240039   0.998   0.791  14.161
46048SOL     OW40040   9.107   2.282   8.439
46048SOL    HW140041   9.026   2.255   8.395
46048SOL    HW240042   9.093   2.256   8.531
46049SOL     OW40043   5.967   3.830  13.623
46049SOL    HW140044   5.995   3.873  13.542
46049SOL    HW240045   5.936   3.744  13.595
46050SOL     OW40046  10.046   3.962   1.189
46050SOL    HW140047   9.968   3.908   1.177
46050SOL    HW240048  10.044   3.986   1.282
46051SOL     OW40049   4.063   8.565   4.139
46051SOL    HW140050   4.136   8.527   4.090
46051SOL    HW240051   3.988   8.509   4.118
46052SOL     OW40052   8.348   8.981  10.473
46052SOL    HW140053   8.260   8.955  10.447
46052SOL    HW240054   8.389   9.012  10.392
46053SOL     OW40055   1.011   0.416   6.731
46053SOL    HW140056   1.036   0.382   6.817
46053SOL    HW240057   0.939   0.360   6.702
46054SOL     OW40058   0.593  13.165   0.414
46054SOL    HW140059   0.670  13.160   0.358
46054SOL    HW240060   0.623  13.134   0.499
46055SOL     OW40061   2.239   0.284  12.226
46055SOL    HW140062   2.284   0.208  12.263
46055SOL    HW240063   2.310   0.345  12.204
46056SOL     OW40064   1.005   8.677  13.677
46056SOL    HW140065   1.035   8.757  13.720
46056SOL    HW240066   1.061   8.608  13.712
46057SOL     OW40067   8.420  11.121  14.541
46057SOL    HW140068   8.339  11.168  14.521
46057SOL    HW240069   8.394  11.057  14.607
46058SOL     OW40070   5.309   3.284   2.577
46058SOL    HW140071   5.258   3.235   2.512
46058SOL    HW240072   5.244   3.319   2.637
46059SOL     OW40073   1.103  11.111   3.306
46059SOL    HW140074   1.167  11.180   3.293
46059SOL    HW240075   1.047  11.142   3.377
46060SOL     OW40076   3.794   3.534   9.066
46060SOL    HW140077   3.739   3.562   8.992
46060SOL    HW240078   3.834   3.452   9.036
46061SOL     OW40079  13.310   3.079  11.982
46061SOL    HW140080  13.263   3.089  12.064
46061SOL    HW240081  13.400   3.059  12.008
46062SOL     OW40082   0.956  12.044  11.424
46062SOL    HW140083   0.909  12.075  11.501
46062SOL    HW240084   1.041  12.014  11.458
46063SOL     OW40085   1.859  14.482  10.781
46063SOL    HW140086   1.892  14.499  10.869
46063SOL    HW240087   1.908  14.541  10.725
46064SOL     OW40088   1.134  12.010   2.010
46064SOL    HW140089   1.135  12.086   1.951
46064SOL    HW240090   1.122  12.048   2.097
46065SOL     OW40091   2.946  10.016   1.296
46065SOL    HW140092   2.899   9.994   1.376
46065SOL    HW240093   2.906   9.960   1.229
46066SOL     OW40094   7.510   2.845  12.800
46066SOL    HW140095   7.592   2.808  12.767
46066SOL    HW240096   7.452   2.846  12.724
46067SOL     OW40097  11.837  11.536   1.276
46067SOL    HW140098  11.814  11.597   1.206
46067SOL    HW240099  11.809  11.451   1.243
46068SOL     OW40100   5.830  13.850   9.130
46068SOL    HW140101   5.775  13.907   9.077
46068SOL    HW240102   5.919  13.876   9.109
46069SOL     OW40103   7.193   9.177  10.819
46069SOL    HW140104   7.121   9.175  10.755
46069SOL    HW240105   7.264   9.222  10.773
46070SOL     OW40106  14.422   7.082   5.592
46070SOL    HW140107  14.478   7.004   5.595
46070SOL    HW240108  14.333   7.048   5.601
46071SOL     OW40109  11.692   4.979   4.603
46071SOL    HW140110  11.615   4.947   4.649
46071SOL    HW240111  11.756   4.909   4.612
46072SOL     OW40112   8.812  13.599   5.039
46072SOL    HW140113   8.834  13.539   4.968
46072SOL    HW240114   8.834  13.551   5.119
46073SOL     OW40115   2.322  13.877   3.014
46073SOL    HW140116   2.254  13.854   3.077
46073SOL    HW240117   2.280  13.938   2.954
46074SOL     OW40118   1.908  13.847  11.099
46074SOL    HW140119   1.814  13.847  11.118
46074SOL    HW240120   1.945  13.911  11.160
46075SOL     OW40121  12.450  14.177   5.779
46075SOL    HW140122  12.482  14.233   5.850
46075SOL    HW240123  12.367  14.142   5.812
46076SOL     OW40124   7.714   0.314   7.725
46076SOL    HW140125   7.653   0.293   7.654
46076SOL    HW240126   7.767   0.235   7.735
46077SOL     OW40127   2.379   3.017   7.040
46077SOL    HW140128   2.305   3.069   7.072
46077SOL    HW240129   2.417   3.070   6.970
46078SOL     OW40130   4.310   0.739   0.116
46078SOL    HW140131   4.350   0.793   0.048
46078SOL    HW240132   4.343   0.650   0.099
46079SOL     OW40133   6.293  14.393  14.478
46079SOL    HW140134   6.387  14.384  14.494
46079SOL    HW240135   6.252  14.353  14.555
46080SOL     OW40136   0.393   0.275   7.444
46080SOL    HW140137   0.445   0.333   7.389
46080SOL    HW240138   0.394   0.191   7.398
46081SOL     OW40139   0.503   7.664  11.044
46081SOL    HW140140   0.546   7.681  10.960
46081SOL    HW240141   0.432   7.729  11.048
46082SOL     OW40142   9.187  13.324  13.474
46082SOL    HW140143   9.183  13.364  13.561
46082SOL    HW240144   9.274  13.286  13.470
46083SOL     OW40145   5.935   5.586   4.387
46083SOL    HW140146   5.854   5.634   4.369
46083SOL    HW240147   5.973   5.633   4.462
46084SOL     OW40148   3.049   1.667   7.398
46084SOL    HW140149   3.064   1.585   7.351
46084SOL    HW240150   2.980   1.711   7.348
46085SOL     OW40151  12.217   9.204   3.579
46085SOL    HW140152  12.309   9.178   3.569
46085SOL    HW240153  12.207   9.220   3.673
46086SOL     OW40154  10.623   5.731   5.014
46086SOL    HW140155  10.556   5.663   5.009
46086SOL    HW240156  10.691   5.694   5.071
46087SOL     OW40157   5.580   2.367   6.130
46087SOL    HW140158   5.563   2.371   6.036
46087SOL    HW240159   5.504   2.324   6.167
46088SOL     OW40160   4.888   9.538   7.466
46088SOL    HW140161   4.861   9.623   7.430
46088SOL    HW240162   4.981   9.532   7.445
46089SOL     OW40163   4.630   0.250  11.142
46089SOL    HW140164   4.576   0.270  11.066
46089SOL    HW240165   4.603   0.162  11.168
46090SOL     OW40166   4.252  13.637  12.397
46090SOL    HW140167   4.190  13.666  12.464
46090SOL    HW240168   4.305  13.570  12.440
46091SOL     OW40169   2.867   3.049  13.157
46091SOL    HW140170   2.926   3.114  13.196
46091SOL    HW240171   2.782   3.065  13.199
46092SOL     OW40172  10.077   0.610   5.047
46092SOL    HW140173  10.069   0.586   5.140
46092SOL    HW240174  10.060   0.704   5.045
46093SOL     OW40175  14.295   4.497  11.180
46093SOL    HW140176  14.288   4.443  11.101
46093SOL    HW240177  14.208   4.490  11.221
46094SOL     OW40178   7.207  14.859  12.020
46094SOL    HW140179   7.232   0.045  12.084
46094SOL    HW240180   7.180   0.029  11.943
46095SOL     OW40181   7.749   4.356  13.881
46095SOL    HW140182   7.752   4.426  13.946
46095SOL    HW240183   7.675   4.379  13.825
46096SOL     OW40184   3.164  11.369   0.285
46096SOL    HW140185   3.232  11.305   0.263
46096SOL    HW240186   3.134  11.402   0.201
46097SOL     OW40187   2.956   1.493   3.639
46097SOL    HW140188   2.968   1.565   3.578
46097SOL    HW240189   3.010   1.423   3.603
46098SOL     OW40190  13.226  14.324  14.219
46098SOL    HW140191  13.285  14.393  14.250
46098SOL    HW240192  13.217  14.341  14.125
46099SOL     OW40193   4.801   8.819  12.896
46099SOL    HW140194   4.841   8.879  12.833
46099SOL    HW240195   4.791   8.737  12.849
46100SOL     OW40196   3.573   9.235  12.260
46100SOL    HW140197   3.565   9.308  12.199
46100SOL    HW240198   3.491   9.186  12.249
46101SOL     OW40199   8.199   8.906   9.171
46101SOL    HW140200   8.277   8.954   9.200
46101SOL    HW240201   8.138   8.975   9.144
46102SOL     OW40202  13.194   4.868   1.587
46102SOL    HW140203  13.185   4.900   1.497
46102SOL    HW240204  13.244   4.936   1.632
46103SOL     OW40205   7.227  12.567  12.017
46103SOL    HW140206   7.295  12.499  12.009
46103SOL    HW240207   7.150  12.530  11.974
46104SOL     OW40208  13.406  12.397   8.464
46104SOL    HW140209  13.436  12.441   8.384
46104SOL    HW240210  13.393  12.306   8.437
46105SOL     OW40211  12.582   9.308   5.288
46105SOL    HW140212  12.516   9.377   5.283
46105SOL    HW240213  12.549   9.249   5.356
46106SOL     OW40214   1.121  11.345   9.810
46106SOL    HW140215   1.160  11.259   9.825
46106SOL    HW240216   1.158  11.374   9.726
46107SOL     OW40217  13.343   5.871  13.821
46107SOL    HW140218  13.287   5.893  13.895
46107SOL    HW240219  13.404   5.805  13.855
46108SOL     OW40220   3.275  12.216  12.187
46108SOL    HW140221   3.331  12.144  12.160
46108SOL    HW240222   3.296  12.229  12.279
46109SOL     OW40223   8.525  10.336  12.972
46109SOL    HW140224   8.549  10.252  12.932
46109SOL    HW240225   8.444  10.361  12.926
46110SOL     OW40226   8.903  14.732   5.377
46110SOL    HW140227   8.940  14.816   5.350
46110SOL    HW240228   8.815  14.731   5.339
46111SOL     OW40229   3.060  10.297  14.354
46111SOL    HW140230   3.102  10.215  14.328
46111SOL    HW240231   3.049  10.290  14.448
46112SOL     OW40232   7.092   5.307  12.758
46112SOL    HW140233   7.128   5.254  12.828
46112SOL    HW240234   7.000   5.322  12.782
46113SOL     OW40235   3.870  11.242  12.571
46113SOL    HW140236   3.818  11.285  12.503
46113SOL    HW240237   3.830  11.156  12.581
46114SOL     OW40238   9.122   9.261   9.690
46114SOL    HW140239   9.133   9.280   9.783
46114SOL    HW240240   9.118   9.165   9.685
46115SOL     OW40241   8.520   2.011   4.428
46115SOL    HW140242   8.596   2.023   4.371
46115SOL    HW240243   8.548   2.046   4.512
46116SOL     OW40244   6.538   1.089  11.464
46116SOL    HW140245   6.615   1.146  11.456
46116SOL    HW240246   6.550   1.043  11.547
46117SOL     OW40247  11.680   8.946  11.819
46117SOL    HW140248  11.587   8.968  11.812
46117SOL    HW240249  11.683   8.870  11.877
46118SOL     OW40250  14.173   3.417   4.595
46118SOL    HW140251  14.125   3.499   4.590
46118SOL    HW240252  14.106   3.349   4.594
46119SOL     OW40253   9.844  10.139   5.484
46119SOL    HW140254   9.776  10.164   5.546
46119SOL    HW240255   9.818  10.051   5.455
46120SOL     OW40256   5.220   0.212   2.071
46120SOL    HW140257   5.287   0.234   2.136
46120SOL    HW240258   5.230   0.118   2.057
46121SOL     OW40259   7.839   2.532  11.370
46121SOL    HW140260   7.855   2.551  11.278
46121SOL    HW240261   7.865   2.440  11.380
46122SOL     OW40262   0.937  11.202   9.360
46122SOL    HW140263   0.870  11.191   9.428
46122SOL    HW240264   0.902  11.272   9.304
46123SOL     OW40265   3.010   7.492  14.073
46123SOL    HW140266   3.016   7.457  13.985
46123SOL    HW240267   3.082   7.556  14.078
46124SOL     OW40268   8.597   3.109   3.056
46124SOL    HW140269   8.562   3.159   2.983
46124SOL    HW240270   8.535   3.122   3.127
46125SOL     OW40271  14.273  13.502   3.030
46125SOL    HW140272  14.190  13.516   2.985
46125SOL    HW240273  14.336  13.484   2.961
46126SOL     OW40274   2.137   4.189   3.549
46126SOL    HW140275   2.180   4.123   3.604
46126SOL    HW240276   2.125   4.146   3.465
46127SOL     OW40277   8.482  13.883  11.783
46127SOL    HW140278   8.392  13.876  11.752
46127SOL    HW240279   8.474  13.898  11.877
46128SOL     OW40280  13.004   9.546   6.259
46128SOL    HW140281  12.961   9.467   6.225
46128SOL    HW240282  13.072   9.566   6.195
46129SOL     OW40283   3.130  10.075   6.104
46129SOL    HW140284   3.104  10.166   6.093
46129SOL    HW240285   3.123  10.037   6.016
46130SOL     OW40286   4.208   4.451  12.701
46130SOL    HW140287   4.288   4.484  12.660
46130SOL    HW240288   4.191   4.512  12.773
46131SOL     OW40289   1.695  10.091  10.140
46131SOL    HW140290   1.619  10.082  10.198
46131SOL    HW240291   1.672  10.165  10.083
46132SOL     OW40292   7.152   1.232   9.396
46132SOL    HW140293   7.236   1.188   9.383
46132SOL    HW240294   7.159   1.271   9.483
46133SOL     OW40295   8.578  10.025   3.517
46133SOL    HW140296   8.540  10.094   3.572
46133SOL    HW240297   8.531  10.032   3.434
46134SOL     OW40298   0.996   0.248   8.848
46134SOL    HW140299   1.046   0.239   8.767
46134SOL    HW240300   1.045   0.311   8.900
46135SOL     OW40301  12.690   3.084  13.405
46135SOL    HW140302  12.601   3.050  13.405
46135SOL    HW240303  12.740   3.021  13.457
46136SOL     OW40304   2.748   0.929   4.218
46136SOL    HW140305   2.822   0.980   4.253
46136SOL    HW240306   2.714   0.982   4.147
46137SOL     OW40307  13.078   5.402   7.034
46137SOL    HW140308  13.080   5.434   7.124
46137SOL    HW240309  13.144   5.454   6.988
46138SOL     OW40310   0.477   8.915   9.033
46138SOL    HW140311   0.509   9.001   9.061
46138SOL    HW240312   0.535   8.852   9.077
46139SOL     OW40313  14.525  10.978  12.728
46139SOL    HW140314  14.581  11.053  12.708
46139SOL    HW240315  14.461  11.012  12.790
46140SOL     OW40316   0.451  14.190  13.458
46140SOL    HW140317   0.506  14.115  13.482
46140SOL    HW240318   0.394  14.203  13.533
46141SOL     OW40319  14.789  12.632  11.292
46141SOL    HW140320  14.756  12.589  11.213
46141SOL    HW240321  14.789  12.564  11.359
46142SOL     OW40322   6.045   6.360  14.330
46142SOL    HW140323   6.064   6.269  14.304
46142SOL    HW240324   6.121   6.386  14.381
46143SOL     OW40325   5.891  11.731  11.758
46143SOL    HW140326   5.822  11.696  11.814
46143SOL    HW240327   5.956  11.661  11.753
46144SOL     OW40328   6.089  14.739   3.577
46144SOL    HW140329   6.001  14.776   3.578
46144SOL    HW240330   6.087  14.672   3.646
46145SOL     OW40331   6.312   5.968   5.946
46145SOL    HW140332   6.300   6.001   6.036
46145SOL    HW240333   6.357   5.884   5.957
46146SOL     OW40334   6.108   5.898  10.028
46146SOL    HW140335   6.036   5.850  10.069
46146SOL    HW240336   6.180   5.890  10.091
46147SOL     OW40337  13.625   1.377   3.748
46147SOL    HW140338  13.598   1.464   3.776
46147SOL    HW240339  13.620   1.323   3.827
46148SOL     OW40340   1.638   7.535   0.460
46148SOL    HW140341   1.668   7.592   0.531
46148SOL    HW240342   1.644   7.447   0.496
46149SOL     OW40343  11.074   1.131  14.818
46149SOL    HW140344  11.007   1.062  14.815
46149SOL    HW240345  11.100   1.135   0.030
46150SOL     OW40346   7.163   7.091   4.798
46150SOL    HW140347   7.149   7.016   4.740
46150SOL    HW240348   7.129   7.062   4.883
46151SOL     OW40349   4.881   1.100   4.283
46151SOL    HW140350   4.789   1.120   4.264
46151SOL    HW240351   4.888   1.006   4.272
46152SOL     OW40352  13.214   0.211   5.906
46152SOL    HW140353  13.208   0.180   5.816
46152SOL    HW240354  13.262   0.141   5.952
46153SOL     OW40355   1.238   3.472   4.638
46153SOL    HW140356   1.205   3.460   4.727
46153SOL    HW240357   1.237   3.566   4.624
46154SOL     OW40358  12.909   1.729   0.281
46154SOL    HW140359  13.000   1.702   0.295
46154SOL    HW240360  12.909   1.765   0.192
46155SOL     OW40361   9.684   9.926  12.445
46155SOL    HW140362   9.608   9.883  12.485
46155SOL    HW240363   9.649  10.008  12.410
46156SOL     OW40364   7.620   1.813   6.151
46156SOL    HW140365   7.649   1.902   6.133
46156SOL    HW240366   7.592   1.779   6.066
46157SOL     OW40367  10.683   4.096   3.241
46157SOL    HW140368  10.676   4.191   3.248
46157SOL    HW240369  10.674   4.078   3.147
46158SOL     OW40370  14.024   7.593   0.629
46158SOL    HW140371  14.033   7.620   0.537
46158SOL    HW240372  13.937   7.553   0.634
46159SOL     OW40373  12.514   2.599  10.434
46159SOL    HW140374  12.593   2.645  10.407
46159SOL    HW240375  12.521   2.513  10.394
46160SOL     OW40376  12.346   4.458   7.339
46160SOL    HW140377  12.345   4.432   7.431
46160SOL    HW240378  12.419   4.408   7.302
46161SOL     OW40379   2.262   7.439  11.372
46161SOL    HW140380   2.300   7.452  11.285
46161SOL    HW240381   2.279   7.347  11.392
46162SOL     OW40382  14.050   7.756   2.520
46162SOL    HW140383  13.980   7.734   2.581
46162SOL    HW240384  14.127   7.709   2.552
46163SOL     OW40385   6.399   1.142   0.300
46163SOL    HW140386   6.385   1.158   0.206
46163SOL    HW240387   6.448   1.060   0.302
46164SOL     OW40388   0.513  12.260   8.799
46164SOL    HW140389   0.510  12.184   8.741
46164SOL    HW240390   0.424  12.294   8.798
46165SOL     OW40391  10.424   6.547   5.744
46165SOL    HW140392  10.459   6.470   5.788
46165SOL    HW240393  10.330   6.546   5.765
46166SOL     OW40394  10.863   8.594   0.239
46166SOL    HW140395  10.874   8.664   0.174
46166SOL    HW240396  10.849   8.641   0.322
46167SOL     OW40397  10.916   7.014  12.386
46167SOL    HW140398  10.962   6.957  12.325
46167SOL    HW240399  10.851   6.957  12.427
46168SOL     OW40400   5.241   2.241   8.209
46168SOL    HW140401   5.179   2.309   8.233
46168SOL    HW240402   5.320   2.262   8.258
46169SOL     OW40403   4.575   3.964  14.091
46169SOL    HW140404   4.496   3.929  14.131
46169SOL    HW240405   4.561   3.953  13.997
46170SOL     OW40406   2.195   0.140   4.050
46170SOL    HW140407   2.271   0.187   4.083
46170SOL    HW240408   2.209   0.049   4.076
46171SOL     OW40409   1.133   4.078   8.352
46171SOL    HW140410   1.171   4.012   8.410
46171SOL    HW240411   1.098   4.028   8.278
46172SOL     OW40412   0.283   9.022   0.452
46172SOL    HW140413   0.341   9.094   0.476
46172SOL    HW240414   0.221   9.016   0.524
46173SOL     OW40415   3.799  14.067   5.004
46173SOL    HW140416   3.785  14.002   5.072
46173SOL    HW240417   3.889  14.052   4.975
46174SOL     OW40418   6.423   5.451   3.290
46174SOL    HW140419   6.376   5.473   3.370
46174SOL    HW240420   6.516   5.458   3.313
46175SOL     OW40421   6.099   8.599  14.137
46175SOL    HW140422   6.122   8.515  14.176
46175SOL    HW240423   6.045   8.642  14.204
46176SOL     OW40424   1.579   5.444   4.971
46176SOL    HW140425   1.598   5.534   4.945
46176SOL    HW240426   1.639   5.391   4.919
46177SOL     OW40427   5.409  10.797  14.005
46177SOL    HW140428   5.418  10.811  13.911
46177SOL    HW240429   5.497  10.810  14.039
46178SOL     OW40430  12.083   7.444   2.178
46178SOL    HW140431  12.039   7.359   2.179
46178SOL    HW240432  12.034   7.498   2.240
46179SOL     OW40433   8.554  14.283   1.410
46179SOL    HW140434   8.477  14.241   1.448
46179SOL    HW240435   8.532  14.377   1.411
46180SOL     OW40436   7.273   1.066   7.486
46180SOL    HW140437   7.230   1.122   7.551
46180SOL    HW240438   7.224   1.083   7.405
46181SOL     OW40439  12.468   9.113   9.834
46181SOL    HW140440  12.495   9.096   9.925
46181SOL    HW240441  12.415   9.037   9.811
46182SOL     OW40442   9.962  11.986   4.989
46182SOL    HW140443  10.009  12.053   4.940
46182SOL    HW240444   9.888  11.963   4.933
46183SOL     OW40445   4.146  10.168   0.301
46183SOL    HW140446   4.194  10.102   0.253
46183SOL    HW240447   4.059  10.130   0.314
46184SOL     OW40448   4.234  13.213   6.562
46184SOL    HW140449   4.254  13.276   6.632
46184SOL    HW240450   4.175  13.261   6.504
46185SOL     OW40451  10.951   5.896   2.070
46185SOL    HW140452  10.888   5.901   1.998
46185SOL    HW240453  10.956   5.985   2.103
46186SOL     OW40454   8.136  10.584   7.560
46186SOL    HW140455   8.059  10.590   7.503
46186SOL    HW240456   8.197  10.647   7.523
46187SOL     OW40457  12.481   1.444   6.907
46187SOL    HW140458  12.430   1.520   6.878
46187SOL    HW240459  12.563   1.481   6.939
46188SOL     OW40460  11.628   0.526   7.380
46188SOL    HW140461  11.558   0.557   7.323
46188SOL    HW240462  11.708   0.561   7.342
46189SOL     OW40463   2.915  13.716  14.050
46189SOL    HW140464   2.873  13.639  14.010
46189SOL    HW240465   3.007  13.710  14.024
46190SOL     OW40466  12.472  10.323  10.161
46190SOL    HW140467  12.424  10.377  10.224
46190SOL    HW240468  12.485  10.380  10.086
46191SOL     OW40469   3.572   9.552  14.564
46191SOL    HW140470   3.579   9.459  14.542
46191SOL    HW240471   3.590   9.598  14.482
46192SOL     OW40472   4.414   4.933   3.368
46192SOL    HW140473   4.407   4.911   3.275
46192SOL    HW240474   4.423   5.029   3.369
46193SOL     OW40475  13.467  10.461   2.113
46193SOL    HW140476  13.523  10.463   2.036
46193SOL    HW240477  13.496  10.536   2.165
46194SOL     OW40478   1.283   5.600   6.952
46194SOL    HW140479   1.292   5.552   7.034
46194SOL    HW240480   1.196   5.640   6.957
46195SOL     OW40481   6.111   0.151   0.115
46195SOL    HW140482   6.108   0.218   0.046
46195SOL    HW240483   6.020   0.126   0.129
46196SOL     OW40484   3.935   7.886   4.018
46196SOL    HW140485   3.961   7.958   3.961
46196SOL    HW240486   3.927   7.810   3.960
46197SOL     OW40487   0.960  10.754   7.750
46197SOL    HW140488   0.956  10.662   7.721
46197SOL    HW240489   0.965  10.749   7.845
46198SOL     OW40490  13.838   1.486   9.798
46198SOL    HW140491  13.803   1.448   9.718
46198SOL    HW240492  13.810   1.426   9.867
46199SOL     OW40493  11.802   4.080   4.111
46199SOL    HW140494  11.803   3.985   4.097
46199SOL    HW240495  11.730   4.112   4.057
46200SOL     OW40496   2.105  11.116   7.303
46200SOL    HW140497   2.143  11.130   7.216
46200SOL    HW240498   2.068  11.028   7.298
46201SOL     OW40499   2.466  11.121  12.575
46201SOL    HW140500   2.435  11.105  12.664
46201SOL    HW240501   2.400  11.178  12.536
46202SOL     OW40502   2.855   3.413   6.515
46202SOL    HW140503   2.825   3.328   6.545
46202SOL    HW240504   2.915   3.443   6.582
46203SOL     OW40505   2.072   6.814   2.348
46203SOL    HW140506   2.114   6.784   2.267
46203SOL    HW240507   1.986   6.771   2.348
46204SOL     OW40508   1.011   4.473   4.027
46204SOL    HW140509   1.003   4.538   3.958
46204SOL    HW240510   1.006   4.389   3.981
46205SOL     OW40511   6.350   4.611  14.373
46205SOL    HW140512   6.375   4.553  14.300
46205SOL    HW240513   6.427   4.666  14.387
46206SOL     OW40514   1.700   8.126   4.139
46206SOL    HW140515   1.687   8.039   4.103
46206SOL    HW240516   1.693   8.115   4.234
46207SOL     OW40517   8.668   9.309   8.592
46207SOL    HW140518   8.620   9.234   8.559
46207SOL    HW240519   8.760   9.290   8.571
46208SOL     OW40520  14.270   1.555  13.748
46208SOL    HW140521  14.185   1.538  13.788
46208SOL    HW240522  14.265   1.512  13.662
46209SOL     OW40523   7.335   5.419  12.830
46209SOL    HW140524   7.244   5.407  12.801
46209SOL    HW240525   7.387   5.377  12.761
46210SOL     OW40526  10.405   5.076   2.889
46210SOL    HW140527  10.405   5.170   2.870
46210SOL    HW240528  10.368   5.070   2.977
46211SOL     OW40529  14.288  12.373   5.346
46211SOL    HW140530  14.376  12.398   5.317
46211SOL    HW240531  14.278  12.283   5.318
46212SOL     OW40532   1.391   9.769   0.188
46212SOL    HW140533   1.319   9.831   0.202
46212SOL    HW240534   1.348   9.683   0.187
46213SOL     OW40535  12.944   6.977   9.267
46213SOL    HW140536  13.015   7.020   9.220
46213SOL    HW240537  12.939   7.022   9.351
46214SOL     OW40538   9.440   1.975   0.326
46214SOL    HW140539   9.436   1.891   0.372
46214SOL    HW240540   9.522   2.015   0.354
46215SOL     OW40541   4.968   7.734   2.593
46215SOL    HW140542   4.879   7.734   2.629
46215SOL    HW240543   4.955   7.742   2.498
46216SOL     OW40544   4.937  10.355   0.122
46216SOL    HW140545   4.854  10.377   0.079
46216SOL    HW240546   4.963  10.435   0.167
46217SOL     OW40547   2.034   9.035   5.784
46217SOL    HW140548   1.983   8.998   5.712
46217SOL    HW240549   2.028   9.129   5.772
46218SOL     OW40550  10.814  11.491  13.756
46218SOL    HW140551  10.727  11.483  13.794
46218SOL    HW240552  10.844  11.400  13.747
46219SOL     OW40553   1.552   5.240   5.206
46219SOL    HW140554   1.528   5.155   5.170
46219SOL    HW240555   1.519   5.303   5.142
46220SOL     OW40556   8.945   2.679  12.108
46220SOL    HW140557   8.936   2.687  12.203
46220SOL    HW240558   8.856   2.662  12.077
46221SOL     OW40559  12.482   0.683   6.595
46221SOL    HW140560  12.412   0.722   6.647
46221SOL    HW240561  12.438   0.624   6.534
46222SOL     OW40562  11.681  10.219  13.424
46222SOL    HW140563  11.752  10.157  13.440
46222SOL    HW240564  11.641  10.232  13.510
46223SOL     OW40565   5.308  11.812  14.519
46223SOL    HW140566   5.357  11.741  14.478
46223SOL    HW240567   5.254  11.770  14.585
46224SOL     OW40568   6.343   2.147   9.256
46224SOL    HW140569   6.415   2.155   9.193
46224SOL    HW240570   6.365   2.069   9.307
46225SOL     OW40571   0.860   8.054  14.139
46225SOL    HW140572   0.924   8.024  14.074
46225SOL    HW240573   0.912   8.101  14.204
46226SOL     OW40574   7.967   4.821   2.036
46226SOL    HW140575   8.021   4.860   1.968
46226SOL    HW240576   7.938   4.895   2.090
46227SOL     OW40577   5.676   8.496   6.416
46227SOL    HW140578   5.694   8.415   6.368
46227SOL    HW240579   5.596   8.478   6.465
46228SOL     OW40580   0.933   4.795   0.136
46228SOL    HW140581   1.003   4.789   0.072
46228SOL    HW240582   0.976   4.785   0.221
46229SOL     OW40583   7.584  12.372   6.399
46229SOL    HW140584   7.553  12.281   6.398
46229SOL    HW240585   7.521  12.419   6.346
46230SOL     OW40586  11.050   0.001  13.926
46230SOL    HW140587  11.086  14.802  13.886
46230SOL    HW240588  11.058  14.866  14.021
46231SOL     OW40589   3.516  11.546   8.844
46231SOL    HW140590   3.568  11.598   8.905
46231SOL    HW240591   3.496  11.466   8.893
46232SOL     OW40592   4.077   0.314   8.879
46232SOL    HW140593   4.017   0.298   8.952
46232SOL    HW240594   4.159   0.340   8.921
46233SOL     OW40595   3.940  14.242   0.696
46233SOL    HW140596   3.878  14.308   0.664
46233SOL    HW240597   4.002  14.291   0.750
46234SOL     OW40598   4.095   8.611  13.848
46234SOL    HW140599   4.000   8.609  13.854
46234SOL    HW240600   4.114   8.580  13.760
46235SOL     OW40601   1.280   4.258  12.162
46235SOL    HW140602   1.334   4.337  12.160
46235SOL    HW240603   1.277   4.234  12.254
46236SOL     OW40604   7.443   0.843   7.444
46236SOL    HW140605   7.384   0.908   7.484
46236SOL    HW240606   7.385   0.771   7.420
46237SOL     OW40607   9.597   9.115  10.446
46237SOL    HW140608   9.529   9.084  10.387
46237SOL    HW240609   9.673   9.130  10.388
46238SOL     OW40610  13.388   5.273   5.252
46238SOL    HW140611  13.405   5.180   5.267
46238SOL    HW240612  13.330   5.276   5.176
46239SOL     OW40613   0.501   6.095  10.301
46239SOL    HW140614   0.472   6.020  10.353
46239SOL    HW240615   0.445   6.092  10.223
46240SOL     OW40616   3.860   0.040   5.449
46240SOL    HW140617   3.780   0.023   5.400
46240SOL    HW240618   3.864   0.135   5.457
46241SOL     OW40619   7.432   5.115   6.339
46241SOL    HW140620   7.385   5.178   6.393
46241SOL    HW240621   7.378   5.105   6.260
46242SOL     OW40622   2.400   4.686  11.551
46242SOL    HW140623   2.394   4.600  11.594
46242SOL    HW240624   2.310   4.704  11.522
46243SOL     OW40625   2.829   0.827   6.035
46243SOL    HW140626   2.817   0.881   5.957
46243SOL    HW240627   2.779   0.872   6.103
46244SOL     OW40628   4.682  13.588   5.749
46244SOL    HW140629   4.735  13.666   5.733
46244SOL    HW240630   4.609  13.619   5.802
46245SOL     OW40631  14.762   4.156   9.827
46245SOL    HW140632  14.787   4.196   9.910
46245SOL    HW240633  14.734   4.230   9.772
46246SOL     OW40634   6.304  13.724   0.791
46246SOL    HW140635   6.274  13.803   0.835
46246SOL    HW240636   6.388  13.704   0.831
46247SOL     OW40637  11.607   7.285   4.204
46247SOL    HW140638  11.686   7.296   4.257
46247SOL    HW240639  11.536   7.282   4.267
46248SOL     OW40640  14.206  10.425  11.894
46248SOL    HW140641  14.152  10.370  11.837
46248SOL    HW240642  14.230  10.367  11.967
46249SOL     OW40643  10.872  10.597   6.193
46249SOL    HW140644  10.863  10.682   6.150
46249SOL    HW240645  10.814  10.539   6.143
46250SOL     OW40646   8.869   9.338   9.989
46250SOL    HW140647   8.774   9.345   9.989
46250SOL    HW240648   8.886   9.245  10.006
46251SOL     OW40649   6.435  14.618   3.475
46251SOL    HW140650   6.383  14.686   3.433
46251SOL    HW240651   6.376  14.543   3.481
46252SOL     OW40652   8.639  10.948   2.209
46252SOL    HW140653   8.596  10.965   2.293
46252SOL    HW240654   8.573  10.901   2.158
46253SOL     OW40655   4.611  13.352  10.755
46253SOL    HW140656   4.691  13.300  10.763
46253SOL    HW240657   4.584  13.339  10.664
46254SOL     OW40658  10.808  14.370   1.046
46254SOL    HW140659  10.769  14.445   1.091
46254SOL    HW240660  10.843  14.316   1.117
46255SOL     OW40661  11.898   0.856   9.943
46255SOL    HW140662  11.809   0.845   9.978
46255SOL    HW240663  11.952   0.869  10.021
46256SOL     OW40664  10.990  14.328   5.709
46256SOL    HW140665  11.060  14.355   5.649
46256SOL    HW240666  10.956  14.409   5.746
46257SOL     OW40667  12.670   1.540   5.492
46257SOL    HW140668  12.671   1.444   5.491
46257SOL    HW240669  12.578   1.563   5.479
46258SOL     OW40670   4.546   7.374   8.766
46258SOL    HW140671   4.569   7.322   8.843
46258SOL    HW240672   4.609   7.347   8.699
46259SOL     OW40673  11.640   3.091   2.876
46259SOL    HW140674  11.559   3.053   2.840
46259SOL    HW240675  11.609   3.159   2.937
46260SOL     OW40676  10.651   8.177  10.909
46260SOL    HW140677  10.710   8.126  10.964
46260SOL    HW240678  10.709   8.239  10.864
46261SOL     OW40679   8.125  13.011   5.565
46261SOL    HW140680   8.194  13.064   5.525
46261SOL    HW240681   8.096  12.952   5.494
46262SOL     OW40682  10.931  14.597  12.420
46262SOL    HW140683  11.011  14.614  12.470
46262SOL    HW240684  10.886  14.529  12.470
46263SOL     OW40685   9.059   9.424   5.769
46263SOL    HW140686   9.042   9.517   5.785
46263SOL    HW240687   8.985   9.395   5.716
46264SOL     OW40688   5.184   6.197  12.922
46264SOL    HW140689   5.231   6.240  12.993
46264SOL    HW240690   5.119   6.142  12.966
46265SOL     OW40691   9.055   2.678  13.920
46265SOL    HW140692   9.118   2.678  13.992
46265SOL    HW240693   9.104   2.713  13.846
46266SOL     OW40694   0.141   4.863  14.657
46266SOL    HW140695   0.107   4.914  14.583
46266SOL    HW240696   0.218   4.819  14.622
46267SOL     OW40697   6.581  13.836   6.085
46267SOL    HW140698   6.657  13.839   6.144
46267SOL    HW240699   6.547  13.747   6.094
46268SOL     OW40700   8.943  13.948   0.186
46268SOL    HW140701   8.911  13.953   0.096
46268SOL    HW240702   9.012  13.882   0.183
46269SOL     OW40703   6.781   8.192   2.228
46269SOL    HW140704   6.717   8.254   2.262
46269SOL    HW240705   6.785   8.123   2.293
46270SOL     OW40706  14.436  11.986  10.474
46270SOL    HW140707  14.420  11.899  10.438
46270SOL    HW240708  14.468  11.971  10.562
46271SOL     OW40709  13.774   9.255   9.021
46271SOL    HW140710  13.819   9.307   8.954
46271SOL    HW240711  13.842   9.238   9.086
46272SOL     OW40712  13.796  14.421   7.629
46272SOL    HW140713  13.879  14.454   7.662
46272SOL    HW240714  13.796  14.328   7.652
46273SOL     OW40715  14.090   3.509   6.321
46273SOL    HW140716  14.150   3.581   6.303
46273SOL    HW240717  14.137   3.431   6.294
46274SOL     OW40718   1.481   6.311  10.739
46274SOL    HW140719   1.476   6.385  10.679
46274SOL    HW240720   1.532   6.344  10.813
46275SOL     OW40721   1.128   0.880   3.792
46275SOL    HW140722   1.203   0.915   3.743
46275SOL    HW240723   1.052   0.919   3.749
46276SOL     OW40724   7.339   5.389  11.488
46276SOL    HW140725   7.333   5.308  11.538
46276SOL    HW240726   7.365   5.362  11.401
46277SOL     OW40727   1.443   2.847   9.887
46277SOL    HW140728   1.375   2.818   9.949
46277SOL    HW240729   1.525   2.838   9.935
46278SOL     OW40730  10.992  10.502   2.277
46278SOL    HW140731  10.968  10.586   2.317
46278SOL    HW240732  10.940  10.497   2.197
46279SOL     OW40733   0.887  12.168   1.769
46279SOL    HW140734   0.820  12.162   1.837
46279SOL    HW240735   0.839  12.198   1.692
46280SOL     OW40736  14.066   6.895   0.891
46280SOL    HW140737  14.125   6.874   0.817
46280SOL    HW240738  13.980   6.865   0.862
46281SOL     OW40739  13.537   1.523   5.076
46281SOL    HW140740  13.593   1.539   5.152
46281SOL    HW240741  13.457   1.572   5.094
46282SOL     OW40742   5.019  12.079  13.529
46282SOL    HW140743   4.993  12.039  13.446
46282SOL    HW240744   4.938  12.085  13.580
46283SOL     OW40745  14.708  14.365  10.158
46283SOL    HW140746  14.724  14.333  10.247
46283SOL    HW240747  14.790  14.408  10.133
46284SOL     OW40748  11.003  11.906  10.248
46284SOL    HW140749  10.943  11.891  10.320
46284SOL    HW240750  11.076  11.846  10.265
46285SOL     OW40751   2.808  12.848   9.574
46285SOL    HW140752   2.850  12.929   9.545
46285SOL    HW240753   2.781  12.805   9.493
46286SOL     OW40754   2.779   7.642  13.690
46286SOL    HW140755   2.795   7.736  13.678
46286SOL    HW240756   2.862   7.601  13.667
46287SOL     OW40757   1.477   6.480   8.906
46287SOL    HW140758   1.493   6.536   8.830
46287SOL    HW240759   1.391   6.507   8.938
46288SOL     OW40760   1.870  12.440   0.663
46288SOL    HW140761   1.913  12.495   0.597
46288SOL    HW240762   1.915  12.462   0.745
46289SOL     OW40763   5.809   1.211  13.743
46289SOL    HW140764   5.840   1.189  13.831
46289SOL    HW240765   5.719   1.179  13.740
46290SOL     OW40766   4.344   7.491  11.278
46290SOL    HW140767   4.271   7.551  11.264
46290SOL    HW240768   4.308   7.422  11.334
46291SOL     OW40769  10.415   0.396  14.182
46291SOL    HW140770  10.392   0.480  14.143
46291SOL    HW240771  10.444   0.418  14.270
46292SOL     OW40772   1.765   3.317   4.850
46292SOL    HW140773   1.706   3.244   4.871
46292SOL    HW240774   1.718   3.367   4.782
46293SOL     OW40775  14.723  14.682  10.392
46293SOL    HW140776  14.700  14.637  10.473
46293SOL    HW240777  14.711  14.775  10.413
46294SOL     OW40778   3.511   9.092   7.520
46294SOL    HW140779   3.549   9.038   7.589
46294SOL    HW240780   3.428   9.051   7.500
46295SOL     OW40781   3.886   5.492  10.809
46295SOL    HW140782   3.802   5.500  10.854
46295SOL    HW240783   3.869   5.527  10.721
46296SOL     OW40784  10.793  11.078   0.078
46296SOL    HW140785  10.823  11.042  14.874
46296SOL    HW240786  10.709  11.035   0.093
46297SOL     OW40787   8.414   7.558   2.480
46297SOL    HW140788   8.461   7.575   2.561
46297SOL    HW240789   8.331   7.606   2.490
46298SOL     OW40790  14.312  12.259   1.835
46298SOL    HW140791  14.296  12.274   1.928
46298SOL    HW240792  14.301  12.164   1.825
46299SOL     OW40793  14.216   1.547   8.682
46299SOL    HW140794  14.244   1.458   8.660
46299SOL    HW240795  14.148   1.568   8.619
46300SOL     OW40796  12.332   2.215   0.158
46300SOL    HW140797  12.330   2.149   0.089
46300SOL    HW240798  12.414   2.198   0.205
46301SOL     OW40799  13.579  10.373   9.430
46301SOL    HW140800  13.561  10.356   9.523
46301SOL    HW240801  13.550  10.463   9.416
46302SOL     OW40802   6.935   1.758   2.173
46302SOL    HW140803   7.012   1.702   2.176
46302SOL    HW240804   6.935   1.794   2.084
46303SOL     OW40805  10.594  10.769  14.497
46303SOL    HW140806  10.596  10.857  14.459
46303SOL    HW240807  10.687  10.746  14.508
46304SOL     OW40808   4.020   2.089  12.142
46304SOL    HW140809   3.930   2.106  12.116
46304SOL    HW240810   4.073   2.122  12.069
46305SOL     OW40811  13.362   2.135  11.797
46305SOL    HW140812  13.444   2.185  11.798
46305SOL    HW240813  13.383   2.055  11.845
46306SOL     OW40814   3.714   4.899  14.826
46306SOL    HW140815   3.807   4.919  14.835
46306SOL    HW240816   3.703   4.874  14.734
46307SOL     OW40817  14.453  14.543  13.274
46307SOL    HW140818  14.441  14.465  13.328
46307SOL    HW240819  14.364  14.574  13.257
46308SOL     OW40820  13.273  14.044   2.025
46308SOL    HW140821  13.242  14.027   1.936
46308SOL    HW240822  13.222  13.985   2.080
46309SOL     OW40823  14.223   4.027   8.932
46309SOL    HW140824  14.172   4.012   8.852
46309SOL    HW240825  14.160   4.015   9.003
46310SOL     OW40826   3.207   2.997  12.718
46310SOL    HW140827   3.224   3.044  12.799
46310SOL    HW240828   3.120   2.959  12.729
46311SOL     OW40829  13.814  10.514   7.995
46311SOL    HW140830  13.885  10.488   7.937
46311SOL    HW240831  13.794  10.604   7.971
46312SOL     OW40832   6.736   8.243   4.551
46312SOL    HW140833   6.645   8.217   4.561
46312SOL    HW240834   6.769   8.189   4.479
46313SOL     OW40835   1.044  11.665   7.480
46313SOL    HW140836   1.050  11.696   7.390
46313SOL    HW240837   1.130  11.684   7.518
46314SOL     OW40838   5.363   8.434  10.404
46314SOL    HW140839   5.363   8.508  10.344
46314SOL    HW240840   5.435   8.452  10.465
46315SOL     OW40841  14.076  11.763   2.839
46315SOL    HW140842  14.045  11.833   2.897
46315SOL    HW240843  14.088  11.688   2.897
46316SOL     OW40844   6.303   3.624   9.870
46316SOL    HW140845   6.297   3.706   9.918
46316SOL    HW240846   6.243   3.565   9.915
46317SOL     OW40847   7.195   6.280   1.862
46317SOL    HW140848   7.215   6.237   1.946
46317SOL    HW240849   7.173   6.370   1.886
46318SOL     OW40850   0.378  11.578   5.616
46318SOL    HW140851   0.462  11.604   5.654
46318SOL    HW240852   0.341  11.659   5.582
46319SOL     OW40853   8.633   4.925  14.568
46319SOL    HW140854   8.714   4.876  14.564
46319SOL    HW240855   8.565   4.859  14.579
46320SOL     OW40856   0.922   6.161   2.968
46320SOL    HW140857   0.996   6.202   3.012
46320SOL    HW240858   0.886   6.100   3.032
46321SOL     OW40859   6.690   5.397   2.086
46321SOL    HW140860   6.655   5.393   1.997
46321SOL    HW240861   6.708   5.490   2.101
46322SOL     OW40862   7.615   7.323   6.527
46322SOL    HW140863   7.609   7.409   6.487
46322SOL    HW240864   7.525   7.288   6.522
46323SOL     OW40865  10.531  12.177   8.236
46323SOL    HW140866  10.456  12.125   8.209
46323SOL    HW240867  10.531  12.171   8.332
46324SOL     OW40868   3.462   3.131   4.274
46324SOL    HW140869   3.506   3.215   4.279
46324SOL    HW240870   3.369   3.152   4.277
46325SOL     OW40871   1.884   4.613  14.297
46325SOL    HW140872   1.838   4.695  14.315
46325SOL    HW240873   1.976   4.633  14.316
46326SOL     OW40874  13.129   4.683  10.955
46326SOL    HW140875  13.196   4.745  10.985
46326SOL    HW240876  13.116   4.624  11.030
46327SOL     OW40877   7.515   0.023   1.608
46327SOL    HW140878   7.537   0.103   1.656
46327SOL    HW240879   7.419   0.017   1.614
46328SOL     OW40880   4.317  14.330   6.227
46328SOL    HW140881   4.343  14.242   6.201
46328SOL    HW240882   4.385  14.358   6.289
46329SOL     OW40883  11.284   3.587   3.113
46329SOL    HW140884  11.197   3.626   3.128
46329SOL    HW240885  11.266   3.499   3.081
46330SOL     OW40886   9.286   9.409  10.178
46330SOL    HW140887   9.378   9.428  10.199
46330SOL    HW240888   9.242   9.406  10.263
46331SOL     OW40889   4.585   3.277   3.874
46331SOL    HW140890   4.593   3.365   3.835
46331SOL    HW240891   4.515   3.235   3.824
46332SOL     OW40892  13.909   3.423   1.495
46332SOL    HW140893  13.923   3.353   1.559
46332SOL    HW240894  13.873   3.495   1.546
46333SOL     OW40895   6.114   0.351   7.830
46333SOL    HW140896   6.048   0.418   7.815
46333SOL    HW240897   6.103   0.289   7.757
46334SOL     OW40898   1.681   3.485  12.506
46334SOL    HW140899   1.683   3.409  12.564
46334SOL    HW240900   1.720   3.454  12.424
46335SOL     OW40901   4.897   4.308  10.603
46335SOL    HW140902   4.911   4.394  10.643
46335SOL    HW240903   4.944   4.312  10.520
46336SOL     OW40904  10.965  12.988  10.931
46336SOL    HW140905  10.884  12.939  10.916
46336SOL    HW240906  11.035  12.923  10.917
46337SOL     OW40907   2.638   5.535   4.171
46337SOL    HW140908   2.629   5.463   4.233
46337SOL    HW240909   2.641   5.493   4.085
46338SOL     OW40910  10.954   3.713   3.683
46338SOL    HW140911  10.926   3.759   3.603
46338SOL    HW240912  10.873   3.679   3.721
46339SOL     OW40913  13.071  11.574   3.318
46339SOL    HW140914  13.087  11.485   3.352
46339SOL    HW240915  13.158  11.613   3.314
46340SOL     OW40916   8.757  11.732   0.426
46340SOL    HW140917   8.728  11.641   0.421
46340SOL    HW240918   8.689  11.776   0.477
46341SOL     OW40919  10.552   6.425   4.052
46341SOL    HW140920  10.638   6.456   4.025
46341SOL    HW240921  10.533   6.474   4.131
46342SOL     OW40922  10.276  10.433   2.723
46342SOL    HW140923  10.234  10.495   2.663
46342SOL    HW240924  10.320  10.370   2.667
46343SOL     OW40925  14.564   0.264   2.867
46343SOL    HW140926  14.601   0.251   2.780
46343SOL    HW240927  14.540   0.357   2.870
46344SOL     OW40928  14.290  10.541  13.283
46344SOL    HW140929  14.345  10.538  13.205
46344SOL    HW240930  14.345  10.505  13.353
46345SOL     OW40931   8.705   0.664   5.574
46345SOL    HW140932   8.683   0.735   5.514
46345SOL    HW240933   8.682   0.697   5.661
46346SOL     OW40934   1.004  12.160   4.840
46346SOL    HW140935   0.975  12.069   4.838
46346SOL    HW240936   1.094  12.156   4.873
46347SOL     OW40937  12.967   6.063   3.078
46347SOL    HW140938  12.902   6.129   3.103
46347SOL    HW240939  13.051   6.100   3.106
46348SOL     OW40940   4.838   7.377   1.013
46348SOL    HW140941   4.926   7.387   0.978
46348SOL    HW240942   4.836   7.289   1.051
46349SOL     OW40943   5.212  14.207   1.593
46349SOL    HW140944   5.150  14.189   1.521
46349SOL    HW240945   5.189  14.296   1.621
46350SOL     OW40946   8.052  11.622  13.100
46350SOL    HW140947   8.078  11.593  13.012
46350SOL    HW240948   8.134  11.631  13.147
46351SOL     OW40949   5.974  11.574   2.237
46351SOL    HW140950   6.054  11.522   2.245
46351SOL    HW240951   5.909  11.526   2.289
46352SOL     OW40952  13.818   7.587   4.190
46352SOL    HW140953  13.771   7.616   4.268
46352SOL    HW240954  13.803   7.493   4.187
46353SOL     OW40955   7.229  12.515   5.060
46353SOL    HW140956   7.167  12.578   5.098
46353SOL    HW240957   7.308  12.526   5.113
46354SOL     OW40958  10.835   5.629  12.758
46354SOL    HW140959  10.914   5.575  12.751
46354SOL    HW240960  10.784   5.587  12.827
46355SOL     OW40961   8.862   9.900  13.857
46355SOL    HW140962   8.948   9.870  13.885
46355SOL    HW240963   8.804   9.884  13.932
46356SOL     OW40964   5.481  13.728   3.595
46356SOL    HW140965   5.490  13.696   3.685
46356SOL    HW240966   5.421  13.802   3.602
46357SOL     OW40967   1.835   6.967   6.223
46357SOL    HW140968   1.788   7.036   6.271
46357SOL    HW240969   1.779   6.889   6.234
46358SOL     OW40970  14.866   2.078   0.250
46358SOL    HW140971  14.877   2.096   0.157
46358SOL    HW240972  14.874   1.983   0.257
46359SOL     OW40973   8.590   2.811   6.287
46359SOL    HW140974   8.581   2.814   6.191
46359SOL    HW240975   8.516   2.862   6.320
46360SOL     OW40976   0.454   5.983   8.032
46360SOL    HW140977   0.538   5.939   8.045
46360SOL    HW240978   0.472   6.075   8.052
46361SOL     OW40979  13.004   4.845  14.223
46361SOL    HW140980  13.091   4.863  14.186
46361SOL    HW240981  12.946   4.842  14.146
46362SOL     OW40982  11.005   0.828   5.604
46362SOL    HW140983  10.925   0.790   5.640
46362SOL    HW240984  10.978   0.914   5.571
46363SOL     OW40985   0.261   2.321   3.315
46363SOL    HW140986   0.268   2.233   3.279
46363SOL    HW240987   0.286   2.378   3.242
46364SOL     OW40988   3.056   1.061   1.269
46364SOL    HW140989   3.045   1.131   1.205
46364SOL    HW240990   3.080   0.984   1.217
46365SOL     OW40991  10.338   9.876   3.374
46365SOL    HW140992  10.426   9.842   3.359
46365SOL    HW240993  10.338   9.962   3.331
46366SOL     OW40994   3.146  13.197   3.209
46366SOL    HW140995   3.118  13.240   3.128
46366SOL    HW240996   3.239  13.218   3.216
46367SOL     OW40997  11.077   4.809   2.043
46367SOL    HW140998  11.084   4.792   1.949
46367SOL    HW240999  11.020   4.886   2.049
46368SOL     OW41000  12.063   2.423   6.056
46368SOL    HW141001  12.008   2.397   5.982
46368SOL    HW241002  12.091   2.512   6.034
46369SOL     OW41003   3.451   6.037  12.593
46369SOL    HW141004   3.387   6.064  12.526
46369SOL    HW241005   3.471   5.946  12.571
46370SOL     OW41006   7.180   4.088  11.858
46370SOL    HW141007   7.101   4.119  11.901
46370SOL    HW241008   7.246   4.086  11.927
46371SOL     OW41009   9.747  11.652   7.855
46371SOL    HW141010   9.823  11.694   7.897
46371SOL    HW241011   9.754  11.677   7.763
46372SOL     OW41012   2.092  12.877   5.995
46372SOL    HW141013   2.003  12.881   6.031
46372SOL    HW241014   2.091  12.800   5.938
46373SOL     OW41015   8.664   4.066  12.353
46373SOL    HW141016   8.722   4.094  12.423
46373SOL    HW241017   8.712   3.997  12.308
46374SOL     OW41018   1.639   8.788  12.198
46374SOL    HW141019   1.599   8.856  12.144
46374SOL    HW241020   1.693   8.737  12.137
46375SOL     OW41021  11.658  12.773  13.517
46375SOL    HW141022  11.571  12.760  13.481
46375SOL    HW241023  11.710  12.701  13.482
46376SOL     OW41024   6.967   8.409  11.221
46376SOL    HW141025   7.010   8.413  11.135
46376SOL    HW241026   7.036   8.377  11.280
46377SOL     OW41027   1.574  11.953  11.138
46377SOL    HW141028   1.549  11.933  11.228
46377SOL    HW241029   1.667  11.974  11.144
46378SOL     OW41030   8.140  10.226  13.435
46378SOL    HW141031   8.127  10.138  13.469
46378SOL    HW241032   8.192  10.271  13.502
46379SOL     OW41033  10.256  14.149   5.212
46379SOL    HW141034  10.203  14.143   5.291
46379SOL    HW241035  10.213  14.092   5.148
46380SOL     OW41036   2.853   9.523   8.348
46380SOL    HW141037   2.834   9.615   8.326
46380SOL    HW241038   2.769   9.487   8.376
46381SOL     OW41039   7.010   0.898   8.207
46381SOL    HW141040   7.056   0.915   8.125
46381SOL    HW241041   7.015   0.980   8.256
46382SOL     OW41042   6.276  10.338   7.435
46382SOL    HW141043   6.234  10.271   7.489
46382SOL    HW241044   6.365  10.345   7.469
46383SOL     OW41045   1.943   1.197   9.204
46383SOL    HW141046   1.851   1.208   9.179
46383SOL    HW241047   1.979   1.286   9.203
46384SOL     OW41048   5.877   1.621   2.096
46384SOL    HW141049   5.866   1.580   2.010
46384SOL    HW241050   5.800   1.677   2.106
46385SOL     OW41051   8.961   1.805  13.774
46385SOL    HW141052   8.879   1.825  13.819
46385SOL    HW241053   8.975   1.712  13.789
46386SOL     OW41054   0.060   5.253   2.155
46386SOL    HW141055   0.131   5.289   2.102
46386SOL    HW241056   0.063   5.159   2.137
46387SOL     OW41057   5.018   5.045   3.757
46387SOL    HW141058   4.941   4.988   3.760
46387SOL    HW241059   5.048   5.041   3.666
46388SOL     OW41060   5.293   4.757   2.320
46388SOL    HW141061   5.349   4.729   2.392
46388SOL    HW241062   5.336   4.836   2.286
46389SOL     OW41063  13.459  10.581  13.846
46389SOL    HW141064  13.376  10.539  13.869
46389SOL    HW241065  13.476  10.553  13.756
46390SOL     OW41066   7.177   5.911   0.468
46390SOL    HW141067   7.187   6.004   0.450
46390SOL    HW241068   7.248   5.890   0.529
46391SOL     OW41069   9.230  10.072  13.930
46391SOL    HW141070   9.143  10.110  13.938
46391SOL    HW241071   9.284  10.123  13.989
46392SOL     OW41072  14.362  13.471   0.222
46392SOL    HW141073  14.452  13.465   0.254
46392SOL    HW241074  14.371  13.472   0.127
46393SOL     OW41075   6.899  14.106  10.848
46393SOL    HW141076   6.853  14.177  10.804
46393SOL    HW241077   6.989  14.112  10.815
46394SOL     OW41078  12.284  14.144   3.243
46394SOL    HW141079  12.193  14.159   3.268
46394SOL    HW241080  12.300  14.052   3.265
46395SOL     OW41081   2.227  12.082  13.843
46395SOL    HW141082   2.297  12.112  13.901
46395SOL    HW241083   2.264  12.005  13.799
46396SOL     OW41084   4.575  10.308  14.674
46396SOL    HW141085   4.530  10.389  14.649
46396SOL    HW241086   4.585  10.260  14.592
46397SOL     OW41087   6.757   4.748   8.108
46397SOL    HW141088   6.791   4.714   8.026
46397SOL    HW241089   6.813   4.823   8.128
46398SOL     OW41090   3.416   7.142  14.295
46398SOL    HW141091   3.351   7.201  14.333
46398SOL    HW241092   3.458   7.194  14.226
46399SOL     OW41093  12.717   2.833  11.403
46399SOL    HW141094  12.704   2.749  11.448
46399SOL    HW241095  12.772   2.883  11.463
46400SOL     OW41096   0.424   2.404   8.887
46400SOL    HW141097   0.388   2.492   8.886
46400SOL    HW241098   0.484   2.402   8.812
46401SOL     OW41099  13.317  11.627   4.385
46401SOL    HW141100  13.346  11.558   4.326
46401SOL    HW241101  13.233  11.657   4.350
46402SOL     OW41102   9.870  11.270   2.064
46402SOL    HW141103   9.823  11.345   2.028
46402SOL    HW241104   9.946  11.307   2.108
46403SOL     OW41105   5.896   8.638   8.076
46403SOL    HW141106   5.902   8.584   7.997
46403SOL    HW241107   5.802   8.654   8.087
46404SOL     OW41108   8.642   8.846   1.783
46404SOL    HW141109   8.657   8.792   1.861
46404SOL    HW241110   8.723   8.895   1.773
46405SOL     OW41111   0.393  14.541   3.147
46405SOL    HW141112   0.379  14.448   3.166
46405SOL    HW241113   0.432  14.542   3.060
46406SOL     OW41114   3.568   7.123   1.409
46406SOL    HW141115   3.497   7.084   1.357
46406SOL    HW241116   3.588   7.205   1.364
46407SOL     OW41117  12.727   4.617   6.371
46407SOL    HW141118  12.777   4.674   6.314
46407SOL    HW241119  12.635   4.637   6.351
46408SOL     OW41120   4.777   0.771   4.993
46408SOL    HW141121   4.816   0.711   5.056
46408SOL    HW241122   4.789   0.728   4.908
46409SOL     OW41123   7.630   8.566   6.828
46409SOL    HW141124   7.570   8.526   6.891
46409SOL    HW241125   7.607   8.659   6.828
46410SOL     OW41126  12.059   7.113   6.887
46410SOL    HW141127  11.995   7.085   6.953
46410SOL    HW241128  12.140   7.124   6.936
46411SOL     OW41129   3.280   8.313   7.775
46411SOL    HW141130   3.317   8.308   7.863
46411SOL    HW241131   3.341   8.263   7.720
46412SOL     OW41132  12.954   3.032   5.496
46412SOL    HW141133  13.024   2.997   5.441
46412SOL    HW241134  12.893   2.959   5.507
46413SOL     OW41135  13.882   3.904   7.738
46413SOL    HW141136  13.968   3.861   7.743
46413SOL    HW241137  13.831   3.847   7.681
46414SOL     OW41138   9.732   9.998   3.770
46414SOL    HW141139   9.766   9.946   3.697
46414SOL    HW241140   9.692  10.074   3.728
46415SOL     OW41141   4.875   2.936   2.856
46415SOL    HW141142   4.798   2.894   2.819
46415SOL    HW241143   4.842   2.980   2.935
46416SOL     OW41144   1.010   4.947   3.655
46416SOL    HW141145   1.058   4.981   3.580
46416SOL    HW241146   0.973   5.025   3.697
46417SOL     OW41147   6.848   1.659   4.368
46417SOL    HW141148   6.816   1.571   4.351
46417SOL    HW241149   6.939   1.658   4.339
46418SOL     OW41150   7.999   9.768  12.426
46418SOL    HW141151   7.925   9.827  12.413
46418SOL    HW241152   8.006   9.760  12.521
46419SOL     OW41153   4.890   0.539   7.706
46419SOL    HW141154   4.812   0.513   7.756
46419SOL    HW241155   4.948   0.577   7.771
46420SOL     OW41156   0.622  14.714  14.120
46420SOL    HW141157   0.597  14.770  14.047
46420SOL    HW241158   0.652  14.775  14.188
46421SOL     OW41159   5.593  11.688   7.130
46421SOL    HW141160   5.652  11.727   7.066
46421SOL    HW241161   5.651  11.640   7.190
46422SOL     OW41162   1.078   7.006   5.862
46422SOL    HW141163   1.024   6.999   5.784
46422SOL    HW241164   1.023   7.053   5.925
46423SOL     OW41165   7.554  11.796   7.402
46423SOL    HW141166   7.628  11.830   7.452
46423SOL    HW241167   7.515  11.729   7.459
46424SOL     OW41168   4.234  11.207   9.417
46424SOL    HW141169   4.324  11.194   9.389
46424SOL    HW241170   4.236  11.287   9.470
46425SOL     OW41171   5.659  10.845  12.410
46425SOL    HW141172   5.739  10.876  12.452
46425SOL    HW241173   5.598  10.919  12.418
46426SOL     OW41174   4.892  13.862  11.129
46426SOL    HW141175   4.839  13.785  11.111
46426SOL    HW241176   4.830  13.935  11.128
46427SOL     OW41177   0.221   0.450   2.185
46427SOL    HW141178   0.223   0.364   2.228
46427SOL    HW241179   0.130   0.478   2.192
46428SOL     OW41180   1.773   3.841   6.752
46428SOL    HW141181   1.717   3.915   6.729
46428SOL    HW241182   1.715   3.779   6.796
46429SOL     OW41183  10.171  13.834  11.099
46429SOL    HW141184  10.195  13.926  11.090
46429SOL    HW241185  10.122  13.814  11.019
46430SOL     OW41186  11.871   4.576   9.876
46430SOL    HW141187  11.794   4.558   9.930
46430SOL    HW241188  11.918   4.493   9.872
46431SOL     OW41189  13.634   2.519  13.782
46431SOL    HW141190  13.729   2.507  13.784
46431SOL    HW241191  13.601   2.464  13.853
46432SOL     OW41192  12.048   8.020  11.955
46432SOL    HW141193  12.041   7.980  11.869
46432SOL    HW241194  12.133   8.064  11.955
46433SOL     OW41195  12.592  12.556   8.524
46433SOL    HW141196  12.560  12.591   8.441
46433SOL    HW241197  12.637  12.475   8.500
46434SOL     OW41198   5.036  13.896  10.917
46434SOL    HW141199   5.126  13.867  10.933
46434SOL    HW241200   4.995  13.896  11.003
46435SOL     OW41201  12.145   2.740   2.902
46435SOL    HW141202  12.150   2.652   2.864
46435SOL    HW241203  12.181   2.729   2.991
46436SOL     OW41204   5.124   2.102   9.601
46436SOL    HW141205   5.062   2.101   9.673
46436SOL    HW241206   5.190   2.166   9.626
46437SOL     OW41207  12.010   9.788  10.889
46437SOL    HW141208  12.002   9.810  10.796
46437SOL    HW241209  12.099   9.755  10.899
46438SOL     OW41210  12.864  14.515   0.050
46438SOL    HW141211  12.864  14.525  14.835
46438SOL    HW241212  12.887  14.423   0.064
46439SOL     OW41213   9.688   8.125   6.287
46439SOL    HW141214   9.774   8.130   6.246
46439SOL    HW241215   9.705   8.090   6.374
46440SOL     OW41216  10.482   1.749   4.391
46440SOL    HW141217  10.402   1.737   4.339
46440SOL    HW241218  10.451   1.749   4.482
46441SOL     OW41219   9.370  14.533   1.725
46441SOL    HW141220   9.373  14.596   1.796
46441SOL    HW241221   9.458  14.534   1.687
46442SOL     OW41222   1.576  11.458  13.843
46442SOL    HW141223   1.625  11.505  13.910
46442SOL    HW241224   1.594  11.365  13.859
46443SOL     OW41225   3.878   0.518   9.747
46443SOL    HW141226   3.967   0.546   9.727
46443SOL    HW241227   3.888   0.435   9.794
46444SOL     OW41228   8.744  14.677   6.572
46444SOL    HW141229   8.837  14.692   6.587
46444SOL    HW241230   8.736  14.582   6.569
46445SOL     OW41231  13.759  11.293   6.630
46445SOL    HW141232  13.837  11.343   6.654
46445SOL    HW241233  13.747  11.232   6.703
46446SOL     OW41234   5.012  13.466   5.305
46446SOL    HW141235   4.982  13.514   5.382
46446SOL    HW241236   5.037  13.380   5.339
46447SOL     OW41237   1.964  10.053   6.814
46447SOL    HW141238   1.905  10.121   6.782
46447SOL    HW241239   2.044  10.066   6.762
46448SOL     OW41240  13.111  13.297   1.600
46448SOL    HW141241  13.171  13.361   1.640
46448SOL    HW241242  13.165  13.219   1.588
46449SOL     OW41243   9.994   4.842   1.708
46449SOL    HW141244  10.065   4.841   1.772
46449SOL    HW241245   9.930   4.904   1.743
46450SOL     OW41246   9.410   1.523   6.339
46450SOL    HW141247   9.367   1.555   6.260
46450SOL    HW241248   9.422   1.601   6.393
46451SOL     OW41249   7.133   8.128   2.130
46451SOL    HW141250   7.115   8.184   2.206
46451SOL    HW241251   7.046   8.105   2.096
46452SOL     OW41252  13.398   5.308   2.024
46452SOL    HW141253  13.403   5.213   2.027
46452SOL    HW241254  13.490   5.337   2.017
46453SOL     OW41255  12.396   1.961  14.879
46453SOL    HW141256  12.372   1.876  14.842
46453SOL    HW241257  12.422   2.014  14.804
46454SOL     OW41258  10.639  11.889   2.661
46454SOL    HW141259  10.665  11.859   2.574
46454SOL    HW241260  10.580  11.821   2.694
46455SOL     OW41261  10.945  14.453  11.570
46455SOL    HW141262  10.996  14.374  11.588
46455SOL    HW241263  10.998  14.525  11.604
46456SOL     OW41264  14.834   1.726  14.344
46456SOL    HW141265   0.026   1.729  14.282
46456SOL    HW241266  14.876   1.738  14.430
46457SOL     OW41267  13.868  10.897   1.599
46457SOL    HW141268  13.957  10.887   1.633
46457SOL    HW241269  13.814  10.912   1.676
46458SOL     OW41270   3.475   6.045   5.611
46458SOL    HW141271   3.439   6.013   5.528
46458SOL    HW241272   3.455   6.139   5.611
46459SOL     OW41273   8.646   2.987   9.121
46459SOL    HW141274   8.693   3.061   9.161
46459SOL    HW241275   8.713   2.919   9.113
46460SOL     OW41276   0.143   9.034   6.366
46460SOL    HW141277   0.052   9.011   6.384
46460SOL    HW241278   0.160   9.111   6.421
46461SOL     OW41279   9.089   2.483   4.512
46461SOL    HW141280   9.095   2.500   4.418
46461SOL    HW241281   8.996   2.493   4.532
46462SOL     OW41282   6.493  10.756  10.619
46462SOL    HW141283   6.509  10.676  10.669
46462SOL    HW241284   6.507  10.731  10.528
46463SOL     OW41285  12.145   9.178   2.963
46463SOL    HW141286  12.207   9.106   2.978
46463SOL    HW241287  12.166   9.242   3.031
46464SOL     OW41288  14.679   9.225  10.795
46464SOL    HW141289  14.590   9.211  10.762
46464SOL    HW241290  14.669   9.287  10.867
46465SOL     OW41291   2.342  11.620  13.751
46465SOL    HW141292   2.410  11.605  13.817
46465SOL    HW241293   2.273  11.557  13.772
46466SOL     OW41294   9.681  13.529   2.149
46466SOL    HW141295   9.633  13.548   2.230
46466SOL    HW241296   9.657  13.439   2.127
46467SOL     OW41297   7.935  13.289   0.471
46467SOL    HW141298   7.946  13.381   0.449
46467SOL    HW241299   7.975  13.242   0.398
46468SOL     OW41300   3.893   2.136  13.738
46468SOL    HW141301   3.958   2.120  13.807
46468SOL    HW241302   3.931   2.206  13.686
46469SOL     OW41303  11.018   8.612   9.478
46469SOL    HW141304  11.057   8.566   9.403
46469SOL    HW241305  11.083   8.679   9.501
46470SOL     OW41306  11.204  11.871  12.085
46470SOL    HW141307  11.234  11.892  11.997
46470SOL    HW241308  11.181  11.778  12.082
46471SOL     OW41309   5.337  11.302   9.967
46471SOL    HW141310   5.404  11.243   9.932
46471SOL    HW241311   5.331  11.279  10.060
46472SOL     OW41312   6.936  12.284  11.582
46472SOL    HW141313   6.943  12.188  11.586
46472SOL    HW241314   6.997  12.310  11.513
46473SOL     OW41315   2.578  11.334   1.029
46473SOL    HW141316   2.655  11.382   1.060
46473SOL    HW241317   2.505  11.395   1.040
46474SOL     OW41318   9.167   4.366   1.239
46474SOL    HW141319   9.244   4.379   1.295
46474SOL    HW241320   9.106   4.317   1.293
46475SOL     OW41321   2.531   7.846  10.630
46475SOL    HW141322   2.559   7.793  10.555
46475SOL    HW241323   2.491   7.783  10.690
46476SOL     OW41324  10.609  10.963   6.307
46476SOL    HW141325  10.692  10.919   6.291
46476SOL    HW241326  10.553  10.895   6.345
46477SOL     OW41327   6.326   0.103  12.503
46477SOL    HW141328   6.260   0.158  12.460
46477SOL    HW241329   6.352   0.154  12.580
46478SOL     OW41330   4.569  13.013  14.561
46478SOL    HW141331   4.621  12.974  14.631
46478SOL    HW241332   4.544  13.099  14.595
46479SOL     OW41333   6.288   3.280   0.123
46479SOL    HW141334   6.207   3.306   0.079
46479SOL    HW241335   6.338   3.233   0.056
46480SOL     OW41336   3.207  13.024  14.644
46480SOL    HW141337   3.182  13.079  14.570
46480SOL    HW241338   3.302  13.013  14.635
46481SOL     OW41339   7.987  13.550   7.801
46481SOL    HW141340   7.896  13.559   7.831
46481SOL    HW241341   8.023  13.638   7.808
46482SOL     OW41342  12.657   5.062   1.188
46482SOL    HW141343  12.751   5.050   1.180
46482SOL    HW241344  12.635   5.025   1.274
46483SOL     OW41345  14.008   4.936   9.284
46483SOL    HW141346  14.102   4.954   9.291
46483SOL    HW241347  13.973   5.009   9.233
46484SOL     OW41348   6.774   1.340  11.994
46484SOL    HW141349   6.805   1.260  11.953
46484SOL    HW241350   6.792   1.329  12.087
46485SOL     OW41351  10.303  12.608  10.889
46485SOL    HW141352  10.209  12.590  10.893
46485SOL    HW241353  10.331  12.570  10.806
46486SOL     OW41354   6.845   6.716  11.813
46486SOL    HW141355   6.882   6.773  11.880
46486SOL    HW241356   6.919   6.663  11.783
46487SOL     OW41357   4.587   7.621  14.579
46487SOL    HW141358   4.655   7.594  14.518
46487SOL    HW241359   4.634   7.667  14.649
46488SOL     OW41360   2.066  11.632  12.632
46488SOL    HW141361   2.152  11.594  12.654
46488SOL    HW241362   2.070  11.647  12.538
46489SOL     OW41363   6.703  10.450   4.194
46489SOL    HW141364   6.727  10.385   4.128
46489SOL    HW241365   6.715  10.406   4.278
46490SOL     OW41366   7.943   2.892  10.952
46490SOL    HW141367   7.929   2.850  10.867
46490SOL    HW241368   8.029   2.862  10.981
46491SOL     OW41369  10.973   3.915   8.103
46491SOL    HW141370  11.054   3.873   8.134
46491SOL    HW241371  10.990   3.934   8.011
46492SOL     OW41372  14.700  12.598  13.028
46492SOL    HW141373  14.645  12.669  12.996
46492SOL    HW241374  14.668  12.581  13.116
46493SOL     OW41375  12.835   7.855   7.741
46493SOL    HW141376  12.790   7.789   7.794
46493SOL    HW241377  12.774   7.875   7.671
46494SOL     OW41378  11.349   0.796  14.099
46494SOL    HW141379  11.415   0.758  14.158
46494SOL    HW241380  11.398   0.821  14.021
46495SOL     OW41381   9.102   4.970  10.034
46495SOL    HW141382   9.069   4.883  10.055
46495SOL    HW241383   9.140   5.002  10.115
46496SOL     OW41384   0.963   6.231   0.748
46496SOL    HW141385   0.886   6.177   0.731
46496SOL    HW241386   0.946   6.313   0.702
46497SOL     OW41387   6.184  14.535   1.175
46497SOL    HW141388   6.189  14.525   1.270
46497SOL    HW241389   6.263  14.583   1.152
46498SOL     OW41390  13.579   4.163   1.813
46498SOL    HW141391  13.626   4.203   1.740
46498SOL    HW241392  13.592   4.224   1.886
46499SOL     OW41393   0.418   6.360   2.617
46499SOL    HW141394   0.415   6.452   2.589
46499SOL    HW241395   0.507   6.349   2.651
46500SOL     OW41396  13.378   1.711   7.030
46500SOL    HW141397  13.420   1.786   7.073
46500SOL    HW241398  13.356   1.743   6.943
46501SOL     OW41399   3.996   8.336  14.513
46501SOL    HW141400   4.053   8.338  14.591
46501SOL    HW241401   3.908   8.326  14.549
46502SOL     OW41402   3.483   3.215  11.096
46502SOL    HW141403   3.566   3.256  11.071
46502SOL    HW241404   3.479   3.223  11.191
46503SOL     OW41405   0.808   1.542   3.514
46503SOL    HW141406   0.829   1.509   3.427
46503SOL    HW241407   0.779   1.465   3.563
46504SOL     OW41408   4.351   1.354  10.605
46504SOL    HW141409   4.435   1.314  10.582
46504SOL    HW241410   4.295   1.338  10.528
46505SOL     OW41411  13.545   6.065   6.379
46505SOL    HW141412  13.548   6.160   6.366
46505SOL    HW241413  13.458   6.048   6.415
46506SOL     OW41414   9.219  10.755  14.490
46506SOL    HW141415   9.302  10.737  14.445
46506SOL    HW241416   9.167  10.803  14.425
46507SOL     OW41417   9.061  12.531   6.395
46507SOL    HW141418   9.098  12.585   6.326
46507SOL    HW241419   9.119  12.455   6.401
46508SOL     OW41420   3.783  14.435   7.848
46508SOL    HW141421   3.773  14.373   7.920
46508SOL    HW241422   3.876  14.457   7.847
46509SOL     OW41423  10.121  14.440   6.336
46509SOL    HW141424  10.210  14.448   6.369
46509SOL    HW241425  10.077  14.518   6.369
46510SOL     OW41426  10.136   9.746  10.953
46510SOL    HW141427  10.210   9.685  10.950
46510SOL    HW241428  10.117   9.755  11.047
46511SOL     OW41429  13.294  11.060  14.716
46511SOL    HW141430  13.343  11.100  14.644
46511SOL    HW241431  13.272  11.133  14.774
46512SOL     OW41432   9.887  11.375   6.241
46512SOL    HW141433   9.893  11.438   6.312
46512SOL    HW241434   9.971  11.381   6.196
46513SOL     OW41435   1.421   8.192  11.105
46513SOL    HW141436   1.482   8.256  11.068
46513SOL    HW241437   1.460   8.168  11.189
46514SOL     OW41438   6.154   6.928   2.997
46514SOL    HW141439   6.243   6.957   2.978
46514SOL    HW241440   6.157   6.833   2.985
46515SOL     OW41441  10.801  12.569   3.343
46515SOL    HW141442  10.807  12.476   3.363
46515SOL    HW241443  10.837  12.613   3.421
46516SOL     OW41444   0.571  14.818   0.470
46516SOL    HW141445   0.546  14.807   0.378
46516SOL    HW241446   0.649  14.764   0.481
46517SOL     OW41447   4.296  11.436   7.683
46517SOL    HW141448   4.230  11.403   7.622
46517SOL    HW241449   4.251  11.506   7.731
46518SOL     OW41450  11.282   8.393   6.376
46518SOL    HW141451  11.298   8.467   6.435
46518SOL    HW241452  11.264   8.319   6.434
46519SOL     OW41453   1.942   0.544   6.867
46519SOL    HW141454   2.038   0.549   6.874
46519SOL    HW241455   1.926   0.471   6.808
46520SOL     OW41456   5.677   5.643  10.342
46520SOL    HW141457   5.594   5.676  10.307
46520SOL    HW241458   5.691   5.692  10.423
46521SOL     OW41459  10.481   5.120   7.637
46521SOL    HW141460  10.413   5.154   7.579
46521SOL    HW241461  10.492   5.029   7.610
46522SOL     OW41462   6.088   5.478  12.402
46522SOL    HW141463   6.045   5.524  12.474
46522SOL    HW241464   6.048   5.514  12.323
46523SOL     OW41465   1.928   8.167  10.206
46523SOL    HW141466   1.903   8.087  10.254
46523SOL    HW241467   1.896   8.238  10.261
46524SOL     OW41468   6.035   1.440   6.010
46524SOL    HW141469   6.118   1.426   5.965
46524SOL    HW241470   6.006   1.353   6.036
46525SOL     OW41471   6.379   4.548   9.000
46525SOL    HW141472   6.344   4.591   8.922
46525SOL    HW241473   6.313   4.565   9.067
46526SOL     OW41474  11.209  14.435   8.270
46526SOL    HW141475  11.189  14.522   8.236
46526SOL    HW241476  11.271  14.450   8.341
46527SOL     OW41477   7.461  10.961  13.485
46527SOL    HW141478   7.396  10.928  13.422
46527SOL    HW241479   7.499  10.883  13.524
46528SOL     OW41480   2.563  10.859   1.165
46528SOL    HW141481   2.602  10.927   1.111
46528SOL    HW241482   2.633  10.796   1.180
46529SOL     OW41483  11.314  10.949   8.522
46529SOL    HW141484  11.327  10.981   8.611
46529SOL    HW241485  11.308  11.027   8.468
46530SOL     OW41486   7.012   6.508   4.902
46530SOL    HW141487   7.023   6.461   4.985
46530SOL    HW241488   6.931   6.557   4.912
46531SOL     OW41489   8.400   9.441  10.128
46531SOL    HW141490   8.433   9.435  10.217
46531SOL    HW241491   8.363   9.530  10.122
46532SOL     OW41492   4.819  12.055   5.915
46532SOL    HW141493   4.810  12.128   5.977
46532SOL    HW241494   4.889  12.001   5.951
46533SOL     OW41495   8.189   5.726  12.106
46533SOL    HW141496   8.139   5.802  12.079
46533SOL    HW241497   8.252   5.712  12.035
46534SOL     OW41498   3.848  10.024   4.497
46534SOL    HW141499   3.755  10.002   4.499
46534SOL    HW241500   3.858  10.091   4.565
46535SOL     OW41501   2.869   4.941   9.213
46535SOL    HW141502   2.962   4.962   9.218
46535SOL    HW241503   2.847   4.907   9.299
46536SOL     OW41504  14.326  11.151   0.803
46536SOL    HW141505  14.271  11.109   0.869
46536SOL    HW241506  14.265  11.189   0.741
46537SOL     OW41507  13.995   4.568   9.887
46537SOL    HW141508  13.906   4.555   9.920
46537SOL    HW241509  14.041   4.487   9.909
46538SOL     OW41510   2.972  10.489  12.404
46538SOL    HW141511   2.959  10.399  12.434
46538SOL    HW241512   2.884  10.519  12.381
46539SOL     OW41513  13.271   1.890   6.827
46539SOL    HW141514  13.288   1.911   6.735
46539SOL    HW241515  13.176   1.892   6.834
46540SOL     OW41516   7.724   5.161   2.578
46540SOL    HW141517   7.697   5.252   2.570
46540SOL    HW241518   7.819   5.165   2.590
46541SOL     OW41519  10.797   0.882   2.640
46541SOL    HW141520  10.871   0.851   2.693
46541SOL    HW241521  10.818   0.974   2.621
46542SOL     OW41522   4.363   7.363  13.679
46542SOL    HW141523   4.323   7.299  13.619
46542SOL    HW241524   4.334   7.448  13.646
46543SOL     OW41525  12.387   8.830   8.866
46543SOL    HW141526  12.356   8.921   8.869
46543SOL    HW241527  12.427   8.821   8.779
46544SOL     OW41528   3.728   7.689   9.068
46544SOL    HW141529   3.699   7.667   8.979
46544SOL    HW241530   3.647   7.696   9.118
46545SOL     OW41531   9.024  13.747   4.306
46545SOL    HW141532   9.020  13.827   4.253
46545SOL    HW241533   9.033  13.676   4.242
46546SOL     OW41534   0.869   3.454   1.440
46546SOL    HW141535   0.870   3.420   1.530
46546SOL    HW241536   0.891   3.378   1.386
46547SOL     OW41537  13.209   7.339  14.454
46547SOL    HW141538  13.131   7.367  14.503
46547SOL    HW241539  13.183   7.256  14.413
46548SOL     OW41540   4.697   3.715   3.639
46548SOL    HW141541   4.714   3.624   3.614
46548SOL    HW241542   4.604   3.718   3.660
46549SOL     OW41543   6.362   0.512   8.634
46549SOL    HW141544   6.424   0.545   8.700
46549SOL    HW241545   6.374   0.417   8.637
46550SOL     OW41546   8.137  12.609  10.760
46550SOL    HW141547   8.054  12.657  10.753
46550SOL    HW241548   8.112  12.518  10.773
46551SOL     OW41549  10.229  10.490   8.766
46551SOL    HW141550  10.251  10.583   8.763
46551SOL    HW241551  10.218  10.465   8.674
46552SOL     OW41552   2.252   8.060   3.789
46552SOL    HW141553   2.337   8.070   3.832
46552SOL    HW241554   2.197   8.127   3.830
46553SOL     OW41555  12.208   2.648   8.166
46553SOL    HW141556  12.198   2.554   8.153
46553SOL    HW241557  12.132   2.672   8.219
46554SOL     OW41558  13.817  13.137   3.722
46554SOL    HW141559  13.835  13.112   3.631
46554SOL    HW241560  13.746  13.201   3.715
46555SOL     OW41561   5.029  10.957   2.336
46555SOL    HW141562   5.022  10.866   2.308
46555SOL    HW241563   5.039  11.007   2.255
46556SOL     OW41564  11.337  11.747   4.015
46556SOL    HW141565  11.243  11.730   4.022
46556SOL    HW241566  11.364  11.771   4.103
46557SOL     OW41567   5.958   4.519   4.711
46557SOL    HW141568   5.963   4.611   4.685
46557SOL    HW241569   6.012   4.514   4.790
46558SOL     OW41570  10.457   6.528  10.383
46558SOL    HW141571  10.465   6.502  10.291
46558SOL    HW241572  10.546   6.522  10.418
46559SOL     OW41573   8.526   3.880   6.942
46559SOL    HW141574   8.466   3.936   6.892
46559SOL    HW241575   8.491   3.883   7.032
46560SOL     OW41576   4.902   4.462  14.674
46560SOL    HW141577   4.839   4.522  14.635
46560SOL    HW241578   4.848   4.401  14.725
46561SOL     OW41579   4.485   0.271   4.644
46561SOL    HW141580   4.550   0.208   4.676
46561SOL    HW241581   4.401   0.233   4.668
46562SOL     OW41582   8.797   3.491  11.425
46562SOL    HW141583   8.847   3.429  11.479
46562SOL    HW241584   8.840   3.575  11.439
46563SOL     OW41585  10.356  13.830   4.589
46563SOL    HW141586  10.283  13.813   4.648
46563SOL    HW241587  10.367  13.748   4.541
46564SOL     OW41588   7.557   7.861  13.786
46564SOL    HW141589   7.480   7.858  13.843
46564SOL    HW241590   7.538   7.799  13.716
46565SOL     OW41591  12.774   5.240   8.044
46565SOL    HW141592  12.742   5.184   8.115
46565SOL    HW241593  12.822   5.310   8.089
46566SOL     OW41594  10.536  14.724   8.283
46566SOL    HW141595  10.578  14.771   8.210
46566SOL    HW241596  10.578  14.758   8.361
46567SOL     OW41597   0.214   8.792   3.300
46567SOL    HW141598   0.119   8.790   3.314
46567SOL    HW241599   0.240   8.881   3.324
46568SOL     OW41600   6.927   4.326   2.386
46568SOL    HW141601   6.991   4.395   2.368
46568SOL    HW241602   6.859   4.337   2.319
46569SOL     OW41603   7.206  13.309  13.238
46569SOL    HW141604   7.221  13.325  13.331
46569SOL    HW241605   7.238  13.389  13.195
46570SOL     OW41606  12.456   3.011   1.498
46570SOL    HW141607  12.483   2.960   1.422
46570SOL    HW241608  12.533   3.063   1.521
46571SOL     OW41609  10.465   6.097  14.313
46571SOL    HW141610  10.502   6.014  14.283
46571SOL    HW241611  10.385   6.073  14.359
46572SOL     OW41612   0.174   6.816   6.279
46572SOL    HW141613   0.175   6.811   6.183
46572SOL    HW241614   0.181   6.725   6.308
46573SOL     OW41615   3.994   9.502   2.230
46573SOL    HW141616   3.975   9.445   2.155
46573SOL    HW241617   4.006   9.589   2.191
46574SOL     OW41618   4.816   2.919   6.618
46574SOL    HW141619   4.833   2.890   6.708
46574SOL    HW241620   4.810   2.838   6.567
46575SOL     OW41621   9.920   0.062  10.722
46575SOL    HW141622   9.958   0.150  10.718
46575SOL    HW241623   9.931   0.028  10.633
46576SOL     OW41624   1.817   7.215   0.006
46576SOL    HW141625   1.802   7.123  14.863
46576SOL    HW241626   1.785   7.265  14.811
46577SOL     OW41627  10.848   6.003   1.223
46577SOL    HW141628  10.933   6.047   1.223
46577SOL    HW241629  10.843   5.960   1.138
46578SOL     OW41630  13.910   8.293  13.842
46578SOL    HW141631  13.918   8.199  13.857
46578SOL    HW241632  13.956   8.308  13.759
46579SOL     OW41633   0.002  11.168   9.344
46579SOL    HW141634   0.003  11.243   9.404
46579SOL    HW241635  14.826  11.196   9.272
46580SOL     OW41636  14.294   1.655   4.506
46580SOL    HW141637  14.213   1.700   4.528
46580SOL    HW241638  14.267   1.567   4.480
46581SOL     OW41639   8.558   1.224   1.372
46581SOL    HW141640   8.464   1.226   1.385
46581SOL    HW241641   8.590   1.156   1.431
46582SOL     OW41642   0.784   4.391   9.991
46582SOL    HW141643   0.790   4.325  10.060
46582SOL    HW241644   0.693   4.421   9.994
46583SOL     OW41645   5.147   6.594  10.739
46583SOL    HW141646   5.116   6.682  10.761
46583SOL    HW241647   5.155   6.549  10.823
46584SOL     OW41648  13.778  13.960  10.133
46584SOL    HW141649  13.863  13.939  10.171
46584SOL    HW241650  13.746  13.878  10.096
46585SOL     OW41651  12.492   6.900   3.214
46585SOL    HW141652  12.406   6.885   3.176
46585SOL    HW241653  12.498   6.838   3.286
46586SOL     OW41654   0.118  12.879  10.792
46586SOL    HW141655   0.190  12.840  10.841
46586SOL    HW241656   0.090  12.953  10.846
46587SOL     OW41657  12.809   8.794   7.485
46587SOL    HW141658  12.884   8.737   7.468
46587SOL    HW241659  12.813   8.809   7.580
46588SOL     OW41660   8.170   8.048   4.016
46588SOL    HW141661   8.080   8.079   4.003
46588SOL    HW241662   8.181   7.978   3.952
46589SOL     OW41663   3.451  10.798   4.940
46589SOL    HW141664   3.397  10.822   4.865
46589SOL    HW241665   3.537  10.779   4.903
46590SOL     OW41666  12.833   7.102   6.873
46590SOL    HW141667  12.858   7.073   6.961
46590SOL    HW241668  12.795   7.025   6.832
46591SOL     OW41669   9.839   7.107   6.978
46591SOL    HW141670   9.819   7.042   7.046
46591SOL    HW241671   9.832   7.191   7.023
46592SOL     OW41672   6.865   2.123   1.347
46592SOL    HW141673   6.841   2.121   1.255
46592SOL    HW241674   6.865   2.031   1.374
46593SOL     OW41675   8.882   9.286   6.613
46593SOL    HW141676   8.822   9.291   6.688
46593SOL    HW241677   8.958   9.337   6.640
46594SOL     OW41678   9.375   1.711   0.028
46594SOL    HW141679   9.461   1.710  14.865
46594SOL    HW241680   9.368   1.799   0.066
46595SOL     OW41681   2.615   8.894   0.559
46595SOL    HW141682   2.617   8.806   0.596
46595SOL    HW241683   2.584   8.882   0.469
46596SOL     OW41684   6.503   2.956   0.973
46596SOL    HW141685   6.453   2.879   1.001
46596SOL    HW241686   6.448   3.030   0.997
46597SOL     OW41687   0.271  11.184   9.293
46597SOL    HW141688   0.305  11.110   9.343
46597SOL    HW241689   0.188  11.205   9.336
46598SOL     OW41690  13.949   9.810  13.586
46598SOL    HW141691  13.915   9.866  13.516
46598SOL    HW241692  13.922   9.721  13.562
46599SOL     OW41693   9.407   2.151  11.147
46599SOL    HW141694   9.362   2.098  11.213
46599SOL    HW241695   9.388   2.241  11.171
46600SOL     OW41696   2.951  13.945  11.695
46600SOL    HW141697   2.965  14.038  11.681
46600SOL    HW241698   3.018  13.920  11.760
46601SOL     OW41699   2.820  14.767  11.594
46601SOL    HW141700   2.900  14.782  11.645
46601SOL    HW241701   2.819  14.837  11.530
46602SOL     OW41702  10.424  12.545  11.161
46602SOL    HW141703  10.371  12.544  11.081
46602SOL    HW241704  10.422  12.454  11.191
46603SOL     OW41705  14.698  14.441  11.616
46603SOL    HW141706  14.667  14.431  11.526
46603SOL    HW241707  14.723  14.352  11.643
46604SOL     OW41708   0.473   1.002  10.480
46604SOL    HW141709   0.438   1.087  10.507
46604SOL    HW241710   0.507   1.017  10.391
46605SOL     OW41711  14.325  10.196  13.536
46605SOL    HW141712  14.370  10.239  13.464
46605SOL    HW241713  14.355  10.105  13.533
46606SOL     OW41714  12.124   1.090   2.677
46606SOL    HW141715  12.112   1.041   2.758
46606SOL    HW241716  12.036   1.112   2.648
46607SOL     OW41717   6.731   2.844   7.262
46607SOL    HW141718   6.684   2.920   7.296
46607SOL    HW241719   6.744   2.789   7.340
46608SOL     OW41720  10.482  13.604  13.601
46608SOL    HW141721  10.569  13.590  13.638
46608SOL    HW241722  10.422  13.577  13.670
46609SOL     OW41723  13.630   7.104   6.714
46609SOL    HW141724  13.538   7.121   6.733
46609SOL    HW241725  13.675   7.186   6.733
46610SOL     OW41726  14.544   9.532   5.297
46610SOL    HW141727  14.557   9.446   5.336
46610SOL    HW241728  14.580   9.524   5.209
46611SOL     OW41729  14.020   4.355  13.316
46611SOL    HW141730  14.094   4.318  13.363
46611SOL    HW241731  13.969   4.401  13.383
46612SOL     OW41732   7.550  10.308   0.788
46612SOL    HW141733   7.645  10.303   0.800
46612SOL    HW241734   7.534  10.263   0.704
46613SOL     OW41735   4.572  11.191   6.817
46613SOL    HW141736   4.584  11.259   6.883
46613SOL    HW241737   4.657  11.147   6.812
46614SOL     OW41738  12.823   9.446   3.751
46614SOL    HW141739  12.913   9.458   3.722
46614SOL    HW241740  12.788   9.378   3.694
46615SOL     OW41741   2.248  11.448   0.763
46615SOL    HW141742   2.248  11.407   0.849
46615SOL    HW241743   2.246  11.375   0.701
46616SOL     OW41744   3.490   4.378  11.924
46616SOL    HW141745   3.438   4.442  11.876
46616SOL    HW241746   3.527   4.322  11.856
46617SOL     OW41747   9.167  11.458   9.076
46617SOL    HW141748   9.194  11.374   9.113
46617SOL    HW241749   9.133  11.508   9.150
46618SOL     OW41750   9.328   7.183   3.511
46618SOL    HW141751   9.324   7.276   3.535
46618SOL    HW241752   9.404   7.149   3.559
46619SOL     OW41753  12.068   0.438  10.201
46619SOL    HW141754  11.979   0.454  10.171
46619SOL    HW241755  12.067   0.463  10.294
46620SOL     OW41756   8.069  14.826   7.008
46620SOL    HW141757   8.139  14.799   7.067
46620SOL    HW241758   8.048  14.746   6.959
46621SOL     OW41759  12.240   3.169   2.191
46621SOL    HW141760  12.276   3.250   2.155
46621SOL    HW241761  12.291   3.153   2.270
46622SOL     OW41762   2.202   4.734   7.791
46622SOL    HW141763   2.260   4.788   7.736
46622SOL    HW241764   2.256   4.659   7.816
46623SOL     OW41765   5.209  10.970  14.834
46623SOL    HW141766   5.221  11.001  14.744
46623SOL    HW241767   5.184  10.878  14.824
46624SOL     OW41768  10.852   8.988   8.788
46624SOL    HW141769  10.782   9.031   8.738
46624SOL    HW241770  10.816   8.980   8.876
46625SOL     OW41771   8.144  12.634  10.035
46625SOL    HW141772   8.139  12.722   9.999
46625SOL    HW241773   8.132  12.645  10.129
46626SOL     OW41774  13.046   2.086   0.511
46626SOL    HW141775  13.000   2.057   0.590
46626SOL    HW241776  13.078   2.174   0.533
46627SOL     OW41777   1.175   9.495  14.548
46627SOL    HW141778   1.225   9.516  14.626
46627SOL    HW241779   1.096   9.549  14.554
46628SOL     OW41780   5.252   2.352   3.427
46628SOL    HW141781   5.204   2.432   3.405
46628SOL    HW241782   5.279   2.364   3.518
46629SOL     OW41783  11.958   8.275  12.050
46629SOL    HW141784  11.886   8.309  11.997
46629SOL    HW241785  11.969   8.185  12.020
46630SOL     OW41786  14.579  11.952   6.564
46630SOL    HW141787  14.630  12.032   6.579
46630SOL    HW241788  14.627  11.905   6.496
46631SOL     OW41789   1.211  12.190   9.504
46631SOL    HW141790   1.199  12.252   9.432
46631SOL    HW241791   1.276  12.232   9.560
46632SOL     OW41792   1.324   1.340   3.994
46632SOL    HW141793   1.381   1.263   3.991
46632SOL    HW241794   1.384   1.414   4.005
46633SOL     OW41795   3.468   7.248  10.076
46633SOL    HW141796   3.444   7.196   9.999
46633SOL    HW241797   3.385   7.287  10.105
46634SOL     OW41798   3.690  13.359   8.992
46634SOL    HW141799   3.696  13.267   9.019
46634SOL    HW241800   3.755  13.404   9.045
46635SOL     OW41801  13.858   8.986   2.323
46635SOL    HW141802  13.865   9.080   2.339
46635SOL    HW241803  13.893   8.974   2.235
46636SOL     OW41804  12.241   0.681  11.191
46636SOL    HW141805  12.158   0.665  11.236
46636SOL    HW241806  12.224   0.755  11.133
46637SOL     OW41807   3.508   0.687   4.725
46637SOL    HW141808   3.563   0.672   4.802
46637SOL    HW241809   3.566   0.672   4.651
46638SOL     OW41810  14.438   8.224   5.033
46638SOL    HW141811  14.523   8.268   5.031
46638SOL    HW241812  14.445   8.155   4.967
46639SOL     OW41813  12.230   2.684   9.452
46639SOL    HW141814  12.193   2.712   9.535
46639SOL    HW241815  12.163   2.628   9.413
46640SOL     OW41816   1.844   2.706   9.592
46640SOL    HW141817   1.853   2.776   9.527
46640SOL    HW241818   1.751   2.707   9.616
46641SOL     OW41819   8.076   7.296  12.486
46641SOL    HW141820   8.060   7.302  12.392
46641SOL    HW241821   8.048   7.207  12.509
46642SOL     OW41822   4.272   5.694  11.670
46642SOL    HW141823   4.287   5.601  11.654
46642SOL    HW241824   4.181   5.699  11.700
46643SOL     OW41825   8.082   6.509   4.860
46643SOL    HW141826   7.987   6.499   4.854
46643SOL    HW241827   8.110   6.439   4.918
46644SOL     OW41828  14.505  14.476  10.835
46644SOL    HW141829  14.528  14.392  10.796
46644SOL    HW241830  14.453  14.453  10.912
46645SOL     OW41831   8.300   4.945   5.430
46645SOL    HW141832   8.298   5.038   5.451
46645SOL    HW241833   8.292   4.900   5.514
46646SOL     OW41834   8.702   5.208  10.549
46646SOL    HW141835   8.656   5.204  10.465
46646SOL    HW241836   8.793   5.228  10.526
46647SOL     OW41837   6.357   3.221   0.928
46647SOL    HW141838   6.404   3.229   1.011
46647SOL    HW241839   6.272   3.263   0.945
46648SOL     OW41840   9.502   6.783   7.422
46648SOL    HW141841   9.491   6.875   7.400
46648SOL    HW241842   9.440   6.768   7.494
46649SOL     OW41843  13.303   1.251  13.424
46649SOL    HW141844  13.290   1.346  13.415
46649SOL    HW241845  13.323   1.238  13.517
46650SOL     OW41846   1.665   0.063   5.787
46650SOL    HW141847   1.572   0.070   5.809
46650SOL    HW241848   1.675   0.112   5.706
46651SOL     OW41849  12.864   5.637  12.745
46651SOL    HW141850  12.806   5.591  12.806
46651SOL    HW241851  12.821   5.629  12.660
46652SOL     OW41852   2.230   9.855  11.498
46652SOL    HW141853   2.205   9.766  11.522
46652SOL    HW241854   2.269   9.892  11.577
46653SOL     OW41855   2.625  14.497  13.125
46653SOL    HW141856   2.542  14.527  13.087
46653SOL    HW241857   2.644  14.559  13.195
46654SOL     OW41858  14.222   1.813   0.119
46654SOL    HW141859  14.198   1.723   0.098
46654SOL    HW241860  14.284   1.805   0.192
46655SOL     OW41861   4.057   4.226   5.647
46655SOL    HW141862   4.011   4.276   5.580
46655SOL    HW241863   3.990   4.171   5.687
46656SOL     OW41864  13.123   7.021   7.152
46656SOL    HW141865  13.031   7.047   7.146
46656SOL    HW241866  13.130   6.976   7.236
46657SOL     OW41867   4.548   3.606   3.989
46657SOL    HW141868   4.509   3.626   3.904
46657SOL    HW241869   4.602   3.682   4.009
46658SOL     OW41870  13.814  14.385   7.320
46658SOL    HW141871  13.900  14.413   7.289
46658SOL    HW241872  13.768  14.466   7.341
46659SOL     OW41873   4.616   0.917   5.475
46659SOL    HW141874   4.658   0.837   5.442
46659SOL    HW241875   4.688   0.979   5.487
46660SOL     OW41876  13.116   6.719   1.504
46660SOL    HW141877  13.205   6.753   1.515
46660SOL    HW241878  13.127   6.624   1.501
46661SOL     OW41879  10.687   6.830   6.665
46661SOL    HW141880  10.700   6.925   6.664
46661SOL    HW241881  10.718   6.801   6.580
46662SOL     OW41882   9.770  12.445   5.631
46662SOL    HW141883   9.783  12.388   5.555
46662SOL    HW241884   9.851  12.497   5.635
46663SOL     OW41885  10.936   5.474   9.528
46663SOL    HW141886  10.958   5.515   9.444
46663SOL    HW241887  10.892   5.392   9.504
46664SOL     OW41888  14.198  13.275   4.509
46664SOL    HW141889  14.111  13.307   4.486
46664SOL    HW241890  14.246  13.273   4.426
46665SOL     OW41891   7.099  14.130   5.320
46665SOL    HW141892   7.168  14.165   5.377
46665SOL    HW241893   7.029  14.194   5.325
46666SOL     OW41894   9.550  14.849   6.462
46666SOL    HW141895   9.592  14.763   6.462
46666SOL    HW241896   9.459  14.831   6.441
46667SOL     OW41897   3.367  11.317   6.133
46667SOL    HW141898   3.326  11.331   6.048
46667SOL    HW241899   3.294  11.312   6.194
46668SOL     OW41900   1.584   5.399  10.451
46668SOL    HW141901   1.649   5.446  10.398
46668SOL    HW241902   1.501   5.417  10.409
46669SOL     OW41903   8.069   6.567  10.845
46669SOL    HW141904   7.998   6.568  10.910
46669SOL    HW241905   8.026   6.591  10.762
46670SOL     OW41906   3.991   0.959   8.821
46670SOL    HW141907   3.908   1.006   8.818
46670SOL    HW241908   4.040   1.001   8.891
46671SOL     OW41909  10.266   0.025  14.762
46671SOL    HW141910  10.239   0.105  14.716
46671SOL    HW241911  10.304  14.851  14.693
46672SOL     OW41912   0.337  12.465  10.169
46672SOL    HW141913   0.252  12.445  10.130
46672SOL    HW241914   0.395  12.397  10.134
46673SOL     OW41915   9.167  14.614   2.460
46673SOL    HW141916   9.248  14.567   2.482
46673SOL    HW241917   9.144  14.581   2.373
46674SOL     OW41918   4.295   1.568  12.415
46674SOL    HW141919   4.252   1.531  12.492
46674SOL    HW241920   4.311   1.494  12.357
46675SOL     OW41921  11.679   0.060   3.884
46675SOL    HW141922  11.643   0.148   3.894
46675SOL    HW241923  11.774   0.073   3.882
46676SOL     OW41924   9.079   2.203   4.007
46676SOL    HW141925   9.060   2.132   4.068
46676SOL    HW241926   9.138   2.261   4.056
46677SOL     OW41927   8.278   6.595   2.788
46677SOL    HW141928   8.219   6.520   2.787
46677SOL    HW241929   8.232   6.663   2.738
46678SOL     OW41930  13.239   0.945   5.224
46678SOL    HW141931  13.219   0.874   5.285
46678SOL    HW241932  13.268   1.017   5.280
46679SOL     OW41933  10.514  11.587  10.559
46679SOL    HW141934  10.489  11.672  10.596
46679SOL    HW241935  10.488  11.593  10.467
46680SOL     OW41936   8.144   9.314   8.653
46680SOL    HW141937   8.084   9.354   8.589
46680SOL    HW241938   8.145   9.222   8.629
46681SOL     OW41939  14.065   7.749   3.356
46681SOL    HW141940  14.043   7.660   3.380
46681SOL    HW241941  14.019   7.804   3.420
46682SOL     OW41942   7.834  10.961   5.213
46682SOL    HW141943   7.758  10.931   5.163
46682SOL    HW241944   7.909  10.932   5.161
46683SOL     OW41945  13.835   7.493  10.509
46683SOL    HW141946  13.771   7.532  10.449
46683SOL    HW241947  13.871   7.568  10.556
46684SOL     OW41948  11.283   4.106   7.178
46684SOL    HW141949  11.268   4.129   7.270
46684SOL    HW241950  11.322   4.184   7.139
46685SOL     OW41951   0.564   3.238   9.016
46685SOL    HW141952   0.522   3.164   8.972
46685SOL    HW241953   0.546   3.224   9.109
46686SOL     OW41954   7.367  13.592  14.319
46686SOL    HW141955   7.272  13.586  14.325
46686SOL    HW241956   7.398  13.504  14.342
46687SOL     OW41957   0.295   3.174  10.568
46687SOL    HW141958   0.236   3.122  10.514
46687SOL    HW241959   0.383   3.146  10.542
46688SOL     OW41960   8.347   5.470  10.723
46688SOL    HW141961   8.310   5.556  10.743
46688SOL    HW241962   8.373   5.475  10.631
46689SOL     OW41963  10.990   7.361   5.602
46689SOL    HW141964  11.008   7.416   5.678
46689SOL    HW241965  11.033   7.405   5.530
46690SOL     OW41966   0.499   9.243   4.977
46690SOL    HW141967   0.496   9.149   4.991
46690SOL    HW241968   0.495   9.282   5.064
46691SOL     OW41969  10.314   5.084   4.950
46691SOL    HW141970  10.284   5.093   4.860
46691SOL    HW241971  10.260   5.014   4.987
46692SOL     OW41972   3.373  14.649   1.674
46692SOL    HW141973   3.296  14.595   1.692
46692SOL    HW241974   3.418  14.656   1.758
46693SOL     OW41975   7.710  12.595   3.718
46693SOL    HW141976   7.738  12.613   3.628
46693SOL    HW241977   7.659  12.672   3.743
46694SOL     OW41978   4.298   4.790   3.561
46694SOL    HW141979   4.323   4.835   3.481
46694SOL    HW241980   4.373   4.802   3.620
46695SOL     OW41981   2.713  14.086  14.864
46695SOL    HW141982   2.698  14.033   0.062
46695SOL    HW241983   2.709  14.024  14.791
46696SOL     OW41984   4.556   0.666  13.497
46696SOL    HW141985   4.511   0.608  13.436
46696SOL    HW241986   4.518   0.647  13.582
46697SOL     OW41987  13.145   1.624   6.670
46697SOL    HW141988  13.132   1.709   6.712
46697SOL    HW241989  13.241   1.614   6.665
46698SOL     OW41990   9.803  11.253   3.833
46698SOL    HW141991   9.790  11.243   3.739
46698SOL    HW241992   9.778  11.168   3.870
46699SOL     OW41993   0.572   3.389   1.123
46699SOL    HW141994   0.634   3.334   1.173
46699SOL    HW241995   0.527   3.441   1.189
46700SOL     OW41996   4.039   4.651   4.469
46700SOL    HW141997   4.081   4.567   4.454
46700SOL    HW241998   4.096   4.696   4.531
46701SOL     OW41999   2.819   2.733   4.234
46701SOL    HW142000   2.730   2.766   4.224
46701SOL    HW242001   2.812   2.639   4.215
46702SOL     OW42002   8.165   2.556   4.100
46702SOL    HW142003   8.203   2.551   4.012
46702SOL    HW242004   8.087   2.500   4.095
46703SOL     OW42005   6.092   3.739  13.172
46703SOL    HW142006   6.178   3.710  13.141
46703SOL    HW242007   6.051   3.660  13.206
46704SOL     OW42008   6.251  10.585   7.050
46704SOL    HW142009   6.176  10.604   7.107
46704SOL    HW242010   6.214  10.536   6.977
46705SOL     OW42011   4.865  13.680   1.162
46705SOL    HW142012   4.791  13.627   1.192
46705SOL    HW242013   4.939  13.620   1.158
46706SOL     OW42014  11.233  14.640  10.570
46706SOL    HW142015  11.240  14.592  10.488
46706SOL    HW242016  11.320  14.634  10.610
46707SOL     OW42017   1.105  12.363  14.268
46707SOL    HW142018   1.123  12.340  14.177
46707SOL    HW242019   1.122  12.457  14.272
46708SOL     OW42020   6.719  13.909   1.316
46708SOL    HW142021   6.638  13.858   1.328
46708SOL    HW242022   6.780  13.848   1.274
46709SOL     OW42023   4.645   3.657   0.441
46709SOL    HW142024   4.550   3.652   0.454
46709SOL    HW242025   4.658   3.739   0.392
46710SOL     OW42026   6.926   9.553   9.427
46710SOL    HW142027   7.020   9.545   9.409
46710SOL    HW242028   6.921   9.564   9.522
46711SOL     OW42029   5.618  11.114   2.867
46711SOL    HW142030   5.588  11.087   2.780
46711SOL    HW242031   5.594  11.206   2.873
46712SOL     OW42032   0.876   5.810  13.465
46712SOL    HW142033   0.886   5.829  13.558
46712SOL    HW242034   0.936   5.738  13.448
46713SOL     OW42035  14.781  13.485   8.223
46713SOL    HW142036  14.861  13.530   8.197
46713SOL    HW242037  14.719  13.556   8.241
46714SOL     OW42038  13.508   3.410   7.277
46714SOL    HW142039  13.450   3.450   7.212
46714SOL    HW242040  13.578   3.474   7.289
46715SOL     OW42041  11.317  10.378   9.966
46715SOL    HW142042  11.294  10.366   9.874
46715SOL    HW242043  11.250  10.437  10.000
46716SOL     OW42044   6.574  10.994   4.621
46716SOL    HW142045   6.659  10.950   4.612
46716SOL    HW242046   6.587  11.080   4.580
46717SOL     OW42047   5.441   9.030   8.090
46717SOL    HW142048   5.371   9.057   8.030
46717SOL    HW242049   5.402   8.961   8.142
46718SOL     OW42050   7.725   2.733  12.650
46718SOL    HW142051   7.725   2.711  12.557
46718SOL    HW242052   7.791   2.802  12.658
46719SOL     OW42053   6.724   5.137   4.872
46719SOL    HW142054   6.759   5.050   4.890
46719SOL    HW242055   6.667   5.125   4.796
46720SOL     OW42056   3.952  11.206   3.444
46720SOL    HW142057   4.004  11.138   3.486
46720SOL    HW242058   4.015  11.253   3.388
46721SOL     OW42059   9.570  10.135  10.024
46721SOL    HW142060   9.501  10.093   9.972
46721SOL    HW242061   9.633  10.166   9.959
46722SOL     OW42062   5.494   1.677  14.181
46722SOL    HW142063   5.559   1.606  14.189
46722SOL    HW242064   5.451   1.661  14.097
46723SOL     OW42065   1.505   4.554   5.216
46723SOL    HW142066   1.555   4.503   5.280
46723SOL    HW242067   1.417   4.516   5.219
46724SOL     OW42068   7.791   7.525   7.704
46724SOL    HW142069   7.820   7.504   7.615
46724SOL    HW242070   7.819   7.450   7.756
46725SOL     OW42071  11.707   5.906   2.653
46725SOL    HW142072  11.773   5.973   2.632
46725SOL    HW242073  11.623   5.952   2.647
46726SOL     OW42074   6.211   5.829   6.257
46726SOL    HW142075   6.237   5.916   6.227
46726SOL    HW242076   6.169   5.789   6.181
46727SOL     OW42077   9.989   6.399  12.199
46727SOL    HW142078  10.071   6.449  12.202
46727SOL    HW242079  10.017   6.308  12.208
46728SOL     OW42080   3.983  13.543   8.567
46728SOL    HW142081   3.988  13.458   8.523
46728SOL    HW242082   3.890  13.555   8.585
46729SOL     OW42083  14.639   6.206   7.631
46729SOL    HW142084  14.731   6.217   7.655
46729SOL    HW242085  14.590   6.241   7.705
46730SOL     OW42086  13.627   3.386   0.424
46730SOL    HW142087  13.610   3.381   0.518
46730SOL    HW242088  13.546   3.421   0.387
46731SOL     OW42089  12.078   1.715   7.592
46731SOL    HW142090  12.160   1.719   7.543
46731SOL    HW242091  12.067   1.623   7.614
46732SOL     OW42092   5.860  11.564  14.176
46732SOL    HW142093   5.790  11.627  14.187
46732SOL    HW242094   5.849  11.502  14.248
46733SOL     OW42095  14.415   2.719   2.261
46733SOL    HW142096  14.475   2.652   2.294
46733SOL    HW242097  14.442   2.799   2.306
46734SOL     OW42098   9.888   9.076   1.974
46734SOL    HW142099   9.817   9.088   1.911
46734SOL    HW242100   9.847   9.086   2.060
46735SOL     OW42101   9.525   2.143   1.114
46735SOL    HW142102   9.442   2.127   1.069
46735SOL    HW242103   9.508   2.221   1.167
46736SOL     OW42104   7.174   9.716   8.605
46736SOL    HW142105   7.190   9.651   8.673
46736SOL    HW242106   7.196   9.671   8.523
46737SOL     OW42107  10.510   0.281  13.706
46737SOL    HW142108  10.551   0.307  13.624
46737SOL    HW242109  10.567   0.212  13.741
46738SOL     OW42110   6.896   1.680   8.467
46738SOL    HW142111   6.964   1.737   8.432
46738SOL    HW242112   6.904   1.689   8.562
46739SOL     OW42113  10.550  10.748   9.674
46739SOL    HW142114  10.503  10.684   9.621
46739SOL    HW242115  10.625  10.773   9.620
46740SOL     OW42116   1.858  10.116   2.351
46740SOL    HW142117   1.768  10.136   2.326
46740SOL    HW242118   1.850  10.040   2.409
46741SOL     OW42119  12.240   6.961  14.738
46741SOL    HW142120  12.184   7.022  14.786
46741SOL    HW242121  12.329   6.995  14.749
46742SOL     OW42122   7.525  13.596  14.871
46742SOL    HW142123   7.567  13.600   0.077
46742SOL    HW242124   7.479  13.513  14.870
46743SOL     OW42125   1.917  14.796  13.321
46743SOL    HW142126   1.924   0.011  13.310
46743SOL    HW242127   1.888  14.785  13.411
46744SOL     OW42128  13.019   9.288  11.003
46744SOL    HW142129  12.929   9.319  10.990
46744SOL    HW242130  13.034   9.297  11.097
46745SOL     OW42131  14.627   4.399   1.698
46745SOL    HW142132  14.638   4.421   1.605
46745SOL    HW242133  14.698   4.446   1.742
46746SOL     OW42134   8.559   7.889  14.780
46746SOL    HW142135   8.486   7.901  14.841
46746SOL    HW242136   8.601   7.975  14.777
46747SOL     OW42137   8.046   1.645   0.110
46747SOL    HW142138   8.098   1.572   0.076
46747SOL    HW242139   8.082   1.662   0.197
46748SOL     OW42140  11.841   4.180   5.347
46748SOL    HW142141  11.870   4.213   5.262
46748SOL    HW242142  11.920   4.143   5.386
46749SOL     OW42143  10.076   7.397   3.879
46749SOL    HW142144  10.141   7.337   3.841
46749SOL    HW242145  10.098   7.401   3.972
46750SOL     OW42146  13.970   2.725   8.061
46750SOL    HW142147  14.011   2.679   8.135
46750SOL    HW242148  13.897   2.669   8.035
46751SOL     OW42149   7.907  10.749   3.922
46751SOL    HW142150   7.936  10.667   3.882
46751SOL    HW242151   7.934  10.742   4.013
46752SOL     OW42152   1.981   2.748   6.739
46752SOL    HW142153   1.979   2.662   6.780
46752SOL    HW242154   1.896   2.787   6.760
46753SOL     OW42155  13.495   4.552   4.333
46753SOL    HW142156  13.568   4.612   4.320
46753SOL    HW242157  13.477   4.517   4.246
46754SOL     OW42158   1.011   2.765  12.828
46754SOL    HW142159   0.968   2.752  12.912
46754SOL    HW242160   0.990   2.686  12.777
46755SOL     OW42161   5.586  11.629   3.878
46755SOL    HW142162   5.649  11.557   3.876
46755SOL    HW242163   5.524  11.609   3.809
46756SOL     OW42164  13.146  12.791  13.937
46756SOL    HW142165  13.181  12.786  14.026
46756SOL    HW242166  13.223  12.798  13.881
46757SOL     OW42167   2.685   7.046   2.610
46757SOL    HW142168   2.678   7.142   2.613
46757SOL    HW242169   2.738   7.029   2.532
46758SOL     OW42170   6.319   4.819  14.821
46758SOL    HW142171   6.239   4.811  14.769
46758SOL    HW242172   6.293   4.794   0.029
46759SOL     OW42173  11.003   7.839   4.459
46759SOL    HW142174  10.951   7.905   4.506
46759SOL    HW242175  11.089   7.879   4.449
46760SOL     OW42176   0.814   1.179   3.070
46760SOL    HW142177   0.862   1.212   3.146
46760SOL    HW242178   0.831   1.085   3.069
46761SOL     OW42179   9.193   9.457   2.259
46761SOL    HW142180   9.147   9.534   2.225
46761SOL    HW242181   9.282   9.466   2.225
46762SOL     OW42182  12.915   8.585   0.350
46762SOL    HW142183  12.933   8.550   0.437
46762SOL    HW242184  12.987   8.552   0.296
46763SOL     OW42185   5.651  11.719  13.369
46763SOL    HW142186   5.738  11.757  13.354
46763SOL    HW242187   5.644  11.649  13.304
46764SOL     OW42188   1.337   5.780  11.888
46764SOL    HW142189   1.365   5.768  11.797
46764SOL    HW242190   1.410   5.746  11.940
46765SOL     OW42191   5.105   9.613  12.841
46765SOL    HW142192   5.020   9.620  12.796
46765SOL    HW242193   5.105   9.525  12.879
46766SOL     OW42194   2.133   6.454   9.887
46766SOL    HW142195   2.174   6.374   9.921
46766SOL    HW242196   2.204   6.517   9.881
46767SOL     OW42197  11.172  13.282   1.629
46767SOL    HW142198  11.213  13.325   1.553
46767SOL    HW242199  11.078  13.294   1.615
46768SOL     OW42200   3.892   7.182   8.995
46768SOL    HW142201   3.910   7.275   9.010
46768SOL    HW242202   3.940   7.137   9.065
46769SOL     OW42203   6.967  12.107  14.798
46769SOL    HW142204   7.003  12.122  14.711
46769SOL    HW242205   6.875  12.132  14.791
46770SOL     OW42206   2.547   2.979   9.955
46770SOL    HW142207   2.567   2.886   9.967
46770SOL    HW242208   2.558   3.017  10.042
46771SOL     OW42209  12.402  13.257   5.806
46771SOL    HW142210  12.388  13.173   5.762
46771SOL    HW242211  12.415  13.234   5.898
46772SOL     OW42212   9.946   9.184  10.640
46772SOL    HW142213  10.035   9.152  10.660
46772SOL    HW242214   9.941   9.179  10.545
46773SOL     OW42215  11.665   7.800   2.761
46773SOL    HW142216  11.636   7.782   2.672
46773SOL    HW242217  11.760   7.789   2.758
46774SOL     OW42218   4.659   5.394  12.086
46774SOL    HW142219   4.707   5.318  12.053
46774SOL    HW242220   4.634   5.369  12.175
46775SOL     OW42221   0.137  10.544   6.513
46775SOL    HW142222   0.195  10.569   6.442
46775SOL    HW242223   0.190  10.554   6.592
46776SOL     OW42224  11.156   9.570   0.652
46776SOL    HW142225  11.248   9.585   0.633
46776SOL    HW242226  11.129   9.504   0.588
46777SOL     OW42227   8.399   9.762   6.775
46777SOL    HW142228   8.353   9.732   6.697
46777SOL    HW242229   8.335   9.815   6.822
46778SOL     OW42230   6.113   9.787   4.193
46778SOL    HW142231   6.183   9.801   4.257
46778SOL    HW242232   6.095   9.693   4.199
46779SOL     OW42233  13.876  13.167   3.440
46779SOL    HW142234  13.800  13.151   3.384
46779SOL    HW242235  13.876  13.262   3.454
46780SOL     OW42236   7.990   4.308   8.389
46780SOL    HW142237   7.916   4.357   8.425
46780SOL    HW242238   7.982   4.319   8.294
46781SOL     OW42239  13.796   6.135   9.216
46781SOL    HW142240  13.758   6.122   9.303
46781SOL    HW242241  13.737   6.087   9.158
46782SOL     OW42242  14.031  10.379   6.633
46782SOL    HW142243  13.983  10.448   6.678
46782SOL    HW242244  14.116  10.376   6.678
46783SOL     OW42245   5.169  14.398  14.744
46783SOL    HW142246   5.187  14.307  14.767
46783SOL    HW242247   5.142  14.395  14.653
46784SOL     OW42248   1.888   1.947   3.054
46784SOL    HW142249   1.843   1.944   3.138
46784SOL    HW242250   1.864   2.032   3.017
46785SOL     OW42251  11.968  14.044   7.683
46785SOL    HW142252  11.971  14.094   7.764
46785SOL    HW242253  11.955  14.109   7.614
46786SOL     OW42254  14.568   0.575   0.154
46786SOL    HW142255  14.606   0.644   0.208
46786SOL    HW242256  14.642   0.517   0.134
46787SOL     OW42257   4.770  13.223  11.909
46787SOL    HW142258   4.787  13.292  11.973
46787SOL    HW242259   4.772  13.267  11.824
46788SOL     OW42260   1.098   9.822  14.650
46788SOL    HW142261   1.035   9.751  14.649
46788SOL    HW242262   1.071   9.880  14.579
46789SOL     OW42263   6.270   8.414  11.107
46789SOL    HW142264   6.360   8.441  11.124
46789SOL    HW242265   6.276   8.319  11.091
46790SOL     OW42266   9.525   9.510   0.802
46790SOL    HW142267   9.537   9.586   0.859
46790SOL    HW242268   9.490   9.442   0.859
46791SOL     OW42269   5.127  10.829   8.469
46791SOL    HW142270   5.181  10.752   8.488
46791SOL    HW242271   5.122  10.875   8.553
46792SOL     OW42272   7.606   7.114   0.086
46792SOL    HW142273   7.567   7.029   0.067
46792SOL    HW242274   7.699   7.104   0.063
46793SOL     OW42275   3.664   8.576  14.683
46793SOL    HW142276   3.636   8.623  14.605
46793SOL    HW242277   3.690   8.490  14.652
46794SOL     OW42278   7.171   1.195   8.145
46794SOL    HW142279   7.131   1.186   8.232
46794SOL    HW242280   7.116   1.142   8.088
46795SOL     OW42281  12.478   4.071   6.519
46795SOL    HW142282  12.541   4.018   6.471
46795SOL    HW242283  12.502   4.162   6.498
46796SOL     OW42284  12.166  10.926   8.987
46796SOL    HW142285  12.193  11.011   9.023
46796SOL    HW242286  12.155  10.942   8.893
46797SOL     OW42287   9.998   7.270  10.575
46797SOL    HW142288   9.980   7.241  10.664
46797SOL    HW242289   9.914   7.300  10.542
46798SOL     OW42290  12.439   2.772   2.822
46798SOL    HW142291  12.505   2.761   2.754
46798SOL    HW242292  12.375   2.833   2.785
46799SOL     OW42293  14.627  12.143   6.314
46799SOL    HW142294  14.631  12.158   6.220
46799SOL    HW242295  14.550  12.086   6.326
46800SOL     OW42296  11.260  13.966   9.545
46800SOL    HW142297  11.337  14.020   9.526
46800SOL    HW242298  11.203  13.976   9.469
46801SOL     OW42299   9.316   1.119   7.886
46801SOL    HW142300   9.229   1.143   7.917
46801SOL    HW242301   9.313   1.024   7.875
46802SOL     OW42302   0.493  14.562   2.906
46802SOL    HW142303   0.569  14.620   2.909
46802SOL    HW242304   0.437  14.600   2.838
46803SOL     OW42305  12.625   1.233   5.921
46803SOL    HW142306  12.574   1.193   5.992
46803SOL    HW242307  12.576   1.311   5.897
46804SOL     OW42308  14.874   1.709  12.661
46804SOL    HW142309  14.787   1.748  12.652
46804SOL    HW242310   0.030   1.710  12.573
46805SOL     OW42311   1.063   9.338   6.444
46805SOL    HW142312   1.089   9.248   6.462
46805SOL    HW242313   1.144   9.389   6.449
46806SOL     OW42314   8.470   2.306  14.335
46806SOL    HW142315   8.440   2.279  14.422
46806SOL    HW242316   8.472   2.401  14.339
46807SOL     OW42317   4.311  13.641  13.457
46807SOL    HW142318   4.273  13.716  13.502
46807SOL    HW242319   4.397  13.630  13.497
46808SOL     OW42320   9.177  14.873   2.242
46808SOL    HW142321   9.159  14.858   2.335
46808SOL    HW242322   9.093  14.863   2.199
46809SOL     OW42323  10.594   3.494   7.198
46809SOL    HW142324  10.502   3.519   7.201
46809SOL    HW242325  10.633   3.536   7.275
46810SOL     OW42326  11.070  10.627   7.956
46810SOL    HW142327  11.042  10.545   7.994
46810SOL    HW242328  11.164  10.632   7.976
46811SOL     OW42329   0.195   5.796  12.882
46811SOL    HW142330   0.247   5.851  12.941
46811SOL    HW242331   0.117   5.849  12.862
46812SOL     OW42332   2.426  11.100   3.717
46812SOL    HW142333   2.518  11.075   3.709
46812SOL    HW242334   2.413  11.167   3.650
46813SOL     OW42335   5.281   8.787   5.125
46813SOL    HW142336   5.268   8.705   5.077
46813SOL    HW242337   5.311   8.760   5.211
46814SOL     OW42338   4.133  13.195  10.050
46814SOL    HW142339   4.151  13.195   9.956
46814SOL    HW242340   4.219  13.198  10.091
46815SOL     OW42341  11.779   6.393   4.334
46815SOL    HW142342  11.850   6.440   4.378
46815SOL    HW242343  11.705   6.399   4.394
46816SOL     OW42344  10.270   6.547  14.186
46816SOL    HW142345  10.265   6.501  14.102
46816SOL    HW242346  10.227   6.489  14.248
46817SOL     OW42347   9.157   9.229  11.495
46817SOL    HW142348   9.207   9.208  11.574
46817SOL    HW242349   9.066   9.235  11.525
46818SOL     OW42350   0.079   7.692   1.494
46818SOL    HW142351   0.167   7.707   1.460
46818SOL    HW242352   0.090   7.688   1.589
46819SOL     OW42353  11.378  12.808   7.119
46819SOL    HW142354  11.334  12.752   7.182
46819SOL    HW242355  11.387  12.892   7.164
46820SOL     OW42356   1.800   4.550  11.315
46820SOL    HW142357   1.717   4.550  11.268
46820SOL    HW242358   1.786   4.608  11.390
46821SOL     OW42359   4.760   9.690   1.415
46821SOL    HW142360   4.728   9.723   1.499
46821SOL    HW242361   4.810   9.612   1.437
46822SOL     OW42362   6.223  13.063  14.160
46822SOL    HW142363   6.194  13.108  14.240
46822SOL    HW242364   6.319  13.063  14.166
46823SOL     OW42365   7.817  13.624   4.923
46823SOL    HW142366   7.744  13.564   4.906
46823SOL    HW242367   7.894  13.567   4.931
46824SOL     OW42368   3.357   6.695   8.473
46824SOL    HW142369   3.270   6.671   8.504
46824SOL    HW242370   3.403   6.611   8.466
46825SOL     OW42371  12.971   1.358   1.675
46825SOL    HW142372  12.950   1.352   1.768
46825SOL    HW242373  12.962   1.451   1.655
46826SOL     OW42374   6.106  13.388  10.067
46826SOL    HW142375   6.089  13.301  10.032
46826SOL    HW242376   6.020  13.420  10.094
46827SOL     OW42377   6.035   2.881  11.289
46827SOL    HW142378   6.006   2.948  11.227
46827SOL    HW242379   5.963   2.819  11.293
46828SOL     OW42380   7.760  12.577   0.493
46828SOL    HW142381   7.744  12.501   0.549
46828SOL    HW242382   7.759  12.652   0.553
46829SOL     OW42383  14.195  11.900   7.805
46829SOL    HW142384  14.152  11.838   7.864
46829SOL    HW242385  14.252  11.846   7.751
46830SOL     OW42386   5.257  11.822   2.171
46830SOL    HW142387   5.190  11.879   2.134
46830SOL    HW242388   5.232  11.734   2.143
46831SOL     OW42389   0.092   8.627   1.827
46831SOL    HW142390   0.058   8.687   1.760
46831SOL    HW242391   0.017   8.610   1.884
46832SOL     OW42392  12.814  10.538   2.757
46832SOL    HW142393  12.901  10.542   2.795
46832SOL    HW242394  12.765  10.606   2.803
46833SOL     OW42395   2.973   4.500   6.725
46833SOL    HW142396   2.994   4.592   6.743
46833SOL    HW242397   2.931   4.501   6.639
46834SOL     OW42398   0.279  10.509   0.773
46834SOL    HW142399   0.278  10.604   0.781
46834SOL    HW242400   0.366  10.483   0.801
46835SOL     OW42401   1.755   3.421   5.148
46835SOL    HW142402   1.798   3.410   5.063
46835SOL    HW242403   1.707   3.339   5.162
46836SOL     OW42404   3.831   2.200   0.600
46836SOL    HW142405   3.815   2.122   0.547
46836SOL    HW242406   3.888   2.170   0.671
46837SOL     OW42407  13.089   1.424   5.135
46837SOL    HW142408  13.100   1.497   5.196
46837SOL    HW242409  13.087   1.347   5.191
46838SOL     OW42410   3.997  13.589   0.201
46838SOL    HW142411   3.988  13.602   0.295
46838SOL    HW242412   4.089  13.610   0.182
46839SOL     OW42413   6.777   8.467   1.098
46839SOL    HW142414   6.793   8.543   1.042
46839SOL    HW242415   6.822   8.488   1.180
46840SOL     OW42416   0.613  10.754   9.673
46840SOL    HW142417   0.701  10.722   9.654
46840SOL    HW242418   0.593  10.719   9.759
46841SOL     OW42419  11.384   1.210   6.255
46841SOL    HW142420  11.346   1.194   6.341
46841SOL    HW242421  11.388   1.123   6.215
46842SOL     OW42422   4.498   4.505   2.464
46842SOL    HW142423   4.486   4.585   2.413
46842SOL    HW242424   4.422   4.451   2.443
46843SOL     OW42425   7.742   9.669  10.501
46843SOL    HW142426   7.667   9.613  10.519
46843SOL    HW242427   7.719   9.754  10.540
46844SOL     OW42428   8.565   1.086  11.751
46844SOL    HW142429   8.528   1.145  11.816
46844SOL    HW242430   8.499   1.017  11.741
46845SOL     OW42431  14.142   9.486  11.104
46845SOL    HW142432  14.177   9.413  11.054
46845SOL    HW242433  14.099   9.445  11.179
46846SOL     OW42434   3.426   8.428   7.145
46846SOL    HW142435   3.481   8.360   7.183
46846SOL    HW242436   3.341   8.385   7.132
46847SOL     OW42437   8.384  13.611  11.229
46847SOL    HW142438   8.389  13.588  11.322
46847SOL    HW242439   8.414  13.702  11.226
46848SOL     OW42440  11.406   4.728  12.578
46848SOL    HW142441  11.451   4.707  12.497
46848SOL    HW242442  11.431   4.658  12.638
46849SOL     OW42443   7.096   2.019   5.058
46849SOL    HW142444   7.002   2.034   5.063
46849SOL    HW242445   7.135   2.099   5.095
46850SOL     OW42446  10.223   8.502  12.270
46850SOL    HW142447  10.295   8.439  12.270
46850SOL    HW242448  10.260   8.582  12.308
46851SOL     OW42449   8.184   8.288   0.092
46851SOL    HW142450   8.194   8.192   0.092
46851SOL    HW242451   8.249   8.318   0.028
46852SOL     OW42452   1.944   2.493  11.884
46852SOL    HW142453   2.008   2.436  11.841
46852SOL    HW242454   1.906   2.440  11.953
46853SOL     OW42455   9.218   2.672   0.900
46853SOL    HW142456   9.305   2.632   0.891
46853SOL    HW242457   9.210   2.691   0.993
46854SOL     OW42458  14.521  10.691   0.235
46854SOL    HW142459  14.543  10.599   0.223
46854SOL    HW242460  14.570  10.737   0.166
46855SOL     OW42461   1.704  13.299   1.269
46855SOL    HW142462   1.699  13.355   1.346
46855SOL    HW242463   1.798  13.296   1.247
46856SOL     OW42464   1.912   7.016  13.407
46856SOL    HW142465   1.854   7.084  13.372
46856SOL    HW242466   1.947   7.053  13.488
46857SOL     OW42467  10.032   8.492   3.766
46857SOL    HW142468  10.025   8.406   3.726
46857SOL    HW242469  10.126   8.507   3.774
46858SOL     OW42470  12.861   9.112   8.630
46858SOL    HW142471  12.826   9.055   8.699
46858SOL    HW242472  12.956   9.099   8.634
46859SOL     OW42473   8.068   6.440   2.864
46859SOL    HW142474   8.084   6.412   2.954
46859SOL    HW242475   7.984   6.400   2.841
46860SOL     OW42476   5.230   3.353   0.082
46860SOL    HW142477   5.274   3.408   0.017
46860SOL    HW242478   5.301   3.303   0.123
46861SOL     OW42479   0.369   7.712   9.802
46861SOL    HW142480   0.292   7.676   9.758
46861SOL    HW242481   0.443   7.685   9.747
46862SOL     OW42482  12.162   9.618   5.358
46862SOL    HW142483  12.089   9.607   5.297
46862SOL    HW242484  12.147   9.552   5.426
46863SOL     OW42485   6.591   7.588   9.422
46863SOL    HW142486   6.545   7.586   9.338
46863SOL    HW242487   6.578   7.677   9.454
46864SOL     OW42488   7.380   5.202   8.260
46864SOL    HW142489   7.313   5.177   8.323
46864SOL    HW242490   7.402   5.293   8.282
46865SOL     OW42491  14.452   8.828   4.780
46865SOL    HW142492  14.399   8.760   4.738
46865SOL    HW242493  14.465   8.797   4.869
46866SOL     OW42494  13.250   1.903   4.516
46866SOL    HW142495  13.341   1.932   4.519
46866SOL    HW242496  13.254   1.808   4.529
46867SOL     OW42497   9.583   3.253   5.764
46867SOL    HW142498   9.633   3.276   5.686
46867SOL    HW242499   9.626   3.174   5.797
46868SOL     OW42500   4.504  12.842   4.603
46868SOL    HW142501   4.458  12.765   4.636
46868SOL    HW242502   4.571  12.806   4.545
46869SOL     OW42503  10.361   3.886  10.917
46869SOL    HW142504  10.326   3.951  10.857
46869SOL    HW242505  10.291   3.821  10.926
46870SOL     OW42506  14.460   3.985   9.064
46870SOL    HW142507  14.415   3.963   8.983
46870SOL    HW242508  14.441   4.078   9.077
46871SOL     OW42509   4.234   0.657   0.969
46871SOL    HW142510   4.209   0.675   0.878
46871SOL    HW242511   4.222   0.563   0.979
46872SOL     OW42512   2.547  12.436  13.184
46872SOL    HW142513   2.529  12.457  13.092
46872SOL    HW242514   2.463  12.407  13.219
46873SOL     OW42515  11.575   1.582   0.539
46873SOL    HW142516  11.669   1.570   0.554
46873SOL    HW242517  11.535   1.564   0.623
46874SOL     OW42518   9.402   4.039   7.566
46874SOL    HW142519   9.360   4.059   7.482
46874SOL    HW242520   9.492   4.070   7.557
46875SOL     OW42521  10.664  10.318   2.282
46875SOL    HW142522  10.583  10.310   2.231
46875SOL    HW242523  10.643  10.383   2.350
46876SOL     OW42524  10.259  12.563   2.772
46876SOL    HW142525  10.341  12.521   2.797
46876SOL    HW242526  10.248  12.634   2.835
46877SOL     OW42527   1.162   5.342  11.492
46877SOL    HW142528   1.193   5.349  11.401
46877SOL    HW242529   1.108   5.419  11.505
46878SOL     OW42530   2.622   7.063   7.664
46878SOL    HW142531   2.631   7.091   7.573
46878SOL    HW242532   2.616   7.144   7.714
46879SOL     OW42533  12.508   9.172  11.978
46879SOL    HW142534  12.461   9.105  12.026
46879SOL    HW242535  12.530   9.238  12.043
46880SOL     OW42536   7.563   1.119   9.930
46880SOL    HW142537   7.567   1.095  10.022
46880SOL    HW242538   7.569   1.215   9.929
46881SOL     OW42539  11.902  11.044   1.741
46881SOL    HW142540  11.862  11.000   1.816
46881SOL    HW242541  11.849  11.016   1.666
46882SOL     OW42542   1.927  12.717   6.570
46882SOL    HW142543   2.004  12.677   6.530
46882SOL    HW242544   1.855  12.699   6.510
46883SOL     OW42545  10.457  11.972  12.282
46883SOL    HW142546  10.529  11.911  12.300
46883SOL    HW242547  10.470  12.044  12.344
46884SOL     OW42548  13.427   5.221   6.481
46884SOL    HW142549  13.498   5.162   6.455
46884SOL    HW242550  13.395   5.257   6.398
46885SOL     OW42551   7.001   2.823   4.767
46885SOL    HW142552   7.014   2.812   4.673
46885SOL    HW242553   7.064   2.890   4.793
46886SOL     OW42554   9.199   7.804   3.371
46886SOL    HW142555   9.143   7.818   3.448
46886SOL    HW242556   9.286   7.832   3.399
46887SOL     OW42557   8.971  13.154   6.048
46887SOL    HW142558   8.920  13.217   5.997
46887SOL    HW242559   8.933  13.069   6.025
46888SOL     OW42560   6.926   3.997   8.781
46888SOL    HW142561   6.927   3.902   8.793
46888SOL    HW242562   7.013   4.017   8.744
46889SOL     OW42563   9.658   3.730   4.537
46889SOL    HW142564   9.634   3.780   4.458
46889SOL    HW242565   9.751   3.711   4.526
46890SOL     OW42566   5.895   8.085  11.251
46890SOL    HW142567   5.875   8.132  11.170
46890SOL    HW242568   5.812   8.046  11.278
46891SOL     OW42569   0.318   9.648  13.529
46891SOL    HW142570   0.395   9.628  13.583
46891SOL    HW242571   0.321   9.744  13.518
46892SOL     OW42572   8.607   7.437  13.297
46892SOL    HW142573   8.554   7.464  13.372
46892SOL    HW242574   8.561   7.360  13.262
46893SOL     OW42575   0.379   2.517   6.849
46893SOL    HW142576   0.288   2.488   6.853
46893SOL    HW242577   0.430   2.436   6.856
46894SOL     OW42578   3.611   4.742  12.778
46894SOL    HW142579   3.665   4.745  12.699
46894SOL    HW242580   3.527   4.707  12.747
46895SOL     OW42581  10.470  13.154  12.903
46895SOL    HW142582  10.440  13.207  12.828
46895SOL    HW242583  10.533  13.092  12.864
46896SOL     OW42584  10.963   7.763  13.476
46896SOL    HW142585  11.004   7.849  13.479
46896SOL    HW242586  10.981   7.725  13.562
46897SOL     OW42587  12.489  10.385  14.377
46897SOL    HW142588  12.558  10.442  14.412
46897SOL    HW242589  12.526  10.347  14.297
46898SOL     OW42590  14.724   6.142  13.556
46898SOL    HW142591  14.696   6.078  13.491
46898SOL    HW242592  14.707   6.099  13.640
46899SOL     OW42593   7.812   7.104  12.442
46899SOL    HW142594   7.877   7.101  12.512
46899SOL    HW242595   7.822   7.019  12.398
46900SOL     OW42596   6.493  13.334   4.930
46900SOL    HW142597   6.569  13.388   4.908
46900SOL    HW242598   6.517  13.246   4.902
46901SOL     OW42599   4.203   5.638   5.994
46901SOL    HW142600   4.235   5.650   5.904
46901SOL    HW242601   4.232   5.549   6.017
46902SOL     OW42602   7.906  12.866   9.123
46902SOL    HW142603   7.914  12.779   9.164
46902SOL    HW242604   7.995  12.900   9.124
46903SOL     OW42605   7.854  12.259   4.006
46903SOL    HW142606   7.937  12.224   3.973
46903SOL    HW242607   7.794  12.184   4.004
46904SOL     OW42608  10.839   2.056  13.461
46904SOL    HW142609  10.795   2.138  13.482
46904SOL    HW242610  10.814   1.996  13.532
46905SOL     OW42611  12.243   9.462  11.757
46905SOL    HW142612  12.325   9.512  11.755
46905SOL    HW242613  12.214   9.467  11.848
46906SOL     OW42614   9.985  13.619   0.041
46906SOL    HW142615   9.921  13.633  14.852
46906SOL    HW242616   9.941  13.648   0.121
46907SOL     OW42617   5.546   7.247  13.433
46907SOL    HW142618   5.521   7.299  13.508
46907SOL    HW242619   5.607   7.302  13.384
46908SOL     OW42620  12.836   2.203   5.359
46908SOL    HW142621  12.838   2.179   5.451
46908SOL    HW242622  12.904   2.270   5.350
46909SOL     OW42623   8.103   6.824   9.866
46909SOL    HW142624   8.098   6.846   9.773
46909SOL    HW242625   8.197   6.808   9.880
46910SOL     OW42626  10.330  10.198   5.125
46910SOL    HW142627  10.255  10.139   5.121
46910SOL    HW242628  10.349  10.219   5.034
46911SOL     OW42629   5.918   2.192  11.838
46911SOL    HW142630   5.896   2.245  11.762
46911SOL    HW242631   5.843   2.133  11.849
46912SOL     OW42632  13.928   5.035   5.688
46912SOL    HW142633  13.920   4.948   5.726
46912SOL    HW242634  13.996   5.025   5.621
46913SOL     OW42635  13.720   9.213   1.183
46913SOL    HW142636  13.637   9.166   1.191
46913SOL    HW242637  13.698   9.295   1.141
46914SOL     OW42638   9.722   9.757   8.551
46914SOL    HW142639   9.814   9.763   8.528
46914SOL    HW242640   9.676   9.750   8.467
46915SOL     OW42641  11.964   2.146  11.086
46915SOL    HW142642  11.992   2.237  11.098
46915SOL    HW242643  11.985   2.126  10.995
46916SOL     OW42644   9.041  10.760  11.870
46916SOL    HW142645   8.990  10.707  11.809
46916SOL    HW242646   9.132  10.737  11.852
46917SOL     OW42647   6.538  12.305  11.481
46917SOL    HW142648   6.546  12.366  11.554
46917SOL    HW242649   6.574  12.223  11.514
46918SOL     OW42650  11.398   6.059   5.278
46918SOL    HW142651  11.427   6.016   5.359
46918SOL    HW242652  11.417   5.995   5.209
46919SOL     OW42653   0.349   2.326   2.756
46919SOL    HW142654   0.444   2.331   2.767
46919SOL    HW242655   0.317   2.292   2.840
46920SOL     OW42656  13.526  14.195   5.172
46920SOL    HW142657  13.577  14.250   5.112
46920SOL    HW242658  13.591  14.162   5.234
46921SOL     OW42659   9.782   3.553   8.681
46921SOL    HW142660   9.697   3.579   8.715
46921SOL    HW242661   9.765   3.527   8.590
46922SOL     OW42662   7.292   9.449  10.475
46922SOL    HW142663   7.343   9.375  10.445
46922SOL    HW242664   7.357   9.513  10.505
46923SOL     OW42665   6.532   5.121  10.518
46923SOL    HW142666   6.498   5.210  10.512
46923SOL    HW242667   6.489   5.083  10.595
46924SOL     OW42668   5.824   8.273  10.841
46924SOL    HW142669   5.746   8.326  10.862
46924SOL    HW242670   5.891   8.305  10.901
46925SOL     OW42671   0.024   0.989   0.038
46925SOL    HW142672  14.878   1.027  14.834
46925SOL    HW242673   0.081   0.916   0.014
46926SOL     OW42674   7.815   3.797   8.827
46926SOL    HW142675   7.736   3.830   8.785
46926SOL    HW242676   7.884   3.857   8.798
46927SOL     OW42677  12.767  12.092  12.548
46927SOL    HW142678  12.740  12.175  12.586
46927SOL    HW242679  12.841  12.114  12.491
46928SOL     OW42680   2.629   7.023  11.078
46928SOL    HW142681   2.694   6.960  11.047
46928SOL    HW242682   2.676   7.076  11.142
46929SOL     OW42683  11.386  14.803   4.787
46929SOL    HW142684  11.394  14.874   4.851
46929SOL    HW242685  11.467  14.808   4.735
46930SOL     OW42686   7.166   7.797  10.144
46930SOL    HW142687   7.202   7.717  10.182
46930SOL    HW242688   7.220   7.868  10.180
46931SOL     OW42689  12.540   8.300   1.525
46931SOL    HW142690  12.508   8.239   1.458
46931SOL    HW242691  12.611   8.253   1.568
46932SOL     OW42692  11.950   2.502  10.884
46932SOL    HW142693  11.900   2.420  10.881
46932SOL    HW242694  11.898   2.563  10.832
46933SOL     OW42695   5.576   9.712   4.546
46933SOL    HW142696   5.554   9.700   4.453
46933SOL    HW242697   5.598   9.624   4.577
46934SOL     OW42698   6.849   0.643   9.269
46934SOL    HW142699   6.796   0.581   9.218
46934SOL    HW242700   6.846   0.724   9.219
46935SOL     OW42701   9.747  12.672  13.412
46935SOL    HW142702   9.715  12.643  13.497
46935SOL    HW242703   9.712  12.760  13.401
46936SOL     OW42704   8.199   1.512   4.503
46936SOL    HW142705   8.164   1.588   4.457
46936SOL    HW242706   8.138   1.497   4.575
46937SOL     OW42707   7.114  10.486   6.364
46937SOL    HW142708   7.120  10.511   6.272
46937SOL    HW242709   7.047  10.544   6.401
46938SOL     OW42710   9.629   8.349   4.468
46938SOL    HW142711   9.581   8.325   4.548
46938SOL    HW242712   9.577   8.419   4.429
46939SOL     OW42713   2.268   5.046   3.126
46939SOL    HW142714   2.178   5.075   3.112
46939SOL    HW242715   2.273   5.028   3.219
46940SOL     OW42716  12.351  14.537   5.904
46940SOL    HW142717  12.408  14.488   5.845
46940SOL    HW242718  12.303  14.470   5.953
46941SOL     OW42719   9.212   3.356   6.998
46941SOL    HW142720   9.154   3.432   6.999
46941SOL    HW242721   9.284   3.380   7.056
46942SOL     OW42722   5.249   4.068   7.584
46942SOL    HW142723   5.236   3.975   7.602
46942SOL    HW242724   5.319   4.070   7.519
46943SOL     OW42725  10.788   7.908   3.878
46943SOL    HW142726  10.862   7.966   3.897
46943SOL    HW242727  10.736   7.956   3.814
46944SOL     OW42728   9.990  11.305   0.305
46944SOL    HW142729   9.985  11.338   0.395
46944SOL    HW242730  10.031  11.377   0.256
46945SOL     OW42731  11.019   3.217  13.114
46945SOL    HW142732  11.064   3.153  13.060
46945SOL    HW242733  11.075   3.295  13.111
46946SOL     OW42734  13.171  10.598   0.182
46946SOL    HW142735  13.213  10.629   0.102
46946SOL    HW242736  13.108  10.532   0.152
46947SOL     OW42737   6.343   9.627  12.374
46947SOL    HW142738   6.401   9.561  12.335
46947SOL    HW242739   6.282   9.650  12.305
46948SOL     OW42740   2.386  14.855   4.627
46948SOL    HW142741   2.389  14.859   4.532
46948SOL    HW242742   2.466   0.019   4.656
46949SOL     OW42743  10.544  10.393   0.595
46949SOL    HW142744  10.562  10.333   0.667
46949SOL    HW242745  10.461  10.363   0.558
46950SOL     OW42746   2.226   3.763   9.457
46950SOL    HW142747   2.299   3.811   9.497
46950SOL    HW242748   2.253   3.671   9.461
46951SOL     OW42749   7.839   3.996   5.094
46951SOL    HW142750   7.869   3.952   5.174
46951SOL    HW242751   7.745   3.975   5.089
46952SOL     OW42752  10.759   6.506   2.864
46952SOL    HW142753  10.766   6.414   2.890
46952SOL    HW242754  10.683   6.539   2.913
46953SOL     OW42755   6.684   6.907   6.519
46953SOL    HW142756   6.705   6.974   6.454
46953SOL    HW242757   6.607   6.941   6.565
46954SOL     OW42758   9.352  14.061   3.481
46954SOL    HW142759   9.368  14.101   3.567
46954SOL    HW242760   9.387  13.973   3.488
46955SOL     OW42761   5.369  12.994  13.450
46955SOL    HW142762   5.433  13.043  13.501
46955SOL    HW242763   5.295  12.981  13.509
46956SOL     OW42764   0.887  10.515  13.483
46956SOL    HW142765   0.875  10.596  13.533
46956SOL    HW242766   0.920  10.544  13.398
46957SOL     OW42767   2.430   8.453   6.849
46957SOL    HW142768   2.456   8.374   6.801
46957SOL    HW242769   2.508   8.477   6.899
46958SOL     OW42770   4.599   4.060   5.420
46958SOL    HW142771   4.643   4.050   5.504
46958SOL    HW242772   4.617   3.978   5.374
46959SOL     OW42773   3.404   4.876  10.018
46959SOL    HW142774   3.337   4.943  10.031
46959SOL    HW242775   3.358   4.804   9.974
46960SOL     OW42776  12.946   4.857   6.929
46960SOL    HW142777  12.996   4.788   6.884
46960SOL    HW242778  13.008   4.929   6.939
46961SOL     OW42779   8.307   9.638   8.846
46961SOL    HW142780   8.319   9.732   8.829
46961SOL    HW242781   8.289   9.632   8.940
46962SOL     OW42782  10.384  13.456   0.370
46962SOL    HW142783  10.315  13.423   0.428
46962SOL    HW242784  10.437  13.513   0.425
46963SOL     OW42785   9.171   7.792  10.724
46963SOL    HW142786   9.213   7.716  10.682
46963SOL    HW242787   9.080   7.765  10.735
46964SOL     OW42788   7.493   0.656   6.761
46964SOL    HW142789   7.536   0.732   6.800
46964SOL    HW242790   7.559   0.619   6.702
46965SOL     OW42791   5.119  14.694   9.962
46965SOL    HW142792   5.031  14.656   9.964
46965SOL    HW242793   5.170  14.634   9.907
46966SOL     OW42794   6.966  10.531  11.018
46966SOL    HW142795   7.020  10.558  10.944
46966SOL    HW242796   6.878  10.563  10.997
46967SOL     OW42797   3.778   8.101   2.908
46967SOL    HW142798   3.759   8.135   2.995
46967SOL    HW242799   3.823   8.173   2.863
46968SOL     OW42800  13.294   7.663  12.455
46968SOL    HW142801  13.231   7.601  12.490
46968SOL    HW242802  13.375   7.612  12.445
46969SOL     OW42803  13.206   7.510  14.177
46969SOL    HW142804  13.265   7.438  14.155
46969SOL    HW242805  13.164   7.533  14.094
46970SOL     OW42806   3.605   0.206   7.759
46970SOL    HW142807   3.611   0.117   7.725
46970SOL    HW242808   3.581   0.259   7.684
46971SOL     OW42809  11.846   1.873  11.805
46971SOL    HW142810  11.867   1.965  11.820
46971SOL    HW242811  11.792   1.848  11.880
46972SOL     OW42812  10.835  14.105  11.203
46972SOL    HW142813  10.871  14.173  11.147
46972SOL    HW242814  10.830  14.027  11.148
46973SOL     OW42815   2.947   7.497   6.350
46973SOL    HW142816   3.040   7.484   6.368
46973SOL    HW242817   2.926   7.580   6.392
46974SOL     OW42818   9.328   2.202   7.903
46974SOL    HW142819   9.409   2.180   7.857
46974SOL    HW242820   9.348   2.283   7.950
46975SOL     OW42821   0.278   2.790  11.204
46975SOL    HW142822   0.293   2.841  11.284
46975SOL    HW242823   0.351   2.729  11.200
46976SOL     OW42824   8.292   9.346  13.332
46976SOL    HW142825   8.226   9.415  13.325
46976SOL    HW242826   8.268   9.297  13.410
46977SOL     OW42827  12.409   6.349   3.957
46977SOL    HW142828  12.425   6.310   3.872
46977SOL    HW242829  12.359   6.429   3.938
46978SOL     OW42830   6.848   0.686  13.170
46978SOL    HW142831   6.861   0.610  13.113
46978SOL    HW242832   6.926   0.688  13.226
46979SOL     OW42833   0.274   9.677   3.085
46979SOL    HW142834   0.181   9.655   3.084
46979SOL    HW242835   0.297   9.688   2.992
46980SOL     OW42836  14.371  13.848  13.575
46980SOL    HW142837  14.454  13.800  13.564
46980SOL    HW242838  14.379  13.890  13.661
46981SOL     OW42839   8.544   3.036  13.913
46981SOL    HW142840   8.534   2.941  13.906
46981SOL    HW242841   8.519   3.069  13.827
46982SOL     OW42842   8.653   2.183   1.244
46982SOL    HW142843   8.611   2.268   1.250
46982SOL    HW242844   8.612   2.141   1.169
46983SOL     OW42845  14.686   5.337   1.362
46983SOL    HW142846  14.741   5.317   1.437
46983SOL    HW242847  14.736   5.403   1.312
46984SOL     OW42848   1.696  14.338   4.038
46984SOL    HW142849   1.672  14.250   4.065
46984SOL    HW242850   1.729  14.328   3.949
46985SOL     OW42851   0.489   8.097  12.662
46985SOL    HW142852   0.497   8.148  12.742
46985SOL    HW242853   0.415   8.135  12.616
46986SOL     OW42854   4.002  11.310   5.605
46986SOL    HW142855   3.994  11.303   5.700
46986SOL    HW242856   4.082  11.359   5.590
46987SOL     OW42857  10.344   8.816   0.007
46987SOL    HW142858  10.312   8.726   0.013
46987SOL    HW242859  10.426   8.816   0.056
46988SOL     OW42860   4.368  12.326  10.366
46988SOL    HW142861   4.300  12.268  10.401
46988SOL    HW242862   4.323  12.380  10.302
46989SOL     OW42863   1.108   9.495  11.638
46989SOL    HW142864   1.080   9.524  11.551
46989SOL    HW242865   1.039   9.436  11.668
46990SOL     OW42866   5.666   7.433   8.795
46990SOL    HW142867   5.597   7.380   8.754
46990SOL    HW242868   5.742   7.421   8.739
46991SOL     OW42869   2.423  12.171   3.143
46991SOL    HW142870   2.482  12.160   3.218
46991SOL    HW242871   2.357  12.102   3.154
46992SOL     OW42872   8.217  13.538   2.420
46992SOL    HW142873   8.198  13.632   2.428
46992SOL    HW242874   8.229  13.508   2.510
46993SOL     OW42875   3.174   2.599  11.147
46993SOL    HW142876   3.184   2.693  11.134
46993SOL    HW242877   3.082   2.581  11.128
46994SOL     OW42878  10.558  13.543   9.519
46994SOL    HW142879  10.531  13.470   9.464
46994SOL    HW242880  10.602  13.503   9.593
46995SOL     OW42881   7.295   4.669   6.065
46995SOL    HW142882   7.273   4.640   5.977
46995SOL    HW242883   7.387   4.696   6.059
46996SOL     OW42884   5.713   2.044   2.409
46996SOL    HW142885   5.793   2.060   2.359
46996SOL    HW242886   5.729   2.088   2.493
46997SOL     OW42887   7.716   0.624   8.827
46997SOL    HW142888   7.765   0.684   8.883
46997SOL    HW242889   7.761   0.628   8.743
46998SOL     OW42890   1.968   7.537   8.664
46998SOL    HW142891   1.896   7.496   8.711
46998SOL    HW242892   2.012   7.590   8.730
46999SOL     OW42893  14.692  12.657   8.955
46999SOL    HW142894  14.641  12.643   9.035
46999SOL    HW242895  14.663  12.589   8.895
47000SOL     OW42896  10.659  12.289   9.873
47000SOL    HW142897  10.606  12.369   9.876
47000SOL    HW242898  10.656  12.255   9.962
47001SOL     OW42899  11.912  14.044  10.713
47001SOL    HW142900  11.944  14.122  10.759
47001SOL    HW242901  11.920  13.974  10.777
47002SOL     OW42902   2.556   5.759  12.305
47002SOL    HW142903   2.501   5.816  12.251
47002SOL    HW242904   2.537   5.670  12.272
47003SOL     OW42905   0.617  13.524  12.327
47003SOL    HW142906   0.527  13.528  12.295
47003SOL    HW242907   0.609  13.486  12.414
47004SOL     OW42908   0.771   0.514   0.398
47004SOL    HW142909   0.689   0.512   0.449
47004SOL    HW242910   0.839   0.533   0.463
47005SOL     OW42911   2.777   8.498  12.656
47005SOL    HW142912   2.826   8.579  12.646
47005SOL    HW242913   2.761   8.491  12.750
47006SOL     OW42914  10.458   3.384   8.429
47006SOL    HW142915  10.520   3.453   8.454
47006SOL    HW242916  10.511   3.305   8.425
47007SOL     OW42917   1.362  13.517  12.990
47007SOL    HW142918   1.395  13.431  12.966
47007SOL    HW242919   1.370  13.521  13.085
47008SOL     OW42920   7.387   1.099   9.689
47008SOL    HW142921   7.459   1.128   9.746
47008SOL    HW242922   7.328   1.174   9.685
47009SOL     OW42923   1.508   9.095  12.354
47009SOL    HW142924   1.579   9.092  12.290
47009SOL    HW242925   1.429   9.072  12.304
47010SOL     OW42926   8.182   9.887   6.928
47010SOL    HW142927   8.153   9.960   6.984
47010SOL    HW242928   8.131   9.897   6.848
47011SOL     OW42929  10.908   0.543   9.372
47011SOL    HW142930  10.879   0.500   9.452
47011SOL    HW242931  10.958   0.477   9.324
47012SOL     OW42932  14.170   8.146   9.390
47012SOL    HW142933  14.253   8.106   9.364
47012SOL    HW242934  14.180   8.163   9.483
47013SOL     OW42935  11.847   3.124   0.572
47013SOL    HW142936  11.847   3.166   0.658
47013SOL    HW242937  11.906   3.177   0.519
47014SOL     OW42938   3.378   7.626  13.864
47014SOL    HW142939   3.369   7.619  13.769
47014SOL    HW242940   3.466   7.595  13.882
47015SOL     OW42941   3.043  14.328   9.426
47015SOL    HW142942   3.067  14.387   9.497
47015SOL    HW242943   3.046  14.383   9.347
47016SOL     OW42944  13.169   7.602   4.098
47016SOL    HW142945  13.242   7.663   4.103
47016SOL    HW242946  13.092   7.655   4.120
47017SOL     OW42947  10.065   6.951   3.030
47017SOL    HW142948  10.137   7.002   2.991
47017SOL    HW242949   9.994   6.958   2.967
47018SOL     OW42950   4.471   9.886  10.760
47018SOL    HW142951   4.496   9.843  10.842
47018SOL    HW242952   4.505   9.975  10.769
47019SOL     OW42953  14.617   6.986  13.475
47019SOL    HW142954  14.563   7.013  13.401
47019SOL    HW242955  14.644   7.068  13.517
47020SOL     OW42956   1.910   2.497   7.286
47020SOL    HW142957   1.981   2.442   7.316
47020SOL    HW242958   1.953   2.565   7.233
47021SOL     OW42959   8.832   8.168  11.904
47021SOL    HW142960   8.798   8.080  11.918
47021SOL    HW242961   8.918   8.154  11.864
47022SOL     OW42962   2.809   5.250   9.407
47022SOL    HW142963   2.827   5.197   9.330
47022SOL    HW242964   2.894   5.286   9.432
47023SOL     OW42965   7.582  14.385   6.826
47023SOL    HW142966   7.649  14.415   6.887
47023SOL    HW242967   7.583  14.290   6.833
47024SOL     OW42968   7.025   6.936   5.043
47024SOL    HW142969   7.105   6.896   5.009
47024SOL    HW242970   7.036   6.934   5.138
47025SOL     OW42971  10.431  14.004   2.109
47025SOL    HW142972  10.390  13.950   2.177
47025SOL    HW242973  10.470  14.077   2.157
47026SOL     OW42974   2.680   7.929   5.010
47026SOL    HW142975   2.714   7.977   4.934
47026SOL    HW242976   2.757   7.887   5.049
47027SOL     OW42977   2.484  10.796  12.670
47027SOL    HW142978   2.573  10.788  12.705
47027SOL    HW242979   2.427  10.782  12.746
47028SOL     OW42980   7.624   3.571   3.853
47028SOL    HW142981   7.713   3.596   3.876
47028SOL    HW242982   7.624   3.568   3.757
47029SOL     OW42983  14.669   1.525   8.307
47029SOL    HW142984  14.580   1.487   8.304
47029SOL    HW242985  14.672   1.584   8.232
47030SOL     OW42986   2.304   3.770  13.449
47030SOL    HW142987   2.335   3.853  13.485
47030SOL    HW242988   2.353   3.704  13.497
47031SOL     OW42989   0.192  12.809   6.740
47031SOL    HW142990   0.239  12.883   6.778
47031SOL    HW242991   0.130  12.848   6.679
47032SOL     OW42992   2.050  12.700   8.889
47032SOL    HW142993   2.058  12.739   8.976
47032SOL    HW242994   2.059  12.774   8.828
47033SOL     OW42995  11.515   7.152   4.448
47033SOL    HW142996  11.582   7.106   4.398
47033SOL    HW242997  11.448   7.086   4.465
47034SOL     OW42998   8.087   3.165   0.385
47034SOL    HW142999   8.072   3.260   0.379
47034SOL    HW243000   8.150   3.147   0.315
47035SOL     OW43001   6.160   0.340  12.422
47035SOL    HW143002   6.089   0.307  12.366
47035SOL    HW243003   6.151   0.435  12.419
47036SOL     OW43004   9.177  12.006   0.902
47036SOL    HW143005   9.199  12.096   0.879
47036SOL    HW243006   9.234  11.986   0.977
47037SOL     OW43007   6.752  11.328   8.520
47037SOL    HW143008   6.808  11.285   8.455
47037SOL    HW243009   6.813  11.379   8.573
47038SOL     OW43010   9.612   7.174   9.207
47038SOL    HW143011   9.695   7.218   9.227
47038SOL    HW243012   9.637   7.085   9.184
47039SOL     OW43013   3.871   2.493  13.705
47039SOL    HW143014   3.892   2.429  13.638
47039SOL    HW243015   3.887   2.578  13.663
47040SOL     OW43016   7.203   2.175   2.965
47040SOL    HW143017   7.266   2.104   2.980
47040SOL    HW243018   7.169   2.158   2.877
47041SOL     OW43019   4.805   2.352   4.535
47041SOL    HW143020   4.822   2.428   4.591
47041SOL    HW243021   4.776   2.390   4.452
47042SOL     OW43022   1.714   2.939   2.445
47042SOL    HW143023   1.741   2.954   2.355
47042SOL    HW243024   1.708   2.844   2.453
47043SOL     OW43025   8.741   4.529   8.975
47043SOL    HW143026   8.756   4.437   8.957
47043SOL    HW243027   8.743   4.535   9.071
47044SOL     OW43028  14.741   6.746   9.844
47044SOL    HW143029  14.768   6.731   9.753
47044SOL    HW243030  14.658   6.794   9.837
47045SOL     OW43031  13.128   9.557  14.497
47045SOL    HW143032  13.120   9.462  14.508
47045SOL    HW243033  13.223   9.572  14.489
47046SOL     OW43034   9.409  12.847   1.021
47046SOL    HW143035   9.366  12.840   0.936
47046SOL    HW243036   9.393  12.938   1.049
47047SOL     OW43037   2.401   1.806  10.680
47047SOL    HW143038   2.386   1.885  10.733
47047SOL    HW243039   2.451   1.748  10.737
47048SOL     OW43040  12.560  10.581   0.386
47048SOL    HW143041  12.548  10.488   0.408
47048SOL    HW243042  12.625  10.581   0.316
47049SOL     OW43043   3.000   1.047   3.185
47049SOL    HW143044   3.009   0.974   3.245
47049SOL    HW243045   2.981   1.007   3.100
47050SOL     OW43046   0.951   2.401   3.273
47050SOL    HW143047   0.985   2.476   3.322
47050SOL    HW243048   1.029   2.348   3.253
47051SOL     OW43049  14.640  14.346  13.578
47051SOL    HW143050  14.652  14.432  13.620
47051SOL    HW243051  14.559  14.355  13.528
47052SOL     OW43052   3.089   0.548   4.332
47052SOL    HW143053   3.151   0.593   4.388
47052SOL    HW243054   3.068   0.467   4.380
47053SOL     OW43055   1.303  12.814   5.899
47053SOL    HW143056   1.255  12.779   5.973
47053SOL    HW243057   1.282  12.908   5.899
47054SOL     OW43058   7.005   0.196  11.008
47054SOL    HW143059   6.944   0.250  10.958
47054SOL    HW243060   6.988   0.218  11.099
47055SOL     OW43061   4.059   8.292  12.292
47055SOL    HW143062   3.964   8.306  12.291
47055SOL    HW243063   4.092   8.359  12.352
47056SOL     OW43064   8.761   9.105  10.297
47056SOL    HW143065   8.796   9.017  10.314
47056SOL    HW243066   8.829   9.149  10.247
47057SOL     OW43067  10.820   7.650  11.459
47057SOL    HW143068  10.781   7.692  11.535
47057SOL    HW243069  10.750   7.650  11.393
47058SOL     OW43070  14.833   6.647   2.936
47058SOL    HW143071  14.749   6.676   2.974
47058SOL    HW243072  14.826   6.669   2.843
47059SOL     OW43073   0.680   4.397  13.331
47059SOL    HW143074   0.659   4.329  13.267
47059SOL    HW243075   0.776   4.393  13.339
47060SOL     OW43076  12.070  12.647   8.939
47060SOL    HW143077  12.164  12.657   8.922
47060SOL    HW243078  12.029  12.713   8.883
47061SOL     OW43079   8.084   5.058   0.364
47061SOL    HW143080   8.127   5.131   0.320
47061SOL    HW243081   7.991   5.082   0.368
47062SOL     OW43082   9.872   4.250   3.155
47062SOL    HW143083   9.965   4.258   3.137
47062SOL    HW243084   9.865   4.171   3.209
47063SOL     OW43085  14.460   6.034   0.258
47063SOL    HW143086  14.435   6.015   0.167
47063SOL    HW243087  14.533   5.975   0.275
47064SOL     OW43088   9.080   6.415   6.854
47064SOL    HW143089   9.018   6.343   6.849
47064SOL    HW243090   9.094   6.442   6.763
47065SOL     OW43091   8.852   2.529   3.502
47065SOL    HW143092   8.812   2.600   3.451
47065SOL    HW243093   8.941   2.522   3.467
47066SOL     OW43094  14.847  10.423   5.484
47066SOL    HW143095  14.803  10.373   5.552
47066SOL    HW243096  14.800  10.399   5.403
47067SOL     OW43097  11.356  10.193   8.967
47067SOL    HW143098  11.400  10.278   8.962
47067SOL    HW243099  11.356  10.172   9.060
47068SOL     OW43100   3.010  12.727  10.802
47068SOL    HW143101   3.080  12.776  10.758
47068SOL    HW243102   2.950  12.794  10.833
47069SOL     OW43103   0.693   8.654   3.743
47069SOL    HW143104   0.768   8.669   3.801
47069SOL    HW243105   0.706   8.716   3.672
47070SOL     OW43106   0.485   9.786   6.751
47070SOL    HW143107   0.440   9.726   6.811
47070SOL    HW243108   0.552   9.732   6.710
47071SOL     OW43109   8.289   0.016   9.165
47071SOL    HW143110   8.270  14.835   9.094
47071SOL    HW243111   8.384   0.012   9.175
47072SOL     OW43112   3.481   8.222  12.413
47072SOL    HW143113   3.498   8.149  12.354
47072SOL    HW243114   3.468   8.182  12.499
47073SOL     OW43115   4.230   4.284   2.137
47073SOL    HW143116   4.222   4.316   2.047
47073SOL    HW243117   4.201   4.193   2.134
47074SOL     OW43118  14.222  13.774   2.655
47074SOL    HW143119  14.211  13.861   2.693
47074SOL    HW243120  14.141  13.727   2.677
47075SOL     OW43121  13.560   9.132  12.449
47075SOL    HW143122  13.569   9.179  12.365
47075SOL    HW243123  13.500   9.060  12.430
47076SOL     OW43124   0.933   2.685  11.316
47076SOL    HW143125   0.897   2.764  11.357
47076SOL    HW243126   0.920   2.699  11.222
47077SOL     OW43127  14.447   8.811   1.261
47077SOL    HW143128  14.466   8.752   1.189
47077SOL    HW243129  14.532   8.843   1.289
47078SOL     OW43130   3.407  14.031   8.218
47078SOL    HW143131   3.377  14.061   8.304
47078SOL    HW243132   3.345  13.963   8.193
47079SOL     OW43133   9.523  13.416   8.324
47079SOL    HW143134   9.441  13.424   8.276
47079SOL    HW243135   9.512  13.337   8.378
47080SOL     OW43136   1.249  11.366   7.220
47080SOL    HW143137   1.312  11.438   7.222
47080SOL    HW243138   1.256  11.331   7.131
47081SOL     OW43139   5.701   4.501   4.523
47081SOL    HW143140   5.729   4.591   4.542
47081SOL    HW243141   5.653   4.474   4.601
47082SOL     OW43142   7.334   9.013  10.040
47082SOL    HW143143   7.410   8.956  10.052
47082SOL    HW243144   7.320   9.015   9.946
47083SOL     OW43145   6.288  10.890  11.673
47083SOL    HW143146   6.343  10.957  11.713
47083SOL    HW243147   6.199  10.926  11.677
47084SOL     OW43148   2.254   7.168   7.247
47084SOL    HW143149   2.199   7.235   7.288
47084SOL    HW243150   2.316   7.217   7.193
47085SOL     OW43151   3.135   1.059   7.558
47085SOL    HW143152   3.152   1.148   7.589
47085SOL    HW243153   3.212   1.038   7.505
47086SOL     OW43154   8.629  14.682   2.759
47086SOL    HW143155   8.550  14.710   2.714
47086SOL    HW243156   8.701  14.720   2.707
47087SOL     OW43157   6.468   1.680   3.395
47087SOL    HW143158   6.464   1.715   3.484
47087SOL    HW243159   6.406   1.608   3.395
47088SOL     OW43160   3.457  10.361   9.942
47088SOL    HW143161   3.457  10.276   9.898
47088SOL    HW243162   3.396  10.351  10.015
47089SOL     OW43163   5.052   3.937  10.798
47089SOL    HW143164   5.045   3.961  10.706
47089SOL    HW243165   5.131   3.981  10.829
47090SOL     OW43166   5.970   4.580   7.934
47090SOL    HW143167   5.925   4.653   7.977
47090SOL    HW243168   5.989   4.519   8.005
47091SOL     OW43169   5.400   1.740  12.489
47091SOL    HW143170   5.474   1.792  12.519
47091SOL    HW243171   5.434   1.692  12.413
47092SOL     OW43172   5.885   5.160   7.330
47092SOL    HW143173   5.929   5.094   7.384
47092SOL    HW243174   5.796   5.162   7.364
47093SOL     OW43175   8.294  14.730   8.963
47093SOL    HW143176   8.215  14.709   8.913
47093SOL    HW243177   8.366  14.695   8.909
47094SOL     OW43178   6.305   6.613  10.802
47094SOL    HW143179   6.271   6.614  10.713
47094SOL    HW243180   6.361   6.535  10.806
47095SOL     OW43181   2.200  11.948   5.948
47095SOL    HW143182   2.165  11.898   6.021
47095SOL    HW243183   2.227  12.032   5.986
47096SOL     OW43184  13.899   7.543   9.511
47096SOL    HW143185  13.948   7.588   9.442
47096SOL    HW243186  13.935   7.578   9.592
47097SOL     OW43187   6.546  10.540   2.847
47097SOL    HW143188   6.470  10.495   2.810
47097SOL    HW243189   6.617  10.477   2.837
47098SOL     OW43190   4.790  12.293   8.067
47098SOL    HW143191   4.758  12.321   7.981
47098SOL    HW243192   4.830  12.208   8.051
47099SOL     OW43193  13.526   0.448  12.040
47099SOL    HW143194  13.511   0.364  11.996
47099SOL    HW243195  13.608   0.436  12.088
47100SOL     OW43196   5.401  11.528   6.896
47100SOL    HW143197   5.433  11.618   6.895
47100SOL    HW243198   5.308  11.536   6.916
47101SOL     OW43199   6.996   3.405  11.633
47101SOL    HW143200   7.017   3.498  11.632
47101SOL    HW243201   7.057   3.366  11.570
47102SOL     OW43202   0.710   6.574   6.561
47102SOL    HW143203   0.752   6.549   6.478
47102SOL    HW243204   0.731   6.666   6.571
47103SOL     OW43205  12.530  11.978  13.184
47103SOL    HW143206  12.610  11.956  13.232
47103SOL    HW243207  12.496  12.056  13.228
47104SOL     OW43208   9.758  14.102  13.479
47104SOL    HW143209   9.746  14.097  13.384
47104SOL    HW243210   9.779  14.012  13.505
47105SOL     OW43211   1.202   4.775  10.891
47105SOL    HW143212   1.112   4.806  10.879
47105SOL    HW243213   1.246   4.795  10.809
47106SOL     OW43214   4.449   9.262  14.431
47106SOL    HW143215   4.399   9.271  14.350
47106SOL    HW243216   4.416   9.332  14.488
47107SOL     OW43217   2.560   0.410  11.604
47107SOL    HW143218   2.497   0.339  11.617
47107SOL    HW243219   2.509   0.489  11.619
47108SOL     OW43220  12.877   6.018   8.331
47108SOL    HW143221  12.913   6.080   8.267
47108SOL    HW243222  12.951   5.993   8.385
47109SOL     OW43223  13.535   1.184   2.474
47109SOL    HW143224  13.485   1.102   2.472
47109SOL    HW243225  13.541   1.211   2.383
47110SOL     OW43226   4.341  11.466   8.756
47110SOL    HW143227   4.278  11.440   8.823
47110SOL    HW243228   4.406  11.518   8.803
47111SOL     OW43229  12.584  12.085  13.849
47111SOL    HW143230  12.547  12.172  13.832
47111SOL    HW243231  12.606  12.086  13.942
47112SOL     OW43232  10.506   6.092  11.115
47112SOL    HW143233  10.496   5.999  11.092
47112SOL    HW243234  10.537   6.091  11.206
47113SOL     OW43235   0.230   7.735   7.081
47113SOL    HW143236   0.210   7.767   7.168
47113SOL    HW243237   0.180   7.655   7.072
47114SOL     OW43238   7.886   2.232   5.053
47114SOL    HW143239   7.939   2.249   4.975
47114SOL    HW243240   7.795   2.237   5.022
47115SOL     OW43241   2.396  10.719  11.311
47115SOL    HW143242   2.364  10.776  11.381
47115SOL    HW243243   2.378  10.630  11.343
47116SOL     OW43244   8.533   5.449   0.116
47116SOL    HW143245   8.527   5.473   0.208
47116SOL    HW243246   8.442   5.444   0.086
47117SOL     OW43247   8.301   6.960  14.208
47117SOL    HW143248   8.241   6.886  14.210
47117SOL    HW243249   8.247   7.036  14.229
47118SOL     OW43250  14.631   5.469  13.136
47118SOL    HW143251  14.623   5.438  13.226
47118SOL    HW243252  14.719   5.507  13.132
47119SOL     OW43253   2.552   5.270   7.457
47119SOL    HW143254   2.602   5.189   7.447
47119SOL    HW243255   2.571   5.320   7.377
47120SOL     OW43256   3.091   7.827  11.162
47120SOL    HW143257   3.126   7.769  11.230
47120SOL    HW243258   3.029   7.773  11.114
47121SOL     OW43259  14.370   8.484   0.324
47121SOL    HW143260  14.343   8.411   0.380
47121SOL    HW243261  14.419   8.542   0.383
47122SOL     OW43262   8.362  12.118   6.910
47122SOL    HW143263   8.361  12.027   6.940
47122SOL    HW243264   8.438  12.123   6.852
47123SOL     OW43265   0.628  12.215   9.030
47123SOL    HW143266   0.590  12.130   9.052
47123SOL    HW243267   0.586  12.239   8.947
47124SOL     OW43268   1.446   2.285   0.706
47124SOL    HW143269   1.463   2.193   0.728
47124SOL    HW243270   1.371   2.309   0.760
47125SOL     OW43271   5.176  11.150   5.295
47125SOL    HW143272   5.155  11.240   5.319
47125SOL    HW243273   5.093  11.115   5.263
47126SOL     OW43274  12.924   6.481   0.531
47126SOL    HW143275  12.964   6.478   0.618
47126SOL    HW243276  12.855   6.414   0.534
47127SOL     OW43277   8.231   1.317   5.893
47127SOL    HW143278   8.231   1.409   5.866
47127SOL    HW243279   8.190   1.317   5.979
47128SOL     OW43280   6.847   0.482  12.986
47128SOL    HW143281   6.816   0.485  12.896
47128SOL    HW243282   6.775   0.441  13.035
47129SOL     OW43283   1.478   3.291   4.470
47129SOL    HW143284   1.499   3.334   4.387
47129SOL    HW243285   1.382   3.285   4.471
47130SOL     OW43286   3.354   3.371  11.792
47130SOL    HW143287   3.368   3.320  11.872
47130SOL    HW243288   3.442   3.389  11.759
47131SOL     OW43289   5.372   6.011   3.166
47131SOL    HW143290   5.279   6.031   3.177
47131SOL    HW243291   5.418   6.082   3.209
47132SOL     OW43292   8.618   4.335  10.098
47132SOL    HW143293   8.640   4.386  10.019
47132SOL    HW243294   8.525   4.351  10.112
47133SOL     OW43295   4.478   6.883  11.135
47133SOL    HW143296   4.567   6.871  11.168
47133SOL    HW243297   4.422   6.864  11.211
47134SOL     OW43298   1.310   7.536  12.145
47134SOL    HW143299   1.348   7.448  12.145
47134SOL    HW243300   1.321   7.568  12.234
47135SOL     OW43301  13.203   2.848   4.080
47135SOL    HW143302  13.222   2.887   4.165
47135SOL    HW243303  13.118   2.882   4.056
47136SOL     OW43304  11.003  11.898   5.734
47136SOL    HW143305  10.986  11.810   5.768
47136SOL    HW243306  11.097  11.911   5.745
47137SOL     OW43307   6.858   7.174   8.488
47137SOL    HW143308   6.776   7.188   8.441
47137SOL    HW243309   6.893   7.261   8.503
47138SOL     OW43310   5.951   6.752  13.418
47138SOL    HW143311   5.859   6.770  13.439
47138SOL    HW243312   5.984   6.705  13.495
47139SOL     OW43313  13.692  12.870  13.462
47139SOL    HW143314  13.691  12.960  13.430
47139SOL    HW243315  13.672  12.878  13.556
47140SOL     OW43316  14.055   8.491   6.312
47140SOL    HW143317  14.034   8.464   6.222
47140SOL    HW243318  13.993   8.562   6.330
47141SOL     OW43319   9.731   3.451   6.224
47141SOL    HW143320   9.789   3.378   6.246
47141SOL    HW243321   9.680   3.466   6.304
47142SOL     OW43322   4.836  14.759  11.608
47142SOL    HW143323   4.847  14.750  11.702
47142SOL    HW243324   4.774  14.690  11.584
47143SOL     OW43325  11.602   1.354   4.125
47143SOL    HW143326  11.596   1.286   4.058
47143SOL    HW243327  11.545   1.323   4.196
47144SOL     OW43328   4.990   6.621  14.026
47144SOL    HW143329   5.008   6.621  13.932
47144SOL    HW243330   4.966   6.712  14.045
47145SOL     OW43331   4.911   6.409  12.436
47145SOL    HW143332   4.975   6.440  12.501
47145SOL    HW243333   4.844   6.478  12.435
47146SOL     OW43334  13.299   3.325   1.814
47146SOL    HW143335  13.275   3.413   1.787
47146SOL    HW243336  13.288   3.324   1.909
47147SOL     OW43337   8.033   5.878   8.166
47147SOL    HW143338   8.057   5.932   8.241
47147SOL    HW243339   8.089   5.909   8.095
47148SOL     OW43340   9.773   2.133   3.819
47148SOL    HW143341   9.745   2.220   3.849
47148SOL    HW243342   9.864   2.144   3.794
47149SOL     OW43343   7.630   4.509   1.705
47149SOL    HW143344   7.634   4.446   1.633
47149SOL    HW243345   7.719   4.512   1.739
47150SOL     OW43346   6.241  11.642   0.075
47150SOL    HW143347   6.299  11.666   0.147
47150SOL    HW243348   6.294  11.657  14.876
47151SOL     OW43349  14.088   5.720  12.840
47151SOL    HW143350  14.169   5.770  12.843
47151SOL    HW243351  14.019   5.783  12.861
47152SOL     OW43352  12.651   7.577  12.610
47152SOL    HW143353  12.685   7.514  12.674
47152SOL    HW243354  12.568   7.607  12.648
47153SOL     OW43355   5.490   2.021   0.715
47153SOL    HW143356   5.482   2.068   0.632
47153SOL    HW243357   5.447   2.078   0.779
47154SOL     OW43358   3.832   6.922  13.811
47154SOL    HW143359   3.906   6.909  13.752
47154SOL    HW243360   3.836   7.015  13.834
47155SOL     OW43361   2.273  14.872   0.152
47155SOL    HW143362   2.209   0.056   0.123
47155SOL    HW243363   2.306   0.026   0.235
47156SOL     OW43364   9.721  11.201   2.449
47156SOL    HW143365   9.629  11.180   2.462
47156SOL    HW243366   9.720  11.287   2.405
47157SOL     OW43367   6.836   1.494   8.783
47157SOL    HW143368   6.858   1.413   8.828
47157SOL    HW243369   6.819   1.557   8.853
47158SOL     OW43370  13.634   8.227  14.472
47158SOL    HW143371  13.602   8.189  14.390
47158SOL    HW243372  13.555   8.260  14.515
47159SOL     OW43373   0.730  10.871  13.840
47159SOL    HW143374   0.684  10.789  13.858
47159SOL    HW243375   0.713  10.925  13.917
47160SOL     OW43376   7.086   6.916   3.571
47160SOL    HW143377   7.032   6.909   3.650
47160SOL    HW243378   7.140   6.837   3.572
47161SOL     OW43379   8.635   6.632   4.373
47161SOL    HW143380   8.601   6.715   4.341
47161SOL    HW243381   8.624   6.571   4.300
47162SOL     OW43382  13.816   3.304   0.661
47162SOL    HW143383  13.884   3.257   0.710
47162SOL    HW243384  13.846   3.300   0.570
47163SOL     OW43385  13.288   1.826   2.160
47163SOL    HW143386  13.337   1.768   2.217
47163SOL    HW243387  13.348   1.899   2.142
47164SOL     OW43388   3.075  14.808   8.271
47164SOL    HW143389   3.099   0.003   8.217
47164SOL    HW243390   3.075  14.734   8.210
47165SOL     OW43391  10.469   7.238   6.844
47165SOL    HW143392  10.420   7.181   6.904
47165SOL    HW243393  10.452   7.202   6.757
47166SOL     OW43394  11.647  13.281   4.935
47166SOL    HW143395  11.599  13.297   4.853
47166SOL    HW243396  11.687  13.365   4.957
47167SOL     OW43397  10.843   9.802   8.841
47167SOL    HW143398  10.879   9.780   8.756
47167SOL    HW243399  10.748   9.809   8.827
47168SOL     OW43400   2.262   4.378   3.716
47168SOL    HW143401   2.295   4.319   3.783
47168SOL    HW243402   2.212   4.322   3.657
47169SOL     OW43403  12.168   3.972   0.301
47169SOL    HW143404  12.120   3.931   0.229
47169SOL    HW243405  12.176   3.903   0.367
47170SOL     OW43406   4.682  14.210   4.201
47170SOL    HW143407   4.604  14.238   4.249
47170SOL    HW243408   4.746  14.189   4.268
47171SOL     OW43409   7.987  13.563   0.325
47171SOL    HW143410   7.981  13.654   0.295
47171SOL    HW243411   8.045  13.521   0.262
47172SOL     OW43412  10.547  13.557  13.275
47172SOL    HW143413  10.600  13.492  13.228
47172SOL    HW243414  10.510  13.509  13.349
47173SOL     OW43415   2.070   8.473   2.501
47173SOL    HW143416   2.082   8.382   2.475
47173SOL    HW243417   2.094   8.474   2.594
47174SOL     OW43418   9.164   1.354   7.736
47174SOL    HW143419   9.234   1.312   7.687
47174SOL    HW243420   9.184   1.448   7.732
47175SOL     OW43421  13.542   4.987  13.086
47175SOL    HW143422  13.632   4.970  13.114
47175SOL    HW243423  13.516   4.907  13.041
47176SOL     OW43424   5.315   3.833   0.826
47176SOL    HW143425   5.372   3.771   0.780
47176SOL    HW243426   5.364   3.856   0.905
47177SOL     OW43427   8.186  14.506   2.888
47177SOL    HW143428   8.214  14.497   2.979
47177SOL    HW243429   8.200  14.599   2.868
47178SOL     OW43430   4.246   3.409   8.374
47178SOL    HW143431   4.336   3.380   8.359
47178SOL    HW243432   4.211   3.345   8.436
47179SOL     OW43433  10.336  14.385   4.264
47179SOL    HW143434  10.320  14.414   4.174
47179SOL    HW243435  10.348  14.290   4.257
47180SOL     OW43436   9.274   2.310   5.643
47180SOL    HW143437   9.218   2.264   5.580
47180SOL    HW243438   9.363   2.280   5.623
47181SOL     OW43439  11.147  14.466   6.545
47181SOL    HW143440  11.089  14.530   6.586
47181SOL    HW243441  11.167  14.404   6.615
47182SOL     OW43442   0.890   7.201   3.928
47182SOL    HW143443   0.946   7.205   4.005
47182SOL    HW243444   0.881   7.292   3.899
47183SOL     OW43445  13.867   2.157   2.742
47183SOL    HW143446  13.918   2.208   2.679
47183SOL    HW243447  13.902   2.181   2.827
47184SOL     OW43448   3.365  11.746  11.749
47184SOL    HW143449   3.361  11.825  11.803
47184SOL    HW243450   3.274  11.719  11.739
47185SOL     OW43451   0.001   4.150   6.539
47185SOL    HW143452   0.014   4.242   6.518
47185SOL    HW243453   0.028   4.103   6.460
47186SOL     OW43454   7.958   0.113   4.230
47186SOL    HW143455   7.891   0.134   4.165
47186SOL    HW243456   7.936   0.024   4.258
47187SOL     OW43457  13.993  14.143   3.031
47187SOL    HW143458  13.947  14.166   3.112
47187SOL    HW243459  14.033  14.058   3.049
47188SOL     OW43460   3.504   3.919  12.474
47188SOL    HW143461   3.547   3.973  12.539
47188SOL    HW243462   3.547   3.834  12.479
47189SOL     OW43463   8.872  13.197   7.226
47189SOL    HW143464   8.836  13.147   7.299
47189SOL    HW243465   8.962  13.164   7.217
47190SOL     OW43466   4.444   5.750   1.766
47190SOL    HW143467   4.464   5.841   1.788
47190SOL    HW243468   4.499   5.698   1.824
47191SOL     OW43469  14.254   6.586   9.618
47191SOL    HW143470  14.261   6.537   9.699
47191SOL    HW243471  14.341   6.584   9.580
47192SOL     OW43472  12.204   7.529   3.743
47192SOL    HW143473  12.157   7.605   3.776
47192SOL    HW243474  12.265   7.564   3.678
47193SOL     OW43475   0.648  13.154   9.302
47193SOL    HW143476   0.740  13.142   9.326
47193SOL    HW243477   0.628  13.244   9.327
47194SOL     OW43478   7.362   6.859  13.174
47194SOL    HW143479   7.364   6.774  13.130
47194SOL    HW243480   7.406   6.843  13.258
47195SOL     OW43481   2.816  10.131   2.905
47195SOL    HW143482   2.834  10.118   2.812
47195SOL    HW243483   2.840  10.222   2.921
47196SOL     OW43484   7.894   5.651   8.749
47196SOL    HW143485   7.977   5.611   8.722
47196SOL    HW243486   7.845   5.579   8.789
47197SOL     OW43487  12.820   1.585  11.737
47197SOL    HW143488  12.742   1.628  11.701
47197SOL    HW243489  12.822   1.499  11.694
47198SOL     OW43490   9.402   2.379   1.380
47198SOL    HW143491   9.309   2.391   1.400
47198SOL    HW243492   9.434   2.467   1.358
47199SOL     OW43493   3.577  12.784   7.309
47199SOL    HW143494   3.540  12.717   7.368
47199SOL    HW243495   3.543  12.760   7.223
47200SOL     OW43496   1.232   5.481   6.631
47200SOL    HW143497   1.204   5.405   6.682
47200SOL    HW243498   1.188   5.555   6.672
47201SOL     OW43499   7.221  11.319   3.826
47201SOL    HW143500   7.186  11.231   3.844
47201SOL    HW243501   7.167  11.351   3.754
47202SOL     OW43502  14.431  13.888   0.355
47202SOL    HW143503  14.412  13.853   0.268
47202SOL    HW243504  14.433  13.811   0.412
47203SOL     OW43505   6.186   3.064   4.219
47203SOL    HW143506   6.205   3.068   4.313
47203SOL    HW243507   6.200   3.154   4.188
47204SOL     OW43508   9.226   0.810   8.771
47204SOL    HW143509   9.205   0.720   8.746
47204SOL    HW243510   9.317   0.806   8.801
47205SOL     OW43511   3.464  10.372   3.584
47205SOL    HW143512   3.449  10.340   3.673
47205SOL    HW243513   3.379  10.362   3.540
47206SOL     OW43514   4.648  14.009  14.358
47206SOL    HW143515   4.649  13.915  14.342
47206SOL    HW243516   4.563  14.038  14.325
47207SOL     OW43517   9.483   1.771   1.495
47207SOL    HW143518   9.436   1.810   1.421
47207SOL    HW243519   9.415   1.738   1.552
47208SOL     OW43520   0.262  11.222   3.160
47208SOL    HW143521   0.202  11.163   3.115
47208SOL    HW243522   0.255  11.305   3.112
47209SOL     OW43523  10.353   2.194   8.685
47209SOL    HW143524  10.371   2.163   8.773
47209SOL    HW243525  10.284   2.259   8.696
47210SOL     OW43526  14.603   5.335   9.554
47210SOL    HW143527  14.531   5.385   9.516
47210SOL    HW243528  14.580   5.326   9.646
47211SOL     OW43529   9.145   7.392   8.520
47211SOL    HW143530   9.094   7.414   8.598
47211SOL    HW243531   9.096   7.319   8.480
47212SOL     OW43532   1.789  10.992   7.062
47212SOL    HW143533   1.849  10.964   7.131
47212SOL    HW243534   1.701  10.978   7.099
47213SOL     OW43535   0.515   1.020   1.651
47213SOL    HW143536   0.572   0.958   1.697
47213SOL    HW243537   0.427   0.989   1.670
47214SOL     OW43538  12.810  12.778  11.616
47214SOL    HW143539  12.883  12.738  11.570
47214SOL    HW243540  12.826  12.872  11.610
47215SOL     OW43541  13.516   6.375  14.609
47215SOL    HW143542  13.512   6.285  14.576
47215SOL    HW243543  13.554   6.366  14.696
47216SOL     OW43544  13.404   9.601   4.264
47216SOL    HW143545  13.333   9.579   4.204
47216SOL    HW243546  13.473   9.537   4.244
47217SOL     OW43547   6.281   4.141   7.024
47217SOL    HW143548   6.226   4.153   7.102
47217SOL    HW243549   6.281   4.227   6.982
47218SOL     OW43550   9.573   2.211   2.796
47218SOL    HW143551   9.647   2.175   2.845
47218SOL    HW243552   9.535   2.276   2.854
47219SOL     OW43553  14.420   5.825   9.993
47219SOL    HW143554  14.400   5.732  10.003
47219SOL    HW243555  14.514   5.832  10.006
47220SOL     OW43556   6.851   8.543   4.249
47220SOL    HW143557   6.761   8.520   4.227
47220SOL    HW243558   6.905   8.489   4.191
47221SOL     OW43559  13.970   8.526  12.544
47221SOL    HW143560  13.913   8.557  12.615
47221SOL    HW243561  14.047   8.493  12.589
47222SOL     OW43562   4.209   4.993  14.696
47222SOL    HW143563   4.269   5.063  14.721
47222SOL    HW243564   4.132   5.006  14.752
47223SOL     OW43565   1.398  13.578   4.397
47223SOL    HW143566   1.454  13.656   4.393
47223SOL    HW243567   1.338  13.596   4.469
47224SOL     OW43568  12.415  12.782   0.439
47224SOL    HW143569  12.439  12.841   0.369
47224SOL    HW243570  12.379  12.705   0.395
47225SOL     OW43571   4.376   0.235  10.314
47225SOL    HW143572   4.451   0.286  10.285
47225SOL    HW243573   4.321   0.296  10.363
47226SOL     OW43574   7.040   1.803   3.139
47226SOL    HW143575   7.058   1.756   3.220
47226SOL    HW243576   6.952   1.838   3.150
47227SOL     OW43577  10.407   9.696   3.048
47227SOL    HW143578  10.356   9.687   3.128
47227SOL    HW243579  10.375   9.625   2.991
47228SOL     OW43580   5.871  11.824   2.830
47228SOL    HW143581   5.923  11.888   2.782
47228SOL    HW243582   5.927  11.746   2.835
47229SOL     OW43583   2.367   1.973   8.880
47229SOL    HW143584   2.460   1.953   8.864
47229SOL    HW243585   2.356   1.959   8.974
47230SOL     OW43586   4.595   2.629   3.629
47230SOL    HW143587   4.511   2.674   3.628
47230SOL    HW243588   4.631   2.648   3.716
47231SOL     OW43589   7.295   7.154   0.416
47231SOL    HW143590   7.231   7.085   0.397
47231SOL    HW243591   7.281   7.175   0.508
47232SOL     OW43592  12.319   7.621   0.040
47232SOL    HW143593  12.353   7.626   0.130
47232SOL    HW243594  12.384   7.570  14.873
47233SOL     OW43595   3.568   2.601   5.757
47233SOL    HW143596   3.573   2.658   5.834
47233SOL    HW243597   3.647   2.621   5.707
47234SOL     OW43598   1.676   0.337   7.216
47234SOL    HW143599   1.701   0.405   7.153
47234SOL    HW243600   1.582   0.348   7.227
47235SOL     OW43601   1.252   5.427   3.245
47235SOL    HW143602   1.286   5.341   3.271
47235SOL    HW243603   1.324   5.466   3.194
47236SOL     OW43604  10.755   2.731   5.109
47236SOL    HW143605  10.674   2.779   5.124
47236SOL    HW243606  10.820   2.774   5.165
47237SOL     OW43607   3.014   9.398   5.256
47237SOL    HW143608   3.101   9.385   5.218
47237SOL    HW243609   3.030   9.406   5.350
47238SOL     OW43610   7.468   4.185  13.820
47238SOL    HW143611   7.428   4.151  13.740
47238SOL    HW243612   7.536   4.120  13.840
47239SOL     OW43613   2.815   4.768   2.359
47239SOL    HW143614   2.802   4.673   2.359
47239SOL    HW243615   2.909   4.780   2.356
47240SOL     OW43616   6.831   8.577   8.343
47240SOL    HW143617   6.769   8.509   8.316
47240SOL    HW243618   6.840   8.633   8.266
47241SOL     OW43619   4.288  10.645   9.839
47241SOL    HW143620   4.363  10.705   9.839
47241SOL    HW243621   4.317  10.570   9.891
47242SOL     OW43622  10.285   0.241   6.778
47242SOL    HW143623  10.209   0.237   6.720
47242SOL    HW243624  10.263   0.310   6.841
47243SOL     OW43625  10.845   0.149   5.031
47243SOL    HW143626  10.845   0.088   5.104
47243SOL    HW243627  10.880   0.099   4.958
47244SOL     OW43628  10.602   9.213   0.436
47244SOL    HW143629  10.648   9.200   0.353
47244SOL    HW243630  10.524   9.157   0.429
47245SOL     OW43631   1.161  11.545  10.359
47245SOL    HW143632   1.211  11.503  10.429
47245SOL    HW243633   1.140  11.474  10.299
47246SOL     OW43634  13.971  14.576  12.334
47246SOL    HW143635  13.886  14.540  12.356
47246SOL    HW243636  14.031  14.538  12.399
47247SOL     OW43637  14.081   5.305   0.879
47247SOL    HW143638  14.090   5.220   0.836
47247SOL    HW243639  14.168   5.344   0.873
47248SOL     OW43640  14.147   9.811   3.996
47248SOL    HW143641  14.186   9.898   4.007
47248SOL    HW243642  14.222   9.751   3.999
47249SOL     OW43643   4.463   1.487   1.298
47249SOL    HW143644   4.545   1.515   1.259
47249SOL    HW243645   4.442   1.554   1.363
47250SOL     OW43646  12.494   9.931   1.980
47250SOL    HW143647  12.519   9.965   2.066
47250SOL    HW243648  12.465  10.007   1.931
47251SOL     OW43649   1.703  10.122  11.108
47251SOL    HW143650   1.667  10.035  11.087
47251SOL    HW243651   1.778  10.104  11.164
47252SOL     OW43652   5.184   6.367   4.657
47252SOL    HW143653   5.262   6.373   4.711
47252SOL    HW243654   5.185   6.447   4.604
47253SOL     OW43655   2.391   4.094  10.941
47253SOL    HW143656   2.340   4.175  10.948
47253SOL    HW243657   2.331   4.031  10.900
47254SOL     OW43658   8.380  14.150   6.037
47254SOL    HW143659   8.360  14.204   6.113
47254SOL    HW243660   8.455  14.098   6.063
47255SOL     OW43661  11.743   3.809   5.569
47255SOL    HW143662  11.806   3.862   5.618
47255SOL    HW243663  11.716   3.865   5.497
47256SOL     OW43664   0.961   1.127   6.569
47256SOL    HW143665   0.939   1.120   6.662
47256SOL    HW243666   0.881   1.101   6.523
47257SOL     OW43667  10.954   9.541   6.806
47257SOL    HW143668  10.947   9.468   6.867
47257SOL    HW243669  10.962   9.500   6.720
47258SOL     OW43670   6.749   5.636   3.012
47258SOL    HW143671   6.808   5.667   2.943
47258SOL    HW243672   6.749   5.706   3.077
47259SOL     OW43673   5.401   4.588   3.251
47259SOL    HW143674   5.469   4.530   3.215
47259SOL    HW243675   5.434   4.677   3.234
47260SOL     OW43676   2.432  11.827  13.045
47260SOL    HW143677   2.427  11.921  13.060
47260SOL    HW243678   2.380  11.789  13.116
47261SOL     OW43679   7.949  10.858  13.146
47261SOL    HW143680   8.031  10.855  13.097
47261SOL    HW243681   7.919  10.767  13.148
47262SOL     OW43682  10.922   5.024  10.081
47262SOL    HW143683  10.911   5.113  10.048
47262SOL    HW243684  10.892   5.029  10.172
47263SOL     OW43685   1.909   1.574   7.772
47263SOL    HW143686   1.942   1.648   7.722
47263SOL    HW243687   1.958   1.499   7.738
47264SOL     OW43688   3.877   3.322  14.180
47264SOL    HW143689   3.787   3.306  14.209
47264SOL    HW243690   3.878   3.413  14.154
47265SOL     OW43691   5.456  12.838   0.192
47265SOL    HW143692   5.508  12.917   0.201
47265SOL    HW243693   5.483  12.800   0.109
47266SOL     OW43694  14.683   8.631  10.064
47266SOL    HW143695  14.777   8.633  10.046
47266SOL    HW243696  14.665   8.715  10.106
47267SOL     OW43697   4.466   3.304   9.227
47267SOL    HW143698   4.550   3.276   9.265
47267SOL    HW243699   4.464   3.263   9.140
47268SOL     OW43700  12.821  14.057   4.613
47268SOL    HW143701  12.910  14.048   4.579
47268SOL    HW243702  12.766  14.059   4.535
47269SOL     OW43703   3.711  12.203  12.363
47269SOL    HW143704   3.685  12.111  12.355
47269SOL    HW243705   3.704  12.237  12.274
47270SOL     OW43706   0.415   9.198   7.404
47270SOL    HW143707   0.420   9.174   7.497
47270SOL    HW243708   0.470   9.135   7.359
47271SOL     OW43709   0.984   7.789   5.373
47271SOL    HW143710   0.914   7.846   5.404
47271SOL    HW243711   1.003   7.819   5.285
47272SOL     OW43712  10.012  12.788   1.909
47272SOL    HW143713  10.038  12.724   1.975
47272SOL    HW243714   9.917  12.781   1.904
47273SOL     OW43715  11.543   5.426   2.188
47273SOL    HW143716  11.553   5.428   2.093
47273SOL    HW243717  11.463   5.476   2.205
47274SOL     OW43718   0.045  14.040   5.705
47274SOL    HW143719  14.869  14.110   5.737
47274SOL    HW243720   0.133  14.066   5.730
47275SOL     OW43721   4.456   7.007  12.164
47275SOL    HW143722   4.430   6.923  12.126
47275SOL    HW243723   4.520   7.043  12.102
47276SOL     OW43724  10.390   5.965  11.519
47276SOL    HW143725  10.341   5.885  11.499
47276SOL    HW243726  10.338   6.009  11.586
47277SOL     OW43727   7.586   1.342   7.676
47277SOL    HW143728   7.652   1.274   7.664
47277SOL    HW243729   7.519   1.300   7.731
47278SOL     OW43730   4.185   4.336   6.522
47278SOL    HW143731   4.214   4.344   6.431
47278SOL    HW243732   4.095   4.367   6.520
47279SOL     OW43733   5.133  13.807   6.544
47279SOL    HW143734   5.207  13.760   6.582
47279SOL    HW243735   5.138  13.789   6.450
47280SOL     OW43736   9.033  11.612   0.649
47280SOL    HW143737   9.059  11.649   0.734
47280SOL    HW243738   9.113  11.611   0.597
47281SOL     OW43739   2.535   2.191   1.026
47281SOL    HW143740   2.560   2.173   1.117
47281SOL    HW243741   2.444   2.161   1.020
47282SOL     OW43742  11.477  11.277   2.172
47282SOL    HW143743  11.539  11.205   2.160
47282SOL    HW243744  11.409  11.262   2.106
47283SOL     OW43745   3.763  14.309   8.106
47283SOL    HW143746   3.695  14.367   8.140
47283SOL    HW243747   3.842  14.334   8.155
47284SOL     OW43748  12.054   6.728   6.616
47284SOL    HW143749  12.024   6.682   6.537
47284SOL    HW243750  12.143   6.696   6.629
47285SOL     OW43751  11.966   4.013   8.486
47285SOL    HW143752  11.983   4.025   8.393
47285SOL    HW243753  11.885   3.962   8.490
47286SOL     OW43754   5.684  12.772   4.762
47286SOL    HW143755   5.771  12.792   4.797
47286SOL    HW243756   5.690  12.794   4.669
47287SOL     OW43757  13.216   5.675   8.816
47287SOL    HW143758  13.260   5.664   8.900
47287SOL    HW243759  13.169   5.593   8.802
47288SOL     OW43760   1.957   1.783   3.667
47288SOL    HW143761   1.999   1.817   3.746
47288SOL    HW243762   2.018   1.803   3.596
47289SOL     OW43763   8.099   5.210   4.079
47289SOL    HW143764   8.159   5.255   4.138
47289SOL    HW243765   8.069   5.278   4.019
47290SOL     OW43766  10.261   5.341  11.056
47290SOL    HW143767  10.278   5.253  11.022
47290SOL    HW243768  10.234   5.392  10.979
47291SOL     OW43769  14.874   9.488  13.202
47291SOL    HW143770   0.066   9.431  13.227
47291SOL    HW243771  14.876   9.559  13.266
47292SOL     OW43772   7.488   0.561  10.658
47292SOL    HW143773   7.446   0.475  10.657
47292SOL    HW243774   7.574   0.546  10.697
47293SOL     OW43775   3.823   1.715   4.651
47293SOL    HW143776   3.855   1.783   4.710
47293SOL    HW243777   3.891   1.648   4.653
47294SOL     OW43778  10.827   2.457  14.713
47294SOL    HW143779  10.798   2.546  14.734
47294SOL    HW243780  10.871   2.466  14.628
47295SOL     OW43781  14.715   3.133   2.132
47295SOL    HW143782  14.674   3.180   2.204
47295SOL    HW243783  14.802   3.109   2.165
47296SOL     OW43784   3.270  14.818   7.396
47296SOL    HW143785   3.324  14.739   7.397
47296SOL    HW243786   3.274  14.849   7.306
47297SOL     OW43787   6.995   1.434   6.338
47297SOL    HW143788   7.063   1.374   6.369
47297SOL    HW243789   7.041   1.516   6.321
47298SOL     OW43790   0.051   5.235  11.545
47298SOL    HW143791  14.878   5.160  11.518
47298SOL    HW243792  14.878   5.280  11.610
47299SOL     OW43793   5.621   1.861   3.063
47299SOL    HW143794   5.705   1.907   3.069
47299SOL    HW243795   5.612   1.818   3.149
47300SOL     OW43796   4.294   9.683   0.592
47300SOL    HW143797   4.299   9.705   0.685
47300SOL    HW243798   4.232   9.747   0.556
47301SOL     OW43799  12.914  10.580   1.314
47301SOL    HW143800  12.971  10.566   1.239
47301SOL    HW243801  12.973  10.589   1.388
47302SOL     OW43802  11.044   8.972  10.413
47302SOL    HW143803  11.132   8.993  10.442
47302SOL    HW243804  11.056   8.918  10.334
47303SOL     OW43805   8.570  13.245   3.453
47303SOL    HW143806   8.624  13.174   3.488
47303SOL    HW243807   8.630  13.298   3.401
47304SOL     OW43808  12.804  11.899  11.318
47304SOL    HW143809  12.817  11.805  11.304
47304SOL    HW243810  12.718  11.918  11.280
47305SOL     OW43811   9.491  13.902   6.792
47305SOL    HW143812   9.514  13.811   6.809
47305SOL    HW243813   9.501  13.945   6.877
47306SOL     OW43814  10.041  10.807   5.959
47306SOL    HW143815  10.041  10.753   5.880
47306SOL    HW243816   9.989  10.884   5.935
47307SOL     OW43817   5.303  14.546   9.161
47307SOL    HW143818   5.251  14.575   9.086
47307SOL    HW243819   5.251  14.571   9.237
47308SOL     OW43820  13.072   2.080  14.108
47308SOL    HW143821  13.039   2.089  14.198
47308SOL    HW243822  13.154   2.129  14.108
47309SOL     OW43823   9.175   8.038   3.685
47309SOL    HW143824   9.199   7.961   3.737
47309SOL    HW243825   9.133   8.097   3.748
47310SOL     OW43826  12.831  14.427  10.443
47310SOL    HW143827  12.914  14.384  10.422
47310SOL    HW243828  12.856  14.501  10.497
47311SOL     OW43829   0.715   2.922   6.700
47311SOL    HW143830   0.768   2.936   6.779
47311SOL    HW243831   0.625   2.921   6.732
47312SOL     OW43832   9.206   4.858   0.041
47312SOL    HW143833   9.265   4.893  14.855
47312SOL    HW243834   9.121   4.852  14.878
47313SOL     OW43835   2.298   5.003  12.503
47313SOL    HW143836   2.331   5.059  12.432
47313SOL    HW243837   2.323   5.050  12.583
47314SOL     OW43838  12.383   3.499  14.240
47314SOL    HW143839  12.357   3.491  14.332
47314SOL    HW243840  12.338   3.577  14.209
47315SOL     OW43841   3.025  13.939   0.354
47315SOL    HW143842   3.040  14.033   0.342
47315SOL    HW243843   3.064  13.898   0.277
47316SOL     OW43844   0.375   8.709   7.874
47316SOL    HW143845   0.379   8.624   7.917
47316SOL    HW243846   0.338   8.768   7.940
47317SOL     OW43847  10.968  13.589   7.750
47317SOL    HW143848  10.887  13.542   7.729
47317SOL    HW243849  10.992  13.557   7.837
47318SOL     OW43850  14.862   2.469   3.142
47318SOL    HW143851  14.867   2.466   3.047
47318SOL    HW243852  14.860   2.377   3.169
47319SOL     OW43853   3.955  12.777   9.486
47319SOL    HW143854   3.911  12.859   9.464
47319SOL    HW243855   3.889  12.709   9.469
47320SOL     OW43856  13.765   5.310  12.047
47320SOL    HW143857  13.749   5.340  12.137
47320SOL    HW243858  13.819   5.232  12.057
47321SOL     OW43859  10.786  11.081   4.356
47321SOL    HW143860  10.783  11.020   4.430
47321SOL    HW243861  10.762  11.027   4.281
47322SOL     OW43862   5.764  13.974  10.464
47322SOL    HW143863   5.832  13.975  10.530
47322SOL    HW243864   5.690  13.930  10.505
47323SOL     OW43865   5.061   0.014  12.916
47323SOL    HW143866   5.030  14.853  12.996
47323SOL    HW243867   5.059   0.108  12.935
47324SOL     OW43868   7.863   6.163  13.448
47324SOL    HW143869   7.775   6.193  13.425
47324SOL    HW243870   7.859   6.148  13.543
47325SOL     OW43871   3.315   2.456   0.156
47325SOL    HW143872   3.285   2.523   0.218
47325SOL    HW243873   3.401   2.430   0.188
47326SOL     OW43874  11.532  11.352   2.984
47326SOL    HW143875  11.622  11.367   3.014
47326SOL    HW243876  11.495  11.440   2.975
47327SOL     OW43877   4.880   3.132  12.975
47327SOL    HW143878   4.885   3.131  12.879
47327SOL    HW243879   4.927   3.054  13.003
47328SOL     OW43880   8.500   5.381  13.759
47328SOL    HW143881   8.515   5.475  13.771
47328SOL    HW243882   8.551   5.359  13.682
47329SOL     OW43883   3.359   5.554   5.139
47329SOL    HW143884   3.332   5.501   5.215
47329SOL    HW243885   3.308   5.519   5.066
47330SOL     OW43886   2.812   4.762   6.140
47330SOL    HW143887   2.877   4.804   6.196
47330SOL    HW243888   2.733   4.816   6.150
47331SOL     OW43889   9.107   6.049  10.107
47331SOL    HW143890   9.202   6.040  10.111
47331SOL    HW243891   9.091   6.140  10.134
47332SOL     OW43892   1.453   7.171  14.559
47332SOL    HW143893   1.377   7.223  14.533
47332SOL    HW243894   1.416   7.092  14.599
47333SOL     OW43895   0.985   8.853  10.385
47333SOL    HW143896   0.896   8.818  10.390
47333SOL    HW243897   0.984   8.911  10.309
47334SOL     OW43898   6.114   2.872   7.163
47334SOL    HW143899   6.153   2.875   7.076
47334SOL    HW243900   6.078   2.959   7.177
47335SOL     OW43901   5.197   5.214   4.430
47335SOL    HW143902   5.169   5.168   4.350
47335SOL    HW243903   5.164   5.303   4.418
47336SOL     OW43904  13.195   5.026   7.862
47336SOL    HW143905  13.159   5.110   7.835
47336SOL    HW243906  13.122   4.981   7.904
47337SOL     OW43907  10.299   3.737   9.646
47337SOL    HW143908  10.226   3.794   9.622
47337SOL    HW243909  10.268   3.648   9.628
47338SOL     OW43910   1.519   0.919   1.420
47338SOL    HW143911   1.453   0.981   1.452
47338SOL    HW243912   1.600   0.971   1.416
47339SOL     OW43913   6.422  12.526   0.089
47339SOL    HW143914   6.429  12.556  14.878
47339SOL    HW243915   6.399  12.604   0.138
47340SOL     OW43916   3.347  11.823   6.827
47340SOL    HW143917   3.383  11.742   6.791
47340SOL    HW243918   3.288  11.793   6.897
47341SOL     OW43919   3.237   8.206  13.161
47341SOL    HW143920   3.322   8.171  13.133
47341SOL    HW243921   3.233   8.294  13.123
47342SOL     OW43922  12.345   4.191   1.472
47342SOL    HW143923  12.321   4.278   1.506
47342SOL    HW243924  12.264   4.155   1.437
47343SOL     OW43925   0.985   0.826   0.114
47343SOL    HW143926   1.025   0.753   0.162
47343SOL    HW243927   0.993   0.901   0.173
47344SOL     OW43928   4.028   5.699   2.402
47344SOL    HW143929   4.034   5.787   2.439
47344SOL    HW243930   4.097   5.650   2.446
47345SOL     OW43931   6.439   9.198   7.718
47345SOL    HW143932   6.527   9.236   7.725
47345SOL    HW243933   6.408   9.194   7.808
47346SOL     OW43934   9.343  12.272   2.595
47346SOL    HW143935   9.418  12.234   2.641
47346SOL    HW243936   9.271  12.211   2.610
47347SOL     OW43937   7.379  12.060  10.274
47347SOL    HW143938   7.323  12.103  10.338
47347SOL    HW243939   7.371  12.114  10.195
47348SOL     OW43940   5.422   7.836  12.433
47348SOL    HW143941   5.489   7.875  12.489
47348SOL    HW243942   5.420   7.892  12.355
47349SOL     OW43943   2.733   7.915   6.816
47349SOL    HW143944   2.692   7.922   6.730
47349SOL    HW243945   2.753   7.822   6.826
47350SOL     OW43946  11.046   7.740   5.591
47350SOL    HW143947  11.096   7.665   5.622
47350SOL    HW243948  11.110   7.793   5.543
47351SOL     OW43949   6.529   1.228   2.648
47351SOL    HW143950   6.533   1.169   2.573
47351SOL    HW243951   6.593   1.297   2.629
47352SOL     OW43952   0.622  11.314   5.137
47352SOL    HW143953   0.576  11.363   5.206
47352SOL    HW243954   0.597  11.223   5.153
47353SOL     OW43955  13.521  13.725   7.756
47353SOL    HW143956  13.577  13.802   7.760
47353SOL    HW243957  13.544  13.675   7.835
47354SOL     OW43958  13.708   1.302  11.688
47354SOL    HW143959  13.785   1.334  11.641
47354SOL    HW243960  13.684   1.221  11.642
47355SOL     OW43961  13.724  14.136   2.898
47355SOL    HW143962  13.813  14.123   2.929
47355SOL    HW243963  13.731  14.207   2.833
47356SOL     OW43964  11.212  12.837   2.922
47356SOL    HW143965  11.229  12.805   3.011
47356SOL    HW243966  11.244  12.767   2.865
47357SOL     OW43967   5.382   8.261  13.482
47357SOL    HW143968   5.322   8.193  13.452
47357SOL    HW243969   5.390   8.321  13.408
47358SOL     OW43970   3.146  12.558   2.430
47358SOL    HW143971   3.075  12.578   2.491
47358SOL    HW243972   3.158  12.638   2.379
47359SOL     OW43973   4.206   2.457   3.356
47359SOL    HW143974   4.170   2.509   3.428
47359SOL    HW243975   4.136   2.451   3.292
47360SOL     OW43976  11.329   0.410  11.598
47360SOL    HW143977  11.251   0.462  11.614
47360SOL    HW243978  11.296   0.327  11.562
47361SOL     OW43979   7.458  10.268   5.503
47361SOL    HW143980   7.518  10.220   5.446
47361SOL    HW243981   7.436  10.207   5.573
47362SOL     OW43982  12.438   3.530  10.478
47362SOL    HW143983  12.430   3.569  10.566
47362SOL    HW243984  12.490   3.451  10.492
47363SOL     OW43985  13.984   0.067  14.700
47363SOL    HW143986  13.987   0.085  14.794
47363SOL    HW243987  13.954  14.856  14.694
47364SOL     OW43988  10.441  10.113   3.793
47364SOL    HW143989  10.432  10.106   3.888
47364SOL    HW243990  10.534  10.131   3.779
47365SOL     OW43991  12.812   8.014  14.395
47365SOL    HW143992  12.843   8.023  14.305
47365SOL    HW243993  12.718   8.000  14.387
47366SOL     OW43994   7.630   5.360   0.803
47366SOL    HW143995   7.577   5.382   0.880
47366SOL    HW243996   7.689   5.434   0.792
47367SOL     OW43997   2.841   8.602  13.463
47367SOL    HW143998   2.822   8.623  13.554
47367SOL    HW243999   2.900   8.527  13.467
47368SOL     OW44000   4.704  11.166   3.624
47368SOL    HW144001   4.799  11.181   3.624
47368SOL    HW244002   4.692  11.090   3.681
47369SOL     OW44003  11.703  13.451  14.225
47369SOL    HW144004  11.708  13.390  14.152
47369SOL    HW244005  11.636  13.414  14.283
47370SOL     OW44006   7.925  13.545  11.803
47370SOL    HW144007   7.963  13.468  11.846
47370SOL    HW244008   7.832  13.525  11.794
47371SOL     OW44009   3.008  14.776  13.595
47371SOL    HW144010   3.100  14.784  13.620
47371SOL    HW244011   2.965  14.738  13.672
47372SOL     OW44012  14.173   4.916  11.681
47372SOL    HW144013  14.158   4.895  11.773
47372SOL    HW244014  14.236   4.989  11.683
47373SOL     OW44015   3.185   5.139   0.167
47373SOL    HW144016   3.229   5.154   0.251
47373SOL    HW244017   3.163   5.046   0.168
47374SOL     OW44018   6.384   8.776  12.766
47374SOL    HW144019   6.380   8.867  12.796
47374SOL    HW244020   6.367   8.780  12.672
47375SOL     OW44021  11.688   4.921  10.411
47375SOL    HW144022  11.636   4.849  10.374
47375SOL    HW244023  11.699   4.983  10.339
47376SOL     OW44024  10.952   0.261   6.467
47376SOL    HW144025  10.877   0.290   6.415
47376SOL    HW244026  11.028   0.288   6.415
47377SOL     OW44027   8.924   0.549   3.741
47377SOL    HW144028   8.968   0.550   3.656
47377SOL    HW244029   8.833   0.569   3.721
47378SOL     OW44030   9.588   1.106  10.147
47378SOL    HW144031   9.565   1.035  10.206
47378SOL    HW244032   9.626   1.063  10.071
47379SOL     OW44033   0.807   8.275  11.266
47379SOL    HW144034   0.860   8.354  11.280
47379SOL    HW244035   0.730   8.288  11.321
47380SOL     OW44036   0.333  11.462   6.224
47380SOL    HW144037   0.352  11.528   6.157
47380SOL    HW244038   0.419  11.429   6.249
47381SOL     OW44039   9.401   5.226  14.591
47381SOL    HW144040   9.454   5.305  14.578
47381SOL    HW244041   9.448   5.157  14.543
47382SOL     OW44042   8.878  14.802  11.123
47382SOL    HW144043   8.968  14.810  11.091
47382SOL    HW244044   8.826  14.790  11.043
47383SOL     OW44045   1.710   2.737   5.426
47383SOL    HW144046   1.671   2.688   5.354
47383SOL    HW244047   1.732   2.670   5.491
47384SOL     OW44048   0.879  11.273   8.073
47384SOL    HW144049   0.913  11.195   8.031
47384SOL    HW244050   0.894  11.259   8.167
47385SOL     OW44051   3.859   2.344   5.573
47385SOL    HW144052   3.828   2.331   5.663
47385SOL    HW244053   3.949   2.312   5.574
47386SOL     OW44054  11.094  12.769   8.891
47386SOL    HW144055  11.038  12.723   8.828
47386SOL    HW244056  11.102  12.709   8.964
47387SOL     OW44057   2.407  10.442  11.296
47387SOL    HW144058   2.501  10.460  11.298
47387SOL    HW244059   2.387  10.429  11.203
47388SOL     OW44060   5.417   1.219  14.405
47388SOL    HW144061   5.426   1.179  14.318
47388SOL    HW244062   5.356   1.292  14.391
47389SOL     OW44063   4.139  10.654   7.032
47389SOL    HW144064   4.123  10.633   7.124
47389SOL    HW244065   4.127  10.749   7.026
47390SOL     OW44066   6.826   4.649  11.475
47390SOL    HW144067   6.887   4.721  11.460
47390SOL    HW244068   6.765   4.653  11.401
47391SOL     OW44069   3.055  11.565   5.153
47391SOL    HW144070   3.037  11.482   5.197
47391SOL    HW244071   3.145  11.557   5.122
47392SOL     OW44072   0.080   0.572  13.059
47392SOL    HW144073   0.095   0.656  13.016
47392SOL    HW244074   0.135   0.510  13.010
47393SOL     OW44075   7.517   6.631  14.503
47393SOL    HW144076   7.459   6.682  14.560
47393SOL    HW244077   7.474   6.633  14.418
47394SOL     OW44078   0.639   0.394   5.530
47394SOL    HW144079   0.572   0.385   5.462
47394SOL    HW244080   0.655   0.305   5.560
47395SOL     OW44081   7.137   1.878  14.775
47395SOL    HW144082   7.228   1.896  14.795
47395SOL    HW244083   7.106   1.954  14.727
47396SOL     OW44084  14.640   1.721   0.876
47396SOL    HW144085  14.591   1.770   0.941
47396SOL    HW244086  14.649   1.781   0.802
47397SOL     OW44087   5.088   1.306   5.049
47397SOL    HW144088   5.089   1.277   5.141
47397SOL    HW244089   5.016   1.369   5.045
47398SOL     OW44090  12.327   3.166  11.284
47398SOL    HW144091  12.367   3.093  11.237
47398SOL    HW244092  12.265   3.125  11.344
47399SOL     OW44093   3.307  14.240  14.117
47399SOL    HW144094   3.320  14.272  14.027
47399SOL    HW244095   3.225  14.190  14.113
47400SOL     OW44096  11.189   1.381   5.580
47400SOL    HW144097  11.258   1.379   5.514
47400SOL    HW244098  11.200   1.300   5.630
47401SOL     OW44099  14.182   3.732  13.001
47401SOL    HW144100  14.121   3.772  13.063
47401SOL    HW244101  14.268   3.746  13.039
47402SOL     OW44102   1.819   7.730  10.454
47402SOL    HW144103   1.803   7.682  10.535
47402SOL    HW244104   1.871   7.807  10.482
47403SOL     OW44105  14.205   3.473  10.399
47403SOL    HW144106  14.177   3.558  10.363
47403SOL    HW244107  14.285   3.452  10.352
47404SOL     OW44108  12.955   9.728   8.726
47404SOL    HW144109  12.991   9.707   8.812
47404SOL    HW244110  12.983   9.818   8.709
47405SOL     OW44111  12.145   9.045   3.238
47405SOL    HW144112  12.053   9.068   3.243
47405SOL    HW244113  12.150   8.957   3.274
47406SOL     OW44114   7.420  11.052  14.522
47406SOL    HW144115   7.497  11.070  14.469
47406SOL    HW244116   7.442  11.087  14.609
47407SOL     OW44117  11.288  12.855  14.624
47407SOL    HW144118  11.228  12.896  14.562
47407SOL    HW244119  11.232  12.795  14.675
47408SOL     OW44120  12.932   9.641   9.382
47408SOL    HW144121  12.986   9.720   9.379
47408SOL    HW244122  12.935   9.614   9.473
47409SOL     OW44123   3.669  13.510   0.953
47409SOL    HW144124   3.685  13.588   1.006
47409SOL    HW244125   3.732  13.515   0.881
47410SOL     OW44126   6.833   9.962   7.835
47410SOL    HW144127   6.920   9.963   7.874
47410SOL    HW244128   6.836  10.029   7.767
47411SOL     OW44129  13.188  13.715   7.197
47411SOL    HW144130  13.241  13.782   7.154
47411SOL    HW244131  13.249  13.670   7.256
47412SOL     OW44132   3.927   7.353   3.075
47412SOL    HW144133   3.970   7.357   2.989
47412SOL    HW244134   3.995   7.382   3.137
47413SOL     OW44135   5.822   8.834  12.388
47413SOL    HW144136   5.879   8.911  12.389
47413SOL    HW244137   5.881   8.760  12.402
47414SOL     OW44138   7.940   4.029   3.394
47414SOL    HW144139   7.964   4.077   3.315
47414SOL    HW244140   7.856   3.989   3.373
47415SOL     OW44141   6.171  12.447   6.933
47415SOL    HW144142   6.199  12.481   7.018
47415SOL    HW244143   6.249  12.404   6.898
47416SOL     OW44144  11.407   3.954   6.603
47416SOL    HW144145  11.402   4.048   6.624
47416SOL    HW244146  11.317   3.923   6.608
47417SOL     OW44147   0.625   5.479  12.130
47417SOL    HW144148   0.570   5.540  12.082
47417SOL    HW244149   0.615   5.395  12.085
47418SOL     OW44150   7.440   8.797   9.399
47418SOL    HW144151   7.502   8.770   9.468
47418SOL    HW244152   7.416   8.886   9.423
47419SOL     OW44153   8.144   4.545   3.342
47419SOL    HW144154   8.200   4.623   3.337
47419SOL    HW244155   8.090   4.559   3.419
47420SOL     OW44156   6.642  13.954   1.059
47420SOL    HW144157   6.696  14.016   1.008
47420SOL    HW244158   6.674  13.963   1.149
47421SOL     OW44159   5.785   9.558   9.189
47421SOL    HW144160   5.762   9.651   9.194
47421SOL    HW244161   5.861   9.554   9.130
47422SOL     OW44162   5.080   3.219   3.024
47422SOL    HW144163   5.000   3.170   3.047
47422SOL    HW244164   5.141   3.151   2.994
47423SOL     OW44165  14.396   3.267   8.094
47423SOL    HW144166  14.412   3.360   8.077
47423SOL    HW244167  14.395   3.261   8.190
47424SOL     OW44168   3.341  12.182  13.175
47424SOL    HW144169   3.294  12.104  13.206
47424SOL    HW244170   3.366  12.228  13.255
47425SOL     OW44171  10.208  11.838   6.574
47425SOL    HW144172  10.200  11.863   6.482
47425SOL    HW244173  10.302  11.826   6.588
47426SOL     OW44174   0.862   6.661   3.928
47426SOL    HW144175   0.845   6.716   3.851
47426SOL    HW244176   0.836   6.573   3.900
47427SOL     OW44177  11.930   6.624  12.549
47427SOL    HW144178  11.890   6.700  12.507
47427SOL    HW244179  11.869   6.552  12.531
47428SOL     OW44180   8.514  12.474   5.134
47428SOL    HW144181   8.492  12.466   5.041
47428SOL    HW244182   8.494  12.565   5.155
47429SOL     OW44183  11.648   8.945   8.421
47429SOL    HW144184  11.560   8.970   8.393
47429SOL    HW244185  11.634   8.897   8.503
47430SOL     OW44186  10.799   8.777  14.365
47430SOL    HW144187  10.748   8.817  14.295
47430SOL    HW244188  10.832   8.695  14.326
47431SOL     OW44189   1.978  11.414   9.314
47431SOL    HW144190   1.886  11.391   9.299
47431SOL    HW244191   2.000  11.475   9.244
47432SOL     OW44192   8.955   0.815   9.933
47432SOL    HW144193   8.956   0.724   9.962
47432SOL    HW244194   8.992   0.811   9.844
47433SOL     OW44195   3.074   5.165   6.116
47433SOL    HW144196   3.055   5.250   6.077
47433SOL    HW244197   3.109   5.113   6.044
47434SOL     OW44198   4.424   0.172   3.487
47434SOL    HW144199   4.461   0.102   3.541
47434SOL    HW244200   4.403   0.129   3.404
47435SOL     OW44201  12.411  11.546   8.851
47435SOL    HW144202  12.381  11.539   8.760
47435SOL    HW244203  12.504  11.565   8.845
47436SOL     OW44204   5.996   6.169   4.083
47436SOL    HW144205   5.930   6.111   4.121
47436SOL    HW244206   6.066   6.111   4.054
47437SOL     OW44207  11.445  11.501   0.796
47437SOL    HW144208  11.480  11.506   0.707
47437SOL    HW244209  11.517  11.530   0.852
47438SOL     OW44210  14.653   3.459   6.500
47438SOL    HW144211  14.671   3.367   6.478
47438SOL    HW244212  14.558   3.464   6.503
47439SOL     OW44213   9.240  12.895  12.389
47439SOL    HW144214   9.158  12.926  12.428
47439SOL    HW244215   9.225  12.903  12.295
47440SOL     OW44216   5.574   2.924  13.820
47440SOL    HW144217   5.607   2.939  13.909
47440SOL    HW244218   5.646   2.881  13.775
47441SOL     OW44219  14.674   8.992   3.481
47441SOL    HW144220  14.598   9.025   3.432
47441SOL    HW244221  14.655   9.015   3.573
47442SOL     OW44222  11.421   8.566   1.248
47442SOL    HW144223  11.330   8.559   1.277
47442SOL    HW244224  11.456   8.477   1.255
47443SOL     OW44225  11.981   3.062  12.430
47443SOL    HW144226  11.998   3.077  12.337
47443SOL    HW244227  11.898   3.013  12.432
47444SOL     OW44228  13.925   0.921   2.630
47444SOL    HW144229  13.911   0.882   2.544
47444SOL    HW244230  13.852   0.888   2.683
47445SOL     OW44231   4.232   0.117  10.681
47445SOL    HW144232   4.191   0.111  10.767
47445SOL    HW244233   4.310   0.060  10.688
47446SOL     OW44234   0.018   8.680   4.932
47446SOL    HW144235   0.056   8.592   4.924
47446SOL    HW244236  14.809   8.671   4.900
47447SOL     OW44237   2.207   4.784   8.062
47447SOL    HW144238   2.254   4.867   8.058
47447SOL    HW244239   2.200   4.756   7.971
47448SOL     OW44240   5.664   6.679  12.975
47448SOL    HW144241   5.672   6.617  13.047
47448SOL    HW244242   5.744   6.732  12.979
47449SOL     OW44243  14.017   6.317   3.921
47449SOL    HW144244  13.995   6.402   3.959
47449SOL    HW244245  13.945   6.298   3.861
47450SOL     OW44246   7.604   5.960  12.045
47450SOL    HW144247   7.533   6.011  12.085
47450SOL    HW244248   7.614   5.884  12.102
47451SOL     OW44249   9.614   3.441  13.191
47451SOL    HW144250   9.675   3.482  13.253
47451SOL    HW244251   9.567   3.514  13.152
47452SOL     OW44252   3.157   9.678   1.245
47452SOL    HW144253   3.187   9.600   1.291
47452SOL    HW244254   3.228   9.742   1.256
47453SOL     OW44255  13.285   0.572   8.426
47453SOL    HW144256  13.241   0.657   8.415
47453SOL    HW244257  13.246   0.516   8.358
47454SOL     OW44258   0.188   5.963  12.256
47454SOL    HW144259   0.115   6.024  12.250
47454SOL    HW244260   0.176   5.919  12.341
47455SOL     OW44261   7.695  13.608   6.699
47455SOL    HW144262   7.625  13.607   6.764
47455SOL    HW244263   7.745  13.687   6.718
47456SOL     OW44264   2.061   6.740   8.588
47456SOL    HW144265   2.056   6.799   8.663
47456SOL    HW244266   2.091   6.795   8.516
47457SOL     OW44267   3.664   7.272  12.328
47457SOL    HW144268   3.606   7.199  12.350
47457SOL    HW244269   3.634   7.300  12.241
47458SOL     OW44270  11.831  11.364  14.348
47458SOL    HW144271  11.868  11.450  14.369
47458SOL    HW244272  11.792  11.334  14.430
47459SOL     OW44273   0.573   5.946   1.308
47459SOL    HW144274   0.581   6.041   1.308
47459SOL    HW244275   0.627   5.916   1.235
47460SOL     OW44276   8.734   4.963   5.434
47460SOL    HW144277   8.758   4.874   5.458
47460SOL    HW244278   8.684   4.954   5.354
47461SOL     OW44279   4.222   9.147   4.391
47461SOL    HW144280   4.188   9.066   4.427
47461SOL    HW244281   4.201   9.214   4.456
47462SOL     OW44282  10.160   0.986   9.147
47462SOL    HW144283  10.193   0.896   9.144
47462SOL    HW244284  10.233   1.039   9.115
47463SOL     OW44285   9.388   3.105   5.559
47463SOL    HW144286   9.376   3.024   5.508
47463SOL    HW244287   9.463   3.087   5.614
47464SOL     OW44288  11.069   7.732   4.777
47464SOL    HW144289  11.120   7.739   4.858
47464SOL    HW244290  11.110   7.795   4.717
47465SOL     OW44291  12.183   4.861   4.980
47465SOL    HW144292  12.242   4.791   4.952
47465SOL    HW244293  12.116   4.816   5.032
47466SOL     OW44294   9.619  13.136  12.693
47466SOL    HW144295   9.619  13.204  12.626
47466SOL    HW244296   9.540  13.084  12.674
47467SOL     OW44297   7.316   2.330   9.289
47467SOL    HW144298   7.375   2.264   9.253
47467SOL    HW244299   7.297   2.389   9.216
47468SOL     OW44300  10.983   5.978   4.214
47468SOL    HW144301  10.930   6.010   4.286
47468SOL    HW244302  11.022   6.056   4.174
47469SOL     OW44303   2.070   5.067   5.833
47469SOL    HW144304   2.097   5.137   5.892
47469SOL    HW244305   2.110   5.090   5.749
47470SOL     OW44306   9.935  14.584   8.096
47470SOL    HW144307   9.962  14.492   8.095
47470SOL    HW244308   9.842  14.583   8.075
47471SOL     OW44309  10.013   7.349   2.410
47471SOL    HW144310   9.927   7.331   2.372
47471SOL    HW244311  10.025   7.443   2.400
47472SOL     OW44312   7.701   6.653   8.773
47472SOL    HW144313   7.735   6.733   8.733
47472SOL    HW244314   7.690   6.674   8.865
47473SOL     OW44315   7.089   0.275  10.711
47473SOL    HW144316   7.115   0.233  10.793
47473SOL    HW244317   7.000   0.306  10.727
47474SOL     OW44318   3.257  14.250  10.302
47474SOL    HW144319   3.346  14.284  10.296
47474SOL    HW244320   3.209  14.318  10.350
47475SOL     OW44321  10.016   6.788  13.455
47475SOL    HW144322   9.946   6.739  13.411
47475SOL    HW244323  10.079   6.720  13.481
47476SOL     OW44324   6.355  11.165   6.346
47476SOL    HW144325   6.276  11.128   6.386
47476SOL    HW244326   6.425  11.144   6.408
47477SOL     OW44327   7.383   7.950   4.998
47477SOL    HW144328   7.309   8.003   4.968
47477SOL    HW244329   7.452   8.013   5.018
47478SOL     OW44330  11.081  12.213   5.368
47478SOL    HW144331  11.007  12.249   5.320
47478SOL    HW244332  11.064  12.119   5.373
47479SOL     OW44333   7.289   2.845   2.334
47479SOL    HW144334   7.223   2.897   2.287
47479SOL    HW244335   7.259   2.755   2.325
47480SOL     OW44336   2.573   8.537   1.412
47480SOL    HW144337   2.500   8.517   1.354
47480SOL    HW244338   2.615   8.452   1.429
47481SOL     OW44339   6.867  11.137  12.965
47481SOL    HW144340   6.779  11.163  12.992
47481SOL    HW244341   6.924  11.203  13.005
47482SOL     OW44342   4.685   9.211   8.811
47482SOL    HW144343   4.779   9.210   8.828
47482SOL    HW244344   4.651   9.133   8.854
47483SOL     OW44345   2.118  13.789  14.635
47483SOL    HW144346   2.211  13.789  14.659
47483SOL    HW244347   2.110  13.861  14.573
47484SOL     OW44348   5.147   2.280   5.655
47484SOL    HW144349   5.174   2.202   5.606
47484SOL    HW244350   5.063   2.255   5.694
47485SOL     OW44351   9.474   9.734   4.968
47485SOL    HW144352   9.388   9.694   4.950
47485SOL    HW244353   9.493   9.710   5.059
47486SOL     OW44354   4.720   3.774   8.764
47486SOL    HW144355   4.783   3.831   8.720
47486SOL    HW244356   4.680   3.830   8.831
47487SOL     OW44357   4.220  11.915   6.041
47487SOL    HW144358   4.139  11.965   6.032
47487SOL    HW244359   4.194  11.824   6.028
47488SOL     OW44360   4.559   9.731   9.491
47488SOL    HW144361   4.566   9.756   9.583
47488SOL    HW244362   4.535   9.639   9.493
47489SOL     OW44363   3.804   5.353   8.374
47489SOL    HW144364   3.745   5.370   8.301
47489SOL    HW244365   3.747   5.329   8.447
47490SOL     OW44366  10.100   7.698   8.074
47490SOL    HW144367  10.145   7.775   8.038
47490SOL    HW244368  10.155   7.624   8.048
47491SOL     OW44369  10.999   2.514   0.782
47491SOL    HW144370  10.988   2.503   0.876
47491SOL    HW244371  10.933   2.456   0.743
47492SOL     OW44372   8.765   7.443   9.361
47492SOL    HW144373   8.762   7.538   9.371
47492SOL    HW244374   8.734   7.409   9.445
47493SOL     OW44375   3.751   3.210   6.798
47493SOL    HW144376   3.761   3.282   6.736
47493SOL    HW244377   3.699   3.248   6.870
47494SOL     OW44378  10.525   3.672   3.128
47494SOL    HW144379  10.609   3.688   3.085
47494SOL    HW244380  10.529   3.723   3.208
47495SOL     OW44381   6.884   1.776   9.917
47495SOL    HW144382   6.964   1.798   9.869
47495SOL    HW244383   6.884   1.681   9.922
47496SOL     OW44384  11.941   9.399   4.640
47496SOL    HW144385  11.913   9.487   4.664
47496SOL    HW244386  11.860   9.351   4.622
47497SOL     OW44387   1.360   7.789   6.706
47497SOL    HW144388   1.318   7.868   6.740
47497SOL    HW244389   1.365   7.730   6.781
47498SOL     OW44390   3.302  12.526  13.267
47498SOL    HW144391   3.333  12.493  13.183
47498SOL    HW244392   3.314  12.621  13.261
47499SOL     OW44393   1.321   1.585  13.684
47499SOL    HW144394   1.327   1.676  13.655
47499SOL    HW244395   1.399   1.544  13.647
47500SOL     OW44396   2.879   3.972   9.111
47500SOL    HW144397   2.813   3.959   9.044
47500SOL    HW244398   2.874   3.893   9.165
47501SOL     OW44399   5.565   7.205  12.248
47501SOL    HW144400   5.574   7.110  12.254
47501SOL    HW244401   5.578   7.237  12.337
47502SOL     OW44402   4.230   0.210  12.962
47502SOL    HW144403   4.162   0.173  12.906
47502SOL    HW244404   4.185   0.278  13.013
47503SOL     OW44405   2.677   8.950  13.677
47503SOL    HW144406   2.716   8.868  13.707
47503SOL    HW244407   2.606   8.922  13.619
47504SOL     OW44408   8.537   4.060   1.080
47504SOL    HW144409   8.597   3.996   1.118
47504SOL    HW244410   8.561   4.063   0.987
47505SOL     OW44411   0.609   1.485   8.260
47505SOL    HW144412   0.672   1.517   8.325
47505SOL    HW244413   0.528   1.532   8.280
47506SOL     OW44414   9.606   0.079   4.960
47506SOL    HW144415   9.526   0.046   4.919
47506SOL    HW244416   9.632   0.153   4.905
47507SOL     OW44417   4.168   8.570  14.102
47507SOL    HW144418   4.127   8.597  14.020
47507SOL    HW244419   4.247   8.522  14.074
47508SOL     OW44420   6.160  10.002   1.230
47508SOL    HW144421   6.245   9.995   1.186
47508SOL    HW244422   6.137  10.094   1.223
47509SOL     OW44423   2.303   3.808   9.833
47509SOL    HW144424   2.250   3.729   9.816
47509SOL    HW244425   2.265   3.875   9.776
47510SOL     OW44426   1.309  12.635   2.016
47510SOL    HW144427   1.253  12.707   2.046
47510SOL    HW244428   1.330  12.658   1.926
47511SOL     OW44429   2.706  11.460   3.043
47511SOL    HW144430   2.661  11.492   3.121
47511SOL    HW244431   2.664  11.506   2.971
47512SOL     OW44432  13.007   5.642   6.700
47512SOL    HW144433  12.917   5.675   6.695
47512SOL    HW244434  13.023   5.604   6.614
47513SOL     OW44435   5.756   1.600  12.716
47513SOL    HW144436   5.661   1.596  12.721
47513SOL    HW244437   5.782   1.630  12.804
47514SOL     OW44438  10.773   9.714   6.328
47514SOL    HW144439  10.814   9.756   6.252
47514SOL    HW244440  10.718   9.783   6.366
47515SOL     OW44441  13.086   8.729   2.697
47515SOL    HW144442  13.013   8.705   2.639
47515SOL    HW244443  13.161   8.737   2.637
47516SOL     OW44444   7.149  12.801  12.152
47516SOL    HW144445   7.176  12.714  12.122
47516SOL    HW244446   7.191  12.861  12.090
47517SOL     OW44447  13.092  10.376   1.898
47517SOL    HW144448  13.062  10.384   1.808
47517SOL    HW244449  13.014  10.352   1.947
47518SOL     OW44450   8.003  12.648   3.805
47518SOL    HW144451   7.914  12.613   3.816
47518SOL    HW244452   8.058  12.570   3.796
47519SOL     OW44453  10.296   7.154   4.263
47519SOL    HW144454  10.279   7.062   4.243
47519SOL    HW244455  10.209   7.191   4.280
47520SOL     OW44456  11.055  12.429   0.994
47520SOL    HW144457  10.969  12.389   0.979
47520SOL    HW244458  11.042  12.522   0.979
47521SOL     OW44459  11.944   4.156   0.729
47521SOL    HW144460  11.849   4.149   0.718
47521SOL    HW244461  11.958   4.145   0.823
47522SOL     OW44462   1.229  12.004  14.180
47522SOL    HW144463   1.265  12.047  14.102
47522SOL    HW244464   1.290  12.028  14.250
47523SOL     OW44465   5.250  11.755  13.367
47523SOL    HW144466   5.327  11.716  13.409
47523SOL    HW244467   5.254  11.848  13.392
47524SOL     OW44468   3.595   3.375   6.960
47524SOL    HW144469   3.506   3.395   6.933
47524SOL    HW244470   3.646   3.452   6.936
47525SOL     OW44471   1.168   1.907   4.522
47525SOL    HW144472   1.196   1.974   4.584
47525SOL    HW244473   1.211   1.931   4.440
47526SOL     OW44474   7.276   7.136   2.015
47526SOL    HW144475   7.330   7.212   1.996
47526SOL    HW244476   7.338   7.062   2.017
47527SOL     OW44477  13.289   9.255   6.332
47527SOL    HW144478  13.367   9.299   6.298
47527SOL    HW244479  13.300   9.163   6.305
47528SOL     OW44480  14.744   0.324  10.762
47528SOL    HW144481  14.781   0.238  10.783
47528SOL    HW244482  14.801   0.358  10.694
47529SOL     OW44483   0.335  11.775  10.803
47529SOL    HW144484   0.322  11.698  10.748
47529SOL    HW244485   0.247  11.811  10.815
47530SOL     OW44486   3.996   4.832   1.632
47530SOL    HW144487   4.062   4.777   1.589
47530SOL    HW244488   3.998   4.804   1.723
47531SOL     OW44489   8.529   7.752  13.731
47531SOL    HW144490   8.554   7.839  13.700
47531SOL    HW244491   8.561   7.748  13.821
47532SOL     OW44492   1.835   9.269   4.434
47532SOL    HW144493   1.745   9.249   4.462
47532SOL    HW244494   1.837   9.246   4.342
47533SOL     OW44495  12.443  13.892   1.093
47533SOL    HW144496  12.390  13.939   1.157
47533SOL    HW244497  12.435  13.800   1.118
47534SOL     OW44498   5.567   7.593   4.283
47534SOL    HW144499   5.533   7.611   4.195
47534SOL    HW244500   5.559   7.498   4.293
47535SOL     OW44501  10.789   3.177   2.616
47535SOL    HW144502  10.721   3.124   2.573
47535SOL    HW244503  10.747   3.261   2.632
47536SOL     OW44504  12.768   9.019   6.705
47536SOL    HW144505  12.796   9.077   6.776
47536SOL    HW244506  12.675   9.005   6.720
47537SOL     OW44507   9.069   8.815  13.805
47537SOL    HW144508   9.156   8.778  13.794
47537SOL    HW244509   9.024   8.754  13.864
47538SOL     OW44510  10.584   1.138  12.904
47538SOL    HW144511  10.593   1.090  12.821
47538SOL    HW244512  10.662   1.114  12.954
47539SOL     OW44513   5.918   5.800   7.306
47539SOL    HW144514   5.870   5.719   7.324
47539SOL    HW244515   6.008   5.771   7.289
47540SOL     OW44516   6.151   4.053   8.368
47540SOL    HW144517   6.212   4.066   8.296
47540SOL    HW244518   6.140   3.959   8.375
47541SOL     OW44519   6.612   2.764  11.753
47541SOL    HW144520   6.609   2.835  11.690
47541SOL    HW244521   6.683   2.708  11.723
47542SOL     OW44522   0.304  14.659   9.145
47542SOL    HW144523   0.326  14.571   9.113
47542SOL    HW244524   0.215  14.674   9.115
47543SOL     OW44525   0.997   4.222  11.792
47543SOL    HW144526   1.078   4.197  11.748
47543SOL    HW244527   1.023   4.241  11.882
47544SOL     OW44528  11.704  13.966   1.902
47544SOL    HW144529  11.770  13.900   1.880
47544SOL    HW244530  11.712  13.977   1.997
47545SOL     OW44531  13.187   8.740  10.588
47545SOL    HW144532  13.157   8.800  10.657
47545SOL    HW244533  13.117   8.675  10.582
47546SOL     OW44534   1.841  14.246   2.310
47546SOL    HW144535   1.825  14.174   2.370
47546SOL    HW244536   1.784  14.229   2.235
47547SOL     OW44537   7.051   4.209   3.456
47547SOL    HW144538   6.968   4.252   3.438
47547SOL    HW244539   7.050   4.130   3.402
47548SOL     OW44540   8.031  11.960   8.745
47548SOL    HW144541   8.057  12.027   8.808
47548SOL    HW244542   8.114  11.930   8.708
47549SOL     OW44543  11.982   0.752   4.983
47549SOL    HW144544  12.039   0.685   4.946
47549SOL    HW244545  12.026   0.834   4.964
47550SOL     OW44546   6.665  11.257   5.643
47550SOL    HW144547   6.696  11.345   5.663
47550SOL    HW244548   6.608  11.269   5.567
47551SOL     OW44549  11.738  12.269   4.046
47551SOL    HW144550  11.799  12.336   4.016
47551SOL    HW244551  11.773  12.187   4.010
47552SOL     OW44552  10.312   2.239  13.609
47552SOL    HW144553  10.311   2.326  13.651
47552SOL    HW244554  10.255   2.185  13.664
47553SOL     OW44555   8.037   2.492  13.154
47553SOL    HW144556   7.947   2.524  13.164
47553SOL    HW244557   8.088   2.546  13.213
47554SOL     OW44558   1.190   4.882   7.027
47554SOL    HW144559   1.275   4.925   7.033
47554SOL    HW244560   1.211   4.790   7.009
47555SOL     OW44561   5.004  10.313  11.277
47555SOL    HW144562   5.023  10.321  11.183
47555SOL    HW244563   4.915  10.278  11.281
47556SOL     OW44564   4.884   6.793   0.361
47556SOL    HW144565   4.842   6.767   0.443
47556SOL    HW244566   4.977   6.775   0.375
47557SOL     OW44567  12.704   8.752   3.778
47557SOL    HW144568  12.655   8.725   3.855
47557SOL    HW244569  12.670   8.838   3.757
47558SOL     OW44570  14.159   7.417   0.025
47558SOL    HW144571  14.205   7.335   0.038
47558SOL    HW244572  14.202   7.479   0.084
47559SOL     OW44573  11.906  10.427   1.515
47559SOL    HW144574  11.973  10.472   1.567
47559SOL    HW244575  11.835  10.490   1.506
47560SOL     OW44576   1.404  12.364  10.429
47560SOL    HW144577   1.355  12.429  10.480
47560SOL    HW244578   1.374  12.376  10.339
47561SOL     OW44579   9.349  13.677  12.726
47561SOL    HW144580   9.433  13.665  12.769
47561SOL    HW244581   9.292  13.610  12.765
47562SOL     OW44582  14.808  11.329   7.161
47562SOL    HW144583  14.836  11.240   7.177
47562SOL    HW244584  14.793  11.333   7.066
47563SOL     OW44585  14.380  12.923   2.978
47563SOL    HW144586  14.360  12.829   2.977
47563SOL    HW244587  14.402  12.942   3.069
47564SOL     OW44588   8.909  10.601   7.394
47564SOL    HW144589   8.914  10.559   7.480
47564SOL    HW244590   8.908  10.528   7.332
47565SOL     OW44591   6.620   6.168  10.145
47565SOL    HW144592   6.585   6.240  10.092
47565SOL    HW244593   6.707   6.198  10.170
47566SOL     OW44594  14.293   1.688   4.826
47566SOL    HW144595  14.303   1.779   4.796
47566SOL    HW244596  14.309   1.635   4.748
47567SOL     OW44597   5.313   4.219   2.026
47567SOL    HW144598   5.274   4.133   2.013
47567SOL    HW244599   5.305   4.262   1.941
47568SOL     OW44600   9.952   2.332   3.703
47568SOL    HW144601  10.000   2.375   3.632
47568SOL    HW244602   9.861   2.360   3.691
47569SOL     OW44603   4.878   3.721  11.349
47569SOL    HW144604   4.849   3.758  11.265
47569SOL    HW244605   4.939   3.786  11.383
47570SOL     OW44606   0.522   9.940   9.270
47570SOL    HW144607   0.501   9.992   9.192
47570SOL    HW244608   0.565   9.862   9.234
47571SOL     OW44609  14.550   5.744  10.563
47571SOL    HW144610  14.630   5.790  10.587
47571SOL    HW244611  14.519   5.790  10.484
47572SOL     OW44612   1.635   0.906  12.226
47572SOL    HW144613   1.666   0.859  12.149
47572SOL    HW244614   1.624   0.996  12.196
47573SOL     OW44615   4.429   4.563   7.111
47573SOL    HW144616   4.508   4.517   7.083
47573SOL    HW244617   4.397   4.512   7.186
47574SOL     OW44618   1.382  13.918   4.215
47574SOL    HW144619   1.386  14.013   4.199
47574SOL    HW244620   1.440  13.881   4.148
47575SOL     OW44621  12.668   6.707  12.614
47575SOL    HW144622  12.671   6.612  12.622
47575SOL    HW244623  12.580   6.726  12.582
47576SOL     OW44624   9.597   3.090   2.416
47576SOL    HW144625   9.509   3.065   2.443
47576SOL    HW244626   9.584   3.139   2.335
47577SOL     OW44627   1.897   0.859   5.504
47577SOL    HW144628   1.810   0.826   5.481
47577SOL    HW244629   1.920   0.919   5.433
47578SOL     OW44630   9.672   1.949   1.211
47578SOL    HW144631   9.627   2.020   1.165
47578SOL    HW244632   9.670   1.975   1.303
47579SOL     OW44633  11.951  10.981   1.167
47579SOL    HW144634  11.924  10.945   1.251
47579SOL    HW244635  11.948  11.076   1.179
47580SOL     OW44636   0.488   1.987  11.924
47580SOL    HW144637   0.524   1.975  11.836
47580SOL    HW244638   0.544   2.053  11.964
47581SOL     OW44639   6.199  14.107   9.530
47581SOL    HW144640   6.223  14.129   9.440
47581SOL    HW244641   6.106  14.083   9.525
47582SOL     OW44642   3.906   4.383  14.605
47582SOL    HW144643   3.938   4.298  14.633
47582SOL    HW244644   3.963   4.407  14.531
47583SOL     OW44645   7.610  12.127  11.977
47583SOL    HW144646   7.682  12.086  12.023
47583SOL    HW244647   7.561  12.054  11.939
47584SOL     OW44648   3.891   7.803   0.861
47584SOL    HW144649   3.865   7.888   0.897
47584SOL    HW244650   3.890   7.744   0.936
47585SOL     OW44651   0.933   0.781  12.385
47585SOL    HW144652   0.991   0.710  12.358
47585SOL    HW244653   0.967   0.810  12.469
47586SOL     OW44654   7.395   9.109   3.642
47586SOL    HW144655   7.397   9.037   3.578
47586SOL    HW244656   7.319   9.089   3.697
47587SOL     OW44657   0.622   7.835   5.510
47587SOL    HW144658   0.688   7.893   5.549
47587SOL    HW244659   0.540   7.862   5.551
47588SOL     OW44660   2.627   5.060  11.683
47588SOL    HW144661   2.564   5.004  11.638
47588SOL    HW244662   2.578   5.099  11.755
47589SOL     OW44663   8.587  11.099   2.971
47589SOL    HW144664   8.588  11.192   2.945
47589SOL    HW244665   8.674  11.084   3.008
47590SOL     OW44666   6.273   4.658   9.817
47590SOL    HW144667   6.281   4.563   9.813
47590SOL    HW244668   6.323   4.684   9.894
47591SOL     OW44669  12.422  11.102  11.798
47591SOL    HW144670  12.465  11.074  11.879
47591SOL    HW244671  12.408  11.196  11.810
47592SOL     OW44672   4.016  10.003   9.747
47592SOL    HW144673   3.986  10.049   9.669
47592SOL    HW244674   4.111  10.001   9.739
47593SOL     OW44675   2.037  12.261  12.637
47593SOL    HW144676   1.944  12.247  12.625
47593SOL    HW244677   2.076  12.174  12.631
47594SOL     OW44678   7.633   7.569  14.134
47594SOL    HW144679   7.601   7.522  14.057
47594SOL    HW244680   7.606   7.515  14.208
47595SOL     OW44681   3.577   2.172   8.932
47595SOL    HW144682   3.628   2.247   8.962
47595SOL    HW244683   3.494   2.178   8.980
47596SOL     OW44684   1.535  13.273  13.184
47596SOL    HW144685   1.545  13.258  13.090
47596SOL    HW244686   1.441  13.268  13.199
47597SOL     OW44687   1.878   2.874   8.205
47597SOL    HW144688   1.940   2.911   8.142
47597SOL    HW244689   1.852   2.791   8.166
47598SOL     OW44690   8.673   6.248   3.867
47598SOL    HW144691   8.578   6.242   3.866
47598SOL    HW244692   8.691   6.319   3.929
47599SOL     OW44693  10.674   0.100   4.099
47599SOL    HW144694  10.726   0.149   4.036
47599SOL    HW244695  10.738   0.063   4.160
47600SOL     OW44696   2.532   3.910   0.301
47600SOL    HW144697   2.499   3.894   0.389
47600SOL    HW244698   2.586   3.833   0.281
47601SOL     OW44699   3.512   4.613  10.739
47601SOL    HW144700   3.584   4.642  10.683
47601SOL    HW244701   3.435   4.656  10.702
47602SOL     OW44702   8.973  12.738  10.155
47602SOL    HW144703   8.939  12.727  10.244
47602SOL    HW244704   9.031  12.814  10.161
47603SOL     OW44705   1.116   3.405   9.654
47603SOL    HW144706   1.035   3.456   9.647
47603SOL    HW244707   1.088   3.315   9.641
47604SOL     OW44708   4.059   6.192   3.545
47604SOL    HW144709   4.005   6.131   3.595
47604SOL    HW244710   4.059   6.273   3.596
47605SOL     OW44711  11.717  10.145  11.458
47605SOL    HW144712  11.638  10.199  11.461
47605SOL    HW244713  11.737  10.128  11.550
47606SOL     OW44714  11.724   3.846  11.023
47606SOL    HW144715  11.805   3.889  11.052
47606SOL    HW244716  11.655   3.887  11.076
47607SOL     OW44717   0.461   1.537  13.571
47607SOL    HW144718   0.402   1.525  13.496
47607SOL    HW244719   0.507   1.453  13.579
47608SOL     OW44720   9.319  11.527  14.527
47608SOL    HW144721   9.278  11.599  14.478
47608SOL    HW244722   9.343  11.567  14.611
47609SOL     OW44723   6.843  14.221   7.568
47609SOL    HW144724   6.844  14.146   7.628
47609SOL    HW244725   6.894  14.288   7.614
47610SOL     OW44726  11.806   1.003   1.647
47610SOL    HW144727  11.785   0.942   1.718
47610SOL    HW244728  11.758   0.970   1.571
47611SOL     OW44729   8.059   7.390  10.480
47611SOL    HW144730   8.063   7.365  10.573
47611SOL    HW244731   8.148   7.378  10.448
47612SOL     OW44732   0.027  14.165   7.919
47612SOL    HW144733   0.100  14.203   7.967
47612SOL    HW244734   0.034  14.202   7.831
47613SOL     OW44735   1.720   5.973   1.161
47613SOL    HW144736   1.651   5.999   1.222
47613SOL    HW244737   1.765   6.054   1.139
47614SOL     OW44738  10.291   9.427  13.577
47614SOL    HW144739  10.317   9.350  13.627
47614SOL    HW244740  10.314   9.501  13.634
47615SOL     OW44741   0.085   3.009  12.665
47615SOL    HW144742   0.087   3.105  12.664
47615SOL    HW244743   0.164   2.983  12.617
47616SOL     OW44744   3.052   8.808   4.520
47616SOL    HW144745   2.962   8.840   4.529
47616SOL    HW244746   3.079   8.788   4.610
47617SOL     OW44747  11.227   7.825   4.986
47617SOL    HW144748  11.276   7.772   5.049
47617SOL    HW244749  11.288   7.894   4.960
47618SOL     OW44750  12.989   8.464   4.033
47618SOL    HW144751  13.016   8.553   4.009
47618SOL    HW244752  12.933   8.476   4.109
47619SOL     OW44753   1.593   3.093   4.823
47619SOL    HW144754   1.508   3.128   4.796
47619SOL    HW244755   1.579   2.999   4.832
47620SOL     OW44756   0.562   2.508   5.935
47620SOL    HW144757   0.655   2.531   5.940
47620SOL    HW244758   0.559   2.413   5.944
47621SOL     OW44759  11.312  14.179   9.282
47621SOL    HW144760  11.252  14.225   9.224
47621SOL    HW244761  11.283  14.202   9.370
47622SOL     OW44762   9.109   8.586   3.235
47622SOL    HW144763   9.085   8.508   3.184
47622SOL    HW244764   9.033   8.602   3.291
47623SOL     OW44765   2.285  10.217  11.713
47623SOL    HW144766   2.217  10.264  11.761
47623SOL    HW244767   2.240  10.184  11.635
47624SOL     OW44768   7.764   6.706   9.025
47624SOL    HW144769   7.760   6.669   9.114
47624SOL    HW244770   7.752   6.800   9.038
47625SOL     OW44771  14.284   2.520  13.687
47625SOL    HW144772  14.352   2.491  13.748
47625SOL    HW244773  14.258   2.607  13.719
47626SOL     OW44774   1.922  14.597   7.495
47626SOL    HW144775   1.893  14.517   7.451
47626SOL    HW244776   1.853  14.660   7.476
47627SOL     OW44777  10.799   3.389   5.188
47627SOL    HW144778  10.712   3.408   5.225
47627SOL    HW244779  10.824   3.470   5.144
47628SOL     OW44780   7.107   3.247  14.222
47628SOL    HW144781   7.083   3.338  14.237
47628SOL    HW244782   7.105   3.237  14.127
47629SOL     OW44783   5.283   8.804  13.812
47629SOL    HW144784   5.313   8.833  13.726
47629SOL    HW244785   5.227   8.875  13.844
47630SOL     OW44786   9.753  12.937   8.685
47630SOL    HW144787   9.692  13.008   8.663
47630SOL    HW244788   9.699  12.873   8.730
47631SOL     OW44789   5.769   0.725   4.234
47631SOL    HW144790   5.814   0.664   4.292
47631SOL    HW244791   5.740   0.797   4.291
47632SOL     OW44792  13.943   5.459  14.658
47632SOL    HW144793  13.986   5.541  14.684
47632SOL    HW244794  13.850   5.480  14.656
47633SOL     OW44795   9.353   6.810   2.346
47633SOL    HW144796   9.267   6.772   2.366
47633SOL    HW244797   9.381   6.851   2.428
47634SOL     OW44798   6.628   4.119  10.863
47634SOL    HW144799   6.718   4.100  10.888
47634SOL    HW244800   6.612   4.208  10.896
47635SOL     OW44801  12.805  11.220   6.545
47635SOL    HW144802  12.745  11.146   6.553
47635SOL    HW244803  12.833  11.218   6.453
47636SOL     OW44804   3.449   8.681   7.508
47636SOL    HW144805   3.448   8.689   7.413
47636SOL    HW244806   3.375   8.734   7.537
47637SOL     OW44807   0.407   3.284   0.931
47637SOL    HW144808   0.387   3.202   0.976
47637SOL    HW244809   0.464   3.331   0.992
47638SOL     OW44810   8.760   0.625   0.213
47638SOL    HW144811   8.824   0.634   0.143
47638SOL    HW244812   8.706   0.551   0.188
47639SOL     OW44813  13.157  14.433   9.235
47639SOL    HW144814  13.078  14.486   9.249
47639SOL    HW244815  13.159  14.416   9.141
47640SOL     OW44816   1.924   9.148   8.575
47640SOL    HW144817   1.847   9.165   8.629
47640SOL    HW244818   1.996   9.194   8.620
47641SOL     OW44819   4.784   7.126  12.640
47641SOL    HW144820   4.865   7.086  12.672
47641SOL    HW244821   4.782   7.213  12.678
47642SOL     OW44822   0.646   6.749   9.497
47642SOL    HW144823   0.719   6.761   9.436
47642SOL    HW244824   0.656   6.818   9.562
47643SOL     OW44825   5.737  11.718  14.667
47643SOL    HW144826   5.733  11.733  14.572
47643SOL    HW244827   5.650  11.686  14.690
47644SOL     OW44828   6.996   2.130   3.601
47644SOL    HW144829   6.972   2.076   3.675
47644SOL    HW244830   6.913   2.162   3.566
47645SOL     OW44831  11.225   3.841   5.844
47645SOL    HW144832  11.316   3.813   5.841
47645SOL    HW244833  11.229   3.933   5.870
47646SOL     OW44834   7.346   0.275   5.028
47646SOL    HW144835   7.344   0.202   4.965
47646SOL    HW244836   7.422   0.257   5.082
47647SOL     OW44837  14.682  10.654  10.977
47647SOL    HW144838  14.657  10.612  10.895
47647SOL    HW244839  14.694  10.581  11.038
47648SOL     OW44840   4.200  11.839   0.143
47648SOL    HW144841   4.245  11.914   0.180
47648SOL    HW244842   4.107  11.859   0.153
47649SOL     OW44843   8.569  10.673   1.324
47649SOL    HW144844   8.590  10.597   1.378
47649SOL    HW244845   8.542  10.636   1.240
47650SOL     OW44846   4.770   0.337   3.007
47650SOL    HW144847   4.836   0.319   2.941
47650SOL    HW244848   4.804   0.297   3.087
47651SOL     OW44849  13.467  13.927   5.630
47651SOL    HW144850  13.546  13.953   5.582
47651SOL    HW244851  13.454  13.997   5.694
47652SOL     OW44852   1.306  13.479   4.172
47652SOL    HW144853   1.355  13.499   4.252
47652SOL    HW244854   1.313  13.384   4.164
47653SOL     OW44855   9.692   3.735  10.890
47653SOL    HW144856   9.742   3.655  10.905
47653SOL    HW244857   9.754   3.806  10.905
47654SOL     OW44858   5.523   4.355   6.646
47654SOL    HW144859   5.567   4.272   6.662
47654SOL    HW244860   5.450   4.356   6.708
47655SOL     OW44861  11.601  12.723   5.556
47655SOL    HW144862  11.546  12.647   5.575
47655SOL    HW244863  11.562  12.760   5.476
47656SOL     OW44864  11.696  13.038   2.065
47656SOL    HW144865  11.648  12.976   2.008
47656SOL    HW244866  11.784  13.040   2.028
47657SOL     OW44867   5.447  11.859   6.405
47657SOL    HW144868   5.509  11.891   6.339
47657SOL    HW244869   5.372  11.918   6.398
47658SOL     OW44870   6.489   0.975   8.579
47658SOL    HW144871   6.464   0.889   8.612
47658SOL    HW244872   6.548   1.010   8.646
47659SOL     OW44873   9.879  14.853  12.742
47659SOL    HW144874   9.901   0.065  12.732
47659SOL    HW244875   9.956  14.806  12.711
47660SOL     OW44876   1.426   5.801   0.487
47660SOL    HW144877   1.351   5.802   0.547
47660SOL    HW244878   1.395   5.754   0.410
47661SOL     OW44879  12.787   2.753   7.981
47661SOL    HW144880  12.741   2.673   8.006
47661SOL    HW244881  12.843   2.726   7.908
47662SOL     OW44882   0.876  13.919  10.969
47662SOL    HW144883   0.830  13.952  11.046
47662SOL    HW244884   0.945  13.862  11.003
47663SOL     OW44885  14.243  14.466  12.930
47663SOL    HW144886  14.193  14.520  12.869
47663SOL    HW244887  14.333  14.472  12.898
47664SOL     OW44888   7.715  11.677   9.630
47664SOL    HW144889   7.715  11.595   9.580
47664SOL    HW244890   7.622  11.695   9.647
47665SOL     OW44891   8.078  13.753  13.424
47665SOL    HW144892   8.168  13.723  13.416
47665SOL    HW244893   8.084  13.835  13.474
47666SOL     OW44894   4.960   8.549   1.724
47666SOL    HW144895   4.871   8.519   1.702
47666SOL    HW244896   4.995   8.581   1.641
47667SOL     OW44897   1.216   0.989   1.937
47667SOL    HW144898   1.188   1.031   2.018
47667SOL    HW244899   1.202   1.054   1.869
47668SOL     OW44900  14.764   7.136   1.339
47668SOL    HW144901  14.731   7.104   1.423
47668SOL    HW244902  14.859   7.133   1.348
47669SOL     OW44903   5.664   1.533   3.039
47669SOL    HW144904   5.575   1.505   3.022
47669SOL    HW244905   5.670   1.536   3.135
47670SOL     OW44906   5.228   0.773   8.250
47670SOL    HW144907   5.295   0.839   8.266
47670SOL    HW244908   5.278   0.692   8.234
47671SOL     OW44909   1.682   0.170  10.576
47671SOL    HW144910   1.749   0.102  10.569
47671SOL    HW244911   1.602   0.129  10.542
47672SOL     OW44912   4.464  13.018  13.492
47672SOL    HW144913   4.548  12.975  13.477
47672SOL    HW244914   4.460  13.086  13.424
47673SOL     OW44915   9.753  12.570   6.523
47673SOL    HW144916   9.741  12.509   6.451
47673SOL    HW244917   9.737  12.656   6.484
47674SOL     OW44918  13.110  13.157   5.790
47674SOL    HW144919  13.196  13.125   5.764
47674SOL    HW244920  13.065  13.175   5.707
47675SOL     OW44921   7.533   0.825   1.081
47675SOL    HW144922   7.578   0.767   1.143
47675SOL    HW244923   7.474   0.876   1.135
47676SOL     OW44924   2.416  11.596   3.029
47676SOL    HW144925   2.462  11.673   2.994
47676SOL    HW244926   2.366  11.562   2.955
47677SOL     OW44927  13.453   2.546   5.739
47677SOL    HW144928  13.486   2.636   5.748
47677SOL    HW244929  13.376   2.544   5.796
47678SOL     OW44930   1.351  13.535  13.264
47678SOL    HW144931   1.259  13.558  13.280
47678SOL    HW244932   1.400  13.592  13.323
47679SOL     OW44933   0.019   1.452   5.086
47679SOL    HW144934  14.831   1.504   5.044
47679SOL    HW244935  14.880   1.457   5.179
47680SOL     OW44936   1.022  11.325   4.688
47680SOL    HW144937   1.097  11.344   4.631
47680SOL    HW244938   0.996  11.411   4.722
47681SOL     OW44939   8.282   5.327  11.981
47681SOL    HW144940   8.239   5.244  11.959
47681SOL    HW244941   8.321   5.311  12.067
47682SOL     OW44942   4.449   4.382  12.558
47682SOL    HW144943   4.514   4.426  12.613
47682SOL    HW244944   4.404   4.454  12.512
47683SOL     OW44945  14.134   2.966   1.754
47683SOL    HW144946  14.227   2.965   1.776
47683SOL    HW244947  14.102   2.880   1.782
47684SOL     OW44948   1.017   2.406   1.308
47684SOL    HW144949   0.952   2.355   1.356
47684SOL    HW244950   1.099   2.392   1.355
47685SOL     OW44951   1.620   8.312   1.926
47685SOL    HW144952   1.546   8.269   1.884
47685SOL    HW244953   1.683   8.242   1.941
47686SOL     OW44954   4.616  14.410  14.575
47686SOL    HW144955   4.638  14.503  14.567
47686SOL    HW244956   4.695  14.370  14.612
47687SOL     OW44957   5.155  10.249   2.861
47687SOL    HW144958   5.093  10.176   2.863
47687SOL    HW244959   5.113  10.318   2.912
47688SOL     OW44960  13.213   8.441   5.016
47688SOL    HW144961  13.119   8.449   5.000
47688SOL    HW244962  13.232   8.504   5.086
47689SOL     OW44963   0.028   5.483  13.195
47689SOL    HW144964   0.115   5.477  13.157
47689SOL    HW244965   0.002   5.392  13.210
47690SOL     OW44966   3.414  14.438   6.943
47690SOL    HW144967   3.320  14.424   6.929
47690SOL    HW244968   3.456  14.364   6.900
47691SOL     OW44969   0.531  11.881   7.936
47691SOL    HW144970   0.471  11.882   8.011
47691SOL    HW244971   0.593  11.952   7.955
47692SOL     OW44972   5.259  12.700   6.391
47692SOL    HW144973   5.239  12.728   6.301
47692SOL    HW244974   5.347  12.663   6.386
47693SOL     OW44975   0.930  14.105   8.848
47693SOL    HW144976   0.972  14.090   8.763
47693SOL    HW244977   0.962  14.034   8.903
47694SOL     OW44978   5.707   6.063   5.676
47694SOL    HW144979   5.650   6.087   5.749
47694SOL    HW244980   5.671   5.980   5.644
47695SOL     OW44981  10.427   6.862  11.288
47695SOL    HW144982  10.447   6.906  11.370
47695SOL    HW244983  10.500   6.884  11.230
47696SOL     OW44984   9.290   4.264   2.533
47696SOL    HW144985   9.201   4.238   2.511
47696SOL    HW244986   9.282   4.308   2.617
47697SOL     OW44987  11.105   7.614  10.880
47697SOL    HW144988  11.095   7.586  10.971
47697SOL    HW244989  11.059   7.546  10.830
47698SOL     OW44990   3.867  13.538  10.507
47698SOL    HW144991   3.812  13.468  10.543
47698SOL    HW244992   3.957  13.508  10.521
47699SOL     OW44993   2.686   9.193   8.417
47699SOL    HW144994   2.776   9.161   8.409
47699SOL    HW244995   2.655   9.200   8.327
47700SOL     OW44996   8.621  13.541  12.407
47700SOL    HW144997   8.563  13.577  12.475
47700SOL    HW244998   8.620  13.446  12.423
47701SOL     OW44999   7.475   7.232  14.666
47701SOL    HW145000   7.403   7.176  14.693
47701SOL    HW245001   7.520   7.183  14.597
47702SOL     OW45002   9.274   3.829   8.489
47702SOL    HW145003   9.217   3.764   8.530
47702SOL    HW245004   9.334   3.856   8.559
47703SOL     OW45005   5.212   5.364  10.747
47703SOL    HW145006   5.132   5.395  10.704
47703SOL    HW245007   5.282   5.389  10.687
47704SOL     OW45008   5.465   6.775   2.525
47704SOL    HW145009   5.491   6.683   2.534
47704SOL    HW245010   5.502   6.802   2.441
47705SOL     OW45011   2.885  10.211  12.477
47705SOL    HW145012   2.967  10.167  12.501
47705SOL    HW245013   2.843  10.151  12.415
47706SOL     OW45014  10.184   1.764   1.290
47706SOL    HW145015  10.113   1.727   1.237
47706SOL    HW245016  10.264   1.729   1.251
47707SOL     OW45017   7.924  10.863  11.221
47707SOL    HW145018   7.829  10.858  11.215
47707SOL    HW245019   7.943  10.861  11.315
47708SOL     OW45020  12.704  14.216   0.810
47708SOL    HW145021  12.666  14.146   0.862
47708SOL    HW245022  12.641  14.288   0.818
47709SOL     OW45023  14.189   9.934   7.256
47709SOL    HW145024  14.282   9.950   7.240
47709SOL    HW245025  14.166   9.991   7.329
47710SOL     OW45026   6.896   1.451   4.994
47710SOL    HW145027   6.905   1.420   5.084
47710SOL    HW245028   6.969   1.410   4.947
47711SOL     OW45029   4.142   3.068  13.671
47711SOL    HW145030   4.079   3.131  13.706
47711SOL    HW245031   4.087   2.999  13.633
47712SOL     OW45032  13.988   7.230   8.655
47712SOL    HW145033  13.897   7.257   8.643
47712SOL    HW245034  13.990   7.185   8.739
47713SOL     OW45035  13.963   0.275  11.415
47713SOL    HW145036  13.991   0.227  11.492
47713SOL    HW245037  14.001   0.227  11.341
47714SOL     OW45038   8.198   4.081   7.981
47714SOL    HW145039   8.182   4.173   7.960
47714SOL    HW245040   8.289   4.079   8.013
47715SOL     OW45041  13.574   2.399  11.778
47715SOL    HW145042  13.534   2.404  11.691
47715SOL    HW245043  13.607   2.310  11.785
47716SOL     OW45044  12.151  14.062   0.413
47716SOL    HW145045  12.214  14.103   0.472
47716SOL    HW245046  12.111  14.135   0.365
47717SOL     OW45047   5.557  14.644   8.222
47717SOL    HW145048   5.543  14.734   8.192
47717SOL    HW245049   5.596  14.654   8.309
47718SOL     OW45050  14.498   2.187   6.222
47718SOL    HW145051  14.407   2.164   6.202
47718SOL    HW245052  14.542   2.103   6.233
47719SOL     OW45053   0.729   6.830   6.243
47719SOL    HW145054   0.746   6.738   6.260
47719SOL    HW245055   0.766   6.876   6.318
47720SOL     OW45056   4.688  14.801   8.579
47720SOL    HW145057   4.743  14.878   8.565
47720SOL    HW245058   4.750  14.729   8.586
47721SOL     OW45059   9.299   1.203  10.052
47721SOL    HW145060   9.288   1.267   9.981
47721SOL    HW245061   9.391   1.176  10.046
47722SOL     OW45062   8.041   8.370   1.501
47722SOL    HW145063   8.025   8.438   1.567
47722SOL    HW245064   7.969   8.309   1.512
47723SOL     OW45065  11.732   4.774   7.683
47723SOL    HW145066  11.779   4.729   7.753
47723SOL    HW245067  11.797   4.834   7.645
47724SOL     OW45068   8.645  12.844  10.405
47724SOL    HW145069   8.552  12.851  10.382
47724SOL    HW245070   8.678  12.934  10.397
47725SOL     OW45071   6.110   8.081  12.618
47725SOL    HW145072   6.111   8.019  12.690
47725SOL    HW245073   6.023   8.071  12.578
47726SOL     OW45074  10.958   8.414  10.266
47726SOL    HW145075  11.054   8.420  10.262
47726SOL    HW245076  10.934   8.369  10.185
47727SOL     OW45077  10.655  10.636   1.749
47727SOL    HW145078  10.688  10.695   1.681
47727SOL    HW245079  10.731  10.589   1.780
47728SOL     OW45080  12.965   3.673   9.896
47728SOL    HW145081  12.946   3.581   9.910
47728SOL    HW245082  13.018   3.699   9.972
47729SOL     OW45083   1.592   7.046   3.454
47729SOL    HW145084   1.515   7.014   3.501
47729SOL    HW245085   1.634   6.968   3.420
47730SOL     OW45086   5.600  10.960  11.064
47730SOL    HW145087   5.552  10.883  11.093
47730SOL    HW245088   5.620  10.942  10.972
47731SOL     OW45089   2.924   6.061   6.315
47731SOL    HW145090   2.918   5.970   6.287
47731SOL    HW245091   2.836   6.083   6.346
47732SOL     OW45092   9.659  14.489   8.541
47732SOL    HW145093   9.722  14.544   8.588
47732SOL    HW245094   9.651  14.531   8.455
47733SOL     OW45095  12.432   0.865   8.967
47733SOL    HW145096  12.442   0.857   9.062
47733SOL    HW245097  12.507   0.917   8.939
47734SOL     OW45098   3.622  13.523   4.257
47734SOL    HW145099   3.643  13.609   4.222
47734SOL    HW245100   3.537  13.534   4.300
47735SOL     OW45101  13.604  10.004  11.426
47735SOL    HW145102  13.695   9.997  11.452
47735SOL    HW245103  13.566   9.919  11.449
47736SOL     OW45104  12.494   7.814   6.086
47736SOL    HW145105  12.491   7.849   6.175
47736SOL    HW245106  12.404   7.787   6.067
47737SOL     OW45107   9.665   0.117   3.287
47737SOL    HW145108   9.744   0.108   3.339
47737SOL    HW245109   9.617   0.189   3.328
47738SOL     OW45110  14.800  14.001   6.991
47738SOL    HW145111  14.875  14.036   6.943
47738SOL    HW245112  14.834  13.981   7.078
47739SOL     OW45113  10.060  14.838  11.208
47739SOL    HW145114  10.085  14.745  11.212
47739SOL    HW245115  10.041  14.853  11.115
47740SOL     OW45116  14.353  14.304   5.736
47740SOL    HW145117  14.343  14.317   5.830
47740SOL    HW245118  14.412  14.229   5.729
47741SOL     OW45119   3.750   4.120   4.051
47741SOL    HW145120   3.835   4.143   4.012
47741SOL    HW245121   3.752   4.025   4.058
47742SOL     OW45122   8.696   9.852   6.398
47742SOL    HW145123   8.614   9.893   6.372
47742SOL    HW245124   8.685   9.759   6.376
47743SOL     OW45125   6.633   1.459   9.444
47743SOL    HW145126   6.617   1.432   9.535
47743SOL    HW245127   6.707   1.519   9.449
47744SOL     OW45128   7.518   0.464   7.315
47744SOL    HW145129   7.557   0.535   7.264
47744SOL    HW245130   7.458   0.421   7.254
47745SOL     OW45131   4.267   5.716   2.886
47745SOL    HW145132   4.335   5.731   2.953
47745SOL    HW245133   4.219   5.640   2.918
47746SOL     OW45134  12.168  10.598   9.680
47746SOL    HW145135  12.095  10.577   9.621
47746SOL    HW245136  12.243  10.609   9.622
47747SOL     OW45137   0.399   8.885   2.718
47747SOL    HW145138   0.476   8.877   2.663
47747SOL    HW245139   0.407   8.814   2.781
47748SOL     OW45140   9.444   8.982  10.259
47748SOL    HW145141   9.495   8.903  10.276
47748SOL    HW245142   9.478   9.015  10.176
47749SOL     OW45143  10.299   1.927   5.090
47749SOL    HW145144  10.354   1.870   5.037
47749SOL    HW245145  10.216   1.880   5.099
47750SOL     OW45146  14.799  11.024   1.202
47750SOL    HW145147  14.780  10.932   1.184
47750SOL    HW245148   0.004  11.038   1.161
47751SOL     OW45149   8.992   5.405   3.450
47751SOL    HW145150   9.043   5.374   3.525
47751SOL    HW245151   9.052   5.459   3.400
47752SOL     OW45152  12.826   3.007   9.271
47752SOL    HW145153  12.904   3.060   9.253
47752SOL    HW245154  12.858   2.917   9.271
47753SOL     OW45155  10.774   1.321  13.869
47753SOL    HW145156  10.841   1.377  13.830
47753SOL    HW245157  10.697   1.333  13.814
47754SOL     OW45158   8.059   1.852  13.034
47754SOL    HW145159   8.150   1.831  13.057
47754SOL    HW245160   8.023   1.893  13.112
47755SOL     OW45161  10.298   5.993   8.089
47755SOL    HW145162  10.335   6.070   8.131
47755SOL    HW245163  10.369   5.929   8.089
47756SOL     OW45164  11.274   7.171   3.641
47756SOL    HW145165  11.183   7.176   3.612
47756SOL    HW245166  11.311   7.257   3.619
47757SOL     OW45167   1.277  14.442   0.426
47757SOL    HW145168   1.293  14.352   0.453
47757SOL    HW245169   1.351  14.491   0.462
47758SOL     OW45170   1.682  10.423   2.412
47758SOL    HW145171   1.606  10.457   2.459
47758SOL    HW245172   1.757  10.446   2.467
47759SOL     OW45173   7.782  11.178  12.412
47759SOL    HW145174   7.697  11.196  12.372
47759SOL    HW245175   7.810  11.262  12.449
47760SOL     OW45176   8.842   9.401  12.119
47760SOL    HW145177   8.914   9.405  12.056
47760SOL    HW245178   8.783   9.472  12.094
47761SOL     OW45179   1.261   9.386   1.612
47761SOL    HW145180   1.297   9.377   1.524
47761SOL    HW245181   1.306   9.462   1.649
47762SOL     OW45182   7.005  10.501  13.013
47762SOL    HW145183   6.959  10.545  12.941
47762SOL    HW245184   6.937  10.453  13.059
47763SOL     OW45185   1.982   8.627   7.587
47763SOL    HW145186   1.928   8.694   7.544
47763SOL    HW245187   2.071   8.646   7.558
47764SOL     OW45188   3.233   1.078   1.952
47764SOL    HW145189   3.287   1.000   1.964
47764SOL    HW245190   3.269   1.142   2.013
47765SOL     OW45191  10.840  11.593   7.508
47765SOL    HW145192  10.842  11.632   7.421
47765SOL    HW245193  10.825  11.499   7.493
47766SOL     OW45194   7.440  14.639   6.762
47766SOL    HW145195   7.500  14.568   6.782
47766SOL    HW245196   7.367  14.627   6.823
47767SOL     OW45197   7.430  14.321  11.618
47767SOL    HW145198   7.455  14.243  11.667
47767SOL    HW245199   7.483  14.318  11.539
47768SOL     OW45200  12.542   1.848   2.666
47768SOL    HW145201  12.602   1.922   2.654
47768SOL    HW245202  12.591   1.772   2.636
47769SOL     OW45203   8.041  14.280   5.598
47769SOL    HW145204   8.000  14.201   5.634
47769SOL    HW245205   7.976  14.349   5.612
47770SOL     OW45206   4.058   2.933   3.125
47770SOL    HW145207   3.997   2.958   3.194
47770SOL    HW245208   4.004   2.919   3.048
47771SOL     OW45209  11.210  13.149  13.896
47771SOL    HW145210  11.188  13.217  13.832
47771SOL    HW245211  11.176  13.182  13.979
47772SOL     OW45212   3.984   2.310  13.504
47772SOL    HW145213   4.007   2.361  13.426
47772SOL    HW245214   3.965   2.222  13.470
47773SOL     OW45215   9.873   4.232   2.651
47773SOL    HW145216   9.780   4.246   2.672
47773SOL    HW245217   9.873   4.160   2.588
47774SOL     OW45218   4.765   2.436   3.200
47774SOL    HW145219   4.769   2.436   3.296
47774SOL    HW245220   4.700   2.503   3.179
47775SOL     OW45221   4.046  14.780   5.285
47775SOL    HW145222   3.987  14.831   5.341
47775SOL    HW245223   3.989  14.719   5.239
47776SOL     OW45224   2.613   7.383   8.309
47776SOL    HW145225   2.650   7.307   8.264
47776SOL    HW245226   2.528   7.353   8.341
47777SOL     OW45227   4.845  10.817  14.255
47777SOL    HW145228   4.908  10.796  14.324
47777SOL    HW245229   4.811  10.731  14.228
47778SOL     OW45230   6.354   4.084   1.786
47778SOL    HW145231   6.301   4.136   1.846
47778SOL    HW245232   6.431   4.139   1.768
47779SOL     OW45233  13.202   1.053   9.745
47779SOL    HW145234  13.183   1.035   9.837
47779SOL    HW245235  13.136   1.004   9.696
47780SOL     OW45236   4.057   2.517  14.226
47780SOL    HW145237   3.975   2.467  14.228
47780SOL    HW245238   4.055   2.561  14.141
47781SOL     OW45239  14.360  13.432   1.888
47781SOL    HW145240  14.322  13.515   1.915
47781SOL    HW245241  14.378  13.443   1.795
47782SOL     OW45242  13.963  11.359   3.430
47782SOL    HW145243  13.979  11.377   3.523
47782SOL    HW245244  13.877  11.316   3.429
47783SOL     OW45245   1.367   6.003   7.457
47783SOL    HW145246   1.369   5.960   7.542
47783SOL    HW245247   1.414   5.943   7.399
47784SOL     OW45248  13.909   1.257  13.621
47784SOL    HW145249  13.898   1.179  13.567
47784SOL    HW245250  13.825   1.302  13.616
47785SOL     OW45251   6.168  14.525   7.615
47785SOL    HW145252   6.102  14.477   7.566
47785SOL    HW245253   6.237  14.542   7.551
47786SOL     OW45254   4.012  10.437   0.883
47786SOL    HW145255   4.064  10.514   0.860
47786SOL    HW245256   4.072  10.364   0.877
47787SOL     OW45257  11.854   5.371   8.105
47787SOL    HW145258  11.894   5.306   8.162
47787SOL    HW245259  11.775   5.329   8.071
47788SOL     OW45260   3.319   4.562   3.710
47788SOL    HW145261   3.322   4.614   3.791
47788SOL    HW245262   3.240   4.508   3.719
47789SOL     OW45263   9.878  12.172   1.118
47789SOL    HW145264   9.851  12.108   1.052
47789SOL    HW245265   9.800  12.186   1.171
47790SOL     OW45266   3.090   6.819   8.076
47790SOL    HW145267   3.088   6.754   8.146
47790SOL    HW245268   3.101   6.767   7.995
47791SOL     OW45269  14.686  12.718  10.415
47791SOL    HW145270  14.690  12.712  10.510
47791SOL    HW245271  14.777  12.719  10.386
47792SOL     OW45272  11.497  13.133  10.541
47792SOL    HW145273  11.580  13.146  10.494
47792SOL    HW245274  11.455  13.060  10.495
47793SOL     OW45275  10.734  14.680   7.618
47793SOL    HW145276  10.820  14.647   7.591
47793SOL    HW245277  10.672  14.621   7.576
47794SOL     OW45278   0.407   5.722   2.469
47794SOL    HW145279   0.318   5.756   2.467
47794SOL    HW245280   0.397   5.627   2.464
47795SOL     OW45281   8.504  10.990   5.754
47795SOL    HW145282   8.467  11.034   5.830
47795SOL    HW245283   8.599  10.995   5.767
47796SOL     OW45284   3.902  14.633   6.393
47796SOL    HW145285   3.920  14.719   6.432
47796SOL    HW245286   3.985  14.586   6.399
47797SOL     OW45287  11.264   4.220  13.717
47797SOL    HW145288  11.309   4.144  13.753
47797SOL    HW245289  11.284   4.217  13.623
47798SOL     OW45290   2.525  12.151  13.880
47798SOL    HW145291   2.613  12.133  13.848
47798SOL    HW245292   2.532  12.152  13.975
47799SOL     OW45293   6.108   6.013   8.693
47799SOL    HW145294   6.148   6.001   8.779
47799SOL    HW245295   6.066   6.098   8.698
47800SOL     OW45296   3.756   9.490   1.429
47800SOL    HW145297   3.845   9.492   1.394
47800SOL    HW245298   3.757   9.553   1.501
47801SOL     OW45299  13.264  11.358   6.549
47801SOL    HW145300  13.330  11.334   6.615
47801SOL    HW245301  13.180  11.346   6.593
47802SOL     OW45302   5.553  11.503   4.470
47802SOL    HW145303   5.474  11.470   4.428
47802SOL    HW245304   5.594  11.558   4.403
47803SOL     OW45305  10.910  14.057  14.464
47803SOL    HW145306  10.929  14.151  14.467
47803SOL    HW245307  10.898  14.032  14.555
47804SOL     OW45308  12.168   4.817  12.869
47804SOL    HW145309  12.161   4.752  12.940
47804SOL    HW245310  12.124   4.895  12.904
47805SOL     OW45311  12.422  11.403  11.745
47805SOL    HW145312  12.423  11.402  11.649
47805SOL    HW245313  12.338  11.442  11.767
47806SOL     OW45314   0.273   8.040   4.460
47806SOL    HW145315   0.316   8.055   4.544
47806SOL    HW245316   0.334   8.075   4.396
47807SOL     OW45317  13.784   7.608  10.820
47807SOL    HW145318  13.754   7.699  10.815
47807SOL    HW245319  13.741   7.565  10.746
47808SOL     OW45320   2.376  13.829   3.822
47808SOL    HW145321   2.449  13.767   3.828
47808SOL    HW245322   2.332  13.822   3.907
47809SOL     OW45323   5.355  10.783   8.978
47809SOL    HW145324   5.298  10.734   8.919
47809SOL    HW245325   5.376  10.863   8.930
47810SOL     OW45326   2.066  13.835   7.860
47810SOL    HW145327   2.114  13.894   7.919
47810SOL    HW245328   2.131  13.771   7.832
47811SOL     OW45329   6.063   9.436   0.368
47811SOL    HW145330   6.013   9.434   0.449
47811SOL    HW245331   6.047   9.524   0.332
47812SOL     OW45332  11.636   3.713   1.325
47812SOL    HW145333  11.551   3.677   1.300
47812SOL    HW245334  11.617   3.775   1.395
47813SOL     OW45335   3.215   3.029  10.019
47813SOL    HW145336   3.122   3.034   9.995
47813SOL    HW245337   3.259   3.008   9.937
47814SOL     OW45338   9.155  13.276  13.024
47814SOL    HW145339   9.072  13.270  13.071
47814SOL    HW245340   9.187  13.186  13.018
47815SOL     OW45341  11.801   9.718   5.339
47815SOL    HW145342  11.852   9.665   5.278
47815SOL    HW245343  11.769   9.657   5.404
47816SOL     OW45344   4.053   8.849   3.659
47816SOL    HW145345   4.005   8.930   3.678
47816SOL    HW245346   4.026   8.827   3.569
47817SOL     OW45347   0.344   7.446   4.490
47817SOL    HW145348   0.397   7.526   4.498
47817SOL    HW245349   0.407   7.379   4.465
47818SOL     OW45350   6.559   4.655  11.251
47818SOL    HW145351   6.543   4.748  11.242
47818SOL    HW245352   6.480   4.613  11.216
47819SOL     OW45353   6.822  13.689  13.390
47819SOL    HW145354   6.736  13.732  13.397
47819SOL    HW245355   6.843  13.691  13.297
47820SOL     OW45356  14.097   6.487   4.342
47820SOL    HW145357  14.099   6.503   4.437
47820SOL    HW245358  14.018   6.533   4.312
47821SOL     OW45359   4.634   0.168   7.333
47821SOL    HW145360   4.726   0.187   7.352
47821SOL    HW245361   4.637   0.109   7.258
47822SOL     OW45362   0.456   9.689   5.334
47822SOL    HW145363   0.474   9.782   5.330
47822SOL    HW245364   0.432   9.673   5.425
47823SOL     OW45365  12.333   5.871   0.370
47823SOL    HW145366  12.429   5.862   0.371
47823SOL    HW245367  12.301   5.789   0.408
47824SOL     OW45368  14.409   5.601   5.510
47824SOL    HW145369  14.455   5.650   5.578
47824SOL    HW245370  14.434   5.510   5.525
47825SOL     OW45371   2.437   6.543   2.217
47825SOL    HW145372   2.359   6.493   2.244
47825SOL    HW245373   2.467   6.498   2.138
47826SOL     OW45374  13.089  14.144   0.102
47826SOL    HW145375  13.037  14.082   0.153
47826SOL    HW245376  13.147  14.088   0.050
47827SOL     OW45377   6.180  12.741   3.634
47827SOL    HW145378   6.111  12.705   3.690
47827SOL    HW245379   6.158  12.834   3.625
47828SOL     OW45380  11.168  10.577  10.451
47828SOL    HW145381  11.078  10.606  10.465
47828SOL    HW245382  11.217  10.658  10.440
47829SOL     OW45383   3.019   5.630   3.117
47829SOL    HW145384   3.056   5.575   3.049
47829SOL    HW245385   2.944   5.673   3.076
47830SOL     OW45386   8.808   0.716   1.652
47830SOL    HW145387   8.720   0.749   1.670
47830SOL    HW245388   8.812   0.709   1.557
47831SOL     OW45389  10.592  11.452   4.778
47831SOL    HW145390  10.605  11.521   4.713
47831SOL    HW245391  10.611  11.494   4.862
47832SOL     OW45392   1.634   9.662   0.015
47832SOL    HW145393   1.568   9.658   0.085
47832SOL    HW245394   1.678   9.577   0.019
47833SOL     OW45395  11.250   7.107   5.790
47833SOL    HW145396  11.333   7.152   5.776
47833SOL    HW245397  11.264   7.020   5.754
47834SOL     OW45398   5.918   7.157   8.458
47834SOL    HW145399   5.892   7.127   8.545
47834SOL    HW245400   5.956   7.080   8.416
47835SOL     OW45401   4.299   6.095   3.430
47835SOL    HW145402   4.217   6.133   3.459
47835SOL    HW245403   4.332   6.048   3.506
47836SOL     OW45404  10.417   0.581  11.870
47836SOL    HW145405  10.456   0.600  11.955
47836SOL    HW245406  10.340   0.637  11.866
47837SOL     OW45407   4.770  14.267  10.421
47837SOL    HW145408   4.836  14.279  10.352
47837SOL    HW245409   4.721  14.350  10.421
47838SOL     OW45410   3.185  14.644   0.140
47838SOL    HW145411   3.207  14.719   0.085
47838SOL    HW245412   3.095  14.661   0.170
47839SOL     OW45413   8.319   6.095  12.032
47839SOL    HW145414   8.345   6.185  12.016
47839SOL    HW245415   8.238   6.102  12.083
47840SOL     OW45416   5.832  14.146   0.420
47840SOL    HW145417   5.867  14.174   0.335
47840SOL    HW245418   5.817  14.228   0.467
47841SOL     OW45419  12.009   3.941   3.802
47841SOL    HW145420  12.002   3.877   3.731
47841SOL    HW245421  12.033   3.888   3.878
47842SOL     OW45422   8.574   4.425   7.536
47842SOL    HW145423   8.496   4.405   7.485
47842SOL    HW245424   8.552   4.506   7.583
47843SOL     OW45425   0.502   1.631   6.458
47843SOL    HW145426   0.507   1.554   6.402
47843SOL    HW245427   0.567   1.691   6.422
47844SOL     OW45428  12.076   0.952  13.394
47844SOL    HW145429  12.171   0.959  13.397
47844SOL    HW245430  12.047   1.033  13.354
47845SOL     OW45431   5.400   6.468   4.812
47845SOL    HW145432   5.489   6.500   4.822
47845SOL    HW245433   5.345   6.539   4.847
47846SOL     OW45434   4.515   0.558   9.266
47846SOL    HW145435   4.514   0.638   9.318
47846SOL    HW245436   4.483   0.585   9.180
47847SOL     OW45437   4.104   1.513   5.910
47847SOL    HW145438   4.175   1.548   5.856
47847SOL    HW245439   4.092   1.424   5.879
47848SOL     OW45440   1.449   3.845   6.469
47848SOL    HW145441   1.354   3.847   6.480
47848SOL    HW245442   1.472   3.934   6.443
47849SOL     OW45443  10.729   8.470   9.375
47849SOL    HW145444  10.825   8.469   9.379
47849SOL    HW245445  10.702   8.394   9.427
47850SOL     OW45446   9.564  11.261   0.150
47850SOL    HW145447   9.509  11.210   0.091
47850SOL    HW245448   9.526  11.349   0.149
47851SOL     OW45449  11.222  13.496  10.515
47851SOL    HW145450  11.163  13.536  10.451
47851SOL    HW245451  11.176  13.418  10.545
47852SOL     OW45452   8.448   6.025   2.816
47852SOL    HW145453   8.388   6.089   2.777
47852SOL    HW245454   8.437   6.036   2.910
47853SOL     OW45455   1.082   7.767  13.635
47853SOL    HW145456   1.153   7.753  13.698
47853SOL    HW245457   1.085   7.690  13.579
47854SOL     OW45458  14.263   4.635   6.801
47854SOL    HW145459  14.231   4.697   6.866
47854SOL    HW245460  14.294   4.560   6.853
47855SOL     OW45461   2.107  13.303   8.874
47855SOL    HW145462   2.115  13.379   8.931
47855SOL    HW245463   2.018  13.308   8.839
47856SOL     OW45464   3.705   4.725   3.239
47856SOL    HW145465   3.750   4.773   3.170
47856SOL    HW245466   3.641   4.671   3.193
47857SOL     OW45467   6.712   5.371  13.134
47857SOL    HW145468   6.777   5.432  13.169
47857SOL    HW245469   6.654   5.425  13.081
47858SOL     OW45470  11.745   5.982  14.176
47858SOL    HW145471  11.718   6.032  14.253
47858SOL    HW245472  11.834   5.954  14.195
47859SOL     OW45473   0.259  11.738   0.074
47859SOL    HW145474   0.254  11.682  14.877
47859SOL    HW245475   0.198  11.700   0.137
47860SOL     OW45476  10.830   5.512   5.157
47860SOL    HW145477  10.831   5.485   5.249
47860SOL    HW245478  10.908   5.567   5.147
47861SOL     OW45479  10.286  12.531   8.435
47861SOL    HW145480  10.203  12.522   8.389
47861SOL    HW245481  10.261  12.551   8.525
47862SOL     OW45482  10.209   1.432  14.758
47862SOL    HW145483  10.301   1.420  14.780
47862SOL    HW245484  10.205   1.519  14.718
47863SOL     OW45485   8.430   0.809   3.418
47863SOL    HW145486   8.368   0.867   3.375
47863SOL    HW245487   8.432   0.731   3.362
47864SOL     OW45488   6.942   2.527   2.159
47864SOL    HW145489   6.953   2.551   2.067
47864SOL    HW245490   6.917   2.434   2.156
47865SOL     OW45491  10.225  11.044   3.599
47865SOL    HW145492  10.190  11.114   3.653
47865SOL    HW245493  10.315  11.033   3.630
47866SOL     OW45494   2.021  13.375   8.029
47866SOL    HW145495   1.926  13.366   8.032
47866SOL    HW245496   2.040  13.399   7.938
47867SOL     OW45497   4.539   1.598  13.804
47867SOL    HW145498   4.466   1.537  13.805
47867SOL    HW245499   4.611   1.549  13.764
47868SOL     OW45500   7.104  10.574  10.336
47868SOL    HW145501   7.069  10.486  10.350
47868SOL    HW245502   7.030  10.632  10.352
47869SOL     OW45503   4.339   9.422  13.375
47869SOL    HW145504   4.382   9.501  13.343
47869SOL    HW245505   4.299   9.448  13.458
47870SOL     OW45506   3.225   9.194   5.112
47870SOL    HW145507   3.189   9.140   5.042
47870SOL    HW245508   3.313   9.216   5.083
47871SOL     OW45509   4.308  14.199   5.727
47871SOL    HW145510   4.254  14.226   5.652
47871SOL    HW245511   4.303  14.273   5.787
47872SOL     OW45512  14.676   0.119   9.458
47872SOL    HW145513  14.701   0.172   9.534
47872SOL    HW245514  14.757   0.073   9.433
47873SOL     OW45515   8.471   4.866   7.936
47873SOL    HW145516   8.442   4.835   8.022
47873SOL    HW245517   8.394   4.907   7.898
47874SOL     OW45518  14.320  13.270   8.410
47874SOL    HW145519  14.255  13.231   8.351
47874SOL    HW245520  14.328  13.208   8.482
47875SOL     OW45521   5.001  11.920  10.324
47875SOL    HW145522   4.986  11.894  10.415
47875SOL    HW245523   4.966  11.848  10.272
47876SOL     OW45524   1.236   9.578   9.994
47876SOL    HW145525   1.326   9.546   9.988
47876SOL    HW245526   1.191   9.514  10.050
47877SOL     OW45527  12.040  14.130   3.365
47877SOL    HW145528  12.035  14.054   3.422
47877SOL    HW245529  11.972  14.115   3.299
47878SOL     OW45530   2.340   8.020   9.219
47878SOL    HW145531   2.336   7.932   9.257
47878SOL    HW245532   2.400   8.068   9.275
47879SOL     OW45533  12.481  13.234   3.840
47879SOL    HW145534  12.567  13.240   3.882
47879SOL    HW245535  12.421  13.217   3.913
47880SOL     OW45536   2.310   3.465   5.036
47880SOL    HW145537   2.341   3.545   4.994
47880SOL    HW245538   2.221   3.485   5.064
47881SOL     OW45539   6.913   4.654  14.064
47881SOL    HW145540   6.884   4.678  13.976
47881SOL    HW245541   6.908   4.735  14.115
47882SOL     OW45542  11.295   2.787  10.313
47882SOL    HW145543  11.269   2.825  10.397
47882SOL    HW245544  11.246   2.705  10.307
47883SOL     OW45545  10.526   4.293   2.058
47883SOL    HW145546  10.484   4.377   2.043
47883SOL    HW245547  10.460   4.228   2.033
47884SOL     OW45548   9.073  13.390  11.771
47884SOL    HW145549   9.027  13.316  11.812
47884SOL    HW245550   9.003  13.447  11.739
47885SOL     OW45551  12.352   4.152   6.199
47885SOL    HW145552  12.399   4.111   6.271
47885SOL    HW245553  12.338   4.243   6.228
47886SOL     OW45554   8.147   9.966   0.386
47886SOL    HW145555   8.094   9.889   0.403
47886SOL    HW245556   8.085  10.030   0.350
47887SOL     OW45557   7.025   5.423   5.513
47887SOL    HW145558   6.945   5.465   5.546
47887SOL    HW245559   6.994   5.366   5.442
47888SOL     OW45560   8.412   9.697   2.436
47888SOL    HW145561   8.333   9.683   2.488
47888SOL    HW245562   8.479   9.719   2.500
47889SOL     OW45563   5.150  11.719  13.969
47889SOL    HW145564   5.117  11.756  13.887
47889SOL    HW245565   5.217  11.656  13.942
47890SOL     OW45566  10.807   1.858   9.821
47890SOL    HW145567  10.869   1.791   9.792
47890SOL    HW245568  10.767   1.890   9.741
47891SOL     OW45569  13.144   7.330  13.470
47891SOL    HW145570  13.101   7.348  13.386
47891SOL    HW245571  13.104   7.393  13.530
47892SOL     OW45572   1.727  12.243   3.983
47892SOL    HW145573   1.773  12.177   3.931
47892SOL    HW245574   1.662  12.193   4.032
47893SOL     OW45575   7.427   6.090   2.726
47893SOL    HW145576   7.335   6.065   2.725
47893SOL    HW245577   7.475   6.008   2.733
47894SOL     OW45578  12.997   5.575   4.480
47894SOL    HW145579  12.933   5.524   4.431
47894SOL    HW245580  12.954   5.660   4.494
47895SOL     OW45581  10.694  12.288  14.807
47895SOL    HW145582  10.721  12.207  14.849
47895SOL    HW245583  10.671  12.262  14.717
47896SOL     OW45584   3.619   9.269  11.971
47896SOL    HW145585   3.613   9.182  12.010
47896SOL    HW245586   3.709   9.274  11.938
47897SOL     OW45587   5.209   5.495   0.427
47897SOL    HW145588   5.177   5.438   0.357
47897SOL    HW245589   5.168   5.580   0.409
47898SOL     OW45590   4.476   7.475   4.565
47898SOL    HW145591   4.418   7.519   4.502
47898SOL    HW245592   4.557   7.525   4.562
47899SOL     OW45593   2.528   7.640  12.043
47899SOL    HW145594   2.452   7.606  11.995
47899SOL    HW245595   2.494   7.713  12.094
47900SOL     OW45596   9.056  10.131   5.261
47900SOL    HW145597   9.024  10.137   5.171
47900SOL    HW245598   8.982  10.094   5.310
47901SOL     OW45599  10.859   6.508  11.473
47901SOL    HW145600  10.766   6.485  11.474
47901SOL    HW245601  10.901   6.437  11.425
47902SOL     OW45602   7.298   2.776   1.996
47902SOL    HW145603   7.288   2.728   2.078
47902SOL    HW245604   7.209   2.801   1.972
47903SOL     OW45605  14.234   5.415   5.743
47903SOL    HW145606  14.228   5.510   5.733
47903SOL    HW245607  14.179   5.380   5.673
47904SOL     OW45608   6.102  13.407   2.946
47904SOL    HW145609   6.073  13.496   2.965
47904SOL    HW245610   6.036  13.371   2.887
47905SOL     OW45611  10.745   2.151   4.591
47905SOL    HW145612  10.731   2.135   4.684
47905SOL    HW245613  10.660   2.137   4.550
47906SOL     OW45614   7.789   7.730   4.666
47906SOL    HW145615   7.721   7.796   4.648
47906SOL    HW245616   7.754   7.649   4.629
47907SOL     OW45617   5.941   4.509   3.605
47907SOL    HW145618   5.891   4.542   3.531
47907SOL    HW245619   5.889   4.435   3.638
47908SOL     OW45620   1.815  13.940   8.449
47908SOL    HW145621   1.774  13.895   8.523
47908SOL    HW245622   1.761  14.018   8.436
47909SOL     OW45623  12.485   8.386  12.331
47909SOL    HW145624  12.419   8.412  12.267
47909SOL    HW245625  12.528   8.309  12.292
47910SOL     OW45626  12.936   8.406  12.894
47910SOL    HW145627  12.852   8.375  12.862
47910SOL    HW245628  13.001   8.363  12.838
47911SOL     OW45629   5.072   3.369   2.708
47911SOL    HW145630   5.026   3.286   2.715
47911SOL    HW245631   5.034   3.424   2.776
47912SOL     OW45632  11.174   5.382  13.613
47912SOL    HW145633  11.140   5.294  13.629
47912SOL    HW245634  11.266   5.369  13.592
47913SOL     OW45635   0.301   9.158   4.131
47913SOL    HW145636   0.301   9.172   4.036
47913SOL    HW245637   0.319   9.245   4.168
47914SOL     OW45638   9.216  13.348   4.283
47914SOL    HW145639   9.225  13.371   4.375
47914SOL    HW245640   9.183  13.258   4.283
47915SOL     OW45641   7.290   5.894  11.245
47915SOL    HW145642   7.217   5.934  11.197
47915SOL    HW245643   7.279   5.925  11.335
47916SOL     OW45644   3.401   5.059   8.754
47916SOL    HW145645   3.441   5.057   8.667
47916SOL    HW245646   3.355   4.975   8.761
47917SOL     OW45647   6.573  13.938  10.821
47917SOL    HW145648   6.666  13.938  10.798
47917SOL    HW245649   6.531  13.991  10.753
47918SOL     OW45650   8.431   5.242   7.121
47918SOL    HW145651   8.487   5.254   7.045
47918SOL    HW245652   8.374   5.318   7.122
47919SOL     OW45653   0.554   7.491   9.361
47919SOL    HW145654   0.514   7.533   9.284
47919SOL    HW245655   0.648   7.504   9.349
47920SOL     OW45656  14.856   8.426   5.452
47920SOL    HW145657   0.005   8.435   5.361
47920SOL    HW245658  14.849   8.516   5.484
47921SOL     OW45659  13.396   0.951  13.818
47921SOL    HW145660  13.419   1.032  13.864
47921SOL    HW245661  13.306   0.964  13.788
47922SOL     OW45662  13.624  11.421  12.363
47922SOL    HW145663  13.540  11.377  12.347
47922SOL    HW245664  13.688  11.350  12.366
47923SOL     OW45665   1.005   3.749   3.530
47923SOL    HW145666   0.964   3.735   3.616
47923SOL    HW245667   1.043   3.664   3.508
47924SOL     OW45668   1.931  13.775   1.789
47924SOL    HW145669   1.899  13.835   1.856
47924SOL    HW245670   1.912  13.819   1.706
47925SOL     OW45671   9.588   2.981   5.673
47925SOL    HW145672   9.564   2.890   5.654
47925SOL    HW245673   9.676   2.991   5.635
47926SOL     OW45674  11.455   7.138   7.018
47926SOL    HW145675  11.439   7.062   6.963
47926SOL    HW245676  11.534   7.116   7.067
47927SOL     OW45677   9.190   4.829   7.756
47927SOL    HW145678   9.258   4.791   7.812
47927SOL    HW245679   9.117   4.848   7.815
47928SOL     OW45680   4.513   2.906   6.251
47928SOL    HW145681   4.424   2.895   6.217
47928SOL    HW245682   4.501   2.932   6.342
47929SOL     OW45683   5.124   8.117  13.747
47929SOL    HW145684   5.162   8.037  13.711
47929SOL    HW245685   5.166   8.127  13.833
47930SOL     OW45686  13.128  13.189  10.158
47930SOL    HW145687  13.082  13.113  10.123
47930SOL    HW245688  13.128  13.252  10.086
47931SOL     OW45689   7.151   3.553   4.113
47931SOL    HW145690   7.232   3.518   4.077
47931SOL    HW245691   7.130   3.495   4.186
47932SOL     OW45692   1.076   5.621   6.037
47932SOL    HW145693   1.125   5.542   6.016
47932SOL    HW245694   1.077   5.626   6.132
47933SOL     OW45695  11.022  14.193   0.298
47933SOL    HW145696  11.092  14.243   0.339
47933SOL    HW245697  10.971  14.258   0.249
47934SOL     OW45698   0.442   3.331   5.973
47934SOL    HW145699   0.480   3.295   5.893
47934SOL    HW245700   0.455   3.425   5.965
47935SOL     OW45701   5.886   5.032   7.558
47935SOL    HW145702   5.922   5.000   7.641
47935SOL    HW245703   5.828   5.104   7.584
47936SOL     OW45704   7.143  11.387   1.682
47936SOL    HW145705   7.204  11.457   1.707
47936SOL    HW245706   7.111  11.412   1.596
47937SOL     OW45707   8.248   8.657   2.313
47937SOL    HW145708   8.299   8.670   2.393
47937SOL    HW245709   8.189   8.584   2.334
47938SOL     OW45710  11.564  13.065   3.041
47938SOL    HW145711  11.620  13.139   3.015
47938SOL    HW245712  11.505  13.053   2.967
47939SOL     OW45713   5.184   5.898  10.652
47939SOL    HW145714   5.137   5.975  10.620
47939SOL    HW245715   5.277   5.923  10.647
47940SOL     OW45716   4.246  10.337   8.956
47940SOL    HW145717   4.159  10.301   8.975
47940SOL    HW245718   4.238  10.373   8.868
47941SOL     OW45719   8.673   3.701   9.002
47941SOL    HW145720   8.630   3.643   8.939
47941SOL    HW245721   8.625   3.686   9.084
47942SOL     OW45722   9.410  14.729  12.682
47942SOL    HW145723   9.503  14.748  12.689
47942SOL    HW245724   9.372  14.761  12.763
47943SOL     OW45725   0.264   7.087  13.048
47943SOL    HW145726   0.250   7.180  13.028
47943SOL    HW245727   0.250   7.080  13.143
47944SOL     OW45728   6.096   5.267  12.566
47944SOL    HW145729   6.085   5.335  12.499
47944SOL    HW245730   6.028   5.285  12.630
47945SOL     OW45731   2.961  12.912   3.567
47945SOL    HW145732   2.976  12.909   3.472
47945SOL    HW245733   3.019  12.981   3.598
47946SOL     OW45734   2.666  10.884  10.438
47946SOL    HW145735   2.583  10.927  10.459
47946SOL    HW245736   2.696  10.929  10.359
47947SOL     OW45737  11.975  14.300  10.257
47947SOL    HW145738  12.024  14.354  10.195
47947SOL    HW245739  11.912  14.253  10.204
47948SOL     OW45740  10.437   7.187  12.359
47948SOL    HW145741  10.426   7.137  12.278
47948SOL    HW245742  10.531   7.195  12.370
47949SOL     OW45743   1.840   7.554   1.011
47949SOL    HW145744   1.752   7.527   0.985
47949SOL    HW245745   1.885   7.575   0.929
47950SOL     OW45746  13.567   1.128  12.990
47950SOL    HW145747  13.662   1.122  13.001
47950SOL    HW245748  13.544   1.215  13.024
47951SOL     OW45749   2.320   1.677   3.959
47951SOL    HW145750   2.408   1.641   3.946
47951SOL    HW245751   2.299   1.718   3.876
47952SOL     OW45752   5.530   1.529   3.374
47952SOL    HW145753   5.506   1.468   3.304
47952SOL    HW245754   5.455   1.589   3.380
47953SOL     OW45755   8.870  11.703  11.663
47953SOL    HW145756   8.828  11.783  11.631
47953SOL    HW245757   8.799  11.654  11.704
47954SOL     OW45758   7.654   2.733   4.288
47954SOL    HW145759   7.576   2.772   4.248
47954SOL    HW245760   7.661   2.775   4.373
47955SOL     OW45761   8.736   5.093  10.055
47955SOL    HW145762   8.671   5.027  10.034
47955SOL    HW245763   8.701   5.174  10.019
47956SOL     OW45764   5.753  14.475  12.140
47956SOL    HW145765   5.711  14.522  12.067
47956SOL    HW245766   5.760  14.385  12.109
47957SOL     OW45767   1.212   2.619   6.802
47957SOL    HW145768   1.267   2.554   6.759
47957SOL    HW245769   1.135   2.571   6.831
47958SOL     OW45770   4.771   8.564  11.925
47958SOL    HW145771   4.682   8.594  11.944
47958SOL    HW245772   4.825   8.605  11.993
47959SOL     OW45773  11.064  13.632   6.553
47959SOL    HW145774  11.065  13.563   6.486
47959SOL    HW245775  11.156  13.658   6.561
47960SOL     OW45776  14.746   0.807   8.478
47960SOL    HW145777  14.793   0.730   8.512
47960SOL    HW245778  14.815   0.871   8.460
47961SOL     OW45779  12.753   0.399   1.038
47961SOL    HW145780  12.725   0.397   0.947
47961SOL    HW245781  12.671   0.399   1.088
47962SOL     OW45782   9.330   3.657   4.497
47962SOL    HW145783   9.309   3.563   4.491
47962SOL    HW245784   9.424   3.662   4.478
47963SOL     OW45785   8.611   4.573   3.519
47963SOL    HW145786   8.592   4.618   3.437
47963SOL    HW245787   8.555   4.616   3.584
47964SOL     OW45788   9.888   7.215  14.062
47964SOL    HW145789   9.971   7.233  14.105
47964SOL    HW245790   9.890   7.268  13.982
47965SOL     OW45791   9.680   0.511  12.221
47965SOL    HW145792   9.674   0.499  12.316
47965SOL    HW245793   9.612   0.454  12.186
47966SOL     OW45794  13.898   1.045  11.150
47966SOL    HW145795  13.990   1.068  11.139
47966SOL    HW245796  13.855   1.074  11.069
47967SOL     OW45797   3.747  13.713  11.816
47967SOL    HW145798   3.749  13.675  11.904
47967SOL    HW245799   3.686  13.787  11.823
47968SOL     OW45800  12.234   6.364   0.849
47968SOL    HW145801  12.287   6.344   0.771
47968SOL    HW245802  12.184   6.284   0.865
47969SOL     OW45803  14.167   4.692   5.187
47969SOL    HW145804  14.218   4.713   5.109
47969SOL    HW245805  14.203   4.609   5.218
47970SOL     OW45806  12.344   5.174   4.889
47970SOL    HW145807  12.416   5.138   4.942
47970SOL    HW245808  12.265   5.154   4.939
47971SOL     OW45809   6.140  10.853  10.540
47971SOL    HW145810   6.196  10.851  10.617
47971SOL    HW245811   6.123  10.761  10.520
47972SOL     OW45812   2.419   7.320   1.755
47972SOL    HW145813   2.333   7.299   1.719
47972SOL    HW245814   2.400   7.361   1.839
47973SOL     OW45815   4.492   2.542   0.895
47973SOL    HW145816   4.466   2.500   0.813
47973SOL    HW245817   4.540   2.620   0.869
47974SOL     OW45818   8.876   5.900   2.713
47974SOL    HW145819   8.857   5.891   2.619
47974SOL    HW245820   8.900   5.993   2.724
47975SOL     OW45821  12.701   4.355   6.260
47975SOL    HW145822  12.738   4.427   6.311
47975SOL    HW245823  12.655   4.398   6.188
47976SOL     OW45824   4.842  12.452   8.699
47976SOL    HW145825   4.800  12.418   8.778
47976SOL    HW245826   4.795  12.410   8.627
47977SOL     OW45827   1.550   1.830   3.123
47977SOL    HW145828   1.480   1.778   3.162
47977SOL    HW245829   1.623   1.821   3.184
47978SOL     OW45830   3.877  10.951   8.681
47978SOL    HW145831   3.970  10.948   8.703
47978SOL    HW245832   3.834  10.906   8.753
47979SOL     OW45833  12.153   1.095   3.709
47979SOL    HW145834  12.129   1.165   3.648
47979SOL    HW245835  12.124   1.015   3.666
47980SOL     OW45836   2.343   6.407   3.679
47980SOL    HW145837   2.260   6.449   3.700
47980SOL    HW245838   2.406   6.446   3.739
47981SOL     OW45839  12.081   2.324   5.037
47981SOL    HW145840  12.144   2.344   4.968
47981SOL    HW245841  12.107   2.238   5.069
47982SOL     OW45842   7.266   6.815   9.622
47982SOL    HW145843   7.223   6.875   9.683
47982SOL    HW245844   7.218   6.733   9.631
47983SOL     OW45845   9.374   4.327   6.425
47983SOL    HW145846   9.353   4.312   6.333
47983SOL    HW245847   9.338   4.413   6.445
47984SOL     OW45848   0.172   8.146  14.154
47984SOL    HW145849   0.168   8.127  14.060
47984SOL    HW245850   0.092   8.108  14.189
47985SOL     OW45851   9.193   9.500   6.496
47985SOL    HW145852   9.215   9.414   6.463
47985SOL    HW245853   9.250   9.560   6.448
47986SOL     OW45854   1.665   9.358   4.913
47986SOL    HW145855   1.614   9.413   4.854
47986SOL    HW245856   1.709   9.296   4.856
47987SOL     OW45857   6.433   7.081   8.283
47987SOL    HW145858   6.443   7.163   8.235
47987SOL    HW245859   6.521   7.044   8.285
47988SOL     OW45860   4.846   7.511   6.032
47988SOL    HW145861   4.779   7.467   6.085
47988SOL    HW245862   4.830   7.604   6.046
47989SOL     OW45863   7.758   1.879   7.647
47989SOL    HW145864   7.728   1.882   7.737
47989SOL    HW245865   7.692   1.927   7.597
47990SOL     OW45866   4.316   2.199   2.597
47990SOL    HW145867   4.371   2.138   2.549
47990SOL    HW245868   4.252   2.230   2.533
47991SOL     OW45869  14.422   3.910   1.086
47991SOL    HW145870  14.495   3.899   1.025
47991SOL    HW245871  14.380   3.824   1.088
47992SOL     OW45872  11.922  12.947  13.511
47992SOL    HW145873  11.827  12.955  13.501
47992SOL    HW245874  11.958  12.986  13.432
47993SOL     OW45875   2.427  10.191   8.251
47993SOL    HW145876   2.374  10.270   8.258
47993SOL    HW245877   2.517  10.222   8.264
47994SOL     OW45878   6.896   4.597  10.417
47994SOL    HW145879   6.942   4.666  10.370
47994SOL    HW245880   6.862   4.540  10.349
47995SOL     OW45881  13.470   8.697  12.953
47995SOL    HW145882  13.475   8.720  12.860
47995SOL    HW245883  13.386   8.652  12.961
47996SOL     OW45884   8.948   2.321   6.597
47996SOL    HW145885   8.898   2.280   6.526
47996SOL    HW245886   8.924   2.413   6.594
47997SOL     OW45887  14.778   5.673   6.993
47997SOL    HW145888  14.793   5.738   7.062
47997SOL    HW245889  14.687   5.687   6.966
47998SOL     OW45890   8.112   9.423   4.971
47998SOL    HW145891   8.042   9.394   4.912
47998SOL    HW245892   8.143   9.505   4.932
47999SOL     OW45893   8.411  14.413   3.469
47999SOL    HW145894   8.363  14.331   3.459
47999SOL    HW245895   8.481  14.408   3.404
48000SOL     OW45896   1.498   7.928  12.841
48000SOL    HW145897   1.446   7.855  12.808
48000SOL    HW245898   1.583   7.918  12.797
48001SOL     OW45899  10.873  11.492   8.670
48001SOL    HW145900  10.868  11.396   8.666
48001SOL    HW245901  10.866  11.512   8.763
48002SOL     OW45902   4.720   7.548   7.897
48002SOL    HW145903   4.719   7.642   7.877
48002SOL    HW245904   4.699   7.543   7.990
48003SOL     OW45905  12.851   0.844  13.457
48003SOL    HW145906  12.887   0.912  13.514
48003SOL    HW245907  12.835   0.770  13.516
48004SOL     OW45908   2.341   5.877  12.474
48004SOL    HW145909   2.406   5.886  12.405
48004SOL    HW245910   2.369   5.940  12.541
48005SOL     OW45911   0.774   5.209  10.669
48005SOL    HW145912   0.684   5.178  10.684
48005SOL    HW245913   0.822   5.130  10.644
48006SOL     OW45914   3.272  11.779   6.154
48006SOL    HW145915   3.351  11.733   6.183
48006SOL    HW245916   3.201  11.715   6.166
48007SOL     OW45917   9.885   7.491   1.806
48007SOL    HW145918   9.946   7.423   1.776
48007SOL    HW245919   9.800   7.464   1.772
48008SOL     OW45920  11.839   9.730   2.769
48008SOL    HW145921  11.914   9.674   2.750
48008SOL    HW245922  11.786   9.725   2.690
48009SOL     OW45923   4.005  13.237   5.157
48009SOL    HW145924   3.952  13.261   5.234
48009SOL    HW245925   3.947  13.253   5.083
48010SOL     OW45926   8.793   9.839  11.646
48010SOL    HW145927   8.703   9.844  11.676
48010SOL    HW245928   8.844   9.875  11.719
48011SOL     OW45929   8.600   8.018   4.483
48011SOL    HW145930   8.585   8.107   4.451
48011SOL    HW245931   8.516   7.991   4.520
48012SOL     OW45932   5.823  11.638   5.294
48012SOL    HW145933   5.908  11.682   5.299
48012SOL    HW245934   5.829  11.581   5.218
48013SOL     OW45935  12.895   2.748  10.445
48013SOL    HW145936  12.944   2.735  10.364
48013SOL    HW245937  12.812   2.787  10.417
48014SOL     OW45938  13.694   9.191   1.711
48014SOL    HW145939  13.644   9.129   1.764
48014SOL    HW245940  13.637   9.211   1.638
48015SOL     OW45941   0.652   1.624   0.310
48015SOL    HW145942   0.696   1.540   0.322
48015SOL    HW245943   0.604   1.637   0.391
48016SOL     OW45944  13.639  11.100   4.690
48016SOL    HW145945  13.707  11.033   4.679
48016SOL    HW245946  13.678  11.180   4.657
48017SOL     OW45947   8.551   8.448   6.118
48017SOL    HW145948   8.523   8.518   6.176
48017SOL    HW245949   8.565   8.373   6.175
48018SOL     OW45950   6.834   7.139   1.012
48018SOL    HW145951   6.874   7.078   0.950
48018SOL    HW245952   6.855   7.226   0.978
48019SOL     OW45953   4.944   2.815   3.224
48019SOL    HW145954   4.936   2.772   3.139
48019SOL    HW245955   4.868   2.784   3.274
48020SOL     OW45956   2.457   1.836   2.575
48020SOL    HW145957   2.494   1.922   2.594
48020SOL    HW245958   2.459   1.789   2.658
48021SOL     OW45959   7.211   0.703   0.634
48021SOL    HW145960   7.197   0.770   0.568
48021SOL    HW245961   7.280   0.647   0.597
48022SOL     OW45962  10.081   5.554   6.517
48022SOL    HW145963  10.114   5.550   6.607
48022SOL    HW245964  10.069   5.463   6.491
48023SOL     OW45965   3.164  11.119  14.065
48023SOL    HW145966   3.155  11.043  14.007
48023SOL    HW245967   3.099  11.181  14.033
48024SOL     OW45968   7.968   6.871  13.908
48024SOL    HW145969   8.054   6.844  13.877
48024SOL    HW245970   7.955   6.958  13.872
48025SOL     OW45971  10.653  11.476   8.212
48025SOL    HW145972  10.731  11.439   8.255
48025SOL    HW245973  10.679  11.483   8.120
48026SOL     OW45974   0.400  13.028   8.119
48026SOL    HW145975   0.413  13.037   8.025
48026SOL    HW245976   0.471  13.078   8.159
48027SOL     OW45977   7.328  11.716   2.266
48027SOL    HW145978   7.236  11.691   2.271
48027SOL    HW245979   7.328  11.810   2.282
48028SOL     OW45980   1.728   5.444   3.870
48028SOL    HW145981   1.752   5.452   3.963
48028SOL    HW245982   1.742   5.532   3.835
48029SOL     OW45983   2.979   3.692   1.869
48029SOL    HW145984   2.888   3.709   1.847
48029SOL    HW245985   3.020   3.779   1.874
48030SOL     OW45986   2.236   8.896  10.666
48030SOL    HW145987   2.247   8.935  10.579
48030SOL    HW245988   2.185   8.960  10.715
48031SOL     OW45989  11.997   3.509   5.425
48031SOL    HW145990  11.959   3.516   5.513
48031SOL    HW245991  12.042   3.592   5.411
48032SOL     OW45992   1.491   9.670  12.569
48032SOL    HW145993   1.472   9.579  12.547
48032SOL    HW245994   1.406   9.714  12.571
48033SOL     OW45995   1.033   1.086   7.508
48033SOL    HW145996   0.947   1.044   7.503
48033SOL    HW245997   1.035   1.128   7.594
48034SOL     OW45998   1.787  13.253  10.980
48034SOL    HW145999   1.692  13.241  10.974
48034SOL    HW246000   1.801  13.343  10.951
48035SOL     OW46001  14.754  14.295   1.718
48035SOL    HW146002  14.819  14.304   1.788
48035SOL    HW246003  14.795  14.337   1.642
48036SOL     OW46004   6.403  11.714   0.530
48036SOL    HW146005   6.384  11.764   0.609
48036SOL    HW246006   6.394  11.622   0.556
48037SOL     OW46007   6.547   7.894  14.775
48037SOL    HW146008   6.542   7.952  14.699
48037SOL    HW246009   6.484   7.930  14.837
48038SOL     OW46010   2.753  10.399   2.399
48038SOL    HW146011   2.681  10.393   2.336
48038SOL    HW246012   2.786  10.488   2.389
48039SOL     OW46013   6.800  14.358   7.075
48039SOL    HW146014   6.708  14.379   7.058
48039SOL    HW246015   6.828  14.425   7.138
48040SOL     OW46016   5.716   5.387   9.969
48040SOL    HW146017   5.686   5.383  10.060
48040SOL    HW246018   5.642   5.422   9.920
48041SOL     OW46019  11.518   9.889   6.626
48041SOL    HW146020  11.503   9.846   6.711
48041SOL    HW246021  11.612   9.881   6.611
48042SOL     OW46022   7.391   2.190   3.275
48042SOL    HW146023   7.404   2.205   3.181
48042SOL    HW246024   7.417   2.098   3.288
48043SOL     OW46025   8.037   7.385   1.655
48043SOL    HW146026   8.060   7.448   1.586
48043SOL    HW246027   7.959   7.423   1.696
48044SOL     OW46028  13.733  12.079   7.719
48044SOL    HW146029  13.639  12.068   7.727
48044SOL    HW246030  13.763  12.098   7.808
48045SOL     OW46031  11.685   3.082   3.211
48045SOL    HW146032  11.646   3.117   3.291
48045SOL    HW246033  11.729   3.002   3.239
48046SOL     OW46034  10.293   6.854   9.027
48046SOL    HW146035  10.320   6.765   9.049
48046SOL    HW246036  10.321   6.865   8.936
48047SOL     OW46037  13.635   1.993   1.255
48047SOL    HW146038  13.683   1.914   1.280
48047SOL    HW246039  13.652   2.055   1.326
48048SOL     OW46040   0.146  13.761   7.318
48048SOL    HW146041   0.202  13.684   7.310
48048SOL    HW246042   0.207  13.835   7.325
48049SOL     OW46043   7.474   1.289   3.592
48049SOL    HW146044   7.535   1.294   3.518
48049SOL    HW246045   7.509   1.349   3.657
48050SOL     OW46046   2.805   4.867   2.610
48050SOL    HW146047   2.722   4.901   2.644
48050SOL    HW246048   2.792   4.864   2.515
48051SOL     OW46049   5.929   3.776   6.639
48051SOL    HW146050   6.024   3.778   6.648
48051SOL    HW246051   5.897   3.767   6.729
48052SOL     OW46052   3.883   8.004  11.771
48052SOL    HW146053   3.951   8.063  11.804
48052SOL    HW246054   3.902   7.995  11.677
48053SOL     OW46055   0.760   0.182  13.161
48053SOL    HW146056   0.840   0.215  13.120
48053SOL    HW246057   0.737   0.105  13.108
48054SOL     OW46058  10.571   2.049   7.061
48054SOL    HW146059  10.659   2.072   7.032
48054SOL    HW246060  10.537   2.129   7.102
48055SOL     OW46061   5.284   0.789   8.576
48055SOL    HW146062   5.289   0.710   8.523
48055SOL    HW246063   5.369   0.832   8.564
48056SOL     OW46064   2.110   2.395   3.856
48056SOL    HW146065   2.076   2.373   3.769
48056SOL    HW246066   2.127   2.489   3.852
48057SOL     OW46067   8.122   5.687  13.284
48057SOL    HW146068   8.193   5.739  13.320
48057SOL    HW246069   8.050   5.749  13.271
48058SOL     OW46070  10.441   6.508   0.863
48058SOL    HW146071  10.423   6.469   0.778
48058SOL    HW246072  10.526   6.472   0.889
48059SOL     OW46073  13.749   1.676  13.091
48059SOL    HW146074  13.672   1.726  13.118
48059SOL    HW246075  13.739   1.665  12.997
48060SOL     OW46076   4.292  13.214  11.160
48060SOL    HW146077   4.203  13.183  11.143
48060SOL    HW246078   4.315  13.180  11.246
48061SOL     OW46079  14.698   8.353  14.185
48061SOL    HW146080  14.626   8.394  14.137
48061SOL    HW246081  14.659   8.274  14.223
48062SOL     OW46082   9.747   2.077   0.628
48062SOL    HW146083   9.781   2.137   0.694
48062SOL    HW246084   9.652   2.088   0.632
48063SOL     OW46085  13.279   5.995   2.858
48063SOL    HW146086  13.352   5.973   2.917
48063SOL    HW246087  13.285   6.090   2.847
48064SOL     OW46088   1.656   4.852   1.956
48064SOL    HW146089   1.576   4.801   1.962
48064SOL    HW246090   1.638   4.918   1.889
48065SOL     OW46091  14.809   8.591   2.132
48065SOL    HW146092  14.791   8.677   2.171
48065SOL    HW246093  14.876   8.553   2.188
48066SOL     OW46094   6.679   3.772   9.846
48066SOL    HW146095   6.608   3.812   9.895
48066SOL    HW246096   6.754   3.831   9.859
48067SOL     OW46097  12.451  13.322  14.828
48067SOL    HW146098  12.538  13.354  14.803
48067SOL    HW246099  12.452  13.323   0.044
48068SOL     OW46100  14.230   3.954  13.697
48068SOL    HW146101  14.240   3.862  13.723
48068SOL    HW246102  14.136   3.967  13.688
48069SOL     OW46103   1.095  10.798   2.731
48069SOL    HW146104   1.186  10.804   2.760
48069SOL    HW246105   1.047  10.764   2.806
48070SOL     OW46106  10.260   9.648   5.137
48070SOL    HW146107  10.254   9.558   5.170
48070SOL    HW246108  10.343   9.652   5.091
48071SOL     OW46109   3.700   4.450  14.439
48071SOL    HW146110   3.760   4.427  14.510
48071SOL    HW246111   3.619   4.474  14.483
48072SOL     OW46112   6.845  13.267   7.839
48072SOL    HW146113   6.823  13.230   7.754
48072SOL    HW246114   6.763  13.263   7.889
48073SOL     OW46115   7.470  11.815   9.614
48073SOL    HW146116   7.400  11.822   9.548
48073SOL    HW246117   7.430  11.767   9.686
48074SOL     OW46118   7.728   8.807   1.673
48074SOL    HW146119   7.649   8.808   1.619
48074SOL    HW246120   7.800   8.817   1.610
48075SOL     OW46121   9.425  13.301   3.342
48075SOL    HW146122   9.483  13.374   3.320
48075SOL    HW246123   9.356  13.304   3.275
48076SOL     OW46124   5.952   4.143   7.822
48076SOL    HW146125   5.925   4.231   7.795
48076SOL    HW246126   6.046   4.151   7.838
48077SOL     OW46127   7.795   5.681   8.294
48077SOL    HW146128   7.834   5.729   8.220
48077SOL    HW246129   7.732   5.622   8.253
48078SOL     OW46130   6.316  10.631  14.155
48078SOL    HW146131   6.376  10.700  14.129
48078SOL    HW246132   6.373  10.558  14.180
48079SOL     OW46133   0.512  10.136  14.872
48079SOL    HW146134   0.448  10.067   0.010
48079SOL    HW246135   0.597  10.094   0.001
48080SOL     OW46136   6.715  10.852   6.327
48080SOL    HW146137   6.731  10.933   6.376
48080SOL    HW246138   6.621  10.837   6.334
48081SOL     OW46139   4.058   5.238  14.377
48081SOL    HW146140   4.013   5.175  14.433
48081SOL    HW246141   4.151   5.216  14.386
48082SOL     OW46142   6.184  14.523   4.816
48082SOL    HW146143   6.168  14.540   4.724
48082SOL    HW246144   6.098  14.529   4.858
48083SOL     OW46145  12.735   6.665  14.422
48083SOL    HW146146  12.652   6.621  14.409
48083SOL    HW246147  12.789   6.601  14.470
48084SOL     OW46148   4.356  12.668   4.208
48084SOL    HW146149   4.311  12.749   4.233
48084SOL    HW246150   4.361  12.672   4.113
48085SOL     OW46151  14.389   9.206   8.904
48085SOL    HW146152  14.478   9.196   8.870
48085SOL    HW246153  14.374   9.301   8.904
48086SOL     OW46154   1.220  12.051  13.333
48086SOL    HW146155   1.271  12.100  13.269
48086SOL    HW246156   1.254  11.961  13.326
48087SOL     OW46157   9.267   4.263  13.225
48087SOL    HW146158   9.303   4.255  13.313
48087SOL    HW246159   9.230   4.176  13.206
48088SOL     OW46160   9.229   9.641   2.642
48088SOL    HW146161   9.271   9.675   2.721
48088SOL    HW246162   9.204   9.552   2.665
48089SOL     OW46163  14.112  14.250   7.290
48089SOL    HW146164  14.123  14.308   7.365
48089SOL    HW246165  14.134  14.304   7.214
48090SOL     OW46166  13.085  14.498   4.628
48090SOL    HW146167  13.149  14.498   4.699
48090SOL    HW246168  13.007  14.539   4.665
48091SOL     OW46169   6.609  12.577   9.083
48091SOL    HW146170   6.574  12.663   9.058
48091SOL    HW246171   6.657  12.593   9.165
48092SOL     OW46172   7.049   3.653  11.794
48092SOL    HW146173   6.975   3.615  11.841
48092SOL    HW246174   7.036   3.747  11.801
48093SOL     OW46175  11.300   5.552   1.915
48093SOL    HW146176  11.377   5.599   1.883
48093SOL    HW246177  11.247   5.619   1.958
48094SOL     OW46178   3.423  12.415  10.757
48094SOL    HW146179   3.455  12.368  10.834
48094SOL    HW246180   3.337  12.447  10.783
48095SOL     OW46181   7.632   8.410   6.329
48095SOL    HW146182   7.671   8.448   6.407
48095SOL    HW246183   7.680   8.328   6.316
48096SOL     OW46184   8.466   6.894   6.783
48096SOL    HW146185   8.465   6.984   6.816
48096SOL    HW246186   8.446   6.840   6.860
48097SOL     OW46187   3.678  14.696   3.394
48097SOL    HW146188   3.737  14.762   3.360
48097SOL    HW246189   3.711  14.613   3.359
48098SOL     OW46190   1.844  12.708   5.300
48098SOL    HW146191   1.925  12.680   5.343
48098SOL    HW246192   1.868  12.713   5.207
48099SOL     OW46193   7.243   3.632   8.724
48099SOL    HW146194   7.253   3.725   8.743
48099SOL    HW246195   7.314   3.590   8.772
48100SOL     OW46196   0.283   1.418   2.937
48100SOL    HW146197   0.254   1.330   2.960
48100SOL    HW246198   0.298   1.414   2.843
48101SOL     OW46199  10.033   8.259  12.677
48101SOL    HW146200   9.948   8.299  12.692
48101SOL    HW246201  10.095   8.315  12.724
48102SOL     OW46202   7.965   9.582   9.633
48102SOL    HW146203   7.974   9.538   9.548
48102SOL    HW246204   7.970   9.675   9.612
48103SOL     OW46205   5.916   6.762   8.700
48103SOL    HW146206   5.860   6.836   8.679
48103SOL    HW246207   5.947   6.730   8.615
48104SOL     OW46208   5.294   8.095   7.819
48104SOL    HW146209   5.370   8.045   7.790
48104SOL    HW246210   5.223   8.066   7.761
48105SOL     OW46211   7.015   0.545   6.328
48105SOL    HW146212   7.025   0.488   6.253
48105SOL    HW246213   6.922   0.541   6.350
48106SOL     OW46214  13.556   9.628   9.524
48106SOL    HW146215  13.634   9.573   9.528
48106SOL    HW246216  13.490   9.573   9.482
48107SOL     OW46217  13.926  10.299   2.860
48107SOL    HW146218  13.886  10.321   2.944
48107SOL    HW246219  13.861  10.324   2.795
48108SOL     OW46220  10.131   1.172  10.959
48108SOL    HW146221  10.186   1.228  11.013
48108SOL    HW246222  10.074   1.127  11.022
48109SOL     OW46223   4.034  14.552  11.164
48109SOL    HW146224   4.021  14.575  11.256
48109SOL    HW246225   4.012  14.632  11.116
48110SOL     OW46226  13.511   3.729  12.110
48110SOL    HW146227  13.445   3.680  12.062
48110SOL    HW246228  13.594   3.692  12.081
48111SOL     OW46229   7.668  14.541   7.798
48111SOL    HW146230   7.706  14.457   7.825
48111SOL    HW246231   7.573  14.527   7.805
48112SOL     OW46232  10.421   6.239   3.905
48112SOL    HW146233  10.454   6.294   3.976
48112SOL    HW246234  10.491   6.241   3.839
48113SOL     OW46235  12.098  13.141   0.377
48113SOL    HW146236  12.014  13.096   0.382
48113SOL    HW246237  12.089  13.201   0.303
48114SOL     OW46238  14.399  11.278  10.164
48114SOL    HW146239  14.456  11.350  10.137
48114SOL    HW246240  14.458  11.216  10.209
48115SOL     OW46241  10.559  14.451   7.518
48115SOL    HW146242  10.495  14.453   7.447
48115SOL    HW246243  10.508  14.424   7.595
48116SOL     OW46244  13.009   6.440   0.768
48116SOL    HW146245  13.094   6.475   0.793
48116SOL    HW246246  12.969   6.411   0.850
48117SOL     OW46247   1.273  11.127  10.268
48117SOL    HW146248   1.303  11.093  10.352
48117SOL    HW246249   1.178  11.139  10.280
48118SOL     OW46250   6.641   5.307  13.977
48118SOL    HW146251   6.650   5.333  13.885
48118SOL    HW246252   6.585   5.229  13.974
48119SOL     OW46253  14.859  12.647   3.588
48119SOL    HW146254  14.813  12.567   3.564
48119SOL    HW246255  14.849  12.653   3.683
48120SOL     OW46256  11.002  13.136  12.077
48120SOL    HW146257  10.907  13.145  12.086
48120SOL    HW246258  11.018  13.140  11.983
48121SOL     OW46259   3.265   2.318  12.019
48121SOL    HW146260   3.183   2.296  11.974
48121SOL    HW246261   3.315   2.236  12.018
48122SOL     OW46262  14.700   9.606   9.679
48122SOL    HW146263  14.665   9.644   9.760
48122SOL    HW246264  14.773   9.663   9.656
48123SOL     OW46265  13.895   1.417   5.995
48123SOL    HW146266  13.947   1.356   5.943
48123SOL    HW246267  13.810   1.419   5.951
48124SOL     OW46268   0.653  10.021   6.441
48124SOL    HW146269   0.733   9.981   6.476
48124SOL    HW246270   0.684  10.082   6.374
48125SOL     OW46271  12.619   4.805   0.192
48125SOL    HW146272  12.524   4.819   0.191
48125SOL    HW246273  12.629   4.712   0.172
48126SOL     OW46274  11.309   7.746  13.492
48126SOL    HW146275  11.400   7.773  13.501
48126SOL    HW246276  11.262   7.828  13.476
48127SOL     OW46277   0.613   1.224   7.670
48127SOL    HW146278   0.694   1.270   7.648
48127SOL    HW246279   0.545   1.275   7.627
48128SOL     OW46280   9.786   6.626   8.388
48128SOL    HW146281   9.845   6.574   8.442
48128SOL    HW246282   9.794   6.589   8.300
48129SOL     OW46283  10.455  12.576  14.111
48129SOL    HW146284  10.486  12.599  14.023
48129SOL    HW246285  10.391  12.506  14.096
48130SOL     OW46286   3.743  12.199   1.667
48130SOL    HW146287   3.648  12.194   1.658
48130SOL    HW246288   3.757  12.248   1.747
48131SOL     OW46289  11.440   3.581  11.141
48131SOL    HW146290  11.387   3.634  11.201
48131SOL    HW246291  11.526   3.575  11.184
48132SOL     OW46292  10.209   6.986   7.755
48132SOL    HW146293  10.266   6.967   7.680
48132SOL    HW246294  10.123   6.952   7.729
48133SOL     OW46295   6.644  13.533   8.919
48133SOL    HW146296   6.719  13.508   8.865
48133SOL    HW246297   6.578  13.465   8.902
48134SOL     OW46298  10.227   7.361   5.310
48134SOL    HW146299  10.206   7.430   5.373
48134SOL    HW246300  10.273   7.406   5.239
48135SOL     OW46301   5.252   2.704   3.507
48135SOL    HW146302   5.346   2.722   3.516
48135SOL    HW246303   5.223   2.684   3.596
48136SOL     OW46304   0.017   3.955   8.713
48136SOL    HW146305  14.841   3.942   8.637
48136SOL    HW246306  14.864   3.893   8.778
48137SOL     OW46307   5.386   7.594   2.052
48137SOL    HW146308   5.383   7.545   2.134
48137SOL    HW246309   5.397   7.528   1.984
48138SOL     OW46310  12.819   0.503   8.360
48138SOL    HW146311  12.842   0.583   8.407
48138SOL    HW246312  12.786   0.533   8.275
48139SOL     OW46313   0.264   2.601   3.425
48139SOL    HW146314   0.358   2.613   3.414
48139SOL    HW246315   0.250   2.507   3.417
48140SOL     OW46316  14.853  11.738   0.983
48140SOL    HW146317  14.817  11.818   0.945
48140SOL    HW246318  14.778  11.678   0.986
48141SOL     OW46319   7.368  10.980   6.571
48141SOL    HW146320   7.330  10.892   6.562
48141SOL    HW246321   7.311  11.025   6.633
48142SOL     OW46322   0.334  13.014  14.597
48142SOL    HW146323   0.296  13.059  14.673
48142SOL    HW246324   0.322  12.921  14.617
48143SOL     OW46325   0.206  12.616   1.332
48143SOL    HW146326   0.223  12.528   1.367
48143SOL    HW246327   0.127  12.645   1.377
48144SOL     OW46328   5.553   9.305   1.148
48144SOL    HW146329   5.616   9.376   1.151
48144SOL    HW246330   5.595   9.234   1.196
48145SOL     OW46331   7.924   7.453  14.176
48145SOL    HW146332   7.855   7.463  14.111
48145SOL    HW246333   7.933   7.540  14.215
48146SOL     OW46334  13.948   0.918   1.227
48146SOL    HW146335  13.945   0.920   1.131
48146SOL    HW246336  13.952   0.825   1.249
48147SOL     OW46337   4.508  12.144   1.786
48147SOL    HW146338   4.425  12.184   1.812
48147SOL    HW246339   4.569  12.217   1.778
48148SOL     OW46340   3.561   2.115   3.750
48148SOL    HW146341   3.629   2.156   3.697
48148SOL    HW246342   3.557   2.024   3.719
48149SOL     OW46343   4.634   9.797   4.450
48149SOL    HW146344   4.574   9.808   4.377
48149SOL    HW246345   4.674   9.710   4.436
48150SOL     OW46346   8.820   7.171   6.748
48150SOL    HW146347   8.869   7.094   6.779
48150SOL    HW246348   8.782   7.208   6.828
48151SOL     OW46349   9.318  10.598  12.959
48151SOL    HW146350   9.378  10.599  13.034
48151SOL    HW246351   9.271  10.515  12.968
48152SOL     OW46352   5.213   3.359   7.860
48152SOL    HW146353   5.179   3.446   7.882
48152SOL    HW246354   5.136   3.303   7.857
48153SOL     OW46355   2.608   1.618  12.659
48153SOL    HW146356   2.601   1.706  12.622
48153SOL    HW246357   2.616   1.633  12.754
48154SOL     OW46358   3.451  10.999  11.126
48154SOL    HW146359   3.540  10.966  11.133
48154SOL    HW246360   3.455  11.068  11.060
48155SOL     OW46361   0.637  12.313   7.503
48155SOL    HW146362   0.605  12.257   7.432
48155SOL    HW246363   0.680  12.386   7.459
48156SOL     OW46364  13.344   0.422   3.864
48156SOL    HW146365  13.334   0.433   3.769
48156SOL    HW246366  13.374   0.331   3.875
48157SOL     OW46367  12.108   7.663   7.975
48157SOL    HW146368  12.041   7.726   7.999
48157SOL    HW246369  12.077   7.624   7.893
48158SOL     OW46370  12.930  10.064   6.498
48158SOL    HW146371  12.971   9.978   6.509
48158SOL    HW246372  12.843  10.055   6.536
48159SOL     OW46373   0.012  14.369  10.625
48159SOL    HW146374  14.816  14.426  10.625
48159SOL    HW246375   0.083  14.423  10.589
48160SOL     OW46376  13.660   3.389   9.960
48160SOL    HW146377  13.602   3.375   9.885
48160SOL    HW246378  13.735   3.332   9.943
48161SOL     OW46379  14.075   6.323   6.820
48161SOL    HW146380  14.044   6.352   6.906
48161SOL    HW246381  14.138   6.254   6.839
48162SOL     OW46382  14.384   6.622  14.485
48162SOL    HW146383  14.419   6.641  14.398
48162SOL    HW246384  14.371   6.708  14.526
48163SOL     OW46385  12.150   8.164   2.421
48163SOL    HW146386  12.079   8.219   2.453
48163SOL    HW246387  12.110   8.078   2.408
48164SOL     OW46388   3.358   2.271   9.691
48164SOL    HW146389   3.370   2.349   9.637
48164SOL    HW246390   3.439   2.221   9.677
48165SOL     OW46391   7.020  12.344   2.709
48165SOL    HW146392   7.025  12.253   2.683
48165SOL    HW246393   6.926  12.363   2.715
48166SOL     OW46394   2.498   0.721   7.139
48166SOL    HW146395   2.491   0.638   7.187
48166SOL    HW246396   2.578   0.761   7.174
48167SOL     OW46397   3.606   5.498   1.972
48167SOL    HW146398   3.648   5.544   1.899
48167SOL    HW246399   3.624   5.405   1.955
48168SOL     OW46400   4.445   1.895   8.754
48168SOL    HW146401   4.435   1.949   8.676
48168SOL    HW246402   4.475   1.955   8.822
48169SOL     OW46403   8.385   4.950   7.088
48169SOL    HW146404   8.475   4.920   7.078
48169SOL    HW246405   8.389   5.044   7.074
48170SOL     OW46406   8.172   3.135   5.226
48170SOL    HW146407   8.241   3.201   5.225
48170SOL    HW246408   8.209   3.062   5.275
48171SOL     OW46409   9.616  12.793   2.191
48171SOL    HW146410   9.612  12.701   2.217
48171SOL    HW246411   9.637  12.839   2.273
48172SOL     OW46412   2.606   9.322   1.540
48172SOL    HW146413   2.591   9.252   1.476
48172SOL    HW246414   2.527   9.321   1.595
48173SOL     OW46415  11.826   2.371  10.643
48173SOL    HW146416  11.747   2.396  10.596
48173SOL    HW246417  11.795   2.341  10.729
48174SOL     OW46418   4.065   7.770   3.467
48174SOL    HW146419   4.031   7.823   3.394
48174SOL    HW246420   4.152   7.744   3.438
48175SOL     OW46421  14.760  11.924   3.039
48175SOL    HW146422  14.679  11.888   3.004
48175SOL    HW246423  14.829  11.870   3.000
48176SOL     OW46424   9.472  10.532  14.160
48176SOL    HW146425   9.451  10.488  14.078
48176SOL    HW246426   9.439  10.621  14.148
48177SOL     OW46427   7.930  14.317   8.742
48177SOL    HW146428   7.893  14.233   8.713
48177SOL    HW246429   8.015  14.323   8.698
48178SOL     OW46430  11.056   4.096   9.748
48178SOL    HW146431  11.149   4.116   9.755
48178SOL    HW246432  11.020   4.119   9.834
48179SOL     OW46433   1.621   1.797   8.373
48179SOL    HW146434   1.714   1.815   8.385
48179SOL    HW246435   1.578   1.839   8.447
48180SOL     OW46436   5.180   0.926  13.468
48180SOL    HW146437   5.246   0.888  13.411
48180SOL    HW246438   5.188   1.020  13.455
48181SOL     OW46439   7.089   8.830  10.673
48181SOL    HW146440   7.028   8.797  10.739
48181SOL    HW246441   7.102   8.922  10.696
48182SOL     OW46442  13.054  11.722  11.488
48182SOL    HW146443  13.007  11.688  11.563
48182SOL    HW246444  13.029  11.815  11.484
48183SOL     OW46445  14.431  14.637   8.803
48183SOL    HW146446  14.482  14.717   8.790
48183SOL    HW246447  14.426  14.597   8.716
48184SOL     OW46448   6.735  12.035  10.138
48184SOL    HW146449   6.719  12.037  10.233
48184SOL    HW246450   6.827  12.012  10.130
48185SOL     OW46451   7.108   1.184   0.151
48185SOL    HW146452   7.186   1.189   0.097
48185SOL    HW246453   7.042   1.235   0.102
48186SOL     OW46454   6.968   0.022   7.727
48186SOL    HW146455   6.993  14.825   7.778
48186SOL    HW246456   7.036   0.028   7.659
48187SOL     OW46457   8.118   6.070   6.165
48187SOL    HW146458   8.053   6.127   6.206
48187SOL    HW246459   8.196   6.081   6.220
48188SOL     OW46460   5.135   2.967   8.144
48188SOL    HW146461   5.077   3.041   8.129
48188SOL    HW246462   5.150   2.966   8.238
48189SOL     OW46463  13.807  14.026   9.615
48189SOL    HW146464  13.783  13.951   9.669
48189SOL    HW246465  13.903  14.025   9.615
48190SOL     OW46466   3.228   7.934   3.618
48190SOL    HW146467   3.252   8.024   3.641
48190SOL    HW246468   3.244   7.883   3.698
48191SOL     OW46469   7.208  10.419  12.006
48191SOL    HW146470   7.267  10.460  12.069
48191SOL    HW246471   7.174  10.492  11.954
48192SOL     OW46472   9.195  12.489   8.120
48192SOL    HW146473   9.186  12.574   8.163
48192SOL    HW246474   9.272  12.449   8.161
48193SOL     OW46475   2.669  13.256   5.222
48193SOL    HW146476   2.650  13.281   5.132
48193SOL    HW246477   2.623  13.320   5.276
48194SOL     OW46478   5.934   8.384   7.511
48194SOL    HW146479   5.936   8.325   7.436
48194SOL    HW246480   5.854   8.435   7.500
48195SOL     OW46481   9.395   6.396  11.882
48195SOL    HW146482   9.432   6.310  11.899
48195SOL    HW246483   9.433   6.423  11.798
48196SOL     OW46484   7.485  13.021  14.014
48196SOL    HW146485   7.484  13.020  13.918
48196SOL    HW246486   7.450  13.106  14.038
48197SOL     OW46487   4.446   4.973  14.010
48197SOL    HW146488   4.485   4.953  14.095
48197SOL    HW246489   4.356   4.998  14.030
48198SOL     OW46490   5.451   3.044  14.613
48198SOL    HW146491   5.445   3.057  14.518
48198SOL    HW246492   5.375   2.990  14.635
48199SOL     OW46493   8.087   1.107   1.973
48199SOL    HW146494   8.143   1.031   1.991
48199SOL    HW246495   8.140   1.183   1.997
48200SOL     OW46496   5.673   9.099   0.926
48200SOL    HW146497   5.681   9.144   0.841
48200SOL    HW246498   5.657   9.169   0.989
48201SOL     OW46499  10.337  12.392  10.374
48201SOL    HW146500  10.253  12.395  10.420
48201SOL    HW246501  10.319  12.432  10.289
48202SOL     OW46502   4.929   6.149   5.565
48202SOL    HW146503   4.953   6.079   5.625
48202SOL    HW246504   4.993   6.218   5.581
48203SOL     OW46505   0.680  11.610  13.480
48203SOL    HW146506   0.645  11.644  13.398
48203SOL    HW246507   0.647  11.670  13.546
48204SOL     OW46508   7.478   4.826   0.280
48204SOL    HW146509   7.390   4.860   0.292
48204SOL    HW246510   7.526   4.896   0.235
48205SOL     OW46511   0.038   6.788   0.476
48205SOL    HW146512   0.034   6.850   0.403
48205SOL    HW246513   0.124   6.804   0.515
48206SOL     OW46514   4.831   7.500  12.236
48206SOL    HW146515   4.821   7.594  12.220
48206SOL    HW246516   4.831   7.492  12.331
48207SOL     OW46517  11.321  14.422  14.293
48207SOL    HW146518  11.313  14.471  14.212
48207SOL    HW246519  11.307  14.330  14.267
48208SOL     OW46520   2.865   8.054   2.474
48208SOL    HW146521   2.857   8.034   2.567
48208SOL    HW246522   2.816   7.985   2.430
48209SOL     OW46523  13.005   5.749   8.982
48209SOL    HW146524  13.088   5.758   8.936
48209SOL    HW246525  12.999   5.827   9.036
48210SOL     OW46526  11.786   0.944  11.034
48210SOL    HW146527  11.805   1.010  11.101
48210SOL    HW246528  11.726   0.883  11.076
48211SOL     OW46529   7.879  11.575   4.190
48211SOL    HW146530   7.824  11.510   4.233
48211SOL    HW246531   7.953  11.586   4.250
48212SOL     OW46532   0.735   6.536  12.135
48212SOL    HW146533   0.710   6.522  12.044
48212SOL    HW246534   0.727   6.450  12.176
48213SOL     OW46535  10.609   5.463  11.611
48213SOL    HW146536  10.567   5.548  11.622
48213SOL    HW246537  10.635   5.461  11.519
48214SOL     OW46538   2.071  14.723  13.042
48214SOL    HW146539   2.127  14.796  13.016
48214SOL    HW246540   2.029  14.753  13.123
48215SOL     OW46541  14.697   6.624   7.918
48215SOL    HW146542  14.730   6.560   7.855
48215SOL    HW246543  14.699   6.578   8.002
48216SOL     OW46544  11.441   0.595  13.843
48216SOL    HW146545  11.393   0.555  13.915
48216SOL    HW246546  11.510   0.646  13.885
48217SOL     OW46547   0.277  13.094  13.708
48217SOL    HW146548   0.201  13.126  13.660
48217SOL    HW246549   0.281  13.149  13.787
48218SOL     OW46550   9.347  13.416  10.898
48218SOL    HW146551   9.349  13.328  10.935
48218SOL    HW246552   9.267  13.455  10.934
48219SOL     OW46553  11.028   6.378  11.284
48219SOL    HW146554  10.974   6.332  11.219
48219SOL    HW246555  11.104   6.408  11.234
48220SOL     OW46556  13.198   3.845   4.410
48220SOL    HW146557  13.230   3.824   4.498
48220SOL    HW246558  13.212   3.764   4.360
48221SOL     OW46559   1.517  14.290   5.766
48221SOL    HW146560   1.582  14.357   5.786
48221SOL    HW246561   1.432  14.334   5.776
48222SOL     OW46562  13.002   2.258   2.143
48222SOL    HW146563  13.045   2.286   2.223
48222SOL    HW246564  12.941   2.189   2.172
48223SOL     OW46565  14.090   7.313  13.890
48223SOL    HW146566  14.168   7.367  13.903
48223SOL    HW246567  14.037   7.362  13.827
48224SOL     OW46568   4.097   0.356  14.374
48224SOL    HW146569   4.038   0.336  14.301
48224SOL    HW246570   4.042   0.401  14.437
48225SOL     OW46571   2.654  13.793   2.640
48225SOL    HW146572   2.724  13.729   2.629
48225SOL    HW246573   2.576  13.748   2.608
48226SOL     OW46574  10.952  12.586   5.652
48226SOL    HW146575  11.038  12.613   5.619
48226SOL    HW246576  10.890  12.638   5.602
48227SOL     OW46577  14.140  14.506   6.856
48227SOL    HW146578  14.119  14.557   6.777
48227SOL    HW246579  14.175  14.571   6.917
48228SOL     OW46580   0.847   9.320   7.712
48228SOL    HW146581   0.869   9.227   7.713
48228SOL    HW246582   0.833   9.342   7.804
48229SOL     OW46583   8.677   9.169   7.139
48229SOL    HW146584   8.710   9.254   7.168
48229SOL    HW246585   8.703   9.163   7.047
48230SOL     OW46586   9.901  11.799   1.203
48230SOL    HW146587   9.964  11.840   1.263
48230SOL    HW246588   9.861  11.872   1.156
48231SOL     OW46589   3.484   0.358   4.619
48231SOL    HW146590   3.511   0.336   4.708
48231SOL    HW246591   3.566   0.359   4.569
48232SOL     OW46592   6.183  14.040   8.941
48232SOL    HW146593   6.169  14.029   9.034
48232SOL    HW246594   6.278  14.052   8.932
48233SOL     OW46595  11.710   8.195  13.726
48233SOL    HW146596  11.768   8.263  13.759
48233SOL    HW246597  11.749   8.168  13.643
48234SOL     OW46598   0.990   6.710  11.105
48234SOL    HW146599   0.946   6.794  11.103
48234SOL    HW246600   1.010   6.691  11.013
48235SOL     OW46601   3.649   1.962   4.772
48235SOL    HW146602   3.727   2.011   4.745
48235SOL    HW246603   3.663   1.944   4.864
48236SOL     OW46604   3.375   8.716   0.630
48236SOL    HW146605   3.434   8.731   0.704
48236SOL    HW246606   3.361   8.803   0.594
48237SOL     OW46607  11.001   4.859   9.395
48237SOL    HW146608  10.972   4.802   9.467
48237SOL    HW246609  10.931   4.923   9.386
48238SOL     OW46610   0.678   6.925  10.959
48238SOL    HW146611   0.748   6.967  11.008
48238SOL    HW246612   0.653   6.849  11.011
48239SOL     OW46613  12.922  14.369   2.919
48239SOL    HW146614  12.893  14.431   2.986
48239SOL    HW246615  12.908  14.415   2.836
48240SOL     OW46616   6.782   7.692   2.061
48240SOL    HW146617   6.706   7.748   2.073
48240SOL    HW246618   6.837   7.710   2.138
48241SOL     OW46619  10.233   0.558   9.223
48241SOL    HW146620  10.289   0.635   9.216
48241SOL    HW246621  10.279   0.491   9.173
48242SOL     OW46622   0.512   3.086   0.231
48242SOL    HW146623   0.434   3.125   0.271
48242SOL    HW246624   0.550   3.157   0.179
48243SOL     OW46625   3.968   5.329  13.635
48243SOL    HW146626   3.880   5.298  13.615
48243SOL    HW246627   3.975   5.319  13.730
48244SOL     OW46628   1.335   6.517  14.803
48244SOL    HW146629   1.352   6.424  14.815
48244SOL    HW246630   1.408   6.547  14.748
48245SOL     OW46631  13.821   6.329   0.725
48245SOL    HW146632  13.756   6.263   0.702
48245SOL    HW246633  13.886   6.324   0.655
48246SOL     OW46634   8.546   6.182   8.971
48246SOL    HW146635   8.594   6.186   8.888
48246SOL    HW246636   8.454   6.188   8.946
48247SOL     OW46637   3.536  12.023   5.525
48247SOL    HW146638   3.468  11.989   5.466
48247SOL    HW246639   3.581  11.945   5.557
48248SOL     OW46640  12.411  14.223   8.756
48248SOL    HW146641  12.504  14.221   8.782
48248SOL    HW246642  12.401  14.305   8.709
48249SOL     OW46643   5.130   8.572  13.342
48249SOL    HW146644   5.077   8.504  13.384
48249SOL    HW246645   5.212   8.527  13.320
48250SOL     OW46646   8.224   5.223  13.240
48250SOL    HW146647   8.153   5.284  13.260
48250SOL    HW246648   8.269   5.210  13.323
48251SOL     OW46649   4.340   1.035  14.300
48251SOL    HW146650   4.363   1.098  14.232
48251SOL    HW246651   4.247   1.017  14.285
48252SOL     OW46652   9.455   2.557   3.233
48252SOL    HW146653   9.512   2.543   3.158
48252SOL    HW246654   9.512   2.594   3.300
48253SOL     OW46655  12.616  11.205   0.191
48253SOL    HW146656  12.583  11.148   0.122
48253SOL    HW246657  12.589  11.162   0.272
48254SOL     OW46658   9.229   8.380  13.512
48254SOL    HW146659   9.203   8.434  13.587
48254SOL    HW246660   9.239   8.292  13.548
48255SOL     OW46661   6.995   7.702   3.059
48255SOL    HW146662   6.908   7.742   3.059
48255SOL    HW246663   7.050   7.763   3.011
48256SOL     OW46664   7.339   9.846   2.020
48256SOL    HW146665   7.306   9.921   2.070
48256SOL    HW246666   7.356   9.882   1.932
48257SOL     OW46667   9.876  13.134   1.867
48257SOL    HW146668   9.819  13.059   1.885
48257SOL    HW246669   9.964  13.098   1.868
48258SOL     OW46670   9.500   7.077   5.362
48258SOL    HW146671   9.527   7.058   5.452
48258SOL    HW246672   9.537   7.163   5.343
48259SOL     OW46673   5.944   5.475   7.552
48259SOL    HW146674   6.018   5.458   7.494
48259SOL    HW246675   5.935   5.395   7.604
48260SOL     OW46676  14.520   1.135   0.364
48260SOL    HW146677  14.436   1.147   0.319
48260SOL    HW246678  14.581   1.192   0.317
48261SOL     OW46679   1.986   5.093   8.682
48261SOL    HW146680   1.912   5.034   8.672
48261SOL    HW246681   1.949   5.173   8.718
48262SOL     OW46682  11.643  11.182   6.483
48262SOL    HW146683  11.734  11.209   6.472
48262SOL    HW246684  11.650  11.092   6.516
48263SOL     OW46685  10.245  12.340   5.045
48263SOL    HW146686  10.153  12.351   5.021
48263SOL    HW246687  10.257  12.246   5.053
48264SOL     OW46688   7.428   6.952  14.247
48264SOL    HW146689   7.378   7.032  14.264
48264SOL    HW246690   7.503   6.981  14.195
48265SOL     OW46691   9.589   5.659   2.312
48265SOL    HW146692   9.555   5.580   2.353
48265SOL    HW246693   9.521   5.725   2.328
48266SOL     OW46694   8.767  13.620   4.035
48266SOL    HW146695   8.722  13.584   4.112
48266SOL    HW246696   8.781  13.712   4.056
48267SOL     OW46697   9.571  11.321   7.919
48267SOL    HW146698   9.521  11.403   7.919
48267SOL    HW246699   9.505  11.252   7.925
48268SOL     OW46700   8.030  10.505   8.371
48268SOL    HW146701   7.957  10.464   8.325
48268SOL    HW246702   8.098  10.515   8.304
48269SOL     OW46703   0.706  14.736   3.915
48269SOL    HW146704   0.672  14.762   4.000
48269SOL    HW246705   0.649  14.780   3.851
48270SOL     OW46706  13.723  11.412   4.646
48270SOL    HW146707  13.755  11.412   4.736
48270SOL    HW246708  13.631  11.438   4.653
48271SOL     OW46709  13.681   1.646   3.568
48271SOL    HW146710  13.683   1.552   3.549
48271SOL    HW246711  13.652   1.651   3.659
48272SOL     OW46712  11.347  10.110   2.815
48272SOL    HW146713  11.405  10.039   2.840
48272SOL    HW246714  11.259  10.076   2.831
48273SOL     OW46715  12.516  10.094   8.473
48273SOL    HW146716  12.570  10.073   8.549
48273SOL    HW246717  12.569  10.066   8.398
48274SOL     OW46718   7.385   7.515   9.752
48274SOL    HW146719   7.431   7.526   9.835
48274SOL    HW246720   7.298   7.549   9.767
48275SOL     OW46721   3.700  14.258   7.314
48275SOL    HW146722   3.792  14.285   7.311
48275SOL    HW246723   3.703  14.168   7.347
48276SOL     OW46724   7.778  11.426   5.063
48276SOL    HW146725   7.829  11.496   5.023
48276SOL    HW246726   7.820  11.411   5.148
48277SOL     OW46727   7.099   2.022  13.895
48277SOL    HW146728   7.162   1.961  13.933
48277SOL    HW246729   7.014   1.986  13.919
48278SOL     OW46730  11.830  12.250  14.320
48278SOL    HW146731  11.922  12.232  14.298
48278SOL    HW246732  11.800  12.308  14.250
48279SOL     OW46733   2.102   5.605  12.677
48279SOL    HW146734   2.186   5.587  12.635
48279SOL    HW246735   2.091   5.699  12.669
48280SOL     OW46736   8.189   5.454  11.483
48280SOL    HW146737   8.259   5.396  11.452
48280SOL    HW246738   8.143   5.403  11.550
48281SOL     OW46739  12.761  12.708   0.568
48281SOL    HW146740  12.702  12.779   0.545
48281SOL    HW246741  12.761  12.651   0.491
48282SOL     OW46742   6.963   9.407   9.735
48282SOL    HW146743   6.870   9.405   9.712
48282SOL    HW246744   6.975   9.494   9.774
48283SOL     OW46745   3.408   9.468  12.380
48283SOL    HW146746   3.369   9.445  12.295
48283SOL    HW246747   3.444   9.386  12.412
48284SOL     OW46748  11.152   3.652  10.847
48284SOL    HW146749  11.090   3.725  10.852
48284SOL    HW246750  11.219   3.672  10.912
48285SOL     OW46751   6.497  12.839   9.602
48285SOL    HW146752   6.525  12.922   9.564
48285SOL    HW246753   6.566  12.777   9.579
48286SOL     OW46754   2.029   3.782   9.692
48286SOL    HW146755   2.105   3.816   9.646
48286SOL    HW246756   2.048   3.689   9.704
48287SOL     OW46757  13.178   6.699  13.503
48287SOL    HW146758  13.267   6.728  13.522
48287SOL    HW246759  13.183   6.604  13.504
48288SOL     OW46760  13.725  12.523   3.758
48288SOL    HW146761  13.730  12.459   3.686
48288SOL    HW246762  13.710  12.606   3.714
48289SOL     OW46763   9.581  11.645   1.624
48289SOL    HW146764   9.618  11.580   1.565
48289SOL    HW246765   9.655  11.702   1.646
48290SOL     OW46766  11.327  12.828   4.829
48290SOL    HW146767  11.344  12.916   4.794
48290SOL    HW246768  11.233  12.829   4.848
48291SOL     OW46769  12.989   8.991   3.310
48291SOL    HW146770  13.043   8.927   3.263
48291SOL    HW246771  12.975   9.061   3.246
48292SOL     OW46772   4.792   1.881  13.093
48292SOL    HW146773   4.697   1.884  13.108
48292SOL    HW246774   4.812   1.788  13.086
48293SOL     OW46775   8.883   7.329  13.287
48293SOL    HW146776   8.868   7.386  13.212
48293SOL    HW246777   8.808   7.343  13.344
48294SOL     OW46778   7.131  11.276   4.905
48294SOL    HW146779   7.056  11.334   4.922
48294SOL    HW246780   7.104  11.191   4.939
48295SOL     OW46781  12.770  13.593  13.695
48295SOL    HW146782  12.847  13.604  13.750
48295SOL    HW246783  12.776  13.503  13.662
48296SOL     OW46784   0.618   2.042   3.147
48296SOL    HW146785   0.666   2.098   3.208
48296SOL    HW246786   0.586   1.970   3.201
48297SOL     OW46787  14.489   4.248   6.136
48297SOL    HW146788  14.525   4.276   6.051
48297SOL    HW246789  14.562   4.205   6.180
48298SOL     OW46790   5.792   3.120  10.627
48298SOL    HW146791   5.702   3.134  10.657
48298SOL    HW246792   5.809   3.028  10.646
48299SOL     OW46793  12.336   0.080   5.785
48299SOL    HW146794  12.292  14.877   5.766
48299SOL    HW246795  12.428   0.064   5.766
48300SOL     OW46796   9.043   2.677  11.855
48300SOL    HW146797   8.998   2.672  11.939
48300SOL    HW246798   9.052   2.586  11.826
48301SOL     OW46799  10.615  10.934   2.077
48301SOL    HW146800  10.693  10.951   2.024
48301SOL    HW246801  10.580  11.021   2.095
48302SOL     OW46802   8.069   6.797  11.419
48302SOL    HW146803   8.034   6.744  11.348
48302SOL    HW246804   8.150   6.834  11.383
48303SOL     OW46805  13.198  12.091   7.559
48303SOL    HW146806  13.233  12.112   7.472
48303SOL    HW246807  13.232  12.003   7.577
48304SOL     OW46808   6.981   3.574   9.044
48304SOL    HW146809   6.922   3.548   9.115
48304SOL    HW246810   7.067   3.542   9.071
48305SOL     OW46811  11.561  11.542   8.402
48305SOL    HW146812  11.610  11.481   8.347
48305SOL    HW246813  11.472  11.543   8.364
48306SOL     OW46814  10.512   4.702  10.719
48306SOL    HW146815  10.595   4.745  10.700
48306SOL    HW246816  10.465   4.702  10.635
48307SOL     OW46817   6.224   0.964  12.284
48307SOL    HW146818   6.255   0.889  12.233
48307SOL    HW246819   6.214   1.035  12.221
48308SOL     OW46820  13.844  11.097   8.932
48308SOL    HW146821  13.844  11.148   9.013
48308SOL    HW246822  13.820  11.009   8.959
48309SOL     OW46823   0.709  10.770  10.071
48309SOL    HW146824   0.686  10.759  10.164
48309SOL    HW246825   0.755  10.854  10.069
48310SOL     OW46826   3.821   5.599   1.480
48310SOL    HW146827   3.879   5.587   1.555
48310SOL    HW246828   3.870   5.655   1.420
48311SOL     OW46829   0.647   2.645   2.901
48311SOL    HW146830   0.658   2.613   2.990
48311SOL    HW246831   0.735   2.646   2.864
48312SOL     OW46832   1.687  14.701   9.375
48312SOL    HW146833   1.677  14.788   9.336
48312SOL    HW246834   1.777  14.700   9.408
48313SOL     OW46835  14.643  13.484   6.442
48313SOL    HW146836  14.662  13.404   6.492
48313SOL    HW246837  14.727  13.509   6.404
48314SOL     OW46838   9.890  13.553   4.649
48314SOL    HW146839   9.818  13.615   4.656
48314SOL    HW246840   9.848  13.467   4.642
48315SOL     OW46841   8.393   2.198   0.759
48315SOL    HW146842   8.478   2.230   0.789
48315SOL    HW246843   8.406   2.178   0.666
48316SOL     OW46844   1.599  13.199  11.632
48316SOL    HW146845   1.598  13.175  11.539
48316SOL    HW246846   1.688  13.179  11.661
48317SOL     OW46847   8.143  10.287   8.153
48317SOL    HW146848   8.120  10.223   8.220
48317SOL    HW246849   8.193  10.353   8.200
48318SOL     OW46850  11.903   4.522   3.346
48318SOL    HW146851  11.835   4.513   3.279
48318SOL    HW246852  11.972   4.573   3.302
48319SOL     OW46853  11.593   9.463   0.431
48319SOL    HW146854  11.623   9.428   0.515
48319SOL    HW246855  11.545   9.390   0.391
48320SOL     OW46856   9.511   2.550  11.034
48320SOL    HW146857   9.550   2.504  10.960
48320SOL    HW246858   9.430   2.588  10.998
48321SOL     OW46859  12.461  13.106   9.037
48321SOL    HW146860  12.454  13.145   9.124
48321SOL    HW246861  12.449  13.179   8.977
48322SOL     OW46862  10.037  10.152  14.303
48322SOL    HW146863  10.115  10.156  14.248
48322SOL    HW246864   9.967  10.186  14.247
48323SOL     OW46865   5.299   2.651  13.643
48323SOL    HW146866   5.219   2.599  13.639
48323SOL    HW246867   5.343   2.621  13.722
48324SOL     OW46868   0.421   4.804   7.255
48324SOL    HW146869   0.380   4.878   7.210
48324SOL    HW246870   0.355   4.734   7.249
48325SOL     OW46871  13.573   8.982  14.543
48325SOL    HW146872  13.536   9.064  14.576
48325SOL    HW246873  13.616   8.942  14.619
48326SOL     OW46874  12.529   9.934   8.237
48326SOL    HW146875  12.464   9.954   8.304
48326SOL    HW246876  12.502   9.984   8.160
48327SOL     OW46877  14.021   3.456  11.793
48327SOL    HW146878  14.019   3.419  11.881
48327SOL    HW246879  13.930   3.450  11.763
48328SOL     OW46880   8.604   2.358   4.940
48328SOL    HW146881   8.512   2.386   4.937
48328SOL    HW246882   8.650   2.433   4.978
48329SOL     OW46883   0.950   3.743   0.770
48329SOL    HW146884   1.036   3.782   0.754
48329SOL    HW246885   0.923   3.776   0.855
48330SOL     OW46886  14.509   1.672   1.311
48330SOL    HW146887  14.575   1.642   1.374
48330SOL    HW246888  14.426   1.658   1.356
48331SOL     OW46889   2.515   5.603   7.351
48331SOL    HW146890   2.437   5.655   7.329
48331SOL    HW246891   2.561   5.593   7.267
48332SOL     OW46892   9.401   8.462   1.554
48332SOL    HW146893   9.426   8.386   1.606
48332SOL    HW246894   9.484   8.493   1.516
48333SOL     OW46895   9.379  14.029   8.144
48333SOL    HW146896   9.338  14.115   8.161
48333SOL    HW246897   9.377  13.985   8.229
48334SOL     OW46898  10.252  11.654  11.310
48334SOL    HW146899  10.261  11.598  11.387
48334SOL    HW246900  10.187  11.610  11.256
48335SOL     OW46901   7.255   5.854   1.524
48335SOL    HW146902   7.189   5.900   1.473
48335SOL    HW246903   7.325   5.835   1.461
48336SOL     OW46904   3.440   9.962  11.865
48336SOL    HW146905   3.363   9.923  11.907
48336SOL    HW246906   3.514   9.929  11.915
48337SOL     OW46907   6.561   7.616   7.015
48337SOL    HW146908   6.542   7.560   7.091
48337SOL    HW246909   6.478   7.660   6.996
48338SOL     OW46910   9.614  13.343  12.512
48338SOL    HW146911   9.595  13.434  12.533
48338SOL    HW246912   9.610  13.339  12.416
48339SOL     OW46913  14.025   5.243   5.876
48339SOL    HW146914  13.966   5.233   5.801
48339SOL    HW246915  14.108   5.206   5.847
48340SOL     OW46916   6.517   9.369   0.953
48340SOL    HW146917   6.508   9.304   0.884
48340SOL    HW246918   6.482   9.326   1.031
48341SOL     OW46919   2.116  10.641  13.786
48341SOL    HW146920   2.142  10.644  13.878
48341SOL    HW246921   2.028  10.679  13.785
48342SOL     OW46922   0.675   8.756   8.182
48342SOL    HW146923   0.693   8.663   8.196
48342SOL    HW246924   0.714   8.800   8.257
48343SOL     OW46925  14.522   2.694   0.934
48343SOL    HW146926  14.474   2.765   0.976
48343SOL    HW246927  14.470   2.672   0.857
48344SOL     OW46928  10.159   8.997  10.663
48344SOL    HW146929  10.167   8.965  10.753
48344SOL    HW246930  10.249   9.000  10.630
48345SOL     OW46931  12.936   8.123   9.915
48345SOL    HW146932  12.992   8.200   9.915
48345SOL    HW246933  12.870   8.141   9.982
48346SOL     OW46934   5.534  10.205   8.606
48346SOL    HW146935   5.574  10.119   8.620
48346SOL    HW246936   5.549  10.224   8.513
48347SOL     OW46937  12.195   8.293   5.044
48347SOL    HW146938  12.240   8.212   5.068
48347SOL    HW246939  12.221   8.356   5.111
48348SOL     OW46940   6.003   0.428   6.786
48348SOL    HW146941   5.982   0.359   6.723
48348SOL    HW246942   6.001   0.508   6.735
48349SOL     OW46943   4.258   8.209  11.237
48349SOL    HW146944   4.318   8.283  11.241
48349SOL    HW246945   4.259   8.172  11.326
48350SOL     OW46946   3.273  14.346   6.602
48350SOL    HW146947   3.365  14.329   6.623
48350SOL    HW246948   3.274  14.377   6.512
48351SOL     OW46949  12.432   0.119  12.844
48351SOL    HW146950  12.386   0.203  12.840
48351SOL    HW246951  12.513   0.135  12.796
48352SOL     OW46952  11.938  12.807   9.659
48352SOL    HW146953  11.960  12.812   9.751
48352SOL    HW246954  11.920  12.897   9.633
48353SOL     OW46955  11.992  12.470   7.955
48353SOL    HW146956  11.983  12.461   7.860
48353SOL    HW246957  11.905  12.498   7.985
48354SOL     OW46958   8.841  10.772   3.430
48354SOL    HW146959   8.898  10.772   3.507
48354SOL    HW246960   8.900  10.790   3.356
48355SOL     OW46961   1.156   7.721   9.226
48355SOL    HW146962   1.152   7.814   9.252
48355SOL    HW246963   1.192   7.677   9.303
48356SOL     OW46964  14.444  12.138  10.246
48356SOL    HW146965  14.429  12.070  10.311
48356SOL    HW246966  14.536  12.161  10.256
48357SOL     OW46967   7.020   0.416   4.009
48357SOL    HW146968   7.006   0.492   3.952
48357SOL    HW246969   7.088   0.365   3.964
48358SOL     OW46970   6.387  14.136  14.357
48358SOL    HW146971   6.480  14.111  14.353
48358SOL    HW246972   6.388  14.231  14.349
48359SOL     OW46973   1.061  14.285   4.241
48359SOL    HW146974   1.068  14.195   4.209
48359SOL    HW246975   1.124  14.334   4.189
48360SOL     OW46976   4.838   7.504  14.404
48360SOL    HW146977   4.913   7.469  14.453
48360SOL    HW246978   4.823   7.440  14.335
48361SOL     OW46979  10.185  12.816  12.188
48361SOL    HW146980  10.228  12.747  12.239
48361SOL    HW246981  10.105  12.836  12.236
48362SOL     OW46982   9.841  13.311  10.472
48362SOL    HW146983   9.799  13.396  10.487
48362SOL    HW246984   9.872  13.315  10.381
48363SOL     OW46985   1.283  13.057   2.040
48363SOL    HW146986   1.259  13.149   2.038
48363SOL    HW246987   1.367  13.054   2.085
48364SOL     OW46988  12.359   7.444   4.376
48364SOL    HW146989  12.387   7.535   4.363
48364SOL    HW246990  12.268   7.442   4.344
48365SOL     OW46991  12.176   6.063  10.460
48365SOL    HW146992  12.097   6.010  10.452
48365SOL    HW246993  12.182   6.082  10.554
48366SOL     OW46994   8.918   7.466  14.311
48366SOL    HW146995   8.899   7.451  14.404
48366SOL    HW246996   8.922   7.379  14.273
48367SOL     OW46997   0.161   9.747  10.753
48367SOL    HW146998   0.178   9.654  10.745
48367SOL    HW246999   0.068   9.757  10.732
48368SOL     OW47000  12.258   6.842  10.470
48368SOL    HW147001  12.216   6.909  10.525
48368SOL    HW247002  12.292   6.778  10.532
48369SOL     OW47003   1.220   9.432   2.214
48369SOL    HW147004   1.232   9.339   2.233
48369SOL    HW247005   1.169   9.464   2.288
48370SOL     OW47006  12.099   7.821   2.283
48370SOL    HW147007  12.101   7.850   2.192
48370SOL    HW247008  12.009   7.793   2.297
48371SOL     OW47009  12.495   8.293   8.565
48371SOL    HW147010  12.424   8.249   8.518
48371SOL    HW247011  12.452   8.365   8.611
48372SOL     OW47012  10.312  14.434   3.985
48372SOL    HW147013  10.300  14.527   4.003
48372SOL    HW247014  10.292  14.424   3.892
48373SOL     OW47015   3.221   9.391   9.302
48373SOL    HW147016   3.256   9.303   9.291
48373SOL    HW247017   3.269   9.427   9.377
48374SOL     OW47018  13.348   3.979   6.900
48374SOL    HW147019  13.429   4.027   6.922
48374SOL    HW247020  13.287   4.048   6.873
48375SOL     OW47021   7.489   0.823   9.709
48375SOL    HW147022   7.427   0.896   9.706
48375SOL    HW247023   7.544   0.835   9.631
48376SOL     OW47024  14.492   5.756  12.590
48376SOL    HW147025  14.406   5.715  12.599
48376SOL    HW247026  14.538   5.703  12.524
48377SOL     OW47027   4.764   5.852  10.919
48377SOL    HW147028   4.687   5.809  10.882
48377SOL    HW247029   4.795   5.910  10.849
48378SOL     OW47030   4.796   6.684   0.623
48378SOL    HW147031   4.719   6.635   0.596
48378SOL    HW247032   4.774   6.719   0.709
48379SOL     OW47033  11.029   8.482   2.315
48379SOL    HW147034  11.040   8.526   2.231
48379SOL    HW247035  11.073   8.539   2.378
48380SOL     OW47036  11.870   6.035   8.468
48380SOL    HW147037  11.805   6.093   8.428
48380SOL    HW247038  11.833   5.947   8.458
48381SOL     OW47039   6.228   5.998   1.593
48381SOL    HW147040   6.136   6.014   1.573
48381SOL    HW247041   6.234   6.002   1.688
48382SOL     OW47042   7.787   9.305  14.006
48382SOL    HW147043   7.800   9.400  14.003
48382SOL    HW247044   7.813   9.280  14.094
48383SOL     OW47045  12.237   0.225   6.017
48383SOL    HW147046  12.303   0.182   5.962
48383SOL    HW247047  12.197   0.154   6.067
48384SOL     OW47048   2.883   1.331   0.173
48384SOL    HW147049   2.840   1.417   0.178
48384SOL    HW247050   2.887   1.301   0.264
48385SOL     OW47051   1.679   9.473  10.190
48385SOL    HW147052   1.766   9.510  10.206
48385SOL    HW247053   1.656   9.429  10.271
48386SOL     OW47054   3.113   9.548   0.718
48386SOL    HW147055   3.033   9.495   0.710
48386SOL    HW247056   3.100   9.620   0.656
48387SOL     OW47057   8.396  11.978   1.056
48387SOL    HW147058   8.485  11.945   1.039
48387SOL    HW247059   8.397  12.001   1.149
48388SOL     OW47060  13.594   6.558   6.516
48388SOL    HW147061  13.564   6.648   6.499
48388SOL    HW247062  13.629   6.561   6.605
48389SOL     OW47063  11.113   6.103   5.136
48389SOL    HW147064  11.072   6.163   5.198
48389SOL    HW247065  11.150   6.033   5.191
48390SOL     OW47066   3.545   7.559   6.376
48390SOL    HW147067   3.519   7.635   6.323
48390SOL    HW247068   3.627   7.530   6.336
48391SOL     OW47069   4.528   9.785   4.703
48391SOL    HW147070   4.570   9.819   4.624
48391SOL    HW247071   4.576   9.827   4.775
48392SOL     OW47072  12.034  13.518   8.654
48392SOL    HW147073  11.986  13.459   8.713
48392SOL    HW247074  12.004  13.605   8.679
48393SOL     OW47075  12.335  10.565  11.140
48393SOL    HW147076  12.350  10.470  11.145
48393SOL    HW247077  12.306  10.580  11.050
48394SOL     OW47078   6.963   8.777  14.282
48394SOL    HW147079   6.978   8.859  14.329
48394SOL    HW247080   6.928   8.804  14.197
48395SOL     OW47081   4.147  14.327   8.009
48395SOL    HW147082   4.222  14.275   7.981
48395SOL    HW247083   4.076  14.264   8.019
48396SOL     OW47084  14.816  13.037   4.266
48396SOL    HW147085   0.027  13.007   4.257
48396SOL    HW247086  14.812  13.076   4.353
48397SOL     OW47087   1.369  10.364  14.472
48397SOL    HW147088   1.299  10.424  14.499
48397SOL    HW247089   1.377  10.302  14.545
48398SOL     OW47090  12.634   9.244   5.748
48398SOL    HW147091  12.721   9.218   5.778
48398SOL    HW247092  12.574   9.187   5.797
48399SOL     OW47093   5.260   1.768   6.434
48399SOL    HW147094   5.257   1.673   6.446
48399SOL    HW247095   5.188   1.801   6.488
48400SOL     OW47096  11.791  14.292   8.252
48400SOL    HW147097  11.777  14.239   8.174
48400SOL    HW247098  11.707  14.289   8.299
48401SOL     OW47099   8.702  12.069   8.201
48401SOL    HW147100   8.712  11.980   8.236
48401SOL    HW247101   8.767  12.073   8.130
48402SOL     OW47102   9.630   0.980  12.469
48402SOL    HW147103   9.644   1.072  12.489
48402SOL    HW247104   9.552   0.956  12.518
48403SOL     OW47105   9.543   9.674   1.003
48403SOL    HW147106   9.472   9.643   1.059
48403SOL    HW247107   9.583   9.745   1.054
48404SOL     OW47108  10.770   1.327  14.701
48404SOL    HW147109  10.786   1.406  14.649
48404SOL    HW247110  10.844   1.270  14.682
48405SOL     OW47111   0.725   5.335   6.386
48405SOL    HW147112   0.815   5.346   6.356
48405SOL    HW247113   0.733   5.301   6.475
48406SOL     OW47114  14.267  12.423   8.192
48406SOL    HW147115  14.271  12.344   8.247
48406SOL    HW247116  14.320  12.401   8.116
48407SOL     OW47117   6.255   8.031  13.097
48407SOL    HW147118   6.341   8.057  13.131
48407SOL    HW247119   6.192   8.069  13.159
48408SOL     OW47120   0.908  10.284   6.094
48408SOL    HW147121   1.000  10.272   6.115
48408SOL    HW247122   0.887  10.372   6.125
48409SOL     OW47123   9.051   9.979   5.803
48409SOL    HW147124   9.089   9.951   5.886
48409SOL    HW247125   9.052  10.075   5.807
48410SOL     OW47126   9.248  14.805   8.604
48410SOL    HW147127   9.218   0.013   8.624
48410SOL    HW247128   9.297  14.813   8.522
48411SOL     OW47129  11.869  14.356   6.598
48411SOL    HW147130  11.955  14.342   6.636
48411SOL    HW247131  11.886  14.374   6.505
48412SOL     OW47132   9.014   8.426  12.882
48412SOL    HW147133   8.974   8.502  12.924
48412SOL    HW247134   8.951   8.399  12.815
48413SOL     OW47135   9.709   0.917   7.700
48413SOL    HW147136   9.680   0.889   7.613
48413SOL    HW247137   9.719   1.012   7.692
48414SOL     OW47138  12.287   4.862   3.199
48414SOL    HW147139  12.349   4.876   3.127
48414SOL    HW247140  12.230   4.939   3.197
48415SOL     OW47141   1.710  14.664   3.659
48415SOL    HW147142   1.782  14.624   3.610
48415SOL    HW247143   1.754  14.719   3.724
48416SOL     OW47144  13.911   9.747   7.703
48416SOL    HW147145  14.001   9.780   7.702
48416SOL    HW247146  13.908   9.686   7.776
48417SOL     OW47147   6.941  13.619  12.815
48417SOL    HW147148   7.032  13.591  12.822
48417SOL    HW247149   6.945  13.703  12.769
48418SOL     OW47150   3.410   1.025   5.399
48418SOL    HW147151   3.473   1.086   5.362
48418SOL    HW247152   3.400   0.958   5.331
48419SOL     OW47153   8.243  12.737   3.113
48419SOL    HW147154   8.282  12.724   3.200
48419SOL    HW247155   8.314  12.770   3.059
48420SOL     OW47156   6.331   0.739   2.860
48420SOL    HW147157   6.314   0.763   2.768
48420SOL    HW247158   6.256   0.685   2.884
48421SOL     OW47159  11.512  14.476   2.938
48421SOL    HW147160  11.467  14.399   2.972
48421SOL    HW247161  11.489  14.546   3.000
48422SOL     OW47162   0.640   8.539   6.887
48422SOL    HW147163   0.717   8.484   6.900
48422SOL    HW247164   0.668   8.627   6.912
48423SOL     OW47165   7.214   5.915   2.965
48423SOL    HW147166   7.305   5.901   2.937
48423SOL    HW247167   7.165   5.920   2.883
48424SOL     OW47168   5.644   7.790  14.243
48424SOL    HW147169   5.591   7.796  14.163
48424SOL    HW247170   5.613   7.862  14.298
48425SOL     OW47171   9.304   1.764   0.929
48425SOL    HW147172   9.325   1.702   0.858
48425SOL    HW247173   9.336   1.721   1.008
48426SOL     OW47174   4.489   1.450  14.731
48426SOL    HW147175   4.508   1.533  14.775
48426SOL    HW247176   4.540   1.386  14.779
48427SOL     OW47177  10.609   6.266   7.698
48427SOL    HW147178  10.555   6.266   7.619
48427SOL    HW247179  10.585   6.185   7.744
48428SOL     OW47180   0.905   7.464   7.354
48428SOL    HW147181   0.978   7.524   7.337
48428SOL    HW247182   0.833   7.521   7.380
48429SOL     OW47183  14.667  11.942   4.776
48429SOL    HW147184  14.686  12.021   4.825
48429SOL    HW247185  14.631  11.881   4.841
48430SOL     OW47186   8.525   4.091   9.920
48430SOL    HW147187   8.565   4.165   9.966
48430SOL    HW247188   8.432   4.114   9.914
48431SOL     OW47189   0.160   7.749   0.626
48431SOL    HW147190   0.082   7.710   0.665
48431SOL    HW247191   0.130   7.833   0.591
48432SOL     OW47192   0.542   8.619  13.836
48432SOL    HW147193   0.535   8.649  13.926
48432SOL    HW247194   0.607   8.549  13.839
48433SOL     OW47195  11.942   1.986   6.951
48433SOL    HW147196  11.863   1.941   6.922
48433SOL    HW247197  11.995   1.995   6.872
48434SOL     OW47198   2.095   3.240   7.545
48434SOL    HW147199   2.104   3.150   7.577
48434SOL    HW247200   2.014   3.239   7.494
48435SOL     OW47201   5.536   3.173   2.668
48435SOL    HW147202   5.589   3.148   2.593
48435SOL    HW247203   5.456   3.209   2.631
48436SOL     OW47204   0.948  11.866  14.646
48436SOL    HW147205   0.979  11.776  14.642
48436SOL    HW247206   0.948  11.896  14.555
48437SOL     OW47207   9.726   9.555  10.707
48437SOL    HW147208   9.654   9.554  10.770
48437SOL    HW247209   9.804   9.544  10.761
48438SOL     OW47210   8.216   1.940   3.391
48438SOL    HW147211   8.254   1.853   3.387
48438SOL    HW247212   8.122   1.925   3.380
48439SOL     OW47213   8.227   6.115  14.061
48439SOL    HW147214   8.252   6.196  14.017
48439SOL    HW247215   8.219   6.139  14.153
48440SOL     OW47216   3.868  13.979   0.450
48440SOL    HW147217   3.786  14.010   0.488
48440SOL    HW247218   3.841  13.937   0.368
48441SOL     OW47219  14.410  10.635   3.148
48441SOL    HW147220  14.445  10.599   3.230
48441SOL    HW247221  14.440  10.725   3.147
48442SOL     OW47222   2.845  10.184   6.093
48442SOL    HW147223   2.873  10.094   6.109
48442SOL    HW247224   2.767  10.195   6.147
48443SOL     OW47225   2.888   7.528  10.790
48443SOL    HW147226   2.856   7.442  10.816
48443SOL    HW247227   2.983   7.516  10.781
48444SOL     OW47228   8.029   5.214   1.523
48444SOL    HW147229   7.967   5.206   1.596
48444SOL    HW247230   8.115   5.202   1.563
48445SOL     OW47231  12.766   3.537  14.053
48445SOL    HW147232  12.754   3.629  14.075
48445SOL    HW247233  12.689   3.515  14.001
48446SOL     OW47234   7.474   1.357   4.995
48446SOL    HW147235   7.421   1.423   4.952
48446SOL    HW247236   7.564   1.379   4.972
48447SOL     OW47237  12.003   6.367   7.746
48447SOL    HW147238  12.054   6.290   7.772
48447SOL    HW247239  11.998   6.361   7.651
48448SOL     OW47240   4.012  14.771   4.285
48448SOL    HW147241   3.985  14.795   4.196
48448SOL    HW247242   4.066  14.692   4.273
48449SOL     OW47243  12.490  12.094   7.411
48449SOL    HW147244  12.512  12.097   7.504
48449SOL    HW247245  12.400  12.060   7.409
48450SOL     OW47246  11.530  11.272  13.460
48450SOL    HW147247  11.487  11.211  13.401
48450SOL    HW247248  11.459  11.311  13.511
48451SOL     OW47249  13.508   3.672   8.128
48451SOL    HW147250  13.585   3.646   8.078
48451SOL    HW247251  13.458   3.728   8.068
48452SOL     OW47252   1.840   6.819   8.257
48452SOL    HW147253   1.823   6.868   8.177
48452SOL    HW247254   1.793   6.867   8.325
48453SOL     OW47255  11.613   9.793   7.411
48453SOL    HW147256  11.647   9.864   7.466
48453SOL    HW247257  11.662   9.716   7.438
48454SOL     OW47258   2.056  11.111   6.050
48454SOL    HW147259   2.056  11.197   6.008
48454SOL    HW247260   1.974  11.071   6.021
48455SOL     OW47261   8.756   3.398   1.438
48455SOL    HW147262   8.757   3.308   1.406
48455SOL    HW247263   8.849   3.418   1.454
48456SOL     OW47264   8.861  11.943  13.270
48456SOL    HW147265   8.900  11.966  13.354
48456SOL    HW247266   8.865  12.023  13.218
48457SOL     OW47267   9.545  10.904  14.423
48457SOL    HW147268   9.483  10.924  14.493
48457SOL    HW247269   9.578  10.990  14.395
48458SOL     OW47270   3.100   6.610   2.036
48458SOL    HW147271   3.106   6.705   2.027
48458SOL    HW247272   3.095   6.594   2.130
48459SOL     OW47273  14.538  13.636   0.861
48459SOL    HW147274  14.567  13.655   0.951
48459SOL    HW247275  14.612  13.659   0.806
48460SOL     OW47276  12.944  13.010  13.939
48460SOL    HW147277  12.855  12.991  13.969
48460SOL    HW247278  12.998  12.942  13.979
48461SOL     OW47279  12.961  11.904  14.359
48461SOL    HW147280  12.948  11.816  14.396
48461SOL    HW247281  12.934  11.963  14.429
48462SOL     OW47282   1.307   4.871   7.424
48462SOL    HW147283   1.245   4.937   7.394
48462SOL    HW247284   1.331   4.899   7.513
48463SOL     OW47285   0.167  10.897  14.542
48463SOL    HW147286   0.155  10.830  14.474
48463SOL    HW247287   0.102  10.964  14.522
48464SOL     OW47288  14.002   3.955  11.369
48464SOL    HW147289  14.025   3.871  11.410
48464SOL    HW247290  13.939   3.931  11.301
48465SOL     OW47291   5.825   4.003  13.796
48465SOL    HW147292   5.751   4.021  13.737
48465SOL    HW247293   5.893   3.969  13.739
48466SOL     OW47294   9.272  14.175   7.491
48466SOL    HW147295   9.340  14.174   7.423
48466SOL    HW247296   9.318  14.202   7.570
48467SOL     OW47297   3.609   6.335   1.860
48467SOL    HW147298   3.568   6.418   1.834
48467SOL    HW247299   3.695   6.360   1.893
48468SOL     OW47300  11.783   2.452   2.982
48468SOL    HW147301  11.813   2.505   3.056
48468SOL    HW247302  11.847   2.381   2.976
48469SOL     OW47303  13.195   7.834  10.452
48469SOL    HW147304  13.261   7.891  10.412
48469SOL    HW247305  13.231   7.813  10.538
48470SOL     OW47306   7.481  14.595   2.721
48470SOL    HW147307   7.504  14.545   2.642
48470SOL    HW247308   7.517  14.543   2.793
48471SOL     OW47309   3.764  13.365   0.615
48471SOL    HW147310   3.784  13.459   0.612
48471SOL    HW247311   3.845  13.324   0.645
48472SOL     OW47312  12.832   0.980   4.274
48472SOL    HW147313  12.864   0.987   4.364
48472SOL    HW247314  12.903   1.016   4.221
48473SOL     OW47315   5.987  11.404   8.318
48473SOL    HW147316   6.005  11.316   8.350
48473SOL    HW247317   6.032  11.409   8.234
48474SOL     OW47318   4.381   8.151   7.863
48474SOL    HW147319   4.420   8.137   7.949
48474SOL    HW247320   4.420   8.084   7.808
48475SOL     OW47321  10.434   1.489   0.616
48475SOL    HW147322  10.473   1.413   0.659
48475SOL    HW247323  10.503   1.555   0.616
48476SOL     OW47324  11.298  11.995  13.542
48476SOL    HW147325  11.256  12.001  13.456
48476SOL    HW247326  11.235  12.033  13.603
48477SOL     OW47327   8.716   5.413   4.275
48477SOL    HW147328   8.708   5.476   4.346
48477SOL    HW247329   8.694   5.463   4.196
48478SOL     OW47330  11.835   9.291   5.903
48478SOL    HW147331  11.909   9.246   5.944
48478SOL    HW247332  11.873   9.369   5.862
48479SOL     OW47333   9.174   6.683   4.505
48479SOL    HW147334   9.262   6.688   4.542
48479SOL    HW247335   9.117   6.717   4.574
48480SOL     OW47336  11.664  11.652  14.550
48480SOL    HW147337  11.615  11.688  14.624
48480SOL    HW247338  11.668  11.724  14.487
48481SOL     OW47339   4.163   2.820   2.760
48481SOL    HW147340   4.150   2.907   2.724
48481SOL    HW247341   4.186   2.765   2.684
48482SOL     OW47342   5.620   1.100   0.238
48482SOL    HW147343   5.554   1.047   0.194
48482SOL    HW247344   5.650   1.046   0.312
48483SOL     OW47345   3.815   9.521   6.541
48483SOL    HW147346   3.866   9.601   6.553
48483SOL    HW247347   3.828   9.498   6.449
48484SOL     OW47348   0.717  10.438   7.736
48484SOL    HW147349   0.727  10.345   7.717
48484SOL    HW247350   0.622  10.453   7.734
48485SOL     OW47351   7.388   0.144   8.856
48485SOL    HW147352   7.362   0.212   8.918
48485SOL    HW247353   7.466   0.105   8.896
48486SOL     OW47354   9.757   4.306   0.226
48486SOL    HW147355   9.803   4.355   0.294
48486SOL    HW247356   9.776   4.353   0.145
48487SOL     OW47357   4.392   7.045  10.934
48487SOL    HW147358   4.302   7.062  10.960
48487SOL    HW247359   4.429   6.995  11.006
48488SOL     OW47360  13.084   4.334   8.263
48488SOL    HW147361  13.062   4.250   8.222
48488SOL    HW247362  13.149   4.373   8.204
48489SOL     OW47363  12.619  11.858  12.550
48489SOL    HW147364  12.626  11.840  12.456
48489SOL    HW247365  12.669  11.939  12.563
48490SOL     OW47366   7.080   2.701  11.792
48490SOL    HW147367   7.138   2.749  11.733
48490SOL    HW247368   6.994   2.704  11.749
48491SOL     OW47369   3.374   1.059   6.460
48491SOL    HW147370   3.296   1.023   6.417
48491SOL    HW247371   3.362   1.037   6.552
48492SOL     OW47372  10.056   7.297  13.531
48492SOL    HW147373  10.134   7.346  13.507
48492SOL    HW247374  10.048   7.230  13.463
48493SOL     OW47375   5.154   7.384   9.760
48493SOL    HW147376   5.106   7.437   9.697
48493SOL    HW247377   5.219   7.338   9.708
48494SOL     OW47378   4.227   0.175   7.172
48494SOL    HW147379   4.139   0.200   7.201
48494SOL    HW247380   4.228   0.080   7.180
48495SOL     OW47381  12.178   3.528   3.920
48495SOL    HW147382  12.121   3.511   3.845
48495SOL    HW247383  12.266   3.512   3.887
48496SOL     OW47384  13.266   5.181   5.672
48496SOL    HW147385  13.328   5.111   5.696
48496SOL    HW247386  13.321   5.258   5.659
48497SOL     OW47387  11.758  11.683   7.100
48497SOL    HW147388  11.763  11.587   7.098
48497SOL    HW247389  11.841  11.711   7.137
48498SOL     OW47390   0.495   0.252   4.111
48498SOL    HW147391   0.482   0.320   4.176
48498SOL    HW247392   0.444   0.281   4.035
48499SOL     OW47393  10.580   5.117  11.946
48499SOL    HW147394  10.665   5.157  11.928
48499SOL    HW247395  10.590   5.026  11.920
48500SOL     OW47396   3.701   6.617  12.537
48500SOL    HW147397   3.609   6.595  12.520
48500SOL    HW247398   3.741   6.625  12.450
48501SOL     OW47399  13.801   6.328   4.165
48501SOL    HW147400  13.863   6.384   4.118
48501SOL    HW247401  13.769   6.267   4.099
48502SOL     OW47402  13.226  10.486  11.800
48502SOL    HW147403  13.132  10.495  11.788
48502SOL    HW247404  13.239  10.395  11.825
48503SOL     OW47405  12.126   2.002   8.268
48503SOL    HW147406  12.178   1.926   8.296
48503SOL    HW247407  12.182   2.077   8.289
48504SOL     OW47408   0.065   8.835  11.199
48504SOL    HW147409   0.058   8.924  11.233
48504SOL    HW247410   0.029   8.839  11.111
48505SOL     OW47411  10.626  10.112   1.347
48505SOL    HW147412  10.637  10.022   1.315
48505SOL    HW247413  10.714  10.149   1.346
48506SOL     OW47414  14.130   6.931   3.223
48506SOL    HW147415  14.195   6.877   3.270
48506SOL    HW247416  14.144   6.909   3.131
48507SOL     OW47417  11.066   7.569  12.990
48507SOL    HW147418  11.098   7.654  13.019
48507SOL    HW247419  10.989   7.589  12.937
48508SOL     OW47420   8.496  14.634  12.744
48508SOL    HW147421   8.469  14.712  12.696
48508SOL    HW247422   8.425  14.572  12.730
48509SOL     OW47423  13.096  14.139   7.186
48509SOL    HW147424  13.152  14.158   7.262
48509SOL    HW247425  13.102  14.045   7.175
48510SOL     OW47426   2.996  11.103  14.821
48510SOL    HW147427   2.960  11.051  14.750
48510SOL    HW247428   2.990  11.046   0.018
48511SOL     OW47429  10.887  11.589   4.787
48511SOL    HW147430  10.876  11.682   4.767
48511SOL    HW247431  10.855  11.580   4.877
48512SOL     OW47432   3.863   3.508   6.679
48512SOL    HW147433   3.958   3.502   6.673
48512SOL    HW247434   3.833   3.494   6.589
48513SOL     OW47435  13.771  11.455   4.928
48513SOL    HW147436  13.764  11.540   4.970
48513SOL    HW247437  13.700  11.403   4.966
48514SOL     OW47438   8.607  11.211  10.763
48514SOL    HW147439   8.617  11.193  10.856
48514SOL    HW247440   8.593  11.305  10.758
48515SOL     OW47441  12.202   2.629   9.048
48515SOL    HW147442  12.208   2.604   8.956
48515SOL    HW247443  12.112   2.661   9.058
48516SOL     OW47444  12.523   3.602   5.134
48516SOL    HW147445  12.472   3.535   5.179
48516SOL    HW247446  12.610   3.596   5.174
48517SOL     OW47447   0.709   6.863  13.961
48517SOL    HW147448   0.696   6.958  13.968
48517SOL    HW247449   0.723   6.847  13.868
48518SOL     OW47450   3.566   1.367  11.327
48518SOL    HW147451   3.594   1.389  11.416
48518SOL    HW247452   3.574   1.271  11.322
48519SOL     OW47453   1.295   9.186  13.724
48519SOL    HW147454   1.247   9.104  13.716
48519SOL    HW247455   1.298   9.203  13.819
48520SOL     OW47456   1.647   9.117  10.192
48520SOL    HW147457   1.620   9.044  10.137
48520SOL    HW247458   1.702   9.077  10.260
48521SOL     OW47459  13.974   2.329   3.828
48521SOL    HW147460  13.951   2.398   3.765
48521SOL    HW247461  13.890   2.299   3.863
48522SOL     OW47462   0.738   5.908  10.397
48522SOL    HW147463   0.798   5.886  10.468
48522SOL    HW247464   0.744   6.003  10.387
48523SOL     OW47465  11.844   7.677   8.305
48523SOL    HW147466  11.812   7.618   8.373
48523SOL    HW247467  11.793   7.654   8.227
48524SOL     OW47468   4.388  14.176  14.565
48524SOL    HW147469   4.402  14.216  14.480
48524SOL    HW247470   4.304  14.130  14.556
48525SOL     OW47471   2.569   9.843   6.692
48525SOL    HW147472   2.646   9.894   6.716
48525SOL    HW247473   2.591   9.754   6.717
48526SOL     OW47474  12.652   9.784  11.300
48526SOL    HW147475  12.604   9.864  11.280
48526SOL    HW247476  12.665   9.787  11.395
48527SOL     OW47477  11.385  14.674  14.379
48527SOL    HW147478  11.338  14.591  14.387
48527SOL    HW247479  11.440  14.663  14.301
48528SOL     OW47480   9.704  12.535   4.239
48528SOL    HW147481   9.646  12.531   4.163
48528SOL    HW247482   9.732  12.627   4.244
48529SOL     OW47483   8.624   2.475   3.641
48529SOL    HW147484   8.645   2.389   3.678
48529SOL    HW247485   8.700   2.497   3.587
48530SOL     OW47486   3.876   9.102   1.760
48530SOL    HW147487   3.810   9.152   1.711
48530SOL    HW247488   3.843   9.099   1.849
48531SOL     OW47489   5.583   1.169   4.850
48531SOL    HW147490   5.547   1.204   4.769
48531SOL    HW247491   5.608   1.246   4.901
48532SOL     OW47492  10.280   2.524   4.590
48532SOL    HW147493  10.188   2.541   4.571
48532SOL    HW247494  10.283   2.510   4.685
48533SOL     OW47495  13.213   8.604  10.226
48533SOL    HW147496  13.256   8.557  10.155
48533SOL    HW247497  13.226   8.697  10.204
48534SOL     OW47498   7.621   3.610   3.572
48534SOL    HW147499   7.530   3.619   3.543
48534SOL    HW247500   7.649   3.525   3.539
48535SOL     OW47501  14.793  13.905   6.097
48535SOL    HW147502  14.877  13.861   6.082
48535SOL    HW247503  14.813  13.998   6.094
48536SOL     OW47504   6.251   6.056   4.809
48536SOL    HW147505   6.206   6.030   4.889
48536SOL    HW247506   6.208   6.137   4.782
48537SOL     OW47507  13.674   8.136  13.743
48537SOL    HW147508  13.705   8.175  13.661
48537SOL    HW247509  13.724   8.055  13.750
48538SOL     OW47510   0.233   2.176   0.324
48538SOL    HW147511   0.141   2.173   0.298
48538SOL    HW247512   0.263   2.263   0.299
48539SOL     OW47513   6.273   9.566   6.431
48539SOL    HW147514   6.232   9.546   6.515
48539SOL    HW247515   6.207   9.542   6.366
48540SOL     OW47516   5.032   8.979  12.660
48540SOL    HW147517   4.958   8.975  12.599
48540SOL    HW247518   5.081   8.899  12.643
48541SOL     OW47519  10.043   9.061   6.449
48541SOL    HW147520   9.999   8.977   6.444
48541SOL    HW247521   9.982   9.118   6.496
48542SOL     OW47522   9.129  10.860  14.070
48542SOL    HW147523   9.085  10.935  14.030
48542SOL    HW247524   9.058  10.805  14.104
48543SOL     OW47525  10.876  14.516   6.183
48543SOL    HW147526  10.919  14.568   6.251
48543SOL    HW247527  10.877  14.426   6.218
48544SOL     OW47528   5.117   1.305  11.789
48544SOL    HW147529   5.149   1.315  11.878
48544SOL    HW247530   5.138   1.215  11.765
48545SOL     OW47531   9.653   2.215   1.444
48545SOL    HW147532   9.569   2.186   1.409
48545SOL    HW247533   9.677   2.147   1.507
48546SOL     OW47534  13.587   9.796   0.043
48546SOL    HW147535  13.495   9.816   0.057
48546SOL    HW247536  13.602   9.714   0.088
48547SOL     OW47537   4.876   5.109   6.395
48547SOL    HW147538   4.971   5.113   6.400
48547SOL    HW247539   4.849   5.200   6.379
48548SOL     OW47540   8.309   9.403   0.309
48548SOL    HW147541   8.311   9.308   0.305
48548SOL    HW247542   8.327   9.423   0.401
48549SOL     OW47543   6.077  10.914   0.288
48549SOL    HW147544   6.073  10.818   0.285
48549SOL    HW247545   6.169  10.934   0.273
48550SOL     OW47546  13.176   8.190   3.411
48550SOL    HW147547  13.210   8.162   3.496
48550SOL    HW247548  13.206   8.122   3.350
48551SOL     OW47549  11.149   3.981   3.812
48551SOL    HW147550  11.064   4.012   3.842
48551SOL    HW247551  11.134   3.889   3.790
48552SOL     OW47552   2.036   8.866  11.661
48552SOL    HW147553   2.008   8.857  11.752
48552SOL    HW247554   2.019   8.959  11.641
48553SOL     OW47555   8.826  14.189   3.371
48553SOL    HW147556   8.908  14.236   3.383
48553SOL    HW247557   8.852  14.100   3.346
48554SOL     OW47558   6.789   5.709   4.935
48554SOL    HW147559   6.754   5.746   5.016
48554SOL    HW247560   6.731   5.636   4.914
48555SOL     OW47561   5.716   1.942  11.889
48555SOL    HW147562   5.728   1.882  11.815
48555SOL    HW247563   5.732   1.889  11.966
48556SOL     OW47564  12.077   8.991   6.233
48556SOL    HW147565  12.131   8.999   6.311
48556SOL    HW247566  12.028   8.909   6.245
48557SOL     OW47567   6.565   2.967   2.668
48557SOL    HW147568   6.582   3.016   2.748
48557SOL    HW247569   6.478   2.929   2.681
48558SOL     OW47570   7.066  12.947  10.155
48558SOL    HW147571   6.973  12.925  10.147
48558SOL    HW247572   7.105  12.913  10.075
48559SOL     OW47573  14.288   4.724  12.910
48559SOL    HW147574  14.224   4.655  12.929
48559SOL    HW247575  14.255   4.765  12.830
48560SOL     OW47576  11.962   8.635   1.469
48560SOL    HW147577  11.896   8.682   1.418
48560SOL    HW247578  11.960   8.678   1.555
48561SOL     OW47579   4.118   6.981  10.706
48561SOL    HW147580   4.077   6.980  10.619
48561SOL    HW247581   4.102   7.070  10.738
48562SOL     OW47582   6.064   2.459   4.057
48562SOL    HW147583   6.084   2.369   4.081
48562SOL    HW247584   6.017   2.495   4.132
48563SOL     OW47585   0.117   1.740   8.446
48563SOL    HW147586   0.065   1.729   8.526
48563SOL    HW247587   0.189   1.798   8.471
48564SOL     OW47588   5.694   7.710   2.735
48564SOL    HW147589   5.719   7.791   2.781
48564SOL    HW247590   5.636   7.665   2.796
48565SOL     OW47591  10.958  12.753   1.786
48565SOL    HW147592  10.987  12.734   1.697
48565SOL    HW247593  10.900  12.680   1.808
48566SOL     OW47594  12.704  12.338   8.370
48566SOL    HW147595  12.718  12.244   8.383
48566SOL    HW247596  12.650  12.343   8.292
48567SOL     OW47597   7.598  13.504  11.362
48567SOL    HW147598   7.540  13.566  11.408
48567SOL    HW247599   7.671  13.492  11.422
48568SOL     OW47600  12.914   3.532   0.684
48568SOL    HW147601  12.946   3.457   0.634
48568SOL    HW247602  12.946   3.608   0.636
48569SOL     OW47603  14.571   1.557  11.854
48569SOL    HW147604  14.608   1.536  11.940
48569SOL    HW247605  14.563   1.653  11.854
48570SOL     OW47606   5.267  10.580   0.808
48570SOL    HW147607   5.273  10.675   0.820
48570SOL    HW247608   5.350  10.556   0.767
48571SOL     OW47609   1.911   8.739  10.982
48571SOL    HW147610   1.943   8.649  10.982
48571SOL    HW247611   1.987   8.792  11.007
48572SOL     OW47612   7.992   9.096   1.181
48572SOL    HW147613   7.942   9.064   1.256
48572SOL    HW247614   8.074   9.128   1.218
48573SOL     OW47615  10.375   4.601   8.994
48573SOL    HW147616  10.384   4.689   8.957
48573SOL    HW247617  10.449   4.552   8.959
48574SOL     OW47618   9.096   7.647   4.908
48574SOL    HW147619   9.157   7.721   4.904
48574SOL    HW247620   9.062   7.639   4.819
48575SOL     OW47621  11.780   5.309   6.686
48575SOL    HW147622  11.702   5.289   6.739
48575SOL    HW247623  11.767   5.258   6.606
48576SOL     OW47624   9.181   4.507   5.560
48576SOL    HW147625   9.140   4.585   5.596
48576SOL    HW247626   9.117   4.473   5.497
48577SOL     OW47627  11.613   1.839   0.940
48577SOL    HW147628  11.551   1.890   0.888
48577SOL    HW247629  11.699   1.874   0.916
48578SOL     OW47630   5.053   9.538  11.462
48578SOL    HW147631   5.142   9.517  11.491
48578SOL    HW247632   4.999   9.523  11.539
48579SOL     OW47633   6.620   5.844  12.083
48579SOL    HW147634   6.564   5.898  12.027
48579SOL    HW247635   6.611   5.882  12.171
48580SOL     OW47636  12.577   9.046  14.299
48580SOL    HW147637  12.647   9.069  14.361
48580SOL    HW247638  12.588   9.108  14.227
48581SOL     OW47639  12.301   6.998   1.811
48581SOL    HW147640  12.316   7.040   1.896
48581SOL    HW247641  12.218   7.035   1.781
48582SOL     OW47642  13.624   3.614   7.010
48582SOL    HW147643  13.635   3.702   6.975
48582SOL    HW247644  13.705   3.569   6.987
48583SOL     OW47645   3.402   6.127  13.695
48583SOL    HW147646   3.350   6.171  13.628
48583SOL    HW247647   3.493   6.138  13.666
48584SOL     OW47648  10.357   3.277  13.119
48584SOL    HW147649  10.389   3.310  13.035
48584SOL    HW247650  10.263   3.264  13.106
48585SOL     OW47651   4.978   3.557  10.227
48585SOL    HW147652   4.927   3.483  10.257
48585SOL    HW247653   4.958   3.564  10.133
48586SOL     OW47654  10.654   1.733   3.130
48586SOL    HW147655  10.704   1.679   3.069
48586SOL    HW247656  10.640   1.677   3.207
48587SOL     OW47657  10.436   7.156   7.452
48587SOL    HW147658  10.411   7.079   7.502
48587SOL    HW247659  10.361   7.174   7.395
48588SOL     OW47660   2.003   3.832   1.132
48588SOL    HW147661   2.085   3.871   1.102
48588SOL    HW247662   1.943   3.843   1.058
48589SOL     OW47663  11.053   9.223   9.695
48589SOL    HW147664  10.961   9.248   9.704
48589SOL    HW247665  11.084   9.270   9.618
48590SOL     OW47666   5.173  13.805  11.544
48590SOL    HW147667   5.224  13.877  11.582
48590SOL    HW247668   5.100  13.793  11.604
48591SOL     OW47669   5.849   7.420   7.870
48591SOL    HW147670   5.937   7.433   7.907
48591SOL    HW247671   5.859   7.345   7.811
48592SOL     OW47672   4.139   1.321   3.579
48592SOL    HW147673   4.080   1.265   3.529
48592SOL    HW247674   4.145   1.402   3.528
48593SOL     OW47675   8.731  13.018  12.263
48593SOL    HW147676   8.806  12.960  12.277
48593SOL    HW247677   8.685  12.981  12.189
48594SOL     OW47678   6.445   0.873   7.865
48594SOL    HW147679   6.423   0.859   7.957
48594SOL    HW247680   6.477   0.964   7.862
48595SOL     OW47681  13.391   8.847   6.489
48595SOL    HW147682  13.420   8.762   6.523
48595SOL    HW247683  13.460   8.873   6.427
48596SOL     OW47684  12.877   4.771   7.409
48596SOL    HW147685  12.865   4.866   7.415
48596SOL    HW247686  12.896   4.754   7.317
48597SOL     OW47687  13.712  12.026   7.454
48597SOL    HW147688  13.774  11.964   7.415
48597SOL    HW247689  13.745  12.043   7.542
48598SOL     OW47690  11.063  10.483   6.923
48598SOL    HW147691  11.122  10.546   6.965
48598SOL    HW247692  11.111  10.452   6.847
48599SOL     OW47693   2.863  12.671  12.771
48599SOL    HW147694   2.855  12.642  12.680
48599SOL    HW247695   2.954  12.700  12.779
48600SOL     OW47696  10.136   1.356   7.573
48600SOL    HW147697  10.174   1.351   7.660
48600SOL    HW247698  10.042   1.366   7.588
48601SOL     OW47699  10.401  14.002  14.226
48601SOL    HW147700  10.451  13.949  14.287
48601SOL    HW247701  10.467  14.038  14.166
48602SOL     OW47702   8.879   5.056   3.173
48602SOL    HW147703   8.841   4.977   3.212
48602SOL    HW247704   8.963   5.066   3.217
48603SOL     OW47705  13.847   8.962   0.247
48603SOL    HW147706  13.800   8.885   0.281
48603SOL    HW247707  13.779   9.029   0.239
48604SOL     OW47708   3.089   7.365  11.344
48604SOL    HW147709   3.172   7.344  11.387
48604SOL    HW247710   3.072   7.292  11.286
48605SOL     OW47711  13.128  11.207   7.714
48605SOL    HW147712  13.176  11.288   7.704
48605SOL    HW247713  13.195  11.139   7.724
48606SOL     OW47714   5.270  12.006  12.750
48606SOL    HW147715   5.329  12.058  12.804
48606SOL    HW247716   5.268  12.053  12.666
48607SOL     OW47717   4.928   5.809   1.596
48607SOL    HW147718   5.010   5.801   1.546
48607SOL    HW247719   4.866   5.753   1.548
48608SOL     OW47720   9.454   6.830  12.007
48608SOL    HW147721   9.399   6.753  12.020
48608SOL    HW247722   9.543   6.798  12.020
48609SOL     OW47723   1.775   4.057   3.807
48609SOL    HW147724   1.766   3.993   3.878
48609SOL    HW247725   1.829   4.013   3.741
48610SOL     OW47726   2.524   7.458   4.143
48610SOL    HW147727   2.503   7.455   4.049
48610SOL    HW247728   2.619   7.450   4.147
48611SOL     OW47729   0.856   2.399   0.828
48611SOL    HW147730   0.776   2.452   0.829
48611SOL    HW247731   0.910   2.437   0.898
48612SOL     OW47732  12.044  10.208  13.846
48612SOL    HW147733  12.056  10.218  13.751
48612SOL    HW247734  12.097  10.278  13.884
48613SOL     OW47735   5.219   0.647   3.663
48613SOL    HW147736   5.293   0.614   3.611
48613SOL    HW247737   5.228   0.742   3.658
48614SOL     OW47738   3.090   1.004  12.313
48614SOL    HW147739   3.032   1.000  12.389
48614SOL    HW247740   3.082   0.918  12.272
48615SOL     OW47741   1.732  11.982   2.586
48615SOL    HW147742   1.796  11.925   2.543
48615SOL    HW247743   1.651  11.969   2.536
48616SOL     OW47744   5.301   2.474   2.653
48616SOL    HW147745   5.366   2.511   2.713
48616SOL    HW247746   5.347   2.400   2.612
48617SOL     OW47747  10.350   5.358   0.971
48617SOL    HW147748  10.321   5.404   1.049
48617SOL    HW247749  10.396   5.424   0.919
48618SOL     OW47750   3.890  13.745   2.358
48618SOL    HW147751   3.935  13.671   2.400
48618SOL    HW247752   3.960  13.798   2.320
48619SOL     OW47753   3.746   3.823  13.835
48619SOL    HW147754   3.773   3.863  13.752
48619SOL    HW247755   3.784   3.881  13.902
48620SOL     OW47756   3.971   5.435   3.501
48620SOL    HW147757   3.964   5.343   3.524
48620SOL    HW247758   3.898   5.451   3.441
48621SOL     OW47759   3.018  14.037   5.715
48621SOL    HW147760   3.005  14.044   5.810
48621SOL    HW247761   2.930  14.040   5.679
48622SOL     OW47762   9.164   2.394   4.823
48622SOL    HW147763   9.115   2.356   4.896
48622SOL    HW247764   9.143   2.488   4.826
48623SOL     OW47765   2.672   8.948   5.627
48623SOL    HW147766   2.701   9.023   5.679
48623SOL    HW247767   2.600   8.982   5.574
48624SOL     OW47768   3.210   5.053   2.881
48624SOL    HW147769   3.236   4.963   2.899
48624SOL    HW247770   3.257   5.106   2.945
48625SOL     OW47771  10.783   3.456   5.943
48625SOL    HW147772  10.780   3.508   6.023
48625SOL    HW247773  10.749   3.370   5.968
48626SOL     OW47774   4.463   8.922   3.469
48626SOL    HW147775   4.415   8.967   3.539
48626SOL    HW247776   4.525   8.988   3.437
48627SOL     OW47777   1.180   8.405   5.793
48627SOL    HW147778   1.161   8.475   5.731
48627SOL    HW247779   1.263   8.430   5.834
48628SOL     OW47780   2.531  13.525  12.125
48628SOL    HW147781   2.476  13.574  12.064
48628SOL    HW247782   2.618  13.565  12.117
48629SOL     OW47783   1.896   7.618   7.330
48629SOL    HW147784   1.851   7.630   7.246
48629SOL    HW247785   1.987   7.641   7.311
48630SOL     OW47786  14.693   7.178   7.585
48630SOL    HW147787  14.627   7.182   7.516
48630SOL    HW247788  14.665   7.106   7.641
48631SOL     OW47789   1.194   9.100   6.475
48631SOL    HW147790   1.155   9.054   6.549
48631SOL    HW247791   1.212   9.032   6.410
48632SOL     OW47792  14.060  13.972  10.214
48632SOL    HW147793  14.039  13.983  10.306
48632SOL    HW247794  14.142  14.021  10.202
48633SOL     OW47795   6.235   4.246  10.264
48633SOL    HW147796   6.154   4.243  10.314
48633SOL    HW247797   6.297   4.291  10.322
48634SOL     OW47798   9.629   0.616  12.759
48634SOL    HW147799   9.544   0.587  12.727
48634SOL    HW247800   9.612   0.703  12.796
48635SOL     OW47801   4.738   3.105   0.072
48635SOL    HW147802   4.795   3.160   0.125
48635SOL    HW247803   4.727   3.153  14.871
48636SOL     OW47804   8.552   9.044   4.931
48636SOL    HW147805   8.620   9.053   4.864
48636SOL    HW247806   8.553   9.128   4.978
48637SOL     OW47807  12.923   1.127  10.593
48637SOL    HW147808  12.936   1.214  10.557
48637SOL    HW247809  12.854   1.088  10.540
48638SOL     OW47810  11.857   4.180   1.424
48638SOL    HW147811  11.883   4.226   1.344
48638SOL    HW247812  11.766   4.208   1.439
48639SOL     OW47813   3.505   4.205   9.206
48639SOL    HW147814   3.431   4.147   9.227
48639SOL    HW247815   3.577   4.145   9.185
48640SOL     OW47816   7.881   0.801   5.035
48640SOL    HW147817   7.974   0.793   5.014
48640SOL    HW247818   7.879   0.804   5.131
48641SOL     OW47819  12.186   5.652  10.131
48641SOL    HW147820  12.183   5.568  10.085
48641SOL    HW247821  12.278   5.677  10.128
48642SOL     OW47822   9.869   9.407   8.906
48642SOL    HW147823   9.928   9.401   8.831
48642SOL    HW247824   9.874   9.321   8.947
48643SOL     OW47825   9.194  12.061  11.220
48643SOL    HW147826   9.259  12.100  11.279
48643SOL    HW247827   9.217  11.968  11.219
48644SOL     OW47828   1.519  13.424  13.817
48644SOL    HW147829   1.614  13.422  13.826
48644SOL    HW247830   1.487  13.372  13.891
48645SOL     OW47831  12.394   1.036   3.840
48645SOL    HW147832  12.328   1.077   3.783
48645SOL    HW247833  12.351   0.957   3.872
48646SOL     OW47834   8.043  13.129   7.986
48646SOL    HW147835   8.036  13.120   7.891
48646SOL    HW247836   8.098  13.206   7.999
48647SOL     OW47837   5.774  11.099   6.302
48647SOL    HW147838   5.756  11.144   6.219
48647SOL    HW247839   5.831  11.026   6.278
48648SOL     OW47840  12.763   2.047   9.708
48648SOL    HW147841  12.853   2.047   9.678
48648SOL    HW247842  12.722   2.120   9.659
48649SOL     OW47843   8.511  11.580   0.035
48649SOL    HW147844   8.439  11.564  14.855
48649SOL    HW247845   8.542  11.493   0.060
48650SOL     OW47846   4.977   0.715  10.471
48650SOL    HW147847   4.967   0.707  10.565
48650SOL    HW247848   4.909   0.777  10.444
48651SOL     OW47849  14.123   3.883  12.630
48651SOL    HW147850  14.150   3.798  12.595
48651SOL    HW247851  14.135   3.875  12.724
48652SOL     OW47852   2.863   3.707  14.852
48652SOL    HW147853   2.899   3.769  14.788
48652SOL    HW247854   2.853   3.625  14.804
48653SOL     OW47855  14.026  11.027   2.848
48653SOL    HW147856  14.014  11.057   2.938
48653SOL    HW247857  14.027  10.932   2.854
48654SOL     OW47858  12.189   8.226   8.600
48654SOL    HW147859  12.193   8.152   8.661
48654SOL    HW247860  12.177   8.185   8.514
48655SOL     OW47861  11.867  13.793  11.960
48655SOL    HW147862  11.799  13.849  11.923
48655SOL    HW247863  11.909  13.752  11.884
48656SOL     OW47864  11.513  10.439   5.893
48656SOL    HW147865  11.589  10.476   5.847
48656SOL    HW247866  11.535  10.448   5.986
48657SOL     OW47867  14.153  13.371  14.709
48657SOL    HW147868  14.174  13.464  14.707
48657SOL    HW247869  14.209  13.332  14.642
48658SOL     OW47870  12.422   8.227   2.323
48658SOL    HW147871  12.468   8.251   2.403
48658SOL    HW247872  12.330   8.220   2.349
48659SOL     OW47873   7.721   8.984   8.651
48659SOL    HW147874   7.710   8.894   8.620
48659SOL    HW247875   7.801   9.015   8.608
48660SOL     OW47876   2.112  13.314   8.536
48660SOL    HW147877   2.154  13.398   8.513
48660SOL    HW247878   2.034  13.339   8.584
48661SOL     OW47879   7.825  10.607   9.631
48661SOL    HW147880   7.827  10.548   9.556
48661SOL    HW247881   7.733  10.626   9.646
48662SOL     OW47882   2.784   5.678   1.534
48662SOL    HW147883   2.732   5.753   1.502
48662SOL    HW247884   2.871   5.693   1.498
48663SOL     OW47885   3.556   3.369   4.603
48663SOL    HW147886   3.624   3.385   4.538
48663SOL    HW247887   3.605   3.350   4.684
48664SOL     OW47888   4.829  13.288  11.626
48664SOL    HW147889   4.898  13.306  11.562
48664SOL    HW247890   4.768  13.361  11.615
48665SOL     OW47891   1.165  10.173   3.368
48665SOL    HW147892   1.089  10.137   3.413
48665SOL    HW247893   1.219  10.209   3.438
48666SOL     OW47894  14.419   9.034   4.446
48666SOL    HW147895  14.471   8.958   4.472
48666SOL    HW247896  14.382   9.011   4.361
48667SOL     OW47897   5.070   8.318  11.289
48667SOL    HW147898   5.058   8.252  11.358
48667SOL    HW247899   5.125   8.384  11.329
48668SOL     OW47900   2.092   0.305   9.002
48668SOL    HW147901   2.031   0.377   9.019
48668SOL    HW247902   2.071   0.275   8.914
48669SOL     OW47903   7.177   4.114  12.570
48669SOL    HW147904   7.164   4.115  12.665
48669SOL    HW247905   7.229   4.036  12.554
48670SOL     OW47906  11.803   6.799   6.752
48670SOL    HW147907  11.886   6.820   6.711
48670SOL    HW247908  11.742   6.866   6.720
48671SOL     OW47909  14.397   3.040   1.794
48671SOL    HW147910  14.413   3.128   1.760
48671SOL    HW247911  14.474   2.989   1.767
48672SOL     OW47912   7.627  12.320  11.751
48672SOL    HW147913   7.629  12.240  11.804
48672SOL    HW247914   7.712  12.362  11.768
48673SOL     OW47915   8.034  13.317   7.551
48673SOL    HW147916   8.069  13.367   7.625
48673SOL    HW247917   7.940  13.337   7.551
48674SOL     OW47918  12.232   2.885   9.654
48674SOL    HW147919  12.294   2.949   9.621
48674SOL    HW247920  12.287   2.816   9.693
48675SOL     OW47921   9.961  12.226  10.059
48675SOL    HW147922   9.941  12.133  10.065
48675SOL    HW247923   9.964  12.245   9.966
48676SOL     OW47924  13.882  11.992  11.957
48676SOL    HW147925  13.972  11.984  11.926
48676SOL    HW247926  13.887  11.978  12.052
48677SOL     OW47927  13.410  13.646  11.462
48677SOL    HW147928  13.366  13.689  11.535
48677SOL    HW247929  13.352  13.661  11.387
48678SOL     OW47930  11.736   8.593   7.437
48678SOL    HW147931  11.752   8.577   7.530
48678SOL    HW247932  11.641   8.601   7.430
48679SOL     OW47933  11.378  11.061   8.773
48679SOL    HW147934  11.319  11.132   8.748
48679SOL    HW247935  11.433  11.098   8.842
48680SOL     OW47936   2.020  10.349   8.133
48680SOL    HW147937   1.931  10.385   8.135
48680SOL    HW247938   2.007  10.254   8.134
48681SOL     OW47939   7.673  12.149   5.340
48681SOL    HW147940   7.635  12.063   5.357
48681SOL    HW247941   7.688  12.151   5.246
48682SOL     OW47942  10.149  14.463  14.091
48682SOL    HW147943  10.220  14.435  14.033
48682SOL    HW247944  10.137  14.390  14.151
48683SOL     OW47945   1.811   2.206   9.287
48683SOL    HW147946   1.780   2.156   9.362
48683SOL    HW247947   1.787   2.296   9.308
48684SOL     OW47948   1.248   3.040   8.013
48684SOL    HW147949   1.211   3.026   8.101
48684SOL    HW247950   1.300   2.962   7.997
48685SOL     OW47951  14.187   3.113   5.489
48685SOL    HW147952  14.160   3.157   5.408
48685SOL    HW247953  14.181   3.181   5.556
48686SOL     OW47954   1.900  13.665   4.643
48686SOL    HW147955   1.915  13.678   4.737
48686SOL    HW247956   1.809  13.638   4.637
48687SOL     OW47957  14.042   8.681   2.480
48687SOL    HW147958  14.061   8.620   2.552
48687SOL    HW247959  13.971   8.638   2.432
48688SOL     OW47960   7.753   7.317  12.767
48688SOL    HW147961   7.665   7.290  12.739
48688SOL    HW247962   7.776   7.254  12.836
48689SOL     OW47963   6.290   1.231   5.111
48689SOL    HW147964   6.301   1.316   5.154
48689SOL    HW247965   6.361   1.228   5.046
48690SOL     OW47966   9.363   7.041  12.956
48690SOL    HW147967   9.438   7.087  12.918
48690SOL    HW247968   9.400   6.988  13.027
48691SOL     OW47969   8.861  12.334  14.800
48691SOL    HW147970   8.876  12.403  14.736
48691SOL    HW247971   8.894  12.370   0.002
48692SOL     OW47972   8.238  11.134   9.701
48692SOL    HW147973   8.216  11.226   9.687
48692SOL    HW247974   8.227  11.120   9.795
48693SOL     OW47975   4.310   9.514  13.018
48693SOL    HW147976   4.244   9.569  13.061
48693SOL    HW247977   4.342   9.456  13.087
48694SOL     OW47978   5.978   8.601   1.449
48694SOL    HW147979   6.066   8.632   1.471
48694SOL    HW247980   5.988   8.559   1.364
48695SOL     OW47981   9.325  13.058  10.770
48695SOL    HW147982   9.394  13.125  10.780
48695SOL    HW247983   9.317  13.046  10.676
48696SOL     OW47984   7.619  13.732   2.334
48696SOL    HW147985   7.709  13.701   2.330
48696SOL    HW247986   7.576  13.693   2.258
48697SOL     OW47987   9.741   7.675   1.408
48697SOL    HW147988   9.745   7.598   1.464
48697SOL    HW247989   9.782   7.744   1.459
48698SOL     OW47990  14.196  12.096   3.577
48698SOL    HW147991  14.272  12.128   3.529
48698SOL    HW247992  14.144  12.050   3.511
48699SOL     OW47993  11.919   7.150   4.670
48699SOL    HW147994  11.834   7.106   4.662
48699SOL    HW247995  11.961   7.108   4.745
48700SOL     OW47996   5.920   2.167   6.963
48700SOL    HW147997   5.970   2.247   6.978
48700SOL    HW247998   5.972   2.118   6.900
48701SOL     OW47999   8.653   0.627  13.414
48701SOL    HW148000   8.683   0.543  13.446
48701SOL    HW248001   8.581   0.607  13.355
48702SOL     OW48002   6.338   0.800   4.689
48702SOL    HW148003   6.250   0.839   4.682
48702SOL    HW248004   6.328   0.732   4.755
48703SOL     OW48005   1.953  14.231  12.561
48703SOL    HW148006   2.010  14.258  12.633
48703SOL    HW248007   1.866  14.225  12.600
48704SOL     OW48008   4.677   1.661   7.354
48704SOL    HW148009   4.694   1.717   7.430
48704SOL    HW248010   4.761   1.658   7.308
48705SOL     OW48011   7.197  10.159  12.610
48705SOL    HW148012   7.176  10.153  12.517
48705SOL    HW248013   7.274  10.103  12.621
48706SOL     OW48014   6.391   2.655   2.920
48706SOL    HW148015   6.329   2.611   2.861
48706SOL    HW248016   6.445   2.585   2.956
48707SOL     OW48017  13.660  11.890   4.256
48707SOL    HW148018  13.746  11.856   4.234
48707SOL    HW248019  13.615  11.817   4.299
48708SOL     OW48020   4.034   7.524  11.524
48708SOL    HW148021   3.960   7.485  11.477
48708SOL    HW248022   3.994   7.586  11.585
48709SOL     OW48023  11.883   5.726   5.395
48709SOL    HW148024  11.882   5.631   5.397
48709SOL    HW248025  11.969   5.750   5.430
48710SOL     OW48026   1.939   7.562   5.515
48710SOL    HW148027   2.014   7.568   5.457
48710SOL    HW248028   1.944   7.641   5.569
48711SOL     OW48029   9.221   8.558   7.807
48711SOL    HW148030   9.260   8.548   7.894
48711SOL    HW248031   9.130   8.530   7.819
48712SOL     OW48032   1.597   2.986   1.508
48712SOL    HW148033   1.646   3.053   1.554
48712SOL    HW248034   1.526   3.033   1.465
48713SOL     OW48035   6.623  12.655  13.667
48713SOL    HW148036   6.529  12.672  13.670
48713SOL    HW248037   6.632  12.580  13.608
48714SOL     OW48038   0.794   9.310   3.030
48714SOL    HW148039   0.807   9.279   2.940
48714SOL    HW248040   0.881   9.303   3.070
48715SOL     OW48041  14.590   3.350   4.599
48715SOL    HW148042  14.600   3.421   4.663
48715SOL    HW248043  14.614   3.390   4.516
48716SOL     OW48044   4.220   4.999   1.072
48716SOL    HW148045   4.255   5.052   1.144
48716SOL    HW248046   4.237   4.909   1.098
48717SOL     OW48047  11.626   5.683   6.153
48717SOL    HW148048  11.633   5.671   6.248
48717SOL    HW248049  11.715   5.666   6.120
48718SOL     OW48050  13.532   7.599   7.120
48718SOL    HW148051  13.515   7.673   7.179
48718SOL    HW248052  13.445   7.570   7.092
48719SOL     OW48053  10.821   9.247  12.783
48719SOL    HW148054  10.762   9.317  12.811
48719SOL    HW248055  10.833   9.193  12.861
48720SOL     OW48056  11.754   3.724   0.701
48720SOL    HW148057  11.797   3.765   0.625
48720SOL    HW248058  11.661   3.724   0.678
48721SOL     OW48059  13.550   8.093   2.697
48721SOL    HW148060  13.544   8.138   2.613
48721SOL    HW248061  13.523   8.003   2.677
48722SOL     OW48062   9.607   0.500   8.445
48722SOL    HW148063   9.592   0.556   8.370
48722SOL    HW248064   9.696   0.466   8.432
48723SOL     OW48065   1.199  14.261   6.865
48723SOL    HW148066   1.231  14.220   6.785
48723SOL    HW248067   1.267  14.244   6.930
48724SOL     OW48068  13.517   1.787   6.409
48724SOL    HW148069  13.456   1.826   6.347
48724SOL    HW248070  13.482   1.700   6.426
48725SOL     OW48071   7.009   8.701  13.584
48725SOL    HW148072   6.978   8.623  13.538
48725SOL    HW248073   7.013   8.768  13.516
48726SOL     OW48074  14.189   2.177  12.483
48726SOL    HW148075  14.228   2.131  12.558
48726SOL    HW248076  14.235   2.261  12.481
48727SOL     OW48077  11.584   8.309   1.586
48727SOL    HW148078  11.633   8.227   1.596
48727SOL    HW248079  11.612   8.363   1.659
48728SOL     OW48080   6.086   4.061   1.852
48728SOL    HW148081   6.024   4.000   1.892
48728SOL    HW248082   6.053   4.074   1.763
48729SOL     OW48083   2.176   2.441  11.468
48729SOL    HW148084   2.086   2.447  11.500
48729SOL    HW248085   2.171   2.381  11.393
48730SOL     OW48086  13.119   4.738  10.046
48730SOL    HW148087  13.173   4.688  10.108
48730SOL    HW248088  13.166   4.821  10.035
48731SOL     OW48089  14.491   7.083   9.981
48731SOL    HW148090  14.520   7.116  10.065
48731SOL    HW248091  14.403   7.049   9.997
48732SOL     OW48092   2.827   2.848   8.472
48732SOL    HW148093   2.779   2.767   8.491
48732SOL    HW248094   2.885   2.825   8.400
48733SOL     OW48095   6.192   9.162   4.562
48733SOL    HW148096   6.261   9.111   4.519
48733SOL    HW248097   6.111   9.114   4.543
48734SOL     OW48098   1.105   6.303   3.102
48734SOL    HW148099   1.097   6.310   3.197
48734SOL    HW248100   1.113   6.394   3.072
48735SOL     OW48101   1.637  11.635   6.155
48735SOL    HW148102   1.714  11.685   6.125
48735SOL    HW248103   1.604  11.684   6.230
48736SOL     OW48104  11.026   3.763  12.450
48736SOL    HW148105  11.014   3.705  12.525
48736SOL    HW248106  11.070   3.840  12.486
48737SOL     OW48107   4.367  13.255   2.941
48737SOL    HW148108   4.313  13.332   2.959
48737SOL    HW248109   4.322  13.183   2.986
48738SOL     OW48110  13.971   5.176   3.362
48738SOL    HW148111  13.955   5.114   3.433
48738SOL    HW248112  13.937   5.132   3.284
48739SOL     OW48113  12.550   5.048   0.427
48739SOL    HW148114  12.515   5.062   0.339
48739SOL    HW248115  12.593   5.130   0.449
48740SOL     OW48116   3.289   9.296  11.829
48740SOL    HW148117   3.285   9.208  11.867
48740SOL    HW248118   3.345   9.286  11.752
48741SOL     OW48119   0.499   9.170  14.516
48741SOL    HW148120   0.587   9.138  14.537
48741SOL    HW248121   0.486   9.244  14.575
48742SOL     OW48122   6.104  14.251   3.600
48742SOL    HW148123   6.194  14.237   3.632
48742SOL    HW248124   6.115  14.300   3.519
48743SOL     OW48125   1.433  12.803  12.814
48743SOL    HW148126   1.471  12.823  12.728
48743SOL    HW248127   1.340  12.824  12.804
48744SOL     OW48128  11.801   5.123   0.805
48744SOL    HW148129  11.716   5.118   0.762
48744SOL    HW248130  11.858   5.165   0.741
48745SOL     OW48131   8.560   6.381   2.922
48745SOL    HW148132   8.584   6.291   2.945
48745SOL    HW248133   8.493   6.404   2.987
48746SOL     OW48134   2.309  13.376   5.309
48746SOL    HW148135   2.396  13.351   5.340
48746SOL    HW248136   2.324  13.455   5.256
48747SOL     OW48137   2.287   2.453  14.113
48747SOL    HW148138   2.382   2.461  14.113
48747SOL    HW248139   2.270   2.372  14.160
48748SOL     OW48140   6.211   5.863  12.965
48748SOL    HW148141   6.258   5.943  12.986
48748SOL    HW248142   6.210   5.812  13.046
48749SOL     OW48143  12.235   1.532   8.403
48749SOL    HW148144  12.142   1.511   8.393
48749SOL    HW248145  12.238   1.594   8.476
48750SOL     OW48146   5.655   6.550  10.221
48750SOL    HW148147   5.650   6.517  10.131
48750SOL    HW248148   5.662   6.471  10.275
48751SOL     OW48149   8.367  13.592  13.830
48751SOL    HW148150   8.458  13.611  13.855
48751SOL    HW248151   8.327  13.559  13.910
48752SOL     OW48152  13.211   2.984  10.287
48752SOL    HW148153  13.213   3.079  10.281
48752SOL    HW248154  13.140   2.958  10.229
48753SOL     OW48155  13.902   4.984  12.286
48753SOL    HW148156  13.938   5.073  12.282
48753SOL    HW248157  13.842   4.980  12.211
48754SOL     OW48158  13.449   4.941   7.610
48754SOL    HW148159  13.482   5.020   7.654
48754SOL    HW248160  13.364   4.967   7.575
48755SOL     OW48161  10.325  13.797   9.881
48755SOL    HW148162  10.319  13.810   9.786
48755SOL    HW248163  10.411  13.758   9.894
48756SOL     OW48164   0.886  12.660  13.845
48756SOL    HW148165   0.899  12.643  13.938
48756SOL    HW248166   0.954  12.723  13.822
48757SOL     OW48167   2.235   8.917   7.679
48757SOL    HW148168   2.161   8.928   7.620
48757SOL    HW248169   2.294   8.857   7.633
48758SOL     OW48170   3.155  14.648  11.642
48758SOL    HW148171   3.092  14.614  11.578
48758SOL    HW248172   3.106  14.714  11.691
48759SOL     OW48173  14.052  11.574   4.640
48759SOL    HW148174  13.963  11.595   4.613
48759SOL    HW248175  14.090  11.657   4.668
48760SOL     OW48176   6.277  14.010   0.771
48760SOL    HW148177   6.223  14.024   0.693
48760SOL    HW248178   6.231  14.057   0.841
48761SOL     OW48179  12.453   3.328   5.569
48761SOL    HW148180  12.359   3.312   5.560
48761SOL    HW248181  12.463   3.423   5.566
48762SOL     OW48182   9.998   6.389   8.743
48762SOL    HW148183  10.086   6.426   8.738
48762SOL    HW248184   9.998   6.336   8.823
48763SOL     OW48185  12.816  12.495   6.887
48763SOL    HW148186  12.896  12.545   6.901
48763SOL    HW248187  12.786  12.472   6.976
48764SOL     OW48188   8.804  11.101   8.366
48764SOL    HW148189   8.733  11.103   8.431
48764SOL    HW248190   8.775  11.036   8.302
48765SOL     OW48191   0.113   8.325   1.122
48765SOL    HW148192   0.160   8.248   1.156
48765SOL    HW248193   0.112   8.386   1.196
48766SOL     OW48194   7.100   0.431   8.789
48766SOL    HW148195   7.146   0.379   8.856
48766SOL    HW248196   7.054   0.366   8.736
48767SOL     OW48197   5.826   8.661   0.771
48767SOL    HW148198   5.780   8.697   0.695
48767SOL    HW248199   5.832   8.734   0.832
48768SOL     OW48200   2.701   4.598   2.669
48768SOL    HW148201   2.615   4.623   2.635
48768SOL    HW248202   2.760   4.666   2.637
48769SOL     OW48203   9.086   0.153   3.466
48769SOL    HW148204   9.165   0.158   3.520
48769SOL    HW248205   9.118   0.159   3.376
48770SOL     OW48206  14.260   9.737   5.012
48770SOL    HW148207  14.246   9.660   4.957
48770SOL    HW248208  14.355   9.744   5.019
48771SOL     OW48209  11.697   4.258   8.239
48771SOL    HW148210  11.732   4.180   8.196
48771SOL    HW248211  11.633   4.224   8.301
48772SOL     OW48212   1.433  12.756   2.442
48772SOL    HW148213   1.490  12.825   2.477
48772SOL    HW248214   1.394  12.716   2.520
48773SOL     OW48215  11.866   4.263   6.185
48773SOL    HW148216  11.922   4.339   6.202
48773SOL    HW248217  11.915   4.189   6.222
48774SOL     OW48218   8.638   6.692  14.544
48774SOL    HW148219   8.590   6.614  14.518
48774SOL    HW248220   8.606   6.761  14.485
48775SOL     OW48221   2.916   4.503  13.252
48775SOL    HW148222   2.960   4.431  13.298
48775SOL    HW248223   2.970   4.580  13.271
48776SOL     OW48224   7.719   2.857   5.763
48776SOL    HW148225   7.677   2.855   5.677
48776SOL    HW248226   7.758   2.943   5.768
48777SOL     OW48227   5.557   9.271   5.674
48777SOL    HW148228   5.473   9.258   5.718
48777SOL    HW248229   5.594   9.350   5.715
48778SOL     OW48230   9.091   1.385  11.057
48778SOL    HW148231   9.115   1.404  10.966
48778SOL    HW248232   9.146   1.444  11.109
48779SOL     OW48233   4.676  14.637   7.197
48779SOL    HW148234   4.646  14.617   7.285
48779SOL    HW248235   4.757  14.587   7.187
48780SOL     OW48236   2.556   1.066  11.138
48780SOL    HW148237   2.475   1.062  11.088
48780SOL    HW248238   2.602   0.986  11.114
48781SOL     OW48239   8.707   2.191  10.394
48781SOL    HW148240   8.664   2.254  10.451
48781SOL    HW248241   8.769   2.242  10.343
48782SOL     OW48242  13.787   6.856  11.759
48782SOL    HW148243  13.752   6.813  11.838
48782SOL    HW248244  13.709   6.883  11.710
48783SOL     OW48245   7.568   9.016  10.560
48783SOL    HW148246   7.612   9.092  10.600
48783SOL    HW248247   7.511   8.982  10.630
48784SOL     OW48248   4.395   5.701  12.621
48784SOL    HW148249   4.442   5.732  12.698
48784SOL    HW248250   4.333   5.637  12.654
48785SOL     OW48251  13.293  13.519  12.748
48785SOL    HW148252  13.262  13.430  12.764
48785SOL    HW248253  13.332  13.515  12.660
48786SOL     OW48254  14.637   2.455   1.813
48786SOL    HW148255  14.608   2.510   1.885
48786SOL    HW248256  14.581   2.377   1.817
48787SOL     OW48257   4.165   7.176  13.849
48787SOL    HW148258   4.250   7.217  13.830
48787SOL    HW248259   4.185   7.106  13.911
48788SOL     OW48260   9.690   9.370   4.832
48788SOL    HW148261   9.623   9.408   4.776
48788SOL    HW248262   9.772   9.387   4.787
48789SOL     OW48263  13.552   3.877   5.810
48789SOL    HW148264  13.528   3.970   5.805
48789SOL    HW248265  13.648   3.878   5.813
48790SOL     OW48266   9.993  10.511  12.139
48790SOL    HW148267  10.017  10.418  12.134
48790SOL    HW248268  10.029  10.541  12.223
48791SOL     OW48269  12.742   4.770   9.099
48791SOL    HW148270  12.768   4.693   9.049
48791SOL    HW248271  12.811   4.834   9.083
48792SOL     OW48272   6.206   7.018   8.458
48792SOL    HW148273   6.153   6.968   8.396
48792SOL    HW248274   6.278   7.053   8.405
48793SOL     OW48275   0.578   9.214   3.586
48793SOL    HW148276   0.601   9.220   3.493
48793SOL    HW248277   0.565   9.121   3.602
48794SOL     OW48278  13.943  11.467  10.768
48794SOL    HW148279  13.935  11.494  10.677
48794SOL    HW248280  13.937  11.549  10.818
48795SOL     OW48281  10.300   6.363   3.621
48795SOL    HW148282  10.271   6.340   3.710
48795SOL    HW248283  10.323   6.279   3.581
48796SOL     OW48284  10.253   6.031   0.396
48796SOL    HW148285  10.185   6.037   0.462
48796SOL    HW248286  10.208   6.000   0.318
48797SOL     OW48287   4.925   5.445  12.267
48797SOL    HW148288   4.868   5.512  12.230
48797SOL    HW248289   4.883   5.422  12.350
48798SOL     OW48290  10.473   3.768   6.703
48798SOL    HW148291  10.564   3.791   6.722
48798SOL    HW248292  10.439   3.844   6.656
48799SOL     OW48293  11.255   8.298   2.173
48799SOL    HW148294  11.196   8.367   2.144
48799SOL    HW248295  11.201   8.242   2.229
48800SOL     OW48296   1.570   4.787   3.780
48800SOL    HW148297   1.532   4.726   3.844
48800SOL    HW248298   1.655   4.811   3.818
48801SOL     OW48299   5.337   3.117   2.938
48801SOL    HW148300   5.330   3.044   2.876
48801SOL    HW248301   5.430   3.124   2.957
48802SOL     OW48302  11.561   5.852   9.865
48802SOL    HW148303  11.521   5.882   9.783
48802SOL    HW248304  11.579   5.933   9.913
48803SOL     OW48305   7.655  10.770   2.422
48803SOL    HW148306   7.677  10.709   2.491
48803SOL    HW248307   7.577  10.734   2.381
48804SOL     OW48308  11.566  10.545  13.106
48804SOL    HW148309  11.583  10.539  13.200
48804SOL    HW248310  11.575  10.455  13.073
48805SOL     OW48311   2.484   2.540  13.037
48805SOL    HW148312   2.523   2.518  13.122
48805SOL    HW248313   2.476   2.635  13.038
48806SOL     OW48314  10.818   0.042   8.945
48806SOL    HW148315  10.863   0.010   9.023
48806SOL    HW248316  10.861   0.124   8.923
48807SOL     OW48317   0.035   7.768   2.662
48807SOL    HW148318  14.862   7.699   2.701
48807SOL    HW248319  14.853   7.836   2.638
48808SOL     OW48320   6.475   8.972   8.384
48808SOL    HW148321   6.430   8.976   8.300
48808SOL    HW248322   6.479   8.878   8.404
48809SOL     OW48323   2.363   3.131   2.774
48809SOL    HW148324   2.402   3.048   2.803
48809SOL    HW248325   2.276   3.106   2.743
48810SOL     OW48326   6.257  12.333   5.174
48810SOL    HW148327   6.198  12.320   5.099
48810SOL    HW248328   6.259  12.247   5.217
48811SOL     OW48329   8.396  14.733   6.464
48811SOL    HW148330   8.468  14.795   6.458
48811SOL    HW248331   8.341  14.752   6.388
48812SOL     OW48332  11.237   5.085   5.231
48812SOL    HW148333  11.271   5.001   5.261
48812SOL    HW248334  11.309   5.122   5.179
48813SOL     OW48335   1.487   3.668  11.552
48813SOL    HW148336   1.541   3.630  11.621
48813SOL    HW248337   1.403   3.624  11.559
48814SOL     OW48338   5.409   4.621  12.942
48814SOL    HW148339   5.417   4.671  13.023
48814SOL    HW248340   5.479   4.556  12.947
48815SOL     OW48341   0.070  10.531   7.199
48815SOL    HW148342   0.079  10.485   7.282
48815SOL    HW248343   0.057  10.461   7.135
48816SOL     OW48344   2.318   9.011   4.808
48816SOL    HW148345   2.240   9.025   4.862
48816SOL    HW248346   2.318   8.917   4.790
48817SOL     OW48347   2.846   2.336   9.447
48817SOL    HW148348   2.860   2.245   9.475
48817SOL    HW248349   2.791   2.374   9.515
48818SOL     OW48350   5.104   4.380  14.454
48818SOL    HW148351   5.079   4.449  14.393
48818SOL    HW248352   5.079   4.414  14.540
48819SOL     OW48353   6.729   2.620   8.134
48819SOL    HW148354   6.757   2.550   8.193
48819SOL    HW248355   6.790   2.692   8.154
48820SOL     OW48356  12.738   8.083  13.197
48820SOL    HW148357  12.784   8.165  13.213
48820SOL    HW248358  12.734   8.076  13.102
48821SOL     OW48359  10.164   0.456  10.991
48821SOL    HW148360  10.223   0.387  11.022
48821SOL    HW248361  10.222   0.528  10.966
48822SOL     OW48362   3.173   7.461   0.019
48822SOL    HW148363   3.095   7.406   0.022
48822SOL    HW248364   3.245   7.401   0.000
48823SOL     OW48365   6.073   0.348   5.733
48823SOL    HW148366   6.086   0.256   5.755
48823SOL    HW248367   6.161   0.383   5.719
48824SOL     OW48368   0.309  11.433   1.569
48824SOL    HW148369   0.244  11.377   1.526
48824SOL    HW248370   0.380  11.374   1.593
48825SOL     OW48371   9.994   8.117   9.883
48825SOL    HW148372   9.972   8.036   9.929
48825SOL    HW248373  10.035   8.089   9.801
48826SOL     OW48374  12.094  11.840   3.895
48826SOL    HW148375  12.074  11.749   3.871
48826SOL    HW248376  12.063  11.847   3.986
48827SOL     OW48377   1.327   8.177   9.508
48827SOL    HW148378   1.404   8.222   9.472
48827SOL    HW248379   1.254   8.236   9.491
48828SOL     OW48380   1.012   8.016  12.173
48828SOL    HW148381   0.943   8.043  12.113
48828SOL    HW248382   0.972   8.023  12.260
48829SOL     OW48383  13.707   9.776   1.973
48829SOL    HW148384  13.766   9.747   2.043
48829SOL    HW248385  13.707   9.871   1.979
48830SOL     OW48386  14.056   4.292   6.942
48830SOL    HW148387  14.068   4.206   6.903
48830SOL    HW248388  13.989   4.279   7.009
48831SOL     OW48389   1.028  12.284   8.401
48831SOL    HW148390   0.954  12.325   8.446
48831SOL    HW248391   1.031  12.328   8.316
48832SOL     OW48392   7.436  14.333   7.506
48832SOL    HW148393   7.464  14.418   7.472
48832SOL    HW248394   7.516  14.281   7.507
48833SOL     OW48395   3.020  10.790  14.701
48833SOL    HW148396   2.944  10.769  14.755
48833SOL    HW248397   2.995  10.763  14.612
48834SOL     OW48398   9.045   8.789   4.915
48834SOL    HW148399   9.132   8.822   4.937
48834SOL    HW248400   9.000   8.782   5.000
48835SOL     OW48401   9.822  14.659  10.793
48835SOL    HW148402   9.881  14.627  10.862
48835SOL    HW248403   9.734  14.646  10.828
48836SOL     OW48404  11.202  14.297   2.575
48836SOL    HW148405  11.149  14.225   2.541
48836SOL    HW248406  11.150  14.375   2.556
48837SOL     OW48407  12.131  12.130   7.035
48837SOL    HW148408  12.161  12.221   7.030
48837SOL    HW248409  12.199  12.086   7.086
48838SOL     OW48410   2.904  14.207   0.583
48838SOL    HW148411   2.936  14.272   0.522
48838SOL    HW248412   2.857  14.257   0.650
48839SOL     OW48413   3.647   7.791  12.614
48839SOL    HW148414   3.733   7.757  12.588
48839SOL    HW248415   3.628   7.746  12.697
48840SOL     OW48416  10.430   8.650  14.173
48840SOL    HW148417  10.488   8.577  14.154
48840SOL    HW248418  10.378   8.621  14.248
48841SOL     OW48419  10.181  11.109   6.173
48841SOL    HW148420  10.158  11.196   6.140
48841SOL    HW248421  10.249  11.078   6.113
48842SOL     OW48422  13.303   7.752   3.479
48842SOL    HW148423  13.381   7.797   3.511
48842SOL    HW248424  13.337   7.676   3.432
48843SOL     OW48425  14.081   2.056   2.170
48843SOL    HW148426  14.158   2.036   2.116
48843SOL    HW248427  14.025   1.979   2.161
48844SOL     OW48428   5.008  14.464   8.161
48844SOL    HW148429   4.940  14.516   8.203
48844SOL    HW248430   4.966  14.431   8.081
48845SOL     OW48431   6.118   7.090  14.757
48845SOL    HW148432   6.118   7.168  14.812
48845SOL    HW248433   6.114   7.017  14.818
48846SOL     OW48434   4.890  13.437  10.947
48846SOL    HW148435   4.840  13.495  11.005
48846SOL    HW248436   4.981  13.449  10.973
48847SOL     OW48437   9.416   8.516   5.309
48847SOL    HW148438   9.508   8.539   5.322
48847SOL    HW248439   9.378   8.594   5.268
48848SOL     OW48440  12.724  13.994   1.054
48848SOL    HW148441  12.756  13.909   1.024
48848SOL    HW248442  12.635  13.978   1.084
48849SOL     OW48443  10.456   5.662  14.790
48849SOL    HW148444  10.493   5.730  14.734
48849SOL    HW248445  10.465   5.581  14.740
48850SOL     OW48446  10.971  11.205  11.336
48850SOL    HW148447  10.912  11.235  11.404
48850SOL    HW248448  10.939  11.247  11.256
48851SOL     OW48449   6.274   7.344   9.932
48851SOL    HW148450   6.239   7.259   9.957
48851SOL    HW248451   6.203   7.405   9.948
48852SOL     OW48452   6.183  14.439  10.927
48852SOL    HW148453   6.244  14.412  10.859
48852SOL    HW248454   6.218  14.522  10.958
48853SOL     OW48455   9.768   8.133   1.442
48853SOL    HW148456   9.781   8.199   1.374
48853SOL    HW248457   9.732   8.058   1.396
48854SOL     OW48458  10.914  11.894   8.211
48854SOL    HW148459  10.855  11.872   8.283
48854SOL    HW248460  10.999  11.909   8.253
48855SOL     OW48461  11.945  14.206   7.902
48855SOL    HW148462  12.011  14.265   7.940
48855SOL    HW248463  11.894  14.262   7.844
48856SOL     OW48464   6.234   9.847   9.698
48856SOL    HW148465   6.147   9.851   9.737
48856SOL    HW248466   6.218   9.850   9.603
48857SOL     OW48467  12.693   3.882   0.801
48857SOL    HW148468  12.650   3.913   0.881
48857SOL    HW248469  12.697   3.959   0.745
48858SOL     OW48470  14.049   4.829  11.940
48858SOL    HW148471  14.111   4.875  11.996
48858SOL    HW248472  13.970   4.821  11.993
48859SOL     OW48473  14.426   7.842   6.396
48859SOL    HW148474  14.435   7.748   6.378
48859SOL    HW248475  14.338   7.850   6.434
48860SOL     OW48476   4.225   9.283  12.915
48860SOL    HW148477   4.268   9.260  12.833
48860SOL    HW248478   4.264   9.367  12.940
48861SOL     OW48479   7.374   6.059   4.226
48861SOL    HW148480   7.381   5.975   4.271
48861SOL    HW248481   7.313   6.110   4.280
48862SOL     OW48482  13.845  12.120  13.255
48862SOL    HW148483  13.856  12.169  13.174
48862SOL    HW248484  13.934  12.101  13.284
48863SOL     OW48485   9.980   0.017   2.082
48863SOL    HW148486   9.915   0.074   2.041
48863SOL    HW248487   9.944  14.810   2.074
48864SOL     OW48488   6.231  11.743  10.089
48864SOL    HW148489   6.207  11.819  10.037
48864SOL    HW248490   6.275  11.685  10.027
48865SOL     OW48491  10.947  11.291  12.729
48865SOL    HW148492  10.944  11.363  12.793
48865SOL    HW248493  10.931  11.212  12.782
48866SOL     OW48494   6.727   9.387  10.851
48866SOL    HW148495   6.807   9.435  10.830
48866SOL    HW248496   6.739   9.359  10.942
48867SOL     OW48497   5.265   4.010   6.969
48867SOL    HW148498   5.205   4.045   6.904
48867SOL    HW248499   5.352   4.032   6.937
48868SOL     OW48500  13.226   0.446   0.746
48868SOL    HW148501  13.251   0.360   0.714
48868SOL    HW248502  13.214   0.435   0.840
48869SOL     OW48503   2.121  10.157   9.481
48869SOL    HW148504   2.052  10.105   9.523
48869SOL    HW248505   2.201  10.133   9.527
48870SOL     OW48506  13.027  10.203   8.334
48870SOL    HW148507  13.071  10.117   8.335
48870SOL    HW248508  12.963  10.198   8.405
48871SOL     OW48509   7.034  12.426  10.232
48871SOL    HW148510   6.957  12.480  10.250
48871SOL    HW248511   7.100  12.456  10.295
48872SOL     OW48512   8.754   3.612  12.073
48872SOL    HW148513   8.681   3.549  12.064
48872SOL    HW248514   8.817   3.584  12.007
48873SOL     OW48515   2.280  14.593  13.273
48873SOL    HW148516   2.225  14.515  13.264
48873SOL    HW248517   2.299  14.620  13.183
48874SOL     OW48518   0.928   5.059   2.691
48874SOL    HW148519   0.923   5.009   2.772
48874SOL    HW248520   0.844   5.105   2.686
48875SOL     OW48521   3.984  13.160   1.905
48875SOL    HW148522   3.929  13.164   1.827
48875SOL    HW248523   3.968  13.243   1.950
48876SOL     OW48524   4.548  13.588  10.878
48876SOL    HW148525   4.613  13.646  10.838
48876SOL    HW248526   4.563  13.503  10.837
48877SOL     OW48527  13.714   9.853   5.660
48877SOL    HW148528  13.689   9.940   5.629
48877SOL    HW248529  13.710   9.797   5.582
48878SOL     OW48530  12.648  13.337  12.380
48878SOL    HW148531  12.575  13.355  12.321
48878SOL    HW248532  12.726  13.357  12.329
48879SOL     OW48533   5.601   4.098   0.650
48879SOL    HW148534   5.697   4.100   0.646
48879SOL    HW248535   5.575   4.045   0.575
48880SOL     OW48536   0.228   4.140   5.578
48880SOL    HW148537   0.199   4.072   5.517
48880SOL    HW248538   0.207   4.222   5.533
48881SOL     OW48539   2.420  13.944  12.972
48881SOL    HW148540   2.430  13.894  13.053
48881SOL    HW248541   2.505  13.936  12.928
48882SOL     OW48542   4.557  10.045   1.886
48882SOL    HW148543   4.652  10.056   1.877
48882SOL    HW248544   4.520  10.097   1.815
48883SOL     OW48545   8.861   4.533   8.588
48883SOL    HW148546   8.793   4.556   8.651
48883SOL    HW248547   8.872   4.439   8.597
48884SOL     OW48548   8.804   9.312  12.915
48884SOL    HW148549   8.786   9.354  12.999
48884SOL    HW248550   8.770   9.223  12.924
48885SOL     OW48551  14.372  11.256   9.389
48885SOL    HW148552  14.401  11.303   9.468
48885SOL    HW248553  14.422  11.295   9.318
48886SOL     OW48554  14.640   8.384   3.486
48886SOL    HW148555  14.714   8.350   3.537
48886SOL    HW248556  14.605   8.456   3.539
48887SOL     OW48557  14.774   6.207   2.869
48887SOL    HW148558  14.682   6.193   2.850
48887SOL    HW248559  14.819   6.181   2.788
48888SOL     OW48560  13.155   3.760  14.270
48888SOL    HW148561  13.112   3.737  14.353
48888SOL    HW248562  13.216   3.829  14.293
48889SOL     OW48563  11.951   1.492   3.693
48889SOL    HW148564  12.012   1.428   3.658
48889SOL    HW248565  11.926   1.457   3.779
48890SOL     OW48566  13.048   0.607   1.799
48890SOL    HW148567  13.113   0.575   1.736
48890SOL    HW248568  13.016   0.528   1.842
48891SOL     OW48569  11.362  11.167   9.563
48891SOL    HW148570  11.400  11.239   9.612
48891SOL    HW248571  11.416  11.159   9.484
48892SOL     OW48572   0.468   9.987   9.933
48892SOL    HW148573   0.408   9.939   9.991
48892SOL    HW248574   0.555   9.959   9.961
48893SOL     OW48575   0.590  12.280   9.359
48893SOL    HW148576   0.567  12.189   9.377
48893SOL    HW248577   0.614  12.316   9.445
48894SOL     OW48578   6.126   1.211   5.778
48894SOL    HW148579   6.205   1.248   5.737
48894SOL    HW248580   6.061   1.209   5.708
48895SOL     OW48581   2.928   9.776   5.567
48895SOL    HW148582   2.875   9.730   5.502
48895SOL    HW248583   2.989   9.830   5.516
48896SOL     OW48584  11.249  13.124  12.235
48896SOL    HW148585  11.211  13.108  12.321
48896SOL    HW248586  11.174  13.140  12.178
48897SOL     OW48587   2.202   1.415   3.334
48897SOL    HW148588   2.271   1.353   3.356
48897SOL    HW248589   2.126   1.360   3.315
48898SOL     OW48590   8.194   6.322  12.420
48898SOL    HW148591   8.237   6.253  12.471
48898SOL    HW248592   8.262   6.388  12.406
48899SOL     OW48593  12.030  10.943   7.555
48899SOL    HW148594  11.990  10.871   7.604
48899SOL    HW248595  11.966  10.965   7.487
48900SOL     OW48596  12.762  10.972  14.322
48900SOL    HW148597  12.820  10.940  14.253
48900SOL    HW248598  12.676  10.934  14.301
48901SOL     OW48599  10.816   8.235   0.176
48901SOL    HW148600  10.871   8.200   0.105
48901SOL    HW248601  10.749   8.286   0.131
48902SOL     OW48602   1.438  14.372  14.134
48902SOL    HW148603   1.511  14.411  14.085
48902SOL    HW248604   1.388  14.324  14.068
48903SOL     OW48605   8.873   6.660  10.114
48903SOL    HW148606   8.934   6.651  10.188
48903SOL    HW248607   8.800   6.711  10.149
48904SOL     OW48608   8.504   7.323   0.742
48904SOL    HW148609   8.496   7.411   0.780
48904SOL    HW248610   8.418   7.307   0.702
48905SOL     OW48611   0.938  14.603  14.628
48905SOL    HW148612   0.946  14.519  14.583
48905SOL    HW248613   0.939  14.581  14.721
48906SOL     OW48614   9.381  10.409   1.525
48906SOL    HW148615   9.422  10.351   1.590
48906SOL    HW248616   9.322  10.464   1.576
48907SOL     OW48617   8.910  10.369  11.380
48907SOL    HW148618   9.003  10.352  11.361
48907SOL    HW248619   8.885  10.301  11.442
48908SOL     OW48620  11.606   5.952   9.230
48908SOL    HW148621  11.578   5.903   9.308
48908SOL    HW248622  11.540   5.929   9.164
48909SOL     OW48623   8.780   1.933  10.470
48909SOL    HW148624   8.861   1.927  10.418
48909SOL    HW248625   8.748   2.022  10.453
48910SOL     OW48626   1.601  11.513   0.038
48910SOL    HW148627   1.590  11.523   0.133
48910SOL    HW248628   1.628  11.599   0.008
48911SOL     OW48629  13.194  10.849   5.419
48911SOL    HW148630  13.158  10.825   5.334
48911SOL    HW248631  13.241  10.770   5.449
48912SOL     OW48632   1.222  11.983   6.460
48912SOL    HW148633   1.137  12.025   6.445
48912SOL    HW248634   1.278  12.018   6.391
48913SOL     OW48635  14.559   9.205   9.376
48913SOL    HW148636  14.632   9.244   9.425
48913SOL    HW248637  14.592   9.196   9.287
48914SOL     OW48638   7.967   1.056   5.975
48914SOL    HW148639   7.947   1.118   6.045
48914SOL    HW248640   7.976   1.111   5.897
48915SOL     OW48641  10.566   1.199  10.265
48915SOL    HW148642  10.583   1.267  10.331
48915SOL    HW248643  10.473   1.209  10.244
48916SOL     OW48644   0.473   2.809   1.182
48916SOL    HW148645   0.474   2.730   1.236
48916SOL    HW248646   0.519   2.784   1.102
48917SOL     OW48647  12.491   7.665  14.524
48917SOL    HW148648  12.565   7.641  14.468
48917SOL    HW248649  12.515   7.750  14.561
48918SOL     OW48650  11.867  10.246  14.053
48918SOL    HW148651  11.933  10.199  14.001
48918SOL    HW248652  11.875  10.337  14.025
48919SOL     OW48653  13.576   1.996   6.152
48919SOL    HW148654  13.665   2.031   6.153
48919SOL    HW248655  13.526   2.058   6.099
48920SOL     OW48656   2.882  11.436  14.673
48920SOL    HW148657   2.822  11.458  14.745
48920SOL    HW248658   2.924  11.519  14.651
48921SOL     OW48659   9.656  12.949   7.871
48921SOL    HW148660   9.667  12.872   7.925
48921SOL    HW248661   9.741  12.994   7.875
48922SOL     OW48662   8.951   4.928   7.593
48922SOL    HW148663   8.900   4.849   7.576
48922SOL    HW248664   8.985   4.916   7.682
48923SOL     OW48665   7.078   6.358  14.709
48923SOL    HW148666   7.074   6.367  14.805
48923SOL    HW248667   7.125   6.277  14.694
48924SOL     OW48668  13.494   9.665   8.421
48924SOL    HW148669  13.427   9.663   8.352
48924SOL    HW248670  13.577   9.668   8.373
48925SOL     OW48671  12.947  14.381  14.348
48925SOL    HW148672  12.888  14.315  14.312
48925SOL    HW248673  13.034  14.342  14.338
48926SOL     OW48674  12.609   6.993   0.239
48926SOL    HW148675  12.573   6.924   0.295
48926SOL    HW248676  12.610   7.070   0.295
48927SOL     OW48677   1.794   9.908   1.794
48927SOL    HW148678   1.862   9.942   1.735
48927SOL    HW248679   1.839   9.845   1.849
48928SOL     OW48680   9.030   0.633   8.434
48928SOL    HW148681   9.043   0.561   8.372
48928SOL    HW248682   9.093   0.615   8.504
48929SOL     OW48683   3.874   8.267  11.474
48929SOL    HW148684   3.904   8.290  11.386
48929SOL    HW248685   3.849   8.175  11.468
48930SOL     OW48686   1.942   4.345  12.848
48930SOL    HW148687   2.005   4.274  12.835
48930SOL    HW248688   1.900   4.356  12.762
48931SOL     OW48689   1.830  10.169   8.650
48931SOL    HW148690   1.745  10.145   8.685
48931SOL    HW248691   1.858  10.244   8.702
48932SOL     OW48692   4.561   0.956   4.510
48932SOL    HW148693   4.495   0.888   4.522
48932SOL    HW248694   4.547   1.016   4.584
48933SOL     OW48695   9.511   1.305  12.356
48933SOL    HW148696   9.524   1.217  12.321
48933SOL    HW248697   9.565   1.309  12.434
48934SOL     OW48698   4.493   6.400   6.288
48934SOL    HW148699   4.466   6.369   6.202
48934SOL    HW248700   4.576   6.356   6.305
48935SOL     OW48701   8.972   5.374  11.027
48935SOL    HW148702   8.914   5.441  10.992
48935SOL    HW248703   9.020   5.341  10.951
48936SOL     OW48704   2.549   4.706   5.557
48936SOL    HW148705   2.625   4.714   5.615
48936SOL    HW248706   2.552   4.616   5.526
48937SOL     OW48707   4.775   2.353   8.238
48937SOL    HW148708   4.761   2.298   8.315
48937SOL    HW248709   4.868   2.374   8.241
48938SOL     OW48710  13.039  12.650  13.518
48938SOL    HW148711  12.993  12.720  13.565
48938SOL    HW248712  13.032  12.675  13.426
48939SOL     OW48713   0.507   0.684   9.857
48939SOL    HW148714   0.554   0.652   9.934
48939SOL    HW248715   0.539   0.773   9.844
48940SOL     OW48716   6.188  14.492  13.347
48940SOL    HW148717   6.132  14.458  13.277
48940SOL    HW248718   6.213  14.579  13.317
48941SOL     OW48719  12.182   4.833  12.355
48941SOL    HW148720  12.174   4.775  12.279
48941SOL    HW248721  12.113   4.898  12.342
48942SOL     OW48722   5.224   7.701   0.554
48942SOL    HW148723   5.193   7.782   0.594
48942SOL    HW248724   5.282   7.662   0.619
48943SOL     OW48725   0.534   2.567   3.766
48943SOL    HW148726   0.622   2.590   3.795
48943SOL    HW248727   0.493   2.651   3.742
48944SOL     OW48728  12.580   1.437   0.017
48944SOL    HW148729  12.505   1.384   0.044
48944SOL    HW248730  12.610   1.479   0.098
48945SOL     OW48731  14.272   3.143   4.978
48945SOL    HW148732  14.332   3.073   4.951
48945SOL    HW248733  14.262   3.197   4.900
48946SOL     OW48734  13.853   7.829  10.225
48946SOL    HW148735  13.933   7.777  10.232
48946SOL    HW248736  13.782   7.765  10.236
48947SOL     OW48737   1.635   7.450  11.021
48947SOL    HW148738   1.598   7.433  10.934
48947SOL    HW248739   1.585   7.395  11.080
48948SOL     OW48740   8.024   8.140   5.686
48948SOL    HW148741   7.995   8.231   5.695
48948SOL    HW248742   8.111   8.139   5.726
48949SOL     OW48743   2.044  13.789  10.856
48949SOL    HW148744   2.011  13.853  10.793
48949SOL    HW248745   1.985  13.796  10.931
48950SOL     OW48746   0.500   7.043   8.020
48950SOL    HW148747   0.544   6.970   7.976
48950SOL    HW248748   0.569   7.107   8.035
48951SOL     OW48749  14.558  13.516  12.728
48951SOL    HW148750  14.488  13.536  12.791
48951SOL    HW248751  14.609  13.597  12.722
48952SOL     OW48752   5.777   5.178  13.359
48952SOL    HW148753   5.807   5.153  13.446
48952SOL    HW248754   5.682   5.186  13.368
48953SOL     OW48755   4.198   3.348   2.515
48953SOL    HW148756   4.288   3.374   2.534
48953SOL    HW248757   4.150   3.369   2.595
48954SOL     OW48758   6.920  10.997   1.648
48954SOL    HW148759   6.994  11.007   1.588
48954SOL    HW248760   6.957  10.948   1.722
48955SOL     OW48761   5.043  14.331  13.041
48955SOL    HW148762   4.990  14.407  13.064
48955SOL    HW248763   5.045  14.277  13.120
48956SOL     OW48764   5.071  13.335   7.566
48956SOL    HW148765   4.982  13.311   7.590
48956SOL    HW248766   5.075  13.322   7.471
48957SOL     OW48767   1.433   7.232  12.473
48957SOL    HW148768   1.459   7.228  12.565
48957SOL    HW248769   1.357   7.174  12.467
48958SOL     OW48770  11.843   1.969   9.189
48958SOL    HW148771  11.817   1.976   9.281
48958SOL    HW248772  11.779   1.910   9.150
48959SOL     OW48773   2.940  13.913  13.759
48959SOL    HW148774   2.906  13.927  13.847
48959SOL    HW248775   2.981  13.996  13.735
48960SOL     OW48776   5.128   6.594  13.207
48960SOL    HW148777   5.083   6.602  13.123
48960SOL    HW248778   5.148   6.685  13.232
48961SOL     OW48779  10.606   4.136  11.668
48961SOL    HW148780  10.567   4.119  11.583
48961SOL    HW248781  10.536   4.176  11.719
48962SOL     OW48782   8.523   4.624   9.989
48962SOL    HW148783   8.531   4.569   9.911
48962SOL    HW248784   8.441   4.597  10.030
48963SOL     OW48785   1.534   9.471  13.102
48963SOL    HW148786   1.620   9.438  13.126
48963SOL    HW248787   1.545   9.509  13.016
48964SOL     OW48788   2.394   5.505  12.998
48964SOL    HW148789   2.315   5.496  13.051
48964SOL    HW248790   2.453   5.557  13.052
48965SOL     OW48791  10.326   5.459  12.006
48965SOL    HW148792  10.361   5.545  12.031
48965SOL    HW248793  10.376   5.435  11.928
48966SOL     OW48794   9.974   9.457  11.213
48966SOL    HW148795   9.948   9.465  11.305
48966SOL    HW248796   9.900   9.412  11.171
48967SOL     OW48797  12.070   3.435   6.881
48967SOL    HW148798  12.098   3.499   6.816
48967SOL    HW248799  12.084   3.478   6.965
48968SOL     OW48800  11.569   9.301  13.775
48968SOL    HW148801  11.544   9.245  13.849
48968SOL    HW248802  11.623   9.370  13.814
48969SOL     OW48803   6.119  13.881   6.605
48969SOL    HW148804   6.106  13.791   6.633
48969SOL    HW248805   6.214  13.891   6.597
48970SOL     OW48806   9.646   9.089  11.921
48970SOL    HW148807   9.683   9.052  12.001
48970SOL    HW248808   9.613   9.175  11.947
48971SOL     OW48809   9.201   4.028   7.757
48971SOL    HW148810   9.154   3.996   7.680
48971SOL    HW248811   9.277   4.074   7.722
48972SOL     OW48812   8.848   2.644   8.100
48972SOL    HW148813   8.820   2.558   8.070
48972SOL    HW248814   8.785   2.705   8.062
48973SOL     OW48815  10.317   2.513   0.185
48973SOL    HW148816  10.307   2.491   0.278
48973SOL    HW248817  10.277   2.440   0.139
48974SOL     OW48818  14.737   1.607   7.347
48974SOL    HW148819  14.781   1.552   7.282
48974SOL    HW248820  14.723   1.690   7.303
48975SOL     OW48821  14.582   5.638   7.585
48975SOL    HW148822  14.668   5.599   7.603
48975SOL    HW248823  14.557   5.601   7.500
48976SOL     OW48824   0.873  11.973  13.900
48976SOL    HW148825   0.966  11.963  13.880
48976SOL    HW248826   0.830  11.907  13.846
48977SOL     OW48827   1.141  12.974   5.258
48977SOL    HW148828   1.182  13.043   5.309
48977SOL    HW248829   1.150  12.895   5.312
48978SOL     OW48830   8.487   2.358   5.722
48978SOL    HW148831   8.436   2.432   5.755
48978SOL    HW248832   8.575   2.372   5.756
48979SOL     OW48833  12.211  10.347   9.515
48979SOL    HW148834  12.176  10.261   9.490
48979SOL    HW248835  12.195  10.402   9.439
48980SOL     OW48836   1.421  13.702   8.633
48980SOL    HW148837   1.425  13.722   8.726
48980SOL    HW248838   1.380  13.779   8.593
48981SOL     OW48839  10.286  10.673   1.349
48981SOL    HW148840  10.284  10.671   1.444
48981SOL    HW248841  10.276  10.765   1.326
48982SOL     OW48842  10.362   4.386   6.670
48982SOL    HW148843  10.316   4.469   6.688
48982SOL    HW248844  10.293   4.320   6.673
48983SOL     OW48845   5.594   5.610   1.445
48983SOL    HW148846   5.688   5.601   1.464
48983SOL    HW248847   5.590   5.676   1.376
48984SOL     OW48848   0.320   0.967   0.437
48984SOL    HW148849   0.406   0.975   0.479
48984SOL    HW248850   0.265   0.924   0.502
48985SOL     OW48851  11.449  12.692  11.240
48985SOL    HW148852  11.478  12.783  11.232
48985SOL    HW248853  11.489  12.647  11.166
48986SOL     OW48854  10.253   0.885   3.128
48986SOL    HW148855  10.168   0.848   3.103
48986SOL    HW248856  10.246   0.978   3.105
48987SOL     OW48857   9.621  13.559   2.609
48987SOL    HW148858   9.686  13.572   2.540
48987SOL    HW248859   9.568  13.639   2.608
48988SOL     OW48860   1.443  10.742  10.311
48988SOL    HW148861   1.361  10.790  10.305
48988SOL    HW248862   1.457  10.707  10.222
48989SOL     OW48863   5.976   1.112   4.614
48989SOL    HW148864   6.069   1.133   4.609
48989SOL    HW248865   5.937   1.185   4.661
48990SOL     OW48866  12.598   0.639  14.631
48990SOL    HW148867  12.612   0.733  14.636
48990SOL    HW248868  12.503   0.628  14.629
48991SOL     OW48869   1.360   6.003  12.283
48991SOL    HW148870   1.270   6.032  12.265
48991SOL    HW248871   1.350   5.923  12.334
48992SOL     OW48872   8.753   1.880   2.311
48992SOL    HW148873   8.692   1.809   2.330
48992SOL    HW248874   8.765   1.925   2.395
48993SOL     OW48875   7.603   7.247  11.318
48993SOL    HW148876   7.565   7.165  11.287
48993SOL    HW248877   7.547   7.316  11.281
48994SOL     OW48878   2.336   6.601   9.795
48994SOL    HW148879   2.363   6.675   9.741
48994SOL    HW248880   2.416   6.550   9.807
48995SOL     OW48881  11.051   4.040   1.329
48995SOL    HW148882  11.088   3.953   1.314
48995SOL    HW248883  11.122   4.090   1.369
48996SOL     OW48884  13.985  13.838  13.799
48996SOL    HW148885  14.007  13.752  13.765
48996SOL    HW248886  13.898  13.857  13.766
48997SOL     OW48887   6.428   0.029   3.996
48997SOL    HW148888   6.372   0.071   3.930
48997SOL    HW248889   6.400  14.818   3.996
48998SOL     OW48890  14.220  13.729  11.864
48998SOL    HW148891  14.155  13.713  11.796
48998SOL    HW248892  14.194  13.672  11.936
48999SOL     OW48893  10.958  11.126  11.702
48999SOL    HW148894  11.014  11.202  11.686
48999SOL    HW248895  11.019  11.056  11.728
49000SOL     OW48896   2.848   8.318   7.608
49000SOL    HW148897   2.831   8.402   7.564
49000SOL    HW248898   2.786   8.317   7.681
49001SOL     OW48899  11.454   6.749   3.178
49001SOL    HW148900  11.382   6.686   3.176
49001SOL    HW248901  11.476   6.764   3.086
49002SOL     OW48902   8.775  10.698   0.653
49002SOL    HW148903   8.708  10.716   0.586
49002SOL    HW248904   8.857  10.721   0.610
49003SOL     OW48905   5.911   4.215   3.345
49003SOL    HW148906   5.958   4.198   3.426
49003SOL    HW248907   5.820   4.192   3.364
49004SOL     OW48908  10.342  14.690   7.695
49004SOL    HW148909  10.398  14.680   7.771
49004SOL    HW248910  10.263  14.732   7.728
49005SOL     OW48911  13.880   6.381  12.458
49005SOL    HW148912  13.956   6.364  12.403
49005SOL    HW248913  13.914   6.375  12.548
49006SOL     OW48914  10.506  12.571   1.901
49006SOL    HW148915  10.487  12.613   1.985
49006SOL    HW248916  10.422  12.572   1.855
49007SOL     OW48917  10.838   9.686  11.975
49007SOL    HW148918  10.786   9.606  11.983
49007SOL    HW248919  10.795   9.748  12.034
49008SOL     OW48920  13.093   1.461  11.807
49008SOL    HW148921  13.030   1.437  11.739
49008SOL    HW248922  13.040   1.469  11.887
49009SOL     OW48923  13.077  10.715   5.933
49009SOL    HW148924  13.171  10.695   5.931
49009SOL    HW248925  13.034  10.630   5.923
49010SOL     OW48926   4.210   1.348   1.637
49010SOL    HW148927   4.216   1.273   1.578
49010SOL    HW248928   4.117   1.372   1.636
49011SOL     OW48929  10.199   9.078   7.143
49011SOL    HW148930  10.107   9.056   7.133
49011SOL    HW248931  10.212   9.155   7.089
49012SOL     OW48932   6.164  12.596  14.830
49012SOL    HW148933   6.194  12.668   0.004
49012SOL    HW248934   6.083  12.566  14.872
49013SOL     OW48935  14.509   5.415  11.935
49013SOL    HW148936  14.569   5.341  11.923
49013SOL    HW248937  14.556   5.490  11.897
49014SOL     OW48938   5.349  13.192   2.987
49014SOL    HW148939   5.444  13.184   2.978
49014SOL    HW248940   5.326  13.267   2.932
49015SOL     OW48941   6.119   1.267  10.711
49015SOL    HW148942   6.153   1.355  10.723
49015SOL    HW248943   6.195   1.214  10.684
49016SOL     OW48944  14.760   5.868  10.679
49016SOL    HW148945  14.821   5.890  10.749
49016SOL    HW248946  14.685   5.927  10.693
49017SOL     OW48947  12.395  10.312  11.106
49017SOL    HW148948  12.314  10.294  11.155
49017SOL    HW248949  12.433  10.226  11.091
49018SOL     OW48950  14.480  10.029   5.447
49018SOL    HW148951  14.480  10.029   5.542
49018SOL    HW248952  14.573  10.032   5.423
49019SOL     OW48953  10.219  13.220  12.137
49019SOL    HW148954  10.126  13.201  12.142
49019SOL    HW248955  10.224  13.316  12.134
49020SOL     OW48956  13.767   2.828  13.979
49020SOL    HW148957  13.840   2.812  14.039
49020SOL    HW248958  13.697   2.861  14.036
49021SOL     OW48959   1.183   7.085  11.706
49021SOL    HW148960   1.147   7.155  11.651
49021SOL    HW248961   1.216   7.020  11.644
49022SOL     OW48962   0.489  11.757   7.526
49022SOL    HW148963   0.464  11.687   7.586
49022SOL    HW248964   0.420  11.822   7.535
49023SOL     OW48965   1.658   2.944   5.594
49023SOL    HW148966   1.656   2.878   5.525
49023SOL    HW248967   1.606   2.906   5.665
49024SOL     OW48968   8.319   0.284   8.321
49024SOL    HW148969   8.334   0.217   8.387
49024SOL    HW248970   8.225   0.281   8.304
49025SOL     OW48971  12.963  10.864  10.373
49025SOL    HW148972  12.924  10.786  10.331
49025SOL    HW248973  12.900  10.934  10.355
49026SOL     OW48974   6.304   3.942   3.540
49026SOL    HW148975   6.360   4.013   3.508
49026SOL    HW248976   6.360   3.894   3.601
49027SOL     OW48977  11.520   3.963  11.927
49027SOL    HW148978  11.514   4.030  11.995
49027SOL    HW248979  11.433   3.922  11.926
49028SOL     OW48980   6.925  12.695   9.532
49028SOL    HW148981   6.974  12.623   9.491
49028SOL    HW248982   6.890  12.657   9.612
49029SOL     OW48983  14.858   5.331   2.707
49029SOL    HW148984  14.783   5.365   2.757
49029SOL    HW248985   0.030   5.409   2.687
49030SOL     OW48986  12.078  12.885   1.716
49030SOL    HW148987  12.081  12.970   1.671
49030SOL    HW248988  11.989  12.853   1.700
49031SOL     OW48989   9.111   8.551   9.418
49031SOL    HW148990   9.041   8.489   9.401
49031SOL    HW248991   9.192   8.501   9.408
49032SOL     OW48992   6.433   3.488  13.003
49032SOL    HW148993   6.526   3.468  12.999
49032SOL    HW248994   6.403   3.452  13.086
49033SOL     OW48995   2.336   3.410  12.717
49033SOL    HW148996   2.419   3.363  12.707
49033SOL    HW248997   2.324   3.456  12.634
49034SOL     OW48998   8.234   4.123   0.692
49034SOL    HW148999   8.170   4.071   0.741
49034SOL    HW249000   8.252   4.197   0.750
49035SOL     OW49001  13.399   8.254   7.580
49035SOL    HW149002  13.491   8.268   7.558
49035SOL    HW249003  13.385   8.307   7.659
49036SOL     OW49004   4.745   4.593   2.558
49036SOL    HW149005   4.677   4.532   2.530
49036SOL    HW249006   4.777   4.632   2.477
49037SOL     OW49007   5.412  14.230  12.867
49037SOL    HW149008   5.323  14.262  12.854
49037SOL    HW249009   5.408  14.179  12.948
49038SOL     OW49010   5.469   7.604   3.332
49038SOL    HW149011   5.557   7.574   3.357
49038SOL    HW249012   5.417   7.596   3.412
49039SOL     OW49013   9.922  13.042   9.982
49039SOL    HW149014   9.929  13.025   9.888
49039SOL    HW249015   9.832  13.071   9.994
49040SOL     OW49016   7.446   9.562   0.966
49040SOL    HW149017   7.388   9.489   0.944
49040SOL    HW249018   7.526   9.545   0.917
49041SOL     OW49019  10.689   0.224   5.660
49041SOL    HW149020  10.700   0.147   5.603
49041SOL    HW249021  10.604   0.211   5.702
49042SOL     OW49022  13.181  14.781  13.679
49042SOL    HW149023  13.104  14.811  13.629
49042SOL    HW249024  13.256  14.804  13.623
49043SOL     OW49025  13.432   7.749   6.782
49043SOL    HW149026  13.351   7.776   6.739
49043SOL    HW249027  13.431   7.653   6.777
49044SOL     OW49028  11.929  10.484   0.316
49044SOL    HW149029  11.987  10.527   0.379
49044SOL    HW249030  11.962  10.511   0.230
49045SOL     OW49031   6.113   5.520   4.161
49045SOL    HW149032   6.084   5.453   4.098
49045SOL    HW249033   6.041   5.526   4.224
49046SOL     OW49034  12.886   6.314  11.913
49046SOL    HW149035  12.977   6.334  11.892
49046SOL    HW249036  12.835   6.361  11.847
49047SOL     OW49037  10.311  10.724   4.917
49047SOL    HW149038  10.386  10.773   4.882
49047SOL    HW249039  10.274  10.679   4.841
49048SOL     OW49040   0.935   2.823  14.703
49048SOL    HW149041   0.852   2.812  14.656
49048SOL    HW249042   0.910   2.830  14.795
49049SOL     OW49043  11.294   5.282   1.474
49049SOL    HW149044  11.205   5.311   1.453
49049SOL    HW249045  11.299   5.289   1.569
49050SOL     OW49046  12.619   0.286   8.849
49050SOL    HW149047  12.540   0.307   8.798
49050SOL    HW249048  12.691   0.310   8.791
49051SOL     OW49049  12.245   1.785  10.059
49051SOL    HW149050  12.326   1.830  10.034
49051SOL    HW249051  12.176   1.831  10.013
49052SOL     OW49052   5.721  11.336   8.314
49052SOL    HW149053   5.810  11.372   8.312
49052SOL    HW249054   5.686  11.355   8.227
49053SOL     OW49055   4.583  14.049   8.707
49053SOL    HW149056   4.617  13.961   8.691
49053SOL    HW249057   4.498  14.050   8.664
49054SOL     OW49058  14.236   2.462  14.724
49054SOL    HW149059  14.276   2.441  14.809
49054SOL    HW249060  14.154   2.412  14.724
49055SOL     OW49061   1.085   2.609  14.653
49055SOL    HW149062   1.044   2.691  14.679
49055SOL    HW249063   1.158   2.599  14.714
49056SOL     OW49064  13.413   9.873  14.430
49056SOL    HW149065  13.431   9.811  14.361
49056SOL    HW249066  13.468   9.845  14.503
49057SOL     OW49067  13.223   7.965   0.608
49057SOL    HW149068  13.176   7.972   0.692
49057SOL    HW249069  13.229   7.871   0.592
49058SOL     OW49070  13.861   5.587   6.521
49058SOL    HW149071  13.812   5.512   6.487
49058SOL    HW249072  13.832   5.661   6.467
49059SOL     OW49073   7.800  10.905  12.486
49059SOL    HW149074   7.764  10.859  12.410
49059SOL    HW249075   7.796  10.997  12.462
49060SOL     OW49076   7.650   6.603  12.199
49060SOL    HW149077   7.736   6.644  12.193
49060SOL    HW249078   7.629   6.579  12.109
49061SOL     OW49079   6.157  13.442   3.515
49061SOL    HW149080   6.101  13.489   3.453
49061SOL    HW249081   6.194  13.511   3.571
49062SOL     OW49082   4.511   4.109  12.823
49062SOL    HW149083   4.510   4.025  12.869
49062SOL    HW249084   4.461   4.093  12.744
49063SOL     OW49085   7.197   5.684  13.710
49063SOL    HW149086   7.245   5.741  13.771
49063SOL    HW249087   7.230   5.596  13.728
49064SOL     OW49088  14.124   6.559   2.672
49064SOL    HW149089  14.043   6.508   2.662
49064SOL    HW249090  14.137   6.601   2.587
49065SOL     OW49091   4.211   3.483  14.169
49065SOL    HW149092   4.278   3.419  14.146
49065SOL    HW249093   4.258   3.553  14.213
49066SOL     OW49094  10.797   0.529   4.861
49066SOL    HW149095  10.833   0.482   4.935
49066SOL    HW249096  10.836   0.616   4.866
49067SOL     OW49097  10.751  12.105  13.095
49067SOL    HW149098  10.697  12.170  13.052
49067SOL    HW249099  10.729  12.112  13.188
49068SOL     OW49100   6.993  11.327  11.189
49068SOL    HW149101   6.972  11.394  11.125
49068SOL    HW249102   7.054  11.370  11.250
49069SOL     OW49103   7.787   7.523   4.920
49069SOL    HW149104   7.791   7.552   4.829
49069SOL    HW249105   7.727   7.448   4.918
49070SOL     OW49106  13.132   6.337   4.098
49070SOL    HW149107  13.113   6.394   4.024
49070SOL    HW249108  13.071   6.264   4.089
49071SOL     OW49109   1.595   4.049   6.684
49071SOL    HW149110   1.604   4.120   6.622
49071SOL    HW249111   1.505   4.020   6.676
49072SOL     OW49112   1.035   7.510   5.210
49072SOL    HW149113   0.990   7.592   5.191
49072SOL    HW249114   1.124   7.536   5.232
49073SOL     OW49115   1.543   9.450   0.865
49073SOL    HW149116   1.498   9.385   0.920
49073SOL    HW249117   1.492   9.530   0.876
49074SOL     OW49118   7.027   5.822   7.728
49074SOL    HW149119   6.999   5.832   7.637
49074SOL    HW249120   7.089   5.893   7.742
49075SOL     OW49121   3.741  11.874  12.313
49075SOL    HW149122   3.799  11.825  12.255
49075SOL    HW249123   3.799  11.907  12.382
49076SOL     OW49124   3.748   8.341  12.480
49076SOL    HW149125   3.805   8.418  12.476
49076SOL    HW249126   3.720   8.327  12.390
49077SOL     OW49127  11.590   7.617   5.283
49077SOL    HW149128  11.552   7.654   5.363
49077SOL    HW249129  11.526   7.551   5.256
49078SOL     OW49130  11.910  10.490   9.567
49078SOL    HW149131  11.934  10.446   9.486
49078SOL    HW249132  11.844  10.555   9.541
49079SOL     OW49133   7.647  13.990   9.583
49079SOL    HW149134   7.585  14.018   9.650
49079SOL    HW249135   7.596  13.990   9.502
49080SOL     OW49136   3.157   9.309  13.304
49080SOL    HW149137   3.203   9.335  13.384
49080SOL    HW249138   3.065   9.328  13.321
49081SOL     OW49139  13.956   0.962  12.899
49081SOL    HW149140  13.885   1.019  12.928
49081SOL    HW249141  14.030   0.986  12.956
49082SOL     OW49142   7.013   2.527   1.745
49082SOL    HW149143   7.007   2.607   1.798
49082SOL    HW249144   6.931   2.525   1.696
49083SOL     OW49145   6.807   5.671   2.048
49083SOL    HW149146   6.815   5.766   2.040
49083SOL    HW249147   6.894   5.643   2.078
49084SOL     OW49148   3.727   4.548   5.160
49084SOL    HW149149   3.784   4.500   5.220
49084SOL    HW249150   3.680   4.480   5.111
49085SOL     OW49151  13.066   3.439  12.214
49085SOL    HW149152  13.007   3.447  12.140
49085SOL    HW249153  13.145   3.399  12.178
49086SOL     OW49154   6.224  12.370  14.164
49086SOL    HW149155   6.168  12.442  14.193
49086SOL    HW249156   6.235  12.315  14.242
49087SOL     OW49157   0.894  11.690   6.621
49087SOL    HW149158   0.958  11.684   6.551
49087SOL    HW249159   0.879  11.599   6.647
49088SOL     OW49160  14.125   9.196   6.786
49088SOL    HW149161  14.149   9.236   6.702
49088SOL    HW249162  14.035   9.166   6.773
49089SOL     OW49163  10.058   2.796   7.639
49089SOL    HW149164  10.154   2.795   7.648
49089SOL    HW249165  10.027   2.740   7.710
49090SOL     OW49166  11.348   8.702  14.335
49090SOL    HW149167  11.439   8.689  14.361
49090SOL    HW249168  11.297   8.658  14.403
49091SOL     OW49169  10.398   2.448   5.270
49091SOL    HW149170  10.457   2.513   5.309
49091SOL    HW249171  10.446   2.415   5.193
49092SOL     OW49172  12.901   3.371   4.075
49092SOL    HW149173  12.907   3.467   4.077
49092SOL    HW249174  12.987   3.341   4.106
49093SOL     OW49175   3.491  10.591  13.672
49093SOL    HW149176   3.493  10.529  13.600
49093SOL    HW249177   3.419  10.562  13.728
49094SOL     OW49178  12.744  13.950   5.790
49094SOL    HW149179  12.816  13.888   5.789
49094SOL    HW249180  12.715  13.954   5.699
49095SOL     OW49181   2.791  13.315   8.248
49095SOL    HW149182   2.747  13.303   8.333
49095SOL    HW249183   2.883  13.328   8.270
49096SOL     OW49184   1.191  10.335  11.069
49096SOL    HW149185   1.137  10.295  11.000
49096SOL    HW249186   1.280  10.330  11.035
49097SOL     OW49187  10.882  10.680   1.372
49097SOL    HW149188  10.967  10.667   1.330
49097SOL    HW249189  10.822  10.695   1.299
49098SOL     OW49190   7.089   7.947   6.926
49098SOL    HW149191   7.120   7.966   6.837
49098SOL    HW249192   7.027   7.874   6.915
49099SOL     OW49193  13.487   7.902  13.762
49099SOL    HW149194  13.454   7.991  13.753
49099SOL    HW249195  13.582   7.911  13.760
49100SOL     OW49196   7.603  13.482   4.761
49100SOL    HW149197   7.571  13.472   4.850
49100SOL    HW249198   7.530  13.520   4.713
49101SOL     OW49199   8.017   8.290   3.713
49101SOL    HW149200   8.075   8.345   3.661
49101SOL    HW249201   7.972   8.235   3.649
49102SOL     OW49202  10.236   9.632  12.106
49102SOL    HW149203  10.297   9.664  12.040
49102SOL    HW249204  10.152   9.670  12.082
49103SOL     OW49205   3.563   6.109   1.246
49103SOL    HW149206   3.597   6.192   1.213
49103SOL    HW249207   3.468   6.114   1.230
49104SOL     OW49208  11.886  11.517   2.296
49104SOL    HW149209  11.935  11.552   2.222
49104SOL    HW249210  11.823  11.457   2.256
49105SOL     OW49211  14.314   2.074  11.906
49105SOL    HW149212  14.368   2.148  11.879
49105SOL    HW249213  14.258   2.056  11.830
49106SOL     OW49214   0.686  13.428   3.593
49106SOL    HW149215   0.734  13.475   3.524
49106SOL    HW249216   0.614  13.487   3.616
49107SOL     OW49217  13.610   2.180   3.355
49107SOL    HW149218  13.608   2.099   3.304
49107SOL    HW249219  13.559   2.242   3.304
49108SOL     OW49220   2.090   7.087   8.144
49108SOL    HW149221   2.116   6.999   8.117
49108SOL    HW249222   2.073   7.079   8.238
49109SOL     OW49223   6.592   7.948   1.127
49109SOL    HW149224   6.640   8.008   1.184
49109SOL    HW249225   6.563   8.002   1.054
49110SOL     OW49226  11.044  14.011   9.354
49110SOL    HW149227  10.972  13.949   9.360
49110SOL    HW249228  11.048  14.036   9.262
49111SOL     OW49229  12.358   5.763   5.513
49111SOL    HW149230  12.299   5.688   5.503
49111SOL    HW249231  12.411   5.762   5.433
49112SOL     OW49232   7.949   8.237  14.727
49112SOL    HW149233   7.939   8.228  14.822
49112SOL    HW249234   7.909   8.322  14.707
49113SOL     OW49235   8.743  10.231   1.589
49113SOL    HW149236   8.709  10.210   1.676
49113SOL    HW249237   8.833  10.197   1.590
49114SOL     OW49238   8.690   1.577   6.813
49114SOL    HW149239   8.725   1.632   6.744
49114SOL    HW249240   8.604   1.616   6.834
49115SOL     OW49241  12.089   7.276   2.783
49115SOL    HW149242  12.078   7.306   2.693
49115SOL    HW249243  12.047   7.344   2.836
49116SOL     OW49244   8.106   7.473   4.787
49116SOL    HW149245   8.056   7.396   4.811
49116SOL    HW249246   8.163   7.444   4.716
49117SOL     OW49247   7.361   6.488  10.511
49117SOL    HW149248   7.351   6.582  10.497
49117SOL    HW249249   7.277   6.450  10.484
49118SOL     OW49250   2.371   5.904   4.291
49118SOL    HW149251   2.351   5.906   4.197
49118SOL    HW249252   2.457   5.863   4.296
49119SOL     OW49253   4.500   8.105  12.338
49119SOL    HW149254   4.457   8.041  12.395
49119SOL    HW249255   4.429   8.140  12.284
49120SOL     OW49256   3.520   3.448  13.989
49120SOL    HW149257   3.520   3.354  14.006
49120SOL    HW249258   3.601   3.479  14.030
49121SOL     OW49259   6.593  12.168  12.969
49121SOL    HW149260   6.507  12.154  12.929
49121SOL    HW249261   6.584  12.136  13.058
49122SOL     OW49262   4.964  12.276   4.791
49122SOL    HW149263   5.034  12.220   4.756
49122SOL    HW249264   4.968  12.263   4.886
49123SOL     OW49265   9.464   3.545  14.830
49123SOL    HW149266   9.509   3.538   0.034
49123SOL    HW249267   9.424   3.632  14.831
49124SOL     OW49268   6.695  11.770  10.060
49124SOL    HW149269   6.709  11.865  10.063
49124SOL    HW249270   6.613  11.757  10.106
49125SOL     OW49271  12.020  12.342   1.031
49125SOL    HW149272  12.069  12.390   1.098
49125SOL    HW249273  12.087  12.294   0.983
49126SOL     OW49274   1.350   8.175  13.884
49126SOL    HW149275   1.376   8.092  13.925
49126SOL    HW249276   1.295   8.218  13.948
49127SOL     OW49277  13.655   5.515   9.000
49127SOL    HW149278  13.599   5.494   9.076
49127SOL    HW249279  13.627   5.602   8.972
49128SOL     OW49280  14.003   6.967   5.221
49128SOL    HW149281  13.993   7.062   5.224
49128SOL    HW249282  13.932   6.937   5.164
49129SOL     OW49283  11.788   9.295  13.272
49129SOL    HW149284  11.766   9.293  13.365
49129SOL    HW249285  11.706   9.318  13.228
49130SOL     OW49286  13.593   1.897   8.792
49130SOL    HW149287  13.509   1.856   8.768
49130SOL    HW249288  13.568   1.979   8.836
49131SOL     OW49289  12.856   2.652   9.991
49131SOL    HW149290  12.880   2.712   9.920
49131SOL    HW249291  12.849   2.566   9.948
49132SOL     OW49292   8.186  10.326  13.682
49132SOL    HW149293   8.259  10.270  13.707
49132SOL    HW249294   8.212  10.414  13.709
49133SOL     OW49295  14.418  12.467   7.675
49133SOL    HW149296  14.324  12.460   7.657
49133SOL    HW249297  14.429  12.432   7.763
49134SOL     OW49298  10.208  12.623   4.086
49134SOL    HW149299  10.258  12.586   4.014
49134SOL    HW249300  10.137  12.671   4.043
49135SOL     OW49301   1.852  12.038  12.374
49135SOL    HW149302   1.910  11.964  12.392
49135SOL    HW249303   1.830  12.073  12.460
49136SOL     OW49304   0.541   8.725  11.638
49136SOL    HW149305   0.628   8.758  11.660
49136SOL    HW249306   0.555   8.666  11.564
49137SOL     OW49307  12.047   3.861  13.357
49137SOL    HW149308  12.136   3.873  13.389
49137SOL    HW249309  12.001   3.942  13.380
49138SOL     OW49310  13.952   3.870   8.572
49138SOL    HW149311  13.920   3.784   8.600
49138SOL    HW249312  13.961   3.919   8.654
49139SOL     OW49313  14.244  12.240  11.511
49139SOL    HW149314  14.175  12.243  11.577
49139SOL    HW249315  14.236  12.152  11.472
49140SOL     OW49316   5.078   9.025   2.083
49140SOL    HW149317   5.078   8.966   2.158
49140SOL    HW249318   5.136   8.983   2.020
49141SOL     OW49319   5.333   2.361  12.377
49141SOL    HW149320   5.332   2.373  12.472
49141SOL    HW249321   5.412   2.405  12.347
49142SOL     OW49322  11.517   5.227   6.782
49142SOL    HW149323  11.457   5.272   6.841
49142SOL    HW249324  11.474   5.230   6.697
49143SOL     OW49325   7.197  13.400   1.465
49143SOL    HW149326   7.279  13.358   1.488
49143SOL    HW249327   7.214  13.494   1.476
49144SOL     OW49328   2.952   3.999  11.782
49144SOL    HW149329   3.020   3.935  11.761
49144SOL    HW249330   2.893   3.952  11.842
49145SOL     OW49331   6.305  13.037   9.386
49145SOL    HW149332   6.280  12.950   9.353
49145SOL    HW249333   6.378  13.020   9.446
49146SOL     OW49334   7.298   9.211   2.249
49146SOL    HW149335   7.237   9.239   2.318
49146SOL    HW249336   7.246   9.157   2.190
49147SOL     OW49337  12.438   6.127   7.028
49147SOL    HW149338  12.515   6.089   7.071
49147SOL    HW249339  12.392   6.052   6.991
49148SOL     OW49340  10.253   8.287   7.096
49148SOL    HW149341  10.264   8.299   7.001
49148SOL    HW249342  10.342   8.273   7.129
49149SOL     OW49343   0.342   9.880  12.835
49149SOL    HW149344   0.428   9.922  12.835
49149SOL    HW249345   0.289   9.934  12.894
49150SOL     OW49346   2.915   7.574  10.421
49150SOL    HW149347   3.006   7.588  10.448
49150SOL    HW249348   2.863   7.604  10.495
49151SOL     OW49349  11.602  12.338   3.570
49151SOL    HW149350  11.613  12.287   3.651
49151SOL    HW249351  11.691  12.364   3.546
49152SOL     OW49352   3.313   8.594   4.036
49152SOL    HW149353   3.361   8.522   3.997
49152SOL    HW249354   3.359   8.613   4.117
49153SOL     OW49355   4.292  13.503  14.170
49153SOL    HW149356   4.226  13.549  14.119
49153SOL    HW249357   4.268  13.410  14.161
49154SOL     OW49358   0.265   9.358  14.333
49154SOL    HW149359   0.318   9.318  14.264
49154SOL    HW249360   0.308   9.334  14.415
49155SOL     OW49361   9.773  13.997   6.484
49155SOL    HW149362   9.846  14.046   6.445
49155SOL    HW249363   9.708  14.064   6.504
49156SOL     OW49364  13.522   3.535   7.564
49156SOL    HW149365  13.598   3.560   7.616
49156SOL    HW249366  13.496   3.615   7.519
49157SOL     OW49367   8.396  13.093   3.106
49157SOL    HW149368   8.405  13.188   3.104
49157SOL    HW249369   8.423  13.064   3.019
49158SOL     OW49370  11.195  13.991   4.912
49158SOL    HW149371  11.252  13.921   4.946
49158SOL    HW249372  11.205  13.985   4.817
49159SOL     OW49373  10.550   7.769   2.290
49159SOL    HW149374  10.531   7.682   2.254
49159SOL    HW249375  10.490   7.777   2.364
49160SOL     OW49376   8.596   8.809  14.054
49160SOL    HW149377   8.617   8.859  14.133
49160SOL    HW249378   8.677   8.809  14.003
49161SOL     OW49379   7.674   7.223   9.085
49161SOL    HW149380   7.616   7.203   9.158
49161SOL    HW249381   7.617   7.258   9.017
49162SOL     OW49382   0.204   8.272   3.363
49162SOL    HW149383   0.184   8.337   3.296
49162SOL    HW249384   0.179   8.188   3.324
49163SOL     OW49385  12.901  13.415  12.258
49163SOL    HW149386  12.946  13.401  12.342
49163SOL    HW249387  12.921  13.506  12.235
49164SOL     OW49388   2.330   7.663   0.136
49164SOL    HW149389   2.296   7.719   0.066
49164SOL    HW249390   2.310   7.574   0.108
49165SOL     OW49391   3.468  13.221   3.244
49165SOL    HW149392   3.560  13.226   3.220
49165SOL    HW249393   3.439  13.135   3.212
49166SOL     OW49394  14.619  10.809   3.885
49166SOL    HW149395  14.701  10.848   3.916
49166SOL    HW249396  14.555  10.880   3.890
49167SOL     OW49397  12.265   4.717   9.886
49167SOL    HW149398  12.318   4.659   9.940
49167SOL    HW249399  12.326   4.783   9.855
49168SOL     OW49400  13.569  12.882  10.152
49168SOL    HW149401  13.531  12.822  10.087
49168SOL    HW249402  13.567  12.833  10.234
49169SOL     OW49403  12.694  11.597   9.500
49169SOL    HW149404  12.724  11.682   9.533
49169SOL    HW249405  12.612  11.618   9.454
49170SOL     OW49406   7.502   1.906  12.750
49170SOL    HW149407   7.471   1.841  12.814
49170SOL    HW249408   7.513   1.856  12.669
49171SOL     OW49409   9.113  12.503   1.073
49171SOL    HW149410   9.019  12.519   1.062
49171SOL    HW249411   9.121  12.407   1.071
49172SOL     OW49412   6.366   9.688   3.361
49172SOL    HW149413   6.280   9.706   3.400
49172SOL    HW249414   6.345   9.647   3.277
49173SOL     OW49415  12.326   6.220  11.672
49173SOL    HW149416  12.417   6.193  11.684
49173SOL    HW249417  12.281   6.141  11.642
49174SOL     OW49418   9.834   0.549   5.860
49174SOL    HW149419   9.824   0.455   5.846
49174SOL    HW249420   9.869   0.581   5.777
49175SOL     OW49421  11.391   2.676   3.092
49175SOL    HW149422  11.404   2.769   3.112
49175SOL    HW249423  11.461   2.632   3.140
49176SOL     OW49424  11.450   5.286   8.537
49176SOL    HW149425  11.474   5.322   8.622
49176SOL    HW249426  11.533   5.272   8.492
49177SOL     OW49427   7.189   6.812   0.963
49177SOL    HW149428   7.160   6.775   1.046
49177SOL    HW249429   7.159   6.903   0.965
49178SOL     OW49430   4.560   9.333  13.124
49178SOL    HW149431   4.577   9.324  13.217
49178SOL    HW249432   4.617   9.268  13.083
49179SOL     OW49433   3.960   9.746   8.179
49179SOL    HW149434   4.036   9.805   8.184
49179SOL    HW249435   3.998   9.658   8.177
49180SOL     OW49436  11.998   1.858   1.242
49180SOL    HW149437  11.961   1.833   1.327
49180SOL    HW249438  11.945   1.933   1.214
49181SOL     OW49439   1.472   9.084  12.643
49181SOL    HW149440   1.476   9.092  12.547
49181SOL    HW249441   1.398   9.139  12.669
49182SOL     OW49442   2.249  14.373  11.260
49182SOL    HW149443   2.223  14.406  11.346
49182SOL    HW249444   2.341  14.399  11.251
49183SOL     OW49445   3.977  12.854  10.891
49183SOL    HW149446   3.916  12.925  10.869
49183SOL    HW249447   4.061  12.899  10.904
49184SOL     OW49448   2.883   0.496  11.733
49184SOL    HW149449   2.934   0.424  11.697
49184SOL    HW249450   2.870   0.556  11.660
49185SOL     OW49451  13.198   6.143   6.597
49185SOL    HW149452  13.198   6.213   6.532
49185SOL    HW249453  13.119   6.092   6.577
49186SOL     OW49454  14.226  14.341  13.159
49186SOL    HW149455  14.182  14.395  13.224
49186SOL    HW249456  14.231  14.396  13.081
49187SOL     OW49457   5.849   4.181  14.407
49187SOL    HW149458   5.860   4.139  14.493
49187SOL    HW249459   5.938   4.203  14.380
49188SOL     OW49460   7.406   8.008   7.607
49188SOL    HW149461   7.334   7.971   7.555
49188SOL    HW249462   7.463   7.933   7.625
49189SOL     OW49463  13.538   9.165   2.245
49189SOL    HW149464  13.505   9.163   2.155
49189SOL    HW249465  13.534   9.074   2.275
49190SOL     OW49466   5.541   0.351   7.200
49190SOL    HW149467   5.610   0.406   7.161
49190SOL    HW249468   5.520   0.287   7.131
49191SOL     OW49469   7.593   3.344   1.671
49191SOL    HW149470   7.583   3.357   1.766
49191SOL    HW249471   7.686   3.325   1.660
49192SOL     OW49472   4.634  10.081  13.171
49192SOL    HW149473   4.616   9.988  13.163
49192SOL    HW249474   4.662  10.108  13.083
49193SOL     OW49475   0.813  12.790   1.358
49193SOL    HW149476   0.789  12.741   1.437
49193SOL    HW249477   0.879  12.852   1.388
49194SOL     OW49478   2.880  10.852   3.023
49194SOL    HW149479   2.969  10.872   3.053
49194SOL    HW249480   2.865  10.912   2.950
49195SOL     OW49481   7.238   1.856   1.803
49195SOL    HW149482   7.217   1.830   1.713
49195SOL    HW249483   7.157   1.841   1.852
49196SOL     OW49484   8.086  11.779   1.283
49196SOL    HW149485   8.077  11.685   1.298
49196SOL    HW249486   8.052  11.820   1.362
49197SOL     OW49487  14.045  10.755   2.796
49197SOL    HW149488  14.087  10.705   2.726
49197SOL    HW249489  13.960  10.714   2.808
49198SOL     OW49490  14.094   9.231  14.729
49198SOL    HW149491  14.130   9.155  14.683
49198SOL    HW249492  14.135   9.307  14.687
49199SOL     OW49493  10.323   2.308   0.438
49199SOL    HW149494  10.395   2.281   0.496
49199SOL    HW249495  10.348   2.275   0.352
49200SOL     OW49496  10.042   2.140  12.354
49200SOL    HW149497   9.983   2.094  12.295
49200SOL    HW249498  10.032   2.233  12.330
49201SOL     OW49499   3.337   4.692   9.834
49201SOL    HW149500   3.337   4.607   9.878
49201SOL    HW249501   3.287   4.677   9.754
49202SOL     OW49502   2.712   0.121   9.809
49202SOL    HW149503   2.756   0.103   9.725
49202SOL    HW249504   2.669   0.206   9.795
49203SOL     OW49505  11.103   5.884   3.117
49203SOL    HW149506  11.081   5.977   3.110
49203SOL    HW249507  11.019   5.839   3.118
49204SOL     OW49508   8.831   0.896  14.136
49204SOL    HW149509   8.757   0.871  14.082
49204SOL    HW249510   8.830   0.834  14.209
49205SOL     OW49511  13.910   5.102   7.181
49205SOL    HW149512  13.833   5.160   7.181
49205SOL    HW249513  13.974   5.148   7.127
49206SOL     OW49514  12.824  13.295   4.213
49206SOL    HW149515  12.848  13.207   4.185
49206SOL    HW249516  12.743  13.284   4.263
49207SOL     OW49517  13.851   2.288  10.061
49207SOL    HW149518  13.806   2.372  10.053
49207SOL    HW249519  13.921   2.291   9.995
49208SOL     OW49520   1.379   2.762   4.729
49208SOL    HW149521   1.300   2.815   4.717
49208SOL    HW249522   1.429   2.775   4.649
49209SOL     OW49523  14.051   5.579   5.492
49209SOL    HW149524  14.110   5.627   5.551
49209SOL    HW249525  14.110   5.541   5.426
49210SOL     OW49526   2.769  14.544   9.943
49210SOL    HW149527   2.748  14.547   9.850
49210SOL    HW249528   2.848  14.490   9.948
49211SOL     OW49529   6.535  10.660  11.262
49211SOL    HW149530   6.562  10.743  11.222
49211SOL    HW249531   6.616  10.611  11.274
49212SOL     OW49532  13.101  13.385   9.939
49212SOL    HW149533  13.053  13.467   9.951
49212SOL    HW249534  13.100  13.371   9.844
49213SOL     OW49535   9.997   4.373   1.394
49213SOL    HW149536   9.996   4.418   1.310
49213SOL    HW249537  10.089   4.348   1.407
49214SOL     OW49538  12.529   1.487   9.978
49214SOL    HW149539  12.451   1.512   9.928
49214SOL    HW249540  12.600   1.485   9.913
49215SOL     OW49541   5.524   0.744  13.504
49215SOL    HW149542   5.616   0.763  13.485
49215SOL    HW249543   5.475   0.785  13.433
49216SOL     OW49544   5.130   5.115  12.015
49216SOL    HW149545   5.206   5.123  11.957
49216SOL    HW249546   5.144   5.181  12.083
49217SOL     OW49547   8.023   8.773   5.730
49217SOL    HW149548   7.956   8.753   5.795
49217SOL    HW249549   8.061   8.856   5.758
49218SOL     OW49550   5.847   9.885   2.945
49218SOL    HW149551   5.851   9.965   2.996
49218SOL    HW249552   5.811   9.819   3.005
49219SOL     OW49553   9.247   7.195   8.876
49219SOL    HW149554   9.278   7.284   8.862
49219SOL    HW249555   9.318   7.151   8.923
49220SOL     OW49556   5.213   9.236   8.487
49220SOL    HW149557   5.153   9.187   8.431
49220SOL    HW249558   5.230   9.317   8.439
49221SOL     OW49559   1.466   3.113  11.747
49221SOL    HW149560   1.474   3.045  11.814
49221SOL    HW249561   1.552   3.116  11.706
49222SOL     OW49562   2.128  11.103   4.298
49222SOL    HW149563   2.189  11.175   4.282
49222SOL    HW249564   2.041  11.141   4.287
49223SOL     OW49565  10.577  11.961   4.908
49223SOL    HW149566  10.567  12.030   4.843
49223SOL    HW249567  10.670  11.964   4.931
49224SOL     OW49568   8.247   9.689  10.875
49224SOL    HW149569   8.237   9.638  10.794
49224SOL    HW249570   8.310   9.639  10.927
49225SOL     OW49571   1.517   9.885   2.100
49225SOL    HW149572   1.495   9.793   2.114
49225SOL    HW249573   1.610   9.892   2.122
49226SOL     OW49574  11.227   6.439  12.223
49226SOL    HW149575  11.278   6.493  12.162
49226SOL    HW249576  11.286   6.423  12.296
49227SOL     OW49577   9.042   8.460   0.242
49227SOL    HW149578   9.133   8.430   0.252
49227SOL    HW249579   9.050   8.545   0.200
49228SOL     OW49580   0.410   5.488  12.919
49228SOL    HW149581   0.480   5.490  12.983
49228SOL    HW249582   0.405   5.578  12.886
49229SOL     OW49583   1.895   1.765   1.680
49229SOL    HW149584   1.907   1.686   1.628
49229SOL    HW249585   1.831   1.817   1.630
49230SOL     OW49586   2.732   5.391  13.125
49230SOL    HW149587   2.753   5.310  13.173
49230SOL    HW249588   2.817   5.426  13.098
49231SOL     OW49589   3.709   8.128   0.591
49231SOL    HW149590   3.697   8.049   0.538
49231SOL    HW249591   3.791   8.166   0.557
49232SOL     OW49592   9.405  14.219  11.143
49232SOL    HW149593   9.405  14.229  11.238
49232SOL    HW249594   9.450  14.136  11.127
49233SOL     OW49595  11.531  14.770   6.026
49233SOL    HW149596  11.617  14.728   6.017
49233SOL    HW249597  11.469  14.699   6.011
49234SOL     OW49598   5.424   9.069   7.757
49234SOL    HW149599   5.484   9.080   7.684
49234SOL    HW249600   5.403   8.975   7.757
49235SOL     OW49601   5.970   3.800   3.339
49235SOL    HW149602   5.914   3.832   3.410
49235SOL    HW249603   5.946   3.854   3.264
49236SOL     OW49604   0.342   7.721   1.148
49236SOL    HW149605   0.375   7.633   1.165
49236SOL    HW249606   0.360   7.769   1.229
49237SOL     OW49607  12.280   5.987   3.334
49237SOL    HW149608  12.194   5.973   3.293
49237SOL    HW249609  12.277   5.936   3.415
49238SOL     OW49610   2.290  12.124  12.598
49238SOL    HW149611   2.291  12.135  12.503
49238SOL    HW249612   2.344  12.196  12.631
49239SOL     OW49613   5.072   9.441   8.723
49239SOL    HW149614   5.160   9.479   8.726
49239SOL    HW249615   5.033   9.478   8.644
49240SOL     OW49616  13.308   5.074  10.935
49240SOL    HW149617  13.280   5.040  10.850
49240SOL    HW249618  13.334   5.165  10.918
49241SOL     OW49619   6.517  14.579  10.407
49241SOL    HW149620   6.427  14.588  10.375
49241SOL    HW249621   6.556  14.512  10.351
49242SOL     OW49622  10.764   7.978  13.010
49242SOL    HW149623  10.817   7.949  12.936
49242SOL    HW249624  10.796   7.926  13.084
49243SOL     OW49625  13.006   3.345   7.232
49243SOL    HW149626  12.921   3.363   7.192
49243SOL    HW249627  13.016   3.412   7.299
49244SOL     OW49628   2.802  12.697   1.069
49244SOL    HW149629   2.802  12.734   0.981
49244SOL    HW249630   2.808  12.773   1.127
49245SOL     OW49631   4.519  10.727   8.281
49245SOL    HW149632   4.536  10.633   8.280
49245SOL    HW249633   4.591  10.765   8.232
49246SOL     OW49634  10.973   9.762  12.402
49246SOL    HW149635  10.964   9.834  12.338
49246SOL    HW249636  10.896   9.707  12.387
49247SOL     OW49637   4.424  11.902   1.684
49247SOL    HW149638   4.463  11.987   1.665
49247SOL    HW249639   4.386  11.911   1.771
49248SOL     OW49640   3.510   8.300  11.094
49248SOL    HW149641   3.520   8.329  11.185
49248SOL    HW249642   3.599   8.301  11.059
49249SOL     OW49643   4.281  12.873  13.123
49249SOL    HW149644   4.254  12.835  13.206
49249SOL    HW249645   4.203  12.869  13.067
49250SOL     OW49646   9.749   6.455  12.067
49250SOL    HW149647   9.753   6.457  11.971
49250SOL    HW249648   9.839   6.439  12.095
49251SOL     OW49649  10.356   6.240  14.042
49251SOL    HW149650  10.414   6.237  14.118
49251SOL    HW249651  10.412   6.272  13.970
49252SOL     OW49652   7.001   2.104   9.402
49252SOL    HW149653   7.015   2.154   9.483
49252SOL    HW249654   6.996   2.170   9.333
49253SOL     OW49655   5.177   3.504   2.335
49253SOL    HW149656   5.100   3.452   2.313
49253SOL    HW249657   5.216   3.526   2.250
49254SOL     OW49658  11.785   2.852   3.366
49254SOL    HW149659  11.873   2.877   3.396
49254SOL    HW249660  11.793   2.761   3.340
49255SOL     OW49661   2.536   5.303  12.887
49255SOL    HW149662   2.485   5.381  12.911
49255SOL    HW249663   2.564   5.266  12.970
49256SOL     OW49664   0.022  12.534   5.880
49256SOL    HW149665  14.807  12.530   5.887
49256SOL    HW249666   0.038  12.555   5.788
49257SOL     OW49667   5.077  14.477  11.598
49257SOL    HW149668   5.098  14.565  11.567
49257SOL    HW249669   5.069  14.487  11.693
49258SOL     OW49670  11.886   4.509  14.407
49258SOL    HW149671  11.913   4.459  14.484
49258SOL    HW249672  11.813   4.459  14.370
49259SOL     OW49673   0.852  10.464   3.375
49259SOL    HW149674   0.829  10.387   3.427
49259SOL    HW249675   0.779  10.525   3.388
49260SOL     OW49676  11.945   3.036   4.315
49260SOL    HW149677  11.854   3.024   4.341
49260SOL    HW249678  11.977   2.948   4.296
49261SOL     OW49679   2.482  14.807  12.702
49261SOL    HW149680   2.503  14.714  12.713
49261SOL    HW249681   2.544  14.838  12.636
49262SOL     OW49682   8.462  11.754   8.712
49262SOL    HW149683   8.372  11.721   8.710
49262SOL    HW249684   8.452  11.849   8.712
49263SOL     OW49685  10.271   5.720  11.480
49263SOL    HW149686  10.270   5.676  11.565
49263SOL    HW249687  10.204   5.676  11.429
49264SOL     OW49688  11.810  12.362   1.781
49264SOL    HW149689  11.781  12.412   1.705
49264SOL    HW249690  11.763  12.279   1.774
49265SOL     OW49691   4.765  10.140   6.558
49265SOL    HW149692   4.675  10.133   6.589
49265SOL    HW249693   4.802  10.053   6.572
49266SOL     OW49694  14.165   8.018   3.835
49266SOL    HW149695  14.083   7.981   3.867
49266SOL    HW249696  14.228   7.947   3.842
49267SOL     OW49697   2.892   5.498  14.584
49267SOL    HW149698   2.956   5.457  14.642
49267SOL    HW249699   2.874   5.432  14.517
49268SOL     OW49700   3.580   4.838   0.411
49268SOL    HW149701   3.668   4.875   0.417
49268SOL    HW249702   3.541   4.880   0.334
49269SOL     OW49703  11.495   8.436   5.278
49269SOL    HW149704  11.438   8.473   5.346
49269SOL    HW249705  11.469   8.344   5.274
49270SOL     OW49706  10.003   4.800   9.258
49270SOL    HW149707  10.053   4.789   9.340
49270SOL    HW249708   9.913   4.816   9.287
49271SOL     OW49709  10.662  11.674   6.503
49271SOL    HW149710  10.697  11.761   6.488
49271SOL    HW249711  10.687  11.624   6.425
49272SOL     OW49712   8.342   9.895   4.338
49272SOL    HW149713   8.319   9.805   4.313
49272SOL    HW249714   8.259   9.934   4.366
49273SOL     OW49715   5.364   4.290  14.396
49273SOL    HW149716   5.387   4.197  14.388
49273SOL    HW249717   5.270   4.289  14.414
49274SOL     OW49718  13.529   2.975  11.604
49274SOL    HW149719  13.540   2.884  11.634
49274SOL    HW249720  13.574   3.027  11.670
49275SOL     OW49721   7.574   6.082  10.048
49275SOL    HW149722   7.652   6.028  10.058
49275SOL    HW249723   7.606   6.172  10.050
49276SOL     OW49724   4.638   6.786   5.009
49276SOL    HW149725   4.621   6.733   5.087
49276SOL    HW249726   4.566   6.764   4.949
49277SOL     OW49727   7.200   0.550   6.542
49277SOL    HW149728   7.145   0.599   6.481
49277SOL    HW249729   7.280   0.531   6.493
49278SOL     OW49730   7.220  12.193   6.776
49278SOL    HW149731   7.142  12.203   6.722
49278SOL    HW249732   7.284  12.253   6.737
49279SOL     OW49733   7.195   9.788   2.490
49279SOL    HW149734   7.241   9.708   2.462
49279SOL    HW249735   7.103   9.770   2.473
49280SOL     OW49736   3.553   9.046   7.881
49280SOL    HW149737   3.559   8.967   7.827
49280SOL    HW249738   3.643   9.076   7.891
49281SOL     OW49739   0.883   1.319   5.320
49281SOL    HW149740   0.821   1.296   5.389
49281SOL    HW249741   0.953   1.366   5.366
49282SOL     OW49742   6.482  13.998   0.088
49282SOL    HW149743   6.395  13.979   0.123
49282SOL    HW249744   6.532  14.028   0.165
49283SOL     OW49745   5.412   5.595   4.934
49283SOL    HW149746   5.404   5.507   4.969
49283SOL    HW249747   5.480   5.636   4.987
49284SOL     OW49748   0.435   1.350  12.987
49284SOL    HW149749   0.352   1.390  13.015
49284SOL    HW249750   0.473   1.413  12.927
49285SOL     OW49751   1.823   9.793  12.839
49285SOL    HW149752   1.857   9.873  12.879
49285SOL    HW249753   1.738   9.818  12.802
49286SOL     OW49754   0.544  13.874  10.576
49286SOL    HW149755   0.612  13.807  10.576
49286SOL    HW249756   0.569  13.934  10.647
49287SOL     OW49757   6.284   1.065  11.362
49287SOL    HW149758   6.378   1.067  11.381
49287SOL    HW249759   6.246   1.019  11.437
49288SOL     OW49760   5.572   2.334   5.846
49288SOL    HW149761   5.521   2.255   5.831
49288SOL    HW249762   5.566   2.383   5.763
49289SOL     OW49763   1.658   3.034   8.013
49289SOL    HW149764   1.571   3.023   8.052
49289SOL    HW249765   1.703   3.096   8.070
49290SOL     OW49766   5.918   2.377   4.466
49290SOL    HW149767   5.883   2.445   4.523
49290SOL    HW249768   5.855   2.371   4.393
49291SOL     OW49769   3.507   5.717   6.120
49291SOL    HW149770   3.483   5.809   6.111
49291SOL    HW249771   3.510   5.702   6.214
49292SOL     OW49772   2.079   1.904  14.302
49292SOL    HW149773   2.053   1.894  14.394
49292SOL    HW249774   2.175   1.906  14.305
49293SOL     OW49775   4.316  10.175  10.024
49293SOL    HW149776   4.309  10.266   9.993
49293SOL    HW249777   4.313  10.183  10.119
49294SOL     OW49778  12.929   3.577   8.167
49294SOL    HW149779  13.002   3.518   8.189
49294SOL    HW249780  12.880   3.587   8.248
49295SOL     OW49781   3.489  13.687   7.757
49295SOL    HW149782   3.554  13.618   7.769
49295SOL    HW249783   3.540  13.768   7.758
49296SOL     OW49784  13.919   6.998   3.630
49296SOL    HW149785  13.904   6.910   3.666
49296SOL    HW249786  13.832   7.037   3.626
49297SOL     OW49787  14.369  10.580   8.403
49297SOL    HW149788  14.443  10.583   8.342
49297SOL    HW249789  14.388  10.506   8.460
49298SOL     OW49790   0.654   5.965  11.952
49298SOL    HW149791   0.600   5.968  12.032
49298SOL    HW249792   0.742   5.987  11.982
49299SOL     OW49793   8.398  10.464   1.437
49299SOL    HW149794   8.394  10.368   1.448
49299SOL    HW249795   8.308  10.493   1.452
49300SOL     OW49796   6.493   3.134   4.257
49300SOL    HW149797   6.485   3.041   4.280
49300SOL    HW249798   6.437   3.180   4.319
49301SOL     OW49799  10.936   2.655   2.430
49301SOL    HW149800  10.879   2.725   2.398
49301SOL    HW249801  10.960   2.682   2.519
49302SOL     OW49802  14.518   8.919   8.349
49302SOL    HW149803  14.458   8.898   8.276
49302SOL    HW249804  14.460   8.948   8.420
49303SOL     OW49805  13.258  14.412  10.545
49303SOL    HW149806  13.271  14.367  10.462
49303SOL    HW249807  13.333  14.385  10.599
49304SOL     OW49808  11.288   3.855  13.501
49304SOL    HW149809  11.266   3.867  13.593
49304SOL    HW249810  11.236   3.921  13.455
49305SOL     OW49811   2.313  12.592  14.722
49305SOL    HW149812   2.225  12.557  14.737
49305SOL    HW249813   2.317  12.671  14.775
49306SOL     OW49814   3.549   7.007  12.287
49306SOL    HW149815   3.472   7.053  12.253
49306SOL    HW249816   3.596   6.977  12.210
49307SOL     OW49817   2.084   5.270  10.580
49307SOL    HW149818   2.020   5.337  10.606
49307SOL    HW249819   2.032   5.190  10.575
49308SOL     OW49820   0.777   2.570   9.885
49308SOL    HW149821   0.818   2.492   9.848
49308SOL    HW249822   0.834   2.642   9.858
49309SOL     OW49823   0.431  11.941   6.706
49309SOL    HW149824   0.432  11.850   6.676
49309SOL    HW249825   0.475  11.989   6.636
49310SOL     OW49826   7.795   0.467   5.690
49310SOL    HW149827   7.842   0.398   5.737
49310SOL    HW249828   7.833   0.466   5.602
49311SOL     OW49829  12.767  13.077  14.405
49311SOL    HW149830  12.733  12.988  14.407
49311SOL    HW249831  12.803  13.087  14.316
49312SOL     OW49832  11.190   8.639   3.510
49312SOL    HW149833  11.277   8.671   3.535
49312SOL    HW249834  11.184   8.658   3.416
49313SOL     OW49835  12.733   0.273  10.483
49313SOL    HW149836  12.714   0.179  10.489
49313SOL    HW249837  12.821   0.278  10.447
49314SOL     OW49838  12.125   6.385   5.562
49314SOL    HW149839  12.053   6.429   5.608
49314SOL    HW249840  12.084   6.346   5.485
49315SOL     OW49841   9.417  11.020   0.364
49315SOL    HW149842   9.386  10.953   0.304
49315SOL    HW249843   9.464  11.083   0.309
49316SOL     OW49844   5.353   9.512   8.335
49316SOL    HW149845   5.340   9.574   8.407
49316SOL    HW249846   5.425   9.456   8.364
49317SOL     OW49847   0.986  10.221   1.693
49317SOL    HW149848   1.002  10.128   1.676
49317SOL    HW249849   0.936  10.222   1.774
49318SOL     OW49850   4.689  10.723   4.955
49318SOL    HW149851   4.744  10.707   4.878
49318SOL    HW249852   4.674  10.817   4.955
49319SOL     OW49853   2.755   8.134   9.497
49319SOL    HW149854   2.766   8.087   9.579
49319SOL    HW249855   2.823   8.100   9.440
49320SOL     OW49856   7.644  10.168  12.327
49320SOL    HW149857   7.715  10.117  12.287
49320SOL    HW249858   7.581  10.102  12.355
49321SOL     OW49859  12.554   9.494   9.344
49321SOL    HW149860  12.627   9.470   9.401
49321SOL    HW249861  12.540   9.417   9.289
49322SOL     OW49862   6.113   9.104   6.341
49322SOL    HW149863   6.103   9.190   6.303
49322SOL    HW249864   6.108   9.119   6.436
49323SOL     OW49865   0.305  14.447   5.060
49323SOL    HW149866   0.297  14.362   5.102
49323SOL    HW249867   0.278  14.510   5.127
49324SOL     OW49868   9.166   5.024  13.082
49324SOL    HW149869   9.193   5.103  13.129
49324SOL    HW249870   9.204   5.033  12.995
49325SOL     OW49871   2.552  10.862   4.973
49325SOL    HW149872   2.569  10.956   4.974
49325SOL    HW249873   2.461  10.855   4.942
49326SOL     OW49874   4.256  14.632   6.930
49326SOL    HW149875   4.227  14.676   6.850
49326SOL    HW249876   4.214  14.546   6.927
49327SOL     OW49877   8.853  14.704   3.054
49327SOL    HW149878   8.899  14.786   3.069
49327SOL    HW249879   8.763  14.722   3.083
49328SOL     OW49880   3.596   2.491  12.784
49328SOL    HW149881   3.622   2.409  12.741
49328SOL    HW249882   3.515   2.517  12.741
49329SOL     OW49883  14.402   5.418   6.218
49329SOL    HW149884  14.422   5.510   6.203
49329SOL    HW249885  14.354   5.391   6.139
49330SOL     OW49886  10.612   7.381   7.145
49330SOL    HW149887  10.687   7.440   7.140
49330SOL    HW249888  10.651   7.293   7.139
49331SOL     OW49889   9.862  12.809   3.140
49331SOL    HW149890   9.900  12.895   3.123
49331SOL    HW249891   9.768  12.822   3.134
49332SOL     OW49892   0.340   2.015   5.242
49332SOL    HW149893   0.403   1.944   5.254
49332SOL    HW249894   0.325   2.018   5.147
49333SOL     OW49895   9.687  13.418  11.083
49333SOL    HW149896   9.638  13.463  11.014
49333SOL    HW249897   9.742  13.355  11.036
49334SOL     OW49898   1.493   3.592   3.094
49334SOL    HW149899   1.502   3.678   3.053
49334SOL    HW249900   1.504   3.609   3.188
49335SOL     OW49901   5.499  10.199   2.348
49335SOL    HW149902   5.406  10.210   2.367
49335SOL    HW249903   5.502  10.127   2.285
49336SOL     OW49904   1.319  10.975  10.580
49336SOL    HW149905   1.351  11.063  10.599
49336SOL    HW249906   1.355  10.921  10.650
49337SOL     OW49907  11.370   1.175  13.568
49337SOL    HW149908  11.278   1.193  13.549
49337SOL    HW249909  11.369   1.113  13.640
49338SOL     OW49910   6.463  10.339   0.298
49338SOL    HW149911   6.509  10.261   0.267
49338SOL    HW249912   6.370  10.315   0.294
49339SOL     OW49913   8.491   5.428  14.510
49339SOL    HW149914   8.535   5.476  14.580
49339SOL    HW249915   8.525   5.339  14.516
49340SOL     OW49916  13.843   1.733   2.633
49340SOL    HW149917  13.851   1.638   2.624
49340SOL    HW249918  13.758   1.745   2.676
49341SOL     OW49919   0.242   1.457   7.359
49341SOL    HW149920   0.180   1.477   7.289
49341SOL    HW249921   0.323   1.503   7.334
49342SOL     OW49922  10.131  10.978   4.507
49342SOL    HW149923  10.133  10.942   4.596
49342SOL    HW249924  10.049  10.945   4.470
49343SOL     OW49925   7.237   2.451   4.563
49343SOL    HW149926   7.299   2.392   4.519
49343SOL    HW249927   7.292   2.504   4.620
49344SOL     OW49928   5.116   7.352  11.269
49344SOL    HW149929   5.191   7.408  11.246
49344SOL    HW249930   5.085   7.386  11.353
49345SOL     OW49931  13.093   3.277   8.750
49345SOL    HW149932  13.077   3.223   8.827
49345SOL    HW249933  13.113   3.364   8.786
49346SOL     OW49934   0.776   1.804   3.612
49346SOL    HW149935   0.768   1.859   3.534
49346SOL    HW249936   0.791   1.716   3.578
49347SOL     OW49937  10.815  14.757   8.728
49347SOL    HW149938  10.729  14.718   8.740
49347SOL    HW249939  10.835  14.798   8.812
49348SOL     OW49940   0.625   3.417  12.330
49348SOL    HW149941   0.669   3.396  12.247
49348SOL    HW249942   0.696   3.422  12.394
49349SOL     OW49943   8.793  11.971  14.465
49349SOL    HW149944   8.736  12.047  14.467
49349SOL    HW249945   8.836  11.970  14.551
49350SOL     OW49946  14.681   9.121   2.920
49350SOL    HW149947  14.611   9.065   2.954
49350SOL    HW249948  14.742   9.131   2.993
49351SOL     OW49949   9.673   0.356  10.748
49351SOL    HW149950   9.695   0.306  10.670
49351SOL    HW249951   9.610   0.421  10.718
49352SOL     OW49952   4.631  10.869   2.665
49352SOL    HW149953   4.645  10.885   2.572
49352SOL    HW249954   4.575  10.941   2.693
49353SOL     OW49955  11.321   8.127   8.464
49353SOL    HW149956  11.356   8.087   8.385
49353SOL    HW249957  11.382   8.102   8.533
49354SOL     OW49958  10.205   7.572   5.546
49354SOL    HW149959  10.141   7.621   5.596
49354SOL    HW249960  10.246   7.638   5.489
49355SOL     OW49961   9.168   4.448   6.789
49355SOL    HW149962   9.195   4.362   6.756
49355SOL    HW249963   9.220   4.460   6.869
49356SOL     OW49964  10.353   6.009  13.030
49356SOL    HW149965  10.317   6.095  13.007
49356SOL    HW249966  10.444   6.013  12.999
49357SOL     OW49967   9.276   5.445  12.118
49357SOL    HW149968   9.199   5.461  12.065
49357SOL    HW249969   9.263   5.358  12.155
49358SOL     OW49970   2.056   9.504   1.409
49358SOL    HW149971   2.107   9.461   1.477
49358SOL    HW249972   1.966   9.476   1.424
49359SOL     OW49973   6.468  12.255   2.433
49359SOL    HW149974   6.516  12.326   2.390
49359SOL    HW249975   6.440  12.292   2.517
49360SOL     OW49976  10.811   9.783   3.597
49360SOL    HW149977  10.892   9.733   3.593
49360SOL    HW249978  10.839   9.875   3.595
49361SOL     OW49979   1.727   1.141   1.074
49361SOL    HW149980   1.805   1.173   1.120
49361SOL    HW249981   1.726   1.047   1.090
49362SOL     OW49982   3.099   6.831  12.838
49362SOL    HW149983   3.067   6.811  12.750
49362SOL    HW249984   3.161   6.903  12.825
49363SOL     OW49985  10.276   4.724  14.112
49363SOL    HW149986  10.274   4.721  14.017
49363SOL    HW249987  10.236   4.642  14.140
49364SOL     OW49988   8.357  11.719   0.208
49364SOL    HW149989   8.418  11.656   0.170
49364SOL    HW249990   8.274  11.673   0.214
49365SOL     OW49991   6.998   5.554   1.098
49365SOL    HW149992   6.956   5.623   1.149
49365SOL    HW249993   6.926   5.510   1.053
49366SOL     OW49994   2.566   1.556  11.935
49366SOL    HW149995   2.577   1.461  11.945
49366SOL    HW249996   2.645   1.593  11.974
49367SOL     OW49997   5.989  13.856   6.996
49367SOL    HW149998   5.958  13.905   6.920
49367SOL    HW249999   5.954  13.767   6.982
49368SOL     OW50000   4.224   2.389  11.235
49368SOL    HW150001   4.318   2.381  11.250
49368SOL    HW250002   4.215   2.459  11.172
49369SOL     OW50003  14.000  12.343  10.890
49369SOL    HW150004  14.023  12.313  10.978
49369SOL    HW250005  14.084  12.365  10.849
49370SOL     OW50006   8.183   3.357  14.485
49370SOL    HW150007   8.184   3.350  14.390
49370SOL    HW250008   8.179   3.451  14.503
49371SOL     OW50009  13.994  10.189  13.384
49371SOL    HW150010  14.043  10.159  13.462
49371SOL    HW250011  14.059  10.187  13.314
49372SOL     OW50012  12.721   8.861   3.301
49372SOL    HW150013  12.809   8.878   3.336
49372SOL    HW250014  12.736   8.838   3.210
49373SOL     OW50015  11.100   0.123   8.212
49373SOL    HW150016  11.035   0.068   8.168
49373SOL    HW250017  11.053   0.162   8.286
49374SOL     OW50018   7.315  10.885   7.630
49374SOL    HW150019   7.314  10.838   7.547
49374SOL    HW250020   7.223  10.897   7.653
49375SOL     OW50021   9.324   5.514  12.559
49375SOL    HW150022   9.360   5.559  12.482
49375SOL    HW250023   9.367   5.556  12.633
49376SOL     OW50024  12.737   1.438  11.283
49376SOL    HW150025  12.739   1.439  11.188
49376SOL    HW250026  12.707   1.526  11.308
49377SOL     OW50027  10.315   4.356   9.279
49377SOL    HW150028  10.252   4.416   9.239
49377SOL    HW250029  10.266   4.276   9.294
49378SOL     OW50030   7.023  11.970   4.510
49378SOL    HW150031   7.047  12.062   4.503
49378SOL    HW250032   6.969  11.953   4.433
49379SOL     OW50033   7.590  11.857   8.496
49379SOL    HW150034   7.673  11.904   8.505
49379SOL    HW250035   7.548  11.867   8.582
49380SOL     OW50036   9.232  12.724   3.141
49380SOL    HW150037   9.285  12.756   3.213
49380SOL    HW250038   9.243  12.789   3.072
49381SOL     OW50039   4.869   8.052   7.631
49381SOL    HW150040   4.805   8.123   7.629
49381SOL    HW250041   4.895   8.046   7.723
49382SOL     OW50042  14.873  11.660   4.978
49382SOL    HW150043  14.861  11.742   5.025
49382SOL    HW250044   0.024  11.686   4.891
49383SOL     OW50045   8.997   0.517   6.878
49383SOL    HW150046   9.003   0.610   6.899
49383SOL    HW250047   9.011   0.512   6.784
49384SOL     OW50048   4.569   2.024   1.228
49384SOL    HW150049   4.606   1.964   1.163
49384SOL    HW250050   4.626   2.101   1.225
49385SOL     OW50051  13.441  12.367   3.346
49385SOL    HW150052  13.530  12.402   3.334
49385SOL    HW250053  13.386  12.419   3.288
49386SOL     OW50054   6.810   4.535   7.924
49386SOL    HW150055   6.762   4.537   7.841
49386SOL    HW250056   6.797   4.446   7.957
49387SOL     OW50057   4.831  13.612   3.631
49387SOL    HW150058   4.766  13.592   3.699
49387SOL    HW250059   4.869  13.696   3.658
49388SOL     OW50060   8.451   2.865  13.001
49388SOL    HW150061   8.423   2.934  12.941
49388SOL    HW250062   8.516   2.906  13.058
49389SOL     OW50063   1.786  14.644   8.958
49389SOL    HW150064   1.838  14.724   8.965
49389SOL    HW250065   1.695  14.674   8.967
49390SOL     OW50066   0.683   2.556   3.164
49390SOL    HW150067   0.687   2.637   3.214
49390SOL    HW250068   0.726   2.491   3.219
49391SOL     OW50069   9.232   9.753   7.742
49391SOL    HW150070   9.258   9.844   7.729
49391SOL    HW250071   9.213   9.747   7.836
49392SOL     OW50072   2.358   6.312   1.781
49392SOL    HW150073   2.272   6.296   1.740
49392SOL    HW250074   2.404   6.368   1.718
49393SOL     OW50075   6.522   2.910  12.885
49393SOL    HW150076   6.613   2.937  12.893
49393SOL    HW250077   6.519   2.860  12.803
49394SOL     OW50078   0.081   7.822   6.709
49394SOL    HW150079   0.033   7.760   6.764
49394SOL    HW250080   0.143   7.768   6.662
49395SOL     OW50081   1.131  13.628   5.498
49395SOL    HW150082   1.195  13.584   5.554
49395SOL    HW250083   1.134  13.720   5.524
49396SOL     OW50084   0.468   1.502  10.166
49396SOL    HW150085   0.497   1.416  10.196
49396SOL    HW250086   0.529   1.525  10.096
49397SOL     OW50087   7.114   7.487  11.037
49397SOL    HW150088   7.198   7.464  11.077
49397SOL    HW250089   7.049   7.440  11.088
49398SOL     OW50090   3.951   2.080  13.367
49398SOL    HW150091   3.966   1.986  13.363
49398SOL    HW250092   3.893   2.098  13.293
49399SOL     OW50093   6.167  14.775  12.823
49399SOL    HW150094   6.172  14.686  12.787
49399SOL    HW250095   6.233  14.776  12.893
49400SOL     OW50096  14.212   4.843   6.966
49400SOL    HW150097  14.236   4.936   6.963
49400SOL    HW250098  14.117   4.844   6.975
49401SOL     OW50099   8.280   9.062   1.819
49401SOL    HW150100   8.326   8.982   1.846
49401SOL    HW250101   8.200   9.031   1.777
49402SOL     OW50102  13.813  13.417   8.276
49402SOL    HW150103  13.767  13.500   8.266
49402SOL    HW250104  13.840  13.393   8.188
49403SOL     OW50105   4.961   3.393  10.872
49403SOL    HW150106   4.980   3.349  10.789
49403SOL    HW250107   5.039   3.446  10.889
49404SOL     OW50108   9.218   5.083   4.339
49404SOL    HW150109   9.226   5.168   4.296
49404SOL    HW250110   9.185   5.103   4.426
49405SOL     OW50111  14.242   7.004   7.605
49405SOL    HW150112  14.271   7.095   7.606
49405SOL    HW250113  14.262   6.971   7.693
49406SOL     OW50114   9.813   0.481   6.937
49406SOL    HW150115   9.743   0.421   6.962
49406SOL    HW250116   9.867   0.432   6.876
49407SOL     OW50117  14.261   0.528  11.248
49407SOL    HW150118  14.350   0.556  11.226
49407SOL    HW250119  14.207   0.567  11.179
49408SOL     OW50120   7.517   9.161  14.659
49408SOL    HW150121   7.446   9.159  14.723
49408SOL    HW250122   7.475   9.192  14.579
49409SOL     OW50123   7.192  10.778  12.040
49409SOL    HW150124   7.158  10.766  12.128
49409SOL    HW250125   7.195  10.873  12.027
49410SOL     OW50126   9.487   9.442  14.482
49410SOL    HW150127   9.532   9.527  14.482
49410SOL    HW250128   9.484   9.417  14.575
49411SOL     OW50129  14.627   5.735   3.459
49411SOL    HW150130  14.643   5.743   3.365
49411SOL    HW250131  14.579   5.814   3.482
49412SOL     OW50132   2.411   7.961   6.024
49412SOL    HW150133   2.453   7.931   5.943
49412SOL    HW250134   2.430   8.055   6.027
49413SOL     OW50135   8.610  10.727   8.798
49413SOL    HW150136   8.697  10.721   8.758
49413SOL    HW250137   8.617  10.677   8.880
49414SOL     OW50138   6.239   4.227  14.198
49414SOL    HW150139   6.213   4.282  14.272
49414SOL    HW250140   6.227   4.282  14.121
49415SOL     OW50141   5.181  13.137   4.086
49415SOL    HW150142   5.261  13.188   4.077
49415SOL    HW250143   5.186  13.071   4.017
49416SOL     OW50144  12.057   7.135   0.590
49416SOL    HW150145  12.010   7.172   0.515
49416SOL    HW250146  12.150   7.145   0.567
49417SOL     OW50147  13.629   7.494   5.563
49417SOL    HW150148  13.559   7.529   5.618
49417SOL    HW250149  13.679   7.437   5.623
49418SOL     OW50150   7.918   0.740   3.014
49418SOL    HW150151   7.874   0.669   3.062
49418SOL    HW250152   7.886   0.729   2.924
49419SOL     OW50153  14.374  12.434  11.101
49419SOL    HW150154  14.293  12.484  11.111
49419SOL    HW250155  14.346  12.343  11.095
49420SOL     OW50156  14.272   8.433  13.197
49420SOL    HW150157  14.288   8.464  13.108
49420SOL    HW250158  14.244   8.510  13.245
49421SOL     OW50159   7.397  13.530   7.917
49421SOL    HW150160   7.315  13.541   7.869
49421SOL    HW250161   7.451  13.476   7.860
49422SOL     OW50162  10.797  10.316   6.920
49422SOL    HW150163  10.862  10.386   6.927
49422SOL    HW250164  10.848  10.238   6.899
49423SOL     OW50165   3.695   4.499   6.495
49423SOL    HW150166   3.676   4.407   6.479
49423SOL    HW250167   3.678   4.542   6.411
49424SOL     OW50168  11.060  11.497  14.209
49424SOL    HW150169  11.102  11.458  14.131
49424SOL    HW250170  10.977  11.532  14.177
49425SOL     OW50171  11.020   9.126   5.080
49425SOL    HW150172  11.077   9.163   5.147
49425SOL    HW250173  11.080   9.101   5.009
49426SOL     OW50174  10.947  11.677   0.338
49426SOL    HW150175  10.951  11.679   0.242
49426SOL    HW250176  10.985  11.760   0.365
49427SOL     OW50177   4.847   4.784  13.477
49427SOL    HW150178   4.795   4.837  13.416
49427SOL    HW250179   4.935   4.782  13.440
49428SOL     OW50180   4.365  12.488  12.126
49428SOL    HW150181   4.388  12.464  12.216
49428SOL    HW250182   4.270  12.480  12.123
49429SOL     OW50183  13.032   7.078   2.357
49429SOL    HW150184  12.953   7.113   2.398
49429SOL    HW250185  13.101   7.140   2.380
49430SOL     OW50186  14.690  12.453  12.416
49430SOL    HW150187  14.654  12.426  12.331
49430SOL    HW250188  14.736  12.535  12.397
49431SOL     OW50189  14.598   5.087  14.094
49431SOL    HW150190  14.551   5.009  14.125
49431SOL    HW250191  14.576   5.093  14.001
49432SOL     OW50192  11.132  12.496   5.234
49432SOL    HW150193  11.200  12.561   5.252
49432SOL    HW250194  11.180  12.415   5.216
49433SOL     OW50195   7.426   3.732  13.247
49433SOL    HW150196   7.493   3.664  13.232
49433SOL    HW250197   7.343   3.685  13.239
49434SOL     OW50198  12.113  12.868  12.608
49434SOL    HW150199  12.100  12.961  12.589
49434SOL    HW250200  12.117  12.826  12.522
49435SOL     OW50201   9.193   5.072   9.755
49435SOL    HW150202   9.178   5.072   9.850
49435SOL    HW250203   9.127   5.012   9.720
49436SOL     OW50204   0.308  11.034   1.306
49436SOL    HW150205   0.248  10.963   1.325
49436SOL    HW250206   0.253  11.103   1.269
49437SOL     OW50207   5.654  14.200  10.983
49437SOL    HW150208   5.654  14.151  11.066
49437SOL    HW250209   5.741  14.185  10.947
49438SOL     OW50210   8.569   9.576  14.654
49438SOL    HW150211   8.551   9.641  14.587
49438SOL    HW250212   8.483   9.552  14.688
49439SOL     OW50213   3.555   3.340   2.951
49439SOL    HW150214   3.580   3.365   2.862
49439SOL    HW250215   3.482   3.398   2.972
49440SOL     OW50216  13.649  14.247   0.638
49440SOL    HW150217  13.652  14.333   0.597
49440SOL    HW250218  13.619  14.264   0.728
49441SOL     OW50219   3.999  13.097   8.546
49441SOL    HW150220   3.943  13.073   8.473
49441SOL    HW250221   4.051  13.170   8.513
49442SOL     OW50222   0.676  13.418   7.558
49442SOL    HW150223   0.609  13.468   7.605
49442SOL    HW250224   0.758  13.438   7.603
49443SOL     OW50225  11.495  11.742  14.726
49443SOL    HW150226  11.411  11.741  14.772
49443SOL    HW250227  11.545  11.813  14.766
49444SOL     OW50228   1.911   8.822   9.024
49444SOL    HW150229   1.947   8.909   9.039
49444SOL    HW250230   1.978   8.762   9.056
49445SOL     OW50231  11.546  12.691   2.019
49445SOL    HW150232  11.533  12.725   2.107
49445SOL    HW250233  11.625  12.638   2.025
49446SOL     OW50234   6.271   3.180   7.631
49446SOL    HW150235   6.228   3.221   7.556
49446SOL    HW250236   6.294   3.253   7.689
49447SOL     OW50237  13.191   3.034   5.320
49447SOL    HW150238  13.125   2.994   5.264
49447SOL    HW250239  13.264   3.054   5.261
49448SOL     OW50240  10.412   1.646  11.680
49448SOL    HW150241  10.423   1.734  11.716
49448SOL    HW250242  10.455   1.650  11.594
49449SOL     OW50243  10.561  11.068   1.242
49449SOL    HW150244  10.552  11.149   1.192
49449SOL    HW250245  10.648  11.072   1.280
49450SOL     OW50246   2.976  13.698   3.165
49450SOL    HW150247   2.953  13.623   3.219
49450SOL    HW250248   2.891  13.734   3.137
49451SOL     OW50249   9.796   3.529   4.942
49451SOL    HW150250   9.833   3.610   4.907
49451SOL    HW250251   9.774   3.477   4.865
49452SOL     OW50252   3.771  11.955   7.204
49452SOL    HW150253   3.763  12.018   7.274
49452SOL    HW250254   3.688  11.962   7.156
49453SOL     OW50255   7.442  14.261  12.035
49453SOL    HW150256   7.423  14.183  12.086
49453SOL    HW250257   7.517  14.237  11.980
49454SOL     OW50258   6.109   0.526   4.151
49454SOL    HW150259   6.171   0.452   4.152
49454SOL    HW250260   6.044   0.503   4.217
49455SOL     OW50261   6.773  10.160  11.077
49455SOL    HW150262   6.745  10.129  11.163
49455SOL    HW250263   6.867  10.179  11.087
49456SOL     OW50264  11.380   2.877   0.868
49456SOL    HW150265  11.401   2.956   0.817
49456SOL    HW250266  11.426   2.889   0.951
49457SOL     OW50267   1.465   3.145  14.356
49457SOL    HW150268   1.517   3.088  14.413
49457SOL    HW250269   1.403   3.187  14.415
49458SOL     OW50270  13.243   1.341   2.000
49458SOL    HW150271  13.207   1.261   1.962
49458SOL    HW250272  13.284   1.386   1.926
49459SOL     OW50273  10.897   8.531   7.411
49459SOL    HW150274  10.866   8.522   7.321
49459SOL    HW250275  10.989   8.505   7.407
49460SOL     OW50276   4.445  10.647   0.078
49460SOL    HW150277   4.368  10.630   0.024
49460SOL    HW250278   4.474  10.560   0.106
49461SOL     OW50279  12.437  14.122   4.647
49461SOL    HW150280  12.494  14.077   4.710
49461SOL    HW250281  12.405  14.052   4.590
49462SOL     OW50282  10.260   5.953   6.521
49462SOL    HW150283  10.287   5.863   6.503
49462SOL    HW250284  10.185   5.968   6.463
49463SOL     OW50285   6.622   2.799   6.158
49463SOL    HW150286   6.605   2.892   6.175
49463SOL    HW250287   6.611   2.757   6.243
49464SOL     OW50288   6.543  13.568   6.175
49464SOL    HW150289   6.618  13.509   6.172
49464SOL    HW250290   6.495  13.542   6.253
49465SOL     OW50291   8.558   6.862  12.887
49465SOL    HW150292   8.498   6.830  12.955
49465SOL    HW250293   8.639   6.882  12.934
49466SOL     OW50294  10.278  13.244  10.284
49466SOL    HW150295  10.268  13.215  10.374
49466SOL    HW250296  10.193  13.226  10.243
49467SOL     OW50297   6.553  11.654   8.126
49467SOL    HW150298   6.558  11.743   8.162
49467SOL    HW250299   6.529  11.668   8.034
49468SOL     OW50300  10.261   1.671   4.218
49468SOL    HW150301  10.166   1.670   4.229
49468SOL    HW250302  10.278   1.750   4.167
49469SOL     OW50303  14.598   2.937   4.837
49469SOL    HW150304  14.662   2.873   4.868
49469SOL    HW250305  14.648   3.018   4.829
49470SOL     OW50306   3.942  10.503  11.621
49470SOL    HW150307   4.026  10.535  11.589
49470SOL    HW250308   3.948  10.408  11.616
49471SOL     OW50309   3.986  12.985   5.518
49471SOL    HW150310   3.972  12.953   5.429
49471SOL    HW250311   4.027  12.911   5.564
49472SOL     OW50312   0.282  10.471  10.447
49472SOL    HW150313   0.277  10.475  10.351
49472SOL    HW250314   0.247  10.385  10.469
49473SOL     OW50315   1.395  12.848   3.148
49473SOL    HW150316   1.489  12.837   3.154
49473SOL    HW250317   1.383  12.941   3.126
49474SOL     OW50318   1.615   1.493   1.743
49474SOL    HW150319   1.670   1.477   1.820
49474SOL    HW250320   1.588   1.584   1.753
49475SOL     OW50321   4.134   9.672   0.140
49475SOL    HW150322   4.220   9.632   0.128
49475SOL    HW250323   4.104   9.639   0.225
49476SOL     OW50324   4.529   0.805   7.132
49476SOL    HW150325   4.513   0.717   7.166
49476SOL    HW250326   4.452   0.855   7.160
49477SOL     OW50327  11.070   9.249  13.914
49477SOL    HW150328  10.978   9.277  13.912
49477SOL    HW250329  11.116   9.315  13.862
49478SOL     OW50330   5.186  12.486   4.713
49478SOL    HW150331   5.184  12.579   4.735
49478SOL    HW250332   5.097  12.455   4.733
49479SOL     OW50333  12.191   6.903  13.371
49479SOL    HW150334  12.202   6.942  13.457
49479SOL    HW250335  12.266   6.843  13.362
49480SOL     OW50336   6.613   1.073  10.687
49480SOL    HW150337   6.529   1.035  10.711
49480SOL    HW250338   6.614   1.070  10.591
49481SOL     OW50339  14.355   1.214   9.232
49481SOL    HW150340  14.416   1.234   9.303
49481SOL    HW250341  14.291   1.286   9.234
49482SOL     OW50342   2.941  13.484   3.314
49482SOL    HW150343   3.029  13.463   3.346
49482SOL    HW250344   2.896  13.400   3.309
49483SOL     OW50345  10.338  11.513  13.662
49483SOL    HW150346  10.297  11.548  13.740
49483SOL    HW250347  10.274  11.452  13.626
49484SOL     OW50348  14.297  11.242  10.606
49484SOL    HW150349  14.266  11.275  10.691
49484SOL    HW250350  14.310  11.149  10.620
49485SOL     OW50351   8.081  10.273  11.558
49485SOL    HW150352   8.039  10.281  11.644
49485SOL    HW250353   8.076  10.179  11.539
49486SOL     OW50354  11.706   9.781   8.266
49486SOL    HW150355  11.784   9.795   8.320
49486SOL    HW250356  11.734   9.800   8.177
49487SOL     OW50357   8.289   1.923  13.966
49487SOL    HW150358   8.279   1.832  13.940
49487SOL    HW250359   8.309   1.920  14.059
49488SOL     OW50360   8.277  12.150   9.140
49488SOL    HW150361   8.255  12.065   9.179
49488SOL    HW250362   8.332  12.192   9.205
49489SOL     OW50363   4.105   9.263   3.868
49489SOL    HW150364   4.063   9.314   3.937
49489SOL    HW250365   4.126   9.180   3.909
49490SOL     OW50366   7.755  12.903   1.883
49490SOL    HW150367   7.760  12.829   1.944
49490SOL    HW250368   7.807  12.875   1.808
49491SOL     OW50369   2.130   7.364  10.882
49491SOL    HW150370   2.041   7.342  10.854
49491SOL    HW250371   2.187   7.319  10.819
49492SOL     OW50372   2.137   7.661   7.183
49492SOL    HW150373   2.102   7.739   7.140
49492SOL    HW250374   2.196   7.624   7.117
49493SOL     OW50375   9.366   2.170  12.221
49493SOL    HW150376   9.325   2.221  12.151
49493SOL    HW250377   9.300   2.165  12.290
49494SOL     OW50378   4.097  13.591   1.891
49494SOL    HW150379   4.157  13.591   1.966
49494SOL    HW250380   4.153  13.568   1.816
49495SOL     OW50381   2.547   6.679  13.176
49495SOL    HW150382   2.582   6.592  13.198
49495SOL    HW250383   2.473   6.691  13.235
49496SOL     OW50384  11.113   9.465   1.489
49496SOL    HW150385  11.175   9.499   1.553
49496SOL    HW250386  11.128   9.518   1.410
49497SOL     OW50387  10.599   7.547  10.078
49497SOL    HW150388  10.571   7.456  10.070
49497SOL    HW250389  10.598   7.579   9.988
49498SOL     OW50390  13.603   7.400   4.531
49498SOL    HW150391  13.573   7.417   4.620
49498SOL    HW250392  13.697   7.385   4.540
49499SOL     OW50393  12.177   2.429   0.722
49499SOL    HW150394  12.103   2.430   0.662
49499SOL    HW250395  12.141   2.399   0.805
49500SOL     OW50396   5.849   0.388   5.587
49500SOL    HW150397   5.916   0.353   5.646
49500SOL    HW250398   5.894   0.457   5.539
49501SOL     OW50399  14.054   8.767  11.103
49501SOL    HW150400  13.975   8.819  11.088
49501SOL    HW250401  14.035   8.682  11.064
49502SOL     OW50402   7.378   8.618  12.943
49502SOL    HW150403   7.433   8.540  12.949
49502SOL    HW250404   7.367   8.647  13.033
49503SOL     OW50405   5.723   7.302  14.525
49503SOL    HW150406   5.655   7.269  14.584
49503SOL    HW250407   5.708   7.397  14.524
49504SOL     OW50408   0.167   5.346  12.896
49504SOL    HW150409   0.182   5.286  12.969
49504SOL    HW250410   0.252   5.389  12.883
49505SOL     OW50411   2.303  12.702   1.978
49505SOL    HW150412   2.354  12.622   1.965
49505SOL    HW250413   2.218  12.671   2.010
49506SOL     OW50414  10.494   2.594   8.413
49506SOL    HW150415  10.561   2.658   8.436
49506SOL    HW250416  10.513   2.519   8.470
49507SOL     OW50417   4.206   0.285   6.924
49507SOL    HW150418   4.225   0.220   6.991
49507SOL    HW250419   4.286   0.337   6.917
49508SOL     OW50420   9.586   7.948   2.766
49508SOL    HW150421   9.602   7.882   2.699
49508SOL    HW250422   9.627   8.027   2.732
49509SOL     OW50423   9.398  13.394   1.440
49509SOL    HW150424   9.470  13.427   1.494
49509SOL    HW250425   9.339  13.352   1.502
49510SOL     OW50426  13.596   1.358  11.325
49510SOL    HW150427  13.576   1.265  11.314
49510SOL    HW250428  13.690   1.362  11.342
49511SOL     OW50429   4.432  10.896   1.698
49511SOL    HW150430   4.528  10.887   1.697
49511SOL    HW250431   4.416  10.972   1.753
49512SOL     OW50432   1.118   2.048   5.660
49512SOL    HW150433   1.068   2.119   5.621
49512SOL    HW250434   1.192   2.034   5.600
49513SOL     OW50435  11.418   5.901   1.304
49513SOL    HW150436  11.395   5.846   1.379
49513SOL    HW250437  11.343   5.960   1.295
49514SOL     OW50438   4.162   4.563   5.837
49514SOL    HW150439   4.172   4.656   5.818
49514SOL    HW250440   4.240   4.522   5.801
49515SOL     OW50441   4.618  14.802   4.993
49515SOL    HW150442   4.636  14.758   5.076
49515SOL    HW250443   4.699  14.850   4.974
49516SOL     OW50444   7.432   3.785   3.965
49516SOL    HW150445   7.446   3.699   4.005
49516SOL    HW250446   7.468   3.776   3.877
49517SOL     OW50447   0.241   5.899   7.493
49517SOL    HW150448   0.299   5.920   7.419
49517SOL    HW250449   0.296   5.849   7.553
49518SOL     OW50450   1.708  13.720   5.706
49518SOL    HW150451   1.691  13.815   5.707
49518SOL    HW250452   1.790  13.711   5.658
49519SOL     OW50453   3.772   6.536   0.259
49519SOL    HW150454   3.814   6.455   0.232
49519SOL    HW250455   3.737   6.574   0.179
49520SOL     OW50456  13.390   7.494   9.512
49520SOL    HW150457  13.321   7.551   9.477
49520SOL    HW250458  13.364   7.477   9.602
49521SOL     OW50459   6.285   0.495   2.571
49521SOL    HW150460   6.271   0.514   2.479
49521SOL    HW250461   6.247   0.570   2.617
49522SOL     OW50462  13.585  14.669   8.983
49522SOL    HW150463  13.496  14.677   9.016
49522SOL    HW250464  13.632  14.622   9.052
49523SOL     OW50465  11.088  10.995   4.526
49523SOL    HW150466  11.085  10.924   4.462
49523SOL    HW250467  11.074  11.075   4.474
49524SOL     OW50468   9.013  13.566  12.518
49524SOL    HW150469   8.967  13.583  12.435
49524SOL    HW250470   9.023  13.653  12.557
49525SOL     OW50471   2.731   8.708   9.883
49525SOL    HW150472   2.754   8.663   9.964
49525SOL    HW250473   2.814   8.741   9.849
49526SOL     OW50474   2.464  12.031   9.697
49526SOL    HW150475   2.399  11.962   9.710
49526SOL    HW250476   2.459  12.085   9.776
49527SOL     OW50477  13.844   0.936   0.537
49527SOL    HW150478  13.783   0.865   0.518
49527SOL    HW250479  13.796   0.995   0.596
49528SOL     OW50480  10.231   6.322   9.956
49528SOL    HW150481  10.294   6.393   9.950
49528SOL    HW250482  10.240   6.276   9.872
49529SOL     OW50483   1.460  13.786  14.257
49529SOL    HW150484   1.429  13.750  14.174
49529SOL    HW250485   1.442  13.717  14.321
49530SOL     OW50486  13.715   4.072   6.794
49530SOL    HW150487  13.755   4.050   6.710
49530SOL    HW250488  13.633   4.115   6.771
49531SOL     OW50489   6.048   7.300   2.217
49531SOL    HW150490   6.110   7.272   2.285
49531SOL    HW250491   5.968   7.321   2.265
49532SOL     OW50492   7.455   7.644   7.253
49532SOL    HW150493   7.441   7.653   7.159
49532SOL    HW250494   7.461   7.734   7.285
49533SOL     OW50495   8.896   9.603   2.691
49533SOL    HW150496   8.934   9.612   2.778
49533SOL    HW250497   8.968   9.625   2.632
49534SOL     OW50498  14.034   8.229   5.912
49534SOL    HW150499  14.031   8.138   5.882
49534SOL    HW250500  14.119   8.238   5.954
49535SOL     OW50501   9.467  10.920   8.950
49535SOL    HW150502   9.528  10.994   8.954
49535SOL    HW250503   9.494  10.863   9.021
49536SOL     OW50504   5.999  10.522   4.194
49536SOL    HW150505   6.086  10.554   4.216
49536SOL    HW250506   6.010  10.428   4.182
49537SOL     OW50507   4.626   6.685   7.056
49537SOL    HW150508   4.654   6.638   6.977
49537SOL    HW250509   4.571   6.756   7.024
49538SOL     OW50510   4.155   9.349   4.577
49538SOL    HW150511   4.075   9.381   4.619
49538SOL    HW250512   4.216   9.335   4.649
49539SOL     OW50513   6.083   7.136   6.783
49539SOL    HW150514   6.129   7.216   6.759
49539SOL    HW250515   6.137   7.066   6.745
49540SOL     OW50516   0.053   6.448   3.720
49540SOL    HW150517   0.027   6.356   3.720
49540SOL    HW250518   0.138   6.449   3.676
49541SOL     OW50519   3.170  13.894  10.146
49541SOL    HW150520   3.237  13.845  10.194
49541SOL    HW250521   3.119  13.938  10.214
49542SOL     OW50522   1.392   3.701  12.829
49542SOL    HW150523   1.403   3.793  12.804
49542SOL    HW250524   1.481   3.668  12.840
49543SOL     OW50525   6.102   2.730  12.044
49543SOL    HW150526   6.046   2.689  12.110
49543SOL    HW250527   6.045   2.742  11.968
49544SOL     OW50528   9.830   9.114   7.570
49544SOL    HW150529   9.875   9.088   7.650
49544SOL    HW250530   9.864   9.201   7.549
49545SOL     OW50531   6.173   0.922   5.718
49545SOL    HW150532   6.115   0.863   5.766
49545SOL    HW250533   6.229   0.961   5.784
49546SOL     OW50534  14.863  13.975   7.252
49546SOL    HW150535   0.058  14.027   7.282
49546SOL    HW250536   0.017  13.886   7.245
49547SOL     OW50537   5.092   9.226  13.885
49547SOL    HW150538   5.110   9.317  13.909
49547SOL    HW250539   5.166   9.201  13.830
49548SOL     OW50540  10.581   3.193   1.457
49548SOL    HW150541  10.615   3.146   1.381
49548SOL    HW250542  10.553   3.278   1.422
49549SOL     OW50543   3.954   4.993  13.966
49549SOL    HW150544   3.953   4.953  13.878
49549SOL    HW250545   3.861   5.006  13.987
49550SOL     OW50546   1.561   3.464  13.102
49550SOL    HW150547   1.604   3.476  13.018
49550SOL    HW250548   1.474   3.502  13.091
49551SOL     OW50549   4.166   2.622   3.868
49551SOL    HW150550   4.093   2.683   3.859
49551SOL    HW250551   4.206   2.645   3.952
49552SOL     OW50552   0.699   1.265   6.643
49552SOL    HW150553   0.771   1.273   6.581
49552SOL    HW250554   0.693   1.352   6.684
49553SOL     OW50555  10.902   7.116  12.100
49553SOL    HW150556  10.820   7.115  12.150
49553SOL    HW250557  10.889   7.049  12.033
49554SOL     OW50558   0.916   3.501   2.969
49554SOL    HW150559   0.883   3.421   2.928
49554SOL    HW250560   0.987   3.471   3.027
49555SOL     OW50561   2.792   9.992  12.325
49555SOL    HW150562   2.790  10.001  12.230
49555SOL    HW250563   2.766   9.901  12.341
49556SOL     OW50564  11.315   0.419   9.480
49556SOL    HW150565  11.247   0.391   9.541
49556SOL    HW250566  11.389   0.362   9.499
49557SOL     OW50567  14.617  10.330   7.761
49557SOL    HW150568  14.558  10.267   7.801
49557SOL    HW250569  14.601  10.412   7.809
49558SOL     OW50570  13.827   4.925   8.421
49558SOL    HW150571  13.853   4.983   8.350
49558SOL    HW250572  13.902   4.866   8.434
49559SOL     OW50573   8.131   0.310   7.846
49559SOL    HW150574   8.037   0.314   7.867
49559SOL    HW250575   8.134   0.319   7.751
49560SOL     OW50576   4.930  14.141   9.502
49560SOL    HW150577   4.860  14.206   9.512
49560SOL    HW250578   4.930  14.118   9.410
49561SOL     OW50579   8.096   3.470  10.070
49561SOL    HW150580   8.159   3.542  10.076
49561SOL    HW250581   8.065   3.472   9.980
49562SOL     OW50582   1.667  13.823   8.628
49562SOL    HW150583   1.722  13.791   8.699
49562SOL    HW250584   1.582  13.780   8.642
49563SOL     OW50585   3.911   6.762  14.031
49563SOL    HW150586   3.871   6.676  14.024
49563SOL    HW250587   3.890   6.806  13.948
49564SOL     OW50588   6.343  12.999  10.027
49564SOL    HW150589   6.370  13.060   9.959
49564SOL    HW250590   6.390  12.918  10.007
49565SOL     OW50591   5.279   1.841   2.580
49565SOL    HW150592   5.305   1.845   2.672
49565SOL    HW250593   5.356   1.807   2.535
49566SOL     OW50594   4.723   8.859   5.430
49566SOL    HW150595   4.714   8.921   5.503
49566SOL    HW250596   4.817   8.851   5.416
49567SOL     OW50597   9.450   2.418  14.460
49567SOL    HW150598   9.482   2.485  14.520
49567SOL    HW250599   9.528   2.371  14.431
49568SOL     OW50600  10.082   1.452   8.103
49568SOL    HW150601  10.067   1.410   8.187
49568SOL    HW250602  10.117   1.538   8.125
49569SOL     OW50603   3.531   5.001   6.886
49569SOL    HW150604   3.567   4.914   6.867
49569SOL    HW250605   3.506   4.996   6.978
49570SOL     OW50606   8.293   2.564   6.957
49570SOL    HW150607   8.373   2.616   6.961
49570SOL    HW250608   8.323   2.473   6.950
49571SOL     OW50609   6.576  10.675   0.050
49571SOL    HW150610   6.597  10.710   0.136
49571SOL    HW250611   6.500  10.725   0.021
49572SOL     OW50612   8.478   6.093   1.491
49572SOL    HW150613   8.469   6.157   1.420
49572SOL    HW250614   8.461   6.142   1.571
49573SOL     OW50615   2.535   4.286   8.329
49573SOL    HW150616   2.496   4.200   8.314
49573SOL    HW250617   2.468   4.334   8.379
49574SOL     OW50618   3.857   4.928   0.413
49574SOL    HW150619   3.916   4.907   0.340
49574SOL    HW250620   3.910   4.912   0.491
49575SOL     OW50621  10.429  14.483   8.609
49575SOL    HW150622  10.487  14.538   8.556
49575SOL    HW250623  10.349  14.477   8.557
49576SOL     OW50624   7.852  11.366   8.381
49576SOL    HW150625   7.858  11.306   8.307
49576SOL    HW250626   7.778  11.424   8.360
49577SOL     OW50627   6.998  11.691   1.007
49577SOL    HW150628   7.016  11.622   0.943
49577SOL    HW250629   7.049  11.766   0.977
49578SOL     OW50630  10.699   2.895  14.689
49578SOL    HW150631  10.773   2.889  14.749
49578SOL    HW250632  10.640   2.959  14.729
49579SOL     OW50633   4.553   2.376  10.089
49579SOL    HW150634   4.542   2.424  10.007
49579SOL    HW250635   4.470   2.332  10.103
49580SOL     OW50636   6.900  12.881   2.390
49580SOL    HW150637   6.912  12.935   2.312
49580SOL    HW250638   6.811  12.901   2.419
49581SOL     OW50639  11.066   6.858   4.348
49581SOL    HW150640  11.154   6.860   4.312
49581SOL    HW250641  11.009   6.846   4.273
49582SOL     OW50642  10.840   3.876  12.744
49582SOL    HW150643  10.898   3.948  12.767
49582SOL    HW250644  10.800   3.902  12.662
49583SOL     OW50645   1.232   0.846   5.430
49583SOL    HW150646   1.150   0.852   5.382
49583SOL    HW250647   1.297   0.885   5.371
49584SOL     OW50648  11.200   7.016  11.538
49584SOL    HW150649  11.212   6.978  11.451
49584SOL    HW250650  11.160   7.101  11.522
49585SOL     OW50651   2.002   3.216   1.822
49585SOL    HW150652   2.065   3.197   1.752
49585SOL    HW250653   1.917   3.216   1.777
49586SOL     OW50654   8.478  10.875  13.140
49586SOL    HW150655   8.390  10.910  13.145
49586SOL    HW250656   8.467  10.785  13.108
49587SOL     OW50657   7.720   2.680  11.854
49587SOL    HW150658   7.660   2.751  11.830
49587SOL    HW250659   7.708   2.670  11.949
49588SOL     OW50660   6.008   3.761   7.427
49588SOL    HW150661   5.957   3.836   7.459
49588SOL    HW250662   5.952   3.685   7.441
49589SOL     OW50663  13.846   0.059  13.710
49589SOL    HW150664  13.779   0.122  13.738
49589SOL    HW250665  13.804  14.854  13.718
49590SOL     OW50666   8.309   4.511  10.630
49590SOL    HW150667   8.224   4.478  10.600
49590SOL    HW250668   8.302   4.513  10.725
49591SOL     OW50669   2.038  13.438   4.807
49591SOL    HW150670   1.992  13.504   4.859
49591SOL    HW250671   2.086  13.386   4.871
49592SOL     OW50672  11.796  11.474   8.619
49592SOL    HW150673  11.750  11.479   8.702
49592SOL    HW250674  11.727  11.469   8.553
49593SOL     OW50675  13.025  10.540   8.476
49593SOL    HW150676  12.979  10.615   8.515
49593SOL    HW250677  12.996  10.539   8.385
49594SOL     OW50678   8.763  12.251  11.403
49594SOL    HW150679   8.733  12.160  11.401
49594SOL    HW250680   8.683  12.301  11.422
49595SOL     OW50681  11.105  12.214   0.828
49595SOL    HW150682  11.160  12.238   0.754
49595SOL    HW250683  11.111  12.288   0.888
49596SOL     OW50684   7.852   0.735   6.700
49596SOL    HW150685   7.880   0.665   6.759
49596SOL    HW250686   7.886   0.815   6.739
49597SOL     OW50687   8.476   4.653   0.053
49597SOL    HW150688   8.542   4.717   0.080
49597SOL    HW250689   8.519   4.568   0.064
49598SOL     OW50690   8.310   8.803   0.273
49598SOL    HW150691   8.337   8.751   0.197
49598SOL    HW250692   8.328   8.746   0.348
49599SOL     OW50693   3.977   5.000   2.600
49599SOL    HW150694   3.925   4.955   2.534
49599SOL    HW250695   4.065   5.007   2.562
49600SOL     OW50696  13.196  13.463   4.040
49600SOL    HW150697  13.276  13.440   3.992
49600SOL    HW250698  13.217  13.545   4.083
49601SOL     OW50699  13.251   8.616   8.183
49601SOL    HW150700  13.257   8.581   8.094
49601SOL    HW250701  13.213   8.703   8.173
49602SOL     OW50702  14.187   3.240  11.101
49602SOL    HW150703  14.194   3.266  11.193
49602SOL    HW250704  14.267   3.191  11.084
49603SOL     OW50705  11.558   5.316  10.919
49603SOL    HW150706  11.634   5.306  10.861
49603SOL    HW250707  11.592   5.364  10.994
49604SOL     OW50708   1.115   6.110   9.576
49604SOL    HW150709   1.123   6.038   9.638
49604SOL    HW250710   1.035   6.156   9.602
49605SOL     OW50711   6.885   0.622   1.779
49605SOL    HW150712   6.958   0.662   1.731
49605SOL    HW250713   6.899   0.528   1.771
49606SOL     OW50714  13.667   6.485  10.603
49606SOL    HW150715  13.722   6.549  10.558
49606SOL    HW250716  13.719   6.459  10.680
49607SOL     OW50717  12.926   2.675   3.418
49607SOL    HW150718  12.864   2.747   3.416
49607SOL    HW250719  12.992   2.702   3.482
49608SOL     OW50720   2.376   2.482   4.743
49608SOL    HW150721   2.360   2.570   4.777
49608SOL    HW250722   2.409   2.433   4.819
49609SOL     OW50723   2.408  10.605   1.330
49609SOL    HW150724   2.409  10.580   1.238
49609SOL    HW250725   2.432  10.698   1.330
49610SOL     OW50726   1.175   7.302   8.443
49610SOL    HW150727   1.249   7.358   8.417
49610SOL    HW250728   1.213   7.237   8.501
49611SOL     OW50729   8.756  11.123  13.426
49611SOL    HW150730   8.684  11.149  13.485
49611SOL    HW250731   8.790  11.042  13.464
49612SOL     OW50732   4.926   5.498   2.140
49612SOL    HW150733   4.960   5.540   2.061
49612SOL    HW250734   4.967   5.545   2.212
49613SOL     OW50735   3.785  12.254  10.002
49613SOL    HW150736   3.757  12.345   9.999
49613SOL    HW250737   3.750  12.215   9.922
49614SOL     OW50738   2.177   0.047   1.148
49614SOL    HW150739   2.109   0.113   1.134
49614SOL    HW250740   2.245   0.093   1.197
49615SOL     OW50741   9.117   3.497   2.076
49615SOL    HW150742   9.047   3.473   2.014
49615SOL    HW250743   9.108   3.592   2.086
49616SOL     OW50744   3.970   4.021   1.506
49616SOL    HW150745   3.913   4.054   1.574
49616SOL    HW250746   3.941   4.064   1.426
49617SOL     OW50747   5.748  11.591  13.692
49617SOL    HW150748   5.817  11.648  13.659
49617SOL    HW250749   5.780  11.502  13.673
49618SOL     OW50750   0.947   8.220  11.030
49618SOL    HW150751   1.010   8.148  11.021
49618SOL    HW250752   0.915   8.213  11.120
49619SOL     OW50753   9.576  11.386   5.040
49619SOL    HW150754   9.540  11.449   4.978
49619SOL    HW250755   9.597  11.309   4.986
49620SOL     OW50756   2.927   3.441  13.799
49620SOL    HW150757   2.867   3.367  13.811
49620SOL    HW250758   2.911   3.497  13.875
49621SOL     OW50759  13.135  11.428   4.670
49621SOL    HW150760  13.136  11.377   4.590
49621SOL    HW250761  13.146  11.364   4.740
49622SOL     OW50762   9.924   8.601  14.791
49622SOL    HW150763   9.931   8.580   0.003
49622SOL    HW250764   9.844   8.653  14.784
49623SOL     OW50765   9.908   1.106  10.138
49623SOL    HW150766   9.882   1.035  10.197
49623SOL    HW250767   9.867   1.084  10.055
49624SOL     OW50768   7.522   3.829  12.993
49624SOL    HW150769   7.529   3.734  12.994
49624SOL    HW250770   7.546   3.857  13.081
49625SOL     OW50771  10.246   3.124   9.270
49625SOL    HW150772  10.200   3.066   9.331
49625SOL    HW250773  10.326   3.149   9.316
49626SOL     OW50774   5.738  14.573   9.842
49626SOL    HW150775   5.797  14.534   9.907
49626SOL    HW250776   5.659  14.595   9.892
49627SOL     OW50777   4.493   0.694   9.021
49627SOL    HW150778   4.553   0.766   9.000
49627SOL    HW250779   4.414   0.713   8.970
49628SOL     OW50780  11.079   6.603  10.149
49628SOL    HW150781  11.002   6.606  10.206
49628SOL    HW250782  11.091   6.693  10.120
49629SOL     OW50783   3.667  13.703  10.276
49629SOL    HW150784   3.760  13.680  10.283
49629SOL    HW250785   3.625  13.656  10.348
49630SOL     OW50786   9.294   2.045  11.370
49630SOL    HW150787   9.214   2.006  11.404
49630SOL    HW250788   9.281   2.140  11.382
49631SOL     OW50789  12.479  12.258  11.775
49631SOL    HW150790  12.568  12.290  11.793
49631SOL    HW250791  12.460  12.291  11.687
49632SOL     OW50792   0.707  10.301   3.013
49632SOL    HW150793   0.630  10.302   3.070
49632SOL    HW250794   0.672  10.314   2.925
49633SOL     OW50795   8.540   5.872   7.807
49633SOL    HW150796   8.600   5.938   7.841
49633SOL    HW250797   8.491   5.842   7.884
49634SOL     OW50798   8.858   9.040   1.479
49634SOL    HW150799   8.853   9.131   1.450
49634SOL    HW250800   8.777   9.001   1.448
49635SOL     OW50801  10.565  11.051   1.721
49635SOL    HW150802  10.569  10.976   1.661
49635SOL    HW250803  10.491  11.032   1.779
49636SOL     OW50804  13.435   8.070   9.443
49636SOL    HW150805  13.363   8.122   9.407
49636SOL    HW250806  13.503   8.075   9.376
49637SOL     OW50807   3.494  14.044  11.999
49637SOL    HW150808   3.543  14.039  11.917
49637SOL    HW250809   3.490  13.953  12.030
49638SOL     OW50810  14.151  10.392   8.554
49638SOL    HW150811  14.076  10.343   8.588
49638SOL    HW250812  14.198  10.420   8.633
49639SOL     OW50813  10.264   5.327   6.069
49639SOL    HW150814  10.209   5.252   6.092
49639SOL    HW250815  10.323   5.293   6.001
49640SOL     OW50816   5.566  13.067   0.679
49640SOL    HW150817   5.658  13.069   0.704
49640SOL    HW250818   5.554  12.981   0.639
49641SOL     OW50819   9.629   2.637   0.114
49641SOL    HW150820   9.608   2.566   0.053
49641SOL    HW250821   9.583   2.613   0.195
49642SOL     OW50822   2.397   7.649   3.814
49642SOL    HW150823   2.314   7.647   3.766
49642SOL    HW250824   2.386   7.583   3.883
49643SOL     OW50825   5.315  13.625   0.993
49643SOL    HW150826   5.330  13.539   1.031
49643SOL    HW250827   5.335  13.613   0.900
49644SOL     OW50828   6.563  14.437  12.467
49644SOL    HW150829   6.629  14.460  12.401
49644SOL    HW250830   6.587  14.350  12.496
49645SOL     OW50831  13.564  10.921   4.501
49645SOL    HW150832  13.573  10.960   4.588
49645SOL    HW250833  13.625  10.848   4.500
49646SOL     OW50834   7.785   7.525  10.236
49646SOL    HW150835   7.691   7.510  10.234
49646SOL    HW250836   7.823   7.440  10.260
49647SOL     OW50837   5.107   8.538  14.320
49647SOL    HW150838   5.024   8.570  14.285
49647SOL    HW250839   5.168   8.611  14.310
49648SOL     OW50840   3.590   3.100  10.475
49648SOL    HW150841   3.548   3.071  10.394
49648SOL    HW250842   3.521   3.096  10.541
49649SOL     OW50843   8.413   9.251  14.435
49649SOL    HW150844   8.506   9.240  14.456
49649SOL    HW250845   8.401   9.345  14.429
49650SOL     OW50846   9.181  14.332  12.241
49650SOL    HW150847   9.192  14.306  12.333
49650SOL    HW250848   9.197  14.426  12.241
49651SOL     OW50849  12.164   3.842  12.521
49651SOL    HW150850  12.112   3.797  12.587
49651SOL    HW250851  12.121   3.820  12.438
49652SOL     OW50852  12.995   6.714   6.542
49652SOL    HW150853  13.019   6.803   6.569
49652SOL    HW250854  13.061   6.658   6.584
49653SOL     OW50855   2.557   0.178   4.775
49653SOL    HW150856   2.489   0.234   4.814
49653SOL    HW250857   2.639   0.212   4.811
49654SOL     OW50858   4.721   9.160   4.957
49654SOL    HW150859   4.763   9.132   5.038
49654SOL    HW250860   4.636   9.194   4.984
49655SOL     OW50861   9.504   8.372  11.838
49655SOL    HW150862   9.499   8.305  11.770
49655SOL    HW250863   9.570   8.340  11.899
49656SOL     OW50864  10.802   6.682  11.728
49656SOL    HW150865  10.804   6.618  11.657
49656SOL    HW250866  10.772   6.763  11.688
49657SOL     OW50867   8.842   3.763   0.187
49657SOL    HW150868   8.789   3.724   0.117
49657SOL    HW250869   8.916   3.803   0.141
49658SOL     OW50870   8.763  12.602   6.845
49658SOL    HW150871   8.672  12.633   6.852
49658SOL    HW250872   8.809  12.648   6.915
49659SOL     OW50873   9.201   7.290   1.291
49659SOL    HW150874   9.138   7.222   1.269
49659SOL    HW250875   9.287   7.248   1.277
49660SOL     OW50876   1.791  11.754   5.191
49660SOL    HW150877   1.750  11.668   5.195
49660SOL    HW250878   1.729  11.808   5.142
49661SOL     OW50879   9.415   8.903   6.547
49661SOL    HW150880   9.507   8.896   6.522
49661SOL    HW250881   9.412   8.972   6.613
49662SOL     OW50882   1.527   4.142   4.342
49662SOL    HW150883   1.551   4.139   4.435
49662SOL    HW250884   1.438   4.176   4.341
49663SOL     OW50885   9.861   4.505  13.331
49663SOL    HW150886   9.956   4.504  13.327
49663SOL    HW250887   9.836   4.592  13.299
49664SOL     OW50888   1.359  10.979  10.054
49664SOL    HW150889   1.360  11.034  10.133
49664SOL    HW250890   1.300  10.907  10.075
49665SOL     OW50891   5.590   0.729   8.720
49665SOL    HW150892   5.528   0.662   8.749
49665SOL    HW250893   5.536   0.795   8.677
49666SOL     OW50894  13.617   4.270   6.330
49666SOL    HW150895  13.690   4.321   6.365
49666SOL    HW250896  13.646   4.179   6.336
49667SOL     OW50897   7.318  10.860   4.989
49667SOL    HW150898   7.286  10.770   5.000
49667SOL    HW250899   7.342  10.888   5.077
49668SOL     OW50900   0.548   8.007  11.228
49668SOL    HW150901   0.633   7.976  11.258
49668SOL    HW250902   0.484   7.960  11.281
49669SOL     OW50903   0.092   1.619  10.531
49669SOL    HW150904   0.021   1.672  10.496
49669SOL    HW250905   0.149   1.602  10.455
49670SOL     OW50906   3.515   2.300   2.062
49670SOL    HW150907   3.474   2.217   2.088
49670SOL    HW250908   3.481   2.364   2.125
49671SOL     OW50909   4.720  12.235  13.426
49671SOL    HW150910   4.752  12.145  13.414
49671SOL    HW250911   4.782  12.289  13.375
49672SOL     OW50912   3.326   0.685   7.094
49672SOL    HW150913   3.298   0.669   7.004
49672SOL    HW250914   3.359   0.600   7.124
49673SOL     OW50915  14.802   5.368   0.637
49673SOL    HW150916  14.749   5.293   0.609
49673SOL    HW250917   0.012   5.338   0.628
49674SOL     OW50918  13.847   5.153  12.646
49674SOL    HW150919  13.859   5.220  12.578
49674SOL    HW250920  13.789   5.194  12.710
49675SOL     OW50921   1.968   4.545   3.851
49675SOL    HW150922   1.993   4.473   3.910
49675SOL    HW250923   1.876   4.529   3.831
49676SOL     OW50924   4.541  12.369  14.764
49676SOL    HW150925   4.494  12.432  14.819
49676SOL    HW250926   4.575  12.304  14.825
49677SOL     OW50927   7.804   8.459   3.756
49677SOL    HW150928   7.881   8.403   3.761
49677SOL    HW250929   7.836   8.541   3.720
49678SOL     OW50930  11.980   4.505   5.621
49678SOL    HW150931  11.983   4.533   5.530
49678SOL    HW250932  11.918   4.432   5.621
49679SOL     OW50933   1.477  10.526   2.570
49679SOL    HW150934   1.497  10.619   2.569
49679SOL    HW250935   1.527  10.490   2.643
49680SOL     OW50936   4.551   8.155   6.013
49680SOL    HW150937   4.545   8.061   5.996
49680SOL    HW250938   4.462   8.180   6.036
49681SOL     OW50939   9.129   2.366   6.794
49681SOL    HW150940   9.135   2.462   6.793
49681SOL    HW250941   9.063   2.345   6.728
49682SOL     OW50942   8.784   6.088   1.787
49682SOL    HW150943   8.776   6.161   1.726
49682SOL    HW250944   8.704   6.090   1.839
49683SOL     OW50945  14.052  14.778  12.180
49683SOL    HW150946  14.003  14.705  12.216
49683SOL    HW250947  14.143  14.747  12.178
49684SOL     OW50948   9.392   1.848   8.245
49684SOL    HW150949   9.474   1.806   8.219
49684SOL    HW250950   9.361   1.795   8.318
49685SOL     OW50951   5.545  14.781   3.293
49685SOL    HW150952   5.484  14.784   3.367
49685SOL    HW250953   5.628  14.811   3.329
49686SOL     OW50954   9.835   5.283   1.937
49686SOL    HW150955   9.920   5.259   1.975
49686SOL    HW250956   9.856   5.310   1.848
49687SOL     OW50957   7.528   6.397  10.686
49687SOL    HW150958   7.477   6.442  10.619
49687SOL    HW250959   7.464   6.364  10.748
49688SOL     OW50960   7.833  11.202  12.128
49688SOL    HW150961   7.865  11.154  12.205
49688SOL    HW250962   7.759  11.253  12.160
49689SOL     OW50963   0.820  11.040   4.299
49689SOL    HW150964   0.855  11.090   4.373
49689SOL    HW250965   0.725  11.038   4.314
49690SOL     OW50966  13.512   5.405   6.710
49690SOL    HW150967  13.562   5.343   6.763
49690SOL    HW250968  13.453   5.350   6.658
49691SOL     OW50969   1.264  14.205   6.588
49691SOL    HW150970   1.285  14.295   6.564
49691SOL    HW250971   1.168  14.205   6.597
49692SOL     OW50972   2.637  14.108   0.502
49692SOL    HW150973   2.707  14.053   0.467
49692SOL    HW250974   2.565  14.047   0.521
49693SOL     OW50975   3.715   7.334   2.747
49693SOL    HW150976   3.645   7.380   2.700
49693SOL    HW250977   3.791   7.391   2.739
49694SOL     OW50978   4.198   9.481  13.616
49694SOL    HW150979   4.120   9.524  13.650
49694SOL    HW250980   4.174   9.388  13.613
49695SOL     OW50981  12.641   8.863   2.847
49695SOL    HW150982  12.717   8.828   2.895
49695SOL    HW250983  12.643   8.818   2.763
49696SOL     OW50984  14.306  13.180  11.829
49696SOL    HW150985  14.219  13.165  11.794
49696SOL    HW250986  14.307  13.273  11.853
49697SOL     OW50987   8.550   2.507   8.610
49697SOL    HW150988   8.610   2.436   8.589
49697SOL    HW250989   8.608   2.583   8.625
49698SOL     OW50990   4.856   1.420  14.685
49698SOL    HW150991   4.792   1.466  14.630
49698SOL    HW250992   4.852   1.465  14.770
49699SOL     OW50993   6.937  10.126  14.698
49699SOL    HW150994   6.884  10.058  14.740
49699SOL    HW250995   7.028  10.102  14.718
49700SOL     OW50996  10.170   7.944   2.301
49700SOL    HW150997  10.218   7.970   2.380
49700SOL    HW250998  10.222   7.978   2.229
49701SOL     OW50999   9.643  11.249   0.648
49701SOL    HW151000   9.578  11.233   0.717
49701SOL    HW251001   9.673  11.161   0.624
49702SOL     OW51002  14.700   2.288   0.346
49702SOL    HW151003  14.764   2.235   0.298
49702SOL    HW251004  14.654   2.337   0.277
49703SOL     OW51005   9.633  10.601   3.578
49703SOL    HW151006   9.690  10.676   3.564
49703SOL    HW251007   9.664  10.561   3.659
49704SOL     OW51008   5.444  11.728   8.004
49704SOL    HW151009   5.425  11.783   8.080
49704SOL    HW251010   5.536  11.744   7.984
49705SOL     OW51011   1.963   2.301  11.037
49705SOL    HW151012   1.902   2.279  10.966
49705SOL    HW251013   1.973   2.220  11.086
49706SOL     OW51014   1.264   2.063   6.374
49706SOL    HW151015   1.337   2.101   6.325
49706SOL    HW251016   1.188   2.077   6.317
49707SOL     OW51017   3.096   0.484   1.086
49707SOL    HW151018   3.016   0.435   1.065
49707SOL    HW251019   3.155   0.467   1.012
49708SOL     OW51020   8.539  10.422   8.609
49708SOL    HW151021   8.575  10.345   8.566
49708SOL    HW251022   8.545  10.403   8.702
49709SOL     OW51023  10.864  11.209   9.645
49709SOL    HW151024  10.914  11.161   9.578
49709SOL    HW251025  10.773  11.197   9.620
49710SOL     OW51026   5.098  12.644   3.055
49710SOL    HW151027   5.018  12.697   3.052
49710SOL    HW251028   5.169  12.707   3.069
49711SOL     OW51029   3.899  14.153  11.678
49711SOL    HW151030   3.816  14.201  11.686
49711SOL    HW251031   3.927  14.140  11.769
49712SOL     OW51032   0.901   0.619   4.698
49712SOL    HW151033   0.821   0.583   4.658
49712SOL    HW251034   0.886   0.714   4.699
49713SOL     OW51035   8.066  13.795   4.953
49713SOL    HW151036   8.018  13.852   4.893
49713SOL    HW251037   8.014  13.715   4.958
49714SOL     OW51038  11.536  11.310   6.227
49714SOL    HW151039  11.445  11.284   6.211
49714SOL    HW251040  11.532  11.405   6.239
49715SOL     OW51041   4.484   9.973  10.065
49715SOL    HW151042   4.449   9.886  10.048
49715SOL    HW251043   4.421  10.033  10.026
49716SOL     OW51044   8.031   2.217   7.582
49716SOL    HW151045   7.986   2.244   7.502
49716SOL    HW251046   8.006   2.282   7.647
49717SOL     OW51047   2.660  12.397   3.049
49717SOL    HW151048   2.584  12.354   3.086
49717SOL    HW251049   2.682  12.466   3.112
49718SOL     OW51050  13.815  10.743   6.477
49718SOL    HW151051  13.861  10.670   6.516
49718SOL    HW251052  13.808  10.720   6.384
49719SOL     OW51053   6.388   3.229   6.043
49719SOL    HW151054   6.360   3.140   6.020
49719SOL    HW251055   6.308   3.281   6.038
49720SOL     OW51056   2.229   2.461   0.217
49720SOL    HW151057   2.235   2.526   0.286
49720SOL    HW251058   2.157   2.404   0.244
49721SOL     OW51059  10.474   2.987   9.035
49721SOL    HW151060  10.444   3.065   8.988
49721SOL    HW251061  10.426   2.915   8.995
49722SOL     OW51062  13.105  10.101  12.047
49722SOL    HW151063  13.056  10.101  11.965
49722SOL    HW251064  13.193  10.130  12.023
49723SOL     OW51065   0.982   3.924  12.486
49723SOL    HW151066   1.073   3.924  12.456
49723SOL    HW251067   0.981   3.985  12.560
49724SOL     OW51068  11.468  13.466   9.054
49724SOL    HW151069  11.451  13.372   9.061
49724SOL    HW251070  11.556  13.477   9.088
49725SOL     OW51071  14.877  11.062   7.268
49725SOL    HW151072  14.861  10.991   7.331
49725SOL    HW251073   0.091  11.061   7.254
49726SOL     OW51074   7.245   4.622   6.319
49726SOL    HW151075   7.260   4.617   6.225
49726SOL    HW251076   7.288   4.704   6.346
49727SOL     OW51077  11.877   0.074  12.235
49727SOL    HW151078  11.832  14.876  12.203
49727SOL    HW251079  11.878   0.134  12.160
49728SOL     OW51080   5.964  13.090   4.946
49728SOL    HW151081   5.991  13.073   5.036
49728SOL    HW251082   5.935  13.005   4.912
49729SOL     OW51083   9.778   7.773  10.568
49729SOL    HW151084   9.847   7.708  10.555
49729SOL    HW251085   9.707   7.745  10.510
49730SOL     OW51086  14.359   1.100  11.827
49730SOL    HW151087  14.400   1.044  11.893
49730SOL    HW251088  14.417   1.092  11.750
49731SOL     OW51089  14.486   3.659   1.392
49731SOL    HW151090  14.569   3.689   1.356
49731SOL    HW251091  14.501   3.653   1.487
49732SOL     OW51092   6.621   5.030   2.248
49732SOL    HW151093   6.674   5.003   2.173
49732SOL    HW251094   6.677   5.012   2.324
49733SOL     OW51095   2.115  11.737  11.756
49733SOL    HW151096   2.051  11.729  11.826
49733SOL    HW251097   2.180  11.799  11.790
49734SOL     OW51098   7.994  13.759   0.864
49734SOL    HW151099   7.954  13.816   0.930
49734SOL    HW251100   8.086  13.754   0.888
49735SOL     OW51101   5.303  12.326  14.732
49735SOL    HW151102   5.253  12.268  14.790
49735SOL    HW251103   5.295  12.285  14.646
49736SOL     OW51104   6.540   1.431  14.530
49736SOL    HW151105   6.556   1.523  14.552
49736SOL    HW251106   6.592   1.416  14.451
49737SOL     OW51107  12.603  13.831  10.217
49737SOL    HW151108  12.532  13.870  10.269
49737SOL    HW251109  12.563  13.815  10.131
49738SOL     OW51110  14.138  12.761   2.582
49738SOL    HW151111  14.176  12.844   2.611
49738SOL    HW251112  14.213  12.702   2.576
49739SOL     OW51113   7.827   2.087   3.801
49739SOL    HW151114   7.902   2.042   3.762
49739SOL    HW251115   7.866   2.162   3.847
49740SOL     OW51116   2.709  10.545  12.340
49740SOL    HW151117   2.625  10.552  12.386
49740SOL    HW251118   2.687  10.509  12.254
49741SOL     OW51119   1.511   6.849  11.866
49741SOL    HW151120   1.603   6.823  11.871
49741SOL    HW251121   1.506   6.905  11.789
49742SOL     OW51122   8.310  11.658  13.163
49742SOL    HW151123   8.318  11.600  13.087
49742SOL    HW251124   8.376  11.627  13.224
49743SOL     OW51125  10.029  10.913  11.281
49743SOL    HW151126  10.020  10.953  11.195
49743SOL    HW251127  10.049  10.821  11.263
49744SOL     OW51128   1.356   0.110  14.319
49744SOL    HW151129   1.271   0.101  14.276
49744SOL    HW251130   1.410   0.041  14.280
49745SOL     OW51131  11.665   7.289  13.791
49745SOL    HW151132  11.736   7.342  13.827
49745SOL    HW251133  11.643   7.332  13.708
49746SOL     OW51134  12.827   6.600   9.286
49746SOL    HW151135  12.883   6.531   9.250
49746SOL    HW251136  12.855   6.609   9.377
49747SOL     OW51137   4.824   7.018  13.750
49747SOL    HW151138   4.912   7.041  13.718
49747SOL    HW251139   4.765   7.057  13.686
49748SOL     OW51140   2.457   0.654   6.234
49748SOL    HW151141   2.457   0.750   6.236
49748SOL    HW251142   2.367   0.630   6.214
49749SOL     OW51143   2.049   6.071  14.850
49749SOL    HW151144   2.145   6.078  14.845
49749SOL    HW251145   2.026   6.008  14.782
49750SOL     OW51146   7.546   3.372   5.484
49750SOL    HW151147   7.458   3.406   5.468
49750SOL    HW251148   7.567   3.400   5.573
49751SOL     OW51149   6.743  11.910   1.026
49751SOL    HW151150   6.689  11.831   1.026
49751SOL    HW251151   6.820  11.887   0.974
49752SOL     OW51152  13.837   9.699   5.860
49752SOL    HW151153  13.814   9.754   5.784
49752SOL    HW251154  13.892   9.630   5.823
49753SOL     OW51155   6.414   3.681   2.626
49753SOL    HW151156   6.358   3.623   2.676
49753SOL    HW251157   6.406   3.652   2.535
49754SOL     OW51158   7.682  13.284   8.734
49754SOL    HW151159   7.738  13.293   8.656
49754SOL    HW251160   7.608  13.342   8.718
49755SOL     OW51161   0.076  13.330   8.946
49755SOL    HW151162   0.066  13.242   8.910
49755SOL    HW251163   0.031  13.387   8.883
49756SOL     OW51164   2.239   9.322  12.104
49756SOL    HW151165   2.207   9.342  12.016
49756SOL    HW251166   2.172   9.359  12.162
49757SOL     OW51167  13.016   2.853   3.634
49757SOL    HW151168  13.033   2.786   3.700
49757SOL    HW251169  12.959   2.917   3.677
49758SOL     OW51170  12.305   5.056   8.701
49758SOL    HW151171  12.269   5.011   8.625
49758SOL    HW251172  12.400   5.047   8.691
49759SOL     OW51173   4.014   4.448   7.049
49759SOL    HW151174   4.082   4.514   7.035
49759SOL    HW251175   3.942   4.495   7.090
49760SOL     OW51176   6.419  10.723   5.884
49760SOL    HW151177   6.431  10.818   5.890
49760SOL    HW251178   6.343  10.705   5.939
49761SOL     OW51179   5.463  10.399   1.631
49761SOL    HW151180   5.540  10.393   1.574
49761SOL    HW251181   5.433  10.309   1.641
49762SOL     OW51182   1.634   8.202   4.398
49762SOL    HW151183   1.577   8.265   4.441
49762SOL    HW251184   1.665   8.146   4.469
49763SOL     OW51185   8.433  13.498   8.843
49763SOL    HW151186   8.507  13.445   8.812
49763SOL    HW251187   8.398  13.448   8.917
49764SOL     OW51188   1.022   5.215  14.315
49764SOL    HW151189   1.086   5.196  14.246
49764SOL    HW251190   1.029   5.309  14.329
49765SOL     OW51191  13.006   1.025   0.821
49765SOL    HW151192  13.096   0.994   0.822
49765SOL    HW251193  13.006   1.098   0.759
49766SOL     OW51194   0.582  10.886   5.066
49766SOL    HW151195   0.612  10.895   5.157
49766SOL    HW251196   0.591  10.793   5.047
49767SOL     OW51197   4.207   0.499   9.721
49767SOL    HW151198   4.293   0.486   9.682
49767SOL    HW251199   4.168   0.571   9.672
49768SOL     OW51200   2.321  14.206   9.969
49768SOL    HW151201   2.403  14.221  10.017
49768SOL    HW251202   2.348  14.204   9.877
49769SOL     OW51203  10.257   1.560   5.815
49769SOL    HW151204  10.188   1.506   5.855
49769SOL    HW251205  10.216   1.595   5.736
49770SOL     OW51206  14.118  11.993   9.281
49770SOL    HW151207  14.184  12.060   9.301
49770SOL    HW251208  14.131  11.926   9.349
49771SOL     OW51209   2.073   0.925   3.513
49771SOL    HW151210   2.047   0.939   3.421
49771SOL    HW251211   2.084   0.831   3.520
49772SOL     OW51212   4.336   5.926   3.649
49772SOL    HW151213   4.352   5.832   3.650
49772SOL    HW251214   4.264   5.938   3.711
49773SOL     OW51215  13.174   2.236   7.828
49773SOL    HW151216  13.108   2.183   7.783
49773SOL    HW251217  13.152   2.228   7.920
49774SOL     OW51218   4.944   9.534   6.854
49774SOL    HW151219   5.035   9.506   6.848
49774SOL    HW251220   4.941   9.590   6.932
49775SOL     OW51221  10.812   2.201   3.768
49775SOL    HW151222  10.805   2.114   3.808
49775SOL    HW251223  10.723   2.219   3.735
49776SOL     OW51224  13.505   8.243   2.182
49776SOL    HW151225  13.556   8.191   2.119
49776SOL    HW251226  13.428   8.189   2.199
49777SOL     OW51227   7.331   4.344   2.956
49777SOL    HW151228   7.303   4.253   2.954
49777SOL    HW251229   7.398   4.350   2.887
49778SOL     OW51230  10.097   2.616   1.879
49778SOL    HW151231  10.021   2.640   1.931
49778SOL    HW251232  10.115   2.692   1.824
49779SOL     OW51233  10.453  12.540   8.200
49779SOL    HW151234  10.394  12.614   8.204
49779SOL    HW251235  10.420  12.478   8.265
49780SOL     OW51236   1.626   7.305   3.688
49780SOL    HW151237   1.698   7.273   3.634
49780SOL    HW251238   1.648   7.278   3.777
49781SOL     OW51239   9.435  13.828  11.891
49781SOL    HW151240   9.371  13.757  11.881
49781SOL    HW251241   9.432  13.875  11.808
49782SOL     OW51242   2.699   4.003   3.747
49782SOL    HW151243   2.739   4.090   3.738
49782SOL    HW251244   2.644   3.995   3.669
49783SOL     OW51245   6.212   1.740   0.179
49783SOL    HW151246   6.227   1.657   0.224
49783SOL    HW251247   6.276   1.741   0.107
49784SOL     OW51248  10.776   9.974   8.327
49784SOL    HW151249  10.758   9.946   8.416
49784SOL    HW251250  10.804   9.895   8.281
49785SOL     OW51251   3.353  10.546  13.989
49785SOL    HW151252   3.281  10.544  14.052
49785SOL    HW251253   3.329  10.480  13.923
49786SOL     OW51254   1.412   7.776  10.227
49786SOL    HW151255   1.473   7.824  10.171
49786SOL    HW251256   1.328   7.780  10.181
49787SOL     OW51257   7.485  14.386   0.298
49787SOL    HW151258   7.503  14.331   0.223
49787SOL    HW251259   7.460  14.325   0.368
49788SOL     OW51260  13.612  14.142  13.647
49788SOL    HW151261  13.601  14.204  13.575
49788SOL    HW251262  13.551  14.173  13.715
49789SOL     OW51263  12.891   7.584   5.825
49789SOL    HW151264  12.848   7.652   5.773
49789SOL    HW251265  12.826   7.559   5.891
49790SOL     OW51266   4.198  11.617   6.363
49790SOL    HW151267   4.185  11.607   6.269
49790SOL    HW251268   4.131  11.680   6.390
49791SOL     OW51269   9.960  14.042   2.431
49791SOL    HW151270   9.959  13.948   2.410
49791SOL    HW251271   9.908  14.049   2.511
49792SOL     OW51272   5.333  10.212  13.558
49792SOL    HW151273   5.380  10.247  13.483
49792SOL    HW251274   5.375  10.253  13.634
49793SOL     OW51275   6.085   5.823   8.199
49793SOL    HW151276   6.174   5.792   8.182
49793SOL    HW251277   6.082   5.910   8.159
49794SOL     OW51278   5.883  11.016   7.401
49794SOL    HW151279   5.824  10.956   7.356
49794SOL    HW251280   5.826  11.082   7.440
49795SOL     OW51281  14.115  13.536   8.508
49795SOL    HW151282  14.188  13.475   8.519
49795SOL    HW251283  14.037  13.482   8.512
49796SOL     OW51284   6.026   4.047  12.561
49796SOL    HW151285   6.046   4.135  12.593
49796SOL    HW251286   6.068   4.042  12.475
49797SOL     OW51287   1.440   4.589   5.734
49797SOL    HW151288   1.500   4.528   5.691
49797SOL    HW251289   1.396   4.634   5.662
49798SOL     OW51290  13.837   2.032  11.404
49798SOL    HW151291  13.782   1.960  11.372
49798SOL    HW251292  13.889   2.059  11.329
49799SOL     OW51293  10.622   2.806  12.197
49799SOL    HW151294  10.575   2.790  12.115
49799SOL    HW251295  10.561   2.857  12.250
49800SOL     OW51296   9.264  11.133   4.637
49800SOL    HW151297   9.341  11.185   4.660
49800SOL    HW251298   9.215  11.187   4.575
49801SOL     OW51299   6.768   5.831  12.558
49801SOL    HW151300   6.688   5.876  12.530
49801SOL    HW251301   6.774   5.756  12.499
49802SOL     OW51302  12.176  12.722   7.723
49802SOL    HW151303  12.233  12.754   7.793
49802SOL    HW251304  12.230  12.658   7.676
49803SOL     OW51305   2.209  11.469   6.382
49803SOL    HW151306   2.210  11.394   6.441
49803SOL    HW251307   2.301  11.495   6.375
49804SOL     OW51308   8.066  10.348  10.265
49804SOL    HW151309   8.137  10.337  10.328
49804SOL    HW251310   8.055  10.443  10.258
49805SOL     OW51311   1.653  13.720  13.661
49805SOL    HW151312   1.724  13.676  13.614
49805SOL    HW251313   1.693  13.751  13.742
49806SOL     OW51314   0.820   9.509   5.368
49806SOL    HW151315   0.767   9.569   5.419
49806SOL    HW251316   0.909   9.520   5.402
49807SOL     OW51317   2.209  11.195   3.945
49807SOL    HW151318   2.204  11.167   3.853
49807SOL    HW251319   2.303  11.199   3.963
49808SOL     OW51320   8.780  11.955  12.723
49808SOL    HW151321   8.808  11.867  12.697
49808SOL    HW251322   8.707  11.975  12.664
49809SOL     OW51323   3.372  12.386  10.340
49809SOL    HW151324   3.386  12.299  10.378
49809SOL    HW251325   3.305  12.426  10.396
49810SOL     OW51326   7.168   7.950   2.514
49810SOL    HW151327   7.168   8.041   2.485
49810SOL    HW251328   7.089   7.941   2.567
49811SOL     OW51329   1.538   4.993   1.737
49811SOL    HW151330   1.492   4.944   1.670
49811SOL    HW251331   1.611   5.034   1.691
49812SOL     OW51332   8.860   8.680   2.450
49812SOL    HW151333   8.890   8.592   2.428
49812SOL    HW251334   8.935   8.720   2.494
49813SOL     OW51335   6.455   4.954   8.091
49813SOL    HW151336   6.519   5.024   8.095
49813SOL    HW251337   6.423   4.955   8.001
49814SOL     OW51338   7.944  14.441   5.865
49814SOL    HW151339   8.006  14.385   5.911
49814SOL    HW251340   7.991  14.523   5.851
49815SOL     OW51341   4.727   6.402  13.706
49815SOL    HW151342   4.736   6.495  13.729
49815SOL    HW251343   4.794   6.387  13.640
49816SOL     OW51344  13.526  13.004  13.704
49816SOL    HW151345  13.489  13.069  13.644
49816SOL    HW251346  13.492  13.029  13.790
49817SOL     OW51347   9.644   7.182   1.212
49817SOL    HW151348   9.722   7.238   1.213
49817SOL    HW251349   9.646   7.139   1.126
49818SOL     OW51350   4.920   6.472  10.163
49818SOL    HW151351   4.868   6.406  10.117
49818SOL    HW251352   4.902   6.457  10.256
49819SOL     OW51353   2.768   2.362   1.270
49819SOL    HW151354   2.759   2.328   1.359
49819SOL    HW251355   2.751   2.286   1.214
49820SOL     OW51356  10.499  11.711   3.358
49820SOL    HW151357  10.429  11.740   3.299
49820SOL    HW251358  10.500  11.616   3.349
49821SOL     OW51359   8.667   0.581   9.803
49821SOL    HW151360   8.660   0.488   9.780
49821SOL    HW251361   8.756   0.606   9.776
49822SOL     OW51362   9.192   3.254   3.754
49822SOL    HW151363   9.123   3.225   3.814
49822SOL    HW251364   9.274   3.240   3.803
49823SOL     OW51365   8.726   8.937   6.908
49823SOL    HW151366   8.729   8.871   6.977
49823SOL    HW251367   8.742   8.889   6.827
49824SOL     OW51368  14.040   5.370   2.449
49824SOL    HW151369  14.027   5.280   2.478
49824SOL    HW251370  14.131   5.390   2.474
49825SOL     OW51371   7.184  11.253   9.154
49825SOL    HW151372   7.234  11.322   9.110
49825SOL    HW251373   7.250  11.186   9.173
49826SOL     OW51374   0.530  10.168  12.921
49826SOL    HW151375   0.476  10.220  12.861
49826SOL    HW251376   0.616  10.166  12.878
49827SOL     OW51377   1.509   0.567   1.068
49827SOL    HW151378   1.530   0.610   1.151
49827SOL    HW251379   1.474   0.482   1.093
49828SOL     OW51380  11.589   1.474  13.610
49828SOL    HW151381  11.564   1.435  13.693
49828SOL    HW251382  11.591   1.401  13.548
49829SOL     OW51383   7.784  11.224   0.278
49829SOL    HW151384   7.710  11.253   0.224
49829SOL    HW251385   7.749  11.153   0.331
49830SOL     OW51386   9.024   8.018   6.248
49830SOL    HW151387   9.036   8.106   6.286
49830SOL    HW251388   9.111   7.977   6.256
49831SOL     OW51389   0.558   1.207   8.728
49831SOL    HW151390   0.625   1.199   8.659
49831SOL    HW251391   0.479   1.171   8.688
49832SOL     OW51392  14.050   0.240  10.269
49832SOL    HW151393  14.072   0.163  10.216
49832SOL    HW251394  14.058   0.209  10.359
49833SOL     OW51395   7.388   5.683   8.231
49833SOL    HW151396   7.443   5.753   8.267
49833SOL    HW251397   7.340   5.725   8.159
49834SOL     OW51398  13.150   1.046  14.781
49834SOL    HW151399  13.082   0.979  14.786
49834SOL    HW251400  13.121   1.104  14.710
49835SOL     OW51401   2.770  13.342  10.389
49835SOL    HW151402   2.859  13.321  10.363
49835SOL    HW251403   2.746  13.419  10.338
49836SOL     OW51404  12.273  11.711   5.699
49836SOL    HW151405  12.341  11.763   5.656
49836SOL    HW251406  12.197  11.719   5.641
49837SOL     OW51407  13.340  14.202   8.815
49837SOL    HW151408  13.263  14.240   8.858
49837SOL    HW251409  13.411  14.263   8.834
49838SOL     OW51410   4.750   9.020   1.167
49838SOL    HW151411   4.778   8.984   1.252
49838SOL    HW251412   4.659   9.045   1.181
49839SOL     OW51413  13.313   2.355  13.592
49839SOL    HW151414  13.270   2.327  13.673
49839SOL    HW251415  13.392   2.301  13.587
49840SOL     OW51416  12.714   7.130   0.470
49840SOL    HW151417  12.784   7.190   0.445
49840SOL    HW251418  12.760   7.052   0.502
49841SOL     OW51419   8.078   1.790   8.899
49841SOL    HW151420   7.999   1.833   8.864
49841SOL    HW251421   8.147   1.815   8.839
49842SOL     OW51422   5.325  14.269  11.530
49842SOL    HW151423   5.250  14.280  11.588
49842SOL    HW251424   5.320  14.342  11.469
49843SOL     OW51425  13.135   4.843   9.433
49843SOL    HW151426  13.161   4.768   9.380
49843SOL    HW251427  13.078   4.806   9.500
49844SOL     OW51428   7.501   4.344  12.002
49844SOL    HW151429   7.512   4.249  12.003
49844SOL    HW251430   7.446   4.361  11.926
49845SOL     OW51431  10.968  13.544   1.034
49845SOL    HW151432  10.881  13.517   1.064
49845SOL    HW251433  11.001  13.600   1.104
49846SOL     OW51434   6.046   8.241   9.772
49846SOL    HW151435   6.095   8.163   9.800
49846SOL    HW251436   6.109   8.312   9.779
49847SOL     OW51437   8.549  11.790   3.162
49847SOL    HW151438   8.496  11.870   3.171
49847SOL    HW251439   8.638  11.822   3.150
49848SOL     OW51440  10.749   9.168  14.046
49848SOL    HW151441  10.742   9.074  14.060
49848SOL    HW251442  10.801   9.200  14.120
49849SOL     OW51443   5.583   8.455   7.069
49849SOL    HW151444   5.647   8.482   7.003
49849SOL    HW251445   5.512   8.518   7.061
49850SOL     OW51446   5.852  11.055   0.265
49850SOL    HW151447   5.837  11.076   0.173
49850SOL    HW251448   5.933  11.003   0.264
49851SOL     OW51449   0.612  13.929  12.408
49851SOL    HW151450   0.640  14.011  12.449
49851SOL    HW251451   0.524  13.948  12.375
49852SOL     OW51452   2.800  13.603   2.018
49852SOL    HW151453   2.804  13.681   1.963
49852SOL    HW251454   2.747  13.629   2.093
49853SOL     OW51455   1.194   7.837   0.516
49853SOL    HW151456   1.276   7.789   0.508
49853SOL    HW251457   1.190   7.860   0.609
49854SOL     OW51458   9.778   8.353   7.535
49854SOL    HW151459   9.807   8.269   7.498
49854SOL    HW251460   9.770   8.411   7.460
49855SOL     OW51461   3.737   1.589  14.505
49855SOL    HW151462   3.680   1.512  14.516
49855SOL    HW251463   3.797   1.563  14.434
49856SOL     OW51464   2.193  14.804   3.438
49856SOL    HW151465   2.195  14.793   3.533
49856SOL    HW251466   2.229  14.722   3.403
49857SOL     OW51467  14.564   1.812   8.937
49857SOL    HW151468  14.486   1.766   8.969
49857SOL    HW251469  14.598   1.756   8.866
49858SOL     OW51470  10.192   1.539   2.194
49858SOL    HW151471  10.254   1.551   2.266
49858SOL    HW251472  10.195   1.620   2.145
49859SOL     OW51473   2.324  14.275  10.470
49859SOL    HW151474   2.418  14.254  10.466
49859SOL    HW251475   2.299  14.286  10.378
49860SOL     OW51476   5.553   4.374  10.204
49860SOL    HW151477   5.559   4.456  10.154
49860SOL    HW251478   5.472   4.383  10.254
49861SOL     OW51479   7.890  14.506   1.503
49861SOL    HW151480   7.922  14.466   1.422
49861SOL    HW251481   7.967  14.551   1.539
49862SOL     OW51482  12.153   4.943  11.064
49862SOL    HW151483  12.065   4.947  11.026
49862SOL    HW251484  12.192   5.028  11.043
49863SOL     OW51485   2.534   2.450   7.964
49863SOL    HW151486   2.537   2.372   7.909
49863SOL    HW251487   2.543   2.523   7.903
49864SOL     OW51488   9.375   7.978   0.916
49864SOL    HW151489   9.320   7.904   0.891
49864SOL    HW251490   9.453   7.969   0.861
49865SOL     OW51491   5.264   7.066   9.001
49865SOL    HW151492   5.278   7.094   9.091
49865SOL    HW251493   5.216   7.138   8.960
49866SOL     OW51494   7.465   4.620   2.334
49866SOL    HW151495   7.478   4.536   2.379
49866SOL    HW251496   7.420   4.597   2.253
49867SOL     OW51497   3.351   8.933   6.154
49867SOL    HW151498   3.322   8.911   6.066
49867SOL    HW251499   3.280   8.984   6.192
49868SOL     OW51500  11.091   4.725   8.063
49868SOL    HW151501  11.048   4.807   8.042
49868SOL    HW251502  11.090   4.721   8.158
49869SOL     OW51503   3.541  10.063  10.698
49869SOL    HW151504   3.463  10.023  10.737
49869SOL    HW251505   3.565  10.005  10.627
49870SOL     OW51506   7.201  11.125   1.634
49870SOL    HW151507   7.240  11.135   1.547
49870SOL    HW251508   7.178  11.214   1.661
49871SOL     OW51509   8.076   9.607  10.244
49871SOL    HW151510   7.985   9.609  10.214
49871SOL    HW251511   8.127   9.623  10.164
49872SOL     OW51512  13.981   5.202   0.166
49872SOL    HW151513  14.051   5.263   0.188
49872SOL    HW251514  13.964   5.217   0.073
49873SOL     OW51515   4.306   9.795   1.360
49873SOL    HW151516   4.291   9.860   1.428
49873SOL    HW251517   4.241   9.727   1.377
49874SOL     OW51518   3.772  12.372   3.342
49874SOL    HW151519   3.764  12.322   3.423
49874SOL    HW251520   3.828  12.446   3.365
49875SOL     OW51521   7.397   6.977   6.833
49875SOL    HW151522   7.469   7.021   6.787
49875SOL    HW251523   7.438   6.901   6.875
49876SOL     OW51524  10.300   3.256  12.486
49876SOL    HW151525  10.307   3.255  12.390
49876SOL    HW251526  10.390   3.251  12.517
49877SOL     OW51527   0.087   0.989   8.403
49877SOL    HW151528   0.108   1.029   8.487
49877SOL    HW251529   0.171   0.981   8.358
49878SOL     OW51530   0.025   4.946   3.064
49878SOL    HW151531  14.811   4.958   3.076
49878SOL    HW251532   0.065   5.022   3.108
49879SOL     OW51533   4.950   8.157   2.913
49879SOL    HW151534   4.858   8.181   2.915
49879SOL    HW251535   4.987   8.205   2.839
49880SOL     OW51536  11.173  11.621   8.048
49880SOL    HW151537  11.244  11.651   7.992
49880SOL    HW251538  11.098  11.675   8.023
49881SOL     OW51539  12.179  11.353   7.321
49881SOL    HW151540  12.121  11.299   7.267
49881SOL    HW251541  12.192  11.301   7.401
49882SOL     OW51542  12.218   4.352   1.765
49882SOL    HW151543  12.137   4.322   1.724
49882SOL    HW251544  12.272   4.273   1.772
49883SOL     OW51545   7.765   1.919  11.644
49883SOL    HW151546   7.853   1.950  11.663
49883SOL    HW251547   7.716   1.932  11.725
49884SOL     OW51548   3.999  11.373   0.751
49884SOL    HW151549   3.950  11.434   0.696
49884SOL    HW251550   4.041  11.313   0.689
49885SOL     OW51551  14.011  12.266  12.226
49885SOL    HW151552  13.962  12.284  12.146
49885SOL    HW251553  14.091  12.319  12.219
49886SOL     OW51554   9.313  13.926   4.306
49886SOL    HW151555   9.361  14.008   4.298
49886SOL    HW251556   9.381  13.858   4.310
49887SOL     OW51557   5.647   3.779  12.556
49887SOL    HW151558   5.633   3.797  12.649
49887SOL    HW251559   5.718   3.715  12.554
49888SOL     OW51560   4.689   8.535   1.396
49888SOL    HW151561   4.662   8.537   1.487
49888SOL    HW251562   4.766   8.592   1.392
49889SOL     OW51563  12.711   8.946   7.157
49889SOL    HW151564  12.708   8.949   7.062
49889SOL    HW251565  12.805   8.944   7.178
49890SOL     OW51566   8.457   1.278   9.387
49890SOL    HW151567   8.473   1.251   9.478
49890SOL    HW251568   8.427   1.199   9.343
49891SOL     OW51569   5.645   3.515  12.770
49891SOL    HW151570   5.726   3.553  12.736
49891SOL    HW251571   5.649   3.531  12.864
49892SOL     OW51572  10.531   6.265  12.793
49892SOL    HW151573  10.499   6.280  12.882
49892SOL    HW251574  10.597   6.333  12.780
49893SOL     OW51575  11.230  11.351  11.115
49893SOL    HW151576  11.148  11.306  11.097
49893SOL    HW251577  11.288  11.284  11.151
49894SOL     OW51578   4.458   3.002  10.178
49894SOL    HW151579   4.481   2.980  10.269
49894SOL    HW251580   4.372   3.042  10.184
49895SOL     OW51581   4.597   2.213   9.068
49895SOL    HW151582   4.661   2.266   9.116
49895SOL    HW251583   4.646   2.136   9.040
49896SOL     OW51584  11.729  12.765   4.875
49896SOL    HW151585  11.710  12.824   4.802
49896SOL    HW251586  11.725  12.820   4.953
49897SOL     OW51587  11.710   6.256   5.326
49897SOL    HW151588  11.653   6.214   5.262
49897SOL    HW251589  11.664   6.336   5.350
49898SOL     OW51590   9.078  13.708   9.647
49898SOL    HW151591   9.004  13.733   9.702
49898SOL    HW251592   9.143  13.776   9.663
49899SOL     OW51593  10.478   3.623  13.908
49899SOL    HW151594  10.394   3.668  13.917
49899SOL    HW251595  10.464   3.538  13.949
49900SOL     OW51596   1.208   6.346   4.627
49900SOL    HW151597   1.271   6.290   4.672
49900SOL    HW251598   1.260   6.396   4.564
49901SOL     OW51599   7.604   0.936   2.548
49901SOL    HW151600   7.538   1.001   2.524
49901SOL    HW251601   7.588   0.863   2.489
49902SOL     OW51602  11.792   7.167  11.396
49902SOL    HW151603  11.859   7.098  11.403
49902SOL    HW251604  11.840   7.248  11.412
49903SOL     OW51605   5.778   7.402  10.678
49903SOL    HW151606   5.720   7.355  10.618
49903SOL    HW251607   5.749   7.375  10.765
49904SOL     OW51608  13.828   6.479  13.835
49904SOL    HW151609  13.844   6.547  13.900
49904SOL    HW251610  13.867   6.400  13.873
49905SOL     OW51611   5.970   9.565   0.110
49905SOL    HW151612   5.916   9.486   0.123
49905SOL    HW251613   5.969   9.609   0.195
49906SOL     OW51614   7.993   9.742   1.370
49906SOL    HW151615   7.918   9.770   1.318
49906SOL    HW251616   8.069   9.773   1.321
49907SOL     OW51617   3.307   8.707   9.021
49907SOL    HW151618   3.280   8.639   9.082
49907SOL    HW251619   3.365   8.661   8.959
49908SOL     OW51620   0.071  10.040  12.893
49908SOL    HW151621   0.005  10.109  12.906
49908SOL    HW251622   0.050  10.004  12.807
49909SOL     OW51623   4.781   6.653   3.218
49909SOL    HW151624   4.788   6.563   3.187
49909SOL    HW251625   4.706   6.689   3.171
49910SOL     OW51626   0.312  14.616  13.561
49910SOL    HW151627   0.330  14.675  13.488
49910SOL    HW251628   0.327  14.668  13.640
49911SOL     OW51629   3.828  11.282  13.623
49911SOL    HW151630   3.919  11.260  13.644
49911SOL    HW251631   3.783  11.197  13.622
49912SOL     OW51632   0.470   4.558   0.020
49912SOL    HW151633   0.385   4.571   0.062
49912SOL    HW251634   0.471   4.622  14.828
49913SOL     OW51635  14.810   1.520   5.364
49913SOL    HW151636  14.759   1.506   5.444
49913SOL    HW251637   0.009   1.468   5.377
49914SOL     OW51638  10.080  10.100   2.748
49914SOL    HW151639  10.122  10.171   2.797
49914SOL    HW251640  10.104  10.020   2.796
49915SOL     OW51641  14.722   0.522  10.085
49915SOL    HW151642  14.689   0.567  10.163
49915SOL    HW251643  14.695   0.579  10.012
49916SOL     OW51644   5.283   4.794  14.400
49916SOL    HW151645   5.279   4.790  14.495
49916SOL    HW251646   5.351   4.730  14.376
49917SOL     OW51647   5.354   3.749   5.681
49917SOL    HW151648   5.436   3.789   5.710
49917SOL    HW251649   5.345   3.670   5.735
49918SOL     OW51650  11.151   7.966   1.060
49918SOL    HW151651  11.245   7.982   1.065
49918SOL    HW251652  11.142   7.871   1.067
49919SOL     OW51653  12.592   0.666   6.285
49919SOL    HW151654  12.630   0.716   6.357
49919SOL    HW251655  12.498   0.680   6.293
49920SOL     OW51656   6.473   8.174   2.615
49920SOL    HW151657   6.506   8.139   2.698
49920SOL    HW251658   6.394   8.224   2.640
49921SOL     OW51659   5.240   2.792   2.930
49921SOL    HW151660   5.268   2.709   2.892
49921SOL    HW251661   5.303   2.808   3.001
49922SOL     OW51662  11.603   3.103   4.808
49922SOL    HW151663  11.575   3.012   4.809
49922SOL    HW251664  11.545   3.145   4.744
49923SOL     OW51665  13.469   3.231   1.496
49923SOL    HW151666  13.456   3.310   1.549
49923SOL    HW251667  13.479   3.264   1.407
49924SOL     OW51668   1.224   2.737   4.277
49924SOL    HW151669   1.134   2.740   4.311
49924SOL    HW251670   1.264   2.818   4.307
49925SOL     OW51671   2.522   9.980   1.833
49925SOL    HW151672   2.604   9.999   1.789
49925SOL    HW251673   2.495  10.063   1.872
49926SOL     OW51674  10.975   2.216   4.456
49926SOL    HW151675  10.889   2.211   4.498
49926SOL    HW251676  11.037   2.221   4.529
49927SOL     OW51677  13.650  12.549  11.301
49927SOL    HW151678  13.735  12.589  11.287
49927SOL    HW251679  13.630  12.505  11.218
49928SOL     OW51680  10.126   5.153  14.136
49928SOL    HW151681  10.187   5.162  14.062
49928SOL    HW251682  10.053   5.211  14.114
49929SOL     OW51683   7.591  10.116   2.770
49929SOL    HW151684   7.535  10.111   2.848
49929SOL    HW251685   7.679  10.130   2.804
49930SOL     OW51686  12.236   4.126   6.622
49930SOL    HW151687  12.261   4.199   6.679
49930SOL    HW251688  12.319   4.093   6.588
49931SOL     OW51689   6.268  11.998   9.626
49931SOL    HW151690   6.184  12.009   9.580
49931SOL    HW251691   6.331  12.047   9.573
49932SOL     OW51692   5.424  13.552  13.821
49932SOL    HW151693   5.334  13.571  13.847
49932SOL    HW251694   5.415  13.486  13.752
49933SOL     OW51695   8.372   0.160  10.365
49933SOL    HW151696   8.440   0.188  10.427
49933SOL    HW251697   8.326   0.241  10.342
49934SOL     OW51698  14.772  10.781  11.907
49934SOL    HW151699  14.693  10.789  11.854
49934SOL    HW251700  14.836  10.741  11.847
49935SOL     OW51701  11.575  10.457   6.437
49935SOL    HW151702  11.533  10.378   6.470
49935SOL    HW251703  11.663  10.454   6.474
49936SOL     OW51704  13.086  10.969   4.334
49936SOL    HW151705  13.098  10.874   4.329
49936SOL    HW251706  12.991  10.982   4.328
49937SOL     OW51707   4.933   6.282  13.517
49937SOL    HW151708   4.907   6.195  13.548
49937SOL    HW251709   4.866   6.307  13.453
49938SOL     OW51710   7.162   2.667   7.296
49938SOL    HW151711   7.104   2.591   7.302
49938SOL    HW251712   7.108   2.736   7.259
49939SOL     OW51713  12.210   3.580   2.621
49939SOL    HW151714  12.168   3.665   2.613
49939SOL    HW251715  12.161   3.535   2.690
49940SOL     OW51716   3.224  13.611  10.378
49940SOL    HW151717   3.161  13.557  10.331
49940SOL    HW251718   3.263  13.552  10.443
49941SOL     OW51719   8.774   7.680   3.104
49941SOL    HW151720   8.843   7.624   3.067
49941SOL    HW251721   8.771   7.756   3.045
49942SOL     OW51722   1.001   9.526   6.735
49942SOL    HW151723   0.988   9.467   6.810
49942SOL    HW251724   1.030   9.608   6.774
49943SOL     OW51725   8.383  10.510  14.281
49943SOL    HW151726   8.359  10.424  14.246
49943SOL    HW251727   8.476  10.520  14.259
49944SOL     OW51728  13.974   7.241   6.713
49944SOL    HW151729  13.944   7.219   6.801
49944SOL    HW251730  13.894   7.253   6.663
49945SOL     OW51731   3.496  11.161   5.752
49945SOL    HW151732   3.468  11.073   5.774
49945SOL    HW251733   3.552  11.150   5.675
49946SOL     OW51734   0.270   9.815   8.769
49946SOL    HW151735   0.320   9.872   8.711
49946SOL    HW251736   0.211   9.874   8.815
49947SOL     OW51737   5.724   7.774   7.106
49947SOL    HW151738   5.729   7.866   7.082
49947SOL    HW251739   5.782   7.765   7.182
49948SOL     OW51740  14.493   2.822   0.289
49948SOL    HW151741  14.584   2.850   0.291
49948SOL    HW251742  14.474   2.810   0.196
49949SOL     OW51743   7.620   2.909   0.389
49949SOL    HW151744   7.601   2.818   0.368
49949SOL    HW251745   7.709   2.923   0.357
49950SOL     OW51746  13.988   3.781   4.057
49950SOL    HW151747  13.956   3.707   4.006
49950SOL    HW251748  13.960   3.763   4.147
49951SOL     OW51749   5.519   6.603   5.332
49951SOL    HW151750   5.565   6.534   5.285
49951SOL    HW251751   5.516   6.676   5.269
49952SOL     OW51752   6.481   6.902   7.786
49952SOL    HW151753   6.481   6.809   7.808
49952SOL    HW251754   6.530   6.908   7.705
49953SOL     OW51755   5.760  10.570   3.479
49953SOL    HW151756   5.724  10.504   3.420
49953SOL    HW251757   5.777  10.522   3.561
49954SOL     OW51758   3.961   0.556  14.542
49954SOL    HW151759   3.932   0.640  14.507
49954SOL    HW251760   4.039   0.578  14.594
49955SOL     OW51761   9.811   3.531  13.358
49955SOL    HW151762   9.902   3.525  13.329
49955SOL    HW251763   9.816   3.570  13.446
49956SOL     OW51764   7.317   1.382   3.023
49956SOL    HW151765   7.332   1.371   3.117
49956SOL    HW251766   7.233   1.428   3.017
49957SOL     OW51767   5.830  12.418   5.702
49957SOL    HW151768   5.920  12.392   5.682
49957SOL    HW251769   5.818  12.499   5.652
49958SOL     OW51770  11.813   3.243   0.837
49958SOL    HW151771  11.775   3.183   0.902
49958SOL    HW251772  11.800   3.330   0.875
49959SOL     OW51773   4.394   7.535   3.077
49959SOL    HW151774   4.375   7.503   3.165
49959SOL    HW251775   4.406   7.456   3.024
49960SOL     OW51776  12.125   7.499  12.378
49960SOL    HW151777  12.053   7.510  12.440
49960SOL    HW251778  12.204   7.497  12.433
49961SOL     OW51779  14.615   8.503   4.513
49961SOL    HW151780  14.691   8.487   4.568
49961SOL    HW251781  14.571   8.418   4.506
49962SOL     OW51782   6.607   2.615   6.373
49962SOL    HW151783   6.642   2.533   6.339
49962SOL    HW251784   6.660   2.633   6.451
49963SOL     OW51785   1.023   4.419   6.128
49963SOL    HW151786   0.957   4.487   6.138
49963SOL    HW251787   1.032   4.408   6.033
49964SOL     OW51788   1.221   6.130   0.780
49964SOL    HW151789   1.206   6.096   0.868
49964SOL    HW251790   1.136   6.164   0.753
49965SOL     OW51791  14.219   9.489  13.215
49965SOL    HW151792  14.159   9.488  13.140
49965SOL    HW251793  14.194   9.412  13.266
49966SOL     OW51794   0.991  12.094   4.310
49966SOL    HW151795   0.967  12.185   4.327
49966SOL    HW251796   0.955  12.075   4.223
49967SOL     OW51797   1.346   5.647  13.998
49967SOL    HW151798   1.319   5.708  14.067
49967SOL    HW251799   1.427   5.685  13.963
49968SOL     OW51800   2.595   7.714  12.459
49968SOL    HW151801   2.654   7.652  12.502
49968SOL    HW251802   2.541   7.660  12.401
49969SOL     OW51803  11.906   6.440   8.412
49969SOL    HW151804  11.926   6.480   8.497
49969SOL    HW251805  11.890   6.348   8.432
49970SOL     OW51806   3.714   7.603  10.311
49970SOL    HW151807   3.688   7.522  10.268
49970SOL    HW251808   3.710   7.584  10.404
49971SOL     OW51809   6.014   0.451  14.497
49971SOL    HW151810   6.070   0.382  14.460
49971SOL    HW251811   6.033   0.528  14.445
49972SOL     OW51812  12.432   8.103   1.348
49972SOL    HW151813  12.382   8.107   1.267
49972SOL    HW251814  12.400   8.024   1.392
49973SOL     OW51815   2.947   3.063  11.993
49973SOL    HW151816   3.008   3.097  12.058
49973SOL    HW251817   2.870   3.036  12.044
49974SOL     OW51818   1.604   4.685   4.977
49974SOL    HW151819   1.570   4.768   5.009
49974SOL    HW251820   1.602   4.627   5.054
49975SOL     OW51821   3.046  13.172   5.219
49975SOL    HW151822   2.974  13.111   5.233
49975SOL    HW251823   3.036  13.201   5.128
49976SOL     OW51824   5.374   8.173   6.332
49976SOL    HW151825   5.362   8.095   6.278
49976SOL    HW251826   5.467   8.195   6.322
49977SOL     OW51827   2.050  13.308   6.904
49977SOL    HW151828   2.005  13.243   6.958
49977SOL    HW251829   2.138  13.273   6.892
49978SOL     OW51830   3.272  10.745   8.106
49978SOL    HW151831   3.257  10.655   8.132
49978SOL    HW251832   3.252  10.796   8.185
49979SOL     OW51833   0.574   4.123   9.499
49979SOL    HW151834   0.622   4.181   9.440
49979SOL    HW251835   0.640   4.095   9.563
49980SOL     OW51836  11.459   6.644   9.046
49980SOL    HW151837  11.508   6.645   9.128
49980SOL    HW251838  11.523   6.620   8.979
49981SOL     OW51839  10.586   9.910   0.239
49981SOL    HW151840  10.570   9.951   0.324
49981SOL    HW251841  10.627   9.980   0.187
49982SOL     OW51842   9.498  13.299   5.369
49982SOL    HW151843   9.549  13.262   5.441
49982SOL    HW251844   9.407  13.292   5.398
49983SOL     OW51845   1.692  10.731   6.461
49983SOL    HW151846   1.634  10.733   6.537
49983SOL    HW251847   1.779  10.744   6.497
49984SOL     OW51848   9.679   1.281   1.810
49984SOL    HW151849   9.728   1.303   1.889
49984SOL    HW251850   9.735   1.219   1.763
49985SOL     OW51851  10.477  11.448  12.692
49985SOL    HW151852  10.381  11.450  12.700
49985SOL    HW251853  10.499  11.532  12.653
49986SOL     OW51854   5.016   6.064  10.494
49986SOL    HW151855   5.086   6.042  10.432
49986SOL    HW251856   4.954   6.116  10.442
49987SOL     OW51857   3.653   6.728   8.049
49987SOL    HW151858   3.666   6.654   8.109
49987SOL    HW251859   3.638   6.688   7.964
49988SOL     OW51860   1.260   7.134   3.795
49988SOL    HW151861   1.282   7.103   3.883
49988SOL    HW251862   1.268   7.229   3.801
49989SOL     OW51863  12.803   5.409   3.249
49989SOL    HW151864  12.722   5.378   3.208
49989SOL    HW251865  12.782   5.499   3.276
49990SOL     OW51866  10.317  10.860  11.392
49990SOL    HW151867  10.254  10.932  11.396
49990SOL    HW251868  10.374  10.874  11.468
49991SOL     OW51869  12.024   3.610   6.433
49991SOL    HW151870  11.951   3.552   6.410
49991SOL    HW251871  12.031   3.670   6.359
49992SOL     OW51872  11.815   7.117   6.552
49992SOL    HW151873  11.898   7.087   6.589
49992SOL    HW251874  11.748   7.080   6.610
49993SOL     OW51875   3.038  10.146   8.058
49993SOL    HW151876   2.970  10.128   8.123
49993SOL    HW251877   3.012  10.094   7.982
49994SOL     OW51878   7.010   9.479   3.644
49994SOL    HW151879   7.026   9.421   3.718
49994SOL    HW251880   6.930   9.446   3.604
49995SOL     OW51881  11.293   6.308  13.865
49995SOL    HW151882  11.280   6.310  13.770
49995SOL    HW251883  11.266   6.394  13.895
49996SOL     OW51884  14.524   4.560  10.066
49996SOL    HW151885  14.593   4.560  10.133
49996SOL    HW251886  14.552   4.627  10.004
49997SOL     OW51887   8.932   8.067  11.365
49997SOL    HW151888   9.005   8.012  11.337
49997SOL    HW251889   8.938   8.146  11.312
49998SOL     OW51890   5.277  11.487   4.767
49998SOL    HW151891   5.341  11.416   4.762
49998SOL    HW251892   5.324  11.565   4.737
49999SOL     OW51893   9.433   0.801   9.865
49999SOL    HW151894   9.382   0.841   9.935
49999SOL    HW251895   9.523   0.828   9.882
50000SOL     OW51896   7.110   5.758  11.783
50000SOL    HW151897   7.079   5.829  11.840
50000SOL    HW251898   7.073   5.780  11.696
50001SOL     OW51899   6.834   7.516   9.478
50001SOL    HW151900   6.846   7.544   9.568
50001SOL    HW251901   6.757   7.565   9.447
50002SOL     OW51902   4.425   3.893   4.484
50002SOL    HW151903   4.508   3.846   4.485
50002SOL    HW251904   4.394   3.888   4.575
50003SOL     OW51905   2.125   9.938   7.503
50003SOL    HW151906   2.073   9.879   7.558
50003SOL    HW251907   2.072   9.951   7.425
50004SOL     OW51908   2.060  14.121   5.605
50004SOL    HW151909   2.091  14.176   5.533
50004SOL    HW251910   2.072  14.031   5.573
50005SOL     OW51911  14.248   1.560  10.619
50005SOL    HW151912  14.286   1.483  10.659
50005SOL    HW251913  14.225   1.617  10.692
50006SOL     OW51914   3.362   8.786   4.477
50006SOL    HW151915   3.288   8.726   4.471
50006SOL    HW251916   3.378   8.796   4.571
50007SOL     OW51917   9.326   7.527   7.717
50007SOL    HW151918   9.232   7.532   7.734
50007SOL    HW251919   9.364   7.497   7.799
50008SOL     OW51920  12.975  10.025  12.513
50008SOL    HW151921  12.971   9.958  12.445
50008SOL    HW251922  12.917   9.993  12.582
50009SOL     OW51923  12.771  10.329   7.720
50009SOL    HW151924  12.846  10.352   7.774
50009SOL    HW251925  12.729  10.257   7.767
50010SOL     OW51926   8.836   4.374   7.853
50010SOL    HW151927   8.807   4.376   7.944
50010SOL    HW251928   8.883   4.457   7.840
50011SOL     OW51929  10.442   1.656   6.660
50011SOL    HW151930  10.450   1.752   6.659
50011SOL    HW251931  10.367   1.639   6.717
50012SOL     OW51932  10.556   8.666   4.850
50012SOL    HW151933  10.585   8.579   4.878
50012SOL    HW251934  10.461   8.662   4.855
50013SOL     OW51935  14.201  14.801   0.355
50013SOL    HW151936  14.125  14.748   0.379
50013SOL    HW251937  14.244  14.751   0.285
50014SOL     OW51938   2.314  13.640   5.579
50014SOL    HW151939   2.405  13.666   5.597
50014SOL    HW251940   2.262  13.688   5.644
50015SOL     OW51941  13.123   5.797  10.743
50015SOL    HW151942  13.114   5.742  10.665
50015SOL    HW251943  13.215   5.823  10.743
50016SOL     OW51944   0.601   6.895   0.280
50016SOL    HW151945   0.586   6.943   0.199
50016SOL    HW251946   0.573   6.805   0.260
50017SOL     OW51947   0.718   7.270   7.271
50017SOL    HW151948   0.760   7.188   7.245
50017SOL    HW251949   0.791   7.330   7.289
50018SOL     OW51950   6.930  11.535   4.635
50018SOL    HW151951   6.853  11.529   4.690
50018SOL    HW251952   6.898  11.569   4.552
50019SOL     OW51953  12.544   7.079  11.387
50019SOL    HW151954  12.552   7.154  11.328
50019SOL    HW251955  12.602   7.013  11.350
50020SOL     OW51956  12.964   3.581   7.627
50020SOL    HW151957  12.946   3.656   7.684
50020SOL    HW251958  12.890   3.521   7.642
50021SOL     OW51959   3.793  14.708   9.170
50021SOL    HW151960   3.750  14.732   9.252
50021SOL    HW251961   3.877  14.754   9.171
50022SOL     OW51962   0.574   9.115   5.711
50022SOL    HW151963   0.555   9.187   5.650
50022SOL    HW251964   0.538   9.037   5.668
50023SOL     OW51965   7.318  13.535  12.279
50023SOL    HW151966   7.271  13.558  12.359
50023SOL    HW251967   7.396  13.488  12.309
50024SOL     OW51968   6.678  11.960   5.025
50024SOL    HW151969   6.649  11.908   4.950
50024SOL    HW251970   6.649  12.049   5.004
50025SOL     OW51971  13.033   6.984   2.819
50025SOL    HW151972  12.961   7.041   2.848
50025SOL    HW251973  13.002   6.947   2.736
50026SOL     OW51974   2.535  14.346   5.374
50026SOL    HW151975   2.536  14.344   5.278
50026SOL    HW251976   2.504  14.259   5.400
50027SOL     OW51977   9.784   0.452   8.897
50027SOL    HW151978   9.711   0.494   8.852
50027SOL    HW251979   9.771   0.473   8.989
50028SOL     OW51980  10.877   8.238  13.063
50028SOL    HW151981  10.949   8.221  13.003
50028SOL    HW251982  10.830   8.154  13.069
50029SOL     OW51983   6.307   9.841   0.398
50029SOL    HW151984   6.297   9.878   0.311
50029SOL    HW251985   6.224   9.796   0.415
50030SOL     OW51986   6.779   9.704   6.567
50030SOL    HW151987   6.716   9.638   6.597
50030SOL    HW251988   6.760   9.781   6.621
50031SOL     OW51989  10.221  14.823  13.599
50031SOL    HW151990  10.281   0.015  13.617
50031SOL    HW251991  10.233  14.762  13.671
50032SOL     OW51992   9.641   3.042  11.894
50032SOL    HW151993   9.700   3.090  11.952
50032SOL    HW251994   9.597   2.980  11.951
50033SOL     OW51995  12.101  11.686   2.753
50033SOL    HW151996  12.142  11.659   2.835
50033SOL    HW251997  12.115  11.612   2.694
50034SOL     OW51998   3.356  13.380  12.408
50034SOL    HW151999   3.333  13.290  12.385
50034SOL    HW252000   3.447  13.390  12.380
50035SOL     OW52001   6.947   7.245  10.807
50035SOL    HW152002   6.874   7.189  10.834
50035SOL    HW252003   6.906   7.313  10.754
50036SOL     OW52004   4.390  10.970   2.434
50036SOL    HW152005   4.477  10.930   2.423
50036SOL    HW252006   4.374  10.968   2.528
50037SOL     OW52007  14.810  12.181  14.766
50037SOL    HW152008   0.024  12.164  14.763
50037SOL    HW252009  14.775  12.114  14.825
50038SOL     OW52010  13.058   4.524  12.339
50038SOL    HW152011  13.134   4.533  12.281
50038SOL    HW252012  13.095   4.501  12.424
50039SOL     OW52013   5.959   1.826  12.057
50039SOL    HW152014   6.045   1.795  12.085
50039SOL    HW252015   5.900   1.805  12.129
50040SOL     OW52016   1.093  13.613   7.074
50040SOL    HW152017   1.088  13.550   7.002
50040SOL    HW252018   1.004  13.620   7.106
50041SOL     OW52019   1.423   3.591   0.661
50041SOL    HW152020   1.388   3.679   0.671
50041SOL    HW252021   1.492   3.600   0.595
50042SOL     OW52022   0.194   6.675   9.281
50042SOL    HW152023   0.191   6.624   9.200
50042SOL    HW252024   0.269   6.639   9.329
50043SOL     OW52025   9.837   3.328   6.874
50043SOL    HW152026   9.861   3.383   6.948
50043SOL    HW252027   9.802   3.248   6.914
50044SOL     OW52028   1.115   3.105   5.888
50044SOL    HW152029   1.135   3.147   5.804
50044SOL    HW252030   1.193   3.119   5.941
50045SOL     OW52031  12.661   6.080   7.196
50045SOL    HW152032  12.738   6.137   7.200
50045SOL    HW252033  12.698   5.993   7.179
50046SOL     OW52034  13.993  11.148   0.957
50046SOL    HW152035  14.050  11.073   0.969
50046SOL    HW252036  13.906  11.110   0.944
50047SOL     OW52037   9.633   1.786   8.472
50047SOL    HW152038   9.615   1.735   8.393
50047SOL    HW252039   9.727   1.803   8.468
50048SOL     OW52040   3.971  11.555  12.819
50048SOL    HW152041   4.022  11.551  12.900
50048SOL    HW252042   3.986  11.469  12.778
50049SOL     OW52043  10.995  10.508  12.712
50049SOL    HW152044  10.977  10.415  12.696
50049SOL    HW252045  10.972  10.552  12.630
50050SOL     OW52046  10.277   3.272   7.649
50050SOL    HW152047  10.353   3.214   7.644
50050SOL    HW252048  10.314   3.358   7.668
50051SOL     OW52049   8.998   1.531  13.849
50051SOL    HW152050   9.052   1.452  13.857
50051SOL    HW252051   8.913   1.499  13.822
50052SOL     OW52052   0.868   4.600   8.514
50052SOL    HW152053   0.877   4.572   8.423
50052SOL    HW252054   0.790   4.553   8.545
50053SOL     OW52055  12.049   6.079   2.870
50053SOL    HW152056  12.040   6.065   2.775
50053SOL    HW252057  11.991   6.152   2.889
50054SOL     OW52058   7.583  10.407  12.489
50054SOL    HW152059   7.600  10.332  12.432
50054SOL    HW252060   7.542  10.368  12.567
50055SOL     OW52061   8.897   5.663   2.362
50055SOL    HW152062   8.860   5.722   2.427
50055SOL    HW252063   8.985   5.643   2.394
50056SOL     OW52064   2.419  14.153  10.859
50056SOL    HW152065   2.323  14.147  10.852
50056SOL    HW252066   2.441  14.234  10.812
50057SOL     OW52067  11.317  14.133   3.228
50057SOL    HW152068  11.292  14.203   3.289
50057SOL    HW252069  11.362  14.069   3.282
50058SOL     OW52070  13.850   5.749   2.778
50058SOL    HW152071  13.789   5.688   2.818
50058SOL    HW252072  13.882   5.703   2.700
50059SOL     OW52073  11.723   5.779   0.379
50059SOL    HW152074  11.737   5.765   0.472
50059SOL    HW252075  11.747   5.871   0.365
50060SOL     OW52076   1.003  12.361   2.918
50060SOL    HW152077   0.996  12.379   2.824
50060SOL    HW252078   0.921  12.317   2.940
50061SOL     OW52079  12.689   2.182  12.935
50061SOL    HW152080  12.769   2.219  12.972
50061SOL    HW252081  12.655   2.124  13.003
50062SOL     OW52082   8.660  14.397  10.567
50062SOL    HW152083   8.645  14.357  10.652
50062SOL    HW252084   8.724  14.340  10.524
50063SOL     OW52085  11.683  10.399   4.874
50063SOL    HW152086  11.706  10.316   4.832
50063SOL    HW252087  11.761  10.422   4.925
50064SOL     OW52088  14.008  12.089   8.575
50064SOL    HW152089  14.028  12.169   8.622
50064SOL    HW252090  14.023  12.019   8.639
50065SOL     OW52091   7.945   1.881   3.363
50065SOL    HW152092   7.899   1.808   3.406
50065SOL    HW252093   7.887   1.956   3.374
50066SOL     OW52094   9.276   9.224   6.654
50066SOL    HW152095   9.283   9.226   6.558
50066SOL    HW252096   9.283   9.316   6.680
50067SOL     OW52097  14.591  12.258   1.579
50067SOL    HW152098  14.653  12.185   1.582
50067SOL    HW252099  14.646  12.336   1.582
50068SOL     OW52100  14.537  13.807   9.010
50068SOL    HW152101  14.621  13.762   9.024
50068SOL    HW252102  14.471  13.740   9.026
50069SOL     OW52103   9.340   3.202   1.210
50069SOL    HW152104   9.375   3.162   1.131
50069SOL    HW252105   9.406   3.265   1.237
50070SOL     OW52106   1.446   0.371  11.857
50070SOL    HW152107   1.486   0.287  11.879
50070SOL    HW252108   1.433   0.413  11.942
50071SOL     OW52109   6.809   4.042  11.381
50071SOL    HW152110   6.744   4.011  11.318
50071SOL    HW252111   6.758   4.054  11.462
50072SOL     OW52112  11.397   6.177  13.527
50072SOL    HW152113  11.302   6.186  13.517
50072SOL    HW252114  11.433   6.213  13.446
50073SOL     OW52115   1.926   5.749   2.195
50073SOL    HW152116   1.846   5.742   2.144
50073SOL    HW252117   1.985   5.802   2.140
50074SOL     OW52118   8.044   3.506   9.188
50074SOL    HW152119   7.996   3.509   9.105
50074SOL    HW252120   8.082   3.418   9.191
50075SOL     OW52121   9.215   3.399   4.525
50075SOL    HW152122   9.234   3.306   4.539
50075SOL    HW252123   9.131   3.414   4.568
50076SOL     OW52124   6.159   5.447   5.126
50076SOL    HW152125   6.152   5.499   5.206
50076SOL    HW252126   6.068   5.433   5.099
50077SOL     OW52127   0.653   7.085   8.420
50077SOL    HW152128   0.741   7.048   8.420
50077SOL    HW252129   0.666   7.179   8.405
50078SOL     OW52130   6.327   2.511   2.354
50078SOL    HW152131   6.231   2.514   2.354
50078SOL    HW252132   6.351   2.506   2.262
50079SOL     OW52133  10.095   7.761   6.000
50079SOL    HW152134  10.099   7.768   5.905
50079SOL    HW252135  10.036   7.688   6.017
50080SOL     OW52136   7.253  13.846   9.816
50080SOL    HW152137   7.300  13.872   9.895
50080SOL    HW252138   7.163  13.873   9.832
50081SOL     OW52139   3.117   1.689   6.225
50081SOL    HW152140   3.171   1.731   6.159
50081SOL    HW252141   3.174   1.682   6.302
50082SOL     OW52142   0.342   3.971  13.425
50082SOL    HW152143   0.277   4.039  13.443
50082SOL    HW252144   0.354   3.973  13.330
50083SOL     OW52145   2.253  13.251  12.698
50083SOL    HW152146   2.256  13.336  12.654
50083SOL    HW252147   2.295  13.191  12.636
50084SOL     OW52148   6.041   6.266   4.477
50084SOL    HW152149   6.059   6.261   4.570
50084SOL    HW252150   6.127   6.278   4.436
50085SOL     OW52151  11.741   7.755   9.821
50085SOL    HW152152  11.826   7.712   9.820
50085SOL    HW252153  11.761   7.848   9.820
50086SOL     OW52154   1.082   3.322  11.500
50086SOL    HW152155   1.109   3.406  11.463
50086SOL    HW252156   1.141   3.307  11.573
50087SOL     OW52157  12.351  12.561  13.512
50087SOL    HW152158  12.423  12.501  13.489
50087SOL    HW252159  12.360  12.633  13.451
50088SOL     OW52160  10.727   9.365   9.216
50088SOL    HW152161  10.675   9.287   9.197
50088SOL    HW252162  10.707   9.385   9.307
50089SOL     OW52163   4.884   3.190   7.383
50089SOL    HW152164   4.827   3.267   7.383
50089SOL    HW252165   4.871   3.151   7.469
50090SOL     OW52166  13.495   2.785  10.869
50090SOL    HW152167  13.547   2.705  10.860
50090SOL    HW252168  13.484   2.816  10.779
50091SOL     OW52169  14.834   4.314   5.973
50091SOL    HW152170  14.858   4.373   5.903
50091SOL    HW252171   0.009   4.237   5.960
50092SOL     OW52172   0.293   1.575   5.489
50092SOL    HW152173   0.211   1.582   5.539
50092SOL    HW252174   0.283   1.638   5.417
50093SOL     OW52175   1.112  12.432   9.729
50093SOL    HW152176   1.051  12.439   9.655
50093SOL    HW252177   1.198  12.452   9.691
50094SOL     OW52178   8.508   9.483  13.342
50094SOL    HW152179   8.426   9.434  13.333
50094SOL    HW252180   8.486   9.571  13.310
50095SOL     OW52181  14.713  14.645   2.601
50095SOL    HW152182  14.787  14.600   2.561
50095SOL    HW252183  14.738  14.656   2.693
50096SOL     OW52184   6.971   1.071   1.761
50096SOL    HW152185   6.948   0.998   1.817
50096SOL    HW252186   7.045   1.114   1.805
50097SOL     OW52187   4.719   6.686   0.166
50097SOL    HW152188   4.700   6.770   0.125
50097SOL    HW252189   4.776   6.707   0.240
50098SOL     OW52190   6.950   0.804   7.821
50098SOL    HW152191   6.876   0.842   7.868
50098SOL    HW252192   6.913   0.728   7.775
50099SOL     OW52193   1.099  10.536  10.618
50099SOL    HW152194   1.104  10.624  10.582
50099SOL    HW252195   1.151  10.482  10.559
50100SOL     OW52196   1.002  10.107   8.167
50100SOL    HW152197   1.017  10.142   8.255
50100SOL    HW252198   0.919  10.147   8.139
50101SOL     OW52199   5.229   8.480   5.702
50101SOL    HW152200   5.163   8.490   5.770
50101SOL    HW252201   5.266   8.393   5.717
50102SOL     OW52202   7.056   6.559   3.368
50102SOL    HW152203   7.003   6.549   3.446
50102SOL    HW252204   7.113   6.634   3.387
50103SOL     OW52205   4.605   6.770  13.982
50103SOL    HW152206   4.668   6.745  14.050
50103SOL    HW252207   4.568   6.687  13.952
50104SOL     OW52208   4.761   1.990  12.742
50104SOL    HW152209   4.806   1.926  12.687
50104SOL    HW252210   4.715   1.937  12.807
50105SOL     OW52211  14.560   7.090  11.917
50105SOL    HW152212  14.640   7.078  11.968
50105SOL    HW252213  14.537   7.001  11.888
50106SOL     OW52214   9.733  10.402  14.719
50106SOL    HW152215   9.765  10.469  14.659
50106SOL    HW252216   9.810  10.377  14.770
50107SOL     OW52217   2.152   5.081  10.048
50107SOL    HW152218   2.195   5.159  10.082
50107SOL    HW252219   2.172   5.080   9.955
50108SOL     OW52220  10.716   3.245  13.080
50108SOL    HW152221  10.810   3.258  13.089
50108SOL    HW252222  10.679   3.283  13.160
50109SOL     OW52223   3.055   1.801  11.496
50109SOL    HW152224   3.082   1.864  11.430
50109SOL    HW252225   2.961   1.819  11.509
50110SOL     OW52226   9.705  11.078   2.195
50110SOL    HW152227   9.735  11.141   2.129
50110SOL    HW252228   9.776  11.075   2.259
50111SOL     OW52229  10.468  11.796   0.407
50111SOL    HW152230  10.527  11.750   0.467
50111SOL    HW252231  10.503  11.776   0.320
50112SOL     OW52232   1.469   3.242   9.734
50112SOL    HW152233   1.427   3.259   9.650
50112SOL    HW252234   1.548   3.193   9.713
50113SOL     OW52235   0.138   7.188   5.723
50113SOL    HW152236   0.126   7.194   5.818
50113SOL    HW252237   0.084   7.259   5.688
50114SOL     OW52238   6.054   5.127   3.461
50114SOL    HW152239   5.969   5.108   3.423
50114SOL    HW252240   6.116   5.077   3.407
50115SOL     OW52241  13.698   3.227   9.730
50115SOL    HW152242  13.751   3.307   9.723
50115SOL    HW252243  13.622   3.244   9.675
50116SOL     OW52244  10.334   7.642  12.550
50116SOL    HW152245  10.335   7.717  12.610
50116SOL    HW252246  10.386   7.671  12.475
50117SOL     OW52247   4.430  11.649   0.616
50117SOL    HW152248   4.485  11.582   0.656
50117SOL    HW252249   4.342  11.631   0.648
50118SOL     OW52250  14.497   2.565   0.405
50118SOL    HW152251  14.521   2.527   0.320
50118SOL    HW252252  14.541   2.650   0.406
50119SOL     OW52253   7.965   8.991   4.576
50119SOL    HW152254   7.900   8.997   4.646
50119SOL    HW252255   7.940   9.060   4.515
50120SOL     OW52256  12.913   8.716   6.997
50120SOL    HW152257  12.953   8.707   6.911
50120SOL    HW252258  12.847   8.646   7.000
50121SOL     OW52259   8.768   1.686  14.347
50121SOL    HW152260   8.723   1.755  14.395
50121SOL    HW252261   8.861   1.707  14.355
50122SOL     OW52262   8.575  14.649   7.622
50122SOL    HW152263   8.605  14.740   7.619
50122SOL    HW252264   8.650  14.601   7.657
50123SOL     OW52265   5.023  12.377   9.298
50123SOL    HW152266   5.083  12.441   9.335
50123SOL    HW252267   4.999  12.321   9.372
50124SOL     OW52268   0.948  10.743   6.497
50124SOL    HW152269   1.043  10.758   6.498
50124SOL    HW252270   0.921  10.769   6.409
50125SOL     OW52271   0.884   3.994   9.227
50125SOL    HW152272   0.941   4.032   9.294
50125SOL    HW252273   0.820   4.063   9.208
50126SOL     OW52274  10.114   0.336   5.399
50126SOL    HW152275  10.127   0.243   5.379
50126SOL    HW252276  10.170   0.381   5.336
50127SOL     OW52277  13.281   6.242   8.493
50127SOL    HW152278  13.372   6.221   8.470
50127SOL    HW252279  13.228   6.191   8.432
50128SOL     OW52280  14.744   4.875  10.356
50128SOL    HW152281  14.816   4.930  10.388
50128SOL    HW252282  14.733   4.809  10.424
50129SOL     OW52283  13.862   8.713  13.663
50129SOL    HW152284  13.786   8.658  13.678
50129SOL    HW252285  13.930   8.652  13.634
50130SOL     OW52286  12.806  14.663  10.259
50130SOL    HW152287  12.846  14.648  10.344
50130SOL    HW252288  12.751  14.740  10.271
50131SOL     OW52289  13.814   9.474   7.995
50131SOL    HW152290  13.737   9.523   8.024
50131SOL    HW252291  13.862   9.455   8.075
50132SOL     OW52292   0.558   5.520   8.336
50132SOL    HW152293   0.614   5.442   8.331
50132SOL    HW252294   0.606   5.581   8.392
50133SOL     OW52295   2.341   2.646  14.677
50133SOL    HW152296   2.374   2.708  14.743
50133SOL    HW252297   2.272   2.695  14.631
50134SOL     OW52298   0.420   6.164   7.046
50134SOL    HW152299   0.455   6.132   6.964
50134SOL    HW252300   0.466   6.115   7.114
50135SOL     OW52301  13.133   0.033   9.925
50135SOL    HW152302  13.153  14.835   9.874
50135SOL    HW252303  13.142   0.006  10.016
50136SOL     OW52304   1.269  14.806   1.098
50136SOL    HW152305   1.315  14.820   1.015
50136SOL    HW252306   1.281   0.008   1.146
50137SOL     OW52307   3.562  12.355   6.761
50137SOL    HW152308   3.579  12.449   6.757
50137SOL    HW252309   3.646  12.317   6.789
50138SOL     OW52310   2.038  10.976   3.801
50138SOL    HW152311   2.079  10.973   3.887
50138SOL    HW252312   1.947  11.001   3.819
50139SOL     OW52313   1.020  10.111   4.961
50139SOL    HW152314   0.999  10.089   4.870
50139SOL    HW252315   0.964  10.185   4.981
50140SOL     OW52316   8.685   4.159   2.448
50140SOL    HW152317   8.713   4.137   2.537
50140SOL    HW252318   8.661   4.075   2.409
50141SOL     OW52319   0.063   0.011   7.895
50141SOL    HW152320   0.003  14.818   7.886
50141SOL    HW252321   0.007   0.088   7.900
50142SOL     OW52322  11.437   5.877   0.015
50142SOL    HW152323  11.355   5.919   0.040
50142SOL    HW252324  11.411   5.793  14.857
50143SOL     OW52325  12.304  11.634   4.772
50143SOL    HW152326  12.257  11.553   4.792
50143SOL    HW252327  12.385  11.605   4.729
50144SOL     OW52328  14.086   4.238   5.103
50144SOL    HW152329  14.154   4.263   5.165
50144SOL    HW252330  14.080   4.312   5.042
50145SOL     OW52331  14.123   8.441  13.954
50145SOL    HW152332  14.143   8.501  13.882
50145SOL    HW252333  14.057   8.382  13.919
50146SOL     OW52334   3.669  12.875  11.620
50146SOL    HW152335   3.692  12.833  11.537
50146SOL    HW252336   3.751  12.878  11.669
50147SOL     OW52337   0.166   2.936   2.034
50147SOL    HW152338   0.112   2.978   2.101
50147SOL    HW252339   0.228   2.882   2.083
50148SOL     OW52340   3.577   8.233   3.888
50148SOL    HW152341   3.634   8.263   3.958
50148SOL    HW252342   3.598   8.140   3.877
50149SOL     OW52343   0.337   5.977   3.628
50149SOL    HW152344   0.247   6.008   3.623
50149SOL    HW252345   0.381   6.039   3.685
50150SOL     OW52346  11.369   8.409   6.968
50150SOL    HW152347  11.418   8.377   6.892
50150SOL    HW252348  11.375   8.338   7.031
50151SOL     OW52349   9.983  14.361   0.311
50151SOL    HW152350  10.052  14.410   0.354
50151SOL    HW252351  10.028  14.310   0.243
50152SOL     OW52352   2.221   2.413   5.414
50152SOL    HW152353   2.158   2.347   5.383
50152SOL    HW252354   2.212   2.411   5.509
50153SOL     OW52355   3.888  14.122  10.123
50153SOL    HW152356   3.944  14.063  10.073
50153SOL    HW252357   3.806  14.126  10.074
50154SOL     OW52358  12.924  10.404   0.607
50154SOL    HW152359  13.003  10.446   0.574
50154SOL    HW252360  12.878  10.375   0.528
50155SOL     OW52361   6.788   1.581  14.825
50155SOL    HW152362   6.824   1.508  14.875
50155SOL    HW252363   6.863   1.620  14.781
50156SOL     OW52364   2.206   9.508   9.444
50156SOL    HW152365   2.114   9.532   9.450
50156SOL    HW252366   2.223   9.501   9.350
50157SOL     OW52367   0.119   4.667  10.054
50157SOL    HW152368   0.134   4.759  10.036
50157SOL    HW252369   0.109   4.626   9.968
50158SOL     OW52370   5.521   0.048   8.190
50158SOL    HW152371   5.601   0.092   8.219
50158SOL    HW252372   5.537   0.030   8.097
50159SOL     OW52373   1.654  11.954   5.546
50159SOL    HW152374   1.674  11.921   5.633
50159SOL    HW252375   1.732  11.935   5.494
50160SOL     OW52376   5.685   4.156  11.861
50160SOL    HW152377   5.715   4.069  11.887
50160SOL    HW252378   5.650   4.195  11.941
50161SOL     OW52379   4.242   0.505   9.998
50161SOL    HW152380   4.170   0.559  10.032
50161SOL    HW252381   4.230   0.507   9.903
50162SOL     OW52382   7.277   1.512   1.310
50162SOL    HW152383   7.283   1.483   1.219
50162SOL    HW252384   7.213   1.584   1.308
50163SOL     OW52385   1.789  11.276   2.289
50163SOL    HW152386   1.877  11.244   2.312
50163SOL    HW252387   1.730  11.206   2.317
50164SOL     OW52388   7.295  14.498   0.835
50164SOL    HW152389   7.233  14.571   0.838
50164SOL    HW252390   7.240  14.420   0.837
50165SOL     OW52391   4.645  11.705   5.716
50165SOL    HW152392   4.625  11.799   5.721
50165SOL    HW252393   4.587  11.664   5.780
50166SOL     OW52394  13.517   3.132   5.633
50166SOL    HW152395  13.607   3.111   5.656
50166SOL    HW252396  13.521   3.158   5.541
50167SOL     OW52397  14.192   6.511  14.629
50167SOL    HW152398  14.261   6.545  14.572
50167SOL    HW252399  14.125   6.478  14.569
50168SOL     OW52400  13.491  13.647   2.096
50168SOL    HW152401  13.517  13.702   2.170
50168SOL    HW252402  13.571  13.600   2.072
50169SOL     OW52403   1.209  12.302   4.174
50169SOL    HW152404   1.290  12.333   4.133
50169SOL    HW252405   1.185  12.225   4.124
50170SOL     OW52406   3.419   6.363   5.885
50170SOL    HW152407   3.451   6.344   5.797
50170SOL    HW252408   3.394   6.455   5.883
50171SOL     OW52409  13.641  12.110   4.623
50171SOL    HW152410  13.635  12.109   4.528
50171SOL    HW252411  13.730  12.138   4.641
50172SOL     OW52412   4.705  12.306   4.193
50172SOL    HW152413   4.705  12.374   4.125
50172SOL    HW252414   4.796  12.301   4.223
50173SOL     OW52415  14.587   4.738   5.048
50173SOL    HW152416  14.571   4.662   5.104
50173SOL    HW252417  14.585   4.812   5.108
50174SOL     OW52418  11.957  14.691   8.772
50174SOL    HW152419  12.031  14.680   8.832
50174SOL    HW252420  11.926  14.602   8.755
50175SOL     OW52421  14.706   3.354   4.024
50175SOL    HW152422  14.729   3.407   3.947
50175SOL    HW252423  14.614   3.331   4.011
50176SOL     OW52424   2.028  13.542   0.006
50176SOL    HW152425   1.981  13.607  14.834
50176SOL    HW252426   1.987  13.458  14.862
50177SOL     OW52427  12.242  14.047   5.034
50177SOL    HW152428  12.232  14.102   4.956
50177SOL    HW252429  12.336  14.045   5.051
50178SOL     OW52430   8.833   8.741  11.735
50178SOL    HW152431   8.801   8.679  11.669
50178SOL    HW252432   8.764   8.807  11.741
50179SOL     OW52433   5.793   4.118   9.388
50179SOL    HW152434   5.835   4.139   9.305
50179SOL    HW252435   5.834   4.036   9.416
50180SOL     OW52436   6.551   5.210  12.064
50180SOL    HW152437   6.590   5.151  12.128
50180SOL    HW252438   6.462   5.177  12.052
50181SOL     OW52439  12.705  11.173   1.186
50181SOL    HW152440  12.675  11.263   1.178
50181SOL    HW252441  12.646  11.134   1.251
50182SOL     OW52442   4.297   5.862   9.656
50182SOL    HW152443   4.339   5.793   9.708
50182SOL    HW252444   4.243   5.815   9.593
50183SOL     OW52445   7.316   8.151  10.418
50183SOL    HW152446   7.261   8.216  10.374
50183SOL    HW252447   7.298   8.164  10.511
50184SOL     OW52448  11.956   7.997  11.128
50184SOL    HW152449  11.872   8.018  11.169
50184SOL    HW252450  11.970   7.904  11.147
50185SOL     OW52451   5.224  13.526  14.638
50185SOL    HW152452   5.179  13.607  14.665
50185SOL    HW252453   5.291  13.556  14.576
50186SOL     OW52454   9.921  13.335   2.526
50186SOL    HW152455   9.861  13.265   2.499
50186SOL    HW252456   9.902  13.406   2.465
50187SOL     OW52457   9.790   1.456   0.815
50187SOL    HW152458   9.740   1.527   0.857
50187SOL    HW252459   9.752   1.449   0.728
50188SOL     OW52460  12.532  11.556   2.685
50188SOL    HW152461  12.482  11.603   2.619
50188SOL    HW252462  12.558  11.474   2.642
50189SOL     OW52463   9.516   6.372   1.670
50189SOL    HW152464   9.466   6.453   1.685
50189SOL    HW252465   9.453   6.302   1.682
50190SOL     OW52466   0.809  13.570   3.862
50190SOL    HW152467   0.827  13.616   3.780
50190SOL    HW252468   0.791  13.480   3.836
50191SOL     OW52469   7.703   7.775   2.726
50191SOL    HW152470   7.710   7.846   2.788
50191SOL    HW252471   7.614   7.782   2.691
50192SOL     OW52472   2.429   2.845   8.490
50192SOL    HW152473   2.375   2.862   8.567
50192SOL    HW252474   2.414   2.752   8.470
50193SOL     OW52475  13.881   4.867  13.722
50193SOL    HW152476  13.812   4.871  13.656
50193SOL    HW252477  13.903   4.774  13.728
50194SOL     OW52478   7.681   1.356   3.118
50194SOL    HW152479   7.632   1.392   3.192
50194SOL    HW252480   7.658   1.263   3.117
50195SOL     OW52481  12.469   6.164   4.734
50195SOL    HW152482  12.382   6.135   4.763
50195SOL    HW252483  12.513   6.190   4.815
50196SOL     OW52484   6.619  13.728  11.583
50196SOL    HW152485   6.531  13.709  11.549
50196SOL    HW252486   6.609  13.810  11.631
50197SOL     OW52487   9.982   7.566   0.609
50197SOL    HW152488   9.965   7.476   0.581
50197SOL    HW252489  10.077   7.575   0.603
50198SOL     OW52490   6.646  14.622   4.952
50198SOL    HW152491   6.684  14.681   5.017
50198SOL    HW252492   6.645  14.537   4.996
50199SOL     OW52493   2.816  14.620  12.459
50199SOL    HW152494   2.791  14.712  12.458
50199SOL    HW252495   2.858  14.605  12.374
50200SOL     OW52496   6.329   2.051   3.368
50200SOL    HW152497   6.334   2.075   3.275
50200SOL    HW252498   6.420   2.049   3.397
50201SOL     OW52499   1.279  11.962  10.181
50201SOL    HW152500   1.350  12.005  10.133
50201SOL    HW252501   1.199  11.989  10.136
50202SOL     OW52502   1.413   9.199   4.137
50202SOL    HW152503   1.399   9.238   4.051
50202SOL    HW252504   1.480   9.133   4.123
50203SOL     OW52505  12.494   8.341   3.730
50203SOL    HW152506  12.450   8.347   3.814
50203SOL    HW252507  12.436   8.386   3.669
50204SOL     OW52508   3.788  10.995   6.016
50204SOL    HW152509   3.882  10.988   6.035
50204SOL    HW252510   3.757  11.062   6.077
50205SOL     OW52511   7.282   1.798  10.828
50205SOL    HW152512   7.189   1.789  10.804
50205SOL    HW252513   7.285   1.877  10.881
50206SOL     OW52514   5.016   8.800   5.799
50206SOL    HW152515   4.996   8.708   5.817
50206SOL    HW252516   5.012   8.842   5.884
50207SOL     OW52517  10.125   1.800   5.647
50207SOL    HW152518  10.154   1.867   5.584
50207SOL    HW252519  10.174   1.818   5.726
50208SOL     OW52520   2.423   2.595  11.187
50208SOL    HW152521   2.336   2.612  11.151
50208SOL    HW252522   2.413   2.513  11.235
50209SOL     OW52523  13.520   8.595  11.294
50209SOL    HW152524  13.440   8.568  11.249
50209SOL    HW252525  13.496   8.594  11.386
50210SOL     OW52526   9.333  11.039   3.466
50210SOL    HW152527   9.324  11.028   3.372
50210SOL    HW252528   9.409  10.985   3.490
50211SOL     OW52529   2.196  14.674   9.027
50211SOL    HW152530   2.159  14.762   9.028
50211SOL    HW252531   2.215  14.655   9.119
50212SOL     OW52532   2.640   0.642   5.931
50212SOL    HW152533   2.672   0.554   5.952
50212SOL    HW252534   2.685   0.700   5.992
50213SOL     OW52535   2.730   8.242   0.157
50213SOL    HW152536   2.684   8.174   0.108
50213SOL    HW252537   2.808   8.261   0.105
50214SOL     OW52538  12.789   1.175   8.701
50214SOL    HW152539  12.819   1.236   8.768
50214SOL    HW252540  12.784   1.091   8.747
50215SOL     OW52541  10.638  10.049   6.010
50215SOL    HW152542  10.574  10.118   5.989
50215SOL    HW252543  10.716  10.073   5.960
50216SOL     OW52544   3.018  12.981   3.309
50216SOL    HW152545   2.941  12.952   3.260
50216SOL    HW252546   3.044  13.063   3.267
50217SOL     OW52547   9.449  10.537  13.663
50217SOL    HW152548   9.406  10.491  13.734
50217SOL    HW252549   9.535  10.496  13.656
50218SOL     OW52550   2.560   5.029  13.948
50218SOL    HW152551   2.582   5.109  13.900
50218SOL    HW252552   2.639   4.975  13.943
50219SOL     OW52553   7.754  13.217   9.601
50219SOL    HW152554   7.673  13.250   9.641
50219SOL    HW252555   7.784  13.289   9.546
50220SOL     OW52556   0.054  12.538  12.914
50220SOL    HW152557  14.848  12.507  12.941
50220SOL    HW252558   0.101  12.460  12.885
50221SOL     OW52559  11.408   0.512   5.520
50221SOL    HW152560  11.479   0.509   5.585
50221SOL    HW252561  11.332   0.479   5.567
50222SOL     OW52562  10.571   2.447  13.230
50222SOL    HW152563  10.512   2.462  13.304
50222SOL    HW252564  10.566   2.352  13.214
50223SOL     OW52565   0.648   6.793   2.038
50223SOL    HW152566   0.650   6.786   2.133
50223SOL    HW252567   0.599   6.716   2.009
50224SOL     OW52568  13.161   8.286   3.941
50224SOL    HW152569  13.091   8.340   3.978
50224SOL    HW252570  13.214   8.347   3.891
50225SOL     OW52571  11.099  11.801   7.311
50225SOL    HW152572  11.099  11.841   7.398
50225SOL    HW252573  11.177  11.746   7.309
50226SOL     OW52574  11.861   3.760   7.800
50226SOL    HW152575  11.798   3.740   7.730
50226SOL    HW252576  11.806   3.784   7.875
50227SOL     OW52577   1.378  14.340  12.711
50227SOL    HW152578   1.381  14.353  12.616
50227SOL    HW252579   1.437  14.407  12.746
50228SOL     OW52580   6.093  12.260   2.946
50228SOL    HW152581   6.080  12.354   2.957
50228SOL    HW252582   6.006  12.222   2.954
50229SOL     OW52583  13.500   9.487  12.029
50229SOL    HW152584  13.581   9.516  12.071
50229SOL    HW252585  13.432   9.541  12.068
50230SOL     OW52586   8.776   3.101  12.732
50230SOL    HW152587   8.753   3.049  12.810
50230SOL    HW252588   8.755   3.191  12.757
50231SOL     OW52589   2.652   8.481   6.998
50231SOL    HW152590   2.742   8.513   7.004
50231SOL    HW252591   2.655   8.392   7.034
50232SOL     OW52592   3.049   1.271  10.977
50232SOL    HW152593   3.080   1.317  11.054
50232SOL    HW252594   2.992   1.202  11.011
50233SOL     OW52595  13.182   4.181   1.934
50233SOL    HW152596  13.227   4.234   1.869
50233SOL    HW252597  13.097   4.224   1.947
50234SOL     OW52598   7.327   7.055   8.163
50234SOL    HW152599   7.292   6.970   8.136
50234SOL    HW252600   7.390   7.078   8.094
50235SOL     OW52601   5.654  12.270  10.425
50235SOL    HW152602   5.567  12.246  10.457
50235SOL    HW252603   5.711  12.261  10.502
50236SOL     OW52604   8.949   3.754   6.697
50236SOL    HW152605   8.955   3.795   6.783
50236SOL    HW252606   8.871   3.794   6.657
50237SOL     OW52607  13.550   2.622   0.974
50237SOL    HW152608  13.460   2.593   0.988
50237SOL    HW252609  13.598   2.542   0.951
50238SOL     OW52610  10.209   7.955   4.312
50238SOL    HW152611  10.248   7.879   4.269
50238SOL    HW252612  10.228   7.942   4.405
50239SOL     OW52613  14.126   6.133   9.379
50239SOL    HW152614  14.157   6.169   9.296
50239SOL    HW252615  14.073   6.203   9.417
50240SOL     OW52616   3.250  14.173   5.582
50240SOL    HW152617   3.330  14.152   5.630
50240SOL    HW252618   3.184  14.112   5.617
50241SOL     OW52619   9.137   0.779   6.302
50241SOL    HW152620   9.119   0.685   6.299
50241SOL    HW252621   9.094   0.810   6.382
50242SOL     OW52622   4.696  14.582  13.688
50242SOL    HW152623   4.759  14.595  13.759
50242SOL    HW252624   4.717  14.496  13.652
50243SOL     OW52625  12.400   4.083   9.885
50243SOL    HW152626  12.358   4.126   9.810
50243SOL    HW252627  12.332   4.081   9.952
50244SOL     OW52628  10.580   5.081  12.284
50244SOL    HW152629  10.563   5.159  12.232
50244SOL    HW252630  10.653   5.037  12.239
50245SOL     OW52631   5.765   4.287   1.773
50245SOL    HW152632   5.805   4.373   1.786
50245SOL    HW252633   5.738   4.260   1.861
50246SOL     OW52634   9.119   6.075   1.703
50246SOL    HW152635   9.114   6.021   1.624
50246SOL    HW252636   9.077   6.021   1.770
50247SOL     OW52637  11.133   1.258   2.635
50247SOL    HW152638  11.155   1.202   2.709
50247SOL    HW252639  11.178   1.219   2.560
50248SOL     OW52640  14.070  11.947   3.380
50248SOL    HW152641  14.087  11.853   3.378
50248SOL    HW252642  14.109  11.980   3.299
50249SOL     OW52643   5.294   4.556   2.082
50249SOL    HW152644   5.200   4.567   2.095
50249SOL    HW252645   5.334   4.599   2.158
50250SOL     OW52646  10.521   9.141   7.497
50250SOL    HW152647  10.483   9.074   7.441
50250SOL    HW252648  10.544   9.095   7.578
50251SOL     OW52649   0.316   6.660   1.220
50251SOL    HW152650   0.402   6.674   1.259
50251SOL    HW252651   0.255   6.670   1.293
50252SOL     OW52652  11.810   2.018   9.441
50252SOL    HW152653  11.765   1.988   9.520
50252SOL    HW252654  11.902   1.998   9.457
50253SOL     OW52655   2.696  14.343   0.345
50253SOL    HW152656   2.675  14.284   0.417
50253SOL    HW252657   2.772  14.392   0.376
50254SOL     OW52658   4.101  13.767   5.446
50254SOL    HW152659   4.069  13.711   5.376
50254SOL    HW252660   4.114  13.852   5.405
50255SOL     OW52661  13.539   2.403   7.939
50255SOL    HW152662  13.454   2.377   7.976
50255SOL    HW252663  13.529   2.392   7.845
50256SOL     OW52664   6.784   5.546  14.595
50256SOL    HW152665   6.816   5.634  14.616
50256SOL    HW252666   6.833   5.521  14.516
50257SOL     OW52667   9.458   0.004  11.774
50257SOL    HW152668   9.486  14.863  11.686
50257SOL    HW252669   9.537  14.873  11.828
50258SOL     OW52670   5.627   4.022  13.586
50258SOL    HW152671   5.589   4.008  13.499
50258SOL    HW252672   5.552   4.048  13.641
50259SOL     OW52673   7.296  10.524  13.616
50259SOL    HW152674   7.347  10.443  13.609
50259SOL    HW252675   7.205  10.495  13.628
50260SOL     OW52676  10.952   2.199   7.427
50260SOL    HW152677  10.863   2.167   7.442
50260SOL    HW252678  10.953   2.222   7.334
50261SOL     OW52679   8.933   4.090  13.992
50261SOL    HW152680   9.019   4.051  13.976
50261SOL    HW252681   8.900   4.112  13.905
50262SOL     OW52682  10.727  13.982   0.570
50262SOL    HW152683  10.780  14.004   0.647
50262SOL    HW252684  10.650  13.938   0.606
50263SOL     OW52685   6.100   3.310   5.547
50263SOL    HW152686   6.071   3.261   5.625
50263SOL    HW252687   6.178   3.357   5.576
50264SOL     OW52688  12.978   4.410   5.319
50264SOL    HW152689  12.965   4.316   5.332
50264SOL    HW252690  12.965   4.448   5.406
50265SOL     OW52691  13.413  11.879  13.063
50265SOL    HW152692  13.379  11.800  13.105
50265SOL    HW252693  13.394  11.867  12.970
50266SOL     OW52694   7.259   4.803  11.048
50266SOL    HW152695   7.216   4.802  10.962
50266SOL    HW252696   7.192   4.772  11.109
50267SOL     OW52697   6.002   9.615  14.728
50267SOL    HW152698   5.910   9.637  14.713
50267SOL    HW252699   6.009   9.605  14.823
50268SOL     OW52700  14.658  13.826   1.024
50268SOL    HW152701  14.738  13.877   1.015
50268SOL    HW252702  14.617  13.857   1.105
50269SOL     OW52703   3.575   1.931   1.332
50269SOL    HW152704   3.618   1.987   1.396
50269SOL    HW252705   3.561   1.989   1.256
50270SOL     OW52706  14.827   8.861   1.075
50270SOL    HW152707   0.005   8.867   1.000
50270SOL    HW252708  14.863   8.923   1.138
50271SOL     OW52709  10.389   8.964  10.899
50271SOL    HW152710  10.443   8.913  10.839
50271SOL    HW252711  10.393   9.054  10.866
50272SOL     OW52712   3.419   1.603   1.975
50272SOL    HW152713   3.470   1.563   1.905
50272SOL    HW252714   3.328   1.590   1.948
50273SOL     OW52715  12.302  14.463  10.235
50273SOL    HW152716  12.235  14.474  10.167
50273SOL    HW252717  12.338  14.551  10.246
50274SOL     OW52718   2.978   4.231  12.364
50274SOL    HW152719   2.900   4.285  12.380
50274SOL    HW252720   3.005   4.202  12.451
50275SOL     OW52721   7.292  13.453   3.082
50275SOL    HW152722   7.383  13.424   3.085
50275SOL    HW252723   7.241  13.377   3.111
50276SOL     OW52724  10.220  12.281  12.181
50276SOL    HW152725  10.221  12.308  12.273
50276SOL    HW252726  10.235  12.362  12.132
50277SOL     OW52727   3.062  13.776   5.604
50277SOL    HW152728   3.058  13.795   5.510
50277SOL    HW252729   3.066  13.862   5.646
50278SOL     OW52730   4.610   7.669   8.529
50278SOL    HW152731   4.645   7.580   8.538
50278SOL    HW252732   4.649   7.702   8.448
50279SOL     OW52733   7.275   7.750   7.060
50279SOL    HW152734   7.206   7.704   7.108
50279SOL    HW252735   7.229   7.814   7.006
50280SOL     OW52736  11.735   8.930   1.637
50280SOL    HW152737  11.800   9.001   1.642
50280SOL    HW252738  11.781   8.854   1.675
50281SOL     OW52739   2.402   7.286  11.073
50281SOL    HW152740   2.336   7.356  11.066
50281SOL    HW252741   2.461   7.315  11.143
50282SOL     OW52742   2.374  10.464   2.978
50282SOL    HW152743   2.465  10.454   3.007
50282SOL    HW252744   2.348  10.550   3.012
50283SOL     OW52745   0.334  12.978   0.498
50283SOL    HW152746   0.290  12.932   0.569
50283SOL    HW252747   0.413  13.014   0.538
50284SOL     OW52748   5.332  11.446   4.312
50284SOL    HW152749   5.264  11.383   4.337
50284SOL    HW252750   5.375  11.407   4.236
50285SOL     OW52751   1.563   3.149   0.687
50285SOL    HW152752   1.605   3.233   0.704
50285SOL    HW252753   1.579   3.132   0.594
50286SOL     OW52754   6.729   7.303  11.501
50286SOL    HW152755   6.798   7.237  11.494
50286SOL    HW252756   6.767   7.381  11.461
50287SOL     OW52757   4.870   6.275  11.261
50287SOL    HW152758   4.826   6.357  11.237
50287SOL    HW252759   4.809   6.233  11.322
50288SOL     OW52760  14.821   2.938  11.584
50288SOL    HW152761  14.758   3.002  11.553
50288SOL    HW252762  14.785   2.907  11.667
50289SOL     OW52763  12.577   6.356   4.153
50289SOL    HW152764  12.500   6.337   4.100
50289SOL    HW252765  12.644   6.380   4.090
50290SOL     OW52766   3.725   5.974  12.035
50290SOL    HW152767   3.679   6.058  12.027
50290SOL    HW252768   3.777   5.968  11.954
50291SOL     OW52769   8.587   5.578   0.369
50291SOL    HW152770   8.506   5.540   0.403
50291SOL    HW252771   8.657   5.529   0.413
50292SOL     OW52772   3.330  11.770  12.682
50292SOL    HW152773   3.237  11.763  12.704
50292SOL    HW252774   3.332  11.768  12.586
50293SOL     OW52775   2.335   4.936   1.658
50293SOL    HW152776   2.369   5.020   1.628
50293SOL    HW252777   2.412   4.886   1.684
50294SOL     OW52778  12.303  12.738  12.213
50294SOL    HW152779  12.338  12.651  12.231
50294SOL    HW252780  12.347  12.795  12.275
50295SOL     OW52781   7.287   9.535   3.208
50295SOL    HW152782   7.203   9.580   3.211
50295SOL    HW252783   7.279   9.467   3.275
50296SOL     OW52784   3.888   8.111  10.570
50296SOL    HW152785   3.931   8.166  10.504
50296SOL    HW252786   3.841   8.045  10.519
50297SOL     OW52787  12.325  11.949   1.547
50297SOL    HW152788  12.419  11.950   1.563
50297SOL    HW252789  12.304  11.856   1.537
50298SOL     OW52790  13.862  12.451   6.235
50298SOL    HW152791  13.861  12.458   6.140
50298SOL    HW252792  13.900  12.364   6.252
50299SOL     OW52793  11.657   1.949   6.779
50299SOL    HW152794  11.572   1.961   6.736
50299SOL    HW252795  11.705   2.029   6.762
50300SOL     OW52796   5.073  10.943   6.164
50300SOL    HW152797   5.070  10.988   6.249
50300SOL    HW252798   5.060  11.012   6.100
50301SOL     OW52799   6.309  10.060   2.153
50301SOL    HW152800   6.241  10.049   2.086
50301SOL    HW252801   6.261  10.088   2.231
50302SOL     OW52802   7.968  13.062  12.553
50302SOL    HW152803   8.015  13.145  12.565
50302SOL    HW252804   8.031  12.995  12.579
50303SOL     OW52805   3.175   6.922   2.361
50303SOL    HW152806   3.138   6.861   2.425
50303SOL    HW252807   3.270   6.908   2.366
50304SOL     OW52808   5.454   4.386   9.805
50304SOL    HW152809   5.537   4.384   9.757
50304SOL    HW252810   5.413   4.469   9.780
50305SOL     OW52811   4.452   8.386  12.419
50305SOL    HW152812   4.377   8.358  12.366
50305SOL    HW252813   4.504   8.307  12.430
50306SOL     OW52814   7.479   4.125   6.457
50306SOL    HW152815   7.500   4.111   6.549
50306SOL    HW252816   7.539   4.068   6.409
50307SOL     OW52817  11.592   1.456  10.222
50307SOL    HW152818  11.496   1.460  10.222
50307SOL    HW252819  11.617   1.493  10.306
50308SOL     OW52820  12.813  11.763   9.005
50308SOL    HW152821  12.781  11.853   9.011
50308SOL    HW252822  12.794  11.725   9.091
50309SOL     OW52823   4.877  10.209   5.343
50309SOL    HW152824   4.966  10.198   5.310
50309SOL    HW252825   4.821  10.185   5.270
50310SOL     OW52826   5.000   4.994   7.699
50310SOL    HW152827   5.015   5.067   7.758
50310SOL    HW252828   4.959   5.033   7.622
50311SOL     OW52829   1.722   4.787   0.089
50311SOL    HW152830   1.700   4.726   0.159
50311SOL    HW252831   1.785   4.848   0.128
50312SOL     OW52832   9.841   9.743   0.377
50312SOL    HW152833   9.843   9.648   0.390
50312SOL    HW252834   9.923   9.763   0.333
50313SOL     OW52835   1.546   6.371   8.668
50313SOL    HW152836   1.567   6.389   8.760
50313SOL    HW252837   1.574   6.281   8.654
50314SOL     OW52838   7.509   8.228   4.524
50314SOL    HW152839   7.467   8.214   4.609
50314SOL    HW252840   7.455   8.295   4.482
50315SOL     OW52841   0.032  11.982   2.296
50315SOL    HW152842   0.029  11.897   2.340
50315SOL    HW252843  14.836  11.983   2.239
50316SOL     OW52844   5.675   9.071   6.937
50316SOL    HW152845   5.695   8.989   6.983
50316SOL    HW252846   5.694   9.139   7.002
50317SOL     OW52847  12.544   3.498  13.898
50317SOL    HW152848  12.501   3.414  13.914
50317SOL    HW252849  12.558   3.501  13.804
50318SOL     OW52850   7.311   2.870   6.377
50318SOL    HW152851   7.394   2.887   6.421
50318SOL    HW252852   7.265   2.808   6.434
50319SOL     OW52853  13.769  10.494  13.950
50319SOL    HW152854  13.749  10.492  14.044
50319SOL    HW252855  13.738  10.580  13.921
50320SOL     OW52856   7.780  11.522   2.645
50320SOL    HW152857   7.828  11.604   2.658
50320SOL    HW252858   7.719  11.519   2.718
50321SOL     OW52859   3.587   4.714   7.241
50321SOL    HW152860   3.494   4.694   7.242
50321SOL    HW252861   3.622   4.663   7.168
50322SOL     OW52862   1.297  12.159   5.205
50322SOL    HW152863   1.304  12.243   5.251
50322SOL    HW252864   1.361  12.103   5.248
50323SOL     OW52865   8.163  14.176   7.762
50323SOL    HW152866   8.127  14.245   7.817
50323SOL    HW252867   8.094  14.109   7.760
50324SOL     OW52868   2.366  11.174   9.177
50324SOL    HW152869   2.432  11.129   9.230
50324SOL    HW252870   2.285  11.163   9.227
50325SOL     OW52871   4.689  11.120   5.476
50325SOL    HW152872   4.687  11.047   5.415
50325SOL    HW252873   4.686  11.199   5.421
50326SOL     OW52874  10.870  13.197   8.277
50326SOL    HW152875  10.964  13.192   8.292
50326SOL    HW252876  10.860  13.197   8.182
50327SOL     OW52877   5.717   5.489   6.762
50327SOL    HW152878   5.768   5.570   6.772
50327SOL    HW252879   5.639   5.515   6.713
50328SOL     OW52880   9.330   4.234  10.908
50328SOL    HW152881   9.265   4.189  10.855
50328SOL    HW252882   9.313   4.205  10.998
50329SOL     OW52883   4.019  12.312  11.540
50329SOL    HW152884   3.935  12.335  11.581
50329SOL    HW252885   4.085  12.351  11.598
50330SOL     OW52886   0.400   1.227   9.678
50330SOL    HW152887   0.492   1.241   9.703
50330SOL    HW252888   0.365   1.316   9.669
50331SOL     OW52889  12.738  10.657   4.292
50331SOL    HW152890  12.803  10.597   4.329
50331SOL    HW252891  12.663  10.650   4.351
50332SOL     OW52892   6.148   0.989   1.628
50332SOL    HW152893   6.141   0.938   1.709
50332SOL    HW252894   6.110   0.932   1.561
50333SOL     OW52895  12.492   0.146   1.042
50333SOL    HW152896  12.480   0.056   1.071
50333SOL    HW252897  12.514   0.195   1.121
50334SOL     OW52898   3.935   2.337   4.260
50334SOL    HW152899   3.858   2.281   4.276
50334SOL    HW252900   3.961   2.315   4.170
50335SOL     OW52901   8.832   1.510   3.388
50335SOL    HW152902   8.792   1.485   3.471
50335SOL    HW252903   8.835   1.606   3.390
50336SOL     OW52904  11.619  14.659   1.315
50336SOL    HW152905  11.646  14.674   1.406
50336SOL    HW252906  11.577  14.741   1.289
50337SOL     OW52907  12.788   5.833   4.299
50337SOL    HW152908  12.739   5.810   4.378
50337SOL    HW252909  12.743   5.909   4.264
50338SOL     OW52910   6.525  10.918   8.686
50338SOL    HW152911   6.517  10.897   8.779
50338SOL    HW252912   6.619  10.917   8.669
50339SOL     OW52913   9.676   0.741   3.691
50339SOL    HW152914   9.763   0.759   3.726
50339SOL    HW252915   9.635   0.683   3.755
50340SOL     OW52916   0.680   2.588  10.289
50340SOL    HW152917   0.685   2.555  10.378
50340SOL    HW252918   0.771   2.607  10.266
50341SOL     OW52919   1.644  12.886   4.722
50341SOL    HW152920   1.700  12.818   4.684
50341SOL    HW252921   1.559  12.843   4.735
50342SOL     OW52922   5.037   7.060  11.831
50342SOL    HW152923   4.976   7.132  11.816
50342SOL    HW252924   5.116   7.102  11.865
50343SOL     OW52925  13.906   4.254   7.370
50343SOL    HW152926  13.849   4.256   7.446
50343SOL    HW252927  13.988   4.216   7.403
50344SOL     OW52928   5.734  12.133   8.325
50344SOL    HW152929   5.827  12.120   8.305
50344SOL    HW252930   5.731  12.217   8.371
50345SOL     OW52931   4.591  10.449  10.888
50345SOL    HW152932   4.597  10.537  10.852
50345SOL    HW252933   4.497  10.434  10.900
50346SOL     OW52934   5.889   5.580   2.662
50346SOL    HW152935   5.854   5.601   2.749
50346SOL    HW252936   5.975   5.543   2.678
50347SOL     OW52937   9.090   5.899   0.641
50347SOL    HW152938   9.117   5.873   0.729
50347SOL    HW252939   9.012   5.953   0.654
50348SOL     OW52940  14.236   9.537   3.960
50348SOL    HW152941  14.319   9.504   3.926
50348SOL    HW252942  14.191   9.570   3.882
50349SOL     OW52943   9.325   7.725   9.485
50349SOL    HW152944   9.409   7.682   9.470
50349SOL    HW252945   9.299   7.757   9.398
50350SOL     OW52946   6.534   5.961  14.069
50350SOL    HW152947   6.445   5.956  14.035
50350SOL    HW252948   6.552   5.872  14.100
50351SOL     OW52949   8.614  13.867   8.256
50351SOL    HW152950   8.703  13.865   8.222
50351SOL    HW252951   8.559  13.843   8.181
50352SOL     OW52952   2.824   5.468   4.459
50352SOL    HW152953   2.809   5.377   4.482
50352SOL    HW252954   2.918   5.480   4.467
50353SOL     OW52955   6.995   5.080  13.623
50353SOL    HW152956   6.902   5.063  13.612
50353SOL    HW252957   7.010   5.165  13.581
50354SOL     OW52958   8.711   0.543   1.195
50354SOL    HW152959   8.795   0.502   1.213
50354SOL    HW252960   8.676   0.495   1.120
50355SOL     OW52961   3.485   1.075   4.696
50355SOL    HW152962   3.475   1.118   4.611
50355SOL    HW252963   3.395   1.065   4.729
50356SOL     OW52964   3.261   2.520   7.815
50356SOL    HW152965   3.295   2.520   7.725
50356SOL    HW252966   3.290   2.436   7.851
50357SOL     OW52967   3.370  12.202   0.516
50357SOL    HW152968   3.357  12.291   0.551
50357SOL    HW252969   3.434  12.163   0.576
50358SOL     OW52970   4.867   0.196   8.782
50358SOL    HW152971   4.910   0.166   8.702
50358SOL    HW252972   4.872   0.292   8.777
50359SOL     OW52973   7.006   4.516  11.672
50359SOL    HW152974   7.034   4.553  11.756
50359SOL    HW252975   6.943   4.580  11.638
50360SOL     OW52976   8.909   4.970  13.092
50360SOL    HW152977   9.004   4.973  13.087
50360SOL    HW252978   8.888   5.000  13.180
50361SOL     OW52979   5.129  14.000  10.616
50361SOL    HW152980   5.100  13.916  10.580
50361SOL    HW252981   5.061  14.062  10.589
50362SOL     OW52982  10.113   6.760   6.030
50362SOL    HW152983  10.062   6.833   5.994
50362SOL    HW252984  10.203   6.776   6.000
50363SOL     OW52985  11.313   2.828  12.516
50363SOL    HW152986  11.241   2.782  12.560
50363SOL    HW252987  11.314   2.792  12.427
50364SOL     OW52988   2.290   7.029   8.674
50364SOL    HW152989   2.293   7.030   8.769
50364SOL    HW252990   2.251   7.113   8.650
50365SOL     OW52991   7.406   2.112   2.658
50365SOL    HW152992   7.324   2.077   2.692
50365SOL    HW252993   7.413   2.077   2.569
50366SOL     OW52994  14.580   5.216   3.987
50366SOL    HW152995  14.593   5.311   3.983
50366SOL    HW252996  14.510   5.199   3.924
50367SOL     OW52997  12.457   2.705   9.155
50367SOL    HW152998  12.521   2.698   9.085
50367SOL    HW252999  12.372   2.698   9.112
50368SOL     OW53000   8.192   4.794   5.786
50368SOL    HW153001   8.193   4.778   5.881
50368SOL    HW253002   8.264   4.855   5.771
50369SOL     OW53003   3.608  11.800  11.579
50369SOL    HW153004   3.654  11.728  11.536
50369SOL    HW253005   3.544  11.758  11.636
50370SOL     OW53006  12.170  14.802   9.589
50370SOL    HW153007  12.229  14.815   9.663
50370SOL    HW253008  12.090  14.766   9.629
50371SOL     OW53009   8.054  10.769  10.814
50371SOL    HW153010   8.076  10.685  10.774
50371SOL    HW253011   8.122  10.829  10.784
50372SOL     OW53012   7.611   1.595   1.599
50372SOL    HW153013   7.653   1.510   1.610
50372SOL    HW253014   7.681   1.653   1.569
50373SOL     OW53015   6.252   1.090   9.195
50373SOL    HW153016   6.228   1.002   9.224
50373SOL    HW253017   6.258   1.083   9.099
50374SOL     OW53018  14.056  11.769   8.010
50374SOL    HW153019  14.045  11.781   8.105
50374SOL    HW253020  13.969  11.783   7.973
50375SOL     OW53021   3.087  13.694   4.753
50375SOL    HW153022   3.012  13.744   4.786
50375SOL    HW253023   3.108  13.734   4.669
50376SOL     OW53024  14.140   2.865   2.839
50376SOL    HW153025  14.162   2.870   2.746
50376SOL    HW253026  14.100   2.949   2.858
50377SOL     OW53027   6.946   9.357   8.912
50377SOL    HW153028   6.984   9.273   8.885
50377SOL    HW253029   6.853   9.350   8.890
50378SOL     OW53030   1.154   3.235   5.629
50378SOL    HW153031   1.067   3.235   5.588
50378SOL    HW253032   1.189   3.322   5.611
50379SOL     OW53033   6.688  12.736  10.396
50379SOL    HW153034   6.593  12.727  10.386
50379SOL    HW253035   6.707  12.693  10.479
50380SOL     OW53036   3.565   3.819   4.426
50380SOL    HW153037   3.562   3.744   4.485
50380SOL    HW253038   3.614   3.789   4.350
50381SOL     OW53039   3.953  11.511   9.323
50381SOL    HW153040   3.962  11.416   9.336
50381SOL    HW253041   4.042  11.545   9.333
50382SOL     OW53042  10.526   2.661   4.514
50382SOL    HW153043  10.440   2.620   4.526
50382SOL    HW253044  10.517   2.747   4.554
50383SOL     OW53045   4.730  10.585  11.491
50383SOL    HW153046   4.788  10.546  11.557
50383SOL    HW253047   4.773  10.567  11.408
50384SOL     OW53048   9.568   0.321   7.002
50384SOL    HW153049   9.502   0.346   7.067
50384SOL    HW253050   9.616   0.250   7.044
50385SOL     OW53051  11.917   7.103   1.490
50385SOL    HW153052  11.857   7.029   1.479
50385SOL    HW253053  11.880   7.172   1.435
50386SOL     OW53054   2.649   4.852   8.592
50386SOL    HW153055   2.668   4.782   8.530
50386SOL    HW253056   2.640   4.930   8.537
50387SOL     OW53057  13.152   2.244   1.474
50387SOL    HW153058  13.126   2.153   1.454
50387SOL    HW253059  13.121   2.294   1.399
50388SOL     OW53060  13.823   6.586   5.147
50388SOL    HW153061  13.845   6.650   5.080
50388SOL    HW253062  13.898   6.586   5.206
50389SOL     OW53063   2.957   2.274   3.662
50389SOL    HW153064   3.012   2.230   3.597
50389SOL    HW253065   2.953   2.212   3.735
50390SOL     OW53066   1.785   3.267   7.438
50390SOL    HW153067   1.771   3.295   7.348
50390SOL    HW253068   1.733   3.327   7.491
50391SOL     OW53069  10.243   1.610   1.520
50391SOL    HW153070  10.217   1.658   1.441
50391SOL    HW253071  10.197   1.526   1.513
50392SOL     OW53072   4.764   8.354   9.112
50392SOL    HW153073   4.803   8.276   9.071
50392SOL    HW253074   4.673   8.329   9.127
50393SOL     OW53075   1.257  11.542  10.919
50393SOL    HW153076   1.329  11.583  10.965
50393SOL    HW253077   1.236  11.464  10.971
50394SOL     OW53078  14.490   7.883   7.056
50394SOL    HW153079  14.419   7.854   6.999
50394SOL    HW253080  14.516   7.968   7.020
50395SOL     OW53081   3.963   3.496   2.328
50395SOL    HW153082   3.969   3.450   2.411
50395SOL    HW253083   3.998   3.584   2.346
50396SOL     OW53084   6.788   0.560   3.605
50396SOL    HW153085   6.844   0.488   3.633
50396SOL    HW253086   6.702   0.540   3.642
50397SOL     OW53087  14.514   4.677   9.591
50397SOL    HW153088  14.560   4.608   9.544
50397SOL    HW253089  14.466   4.631   9.660
50398SOL     OW53090  14.738  12.988   1.552
50398SOL    HW153091  14.671  12.993   1.483
50398SOL    HW253092  14.690  12.958   1.629
50399SOL     OW53093  10.139   3.940   6.381
50399SOL    HW153094  10.093   3.877   6.325
50399SOL    HW253095  10.229   3.939   6.349
50400SOL     OW53096   8.617  13.406  14.731
50400SOL    HW153097   8.579  13.430  14.816
50400SOL    HW253098   8.646  13.489  14.694
50401SOL     OW53099  10.048   6.684  13.092
50401SOL    HW153100  10.060   6.744  13.165
50401SOL    HW253101   9.953   6.673  13.084
50402SOL     OW53102   7.976   8.199  14.139
50402SOL    HW153103   8.032   8.191  14.216
50402SOL    HW253104   7.888   8.185  14.173
50403SOL     OW53105   3.397  13.392   1.913
50403SOL    HW153106   3.463  13.387   1.982
50403SOL    HW253107   3.445  13.374   1.832
50404SOL     OW53108   3.517   1.007  10.563
50404SOL    HW153109   3.521   0.992  10.658
50404SOL    HW253110   3.514   0.920  10.525
50405SOL     OW53111   0.446   6.210   7.477
50405SOL    HW153112   0.384   6.279   7.453
50405SOL    HW253113   0.474   6.173   7.393
50406SOL     OW53114  14.642   3.965  10.312
50406SOL    HW153115  14.703   3.919  10.255
50406SOL    HW253116  14.573   3.995  10.254
50407SOL     OW53117   8.885  12.109  10.514
50407SOL    HW153118   8.819  12.054  10.557
50407SOL    HW253119   8.936  12.146  10.586
50408SOL     OW53120  14.698  12.748   9.264
50408SOL    HW153121  14.675  12.830   9.221
50408SOL    HW253122  14.616  12.718   9.304
50409SOL     OW53123  10.460   3.610   8.715
50409SOL    HW153124  10.403   3.533   8.715
50409SOL    HW253125  10.522   3.595   8.644
50410SOL     OW53126   2.054  11.454   8.298
50410SOL    HW153127   1.978  11.505   8.324
50410SOL    HW253128   2.129  11.499   8.338
50411SOL     OW53129  12.407   5.001  12.920
50411SOL    HW153130  12.316   5.030  12.917
50411SOL    HW253131  12.409   4.925  12.861
50412SOL     OW53132   1.359  14.009   2.622
50412SOL    HW153133   1.314  13.925   2.622
50412SOL    HW253134   1.326  14.054   2.544
50413SOL     OW53135   2.936   8.775  14.780
50413SOL    HW153136   2.874   8.704  14.799
50413SOL    HW253137   2.995   8.776  14.855
50414SOL     OW53138   4.705   7.315   6.318
50414SOL    HW153139   4.784   7.269   6.290
50414SOL    HW253140   4.709   7.313   6.414
50415SOL     OW53141   0.408  14.793   4.495
50415SOL    HW153142   0.364  14.724   4.446
50415SOL    HW253143   0.438  14.749   4.575
50416SOL     OW53144   9.688  10.058   2.216
50416SOL    HW153145   9.698  10.096   2.129
50416SOL    HW253146   9.593  10.052   2.228
50417SOL     OW53147   0.717   7.511   9.881
50417SOL    HW153148   0.710   7.606   9.877
50417SOL    HW253149   0.810   7.494   9.901
50418SOL     OW53150  11.692  11.946  13.253
50418SOL    HW153151  11.655  11.987  13.175
50418SOL    HW253152  11.617  11.904  13.296
50419SOL     OW53153  13.243   4.928  14.059
50419SOL    HW153154  13.261   4.899  13.969
50419SOL    HW253155  13.197   5.011  14.048
50420SOL     OW53156  14.453   2.294  12.739
50420SOL    HW153157  14.411   2.215  12.772
50420SOL    HW253158  14.530   2.263  12.692
50421SOL     OW53159  14.397   5.203  13.369
50421SOL    HW153160  14.440   5.143  13.308
50421SOL    HW253161  14.449   5.283  13.365
50422SOL     OW53162  13.062   6.965   6.609
50422SOL    HW153163  13.111   6.993   6.687
50422SOL    HW253164  12.984   7.021   6.608
50423SOL     OW53165   4.985   2.886   7.733
50423SOL    HW153166   5.069   2.884   7.779
50423SOL    HW253167   4.978   2.799   7.693
50424SOL     OW53168  10.561   6.743  12.323
50424SOL    HW153169  10.629   6.695  12.372
50424SOL    HW253170  10.479   6.713  12.362
50425SOL     OW53171   4.252   9.564  10.526
50425SOL    HW153172   4.240   9.571  10.621
50425SOL    HW253173   4.311   9.637  10.505
50426SOL     OW53174   0.742   3.936  10.163
50426SOL    HW153175   0.695   3.888  10.095
50426SOL    HW253176   0.799   3.871  10.204
50427SOL     OW53177   0.671   8.677  14.671
50427SOL    HW153178   0.724   8.690  14.592
50427SOL    HW253179   0.681   8.584  14.692
50428SOL     OW53180   2.747  12.810   8.596
50428SOL    HW153181   2.808  12.762   8.653
50428SOL    HW253182   2.795  12.888   8.570
50429SOL     OW53183   5.194   2.929   2.091
50429SOL    HW153184   5.267   2.879   2.128
50429SOL    HW253185   5.147   2.962   2.168
50430SOL     OW53186  12.060   5.669  13.438
50430SOL    HW153187  12.003   5.714  13.377
50430SOL    HW253188  12.098   5.738  13.492
50431SOL     OW53189   9.179   4.238  13.757
50431SOL    HW153190   9.172   4.333  13.763
50431SOL    HW253191   9.273   4.221  13.746
50432SOL     OW53192   1.349   2.388   6.473
50432SOL    HW153193   1.401   2.347   6.404
50432SOL    HW253194   1.394   2.470   6.492
50433SOL     OW53195   8.703   1.974   4.213
50433SOL    HW153196   8.632   2.002   4.155
50433SOL    HW253197   8.761   2.050   4.218
50434SOL     OW53198   6.564   4.190   7.979
50434SOL    HW153199   6.533   4.127   8.043
50434SOL    HW253200   6.558   4.275   8.023
50435SOL     OW53201   6.554  12.559   9.719
50435SOL    HW153202   6.563  12.589   9.629
50435SOL    HW253203   6.468  12.517   9.722
50436SOL     OW53204   1.459  13.458   8.280
50436SOL    HW153205   1.452  13.458   8.376
50436SOL    HW253206   1.554  13.451   8.264
50437SOL     OW53207   4.888  13.866   5.323
50437SOL    HW153208   4.885  13.777   5.357
50437SOL    HW253209   4.799  13.899   5.334
50438SOL     OW53210  14.297  13.341   4.264
50438SOL    HW153211  14.374  13.391   4.291
50438SOL    HW253212  14.242  13.403   4.217
50439SOL     OW53213   4.471   3.446  14.468
50439SOL    HW153214   4.378   3.426  14.469
50439SOL    HW253215   4.476   3.540  14.484
50440SOL     OW53216   9.899   9.602   3.328
50440SOL    HW153217   9.948   9.522   3.308
50440SOL    HW253218   9.945   9.639   3.403
50441SOL     OW53219   6.095   9.451   2.189
50441SOL    HW153220   6.146   9.532   2.194
50441SOL    HW253221   6.150   9.385   2.232
50442SOL     OW53222  12.853   6.042   4.852
50442SOL    HW153223  12.783   5.995   4.897
50442SOL    HW253224  12.808   6.092   4.784
50443SOL     OW53225   4.305  11.951   5.076
50443SOL    HW153226   4.335  11.863   5.100
50443SOL    HW253227   4.210  11.946   5.083
50444SOL     OW53228   6.611   2.588   8.802
50444SOL    HW153229   6.591   2.579   8.709
50444SOL    HW253230   6.560   2.520   8.845
50445SOL     OW53231   9.896   6.093   4.624
50445SOL    HW153232   9.922   6.184   4.617
50445SOL    HW253233   9.814   6.095   4.674
50446SOL     OW53234   6.026   4.084   1.580
50446SOL    HW153235   5.986   4.170   1.569
50446SOL    HW253236   5.969   4.024   1.533
50447SOL     OW53237   9.526   5.368   0.324
50447SOL    HW153238   9.453   5.411   0.279
50447SOL    HW253239   9.602   5.389   0.270
50448SOL     OW53240   4.276  14.196  10.532
50448SOL    HW153241   4.226  14.182  10.452
50448SOL    HW253242   4.360  14.152  10.517
50449SOL     OW53243  12.138   4.787   6.122
50449SOL    HW153244  12.080   4.835   6.181
50449SOL    HW253245  12.221   4.833   6.127
50450SOL     OW53246  11.684  12.595   3.413
50450SOL    HW153247  11.620  12.611   3.344
50450SOL    HW253248  11.682  12.674   3.467
50451SOL     OW53249   1.911   3.198  10.945
50451SOL    HW153250   1.997   3.192  10.905
50451SOL    HW253251   1.850   3.192  10.871
50452SOL     OW53252  12.592  14.851   5.797
50452SOL    HW153253  12.667  14.845   5.738
50452SOL    HW253254  12.622  14.810   5.878
50453SOL     OW53255   1.794   9.404   0.908
50453SOL    HW153256   1.830   9.415   0.820
50453SOL    HW253257   1.701   9.425   0.899
50454SOL     OW53258  11.232  12.239   4.467
50454SOL    HW153259  11.186  12.317   4.500
50454SOL    HW253260  11.276  12.203   4.544
50455SOL     OW53261  11.334   2.076   7.404
50455SOL    HW153262  11.270   2.013   7.371
50455SOL    HW253263  11.419   2.037   7.384
50456SOL     OW53264   1.256   0.055  12.305
50456SOL    HW153265   1.168   0.069  12.338
50456SOL    HW253266   1.304   0.018  12.379
50457SOL     OW53267  13.980   3.894   4.515
50457SOL    HW153268  13.911   3.909   4.580
50457SOL    HW253269  14.057   3.871   4.567
50458SOL     OW53270   1.897  13.365   0.637
50458SOL    HW153271   1.814  13.320   0.624
50458SOL    HW253272   1.910  13.415   0.556
50459SOL     OW53273   0.503   0.213   5.053
50459SOL    HW153274   0.428   0.268   5.076
50459SOL    HW253275   0.552   0.265   4.989
50460SOL     OW53276   3.056   1.716   7.678
50460SOL    HW153277   2.984   1.654   7.664
50460SOL    HW253278   3.098   1.723   7.593
50461SOL     OW53279   1.448  10.273   7.300
50461SOL    HW153280   1.488  10.195   7.336
50461SOL    HW253281   1.391  10.241   7.230
50462SOL     OW53282   1.307  12.361  10.169
50462SOL    HW153283   1.278  12.280  10.128
50462SOL    HW253284   1.295  12.428  10.101
50463SOL     OW53285   9.930  14.819   4.409
50463SOL    HW153286   9.991   0.002   4.447
50463SOL    HW253287   9.862  14.808   4.475
50464SOL     OW53288  13.680   9.985   4.234
50464SOL    HW153289  13.620  10.040   4.184
50464SOL    HW253290  13.716   9.923   4.170
50465SOL     OW53291   3.853   4.117   3.198
50465SOL    HW153292   3.862   4.196   3.144
50465SOL    HW253293   3.863   4.148   3.288
50466SOL     OW53294   2.261   5.246  13.900
50466SOL    HW153295   2.259   5.298  13.820
50466SOL    HW253296   2.352   5.250  13.929
50467SOL     OW53297   7.891  13.956   1.497
50467SOL    HW153298   7.887  13.904   1.417
50467SOL    HW253299   7.968  13.923   1.544
50468SOL     OW53300  10.622   0.159  14.659
50468SOL    HW153301  10.531   0.152  14.628
50468SOL    HW253302  10.645   0.250  14.643
50469SOL     OW53303  14.846   7.423   5.847
50469SOL    HW153304   0.033   7.477   5.887
50469SOL    HW253305  14.767   7.476   5.851
50470SOL     OW53306   1.788   3.842  12.248
50470SOL    HW153307   1.739   3.854  12.166
50470SOL    HW253308   1.864   3.900  12.239
50471SOL     OW53309   8.090   2.867   5.092
50471SOL    HW153310   8.103   2.937   5.155
50471SOL    HW253311   8.013   2.894   5.042
50472SOL     OW53312   7.093   3.136  11.949
50472SOL    HW153313   7.183   3.163  11.933
50472SOL    HW253314   7.101   3.051  11.993
50473SOL     OW53315   4.125   2.320   7.018
50473SOL    HW153316   4.039   2.323   7.061
50473SOL    HW253317   4.187   2.332   7.090
50474SOL     OW53318   9.069   9.708   9.061
50474SOL    HW153319   9.063   9.793   9.105
50474SOL    HW253320   9.046   9.644   9.127
50475SOL     OW53321   3.977   5.182  10.979
50475SOL    HW153322   3.997   5.179  11.072
50475SOL    HW253323   3.930   5.101  10.961
50476SOL     OW53324   5.295  12.087  11.542
50476SOL    HW153325   5.253  12.027  11.604
50476SOL    HW253326   5.228  12.105  11.477
50477SOL     OW53327   2.110   5.390   3.005
50477SOL    HW153328   2.157   5.389   2.921
50477SOL    HW253329   2.038   5.452   2.991
50478SOL     OW53330   2.111  12.443   7.523
50478SOL    HW153331   2.040  12.408   7.576
50478SOL    HW253332   2.159  12.501   7.583
50479SOL     OW53333  11.649  13.082   8.914
50479SOL    HW153334  11.732  13.119   8.945
50479SOL    HW253335  11.663  13.068   8.821
50480SOL     OW53336  13.862   8.860  11.743
50480SOL    HW153337  13.816   8.783  11.776
50480SOL    HW253338  13.939   8.869  11.799
50481SOL     OW53339  11.246   5.490   0.809
50481SOL    HW153340  11.186   5.441   0.753
50481SOL    HW253341  11.307   5.531   0.747
50482SOL     OW53342  10.601   0.017  10.775
50482SOL    HW153343  10.689   0.037  10.744
50482SOL    HW253344  10.581  14.812  10.736
50483SOL     OW53345  13.547   7.507  12.487
50483SOL    HW153346  13.621   7.530  12.543
50483SOL    HW253347  13.499   7.440  12.538
50484SOL     OW53348  13.653   9.161  11.892
50484SOL    HW153349  13.673   9.088  11.833
50484SOL    HW253350  13.709   9.233  11.860
50485SOL     OW53351   5.228  12.679   5.628
50485SOL    HW153352   5.280  12.757   5.649
50485SOL    HW253353   5.144  12.713   5.597
50486SOL     OW53354   0.313   8.174   5.076
50486SOL    HW153355   0.306   8.231   4.999
50486SOL    HW253356   0.226   8.136   5.086
50487SOL     OW53357   2.574   3.551   7.241
50487SOL    HW153358   2.666   3.547   7.269
50487SOL    HW253359   2.533   3.609   7.306
50488SOL     OW53360  12.558   5.979   6.389
50488SOL    HW153361  12.567   5.969   6.295
50488SOL    HW253362  12.508   5.901   6.417
50489SOL     OW53363   6.959   3.794  14.547
50489SOL    HW153364   6.993   3.708  14.523
50489SOL    HW253365   6.945   3.789  14.641
50490SOL     OW53366   5.437  10.790  11.432
50490SOL    HW153367   5.437  10.727  11.504
50490SOL    HW253368   5.438  10.876  11.475
50491SOL     OW53369   3.814  13.612   3.895
50491SOL    HW153370   3.816  13.532   3.947
50491SOL    HW253371   3.841  13.681   3.956
50492SOL     OW53372   7.940   6.460   0.511
50492SOL    HW153373   7.861   6.439   0.461
50492SOL    HW253374   7.998   6.503   0.448
50493SOL     OW53375  13.573   1.173   6.965
50493SOL    HW153376  13.561   1.268   6.966
50493SOL    HW253377  13.656   1.161   6.919
50494SOL     OW53378   3.547   8.676  14.471
50494SOL    HW153379   3.507   8.611  14.413
50494SOL    HW253380   3.553   8.755  14.418
50495SOL     OW53381   8.106   6.030   8.381
50495SOL    HW153382   8.061   6.103   8.423
50495SOL    HW253383   8.199   6.044   8.401
50496SOL     OW53384   8.224   0.957   4.680
50496SOL    HW153385   8.240   1.007   4.600
50496SOL    HW253386   8.310   0.926   4.706
50497SOL     OW53387   0.112   8.410   7.546
50497SOL    HW153388   0.124   8.500   7.516
50497SOL    HW253389   0.173   8.401   7.618
50498SOL     OW53390   3.845   4.013   4.779
50498SOL    HW153391   3.918   3.963   4.816
50498SOL    HW253392   3.874   4.037   4.691
50499SOL     OW53393  11.650   3.304   8.191
50499SOL    HW153394  11.657   3.273   8.100
50499SOL    HW253395  11.728   3.268   8.234
50500SOL     OW53396  12.395  14.757   2.388
50500SOL    HW153397  12.365  14.848   2.384
50500SOL    HW253398  12.475  14.760   2.441
50501SOL     OW53399   7.883   0.642   0.695
50501SOL    HW153400   7.957   0.679   0.744
50501SOL    HW253401   7.812   0.705   0.707
50502SOL     OW53402   3.690  11.804   6.606
50502SOL    HW153403   3.771  11.780   6.651
50502SOL    HW253404   3.698  11.765   6.519
50503SOL     OW53405   2.710   7.615   7.880
50503SOL    HW153406   2.732   7.558   7.806
50503SOL    HW253407   2.688   7.699   7.839
50504SOL     OW53408   6.329   0.409   8.965
50504SOL    HW153409   6.309   0.358   8.886
50504SOL    HW253410   6.388   0.478   8.934
50505SOL     OW53411   6.205  13.195   1.196
50505SOL    HW153412   6.224  13.287   1.214
50505SOL    HW253413   6.263  13.146   1.255
50506SOL     OW53414  11.351   6.916   6.799
50506SOL    HW153415  11.444   6.901   6.782
50506SOL    HW253416  11.314   6.829   6.808
50507SOL     OW53417   8.271   7.793  12.069
50507SOL    HW153418   8.318   7.744  12.002
50507SOL    HW253419   8.265   7.733  12.143
50508SOL     OW53420  12.605  12.748   4.819
50508SOL    HW153421  12.543  12.819   4.837
50508SOL    HW253422  12.691  12.789   4.830
50509SOL     OW53423  13.137   9.462   4.203
50509SOL    HW153424  13.057   9.410   4.192
50509SOL    HW253425  13.168   9.476   4.113
50510SOL     OW53426  11.553   4.109   3.448
50510SOL    HW153427  11.500   4.087   3.524
50510SOL    HW253428  11.525   4.047   3.380
50511SOL     OW53429   7.819   1.633   0.259
50511SOL    HW153430   7.804   1.539   0.251
50511SOL    HW253431   7.901   1.648   0.211
50512SOL     OW53432  13.434   4.355  14.823
50512SOL    HW153433  13.508   4.341   0.002
50512SOL    HW253434  13.358   4.359   0.001
50513SOL     OW53435   1.871  11.299   0.968
50513SOL    HW153436   1.811  11.267   0.900
50513SOL    HW253437   1.952  11.252   0.951
50514SOL     OW53438   9.924   5.903  11.761
50514SOL    HW153439   9.880   5.867  11.685
50514SOL    HW253440   9.853   5.930  11.820
50515SOL     OW53441  11.185   2.812   4.084
50515SOL    HW153442  11.236   2.874   4.032
50515SOL    HW253443  11.233   2.729   4.076
50516SOL     OW53444  14.731   9.459   4.917
50516SOL    HW153445  14.803   9.516   4.944
50516SOL    HW253446  14.736   9.385   4.977
50517SOL     OW53447   6.949   8.674  12.528
50517SOL    HW153448   7.027   8.725  12.505
50517SOL    HW253449   6.947   8.604  12.463
50518SOL     OW53450   6.803  13.790   8.981
50518SOL    HW153451   6.770  13.807   8.892
50518SOL    HW253452   6.848  13.706   8.973
50519SOL     OW53453  12.884  14.591   1.530
50519SOL    HW153454  12.930  14.604   1.613
50519SOL    HW253455  12.921  14.509   1.495
50520SOL     OW53456   8.625   3.438   3.372
50520SOL    HW153457   8.541   3.418   3.414
50520SOL    HW253458   8.670   3.494   3.435
50521SOL     OW53459   8.021   1.842   1.710
50521SOL    HW153460   7.958   1.913   1.726
50521SOL    HW253461   8.084   1.879   1.648
50522SOL     OW53462  13.466  12.214   0.103
50522SOL    HW153463  13.511  12.137   0.069
50522SOL    HW253464  13.506  12.287   0.055
50523SOL     OW53465   6.185   9.525   9.452
50523SOL    HW153466   6.191   9.612   9.413
50523SOL    HW253467   6.257   9.522   9.515
50524SOL     OW53468  10.929  14.843   8.060
50524SOL    HW153469  10.928  14.880   7.971
50524SOL    HW253470  10.837  14.836   8.084
50525SOL     OW53471   7.153   1.527   3.274
50525SOL    HW153472   7.144   1.471   3.197
50525SOL    HW253473   7.132   1.470   3.348
50526SOL     OW53474   0.794   8.823   7.340
50526SOL    HW153475   0.812   8.886   7.409
50526SOL    HW253476   0.827   8.864   7.260
50527SOL     OW53477  14.072  10.882  12.265
50527SOL    HW153478  14.153  10.873  12.315
50527SOL    HW253479  14.072  10.974  12.238
50528SOL     OW53480   9.569  13.086   9.193
50528SOL    HW153481   9.572  13.051   9.104
50528SOL    HW253482   9.648  13.138   9.201
50529SOL     OW53483   8.943   4.170   2.234
50529SOL    HW153484   8.850   4.167   2.260
50529SOL    HW253485   8.952   4.099   2.172
50530SOL     OW53486   7.599   9.829  12.702
50530SOL    HW153487   7.638   9.751  12.664
50530SOL    HW253488   7.577   9.804  12.791
50531SOL     OW53489   0.201   2.005   8.120
50531SOL    HW153490   0.106   2.002   8.134
50531SOL    HW253491   0.236   2.040   8.201
50532SOL     OW53492  10.049  11.561   3.272
50532SOL    HW153493  10.113  11.623   3.237
50532SOL    HW253494  10.079  11.543   3.361
50533SOL     OW53495  14.634  12.074  10.752
50533SOL    HW153496  14.605  11.985  10.768
50533SOL    HW253497  14.653  12.110  10.838
50534SOL     OW53498  10.952   3.031  10.230
50534SOL    HW153499  10.979   3.042  10.321
50534SOL    HW253500  11.029   3.053  10.179
50535SOL     OW53501   5.191   3.122   1.862
50535SOL    HW153502   5.161   3.059   1.928
50535SOL    HW253503   5.138   3.102   1.785
50536SOL     OW53504  14.141   8.511   8.765
50536SOL    HW153505  14.121   8.510   8.672
50536SOL    HW253506  14.102   8.430   8.799
50537SOL     OW53507  14.094   2.099   6.803
50537SOL    HW153508  14.070   2.154   6.728
50537SOL    HW253509  14.181   2.131   6.829
50538SOL     OW53510  14.523  10.018   0.539
50538SOL    HW153511  14.612  10.002   0.571
50538SOL    HW253512  14.478  10.059   0.613
50539SOL     OW53513   0.647   4.188   7.840
50539SOL    HW153514   0.680   4.130   7.910
50539SOL    HW253515   0.722   4.198   7.781
50540SOL     OW53516  11.620  13.371   0.562
50540SOL    HW153517  11.715  13.379   0.552
50540SOL    HW253518  11.600  13.419   0.642
50541SOL     OW53519   9.983   5.077   3.786
50541SOL    HW153520  10.001   5.045   3.697
50541SOL    HW253521  10.013   5.168   3.785
50542SOL     OW53522   3.579  11.953   0.386
50542SOL    HW153523   3.587  12.011   0.310
50542SOL    HW253524   3.487  11.960   0.412
50543SOL     OW53525  14.730   5.578   9.528
50543SOL    HW153526  14.699   5.490   9.505
50543SOL    HW253527  14.653   5.634   9.519
50544SOL     OW53528   2.818  13.607   3.519
50544SOL    HW153529   2.872  13.577   3.447
50544SOL    HW253530   2.792  13.696   3.495
50545SOL     OW53531   0.022   1.238  13.693
50545SOL    HW153532  14.835   1.241  13.761
50545SOL    HW253533   0.100   1.205  13.737
50546SOL     OW53534   0.980  12.199   6.635
50546SOL    HW153535   1.006  12.194   6.727
50546SOL    HW253536   0.901  12.146   6.630
50547SOL     OW53537  12.590   8.768   9.575
50547SOL    HW153538  12.652   8.721   9.631
50547SOL    HW253539  12.539   8.699   9.533
50548SOL     OW53540  11.154   9.339   2.521
50548SOL    HW153541  11.225   9.354   2.584
50548SOL    HW253542  11.074   9.341   2.573
50549SOL     OW53543   4.555  14.491   1.703
50549SOL    HW153544   4.612  14.530   1.638
50549SOL    HW253545   4.571  14.542   1.783
50550SOL     OW53546   5.725   4.710   5.839
50550SOL    HW153547   5.740   4.699   5.745
50550SOL    HW253548   5.726   4.804   5.852
50551SOL     OW53549   6.147  14.811   6.543
50551SOL    HW153550   6.229  14.775   6.508
50551SOL    HW253551   6.086  14.737   6.543
50552SOL     OW53552   6.115   4.497  14.354
50552SOL    HW153553   6.091   4.455  14.436
50552SOL    HW253554   6.202   4.534  14.370
50553SOL     OW53555  11.630   4.957   0.980
50553SOL    HW153556  11.671   4.891   1.036
50553SOL    HW253557  11.701   5.019   0.961
50554SOL     OW53558  13.944   2.794   0.724
50554SOL    HW153559  13.957   2.700   0.735
50554SOL    HW253560  13.851   2.803   0.701
50555SOL     OW53561   3.213  11.469   7.143
50555SOL    HW153562   3.265  11.425   7.076
50555SOL    HW253563   3.217  11.411   7.219
50556SOL     OW53564  12.168  14.353   2.705
50556SOL    HW153565  12.076  14.379   2.711
50556SOL    HW253566  12.201  14.360   2.794
50557SOL     OW53567   8.467   8.164   1.465
50557SOL    HW153568   8.413   8.203   1.533
50557SOL    HW253569   8.515   8.238   1.427
50558SOL     OW53570   4.135  10.133   5.022
50558SOL    HW153571   4.069  10.086   4.970
50558SOL    HW253572   4.203  10.068   5.038
50559SOL     OW53573  12.144   2.012   2.073
50559SOL    HW153574  12.220   2.071   2.081
50559SOL    HW253575  12.099   2.019   2.157
50560SOL     OW53576   0.534  10.333  13.130
50560SOL    HW153577   0.628  10.342  13.114
50560SOL    HW253578   0.500  10.289  13.052
50561SOL     OW53579  14.559   6.316   2.487
50561SOL    HW153580  14.652   6.306   2.467
50561SOL    HW253581  14.556   6.386   2.553
50562SOL     OW53582   2.203   8.037   2.901
50562SOL    HW153583   2.180   8.113   2.954
50562SOL    HW253584   2.281   8.065   2.852
50563SOL     OW53585   3.439  12.684  11.675
50563SOL    HW153586   3.502  12.746  11.638
50563SOL    HW253587   3.459  12.601  11.631
50564SOL     OW53588   3.620   1.304   8.998
50564SOL    HW153589   3.640   1.385   9.044
50564SOL    HW253590   3.537   1.275   9.034
50565SOL     OW53591   9.737   5.123   5.600
50565SOL    HW153592   9.679   5.048   5.613
50565SOL    HW253593   9.806   5.090   5.543
50566SOL     OW53594   3.708  12.672  11.114
50566SOL    HW153595   3.623  12.638  11.085
50566SOL    HW253596   3.770  12.601  11.098
50567SOL     OW53597  12.773   9.455   2.138
50567SOL    HW153598  12.698   9.397   2.124
50567SOL    HW253599  12.840   9.423   2.078
50568SOL     OW53600  11.161  10.068  12.577
50568SOL    HW153601  11.244  10.104  12.547
50568SOL    HW253602  11.117  10.039  12.497
50569SOL     OW53603   6.019  13.288  12.015
50569SOL    HW153604   5.935  13.283  12.061
50569SOL    HW253605   6.012  13.366  11.959
50570SOL     OW53606  13.643   0.500  10.322
50570SOL    HW153607  13.608   0.572  10.376
50570SOL    HW253608  13.732   0.486  10.355
50571SOL     OW53609  13.301   7.437   3.080
50571SOL    HW153610  13.260   7.356   3.113
50571SOL    HW253611  13.381   7.408   3.038
50572SOL     OW53612   4.973   4.170   9.675
50572SOL    HW153613   5.048   4.228   9.690
50572SOL    HW253614   4.925   4.212   9.604
50573SOL     OW53615   4.405   7.180   3.287
50573SOL    HW153616   4.401   7.251   3.351
50573SOL    HW253617   4.459   7.113   3.328
50574SOL     OW53618   6.946   9.396   1.796
50574SOL    HW153619   6.999   9.428   1.869
50574SOL    HW253620   6.992   9.317   1.766
50575SOL     OW53621   4.441   3.794   3.808
50575SOL    HW153622   4.503   3.865   3.828
50575SOL    HW253623   4.363   3.839   3.777
50576SOL     OW53624   7.356   9.723   1.400
50576SOL    HW153625   7.333   9.707   1.308
50576SOL    HW253626   7.278   9.764   1.437
50577SOL     OW53627   9.330   6.679   9.131
50577SOL    HW153628   9.237   6.668   9.113
50577SOL    HW253629   9.333   6.745   9.201
50578SOL     OW53630   2.005  14.252  13.009
50578SOL    HW153631   2.091  14.211  13.005
50578SOL    HW253632   1.945  14.181  13.031
50579SOL     OW53633   9.239   8.532   5.935
50579SOL    HW153634   9.146   8.517   5.954
50579SOL    HW253635   9.284   8.461   5.981
50580SOL     OW53636  11.434  13.048   7.228
50580SOL    HW153637  11.494  13.046   7.302
50580SOL    HW253638  11.480  13.098   7.161
50581SOL     OW53639  12.110  11.603   4.504
50581SOL    HW153640  12.027  11.577   4.546
50581SOL    HW253641  12.118  11.696   4.522
50582SOL     OW53642   2.157   6.431   6.609
50582SOL    HW153643   2.129   6.454   6.520
50582SOL    HW253644   2.115   6.347   6.626
50583SOL     OW53645  13.854   6.174   5.413
50583SOL    HW153646  13.879   6.231   5.486
50583SOL    HW253647  13.814   6.233   5.349
50584SOL     OW53648   8.460  10.879   6.077
50584SOL    HW153649   8.487  10.954   6.130
50584SOL    HW253650   8.540  10.827   6.066
50585SOL     OW53651   0.725  12.297  14.116
50585SOL    HW153652   0.692  12.284  14.027
50585SOL    HW253653   0.763  12.213  14.140
50586SOL     OW53654   5.041  11.017   4.754
50586SOL    HW153655   4.973  10.996   4.690
50586SOL    HW253656   5.027  11.110   4.774
50587SOL     OW53657  12.720   3.094   0.135
50587SOL    HW153658  12.723   3.075   0.042
50587SOL    HW253659  12.782   3.167   0.147
50588SOL     OW53660  14.454   2.878   4.227
50588SOL    HW153661  14.461   2.784   4.210
50588SOL    HW253662  14.545   2.907   4.236
50589SOL     OW53663  10.710   8.218   3.696
50589SOL    HW153664  10.623   8.180   3.703
50589SOL    HW253665  10.697   8.298   3.645
50590SOL     OW53666   3.029   9.626   4.791
50590SOL    HW153667   3.103   9.659   4.842
50590SOL    HW253668   2.973   9.583   4.855
50591SOL     OW53669   9.326  11.357   7.185
50591SOL    HW153670   9.326  11.406   7.268
50591SOL    HW253671   9.233  11.345   7.164
50592SOL     OW53672   3.311  13.510   4.729
50592SOL    HW153673   3.240  13.568   4.756
50592SOL    HW253674   3.372  13.511   4.802
50593SOL     OW53675  10.432   6.927   9.751
50593SOL    HW153676  10.456   6.940   9.660
50593SOL    HW253677  10.371   6.999   9.770
50594SOL     OW53678   1.063   6.305  10.988
50594SOL    HW153679   1.044   6.345  11.073
50594SOL    HW253680   1.115   6.370  10.941
50595SOL     OW53681   0.884  12.040  14.860
50595SOL    HW153682   0.925  11.986  14.793
50595SOL    HW253683   0.840  11.978   0.038
50596SOL     OW53684  13.287   8.367  14.418
50596SOL    HW153685  13.231   8.362  14.496
50596SOL    HW253686  13.287   8.278  14.383
50597SOL     OW53687  11.186  12.681   1.050
50597SOL    HW153688  11.096  12.713   1.053
50597SOL    HW253689  11.203  12.648   1.139
50598SOL     OW53690   8.393   1.789   5.927
50598SOL    HW153691   8.369   1.881   5.930
50598SOL    HW253692   8.462   1.779   5.993
50599SOL     OW53693  14.161  12.647  14.341
50599SOL    HW153694  14.231  12.710  14.356
50599SOL    HW253695  14.205  12.569  14.307
50600SOL     OW53696   8.435  10.444   6.126
50600SOL    HW153697   8.375  10.450   6.052
50600SOL    HW253698   8.424  10.526   6.173
50601SOL     OW53699   1.878   1.306   9.875
50601SOL    HW153700   1.903   1.259   9.954
50601SOL    HW253701   1.785   1.327   9.887
50602SOL     OW53702  14.718   6.624  13.981
50602SOL    HW153703  14.733   6.684  14.054
50602SOL    HW253704  14.785   6.648  13.916
50603SOL     OW53705   3.456   0.783   7.942
50603SOL    HW153706   3.415   0.840   8.007
50603SOL    HW253707   3.431   0.695   7.967
50604SOL     OW53708  10.550   3.696   9.925
50604SOL    HW153709  10.481   3.634   9.947
50604SOL    HW253710  10.630   3.644   9.925
50605SOL     OW53711   0.899  13.686   3.636
50605SOL    HW153712   0.964  13.755   3.642
50605SOL    HW253713   0.875  13.684   3.543
50606SOL     OW53714   5.114   3.337   6.747
50606SOL    HW153715   5.052   3.288   6.693
50606SOL    HW253716   5.127   3.282   6.824
50607SOL     OW53717  13.362   5.224  14.545
50607SOL    HW153718  13.450   5.262  14.547
50607SOL    HW253719  13.362   5.160  14.616
50608SOL     OW53720   5.570  14.429  14.717
50608SOL    HW153721   5.527  14.503  14.761
50608SOL    HW253722   5.565  14.358  14.780
50609SOL     OW53723   4.542   7.623   0.588
50609SOL    HW153724   4.544   7.651   0.496
50609SOL    HW253725   4.578   7.534   0.587
50610SOL     OW53726   7.214   8.840   0.785
50610SOL    HW153727   7.179   8.783   0.855
50610SOL    HW253728   7.295   8.875   0.822
50611SOL     OW53729  12.223  12.816   4.707
50611SOL    HW153730  12.146  12.760   4.696
50611SOL    HW253731  12.222  12.872   4.629
50612SOL     OW53732   7.097   2.938   1.250
50612SOL    HW153733   7.165   2.917   1.314
50612SOL    HW253734   7.020   2.961   1.302
50613SOL     OW53735   6.917   7.762  11.071
50613SOL    HW153736   6.918   7.677  11.116
50613SOL    HW253737   6.912   7.826  11.142
50614SOL     OW53738   0.368  10.238  14.597
50614SOL    HW153739   0.339  10.271  14.682
50614SOL    HW253740   0.288  10.234  14.545
50615SOL     OW53741  14.098   5.677   8.328
50615SOL    HW153742  14.047   5.654   8.405
50615SOL    HW253743  14.112   5.593   8.284
50616SOL     OW53744   2.465   5.293  14.811
50616SOL    HW153745   2.452   5.207  14.851
50616SOL    HW253746   2.477   5.275  14.718
50617SOL     OW53747   7.772  10.105  10.114
50617SOL    HW153748   7.719  10.183  10.125
50617SOL    HW253749   7.757  10.054  10.194
50618SOL     OW53750   7.477   1.001   5.614
50618SOL    HW153751   7.563   0.971   5.644
50618SOL    HW253752   7.458   0.946   5.538
50619SOL     OW53753   9.907  11.176   8.594
50619SOL    HW153754   9.891  11.200   8.503
50619SOL    HW253755  10.000  11.152   8.596
50620SOL     OW53756   5.874   9.855   4.426
50620SOL    HW153757   5.879   9.764   4.397
50620SOL    HW253758   5.808   9.895   4.369
50621SOL     OW53759  13.800   2.757  12.939
50621SOL    HW153760  13.781   2.700  12.864
50621SOL    HW253761  13.807   2.845  12.902
50622SOL     OW53762   6.350   9.113   7.267
50622SOL    HW153763   6.355   9.089   7.360
50622SOL    HW253764   6.285   9.184   7.264
50623SOL     OW53765   8.584  12.647   4.639
50623SOL    HW153766   8.664  12.678   4.682
50623SOL    HW253767   8.529  12.725   4.630
50624SOL     OW53768   5.141  12.077   4.725
50624SOL    HW153769   5.140  12.017   4.800
50624SOL    HW253770   5.156  12.021   4.649
50625SOL     OW53771   3.446  13.940   1.263
50625SOL    HW153772   3.464  13.922   1.355
50625SOL    HW253773   3.471  14.031   1.251
50626SOL     OW53774   1.480  11.027   5.718
50626SOL    HW153775   1.455  11.117   5.742
50626SOL    HW253776   1.558  11.039   5.664
50627SOL     OW53777  10.248   3.787  13.811
50627SOL    HW153778  10.319   3.850  13.804
50627SOL    HW253779  10.176   3.836  13.852
50628SOL     OW53780  13.631  11.918   0.181
50628SOL    HW153781  13.668  11.968   0.254
50628SOL    HW253782  13.577  11.851   0.223
50629SOL     OW53783   2.075  11.112  13.798
50629SOL    HW153784   2.066  11.078  13.887
50629SOL    HW253785   2.058  11.206  13.807
50630SOL     OW53786   7.839   9.074  13.867
50630SOL    HW153787   7.835   9.142  13.934
50630SOL    HW253788   7.748   9.058  13.844
50631SOL     OW53789   3.839  12.325   6.886
50631SOL    HW153790   3.916  12.323   6.943
50631SOL    HW253791   3.863  12.387   6.817
50632SOL     OW53792  13.011  12.731  11.888
50632SOL    HW153793  12.943  12.672  11.854
50632SOL    HW253794  12.984  12.818  11.856
50633SOL     OW53795  11.392   2.423   9.691
50633SOL    HW153796  11.429   2.511   9.692
50633SOL    HW253797  11.342   2.417   9.772
50634SOL     OW53798   6.809   3.301   1.568
50634SOL    HW153799   6.818   3.387   1.609
50634SOL    HW253800   6.778   3.320   1.479
50635SOL     OW53801   1.574   4.630  13.542
50635SOL    HW153802   1.554   4.568  13.611
50635SOL    HW253803   1.491   4.644  13.497
50636SOL     OW53804   6.052   3.154  10.529
50636SOL    HW153805   6.071   3.234  10.479
50636SOL    HW253806   5.957   3.155  10.541
50637SOL     OW53807  11.073  11.253   9.193
50637SOL    HW153808  11.080  11.223   9.283
50637SOL    HW253809  10.987  11.295   9.188
50638SOL     OW53810   4.948  10.266   2.186
50638SOL    HW153811   5.023  10.325   2.178
50638SOL    HW253812   4.985  10.187   2.227
50639SOL     OW53813  13.944   9.456   2.067
50639SOL    HW153814  13.985   9.386   2.016
50639SOL    HW253815  13.851   9.431   2.070
50640SOL     OW53816  14.781   1.088  14.702
50640SOL    HW153817  14.751   1.161  14.649
50640SOL    HW253818  14.830   1.032  14.642
50641SOL     OW53819   1.226   8.498   7.326
50641SOL    HW153820   1.224   8.552   7.405
50641SOL    HW253821   1.138   8.506   7.289
50642SOL     OW53822   2.928  12.852   2.671
50642SOL    HW153823   2.992  12.869   2.739
50642SOL    HW253824   2.915  12.758   2.672
50643SOL     OW53825   9.294   5.082   4.901
50643SOL    HW153826   9.217   5.077   4.958
50643SOL    HW253827   9.259   5.105   4.815
50644SOL     OW53828  14.358   2.975  12.243
50644SOL    HW153829  14.337   3.046  12.183
50644SOL    HW253830  14.371   2.899  12.186
50645SOL     OW53831   2.731   0.183   6.393
50645SOL    HW153832   2.746   0.127   6.469
50645SOL    HW253833   2.638   0.203   6.395
50646SOL     OW53834   6.507   6.154   4.757
50646SOL    HW153835   6.413   6.138   4.761
50646SOL    HW253836   6.518   6.245   4.785
50647SOL     OW53837   0.999   9.124   5.976
50647SOL    HW153838   0.977   9.031   5.983
50647SOL    HW253839   1.090   9.125   5.946
50648SOL     OW53840   3.455   2.246   1.801
50648SOL    HW153841   3.445   2.151   1.802
50648SOL    HW253842   3.488   2.267   1.889
50649SOL     OW53843  13.677  13.556   9.295
50649SOL    HW153844  13.682  13.509   9.211
50649SOL    HW253845  13.612  13.507   9.346
50650SOL     OW53846  14.614   6.356  13.430
50650SOL    HW153847  14.666   6.354  13.350
50650SOL    HW253848  14.667   6.309  13.494
50651SOL     OW53849   0.216   6.678  11.924
50651SOL    HW153850   0.182   6.599  11.880
50651SOL    HW253851   0.310   6.663  11.930
50652SOL     OW53852   3.495   9.079   7.196
50652SOL    HW153853   3.542   9.009   7.151
50652SOL    HW253854   3.532   9.081   7.284
50653SOL     OW53855   1.600   0.818   6.649
50653SOL    HW153856   1.507   0.842   6.648
50653SOL    HW253857   1.645   0.897   6.618
50654SOL     OW53858  14.836   6.713  12.475
50654SOL    HW153859  14.813   6.776  12.406
50654SOL    HW253860  14.802   6.629  12.442
50655SOL     OW53861  13.041  10.913   3.584
50655SOL    HW153862  13.063  10.996   3.627
50655SOL    HW253863  13.028  10.938   3.492
50656SOL     OW53864  10.867   7.697   9.895
50656SOL    HW153865  10.790   7.676   9.842
50656SOL    HW253866  10.917   7.758   9.842
50657SOL     OW53867  10.033  13.523   4.015
50657SOL    HW153868   9.937  13.524   4.009
50657SOL    HW253869  10.055  13.433   4.041
50658SOL     OW53870   1.274  10.480   8.575
50658SOL    HW153871   1.324  10.501   8.496
50658SOL    HW253872   1.269  10.384   8.575
50659SOL     OW53873   1.552   3.983   2.156
50659SOL    HW153874   1.605   3.904   2.164
50659SOL    HW253875   1.496   3.968   2.080
50660SOL     OW53876   7.786   7.473   0.883
50660SOL    HW153877   7.754   7.405   0.942
50660SOL    HW253878   7.783   7.554   0.935
50661SOL     OW53879  11.398   0.812   2.983
50661SOL    HW153880  11.344   0.733   2.978
50661SOL    HW253881  11.336   0.884   2.976
50662SOL     OW53882   5.280  11.421  11.052
50662SOL    HW153883   5.374  11.439  11.061
50662SOL    HW253884   5.244  11.442  11.138
50663SOL     OW53885   6.405   0.481   4.645
50663SOL    HW153886   6.375   0.542   4.577
50663SOL    HW253887   6.383   0.524   4.727
50664SOL     OW53888  13.747   2.569   7.956
50664SOL    HW153889  13.830   2.521   7.966
50664SOL    HW253890  13.682   2.500   7.940
50665SOL     OW53891  14.362   6.997  14.741
50665SOL    HW153892  14.302   6.952  14.800
50665SOL    HW253893  14.354   7.090  14.764
50666SOL     OW53894  10.763   6.248   4.218
50666SOL    HW153895  10.790   6.183   4.282
50666SOL    HW253896  10.675   6.274   4.244
50667SOL     OW53897   1.780   5.269   1.722
50667SOL    HW153898   1.691   5.279   1.688
50667SOL    HW253899   1.797   5.351   1.768
50668SOL     OW53900   9.677  11.203   6.247
50668SOL    HW153901   9.769  11.229   6.253
50668SOL    HW253902   9.637  11.239   6.326
50669SOL     OW53903   7.686  14.471   3.386
50669SOL    HW153904   7.682  14.540   3.319
50669SOL    HW253905   7.687  14.518   3.469
50670SOL     OW53906  14.256  14.268   3.240
50670SOL    HW153907  14.275  14.302   3.153
50670SOL    HW253908  14.324  14.306   3.296
50671SOL     OW53909  13.149   3.558   4.588
50671SOL    HW153910  13.107   3.491   4.535
50671SOL    HW253911  13.189   3.509   4.660
50672SOL     OW53912   0.216  12.636   0.959
50672SOL    HW153913   0.172  12.688   1.027
50672SOL    HW253914   0.160  12.559   0.948
50673SOL     OW53915   1.191   8.541   8.591
50673SOL    HW153916   1.193   8.607   8.522
50673SOL    HW253917   1.124   8.479   8.563
50674SOL     OW53918   0.303   8.832   5.930
50674SOL    HW153919   0.391   8.823   5.966
50674SOL    HW253920   0.245   8.825   6.006
50675SOL     OW53921   6.215   6.526   8.671
50675SOL    HW153922   6.284   6.562   8.727
50675SOL    HW253923   6.154   6.485   8.732
50676SOL     OW53924   9.203   4.143   4.010
50676SOL    HW153925   9.175   4.224   4.051
50676SOL    HW253926   9.164   4.145   3.922
50677SOL     OW53927  11.215   8.812   3.922
50677SOL    HW153928  11.217   8.847   3.833
50677SOL    HW253929  11.124   8.787   3.936
50678SOL     OW53930  10.373   3.738   5.768
50678SOL    HW153931  10.453   3.773   5.727
50678SOL    HW253932  10.352   3.661   5.716
50679SOL     OW53933  13.147   8.747   6.262
50679SOL    HW153934  13.175   8.836   6.287
50679SOL    HW253935  13.210   8.721   6.194
50680SOL     OW53936   2.879   7.064   3.132
50680SOL    HW153937   2.823   6.988   3.149
50680SOL    HW253938   2.841   7.134   3.185
50681SOL     OW53939  14.546   4.090   6.442
50681SOL    HW153940  14.606   4.106   6.369
50681SOL    HW253941  14.512   4.176   6.465
50682SOL     OW53942   7.323   6.255   7.252
50682SOL    HW153943   7.366   6.291   7.329
50682SOL    HW253944   7.392   6.251   7.186
50683SOL     OW53945   5.342   6.659  11.785
50683SOL    HW153946   5.305   6.572  11.769
50683SOL    HW253947   5.353   6.696  11.697
50684SOL     OW53948   9.303   6.289  13.947
50684SOL    HW153949   9.378   6.342  13.923
50684SOL    HW253950   9.233   6.352  13.966
50685SOL     OW53951  12.310   7.179   4.960
50685SOL    HW153952  12.337   7.223   5.041
50685SOL    HW253953  12.235   7.125   4.986
50686SOL     OW53954   8.203  13.231   7.360
50686SOL    HW153955   8.142  13.263   7.426
50686SOL    HW253956   8.256  13.165   7.406
50687SOL     OW53957   8.912   5.675   6.241
50687SOL    HW153958   8.855   5.696   6.167
50687SOL    HW253959   8.998   5.658   6.202
50688SOL     OW53960   9.010   5.894   4.159
50688SOL    HW153961   9.088   5.890   4.104
50688SOL    HW253962   8.955   5.822   4.127
50689SOL     OW53963   6.109   9.401  13.366
50689SOL    HW153964   6.070   9.370  13.448
50689SOL    HW253965   6.039   9.452  13.324
50690SOL     OW53966   2.593   7.295   5.560
50690SOL    HW153967   2.549   7.320   5.478
50690SOL    HW253968   2.686   7.303   5.541
50691SOL     OW53969  12.547   1.380  13.289
50691SOL    HW153970  12.600   1.310  13.328
50691SOL    HW253971  12.463   1.337  13.269
50692SOL     OW53972   9.445   5.737  11.840
50692SOL    HW153973   9.386   5.695  11.778
50692SOL    HW253974   9.401   5.818  11.865
50693SOL     OW53975  10.327  13.209   5.709
50693SOL    HW153976  10.351  13.211   5.802
50693SOL    HW253977  10.231  13.208   5.709
50694SOL     OW53978   6.783   4.510   0.197
50694SOL    HW153979   6.724   4.438   0.218
50694SOL    HW253980   6.822   4.486   0.113
50695SOL     OW53981   2.142   7.587  14.161
50695SOL    HW153982   2.200   7.515  14.139
50695SOL    HW253983   2.084   7.595  14.085
50696SOL     OW53984   4.799   4.093   8.378
50696SOL    HW153985   4.830   4.014   8.423
50696SOL    HW253986   4.737   4.133   8.439
50697SOL     OW53987  10.501  12.315  10.856
50697SOL    HW153988  10.548  12.352  10.780
50697SOL    HW253989  10.554  12.342  10.931
50698SOL     OW53990   1.916   3.813  10.273
50698SOL    HW153991   1.862   3.812  10.194
50698SOL    HW253992   1.999   3.853  10.244
50699SOL     OW53993   1.734   3.086   6.828
50699SOL    HW153994   1.823   3.120   6.838
50699SOL    HW253995   1.678   3.158   6.857
50700SOL     OW53996  14.805  11.490   0.078
50700SOL    HW153997  14.868  11.539   0.131
50700SOL    HW253998  14.811  11.530  14.872
50701SOL     OW53999   5.553  11.068   7.953
50701SOL    HW154000   5.559  11.109   8.039
50701SOL    HW254001   5.462  11.039   7.946
50702SOL     OW54002   9.034   3.533  13.778
50702SOL    HW154003   9.032   3.467  13.709
50702SOL    HW254004   8.999   3.488  13.855
50703SOL     OW54005  10.956   2.993   5.895
50703SOL    HW154006  11.050   3.009   5.904
50703SOL    HW254007  10.929   3.051   5.824
50704SOL     OW54008   9.399  14.864  10.860
50704SOL    HW154009   9.452  14.816  10.924
50704SOL    HW254010   9.462   0.039  10.814
50705SOL     OW54011  13.252   1.035   4.732
50705SOL    HW154012  13.248   1.100   4.803
50705SOL    HW254013  13.166   0.993   4.734
50706SOL     OW54014  12.987   9.743   2.475
50706SOL    HW154015  12.958   9.665   2.428
50706SOL    HW254016  13.049   9.786   2.415
50707SOL     OW54017  10.506  14.597  11.717
50707SOL    HW154018  10.578  14.630  11.663
50707SOL    HW254019  10.445  14.558  11.654
50708SOL     OW54020   4.470   9.050   4.314
50708SOL    HW154021   4.527   9.108   4.263
50708SOL    HW254022   4.395   9.104   4.337
50709SOL     OW54023   0.313   9.762   9.418
50709SOL    HW154024   0.381   9.718   9.469
50709SOL    HW254025   0.358   9.837   9.379
50710SOL     OW54026   2.291   9.351   6.940
50710SOL    HW154027   2.257   9.433   6.975
50710SOL    HW254028   2.385   9.354   6.960
50711SOL     OW54029   5.678  10.734   2.885
50711SOL    HW154030   5.653  10.706   2.973
50711SOL    HW254031   5.626  10.813   2.869
50712SOL     OW54032  14.474   4.229  11.428
50712SOL    HW154033  14.558   4.210  11.469
50712SOL    HW254034  14.442   4.307  11.474
50713SOL     OW54035   5.429  12.820   0.632
50713SOL    HW154036   5.350  12.856   0.672
50713SOL    HW254037   5.478  12.783   0.705
50714SOL     OW54038  12.083   0.906  11.078
50714SOL    HW154039  12.002   0.950  11.050
50714SOL    HW254040  12.132   0.894  10.997
50715SOL     OW54041  12.119   1.670   3.257
50715SOL    HW154042  12.098   1.763   3.250
50715SOL    HW254043  12.075   1.642   3.337
50716SOL     OW54044   1.564   1.444   0.189
50716SOL    HW154045   1.526   1.420   0.273
50716SOL    HW254046   1.606   1.528   0.205
50717SOL     OW54047   3.226   0.224   4.989
50717SOL    HW154048   3.270   0.145   5.018
50717SOL    HW254049   3.144   0.193   4.949
50718SOL     OW54050   7.260   7.489   6.359
50718SOL    HW154051   7.166   7.501   6.345
50718SOL    HW254052   7.301   7.544   6.292
50719SOL     OW54053  11.209   8.720  13.388
50719SOL    HW154054  11.167   8.752  13.308
50719SOL    HW254055  11.174   8.776  13.457
50720SOL     OW54056  13.101  14.873   4.427
50720SOL    HW154057  13.147  14.826   4.358
50720SOL    HW254058  13.135  14.836   4.509
50721SOL     OW54059   7.333  14.071  12.907
50721SOL    HW154060   7.268  14.005  12.930
50721SOL    HW254061   7.410  14.047  12.960
50722SOL     OW54062  10.683   7.252  11.938
50722SOL    HW154063  10.777   7.263  11.924
50722SOL    HW254064  10.644   7.277  11.854
50723SOL     OW54065   1.808  11.326  10.971
50723SOL    HW154066   1.721  11.324  10.931
50723SOL    HW254067   1.792  11.352  11.062
50724SOL     OW54068   4.347   6.343  11.424
50724SOL    HW154069   4.274   6.307  11.374
50724SOL    HW254070   4.359   6.283  11.497
50725SOL     OW54071  11.849   4.432  14.067
50725SOL    HW154072  11.805   4.517  14.072
50725SOL    HW254073  11.817   4.394  13.985
50726SOL     OW54074   1.099   9.143  10.251
50726SOL    HW154075   1.022   9.126  10.305
50726SOL    HW254076   1.069   9.129  10.162
50727SOL     OW54077   8.103  11.439   5.549
50727SOL    HW154078   8.019  11.405   5.517
50727SOL    HW254079   8.149  11.467   5.470
50728SOL     OW54080  13.813   6.267  14.028
50728SOL    HW154081  13.768   6.350  14.042
50728SOL    HW254082  13.755   6.202  14.067
50729SOL     OW54083   7.000  13.691   3.294
50729SOL    HW154084   7.067  13.639   3.339
50729SOL    HW254085   6.918  13.646   3.312
50730SOL     OW54086   2.988   6.357   0.227
50730SOL    HW154087   2.985   6.358   0.131
50730SOL    HW254088   3.005   6.266   0.249
50731SOL     OW54089   2.455   7.172   6.056
50731SOL    HW154090   2.541   7.148   6.022
50731SOL    HW254091   2.473   7.210   6.142
50732SOL     OW54092   3.979   5.290   6.488
50732SOL    HW154093   3.941   5.319   6.571
50732SOL    HW254094   4.060   5.340   6.479
50733SOL     OW54095  11.249   3.856   2.540
50733SOL    HW154096  11.205   3.777   2.569
50733SOL    HW254097  11.321   3.867   2.602
50734SOL     OW54098  14.761  12.084   9.248
50734SOL    HW154099  14.680  12.105   9.200
50734SOL    HW254100  14.831  12.108   9.188
50735SOL     OW54101   3.325   2.217  11.145
50735SOL    HW154102   3.231   2.226  11.162
50735SOL    HW254103   3.331   2.186  11.055
50736SOL     OW54104   8.686   5.299   1.697
50736SOL    HW154105   8.706   5.390   1.675
50736SOL    HW254106   8.709   5.249   1.619
50737SOL     OW54107  11.065   3.800  11.221
50737SOL    HW154108  11.033   3.773  11.135
50737SOL    HW254109  10.998   3.770  11.283
50738SOL     OW54110  13.804  10.978  13.401
50738SOL    HW154111  13.729  10.964  13.343
50738SOL    HW254112  13.827  10.890  13.433
50739SOL     OW54113  12.368   5.299  12.913
50739SOL    HW154114  12.441   5.360  12.901
50739SOL    HW254115  12.410   5.216  12.939
50740SOL     OW54116   0.659  12.488   2.913
50740SOL    HW154117   0.650  12.396   2.938
50740SOL    HW254118   0.574  12.527   2.934
50741SOL     OW54119  12.728  12.226   9.702
50741SOL    HW154120  12.664  12.222   9.631
50741SOL    HW254121  12.808  12.259   9.660
50742SOL     OW54122  10.674   5.531   6.846
50742SOL    HW154123  10.614   5.539   6.772
50742SOL    HW254124  10.679   5.437   6.862
50743SOL     OW54125  12.439  12.734  13.290
50743SOL    HW154126  12.390  12.720  13.209
50743SOL    HW254127  12.527  12.701  13.270
50744SOL     OW54128   1.002   4.500  10.092
50744SOL    HW154129   1.016   4.435  10.161
50744SOL    HW254130   0.923   4.470  10.046
50745SOL     OW54131  13.024   0.467  13.518
50745SOL    HW154132  13.063   0.554  13.510
50745SOL    HW254133  13.097   0.411  13.549
50746SOL     OW54134  14.799   8.274   3.990
50746SOL    HW154135  14.756   8.359   3.996
50746SOL    HW254136  14.734   8.211   4.020
50747SOL     OW54137   6.780   2.112   7.004
50747SOL    HW154138   6.855   2.053   6.997
50747SOL    HW254139   6.707   2.055   7.026
50748SOL     OW54140   6.084  11.399  10.175
50748SOL    HW154141   6.036  11.344  10.237
50748SOL    HW254142   6.131  11.462  10.229
50749SOL     OW54143  14.822   4.380   2.680
50749SOL    HW154144  14.825   4.472   2.705
50749SOL    HW254145  14.831   4.380   2.585
50750SOL     OW54146   2.796   7.398   6.580
50750SOL    HW154147   2.766   7.443   6.659
50750SOL    HW254148   2.782   7.461   6.509
50751SOL     OW54149   3.804  14.399  12.844
50751SOL    HW154150   3.877  14.450  12.808
50751SOL    HW254151   3.733  14.414  12.782
50752SOL     OW54152   2.374   9.652   3.383
50752SOL    HW154153   2.447   9.673   3.324
50752SOL    HW254154   2.398   9.567   3.421
50753SOL     OW54155   7.758   9.121  12.078
50753SOL    HW154156   7.708   9.097  12.157
50753SOL    HW254157   7.725   9.061  12.011
50754SOL     OW54158   1.741  11.494  13.126
50754SOL    HW154159   1.810  11.540  13.176
50754SOL    HW254160   1.663  11.501  13.181
50755SOL     OW54161  14.653  10.045   8.631
50755SOL    HW154162  14.631   9.971   8.688
50755SOL    HW254163  14.633  10.122   8.684
50756SOL     OW54164   0.653   0.418  11.421
50756SOL    HW154165   0.703   0.337  11.426
50756SOL    HW254166   0.592   0.414  11.495
50757SOL     OW54167   9.836   2.439   0.607
50757SOL    HW154168   9.793   2.438   0.522
50757SOL    HW254169   9.930   2.437   0.587
50758SOL     OW54170   4.534   7.103   6.184
50758SOL    HW154171   4.540   7.163   6.259
50758SOL    HW254172   4.446   7.067   6.190
50759SOL     OW54173   1.895   7.503   7.568
50759SOL    HW154174   1.873   7.551   7.488
50759SOL    HW254175   1.991   7.508   7.573
50760SOL     OW54176   6.157   8.124   2.362
50760SOL    HW154177   6.163   8.099   2.454
50760SOL    HW254178   6.064   8.124   2.342
50761SOL     OW54179  14.866   8.117   4.959
50761SOL    HW154180   0.004   8.047   5.022
50761SOL    HW254181   0.034   8.092   4.880
50762SOL     OW54182   4.908   4.551  10.991
50762SOL    HW154183   4.925   4.527  10.900
50762SOL    HW254184   4.831   4.500  11.015
50763SOL     OW54185   8.928   8.019   0.885
50763SOL    HW154186   8.940   8.099   0.834
50763SOL    HW254187   8.976   8.036   0.966
50764SOL     OW54188   1.127   7.336   9.021
50764SOL    HW154189   1.119   7.258   9.076
50764SOL    HW254190   1.077   7.315   8.942
50765SOL     OW54191   3.565   4.575   3.868
50765SOL    HW154192   3.523   4.635   3.930
50765SOL    HW254193   3.605   4.508   3.923
50766SOL     OW54194   3.095   0.967  11.277
50766SOL    HW154195   3.182   0.938  11.304
50766SOL    HW254196   3.036   0.934  11.344
50767SOL     OW54197  10.662   0.016  10.344
50767SOL    HW154198  10.749   0.055  10.343
50767SOL    HW254199  10.603   0.089  10.325
50768SOL     OW54200   1.856   7.665   2.746
50768SOL    HW154201   1.928   7.694   2.802
50768SOL    HW254202   1.848   7.734   2.680
50769SOL     OW54203  10.616   7.829   4.378
50769SOL    HW154204  10.665   7.864   4.452
50769SOL    HW254205  10.680   7.775   4.331
50770SOL     OW54206   3.870   2.523   0.258
50770SOL    HW154207   3.928   2.473   0.316
50770SOL    HW254208   3.874   2.612   0.293
50771SOL     OW54209   6.551  14.697   8.419
50771SOL    HW154210   6.460  14.676   8.437
50771SOL    HW254211   6.547  14.777   8.366
50772SOL     OW54212   9.156   4.998   8.939
50772SOL    HW154213   9.135   4.907   8.919
50772SOL    HW254214   9.252   5.003   8.930
50773SOL     OW54215   5.820  11.497   2.017
50773SOL    HW154216   5.849  11.544   2.095
50773SOL    HW254217   5.782  11.565   1.961
50774SOL     OW54218   3.572   0.116   8.185
50774SOL    HW154219   3.548   0.032   8.147
50774SOL    HW254220   3.568   0.177   8.111
50775SOL     OW54221   0.733   8.409   0.263
50775SOL    HW154222   0.665   8.345   0.285
50775SOL    HW254223   0.762   8.442   0.348
50776SOL     OW54224  10.330  14.055   3.098
50776SOL    HW154225  10.351  14.017   3.013
50776SOL    HW254226  10.391  14.013   3.159
50777SOL     OW54227   9.205   1.112   5.174
50777SOL    HW154228   9.215   1.200   5.209
50777SOL    HW254229   9.142   1.070   5.234
50778SOL     OW54230   8.170   6.786   5.536
50778SOL    HW154231   8.161   6.840   5.458
50778SOL    HW254232   8.228   6.715   5.509
50779SOL     OW54233  10.368  13.737  12.954
50779SOL    HW154234  10.389  13.808  13.014
50779SOL    HW254235  10.285  13.702  12.986
50780SOL     OW54236   8.829   1.976   2.559
50780SOL    HW154237   8.855   2.058   2.600
50780SOL    HW254238   8.800   1.921   2.631
50781SOL     OW54239  14.155   3.052   3.121
50781SOL    HW154240  14.159   3.128   3.179
50781SOL    HW254241  14.171   3.087   3.034
50782SOL     OW54242  13.040  14.732   2.583
50782SOL    HW154243  13.097  14.702   2.654
50782SOL    HW254244  12.974  14.786   2.627
50783SOL     OW54245   4.347   6.917  11.797
50783SOL    HW154246   4.337   6.878  11.883
50783SOL    HW254247   4.277   6.879  11.745
50784SOL     OW54248  13.785   9.684   9.258
50784SOL    HW154249  13.732   9.622   9.207
50784SOL    HW254250  13.789   9.762   9.204
50785SOL     OW54251   2.267   9.021   4.238
50785SOL    HW154252   2.360   9.005   4.223
50785SOL    HW254253   2.260   9.041   4.331
50786SOL     OW54254   7.418   6.359  14.667
50786SOL    HW154255   7.505   6.349  14.628
50786SOL    HW254256   7.360   6.310  14.609
50787SOL     OW54257  10.035  10.407   1.030
50787SOL    HW154258  10.032  10.319   1.069
50787SOL    HW254259  10.119  10.443   1.060
50788SOL     OW54260  11.562   8.437   2.077
50788SOL    HW154261  11.562   8.401   2.165
50788SOL    HW254262  11.489   8.499   2.076
50789SOL     OW54263   3.324   0.108   7.598
50789SOL    HW154264   3.402   0.059   7.625
50789SOL    HW254265   3.287   0.056   7.528
50790SOL     OW54266   9.123  10.590  13.815
50790SOL    HW154267   9.067  10.584  13.738
50790SOL    HW254268   9.069  10.633  13.881
50791SOL     OW54269  11.894   9.356  13.004
50791SOL    HW154270  11.865   9.317  13.086
50791SOL    HW254271  11.868   9.294  12.936
50792SOL     OW54272   0.588  13.054   2.859
50792SOL    HW154273   0.541  12.973   2.875
50792SOL    HW254274   0.652  13.060   2.931
50793SOL     OW54275   3.997   3.803   4.288
50793SOL    HW154276   4.023   3.812   4.380
50793SOL    HW254277   4.035   3.881   4.246
50794SOL     OW54278  10.944  13.781  10.048
50794SOL    HW154279  10.877  13.834  10.006
50794SOL    HW254280  10.930  13.795  10.142
50795SOL     OW54281   9.630  14.242  13.821
50795SOL    HW154282   9.650  14.187  13.897
50795SOL    HW254283   9.710  14.238  13.768
50796SOL     OW54284   5.822   4.859  11.840
50796SOL    HW154285   5.842   4.884  11.931
50796SOL    HW254286   5.739   4.811  11.847
50797SOL     OW54287   2.707   8.202   2.303
50797SOL    HW154288   2.767   8.205   2.377
50797SOL    HW254289   2.685   8.109   2.293
50798SOL     OW54290  10.903   4.884   7.563
50798SOL    HW154291  10.862   4.925   7.486
50798SOL    HW254292  10.833   4.880   7.628
50799SOL     OW54293  10.520   3.250   2.525
50799SOL    HW154294  10.520   3.285   2.436
50799SOL    HW254295  10.518   3.327   2.581
50800SOL     OW54296   0.557  11.342  13.803
50800SOL    HW154297   0.609  11.302  13.734
50800SOL    HW254298   0.596  11.308  13.884
50801SOL     OW54299   9.484   6.104   8.920
50801SOL    HW154300   9.505   6.010   8.917
50801SOL    HW254301   9.390   6.107   8.900
50802SOL     OW54302   1.684   3.158   9.570
50802SOL    HW154303   1.685   3.253   9.578
50802SOL    HW254304   1.764   3.137   9.522
50803SOL     OW54305   4.150   9.930   6.386
50803SOL    HW154306   4.216   9.910   6.453
50803SOL    HW254307   4.074   9.878   6.411
50804SOL     OW54308   9.647   1.243  12.573
50804SOL    HW154309   9.587   1.275  12.640
50804SOL    HW254310   9.734   1.253  12.611
50805SOL     OW54311   4.454   3.150   8.444
50805SOL    HW154312   4.406   3.137   8.362
50805SOL    HW254313   4.543   3.118   8.425
50806SOL     OW54314   9.107   8.126   9.413
50806SOL    HW154315   9.140   8.088   9.331
50806SOL    HW254316   9.077   8.213   9.389
50807SOL     OW54317   2.536  13.563  13.026
50807SOL    HW154318   2.589  13.488  13.051
50807SOL    HW254319   2.469  13.528  12.968
50808SOL     OW54320   2.159  11.475   5.357
50808SOL    HW154321   2.111  11.547   5.317
50808SOL    HW254322   2.202  11.431   5.284
50809SOL     OW54323   4.930  12.553   8.136
50809SOL    HW154324   4.880  12.474   8.118
50809SOL    HW254325   4.922  12.605   8.056
50810SOL     OW54326   3.844  13.533  12.043
50810SOL    HW154327   3.940  13.535  12.045
50810SOL    HW254328   3.817  13.582  12.121
50811SOL     OW54329  11.868   6.852  12.891
50811SOL    HW154330  11.842   6.883  12.978
50811SOL    HW254331  11.949   6.900  12.872
50812SOL     OW54332  12.749   9.583   0.787
50812SOL    HW154333  12.682   9.628   0.736
50812SOL    HW254334  12.823   9.573   0.726
50813SOL     OW54335  10.050   6.296  13.383
50813SOL    HW154336  10.045   6.201  13.392
50813SOL    HW254337   9.999   6.316  13.305
50814SOL     OW54338  13.241  13.278   6.666
50814SOL    HW154339  13.202  13.196   6.694
50814SOL    HW254340  13.267  13.262   6.575
50815SOL     OW54341   4.373   6.475   6.958
50815SOL    HW154342   4.421   6.528   6.894
50815SOL    HW254343   4.283   6.473   6.925
50816SOL     OW54344  10.913   5.858   6.200
50816SOL    HW154345  10.825   5.895   6.214
50816SOL    HW254346  10.972   5.919   6.244
50817SOL     OW54347  14.011   0.196  12.304
50817SOL    HW154348  13.980   0.113  12.268
50817SOL    HW254349  14.048   0.242  12.229
50818SOL     OW54350   6.964  10.380   0.871
50818SOL    HW154351   6.898  10.448   0.873
50818SOL    HW254352   7.038  10.417   0.920
50819SOL     OW54353  10.925   3.104   8.413
50819SOL    HW154354  10.866   3.130   8.483
50819SOL    HW254355  10.876   3.122   8.332
50820SOL     OW54356  10.495  10.667  10.679
50820SOL    HW154357  10.533  10.657  10.767
50820SOL    HW254358  10.569  10.655  10.620
50821SOL     OW54359   2.192   1.336   6.934
50821SOL    HW154360   2.181   1.340   7.029
50821SOL    HW254361   2.248   1.412   6.914
50822SOL     OW54362   4.180   5.614   5.161
50822SOL    HW154363   4.096   5.593   5.120
50822SOL    HW254364   4.232   5.535   5.149
50823SOL     OW54365  12.048  11.011   2.108
50823SOL    HW154366  12.130  11.052   2.133
50823SOL    HW254367  11.985  11.083   2.108
50824SOL     OW54368  12.800   0.637  13.607
50824SOL    HW154369  12.873   0.578  13.591
50824SOL    HW254370  12.744   0.588  13.668
50825SOL     OW54371   5.224  10.025   9.637
50825SOL    HW154372   5.183  10.099   9.593
50825SOL    HW254373   5.156   9.992   9.696
50826SOL     OW54374   3.625  10.539   3.944
50826SOL    HW154375   3.603  10.598   3.872
50826SOL    HW254376   3.718  10.556   3.960
50827SOL     OW54377   8.027  14.367  14.376
50827SOL    HW154378   7.935  14.342  14.392
50827SOL    HW254379   8.063  14.294  14.326
50828SOL     OW54380   4.093  12.917  12.813
50828SOL    HW154381   4.015  12.961  12.847
50828SOL    HW254382   4.143  12.987  12.771
50829SOL     OW54383   4.028   2.105   2.158
50829SOL    HW154384   3.987   2.040   2.101
50829SOL    HW254385   4.055   2.175   2.099
50830SOL     OW54386  11.374   3.662   8.871
50830SOL    HW154387  11.427   3.656   8.792
50830SOL    HW254388  11.362   3.572   8.900
50831SOL     OW54389   5.646   9.881   7.789
50831SOL    HW154390   5.604   9.943   7.848
50831SOL    HW254391   5.574   9.835   7.747
50832SOL     OW54392   7.221   8.276   9.128
50832SOL    HW154393   7.142   8.319   9.096
50832SOL    HW254394   7.272   8.259   9.048
50833SOL     OW54395  11.435   9.755   2.654
50833SOL    HW154396  11.340   9.767   2.651
50833SOL    HW254397  11.465   9.776   2.566
50834SOL     OW54398  12.715   9.421   6.077
50834SOL    HW154399  12.695   9.331   6.104
50834SOL    HW254400  12.772   9.411   6.000
50835SOL     OW54401   1.988  10.737   0.600
50835SOL    HW154402   2.032  10.716   0.682
50835SOL    HW254403   1.955  10.826   0.612
50836SOL     OW54404   8.298   0.375   0.352
50836SOL    HW154405   8.349   0.411   0.425
50836SOL    HW254406   8.294   0.281   0.370
50837SOL     OW54407   6.352   4.298   6.031
50837SOL    HW154408   6.380   4.362   6.097
50837SOL    HW254409   6.259   4.285   6.050
50838SOL     OW54410   8.851   6.092   7.097
50838SOL    HW154411   8.778   6.094   7.159
50838SOL    HW254412   8.851   6.003   7.062
50839SOL     OW54413   4.846   5.898   9.694
50839SOL    HW154414   4.836   5.831   9.761
50839SOL    HW254415   4.770   5.886   9.637
50840SOL     OW54416  11.939   2.085   9.738
50840SOL    HW154417  11.976   2.079   9.650
50840SOL    HW254418  11.845   2.093   9.725
50841SOL     OW54419   1.509  14.655   7.682
50841SOL    HW154420   1.451  14.729   7.701
50841SOL    HW254421   1.591  14.677   7.727
50842SOL     OW54422   8.581   1.079   5.762
50842SOL    HW154423   8.634   1.159   5.764
50842SOL    HW254424   8.587   1.048   5.672
50843SOL     OW54425   9.926   0.042  13.937
50843SOL    HW154426   9.841   0.064  13.900
50843SOL    HW254427   9.907   0.013  14.026
50844SOL     OW54428   0.204   1.982   7.028
50844SOL    HW154429   0.253   2.037   7.089
50844SOL    HW254430   0.271   1.944   6.972
50845SOL     OW54431  11.676  12.034   3.609
50845SOL    HW154432  11.621  12.076   3.674
50845SOL    HW254433  11.721  11.964   3.656
50846SOL     OW54434   0.203   9.721   4.171
50846SOL    HW154435   0.293   9.741   4.143
50846SOL    HW254436   0.192   9.770   4.252
50847SOL     OW54437  11.585   9.281  11.114
50847SOL    HW154438  11.561   9.301  11.024
50847SOL    HW254439  11.535   9.202  11.136
50848SOL     OW54440   8.865   9.729  12.406
50848SOL    HW154441   8.951   9.693  12.428
50848SOL    HW254442   8.883   9.798  12.343
50849SOL     OW54443  14.851   9.153  13.303
50849SOL    HW154444  14.771   9.199  13.328
50849SOL    HW254445   0.001   9.112  13.384
50850SOL     OW54446   0.309   4.322  13.152
50850SOL    HW154447   0.332   4.229  13.158
50850SOL    HW254448   0.310   4.353  13.242
50851SOL     OW54449   5.836  13.838   5.800
50851SOL    HW154450   5.803  13.812   5.886
50851SOL    HW254451   5.810  13.930   5.792
50852SOL     OW54452  11.626   9.010  10.351
50852SOL    HW154453  11.590   9.080  10.297
50852SOL    HW254454  11.552   8.982  10.405
50853SOL     OW54455   2.456   5.689   8.975
50853SOL    HW154456   2.458   5.719   9.065
50853SOL    HW254457   2.442   5.594   8.981
50854SOL     OW54458   2.158   2.842   0.713
50854SOL    HW154459   2.235   2.817   0.662
50854SOL    HW254460   2.154   2.777   0.784
50855SOL     OW54461  11.090  11.186   9.452
50855SOL    HW154462  11.165  11.226   9.496
50855SOL    HW254463  11.125  11.106   9.412
50856SOL     OW54464   7.212  13.800   1.776
50856SOL    HW154465   7.214  13.732   1.843
50856SOL    HW254466   7.278  13.864   1.804
50857SOL     OW54467   1.431   2.267   2.518
50857SOL    HW154468   1.381   2.194   2.553
50857SOL    HW254469   1.459   2.316   2.595
50858SOL     OW54470  12.986   9.203   3.949
50858SOL    HW154471  13.070   9.243   3.927
50858SOL    HW254472  12.959   9.248   4.029
50859SOL     OW54473   0.628   8.775   4.786
50859SOL    HW154474   0.617   8.779   4.691
50859SOL    HW254475   0.546   8.739   4.819
50860SOL     OW54476   4.161   2.649   0.880
50860SOL    HW154477   4.246   2.607   0.868
50860SOL    HW254478   4.113   2.591   0.940
50861SOL     OW54479   1.595  14.719  13.620
50861SOL    HW154480   1.666  14.655  13.609
50861SOL    HW254481   1.553  14.723  13.534
50862SOL     OW54482   2.604   9.583  10.092
50862SOL    HW154483   2.675   9.545  10.040
50862SOL    HW254484   2.565   9.508  10.137
50863SOL     OW54485   2.203  14.787   3.052
50863SOL    HW154486   2.173  14.853   3.115
50863SOL    HW254487   2.194  14.830   2.966
50864SOL     OW54488  13.047   9.608  13.637
50864SOL    HW154489  13.080   9.618  13.547
50864SOL    HW254490  13.120   9.572  13.686
50865SOL     OW54491   2.603   0.372   9.750
50865SOL    HW154492   2.665   0.444   9.743
50865SOL    HW254493   2.519   0.414   9.770
50866SOL     OW54494   1.674   2.209   4.025
50866SOL    HW154495   1.724   2.128   4.034
50866SOL    HW254496   1.701   2.262   4.100
50867SOL     OW54497  13.622   7.375  13.997
50867SOL    HW154498  13.687   7.323  13.950
50867SOL    HW254499  13.629   7.463  13.959
50868SOL     OW54500   6.746   8.277   6.223
50868SOL    HW154501   6.698   8.317   6.151
50868SOL    HW254502   6.708   8.190   6.231
50869SOL     OW54503  11.164   5.691   5.004
50869SOL    HW154504  11.094   5.739   5.049
50869SOL    HW254505  11.192   5.750   4.933
50870SOL     OW54506  14.032   4.422   0.866
50870SOL    HW154507  14.050   4.398   0.957
50870SOL    HW254508  14.116   4.454   0.833
50871SOL     OW54509   5.171   2.095  11.669
50871SOL    HW154510   5.221   2.076  11.748
50871SOL    HW254511   5.096   2.035  11.673
50872SOL     OW54512   9.183  14.381   7.206
50872SOL    HW154513   9.094  14.351   7.191
50872SOL    HW254514   9.218  14.399   7.119
50873SOL     OW54515  12.699   0.653   3.718
50873SOL    HW154516  12.604   0.647   3.731
50873SOL    HW254517  12.715   0.745   3.699
50874SOL     OW54518  11.901   4.753   4.342
50874SOL    HW154519  11.835   4.817   4.313
50874SOL    HW254520  11.978   4.806   4.362
50875SOL     OW54521   2.363   9.711  10.374
50875SOL    HW154522   2.358   9.625  10.333
50875SOL    HW254523   2.309   9.703  10.453
50876SOL     OW54524   9.890   4.967  12.975
50876SOL    HW154525   9.844   5.034  13.026
50876SOL    HW254526   9.857   4.884  13.009
50877SOL     OW54527   1.401   3.984   6.214
50877SOL    HW154528   1.380   4.069   6.252
50877SOL    HW254529   1.484   3.998   6.168
50878SOL     OW54530   5.050   1.659  10.862
50878SOL    HW154531   5.018   1.680  10.950
50878SOL    HW254532   5.009   1.724  10.805
50879SOL     OW54533   4.389   0.852   2.729
50879SOL    HW154534   4.429   0.785   2.674
50879SOL    HW254535   4.417   0.935   2.689
50880SOL     OW54536  11.913   4.449   1.949
50880SOL    HW154537  11.870   4.522   1.993
50880SOL    HW254538  11.841   4.397   1.913
50881SOL     OW54539   3.356   8.385   2.508
50881SOL    HW154540   3.303   8.464   2.498
50881SOL    HW254541   3.359   8.369   2.602
50882SOL     OW54542   0.689  11.319   2.744
50882SOL    HW154543   0.628  11.384   2.709
50882SOL    HW254544   0.709  11.263   2.669
50883SOL     OW54545   0.351   4.682  13.511
50883SOL    HW154546   0.332   4.768  13.551
50883SOL    HW254547   0.265   4.652  13.479
50884SOL     OW54548  14.287  13.335   9.466
50884SOL    HW154549  14.346  13.358   9.538
50884SOL    HW254550  14.334  13.267   9.418
50885SOL     OW54551   2.964   1.265   6.269
50885SOL    HW154552   2.970   1.183   6.220
50885SOL    HW254553   3.048   1.271   6.315
50886SOL     OW54554  13.098   5.699   2.166
50886SOL    HW154555  13.116   5.752   2.243
50886SOL    HW254556  13.081   5.762   2.096
50887SOL     OW54557   4.165   5.827  11.342
50887SOL    HW154558   4.205   5.760  11.398
50887SOL    HW254559   4.104   5.778  11.286
50888SOL     OW54560   0.889   2.227  12.752
50888SOL    HW154561   0.865   2.146  12.708
50888SOL    HW254562   0.858   2.216  12.842
50889SOL     OW54563  11.681  11.085   7.142
50889SOL    HW154564  11.707  11.102   7.051
50889SOL    HW254565  11.606  11.141   7.157
50890SOL     OW54566   2.271   3.511   1.256
50890SOL    HW154567   2.351   3.532   1.304
50890SOL    HW254568   2.300   3.456   1.183
50891SOL     OW54569  11.493   8.205  13.859
50891SOL    HW154570  11.515   8.278  13.917
50891SOL    HW254571  11.572   8.190  13.807
50892SOL     OW54572   4.815   5.031   7.944
50892SOL    HW154573   4.782   4.997   7.861
50892SOL    HW254574   4.787   5.122   7.945
50893SOL     OW54575   5.064  10.012   6.427
50893SOL    HW154576   5.013  10.084   6.391
50893SOL    HW254577   5.011   9.934   6.413
50894SOL     OW54578  10.096   2.647   6.820
50894SOL    HW154579  10.103   2.577   6.755
50894SOL    HW254580  10.161   2.712   6.792
50895SOL     OW54581  11.551   8.227  11.322
50895SOL    HW154582  11.483   8.287  11.291
50895SOL    HW254583  11.509   8.178  11.393
50896SOL     OW54584   6.974  13.088  14.416
50896SOL    HW154585   6.950  13.156  14.353
50896SOL    HW254586   6.938  13.007  14.380
50897SOL     OW54587  14.639   1.119   6.475
50897SOL    HW154588  14.712   1.171   6.440
50897SOL    HW254589  14.657   1.114   6.569
50898SOL     OW54590  13.599   6.091   9.798
50898SOL    HW154591  13.553   6.069   9.717
50898SOL    HW254592  13.604   6.187   9.797
50899SOL     OW54593   7.289   0.426   2.775
50899SOL    HW154594   7.261   0.506   2.821
50899SOL    HW254595   7.359   0.456   2.717
50900SOL     OW54596   0.606  13.006  12.415
50900SOL    HW154597   0.659  12.950  12.358
50900SOL    HW254598   0.643  12.991  12.503
50901SOL     OW54599  14.372   0.101   2.987
50901SOL    HW154600  14.433   0.157   3.034
50901SOL    HW254601  14.349   0.032   3.050
50902SOL     OW54602   8.174  12.759   0.285
50902SOL    HW154603   8.107  12.711   0.236
50902SOL    HW254604   8.257  12.730   0.248
50903SOL     OW54605   3.882   6.293   0.171
50903SOL    HW154606   3.894   6.255   0.085
50903SOL    HW254607   3.966   6.280   0.215
50904SOL     OW54608  13.224  11.322  10.475
50904SOL    HW154609  13.275  11.394  10.438
50904SOL    HW254610  13.288  11.251  10.486
50905SOL     OW54611   6.337  14.789   1.373
50905SOL    HW154612   6.391  14.726   1.326
50905SOL    HW254613   6.391  14.869   1.376
50906SOL     OW54614   9.908   1.723   7.610
50906SOL    HW154615   9.934   1.778   7.684
50906SOL    HW254616   9.989   1.680   7.582
50907SOL     OW54617   5.385  11.578   7.592
50907SOL    HW154618   5.358  11.594   7.683
50907SOL    HW254619   5.408  11.665   7.559
50908SOL     OW54620   8.752   8.643  13.231
50908SOL    HW154621   8.669   8.691  13.230
50908SOL    HW254622   8.780   8.645  13.323
50909SOL     OW54623   7.965   9.498  13.604
50909SOL    HW154624   7.943   9.416  13.560
50909SOL    HW254625   7.882   9.544  13.611
50910SOL     OW54626   7.242   8.971   1.387
50910SOL    HW154627   7.312   8.984   1.324
50910SOL    HW254628   7.268   8.893   1.436
50911SOL     OW54629   6.746   6.592   6.021
50911SOL    HW154630   6.719   6.521   5.963
50911SOL    HW254631   6.672   6.603   6.081
50912SOL     OW54632   9.070   8.318  14.650
50912SOL    HW154633   9.112   8.238  14.680
50912SOL    HW254634   9.111   8.338  14.566
50913SOL     OW54635   9.203   1.252   4.951
50913SOL    HW154636   9.200   1.196   5.029
50913SOL    HW254637   9.169   1.337   4.981
50914SOL     OW54638  10.513   5.363  12.233
50914SOL    HW154639  10.482   5.402  12.150
50914SOL    HW254640  10.446   5.388  12.297
50915SOL     OW54641   3.699   8.727  13.559
50915SOL    HW154642   3.714   8.677  13.479
50915SOL    HW254643   3.786   8.757  13.585
50916SOL     OW54644   4.864   7.330   1.718
50916SOL    HW154645   4.824   7.245   1.699
50916SOL    HW254646   4.945   7.331   1.668
50917SOL     OW54647   5.411   8.119  10.418
50917SOL    HW154648   5.381   8.045  10.471
50917SOL    HW254649   5.393   8.196  10.471
50918SOL     OW54650  13.822   1.587  13.694
50918SOL    HW154651  13.778   1.514  13.650
50918SOL    HW254652  13.909   1.552  13.717
50919SOL     OW54653  12.016   2.974   7.871
50919SOL    HW154654  11.992   2.985   7.963
50919SOL    HW254655  12.052   2.885   7.866
50920SOL     OW54656   8.466  12.427   3.205
50920SOL    HW154657   8.454  12.479   3.285
50920SOL    HW254658   8.380  12.428   3.163
50921SOL     OW54659  12.072  10.403  10.833
50921SOL    HW154660  12.112  10.490  10.832
50921SOL    HW254661  12.086  10.369  10.744
50922SOL     OW54662   0.992  12.890  14.665
50922SOL    HW154663   0.964  12.814  14.715
50922SOL    HW254664   0.933  12.960  14.693
50923SOL     OW54665   4.175   7.415   1.150
50923SOL    HW154666   4.164   7.329   1.189
50923SOL    HW254667   4.247   7.455   1.199
50924SOL     OW54668   0.562   6.257  11.424
50924SOL    HW154669   0.656   6.272  11.413
50924SOL    HW254670   0.549   6.165  11.400
50925SOL     OW54671   0.974   5.396   7.047
50925SOL    HW154672   0.882   5.379   7.068
50925SOL    HW254673   0.980   5.491   7.041
50926SOL     OW54674   6.340   0.652   1.598
50926SOL    HW154675   6.421   0.647   1.547
50926SOL    HW254676   6.370   0.657   1.689
50927SOL     OW54677   8.023   7.184  12.209
50927SOL    HW154678   8.102   7.147  12.169
50927SOL    HW254679   7.951   7.137  12.166
50928SOL     OW54680   1.812   3.044   1.279
50928SOL    HW154681   1.796   3.054   1.185
50928SOL    HW254682   1.731   3.007   1.312
50929SOL     OW54683  11.976   3.030  13.872
50929SOL    HW154684  11.886   3.060  13.863
50929SOL    HW254685  11.969   2.935  13.880
50930SOL     OW54686  14.761   8.872   9.683
50930SOL    HW154687  14.756   8.789   9.729
50930SOL    HW254688  14.781   8.848   9.592
50931SOL     OW54689  13.354   5.604   9.052
50931SOL    HW154690  13.391   5.538   9.110
50931SOL    HW254691  13.326   5.674   9.112
50932SOL     OW54692   8.988   6.046   5.945
50932SOL    HW154693   8.902   6.056   5.986
50932SOL    HW254694   8.976   5.977   5.881
50933SOL     OW54695   1.837   0.842   5.780
50933SOL    HW154696   1.835   0.881   5.692
50933SOL    HW254697   1.911   0.886   5.823
50934SOL     OW54698   6.649   3.252  13.022
50934SOL    HW154699   6.696   3.270  12.940
50934SOL    HW254700   6.709   3.197  13.072
50935SOL     OW54701   5.038   0.379  13.529
50935SOL    HW154702   5.021   0.473  13.530
50935SOL    HW254703   4.980   0.343  13.596
50936SOL     OW54704   3.808   8.231  13.671
50936SOL    HW154705   3.730   8.182  13.646
50936SOL    HW254706   3.823   8.208  13.763
50937SOL     OW54707  10.231  14.698   5.394
50937SOL    HW154708  10.148  14.661   5.363
50937SOL    HW254709  10.222  14.792   5.379
50938SOL     OW54710   6.515   3.901   4.295
50938SOL    HW154711   6.608   3.895   4.317
50938SOL    HW254712   6.491   3.991   4.315
50939SOL     OW54713  11.015   6.438  14.234
50939SOL    HW154714  10.995   6.517  14.183
50939SOL    HW254715  10.988   6.460  14.323
50940SOL     OW54716   2.529   2.247   5.258
50940SOL    HW154717   2.534   2.151   5.254
50940SOL    HW254718   2.620   2.275   5.266
50941SOL     OW54719  10.474   7.658   9.522
50941SOL    HW154720  10.478   7.684   9.430
50941SOL    HW254721  10.464   7.562   9.518
50942SOL     OW54722  12.429   1.778   4.533
50942SOL    HW154723  12.485   1.829   4.474
50942SOL    HW254724  12.368   1.843   4.569
50943SOL     OW54725   1.635   7.662  12.459
50943SOL    HW154726   1.605   7.687  12.372
50943SOL    HW254727   1.643   7.566  12.455
50944SOL     OW54728   9.866   4.948  11.763
50944SOL    HW154729   9.953   4.987  11.749
50944SOL    HW254730   9.880   4.854  11.753
50945SOL     OW54731  11.117   6.840  13.522
50945SOL    HW154732  11.208   6.812  13.528
50945SOL    HW254733  11.091   6.858  13.612
50946SOL     OW54734   0.270   5.458   2.474
50946SOL    HW154735   0.263   5.364   2.459
50946SOL    HW254736   0.225   5.498   2.399
50947SOL     OW54737  11.178  14.529   5.236
50947SOL    HW154738  11.254  14.576   5.271
50947SOL    HW254739  11.155  14.578   5.156
50948SOL     OW54740   2.948   4.852   1.491
50948SOL    HW154741   2.962   4.764   1.456
50948SOL    HW254742   2.876   4.887   1.437
50949SOL     OW54743  12.962   7.896   9.213
50949SOL    HW154744  13.051   7.867   9.235
50949SOL    HW254745  12.926   7.926   9.296
50950SOL     OW54746  12.207  10.688   7.867
50950SOL    HW154747  12.290  10.704   7.823
50950SOL    HW254748  12.204  10.594   7.881
50951SOL     OW54749  10.153   2.922   1.691
50951SOL    HW154750  10.233   2.953   1.649
50951SOL    HW254751  10.100   2.887   1.619
50952SOL     OW54752  13.956   3.199   7.309
50952SOL    HW154753  14.014   3.237   7.244
50952SOL    HW254754  13.868   3.207   7.270
50953SOL     OW54755   3.272   2.727   1.767
50953SOL    HW154756   3.298   2.818   1.778
50953SOL    HW254757   3.177   2.730   1.756
50954SOL     OW54758  14.752  10.972  10.410
50954SOL    HW154759  14.739  10.889  10.455
50954SOL    HW254760  14.816  11.019  10.464
50955SOL     OW54761  11.419   4.540   0.240
50955SOL    HW154762  11.504   4.565   0.277
50955SOL    HW254763  11.415   4.588   0.157
50956SOL     OW54764   1.568   4.541  12.598
50956SOL    HW154765   1.473   4.546  12.588
50956SOL    HW254766   1.596   4.633  12.606
50957SOL     OW54767   1.403   0.289   8.085
50957SOL    HW154768   1.378   0.315   7.996
50957SOL    HW254769   1.495   0.263   8.077
50958SOL     OW54770   4.993  13.580   1.526
50958SOL    HW154771   5.068  13.619   1.481
50958SOL    HW254772   4.936  13.654   1.547
50959SOL     OW54773   8.526   9.541  11.739
50959SOL    HW154774   8.609   9.556  11.694
50959SOL    HW254775   8.510   9.621  11.788
50960SOL     OW54776  14.483   8.398   5.756
50960SOL    HW154777  14.424   8.463   5.794
50960SOL    HW254778  14.427   8.344   5.700
50961SOL     OW54779  14.342   2.064  12.222
50961SOL    HW154780  14.291   2.080  12.302
50961SOL    HW254781  14.278   2.068  12.151
50962SOL     OW54782  13.279   3.081   6.860
50962SOL    HW154783  13.301   3.108   6.949
50962SOL    HW254784  13.237   2.996   6.870
50963SOL     OW54785   8.098   3.367  13.019
50963SOL    HW154786   8.187   3.377  13.052
50963SOL    HW254787   8.043   3.365  13.097
50964SOL     OW54788  12.244  12.399  13.262
50964SOL    HW154789  12.175  12.338  13.289
50964SOL    HW254790  12.208  12.485  13.283
50965SOL     OW54791  14.177  14.460  14.353
50965SOL    HW154792  14.125  14.400  14.300
50965SOL    HW254793  14.140  14.546  14.334
50966SOL     OW54794   8.029  13.597   5.688
50966SOL    HW154795   8.001  13.509   5.712
50966SOL    HW254796   7.985  13.654   5.751
50967SOL     OW54797   4.140  11.781  11.581
50967SOL    HW154798   4.160  11.725  11.506
50967SOL    HW254799   4.171  11.731  11.657
50968SOL     OW54800   6.807  12.053   3.788
50968SOL    HW154801   6.719  12.051   3.750
50968SOL    HW254802   6.858  12.103   3.725
50969SOL     OW54803  13.272   1.432  14.803
50969SOL    HW154804  13.272   1.525  14.825
50969SOL    HW254805  13.199   1.396  14.853
50970SOL     OW54806   2.248  11.029   5.631
50970SOL    HW154807   2.216  10.941   5.653
50970SOL    HW254808   2.281  11.021   5.541
50971SOL     OW54809   5.547   0.352  13.080
50971SOL    HW154810   5.635   0.323  13.056
50971SOL    HW254811   5.488   0.303  13.022
50972SOL     OW54812   4.455   6.735   3.340
50972SOL    HW154813   4.462   6.652   3.387
50972SOL    HW254814   4.420   6.797   3.405
50973SOL     OW54815   2.326   2.886   1.456
50973SOL    HW154816   2.255   2.824   1.440
50973SOL    HW254817   2.380   2.881   1.377
50974SOL     OW54818   3.520   4.628   0.881
50974SOL    HW154819   3.492   4.684   0.808
50974SOL    HW254820   3.439   4.590   0.915
50975SOL     OW54821  11.556  11.214  13.052
50975SOL    HW154822  11.601  11.130  13.053
50975SOL    HW254823  11.602  11.266  12.986
50976SOL     OW54824   4.910  14.809   9.678
50976SOL    HW154825   4.873  14.872   9.739
50976SOL    HW254826   5.001  14.837   9.667
50977SOL     OW54827  13.841   5.473  12.573
50977SOL    HW154828  13.829   5.559  12.613
50977SOL    HW254829  13.933   5.451  12.590
50978SOL     OW54830   0.583   9.647  14.863
50978SOL    HW154831   0.564   9.682   0.070
50978SOL    HW254832   0.549   9.558  14.865
50979SOL     OW54833  14.053   1.206   0.641
50979SOL    HW154834  14.118   1.148   0.601
50979SOL    HW254835  14.049   1.178   0.733
50980SOL     OW54836   7.743   9.333   0.708
50980SOL    HW154837   7.755   9.238   0.707
50980SOL    HW254838   7.648   9.345   0.718
50981SOL     OW54839   5.109   7.284   1.507
50981SOL    HW154840   5.141   7.311   1.421
50981SOL    HW254841   5.057   7.206   1.490
50982SOL     OW54842   6.589   5.287  14.865
50982SOL    HW154843   6.540   5.364   0.015
50982SOL    HW254844   6.591   5.297  14.770
50983SOL     OW54845  13.470   1.148   9.718
50983SOL    HW154846  13.521   1.071   9.694
50983SOL    HW254847  13.381   1.115   9.730
50984SOL     OW54848   4.567   5.545  10.277
50984SOL    HW154849   4.480   5.519  10.246
50984SOL    HW254850   4.558   5.547  10.372
50985SOL     OW54851   4.651   4.925   2.291
50985SOL    HW154852   4.719   4.961   2.348
50985SOL    HW254853   4.608   5.002   2.253
50986SOL     OW54854   7.812   1.915  10.891
50986SOL    HW154855   7.787   1.849  10.956
50986SOL    HW254856   7.872   1.869  10.832
50987SOL     OW54857  11.715   8.492   0.846
50987SOL    HW154858  11.764   8.560   0.801
50987SOL    HW254859  11.662   8.538   0.911
50988SOL     OW54860  11.314   9.556   0.161
50988SOL    HW154861  11.276   9.622   0.103
50988SOL    HW254862  11.266   9.566   0.243
50989SOL     OW54863  12.626   5.633   8.894
50989SOL    HW154864  12.602   5.540   8.895
50989SOL    HW254865  12.701   5.638   8.835
50990SOL     OW54866  13.690  13.645   8.227
50990SOL    HW154867  13.691  13.726   8.278
50990SOL    HW254868  13.601  13.639   8.193
50991SOL     OW54869   9.087  10.791   5.463
50991SOL    HW154870   9.035  10.794   5.382
50991SOL    HW254871   9.119  10.881   5.473
50992SOL     OW54872   9.033   8.007  14.276
50992SOL    HW154873   9.035   7.941  14.207
50992SOL    HW254874   8.966   8.070  14.248
50993SOL     OW54875   8.286   1.448   1.003
50993SOL    HW154876   8.251   1.424   0.917
50993SOL    HW254877   8.216   1.498   1.045
50994SOL     OW54878  12.438   6.213   4.442
50994SOL    HW154879  12.438   6.179   4.532
50994SOL    HW254880  12.522   6.257   4.433
50995SOL     OW54881   8.936   7.664  10.638
50995SOL    HW154882   8.926   7.590  10.579
50995SOL    HW254883   8.850   7.677  10.677
50996SOL     OW54884  13.537  10.446   3.958
50996SOL    HW154885  13.612  10.443   4.017
50996SOL    HW254886  13.461  10.435   4.015
50997SOL     OW54887   9.213  11.052   5.447
50997SOL    HW154888   9.250  11.139   5.465
50997SOL    HW254889   9.261  10.993   5.505
50998SOL     OW54890   1.137   1.458   7.875
50998SOL    HW154891   1.196   1.514   7.925
50998SOL    HW254892   1.054   1.462   7.923
50999SOL     OW54893   9.817   8.174  14.540
50999SOL    HW154894   9.905   8.162  14.505
50999SOL    HW254895   9.800   8.268  14.529
51000SOL     OW54896   7.100   6.622   8.761
51000SOL    HW154897   7.046   6.643   8.685
51000SOL    HW254898   7.050   6.655   8.836
51001SOL     OW54899   8.547  14.642  10.513
51001SOL    HW154900   8.604  14.633  10.436
51001SOL    HW254901   8.568  14.567  10.568
51002SOL     OW54902  11.918   2.906   8.493
51002SOL    HW154903  11.874   2.954   8.563
51002SOL    HW254904  12.000   2.955   8.479
51003SOL     OW54905   2.149   4.525   8.117
51003SOL    HW154906   2.234   4.530   8.159
51003SOL    HW254907   2.125   4.616   8.099
51004SOL     OW54908  10.352   2.070  10.388
51004SOL    HW154909  10.310   2.002  10.442
51004SOL    HW254910  10.438   2.033  10.366
51005SOL     OW54911   8.192   5.857  11.435
51005SOL    HW154912   8.176   5.910  11.513
51005SOL    HW254913   8.108   5.814  11.417
51006SOL     OW54914   8.216   9.264   7.091
51006SOL    HW154915   8.299   9.218   7.102
51006SOL    HW254916   8.197   9.256   6.998
51007SOL     OW54917  11.827   3.392  11.546
51007SOL    HW154918  11.802   3.402  11.637
51007SOL    HW254919  11.799   3.303  11.523
51008SOL     OW54920   0.054  10.290  11.307
51008SOL    HW154921   0.078  10.225  11.373
51008SOL    HW254922   0.132  10.345  11.299
51009SOL     OW54923   7.103   3.209   5.596
51009SOL    HW154924   7.111   3.122   5.635
51009SOL    HW254925   7.120   3.270   5.668
51010SOL     OW54926   6.270   3.577   3.960
51010SOL    HW154927   6.340   3.620   4.009
51010SOL    HW254928   6.189   3.616   3.993
51011SOL     OW54929   0.740   5.116   6.898
51011SOL    HW154930   0.812   5.056   6.882
51011SOL    HW254931   0.670   5.061   6.932
51012SOL     OW54932   0.999  10.948  12.174
51012SOL    HW154933   0.985  11.038  12.147
51012SOL    HW254934   0.937  10.897  12.122
51013SOL     OW54935   0.610   1.657   1.306
51013SOL    HW154936   0.556   1.723   1.350
51013SOL    HW254937   0.550   1.586   1.286
51014SOL     OW54938  13.290   0.229  11.994
51014SOL    HW154939  13.222   0.196  11.934
51014SOL    HW254940  13.303   0.158  12.057
51015SOL     OW54941  13.166   5.437   2.480
51015SOL    HW154942  13.200   5.414   2.394
51015SOL    HW254943  13.071   5.423   2.473
51016SOL     OW54944  11.263   4.601   7.244
51016SOL    HW154945  11.268   4.587   7.149
51016SOL    HW254946  11.337   4.552   7.279
51017SOL     OW54947   5.762   1.069   8.323
51017SOL    HW154948   5.855   1.087   8.316
51017SOL    HW254949   5.753   0.976   8.302
51018SOL     OW54950  10.368  14.031  10.038
51018SOL    HW154951  10.372  14.098   9.969
51018SOL    HW254952  10.349  13.950   9.991
51019SOL     OW54953  10.383  10.934  10.124
51019SOL    HW154954  10.413  11.020  10.095
51019SOL    HW254955  10.418  10.925  10.213
51020SOL     OW54956   4.865  11.674   3.043
51020SOL    HW154957   4.953  11.702   3.020
51020SOL    HW254958   4.850  11.595   2.991
51021SOL     OW54959  14.471   7.809   2.633
51021SOL    HW154960  14.548   7.770   2.592
51021SOL    HW254961  14.493   7.816   2.725
51022SOL     OW54962   9.630  12.625  14.756
51022SOL    HW154963   9.671  12.707  14.784
51022SOL    HW254964   9.536  12.642  14.759
51023SOL     OW54965   1.942   0.947   7.470
51023SOL    HW154966   2.004   0.888   7.427
51023SOL    HW254967   1.856   0.921   7.435
51024SOL     OW54968  11.262  13.200  10.035
51024SOL    HW154969  11.243  13.151   9.955
51024SOL    HW254970  11.306  13.280  10.004
51025SOL     OW54971   2.874  12.484  11.994
51025SOL    HW154972   2.966  12.458  11.986
51025SOL    HW254973   2.870  12.571  11.956
51026SOL     OW54974   4.911   8.438   7.149
51026SOL    HW154975   4.936   8.346   7.151
51026SOL    HW254976   4.833   8.440   7.093
51027SOL     OW54977   3.552  12.082   1.440
51027SOL    HW154978   3.518  12.052   1.356
51027SOL    HW254979   3.508  12.027   1.505
51028SOL     OW54980   5.625  12.338  11.105
51028SOL    HW154981   5.563  12.277  11.145
51028SOL    HW254982   5.638  12.304  11.016
51029SOL     OW54983  12.994   6.291  12.808
51029SOL    HW154984  13.031   6.236  12.878
51029SOL    HW254985  13.070   6.332  12.767
51030SOL     OW54986   8.301  12.576  10.347
51030SOL    HW154987   8.238  12.648  10.344
51030SOL    HW254988   8.338  12.581  10.435
51031SOL     OW54989  14.122  14.795  14.474
51031SOL    HW154990  14.063  14.725  14.444
51031SOL    HW254991  14.077  14.834  14.549
51032SOL     OW54992   3.494  13.493  10.948
51032SOL    HW154993   3.501  13.583  10.980
51032SOL    HW254994   3.487  13.441  11.028
51033SOL     OW54995   2.488   5.469  12.209
51033SOL    HW154996   2.420   5.476  12.276
51033SOL    HW254997   2.446   5.500  12.128
51034SOL     OW54998   8.899   1.326  13.373
51034SOL    HW154999   8.932   1.251  13.325
51034SOL    HW255000   8.976   1.378  13.395
51035SOL     OW55001  14.417   1.150   2.375
51035SOL    HW155002  14.433   1.132   2.467
51035SOL    HW255003  14.448   1.239   2.362
51036SOL     OW55004  11.239  10.599  12.465
51036SOL    HW155005  11.165  10.653  12.492
51036SOL    HW255006  11.316  10.642  12.503
51037SOL     OW55007   7.863   0.595  12.614
51037SOL    HW155008   7.918   0.603  12.535
51037SOL    HW255009   7.779   0.632  12.588
51038SOL     OW55010   1.693   6.008   1.535
51038SOL    HW155011   1.783   5.975   1.542
51038SOL    HW255012   1.642   5.931   1.510
51039SOL     OW55013  14.089   2.582  12.927
51039SOL    HW155014  14.123   2.493  12.932
51039SOL    HW255015  14.141   2.631  12.991
51040SOL     OW55016   8.575  11.462   9.740
51040SOL    HW155017   8.569  11.399   9.811
51040SOL    HW255018   8.557  11.547   9.782
51041SOL     OW55019   1.351   8.670   7.806
51041SOL    HW155020   1.316   8.731   7.871
51041SOL    HW255021   1.444   8.661   7.829
51042SOL     OW55022   7.197  14.007  11.715
51042SOL    HW155023   7.222  13.929  11.764
51042SOL    HW255024   7.276  14.032  11.667
51043SOL     OW55025   8.091   8.579  10.003
51043SOL    HW155026   8.041   8.659   9.989
51043SOL    HW255027   8.157   8.602  10.068
51044SOL     OW55028   4.335  11.166   1.529
51044SOL    HW155029   4.414  11.153   1.476
51044SOL    HW255030   4.320  11.081   1.571
51045SOL     OW55031   3.000  13.518   6.695
51045SOL    HW155032   3.082  13.547   6.736
51045SOL    HW255033   2.968  13.595   6.649
51046SOL     OW55034   0.181  14.223   6.218
51046SOL    HW155035   0.188  14.177   6.302
51046SOL    HW255036   0.261  14.275   6.213
51047SOL     OW55037   8.319  10.398   8.932
51047SOL    HW155038   8.347  10.435   8.848
51047SOL    HW255039   8.400  10.390   8.982
51048SOL     OW55040   9.625  12.348  12.279
51048SOL    HW155041   9.563  12.343  12.207
51048SOL    HW255042   9.709  12.324  12.240
51049SOL     OW55043  12.473   5.212   8.068
51049SOL    HW155044  12.557   5.244   8.036
51049SOL    HW255045  12.489   5.120   8.089
51050SOL     OW55046   6.716  10.762   1.518
51050SOL    HW155047   6.666  10.775   1.599
51050SOL    HW255048   6.785  10.829   1.521
51051SOL     OW55049   6.710   6.488  13.389
51051SOL    HW155050   6.784   6.471  13.330
51051SOL    HW255051   6.633   6.471  13.336
51052SOL     OW55052  13.121   2.125  14.728
51052SOL    HW155053  13.067   2.104  14.804
51052SOL    HW255054  13.110   2.219  14.716
51053SOL     OW55055   4.357   4.185  10.771
51053SOL    HW155056   4.398   4.155  10.690
51053SOL    HW255057   4.310   4.108  10.804
51054SOL     OW55058  12.765  11.239   3.240
51054SOL    HW155059  12.840  11.270   3.291
51054SOL    HW255060  12.767  11.293   3.161
51055SOL     OW55061   7.460   5.063  10.158
51055SOL    HW155062   7.520   5.083  10.086
51055SOL    HW255063   7.373   5.072  10.119
51056SOL     OW55064  14.813   7.086  14.107
51056SOL    HW155065  14.746   7.070  14.174
51056SOL    HW255066  14.763   7.109  14.029
51057SOL     OW55067  14.487   2.688   1.405
51057SOL    HW155068  14.477   2.622   1.336
51057SOL    HW255069  14.484   2.772   1.358
51058SOL     OW55070   6.010   4.828   9.311
51058SOL    HW155071   5.987   4.915   9.343
51058SOL    HW255072   5.951   4.769   9.357
51059SOL     OW55073   0.927   4.664   5.846
51059SOL    HW155074   0.878   4.585   5.869
51059SOL    HW255075   0.987   4.635   5.777
51060SOL     OW55076   8.733  10.321   3.180
51060SOL    HW155077   8.645  10.342   3.210
51060SOL    HW255078   8.727  10.321   3.085
51061SOL     OW55079   1.466  10.102   6.831
51061SOL    HW155080   1.550  10.073   6.794
51061SOL    HW255081   1.422  10.145   6.757
51062SOL     OW55082   4.288   5.835  12.323
51062SOL    HW155083   4.237   5.803  12.249
51062SOL    HW255084   4.362   5.774  12.329
51063SOL     OW55085   7.855  13.321   3.809
51063SOL    HW155086   7.882  13.320   3.901
51063SOL    HW255087   7.784  13.385   3.805
51064SOL     OW55088  13.396   1.348   8.303
51064SOL    HW155089  13.471   1.352   8.244
51064SOL    HW255090  13.367   1.439   8.311
51065SOL     OW55091   8.553   9.606   9.744
51065SOL    HW155092   8.624   9.649   9.697
51065SOL    HW255093   8.483   9.599   9.679
51066SOL     OW55094   5.876   7.656   6.918
51066SOL    HW155095   5.893   7.717   6.847
51066SOL    HW255096   5.801   7.693   6.965
51067SOL     OW55097   2.541  12.242  12.853
51067SOL    HW155098   2.574  12.238  12.764
51067SOL    HW255099   2.522  12.335  12.867
51068SOL     OW55100   4.919  13.698   7.978
51068SOL    HW155101   5.003  13.736   7.950
51068SOL    HW255102   4.890  13.646   7.903
51069SOL     OW55103   4.677  12.186   9.439
51069SOL    HW155104   4.771  12.205   9.436
51069SOL    HW255105   4.635  12.268   9.414
51070SOL     OW55106   3.493  14.103   4.221
51070SOL    HW155107   3.578  14.137   4.192
51070SOL    HW255108   3.450  14.073   4.141
51071SOL     OW55109   3.398   2.786  14.382
51071SOL    HW155110   3.322   2.810  14.328
51071SOL    HW255111   3.376   2.820  14.469
51072SOL     OW55112  13.378   0.521   6.418
51072SOL    HW155113  13.419   0.601   6.385
51072SOL    HW255114  13.427   0.499   6.497
51073SOL     OW55115  11.777  11.660  11.306
51073SOL    HW155116  11.718  11.726  11.339
51073SOL    HW255117  11.847  11.709  11.263
51074SOL     OW55118   4.620  14.859   3.634
51074SOL    HW155119   4.646   0.009   3.721
51074SOL    HW255120   4.578  14.775   3.650
51075SOL     OW55121   2.709   0.136  13.495
51075SOL    HW155122   2.768   0.072  13.457
51075SOL    HW255123   2.621   0.101  13.477
51076SOL     OW55124   4.830  13.172   2.597
51076SOL    HW155125   4.854  13.092   2.550
51076SOL    HW255126   4.876  13.165   2.681
51077SOL     OW55127   9.558   3.922   4.348
51077SOL    HW155128   9.627   3.978   4.383
51077SOL    HW255129   9.481   3.978   4.345
51078SOL     OW55130  10.955   6.740  12.331
51078SOL    HW155131  10.878   6.687  12.352
51078SOL    HW255132  10.997   6.693  12.259
51079SOL     OW55133   4.787   4.376  13.970
51079SOL    HW155134   4.808   4.384  13.877
51079SOL    HW255135   4.691   4.367  13.972
51080SOL     OW55136   9.332  13.168   3.707
51080SOL    HW155137   9.361  13.211   3.787
51080SOL    HW255138   9.285  13.091   3.736
51081SOL     OW55139   7.176   6.921   5.867
51081SOL    HW155140   7.127   6.946   5.789
51081SOL    HW255141   7.111   6.915   5.936
51082SOL     OW55142  14.476   0.605  12.857
51082SOL    HW155143  14.562   0.587  12.819
51082SOL    HW255144  14.435   0.519  12.865
51083SOL     OW55145   0.980   7.515  14.520
51083SOL    HW155146   0.958   7.607  14.530
51083SOL    HW255147   1.008   7.488  14.608
51084SOL     OW55148   5.233   6.717   5.216
51084SOL    HW155149   5.148   6.748   5.245
51084SOL    HW255150   5.297   6.774   5.259
51085SOL     OW55151  14.082   1.934   2.569
51085SOL    HW155152  14.068   1.904   2.659
51085SOL    HW255153  14.003   1.909   2.522
51086SOL     OW55154   8.318   2.885   1.750
51086SOL    HW155155   8.268   2.812   1.787
51086SOL    HW255156   8.407   2.852   1.745
51087SOL     OW55157  13.414   9.970   8.326
51087SOL    HW155158  13.508   9.958   8.320
51087SOL    HW255159  13.398  10.057   8.288
51088SOL     OW55160   1.067  11.902   7.629
51088SOL    HW155161   1.013  11.832   7.590
51088SOL    HW255162   1.086  11.871   7.717
51089SOL     OW55163  14.301   8.707   1.453
51089SOL    HW155164  14.365   8.639   1.476
51089SOL    HW255165  14.350   8.768   1.398
51090SOL     OW55166   4.884   1.480   9.896
51090SOL    HW155167   4.905   1.433   9.815
51090SOL    HW255168   4.800   1.522   9.879
51091SOL     OW55169   9.339   5.015   3.216
51091SOL    HW155170   9.293   5.092   3.250
51091SOL    HW255171   9.279   4.942   3.233
51092SOL     OW55172  10.381  11.378   8.654
51092SOL    HW155173  10.290  11.372   8.624
51092SOL    HW255174  10.429  11.323   8.593
51093SOL     OW55175   0.741  13.128   1.344
51093SOL    HW155176   0.684  13.061   1.307
51093SOL    HW255177   0.704  13.146   1.431
51094SOL     OW55178   8.296   3.407  14.223
51094SOL    HW155179   8.378   3.379  14.265
51094SOL    HW255180   8.324   3.463  14.150
51095SOL     OW55181  13.566   1.784   2.735
51095SOL    HW155182  13.530   1.831   2.660
51095SOL    HW255183  13.609   1.851   2.788
51096SOL     OW55184   5.430   2.782   6.840
51096SOL    HW155185   5.355   2.780   6.781
51096SOL    HW255186   5.441   2.692   6.868
51097SOL     OW55187   9.215   7.175  14.776
51097SOL    HW155188   9.246   7.264  14.759
51097SOL    HW255189   9.133   7.168  14.727
51098SOL     OW55190   5.459   5.219   6.095
51098SOL    HW155191   5.388   5.171   6.053
51098SOL    HW255192   5.456   5.306   6.055
51099SOL     OW55193  11.766   7.784   0.090
51099SOL    HW155194  11.736   7.732   0.015
51099SOL    HW255195  11.727   7.741   0.166
51100SOL     OW55196   2.385   9.275   4.825
51100SOL    HW155197   2.466   9.326   4.826
51100SOL    HW255198   2.414   9.185   4.843
51101SOL     OW55199   5.421   2.759  13.287
51101SOL    HW155200   5.472   2.703  13.228
51101SOL    HW255201   5.476   2.769  13.364
51102SOL     OW55202  12.987  14.309  10.868
51102SOL    HW155203  12.923  14.351  10.925
51102SOL    HW255204  13.015  14.231  10.917
51103SOL     OW55205   1.442   6.179   6.212
51103SOL    HW155206   1.496   6.122   6.157
51103SOL    HW255207   1.355   6.175   6.172
51104SOL     OW55208  13.340   8.506   1.451
51104SOL    HW155209  13.346   8.413   1.472
51104SOL    HW255210  13.304   8.546   1.531
51105SOL     OW55211  10.849   5.413  13.659
51105SOL    HW155212  10.904   5.482  13.696
51105SOL    HW255213  10.809   5.370  13.735
51106SOL     OW55214   7.635  13.076   5.933
51106SOL    HW155215   7.621  13.156   5.984
51106SOL    HW255216   7.604  13.006   5.991
51107SOL     OW55217   4.212   2.769  13.762
51107SOL    HW155218   4.221   2.743  13.854
51107SOL    HW255219   4.301   2.793  13.735
51108SOL     OW55220   7.102   0.229   9.757
51108SOL    HW155221   7.149   0.305   9.793
51108SOL    HW255222   7.108   0.163   9.825
51109SOL     OW55223   8.176   0.378  14.005
51109SOL    HW155224   8.250   0.417  14.051
51109SOL    HW255225   8.170   0.428  13.923
51110SOL     OW55226   0.403   1.802   8.911
51110SOL    HW155227   0.384   1.766   8.997
51110SOL    HW255228   0.330   1.771   8.856
51111SOL     OW55229   2.925   2.977   3.331
51111SOL    HW155230   2.844   2.955   3.377
51111SOL    HW255231   2.902   3.054   3.278
51112SOL     OW55232   9.669   8.688   5.406
51112SOL    HW155233   9.716   8.770   5.392
51112SOL    HW255234   9.678   8.671   5.500
51113SOL     OW55235   3.226   4.239   3.796
51113SOL    HW155236   3.312   4.270   3.769
51113SOL    HW255237   3.174   4.239   3.716
51114SOL     OW55238  12.601   8.558  12.007
51114SOL    HW155239  12.563   8.611  11.938
51114SOL    HW255240  12.603   8.615  12.084
51115SOL     OW55241  14.791   7.571   2.214
51115SOL    HW155242  14.746   7.627   2.277
51115SOL    HW255243  14.770   7.609   2.129
51116SOL     OW55244   7.030  14.407  10.947
51116SOL    HW155245   6.990  14.351  11.014
51116SOL    HW255246   7.067  14.346  10.883
51117SOL     OW55247   8.760  10.017   7.399
51117SOL    HW155248   8.780  10.102   7.360
51117SOL    HW255249   8.775   9.954   7.328
51118SOL     OW55250   6.477  14.803   8.964
51118SOL    HW155251   6.475   0.015   8.989
51118SOL    HW255252   6.399  14.765   9.005
51119SOL     OW55253   9.860   6.297   0.572
51119SOL    HW155254   9.822   6.322   0.488
51119SOL    HW255255   9.937   6.245   0.549
51120SOL     OW55256  14.713   6.536  14.345
51120SOL    HW155257  14.735   6.474  14.415
51120SOL    HW255258  14.641   6.493  14.298
51121SOL     OW55259   7.220   2.298  11.412
51121SOL    HW155260   7.206   2.392  11.399
51121SOL    HW255261   7.132   2.262  11.421
51122SOL     OW55262  14.714  12.424   3.525
51122SOL    HW155263  14.725  12.369   3.603
51122SOL    HW255264  14.692  12.362   3.456
51123SOL     OW55265   0.951   7.788  14.546
51123SOL    HW155266   1.007   7.819  14.617
51123SOL    HW255267   0.869   7.835  14.558
51124SOL     OW55268   2.496   4.911   9.557
51124SOL    HW155269   2.538   4.997   9.553
51124SOL    HW255270   2.543   4.864   9.626
51125SOL     OW55271   1.737   3.220  14.818
51125SOL    HW155272   1.677   3.151  14.845
51125SOL    HW255273   1.694   3.260  14.742
51126SOL     OW55274   6.515   8.699   6.070
51126SOL    HW155275   6.464   8.698   6.152
51126SOL    HW255276   6.538   8.608   6.055
51127SOL     OW55277  14.324  11.022  12.347
51127SOL    HW155278  14.408  10.979  12.334
51127SOL    HW255279  14.323  11.045  12.440
51128SOL     OW55280   6.203  10.316  13.970
51128SOL    HW155281   6.289  10.301  13.932
51128SOL    HW255282   6.145  10.328  13.894
51129SOL     OW55283   6.219   2.426   5.064
51129SOL    HW155284   6.232   2.333   5.082
51129SOL    HW255285   6.229   2.469   5.149
51130SOL     OW55286   6.216   2.766   3.407
51130SOL    HW155287   6.242   2.779   3.316
51130SOL    HW255288   6.224   2.853   3.447
51131SOL     OW55289  12.773   6.808   9.137
51131SOL    HW155290  12.785   6.724   9.181
51131SOL    HW255291  12.818   6.872   9.193
51132SOL     OW55292   0.865  12.229   7.145
51132SOL    HW155293   0.820  12.283   7.210
51132SOL    HW255294   0.933  12.183   7.194
51133SOL     OW55295  13.370   6.822   1.479
51133SOL    HW155296  13.330   6.906   1.502
51133SOL    HW255297  13.462   6.843   1.462
51134SOL     OW55298   9.561   6.246  12.215
51134SOL    HW155299   9.602   6.316  12.163
51134SOL    HW255300   9.493   6.291  12.264
51135SOL     OW55301  11.212   7.326  11.232
51135SOL    HW155302  11.261   7.257  11.188
51135SOL    HW255303  11.181   7.382  11.161
51136SOL     OW55304   7.963  12.184   1.123
51136SOL    HW155305   7.948  12.147   1.210
51136SOL    HW255306   8.049  12.150   1.097
51137SOL     OW55307   4.938   0.929   6.694
51137SOL    HW155308   4.972   0.844   6.666
51137SOL    HW255309   4.940   0.925   6.789
51138SOL     OW55310   7.254  13.145  14.800
51138SOL    HW155311   7.188  13.093  14.846
51138SOL    HW255312   7.244  13.119  14.708
51139SOL     OW55313  13.953   3.679  13.166
51139SOL    HW155314  14.018   3.664  13.234
51139SOL    HW255315  13.931   3.772  13.173
51140SOL     OW55316   1.097  10.734   4.319
51140SOL    HW155317   1.172  10.687   4.354
51140SOL    HW255318   1.092  10.707   4.227
51141SOL     OW55319   0.171   8.556   0.348
51141SOL    HW155320   0.176   8.652   0.346
51141SOL    HW255321   0.237   8.531   0.413
51142SOL     OW55322   6.810  13.141  12.884
51142SOL    HW155323   6.879  13.091  12.928
51142SOL    HW255324   6.855  13.220  12.853
51143SOL     OW55325   3.548   6.345   4.036
51143SOL    HW155326   3.517   6.436   4.045
51143SOL    HW255327   3.643   6.352   4.041
51144SOL     OW55328   8.491  13.660   3.949
51144SOL    HW155329   8.581  13.641   3.977
51144SOL    HW255330   8.499  13.683   3.856
51145SOL     OW55331   6.068  11.229  10.647
51145SOL    HW155332   6.098  11.318  10.667
51145SOL    HW255333   6.087  11.217  10.554
51146SOL     OW55334  12.929   3.428   6.158
51146SOL    HW155335  12.874   3.385   6.224
51146SOL    HW255336  12.936   3.363   6.087
51147SOL     OW55337   4.402   3.999   5.812
51147SOL    HW155338   4.363   4.085   5.794
51147SOL    HW255339   4.462   4.015   5.884
51148SOL     OW55340  12.592   3.787   2.602
51148SOL    HW155341  12.532   3.799   2.529
51148SOL    HW255342  12.645   3.867   2.603
51149SOL     OW55343   2.129  10.807   5.695
51149SOL    HW155344   2.040  10.799   5.727
51149SOL    HW255345   2.159  10.717   5.685
51150SOL     OW55346   6.857  11.298   0.901
51150SOL    HW155347   6.917  11.366   0.868
51150SOL    HW255348   6.831  11.250   0.823
51151SOL     OW55349   3.695  10.053  11.367
51151SOL    HW155350   3.732   9.965  11.371
51151SOL    HW255351   3.680  10.077  11.459
51152SOL     OW55352   1.703  14.544  12.037
51152SOL    HW155353   1.765  14.577  12.101
51152SOL    HW255354   1.640  14.616  12.026
51153SOL     OW55355   6.570   1.586   8.683
51153SOL    HW155356   6.521   1.503   8.679
51153SOL    HW255357   6.661   1.560   8.673
51154SOL     OW55358   0.592  13.965   9.156
51154SOL    HW155359   0.570  13.972   9.249
51154SOL    HW255360   0.665  14.026   9.145
51155SOL     OW55361   8.647   4.074   3.464
51155SOL    HW155362   8.589   4.095   3.537
51155SOL    HW255363   8.632   3.981   3.448
51156SOL     OW55364   5.847  10.830   2.129
51156SOL    HW155365   5.925  10.778   2.109
51156SOL    HW255366   5.865  10.867   2.215
51157SOL     OW55367   9.911   6.944   8.529
51157SOL    HW155368   9.966   7.014   8.565
51157SOL    HW255369   9.904   6.964   8.436
51158SOL     OW55370  11.757   7.842  13.775
51158SOL    HW155371  11.735   7.920  13.827
51158SOL    HW255372  11.705   7.772  13.815
51159SOL     OW55373  13.930   0.136   2.271
51159SOL    HW155374  13.947   0.227   2.294
51159SOL    HW255375  13.834   0.128   2.274
51160SOL     OW55376   0.409   7.416  14.440
51160SOL    HW155377   0.462   7.438  14.516
51160SOL    HW255378   0.465   7.359  14.387
51161SOL     OW55379   4.739   6.518   5.143
51161SOL    HW155380   4.828   6.546   5.167
51161SOL    HW255381   4.704   6.480   5.223
51162SOL     OW55382   5.820   9.834  10.135
51162SOL    HW155383   5.765   9.763  10.168
51162SOL    HW255384   5.901   9.791  10.108
51163SOL     OW55385   7.682  14.189   1.849
51163SOL    HW155386   7.587  14.200   1.842
51163SOL    HW255387   7.717  14.278   1.844
51164SOL     OW55388   7.353   8.775  11.370
51164SOL    HW155389   7.433   8.825  11.351
51164SOL    HW255390   7.381   8.708  11.432
51165SOL     OW55391   8.271   9.667   4.219
51165SOL    HW155392   8.238   9.581   4.191
51165SOL    HW255393   8.269   9.721   4.140
51166SOL     OW55394   7.344   0.679  10.036
51166SOL    HW155395   7.360   0.637  10.121
51166SOL    HW255396   7.430   0.689   9.997
51167SOL     OW55397  14.716  11.683  12.313
51167SOL    HW155398  14.741  11.659  12.224
51167SOL    HW255399  14.747  11.773  12.324
51168SOL     OW55400   4.581   2.539   6.012
51168SOL    HW155401   4.493   2.504   6.000
51168SOL    HW255402   4.577   2.627   5.975
51169SOL     OW55403  11.069   5.914   4.526
51169SOL    HW155404  11.039   6.002   4.503
51169SOL    HW255405  11.110   5.882   4.446
51170SOL     OW55406  13.626   2.982   4.710
51170SOL    HW155407  13.636   2.976   4.615
51170SOL    HW255408  13.537   2.952   4.727
51171SOL     OW55409   3.592  14.764   0.730
51171SOL    HW155410   3.611  14.849   0.690
51171SOL    HW255411   3.655  14.704   0.692
51172SOL     OW55412   1.524   8.837   2.410
51172SOL    HW155413   1.476   8.833   2.493
51172SOL    HW255414   1.616   8.834   2.435
51173SOL     OW55415   0.503   2.637   5.453
51173SOL    HW155416   0.469   2.718   5.415
51173SOL    HW255417   0.557   2.666   5.526
51174SOL     OW55418  14.243  11.649   9.107
51174SOL    HW155419  14.199  11.669   9.190
51174SOL    HW255420  14.335  11.665   9.124
51175SOL     OW55421   7.890   5.476  14.362
51175SOL    HW155422   7.796   5.456  14.359
51175SOL    HW255423   7.897   5.549  14.423
51176SOL     OW55424   9.267   3.412   4.069
51176SOL    HW155425   9.238   3.353   4.139
51176SOL    HW255426   9.336   3.363   4.024
51177SOL     OW55427   4.242   5.930  14.231
51177SOL    HW155428   4.321   5.893  14.192
51177SOL    HW255429   4.242   5.895  14.321
51178SOL     OW55430   2.824   2.015   3.578
51178SOL    HW155431   2.740   1.971   3.562
51178SOL    HW255432   2.814   2.055   3.665
51179SOL     OW55433   7.984  10.525  13.903
51179SOL    HW155434   7.897  10.551  13.935
51179SOL    HW255435   7.982  10.544  13.810
51180SOL     OW55436   7.869   8.045   2.408
51180SOL    HW155437   7.872   7.950   2.419
51180SOL    HW255438   7.949   8.077   2.451
51181SOL     OW55439  14.241   4.750   8.691
51181SOL    HW155440  14.306   4.795   8.637
51181SOL    HW255441  14.233   4.804   8.769
51182SOL     OW55442   9.419  10.676   8.242
51182SOL    HW155443   9.463  10.753   8.278
51182SOL    HW255444   9.373  10.709   8.165
51183SOL     OW55445   1.668   2.192   9.030
51183SOL    HW155446   1.709   2.220   8.949
51183SOL    HW255447   1.733   2.211   9.098
51184SOL     OW55448   1.703   2.525   3.477
51184SOL    HW155449   1.664   2.443   3.507
51184SOL    HW255450   1.783   2.499   3.432
51185SOL     OW55451   5.800   1.583   6.118
51185SOL    HW155452   5.879   1.529   6.111
51185SOL    HW255453   5.759   1.576   6.033
51186SOL     OW55454   1.935   1.800   4.230
51186SOL    HW155455   2.002   1.869   4.219
51186SOL    HW255456   1.888   1.799   4.147
51187SOL     OW55457  10.759  13.754   0.867
51187SOL    HW155458  10.826  13.764   0.799
51187SOL    HW255459  10.806  13.714   0.941
51188SOL     OW55460  11.232  11.685  10.284
51188SOL    HW155461  11.169  11.640  10.227
51188SOL    HW255462  11.250  11.622  10.354
51189SOL     OW55463  14.608  10.988   6.464
51189SOL    HW155464  14.623  10.987   6.369
51189SOL    HW255465  14.515  10.966   6.474
51190SOL     OW55466   6.248  12.681   2.665
51190SOL    HW155467   6.189  12.606   2.665
51190SOL    HW255468   6.209  12.742   2.728
51191SOL     OW55469   0.080   0.271  12.216
51191SOL    HW155470   0.077   0.325  12.295
51191SOL    HW255471   0.018   0.312  12.156
51192SOL     OW55472   6.944   0.583  14.249
51192SOL    HW155473   6.899   0.543  14.175
51192SOL    HW255474   6.937   0.678  14.233
51193SOL     OW55475  14.435   1.361  12.178
51193SOL    HW155476  14.425   1.454  12.198
51193SOL    HW255477  14.524   1.340  12.206
51194SOL     OW55478  11.844   1.072   8.683
51194SOL    HW155479  11.939   1.063   8.689
51194SOL    HW255480  11.811   1.013   8.751
51195SOL     OW55481   7.899   1.224  12.568
51195SOL    HW155482   7.967   1.291  12.569
51195SOL    HW255483   7.862   1.228  12.480
51196SOL     OW55484  13.120  12.589   4.291
51196SOL    HW155485  13.050  12.524   4.282
51196SOL    HW255486  13.194  12.553   4.242
51197SOL     OW55487   7.712   4.065   1.052
51197SOL    HW155488   7.705   4.094   1.143
51197SOL    HW255489   7.780   3.998   1.053
51198SOL     OW55490   0.933   9.309   9.410
51198SOL    HW155491   1.007   9.342   9.462
51198SOL    HW255492   0.948   9.215   9.405
51199SOL     OW55493  13.330   6.152   4.488
51199SOL    HW155494  13.392   6.225   4.489
51199SOL    HW255495  13.296   6.148   4.578
51200SOL     OW55496   9.626   9.267  14.303
51200SOL    HW155497   9.721   9.277  14.301
51200SOL    HW255498   9.595   9.333  14.365
51201SOL     OW55499   9.278   6.049  13.342
51201SOL    HW155500   9.247   5.980  13.400
51201SOL    HW255501   9.368   6.025  13.320
51202SOL     OW55502   5.739   3.165   6.384
51202SOL    HW155503   5.673   3.100   6.361
51202SOL    HW255504   5.782   3.186   6.301
51203SOL     OW55505   9.861  13.630  10.597
51203SOL    HW155506   9.823  13.690  10.662
51203SOL    HW255507   9.955  13.639  10.609
51204SOL     OW55508  10.446   0.948   7.948
51204SOL    HW155509  10.390   0.972   7.874
51204SOL    HW255510  10.407   0.993   8.023
51205SOL     OW55511   4.244  10.973  14.278
51205SOL    HW155512   4.271  10.881  14.267
51205SOL    HW255513   4.319  11.015  14.321
51206SOL     OW55514   8.459  11.819  11.050
51206SOL    HW155515   8.501  11.734  11.037
51206SOL    HW255516   8.531  11.880  11.067
51207SOL     OW55517   8.136   2.061   7.959
51207SOL    HW155518   8.091   2.018   7.887
51207SOL    HW255519   8.193   1.993   7.995
51208SOL     OW55520   9.717  10.515   3.839
51208SOL    HW155521   9.775  10.581   3.877
51208SOL    HW255522   9.636  10.522   3.890
51209SOL     OW55523  10.939   4.931   5.641
51209SOL    HW155524  10.914   4.874   5.568
51209SOL    HW255525  10.863   4.930   5.699
51210SOL     OW55526  13.180   5.154  12.666
51210SOL    HW155527  13.136   5.227  12.624
51210SOL    HW255528  13.117   5.082  12.663
51211SOL     OW55529   3.340  11.578   8.489
51211SOL    HW155530   3.432  11.591   8.465
51211SOL    HW255531   3.338  11.489   8.526
51212SOL     OW55532   6.531   2.894   8.097
51212SOL    HW155533   6.572   2.955   8.036
51212SOL    HW255534   6.605   2.855   8.145
51213SOL     OW55535   2.436   9.674   0.138
51213SOL    HW155536   2.513   9.620   0.125
51213SOL    HW255537   2.377   9.619   0.191
51214SOL     OW55538   3.973   6.823  12.558
51214SOL    HW155539   3.997   6.916  12.555
51214SOL    HW255540   3.980   6.793  12.468
51215SOL     OW55541  12.329   4.643   5.253
51215SOL    HW155542  12.363   4.725   5.290
51215SOL    HW255543  12.384   4.575   5.290
51216SOL     OW55544   3.236   9.096  14.714
51216SOL    HW155545   3.297   9.160  14.750
51216SOL    HW255546   3.240   9.023  14.776
51217SOL     OW55547  14.215  12.815  13.710
51217SOL    HW155548  14.224  12.761  13.789
51217SOL    HW255549  14.190  12.901  13.743
51218SOL     OW55550   1.675   8.175   0.728
51218SOL    HW155551   1.606   8.222   0.774
51218SOL    HW255552   1.632   8.096   0.695
51219SOL     OW55553  14.380  14.221   4.299
51219SOL    HW155554  14.434  14.298   4.316
51219SOL    HW255555  14.290  14.252   4.303
51220SOL     OW55556   2.971   9.916  14.243
51220SOL    HW155557   3.035   9.861  14.289
51220SOL    HW255558   2.886   9.885  14.273
51221SOL     OW55559   1.477   5.070   4.146
51221SOL    HW155560   1.402   5.018   4.118
51221SOL    HW255561   1.494   5.128   4.071
51222SOL     OW55562   8.053   3.959   3.024
51222SOL    HW155563   8.014   4.046   3.033
51222SOL    HW255564   8.103   3.946   3.106
51223SOL     OW55565  10.642   7.109   8.849
51223SOL    HW155566  10.710   7.175   8.857
51223SOL    HW255567  10.616   7.091   8.940
51224SOL     OW55568   9.046   9.350  14.211
51224SOL    HW155569   9.113   9.360  14.279
51224SOL    HW255570   8.984   9.421  14.229
51225SOL     OW55571   7.266   3.369   4.354
51225SOL    HW155572   7.196   3.305   4.343
51225SOL    HW255573   7.332   3.344   4.289
51226SOL     OW55574   3.432   4.136   7.831
51226SOL    HW155575   3.362   4.136   7.895
51226SOL    HW255576   3.479   4.219   7.846
51227SOL     OW55577  14.078   6.563   7.358
51227SOL    HW155578  14.115   6.642   7.398
51227SOL    HW255579  14.101   6.571   7.265
51228SOL     OW55580   9.009   2.989  10.946
51228SOL    HW155581   9.030   3.027  11.031
51228SOL    HW255582   9.013   3.063  10.885
51229SOL     OW55583   1.159   4.665   7.717
51229SOL    HW155584   1.177   4.657   7.810
51229SOL    HW255585   1.241   4.696   7.678
51230SOL     OW55586   5.495   1.483   0.581
51230SOL    HW155587   5.582   1.459   0.612
51230SOL    HW255588   5.460   1.403   0.543
51231SOL     OW55589   2.795   9.769  13.253
51231SOL    HW155590   2.883   9.769  13.216
51231SOL    HW255591   2.809   9.776  13.348
51232SOL     OW55592   5.983   0.260  12.746
51232SOL    HW155593   5.959   0.339  12.794
51232SOL    HW255594   6.038   0.291  12.674
51233SOL     OW55595  10.663   4.918   8.943
51233SOL    HW155596  10.582   4.898   8.896
51233SOL    HW255597  10.730   4.866   8.897
51234SOL     OW55598   3.403   7.122   7.746
51234SOL    HW155599   3.372   7.034   7.726
51234SOL    HW255600   3.476   7.109   7.806
51235SOL     OW55601   1.183   9.933   8.498
51235SOL    HW155602   1.231   9.858   8.463
51235SOL    HW255603   1.169   9.912   8.591
51236SOL     OW55604   5.810  14.447   7.355
51236SOL    HW155605   5.729  14.396   7.364
51236SOL    HW255606   5.870  14.407   7.418
51237SOL     OW55607   8.769  14.793   1.477
51237SOL    HW155608   8.773  14.707   1.433
51237SOL    HW255609   8.860  14.816   1.494
51238SOL     OW55610  12.557   8.108   9.023
51238SOL    HW155611  12.470   8.093   8.987
51238SOL    HW255612  12.572   8.034   9.082
51239SOL     OW55613   8.793   2.456   9.941
51239SOL    HW155614   8.860   2.417   9.997
51239SOL    HW255615   8.842   2.506   9.876
51240SOL     OW55616  13.875   2.272   6.925
51240SOL    HW155617  13.956   2.222   6.931
51240SOL    HW255618  13.807   2.213   6.956
51241SOL     OW55619  10.580   0.656   5.671
51241SOL    HW155620  10.526   0.623   5.743
51241SOL    HW255621  10.625   0.732   5.707
51242SOL     OW55622   9.573   0.795   4.121
51242SOL    HW155623   9.531   0.866   4.073
51242SOL    HW255624   9.652   0.835   4.159
51243SOL     OW55625   6.162   6.782   5.637
51243SOL    HW155626   6.229   6.717   5.619
51243SOL    HW255627   6.118   6.750   5.716
51244SOL     OW55628  13.966  10.095   9.284
51244SOL    HW155629  14.010  10.010   9.275
51244SOL    HW255630  14.036  10.159   9.276
51245SOL     OW55631   3.379   1.509   8.370
51245SOL    HW155632   3.401   1.575   8.435
51245SOL    HW255633   3.374   1.557   8.287
51246SOL     OW55634  13.867   0.277   2.547
51246SOL    HW155635  13.860   0.368   2.578
51246SOL    HW255636  13.778   0.242   2.555
51247SOL     OW55637  10.889  11.104   5.920
51247SOL    HW155638  10.881  11.094   6.015
51247SOL    HW255639  10.955  11.172   5.908
51248SOL     OW55640  10.058  14.148   5.407
51248SOL    HW155641  10.044  14.068   5.457
51248SOL    HW255642   9.999  14.212   5.447
51249SOL     OW55643  11.303   5.102  13.408
51249SOL    HW155644  11.316   5.060  13.323
51249SOL    HW255645  11.307   5.030  13.472
51250SOL     OW55646   8.744   0.515   4.923
51250SOL    HW155647   8.768   0.606   4.942
51250SOL    HW255648   8.756   0.469   5.006
51251SOL     OW55649   7.543  11.491   3.720
51251SOL    HW155650   7.497  11.523   3.797
51251SOL    HW255651   7.478  11.494   3.650
51252SOL     OW55652   1.045   6.830   3.486
51252SOL    HW155653   1.060   6.923   3.468
51252SOL    HW255654   0.979   6.803   3.422
51253SOL     OW55655   8.376   7.795   8.274
51253SOL    HW155656   8.438   7.766   8.341
51253SOL    HW255657   8.290   7.774   8.309
51254SOL     OW55658   4.140   7.974   6.276
51254SOL    HW155659   4.118   8.064   6.251
51254SOL    HW255660   4.141   7.975   6.371
51255SOL     OW55661  12.797  12.161   7.378
51255SOL    HW155662  12.704  12.138   7.376
51255SOL    HW255663  12.834  12.105   7.446
51256SOL     OW55664  10.826   4.509  12.187
51256SOL    HW155665  10.886   4.467  12.124
51256SOL    HW255666  10.868   4.497  12.272
51257SOL     OW55667   8.800  13.233   4.212
51257SOL    HW155668   8.854  13.272   4.143
51257SOL    HW255669   8.836  13.268   4.293
51258SOL     OW55670  12.352  11.427  10.655
51258SOL    HW155671  12.343  11.512  10.612
51258SOL    HW255672  12.263  11.407  10.685
51259SOL     OW55673   1.046  12.063  13.551
51259SOL    HW155674   0.992  12.141  13.547
51259SOL    HW255675   1.103  12.070  13.474
51260SOL     OW55676   9.580  13.565  13.098
51260SOL    HW155677   9.511  13.533  13.155
51260SOL    HW255678   9.589  13.657  13.121
51261SOL     OW55679   7.660  10.902   2.824
51261SOL    HW155680   7.567  10.894   2.805
51261SOL    HW255681   7.673  10.994   2.843
51262SOL     OW55682   3.052   7.126  11.239
51262SOL    HW155683   3.122   7.096  11.180
51262SOL    HW255684   3.016   7.045  11.275
51263SOL     OW55685   0.766   8.496  12.098
51263SOL    HW155686   0.782   8.583  12.135
51263SOL    HW255687   0.682   8.470  12.136
51264SOL     OW55688   4.023   4.297   0.144
51264SOL    HW155689   3.950   4.262   0.196
51264SOL    HW255690   3.980   4.353   0.079
51265SOL     OW55691   7.887   5.383   3.448
51265SOL    HW155692   7.912   5.458   3.394
51265SOL    HW255693   7.906   5.410   3.538
51266SOL     OW55694   3.538   2.247   7.216
51266SOL    HW155695   3.536   2.256   7.121
51266SOL    HW255696   3.480   2.173   7.234
51267SOL     OW55697   7.578   4.635   4.289
51267SOL    HW155698   7.658   4.652   4.339
51267SOL    HW255699   7.563   4.541   4.300
51268SOL     OW55700   2.524   0.455   0.397
51268SOL    HW155701   2.459   0.522   0.419
51268SOL    HW255702   2.589   0.502   0.344
51269SOL     OW55703   2.487   5.899   4.005
51269SOL    HW155704   2.543   5.838   3.957
51269SOL    HW255705   2.548   5.949   4.059
51270SOL     OW55706   6.158   4.564  12.827
51270SOL    HW155707   6.065   4.588  12.822
51270SOL    HW255708   6.158   4.470  12.845
51271SOL     OW55709  14.697  11.175  12.625
51271SOL    HW155710  14.783  11.165  12.668
51271SOL    HW255711  14.713  11.151  12.534
51272SOL     OW55712  12.851   0.586  13.103
51272SOL    HW155713  12.880   0.519  13.042
51272SOL    HW255714  12.760   0.564  13.122
51273SOL     OW55715   7.283   3.534   3.259
51273SOL    HW155716   7.330   3.457   3.227
51273SOL    HW255717   7.309   3.604   3.200
51274SOL     OW55718   0.855   6.758   3.096
51274SOL    HW155719   0.804   6.835   3.124
51274SOL    HW255720   0.793   6.708   3.043
51275SOL     OW55721   2.323   0.286   4.871
51275SOL    HW155722   2.249   0.227   4.856
51275SOL    HW255723   2.318   0.349   4.799
51276SOL     OW55724  11.480   3.325  12.340
51276SOL    HW155725  11.432   3.318  12.423
51276SOL    HW255726  11.477   3.237  12.303
51277SOL     OW55727   5.054  11.852  11.962
51277SOL    HW155728   4.978  11.795  11.974
51277SOL    HW255729   5.036  11.927  12.019
51278SOL     OW55730   6.478  11.148   7.154
51278SOL    HW155731   6.420  11.148   7.078
51278SOL    HW255732   6.418  11.153   7.229
51279SOL     OW55733  10.715  12.932   4.701
51279SOL    HW155734  10.762  12.946   4.619
51279SOL    HW255735  10.705  12.837   4.706
51280SOL     OW55736   1.012   1.109   9.453
51280SOL    HW155737   0.923   1.075   9.459
51280SOL    HW255738   1.049   1.068   9.375
51281SOL     OW55739  10.997  11.412  12.487
51281SOL    HW155740  10.950  11.489  12.519
51281SOL    HW255741  10.984  11.346  12.555
51282SOL     OW55742   0.997  13.787   4.503
51282SOL    HW155743   1.057  13.767   4.431
51282SOL    HW255744   0.928  13.721   4.497
51283SOL     OW55745  13.236   1.066   7.302
51283SOL    HW155746  13.235   1.157   7.272
51283SOL    HW255747  13.309   1.026   7.255
51284SOL     OW55748   4.057   9.258   5.229
51284SOL    HW155749   4.033   9.335   5.178
51284SOL    HW255750   4.041   9.185   5.170
51285SOL     OW55751   8.069  13.123   9.284
51285SOL    HW155752   8.124  13.180   9.337
51285SOL    HW255753   8.086  13.035   9.319
51286SOL     OW55754   3.369  13.357   2.554
51286SOL    HW155755   3.378  13.346   2.460
51286SOL    HW255756   3.302  13.293   2.579
51287SOL     OW55757  13.479  11.775   9.246
51287SOL    HW155758  13.524  11.835   9.186
51287SOL    HW255759  13.549  11.738   9.300
51288SOL     OW55760   6.513   9.043   0.595
51288SOL    HW155761   6.588   9.103   0.599
51288SOL    HW255762   6.506   9.020   0.502
51289SOL     OW55763  12.906   5.835   7.522
51289SOL    HW155764  12.975   5.899   7.536
51289SOL    HW255765  12.908   5.815   7.429
51290SOL     OW55766   3.981   3.749  11.908
51290SOL    HW155767   3.971   3.751  11.812
51290SOL    HW255768   4.052   3.810  11.926
51291SOL     OW55769  14.178  11.184   5.232
51291SOL    HW155770  14.126  11.149   5.160
51291SOL    HW255771  14.203  11.107   5.283
51292SOL     OW55772   9.426  10.471  11.027
51292SOL    HW155773   9.517  10.444  11.031
51292SOL    HW255774   9.408  10.507  11.114
51293SOL     OW55775   7.303   6.830   5.335
51293SOL    HW155776   7.373   6.768   5.315
51293SOL    HW255777   7.290   6.822   5.429
51294SOL     OW55778   5.477   1.347  12.293
51294SOL    HW155779   5.523   1.429  12.274
51294SOL    HW255780   5.429   1.364  12.374
51295SOL     OW55781   0.272   0.488  14.055
51295SOL    HW155782   0.287   0.447  14.141
51295SOL    HW255783   0.177   0.497  14.050
51296SOL     OW55784   4.367  13.167   0.466
51296SOL    HW155785   4.365  13.221   0.388
51296SOL    HW255786   4.460  13.154   0.485
51297SOL     OW55787   2.805   7.012   5.559
51297SOL    HW155788   2.870   7.074   5.591
51297SOL    HW255789   2.810   6.938   5.619
51298SOL     OW55790   7.615   9.768   8.930
51298SOL    HW155791   7.551   9.827   8.969
51298SOL    HW255792   7.682   9.825   8.893
51299SOL     OW55793   5.846   5.726  11.941
51299SOL    HW155794   5.929   5.773  11.942
51299SOL    HW255795   5.854   5.663  11.870
51300SOL     OW55796   4.685   9.518   5.959
51300SOL    HW155797   4.764   9.516   5.905
51300SOL    HW255798   4.628   9.583   5.917
51301SOL     OW55799  14.669   7.051  12.513
51301SOL    HW155800  14.695   7.003  12.435
51301SOL    HW255801  14.705   7.000  12.586
51302SOL     OW55802  12.601   9.002   1.931
51302SOL    HW155803  12.531   8.956   1.885
51302SOL    HW255804  12.576   8.997   2.023
51303SOL     OW55805   2.279  13.041   5.343
51303SOL    HW155806   2.283  12.955   5.301
51303SOL    HW255807   2.234  13.097   5.280
51304SOL     OW55808   3.466  10.346   2.048
51304SOL    HW155809   3.436  10.259   2.024
51304SOL    HW255810   3.558  10.348   2.021
51305SOL     OW55811   4.119   7.906   1.189
51305SOL    HW155812   4.175   7.891   1.113
51305SOL    HW255813   4.125   8.000   1.204
51306SOL     OW55814  13.678   8.182  12.035
51306SOL    HW155815  13.671   8.119  11.963
51306SOL    HW255816  13.587   8.207  12.053
51307SOL     OW55817   8.825  14.212  12.735
51307SOL    HW155818   8.790  14.300  12.724
51307SOL    HW255819   8.834  14.178  12.646
51308SOL     OW55820   9.260   1.790   3.746
51308SOL    HW155821   9.314   1.868   3.735
51308SOL    HW255822   9.180   1.809   3.696
51309SOL     OW55823   9.692   7.400   0.751
51309SOL    HW155824   9.667   7.338   0.820
51309SOL    HW255825   9.634   7.379   0.678
51310SOL     OW55826   9.045   9.320  11.933
51310SOL    HW155827   9.131   9.292  11.963
51310SOL    HW255828   9.062   9.397  11.879
51311SOL     OW55829   5.684   3.369   6.006
51311SOL    HW155830   5.765   3.325   5.978
51311SOL    HW255831   5.703   3.400   6.094
51312SOL     OW55832  14.284  10.608   9.275
51312SOL    HW155833  14.246  10.583   9.359
51312SOL    HW255834  14.210  10.608   9.214
51313SOL     OW55835   2.211   5.100   6.535
51313SOL    HW155836   2.139   5.145   6.493
51313SOL    HW255837   2.206   5.126   6.627
51314SOL     OW55838   1.444   4.240   5.020
51314SOL    HW155839   1.370   4.285   5.059
51314SOL    HW255840   1.409   4.199   4.941
51315SOL     OW55841   7.550   0.830  11.853
51315SOL    HW155842   7.571   0.738  11.835
51315SOL    HW255843   7.527   0.867  11.767
51316SOL     OW55844   3.311  10.114   0.448
51316SOL    HW155845   3.236  10.146   0.397
51316SOL    HW255846   3.332  10.186   0.508
51317SOL     OW55847   6.562  14.355  14.475
51317SOL    HW155848   6.634  14.311  14.520
51317SOL    HW255849   6.599  14.439  14.447
51318SOL     OW55850  11.563   0.247   4.765
51318SOL    HW155851  11.478   0.278   4.794
51318SOL    HW255852  11.626   0.282   4.828
51319SOL     OW55853   5.930   8.902   3.672
51319SOL    HW155854   5.909   8.830   3.731
51319SOL    HW255855   5.886   8.880   3.590
51320SOL     OW55856   7.855  11.685   9.003
51320SOL    HW155857   7.836  11.684   8.910
51320SOL    HW255858   7.835  11.775   9.031
51321SOL     OW55859   3.106   3.962   7.787
51321SOL    HW155860   3.169   3.984   7.718
51321SOL    HW255861   3.116   4.031   7.852
51322SOL     OW55862   6.285   6.405   9.594
51322SOL    HW155863   6.213   6.401   9.658
51322SOL    HW255864   6.263   6.338   9.529
51323SOL     OW55865  13.057  13.564  13.921
51323SOL    HW155866  13.075  13.558  14.015
51323SOL    HW255867  13.014  13.481  13.900
51324SOL     OW55868  14.345   6.692  13.335
51324SOL    HW155869  14.396   6.621  13.374
51324SOL    HW255870  14.254   6.671  13.357
51325SOL     OW55871  12.014   7.635   3.119
51325SOL    HW155872  12.026   7.607   3.210
51325SOL    HW255873  11.945   7.701   3.123
51326SOL     OW55874  11.815   6.903   2.159
51326SOL    HW155875  11.833   6.934   2.070
51326SOL    HW255876  11.737   6.849   2.150
51327SOL     OW55877  10.665   7.318   3.594
51327SOL    HW155878  10.644   7.403   3.631
51327SOL    HW255879  10.703   7.268   3.666
51328SOL     OW55880   9.528   7.266   1.487
51328SOL    HW155881   9.500   7.218   1.565
51328SOL    HW255882   9.567   7.199   1.430
51329SOL     OW55883   1.045  13.114  10.261
51329SOL    HW155884   1.136  13.095  10.237
51329SOL    HW255885   1.004  13.141  10.179
51330SOL     OW55886   1.419   8.031  14.497
51330SOL    HW155887   1.467   7.963  14.450
51330SOL    HW255888   1.329   8.021  14.467
51331SOL     OW55889   5.502   4.425  13.445
51331SOL    HW155890   5.575   4.439  13.385
51331SOL    HW255891   5.543   4.416  13.531
51332SOL     OW55892   0.796   5.172   7.609
51332SOL    HW155893   0.881   5.128   7.607
51332SOL    HW255894   0.766   5.164   7.700
51333SOL     OW55895   7.886   2.651   3.622
51333SOL    HW155896   7.981   2.644   3.619
51333SOL    HW255897   7.864   2.633   3.714
51334SOL     OW55898   1.533   2.559  13.331
51334SOL    HW155899   1.611   2.582  13.381
51334SOL    HW255900   1.470   2.629  13.350
51335SOL     OW55901   8.560  11.387   4.698
51335SOL    HW155902   8.576  11.424   4.611
51335SOL    HW255903   8.472  11.349   4.692
51336SOL     OW55904   9.295   8.675  10.391
51336SOL    HW155905   9.275   8.582  10.381
51336SOL    HW255906   9.279   8.694  10.483
51337SOL     OW55907   2.006  14.131  13.851
51337SOL    HW155908   2.026  14.046  13.813
51337SOL    HW255909   1.926  14.116  13.903
51338SOL     OW55910  13.522  12.132   1.446
51338SOL    HW155911  13.568  12.193   1.504
51338SOL    HW255912  13.429  12.150   1.460
51339SOL     OW55913   1.166  12.252   1.838
51339SOL    HW155914   1.213  12.311   1.779
51339SOL    HW255915   1.073  12.269   1.820
51340SOL     OW55916   6.095   7.391   0.664
51340SOL    HW155917   6.086   7.321   0.599
51340SOL    HW255918   6.024   7.374   0.726
51341SOL     OW55919   9.068   7.146   6.919
51341SOL    HW155920   9.010   7.177   6.988
51341SOL    HW255921   9.023   7.070   6.882
51342SOL     OW55922   8.221  14.338   6.952
51342SOL    HW155923   8.159  14.276   6.914
51342SOL    HW255924   8.269  14.286   7.017
51343SOL     OW55925   1.632  10.144   3.415
51343SOL    HW155926   1.538  10.138   3.398
51343SOL    HW255927   1.645  10.234   3.445
51344SOL     OW55928   9.524  12.859   1.743
51344SOL    HW155929   9.574  12.789   1.702
51344SOL    HW255930   9.527  12.931   1.679
51345SOL     OW55931   7.336   4.151   3.757
51345SOL    HW155932   7.389   4.224   3.790
51345SOL    HW255933   7.384   4.119   3.681
51346SOL     OW55934   0.152   2.548   1.031
51346SOL    HW155935   0.152   2.626   1.087
51346SOL    HW255936   0.062   2.540   1.000
51347SOL     OW55937   9.270   5.054  11.641
51347SOL    HW155938   9.272   4.995  11.566
51347SOL    HW255939   9.345   5.028  11.694
51348SOL     OW55940   6.983  14.052   1.935
51348SOL    HW155941   7.019  13.974   1.978
51348SOL    HW255942   6.939  14.100   2.005
51349SOL     OW55943   3.608   7.654   1.109
51349SOL    HW155944   3.690   7.702   1.120
51349SOL    HW255945   3.555   7.681   1.184
51350SOL     OW55946  10.687  12.112  12.132
51350SOL    HW155947  10.635  12.053  12.186
51350SOL    HW255948  10.630  12.132  12.057
51351SOL     OW55949  13.817   7.712   9.063
51351SOL    HW155950  13.745   7.755   9.018
51351SOL    HW255951  13.804   7.733   9.155
51352SOL     OW55952  11.181   7.715  13.212
51352SOL    HW155953  11.181   7.621  13.229
51352SOL    HW255954  11.203   7.754  13.296
51353SOL     OW55955   5.054   5.670  10.525
51353SOL    HW155956   5.111   5.744  10.544
51353SOL    HW255957   5.074   5.646  10.435
51354SOL     OW55958   6.963   4.995  13.218
51354SOL    HW155959   7.054   5.023  13.225
51354SOL    HW255960   6.931   5.038  13.139
51355SOL     OW55961  13.178   3.436   2.350
51355SOL    HW155962  13.209   3.352   2.385
51355SOL    HW255963  13.091   3.447   2.388
51356SOL     OW55964  10.071  11.452   2.258
51356SOL    HW155965  10.075  11.365   2.298
51356SOL    HW255966  10.149  11.497   2.292
51357SOL     OW55967   9.145   8.040  12.380
51357SOL    HW155968   9.190   8.012  12.459
51357SOL    HW255969   9.057   8.003  12.387
51358SOL     OW55970  10.616   5.217  10.291
51358SOL    HW155971  10.677   5.283  10.258
51358SOL    HW255972  10.533   5.238  10.249
51359SOL     OW55973   4.673   6.252   9.711
51359SOL    HW155974   4.639   6.168   9.743
51359SOL    HW255975   4.628   6.265   9.627
51360SOL     OW55976   5.079   0.776   3.024
51360SOL    HW155977   5.156   0.768   2.967
51360SOL    HW255978   5.005   0.773   2.964
51361SOL     OW55979   1.145   0.186  13.704
51361SOL    HW155980   1.077   0.249  13.682
51361SOL    HW255981   1.223   0.218  13.659
51362SOL     OW55982   4.416   3.305  12.965
51362SOL    HW155983   4.363   3.326  12.888
51362SOL    HW255984   4.353   3.304  13.038
51363SOL     OW55985   8.369   2.966   0.355
51363SOL    HW155986   8.464   2.968   0.368
51363SOL    HW255987   8.349   2.874   0.336
51364SOL     OW55988   5.693   1.588   4.716
51364SOL    HW155989   5.654   1.501   4.724
51364SOL    HW255990   5.630   1.647   4.755
51365SOL     OW55991   9.323  13.567  10.435
51365SOL    HW155992   9.251  13.596  10.378
51365SOL    HW255993   9.321  13.629  10.508
51366SOL     OW55994  11.363   3.290  12.850
51366SOL    HW155995  11.297   3.314  12.915
51366SOL    HW255996  11.392   3.202  12.876
51367SOL     OW55997  13.353   0.696   0.746
51367SOL    HW155998  13.309   0.611   0.741
51367SOL    HW255999  13.363   0.712   0.840
51368SOL     OW56000   9.902  11.416   2.662
51368SOL    HW156001   9.872  11.371   2.583
51368SOL    HW256002   9.928  11.503   2.631
51369SOL     OW56003  13.095  12.359  13.544
51369SOL    HW156004  13.152  12.331  13.472
51369SOL    HW256005  13.081  12.452  13.529
51370SOL     OW56006   3.738  12.967   0.356
51370SOL    HW156007   3.736  13.008   0.269
51370SOL    HW256008   3.821  12.997   0.394
51371SOL     OW56009   4.764   1.022   0.564
51371SOL    HW156010   4.840   1.047   0.617
51371SOL    HW256011   4.779   1.063   0.479
51372SOL     OW56012  12.967   6.367  11.619
51372SOL    HW156013  13.023   6.291  11.632
51372SOL    HW256014  13.023   6.442  11.637
51373SOL     OW56015   6.323   0.059   6.349
51373SOL    HW156016   6.230   0.077   6.335
51373SOL    HW256017   6.348   0.008   6.272
51374SOL     OW56018  11.850   2.481  13.547
51374SOL    HW156019  11.847   2.425  13.469
51374SOL    HW256020  11.917   2.442  13.602
51375SOL     OW56021   8.923   1.547  12.161
51375SOL    HW156022   8.941   1.640  12.156
51375SOL    HW256023   8.845   1.535  12.108
51376SOL     OW56024  11.233   9.458   3.589
51376SOL    HW156025  11.309   9.453   3.531
51376SOL    HW256026  11.269   9.484   3.674
51377SOL     OW56027  12.442   7.132   1.615
51377SOL    HW156028  12.377   7.085   1.666
51377SOL    HW256029  12.505   7.163   1.680
51378SOL     OW56030   5.067   4.871   5.425
51378SOL    HW156031   5.146   4.884   5.373
51378SOL    HW256032   5.044   4.958   5.456
51379SOL     OW56033   3.009   0.370  11.357
51379SOL    HW156034   3.028   0.371  11.451
51379SOL    HW256035   2.919   0.403  11.351
51380SOL     OW56036   8.635  11.757   9.078
51380SOL    HW156037   8.651  11.723   8.990
51380SOL    HW256038   8.545  11.733   9.097
51381SOL     OW56039   8.976   5.190   0.300
51381SOL    HW156040   9.001   5.203   0.391
51381SOL    HW256041   9.055   5.158   0.257
51382SOL     OW56042   9.824  14.674  14.582
51382SOL    HW156043   9.768  14.693  14.507
51382SOL    HW256044   9.905  14.721  14.564
51383SOL     OW56045  10.271   3.125   7.192
51383SOL    HW156046  10.225   3.069   7.254
51383SOL    HW256047  10.246   3.214   7.217
51384SOL     OW56048  11.811   2.736  13.441
51384SOL    HW156049  11.803   2.777  13.527
51384SOL    HW256050  11.792   2.644  13.456
51385SOL     OW56051  14.436   0.533   4.576
51385SOL    HW156052  14.344   0.560   4.578
51385SOL    HW256053  14.469   0.550   4.664
51386SOL     OW56054   2.367  14.474   7.358
51386SOL    HW156055   2.434  14.445   7.296
51386SOL    HW256056   2.357  14.568   7.339
51387SOL     OW56057   6.474  13.003   2.685
51387SOL    HW156058   6.509  12.966   2.766
51387SOL    HW256059   6.387  13.034   2.708
51388SOL     OW56060   9.905  10.731  13.296
51388SOL    HW156061   9.917  10.814  13.342
51388SOL    HW256062   9.889  10.756  13.205
51389SOL     OW56063  13.841   1.039   7.670
51389SOL    HW156064  13.749   1.014   7.685
51389SOL    HW256065  13.862   1.001   7.585
51390SOL     OW56066   0.193   6.818   9.001
51390SOL    HW156067   0.142   6.743   8.973
51390SOL    HW256068   0.275   6.812   8.951
51391SOL     OW56069   2.039   4.404   4.621
51391SOL    HW156070   2.041   4.361   4.536
51391SOL    HW256071   2.020   4.496   4.602
51392SOL     OW56072   8.734   0.047  14.494
51392SOL    HW156073   8.722   0.085  14.581
51392SOL    HW256074   8.695   0.111  14.434
51393SOL     OW56075   2.808   2.204  14.502
51393SOL    HW156076   2.820   2.298  14.508
51393SOL    HW256077   2.754   2.181  14.578
51394SOL     OW56078   8.221  13.861  12.248
51394SOL    HW156079   8.222  13.845  12.342
51394SOL    HW256080   8.141  13.819  12.217
51395SOL     OW56081   0.787   7.405   1.308
51395SOL    HW156082   0.828   7.485   1.274
51395SOL    HW256083   0.703   7.434   1.343
51396SOL     OW56084   7.248  11.435  10.674
51396SOL    HW156085   7.331  11.387  10.667
51396SOL    HW256086   7.201  11.414  10.594
51397SOL     OW56087   2.103   1.549  14.374
51397SOL    HW156088   2.089   1.467  14.326
51397SOL    HW256089   2.029   1.605  14.348
51398SOL     OW56090   9.402  14.628   3.979
51398SOL    HW156091   9.478  14.598   3.928
51398SOL    HW256092   9.333  14.566   3.957
51399SOL     OW56093   3.077   1.557  12.768
51399SOL    HW156094   2.997   1.551  12.717
51399SOL    HW256095   3.047   1.564  12.859
51400SOL     OW56096   3.183   9.378   4.360
51400SOL    HW156097   3.221   9.291   4.349
51400SOL    HW256098   3.189   9.395   4.454
51401SOL     OW56099   4.735   5.761   4.599
51401SOL    HW156100   4.802   5.716   4.650
51401SOL    HW256101   4.693   5.821   4.661
51402SOL     OW56102  10.038   7.600   9.340
51402SOL    HW156103  10.042   7.555   9.424
51402SOL    HW256104   9.948   7.591   9.311
51403SOL     OW56105   2.353  11.400  12.158
51403SOL    HW156106   2.290  11.435  12.221
51403SOL    HW256107   2.314  11.417  12.073
51404SOL     OW56108   0.332   0.318  10.066
51404SOL    HW156109   0.293   0.356   9.987
51404SOL    HW256110   0.334   0.390  10.129
51405SOL     OW56111  13.557  10.368   9.698
51405SOL    HW156112  13.639  10.414   9.717
51405SOL    HW256113  13.580  10.275   9.702
51406SOL     OW56114  13.879  11.432   6.003
51406SOL    HW156115  13.792  11.472   6.010
51406SOL    HW256116  13.898  11.432   5.910
51407SOL     OW56117   5.982  14.344   7.564
51407SOL    HW156118   5.912  14.352   7.629
51407SOL    HW256119   6.002  14.251   7.561
51408SOL     OW56120   8.627  12.171  14.546
51408SOL    HW156121   8.550  12.202  14.498
51408SOL    HW256122   8.615  12.207  14.634
51409SOL     OW56123  10.184   8.051   8.917
51409SOL    HW156124  10.256   8.109   8.890
51409SOL    HW256125  10.227   7.979   8.962
51410SOL     OW56126   1.997   5.774   6.873
51410SOL    HW156127   2.027   5.807   6.788
51410SOL    HW256128   2.068   5.719   6.905
51411SOL     OW56129  14.592   2.016   0.775
51411SOL    HW156130  14.513   2.039   0.824
51411SOL    HW256131  14.595   2.080   0.704
51412SOL     OW56132   1.353  14.816  13.124
51412SOL    HW156133   1.327  14.817  13.216
51412SOL    HW256134   1.273  14.792  13.077
51413SOL     OW56135  12.574   0.934  12.824
51413SOL    HW156136  12.660   0.951  12.862
51413SOL    HW256137  12.514   0.943  12.898
51414SOL     OW56138   5.773  10.825   9.619
51414SOL    HW156139   5.743  10.849   9.531
51414SOL    HW256140   5.862  10.859   9.624
51415SOL     OW56141   4.614  14.876   1.686
51415SOL    HW156142   4.582   0.086   1.697
51415SOL    HW256143   4.545  14.832   1.637
51416SOL     OW56144   7.182   3.050  12.526
51416SOL    HW156145   7.239   3.060  12.450
51416SOL    HW256146   7.200   3.128  12.580
51417SOL     OW56147   7.178   8.215   2.413
51417SOL    HW156148   7.226   8.292   2.382
51417SOL    HW256149   7.100   8.252   2.455
51418SOL     OW56150  13.458   8.305   5.629
51418SOL    HW156151  13.504   8.351   5.559
51418SOL    HW256152  13.516   8.231   5.650
51419SOL     OW56153   9.026   1.761   6.353
51419SOL    HW156154   9.116   1.764   6.321
51419SOL    HW256155   9.032   1.715   6.437
51420SOL     OW56156   2.011  12.942  10.336
51420SOL    HW156157   2.059  13.021  10.361
51420SOL    HW256158   2.079  12.877  10.320
51421SOL     OW56159   2.818   2.599  11.528
51421SOL    HW156160   2.773   2.616  11.445
51421SOL    HW256161   2.890   2.540  11.505
51422SOL     OW56162   3.140   0.463  12.300
51422SOL    HW156163   3.217   0.426  12.257
51422SOL    HW256164   3.145   0.432  12.390
51423SOL     OW56165   0.870   4.228   6.285
51423SOL    HW156166   0.918   4.300   6.243
51423SOL    HW256167   0.780   4.261   6.294
51424SOL     OW56168   0.211  11.101   0.167
51424SOL    HW156169   0.130  11.144   0.137
51424SOL    HW256170   0.184  11.013   0.190
51425SOL     OW56171   4.315  13.361   8.614
51425SOL    HW156172   4.338  13.444   8.656
51425SOL    HW256173   4.332  13.295   8.681
51426SOL     OW56174   8.234  14.620   7.194
51426SOL    HW156175   8.155  14.571   7.171
51426SOL    HW256176   8.210  14.669   7.272
51427SOL     OW56177   7.654   1.292   3.810
51427SOL    HW156178   7.697   1.244   3.739
51427SOL    HW256179   7.689   1.254   3.890
51428SOL     OW56180   2.349   5.225   8.268
51428SOL    HW156181   2.425   5.261   8.313
51428SOL    HW256182   2.345   5.134   8.297
51429SOL     OW56183   4.328   9.459   4.982
51429SOL    HW156184   4.408   9.502   4.953
51429SOL    HW256185   4.264   9.531   4.991
51430SOL     OW56186  10.813  13.828   8.013
51430SOL    HW156187  10.793  13.736   7.994
51430SOL    HW256188  10.732  13.864   8.049
51431SOL     OW56189   7.886  10.107   5.189
51431SOL    HW156190   7.976  10.088   5.164
51431SOL    HW256191   7.843  10.021   5.188
51432SOL     OW56192   2.150  14.028   6.336
51432SOL    HW156193   2.081  13.988   6.388
51432SOL    HW256194   2.163  14.115   6.375
51433SOL     OW56195   4.343   7.786  10.554
51433SOL    HW156196   4.381   7.776  10.642
51433SOL    HW256197   4.397   7.731  10.498
51434SOL     OW56198  10.476   2.128   9.776
51434SOL    HW156199  10.448   2.096   9.862
51434SOL    HW256200  10.483   2.049   9.722
51435SOL     OW56201   3.973   0.129   5.860
51435SOL    HW156202   3.987   0.184   5.936
51435SOL    HW256203   3.879   0.110   5.861
51436SOL     OW56204  12.768   6.159   4.616
51436SOL    HW156205  12.820   6.125   4.543
51436SOL    HW256206  12.711   6.225   4.576
51437SOL     OW56207  11.887   7.280   3.177
51437SOL    HW156208  11.864   7.359   3.128
51437SOL    HW256209  11.952   7.236   3.123
51438SOL     OW56210  13.397   3.984   7.165
51438SOL    HW156211  13.357   3.999   7.079
51438SOL    HW256212  13.486   3.954   7.145
51439SOL     OW56213   1.180  10.776   9.885
51439SOL    HW156214   1.197  10.746   9.796
51439SOL    HW256215   1.110  10.719   9.917
51440SOL     OW56216   8.035  11.551  12.293
51440SOL    HW156217   8.125  11.583  12.299
51440SOL    HW256218   8.042  11.457  12.311
51441SOL     OW56219   7.861   5.634  14.603
51441SOL    HW156220   7.894   5.724  14.600
51441SOL    HW256221   7.856   5.613  14.696
51442SOL     OW56222  10.563  11.744   8.171
51442SOL    HW156223  10.470  11.723   8.181
51442SOL    HW256224  10.609  11.666   8.202
51443SOL     OW56225   6.360  12.742  13.146
51443SOL    HW156226   6.357  12.677  13.216
51443SOL    HW256227   6.286  12.720  13.089
51444SOL     OW56228  12.239  10.123  10.547
51444SOL    HW156229  12.262  10.032  10.564
51444SOL    HW256230  12.255  10.135  10.454
51445SOL     OW56231  14.619  13.291   2.607
51445SOL    HW156232  14.599  13.213   2.555
51445SOL    HW256233  14.688  13.263   2.666
51446SOL     OW56234  10.222  11.602  13.891
51446SOL    HW156235  10.131  11.617  13.865
51446SOL    HW256236  10.216  11.556  13.974
51447SOL     OW56237   7.136  14.281   6.738
51447SOL    HW156238   7.229  14.303   6.736
51447SOL    HW256239   7.114  14.278   6.831
51448SOL     OW56240   5.189  11.392   7.170
51448SOL    HW156241   5.171  11.430   7.084
51448SOL    HW256242   5.188  11.467   7.230
51449SOL     OW56243   9.278   4.318   1.004
51449SOL    HW156244   9.373   4.320   0.997
51449SOL    HW256245   9.260   4.317   1.098
51450SOL     OW56246   2.519   0.371   2.292
51450SOL    HW156247   2.495   0.320   2.369
51450SOL    HW256248   2.545   0.306   2.227
51451SOL     OW56249   0.460   0.230   6.428
51451SOL    HW156250   0.370   0.210   6.451
51451SOL    HW256251   0.493   0.282   6.501
51452SOL     OW56252  14.358   5.511  13.959
51452SOL    HW156253  14.414   5.456  14.014
51452SOL    HW256254  14.299   5.449  13.916
51453SOL     OW56255  14.722   6.645   9.194
51453SOL    HW156256  14.726   6.560   9.238
51453SOL    HW256257  14.746   6.626   9.103
51454SOL     OW56258   9.020   9.129  10.226
51454SOL    HW156259   9.069   9.111  10.307
51454SOL    HW256260   9.086   9.125  10.157
51455SOL     OW56261  10.710  11.632   0.574
51455SOL    HW156262  10.753  11.676   0.648
51455SOL    HW256263  10.773  11.566   0.545
51456SOL     OW56264   8.345  14.132  11.171
51456SOL    HW156265   8.321  14.225  11.162
51456SOL    HW256266   8.309  14.091  11.092
51457SOL     OW56267  12.912   9.820   0.878
51457SOL    HW156268  12.819   9.835   0.895
51457SOL    HW256269  12.913   9.770   0.797
51458SOL     OW56270  10.872  10.373   0.955
51458SOL    HW156271  10.869  10.423   0.873
51458SOL    HW256272  10.799  10.407   1.006
51459SOL     OW56273   4.439   2.265  14.833
51459SOL    HW156274   4.491   2.217   0.017
51459SOL    HW256275   4.463   2.226  14.749
51460SOL     OW56276   0.026   8.409   4.980
51460SOL    HW156277   0.106   8.392   4.930
51460SOL    HW256278  14.836   8.376   4.925
51461SOL     OW56279  10.579   0.855   0.868
51461SOL    HW156280  10.620   0.773   0.896
51461SOL    HW256281  10.491   0.829   0.839
51462SOL     OW56282   7.099   5.994   0.175
51462SOL    HW156283   7.115   6.065   0.237
51462SOL    HW256284   7.183   5.951   0.166
51463SOL     OW56285   3.323  13.850   1.827
51463SOL    HW156286   3.365  13.925   1.785
51463SOL    HW256287   3.307  13.788   1.755
51464SOL     OW56288   1.887   0.877   8.388
51464SOL    HW156289   1.912   0.795   8.431
51464SOL    HW256290   1.804   0.857   8.345
51465SOL     OW56291   6.064   1.526   4.722
51465SOL    HW156292   6.146   1.527   4.772
51465SOL    HW256293   6.031   1.437   4.734
51466SOL     OW56294   0.223   0.125   0.532
51466SOL    HW156295   0.203   0.075   0.453
51466SOL    HW256296   0.155   0.192   0.537
51467SOL     OW56297   5.132   5.382   9.200
51467SOL    HW156298   5.138   5.478   9.203
51467SOL    HW256299   5.103   5.363   9.111
51468SOL     OW56300   1.883   2.803   1.814
51468SOL    HW156301   1.931   2.833   1.736
51468SOL    HW256302   1.941   2.822   1.887
51469SOL     OW56303   3.860  14.485  13.217
51469SOL    HW156304   3.790  14.550  13.222
51469SOL    HW256305   3.823  14.414  13.165
51470SOL     OW56306   4.931   5.621   4.734
51470SOL    HW156307   4.916   5.528   4.718
51470SOL    HW256308   4.980   5.623   4.816
51471SOL     OW56309   5.293  14.752   1.626
51471SOL    HW156310   5.266  14.664   1.652
51471SOL    HW256311   5.380  14.741   1.589
51472SOL     OW56312   2.662  12.067   7.513
51472SOL    HW156313   2.694  12.083   7.602
51472SOL    HW256314   2.691  11.978   7.493
51473SOL     OW56315   8.795   5.863  12.638
51473SOL    HW156316   8.704   5.843  12.616
51473SOL    HW256317   8.841   5.862  12.554
51474SOL     OW56318   4.083   2.545  12.719
51474SOL    HW156319   4.166   2.558  12.765
51474SOL    HW256320   4.108   2.503  12.636
51475SOL     OW56321   9.575   2.387  13.904
51475SOL    HW156322   9.554   2.341  13.823
51475SOL    HW256323   9.584   2.317  13.969
51476SOL     OW56324   4.193  13.880  14.595
51476SOL    HW156325   4.150  13.806  14.554
51476SOL    HW256326   4.161  13.957  14.547
51477SOL     OW56327   6.277  10.549  10.939
51477SOL    HW156328   6.243  10.619  10.995
51477SOL    HW256329   6.213  10.540  10.869
51478SOL     OW56330   5.908   3.153  12.320
51478SOL    HW156331   5.814   3.136  12.318
51478SOL    HW256332   5.944   3.082  12.374
51479SOL     OW56333   0.885  10.008  11.192
51479SOL    HW156334   0.867  10.036  11.281
51479SOL    HW256335   0.979  10.024  11.180
51480SOL     OW56336   3.520   0.482  12.312
51480SOL    HW156337   3.486   0.451  12.228
51480SOL    HW256338   3.456   0.452  12.376
51481SOL     OW56339   3.212  14.742  10.769
51481SOL    HW156340   3.248  14.715  10.854
51481SOL    HW256341   3.131  14.692  10.760
51482SOL     OW56342   9.579  12.714   8.030
51482SOL    HW156343   9.568  12.649   7.961
51482SOL    HW256344   9.490  12.733   8.060
51483SOL     OW56345   2.719  10.866   9.075
51483SOL    HW156346   2.708  10.890   8.983
51483SOL    HW256347   2.785  10.927   9.108
51484SOL     OW56348  10.520   5.723  10.389
51484SOL    HW156349  10.576   5.646  10.398
51484SOL    HW256350  10.580   5.798  10.399
51485SOL     OW56351   7.412  10.194   9.711
51485SOL    HW156352   7.324  10.208   9.677
51485SOL    HW256353   7.406  10.112   9.761
51486SOL     OW56354   2.008   1.017   0.243
51486SOL    HW156355   1.995   1.090   0.183
51486SOL    HW256356   2.100   0.992   0.232
51487SOL     OW56357   9.111   1.133   7.091
51487SOL    HW156358   9.086   1.157   7.002
51487SOL    HW256359   9.078   1.205   7.145
51488SOL     OW56360   7.181   3.860   3.582
51488SOL    HW156361   7.119   3.833   3.650
51488SOL    HW256362   7.137   3.836   3.500
51489SOL     OW56363  14.832   9.508   6.861
51489SOL    HW156364  14.789   9.475   6.782
51489SOL    HW256365  14.867   9.429   6.903
51490SOL     OW56366  11.351   1.818   2.177
51490SOL    HW156367  11.391   1.845   2.261
51490SOL    HW256368  11.284   1.884   2.161
51491SOL     OW56369   8.259  11.155  12.826
51491SOL    HW156370   8.190  11.183  12.766
51491SOL    HW256371   8.301  11.237  12.854
51492SOL     OW56372  14.540   1.168   4.772
51492SOL    HW156373  14.597   1.239   4.743
51492SOL    HW256374  14.528   1.184   4.866
51493SOL     OW56375   7.789   3.021   8.606
51493SOL    HW156376   7.796   2.966   8.528
51493SOL    HW256377   7.738   2.967   8.668
51494SOL     OW56378   7.352  14.488   4.813
51494SOL    HW156379   7.413  14.502   4.884
51494SOL    HW256380   7.312  14.403   4.831
51495SOL     OW56381   6.045  14.365   3.964
51495SOL    HW156382   6.028  14.271   3.972
51495SOL    HW256383   6.141  14.372   3.960
51496SOL     OW56384  10.067   2.951   1.956
51496SOL    HW156385  10.085   2.945   1.862
51496SOL    HW256386  10.100   3.038   1.981
51497SOL     OW56387   1.485  11.847  14.323
51497SOL    HW156388   1.554  11.893  14.370
51497SOL    HW256389   1.405  11.866  14.372
51498SOL     OW56390  13.790  11.016  13.958
51498SOL    HW156391  13.867  10.999  13.904
51498SOL    HW256392  13.732  10.942  13.941
51499SOL     OW56393   5.700   8.382  14.132
51499SOL    HW156394   5.757   8.363  14.208
51499SOL    HW256395   5.677   8.295  14.098
51500SOL     OW56396   0.947   4.565   6.964
51500SOL    HW156397   0.964   4.553   7.057
51500SOL    HW256398   0.863   4.611   6.961
51501SOL     OW56399   7.777   2.318  10.801
51501SOL    HW156400   7.858   2.268  10.810
51501SOL    HW256401   7.712   2.271  10.853
51502SOL     OW56402   6.140  10.252  13.691
51502SOL    HW156403   6.049  10.243  13.664
51502SOL    HW256404   6.173  10.162  13.694
51503SOL     OW56405   7.450  12.325   2.740
51503SOL    HW156406   7.419  12.408   2.705
51503SOL    HW256407   7.429  12.328   2.833
51504SOL     OW56408   1.482   2.496   4.804
51504SOL    HW156409   1.449   2.585   4.792
51504SOL    HW256410   1.418   2.454   4.861
51505SOL     OW56411   5.940   4.830   6.945
51505SOL    HW156412   6.015   4.803   6.998
51505SOL    HW256413   5.870   4.846   7.009
51506SOL     OW56414   2.470   6.834   3.967
51506SOL    HW156415   2.381   6.827   3.934
51506SOL    HW256416   2.469   6.789   4.051
51507SOL     OW56417  11.816   6.730  10.219
51507SOL    HW156418  11.837   6.815  10.257
51507SOL    HW256419  11.745   6.696  10.274
51508SOL     OW56420  10.007   3.095  10.034
51508SOL    HW156421  10.055   3.033  10.089
51508SOL    HW256422   9.925   3.051  10.015
51509SOL     OW56423  14.652  13.133   0.300
51509SOL    HW156424  14.561  13.157   0.318
51509SOL    HW256425  14.683  13.095   0.382
51510SOL     OW56426   7.057   8.009   4.439
51510SOL    HW156427   7.102   7.990   4.522
51510SOL    HW256428   7.106   7.958   4.374
51511SOL     OW56429   0.144   3.019   2.914
51511SOL    HW156430   0.104   3.025   3.000
51511SOL    HW256431   0.217   2.958   2.925
51512SOL     OW56432   9.585   7.180  12.788
51512SOL    HW156433   9.667   7.164  12.742
51512SOL    HW256434   9.554   7.263  12.751
51513SOL     OW56435   8.663   6.754   4.664
51513SOL    HW156436   8.706   6.839   4.666
51513SOL    HW256437   8.678   6.721   4.576
51514SOL     OW56438   4.186   7.335   8.850
51514SOL    HW156439   4.153   7.319   8.762
51514SOL    HW256440   4.248   7.264   8.867
51515SOL     OW56441   3.922  12.831   6.209
51515SOL    HW156442   3.921  12.900   6.143
51515SOL    HW256443   3.850  12.772   6.182
51516SOL     OW56444  14.026   3.116   1.098
51516SOL    HW156445  13.971   3.188   1.129
51516SOL    HW256446  14.006   3.043   1.157
51517SOL     OW56447  11.717  14.473   6.810
51517SOL    HW156448  11.630  14.482   6.771
51517SOL    HW256449  11.774  14.449   6.736
51518SOL     OW56450   7.408   1.200   0.094
51518SOL    HW156451   7.477   1.142   0.060
51518SOL    HW256452   7.415   1.191   0.189
51519SOL     OW56453  11.546   1.230   9.150
51519SOL    HW156454  11.553   1.153   9.094
51519SOL    HW256455  11.463   1.270   9.126
51520SOL     OW56456   4.634   7.150  11.723
51520SOL    HW156457   4.657   7.110  11.639
51520SOL    HW256458   4.591   7.232  11.698
51521SOL     OW56459   1.099   5.018  14.598
51521SOL    HW156460   1.025   5.012  14.659
51521SOL    HW256461   1.144   4.934  14.605
51522SOL     OW56462   3.375  10.652  11.918
51522SOL    HW156463   3.403  10.581  11.974
51522SOL    HW256464   3.353  10.723  11.978
51523SOL     OW56465   2.635   7.642  12.800
51523SOL    HW156466   2.541   7.661  12.798
51523SOL    HW256467   2.659   7.633  12.708
51524SOL     OW56468  13.780  10.100   2.441
51524SOL    HW156469  13.843  10.127   2.507
51524SOL    HW256470  13.822  10.121   2.357
51525SOL     OW56471   9.065  12.096  13.737
51525SOL    HW156472   9.027  12.141  13.812
51525SOL    HW256473   9.079  12.006  13.767
51526SOL     OW56474  11.082   7.487   9.273
51526SOL    HW156475  11.171   7.471   9.305
51526SOL    HW256476  11.028   7.424   9.321
51527SOL     OW56477  12.746  13.141  13.001
51527SOL    HW156478  12.794  13.069  12.960
51527SOL    HW256479  12.768  13.134  13.094
51528SOL     OW56480   8.454   2.138  13.882
51528SOL    HW156481   8.406   2.067  13.923
51528SOL    HW256482   8.480   2.104  13.797
51529SOL     OW56483   7.072   8.632  13.009
51529SOL    HW156484   7.012   8.561  13.033
51529SOL    HW256485   7.118   8.598  12.933
51530SOL     OW56486  14.629   2.484   4.785
51530SOL    HW156487  14.715   2.525   4.781
51530SOL    HW256488  14.613   2.453   4.695
51531SOL     OW56489   3.098  13.221   8.078
51531SOL    HW156490   3.141  13.293   8.034
51531SOL    HW256491   3.077  13.255   8.165
51532SOL     OW56492   3.869   0.600   8.371
51532SOL    HW156493   3.909   0.649   8.443
51532SOL    HW256494   3.858   0.665   8.301
51533SOL     OW56495   1.528   1.735   4.428
51533SOL    HW156496   1.532   1.797   4.501
51533SOL    HW256497   1.501   1.788   4.353
51534SOL     OW56498   9.504  10.496   5.651
51534SOL    HW156499   9.589  10.537   5.633
51534SOL    HW256500   9.445  10.534   5.586
51535SOL     OW56501   7.587   6.821   6.311
51535SOL    HW156502   7.507   6.769   6.310
51535SOL    HW256503   7.559   6.909   6.288
51536SOL     OW56504   2.615   7.726   0.057
51536SOL    HW156505   2.633   7.641   0.095
51536SOL    HW256506   2.524   7.745   0.082
51537SOL     OW56507   0.330   1.505   4.894
51537SOL    HW156508   0.253   1.461   4.929
51537SOL    HW256509   0.332   1.480   4.802
51538SOL     OW56510  14.105  10.175  13.634
51538SOL    HW156511  14.140  10.160  13.722
51538SOL    HW256512  14.183  10.185  13.578
51539SOL     OW56513   5.342   6.047  12.510
51539SOL    HW156514   5.251   6.053  12.481
51539SOL    HW256515   5.349   6.110  12.581
51540SOL     OW56516  10.973   7.707   2.735
51540SOL    HW156517  10.935   7.739   2.817
51540SOL    HW256518  10.993   7.786   2.685
51541SOL     OW56519   7.539  13.410   4.082
51541SOL    HW156520   7.544  13.442   4.172
51541SOL    HW256521   7.556  13.487   4.028
51542SOL     OW56522   2.887   9.118  13.227
51542SOL    HW156523   2.921   9.198  13.266
51542SOL    HW256524   2.905   9.050  13.292
51543SOL     OW56525   8.769   4.573  12.278
51543SOL    HW156526   8.812   4.536  12.201
51543SOL    HW256527   8.841   4.597  12.336
51544SOL     OW56528   8.046   4.023   5.595
51544SOL    HW156529   7.995   4.097   5.628
51544SOL    HW256530   8.073   3.976   5.674
51545SOL     OW56531   1.685  11.415   9.269
51545SOL    HW156532   1.609  11.418   9.211
51545SOL    HW256533   1.668  11.483   9.334
51546SOL     OW56534   1.034   0.236   3.201
51546SOL    HW156535   1.076   0.310   3.158
51546SOL    HW256536   1.094   0.212   3.272
51547SOL     OW56537   0.582  12.946   9.127
51547SOL    HW156538   0.586  13.015   9.194
51547SOL    HW256539   0.508  12.970   9.072
51548SOL     OW56540   5.694  11.361   9.934
51548SOL    HW156541   5.753  11.419   9.983
51548SOL    HW256542   5.612  11.411   9.927
51549SOL     OW56543   3.376   0.590  12.737
51549SOL    HW156544   3.337   0.677  12.741
51549SOL    HW256545   3.335   0.542  12.809
51550SOL     OW56546   5.345   3.589   9.150
51550SOL    HW156547   5.401   3.539   9.090
51550SOL    HW256548   5.378   3.679   9.144
51551SOL     OW56549  13.935   4.294  11.166
51551SOL    HW156550  14.014   4.246  11.141
51551SOL    HW256551  13.931   4.285  11.261
51552SOL     OW56552   4.553   5.603  13.784
51552SOL    HW156553   4.491   5.657  13.833
51552SOL    HW256554   4.638   5.627  13.819
51553SOL     OW56555  13.957   3.859  12.295
51553SOL    HW156556  13.997   3.914  12.227
51553SOL    HW256557  14.025   3.795  12.317
51554SOL     OW56558  14.369   2.277  13.162
51554SOL    HW156559  14.462   2.274  13.181
51554SOL    HW256560  14.327   2.285  13.248
51555SOL     OW56561   8.406   1.749  10.183
51555SOL    HW156562   8.427   1.728  10.092
51555SOL    HW256563   8.418   1.844  10.188
51556SOL     OW56564  13.151   2.479   9.404
51556SOL    HW156565  13.130   2.546   9.470
51556SOL    HW256566  13.068   2.460   9.361
51557SOL     OW56567   7.972  11.791   7.192
51557SOL    HW156568   7.936  11.802   7.104
51557SOL    HW256569   7.943  11.869   7.239
51558SOL     OW56570   6.056   8.359  12.368
51558SOL    HW156571   6.046   8.432  12.430
51558SOL    HW256572   6.118   8.300  12.411
51559SOL     OW56573   7.147  14.551   7.595
51559SOL    HW156574   7.076  14.488   7.603
51559SOL    HW256575   7.135  14.611   7.668
51560SOL     OW56576   1.051   0.034   2.006
51560SOL    HW156577   1.017  14.831   1.972
51560SOL    HW256578   1.114   0.063   1.941
51561SOL     OW56579   3.687   9.703   3.014
51561SOL    HW156580   3.740   9.697   2.934
51561SOL    HW256581   3.702   9.620   3.059
51562SOL     OW56582   6.268   1.221   3.388
51562SOL    HW156583   6.311   1.169   3.455
51562SOL    HW256584   6.255   1.161   3.315
51563SOL     OW56585   2.123   1.291  10.754
51563SOL    HW156586   2.030   1.312  10.756
51563SOL    HW256587   2.166   1.371  10.725
51564SOL     OW56588  11.661  10.329   0.096
51564SOL    HW156589  11.732  10.372   0.048
51564SOL    HW256590  11.582  10.352   0.047
51565SOL     OW56591  13.180  13.310  11.994
51565SOL    HW156592  13.239  13.290  12.066
51565SOL    HW256593  13.143  13.225  11.968
51566SOL     OW56594   1.825  10.630   3.682
51566SOL    HW156595   1.869  10.613   3.766
51566SOL    HW256596   1.779  10.713   3.696
51567SOL     OW56597   5.514   0.091   5.085
51567SOL    HW156598   5.470   0.055   5.162
51567SOL    HW256599   5.469   0.173   5.068
51568SOL     OW56600   8.959   0.137  14.145
51568SOL    HW156601   8.913   0.195  14.206
51568SOL    HW256602   8.934   0.049  14.173
51569SOL     OW56603   5.716   9.548  13.677
51569SOL    HW156604   5.690   9.465  13.718
51569SOL    HW256605   5.638   9.577  13.630
51570SOL     OW56606   1.690  12.595   3.721
51570SOL    HW156607   1.652  12.508   3.716
51570SOL    HW256608   1.617  12.651   3.749
51571SOL     OW56609   9.994  14.599   7.325
51571SOL    HW156610  10.053  14.633   7.258
51571SOL    HW256611  10.051  14.583   7.401
51572SOL     OW56612   7.231  12.679  14.019
51572SOL    HW156613   7.253  12.714  14.105
51572SOL    HW256614   7.289  12.604  14.008
51573SOL     OW56615   5.199   8.471  12.384
51573SOL    HW156616   5.131   8.435  12.327
51573SOL    HW256617   5.277   8.420  12.363
51574SOL     OW56618  11.229   4.303   3.172
51574SOL    HW156619  11.144   4.318   3.214
51574SOL    HW256620  11.262   4.391   3.153
51575SOL     OW56621  11.562  13.448  10.170
51575SOL    HW156622  11.515  13.449  10.087
51575SOL    HW256623  11.538  13.530  10.212
51576SOL     OW56624  14.315   6.899   1.511
51576SOL    HW156625  14.302   6.807   1.532
51576SOL    HW256626  14.243   6.944   1.555
51577SOL     OW56627  11.744   3.793  13.292
51577SOL    HW156628  11.836   3.818  13.285
51577SOL    HW256629  11.742   3.728  13.361
51578SOL     OW56630   4.324  10.767   6.175
51578SOL    HW156631   4.265  10.811   6.236
51578SOL    HW256632   4.326  10.676   6.205
51579SOL     OW56633   0.772   8.262   6.464
51579SOL    HW156634   0.855   8.250   6.510
51579SOL    HW256635   0.745   8.174   6.440
51580SOL     OW56636  10.920   9.481  13.849
51580SOL    HW156637  10.831   9.445  13.844
51580SOL    HW256638  10.960   9.458  13.765
51581SOL     OW56639   8.219   5.804   6.615
51581SOL    HW156640   8.167   5.774   6.690
51581SOL    HW256641   8.309   5.807   6.649
51582SOL     OW56642  14.450   4.749   3.337
51582SOL    HW156643  14.523   4.687   3.333
51582SOL    HW256644  14.424   4.761   3.246
51583SOL     OW56645   0.109   0.397   8.804
51583SOL    HW156646   0.038   0.412   8.866
51583SOL    HW256647   0.127   0.303   8.811
51584SOL     OW56648   6.802  12.664  10.782
51584SOL    HW156649   6.814  12.757  10.765
51584SOL    HW256650   6.875  12.621  10.737
51585SOL     OW56651   5.773   0.494  10.373
51585SOL    HW156652   5.723   0.417  10.347
51585SOL    HW256653   5.864   0.470  10.354
51586SOL     OW56654   3.545   2.656   0.610
51586SOL    HW156655   3.608   2.701   0.665
51586SOL    HW256656   3.593   2.582   0.572
51587SOL     OW56657   9.372   7.544   3.771
51587SOL    HW156658   9.339   7.486   3.840
51587SOL    HW256659   9.464   7.558   3.793
51588SOL     OW56660   5.305   0.165   8.516
51588SOL    HW156661   5.273   0.213   8.592
51588SOL    HW256662   5.225   0.139   8.469
51589SOL     OW56663  10.807   0.770  11.804
51589SOL    HW156664  10.741   0.801  11.866
51589SOL    HW256665  10.876   0.837  11.807
51590SOL     OW56666  11.059  10.788  12.146
51590SOL    HW156667  11.047  10.838  12.065
51590SOL    HW256668  11.011  10.838  12.213
51591SOL     OW56669   0.196   7.346   7.809
51591SOL    HW156670   0.221   7.393   7.730
51591SOL    HW256671   0.264   7.279   7.820
51592SOL     OW56672  12.912   9.760   5.970
51592SOL    HW156673  12.993   9.805   5.992
51592SOL    HW256674  12.846   9.798   6.028
51593SOL     OW56675   0.649   9.806   1.924
51593SOL    HW156676   0.658   9.727   1.977
51593SOL    HW256677   0.554   9.815   1.910
51594SOL     OW56678   3.854  14.612   5.837
51594SOL    HW156679   3.894  14.578   5.917
51594SOL    HW256680   3.926  14.652   5.789
51595SOL     OW56681   5.170   7.866   6.228
51595SOL    HW156682   5.181   7.773   6.246
51595SOL    HW256683   5.185   7.909   6.312
51596SOL     OW56684   1.242   5.202   1.936
51596SOL    HW156685   1.255   5.297   1.938
51596SOL    HW256686   1.308   5.167   1.996
51597SOL     OW56687   6.685   9.713   4.514
51597SOL    HW156688   6.716   9.733   4.602
51597SOL    HW256689   6.746   9.648   4.481
51598SOL     OW56690  11.098   6.917   5.540
51598SOL    HW156691  11.137   6.990   5.588
51598SOL    HW256692  11.088   6.848   5.606
51599SOL     OW56693   7.791   1.955   2.901
51599SOL    HW156694   7.765   2.012   2.829
51599SOL    HW256695   7.710   1.938   2.949
51600SOL     OW56696  10.635   7.541   3.735
51600SOL    HW156697  10.571   7.516   3.802
51600SOL    HW256698  10.719   7.542   3.780
51601SOL     OW56699  14.590  14.337   5.179
51601SOL    HW156700  14.670  14.297   5.145
51601SOL    HW256701  14.599  14.329   5.274
51602SOL     OW56702   8.754   4.216  14.214
51602SOL    HW156703   8.715   4.142  14.260
51602SOL    HW256704   8.808   4.177  14.145
51603SOL     OW56705  13.639  11.038  12.521
51603SOL    HW156706  13.707  10.971  12.517
51603SOL    HW256707  13.641  11.069  12.612
51604SOL     OW56708  13.798   7.640   9.825
51604SOL    HW156709  13.795   7.731   9.797
51604SOL    HW256710  13.889   7.613   9.810
51605SOL     OW56711   1.171   9.633   8.165
51605SOL    HW156712   1.097   9.572   8.159
51605SOL    HW256713   1.143   9.710   8.115
51606SOL     OW56714  11.668   3.862   6.674
51606SOL    HW156715  11.580   3.891   6.652
51606SOL    HW256716  11.678   3.883   6.767
51607SOL     OW56717   9.808   4.511   1.795
51607SOL    HW156718   9.855   4.549   1.869
51607SOL    HW256719   9.847   4.552   1.718
51608SOL     OW56720   7.270  11.886  12.080
51608SOL    HW156721   7.179  11.889  12.052
51608SOL    HW256722   7.320  11.869  12.000
51609SOL     OW56723  12.327   7.966   3.691
51609SOL    HW156724  12.360   7.913   3.763
51609SOL    HW256725  12.406   8.004   3.651
51610SOL     OW56726   3.663  11.373  10.765
51610SOL    HW156727   3.661  11.347  10.673
51610SOL    HW256728   3.645  11.467  10.765
51611SOL     OW56729  12.747   6.565  10.215
51611SOL    HW156730  12.783   6.561  10.303
51611SOL    HW256731  12.822   6.584  10.158
51612SOL     OW56732  13.668  12.027  13.646
51612SOL    HW156733  13.744  12.077  13.618
51612SOL    HW256734  13.696  11.984  13.727
51613SOL     OW56735  11.105   8.798   6.580
51613SOL    HW156736  11.103   8.819   6.673
51613SOL    HW256737  11.052   8.719   6.571
51614SOL     OW56738   0.271   5.956  14.239
51614SOL    HW156739   0.357   5.997  14.244
51614SOL    HW256740   0.210   6.027  14.259
51615SOL     OW56741  14.731   1.198   1.388
51615SOL    HW156742  14.643   1.228   1.362
51615SOL    HW256743  14.790   1.265   1.353
51616SOL     OW56744  10.834   8.533  13.528
51616SOL    HW156745  10.899   8.585  13.574
51616SOL    HW256746  10.884   8.489  13.459
51617SOL     OW56747   9.811   6.399   7.252
51617SOL    HW156748   9.746   6.455   7.295
51617SOL    HW256749   9.771   6.374   7.169
51618SOL     OW56750   7.199   7.969   4.180
51618SOL    HW156751   7.178   7.914   4.104
51618SOL    HW256752   7.254   7.914   4.236
51619SOL     OW56753   0.682   1.481   8.609
51619SOL    HW156754   0.624   1.408   8.587
51619SOL    HW256755   0.625   1.545   8.651
51620SOL     OW56756   8.415   6.778   8.501
51620SOL    HW156757   8.466   6.772   8.582
51620SOL    HW256758   8.410   6.871   8.482
51621SOL     OW56759   9.415   7.291  13.540
51621SOL    HW156760   9.436   7.327  13.626
51621SOL    HW256761   9.320   7.290  13.536
51622SOL     OW56762  11.031   4.570   2.815
51622SOL    HW156763  10.959   4.615   2.859
51622SOL    HW256764  10.994   4.487   2.786
51623SOL     OW56765   8.378  14.779  13.189
51623SOL    HW156766   8.363  14.700  13.137
51623SOL    HW256767   8.445  14.753  13.252
51624SOL     OW56768   7.839  12.282   4.326
51624SOL    HW156769   7.815  12.289   4.234
51624SOL    HW256770   7.793  12.205   4.358
51625SOL     OW56771   5.536   4.735   2.593
51625SOL    HW156772   5.512   4.816   2.638
51625SOL    HW256773   5.452   4.691   2.577
51626SOL     OW56774   9.768   5.806   0.610
51626SOL    HW156775   9.821   5.820   0.689
51626SOL    HW256776   9.830   5.810   0.538
51627SOL     OW56777  12.227   2.473  10.875
51627SOL    HW156778  12.132   2.480  10.877
51627SOL    HW256779  12.250   2.433  10.960
51628SOL     OW56780  14.018   6.539   1.483
51628SOL    HW156781  14.054   6.472   1.424
51628SOL    HW256782  13.970   6.489   1.549
51629SOL     OW56783   1.349   5.953   1.738
51629SOL    HW156784   1.275   5.953   1.799
51629SOL    HW256785   1.357   5.861   1.711
51630SOL     OW56786  11.758   4.085  14.831
51630SOL    HW156787  11.770   4.051  14.742
51630SOL    HW256788  11.749   4.179  14.820
51631SOL     OW56789  10.063  12.974   4.104
51631SOL    HW156790  10.033  12.950   4.192
51631SOL    HW256791  10.154  12.945   4.101
51632SOL     OW56792  12.728   7.663   6.112
51632SOL    HW156793  12.668   7.732   6.083
51632SOL    HW256794  12.691   7.582   6.076
51633SOL     OW56795  11.295   1.288  13.141
51633SOL    HW156796  11.311   1.336  13.222
51633SOL    HW256797  11.216   1.327  13.105
51634SOL     OW56798  13.316   3.101   1.667
51634SOL    HW156799  13.292   3.174   1.724
51634SOL    HW256800  13.379   3.137   1.606
51635SOL     OW56801   4.695  10.923  14.470
51635SOL    HW156802   4.628  10.987  14.447
51635SOL    HW256803   4.743  10.907  14.389
51636SOL     OW56804  14.716   7.854   1.405
51636SOL    HW156805  14.679   7.783   1.353
51636SOL    HW256806  14.720   7.819   1.494
51637SOL     OW56807   9.312   3.432  12.151
51637SOL    HW156808   9.291   3.345  12.185
51637SOL    HW256809   9.370   3.415  12.077
51638SOL     OW56810   1.844   9.359  10.919
51638SOL    HW156811   1.752   9.350  10.895
51638SOL    HW256812   1.850   9.448  10.954
51639SOL     OW56813   5.649   0.729   5.143
51639SOL    HW156814   5.600   0.785   5.083
51639SOL    HW256815   5.709   0.680   5.087
51640SOL     OW56816   2.904   0.704   1.017
51640SOL    HW156817   2.946   0.787   1.036
51640SOL    HW256818   2.952   0.670   0.941
51641SOL     OW56819  10.834   0.511   9.958
51641SOL    HW156820  10.832   0.432   9.905
51641SOL    HW256821  10.875   0.483  10.040
51642SOL     OW56822  11.346   6.958   8.165
51642SOL    HW156823  11.279   6.891   8.169
51642SOL    HW256824  11.316   7.019   8.098
51643SOL     OW56825  11.219  12.265  14.284
51643SOL    HW156826  11.258  12.352  14.286
51643SOL    HW256827  11.294  12.205  14.282
51644SOL     OW56828  11.634   0.938  14.329
51644SOL    HW156829  11.582   0.976  14.401
51644SOL    HW256830  11.710   0.899  14.372
51645SOL     OW56831  10.239  14.702   6.635
51645SOL    HW156832  10.206  14.701   6.545
51645SOL    HW256833  10.311  14.638   6.635
51646SOL     OW56834   5.292   2.239  13.248
51646SOL    HW156835   5.312   2.313  13.305
51646SOL    HW256836   5.196   2.236  13.245
51647SOL     OW56837   8.298  11.530   6.032
51647SOL    HW156838   8.325  11.622   6.024
51647SOL    HW256839   8.210  11.528   5.995
51648SOL     OW56840   4.071   0.900  11.380
51648SOL    HW156841   4.034   0.813  11.366
51648SOL    HW256842   4.114   0.922  11.298
51649SOL     OW56843  12.537  14.608   6.255
51649SOL    HW156844  12.539  14.602   6.351
51649SOL    HW256845  12.469  14.546   6.229
51650SOL     OW56846   6.334  13.709   5.395
51650SOL    HW156847   6.427  13.711   5.376
51650SOL    HW256848   6.292  13.737   5.314
51651SOL     OW56849   2.856  12.439   5.070
51651SOL    HW156850   2.944  12.415   5.041
51651SOL    HW256851   2.801  12.364   5.047
51652SOL     OW56852   5.562   1.666   2.171
51652SOL    HW156853   5.470   1.692   2.166
51652SOL    HW256854   5.597   1.685   2.084
51653SOL     OW56855  13.497   9.061   4.822
51653SOL    HW156856  13.588   9.076   4.849
51653SOL    HW256857  13.501   8.982   4.768
51654SOL     OW56858   3.472   0.109  11.709
51654SOL    HW156859   3.448   0.088  11.799
51654SOL    HW256860   3.561   0.144  11.715
51655SOL     OW56861   5.039   8.907  13.961
51655SOL    HW156862   4.946   8.892  13.978
51655SOL    HW256863   5.076   8.927  14.047
51656SOL     OW56864  14.121   9.589   8.350
51656SOL    HW156865  14.156   9.644   8.421
51656SOL    HW256866  14.179   9.513   8.348
51657SOL     OW56867   2.011   7.728   4.546
51657SOL    HW156868   2.090   7.675   4.549
51657SOL    HW256869   2.036   7.804   4.493
51658SOL     OW56870   9.016  10.608   7.675
51658SOL    HW156871   9.026  10.515   7.695
51658SOL    HW256872   8.958  10.642   7.743
51659SOL     OW56873  12.592   1.282   2.527
51659SOL    HW156874  12.580   1.224   2.452
51659SOL    HW256875  12.531   1.354   2.511
51660SOL     OW56876   6.129   3.040  11.640
51660SOL    HW156877   6.220   3.021  11.620
51660SOL    HW256878   6.130   3.067  11.732
51661SOL     OW56879  13.210   3.587   1.798
51661SOL    HW156880  13.155   3.629   1.863
51661SOL    HW256881  13.150   3.560   1.729
51662SOL     OW56882  10.790  13.529   6.767
51662SOL    HW156883  10.839  13.508   6.688
51662SOL    HW256884  10.805  13.456   6.826
51663SOL     OW56885   9.592   8.439   7.825
51663SOL    HW156886   9.553   8.522   7.797
51663SOL    HW256887   9.682   8.462   7.848
51664SOL     OW56888   4.051   0.505   6.896
51664SOL    HW156889   4.047   0.555   6.977
51664SOL    HW256890   4.084   0.419   6.922
51665SOL     OW56891   3.656  13.899   5.456
51665SOL    HW156892   3.639  13.922   5.547
51665SOL    HW256893   3.574  13.916   5.410
51666SOL     OW56894   3.694  10.685   4.885
51666SOL    HW156895   3.670  10.664   4.975
51666SOL    HW256896   3.774  10.635   4.869
51667SOL     OW56897  10.282   7.514   7.981
51667SOL    HW156898  10.329   7.523   7.898
51667SOL    HW256899  10.347   7.478   8.042
51668SOL     OW56900   1.105   1.571  14.827
51668SOL    HW156901   1.028   1.582   0.002
51668SOL    HW256902   1.071   1.568  14.738
51669SOL     OW56903  14.149   2.834   3.300
51669SOL    HW156904  14.176   2.906   3.243
51669SOL    HW256905  14.231   2.790   3.322
51670SOL     OW56906   5.922   4.059  14.628
51670SOL    HW156907   5.892   4.026  14.713
51670SOL    HW256908   5.999   4.006  14.607
51671SOL     OW56909   2.034   7.564  12.891
51671SOL    HW156910   2.128   7.554  12.902
51671SOL    HW256911   2.021   7.658  12.881
51672SOL     OW56912   8.166  10.603   9.500
51672SOL    HW156913   8.131  10.639   9.581
51672SOL    HW256914   8.121  10.652   9.430
51673SOL     OW56915   3.858  11.810   2.841
51673SOL    HW156916   3.779  11.853   2.808
51673SOL    HW256917   3.831  11.770   2.923
51674SOL     OW56918  10.837   8.773   0.020
51674SOL    HW156919  10.788   8.855   0.015
51674SOL    HW256920  10.901   8.778  14.829
51675SOL     OW56921  11.870  10.947  13.276
51675SOL    HW156922  11.922  10.870  13.299
51675SOL    HW256923  11.936  11.015  13.258
51676SOL     OW56924  13.592   6.100  13.304
51676SOL    HW156925  13.565   6.095  13.212
51676SOL    HW256926  13.658   6.169  13.306
51677SOL     OW56927   7.741   5.075  11.154
51677SOL    HW156928   7.822   5.126  11.156
51677SOL    HW256929   7.757   5.008  11.087
51678SOL     OW56930  11.047   3.448   8.222
51678SOL    HW156931  11.066   3.359   8.253
51678SOL    HW256932  11.079   3.505   8.291
51679SOL     OW56933   3.792   8.875   4.489
51679SOL    HW156934   3.727   8.921   4.436
51679SOL    HW256935   3.826   8.806   4.432
51680SOL     OW56936  10.689   9.019   9.965
51680SOL    HW156937  10.742   9.037   9.887
51680SOL    HW256938  10.619   8.961   9.934
51681SOL     OW56939   1.586   0.889   0.749
51681SOL    HW156940   1.565   0.808   0.796
51681SOL    HW256941   1.584   0.956   0.817
51682SOL     OW56942  14.167  14.808   1.131
51682SOL    HW156943  14.166   0.023   1.130
51682SOL    HW256944  14.245  14.785   1.081
51683SOL     OW56945   6.197  12.544   0.827
51683SOL    HW156946   6.240  12.564   0.744
51683SOL    HW256947   6.256  12.580   0.894
51684SOL     OW56948  14.077  12.352   8.692
51684SOL    HW156949  13.992  12.396   8.694
51684SOL    HW256950  14.118  12.375   8.775
51685SOL     OW56951   2.908   8.392  10.529
51685SOL    HW156952   2.823   8.369  10.492
51685SOL    HW256953   2.971   8.339  10.480
51686SOL     OW56954   5.547   9.111   7.521
51686SOL    HW156955   5.499   9.108   7.438
51686SOL    HW256956   5.618   9.172   7.506
51687SOL     OW56957   5.799  14.440   1.686
51687SOL    HW156958   5.722  14.484   1.721
51687SOL    HW256959   5.873  14.496   1.712
51688SOL     OW56960   3.689   7.282   1.934
51688SOL    HW156961   3.735   7.254   1.855
51688SOL    HW256962   3.645   7.203   1.965
51689SOL     OW56963  13.695  12.893   9.432
51689SOL    HW156964  13.751  12.887   9.355
51689SOL    HW256965  13.664  12.804   9.446
51690SOL     OW56966  10.128  14.107  11.061
51690SOL    HW156967  10.086  14.032  11.017
51690SOL    HW256968  10.202  14.129  11.004
51691SOL     OW56969   5.437   5.883   1.397
51691SOL    HW156970   5.446   5.858   1.306
51691SOL    HW256971   5.481   5.968   1.404
51692SOL     OW56972   1.002   3.870   6.615
51692SOL    HW156973   1.000   3.821   6.533
51692SOL    HW256974   0.909   3.880   6.638
51693SOL     OW56975  14.853   5.731  13.347
51693SOL    HW156976  14.880   5.670  13.278
51693SOL    HW256977   0.052   5.779  13.369
51694SOL     OW56978   0.854   8.437  13.470
51694SOL    HW156979   0.831   8.345  13.456
51694SOL    HW256980   0.890   8.465  13.386
51695SOL     OW56981  13.114  10.875   9.489
51695SOL    HW156982  13.127  10.907   9.399
51695SOL    HW256983  13.022  10.849   9.492
51696SOL     OW56984  10.305   8.238   0.613
51696SOL    HW156985  10.222   8.287   0.615
51696SOL    HW256986  10.291   8.165   0.673
51697SOL     OW56987   5.465  10.960   8.815
51697SOL    HW156988   5.425  11.024   8.756
51697SOL    HW256989   5.518  10.905   8.758
51698SOL     OW56990   9.358   5.458  10.617
51698SOL    HW156991   9.365   5.381  10.674
51698SOL    HW256992   9.341   5.422  10.530
51699SOL     OW56993   8.871  10.906  14.652
51699SOL    HW156994   8.833  10.960  14.722
51699SOL    HW256995   8.800  10.846  14.627
51700SOL     OW56996   1.092   7.842   7.965
51700SOL    HW156997   1.152   7.847   8.039
51700SOL    HW256998   1.148   7.828   7.889
51701SOL     OW56999  11.069  14.824  10.099
51701SOL    HW157000  11.006  14.753  10.107
51701SOL    HW257001  11.139  14.789  10.044
51702SOL     OW57002   1.307   8.991  10.310
51702SOL    HW157003   1.289   8.926  10.242
51702SOL    HW257004   1.237   9.055  10.301
51703SOL     OW57005   4.376   0.473   0.128
51703SOL    HW157006   4.374   0.403   0.194
51703SOL    HW257007   4.359   0.428   0.045
51704SOL     OW57008   8.114   9.956   0.739
51704SOL    HW157009   8.020   9.962   0.759
51704SOL    HW257010   8.143  10.047   0.735
51705SOL     OW57011  14.844   0.603   3.002
51705SOL    HW157012   0.059   0.606   2.994
51705SOL    HW257013  14.816   0.694   3.000
51706SOL     OW57014  13.632   5.221   4.626
51706SOL    HW157015  13.566   5.289   4.635
51706SOL    HW257016  13.592   5.143   4.664
51707SOL     OW57017   7.735   0.812   7.236
51707SOL    HW157018   7.658   0.755   7.233
51707SOL    HW257019   7.747   0.830   7.329
51708SOL     OW57020   9.111   1.945   9.738
51708SOL    HW157021   9.104   1.851   9.753
51708SOL    HW257022   9.137   1.981   9.823
51709SOL     OW57023   6.911   2.022   6.522
51709SOL    HW157024   6.957   2.071   6.590
51709SOL    HW257025   6.891   1.938   6.563
51710SOL     OW57026  12.463  11.404   2.958
51710SOL    HW157027  12.554  11.422   2.982
51710SOL    HW257028  12.453  11.446   2.872
51711SOL     OW57029   0.193   8.451  13.417
51711SOL    HW157030   0.136   8.383  13.381
51711SOL    HW257031   0.271   8.449  13.361
51712SOL     OW57032   6.835  11.680   3.147
51712SOL    HW157033   6.764  11.616   3.142
51712SOL    HW257034   6.800  11.759   3.106
51713SOL     OW57035   8.467   8.675   2.582
51713SOL    HW157036   8.506   8.717   2.659
51713SOL    HW257037   8.521   8.704   2.508
51714SOL     OW57038   1.530   1.299  14.501
51714SOL    HW157039   1.487   1.214  14.506
51714SOL    HW257040   1.525   1.335  14.589
51715SOL     OW57041   2.363   4.699   8.564
51715SOL    HW157042   2.382   4.746   8.645
51715SOL    HW257043   2.370   4.765   8.496
51716SOL     OW57044  10.359   7.876  10.408
51716SOL    HW157045  10.413   7.920  10.474
51716SOL    HW257046  10.422   7.826  10.356
51717SOL     OW57047   2.106   0.016   2.792
51717SOL    HW157048   2.071  14.824   2.740
51717SOL    HW257049   2.097   0.093   2.737
51718SOL     OW57050   5.490  11.155   6.432
51718SOL    HW157051   5.485  11.067   6.470
51718SOL    HW257052   5.556  11.147   6.362
51719SOL     OW57053   8.882   3.160   8.138
51719SOL    HW157054   8.923   3.082   8.174
51719SOL    HW257055   8.949   3.228   8.146
51720SOL     OW57056   6.521   0.595   2.951
51720SOL    HW157057   6.558   0.656   3.015
51720SOL    HW257058   6.434   0.629   2.932
51721SOL     OW57059   6.598  10.471  12.004
51721SOL    HW157060   6.641  10.539  11.953
51721SOL    HW257061   6.513  10.510  12.028
51722SOL     OW57062  12.585   4.601  10.481
51722SOL    HW157063  12.668   4.580  10.439
51722SOL    HW257064  12.607   4.660  10.553
51723SOL     OW57065  12.420  13.775   3.961
51723SOL    HW157066  12.462  13.692   3.941
51723SOL    HW257067  12.488  13.841   3.943
51724SOL     OW57068   5.601  13.929   0.057
51724SOL    HW157069   5.631  13.989  14.868
51724SOL    HW257070   5.512  13.957   0.076
51725SOL     OW57071  14.013   1.955  10.034
51725SOL    HW157072  13.956   1.928   9.962
51725SOL    HW257073  14.025   1.876  10.087
51726SOL     OW57074  10.191   2.556   1.522
51726SOL    HW157075  10.101   2.567   1.553
51726SOL    HW257076  10.188   2.580   1.430
51727SOL     OW57077   2.163   1.491  10.321
51727SOL    HW157078   2.188   1.558  10.384
51727SOL    HW257079   2.243   1.475  10.271
51728SOL     OW57080   2.016  11.928   9.886
51728SOL    HW157081   1.944  11.977   9.846
51728SOL    HW257082   2.007  11.944   9.980
51729SOL     OW57083   7.130   7.340   0.840
51729SOL    HW157084   7.189   7.289   0.784
51729SOL    HW257085   7.075   7.389   0.779
51730SOL     OW57086   0.414  12.678   5.304
51730SOL    HW157087   0.435  12.628   5.225
51730SOL    HW257088   0.415  12.614   5.375
51731SOL     OW57089   1.890   4.121   0.567
51731SOL    HW157090   1.942   4.043   0.547
51731SOL    HW257091   1.804   4.103   0.529
51732SOL     OW57092  13.709   7.572   0.357
51732SOL    HW157093  13.622   7.564   0.394
51732SOL    HW257094  13.750   7.642   0.407
51733SOL     OW57095   2.515  11.053   4.403
51733SOL    HW157096   2.483  11.076   4.490
51733SOL    HW257097   2.442  11.072   4.344
51734SOL     OW57098  14.623   0.764  12.125
51734SOL    HW157099  14.620   0.756  12.030
51734SOL    HW257100  14.633   0.674  12.157
51735SOL     OW57101   3.620  10.952   8.011
51735SOL    HW157102   3.674  10.900   7.951
51735SOL    HW257103   3.604  11.033   7.964
51736SOL     OW57104  10.433   1.604  12.210
51736SOL    HW157105  10.360   1.643  12.162
51736SOL    HW257106  10.465   1.674  12.266
51737SOL     OW57107  12.093   1.358   7.351
51737SOL    HW157108  12.150   1.295   7.306
51737SOL    HW257109  12.007   1.342   7.313
51738SOL     OW57110  12.772   7.335   0.063
51738SOL    HW157111  12.798   7.318   0.153
51738SOL    HW257112  12.843   7.300   0.010
51739SOL     OW57113  13.093   9.668   2.070
51739SOL    HW157114  13.042   9.747   2.051
51739SOL    HW257115  13.093   9.619   1.987
51740SOL     OW57116  13.231  14.723  10.653
51740SOL    HW157117  13.202  14.716  10.744
51740SOL    HW257118  13.290  14.648  10.641
51741SOL     OW57119   3.803   0.996   4.812
51741SOL    HW157120   3.848   1.014   4.894
51741SOL    HW257121   3.711   0.986   4.837
51742SOL     OW57122   3.112   2.682   5.769
51742SOL    HW157123   3.105   2.591   5.799
51742SOL    HW257124   3.053   2.730   5.827
51743SOL     OW57125   7.608   6.605  14.125
51743SOL    HW157126   7.671   6.646  14.066
51743SOL    HW257127   7.545   6.562  14.067
51744SOL     OW57128   5.824   5.443   2.434
51744SOL    HW157129   5.856   5.503   2.502
51744SOL    HW257130   5.777   5.375   2.483
51745SOL     OW57131  13.027   1.358   7.553
51745SOL    HW157132  12.938   1.351   7.589
51745SOL    HW257133  13.014   1.385   7.463
51746SOL     OW57134  14.106   6.169   7.486
51746SOL    HW157135  14.060   6.176   7.403
51746SOL    HW257136  14.199   6.163   7.462
51747SOL     OW57137  13.235  14.566   5.969
51747SOL    HW157138  13.240  14.495   6.032
51747SOL    HW257139  13.324  14.600   5.963
51748SOL     OW57140   6.900  14.216   2.158
51748SOL    HW157141   6.891  14.161   2.235
51748SOL    HW257142   6.982  14.264   2.172
51749SOL     OW57143  10.025   2.473  14.794
51749SOL    HW157144  10.056   2.389  14.829
51749SOL    HW257145   9.993   2.520  14.871
51750SOL     OW57146  12.607  11.829   6.705
51750SOL    HW157147  12.545  11.809   6.635
51750SOL    HW257148  12.690  11.791   6.675
51751SOL     OW57149  12.043   4.871   1.011
51751SOL    HW157150  12.090   4.915   0.940
51751SOL    HW257151  12.004   4.942   1.061
51752SOL     OW57152   4.586   8.963   2.079
51752SOL    HW157153   4.640   9.042   2.080
51752SOL    HW257154   4.543   8.965   1.993
51753SOL     OW57155   9.144   1.527   3.208
51753SOL    HW157156   9.071   1.465   3.216
51753SOL    HW257157   9.165   1.527   3.115
51754SOL     OW57158   2.574   3.945   7.442
51754SOL    HW157159   2.667   3.959   7.460
51754SOL    HW257160   2.548   4.020   7.388
51755SOL     OW57161  11.633  13.786   7.037
51755SOL    HW157162  11.593  13.722   7.097
51755SOL    HW257163  11.559  13.820   6.986
51756SOL     OW57164  12.054  13.350  10.471
51756SOL    HW157165  12.024  13.432  10.430
51756SOL    HW257166  11.975  13.298  10.483
51757SOL     OW57167   9.823   3.229   9.719
51757SOL    HW157168   9.828   3.310   9.667
51757SOL    HW257169   9.779   3.255   9.800
51758SOL     OW57170   6.665   1.173  12.210
51758SOL    HW157171   6.661   1.209  12.121
51758SOL    HW257172   6.751   1.200  12.243
51759SOL     OW57173   2.660   3.256   0.049
51759SOL    HW157174   2.652   3.231   0.142
51759SOL    HW257175   2.683   3.175   0.005
51760SOL     OW57176  13.466   8.190   0.704
51760SOL    HW157177  13.443   8.100   0.729
51760SOL    HW257178  13.554   8.203   0.741
51761SOL     OW57179   9.188   6.522  10.240
51761SOL    HW157180   9.281   6.503  10.255
51761SOL    HW257181   9.149   6.516  10.327
51762SOL     OW57182   6.607   1.021   3.487
51762SOL    HW157183   6.522   1.009   3.529
51762SOL    HW257184   6.599   0.978   3.402
51763SOL     OW57185   5.722  11.253   2.556
51763SOL    HW157186   5.686  11.207   2.480
51763SOL    HW257187   5.798  11.202   2.582
51764SOL     OW57188   7.183   3.178  10.886
51764SOL    HW157189   7.173   3.271  10.908
51764SOL    HW257190   7.175   3.175  10.790
51765SOL     OW57191   4.547   7.987  11.566
51765SOL    HW157192   4.607   7.949  11.630
51765SOL    HW257193   4.490   7.915  11.540
51766SOL     OW57194  13.581  10.179   1.619
51766SOL    HW157195  13.642  10.111   1.590
51766SOL    HW257196  13.509  10.130   1.660
51767SOL     OW57197  13.334   7.149   6.108
51767SOL    HW157198  13.415   7.134   6.158
51767SOL    HW257199  13.269   7.170   6.174
51768SOL     OW57200   1.765   7.688   1.247
51768SOL    HW157201   1.713   7.748   1.194
51768SOL    HW257202   1.786   7.616   1.187
51769SOL     OW57203  11.449   2.101   9.168
51769SOL    HW157204  11.486   2.044   9.236
51769SOL    HW257205  11.369   2.058   9.141
51770SOL     OW57206  13.863   5.161   9.151
51770SOL    HW157207  13.857   5.096   9.081
51770SOL    HW257208  13.912   5.233   9.112
51771SOL     OW57209  12.770   1.707   5.705
51771SOL    HW157210  12.732   1.656   5.634
51771SOL    HW257211  12.790   1.792   5.666
51772SOL     OW57212   9.340   3.032   2.482
51772SOL    HW157213   9.284   3.009   2.556
51772SOL    HW257214   9.279   3.066   2.416
51773SOL     OW57215   9.608   7.325   4.046
51773SOL    HW157216   9.537   7.359   3.993
51773SOL    HW257217   9.687   7.364   4.008
51774SOL     OW57218   1.125   5.669  14.619
51774SOL    HW157219   1.201   5.727  14.621
51774SOL    HW257220   1.050   5.728  14.611
51775SOL     OW57221  10.625   4.501  14.480
51775SOL    HW157222  10.647   4.593  14.496
51775SOL    HW257223  10.540   4.505  14.436
51776SOL     OW57224   3.129   1.489  13.321
51776SOL    HW157225   3.132   1.436  13.401
51776SOL    HW257226   3.051   1.460  13.275
51777SOL     OW57227   6.280  10.849  10.778
51777SOL    HW157228   6.363  10.824  10.736
51777SOL    HW257229   6.265  10.780  10.843
51778SOL     OW57230  13.012   8.297   4.266
51778SOL    HW157231  13.100   8.276   4.300
51778SOL    HW257232  13.029   8.349   4.187
51779SOL     OW57233   6.746   0.968  14.851
51779SOL    HW157234   6.797   0.905   0.022
51779SOL    HW257235   6.671   0.918  14.820
51780SOL     OW57236   9.643   4.754   7.661
51780SOL    HW157237   9.669   4.696   7.589
51780SOL    HW257238   9.598   4.697   7.722
51781SOL     OW57239   7.938  12.622   1.353
51781SOL    HW157240   8.011  12.684   1.357
51781SOL    HW257241   7.980  12.537   1.340
51782SOL     OW57242   8.798   3.816  12.249
51782SOL    HW157243   8.776   3.771  12.330
51782SOL    HW257244   8.804   3.747  12.184
51783SOL     OW57245   4.184  11.949   7.361
51783SOL    HW157246   4.109  11.983   7.410
51783SOL    HW257247   4.203  12.016   7.297
51784SOL     OW57248   9.877   9.111   9.329
51784SOL    HW157249   9.843   9.200   9.330
51784SOL    HW257250   9.850   9.074   9.413
51785SOL     OW57251  14.666   9.582   8.855
51785SOL    HW157252  14.760   9.569   8.856
51785SOL    HW257253  14.636   9.550   8.940
51786SOL     OW57254   7.978   7.841  12.388
51786SOL    HW157255   8.024   7.898  12.326
51786SOL    HW257256   7.949   7.766  12.335
51787SOL     OW57257   8.915   9.149  11.617
51787SOL    HW157258   8.912   9.093  11.694
51787SOL    HW257259   8.833   9.200  11.621
51788SOL     OW57260   1.434  12.595  14.062
51788SOL    HW157261   1.344  12.617  14.087
51788SOL    HW257262   1.455  12.654  13.990
51789SOL     OW57263   7.109  12.828   2.530
51789SOL    HW157264   7.041  12.832   2.463
51789SOL    HW257265   7.097  12.742   2.570
51790SOL     OW57266  13.215   5.262   0.062
51790SOL    HW157267  13.155   5.197   0.098
51790SOL    HW257268  13.235   5.319   0.136
51791SOL     OW57269   0.543   0.094  13.298
51791SOL    HW157270   0.629   0.122  13.267
51791SOL    HW257271   0.563   0.025  13.362
51792SOL     OW57272  10.426  10.755   0.432
51792SOL    HW157273  10.368  10.792   0.365
51792SOL    HW257274  10.514  10.767   0.396
51793SOL     OW57275   2.763  10.981   5.600
51793SOL    HW157276   2.859  10.990   5.595
51793SOL    HW257277   2.733  11.066   5.634
51794SOL     OW57278   8.061   2.644   5.447
51794SOL    HW157279   8.100   2.558   5.435
51794SOL    HW257280   7.984   2.644   5.390
51795SOL     OW57281  13.863   5.257  14.386
51795SOL    HW157282  13.891   5.311  14.313
51795SOL    HW257283  13.938   5.201  14.405
51796SOL     OW57284   1.503  14.146   4.973
51796SOL    HW157285   1.527  14.094   4.897
51796SOL    HW257286   1.573  14.212   4.979
51797SOL     OW57287   5.547  10.200   0.864
51797SOL    HW157288   5.616  10.144   0.897
51797SOL    HW257289   5.590  10.284   0.848
51798SOL     OW57290   1.844   0.935   4.527
51798SOL    HW157291   1.864   1.029   4.521
51798SOL    HW257292   1.853   0.914   4.620
51799SOL     OW57293   2.273  12.600  14.420
51799SOL    HW157294   2.332  12.654  14.366
51799SOL    HW257295   2.318  12.594  14.504
51800SOL     OW57296   4.315   1.040  13.481
51800SOL    HW157297   4.331   0.968  13.541
51800SOL    HW257298   4.230   1.020  13.441
51801SOL     OW57299   4.637   9.955   2.513
51801SOL    HW157300   4.601   9.882   2.564
51801SOL    HW257301   4.719   9.921   2.479
51802SOL     OW57302   6.798  14.080   8.557
51802SOL    HW157303   6.893  14.091   8.545
51802SOL    HW257304   6.783  14.104   8.648
51803SOL     OW57305   8.213   8.490  10.414
51803SOL    HW157306   8.274   8.416  10.412
51803SOL    HW257307   8.129   8.452  10.388
51804SOL     OW57308   6.709   5.303  14.238
51804SOL    HW157309   6.680   5.322  14.149
51804SOL    HW257310   6.708   5.208  14.244
51805SOL     OW57311   2.650   9.362   4.867
51805SOL    HW157312   2.720   9.339   4.806
51805SOL    HW257313   2.642   9.287   4.925
51806SOL     OW57314  13.775   6.733   2.119
51806SOL    HW157315  13.805   6.684   2.196
51806SOL    HW257316  13.681   6.742   2.132
51807SOL     OW57317  12.402  13.186   4.108
51807SOL    HW157318  12.319  13.179   4.157
51807SOL    HW257319  12.440  13.099   4.114
51808SOL     OW57320   5.960   2.358   8.994
51808SOL    HW157321   5.973   2.402   9.078
51808SOL    HW257322   6.021   2.284   8.996
51809SOL     OW57323  13.733   3.140   3.255
51809SOL    HW157324  13.782   3.074   3.304
51809SOL    HW257325  13.648   3.100   3.238
51810SOL     OW57326   8.345   4.792  13.328
51810SOL    HW157327   8.309   4.779  13.240
51810SOL    HW257328   8.396   4.712  13.345
51811SOL     OW57329   8.770   9.752   0.873
51811SOL    HW157330   8.757   9.840   0.838
51811SOL    HW257331   8.780   9.765   0.968
51812SOL     OW57332   5.126   8.146  11.671
51812SOL    HW157333   5.111   8.217  11.734
51812SOL    HW257334   5.162   8.075  11.724
51813SOL     OW57335   9.772   6.427  11.796
51813SOL    HW157336   9.835   6.355  11.804
51813SOL    HW257337   9.822   6.506  11.814
51814SOL     OW57338  10.057   4.922   7.540
51814SOL    HW157339  10.026   4.928   7.450
51814SOL    HW257340  10.126   4.855   7.537
51815SOL     OW57341  12.994  14.359   6.190
51815SOL    HW157342  12.979  14.285   6.130
51815SOL    HW257343  13.076  14.398   6.160
51816SOL     OW57344   4.870   2.004  13.885
51816SOL    HW157345   4.803   2.011  13.817
51816SOL    HW257346   4.950   2.035  13.843
51817SOL     OW57347   4.276   7.994   5.902
51817SOL    HW157348   4.360   7.960   5.933
51817SOL    HW257349   4.261   8.072   5.955
51818SOL     OW57350   1.285  11.442   4.349
51818SOL    HW157351   1.273  11.517   4.408
51818SOL    HW257352   1.267  11.366   4.404
51819SOL     OW57353   1.014   3.897   9.859
51819SOL    HW157354   0.969   3.828   9.907
51819SOL    HW257355   0.979   3.978   9.894
51820SOL     OW57356  11.441   3.684  14.604
51820SOL    HW157357  11.346   3.697  14.594
51820SOL    HW257358  11.474   3.683  14.514
51821SOL     OW57359  11.945  12.984   8.492
51821SOL    HW157360  11.996  13.031   8.426
51821SOL    HW257361  11.916  12.905   8.446
51822SOL     OW57362   2.359  13.797   8.302
51822SOL    HW157363   2.442  13.774   8.260
51822SOL    HW257364   2.381  13.867   8.363
51823SOL     OW57365   8.653  12.800   2.248
51823SOL    HW157366   8.662  12.872   2.185
51823SOL    HW257367   8.562  12.807   2.279
51824SOL     OW57368   8.017   4.728   1.430
51824SOL    HW157369   7.928   4.742   1.463
51824SOL    HW257370   8.072   4.724   1.509
51825SOL     OW57371   7.895   7.200   0.531
51825SOL    HW157372   7.896   7.166   0.620
51825SOL    HW257373   7.967   7.155   0.487
51826SOL     OW57374  11.270   2.897   5.066
51826SOL    HW157375  11.212   2.894   5.142
51826SOL    HW257376  11.256   2.984   5.029
51827SOL     OW57377  11.520   5.840   4.746
51827SOL    HW157378  11.494   5.928   4.718
51827SOL    HW257379  11.437   5.795   4.762
51828SOL     OW57380   7.709   1.038  11.462
51828SOL    HW157381   7.792   0.994  11.480
51828SOL    HW257382   7.715   1.121  11.508
51829SOL     OW57383   3.195   7.260   6.043
51829SOL    HW157384   3.127   7.198   6.069
51829SOL    HW257385   3.277   7.217   6.063
51830SOL     OW57386   9.444  11.689  12.480
51830SOL    HW157387   9.450  11.659  12.389
51830SOL    HW257388   9.401  11.774  12.475
51831SOL     OW57389   5.408   3.354   6.553
51831SOL    HW157390   5.373   3.439   6.580
51831SOL    HW257391   5.485   3.375   6.501
51832SOL     OW57392   8.260  12.918   4.993
51832SOL    HW157393   8.229  12.999   5.032
51832SOL    HW257394   8.350  12.937   4.966
51833SOL     OW57395   9.880  12.585   4.985
51833SOL    HW157396   9.810  12.551   4.929
51833SOL    HW257397   9.927  12.507   5.015
51834SOL     OW57398   3.308  10.308   4.213
51834SOL    HW157399   3.380  10.255   4.179
51834SOL    HW257400   3.229  10.266   4.178
51835SOL     OW57401  10.664  12.510   9.463
51835SOL    HW157402  10.741  12.554   9.500
51835SOL    HW257403  10.675  12.418   9.488
51836SOL     OW57404   1.528   2.159   2.283
51836SOL    HW157405   1.567   2.075   2.306
51836SOL    HW257406   1.512   2.202   2.368
51837SOL     OW57407   4.875   8.222   3.368
51837SOL    HW157408   4.876   8.278   3.291
51837SOL    HW257409   4.940   8.261   3.427
51838SOL     OW57410  13.960   2.250   8.230
51838SOL    HW157411  14.013   2.217   8.303
51838SOL    HW257412  13.869   2.240   8.259
51839SOL     OW57413   1.692   1.793   0.718
51839SOL    HW157414   1.755   1.861   0.696
51839SOL    HW257415   1.628   1.836   0.775
51840SOL     OW57416  13.864  14.375  13.267
51840SOL    HW157417  13.888  14.295  13.313
51840SOL    HW257418  13.931  14.438  13.292
51841SOL     OW57419   0.180  13.133  12.264
51841SOL    HW157420   0.187  13.213  12.317
51841SOL    HW257421   0.133  13.072  12.319
51842SOL     OW57422  12.672   3.189   0.733
51842SOL    HW157423  12.716   3.218   0.653
51842SOL    HW257424  12.744   3.179   0.796
51843SOL     OW57425  10.577   8.447   6.898
51843SOL    HW157426  10.594   8.483   6.811
51843SOL    HW257427  10.506   8.384   6.884
51844SOL     OW57428   7.414   4.211   2.242
51844SOL    HW157429   7.426   4.119   2.217
51844SOL    HW257430   7.325   4.232   2.212
51845SOL     OW57431  10.870  13.530   4.241
51845SOL    HW157432  10.831  13.486   4.317
51845SOL    HW257433  10.835  13.619   4.244
51846SOL     OW57434  14.355   7.292  12.036
51846SOL    HW157435  14.400   7.210  12.016
51846SOL    HW257436  14.372   7.348  11.961
51847SOL     OW57437   4.567  13.262   9.257
51847SOL    HW157438   4.554  13.346   9.212
51847SOL    HW257439   4.485  13.249   9.306
51848SOL     OW57440   0.788   4.205   6.875
51848SOL    HW157441   0.874   4.162   6.872
51848SOL    HW257442   0.727   4.135   6.896
51849SOL     OW57443   9.142   7.294  13.557
51849SOL    HW157444   9.144   7.269  13.649
51849SOL    HW257445   9.048   7.303  13.536
51850SOL     OW57446  10.009  14.628  10.989
51850SOL    HW157447   9.939  14.654  11.048
51850SOL    HW257448  10.041  14.710  10.952
51851SOL     OW57449  13.351  11.747  11.449
51851SOL    HW157450  13.370  11.839  11.428
51851SOL    HW257451  13.257  11.745  11.466
51852SOL     OW57452   0.203   2.811   1.134
51852SOL    HW157453   0.297   2.796   1.140
51852SOL    HW257454   0.192   2.855   1.049
51853SOL     OW57455   8.592   8.114   7.444
51853SOL    HW157456   8.636   8.052   7.502
51853SOL    HW257457   8.518   8.147   7.495
51854SOL     OW57458   5.275   9.469  13.646
51854SOL    HW157459   5.247   9.483  13.736
51854SOL    HW257460   5.353   9.524  13.636
51855SOL     OW57461   5.014  10.294  10.993
51855SOL    HW157462   4.994  10.204  10.968
51855SOL    HW257463   5.027  10.340  10.910
51856SOL     OW57464  14.097  10.300   3.498
51856SOL    HW157465  14.070  10.322   3.409
51856SOL    HW257466  14.178  10.250   3.488
51857SOL     OW57467   3.994   1.332   0.949
51857SOL    HW157468   3.992   1.325   0.854
51857SOL    HW257469   4.021   1.423   0.965
51858SOL     OW57470  14.747  12.273   6.531
51858SOL    HW157471  14.792  12.189   6.543
51858SOL    HW257472  14.697  12.261   6.450
51859SOL     OW57473  10.831   5.363   5.760
51859SOL    HW157474  10.838   5.453   5.729
51859SOL    HW257475  10.771   5.321   5.698
51860SOL     OW57476  13.849   8.785  10.242
51860SOL    HW157477  13.758   8.793  10.213
51860SOL    HW257478  13.843   8.746  10.329
51861SOL     OW57479   0.804   1.496   2.738
51861SOL    HW157480   0.789   1.544   2.819
51861SOL    HW257481   0.815   1.565   2.672
51862SOL     OW57482   5.111   7.852  14.666
51862SOL    HW157483   5.112   7.819  14.576
51862SOL    HW257484   5.159   7.935  14.662
51863SOL     OW57485   3.195   9.345  10.851
51863SOL    HW157486   3.192   9.434  10.886
51863SOL    HW257487   3.247   9.352  10.771
51864SOL     OW57488   0.167   3.853   9.623
51864SOL    HW157489   0.076   3.880   9.628
51864SOL    HW257490   0.217   3.932   9.646
51865SOL     OW57491   0.645  14.517   9.008
51865SOL    HW157492   0.617  14.428   8.989
51865SOL    HW257493   0.599  14.541   9.088
51866SOL     OW57494   3.036  10.821   6.012
51866SOL    HW157495   2.946  10.852   6.021
51866SOL    HW257496   3.027  10.733   5.976
51867SOL     OW57497   9.138   1.151   8.643
51867SOL    HW157498   9.084   1.074   8.661
51867SOL    HW257499   9.120   1.172   8.552
51868SOL     OW57500   1.326   6.435   1.258
51868SOL    HW157501   1.258   6.387   1.210
51868SOL    HW257502   1.287   6.453   1.343
51869SOL     OW57503  14.199  14.666   5.720
51869SOL    HW157504  14.243  14.737   5.766
51869SOL    HW257505  14.159  14.613   5.789
51870SOL     OW57506  10.073  13.709  11.465
51870SOL    HW157507  10.123  13.634  11.434
51870SOL    HW257508  10.128  13.785  11.445
51871SOL     OW57509   4.709   3.232  12.609
51871SOL    HW157510   4.641   3.271  12.664
51871SOL    HW257511   4.660   3.182  12.543
51872SOL     OW57512   8.585  10.566   9.096
51872SOL    HW157513   8.641  10.512   9.152
51872SOL    HW257514   8.612  10.656   9.115
51873SOL     OW57515   1.782   1.549  11.708
51873SOL    HW157516   1.805   1.502  11.627
51873SOL    HW257517   1.854   1.528  11.768
51874SOL     OW57518  14.109   6.371   1.102
51874SOL    HW157519  14.029   6.406   1.062
51874SOL    HW257520  14.173   6.441   1.091
51875SOL     OW57521   6.683   4.674   7.186
51875SOL    HW157522   6.692   4.597   7.131
51875SOL    HW257523   6.663   4.745   7.126
51876SOL     OW57524   3.664  10.517  13.346
51876SOL    HW157525   3.710  10.538  13.265
51876SOL    HW257526   3.727  10.538  13.415
51877SOL     OW57527   8.406  10.956  11.417
51877SOL    HW157528   8.379  10.881  11.365
51877SOL    HW257529   8.344  11.025  11.394
51878SOL     OW57530   5.528   6.035  12.294
51878SOL    HW157531   5.474   6.058  12.370
51878SOL    HW257532   5.465   6.006  12.228
51879SOL     OW57533   0.606   5.405  13.707
51879SOL    HW157534   0.623   5.480  13.764
51879SOL    HW257535   0.655   5.333  13.747
51880SOL     OW57536  12.680   4.448   1.338
51880SOL    HW157537  12.697   4.532   1.380
51880SOL    HW257538  12.680   4.467   1.244
51881SOL     OW57539  10.285   5.559  12.320
51881SOL    HW157540  10.218   5.579  12.255
51881SOL    HW257541  10.348   5.631  12.312
51882SOL     OW57542  10.174   2.680   8.043
51882SOL    HW157543  10.243   2.654   8.104
51882SOL    HW257544  10.104   2.616   8.059
51883SOL     OW57545   0.275  10.132   4.480
51883SOL    HW157546   0.304  10.121   4.570
51883SOL    HW257547   0.353  10.161   4.432
51884SOL     OW57548   1.919   9.141  11.984
51884SOL    HW157549   1.899   9.211  11.922
51884SOL    HW257550   1.966   9.075  11.933
51885SOL     OW57551  11.687   8.280  14.076
51885SOL    HW157552  11.757   8.317  14.021
51885SOL    HW257553  11.649   8.356  14.120
51886SOL     OW57554  11.442  11.462   2.368
51886SOL    HW157555  11.430  11.546   2.324
51886SOL    HW257556  11.447  11.398   2.296
51887SOL     OW57557   3.373   2.592  13.092
51887SOL    HW157558   3.348   2.519  13.035
51887SOL    HW257559   3.291   2.617  13.135
51888SOL     OW57560  11.792   8.530   6.876
51888SOL    HW157561  11.827   8.457   6.824
51888SOL    HW257562  11.858   8.600   6.866
51889SOL     OW57563  12.143   1.527  10.137
51889SOL    HW157564  12.195   1.606  10.118
51889SOL    HW257565  12.093   1.550  10.215
51890SOL     OW57566   4.281   5.625   2.476
51890SOL    HW157567   4.342   5.558   2.444
51890SOL    HW257568   4.313   5.707   2.439
51891SOL     OW57569  11.230   0.342   1.033
51891SOL    HW157570  11.149   0.337   1.084
51891SOL    HW257571  11.201   0.346   0.942
51892SOL     OW57572   1.521   6.269   8.007
51892SOL    HW157573   1.463   6.285   8.082
51892SOL    HW257574   1.587   6.209   8.040
51893SOL     OW57575  11.653   6.568   2.640
51893SOL    HW157576  11.679   6.647   2.591
51893SOL    HW257577  11.713   6.500   2.608
51894SOL     OW57578   0.959  12.627  14.380
51894SOL    HW157579   0.880  12.678  14.394
51894SOL    HW257580   0.928  12.538  14.361
51895SOL     OW57581  10.644  14.578   4.316
51895SOL    HW157582  10.621  14.655   4.264
51895SOL    HW257583  10.655  14.612   4.405
51896SOL     OW57584   9.751  12.801   4.196
51896SOL    HW157585   9.829  12.854   4.212
51896SOL    HW257586   9.687  12.834   4.258
51897SOL     OW57587   5.821   4.304  13.543
51897SOL    HW157588   5.798   4.211  13.536
51897SOL    HW257589   5.754   4.340  13.602
51898SOL     OW57590  11.334   6.212   1.592
51898SOL    HW157591  11.262   6.265   1.625
51898SOL    HW257592  11.403   6.275   1.570
51899SOL     OW57593   3.699  11.976   4.138
51899SOL    HW157594   3.685  12.047   4.075
51899SOL    HW257595   3.760  12.012   4.202
51900SOL     OW57596   3.875   0.712   6.527
51900SOL    HW157597   3.953   0.674   6.567
51900SOL    HW257598   3.821   0.740   6.601
51901SOL     OW57599  14.158   7.212   6.397
51901SOL    HW157600  14.104   7.288   6.374
51901SOL    HW257601  14.248   7.245   6.391
51902SOL     OW57602   4.819  11.554   5.941
51902SOL    HW157603   4.852  11.622   5.882
51902SOL    HW257604   4.724  11.558   5.932
51903SOL     OW57605  11.841   7.024   2.859
51903SOL    HW157606  11.878   6.948   2.813
51903SOL    HW257607  11.897   7.097   2.834
51904SOL     OW57608   0.309   8.289   9.426
51904SOL    HW157609   0.278   8.214   9.376
51904SOL    HW257610   0.255   8.362   9.394
51905SOL     OW57611  12.149  14.292   4.064
51905SOL    HW157612  12.202  14.321   4.138
51905SOL    HW257613  12.162  14.359   3.997
51906SOL     OW57614   5.597   7.610   9.584
51906SOL    HW157615   5.539   7.681   9.556
51906SOL    HW257616   5.539   7.534   9.593
51907SOL     OW57617  12.222  14.714  11.203
51907SOL    HW157618  12.255  14.710  11.293
51907SOL    HW257619  12.211  14.622  11.178
51908SOL     OW57620   9.298   1.765  10.791
51908SOL    HW157621   9.272   1.852  10.762
51908SOL    HW257622   9.260   1.706  10.726
51909SOL     OW57623   3.994  10.578  12.345
51909SOL    HW157624   4.015  10.541  12.431
51909SOL    HW257625   4.029  10.515  12.282
51910SOL     OW57626   4.535   8.462   4.883
51910SOL    HW157627   4.590   8.440   4.958
51910SOL    HW257628   4.592   8.450   4.807
51911SOL     OW57629   5.610   5.476  13.957
51911SOL    HW157630   5.638   5.564  13.933
51911SOL    HW257631   5.522   5.468  13.919
51912SOL     OW57632   7.638   6.814   5.249
51912SOL    HW157633   7.712   6.819   5.187
51912SOL    HW257634   7.612   6.722   5.246
51913SOL     OW57635   7.773   2.506   4.204
51913SOL    HW157636   7.747   2.592   4.237
51913SOL    HW257637   7.819   2.465   4.278
51914SOL     OW57638   5.969  14.870   4.760
51914SOL    HW157639   5.890   0.040   4.780
51914SOL    HW257640   6.031   0.014   4.829
51915SOL     OW57641   7.835  10.136  13.073
51915SOL    HW157642   7.896  10.155  13.003
51915SOL    HW257643   7.772  10.075  13.035
51916SOL     OW57644   0.983   1.443  12.975
51916SOL    HW157645   0.952   1.438  12.884
51916SOL    HW257646   1.053   1.378  12.979
51917SOL     OW57647  14.604  14.289  14.006
51917SOL    HW157648  14.674  14.337  14.050
51917SOL    HW257649  14.548  14.357  13.969
51918SOL     OW57650   3.623  14.588  10.729
51918SOL    HW157651   3.699  14.580  10.671
51918SOL    HW257652   3.631  14.677  10.766
51919SOL     OW57653   3.620  12.817  10.884
51919SOL    HW157654   3.673  12.782  10.957
51919SOL    HW257655   3.641  12.910  10.882
51920SOL     OW57656   7.571  10.673   2.934
51920SOL    HW157657   7.632  10.642   3.001
51920SOL    HW257658   7.595  10.764   2.920
51921SOL     OW57659   1.739  14.151  10.478
51921SOL    HW157660   1.709  14.060  10.479
51921SOL    HW257661   1.777  14.165  10.565
51922SOL     OW57662  10.865  12.344  12.377
51922SOL    HW157663  10.950  12.380  12.355
51922SOL    HW257664  10.857  12.266  12.323
51923SOL     OW57665   2.541  13.725   5.197
51923SOL    HW157666   2.627  13.726   5.240
51923SOL    HW257667   2.536  13.810   5.152
51924SOL     OW57668   7.433   7.680   6.853
51924SOL    HW157669   7.391   7.606   6.809
51924SOL    HW257670   7.370   7.706   6.921
51925SOL     OW57671   6.069  10.573   0.089
51925SOL    HW157672   6.095  10.572   0.181
51925SOL    HW257673   5.981  10.535   0.088
51926SOL     OW57674   5.327   5.459  10.148
51926SOL    HW157675   5.275   5.535  10.173
51926SOL    HW257676   5.412   5.472  10.191
51927SOL     OW57677   7.722   0.806   4.291
51927SOL    HW157678   7.781   0.731   4.298
51927SOL    HW257679   7.666   0.784   4.217
51928SOL     OW57680   3.747  11.650   8.129
51928SOL    HW157681   3.700  11.568   8.143
51928SOL    HW257682   3.831  11.638   8.173
51929SOL     OW57683  14.620  12.328  13.104
51929SOL    HW157684  14.644  12.388  13.174
51929SOL    HW257685  14.670  12.358  13.028
51930SOL     OW57686   3.838  11.750   3.997
51930SOL    HW157687   3.898  11.756   4.071
51930SOL    HW257688   3.779  11.825   4.007
51931SOL     OW57689   2.647   7.657   8.305
51931SOL    HW157690   2.627   7.656   8.212
51931SOL    HW257691   2.611   7.575   8.339
51932SOL     OW57692   7.665   9.127   5.604
51932SOL    HW157693   7.708   9.134   5.519
51932SOL    HW257694   7.737   9.135   5.667
51933SOL     OW57695  11.263   6.014   8.591
51933SOL    HW157696  11.174   6.008   8.627
51933SOL    HW257697  11.297   5.925   8.600
51934SOL     OW57698   0.527   4.347   7.234
51934SOL    HW157699   0.611   4.326   7.274
51934SOL    HW257700   0.484   4.262   7.223
51935SOL     OW57701  14.321   7.736   8.831
51935SOL    HW157702  14.340   7.642   8.826
51935SOL    HW257703  14.230   7.740   8.860
51936SOL     OW57704   4.103   8.227   2.564
51936SOL    HW157705   4.065   8.254   2.647
51936SOL    HW257706   4.116   8.132   2.574
51937SOL     OW57707  10.153   1.040   1.114
51937SOL    HW157708  10.111   1.049   1.029
51937SOL    HW257709  10.154   0.946   1.131
51938SOL     OW57710   8.225   6.923  10.259
51938SOL    HW157711   8.169   6.985  10.306
51938SOL    HW257712   8.256   6.973  10.183
51939SOL     OW57713  14.248  10.312   3.791
51939SOL    HW157714  14.183  10.260   3.743
51939SOL    HW257715  14.325  10.313   3.734
51940SOL     OW57716   9.992   1.548   2.948
51940SOL    HW157717  10.027   1.463   2.921
51940SOL    HW257718  10.034   1.566   3.032
51941SOL     OW57719   8.339  11.390   2.214
51941SOL    HW157720   8.394  11.345   2.279
51941SOL    HW257721   8.294  11.319   2.169
51942SOL     OW57722   9.456   9.692   7.974
51942SOL    HW157723   9.491   9.747   7.904
51942SOL    HW257724   9.529   9.635   7.999
51943SOL     OW57725  12.257   7.372   5.303
51943SOL    HW157726  12.311   7.303   5.266
51943SOL    HW257727  12.289   7.452   5.262
51944SOL     OW57728   5.387   8.523  14.705
51944SOL    HW157729   5.302   8.483  14.725
51944SOL    HW257730   5.414   8.480  14.624
51945SOL     OW57731   9.771   3.356   5.580
51945SOL    HW157732   9.733   3.438   5.547
51945SOL    HW257733   9.854   3.383   5.619
51946SOL     OW57734   9.380   9.682   9.368
51946SOL    HW157735   9.415   9.611   9.313
51946SOL    HW257736   9.347   9.637   9.446
51947SOL     OW57737   8.475  12.338  13.555
51947SOL    HW157738   8.448  12.261  13.504
51947SOL    HW257739   8.412  12.341  13.627
51948SOL     OW57740   9.643  12.101   1.674
51948SOL    HW157741   9.585  12.146   1.611
51948SOL    HW257742   9.711  12.166   1.694
51949SOL     OW57743  13.737   6.993   5.770
51949SOL    HW157744  13.677   7.041   5.713
51949SOL    HW257745  13.751   6.910   5.727
51950SOL     OW57746   9.768   8.756   2.299
51950SOL    HW157747   9.714   8.679   2.280
51950SOL    HW257748   9.780   8.755   2.394
51951SOL     OW57749   4.043  13.583   7.220
51951SOL    HW157750   4.013  13.660   7.171
51951SOL    HW257751   4.134  13.602   7.241
51952SOL     OW57752  10.038  12.717   6.128
51952SOL    HW157753  10.022  12.740   6.219
51952SOL    HW257754  10.067  12.799   6.087
51953SOL     OW57755   3.228  10.552   5.704
51953SOL    HW157756   3.308  10.603   5.714
51953SOL    HW257757   3.165  10.595   5.763
51954SOL     OW57758  11.077  10.936  10.139
51954SOL    HW157759  11.010  10.868  10.130
51954SOL    HW257760  11.082  10.953  10.233
51955SOL     OW57761   9.314   7.535   3.022
51955SOL    HW157762   9.293   7.611   3.076
51955SOL    HW257763   9.304   7.460   3.080
51956SOL     OW57764   2.969   8.533   1.253
51956SOL    HW157765   2.937   8.453   1.295
51956SOL    HW257766   3.063   8.518   1.242
51957SOL     OW57767   9.009  11.706   5.913
51957SOL    HW157768   8.995  11.614   5.889
51957SOL    HW257769   9.012  11.706   6.008
51958SOL     OW57770   4.842   1.807   7.014
51958SOL    HW157771   4.851   1.815   7.109
51958SOL    HW257772   4.924   1.843   6.980
51959SOL     OW57773  10.404   6.927   2.988
51959SOL    HW157774  10.396   6.938   2.893
51959SOL    HW257775  10.476   6.985   3.013
51960SOL     OW57776   1.386  13.031   9.685
51960SOL    HW157777   1.294  13.041   9.662
51960SOL    HW257778   1.411  13.117   9.719
51961SOL     OW57779  13.511   6.990   3.440
51961SOL    HW157780  13.584   6.971   3.381
51961SOL    HW257781  13.469   6.906   3.455
51962SOL     OW57782   8.142   7.297   2.876
51962SOL    HW157783   8.177   7.285   2.788
51962SOL    HW257784   8.129   7.391   2.884
51963SOL     OW57785   0.118   6.411  13.900
51963SOL    HW157786   0.184   6.342  13.905
51963SOL    HW257787   0.076   6.398  13.815
51964SOL     OW57788   1.233   9.633   9.284
51964SOL    HW157789   1.274   9.673   9.360
51964SOL    HW257790   1.295   9.565   9.256
51965SOL     OW57791   6.953  12.854  14.271
51965SOL    HW157792   6.961  12.831  14.179
51965SOL    HW257793   6.924  12.773  14.314
51966SOL     OW57794   8.250   1.500   6.460
51966SOL    HW157795   8.252   1.424   6.518
51966SOL    HW257796   8.294   1.569   6.509
51967SOL     OW57797   6.964   2.407   6.189
51967SOL    HW157798   6.997   2.453   6.266
51967SOL    HW257799   6.977   2.469   6.117
51968SOL     OW57800   2.487  11.539  12.499
51968SOL    HW157801   2.516  11.451  12.527
51968SOL    HW257802   2.421  11.564  12.564
51969SOL     OW57803   0.106  14.229   9.398
51969SOL    HW157804   0.053  14.268   9.328
51969SOL    HW257805   0.042  14.190   9.458
51970SOL     OW57806   1.554  12.656  12.018
51970SOL    HW157807   1.612  12.613  12.081
51970SOL    HW257808   1.476  12.679  12.068
51971SOL     OW57809   6.350  14.297   4.885
51971SOL    HW157810   6.291  14.373   4.884
51971SOL    HW257811   6.306  14.232   4.829
51972SOL     OW57812   5.935   0.494   1.550
51972SOL    HW157813   6.009   0.502   1.491
51972SOL    HW257814   5.961   0.543   1.628
51973SOL     OW57815   9.426   3.134  11.422
51973SOL    HW157816   9.487   3.091  11.481
51973SOL    HW257817   9.480   3.159  11.347
51974SOL     OW57818   9.893   2.331   5.229
51974SOL    HW157819   9.955   2.373   5.170
51974SOL    HW257820   9.807   2.352   5.193
51975SOL     OW57821   8.998   0.165   4.348
51975SOL    HW157822   9.013   0.217   4.268
51975SOL    HW257823   9.077   0.112   4.357
51976SOL     OW57824   1.527   3.506   2.844
51976SOL    HW157825   1.527   3.592   2.803
51976SOL    HW257826   1.529   3.524   2.938
51977SOL     OW57827   9.809   3.761   7.036
51977SOL    HW157828   9.747   3.691   7.056
51977SOL    HW257829   9.788   3.787   6.946
51978SOL     OW57830   2.906   6.807   3.590
51978SOL    HW157831   2.817   6.836   3.566
51978SOL    HW257832   2.922   6.731   3.535
51979SOL     OW57833   5.537   5.704   7.000
51979SOL    HW157834   5.531   5.656   7.082
51979SOL    HW257835   5.620   5.752   7.006
51980SOL     OW57836   3.076  11.812   9.782
51980SOL    HW157837   3.064  11.901   9.748
51980SOL    HW257838   3.070  11.756   9.705
51981SOL     OW57839  14.429   6.210  11.317
51981SOL    HW157840  14.412   6.186  11.408
51981SOL    HW257841  14.444   6.305  11.319
51982SOL     OW57842   3.639   3.011  10.781
51982SOL    HW157843   3.652   2.919  10.757
51982SOL    HW257844   3.544   3.020  10.788
51983SOL     OW57845   6.453   8.041   8.524
51983SOL    HW157846   6.505   8.083   8.593
51983SOL    HW257847   6.437   7.953   8.556
51984SOL     OW57848  10.044  11.941   7.286
51984SOL    HW157849   9.967  11.885   7.276
51984SOL    HW257850  10.032  12.010   7.222
51985SOL     OW57851   5.992   1.077  10.104
51985SOL    HW157852   5.983   1.170  10.084
51985SOL    HW257853   5.947   1.066  10.188
51986SOL     OW57854  11.680   4.502  11.374
51986SOL    HW157855  11.639   4.431  11.325
51986SOL    HW257856  11.630   4.507  11.455
51987SOL     OW57857   7.181  14.819   4.669
51987SOL    HW157858   7.126  14.853   4.598
51987SOL    HW257859   7.235  14.751   4.627
51988SOL     OW57860   2.830   3.536  13.336
51988SOL    HW157861   2.784   3.462  13.296
51988SOL    HW257862   2.882   3.497  13.406
51989SOL     OW57863  13.512   2.412   2.913
51989SOL    HW157864  13.587   2.469   2.896
51989SOL    HW257865  13.447   2.438   2.848
51990SOL     OW57866   1.611   6.928   7.615
51990SOL    HW157867   1.694   6.884   7.596
51990SOL    HW257868   1.583   6.892   7.699
51991SOL     OW57869   5.620   3.387   4.566
51991SOL    HW157870   5.708   3.375   4.601
51991SOL    HW257871   5.615   3.329   4.491
51992SOL     OW57872   3.829   3.063  14.816
51992SOL    HW157873   3.866   2.975  14.807
51992SOL    HW257874   3.891   3.110  14.871
51993SOL     OW57875   4.417  11.655   9.711
51993SOL    HW157876   4.435  11.607   9.630
51993SOL    HW257877   4.330  11.691   9.699
51994SOL     OW57878   2.346   5.811   3.375
51994SOL    HW157879   2.363   5.719   3.394
51994SOL    HW257880   2.427   5.842   3.334
51995SOL     OW57881   3.230   2.782   2.801
51995SOL    HW157882   3.217   2.697   2.844
51995SOL    HW257883   3.253   2.841   2.873
51996SOL     OW57884   5.821   7.336   0.320
51996SOL    HW157885   5.888   7.392   0.280
51996SOL    HW257886   5.836   7.346   0.414
51997SOL     OW57887  14.423   7.317  13.464
51997SOL    HW157888  14.369   7.299  13.541
51997SOL    HW257889  14.510   7.288  13.488
51998SOL     OW57890   1.023   9.115  11.896
51998SOL    HW157891   1.080   9.106  11.972
51998SOL    HW257892   0.944   9.066  11.920
51999SOL     OW57893   9.060  10.299   1.276
51999SOL    HW157894   9.058  10.338   1.189
51999SOL    HW257895   9.151  10.305   1.304
52000SOL     OW57896   6.208   0.055  14.654
52000SOL    HW157897   6.293   0.090  14.679
52000SOL    HW257898   6.168   0.125  14.602
52001SOL     OW57899  12.179  11.962   9.678
52001SOL    HW157900  12.093  11.967   9.635
52001SOL    HW257901  12.174  11.884   9.733
52002SOL     OW57902   5.077   9.401   4.354
52002SOL    HW157903   5.116   9.328   4.402
52002SOL    HW257904   5.091   9.379   4.262
52003SOL     OW57905   9.150   5.596   6.135
52003SOL    HW157906   9.160   5.606   6.041
52003SOL    HW257907   9.238   5.615   6.170
52004SOL     OW57908   4.823  11.297  10.315
52004SOL    HW157909   4.744  11.290  10.261
52004SOL    HW257910   4.895  11.285  10.253
52005SOL     OW57911   3.050   9.197   2.628
52005SOL    HW157912   2.992   9.140   2.577
52005SOL    HW257913   3.020   9.187   2.718
52006SOL     OW57914   8.949  11.849   6.771
52006SOL    HW157915   9.043  11.866   6.779
52006SOL    HW257916   8.909  11.935   6.762
52007SOL     OW57917   1.272  13.407   2.326
52007SOL    HW157918   1.329  13.385   2.400
52007SOL    HW257919   1.209  13.335   2.322
52008SOL     OW57920  11.953  10.371   5.400
52008SOL    HW157921  11.893  10.401   5.469
52008SOL    HW257922  12.024  10.327   5.448
52009SOL     OW57923   3.227  10.333   9.670
52009SOL    HW157924   3.159  10.388   9.710
52009SOL    HW257925   3.300  10.393   9.654
52010SOL     OW57926  10.766  10.619   9.250
52010SOL    HW157927  10.829  10.554   9.218
52010SOL    HW257928  10.713  10.641   9.174
52011SOL     OW57929   5.728   2.339  13.936
52011SOL    HW157930   5.652   2.314  13.989
52011SOL    HW257931   5.746   2.429  13.961
52012SOL     OW57932   9.139   6.257   1.300
52012SOL    HW157933   9.147   6.292   1.388
52012SOL    HW257934   9.095   6.172   1.312
52013SOL     OW57935  12.793   8.397  14.118
52013SOL    HW157936  12.751   8.360  14.195
52013SOL    HW257937  12.731   8.464  14.087
52014SOL     OW57938   9.141  11.930   1.597
52014SOL    HW157939   9.180  11.941   1.684
52014SOL    HW257940   9.210  11.891   1.544
52015SOL     OW57941  14.728   2.930   4.218
52015SOL    HW157942  14.697   2.946   4.129
52015SOL    HW257943  14.822   2.947   4.213
52016SOL     OW57944   5.221   0.393   0.170
52016SOL    HW157945   5.151   0.413   0.107
52016SOL    HW257946   5.188   0.424   0.254
52017SOL     OW57947  13.118  11.199   4.828
52017SOL    HW157948  13.083  11.131   4.771
52017SOL    HW257949  13.175  11.153   4.889
52018SOL     OW57950   4.655   3.076   7.910
52018SOL    HW157951   4.646   3.116   7.823
52018SOL    HW257952   4.693   2.990   7.893
52019SOL     OW57953   9.932   0.696  14.657
52019SOL    HW157954  10.025   0.721  14.656
52019SOL    HW257955   9.932   0.602  14.671
52020SOL     OW57956  14.141   8.297  13.652
52020SOL    HW157957  14.223   8.303  13.603
52020SOL    HW257958  14.103   8.213  13.627
52021SOL     OW57959   0.258  12.708   4.128
52021SOL    HW157960   0.206  12.637   4.166
52021SOL    HW257961   0.336  12.664   4.094
52022SOL     OW57962   9.666  12.783   5.882
52022SOL    HW157963   9.665  12.736   5.799
52022SOL    HW257964   9.709  12.723   5.943
52023SOL     OW57965   0.292   8.682   8.398
52023SOL    HW157966   0.316   8.763   8.352
52023SOL    HW257967   0.354   8.617   8.366
52024SOL     OW57968   6.228  12.502   8.747
52024SOL    HW157969   6.205  12.453   8.826
52024SOL    HW257970   6.154  12.488   8.687
52025SOL     OW57971   5.332  11.760  10.150
52025SOL    HW157972   5.311  11.767  10.243
52025SOL    HW257973   5.259  11.709  10.113
52026SOL     OW57974  14.648   2.907  14.253
52026SOL    HW157975  14.736   2.921  14.289
52026SOL    HW257976  14.592   2.964  14.307
52027SOL     OW57977   1.238  13.061   7.980
52027SOL    HW157978   1.323  13.016   7.974
52027SOL    HW257979   1.174  12.995   7.954
52028SOL     OW57980   8.881   9.069   2.897
52028SOL    HW157981   8.853   9.125   2.969
52028SOL    HW257982   8.973   9.090   2.884
52029SOL     OW57983   9.272  13.495  12.945
52029SOL    HW157984   9.210  13.427  12.972
52029SOL    HW257985   9.335  13.501  13.016
52030SOL     OW57986   2.704   8.507  13.935
52030SOL    HW157987   2.794   8.501  13.966
52030SOL    HW257988   2.671   8.417  13.940
52031SOL     OW57989  10.884  13.634   2.011
52031SOL    HW157990  10.914  13.657   2.099
52031SOL    HW257991  10.788  13.641   2.016
52032SOL     OW57992  11.488   5.890   7.032
52032SOL    HW157993  11.503   5.804   6.993
52032SOL    HW257994  11.525   5.952   6.969
52033SOL     OW57995  12.565   4.081  13.133
52033SOL    HW157996  12.604   4.152  13.083
52033SOL    HW257997  12.489   4.121  13.175
52034SOL     OW57998   8.014   4.871   4.591
52034SOL    HW157999   8.005   4.786   4.632
52034SOL    HW258000   7.965   4.931   4.647
52035SOL     OW58001   0.828  10.701   0.428
52035SOL    HW158002   0.854  10.652   0.506
52035SOL    HW258003   0.911  10.721   0.384
52036SOL     OW58004  14.381   4.124   8.436
52036SOL    HW158005  14.408   4.178   8.511
52036SOL    HW258006  14.336   4.049   8.476
52037SOL     OW58007   8.365   5.596   7.622
52037SOL    HW158008   8.412   5.513   7.624
52037SOL    HW258009   8.276   5.572   7.596
52038SOL     OW58010  12.331  12.913   8.890
52038SOL    HW158011  12.366  12.960   8.966
52038SOL    HW258012  12.296  12.983   8.834
52039SOL     OW58013   2.184   7.161   9.157
52039SOL    HW158014   2.097   7.201   9.166
52039SOL    HW258015   2.166   7.067   9.146
52040SOL     OW58016   7.610  10.648  11.467
52040SOL    HW158017   7.680  10.647  11.533
52040SOL    HW258018   7.650  10.690  11.391
52041SOL     OW58019  14.728   6.474   6.275
52041SOL    HW158020  14.742   6.383   6.302
52041SOL    HW258021  14.652   6.503   6.325
52042SOL     OW58022  10.599   0.892  12.198
52042SOL    HW158023  10.512   0.918  12.227
52042SOL    HW258024  10.603   0.920  12.107
52043SOL     OW58025   4.157  12.129   4.853
52043SOL    HW158026   4.155  12.035   4.870
52043SOL    HW258027   4.093  12.142   4.783
52044SOL     OW58028   7.353  11.898  11.175
52044SOL    HW158029   7.380  11.898  11.083
52044SOL    HW258030   7.360  11.990  11.202
52045SOL     OW58031   1.523  11.501   0.727
52045SOL    HW158032   1.502  11.425   0.673
52045SOL    HW258033   1.600  11.540   0.685
52046SOL     OW58034  10.245   8.196  13.618
52046SOL    HW158035  10.314   8.135  13.593
52046SOL    HW258036  10.172   8.176  13.560
52047SOL     OW58037   4.950  13.570   3.119
52047SOL    HW158038   4.888  13.499   3.135
52047SOL    HW258039   5.036  13.531   3.137
52048SOL     OW58040  10.445   8.435   9.697
52048SOL    HW158041  10.456   8.377   9.772
52048SOL    HW258042  10.356   8.417   9.666
52049SOL     OW58043   5.023  13.028  13.387
52049SOL    HW158044   5.112  13.030  13.423
52049SOL    HW258045   5.036  13.033  13.292
52050SOL     OW58046   3.020   6.935   4.823
52050SOL    HW158047   3.056   6.906   4.739
52050SOL    HW258048   3.096   6.970   4.870
52051SOL     OW58049   5.017   4.217   5.621
52051SOL    HW158050   5.063   4.266   5.553
52051SOL    HW258051   5.086   4.185   5.679
52052SOL     OW58052  11.352   5.861   6.723
52052SOL    HW158053  11.339   5.955   6.716
52052SOL    HW258054  11.270   5.827   6.759
52053SOL     OW58055   1.329   6.669   7.146
52053SOL    HW158056   1.356   6.618   7.222
52053SOL    HW258057   1.368   6.756   7.160
52054SOL     OW58058   8.990   3.746   1.777
52054SOL    HW158059   9.050   3.814   1.808
52054SOL    HW258060   8.948   3.784   1.700
52055SOL     OW58061   3.841   5.611   1.090
52055SOL    HW158062   3.858   5.626   1.183
52055SOL    HW258063   3.747   5.598   1.085
52056SOL     OW58064   3.429   0.238  10.558
52056SOL    HW158065   3.414   0.146  10.583
52056SOL    HW258066   3.369   0.288  10.613
52057SOL     OW58067   5.566   1.202   3.297
52057SOL    HW158068   5.601   1.115   3.314
52057SOL    HW258069   5.508   1.190   3.221
52058SOL     OW58070   5.948   1.414  12.949
52058SOL    HW158071   5.952   1.509  12.962
52058SOL    HW258072   5.994   1.399  12.866
52059SOL     OW58073  12.226  11.188   8.161
52059SOL    HW158074  12.179  11.123   8.108
52059SOL    HW258075  12.207  11.163   8.252
52060SOL     OW58076   4.403  14.813   7.143
52060SOL    HW158077   4.393  14.800   7.049
52060SOL    HW258078   4.493  14.842   7.155
52061SOL     OW58079   9.154   7.215  13.795
52061SOL    HW158080   9.141   7.232  13.889
52061SOL    HW258081   9.246   7.237  13.780
52062SOL     OW58082   7.086  13.636   0.936
52062SOL    HW158083   7.009  13.681   0.901
52062SOL    HW258084   7.077  13.546   0.904
52063SOL     OW58085   4.097   3.496   8.937
52063SOL    HW158086   4.185   3.458   8.926
52063SOL    HW258087   4.051   3.472   8.857
52064SOL     OW58088   4.557   7.889   5.910
52064SOL    HW158089   4.613   7.891   5.832
52064SOL    HW258090   4.517   7.802   5.909
52065SOL     OW58091  11.272   9.486  13.163
52065SOL    HW158092  11.271   9.453  13.253
52065SOL    HW258093  11.290   9.580  13.172
52066SOL     OW58094  11.645   3.713   4.409
52066SOL    HW158095  11.605   3.799   4.426
52066SOL    HW258096  11.570   3.653   4.404
52067SOL     OW58097  13.433   8.689  10.636
52067SOL    HW158098  13.460   8.673  10.545
52067SOL    HW258099  13.347   8.729  10.629
52068SOL     OW58100  11.518  14.518  11.892
52068SOL    HW158101  11.431  14.493  11.924
52068SOL    HW258102  11.546  14.444  11.839
52069SOL     OW58103  10.676   1.831  11.974
52069SOL    HW158104  10.675   1.907  12.032
52069SOL    HW258105  10.594   1.835  11.926
52070SOL     OW58106   8.428   3.044  12.762
52070SOL    HW158107   8.363   3.109  12.788
52070SOL    HW258108   8.466   3.079  12.681
52071SOL     OW58109   4.479   0.072   0.403
52071SOL    HW158110   4.460   0.029   0.486
52071SOL    HW258111   4.443   0.014   0.336
52072SOL     OW58112   9.652   5.018  14.787
52072SOL    HW158113   9.634   4.924  14.790
52072SOL    HW258114   9.725   5.027  14.726
52073SOL     OW58115   4.571  10.977   1.231
52073SOL    HW158116   4.614  11.023   1.302
52073SOL    HW258117   4.483  10.959   1.264
52074SOL     OW58118   7.362   1.446  14.199
52074SOL    HW158119   7.451   1.440  14.167
52074SOL    HW258120   7.371   1.458  14.294
52075SOL     OW58121   8.625  14.693   3.265
52075SOL    HW158122   8.666  14.643   3.335
52075SOL    HW258123   8.643  14.784   3.287
52076SOL     OW58124  13.758   8.628  12.697
52076SOL    HW158125  13.690   8.681  12.656
52076SOL    HW258126  13.807   8.689  12.752
52077SOL     OW58127  14.205   3.249   6.593
52077SOL    HW158128  14.139   3.210   6.535
52077SOL    HW258129  14.156   3.310   6.648
52078SOL     OW58130  10.666  12.814   2.791
52078SOL    HW158131  10.605  12.769   2.849
52078SOL    HW258132  10.751  12.804   2.833
52079SOL     OW58133   3.406   7.783   4.333
52079SOL    HW158134   3.477   7.752   4.389
52079SOL    HW258135   3.342   7.821   4.393
52080SOL     OW58136   2.586   0.973   2.561
52080SOL    HW158137   2.528   0.927   2.500
52080SOL    HW258138   2.668   0.924   2.556
52081SOL     OW58139  12.506  14.205   9.162
52081SOL    HW158140  12.460  14.260   9.224
52081SOL    HW258141  12.598  14.232   9.168
52082SOL     OW58142   2.819   4.346  14.062
52082SOL    HW158143   2.760   4.401  14.114
52082SOL    HW258144   2.808   4.377  13.973
52083SOL     OW58145   4.839   0.584   5.557
52083SOL    HW158146   4.819   0.491   5.545
52083SOL    HW258147   4.789   0.628   5.488
52084SOL     OW58148   0.209   2.023   1.370
52084SOL    HW158149   0.189   2.093   1.432
52084SOL    HW258150   0.173   2.054   1.287
52085SOL     OW58151   0.864   5.331   9.358
52085SOL    HW158152   0.869   5.426   9.346
52085SOL    HW258153   0.943   5.308   9.407
52086SOL     OW58154   7.686   6.123  13.054
52086SOL    HW158155   7.664   6.105  12.962
52086SOL    HW258156   7.752   6.192  13.049
52087SOL     OW58157   0.753   8.169   0.903
52087SOL    HW158158   0.686   8.101   0.898
52087SOL    HW258159   0.829   8.124   0.940
52088SOL     OW58160   0.046  14.084   9.040
52088SOL    HW158161   0.068  14.176   9.057
52088SOL    HW258162   0.126  14.036   9.062
52089SOL     OW58163   7.385  13.127   0.647
52089SOL    HW158164   7.330  13.137   0.569
52089SOL    HW258165   7.447  13.058   0.625
52090SOL     OW58166  11.298   6.202   7.572
52090SOL    HW158167  11.261   6.168   7.490
52090SOL    HW258168  11.225   6.248   7.613
52091SOL     OW58169   0.793  12.884  11.009
52091SOL    HW158170   0.771  12.799  11.048
52091SOL    HW258171   0.851  12.863  10.937
52092SOL     OW58172  12.567   9.011   5.904
52092SOL    HW158173  12.491   8.953   5.915
52092SOL    HW258174  12.616   8.972   5.831
52093SOL     OW58175   2.517   4.008   1.480
52093SOL    HW158176   2.464   3.966   1.548
52093SOL    HW258177   2.601   3.961   1.484
52094SOL     OW58178  14.065   7.226  11.233
52094SOL    HW158179  14.030   7.143  11.264
52094SOL    HW258180  14.069   7.216  11.138
52095SOL     OW58181  11.275   4.421   0.424
52095SOL    HW158182  11.327   4.471   0.361
52095SOL    HW258183  11.223   4.361   0.370
52096SOL     OW58184   5.355   5.000  10.224
52096SOL    HW158185   5.306   5.047  10.156
52096SOL    HW258186   5.315   4.914  10.228
52097SOL     OW58187   7.145  10.883   1.483
52097SOL    HW158188   7.090  10.845   1.415
52097SOL    HW258189   7.151  10.815   1.550
52098SOL     OW58190   6.403   6.272   5.084
52098SOL    HW158191   6.424   6.320   5.164
52098SOL    HW258192   6.383   6.341   5.020
52099SOL     OW58193   9.759   7.907   1.825
52099SOL    HW158194   9.758   7.984   1.882
52099SOL    HW258195   9.852   7.892   1.808
52100SOL     OW58196  10.852  14.834   5.231
52100SOL    HW158197  10.781  14.775   5.205
52100SOL    HW258198  10.929  14.778   5.236
52101SOL     OW58199   1.382   5.106   4.829
52101SOL    HW158200   1.314   5.147   4.776
52101SOL    HW258201   1.447   5.076   4.765
52102SOL     OW58202   4.279  13.362   8.177
52102SOL    HW158203   4.365  13.366   8.219
52102SOL    HW258204   4.293  13.311   8.097
52103SOL     OW58205  10.811   5.044  11.096
52103SOL    HW158206  10.901   5.020  11.072
52103SOL    HW258207  10.759   5.022  11.019
52104SOL     OW58208  14.184   7.005   5.850
52104SOL    HW158209  14.236   6.992   5.930
52104SOL    HW258210  14.104   7.047   5.880
52105SOL     OW58211   1.064  11.163   2.748
52105SOL    HW158212   0.981  11.150   2.794
52105SOL    HW258213   1.096  11.075   2.731
52106SOL     OW58214   1.370   3.694  10.585
52106SOL    HW158215   1.294   3.751  10.600
52106SOL    HW258216   1.428   3.747  10.530
52107SOL     OW58217   5.833  11.957   7.215
52107SOL    HW158218   5.912  12.005   7.236
52107SOL    HW258219   5.788  11.946   7.299
52108SOL     OW58220  13.849   5.984   2.382
52108SOL    HW158221  13.786   5.926   2.425
52108SOL    HW258222  13.813   5.999   2.295
52109SOL     OW58223  10.247  12.953   8.080
52109SOL    HW158224  10.333  12.919   8.057
52109SOL    HW258225  10.225  13.014   8.010
52110SOL     OW58226   1.408  10.053  13.517
52110SOL    HW158227   1.465  10.107  13.572
52110SOL    HW258228   1.458   9.973  13.502
52111SOL     OW58229   1.279   2.623   5.964
52111SOL    HW158230   1.196   2.650   5.923
52111SOL    HW258231   1.265   2.531   5.986
52112SOL     OW58232   6.193   9.862   1.672
52112SOL    HW158233   6.239   9.789   1.714
52112SOL    HW258234   6.106   9.861   1.711
52113SOL     OW58235   9.263   4.189  14.633
52113SOL    HW158236   9.174   4.169  14.662
52113SOL    HW258237   9.292   4.260  14.690
52114SOL     OW58238   2.613   9.688   7.335
52114SOL    HW158239   2.534   9.737   7.358
52114SOL    HW258240   2.582   9.618   7.278
52115SOL     OW58241   5.179  14.119   7.677
52115SOL    HW158242   5.146  14.099   7.589
52115SOL    HW258243   5.274  14.120   7.667
52116SOL     OW58244   2.944   4.745   4.179
52116SOL    HW158245   2.918   4.723   4.090
52116SOL    HW258246   3.000   4.822   4.170
52117SOL     OW58247  12.414   2.318   7.360
52117SOL    HW158248  12.322   2.292   7.352
52117SOL    HW258249  12.437   2.352   7.274
52118SOL     OW58250   9.447  12.179   1.497
52118SOL    HW158251   9.413  12.162   1.409
52118SOL    HW258252   9.388  12.245   1.534
52119SOL     OW58253   0.269   3.428  10.095
52119SOL    HW158254   0.261   3.521  10.073
52119SOL    HW258255   0.232   3.383  10.019
52120SOL     OW58256  10.934   6.985  14.502
52120SOL    HW158257  10.943   6.891  14.517
52120SOL    HW258258  10.845   7.007  14.532
52121SOL     OW58259   0.277   6.837   4.844
52121SOL    HW158260   0.355   6.863   4.892
52121SOL    HW258261   0.285   6.882   4.759
52122SOL     OW58262  10.971   6.901   1.811
52122SOL    HW158263  10.875   6.895   1.809
52122SOL    HW258264  10.990   6.985   1.769
52123SOL     OW58265  10.628  13.881   1.638
52123SOL    HW158266  10.589  13.883   1.550
52123SOL    HW258267  10.686  13.957   1.641
52124SOL     OW58268   3.129   7.454   7.087
52124SOL    HW158269   3.069   7.529   7.082
52124SOL    HW258270   3.130   7.430   7.180
52125SOL     OW58271   9.545   6.684   2.187
52125SOL    HW158272   9.476   6.711   2.248
52125SOL    HW258273   9.538   6.589   2.183
52126SOL     OW58274   6.470  12.001   7.915
52126SOL    HW158275   6.442  12.080   7.869
52126SOL    HW258276   6.394  11.976   7.968
52127SOL     OW58277   4.710   4.241   4.627
52127SOL    HW158278   4.748   4.317   4.582
52127SOL    HW258279   4.636   4.277   4.676
52128SOL     OW58280   7.859  10.370   8.228
52128SOL    HW158281   7.779  10.385   8.178
52128SOL    HW258282   7.919  10.329   8.166
52129SOL     OW58283  13.444   3.402   2.956
52129SOL    HW158284  13.458   3.349   3.034
52129SOL    HW258285  13.385   3.472   2.984
52130SOL     OW58286   1.452   2.112   3.882
52130SOL    HW158287   1.459   2.033   3.828
52130SOL    HW258288   1.539   2.123   3.919
52131SOL     OW58289  14.228   3.731   1.046
52131SOL    HW158290  14.208   3.824   1.037
52131SOL    HW258291  14.143   3.689   1.055
52132SOL     OW58292   4.477   4.140   8.532
52132SOL    HW158293   4.415   4.119   8.602
52132SOL    HW258294   4.474   4.235   8.526
52133SOL     OW58295   1.955  10.112  10.236
52133SOL    HW158296   1.875  10.146  10.197
52133SOL    HW258297   1.958  10.020  10.210
52134SOL     OW58298  12.196  12.347   8.952
52134SOL    HW158299  12.191  12.257   8.987
52134SOL    HW258300  12.245  12.395   9.019
52135SOL     OW58301  11.626   4.253  11.267
52135SOL    HW158302  11.700   4.203  11.232
52135SOL    HW258303  11.571   4.187  11.310
52136SOL     OW58304   9.008   8.866   9.075
52136SOL    HW158305   9.044   8.874   9.163
52136SOL    HW258306   9.084   8.869   9.017
52137SOL     OW58307   9.189   8.821   7.655
52137SOL    HW158308   9.249   8.867   7.714
52137SOL    HW258309   9.160   8.745   7.705
52138SOL     OW58310  14.516   6.998   1.876
52138SOL    HW158311  14.437   7.046   1.903
52138SOL    HW258312  14.493   6.957   1.793
52139SOL     OW58313  10.233   9.112   0.787
52139SOL    HW158314  10.271   9.103   0.875
52139SOL    HW258315  10.301   9.156   0.737
52140SOL     OW58316   0.451   9.540  12.322
52140SOL    HW158317   0.390   9.517  12.252
52140SOL    HW258318   0.399   9.536  12.402
52141SOL     OW58319   7.850  12.478   7.971
52141SOL    HW158320   7.875  12.428   7.894
52141SOL    HW258321   7.877  12.423   8.045
52142SOL     OW58322   2.174   1.458  14.052
52142SOL    HW158323   2.124   1.431  14.129
52142SOL    HW258324   2.137   1.544  14.029
52143SOL     OW58325  14.743  14.192  13.230
52143SOL    HW158326  14.733  14.129  13.302
52143SOL    HW258327  14.661  14.187  13.181
52144SOL     OW58328   7.126  12.949   1.840
52144SOL    HW158329   7.118  12.961   1.745
52144SOL    HW258330   7.075  13.020   1.878
52145SOL     OW58331   2.810   4.432  11.637
52145SOL    HW158332   2.764   4.353  11.611
52145SOL    HW258333   2.817   4.484  11.557
52146SOL     OW58334  10.194   7.120  10.089
52146SOL    HW158335  10.267   7.069  10.125
52146SOL    HW258336  10.132   7.127  10.162
52147SOL     OW58337   0.339   6.920  11.133
52147SOL    HW158338   0.395   6.943  11.058
52147SOL    HW258339   0.323   6.826  11.123
52148SOL     OW58340   0.230   8.891   2.511
52148SOL    HW158341   0.284   8.875   2.589
52148SOL    HW258342   0.140   8.887   2.543
52149SOL     OW58343  12.520  13.436  12.591
52149SOL    HW158344  12.591  13.422  12.529
52149SOL    HW258345  12.552  13.505  12.650
52150SOL     OW58346   4.129   3.925   9.434
52150SOL    HW158347   4.103   3.836   9.414
52150SOL    HW258348   4.096   3.941   9.523
52151SOL     OW58349   8.828  12.936  11.502
52151SOL    HW158350   8.894  12.978  11.447
52151SOL    HW258351   8.754  12.996  11.501
52152SOL     OW58352   8.169   4.155   4.703
52152SOL    HW158353   8.142   4.136   4.614
52152SOL    HW258354   8.143   4.078   4.753
52153SOL     OW58355   2.698   6.143  13.627
52153SOL    HW158356   2.706   6.215  13.691
52153SOL    HW258357   2.628   6.172  13.568
52154SOL     OW58358   7.145   2.121   7.869
52154SOL    HW158359   7.192   2.186   7.922
52154SOL    HW258360   7.053   2.134   7.891
52155SOL     OW58361   0.064   2.520  12.790
52155SOL    HW158362   0.054   2.589  12.725
52155SOL    HW258363   0.055   2.565  12.874
52156SOL     OW58364   3.576  12.857   3.195
52156SOL    HW158365   3.641  12.905   3.247
52156SOL    HW258366   3.585  12.766   3.224
52157SOL     OW58367   8.649   8.858  12.197
52157SOL    HW158368   8.739   8.878  12.171
52157SOL    HW258369   8.595   8.892  12.125
52158SOL     OW58370   6.760   1.849   5.439
52158SOL    HW158371   6.735   1.894   5.519
52158SOL    HW258372   6.692   1.783   5.426
52159SOL     OW58373   5.300  13.006  14.016
52159SOL    HW158374   5.233  12.952  13.973
52159SOL    HW258375   5.341  12.948  14.080
52160SOL     OW58376   5.408   6.366  11.604
52160SOL    HW158377   5.328   6.390  11.556
52160SOL    HW258378   5.476   6.365  11.537
52161SOL     OW58379  10.311  10.910   1.198
52161SOL    HW158380  10.381  10.975   1.191
52161SOL    HW258381  10.325  10.852   1.123
52162SOL     OW58382   6.677   3.199   6.424
52162SOL    HW158383   6.605   3.243   6.379
52162SOL    HW258384   6.688   3.116   6.376
52163SOL     OW58385   0.815   6.928   6.831
52163SOL    HW158386   0.757   6.992   6.872
52163SOL    HW258387   0.903   6.950   6.862
52164SOL     OW58388   6.166  14.075  14.809
52164SOL    HW158389   6.249  14.043  14.774
52164SOL    HW258390   6.169  14.170  14.795
52165SOL     OW58391   4.491   2.589  12.598
52165SOL    HW158392   4.418   2.638  12.559
52165SOL    HW258393   4.460   2.565  12.685
52166SOL     OW58394  12.928  10.364   6.589
52166SOL    HW158395  12.891  10.281   6.559
52166SOL    HW258396  12.903  10.427   6.523
52167SOL     OW58397   1.882   9.996   2.941
52167SOL    HW158398   1.848   9.995   3.031
52167SOL    HW258399   1.838   9.922   2.899
52168SOL     OW58400   3.519   9.266  13.610
52168SOL    HW158401   3.566   9.331  13.558
52168SOL    HW258402   3.533   9.293  13.701
52169SOL     OW58403   9.117   6.235  11.361
52169SOL    HW158404   9.091   6.313  11.313
52169SOL    HW258405   9.208   6.252  11.386
52170SOL     OW58406   5.805   5.893   5.943
52170SOL    HW158407   5.839   5.969   5.895
52170SOL    HW258408   5.732   5.928   5.994
52171SOL     OW58409  11.055  10.881   8.084
52171SOL    HW158410  11.057  10.843   7.996
52171SOL    HW258411  11.124  10.836   8.132
52172SOL     OW58412   5.998   5.164   2.323
52172SOL    HW158413   6.087   5.188   2.348
52172SOL    HW258414   5.964   5.116   2.398
52173SOL     OW58415  10.716   6.940   1.775
52173SOL    HW158416  10.628   6.975   1.788
52173SOL    HW258417  10.736   6.957   1.683
52174SOL     OW58418   8.178  10.619   8.025
52174SOL    HW158419   8.228  10.664   7.957
52174SOL    HW258420   8.147  10.689   8.083
52175SOL     OW58421   6.464  11.553   5.783
52175SOL    HW158422   6.548  11.514   5.758
52175SOL    HW258423   6.444  11.613   5.712
52176SOL     OW58424   4.721  10.078   8.056
52176SOL    HW158425   4.705   9.986   8.035
52176SOL    HW258426   4.783  10.108   7.989
52177SOL     OW58427   7.190   9.432  13.270
52177SOL    HW158428   7.169   9.477  13.188
52177SOL    HW258429   7.286   9.436  13.275
52178SOL     OW58430   9.955   5.946   1.675
52178SOL    HW158431   9.883   5.884   1.680
52178SOL    HW258432  10.012   5.924   1.748
52179SOL     OW58433   2.778   7.991   8.397
52179SOL    HW158434   2.786   7.905   8.438
52179SOL    HW258435   2.700   8.029   8.437
52180SOL     OW58436   0.000  12.033   6.593
52180SOL    HW158437   0.018  11.990   6.676
52180SOL    HW258438  14.851  11.963   6.535
52181SOL     OW58439   4.449  13.083   8.426
52181SOL    HW158440   4.387  13.036   8.482
52181SOL    HW258441   4.480  13.017   8.364
52182SOL     OW58442   2.734   9.517   6.127
52182SOL    HW158443   2.825   9.529   6.154
52182SOL    HW258444   2.691   9.478   6.204
52183SOL     OW58445  11.214  13.024   8.759
52183SOL    HW158446  11.275  12.976   8.815
52183SOL    HW258447  11.154  12.957   8.726
52184SOL     OW58448  11.936   8.046   1.842
52184SOL    HW158449  11.976   8.130   1.866
52184SOL    HW258450  11.889   8.065   1.761
52185SOL     OW58451   1.682   4.936   5.451
52185SOL    HW158452   1.587   4.941   5.440
52185SOL    HW258453   1.695   4.881   5.528
52186SOL     OW58454  10.893   0.658  11.014
52186SOL    HW158455  10.867   0.680  10.925
52186SOL    HW258456  10.911   0.564  11.012
52187SOL     OW58457   7.278   7.380  13.462
52187SOL    HW158458   7.255   7.407  13.551
52187SOL    HW258459   7.194   7.364  13.419
52188SOL     OW58460  13.706  11.361  12.630
52188SOL    HW158461  13.645  11.303  12.675
52188SOL    HW258462  13.688  11.347  12.537
52189SOL     OW58463   1.547   7.345   2.580
52189SOL    HW158464   1.551   7.435   2.612
52189SOL    HW258465   1.633   7.308   2.603
52190SOL     OW58466   8.170   1.590  10.158
52190SOL    HW158467   8.109   1.579  10.231
52190SOL    HW258468   8.241   1.644  10.193
52191SOL     OW58469   9.740   7.188   6.630
52191SOL    HW158470   9.829   7.153   6.638
52191SOL    HW258471   9.714   7.167   6.541
52192SOL     OW58472   1.011   5.822  12.705
52192SOL    HW158473   1.096   5.852  12.672
52192SOL    HW258474   1.006   5.856  12.794
52193SOL     OW58475  11.438   6.307   9.664
52193SOL    HW158476  11.518   6.356   9.645
52193SOL    HW258477  11.419   6.260   9.582
52194SOL     OW58478   6.231   4.417   5.506
52194SOL    HW158479   6.292   4.438   5.577
52194SOL    HW258480   6.223   4.322   5.508
52195SOL     OW58481   5.996   0.316   5.093
52195SOL    HW158482   5.925   0.253   5.085
52195SOL    HW258483   6.044   0.309   5.010
52196SOL     OW58484   9.488   3.858   7.758
52196SOL    HW158485   9.411   3.854   7.815
52196SOL    HW258486   9.462   3.916   7.687
52197SOL     OW58487   0.717  13.012  13.526
52197SOL    HW158488   0.761  13.017  13.611
52197SOL    HW258489   0.745  12.928  13.489
52198SOL     OW58490  10.347  13.118   3.736
52198SOL    HW158491  10.401  13.195   3.756
52198SOL    HW258492  10.257  13.150   3.738
52199SOL     OW58493   7.273   7.237   3.546
52199SOL    HW158494   7.180   7.235   3.569
52199SOL    HW258495   7.316   7.271   3.624
52200SOL     OW58496   0.872   8.482   2.799
52200SOL    HW158497   0.824   8.428   2.736
52200SOL    HW258498   0.962   8.450   2.793
52201SOL     OW58499  11.088  14.535  13.416
52201SOL    HW158500  11.006  14.486  13.423
52201SOL    HW258501  11.075  14.594  13.342
52202SOL     OW58502   7.500  10.772   5.390
52202SOL    HW158503   7.504  10.679   5.413
52202SOL    HW258504   7.519  10.774   5.296
52203SOL     OW58505   9.054  12.846  10.895
52203SOL    HW158506   9.007  12.921  10.861
52203SOL    HW258507   9.146  12.872  10.892
52204SOL     OW58508  12.695   7.124   0.870
52204SOL    HW158509  12.774   7.070   0.869
52204SOL    HW258510  12.727   7.214   0.869
52205SOL     OW58511  13.512   9.119  10.662
52205SOL    HW158512  13.554   9.128  10.747
52205SOL    HW258513  13.582   9.091  10.603
52206SOL     OW58514   7.644   7.707   3.513
52206SOL    HW158515   7.611   7.618   3.509
52206SOL    HW258516   7.667   7.720   3.605
52207SOL     OW58517   1.134  10.440   8.899
52207SOL    HW158518   1.118  10.534   8.904
52207SOL    HW258519   1.114  10.408   8.987
52208SOL     OW58520   0.887   5.340   2.151
52208SOL    HW158521   0.928   5.279   2.089
52208SOL    HW258522   0.956   5.359   2.214
52209SOL     OW58523  11.404   8.687   2.107
52209SOL    HW158524  11.384   8.716   2.195
52209SOL    HW258525  11.436   8.765   2.062
52210SOL     OW58526   3.612  12.963  10.497
52210SOL    HW158527   3.584  12.885  10.546
52210SOL    HW258528   3.684  12.999  10.549
52211SOL     OW58529  12.522   4.786  11.563
52211SOL    HW158530  12.559   4.730  11.631
52211SOL    HW258531  12.478   4.726  11.503
52212SOL     OW58532   9.486  13.232  14.654
52212SOL    HW158533   9.476  13.138  14.668
52212SOL    HW258534   9.424  13.252  14.584
52213SOL     OW58535  10.821   1.510   6.187
52213SOL    HW158536  10.788   1.598   6.204
52213SOL    HW258537  10.874   1.519   6.108
52214SOL     OW58538   1.056   5.937  14.336
52214SOL    HW158539   1.043   5.996  14.261
52214SOL    HW258540   0.983   5.875  14.330
52215SOL     OW58541   7.712   3.776   5.507
52215SOL    HW158542   7.729   3.870   5.509
52215SOL    HW258543   7.617   3.769   5.516
52216SOL     OW58544  13.221   8.999  12.607
52216SOL    HW158545  13.195   9.057  12.679
52216SOL    HW258546  13.176   9.034  12.530
52217SOL     OW58547  13.315   8.067   2.248
52217SOL    HW158548  13.321   7.988   2.194
52217SOL    HW258549  13.306   8.035   2.338
52218SOL     OW58550   9.368  11.054   1.391
52218SOL    HW158551   9.405  11.122   1.335
52218SOL    HW258552   9.274  11.058   1.375
52219SOL     OW58553   3.853  13.312  11.050
52219SOL    HW158554   3.850  13.401  11.087
52219SOL    HW258555   3.926  13.270  11.096
52220SOL     OW58556  13.503   2.098   7.737
52220SOL    HW158557  13.482   2.190   7.718
52220SOL    HW258558  13.517   2.059   7.651
52221SOL     OW58559   5.733  13.442   2.337
52221SOL    HW158560   5.653  13.435   2.389
52221SOL    HW258561   5.801  13.467   2.400
52222SOL     OW58562   4.990  13.837  13.883
52222SOL    HW158563   4.911  13.834  13.937
52222SOL    HW258564   5.026  13.748  13.889
52223SOL     OW58565   1.033   1.806   7.852
52223SOL    HW158566   1.009   1.795   7.944
52223SOL    HW258567   0.958   1.770   7.803
52224SOL     OW58568   8.246   2.014   2.994
52224SOL    HW158569   8.168   1.967   3.022
52224SOL    HW258570   8.271   2.066   3.071
52225SOL     OW58571   8.773  13.898   3.432
52225SOL    HW158572   8.866  13.887   3.415
52225SOL    HW258573   8.759  13.857   3.518
52226SOL     OW58574  10.453   6.978   1.891
52226SOL    HW158575  10.443   6.989   1.986
52226SOL    HW258576  10.364   6.982   1.857
52227SOL     OW58577   7.547  10.022   1.388
52227SOL    HW158578   7.545   9.927   1.393
52227SOL    HW258579   7.507  10.052   1.470
52228SOL     OW58580  10.200   1.014   1.855
52228SOL    HW158581  10.136   1.084   1.866
52228SOL    HW258582  10.273   1.055   1.808
52229SOL     OW58583  12.275   8.170  11.976
52229SOL    HW158584  12.350   8.151  11.920
52229SOL    HW258585  12.288   8.261  12.003
52230SOL     OW58586  11.684   3.549  11.288
52230SOL    HW158587  11.770   3.575  11.320
52230SOL    HW258588  11.693   3.456  11.265
52231SOL     OW58589   2.706   8.569  11.332
52231SOL    HW158590   2.748   8.514  11.266
52231SOL    HW258591   2.635   8.515  11.367
52232SOL     OW58592  11.555  13.256   3.595
52232SOL    HW158593  11.552  13.222   3.684
52232SOL    HW258594  11.582  13.347   3.604
52233SOL     OW58595  10.679  14.744  12.386
52233SOL    HW158596  10.752  14.690  12.357
52233SOL    HW258597  10.626  14.756  12.307
52234SOL     OW58598  13.794   1.029   8.863
52234SOL    HW158599  13.849   1.011   8.786
52234SOL    HW258600  13.779   1.123   8.860
52235SOL     OW58601   5.231   0.143   5.286
52235SOL    HW158602   5.275   0.228   5.284
52235SOL    HW258603   5.241   0.113   5.376
52236SOL     OW58604   3.546   3.155   6.107
52236SOL    HW158605   3.465   3.104   6.112
52236SOL    HW258606   3.605   3.101   6.054
52237SOL     OW58607  13.221  12.913   2.147
52237SOL    HW158608  13.305  12.927   2.105
52237SOL    HW258609  13.243  12.881   2.235
52238SOL     OW58610  12.895   9.897   3.341
52238SOL    HW158611  12.859   9.897   3.429
52238SOL    HW258612  12.910   9.805   3.321
52239SOL     OW58613   4.502   8.389   1.115
52239SOL    HW158614   4.597   8.376   1.113
52239SOL    HW258615   4.487   8.438   1.196
52240SOL     OW58616   6.822   9.386  11.252
52240SOL    HW158617   6.904   9.416  11.215
52240SOL    HW258618   6.791   9.318  11.192
52241SOL     OW58619  10.630   4.628   7.774
52241SOL    HW158620  10.535   4.629   7.787
52241SOL    HW258621  10.663   4.695   7.834
52242SOL     OW58622   0.391   8.557  12.954
52242SOL    HW158623   0.412   8.575  12.862
52242SOL    HW258624   0.475   8.539  12.995
52243SOL     OW58625   9.079   5.484   5.723
52243SOL    HW158626   9.123   5.491   5.638
52243SOL    HW258627   8.986   5.482   5.701
52244SOL     OW58628   8.086   3.838   4.574
52244SOL    HW158629   8.029   3.792   4.636
52244SOL    HW258630   8.175   3.817   4.602
52245SOL     OW58631   0.722   1.396  10.897
52245SOL    HW158632   0.652   1.376  10.835
52245SOL    HW258633   0.773   1.465  10.854
52246SOL     OW58634   1.800  11.480   2.696
52246SOL    HW158635   1.744  11.528   2.635
52246SOL    HW258636   1.774  11.513   2.782
52247SOL     OW58637   4.869   0.567   1.027
52247SOL    HW158638   4.787   0.605   0.995
52247SOL    HW258639   4.844   0.480   1.058
52248SOL     OW58640  13.245  10.095  13.500
52248SOL    HW158641  13.239  10.000  13.497
52248SOL    HW258642  13.158  10.125  13.473
52249SOL     OW58643  13.936   5.323  11.286
52249SOL    HW158644  14.026   5.343  11.310
52249SOL    HW258645  13.944   5.269  11.207
52250SOL     OW58646  12.295   9.859  10.061
52250SOL    HW158647  12.344   9.840   9.981
52250SOL    HW258648  12.245   9.937  10.041
52251SOL     OW58649   5.717  12.197  11.810
52251SOL    HW158650   5.719  12.241  11.895
52251SOL    HW258651   5.731  12.105  11.831
52252SOL     OW58652   9.362   4.679   3.420
52252SOL    HW158653   9.360   4.585   3.404
52252SOL    HW258654   9.271   4.703   3.434
52253SOL     OW58655   6.455   9.055   4.443
52253SOL    HW158656   6.484   8.974   4.402
52253SOL    HW258657   6.514   9.122   4.409
52254SOL     OW58658  14.585   2.287   8.807
52254SOL    HW158659  14.539   2.318   8.885
52254SOL    HW258660  14.631   2.208   8.837
52255SOL     OW58661   4.367   2.611   4.976
52255SOL    HW158662   4.298   2.676   4.960
52255SOL    HW258663   4.400   2.633   5.063
52256SOL     OW58664  14.374   3.349   5.927
52256SOL    HW158665  14.446   3.349   5.991
52256SOL    HW258666  14.353   3.441   5.915
52257SOL     OW58667  14.220   4.427   9.347
52257SOL    HW158668  14.171   4.412   9.428
52257SOL    HW258669  14.236   4.521   9.345
52258SOL     OW58670   8.194   1.935   6.835
52258SOL    HW158671   8.148   2.016   6.813
52258SOL    HW258672   8.261   1.926   6.768
52259SOL     OW58673   8.574   6.931  12.469
52259SOL    HW158674   8.641   6.865  12.482
52259SOL    HW258675   8.621   7.015  12.475
52260SOL     OW58676   5.147   1.818   9.043
52260SOL    HW158677   5.080   1.749   9.051
52260SOL    HW258678   5.101   1.891   9.000
52261SOL     OW58679   7.912   1.630  14.517
52261SOL    HW158680   7.893   1.578  14.596
52261SOL    HW258681   7.979   1.580  14.472
52262SOL     OW58682   2.901  12.039  14.262
52262SOL    HW158683   2.881  12.010  14.173
52262SOL    HW258684   2.972  11.982  14.291
52263SOL     OW58685   0.158  10.078   8.448
52263SOL    HW158686   0.176  10.013   8.515
52263SOL    HW258687   0.098  10.140   8.489
52264SOL     OW58688  10.415  13.595   8.385
52264SOL    HW158689  10.481  13.538   8.346
52264SOL    HW258690  10.393  13.554   8.468
52265SOL     OW58691   9.000   8.350   2.283
52265SOL    HW158692   9.056   8.392   2.218
52265SOL    HW258693   9.039   8.265   2.299
52266SOL     OW58694   9.154   5.029  10.629
52266SOL    HW158695   9.127   4.950  10.581
52266SOL    HW258696   9.094   5.032  10.704
52267SOL     OW58697   2.767   2.335   0.524
52267SOL    HW158698   2.703   2.264   0.523
52267SOL    HW258699   2.846   2.298   0.484
52268SOL     OW58700   5.038   9.438   2.698
52268SOL    HW158701   5.098   9.512   2.689
52268SOL    HW258702   5.080   9.381   2.763
52269SOL     OW58703   3.293   9.010  14.121
52269SOL    HW158704   3.253   8.950  14.184
52269SOL    HW258705   3.378   9.031  14.159
52270SOL     OW58706   1.044   8.381   0.916
52270SOL    HW158707   1.035   8.375   0.821
52270SOL    HW258708   0.987   8.454   0.940
52271SOL     OW58709  12.645   8.430   7.857
52271SOL    HW158710  12.737   8.455   7.847
52271SOL    HW258711  12.619   8.399   7.771
52272SOL     OW58712  13.326   9.990  10.001
52272SOL    HW158713  13.233   9.971   9.990
52272SOL    HW258714  13.333  10.027  10.089
52273SOL     OW58715   1.680  10.766  14.028
52273SOL    HW158716   1.627  10.841  14.002
52273SOL    HW258717   1.735  10.799  14.099
52274SOL     OW58718   9.557  12.382   2.453
52274SOL    HW158719   9.578  12.454   2.514
52274SOL    HW258720   9.486  12.335   2.495
52275SOL     OW58721  11.460   9.552   3.376
52275SOL    HW158722  11.523   9.563   3.304
52275SOL    HW258723  11.504   9.494   3.438
52276SOL     OW58724   8.658   3.589   0.792
52276SOL    HW158725   8.575   3.558   0.757
52276SOL    HW258726   8.677   3.529   0.865
52277SOL     OW58727   1.594  11.862  10.389
52277SOL    HW158728   1.514  11.811  10.375
52277SOL    HW258729   1.564  11.952  10.394
52278SOL     OW58730  10.441   0.980  11.269
52278SOL    HW158731  10.537   0.975  11.269
52278SOL    HW258732  10.414   0.919  11.200
52279SOL     OW58733  11.501   7.932   6.766
52279SOL    HW158734  11.499   7.989   6.689
52279SOL    HW258735  11.427   7.873   6.754
52280SOL     OW58736   8.770   0.299   2.483
52280SOL    HW158737   8.827   0.375   2.496
52280SOL    HW258738   8.681   0.337   2.477
52281SOL     OW58739   5.376   1.078   7.463
52281SOL    HW158740   5.288   1.047   7.442
52281SOL    HW258741   5.402   1.027   7.540
52282SOL     OW58742   2.391   6.887   1.034
52282SOL    HW158743   2.441   6.808   1.055
52282SOL    HW258744   2.314   6.882   1.091
52283SOL     OW58745  14.076   4.136   4.297
52283SOL    HW158746  14.100   4.057   4.345
52283SOL    HW258747  13.980   4.130   4.288
52284SOL     OW58748   9.084   6.112   5.190
52284SOL    HW158749   9.002   6.121   5.238
52284SOL    HW258750   9.119   6.201   5.184
52285SOL     OW58751   8.205   9.658  13.748
52285SOL    HW158752   8.215   9.563  13.737
52285SOL    HW258753   8.267   9.696  13.686
52286SOL     OW58754  10.994   1.001  11.803
52286SOL    HW158755  11.089   0.985  11.808
52286SOL    HW258756  10.985   1.094  11.826
52287SOL     OW58757   4.681   7.554   1.909
52287SOL    HW158758   4.759   7.607   1.892
52287SOL    HW258759   4.686   7.483   1.845
52288SOL     OW58760   8.891   2.784   6.254
52288SOL    HW158761   8.805   2.774   6.297
52288SOL    HW258762   8.872   2.773   6.161
52289SOL     OW58763  11.857   9.520   6.489
52289SOL    HW158764  11.779   9.575   6.491
52289SOL    HW258765  11.856   9.474   6.573
52290SOL     OW58766  12.562   8.910   7.592
52290SOL    HW158767  12.600   8.947   7.672
52290SOL    HW258768  12.551   8.817   7.612
52291SOL     OW58769   6.570  11.113  14.207
52291SOL    HW158770   6.575  11.075  14.295
52291SOL    HW258771   6.656  11.096  14.169
52292SOL     OW58772   2.135   3.000   1.184
52292SOL    HW158773   2.080   3.064   1.230
52292SOL    HW258774   2.144   2.928   1.245
52293SOL     OW58775   1.086  14.847  11.506
52293SOL    HW158776   1.132  14.771  11.468
52293SOL    HW258777   1.154   0.033  11.514
52294SOL     OW58778   4.810   2.444   2.569
52294SOL    HW158779   4.893   2.492   2.558
52294SOL    HW258780   4.831   2.355   2.541
52295SOL     OW58781  13.733   1.457  10.976
52295SOL    HW158782  13.649   1.450  10.931
52295SOL    HW258783  13.779   1.376  10.954
52296SOL     OW58784  12.867   0.168  11.069
52296SOL    HW158785  12.818   0.089  11.091
52296SOL    HW258786  12.804   0.222  11.020
52297SOL     OW58787   0.010  10.361   6.151
52297SOL    HW158788   0.094  10.403   6.174
52297SOL    HW258789  14.858  10.328   6.235
52298SOL     OW58790  11.642   5.983   5.105
52298SOL    HW158791  11.643   5.904   5.051
52298SOL    HW258792  11.642   5.951   5.195
52299SOL     OW58793  10.025   4.359   1.114
52299SOL    HW158794  10.096   4.321   1.062
52299SOL    HW258795  10.015   4.448   1.081
52300SOL     OW58796  14.045   5.423  10.835
52300SOL    HW158797  14.070   5.420  10.743
52300SOL    HW258798  14.029   5.515  10.853
52301SOL     OW58799  12.116   4.351   1.488
52301SOL    HW158800  12.064   4.428   1.463
52301SOL    HW258801  12.054   4.295   1.535
52302SOL     OW58802   3.507  11.651   7.980
52302SOL    HW158803   3.454  11.595   8.038
52302SOL    HW258804   3.565  11.698   8.040
52303SOL     OW58805   8.493   2.369   9.324
52303SOL    HW158806   8.447   2.325   9.395
52303SOL    HW258807   8.562   2.309   9.298
52304SOL     OW58808   4.964   1.633   2.810
52304SOL    HW158809   5.000   1.673   2.889
52304SOL    HW258810   4.965   1.703   2.744
52305SOL     OW58811  10.271   1.190   3.634
52305SOL    HW158812  10.330   1.144   3.694
52305SOL    HW258813  10.183   1.160   3.658
52306SOL     OW58814   6.816  12.855  11.096
52306SOL    HW158815   6.875  12.821  11.029
52306SOL    HW258816   6.731  12.863  11.051
52307SOL     OW58817  13.268  11.938   9.603
52307SOL    HW158818  13.324  12.015   9.587
52307SOL    HW258819  13.213  11.932   9.524
52308SOL     OW58820   3.508   7.361   3.985
52308SOL    HW158821   3.519   7.309   4.064
52308SOL    HW258822   3.457   7.306   3.926
52309SOL     OW58823   4.006   2.546   2.001
52309SOL    HW158824   4.040   2.457   2.004
52309SOL    HW258825   3.918   2.537   1.964
52310SOL     OW58826  10.933   8.475  10.751
52310SOL    HW158827  10.882   8.396  10.766
52310SOL    HW258828  10.975   8.494  10.835
52311SOL     OW58829   7.748   2.277  13.910
52311SOL    HW158830   7.793   2.228  13.841
52311SOL    HW258831   7.811   2.343  13.939
52312SOL     OW58832   2.197  10.905   9.981
52312SOL    HW158833   2.154  10.974   9.930
52312SOL    HW258834   2.135  10.832   9.980
52313SOL     OW58835  14.811   6.093   9.977
52313SOL    HW158836  14.733   6.102   9.922
52313SOL    HW258837  14.822   6.178  10.018
52314SOL     OW58838   0.063  10.363   4.051
52314SOL    HW158839   0.119  10.390   4.124
52314SOL    HW258840   0.122  10.319   3.990
52315SOL     OW58841  13.183  11.139   0.559
52315SOL    HW158842  13.104  11.108   0.604
52315SOL    HW258843  13.211  11.216   0.608
52316SOL     OW58844   7.362   6.295  12.458
52316SOL    HW158845   7.359   6.388  12.433
52316SOL    HW258846   7.277   6.260  12.432
52317SOL     OW58847   5.088   7.949  12.381
52317SOL    HW158848   5.167   7.985  12.342
52317SOL    HW258849   5.086   7.858  12.351
52318SOL     OW58850  10.736  12.316   6.784
52318SOL    HW158851  10.686  12.251   6.833
52318SOL    HW258852  10.671  12.378   6.751
52319SOL     OW58853   7.321   1.292  10.559
52319SOL    HW158854   7.359   1.371  10.520
52319SOL    HW258855   7.263   1.256  10.492
52320SOL     OW58856  10.531   9.286  14.396
52320SOL    HW158857  10.550   9.196  14.368
52320SOL    HW258858  10.609   9.313  14.445
52321SOL     OW58859  10.916   1.344   2.416
52321SOL    HW158860  10.839   1.392   2.388
52321SOL    HW258861  10.972   1.409   2.458
52322SOL     OW58862   5.201   7.074   0.433
52322SOL    HW158863   5.177   7.155   0.478
52322SOL    HW258864   5.295   7.068   0.443
52323SOL     OW58865  11.175  14.781   4.339
52323SOL    HW158866  11.249  14.781   4.400
52323SOL    HW258867  11.203  14.837   4.267
52324SOL     OW58868  10.069  14.178   8.381
52324SOL    HW158869  10.150  14.228   8.371
52324SOL    HW258870  10.069  14.117   8.307
52325SOL     OW58871  14.291   6.174   2.420
52325SOL    HW158872  14.363   6.232   2.445
52325SOL    HW258873  14.334   6.094   2.389
52326SOL     OW58874   0.699   1.520   2.048
52326SOL    HW158875   0.660   1.577   1.982
52326SOL    HW258876   0.761   1.576   2.094
52327SOL     OW58877   1.244   2.684   0.496
52327SOL    HW158878   1.210   2.610   0.545
52327SOL    HW258879   1.169   2.742   0.484
52328SOL     OW58880   1.344   1.621   8.531
52328SOL    HW158881   1.378   1.551   8.476
52328SOL    HW258882   1.390   1.699   8.503
52329SOL     OW58883  10.490   3.094   7.647
52329SOL    HW158884  10.525   3.105   7.735
52329SOL    HW258885  10.469   3.001   7.641
52330SOL     OW58886   1.296   7.273   7.364
52330SOL    HW158887   1.298   7.238   7.453
52330SOL    HW258888   1.369   7.229   7.320
52331SOL     OW58889   8.870  10.187  12.118
52331SOL    HW158890   8.787  10.197  12.071
52331SOL    HW258891   8.873  10.262  12.177
52332SOL     OW58892   1.706  14.629  14.431
52332SOL    HW158893   1.696  14.625  14.336
52332SOL    HW258894   1.620  14.605  14.465
52333SOL     OW58895  11.552  13.000   5.867
52333SOL    HW158896  11.572  13.024   5.957
52333SOL    HW258897  11.577  12.908   5.860
52334SOL     OW58898   5.367  14.723   1.320
52334SOL    HW158899   5.445  14.779   1.316
52334SOL    HW258900   5.346  14.705   1.228
52335SOL     OW58901  10.405  13.888   9.048
52335SOL    HW158902  10.389  13.806   9.095
52335SOL    HW258903  10.384  13.867   8.957
52336SOL     OW58904   1.902   4.450   6.198
52336SOL    HW158905   1.817   4.484   6.224
52336SOL    HW258906   1.957   4.461   6.276
52337SOL     OW58907   3.413   1.737   6.958
52337SOL    HW158908   3.343   1.734   7.024
52337SOL    HW258909   3.465   1.659   6.975
52338SOL     OW58910   9.303  13.080   0.964
52338SOL    HW158911   9.230  13.088   0.903
52338SOL    HW258912   9.268  13.111   1.047
52339SOL     OW58913  11.224   7.932   0.470
52339SOL    HW158914  11.269   7.958   0.389
52339SOL    HW258915  11.294   7.911   0.531
52340SOL     OW58916  13.159   6.855  14.284
52340SOL    HW158917  13.255   6.851  14.286
52340SOL    HW258918  13.131   6.794  14.352
52341SOL     OW58919  10.532  11.688  13.611
52341SOL    HW158920  10.613  11.644  13.583
52341SOL    HW258921  10.464  11.622  13.599
52342SOL     OW58922   5.697  10.837   8.685
52342SOL    HW158923   5.724  10.750   8.715
52342SOL    HW258924   5.740  10.848   8.601
52343SOL     OW58925   5.712  10.506   7.658
52343SOL    HW158926   5.709  10.454   7.739
52343SOL    HW258927   5.775  10.460   7.602
52344SOL     OW58928   3.414   2.507   9.541
52344SOL    HW158929   3.362   2.513   9.460
52344SOL    HW258930   3.498   2.548   9.518
52345SOL     OW58931  10.069   7.822   5.460
52345SOL    HW158932  10.125   7.826   5.383
52345SOL    HW258933   9.986   7.861   5.432
52346SOL     OW58934   6.619   6.748   3.531
52346SOL    HW158935   6.643   6.796   3.611
52346SOL    HW258936   6.525   6.759   3.524
52347SOL     OW58937   3.463   2.227   7.658
52347SOL    HW158938   3.551   2.262   7.647
52347SOL    HW258939   3.437   2.253   7.746
52348SOL     OW58940  11.504   8.928  13.620
52348SOL    HW158941  11.494   8.940  13.715
52348SOL    HW258942  11.596   8.905  13.609
52349SOL     OW58943   3.077  13.849   7.374
52349SOL    HW158944   2.994  13.896   7.366
52349SOL    HW258945   3.057  13.759   7.348
52350SOL     OW58946   1.845  10.709   5.819
52350SOL    HW158947   1.894  10.641   5.865
52350SOL    HW258948   1.777  10.736   5.881
52351SOL     OW58949   7.692   6.461  12.659
52351SOL    HW158950   7.626   6.400  12.690
52351SOL    HW258951   7.775   6.415  12.670
52352SOL     OW58952   9.805   4.662   3.227
52352SOL    HW158953   9.814   4.597   3.158
52352SOL    HW258954   9.866   4.633   3.295
52353SOL     OW58955   7.999   5.810  11.664
52353SOL    HW158956   7.981   5.771  11.579
52353SOL    HW258957   7.988   5.738  11.726
52354SOL     OW58958   7.788   0.643   9.642
52354SOL    HW158959   7.827   0.665   9.726
52354SOL    HW258960   7.700   0.611   9.663
52355SOL     OW58961   7.266   6.531   0.850
52355SOL    HW158962   7.244   6.475   0.924
52355SOL    HW258963   7.223   6.614   0.868
52356SOL     OW58964   4.905   9.621   3.399
52356SOL    HW158965   4.809   9.620   3.399
52356SOL    HW258966   4.929   9.607   3.307
52357SOL     OW58967   1.575  13.166  10.054
52357SOL    HW158968   1.574  13.261  10.047
52357SOL    HW258969   1.666  13.144  10.075
52358SOL     OW58970   0.789  12.765   9.873
52358SOL    HW158971   0.725  12.784   9.805
52358SOL    HW258972   0.815  12.675   9.856
52359SOL     OW58973   7.145   8.820   2.224
52359SOL    HW158974   7.241   8.815   2.222
52359SOL    HW258975   7.121   8.799   2.314
52360SOL     OW58976   8.167  12.156  11.631
52360SOL    HW158977   8.091  12.193  11.585
52360SOL    HW258978   8.154  12.061  11.626
52361SOL     OW58979   0.079   5.777   1.618
52361SOL    HW158980   0.103   5.717   1.689
52361SOL    HW258981   0.155   5.834   1.607
52362SOL     OW58982   3.154   4.104   4.936
52362SOL    HW158983   3.225   4.087   4.998
52362SOL    HW258984   3.075   4.105   4.989
52363SOL     OW58985  11.233   4.866   3.556
52363SOL    HW158986  11.291   4.885   3.482
52363SOL    HW258987  11.280   4.799   3.606
52364SOL     OW58988   1.691   8.008   6.500
52364SOL    HW158989   1.616   8.067   6.491
52364SOL    HW258990   1.761   8.051   6.450
52365SOL     OW58991   0.609   0.608   7.363
52365SOL    HW158992   0.643   0.673   7.425
52365SOL    HW258993   0.679   0.543   7.357
52366SOL     OW58994   2.415   5.850  14.718
52366SOL    HW158995   2.438   5.912  14.648
52366SOL    HW258996   2.498   5.833  14.763
52367SOL     OW58997   9.684  13.615  13.702
52367SOL    HW158998   9.620  13.656  13.760
52367SOL    HW258999   9.656  13.523  13.697
52368SOL     OW59000  14.412  11.185   5.757
52368SOL    HW159001  14.505  11.174   5.777
52368SOL    HW259002  14.392  11.273   5.789
52369SOL     OW59003  10.861   3.779  13.083
52369SOL    HW159004  10.946   3.744  13.056
52369SOL    HW259005  10.808   3.775  13.003
52370SOL     OW59006  14.784   9.167   7.091
52370SOL    HW159007  14.831   9.162   7.007
52370SOL    HW259008  14.838   9.116   7.151
52371SOL     OW59009  14.352   0.001  10.460
52371SOL    HW159010  14.394   0.087  10.455
52371SOL    HW259011  14.317  14.867  10.372
52372SOL     OW59012  10.830   1.671   0.614
52372SOL    HW159013  10.833   1.655   0.520
52372SOL    HW259014  10.810   1.765   0.621
52373SOL     OW59015   7.100   1.813   1.401
52373SOL    HW159016   7.119   1.855   1.317
52373SOL    HW259017   7.183   1.813   1.448
52374SOL     OW59018   8.836   6.883  11.496
52374SOL    HW159019   8.826   6.971  11.530
52374SOL    HW259020   8.809   6.826  11.568
52375SOL     OW59021   1.824   2.191   7.253
52375SOL    HW159022   1.875   2.222   7.178
52375SOL    HW259023   1.800   2.271   7.300
52376SOL     OW59024   2.820   7.908   7.415
52376SOL    HW159025   2.815   7.820   7.378
52376SOL    HW259026   2.851   7.963   7.343
52377SOL     OW59027   0.136   0.109  13.564
52377SOL    HW159028   0.209   0.155  13.522
52377SOL    HW259029   0.135   0.143  13.654
52378SOL     OW59030  14.796  10.558  14.266
52378SOL    HW159031  14.777  10.515  14.183
52378SOL    HW259032  14.744  10.510  14.331
52379SOL     OW59033   6.591   4.451  11.891
52379SOL    HW159034   6.654   4.425  11.957
52379SOL    HW259035   6.641   4.503  11.828
52380SOL     OW59036   6.165  11.091  13.351
52380SOL    HW159037   6.105  11.145  13.299
52380SOL    HW259038   6.236  11.070  13.290
52381SOL     OW59039   0.920  10.151   0.505
52381SOL    HW159040   0.952  10.228   0.457
52381SOL    HW259041   0.882  10.187   0.585
52382SOL     OW59042   7.691   4.783   8.205
52382SOL    HW159043   7.695   4.791   8.301
52382SOL    HW259044   7.603   4.813   8.183
52383SOL     OW59045  11.831   2.164   3.198
52383SOL    HW159046  11.875   2.137   3.118
52383SOL    HW259047  11.764   2.097   3.212
52384SOL     OW59048   6.129   4.863   5.423
52384SOL    HW159049   6.068   4.822   5.361
52384SOL    HW259050   6.113   4.817   5.506
52385SOL     OW59051   9.413   0.861  13.390
52385SOL    HW159052   9.353   0.907  13.447
52385SOL    HW259053   9.385   0.770  13.392
52386SOL     OW59054  12.805  10.966   4.336
52386SOL    HW159055  12.777  10.896   4.395
52386SOL    HW259056  12.724  10.998   4.296
52387SOL     OW59057  11.289  12.874   6.626
52387SOL    HW159058  11.200  12.905   6.640
52387SOL    HW259059  11.286  12.780   6.646
52388SOL     OW59060  14.762   7.662  10.104
52388SOL    HW159061  14.687   7.698  10.152
52388SOL    HW259062  14.827   7.731  10.106
52389SOL     OW59063   5.060  11.293  13.003
52389SOL    HW159064   5.115  11.217  13.023
52389SOL    HW259065   4.982  11.256  12.962
52390SOL     OW59066   1.337   4.705  11.162
52390SOL    HW159067   1.282   4.768  11.208
52390SOL    HW259068   1.317   4.719  11.069
52391SOL     OW59069   8.704   2.102   3.843
52391SOL    HW159070   8.732   2.015   3.815
52391SOL    HW259071   8.637   2.086   3.909
52392SOL     OW59072   7.248   4.452   5.231
52392SOL    HW159073   7.289   4.457   5.144
52392SOL    HW259074   7.214   4.540   5.247
52393SOL     OW59075   9.154  13.007   1.595
52393SOL    HW159076   9.213  12.964   1.532
52393SOL    HW259077   9.184  13.098   1.596
52394SOL     OW59078   2.802   9.692   5.303
52394SOL    HW159079   2.778   9.601   5.287
52394SOL    HW259080   2.722   9.742   5.285
52395SOL     OW59081  11.340  11.675   9.278
52395SOL    HW159082  11.350  11.580   9.278
52395SOL    HW259083  11.247  11.689   9.296
52396SOL     OW59084  10.337  13.243   6.703
52396SOL    HW159085  10.316  13.258   6.795
52396SOL    HW259086  10.325  13.149   6.690
52397SOL     OW59087   9.558   9.324   1.335
52397SOL    HW159088   9.483   9.281   1.376
52397SOL    HW259089   9.568   9.406   1.383
52398SOL     OW59090   5.013   5.700   2.293
52398SOL    HW159091   5.090   5.661   2.336
52398SOL    HW259092   5.050   5.765   2.232
52399SOL     OW59093  12.640   6.276  11.215
52399SOL    HW159094  12.598   6.292  11.300
52399SOL    HW259095  12.732   6.295  11.230
52400SOL     OW59096  10.928   9.153  10.611
52400SOL    HW159097  10.961   9.074  10.568
52400SOL    HW259098  11.004   9.211  10.616
52401SOL     OW59099   3.869   2.272   1.004
52401SOL    HW159100   3.857   2.181   1.029
52401SOL    HW259101   3.936   2.270   0.936
52402SOL     OW59102  13.194   8.474   3.403
52402SOL    HW159103  13.283   8.502   3.381
52402SOL    HW259104  13.191   8.382   3.376
52403SOL     OW59105   8.700   3.274  14.778
52403SOL    HW159106   8.780   3.325  14.766
52403SOL    HW259107   8.642   3.305  14.708
52404SOL     OW59108  11.447  14.232   0.349
52404SOL    HW159109  11.426  14.139   0.355
52404SOL    HW259110  11.543  14.235   0.358
52405SOL     OW59111  14.443  11.273   0.491
52405SOL    HW159112  14.420  11.292   0.400
52405SOL    HW259113  14.360  11.278   0.538
52406SOL     OW59114  10.035   8.174   4.284
52406SOL    HW159115  10.072   8.086   4.282
52406SOL    HW259116  10.036   8.202   4.192
52407SOL     OW59117   3.477   7.961  10.270
52407SOL    HW159118   3.541   7.902  10.230
52407SOL    HW259119   3.395   7.911  10.271
52408SOL     OW59120   5.914   8.696  13.077
52408SOL    HW159121   5.825   8.678  13.107
52408SOL    HW259122   5.911   8.786  13.044
52409SOL     OW59123  12.577   4.807  12.462
52409SOL    HW159124  12.669   4.786  12.479
52409SOL    HW259125  12.545   4.840  12.546
52410SOL     OW59126  13.906  14.232  11.362
52410SOL    HW159127  13.936  14.321  11.379
52410SOL    HW259128  13.824  14.225  11.412
52411SOL     OW59129   7.819   5.010   7.857
52411SOL    HW159130   7.731   5.027   7.824
52411SOL    HW259131   7.821   4.915   7.872
52412SOL     OW59132   6.010   3.179   5.216
52412SOL    HW159133   5.996   3.182   5.121
52412SOL    HW259134   5.934   3.132   5.250
52413SOL     OW59135  12.961   6.643  10.069
52413SOL    HW159136  12.984   6.551  10.055
52413SOL    HW259137  13.020   6.692  10.011
52414SOL     OW59138  14.285   1.260   7.081
52414SOL    HW159139  14.305   1.345   7.040
52414SOL    HW259140  14.263   1.282   7.172
52415SOL     OW59141   5.644   6.622  13.514
52415SOL    HW159142   5.695   6.557  13.562
52415SOL    HW259143   5.650   6.595  13.422
52416SOL     OW59144   9.962   9.443   7.008
52416SOL    HW159145   9.929   9.516   6.955
52416SOL    HW259146  10.032   9.481   7.060
52417SOL     OW59147   6.386  11.330  14.610
52417SOL    HW159148   6.446  11.403  14.623
52417SOL    HW259149   6.378  11.322  14.515
52418SOL     OW59150   3.256  14.589   4.471
52418SOL    HW159151   3.273  14.607   4.379
52418SOL    HW259152   3.227  14.672   4.507
52419SOL     OW59153   5.530   1.302   2.685
52419SOL    HW159154   5.516   1.235   2.752
52419SOL    HW259155   5.619   1.334   2.701
52420SOL     OW59156   0.854  11.949   7.350
52420SOL    HW159157   0.827  11.920   7.438
52420SOL    HW259158   0.815  11.883   7.291
52421SOL     OW59159   1.975  13.512  12.606
52421SOL    HW159160   1.932  13.430  12.581
52421SOL    HW259161   2.038  13.529  12.535
52422SOL     OW59162   3.326   7.771  10.987
52422SOL    HW159163   3.419   7.789  10.999
52422SOL    HW259164   3.298   7.730  11.068
52423SOL     OW59165  12.046  12.466   0.204
52423SOL    HW159166  11.998  12.474   0.122
52423SOL    HW259167  12.034  12.551   0.247
52424SOL     OW59168   8.259   2.922   4.769
52424SOL    HW159169   8.185   2.885   4.721
52424SOL    HW259170   8.260   2.875   4.852
52425SOL     OW59171  12.204  14.499  13.278
52425SOL    HW159172  12.242  14.464  13.197
52425SOL    HW259173  12.171  14.422  13.324
52426SOL     OW59174   3.230   3.688   9.941
52426SOL    HW159175   3.174   3.717  10.013
52426SOL    HW259176   3.239   3.594   9.954
52427SOL     OW59177   9.502   8.696   6.334
52427SOL    HW159178   9.506   8.611   6.378
52427SOL    HW259179   9.460   8.754   6.398
52428SOL     OW59180  11.920   8.052  14.163
52428SOL    HW159181  11.969   8.089  14.090
52428SOL    HW259182  11.839   8.018  14.123
52429SOL     OW59183  11.148  11.006   5.058
52429SOL    HW159184  11.077  10.946   5.036
52429SOL    HW259185  11.180  10.976   5.143
52430SOL     OW59186  13.536   5.408   9.739
52430SOL    HW159187  13.544   5.476   9.806
52430SOL    HW259188  13.622   5.407   9.696
52431SOL     OW59189  14.303   7.776   3.836
52431SOL    HW159190  14.309   7.699   3.892
52431SOL    HW259191  14.311   7.742   3.747
52432SOL     OW59192  14.401  14.713   1.676
52432SOL    HW159193  14.378  14.805   1.683
52432SOL    HW259194  14.321  14.667   1.701
52433SOL     OW59195   9.206  12.310   5.756
52433SOL    HW159196   9.157  12.389   5.776
52433SOL    HW259197   9.279  12.340   5.702
52434SOL     OW59198   9.074  12.561   6.770
52434SOL    HW159199   9.072  12.632   6.834
52434SOL    HW259200   9.154  12.576   6.719
52435SOL     OW59201   9.937   0.475   0.407
52435SOL    HW159202   9.845   0.502   0.410
52435SOL    HW259203   9.964   0.490   0.316
52436SOL     OW59204   6.854   4.515   8.218
52436SOL    HW159205   6.842   4.575   8.145
52436SOL    HW259206   6.773   4.521   8.268
52437SOL     OW59207   6.177   0.409   9.185
52437SOL    HW159208   6.097   0.461   9.177
52437SOL    HW259209   6.226   0.426   9.104
52438SOL     OW59210  11.043   5.648   1.796
52438SOL    HW159211  11.081   5.732   1.769
52438SOL    HW259212  11.064   5.588   1.724
52439SOL     OW59213  12.161   0.400  11.094
52439SOL    HW159214  12.214   0.470  11.134
52439SOL    HW259215  12.072   0.417  11.125
52440SOL     OW59216  13.368   5.030   2.266
52440SOL    HW159217  13.418   5.022   2.185
52440SOL    HW259218  13.407   4.966   2.326
52441SOL     OW59219  13.307   6.979   8.317
52441SOL    HW159220  13.334   7.064   8.352
52441SOL    HW259221  13.387   6.926   8.320
52442SOL     OW59222   2.747  13.357  11.254
52442SOL    HW159223   2.818  13.392  11.308
52442SOL    HW259224   2.668  13.397  11.290
52443SOL     OW59225   2.620   9.066   2.927
52443SOL    HW159226   2.622   9.072   2.831
52443SOL    HW259227   2.531   9.092   2.951
52444SOL     OW59228  10.117   4.792   6.973
52444SOL    HW159229  10.101   4.858   6.906
52444SOL    HW259230  10.030   4.756   6.992
52445SOL     OW59231   9.579   0.888   5.910
52445SOL    HW159232   9.643   0.819   5.922
52445SOL    HW259233   9.572   0.930   5.995
52446SOL     OW59234  12.898  13.064   2.834
52446SOL    HW159235  12.806  13.084   2.819
52446SOL    HW259236  12.922  13.004   2.763
52447SOL     OW59237   8.913   1.067  10.861
52447SOL    HW159238   8.890   1.099  10.948
52447SOL    HW259239   8.951   0.981  10.877
52448SOL     OW59240  12.995  12.686   4.890
52448SOL    HW159241  12.927  12.752   4.875
52448SOL    HW259242  13.049  12.689   4.811
52449SOL     OW59243   3.616   4.922   8.292
52449SOL    HW159244   3.564   4.891   8.218
52449SOL    HW259245   3.707   4.912   8.263
52450SOL     OW59246   7.032  12.880   0.703
52450SOL    HW159247   7.040  12.964   0.748
52450SOL    HW259248   6.949  12.886   0.656
52451SOL     OW59249   4.640   9.893   5.744
52451SOL    HW159250   4.732   9.910   5.764
52451SOL    HW259251   4.637   9.894   5.648
52452SOL     OW59252   8.905  11.664   5.371
52452SOL    HW159253   8.962  11.696   5.301
52452SOL    HW259254   8.833  11.727   5.375
52453SOL     OW59255   7.317   7.803   4.360
52453SOL    HW159256   7.399   7.752   4.358
52453SOL    HW259257   7.295   7.808   4.453
52454SOL     OW59258   0.878   9.508  12.592
52454SOL    HW159259   0.966   9.483  12.618
52454SOL    HW259260   0.889   9.552  12.507
52455SOL     OW59261   7.218   9.917   3.032
52455SOL    HW159262   7.142   9.952   3.078
52455SOL    HW259263   7.203   9.937   2.940
52456SOL     OW59264   0.399   1.240  12.519
52456SOL    HW159265   0.371   1.152  12.543
52456SOL    HW259266   0.369   1.296  12.590
52457SOL     OW59267   0.458  14.565  14.264
52457SOL    HW159268   0.374  14.604  14.241
52457SOL    HW259269   0.523  14.618  14.217
52458SOL     OW59270   1.596   4.455  13.756
52458SOL    HW159271   1.575   4.455  13.849
52458SOL    HW259272   1.670   4.395  13.748
52459SOL     OW59273   0.330   9.728   3.784
52459SOL    HW159274   0.380   9.772   3.715
52459SOL    HW259275   0.383   9.651   3.806
52460SOL     OW59276   2.731   3.701   2.310
52460SOL    HW159277   2.803   3.762   2.296
52460SOL    HW259278   2.677   3.743   2.378
52461SOL     OW59279   2.974   5.801   2.085
52461SOL    HW159280   3.023   5.777   2.006
52461SOL    HW259281   3.040   5.831   2.147
52462SOL     OW59282   9.278   2.058   3.424
52462SOL    HW159283   9.224   2.133   3.398
52462SOL    HW259284   9.217   1.984   3.427
52463SOL     OW59285   0.028   6.412  12.813
52463SOL    HW159286  14.846   6.340  12.810
52463SOL    HW259287  14.859   6.488  12.782
52464SOL     OW59288   4.946   2.316   9.663
52464SOL    HW159289   4.945   2.245   9.728
52464SOL    HW259290   4.884   2.380   9.698
52465SOL     OW59291  13.002   7.518   5.078
52465SOL    HW159292  13.018   7.554   4.991
52465SOL    HW259293  13.022   7.425   5.070
52466SOL     OW59294   8.770   3.173  13.912
52466SOL    HW159295   8.831   3.125  13.968
52466SOL    HW259296   8.686   3.129  13.926
52467SOL     OW59297  11.805   9.055  12.462
52467SOL    HW159298  11.827   8.966  12.490
52467SOL    HW259299  11.710   9.060  12.471
52468SOL     OW59300   7.490   4.332  13.365
52468SOL    HW159301   7.461   4.289  13.284
52468SOL    HW259302   7.482   4.425  13.347
52469SOL     OW59303   3.240   8.293   6.769
52469SOL    HW159304   3.317   8.318   6.719
52469SOL    HW259305   3.172   8.355   6.743
52470SOL     OW59306   2.135   3.250   0.252
52470SOL    HW159307   2.060   3.237   0.194
52470SOL    HW259308   2.191   3.175   0.235
52471SOL     OW59309   0.787   8.784   6.640
52471SOL    HW159310   0.830   8.701   6.663
52471SOL    HW259311   0.763   8.774   6.548
52472SOL     OW59312  14.064  14.277   5.701
52472SOL    HW159313  14.158  14.274   5.687
52472SOL    HW259314  14.026  14.256   5.615
52473SOL     OW59315  12.028   0.474   2.439
52473SOL    HW159316  12.122   0.459   2.448
52473SOL    HW259317  12.002   0.415   2.367
52474SOL     OW59318   9.524  12.277   0.755
52474SOL    HW159319   9.502  12.249   0.666
52474SOL    HW259320   9.606  12.325   0.745
52475SOL     OW59321  14.369  13.175   1.948
52475SOL    HW159322  14.345  13.140   1.862
52475SOL    HW259323  14.379  13.269   1.934
52476SOL     OW59324   2.218   6.429   6.288
52476SOL    HW159325   2.170   6.354   6.323
52476SOL    HW259326   2.158   6.503   6.297
52477SOL     OW59327   9.414   5.435   9.258
52477SOL    HW159328   9.349   5.466   9.195
52477SOL    HW259329   9.409   5.497   9.331
52478SOL     OW59330   0.239   4.101  10.812
52478SOL    HW159331   0.266   4.192  10.798
52478SOL    HW259332   0.290   4.051  10.749
52479SOL     OW59333   9.021   8.373   2.697
52479SOL    HW159334   9.094   8.424   2.664
52479SOL    HW259335   8.950   8.437   2.708
52480SOL     OW59336   3.906   2.942   1.802
52480SOL    HW159337   3.826   2.892   1.818
52480SOL    HW259338   3.881   3.006   1.736
52481SOL     OW59339   3.618   4.684   7.693
52481SOL    HW159340   3.690   4.732   7.652
52481SOL    HW259341   3.562   4.752   7.730
52482SOL     OW59342   3.042  12.931  11.759
52482SOL    HW159343   3.122  12.983  11.763
52482SOL    HW259344   3.028  12.903  11.850
52483SOL     OW59345   3.544   6.565  13.983
52483SOL    HW159346   3.588   6.611  13.912
52483SOL    HW259347   3.547   6.472  13.958
52484SOL     OW59348   2.039  11.024   1.982
52484SOL    HW159349   2.075  11.110   1.958
52484SOL    HW259350   2.107  10.962   1.954
52485SOL     OW59351   7.124  13.531  12.072
52485SOL    HW159352   7.061  13.472  12.113
52485SOL    HW259353   7.191  13.546  12.139
52486SOL     OW59354   8.568   7.269   5.369
52486SOL    HW159355   8.651   7.223   5.360
52486SOL    HW259356   8.591   7.361   5.374
52487SOL     OW59357   3.070   9.285   9.086
52487SOL    HW159358   3.095   9.195   9.105
52487SOL    HW259359   3.122   9.338   9.147
52488SOL     OW59360   7.086   6.682   6.440
52488SOL    HW159361   6.991   6.689   6.443
52488SOL    HW259362   7.111   6.662   6.531
52489SOL     OW59363   9.984  10.479   9.521
52489SOL    HW159364  10.056  10.513   9.575
52489SOL    HW259365   9.946  10.409   9.574
52490SOL     OW59366   4.932  13.297   8.477
52490SOL    HW159367   4.877  13.249   8.416
52490SOL    HW259368   4.871  13.339   8.538
52491SOL     OW59369   9.272  13.970  11.117
52491SOL    HW159370   9.367  13.958  11.126
52491SOL    HW259371   9.263  14.053  11.069
52492SOL     OW59372   0.199  14.573  12.464
52492SOL    HW159373   0.251  14.608  12.392
52492SOL    HW259374   0.110  14.601  12.445
52493SOL     OW59375   9.026   2.842   5.549
52493SOL    HW159376   9.041   2.815   5.459
52493SOL    HW259377   8.972   2.920   5.542
52494SOL     OW59378  10.797  11.440  11.111
52494SOL    HW159379  10.707  11.443  11.143
52494SOL    HW259380  10.797  11.493  11.031
52495SOL     OW59381   0.325   2.095   7.697
52495SOL    HW159382   0.344   2.169   7.638
52495SOL    HW259383   0.233   2.074   7.680
52496SOL     OW59384   7.707  11.040   4.521
52496SOL    HW159385   7.718  11.014   4.612
52496SOL    HW259386   7.765  11.115   4.509
52497SOL     OW59387   2.663   2.552   9.132
52497SOL    HW159388   2.619   2.617   9.186
52497SOL    HW259389   2.709   2.603   9.064
52498SOL     OW59390  10.116  10.145   1.451
52498SOL    HW159391  10.090  10.229   1.489
52498SOL    HW259392  10.207  10.134   1.478
52499SOL     OW59393   4.046   1.157  12.882
52499SOL    HW159394   3.961   1.112  12.879
52499SOL    HW259395   4.092   1.115  12.955
52500SOL     OW59396   7.098   8.918   9.852
52500SOL    HW159397   7.035   8.969   9.800
52500SOL    HW259398   7.183   8.935   9.810
52501SOL     OW59399   4.314  12.309   9.002
52501SOL    HW159400   4.261  12.365   9.058
52501SOL    HW259401   4.401  12.349   9.003
52502SOL     OW59402   6.066   0.134   7.665
52502SOL    HW159403   6.052   0.040   7.679
52502SOL    HW259404   5.980   0.168   7.641
52503SOL     OW59405   4.107  11.081   2.581
52503SOL    HW159406   4.068  11.165   2.556
52503SOL    HW259407   4.057  11.053   2.658
52504SOL     OW59408   9.235  10.303   2.286
52504SOL    HW159409   9.209  10.305   2.378
52504SOL    HW259410   9.154  10.287   2.238
52505SOL     OW59411   6.290  11.183   8.752
52505SOL    HW159412   6.250  11.267   8.732
52505SOL    HW259413   6.385  11.200   8.748
52506SOL     OW59414   3.624  14.029   7.062
52506SOL    HW159415   3.529  14.030   7.066
52506SOL    HW259416   3.647  14.110   7.015
52507SOL     OW59417   7.985   5.487   6.142
52507SOL    HW159418   7.985   5.558   6.078
52507SOL    HW259419   7.930   5.419   6.103
52508SOL     OW59420  10.314   4.063   0.593
52508SOL    HW159421  10.292   4.094   0.505
52508SOL    HW259422  10.231   4.031   0.629
52509SOL     OW59423  10.209  11.423   6.926
52509SOL    HW159424  10.198  11.342   6.975
52509SOL    HW259425  10.226  11.489   6.993
52510SOL     OW59426   0.539   3.637   9.295
52510SOL    HW159427   0.505   3.548   9.286
52510SOL    HW259428   0.541   3.671   9.206
52511SOL     OW59429   9.381   4.805   5.835
52511SOL    HW159430   9.397   4.718   5.873
52511SOL    HW259431   9.286   4.814   5.836
52512SOL     OW59432   6.560   2.413   2.458
52512SOL    HW159433   6.473   2.446   2.437
52512SOL    HW259434   6.606   2.488   2.495
52513SOL     OW59435   1.216   4.692  12.945
52513SOL    HW159436   1.278   4.647  13.002
52513SOL    HW259437   1.250   4.780  12.936
52514SOL     OW59438   1.992   7.181   0.229
52514SOL    HW159439   1.922   7.192   0.165
52514SOL    HW259440   1.948   7.185   0.314
52515SOL     OW59441   3.153   5.236  11.831
52515SOL    HW159442   3.110   5.256  11.747
52515SOL    HW259443   3.228   5.295  11.835
52516SOL     OW59444   4.008  10.546   8.508
52516SOL    HW159445   3.930  10.500   8.478
52516SOL    HW259446   3.988  10.569   8.599
52517SOL     OW59447   0.151   3.946   5.399
52517SOL    HW159448   0.119   3.858   5.418
52517SOL    HW259449   0.227   3.931   5.342
52518SOL     OW59450   9.431   0.419  11.446
52518SOL    HW159451   9.421   0.456  11.534
52518SOL    HW259452   9.380   0.338  11.448
52519SOL     OW59453   3.806  11.638   6.402
52519SOL    HW159454   3.751  11.569   6.366
52519SOL    HW259455   3.850  11.676   6.326
52520SOL     OW59456  14.244   1.223  12.044
52520SOL    HW159457  14.288   1.179  11.971
52520SOL    HW259458  14.308   1.287  12.075
52521SOL     OW59459   7.157   9.298  14.142
52521SOL    HW159460   7.094   9.335  14.081
52521SOL    HW259461   7.240   9.340  14.120
52522SOL     OW59462   1.412   5.020   1.023
52522SOL    HW159463   1.451   5.054   0.943
52522SOL    HW259464   1.317   5.028   1.010
52523SOL     OW59465   5.256   4.744  10.162
52523SOL    HW159466   5.219   4.655  10.159
52523SOL    HW259467   5.307   4.751  10.082
52524SOL     OW59468  11.830   6.666   2.957
52524SOL    HW159469  11.851   6.681   2.865
52524SOL    HW259470  11.740   6.696   2.967
52525SOL     OW59471  14.667  12.029   3.635
52525SOL    HW159472  14.749  11.979   3.635
52525SOL    HW259473  14.603  11.971   3.593
52526SOL     OW59474   5.357   3.252   8.674
52526SOL    HW159475   5.280   3.245   8.731
52526SOL    HW259476   5.334   3.198   8.598
52527SOL     OW59477   9.281  12.057   9.984
52527SOL    HW159478   9.253  12.077   9.894
52527SOL    HW259479   9.329  12.135  10.012
52528SOL     OW59480   8.110   8.960  13.055
52528SOL    HW159481   8.123   8.999  12.969
52528SOL    HW259482   8.167   9.010  13.113
52529SOL     OW59483   0.042   4.999   5.116
52529SOL    HW159484  14.866   5.075   5.133
52529SOL    HW259485   0.020   4.936   5.185
52530SOL     OW59486   0.176   6.042   1.899
52530SOL    HW159487   0.259   6.051   1.853
52530SOL    HW259488   0.172   5.949   1.923
52531SOL     OW59489   2.582  12.177   4.005
52531SOL    HW159490   2.599  12.223   4.087
52531SOL    HW259491   2.488  12.161   4.005
52532SOL     OW59492  10.469   5.965   7.410
52532SOL    HW159493  10.410   5.958   7.485
52532SOL    HW259494  10.483   5.875   7.380
52533SOL     OW59495  11.359  13.077  11.841
52533SOL    HW159496  11.342  13.147  11.779
52533SOL    HW259497  11.341  13.116  11.927
52534SOL     OW59498   2.939  12.510   9.557
52534SOL    HW159499   2.968  12.419   9.562
52534SOL    HW259500   2.938  12.539   9.648
52535SOL     OW59501   0.614   9.433  13.361
52535SOL    HW159502   0.622   9.464  13.270
52535SOL    HW259503   0.556   9.357  13.355
52536SOL     OW59504  13.708   4.543   6.540
52536SOL    HW159505  13.769   4.594   6.593
52536SOL    HW259506  13.692   4.597   6.463
52537SOL     OW59507   9.355   1.919  14.495
52537SOL    HW159508   9.295   1.938  14.567
52537SOL    HW259509   9.410   1.997  14.489
52538SOL     OW59510   7.066   8.065   1.092
52538SOL    HW159511   7.068   8.068   1.187
52538SOL    HW259512   6.982   8.105   1.069
52539SOL     OW59513  13.367   8.119  13.736
52539SOL    HW159514  13.368   8.174  13.814
52539SOL    HW259515  13.275   8.097  13.724
52540SOL     OW59516  13.081   8.277   2.742
52540SOL    HW159517  13.170   8.297   2.773
52540SOL    HW259518  13.025   8.294   2.817
52541SOL     OW59519  11.042   5.073   7.438
52541SOL    HW159520  11.049   4.990   7.485
52541SOL    HW259521  11.120   5.122   7.465
52542SOL     OW59522   7.373   0.780  11.354
52542SOL    HW159523   7.446   0.819  11.306
52542SOL    HW259524   7.415   0.732  11.426
52543SOL     OW59525   2.207   5.360   0.296
52543SOL    HW159526   2.119   5.379   0.264
52543SOL    HW259527   2.244   5.446   0.318
52544SOL     OW59528  12.392   8.211  11.362
52544SOL    HW159529  12.460   8.159  11.404
52544SOL    HW259530  12.333   8.147  11.322
52545SOL     OW59531   5.748   4.891   1.726
52545SOL    HW159532   5.787   4.804   1.726
52545SOL    HW259533   5.781   4.932   1.806
52546SOL     OW59534   6.176   5.230   4.884
52546SOL    HW159535   6.098   5.244   4.831
52546SOL    HW259536   6.159   5.276   4.966
52547SOL     OW59537  10.491  12.134  11.893
52547SOL    HW159538  10.408  12.173  11.863
52547SOL    HW259539  10.472  12.040  11.900
52548SOL     OW59540   2.876  10.311   9.969
52548SOL    HW159541   2.839  10.357   9.893
52548SOL    HW259542   2.801  10.266  10.008
52549SOL     OW59543   1.766   4.406  14.128
52549SOL    HW159544   1.813   4.481  14.164
52549SOL    HW259545   1.798   4.331  14.179
52550SOL     OW59546   3.118   2.226  10.686
52550SOL    HW159547   3.043   2.186  10.729
52550SOL    HW259548   3.118   2.190  10.597
52551SOL     OW59549   2.293   7.542  12.857
52551SOL    HW159550   2.327   7.625  12.823
52551SOL    HW259551   2.305   7.480  12.786
52552SOL     OW59552   4.673   2.962  11.691
52552SOL    HW159553   4.748   2.911  11.660
52552SOL    HW259554   4.645   2.916  11.770
52553SOL     OW59555   5.149   6.712   0.358
52553SOL    HW159556   5.244   6.700   0.360
52553SOL    HW259557   5.120   6.668   0.278
52554SOL     OW59558   0.394  11.095   2.843
52554SOL    HW159559   0.404  11.156   2.916
52554SOL    HW259560   0.469  11.112   2.786
52555SOL     OW59561   8.785   1.514  11.487
52555SOL    HW159562   8.720   1.486  11.552
52555SOL    HW259563   8.836   1.435  11.468
52556SOL     OW59564  14.811  12.372   6.962
52556SOL    HW159565  14.871  12.297   6.958
52556SOL    HW259566  14.858  12.438   7.013
52557SOL     OW59567   8.575  13.859   5.055
52557SOL    HW159568   8.516  13.792   5.020
52557SOL    HW259569   8.562  13.855   5.150
52558SOL     OW59570   3.992  11.498  12.457
52558SOL    HW159571   3.936  11.429  12.493
52558SOL    HW259572   3.950  11.522  12.375
52559SOL     OW59573   1.801   8.034   4.595
52559SOL    HW159574   1.834   8.085   4.668
52559SOL    HW259575   1.874   8.029   4.533
52560SOL     OW59576   8.220  10.012   8.005
52560SOL    HW159577   8.152  10.074   8.029
52560SOL    HW259578   8.268  10.055   7.934
52561SOL     OW59579   0.672  10.310  13.415
52561SOL    HW159580   0.681  10.277  13.326
52561SOL    HW259581   0.740  10.378  13.422
52562SOL     OW59582   0.395  10.838   4.629
52562SOL    HW159583   0.434  10.897   4.693
52562SOL    HW259584   0.345  10.775   4.682
52563SOL     OW59585  12.768   8.904   2.369
52563SOL    HW159586  12.782   8.998   2.363
52563SOL    HW259587  12.755   8.875   2.278
52564SOL     OW59588   3.835   3.032   5.254
52564SOL    HW159589   3.740   3.019   5.249
52564SOL    HW259590   3.870   2.945   5.272
52565SOL     OW59591   0.278   1.443  14.419
52565SOL    HW159592   0.213   1.435  14.350
52565SOL    HW259593   0.246   1.384  14.488
52566SOL     OW59594  13.616   3.677   8.431
52566SOL    HW159595  13.613   3.729   8.351
52566SOL    HW259596  13.527   3.682   8.466
52567SOL     OW59597   0.604  10.422   6.844
52567SOL    HW159598   0.532  10.359   6.840
52567SOL    HW259599   0.571  10.499   6.797
52568SOL     OW59600   1.558  12.500  12.535
52568SOL    HW159601   1.576  12.411  12.504
52568SOL    HW259602   1.636  12.525  12.584
52569SOL     OW59603  14.761  11.209   6.532
52569SOL    HW159604  14.675  11.238   6.562
52569SOL    HW259605  14.750  11.115   6.514
52570SOL     OW59606   9.917   8.622  14.190
52570SOL    HW159607   9.889   8.690  14.129
52570SOL    HW259608   9.936   8.668  14.271
52571SOL     OW59609  11.359   7.827  11.833
52571SOL    HW159610  11.372   7.763  11.762
52571SOL    HW259611  11.430   7.808  11.895
52572SOL     OW59612   7.221  10.953   2.271
52572SOL    HW159613   7.154  10.891   2.239
52572SOL    HW259614   7.249  10.916   2.355
52573SOL     OW59615  12.607   0.842  11.078
52573SOL    HW159616  12.598   0.913  11.141
52573SOL    HW259617  12.647   0.883  11.001
52574SOL     OW59618   0.950   1.059   6.844
52574SOL    HW159619   0.923   1.148   6.868
52574SOL    HW259620   0.977   1.019   6.927
52575SOL     OW59621   0.444   3.207   2.900
52575SOL    HW159622   0.415   3.227   2.989
52575SOL    HW259623   0.495   3.127   2.908
52576SOL     OW59624  10.415  10.950   6.943
52576SOL    HW159625  10.385  11.011   7.010
52576SOL    HW259626  10.438  11.005   6.869
52577SOL     OW59627  10.902  12.586  12.894
52577SOL    HW159628  10.948  12.506  12.869
52577SOL    HW259629  10.938  12.608  12.980
52578SOL     OW59630   3.141   4.878  12.871
52578SOL    HW159631   3.129   4.955  12.815
52578SOL    HW259632   3.182   4.913  12.951
52579SOL     OW59633   6.290   7.113   0.163
52579SOL    HW159634   6.254   7.074   0.242
52579SOL    HW259635   6.291   7.042   0.099
52580SOL     OW59636   5.871   4.439  14.225
52580SOL    HW159637   5.826   4.413  14.306
52580SOL    HW259638   5.956   4.472  14.255
52581SOL     OW59639   7.754  12.693   2.968
52581SOL    HW159640   7.664  12.705   3.000
52581SOL    HW259641   7.808  12.740   3.031
52582SOL     OW59642   2.842  10.912  13.421
52582SOL    HW159643   2.867  10.950  13.505
52582SOL    HW259644   2.916  10.856  13.397
52583SOL     OW59645   0.555  13.231   3.685
52583SOL    HW159646   0.533  13.280   3.765
52583SOL    HW259647   0.613  13.290   3.637
52584SOL     OW59648   7.486  12.040   0.499
52584SOL    HW159649   7.472  11.948   0.523
52584SOL    HW259650   7.580  12.045   0.482
52585SOL     OW59651  12.784   6.956   2.684
52585SOL    HW159652  12.785   6.866   2.652
52585SOL    HW259653  12.725   6.955   2.758
52586SOL     OW59654   7.202   0.363  12.504
52586SOL    HW159655   7.171   0.432  12.446
52586SOL    HW259656   7.193   0.282  12.453
52587SOL     OW59657   0.332  12.864  12.579
52587SOL    HW159658   0.280  12.872  12.659
52587SOL    HW259659   0.268  12.872  12.508
52588SOL     OW59660   1.306   8.108   5.882
52588SOL    HW159661   1.372   8.039   5.878
52588SOL    HW259662   1.306   8.147   5.794
52589SOL     OW59663   6.993  11.727   5.647
52589SOL    HW159664   7.021  11.684   5.727
52589SOL    HW259665   7.069  11.720   5.588
52590SOL     OW59666  11.809  10.607   5.241
52590SOL    HW159667  11.840  10.638   5.156
52590SOL    HW259668  11.869  10.536   5.264
52591SOL     OW59669   2.471  12.599   8.334
52591SOL    HW159670   2.482  12.687   8.298
52591SOL    HW259671   2.506  12.541   8.266
52592SOL     OW59672   9.889   6.391   4.245
52592SOL    HW159673   9.851   6.460   4.190
52592SOL    HW259674   9.834   6.389   4.323
52593SOL     OW59675  12.393  14.865  14.605
52593SOL    HW159676  12.360  14.828  14.523
52593SOL    HW259677  12.399  14.790  14.664
52594SOL     OW59678   8.776   4.888   0.445
52594SOL    HW159679   8.793   4.810   0.497
52594SOL    HW259680   8.740   4.855   0.362
52595SOL     OW59681  10.783   1.162   1.726
52595SOL    HW159682  10.752   1.102   1.794
52595SOL    HW259683  10.866   1.196   1.760
52596SOL     OW59684   2.405   5.450   8.785
52596SOL    HW159685   2.491   5.419   8.757
52596SOL    HW259686   2.363   5.481   8.705
52597SOL     OW59687   7.839   7.287   5.173
52597SOL    HW159688   7.914   7.246   5.129
52597SOL    HW259689   7.858   7.381   5.171
52598SOL     OW59690   4.087  10.128   0.882
52598SOL    HW159691   4.171  10.104   0.844
52598SOL    HW259692   4.090  10.095   0.971
52599SOL     OW59693   6.181   6.967   0.371
52599SOL    HW159694   6.207   6.901   0.306
52599SOL    HW259695   6.133   6.918   0.437
52600SOL     OW59696   2.095  14.423   5.315
52600SOL    HW159697   2.128  14.434   5.405
52600SOL    HW259698   2.167  14.453   5.260
52601SOL     OW59699   5.213   0.320   9.153
52601SOL    HW159700   5.147   0.266   9.196
52601SOL    HW259701   5.202   0.407   9.191
52602SOL     OW59702  10.334  10.861   2.257
52602SOL    HW159703  10.384  10.810   2.194
52602SOL    HW259704  10.368  10.835   2.343
52603SOL     OW59705   0.015   7.215  12.216
52603SOL    HW159706   0.101   7.250  12.240
52603SOL    HW259707  14.833   7.280  12.251
52604SOL     OW59708   7.661   4.908   3.797
52604SOL    HW159709   7.601   4.904   3.723
52604SOL    HW259710   7.676   5.002   3.811
52605SOL     OW59711  10.663   9.476   8.837
52605SOL    HW159712  10.654   9.533   8.914
52605SOL    HW259713  10.594   9.411   8.848
52606SOL     OW59714   7.665   8.167   4.167
52606SOL    HW159715   7.596   8.129   4.222
52606SOL    HW259716   7.620   8.195   4.088
52607SOL     OW59717  10.075   4.963   9.862
52607SOL    HW159718  10.008   5.029   9.878
52607SOL    HW259719  10.040   4.882   9.899
52608SOL     OW59720  11.419  13.907   6.895
52608SOL    HW159721  11.471  13.970   6.846
52608SOL    HW259722  11.387  13.956   6.971
52609SOL     OW59723   2.285   1.455  11.067
52609SOL    HW159724   2.362   1.478  11.119
52609SOL    HW259725   2.235   1.537  11.061
52610SOL     OW59726   3.712   5.878   3.999
52610SOL    HW159727   3.621   5.869   3.972
52610SOL    HW259728   3.762   5.836   3.929
52611SOL     OW59729   1.351   4.328   7.925
52611SOL    HW159730   1.273   4.284   7.890
52611SOL    HW259731   1.328   4.421   7.925
52612SOL     OW59732  12.015   5.631   3.276
52612SOL    HW159733  11.971   5.590   3.351
52612SOL    HW259734  11.957   5.703   3.250
52613SOL     OW59735   1.295  13.531   3.331
52613SOL    HW159736   1.310  13.620   3.301
52613SOL    HW259737   1.378  13.485   3.315
52614SOL     OW59738   1.665   0.504  12.934
52614SOL    HW159739   1.582   0.531  12.974
52614SOL    HW259740   1.714   0.585  12.921
52615SOL     OW59741   1.936   2.487  14.575
52615SOL    HW159742   2.023   2.455  14.554
52615SOL    HW259743   1.900   2.517  14.492
52616SOL     OW59744  10.794  13.589   2.410
52616SOL    HW159745  10.855  13.518   2.389
52616SOL    HW259746  10.735  13.551   2.475
52617SOL     OW59747  13.958   3.349  12.025
52617SOL    HW159748  13.889   3.296  12.065
52617SOL    HW259749  14.002   3.391  12.098
52618SOL     OW59750  12.253   2.046  10.310
52618SOL    HW159751  12.214   2.123  10.268
52618SOL    HW259752  12.279   1.990  10.237
52619SOL     OW59753  13.177  11.084   7.239
52619SOL    HW159754  13.254  11.108   7.292
52619SOL    HW259755  13.179  11.145   7.165
52620SOL     OW59756  11.917   9.892  13.968
52620SOL    HW159757  11.927   9.813  13.914
52620SOL    HW259758  11.883   9.958  13.907
52621SOL     OW59759   8.176   1.034  12.263
52621SOL    HW159760   8.141   1.124  12.265
52621SOL    HW259761   8.181   1.014  12.169
52622SOL     OW59762  13.329  12.755   7.280
52622SOL    HW159763  13.351  12.836   7.234
52622SOL    HW259764  13.410  12.729   7.323
52623SOL     OW59765  13.284   2.484   3.295
52623SOL    HW159766  13.228   2.420   3.338
52623SOL    HW259767  13.323   2.534   3.368
52624SOL     OW59768  13.004   7.949   7.343
52624SOL    HW159769  13.092   7.927   7.313
52624SOL    HW259770  13.016   7.973   7.435
52625SOL     OW59771  12.475   8.649  13.820
52625SOL    HW159772  12.502   8.568  13.778
52625SOL    HW259773  12.384   8.660  13.795
52626SOL     OW59774  13.037  12.950   8.820
52626SOL    HW159775  13.128  12.958   8.846
52626SOL    HW259776  13.002  12.880   8.876
52627SOL     OW59777   1.888   1.559   0.601
52627SOL    HW159778   1.866   1.645   0.636
52627SOL    HW259779   1.929   1.513   0.674
52628SOL     OW59780  11.778   0.964  13.536
52628SOL    HW159781  11.693   0.920  13.534
52628SOL    HW259782  11.795   0.988  13.445
52629SOL     OW59783   8.852   6.287   0.032
52629SOL    HW159784   8.910   6.258  14.841
52629SOL    HW259785   8.893   6.368   0.064
52630SOL     OW59786  13.260  10.040  12.264
52630SOL    HW159787  13.284   9.948  12.253
52630SOL    HW259788  13.182  10.051  12.211
52631SOL     OW59789   4.751  11.574   9.290
52631SOL    HW159790   4.807  11.641   9.252
52631SOL    HW259791   4.792  11.491   9.267
52632SOL     OW59792   2.863  11.858   8.182
52632SOL    HW159793   2.955  11.859   8.155
52632SOL    HW259794   2.863  11.804   8.261
52633SOL     OW59795   4.302   5.065  11.110
52633SOL    HW159796   4.254   5.131  11.061
52633SOL    HW259797   4.341   5.113  11.183
52634SOL     OW59798  13.105   0.280   3.428
52634SOL    HW159799  13.025   0.249   3.385
52634SOL    HW259800  13.170   0.286   3.358
52635SOL     OW59801  11.415   7.955  10.065
52635SOL    HW159802  11.337   7.900  10.062
52635SOL    HW259803  11.488   7.894  10.062
52636SOL     OW59804  12.836   9.292   8.218
52636SOL    HW159805  12.762   9.347   8.193
52636SOL    HW259806  12.814   9.259   8.305
52637SOL     OW59807   7.339   7.258   5.479
52637SOL    HW159808   7.413   7.275   5.420
52637SOL    HW259809   7.370   7.188   5.537
52638SOL     OW59810   4.247   1.037   9.340
52638SOL    HW159811   4.260   1.065   9.431
52638SOL    HW259812   4.238   1.118   9.291
52639SOL     OW59813   8.344   9.894   0.171
52639SOL    HW159814   8.264   9.890   0.222
52639SOL    HW259815   8.402   9.830   0.212
52640SOL     OW59816  10.055   0.240   2.793
52640SOL    HW159817  10.003   0.161   2.776
52640SOL    HW259818  10.038   0.296   2.717
52641SOL     OW59819   5.344   8.450  13.251
52641SOL    HW159820   5.348   8.408  13.165
52641SOL    HW259821   5.409   8.520  13.247
52642SOL     OW59822   2.612   5.088   8.390
52642SOL    HW159823   2.547   5.152   8.420
52642SOL    HW259824   2.691   5.140   8.373
52643SOL     OW59825  10.358   7.739   6.105
52643SOL    HW159826  10.397   7.703   6.026
52643SOL    HW259827  10.264   7.745   6.085
52644SOL     OW59828  12.596   3.863   2.948
52644SOL    HW159829  12.619   3.955   2.951
52644SOL    HW259830  12.596   3.841   2.855
52645SOL     OW59831   3.101  14.073   3.122
52645SOL    HW159832   3.080  14.001   3.181
52645SOL    HW259833   3.119  14.147   3.180
52646SOL     OW59834  10.687   8.032   1.448
52646SOL    HW159835  10.622   7.970   1.480
52646SOL    HW259836  10.644   8.118   1.456
52647SOL     OW59837   7.859  12.222   6.727
52647SOL    HW159838   7.866  12.317   6.737
52647SOL    HW259839   7.770  12.201   6.754
52648SOL     OW59840  11.964   1.112   8.386
52648SOL    HW159841  11.950   1.021   8.413
52648SOL    HW259842  11.913   1.121   8.306
52649SOL     OW59843   8.087   4.714  12.331
52649SOL    HW159844   8.078   4.621  12.310
52649SOL    HW259845   8.024   4.758  12.274
52650SOL     OW59846  11.378  14.099  13.382
52650SOL    HW159847  11.327  14.146  13.448
52650SOL    HW259848  11.354  14.141  13.299
52651SOL     OW59849  10.431  10.879   4.473
52651SOL    HW159850  10.481  10.841   4.546
52651SOL    HW259851  10.347  10.833   4.476
52652SOL     OW59852   4.094  12.438   1.344
52652SOL    HW159853   4.108  12.374   1.275
52652SOL    HW259854   4.010  12.413   1.383
52653SOL     OW59855  10.471  12.287  13.265
52653SOL    HW159856  10.423  12.326  13.192
52653SOL    HW259857  10.553  12.337  13.269
52654SOL     OW59858   8.905   6.126   5.559
52654SOL    HW159859   8.879   6.135   5.467
52654SOL    HW259860   8.854   6.051   5.591
52655SOL     OW59861  12.660  11.848   4.000
52655SOL    HW159862  12.682  11.844   4.094
52655SOL    HW259863  12.744  11.839   3.956
52656SOL     OW59864   4.329   7.604  11.748
52656SOL    HW159865   4.362   7.684  11.706
52656SOL    HW259866   4.236   7.621  11.761
52657SOL     OW59867   9.971   6.339   3.502
52657SOL    HW159868  10.021   6.281   3.444
52657SOL    HW259869   9.980   6.300   3.589
52658SOL     OW59870   5.489   5.156   4.445
52658SOL    HW159871   5.462   5.134   4.534
52658SOL    HW259872   5.407   5.176   4.400
52659SOL     OW59873  12.858   6.697   3.337
52659SOL    HW159874  12.889   6.607   3.345
52659SOL    HW259875  12.900   6.730   3.258
52660SOL     OW59876  13.942   6.391   7.520
52660SOL    HW159877  14.000   6.315   7.531
52660SOL    HW259878  13.993   6.452   7.467
52661SOL     OW59879   8.362  11.696  13.801
52661SOL    HW159880   8.295  11.685  13.869
52661SOL    HW259881   8.312  11.713  13.721
52662SOL     OW59882  12.374  10.603  14.171
52662SOL    HW159883  12.396  10.536  14.235
52662SOL    HW259884  12.279  10.608  14.172
52663SOL     OW59885   5.262   3.285  12.924
52663SOL    HW159886   5.287   3.303  12.833
52663SOL    HW259887   5.270   3.190  12.932
52664SOL     OW59888   1.167  12.749   7.333
52664SOL    HW159889   1.090  12.760   7.388
52664SOL    HW259890   1.152  12.666   7.288
52665SOL     OW59891  14.391   6.336   5.202
52665SOL    HW159892  14.420   6.419   5.164
52665SOL    HW259893  14.399   6.349   5.297
52666SOL     OW59894  11.651   5.898  14.494
52666SOL    HW159895  11.640   5.981  14.449
52666SOL    HW259896  11.600   5.836  14.442
52667SOL     OW59897  14.002   9.635   1.840
52667SOL    HW159898  13.921   9.633   1.789
52667SOL    HW259899  13.974   9.660   1.928
52668SOL     OW59900  14.035   9.008   1.568
52668SOL    HW159901  13.983   9.082   1.600
52668SOL    HW259902  14.081   9.042   1.492
52669SOL     OW59903  11.070  13.329  13.024
52669SOL    HW159904  11.111  13.415  13.031
52669SOL    HW259905  11.116  13.276  13.089
52670SOL     OW59906  11.194  14.622   3.723
52670SOL    HW159907  11.140  14.692   3.761
52670SOL    HW259908  11.232  14.578   3.799
52671SOL     OW59909   5.136  13.525  11.022
52671SOL    HW159910   5.215  13.525  10.967
52671SOL    HW259911   5.162  13.572  11.101
52672SOL     OW59912   1.257   0.787   9.473
52672SOL    HW159913   1.352   0.782   9.462
52672SOL    HW259914   1.243   0.854   9.540
52673SOL     OW59915   8.371   6.734   1.255
52673SOL    HW159916   8.305   6.676   1.291
52673SOL    HW259917   8.329   6.820   1.252
52674SOL     OW59918   8.224   4.023   7.145
52674SOL    HW159919   8.155   3.957   7.138
52674SOL    HW259920   8.188   4.100   7.102
52675SOL     OW59921  14.208  10.810  11.418
52675SOL    HW159922  14.217  10.878  11.484
52675SOL    HW259923  14.150  10.745  11.458
52676SOL     OW59924   2.404  13.716   1.103
52676SOL    HW159925   2.348  13.683   1.173
52676SOL    HW259926   2.343  13.742   1.034
52677SOL     OW59927   8.665   7.015   6.533
52677SOL    HW159928   8.620   7.081   6.481
52677SOL    HW259929   8.689   7.060   6.614
52678SOL     OW59930  13.327  14.814   1.954
52678SOL    HW159931  13.414  14.810   1.993
52678SOL    HW259932  13.295  14.724   1.958
52679SOL     OW59933   4.861   8.577  12.358
52679SOL    HW159934   4.819   8.654  12.396
52679SOL    HW259935   4.804   8.504  12.382
52680SOL     OW59936  12.812   0.758   0.196
52680SOL    HW159937  12.789   0.847   0.167
52680SOL    HW259938  12.801   0.704   0.118
52681SOL     OW59939   4.033   7.449  14.136
52681SOL    HW159940   4.011   7.430  14.227
52681SOL    HW259941   4.032   7.545  14.131
52682SOL     OW59942   7.552  11.741   6.571
52682SOL    HW159943   7.488  11.756   6.502
52682SOL    HW259944   7.636  11.767   6.532
52683SOL     OW59945  11.835  10.764  10.610
52683SOL    HW159946  11.809  10.672  10.616
52683SOL    HW259947  11.753  10.811  10.590
52684SOL     OW59948   0.805  10.330   6.679
52684SOL    HW159949   0.748  10.332   6.756
52684SOL    HW259950   0.859  10.252   6.690
52685SOL     OW59951   1.442   1.329  11.794
52685SOL    HW159952   1.513   1.274  11.762
52685SOL    HW259953   1.486   1.405  11.832
52686SOL     OW59954   5.118   9.582   9.035
52686SOL    HW159955   5.155   9.636   8.965
52686SOL    HW259956   5.184   9.514   9.049
52687SOL     OW59957   2.573   0.392  13.512
52687SOL    HW159958   2.653   0.339  13.506
52687SOL    HW259959   2.518   0.346  13.574
52688SOL     OW59960   4.298   0.982   5.651
52688SOL    HW159961   4.323   0.898   5.615
52688SOL    HW259962   4.379   1.033   5.652
52689SOL     OW59963  14.549   4.018  11.928
52689SOL    HW159964  14.486   3.948  11.911
52689SOL    HW259965  14.631   3.971  11.948
52690SOL     OW59966  12.490   7.475  11.820
52690SOL    HW159967  12.508   7.405  11.758
52690SOL    HW259968  12.412   7.446  11.867
52691SOL     OW59969  14.299  14.551   0.809
52691SOL    HW159970  14.309  14.646   0.812
52691SOL    HW259971  14.217  14.537   0.762
52692SOL     OW59972   6.090   6.758   1.876
52692SOL    HW159973   6.075   6.845   1.914
52692SOL    HW259974   6.158   6.771   1.811
52693SOL     OW59975  12.114   2.368   9.622
52693SOL    HW159976  12.019   2.360   9.616
52693SOL    HW259977  12.130   2.443   9.679
52694SOL     OW59978  14.503  10.134   9.905
52694SOL    HW159979  14.424  10.120   9.958
52694SOL    HW259980  14.568  10.076   9.942
52695SOL     OW59981   2.829   2.467   4.612
52695SOL    HW159982   2.780   2.475   4.530
52695SOL    HW259983   2.905   2.525   4.601
52696SOL     OW59984   8.455   6.722   4.898
52696SOL    HW159985   8.445   6.813   4.927
52696SOL    HW259986   8.501   6.728   4.815
52697SOL     OW59987   2.862   7.288  10.943
52697SOL    HW159988   2.771   7.312  10.926
52697SOL    HW259989   2.864   7.267  11.036
52698SOL     OW59990   1.817  12.824   0.138
52698SOL    HW159991   1.745  12.762   0.147
52698SOL    HW259992   1.831  12.831   0.044
52699SOL     OW59993  10.574   0.130   7.142
52699SOL    HW159994  10.629   0.101   7.215
52699SOL    HW259995  10.542   0.049   7.103
52700SOL     OW59996   8.532  14.105   0.919
52700SOL    HW159997   8.558  14.033   0.861
52700SOL    HW259998   8.581  14.089   1.000
52701SOL     OW59999   0.264  13.840  14.784
52701SOL    HW160000   0.195  13.900  14.755
52701SOL    HW260001   0.344  13.873  14.743
52702SOL     OW60002   5.896   1.483   1.838
52702SOL    HW160003   5.969   1.545   1.827
52702SOL    HW260004   5.866   1.465   1.749
52703SOL     OW60005  13.584   8.828   7.038
52703SOL    HW160006  13.566   8.886   7.111
52703SOL    HW260007  13.594   8.741   7.077
52704SOL     OW60008   8.652   8.319   7.710
52704SOL    HW160009   8.615   8.392   7.758
52704SOL    HW260010   8.577   8.265   7.686
52705SOL     OW60011  12.017   9.574  10.521
52705SOL    HW160012  12.050   9.589  10.432
52705SOL    HW260013  12.059   9.493  10.549
52706SOL     OW60014  10.206   1.326   3.383
52706SOL    HW160015  10.236   1.266   3.451
52706SOL    HW260016  10.284   1.344   3.331
52707SOL     OW60017   7.966   0.198   0.783
52707SOL    HW160018   8.001   0.164   0.701
52707SOL    HW260019   7.971   0.123   0.843
52708SOL     OW60020   8.549  14.624   2.439
52708SOL    HW160021   8.479  14.572   2.400
52708SOL    HW260022   8.504  14.685   2.497
52709SOL     OW60023   9.206   5.016  14.004
52709SOL    HW160024   9.117   5.035  14.035
52709SOL    HW260025   9.260   5.086  14.040
52710SOL     OW60026  14.121   1.129  13.720
52710SOL    HW160027  14.129   1.048  13.670
52710SOL    HW260028  14.038   1.168  13.691
52711SOL     OW60029  13.610  10.157   6.194
52711SOL    HW160030  13.643  10.125   6.110
52711SOL    HW260031  13.678  10.217   6.225
52712SOL     OW60032   3.824   9.529  13.097
52712SOL    HW160033   3.838   9.436  13.115
52712SOL    HW260034   3.873   9.546  13.016
52713SOL     OW60035  13.249  14.554   1.974
52713SOL    HW160036  13.328  14.528   2.021
52713SOL    HW260037  13.186  14.484   1.993
52714SOL     OW60038   7.845  13.856   9.426
52714SOL    HW160039   7.773  13.880   9.485
52714SOL    HW260040   7.801  13.825   9.346
52715SOL     OW60041   6.896   8.416  10.702
52715SOL    HW160042   6.913   8.344  10.641
52715SOL    HW260043   6.889   8.494  10.647
52716SOL     OW60044   1.795   0.702   3.148
52716SOL    HW160045   1.818   0.737   3.234
52716SOL    HW260046   1.824   0.611   3.150
52717SOL     OW60047   9.928   8.460   0.910
52717SOL    HW160048   9.839   8.446   0.877
52717SOL    HW260049   9.966   8.372   0.913
52718SOL     OW60050   0.119  13.913   8.347
52718SOL    HW160051   0.207  13.925   8.312
52718SOL    HW260052   0.066  13.887   8.271
52719SOL     OW60053   7.575   4.166  12.607
52719SOL    HW160054   7.560   4.163  12.512
52719SOL    HW260055   7.549   4.079  12.638
52720SOL     OW60056  14.299   8.470   4.958
52720SOL    HW160057  14.267   8.460   4.868
52720SOL    HW260058  14.364   8.401   4.968
52721SOL     OW60059   4.715  10.294  13.347
52721SOL    HW160060   4.783  10.242  13.304
52721SOL    HW260061   4.642  10.294  13.285
52722SOL     OW60062   4.830   5.024   6.858
52722SOL    HW160063   4.793   5.112   6.867
52722SOL    HW260064   4.835   5.010   6.764
52723SOL     OW60065   0.893   3.081  13.939
52723SOL    HW160066   0.966   3.115  13.888
52723SOL    HW260067   0.930   3.063  14.025
52724SOL     OW60068   0.956   4.360   3.414
52724SOL    HW160069   0.922   4.272   3.424
52724SOL    HW260070   1.047   4.354   3.443
52725SOL     OW60071   2.449  10.724   7.046
52725SOL    HW160072   2.398  10.799   7.077
52725SOL    HW260073   2.534  10.761   7.022
52726SOL     OW60074   0.915   3.632   9.975
52726SOL    HW160075   0.879   3.628  10.063
52726SOL    HW260076   1.010   3.620   9.988
52727SOL     OW60077   1.822   8.012  13.843
52727SOL    HW160078   1.913   8.036  13.861
52727SOL    HW260079   1.774   8.095  13.849
52728SOL     OW60080   8.669   6.704  12.081
52728SOL    HW160081   8.655   6.798  12.079
52728SOL    HW260082   8.763   6.693  12.073
52729SOL     OW60083  11.996   6.020   7.659
52729SOL    HW160084  12.079   6.037   7.615
52729SOL    HW260085  11.933   6.078   7.616
52730SOL     OW60086   2.702   0.112  10.599
52730SOL    HW160087   2.739   0.127  10.686
52730SOL    HW260088   2.706   0.197  10.556
52731SOL     OW60089   0.240  11.736   1.651
52731SOL    HW160090   0.258  11.644   1.631
52731SOL    HW260091   0.271  11.784   1.574
52732SOL     OW60092  10.769  13.759   9.653
52732SOL    HW160093  10.724  13.677   9.675
52732SOL    HW260094  10.745  13.819   9.724
52733SOL     OW60095  12.622   8.300  14.334
52733SOL    HW160096  12.627   8.228  14.271
52733SOL    HW260097  12.610   8.257  14.419
52734SOL     OW60098  12.839   4.486   7.689
52734SOL    HW160099  12.917   4.497   7.633
52734SOL    HW260100  12.850   4.400   7.728
52735SOL     OW60101   3.527   1.131   2.109
52735SOL    HW160102   3.490   1.130   2.197
52735SOL    HW260103   3.532   1.038   2.085
52736SOL     OW60104   1.087   3.762   9.364
52736SOL    HW160105   1.043   3.792   9.443
52736SOL    HW260106   1.019   3.714   9.316
52737SOL     OW60107   8.852   0.325   4.570
52737SOL    HW160108   8.907   0.301   4.644
52737SOL    HW260109   8.893   0.282   4.495
52738SOL     OW60110   1.142   5.495  14.104
52738SOL    HW160111   1.118   5.527  14.191
52738SOL    HW260112   1.207   5.557  14.072
52739SOL     OW60113   5.766  10.275   4.812
52739SOL    HW160114   5.797  10.254   4.724
52739SOL    HW260115   5.825  10.228   4.871
52740SOL     OW60116  10.963  11.288   1.919
52740SOL    HW160117  10.873  11.296   1.953
52740SOL    HW260118  10.987  11.198   1.937
52741SOL     OW60119   1.931   8.218   9.926
52741SOL    HW160120   1.842   8.252   9.925
52741SOL    HW260121   1.942   8.180  10.014
52742SOL     OW60122  14.678   5.844   9.194
52742SOL    HW160123  14.713   5.888   9.271
52742SOL    HW260124  14.602   5.897   9.170
52743SOL     OW60125   8.703  10.220   6.994
52743SOL    HW160126   8.620  10.190   7.032
52743SOL    HW260127   8.753  10.252   7.070
52744SOL     OW60128   0.771  13.771   8.016
52744SOL    HW160129   0.705  13.760   8.083
52744SOL    HW260130   0.854  13.756   8.061
52745SOL     OW60131   5.955  11.331   3.627
52745SOL    HW160132   5.915  11.319   3.540
52745SOL    HW260133   6.005  11.251   3.642
52746SOL     OW60134   1.120   6.434   4.288
52746SOL    HW160135   1.092   6.513   4.241
52746SOL    HW260136   1.211   6.421   4.261
52747SOL     OW60137  10.335   0.264  11.094
52747SOL    HW160138  10.342   0.203  11.020
52747SOL    HW260139  10.424   0.273  11.126
52748SOL     OW60140   8.304   9.422  13.699
52748SOL    HW160141   8.384   9.422  13.751
52748SOL    HW260142   8.307   9.342  13.648
52749SOL     OW60143  11.346  10.714   7.908
52749SOL    HW160144  11.380  10.695   7.821
52749SOL    HW260145  11.356  10.631   7.955
52750SOL     OW60146   8.785  11.247  12.378
52750SOL    HW160147   8.840  11.323  12.363
52750SOL    HW260148   8.750  11.225  12.292
52751SOL     OW60149   7.694   1.326   7.999
52751SOL    HW160150   7.727   1.392   7.938
52751SOL    HW260151   7.613   1.364   8.034
52752SOL     OW60152   5.018   9.352   4.090
52752SOL    HW160153   5.015   9.267   4.047
52752SOL    HW260154   4.926   9.376   4.102
52753SOL     OW60155   5.132  12.584   0.105
52753SOL    HW160156   5.113  12.649   0.172
52753SOL    HW260157   5.156  12.506   0.153
52754SOL     OW60158  10.050   4.258   7.550
52754SOL    HW160159  10.088   4.170   7.541
52754SOL    HW260160   9.963   4.250   7.511
52755SOL     OW60161   3.878  12.444  11.093
52755SOL    HW160162   3.854  12.372  11.035
52755SOL    HW260163   3.951  12.487  11.050
52756SOL     OW60164  12.658  13.446   6.949
52756SOL    HW160165  12.673  13.393   6.870
52756SOL    HW260166  12.589  13.508   6.924
52757SOL     OW60167  11.781   2.779   7.214
52757SOL    HW160168  11.801   2.693   7.176
52757SOL    HW260169  11.833   2.840   7.163
52758SOL     OW60170  13.509   4.645   9.515
52758SOL    HW160171  13.471   4.588   9.448
52758SOL    HW260172  13.434   4.675   9.566
52759SOL     OW60173   0.041   4.291   2.152
52759SOL    HW160174   0.088   4.258   2.076
52759SOL    HW260175  14.841   4.238   2.156
52760SOL     OW60176   9.171  13.098  14.129
52760SOL    HW160177   9.245  13.073  14.074
52760SOL    HW260178   9.138  13.015  14.164
52761SOL     OW60179   5.727   0.393   4.821
52761SOL    HW160180   5.732   0.468   4.761
52761SOL    HW260181   5.756   0.318   4.768
52762SOL     OW60182  12.020  14.485   1.286
52762SOL    HW160183  12.018  14.486   1.382
52762SOL    HW260184  11.933  14.453   1.261
52763SOL     OW60185   3.606   7.721   0.207
52763SOL    HW160186   3.664   7.753   0.138
52763SOL    HW260187   3.655   7.651   0.250
52764SOL     OW60188   5.142   6.084   3.021
52764SOL    HW160189   5.080   6.156   3.017
52764SOL    HW260190   5.087   6.005   3.019
52765SOL     OW60191   3.422  10.737  14.453
52765SOL    HW160192   3.485  10.668  14.472
52765SOL    HW260193   3.463  10.789  14.384
52766SOL     OW60194  12.506   0.899   8.289
52766SOL    HW160195  12.566   0.953   8.237
52766SOL    HW260196  12.501   0.944   8.374
52767SOL     OW60197   9.058   2.929  13.178
52767SOL    HW160198   9.032   3.002  13.122
52767SOL    HW260199   9.153   2.937  13.185
52768SOL     OW60200  10.266   7.605   9.196
52768SOL    HW160201  10.238   7.577   9.109
52768SOL    HW260202  10.191   7.583   9.253
52769SOL     OW60203   3.225   5.067   9.756
52769SOL    HW160204   3.200   5.049   9.847
52769SOL    HW260205   3.285   5.141   9.761
52770SOL     OW60206   3.813   5.389   7.209
52770SOL    HW160207   3.805   5.294   7.218
52770SOL    HW260208   3.732   5.424   7.248
52771SOL     OW60209   3.194  12.163  10.677
52771SOL    HW160210   3.120  12.169  10.737
52771SOL    HW260211   3.260  12.222  10.714
52772SOL     OW60212  12.121   5.376   2.722
52772SOL    HW160213  12.082   5.289   2.735
52772SOL    HW260214  12.201   5.359   2.672
52773SOL     OW60215  12.417   4.424   2.740
52773SOL    HW160216  12.344   4.378   2.781
52773SOL    HW260217  12.411   4.513   2.775
52774SOL     OW60218   1.570   1.219   6.342
52774SOL    HW160219   1.543   1.132   6.371
52774SOL    HW260220   1.594   1.206   6.250
52775SOL     OW60221   0.130   5.574   7.792
52775SOL    HW160222   0.146   5.499   7.734
52775SOL    HW260223   0.086   5.638   7.736
52776SOL     OW60224  11.081   9.021  14.086
52776SOL    HW160225  11.067   9.074  14.007
52776SOL    HW260226  11.070   9.083  14.158
52777SOL     OW60227   0.863   8.007  12.406
52777SOL    HW160228   0.923   7.933  12.401
52777SOL    HW260229   0.865   8.033  12.498
52778SOL     OW60230  10.341  12.993   1.449
52778SOL    HW160231  10.328  12.899   1.455
52778SOL    HW260232  10.422  13.010   1.497
52779SOL     OW60233   7.798  10.925   1.147
52779SOL    HW160234   7.870  10.958   1.093
52779SOL    HW260235   7.720  10.970   1.113
52780SOL     OW60236  11.908  14.199   4.704
52780SOL    HW160237  11.813  14.196   4.709
52780SOL    HW260238  11.935  14.239   4.787
52781SOL     OW60239   2.176  10.427  10.896
52781SOL    HW160240   2.241  10.496  10.909
52781SOL    HW260241   2.222  10.347  10.920
52782SOL     OW60242   7.620   1.121  11.879
52782SOL    HW160243   7.554   1.183  11.848
52782SOL    HW260244   7.590   1.036  11.845
52783SOL     OW60245   1.399  10.082   6.326
52783SOL    HW160246   1.427  10.008   6.381
52783SOL    HW260247   1.313  10.105   6.359
52784SOL     OW60248   1.499   2.213   1.984
52784SOL    HW160249   1.447   2.166   1.919
52784SOL    HW260250   1.516   2.149   2.053
52785SOL     OW60251  12.837  10.816  12.558
52785SOL    HW160252  12.928  10.841  12.545
52785SOL    HW260253  12.799  10.888  12.609
52786SOL     OW60254   4.942   0.599   3.195
52786SOL    HW160255   4.986   0.674   3.155
52786SOL    HW260256   4.865   0.636   3.238
52787SOL     OW60257   3.102   2.257   7.439
52787SOL    HW160258   3.134   2.202   7.510
52787SOL    HW260259   3.059   2.330   7.482
52788SOL     OW60260  14.004  12.792  10.827
52788SOL    HW160261  13.949  12.851  10.775
52788SOL    HW260262  14.067  12.850  10.871
52789SOL     OW60263  10.637  11.120  14.612
52789SOL    HW160264  10.677  11.205  14.595
52789SOL    HW260265  10.652  11.070  14.531
52790SOL     OW60266  11.639   2.243   2.204
52790SOL    HW160267  11.565   2.224   2.262
52790SOL    HW260268  11.707   2.278   2.262
52791SOL     OW60269  10.093   8.544  12.758
52791SOL    HW160270  10.129   8.574  12.841
52791SOL    HW260271  10.151   8.582  12.692
52792SOL     OW60272   1.405   4.138   1.489
52792SOL    HW160273   1.466   4.198   1.531
52792SOL    HW260274   1.411   4.158   1.396
52793SOL     OW60275   3.594  13.131   7.886
52793SOL    HW160276   3.517  13.098   7.931
52793SOL    HW260277   3.567  13.139   7.794
52794SOL     OW60278   7.623   6.466   5.717
52794SOL    HW160279   7.605   6.553   5.683
52794SOL    HW260280   7.621   6.476   5.812
52795SOL     OW60281   5.972  11.614   9.503
52795SOL    HW160282   6.062  11.621   9.535
52795SOL    HW260283   5.980  11.574   9.417
52796SOL     OW60284  11.151   5.413   7.733
52796SOL    HW160285  11.071   5.360   7.738
52796SOL    HW260286  11.207   5.365   7.672
52797SOL     OW60287  13.216   9.340   3.875
52797SOL    HW160288  13.172   9.390   3.805
52797SOL    HW260289  13.268   9.405   3.921
52798SOL     OW60290   7.104   6.762   1.984
52798SOL    HW160291   7.028   6.819   1.997
52798SOL    HW260292   7.178   6.822   1.973
52799SOL     OW60293   3.469   0.468   2.004
52799SOL    HW160294   3.392   0.487   2.058
52799SOL    HW260295   3.445   0.499   1.917
52800SOL     OW60296   5.228  11.679   0.410
52800SOL    HW160297   5.189  11.754   0.366
52800SOL    HW260298   5.155  11.639   0.459
52801SOL     OW60299   7.407  13.240   0.132
52801SOL    HW160300   7.362  13.213   0.052
52801SOL    HW260301   7.340  13.283   0.185
52802SOL     OW60302   8.569  10.081  11.447
52802SOL    HW160303   8.564   9.988  11.424
52802SOL    HW260304   8.485  10.100  11.488
52803SOL     OW60305  10.435  13.887   5.551
52803SOL    HW160306  10.439  13.876   5.646
52803SOL    HW260307  10.447  13.799   5.516
52804SOL     OW60308   8.656  12.245   3.816
52804SOL    HW160309   8.672  12.267   3.724
52804SOL    HW260310   8.603  12.317   3.849
52805SOL     OW60311   4.523  13.070   5.576
52805SOL    HW160312   4.494  13.016   5.503
52805SOL    HW260313   4.504  13.160   5.549
52806SOL     OW60314   0.257   8.769   9.180
52806SOL    HW160315   0.321   8.831   9.145
52806SOL    HW260316   0.173   8.796   9.141
52807SOL     OW60317   3.887   5.025   4.699
52807SOL    HW160318   3.910   5.019   4.607
52807SOL    HW260319   3.961   5.070   4.739
52808SOL     OW60320   4.268   2.331  14.080
52808SOL    HW160321   4.244   2.415  14.039
52808SOL    HW260322   4.185   2.289  14.099
52809SOL     OW60323  11.486   7.751   5.494
52809SOL    HW160324  11.495   7.791   5.581
52809SOL    HW260325  11.392   7.740   5.482
52810SOL     OW60326   8.614   2.821   8.081
52810SOL    HW160327   8.657   2.836   8.166
52810SOL    HW260328   8.538   2.878   8.083
52811SOL     OW60329   6.601   4.735   6.274
52811SOL    HW160330   6.615   4.704   6.185
52811SOL    HW260331   6.606   4.830   6.268
52812SOL     OW60332  13.099   8.412   5.393
52812SOL    HW160333  13.173   8.357   5.418
52812SOL    HW260334  13.059   8.366   5.319
52813SOL     OW60335   5.456   0.985  14.257
52813SOL    HW160336   5.481   0.919  14.192
52813SOL    HW260337   5.385   1.034  14.215
52814SOL     OW60338   6.946   4.620   7.671
52814SOL    HW160339   6.980   4.710   7.667
52814SOL    HW260340   6.876   4.618   7.606
52815SOL     OW60341   9.764  11.497  10.146
52815SOL    HW160342   9.825  11.454  10.206
52815SOL    HW260343   9.774  11.449  10.064
52816SOL     OW60344   8.694   1.961   4.814
52816SOL    HW160345   8.599   1.960   4.810
52816SOL    HW260346   8.722   1.988   4.727
52817SOL     OW60347   4.732   9.475   1.667
52817SOL    HW160348   4.699   9.403   1.720
52817SOL    HW260349   4.703   9.554   1.713
52818SOL     OW60350  11.506   6.571   0.202
52818SOL    HW160351  11.580   6.627   0.226
52818SOL    HW260352  11.458   6.559   0.283
52819SOL     OW60353   1.068   7.085  11.327
52819SOL    HW160354   1.125   7.141  11.379
52819SOL    HW260355   1.005   7.050  11.390
52820SOL     OW60356   0.507   6.834   0.847
52820SOL    HW160357   0.600   6.822   0.825
52820SOL    HW260358   0.482   6.913   0.800
52821SOL     OW60359  11.052   1.237   1.786
52821SOL    HW160360  11.083   1.295   1.855
52821SOL    HW260361  11.107   1.159   1.794
52822SOL     OW60362   5.022  10.020  14.280
52822SOL    HW160363   5.021   9.934  14.322
52822SOL    HW260364   4.987  10.079  14.347
52823SOL     OW60365  12.485   3.126   5.812
52823SOL    HW160366  12.578   3.103   5.817
52823SOL    HW260367  12.480   3.187   5.738
52824SOL     OW60368   1.279  13.504   1.405
52824SOL    HW160369   1.212  13.569   1.386
52824SOL    HW260370   1.263  13.434   1.343
52825SOL     OW60371  12.716   2.164   4.604
52825SOL    HW160372  12.708   2.242   4.548
52825SOL    HW260373  12.768   2.103   4.552
52826SOL     OW60374  10.332  13.498  12.622
52826SOL    HW160375  10.363  13.564  12.561
52826SOL    HW260376  10.402  13.433  12.625
52827SOL     OW60377   8.263   5.019   4.244
52827SOL    HW160378   8.295   4.959   4.311
52827SOL    HW260379   8.175   5.043   4.274
52828SOL     OW60380   5.743   2.228  14.543
52828SOL    HW160381   5.836   2.244  14.560
52828SOL    HW260382   5.698   2.298  14.592
52829SOL     OW60383   5.940   6.411   5.769
52829SOL    HW160384   5.849   6.439   5.759
52829SOL    HW260385   5.991   6.492   5.763
52830SOL     OW60386  11.292   7.859  11.389
52830SOL    HW160387  11.205   7.844  11.426
52830SOL    HW260388  11.275   7.879  11.297
52831SOL     OW60389  14.306   5.284  10.234
52831SOL    HW160390  14.401   5.296  10.229
52831SOL    HW260391  14.273   5.366  10.268
52832SOL     OW60392  13.022   5.482  10.822
52832SOL    HW160393  13.026   5.550  10.889
52832SOL    HW260394  12.993   5.528  10.743
52833SOL     OW60395   0.653   5.220   3.967
52833SOL    HW160396   0.608   5.237   3.884
52833SOL    HW260397   0.718   5.152   3.947
52834SOL     OW60398   6.656   0.444   2.776
52834SOL    HW160399   6.598   0.476   2.845
52834SOL    HW260400   6.708   0.375   2.818
52835SOL     OW60401   0.751  10.061   4.754
52835SOL    HW160402   0.674  10.012   4.723
52835SOL    HW260403   0.732  10.152   4.732
52836SOL     OW60404   5.424  13.684   5.756
52836SOL    HW160405   5.468  13.756   5.711
52836SOL    HW260406   5.474  13.606   5.732
52837SOL     OW60407   5.794   5.786   3.807
52837SOL    HW160408   5.851   5.723   3.851
52837SOL    HW260409   5.813   5.774   3.714
52838SOL     OW60410   6.437   8.589  10.518
52838SOL    HW160411   6.424   8.544  10.435
52838SOL    HW260412   6.402   8.678  10.503
52839SOL     OW60413  11.205  10.429   5.281
52839SOL    HW160414  11.196  10.353   5.223
52839SOL    HW260415  11.230  10.392   5.365
52840SOL     OW60416   7.483  11.396   0.447
52840SOL    HW160417   7.441  11.310   0.453
52840SOL    HW260418   7.566  11.386   0.493
52841SOL     OW60419   0.357   9.116   4.745
52841SOL    HW160420   0.388   9.196   4.787
52841SOL    HW260421   0.291   9.081   4.805
52842SOL     OW60422   6.568   2.639   0.249
52842SOL    HW160423   6.533   2.555   0.279
52842SOL    HW260424   6.575   2.692   0.329
52843SOL     OW60425   7.044   4.961   6.562
52843SOL    HW160426   7.077   4.894   6.622
52843SOL    HW260427   7.071   5.044   6.602
52844SOL     OW60428  13.954  13.692   2.610
52844SOL    HW160429  13.950  13.666   2.517
52844SOL    HW260430  13.878  13.749   2.622
52845SOL     OW60431  12.378  13.559  14.528
52845SOL    HW160432  12.435  13.635  14.541
52845SOL    HW260433  12.428  13.485  14.561
52846SOL     OW60434   2.463  14.776   8.888
52846SOL    HW160435   2.422  14.855   8.854
52846SOL    HW260436   2.411  14.752   8.965
52847SOL     OW60437  10.006  12.106   3.196
52847SOL    HW160438  10.004  12.157   3.116
52847SOL    HW260439   9.998  12.015   3.167
52848SOL     OW60440  12.420   2.485   5.407
52848SOL    HW160441  12.364   2.510   5.334
52848SOL    HW260442  12.488   2.552   5.409
52849SOL     OW60443   2.128  14.518  10.090
52849SOL    HW160444   2.200  14.576  10.111
52849SOL    HW260445   2.141  14.442  10.146
52850SOL     OW60446   0.109   3.577   5.125
52850SOL    HW160447   0.087   3.616   5.210
52850SOL    HW260448   0.037   3.604   5.068
52851SOL     OW60449  13.996  14.335   0.647
52851SOL    HW160450  14.006  14.427   0.671
52851SOL    HW260451  13.951  14.337   0.562
52852SOL     OW60452   7.453  10.274  11.283
52852SOL    HW160453   7.443  10.276  11.188
52852SOL    HW260454   7.423  10.360  11.312
52853SOL     OW60455   8.575   6.519  12.261
52853SOL    HW160456   8.595   6.456  12.192
52853SOL    HW260457   8.603   6.604  12.226
52854SOL     OW60458  13.627   2.378   3.718
52854SOL    HW160459  13.642   2.335   3.803
52854SOL    HW260460  13.533   2.370   3.703
52855SOL     OW60461  10.574  10.110  10.440
52855SOL    HW160462  10.543  10.023  10.412
52855SOL    HW260463  10.669  10.104  10.434
52856SOL     OW60464   5.316  13.114   8.165
52856SOL    HW160465   5.223  13.106   8.144
52856SOL    HW260466   5.359  13.051   8.107
52857SOL     OW60467   1.018   3.021   2.127
52857SOL    HW160468   1.022   2.925   2.132
52857SOL    HW260469   1.100   3.051   2.166
52858SOL     OW60470   9.235  12.844  12.093
52858SOL    HW160471   9.151  12.844  12.047
52858SOL    HW260472   9.280  12.922  12.061
52859SOL     OW60473   0.691   4.976  12.401
52859SOL    HW160474   0.748   4.908  12.364
52859SOL    HW260475   0.632   4.929  12.459
52860SOL     OW60476   4.849   2.634  13.941
52860SOL    HW160477   4.896   2.554  13.914
52860SOL    HW260478   4.845   2.686  13.861
52861SOL     OW60479   3.318  14.087  11.689
52861SOL    HW160480   3.331  14.018  11.754
52861SOL    HW260481   3.290  14.042  11.610
52862SOL     OW60482   4.785   5.976  10.146
52862SOL    HW160483   4.790   6.031  10.225
52862SOL    HW260484   4.724   5.906  10.170
52863SOL     OW60485   2.785  11.610   8.057
52863SOL    HW160486   2.859  11.669   8.046
52863SOL    HW260487   2.823  11.529   8.092
52864SOL     OW60488   8.870  13.408  11.071
52864SOL    HW160489   8.891  13.440  11.159
52864SOL    HW260490   8.780  13.438  11.057
52865SOL     OW60491   3.798   5.040   6.122
52865SOL    HW160492   3.748   5.048   6.203
52865SOL    HW260493   3.785   5.124   6.077
52866SOL     OW60494  10.162   5.427  10.814
52866SOL    HW160495  10.105   5.489  10.767
52866SOL    HW260496  10.225   5.398  10.748
52867SOL     OW60497   4.373   1.673   2.423
52867SOL    HW160498   4.417   1.723   2.354
52867SOL    HW260499   4.407   1.709   2.504
52868SOL     OW60500   2.547  12.404  10.659
52868SOL    HW160501   2.543  12.383  10.566
52868SOL    HW260502   2.602  12.482  10.663
52869SOL     OW60503  13.116   0.009  11.045
52869SOL    HW160504  13.087  14.833  11.116
52869SOL    HW260505  13.038   0.058  11.018
52870SOL     OW60506   0.710   5.128   6.096
52870SOL    HW160507   0.724   5.189   6.168
52870SOL    HW260508   0.712   5.182   6.017
52871SOL     OW60509   9.163  14.629  14.003
52871SOL    HW160510   9.151  14.709  13.952
52871SOL    HW260511   9.075  14.608  14.036
52872SOL     OW60512   9.049  10.740   3.638
52872SOL    HW160513   9.107  10.783   3.700
52872SOL    HW260514   9.104  10.674   3.596
52873SOL     OW60515   9.470  12.331   0.112
52873SOL    HW160516   9.379  12.358   0.100
52873SOL    HW260517   9.487  12.345   0.205
52874SOL     OW60518   3.207   7.968   3.331
52874SOL    HW160519   3.290   7.936   3.295
52874SOL    HW260520   3.211   7.946   3.424
52875SOL     OW60521   5.781   9.322   3.680
52875SOL    HW160522   5.743   9.237   3.656
52875SOL    HW260523   5.828   9.349   3.601
52876SOL     OW60524   7.956   6.831   6.660
52876SOL    HW160525   7.903   6.856   6.736
52876SOL    HW260526   7.999   6.913   6.633
52877SOL     OW60527  14.140   0.615  13.757
52877SOL    HW160528  14.072   0.624  13.824
52877SOL    HW260529  14.132   0.525  13.726
52878SOL     OW60530   7.580   8.202   0.304
52878SOL    HW160531   7.619   8.281   0.341
52878SOL    HW260532   7.609   8.201   0.213
52879SOL     OW60533   2.289  10.702   7.743
52879SOL    HW160534   2.310  10.781   7.693
52879SOL    HW260535   2.310  10.630   7.684
52880SOL     OW60536   3.785   6.717   2.087
52880SOL    HW160537   3.738   6.768   2.152
52880SOL    HW260538   3.827   6.647   2.137
52881SOL     OW60539   8.169  10.995  14.009
52881SOL    HW160540   8.074  10.996  14.004
52881SOL    HW260541   8.188  10.943  14.088
52882SOL     OW60542  12.481   9.411   0.026
52882SOL    HW160543  12.440   9.403   0.112
52882SOL    HW260544  12.509   9.321   0.005
52883SOL     OW60545  13.620   5.218   7.556
52883SOL    HW160546  13.530   5.245   7.572
52883SOL    HW260547  13.668   5.247   7.634
52884SOL     OW60548   3.831   6.173  14.759
52884SOL    HW160549   3.817   6.080  14.744
52884SOL    HW260550   3.829   6.212  14.671
52885SOL     OW60551   9.354   3.431   6.568
52885SOL    HW160552   9.337   3.368   6.498
52885SOL    HW260553   9.269   3.473   6.583
52886SOL     OW60554   7.133   5.809   4.515
52886SOL    HW160555   7.084   5.810   4.597
52886SOL    HW260556   7.093   5.738   4.464
52887SOL     OW60557  14.629  12.423   2.379
52887SOL    HW160558  14.661  12.475   2.305
52887SOL    HW260559  14.691  12.351   2.386
52888SOL     OW60560  12.308   1.184  11.552
52888SOL    HW160561  12.212   1.186  11.550
52888SOL    HW260562  12.332   1.125  11.480
52889SOL     OW60563   6.063  10.821  13.775
52889SOL    HW160564   6.151  10.848  13.801
52889SOL    HW260565   6.038  10.882  13.706
52890SOL     OW60566   8.423   7.744  11.596
52890SOL    HW160567   8.392   7.668  11.546
52890SOL    HW260568   8.510   7.762  11.561
52891SOL     OW60569   3.170   8.536   7.681
52891SOL    HW160570   3.075   8.529   7.691
52891SOL    HW260571   3.204   8.454   7.714
52892SOL     OW60572   6.233   2.283   5.359
52892SOL    HW160573   6.189   2.368   5.355
52892SOL    HW260574   6.208   2.247   5.444
52893SOL     OW60575   7.447   4.714   9.877
52893SOL    HW160576   7.417   4.655   9.946
52893SOL    HW260577   7.386   4.788   9.880
52894SOL     OW60578   8.914  13.884   9.180
52894SOL    HW160579   8.856  13.885   9.256
52894SOL    HW260580   9.001  13.870   9.216
52895SOL     OW60581   1.995   5.831   7.428
52895SOL    HW160582   2.009   5.851   7.335
52895SOL    HW260583   2.004   5.736   7.434
52896SOL     OW60584   0.192  10.064   6.955
52896SOL    HW160585   0.212  10.037   7.044
52896SOL    HW260586   0.134   9.996   6.921
52897SOL     OW60587   1.920   6.919   3.840
52897SOL    HW160588   1.938   6.982   3.770
52897SOL    HW260589   1.910   6.972   3.918
52898SOL     OW60590   2.289  11.244  12.422
52898SOL    HW160591   2.193  11.244  12.429
52898SOL    HW260592   2.306  11.215  12.332
52899SOL     OW60593   2.664  14.601  10.166
52899SOL    HW160594   2.610  14.678  10.145
52899SOL    HW260595   2.685  14.563  10.081
52900SOL     OW60596   2.091   5.970   0.922
52900SOL    HW160597   2.084   5.966   1.018
52900SOL    HW260598   2.018   5.916   0.891
52901SOL     OW60599   0.579   4.218  11.882
52901SOL    HW160600   0.638   4.263  11.943
52901SOL    HW260601   0.608   4.246  11.795
52902SOL     OW60602  13.940  14.279   3.270
52902SOL    HW160603  14.019  14.326   3.244
52902SOL    HW260604  13.970  14.218   3.337
52903SOL     OW60605   7.185   2.342   1.817
52903SOL    HW160606   7.220   2.308   1.735
52903SOL    HW260607   7.128   2.414   1.790
52904SOL     OW60608   6.223   9.279  12.334
52904SOL    HW160609   6.200   9.188  12.353
52904SOL    HW260610   6.163   9.331  12.387
52905SOL     OW60611   1.820   6.403  13.798
52905SOL    HW160612   1.836   6.377  13.708
52905SOL    HW260613   1.763   6.480  13.791
52906SOL     OW60614   8.378   5.651   4.842
52906SOL    HW160615   8.425   5.727   4.809
52906SOL    HW260616   8.394   5.582   4.777
52907SOL     OW60617   4.519   1.091  11.918
52907SOL    HW160618   4.578   1.037  11.864
52907SOL    HW260619   4.458   1.028  11.955
52908SOL     OW60620  13.597  11.326   5.174
52908SOL    HW160621  13.563  11.415   5.182
52908SOL    HW260622  13.543  11.286   5.105
52909SOL     OW60623  10.265  14.725   7.188
52909SOL    HW160624  10.237  14.662   7.122
52909SOL    HW260625  10.361  14.727   7.181
52910SOL     OW60626   4.232   9.353  14.667
52910SOL    HW160627   4.183   9.369  14.748
52910SOL    HW260628   4.186   9.404  14.601
52911SOL     OW60629  10.981   4.717   6.008
52911SOL    HW160630  11.039   4.785   5.975
52911SOL    HW260631  11.022   4.635   5.982
52912SOL     OW60632  11.961   4.854   1.983
52912SOL    HW160633  12.043   4.853   2.031
52912SOL    HW260634  11.901   4.803   2.036
52913SOL     OW60635   7.951   8.424   3.248
52913SOL    HW160636   7.872   8.464   3.284
52913SOL    HW260637   8.002   8.497   3.215
52914SOL     OW60638   7.429  14.339   2.405
52914SOL    HW160639   7.455  14.338   2.497
52914SOL    HW260640   7.423  14.432   2.383
52915SOL     OW60641   4.588   5.392   4.793
52915SOL    HW160642   4.528   5.466   4.781
52915SOL    HW260643   4.539   5.317   4.760
52916SOL     OW60644   5.071  12.363  14.404
52916SOL    HW160645   5.081  12.417  14.326
52916SOL    HW260646   5.054  12.275  14.370
52917SOL     OW60647   8.182   7.961   9.114
52917SOL    HW160648   8.129   7.956   9.034
52917SOL    HW260649   8.121   7.939   9.185
52918SOL     OW60650   8.881   2.561   8.395
52918SOL    HW160651   8.868   2.600   8.308
52918SOL    HW260652   8.971   2.583   8.417
52919SOL     OW60653   9.668  12.452  11.385
52919SOL    HW160654   9.576  12.443  11.410
52919SOL    HW260655   9.716  12.430  11.465
52920SOL     OW60656   9.741   4.063   4.515
52920SOL    HW160657   9.778   4.059   4.603
52920SOL    HW260658   9.667   4.123   4.523
52921SOL     OW60659   9.183   0.731   3.017
52921SOL    HW160660   9.258   0.742   2.958
52921SOL    HW260661   9.109   0.715   2.958
52922SOL     OW60662  14.857   9.554   8.069
52922SOL    HW160663  14.824   9.483   8.124
52922SOL    HW260664  14.866   9.628   8.128
52923SOL     OW60665  10.633   2.366  12.708
52923SOL    HW160666  10.694   2.439  12.710
52923SOL    HW260667  10.667   2.305  12.774
52924SOL     OW60668   3.303   7.651   2.775
52924SOL    HW160669   3.296   7.557   2.795
52924SOL    HW260670   3.260   7.661   2.690
52925SOL     OW60671   2.980  11.229  10.667
52925SOL    HW160672   2.934  11.160  10.714
52925SOL    HW260673   3.039  11.182  10.607
52926SOL     OW60674   1.693  14.722   0.832
52926SOL    HW160675   1.763  14.687   0.776
52926SOL    HW260676   1.735  14.732   0.918
52927SOL     OW60677   9.083   9.388  12.314
52927SOL    HW160678   8.998   9.404  12.272
52927SOL    HW260679   9.146   9.432  12.257
52928SOL     OW60680   1.356   3.274   6.369
52928SOL    HW160681   1.313   3.358   6.381
52928SOL    HW260682   1.370   3.241   6.458
52929SOL     OW60683   4.391   3.284   6.255
52929SOL    HW160684   4.439   3.201   6.258
52929SOL    HW260685   4.411   3.326   6.339
52930SOL     OW60686   0.186   1.817  11.534
52930SOL    HW160687   0.153   1.727  11.528
52930SOL    HW260688   0.152   1.860  11.457
52931SOL     OW60689  11.599  11.155   1.756
52931SOL    HW160690  11.614  11.249   1.764
52931SOL    HW260691  11.556  11.131   1.838
52932SOL     OW60692   8.694   6.685  12.516
52932SOL    HW160693   8.765   6.631  12.551
52932SOL    HW260694   8.644   6.626  12.459
52933SOL     OW60695   6.633  11.806   2.738
52933SOL    HW160696   6.712  11.757   2.717
52933SOL    HW260697   6.562  11.744   2.725
52934SOL     OW60698   3.564   2.632   2.864
52934SOL    HW160699   3.539   2.658   2.952
52934SOL    HW260700   3.646   2.585   2.875
52935SOL     OW60701   3.648  10.629   4.262
52935SOL    HW160702   3.682  10.654   4.348
52935SOL    HW260703   3.557  10.607   4.278
52936SOL     OW60704  11.501  13.782   2.483
52936SOL    HW160705  11.437  13.831   2.430
52936SOL    HW260706  11.470  13.692   2.480
52937SOL     OW60707   2.227   8.313  10.389
52937SOL    HW160708   2.165   8.372  10.347
52937SOL    HW260709   2.231   8.237  10.332
52938SOL     OW60710   7.952  14.159   2.795
52938SOL    HW160711   7.908  14.151   2.711
52938SOL    HW260712   8.040  14.123   2.780
52939SOL     OW60713   1.386   6.923   7.463
52939SOL    HW160714   1.462   6.961   7.507
52939SOL    HW260715   1.409   6.923   7.370
52940SOL     OW60716   2.935   8.759   8.322
52940SOL    HW160717   2.894   8.715   8.248
52940SOL    HW260718   2.901   8.849   8.319
52941SOL     OW60719   4.059  14.822  11.734
52941SOL    HW160720   4.054  14.727  11.741
52941SOL    HW260721   4.126  14.838  11.668
52942SOL     OW60722   1.334  13.931  10.198
52942SOL    HW160723   1.380  13.985  10.262
52942SOL    HW260724   1.386  13.851  10.193
52943SOL     OW60725   2.606   1.262   0.793
52943SOL    HW160726   2.663   1.300   0.860
52943SOL    HW260727   2.617   1.167   0.803
52944SOL     OW60728   2.526   2.750  10.832
52944SOL    HW160729   2.537   2.683  10.765
52944SOL    HW260730   2.520   2.833  10.783
52945SOL     OW60731  10.871   1.262   6.675
52945SOL    HW160732  10.895   1.259   6.768
52945SOL    HW260733  10.799   1.325   6.671
52946SOL     OW60734  14.303  12.085   0.313
52946SOL    HW160735  14.229  12.068   0.371
52946SOL    HW260736  14.265  12.083   0.225
52947SOL     OW60737   5.622  11.384   8.836
52947SOL    HW160738   5.542  11.437   8.837
52947SOL    HW260739   5.625  11.347   8.748
52948SOL     OW60740   3.720  10.974   0.539
52948SOL    HW160741   3.748  10.883   0.538
52948SOL    HW260742   3.655  10.978   0.609
52949SOL     OW60743  14.648   5.391   8.691
52949SOL    HW160744  14.720   5.388   8.754
52949SOL    HW260745  14.651   5.480   8.655
52950SOL     OW60746   8.358   5.680  11.874
52950SOL    HW160747   8.454   5.677  11.877
52950SOL    HW260748   8.337   5.676  11.780
52951SOL     OW60749  13.239   7.809  10.731
52951SOL    HW160750  13.204   7.721  10.731
52951SOL    HW260751  13.166   7.865  10.759
52952SOL     OW60752   7.252  11.217   8.687
52952SOL    HW160753   7.217  11.260   8.609
52952SOL    HW260754   7.325  11.274   8.714
52953SOL     OW60755   5.818   9.397   3.137
52953SOL    HW160756   5.873   9.343   3.193
52953SOL    HW260757   5.736   9.347   3.127
52954SOL     OW60758   8.040  12.338  10.768
52954SOL    HW160759   7.993  12.338  10.684
52954SOL    HW260760   7.973  12.318  10.833
52955SOL     OW60761   0.202   9.877   5.189
52955SOL    HW160762   0.206   9.963   5.148
52955SOL    HW260763   0.291   9.843   5.184
52956SOL     OW60764  11.484   2.162   5.258
52956SOL    HW160765  11.489   2.227   5.328
52956SOL    HW260766  11.425   2.200   5.194
52957SOL     OW60767   6.305   5.291  13.510
52957SOL    HW160768   6.210   5.305  13.505
52957SOL    HW260769   6.319   5.206  13.470
52958SOL     OW60770   6.767  14.788   9.058
52958SOL    HW160771   6.682  14.778   9.015
52958SOL    HW260772   6.749  14.838   9.137
52959SOL     OW60773  11.785   4.677   5.103
52959SOL    HW160774  11.692   4.681   5.125
52959SOL    HW260775  11.810   4.769   5.090
52960SOL     OW60776   5.016   0.638   6.117
52960SOL    HW160777   5.038   0.672   6.203
52960SOL    HW260778   5.067   0.692   6.056
52961SOL     OW60779   0.026  13.615  12.586
52961SOL    HW160780   0.049  13.690  12.641
52961SOL    HW260781  14.879  13.653  12.503
52962SOL     OW60782   2.235  12.836   6.848
52962SOL    HW160783   2.275  12.865   6.930
52962SOL    HW260784   2.166  12.900   6.831
52963SOL     OW60785  12.646   6.821  11.285
52963SOL    HW160786  12.679   6.831  11.196
52963SOL    HW260787  12.709   6.764  11.328
52964SOL     OW60788   7.335   6.716  12.120
52964SOL    HW160789   7.390   6.752  12.050
52964SOL    HW260790   7.291   6.641  12.080
52965SOL     OW60791  14.485   4.688   1.534
52965SOL    HW160792  14.537   4.612   1.510
52965SOL    HW260793  14.516   4.758   1.477
52966SOL     OW60794   5.111  14.763  11.541
52966SOL    HW160795   5.149  14.824  11.604
52966SOL    HW260796   5.018  14.762  11.562
52967SOL     OW60797  13.742   8.520   3.840
52967SOL    HW160798  13.757   8.614   3.851
52967SOL    HW260799  13.703   8.492   3.922
52968SOL     OW60800  11.164  11.535   1.593
52968SOL    HW160801  11.176  11.562   1.502
52968SOL    HW260802  11.138  11.444   1.587
52969SOL     OW60803   1.313   9.233   4.406
52969SOL    HW160804   1.356   9.239   4.320
52969SOL    HW260805   1.334   9.316   4.449
52970SOL     OW60806   1.672   4.332  11.671
52970SOL    HW160807   1.746   4.393  11.663
52970SOL    HW260808   1.608   4.380  11.723
52971SOL     OW60809  10.822   6.220   0.736
52971SOL    HW160810  10.732   6.189   0.734
52971SOL    HW260811  10.871   6.158   0.682
52972SOL     OW60812  12.519   9.674   0.628
52972SOL    HW160813  12.451   9.621   0.669
52972SOL    HW260814  12.506   9.661   0.534
52973SOL     OW60815   8.993  13.595   1.293
52973SOL    HW160816   9.048  13.613   1.370
52973SOL    HW260817   9.056  13.585   1.221
52974SOL     OW60818  13.785   3.774   5.454
52974SOL    HW160819  13.833   3.754   5.535
52974SOL    HW260820  13.693   3.777   5.481
52975SOL     OW60821  12.247   0.082   8.788
52975SOL    HW160822  12.201   0.149   8.738
52975SOL    HW260823  12.263   0.122   8.873
52976SOL     OW60824  12.123   4.140  12.499
52976SOL    HW160825  12.140   4.046  12.509
52976SOL    HW260826  12.188   4.170  12.436
52977SOL     OW60827  10.354  12.454  13.748
52977SOL    HW160828  10.269  12.491  13.725
52977SOL    HW260829  10.333  12.376  13.800
52978SOL     OW60830   4.338   8.495   5.432
52978SOL    HW160831   4.302   8.505   5.344
52978SOL    HW260832   4.332   8.583   5.470
52979SOL     OW60833   9.580  13.998   5.951
52979SOL    HW160834   9.628  14.080   5.963
52979SOL    HW260835   9.527  13.990   6.030
52980SOL     OW60836  10.138   0.165  14.407
52980SOL    HW160837  10.228   0.186  14.430
52980SOL    HW260838  10.135   0.176  14.312
52981SOL     OW60839   7.619   3.097  12.657
52981SOL    HW160840   7.559   3.050  12.599
52981SOL    HW260841   7.676   3.030  12.692
52982SOL     OW60842   7.587   9.420  12.191
52982SOL    HW160843   7.527   9.376  12.130
52982SOL    HW260844   7.651   9.462  12.134
52983SOL     OW60845   0.066  10.816   2.013
52983SOL    HW160846   0.106  10.736   2.047
52983SOL    HW260847   0.117  10.837   1.935
52984SOL     OW60848  12.243  12.541  11.732
52984SOL    HW160849  12.217  12.633  11.731
52984SOL    HW260850  12.323  12.539  11.785
52985SOL     OW60851   8.075  12.966   0.098
52985SOL    HW160852   8.007  12.918   0.050
52985SOL    HW260853   8.089  12.915   0.178
52986SOL     OW60854   9.609   3.399  14.590
52986SOL    HW160855   9.647   3.477  14.550
52986SOL    HW260856   9.548   3.432  14.656
52987SOL     OW60857   8.867   7.725   9.047
52987SOL    HW160858   8.918   7.743   8.969
52987SOL    HW260859   8.923   7.670   9.101
52988SOL     OW60860  13.886   6.487   7.830
52988SOL    HW160861  13.955   6.455   7.772
52988SOL    HW260862  13.823   6.416   7.833
52989SOL     OW60863   2.524   3.441  11.560
52989SOL    HW160864   2.609   3.478  11.537
52989SOL    HW260865   2.535   3.408  11.649
52990SOL     OW60866   9.354   5.091   5.961
52990SOL    HW160867   9.371   4.997   5.952
52990SOL    HW260868   9.346   5.122   5.871
52991SOL     OW60869  13.267   1.578   3.600
52991SOL    HW160870  13.255   1.663   3.557
52991SOL    HW260871  13.254   1.596   3.693
52992SOL     OW60872   7.382   4.919   5.810
52992SOL    HW160873   7.301   4.905   5.760
52992SOL    HW260874   7.443   4.854   5.776
52993SOL     OW60875   7.430   6.969   4.264
52993SOL    HW160876   7.356   7.022   4.236
52993SOL    HW260877   7.503   7.000   4.211
52994SOL     OW60878   6.287  14.713   9.385
52994SOL    HW160879   6.358  14.680   9.439
52994SOL    HW260880   6.230  14.759   9.447
52995SOL     OW60881   9.422   6.917   1.272
52995SOL    HW160882   9.373   6.946   1.349
52995SOL    HW260883   9.358   6.870   1.219
52996SOL     OW60884   4.324  13.778   1.935
52996SOL    HW160885   4.283  13.753   1.853
52996SOL    HW260886   4.386  13.848   1.911
52997SOL     OW60887  14.049   8.989  10.866
52997SOL    HW160888  13.992   8.920  10.831
52997SOL    HW260889  14.131   8.943  10.886
52998SOL     OW60890   6.919   5.949   8.737
52998SOL    HW160891   7.006   5.987   8.724
52998SOL    HW260892   6.871   5.972   8.658
52999SOL     OW60893   9.403   6.207   4.681
52999SOL    HW160894   9.350   6.215   4.761
52999SOL    HW260895   9.419   6.297   4.654
53000SOL     OW60896   0.992   1.146   5.575
53000SOL    HW160897   0.949   1.086   5.514
53000SOL    HW260898   0.930   1.157   5.647
53001SOL     OW60899  13.062   7.387   1.043
53001SOL    HW160900  13.040   7.373   1.135
53001SOL    HW260901  13.152   7.357   1.035
53002SOL     OW60902  10.305   0.150   2.871
53002SOL    HW160903  10.225   0.201   2.856
53002SOL    HW260904  10.376   0.206   2.838
53003SOL     OW60905   0.853   3.708   1.341
53003SOL    HW160906   0.760   3.713   1.360
53003SOL    HW260907   0.885   3.634   1.393
53004SOL     OW60908   9.449   2.652   9.162
53004SOL    HW160909   9.439   2.580   9.224
53004SOL    HW260910   9.498   2.615   9.089
53005SOL     OW60911  10.605  12.937   9.267
53005SOL    HW160912  10.584  13.023   9.231
53005SOL    HW260913  10.527  12.913   9.318
53006SOL     OW60914   1.024   3.499   6.567
53006SOL    HW160915   1.114   3.479   6.540
53006SOL    HW260916   0.980   3.413   6.567
53007SOL     OW60917   3.947   7.699  13.195
53007SOL    HW160918   3.883   7.636  13.229
53007SOL    HW260919   4.023   7.689  13.252
53008SOL     OW60920   5.138   3.558   0.248
53008SOL    HW160921   5.065   3.596   0.199
53008SOL    HW260922   5.178   3.497   0.185
53009SOL     OW60923   7.354   2.420   8.781
53009SOL    HW160924   7.378   2.328   8.777
53009SOL    HW260925   7.270   2.421   8.827
53010SOL     OW60926   2.230   5.636   6.950
53010SOL    HW160927   2.318   5.615   6.919
53010SOL    HW260928   2.220   5.588   7.032
53011SOL     OW60929   2.251   9.616   6.543
53011SOL    HW160930   2.245   9.529   6.582
53011SOL    HW260931   2.242   9.677   6.616
53012SOL     OW60932   2.770   2.728   9.466
53012SOL    HW160933   2.776   2.799   9.403
53012SOL    HW260934   2.699   2.673   9.433
53013SOL     OW60935   3.934  10.312   0.144
53013SOL    HW160936   3.866  10.272   0.199
53013SOL    HW260937   3.981  10.370   0.204
53014SOL     OW60938   8.510   8.071   8.989
53014SOL    HW160939   8.430   8.124   8.991
53014SOL    HW260940   8.580   8.134   8.972
53015SOL     OW60941   1.673  13.088   2.758
53015SOL    HW160942   1.669  13.173   2.714
53015SOL    HW260943   1.758  13.087   2.801
53016SOL     OW60944   6.837  12.780  11.626
53016SOL    HW160945   6.919  12.783  11.576
53016SOL    HW260946   6.795  12.699  11.598
53017SOL     OW60947   4.215  12.492   0.610
53017SOL    HW160948   4.290  12.437   0.629
53017SOL    HW260949   4.145  12.459   0.667
53018SOL     OW60950  10.975   3.868   5.711
53018SOL    HW160951  11.069   3.846   5.714
53018SOL    HW260952  10.962   3.927   5.784
53019SOL     OW60953   3.034   2.588  11.852
53019SOL    HW160954   2.967   2.537  11.897
53019SOL    HW260955   2.986   2.659  11.810
53020SOL     OW60956   8.321   6.547  13.021
53020SOL    HW160957   8.399   6.529  13.074
53020SOL    HW260958   8.313   6.472  12.962
53021SOL     OW60959   9.041   8.324  11.265
53021SOL    HW160960   9.007   8.375  11.339
53021SOL    HW260961   9.098   8.385  11.219
53022SOL     OW60962  10.668  11.909  10.181
53022SOL    HW160963  10.605  11.975  10.153
53022SOL    HW260964  10.666  11.843  10.112
53023SOL     OW60965  12.295   9.600  12.035
53023SOL    HW160966  12.222   9.662  12.040
53023SOL    HW260967  12.370   9.649  12.068
53024SOL     OW60968   0.088   7.102   9.436
53024SOL    HW160969   0.116   7.093   9.527
53024SOL    HW260970   0.014   7.041   9.428
53025SOL     OW60971   9.323   9.027   6.216
53025SOL    HW160972   9.402   9.007   6.265
53025SOL    HW260973   9.291   8.942   6.187
53026SOL     OW60974  13.756   9.692   0.984
53026SOL    HW160975  13.692   9.753   1.022
53026SOL    HW260976  13.841   9.725   1.016
53027SOL     OW60977   9.788   4.888  11.065
53027SOL    HW160978   9.843   4.830  11.119
53027SOL    HW260979   9.838   4.969  11.058
53028SOL     OW60980   9.611  14.642   2.532
53028SOL    HW160981   9.700  14.634   2.565
53028SOL    HW260982   9.621  14.638   2.436
53029SOL     OW60983   0.096   4.363   4.987
53029SOL    HW160984   0.161   4.337   5.053
53029SOL    HW260985   0.109   4.457   4.977
53030SOL     OW60986   6.371  12.849   3.129
53030SOL    HW160987   6.290  12.898   3.135
53030SOL    HW260988   6.377  12.802   3.213
53031SOL     OW60989  11.872  13.482  12.558
53031SOL    HW160990  11.856  13.404  12.612
53031SOL    HW260991  11.785  13.514  12.536
53032SOL     OW60992   8.219   8.801  12.826
53032SOL    HW160993   8.164   8.823  12.901
53032SOL    HW260994   8.230   8.707  12.831
53033SOL     OW60995  12.078   3.496   4.213
53033SOL    HW160996  12.142   3.470   4.146
53033SOL    HW260997  11.993   3.472   4.175
53034SOL     OW60998  14.574   3.999   9.531
53034SOL    HW160999  14.527   3.979   9.612
53034SOL    HW261000  14.569   3.919   9.479
53035SOL     OW61001  12.919   3.966  14.198
53035SOL    HW161002  12.956   4.015  14.125
53035SOL    HW261003  12.975   3.888  14.205
53036SOL     OW61004   1.543   0.542   3.925
53036SOL    HW161005   1.473   0.479   3.941
53036SOL    HW261006   1.506   0.605   3.863
53037SOL     OW61007   3.428   7.314   6.749
53037SOL    HW161008   3.376   7.392   6.770
53037SOL    HW261009   3.448   7.323   6.656
53038SOL     OW61010  11.951  10.736   0.724
53038SOL    HW161011  11.877  10.789   0.695
53038SOL    HW261012  11.953  10.747   0.819
53039SOL     OW61013   7.215   9.341   3.380
53039SOL    HW161014   7.232   9.274   3.314
53039SOL    HW261015   7.122   9.333   3.399
53040SOL     OW61016   1.117   5.048   8.537
53040SOL    HW161017   1.211   5.035   8.534
53040SOL    HW261018   1.086   4.986   8.604
53041SOL     OW61019   7.100   7.103  14.571
53041SOL    HW161020   7.012   7.126  14.601
53041SOL    HW261021   7.152   7.099  14.651
53042SOL     OW61022  13.635   6.359  13.030
53042SOL    HW161023  13.708   6.322  13.079
53042SOL    HW261024  13.604   6.288  12.974
53043SOL     OW61025   2.591  13.443   5.413
53043SOL    HW161026   2.528  13.421   5.482
53043SOL    HW261027   2.671  13.466   5.459
53044SOL     OW61028   9.970   2.561   3.198
53044SOL    HW161029   9.919   2.493   3.154
53044SOL    HW261030   9.989   2.624   3.129
53045SOL     OW61031  11.644   8.119   1.263
53045SOL    HW161032  11.676   8.049   1.320
53045SOL    HW261033  11.723   8.166   1.236
53046SOL     OW61034   8.501   9.264  10.887
53046SOL    HW161035   8.410   9.251  10.913
53046SOL    HW261036   8.550   9.264  10.970
53047SOL     OW61037  11.763   5.178  11.356
53047SOL    HW161038  11.814   5.129  11.291
53047SOL    HW261039  11.699   5.115  11.389
53048SOL     OW61040  10.188  13.812  14.866
53048SOL    HW161041  10.248  13.744   0.016
53048SOL    HW261042  10.102  13.783   0.014
53049SOL     OW61043   4.378  13.593  10.132
53049SOL    HW161044   4.371  13.686  10.111
53049SOL    HW261045   4.403  13.591  10.224
53050SOL     OW61046   4.011   8.215  11.911
53050SOL    HW161047   3.984   8.279  11.845
53050SOL    HW261048   4.106   8.224  11.915
53051SOL     OW61049  11.082   1.482  13.098
53051SOL    HW161050  11.027   1.456  13.024
53051SOL    HW261051  11.028   1.467  13.175
53052SOL     OW61052   4.607   0.441   3.242
53052SOL    HW161053   4.688   0.419   3.196
53052SOL    HW261054   4.559   0.496   3.181
53053SOL     OW61055  12.008  10.581   3.931
53053SOL    HW161056  12.098  10.555   3.911
53053SOL    HW261057  11.963  10.500   3.954
53054SOL     OW61058   3.580   1.074   6.771
53054SOL    HW161059   3.623   1.121   6.700
53054SOL    HW261060   3.652   1.048   6.830
53055SOL     OW61061   1.978   8.742   7.326
53055SOL    HW161062   1.923   8.664   7.324
53055SOL    HW261063   1.985   8.769   7.234
53056SOL     OW61064  10.332   6.360  11.412
53056SOL    HW161065  10.314   6.445  11.372
53056SOL    HW261066  10.333   6.299  11.339
53057SOL     OW61067   1.226  14.048  12.104
53057SOL    HW161068   1.184  13.999  12.033
53057SOL    HW261069   1.186  14.014  12.184
53058SOL     OW61070  13.459   8.751   1.614
53058SOL    HW161071  13.522   8.741   1.542
53058SOL    HW261072  13.476   8.676   1.671
53059SOL     OW61073   6.793  10.593   0.696
53059SOL    HW161074   6.784  10.664   0.760
53059SOL    HW261075   6.863  10.622   0.638
53060SOL     OW61076   8.703  12.006   6.015
53060SOL    HW161077   8.784  12.010   6.066
53060SOL    HW261078   8.642  11.957   6.071
53061SOL     OW61079   0.153  11.570  13.233
53061SOL    HW161080   0.179  11.494  13.183
53061SOL    HW261081   0.123  11.634  13.168
53062SOL     OW61082  10.322   9.860   7.345
53062SOL    HW161083  10.380   9.921   7.390
53062SOL    HW261084  10.281   9.913   7.277
53063SOL     OW61085  13.272  11.781   9.067
53063SOL    HW161086  13.323  11.797   9.147
53063SOL    HW261087  13.338  11.768   8.999
53064SOL     OW61088   6.866   8.441  13.517
53064SOL    HW161089   6.901   8.382  13.450
53064SOL    HW261090   6.775   8.456  13.492
53065SOL     OW61091  13.832   8.116   5.473
53065SOL    HW161092  13.830   8.159   5.388
53065SOL    HW261093  13.924   8.118   5.499
53066SOL     OW61094   7.019   6.523   6.050
53066SOL    HW161095   7.057   6.481   5.974
53066SOL    HW261096   6.936   6.560   6.019
53067SOL     OW61097   9.690   6.507  11.429
53067SOL    HW161098   9.656   6.447  11.363
53067SOL    HW261099   9.765   6.461  11.467
53068SOL     OW61100   5.131  11.829   1.869
53068SOL    HW161101   5.056  11.814   1.926
53068SOL    HW261102   5.108  11.784   1.787
53069SOL     OW61103   5.840   9.172  12.805
53069SOL    HW161104   5.913   9.223  12.838
53069SOL    HW261105   5.786   9.154  12.882
53070SOL     OW61106   5.081  11.325   0.680
53070SOL    HW161107   5.016  11.329   0.750
53070SOL    HW261108   5.044  11.378   0.609
53071SOL     OW61109   4.754   0.838  14.126
53071SOL    HW161110   4.800   0.922  14.128
53071SOL    HW261111   4.689   0.847  14.056
53072SOL     OW61112   9.889   5.198   1.024
53072SOL    HW161113   9.894   5.231   1.114
53072SOL    HW261114   9.871   5.276   0.971
53073SOL     OW61115  13.960   0.476  14.650
53073SOL    HW161116  13.981   0.564  14.618
53073SOL    HW261117  14.026   0.420  14.609
53074SOL     OW61118   6.175   5.230   7.701
53074SOL    HW161119   6.268   5.207   7.699
53074SOL    HW261120   6.131   5.151   7.734
53075SOL     OW61121  14.348   6.467  11.981
53075SOL    HW161122  14.384   6.473  11.893
53075SOL    HW261123  14.402   6.403  12.025
53076SOL     OW61124  14.730   2.223   7.869
53076SOL    HW161125  14.790   2.153   7.845
53076SOL    HW261126  14.766   2.258   7.951
53077SOL     OW61127   1.695   7.553   7.035
53077SOL    HW161128   1.707   7.639   7.075
53077SOL    HW261129   1.729   7.564   6.946
53078SOL     OW61130   4.623  12.878   9.299
53078SOL    HW161131   4.608  12.787   9.275
53078SOL    HW261132   4.555  12.898   9.364
53079SOL     OW61133   4.581   5.629   8.547
53079SOL    HW161134   4.528   5.670   8.479
53079SOL    HW261135   4.647   5.579   8.499
53080SOL     OW61136   4.963  10.748  13.466
53080SOL    HW161137   4.922  10.670  13.429
53080SOL    HW261138   5.053  10.721  13.484
53081SOL     OW61139   6.143  12.753   5.384
53081SOL    HW161140   6.173  12.829   5.434
53081SOL    HW261141   6.081  12.789   5.321
53082SOL     OW61142  10.199   5.620  12.907
53082SOL    HW161143  10.139   5.550  12.881
53082SOL    HW261144  10.277   5.606  12.854
53083SOL     OW61145  14.685   9.655   4.578
53083SOL    HW161146  14.645   9.570   4.596
53083SOL    HW261147  14.656   9.711   4.650
53084SOL     OW61148   7.894   9.300   2.848
53084SOL    HW161149   7.829   9.308   2.778
53084SOL    HW261150   7.852   9.244   2.913
53085SOL     OW61151   0.420   2.884   4.345
53085SOL    HW161152   0.490   2.872   4.409
53085SOL    HW261153   0.429   2.975   4.316
53086SOL     OW61154   7.567   2.874  11.700
53086SOL    HW161155   7.524   2.825  11.630
53086SOL    HW261156   7.500   2.932  11.735
53087SOL     OW61157   0.900  13.229   4.657
53087SOL    HW161158   0.844  13.243   4.734
53087SOL    HW261159   0.885  13.137   4.634
53088SOL     OW61160   9.424   7.267   1.759
53088SOL    HW161161   9.341   7.233   1.791
53088SOL    HW261162   9.419   7.361   1.774
53089SOL     OW61163  11.658   3.229   2.288
53089SOL    HW161164  11.618   3.316   2.296
53089SOL    HW261165  11.666   3.198   2.378
53090SOL     OW61166   4.898   9.855   5.895
53090SOL    HW161167   4.986   9.819   5.909
53090SOL    HW261168   4.909   9.949   5.906
53091SOL     OW61169  13.159   7.437  12.563
53091SOL    HW161170  13.173   7.373  12.493
53091SOL    HW261171  13.220   7.411  12.632
53092SOL     OW61172  11.064  14.673   6.676
53092SOL    HW161173  11.049  14.673   6.770
53092SOL    HW261174  11.066  14.766   6.652
53093SOL     OW61175   1.118  13.454  13.775
53093SOL    HW161176   1.194  13.480  13.722
53093SOL    HW261177   1.140  13.367  13.808
53094SOL     OW61178  13.673   2.545   6.589
53094SOL    HW161179  13.659   2.470   6.531
53094SOL    HW261180  13.738   2.515   6.653
53095SOL     OW61181  11.005   7.850   8.857
53095SOL    HW161182  11.061   7.773   8.859
53095SOL    HW261183  11.047   7.909   8.794
53096SOL     OW61184   5.925   5.013  11.400
53096SOL    HW161185   5.928   4.917  11.395
53096SOL    HW261186   5.867   5.039  11.328
53097SOL     OW61187   9.250  10.090   0.463
53097SOL    HW161188   9.180  10.064   0.524
53097SOL    HW261189   9.210  10.084   0.377
53098SOL     OW61190  12.079   4.798   2.529
53098SOL    HW161191  12.041   4.855   2.596
53098SOL    HW261192  12.164   4.837   2.509
53099SOL     OW61193   8.297   7.345  12.731
53099SOL    HW161194   8.236   7.331  12.658
53099SOL    HW261195   8.295   7.439  12.746
53100SOL     OW61196  11.922   3.132   9.172
53100SOL    HW161197  11.890   3.128   9.082
53100SOL    HW261198  11.991   3.066   9.175
53101SOL     OW61199   6.945  12.091   8.091
53101SOL    HW161200   6.861  12.080   8.048
53101SOL    HW261201   6.923  12.112   8.182
53102SOL     OW61202  14.856   9.124   4.826
53102SOL    HW161203  14.777   9.107   4.776
53102SOL    HW261204   0.018   9.039   4.835
53103SOL     OW61205   8.900   5.244  10.238
53103SOL    HW161206   8.931   5.216  10.324
53103SOL    HW261207   8.871   5.164  10.195
53104SOL     OW61208   6.648   1.589   5.876
53104SOL    HW161209   6.664   1.587   5.781
53104SOL    HW261210   6.700   1.515   5.909
53105SOL     OW61211   1.765  14.363   8.867
53105SOL    HW161212   1.748  14.456   8.882
53105SOL    HW261213   1.761  14.352   8.772
53106SOL     OW61214   7.719   7.752   3.239
53106SOL    HW161215   7.706   7.757   3.333
53106SOL    HW261216   7.691   7.838   3.206
53107SOL     OW61217   9.863  12.788  12.063
53107SOL    HW161218   9.927  12.854  12.035
53107SOL    HW261219   9.914  12.707  12.067
53108SOL     OW61220   9.976  13.484   2.956
53108SOL    HW161221  10.033  13.475   3.033
53108SOL    HW261222   9.899  13.529   2.988
53109SOL     OW61223   0.204   7.400   4.740
53109SOL    HW161224   0.153   7.474   4.774
53109SOL    HW261225   0.231   7.429   4.653
53110SOL     OW61226   9.462   8.088   1.883
53110SOL    HW161227   9.385   8.130   1.920
53110SOL    HW261228   9.514   8.062   1.959
53111SOL     OW61229   5.395   0.280   6.964
53111SOL    HW161230   5.368   0.243   6.881
53111SOL    HW261231   5.353   0.225   7.030
53112SOL     OW61232  11.438   4.408   3.344
53112SOL    HW161233  11.401   4.327   3.309
53112SOL    HW261234  11.481   4.382   3.425
53113SOL     OW61235  14.880   8.359   2.917
53113SOL    HW161236  14.872   8.269   2.886
53113SOL    HW261237   0.076   8.359   2.974
53114SOL     OW61238   3.185   2.332  13.608
53114SOL    HW161239   3.208   2.339  13.515
53114SOL    HW261240   3.194   2.421  13.642
53115SOL     OW61241  10.500   7.204  14.709
53115SOL    HW161242  10.545   7.287  14.695
53115SOL    HW261243  10.538   7.169  14.790
53116SOL     OW61244   7.161   6.690   5.575
53116SOL    HW161245   7.129   6.615   5.626
53116SOL    HW261246   7.082   6.736   5.547
53117SOL     OW61247   0.444   7.180  12.180
53117SOL    HW161248   0.433   7.091  12.147
53117SOL    HW261249   0.464   7.232  12.102
53118SOL     OW61250   4.587   6.620   3.553
53118SOL    HW161251   4.610   6.546   3.608
53118SOL    HW261252   4.670   6.661   3.530
53119SOL     OW61253   9.783  11.268  12.314
53119SOL    HW161254   9.840  11.251  12.239
53119SOL    HW261255   9.753  11.182  12.342
53120SOL     OW61256   8.218  10.205   3.855
53120SOL    HW161257   8.213  10.110   3.863
53120SOL    HW261258   8.133  10.236   3.887
53121SOL     OW61259   5.205   7.068   3.716
53121SOL    HW161260   5.195   7.162   3.697
53121SOL    HW261261   5.191   7.025   3.632
53122SOL     OW61262  10.310   3.610   1.760
53122SOL    HW161263  10.275   3.582   1.844
53122SOL    HW261264  10.305   3.532   1.704
53123SOL     OW61265  14.012   8.180   9.665
53123SOL    HW161266  14.039   8.200   9.755
53123SOL    HW261267  13.922   8.211   9.660
53124SOL     OW61268  10.201   0.172   2.124
53124SOL    HW161269  10.132   0.119   2.084
53124SOL    HW261270  10.231   0.230   2.054
53125SOL     OW61271   9.595   0.531   4.867
53125SOL    HW161272   9.547   0.614   4.873
53125SOL    HW261273   9.605   0.516   4.773
53126SOL     OW61274   7.531  13.655  13.174
53126SOL    HW161275   7.619  13.623  13.156
53126SOL    HW261276   7.525  13.656  13.269
53127SOL     OW61277   9.666   4.797   3.578
53127SOL    HW161278   9.690   4.843   3.498
53127SOL    HW261279   9.651   4.867   3.642
53128SOL     OW61280  10.380   7.699   5.807
53128SOL    HW161281  10.435   7.749   5.746
53128SOL    HW261282  10.291   7.726   5.786
53129SOL     OW61283  12.085  14.683  14.723
53129SOL    HW161284  12.097  14.595  14.689
53129SOL    HW261285  12.171  14.708  14.757
53130SOL     OW61286   6.688   1.972   5.174
53130SOL    HW161287   6.758   1.917   5.211
53130SOL    HW261288   6.734   2.033   5.116
53131SOL     OW61289   2.332   1.681  13.634
53131SOL    HW161290   2.343   1.776  13.634
53131SOL    HW261291   2.399   1.650  13.695
53132SOL     OW61292  12.054   7.904   0.332
53132SOL    HW161293  12.082   7.825   0.377
53132SOL    HW261294  11.961   7.913   0.356
53133SOL     OW61295   6.818   2.910  12.903
53133SOL    HW161296   6.838   2.974  12.971
53133SOL    HW261297   6.870   2.938  12.828
53134SOL     OW61298   3.675  14.039   8.132
53134SOL    HW161299   3.697  14.132   8.125
53134SOL    HW261300   3.586  14.039   8.168
53135SOL     OW61301   8.781  13.967   8.976
53135SOL    HW161302   8.718  13.895   8.984
53135SOL    HW261303   8.843  13.952   9.046
53136SOL     OW61304   3.049   9.783   6.234
53136SOL    HW161305   3.074   9.709   6.289
53136SOL    HW261306   3.112   9.781   6.161
53137SOL     OW61307  11.443  12.378   8.805
53137SOL    HW161308  11.466  12.342   8.719
53137SOL    HW261309  11.413  12.467   8.786
53138SOL     OW61310   6.468  11.450   0.399
53138SOL    HW161311   6.465  11.406   0.314
53138SOL    HW261312   6.418  11.393   0.457
53139SOL     OW61313   7.510  13.664   8.496
53139SOL    HW161314   7.570  13.610   8.444
53139SOL    HW261315   7.460  13.601   8.548
53140SOL     OW61316  14.282  11.248   3.722
53140SOL    HW161317  14.311  11.320   3.666
53140SOL    HW261318  14.189  11.238   3.702
53141SOL     OW61319   1.074   2.646   8.626
53141SOL    HW161320   1.053   2.670   8.536
53141SOL    HW261321   1.083   2.551   8.625
53142SOL     OW61322   0.830   4.137   3.526
53142SOL    HW161323   0.822   4.069   3.460
53142SOL    HW261324   0.743   4.143   3.566
53143SOL     OW61325   5.964  12.024   5.033
53143SOL    HW161326   5.900  12.070   4.979
53143SOL    HW261327   5.911  11.970   5.092
53144SOL     OW61328   2.360   2.700   3.006
53144SOL    HW161329   2.434   2.645   3.034
53144SOL    HW261330   2.293   2.637   2.978
53145SOL     OW61331   5.928   9.413   1.019
53145SOL    HW161332   5.922   9.506   1.039
53145SOL    HW261333   6.020   9.398   0.997
53146SOL     OW61334   0.649  10.625   2.627
53146SOL    HW161335   0.567  10.673   2.633
53146SOL    HW261336   0.627  10.545   2.581
53147SOL     OW61337   0.729  11.756  10.225
53147SOL    HW161338   0.795  11.696  10.260
53147SOL    HW261339   0.723  11.734  10.132
53148SOL     OW61340  13.273   8.409   4.541
53148SOL    HW161341  13.351   8.360   4.568
53148SOL    HW261342  13.281   8.492   4.587
53149SOL     OW61343   5.610  14.004   4.936
53149SOL    HW161344   5.519  13.986   4.911
53149SOL    HW261345   5.647  13.918   4.956
53150SOL     OW61346   8.907  14.873   8.792
53150SOL    HW161347   8.918   0.018   8.700
53150SOL    HW261348   8.813  14.854   8.801
53151SOL     OW61349   9.375   7.398  13.803
53151SOL    HW161350   9.438   7.423  13.871
53151SOL    HW261351   9.304   7.461  13.811
53152SOL     OW61352  10.172  10.358  13.675
53152SOL    HW161353  10.140  10.445  13.700
53152SOL    HW261354  10.259  10.374  13.639
53153SOL     OW61355   7.248  10.098   9.339
53153SOL    HW161356   7.336  10.067   9.358
53153SOL    HW261357   7.258  10.193   9.328
53154SOL     OW61358   8.992   1.649   0.796
53154SOL    HW161359   9.073   1.699   0.800
53154SOL    HW261360   8.999   1.598   0.715
53155SOL     OW61361   7.842   9.660   7.518
53155SOL    HW161362   7.802   9.726   7.462
53155SOL    HW261363   7.788   9.582   7.505
53156SOL     OW61364   2.529  14.429   6.253
53156SOL    HW161365   2.543  14.430   6.158
53156SOL    HW261366   2.617  14.417   6.290
53157SOL     OW61367  14.212   1.333   7.334
53157SOL    HW161368  14.149   1.403   7.319
53157SOL    HW261369  14.176   1.283   7.408
53158SOL     OW61370   4.709  10.108   3.804
53158SOL    HW161371   4.704  10.023   3.760
53158SOL    HW261372   4.802  10.121   3.822
53159SOL     OW61373   5.209   2.766   1.699
53159SOL    HW161374   5.156   2.754   1.621
53159SOL    HW261375   5.160   2.828   1.753
53160SOL     OW61376   6.766   6.384   0.834
53160SOL    HW161377   6.784   6.398   0.741
53160SOL    HW261378   6.670   6.383   0.840
53161SOL     OW61379   7.616   1.672   4.576
53161SOL    HW161380   7.591   1.728   4.503
53161SOL    HW261381   7.571   1.709   4.652
53162SOL     OW61382  13.927   8.377  14.314
53162SOL    HW161383  13.913   8.319  14.389
53162SOL    HW261384  13.851   8.435  14.314
53163SOL     OW61385   5.021   2.553   3.326
53163SOL    HW161386   4.945   2.528   3.379
53163SOL    HW261387   5.002   2.641   3.296
53164SOL     OW61388   8.548   9.181   1.311
53164SOL    HW161389   8.464   9.190   1.357
53164SOL    HW261390   8.568   9.088   1.316
53165SOL     OW61391   4.071   1.107  14.036
53165SOL    HW161392   4.103   1.191  14.002
53165SOL    HW261393   4.031   1.064  13.960
53166SOL     OW61394   2.695   0.425   1.503
53166SOL    HW161395   2.635   0.378   1.446
53166SOL    HW261396   2.654   0.511   1.514
53167SOL     OW61397   4.572   5.355   7.499
53167SOL    HW161398   4.595   5.322   7.586
53167SOL    HW261399   4.545   5.446   7.515
53168SOL     OW61400   3.457   2.197   4.779
53168SOL    HW161401   3.545   2.177   4.812
53168SOL    HW261402   3.436   2.124   4.721
53169SOL     OW61403   2.965  10.553  13.374
53169SOL    HW161404   2.976  10.638  13.331
53169SOL    HW261405   2.927  10.573  13.459
53170SOL     OW61406  14.785   9.111   7.777
53170SOL    HW161407  14.811   9.035   7.829
53170SOL    HW261408  14.763   9.178   7.841
53171SOL     OW61409   1.703  10.051  11.639
53171SOL    HW161410   1.786  10.098  11.637
53171SOL    HW261411   1.722   9.970  11.686
53172SOL     OW61412   2.262   2.008   6.839
53172SOL    HW161413   2.208   2.083   6.862
53172SOL    HW261414   2.277   2.017   6.745
53173SOL     OW61415  13.243   9.317   2.624
53173SOL    HW161416  13.234   9.311   2.719
53173SOL    HW261417  13.155   9.340   2.593
53174SOL     OW61418  10.845   5.003  12.211
53174SOL    HW161419  10.910   5.030  12.276
53174SOL    HW261420  10.897   4.978  12.134
53175SOL     OW61421   1.174  12.167   3.005
53175SOL    HW161422   1.097  12.143   3.057
53175SOL    HW261423   1.147  12.244   2.955
53176SOL     OW61424   2.639   3.834   4.417
53176SOL    HW161425   2.651   3.842   4.512
53176SOL    HW261426   2.552   3.795   4.408
53177SOL     OW61427   3.859  13.617   5.775
53177SOL    HW161428   3.816  13.549   5.724
53177SOL    HW261429   3.902  13.673   5.710
53178SOL     OW61430  10.025   6.572  10.699
53178SOL    HW161431  10.076   6.556  10.619
53178SOL    HW261432  10.019   6.486  10.741
53179SOL     OW61433  13.297  10.825  10.191
53179SOL    HW161434  13.316  10.919  10.197
53179SOL    HW261435  13.303  10.805  10.097
53180SOL     OW61436  11.210   8.296   2.866
53180SOL    HW161437  11.140   8.321   2.806
53180SOL    HW261438  11.178   8.217   2.909
53181SOL     OW61439   5.622  13.291  12.437
53181SOL    HW161440   5.595  13.220  12.379
53181SOL    HW261441   5.701  13.257  12.480
53182SOL     OW61442  14.381  10.108   1.097
53182SOL    HW161443  14.333  10.025   1.105
53182SOL    HW261444  14.354  10.158   1.174
53183SOL     OW61445   7.591   5.285  13.191
53183SOL    HW161446   7.678   5.253  13.215
53183SOL    HW261447   7.564   5.338  13.266
53184SOL     OW61448   1.361  11.102   2.618
53184SOL    HW161449   1.265  11.098   2.616
53184SOL    HW261450   1.386  11.114   2.526
53185SOL     OW61451  10.681   9.545   3.644
53185SOL    HW161452  10.727   9.625   3.618
53185SOL    HW261453  10.711   9.529   3.734
53186SOL     OW61454  11.389   7.572   8.492
53186SOL    HW161455  11.450   7.605   8.559
53186SOL    HW261456  11.363   7.486   8.525
53187SOL     OW61457  11.000   6.605   7.042
53187SOL    HW161458  10.906   6.608   7.062
53187SOL    HW261459  11.004   6.611   6.946
53188SOL     OW61460  12.212  10.950  13.836
53188SOL    HW161461  12.245  11.017  13.775
53188SOL    HW261462  12.202  10.997  13.919
53189SOL     OW61463  14.849   8.002   4.247
53189SOL    HW161464  14.808   7.992   4.333
53189SOL    HW261465  14.879   8.093   4.245
53190SOL     OW61466   2.832  10.407   4.393
53190SOL    HW161467   2.837  10.503   4.391
53190SOL    HW261468   2.745  10.387   4.359
53191SOL     OW61469  13.105   2.729  12.637
53191SOL    HW161470  13.072   2.735  12.548
53191SOL    HW261471  13.170   2.659  12.634
53192SOL     OW61472  11.841   6.753  14.795
53192SOL    HW161473  11.786   6.757  14.716
53192SOL    HW261474  11.867   6.843  14.811
53193SOL     OW61475   9.779   7.972  12.292
53193SOL    HW161476   9.741   7.922  12.220
53193SOL    HW261477   9.817   7.906  12.349
53194SOL     OW61478   9.092   8.544  10.880
53194SOL    HW161479   9.106   8.450  10.892
53194SOL    HW261480   9.018   8.565  10.938
53195SOL     OW61481   5.527  13.105   2.416
53195SOL    HW161482   5.531  13.031   2.357
53195SOL    HW261483   5.493  13.177   2.363
53196SOL     OW61484   3.717  10.242  10.520
53196SOL    HW161485   3.671  10.248  10.436
53196SOL    HW261486   3.648  10.223  10.583
53197SOL     OW61487   0.701  14.386  13.264
53197SOL    HW161488   0.792  14.409  13.245
53197SOL    HW261489   0.651  14.427  13.195
53198SOL     OW61490   4.059  14.584   8.637
53198SOL    HW161491   4.144  14.595   8.594
53198SOL    HW261492   4.053  14.658   8.698
53199SOL     OW61493   5.068   0.379   3.317
53199SOL    HW161494   4.993   0.328   3.348
53199SOL    HW261495   5.030   0.459   3.281
53200SOL     OW61496   8.601   6.474  10.145
53200SOL    HW161497   8.626   6.392  10.188
53200SOL    HW261498   8.578   6.533  10.216
53201SOL     OW61499  14.216   4.101  12.524
53201SOL    HW161500  14.186   4.015  12.553
53201SOL    HW261501  14.290   4.121  12.581
53202SOL     OW61502  14.744   7.917   0.461
53202SOL    HW161503  14.746   7.884   0.371
53202SOL    HW261504  14.676   7.864   0.504
53203SOL     OW61505  14.242   6.017  10.021
53203SOL    HW161506  14.311   5.952  10.006
53203SOL    HW261507  14.289   6.100  10.032
53204SOL     OW61508  13.721   5.532  10.574
53204SOL    HW161509  13.654   5.501  10.514
53204SOL    HW261510  13.728   5.463  10.641
53205SOL     OW61511   8.168   0.614   5.491
53205SOL    HW161512   8.179   0.541   5.552
53205SOL    HW261513   8.179   0.692   5.546
53206SOL     OW61514  12.829  11.371   8.089
53206SOL    HW161515  12.756  11.325   8.049
53206SOL    HW261516  12.854  11.317   8.164
53207SOL     OW61517  14.732   0.085   0.947
53207SOL    HW161518  14.827   0.085   0.936
53207SOL    HW261519  14.707   0.177   0.942
53208SOL     OW61520   0.718   8.328   7.620
53208SOL    HW161521   0.806   8.358   7.599
53208SOL    HW261522   0.722   8.306   7.713
53209SOL     OW61523   6.700   9.790  12.975
53209SOL    HW161524   6.657   9.728  13.035
53209SOL    HW261525   6.787   9.803  13.013
53210SOL     OW61526  12.010   0.164  11.041
53210SOL    HW161527  11.936   0.219  11.015
53210SOL    HW261528  12.087   0.211  11.007
53211SOL     OW61529  14.651   4.835  10.710
53211SOL    HW161530  14.586   4.875  10.768
53211SOL    HW261531  14.624   4.862  10.622
53212SOL     OW61532   5.734   8.996   9.778
53212SOL    HW161533   5.678   8.921   9.758
53212SOL    HW261534   5.821   8.968   9.749
53213SOL     OW61535   5.969   0.658   1.164
53213SOL    HW161536   6.005   0.713   1.094
53213SOL    HW261537   5.987   0.707   1.244
53214SOL     OW61538   4.409  11.715   2.511
53214SOL    HW161539   4.417  11.628   2.550
53214SOL    HW261540   4.409  11.698   2.416
53215SOL     OW61541   5.172   1.122   0.031
53215SOL    HW161542   5.221   1.191   0.074
53215SOL    HW261543   5.193   1.131  14.819
53216SOL     OW61544   8.878   4.721   3.245
53216SOL    HW161545   8.787   4.735   3.269
53216SOL    HW261546   8.874   4.661   3.170
53217SOL     OW61547  12.020   9.692   3.557
53217SOL    HW161548  11.960   9.766   3.552
53217SOL    HW261549  12.011   9.647   3.473
53218SOL     OW61550   0.336  13.660   4.724
53218SOL    HW161551   0.396  13.703   4.662
53218SOL    HW261552   0.388  13.650   4.804
53219SOL     OW61553  14.432   3.787  13.090
53219SOL    HW161554  14.473   3.828  13.166
53219SOL    HW261555  14.491   3.808  13.017
53220SOL     OW61556   1.209  12.230  11.257
53220SOL    HW161557   1.139  12.166  11.271
53220SOL    HW261558   1.282  12.198  11.310
53221SOL     OW61559  13.079   7.111  14.384
53221SOL    HW161560  13.081   7.021  14.351
53221SOL    HW261561  13.018   7.157  14.325
53222SOL     OW61562  11.858  11.143   8.803
53222SOL    HW161563  11.805  11.160   8.725
53222SOL    HW261564  11.908  11.064   8.781
53223SOL     OW61565   8.990   3.749   2.785
53223SOL    HW161566   8.963   3.691   2.856
53223SOL    HW261567   9.010   3.832   2.828
53224SOL     OW61568  10.983   7.971   5.039
53224SOL    HW161569  10.941   7.928   5.114
53224SOL    HW261570  11.043   7.905   5.005
53225SOL     OW61571   5.976   8.620  12.820
53225SOL    HW161572   6.062   8.579  12.813
53225SOL    HW261573   5.963   8.633  12.914
53226SOL     OW61574   2.406   4.357  12.952
53226SOL    HW161575   2.362   4.335  12.870
53226SOL    HW261576   2.449   4.275  12.978
53227SOL     OW61577  10.763  11.354  14.859
53227SOL    HW161578  10.784  11.358  14.766
53227SOL    HW261579  10.805  11.273   0.009
53228SOL     OW61580   9.983   8.373  11.026
53228SOL    HW161581   9.975   8.388  10.932
53228SOL    HW261582   9.990   8.277  11.034
53229SOL     OW61583   4.853   3.765   5.680
53229SOL    HW161584   4.854   3.860   5.672
53229SOL    HW261585   4.778   3.746   5.736
53230SOL     OW61586  14.220   9.687   9.823
53230SOL    HW161587  14.139   9.738   9.821
53230SOL    HW261588  14.269   9.717   9.746
53231SOL     OW61589  14.037   1.938   8.454
53231SOL    HW161590  13.967   1.941   8.519
53231SOL    HW261591  14.084   2.021   8.465
53232SOL     OW61592   2.782   0.959   6.912
53232SOL    HW161593   2.690   0.935   6.899
53232SOL    HW261594   2.785   1.052   6.886
53233SOL     OW61595   2.438   0.958   4.051
53233SOL    HW161596   2.460   0.865   4.055
53233SOL    HW261597   2.499   0.995   3.988
53234SOL     OW61598  10.890   4.396  13.631
53234SOL    HW161599  10.797   4.419  13.636
53234SOL    HW261600  10.894   4.305  13.662
53235SOL     OW61601  11.828  11.320   0.254
53235SOL    HW161602  11.738  11.325   0.284
53235SOL    HW261603  11.880  11.313   0.334
53236SOL     OW61604  13.990   5.918  13.925
53236SOL    HW161605  14.019   5.983  13.861
53236SOL    HW261606  13.915   5.875  13.882
53237SOL     OW61607   3.613  12.762   5.703
53237SOL    HW161608   3.593  12.669   5.690
53237SOL    HW261609   3.625  12.797   5.615
53238SOL     OW61610  13.043  10.949   3.283
53238SOL    HW161611  13.096  10.993   3.218
53238SOL    HW261612  13.065  10.856   3.273
53239SOL     OW61613  10.071  10.651   2.974
53239SOL    HW161614  10.102  10.679   2.888
53239SOL    HW261615   9.981  10.681   2.979
53240SOL     OW61616  12.058   1.816   6.617
53240SOL    HW161617  11.964   1.801   6.628
53240SOL    HW261618  12.066   1.857   6.531
53241SOL     OW61619  11.144  14.532   7.914
53241SOL    HW161620  11.183  14.619   7.922
53241SOL    HW261621  11.153  14.510   7.821
53242SOL     OW61622  14.353  14.087  10.192
53242SOL    HW161623  14.404  14.065  10.115
53242SOL    HW261624  14.308  14.169  10.168
53243SOL     OW61625   2.408   5.123   5.519
53243SOL    HW161626   2.444   5.128   5.608
53243SOL    HW261627   2.441   5.041   5.484
53244SOL     OW61628  14.270   9.154  11.801
53244SOL    HW161629  14.179   9.174  11.782
53244SOL    HW261630  14.301   9.227  11.855
53245SOL     OW61631   6.160   3.431   1.689
53245SOL    HW161632   6.245   3.463   1.720
53245SOL    HW261633   6.162   3.445   1.595
53246SOL     OW61634   7.581   0.504   2.443
53246SOL    HW161635   7.592   0.527   2.535
53246SOL    HW261636   7.498   0.456   2.439
53247SOL     OW61637   8.750   5.493   4.543
53247SOL    HW161638   8.707   5.408   4.553
53247SOL    HW261639   8.834   5.482   4.587
53248SOL     OW61640   7.846  13.417   2.419
53248SOL    HW161641   7.925  13.378   2.380
53248SOL    HW261642   7.775  13.360   2.391
53249SOL     OW61643  13.174   7.758   9.777
53249SOL    HW161644  13.128   7.794   9.852
53249SOL    HW261645  13.117   7.776   9.703
53250SOL     OW61646   1.328   0.617  10.252
53250SOL    HW161647   1.277   0.600  10.331
53250SOL    HW261648   1.265   0.613  10.180
53251SOL     OW61649   5.334   5.081  14.309
53251SOL    HW161650   5.335   4.989  14.338
53251SOL    HW261651   5.270   5.123  14.366
53252SOL     OW61652   6.444   3.857   2.268
53252SOL    HW161653   6.354   3.847   2.298
53252SOL    HW261654   6.451   3.949   2.241
53253SOL     OW61655   6.340   1.498   3.081
53253SOL    HW161656   6.366   1.406   3.092
53253SOL    HW261657   6.334   1.509   2.986
53254SOL     OW61658   5.704  10.377   4.037
53254SOL    HW161659   5.755  10.300   4.010
53254SOL    HW261660   5.673  10.415   3.955
53255SOL     OW61661   9.229   7.489   9.923
53255SOL    HW161662   9.148   7.541   9.926
53255SOL    HW261663   9.267   7.508   9.837
53256SOL     OW61664   2.592   2.167  10.266
53256SOL    HW161665   2.513   2.158  10.213
53256SOL    HW261666   2.654   2.214  10.209
53257SOL     OW61667   0.755  10.236   3.876
53257SOL    HW161668   0.780  10.152   3.836
53257SOL    HW261669   0.810  10.242   3.954
53258SOL     OW61670   2.701   5.513   7.542
53258SOL    HW161671   2.654   5.545   7.465
53258SOL    HW261672   2.742   5.432   7.514
53259SOL     OW61673  13.542   3.445   6.549
53259SOL    HW161674  13.492   3.411   6.475
53259SOL    HW261675  13.493   3.418   6.626
53260SOL     OW61676   6.549  12.778   4.891
53260SOL    HW161677   6.463  12.815   4.912
53260SOL    HW261678   6.530  12.701   4.837
53261SOL     OW61679   5.587  12.186   5.216
53261SOL    HW161680   5.671  12.212   5.180
53261SOL    HW261681   5.581  12.232   5.300
53262SOL     OW61682   3.844   0.288  13.629
53262SOL    HW161683   3.815   0.378  13.645
53262SOL    HW261684   3.782   0.234  13.678
53263SOL     OW61685   4.990   5.927   9.331
53263SOL    HW161686   5.075   5.958   9.301
53263SOL    HW261687   4.995   5.933   9.427
53264SOL     OW61688  14.389   4.452  12.468
53264SOL    HW161689  14.302   4.485  12.449
53264SOL    HW261690  14.392   4.444  12.563
53265SOL     OW61691  14.296   3.018   5.764
53265SOL    HW161692  14.271   3.003   5.673
53265SOL    HW261693  14.213   3.028   5.810
53266SOL     OW61694   8.356   7.858   4.681
53266SOL    HW161695   8.286   7.868   4.745
53266SOL    HW261696   8.436   7.854   4.733
53267SOL     OW61697  10.558   3.543   1.875
53267SOL    HW161698  10.483   3.585   1.832
53267SOL    HW261699  10.549   3.451   1.853
53268SOL     OW61700  10.118   0.387  12.365
53268SOL    HW161701  10.209   0.402  12.342
53268SOL    HW261702  10.116   0.297  12.398
53269SOL     OW61703   4.053   1.053  14.324
53269SOL    HW161704   4.009   1.085  14.245
53269SOL    HW261705   4.044   1.125  14.387
53270SOL     OW61706   1.501   9.732  14.367
53270SOL    HW161707   1.491   9.682  14.286
53270SOL    HW261708   1.439   9.804  14.359
53271SOL     OW61709   8.419   4.989   4.946
53271SOL    HW161710   8.400   5.065   4.891
53271SOL    HW261711   8.487   4.941   4.899
53272SOL     OW61712   6.998   6.387  10.833
53272SOL    HW161713   6.906   6.410  10.821
53272SOL    HW261714   7.040   6.469  10.857
53273SOL     OW61715  10.827   0.459   7.390
53273SOL    HW161716  10.864   0.501   7.468
53273SOL    HW261717  10.768   0.392   7.424
53274SOL     OW61718   8.829  12.595   1.208
53274SOL    HW161719   8.908  12.566   1.253
53274SOL    HW261720   8.772  12.626   1.277
53275SOL     OW61721  13.765   4.400   5.990
53275SOL    HW161722  13.787   4.349   6.068
53275SOL    HW261723  13.792   4.489   6.011
53276SOL     OW61724   3.348   1.015  12.230
53276SOL    HW161725   3.311   0.991  12.145
53276SOL    HW261726   3.277   0.997  12.292
53277SOL     OW61727   9.851   1.830   3.511
53277SOL    HW161728   9.938   1.802   3.540
53277SOL    HW261729   9.799   1.749   3.509
53278SOL     OW61730  10.389  12.505   6.441
53278SOL    HW161731  10.302  12.482   6.471
53278SOL    HW261732  10.406  12.445   6.368
53279SOL     OW61733   1.666  13.071  13.353
53279SOL    HW161734   1.608  13.133  13.310
53279SOL    HW261735   1.683  13.110  13.439
53280SOL     OW61736   0.594   4.906  13.559
53280SOL    HW161737   0.499   4.908  13.570
53280SOL    HW261738   0.613   4.820  13.521
53281SOL     OW61739  13.492  11.461  13.653
53281SOL    HW161740  13.522  11.470  13.743
53281SOL    HW261741  13.478  11.551  13.623
53282SOL     OW61742   9.345   4.948   6.312
53282SOL    HW161743   9.349   4.867   6.261
53282SOL    HW261744   9.400   5.009   6.262
53283SOL     OW61745   3.580   5.444   5.408
53283SOL    HW161746   3.564   5.536   5.432
53283SOL    HW261747   3.525   5.430   5.331
53284SOL     OW61748  14.711   6.711   5.547
53284SOL    HW161749  14.749   6.637   5.501
53284SOL    HW261750  14.681   6.675   5.631
53285SOL     OW61751   7.775  11.758   0.815
53285SOL    HW161752   7.843  11.721   0.872
53285SOL    HW261753   7.816  11.834   0.774
53286SOL     OW61754   9.904  11.537  10.621
53286SOL    HW161755   9.829  11.562  10.567
53286SOL    HW261756   9.910  11.442  10.612
53287SOL     OW61757   3.712   0.761   1.021
53287SOL    HW161758   3.720   0.733   1.112
53287SOL    HW261759   3.684   0.853   1.026
53288SOL     OW61760   3.069   3.775  10.142
53288SOL    HW161761   3.089   3.695  10.191
53288SOL    HW261762   3.043   3.838  10.209
53289SOL     OW61763  12.595   8.480   8.188
53289SOL    HW161764  12.653   8.409   8.216
53289SOL    HW261765  12.620   8.496   8.096
53290SOL     OW61766  14.086   8.782   8.772
53290SOL    HW161767  14.171   8.825   8.780
53290SOL    HW261768  14.106   8.688   8.779
53291SOL     OW61769   4.802   3.475   9.089
53291SOL    HW161770   4.871   3.477   9.022
53291SOL    HW261771   4.831   3.537   9.155
53292SOL     OW61772   3.411  10.630  11.294
53292SOL    HW161773   3.430  10.720  11.319
53292SOL    HW261774   3.317  10.620  11.309
53293SOL     OW61775  12.675  14.830  13.244
53293SOL    HW161776  12.662  14.862  13.333
53293SOL    HW261777  12.592  14.847  13.200
53294SOL     OW61778   6.283  13.957   8.337
53294SOL    HW161779   6.257  14.045   8.308
53294SOL    HW261780   6.245  13.948   8.424
53295SOL     OW61781   6.813   6.185   6.285
53295SOL    HW161782   6.902   6.188   6.248
53295SOL    HW261783   6.817   6.115   6.350
53296SOL     OW61784  13.651   3.940   7.032
53296SOL    HW161785  13.727   3.949   7.090
53296SOL    HW261786  13.683   3.968   6.947
53297SOL     OW61787  11.255   7.961   8.980
53297SOL    HW161788  11.242   8.047   9.021
53297SOL    HW261789  11.217   7.899   9.042
53298SOL     OW61790   0.299  11.297  13.744
53298SOL    HW161791   0.310  11.202  13.756
53298SOL    HW261792   0.386  11.333  13.761
53299SOL     OW61793  10.707   2.671   4.085
53299SOL    HW161794  10.784   2.728   4.095
53299SOL    HW261795  10.740   2.594   4.039
53300SOL     OW61796  14.298  12.096   2.474
53300SOL    HW161797  14.343  12.011   2.480
53300SOL    HW261798  14.212  12.080   2.513
53301SOL     OW61799   5.439   8.089  13.666
53301SOL    HW161800   5.424   8.141  13.587
53301SOL    HW261801   5.405   8.143  13.737
53302SOL     OW61802   6.216   5.138  14.848
53302SOL    HW161803   6.221   5.105  14.758
53302SOL    HW261804   6.298   5.111   0.008
53303SOL     OW61805   8.181   5.314   9.081
53303SOL    HW161806   8.241   5.386   9.063
53303SOL    HW261807   8.233   5.235   9.064
53304SOL     OW61808   4.703   5.900  12.574
53304SOL    HW161809   4.616   5.916  12.611
53304SOL    HW261810   4.764   5.923  12.644
53305SOL     OW61811  11.498   8.316   1.345
53305SOL    HW161812  11.555   8.249   1.308
53305SOL    HW261813  11.520   8.317   1.439
53306SOL     OW61814   7.624  14.178  14.323
53306SOL    HW161815   7.717  14.170  14.302
53306SOL    HW261816   7.580  14.132  14.252
53307SOL     OW61817   0.219  14.735   8.067
53307SOL    HW161818   0.179  14.774   7.989
53307SOL    HW261819   0.146  14.691   8.111
53308SOL     OW61820  10.547   7.034  12.065
53308SOL    HW161821  10.605   6.958  12.075
53308SOL    HW261822  10.600   7.099  12.018
53309SOL     OW61823   9.495   3.192   0.433
53309SOL    HW161824   9.518   3.258   0.368
53309SOL    HW261825   9.400   3.201   0.443
53310SOL     OW61826   5.139   8.042   5.042
53310SOL    HW161827   5.053   8.083   5.033
53310SOL    HW261828   5.188   8.102   5.098
53311SOL     OW61829   0.260  10.838   6.354
53311SOL    HW161830   0.241  10.862   6.445
53311SOL    HW261831   0.354  10.849   6.345
53312SOL     OW61832   0.687   3.572   1.837
53312SOL    HW161833   0.709   3.647   1.893
53312SOL    HW261834   0.634   3.515   1.893
53313SOL     OW61835   7.807  13.190   8.177
53313SOL    HW161836   7.875  13.164   8.115
53313SOL    HW261837   7.729  13.142   8.149
53314SOL     OW61838   9.901   9.118  11.337
53314SOL    HW161839   9.805   9.110  11.337
53314SOL    HW261840   9.931   9.044  11.284
53315SOL     OW61841   7.733   7.656  14.719
53315SOL    HW161842   7.663   7.712  14.752
53315SOL    HW261843   7.688   7.580  14.682
53316SOL     OW61844   2.494   8.060   8.699
53316SOL    HW161845   2.445   8.069   8.781
53316SOL    HW261846   2.560   8.130   8.703
53317SOL     OW61847   2.550  12.881   7.967
53317SOL    HW161848   2.555  12.883   8.063
53317SOL    HW261849   2.460  12.854   7.949
53318SOL     OW61850   6.068  13.743  12.244
53318SOL    HW161851   5.993  13.752  12.186
53318SOL    HW261852   6.036  13.689  12.316
53319SOL     OW61853   6.767   4.062   5.953
53319SOL    HW161854   6.746   4.155   5.964
53319SOL    HW261855   6.725   4.037   5.871
53320SOL     OW61856  12.848   0.913   8.810
53320SOL    HW161857  12.853   0.842   8.875
53320SOL    HW261858  12.765   0.897   8.765
53321SOL     OW61859  13.087   3.762  14.551
53321SOL    HW161860  13.115   3.783  14.640
53321SOL    HW261861  12.994   3.786  14.549
53322SOL     OW61862   9.372   1.827   3.988
53322SOL    HW161863   9.337   1.916   3.995
53322SOL    HW261864   9.320   1.786   3.919
53323SOL     OW61865   8.806   1.787   3.356
53323SOL    HW161866   8.775   1.815   3.270
53323SOL    HW261867   8.727   1.782   3.410
53324SOL     OW61868  13.197  13.383  12.373
53324SOL    HW161869  13.189  13.457  12.313
53324SOL    HW261870  13.143  13.407  12.447
53325SOL     OW61871   4.005   8.728   3.890
53325SOL    HW161872   4.025   8.763   3.803
53325SOL    HW261873   4.084   8.680   3.915
53326SOL     OW61874   8.588   3.924   2.346
53326SOL    HW161875   8.583   3.836   2.382
53326SOL    HW261876   8.497   3.947   2.326
53327SOL     OW61877  10.022  13.032  12.626
53327SOL    HW161878  10.085  13.086  12.674
53327SOL    HW261879   9.949  13.019  12.687
53328SOL     OW61880   5.800   8.591   3.664
53328SOL    HW161881   5.726   8.558   3.715
53328SOL    HW261882   5.769   8.591   3.574
53329SOL     OW61883  13.358   0.148   2.579
53329SOL    HW161884  13.310   0.225   2.549
53329SOL    HW261885  13.312   0.074   2.540
53330SOL     OW61886  14.032   4.765   6.507
53330SOL    HW161887  13.985   4.782   6.589
53330SOL    HW261888  13.988   4.820   6.442
53331SOL     OW61889  13.630  10.746   0.570
53331SOL    HW161890  13.563  10.762   0.504
53331SOL    HW261891  13.584  10.702   0.641
53332SOL     OW61892   4.561   6.934   4.462
53332SOL    HW161893   4.604   7.002   4.513
53332SOL    HW261894   4.565   6.856   4.518
53333SOL     OW61895   6.136   3.019   6.605
53333SOL    HW161896   6.186   3.033   6.686
53333SOL    HW261897   6.108   3.106   6.578
53334SOL     OW61898   0.446   2.905  14.851
53334SOL    HW161899   0.432   2.955  14.770
53334SOL    HW261900   0.519   2.950   0.014
53335SOL     OW61901   6.439   3.585   2.306
53335SOL    HW161902   6.361   3.586   2.250
53335SOL    HW261903   6.465   3.677   2.314
53336SOL     OW61904   0.720  14.111  10.710
53336SOL    HW161905   0.732  14.074  10.623
53336SOL    HW261906   0.808  14.135  10.739
53337SOL     OW61907  11.267   7.758  13.961
53337SOL    HW161908  11.279   7.707  14.041
53337SOL    HW261909  11.172   7.768  13.954
53338SOL     OW61910  11.348  10.194   8.462
53338SOL    HW161911  11.285  10.225   8.397
53338SOL    HW261912  11.324  10.103   8.477
53339SOL     OW61913   2.085   4.051   6.513
53339SOL    HW161914   2.179   4.064   6.498
53339SOL    HW261915   2.069   3.961   6.485
53340SOL     OW61916   3.285   3.262  13.448
53340SOL    HW161917   3.303   3.355  13.435
53340SOL    HW261918   3.267   3.254  13.542
53341SOL     OW61919   1.100  12.738   1.095
53341SOL    HW161920   1.193  12.757   1.080
53341SOL    HW261921   1.100  12.665   1.156
53342SOL     OW61922   2.834   7.044  14.597
53342SOL    HW161923   2.769   7.060  14.666
53342SOL    HW261924   2.800   7.092  14.522
53343SOL     OW61925  13.460   0.793   6.375
53343SOL    HW161926  13.508   0.806   6.293
53343SOL    HW261927  13.369   0.812   6.353
53344SOL     OW61928   3.496   2.854   7.251
53344SOL    HW161929   3.519   2.947   7.256
53344SOL    HW261930   3.421   2.845   7.310
53345SOL     OW61931   3.108  12.244   8.959
53345SOL    HW161932   3.103  12.156   8.997
53345SOL    HW261933   3.171  12.235   8.887
53346SOL     OW61934  12.762   7.322  10.692
53346SOL    HW161935  12.703   7.382  10.737
53346SOL    HW261936  12.841   7.320  10.746
53347SOL     OW61937   9.481   6.173  14.734
53347SOL    HW161938   9.449   6.207  14.650
53347SOL    HW261939   9.450   6.236  14.799
53348SOL     OW61940   0.428   3.117  14.680
53348SOL    HW161941   0.426   3.192  14.621
53348SOL    HW261942   0.519   3.112  14.709
53349SOL     OW61943   5.334   6.392   1.355
53349SOL    HW161944   5.269   6.395   1.285
53349SOL    HW261945   5.294   6.440   1.427
53350SOL     OW61946   8.296   7.554  13.802
53350SOL    HW161947   8.324   7.637  13.840
53350SOL    HW261948   8.375   7.515  13.765
53351SOL     OW61949   4.484   0.536  14.741
53351SOL    HW161950   4.530   0.477  14.682
53351SOL    HW261951   4.540   0.613  14.748
53352SOL     OW61952   6.143  10.454   7.822
53352SOL    HW161953   6.182  10.372   7.791
53352SOL    HW261954   6.202  10.522   7.790
53353SOL     OW61955   2.862  13.979   1.195
53353SOL    HW161956   2.791  13.916   1.205
53353SOL    HW261957   2.931  13.948   1.253
53354SOL     OW61958   2.371   1.198  13.540
53354SOL    HW161959   2.304   1.253  13.581
53354SOL    HW261960   2.322   1.142  13.480
53355SOL     OW61961   0.037  11.678   8.070
53355SOL    HW161962   0.121  11.677   8.115
53355SOL    HW261963   0.018  11.586   8.050
53356SOL     OW61964   7.582  13.710  11.749
53356SOL    HW161965   7.662  13.702  11.698
53356SOL    HW261966   7.599  13.662  11.830
53357SOL     OW61967  14.532   3.622  10.800
53357SOL    HW161968  14.530   3.712  10.769
53357SOL    HW261969  14.540   3.569  10.721
53358SOL     OW61970   1.939   9.616   8.870
53358SOL    HW161971   1.877   9.659   8.811
53358SOL    HW261972   2.020   9.667   8.862
53359SOL     OW61973  11.573   4.786  11.980
53359SOL    HW161974  11.603   4.805  12.068
53359SOL    HW261975  11.548   4.693  11.982
53360SOL     OW61976   4.118   5.439   8.828
53360SOL    HW161977   4.033   5.394   8.825
53360SOL    HW261978   4.162   5.400   8.904
53361SOL     OW61979   9.028  13.440   0.176
53361SOL    HW161980   9.081  13.370   0.136
53361SOL    HW261981   9.065  13.451   0.263
53362SOL     OW61982   3.277  11.817   8.361
53362SOL    HW161983   3.281  11.747   8.426
53362SOL    HW261984   3.206  11.791   8.302
53363SOL     OW61985  10.576   0.066  11.990
53363SOL    HW161986  10.577   0.059  11.894
53363SOL    HW261987  10.537  14.864  12.020
53364SOL     OW61988   9.142   5.269   2.479
53364SOL    HW161989   9.053   5.234   2.486
53364SOL    HW261990   9.192   5.198   2.439
53365SOL     OW61991   9.729   6.767   4.413
53365SOL    HW161992   9.728   6.773   4.317
53365SOL    HW261993   9.675   6.841   4.442
53366SOL     OW61994   6.785  12.531  11.492
53366SOL    HW161995   6.825  12.569  11.414
53366SOL    HW261996   6.808  12.438  11.489
53367SOL     OW61997  11.972  12.267   4.666
53367SOL    HW161998  11.921  12.346   4.647
53367SOL    HW261999  12.003  12.237   4.581
53368SOL     OW62000  13.519  13.415   4.109
53368SOL    HW162001  13.595  13.363   4.133
53368SOL    HW262002  13.556  13.496   4.074
53369SOL     OW62003   4.463  12.014  12.390
53369SOL    HW162004   4.462  11.919  12.382
53369SOL    HW262005   4.402  12.044  12.323
53370SOL     OW62006  12.743   5.677   0.164
53370SOL    HW162007  12.656   5.685   0.125
53370SOL    HW262008  12.729   5.689   0.258
53371SOL     OW62009  10.543  13.561   0.801
53371SOL    HW162010  10.596  13.481   0.798
53371SOL    HW262011  10.604  13.628   0.831
53372SOL     OW62012   7.749   8.583  11.823
53372SOL    HW162013   7.775   8.569  11.914
53372SOL    HW262014   7.773   8.501  11.779
53373SOL     OW62015   8.508   4.758   6.766
53373SOL    HW162016   8.467   4.813   6.699
53373SOL    HW262017   8.535   4.819   6.834
53374SOL     OW62018   5.103   3.620   4.691
53374SOL    HW162019   5.167   3.639   4.760
53374SOL    HW262020   5.087   3.704   4.649
53375SOL     OW62021   9.009   0.734   2.803
53375SOL    HW162022   9.004   0.797   2.732
53375SOL    HW262023   8.972   0.653   2.766
53376SOL     OW62024  14.543   4.993  14.631
53376SOL    HW162025  14.578   4.906  14.610
53376SOL    HW262026  14.452   4.990  14.603
53377SOL     OW62027  10.121  13.106   9.269
53377SOL    HW162028  10.126  13.201   9.277
53377SOL    HW262029  10.124  13.089   9.175
53378SOL     OW62030  10.458  11.695   2.771
53378SOL    HW162031  10.379  11.676   2.719
53378SOL    HW262032  10.516  11.620   2.755
53379SOL     OW62033   3.258  14.083   3.888
53379SOL    HW162034   3.230  14.001   3.847
53379SOL    HW262035   3.247  14.068   3.982
53380SOL     OW62036   6.602   0.742   7.075
53380SOL    HW162037   6.655   0.815   7.107
53380SOL    HW262038   6.591   0.685   7.151
53381SOL     OW62039   1.511   6.875   0.201
53381SOL    HW162040   1.579   6.809   0.217
53381SOL    HW262041   1.509   6.927   0.282
53382SOL     OW62042   3.403   8.143   6.301
53382SOL    HW162043   3.428   8.086   6.228
53382SOL    HW262044   3.322   8.186   6.271
53383SOL     OW62045  13.202   7.784  11.361
53383SOL    HW162046  13.145   7.858  11.344
53383SOL    HW262047  13.285   7.823  11.388
53384SOL     OW62048  13.482  13.550   6.553
53384SOL    HW162049  13.458  13.579   6.465
53384SOL    HW262050  13.414  13.586   6.610
53385SOL     OW62051  10.024  12.521   3.088
53385SOL    HW162052   9.957  12.586   3.113
53385SOL    HW262053  10.080  12.514   3.164
53386SOL     OW62054   4.665  10.062  13.744
53386SOL    HW162055   4.657  10.080  13.650
53386SOL    HW262056   4.582  10.090  13.781
53387SOL     OW62057   2.654   0.404   1.843
53387SOL    HW162058   2.610   0.410   1.759
53387SOL    HW262059   2.716   0.477   1.843
53388SOL     OW62060  12.361  10.055   6.327
53388SOL    HW162061  12.345  10.128   6.387
53388SOL    HW262062  12.455  10.041   6.331
53389SOL     OW62063   2.960   7.537   8.727
53389SOL    HW162064   2.930   7.550   8.817
53389SOL    HW262065   2.916   7.457   8.698
53390SOL     OW62066   5.236   6.000   1.859
53390SOL    HW162067   5.246   6.081   1.809
53390SOL    HW262068   5.278   5.933   1.804
53391SOL     OW62069   7.088   3.422  10.123
53391SOL    HW162070   7.171   3.452  10.085
53391SOL    HW262071   7.069   3.341  10.076
53392SOL     OW62072   5.008  11.552  13.129
53392SOL    HW162073   5.019  11.480  13.067
53392SOL    HW262074   5.048  11.627  13.086
53393SOL     OW62075   5.048   7.859   1.464
53393SOL    HW162076   5.019   7.938   1.418
53393SOL    HW262077   4.986   7.851   1.537
53394SOL     OW62078   2.044  14.138  13.499
53394SOL    HW162079   2.081  14.089  13.572
53394SOL    HW262080   1.959  14.096  13.483
53395SOL     OW62081   4.855   0.989   9.837
53395SOL    HW162082   4.885   0.914   9.786
53395SOL    HW262083   4.830   1.055   9.772
53396SOL     OW62084  14.377   8.172   0.382
53396SOL    HW162085  14.392   8.084   0.415
53396SOL    HW262086  14.452   8.191   0.327
53397SOL     OW62087  13.087  14.695   2.874
53397SOL    HW162088  13.146  14.620   2.867
53397SOL    HW262089  13.106  14.732   2.960
53398SOL     OW62090  10.693   9.159  10.778
53398SOL    HW162091  10.677   9.069  10.751
53398SOL    HW262092  10.760   9.191  10.717
53399SOL     OW62093   6.822   5.196   3.667
53399SOL    HW162094   6.853   5.134   3.732
53399SOL    HW262095   6.891   5.262   3.660
53400SOL     OW62096   6.678   9.549   1.164
53400SOL    HW162097   6.687   9.456   1.185
53400SOL    HW262098   6.615   9.552   1.092
53401SOL     OW62099   2.696  13.824   9.839
53401SOL    HW162100   2.753  13.756   9.803
53401SOL    HW262101   2.752  13.874   9.897
53402SOL     OW62102   7.158   3.853   7.490
53402SOL    HW162103   7.078   3.899   7.516
53402SOL    HW262104   7.183   3.894   7.407
53403SOL     OW62105  11.891   0.008   4.642
53403SOL    HW162106  11.903   0.043   4.730
53403SOL    HW262107  11.980  14.878   4.608
53404SOL     OW62108   7.185  10.010  14.774
53404SOL    HW162109   7.189  10.036  14.866
53404SOL    HW262110   7.206   9.917  14.774
53405SOL     OW62111  14.364  11.760  11.732
53405SOL    HW162112  14.431  11.702  11.768
53405SOL    HW262113  14.290  11.702  11.713
53406SOL     OW62114   5.028   2.068   6.052
53406SOL    HW162115   5.081   2.090   6.129
53406SOL    HW262116   4.938   2.067   6.084
53407SOL     OW62117   8.041   0.161  14.522
53407SOL    HW162118   7.990   0.173  14.602
53407SOL    HW262119   7.978   0.169  14.452
53408SOL     OW62120   2.946   1.049   8.648
53408SOL    HW162121   2.910   0.961   8.643
53408SOL    HW262122   2.873   1.103   8.677
53409SOL     OW62123   8.003  13.518  10.412
53409SOL    HW162124   8.030  13.492  10.500
53409SOL    HW262125   8.036  13.608  10.403
53410SOL     OW62126  11.385   0.018   0.644
53410SOL    HW162127  11.407  14.827   0.584
53410SOL    HW262128  11.297  14.876   0.677
53411SOL     OW62129  11.137   8.353   4.108
53411SOL    HW162130  11.174   8.266   4.122
53411SOL    HW262131  11.059   8.354   4.163
53412SOL     OW62132   1.095   1.629   6.056
53412SOL    HW162133   1.104   1.661   6.146
53412SOL    HW262134   1.183   1.635   6.020
53413SOL     OW62135  14.265   5.656   1.284
53413SOL    HW162136  14.339   5.651   1.223
53413SOL    HW262137  14.294   5.719   1.350
53414SOL     OW62138   2.384   1.558   7.427
53414SOL    HW162139   2.458   1.511   7.463
53414SOL    HW262140   2.331   1.491   7.383
53415SOL     OW62141   4.779   7.085   0.541
53415SOL    HW162142   4.708   7.074   0.605
53415SOL    HW262143   4.852   7.034   0.578
53416SOL     OW62144  13.926   0.468  10.345
53416SOL    HW162145  13.989   0.533  10.314
53416SOL    HW262146  13.949   0.388  10.298
53417SOL     OW62147   5.950   2.584  11.615
53417SOL    HW162148   5.920   2.636  11.690
53417SOL    HW262149   5.908   2.625  11.540
53418SOL     OW62150   2.597   0.475   3.236
53418SOL    HW162151   2.516   0.462   3.187
53418SOL    HW262152   2.584   0.426   3.317
53419SOL     OW62153   5.859   3.969   5.683
53419SOL    HW162154   5.883   3.878   5.698
53419SOL    HW262155   5.822   3.999   5.766
53420SOL     OW62156   6.671   9.291   4.461
53420SOL    HW162157   6.655   9.368   4.407
53420SOL    HW262158   6.762   9.267   4.444
53421SOL     OW62159   5.658  13.739   8.112
53421SOL    HW162160   5.633  13.653   8.078
53421SOL    HW262161   5.753  13.742   8.104
53422SOL     OW62162  10.092   1.297   1.820
53422SOL    HW162163  10.044   1.349   1.755
53422SOL    HW262164  10.174   1.345   1.833
53423SOL     OW62165  12.219  12.440   5.503
53423SOL    HW162166  12.297  12.392   5.532
53423SOL    HW262167  12.235  12.530   5.531
53424SOL     OW62168   9.106  12.218   4.852
53424SOL    HW162169   9.085  12.124   4.854
53424SOL    HW262170   9.047  12.254   4.787
53425SOL     OW62171  11.668   7.775  12.833
53425SOL    HW162172  11.583   7.793  12.873
53425SOL    HW262173  11.653   7.700  12.776
53426SOL     OW62174  11.836  14.442  11.505
53426SOL    HW162175  11.838  14.525  11.554
53426SOL    HW262176  11.843  14.374  11.572
53427SOL     OW62177   2.752   1.972  11.856
53427SOL    HW162178   2.728   2.044  11.797
53427SOL    HW262179   2.671   1.921  11.865
53428SOL     OW62180   2.060   9.388  13.641
53428SOL    HW162181   2.040   9.297  13.616
53428SOL    HW262182   2.149   9.402  13.610
53429SOL     OW62183  14.718  10.050   8.004
53429SOL    HW162184  14.777  10.065   8.077
53429SOL    HW262185  14.766  10.080   7.927
53430SOL     OW62186  14.689   8.553  14.695
53430SOL    HW162187  14.705   8.648  14.695
53430SOL    HW262188  14.772   8.515  14.724
53431SOL     OW62189  14.750  12.977   2.013
53431SOL    HW162190  14.835  13.002   1.976
53431SOL    HW262191  14.692  12.968   1.937
53432SOL     OW62192   4.158   8.769   6.259
53432SOL    HW162193   4.209   8.721   6.324
53432SOL    HW262194   4.069   8.770   6.294
53433SOL     OW62195   9.169   1.296  13.964
53433SOL    HW162196   9.258   1.290  14.000
53433SOL    HW262197   9.118   1.232  14.015
53434SOL     OW62198  12.665   9.680   7.891
53434SOL    HW162199  12.708   9.617   7.950
53434SOL    HW262200  12.704   9.662   7.805
53435SOL     OW62201  11.709  10.604   9.417
53435SOL    HW162202  11.625  10.594   9.462
53435SOL    HW262203  11.711  10.697   9.392
53436SOL     OW62204   3.162  13.653  14.442
53436SOL    HW162205   3.239  13.596  14.436
53436SOL    HW262206   3.087  13.595  14.427
53437SOL     OW62207   6.097   6.247  11.306
53437SOL    HW162208   6.125   6.330  11.269
53437SOL    HW262209   6.178   6.205  11.335
53438SOL     OW62210   7.908   8.815   1.493
53438SOL    HW162211   7.887   8.885   1.431
53438SOL    HW262212   7.902   8.734   1.441
53439SOL     OW62213  14.295   0.351   5.126
53439SOL    HW162214  14.238   0.389   5.193
53439SOL    HW262215  14.306   0.260   5.152
53440SOL     OW62216  11.973  12.249   0.427
53440SOL    HW162217  11.925  12.198   0.492
53440SOL    HW262218  11.936  12.337   0.433
53441SOL     OW62219  10.489  11.419   3.065
53441SOL    HW162220  10.569  11.423   3.012
53441SOL    HW262221  10.517  11.447   3.153
53442SOL     OW62222   4.855   2.816   4.090
53442SOL    HW162223   4.773   2.840   4.133
53442SOL    HW262224   4.892   2.749   4.147
53443SOL     OW62225   1.478  11.534   3.594
53443SOL    HW162226   1.386  11.554   3.614
53443SOL    HW262227   1.528  11.582   3.660
53444SOL     OW62228  13.938   9.897   1.581
53444SOL    HW162229  13.992   9.830   1.538
53444SOL    HW262230  13.850   9.881   1.549
53445SOL     OW62231   9.368  13.003   3.127
53445SOL    HW162232   9.277  13.022   3.107
53445SOL    HW262233   9.417  13.044   3.056
53446SOL     OW62234  11.634  14.195   9.222
53446SOL    HW162235  11.564  14.216   9.160
53446SOL    HW262236  11.649  14.101   9.212
53447SOL     OW62237  11.426  13.281  13.215
53447SOL    HW162238  11.455  13.308  13.128
53447SOL    HW262239  11.349  13.335  13.233
53448SOL     OW62240   9.145   2.419   0.666
53448SOL    HW162241   9.108   2.406   0.753
53448SOL    HW262242   9.089   2.486   0.626
53449SOL     OW62243  11.831  12.698   0.762
53449SOL    HW162244  11.905  12.694   0.701
53449SOL    HW262245  11.854  12.635   0.831
53450SOL     OW62246   7.959   5.713  11.431
53450SOL    HW162247   7.876   5.757  11.414
53450SOL    HW262248   7.956   5.634  11.378
53451SOL     OW62249   9.304  13.252   9.168
53451SOL    HW162250   9.386  13.205   9.183
53451SOL    HW262251   9.316  13.335   9.214
53452SOL     OW62252   1.793  13.263   1.008
53452SOL    HW162253   1.876  13.300   1.037
53452SOL    HW262254   1.728  13.299   1.068
53453SOL     OW62255   4.125   3.354   6.203
53453SOL    HW162256   4.208   3.317   6.175
53453SOL    HW262257   4.066   3.279   6.208
53454SOL     OW62258   8.443   2.637   0.513
53454SOL    HW162259   8.377   2.615   0.448
53454SOL    HW262260   8.509   2.687   0.465
53455SOL     OW62261  11.228  11.726   5.096
53455SOL    HW162262  11.243  11.635   5.119
53455SOL    HW262263  11.165  11.723   5.025
53456SOL     OW62264   6.070   8.812   2.375
53456SOL    HW162265   6.128   8.738   2.361
53456SOL    HW262266   6.008   8.781   2.441
53457SOL     OW62267   7.118  14.638   2.366
53457SOL    HW162268   7.082  14.726   2.360
53457SOL    HW262269   7.097  14.598   2.282
53458SOL     OW62270  10.555   8.793   3.546
53458SOL    HW162271  10.561   8.808   3.640
53458SOL    HW262272  10.567   8.879   3.507
53459SOL     OW62273   3.258   5.253   2.163
53459SOL    HW162274   3.201   5.295   2.227
53459SOL    HW262275   3.284   5.171   2.205
53460SOL     OW62276   2.721  14.713  13.307
53460SOL    HW162277   2.638  14.754  13.283
53460SOL    HW262278   2.778  14.787  13.330
53461SOL     OW62279   0.813   3.365  12.123
53461SOL    HW162280   0.891   3.373  12.179
53461SOL    HW262281   0.839   3.305  12.053
53462SOL     OW62282  11.492   4.749   5.137
53462SOL    HW162283  11.468   4.716   5.223
53462SOL    HW262284  11.547   4.826   5.156
53463SOL     OW62285  10.234  13.162   7.597
53463SOL    HW162286  10.305  13.118   7.550
53463SOL    HW262287  10.260  13.254   7.599
53464SOL     OW62288   1.115   9.247   4.796
53464SOL    HW162289   1.082   9.302   4.725
53464SOL    HW262290   1.037   9.209   4.835
53465SOL     OW62291  12.908   1.224   0.980
53465SOL    HW162292  12.910   1.143   0.929
53465SOL    HW262293  12.998   1.233   1.013
53466SOL     OW62294   0.775   4.364   2.778
53466SOL    HW162295   0.757   4.450   2.814
53466SOL    HW262296   0.870   4.363   2.764
53467SOL     OW62297  11.461   9.557   9.870
53467SOL    HW162298  11.479   9.525   9.782
53467SOL    HW262299  11.371   9.531   9.888
53468SOL     OW62300  14.439   5.798  10.916
53468SOL    HW162301  14.531   5.799  10.941
53468SOL    HW262302  14.413   5.706  10.926
53469SOL     OW62303  12.667   4.381   1.700
53469SOL    HW162304  12.630   4.467   1.682
53469SOL    HW262305  12.706   4.354   1.617
53470SOL     OW62306   1.438   3.841   4.162
53470SOL    HW162307   1.433   3.926   4.117
53470SOL    HW262308   1.382   3.850   4.238
53471SOL     OW62309   1.676   1.089  11.957
53471SOL    HW162310   1.675   0.996  11.931
53471SOL    HW262311   1.696   1.136  11.877
53472SOL     OW62312   7.546  10.505   5.449
53472SOL    HW162313   7.508  10.418   5.462
53472SOL    HW262314   7.640  10.490   5.450
53473SOL     OW62315  13.045   1.302   9.706
53473SOL    HW162316  13.118   1.241   9.693
53473SOL    HW262317  12.985   1.285   9.633
53474SOL     OW62318   8.064   2.118   2.607
53474SOL    HW162319   8.151   2.114   2.567
53474SOL    HW262320   8.052   2.210   2.631
53475SOL     OW62321  12.773   9.063  10.859
53475SOL    HW162322  12.679   9.080  10.851
53475SOL    HW262323  12.801   9.118  10.933
53476SOL     OW62324   1.985   2.360   0.303
53476SOL    HW162325   1.917   2.297   0.279
53476SOL    HW262326   1.954   2.443   0.268
53477SOL     OW62327  14.369   3.952   5.450
53477SOL    HW162328  14.312   3.986   5.381
53477SOL    HW262329  14.449   3.927   5.404
53478SOL     OW62330   6.004   9.528  10.280
53478SOL    HW162331   5.942   9.475  10.229
53478SOL    HW262332   6.090   9.498  10.252
53479SOL     OW62333  14.423   0.785  11.443
53479SOL    HW162334  14.447   0.715  11.382
53479SOL    HW262335  14.354   0.833  11.399
53480SOL     OW62336  10.395  12.833   9.429
53480SOL    HW162337  10.383  12.762   9.493
53480SOL    HW262338  10.356  12.798   9.348
53481SOL     OW62339  10.591  10.061   4.769
53481SOL    HW162340  10.575  10.000   4.696
53481SOL    HW262341  10.599  10.004   4.846
53482SOL     OW62342   4.378   1.489   7.744
53482SOL    HW162343   4.468   1.471   7.719
53482SOL    HW262344   4.385   1.553   7.815
53483SOL     OW62345   4.131   5.571   4.442
53483SOL    HW162346   4.073   5.540   4.512
53483SOL    HW262347   4.192   5.629   4.486
53484SOL     OW62348   1.314   1.538  11.100
53484SOL    HW162349   1.398   1.517  11.059
53484SOL    HW262350   1.279   1.610  11.047
53485SOL     OW62351   2.010  12.448   6.422
53485SOL    HW162352   1.963  12.385   6.368
53485SOL    HW262353   2.041  12.397   6.497
53486SOL     OW62354   8.269   4.209   6.002
53486SOL    HW162355   8.227   4.295   6.010
53486SOL    HW262356   8.221   4.153   6.064
53487SOL     OW62357   9.835  13.762  12.632
53487SOL    HW162358   9.750  13.734  12.599
53487SOL    HW262359   9.867  13.688  12.684
53488SOL     OW62360  14.740  12.017   1.504
53488SOL    HW162361  14.815  12.020   1.446
53488SOL    HW262362  14.664  12.014   1.446
53489SOL     OW62363   8.594   7.243   2.678
53489SOL    HW162364   8.542   7.177   2.633
53489SOL    HW262365   8.654   7.276   2.611
53490SOL     OW62366   4.255  14.013  11.129
53490SOL    HW162367   4.233  14.086  11.071
53490SOL    HW262368   4.238  13.935  11.077
53491SOL     OW62369   4.280  11.304   0.563
53491SOL    HW162370   4.195  11.261   0.560
53491SOL    HW262371   4.322  11.280   0.480
53492SOL     OW62372   2.936   8.715   9.428
53492SOL    HW162373   3.021   8.735   9.468
53492SOL    HW262374   2.904   8.639   9.476
53493SOL     OW62375   0.717   1.189   1.570
53493SOL    HW162376   0.789   1.163   1.627
53493SOL    HW262377   0.657   1.115   1.572
53494SOL     OW62378   4.278   4.175  12.602
53494SOL    HW162379   4.334   4.251  12.592
53494SOL    HW262380   4.189   4.211  12.607
53495SOL     OW62381   3.501  14.812  14.302
53495SOL    HW162382   3.461  14.816  14.215
53495SOL    HW262383   3.595  14.824  14.285
53496SOL     OW62384   9.471  11.390  10.189
53496SOL    HW162385   9.454  11.410  10.281
53496SOL    HW262386   9.565  11.373  10.185
53497SOL     OW62387   9.241  11.629  13.729
53497SOL    HW162388   9.196  11.712  13.748
53497SOL    HW262389   9.217  11.572  13.802
53498SOL     OW62390   2.367   0.306   3.827
53498SOL    HW162391   2.397   0.267   3.745
53498SOL    HW262392   2.404   0.249   3.895
53499SOL     OW62393   1.125  10.666   1.679
53499SOL    HW162394   1.085  10.733   1.734
53499SOL    HW262395   1.202  10.638   1.729
53500SOL     OW62396   8.634   0.951   7.999
53500SOL    HW162397   8.642   1.005   7.921
53500SOL    HW262398   8.544   0.966   8.029
53501SOL     OW62399   4.918   2.581   4.635
53501SOL    HW162400   4.936   2.650   4.699
53501SOL    HW262401   4.838   2.610   4.591
53502SOL     OW62402   7.821   8.215   9.429
53502SOL    HW162403   7.895   8.165   9.395
53502SOL    HW262404   7.782   8.158   9.495
53503SOL     OW62405  10.067  10.911   3.414
53503SOL    HW162406  10.142  10.876   3.366
53503SOL    HW262407  10.105  10.959   3.487
53504SOL     OW62408  12.340  11.847  12.513
53504SOL    HW162409  12.324  11.917  12.576
53504SOL    HW262410  12.435  11.849  12.499
53505SOL     OW62411   1.384   9.513   3.117
53505SOL    HW162412   1.418   9.456   3.186
53505SOL    HW262413   1.457   9.525   3.057
53506SOL     OW62414   8.404   6.839   1.763
53506SOL    HW162415   8.326   6.814   1.812
53506SOL    HW262416   8.438   6.916   1.808
53507SOL     OW62417   3.393   0.064   3.993
53507SOL    HW162418   3.421   0.002   4.060
53507SOL    HW262419   3.416   0.023   3.910
53508SOL     OW62420   9.629   6.507   0.877
53508SOL    HW162421   9.597   6.417   0.867
53508SOL    HW262422   9.717   6.505   0.839
53509SOL     OW62423  14.489  11.987   7.521
53509SOL    HW162424  14.494  11.944   7.607
53509SOL    HW262425  14.546  12.063   7.528
53510SOL     OW62426   8.453   1.324   2.847
53510SOL    HW162427   8.397   1.322   2.925
53510SOL    HW262428   8.533   1.279   2.875
53511SOL     OW62429   2.874   0.171   6.744
53511SOL    HW162430   2.908   0.228   6.675
53511SOL    HW262431   2.796   0.216   6.776
53512SOL     OW62432  12.377  13.056  14.622
53512SOL    HW162433  12.316  13.119  14.659
53512SOL    HW262434  12.342  13.035  14.536
53513SOL     OW62435   9.779   4.446   4.164
53513SOL    HW162436   9.709   4.428   4.227
53513SOL    HW262437   9.786   4.366   4.112
53514SOL     OW62438  11.875   8.135  13.398
53514SOL    HW162439  11.941   8.190  13.355
53514SOL    HW262440  11.819   8.105  13.326
53515SOL     OW62441   0.434   2.999  13.850
53515SOL    HW162442   0.342   2.982  13.872
53515SOL    HW262443   0.435   3.007  13.755
53516SOL     OW62444  13.179   6.859   3.907
53516SOL    HW162445  13.123   6.786   3.880
53516SOL    HW262446  13.204   6.837   3.997
53517SOL     OW62447   3.804   8.907   2.465
53517SOL    HW162448   3.757   8.841   2.414
53517SOL    HW262449   3.851   8.856   2.531
53518SOL     OW62450   6.395   2.669   9.998
53518SOL    HW162451   6.478   2.715   9.993
53518SOL    HW262452   6.338   2.713   9.936
53519SOL     OW62453   5.705   5.144   8.412
53519SOL    HW162454   5.789   5.179   8.441
53519SOL    HW262455   5.728   5.071   8.355
53520SOL     OW62456   8.091  14.288   0.739
53520SOL    HW162457   8.085  14.318   0.830
53520SOL    HW262458   8.173  14.238   0.736
53521SOL     OW62459   7.481  10.829   2.070
53521SOL    HW162460   7.447  10.769   2.136
53521SOL    HW262461   7.569  10.795   2.050
53522SOL     OW62462   8.084  13.696   9.411
53522SOL    HW162463   7.997  13.711   9.448
53522SOL    HW262464   8.141  13.758   9.457
53523SOL     OW62465  13.293   7.355   5.740
53523SOL    HW162466  13.254   7.336   5.825
53523SOL    HW262467  13.359   7.288   5.728
53524SOL     OW62468  14.640   1.675   2.849
53524SOL    HW162469  14.629   1.643   2.938
53524SOL    HW262470  14.564   1.641   2.801
53525SOL     OW62471  13.033   5.683   7.203
53525SOL    HW162472  13.089   5.682   7.126
53525SOL    HW262473  13.074   5.622   7.264
53526SOL     OW62474   3.539   5.834   1.989
53526SOL    HW162475   3.589   5.890   2.049
53526SOL    HW262476   3.593   5.756   1.980
53527SOL     OW62477  14.513   0.778   2.577
53527SOL    HW162478  14.543   0.747   2.491
53527SOL    HW262479  14.536   0.706   2.636
53528SOL     OW62480  12.360   2.554   0.065
53528SOL    HW162481  12.417   2.572  14.870
53528SOL    HW262482  12.336   2.462   0.055
53529SOL     OW62483   4.595   5.343  13.271
53529SOL    HW162484   4.625   5.414  13.328
53529SOL    HW262485   4.507   5.323  13.301
53530SOL     OW62486  10.669   0.631  10.234
53530SOL    HW162487  10.657   0.652  10.142
53530SOL    HW262488  10.693   0.539  10.235
53531SOL     OW62489   4.846   1.867   4.751
53531SOL    HW162490   4.848   1.961   4.764
53531SOL    HW262491   4.912   1.833   4.813
53532SOL     OW62492   5.275  12.245   5.506
53532SOL    HW162493   5.279  12.171   5.566
53532SOL    HW262494   5.257  12.321   5.561
53533SOL     OW62495   7.633   0.510  13.357
53533SOL    HW162496   7.692   0.580  13.328
53533SOL    HW262497   7.609   0.465  13.276
53534SOL     OW62498   9.819   6.564   9.155
53534SOL    HW162499   9.733   6.580   9.194
53534SOL    HW262500   9.800   6.549   9.062
53535SOL     OW62501   0.659   6.217  13.807
53535SOL    HW162502   0.614   6.169  13.737
53535SOL    HW262503   0.717   6.278  13.760
53536SOL     OW62504   6.849  14.223   9.187
53536SOL    HW162505   6.777  14.254   9.132
53536SOL    HW262506   6.885  14.148   9.140
53537SOL     OW62507   6.608   8.928  14.128
53537SOL    HW162508   6.575   8.839  14.137
53537SOL    HW262509   6.556   8.980  14.189
53538SOL     OW62510  10.273   7.468   5.885
53538SOL    HW162511  10.297   7.552   5.845
53538SOL    HW262512  10.338   7.455   5.954
53539SOL     OW62513   0.082   1.393   9.833
53539SOL    HW162514   0.120   1.339   9.902
53539SOL    HW262515   0.040   1.465   9.879
53540SOL     OW62516   9.429  11.221   3.786
53540SOL    HW162517   9.338  11.192   3.789
53540SOL    HW262518   9.472  11.159   3.728
53541SOL     OW62519   5.543  14.628   4.161
53541SOL    HW162520   5.560  14.640   4.068
53541SOL    HW262521   5.594  14.698   4.204
53542SOL     OW62522   5.309   8.183   1.169
53542SOL    HW162523   5.280   8.158   1.257
53542SOL    HW262524   5.231   8.218   1.127
53543SOL     OW62525   7.132   3.504   1.614
53543SOL    HW162526   7.225   3.495   1.632
53543SOL    HW262527   7.120   3.462   1.528
53544SOL     OW62528   5.373  11.944   0.168
53544SOL    HW162529   5.309  11.894   0.218
53544SOL    HW262530   5.457  11.921   0.208
53545SOL     OW62531   6.984   4.374  12.243
53545SOL    HW162532   6.963   4.299  12.299
53545SOL    HW262533   6.999   4.446  12.305
53546SOL     OW62534   3.529   7.787   2.268
53546SOL    HW162535   3.620   7.761   2.275
53546SOL    HW262536   3.522   7.831   2.183
53547SOL     OW62537  12.882   2.312   0.213
53547SOL    HW162538  12.961   2.365   0.210
53547SOL    HW262539  12.913   2.223   0.230
53548SOL     OW62540   3.814   3.985  10.143
53548SOL    HW162541   3.788   4.069  10.180
53548SOL    HW262542   3.736   3.954  10.095
53549SOL     OW62543  11.186   1.173   9.865
53549SOL    HW162544  11.212   1.261   9.893
53549SOL    HW262545  11.227   1.114   9.928
53550SOL     OW62546   9.597   4.350   0.971
53550SOL    HW162547   9.613   4.442   0.949
53550SOL    HW262548   9.633   4.340   1.059
53551SOL     OW62549  14.313  12.965   6.467
53551SOL    HW162550  14.384  12.996   6.410
53551SOL    HW262551  14.261  13.044   6.485
53552SOL     OW62552   1.097  14.148   8.174
53552SOL    HW162553   1.121  14.056   8.174
53552SOL    HW262554   1.159  14.189   8.113
53553SOL     OW62555  11.318  11.443   4.871
53553SOL    HW162556  11.257  11.412   4.804
53553SOL    HW262557  11.261  11.483   4.938
53554SOL     OW62558   3.156   2.069   0.001
53554SOL    HW162559   3.168   2.162  14.859
53554SOL    HW262560   3.091   2.037  14.818
53555SOL     OW62561   3.400   3.976   0.104
53555SOL    HW162562   3.412   4.039   0.032
53555SOL    HW262563   3.403   4.030   0.183
53556SOL     OW62564   5.973   4.486   5.465
53556SOL    HW162565   6.061   4.478   5.502
53556SOL    HW262566   5.959   4.403   5.420
53557SOL     OW62567  12.293   9.410  14.062
53557SOL    HW162568  12.298   9.461  14.143
53557SOL    HW262569  12.369   9.352  14.067
53558SOL     OW62570   8.815   1.622   0.578
53558SOL    HW162571   8.882   1.575   0.529
53558SOL    HW262572   8.864   1.692   0.622
53559SOL     OW62573  11.545   3.726   3.427
53559SOL    HW162574  11.533   3.636   3.396
53559SOL    HW262575  11.489   3.733   3.504
53560SOL     OW62576   1.428   5.076   8.593
53560SOL    HW162577   1.455   5.147   8.533
53560SOL    HW262578   1.434   5.116   8.680
53561SOL     OW62579   1.544   1.449  13.574
53561SOL    HW162580   1.583   1.477  13.656
53561SOL    HW262581   1.615   1.450  13.511
53562SOL     OW62582   1.801  13.061  13.988
53562SOL    HW162583   1.893  13.043  14.010
53562SOL    HW262584   1.766  12.975  13.965
53563SOL     OW62585  11.579  10.660  14.059
53563SOL    HW162586  11.572  10.640  14.152
53563SOL    HW262587  11.547  10.581  14.015
53564SOL     OW62588  13.219   6.282   3.161
53564SOL    HW162589  13.214   6.241   3.247
53564SOL    HW262590  13.308   6.265   3.131
53565SOL     OW62591   0.930   6.929  13.008
53565SOL    HW162592   0.887   6.851  12.974
53565SOL    HW262593   0.969   6.901  13.091
53566SOL     OW62594   4.406   6.892   4.758
53566SOL    HW162595   4.496   6.918   4.776
53566SOL    HW262596   4.368   6.967   4.712
53567SOL     OW62597  13.256  12.148   1.460
53567SOL    HW162598  13.235  12.240   1.445
53567SOL    HW262599  13.173  12.108   1.485
53568SOL     OW62600   2.879   3.068   8.326
53568SOL    HW162601   2.885   3.021   8.243
53568SOL    HW262602   2.865   3.000   8.391
53569SOL     OW62603   8.262   8.215   7.928
53569SOL    HW162604   8.299   8.164   7.999
53569SOL    HW262605   8.227   8.150   7.867
53570SOL     OW62606   5.136   5.827   9.588
53570SOL    HW162607   5.107   5.914   9.614
53570SOL    HW262608   5.078   5.767   9.634
53571SOL     OW62609   5.926  12.001   5.983
53571SOL    HW162610   5.988  12.047   5.926
53571SOL    HW262611   5.929  11.910   5.954
53572SOL     OW62612  13.078   2.994   6.421
53572SOL    HW162613  13.055   3.085   6.442
53572SOL    HW262614  12.994   2.948   6.420
53573SOL     OW62615  10.460   4.845   8.747
53573SOL    HW162616  10.451   4.908   8.676
53573SOL    HW262617  10.452   4.760   8.705
53574SOL     OW62618   4.385  11.934  10.413
53574SOL    HW162619   4.297  11.922  10.376
53574SOL    HW262620   4.379  12.015  10.463
53575SOL     OW62621   6.820  10.223   6.097
53575SOL    HW162622   6.803  10.314   6.122
53575SOL    HW262623   6.737  10.178   6.112
53576SOL     OW62624  14.719   6.936   8.313
53576SOL    HW162625  14.760   6.850   8.308
53576SOL    HW262626  14.635   6.926   8.268
53577SOL     OW62627  13.676  12.243   2.286
53577SOL    HW162628  13.716  12.327   2.262
53577SOL    HW262629  13.714  12.180   2.224
53578SOL     OW62630   3.406  10.116   4.966
53578SOL    HW162631   3.339  10.171   4.925
53578SOL    HW262632   3.366  10.028   4.968
53579SOL     OW62633  11.051   8.753   7.856
53579SOL    HW162634  11.044   8.670   7.808
53579SOL    HW262635  11.081   8.728   7.943
53580SOL     OW62636   7.735   1.249   6.850
53580SOL    HW162637   7.660   1.248   6.791
53580SOL    HW262638   7.699   1.229   6.936
53581SOL     OW62639  14.490   5.210   3.050
53581SOL    HW162640  14.532   5.268   3.113
53581SOL    HW262641  14.553   5.138   3.038
53582SOL     OW62642  10.701  12.478  13.326
53582SOL    HW162643  10.792  12.450  13.320
53582SOL    HW262644  10.693  12.519  13.412
53583SOL     OW62645   0.614   7.133   4.659
53583SOL    HW162646   0.685   7.198   4.655
53583SOL    HW262647   0.656   7.055   4.695
53584SOL     OW62648   4.184   5.530  13.118
53584SOL    HW162649   4.147   5.522  13.030
53584SOL    HW262650   4.267   5.483  13.113
53585SOL     OW62651   4.437  10.929   7.889
53585SOL    HW162652   4.508  10.992   7.881
53585SOL    HW262653   4.392  10.953   7.970
53586SOL     OW62654   5.266   8.865   1.928
53586SOL    HW162655   5.337   8.927   1.938
53586SOL    HW262656   5.309   8.781   1.912
53587SOL     OW62657   6.466   0.676   8.452
53587SOL    HW162658   6.555   0.641   8.446
53587SOL    HW262659   6.417   0.610   8.500
53588SOL     OW62660  10.165   2.806   2.170
53588SOL    HW162661  10.225   2.876   2.199
53588SOL    HW262662  10.137   2.834   2.083
53589SOL     OW62663  13.048   4.386   3.207
53589SOL    HW162664  13.139   4.360   3.225
53589SOL    HW262665  13.007   4.307   3.174
53590SOL     OW62666   3.998   0.460  12.257
53590SOL    HW162667   3.917   0.497  12.292
53590SOL    HW262668   3.993   0.367  12.279
53591SOL     OW62669   9.775  14.451   5.210
53591SOL    HW162670   9.683  14.440   5.233
53591SOL    HW262671   9.804  14.364   5.182
53592SOL     OW62672   0.308   8.469  10.366
53592SOL    HW162673   0.233   8.521  10.336
53592SOL    HW262674   0.269   8.402  10.422
53593SOL     OW62675   7.705   5.395   1.604
53593SOL    HW162676   7.654   5.329   1.652
53593SOL    HW262677   7.655   5.476   1.614
53594SOL     OW62678   7.017   9.903   4.486
53594SOL    HW162679   7.040   9.814   4.514
53594SOL    HW262680   6.945   9.928   4.544
53595SOL     OW62681  13.405   0.625  14.346
53595SOL    HW162682  13.356   0.545  14.368
53595SOL    HW262683  13.456   0.644  14.424
53596SOL     OW62684   4.307  11.450  11.892
53596SOL    HW162685   4.260  11.429  11.973
53596SOL    HW262686   4.344  11.537  11.908
53597SOL     OW62687  12.616  11.911   0.340
53597SOL    HW162688  12.540  11.940   0.289
53597SOL    HW262689  12.636  11.986   0.397
53598SOL     OW62690   1.078   1.562  11.914
53598SOL    HW162691   1.123   1.485  11.948
53598SOL    HW262692   1.111   1.571  11.825
53599SOL     OW62693   6.238  11.138   7.638
53599SOL    HW162694   6.175  11.080   7.681
53599SOL    HW262695   6.206  11.146   7.548
53600SOL     OW62696  13.837   9.759  12.664
53600SOL    HW162697  13.745   9.763  12.639
53600SOL    HW262698  13.876   9.695  12.605
53601SOL     OW62699  13.612   2.946   8.092
53601SOL    HW162700  13.568   2.941   8.177
53601SOL    HW262701  13.690   2.999   8.108
53602SOL     OW62702   8.559   3.600  10.946
53602SOL    HW162703   8.547   3.569  10.857
53602SOL    HW262704   8.575   3.694  10.937
53603SOL     OW62705   0.896   7.324  10.168
53603SOL    HW162706   0.967   7.388  10.165
53603SOL    HW262707   0.892   7.288  10.080
53604SOL     OW62708  12.645  10.266  14.730
53604SOL    HW162709  12.732  10.284  14.766
53604SOL    HW262710  12.585  10.315  14.787
53605SOL     OW62711   4.908   7.388   7.608
53605SOL    HW162712   4.917   7.324   7.679
53605SOL    HW262713   4.970   7.458   7.631
53606SOL     OW62714   9.418   0.046   7.722
53606SOL    HW162715   9.439   0.139   7.712
53606SOL    HW262716   9.353   0.043   7.792
53607SOL     OW62717   2.440   9.950   0.712
53607SOL    HW162718   2.405   9.884   0.653
53607SOL    HW262719   2.416   9.919   0.800
53608SOL     OW62720  13.274  11.328  13.531
53608SOL    HW162721  13.351  11.342  13.586
53608SOL    HW262722  13.234  11.248  13.565
53609SOL     OW62723   5.784  10.658   0.970
53609SOL    HW162724   5.865  10.621   1.005
53609SOL    HW262725   5.780  10.747   1.005
53610SOL     OW62726   1.935   0.844  12.073
53610SOL    HW162727   1.903   0.930  12.102
53610SOL    HW262728   1.976   0.861  11.989
53611SOL     OW62729   0.804   8.856   8.421
53611SOL    HW162730   0.887   8.873   8.377
53611SOL    HW262731   0.826   8.795   8.492
53612SOL     OW62732   1.182  13.051   6.588
53612SOL    HW162733   1.261  13.097   6.562
53612SOL    HW262734   1.209  12.959   6.596
53613SOL     OW62735  12.433  10.343  11.532
53613SOL    HW162736  12.392  10.257  11.526
53613SOL    HW262737  12.361  10.405  11.523
53614SOL     OW62738   7.937   8.635   0.605
53614SOL    HW162739   7.980   8.604   0.685
53614SOL    HW262740   7.992   8.602   0.534
53615SOL     OW62741  14.684  11.727  13.300
53615SOL    HW162742  14.750  11.758  13.362
53615SOL    HW262743  14.603  11.724  13.351
53616SOL     OW62744   0.721   6.151   1.517
53616SOL    HW162745   0.653   6.187   1.459
53616SOL    HW262746   0.695   6.060   1.530
53617SOL     OW62747   4.962   0.592   3.532
53617SOL    HW162748   4.902   0.665   3.517
53617SOL    HW262749   5.038   0.631   3.575
53618SOL     OW62750   3.479  12.738   0.994
53618SOL    HW162751   3.384  12.724   0.993
53618SOL    HW262752   3.513  12.675   0.931
53619SOL     OW62753   4.139  13.067  13.357
53619SOL    HW162754   4.131  12.973  13.343
53619SOL    HW262755   4.190  13.075  13.438
53620SOL     OW62756   8.160   7.239   5.992
53620SOL    HW162757   8.131   7.321   5.952
53620SOL    HW262758   8.079   7.190   6.007
53621SOL     OW62759   8.445   4.321   6.314
53621SOL    HW162760   8.517   4.379   6.287
53621SOL    HW262761   8.475   4.233   6.290
53622SOL     OW62762   2.547   7.351   6.345
53622SOL    HW162763   2.557   7.284   6.412
53622SOL    HW262764   2.634   7.358   6.306
53623SOL     OW62765  10.159   6.479   1.149
53623SOL    HW162766  10.235   6.446   1.198
53623SOL    HW262767  10.185   6.566   1.120
53624SOL     OW62768  10.606   8.140   4.974
53624SOL    HW162769  10.511   8.139   4.964
53624SOL    HW262770  10.635   8.057   4.936
53625SOL     OW62771   5.272   1.842   4.496
53625SOL    HW162772   5.186   1.839   4.539
53625SOL    HW262773   5.252   1.853   4.403
53626SOL     OW62774  14.422   5.362   4.470
53626SOL    HW162775  14.354   5.377   4.535
53626SOL    HW262776  14.478   5.440   4.475
53627SOL     OW62777   0.286   7.151   8.471
53627SOL    HW162778   0.345   7.104   8.530
53627SOL    HW262779   0.199   7.135   8.506
53628SOL     OW62780   2.294  10.370   1.807
53628SOL    HW162781   2.287  10.465   1.797
53628SOL    HW262782   2.221  10.335   1.755
53629SOL     OW62783  14.582   9.271  14.602
53629SOL    HW162784  14.644   9.335  14.639
53629SOL    HW262785  14.553   9.220  14.678
53630SOL     OW62786   9.367   1.007   9.062
53630SOL    HW162787   9.271   1.006   9.058
53630SOL    HW262788   9.387   1.002   9.156
53631SOL     OW62789  14.186   5.360  11.388
53631SOL    HW162790  14.257   5.419  11.362
53631SOL    HW262791  14.228   5.274  11.392
53632SOL     OW62792   9.224  12.384   6.067
53632SOL    HW162793   9.161  12.316   6.041
53632SOL    HW262794   9.307  12.357   6.026
53633SOL     OW62795   8.242   2.850  10.589
53633SOL    HW162796   8.329   2.854  10.549
53633SOL    HW262797   8.230   2.757  10.609
53634SOL     OW62798   2.402   2.131   1.312
53634SOL    HW162799   2.322   2.179   1.293
53634SOL    HW262800   2.374   2.041   1.330
53635SOL     OW62801   3.543   3.744   0.426
53635SOL    HW162802   3.606   3.693   0.477
53635SOL    HW262803   3.561   3.835   0.449
53636SOL     OW62804   5.328   0.689   6.445
53636SOL    HW162805   5.351   0.645   6.363
53636SOL    HW262806   5.310   0.618   6.506
53637SOL     OW62807   4.216   7.733  11.052
53637SOL    HW162808   4.211   7.655  10.997
53637SOL    HW262809   4.166   7.710  11.130
53638SOL     OW62810   1.577   3.200  12.996
53638SOL    HW162811   1.563   3.291  13.021
53638SOL    HW262812   1.669   3.195  12.972
53639SOL     OW62813  13.295   9.682   8.823
53639SOL    HW162814  13.308   9.775   8.839
53639SOL    HW262815  13.219   9.659   8.877
53640SOL     OW62816  10.833  14.353   8.693
53640SOL    HW162817  10.869  14.414   8.628
53640SOL    HW262818  10.740  14.346   8.671
53641SOL     OW62819  11.578   2.501  10.011
53641SOL    HW162820  11.631   2.461  10.079
53641SOL    HW262821  11.557   2.588  10.045
53642SOL     OW62822  11.480   6.715   1.615
53642SOL    HW162823  11.514   6.762   1.540
53642SOL    HW262824  11.547   6.650   1.636
53643SOL     OW62825   3.729   9.771   5.173
53643SOL    HW162826   3.756   9.859   5.200
53643SOL    HW262827   3.741   9.718   5.251
53644SOL     OW62828   1.279   8.903   3.396
53644SOL    HW162829   1.273   8.837   3.465
53644SOL    HW262830   1.370   8.932   3.398
53645SOL     OW62831   1.915  11.417   0.049
53645SOL    HW162832   1.897  11.495  14.877
53645SOL    HW262833   2.002  11.433   0.086
53646SOL     OW62834   1.280  10.414  10.455
53646SOL    HW162835   1.271  10.408  10.360
53646SOL    HW262836   1.328  10.336  10.480
53647SOL     OW62837  11.171   6.240  14.624
53647SOL    HW162838  11.174   6.145  14.627
53647SOL    HW262839  11.239   6.269  14.685
53648SOL     OW62840   2.734  14.016   3.206
53648SOL    HW162841   2.808  13.981   3.156
53648SOL    HW262842   2.678  14.059   3.140
53649SOL     OW62843  13.649   4.711   5.644
53649SOL    HW162844  13.704   4.789   5.644
53649SOL    HW262845  13.635   4.692   5.737
53650SOL     OW62846  13.594  11.545   0.118
53650SOL    HW162847  13.582  11.499   0.035
53650SOL    HW262848  13.656  11.490   0.166
53651SOL     OW62849   8.876   4.492   4.120
53651SOL    HW162850   8.900   4.528   4.034
53651SOL    HW262851   8.785   4.520   4.132
53652SOL     OW62852   1.958   3.172   9.461
53652SOL    HW162853   1.968   3.165   9.556
53652SOL    HW262854   1.981   3.263   9.442
53653SOL     OW62855   4.367   8.195   7.506
53653SOL    HW162856   4.380   8.102   7.487
53653SOL    HW262857   4.279   8.200   7.542
53654SOL     OW62858   6.550  11.184   8.946
53654SOL    HW162859   6.570  11.253   8.882
53654SOL    HW262860   6.581  11.219   9.029
53655SOL     OW62861   5.431   3.269   5.290
53655SOL    HW162862   5.423   3.224   5.206
53655SOL    HW262863   5.343   3.303   5.307
53656SOL     OW62864  14.260   6.545   9.146
53656SOL    HW162865  14.313   6.624   9.152
53656SOL    HW262866  14.179   6.573   9.104
53657SOL     OW62867   6.003  12.690  14.018
53657SOL    HW162868   5.979  12.617  13.961
53657SOL    HW262869   6.072  12.736  13.970
53658SOL     OW62870   7.343   4.326   9.237
53658SOL    HW162871   7.279   4.341   9.167
53658SOL    HW262872   7.405   4.264   9.200
53659SOL     OW62873  13.305  11.272   2.645
53659SOL    HW162874  13.291  11.192   2.595
53659SOL    HW262875  13.386  11.257   2.693
53660SOL     OW62876  11.993   2.999   1.798
53660SOL    HW162877  11.898   3.004   1.802
53660SOL    HW262878  12.014   3.008   1.705
53661SOL     OW62879   9.670   5.427   2.677
53661SOL    HW162880   9.748   5.461   2.721
53661SOL    HW262881   9.632   5.365   2.740
53662SOL     OW62882   9.649  14.149   4.721
53662SOL    HW162883   9.576  14.090   4.740
53662SOL    HW262884   9.692  14.109   4.645
53663SOL     OW62885   7.317  12.758  12.579
53663SOL    HW162886   7.272  12.812  12.515
53663SOL    HW262887   7.255  12.751  12.652
53664SOL     OW62888   3.256   5.938   9.421
53664SOL    HW162889   3.217   6.021   9.450
53664SOL    HW262890   3.331   5.925   9.479
53665SOL     OW62891   7.678   5.771   1.452
53665SOL    HW162892   7.599   5.803   1.408
53665SOL    HW262893   7.645   5.720   1.526
53666SOL     OW62894   0.680   8.546   9.622
53666SOL    HW162895   0.616   8.477   9.603
53666SOL    HW262896   0.629   8.627   9.621
53667SOL     OW62897   0.569   2.977   2.946
53667SOL    HW162898   0.575   2.992   3.040
53667SOL    HW262899   0.659   2.963   2.918
53668SOL     OW62900   9.333   4.037   1.003
53668SOL    HW162901   9.301   4.127   1.005
53668SOL    HW262902   9.338   4.016   0.910
53669SOL     OW62903   6.800   1.736   7.161
53669SOL    HW162904   6.711   1.764   7.141
53669SOL    HW262905   6.802   1.726   7.256
53670SOL     OW62906   0.631   9.794  13.288
53670SOL    HW162907   0.640   9.856  13.216
53670SOL    HW262908   0.574   9.725  13.253
53671SOL     OW62909   1.700  14.774  11.633
53671SOL    HW162910   1.774  14.726  11.669
53671SOL    HW262911   1.696  14.855  11.684
53672SOL     OW62912  10.753   3.513   1.123
53672SOL    HW162913  10.675   3.560   1.095
53672SOL    HW262914  10.729   3.421   1.118
53673SOL     OW62915  14.819   3.486   9.098
53673SOL    HW162916  14.777   3.430   9.033
53673SOL    HW262917   0.009   3.530   9.050
53674SOL     OW62918   8.803  13.698   4.439
53674SOL    HW162919   8.885  13.717   4.394
53674SOL    HW262920   8.824  13.707   4.532
53675SOL     OW62921   1.767  10.079   3.186
53675SOL    HW162922   1.847  10.041   3.222
53675SOL    HW262923   1.706  10.080   3.260
53676SOL     OW62924   0.212   2.090   5.845
53676SOL    HW162925   0.233   2.010   5.893
53676SOL    HW262926   0.274   2.155   5.878
53677SOL     OW62927  13.627   1.160   2.736
53677SOL    HW162928  13.617   1.253   2.758
53677SOL    HW262929  13.610   1.156   2.642
53678SOL     OW62930   7.755   0.481  10.537
53678SOL    HW162931   7.760   0.576  10.540
53678SOL    HW262932   7.703   0.462  10.459
53679SOL     OW62933   3.072   3.878  10.413
53679SOL    HW162934   3.114   3.921  10.487
53679SOL    HW262935   3.012   3.814  10.453
53680SOL     OW62936   9.744   7.318   2.341
53680SOL    HW162937   9.659   7.353   2.366
53680SOL    HW262938   9.724   7.236   2.295
53681SOL     OW62939  12.799   3.505  13.071
53681SOL    HW162940  12.779   3.530  13.161
53681SOL    HW262941  12.885   3.464  13.076
53682SOL     OW62942   6.616  13.286   3.851
53682SOL    HW162943   6.569  13.204   3.865
53682SOL    HW262944   6.577  13.323   3.772
53683SOL     OW62945   1.427   8.231   6.113
53683SOL    HW162946   1.380   8.193   6.039
53683SOL    HW262947   1.452   8.319   6.084
53684SOL     OW62948  13.996  11.716   3.793
53684SOL    HW162949  13.932  11.703   3.864
53684SOL    HW262950  14.029  11.805   3.806
53685SOL     OW62951   9.336  14.750   4.808
53685SOL    HW162952   9.266  14.705   4.761
53685SOL    HW262953   9.380  14.803   4.741
53686SOL     OW62954   4.105   9.726  13.132
53686SOL    HW162955   4.019   9.756  13.102
53686SOL    HW262956   4.111   9.757  13.222
53687SOL     OW62957   6.879  12.681   4.014
53687SOL    HW162958   6.856  12.774   4.006
53687SOL    HW262959   6.863  12.645   3.926
53688SOL     OW62960   7.726   2.989   0.969
53688SOL    HW162961   7.705   2.920   1.032
53688SOL    HW262962   7.767   3.057   1.021
53689SOL     OW62963   5.524  11.198   0.739
53689SOL    HW162964   5.569  11.149   0.671
53689SOL    HW262965   5.567  11.284   0.740
53690SOL     OW62966  11.694   7.937   4.207
53690SOL    HW162967  11.766   7.959   4.267
53690SOL    HW262968  11.630   8.007   4.221
53691SOL     OW62969  11.179   6.036   1.322
53691SOL    HW162970  11.204   6.108   1.264
53691SOL    HW262971  11.171   6.077   1.409
53692SOL     OW62972  11.922   7.120   5.662
53692SOL    HW162973  11.962   7.181   5.724
53692SOL    HW262974  11.853   7.077   5.712
53693SOL     OW62975  14.831  13.933   9.774
53693SOL    HW162976  14.857  13.920   9.683
53693SOL    HW262977   0.025  13.899   9.825
53694SOL     OW62978   4.626  13.872  12.229
53694SOL    HW162979   4.640  13.835  12.142
53694SOL    HW262980   4.534  13.854  12.248
53695SOL     OW62981  13.250   0.134  10.523
53695SOL    HW162982  13.328   0.174  10.563
53695SOL    HW262983  13.250   0.044  10.556
53696SOL     OW62984  12.574  14.162   0.309
53696SOL    HW162985  12.647  14.119   0.355
53696SOL    HW262986  12.549  14.234   0.366
53697SOL     OW62987   2.393  10.843  14.569
53697SOL    HW162988   2.411  10.775  14.503
53697SOL    HW262989   2.444  10.919  14.539
53698SOL     OW62990  10.068  13.328   6.098
53698SOL    HW162991  10.031  13.415   6.092
53698SOL    HW262992  10.081  13.313   6.192
53699SOL     OW62993   8.464   5.049   8.192
53699SOL    HW162994   8.513   5.098   8.126
53699SOL    HW262995   8.530   5.028   8.258
53700SOL     OW62996   1.332  13.880  10.691
53700SOL    HW162997   1.414  13.860  10.647
53700SOL    HW262998   1.343  13.846  10.779
53701SOL     OW62999   3.027  11.013   0.426
53701SOL    HW163000   2.987  10.986   0.344
53701SOL    HW263001   3.117  10.981   0.420
53702SOL     OW63002   6.186   5.972   0.078
53702SOL    HW163003   6.189   6.041   0.012
53702SOL    HW263004   6.188   5.891   0.028
53703SOL     OW63005   5.064   8.825   3.892
53703SOL    HW163006   5.126   8.752   3.903
53703SOL    HW263007   5.104   8.898   3.939
53704SOL     OW63008   2.823   7.709   6.541
53704SOL    HW163009   2.734   7.702   6.507
53704SOL    HW263010   2.860   7.785   6.495
53705SOL     OW63011   5.424   8.069   9.194
53705SOL    HW163012   5.389   7.985   9.164
53705SOL    HW263013   5.370   8.135   9.151
53706SOL     OW63014   6.273   8.584   8.930
53706SOL    HW163015   6.211   8.606   8.999
53706SOL    HW263016   6.248   8.497   8.901
53707SOL     OW63017  10.006   3.589  12.150
53707SOL    HW163018  10.016   3.529  12.224
53707SOL    HW263019   9.940   3.547  12.094
53708SOL     OW63020  11.001   2.697   6.653
53708SOL    HW163021  11.059   2.695   6.729
53708SOL    HW263022  10.989   2.604   6.630
53709SOL     OW63023   8.853  13.205  10.121
53709SOL    HW163024   8.833  13.130  10.177
53709SOL    HW263025   8.936  13.238  10.153
53710SOL     OW63026  11.382  10.005   3.843
53710SOL    HW163027  11.309  10.062   3.866
53710SOL    HW263028  11.342   9.918   3.832
53711SOL     OW63029   2.470   3.175   3.240
53711SOL    HW163030   2.503   3.261   3.267
53711SOL    HW263031   2.548   3.120   3.233
53712SOL     OW63032   9.819  11.711  14.563
53712SOL    HW163033   9.811  11.621  14.531
53712SOL    HW263034   9.906  11.715  14.602
53713SOL     OW63035   2.540   1.865   1.634
53713SOL    HW163036   2.456   1.890   1.674
53713SOL    HW263037   2.605   1.888   1.699
53714SOL     OW63038   0.628  10.676  13.334
53714SOL    HW163039   0.658  10.638  13.416
53714SOL    HW263040   0.533  10.668  13.336
53715SOL     OW63041  12.688  11.694   6.966
53715SOL    HW163042  12.629  11.743   6.909
53715SOL    HW263043  12.741  11.761   7.010
53716SOL     OW63044   8.107   4.363   7.504
53716SOL    HW163045   8.143   4.450   7.486
53716SOL    HW263046   8.015   4.380   7.524
53717SOL     OW63047   0.194   7.760   9.230
53717SOL    HW163048   0.141   7.680   9.233
53717SOL    HW263049   0.227   7.771   9.319
53718SOL     OW63050   9.959  10.660   4.302
53718SOL    HW163051   9.981  10.597   4.370
53718SOL    HW263052   9.880  10.625   4.261
53719SOL     OW63053  13.451   2.608  13.592
53719SOL    HW163054  13.496   2.585  13.673
53719SOL    HW263055  13.397   2.531  13.572
53720SOL     OW63056   4.385   3.121  14.245
53720SOL    HW163057   4.386   3.211  14.214
53720SOL    HW263058   4.380   3.068  14.166
53721SOL     OW63059   5.252  10.864   0.827
53721SOL    HW163060   5.196  10.931   0.788
53721SOL    HW263061   5.313  10.912   0.882
53722SOL     OW63062  13.920  12.715   9.227
53722SOL    HW163063  13.982  12.785   9.247
53722SOL    HW263064  13.844  12.760   9.190
53723SOL     OW63065   8.478   5.139   4.035
53723SOL    HW163066   8.570   5.114   4.044
53723SOL    HW263067   8.439   5.117   4.120
53724SOL     OW63068   0.594   6.093   9.263
53724SOL    HW163069   0.690   6.097   9.268
53724SOL    HW263070   0.570   6.027   9.328
53725SOL     OW63071   5.468   2.192  12.820
53725SOL    HW163072   5.382   2.188  12.861
53725SOL    HW263073   5.529   2.164  12.888
53726SOL     OW63074   5.496  12.976   6.099
53726SOL    HW163075   5.553  12.952   6.172
53726SOL    HW263076   5.408  12.976   6.136
53727SOL     OW63077   4.650   6.895  10.248
53727SOL    HW163078   4.601   6.820  10.283
53727SOL    HW263079   4.735   6.859  10.223
53728SOL     OW63080  10.600  11.963   7.126
53728SOL    HW163081  10.510  11.992   7.113
53728SOL    HW263082  10.593  11.878   7.169
53729SOL     OW63083   3.631  13.996  13.934
53729SOL    HW163084   3.686  13.931  13.891
53729SOL    HW263085   3.693  14.057  13.974
53730SOL     OW63086   6.378   6.202   1.898
53730SOL    HW163087   6.414   6.255   1.827
53730SOL    HW263088   6.409   6.113   1.880
53731SOL     OW63089   9.856  11.736   5.097
53731SOL    HW163090   9.876  11.732   5.191
53731SOL    HW263091   9.865  11.828   5.074
53732SOL     OW63092   2.218   5.871   3.809
53732SOL    HW163093   2.293   5.821   3.777
53732SOL    HW263094   2.210   5.847   3.901
53733SOL     OW63095   2.641   2.654   5.861
53733SOL    HW163096   2.657   2.623   5.950
53733SOL    HW263097   2.705   2.605   5.808
53734SOL     OW63098  12.587   3.232  10.860
53734SOL    HW163099  12.669   3.211  10.904
53734SOL    HW263100  12.551   3.305  10.910
53735SOL     OW63101   2.778  11.759   9.192
53735SOL    HW163102   2.748  11.773   9.281
53735SOL    HW263103   2.759  11.842   9.147
53736SOL     OW63104   1.301   4.883   8.331
53736SOL    HW163105   1.376   4.936   8.360
53736SOL    HW263106   1.311   4.800   8.378
53737SOL     OW63107  14.025  12.291  10.007
53737SOL    HW163108  14.119  12.272  10.019
53737SOL    HW263109  13.997  12.231   9.938
53738SOL     OW63110  13.953  12.826   5.974
53738SOL    HW163111  13.868  12.798   5.942
53738SOL    HW263112  13.936  12.860   6.062
53739SOL     OW63113   2.430   2.702  13.913
53739SOL    HW163114   2.340   2.721  13.938
53739SOL    HW263115   2.423   2.634  13.846
53740SOL     OW63116   8.010   0.846   7.135
53740SOL    HW163117   7.938   0.803   7.182
53740SOL    HW263118   8.063   0.886   7.204
53741SOL     OW63119   4.247   2.403  13.721
53741SOL    HW163120   4.219   2.471  13.660
53741SOL    HW263121   4.341   2.419  13.733
53742SOL     OW63122   5.977   3.028   9.803
53742SOL    HW163123   5.890   3.005   9.770
53742SOL    HW263124   5.977   3.124   9.805
53743SOL     OW63125   7.101   9.711   1.787
53743SOL    HW163126   7.192   9.739   1.797
53743SOL    HW263127   7.068   9.706   1.877
53744SOL     OW63128   9.618   7.679   1.906
53744SOL    HW163129   9.603   7.773   1.920
53744SOL    HW263130   9.704   7.675   1.864
53745SOL     OW63131  12.484   6.816   1.727
53745SOL    HW163132  12.424   6.752   1.688
53745SOL    HW263133  12.427   6.872   1.780
53746SOL     OW63134   9.209  13.370   3.515
53746SOL    HW163135   9.266  13.372   3.439
53746SOL    HW263136   9.214  13.279   3.546
53747SOL     OW63137   6.857   3.862  10.247
53747SOL    HW163138   6.766   3.867  10.217
53747SOL    HW263139   6.851   3.835  10.338
53748SOL     OW63140   7.131   8.927  12.725
53748SOL    HW163141   7.089   8.841  12.722
53748SOL    HW263142   7.174   8.930  12.811
53749SOL     OW63143   9.439  12.409   8.201
53749SOL    HW163144   9.474  12.472   8.264
53749SOL    HW263145   9.509  12.398   8.137
53750SOL     OW63146   8.955  11.560   5.622
53750SOL    HW163147   9.041  11.599   5.637
53750SOL    HW263148   8.938  11.576   5.529
53751SOL     OW63149   3.210   5.537   8.263
53751SOL    HW163150   3.301   5.567   8.271
53751SOL    HW263151   3.200   5.516   8.170
53752SOL     OW63152   7.771   9.952   7.916
53752SOL    HW163153   7.744   9.866   7.883
53752SOL    HW263154   7.847   9.934   7.971
53753SOL     OW63155  12.835  13.192  10.940
53753SOL    HW163156  12.811  13.173  11.031
53753SOL    HW263157  12.752  13.210  10.896
53754SOL     OW63158   9.524   2.646   1.344
53754SOL    HW163159   9.546   2.733   1.311
53754SOL    HW263160   9.603   2.616   1.389
53755SOL     OW63161   4.871   6.099   3.209
53755SOL    HW163162   4.823   6.046   3.272
53755SOL    HW263163   4.804   6.130   3.148
53756SOL     OW63164  13.597   4.517  10.192
53756SOL    HW163165  13.547   4.463  10.253
53756SOL    HW263166  13.673   4.545  10.242
53757SOL     OW63167   8.922   1.719  11.882
53757SOL    HW163168   8.894   1.788  11.942
53757SOL    HW263169   8.943   1.766  11.801
53758SOL     OW63170   3.296   3.418  10.038
53758SOL    HW163171   3.242   3.396  10.114
53758SOL    HW263172   3.356   3.344  10.027
53759SOL     OW63173   2.252   0.139   1.596
53759SOL    HW163174   2.317   0.209   1.593
53759SOL    HW263175   2.179   0.176   1.646
53760SOL     OW63176   8.926  11.819   7.799
53760SOL    HW163177   8.847  11.857   7.838
53760SOL    HW263178   8.996  11.877   7.827
53761SOL     OW63179   7.759   1.385   6.414
53761SOL    HW163180   7.814   1.415   6.342
53761SOL    HW263181   7.734   1.465   6.461
53762SOL     OW63182  11.526   5.652  14.315
53762SOL    HW163183  11.559   5.601  14.389
53762SOL    HW263184  11.443   5.611  14.292
53763SOL     OW63185  13.990   5.260   8.815
53763SOL    HW163186  14.003   5.232   8.724
53763SOL    HW263187  13.937   5.339   8.808
53764SOL     OW63188   6.525   0.970  11.705
53764SOL    HW163189   6.561   1.036  11.764
53764SOL    HW263190   6.449   0.935  11.751
53765SOL     OW63191   4.597   9.782   1.915
53765SOL    HW163192   4.545   9.748   1.843
53765SOL    HW263193   4.599   9.877   1.901
53766SOL     OW63194   6.994   8.994  14.449
53766SOL    HW163195   7.010   8.927  14.516
53766SOL    HW263196   7.041   9.071  14.480
53767SOL     OW63197   0.912   5.030  10.299
53767SOL    HW163198   0.987   5.041  10.240
53767SOL    HW263199   0.884   5.119  10.320
53768SOL     OW63200   2.288  10.497   0.381
53768SOL    HW163201   2.339  10.456   0.311
53768SOL    HW263202   2.272  10.427   0.444
53769SOL     OW63203   7.064  14.609  11.460
53769SOL    HW163204   7.083  14.517  11.475
53769SOL    HW263205   7.148  14.653  11.470
53770SOL     OW63206   6.326   2.037   8.361
53770SOL    HW163207   6.385   2.091   8.309
53770SOL    HW263208   6.240   2.050   8.321
53771SOL     OW63209  14.231  11.494  11.090
53771SOL    HW163210  14.166  11.501  11.161
53771SOL    HW263211  14.313  11.473  11.135
53772SOL     OW63212   8.405   2.388   7.757
53772SOL    HW163213   8.381   2.305   7.716
53772SOL    HW263214   8.391   2.453   7.689
53773SOL     OW63215   2.995  12.267   1.346
53773SOL    HW163216   3.066  12.226   1.396
53773SOL    HW263217   3.018  12.251   1.255
53774SOL     OW63218   4.066   1.408   8.362
53774SOL    HW163219   4.107   1.400   8.276
53774SOL    HW263220   3.975   1.380   8.348
53775SOL     OW63221   9.342   6.524   7.343
53775SOL    HW163222   9.369   6.615   7.329
53775SOL    HW263223   9.288   6.503   7.267
53776SOL     OW63224  12.390   4.993   1.125
53776SOL    HW163225  12.350   4.919   1.171
53776SOL    HW263226  12.460   5.022   1.183
53777SOL     OW63227   6.860   2.260   2.109
53777SOL    HW163228   6.771   2.225   2.109
53777SOL    HW263229   6.905   2.211   2.040
53778SOL     OW63230   3.833  10.801   0.258
53778SOL    HW163231   3.922  10.767   0.264
53778SOL    HW263232   3.779  10.733   0.300
53779SOL     OW63233   9.700   1.238   6.871
53779SOL    HW163234   9.635   1.181   6.912
53779SOL    HW263235   9.697   1.215   6.779
53780SOL     OW63236   0.705   5.197   2.551
53780SOL    HW163237   0.800   5.192   2.548
53780SOL    HW263238   0.678   5.199   2.459
53781SOL     OW63239   6.902   9.106   7.257
53781SOL    HW163240   6.843   9.097   7.332
53781SOL    HW263241   6.865   9.178   7.206
53782SOL     OW63242  14.464   7.720  14.831
53782SOL    HW163243  14.469   7.650  14.766
53782SOL    HW263244  14.387   7.699   0.004
53783SOL     OW63245   5.927   8.309   5.896
53783SOL    HW163246   6.012   8.325   5.856
53783SOL    HW263247   5.863   8.338   5.830
53784SOL     OW63248   6.162   2.191   9.015
53784SOL    HW163249   6.231   2.193   9.081
53784SOL    HW263250   6.129   2.101   9.018
53785SOL     OW63251   5.110  11.541   6.943
53785SOL    HW163252   5.074  11.610   6.999
53785SOL    HW263253   5.069  11.556   6.858
53786SOL     OW63254  11.324   4.516   4.734
53786SOL    HW163255  11.324   4.545   4.826
53786SOL    HW263256  11.232   4.520   4.708
53787SOL     OW63257   7.361   7.659  14.189
53787SOL    HW163258   7.316   7.592  14.138
53787SOL    HW263259   7.441   7.677  14.140
53788SOL     OW63260  14.480   2.625  11.153
53788SOL    HW163261  14.389   2.635  11.125
53788SOL    HW263262  14.478   2.643  11.247
53789SOL     OW63263  12.230   7.805  13.945
53789SOL    HW163264  12.304   7.747  13.957
53789SOL    HW263265  12.167   7.779  14.013
53790SOL     OW63266  13.211   0.438   8.183
53790SOL    HW163267  13.123   0.439   8.146
53790SOL    HW263268  13.245   0.351   8.163
53791SOL     OW63269   9.999  10.561   6.507
53791SOL    HW163270  10.094  10.552   6.516
53791SOL    HW263271   9.983  10.655   6.513
53792SOL     OW63272   9.694   1.618   1.981
53792SOL    HW163273   9.661   1.591   1.896
53792SOL    HW263274   9.761   1.554   2.003
53793SOL     OW63275  14.169   5.756   6.407
53793SOL    HW163276  14.140   5.722   6.322
53793SOL    HW263277  14.159   5.682   6.467
53794SOL     OW63278   2.377   5.719   0.610
53794SOL    HW163279   2.291   5.685   0.637
53794SOL    HW263280   2.377   5.810   0.641
53795SOL     OW63281   6.571  13.304   2.206
53795SOL    HW163282   6.505  13.358   2.250
53795SOL    HW263283   6.527  13.272   2.127
53796SOL     OW63284   8.052   6.022  12.271
53796SOL    HW163285   7.986   6.057  12.212
53796SOL    HW263286   8.004   5.961  12.327
53797SOL     OW63287   3.174   9.029   1.365
53797SOL    HW163288   3.100   8.997   1.417
53797SOL    HW263289   3.145   9.115   1.335
53798SOL     OW63290   0.570   4.098   3.596
53798SOL    HW163291   0.476   4.119   3.591
53798SOL    HW263292   0.573   4.013   3.639
53799SOL     OW63293   7.334  11.439   4.936
53799SOL    HW163294   7.254  11.387   4.932
53799SOL    HW263295   7.319  11.510   4.873
53800SOL     OW63296   0.813   2.192   2.980
53800SOL    HW163297   0.766   2.122   3.025
53800SOL    HW263298   0.751   2.265   2.976
53801SOL     OW63299   5.317  10.596   2.862
53801SOL    HW163300   5.275  10.672   2.902
53801SOL    HW263301   5.343  10.626   2.775
53802SOL     OW63302   7.784   4.141   6.045
53802SOL    HW163303   7.845   4.199   6.091
53802SOL    HW263304   7.758   4.189   5.967
53803SOL     OW63305   1.010   5.650   7.118
53803SOL    HW163306   0.998   5.734   7.075
53803SOL    HW263307   1.015   5.672   7.211
53804SOL     OW63308   7.711   0.381   5.367
53804SOL    HW163309   7.686   0.293   5.339
53804SOL    HW263310   7.793   0.369   5.416
53805SOL     OW63311   1.913  14.255   0.501
53805SOL    HW163312   1.922  14.164   0.474
53805SOL    HW263313   1.888  14.302   0.421
53806SOL     OW63314   1.289  10.491   3.782
53806SOL    HW163315   1.279  10.586   3.777
53806SOL    HW263316   1.217  10.462   3.838
53807SOL     OW63317   4.799   7.886   1.599
53807SOL    HW163318   4.730   7.857   1.539
53807SOL    HW263319   4.792   7.981   1.600
53808SOL     OW63320   7.730   0.995   8.278
53808SOL    HW163321   7.636   0.977   8.273
53808SOL    HW263322   7.771   0.910   8.264
53809SOL     OW63323   6.693   1.753  12.778
53809SOL    HW163324   6.651   1.748  12.863
53809SOL    HW263325   6.786   1.736  12.796
53810SOL     OW63326   4.303   6.636   7.180
53810SOL    HW163327   4.341   6.618   7.266
53810SOL    HW263328   4.341   6.569   7.123
53811SOL     OW63329   0.875   0.630   1.293
53811SOL    HW163330   0.780   0.634   1.291
53811SOL    HW263331   0.902   0.678   1.214
53812SOL     OW63332  14.416   3.969   2.949
53812SOL    HW163333  14.335   3.941   2.992
53812SOL    HW263334  14.486   3.933   3.003
53813SOL     OW63335   2.688   4.776  14.099
53813SOL    HW163336   2.760   4.839  14.107
53813SOL    HW263337   2.671   4.770  14.005
53814SOL     OW63338   4.837   5.193  13.208
53814SOL    HW163339   4.834   5.151  13.294
53814SOL    HW263340   4.761   5.251  13.207
53815SOL     OW63341   7.631   2.535   8.808
53815SOL    HW163342   7.552   2.486   8.831
53815SOL    HW263343   7.695   2.468   8.785
53816SOL     OW63344  12.471   4.974   7.857
53816SOL    HW163345  12.495   5.041   7.793
53816SOL    HW263346  12.387   4.940   7.825
53817SOL     OW63347  12.275  10.244  14.191
53817SOL    HW163348  12.221  10.171  14.161
53817SOL    HW263349  12.286  10.299  14.113
53818SOL     OW63350   5.439   6.200  11.290
53818SOL    HW163351   5.363   6.173  11.340
53818SOL    HW263352   5.465   6.284  11.328
53819SOL     OW63353  12.736   5.086  12.636
53819SOL    HW163354  12.793   5.115  12.707
53819SOL    HW263355  12.793   5.080  12.560
53820SOL     OW63356  12.014   0.675   9.772
53820SOL    HW163357  11.990   0.753   9.822
53820SOL    HW263358  12.053   0.710   9.691
53821SOL     OW63359  11.814   7.281   1.316
53821SOL    HW163360  11.768   7.360   1.290
53821SOL    HW263361  11.904   7.295   1.286
53822SOL     OW63362   1.263   0.146  13.958
53822SOL    HW163363   1.226   0.175  13.875
53822SOL    HW263364   1.356   0.169  13.952
53823SOL     OW63365   3.520   3.842   8.491
53823SOL    HW163366   3.488   3.798   8.570
53823SOL    HW263367   3.600   3.795   8.468
53824SOL     OW63368   5.472   5.312   7.602
53824SOL    HW163369   5.449   5.337   7.691
53824SOL    HW263370   5.392   5.275   7.565
53825SOL     OW63371   3.524  14.124  14.301
53825SOL    HW163372   3.450  14.137  14.242
53825SOL    HW263373   3.583  14.198  14.283
53826SOL     OW63374  10.642  10.337  14.100
53826SOL    HW163375  10.708  10.309  14.036
53826SOL    HW263376  10.616  10.256  14.144
53827SOL     OW63377  13.244  12.305   5.840
53827SOL    HW163378  13.263  12.217   5.871
53827SOL    HW263379  13.175  12.294   5.775
53828SOL     OW63380   4.421   4.852   1.645
53828SOL    HW163381   4.434   4.786   1.577
53828SOL    HW263382   4.341   4.898   1.619
53829SOL     OW63383  10.443   3.344  13.916
53829SOL    HW163384  10.364   3.330  13.968
53829SOL    HW263385  10.430   3.290  13.838
53830SOL     OW63386   7.503   3.662   3.078
53830SOL    HW163387   7.593   3.639   3.099
53830SOL    HW263388   7.480   3.606   3.005
53831SOL     OW63389   7.413   6.397  14.033
53831SOL    HW163390   7.346   6.329  14.034
53831SOL    HW263391   7.363   6.479  14.034
53832SOL     OW63392   4.007   2.753   5.704
53832SOL    HW163393   4.102   2.738   5.705
53832SOL    HW263394   3.996   2.835   5.656
53833SOL     OW63395   2.275   9.972   2.283
53833SOL    HW163396   2.269   9.930   2.369
53833SOL    HW263397   2.347  10.034   2.292
53834SOL     OW63398   1.429   1.987   2.917
53834SOL    HW163399   1.503   1.950   2.965
53834SOL    HW263400   1.355   1.979   2.977
53835SOL     OW63401   2.601   1.717   3.841
53835SOL    HW163402   2.613   1.808   3.869
53835SOL    HW263403   2.678   1.672   3.875
53836SOL     OW63404   5.519   8.327   7.300
53836SOL    HW163405   5.439   8.376   7.317
53836SOL    HW263406   5.558   8.372   7.225
53837SOL     OW63407  14.807   6.975   4.565
53837SOL    HW163408  14.854   7.055   4.592
53837SOL    HW263409  14.728   7.007   4.522
53838SOL     OW63410  10.770   5.315  14.409
53838SOL    HW163411  10.713   5.383  14.443
53838SOL    HW263412  10.724   5.281  14.332
53839SOL     OW63413   5.326  11.014  10.201
53839SOL    HW163414   5.238  11.017  10.238
53839SOL    HW263415   5.312  11.004  10.107
53840SOL     OW63416   2.644  14.274  11.047
53840SOL    HW163417   2.581  14.345  11.053
53840SOL    HW263418   2.667  14.270  10.954
53841SOL     OW63419  13.136   6.192   2.247
53841SOL    HW163420  13.186   6.116   2.277
53841SOL    HW263421  13.053   6.186   2.293
53842SOL     OW63422   3.777   0.559  12.310
53842SOL    HW163423   3.773   0.634  12.370
53842SOL    HW263424   3.686   0.538  12.292
53843SOL     OW63425   7.412  13.824   5.880
53843SOL    HW163426   7.381  13.836   5.791
53843SOL    HW263427   7.449  13.908   5.905
53844SOL     OW63428  10.451   5.588  12.770
53844SOL    HW163429  10.474   5.645  12.697
53844SOL    HW263430  10.530   5.586  12.824
53845SOL     OW63431   7.021  12.127   2.558
53845SOL    HW163432   7.083  12.054   2.562
53845SOL    HW263433   6.941  12.093   2.598
53846SOL     OW63434  14.099   9.982   5.139
53846SOL    HW163435  14.162   9.954   5.205
53846SOL    HW263436  14.015   9.948   5.171
53847SOL     OW63437  11.194   7.550   6.819
53847SOL    HW163438  11.255   7.478   6.804
53847SOL    HW263439  11.152   7.529   6.902
53848SOL     OW63440   1.186   8.877  10.099
53848SOL    HW163441   1.149   8.810  10.156
53848SOL    HW263442   1.235   8.828  10.032
53849SOL     OW63443   2.841  13.529  13.876
53849SOL    HW163444   2.899  13.466  13.833
53849SOL    HW263445   2.769  13.543  13.814
53850SOL     OW63446   9.758   5.316  11.545
53850SOL    HW163447   9.827   5.364  11.591
53850SOL    HW263448   9.724   5.255  11.610
53851SOL     OW63449   2.923  12.020  11.678
53851SOL    HW163450   2.921  11.990  11.769
53851SOL    HW263451   2.893  11.946  11.627
53852SOL     OW63452  14.622  13.029  14.722
53852SOL    HW163453  14.681  12.975  14.776
53852SOL    HW263454  14.679  13.098  14.687
53853SOL     OW63455   7.711   7.885  13.342
53853SOL    HW163456   7.774   7.813  13.334
53853SOL    HW263457   7.723   7.937  13.263
53854SOL     OW63458   6.983   0.218   4.797
53854SOL    HW163459   7.068   0.260   4.782
53854SOL    HW263460   6.987   0.188   4.888
53855SOL     OW63461  13.808   1.642   4.012
53855SOL    HW163462  13.842   1.579   3.949
53855SOL    HW263463  13.852   1.620   4.094
53856SOL     OW63464  14.119   4.081  12.900
53856SOL    HW163465  14.040   4.107  12.853
53856SOL    HW263466  14.134   4.152  12.962
53857SOL     OW63467   5.408   2.256   2.529
53857SOL    HW163468   5.441   2.202   2.601
53857SOL    HW263469   5.374   2.194   2.465
53858SOL     OW63470   2.967   7.592   9.011
53858SOL    HW163471   2.986   7.542   9.090
53858SOL    HW263472   3.026   7.667   9.014
53859SOL     OW63473   9.831  10.355   0.802
53859SOL    HW163474   9.771  10.324   0.869
53859SOL    HW263475   9.912  10.306   0.818
53860SOL     OW63476   0.537  12.107   1.193
53860SOL    HW163477   0.597  12.182   1.187
53860SOL    HW263478   0.507  12.107   1.284
53861SOL     OW63479   1.816   1.802   5.222
53861SOL    HW163480   1.899   1.764   5.194
53861SOL    HW263481   1.750   1.738   5.199
53862SOL     OW63482  14.314   0.387  12.873
53862SOL    HW163483  14.308   0.295  12.848
53862SOL    HW263484  14.223   0.417  12.878
53863SOL     OW63485   2.582  13.734   0.877
53863SOL    HW163486   2.550  13.700   0.794
53863SOL    HW263487   2.523  13.697   0.943
53864SOL     OW63488   6.341   0.183  10.492
53864SOL    HW163489   6.370   0.134  10.415
53864SOL    HW263490   6.369   0.273  10.474
53865SOL     OW63491   5.858   3.067   2.602
53865SOL    HW163492   5.841   3.160   2.616
53865SOL    HW263493   5.828   3.051   2.513
53866SOL     OW63494  11.128   0.013   5.533
53866SOL    HW163495  11.156   0.101   5.556
53866SOL    HW263496  11.136   0.009   5.438
53867SOL     OW63497  12.111   0.880   1.414
53867SOL    HW163498  12.074   0.967   1.430
53867SOL    HW263499  12.064   0.822   1.473
53868SOL     OW63500   1.002  14.164   6.293
53868SOL    HW163501   1.044  14.245   6.266
53868SOL    HW263502   1.047  14.139   6.374
53869SOL     OW63503   3.175  11.303   0.008
53869SOL    HW163504   3.230  11.225   0.007
53869SOL    HW263505   3.088  11.272  14.862
53870SOL     OW63506  14.646   3.406  10.608
53870SOL    HW163507  14.708   3.457  10.659
53870SOL    HW263508  14.700   3.353  10.549
53871SOL     OW63509   3.672   0.626  12.620
53871SOL    HW163510   3.662   0.678  12.540
53871SOL    HW263511   3.582   0.604  12.646
53872SOL     OW63512  13.635   7.810   4.067
53872SOL    HW163513  13.641   7.837   3.976
53872SOL    HW263514  13.703   7.744   4.077
53873SOL     OW63515  10.605   5.351   4.422
53873SOL    HW163516  10.635   5.431   4.464
53873SOL    HW263517  10.556   5.381   4.346
53874SOL     OW63518   7.177   7.658   2.390
53874SOL    HW163519   7.114   7.587   2.401
53874SOL    HW263520   7.151   7.725   2.453
53875SOL     OW63521   9.673  12.951   0.963
53875SOL    HW163522   9.599  12.936   1.022
53875SOL    HW263523   9.691  12.866   0.924
53876SOL     OW63524   6.100   3.523   2.546
53876SOL    HW163525   6.143   3.508   2.462
53876SOL    HW263526   6.018   3.473   2.540
53877SOL     OW63527   2.283   0.384   8.713
53877SOL    HW163528   2.373   0.370   8.685
53877SOL    HW263529   2.233   0.390   8.632
53878SOL     OW63530   0.859  13.843   4.899
53878SOL    HW163531   0.768  13.827   4.926
53878SOL    HW263532   0.911  13.825   4.977
53879SOL     OW63533  11.398   7.316   9.296
53879SOL    HW163534  11.406   7.263   9.217
53879SOL    HW263535  11.431   7.260   9.366
53880SOL     OW63536   7.036  10.116   8.911
53880SOL    HW163537   6.958  10.146   8.958
53880SOL    HW263538   7.039  10.021   8.926
53881SOL     OW63539   6.847  12.330  13.737
53881SOL    HW163540   6.834  12.349  13.830
53881SOL    HW263541   6.759  12.319  13.702
53882SOL     OW63542   3.225   5.463  14.519
53882SOL    HW163543   3.223   5.515  14.439
53882SOL    HW263544   3.228   5.372  14.488
53883SOL     OW63545   8.967  14.813  14.576
53883SOL    HW163546   8.905  14.864  14.524
53883SOL    HW263547   9.020  14.878  14.620
53884SOL     OW63548   8.401  11.520   1.097
53884SOL    HW163549   8.494  11.500   1.096
53884SOL    HW263550   8.383  11.556   1.010
53885SOL     OW63551   8.478   3.519   5.551
53885SOL    HW163552   8.462   3.550   5.641
53885SOL    HW263553   8.544   3.580   5.517
53886SOL     OW63554  12.313   3.720   5.650
53886SOL    HW163555  12.253   3.698   5.578
53886SOL    HW263556  12.398   3.688   5.620
53887SOL     OW63557  14.040   1.053   4.949
53887SOL    HW163558  13.947   1.031   4.959
53887SOL    HW263559  14.083   0.969   4.938
53888SOL     OW63560  10.590   3.776  11.446
53888SOL    HW163561  10.624   3.793  11.534
53888SOL    HW263562  10.539   3.695  11.456
53889SOL     OW63563  11.002   7.926  12.454
53889SOL    HW163564  10.918   7.882  12.466
53889SOL    HW263565  11.052   7.905  12.532
53890SOL     OW63566   9.462   6.844   8.254
53890SOL    HW163567   9.435   6.926   8.297
53890SOL    HW263568   9.431   6.775   8.313
53891SOL     OW63569   3.543   2.498   3.348
53891SOL    HW163570   3.583   2.538   3.425
53891SOL    HW263571   3.449   2.509   3.362
53892SOL     OW63572   8.367  12.483  11.807
53892SOL    HW163573   8.451  12.474  11.852
53892SOL    HW263574   8.390  12.493  11.715
53893SOL     OW63575   8.061   1.828  13.606
53893SOL    HW163576   8.078   1.919  13.630
53893SOL    HW263577   7.982   1.832  13.553
53894SOL     OW63578   9.295  12.557   1.677
53894SOL    HW163579   9.251  12.576   1.760
53894SOL    HW263580   9.241  12.490   1.635
53895SOL     OW63581  12.136   4.152  11.049
53895SOL    HW163582  12.062   4.093  11.058
53895SOL    HW263583  12.196   4.127  11.119
53896SOL     OW63584   3.332   7.844   3.842
53896SOL    HW163585   3.350   7.861   3.934
53896SOL    HW263586   3.365   7.755   3.826
53897SOL     OW63587   8.655   6.240   6.242
53897SOL    HW163588   8.744   6.219   6.267
53897SOL    HW263589   8.602   6.217   6.318
53898SOL     OW63590   5.346   3.814   6.101
53898SOL    HW163591   5.361   3.811   6.196
53898SOL    HW263592   5.337   3.907   6.082
53899SOL     OW63593   4.681  11.026   9.550
53899SOL    HW163594   4.601  10.982   9.520
53899SOL    HW263595   4.655  11.067   9.633
53900SOL     OW63596   1.420   3.009  14.122
53900SOL    HW163597   1.437   3.074  14.191
53900SOL    HW263598   1.453   3.051  14.042
53901SOL     OW63599   1.992   9.090   2.474
53901SOL    HW163600   1.930   9.139   2.420
53901SOL    HW263601   2.017   9.151   2.543
53902SOL     OW63602  14.182   2.321   1.459
53902SOL    HW163603  14.167   2.408   1.420
53902SOL    HW263604  14.125   2.320   1.536
53903SOL     OW63605   9.985   1.113  10.737
53903SOL    HW163606   9.936   1.039  10.772
53903SOL    HW263607  10.046   1.136  10.806
53904SOL     OW63608   8.883   8.954   4.335
53904SOL    HW163609   8.925   8.988   4.414
53904SOL    HW263610   8.898   9.022   4.269
53905SOL     OW63611   9.680  14.774   3.832
53905SOL    HW163612   9.600  14.722   3.826
53905SOL    HW263613   9.747  14.719   3.790
53906SOL     OW63614   4.464   6.431  13.439
53906SOL    HW163615   4.450   6.424  13.534
53906SOL    HW263616   4.556   6.409  13.427
53907SOL     OW63617  12.528  11.110   6.824
53907SOL    HW163618  12.498  11.189   6.780
53907SOL    HW263619  12.616  11.131   6.855
53908SOL     OW63620   2.846   7.040   8.741
53908SOL    HW163621   2.934   7.006   8.726
53908SOL    HW263622   2.859   7.122   8.788
53909SOL     OW63623   6.330   4.386   5.765
53909SOL    HW163624   6.413   4.417   5.800
53909SOL    HW263625   6.309   4.308   5.817
53910SOL     OW63626   5.073  14.079   5.314
53910SOL    HW163627   5.143  14.015   5.329
53910SOL    HW263628   4.993  14.029   5.329
53911SOL     OW63629   4.833  13.560  10.700
53911SOL    HW163630   4.862  13.509  10.776
53911SOL    HW263631   4.891  13.636  10.698
53912SOL     OW63632   4.884   6.840   4.599
53912SOL    HW163633   4.896   6.847   4.504
53912SOL    HW263634   4.868   6.747   4.614
53913SOL     OW63635   9.973   5.721   2.027
53913SOL    HW163636   9.899   5.780   2.010
53913SOL    HW263637   9.932   5.634   2.031
53914SOL     OW63638   5.436   7.372  10.580
53914SOL    HW163639   5.419   7.292  10.630
53914SOL    HW263640   5.353   7.392  10.538
53915SOL     OW63641  10.073  14.004   9.617
53915SOL    HW163642  10.103  13.942   9.550
53915SOL    HW263643  10.029  13.950   9.682
53916SOL     OW63644   6.010   4.439   1.244
53916SOL    HW163645   5.991   4.533   1.235
53916SOL    HW263646   6.063   4.418   1.167
53917SOL     OW63647  10.761   0.311  12.580
53917SOL    HW163648  10.716   0.393  12.563
53917SOL    HW263649  10.809   0.292  12.499
53918SOL     OW63650  14.729  10.471   8.885
53918SOL    HW163651  14.749  10.561   8.858
53918SOL    HW263652  14.666  10.480   8.956
53919SOL     OW63653   9.595  10.715   2.085
53919SOL    HW163654   9.628  10.750   2.167
53919SOL    HW263655   9.642  10.632   2.073
53920SOL     OW63656  11.565   7.072   6.425
53920SOL    HW163657  11.543   7.058   6.333
53920SOL    HW263658  11.581   7.166   6.432
53921SOL     OW63659  13.572   2.822   1.387
53921SOL    HW163660  13.478   2.802   1.384
53921SOL    HW263661  13.586   2.883   1.314
53922SOL     OW63662  14.265  14.608   4.513
53922SOL    HW163663  14.273  14.622   4.607
53922SOL    HW263664  14.350  14.632   4.478
53923SOL     OW63665   6.390  14.310  13.317
53923SOL    HW163666   6.318  14.366  13.347
53923SOL    HW263667   6.384  14.232  13.372
53924SOL     OW63668   8.923  14.460   1.986
53924SOL    HW163669   8.984  14.400   1.944
53924SOL    HW263670   8.914  14.532   1.924
53925SOL     OW63671  14.197   3.171  11.698
53925SOL    HW163672  14.236   3.188  11.783
53925SOL    HW263673  14.104   3.193  11.709
53926SOL     OW63674   4.335   9.569  14.416
53926SOL    HW163675   4.273   9.619  14.470
53926SOL    HW263676   4.324   9.605  14.328
53927SOL     OW63677   1.973  10.246  10.613
53927SOL    HW163678   1.966  10.321  10.555
53927SOL    HW263679   1.992  10.283  10.699
53928SOL     OW63680  11.528  13.513   7.934
53928SOL    HW163681  11.586  13.465   7.993
53928SOL    HW263682  11.587  13.567   7.881
53929SOL     OW63683   8.729   0.575   7.046
53929SOL    HW163684   8.771   0.658   7.067
53929SOL    HW263685   8.690   0.589   6.959
53930SOL     OW63686  13.009   8.294   9.664
53930SOL    HW163687  13.021   8.321   9.573
53930SOL    HW263688  12.994   8.199   9.660
53931SOL     OW63689   6.717  13.272   2.602
53931SOL    HW163690   6.769  13.252   2.524
53931SOL    HW263691   6.648  13.331   2.570
53932SOL     OW63692   4.940  12.530   1.309
53932SOL    HW163693   4.880  12.508   1.238
53932SOL    HW263694   5.027  12.529   1.268
53933SOL     OW63695   6.342   6.128  12.981
53933SOL    HW163696   6.408   6.064  13.007
53933SOL    HW263697   6.349   6.197  13.047
53934SOL     OW63698  13.700   6.080   2.179
53934SOL    HW163699  13.624   6.026   2.157
53934SOL    HW263700  13.672   6.170   2.163
53935SOL     OW63701   7.292  11.653   6.821
53935SOL    HW163702   7.301  11.747   6.836
53935SOL    HW263703   7.379  11.617   6.839
53936SOL     OW63704  11.526  14.430  13.812
53936SOL    HW163705  11.531  14.526  13.804
53936SOL    HW263706  11.617  14.401  13.811
53937SOL     OW63707  12.043   0.712  14.682
53937SOL    HW163708  12.125   0.668  14.660
53937SOL    HW263709  12.070   0.798  14.715
53938SOL     OW63710  10.093   7.289  13.848
53938SOL    HW163711  10.166   7.317  13.793
53938SOL    HW263712  10.032   7.362  13.848
53939SOL     OW63713  10.784   8.189   8.496
53939SOL    HW163714  10.748   8.101   8.492
53939SOL    HW263715  10.739   8.230   8.571
53940SOL     OW63716  11.835   0.875   9.069
53940SOL    HW163717  11.829   0.932   9.146
53940SOL    HW263718  11.813   0.788   9.101
53941SOL     OW63719  13.681  11.715  12.363
53941SOL    HW163720  13.773  11.694  12.382
53941SOL    HW263721  13.646  11.636  12.322
53942SOL     OW63722  11.270   2.585  14.388
53942SOL    HW163723  11.234   2.597  14.300
53942SOL    HW263724  11.248   2.495  14.412
53943SOL     OW63725   4.766   2.530  12.900
53943SOL    HW163726   4.774   2.444  12.858
53943SOL    HW263727   4.674   2.552  12.891
53944SOL     OW63728  11.465   5.055  10.899
53944SOL    HW163729  11.472   5.144  10.865
53944SOL    HW263730  11.502   5.060  10.987
53945SOL     OW63731   1.023  10.295   3.674
53945SOL    HW163732   0.966  10.356   3.721
53945SOL    HW263733   0.969  10.261   3.603
53946SOL     OW63734   1.326   0.929   9.891
53946SOL    HW163735   1.381   0.976   9.954
53946SOL    HW263736   1.304   0.994   9.825
53947SOL     OW63737   0.183  13.365   0.649
53947SOL    HW163738   0.118  13.299   0.675
53947SOL    HW263739   0.202  13.412   0.730
53948SOL     OW63740   8.362  11.787   6.057
53948SOL    HW163741   8.386  11.852   5.991
53948SOL    HW263742   8.416  11.809   6.133
53949SOL     OW63743   9.291   6.892  10.225
53949SOL    HW163744   9.358   6.895  10.293
53949SOL    HW263745   9.208   6.887  10.274
53950SOL     OW63746   3.514   1.621   9.796
53950SOL    HW163747   3.428   1.580   9.808
53950SOL    HW263748   3.541   1.647   9.884
53951SOL     OW63749   9.142   5.466   6.748
53951SOL    HW163750   9.047   5.462   6.761
53951SOL    HW263751   9.155   5.533   6.681
53952SOL     OW63752   5.779   8.080  11.864
53952SOL    HW163753   5.844   8.102  11.797
53952SOL    HW263754   5.798   7.989  11.887
53953SOL     OW63755   7.759  11.105   8.983
53953SOL    HW163756   7.768  11.150   9.067
53953SOL    HW263757   7.830  11.139   8.929
53954SOL     OW63758   5.756   9.470  12.764
53954SOL    HW163759   5.706   9.422  12.699
53954SOL    HW263760   5.844   9.432  12.760
53955SOL     OW63761   9.657   7.715   7.937
53955SOL    HW163762   9.644   7.809   7.922
53955SOL    HW263763   9.731   7.711   7.997
53956SOL     OW63764   3.462   5.952   8.942
53956SOL    HW163765   3.555   5.930   8.948
53956SOL    HW263766   3.424   5.881   8.890
53957SOL     OW63767   6.152   0.524   4.540
53957SOL    HW163768   6.211   0.450   4.550
53957SOL    HW263769   6.196   0.582   4.478
53958SOL     OW63770   6.384   2.052   2.057
53958SOL    HW163771   6.403   2.092   1.972
53958SOL    HW263772   6.369   2.126   2.116
53959SOL     OW63773  12.909   8.543  10.041
53959SOL    HW163774  13.004   8.537  10.050
53959SOL    HW263775  12.895   8.576   9.952
53960SOL     OW63776   6.902   3.623  13.722
53960SOL    HW163777   6.924   3.551  13.780
53960SOL    HW263778   6.920   3.702  13.774
53961SOL     OW63779   1.636   8.924  11.569
53961SOL    HW163780   1.555   8.913  11.620
53961SOL    HW263781   1.607   8.964  11.487
53962SOL     OW63782  14.114   5.406   3.817
53962SOL    HW163783  14.132   5.447   3.733
53962SOL    HW263784  14.047   5.340   3.799
53963SOL     OW63785   0.067   4.080   1.163
53963SOL    HW163786   0.156   4.114   1.166
53963SOL    HW263787   0.018   4.135   1.224
53964SOL     OW63788   0.776  14.421   3.731
53964SOL    HW163789   0.688  14.445   3.701
53964SOL    HW263790   0.787  14.468   3.814
53965SOL     OW63791   3.713   5.182   8.064
53965SOL    HW163792   3.671   5.268   8.066
53965SOL    HW263793   3.651   5.124   8.109
53966SOL     OW63794   0.965   5.689   5.674
53966SOL    HW163795   0.926   5.774   5.694
53966SOL    HW263796   1.027   5.707   5.604
53967SOL     OW63797   6.591  10.819   2.879
53967SOL    HW163798   6.568  10.858   2.794
53967SOL    HW263799   6.560  10.728   2.872
53968SOL     OW63800   0.194  12.175  14.692
53968SOL    HW163801   0.156  12.196  14.607
53968SOL    HW263802   0.252  12.101  14.675
53969SOL     OW63803  11.526  13.659   0.100
53969SOL    HW163804  11.441  13.694   0.074
53969SOL    HW263805  11.505  13.585   0.157
53970SOL     OW63806   1.514  13.132   7.859
53970SOL    HW163807   1.488  13.196   7.925
53970SOL    HW263808   1.453  13.146   7.787
53971SOL     OW63809   1.373   0.744  14.688
53971SOL    HW163810   1.429   0.789  14.751
53971SOL    HW263811   1.307   0.809  14.664
53972SOL     OW63812  11.115   3.335  10.895
53972SOL    HW163813  11.207   3.356  10.909
53972SOL    HW263814  11.104   3.247  10.931
53973SOL     OW63815   9.169   0.943  12.125
53973SOL    HW163816   9.240   0.996  12.088
53973SOL    HW263817   9.094   1.002  12.128
53974SOL     OW63818  11.663   3.928   9.381
53974SOL    HW163819  11.615   3.961   9.304
53974SOL    HW263820  11.755   3.947   9.361
53975SOL     OW63821   0.768  14.096   8.458
53975SOL    HW163822   0.705  14.167   8.444
53975SOL    HW263823   0.725  14.038   8.521
53976SOL     OW63824   4.873   5.174   3.097
53976SOL    HW163825   4.839   5.258   3.125
53976SOL    HW263826   4.968   5.182   3.109
53977SOL     OW63827  11.716  10.207   9.923
53977SOL    HW163828  11.728  10.114   9.903
53977SOL    HW263829  11.794  10.231   9.973
53978SOL     OW63830  10.160   4.840  11.524
53978SOL    HW163831  10.129   4.894  11.597
53978SOL    HW263832  10.247   4.812  11.552
53979SOL     OW63833   5.274  11.695   9.668
53979SOL    HW163834   5.272  11.779   9.714
53979SOL    HW263835   5.323  11.713   9.588
53980SOL     OW63836   5.310   4.248  11.555
53980SOL    HW163837   5.381   4.305  11.586
53980SOL    HW263838   5.230   4.287  11.591
53981SOL     OW63839  10.520   9.843  10.370
53981SOL    HW163840  10.602   9.812  10.332
53981SOL    HW263841  10.493   9.772  10.430
53982SOL     OW63842   2.883   8.911   0.674
53982SOL    HW163843   2.795   8.940   0.651
53982SOL    HW263844   2.877   8.815   0.678
53983SOL     OW63845   7.346  10.533   1.909
53983SOL    HW163846   7.376  10.477   1.981
53983SOL    HW263847   7.272  10.581   1.945
53984SOL     OW63848   3.916   1.195  13.725
53984SOL    HW163849   3.846   1.221  13.786
53984SOL    HW263850   3.945   1.278  13.686
53985SOL     OW63851  10.586   4.494   4.824
53985SOL    HW163852  10.603   4.481   4.730
53985SOL    HW263853  10.532   4.572   4.829
53986SOL     OW63854   7.436   1.089   9.143
53986SOL    HW163855   7.498   1.155   9.111
53986SOL    HW263856   7.411   1.120   9.230
53987SOL     OW63857  13.384   2.623   0.182
53987SOL    HW163858  13.433   2.584   0.110
53987SOL    HW263859  13.296   2.637   0.146
53988SOL     OW63860   3.669   7.442   5.843
53988SOL    HW163861   3.648   7.526   5.883
53988SOL    HW263862   3.722   7.397   5.908
53989SOL     OW63863  11.909  11.501   7.522
53989SOL    HW163864  11.847  11.431   7.499
53989SOL    HW263865  11.981  11.491   7.460
53990SOL     OW63866  10.937   4.010   5.934
53990SOL    HW163867  10.841   4.004   5.939
53990SOL    HW263868  10.967   3.983   6.021
53991SOL     OW63869  12.236  12.858  13.698
53991SOL    HW163870  12.286  12.855  13.617
53991SOL    HW263871  12.156  12.810  13.678
53992SOL     OW63872   3.368  11.765   4.791
53992SOL    HW163873   3.301  11.827   4.821
53992SOL    HW263874   3.385  11.791   4.701
53993SOL     OW63875   2.021   1.579  11.499
53993SOL    HW163876   2.102   1.532  11.523
53993SOL    HW263877   1.973   1.517  11.444
53994SOL     OW63878   4.775   7.481   7.159
53994SOL    HW163879   4.774   7.510   7.250
53994SOL    HW263880   4.833   7.405   7.160
53995SOL     OW63881   3.973   3.032   1.158
53995SOL    HW163882   3.909   3.040   1.228
53995SOL    HW263883   3.978   2.938   1.140
53996SOL     OW63884   6.596   1.776  11.140
53996SOL    HW163885   6.584   1.871  11.134
53996SOL    HW263886   6.596   1.746  11.049
53997SOL     OW63887  14.026   7.583   3.974
53997SOL    HW163888  13.969   7.601   4.049
53997SOL    HW263889  13.990   7.504   3.934
53998SOL     OW63890   4.813   5.424   1.736
53998SOL    HW163891   4.864   5.499   1.768
53998SOL    HW263892   4.864   5.348   1.762
53999SOL     OW63893   6.786   7.083   1.307
53999SOL    HW163894   6.823   7.161   1.346
53999SOL    HW263895   6.799   7.094   1.213
54000SOL     OW63896   9.570   3.992   8.920
54000SOL    HW163897   9.518   4.049   8.864
54000SOL    HW263898   9.660   4.023   8.909
54001SOL     OW63899  13.295   3.557  10.778
54001SOL    HW163900  13.337   3.622  10.722
54001SOL    HW263901  13.299   3.595  10.866
54002SOL     OW63902   0.945   4.917   3.130
54002SOL    HW163903   0.987   5.002   3.112
54002SOL    HW263904   0.901   4.895   3.049
54003SOL     OW63905   4.577  12.206   6.689
54003SOL    HW163906   4.582  12.294   6.726
54003SOL    HW263907   4.524  12.215   6.610
54004SOL     OW63908  13.086  12.672   4.553
54004SOL    HW163909  13.068  12.659   4.460
54004SOL    HW263910  13.027  12.743   4.579
54005SOL     OW63911  11.176  14.452   4.695
54005SOL    HW163912  11.124  14.422   4.620
54005SOL    HW263913  11.164  14.384   4.761
54006SOL     OW63914   9.117   2.771   7.824
54006SOL    HW163915   9.069   2.796   7.745
54006SOL    HW263916   9.209   2.787   7.803
54007SOL     OW63917   8.496  11.180   1.595
54007SOL    HW163918   8.410  11.140   1.587
54007SOL    HW263919   8.479  11.274   1.600
54008SOL     OW63920   9.236  11.981  10.812
54008SOL    HW163921   9.174  11.978  10.740
54008SOL    HW263922   9.322  11.972  10.770
54009SOL     OW63923   9.134   8.785   9.635
54009SOL    HW163924   9.106   8.702   9.595
54009SOL    HW263925   9.056   8.840   9.634
54010SOL     OW63926   8.331   8.839   3.473
54010SOL    HW163927   8.238   8.840   3.496
54010SOL    HW263928   8.376   8.830   3.558
54011SOL     OW63929   2.864   5.437   5.392
54011SOL    HW163930   2.828   5.454   5.305
54011SOL    HW263931   2.803   5.376   5.432
54012SOL     OW63932  10.424  14.305   9.582
54012SOL    HW163933  10.450  14.396   9.596
54012SOL    HW263934  10.350  14.311   9.521
54013SOL     OW63935   0.801   3.399   5.752
54013SOL    HW163936   0.824   3.344   5.827
54013SOL    HW263937   0.762   3.477   5.791
54014SOL     OW63938   1.775   1.565   0.351
54014SOL    HW163939   1.815   1.545   0.436
54014SOL    HW263940   1.840   1.536   0.287
54015SOL     OW63941   7.134   5.294  11.214
54015SOL    HW163942   7.129   5.377  11.261
54015SOL    HW263943   7.120   5.317  11.122
54016SOL     OW63944   2.369  13.004   4.476
54016SOL    HW163945   2.283  12.963   4.476
54016SOL    HW263946   2.352  13.096   4.457
54017SOL     OW63947   1.758   4.077   4.198
54017SOL    HW163948   1.698   4.063   4.271
54017SOL    HW263949   1.768   4.172   4.193
54018SOL     OW63950   1.459   1.587   9.118
54018SOL    HW163951   1.461   1.560   9.027
54018SOL    HW263952   1.417   1.514   9.164
54019SOL     OW63953   0.712   6.801  11.361
54019SOL    HW163954   0.734   6.886  11.323
54019SOL    HW263955   0.688   6.747  11.286
54020SOL     OW63956  12.115   1.739  13.715
54020SOL    HW163957  12.022   1.739  13.735
54020SOL    HW263958  12.119   1.738  13.620
54021SOL     OW63959   6.269   1.355  12.319
54021SOL    HW163960   6.317   1.376  12.398
54021SOL    HW263961   6.181   1.390  12.334
54022SOL     OW63962  10.027   4.252  11.339
54022SOL    HW163963  10.117   4.219  11.338
54022SOL    HW263964  10.012   4.277  11.430
54023SOL     OW63965   5.682   2.946   4.754
54023SOL    HW163966   5.627   2.977   4.682
54023SOL    HW263967   5.766   2.927   4.714
54024SOL     OW63968  13.292  13.163  13.731
54024SOL    HW163969  13.278  13.145  13.824
54024SOL    HW263970  13.353  13.237  13.730
54025SOL     OW63971  10.960  11.547  14.456
54025SOL    HW163972  11.004  11.631  14.456
54025SOL    HW263973  10.981  11.508  14.372
54026SOL     OW63974   1.236   2.259  14.845
54026SOL    HW163975   1.258   2.202  14.771
54026SOL    HW263976   1.301   2.238   0.032
54027SOL     OW63977  13.736   0.931  14.071
54027SOL    HW163978  13.799   0.908  14.003
54027SOL    HW263979  13.756   1.022  14.092
54028SOL     OW63980   1.071   7.283   4.123
54028SOL    HW163981   1.065   7.302   4.216
54028SOL    HW263982   1.151   7.232   4.114
54029SOL     OW63983  14.103   0.944   6.913
54029SOL    HW163984  14.097   0.890   6.992
54029SOL    HW263985  14.080   0.884   6.842
54030SOL     OW63986  11.053   6.835   2.429
54030SOL    HW163987  11.099   6.758   2.461
54030SOL    HW263988  11.118   6.882   2.377
54031SOL     OW63989  11.290  10.891  12.924
54031SOL    HW163990  11.346  10.886  13.001
54031SOL    HW263991  11.201  10.884  12.958
54032SOL     OW63992   3.641   1.366  14.621
54032SOL    HW163993   3.562   1.401  14.663
54032SOL    HW263994   3.677   1.305  14.685
54033SOL     OW63995   6.002   0.078  10.237
54033SOL    HW163996   5.910   0.053  10.246
54033SOL    HW263997   6.046   0.032  10.309
54034SOL     OW63998   2.861   0.955   2.502
54034SOL    HW163999   2.931   0.903   2.541
54034SOL    HW264000   2.907   1.016   2.444
54035SOL     OW64001  10.035   0.882   2.180
54035SOL    HW164002   9.990   0.943   2.121
54035SOL    HW264003   9.986   0.800   2.172
54036SOL     OW64004   7.753   6.165   4.172
54036SOL    HW164005   7.765   6.236   4.109
54036SOL    HW264006   7.737   6.088   4.118
54037SOL     OW64007   5.303   9.430  11.546
54037SOL    HW164008   5.330   9.414  11.456
54037SOL    HW264009   5.377   9.476  11.585
54038SOL     OW64010   2.286   2.404   1.256
54038SOL    HW164011   2.369   2.383   1.298
54038SOL    HW264012   2.299   2.490   1.217
54039SOL     OW64013  10.304   0.444   8.088
54039SOL    HW164014  10.304   0.373   8.152
54039SOL    HW264015  10.355   0.410   8.014
54040SOL     OW64016  11.799  14.851  13.891
54040SOL    HW164017  11.880  14.826  13.846
54040SOL    HW264018  11.736  14.866  13.820
54041SOL     OW64019   2.594  13.929  10.747
54041SOL    HW164020   2.673  13.978  10.772
54041SOL    HW264021   2.522  13.978  10.786
54042SOL     OW64022  14.060   6.379   9.489
54042SOL    HW164023  14.102   6.464   9.506
54042SOL    HW264024  14.020   6.389   9.403
54043SOL     OW64025  13.758   5.984   7.541
54043SOL    HW164026  13.757   5.939   7.625
54043SOL    HW264027  13.818   6.058   7.554
54044SOL     OW64028  12.307  10.360   1.130
54044SOL    HW164029  12.242  10.291   1.120
54044SOL    HW264030  12.271  10.434   1.082
54045SOL     OW64031   6.418  13.347   0.725
54045SOL    HW164032   6.324  13.344   0.739
54045SOL    HW264033   6.431  13.417   0.662
54046SOL     OW64034   7.826   5.220  11.881
54046SOL    HW164035   7.741   5.222  11.839
54046SOL    HW264036   7.873   5.150  11.836
54047SOL     OW64037   7.981  14.790   0.602
54047SOL    HW164038   7.907  14.745   0.561
54047SOL    HW264039   7.995  14.743   0.684
54048SOL     OW64040  13.149   3.093   1.172
54048SOL    HW164041  13.123   3.009   1.210
54048SOL    HW264042  13.245   3.090   1.171
54049SOL     OW64043   2.724   9.727  13.716
54049SOL    HW164044   2.786   9.665  13.754
54049SOL    HW264045   2.702   9.786  13.787
54050SOL     OW64046   2.922   3.740  11.078
54050SOL    HW164047   2.907   3.651  11.109
54050SOL    HW264048   3.010   3.761  11.108
54051SOL     OW64049   6.645   0.774   3.141
54051SOL    HW164050   6.681   0.863   3.149
54051SOL    HW264051   6.715   0.717   3.173
54052SOL     OW64052   9.963   2.428   9.485
54052SOL    HW164053   9.870   2.410   9.472
54052SOL    HW264054   9.965   2.517   9.522
54053SOL     OW64055  10.960   6.510   2.690
54053SOL    HW164056  10.927   6.472   2.609
54053SOL    HW264057  10.882   6.516   2.746
54054SOL     OW64058   1.535   5.214   3.016
54054SOL    HW164059   1.588   5.135   3.003
54054SOL    HW264060   1.544   5.234   3.109
54055SOL     OW64061   5.560   3.385  10.325
54055SOL    HW164062   5.532   3.448  10.259
54055SOL    HW264063   5.548   3.300  10.284
54056SOL     OW64064  14.669   5.054  12.509
54056SOL    HW164065  14.690   4.963  12.487
54056SOL    HW264066  14.573   5.057  12.508
54057SOL     OW64067   6.820  13.274  11.674
54057SOL    HW164068   6.857  13.247  11.757
54057SOL    HW264069   6.797  13.366  11.687
54058SOL     OW64070   0.401   2.127  12.396
54058SOL    HW164071   0.393   2.217  12.362
54058SOL    HW264072   0.397   2.072  12.318
54059SOL     OW64073   0.857  13.905   9.688
54059SOL    HW164074   0.797  13.967   9.731
54059SOL    HW264075   0.838  13.821   9.730
54060SOL     OW64076  14.607   9.179  12.544
54060SOL    HW164077  14.670   9.193  12.473
54060SOL    HW264078  14.656   9.200  12.623
54061SOL     OW64079   2.862   2.038   3.886
54061SOL    HW164080   2.881   1.945   3.903
54061SOL    HW264081   2.928   2.085   3.936
54062SOL     OW64082   2.622  10.008   8.971
54062SOL    HW164083   2.567  10.042   8.900
54062SOL    HW264084   2.693   9.962   8.926
54063SOL     OW64085  12.494   9.633   4.693
54063SOL    HW164086  12.579   9.587   4.695
54063SOL    HW264087  12.504   9.703   4.757
54064SOL     OW64088   8.495  13.218   5.244
54064SOL    HW164089   8.519  13.307   5.270
54064SOL    HW264090   8.578  13.177   5.219
54065SOL     OW64091  11.923   3.389  13.640
54065SOL    HW164092  11.831   3.373  13.660
54065SOL    HW264093  11.937   3.346  13.556
54066SOL     OW64094   5.159   9.473   7.478
54066SOL    HW164095   5.169   9.400   7.418
54066SOL    HW264096   5.178   9.436   7.564
54067SOL     OW64097   1.214   6.586   8.971
54067SOL    HW164098   1.149   6.517   8.955
54067SOL    HW264099   1.239   6.575   9.063
54068SOL     OW64100  10.585   2.172   6.450
54068SOL    HW164101  10.501   2.139   6.483
54068SOL    HW264102  10.574   2.267   6.448
54069SOL     OW64103   7.710   8.095   7.426
54069SOL    HW164104   7.708   8.139   7.511
54069SOL    HW264105   7.683   8.163   7.364
54070SOL     OW64106  10.335  10.445   3.380
54070SOL    HW164107  10.239  10.448   3.385
54070SOL    HW264108  10.353  10.402   3.296
54071SOL     OW64109   4.713  13.877   4.933
54071SOL    HW164110   4.805  13.864   4.958
54071SOL    HW264111   4.712  13.959   4.884
54072SOL     OW64112   3.246  13.594   6.454
54072SOL    HW164113   3.239  13.581   6.359
54072SOL    HW264114   3.167  13.643   6.477
54073SOL     OW64115   2.612   4.925   5.039
54073SOL    HW164116   2.540   4.969   4.992
54073SOL    HW264117   2.682   4.919   4.974
54074SOL     OW64118   8.321   9.259  11.597
54074SOL    HW164119   8.235   9.302  11.600
54074SOL    HW264120   8.382   9.328  11.571
54075SOL     OW64121   1.097   9.590  12.950
54075SOL    HW164122   1.154   9.515  12.935
54075SOL    HW264123   1.157   9.665  12.958
54076SOL     OW64124   5.887  10.920   2.412
54076SOL    HW164125   5.832  10.911   2.490
54076SOL    HW264126   5.905  11.014   2.407
54077SOL     OW64127   2.826   8.450  10.799
54077SOL    HW164128   2.904   8.432  10.746
54077SOL    HW264129   2.775   8.512  10.748
54078SOL     OW64130   9.847   9.917  12.708
54078SOL    HW164131   9.865   9.998  12.755
54078SOL    HW264132   9.869   9.936  12.617
54079SOL     OW64133  12.908  10.375   9.976
54079SOL    HW164134  12.878  10.354  10.064
54079SOL    HW264135  12.992  10.420   9.989
54080SOL     OW64136   8.560   4.314   8.643
54080SOL    HW164137   8.654   4.319   8.632
54080SOL    HW264138   8.530   4.256   8.573
54081SOL     OW64139  11.520   3.255  13.153
54081SOL    HW164140  11.586   3.235  13.086
54081SOL    HW264141  11.517   3.351  13.155
54082SOL     OW64142   7.396   6.033   9.381
54082SOL    HW164143   7.333   6.102   9.401
54082SOL    HW264144   7.472   6.080   9.347
54083SOL     OW64145   6.590   7.778   7.794
54083SOL    HW164146   6.563   7.735   7.875
54083SOL    HW264147   6.686   7.771   7.795
54084SOL     OW64148   3.481  13.289  12.851
54084SOL    HW164149   3.419  13.230  12.895
54084SOL    HW264150   3.552  13.232  12.822
54085SOL     OW64151  14.117   8.881  12.254
54085SOL    HW164152  14.051   8.861  12.188
54085SOL    HW264153  14.144   8.796  12.288
54086SOL     OW64154   6.808   6.259   8.926
54086SOL    HW164155   6.771   6.346   8.938
54086SOL    HW264156   6.872   6.250   8.997
54087SOL     OW64157  10.323   8.127   8.299
54087SOL    HW164158  10.329   8.072   8.377
54087SOL    HW264159  10.398   8.100   8.245
54088SOL     OW64160   9.408   1.307   9.762
54088SOL    HW164161   9.488   1.360   9.761
54088SOL    HW264162   9.337   1.371   9.756
54089SOL     OW64163   0.223   1.434  10.699
54089SOL    HW164164   0.237   1.482  10.780
54089SOL    HW264165   0.206   1.502  10.633
54090SOL     OW64166   9.773  11.376  14.736
54090SOL    HW164167   9.727  11.412  14.812
54090SOL    HW264168   9.864  11.368  14.765
54091SOL     OW64169  12.950   1.386  13.368
54091SOL    HW164170  12.978   1.312  13.315
54091SOL    HW264171  12.894   1.438  13.310
54092SOL     OW64172  10.150   5.897   2.815
54092SOL    HW164173  10.104   5.981   2.808
54092SOL    HW264174  10.180   5.878   2.726
54093SOL     OW64175   2.129   5.880  13.298
54093SOL    HW164176   2.037   5.863  13.278
54093SOL    HW264177   2.149   5.820  13.369
54094SOL     OW64178   5.117  11.740   3.001
54094SOL    HW164179   5.136  11.825   3.043
54094SOL    HW264180   5.131  11.756   2.908
54095SOL     OW64181  13.157  10.938   6.126
54095SOL    HW164182  13.178  10.973   6.039
54095SOL    HW264183  13.198  10.999   6.187
54096SOL     OW64184   4.204  10.416  11.328
54096SOL    HW164185   4.182  10.452  11.413
54096SOL    HW264186   4.123  10.426  11.277
54097SOL     OW64187  13.497   7.481  10.486
54097SOL    HW164188  13.513   7.556  10.430
54097SOL    HW264189  13.433   7.428  10.438
54098SOL     OW64190  10.839  10.275   6.545
54098SOL    HW164191  10.930  10.269   6.518
54098SOL    HW264192  10.812  10.185   6.561
54099SOL     OW64193   7.776  13.870  13.927
54099SOL    HW164194   7.834  13.808  13.970
54099SOL    HW264195   7.834  13.921  13.870
54100SOL     OW64196   7.372   2.049  11.162
54100SOL    HW164197   7.368   2.098  11.080
54100SOL    HW264198   7.452   2.081  11.204
54101SOL     OW64199  13.185   9.508   9.743
54101SOL    HW164200  13.199   9.452   9.667
54101SOL    HW264201  13.269   9.551   9.756
54102SOL     OW64202   9.706   0.539   7.241
54102SOL    HW164203   9.616   0.567   7.259
54102SOL    HW264204   9.726   0.574   7.155
54103SOL     OW64205  13.176   2.053   5.625
54103SOL    HW164206  13.197   2.037   5.533
54103SOL    HW264207  13.250   2.014   5.673
54104SOL     OW64208   3.168   0.842   2.826
54104SOL    HW164209   3.085   0.883   2.852
54104SOL    HW264210   3.155   0.817   2.735
54105SOL     OW64211  11.857  11.070   2.391
54105SOL    HW164212  11.922  11.127   2.350
54105SOL    HW264213  11.818  11.124   2.459
54106SOL     OW64214  10.133  12.060   2.841
54106SOL    HW164215  10.117  12.107   2.759
54106SOL    HW264216  10.074  12.102   2.904
54107SOL     OW64217  11.228  13.400   9.390
54107SOL    HW164218  11.286  13.324   9.380
54107SOL    HW264219  11.169  13.395   9.315
54108SOL     OW64220   7.174   0.946   0.459
54108SOL    HW164221   7.244   1.004   0.428
54108SOL    HW264222   7.111   1.005   0.500
54109SOL     OW64223   8.739   6.757   1.555
54109SOL    HW164224   8.647   6.730   1.553
54109SOL    HW264225   8.775   6.726   1.471
54110SOL     OW64226   9.390  12.283   9.579
54110SOL    HW164227   9.355  12.364   9.541
54110SOL    HW264228   9.320  12.251   9.635
54111SOL     OW64229   2.432   6.960   0.079
54111SOL    HW164230   2.356   7.007   0.114
54111SOL    HW264231   2.481   6.932   0.156
54112SOL     OW64232   2.819  11.862   6.069
54112SOL    HW164233   2.839  11.909   5.988
54112SOL    HW264234   2.849  11.772   6.053
54113SOL     OW64235   9.179  11.313   4.078
54113SOL    HW164236   9.094  11.356   4.067
54113SOL    HW264237   9.232  11.377   4.124
54114SOL     OW64238   0.492   8.599   9.984
54114SOL    HW164239   0.565   8.537   9.994
54114SOL    HW264240   0.533   8.679   9.953
54115SOL     OW64241  11.061   2.702   7.770
54115SOL    HW164242  11.067   2.797   7.780
54115SOL    HW264243  11.121   2.668   7.836
54116SOL     OW64244   0.982   5.005   0.395
54116SOL    HW164245   1.050   5.033   0.334
54116SOL    HW264246   1.002   4.913   0.413
54117SOL     OW64247   2.264   8.546   8.777
54117SOL    HW164248   2.302   8.633   8.776
54117SOL    HW264249   2.289   8.507   8.693
54118SOL     OW64250   9.188  14.280   4.366
54118SOL    HW164251   9.258  14.231   4.324
54118SOL    HW264252   9.230  14.322   4.442
54119SOL     OW64253   1.897   3.073   0.780
54119SOL    HW164254   1.876   3.093   0.871
54119SOL    HW264255   1.846   3.136   0.729
54120SOL     OW64256   8.157   0.339   3.006
54120SOL    HW164257   8.240   0.293   2.998
54120SOL    HW264258   8.181   0.429   3.025
54121SOL     OW64259   4.531  12.579  11.642
54121SOL    HW164260   4.464  12.580  11.711
54121SOL    HW264261   4.519  12.495  11.597
54122SOL     OW64262   0.851   0.808   6.080
54122SOL    HW164263   0.908   0.833   6.007
54122SOL    HW264264   0.897   0.838   6.158
54123SOL     OW64265  11.749   2.666   0.719
54123SOL    HW164266  11.811   2.626   0.658
54123SOL    HW264267  11.724   2.748   0.676
54124SOL     OW64268   8.933   6.657   9.695
54124SOL    HW164269   8.897   6.618   9.615
54124SOL    HW264270   9.027   6.666   9.676
54125SOL     OW64271   0.296   1.049  11.340
54125SOL    HW164272   0.360   1.063  11.410
54125SOL    HW264273   0.294   1.131  11.293
54126SOL     OW64274   0.096  11.127  12.699
54126SOL    HW164275   0.149  11.097  12.773
54126SOL    HW264276   0.145  11.098  12.622
54127SOL     OW64277  10.993   7.783   0.555
54127SOL    HW164278  11.068   7.833   0.523
54127SOL    HW264279  10.926   7.793   0.487
54128SOL     OW64280  13.187  12.079  10.377
54128SOL    HW164281  13.267  12.043  10.414
54128SOL    HW264282  13.119  12.016  10.402
54129SOL     OW64283  13.603   2.901   6.099
54129SOL    HW164284  13.541   2.955   6.050
54129SOL    HW264285  13.551   2.826   6.128
54130SOL     OW64286   2.204   8.044  12.090
54130SOL    HW164287   2.229   8.047  12.183
54130SOL    HW264288   2.228   7.956  12.062
54131SOL     OW64289   7.868   8.702   6.191
54131SOL    HW164290   7.850   8.718   6.284
54131SOL    HW264291   7.911   8.616   6.189
54132SOL     OW64292  13.032  11.544  14.862
54132SOL    HW164293  12.975  11.528  14.787
54132SOL    HW264294  13.053  11.456   0.014
54133SOL     OW64295  11.305  10.977   9.760
54133SOL    HW164296  11.389  10.931   9.767
54133SOL    HW264297  11.314  11.032   9.682
54134SOL     OW64298  10.480   6.786   6.912
54134SOL    HW164299  10.452   6.700   6.943
54134SOL    HW264300  10.541   6.768   6.841
54135SOL     OW64301   9.452  12.504  11.051
54135SOL    HW164302   9.383  12.559  11.013
54135SOL    HW264303   9.432  12.416  11.021
54136SOL     OW64304  11.895   4.736  13.380
54136SOL    HW164305  11.887   4.641  13.390
54136SOL    HW264306  11.827   4.759  13.316
54137SOL     OW64307   4.629   0.543   0.246
54137SOL    HW164308   4.559   0.547   0.180
54137SOL    HW264309   4.584   0.544   0.330
54138SOL     OW64310   1.667  13.439  12.515
54138SOL    HW164311   1.628  13.493  12.584
54138SOL    HW264312   1.707  13.366  12.562
54139SOL     OW64313   2.141  13.778   8.157
54139SOL    HW164314   2.190  13.712   8.109
54139SOL    HW264315   2.204  13.812   8.221
54140SOL     OW64316   7.494   5.338   6.668
54140SOL    HW164317   7.559   5.403   6.640
54140SOL    HW264318   7.414   5.362   6.621
54141SOL     OW64319  14.840   5.217  13.141
54141SOL    HW164320   0.043   5.186  13.104
54141SOL    HW264321  14.775   5.197  13.074
54142SOL     OW64322  12.475   5.466  11.160
54142SOL    HW164323  12.472   5.531  11.231
54142SOL    HW264324  12.539   5.502  11.098
54143SOL     OW64325   4.538   3.493   2.259
54143SOL    HW164326   4.617   3.454   2.224
54143SOL    HW264327   4.472   3.424   2.252
54144SOL     OW64328   4.823  10.203   8.466
54144SOL    HW164329   4.730  10.195   8.446
54144SOL    HW264330   4.829  10.280   8.523
54145SOL     OW64331   2.723  10.707   9.611
54145SOL    HW164332   2.633  10.691   9.641
54145SOL    HW264333   2.771  10.627   9.636
54146SOL     OW64334  11.678   8.052  12.730
54146SOL    HW164335  11.588   8.032  12.705
54146SOL    HW264336  11.715   7.967  12.754
54147SOL     OW64337   6.409   3.222  11.280
54147SOL    HW164338   6.363   3.152  11.232
54147SOL    HW264339   6.362   3.302  11.256
54148SOL     OW64340   4.649   8.646   8.071
54148SOL    HW164341   4.564   8.612   8.101
54148SOL    HW264342   4.705   8.569   8.066
54149SOL     OW64343  13.319   8.929   7.037
54149SOL    HW164344  13.358   8.906   6.952
54149SOL    HW264345  13.345   9.020   7.051
54150SOL     OW64346  13.481  12.103   2.415
54150SOL    HW164347  13.569  12.129   2.386
54150SOL    HW264348  13.468  12.017   2.375
54151SOL     OW64349   5.661  12.505   2.242
54151SOL    HW164350   5.723  12.441   2.206
54151SOL    HW264351   5.701  12.590   2.222
54152SOL     OW64352   6.672  13.818   7.100
54152SOL    HW164353   6.600  13.783   7.153
54152SOL    HW264354   6.652  13.789   7.011
54153SOL     OW64355   4.634  12.601   5.301
54153SOL    HW164356   4.638  12.518   5.349
54153SOL    HW264357   4.547  12.601   5.261
54154SOL     OW64358   6.286  13.179   2.306
54154SOL    HW164359   6.202  13.143   2.337
54154SOL    HW264360   6.342  13.102   2.296
54155SOL     OW64361   2.413   1.782  14.660
54155SOL    HW164362   2.461   1.702  14.642
54155SOL    HW264363   2.478   1.842  14.697
54156SOL     OW64364  11.382   1.678   7.033
54156SOL    HW164365  11.312   1.657   7.095
54156SOL    HW264366  11.459   1.692   7.087
54157SOL     OW64367   5.403   9.001   9.452
54157SOL    HW164368   5.406   8.925   9.394
54157SOL    HW264369   5.380   8.966   9.537
54158SOL     OW64370  12.440  14.122  13.047
54158SOL    HW164371  12.397  14.063  12.986
54158SOL    HW264372  12.441  14.074  13.130
54159SOL     OW64373   8.803   9.347  10.416
54159SOL    HW164374   8.875   9.331  10.476
54159SOL    HW264375   8.763   9.261  10.402
54160SOL     OW64376  12.414   3.847   1.276
54160SOL    HW164377  12.407   3.942   1.279
54160SOL    HW264378  12.419   3.826   1.183
54161SOL     OW64379  14.457  13.505   2.281
54161SOL    HW164380  14.475  13.539   2.194
54161SOL    HW264381  14.516  13.552   2.339
54162SOL     OW64382   3.268  14.873  13.669
54162SOL    HW164383   3.312   0.024  13.590
54162SOL    HW264384   3.237   0.072  13.712
54163SOL     OW64385  12.594   8.407   7.577
54163SOL    HW164386  12.566   8.316   7.572
54163SOL    HW264387  12.626   8.427   7.489
54164SOL     OW64388  14.247   2.544   0.944
54164SOL    HW164389  14.206   2.629   0.957
54164SOL    HW264390  14.176   2.481   0.957
54165SOL     OW64391   3.335   3.709  11.542
54165SOL    HW164392   3.430   3.720  11.548
54165SOL    HW264393   3.324   3.629  11.490
54166SOL     OW64394  13.625   6.780  11.420
54166SOL    HW164395  13.566   6.776  11.495
54166SOL    HW264396  13.569   6.771  11.344
54167SOL     OW64397  11.768  11.404   1.764
54167SOL    HW164398  11.701  11.425   1.828
54167SOL    HW264399  11.733  11.437   1.681
54168SOL     OW64400  13.883   0.200   1.207
54168SOL    HW164401  13.904   0.233   1.120
54168SOL    HW264402  13.821   0.263   1.243
54169SOL     OW64403   2.626   6.898   0.307
54169SOL    HW164404   2.682   6.820   0.313
54169SOL    HW264405   2.574   6.896   0.387
54170SOL     OW64406  13.933   8.950  14.731
54170SOL    HW164407  13.955   8.996  14.650
54170SOL    HW264408  13.856   8.995  14.765
54171SOL     OW64409   0.336   9.827   1.115
54171SOL    HW164410   0.301   9.844   1.028
54171SOL    HW264411   0.302   9.740   1.138
54172SOL     OW64412  14.549  12.610   7.069
54172SOL    HW164413  14.551  12.515   7.078
54172SOL    HW264414  14.609  12.627   6.996
54173SOL     OW64415   5.399  14.113   8.884
54173SOL    HW164416   5.351  14.055   8.943
54173SOL    HW264417   5.347  14.193   8.880
54174SOL     OW64418   4.776   1.646   1.462
54174SOL    HW164419   4.708   1.709   1.437
54174SOL    HW264420   4.855   1.678   1.418
54175SOL     OW64421  10.799   1.153  11.263
54175SOL    HW164422  10.837   1.066  11.274
54175SOL    HW264423  10.749   1.167  11.344
54176SOL     OW64424   1.989  14.069   7.402
54176SOL    HW164425   1.951  14.065   7.490
54176SOL    HW264426   2.009  14.162   7.389
54177SOL     OW64427   8.853   2.240   0.589
54177SOL    HW164428   8.765   2.205   0.578
54177SOL    HW264429   8.840   2.329   0.622
54178SOL     OW64430   1.268   3.112   4.176
54178SOL    HW164431   1.310   3.150   4.099
54178SOL    HW264432   1.338   3.062   4.219
54179SOL     OW64433   0.453   6.625   6.291
54179SOL    HW164434   0.367   6.596   6.260
54179SOL    HW264435   0.463   6.712   6.253
54180SOL     OW64436   5.109  10.872   1.959
54180SOL    HW164437   5.068  10.854   1.874
54180SOL    HW264438   5.202  10.855   1.945
54181SOL     OW64439   4.733  14.069   2.884
54181SOL    HW164440   4.687  14.143   2.923
54181SOL    HW264441   4.706  13.993   2.936
54182SOL     OW64442  11.397   1.808   6.026
54182SOL    HW164443  11.352   1.886   5.993
54182SOL    HW264444  11.368   1.802   6.118
54183SOL     OW64445   9.206   2.323   6.416
54183SOL    HW164446   9.173   2.399   6.368
54183SOL    HW264447   9.160   2.327   6.500
54184SOL     OW64448   5.757   1.512  11.006
54184SOL    HW164449   5.685   1.466  10.963
54184SOL    HW264450   5.774   1.588  10.951
54185SOL     OW64451   2.741  10.980   9.789
54185SOL    HW164452   2.754  10.889   9.761
54185SOL    HW264453   2.828  11.008   9.818
54186SOL     OW64454  13.679   4.450   5.559
54186SOL    HW164455  13.645   4.523   5.610
54186SOL    HW264456  13.732   4.400   5.620
54187SOL     OW64457   0.114   0.788   9.730
54187SOL    HW164458   0.147   0.751   9.812
54187SOL    HW264459   0.120   0.883   9.743
54188SOL     OW64460   2.856   3.196   3.190
54188SOL    HW164461   2.796   3.271   3.183
54188SOL    HW264462   2.932   3.222   3.138
54189SOL     OW64463   6.597   0.629   1.485
54189SOL    HW164464   6.657   0.565   1.521
54189SOL    HW264465   6.594   0.610   1.391
54190SOL     OW64466   2.656   2.420   0.939
54190SOL    HW164467   2.742   2.390   0.911
54190SOL    HW264468   2.609   2.340   0.963
54191SOL     OW64469   7.872   0.900   7.911
54191SOL    HW164470   7.884   0.821   7.858
54191SOL    HW264471   7.929   0.886   7.987
54192SOL     OW64472   8.573  10.750   7.995
54192SOL    HW164473   8.574  10.719   8.086
54192SOL    HW264474   8.564  10.670   7.943
54193SOL     OW64475   9.719   6.902   5.511
54193SOL    HW164476   9.732   6.850   5.590
54193SOL    HW264477   9.712   6.993   5.542
54194SOL     OW64478  13.887  13.017   7.360
54194SOL    HW164479  13.977  12.991   7.344
54194SOL    HW264480  13.854  13.044   7.274
54195SOL     OW64481   4.028  12.153   1.970
54195SOL    HW164482   3.995  12.082   2.026
54195SOL    HW264483   4.120  12.163   1.997
54196SOL     OW64484  13.630   8.034  10.228
54196SOL    HW164485  13.653   7.965  10.165
54196SOL    HW264486  13.710   8.048  10.278
54197SOL     OW64487  14.731  11.307  10.402
54197SOL    HW164488  14.661  11.367  10.428
54197SOL    HW264489  14.686  11.228  10.373
54198SOL     OW64490  13.788  10.193   3.864
54198SOL    HW164491  13.693  10.190   3.859
54198SOL    HW264492  13.818  10.190   3.773
54199SOL     OW64493   9.126   6.727  10.040
54199SOL    HW164494   9.031   6.714  10.038
54199SOL    HW264495   9.158   6.661  10.101
54200SOL     OW64496   5.471   3.683   1.965
54200SOL    HW164497   5.549   3.657   1.917
54200SOL    HW264498   5.502   3.748   2.028
54201SOL     OW64499   9.361   0.191  14.775
54201SOL    HW164500   9.392   0.121  14.832
54201SOL    HW264501   9.418   0.187  14.698
54202SOL     OW64502   7.659  11.989  14.410
54202SOL    HW164503   7.647  12.073  14.366
54202SOL    HW264504   7.580  11.940  14.392
54203SOL     OW64505  11.072   5.652   5.587
54203SOL    HW164506  10.993   5.660   5.642
54203SOL    HW264507  11.138   5.703   5.633
54204SOL     OW64508  12.494   0.736   9.971
54204SOL    HW164509  12.405   0.760   9.997
54204SOL    HW264510  12.547   0.755  10.048
54205SOL     OW64511   6.115   9.033   5.228
54205SOL    HW164512   6.107   8.963   5.163
54205SOL    HW264513   6.093   8.990   5.311
54206SOL     OW64514  10.946  12.006   0.900
54206SOL    HW164515  10.993  12.068   0.845
54206SOL    HW264516  10.983  12.020   0.988
54207SOL     OW64517  14.669   3.285   9.314
54207SOL    HW164518  14.574   3.289   9.326
54207SOL    HW264519  14.701   3.366   9.354
54208SOL     OW64520   3.576   5.502   6.434
54208SOL    HW164521   3.544   5.539   6.516
54208SOL    HW264522   3.609   5.576   6.384
54209SOL     OW64523  11.738  10.673   1.512
54209SOL    HW164524  11.668  10.613   1.488
54209SOL    HW264525  11.706  10.718   1.591
54210SOL     OW64526   1.298   4.656   7.987
54210SOL    HW164527   1.304   4.751   7.984
54210SOL    HW264528   1.219   4.638   8.037
54211SOL     OW64529  11.581   5.489   4.944
54211SOL    HW164530  11.584   5.407   4.894
54211SOL    HW264531  11.488   5.509   4.952
54212SOL     OW64532   9.153   5.409  14.251
54212SOL    HW164533   9.205   5.478  14.211
54212SOL    HW264534   9.099   5.454  14.316
54213SOL     OW64535  14.805   7.022  12.054
54213SOL    HW164536  14.844   7.091  12.107
54213SOL    HW264537  14.877   6.962  12.035
54214SOL     OW64538  10.448   3.531  11.481
54214SOL    HW164539  10.501   3.504  11.556
54214SOL    HW264540  10.473   3.471  11.411
54215SOL     OW64541  13.829   5.561  13.637
54215SOL    HW164542  13.834   5.465  13.640
54215SOL    HW264543  13.742   5.579  13.601
54216SOL     OW64544   9.905   0.506   0.113
54216SOL    HW164545   9.865   0.472   0.033
54216SOL    HW264546   9.864   0.591   0.126
54217SOL     OW64547  14.027   2.510   9.233
54217SOL    HW164548  14.115   2.490   9.266
54217SOL    HW264549  13.968   2.465   9.293
54218SOL     OW64550  11.491   2.268  12.822
54218SOL    HW164551  11.575   2.300  12.856
54218SOL    HW264552  11.460   2.339  12.765
54219SOL     OW64553  10.276   4.203   2.339
54219SOL    HW164554  10.210   4.256   2.384
54219SOL    HW264555  10.242   4.193   2.250
54220SOL     OW64556   9.701   7.642   4.754
54220SOL    HW164557   9.636   7.711   4.768
54220SOL    HW264558   9.650   7.565   4.730
54221SOL     OW64559   2.636   6.570   9.748
54221SOL    HW164560   2.661   6.634   9.681
54221SOL    HW264561   2.710   6.509   9.751
54222SOL     OW64562   2.256  11.299   1.542
54222SOL    HW164563   2.230  11.220   1.588
54222SOL    HW264564   2.349  11.286   1.522
54223SOL     OW64565   1.600   9.551  12.846
54223SOL    HW164566   1.683   9.586  12.813
54223SOL    HW264567   1.534   9.582  12.784
54224SOL     OW64568   6.827   2.563   1.225
54224SOL    HW164569   6.807   2.478   1.186
54224SOL    HW264570   6.857   2.543   1.314
54225SOL     OW64571  10.540  11.150  13.012
54225SOL    HW164572  10.460  11.145  12.961
54225SOL    HW264573  10.534  11.232  13.060
54226SOL     OW64574   8.554   1.021   3.742
54226SOL    HW164575   8.557   1.098   3.685
54226SOL    HW264576   8.634   0.973   3.720
54227SOL     OW64577   4.543  13.212   1.722
54227SOL    HW164578   4.606  13.235   1.654
54227SOL    HW264579   4.470  13.172   1.675
54228SOL     OW64580   7.333   0.248   0.020
54228SOL    HW164581   7.304   0.199  14.824
54228SOL    HW264582   7.415   0.207   0.045
54229SOL     OW64583   8.990   7.847  14.034
54229SOL    HW164584   8.915   7.850  13.975
54229SOL    HW264585   9.040   7.925  14.012
54230SOL     OW64586   7.314   6.539  11.086
54230SOL    HW164587   7.275   6.480  11.151
54230SOL    HW264588   7.405   6.549  11.116
54231SOL     OW64589   4.174  10.574  11.582
54231SOL    HW164590   4.194  10.667  11.585
54231SOL    HW264591   4.232  10.535  11.647
54232SOL     OW64592   2.244  11.228   7.047
54232SOL    HW164593   2.254  11.200   6.956
54232SOL    HW264594   2.297  11.307   7.053
54233SOL     OW64595   5.526  12.375  14.400
54233SOL    HW164596   5.498  12.455  14.355
54233SOL    HW264597   5.450  12.349  14.452
54234SOL     OW64598   0.848   4.936  10.604
54234SOL    HW164599   0.792   4.861  10.584
54234SOL    HW264600   0.862   4.979  10.519
54235SOL     OW64601   3.565   2.300  14.219
54235SOL    HW164602   3.519   2.379  14.246
54235SOL    HW264603   3.578   2.250  14.299
54236SOL     OW64604   6.378   5.855  13.708
54236SOL    HW164605   6.327   5.860  13.789
54236SOL    HW264606   6.385   5.761  13.690
54237SOL     OW64607   6.549  14.696   4.337
54237SOL    HW164608   6.567  14.665   4.425
54237SOL    HW264609   6.624  14.669   4.285
54238SOL     OW64610  11.960   1.395   9.580
54238SOL    HW164611  11.885   1.375   9.637
54238SOL    HW264612  11.934   1.474   9.533
54239SOL     OW64613   0.763  13.848   6.872
54239SOL    HW164614   0.757  13.754   6.884
54239SOL    HW264615   0.821  13.877   6.943
54240SOL     OW64616   8.369   4.386   7.357
54240SOL    HW164617   8.274   4.393   7.347
54240SOL    HW264618   8.404   4.407   7.270
54241SOL     OW64619   7.389   0.255  11.767
54241SOL    HW164620   7.437   0.178  11.799
54241SOL    HW264621   7.307   0.254  11.815
54242SOL     OW64622   6.497   6.833   1.919
54242SOL    HW164623   6.494   6.738   1.923
54242SOL    HW264624   6.568   6.858   1.978
54243SOL     OW64625   3.131  14.192   9.224
54243SOL    HW164626   3.207  14.250   9.215
54243SOL    HW264627   3.105  14.200   9.316
54244SOL     OW64628   2.295   1.299   2.170
54244SOL    HW164629   2.265   1.389   2.185
54244SOL    HW264630   2.390   1.304   2.178
54245SOL     OW64631   3.273  14.495  14.619
54245SOL    HW164632   3.259  14.562  14.552
54245SOL    HW264633   3.358  14.457  14.596
54246SOL     OW64634   8.642  10.377   5.238
54246SOL    HW164635   8.697  10.383   5.316
54246SOL    HW264636   8.660  10.290   5.202
54247SOL     OW64637  13.802  11.114   7.363
54247SOL    HW164638  13.748  11.172   7.416
54247SOL    HW264639  13.755  11.031   7.361
54248SOL     OW64640   4.931  10.916   9.379
54248SOL    HW164641   4.845  10.910   9.421
54248SOL    HW264642   4.991  10.871   9.439
54249SOL     OW64643   0.749  10.179  12.782
54249SOL    HW164644   0.787  10.253  12.734
54249SOL    HW264645   0.821  10.116  12.789
54250SOL     OW64646  12.835   4.793  12.039
54250SOL    HW164647  12.834   4.846  11.960
54250SOL    HW264648  12.925   4.762  12.046
54251SOL     OW64649   4.029   2.141   0.813
54251SOL    HW164650   4.048   2.048   0.826
54251SOL    HW264651   4.082   2.167   0.738
54252SOL     OW64652   0.554   8.851   6.048
54252SOL    HW164653   0.593   8.936   6.028
54252SOL    HW264654   0.570   8.839   6.142
54253SOL     OW64655  13.252   5.417   8.589
54253SOL    HW164656  13.278   5.329   8.562
54253SOL    HW264657  13.282   5.424   8.680
54254SOL     OW64658  13.297   0.551   1.589
54254SOL    HW164659  13.378   0.571   1.637
54254SOL    HW264660  13.258   0.636   1.570
54255SOL     OW64661   9.009   2.231   0.327
54255SOL    HW164662   9.101   2.209   0.338
54255SOL    HW264663   8.979   2.254   0.415
54256SOL     OW64664   3.824   7.781   6.612
54256SOL    HW164665   3.729   7.774   6.620
54256SOL    HW264666   3.858   7.747   6.695
54257SOL     OW64667  14.875   5.210  14.057
54257SOL    HW164668   0.065   5.181  14.115
54257SOL    HW264669  14.796   5.169  14.092
54258SOL     OW64670   0.677   1.888   4.929
54258SOL    HW164671   0.604   1.879   4.868
54258SOL    HW264672   0.678   1.806   4.977
54259SOL     OW64673  12.735   3.812   2.028
54259SOL    HW164674  12.765   3.737   1.977
54259SOL    HW264675  12.677   3.859   1.968
54260SOL     OW64676  13.407   5.733  14.044
54260SOL    HW164677  13.348   5.680  14.098
54260SOL    HW264678  13.493   5.693  14.057
54261SOL     OW64679   9.248  13.265   8.865
54261SOL    HW164680   9.281  13.287   8.952
54261SOL    HW264681   9.155  13.245   8.880
54262SOL     OW64682  10.390  11.980   1.227
54262SOL    HW164683  10.355  11.908   1.279
54262SOL    HW264684  10.447  12.027   1.286
54263SOL     OW64685  12.524   4.499   3.154
54263SOL    HW164686  12.570   4.501   3.238
54263SOL    HW264687  12.577   4.552   3.095
54264SOL     OW64688   4.863  14.381  12.682
54264SOL    HW164689   4.888  14.290  12.697
54264SOL    HW264690   4.774  14.387  12.715
54265SOL     OW64691  11.688  12.730   7.762
54265SOL    HW164692  11.720  12.743   7.673
54265SOL    HW264693  11.612  12.787   7.769
54266SOL     OW64694   8.607   3.395  14.252
54266SOL    HW164695   8.591   3.390  14.346
54266SOL    HW264696   8.691   3.350  14.240
54267SOL     OW64697   3.573   8.103   4.210
54267SOL    HW164698   3.633   8.145   4.272
54267SOL    HW264699   3.615   8.019   4.190
54268SOL     OW64700   1.656   3.152   5.143
54268SOL    HW164701   1.718   3.145   5.215
54268SOL    HW264702   1.582   3.098   5.169
54269SOL     OW64703  10.779   3.852   6.308
54269SOL    HW164704  10.814   3.939   6.329
54269SOL    HW264705  10.685   3.866   6.296
54270SOL     OW64706   8.328   6.683  10.924
54270SOL    HW164707   8.396   6.684  10.856
54270SOL    HW264708   8.251   6.646  10.881
54271SOL     OW64709   0.208  10.290   2.435
54271SOL    HW164710   0.187  10.349   2.363
54271SOL    HW264711   0.213  10.203   2.394
54272SOL     OW64712   5.279   2.240  14.151
54272SOL    HW164713   5.338   2.263  14.223
54272SOL    HW264714   5.191   2.258  14.184
54273SOL     OW64715  13.304   7.503   4.613
54273SOL    HW164716  13.347   7.533   4.533
54273SOL    HW264717  13.376   7.482   4.672
54274SOL     OW64718   1.047   4.657   9.120
54274SOL    HW164719   1.041   4.708   9.039
54274SOL    HW264720   1.120   4.597   9.105
54275SOL     OW64721  12.414   6.177   1.547
54275SOL    HW164722  12.375   6.231   1.478
54275SOL    HW264723  12.340   6.155   1.604
54276SOL     OW64724   6.705   7.998   6.649
54276SOL    HW164725   6.640   7.982   6.580
54276SOL    HW264726   6.681   7.938   6.719
54277SOL     OW64727  12.809   4.683   6.009
54277SOL    HW164728  12.781   4.722   5.926
54277SOL    HW264729  12.832   4.593   5.986
54278SOL     OW64730   9.280   9.259   3.514
54278SOL    HW164731   9.195   9.246   3.556
54278SOL    HW264732   9.280   9.197   3.441
54279SOL     OW64733   6.940   2.925   0.184
54279SOL    HW164734   6.913   2.839   0.153
54279SOL    HW264735   6.929   2.921   0.279
54280SOL     OW64736   6.193   2.169  12.997
54280SOL    HW164737   6.249   2.138  13.068
54280SOL    HW264738   6.107   2.133  13.016
54281SOL     OW64739   7.102  12.725   9.319
54281SOL    HW164740   7.190  12.689   9.312
54281SOL    HW264741   7.103  12.800   9.259
54282SOL     OW64742  12.233  12.472   7.341
54282SOL    HW164743  12.235  12.493   7.248
54282SOL    HW264744  12.207  12.381   7.345
54283SOL     OW64745   9.110   2.264   2.555
54283SOL    HW164746   9.082   2.206   2.484
54283SOL    HW264747   9.187   2.310   2.520
54284SOL     OW64748  11.734   2.681  14.321
54284SOL    HW164749  11.697   2.685  14.409
54284SOL    HW264750  11.658   2.673  14.263
54285SOL     OW64751   0.263  10.245   0.870
54285SOL    HW164752   0.235  10.237   0.961
54285SOL    HW264753   0.244  10.336   0.847
54286SOL     OW64754  11.394   5.547   6.130
54286SOL    HW164755  11.344   5.586   6.201
54286SOL    HW264756  11.485   5.570   6.149
54287SOL     OW64757   7.843   1.496   6.149
54287SOL    HW164758   7.911   1.557   6.122
54287SOL    HW264759   7.770   1.514   6.091
54288SOL     OW64760   8.043  10.355   9.966
54288SOL    HW164761   7.992  10.435   9.966
54288SOL    HW264762   8.054  10.333  10.058
54289SOL     OW64763   5.584   0.453   6.623
54289SOL    HW164764   5.508   0.504   6.648
54289SOL    HW264765   5.659   0.504   6.655
54290SOL     OW64766  13.861   9.090  12.985
54290SOL    HW164767  13.940   9.112  13.034
54290SOL    HW264768  13.893   9.056  12.902
54291SOL     OW64769   2.240  12.135   2.078
54291SOL    HW164770   2.146  12.154   2.078
54291SOL    HW264771   2.245  12.043   2.052
54292SOL     OW64772   5.492  14.846   7.359
54292SOL    HW164773   5.478  14.843   7.265
54292SOL    HW264774   5.580   0.002   7.369
54293SOL     OW64775   6.858   6.241  12.659
54293SOL    HW164776   6.892   6.209  12.576
54293SOL    HW264777   6.916   6.314  12.682
54294SOL     OW64778   6.360   6.261   3.915
54294SOL    HW164779   6.449   6.297   3.919
54294SOL    HW264780   6.316   6.313   3.848
54295SOL     OW64781  13.401  12.667   2.794
54295SOL    HW164782  13.439  12.665   2.707
54295SOL    HW264783  13.405  12.577   2.825
54296SOL     OW64784  11.699   2.109   4.535
54296SOL    HW164785  11.655   2.138   4.614
54296SOL    HW264786  11.773   2.057   4.566
54297SOL     OW64787   1.770   3.377   7.840
54297SOL    HW164788   1.816   3.454   7.807
54297SOL    HW264789   1.803   3.305   7.788
54298SOL     OW64790   6.558   8.076   8.249
54298SOL    HW164791   6.520   8.075   8.337
54298SOL    HW264792   6.483   8.087   8.191
54299SOL     OW64793   3.427  12.087  10.364
54299SOL    HW164794   3.496  12.063  10.302
54299SOL    HW264795   3.346  12.056  10.323
54300SOL     OW64796   7.505  14.189   9.348
54300SOL    HW164797   7.474  14.148   9.429
54300SOL    HW264798   7.534  14.276   9.376
54301SOL     OW64799  10.135   7.315   5.658
54301SOL    HW164800  10.185   7.345   5.734
54301SOL    HW264801  10.145   7.386   5.594
54302SOL     OW64802  14.636   8.204   5.630
54302SOL    HW164803  14.553   8.162   5.653
54302SOL    HW264804  14.632   8.290   5.672
54303SOL     OW64805   0.335   6.184   9.793
54303SOL    HW164806   0.271   6.121   9.827
54303SOL    HW264807   0.416   6.162   9.840
54304SOL     OW64808  14.131  10.812  10.791
54304SOL    HW164809  14.170  10.859  10.865
54304SOL    HW264810  14.074  10.875  10.749
54305SOL     OW64811  11.622   4.440   5.761
54305SOL    HW164812  11.681   4.383   5.712
54305SOL    HW264813  11.632   4.526   5.719
54306SOL     OW64814   8.028   7.339  10.739
54306SOL    HW164815   7.956   7.347  10.801
54306SOL    HW264816   8.098   7.298  10.789
54307SOL     OW64817   7.688   4.595   8.722
54307SOL    HW164818   7.779   4.585   8.752
54307SOL    HW264819   7.636   4.593   8.802
54308SOL     OW64820   3.785   0.795   6.756
54308SOL    HW164821   3.845   0.753   6.818
54308SOL    HW264822   3.700   0.790   6.798
54309SOL     OW64823  13.262  12.566   5.740
54309SOL    HW164824  13.285  12.638   5.798
54309SOL    HW264825  13.270  12.488   5.795
54310SOL     OW64826  12.792  12.450  10.118
54310SOL    HW164827  12.840  12.368  10.107
54310SOL    HW264828  12.727  12.449  10.047
54311SOL     OW64829  10.384   0.918   5.379
54311SOL    HW164830  10.387   0.974   5.302
54311SOL    HW264831  10.456   0.949   5.434
54312SOL     OW64832   4.611  12.704   4.417
54312SOL    HW164833   4.582  12.709   4.326
54312SOL    HW264834   4.628  12.611   4.432
54313SOL     OW64835  12.590   9.185  13.575
54313SOL    HW164836  12.594   9.122  13.646
54313SOL    HW264837  12.603   9.132  13.496
54314SOL     OW64838   7.585  11.542   6.776
54314SOL    HW164839   7.568  11.614   6.716
54314SOL    HW264840   7.554  11.464   6.730
54315SOL     OW64841   5.957   3.829   9.603
54315SOL    HW164842   5.906   3.749   9.594
54315SOL    HW264843   6.002   3.839   9.519
54316SOL     OW64844  13.648   5.761  11.814
54316SOL    HW164845  13.578   5.810  11.770
54316SOL    HW264846  13.676   5.697  11.748
54317SOL     OW64847   5.298   2.756   9.117
54317SOL    HW164848   5.233   2.744   9.186
54317SOL    HW264849   5.382   2.741   9.160
54318SOL     OW64850   1.492   7.310  11.230
54318SOL    HW164851   1.412   7.301  11.177
54318SOL    HW264852   1.469   7.374  11.297
54319SOL     OW64853   0.355  13.604   9.341
54319SOL    HW164854   0.265  13.627   9.368
54319SOL    HW264855   0.352  13.603   9.246
54320SOL     OW64856   1.691   2.590  12.478
54320SOL    HW164857   1.670   2.621  12.391
54320SOL    HW264858   1.636   2.642  12.537
54321SOL     OW64859   4.000   2.052   3.950
54321SOL    HW164860   3.927   2.114   3.952
54321SOL    HW264861   4.017   2.033   4.042
54322SOL     OW64862  13.308   0.633   4.036
54322SOL    HW164863  13.308   0.697   3.965
54322SOL    HW264864  13.315   0.548   3.991
54323SOL     OW64865   2.439  10.253  12.687
54323SOL    HW164866   2.529  10.233  12.712
54323SOL    HW264867   2.445  10.338  12.642
54324SOL     OW64868   9.659   6.949   8.669
54324SOL    HW164869   9.705   6.945   8.585
54324SOL    HW264870   9.729   6.955   8.734
54325SOL     OW64871  12.838   4.895   5.111
54325SOL    HW164872  12.917   4.856   5.075
54325SOL    HW264873  12.820   4.970   5.054
54326SOL     OW64874   4.594  11.586  11.033
54326SOL    HW164875   4.564  11.586  10.942
54326SOL    HW264876   4.687  11.606  11.027
54327SOL     OW64877  11.909   9.500  12.606
54327SOL    HW164878  11.994   9.464  12.632
54327SOL    HW264879  11.913   9.505  12.510
54328SOL     OW64880  11.190   7.963  13.375
54328SOL    HW164881  11.103   7.993  13.347
54328SOL    HW264882  11.251   8.023  13.334
54329SOL     OW64883   7.243   5.162  13.150
54329SOL    HW164884   7.248   5.190  13.242
54329SOL    HW264885   7.229   5.243  13.101
54330SOL     OW64886  12.469  12.947   5.353
54330SOL    HW164887  12.424  12.995   5.284
54330SOL    HW264888  12.429  12.978   5.434
54331SOL     OW64889  13.919   2.771   9.332
54331SOL    HW164890  13.855   2.736   9.393
54331SOL    HW264891  13.973   2.695   9.308
54332SOL     OW64892   7.743   8.294   8.918
54332SOL    HW164893   7.712   8.288   9.008
54332SOL    HW264894   7.740   8.204   8.885
54333SOL     OW64895  11.029   3.702   4.018
54333SOL    HW164896  10.951   3.754   4.037
54333SOL    HW264897  11.036   3.640   4.091
54334SOL     OW64898   8.524  14.866   1.095
54334SOL    HW164899   8.577  14.855   1.016
54334SOL    HW264900   8.536  14.784   1.143
54335SOL     OW64901   1.035   0.312   5.973
54335SOL    HW164902   1.019   0.399   6.010
54335SOL    HW264903   1.092   0.269   6.037
54336SOL     OW64904   3.982   3.623   8.015
54336SOL    HW164905   3.999   3.529   8.009
54336SOL    HW264906   3.903   3.637   7.963
54337SOL     OW64907  13.182  10.430  13.338
54337SOL    HW164908  13.230  10.471  13.410
54337SOL    HW264909  13.244  10.367  13.301
54338SOL     OW64910   7.884   8.260  13.761
54338SOL    HW164911   7.820   8.190  13.746
54338SOL    HW264912   7.860   8.296  13.847
54339SOL     OW64913   7.460  12.782   4.444
54339SOL    HW164914   7.540  12.830   4.423
54339SOL    HW264915   7.428  12.823   4.525
54340SOL     OW64916   6.201   6.154   8.032
54340SOL    HW164917   6.146   6.217   8.079
54340SOL    HW264918   6.259   6.208   7.979
54341SOL     OW64919   7.122   3.321   7.403
54341SOL    HW164920   7.215   3.338   7.392
54341SOL    HW264921   7.100   3.260   7.332
54342SOL     OW64922   6.584  10.142  13.082
54342SOL    HW164923   6.657  10.178  13.032
54342SOL    HW264924   6.547  10.217  13.128
54343SOL     OW64925   7.622  10.869   4.186
54343SOL    HW164926   7.694  10.838   4.241
54343SOL    HW264927   7.657  10.948   4.145
54344SOL     OW64928   9.370   2.868   8.617
54344SOL    HW164929   9.397   2.786   8.575
54344SOL    HW264930   9.450   2.902   8.658
54345SOL     OW64931   6.104  12.639  14.582
54345SOL    HW164932   6.059  12.562  14.548
54345SOL    HW264933   6.120  12.619  14.674
54346SOL     OW64934   0.457  10.622  11.450
54346SOL    HW164935   0.418  10.709  11.454
54346SOL    HW264936   0.511  10.623  11.371
54347SOL     OW64937   4.411   8.527  14.601
54347SOL    HW164938   4.358   8.450  14.578
54347SOL    HW264939   4.487   8.490  14.647
54348SOL     OW64940   4.404  12.490   8.047
54348SOL    HW164941   4.340  12.532   7.989
54348SOL    HW264942   4.351  12.431   8.101
54349SOL     OW64943   8.982   0.471   1.162
54349SOL    HW164944   9.006   0.383   1.133
54349SOL    HW264945   8.975   0.521   1.081
54350SOL     OW64946   4.406   7.572   1.803
54350SOL    HW164947   4.393   7.481   1.778
54350SOL    HW264948   4.491   7.573   1.847
54351SOL     OW64949  14.445   1.864  10.884
54351SOL    HW164950  14.440   1.870  10.980
54351SOL    HW264951  14.407   1.947  10.853
54352SOL     OW64952   0.722   6.750   8.288
54352SOL    HW164953   0.712   6.771   8.195
54352SOL    HW264954   0.810   6.713   8.296
54353SOL     OW64955   0.371  14.267   3.214
54353SOL    HW164956   0.346  14.240   3.126
54353SOL    HW264957   0.389  14.185   3.260
54354SOL     OW64958   3.627   9.191   6.780
54354SOL    HW164959   3.577   9.140   6.844
54354SOL    HW264960   3.716   9.194   6.815
54355SOL     OW64961   9.695   1.612   3.534
54355SOL    HW164962   9.609   1.642   3.562
54355SOL    HW264963   9.688   1.517   3.530
54356SOL     OW64964  14.190   0.276   1.439
54356SOL    HW164965  14.250   0.309   1.505
54356SOL    HW264966  14.144   0.203   1.481
54357SOL     OW64967   9.474  13.712  13.375
54357SOL    HW164968   9.394  13.764  13.366
54357SOL    HW264969   9.544  13.777  13.375
54358SOL     OW64970   6.615   9.752   5.842
54358SOL    HW164971   6.623   9.718   5.753
54358SOL    HW264972   6.523   9.778   5.850
54359SOL     OW64973  10.015   7.205  11.925
54359SOL    HW164974   9.971   7.135  11.974
54359SOL    HW264975  10.046   7.266  11.992
54360SOL     OW64976  10.098  10.486  10.507
54360SOL    HW164977  10.186  10.463  10.535
54360SOL    HW264978  10.062  10.406  10.470
54361SOL     OW64979  10.103   5.286  12.080
54361SOL    HW164980  10.146   5.202  12.067
54361SOL    HW264981  10.173   5.350  12.076
54362SOL     OW64982  12.654   6.182  13.915
54362SOL    HW164983  12.699   6.139  13.842
54362SOL    HW264984  12.707   6.259  13.933
54363SOL     OW64985  14.227   2.618  11.712
54363SOL    HW164986  14.191   2.569  11.639
54363SOL    HW264987  14.161   2.685  11.731
54364SOL     OW64988   9.373  14.074   9.422
54364SOL    HW164989   9.393  14.014   9.494
54364SOL    HW264990   9.328  14.147   9.463
54365SOL     OW64991  14.474  14.471   7.443
54365SOL    HW164992  14.533  14.396   7.453
54365SOL    HW264993  14.396  14.447   7.493
54366SOL     OW64994   8.206   7.199   1.768
54366SOL    HW164995   8.246   7.134   1.709
54366SOL    HW264996   8.168   7.264   1.710
54367SOL     OW64997  11.393  12.885   9.928
54367SOL    HW164998  11.343  12.804   9.939
54367SOL    HW264999  11.420  12.908  10.017
54368SOL     OW65000   0.822  11.035  14.690
54368SOL    HW165001   0.779  10.965  14.642
54368SOL    HW265002   0.751  11.084  14.732
54369SOL     OW65003  12.522   5.120   7.628
54369SOL    HW165004  12.584   5.191   7.612
54369SOL    HW265005  12.523   5.069   7.547
54370SOL     OW65006   7.824  14.115   5.388
54370SOL    HW165007   7.875  14.070   5.455
54370SOL    HW265008   7.740  14.134   5.430
54371SOL     OW65009  13.791   4.801  14.026
54371SOL    HW165010  13.771   4.710  14.044
54371SOL    HW265011  13.887   4.807  14.033
54372SOL     OW65012   7.463   7.624   8.131
54372SOL    HW165013   7.549   7.614   8.089
54372SOL    HW265014   7.432   7.534   8.143
54373SOL     OW65015  10.186   5.662   6.282
54373SOL    HW165016  10.187   5.624   6.370
54373SOL    HW265017  10.095   5.657   6.255
54374SOL     OW65018   6.280   4.711   7.759
54374SOL    HW165019   6.284   4.654   7.837
54374SOL    HW265020   6.259   4.651   7.687
54375SOL     OW65021   8.175   4.413   4.873
54375SOL    HW165022   8.091   4.413   4.920
54375SOL    HW265023   8.182   4.325   4.836
54376SOL     OW65024   3.835  10.518   2.397
54376SOL    HW165025   3.892  10.508   2.321
54376SOL    HW265026   3.749  10.489   2.367
54377SOL     OW65027  12.872   8.005   1.067
54377SOL    HW165028  12.793   8.004   1.013
54377SOL    HW265029  12.872   8.093   1.106
54378SOL     OW65030  12.416   8.452   6.315
54378SOL    HW165031  12.336   8.503   6.299
54378SOL    HW265032  12.467   8.507   6.375
54379SOL     OW65033   4.401  10.172  11.003
54379SOL    HW165034   4.461  10.150  10.931
54379SOL    HW265035   4.363  10.256  10.977
54380SOL     OW65036   5.985   8.628  13.878
54380SOL    HW165037   5.897   8.628  13.914
54380SOL    HW265038   6.042   8.623  13.955
54381SOL     OW65039   8.067  13.885  13.089
54381SOL    HW165040   8.120  13.949  13.043
54381SOL    HW265041   8.130  13.835  13.142
54382SOL     OW65042   5.533   7.124  14.658
54382SOL    HW165043   5.532   7.057  14.590
54382SOL    HW265044   5.559   7.078  14.738
54383SOL     OW65045   8.037   0.452  10.463
54383SOL    HW165046   8.066   0.542  10.475
54383SOL    HW265047   7.944   0.453  10.489
54384SOL     OW65048   4.800  11.629   4.718
54384SOL    HW165049   4.840  11.697   4.773
54384SOL    HW265050   4.729  11.674   4.673
54385SOL     OW65051  13.090   3.883  11.081
54385SOL    HW165052  13.099   3.960  11.136
54385SOL    HW265053  13.167   3.886  11.023
54386SOL     OW65054  12.166  12.504   5.819
54386SOL    HW165055  12.194  12.585   5.777
54386SOL    HW265056  12.190  12.435   5.756
54387SOL     OW65057   3.837   0.513   1.166
54387SOL    HW165058   3.770   0.445   1.172
54387SOL    HW265059   3.845   0.531   1.073
54388SOL     OW65060   9.835  12.881   6.899
54388SOL    HW165061   9.912  12.828   6.875
54388SOL    HW265062   9.767  12.816   6.919
54389SOL     OW65063  13.788   4.683   8.841
54389SOL    HW165064  13.813   4.684   8.934
54389SOL    HW265065  13.718   4.747   8.834
54390SOL     OW65066   7.592  13.767   0.949
54390SOL    HW165067   7.500  13.782   0.969
54390SOL    HW265068   7.619  13.699   1.011
54391SOL     OW65069   6.419   2.752   0.049
54391SOL    HW165070   6.469   2.691   0.103
54391SOL    HW265071   6.459   2.837   0.066
54392SOL     OW65072  10.145   5.794   8.250
54392SOL    HW165073  10.176   5.838   8.171
54392SOL    HW265074  10.057   5.763   8.227
54393SOL     OW65075   9.112   1.658  10.617
54393SOL    HW165076   9.163   1.693  10.544
54393SOL    HW265077   9.090   1.569  10.591
54394SOL     OW65078   7.818   7.471   0.162
54394SOL    HW165079   7.832   7.383   0.127
54394SOL    HW265080   7.857   7.529   0.097
54395SOL     OW65081   6.722  13.928  10.439
54395SOL    HW165082   6.745  13.884  10.521
54395SOL    HW265083   6.792  13.902  10.378
54396SOL     OW65084   9.943  12.442   9.073
54396SOL    HW165085   9.867  12.477   9.026
54396SOL    HW265086  10.011  12.508   9.060
54397SOL     OW65087  10.878   5.193  13.502
54397SOL    HW165088  10.883   5.268  13.561
54397SOL    HW265089  10.875   5.116  13.559
54398SOL     OW65090   0.411   8.144  10.025
54398SOL    HW165091   0.401   8.238  10.013
54398SOL    HW265092   0.446   8.134  10.113
54399SOL     OW65093   5.866  10.219  11.820
54399SOL    HW165094   5.827  10.304  11.839
54399SOL    HW265095   5.928  10.237  11.749
54400SOL     OW65096   2.163   6.997   1.833
54400SOL    HW165097   2.179   7.073   1.778
54400SOL    HW265098   2.131   7.033   1.915
54401SOL     OW65099   4.834   4.039   8.918
54401SOL    HW165100   4.760   3.989   8.954
54401SOL    HW265101   4.793   4.108   8.866
54402SOL     OW65102  13.836   5.707  10.386
54402SOL    HW165103  13.761   5.763  10.364
54402SOL    HW265104  13.804   5.653  10.459
54403SOL     OW65105   6.175  14.841   0.560
54403SOL    HW165106   6.248  14.784   0.535
54403SOL    HW265107   6.156   0.011   0.481
54404SOL     OW65108  10.457   9.905   2.667
54404SOL    HW165109  10.430   9.966   2.736
54404SOL    HW265110  10.439   9.953   2.586
54405SOL     OW65111   8.262   4.721   6.460
54405SOL    HW165112   8.259   4.649   6.397
54405SOL    HW265113   8.171   4.744   6.475
54406SOL     OW65114   3.362   8.452   9.733
54406SOL    HW165115   3.398   8.386   9.792
54406SOL    HW265116   3.438   8.490   9.689
54407SOL     OW65117  10.620  14.552  14.592
54407SOL    HW165118  10.586  14.481  14.536
54407SOL    HW265119  10.654  14.616  14.530
54408SOL     OW65120   5.679  14.248   2.644
54408SOL    HW165121   5.635  14.328   2.614
54408SOL    HW265122   5.661  14.245   2.738
54409SOL     OW65123  10.917   9.541  12.876
54409SOL    HW165124  10.974   9.469  12.851
54409SOL    HW265125  10.946   9.615  12.822
54410SOL     OW65126   5.496  12.226   9.461
54410SOL    HW165127   5.418  12.281   9.464
54410SOL    HW265128   5.496  12.180   9.544
54411SOL     OW65129   2.509   7.920  14.356
54411SOL    HW165130   2.534   7.861  14.285
54411SOL    HW265131   2.415   7.935  14.343
54412SOL     OW65132   5.507   2.984   6.679
54412SOL    HW165133   5.473   2.923   6.746
54412SOL    HW265134   5.602   2.974   6.684
54413SOL     OW65135  13.774   1.779   6.913
54413SOL    HW165136  13.843   1.719   6.885
54413SOL    HW265137  13.704   1.767   6.849
54414SOL     OW65138  14.616   7.248   4.804
54414SOL    HW165139  14.699   7.257   4.757
54414SOL    HW265140  14.627   7.303   4.881
54415SOL     OW65141   1.362   4.956   7.674
54415SOL    HW165142   1.313   5.033   7.702
54415SOL    HW265143   1.436   4.951   7.735
54416SOL     OW65144  11.651  11.187   7.802
54416SOL    HW165145  11.681  11.278   7.800
54416SOL    HW265146  11.723  11.138   7.842
54417SOL     OW65147  10.195   7.488   8.620
54417SOL    HW165148  10.114   7.475   8.572
54417SOL    HW265149  10.187   7.576   8.658
54418SOL     OW65150   5.169   8.673   0.123
54418SOL    HW165151   5.123   8.644   0.045
54418SOL    HW265152   5.203   8.760   0.100
54419SOL     OW65153  10.804  13.549  12.521
54419SOL    HW165154  10.793  13.456  12.502
54419SOL    HW265155  10.777  13.557  12.613
54420SOL     OW65156   7.362   6.518   4.704
54420SOL    HW165157   7.348   6.454   4.773
54420SOL    HW265158   7.275   6.548   4.680
54421SOL     OW65159  13.446   8.973   6.737
54421SOL    HW165160  13.443   8.920   6.657
54421SOL    HW265161  13.534   8.961   6.771
54422SOL     OW65162   0.544   7.782   4.561
54422SOL    HW165163   0.462   7.818   4.529
54422SOL    HW265164   0.581   7.734   4.487
54423SOL     OW65165   3.679  14.064   2.143
54423SOL    HW165166   3.624  14.138   2.169
54423SOL    HW265167   3.660  13.996   2.208
54424SOL     OW65168   4.480  14.565   0.655
54424SOL    HW165169   4.550  14.627   0.675
54424SOL    HW265170   4.416  14.577   0.726
54425SOL     OW65171  12.189  10.053  10.865
54425SOL    HW165172  12.184  10.135  10.817
54425SOL    HW265173  12.151   9.988  10.806
54426SOL     OW65174   5.057   4.165   2.609
54426SOL    HW165175   5.104   4.236   2.567
54426SOL    HW265176   4.973   4.204   2.636
54427SOL     OW65177   4.807   7.576  10.244
54427SOL    HW165178   4.771   7.517  10.177
54427SOL    HW265179   4.738   7.640  10.260
54428SOL     OW65180  11.762  11.747   7.419
54428SOL    HW165181  11.738  11.663   7.382
54428SOL    HW265182  11.852  11.735   7.451
54429SOL     OW65183   6.994  14.235   7.957
54429SOL    HW165184   6.969  14.187   8.036
54429SOL    HW265185   7.088  14.248   7.964
54430SOL     OW65186  13.376   2.346  14.871
54430SOL    HW165187  13.461   2.322  14.832
54430SOL    HW265188  13.316   2.348  14.797
54431SOL     OW65189   4.826   4.210  10.178
54431SOL    HW165190   4.820   4.120  10.210
54431SOL    HW265191   4.882   4.255  10.243
54432SOL     OW65192   8.300  14.274   5.810
54432SOL    HW165193   8.214  14.233   5.810
54432SOL    HW265194   8.343  14.237   5.888
54433SOL     OW65195   8.030  10.453  12.068
54433SOL    HW165196   8.085  10.381  12.099
54433SOL    HW265197   8.085  10.531  12.078
54434SOL     OW65198  10.723   6.578   2.343
54434SOL    HW165199  10.670   6.646   2.301
54434SOL    HW265200  10.683   6.567   2.429
54435SOL     OW65201   0.987   0.805   5.319
54435SOL    HW165202   0.893   0.809   5.300
54435SOL    HW265203   1.021   0.739   5.259
54436SOL     OW65204  11.821   6.729   8.953
54436SOL    HW165205  11.748   6.785   8.979
54436SOL    HW265206  11.780   6.654   8.909
54437SOL     OW65207   5.800  12.103  12.226
54437SOL    HW165208   5.725  12.052  12.194
54437SOL    HW265209   5.858  12.037  12.264
54438SOL     OW65210   0.295   4.047  14.052
54438SOL    HW165211   0.219   4.091  14.013
54438SOL    HW265212   0.257   3.985  14.114
54439SOL     OW65213   6.266  11.593   6.899
54439SOL    HW165214   6.239  11.620   6.811
54439SOL    HW265215   6.278  11.498   6.891
54440SOL     OW65216  13.177   8.304  12.774
54440SOL    HW165217  13.234   8.361  12.825
54440SOL    HW265218  13.192   8.330  12.683
54441SOL     OW65219  14.084   0.733   9.333
54441SOL    HW165220  14.172   0.713   9.366
54441SOL    HW265221  14.100   0.787   9.255
54442SOL     OW65222   8.305   9.469   9.285
54442SOL    HW165223   8.346   9.395   9.240
54442SOL    HW265224   8.310   9.446   9.378
54443SOL     OW65225  13.635   2.816   0.487
54443SOL    HW165226  13.641   2.901   0.443
54443SOL    HW265227  13.658   2.834   0.578
54444SOL     OW65228  12.611  11.909   1.090
54444SOL    HW165229  12.616  11.861   1.172
54444SOL    HW265230  12.641  11.997   1.111
54445SOL     OW65231  10.751  11.810  12.301
54445SOL    HW165232  10.777  11.815  12.393
54445SOL    HW265233  10.830  11.835  12.253
54446SOL     OW65234   9.630   3.678   2.927
54446SOL    HW165235   9.674   3.596   2.903
54446SOL    HW265236   9.674   3.745   2.874
54447SOL     OW65237   2.899   7.501   8.288
54447SOL    HW165238   2.840   7.426   8.280
54447SOL    HW265239   2.841   7.576   8.302
54448SOL     OW65240  13.955   6.808   2.526
54448SOL    HW165241  13.983   6.853   2.446
54448SOL    HW265242  13.989   6.863   2.597
54449SOL     OW65243   8.673   3.813   3.263
54449SOL    HW165244   8.644   3.773   3.181
54449SOL    HW265245   8.613   3.781   3.329
54450SOL     OW65246   7.906   3.016  11.554
54450SOL    HW165247   7.949   3.082  11.500
54450SOL    HW265248   7.893   2.941  11.496
54451SOL     OW65249   9.236   8.943  11.996
54451SOL    HW165250   9.188   8.875  11.948
54451SOL    HW265251   9.315   8.899  12.027
54452SOL     OW65252  10.769   6.922   1.114
54452SOL    HW165253  10.757   6.943   1.207
54452SOL    HW265254  10.700   6.859   1.095
54453SOL     OW65255   3.593  12.183   3.982
54453SOL    HW165256   3.660  12.252   3.990
54453SOL    HW265257   3.542  12.190   4.062
54454SOL     OW65258   3.040   5.402   4.803
54454SOL    HW165259   3.014   5.474   4.859
54454SOL    HW265260   3.013   5.323   4.851
54455SOL     OW65261   4.470   7.246   5.836
54455SOL    HW165262   4.548   7.261   5.783
54455SOL    HW265263   4.503   7.235   5.925
54456SOL     OW65264   8.837   7.639   2.130
54456SOL    HW165265   8.787   7.672   2.204
54456SOL    HW265266   8.880   7.560   2.162
54457SOL     OW65267   9.978   5.830   9.638
54457SOL    HW165268   9.892   5.806   9.671
54457SOL    HW265269  10.035   5.758   9.666
54458SOL     OW65270   8.652   0.930  10.690
54458SOL    HW165271   8.624   0.878  10.766
54458SOL    HW265272   8.710   0.997  10.726
54459SOL     OW65273  11.941   8.679   8.246
54459SOL    HW165274  12.024   8.683   8.294
54459SOL    HW265275  11.925   8.585   8.234
54460SOL     OW65276  10.802   7.589   6.589
54460SOL    HW165277  10.803   7.661   6.525
54460SOL    HW265278  10.726   7.537   6.563
54461SOL     OW65279  10.874  12.670   7.224
54461SOL    HW165280  10.789  12.667   7.267
54461SOL    HW265281  10.913  12.585   7.244
54462SOL     OW65282   7.807   5.801   0.700
54462SOL    HW165283   7.894   5.822   0.667
54462SOL    HW265284   7.806   5.835   0.789
54463SOL     OW65285   7.090   4.696   4.255
54463SOL    HW165286   7.111   4.605   4.232
54463SOL    HW265287   7.146   4.749   4.199
54464SOL     OW65288  13.358   2.496   5.468
54464SOL    HW165289  13.375   2.498   5.562
54464SOL    HW265290  13.266   2.471   5.460
54465SOL     OW65291   7.360   7.810   6.451
54465SOL    HW165292   7.307   7.887   6.433
54465SOL    HW265293   7.370   7.767   6.366
54466SOL     OW65294   8.929   3.028   6.464
54466SOL    HW165295   8.992   3.068   6.524
54466SOL    HW265296   8.852   3.011   6.518
54467SOL     OW65297   3.873  13.172   4.921
54467SOL    HW165298   3.908  13.097   4.874
54467SOL    HW265299   3.793  13.141   4.962
54468SOL     OW65300   9.535  10.082   2.803
54468SOL    HW165301   9.517  10.130   2.722
54468SOL    HW265302   9.448  10.053   2.833
54469SOL     OW65303   5.834  14.529  13.630
54469SOL    HW165304   5.802  14.619  13.627
54469SOL    HW265305   5.780  14.487  13.697
54470SOL     OW65306  12.883   0.151  13.102
54470SOL    HW165307  12.871   0.199  13.184
54470SOL    HW265308  12.810   0.089  13.100
54471SOL     OW65309   9.194   3.196   1.733
54471SOL    HW165310   9.112   3.160   1.699
54471SOL    HW265311   9.177   3.289   1.743
54472SOL     OW65312   9.777   8.849  13.734
54472SOL    HW165313   9.817   8.847  13.647
54472SOL    HW265314   9.836   8.903  13.786
54473SOL     OW65315   9.109   9.303   4.579
54473SOL    HW165316   9.189   9.324   4.529
54473SOL    HW265317   9.096   9.380   4.635
54474SOL     OW65318   5.777   8.675   5.976
54474SOL    HW165319   5.808   8.602   6.030
54474SOL    HW265320   5.841   8.682   5.905
54475SOL     OW65321   3.241   7.939   7.101
54475SOL    HW165322   3.154   7.918   7.065
54475SOL    HW265323   3.222   7.995   7.176
54476SOL     OW65324  13.081   1.795  14.287
54476SOL    HW165325  13.005   1.847  14.260
54476SOL    HW265326  13.090   1.729  14.219
54477SOL     OW65327   1.185   4.929   6.635
54477SOL    HW165328   1.197   4.835   6.651
54477SOL    HW265329   1.270   4.959   6.604
54478SOL     OW65330   0.564   0.516   6.869
54478SOL    HW165331   0.505   0.441   6.865
54478SOL    HW265332   0.581   0.539   6.778
54479SOL     OW65333  14.385   6.355   6.086
54479SOL    HW165334  14.431   6.282   6.129
54479SOL    HW265335  14.297   6.352   6.122
54480SOL     OW65336  13.221  14.797   4.691
54480SOL    HW165337  13.265  14.714   4.673
54480SOL    HW265338  13.290  14.863   4.683
54481SOL     OW65339  10.929   5.410  13.136
54481SOL    HW165340  10.979   5.409  13.054
54481SOL    HW265341  10.996   5.408  13.204
54482SOL     OW65342  11.864   8.168   4.332
54482SOL    HW165343  11.831   8.256   4.349
54482SOL    HW265344  11.959   8.175   4.342
54483SOL     OW65345   0.860  13.075  11.378
54483SOL    HW165346   0.835  13.153  11.426
54483SOL    HW265347   0.811  13.079  11.296
54484SOL     OW65348   4.612   4.001   3.970
54484SOL    HW165349   4.566   3.958   4.042
54484SOL    HW265350   4.663   4.071   4.011
54485SOL     OW65351  13.602   0.594   8.857
54485SOL    HW165352  13.612   0.681   8.895
54485SOL    HW265353  13.545   0.547   8.918
54486SOL     OW65354  13.049   9.369  14.760
54486SOL    HW165355  12.968   9.321  14.778
54486SOL    HW265356  13.048   9.441  14.823
54487SOL     OW65357   3.543  10.184   4.458
54487SOL    HW165358   3.600  10.246   4.412
54487SOL    HW265359   3.602  10.113   4.484
54488SOL     OW65360   7.119  12.799  14.591
54488SOL    HW165361   7.159  12.882  14.566
54488SOL    HW265362   7.070  12.819  14.670
54489SOL     OW65363   5.060   1.823  12.735
54489SOL    HW165364   5.024   1.804  12.822
54489SOL    HW265365   5.090   1.738  12.703
54490SOL     OW65366   7.505   2.922   6.692
54490SOL    HW165367   7.421   2.959   6.667
54490SOL    HW265368   7.557   2.997   6.721
54491SOL     OW65369   6.242  11.623   6.599
54491SOL    HW165370   6.317  11.674   6.568
54491SOL    HW265371   6.266  11.532   6.581
54492SOL     OW65372   0.561   0.788   1.218
54492SOL    HW165373   0.588   0.705   1.178
54492SOL    HW265374   0.638   0.816   1.268
54493SOL     OW65375  11.221   8.105   2.378
54493SOL    HW165376  11.280   8.132   2.448
54493SOL    HW265377  11.134   8.132   2.408
54494SOL     OW65378   6.808  12.875   2.050
54494SOL    HW165379   6.761  12.940   1.998
54494SOL    HW265380   6.897  12.910   2.056
54495SOL     OW65381   3.600   8.289   7.283
54495SOL    HW165382   3.630   8.235   7.210
54495SOL    HW265383   3.668   8.281   7.349
54496SOL     OW65384  14.638   0.966   8.811
54496SOL    HW165385  14.727   0.981   8.843
54496SOL    HW265386  14.621   0.873   8.828
54497SOL     OW65387   6.399   3.318  14.079
54497SOL    HW165388   6.407   3.223  14.076
54497SOL    HW265389   6.488   3.351  14.064
54498SOL     OW65390   0.345   4.989   3.929
54498SOL    HW165391   0.355   4.932   3.853
54498SOL    HW265392   0.401   4.950   3.996
54499SOL     OW65393   1.795   5.130  14.860
54499SOL    HW165394   1.849   5.087  14.794
54499SOL    HW265395   1.854   5.141   0.055
54500SOL     OW65396  11.433   2.861   4.808
54500SOL    HW165397  11.373   2.934   4.820
54500SOL    HW265398  11.385   2.785   4.842
54501SOL     OW65399   5.208  12.006   5.724
54501SOL    HW165400   5.274  11.962   5.778
54501SOL    HW265401   5.179  12.080   5.778
54502SOL     OW65402   1.979  12.497   0.906
54502SOL    HW165403   1.953  12.466   0.992
54502SOL    HW265404   2.053  12.555   0.923
54503SOL     OW65405   3.820   4.837   8.528
54503SOL    HW165406   3.765   4.759   8.525
54503SOL    HW265407   3.797   4.886   8.449
54504SOL     OW65408  13.130   5.618   3.014
54504SOL    HW165409  13.077   5.695   2.996
54504SOL    HW265410  13.200   5.621   2.949
54505SOL     OW65411   2.282   7.228  10.624
54505SOL    HW165412   2.334   7.182  10.690
54505SOL    HW265413   2.346   7.278  10.574
54506SOL     OW65414   5.655   5.854  14.530
54506SOL    HW165415   5.730   5.896  14.488
54506SOL    HW265416   5.648   5.769  14.485
54507SOL     OW65417   3.226   7.241  13.014
54507SOL    HW165418   3.262   7.157  13.045
54507SOL    HW265419   3.132   7.232  13.024
54508SOL     OW65420  12.125   5.110   2.865
54508SOL    HW165421  12.150   5.175   2.932
54508SOL    HW265422  12.044   5.071   2.898
54509SOL     OW65423   8.365  14.815   8.176
54509SOL    HW165424   8.430  14.769   8.228
54509SOL    HW265425   8.398   0.024   8.169
54510SOL     OW65426   2.245   9.124   3.494
54510SOL    HW165427   2.338   9.132   3.518
54510SOL    HW265428   2.198   9.166   3.566
54511SOL     OW65429  10.766   3.742   3.013
54511SOL    HW165430  10.716   3.815   2.978
54511SOL    HW265431  10.857   3.760   2.990
54512SOL     OW65432  13.279   5.743   9.568
54512SOL    HW165433  13.203   5.710   9.615
54512SOL    HW265434  13.246   5.814   9.515
54513SOL     OW65435  14.326   2.474   8.722
54513SOL    HW165436  14.247   2.504   8.676
54513SOL    HW265437  14.383   2.443   8.652
54514SOL     OW65438   9.613   2.513  11.702
54514SOL    HW165439   9.561   2.500  11.782
54514SOL    HW265440   9.628   2.424  11.669
54515SOL     OW65441  10.963   2.577   7.537
54515SOL    HW165442  11.039   2.524   7.514
54515SOL    HW265443  10.983   2.611   7.625
54516SOL     OW65444  14.345   2.876   0.547
54516SOL    HW165445  14.375   2.870   0.456
54516SOL    HW265446  14.350   2.787   0.580
54517SOL     OW65447   3.559  11.992   6.772
54517SOL    HW165448   3.615  11.936   6.719
54517SOL    HW265449   3.491  11.933   6.805
54518SOL     OW65450   0.868  11.012   9.637
54518SOL    HW165451   0.852  10.962   9.717
54518SOL    HW265452   0.864  11.103   9.665
54519SOL     OW65453  10.106   6.720   8.423
54519SOL    HW165454  10.035   6.780   8.398
54519SOL    HW265455  10.067   6.633   8.414
54520SOL     OW65456   7.103  14.399   4.025
54520SOL    HW165457   7.095  14.342   4.102
54520SOL    HW265458   7.104  14.487   4.060
54521SOL     OW65459   0.641   0.911   5.169
54521SOL    HW165460   0.674   0.854   5.239
54521SOL    HW265461   0.564   0.865   5.135
54522SOL     OW65462  14.481  14.874   5.064
54522SOL    HW165463  14.473  14.779   5.076
54522SOL    HW265464  14.472   0.030   5.152
54523SOL     OW65465   8.187  13.463  13.700
54523SOL    HW165466   8.251  13.518  13.745
54523SOL    HW265467   8.112  13.521  13.686
54524SOL     OW65468   9.623  10.455  12.917
54524SOL    HW165469   9.579  10.478  12.836
54524SOL    HW265470   9.574  10.500  12.986
54525SOL     OW65471  13.493   5.206  10.597
54525SOL    HW165472  13.500   5.268  10.525
54525SOL    HW265473  13.399   5.201  10.615
54526SOL     OW65474   3.295  11.628  10.927
54526SOL    HW165475   3.373  11.678  10.902
54526SOL    HW265476   3.315  11.594  11.014
54527SOL     OW65477   8.398  11.934   5.522
54527SOL    HW165478   8.371  11.926   5.613
54527SOL    HW265479   8.403  12.028   5.506
54528SOL     OW65480   4.507   5.807   8.724
54528SOL    HW165481   4.418   5.830   8.698
54528SOL    HW265482   4.536   5.743   8.660
54529SOL     OW65483  10.608   4.704   8.143
54529SOL    HW165484  10.677   4.691   8.208
54529SOL    HW265485  10.652   4.745   8.069
54530SOL     OW65486   8.027   0.784  13.996
54530SOL    HW165487   8.121   0.775  13.983
54530SOL    HW265488   8.018   0.809  14.088
54531SOL     OW65489   8.399   0.759   5.770
54531SOL    HW165490   8.328   0.769   5.707
54531SOL    HW265491   8.378   0.823   5.839
54532SOL     OW65492  12.049   0.132   9.009
54532SOL    HW165493  12.142   0.131   9.032
54532SOL    HW265494  12.046   0.174   8.923
54533SOL     OW65495   8.849  12.382   8.338
54533SOL    HW165496   8.795  12.331   8.399
54533SOL    HW265497   8.933  12.337   8.336
54534SOL     OW65498   9.458  14.481   0.155
54534SOL    HW165499   9.543  14.525   0.162
54534SOL    HW265500   9.468  14.421   0.081
54535SOL     OW65501  10.878   5.034   9.112
54535SOL    HW165502  10.810   4.967   9.109
54535SOL    HW265503  10.831   5.117   9.102
54536SOL     OW65504   0.328  10.350  13.668
54536SOL    HW165505   0.315  10.373  13.760
54536SOL    HW265506   0.246  10.376  13.626
54537SOL     OW65507  14.267  10.666  11.807
54537SOL    HW165508  14.262  10.572  11.820
54537SOL    HW265509  14.190  10.687  11.754
54538SOL     OW65510   8.457   9.413   7.966
54538SOL    HW165511   8.510   9.339   7.935
54538SOL    HW265512   8.502   9.490   7.931
54539SOL     OW65513   6.968   5.142  10.551
54539SOL    HW165514   6.920   5.219  10.522
54539SOL    HW265515   7.025   5.173  10.621
54540SOL     OW65516   1.297  10.037   1.012
54540SOL    HW165517   1.266   9.947   1.023
54540SOL    HW265518   1.333  10.060   1.098
54541SOL     OW65519   9.978   5.589   0.145
54541SOL    HW165520   9.952   5.578   0.054
54541SOL    HW265521  10.062   5.634   0.141
54542SOL     OW65522   0.993   7.613   8.614
54542SOL    HW165523   1.058   7.672   8.652
54542SOL    HW265524   1.000   7.534   8.667
54543SOL     OW65525   8.855   1.180   4.184
54543SOL    HW165526   8.843   1.085   4.180
54543SOL    HW265527   8.768   1.213   4.208
54544SOL     OW65528   5.704   9.957  11.156
54544SOL    HW165529   5.701   9.933  11.249
54544SOL    HW265530   5.693  10.052  11.156
54545SOL     OW65531   9.405  13.617   9.477
54545SOL    HW165532   9.394  13.535   9.526
54545SOL    HW265533   9.497  13.616   9.450
54546SOL     OW65534  13.179  10.795   0.571
54546SOL    HW165535  13.111  10.835   0.625
54546SOL    HW265536  13.183  10.849   0.492
54547SOL     OW65537  10.874   3.333   1.872
54547SOL    HW165538  10.909   3.248   1.900
54547SOL    HW265539  10.780   3.317   1.860
54548SOL     OW65540   1.486  13.729   4.698
54548SOL    HW165541   1.411  13.670   4.687
54548SOL    HW265542   1.450  13.817   4.684
54549SOL     OW65543   9.703  11.830  10.748
54549SOL    HW165544   9.631  11.886  10.720
54549SOL    HW265545   9.670  11.741  10.739
54550SOL     OW65546  13.421  14.064   0.815
54550SOL    HW165547  13.494  14.039   0.757
54550SOL    HW265548  13.399  14.153   0.787
54551SOL     OW65549  10.686   7.613  13.732
54551SOL    HW165550  10.677   7.698  13.775
54551SOL    HW265551  10.609   7.564  13.758
54552SOL     OW65552   0.545  11.443  10.904
54552SOL    HW165553   0.586  11.357  10.914
54552SOL    HW265554   0.541  11.456  10.809
54553SOL     OW65555   7.160   3.444  10.546
54553SOL    HW165556   7.217   3.440  10.623
54553SOL    HW265557   7.118   3.530  10.552
54554SOL     OW65558   0.693  10.052   5.129
54554SOL    HW165559   0.730   9.978   5.081
54554SOL    HW265560   0.761  10.120   5.126
54555SOL     OW65561   1.756   7.182   7.089
54555SOL    HW165562   1.828   7.241   7.065
54555SOL    HW265563   1.790   7.131   7.163
54556SOL     OW65564   6.036   9.576  14.470
54556SOL    HW165565   6.025   9.553  14.563
54556SOL    HW265566   6.041   9.672  14.470
54557SOL     OW65567   5.521   8.170  13.189
54557SOL    HW165568   5.558   8.204  13.107
54557SOL    HW265569   5.582   8.200  13.257
54558SOL     OW65570   5.064  10.404   1.903
54558SOL    HW165571   4.983  10.365   1.872
54558SOL    HW265572   5.102  10.339   1.963
54559SOL     OW65573   9.669   9.382   0.541
54559SOL    HW165574   9.663   9.457   0.600
54559SOL    HW265575   9.718   9.414   0.466
54560SOL     OW65576   2.905   9.576   8.773
54560SOL    HW165577   2.960   9.616   8.706
54560SOL    HW265578   2.939   9.486   8.781
54561SOL     OW65579  12.668   9.821   9.894
54561SOL    HW165580  12.718   9.788   9.969
54561SOL    HW265581  12.731   9.824   9.822
54562SOL     OW65582  11.481   8.726   3.152
54562SOL    HW165583  11.479   8.771   3.068
54562SOL    HW265584  11.490   8.797   3.217
54563SOL     OW65585   0.865   6.475   5.573
54563SOL    HW165586   0.884   6.400   5.517
54563SOL    HW265587   0.830   6.541   5.513
54564SOL     OW65588   9.929  10.841   8.934
54564SOL    HW165589   9.864  10.898   8.891
54564SOL    HW265590   9.955  10.779   8.867
54565SOL     OW65591   2.953   4.372   9.357
54565SOL    HW165592   2.939   4.417   9.440
54565SOL    HW265593   3.030   4.415   9.319
54566SOL     OW65594  14.579   8.146  14.325
54566SOL    HW165595  14.585   8.136  14.420
54566SOL    HW265596  14.485   8.140  14.306
54567SOL     OW65597  12.325   2.081   1.793
54567SOL    HW165598  12.328   2.090   1.888
54567SOL    HW265599  12.406   2.036   1.770
54568SOL     OW65600   7.095  12.566   0.671
54568SOL    HW165601   7.023  12.545   0.731
54568SOL    HW265602   7.119  12.656   0.693
54569SOL     OW65603   5.309  13.627  10.275
54569SOL    HW165604   5.233  13.677  10.244
54569SOL    HW265605   5.357  13.605  10.195
54570SOL     OW65606  12.489  10.523   2.971
54570SOL    HW165607  12.511  10.571   2.891
54570SOL    HW265608  12.395  10.536   2.981
54571SOL     OW65609   7.444   7.521  10.760
54571SOL    HW165610   7.354   7.497  10.779
54571SOL    HW265611   7.460   7.599  10.812
54572SOL     OW65612   5.391   3.139   5.546
54572SOL    HW165613   5.402   3.186   5.464
54572SOL    HW265614   5.457   3.176   5.604
54573SOL     OW65615   2.476   6.988  14.263
54573SOL    HW165616   2.388   6.968  14.233
54573SOL    HW265617   2.528   6.995  14.183
54574SOL     OW65618  11.157   9.115   4.832
54574SOL    HW165619  11.126   9.194   4.788
54574SOL    HW265620  11.247   9.136   4.858
54575SOL     OW65621   1.889   6.888  12.213
54575SOL    HW165622   1.935   6.940  12.147
54575SOL    HW265623   1.887   6.800  12.177
54576SOL     OW65624  12.099   3.789   4.315
54576SOL    HW165625  12.094   3.715   4.375
54576SOL    HW265626  12.078   3.752   4.229
54577SOL     OW65627  10.677   1.915  13.709
54577SOL    HW165628  10.585   1.906  13.733
54577SOL    HW265629  10.701   1.830  13.674
54578SOL     OW65630   0.701   6.115  11.062
54578SOL    HW165631   0.634   6.075  11.008
54578SOL    HW265632   0.700   6.064  11.143
54579SOL     OW65633   2.979   4.955   6.266
54579SOL    HW165634   3.024   5.029   6.224
54579SOL    HW265635   2.917   4.997   6.326
54580SOL     OW65636  14.131  12.799   5.181
54580SOL    HW165637  14.070  12.810   5.107
54580SOL    HW265638  14.111  12.873   5.239
54581SOL     OW65639   5.410  12.029   2.541
54581SOL    HW165640   5.430  11.998   2.453
54581SOL    HW265641   5.462  11.974   2.599
54582SOL     OW65642   9.760  14.170   5.946
54582SOL    HW165643   9.843  14.134   5.916
54582SOL    HW265644   9.767  14.264   5.931
54583SOL     OW65645   2.183   1.411   4.492
54583SOL    HW165646   2.277   1.419   4.477
54583SOL    HW265647   2.143   1.460   4.420
54584SOL     OW65648   7.343   7.557   0.082
54584SOL    HW165649   7.397   7.629   0.050
54584SOL    HW265650   7.390   7.524   0.159
54585SOL     OW65651   3.688   9.070   8.749
54585SOL    HW165652   3.738   9.052   8.669
54585SOL    HW265653   3.628   9.140   8.726
54586SOL     OW65654  10.670   3.867   0.997
54586SOL    HW165655  10.700   3.919   1.071
54586SOL    HW265656  10.726   3.893   0.924
54587SOL     OW65657   8.707  12.689  11.378
54587SOL    HW165658   8.618  12.718  11.360
54587SOL    HW265659   8.754  12.769  11.402
54588SOL     OW65660  14.297  10.403  10.734
54588SOL    HW165661  14.205  10.382  10.752
54588SOL    HW265662  14.316  10.479  10.789
54589SOL     OW65663   3.934   1.212   8.620
54589SOL    HW165664   3.922   1.233   8.527
54589SOL    HW265665   3.889   1.129   8.631
54590SOL     OW65666  11.922  14.533  10.634
54590SOL    HW165667  11.883  14.478  10.567
54590SOL    HW265668  11.924  14.620  10.595
54591SOL     OW65669  14.005   6.410  14.404
54591SOL    HW165670  14.093   6.381  14.377
54591SOL    HW265671  13.951   6.332  14.393
54592SOL     OW65672   3.906   3.803  12.224
54592SOL    HW165673   3.929   3.731  12.165
54592SOL    HW265674   3.823   3.836  12.188
54593SOL     OW65675   5.325   9.654   4.967
54593SOL    HW165676   5.281   9.720   4.914
54593SOL    HW265677   5.418   9.665   4.948
54594SOL     OW65678  12.238   6.106   9.445
54594SOL    HW165679  12.245   6.163   9.369
54594SOL    HW265680  12.283   6.025   9.418
54595SOL     OW65681   6.161   7.396  10.848
54595SOL    HW165682   6.177   7.485  10.878
54595SOL    HW265683   6.077   7.372  10.889
54596SOL     OW65684  11.117  11.804   3.804
54596SOL    HW165685  11.108  11.710   3.784
54596SOL    HW265686  11.157  11.840   3.725
54597SOL     OW65687  12.958   3.197  13.745
54597SOL    HW165688  12.889   3.132  13.733
54597SOL    HW265689  12.979   3.194  13.838
54598SOL     OW65690   3.435   4.692   1.378
54598SOL    HW165691   3.485   4.765   1.413
54598SOL    HW265692   3.443   4.702   1.283
54599SOL     OW65693  10.305   9.240  10.785
54599SOL    HW165694  10.216   9.274  10.797
54599SOL    HW265695  10.358   9.317  10.763
54600SOL     OW65696  14.867   6.828   3.250
54600SOL    HW165697   0.047   6.841   3.177
54600SOL    HW265698   0.025   6.757   3.301
54601SOL     OW65699  11.676  12.931  13.775
54601SOL    HW165700  11.687  12.878  13.854
54601SOL    HW265701  11.621  12.876  13.718
54602SOL     OW65702   8.128   5.841  12.652
54602SOL    HW165703   8.165   5.812  12.736
54602SOL    HW265704   8.186   5.802  12.586
54603SOL     OW65705   9.830   6.127  10.908
54603SOL    HW165706   9.865   6.038  10.906
54603SOL    HW265707   9.770   6.128  10.983
54604SOL     OW65708  13.096  13.127  14.797
54604SOL    HW165709  13.106  13.133  14.702
54604SOL    HW265710  13.108  13.035  14.817
54605SOL     OW65711   8.620  13.448   6.001
54605SOL    HW165712   8.698  13.487   5.961
54605SOL    HW265713   8.617  13.359   5.966
54606SOL     OW65714   5.772   7.237   9.420
54606SOL    HW165715   5.805   7.156   9.381
54606SOL    HW265716   5.745   7.211   9.508
54607SOL     OW65717   5.864   6.812   1.515
54607SOL    HW165718   5.871   6.859   1.432
54607SOL    HW265719   5.861   6.881   1.581
54608SOL     OW65720  12.981  12.627  11.158
54608SOL    HW165721  13.075  12.644  11.158
54608SOL    HW265722  12.971  12.551  11.100
54609SOL     OW65723   9.553   0.723  14.267
54609SOL    HW165724   9.476   0.679  14.230
54609SOL    HW265725   9.544   0.814  14.240
54610SOL     OW65726   7.640  13.790   7.648
54610SOL    HW165727   7.685  13.747   7.576
54610SOL    HW265728   7.697  13.777   7.724
54611SOL     OW65729   9.568   6.584  12.635
54611SOL    HW165730   9.503   6.628  12.690
54611SOL    HW265731   9.530   6.497  12.618
54612SOL     OW65732   2.053   8.073  12.798
54612SOL    HW165733   2.142   8.056  12.831
54612SOL    HW265734   2.065   8.140  12.731
54613SOL     OW65735  10.250   9.257  12.022
54613SOL    HW165736  10.328   9.308  12.002
54613SOL    HW265737  10.274   9.207  12.100
54614SOL     OW65738   8.875   3.845   1.563
54614SOL    HW165739   8.952   3.837   1.507
54614SOL    HW265740   8.821   3.769   1.541
54615SOL     OW65741   8.741  10.936   6.173
54615SOL    HW165742   8.759  10.980   6.090
54615SOL    HW265743   8.796  10.981   6.237
54616SOL     OW65744   4.256   0.781   5.381
54616SOL    HW165745   4.312   0.720   5.429
54616SOL    HW265746   4.263   0.863   5.429
54617SOL     OW65747  10.841  14.064  14.195
54617SOL    HW165748  10.928  14.067  14.155
54617SOL    HW265749  10.859  14.053  14.289
54618SOL     OW65750   9.121   5.780   1.486
54618SOL    HW165751   9.060   5.706   1.495
54618SOL    HW265752   9.148   5.800   1.576
54619SOL     OW65753  13.701   9.848   0.592
54619SOL    HW165754  13.622   9.843   0.538
54619SOL    HW265755  13.671   9.886   0.675
54620SOL     OW65756   7.565   0.018   6.938
54620SOL    HW165757   7.657  14.872   6.944
54620SOL    HW265758   7.552   0.076   7.013
54621SOL     OW65759  13.014  10.158  10.527
54621SOL    HW165760  12.924  10.137  10.502
54621SOL    HW265761  13.036  10.236  10.476
54622SOL     OW65762   4.705   3.246   9.823
54622SOL    HW165763   4.669   3.305   9.757
54622SOL    HW265764   4.633   3.185   9.842
54623SOL     OW65765   9.174   9.007   0.781
54623SOL    HW165766   9.142   9.085   0.735
54623SOL    HW265767   9.183   8.941   0.712
54624SOL     OW65768  11.850  13.632   0.330
54624SOL    HW165769  11.913  13.686   0.379
54624SOL    HW265770  11.825  13.687   0.256
54625SOL     OW65771   3.229  13.091  13.826
54625SOL    HW165772   3.193  13.024  13.884
54625SOL    HW265773   3.231  13.170  13.879
54626SOL     OW65774   5.839  10.508  11.756
54626SOL    HW165775   5.931  10.515  11.784
54626SOL    HW265776   5.833  10.568  11.682
54627SOL     OW65777   3.605   4.932   9.450
54627SOL    HW165778   3.526   4.916   9.502
54627SOL    HW265779   3.675   4.891   9.500
54628SOL     OW65780  11.398  11.014  14.659
54628SOL    HW165781  11.310  11.048  14.639
54628SOL    HW265782  11.457  11.082  14.627
54629SOL     OW65783   7.001  14.033   3.739
54629SOL    HW165784   6.925  14.027   3.796
54629SOL    HW265785   7.004  13.949   3.693
54630SOL     OW65786   0.559   3.882   4.675
54630SOL    HW165787   0.555   3.786   4.670
54630SOL    HW265788   0.469   3.909   4.694
54631SOL     OW65789  11.181   5.932   0.096
54631SOL    HW165790  11.137   5.893   0.021
54631SOL    HW265791  11.111   5.966   0.151
54632SOL     OW65792  12.268   9.743  10.304
54632SOL    HW165793  12.233   9.662  10.267
54632SOL    HW265794  12.282   9.800  10.228
54633SOL     OW65795  14.140   0.193   5.787
54633SOL    HW165796  14.198   0.264   5.759
54633SOL    HW265797  14.197   0.134   5.836
54634SOL     OW65798  12.239   5.130   2.393
54634SOL    HW165799  12.249   5.081   2.475
54634SOL    HW265800  12.299   5.204   2.402
54635SOL     OW65801   8.697   6.873   2.253
54635SOL    HW165802   8.698   6.777   2.250
54635SOL    HW265803   8.619   6.894   2.305
54636SOL     OW65804   0.274  12.568   6.826
54636SOL    HW165805   0.349  12.540   6.774
54636SOL    HW265806   0.265  12.661   6.808
54637SOL     OW65807   2.303   5.796  13.117
54637SOL    HW165808   2.291   5.704  13.141
54637SOL    HW265809   2.263   5.845  13.190
54638SOL     OW65810   0.039  13.419  10.781
54638SOL    HW165811  14.831  13.411  10.743
54638SOL    HW265812   0.032  13.491  10.843
54639SOL     OW65813  12.967  13.701   3.747
54639SOL    HW165814  13.039  13.650   3.783
54639SOL    HW265815  13.009  13.775   3.702
54640SOL     OW65816   9.697  10.199   8.934
54640SOL    HW165817   9.619  10.190   8.989
54640SOL    HW265818   9.663  10.214   8.846
54641SOL     OW65819   3.072   5.471   4.556
54641SOL    HW165820   3.054   5.441   4.645
54641SOL    HW265821   3.165   5.454   4.543
54642SOL     OW65822  11.814   2.468   1.739
54642SOL    HW165823  11.770   2.384   1.749
54642SOL    HW265824  11.761   2.516   1.675
54643SOL     OW65825   4.044  13.941   6.391
54643SOL    HW165826   4.114  13.913   6.451
54643SOL    HW265827   4.070  13.906   6.306
54644SOL     OW65828   9.884   6.134  12.061
54644SOL    HW165829   9.798   6.176  12.062
54644SOL    HW265830   9.929   6.172  11.985
54645SOL     OW65831  10.058   3.455   2.163
54645SOL    HW165832   9.984   3.512   2.142
54645SOL    HW265833  10.134   3.501   2.125
54646SOL     OW65834   8.749   1.124   0.319
54646SOL    HW165835   8.778   1.035   0.300
54646SOL    HW265836   8.698   1.117   0.399
54647SOL     OW65837   9.388   6.853  10.536
54647SOL    HW165838   9.464   6.842  10.478
54647SOL    HW265839   9.411   6.807  10.616
54648SOL     OW65840   7.641  10.550   3.845
54648SOL    HW165841   7.678  10.604   3.915
54648SOL    HW265842   7.706  10.556   3.774
54649SOL     OW65843  10.796  13.212   3.777
54649SOL    HW165844  10.834  13.195   3.691
54649SOL    HW265845  10.721  13.269   3.760
54650SOL     OW65846   9.760   1.215   4.492
54650SOL    HW165847   9.778   1.306   4.469
54650SOL    HW265848   9.815   1.198   4.569
54651SOL     OW65849   6.409   0.314   0.371
54651SOL    HW165850   6.454   0.317   0.286
54651SOL    HW265851   6.339   0.250   0.357
54652SOL     OW65852  14.293   6.749  13.039
54652SOL    HW165853  14.278   6.756  13.133
54652SOL    HW265854  14.388   6.743  13.030
54653SOL     OW65855  12.651  11.626  11.837
54653SOL    HW165856  12.708  11.550  11.846
54653SOL    HW265857  12.563  11.591  11.847
54654SOL     OW65858   1.611  12.173   5.917
54654SOL    HW165859   1.636  12.199   5.829
54654SOL    HW265860   1.686  12.197   5.971
54655SOL     OW65861  10.797   5.574   0.287
54655SOL    HW165862  10.797   5.610   0.376
54655SOL    HW265863  10.706   5.548   0.272
54656SOL     OW65864   1.041  11.017   3.050
54656SOL    HW165865   1.090  11.056   3.122
54656SOL    HW265866   1.062  10.924   3.055
54657SOL     OW65867   8.554  12.057  14.825
54657SOL    HW165868   8.615  12.031   0.014
54657SOL    HW265869   8.477  12.089  14.872
54658SOL     OW65870   3.277   8.174  11.486
54658SOL    HW165871   3.269   8.134  11.400
54658SOL    HW265872   3.352   8.129  11.527
54659SOL     OW65873  12.865   2.025  11.140
54659SOL    HW165874  12.958   2.046  11.130
54659SOL    HW265875  12.864   1.953  11.204
54660SOL     OW65876   2.524   2.979  10.652
54660SOL    HW165877   2.492   2.996  10.564
54660SOL    HW265878   2.615   2.949  10.639
54661SOL     OW65879   4.378   4.336  13.232
54661SOL    HW165880   4.395   4.304  13.144
54661SOL    HW265881   4.396   4.430  13.226
54662SOL     OW65882   7.985   0.308   1.037
54662SOL    HW165883   7.955   0.399   1.035
54662SOL    HW265884   7.990   0.282   0.945
54663SOL     OW65885  12.338   4.833   3.477
54663SOL    HW165886  12.256   4.872   3.507
54663SOL    HW265887  12.325   4.822   3.383
54664SOL     OW65888   9.229   5.498   4.624
54664SOL    HW165889   9.283   5.572   4.652
54664SOL    HW265890   9.150   5.539   4.589
54665SOL     OW65891   0.889   9.696  12.793
54665SOL    HW165892   0.965   9.651  12.833
54665SOL    HW265893   0.862   9.638  12.722
54666SOL     OW65894   2.564  10.558  10.251
54666SOL    HW165895   2.481  10.511  10.258
54666SOL    HW265896   2.592  10.571  10.342
54667SOL     OW65897  10.906   5.754  10.559
54667SOL    HW165898  10.935   5.829  10.610
54667SOL    HW265899  10.947   5.679  10.603
54668SOL     OW65900   5.821  11.516   4.581
54668SOL    HW165901   5.852  11.605   4.566
54668SOL    HW265902   5.729  11.518   4.555
54669SOL     OW65903  10.806  12.747  11.404
54669SOL    HW165904  10.815  12.841  11.421
54669SOL    HW265905  10.739  12.718  11.466
54670SOL     OW65906  11.114   7.558   4.245
54670SOL    HW165907  11.156   7.604   4.173
54670SOL    HW265908  11.172   7.573   4.320
54671SOL     OW65909  14.521  13.285   1.319
54671SOL    HW165910  14.553  13.289   1.228
54671SOL    HW265911  14.530  13.375   1.350
54672SOL     OW65912   1.999   4.075  13.536
54672SOL    HW165913   1.908   4.088  13.509
54672SOL    HW265914   1.995   4.066  13.631
54673SOL     OW65915   2.671  11.710  14.186
54673SOL    HW165916   2.616  11.788  14.195
54673SOL    HW265917   2.676  11.674  14.274
54674SOL     OW65918  13.220   3.575   4.314
54674SOL    HW165919  13.232   3.526   4.395
54674SOL    HW265920  13.215   3.508   4.246
54675SOL     OW65921  13.188   2.633  11.758
54675SOL    HW165922  13.199   2.724  11.786
54675SOL    HW265923  13.264   2.588  11.793
54676SOL     OW65924   0.094   5.662   3.228
54676SOL    HW165925   0.003   5.637   3.216
54676SOL    HW265926   0.115   5.637   3.318
54677SOL     OW65927  13.821   1.355   9.553
54677SOL    HW165928  13.905   1.314   9.574
54677SOL    HW265929  13.765   1.282   9.527
54678SOL     OW65930  11.321  10.759  11.951
54678SOL    HW165931  11.312  10.675  11.996
54678SOL    HW265932  11.369  10.814  12.012
54679SOL     OW65933   2.795  11.280   4.651
54679SOL    HW165934   2.824  11.189   4.643
54679SOL    HW265935   2.864  11.323   4.702
54680SOL     OW65936  12.349  11.865   3.381
54680SOL    HW165937  12.380  11.797   3.321
54680SOL    HW265938  12.257  11.879   3.357
54681SOL     OW65939   7.898  11.775   2.700
54681SOL    HW165940   7.971  11.836   2.716
54681SOL    HW265941   7.877  11.787   2.608
54682SOL     OW65942   8.288  14.042   5.415
54682SOL    HW165943   8.261  14.134   5.408
54682SOL    HW265944   8.236  14.008   5.488
54683SOL     OW65945   5.996   8.065  13.207
54683SOL    HW165946   5.965   8.138  13.154
54683SOL    HW265947   5.991   8.097  13.297
54684SOL     OW65948   2.427   7.978   8.965
54684SOL    HW165949   2.388   8.009   9.046
54684SOL    HW265950   2.518   7.961   8.987
54685SOL     OW65951  14.500   3.155   5.494
54685SOL    HW165952  14.434   3.117   5.436
54685SOL    HW265953  14.574   3.173   5.437
54686SOL     OW65954   5.789  11.468   1.131
54686SOL    HW165955   5.798  11.542   1.191
54686SOL    HW265956   5.746  11.400   1.183
54687SOL     OW65957   4.652   7.897  10.910
54687SOL    HW165958   4.677   7.879  10.819
54687SOL    HW265959   4.691   7.982  10.929
54688SOL     OW65960   6.897  14.730   2.204
54688SOL    HW165961   6.824  14.670   2.192
54688SOL    HW265962   6.857  14.807   2.245
54689SOL     OW65963  14.083  11.316   2.923
54689SOL    HW165964  14.101  11.256   2.995
54689SOL    HW265965  14.092  11.403   2.961
54690SOL     OW65966  13.096   9.045  12.342
54690SOL    HW165967  13.042   8.974  12.307
54690SOL    HW265968  13.037   9.094  12.399
54691SOL     OW65969   8.249   5.025   3.614
54691SOL    HW165970   8.258   5.080   3.692
54691SOL    HW265971   8.236   4.937   3.648
54692SOL     OW65972  12.607   7.493  10.829
54692SOL    HW165973  12.554   7.472  10.906
54692SOL    HW265974  12.577   7.580  10.803
54693SOL     OW65975   0.558  12.100   6.476
54693SOL    HW165976   0.589  12.024   6.428
54693SOL    HW265977   0.537  12.165   6.409
54694SOL     OW65978   2.748   7.138   3.748
54694SOL    HW165979   2.774   7.230   3.758
54694SOL    HW265980   2.831   7.091   3.734
54695SOL     OW65981   3.581  14.395   8.276
54695SOL    HW165982   3.599  14.487   8.291
54695SOL    HW265983   3.611  14.351   8.355
54696SOL     OW65984   9.788  14.079   1.836
54696SOL    HW165985   9.826  14.116   1.915
54696SOL    HW265986   9.796  13.984   1.847
54697SOL     OW65987  14.465   5.531   2.321
54697SOL    HW165988  14.550   5.518   2.362
54697SOL    HW265989  14.440   5.445   2.288
54698SOL     OW65990  13.377   0.566  14.849
54698SOL    HW165991  13.399   0.547  14.758
54698SOL    HW265992  13.293   0.522  14.863
54699SOL     OW65993  13.941   9.886  12.350
54699SOL    HW165994  13.975   9.801  12.377
54699SOL    HW265995  13.975   9.899  12.262
54700SOL     OW65996   0.204   3.825   3.460
54700SOL    HW165997   0.179   3.736   3.433
54700SOL    HW265998   0.254   3.859   3.386
54701SOL     OW65999  10.037   4.275   1.953
54701SOL    HW166000   9.946   4.248   1.962
54701SOL    HW266001  10.036   4.340   1.883
54702SOL     OW66002   1.056  14.459   0.651
54702SOL    HW166003   1.143  14.423   0.665
54702SOL    HW266004   1.071  14.537   0.597
54703SOL     OW66005   6.589   2.244   2.228
54703SOL    HW166006   6.607   2.306   2.299
54703SOL    HW266007   6.494   2.233   2.229
54704SOL     OW66008   7.347   8.601   5.206
54704SOL    HW166009   7.336   8.696   5.215
54704SOL    HW266010   7.404   8.577   5.278
54705SOL     OW66011   0.574   4.334  14.824
54705SOL    HW166012   0.553   4.411  14.877
54705SOL    HW266013   0.579   4.367  14.734
54706SOL     OW66014   9.638  13.860   2.321
54706SOL    HW166015   9.612  13.908   2.400
54706SOL    HW266016   9.725  13.826   2.341
54707SOL     OW66017   1.211   4.555   9.927
54707SOL    HW166018   1.164   4.539  10.009
54707SOL    HW266019   1.147   4.598   9.870
54708SOL     OW66020  10.715   6.602   5.689
54708SOL    HW166021  10.630   6.575   5.725
54708SOL    HW266022  10.773   6.528   5.707
54709SOL     OW66023   9.227   7.342   9.169
54709SOL    HW166024   9.209   7.345   9.076
54709SOL    HW266025   9.143   7.317   9.209
54710SOL     OW66026   6.300  13.269   1.763
54710SOL    HW166027   6.298  13.236   1.673
54710SOL    HW266028   6.375  13.329   1.765
54711SOL     OW66029  12.520   5.664   0.028
54711SOL    HW166030  12.455   5.707  14.852
54711SOL    HW266031  12.477   5.583   0.057
54712SOL     OW66032  14.132  13.664   0.218
54712SOL    HW166033  14.051  13.652   0.268
54712SOL    HW266034  14.188  13.592   0.244
54713SOL     OW66035   6.547  13.140   7.946
54713SOL    HW166036   6.460  13.125   7.909
54713SOL    HW266037   6.538  13.115   8.038
54714SOL     OW66038   9.423   0.764   1.358
54714SOL    HW166039   9.489   0.729   1.298
54714SOL    HW266040   9.410   0.854   1.329
54715SOL     OW66041   1.183  11.624  10.668
54715SOL    HW166042   1.214  11.591  10.752
54715SOL    HW266043   1.094  11.655  10.686
54716SOL     OW66044  12.285   5.352  10.086
54716SOL    HW166045  12.373   5.362  10.123
54716SOL    HW266046  12.259   5.263  10.108
54717SOL     OW66047  12.800   7.739  14.660
54717SOL    HW166048  12.880   7.782  14.690
54717SOL    HW266049  12.732   7.806  14.671
54718SOL     OW66050   4.107  11.111  13.021
54718SOL    HW166051   4.070  11.061  13.094
54718SOL    HW266052   4.185  11.152  13.058
54719SOL     OW66053   2.785   9.541   1.569
54719SOL    HW166054   2.793   9.575   1.480
54719SOL    HW266055   2.702   9.493   1.569
54720SOL     OW66056   7.191   2.636  12.687
54720SOL    HW166057   7.176   2.636  12.593
54720SOL    HW266058   7.113   2.677  12.724
54721SOL     OW66059   7.234  14.803   0.582
54721SOL    HW166060   7.216  14.829   0.673
54721SOL    HW266061   7.321  14.839   0.564
54722SOL     OW66062   2.537   1.819  11.902
54722SOL    HW166063   2.512   1.834  11.993
54722SOL    HW266064   2.547   1.724  11.896
54723SOL     OW66065   7.850   3.093   5.716
54723SOL    HW166066   7.937   3.069   5.684
54723SOL    HW266067   7.809   3.137   5.642
54724SOL     OW66068  11.548  12.936   1.866
54724SOL    HW166069  11.494  12.965   1.793
54724SOL    HW266070  11.521  12.845   1.881
54725SOL     OW66071   8.325   0.431   3.538
54725SOL    HW166072   8.246   0.419   3.590
54725SOL    HW266073   8.397   0.419   3.599
54726SOL     OW66074  14.589   9.092   0.465
54726SOL    HW166075  14.532   9.169   0.471
54726SOL    HW266076  14.530   9.020   0.444
54727SOL     OW66077  10.255   5.412   9.973
54727SOL    HW166078  10.337   5.363   9.968
54727SOL    HW266079  10.282   5.504   9.976
54728SOL     OW66080  10.853   4.806  12.854
54728SOL    HW166081  10.938   4.835  12.821
54728SOL    HW266082  10.791   4.870  12.819
54729SOL     OW66083   3.586   3.043   5.125
54729SOL    HW166084   3.523   2.984   5.085
54729SOL    HW266085   3.639   3.076   5.052
54730SOL     OW66086  12.423   1.906   2.893
54730SOL    HW166087  12.343   1.858   2.914
54730SOL    HW266088  12.455   1.865   2.813
54731SOL     OW66089  10.612  12.597   7.789
54731SOL    HW166090  10.641  12.515   7.750
54731SOL    HW266091  10.520  12.583   7.810
54732SOL     OW66092  12.419   5.684   1.124
54732SOL    HW166093  12.394   5.688   1.216
54732SOL    HW266094  12.336   5.694   1.077
54733SOL     OW66095  14.735   5.495   7.949
54733SOL    HW166096  14.737   5.528   7.860
54733SOL    HW266097  14.643   5.477   7.966
54734SOL     OW66098  13.304   0.803   3.020
54734SOL    HW166099  13.234   0.739   3.032
54734SOL    HW266100  13.375   0.754   2.978
54735SOL     OW66101   4.824   8.840  11.193
54735SOL    HW166102   4.888   8.909  11.177
54735SOL    HW266103   4.760   8.849  11.122
54736SOL     OW66104   9.201  11.875   5.809
54736SOL    HW166105   9.216  11.837   5.723
54736SOL    HW266106   9.145  11.812   5.854
54737SOL     OW66107  10.662   5.976   9.537
54737SOL    HW166108  10.723   5.937   9.600
54737SOL    HW266109  10.655   6.067   9.565
54738SOL     OW66110   1.919  12.395  13.621
54738SOL    HW166111   1.980  12.323  13.603
54738SOL    HW266112   1.836  12.351  13.642
54739SOL     OW66113   5.205   6.493   6.633
54739SOL    HW166114   5.249   6.505   6.717
54739SOL    HW266115   5.254   6.548   6.572
54740SOL     OW66116   8.038  10.679   7.136
54740SOL    HW166117   7.959  10.648   7.181
54740SOL    HW266118   8.111  10.645   7.189
54741SOL     OW66119   6.651   1.949  11.651
54741SOL    HW166120   6.603   1.924  11.572
54741SOL    HW266121   6.586   1.941  11.721
54742SOL     OW66122  13.611   9.541  11.341
54742SOL    HW166123  13.565   9.616  11.377
54742SOL    HW266124  13.611   9.477  11.412
54743SOL     OW66125  13.919  13.137  11.295
54743SOL    HW166126  13.828  13.112  11.310
54743SOL    HW266127  13.956  13.149  11.382
54744SOL     OW66128   7.943   5.877   7.565
54744SOL    HW166129   7.982   5.957   7.602
54744SOL    HW266130   7.916   5.902   7.477
54745SOL     OW66131   4.583   1.279   9.069
54745SOL    HW166132   4.531   1.204   9.098
54745SOL    HW266133   4.608   1.257   8.979
54746SOL     OW66134   7.208  12.042   1.550
54746SOL    HW166135   7.247  12.085   1.626
54746SOL    HW266136   7.117  12.026   1.575
54747SOL     OW66137   6.237  14.395  10.258
54747SOL    HW166138   6.283  14.447  10.191
54747SOL    HW266139   6.207  14.317  10.212
54748SOL     OW66140   5.471   1.239   9.578
54748SOL    HW166141   5.482   1.235   9.673
54748SOL    HW266142   5.554   1.207   9.543
54749SOL     OW66143   6.173  12.527   9.487
54749SOL    HW166144   6.144  12.492   9.403
54749SOL    HW266145   6.134  12.614   9.491
54750SOL     OW66146   1.089  11.667  11.300
54750SOL    HW166147   1.081  11.591  11.358
54750SOL    HW266148   1.034  11.646  11.225
54751SOL     OW66149   5.600  13.657  10.145
54751SOL    HW166150   5.586  13.566  10.171
54751SOL    HW266151   5.568  13.661  10.055
54752SOL     OW66152   2.557   4.285  14.561
54752SOL    HW166153   2.606   4.295  14.642
54752SOL    HW266154   2.485   4.347  14.568
54753SOL     OW66155   6.789   1.579   3.946
54753SOL    HW166156   6.744   1.623   3.874
54753SOL    HW266157   6.752   1.619   4.025
54754SOL     OW66158   7.129   4.241   0.882
54754SOL    HW166159   7.206   4.298   0.891
54754SOL    HW266160   7.055   4.302   0.873
54755SOL     OW66161   9.599   3.123   0.701
54755SOL    HW166162   9.568   3.133   0.611
54755SOL    HW266163   9.677   3.068   0.694
54756SOL     OW66164  10.224  13.877   6.905
54756SOL    HW166165  10.275  13.898   6.984
54756SOL    HW266166  10.133  13.877   6.934
54757SOL     OW66167   1.595  12.171   5.058
54757SOL    HW166168   1.592  12.265   5.071
54757SOL    HW266169   1.612  12.135   5.145
54758SOL     OW66170   2.031  12.621   2.015
54758SOL    HW166171   1.945  12.589   1.987
54758SOL    HW266172   2.031  12.713   1.988
54759SOL     OW66173   7.464   5.997   8.920
54759SOL    HW166174   7.407   6.073   8.908
54759SOL    HW266175   7.439   5.937   8.849
54760SOL     OW66176  14.203   0.474   8.703
54760SOL    HW166177  14.298   0.470   8.695
54760SOL    HW266178  14.181   0.409   8.769
54761SOL     OW66179  14.173   0.016  10.166
54761SOL    HW166180  14.262  14.861  10.159
54761SOL    HW266181  14.118  14.818  10.170
54762SOL     OW66182  11.698   9.538  14.774
54762SOL    HW166183  11.762   9.552  14.705
54762SOL    HW266184  11.666   9.626  14.795
54763SOL     OW66185   4.848   7.069   4.134
54763SOL    HW166186   4.914   7.128   4.168
54763SOL    HW266187   4.872   7.055   4.042
54764SOL     OW66188  12.209   9.436   7.785
54764SOL    HW166189  12.212   9.527   7.754
54764SOL    HW266190  12.177   9.442   7.875
54765SOL     OW66191   3.874  14.795   4.711
54765SOL    HW166192   3.820  14.720   4.738
54765SOL    HW266193   3.931  14.811   4.786
54766SOL     OW66194  12.065  13.448   3.875
54766SOL    HW166195  12.123  13.519   3.902
54766SOL    HW266196  12.055  13.459   3.781
54767SOL     OW66197   4.330   9.888   7.232
54767SOL    HW166198   4.234   9.888   7.232
54767SOL    HW266199   4.353   9.957   7.170
54768SOL     OW66200   9.181   3.478   1.687
54768SOL    HW166201   9.128   3.554   1.712
54768SOL    HW266202   9.270   3.513   1.678
54769SOL     OW66203   9.188  11.964   0.155
54769SOL    HW166204   9.247  11.912   0.209
54769SOL    HW266205   9.101  11.931   0.175
54770SOL     OW66206   9.370   6.122   4.040
54770SOL    HW166207   9.405   6.099   4.125
54770SOL    HW266208   9.293   6.176   4.059
54771SOL     OW66209  12.284   1.875  13.933
54771SOL    HW166210  12.285   1.846  13.841
54771SOL    HW266211  12.372   1.908  13.948
54772SOL     OW66212   6.702   0.148   9.215
54772SOL    HW166213   6.618   0.130   9.174
54772SOL    HW266214   6.680   0.171   9.306
54773SOL     OW66215   0.338   2.471  11.513
54773SOL    HW166216   0.388   2.548  11.488
54773SOL    HW266217   0.273   2.461  11.444
54774SOL     OW66218   1.301   7.679  13.263
54774SOL    HW166219   1.301   7.767  13.300
54774SOL    HW266220   1.378   7.637  13.302
54775SOL     OW66221  11.419   1.980   0.809
54775SOL    HW166222  11.399   2.066   0.847
54775SOL    HW266223  11.361   1.972   0.734
54776SOL     OW66224   8.002   1.011  12.705
54776SOL    HW166225   7.980   1.077  12.639
54776SOL    HW266226   8.035   0.937  12.654
54777SOL     OW66227   0.979  14.396   4.923
54777SOL    HW166228   0.979  14.371   4.831
54777SOL    HW266229   0.925  14.329   4.966
54778SOL     OW66230   4.375   0.684   3.568
54778SOL    HW166231   4.430   0.737   3.626
54778SOL    HW266232   4.378   0.728   3.484
54779SOL     OW66233   3.669   5.589   4.839
54779SOL    HW166234   3.621   5.607   4.758
54779SOL    HW266235   3.640   5.501   4.865
54780SOL     OW66236  13.325   5.233   9.797
54780SOL    HW166237  13.259   5.269   9.738
54780SOL    HW266238  13.406   5.276   9.771
54781SOL     OW66239  14.704  11.267  10.980
54781SOL    HW166240  14.639  11.337  10.986
54781SOL    HW266241  14.655  11.187  10.998
54782SOL     OW66242   2.133   9.476   5.971
54782SOL    HW166243   2.107   9.550   6.025
54782SOL    HW266244   2.121   9.506   5.881
54783SOL     OW66245   4.188   3.567   7.742
54783SOL    HW166246   4.205   3.629   7.812
54783SOL    HW266247   4.222   3.484   7.775
54784SOL     OW66248   6.698   8.085   1.985
54784SOL    HW166249   6.729   8.137   2.059
54784SOL    HW266250   6.603   8.089   1.990
54785SOL     OW66251  13.711  13.133  13.387
54785SOL    HW166252  13.769  13.155  13.314
54785SOL    HW266253  13.697  13.216  13.432
54786SOL     OW66254   3.941   7.575  13.712
54786SOL    HW166255   4.006   7.559  13.780
54786SOL    HW266256   3.967   7.657  13.672
54787SOL     OW66257   4.120  10.777   0.553
54787SOL    HW166258   4.204  10.794   0.509
54787SOL    HW266259   4.103  10.685   0.537
54788SOL     OW66260  11.416  11.890   2.650
54788SOL    HW166261  11.364  11.811   2.664
54788SOL    HW266262  11.402  11.942   2.729
54789SOL     OW66263  11.224   8.658   3.235
54789SOL    HW166264  11.167   8.677   3.160
54789SOL    HW266265  11.312   8.682   3.204
54790SOL     OW66266   2.946  13.684   5.905
54790SOL    HW166267   2.933  13.594   5.875
54790SOL    HW266268   3.034  13.683   5.944
54791SOL     OW66269   5.336   8.812   7.813
54791SOL    HW166270   5.290   8.852   7.886
54791SOL    HW266271   5.350   8.721   7.842
54792SOL     OW66272   1.388   6.940   6.748
54792SOL    HW166273   1.391   7.031   6.718
54792SOL    HW266274   1.353   6.946   6.837
54793SOL     OW66275   4.140  10.952  11.888
54793SOL    HW166276   4.060  10.909  11.918
54793SOL    HW266277   4.110  11.016  11.823
54794SOL     OW66278   8.313   0.737   4.064
54794SOL    HW166279   8.261   0.690   4.130
54794SOL    HW266280   8.327   0.673   3.994
54795SOL     OW66281   3.771   4.237  10.853
54795SOL    HW166282   3.795   4.273  10.768
54795SOL    HW266283   3.808   4.148  10.852
54796SOL     OW66284   6.575  10.623  10.908
54796SOL    HW166285   6.622  10.545  10.939
54796SOL    HW266286   6.483  10.605  10.931
54797SOL     OW66287   4.717   7.095   7.138
54797SOL    HW166288   4.652   7.127   7.075
54797SOL    HW266289   4.685   7.009   7.165
54798SOL     OW66290  13.275   2.772  10.089
54798SOL    HW166291  13.284   2.858  10.130
54798SOL    HW266292  13.320   2.781  10.005
54799SOL     OW66293  14.182   6.663  10.089
54799SOL    HW166294  14.128   6.649  10.011
54799SOL    HW266295  14.157   6.591  10.148
54800SOL     OW66296   5.659   2.785   9.593
54800SOL    HW166297   5.657   2.730   9.515
54800SOL    HW266298   5.608   2.863   9.570
54801SOL     OW66299   3.626  11.096  13.564
54801SOL    HW166300   3.641  11.017  13.616
54801SOL    HW266301   3.548  11.136  13.604
54802SOL     OW66302  11.377  14.163   5.203
54802SOL    HW166303  11.301  14.153   5.144
54802SOL    HW266304  11.349  14.122   5.285
54803SOL     OW66305   0.656  12.021  10.413
54803SOL    HW166306   0.672  12.023  10.507
54803SOL    HW266307   0.618  11.935  10.397
54804SOL     OW66308   4.356   4.831  10.893
54804SOL    HW166309   4.313   4.870  10.817
54804SOL    HW266310   4.352   4.899  10.960
54805SOL     OW66311   6.972   5.808   3.997
54805SOL    HW166312   7.001   5.824   4.086
54805SOL    HW266313   6.942   5.716   3.997
54806SOL     OW66314   6.998   7.595   1.557
54806SOL    HW166315   6.982   7.585   1.651
54806SOL    HW266316   7.070   7.534   1.538
54807SOL     OW66317  14.388  11.021   5.477
54807SOL    HW166318  14.452  11.092   5.472
54807SOL    HW266319  14.349  11.030   5.564
54808SOL     OW66320   6.799   6.702   1.111
54808SOL    HW166321   6.714   6.660   1.098
54808SOL    HW266322   6.862   6.644   1.068
54809SOL     OW66323  13.536  14.480   7.580
54809SOL    HW166324  13.526  14.387   7.561
54809SOL    HW266325  13.630  14.493   7.590
54810SOL     OW66326   1.322   3.416   8.650
54810SOL    HW166327   1.394   3.461   8.693
54810SOL    HW266328   1.263   3.391   8.721
54811SOL     OW66329   5.524  10.214  13.841
54811SOL    HW166330   5.565  10.238  13.924
54811SOL    HW266331   5.564  10.130  13.818
54812SOL     OW66332   8.422   2.918   7.320
54812SOL    HW166333   8.402   2.986   7.255
54812SOL    HW266334   8.342   2.867   7.328
54813SOL     OW66335   0.396   0.035  10.069
54813SOL    HW166336   0.361   0.001   9.986
54813SOL    HW266337   0.351   0.119  10.081
54814SOL     OW66338  11.008   9.168   5.707
54814SOL    HW166339  11.049   9.252   5.683
54814SOL    HW266340  10.996   9.174   5.802
54815SOL     OW66341   8.896  10.971   2.182
54815SOL    HW166342   8.941  10.902   2.132
54815SOL    HW266343   8.803  10.948   2.177
54816SOL     OW66344   7.138   3.050   6.298
54816SOL    HW166345   7.205   3.118   6.300
54816SOL    HW266346   7.175   2.978   6.350
54817SOL     OW66347  11.276   8.523   0.868
54817SOL    HW166348  11.351   8.571   0.832
54817SOL    HW266349  11.227   8.589   0.916
54818SOL     OW66350   1.552  10.838  12.454
54818SOL    HW166351   1.638  10.797  12.457
54818SOL    HW266352   1.570  10.932  12.460
54819SOL     OW66353   0.860   7.934   7.111
54819SOL    HW166354   0.783   7.991   7.106
54819SOL    HW266355   0.891   7.944   7.201
54820SOL     OW66356   3.436   2.865   4.982
54820SOL    HW166357   3.439   2.814   4.900
54820SOL    HW266358   3.343   2.883   4.996
54821SOL     OW66359   9.249   7.617   8.678
54821SOL    HW166360   9.253   7.712   8.668
54821SOL    HW266361   9.300   7.583   8.605
54822SOL     OW66362   3.646  10.333   9.577
54822SOL    HW166363   3.593  10.255   9.563
54822SOL    HW266364   3.731  10.313   9.537
54823SOL     OW66365   6.194   5.526   8.401
54823SOL    HW166366   6.216   5.617   8.421
54823SOL    HW266367   6.193   5.483   8.487
54824SOL     OW66368   5.058   0.611   1.876
54824SOL    HW166369   5.128   0.656   1.828
54824SOL    HW266370   5.071   0.518   1.856
54825SOL     OW66371  11.948   0.749   6.135
54825SOL    HW166372  12.037   0.757   6.100
54825SOL    HW266373  11.960   0.729   6.228
54826SOL     OW66374  12.700   3.965   6.408
54826SOL    HW166375  12.760   4.039   6.420
54826SOL    HW266376  12.741   3.911   6.341
54827SOL     OW66377   3.558   9.250  10.048
54827SOL    HW166378   3.646   9.231  10.081
54827SOL    HW266379   3.549   9.345  10.057
54828SOL     OW66380   9.308  12.746  10.241
54828SOL    HW166381   9.326  12.656  10.216
54828SOL    HW266382   9.341  12.753  10.331
54829SOL     OW66383   1.540   8.922  10.045
54829SOL    HW166384   1.591   8.888   9.971
54829SOL    HW266385   1.504   8.843  10.087
54830SOL     OW66386  10.587  12.639  14.682
54830SOL    HW166387  10.576  12.571  14.748
54830SOL    HW266388  10.499  12.676  14.671
54831SOL     OW66389   3.928  14.724   8.383
54831SOL    HW166390   3.942  14.784   8.457
54831SOL    HW266391   3.912  14.782   8.308
54832SOL     OW66392  13.833   3.401   3.452
54832SOL    HW166393  13.921   3.368   3.435
54832SOL    HW266394  13.792   3.335   3.508
54833SOL     OW66395   7.809  13.486   8.572
54833SOL    HW166396   7.775  13.554   8.513
54833SOL    HW266397   7.886  13.527   8.613
54834SOL     OW66398   8.896   0.508   5.941
54834SOL    HW166399   8.889   0.581   6.002
54834SOL    HW266400   8.889   0.548   5.854
54835SOL     OW66401   8.361  11.603   3.306
54835SOL    HW166402   8.418  11.655   3.250
54835SOL    HW266403   8.344  11.660   3.382
54836SOL     OW66404   6.325   8.039   1.392
54836SOL    HW166405   6.389   8.108   1.374
54836SOL    HW266406   6.268   8.038   1.315
54837SOL     OW66407  10.966   2.006   5.725
54837SOL    HW166408  10.884   1.988   5.679
54837SOL    HW266409  11.020   2.053   5.662
54838SOL     OW66410   8.989   3.774   5.106
54838SOL    HW166411   9.065   3.808   5.059
54838SOL    HW266412   8.942   3.853   5.136
54839SOL     OW66413   2.561  12.595  11.739
54839SOL    HW166414   2.535  12.570  11.828
54839SOL    HW266415   2.571  12.512  11.693
54840SOL     OW66416   1.519   0.300   2.104
54840SOL    HW166417   1.513   0.270   2.195
54840SOL    HW266418   1.595   0.359   2.104
54841SOL     OW66419  10.273   4.943   1.823
54841SOL    HW166420  10.301   4.896   1.901
54841SOL    HW266421  10.284   5.035   1.846
54842SOL     OW66422   3.691  11.666   9.047
54842SOL    HW166423   3.778  11.632   9.025
54842SOL    HW266424   3.683  11.653   9.141
54843SOL     OW66425  12.306   1.514   1.721
54843SOL    HW166426  12.365   1.569   1.670
54843SOL    HW266427  12.341   1.517   1.810
54844SOL     OW66428   1.670   6.457   3.077
54844SOL    HW166429   1.765   6.465   3.068
54844SOL    HW266430   1.639   6.546   3.089
54845SOL     OW66431   1.238  10.793   5.605
54845SOL    HW166432   1.176  10.799   5.532
54845SOL    HW266433   1.324  10.807   5.565
54846SOL     OW66434  13.639  11.806  14.204
54846SOL    HW166435  13.589  11.798  14.123
54846SOL    HW266436  13.576  11.785  14.273
54847SOL     OW66437   5.302  14.425   3.515
54847SOL    HW166438   5.296  14.499   3.574
54847SOL    HW266439   5.303  14.464   3.427
54848SOL     OW66440   1.911   5.462   2.788
54848SOL    HW166441   1.998   5.439   2.756
54848SOL    HW266442   1.906   5.557   2.777
54849SOL     OW66443  13.977   0.930   9.061
54849SOL    HW166444  13.922   0.859   9.094
54849SOL    HW266445  13.928   0.965   8.987
54850SOL     OW66446   5.868   8.631   9.629
54850SOL    HW166447   5.837   8.542   9.646
54850SOL    HW266448   5.788   8.680   9.606
54851SOL     OW66449   7.099   8.713  10.395
54851SOL    HW166450   7.160   8.764  10.342
54851SOL    HW266451   7.072   8.772  10.465
54852SOL     OW66452   1.008   5.516   1.231
54852SOL    HW166453   0.940   5.451   1.250
54852SOL    HW266454   1.003   5.530   1.137
54853SOL     OW66455  12.355   6.497   7.416
54853SOL    HW166456  12.307   6.539   7.344
54853SOL    HW266457  12.352   6.404   7.395
54854SOL     OW66458   2.998  13.543   7.478
54854SOL    HW166459   3.008  13.542   7.383
54854SOL    HW266460   2.908  13.570   7.493
54855SOL     OW66461   6.401   1.759   3.667
54855SOL    HW166462   6.309   1.755   3.641
54855SOL    HW266463   6.400   1.741   3.761
54856SOL     OW66464   7.690   5.438  11.411
54856SOL    HW166465   7.639   5.462  11.334
54856SOL    HW266466   7.768   5.396  11.376
54857SOL     OW66467   1.127   2.695  10.317
54857SOL    HW166468   1.056   2.688  10.253
54857SOL    HW266469   1.088   2.667  10.399
54858SOL     OW66470   8.157   9.016   4.829
54858SOL    HW166471   8.184   8.925   4.845
54858SOL    HW266472   8.101   9.011   4.752
54859SOL     OW66473  12.144  12.008  13.478
54859SOL    HW166474  12.230  11.993  13.515
54859SOL    HW266475  12.126  11.929  13.427
54860SOL     OW66476   2.997   3.374   1.917
54860SOL    HW166477   2.952   3.450   1.954
54860SOL    HW266478   3.037   3.331   1.993
54861SOL     OW66479   8.167  12.153   9.913
54861SOL    HW166480   8.077  12.125   9.925
54861SOL    HW266481   8.182  12.147   9.819
54862SOL     OW66482   1.184   1.656   0.261
54862SOL    HW166483   1.204   1.568   0.230
54862SOL    HW266484   1.161   1.645   0.354
54863SOL     OW66485   5.981  13.617  10.603
54863SOL    HW166486   6.041  13.662  10.543
54863SOL    HW266487   6.015  13.527  10.607
54864SOL     OW66488   2.798   2.287  10.949
54864SOL    HW166489   2.713   2.323  10.973
54864SOL    HW266490   2.838   2.356  10.895
54865SOL     OW66491   7.911  10.869   3.002
54865SOL    HW166492   7.846  10.937   2.984
54865SOL    HW266493   7.965  10.905   3.072
54866SOL     OW66494   5.361   6.062   0.886
54866SOL    HW166495   5.409   5.981   0.874
54866SOL    HW266496   5.323   6.080   0.800
54867SOL     OW66497   4.780   6.496   6.366
54867SOL    HW166498   4.872   6.508   6.392
54867SOL    HW266499   4.730   6.536   6.437
54868SOL     OW66500   1.781   0.553   1.025
54868SOL    HW166501   1.686   0.553   1.016
54868SOL    HW266502   1.814   0.518   0.942
54869SOL     OW66503   0.298  12.145   4.538
54869SOL    HW166504   0.321  12.056   4.564
54869SOL    HW266505   0.247  12.178   4.612
54870SOL     OW66506  12.365   7.906   8.978
54870SOL    HW166507  12.443   7.880   8.928
54870SOL    HW266508  12.342   7.828   9.028
54871SOL     OW66509   0.611   0.029   7.594
54871SOL    HW166510   0.544   0.098   7.602
54871SOL    HW266511   0.689   0.066   7.635
54872SOL     OW66512   1.356  14.419   2.253
54872SOL    HW166513   1.261  14.429   2.265
54872SOL    HW266514   1.387  14.507   2.235
54873SOL     OW66515   0.750   3.945   4.496
54873SOL    HW166516   0.670   3.924   4.544
54873SOL    HW266517   0.727   4.020   4.441
54874SOL     OW66518   5.881  14.644   0.851
54874SOL    HW166519   5.918  14.595   0.777
54874SOL    HW266520   5.946  14.711   0.870
54875SOL     OW66521   1.032   5.982  11.507
54875SOL    HW166522   1.068   6.061  11.547
54875SOL    HW266523   1.053   5.990  11.414
54876SOL     OW66524   4.367  14.231   9.219
54876SOL    HW166525   4.410  14.288   9.155
54876SOL    HW266526   4.280  14.269   9.231
54877SOL     OW66527   9.190   8.658   2.745
54877SOL    HW166528   9.095   8.648   2.759
54877SOL    HW266529   9.198   8.696   2.658
54878SOL     OW66530   6.367   5.275   5.394
54878SOL    HW166531   6.455   5.265   5.429
54878SOL    HW266532   6.380   5.296   5.301
54879SOL     OW66533   4.551   4.393   0.623
54879SOL    HW166534   4.567   4.454   0.696
54879SOL    HW266535   4.555   4.448   0.545
54880SOL     OW66536   0.938   0.545   6.077
54880SOL    HW166537   0.964   0.634   6.054
54880SOL    HW266538   0.964   0.535   6.169
54881SOL     OW66539   6.374  14.654   3.993
54881SOL    HW166540   6.321  14.634   3.916
54881SOL    HW266541   6.459  14.614   3.974
54882SOL     OW66542   2.828   8.385   2.107
54882SOL    HW166543   2.765   8.322   2.141
54882SOL    HW266544   2.832   8.454   2.174
54883SOL     OW66545  13.298   2.236  14.128
54883SOL    HW166546  13.367   2.170  14.137
54883SOL    HW266547  13.313   2.296  14.201
54884SOL     OW66548   4.212  11.747   1.048
54884SOL    HW166549   4.186  11.655   1.047
54884SOL    HW266550   4.308  11.745   1.052
54885SOL     OW66551  12.774   0.670   3.231
54885SOL    HW166552  12.742   0.730   3.163
54885SOL    HW266553  12.701   0.661   3.292
54886SOL     OW66554   1.546  11.258   1.033
54886SOL    HW166555   1.608  11.267   1.106
54886SOL    HW266556   1.591  11.295   0.958
54887SOL     OW66557   9.290   9.238  13.017
54887SOL    HW166558   9.257   9.163  13.066
54887SOL    HW266559   9.216   9.300  13.015
54888SOL     OW66560   5.044   2.510   5.004
54888SOL    HW166561   5.066   2.572   5.074
54888SOL    HW266562   4.998   2.563   4.939
54889SOL     OW66563   3.247   6.321   4.390
54889SOL    HW166564   3.219   6.279   4.471
54889SOL    HW266565   3.334   6.356   4.410
54890SOL     OW66566   6.604   9.697   3.489
54890SOL    HW166567   6.521   9.686   3.442
54890SOL    HW266568   6.620   9.611   3.529
54891SOL     OW66569  14.378  10.529   8.736
54891SOL    HW166570  14.352  10.593   8.802
54891SOL    HW266571  14.453  10.568   8.692
54892SOL     OW66572   4.907  10.194  14.447
54892SOL    HW166573   4.917  10.226  14.536
54892SOL    HW266574   4.846  10.121  14.454
54893SOL     OW66575   4.977   0.601   0.075
54893SOL    HW166576   5.031   0.679   0.064
54893SOL    HW266577   4.934   0.589  14.871
54894SOL     OW66578  14.184   5.158   3.017
54894SOL    HW166579  14.127   5.234   3.030
54894SOL    HW266580  14.271   5.189   3.040
54895SOL     OW66581  10.584  10.651  13.251
54895SOL    HW166582  10.563  10.725  13.194
54895SOL    HW266583  10.502  10.604  13.262
54896SOL     OW66584   1.370   0.601   3.033
54896SOL    HW166585   1.290   0.555   3.060
54896SOL    HW266586   1.348   0.694   3.042
54897SOL     OW66587   5.275   4.035  12.701
54897SOL    HW166588   5.189   3.997  12.686
54897SOL    HW266589   5.331   3.995  12.634
54898SOL     OW66590   8.831   3.228  12.206
54898SOL    HW166591   8.822   3.221  12.111
54898SOL    HW266592   8.909   3.175  12.227
54899SOL     OW66593  14.307   5.006   5.077
54899SOL    HW166594  14.383   4.991   5.133
54899SOL    HW266595  14.297   4.925   5.027
54900SOL     OW66596   6.824   1.408   0.823
54900SOL    HW166597   6.905   1.425   0.775
54900SOL    HW266598   6.754   1.421   0.759
54901SOL     OW66599   4.828  12.875   4.076
54901SOL    HW166600   4.861  12.849   4.161
54901SOL    HW266601   4.759  12.810   4.056
54902SOL     OW66602   4.171   9.203   2.024
54902SOL    HW166603   4.255   9.187   1.982
54902SOL    HW266604   4.163   9.135   2.091
54903SOL     OW66605   4.021   9.917   1.390
54903SOL    HW166606   3.976   9.983   1.337
54903SOL    HW266607   4.068   9.967   1.456
54904SOL     OW66608  11.353   8.072   9.797
54904SOL    HW166609  11.377   8.027   9.878
54904SOL    HW266610  11.289   8.138   9.824
54905SOL     OW66611  12.474  14.136  14.645
54905SOL    HW166612  12.458  14.196  14.572
54905SOL    HW266613  12.568  14.141  14.660
54906SOL     OW66614   6.731  11.644   0.793
54906SOL    HW166615   6.637  11.624   0.795
54906SOL    HW266616   6.741  11.701   0.717
54907SOL     OW66617   6.885   2.306   0.060
54907SOL    HW166618   6.968   2.353   0.066
54907SOL    HW266619   6.822   2.371   0.030
54908SOL     OW66620  13.987   9.227  13.703
54908SOL    HW166621  14.077   9.195  13.701
54908SOL    HW266622  13.934   9.153  13.674
54909SOL     OW66623   9.754   6.139   1.730
54909SOL    HW166624   9.731   6.194   1.655
54909SOL    HW266625   9.815   6.074   1.694
54910SOL     OW66626   4.408  14.156  14.837
54910SOL    HW166627   4.347  14.221  14.871
54910SOL    HW266628   4.408  14.170  14.743
54911SOL     OW66629  14.651   2.375   5.600
54911SOL    HW166630  14.744   2.354   5.610
54911SOL    HW266631  14.618   2.379   5.690
54912SOL     OW66632  10.240   8.990   3.255
54912SOL    HW166633  10.263   8.971   3.346
54912SOL    HW266634  10.167   8.931   3.236
54913SOL     OW66635  10.227   0.404  12.625
54913SOL    HW166636  10.183   0.434  12.545
54913SOL    HW266637  10.315   0.440  12.619
54914SOL     OW66638   8.020   8.137   4.499
54914SOL    HW166639   7.949   8.181   4.452
54914SOL    HW266640   8.048   8.067   4.440
54915SOL     OW66641   7.703  12.124   1.931
54915SOL    HW166642   7.632  12.167   1.977
54915SOL    HW266643   7.765  12.099   1.999
54916SOL     OW66644   0.032   9.105   9.405
54916SOL    HW166645   0.113   9.155   9.408
54916SOL    HW266646   0.006   9.095   9.497
54917SOL     OW66647   6.432   3.206  12.578
54917SOL    HW166648   6.380   3.157  12.642
54917SOL    HW266649   6.386   3.196  12.495
54918SOL     OW66650   4.531   3.503   0.712
54918SOL    HW166651   4.616   3.500   0.756
54918SOL    HW266652   4.544   3.453   0.631
54919SOL     OW66653   3.530   0.125   8.453
54919SOL    HW166654   3.474   0.049   8.470
54919SOL    HW266655   3.537   0.128   8.357
54920SOL     OW66656   0.960   8.873   3.529
54920SOL    HW166657   0.882   8.818   3.523
54920SOL    HW266658   1.033   8.810   3.531
54921SOL     OW66659   7.694  10.457   7.778
54921SOL    HW166660   7.722  10.374   7.738
54921SOL    HW266661   7.775  10.508   7.785
54922SOL     OW66662   0.247  10.845   1.060
54922SOL    HW166663   0.193  10.883   1.129
54922SOL    HW266664   0.209  10.878   0.979
54923SOL     OW66665   1.752  10.108   5.753
54923SOL    HW166666   1.812  10.062   5.812
54923SOL    HW266667   1.751  10.198   5.784
54924SOL     OW66668   5.903   9.384  13.549
54924SOL    HW166669   5.916   9.330  13.627
54924SOL    HW266670   5.842   9.452  13.576
54925SOL     OW66671   9.728   5.978  10.248
54925SOL    HW166672   9.740   5.885  10.270
54925SOL    HW266673   9.642   5.981  10.206
54926SOL     OW66674  14.114   9.451   0.857
54926SOL    HW166675  14.111   9.371   0.910
54926SOL    HW266676  14.206   9.461   0.832
54927SOL     OW66677   3.041   7.348   3.622
54927SOL    HW166678   3.016   7.366   3.531
54927SOL    HW266679   2.987   7.273   3.647
54928SOL     OW66680   7.844   1.230   6.164
54928SOL    HW166681   7.851   1.323   6.141
54928SOL    HW266682   7.897   1.222   6.244
54929SOL     OW66683  14.274  12.516   0.082
54929SOL    HW166684  14.335  12.450   0.047
54929SOL    HW266685  14.269  12.496   0.176
54930SOL     OW66686   3.871   0.313   5.450
54930SOL    HW166687   3.883   0.366   5.371
54930SOL    HW266688   3.807   0.361   5.502
54931SOL     OW66689   2.806  13.833   0.484
54931SOL    HW166690   2.800  13.855   0.577
54931SOL    HW266691   2.896  13.857   0.460
54932SOL     OW66692   9.889   5.607   7.071
54932SOL    HW166693   9.981   5.610   7.045
54932SOL    HW266694   9.890   5.625   7.165
54933SOL     OW66695   1.566   7.855   4.599
54933SOL    HW166696   1.655   7.881   4.576
54933SOL    HW266697   1.528   7.932   4.642
54934SOL     OW66698   8.929   8.025  13.250
54934SOL    HW166699   8.970   8.111  13.248
54934SOL    HW266700   8.835   8.042  13.240
54935SOL     OW66701   2.597  12.647   6.679
54935SOL    HW166702   2.588  12.739   6.703
54935SOL    HW266703   2.611  12.601   6.762
54936SOL     OW66704   8.195   3.445  13.612
54936SOL    HW166705   8.139   3.450  13.690
54936SOL    HW266706   8.151   3.502  13.548
54937SOL     OW66707  11.952  11.948   1.930
54937SOL    HW166708  11.886  11.890   1.893
54937SOL    HW266709  11.997  11.985   1.853
54938SOL     OW66710   5.951  12.449   7.308
54938SOL    HW166711   5.910  12.508   7.371
54938SOL    HW266712   5.943  12.494   7.224
54939SOL     OW66713   8.456  14.830  13.732
54939SOL    HW166714   8.366  14.812  13.706
54939SOL    HW266715   8.504  14.749  13.712
54940SOL     OW66716   0.696   3.807   4.936
54940SOL    HW166717   0.682   3.725   4.889
54940SOL    HW266718   0.608   3.841   4.951
54941SOL     OW66719   7.086   3.021  14.023
54941SOL    HW166720   7.146   2.948  14.038
54941SOL    HW266721   7.005   2.994  14.067
54942SOL     OW66722   8.708   6.699   5.880
54942SOL    HW166723   8.642   6.758   5.917
54942SOL    HW266724   8.725   6.636   5.951
54943SOL     OW66725   8.302   0.229  13.748
54943SOL    HW166726   8.280   0.277  13.828
54943SOL    HW266727   8.312   0.138  13.777
54944SOL     OW66728   3.238   3.408  14.309
54944SOL    HW166729   3.197   3.362  14.383
54944SOL    HW266730   3.263   3.339  14.249
54945SOL     OW66731   9.700   5.861   5.474
54945SOL    HW166732   9.784   5.879   5.516
54945SOL    HW266733   9.721   5.796   5.407
54946SOL     OW66734   5.495   5.720   4.124
54946SOL    HW166735   5.527   5.779   4.055
54946SOL    HW266736   5.487   5.635   4.081
54947SOL     OW66737   6.276   5.009   5.220
54947SOL    HW166738   6.247   4.964   5.299
54947SOL    HW266739   6.258   5.101   5.237
54948SOL     OW66740  14.382   2.373  13.433
54948SOL    HW166741  14.313   2.438  13.423
54948SOL    HW266742  14.434   2.404  13.507
54949SOL     OW66743   7.758   8.344  11.667
54949SOL    HW166744   7.664   8.328  11.676
54949SOL    HW266745   7.795   8.261  11.639
54950SOL     OW66746   7.952  12.027   0.194
54950SOL    HW166747   8.016  11.992   0.256
54950SOL    HW266748   7.912  11.950   0.154
54951SOL     OW66749   7.477   0.830   3.263
54951SOL    HW166750   7.490   0.798   3.173
54951SOL    HW266751   7.566   0.844   3.296
54952SOL     OW66752   7.103   6.492   2.042
54952SOL    HW166753   7.104   6.585   2.020
54952SOL    HW266754   7.018   6.479   2.084
54953SOL     OW66755   5.918  14.249  10.528
54953SOL    HW166756   5.827  14.268  10.549
54953SOL    HW266757   5.962  14.247  10.613
54954SOL     OW66758   3.550   7.254   3.184
54954SOL    HW166759   3.601   7.227   3.107
54954SOL    HW266760   3.595   7.214   3.258
54955SOL     OW66761   0.755   2.744   7.602
54955SOL    HW166762   0.722   2.678   7.663
54955SOL    HW266763   0.850   2.745   7.617
54956SOL     OW66764  13.837  12.626  11.816
54956SOL    HW166765  13.777  12.635  11.741
54956SOL    HW266766  13.810  12.694  11.877
54957SOL     OW66767   0.970  13.276   2.183
54957SOL    HW166768   1.031  13.214   2.224
54957SOL    HW266769   1.025  13.348   2.152
54958SOL     OW66770   7.211   5.980   6.541
54958SOL    HW166771   7.175   5.908   6.490
54958SOL    HW266772   7.294   5.947   6.576
54959SOL     OW66773  13.528   8.961   2.958
54959SOL    HW166774  13.592   8.941   3.026
54959SOL    HW266775  13.562   9.038   2.914
54960SOL     OW66776   7.935   7.720  10.982
54960SOL    HW166777   7.953   7.715  10.888
54960SOL    HW266778   7.878   7.645  11.000
54961SOL     OW66779  10.578  13.231  11.166
54961SOL    HW166780  10.635  13.157  11.188
54961SOL    HW266781  10.506  13.192  11.117
54962SOL     OW66782  10.002  14.300   6.123
54962SOL    HW166783  10.047  14.329   6.202
54962SOL    HW266784   9.926  14.359   6.116
54963SOL     OW66785   2.295  14.368   6.866
54963SOL    HW166786   2.244  14.352   6.946
54963SOL    HW266787   2.368  14.307   6.871
54964SOL     OW66788  14.023   2.971   2.406
54964SOL    HW166789  14.075   2.943   2.330
54964SOL    HW266790  13.936   2.933   2.391
54965SOL     OW66791  13.300  14.805   6.871
54965SOL    HW166792  13.273  14.796   6.962
54965SOL    HW266793  13.254  14.734   6.826
54966SOL     OW66794   7.028  12.892   8.512
54966SOL    HW166795   7.022  12.977   8.556
54966SOL    HW266796   7.115  12.893   8.472
54967SOL     OW66797  11.785  13.455   7.169
54967SOL    HW166798  11.819  13.468   7.080
54967SOL    HW266799  11.836  13.513   7.224
54968SOL     OW66800   0.524  11.168   8.190
54968SOL    HW166801   0.604  11.115   8.193
54968SOL    HW266802   0.498  11.166   8.098
54969SOL     OW66803   2.008   7.134   2.242
54969SOL    HW166804   1.950   7.099   2.175
54969SOL    HW266805   1.956   7.136   2.322
54970SOL     OW66806  12.361   9.384   0.264
54970SOL    HW166807  12.356   9.470   0.307
54970SOL    HW266808  12.275   9.345   0.278
54971SOL     OW66809   9.927  14.824   5.144
54971SOL    HW166810   9.980  14.751   5.177
54971SOL    HW266811   9.898  14.796   5.057
54972SOL     OW66812  13.083   8.011   0.873
54972SOL    HW166813  13.121   8.097   0.856
54972SOL    HW266814  13.004   8.029   0.924
54973SOL     OW66815   2.228   7.270   0.850
54973SOL    HW166816   2.281   7.348   0.865
54973SOL    HW266817   2.288   7.197   0.862
54974SOL     OW66818  13.438  13.127  13.325
54974SOL    HW166819  13.526  13.118  13.360
54974SOL    HW266820  13.452  13.153  13.233
54975SOL     OW66821  12.922   7.117  13.432
54975SOL    HW166822  12.986   7.084  13.495
54975SOL    HW266823  12.837   7.090  13.466
54976SOL     OW66824   9.951  12.240   6.087
54976SOL    HW166825   9.967  12.304   6.018
54976SOL    HW266826  10.031  12.187   6.091
54977SOL     OW66827  12.839  11.651  11.134
54977SOL    HW166828  12.857  11.557  11.139
54977SOL    HW266829  12.764  11.659  11.076
54978SOL     OW66830  12.246   4.140   9.671
54978SOL    HW166831  12.161   4.101   9.651
54978SOL    HW266832  12.264   4.198   9.598
54979SOL     OW66833   5.428  10.397  10.129
54979SOL    HW166834   5.419  10.433  10.041
54979SOL    HW266835   5.508  10.344  10.125
54980SOL     OW66836   6.346   6.621   0.927
54980SOL    HW166837   6.379   6.688   0.867
54980SOL    HW266838   6.308   6.671   1.000
54981SOL     OW66839   7.142   9.843   1.515
54981SOL    HW166840   7.120   9.796   1.596
54981SOL    HW266841   7.093   9.924   1.521
54982SOL     OW66842   0.858  12.388   0.346
54982SOL    HW166843   0.882  12.371   0.437
54982SOL    HW266844   0.874  12.481   0.334
54983SOL     OW66845   1.095  13.878   0.133
54983SOL    HW166846   1.035  13.845   0.066
54983SOL    HW266847   1.145  13.946   0.088
54984SOL     OW66848   3.076   2.276   1.633
54984SOL    HW166849   3.138   2.209   1.603
54984SOL    HW266850   3.104   2.356   1.588
54985SOL     OW66851  11.390  11.923   8.763
54985SOL    HW166852  11.345  11.847   8.802
54985SOL    HW266853  11.441  11.961   8.834
54986SOL     OW66854  12.425   3.291   8.744
54986SOL    HW166855  12.379   3.235   8.682
54986SOL    HW266856  12.506   3.316   8.699
54987SOL     OW66857   8.570  12.843  13.546
54987SOL    HW166858   8.552  12.750  13.532
54987SOL    HW266859   8.565  12.882  13.459
54988SOL     OW66860   8.712   7.747   2.350
54988SOL    HW166861   8.719   7.841   2.365
54988SOL    HW266862   8.686   7.711   2.435
54989SOL     OW66863   9.621   3.368  13.740
54989SOL    HW166864   9.717   3.368  13.748
54989SOL    HW266865   9.591   3.317  13.815
54990SOL     OW66866   8.000   1.721   6.136
54990SOL    HW166867   7.936   1.773   6.185
54990SOL    HW266868   8.082   1.731   6.184
54991SOL     OW66869   8.712   0.280  14.857
54991SOL    HW166870   8.760   0.251  14.779
54991SOL    HW266871   8.693   0.372  14.841
54992SOL     OW66872   9.319   8.431   7.361
54992SOL    HW166873   9.371   8.374   7.305
54992SOL    HW266874   9.252   8.466   7.302
54993SOL     OW66875   9.366   9.069   0.224
54993SOL    HW166876   9.355   9.072   0.129
54993SOL    HW266877   9.309   9.139   0.257
54994SOL     OW66878   4.138   2.097   8.826
54994SOL    HW166879   4.163   2.052   8.745
54994SOL    HW266880   4.110   2.184   8.797
54995SOL     OW66881   3.119   3.198   0.553
54995SOL    HW166882   3.031   3.216   0.584
54995SOL    HW266883   3.113   3.206   0.457
54996SOL     OW66884   1.960   4.402   9.853
54996SOL    HW166885   1.995   4.489   9.872
54996SOL    HW266886   1.872   4.418   9.820
54997SOL     OW66887  12.930  14.102   1.788
54997SOL    HW166888  12.889  14.105   1.874
54997SOL    HW266889  12.870  14.049   1.735
54998SOL     OW66890   8.609  13.508   6.886
54998SOL    HW166891   8.596  13.584   6.829
54998SOL    HW266892   8.625  13.545   6.973
54999SOL     OW66893   1.280  10.998   6.878
54999SOL    HW166894   1.186  11.003   6.862
54999SOL    HW266895   1.290  10.925   6.939
55000SOL     OW66896  14.628   0.009   1.996
55000SOL    HW166897  14.627  14.829   1.922
55000SOL    HW266898  14.715   0.050   1.992
55001SOL     OW66899   7.715   9.940   1.001
55001SOL    HW166900   7.786   9.965   0.942
55001SOL    HW266901   7.644  10.001   0.979
55002SOL     OW66902   4.566  12.865  12.774
55002SOL    HW166903   4.484  12.831  12.810
55002SOL    HW266904   4.549  12.879  12.681
55003SOL     OW66905   0.434  12.493  10.425
55003SOL    HW166906   0.491  12.566  10.449
55003SOL    HW266907   0.409  12.511  10.335
55004SOL     OW66908   7.903   1.734  11.993
55004SOL    HW166909   7.854   1.790  12.053
55004SOL    HW266910   7.958   1.794  11.943
55005SOL     OW66911   8.985   4.660   6.155
55005SOL    HW166912   9.005   4.600   6.227
55005SOL    HW266913   8.927   4.726   6.194
55006SOL     OW66914  10.146   0.496   5.689
55006SOL    HW166915  10.072   0.529   5.638
55006SOL    HW266916  10.180   0.423   5.637
55007SOL     OW66917   2.749   5.672   7.186
55007SOL    HW166918   2.778   5.605   7.124
55007SOL    HW266919   2.831   5.710   7.219
55008SOL     OW66920  12.680  11.594   3.307
55008SOL    HW166921  12.611  11.635   3.359
55008SOL    HW266922  12.638  11.573   3.223
55009SOL     OW66923   0.381   2.073   9.458
55009SOL    HW166924   0.311   2.083   9.522
55009SOL    HW266925   0.348   2.116   9.379
55010SOL     OW66926   7.742   7.961   9.260
55010SOL    HW166927   7.722   8.047   9.224
55010SOL    HW266928   7.665   7.937   9.310
55011SOL     OW66929  13.712  12.028  10.499
55011SOL    HW166930  13.682  12.118  10.482
55011SOL    HW266931  13.805  12.038  10.520
55012SOL     OW66932   3.290   1.904   8.510
55012SOL    HW166933   3.334   1.904   8.426
55012SOL    HW266934   3.210   1.852   8.495
55013SOL     OW66935   5.229  11.124   7.632
55013SOL    HW166936   5.259  11.042   7.593
55013SOL    HW266937   5.304  11.156   7.682
55014SOL     OW66938   8.075   1.061   2.417
55014SOL    HW166939   8.150   1.120   2.411
55014SOL    HW266940   8.105   0.981   2.373
55015SOL     OW66941  10.224  11.535  11.627
55015SOL    HW166942  10.133  11.559  11.608
55015SOL    HW266943  10.221  11.493  11.713
55016SOL     OW66944   9.127   5.645   0.133
55016SOL    HW166945   9.061   5.576   0.133
55016SOL    HW266946   9.127   5.678   0.223
55017SOL     OW66947   4.276   3.565   4.416
55017SOL    HW166948   4.346   3.558   4.351
55017SOL    HW266949   4.209   3.504   4.386
55018SOL     OW66950   7.402   2.856   7.648
55018SOL    HW166951   7.479   2.809   7.616
55018SOL    HW266952   7.345   2.789   7.685
55019SOL     OW66953  10.974   6.683   1.329
55019SOL    HW166954  10.989   6.650   1.418
55019SOL    HW266955  10.880   6.697   1.324
55020SOL     OW66956   8.471  13.774   6.790
55020SOL    HW166957   8.501  13.851   6.839
55020SOL    HW266958   8.377  13.771   6.805
55021SOL     OW66959  10.022   6.282   7.122
55021SOL    HW166960   9.968   6.314   7.195
55021SOL    HW266961  10.106   6.326   7.133
55022SOL     OW66962  12.209   1.293   5.547
55022SOL    HW166963  12.142   1.332   5.604
55022SOL    HW266964  12.196   1.336   5.462
55023SOL     OW66965   5.508   5.884  11.272
55023SOL    HW166966   5.475   5.950  11.334
55023SOL    HW266967   5.557   5.934  11.207
55024SOL     OW66968   2.362  13.932  12.243
55024SOL    HW166969   2.285  13.949  12.188
55024SOL    HW266970   2.405  13.857  12.201
55025SOL     OW66971   6.952   3.045   0.759
55025SOL    HW166972   6.960   2.982   0.831
55025SOL    HW266973   6.873   3.094   0.780
55026SOL     OW66974   6.279  12.294  14.647
55026SOL    HW166975   6.266  12.243  14.727
55026SOL    HW266976   6.266  12.385  14.675
55027SOL     OW66977   0.680  12.084   8.090
55027SOL    HW166978   0.638  12.089   8.176
55027SOL    HW266979   0.771  12.060   8.109
55028SOL     OW66980   1.513   3.130   2.446
55028SOL    HW166981   1.493   3.177   2.527
55028SOL    HW266982   1.575   3.062   2.473
55029SOL     OW66983  14.849  13.800   3.335
55029SOL    HW166984  14.772  13.805   3.279
55029SOL    HW266985  14.835  13.721   3.388
55030SOL     OW66986   5.403  11.219  13.599
55030SOL    HW166987   5.349  11.287  13.560
55030SOL    HW266988   5.369  11.137  13.563
55031SOL     OW66989   4.980  13.389   1.730
55031SOL    HW166990   4.962  13.435   1.812
55031SOL    HW266991   4.949  13.449   1.662
55032SOL     OW66992   9.985   2.774   5.166
55032SOL    HW166993   9.908   2.802   5.116
55032SOL    HW266994   9.954   2.765   5.256
55033SOL     OW66995   3.463   3.750  13.436
55033SOL    HW166996   3.409   3.809  13.488
55033SOL    HW266997   3.553   3.770  13.462
55034SOL     OW66998   4.350   1.291   3.068
55034SOL    HW166999   4.391   1.368   3.108
55034SOL    HW267000   4.347   1.311   2.975
55035SOL     OW67001   9.928   4.819   3.882
55035SOL    HW167002   9.945   4.789   3.971
55035SOL    HW267003   9.939   4.914   3.887
55036SOL     OW67004  13.615   1.956  12.292
55036SOL    HW167005  13.645   1.909  12.215
55036SOL    HW267006  13.695   1.972  12.343
55037SOL     OW67007   3.293  14.746  13.256
55037SOL    HW167008   3.310  14.693  13.179
55037SOL    HW267009   3.260  14.829  13.222
55038SOL     OW67010  12.388   3.183  10.191
55038SOL    HW167011  12.382   3.088  10.178
55038SOL    HW267012  12.331   3.220  10.124
55039SOL     OW67013  10.471   6.301   6.301
55039SOL    HW167014  10.562   6.287   6.276
55039SOL    HW267015  10.454   6.235   6.368
55040SOL     OW67016   8.867   0.738   6.108
55040SOL    HW167017   8.811   0.750   6.185
55040SOL    HW267018   8.840   0.808   6.048
55041SOL     OW67019   2.943   0.299   1.585
55041SOL    HW167020   3.036   0.321   1.583
55041SOL    HW267021   2.900   0.370   1.538
55042SOL     OW67022   0.864   7.681   8.008
55042SOL    HW167023   0.939   7.732   8.037
55042SOL    HW267024   0.823   7.650   8.090
55043SOL     OW67025  14.296  12.673   2.830
55043SOL    HW167026  14.318  12.590   2.789
55043SOL    HW267027  14.363  12.734   2.799
55044SOL     OW67028   2.995  10.767   2.453
55044SOL    HW167029   2.951  10.848   2.482
55044SOL    HW267030   2.939  10.732   2.384
55045SOL     OW67031  12.308   9.744   2.224
55045SOL    HW167032  12.229   9.697   2.198
55045SOL    HW267033  12.355   9.759   2.142
55046SOL     OW67034   0.414   7.299   1.014
55046SOL    HW167035   0.415   7.365   1.084
55046SOL    HW267036   0.498   7.255   1.022
55047SOL     OW67037   0.895   8.617  11.824
55047SOL    HW167038   0.837   8.588  11.894
55047SOL    HW267039   0.890   8.547  11.758
55048SOL     OW67040  10.955  10.385   7.740
55048SOL    HW167041  11.021  10.323   7.771
55048SOL    HW267042  10.894  10.333   7.688
55049SOL     OW67043  12.268  13.970  13.826
55049SOL    HW167044  12.220  13.896  13.863
55049SOL    HW267045  12.295  13.940  13.740
55050SOL     OW67046   0.591   1.496   9.917
55050SOL    HW167047   0.520   1.542   9.873
55050SOL    HW267048   0.655   1.479   9.848
55051SOL     OW67049   5.440   9.251  14.726
55051SOL    HW167050   5.450   9.323  14.664
55051SOL    HW267051   5.462   9.173  14.675
55052SOL     OW67052  13.943   3.885   2.091
55052SOL    HW167053  13.882   3.811   2.087
55052SOL    HW267054  14.016   3.859   2.036
55053SOL     OW67055   4.769   4.078  10.654
55053SOL    HW167056   4.847   4.027  10.632
55053SOL    HW267057   4.797   4.169  10.643
55054SOL     OW67058  13.081   4.529   7.567
55054SOL    HW167059  13.049   4.558   7.481
55054SOL    HW267060  13.151   4.466   7.547
55055SOL     OW67061   8.171   2.438  12.375
55055SOL    HW167062   8.148   2.472  12.289
55055SOL    HW267063   8.210   2.512  12.421
55056SOL     OW67064   3.187   3.802   6.310
55056SOL    HW167065   3.137   3.881   6.291
55056SOL    HW267066   3.124   3.744   6.353
55057SOL     OW67067   9.153   2.050  10.505
55057SOL    HW167068   9.237   2.088  10.532
55057SOL    HW267069   9.100   2.051  10.585
55058SOL     OW67070  13.876   2.485   6.751
55058SOL    HW167071  13.958   2.524   6.785
55058SOL    HW267072  13.871   2.400   6.793
55059SOL     OW67073   0.881  11.817   3.374
55059SOL    HW167074   0.976  11.820   3.384
55059SOL    HW267075   0.868  11.789   3.283
55060SOL     OW67076   2.207   2.929   5.863
55060SOL    HW167077   2.157   2.943   5.783
55060SOL    HW267078   2.249   3.013   5.880
55061SOL     OW67079   4.691  11.650  12.580
55061SOL    HW167080   4.645  11.684  12.503
55061SOL    HW267081   4.622  11.623  12.639
55062SOL     OW67082   5.664   4.215   2.016
55062SOL    HW167083   5.568   4.217   2.016
55062SOL    HW267084   5.687   4.179   2.102
55063SOL     OW67085  11.484   2.631  14.168
55063SOL    HW167086  11.482   2.613  14.074
55063SOL    HW267087  11.400   2.671  14.187
55064SOL     OW67088   1.768   1.505  12.538
55064SOL    HW167089   1.714   1.452  12.479
55064SOL    HW267090   1.747   1.472  12.625
55065SOL     OW67091   2.544  12.018   5.839
55065SOL    HW167092   2.484  12.037   5.767
55065SOL    HW267093   2.493  12.036   5.918
55066SOL     OW67094   8.397   6.481   3.161
55066SOL    HW167095   8.398   6.547   3.230
55066SOL    HW267096   8.402   6.532   3.080
55067SOL     OW67097  14.855  12.405   5.600
55067SOL    HW167098  14.764  12.400   5.629
55067SOL    HW267099   0.000  12.495   5.619
55068SOL     OW67100   6.786   6.974   2.857
55068SOL    HW167101   6.769   6.894   2.906
55068SOL    HW267102   6.865   7.010   2.898
55069SOL     OW67103   8.519   7.340  11.970
55069SOL    HW167104   8.491   7.276  11.905
55069SOL    HW267105   8.442   7.352  12.026
55070SOL     OW67106  10.390   4.076   7.552
55070SOL    HW167107  10.354   4.064   7.640
55070SOL    HW267108  10.318   4.054   7.493
55071SOL     OW67109   1.630   2.128  10.318
55071SOL    HW167110   1.663   2.051  10.272
55071SOL    HW267111   1.542   2.103  10.347
55072SOL     OW67112   2.428  12.450  11.959
55072SOL    HW167113   2.445  12.423  12.050
55072SOL    HW267114   2.341  12.414  11.940
55073SOL     OW67115  14.263  13.839  12.141
55073SOL    HW167116  14.312  13.896  12.082
55073SOL    HW267117  14.210  13.899  12.193
55074SOL     OW67118  12.867   2.522   1.708
55074SOL    HW167119  12.778   2.521   1.672
55074SOL    HW267120  12.873   2.442   1.761
55075SOL     OW67121   0.546   0.779  11.712
55075SOL    HW167122   0.526   0.825  11.794
55075SOL    HW267123   0.640   0.762  11.717
55076SOL     OW67124   1.886   8.332   0.792
55076SOL    HW167125   1.812   8.276   0.769
55076SOL    HW267126   1.893   8.325   0.887
55077SOL     OW67127   0.664  10.089   1.682
55077SOL    HW167128   0.584  10.068   1.634
55077SOL    HW267129   0.636  10.097   1.773
55078SOL     OW67130   4.059  14.844   9.158
55078SOL    HW167131   4.015   0.010   9.229
55078SOL    HW267132   4.141   0.011   9.146
55079SOL     OW67133   7.786   4.772  10.388
55079SOL    HW167134   7.839   4.717  10.330
55079SOL    HW267135   7.768   4.716  10.464
55080SOL     OW67136   2.464   9.936   4.905
55080SOL    HW167137   2.493   9.850   4.876
55080SOL    HW267138   2.375   9.923   4.937
55081SOL     OW67139   1.042   5.651   9.850
55081SOL    HW167140   1.027   5.620   9.761
55081SOL    HW267141   0.995   5.589   9.905
55082SOL     OW67142  10.240  11.795  12.664
55082SOL    HW167143  10.263  11.821  12.753
55082SOL    HW267144  10.212  11.876  12.622
55083SOL     OW67145   9.343   1.683   1.921
55083SOL    HW167146   9.402   1.687   1.996
55083SOL    HW267147   9.260   1.650   1.957
55084SOL     OW67148   0.430   3.632   2.097
55084SOL    HW167149   0.489   3.703   2.070
55084SOL    HW267150   0.375   3.616   2.020
55085SOL     OW67151   4.385   9.527   6.464
55085SOL    HW167152   4.457   9.521   6.526
55085SOL    HW267153   4.314   9.567   6.514
55086SOL     OW67154  10.388   3.548  12.409
55086SOL    HW167155  10.347   3.465  12.436
55086SOL    HW267156  10.388   3.602  12.488
55087SOL     OW67157  10.965  11.108   3.829
55087SOL    HW167158  10.958  11.136   3.920
55087SOL    HW267159  10.878  11.123   3.792
55088SOL     OW67160  10.297  13.289   9.881
55088SOL    HW167161  10.273  13.199   9.902
55088SOL    HW267162  10.241  13.313   9.808
55089SOL     OW67163   8.653   6.840   2.536
55089SOL    HW167164   8.630   6.767   2.592
55089SOL    HW267165   8.628   6.812   2.448
55090SOL     OW67166   2.401  11.194   7.621
55090SOL    HW167167   2.389  11.255   7.547
55090SOL    HW267168   2.312  11.177   7.652
55091SOL     OW67169  10.804   2.387  10.221
55091SOL    HW167170  10.883   2.333  10.225
55091SOL    HW267171  10.750   2.357  10.294
55092SOL     OW67172   1.690   6.445   9.062
55092SOL    HW167173   1.683   6.508   9.134
55092SOL    HW267174   1.606   6.452   9.017
55093SOL     OW67175   1.147   8.060   6.096
55093SOL    HW167176   1.211   7.991   6.114
55093SOL    HW267177   1.180   8.104   6.018
55094SOL     OW67178   2.733   7.962  10.883
55094SOL    HW167179   2.689   8.038  10.845
55094SOL    HW267180   2.670   7.891  10.874
55095SOL     OW67181  13.120   4.058  12.923
55095SOL    HW167182  13.135   3.973  12.964
55095SOL    HW267183  13.186   4.064  12.854
55096SOL     OW67184  12.579   8.761   0.734
55096SOL    HW167185  12.669   8.733   0.749
55096SOL    HW267186  12.585   8.829   0.667
55097SOL     OW67187  11.215   6.535   1.485
55097SOL    HW167188  11.306   6.509   1.472
55097SOL    HW267189  11.221   6.627   1.511
55098SOL     OW67190   7.923   8.355   5.971
55098SOL    HW167191   7.907   8.358   5.876
55098SOL    HW267192   7.997   8.415   5.984
55099SOL     OW67193   8.979   5.096   1.696
55099SOL    HW167194   8.907   5.115   1.636
55099SOL    HW267195   8.946   5.025   1.751
55100SOL     OW67196   3.323   5.393   4.517
55100SOL    HW167197   3.348   5.349   4.435
55100SOL    HW267198   3.374   5.348   4.585
55101SOL     OW67199   0.472   3.603   0.808
55101SOL    HW167200   0.518   3.664   0.866
55101SOL    HW267201   0.393   3.579   0.855
55102SOL     OW67202   7.933   7.208   3.161
55102SOL    HW167203   7.955   7.195   3.068
55102SOL    HW267204   8.017   7.224   3.203
55103SOL     OW67205  11.752  13.817   3.587
55103SOL    HW167206  11.672  13.783   3.547
55103SOL    HW267207  11.729  13.906   3.614
55104SOL     OW67208   7.792   6.208  12.154
55104SOL    HW167209   7.713   6.154  12.155
55104SOL    HW267210   7.775   6.277  12.218
55105SOL     OW67211   6.216   0.981   0.650
55105SOL    HW167212   6.146   1.046   0.645
55105SOL    HW267213   6.170   0.898   0.660
55106SOL     OW67214   1.038   7.664   0.882
55106SOL    HW167215   0.957   7.661   0.932
55106SOL    HW267216   1.017   7.618   0.800
55107SOL     OW67217   8.967   3.776  13.685
55107SOL    HW167218   8.902   3.812  13.745
55107SOL    HW267219   8.969   3.682  13.705
55108SOL     OW67220   8.557  10.833   0.069
55108SOL    HW167221   8.594  10.750   0.038
55108SOL    HW267222   8.463  10.817   0.077
55109SOL     OW67223  14.431   0.484  14.804
55109SOL    HW167224  14.482   0.403  14.809
55109SOL    HW267225  14.431   0.518   0.013
55110SOL     OW67226  10.611   0.401  14.377
55110SOL    HW167227  10.634   0.458  14.450
55110SOL    HW267228  10.676   0.421  14.309
55111SOL     OW67229  13.458   3.738  12.366
55111SOL    HW167230  13.481   3.730  12.274
55111SOL    HW267231  13.370   3.702  12.372
55112SOL     OW67232   2.234  13.571   9.384
55112SOL    HW167233   2.270  13.652   9.347
55112SOL    HW267234   2.270  13.568   9.473
55113SOL     OW67235   6.640   5.286   2.332
55113SOL    HW167236   6.611   5.199   2.306
55113SOL    HW267237   6.645   5.335   2.251
55114SOL     OW67238  11.617   1.533  10.475
55114SOL    HW167239  11.690   1.540  10.537
55114SOL    HW267240  11.594   1.624  10.455
55115SOL     OW67241   7.694  14.272  12.994
55115SOL    HW167242   7.641  14.352  12.997
55115SOL    HW267243   7.663  14.220  13.068
55116SOL     OW67244   0.742  12.078   9.849
55116SOL    HW167245   0.749  11.992   9.890
55116SOL    HW267246   0.817  12.081   9.788
55117SOL     OW67247   0.559   9.757   0.288
55117SOL    HW167248   0.601   9.707   0.358
55117SOL    HW267249   0.617   9.832   0.274
55118SOL     OW67250   3.323   0.020  12.458
55118SOL    HW167251   3.252   0.084  12.455
55118SOL    HW267252   3.357   0.017  12.369
55119SOL     OW67253   3.652   5.158  12.800
55119SOL    HW167254   3.620   5.079  12.842
55119SOL    HW267255   3.580   5.187  12.744
55120SOL     OW67256   2.569  10.646   0.499
55120SOL    HW167257   2.553  10.715   0.435
55120SOL    HW267258   2.555  10.565   0.450
55121SOL     OW67259   4.940   4.195  11.227
55121SOL    HW167260   4.926   4.203  11.133
55121SOL    HW267261   5.010   4.130  11.236
55122SOL     OW67262  11.992   5.581  11.697
55122SOL    HW167263  12.086   5.593  11.708
55122SOL    HW267264  11.983   5.493  11.660
55123SOL     OW67265   5.642   1.591   8.567
55123SOL    HW167266   5.723   1.598   8.616
55123SOL    HW267267   5.656   1.644   8.489
55124SOL     OW67268  12.534   5.786   6.878
55124SOL    HW167269  12.554   5.726   6.806
55124SOL    HW267270  12.599   5.856   6.870
55125SOL     OW67271   6.596   4.786   8.932
55125SOL    HW167272   6.642   4.744   8.860
55125SOL    HW267273   6.647   4.866   8.949
55126SOL     OW67274   5.952   8.328   0.125
55126SOL    HW167275   5.985   8.238   0.130
55126SOL    HW267276   6.015   8.379   0.176
55127SOL     OW67277   1.498   0.659   1.574
55127SOL    HW167278   1.536   0.727   1.518
55127SOL    HW267279   1.476   0.703   1.655
55128SOL     OW67280   3.183   8.746   1.990
55128SOL    HW167281   3.124   8.705   2.054
55128SOL    HW267282   3.269   8.711   2.011
55129SOL     OW67283   2.291   3.281   1.993
55129SOL    HW167284   2.208   3.308   2.033
55129SOL    HW267285   2.337   3.236   2.064
55130SOL     OW67286  10.795   9.606   4.765
55130SOL    HW167287  10.843   9.614   4.848
55130SOL    HW267288  10.771   9.696   4.742
55131SOL     OW67289   4.752   9.383   3.801
55131SOL    HW167290   4.758   9.287   3.799
55131SOL    HW267291   4.842   9.413   3.790
55132SOL     OW67292  13.442  13.177   7.348
55132SOL    HW167293  13.489  13.098   7.373
55132SOL    HW267294  13.473  13.244   7.410
55133SOL     OW67295   6.752   3.537  14.685
55133SOL    HW167296   6.745   3.618  14.736
55133SOL    HW267297   6.783   3.472  14.749
55134SOL     OW67298  14.003   2.096   8.805
55134SOL    HW167299  14.066   2.033   8.839
55134SOL    HW267300  14.054   2.153   8.748
55135SOL     OW67301  14.750   4.679  11.126
55135SOL    HW167302  14.711   4.688  11.213
55135SOL    HW267303  14.709   4.601  11.089
55136SOL     OW67304   8.687   2.046   9.426
55136SOL    HW167305   8.780   2.061   9.442
55136SOL    HW267306   8.657   1.999   9.504
55137SOL     OW67307   7.460   9.370   2.540
55137SOL    HW167308   7.526   9.422   2.494
55137SOL    HW267309   7.380   9.383   2.490
55138SOL     OW67310  11.636  13.511  14.669
55138SOL    HW167311  11.677  13.435  14.712
55138SOL    HW267312  11.697  13.583  14.683
55139SOL     OW67313   4.224   7.445   5.555
55139SOL    HW167314   4.275   7.505   5.610
55139SOL    HW267315   4.243   7.358   5.590
55140SOL     OW67316   2.278   6.269   9.083
55140SOL    HW167317   2.295   6.261   8.990
55140SOL    HW267318   2.293   6.181   9.118
55141SOL     OW67319  12.422   6.607   5.148
55141SOL    HW167320  12.477   6.681   5.122
55141SOL    HW267321  12.332   6.639   5.138
55142SOL     OW67322   6.495   5.282   6.673
55142SOL    HW167323   6.461   5.370   6.688
55142SOL    HW267324   6.425   5.223   6.701
55143SOL     OW67325  11.137   8.055   2.938
55143SOL    HW167326  11.152   8.020   3.025
55143SOL    HW267327  11.201   8.011   2.882
55144SOL     OW67328  10.374   0.178   7.951
55144SOL    HW167329  10.333   0.135   8.026
55144SOL    HW267330  10.426   0.109   7.909
55145SOL     OW67331   5.532   7.790  13.232
55145SOL    HW167332   5.443   7.823  13.231
55145SOL    HW267333   5.575   7.831  13.157
55146SOL     OW67334   9.891   8.105  11.267
55146SOL    HW167335   9.912   8.192  11.299
55146SOL    HW267336   9.807   8.084  11.308
55147SOL     OW67337   3.674   0.596   2.172
55147SOL    HW167338   3.637   0.652   2.241
55147SOL    HW267339   3.600   0.544   2.141
55148SOL     OW67340   0.402   3.250   5.125
55148SOL    HW167341   0.346   3.251   5.047
55148SOL    HW267342   0.354   3.195   5.187
55149SOL     OW67343  12.671   0.432   2.724
55149SOL    HW167344  12.642   0.349   2.763
55149SOL    HW267345  12.678   0.492   2.799
55150SOL     OW67346   6.328  10.563   9.201
55150SOL    HW167347   6.354  10.630   9.264
55150SOL    HW267348   6.323  10.482   9.253
55151SOL     OW67349   2.279   9.368   6.654
55151SOL    HW167350   2.249   9.384   6.744
55151SOL    HW267351   2.218   9.303   6.619
55152SOL     OW67352  13.612   0.147  12.660
55152SOL    HW167353  13.689   0.092  12.674
55152SOL    HW267354  13.622   0.181  12.571
55153SOL     OW67355   3.595   1.679   8.105
55153SOL    HW167356   3.506   1.711   8.119
55153SOL    HW267357   3.650   1.738   8.156
55154SOL     OW67358   3.258   7.967   1.924
55154SOL    HW167359   3.323   7.997   1.988
55154SOL    HW267360   3.272   8.023   1.848
55155SOL     OW67361   0.857   1.763  10.173
55155SOL    HW167362   0.908   1.838  10.204
55155SOL    HW267363   0.773   1.800  10.146
55156SOL     OW67364   8.242  10.113   5.784
55156SOL    HW167365   8.250  10.200   5.823
55156SOL    HW267366   8.221  10.131   5.692
55157SOL     OW67367   6.206   2.917   1.875
55157SOL    HW167368   6.190   2.928   1.969
55157SOL    HW267369   6.207   3.006   1.840
55158SOL     OW67370   7.198  13.783  13.495
55158SOL    HW167371   7.186  13.779  13.400
55158SOL    HW267372   7.117  13.745  13.531
55159SOL     OW67373   1.755   4.312   3.417
55159SOL    HW167374   1.679   4.286   3.470
55159SOL    HW267375   1.815   4.353   3.480
55160SOL     OW67376  11.399  14.400   4.545
55160SOL    HW167377  11.346  14.441   4.613
55160SOL    HW267378  11.462  14.467   4.520
55161SOL     OW67379   2.846  11.077  10.870
55161SOL    HW167380   2.774  11.093  10.931
55161SOL    HW267381   2.819  11.000  10.820
55162SOL     OW67382   0.747   3.848   6.647
55162SOL    HW167383   0.683   3.829   6.578
55162SOL    HW267384   0.754   3.767   6.696
55163SOL     OW67385   1.092  11.502   9.200
55163SOL    HW167386   1.146  11.426   9.178
55163SOL    HW267387   1.133  11.575   9.152
55164SOL     OW67388  13.882   3.336   8.875
55164SOL    HW167389  13.970   3.299   8.865
55164SOL    HW267390  13.852   3.301   8.959
55165SOL     OW67391   7.799  12.425   8.842
55165SOL    HW167392   7.763  12.423   8.931
55165SOL    HW267393   7.750  12.493   8.797
55166SOL     OW67394  11.835   4.308  13.198
55166SOL    HW167395  11.816   4.236  13.137
55166SOL    HW267396  11.925   4.333  13.178
55167SOL     OW67397   8.148   8.485  12.398
55167SOL    HW167398   8.074   8.432  12.368
55167SOL    HW267399   8.110   8.572  12.412
55168SOL     OW67400  10.917   8.036  10.381
55168SOL    HW167401  10.930   7.987  10.300
55168SOL    HW267402  11.001   8.080  10.396
55169SOL     OW67403   5.269  12.612   5.358
55169SOL    HW167404   5.233  12.583   5.442
55169SOL    HW267405   5.192  12.638   5.307
55170SOL     OW67406   5.435   9.828  14.371
55170SOL    HW167407   5.512   9.851  14.319
55170SOL    HW267408   5.467   9.829  14.462
55171SOL     OW67409   6.794   6.285   2.814
55171SOL    HW167410   6.883   6.291   2.780
55171SOL    HW267411   6.779   6.368   2.859
55172SOL     OW67412   0.073   3.870   0.395
55172SOL    HW167413  14.867   3.880   0.355
55172SOL    HW267414   0.106   3.960   0.400
55173SOL     OW67415  11.479   0.563   4.704
55173SOL    HW167416  11.448   0.491   4.759
55173SOL    HW267417  11.401   0.616   4.686
55174SOL     OW67418   0.568   3.967   8.954
55174SOL    HW167419   0.619   3.915   9.016
55174SOL    HW267420   0.484   3.923   8.949
55175SOL     OW67421   3.536   6.633  11.501
55175SOL    HW167422   3.524   6.632  11.406
55175SOL    HW267423   3.490   6.555  11.531
55176SOL     OW67424   7.179  14.037  13.416
55176SOL    HW167425   7.258  14.058  13.365
55176SOL    HW267426   7.193  13.947  13.446
55177SOL     OW67427  13.109  12.522  14.688
55177SOL    HW167428  13.083  12.573  14.764
55177SOL    HW267429  13.201  12.501  14.704
55178SOL     OW67430  12.413   8.758  13.533
55178SOL    HW167431  12.483   8.768  13.469
55178SOL    HW267432  12.453   8.713  13.607
55179SOL     OW67433   7.116  11.932   3.311
55179SOL    HW167434   7.086  11.844   3.336
55179SOL    HW267435   7.128  11.926   3.216
55180SOL     OW67436  11.522  10.024  10.646
55180SOL    HW167437  11.582  10.015  10.571
55180SOL    HW267438  11.493  10.115  10.641
55181SOL     OW67439  10.967   0.426   6.699
55181SOL    HW167440  10.948   0.362   6.631
55181SOL    HW267441  10.889   0.482   6.702
55182SOL     OW67442  10.833   4.725   0.151
55182SOL    HW167443  10.861   4.705   0.061
55182SOL    HW267444  10.903   4.781   0.185
55183SOL     OW67445   2.332  10.340   8.670
55183SOL    HW167446   2.294  10.282   8.604
55183SOL    HW267447   2.274  10.333   8.745
55184SOL     OW67448   9.456   1.120   7.235
55184SOL    HW167449   9.540   1.086   7.208
55184SOL    HW267450   9.431   1.182   7.166
55185SOL     OW67451  13.877  12.528   6.485
55185SOL    HW167452  13.865  12.519   6.390
55185SOL    HW267453  13.920  12.447   6.512
55186SOL     OW67454   7.051  11.140  11.862
55186SOL    HW167455   7.120  11.118  11.925
55186SOL    HW267456   6.989  11.067  11.869
55187SOL     OW67457   8.791   4.391  12.690
55187SOL    HW167458   8.811   4.464  12.631
55187SOL    HW267459   8.800   4.313  12.636
55188SOL     OW67460  14.048   9.431   5.256
55188SOL    HW167461  14.032   9.365   5.324
55188SOL    HW267462  13.999   9.399   5.180
55189SOL     OW67463  11.558  12.547  12.323
55189SOL    HW167464  11.532  12.580  12.236
55189SOL    HW267465  11.651  12.528  12.315
55190SOL     OW67466   3.052   8.570   8.475
55190SOL    HW167467   3.108   8.625   8.529
55190SOL    HW267468   3.016   8.630   8.409
55191SOL     OW67469   3.050   4.558   4.826
55191SOL    HW167470   3.038   4.463   4.831
55191SOL    HW267471   3.008   4.592   4.905
55192SOL     OW67472   1.018   6.246   6.873
55192SOL    HW167473   1.029   6.271   6.965
55192SOL    HW267474   0.991   6.326   6.829
55193SOL     OW67475  12.854   3.785   8.021
55193SOL    HW167476  12.909   3.789   7.943
55193SOL    HW267477  12.883   3.705   8.066
55194SOL     OW67478   2.674  12.500   2.733
55194SOL    HW167479   2.630  12.480   2.815
55194SOL    HW267480   2.646  12.589   2.712
55195SOL     OW67481   7.566   8.558   8.435
55195SOL    HW167482   7.509   8.610   8.378
55195SOL    HW267483   7.523   8.472   8.439
55196SOL     OW67484  14.857  14.340   6.363
55196SOL    HW167485   0.029  14.299   6.294
55196SOL    HW267486   0.008  14.301   6.444
55197SOL     OW67487  11.463   2.909   1.729
55197SOL    HW167488  11.436   2.827   1.770
55197SOL    HW267489  11.468   2.972   1.801
55198SOL     OW67490   5.468   0.951  12.417
55198SOL    HW167491   5.413   0.891  12.467
55198SOL    HW267492   5.558   0.932  12.446
55199SOL     OW67493  14.039   3.617  13.986
55199SOL    HW167494  14.105   3.631  13.918
55199SOL    HW267495  14.002   3.703  14.003
55200SOL     OW67496   2.716   3.441   3.118
55200SOL    HW167497   2.629   3.467   3.085
55200SOL    HW267498   2.734   3.503   3.189
55201SOL     OW67499   0.300   9.406   0.022
55201SOL    HW167500   0.327   9.404   0.113
55201SOL    HW267501   0.243   9.483   0.015
55202SOL     OW67502   9.768   2.045  14.600
55202SOL    HW167503   9.770   1.963  14.551
55202SOL    HW267504   9.733   2.109  14.539
55203SOL     OW67505   1.997  11.049   6.588
55203SOL    HW167506   1.956  11.102   6.520
55203SOL    HW267507   1.948  11.069   6.668
55204SOL     OW67508  11.220   4.106  11.390
55204SOL    HW167509  11.209   4.189  11.437
55204SOL    HW267510  11.315   4.094  11.383
55205SOL     OW67511  11.983   9.222  10.856
55205SOL    HW167512  11.891   9.202  10.873
55205SOL    HW267513  11.984   9.258  10.768
55206SOL     OW67514   7.503   0.967   1.459
55206SOL    HW167515   7.543   0.914   1.528
55206SOL    HW267516   7.573   1.025   1.429
55207SOL     OW67517   7.888  11.883   9.683
55207SOL    HW167518   7.840  11.962   9.659
55207SOL    HW267519   7.833  11.811   9.653
55208SOL     OW67520   0.541  13.433  14.162
55208SOL    HW167521   0.464  13.487  14.179
55208SOL    HW267522   0.605  13.493  14.125
55209SOL     OW67523  13.735   6.330   5.232
55209SOL    HW167524  13.776   6.403   5.184
55209SOL    HW267525  13.665   6.371   5.283
55210SOL     OW67526   7.533   1.482   5.656
55210SOL    HW167527   7.457   1.448   5.703
55210SOL    HW267528   7.553   1.416   5.590
55211SOL     OW67529   4.577   8.996   4.575
55211SOL    HW167530   4.549   8.907   4.594
55211SOL    HW267531   4.582   9.001   4.479
55212SOL     OW67532   6.119   1.263  13.101
55212SOL    HW167533   6.146   1.184  13.053
55212SOL    HW267534   6.048   1.300  13.048
55213SOL     OW67535   0.649  13.647  14.785
55213SOL    HW167536   0.649  13.719  14.722
55213SOL    HW267537   0.598  13.578  14.744
55214SOL     OW67538  12.003   8.917  10.870
55214SOL    HW167539  11.971   9.000  10.906
55214SOL    HW267540  11.940   8.894  10.802
55215SOL     OW67541   7.666  12.569   2.536
55215SOL    HW167542   7.729  12.513   2.582
55215SOL    HW267543   7.655  12.644   2.594
55216SOL     OW67544   8.058   7.281  13.864
55216SOL    HW167545   8.025   7.371  13.871
55216SOL    HW267546   8.141   7.283  13.911
55217SOL     OW67547   0.407   1.436   1.362
55217SOL    HW167548   0.388   1.414   1.271
55217SOL    HW267549   0.386   1.356   1.411
55218SOL     OW67550  13.460   5.586   5.056
55218SOL    HW167551  13.387   5.523   5.053
55218SOL    HW267552  13.515   5.561   4.982
55219SOL     OW67553   0.420   9.867   8.288
55219SOL    HW167554   0.367   9.936   8.329
55219SOL    HW267555   0.409   9.881   8.194
55220SOL     OW67556   5.686   6.977  10.616
55220SOL    HW167557   5.597   6.942  10.604
55220SOL    HW267558   5.701   6.974  10.710
55221SOL     OW67559   1.182  14.668  14.479
55221SOL    HW167560   1.136  14.638  14.557
55221SOL    HW267561   1.113  14.694  14.418
55222SOL     OW67562   4.263   8.584  13.150
55222SOL    HW167563   4.214   8.627  13.079
55222SOL    HW267564   4.328   8.648  13.176
55223SOL     OW67565   9.407  11.293   3.268
55223SOL    HW167566   9.417  11.348   3.190
55223SOL    HW267567   9.445  11.345   3.339
55224SOL     OW67568   7.145  13.334  10.066
55224SOL    HW167569   7.142  13.388  10.145
55224SOL    HW267570   7.214  13.269  10.083
55225SOL     OW67571   6.923  13.541   9.763
55225SOL    HW167572   6.898  13.519   9.674
55225SOL    HW267573   6.896  13.632   9.774
55226SOL     OW67574   2.240  13.939  14.004
55226SOL    HW167575   2.263  14.010  13.944
55226SOL    HW267576   2.313  13.936  14.066
55227SOL     OW67577   7.873  12.338   5.431
55227SOL    HW167578   7.864  12.317   5.524
55227SOL    HW267579   7.821  12.272   5.386
55228SOL     OW67580  14.189   0.459   3.998
55228SOL    HW167581  14.133   0.385   3.975
55228SOL    HW267582  14.139   0.508   4.064
55229SOL     OW67583   8.189   1.151   3.776
55229SOL    HW167584   8.265   1.206   3.796
55229SOL    HW267585   8.214   1.064   3.806
55230SOL     OW67586   9.652   4.345   6.475
55230SOL    HW167587   9.657   4.410   6.545
55230SOL    HW267588   9.567   4.359   6.435
55231SOL     OW67589   8.432   6.852   7.057
55231SOL    HW167590   8.396   6.774   7.098
55231SOL    HW267591   8.526   6.843   7.066
55232SOL     OW67592   9.365   0.639  10.124
55232SOL    HW167593   9.282   0.607  10.089
55232SOL    HW267594   9.395   0.568  10.181
55233SOL     OW67595   1.046  11.454   5.720
55233SOL    HW167596   1.031  11.516   5.649
55233SOL    HW267597   1.115  11.495   5.773
55234SOL     OW67598  14.751   5.834   4.931
55234SOL    HW167599  14.659   5.860   4.932
55234SOL    HW267600  14.759   5.771   5.002
55235SOL     OW67601  14.827  10.857  12.397
55235SOL    HW167602  14.864  10.808  12.323
55235SOL    HW267603  14.739  10.880  12.369
55236SOL     OW67604   2.796   2.298   1.523
55236SOL    HW167605   2.867   2.241   1.554
55236SOL    HW267606   2.717   2.245   1.534
55237SOL     OW67607  10.828  13.146   5.335
55237SOL    HW167608  10.907  13.093   5.323
55237SOL    HW267609  10.779  13.100   5.404
55238SOL     OW67610   8.146   4.869  13.493
55238SOL    HW167611   8.223   4.835  13.448
55238SOL    HW267612   8.092   4.907  13.424
55239SOL     OW67613   6.983   0.285   8.579
55239SOL    HW167614   7.049   0.221   8.553
55239SOL    HW267615   7.004   0.363   8.528
55240SOL     OW67616   6.236  13.308  12.616
55240SOL    HW167617   6.146  13.330  12.640
55240SOL    HW267618   6.283  13.308  12.700
55241SOL     OW67619  14.788   1.756   5.232
55241SOL    HW167620  14.776   1.692   5.302
55241SOL    HW267621  14.753   1.713   5.154
55242SOL     OW67622  10.077   4.999  12.466
55242SOL    HW167623  10.045   4.911  12.486
55242SOL    HW267624  10.116   4.991  12.379
55243SOL     OW67625  13.651   0.558   1.195
55243SOL    HW167626  13.683   0.569   1.105
55243SOL    HW267627  13.619   0.469   1.199
55244SOL     OW67628  14.861   7.028   2.538
55244SOL    HW167629  14.873   6.968   2.464
55244SOL    HW267630  14.782   7.077   2.517
55245SOL     OW67631  14.178   0.166   3.708
55245SOL    HW167632  14.122   0.210   3.772
55245SOL    HW267633  14.183   0.227   3.634
55246SOL     OW67634   4.576   4.959   6.679
55246SOL    HW167635   4.497   4.915   6.711
55246SOL    HW267636   4.571   5.047   6.716
55247SOL     OW67637  10.406   5.021   6.267
55247SOL    HW167638  10.442   4.932   6.260
55247SOL    HW267639  10.480   5.076   6.289
55248SOL     OW67640   4.071  10.113   8.381
55248SOL    HW167641   4.146  10.172   8.389
55248SOL    HW267642   4.049  10.115   8.288
55249SOL     OW67643   7.055   5.819   2.725
55249SOL    HW167644   7.026   5.783   2.641
55249SOL    HW267645   7.017   5.761   2.791
55250SOL     OW67646   8.011   8.770   7.845
55250SOL    HW167647   8.044   8.860   7.855
55250SOL    HW267648   8.024   8.730   7.931
55251SOL     OW67649  10.029  14.795  14.449
55251SOL    HW167650  10.076  14.761  14.373
55251SOL    HW267651  10.060   0.005  14.458
55252SOL     OW67652   9.234   0.244   6.944
55252SOL    HW167653   9.196   0.239   7.032
55252SOL    HW267654   9.291   0.168   6.938
55253SOL     OW67655   1.863   0.575   6.061
55253SOL    HW167656   1.834   0.605   6.146
55253SOL    HW267657   1.782   0.554   6.014
55254SOL     OW67658   3.338   8.958   0.517
55254SOL    HW167659   3.264   8.969   0.577
55254SOL    HW267660   3.304   8.985   0.432
55255SOL     OW67661   6.433   3.788   5.094
55255SOL    HW167662   6.471   3.725   5.032
55255SOL    HW267663   6.426   3.739   5.176
55256SOL     OW67664   5.017   5.402  11.354
55256SOL    HW167665   5.098   5.432  11.313
55256SOL    HW267666   5.025   5.430  11.445
55257SOL     OW67667   7.325   1.410   5.823
55257SOL    HW167668   7.358   1.424   5.911
55257SOL    HW267669   7.316   1.315   5.815
55258SOL     OW67670   0.936   5.117   6.326
55258SOL    HW167671   0.863   5.059   6.348
55258SOL    HW267672   0.961   5.093   6.236
55259SOL     OW67673   8.096   3.672   2.181
55259SOL    HW167674   8.163   3.700   2.242
55259SOL    HW267675   8.015   3.710   2.215
55260SOL     OW67676  11.111  13.942  13.271
55260SOL    HW167677  11.199  13.943  13.234
55260SOL    HW267678  11.054  13.965  13.197
55261SOL     OW67679   4.265  14.734  11.085
55261SOL    HW167680   4.265  14.824  11.052
55261SOL    HW267681   4.336  14.691  11.038
55262SOL     OW67682  10.966  11.092   8.941
55262SOL    HW167683  10.917  11.106   9.022
55262SOL    HW267684  11.022  11.017   8.960
55263SOL     OW67685   1.108   4.499   2.425
55263SOL    HW167686   1.158   4.424   2.457
55263SOL    HW267687   1.173   4.568   2.412
55264SOL     OW67688   3.876  14.529   5.139
55264SOL    HW167689   3.844  14.612   5.104
55264SOL    HW267690   3.837  14.523   5.226
55265SOL     OW67691   8.459  10.619  12.642
55265SOL    HW167692   8.387  10.657  12.691
55265SOL    HW267693   8.419  10.591  12.559
55266SOL     OW67694   4.353   9.556   7.835
55266SOL    HW167695   4.411   9.529   7.906
55266SOL    HW267696   4.322   9.474   7.796
55267SOL     OW67697   0.537   7.039   2.208
55267SOL    HW167698   0.449   7.041   2.247
55267SOL    HW267699   0.594   7.076   2.275
55268SOL     OW67700  12.414   2.239  12.558
55268SOL    HW167701  12.491   2.205  12.512
55268SOL    HW267702  12.393   2.172  12.623
55269SOL     OW67703   4.573   4.433   4.100
55269SOL    HW167704   4.563   4.473   4.014
55269SOL    HW267705   4.654   4.471   4.134
55270SOL     OW67706   7.637   3.355   8.999
55270SOL    HW167707   7.687   3.343   8.918
55270SOL    HW267708   7.677   3.294   9.061
55271SOL     OW67709  10.205   3.820   0.428
55271SOL    HW167710  10.267   3.886   0.397
55271SOL    HW267711  10.260   3.755   0.472
55272SOL     OW67712  14.396   5.124   6.663
55272SOL    HW167713  14.333   5.102   6.594
55272SOL    HW267714  14.450   5.046   6.673
55273SOL     OW67715   0.514  14.167   8.695
55273SOL    HW167716   0.543  14.243   8.645
55273SOL    HW267717   0.558  14.092   8.653
55274SOL     OW67718  13.934   1.071   3.173
55274SOL    HW167719  13.984   0.990   3.163
55274SOL    HW267720  13.852   1.043   3.213
55275SOL     OW67721   0.191   7.800  11.814
55275SOL    HW167722   0.208   7.780  11.906
55275SOL    HW267723   0.224   7.724  11.766
55276SOL     OW67724  14.378   4.410   1.811
55276SOL    HW167725  14.469   4.422   1.784
55276SOL    HW267726  14.338   4.359   1.740
55277SOL     OW67727  14.427   7.228   5.840
55277SOL    HW167728  14.417   7.163   5.770
55277SOL    HW267729  14.491   7.189   5.900
55278SOL     OW67730  11.981   3.983   0.058
55278SOL    HW167731  11.916   4.036   0.012
55278SOL    HW267732  11.942   3.966   0.144
55279SOL     OW67733  10.889   0.091   0.219
55279SOL    HW167734  10.901   0.136   0.135
55279SOL    HW267735  10.909  14.879   0.200
55280SOL     OW67736   1.962   8.671   3.341
55280SOL    HW167737   2.021   8.734   3.383
55280SOL    HW267738   1.904   8.641   3.411
55281SOL     OW67739  10.261   9.220  12.481
55281SOL    HW167740  10.220   9.304  12.460
55281SOL    HW267741  10.341   9.244  12.529
55282SOL     OW67742  12.368  10.313   8.498
55282SOL    HW167743  12.420  10.233   8.491
55282SOL    HW267744  12.315  10.300   8.577
55283SOL     OW67745  12.831   4.877  13.022
55283SOL    HW167746  12.841   4.914  13.109
55283SOL    HW267747  12.851   4.784  13.033
55284SOL     OW67748   7.740   6.873   2.677
55284SOL    HW167749   7.766   6.786   2.708
55284SOL    HW267750   7.699   6.914   2.754
55285SOL     OW67751   6.498  13.045  14.183
55285SOL    HW167752   6.570  13.053  14.120
55285SOL    HW267753   6.535  12.994  14.255
55286SOL     OW67754   3.808  14.621   5.390
55286SOL    HW167755   3.716  14.615   5.363
55286SOL    HW267756   3.812  14.701   5.443
55287SOL     OW67757   3.281   7.057   3.582
55287SOL    HW167758   3.303   7.146   3.556
55287SOL    HW267759   3.283   7.007   3.501
55288SOL     OW67760  12.892   2.001   7.173
55288SOL    HW167761  12.975   1.984   7.217
55288SOL    HW267762  12.887   2.096   7.169
55289SOL     OW67763  11.812   0.898  12.328
55289SOL    HW167764  11.853   0.878  12.244
55289SOL    HW267765  11.860   0.973  12.362
55290SOL     OW67766  10.677  11.010   0.896
55290SOL    HW167767  10.666  10.917   0.879
55290SOL    HW267768  10.596  11.050   0.865
55291SOL     OW67769   2.672   0.510  10.545
55291SOL    HW167770   2.654   0.604  10.535
55291SOL    HW267771   2.589   0.474  10.577
55292SOL     OW67772  12.965  11.525  10.907
55292SOL    HW167773  13.034  11.459  10.921
55292SOL    HW267774  12.913  11.490  10.835
55293SOL     OW67775  14.230   6.877   5.330
55293SOL    HW167776  14.208   6.891   5.422
55293SOL    HW267777  14.164   6.926   5.282
55294SOL     OW67778   0.168   9.526  10.436
55294SOL    HW167779   0.102   9.593  10.452
55294SOL    HW267780   0.170   9.474  10.517
55295SOL     OW67781   8.445   6.206   7.986
55295SOL    HW167782   8.428   6.125   8.035
55295SOL    HW267783   8.507   6.254   8.040
55296SOL     OW67784   5.664   8.944  11.670
55296SOL    HW167785   5.742   8.964  11.722
55296SOL    HW267786   5.683   8.860  11.629
55297SOL     OW67787   6.242   5.274   0.868
55297SOL    HW167788   6.244   5.249   0.960
55297SOL    HW267789   6.332   5.300   0.848
55298SOL     OW67790  14.183  13.957   3.586
55298SOL    HW167791  14.191  14.046   3.622
55298SOL    HW267792  14.201  13.968   3.493
55299SOL     OW67793   8.062   9.115   9.060
55299SOL    HW167794   8.054   9.207   9.033
55299SOL    HW267795   8.053   9.065   8.979
55300SOL     OW67796   1.290   8.039   2.499
55300SOL    HW167797   1.313   8.027   2.591
55300SOL    HW267798   1.198   8.064   2.501
55301SOL     OW67799   7.164  13.966  12.475
55301SOL    HW167800   7.218  13.911  12.532
55301SOL    HW267801   7.194  13.945  12.386
55302SOL     OW67802   5.852   1.131  12.586
55302SOL    HW167803   5.807   1.169  12.510
55302SOL    HW267804   5.942   1.163  12.579
55303SOL     OW67805  11.663  11.947   7.168
55303SOL    HW167806  11.712  12.013   7.119
55303SOL    HW267807  11.706  11.864   7.146
55304SOL     OW67808  10.661  11.453  10.256
55304SOL    HW167809  10.687  11.450  10.348
55304SOL    HW267810  10.574  11.493  10.256
55305SOL     OW67811  11.092   7.900   6.003
55305SOL    HW167812  11.104   7.845   6.080
55305SOL    HW267813  11.155   7.972   6.016
55306SOL     OW67814   9.277   7.041   7.653
55306SOL    HW167815   9.355   7.052   7.708
55306SOL    HW267816   9.282   6.950   7.623
55307SOL     OW67817  13.012   0.754  13.221
55307SOL    HW167818  12.973   0.673  13.187
55307SOL    HW267819  13.006   0.745  13.316
55308SOL     OW67820   3.836  12.995   1.054
55308SOL    HW167821   3.899  13.005   0.982
55308SOL    HW267822   3.754  12.969   1.010
55309SOL     OW67823   1.483   9.473   9.979
55309SOL    HW167824   1.485   9.381   9.954
55309SOL    HW267825   1.538   9.478  10.058
55310SOL     OW67826   0.835  13.404   0.092
55310SOL    HW167827   0.790  13.394   0.008
55310SOL    HW267828   0.773  13.373   0.157
55311SOL     OW67829  13.430   3.984   0.851
55311SOL    HW167830  13.520   3.989   0.884
55311SOL    HW267831  13.379   4.035   0.914
55312SOL     OW67832   8.530   1.143   6.632
55312SOL    HW167833   8.489   1.157   6.718
55312SOL    HW267834   8.616   1.184   6.640
55313SOL     OW67835   7.116   8.431   1.555
55313SOL    HW167836   7.188   8.369   1.552
55313SOL    HW267837   7.042   8.381   1.590
55314SOL     OW67838  12.128   8.217  14.489
55314SOL    HW167839  12.118   8.226  14.584
55314SOL    HW267840  12.176   8.135  14.478
55315SOL     OW67841  14.319  14.100   6.019
55315SOL    HW167842  14.365  14.037   6.075
55315SOL    HW267843  14.253  14.048   5.973
55316SOL     OW67844  13.935   4.891   6.237
55316SOL    HW167845  13.933   4.987   6.233
55316SOL    HW267846  14.015   4.867   6.190
55317SOL     OW67847   9.652   8.335   0.803
55317SOL    HW167848   9.601   8.393   0.859
55317SOL    HW267849   9.619   8.352   0.715
55318SOL     OW67850  12.032  12.385  11.774
55318SOL    HW167851  12.030  12.376  11.869
55318SOL    HW267852  12.097  12.455  11.758
55319SOL     OW67853  14.570   0.446   8.257
55319SOL    HW167854  14.590   0.447   8.351
55319SOL    HW267855  14.549   0.355   8.238
55320SOL     OW67856   3.200  10.180  10.665
55320SOL    HW167857   3.238  10.252  10.615
55320SOL    HW267858   3.269  10.113  10.666
55321SOL     OW67859  11.250   6.402   5.140
55321SOL    HW167860  11.262   6.407   5.045
55321SOL    HW267861  11.155   6.402   5.152
55322SOL     OW67862   7.262   0.602  12.773
55322SOL    HW167863   7.226   0.514  12.766
55322SOL    HW267864   7.186   0.660  12.776
55323SOL     OW67865   6.114   8.346  10.351
55323SOL    HW167866   6.033   8.296  10.354
55323SOL    HW267867   6.171   8.304  10.415
55324SOL     OW67868   8.616  12.498  11.883
55324SOL    HW167869   8.698  12.492  11.834
55324SOL    HW267870   8.639  12.474  11.972
55325SOL     OW67871  13.377   5.901   2.621
55325SOL    HW167872  13.346   5.936   2.705
55325SOL    HW267873  13.343   5.812   2.618
55326SOL     OW67874   4.675   2.809   4.863
55326SOL    HW167875   4.736   2.819   4.936
55326SOL    HW267876   4.591   2.838   4.898
55327SOL     OW67877  13.093   0.588  12.414
55327SOL    HW167878  13.095   0.682  12.428
55327SOL    HW267879  13.002   0.569  12.389
55328SOL     OW67880   0.978  11.957  10.619
55328SOL    HW167881   0.988  12.000  10.704
55328SOL    HW267882   0.960  12.028  10.558
55329SOL     OW67883   8.393   4.522   0.584
55329SOL    HW167884   8.297   4.528   0.575
55329SOL    HW267885   8.408   4.523   0.678
55330SOL     OW67886   0.921   8.289  11.705
55330SOL    HW167887   0.946   8.332  11.623
55330SOL    HW267888   0.852   8.229  11.680
55331SOL     OW67889   8.379  12.110  13.981
55331SOL    HW167890   8.288  12.129  13.956
55331SOL    HW267891   8.432  12.159  13.918
55332SOL     OW67892  11.457   9.507   1.559
55332SOL    HW167893  11.368   9.516   1.594
55332SOL    HW267894  11.485   9.597   1.541
55333SOL     OW67895   0.248  12.321  12.852
55333SOL    HW167896   0.336  12.332  12.886
55333SOL    HW267897   0.260  12.302  12.759
55334SOL     OW67898   8.777   5.067  12.532
55334SOL    HW167899   8.719   5.111  12.471
55334SOL    HW267900   8.719   5.016  12.588
55335SOL     OW67901   4.252   2.524   1.557
55335SOL    HW167902   4.300   2.545   1.477
55335SOL    HW267903   4.185   2.593   1.563
55336SOL     OW67904   0.016   5.753   3.619
55336SOL    HW167905  14.806   5.745   3.588
55336SOL    HW267906   0.065   5.687   3.569
55337SOL     OW67907   8.905   2.449   3.130
55337SOL    HW167908   8.855   2.530   3.131
55337SOL    HW267909   8.978   2.467   3.070
55338SOL     OW67910  11.024   4.375   4.206
55338SOL    HW167911  11.074   4.347   4.129
55338SOL    HW267912  10.998   4.294   4.249
55339SOL     OW67913   5.325   0.140   4.619
55339SOL    HW167914   5.337   0.084   4.543
55339SOL    HW267915   5.408   0.187   4.628
55340SOL     OW67916   8.081   8.529   1.855
55340SOL    HW167917   8.101   8.585   1.931
55340SOL    HW267918   8.078   8.441   1.892
55341SOL     OW67919   3.969  11.717  14.017
55341SOL    HW167920   4.002  11.782  13.956
55341SOL    HW267921   4.039  11.706  14.081
55342SOL     OW67922   4.608  11.123   8.122
55342SOL    HW167923   4.687  11.177   8.113
55342SOL    HW267924   4.538  11.176   8.084
55343SOL     OW67925   9.566  12.634   5.084
55343SOL    HW167926   9.619  12.589   5.019
55343SOL    HW267927   9.620  12.708   5.112
55344SOL     OW67928  13.677   7.430   1.031
55344SOL    HW167929  13.648   7.475   0.952
55344SOL    HW267930  13.772   7.422   1.021
55345SOL     OW67931   3.995  12.916   5.260
55345SOL    HW167932   3.971  12.857   5.188
55345SOL    HW267933   4.019  12.998   5.216
55346SOL     OW67934  12.863   4.348  12.208
55346SOL    HW167935  12.877   4.269  12.259
55346SOL    HW267936  12.925   4.412  12.244
55347SOL     OW67937   5.406   9.080   9.129
55347SOL    HW167938   5.316   9.067   9.098
55347SOL    HW267939   5.436   8.993   9.154
55348SOL     OW67940  13.720   1.440   5.377
55348SOL    HW167941  13.759   1.428   5.290
55348SOL    HW267942  13.664   1.517   5.368
55349SOL     OW67943   5.185  11.793  13.064
55349SOL    HW167944   5.190  11.771  13.157
55349SOL    HW267945   5.202  11.888  13.061
55350SOL     OW67946   2.483   8.863  13.482
55350SOL    HW167947   2.543   8.814  13.425
55350SOL    HW267948   2.446   8.931  13.426
55351SOL     OW67949   7.691  12.568   9.968
55351SOL    HW167950   7.621  12.619   9.928
55351SOL    HW267951   7.756  12.632   9.995
55352SOL     OW67952  14.036   9.828   2.331
55352SOL    HW167953  14.002   9.812   2.420
55352SOL    HW267954  14.039   9.923   2.323
55353SOL     OW67955   8.740   8.647  13.858
55353SOL    HW167956   8.751   8.731  13.815
55353SOL    HW267957   8.645   8.631  13.857
55354SOL     OW67958  13.327   4.392   7.528
55354SOL    HW167959  13.353   4.301   7.541
55354SOL    HW267960  13.405   4.434   7.491
55355SOL     OW67961   8.083   6.837   1.041
55355SOL    HW167962   8.147   6.896   1.080
55355SOL    HW267963   8.062   6.775   1.112
55356SOL     OW67964  10.369   4.185   5.180
55356SOL    HW167965  10.444   4.185   5.122
55356SOL    HW267966  10.300   4.230   5.131
55357SOL     OW67967   2.436   1.511   4.480
55357SOL    HW167968   2.436   1.529   4.386
55357SOL    HW267969   2.467   1.592   4.520
55358SOL     OW67970   8.432   1.333   3.776
55358SOL    HW167971   8.381   1.414   3.785
55358SOL    HW267972   8.439   1.320   3.681
55359SOL     OW67973   2.045   2.160   9.120
55359SOL    HW167974   1.968   2.200   9.159
55359SOL    HW267975   2.075   2.096   9.184
55360SOL     OW67976   3.797   0.190   7.953
55360SOL    HW167977   3.773   0.257   8.017
55360SOL    HW267978   3.742   0.210   7.877
55361SOL     OW67979   1.167   8.918   8.653
55361SOL    HW167980   1.105   8.845   8.655
55361SOL    HW267981   1.238   8.891   8.711
55362SOL     OW67982   5.632   7.827   9.914
55362SOL    HW167983   5.645   7.752   9.972
55362SOL    HW267984   5.694   7.813   9.843
55363SOL     OW67985  11.686   7.569   5.607
55363SOL    HW167986  11.716   7.651   5.568
55363SOL    HW267987  11.640   7.595   5.686
55364SOL     OW67988   5.293   6.791   3.766
55364SOL    HW167989   5.298   6.885   3.780
55364SOL    HW267990   5.284   6.781   3.671
55365SOL     OW67991   6.011  11.614   8.515
55365SOL    HW167992   6.013  11.538   8.456
55365SOL    HW267993   6.024  11.689   8.457
55366SOL     OW67994   0.264   9.594  12.509
55366SOL    HW167995   0.288   9.621  12.598
55366SOL    HW267996   0.171   9.572  12.514
55367SOL     OW67997   0.254  10.543   0.178
55367SOL    HW167998   0.296  10.607   0.237
55367SOL    HW267999   0.325  10.485   0.151
55368SOL     OW68000   2.261   1.630   2.927
55368SOL    HW168001   2.199   1.641   2.855
55368SOL    HW268002   2.212   1.580   2.993
55369SOL     OW68003  10.591   1.952  13.086
55369SOL    HW168004  10.625   1.972  12.999
55369SOL    HW268005  10.669   1.943  13.141
55370SOL     OW68006   8.220   2.207   0.103
55370SOL    HW168007   8.154   2.139   0.095
55370SOL    HW268008   8.303   2.159   0.112
55371SOL     OW68009  14.649   3.504  14.562
55371SOL    HW168010  14.615   3.589  14.533
55371SOL    HW268011  14.650   3.510  14.657
55372SOL     OW68012   2.601   0.735   4.338
55372SOL    HW168013   2.651   0.809   4.301
55372SOL    HW268014   2.525   0.776   4.380
55373SOL     OW68015  13.679  11.256   7.539
55373SOL    HW168016  13.601  11.294   7.580
55373SOL    HW268017  13.712  11.194   7.603
55374SOL     OW68018   4.986   1.699   8.520
55374SOL    HW168019   5.080   1.695   8.502
55374SOL    HW268020   4.946   1.662   8.441
55375SOL     OW68021   6.533  13.753   9.035
55375SOL    HW168022   6.623  13.785   9.027
55375SOL    HW268023   6.538  13.661   9.007
55376SOL     OW68024   8.708   1.372  10.805
55376SOL    HW168025   8.693   1.402  10.715
55376SOL    HW268026   8.760   1.442  10.845
55377SOL     OW68027  10.399   1.665   7.769
55377SOL    HW168028  10.428   1.756   7.763
55377SOL    HW268029  10.426   1.637   7.857
55378SOL     OW68030   4.805   3.526   7.774
55378SOL    HW168031   4.711   3.540   7.786
55378SOL    HW268032   4.837   3.501   7.860
55379SOL     OW68033   7.106  10.922   0.572
55379SOL    HW168034   7.103  10.828   0.552
55379SOL    HW268035   7.123  10.964   0.488
55380SOL     OW68036   0.796   6.346   8.550
55380SOL    HW168037   0.878   6.396   8.545
55380SOL    HW268038   0.824   6.254   8.544
55381SOL     OW68039  10.625  13.047   0.430
55381SOL    HW168040  10.703  13.089   0.466
55381SOL    HW268041  10.573  13.023   0.507
55382SOL     OW68042  11.154   1.077   9.068
55382SOL    HW168043  11.117   1.029   8.994
55382SOL    HW268044  11.228   1.023   9.096
55383SOL     OW68045  10.550   8.176   4.521
55383SOL    HW168046  10.581   8.261   4.552
55383SOL    HW268047  10.470   8.196   4.474
55384SOL     OW68048   2.302   9.044   1.196
55384SOL    HW168049   2.314   9.094   1.277
55384SOL    HW268050   2.319   9.108   1.126
55385SOL     OW68051   0.989  14.425   5.282
55385SOL    HW168052   0.895  14.407   5.271
55385SOL    HW268053   1.025  14.421   5.193
55386SOL     OW68054  14.812   3.160   6.843
55386SOL    HW168055  14.721   3.189   6.841
55386SOL    HW268056  14.809   3.066   6.827
55387SOL     OW68057   2.447  10.886   2.382
55387SOL    HW168058   2.476  10.811   2.433
55387SOL    HW268059   2.408  10.945   2.446
55388SOL     OW68060   4.001   3.193   6.605
55388SOL    HW168061   4.039   3.274   6.573
55388SOL    HW268062   4.064   3.159   6.668
55389SOL     OW68063   3.799   2.630   5.622
55389SOL    HW168064   3.837   2.544   5.605
55389SOL    HW268065   3.873   2.683   5.653
55390SOL     OW68066   2.327  12.054   9.190
55390SOL    HW168067   2.367  12.073   9.274
55390SOL    HW268068   2.233  12.051   9.208
55391SOL     OW68069  12.993   5.113  10.186
55391SOL    HW168070  12.941   5.065  10.121
55391SOL    HW268071  13.068   5.057  10.202
55392SOL     OW68072   7.671   8.483   1.114
55392SOL    HW168073   7.683   8.520   1.026
55392SOL    HW268074   7.755   8.497   1.158
55393SOL     OW68075   1.549  13.849   2.453
55393SOL    HW168076   1.570  13.901   2.530
55393SOL    HW268077   1.587  13.763   2.471
55394SOL     OW68078  10.863   4.774  14.199
55394SOL    HW168079  10.852   4.843  14.133
55394SOL    HW268080  10.779   4.728  14.200
55395SOL     OW68081   7.356   8.139  11.848
55395SOL    HW168082   7.372   8.112  11.939
55395SOL    HW268083   7.261   8.130  11.838
55396SOL     OW68084   6.210  10.353   2.280
55396SOL    HW168085   6.174  10.274   2.321
55396SOL    HW268086   6.217  10.416   2.352
55397SOL     OW68087  10.289   3.585   6.126
55397SOL    HW168088  10.195   3.587   6.109
55397SOL    HW268089  10.313   3.492   6.119
55398SOL     OW68090  11.530  12.023   6.343
55398SOL    HW168091  11.559  11.936   6.319
55398SOL    HW268092  11.502  12.063   6.260
55399SOL     OW68093   4.949   4.640  10.468
55399SOL    HW168094   4.885   4.624  10.399
55399SOL    HW268095   4.897   4.667  10.544
55400SOL     OW68096   9.797   5.478   6.494
55400SOL    HW168097   9.753   5.557   6.462
55400SOL    HW268098   9.765   5.468   6.583
55401SOL     OW68099   9.245  12.913   7.126
55401SOL    HW168100   9.257  12.965   7.205
55401SOL    HW268101   9.222  12.825   7.158
55402SOL     OW68102   4.891   2.976  13.556
55402SOL    HW168103   4.968   2.944  13.510
55402SOL    HW268104   4.836   3.013  13.487
55403SOL     OW68105   6.149   7.885  14.390
55403SOL    HW168106   6.136   7.793  14.371
55403SOL    HW268107   6.183   7.887  14.480
55404SOL     OW68108   5.770  13.093   3.888
55404SOL    HW168109   5.850  13.058   3.851
55404SOL    HW268110   5.756  13.042   3.968
55405SOL     OW68111  11.495  14.196   2.112
55405SOL    HW168112  11.453  14.270   2.156
55405SOL    HW268113  11.579  14.185   2.156
55406SOL     OW68114   9.156   1.412   2.492
55406SOL    HW168115   9.116   1.475   2.431
55406SOL    HW268116   9.081   1.371   2.536
55407SOL     OW68117   2.624  13.102   5.943
55407SOL    HW168118   2.668  13.020   5.962
55407SOL    HW268119   2.695  13.161   5.915
55408SOL     OW68120   1.297   5.796   6.233
55408SOL    HW168121   1.315   5.713   6.190
55408SOL    HW268122   1.251   5.848   6.167
55409SOL     OW68123  13.722   0.414   5.597
55409SOL    HW168124  13.709   0.336   5.651
55409SOL    HW268125  13.680   0.392   5.513
55410SOL     OW68126   3.237   5.080  13.277
55410SOL    HW168127   3.174   5.125  13.220
55410SOL    HW268128   3.185   5.014  13.323
55411SOL     OW68129   9.278   3.156  12.301
55411SOL    HW168130   9.324   3.076  12.278
55411SOL    HW268131   9.192   3.127  12.330
55412SOL     OW68132   3.435   1.975  10.249
55412SOL    HW168133   3.344   1.986  10.221
55412SOL    HW268134   3.435   1.892  10.296
55413SOL     OW68135  13.516   1.523  12.950
55413SOL    HW168136  13.429   1.527  12.990
55413SOL    HW268137  13.499   1.505  12.857
55414SOL     OW68138  14.843  12.479  10.047
55414SOL    HW168139  14.842  12.414   9.977
55414SOL    HW268140  14.874  12.432  10.124
55415SOL     OW68141   1.004  13.258   8.874
55415SOL    HW168142   1.055  13.329   8.834
55415SOL    HW268143   0.927  13.302   8.909
55416SOL     OW68144   7.934   2.373   9.968
55416SOL    HW168145   7.872   2.321   9.919
55416SOL    HW268146   7.998   2.402   9.903
55417SOL     OW68147   5.976  14.093   3.998
55417SOL    HW168148   6.015  14.007   3.982
55417SOL    HW268149   5.916  14.106   3.925
55418SOL     OW68150   0.180   7.654  10.475
55418SOL    HW168151   0.138   7.603  10.405
55418SOL    HW268152   0.247   7.595  10.510
55419SOL     OW68153   3.583   4.672  11.622
55419SOL    HW168154   3.570   4.696  11.713
55419SOL    HW268155   3.514   4.718  11.574
55420SOL     OW68156  12.081   5.575   5.951
55420SOL    HW168157  12.031   5.630   5.890
55420SOL    HW268158  12.061   5.486   5.924
55421SOL     OW68159   8.916  10.616   9.098
55421SOL    HW168160   8.931  10.695   9.150
55421SOL    HW268161   8.992  10.611   9.040
55422SOL     OW68162  14.419  13.450   5.624
55422SOL    HW168163  14.378  13.438   5.710
55422SOL    HW268164  14.464  13.367   5.608
55423SOL     OW68165  11.505   9.173  13.025
55423SOL    HW168166  11.533   9.090  12.988
55423SOL    HW268167  11.529   9.167  13.117
55424SOL     OW68168  14.388   0.690   7.401
55424SOL    HW168169  14.467   0.701   7.454
55424SOL    HW268170  14.390   0.599   7.372
55425SOL     OW68171  12.838   3.308  11.846
55425SOL    HW168172  12.932   3.300  11.826
55425SOL    HW268173  12.795   3.264  11.773
55426SOL     OW68174   6.220   8.057   9.850
55426SOL    HW168175   6.225   8.048   9.946
55426SOL    HW268176   6.272   7.983   9.817
55427SOL     OW68177   8.386   4.786   1.395
55427SOL    HW168178   8.331   4.849   1.443
55427SOL    HW268179   8.357   4.795   1.304
55428SOL     OW68180  12.867   9.163  13.057
55428SOL    HW168181  12.877   9.163  13.152
55428SOL    HW268182  12.908   9.245  13.028
55429SOL     OW68183   1.605  13.316   0.786
55429SOL    HW168184   1.567  13.257   0.850
55429SOL    HW268185   1.643  13.387   0.839
55430SOL     OW68186   6.981  13.561   5.600
55430SOL    HW168187   7.002  13.584   5.690
55430SOL    HW268188   7.051  13.502   5.573
55431SOL     OW68189   8.935   5.140   5.494
55431SOL    HW168190   8.921   5.159   5.586
55431SOL    HW268191   8.883   5.061   5.478
55432SOL     OW68192  10.010  13.446  10.178
55432SOL    HW168193  10.052  13.484  10.100
55432SOL    HW268194  10.043  13.356  10.181
55433SOL     OW68195   0.819   4.206  10.167
55433SOL    HW168196   0.903   4.210  10.214
55433SOL    HW268197   0.793   4.114  10.172
55434SOL     OW68198  14.663   3.680  11.198
55434SOL    HW168199  14.645   3.605  11.141
55434SOL    HW268200  14.696   3.641  11.279
55435SOL     OW68201   1.946   0.819   0.962
55435SOL    HW168202   1.858   0.833   0.995
55435SOL    HW268203   1.998   0.887   1.004
55436SOL     OW68204   1.114   2.428  10.833
55436SOL    HW168205   1.151   2.437  10.921
55436SOL    HW268206   1.133   2.338  10.808
55437SOL     OW68207   4.425   3.681  12.569
55437SOL    HW168208   4.451   3.753  12.511
55437SOL    HW268209   4.332   3.697  12.587
55438SOL     OW68210   8.240   4.000  14.245
55438SOL    HW168211   8.295   3.942  14.299
55438SOL    HW268212   8.200   4.060  14.308
55439SOL     OW68213   1.871   2.922  11.674
55439SOL    HW168214   1.931   2.936  11.747
55439SOL    HW268215   1.823   3.004  11.666
55440SOL     OW68216  13.395   4.904   0.895
55440SOL    HW168217  13.368   4.875   0.982
55440SOL    HW268218  13.491   4.898   0.896
55441SOL     OW68219   7.241   6.523   7.163
55441SOL    HW168220   7.266   6.433   7.186
55441SOL    HW268221   7.149   6.529   7.187
55442SOL     OW68222   2.397   4.812   8.835
55442SOL    HW168223   2.364   4.902   8.840
55442SOL    HW268224   2.488   4.817   8.864
55443SOL     OW68225   9.711  10.512   4.228
55443SOL    HW168226   9.622  10.516   4.193
55443SOL    HW268227   9.756  10.450   4.171
55444SOL     OW68228   7.599   8.182  12.330
55444SOL    HW168229   7.583   8.126  12.253
55444SOL    HW268230   7.687   8.159  12.358
55445SOL     OW68231   8.298   4.432   6.767
55445SOL    HW168232   8.357   4.420   6.693
55445SOL    HW268233   8.211   4.434   6.728
55446SOL     OW68234  11.000   3.488  14.786
55446SOL    HW168235  10.930   3.539  14.828
55446SOL    HW268236  11.027   3.425  14.853
55447SOL     OW68237  14.006  13.991   6.305
55447SOL    HW168238  13.927  13.938   6.310
55447SOL    HW268239  14.078  13.929   6.311
55448SOL     OW68240  11.233   0.590   3.015
55448SOL    HW168241  11.205   0.659   3.075
55448SOL    HW268242  11.161   0.527   3.015
55449SOL     OW68243  10.795  11.318   3.225
55449SOL    HW168244  10.873  11.316   3.170
55449SOL    HW268245  10.801  11.401   3.272
55450SOL     OW68246   4.969   3.855   7.256
55450SOL    HW168247   5.061   3.853   7.231
55450SOL    HW268248   4.967   3.908   7.336
55451SOL     OW68249   9.981   5.353   8.114
55451SOL    HW168250   9.974   5.259   8.096
55451SOL    HW268251   9.990   5.358   8.209
55452SOL     OW68252   0.651   5.859   3.799
55452SOL    HW168253   0.638   5.908   3.880
55452SOL    HW268254   0.727   5.899   3.758
55453SOL     OW68255  12.063  11.444   2.089
55453SOL    HW168256  12.143  11.493   2.109
55453SOL    HW268257  12.078  11.409   2.001
55454SOL     OW68258   1.120  11.478  11.497
55454SOL    HW168259   1.049  11.443  11.443
55454SOL    HW268260   1.154  11.402  11.544
55455SOL     OW68261  13.949   6.103  10.279
55455SOL    HW168262  13.987   6.118  10.193
55455SOL    HW268263  13.892   6.027  10.268
55456SOL     OW68264  12.616   7.983   5.308
55456SOL    HW168265  12.603   7.930   5.230
55456SOL    HW268266  12.634   8.071   5.275
55457SOL     OW68267  12.022   0.703   5.283
55457SOL    HW168268  11.993   0.715   5.193
55457SOL    HW268269  11.952   0.743   5.336
55458SOL     OW68270   4.264   2.133  10.953
55458SOL    HW168271   4.288   2.107  11.042
55458SOL    HW268272   4.170   2.146  10.956
55459SOL     OW68273   5.879   0.553   7.727
55459SOL    HW168274   5.834   0.502   7.659
55459SOL    HW268275   5.951   0.596   7.680
55460SOL     OW68276   7.196   8.622  14.076
55460SOL    HW168277   7.110   8.612  14.116
55460SOL    HW268278   7.224   8.710  14.101
55461SOL     OW68279   4.814   9.463  10.452
55461SOL    HW168280   4.861   9.397  10.504
55461SOL    HW268281   4.726   9.426  10.442
55462SOL     OW68282   4.043   4.716  10.165
55462SOL    HW168283   4.039   4.803  10.204
55462SOL    HW268284   3.957   4.678  10.181
55463SOL     OW68285  13.042   9.657   5.223
55463SOL    HW168286  13.011   9.573   5.191
55463SOL    HW268287  13.003   9.666   5.310
55464SOL     OW68288   5.723  14.168   8.142
55464SOL    HW168289   5.735  14.263   8.146
55464SOL    HW268290   5.677  14.146   8.224
55465SOL     OW68291  10.182   1.837   6.692
55465SOL    HW168292  10.202   1.879   6.776
55465SOL    HW268293  10.116   1.771   6.713
55466SOL     OW68294   3.267   9.458  14.301
55466SOL    HW168295   3.299   9.541  14.265
55466SOL    HW268296   3.344   9.420  14.344
55467SOL     OW68297  13.009   0.492   9.686
55467SOL    HW168298  13.021   0.566   9.626
55467SOL    HW268299  13.098   0.462   9.705
55468SOL     OW68300   2.841  14.179   9.476
55468SOL    HW168301   2.917  14.226   9.441
55468SOL    HW268302   2.838  14.206   9.568
55469SOL     OW68303   2.234   6.435   7.125
55469SOL    HW168304   2.160   6.495   7.135
55469SOL    HW268305   2.201   6.364   7.070
55470SOL     OW68306   0.123   5.078   7.357
55470SOL    HW168307   0.087   4.989   7.353
55470SOL    HW268308   0.210   5.067   7.395
55471SOL     OW68309   3.017  10.221   5.521
55471SOL    HW168310   2.948  10.195   5.461
55471SOL    HW268311   3.098  10.192   5.479
55472SOL     OW68312   1.032   0.827   5.888
55472SOL    HW168313   1.118   0.844   5.848
55472SOL    HW268314   0.983   0.782   5.820
55473SOL     OW68315   7.819   4.031  12.079
55473SOL    HW168316   7.892   4.094  12.084
55473SOL    HW268317   7.857   3.949  12.111
55474SOL     OW68318   2.740   4.842  11.794
55474SOL    HW168319   2.789   4.828  11.713
55474SOL    HW268320   2.683   4.916  11.775
55475SOL     OW68321  12.750  10.974   7.445
55475SOL    HW168322  12.802  10.961   7.365
55475SOL    HW268323  12.713  11.062   7.434
55476SOL     OW68324   6.514  10.742   9.979
55476SOL    HW168325   6.475  10.826   9.955
55476SOL    HW268326   6.503  10.688   9.901
55477SOL     OW68327  14.298   2.899  10.888
55477SOL    HW168328  14.206   2.924  10.881
55477SOL    HW268329  14.299   2.830  10.954
55478SOL     OW68330   9.847   2.616   9.214
55478SOL    HW168331   9.814   2.694   9.260
55478SOL    HW268332   9.784   2.547   9.236
55479SOL     OW68333   4.225  14.788   3.376
55479SOL    HW168334   4.233  14.876   3.338
55479SOL    HW268335   4.133  14.765   3.364
55480SOL     OW68336  12.697  13.756  13.028
55480SOL    HW168337  12.756  13.754  12.952
55480SOL    HW268338  12.754  13.774  13.102
55481SOL     OW68339   2.872   1.060   0.601
55481SOL    HW168340   2.961   1.083   0.628
55481SOL    HW268341   2.816   1.102   0.667
55482SOL     OW68342  10.495   8.258  12.976
55482SOL    HW168343  10.560   8.253  12.905
55482SOL    HW268344  10.543   8.292  13.051
55483SOL     OW68345   6.112   9.548   8.082
55483SOL    HW168346   6.164   9.622   8.112
55483SOL    HW268347   6.110   9.488   8.157
55484SOL     OW68348   3.938  11.414  10.781
55484SOL    HW168349   3.920  11.495  10.828
55484SOL    HW268350   3.897  11.346  10.834
55485SOL     OW68351   3.762   2.989  12.001
55485SOL    HW168352   3.675   2.972  11.965
55485SOL    HW268353   3.763   2.941  12.084
55486SOL     OW68354  11.606   1.560  11.400
55486SOL    HW168355  11.538   1.604  11.452
55486SOL    HW268356  11.684   1.562  11.455
55487SOL     OW68357  13.377   2.501  12.185
55487SOL    HW168358  13.313   2.572  12.190
55487SOL    HW268359  13.341   2.433  12.242
55488SOL     OW68360   6.637   8.989  11.196
55488SOL    HW168361   6.655   8.944  11.278
55488SOL    HW268362   6.593   8.924  11.142
55489SOL     OW68363   2.460   3.101   3.509
55489SOL    HW168364   2.546   3.129   3.538
55489SOL    HW268365   2.461   3.112   3.414
55490SOL     OW68366  13.545  12.581  10.659
55490SOL    HW168367  13.486  12.507  10.643
55490SOL    HW268368  13.631  12.541  10.671
55491SOL     OW68369   0.107  14.632   7.166
55491SOL    HW168370   0.029  14.664   7.212
55491SOL    HW268371   0.155  14.583   7.233
55492SOL     OW68372   3.490   6.534  12.795
55492SOL    HW168373   3.523   6.444  12.794
55492SOL    HW268374   3.451   6.547  12.709
55493SOL     OW68375   0.721  10.598   2.219
55493SOL    HW168376   0.755  10.526   2.272
55493SOL    HW268377   0.767  10.591   2.136
55494SOL     OW68378   9.965  10.096   0.751
55494SOL    HW168379  10.052  10.085   0.790
55494SOL    HW268380   9.908  10.041   0.804
55495SOL     OW68381  12.494   8.997   6.758
55495SOL    HW168382  12.441   8.999   6.838
55495SOL    HW268383  12.516   9.088   6.742
55496SOL     OW68384   0.249   9.600   4.877
55496SOL    HW168385   0.203   9.537   4.821
55496SOL    HW268386   0.210   9.588   4.963
55497SOL     OW68387   9.391   6.410  12.933
55497SOL    HW168388   9.320   6.368  12.982
55497SOL    HW268389   9.465   6.350  12.941
55498SOL     OW68390  11.558   2.901   7.672
55498SOL    HW168391  11.636   2.852   7.699
55498SOL    HW268392  11.498   2.834   7.641
55499SOL     OW68393  13.771   2.997   9.547
55499SOL    HW168394  13.753   3.088   9.571
55499SOL    HW268395  13.866   2.993   9.537
55500SOL     OW68396  14.046  12.608  14.582
55500SOL    HW168397  14.082  12.520  14.593
55500SOL    HW268398  14.077  12.636  14.496
55501SOL     OW68399   3.843  12.465   8.712
55501SOL    HW168400   3.868  12.389   8.764
55501SOL    HW268401   3.856  12.540   8.770
55502SOL     OW68402   4.700   5.235   9.375
55502SOL    HW168403   4.673   5.167   9.437
55502SOL    HW268404   4.788   5.209   9.348
55503SOL     OW68405   9.867   3.624   0.432
55503SOL    HW168406   9.832   3.700   0.479
55503SOL    HW268407   9.815   3.551   0.465
55504SOL     OW68408  12.262   7.207   3.443
55504SOL    HW168409  12.288   7.162   3.523
55504SOL    HW268410  12.337   7.198   3.384
55505SOL     OW68411   5.759   0.932   4.437
55505SOL    HW168412   5.763   0.966   4.526
55505SOL    HW268413   5.845   0.952   4.400
55506SOL     OW68414   8.947   1.074   7.905
55506SOL    HW168415   8.992   1.158   7.915
55506SOL    HW268416   9.011   1.017   7.862
55507SOL     OW68417  13.797  10.967   4.217
55507SOL    HW168418  13.837  10.907   4.154
55507SOL    HW268419  13.847  10.954   4.298
55508SOL     OW68420   4.531   5.967  12.068
55508SOL    HW168421   4.575   5.883  12.074
55508SOL    HW268422   4.522   5.997  12.159
55509SOL     OW68423   3.638  11.163  11.909
55509SOL    HW168424   3.611  11.110  11.834
55509SOL    HW268425   3.627  11.105  11.984
55510SOL     OW68426   5.569  11.934  12.144
55510SOL    HW168427   5.536  11.899  12.226
55510SOL    HW268428   5.504  11.906  12.079
55511SOL     OW68429  12.901   9.150   5.187
55511SOL    HW168430  12.978   9.191   5.148
55511SOL    HW268431  12.827   9.202   5.154
55512SOL     OW68432   9.938   7.922   0.023
55512SOL    HW168433   9.926   7.838  14.860
55512SOL    HW268434   9.912   7.907   0.114
55513SOL     OW68435   5.876  11.189   5.236
55513SOL    HW168436   5.783  11.166   5.234
55513SOL    HW268437   5.907  11.158   5.321
55514SOL     OW68438  12.669   7.371  10.065
55514SOL    HW168439  12.575   7.358  10.061
55514SOL    HW268440  12.687   7.394  10.156
55515SOL     OW68441   6.460   1.640   6.544
55515SOL    HW168442   6.457   1.545   6.528
55515SOL    HW268443   6.465   1.648   6.640
55516SOL     OW68444   2.405   5.978   1.286
55516SOL    HW168445   2.350   6.056   1.290
55516SOL    HW268446   2.443   5.979   1.198
55517SOL     OW68447   5.959   2.592   8.790
55517SOL    HW168448   6.005   2.511   8.813
55517SOL    HW268449   5.896   2.605   8.861
55518SOL     OW68450   0.761   6.194  14.156
55518SOL    HW168451   0.848   6.159  14.139
55518SOL    HW268452   0.731   6.225  14.071
55519SOL     OW68453   4.660   1.832  13.477
55519SOL    HW168454   4.582   1.786  13.444
55519SOL    HW268455   4.730   1.767  13.469
55520SOL     OW68456  13.661   8.837  14.749
55520SOL    HW168457  13.735   8.776  14.748
55520SOL    HW268458  13.632   8.837  14.840
55521SOL     OW68459   6.316  10.047  10.416
55521SOL    HW168460   6.322   9.965  10.465
55521SOL    HW268461   6.313  10.020  10.324
55522SOL     OW68462  13.906   2.821   3.649
55522SOL    HW168463  13.889   2.727   3.654
55522SOL    HW268464  13.848   2.859   3.714
55523SOL     OW68465  13.426   8.600   6.640
55523SOL    HW168466  13.331   8.613   6.637
55523SOL    HW268467  13.446   8.587   6.732
55524SOL     OW68468  10.584   0.395   5.302
55524SOL    HW168469  10.661   0.351   5.338
55524SOL    HW268470  10.619   0.448   5.230
55525SOL     OW68471   8.581   3.911   2.762
55525SOL    HW168472   8.491   3.925   2.732
55525SOL    HW268473   8.571   3.874   2.850
55526SOL     OW68474  13.705  11.734   1.117
55526SOL    HW168475  13.669  11.819   1.141
55526SOL    HW268476  13.737  11.746   1.027
55527SOL     OW68477   0.667   7.315  11.169
55527SOL    HW168478   0.684   7.409  11.165
55527SOL    HW268479   0.572   7.308  11.179
55528SOL     OW68480   8.660  14.812   7.996
55528SOL    HW168481   8.708  14.851   8.069
55528SOL    HW268482   8.569  14.813   8.024
55529SOL     OW68483  10.330   1.425  10.523
55529SOL    HW168484  10.307   1.399  10.434
55529SOL    HW268485  10.423   1.445  10.519
55530SOL     OW68486  12.866  12.296   3.537
55530SOL    HW168487  12.912  12.279   3.455
55530SOL    HW268488  12.794  12.233   3.538
55531SOL     OW68489   1.576   4.165   1.875
55531SOL    HW168490   1.659   4.179   1.921
55531SOL    HW268491   1.555   4.073   1.890
55532SOL     OW68492   9.934  10.836  14.435
55532SOL    HW168493   9.895  10.867  14.517
55532SOL    HW268494   9.874  10.769  14.404
55533SOL     OW68495   8.137   9.581   5.675
55533SOL    HW168496   8.127   9.579   5.770
55533SOL    HW268497   8.167   9.670   5.656
55534SOL     OW68498  13.960   8.167  11.133
55534SOL    HW168499  14.041   8.218  11.143
55534SOL    HW268500  13.909   8.188  11.211
55535SOL     OW68501   4.922   4.069   0.815
55535SOL    HW168502   4.943   3.992   0.763
55535SOL    HW268503   4.999   4.126   0.805
55536SOL     OW68504  14.418  10.216   4.978
55536SOL    HW168505  14.341  10.173   4.942
55536SOL    HW268506  14.382  10.282   5.038
55537SOL     OW68507  10.390   9.897  11.952
55537SOL    HW168508  10.316   9.894  11.891
55537SOL    HW268509  10.467   9.908  11.895
55538SOL     OW68510  12.275   2.099  12.787
55538SOL    HW168511  12.190   2.060  12.808
55538SOL    HW268512  12.288   2.165  12.855
55539SOL     OW68513   4.790   7.949   9.784
55539SOL    HW168514   4.757   8.035   9.809
55539SOL    HW268515   4.737   7.925   9.708
55540SOL     OW68516   3.072  13.080   1.684
55540SOL    HW168517   3.086  13.012   1.618
55540SOL    HW268518   3.154  13.082   1.733
55541SOL     OW68519  14.388   6.610   6.326
55541SOL    HW168520  14.302   6.628   6.365
55541SOL    HW268521  14.413   6.525   6.362
55542SOL     OW68522   0.256   2.432   6.507
55542SOL    HW168523   0.252   2.491   6.432
55542SOL    HW268524   0.337   2.383   6.495
55543SOL     OW68525   6.824  10.874   4.055
55543SOL    HW168526   6.883  10.894   3.982
55543SOL    HW268527   6.765  10.949   4.059
55544SOL     OW68528  10.667  13.343   7.882
55544SOL    HW168529  10.603  13.314   7.818
55544SOL    HW268530  10.740  13.282   7.872
55545SOL     OW68531   3.377   4.807  10.439
55545SOL    HW168532   3.305   4.830  10.380
55545SOL    HW268533   3.356   4.853  10.520
55546SOL     OW68534   6.702   6.673  14.741
55546SOL    HW168535   6.702   6.629  14.657
55546SOL    HW268536   6.665   6.609  14.802
55547SOL     OW68537   2.931   5.830   3.753
55547SOL    HW168538   2.952   5.744   3.789
55547SOL    HW268539   3.016   5.869   3.735
55548SOL     OW68540   2.027  10.040   7.795
55548SOL    HW168541   2.114  10.050   7.757
55548SOL    HW268542   2.036   9.971   7.860
55549SOL     OW68543   5.321   4.891   5.274
55549SOL    HW168544   5.267   4.823   5.233
55549SOL    HW268545   5.409   4.875   5.240
55550SOL     OW68546   6.955   4.992   1.406
55550SOL    HW168547   6.980   4.916   1.354
55550SOL    HW268548   7.037   5.039   1.422
55551SOL     OW68549   4.729  14.324  10.870
55551SOL    HW168550   4.770  14.288  10.948
55551SOL    HW268551   4.704  14.248  10.818
55552SOL     OW68552   0.059   8.076  13.049
55552SOL    HW168553   0.033   8.028  12.970
55552SOL    HW268554  14.874   8.053  13.114
55553SOL     OW68555  11.489   3.956  11.146
55553SOL    HW168556  11.405   3.969  11.103
55553SOL    HW268557  11.467   3.929  11.235
55554SOL     OW68558  10.130   0.011   0.513
55554SOL    HW168559  10.099   0.102   0.513
55554SOL    HW268560  10.139  14.870   0.420
55555SOL     OW68561   0.670   7.142   5.647
55555SOL    HW168562   0.581   7.117   5.621
55555SOL    HW268563   0.678   7.233   5.619
55556SOL     OW68564  13.325  10.276  13.123
55556SOL    HW168565  13.237  10.288  13.087
55556SOL    HW268566  13.381  10.268  13.046
55557SOL     OW68567  13.123   4.966  13.627
55557SOL    HW168568  13.093   4.933  13.543
55557SOL    HW268569  13.074   5.048  13.640
55558SOL     OW68570   3.258  12.377  13.982
55558SOL    HW168571   3.338  12.342  13.941
55558SOL    HW268572   3.263  12.348  14.073
55559SOL     OW68573   7.285  14.236   7.241
55559SOL    HW168574   7.202  14.257   7.285
55559SOL    HW268575   7.346  14.217   7.313
55560SOL     OW68576  12.530  12.659   4.577
55560SOL    HW168577  12.474  12.591   4.613
55560SOL    HW268578  12.560  12.708   4.653
55561SOL     OW68579   4.702  14.281   5.465
55561SOL    HW168580   4.693  14.227   5.387
55561SOL    HW268581   4.773  14.341   5.445
55562SOL     OW68582   0.442  12.684   9.432
55562SOL    HW168583   0.370  12.725   9.385
55562SOL    HW268584   0.425  12.590   9.425
55563SOL     OW68585   6.446   6.668   8.823
55563SOL    HW168586   6.379   6.737   8.819
55563SOL    HW268587   6.526   6.714   8.845
55564SOL     OW68588   8.170   6.107   1.000
55564SOL    HW168589   8.240   6.074   0.943
55564SOL    HW268590   8.146   6.191   0.961
55565SOL     OW68591   4.459   1.694  13.377
55565SOL    HW168592   4.466   1.604  13.344
55565SOL    HW268593   4.387   1.732  13.327
55566SOL     OW68594  13.869   3.358  13.897
55566SOL    HW168595  13.928   3.388  13.966
55566SOL    HW268596  13.883   3.419  13.825
55567SOL     OW68597   2.187   6.186  10.499
55567SOL    HW168598   2.120   6.147  10.555
55567SOL    HW268599   2.187   6.278  10.523
55568SOL     OW68600   5.093  12.126   8.752
55568SOL    HW168601   5.053  12.095   8.672
55568SOL    HW268602   5.033  12.100   8.822
55569SOL     OW68603   1.932   3.819   8.828
55569SOL    HW168604   1.967   3.857   8.748
55569SOL    HW268605   1.960   3.727   8.826
55570SOL     OW68606   5.973   7.150  11.644
55570SOL    HW168607   5.924   7.174  11.723
55570SOL    HW268608   6.052   7.108  11.677
55571SOL     OW68609   4.951   3.982   3.355
55571SOL    HW168610   5.021   3.991   3.290
55571SOL    HW268611   4.927   4.073   3.376
55572SOL     OW68612  11.018   0.039  14.591
55572SOL    HW168613  11.090  14.876  14.543
55572SOL    HW268614  10.945   0.038  14.529
55573SOL     OW68615   7.767   3.884   1.556
55573SOL    HW168616   7.767   3.820   1.627
55573SOL    HW268617   7.847   3.865   1.507
55574SOL     OW68618  10.717  11.512   6.275
55574SOL    HW168619  10.711  11.514   6.179
55574SOL    HW268620  10.779  11.442   6.294
55575SOL     OW68621  11.994  10.683   5.942
55575SOL    HW168622  11.905  10.715   5.926
55575SOL    HW268623  12.038  10.755   5.988
55576SOL     OW68624   5.564   3.099  14.879
55576SOL    HW168625   5.526   3.155   0.067
55576SOL    HW268626   5.488   3.072  14.827
55577SOL     OW68627   7.155   3.421   0.111
55577SOL    HW168628   7.232   3.393   0.061
55577SOL    HW268629   7.189   3.480   0.178
55578SOL     OW68630   4.830   5.916   2.473
55578SOL    HW168631   4.847   5.854   2.402
55578SOL    HW268632   4.850   6.002   2.434
55579SOL     OW68633   9.896   3.473   1.714
55579SOL    HW168634   9.844   3.454   1.792
55579SOL    HW268635   9.955   3.398   1.705
55580SOL     OW68636  14.247   8.523   9.437
55580SOL    HW168637  14.295   8.492   9.514
55580SOL    HW268638  14.294   8.486   9.362
55581SOL     OW68639   4.352  10.134  14.088
55581SOL    HW168640   4.409  10.062  14.063
55581SOL    HW268641   4.381  10.159  14.176
55582SOL     OW68642   6.188   3.867   2.334
55582SOL    HW168643   6.165   3.911   2.416
55582SOL    HW268644   6.108   3.819   2.310
55583SOL     OW68645  14.102   4.995   8.911
55583SOL    HW168646  14.097   5.065   8.845
55583SOL    HW268647  14.010   4.975   8.931
55584SOL     OW68648   3.617  14.018  13.287
55584SOL    HW168649   3.549  14.083  13.303
55584SOL    HW268650   3.571  13.944  13.249
55585SOL     OW68651  13.889  12.748  14.358
55585SOL    HW168652  13.834  12.677  14.322
55585SOL    HW268653  13.977  12.711  14.359
55586SOL     OW68654  13.287  11.475   9.594
55586SOL    HW168655  13.362  11.429   9.633
55586SOL    HW268656  13.326  11.537   9.532
55587SOL     OW68657  12.546  10.160   5.137
55587SOL    HW168658  12.533  10.241   5.187
55587SOL    HW268659  12.482  10.099   5.173
55588SOL     OW68660  11.453  12.527   1.247
55588SOL    HW168661  11.364  12.511   1.216
55588SOL    HW268662  11.485  12.441   1.275
55589SOL     OW68663   7.154   4.356  11.231
55589SOL    HW168664   7.064   4.329  11.214
55589SOL    HW268665   7.158   4.367  11.326
55590SOL     OW68666   6.650  14.683   0.686
55590SOL    HW168667   6.740  14.693   0.717
55590SOL    HW268668   6.605  14.762   0.718
55591SOL     OW68669   5.134   7.519  13.915
55591SOL    HW168670   5.214   7.556  13.952
55591SOL    HW268671   5.163   7.440  13.869
55592SOL     OW68672   5.090   5.341   9.533
55592SOL    HW168673   5.016   5.318   9.476
55592SOL    HW268674   5.160   5.281   9.507
55593SOL     OW68675  14.510   1.423   7.803
55593SOL    HW168676  14.581   1.432   7.739
55593SOL    HW268677  14.479   1.333   7.791
55594SOL     OW68678  12.122   2.797   6.175
55594SOL    HW168679  12.169   2.817   6.256
55594SOL    HW268680  12.060   2.870   6.166
55595SOL     OW68681   5.207  13.907   7.252
55595SOL    HW168682   5.300  13.883   7.253
55595SOL    HW268683   5.161  13.824   7.262
55596SOL     OW68684  11.910  11.978  12.135
55596SOL    HW168685  12.001  11.954  12.114
55596SOL    HW268686  11.857  11.929  12.071
55597SOL     OW68687   3.088  11.807  11.023
55597SOL    HW168688   3.004  11.793  10.980
55597SOL    HW268689   3.148  11.748  10.978
55598SOL     OW68690   6.593   9.265   4.716
55598SOL    HW168691   6.614   9.257   4.623
55598SOL    HW268692   6.670   9.231   4.761
55599SOL     OW68693  13.493   5.044   0.425
55599SOL    HW168694  13.485   5.138   0.403
55599SOL    HW268695  13.557   5.010   0.362
55600SOL     OW68696  14.283   1.417   4.341
55600SOL    HW168697  14.334   1.340   4.315
55600SOL    HW268698  14.233   1.439   4.262
55601SOL     OW68699   9.817  13.701   5.020
55601SOL    HW168700   9.749  13.740   5.074
55601SOL    HW268701   9.774  13.628   4.974
55602SOL     OW68702  10.899  13.051  12.735
55602SOL    HW168703  10.908  12.960  12.705
55602SOL    HW268704  10.967  13.061  12.801
55603SOL     OW68705  12.363   9.978   6.651
55603SOL    HW168706  12.336   9.888   6.667
55603SOL    HW268707  12.294  10.032   6.690
55604SOL     OW68708  14.702   8.469  12.658
55604SOL    HW168709  14.666   8.542  12.708
55604SOL    HW268710  14.649   8.465  12.579
55605SOL     OW68711  13.114  10.079   1.748
55605SOL    HW168712  13.088  10.103   1.659
55605SOL    HW268713  13.124  10.162   1.793
55606SOL     OW68714   6.661   7.591   1.793
55606SOL    HW168715   6.756   7.583   1.780
55606SOL    HW268716   6.649   7.676   1.834
55607SOL     OW68717  13.570  13.168   6.496
55607SOL    HW168718  13.517  13.197   6.421
55607SOL    HW268719  13.508  13.117   6.550
55608SOL     OW68720   7.409   7.784   9.646
55608SOL    HW168721   7.353   7.733   9.588
55608SOL    HW268722   7.393   7.748   9.733
55609SOL     OW68723   8.591  14.591  11.042
55609SOL    HW168724   8.564  14.571  10.952
55609SOL    HW268725   8.560  14.517  11.094
55610SOL     OW68726   6.252   9.353   6.884
55610SOL    HW168727   6.305   9.284   6.923
55610SOL    HW268728   6.174   9.357   6.939
55611SOL     OW68729  13.197   8.979   6.373
55611SOL    HW168730  13.144   9.017   6.443
55611SOL    HW268731  13.277   8.951   6.416
55612SOL     OW68732   4.363   6.465  12.032
55612SOL    HW168733   4.418   6.459  11.954
55612SOL    HW268734   4.342   6.374  12.054
55613SOL     OW68735   8.055   8.403  12.734
55613SOL    HW168736   7.975   8.357  12.758
55613SOL    HW268737   8.060   8.395  12.639
55614SOL     OW68738   9.369  11.884   5.275
55614SOL    HW168739   9.317  11.804   5.276
55614SOL    HW268740   9.437  11.870   5.342
55615SOL     OW68741  13.485  14.259   9.608
55615SOL    HW168742  13.411  14.254   9.549
55615SOL    HW268743  13.562  14.254   9.551
55616SOL     OW68744   6.981   3.534   6.325
55616SOL    HW168745   6.889   3.552   6.304
55616SOL    HW268746   7.024   3.525   6.240
55617SOL     OW68747   3.911  10.744   2.867
55617SOL    HW168748   3.903  10.710   2.777
55617SOL    HW268749   3.885  10.671   2.923
55618SOL     OW68750   8.145   0.495  13.747
55618SOL    HW168751   8.116   0.434  13.679
55618SOL    HW268752   8.096   0.575  13.731
55619SOL     OW68753  12.645   5.664  12.033
55619SOL    HW168754  12.627   5.583  11.985
55619SOL    HW268755  12.609   5.733  11.977
55620SOL     OW68756  14.159  11.847  12.442
55620SOL    HW168757  14.229  11.894  12.398
55620SOL    HW268758  14.203  11.778  12.492
55621SOL     OW68759   6.911  14.635   2.709
55621SOL    HW168760   6.826  14.668   2.678
55621SOL    HW268761   6.891  14.593   2.792
55622SOL     OW68762   6.015  12.214  11.529
55622SOL    HW168763   6.022  12.160  11.608
55622SOL    HW268764   6.102  12.253  11.519
55623SOL     OW68765   3.860   3.391  10.684
55623SOL    HW168766   3.870   3.300  10.659
55623SOL    HW268767   3.941   3.413  10.730
55624SOL     OW68768   8.548   4.050   6.341
55624SOL    HW168769   8.560   3.961   6.308
55624SOL    HW268770   8.496   4.039   6.421
55625SOL     OW68771  10.884   9.141   4.085
55625SOL    HW168772  10.825   9.105   4.151
55625SOL    HW268773  10.971   9.113   4.112
55626SOL     OW68774  10.503   5.105   9.103
55626SOL    HW168775  10.545   5.183   9.067
55626SOL    HW268776  10.415   5.105   9.065
55627SOL     OW68777  10.618   5.052  10.840
55627SOL    HW168778  10.661   5.131  10.808
55627SOL    HW268779  10.641   4.984  10.776
55628SOL     OW68780   4.391   1.898  11.465
55628SOL    HW168781   4.421   1.960  11.398
55628SOL    HW268782   4.301   1.926  11.483
55629SOL     OW68783   8.918  11.520   2.916
55629SOL    HW168784   8.969  11.522   2.997
55629SOL    HW268785   8.953  11.592   2.864
55630SOL     OW68786  12.552   7.492   4.976
55630SOL    HW168787  12.503   7.573   4.986
55630SOL    HW268788  12.625   7.515   4.919
55631SOL     OW68789   7.729  10.077  11.813
55631SOL    HW168790   7.649  10.125  11.833
55631SOL    HW268791   7.764  10.052  11.899
55632SOL     OW68792   2.784  11.487   9.548
55632SOL    HW168793   2.722  11.534   9.604
55632SOL    HW268794   2.737  11.407   9.522
55633SOL     OW68795  11.770  12.377  10.905
55633SOL    HW168796  11.781  12.305  10.843
55633SOL    HW268797  11.846  12.433  10.891
55634SOL     OW68798   9.452   5.995   0.325
55634SOL    HW168799   9.525   6.028   0.273
55634SOL    HW268800   9.492   5.967   0.407
55635SOL     OW68801   9.891   9.740   3.866
55635SOL    HW168802   9.940   9.659   3.854
55635SOL    HW268803   9.958   9.809   3.858
55636SOL     OW68804   5.634   0.396   9.383
55636SOL    HW168805   5.574   0.392   9.309
55636SOL    HW268806   5.721   0.386   9.344
55637SOL     OW68807   9.147  14.177  12.003
55637SOL    HW168808   9.111  14.236  12.068
55637SOL    HW268809   9.213  14.126  12.050
55638SOL     OW68810  12.061   2.655  13.351
55638SOL    HW168811  11.976   2.699  13.356
55638SOL    HW268812  12.100   2.687  13.269
55639SOL     OW68813  12.110   9.547  13.361
55639SOL    HW168814  12.105   9.504  13.276
55639SOL    HW268815  12.144   9.634  13.342
55640SOL     OW68816   4.700   5.582   6.915
55640SOL    HW168817   4.671   5.623   6.997
55640SOL    HW268818   4.724   5.656   6.859
55641SOL     OW68819  11.714  12.750   6.735
55641SOL    HW168820  11.776  12.766   6.806
55641SOL    HW268821  11.635  12.717   6.779
55642SOL     OW68822   3.847   0.130   1.289
55642SOL    HW168823   3.934   0.096   1.268
55642SOL    HW268824   3.821   0.180   1.211
55643SOL     OW68825   7.587   0.434  10.297
55643SOL    HW168826   7.496   0.402  10.301
55643SOL    HW268827   7.578   0.528  10.284
55644SOL     OW68828  10.142   5.624   5.272
55644SOL    HW168829  10.165   5.576   5.351
55644SOL    HW268830  10.071   5.573   5.233
55645SOL     OW68831   5.104   0.829   1.328
55645SOL    HW168832   5.109   0.736   1.349
55645SOL    HW268833   5.178   0.844   1.269
55646SOL     OW68834  14.067  10.441  12.347
55646SOL    HW168835  14.051  10.351  12.374
55646SOL    HW268836  14.154  10.439  12.307
55647SOL     OW68837   8.083   2.115   4.484
55647SOL    HW168838   8.157   2.085   4.431
55647SOL    HW268839   8.007   2.073   4.445
55648SOL     OW68840  10.508   0.906   8.912
55648SOL    HW168841  10.496   0.999   8.895
55648SOL    HW268842  10.583   0.882   8.857
55649SOL     OW68843   8.125   0.758   4.944
55649SOL    HW168844   8.214   0.741   4.977
55649SOL    HW268845   8.128   0.847   4.911
55650SOL     OW68846  13.596  10.560   7.685
55650SOL    HW168847  13.541  10.543   7.761
55650SOL    HW268848  13.537  10.598   7.620
55651SOL     OW68849   1.104   6.746   2.822
55651SOL    HW168850   1.021   6.794   2.831
55651SOL    HW268851   1.105   6.715   2.732
55652SOL     OW68852   0.099   7.418   5.406
55652SOL    HW168853   0.047   7.471   5.346
55652SOL    HW268854   0.186   7.414   5.365
55653SOL     OW68855  10.403   2.459   1.674
55653SOL    HW168856  10.371   2.378   1.714
55653SOL    HW268857  10.330   2.487   1.617
55654SOL     OW68858   0.843  11.492   1.848
55654SOL    HW168859   0.857  11.577   1.889
55654SOL    HW268860   0.749  11.487   1.833
55655SOL     OW68861   6.612  13.987   9.902
55655SOL    HW168862   6.615  13.906   9.852
55655SOL    HW268863   6.699  14.026   9.891
55656SOL     OW68864   9.362   1.379  12.001
55656SOL    HW168865   9.301   1.411  12.068
55656SOL    HW268866   9.376   1.287  12.023
55657SOL     OW68867   7.741   3.381  10.533
55657SOL    HW168868   7.821   3.433  10.534
55657SOL    HW268869   7.678   3.433  10.583
55658SOL     OW68870   6.198   3.555  12.350
55658SOL    HW168871   6.142   3.581  12.277
55658SOL    HW268872   6.177   3.463  12.365
55659SOL     OW68873   3.169   3.721   1.526
55659SOL    HW168874   3.259   3.690   1.516
55659SOL    HW268875   3.178   3.814   1.548
55660SOL     OW68876   4.666  12.256   6.019
55660SOL    HW168877   4.664  12.314   5.942
55660SOL    HW268878   4.632  12.310   6.090
55661SOL     OW68879   6.025   9.124  13.658
55661SOL    HW168880   5.957   9.087  13.714
55661SOL    HW268881   6.065   9.048  13.615
55662SOL     OW68882  14.377   8.047   8.756
55662SOL    HW168883  14.324   8.101   8.697
55662SOL    HW268884  14.450   8.018   8.702
55663SOL     OW68885  12.344   4.916   0.584
55663SOL    HW168886  12.411   4.974   0.549
55663SOL    HW268887  12.345   4.932   0.679
55664SOL     OW68888   7.551  11.929  12.663
55664SOL    HW168889   7.519  11.859  12.721
55664SOL    HW268890   7.515  12.009  12.700
55665SOL     OW68891   5.630   1.622   5.420
55665SOL    HW168892   5.673   1.672   5.350
55665SOL    HW268893   5.549   1.590   5.380
55666SOL     OW68894   9.412   2.069   4.588
55666SOL    HW168895   9.357   2.147   4.585
55666SOL    HW268896   9.385   2.017   4.513
55667SOL     OW68897   6.433  11.996   2.335
55667SOL    HW168898   6.375  11.968   2.406
55667SOL    HW268899   6.451  12.088   2.354
55668SOL     OW68900   2.401  11.125  14.435
55668SOL    HW168901   2.466  11.179  14.390
55668SOL    HW268902   2.411  11.147  14.528
55669SOL     OW68903   2.116   7.434   4.892
55669SOL    HW168904   2.167   7.361   4.927
55669SOL    HW268905   2.156   7.452   4.807
55670SOL     OW68906   2.426  14.681  14.580
55670SOL    HW168907   2.455  14.595  14.611
55670SOL    HW268908   2.394  14.665  14.492
55671SOL     OW68909  10.917  12.265   8.173
55671SOL    HW168910  10.926  12.300   8.261
55671SOL    HW268911  10.925  12.170   8.184
55672SOL     OW68912  14.673  11.556   6.444
55672SOL    HW168913  14.730  11.627   6.473
55672SOL    HW268914  14.721  11.514   6.373
55673SOL     OW68915   5.409  10.983   5.879
55673SOL    HW168916   5.318  10.974   5.853
55673SOL    HW268917   5.446  11.047   5.818
55674SOL     OW68918   9.351   9.078  14.843
55674SOL    HW168919   9.422   9.108  14.785
55674SOL    HW268920   9.277   9.065  14.784
55675SOL     OW68921   9.109   2.253  11.122
55675SOL    HW168922   9.141   2.247  11.032
55675SOL    HW268923   9.161   2.323  11.162
55676SOL     OW68924   4.919   5.578  11.607
55676SOL    HW168925   4.829   5.608  11.597
55676SOL    HW268926   4.972   5.640  11.558
55677SOL     OW68927   2.360   0.395   7.967
55677SOL    HW168928   2.329   0.333   8.033
55677SOL    HW268929   2.455   0.394   7.975
55678SOL     OW68930   5.221   3.205   6.443
55678SOL    HW168931   5.147   3.207   6.504
55678SOL    HW268932   5.281   3.271   6.476
55679SOL     OW68933   8.519   4.415   8.282
55679SOL    HW168934   8.463   4.461   8.344
55679SOL    HW268935   8.607   4.426   8.317
55680SOL     OW68936   1.889   3.289  11.995
55680SOL    HW168937   1.873   3.248  12.080
55680SOL    HW268938   1.804   3.285  11.950
55681SOL     OW68939   0.445  10.218   5.109
55681SOL    HW168940   0.526  10.186   5.150
55681SOL    HW268941   0.424  10.152   5.043
55682SOL     OW68942   0.550   9.977   3.116
55682SOL    HW168943   0.523   9.984   3.208
55682SOL    HW268944   0.646   9.986   3.119
55683SOL     OW68945   3.145   6.864  13.607
55683SOL    HW168946   3.062   6.909  13.588
55683SOL    HW268947   3.140   6.783  13.556
55684SOL     OW68948   9.165   0.400   0.148
55684SOL    HW168949   9.228   0.378   0.079
55684SOL    HW268950   9.103   0.327   0.147
55685SOL     OW68951  11.630   6.785   9.588
55685SOL    HW168952  11.609   6.757   9.499
55685SOL    HW268953  11.687   6.715   9.622
55686SOL     OW68954   5.130   6.850  13.324
55686SOL    HW168955   5.180   6.931  13.326
55686SOL    HW268956   5.067   6.862  13.253
55687SOL     OW68957  13.173  10.426   1.216
55687SOL    HW168958  13.268  10.426   1.200
55687SOL    HW268959  13.164  10.445   1.309
55688SOL     OW68960  14.174   7.894   9.149
55688SOL    HW168961  14.254   7.920   9.104
55688SOL    HW268962  14.105   7.910   9.085
55689SOL     OW68963  11.670   0.794   6.701
55689SOL    HW168964  11.580   0.825   6.700
55689SOL    HW268965  11.703   0.819   6.787
55690SOL     OW68966   2.947  13.238   4.332
55690SOL    HW168967   2.980  13.148   4.337
55690SOL    HW268968   2.942  13.267   4.423
55691SOL     OW68969  13.060   9.590   8.959
55691SOL    HW168970  13.111   9.619   9.035
55691SOL    HW268971  13.016   9.510   8.989
55692SOL     OW68972   9.597   6.251  12.983
55692SOL    HW168973   9.668   6.240  12.920
55692SOL    HW268974   9.622   6.196  13.057
55693SOL     OW68975  10.620   2.002   0.542
55693SOL    HW168976  10.584   1.954   0.468
55693SOL    HW268977  10.714   1.984   0.540
55694SOL     OW68978   4.066   9.701   8.847
55694SOL    HW168979   4.064   9.647   8.926
55694SOL    HW268980   4.139   9.761   8.861
55695SOL     OW68981   4.592  12.480   6.747
55695SOL    HW168982   4.544  12.558   6.775
55695SOL    HW268983   4.650  12.511   6.678
55696SOL     OW68984   1.544   8.534  12.820
55696SOL    HW168985   1.516   8.523  12.729
55696SOL    HW268986   1.494   8.468  12.869
55697SOL     OW68987   2.571  13.371   4.074
55697SOL    HW168988   2.476  13.361   4.067
55697SOL    HW268989   2.589  13.358   4.167
55698SOL     OW68990   9.853   1.456  13.611
55698SOL    HW168991   9.775   1.478  13.662
55698SOL    HW268992   9.910   1.533  13.619
55699SOL     OW68993   5.515   9.746  10.538
55699SOL    HW168994   5.588   9.754  10.600
55699SOL    HW268995   5.443   9.792  10.580
55700SOL     OW68996   9.426   3.677  11.553
55700SOL    HW168997   9.520   3.684  11.539
55700SOL    HW268998   9.407   3.583  11.542
55701SOL     OW68999   6.381   0.117  12.090
55701SOL    HW169000   6.324   0.040  12.097
55701SOL    HW269001   6.398   0.125  11.996
55702SOL     OW69002   3.163  13.127   3.545
55702SOL    HW169003   3.193  13.213   3.573
55702SOL    HW269004   3.123  13.142   3.459
55703SOL     OW69005   1.123  12.219  11.992
55703SOL    HW169006   1.094  12.304  11.961
55703SOL    HW269007   1.191  12.239  12.056
55704SOL     OW69008   2.037   0.161   4.880
55704SOL    HW169009   2.010   0.244   4.921
55704SOL    HW269010   2.039   0.098   4.952
55705SOL     OW69011   5.122   2.313   6.690
55705SOL    HW169012   5.113   2.270   6.605
55705SOL    HW269013   5.107   2.243   6.753
55706SOL     OW69014  10.780   3.695   1.882
55706SOL    HW169015  10.713   3.629   1.899
55706SOL    HW269016  10.841   3.653   1.821
55707SOL     OW69017   4.388   4.658   2.054
55707SOL    HW169018   4.422   4.650   2.143
55707SOL    HW269019   4.433   4.735   2.019
55708SOL     OW69020   7.104   1.640   4.700
55708SOL    HW169021   7.061   1.715   4.740
55708SOL    HW269022   7.062   1.564   4.741
55709SOL     OW69023   2.751   4.812  13.839
55709SOL    HW169024   2.810   4.874  13.796
55709SOL    HW269025   2.701   4.773  13.767
55710SOL     OW69026  12.575  11.222  14.270
55710SOL    HW169027  12.628  11.294  14.237
55710SOL    HW269028  12.638  11.153  14.291
55711SOL     OW69029   8.052  11.443   6.780
55711SOL    HW169030   8.057  11.410   6.870
55711SOL    HW269031   8.026  11.534   6.789
55712SOL     OW69032   8.599   4.516   6.863
55712SOL    HW169033   8.566   4.600   6.832
55712SOL    HW269034   8.541   4.451   6.821
55713SOL     OW69035   8.774   6.063   8.724
55713SOL    HW169036   8.785   6.064   8.819
55713SOL    HW269037   8.679   6.065   8.711
55714SOL     OW69038  12.959   5.975   1.075
55714SOL    HW169039  12.908   5.936   1.146
55714SOL    HW269040  13.045   5.993   1.113
55715SOL     OW69041   5.723  14.696   2.163
55715SOL    HW169042   5.692  14.718   2.075
55715SOL    HW269043   5.657  14.636   2.197
55716SOL     OW69044  11.606  12.138   1.666
55716SOL    HW169045  11.554  12.059   1.678
55716SOL    HW269046  11.643  12.129   1.578
55717SOL     OW69047   5.298   8.090   0.610
55717SOL    HW169048   5.257   8.020   0.660
55717SOL    HW269049   5.379   8.053   0.577
55718SOL     OW69050   7.274   0.058  11.120
55718SOL    HW169051   7.277   0.142  11.073
55718SOL    HW269052   7.181   0.036  11.123
55719SOL     OW69053   1.602   0.741  10.603
55719SOL    HW169054   1.685   0.696  10.615
55719SOL    HW269055   1.580   0.729  10.511
55720SOL     OW69056   7.273   5.357   2.674
55720SOL    HW169057   7.208   5.422   2.647
55720SOL    HW269058   7.224   5.296   2.728
55721SOL     OW69059  11.967   3.950   9.544
55721SOL    HW169060  11.977   3.873   9.601
55721SOL    HW269061  11.989   3.918   9.457
55722SOL     OW69062   0.548  12.335  11.495
55722SOL    HW169063   0.568  12.419  11.453
55722SOL    HW269064   0.453  12.336  11.506
55723SOL     OW69065  13.334   6.885   7.655
55723SOL    HW169066  13.373   6.874   7.742
55723SOL    HW269067  13.373   6.965   7.621
55724SOL     OW69068  14.437   5.453   7.772
55724SOL    HW169069  14.430   5.476   7.865
55724SOL    HW269070  14.487   5.525   7.734
55725SOL     OW69071  13.117   5.900   1.751
55725SOL    HW169072  13.200   5.895   1.798
55725SOL    HW269073  13.056   5.938   1.814
55726SOL     OW69074   8.263  12.078   2.471
55726SOL    HW169075   8.271  12.082   2.376
55726SOL    HW269076   8.257  12.170   2.499
55727SOL     OW69077   8.129   5.530   7.984
55727SOL    HW169078   8.194   5.598   7.965
55727SOL    HW269079   8.135   5.470   7.909
55728SOL     OW69080  10.447  14.388   9.878
55728SOL    HW169081  10.424  14.455   9.941
55728SOL    HW269082  10.384  14.399   9.806
55729SOL     OW69083   7.478   3.886  12.175
55729SOL    HW169084   7.393   3.923  12.152
55729SOL    HW269085   7.471   3.793  12.153
55730SOL     OW69086   8.027   3.083   6.331
55730SOL    HW169087   8.053   3.161   6.281
55730SOL    HW269088   8.033   3.110   6.422
55731SOL     OW69089   3.966   7.324  13.292
55731SOL    HW169090   3.914   7.244  13.288
55731SOL    HW269091   3.912   7.390  13.249
55732SOL     OW69092  11.308  12.264   2.959
55732SOL    HW169093  11.361  12.188   2.986
55732SOL    HW269094  11.294  12.251   2.865
55733SOL     OW69095   2.384   7.259   6.691
55733SOL    HW169096   2.446   7.298   6.754
55733SOL    HW269097   2.430   7.182   6.658
55734SOL     OW69098   4.802  12.361   1.149
55734SOL    HW169099   4.876  12.314   1.111
55734SOL    HW269100   4.726  12.328   1.101
55735SOL     OW69101   3.285   3.141   2.622
55735SOL    HW169102   3.378   3.118   2.612
55735SOL    HW269103   3.261   3.104   2.707
55736SOL     OW69104  10.835   3.333  11.357
55736SOL    HW169105  10.912   3.310  11.410
55736SOL    HW269106  10.871   3.362  11.273
55737SOL     OW69107   5.593   5.247   0.653
55737SOL    HW169108   5.648   5.277   0.580
55737SOL    HW269109   5.507   5.286   0.635
55738SOL     OW69110   7.571   7.149   3.032
55738SOL    HW169111   7.550   7.240   3.055
55738SOL    HW269112   7.649   7.156   2.977
55739SOL     OW69113  13.851   8.031  14.088
55739SOL    HW169114  13.885   8.103  14.140
55739SOL    HW269115  13.919   8.015  14.022
55740SOL     OW69116   3.905   7.984   2.180
55740SOL    HW169117   3.920   8.056   2.241
55740SOL    HW269118   3.851   8.022   2.111
55741SOL     OW69119   8.338  13.031  13.336
55741SOL    HW169120   8.397  12.956  13.331
55741SOL    HW269121   8.288  13.018  13.416
55742SOL     OW69122  13.626  10.032   1.966
55742SOL    HW169123  13.555  10.034   1.902
55742SOL    HW269124  13.704  10.053   1.915
55743SOL     OW69125   8.207   2.851  14.127
55743SOL    HW169126   8.242   2.899  14.202
55743SOL    HW269127   8.113   2.866  14.131
55744SOL     OW69128  12.795  13.628  12.505
55744SOL    HW169129  12.744  13.653  12.428
55744SOL    HW269130  12.730  13.621  12.575
55745SOL     OW69131   4.321   0.891  11.739
55745SOL    HW169132   4.269   0.964  11.706
55745SOL    HW269133   4.412   0.921  11.730
55746SOL     OW69134  11.022   2.535  12.372
55746SOL    HW169135  10.931   2.555  12.352
55746SOL    HW269136  11.045   2.595  12.442
55747SOL     OW69137  14.224  14.558   5.057
55747SOL    HW169138  14.191  14.472   5.085
55747SOL    HW269139  14.207  14.560   4.963
55748SOL     OW69140   0.117  11.825  11.897
55748SOL    HW169141   0.210  11.802  11.905
55748SOL    HW269142   0.092  11.854  11.985
55749SOL     OW69143  10.372   7.185  11.791
55749SOL    HW169144  10.285   7.146  11.801
55749SOL    HW269145  10.368   7.266  11.843
55750SOL     OW69146   5.028   1.159  12.837
55750SOL    HW169147   5.084   1.095  12.880
55750SOL    HW269148   4.957   1.107  12.798
55751SOL     OW69149  12.345   8.351   3.154
55751SOL    HW169150  12.275   8.359   3.089
55751SOL    HW269151  12.405   8.422   3.133
55752SOL     OW69152  12.047   1.006   4.949
55752SOL    HW169153  12.047   1.086   4.895
55752SOL    HW269154  12.100   1.029   5.025
55753SOL     OW69155   9.110   0.073   5.322
55753SOL    HW169156   9.155   0.001   5.278
55753SOL    HW269157   9.168   0.099   5.393
55754SOL     OW69158  14.829  12.511  11.551
55754SOL    HW169159  14.797  12.465  11.629
55754SOL    HW269160   0.043  12.495  11.551
55755SOL     OW69161   2.606  12.760  12.532
55755SOL    HW169162   2.674  12.697  12.506
55755SOL    HW269163   2.607  12.759  12.628
55756SOL     OW69164   1.096   4.730   3.264
55756SOL    HW169165   1.084   4.645   3.221
55756SOL    HW269166   1.033   4.788   3.220
55757SOL     OW69167  10.322   1.861   2.354
55757SOL    HW169168  10.411   1.834   2.333
55757SOL    HW269169  10.312   1.946   2.312
55758SOL     OW69170   8.491   6.945   7.887
55758SOL    HW169171   8.555   7.015   7.871
55758SOL    HW269172   8.540   6.880   7.937
55759SOL     OW69173   3.494   3.932  11.128
55759SOL    HW169174   3.403   3.945  11.103
55759SOL    HW269175   3.532   4.020  11.128
55760SOL     OW69176  14.542   1.433   0.481
55760SOL    HW169177  14.522   1.478   0.399
55760SOL    HW269178  14.635   1.412   0.475
55761SOL     OW69179   3.187   4.151   5.378
55761SOL    HW169180   3.235   4.183   5.301
55761SOL    HW269181   3.095   4.166   5.356
55762SOL     OW69182   0.779   6.766  12.856
55762SOL    HW169183   0.730   6.741  12.778
55762SOL    HW269184   0.757   6.700  12.922
55763SOL     OW69185   3.521  10.083   5.990
55763SOL    HW169186   3.602  10.100   6.037
55763SOL    HW269187   3.544  10.013   5.928
55764SOL     OW69188  14.100  14.325   4.127
55764SOL    HW169189  14.161  14.399   4.120
55764SOL    HW269190  14.065  14.331   4.216
55765SOL     OW69191  10.279   2.206   4.042
55765SOL    HW169192  10.330   2.288   4.037
55765SOL    HW269193  10.249   2.192   3.952
55766SOL     OW69194   1.353   1.471   4.509
55766SOL    HW169195   1.323   1.551   4.553
55766SOL    HW269196   1.389   1.502   4.426
55767SOL     OW69197   6.964   4.882   7.658
55767SOL    HW169198   6.980   4.965   7.702
55767SOL    HW269199   7.044   4.865   7.608
55768SOL     OW69200   2.341  12.184   7.205
55768SOL    HW169201   2.267  12.145   7.159
55768SOL    HW269202   2.367  12.118   7.269
55769SOL     OW69203  12.995   6.544   7.414
55769SOL    HW169204  13.069   6.595   7.447
55769SOL    HW269205  12.987   6.570   7.322
55770SOL     OW69206  12.787  13.169   5.469
55770SOL    HW169207  12.841  13.100   5.509
55770SOL    HW269208  12.846  13.214   5.409
55771SOL     OW69209  10.333  12.155   3.455
55771SOL    HW169210  10.273  12.093   3.414
55771SOL    HW269211  10.369  12.206   3.382
55772SOL     OW69212   6.482  14.186   6.456
55772SOL    HW169213   6.468  14.255   6.391
55772SOL    HW269214   6.439  14.109   6.419
55773SOL     OW69215   1.652   6.955  12.350
55773SOL    HW169216   1.735   6.950  12.302
55773SOL    HW269217   1.633   6.863  12.373
55774SOL     OW69218   6.432   5.727  11.618
55774SOL    HW169219   6.453   5.673  11.694
55774SOL    HW269220   6.444   5.668  11.543
55775SOL     OW69221  12.542   9.286  10.288
55775SOL    HW169222  12.586   9.277  10.372
55775SOL    HW269223  12.516   9.378  10.284
55776SOL     OW69224   4.602   1.118   9.411
55776SOL    HW169225   4.608   1.208   9.381
55776SOL    HW269226   4.692   1.086   9.409
55777SOL     OW69227   2.605   2.460  11.666
55777SOL    HW169228   2.677   2.509  11.627
55777SOL    HW269229   2.528   2.515  11.650
55778SOL     OW69230   9.440  12.457   4.714
55778SOL    HW169231   9.436  12.463   4.619
55778SOL    HW269232   9.438  12.363   4.733
55779SOL     OW69233   4.103  10.344   4.785
55779SOL    HW169234   4.045  10.398   4.837
55779SOL    HW269235   4.135  10.402   4.716
55780SOL     OW69236   8.662   1.561   3.994
55780SOL    HW169237   8.710   1.522   3.921
55780SOL    HW269238   8.632   1.486   4.045
55781SOL     OW69239   8.615   5.099   0.747
55781SOL    HW169240   8.588   5.120   0.658
55781SOL    HW269241   8.603   5.004   0.755
55782SOL     OW69242  10.241  13.034   9.876
55782SOL    HW169243  10.278  13.046   9.789
55782SOL    HW269244  10.151  13.004   9.860
55783SOL     OW69245   2.342  10.057  14.660
55783SOL    HW169246   2.361  10.078  14.568
55783SOL    HW269247   2.254  10.092  14.674
55784SOL     OW69248   1.513   1.739   5.710
55784SOL    HW169249   1.595   1.700   5.680
55784SOL    HW269250   1.454   1.665   5.722
55785SOL     OW69251  10.792   5.382   1.830
55785SOL    HW169252  10.744   5.431   1.763
55785SOL    HW269253  10.883   5.383   1.800
55786SOL     OW69254   7.115   0.082  11.790
55786SOL    HW169255   7.128   0.074  11.696
55786SOL    HW269256   7.071   0.167  11.802
55787SOL     OW69257   4.992   5.886   6.635
55787SOL    HW169258   4.932   5.824   6.593
55787SOL    HW269259   4.938   5.931   6.700
55788SOL     OW69260   4.543   0.342   8.947
55788SOL    HW169261   4.606   0.412   8.931
55788SOL    HW269262   4.594   0.261   8.942
55789SOL     OW69263   9.596  10.437  14.366
55789SOL    HW169264   9.544  10.456  14.288
55789SOL    HW269265   9.606  10.342  14.365
55790SOL     OW69266   4.514   7.267   4.136
55790SOL    HW169267   4.549   7.179   4.151
55790SOL    HW269268   4.447   7.277   4.204
55791SOL     OW69269   6.969  12.359   9.985
55791SOL    HW169270   6.989  12.362  10.078
55791SOL    HW269271   7.012  12.437   9.949
55792SOL     OW69272   2.209   3.182  13.107
55792SOL    HW169273   2.182   3.143  13.191
55792SOL    HW269274   2.258   3.112  13.063
55793SOL     OW69275   6.436   6.564   7.198
55793SOL    HW169276   6.417   6.472   7.183
55793SOL    HW269277   6.370   6.611   7.148
55794SOL     OW69278   2.057   2.264   6.566
55794SOL    HW169279   2.149   2.278   6.542
55794SOL    HW269280   2.061   2.201   6.638
55795SOL     OW69281   0.240   2.832   3.903
55795SOL    HW169282   0.287   2.877   3.834
55795SOL    HW269283   0.304   2.821   3.973
55796SOL     OW69284   7.873   0.124  13.273
55796SOL    HW169285   7.961   0.129  13.310
55796SOL    HW269286   7.842   0.215  13.273
55797SOL     OW69287  14.469   6.886   6.285
55797SOL    HW169288  14.401   6.824   6.309
55797SOL    HW269289  14.545   6.861   6.338
55798SOL     OW69290  14.320   1.647  11.627
55798SOL    HW169291  14.319   1.588  11.702
55798SOL    HW269292  14.410   1.644  11.595
55799SOL     OW69293   5.303   7.686   7.294
55799SOL    HW169294   5.370   7.689   7.226
55799SOL    HW269295   5.262   7.772   7.291
55800SOL     OW69296   6.219   7.774  13.205
55800SOL    HW169297   6.284   7.775  13.276
55800SOL    HW269298   6.210   7.866  13.180
55801SOL     OW69299   8.730   4.994   7.418
55801SOL    HW169300   8.775   4.930   7.364
55801SOL    HW269301   8.785   5.000   7.497
55802SOL     OW69302  14.650  11.431   5.611
55802SOL    HW169303  14.604  11.375   5.548
55802SOL    HW269304  14.591  11.434   5.687
55803SOL     OW69305  14.168  14.321   2.909
55803SOL    HW169306  14.102  14.261   2.944
55803SOL    HW269307  14.223  14.266   2.853
55804SOL     OW69308  10.327   8.084   4.967
55804SOL    HW169309  10.276   8.072   4.887
55804SOL    HW269310  10.262   8.092   5.036
55805SOL     OW69311   4.581   5.738   3.621
55805SOL    HW169312   4.626   5.686   3.554
55805SOL    HW269313   4.570   5.678   3.694
55806SOL     OW69314  10.156   4.646   3.606
55806SOL    HW169315  10.190   4.591   3.676
55806SOL    HW269316  10.070   4.674   3.638
55807SOL     OW69317  14.595   0.441   9.015
55807SOL    HW169318  14.684   0.469   9.036
55807SOL    HW269319  14.558   0.415   9.100
55808SOL     OW69320   7.254   4.029  11.363
55808SOL    HW169321   7.310   3.953  11.350
55808SOL    HW269322   7.257   4.046  11.457
55809SOL     OW69323  12.193  13.540   6.900
55809SOL    HW169324  12.120  13.569   6.845
55809SOL    HW269325  12.154  13.475   6.959
55810SOL     OW69326   5.862   2.448   9.928
55810SOL    HW169327   5.845   2.489  10.013
55810SOL    HW269328   5.852   2.519   9.864
55811SOL     OW69329   7.441   0.690   4.400
55811SOL    HW169330   7.424   0.694   4.494
55811SOL    HW269331   7.531   0.721   4.391
55812SOL     OW69332  10.666  13.145   4.862
55812SOL    HW169333  10.688  13.081   4.794
55812SOL    HW269334  10.664  13.093   4.943
55813SOL     OW69335  11.079   2.881  14.790
55813SOL    HW169336  11.055   2.973  14.784
55813SOL    HW269337  11.144   2.878  14.860
55814SOL     OW69338   1.057   5.361  12.253
55814SOL    HW169339   1.137   5.319  12.283
55814SOL    HW269340   0.991   5.292  12.255
55815SOL     OW69341  11.474  12.238  13.346
55815SOL    HW169342  11.459  12.157  13.297
55815SOL    HW269343  11.517  12.296  13.283
55816SOL     OW69344  10.034   8.863   4.862
55816SOL    HW169345   9.998   8.779   4.888
55816SOL    HW269346   9.958   8.914   4.834
55817SOL     OW69347   1.478   5.959   4.854
55817SOL    HW169348   1.389   5.947   4.888
55817SOL    HW269349   1.481   6.051   4.827
55818SOL     OW69350   8.079  10.949   0.110
55818SOL    HW169351   8.096  10.970   0.202
55818SOL    HW269352   8.003  11.003   0.087
55819SOL     OW69353   1.165   8.115   4.903
55819SOL    HW169354   1.154   8.183   4.969
55819SOL    HW269355   1.250   8.075   4.924
55820SOL     OW69356   8.420  12.726   5.106
55820SOL    HW169357   8.408  12.752   5.198
55820SOL    HW269358   8.337  12.748   5.064
55821SOL     OW69359   2.574  10.342   8.016
55821SOL    HW169360   2.531  10.260   8.041
55821SOL    HW269361   2.553  10.404   8.086
55822SOL     OW69362   5.684   4.460   7.613
55822SOL    HW169363   5.676   4.555   7.619
55822SOL    HW269364   5.753   4.438   7.676
55823SOL     OW69365   0.847  12.380  12.101
55823SOL    HW169366   0.903  12.310  12.067
55823SOL    HW269367   0.905  12.431  12.158
55824SOL     OW69368   5.656  11.337  10.343
55824SOL    HW169369   5.614  11.402  10.287
55824SOL    HW269370   5.592  11.266  10.349
55825SOL     OW69371  12.727   9.054  11.864
55825SOL    HW169372  12.648   9.093  11.902
55825SOL    HW269373  12.757   9.120  11.802
55826SOL     OW69374   9.755   6.018   3.529
55826SOL    HW169375   9.716   6.069   3.459
55826SOL    HW269376   9.817   6.079   3.571
55827SOL     OW69377   9.760   9.922  12.054
55827SOL    HW169378   9.760   9.848  12.114
55827SOL    HW269379   9.716   9.890  11.976
55828SOL     OW69380  11.312  14.332   3.445
55828SOL    HW169381  11.296  14.283   3.526
55828SOL    HW269382  11.376  14.399   3.469
55829SOL     OW69383  10.618   7.427   2.433
55829SOL    HW169384  10.679   7.361   2.399
55829SOL    HW269385  10.574   7.461   2.355
55830SOL     OW69386   0.250   9.132  10.295
55830SOL    HW169387   0.314   9.129  10.366
55830SOL    HW269388   0.300   9.109  10.216
55831SOL     OW69389   3.109  12.411   2.820
55831SOL    HW169390   3.022  12.373   2.824
55831SOL    HW269391   3.164  12.342   2.783
55832SOL     OW69392   0.314   8.802  13.098
55832SOL    HW169393   0.347   8.756  13.176
55832SOL    HW269394   0.311   8.735  13.030
55833SOL     OW69395   9.688   2.350  10.915
55833SOL    HW169396   9.738   2.371  10.995
55833SOL    HW269397   9.735   2.277  10.876
55834SOL     OW69398   8.690   9.768   0.026
55834SOL    HW169399   8.604   9.734   0.050
55834SOL    HW269400   8.672   9.840  14.846
55835SOL     OW69401  12.158  12.712  14.760
55835SOL    HW169402  12.174  12.775  14.831
55835SOL    HW269403  12.232  12.724  14.700
55836SOL     OW69404   2.079   9.441   4.171
55836SOL    HW169405   2.121   9.481   4.247
55836SOL    HW269406   2.142   9.452   4.100
55837SOL     OW69407   4.889  13.543   4.208
55837SOL    HW169408   4.951  13.565   4.138
55837SOL    HW269409   4.926  13.465   4.248
55838SOL     OW69410  12.348   3.907  14.804
55838SOL    HW169411  12.353   3.999  14.780
55838SOL    HW269412  12.416   3.896  14.871
55839SOL     OW69413   7.395  10.160   1.578
55839SOL    HW169414   7.340  10.237   1.563
55839SOL    HW269415   7.366  10.125   1.663
55840SOL     OW69416   4.289   3.212   0.090
55840SOL    HW169417   4.305   3.137   0.033
55840SOL    HW269418   4.318   3.182   0.177
55841SOL     OW69419   2.310   7.037  13.601
55841SOL    HW169420   2.230   7.088  13.615
55841SOL    HW269421   2.281   6.946  13.598
55842SOL     OW69422   1.988   7.541   3.577
55842SOL    HW169423   1.907   7.549   3.528
55842SOL    HW269424   1.961   7.547   3.669
55843SOL     OW69425   3.477  12.155   3.297
55843SOL    HW169426   3.473  12.242   3.337
55843SOL    HW269427   3.436  12.166   3.211
55844SOL     OW69428  11.747   4.541   1.162
55844SOL    HW169429  11.794   4.457   1.153
55844SOL    HW269430  11.746   4.558   1.256
55845SOL     OW69431   5.432   8.272   9.638
55845SOL    HW169432   5.347   8.296   9.676
55845SOL    HW269433   5.416   8.189   9.594
55846SOL     OW69434  12.751  13.280   5.723
55846SOL    HW169435  12.699  13.240   5.653
55846SOL    HW269436  12.827  13.316   5.678
55847SOL     OW69437   4.468   4.687   8.547
55847SOL    HW169438   4.444   4.676   8.455
55847SOL    HW269439   4.557   4.723   8.545
55848SOL     OW69440   3.947   1.608   6.711
55848SOL    HW169441   3.995   1.676   6.758
55848SOL    HW269442   3.942   1.535   6.772
55849SOL     OW69443   9.687   1.527   2.453
55849SOL    HW169444   9.781   1.540   2.444
55849SOL    HW269445   9.656   1.608   2.493
55850SOL     OW69446   3.117  14.253   8.188
55850SOL    HW169447   3.184  14.184   8.181
55850SOL    HW269448   3.073  14.252   8.103
55851SOL     OW69449   5.236   1.546   6.101
55851SOL    HW169450   5.295   1.530   6.174
55851SOL    HW269451   5.186   1.624   6.127
55852SOL     OW69452  12.482   1.597  12.890
55852SOL    HW169453  12.449   1.507  12.888
55852SOL    HW269454  12.548   1.597  12.959
55853SOL     OW69455   6.527   0.200   5.860
55853SOL    HW169456   6.481   0.275   5.823
55853SOL    HW269457   6.525   0.215   5.955
55854SOL     OW69458   6.180  12.035   4.651
55854SOL    HW169459   6.202  12.125   4.673
55854SOL    HW269460   6.091  12.023   4.683
55855SOL     OW69461   5.404   5.436  13.217
55855SOL    HW169462   5.498   5.420  13.228
55855SOL    HW269463   5.383   5.500  13.286
55856SOL     OW69464   2.710   7.536   4.925
55856SOL    HW169465   2.692   7.495   4.840
55856SOL    HW269466   2.784   7.487   4.961
55857SOL     OW69467  13.187   3.280   9.721
55857SOL    HW169468  13.105   3.328   9.707
55857SOL    HW269469  13.246   3.313   9.654
55858SOL     OW69470   2.275   6.313   5.195
55858SOL    HW169471   2.328   6.240   5.226
55858SOL    HW269472   2.251   6.361   5.275
55859SOL     OW69473   6.934   0.169   7.261
55859SOL    HW169474   6.956   0.114   7.186
55859SOL    HW269475   7.016   0.212   7.284
55860SOL     OW69476   3.099  12.644  11.317
55860SOL    HW169477   3.162  12.704  11.279
55860SOL    HW269478   3.055  12.695  11.385
55861SOL     OW69479   5.068   1.680   4.200
55861SOL    HW169480   5.022   1.596   4.205
55861SOL    HW269481   5.148   1.660   4.151
55862SOL     OW69482   1.684   9.129   0.850
55862SOL    HW169483   1.772   9.091   0.855
55862SOL    HW269484   1.671   9.171   0.934
55863SOL     OW69485   8.920   2.911   4.371
55863SOL    HW169486   8.886   3.000   4.378
55863SOL    HW269487   8.843   2.855   4.381
55864SOL     OW69488   5.221   0.246   6.403
55864SOL    HW169489   5.229   0.159   6.442
55864SOL    HW269490   5.218   0.230   6.308
55865SOL     OW69491   6.321   6.050  11.357
55865SOL    HW169492   6.276   5.973  11.391
55865SOL    HW269493   6.391   6.015  11.302
55866SOL     OW69494   5.967   5.607   6.581
55866SOL    HW169495   5.901   5.584   6.516
55866SOL    HW269496   5.955   5.701   6.595
55867SOL     OW69497   1.865   3.914   1.683
55867SOL    HW169498   1.771   3.918   1.667
55867SOL    HW269499   1.896   3.845   1.625
55868SOL     OW69500   9.686   5.157   4.798
55868SOL    HW169501   9.779   5.136   4.806
55868SOL    HW269502   9.684   5.251   4.782
55869SOL     OW69503  12.273   3.600   6.750
55869SOL    HW169504  12.232   3.663   6.691
55869SOL    HW269505  12.367   3.617   6.742
55870SOL     OW69506   6.554  10.870   2.316
55870SOL    HW169507   6.558  10.825   2.232
55870SOL    HW269508   6.549  10.799   2.381
55871SOL     OW69509  10.110   5.057   8.631
55871SOL    HW169510  10.166   5.001   8.685
55871SOL    HW269511  10.111   5.142   8.676
55872SOL     OW69512   4.975  12.520  11.875
55872SOL    HW169513   4.911  12.521  11.804
55872SOL    HW269514   5.059  12.533  11.832
55873SOL     OW69515  12.463   0.493   8.962
55873SOL    HW169516  12.535   0.529   8.909
55873SOL    HW269517  12.500   0.483   9.050
55874SOL     OW69518  12.737  13.413   2.094
55874SOL    HW169519  12.761  13.329   2.133
55874SOL    HW269520  12.819  13.446   2.057
55875SOL     OW69521   1.205  11.334   8.949
55875SOL    HW169522   1.262  11.355   8.876
55875SOL    HW269523   1.117  11.335   8.911
55876SOL     OW69524   0.505   0.600  13.500
55876SOL    HW169525   0.525   0.652  13.422
55876SOL    HW269526   0.476   0.665  13.565
55877SOL     OW69527  10.007   1.341   2.195
55877SOL    HW169528  10.082   1.397   2.176
55877SOL    HW269529   9.967   1.379   2.273
55878SOL     OW69530   0.274   0.857   6.433
55878SOL    HW169531   0.272   0.896   6.520
55878SOL    HW269532   0.357   0.810   6.429
55879SOL     OW69533   0.292   5.064   8.082
55879SOL    HW169534   0.342   5.146   8.088
55879SOL    HW269535   0.210   5.083   8.129
55880SOL     OW69536   6.514   1.797   5.971
55880SOL    HW169537   6.533   1.792   6.065
55880SOL    HW269538   6.571   1.730   5.932
55881SOL     OW69539  12.375  14.294  11.810
55881SOL    HW169540  12.297  14.299  11.755
55881SOL    HW269541  12.430  14.228  11.768
55882SOL     OW69542   6.303   1.745   0.798
55882SOL    HW169543   6.332   1.836   0.803
55882SOL    HW269544   6.376   1.695   0.835
55883SOL     OW69545  11.094  14.862   1.795
55883SOL    HW169546  11.108   0.075   1.780
55883SOL    HW269547  11.157  14.840   1.864
55884SOL     OW69548   0.197   9.714   2.134
55884SOL    HW169549   0.115   9.666   2.146
55884SOL    HW269550   0.176   9.783   2.071
55885SOL     OW69551  12.871  12.660   6.460
55885SOL    HW169552  12.930  12.718   6.508
55885SOL    HW269553  12.786  12.702   6.466
55886SOL     OW69554  10.650  10.878   1.536
55886SOL    HW169555  10.717  10.946   1.527
55886SOL    HW269556  10.639  10.843   1.448
55887SOL     OW69557   4.935  14.566   8.924
55887SOL    HW169558   4.987  14.488   8.941
55887SOL    HW269559   4.993  14.639   8.947
55888SOL     OW69560   4.635  14.141  11.819
55888SOL    HW169561   4.712  14.198  11.819
55888SOL    HW269562   4.620  14.121  11.727
55889SOL     OW69563   8.183   0.894   7.327
55889SOL    HW169564   8.256   0.956   7.333
55889SOL    HW269565   8.220   0.810   7.350
55890SOL     OW69566   6.000   2.050   2.291
55890SOL    HW169567   6.042   2.055   2.377
55890SOL    HW269568   6.036   1.971   2.252
55891SOL     OW69569   1.014   4.590   8.027
55891SOL    HW169570   0.969   4.673   8.045
55891SOL    HW269571   0.965   4.552   7.954
55892SOL     OW69572   7.837  12.605  10.878
55892SOL    HW169573   7.768  12.539  10.877
55892SOL    HW269574   7.823  12.654  10.959
55893SOL     OW69575  12.775   0.776   0.642
55893SOL    HW169576  12.847   0.718   0.619
55893SOL    HW269577  12.719   0.777   0.564
55894SOL     OW69578  10.358   5.316   1.769
55894SOL    HW169579  10.354   5.411   1.780
55894SOL    HW269580  10.266   5.288   1.770
55895SOL     OW69581   2.644   3.677   8.154
55895SOL    HW169582   2.587   3.661   8.079
55895SOL    HW269583   2.732   3.675   8.118
55896SOL     OW69584   6.873   4.053   4.981
55896SOL    HW169585   6.938   4.082   5.046
55896SOL    HW269586   6.812   3.999   5.031
55897SOL     OW69587  13.816   2.748   0.071
55897SOL    HW169588  13.870   2.785   0.002
55897SOL    HW269589  13.817   2.814   0.141
55898SOL     OW69590   4.565   2.624   9.626
55898SOL    HW169591   4.604   2.655   9.544
55898SOL    HW269592   4.495   2.687   9.644
55899SOL     OW69593   2.084   0.524   1.013
55899SOL    HW169594   2.091   0.430   0.996
55899SOL    HW269595   1.992   0.544   0.996
55900SOL     OW69596   9.746   5.906  13.420
55900SOL    HW169597   9.814   5.964  13.453
55900SOL    HW269598   9.792   5.843  13.365
55901SOL     OW69599   2.010   9.366   3.123
55901SOL    HW169600   2.090   9.323   3.095
55901SOL    HW269601   2.039   9.440   3.176
55902SOL     OW69602   9.388   2.039   9.667
55902SOL    HW169603   9.478   2.013   9.647
55902SOL    HW269604   9.339   2.022   9.586
55903SOL     OW69605   6.166   8.974   3.554
55903SOL    HW169606   6.089   8.952   3.606
55903SOL    HW269607   6.201   8.889   3.525
55904SOL     OW69608   5.526  12.649  10.102
55904SOL    HW169609   5.502  12.586  10.170
55904SOL    HW269610   5.535  12.732  10.149
55905SOL     OW69611   5.742  13.249   6.198
55905SOL    HW169612   5.770  13.235   6.108
55905SOL    HW269613   5.712  13.163   6.227
55906SOL     OW69614   7.899   1.342   4.522
55906SOL    HW169615   7.813   1.303   4.505
55906SOL    HW269616   7.911   1.333   4.616
55907SOL     OW69617   7.685   5.838  13.303
55907SOL    HW169618   7.708   5.797  13.387
55907SOL    HW269619   7.648   5.923  13.327
55908SOL     OW69620  12.499   2.892   3.830
55908SOL    HW169621  12.567   2.887   3.897
55908SOL    HW269622  12.458   2.977   3.843
55909SOL     OW69623  13.700   3.746  14.645
55909SOL    HW169624  13.684   3.653  14.663
55909SOL    HW269625  13.747   3.778  14.722
55910SOL     OW69626   9.350   6.262  11.034
55910SOL    HW169627   9.352   6.178  10.989
55910SOL    HW269628   9.264   6.265  11.076
55911SOL     OW69629   2.283   7.237   3.707
55911SOL    HW169630   2.357   7.183   3.733
55911SOL    HW269631   2.219   7.225   3.776
55912SOL     OW69632   1.488  13.696   1.304
55912SOL    HW169633   1.565  13.656   1.263
55912SOL    HW269634   1.417  13.635   1.287
55913SOL     OW69635  10.064   1.649   6.995
55913SOL    HW169636  10.006   1.593   6.945
55913SOL    HW269637  10.047   1.626   7.087
55914SOL     OW69638  11.804   9.389   8.904
55914SOL    HW169639  11.749   9.401   8.981
55914SOL    HW269640  11.882   9.442   8.921
55915SOL     OW69641   9.503  10.515  13.142
55915SOL    HW169642   9.497  10.421  13.153
55915SOL    HW269643   9.550  10.545  13.220
55916SOL     OW69644  13.440   8.926   9.086
55916SOL    HW169645  13.535   8.938   9.092
55916SOL    HW269646  13.419   8.865   9.157
55917SOL     OW69647   7.316   8.011   3.537
55917SOL    HW169648   7.255   8.030   3.608
55917SOL    HW269649   7.297   8.077   3.470
55918SOL     OW69650   5.998   1.932  11.512
55918SOL    HW169651   6.025   1.858  11.457
55918SOL    HW269652   5.980   1.893  11.598
55919SOL     OW69653   4.650  12.604   0.947
55919SOL    HW169654   4.719  12.653   0.990
55919SOL    HW269655   4.569  12.647   0.974
55920SOL     OW69656   3.180  14.385   0.734
55920SOL    HW169657   3.093  14.390   0.773
55920SOL    HW269658   3.190  14.294   0.708
55921SOL     OW69659   3.737  14.666  12.270
55921SOL    HW169660   3.644  14.652  12.250
55921SOL    HW269661   3.780  14.586  12.239
55922SOL     OW69662   0.751   0.830   0.547
55922SOL    HW169663   0.741   0.757   0.608
55922SOL    HW269664   0.712   0.798   0.466
55923SOL     OW69665   7.055   5.570   2.351
55923SOL    HW169666   7.046   5.529   2.437
55923SOL    HW269667   7.071   5.662   2.369
55924SOL     OW69668   2.831   1.394   0.978
55924SOL    HW169669   2.876   1.470   0.941
55924SOL    HW269670   2.895   1.356   1.038
55925SOL     OW69671   7.064   9.018   6.049
55925SOL    HW169672   7.031   8.956   5.984
55925SOL    HW269673   7.096   9.092   5.998
55926SOL     OW69674   6.948  10.151  12.949
55926SOL    HW169675   7.011  10.079  12.940
55926SOL    HW269676   6.909  10.160  12.863
55927SOL     OW69677   6.757  11.294   3.298
55927SOL    HW169678   6.685  11.282   3.360
55927SOL    HW269679   6.795  11.206   3.289
55928SOL     OW69680   5.292   1.759   6.770
55928SOL    HW169681   5.301   1.762   6.865
55928SOL    HW269682   5.382   1.762   6.737
55929SOL     OW69683  14.168  14.174  10.678
55929SOL    HW169684  14.116  14.208  10.751
55929SOL    HW269685  14.105  14.160  10.607
55930SOL     OW69686  11.699   0.710   4.024
55930SOL    HW169687  11.683   0.792   3.979
55930SOL    HW269688  11.701   0.644   3.955
55931SOL     OW69689   0.320   9.150   2.948
55931SOL    HW169690   0.242   9.095   2.940
55931SOL    HW269691   0.344   9.171   2.858
55932SOL     OW69692   3.590   2.816   6.373
55932SOL    HW169693   3.536   2.869   6.315
55932SOL    HW269694   3.635   2.755   6.314
55933SOL     OW69695   2.715  11.157   9.577
55933SOL    HW169696   2.625  11.191   9.573
55933SOL    HW269697   2.708  11.079   9.632
55934SOL     OW69698  14.871   8.293  10.223
55934SOL    HW169699  14.827   8.268  10.142
55934SOL    HW269700   0.041   8.215  10.248
55935SOL     OW69701   6.443   5.076   7.201
55935SOL    HW169702   6.404   5.040   7.281
55935SOL    HW269703   6.379   5.141   7.170
55936SOL     OW69704   7.229  10.457  10.673
55936SOL    HW169705   7.311  10.424  10.710
55936SOL    HW269706   7.188  10.381  10.632
55937SOL     OW69707   3.503   6.370   4.488
55937SOL    HW169708   3.551   6.401   4.565
55937SOL    HW269709   3.529   6.279   4.479
55938SOL     OW69710   3.618   5.206   3.346
55938SOL    HW169711   3.617   5.112   3.363
55938SOL    HW269712   3.546   5.220   3.284
55939SOL     OW69713   3.888   4.163   3.493
55939SOL    HW169714   3.961   4.225   3.484
55939SOL    HW269715   3.830   4.203   3.557
55940SOL     OW69716  12.357   7.732   2.371
55940SOL    HW169717  12.265   7.746   2.349
55940SOL    HW269718  12.375   7.642   2.340
55941SOL     OW69719   6.318  11.287  12.587
55941SOL    HW169720   6.303  11.344  12.512
55941SOL    HW269721   6.363  11.211  12.551
55942SOL     OW69722  11.652  10.676   4.823
55942SOL    HW169723  11.709  10.744   4.860
55942SOL    HW269724  11.693  10.594   4.849
55943SOL     OW69725   6.125  13.092  14.421
55943SOL    HW169726   6.127  13.186  14.441
55943SOL    HW269727   6.117  13.049  14.506
55944SOL     OW69728   2.264   2.896   3.554
55944SOL    HW169729   2.194   2.941   3.508
55944SOL    HW269730   2.336   2.959   3.557
55945SOL     OW69731  12.946   9.206   2.298
55945SOL    HW169732  13.003   9.129   2.306
55945SOL    HW269733  12.948   9.228   2.205
55946SOL     OW69734  11.096   3.570   5.654
55946SOL    HW169735  11.032   3.638   5.674
55946SOL    HW269736  11.061   3.491   5.695
55947SOL     OW69737  14.765   5.244   8.252
55947SOL    HW169738  14.792   5.252   8.344
55947SOL    HW269739  14.746   5.334   8.225
55948SOL     OW69740   5.463   1.866   8.167
55948SOL    HW169741   5.425   1.903   8.087
55948SOL    HW269742   5.531   1.806   8.134
55949SOL     OW69743  13.450  13.480   3.407
55949SOL    HW169744  13.474  13.569   3.382
55949SOL    HW269745  13.481  13.426   3.335
55950SOL     OW69746   3.856   8.968   7.946
55950SOL    HW169747   3.904   8.972   8.030
55950SOL    HW269748   3.847   8.875   7.928
55951SOL     OW69749   7.318  12.172  11.231
55951SOL    HW169750   7.236  12.177  11.182
55951SOL    HW269751   7.373  12.241  11.194
55952SOL     OW69752   2.851   3.976   8.460
55952SOL    HW169753   2.871   4.064   8.493
55952SOL    HW269754   2.883   3.978   8.369
55953SOL     OW69755   0.168   8.259   5.577
55953SOL    HW169756   0.186   8.224   5.490
55953SOL    HW269757   0.114   8.336   5.562
55954SOL     OW69758   6.285   2.605   9.176
55954SOL    HW169759   6.236   2.684   9.154
55954SOL    HW269760   6.218   2.538   9.188
55955SOL     OW69761   2.386   9.792   8.823
55955SOL    HW169762   2.298   9.807   8.859
55955SOL    HW269763   2.445   9.818   8.894
55956SOL     OW69764  12.669  12.879   9.769
55956SOL    HW169765  12.713  12.795   9.779
55956SOL    HW269766  12.618  12.889   9.850
55957SOL     OW69767   9.145   7.684   7.968
55957SOL    HW169768   9.121   7.774   7.988
55957SOL    HW269769   9.240   7.681   7.983
55958SOL     OW69770   2.666   3.614  11.747
55958SOL    HW169771   2.737   3.619  11.683
55958SOL    HW269772   2.685   3.535  11.798
55959SOL     OW69773  14.808   1.959  13.991
55959SOL    HW169774   0.000   1.923  14.043
55959SOL    HW269775  14.823   1.925  13.903
55960SOL     OW69776  13.469   9.921   9.628
55960SOL    HW169777  13.472   9.851   9.693
55960SOL    HW269778  13.380   9.955   9.632
55961SOL     OW69779   8.626   4.867  12.349
55961SOL    HW169780   8.538   4.831  12.354
55961SOL    HW269781   8.677   4.813  12.410
55962SOL     OW69782  12.082  14.065   9.549
55962SOL    HW169783  12.090  14.097   9.460
55962SOL    HW269784  12.144  13.992   9.555
55963SOL     OW69785   3.170  12.748   6.991
55963SOL    HW169786   3.144  12.834   6.958
55963SOL    HW269787   3.117  12.686   6.940
55964SOL     OW69788   0.762   1.083   0.442
55964SOL    HW169789   0.766   0.988   0.452
55964SOL    HW269790   0.740   1.115   0.530
55965SOL     OW69791   2.568   1.779   8.570
55965SOL    HW169792   2.605   1.863   8.597
55965SOL    HW269793   2.521   1.747   8.647
55966SOL     OW69794   6.919   2.017  10.651
55966SOL    HW169795   6.994   2.033  10.593
55966SOL    HW269796   6.938   2.068  10.729
55967SOL     OW69797  12.074  14.084   9.833
55967SOL    HW169798  12.126  14.162   9.852
55967SOL    HW269799  12.070  14.080   9.737
55968SOL     OW69800   3.886   2.184   9.480
55968SOL    HW169801   3.798   2.215   9.460
55968SOL    HW269802   3.883   2.090   9.458
55969SOL     OW69803  13.144   7.255  11.992
55969SOL    HW169804  13.118   7.217  11.908
55969SOL    HW269805  13.240   7.259  11.988
55970SOL     OW69806  12.126   5.301  13.050
55970SOL    HW169807  12.214   5.295  13.012
55970SOL    HW269808  12.139   5.332  13.139
55971SOL     OW69809   9.539  11.615  12.215
55971SOL    HW169810   9.464  11.557  12.211
55971SOL    HW269811   9.613  11.561  12.189
55972SOL     OW69812   6.217   2.034  10.380
55972SOL    HW169813   6.148   2.010  10.441
55972SOL    HW269814   6.200   1.982  10.302
55973SOL     OW69815   6.236   1.520   6.730
55973SOL    HW169816   6.214   1.477   6.647
55973SOL    HW269817   6.291   1.456   6.777
55974SOL     OW69818   0.109   5.982  13.134
55974SOL    HW169819   0.160   5.968  13.214
55974SOL    HW269820   0.175   5.989  13.065
55975SOL     OW69821   6.044  10.082  12.800
55975SOL    HW169822   6.068   9.994  12.829
55975SOL    HW269823   6.025  10.130  12.881
55976SOL     OW69824   7.674  13.880   0.270
55976SOL    HW169825   7.714  13.868   0.183
55976SOL    HW269826   7.654  13.791   0.300
55977SOL     OW69827  12.616   7.139   2.936
55977SOL    HW169828  12.579   7.216   2.980
55977SOL    HW269829  12.711   7.151   2.942
55978SOL     OW69830   5.502   5.629   6.001
55978SOL    HW169831   5.518   5.689   6.074
55978SOL    HW269832   5.589   5.613   5.964
55979SOL     OW69833   7.272   3.544   4.783
55979SOL    HW169834   7.334   3.519   4.715
55979SOL    HW269835   7.213   3.606   4.741
55980SOL     OW69836   1.422   3.186  10.900
55980SOL    HW169837   1.487   3.244  10.939
55980SOL    HW269838   1.405   3.120  10.967
55981SOL     OW69839   2.363   3.666   2.472
55981SOL    HW169840   2.322   3.616   2.543
55981SOL    HW269841   2.291   3.687   2.412
55982SOL     OW69842  12.845  13.042   5.871
55982SOL    HW169843  12.839  13.116   5.811
55982SOL    HW269844  12.928  13.055   5.916
55983SOL     OW69845   1.369   4.466  10.554
55983SOL    HW169846   1.449   4.461  10.607
55983SOL    HW269847   1.353   4.560  10.543
55984SOL     OW69848   9.115   3.313  13.605
55984SOL    HW169849   9.030   3.269  13.598
55984SOL    HW269850   9.166   3.278  13.531
55985SOL     OW69851   9.258   0.934  14.506
55985SOL    HW169852   9.351   0.944  14.527
55985SOL    HW269853   9.245   0.987  14.427
55986SOL     OW69854  12.774  13.889   8.144
55986SOL    HW169855  12.818  13.836   8.210
55986SOL    HW269856  12.756  13.828   8.072
55987SOL     OW69857  10.254  10.643   4.401
55987SOL    HW169858  10.265  10.548   4.408
55987SOL    HW269859  10.285  10.664   4.313
55988SOL     OW69860  13.367   1.864   0.505
55988SOL    HW169861  13.443   1.849   0.448
55988SOL    HW269862  13.387   1.816   0.585
55989SOL     OW69863  13.626   8.485   8.125
55989SOL    HW169864  13.714   8.510   8.153
55989SOL    HW269865  13.567   8.525   8.189
55990SOL     OW69866   7.352   4.625   4.782
55990SOL    HW169867   7.277   4.573   4.754
55990SOL    HW269868   7.325   4.716   4.771
55991SOL     OW69869   8.450   1.805   0.431
55991SOL    HW169870   8.466   1.711   0.442
55991SOL    HW269871   8.381   1.825   0.494
55992SOL     OW69872   1.370   5.750  13.359
55992SOL    HW169873   1.415   5.736  13.276
55992SOL    HW269874   1.363   5.663  13.399
55993SOL     OW69875  13.013   1.013  11.657
55993SOL    HW169876  13.009   1.008  11.752
55993SOL    HW269877  12.924   1.036  11.631
55994SOL     OW69878   0.329   1.116   0.166
55994SOL    HW169879   0.302   1.054   0.234
55994SOL    HW269880   0.266   1.187   0.172
55995SOL     OW69881   5.831   0.048   9.631
55995SOL    HW169882   5.898   0.019   9.569
55995SOL    HW269883   5.862   0.132   9.663
55996SOL     OW69884   6.045  13.295  13.466
55996SOL    HW169885   6.116  13.232  13.454
55996SOL    HW269886   5.984  13.275  13.395
55997SOL     OW69887   1.965  14.481   2.224
55997SOL    HW169888   1.925  14.409   2.272
55997SOL    HW269889   2.048  14.497   2.269
55998SOL     OW69890  10.019   2.934   8.094
55998SOL    HW169891  10.031   2.842   8.069
55998SOL    HW269892  10.031   2.934   8.189
55999SOL     OW69893  14.679   0.017  10.092
55999SOL    HW169894  14.645  14.809  10.081
55999SOL    HW269895  14.766   0.016  10.053
56000SOL     OW69896   1.232   1.160   5.465
56000SOL    HW169897   1.141   1.134   5.479
56000SOL    HW269898   1.230   1.211   5.384
56001SOL     OW69899   7.471   7.175   7.186
56001SOL    HW169900   7.405   7.208   7.125
56001SOL    HW269901   7.503   7.254   7.231
56002SOL     OW69902  10.082   4.638  12.992
56002SOL    HW169903   9.995   4.676  13.001
56002SOL    HW269904  10.126   4.694  12.928
56003SOL     OW69905   0.331  11.920   3.853
56003SOL    HW169906   0.250  11.951   3.813
56003SOL    HW269907   0.302  11.851   3.913
56004SOL     OW69908   3.815  14.554   3.158
56004SOL    HW169909   3.779  14.496   3.092
56004SOL    HW269910   3.870  14.615   3.109
56005SOL     OW69911  10.975  10.330   4.984
56005SOL    HW169912  10.965  10.264   4.915
56005SOL    HW269913  11.061  10.313   5.022
56006SOL     OW69914   9.808   9.813  10.150
56006SOL    HW169915   9.828   9.839  10.240
56006SOL    HW269916   9.886   9.837  10.100
56007SOL     OW69917   4.896  13.658   0.039
56007SOL    HW169918   4.844  13.701   0.108
56007SOL    HW269919   4.833  13.642  14.849
56008SOL     OW69920   0.513  13.356   6.802
56008SOL    HW169921   0.547  13.365   6.892
56008SOL    HW269922   0.583  13.313   6.754
56009SOL     OW69923  14.621   4.934   3.118
56009SOL    HW169924  14.566   4.856   3.125
56009SOL    HW269925  14.611   4.978   3.203
56010SOL     OW69926   5.670   0.858   9.868
56010SOL    HW169927   5.603   0.894   9.926
56010SOL    HW269928   5.642   0.768   9.852
56011SOL     OW69929   3.806  14.496   1.648
56011SOL    HW169930   3.814  14.462   1.737
56011SOL    HW269931   3.715  14.524   1.642
56012SOL     OW69932   7.465  13.223   6.720
56012SOL    HW169933   7.548  13.269   6.710
56012SOL    HW269934   7.479  13.164   6.793
56013SOL     OW69935   1.209   6.739  11.731
56013SOL    HW169936   1.292   6.725  11.685
56013SOL    HW269937   1.143   6.746  11.662
56014SOL     OW69938  10.927   7.716   2.339
56014SOL    HW169939  10.908   7.809   2.351
56014SOL    HW269940  10.852   7.672   2.379
56015SOL     OW69941  13.584  11.768   6.627
56015SOL    HW169942  13.661  11.750   6.680
56015SOL    HW269943  13.598  11.718   6.546
56016SOL     OW69944   4.561  13.815   5.915
56016SOL    HW169945   4.500  13.820   5.841
56016SOL    HW269946   4.571  13.905   5.944
56017SOL     OW69947   6.397   9.658   8.266
56017SOL    HW169948   6.483   9.694   8.291
56017SOL    HW269949   6.383   9.690   8.177
56018SOL     OW69950   3.440  14.674   7.083
56018SOL    HW169951   3.403  14.604   7.030
56018SOL    HW269952   3.496  14.629   7.147
56019SOL     OW69953   0.963   8.499  11.078
56019SOL    HW169954   1.055   8.504  11.103
56019SOL    HW269955   0.953   8.412  11.040
56020SOL     OW69956   2.114  10.129  11.145
56020SOL    HW169957   2.106  10.048  11.094
56020SOL    HW269958   2.196  10.168  11.116
56021SOL     OW69959  13.323  12.380   7.403
56021SOL    HW169960  13.363  12.326   7.471
56021SOL    HW269961  13.353  12.469   7.422
56022SOL     OW69962   8.812  10.185  13.256
56022SOL    HW169963   8.874  10.256  13.243
56022SOL    HW269964   8.861  10.117  13.303
56023SOL     OW69965   3.844   0.805  13.621
56023SOL    HW169966   3.842   0.716  13.656
56023SOL    HW269967   3.758   0.815  13.579
56024SOL     OW69968   6.905   1.664   3.484
56024SOL    HW169969   6.958   1.602   3.535
56024SOL    HW269970   6.903   1.626   3.396
56025SOL     OW69971   8.406   3.073   2.362
56025SOL    HW169972   8.494   3.080   2.326
56025SOL    HW269973   8.356   3.026   2.295
56026SOL     OW69974  13.100   0.233   6.284
56026SOL    HW169975  13.188   0.200   6.305
56026SOL    HW269976  13.075   0.284   6.361
56027SOL     OW69977   4.914   5.440   2.836
56027SOL    HW169978   5.002   5.426   2.870
56027SOL    HW269979   4.888   5.526   2.869
56028SOL     OW69980  13.169  14.769  10.181
56028SOL    HW169981  13.169  14.673  10.189
56028SOL    HW269982  13.099  14.798  10.240
56029SOL     OW69983   6.647  14.316   2.769
56029SOL    HW169984   6.658  14.374   2.844
56029SOL    HW269985   6.600  14.368   2.704
56030SOL     OW69986   4.375   8.202   8.381
56030SOL    HW169987   4.354   8.109   8.369
56030SOL    HW269988   4.463   8.203   8.417
56031SOL     OW69989   6.908   7.496  11.346
56031SOL    HW169990   6.969   7.524  11.414
56031SOL    HW269991   6.829   7.549  11.361
56032SOL     OW69992  12.773  11.821   1.383
56032SOL    HW169993  12.753  11.910   1.410
56032SOL    HW269994  12.831  11.832   1.307
56033SOL     OW69995  14.156   6.690   6.458
56033SOL    HW169996  14.081   6.643   6.419
56033SOL    HW269997  14.160   6.658   6.548
56034SOL     OW69998   4.054   6.065   2.102
56034SOL    HW169999   3.985   5.999   2.092
56034SOL    HW270000   4.131   6.026   2.060
56035SOL     OW70001   2.457   9.936  13.453
56035SOL    HW170002   2.526  10.000  13.470
56035SOL    HW270003   2.459   9.879  13.530
56036SOL     OW70004  11.828   9.156  11.215
56036SOL    HW170005  11.756   9.194  11.165
56036SOL    HW270006  11.854   9.224  11.276
56037SOL     OW70007   3.877   6.213  14.079
56037SOL    HW170008   3.933   6.136  14.072
56037SOL    HW270009   3.889   6.244  14.169
56038SOL     OW70010  12.121   3.462   8.509
56038SOL    HW170011  12.147   3.489   8.597
56038SOL    HW270012  12.150   3.534   8.452
56039SOL     OW70013   2.046   2.012   6.092
56039SOL    HW170014   1.967   1.957   6.088
56039SOL    HW270015   2.118   1.950   6.081
56040SOL     OW70016  12.426   6.077  14.716
56040SOL    HW170017  12.385   6.060  14.800
56040SOL    HW270018  12.425   6.172  14.707
56041SOL     OW70019   9.973   4.254   0.862
56041SOL    HW170020   9.990   4.337   0.816
56041SOL    HW270021   9.878   4.248   0.866
56042SOL     OW70022   0.267  12.715  14.558
56042SOL    HW170023   0.334  12.655  14.591
56042SOL    HW270024   0.196  12.708  14.622
56043SOL     OW70025   2.166   4.487   2.014
56043SOL    HW170026   2.114   4.506   2.092
56043SOL    HW270027   2.240   4.548   2.019
56044SOL     OW70028   9.901   3.945   7.244
56044SOL    HW170029   9.875   3.895   7.167
56044SOL    HW270030   9.825   3.939   7.303
56045SOL     OW70031  10.458  13.422   8.020
56045SOL    HW170032  10.431  13.356   8.083
56045SOL    HW270033  10.546  13.396   7.994
56046SOL     OW70034   0.690   8.624   5.969
56046SOL    HW170035   0.647   8.702   6.004
56046SOL    HW270036   0.618   8.566   5.944
56047SOL     OW70037  13.002  11.097  12.933
56047SOL    HW170038  12.954  11.015  12.920
56047SOL    HW270039  13.090  11.070  12.957
56048SOL     OW70040   4.173   2.124  13.772
56048SOL    HW170041   4.166   2.218  13.754
56048SOL    HW270042   4.209   2.086  13.692
56049SOL     OW70043  11.921  13.951   9.016
56049SOL    HW170044  11.967  14.030   9.042
56049SOL    HW270045  11.892  13.968   8.926
56050SOL     OW70046  10.706   6.711   4.058
56050SOL    HW170047  10.767   6.649   4.097
56050SOL    HW270048  10.639   6.725   4.126
56051SOL     OW70049   0.570   4.992  13.945
56051SOL    HW170050   0.564   5.085  13.967
56051SOL    HW270051   0.616   4.990  13.861
56052SOL     OW70052   5.238   0.686   0.683
56052SOL    HW170053   5.201   0.702   0.770
56052SOL    HW270054   5.213   0.596   0.662
56053SOL     OW70055  12.044  13.479  13.948
56053SOL    HW170056  12.013  13.496  13.859
56053SOL    HW270057  12.025  13.386  13.962
56054SOL     OW70058  13.112  11.302   9.217
56054SOL    HW170059  13.143  11.389   9.243
56054SOL    HW270060  13.104  11.307   9.122
56055SOL     OW70061   3.084   1.374   2.640
56055SOL    HW170062   3.146   1.336   2.702
56055SOL    HW270063   3.117   1.462   2.623
56056SOL     OW70064  14.264   2.779  10.427
56056SOL    HW170065  14.312   2.794  10.509
56056SOL    HW270066  14.173   2.796  10.450
56057SOL     OW70067  13.597   1.674   4.375
56057SOL    HW170068  13.531   1.606   4.385
56057SOL    HW270069  13.659   1.658   4.446
56058SOL     OW70070   4.450  13.748   8.916
56058SOL    HW170071   4.529  13.785   8.955
56058SOL    HW270072   4.388  13.742   8.989
56059SOL     OW70073  10.810   2.532   3.621
56059SOL    HW170074  10.762   2.470   3.675
56059SOL    HW270075  10.840   2.481   3.546
56060SOL     OW70076  14.552   6.998   4.880
56060SOL    HW170077  14.490   7.008   4.952
56060SOL    HW270078  14.589   7.085   4.867
56061SOL     OW70079  12.579   3.427   4.305
56061SOL    HW170080  12.654   3.485   4.322
56061SOL    HW270081  12.617   3.340   4.295
56062SOL     OW70082   5.190  11.890  12.429
56062SOL    HW170083   5.111  11.944  12.431
56062SOL    HW270084   5.202  11.869  12.337
56063SOL     OW70085   6.009  12.920  11.751
56063SOL    HW170086   6.063  12.969  11.688
56063SOL    HW270087   6.001  12.979  11.826
56064SOL     OW70088  10.241   3.515   5.374
56064SOL    HW170089  10.257   3.422   5.358
56064SOL    HW270090  10.285   3.560   5.301
56065SOL     OW70091   6.937   0.167  10.325
56065SOL    HW170092   6.975   0.129  10.404
56065SOL    HW270093   6.844   0.175  10.344
56066SOL     OW70094   8.312   7.354  12.133
56066SOL    HW170095   8.348   7.432  12.175
56066SOL    HW270096   8.295   7.293  12.205
56067SOL     OW70097   8.300   0.724  13.947
56067SOL    HW170098   8.292   0.660  13.876
56067SOL    HW270099   8.329   0.805  13.903
56068SOL     OW70100  11.565   0.736  12.713
56068SOL    HW170101  11.659   0.755  12.707
56068SOL    HW270102  11.533   0.794  12.782
56069SOL     OW70103   0.246   2.883   6.845
56069SOL    HW170104   0.291   2.820   6.788
56069SOL    HW270105   0.268   2.853   6.934
56070SOL     OW70106   1.136   8.385   9.378
56070SOL    HW170107   1.059   8.421   9.422
56070SOL    HW270108   1.122   8.404   9.285
56071SOL     OW70109  11.202  14.677  11.219
56071SOL    HW170110  11.163  14.724  11.145
56071SOL    HW270111  11.263  14.740  11.258
56072SOL     OW70112  12.181  12.430   1.534
56072SOL    HW170113  12.232  12.498   1.489
56072SOL    HW270114  12.151  12.373   1.464
56073SOL     OW70115  14.032   5.887   9.366
56073SOL    HW170116  14.046   5.904   9.273
56073SOL    HW270117  14.071   5.963   9.410
56074SOL     OW70118  14.700   6.746   4.188
56074SOL    HW170119  14.718   6.787   4.273
56074SOL    HW270120  14.768   6.781   4.130
56075SOL     OW70121  14.827  11.638  10.194
56075SOL    HW170122  14.875  11.578  10.251
56075SOL    HW270123  14.835  11.723  10.236
56076SOL     OW70124   9.347  13.927   3.953
56076SOL    HW170125   9.259  13.890   3.949
56076SOL    HW270126   9.386  13.887   4.031
56077SOL     OW70127   3.071   7.716   2.940
56077SOL    HW170128   3.142   7.683   2.884
56077SOL    HW270129   3.109   7.793   2.984
56078SOL     OW70130   5.616  14.838   4.007
56078SOL    HW170131   5.698   0.007   4.001
56078SOL    HW270132   5.549   0.020   3.977
56079SOL     OW70133   6.224  12.194  12.655
56079SOL    HW170134   6.274  12.266  12.616
56079SOL    HW270135   6.193  12.228  12.739
56080SOL     OW70136   9.798  14.716   7.639
56080SOL    HW170137   9.872  14.671   7.680
56080SOL    HW270138   9.808  14.699   7.546
56081SOL     OW70139  14.590  12.281   1.078
56081SOL    HW170140  14.541  12.351   1.034
56081SOL    HW270141  14.590  12.306   1.170
56082SOL     OW70142   9.718   9.803  10.636
56082SOL    HW170143   9.633   9.812  10.593
56082SOL    HW270144   9.727   9.709  10.651
56083SOL     OW70145   1.861   8.405   7.983
56083SOL    HW170146   1.868   8.482   7.926
56083SOL    HW270147   1.872   8.439   8.071
56084SOL     OW70148   0.960  13.937   9.205
56084SOL    HW170149   0.985  13.887   9.283
56084SOL    HW270150   1.001  14.022   9.216
56085SOL     OW70151  13.156   8.828   5.457
56085SOL    HW170152  13.183   8.884   5.529
56085SOL    HW270153  13.120   8.888   5.391
56086SOL     OW70154   8.500  11.611  13.441
56086SOL    HW170155   8.547  11.679  13.392
56086SOL    HW270156   8.566  11.544  13.458
56087SOL     OW70157   6.159  12.631  10.881
56087SOL    HW170158   6.237  12.687  10.882
56087SOL    HW270159   6.094  12.682  10.929
56088SOL     OW70160  10.462   0.175   6.560
56088SOL    HW170161  10.529   0.241   6.542
56088SOL    HW270162  10.410   0.213   6.630
56089SOL     OW70163   8.744   0.795   5.015
56089SOL    HW170164   8.735   0.875   4.964
56089SOL    HW270165   8.791   0.822   5.094
56090SOL     OW70166  10.057   3.223   8.529
56090SOL    HW170167   9.985   3.183   8.481
56090SOL    HW270168  10.101   3.278   8.464
56091SOL     OW70169   4.585   0.310   9.362
56091SOL    HW170170   4.583   0.404   9.344
56091SOL    HW270171   4.630   0.273   9.286
56092SOL     OW70172   9.957   9.879   1.884
56092SOL    HW170173   9.872   9.866   1.926
56092SOL    HW270174   9.998   9.950   1.933
56093SOL     OW70175   5.745   2.522   7.141
56093SOL    HW170176   5.734   2.441   7.190
56093SOL    HW270177   5.687   2.514   7.065
56094SOL     OW70178   2.246   6.388   2.382
56094SOL    HW170179   2.157   6.421   2.392
56094SOL    HW270180   2.263   6.341   2.464
56095SOL     OW70181   3.421   3.712  14.741
56095SOL    HW170182   3.455   3.708  14.831
56095SOL    HW270183   3.331   3.743  14.750
56096SOL     OW70184   8.228   8.800   0.670
56096SOL    HW170185   8.163   8.844   0.616
56096SOL    HW270186   8.277   8.744   0.609
56097SOL     OW70187   8.353   6.980  13.602
56097SOL    HW170188   8.413   7.043  13.563
56097SOL    HW270189   8.365   6.900  13.551
56098SOL     OW70190  12.957   9.653  12.147
56098SOL    HW170191  12.983   9.650  12.055
56098SOL    HW270192  13.036   9.628  12.195
56099SOL     OW70193   6.313  11.913   2.559
56099SOL    HW170194   6.320  11.866   2.642
56099SOL    HW270195   6.273  11.996   2.582
56100SOL     OW70196   7.037  14.814   3.925
56100SOL    HW170197   7.067  14.816   4.016
56100SOL    HW270198   6.993   0.018   3.912
56101SOL     OW70199  12.168   4.423  13.885
56101SOL    HW170200  12.249   4.420  13.834
56101SOL    HW270201  12.189   4.378  13.967
56102SOL     OW70202   0.452   7.586   5.236
56102SOL    HW170203   0.547   7.586   5.230
56102SOL    HW270204   0.430   7.501   5.275
56103SOL     OW70205  14.223   9.670   2.016
56103SOL    HW170206  14.192   9.626   1.936
56103SOL    HW270207  14.238   9.598   2.078
56104SOL     OW70208   6.083   1.084   0.949
56104SOL    HW170209   5.988   1.072   0.953
56104SOL    HW270210   6.099   1.127   0.866
56105SOL     OW70211  11.477   8.082   7.409
56105SOL    HW170212  11.476   8.160   7.464
56105SOL    HW270213  11.453   8.010   7.468
56106SOL     OW70214   3.339   4.583  14.381
56106SOL    HW170215   3.351   4.515  14.314
56106SOL    HW270216   3.356   4.537  14.464
56107SOL     OW70217   7.899  13.116  14.449
56107SOL    HW170218   7.980  13.118  14.398
56107SOL    HW270219   7.863  13.029  14.434
56108SOL     OW70220   8.452   6.661   0.513
56108SOL    HW170221   8.523   6.719   0.485
56108SOL    HW270222   8.431   6.609   0.436
56109SOL     OW70223   2.655   0.800  10.602
56109SOL    HW170224   2.573   0.781  10.647
56109SOL    HW270225   2.678   0.889  10.630
56110SOL     OW70226  10.330   5.053  10.133
56110SOL    HW170227  10.408   5.036  10.081
56110SOL    HW270228  10.266   4.988  10.102
56111SOL     OW70229   9.364  11.406   1.707
56111SOL    HW170230   9.317  11.445   1.780
56111SOL    HW270231   9.437  11.359   1.747
56112SOL     OW70232  11.076   8.224   3.489
56112SOL    HW170233  11.090   8.298   3.547
56112SOL    HW270234  11.122   8.248   3.408
56113SOL     OW70235   5.297   4.684   1.306
56113SOL    HW170236   5.319   4.776   1.320
56113SOL    HW270237   5.306   4.643   1.392
56114SOL     OW70238  13.158   9.043   5.258
56114SOL    HW170239  13.063   9.055   5.251
56114SOL    HW270240  13.189   9.048   5.168
56115SOL     OW70241  10.744  14.423   3.209
56115SOL    HW170242  10.748  14.517   3.192
56115SOL    HW270243  10.676  14.413   3.276
56116SOL     OW70244   0.976   6.791   4.639
56116SOL    HW170245   0.884   6.791   4.613
56116SOL    HW270246   0.983   6.722   4.704
56117SOL     OW70247  14.620   5.046   2.805
56117SOL    HW170248  14.579   4.985   2.744
56117SOL    HW270249  14.554   5.116   2.816
56118SOL     OW70250  13.399  10.793  14.642
56118SOL    HW170251  13.448  10.867  14.678
56118SOL    HW270252  13.455  10.759  14.572
56119SOL     OW70253   0.162  13.713   2.021
56119SOL    HW170254   0.227  13.691   2.088
56119SOL    HW270255   0.079  13.715   2.069
56120SOL     OW70256  11.070   8.154   0.585
56120SOL    HW170257  11.064   8.149   0.680
56120SOL    HW270258  11.111   8.071   0.560
56121SOL     OW70259   3.613   8.477   3.050
56121SOL    HW170260   3.615   8.435   3.137
56121SOL    HW270261   3.571   8.412   2.994
56122SOL     OW70262   7.477   5.977   0.368
56122SOL    HW170263   7.468   5.972   0.273
56122SOL    HW270264   7.571   5.984   0.383
56123SOL     OW70265   3.251   6.230  13.500
56123SOL    HW170266   3.299   6.299  13.455
56123SOL    HW270267   3.257   6.154  13.442
56124SOL     OW70268  14.140   5.289  12.923
56124SOL    HW170269  14.095   5.374  12.930
56124SOL    HW270270  14.223   5.302  12.969
56125SOL     OW70271   0.056   1.214   9.172
56125SOL    HW170272   0.049   1.175   9.259
56125SOL    HW270273   0.113   1.154   9.123
56126SOL     OW70274   5.004   1.467  11.174
56126SOL    HW170275   4.951   1.530  11.125
56126SOL    HW270276   4.959   1.457  11.258
56127SOL     OW70277   5.359   3.953   6.653
56127SOL    HW170278   5.314   4.023   6.699
56127SOL    HW270279   5.295   3.882   6.646
56128SOL     OW70280  10.690   2.921   5.998
56128SOL    HW170281  10.784   2.915   5.980
56128SOL    HW270282  10.685   2.946   6.090
56129SOL     OW70283   2.660   5.073   5.267
56129SOL    HW170284   2.624   5.042   5.184
56129SOL    HW270285   2.610   5.025   5.334
56130SOL     OW70286   0.856   4.641   2.080
56130SOL    HW170287   0.774   4.682   2.052
56130SOL    HW270288   0.919   4.713   2.083
56131SOL     OW70289   4.754  13.127  13.319
56131SOL    HW170290   4.832  13.071  13.324
56131SOL    HW270291   4.721  13.114  13.230
56132SOL     OW70292  10.598   2.333  14.746
56132SOL    HW170293  10.680   2.374  14.721
56132SOL    HW270294  10.559   2.392  14.811
56133SOL     OW70295   0.210  11.659   5.922
56133SOL    HW170296   0.124  11.658   5.880
56133SOL    HW270297   0.229  11.567   5.939
56134SOL     OW70298  14.289   3.012   8.085
56134SOL    HW170299  14.313   2.957   8.159
56134SOL    HW270300  14.309   3.101   8.114
56135SOL     OW70301   5.670   8.750   8.395
56135SOL    HW170302   5.591   8.781   8.350
56135SOL    HW270303   5.718   8.830   8.418
56136SOL     OW70304   1.946   7.225   5.572
56136SOL    HW170305   2.030   7.271   5.580
56136SOL    HW270306   1.901   7.269   5.501
56137SOL     OW70307  11.039  10.294   2.416
56137SOL    HW170308  11.128  10.275   2.386
56137SOL    HW270309  11.013  10.372   2.365
56138SOL     OW70310   0.314   0.916   9.315
56138SOL    HW170311   0.316   0.928   9.410
56138SOL    HW270312   0.406   0.920   9.288
56139SOL     OW70313   8.843   6.131   5.295
56139SOL    HW170314   8.838   6.191   5.220
56139SOL    HW270315   8.780   6.062   5.274
56140SOL     OW70316  13.135   0.016   7.871
56140SOL    HW170317  13.133  14.827   7.938
56140SOL    HW270318  13.055   0.065   7.885
56141SOL     OW70319   8.087   0.388   6.841
56141SOL    HW170320   8.182   0.376   6.836
56141SOL    HW270321   8.051   0.303   6.816
56142SOL     OW70322  11.238   7.745   2.017
56142SOL    HW170323  11.265   7.777   2.103
56142SOL    HW270324  11.229   7.824   1.964
56143SOL     OW70325   0.716   6.785  13.685
56143SOL    HW170326   0.621   6.798  13.695
56143SOL    HW270327   0.743   6.851  13.622
56144SOL     OW70328  10.102   6.394  12.599
56144SOL    HW170329  10.044   6.465  12.627
56144SOL    HW270330  10.046   6.337  12.545
56145SOL     OW70331   1.038   7.485  14.775
56145SOL    HW170332   1.111   7.491  14.837
56145SOL    HW270333   0.986   7.412  14.806
56146SOL     OW70334   4.238  10.406   0.443
56146SOL    HW170335   4.236  10.321   0.399
56146SOL    HW270336   4.310  10.399   0.505
56147SOL     OW70337  11.046   8.824  10.655
56147SOL    HW170338  10.996   8.764  10.598
56147SOL    HW270339  11.086   8.887  10.594
56148SOL     OW70340   9.255  10.659  14.877
56148SOL    HW170341   9.317  10.608  14.825
56148SOL    HW270342   9.195  10.594   0.033
56149SOL     OW70343   6.209  12.020   0.423
56149SOL    HW170344   6.131  12.023   0.477
56149SOL    HW270345   6.186  12.068   0.344
56150SOL     OW70346   6.484   6.601   8.562
56150SOL    HW170347   6.470   6.634   8.651
56150SOL    HW270348   6.561   6.649   8.531
56151SOL     OW70349   8.602   2.240   4.686
56151SOL    HW170350   8.541   2.307   4.655
56151SOL    HW270351   8.612   2.258   4.779
56152SOL     OW70352   3.969   4.370   5.271
56152SOL    HW170353   3.993   4.277   5.268
56152SOL    HW270354   3.910   4.377   5.347
56153SOL     OW70355  11.703  12.652   0.183
56153SOL    HW170356  11.705  12.741   0.220
56153SOL    HW270357  11.783  12.647   0.130
56154SOL     OW70358   8.954  12.882   9.479
56154SOL    HW170359   8.908  12.799   9.486
56154SOL    HW270360   8.889  12.944   9.446
56155SOL     OW70361  11.101   2.296  14.299
56155SOL    HW170362  11.138   2.251  14.223
56155SOL    HW270363  11.028   2.347  14.263
56156SOL     OW70364  10.515   2.276   7.460
56156SOL    HW170365  10.570   2.198   7.462
56156SOL    HW270366  10.571   2.346   7.494
56157SOL     OW70367   0.477  13.611   0.966
56157SOL    HW170368   0.401  13.668   0.958
56157SOL    HW270369   0.476  13.558   0.885
56158SOL     OW70370   6.736  10.542   4.643
56158SOL    HW170371   6.700  10.535   4.731
56158SOL    HW270372   6.721  10.634   4.618
56159SOL     OW70373  14.795   7.932  13.256
56159SOL    HW170374  14.755   7.846  13.238
56159SOL    HW270375  14.740   7.970  13.324
56160SOL     OW70376  14.318   8.338   0.924
56160SOL    HW170377  14.231   8.373   0.944
56160SOL    HW270378  14.336   8.368   0.835
56161SOL     OW70379   7.364   4.201  13.189
56161SOL    HW170380   7.283   4.249  13.171
56161SOL    HW270381   7.344   4.110  13.166
56162SOL     OW70382  13.936   9.986  14.253
56162SOL    HW170383  13.958  10.041  14.177
56162SOL    HW270384  13.987   9.906  14.240
56163SOL     OW70385   2.905  12.627   6.511
56163SOL    HW170386   2.966  12.691   6.475
56163SOL    HW270387   2.879  12.664   6.596
56164SOL     OW70388   7.254  12.449   1.968
56164SOL    HW170389   7.205  12.531   1.965
56164SOL    HW270390   7.188  12.381   1.973
56165SOL     OW70391   2.818  13.946  10.056
56165SOL    HW170392   2.844  14.010  10.122
56165SOL    HW270393   2.831  13.861  10.099
56166SOL     OW70394  13.787   7.323   4.251
56166SOL    HW170395  13.705   7.286   4.285
56166SOL    HW270396  13.844   7.247   4.238
56167SOL     OW70397   7.536   5.981   6.929
56167SOL    HW170398   7.441   5.992   6.919
56167SOL    HW270399   7.571   5.994   6.841
56168SOL     OW70400  14.029   2.417   8.618
56168SOL    HW170401  14.061   2.507   8.623
56168SOL    HW270402  13.953   2.423   8.560
56169SOL     OW70403  14.842   4.177   8.091
56169SOL    HW170404   0.056   4.192   8.081
56169SOL    HW270405  14.827   4.186   8.185
56170SOL     OW70406   5.523   3.955   7.147
56170SOL    HW170407   5.457   4.017   7.179
56170SOL    HW270408   5.520   3.882   7.209
56171SOL     OW70409  14.392   0.811  10.265
56171SOL    HW170410  14.320   0.776  10.317
56171SOL    HW270411  14.438   0.734  10.232
56172SOL     OW70412   4.539   4.957   1.363
56172SOL    HW170413   4.614   4.943   1.305
56172SOL    HW270414   4.578   4.973   1.449
56173SOL     OW70415   8.901  13.567   2.775
56173SOL    HW170416   8.944  13.639   2.822
56173SOL    HW270417   8.862  13.609   2.699
56174SOL     OW70418   5.212   3.451  11.557
56174SOL    HW170419   5.262   3.395  11.617
56174SOL    HW270420   5.277   3.486  11.496
56175SOL     OW70421   3.247  14.164   0.106
56175SOL    HW170422   3.222  14.248   0.068
56175SOL    HW270423   3.266  14.108   0.030
56176SOL     OW70424   9.576   5.337   6.260
56176SOL    HW170425   9.558   5.250   6.295
56176SOL    HW270426   9.600   5.389   6.337
56177SOL     OW70427  12.708  13.582   3.355
56177SOL    HW170428  12.619  13.576   3.392
56177SOL    HW270429  12.756  13.511   3.397
56178SOL     OW70430   3.366   2.743  11.706
56178SOL    HW170431   3.391   2.705  11.622
56178SOL    HW270432   3.271   2.754  11.699
56179SOL     OW70433   9.693   5.442   7.536
56179SOL    HW170434   9.646   5.379   7.591
56179SOL    HW270435   9.733   5.389   7.467
56180SOL     OW70436   5.560  10.872   4.897
56180SOL    HW170437   5.593  10.783   4.903
56180SOL    HW270438   5.476  10.865   4.853
56181SOL     OW70439   0.998   8.683  12.435
56181SOL    HW170440   1.086   8.666  12.468
56181SOL    HW270441   0.940   8.646  12.502
56182SOL     OW70442   2.459   4.386   7.711
56182SOL    HW170443   2.386   4.331   7.740
56182SOL    HW270444   2.469   4.452   7.780
56183SOL     OW70445   2.130  11.815  14.236
56183SOL    HW170446   2.166  11.901  14.256
56183SOL    HW270447   2.055  11.834  14.179
56184SOL     OW70448  13.927  13.255  13.850
56184SOL    HW170449  13.917  13.167  13.812
56184SOL    HW270450  13.881  13.313  13.789
56185SOL     OW70451   2.610   1.481   6.270
56185SOL    HW170452   2.624   1.394   6.308
56185SOL    HW270453   2.696   1.508   6.238
56186SOL     OW70454   4.772   6.661   7.503
56186SOL    HW170455   4.816   6.576   7.496
56186SOL    HW270456   4.827   6.712   7.563
56187SOL     OW70457   5.368  12.245  10.443
56187SOL    HW170458   5.351  12.204  10.358
56187SOL    HW270459   5.319  12.326  10.441
56188SOL     OW70460   9.274   8.133  11.330
56188SOL    HW170461   9.249   8.199  11.266
56188SOL    HW270462   9.343   8.082  11.287
56189SOL     OW70463   5.266   3.168  11.097
56189SOL    HW170464   5.303   3.230  11.033
56189SOL    HW270465   5.267   3.215  11.180
56190SOL     OW70466  14.384  10.396  10.481
56190SOL    HW170467  14.343  10.392  10.567
56190SOL    HW270468  14.346  10.323  10.432
56191SOL     OW70469   4.046  14.587   6.053
56191SOL    HW170470   4.046  14.643   6.130
56191SOL    HW270471   4.137  14.561   6.042
56192SOL     OW70472   8.315  10.689   6.220
56192SOL    HW170473   8.352  10.755   6.162
56192SOL    HW270474   8.321  10.728   6.308
56193SOL     OW70475  13.149  14.342   2.170
56193SOL    HW170476  13.233  14.296   2.167
56193SOL    HW270477  13.149  14.387   2.255
56194SOL     OW70478   1.926   1.740   1.323
56194SOL    HW170479   1.873   1.734   1.244
56194SOL    HW270480   1.951   1.833   1.328
56195SOL     OW70481   9.175  10.821   2.917
56195SOL    HW170482   9.159  10.881   2.844
56195SOL    HW270483   9.161  10.734   2.880
56196SOL     OW70484   7.563  12.306  13.847
56196SOL    HW170485   7.593  12.304  13.756
56196SOL    HW270486   7.576  12.217  13.879
56197SOL     OW70487  10.133  10.358   2.938
56197SOL    HW170488  10.090  10.439   2.962
56197SOL    HW270489  10.192  10.382   2.867
56198SOL     OW70490   9.270  13.542  11.874
56198SOL    HW170491   9.248  13.561  11.966
56198SOL    HW270492   9.193  13.495  11.841
56199SOL     OW70493   9.385   9.049   5.680
56199SOL    HW170494   9.337   9.008   5.752
56199SOL    HW270495   9.355   9.140   5.681
56200SOL     OW70496   6.005   3.336   8.438
56200SOL    HW170497   6.036   3.384   8.514
56200SOL    HW270498   6.083   3.291   8.404
56201SOL     OW70499   0.609   6.093  10.733
56201SOL    HW170500   0.514   6.109  10.730
56201SOL    HW270501   0.647   6.170  10.692
56202SOL     OW70502   1.760  11.522   4.822
56202SOL    HW170503   1.815  11.448   4.847
56202SOL    HW270504   1.758  11.519   4.727
56203SOL     OW70505   8.620   2.062   8.996
56203SOL    HW170506   8.633   1.989   8.935
56203SOL    HW270507   8.603   2.137   8.939
56204SOL     OW70508   6.677   7.146   2.032
56204SOL    HW170509   6.593   7.166   1.992
56204SOL    HW270510   6.693   7.219   2.092
56205SOL     OW70511   7.607   9.107   8.850
56205SOL    HW170512   7.645   9.057   8.779
56205SOL    HW270513   7.671   9.102   8.921
56206SOL     OW70514   9.351  13.190   7.019
56206SOL    HW170515   9.395  13.164   7.101
56206SOL    HW270516   9.283  13.251   7.047
56207SOL     OW70517  11.403  14.176   8.090
56207SOL    HW170518  11.345  14.120   8.038
56207SOL    HW270519  11.491  14.156   8.057
56208SOL     OW70520   6.629   3.765  10.180
56208SOL    HW170521   6.592   3.816  10.109
56208SOL    HW270522   6.554   3.719  10.219
56209SOL     OW70523   8.538   2.963   6.913
56209SOL    HW170524   8.634   2.956   6.919
56209SOL    HW270525   8.507   2.873   6.919
56210SOL     OW70526   6.643   3.327   7.795
56210SOL    HW170527   6.565   3.381   7.801
56210SOL    HW270528   6.681   3.328   7.883
56211SOL     OW70529   7.842   0.498   6.830
56211SOL    HW170530   7.933   0.474   6.843
56211SOL    HW270531   7.800   0.477   6.913
56212SOL     OW70532   5.319   1.706   8.359
56212SOL    HW170533   5.341   1.620   8.325
56212SOL    HW270534   5.347   1.767   8.291
56213SOL     OW70535  14.142  10.259   4.715
56213SOL    HW170536  14.177  10.189   4.770
56213SOL    HW270537  14.178  10.242   4.628
56214SOL     OW70538  13.197   7.711   6.064
56214SOL    HW170539  13.121   7.770   6.058
56214SOL    HW270540  13.182   7.662   6.145
56215SOL     OW70541   9.604  12.037  11.996
56215SOL    HW170542   9.622  12.102  11.929
56215SOL    HW270543   9.690  12.011  12.028
56216SOL     OW70544  13.285  10.106   5.176
56216SOL    HW170545  13.220  10.174   5.159
56216SOL    HW270546  13.309  10.074   5.088
56217SOL     OW70547  10.166   0.283   7.280
56217SOL    HW170548  10.246   0.296   7.231
56217SOL    HW270549  10.133   0.198   7.251
56218SOL     OW70550   7.552  11.340   0.145
56218SOL    HW170551   7.585  11.429   0.134
56218SOL    HW270552   7.485  11.347   0.213
56219SOL     OW70553   9.052   8.117   6.832
56219SOL    HW170554   9.098   8.085   6.754
56219SOL    HW270555   9.037   8.038   6.885
56220SOL     OW70556   6.589  13.675  14.621
56220SOL    HW170557   6.500  13.698  14.647
56220SOL    HW270558   6.642  13.750  14.647
56221SOL     OW70559   9.647   6.919   6.852
56221SOL    HW170560   9.602   6.910   6.936
56221SOL    HW270561   9.715   6.984   6.869
56222SOL     OW70562  12.534   7.246  10.291
56222SOL    HW170563  12.578   7.213  10.212
56222SOL    HW270564  12.575   7.330  10.308
56223SOL     OW70565   8.484   0.025   2.039
56223SOL    HW170566   8.460   0.058   1.953
56223SOL    HW270567   8.556  14.844   2.022
56224SOL     OW70568  12.618   5.071   9.463
56224SOL    HW170569  12.584   4.991   9.423
56224SOL    HW270570  12.704   5.083   9.422
56225SOL     OW70571  12.635   7.487   5.919
56225SOL    HW170572  12.637   7.440   5.836
56225SOL    HW270573  12.555   7.539   5.915
56226SOL     OW70574   9.147   9.213   8.487
56226SOL    HW170575   9.205   9.228   8.562
56226SOL    HW270576   9.129   9.301   8.453
56227SOL     OW70577   2.982   1.755  13.688
56227SOL    HW170578   2.995   1.777  13.596
56227SOL    HW270579   2.897   1.712  13.691
56228SOL     OW70580   1.363  12.769   4.792
56228SOL    HW170581   1.325  12.690   4.831
56228SOL    HW270582   1.370  12.831   4.864
56229SOL     OW70583   5.271   9.729   4.108
56229SOL    HW170584   5.247   9.785   4.035
56229SOL    HW270585   5.188   9.710   4.152
56230SOL     OW70586  11.349   0.748   6.016
56230SOL    HW170587  11.299   0.814   5.969
56230SOL    HW270588  11.382   0.794   6.094
56231SOL     OW70589  10.141   6.692   3.921
56231SOL    HW170590  10.202   6.660   3.854
56231SOL    HW270591  10.162   6.641   3.999
56232SOL     OW70592  13.813   6.740   0.496
56232SOL    HW170593  13.889   6.682   0.496
56232SOL    HW270594  13.745   6.691   0.541
56233SOL     OW70595   5.817  13.623   3.242
56233SOL    HW170596   5.900  13.671   3.240
56233SOL    HW270597   5.813  13.579   3.158
56234SOL     OW70598   5.343   1.440  13.158
56234SOL    HW170599   5.332   1.493  13.237
56234SOL    HW270600   5.263   1.389  13.152
56235SOL     OW70601  12.168   6.143  14.846
56235SOL    HW170602  12.125   6.223  14.818
56235SOL    HW270603  12.153   6.081  14.774
56236SOL     OW70604   4.735   2.665  14.199
56236SOL    HW170605   4.749   2.624  14.114
56236SOL    HW270606   4.767   2.754  14.187
56237SOL     OW70607  13.451  14.527   2.325
56237SOL    HW170608  13.459  14.503   2.232
56237SOL    HW270609  13.496  14.611   2.332
56238SOL     OW70610   6.345  11.177   2.220
56238SOL    HW170611   6.402  11.112   2.262
56238SOL    HW270612   6.392  11.201   2.140
56239SOL     OW70613  11.314   3.283   7.526
56239SOL    HW170614  11.229   3.304   7.488
56239SOL    HW270615  11.353   3.368   7.546
56240SOL     OW70616  10.483  12.698   2.974
56240SOL    HW170617  10.473  12.613   2.930
56240SOL    HW270618  10.393  12.725   2.993
56241SOL     OW70619  11.774   6.121   7.453
56241SOL    HW170620  11.744   6.059   7.387
56241SOL    HW270621  11.699   6.134   7.511
56242SOL     OW70622   1.427   9.547  12.087
56242SOL    HW170623   1.409   9.465  12.134
56242SOL    HW270624   1.394   9.531  11.999
56243SOL     OW70625  10.320   0.777   0.731
56243SOL    HW170626  10.239   0.800   0.684
56243SOL    HW270627  10.294   0.708   0.791
56244SOL     OW70628  10.483   9.427  10.018
56244SOL    HW170629  10.445   9.339  10.010
56244SOL    HW270630  10.512   9.432  10.109
56245SOL     OW70631  13.499  14.656  11.292
56245SOL    HW170632  13.534  14.737  11.255
56245SOL    HW270633  13.434  14.685  11.356
56246SOL     OW70634  11.053   2.573   7.214
56246SOL    HW170635  11.019   2.648   7.263
56246SOL    HW270636  11.130   2.607   7.168
56247SOL     OW70637   7.271   3.430   5.501
56247SOL    HW170638   7.194   3.487   5.506
56247SOL    HW270639   7.237   3.343   5.522
56248SOL     OW70640   8.168  11.053  12.186
56248SOL    HW170641   8.213  10.979  12.226
56248SOL    HW270642   8.192  11.048  12.094
56249SOL     OW70643  12.219   7.398   6.792
56249SOL    HW170644  12.153   7.330   6.776
56249SOL    HW270645  12.250   7.422   6.705
56250SOL     OW70646   3.652   4.740   3.636
56250SOL    HW170647   3.723   4.676   3.635
56250SOL    HW270648   3.607   4.725   3.720
56251SOL     OW70649   8.192   5.833   2.076
56251SOL    HW170650   8.141   5.778   2.017
56251SOL    HW270651   8.172   5.799   2.164
56252SOL     OW70652   5.539   3.442   1.040
56252SOL    HW170653   5.448   3.471   1.035
56252SOL    HW270654   5.576   3.492   1.113
56253SOL     OW70655   6.936   7.742   2.519
56253SOL    HW170656   6.897   7.808   2.576
56253SOL    HW270657   6.916   7.659   2.561
56254SOL     OW70658  11.256   1.122  12.756
56254SOL    HW170659  11.241   1.207  12.796
56254SOL    HW270660  11.330   1.135  12.698
56255SOL     OW70661   0.973   6.744  13.498
56255SOL    HW170662   1.054   6.747  13.549
56255SOL    HW270663   0.945   6.836  13.493
56256SOL     OW70664   6.374   0.662  11.842
56256SOL    HW170665   6.362   0.665  11.748
56256SOL    HW270666   6.419   0.579  11.858
56257SOL     OW70667  13.218   1.236   4.975
56257SOL    HW170668  13.191   1.312   5.027
56257SOL    HW270669  13.312   1.249   4.962
56258SOL     OW70670   8.455  11.996   5.885
56258SOL    HW170671   8.532  12.037   5.923
56258SOL    HW270672   8.382  12.052   5.913
56259SOL     OW70673  10.255   6.057  11.725
56259SOL    HW170674  10.159   6.053  11.732
56259SOL    HW270675  10.284   6.077  11.814
56260SOL     OW70676  14.595   2.380   9.154
56260SOL    HW170677  14.528   2.443   9.130
56260SOL    HW270678  14.599   2.384   9.250
56261SOL     OW70679   3.598   3.018  13.769
56261SOL    HW170680   3.565   3.043  13.683
56261SOL    HW270681   3.539   2.949  13.798
56262SOL     OW70682   0.417   4.853   8.223
56262SOL    HW170683   0.513   4.858   8.228
56262SOL    HW270684   0.390   4.937   8.186
56263SOL     OW70685   3.334   7.726   5.961
56263SOL    HW170686   3.298   7.809   5.994
56263SOL    HW270687   3.287   7.659   6.011
56264SOL     OW70688   2.577   6.951  14.735
56264SOL    HW170689   2.529   6.995  14.665
56264SOL    HW270690   2.529   6.973  14.814
56265SOL     OW70691  12.148   0.054  12.785
56265SOL    HW170692  12.184   0.023  12.868
56265SOL    HW270693  12.123   0.145  12.802
56266SOL     OW70694   6.698   3.091   0.465
56266SOL    HW170695   6.708   3.158   0.398
56266SOL    HW270696   6.783   3.047   0.467
56267SOL     OW70697  12.781  13.112   3.714
56267SOL    HW170698  12.842  13.038   3.714
56267SOL    HW270699  12.748  13.116   3.625
56268SOL     OW70700  14.014  10.801   5.698
56268SOL    HW170701  13.969  10.844   5.625
56268SOL    HW270702  14.089  10.856   5.717
56269SOL     OW70703   1.827   4.971   4.945
56269SOL    HW170704   1.736   4.995   4.963
56269SOL    HW270705   1.878   5.046   4.977
56270SOL     OW70706   6.126   6.573   6.052
56270SOL    HW170707   6.209   6.620   6.046
56270SOL    HW270708   6.147   6.493   6.100
56271SOL     OW70709  10.135   6.374   1.758
56271SOL    HW170710  10.186   6.293   1.757
56271SOL    HW270711  10.065   6.357   1.822
56272SOL     OW70712   9.815   2.434   6.210
56272SOL    HW170713   9.829   2.500   6.279
56272SOL    HW270714   9.746   2.471   6.155
56273SOL     OW70715   6.083  10.442   0.569
56273SOL    HW170716   6.073  10.474   0.658
56273SOL    HW270717   6.150  10.373   0.575
56274SOL     OW70718   5.875   6.944   7.939
56274SOL    HW170719   5.955   6.940   7.886
56274SOL    HW270720   5.905   6.969   8.026
56275SOL     OW70721   0.302  11.825  10.269
56275SOL    HW170722   0.249  11.759  10.225
56275SOL    HW270723   0.282  11.907  10.223
56276SOL     OW70724  12.180  12.877  10.710
56276SOL    HW170725  12.182  12.787  10.677
56276SOL    HW270726  12.089  12.890  10.737
56277SOL     OW70727  10.459   5.866   1.421
56277SOL    HW170728  10.424   5.847   1.507
56277SOL    HW270729  10.552   5.881   1.435
56278SOL     OW70730   1.789   2.395   3.038
56278SOL    HW170731   1.726   2.466   3.052
56278SOL    HW270732   1.769   2.362   2.950
56279SOL     OW70733   5.489   3.147  14.183
56279SOL    HW170734   5.406   3.162  14.229
56279SOL    HW270735   5.464   3.142  14.090
56280SOL     OW70736   0.901   8.704   1.433
56280SOL    HW170737   0.990   8.680   1.405
56280SOL    HW270738   0.858   8.734   1.353
56281SOL     OW70739  13.063   9.205   5.879
56281SOL    HW170740  13.032   9.223   5.968
56281SOL    HW270741  13.116   9.281   5.856
56282SOL     OW70742   5.259   8.155   1.433
56282SOL    HW170743   5.252   8.216   1.506
56282SOL    HW270744   5.259   8.069   1.474
56283SOL     OW70745  13.483  13.048   5.122
56283SOL    HW170746  13.397  13.006   5.123
56283SOL    HW270747  13.530  13.005   5.050
56284SOL     OW70748   6.939  13.993   2.345
56284SOL    HW170749   6.878  14.025   2.411
56284SOL    HW270750   7.017  13.967   2.394
56285SOL     OW70751  14.870   0.555   9.050
56285SOL    HW170752   0.066   0.582   9.102
56285SOL    HW270753  14.864   0.621   8.981
56286SOL     OW70754   8.459  14.175  12.713
56286SOL    HW170755   8.502  14.100  12.674
56286SOL    HW270756   8.434  14.230  12.638
56287SOL     OW70757  12.949   9.604   3.299
56287SOL    HW170758  13.009   9.653   3.355
56287SOL    HW270759  12.995   9.522   3.282
56288SOL     OW70760   6.536   6.171   8.178
56288SOL    HW170761   6.518   6.132   8.264
56288SOL    HW270762   6.596   6.109   8.136
56289SOL     OW70763  11.329   2.561   7.418
56289SOL    HW170764  11.336   2.581   7.325
56289SOL    HW270765  11.382   2.482   7.429
56290SOL     OW70766   2.686  13.420   1.811
56290SOL    HW170767   2.701  13.469   1.892
56290SOL    HW270768   2.756  13.355   1.809
56291SOL     OW70769   8.762   5.472   2.060
56291SOL    HW170770   8.771   5.513   1.973
56291SOL    HW270771   8.823   5.522   2.115
56292SOL     OW70772   9.794  10.136   8.434
56292SOL    HW170773   9.794  10.229   8.457
56292SOL    HW270774   9.758  10.133   8.345
56293SOL     OW70775   3.998  12.583   4.106
56293SOL    HW170776   3.977  12.604   4.197
56293SOL    HW270777   4.046  12.500   4.111
56294SOL     OW70778  13.707   6.501   9.386
56294SOL    HW170779  13.675   6.463   9.468
56294SOL    HW270780  13.784   6.448   9.364
56295SOL     OW70781   7.015   7.218   9.053
56295SOL    HW170782   7.017   7.218   8.957
56295SOL    HW270783   7.106   7.200   9.079
56296SOL     OW70784   0.364   0.477  10.458
56296SOL    HW170785   0.340   0.490  10.366
56296SOL    HW270786   0.443   0.529  10.470
56297SOL     OW70787  11.352  10.549  10.976
56297SOL    HW170788  11.374  10.574  11.066
56297SOL    HW270789  11.398  10.466  10.963
56298SOL     OW70790  13.505  14.418   1.328
56298SOL    HW170791  13.424  14.380   1.362
56298SOL    HW270792  13.527  14.364   1.253
56299SOL     OW70793  13.695   0.711  14.691
56299SOL    HW170794  13.682   0.802  14.662
56299SOL    HW270795  13.763   0.677  14.634
56300SOL     OW70796   2.548   0.110  11.474
56300SOL    HW170797   2.471   0.137  11.525
56300SOL    HW270798   2.514   0.045  11.412
56301SOL     OW70799  10.745   9.966  14.481
56301SOL    HW170800  10.831   9.972  14.523
56301SOL    HW270801  10.717   9.876  14.498
56302SOL     OW70802   7.310  10.550   2.896
56302SOL    HW170803   7.397  10.570   2.864
56302SOL    HW270804   7.294  10.460   2.868
56303SOL     OW70805  12.943  12.278   1.691
56303SOL    HW170806  13.014  12.323   1.737
56303SOL    HW270807  12.870  12.339   1.693
56304SOL     OW70808   4.950   5.347  10.129
56304SOL    HW170809   4.975   5.418  10.188
56304SOL    HW270810   4.866   5.375  10.092
56305SOL     OW70811   9.660  14.456   0.666
56305SOL    HW170812   9.700  14.541   0.647
56305SOL    HW270813   9.710  14.393   0.614
56306SOL     OW70814  11.712   6.734  11.689
56306SOL    HW170815  11.760   6.684  11.755
56306SOL    HW270816  11.764   6.725  11.609
56307SOL     OW70817   8.032   6.290  13.278
56307SOL    HW170818   8.064   6.373  13.314
56307SOL    HW270819   7.985   6.249  13.350
56308SOL     OW70820   1.246   0.131   3.446
56308SOL    HW170821   1.260   0.211   3.496
56308SOL    HW270822   1.214   0.068   3.510
56309SOL     OW70823  13.100   9.842   2.901
56309SOL    HW170824  13.038   9.771   2.885
56309SOL    HW270825  13.071   9.882   2.983
56310SOL     OW70826  14.687   9.925  11.673
56310SOL    HW170827  14.705   9.927  11.767
56310SOL    HW270828  14.770   9.898  11.634
56311SOL     OW70829  11.608  12.651   9.150
56311SOL    HW170830  11.620  12.745   9.135
56311SOL    HW270831  11.615  12.612   9.063
56312SOL     OW70832   4.983   8.154   7.384
56312SOL    HW170833   4.942   8.076   7.423
56312SOL    HW270834   4.954   8.152   7.293
56313SOL     OW70835   6.502   3.622  11.248
56313SOL    HW170836   6.553   3.560  11.196
56313SOL    HW270837   6.411   3.603  11.225
56314SOL     OW70838   7.554   6.654   3.744
56314SOL    HW170839   7.545   6.645   3.839
56314SOL    HW270840   7.515   6.739   3.724
56315SOL     OW70841   5.139   3.935   8.263
56315SOL    HW170842   5.209   4.000   8.258
56315SOL    HW270843   5.183   3.854   8.288
56316SOL     OW70844   4.210   9.254   9.717
56316SOL    HW170845   4.235   9.306   9.793
56316SOL    HW270846   4.137   9.200   9.748
56317SOL     OW70847   2.475  13.604   5.967
56317SOL    HW170848   2.548  13.645   6.014
56317SOL    HW270849   2.474  13.648   5.882
56318SOL     OW70850   9.206  14.703  14.412
56318SOL    HW170851   9.136  14.747  14.460
56318SOL    HW270852   9.186  14.610  14.419
56319SOL     OW70853   9.955   7.156   4.748
56319SOL    HW170854   9.906   7.082   4.782
56319SOL    HW270855   9.997   7.123   4.668
56320SOL     OW70856   7.510   3.726   2.658
56320SOL    HW170857   7.522   3.668   2.733
56320SOL    HW270858   7.434   3.690   2.612
56321SOL     OW70859   8.493   2.849  10.500
56321SOL    HW170860   8.497   2.822  10.408
56321SOL    HW270861   8.584   2.865  10.524
56322SOL     OW70862  13.560   0.574  13.384
56322SOL    HW170863  13.472   0.593  13.352
56322SOL    HW270864  13.563   0.613  13.472
56323SOL     OW70865  10.936  10.101   7.335
56323SOL    HW170866  10.928  10.036   7.405
56323SOL    HW270867  10.876  10.071   7.267
56324SOL     OW70868  14.878   4.041  10.075
56324SOL    HW170869  14.852   3.959  10.117
56324SOL    HW270870   0.094   4.041  10.080
56325SOL     OW70871   8.050   9.461   2.565
56325SOL    HW170872   7.967   9.413   2.572
56325SOL    HW270873   8.083   9.437   2.478
56326SOL     OW70874   9.484   1.995  12.782
56326SOL    HW170875   9.426   2.058  12.823
56326SOL    HW270876   9.435   1.913  12.782
56327SOL     OW70877   1.178  13.189   3.740
56327SOL    HW170878   1.199  13.159   3.652
56327SOL    HW270879   1.205  13.281   3.742
56328SOL     OW70880  13.443  14.251   4.585
56328SOL    HW170881  13.356  14.274   4.553
56328SOL    HW270882  13.483  14.335   4.608
56329SOL     OW70883   7.440   6.304   2.555
56329SOL    HW170884   7.490   6.374   2.596
56329SOL    HW270885   7.422   6.242   2.625
56330SOL     OW70886   7.848   6.953   6.907
56330SOL    HW170887   7.838   7.048   6.905
56330SOL    HW270888   7.761   6.918   6.888
56331SOL     OW70889   9.685   4.154  13.238
56331SOL    HW170890   9.662   4.088  13.173
56331SOL    HW270891   9.778   4.139  13.257
56332SOL     OW70892   2.404   3.479  10.874
56332SOL    HW170893   2.423   3.385  10.871
56332SOL    HW270894   2.363   3.492  10.959
56333SOL     OW70895  10.375   4.873   0.727
56333SOL    HW170896  10.413   4.922   0.654
56333SOL    HW270897  10.425   4.792   0.730
56334SOL     OW70898  10.221   5.137  10.705
56334SOL    HW170899  10.218   5.163  10.797
56334SOL    HW270900  10.179   5.051  10.702
56335SOL     OW70901   1.286   1.278   5.220
56335SOL    HW170902   1.266   1.199   5.170
56335SOL    HW270903   1.379   1.295   5.203
56336SOL     OW70904   3.897   6.597  12.765
56336SOL    HW170905   3.814   6.585  12.719
56336SOL    HW270906   3.931   6.680  12.730
56337SOL     OW70907   4.538  11.712  12.820
56337SOL    HW170908   4.533  11.779  12.889
56337SOL    HW270909   4.521  11.630  12.866
56338SOL     OW70910  13.569   0.130  12.999
56338SOL    HW170911  13.614   0.212  13.021
56338SOL    HW270912  13.494   0.157  12.946
56339SOL     OW70913   2.375  12.074   7.460
56339SOL    HW170914   2.469  12.078   7.441
56339SOL    HW270915   2.368  12.104   7.550
56340SOL     OW70916   8.376  11.949   7.350
56340SOL    HW170917   8.422  12.030   7.372
56340SOL    HW270918   8.314  11.936   7.422
56341SOL     OW70919   5.569   3.033   5.836
56341SOL    HW170920   5.477   3.049   5.857
56341SOL    HW270921   5.569   2.950   5.788
56342SOL     OW70922  11.055   4.406  10.362
56342SOL    HW170923  10.983   4.343  10.354
56342SOL    HW270924  11.036   4.473  10.298
56343SOL     OW70925   4.053   1.776   7.932
56343SOL    HW170926   4.044   1.746   8.022
56343SOL    HW270927   4.101   1.858   7.938
56344SOL     OW70928  12.783   7.678   8.645
56344SOL    HW170929  12.869   7.716   8.626
56344SOL    HW270930  12.725   7.716   8.578
56345SOL     OW70931  12.935   2.886  13.851
56345SOL    HW170932  12.891   2.813  13.894
56345SOL    HW270933  12.884   2.963  13.875
56346SOL     OW70934   2.964  11.476   2.478
56346SOL    HW170935   2.945  11.558   2.433
56346SOL    HW270936   3.054  11.455   2.452
56347SOL     OW70937   0.154   6.455  13.584
56347SOL    HW170938   0.228   6.512  13.608
56347SOL    HW270939   0.195   6.379  13.544
56348SOL     OW70940   9.454  11.465  13.689
56348SOL    HW170941   9.493  11.503  13.611
56348SOL    HW270942   9.390  11.530  13.717
56349SOL     OW70943   2.534   7.898   9.990
56349SOL    HW170944   2.515   7.869   9.901
56349SOL    HW270945   2.454   7.943  10.018
56350SOL     OW70946   8.535   4.854   4.602
56350SOL    HW170947   8.600   4.890   4.662
56350SOL    HW270948   8.467   4.922   4.597
56351SOL     OW70949   2.936   7.885   6.336
56351SOL    HW170950   2.936   7.882   6.241
56351SOL    HW270951   2.953   7.977   6.357
56352SOL     OW70952  11.863  13.231  13.350
56352SOL    HW170953  11.779  13.208  13.390
56352SOL    HW270954  11.866  13.327  13.355
56353SOL     OW70955   9.545  12.713  13.927
56353SOL    HW170956   9.586  12.639  13.971
56353SOL    HW270957   9.493  12.756  13.995
56354SOL     OW70958  12.388   2.219   9.048
56354SOL    HW170959  12.327   2.214   8.975
56354SOL    HW270960  12.420   2.129   9.058
56355SOL     OW70961   0.941   6.209   1.681
56355SOL    HW170962   0.937   6.289   1.734
56355SOL    HW270963   0.853   6.198   1.647
56356SOL     OW70964   7.685   3.129   7.209
56356SOL    HW170965   7.590   3.122   7.212
56356SOL    HW270966   7.715   3.038   7.197
56357SOL     OW70967   1.401   9.994  11.625
56357SOL    HW170968   1.403  10.008  11.719
56357SOL    HW270969   1.455   9.916  11.611
56358SOL     OW70970  11.805  11.307  13.451
56358SOL    HW170971  11.712  11.323  13.470
56358SOL    HW270972  11.816  11.332  13.360
56359SOL     OW70973   0.560   2.955  14.235
56359SOL    HW170974   0.620   3.015  14.191
56359SOL    HW270975   0.474   2.996  14.224
56360SOL     OW70976   0.579   5.667   9.781
56360SOL    HW170977   0.606   5.718   9.858
56360SOL    HW270978   0.619   5.581   9.795
56361SOL     OW70979   3.719   0.400   8.716
56361SOL    HW170980   3.800   0.353   8.697
56361SOL    HW270981   3.745   0.492   8.722
56362SOL     OW70982  12.908   7.911   4.631
56362SOL    HW170983  12.834   7.868   4.590
56362SOL    HW270984  12.869   7.980   4.685
56363SOL     OW70985   0.017   7.112   7.287
56363SOL    HW170986  14.828   7.149   7.232
56363SOL    HW270987   0.003   7.017   7.283
56364SOL     OW70988   4.178   2.983   1.718
56364SOL    HW170989   4.143   2.988   1.629
56364SOL    HW270990   4.131   2.910   1.758
56365SOL     OW70991  11.394   2.469   5.126
56365SOL    HW170992  11.482   2.458   5.089
56365SOL    HW270993  11.357   2.380   5.126
56366SOL     OW70994   4.210   6.482   5.274
56366SOL    HW170995   4.279   6.549   5.280
56366SOL    HW270996   4.194   6.472   5.181
56367SOL     OW70997  14.554   9.327   4.474
56367SOL    HW170998  14.496   9.252   4.482
56367SOL    HW270999  14.574   9.353   4.564
56368SOL     OW71000  12.050   2.500   8.545
56368SOL    HW171001  12.031   2.408   8.563
56368SOL    HW271002  11.971   2.533   8.503
56369SOL     OW71003  13.740   8.180   0.056
56369SOL    HW171004  13.814   8.240   0.063
56369SOL    HW271005  13.777   8.101   0.017
56370SOL     OW71006   2.619  14.700   6.859
56370SOL    HW171007   2.644  14.611   6.887
56370SOL    HW271008   2.692  14.729   6.805
56371SOL     OW71009  14.397   1.089   5.555
56371SOL    HW171010  14.420   1.164   5.500
56371SOL    HW271011  14.474   1.033   5.552
56372SOL     OW71012  14.482  11.123   3.382
56372SOL    HW171013  14.503  11.205   3.426
56372SOL    HW271014  14.512  11.054   3.442
56373SOL     OW71015   2.446  13.482  12.383
56373SOL    HW171016   2.489  13.507  12.301
56373SOL    HW271017   2.382  13.415  12.358
56374SOL     OW71018   3.440   7.601   3.842
56374SOL    HW171019   3.373   7.549   3.799
56374SOL    HW271020   3.484   7.541   3.902
56375SOL     OW71021   5.718  12.133   4.960
56375SOL    HW171022   5.649  12.142   5.026
56375SOL    HW271023   5.698  12.200   4.895
56376SOL     OW71024   0.187  12.417   0.155
56376SOL    HW171025   0.127  12.443   0.085
56376SOL    HW271026   0.154  12.332   0.184
56377SOL     OW71027   6.806   1.412   6.535
56377SOL    HW171028   6.876   1.348   6.538
56377SOL    HW271029   6.838   1.480   6.476
56378SOL     OW71030   6.142   6.082   0.659
56378SOL    HW171031   6.107   6.026   0.590
56378SOL    HW271032   6.080   6.070   0.732
56379SOL     OW71033  11.364   1.575   8.557
56379SOL    HW171034  11.367   1.559   8.463
56379SOL    HW271035  11.274   1.555   8.583
56380SOL     OW71036  12.366   4.276  11.341
56380SOL    HW171037  12.461   4.288  11.338
56380SOL    HW271038  12.330   4.362  11.318
56381SOL     OW71039   6.113   0.535   5.228
56381SOL    HW171040   6.026   0.572   5.245
56381SOL    HW271041   6.095   0.452   5.184
56382SOL     OW71042   0.347   5.426   5.548
56382SOL    HW171043   0.383   5.416   5.459
56382SOL    HW271044   0.322   5.337   5.573
56383SOL     OW71045  12.011   8.263   9.505
56383SOL    HW171046  12.007   8.358   9.489
56383SOL    HW271047  11.920   8.234   9.502
56384SOL     OW71048   6.648   3.468   2.425
56384SOL    HW171049   6.623   3.379   2.450
56384SOL    HW271050   6.567   3.510   2.398
56385SOL     OW71051   7.356   0.218   7.929
56385SOL    HW171052   7.264   0.204   7.953
56385SOL    HW271053   7.383   0.292   7.983
56386SOL     OW71054  13.851  10.670  14.155
56386SOL    HW171055  13.940  10.648  14.128
56386SOL    HW271056  13.849  10.766  14.157
56387SOL     OW71057   6.153  12.395   2.488
56387SOL    HW171058   6.113  12.444   2.559
56387SOL    HW271059   6.222  12.343   2.530
56388SOL     OW71060   9.915   4.904   7.266
56388SOL    HW171061   9.840   4.915   7.325
56388SOL    HW271062   9.881   4.852   7.193
56389SOL     OW71063  13.392   5.771   8.308
56389SOL    HW171064  13.349   5.777   8.222
56389SOL    HW271065  13.480   5.805   8.293
56390SOL     OW71066   5.965   9.236   5.095
56390SOL    HW171067   6.002   9.322   5.115
56390SOL    HW271068   6.029   9.174   5.131
56391SOL     OW71069  10.766   0.799   2.385
56391SOL    HW171070  10.713   0.722   2.406
56391SOL    HW271071  10.793   0.833   2.470
56392SOL     OW71072  13.004   6.744  13.037
56392SOL    HW171073  13.054   6.734  12.956
56392SOL    HW271074  13.011   6.659  13.080
56393SOL     OW71075   6.336  10.565   4.987
56393SOL    HW171076   6.372  10.651   5.004
56393SOL    HW271077   6.354  10.514   5.066
56394SOL     OW71078   8.676   0.119  12.126
56394SOL    HW171079   8.685   0.198  12.073
56394SOL    HW271080   8.747   0.125  12.190
56395SOL     OW71081  11.888  10.371   2.221
56395SOL    HW171082  11.940  10.300   2.259
56395SOL    HW271083  11.804  10.366   2.268
56396SOL     OW71084   4.184   3.843  13.926
56396SOL    HW171085   4.152   3.779  13.863
56396SOL    HW271086   4.197   3.923  13.876
56397SOL     OW71087   8.396  12.214  11.145
56397SOL    HW171088   8.346  12.152  11.197
56397SOL    HW271089   8.367  12.200  11.055
56398SOL     OW71090   7.957   2.961   9.433
56398SOL    HW171091   7.974   2.897   9.364
56398SOL    HW271092   7.865   2.948   9.455
56399SOL     OW71093   3.060  10.794  13.308
56399SOL    HW171094   3.125  10.746  13.359
56399SOL    HW271095   3.109  10.828  13.233
56400SOL     OW71096  14.557  14.036   3.393
56400SOL    HW171097  14.616  14.106   3.423
56400SOL    HW271098  14.616  13.962   3.377
56401SOL     OW71099   0.078  10.257  10.021
56401SOL    HW171100   0.031  10.187   9.975
56401SOL    HW271101   0.035  10.337   9.992
56402SOL     OW71102   5.547   9.094   4.655
56402SOL    HW171103   5.591   9.176   4.632
56402SOL    HW271104   5.615   9.027   4.647
56403SOL     OW71105   1.820   7.782   4.208
56403SOL    HW171106   1.905   7.746   4.182
56403SOL    HW271107   1.840   7.869   4.244
56404SOL     OW71108  12.722  14.042   3.239
56404SOL    HW171109  12.758  14.013   3.155
56404SOL    HW271110  12.736  13.968   3.298
56405SOL     OW71111   0.070  14.858   5.630
56405SOL    HW171112  14.856  14.842   5.619
56405SOL    HW271113   0.075   0.069   5.658
56406SOL     OW71114   8.399   5.472   5.851
56406SOL    HW171115   8.360   5.423   5.924
56406SOL    HW271116   8.446   5.406   5.800
56407SOL     OW71117  12.789   2.821   4.333
56407SOL    HW171118  12.710   2.840   4.384
56407SOL    HW271119  12.806   2.728   4.349
56408SOL     OW71120  12.786   2.013   0.623
56408SOL    HW171121  12.805   2.105   0.642
56408SOL    HW271122  12.740   1.982   0.701
56409SOL     OW71123   8.122  14.569   7.778
56409SOL    HW171124   8.202  14.594   7.824
56409SOL    HW271125   8.108  14.477   7.802
56410SOL     OW71126   0.317  11.446  10.435
56410SOL    HW171127   0.374  11.463  10.510
56410SOL    HW271128   0.314  11.351  10.428
56411SOL     OW71129   4.427   3.692   0.275
56411SOL    HW171130   4.402   3.745   0.199
56411SOL    HW271131   4.481   3.622   0.239
56412SOL     OW71132   4.905  13.978  11.963
56412SOL    HW171133   4.819  13.935  11.960
56412SOL    HW271134   4.903  14.041  11.891
56413SOL     OW71135   5.052   0.933   9.492
56413SOL    HW171136   5.050   0.864   9.559
56413SOL    HW271137   5.145   0.956   9.485
56414SOL     OW71138   7.527  13.957   8.470
56414SOL    HW171139   7.464  13.886   8.456
56414SOL    HW271140   7.529  13.968   8.565
56415SOL     OW71141   2.751  11.998   9.095
56415SOL    HW171142   2.785  12.038   9.176
56415SOL    HW271143   2.683  12.058   9.066
56416SOL     OW71144   6.710   6.430  10.865
56416SOL    HW171145   6.640   6.451  10.803
56416SOL    HW271146   6.668   6.377  10.932
56417SOL     OW71147   6.095   9.369   7.889
56417SOL    HW171148   6.103   9.430   7.962
56417SOL    HW271149   6.001   9.348   7.886
56418SOL     OW71150  14.339   6.073   4.256
56418SOL    HW171151  14.366   6.098   4.344
56418SOL    HW271152  14.262   6.017   4.269
56419SOL     OW71153  10.886  13.636   2.773
56419SOL    HW171154  10.809  13.598   2.732
56419SOL    HW271155  10.889  13.597   2.861
56420SOL     OW71156  14.155   5.151  12.504
56420SOL    HW171157  14.152   5.237  12.545
56420SOL    HW271158  14.096   5.158  12.428
56421SOL     OW71159  10.148  10.422   8.243
56421SOL    HW171160  10.074  10.482   8.231
56421SOL    HW271161  10.128  10.377   8.326
56422SOL     OW71162   3.666   1.237   0.246
56422SOL    HW171163   3.624   1.155   0.273
56422SOL    HW271164   3.600   1.304   0.262
56423SOL     OW71165   8.239  14.835   6.687
56423SOL    HW171166   8.245  14.761   6.748
56423SOL    HW271167   8.253  14.796   6.601
56424SOL     OW71168   8.087  11.130   3.061
56424SOL    HW171169   8.105  11.059   3.122
56424SOL    HW271170   8.129  11.104   2.980
56425SOL     OW71171   6.219   5.811  11.389
56425SOL    HW171172   6.237   5.734  11.442
56425SOL    HW271173   6.129   5.835  11.411
56426SOL     OW71174  10.263   2.839   4.164
56426SOL    HW171175  10.214   2.758   4.146
56426SOL    HW271176  10.349   2.808   4.192
56427SOL     OW71177  10.421   6.176  13.613
56427SOL    HW171178  10.452   6.090  13.584
56427SOL    HW271179  10.385   6.161  13.700
56428SOL     OW71180   7.335   2.330  13.816
56428SOL    HW171181   7.395   2.298  13.748
56428SOL    HW271182   7.280   2.394  13.770
56429SOL     OW71183  14.553   2.884   2.922
56429SOL    HW171184  14.525   2.905   3.011
56429SOL    HW271185  14.586   2.794   2.928
56430SOL     OW71186   8.292   0.969   9.492
56430SOL    HW171187   8.323   0.968   9.401
56430SOL    HW271188   8.360   1.017   9.540
56431SOL     OW71189   6.412   6.297   6.914
56431SOL    HW171190   6.488   6.248   6.883
56431SOL    HW271191   6.420   6.296   7.009
56432SOL     OW71192  12.938   2.142  10.040
56432SOL    HW171193  12.876   2.084  10.083
56432SOL    HW271194  12.945   2.108   9.951
56433SOL     OW71195   6.464   9.059  14.746
56433SOL    HW171196   6.486   9.058  14.653
56433SOL    HW271197   6.494   8.975  14.779
56434SOL     OW71198   5.745  10.135   9.713
56434SOL    HW171199   5.663  10.124   9.761
56434SOL    HW271200   5.741  10.070   9.643
56435SOL     OW71201   8.042   4.929   8.608
56435SOL    HW171202   8.047   4.897   8.518
56435SOL    HW271203   8.077   5.018   8.604
56436SOL     OW71204  14.161   7.471  12.113
56436SOL    HW171205  14.078   7.443  12.150
56436SOL    HW271206  14.211   7.390  12.101
56437SOL     OW71207  12.331   6.498   9.435
56437SOL    HW171208  12.319   6.582   9.480
56437SOL    HW271209  12.355   6.437   9.504
56438SOL     OW71210   1.240   0.554   8.466
56438SOL    HW171211   1.203   0.553   8.555
56438SOL    HW271212   1.168   0.587   8.411
56439SOL     OW71213   5.309  14.633   8.023
56439SOL    HW171214   5.338  14.673   7.942
56439SOL    HW271215   5.315  14.703   8.088
56440SOL     OW71216   5.426  13.922  13.729
56440SOL    HW171217   5.379  13.969  13.661
56440SOL    HW271218   5.364  13.914  13.801
56441SOL     OW71219   8.865   1.393   7.714
56441SOL    HW171220   8.890   1.409   7.805
56441SOL    HW271221   8.947   1.364   7.673
56442SOL     OW71222   2.069   9.019   2.917
56442SOL    HW171223   2.028   8.985   2.997
56442SOL    HW271224   2.159   9.040   2.944
56443SOL     OW71225  11.480   8.737   1.483
56443SOL    HW171226  11.497   8.654   1.438
56443SOL    HW271227  11.404   8.773   1.437
56444SOL     OW71228  14.018  12.533  10.143
56444SOL    HW171229  14.002  12.447  10.107
56444SOL    HW271230  14.114  12.542  10.142
56445SOL     OW71231   0.102  13.481  13.009
56445SOL    HW171232   0.033  13.544  13.031
56445SOL    HW271233   0.083  13.454  12.919
56446SOL     OW71234  12.580   6.876   2.889
56446SOL    HW171235  12.500   6.832   2.919
56446SOL    HW271236  12.573   6.965   2.924
56447SOL     OW71237   1.953   1.449   0.171
56447SOL    HW171238   2.035   1.406   0.195
56447SOL    HW271239   1.976   1.504   0.096
56448SOL     OW71240   8.695   5.558   4.040
56448SOL    HW171241   8.689   5.653   4.048
56448SOL    HW271242   8.762   5.544   3.973
56449SOL     OW71243   5.082   8.850   4.422
56449SOL    HW171244   5.069   8.909   4.496
56449SOL    HW271245   5.000   8.803   4.414
56450SOL     OW71246   7.548   4.236   3.957
56450SOL    HW171247   7.469   4.279   3.990
56450SOL    HW271248   7.581   4.296   3.890
56451SOL     OW71249   3.002   7.602   4.116
56451SOL    HW171250   3.043   7.516   4.127
56451SOL    HW271251   3.008   7.642   4.203
56452SOL     OW71252  11.945   9.220  10.345
56452SOL    HW171253  12.020   9.177  10.304
56452SOL    HW271254  11.872   9.158  10.333
56453SOL     OW71255   0.366   3.846   7.891
56453SOL    HW171256   0.408   3.920   7.846
56453SOL    HW271257   0.341   3.786   7.821
56454SOL     OW71258   4.505   4.370  13.966
56454SOL    HW171259   4.485   4.405  14.053
56454SOL    HW271260   4.441   4.412  13.908
56455SOL     OW71261   7.325  13.859   5.622
56455SOL    HW171262   7.352  13.827   5.536
56455SOL    HW271263   7.229  13.864   5.616
56456SOL     OW71264   6.236   1.135  13.933
56456SOL    HW171265   6.262   1.104  13.847
56456SOL    HW271266   6.311   1.116  13.989
56457SOL     OW71267  14.842   4.620  11.759
56457SOL    HW171268  14.872   4.684  11.824
56457SOL    HW271269   0.025   4.549  11.764
56458SOL     OW71270   8.183   2.462   3.859
56458SOL    HW171271   8.263   2.414   3.876
56458SOL    HW271272   8.199   2.508   3.776
56459SOL     OW71273  12.540   4.500   3.576
56459SOL    HW171274  12.580   4.504   3.489
56459SOL    HW271275  12.464   4.556   3.571
56460SOL     OW71276   8.946   4.941  10.903
56460SOL    HW171277   8.981   4.940  10.992
56460SOL    HW271278   8.855   4.969  10.913
56461SOL     OW71279  10.441   4.793   9.496
56461SOL    HW171280  10.472   4.872   9.451
56461SOL    HW271281  10.509   4.728   9.480
56462SOL     OW71282  13.197  14.314   4.439
56462SOL    HW171283  13.156  14.388   4.483
56462SOL    HW271284  13.201  14.340   4.347
56463SOL     OW71285  14.123   2.770   0.954
56463SOL    HW171286  14.051   2.782   1.015
56463SOL    HW271287  14.085   2.788   0.868
56464SOL     OW71288   8.705   7.971  13.069
56464SOL    HW171289   8.739   7.885  13.094
56464SOL    HW271290   8.611   7.964  13.081
56465SOL     OW71291   6.523   1.834   4.789
56465SOL    HW171292   6.601   1.872   4.748
56465SOL    HW271293   6.471   1.909   4.816
56466SOL     OW71294  13.396   7.361  10.240
56466SOL    HW171295  13.303   7.379  10.228
56466SOL    HW271296  13.436   7.377  10.154
56467SOL     OW71297   4.788   5.841   4.316
56467SOL    HW171298   4.802   5.933   4.341
56467SOL    HW271299   4.777   5.795   4.398
56468SOL     OW71300  12.893  14.077   5.503
56468SOL    HW171301  12.901  14.019   5.428
56468SOL    HW271302  12.924  14.025   5.577
56469SOL     OW71303   6.463   2.090   1.614
56469SOL    HW171304   6.470   1.996   1.593
56469SOL    HW271305   6.505   2.134   1.540
56470SOL     OW71306  14.110   8.275  12.563
56470SOL    HW171307  14.196   8.315  12.547
56470SOL    HW271308  14.060   8.291  12.483
56471SOL     OW71309   1.694   3.457   9.597
56471SOL    HW171310   1.607   3.454   9.638
56471SOL    HW271311   1.689   3.529   9.535
56472SOL     OW71312   2.769  13.020   1.100
56472SOL    HW171313   2.811  12.996   1.183
56472SOL    HW271314   2.787  13.113   1.090
56473SOL     OW71315  13.540   4.098  14.735
56473SOL    HW171316  13.482   4.027  14.709
56473SOL    HW271317  13.486   4.177  14.729
56474SOL     OW71318  11.651   3.707   7.601
56474SOL    HW171319  11.601   3.647   7.545
56474SOL    HW271320  11.731   3.725   7.550
56475SOL     OW71321  13.660   6.087   4.050
56475SOL    HW171322  13.609   6.138   4.113
56475SOL    HW271323  13.703   6.020   4.104
56476SOL     OW71324  12.999  10.411  11.009
56476SOL    HW171325  13.049  10.435  10.932
56476SOL    HW271326  13.054  10.437  11.083
56477SOL     OW71327   7.350  12.215   4.993
56477SOL    HW171328   7.398  12.199   4.912
56477SOL    HW271329   7.344  12.311   4.999
56478SOL     OW71330   4.368   9.034   3.020
56478SOL    HW171331   4.282   9.010   3.056
56478SOL    HW271332   4.350   9.055   2.928
56479SOL     OW71333   7.887   1.273   0.670
56479SOL    HW171334   7.852   1.225   0.594
56479SOL    HW271335   7.956   1.328   0.634
56480SOL     OW71336   3.273   8.653  10.802
56480SOL    HW171337   3.205   8.596  10.765
56480SOL    HW271338   3.299   8.609  10.883
56481SOL     OW71339   6.287   3.936   6.865
56481SOL    HW171340   6.271   4.009   6.926
56481SOL    HW271341   6.279   3.858   6.919
56482SOL     OW71342   1.528  10.255  10.473
56482SOL    HW171343   1.577  10.334  10.449
56482SOL    HW271344   1.512  10.211  10.390
56483SOL     OW71345   0.709  12.039   5.599
56483SOL    HW171346   0.640  11.995   5.549
56483SOL    HW271347   0.772  11.970   5.618
56484SOL     OW71348   9.927   2.415   6.664
56484SOL    HW171349  10.008   2.371   6.692
56484SOL    HW271350   9.895   2.459   6.743
56485SOL     OW71351   7.728   8.715  10.669
56485SOL    HW171352   7.681   8.738  10.749
56485SOL    HW271353   7.810   8.677  10.699
56486SOL     OW71354   4.883   9.869   5.301
56486SOL    HW171355   4.892   9.919   5.220
56486SOL    HW271356   4.805   9.815   5.287
56487SOL     OW71357  10.753   5.511   9.999
56487SOL    HW171358  10.745   5.494  10.093
56487SOL    HW271359  10.840   5.550   9.990
56488SOL     OW71360   4.730   4.659   1.617
56488SOL    HW171361   4.788   4.631   1.546
56488SOL    HW271362   4.724   4.582   1.674
56489SOL     OW71363   6.153   0.345   8.757
56489SOL    HW171364   6.172   0.345   8.663
56489SOL    HW271365   6.060   0.365   8.763
56490SOL     OW71366   2.011  14.185   3.027
56490SOL    HW171367   1.981  14.246   2.959
56490SOL    HW271368   2.020  14.101   2.982
56491SOL     OW71369  14.037   2.675   1.838
56491SOL    HW171370  14.040   2.636   1.926
56491SOL    HW271371  14.015   2.602   1.780
56492SOL     OW71372   9.496   7.883  13.637
56492SOL    HW171373   9.538   7.865  13.722
56492SOL    HW271374   9.402   7.881  13.656
56493SOL     OW71375  14.841   5.889   6.007
56493SOL    HW171376   0.011   5.815   6.042
56493SOL    HW271377  14.813   5.860   5.920
56494SOL     OW71378   6.069  12.852   0.704
56494SOL    HW171379   6.120  12.806   0.771
56494SOL    HW271380   5.984  12.808   0.703
56495SOL     OW71381   3.615  12.638   6.792
56495SOL    HW171382   3.538  12.675   6.749
56495SOL    HW271383   3.605  12.663   6.884
56496SOL     OW71384   9.409   7.528   1.855
56496SOL    HW171385   9.356   7.598   1.817
56496SOL    HW271386   9.490   7.571   1.882
56497SOL     OW71387  12.825   5.110   7.200
56497SOL    HW171388  12.802   5.059   7.122
56497SOL    HW271389  12.765   5.184   7.198
56498SOL     OW71390   1.414   2.477   1.154
56498SOL    HW171391   1.480   2.523   1.207
56498SOL    HW271392   1.350   2.544   1.133
56499SOL     OW71393   1.247   3.765   8.009
56499SOL    HW171394   1.287   3.852   8.000
56499SOL    HW271395   1.166   3.771   7.959
56500SOL     OW71396   2.111  13.899   0.055
56500SOL    HW171397   2.121  13.991   0.030
56500SOL    HW271398   2.050  13.863  14.871
56501SOL     OW71399  12.941   9.379  11.552
56501SOL    HW171400  13.027   9.390  11.592
56501SOL    HW271401  12.925   9.462  11.506
56502SOL     OW71402   9.437   5.769   5.392
56502SOL    HW171403   9.366   5.827   5.366
56502SOL    HW271404   9.501   5.827   5.434
56503SOL     OW71405   5.014   3.621   8.491
56503SOL    HW171406   5.089   3.641   8.548
56503SOL    HW271407   4.962   3.558   8.542
56504SOL     OW71408   3.139   2.958   0.823
56504SOL    HW171409   3.202   2.941   0.753
56504SOL    HW271410   3.177   2.917   0.900
56505SOL     OW71411  11.886   1.265   3.376
56505SOL    HW171412  11.812   1.326   3.378
56505SOL    HW271413  11.896   1.242   3.284
56506SOL     OW71414   6.659  14.502   4.530
56506SOL    HW171415   6.686  14.459   4.449
56506SOL    HW271416   6.712  14.461   4.598
56507SOL     OW71417   7.442  10.120  11.930
56507SOL    HW171418   7.461  10.028  11.914
56507SOL    HW271419   7.347  10.125  11.931
56508SOL     OW71420   9.957   7.509  13.880
56508SOL    HW171421   9.897   7.511  13.955
56508SOL    HW271422   9.989   7.598  13.872
56509SOL     OW71423  13.144   9.957  13.925
56509SOL    HW171424  13.085   9.892  13.887
56509SOL    HW271425  13.217   9.962  13.864
56510SOL     OW71426   8.045   8.664  11.817
56510SOL    HW171427   8.038   8.616  11.735
56510SOL    HW271428   8.000   8.747  11.801
56511SOL     OW71429   6.315   2.028   0.755
56511SOL    HW171430   6.306   2.115   0.792
56511SOL    HW271431   6.402   2.028   0.715
56512SOL     OW71432   3.249   0.367  10.030
56512SOL    HW171433   3.249   0.324  10.115
56512SOL    HW271434   3.162   0.405  10.022
56513SOL     OW71435   0.612   1.329   3.967
56513SOL    HW171436   0.611   1.422   3.989
56513SOL    HW271437   0.670   1.289   4.032
56514SOL     OW71438   5.971  12.624   5.061
56514SOL    HW171439   5.987  12.600   5.152
56514SOL    HW271440   6.056  12.617   5.018
56515SOL     OW71441  10.242   0.403   7.710
56515SOL    HW171442  10.162   0.361   7.678
56515SOL    HW271443  10.311   0.366   7.655
56516SOL     OW71444   7.722  14.262   4.444
56516SOL    HW171445   7.780  14.286   4.516
56516SOL    HW271446   7.659  14.202   4.483
56517SOL     OW71447   9.848  11.841   8.751
56517SOL    HW171448   9.794  11.876   8.822
56517SOL    HW271449   9.785  11.808   8.687
56518SOL     OW71450   4.694   9.144  12.977
56518SOL    HW171451   4.675   9.136  12.884
56518SOL    HW271452   4.780   9.104  12.987
56519SOL     OW71453   6.459   6.441   3.455
56519SOL    HW171454   6.450   6.534   3.434
56519SOL    HW271455   6.538   6.436   3.509
56520SOL     OW71456   8.941   2.809   7.181
56520SOL    HW171457   8.885   2.872   7.227
56520SOL    HW271458   8.965   2.745   7.248
56521SOL     OW71459  14.098  13.493  10.564
56521SOL    HW171460  14.174  13.548  10.546
56521SOL    HW271461  14.131  13.403  10.562
56522SOL     OW71462  13.588   3.374   4.244
56522SOL    HW171463  13.502   3.349   4.212
56522SOL    HW271464  13.645   3.300   4.221
56523SOL     OW71465  12.785   5.519  13.986
56523SOL    HW171466  12.789   5.484  13.897
56523SOL    HW271467  12.691   5.527  14.004
56524SOL     OW71468  11.155   8.436  12.584
56524SOL    HW171469  11.131   8.379  12.511
56524SOL    HW271470  11.082   8.428  12.646
56525SOL     OW71471  12.587  14.450  12.900
56525SOL    HW171472  12.556  14.486  12.983
56525SOL    HW271473  12.632  14.524  12.858
56526SOL     OW71474  11.286  10.365   1.838
56526SOL    HW171475  11.272  10.271   1.855
56526SOL    HW271476  11.198  10.402   1.832
56527SOL     OW71477   5.433   5.693   6.315
56527SOL    HW171478   5.525   5.701   6.290
56527SOL    HW271479   5.399   5.783   6.310
56528SOL     OW71480  10.800   7.592  12.865
56528SOL    HW171481  10.705   7.601  12.857
56528SOL    HW271482  10.833   7.681  12.869
56529SOL     OW71483  11.105  11.652   7.581
56529SOL    HW171484  11.014  11.622   7.585
56529SOL    HW271485  11.100  11.747   7.587
56530SOL     OW71486   5.450  13.278   4.075
56530SOL    HW171487   5.489  13.230   4.002
56530SOL    HW271488   5.465  13.222   4.151
56531SOL     OW71489   8.625   0.447   4.674
56531SOL    HW171490   8.681   0.385   4.628
56531SOL    HW271491   8.666   0.457   4.760
56532SOL     OW71492  10.052  12.574   2.110
56532SOL    HW171493   9.984  12.507   2.118
56532SOL    HW271494  10.130  12.534   2.149
56533SOL     OW71495  13.375   8.354  10.997
56533SOL    HW171496  13.442   8.287  11.010
56533SOL    HW271497  13.294   8.313  11.024
56534SOL     OW71498   2.964   6.846   5.721
56534SOL    HW171499   2.943   6.771   5.775
56534SOL    HW271500   3.010   6.907   5.780
56535SOL     OW71501   5.102   9.129   5.707
56535SOL    HW171502   5.053   9.154   5.785
56535SOL    HW271503   5.058   9.050   5.674
56536SOL     OW71504   0.893  13.189   8.092
56536SOL    HW171505   0.970  13.214   8.144
56536SOL    HW271506   0.924  13.118   8.036
56537SOL     OW71507   8.130  13.147   3.103
56537SOL    HW171508   8.206  13.097   3.132
56537SOL    HW271509   8.111  13.207   3.176
56538SOL     OW71510  11.338   6.180   9.465
56538SOL    HW171511  11.255   6.153   9.425
56538SOL    HW271512  11.406   6.141   9.411
56539SOL     OW71513   6.135   0.354  10.874
56539SOL    HW171514   6.076   0.404  10.930
56539SOL    HW271515   6.148   0.409  10.797
56540SOL     OW71516   1.956   5.098   0.186
56540SOL    HW171517   2.020   5.037   0.149
56540SOL    HW271518   1.968   5.090   0.281
56541SOL     OW71519   5.083   0.275   7.864
56541SOL    HW171520   5.041   0.331   7.929
56541SOL    HW271521   5.082   0.187   7.904
56542SOL     OW71522   6.425   7.684   7.591
56542SOL    HW171523   6.370   7.732   7.529
56542SOL    HW271524   6.486   7.749   7.625
56543SOL     OW71525   5.999  14.267   5.805
56543SOL    HW171526   6.073  14.207   5.812
56543SOL    HW271527   6.035  14.346   5.765
56544SOL     OW71528   2.413  13.270   8.469
56544SOL    HW171529   2.413  13.182   8.430
56544SOL    HW271530   2.401  13.329   8.395
56545SOL     OW71531  13.347   1.442   9.094
56545SOL    HW171532  13.294   1.451   9.174
56545SOL    HW271533  13.331   1.352   9.065
56546SOL     OW71534  14.790  10.485  12.365
56546SOL    HW171535  14.806  10.558  12.305
56546SOL    HW271536  14.864  10.488  12.426
56547SOL     OW71537   5.636   2.357  11.977
56547SOL    HW171538   5.594   2.281  11.936
56547SOL    HW271539   5.586   2.432  11.946
56548SOL     OW71540   8.151   4.506  13.904
56548SOL    HW171541   8.133   4.532  13.994
56548SOL    HW271542   8.084   4.440  13.884
56549SOL     OW71543  12.510  13.803   9.057
56549SOL    HW171544  12.460  13.825   9.136
56549SOL    HW271545  12.461  13.731   9.018
56550SOL     OW71546  12.267   0.291  13.337
56550SOL    HW171547  12.208   0.273  13.264
56550SOL    HW271548  12.351   0.253  13.311
56551SOL     OW71549  14.878   1.916  13.730
56551SOL    HW171550   0.003   1.895  13.637
56551SOL    HW271551   0.086   1.942  13.754
56552SOL     OW71552   6.207   8.143   7.866
56552SOL    HW171553   6.174   8.061   7.829
56552SOL    HW271554   6.257   8.184   7.794
56553SOL     OW71555  14.782   0.223   7.901
56553SOL    HW171556  14.692   0.195   7.919
56553SOL    HW271557  14.791   0.305   7.949
56554SOL     OW71558  11.800   8.273   7.532
56554SOL    HW171559  11.706   8.288   7.521
56554SOL    HW271560  11.836   8.359   7.550
56555SOL     OW71561   7.039  13.871   5.241
56555SOL    HW171562   7.022  13.871   5.147
56555SOL    HW271563   7.074  13.959   5.259
56556SOL     OW71564   5.859   0.883   1.369
56556SOL    HW171565   5.764   0.889   1.374
56556SOL    HW271566   5.890   0.949   1.431
56557SOL     OW71567   6.954  14.032   8.997
56557SOL    HW171568   6.926  13.941   8.989
56557SOL    HW271569   7.050  14.028   8.997
56558SOL     OW71570  11.106   0.592   8.895
56558SOL    HW171571  11.069   0.622   8.978
56558SOL    HW271572  11.163   0.519   8.920
56559SOL     OW71573  14.622   2.202  10.939
56559SOL    HW171574  14.706   2.192  10.985
56559SOL    HW271575  14.591   2.112  10.928
56560SOL     OW71576  14.400  13.441  10.768
56560SOL    HW171577  14.326  13.382  10.785
56560SOL    HW271578  14.391  13.465  10.676
56561SOL     OW71579   6.658  12.318   5.255
56561SOL    HW171580   6.705  12.359   5.183
56561SOL    HW271581   6.701  12.233   5.266
56562SOL     OW71582   8.541   0.667   9.520
56562SOL    HW171583   8.448   0.653   9.542
56562SOL    HW271584   8.587   0.658   9.603
56563SOL     OW71585   7.619  11.018   0.395
56563SOL    HW171586   7.624  10.936   0.442
56563SOL    HW271587   7.537  11.058   0.425
56564SOL     OW71588   1.885  14.165   7.977
56564SOL    HW171589   1.886  14.248   8.024
56564SOL    HW271590   1.976  14.135   7.979
56565SOL     OW71591   6.899   2.110   2.546
56565SOL    HW171592   6.917   2.041   2.482
56565SOL    HW271593   6.964   2.178   2.528
56566SOL     OW71594   8.664   3.695   5.343
56566SOL    HW171595   8.580   3.720   5.305
56566SOL    HW271596   8.720   3.772   5.331
56567SOL     OW71597   2.422   2.936  14.618
56567SOL    HW171598   2.340   2.941  14.569
56567SOL    HW271599   2.431   3.023  14.658
56568SOL     OW71600   7.607   1.140   2.068
56568SOL    HW171601   7.664   1.080   2.020
56568SOL    HW271602   7.609   1.220   2.016
56569SOL     OW71603   7.928   7.712  12.901
56569SOL    HW171604   8.018   7.682  12.892
56569SOL    HW271605   7.922   7.742  12.991
56570SOL     OW71606   9.657  13.739   8.114
56570SOL    HW171607   9.648  13.789   8.033
56570SOL    HW271608   9.725  13.675   8.094
56571SOL     OW71609   0.850   9.789  11.733
56571SOL    HW171610   0.785   9.857  11.717
56571SOL    HW271611   0.879   9.804  11.823
56572SOL     OW71612   0.172  12.988   7.127
56572SOL    HW171613   0.092  12.944   7.097
56572SOL    HW271614   0.240  12.956   7.068
56573SOL     OW71615   4.460   5.531   5.328
56573SOL    HW171616   4.509   5.604   5.289
56573SOL    HW271617   4.413   5.492   5.255
56574SOL     OW71618   0.021   0.598  14.098
56574SOL    HW171619  14.829   0.540  14.075
56574SOL    HW271620  14.860   0.683  14.114
56575SOL     OW71621  14.325  11.704   7.686
56575SOL    HW171622  14.281  11.621   7.704
56575SOL    HW271623  14.418  11.681   7.683
56576SOL     OW71624  13.520   1.057  10.730
56576SOL    HW171625  13.557   1.008  10.657
56576SOL    HW271626  13.433   1.083  10.700
56577SOL     OW71627   6.324   0.158  12.957
56577SOL    HW171628   6.296   0.155  13.048
56577SOL    HW271629   6.352   0.068  12.937
56578SOL     OW71630   7.496   1.513   3.324
56578SOL    HW171631   7.572   1.522   3.381
56578SOL    HW271632   7.428   1.566   3.365
56579SOL     OW71633  11.260   0.578   9.865
56579SOL    HW171634  11.326   0.613   9.925
56579SOL    HW271635  11.181   0.628   9.885
56580SOL     OW71636  10.563   9.865   9.397
56580SOL    HW171637  10.644   9.884   9.350
56580SOL    HW271638  10.512   9.946   9.391
56581SOL     OW71639   9.438   2.162   5.090
56581SOL    HW171640   9.442   2.142   4.996
56581SOL    HW271641   9.349   2.140   5.116
56582SOL     OW71642  11.911   3.974   5.724
56582SOL    HW171643  11.909   3.974   5.820
56582SOL    HW271644  12.003   3.961   5.703
56583SOL     OW71645   6.405   1.091  12.558
56583SOL    HW171646   6.434   1.042  12.481
56583SOL    HW271647   6.483   1.100  12.612
56584SOL     OW71648  10.513   2.661   2.415
56584SOL    HW171649  10.463   2.610   2.479
56584SOL    HW271650  10.577   2.599   2.380
56585SOL     OW71651   8.587   2.248   7.307
56585SOL    HW171652   8.606   2.301   7.385
56585SOL    HW271653   8.494   2.263   7.290
56586SOL     OW71654   2.451   8.052   7.934
56586SOL    HW171655   2.450   8.134   7.885
56586SOL    HW271656   2.504   8.070   8.011
56587SOL     OW71657   4.708   4.873  10.861
56587SOL    HW171658   4.663   4.954  10.834
56587SOL    HW271659   4.641   4.823  10.907
56588SOL     OW71660  13.617  10.453   8.949
56588SOL    HW171661  13.528  10.442   8.983
56588SOL    HW271662  13.608  10.439   8.855
56589SOL     OW71663   7.314   9.551  12.648
56589SOL    HW171664   7.398   9.595  12.654
56589SOL    HW271665   7.325   9.488  12.576
56590SOL     OW71666  13.277   9.516   6.793
56590SOL    HW171667  13.264   9.476   6.707
56590SOL    HW271668  13.369   9.502   6.813
56591SOL     OW71669   0.193  11.490   3.542
56591SOL    HW171670   0.277  11.455   3.572
56591SOL    HW271671   0.131  11.417   3.554
56592SOL     OW71672  10.556   2.137   5.520
56592SOL    HW171673  10.641   2.102   5.493
56592SOL    HW271674  10.494   2.100   5.457
56593SOL     OW71675  11.907   6.284   4.088
56593SOL    HW171676  12.001   6.271   4.076
56593SOL    HW271677  11.898   6.309   4.180
56594SOL     OW71678   2.501   0.429   7.563
56594SOL    HW171679   2.500   0.508   7.616
56594SOL    HW271680   2.518   0.358   7.625
56595SOL     OW71681   8.540  11.322   6.184
56595SOL    HW171682   8.507  11.377   6.114
56595SOL    HW271683   8.546  11.380   6.260
56596SOL     OW71684   3.725   7.238   6.044
56596SOL    HW171685   3.764   7.162   6.088
56596SOL    HW271686   3.632   7.215   6.034
56597SOL     OW71687   6.762   2.569  10.361
56597SOL    HW171688   6.793   2.545  10.274
56597SOL    HW271689   6.837   2.551  10.418
56598SOL     OW71690   0.901   3.301   5.983
56598SOL    HW171691   0.986   3.260   5.966
56598SOL    HW271692   0.906   3.331   6.074
56599SOL     OW71693   9.878  12.127   2.638
56599SOL    HW171694   9.921  12.211   2.657
56599SOL    HW271695   9.830  12.142   2.557
56600SOL     OW71696   2.415  12.202  10.454
56600SOL    HW171697   2.390  12.114  10.482
56600SOL    HW271698   2.354  12.260  10.499
56601SOL     OW71699   8.544   9.259  12.509
56601SOL    HW171700   8.513   9.170  12.492
56601SOL    HW271701   8.613   9.274  12.444
56602SOL     OW71702   1.265  14.289  12.983
56602SOL    HW171703   1.301  14.317  12.899
56602SOL    HW271704   1.341  14.284  13.041
56603SOL     OW71705   5.231  13.722   1.381
56603SOL    HW171706   5.286  13.737   1.305
56603SOL    HW271707   5.232  13.805   1.429
56604SOL     OW71708   8.141   7.470   9.909
56604SOL    HW171709   8.155   7.563   9.893
56604SOL    HW271710   8.106   7.466   9.998
56605SOL     OW71711   3.424  11.905  10.118
56605SOL    HW171712   3.508  11.951  10.123
56605SOL    HW271713   3.370  11.959  10.060
56606SOL     OW71714   1.582   5.316   2.150
56606SOL    HW171715   1.652   5.252   2.140
56606SOL    HW271716   1.505   5.263   2.173
56607SOL     OW71717  12.799   7.246  12.935
56607SOL    HW171718  12.769   7.329  12.973
56607SOL    HW271719  12.719   7.197  12.917
56608SOL     OW71720   6.333   6.365   6.088
56608SOL    HW171721   6.335   6.392   6.180
56608SOL    HW271722   6.343   6.270   6.092
56609SOL     OW71723  11.919  11.980  13.675
56609SOL    HW171724  11.828  11.960  13.654
56609SOL    HW271725  11.965  11.975  13.591
56610SOL     OW71726   6.067  14.357   6.064
56610SOL    HW171727   6.087  14.390   5.977
56610SOL    HW271728   6.083  14.262   6.058
56611SOL     OW71729   7.955  13.824  12.136
56611SOL    HW171730   7.944  13.813  12.042
56611SOL    HW271731   7.930  13.915  12.153
56612SOL     OW71732   7.182   9.553   8.828
56612SOL    HW171733   7.110   9.497   8.859
56612SOL    HW271734   7.249   9.545   8.897
56613SOL     OW71735  12.006   5.963   7.924
56613SOL    HW171736  12.015   5.997   7.835
56613SOL    HW271737  11.917   5.987   7.950
56614SOL     OW71738  14.547   3.233  12.526
56614SOL    HW171739  14.459   3.257  12.499
56614SOL    HW271740  14.564   3.148  12.485
56615SOL     OW71741   4.762   6.885  11.079
56615SOL    HW171742   4.823   6.841  11.138
56615SOL    HW271743   4.732   6.816  11.020
56616SOL     OW71744   5.802  10.285   6.960
56616SOL    HW171745   5.722  10.249   6.922
56616SOL    HW271746   5.780  10.375   6.982
56617SOL     OW71747   5.622   4.738   7.829
56617SOL    HW171748   5.669   4.742   7.746
56617SOL    HW271749   5.681   4.779   7.892
56618SOL     OW71750   4.188   2.286  13.024
56618SOL    HW171751   4.197   2.190  13.026
56618SOL    HW271752   4.182   2.311  13.116
56619SOL     OW71753   3.361   2.604   0.790
56619SOL    HW171754   3.429   2.602   0.722
56619SOL    HW271755   3.403   2.649   0.864
56620SOL     OW71756   9.483  11.484   4.557
56620SOL    HW171757   9.476  11.456   4.465
56620SOL    HW271758   9.466  11.578   4.554
56621SOL     OW71759   7.323   9.498   6.742
56621SOL    HW171760   7.372   9.463   6.816
56621SOL    HW271761   7.339   9.436   6.671
56622SOL     OW71762  11.966   8.786   5.409
56622SOL    HW171763  11.994   8.718   5.471
56622SOL    HW271764  11.894   8.831   5.453
56623SOL     OW71765   7.048   9.254   9.338
56623SOL    HW171766   7.097   9.264   9.420
56623SOL    HW271767   7.113   9.265   9.269
56624SOL     OW71768   8.394   8.453   4.487
56624SOL    HW171769   8.334   8.435   4.415
56624SOL    HW271770   8.421   8.544   4.474
56625SOL     OW71771  12.868   4.350   0.623
56625SOL    HW171772  12.827   4.358   0.537
56625SOL    HW271773  12.825   4.416   0.677
56626SOL     OW71774   0.972   6.149  10.257
56626SOL    HW171775   0.913   6.139  10.182
56626SOL    HW271776   0.919   6.193  10.323
56627SOL     OW71777   7.970  10.039   7.421
56627SOL    HW171778   7.953  10.118   7.471
56627SOL    HW271779   7.891  10.026   7.369
56628SOL     OW71780   5.080   7.791  11.470
56628SOL    HW171781   4.994   7.828  11.489
56628SOL    HW271782   5.062   7.719  11.409
56629SOL     OW71783   9.365   7.766   8.960
56629SOL    HW171784   9.275   7.775   8.930
56629SOL    HW271785   9.418   7.781   8.882
56630SOL     OW71786  11.040  13.042   5.170
56630SOL    HW171787  11.078  13.074   5.252
56630SOL    HW271788  11.074  13.101   5.103
56631SOL     OW71789  12.788   4.438   4.761
56631SOL    HW171790  12.718   4.378   4.735
56631SOL    HW271791  12.867   4.384   4.761
56632SOL     OW71792   7.537   5.039   4.987
56632SOL    HW171793   7.443   5.034   4.972
56632SOL    HW271794   7.566   5.115   4.936
56633SOL     OW71795   4.360   6.173   1.255
56633SOL    HW171796   4.357   6.232   1.330
56633SOL    HW271797   4.352   6.231   1.179
56634SOL     OW71798   0.801  12.414   8.097
56634SOL    HW171799   0.873  12.354   8.082
56634SOL    HW271800   0.843  12.497   8.118
56635SOL     OW71801   1.586   8.737   1.200
56635SOL    HW171802   1.662   8.784   1.166
56635SOL    HW271803   1.525   8.734   1.127
56636SOL     OW71804   2.781  12.593   3.252
56636SOL    HW171805   2.874  12.574   3.244
56636SOL    HW271806   2.775  12.661   3.319
56637SOL     OW71807   1.092   0.338  11.810
56637SOL    HW171808   0.997   0.345  11.798
56637SOL    HW271809   1.129   0.362  11.725
56638SOL     OW71810   6.229   2.745   0.846
56638SOL    HW171811   6.135   2.726   0.837
56638SOL    HW271812   6.245   2.746   0.940
56639SOL     OW71813   9.225   6.191   4.877
56639SOL    HW171814   9.196   6.263   4.932
56639SOL    HW271815   9.157   6.182   4.810
56640SOL     OW71816   4.079   5.261   2.021
56640SOL    HW171817   4.030   5.342   2.008
56640SOL    HW271818   4.160   5.288   2.065
56641SOL     OW71819  14.270   6.534   7.903
56641SOL    HW171820  14.321   6.484   7.840
56641SOL    HW271821  14.222   6.468   7.953
56642SOL     OW71822   9.957  10.501  11.870
56642SOL    HW171823   9.971  10.491  11.964
56642SOL    HW271824   9.971  10.594  11.854
56643SOL     OW71825  13.778   8.887   0.939
56643SOL    HW171826  13.769   8.980   0.918
56643SOL    HW271827  13.872   8.871   0.940
56644SOL     OW71828  10.879   2.300  13.803
56644SOL    HW171829  10.895   2.390  13.829
56644SOL    HW271830  10.879   2.250  13.885
56645SOL     OW71831   3.719   9.328  10.431
56645SOL    HW171832   3.783   9.343  10.500
56645SOL    HW271833   3.693   9.237  10.441
56646SOL     OW71834   2.963   8.171  14.092
56646SOL    HW171835   3.024   8.102  14.116
56646SOL    HW271836   2.989   8.246  14.147
56647SOL     OW71837   1.095  13.863   3.613
56647SOL    HW171838   1.062  13.942   3.570
56647SOL    HW271839   1.152  13.822   3.547
56648SOL     OW71840  12.916  14.099   1.427
56648SOL    HW171841  12.891  14.102   1.335
56648SOL    HW271842  12.840  14.059   1.471
56649SOL     OW71843  10.597  12.617   8.748
56649SOL    HW171844  10.586  12.713   8.749
56649SOL    HW271845  10.627  12.596   8.837
56650SOL     OW71846  12.913  11.397   1.173
56650SOL    HW171847  12.977  11.325   1.176
56650SOL    HW271848  12.950  11.459   1.110
56651SOL     OW71849   3.578  11.607   4.708
56651SOL    HW171850   3.518  11.676   4.735
56651SOL    HW271851   3.563  11.536   4.770
56652SOL     OW71852  13.713  11.300   2.099
56652SOL    HW171853  13.666  11.345   2.168
56652SOL    HW271854  13.804  11.331   2.108
56653SOL     OW71855   4.959   4.904   4.999
56653SOL    HW171856   4.907   4.944   5.070
56653SOL    HW271857   4.923   4.943   4.919
56654SOL     OW71858  11.332  13.972   1.732
56654SOL    HW171859  11.251  13.948   1.687
56654SOL    HW271860  11.312  14.056   1.774
56655SOL     OW71861   1.856  13.290   5.026
56655SOL    HW171862   1.937  13.291   4.976
56655SOL    HW271863   1.794  13.243   4.970
56656SOL     OW71864  13.231   8.176   9.307
56656SOL    HW171865  13.202   8.257   9.266
56656SOL    HW271866  13.226   8.111   9.236
56657SOL     OW71867   4.960   3.607   8.893
56657SOL    HW171868   4.892   3.660   8.851
56657SOL    HW271869   4.991   3.548   8.825
56658SOL     OW71870   1.944   4.694  10.705
56658SOL    HW171871   2.005   4.768  10.696
56658SOL    HW271872   1.989   4.621  10.662
56659SOL     OW71873   6.521  12.593   0.786
56659SOL    HW171874   6.565  12.600   0.701
56659SOL    HW271875   6.559  12.663   0.839
56660SOL     OW71876  12.954   3.899   7.463
56660SOL    HW171877  12.865   3.870   7.447
56660SOL    HW271878  12.983   3.850   7.540
56661SOL     OW71879   2.137  12.688   6.343
56661SOL    HW171880   2.080  12.617   6.370
56661SOL    HW271881   2.085  12.767   6.355
56662SOL     OW71882   1.863  11.668  12.416
56662SOL    HW171883   1.835  11.591  12.464
56662SOL    HW271884   1.784  11.698  12.370
56663SOL     OW71885  13.388  14.871  13.499
56663SOL    HW171886  13.370   0.078  13.464
56663SOL    HW271887  13.465  14.841  13.451
56664SOL     OW71888   1.193   2.061   8.583
56664SOL    HW171889   1.219   2.100   8.499
56664SOL    HW271890   1.121   2.002   8.560
56665SOL     OW71891   3.852   9.932   4.022
56665SOL    HW171892   3.761   9.907   4.037
56665SOL    HW271893   3.896   9.915   4.105
56666SOL     OW71894   0.313   8.446  12.065
56666SOL    HW171895   0.331   8.361  12.106
56666SOL    HW271896   0.366   8.445  11.985
56667SOL     OW71897  12.939   9.270   6.350
56667SOL    HW171898  12.845   9.291   6.350
56667SOL    HW271899  12.970   9.297   6.436
56668SOL     OW71900  12.898   4.279  13.539
56668SOL    HW171901  12.925   4.209  13.479
56668SOL    HW271902  12.808   4.257  13.563
56669SOL     OW71903   3.388   5.765   5.704
56669SOL    HW171904   3.441   5.822   5.759
56669SOL    HW271905   3.309   5.816   5.685
56670SOL     OW71906  10.588   9.847   5.543
56670SOL    HW171907  10.515   9.822   5.600
56670SOL    HW271908  10.547   9.875   5.461
56671SOL     OW71909   4.498   9.923   6.906
56671SOL    HW171910   4.487   9.996   6.845
56671SOL    HW271911   4.591   9.925   6.929
56672SOL     OW71912   2.634   6.814   1.752
56672SOL    HW171913   2.648   6.838   1.660
56672SOL    HW271914   2.594   6.892   1.791
56673SOL     OW71915   5.682   4.068  14.217
56673SOL    HW171916   5.745   4.103  14.280
56673SOL    HW271917   5.597   4.074  14.262
56674SOL     OW71918  10.066  11.123  10.390
56674SOL    HW171919  10.148  11.172  10.402
56674SOL    HW271920  10.095  11.034  10.368
56675SOL     OW71921   6.012   4.235   4.161
56675SOL    HW171922   6.088   4.289   4.140
56675SOL    HW271923   5.974   4.274   4.239
56676SOL     OW71924   9.267   4.774  11.941
56676SOL    HW171925   9.225   4.719  11.876
56676SOL    HW271926   9.234   4.862  11.922
56677SOL     OW71927  10.586   0.893   2.137
56677SOL    HW171928  10.496   0.919   2.156
56677SOL    HW271929  10.577   0.810   2.090
56678SOL     OW71930  12.458   8.021   8.296
56678SOL    HW171931  12.420   7.937   8.271
56678SOL    HW271932  12.550   8.016   8.268
56679SOL     OW71933  13.570  12.023  14.644
56679SOL    HW171934  13.619  11.964  14.586
56679SOL    HW271935  13.483  11.984  14.649
56680SOL     OW71936   1.156   2.923   4.722
56680SOL    HW171937   1.076   2.904   4.672
56680SOL    HW271938   1.130   2.913   4.813
56681SOL     OW71939   8.601   5.161  10.815
56681SOL    HW171940   8.640   5.196  10.735
56681SOL    HW271941   8.507   5.163  10.799
56682SOL     OW71942   6.507   2.601   5.715
56682SOL    HW171943   6.496   2.657   5.792
56682SOL    HW271944   6.537   2.517   5.750
56683SOL     OW71945   3.630   7.144   5.304
56683SOL    HW171946   3.554   7.158   5.248
56683SOL    HW271947   3.697   7.107   5.246
56684SOL     OW71948  10.997   6.998  12.680
56684SOL    HW171949  10.931   6.973  12.615
56684SOL    HW271950  11.077   6.954  12.651
56685SOL     OW71951   7.366   0.004   9.418
56685SOL    HW171952   7.403   0.015   9.505
56685SOL    HW271953   7.368  14.790   9.402
56686SOL     OW71954   2.864   7.862   0.195
56686SOL    HW171955   2.828   7.891   0.279
56686SOL    HW271956   2.789   7.828   0.147
56687SOL     OW71957   6.480   8.211   1.272
56687SOL    HW171958   6.540   8.215   1.197
56687SOL    HW271959   6.497   8.292   1.320
56688SOL     OW71960   2.279   4.110   7.622
56688SOL    HW171961   2.372   4.131   7.612
56688SOL    HW271962   2.263   4.044   7.554
56689SOL     OW71963   7.143   8.117   9.700
56689SOL    HW171964   7.068   8.176   9.695
56689SOL    HW271965   7.218   8.172   9.678
56690SOL     OW71966   0.830   1.740   0.103
56690SOL    HW171967   0.788   1.721   0.187
56690SOL    HW271968   0.765   1.713   0.037
56691SOL     OW71969  10.044   8.241  13.286
56691SOL    HW171970  10.116   8.292  13.324
56691SOL    HW271971   9.989   8.219  13.361
56692SOL     OW71972   4.515   9.531   8.053
56692SOL    HW171973   4.523   9.447   8.100
56692SOL    HW271974   4.601   9.572   8.064
56693SOL     OW71975   0.048   8.753  12.253
56693SOL    HW171976   0.022   8.693  12.323
56693SOL    HW271977   0.011   8.837  12.278
56694SOL     OW71978   2.875   1.824  12.715
56694SOL    HW171979   2.965   1.856  12.720
56694SOL    HW271980   2.863   1.774  12.796
56695SOL     OW71981  11.355   5.313  11.337
56695SOL    HW171982  11.423   5.380  11.329
56695SOL    HW271983  11.322   5.322  11.426
56696SOL     OW71984   1.051  13.043  10.637
56696SOL    HW171985   1.044  12.951  10.611
56696SOL    HW271986   1.115  13.044  10.708
56697SOL     OW71987   9.370   7.391  11.541
56697SOL    HW171988   9.309   7.347  11.600
56697SOL    HW271989   9.413   7.320  11.493
56698SOL     OW71990  12.225   5.962   4.105
56698SOL    HW171991  12.145   5.949   4.156
56698SOL    HW271992  12.286   5.897   4.139
56699SOL     OW71993  14.460   9.998   7.309
56699SOL    HW171994  14.482   9.961   7.394
56699SOL    HW271995  14.513  10.077   7.302
56700SOL     OW71996   6.229  11.923   8.065
56700SOL    HW171997   6.204  11.966   8.146
56700SOL    HW271998   6.153  11.869   8.042
56701SOL     OW71999  12.176   2.071   0.359
56701SOL    HW172000  12.158   2.028   0.275
56701SOL    HW272001  12.239   2.140   0.338
56702SOL     OW72002   3.644  14.423  14.206
56702SOL    HW172003   3.689  14.345  14.173
56702SOL    HW272004   3.714  14.478  14.241
56703SOL     OW72005   6.783   7.142   7.126
56703SOL    HW172006   6.793   7.070   7.188
56703SOL    HW272007   6.770   7.099   7.041
56704SOL     OW72008   1.529   6.311   2.579
56704SOL    HW172009   1.594   6.339   2.514
56704SOL    HW272010   1.504   6.391   2.625
56705SOL     OW72011   3.265  12.629   8.269
56705SOL    HW172012   3.281  12.657   8.359
56705SOL    HW272013   3.172  12.606   8.267
56706SOL     OW72014  13.212   3.783   7.351
56706SOL    HW172015  13.265   3.747   7.279
56706SOL    HW272016  13.162   3.854   7.310
56707SOL     OW72017   8.547   7.049  14.038
56707SOL    HW172018   8.494   7.100  13.977
56707SOL    HW272019   8.484   6.998  14.089
56708SOL     OW72020  12.619  13.432   1.347
56708SOL    HW172021  12.688  13.441   1.281
56708SOL    HW272022  12.649  13.483   1.421
56709SOL     OW72023   7.285  11.223   5.721
56709SOL    HW172024   7.218  11.255   5.781
56709SOL    HW272025   7.298  11.132   5.748
56710SOL     OW72026   7.131  10.563   4.327
56710SOL    HW172027   7.105  10.475   4.355
56710SOL    HW272028   7.048  10.605   4.301
56711SOL     OW72029   7.737   9.537   3.482
56711SOL    HW172030   7.699   9.473   3.422
56711SOL    HW272031   7.677   9.611   3.479
56712SOL     OW72032   4.289   8.298  13.667
56712SOL    HW172033   4.353   8.337  13.607
56712SOL    HW272034   4.210   8.350  13.655
56713SOL     OW72035   6.101  13.606   3.961
56713SOL    HW172036   6.059  13.520   3.967
56713SOL    HW272037   6.071  13.642   3.878
56714SOL     OW72038   1.618   7.282  13.513
56714SOL    HW172039   1.704   7.301  13.476
56714SOL    HW272040   1.622   7.315  13.603
56715SOL     OW72041   0.774  12.227   2.958
56715SOL    HW172042   0.718  12.174   2.902
56715SOL    HW272043   0.780  12.178   3.040
56716SOL     OW72044   5.406   7.407   2.272
56716SOL    HW172045   5.483   7.361   2.306
56716SOL    HW272046   5.356   7.430   2.350
56717SOL     OW72047   4.058   2.386  13.250
56717SOL    HW172048   3.976   2.344  13.223
56717SOL    HW272049   4.066   2.463  13.194
56718SOL     OW72050   8.435  13.718  14.531
56718SOL    HW172051   8.518  13.672  14.526
56718SOL    HW272052   8.372  13.660  14.488
56719SOL     OW72053  12.290  12.029  12.999
56719SOL    HW172054  12.376  12.007  12.963
56719SOL    HW272055  12.307  12.049  13.091
56720SOL     OW72056   0.166   8.840   6.640
56720SOL    HW172057   0.163   8.907   6.571
56720SOL    HW272058   0.253   8.850   6.679
56721SOL     OW72059   3.855   4.908   5.762
56721SOL    HW172060   3.928   4.850   5.741
56721SOL    HW272061   3.891   4.996   5.756
56722SOL     OW72062   0.847   2.538   5.836
56722SOL    HW172063   0.831   2.448   5.810
56722SOL    HW272064   0.938   2.554   5.810
56723SOL     OW72065   0.033   8.038   4.641
56723SOL    HW172066  14.864   7.983   4.580
56723SOL    HW272067   0.125   8.021   4.620
56724SOL     OW72068   7.125   5.246   0.290
56724SOL    HW172069   7.062   5.318   0.285
56724SOL    HW272070   7.093   5.181   0.227
56725SOL     OW72071   5.348   2.848  14.050
56725SOL    HW172072   5.383   2.806  13.971
56725SOL    HW272073   5.254   2.855  14.034
56726SOL     OW72074  14.576  11.694   4.227
56726SOL    HW172075  14.560  11.780   4.266
56726SOL    HW272076  14.489  11.653   4.226
56727SOL     OW72077  10.849   8.131   6.764
56727SOL    HW172078  10.792   8.063   6.730
56727SOL    HW272079  10.881   8.097   6.847
56728SOL     OW72080   6.068   6.809   6.641
56728SOL    HW172081   6.048   6.825   6.549
56728SOL    HW272082   6.057   6.715   6.652
56729SOL     OW72083   1.644   3.294   8.882
56729SOL    HW172084   1.733   3.314   8.852
56729SOL    HW272085   1.599   3.379   8.881
56730SOL     OW72086   3.696   7.576   9.459
56730SOL    HW172087   3.681   7.497   9.408
56730SOL    HW272088   3.640   7.565   9.536
56731SOL     OW72089   6.070   2.724  13.668
56731SOL    HW172090   6.074   2.820  13.671
56731SOL    HW272091   6.159   2.696  13.689
56732SOL     OW72092  10.752   0.520  11.430
56732SOL    HW172093  10.669   0.500  11.473
56732SOL    HW272094  10.727   0.542  11.340
56733SOL     OW72095   4.433   0.296  11.925
56733SOL    HW172096   4.475   0.211  11.935
56733SOL    HW272097   4.500   0.353  11.887
56734SOL     OW72098  14.166   3.839   1.931
56734SOL    HW172099  14.232   3.865   1.996
56734SOL    HW272100  14.218   3.809   1.856
56735SOL     OW72101   2.462   9.786   9.426
56735SOL    HW172102   2.459   9.697   9.460
56735SOL    HW272103   2.525   9.831   9.483
56736SOL     OW72104  14.126  10.303  10.129
56736SOL    HW172105  14.201  10.289  10.186
56736SOL    HW272106  14.087  10.385  10.160
56737SOL     OW72107  14.866  12.599  12.078
56737SOL    HW172108  14.807  12.610  12.004
56737SOL    HW272109   0.028  12.684  12.088
56738SOL     OW72110   8.018   2.640  11.877
56738SOL    HW172111   8.067   2.634  11.795
56738SOL    HW272112   7.930   2.668  11.851
56739SOL     OW72113   0.224   2.298  13.244
56739SOL    HW172114   0.229   2.309  13.339
56739SOL    HW272115   0.146   2.243  13.231
56740SOL     OW72116   0.439   0.443  10.851
56740SOL    HW172117   0.378   0.392  10.798
56740SOL    HW272118   0.459   0.385  10.925
56741SOL     OW72119   8.360   9.048   8.919
56741SOL    HW172120   8.291   9.023   8.980
56741SOL    HW272121   8.407   9.119   8.963
56742SOL     OW72122   6.405  10.005  13.372
56742SOL    HW172123   6.435  10.093  13.347
56742SOL    HW272124   6.335   9.985  13.309
56743SOL     OW72125   7.607   7.352   7.962
56743SOL    HW172126   7.679   7.316   8.015
56743SOL    HW272127   7.560   7.275   7.931
56744SOL     OW72128   6.184  14.235   8.327
56744SOL    HW172129   6.127  14.264   8.398
56744SOL    HW272130   6.163  14.294   8.254
56745SOL     OW72131  10.377  12.819   8.460
56745SOL    HW172132  10.342  12.741   8.502
56745SOL    HW272133  10.300  12.866   8.428
56746SOL     OW72134  14.739   5.957   7.436
56746SOL    HW172135  14.685   5.914   7.370
56746SOL    HW272136  14.685   6.029   7.468
56747SOL     OW72137   9.810  10.714   2.771
56747SOL    HW172138   9.819  10.669   2.855
56747SOL    HW272139   9.833  10.805   2.791
56748SOL     OW72140   3.306  13.824  14.276
56748SOL    HW172141   3.243  13.778  14.331
56748SOL    HW272142   3.251  13.877  14.217
56749SOL     OW72143   1.072   2.080   7.876
56749SOL    HW172144   1.066   1.986   7.857
56749SOL    HW272145   1.021   2.122   7.807
56750SOL     OW72146   6.837   7.455   4.873
56750SOL    HW172147   6.899   7.472   4.802
56750SOL    HW272148   6.767   7.519   4.861
56751SOL     OW72149   5.007  10.737   6.009
56751SOL    HW172150   5.067  10.754   5.936
56751SOL    HW272151   5.012  10.816   6.063
56752SOL     OW72152  11.016   5.523  10.660
56752SOL    HW172153  11.098   5.476  10.646
56752SOL    HW272154  10.998   5.513  10.754
56753SOL     OW72155   8.781   4.705   0.819
56753SOL    HW172156   8.849   4.765   0.851
56753SOL    HW272157   8.820   4.618   0.828
56754SOL     OW72158   6.667   5.745  13.211
56754SOL    HW172159   6.607   5.686  13.167
56754SOL    HW272160   6.635   5.750  13.301
56755SOL     OW72161   4.631  12.008  14.512
56755SOL    HW172162   4.645  12.097  14.543
56755SOL    HW272163   4.661  11.952  14.584
56756SOL     OW72164   2.863  13.404  10.100
56756SOL    HW172165   2.939  13.347  10.108
56756SOL    HW272166   2.814  13.370  10.025
56757SOL     OW72167  13.409   8.372   4.082
56757SOL    HW172168  13.355   8.298   4.056
56757SOL    HW272169  13.499   8.343   4.068
56758SOL     OW72170   6.907   8.141  13.790
56758SOL    HW172171   6.919   8.236  13.795
56758SOL    HW272172   6.975   8.111  13.730
56759SOL     OW72173  12.501   2.201   7.730
56759SOL    HW172174  12.557   2.192   7.808
56759SOL    HW272175  12.472   2.112   7.711
56760SOL     OW72176   0.371   8.941  14.772
56760SOL    HW172177   0.292   8.892  14.795
56760SOL    HW272178   0.339   9.027  14.744
56761SOL     OW72179   7.243   9.763   3.794
56761SOL    HW172180   7.271   9.786   3.883
56761SOL    HW272181   7.207   9.843   3.758
56762SOL     OW72182   5.141   3.198   3.505
56762SOL    HW172183   5.229   3.226   3.479
56762SOL    HW272184   5.129   3.112   3.463
56763SOL     OW72185  11.629  14.316  11.770
56763SOL    HW172186  11.712  14.309  11.723
56763SOL    HW272187  11.626  14.238  11.826
56764SOL     OW72188  11.707   3.759   8.386
56764SOL    HW172189  11.667   3.816   8.452
56764SOL    HW272190  11.730   3.818   8.315
56765SOL     OW72191  14.338   8.193   9.834
56765SOL    HW172192  14.245   8.202   9.853
56765SOL    HW272193  14.341   8.163   9.743
56766SOL     OW72194  10.192   7.989   0.722
56766SOL    HW172195  10.218   7.963   0.810
56766SOL    HW272196  10.260   7.952   0.665
56767SOL     OW72197   9.173   1.957   0.614
56767SOL    HW172198   9.100   1.901   0.589
56767SOL    HW272199   9.178   2.022   0.544
56768SOL     OW72200   1.314   7.280  13.826
56768SOL    HW172201   1.300   7.307  13.917
56768SOL    HW272202   1.402   7.243  13.825
56769SOL     OW72203  11.735  14.397   0.706
56769SOL    HW172204  11.798  14.352   0.762
56769SOL    HW272205  11.760  14.371   0.617
56770SOL     OW72206   5.649  11.533  13.190
56770SOL    HW172207   5.579  11.468  13.188
56770SOL    HW272208   5.656  11.563  13.100
56771SOL     OW72209   1.315   6.990   2.487
56771SOL    HW172210   1.232   6.952   2.458
56771SOL    HW272211   1.382   6.945   2.435
56772SOL     OW72212   9.849   0.836  14.429
56772SOL    HW172213   9.846   0.772  14.357
56772SOL    HW272214   9.856   0.782  14.508
56773SOL     OW72215  10.952   7.287  11.857
56773SOL    HW172216  10.971   7.202  11.817
56773SOL    HW272217  10.983   7.278  11.948
56774SOL     OW72218   6.136  13.969   9.193
56774SOL    HW172219   6.174  14.050   9.226
56774SOL    HW272220   6.199  13.901   9.216
56775SOL     OW72221   4.471   1.401   5.295
56775SOL    HW172222   4.471   1.440   5.208
56775SOL    HW272223   4.379   1.382   5.313
56776SOL     OW72224  14.568   6.033  12.266
56776SOL    HW172225  14.489   6.006  12.312
56776SOL    HW272226  14.590   5.958  12.209
56777SOL     OW72227  10.801   0.580   2.799
56777SOL    HW172228  10.755   0.606   2.719
56777SOL    HW272229  10.894   0.593   2.778
56778SOL     OW72230  10.869   0.155  14.821
56778SOL    HW172231  10.779   0.167  14.791
56778SOL    HW272232  10.916   0.123  14.745
56779SOL     OW72233   1.689   6.875  13.536
56779SOL    HW172234   1.727   6.917  13.459
56779SOL    HW272235   1.595   6.891  13.529
56780SOL     OW72236  11.393   4.900  13.582
56780SOL    HW172237  11.346   4.830  13.629
56780SOL    HW272238  11.474   4.858  13.553
56781SOL     OW72239   5.140  10.039   7.359
56781SOL    HW172240   5.133   9.987   7.439
56781SOL    HW272241   5.159  10.127   7.390
56782SOL     OW72242  12.067  10.081  11.444
56782SOL    HW172243  12.146  10.038  11.411
56782SOL    HW272244  11.999  10.014  11.438
56783SOL     OW72245   8.914  10.409   8.032
56783SOL    HW172246   8.845  10.345   8.047
56783SOL    HW272247   8.928  10.449   8.118
56784SOL     OW72248  12.500   3.151  10.440
56784SOL    HW172249  12.455   3.179  10.360
56784SOL    HW272250  12.554   3.226  10.464
56785SOL     OW72251  11.190   6.652   4.999
56785SOL    HW172252  11.217   6.562   4.982
56785SOL    HW272253  11.196   6.695   4.914
56786SOL     OW72254  14.044  12.779   9.714
56786SOL    HW172255  14.062  12.753   9.804
56786SOL    HW272256  14.060  12.873   9.712
56787SOL     OW72257  14.273   6.920  10.025
56787SOL    HW172258  14.185   6.955  10.036
56787SOL    HW272259  14.267   6.830  10.055
56788SOL     OW72260   5.306   5.096  14.771
56788SOL    HW172261   5.295   5.189  14.748
56788SOL    HW272262   5.286   5.093  14.865
56789SOL     OW72263   4.469   1.206   9.651
56789SOL    HW172264   4.549   1.232   9.697
56789SOL    HW272265   4.493   1.205   9.558
56790SOL     OW72266   2.517   1.272   7.210
56790SOL    HW172267   2.483   1.325   7.138
56790SOL    HW272268   2.582   1.215   7.170
56791SOL     OW72269  13.946   6.383   1.950
56791SOL    HW172270  14.006   6.455   1.970
56791SOL    HW272271  13.901   6.366   2.033
56792SOL     OW72272   3.585  10.085   0.484
56792SOL    HW172273   3.636  10.117   0.410
56792SOL    HW272274   3.493  10.096   0.457
56793SOL     OW72275   9.165   1.411  14.513
56793SOL    HW172276   9.077   1.404  14.478
56793SOL    HW272277   9.167   1.494  14.559
56794SOL     OW72278   6.159   0.114   3.258
56794SOL    HW172279   6.199   0.165   3.329
56794SOL    HW272280   6.066   0.134   3.264
56795SOL     OW72281  11.027   3.245   5.132
56795SOL    HW172282  11.051   3.169   5.186
56795SOL    HW272283  10.949   3.280   5.175
56796SOL     OW72284  13.401  10.964   1.459
56796SOL    HW172285  13.357  11.049   1.467
56796SOL    HW272286  13.356  10.920   1.387
56797SOL     OW72287   3.783   5.536   0.480
56797SOL    HW172288   3.692   5.555   0.456
56797SOL    HW272289   3.780   5.524   0.575
56798SOL     OW72290  13.924   6.630   3.127
56798SOL    HW172291  13.881   6.544   3.132
56798SOL    HW272292  13.969   6.628   3.043
56799SOL     OW72293   2.541   2.439  14.557
56799SOL    HW172294   2.493   2.384  14.495
56799SOL    HW272295   2.480   2.509  14.579
56800SOL     OW72296  13.688  14.768  11.811
56800SOL    HW172297  13.694  14.843  11.870
56800SOL    HW272298  13.686  14.692  11.869
56801SOL     OW72299  11.148  10.189   3.345
56801SOL    HW172300  11.113  10.214   3.259
56801SOL    HW272301  11.239  10.166   3.328
56802SOL     OW72302   3.340   0.883   9.320
56802SOL    HW172303   3.434   0.901   9.323
56802SOL    HW272304   3.314   0.904   9.230
56803SOL     OW72305  10.169   5.840   2.214
56803SOL    HW172306  10.092   5.808   2.167
56803SOL    HW272307  10.164   5.935   2.205
56804SOL     OW72308  13.145  14.146   4.920
56804SOL    HW172309  13.065  14.145   4.867
56804SOL    HW272310  13.114  14.156   5.010
56805SOL     OW72311  12.077   7.804  12.534
56805SOL    HW172312  11.989   7.815  12.499
56805SOL    HW272313  12.077   7.716  12.574
56806SOL     OW72314  13.994   1.506  14.074
56806SOL    HW172315  13.953   1.535  14.155
56806SOL    HW272316  14.076   1.465  14.101
56807SOL     OW72317   2.051   5.560   3.859
56807SOL    HW172318   1.981   5.547   3.922
56807SOL    HW272319   2.012   5.614   3.790
56808SOL     OW72320  12.103   3.260   0.278
56808SOL    HW172321  12.102   3.275   0.373
56808SOL    HW272322  12.011   3.250   0.254
56809SOL     OW72323  10.254  12.608  12.885
56809SOL    HW172324  10.231  12.671  12.816
56809SOL    HW272325  10.299  12.538  12.838
56810SOL     OW72326   6.710   2.929  12.440
56810SOL    HW172327   6.721   2.866  12.369
56810SOL    HW272328   6.616   2.951  12.437
56811SOL     OW72329  11.886   3.485   1.541
56811SOL    HW172330  11.794   3.464   1.524
56811SOL    HW272331  11.883   3.549   1.612
56812SOL     OW72332  13.321  13.291   5.053
56812SOL    HW172333  13.228  13.273   5.041
56812SOL    HW272334  13.361  13.206   5.070
56813SOL     OW72335   5.490   4.706  13.226
56813SOL    HW172336   5.495   4.763  13.303
56813SOL    HW272337   5.400   4.714  13.195
56814SOL     OW72338  10.825   8.567   2.566
56814SOL    HW172339  10.734   8.546   2.546
56814SOL    HW272340  10.825   8.591   2.659
56815SOL     OW72341   3.656  12.381   9.622
56815SOL    HW172342   3.600  12.458   9.635
56815SOL    HW272343   3.611  12.310   9.668
56816SOL     OW72344   2.697  12.626   1.580
56816SOL    HW172345   2.690  12.685   1.506
56816SOL    HW272346   2.609  12.624   1.618
56817SOL     OW72347   3.072  13.654   3.805
56817SOL    HW172348   2.991  13.603   3.800
56817SOL    HW272349   3.141  13.589   3.821
56818SOL     OW72350   5.929   1.349   6.873
56818SOL    HW172351   5.958   1.323   6.786
56818SOL    HW272352   5.850   1.297   6.888
56819SOL     OW72353   9.658   4.653   0.926
56819SOL    HW172354   9.566   4.673   0.942
56819SOL    HW272355   9.706   4.713   0.982
56820SOL     OW72356   8.892  13.072   1.552
56820SOL    HW172357   8.877  13.136   1.621
56820SOL    HW272358   8.978  13.034   1.572
56821SOL     OW72359   5.752  13.983  11.780
56821SOL    HW172360   5.734  14.077  11.776
56821SOL    HW272361   5.687  13.949  11.841
56822SOL     OW72362  11.832  12.007   8.770
56822SOL    HW172363  11.815  12.087   8.819
56822SOL    HW272364  11.799  11.936   8.826
56823SOL     OW72365  14.830   1.864  12.112
56823SOL    HW172366   0.033   1.905  12.090
56823SOL    HW272367  14.764   1.930  12.094
56824SOL     OW72368  14.337   3.124  13.875
56824SOL    HW172369  14.318   3.197  13.816
56824SOL    HW272370  14.389   3.064  13.822
56825SOL     OW72371  14.394   8.839  13.783
56825SOL    HW172372  14.324   8.789  13.825
56825SOL    HW272373  14.419   8.787  13.707
56826SOL     OW72374   6.019  13.069   1.499
56826SOL    HW172375   6.074  13.147   1.493
56826SOL    HW272376   6.060  13.017   1.569
56827SOL     OW72377  13.941   8.986   7.957
56827SOL    HW172378  13.961   8.908   8.009
56827SOL    HW272379  14.006   9.051   7.985
56828SOL     OW72380   4.589  10.153   5.814
56828SOL    HW172381   4.500  10.187   5.801
56828SOL    HW272382   4.587  10.065   5.776
56829SOL     OW72383   8.470   9.102  10.270
56829SOL    HW172384   8.475   9.195  10.289
56829SOL    HW272385   8.560   9.071  10.274
56830SOL     OW72386  11.922  12.921  10.772
56830SOL    HW172387  11.845  12.900  10.719
56830SOL    HW272388  11.899  13.004  10.815
56831SOL     OW72389  14.328   5.134   1.043
56831SOL    HW172390  14.357   5.181   1.121
56831SOL    HW272391  14.408   5.117   0.993
56832SOL     OW72392  14.592   3.664  11.631
56832SOL    HW172393  14.650   3.740  11.640
56832SOL    HW272394  14.504   3.700  11.644
56833SOL     OW72395  14.877  13.373   9.940
56833SOL    HW172396  14.818  13.350  10.013
56833SOL    HW272397   0.024  13.462   9.959
56834SOL     OW72398   4.706   9.155  14.775
56834SOL    HW172399   4.612   9.175  14.773
56834SOL    HW272400   4.711   9.065  14.744
56835SOL     OW72401   7.788   4.050  12.796
56835SOL    HW172402   7.855   4.094  12.743
56835SOL    HW272403   7.714   4.039  12.736
56836SOL     OW72404  12.579   6.995   1.970
56836SOL    HW172405  12.592   6.958   2.058
56836SOL    HW272406  12.626   6.934   1.913
56837SOL     OW72407   8.069   6.151   7.463
56837SOL    HW172408   8.130   6.088   7.501
56837SOL    HW272409   8.025   6.103   7.393
56838SOL     OW72410   8.758   0.770   7.843
56838SOL    HW172411   8.759   0.700   7.908
56838SOL    HW272412   8.735   0.849   7.892
56839SOL     OW72413   7.523   9.788   4.194
56839SOL    HW172414   7.583   9.757   4.262
56839SOL    HW272415   7.580   9.826   4.127
56840SOL     OW72416   5.949   9.037  14.298
56840SOL    HW172417   5.929   8.975  14.227
56840SOL    HW272418   6.006   9.102  14.257
56841SOL     OW72419   5.865  13.343  11.695
56841SOL    HW172420   5.952  13.307  11.680
56841SOL    HW272421   5.823  13.282  11.755
56842SOL     OW72422   1.728  14.092   3.553
56842SOL    HW172423   1.823  14.100   3.565
56842SOL    HW272424   1.699  14.182   3.538
56843SOL     OW72425  10.077   3.029  11.773
56843SOL    HW172426  10.005   2.968  11.790
56843SOL    HW272427  10.092   3.073  11.856
56844SOL     OW72428   7.261  14.871   3.024
56844SOL    HW172429   7.282  14.842   2.935
56844SOL    HW272430   7.277   0.085   3.023
56845SOL     OW72431  11.092   8.917  13.538
56845SOL    HW172432  11.108   9.010  13.556
56845SOL    HW272433  11.056   8.916  13.450
56846SOL     OW72434   0.664   4.654  12.634
56846SOL    HW172435   0.757   4.677  12.639
56846SOL    HW272436   0.631   4.670  12.723
56847SOL     OW72437  13.372   4.666   3.161
56847SOL    HW172438  13.404   4.729   3.097
56847SOL    HW272439  13.303   4.712   3.208
56848SOL     OW72440  10.928   1.268  11.731
56848SOL    HW172441  10.890   1.304  11.811
56848SOL    HW272442  11.022   1.281  11.741
56849SOL     OW72443  11.587   7.518   3.351
56849SOL    HW172444  11.646   7.506   3.276
56849SOL    HW272445  11.585   7.431   3.393
56850SOL     OW72446   9.473   5.019  10.225
56850SOL    HW172447   9.442   4.946  10.280
56850SOL    HW272448   9.393   5.062  10.196
56851SOL     OW72449  10.025   1.005   6.086
56851SOL    HW172450  10.027   0.912   6.063
56851SOL    HW272451  10.082   1.047   6.022
56852SOL     OW72452   0.309   0.997   7.715
56852SOL    HW172453   0.392   0.990   7.668
56852SOL    HW272454   0.244   1.018   7.648
56853SOL     OW72455  12.840   9.572   3.046
56853SOL    HW172456  12.863   9.587   3.138
56853SOL    HW272457  12.763   9.516   3.049
56854SOL     OW72458   7.731   3.687  12.273
56854SOL    HW172459   7.654   3.726  12.231
56854SOL    HW272460   7.795   3.680  12.203
56855SOL     OW72461  13.966   3.147   7.748
56855SOL    HW172462  13.879   3.118   7.722
56855SOL    HW272463  13.996   3.082   7.811
56856SOL     OW72464  10.497  12.887   3.781
56856SOL    HW172465  10.432  12.956   3.765
56856SOL    HW272466  10.505  12.842   3.697
56857SOL     OW72467   3.639  10.303  12.775
56857SOL    HW172468   3.693  10.382  12.771
56857SOL    HW272469   3.551  10.333  12.752
56858SOL     OW72470   2.326   4.486  11.817
56858SOL    HW172471   2.352   4.402  11.854
56858SOL    HW272472   2.350   4.550  11.883
56859SOL     OW72473   8.448  10.571   9.439
56859SOL    HW172474   8.430  10.612   9.354
56859SOL    HW272475   8.361  10.558   9.477
56860SOL     OW72476   6.747   4.579   4.487
56860SOL    HW172477   6.753   4.528   4.567
56860SOL    HW272478   6.834   4.618   4.477
56861SOL     OW72479   6.097  13.835   5.710
56861SOL    HW172480   6.006  13.841   5.739
56861SOL    HW272481   6.092  13.816   5.616
56862SOL     OW72482   0.038   8.802  13.158
56862SOL    HW172483   0.121   8.802  13.110
56862SOL    HW272484   0.062   8.772  13.246
56863SOL     OW72485   9.307  12.648   9.730
56863SOL    HW172486   9.260  12.593   9.668
56863SOL    HW272487   9.315  12.733   9.684
56864SOL     OW72488   5.653   0.328   5.770
56864SOL    HW172489   5.606   0.411   5.776
56864SOL    HW272490   5.727   0.345   5.711
56865SOL     OW72491   1.739   3.873   8.194
56865SOL    HW172492   1.680   3.948   8.187
56865SOL    HW272493   1.822   3.909   8.223
56866SOL     OW72494   7.317   1.738   4.349
56866SOL    HW172495   7.368   1.710   4.273
56866SOL    HW272496   7.254   1.667   4.363
56867SOL     OW72497  11.005   7.109  11.136
56867SOL    HW172498  11.022   7.196  11.173
56867SOL    HW272499  10.909   7.104  11.132
56868SOL     OW72500   6.330  11.297   4.549
56868SOL    HW172501   6.249  11.266   4.508
56868SOL    HW272502   6.358  11.225   4.605
56869SOL     OW72503  11.665   8.939   7.602
56869SOL    HW172504  11.671   8.912   7.693
56869SOL    HW272505  11.755   8.934   7.570
56870SOL     OW72506   8.277  10.633  13.240
56870SOL    HW172507   8.256  10.678  13.321
56870SOL    HW272508   8.215  10.668  13.176
56871SOL     OW72509  11.948   1.572   3.448
56871SOL    HW172510  11.942   1.544   3.539
56871SOL    HW272511  11.858   1.592   3.423
56872SOL     OW72512   1.302   0.463   9.374
56872SOL    HW172513   1.225   0.517   9.355
56872SOL    HW272514   1.323   0.482   9.465
56873SOL     OW72515   7.858   7.209   1.830
56873SOL    HW172516   7.903   7.137   1.873
56873SOL    HW272517   7.776   7.170   1.798
56874SOL     OW72518   3.253   8.208   5.924
56874SOL    HW172519   3.174   8.187   5.874
56874SOL    HW272520   3.225   8.275   5.987
56875SOL     OW72521   7.547  12.407  13.166
56875SOL    HW172522   7.565  12.501  13.173
56875SOL    HW272523   7.575  12.372  13.250
56876SOL     OW72524   2.534  12.794   4.509
56876SOL    HW172525   2.454  12.837   4.481
56876SOL    HW272526   2.509  12.702   4.523
56877SOL     OW72527   7.827   0.435   4.648
56877SOL    HW172528   7.900   0.416   4.707
56877SOL    HW272529   7.825   0.531   4.643
56878SOL     OW72530  11.585   7.464   9.474
56878SOL    HW172531  11.521   7.394   9.480
56878SOL    HW272532  11.546   7.527   9.414
56879SOL     OW72533   5.705  13.360   7.349
56879SOL    HW172534   5.641  13.429   7.365
56879SOL    HW272535   5.743  13.342   7.436
56880SOL     OW72536   3.349  10.657   0.748
56880SOL    HW172537   3.330  10.565   0.767
56880SOL    HW272538   3.265  10.694   0.723
56881SOL     OW72539  12.201  13.221   1.606
56881SOL    HW172540  12.246  13.264   1.533
56881SOL    HW272541  12.109  13.247   1.595
56882SOL     OW72542  13.243   9.233   8.506
56882SOL    HW172543  13.243   9.329   8.508
56882SOL    HW272544  13.335   9.210   8.523
56883SOL     OW72545  11.375   1.123   5.376
56883SOL    HW172546  11.311   1.151   5.311
56883SOL    HW272547  11.368   1.028   5.377
56884SOL     OW72548   7.182   1.188   1.907
56884SOL    HW172549   7.183   1.183   2.003
56884SOL    HW272550   7.206   1.279   1.888
56885SOL     OW72551  11.758   9.104   0.245
56885SOL    HW172552  11.784   9.014   0.261
56885SOL    HW272553  11.696   9.124   0.315
56886SOL     OW72554   3.688   2.199  12.007
56886SOL    HW172555   3.626   2.217  12.078
56886SOL    HW272556   3.633   2.176  11.932
56887SOL     OW72557   3.220   8.055  10.989
56887SOL    HW172558   3.139   8.055  11.040
56887SOL    HW272559   3.239   7.963  10.974
56888SOL     OW72560  10.066  14.663   2.311
56888SOL    HW172561  10.103  14.584   2.350
56888SOL    HW272562  10.003  14.630   2.247
56889SOL     OW72563  12.993   6.196  10.192
56889SOL    HW172564  12.933   6.130  10.158
56889SOL    HW272565  13.058   6.147  10.242
56890SOL     OW72566   3.746   1.576   0.400
56890SOL    HW172567   3.764   1.594   0.492
56890SOL    HW272568   3.831   1.585   0.356
56891SOL     OW72569  12.273   4.372   7.587
56891SOL    HW172570  12.360   4.333   7.593
56891SOL    HW272571  12.249   4.393   7.677
56892SOL     OW72572   6.637  11.406   2.541
56892SOL    HW172573   6.678  11.479   2.588
56892SOL    HW272574   6.709  11.360   2.498
56893SOL     OW72575  10.857  10.848  12.730
56893SOL    HW172576  10.768  10.827  12.703
56893SOL    HW272577  10.854  10.940  12.755
56894SOL     OW72578   1.579   4.858   1.174
56894SOL    HW172579   1.494   4.869   1.131
56894SOL    HW272580   1.618   4.945   1.173
56895SOL     OW72581   2.795  13.545  10.651
56895SOL    HW172582   2.856  13.619  10.645
56895SOL    HW272583   2.730  13.572  10.716
56896SOL     OW72584   3.239   3.822   4.713
56896SOL    HW172585   3.203   3.879   4.645
56896SOL    HW272586   3.322   3.791   4.677
56897SOL     OW72587   3.417   2.342   8.512
56897SOL    HW172588   3.432   2.260   8.559
56897SOL    HW272589   3.432   2.410   8.577
56898SOL     OW72590   6.422  10.341   8.941
56898SOL    HW172591   6.421  10.357   9.035
56898SOL    HW272592   6.470  10.416   8.904
56899SOL     OW72593   3.245   5.551  13.856
56899SOL    HW172594   3.275   5.641  13.853
56899SOL    HW272595   3.155   5.554  13.823
56900SOL     OW72596   6.531   1.126  14.612
56900SOL    HW172597   6.582   1.207  14.611
56900SOL    HW272598   6.589   1.062  14.654
56901SOL     OW72599   3.581   6.883   4.469
56901SOL    HW172600   3.646   6.816   4.451
56901SOL    HW272601   3.580   6.938   4.391
56902SOL     OW72602   1.066  11.958   0.714
56902SOL    HW172603   1.076  11.961   0.619
56902SOL    HW272604   1.047  12.048   0.739
56903SOL     OW72605   5.950   4.993   5.704
56903SOL    HW172606   5.944   5.067   5.644
56903SOL    HW272607   6.024   5.014   5.761
56904SOL     OW72608  14.712   5.332   5.724
56904SOL    HW172609  14.720   5.362   5.814
56904SOL    HW272610  14.736   5.239   5.727
56905SOL     OW72611   7.333   0.358   9.314
56905SOL    HW172612   7.241   0.381   9.322
56905SOL    HW272613   7.377   0.408   9.383
56906SOL     OW72614   9.651  10.467  10.367
56906SOL    HW172615   9.693  10.394  10.322
56906SOL    HW272616   9.714  10.494  10.433
56907SOL     OW72617  10.807  11.435   9.803
56907SOL    HW172618  10.757  11.375   9.859
56907SOL    HW272619  10.845  11.379   9.736
56908SOL     OW72620   9.743   2.369   3.558
56908SOL    HW172621   9.653   2.345   3.578
56908SOL    HW272622   9.760   2.331   3.472
56909SOL     OW72623   5.738   0.570   0.083
56909SOL    HW172624   5.827   0.574   0.118
56909SOL    HW272625   5.704   0.486   0.113
56910SOL     OW72626  14.087   4.463  14.237
56910SOL    HW172627  14.165   4.415  14.209
56910SOL    HW272628  14.056   4.415  14.314
56911SOL     OW72629   9.546   7.621   1.035
56911SOL    HW172630   9.518   7.707   1.066
56911SOL    HW272631   9.466   7.567   1.040
56912SOL     OW72632   9.072   2.611   7.335
56912SOL    HW172633   9.164   2.596   7.355
56912SOL    HW272634   9.025   2.573   7.408
56913SOL     OW72635   9.928  13.207   7.571
56913SOL    HW172636  10.002  13.160   7.609
56913SOL    HW272637   9.920  13.172   7.482
56914SOL     OW72638   5.713   9.127  10.330
56914SOL    HW172639   5.664   9.158  10.254
56914SOL    HW272640   5.804   9.149  10.309
56915SOL     OW72641   5.008  11.325  10.086
56915SOL    HW172642   4.997  11.374  10.004
56915SOL    HW272643   5.024  11.235  10.058
56916SOL     OW72644   5.973   8.042   0.144
56916SOL    HW172645   5.901   8.029   0.205
56916SOL    HW272646   6.035   7.972   0.165
56917SOL     OW72647   4.399  11.846  13.478
56917SOL    HW172648   4.433  11.827  13.565
56917SOL    HW272649   4.313  11.803  13.475
56918SOL     OW72650   9.259  12.367   4.115
56918SOL    HW172651   9.245  12.323   4.031
56918SOL    HW272652   9.171  12.374   4.152
56919SOL     OW72653   4.391   6.555   5.619
56919SOL    HW172654   4.358   6.569   5.531
56919SOL    HW272655   4.469   6.610   5.624
56920SOL     OW72656  13.719  10.992   8.565
56920SOL    HW172657  13.653  11.015   8.630
56920SOL    HW272658  13.735  10.899   8.578
56921SOL     OW72659   7.141   3.575   2.870
56921SOL    HW172660   7.156   3.665   2.841
56921SOL    HW272661   7.111   3.529   2.792
56922SOL     OW72662  14.459  10.109   0.833
56922SOL    HW172663  14.436  10.094   0.924
56922SOL    HW272664  14.393  10.171   0.801
56923SOL     OW72665   3.739   0.213  14.381
56923SOL    HW172666   3.737   0.200  14.476
56923SOL    HW272667   3.820   0.172  14.352
56924SOL     OW72668   9.238  13.209   0.072
56924SOL    HW172669   9.229  13.159  14.872
56924SOL    HW272670   9.279  13.291   0.045
56925SOL     OW72671  13.030   8.748   8.720
56925SOL    HW172672  13.014   8.839   8.695
56925SOL    HW272673  13.028   8.700   8.638
56926SOL     OW72674  14.705   4.670   5.998
56926SOL    HW172675  14.682   4.761   6.015
56926SOL    HW272676  14.711   4.629   6.084
56927SOL     OW72677   0.307   0.100   2.470
56927SOL    HW172678   0.347   0.025   2.425
56927SOL    HW272679   0.225   0.066   2.505
56928SOL     OW72680  13.615  13.747   8.467
56928SOL    HW172681  13.520  13.747   8.482
56928SOL    HW272682  13.647  13.820   8.519
56929SOL     OW72683  10.461   5.605   4.057
56929SOL    HW172684  10.383   5.629   4.007
56929SOL    HW272685  10.444   5.515   4.087
56930SOL     OW72686   2.817   7.625  14.283
56930SOL    HW172687   2.851   7.539  14.258
56930SOL    HW272688   2.892   7.670  14.323
56931SOL     OW72689   0.538   1.617  11.103
56931SOL    HW172690   0.544   1.674  11.026
56931SOL    HW272691   0.628   1.611  11.136
56932SOL     OW72692   5.026   9.502   3.140
56932SOL    HW172693   5.118   9.526   3.125
56932SOL    HW272694   4.984   9.517   3.055
56933SOL     OW72695   3.981  11.941   3.158
56933SOL    HW172696   3.987  11.945   3.254
56933SOL    HW272697   3.899  11.986   3.138
56934SOL     OW72698  12.930   1.911  13.506
56934SOL    HW172699  12.969   1.838  13.553
56934SOL    HW272700  12.835   1.897  13.515
56935SOL     OW72701   0.611   6.285   4.937
56935SOL    HW172702   0.668   6.287   4.860
56935SOL    HW272703   0.605   6.377   4.964
56936SOL     OW72704  14.721   0.865   6.455
56936SOL    HW172705  14.691   0.953   6.477
56936SOL    HW272706  14.751   0.872   6.364
56937SOL     OW72707   7.646   0.743   7.947
56937SOL    HW172708   7.558   0.779   7.960
56937SOL    HW272709   7.703   0.804   7.993
56938SOL     OW72710   4.737  11.600   0.453
56938SOL    HW172711   4.759  11.674   0.396
56938SOL    HW272712   4.645  11.582   0.434
56939SOL     OW72713   8.596  11.124  13.864
56939SOL    HW172714   8.529  11.059  13.843
56939SOL    HW272715   8.602  11.179  13.786
56940SOL     OW72716  13.285   3.492   9.544
56940SOL    HW172717  13.248   3.578   9.562
56940SOL    HW272718  13.228   3.455   9.477
56941SOL     OW72719   7.177   5.646  13.236
56941SOL    HW172720   7.147   5.670  13.148
56941SOL    HW272721   7.272   5.660  13.233
56942SOL     OW72722   7.922   9.850  11.618
56942SOL    HW172723   7.854   9.802  11.572
56942SOL    HW272724   7.879   9.885  11.696
56943SOL     OW72725   7.655   1.107  12.687
56943SOL    HW172726   7.596   1.175  12.654
56943SOL    HW272727   7.742   1.142  12.671
56944SOL     OW72728  13.195   7.581   8.885
56944SOL    HW172729  13.173   7.592   8.977
56944SOL    HW272730  13.209   7.670   8.853
56945SOL     OW72731   7.915  10.819   3.474
56945SOL    HW172732   7.892  10.819   3.566
56945SOL    HW272733   7.936  10.728   3.454
56946SOL     OW72734  13.362   4.792  11.068
56946SOL    HW172735  13.442   4.779  11.118
56946SOL    HW272736  13.374   4.876  11.023
56947SOL     OW72737  13.107  11.726   4.265
56947SOL    HW172738  13.047  11.713   4.192
56947SOL    HW272739  13.107  11.821   4.280
56948SOL     OW72740   2.937   3.196  10.248
56948SOL    HW172741   2.903   3.200  10.338
56948SOL    HW272742   3.032   3.185  10.259
56949SOL     OW72743   6.823  12.112   6.341
56949SOL    HW172744   6.728  12.105   6.346
56949SOL    HW272745   6.839  12.194   6.294
56950SOL     OW72746  14.013  10.477  13.800
56950SOL    HW172747  14.000  10.430  13.718
56950SOL    HW272748  13.930  10.471  13.846
56951SOL     OW72749   1.815   9.274  13.955
56951SOL    HW172750   1.801   9.229  13.871
56951SOL    HW272751   1.746   9.341  13.957
56952SOL     OW72752  10.034   4.104   9.715
56952SOL    HW172753   9.941   4.106   9.736
56952SOL    HW272754  10.077   4.074   9.795
56953SOL     OW72755   6.005  11.239  13.168
56953SOL    HW172756   6.064  11.281  13.106
56953SOL    HW272757   5.959  11.312  13.210
56954SOL     OW72758  14.786  12.897  10.072
56954SOL    HW172759  14.869  12.851  10.077
56954SOL    HW272760  14.772  12.933  10.159
56955SOL     OW72761   3.022   5.873   4.980
56955SOL    HW172762   3.035   5.836   5.067
56955SOL    HW272763   2.991   5.962   4.995
56956SOL     OW72764   4.162   3.926   3.426
56956SOL    HW172765   4.096   3.973   3.376
56956SOL    HW272766   4.244   3.971   3.406
56957SOL     OW72767   5.766   3.615  14.807
56957SOL    HW172768   5.757   3.560  14.729
56957SOL    HW272769   5.774   3.553  14.879
56958SOL     OW72770   6.550   9.107   6.208
56958SOL    HW172771   6.479   9.110   6.273
56958SOL    HW272772   6.524   9.035   6.149
56959SOL     OW72773   1.559   9.059   5.270
56959SOL    HW172774   1.487   9.121   5.261
56959SOL    HW272775   1.624   9.088   5.207
56960SOL     OW72776   3.218  10.103  11.277
56960SOL    HW172777   3.298  10.055  11.300
56960SOL    HW272778   3.239  10.145  11.194
56961SOL     OW72779   8.063   1.572  12.125
56961SOL    HW172780   8.019   1.630  12.063
56961SOL    HW272781   7.992   1.528  12.172
56962SOL     OW72782   9.117  12.571  10.915
56962SOL    HW172783   9.061  12.505  10.958
56962SOL    HW272784   9.057  12.640  10.889
56963SOL     OW72785   6.814   6.230   9.386
56963SOL    HW172786   6.767   6.189   9.314
56963SOL    HW272787   6.760   6.212   9.463
56964SOL     OW72788   2.039   0.861  11.825
56964SOL    HW172789   2.103   0.867  11.754
56964SOL    HW272790   1.956   0.844  11.781
56965SOL     OW72791   7.409  11.504   4.154
56965SOL    HW172792   7.456  11.430   4.194
56965SOL    HW272793   7.319  11.496   4.186
56966SOL     OW72794   8.670   9.993   1.185
56966SOL    HW172795   8.755  10.020   1.220
56966SOL    HW272796   8.682   9.901   1.164
56967SOL     OW72797  13.372   3.224   8.197
56967SOL    HW172798  13.398   3.258   8.112
56967SOL    HW272799  13.413   3.284   8.260
56968SOL     OW72800   8.286   3.371   1.165
56968SOL    HW172801   8.255   3.425   1.238
56968SOL    HW272802   8.214   3.311   1.147
56969SOL     OW72803   6.691   2.105  14.510
56969SOL    HW172804   6.752   2.179  14.517
56969SOL    HW272805   6.726   2.039  14.570
56970SOL     OW72806  14.428  13.057   4.692
56970SOL    HW172807  14.425  12.978   4.637
56970SOL    HW272808  14.336  13.081   4.704
56971SOL     OW72809  14.853   7.791   5.763
56971SOL    HW172810   0.001   7.877   5.731
56971SOL    HW272811   0.049   7.756   5.808
56972SOL     OW72812   5.009  11.846  10.907
56972SOL    HW172813   5.093  11.842  10.952
56972SOL    HW272814   5.027  11.895  10.826
56973SOL     OW72815  11.500   8.599   5.032
56973SOL    HW172816  11.518   8.549   5.111
56973SOL    HW272817  11.554   8.677   5.040
56974SOL     OW72818  14.000   4.699  13.289
56974SOL    HW172819  14.083   4.711  13.335
56974SOL    HW272820  14.012   4.620  13.237
56975SOL     OW72821   7.419  11.499   5.192
56975SOL    HW172822   7.395  11.469   5.105
56975SOL    HW272823   7.488  11.564   5.176
56976SOL     OW72824  10.036   6.829   1.718
56976SOL    HW172825   9.968   6.876   1.670
56976SOL    HW272826  10.097   6.897   1.746
56977SOL     OW72827   1.907  11.835   3.665
56977SOL    HW172828   1.856  11.794   3.595
56977SOL    HW272829   1.987  11.865   3.622
56978SOL     OW72830   5.464   7.334  13.097
56978SOL    HW172831   5.550   7.351  13.135
56978SOL    HW272832   5.459   7.239  13.090
56979SOL     OW72833   5.923   5.397   4.996
56979SOL    HW172834   5.868   5.458   4.947
56979SOL    HW272835   5.863   5.331   5.030
56980SOL     OW72836   7.073   5.327   8.403
56980SOL    HW172837   6.988   5.365   8.426
56980SOL    HW272838   7.136   5.399   8.415
56981SOL     OW72839   7.135   3.873  12.769
56981SOL    HW172840   7.175   3.935  12.830
56981SOL    HW272841   7.162   3.787  12.800
56982SOL     OW72842   3.446  14.810   8.026
56982SOL    HW172843   3.493  14.808   7.942
56982SOL    HW272844   3.356  14.833   8.003
56983SOL     OW72845  12.916   6.782   0.776
56983SOL    HW172846  12.965   6.702   0.790
56983SOL    HW272847  12.834   6.768   0.823
56984SOL     OW72848  14.426  10.989   9.453
56984SOL    HW172849  14.434  11.085   9.451
56984SOL    HW272850  14.433  10.963   9.361
56985SOL     OW72851   1.055   3.858   8.530
56985SOL    HW172852   1.010   3.775   8.546
56985SOL    HW272853   0.989   3.913   8.488
56986SOL     OW72854   9.407   5.385   5.212
56986SOL    HW172855   9.330   5.342   5.249
56986SOL    HW272856   9.481   5.351   5.263
56987SOL     OW72857   8.398   4.540  14.690
56987SOL    HW172858   8.439   4.588  14.761
56987SOL    HW272859   8.306   4.533  14.716
56988SOL     OW72860   3.350   5.418   2.732
56988SOL    HW172861   3.428   5.419   2.676
56988SOL    HW272862   3.296   5.347   2.697
56989SOL     OW72863   2.683   3.335   2.073
56989SOL    HW172864   2.676   3.372   2.161
56989SOL    HW272865   2.609   3.373   2.026
56990SOL     OW72866  11.938   8.309   9.104
56990SOL    HW172867  12.005   8.335   9.041
56990SOL    HW272868  11.855   8.327   9.060
56991SOL     OW72869   9.474   1.935  12.167
56991SOL    HW172870   9.435   2.023  12.176
56991SOL    HW272871   9.503   1.913  12.255
56992SOL     OW72872   2.617   1.502   6.741
56992SOL    HW172873   2.564   1.581   6.733
56992SOL    HW272874   2.607   1.474   6.832
56993SOL     OW72875  12.911   5.015   1.268
56993SOL    HW172876  12.875   4.966   1.343
56993SOL    HW272877  12.993   4.970   1.248
56994SOL     OW72878   2.303   7.593  10.358
56994SOL    HW172879   2.312   7.498  10.363
56994SOL    HW272880   2.272   7.619  10.445
56995SOL     OW72881  13.687   0.192   5.728
56995SOL    HW172882  13.741   0.113   5.724
56995SOL    HW272883  13.657   0.196   5.819
56996SOL     OW72884  14.113  11.891   5.010
56996SOL    HW172885  14.139  11.878   5.101
56996SOL    HW272886  14.032  11.842   5.001
56997SOL     OW72887   1.623   8.930  14.490
56997SOL    HW172888   1.624   8.839  14.522
56997SOL    HW272889   1.652   8.982  14.565
56998SOL     OW72890   3.040  14.632  13.221
56998SOL    HW172891   2.968  14.694  13.230
56998SOL    HW272892   3.118  14.680  13.250
56999SOL     OW72893   3.707   9.289   1.629
56999SOL    HW172894   3.721   9.349   1.555
56999SOL    HW272895   3.618   9.257   1.617
57000SOL     OW72896  10.327  14.865   8.152
57000SOL    HW172897  10.287  14.787   8.112
57000SOL    HW272898  10.401  14.830   8.202
57001SOL     OW72899   8.738   5.245   9.033
57001SOL    HW172900   8.800   5.181   9.068
57001SOL    HW272901   8.711   5.297   9.109
57002SOL     OW72902   5.767   5.517   4.811
57002SOL    HW172903   5.706   5.453   4.775
57002SOL    HW272904   5.717   5.599   4.816
57003SOL     OW72905  10.645  12.302  12.933
57003SOL    HW172906  10.660  12.307  12.839
57003SOL    HW272907  10.579  12.369  12.951
57004SOL     OW72908   0.193  14.184   2.393
57004SOL    HW172909   0.160  14.146   2.312
57004SOL    HW272910   0.169  14.276   2.387
57005SOL     OW72911   4.568   5.017   4.429
57005SOL    HW172912   4.622   5.013   4.508
57005SOL    HW272913   4.525   4.932   4.424
57006SOL     OW72914   6.848  13.704   1.936
57006SOL    HW172915   6.889  13.734   1.855
57006SOL    HW272916   6.897  13.748   2.005
57007SOL     OW72917   0.152   2.131   7.299
57007SOL    HW172918   0.094   2.150   7.225
57007SOL    HW272919   0.217   2.201   7.296
57008SOL     OW72920   2.959   8.406   7.277
57008SOL    HW172921   3.030   8.444   7.329
57008SOL    HW272922   2.879   8.439   7.318
57009SOL     OW72923   1.463   3.962  12.357
57009SOL    HW172924   1.520   4.015  12.301
57009SOL    HW272925   1.518   3.889  12.385
57010SOL     OW72926  11.412   8.500  13.104
57010SOL    HW172927  11.435   8.571  13.164
57010SOL    HW272928  11.489   8.443  13.104
57011SOL     OW72929  13.822  13.298   7.722
57011SOL    HW172930  13.881  13.369   7.695
57011SOL    HW272931  13.871  13.218   7.704
57012SOL     OW72932  11.295   8.223  14.509
57012SOL    HW172933  11.281   8.317  14.517
57012SOL    HW272934  11.358   8.202  14.578
57013SOL     OW72935   3.113  10.992   9.518
57013SOL    HW172936   3.134  10.926   9.584
57013SOL    HW272937   3.027  10.967   9.485
57014SOL     OW72938  12.953  10.990   8.643
57014SOL    HW172939  13.007  11.015   8.718
57014SOL    HW272940  12.900  11.068   8.625
57015SOL     OW72941  11.112   5.329  10.054
57015SOL    HW172942  11.035   5.292  10.012
57015SOL    HW272943  11.097   5.317  10.147
57016SOL     OW72944   2.871   2.732   2.791
57016SOL    HW172945   2.925   2.734   2.870
57016SOL    HW272946   2.863   2.824   2.766
57017SOL     OW72947   0.545   3.814   7.397
57017SOL    HW172948   0.456   3.780   7.410
57017SOL    HW272949   0.534   3.887   7.336
57018SOL     OW72950   8.434  11.072   9.486
57018SOL    HW172951   8.364  11.094   9.547
57018SOL    HW272952   8.507  11.129   9.511
57019SOL     OW72953   7.198  10.791   4.039
57019SOL    HW172954   7.151  10.721   4.083
57019SOL    HW272955   7.290  10.765   4.044
57020SOL     OW72956   2.591   8.342  11.412
57020SOL    HW172957   2.661   8.305  11.465
57020SOL    HW272958   2.511   8.315  11.457
57021SOL     OW72959   3.320   6.571   7.685
57021SOL    HW172960   3.340   6.637   7.618
57021SOL    HW272961   3.347   6.488   7.647
57022SOL     OW72962  11.527   4.018  14.297
57022SOL    HW172963  11.442   4.061  14.294
57022SOL    HW272964  11.586   4.084  14.334
57023SOL     OW72965   5.865   5.496  12.746
57023SOL    HW172966   5.884   5.569  12.686
57023SOL    HW272967   5.770   5.490  12.746
57024SOL     OW72968   9.416  12.904  12.605
57024SOL    HW172969   9.379  12.924  12.518
57024SOL    HW272970   9.347  12.930  12.666
57025SOL     OW72971   8.959   3.598  10.620
57025SOL    HW172972   8.871   3.561  10.610
57025SOL    HW272973   8.997   3.550  10.695
57026SOL     OW72974  12.118  14.768   8.150
57026SOL    HW172975  12.107  14.862   8.135
57026SOL    HW272976  12.084  14.728   8.070
57027SOL     OW72977   6.432  13.414   6.425
57027SOL    HW172978   6.501  13.349   6.434
57027SOL    HW272979   6.466  13.492   6.468
57028SOL     OW72980   2.519   4.864   0.087
57028SOL    HW172981   2.596   4.921   0.084
57028SOL    HW272982   2.539   4.793   0.026
57029SOL     OW72983   0.454   2.093   6.208
57029SOL    HW172984   0.480   2.004   6.233
57029SOL    HW272985   0.455   2.142   6.290
57030SOL     OW72986  11.066   3.752   7.135
57030SOL    HW172987  11.146   3.743   7.084
57030SOL    HW272988  11.015   3.673   7.115
57031SOL     OW72989   8.324   6.233   2.670
57031SOL    HW172990   8.304   6.327   2.665
57031SOL    HW272991   8.238   6.191   2.666
57032SOL     OW72992   1.349  14.876   2.223
57032SOL    HW172993   1.278  14.821   2.255
57032SOL    HW272994   1.427  14.821   2.233
57033SOL     OW72995  11.592   6.585   0.894
57033SOL    HW172996  11.613   6.492   0.885
57033SOL    HW272997  11.670   6.630   0.862
57034SOL     OW72998   7.974  13.119  12.216
57034SOL    HW172999   8.017  13.095  12.298
57034SOL    HW273000   7.987  13.043  12.158
57035SOL     OW73001   8.179   8.434   6.904
57035SOL    HW173002   8.096   8.481   6.917
57035SOL    HW273003   8.169   8.354   6.955
57036SOL     OW73004  11.807   0.531   6.500
57036SOL    HW173005  11.862   0.603   6.532
57036SOL    HW273006  11.869   0.461   6.481
57037SOL     OW73007  12.670   7.428  14.510
57037SOL    HW173008  12.648   7.474  14.591
57037SOL    HW273009  12.687   7.499  14.447
57038SOL     OW73010   1.960   5.197   5.039
57038SOL    HW173011   2.052   5.174   5.046
57038SOL    HW273012   1.942   5.252   5.114
57039SOL     OW73013  11.178   2.495  13.524
57039SOL    HW173014  11.185   2.431  13.453
57039SOL    HW273015  11.239   2.565  13.499
57040SOL     OW73016  12.149  14.657   0.391
57040SOL    HW173017  12.087  14.701   0.333
57040SOL    HW273018  12.169  14.721   0.458
57041SOL     OW73019   9.054   6.208   2.020
57041SOL    HW173020   8.966   6.237   2.045
57041SOL    HW273021   9.110   6.237   2.092
57042SOL     OW73022   4.429   3.883  11.962
57042SOL    HW173023   4.443   3.830  11.883
57042SOL    HW273024   4.488   3.845  12.027
57043SOL     OW73025   8.113   4.947   1.813
57043SOL    HW173026   8.186   4.901   1.855
57043SOL    HW273027   8.124   5.039   1.840
57044SOL     OW73028   9.177   8.249  11.956
57044SOL    HW173029   9.120   8.293  11.893
57044SOL    HW273030   9.189   8.161  11.921
57045SOL     OW73031   7.646   2.657   7.269
57045SOL    HW173032   7.553   2.650   7.244
57045SOL    HW273033   7.693   2.649   7.186
57046SOL     OW73034   2.881   3.261   6.117
57046SOL    HW173035   2.975   3.279   6.111
57046SOL    HW273036   2.874   3.193   6.184
57047SOL     OW73037   2.104   9.035  13.811
57047SOL    HW173038   2.069   9.069  13.729
57047SOL    HW273039   2.193   9.070  13.816
57048SOL     OW73040   8.808  14.255  11.757
57048SOL    HW173041   8.867  14.329  11.744
57048SOL    HW273042   8.867  14.181  11.773
57049SOL     OW73043  14.083   1.894   4.120
57049SOL    HW173044  14.074   1.970   4.061
57049SOL    HW273045  14.164   1.912   4.169
57050SOL     OW73046   1.101   1.426  10.335
57050SOL    HW173047   1.145   1.370  10.271
57050SOL    HW273048   1.060   1.365  10.396
57051SOL     OW73049   2.514   3.529  13.827
57051SOL    HW173050   2.578   3.517  13.898
57051SOL    HW273051   2.454   3.596  13.861
57052SOL     OW73052   3.415   5.465   5.807
57052SOL    HW173053   3.468   5.428   5.736
57052SOL    HW273054   3.348   5.516   5.762
57053SOL     OW73055   0.375  12.334  14.850
57053SOL    HW173056   0.338  12.367   0.051
57053SOL    HW273057   0.305  12.281  14.811
57054SOL     OW73058  13.150  11.299  12.873
57054SOL    HW173059  13.103  11.217  12.888
57054SOL    HW273060  13.216  11.302  12.942
57055SOL     OW73061   9.077  11.782   3.895
57055SOL    HW173062   9.127  11.860   3.869
57055SOL    HW273063   9.109  11.762   3.983
57056SOL     OW73064   3.453   0.039   6.569
57056SOL    HW173065   3.380   0.029   6.630
57056SOL    HW273066   3.530   0.010   6.619
57057SOL     OW73067   5.408   1.835   2.835
57057SOL    HW173068   5.407   1.830   2.931
57057SOL    HW273069   5.449   1.753   2.808
57058SOL     OW73070   5.835  12.901   6.899
57058SOL    HW173071   5.809  12.992   6.888
57058SOL    HW273072   5.899  12.885   6.830
57059SOL     OW73073   7.196  12.385   2.938
57059SOL    HW173074   7.207  12.474   2.906
57059SOL    HW273075   7.132  12.346   2.878
57060SOL     OW73076   8.472  10.853   8.580
57060SOL    HW173077   8.521  10.930   8.553
57060SOL    HW273078   8.524  10.816   8.652
57061SOL     OW73079  13.452  10.378  12.125
57061SOL    HW173080  13.537  10.417  12.107
57061SOL    HW273081  13.393  10.453  12.139
57062SOL     OW73082  11.966   6.891   1.924
57062SOL    HW173083  12.028   6.821   1.943
57062SOL    HW273084  11.940   6.876   1.833
57063SOL     OW73085   0.398   3.787   4.960
57063SOL    HW173086   0.396   3.704   5.010
57063SOL    HW273087   0.367   3.763   4.873
57064SOL     OW73088  14.394   0.292   6.527
57064SOL    HW173089  14.360   0.304   6.438
57064SOL    HW273090  14.483   0.258   6.514
57065SOL     OW73091  12.937   7.690  13.355
57065SOL    HW173092  13.016   7.744  13.347
57065SOL    HW273093  12.867   7.744  13.317
57066SOL     OW73094   4.921   6.877   2.273
57066SOL    HW173095   4.936   6.919   2.358
57066SOL    HW273096   4.968   6.933   2.211
57067SOL     OW73097   7.690   9.048   2.467
57067SOL    HW173098   7.666   9.077   2.555
57067SOL    HW273099   7.724   8.959   2.480
57068SOL     OW73100  12.202   6.843   0.717
57068SOL    HW173101  12.277   6.844   0.657
57068SOL    HW273102  12.126   6.830   0.660
57069SOL     OW73103  11.231   8.051   4.712
57069SOL    HW173104  11.265   8.132   4.752
57069SOL    HW273105  11.222   8.073   4.619
57070SOL     OW73106  11.821  13.120   0.275
57070SOL    HW173107  11.727  13.113   0.288
57070SOL    HW273108  11.837  13.213   0.258
57071SOL     OW73109  11.777   8.327   5.696
57071SOL    HW173110  11.818   8.275   5.627
57071SOL    HW273111  11.738   8.262   5.755
57072SOL     OW73112   9.503   9.548   4.736
57072SOL    HW173113   9.490   9.595   4.818
57072SOL    HW273114   9.529   9.616   4.674
57073SOL     OW73115  12.304   0.024  10.348
57073SOL    HW173116  12.232   0.021  10.285
57073SOL    HW273117  12.328   0.116  10.353
57074SOL     OW73118  14.182  11.255   7.113
57074SOL    HW173119  14.254  11.318   7.112
57074SOL    HW273120  14.223  11.171   7.094
57075SOL     OW73121  11.947   1.747   9.647
57075SOL    HW173122  11.924   1.837   9.673
57075SOL    HW273123  11.863   1.701   9.644
57076SOL     OW73124   0.735   4.740   7.716
57076SOL    HW173125   0.802   4.672   7.716
57076SOL    HW273126   0.728   4.766   7.624
57077SOL     OW73127   7.874   8.159   0.125
57077SOL    HW173128   7.873   8.063   0.120
57077SOL    HW273129   7.949   8.179   0.181
57078SOL     OW73130   2.238  11.316   1.121
57078SOL    HW173131   2.292  11.389   1.150
57078SOL    HW273132   2.164  11.314   1.183
57079SOL     OW73133   2.380  10.419   9.567
57079SOL    HW173134   2.466  10.383   9.548
57079SOL    HW273135   2.376  10.500   9.516
57080SOL     OW73136  12.612  12.794   6.472
57080SOL    HW173137  12.624  12.816   6.380
57080SOL    HW273138  12.520  12.773   6.481
57081SOL     OW73139   2.082   4.219   1.932
57081SOL    HW173140   2.147   4.287   1.952
57081SOL    HW273141   2.117   4.140   1.972
57082SOL     OW73142   0.427  10.435   1.676
57082SOL    HW173143   0.376  10.369   1.722
57082SOL    HW273144   0.518  10.408   1.689
57083SOL     OW73145   5.534  10.634  14.271
57083SOL    HW173146   5.597  10.700  14.244
57083SOL    HW273147   5.477  10.680  14.333
57084SOL     OW73148   5.416  13.712   8.553
57084SOL    HW173149   5.436  13.695   8.461
57084SOL    HW273150   5.432  13.806   8.563
57085SOL     OW73151  12.056   8.994   0.420
57085SOL    HW173152  12.120   9.000   0.349
57085SOL    HW273153  12.038   8.900   0.426
57086SOL     OW73154   3.293  13.310   4.547
57086SOL    HW173155   3.367  13.254   4.568
57086SOL    HW273156   3.292  13.376   4.616
57087SOL     OW73157   0.735   6.143   6.793
57087SOL    HW173158   0.665   6.095   6.837
57087SOL    HW273159   0.806   6.147   6.858
57088SOL     OW73160  11.910   6.073   2.118
57088SOL    HW173161  12.004   6.052   2.120
57088SOL    HW273162  11.883   6.068   2.210
57089SOL     OW73163   2.173   6.960  10.938
57089SOL    HW173164   2.135   6.907  10.868
57089SOL    HW273165   2.268   6.951  10.926
57090SOL     OW73166  12.951   5.922   6.225
57090SOL    HW173167  13.003   5.889   6.152
57090SOL    HW273168  12.864   5.884   6.212
57091SOL     OW73169   6.161  10.071  11.256
57091SOL    HW173170   6.169  10.163  11.282
57091SOL    HW273171   6.081  10.041  11.299
57092SOL     OW73172   4.102   5.349   8.067
57092SOL    HW173173   4.151   5.266   8.071
57092SOL    HW273174   4.113   5.387   8.155
57093SOL     OW73175   6.391   0.215   2.197
57093SOL    HW173176   6.366   0.176   2.281
57093SOL    HW273177   6.411   0.307   2.219
57094SOL     OW73178   7.504  10.324  12.726
57094SOL    HW173179   7.525  10.243  12.771
57094SOL    HW273180   7.421  10.352  12.764
57095SOL     OW73181   5.133   0.198   0.941
57095SOL    HW173182   5.133   0.147   1.022
57095SOL    HW273183   5.040   0.203   0.916
57096SOL     OW73184   4.690   8.301   3.961
57096SOL    HW173185   4.771   8.339   3.926
57096SOL    HW273186   4.642   8.377   3.996
57097SOL     OW73187   3.518  13.330   0.190
57097SOL    HW173188   3.517  13.351   0.096
57097SOL    HW273189   3.491  13.412   0.232
57098SOL     OW73190   3.223   9.945   0.805
57098SOL    HW173191   3.236   9.872   0.866
57098SOL    HW273192   3.163  10.004   0.851
57099SOL     OW73193   3.092  13.095   0.874
57099SOL    HW173194   3.097  13.077   0.968
57099SOL    HW273195   3.172  13.056   0.839
57100SOL     OW73196   4.140  12.195   2.958
57100SOL    HW173197   4.211  12.248   2.921
57100SOL    HW273198   4.174  12.166   3.043
57101SOL     OW73199   6.141   0.149   4.125
57101SOL    HW173200   6.196   0.200   4.185
57101SOL    HW273201   6.193   0.141   4.045
57102SOL     OW73202   3.250  12.209  11.117
57102SOL    HW173203   3.201  12.137  11.155
57102SOL    HW273204   3.246  12.278  11.183
57103SOL     OW73205  10.072   2.199   8.380
57103SOL    HW173206   9.989   2.160   8.409
57103SOL    HW273207  10.098   2.255   8.453
57104SOL     OW73208   2.210   4.572   4.227
57104SOL    HW173209   2.209   4.607   4.316
57104SOL    HW273210   2.128   4.523   4.219
57105SOL     OW73211   1.854  11.618   7.431
57105SOL    HW173212   1.811  11.694   7.471
57105SOL    HW273213   1.851  11.635   7.337
57106SOL     OW73214   3.726   5.667   1.767
57106SOL    HW173215   3.727   5.763   1.766
57106SOL    HW273216   3.741   5.643   1.675
57107SOL     OW73217   5.437   4.321   8.568
57107SOL    HW173218   5.385   4.263   8.511
57107SOL    HW273219   5.372   4.376   8.611
57108SOL     OW73220   9.758   0.394  12.870
57108SOL    HW173221   9.814   0.424  12.942
57108SOL    HW273222   9.710   0.472  12.842
57109SOL     OW73223   9.786   0.784  13.829
57109SOL    HW173224   9.851   0.743  13.771
57109SOL    HW273225   9.713   0.806  13.771
57110SOL     OW73226  13.025  10.784  10.025
57110SOL    HW173227  12.984  10.742  10.101
57110SOL    HW273228  13.049  10.871  10.057
57111SOL     OW73229  12.606   7.295   3.512
57111SOL    HW173230  12.634   7.216   3.466
57111SOL    HW273231  12.617   7.274   3.604
57112SOL     OW73232   5.739  11.751   1.070
57112SOL    HW173233   5.723  11.658   1.085
57112SOL    HW273234   5.709  11.766   0.980
57113SOL     OW73235  11.863   3.851   2.606
57113SOL    HW173236  11.815   3.898   2.538
57113SOL    HW273237  11.832   3.761   2.600
57114SOL     OW73238  13.983   2.170   2.999
57114SOL    HW173239  13.952   2.245   3.050
57114SOL    HW273240  13.952   2.094   3.048
57115SOL     OW73241  11.699   7.934   7.629
57115SOL    HW173242  11.778   7.974   7.666
57115SOL    HW273243  11.721   7.917   7.538
57116SOL     OW73244  14.584  12.709   3.173
57116SOL    HW173245  14.632  12.789   3.153
57116SOL    HW273246  14.503  12.738   3.215
57117SOL     OW73247   9.074   4.729   9.224
57117SOL    HW173248   9.081   4.635   9.208
57117SOL    HW273249   9.015   4.761   9.156
57118SOL     OW73250   2.436   4.619   1.975
57118SOL    HW173251   2.531   4.611   1.965
57118SOL    HW273252   2.419   4.713   1.967
57119SOL     OW73253  10.875   1.549  13.763
57119SOL    HW173254  10.960   1.550  13.719
57119SOL    HW273255  10.817   1.596  13.704
57120SOL     OW73256   7.320   0.653   4.046
57120SOL    HW173257   7.408   0.685   4.024
57120SOL    HW273258   7.287   0.617   3.964
57121SOL     OW73259  11.185  11.122   0.109
57121SOL    HW173260  11.273  11.138   0.145
57121SOL    HW273261  11.193  11.039   0.063
57122SOL     OW73262  12.732  14.011   1.628
57122SOL    HW173263  12.649  14.056   1.618
57122SOL    HW273264  12.715  13.943   1.694
57123SOL     OW73265   0.122  11.460   5.650
57123SOL    HW173266   0.198  11.516   5.660
57123SOL    HW273267   0.047  11.518   5.662
57124SOL     OW73268   0.859  13.671  12.921
57124SOL    HW173269   0.851  13.757  12.962
57124SOL    HW273270   0.953  13.655  12.916
57125SOL     OW73271   0.816  14.497  12.396
57125SOL    HW173272   0.810  14.574  12.341
57125SOL    HW273273   0.810  14.531  12.486
57126SOL     OW73274  10.965  14.018   8.555
57126SOL    HW173275  10.977  14.073   8.478
57126SOL    HW273276  11.009  13.935   8.532
57127SOL     OW73277   6.588   2.569   8.534
57127SOL    HW173278   6.559   2.479   8.545
57127SOL    HW273279   6.667   2.562   8.480
57128SOL     OW73280  13.248  14.039  12.088
57128SOL    HW173281  13.272  14.008  12.001
57128SOL    HW273282  13.179  13.979  12.116
57129SOL     OW73283  14.291   4.813   0.022
57129SOL    HW173284  14.282   4.725  14.867
57129SOL    HW273285  14.202   4.847   0.025
57130SOL     OW73286   7.533   3.185   3.665
57130SOL    HW173287   7.493   3.105   3.629
57130SOL    HW273288   7.467   3.253   3.651
57131SOL     OW73289   4.988   9.548   1.539
57131SOL    HW173290   4.967   9.506   1.622
57131SOL    HW273291   5.008   9.639   1.563
57132SOL     OW73292  14.345  10.069  12.832
57132SOL    HW173293  14.282  10.141  12.838
57132SOL    HW273294  14.380  10.075  12.743
57133SOL     OW73295   4.099  11.164   4.490
57133SOL    HW173296   4.175  11.186   4.437
57133SOL    HW273297   4.025  11.199   4.442
57134SOL     OW73298   3.258   2.653   9.741
57134SOL    HW173299   3.332   2.620   9.690
57134SOL    HW273300   3.297   2.683   9.823
57135SOL     OW73301   5.488  14.081   2.100
57135SOL    HW173302   5.480  14.158   2.156
57135SOL    HW273303   5.576  14.047   2.118
57136SOL     OW73304   7.475   0.651  12.956
57136SOL    HW173305   7.550   0.609  12.915
57136SOL    HW273306   7.411   0.659  12.886
57137SOL     OW73307  13.551  13.891   4.175
57137SOL    HW173308  13.505  13.849   4.247
57137SOL    HW273309  13.642  13.862   4.184
57138SOL     OW73310   7.154   0.090  10.505
57138SOL    HW173311   7.155   0.125  10.594
57138SOL    HW273312   7.115   0.003  10.513
57139SOL     OW73313   8.218   1.194  13.930
57139SOL    HW173314   8.232   1.229  13.842
57139SOL    HW273315   8.147   1.247  13.966
57140SOL     OW73316   7.184   7.411   1.121
57140SOL    HW173317   7.180   7.401   1.026
57140SOL    HW273318   7.119   7.479   1.141
57141SOL     OW73319   4.995   5.506   8.013
57141SOL    HW173320   5.087   5.484   7.999
57141SOL    HW273321   4.996   5.566   8.088
57142SOL     OW73322  11.467  10.040   6.389
57142SOL    HW173323  11.478   9.974   6.457
57142SOL    HW273324  11.452  10.121   6.437
57143SOL     OW73325  13.412   8.435   2.493
57143SOL    HW173326  13.445   8.346   2.482
57143SOL    HW273327  13.319   8.429   2.468
57144SOL     OW73328  13.105  13.363  10.388
57144SOL    HW173329  13.094  13.321  10.303
57144SOL    HW273330  13.085  13.294  10.451
57145SOL     OW73331   9.283   6.845   5.027
57145SOL    HW173332   9.195   6.827   5.060
57145SOL    HW273333   9.327   6.761   5.031
57146SOL     OW73334   2.409  10.651   6.467
57146SOL    HW173335   2.466  10.596   6.521
57146SOL    HW273336   2.323  10.610   6.473
57147SOL     OW73337   8.270   5.568   7.107
57147SOL    HW173338   8.220   5.531   7.035
57147SOL    HW273339   8.359   5.534   7.095
57148SOL     OW73340  11.432   1.195   5.736
57148SOL    HW173341  11.478   1.119   5.770
57148SOL    HW273342  11.346   1.193   5.778
57149SOL     OW73343   4.507   7.683   2.633
57149SOL    HW173344   4.519   7.634   2.552
57149SOL    HW273345   4.554   7.633   2.699
57150SOL     OW73346   9.441   5.848   4.381
57150SOL    HW173347   9.382   5.827   4.308
57150SOL    HW273348   9.489   5.766   4.397
57151SOL     OW73349   2.374   4.141   8.709
57151SOL    HW173350   2.367   4.233   8.736
57151SOL    HW273351   2.302   4.130   8.646
57152SOL     OW73352   8.848  12.459  13.229
57152SOL    HW173353   8.925  12.443  13.174
57152SOL    HW273354   8.845  12.384  13.289
57153SOL     OW73355   0.961   0.083  14.865
57153SOL    HW173356   1.024   0.104  14.796
57153SOL    HW273357   0.996   0.125   0.064
57154SOL     OW73358   9.660   6.411   9.431
57154SOL    HW173359   9.637   6.445   9.344
57154SOL    HW273360   9.682   6.489   9.482
57155SOL     OW73361   8.745  13.205   8.476
57155SOL    HW173362   8.761  13.156   8.556
57155SOL    HW273363   8.666  13.166   8.439
57156SOL     OW73364   8.573   0.177  12.559
57156SOL    HW173365   8.539   0.211  12.476
57156SOL    HW273366   8.614   0.094  12.536
57157SOL     OW73367  12.608   2.578  14.837
57157SOL    HW173368  12.594   2.569   0.051
57157SOL    HW273369  12.673   2.648  14.829
57158SOL     OW73370   1.955   6.515   3.015
57158SOL    HW173371   1.931   6.517   2.922
57158SOL    HW273372   2.020   6.445   3.021
57159SOL     OW73373  14.467   9.739   8.343
57159SOL    HW173374  14.518   9.811   8.381
57159SOL    HW273375  14.418   9.703   8.417
57160SOL     OW73376  12.675  14.713   5.994
57160SOL    HW173377  12.678  14.617   6.002
57160SOL    HW273378  12.764  14.741   6.014
57161SOL     OW73379   5.977  13.931   1.353
57161SOL    HW173380   6.053  13.958   1.302
57161SOL    HW273381   6.011  13.867   1.415
57162SOL     OW73382   7.610   6.112   1.143
57162SOL    HW173383   7.689   6.076   1.102
57162SOL    HW273384   7.588   6.188   1.089
57163SOL     OW73385  12.660   7.781   3.582
57163SOL    HW173386  12.696   7.862   3.618
57163SOL    HW273387  12.649   7.800   3.488
57164SOL     OW73388  12.370   5.714   8.822
57164SOL    HW173389  12.316   5.762   8.885
57164SOL    HW273390  12.458   5.716   8.860
57165SOL     OW73391   4.336   1.532  10.114
57165SOL    HW173392   4.343   1.627  10.110
57165SOL    HW273393   4.411   1.505  10.167
57166SOL     OW73394   7.110  14.089  10.095
57166SOL    HW173395   7.154  14.011  10.128
57166SOL    HW273396   7.116  14.153  10.167
57167SOL     OW73397  13.182  13.031  11.678
57167SOL    HW173398  13.249  13.100  11.682
57167SOL    HW273399  13.209  12.975  11.606
57168SOL     OW73400   7.133  10.557   2.147
57168SOL    HW173401   7.107  10.649   2.137
57168SOL    HW273402   7.162  10.550   2.238
57169SOL     OW73403   4.016  13.763   7.741
57169SOL    HW173404   3.941  13.775   7.799
57169SOL    HW273405   3.982  13.715   7.666
57170SOL     OW73406   5.651   7.084  13.153
57170SOL    HW173407   5.622   7.007  13.201
57170SOL    HW273408   5.644   7.059  13.061
57171SOL     OW73409  12.929   8.458   8.124
57171SOL    HW173410  12.923   8.516   8.049
57171SOL    HW273411  13.005   8.403   8.106
57172SOL     OW73412   1.016   6.281  12.455
57172SOL    HW173413   0.965   6.206  12.484
57172SOL    HW273414   0.957   6.356  12.465
57173SOL     OW73415   8.239   8.392   0.433
57173SOL    HW173416   8.281   8.341   0.363
57173SOL    HW273417   8.151   8.409   0.400
57174SOL     OW73418   7.262   9.243   0.982
57174SOL    HW173419   7.178   9.259   0.939
57174SOL    HW273420   7.283   9.152   0.960
57175SOL     OW73421  10.246  13.929   1.444
57175SOL    HW173422  10.153  13.917   1.463
57175SOL    HW273423  10.274  13.999   1.504
57176SOL     OW73424   9.709   8.925  10.635
57176SOL    HW173425   9.716   8.984  10.710
57176SOL    HW273426   9.657   8.972  10.571
57177SOL     OW73427   5.025  13.096  14.248
57177SOL    HW173428   5.088  13.024  14.248
57177SOL    HW273429   5.069  13.166  14.296
57178SOL     OW73430   6.529   1.076   6.962
57178SOL    HW173431   6.518   1.014   6.890
57178SOL    HW273432   6.544   1.021   7.039
57179SOL     OW73433   9.238   3.396  12.578
57179SOL    HW173434   9.144   3.384  12.566
57179SOL    HW273435   9.255   3.485  12.546
57180SOL     OW73436   7.196   0.909  14.770
57180SOL    HW173437   7.133   0.838  14.770
57180SOL    HW273438   7.223   0.919  14.861
57181SOL     OW73439   7.268  12.895   8.386
57181SOL    HW173440   7.303  12.828   8.328
57181SOL    HW273441   7.345  12.926   8.435
57182SOL     OW73442   5.854  12.135   6.659
57182SOL    HW173443   5.896  12.127   6.574
57182SOL    HW273444   5.890  12.062   6.711
57183SOL     OW73445  10.020  13.463   1.324
57183SOL    HW173446  10.011  13.391   1.262
57183SOL    HW273447   9.952  13.526   1.298
57184SOL     OW73448   1.848   5.459   6.664
57184SOL    HW173449   1.830   5.542   6.619
57184SOL    HW273450   1.784   5.456   6.735
57185SOL     OW73451   0.803  10.159   5.864
57185SOL    HW173452   0.842  10.205   5.789
57185SOL    HW273453   0.843  10.201   5.941
57186SOL     OW73454  12.418  11.203   9.079
57186SOL    HW173455  12.361  11.203   9.003
57186SOL    HW273456  12.419  11.294   9.108
57187SOL     OW73457  13.630   5.871   8.248
57187SOL    HW173458  13.677   5.916   8.178
57187SOL    HW273459  13.693   5.867   8.320
57188SOL     OW73460  10.155  12.191  14.845
57188SOL    HW173461  10.204  12.239   0.032
57188SOL    HW273462  10.104  12.258  14.800
57189SOL     OW73463   9.054   3.509  12.968
57189SOL    HW173464   9.118   3.574  12.941
57189SOL    HW273465   9.080   3.486  13.058
57190SOL     OW73466   2.493   3.030  12.396
57190SOL    HW173467   2.522   3.099  12.337
57190SOL    HW273468   2.458   3.076  12.472
57191SOL     OW73469   1.262  14.211   3.847
57191SOL    HW173470   1.167  14.213   3.846
57191SOL    HW273471   1.287  14.194   3.756
57192SOL     OW73472   4.488   7.085  14.301
57192SOL    HW173473   4.415   7.124  14.253
57192SOL    HW273474   4.448   7.015  14.352
57193SOL     OW73475   2.060   7.226   3.863
57193SOL    HW173476   2.036   7.174   3.939
57193SOL    HW273477   2.000   7.198   3.794
57194SOL     OW73478  10.796  13.884   3.402
57194SOL    HW173479  10.797  13.980   3.402
57194SOL    HW273480  10.844  13.860   3.481
57195SOL     OW73481   4.352   6.138  12.930
57195SOL    HW173482   4.365   6.203  12.999
57195SOL    HW273483   4.420   6.157  12.866
57196SOL     OW73484   6.414   5.435   4.932
57196SOL    HW173485   6.330   5.453   4.973
57196SOL    HW273486   6.436   5.515   4.884
57197SOL     OW73487  11.326   5.000   7.729
57197SOL    HW173488  11.300   5.076   7.677
57197SOL    HW273489  11.353   4.935   7.663
57198SOL     OW73490  13.666  12.398  11.014
57198SOL    HW173491  13.709  12.468  10.965
57198SOL    HW273492  13.572  12.417  11.006
57199SOL     OW73493   9.608   0.546  10.439
57199SOL    HW173494   9.582   0.518  10.527
57199SOL    HW273495   9.595   0.640  10.439
57200SOL     OW73496  11.009  12.584  14.514
57200SOL    HW173497  11.036  12.609  14.426
57200SOL    HW273498  10.932  12.638  14.532
57201SOL     OW73499   4.676   8.443   0.403
57201SOL    HW173500   4.607   8.377   0.410
57201SOL    HW273501   4.629   8.526   0.401
57202SOL     OW73502   9.627   4.048   6.520
57202SOL    HW173503   9.637   4.141   6.542
57202SOL    HW273504   9.696   4.031   6.456
57203SOL     OW73505   7.793   6.768  10.232
57203SOL    HW173506   7.765   6.849  10.190
57203SOL    HW273507   7.885   6.758  10.209
57204SOL     OW73508  13.335  10.738   9.902
57204SOL    HW173509  13.258  10.687   9.876
57204SOL    HW273510  13.357  10.789   9.824
57205SOL     OW73511  14.710   0.188  13.868
57205SOL    HW173512  14.627   0.232  13.851
57205SOL    HW273513  14.759   0.249  13.924
57206SOL     OW73514   3.628  12.616   0.818
57206SOL    HW173515   3.678  12.618   0.736
57206SOL    HW273516   3.692  12.590   0.884
57207SOL     OW73517   0.822   5.740  13.088
57207SOL    HW173518   0.850   5.818  13.042
57207SOL    HW273519   0.734   5.761  13.121
57208SOL     OW73520  11.141   1.175   4.215
57208SOL    HW173521  11.059   1.222   4.206
57208SOL    HW273522  11.207   1.243   4.229
57209SOL     OW73523   6.721   2.595   0.637
57209SOL    HW173524   6.717   2.664   0.704
57209SOL    HW273525   6.787   2.626   0.575
57210SOL     OW73526   6.711   9.068   7.888
57210SOL    HW173527   6.679   9.141   7.836
57210SOL    HW273528   6.742   9.108   7.969
57211SOL     OW73529   5.079  12.132   9.723
57211SOL    HW173530   5.014  12.086   9.776
57211SOL    HW273531   5.067  12.224   9.747
57212SOL     OW73532   8.131  10.337   9.464
57212SOL    HW173533   8.074  10.305   9.534
57212SOL    HW273534   8.140  10.430   9.480
57213SOL     OW73535   0.284  13.887   6.418
57213SOL    HW173536   0.218  13.957   6.417
57213SOL    HW273537   0.266  13.840   6.500
57214SOL     OW73538  14.188   2.995  14.639
57214SOL    HW173539  14.130   3.069  14.651
57214SOL    HW273540  14.199   2.987  14.545
57215SOL     OW73541   5.877  13.903   4.757
57215SOL    HW173542   5.806  13.852   4.718
57215SOL    HW273543   5.931  13.929   4.682
57216SOL     OW73544   7.487  10.399  10.836
57216SOL    HW173545   7.544  10.324  10.853
57216SOL    HW273546   7.534  10.474  10.873
57217SOL     OW73547   8.321  13.658   9.679
57217SOL    HW173548   8.363  13.612   9.606
57217SOL    HW273549   8.258  13.594   9.713
57218SOL     OW73550   6.382   3.947   9.570
57218SOL    HW173551   6.322   3.878   9.598
57218SOL    HW273552   6.467   3.903   9.562
57219SOL     OW73553   8.596   7.185   7.769
57219SOL    HW173554   8.510   7.225   7.760
57219SOL    HW273555   8.637   7.196   7.683
57220SOL     OW73556   0.800   5.454  13.332
57220SOL    HW173557   0.809   5.360  13.349
57220SOL    HW273558   0.883   5.491  13.363
57221SOL     OW73559   1.329   0.820  12.127
57221SOL    HW173560   1.412   0.790  12.090
57221SOL    HW273561   1.262   0.768  12.082
57222SOL     OW73562   0.455   6.962   9.539
57222SOL    HW173563   0.514   6.977   9.612
57222SOL    HW273564   0.439   7.049   9.502
57223SOL     OW73565   9.268   1.436  13.201
57223SOL    HW173566   9.206   1.478  13.260
57223SOL    HW273567   9.303   1.363  13.252
57224SOL     OW73568  12.082   1.947   3.222
57224SOL    HW173569  12.053   1.984   3.139
57224SOL    HW273570  12.176   1.936   3.213
57225SOL     OW73571   3.792  13.288   5.312
57225SOL    HW173572   3.720  13.227   5.297
57225SOL    HW273573   3.752  13.375   5.312
57226SOL     OW73574   8.366   4.968   2.960
57226SOL    HW173575   8.456   4.978   2.929
57226SOL    HW273576   8.312   4.974   2.881
57227SOL     OW73577   2.244   8.351   8.209
57227SOL    HW173578   2.189   8.380   8.281
57227SOL    HW273579   2.183   8.321   8.142
57228SOL     OW73580   4.546   3.478   8.147
57228SOL    HW173581   4.496   3.560   8.149
57228SOL    HW273582   4.532   3.439   8.233
57229SOL     OW73583   3.831  14.732  14.459
57229SOL    HW173584   3.792  14.805  14.507
57229SOL    HW273585   3.924  14.754  14.454
57230SOL     OW73586  11.992   9.255  12.371
57230SOL    HW173587  11.975   9.179  12.428
57230SOL    HW273588  11.905   9.284  12.344
57231SOL     OW73589  12.133  11.180  12.699
57231SOL    HW173590  12.207  11.137  12.741
57231SOL    HW273591  12.097  11.115  12.639
57232SOL     OW73592   4.257   7.399  14.755
57232SOL    HW173593   4.307   7.466  14.801
57232SOL    HW273594   4.166   7.416  14.779
57233SOL     OW73595   8.200   6.998  11.875
57233SOL    HW173596   8.118   7.037  11.845
57233SOL    HW273597   8.189   6.904  11.859
57234SOL     OW73598   8.178   9.324   1.022
57234SOL    HW173599   8.193   9.234   0.996
57234SOL    HW273600   8.117   9.358   0.958
57235SOL     OW73601   8.978  12.648   7.784
57235SOL    HW173602   8.937  12.583   7.727
57235SOL    HW273603   8.943  12.732   7.753
57236SOL     OW73604   8.327   4.779   3.174
57236SOL    HW173605   8.358   4.864   3.206
57236SOL    HW273606   8.344   4.782   3.080
57237SOL     OW73607   7.397   2.769   8.920
57237SOL    HW173608   7.429   2.726   8.841
57237SOL    HW273609   7.475   2.812   8.957
57238SOL     OW73610  12.564  11.502   3.597
57238SOL    HW173611  12.659  11.490   3.598
57238SOL    HW273612  12.548  11.574   3.657
57239SOL     OW73613  12.089   5.209   7.512
57239SOL    HW173614  11.997   5.192   7.490
57239SOL    HW273615  12.137   5.192   7.430
57240SOL     OW73616  13.932   2.952  11.814
57240SOL    HW173617  13.972   3.007  11.882
57240SOL    HW273618  13.957   2.863  11.838
57241SOL     OW73619   7.614   5.343  14.034
57241SOL    HW173620   7.659   5.419  14.070
57241SOL    HW273621   7.644   5.338  13.943
57242SOL     OW73622   3.675   7.476   5.356
57242SOL    HW173623   3.745   7.496   5.294
57242SOL    HW273624   3.715   7.487   5.442
57243SOL     OW73625   4.050   5.976   6.935
57243SOL    HW173626   4.026   5.911   6.869
57243SOL    HW273627   4.000   5.951   7.013
57244SOL     OW73628  13.551  13.119  10.004
57244SOL    HW173629  13.546  13.106   9.909
57244SOL    HW273630  13.529  13.034  10.042
57245SOL     OW73631   5.525  12.085   5.933
57245SOL    HW173632   5.481  12.009   5.893
57245SOL    HW273633   5.541  12.144   5.860
57246SOL     OW73634   5.209   3.928   4.056
57246SOL    HW173635   5.139   3.930   3.991
57246SOL    HW273636   5.289   3.939   4.005
57247SOL     OW73637   6.520   4.226   9.898
57247SOL    HW173638   6.499   4.238   9.805
57247SOL    HW273639   6.517   4.314   9.935
57248SOL     OW73640   0.778  10.678   8.456
57248SOL    HW173641   0.816  10.766   8.450
57248SOL    HW273642   0.807  10.635   8.375
57249SOL     OW73643   0.562   9.797   6.306
57249SOL    HW173644   0.646   9.753   6.317
57249SOL    HW273645   0.577   9.886   6.337
57250SOL     OW73646   3.053   0.643   3.703
57250SOL    HW173647   2.980   0.617   3.645
57250SOL    HW273648   3.099   0.561   3.720
57251SOL     OW73649   4.343   8.442   2.588
57251SOL    HW173650   4.326   8.494   2.666
57251SOL    HW273651   4.293   8.362   2.601
57252SOL     OW73652   6.349   9.658  10.362
57252SOL    HW173653   6.282   9.699  10.307
57252SOL    HW273654   6.408   9.615  10.299
57253SOL     OW73655   2.551  14.163   9.683
57253SOL    HW173656   2.457  14.164   9.664
57253SOL    HW273657   2.588  14.102   9.620
57254SOL     OW73658  12.085   6.790  14.144
57254SOL    HW173659  12.051   6.704  14.118
57254SOL    HW273660  12.067   6.847  14.068
57255SOL     OW73661   3.226  12.089   4.499
57255SOL    HW173662   3.137  12.061   4.516
57255SOL    HW273663   3.221  12.185   4.493
57256SOL     OW73664   2.004  10.862   7.244
57256SOL    HW173665   2.068  10.801   7.206
57256SOL    HW273666   1.953  10.807   7.304
57257SOL     OW73667   4.955  14.116  12.215
57257SOL    HW173668   4.880  14.145  12.267
57257SOL    HW273669   4.916  14.065  12.144
57258SOL     OW73670   6.553   3.614   9.055
57258SOL    HW173671   6.523   3.693   9.101
57258SOL    HW273672   6.642   3.601   9.086
57259SOL     OW73673  11.917  14.083  12.983
57259SOL    HW173674  11.869  14.083  13.066
57259SOL    HW273675  11.850  14.094  12.916
57260SOL     OW73676   1.048   0.153   6.570
57260SOL    HW173677   0.963   0.141   6.613
57260SOL    HW273678   1.034   0.122   6.480
57261SOL     OW73679   3.549   4.948  12.958
57261SOL    HW173680   3.558   4.868  12.906
57261SOL    HW273681   3.469   4.935  13.010
57262SOL     OW73682   9.299   7.232   7.034
57262SOL    HW173683   9.228   7.203   6.976
57262SOL    HW273684   9.271   7.205   7.121
57263SOL     OW73685   8.434   2.047   0.154
57263SOL    HW173686   8.507   2.035   0.215
57263SOL    HW273687   8.476   2.079   0.074
57264SOL     OW73688   1.073  13.286   0.647
57264SOL    HW173689   1.018  13.335   0.707
57264SOL    HW273690   1.100  13.209   0.696
57265SOL     OW73691   1.799  12.563   2.901
57265SOL    HW173692   1.861  12.616   2.952
57265SOL    HW273693   1.742  12.523   2.966
57266SOL     OW73694   9.517   7.354   6.968
57266SOL    HW173695   9.437   7.302   6.979
57266SOL    HW273696   9.487   7.436   6.929
57267SOL     OW73697   8.504  13.314   1.735
57267SOL    HW173698   8.448  13.355   1.801
57267SOL    HW273699   8.587  13.362   1.740
57268SOL     OW73700   3.521  10.827  10.213
57268SOL    HW173701   3.538  10.920  10.225
57268SOL    HW273702   3.607  10.786  10.217
57269SOL     OW73703   7.669   4.616  14.600
57269SOL    HW173704   7.726   4.614  14.523
57269SOL    HW273705   7.639   4.706  14.606
57270SOL     OW73706   3.340   2.349  12.968
57270SOL    HW173707   3.276   2.362  12.897
57270SOL    HW273708   3.299   2.287  13.027
57271SOL     OW73709   9.098   1.120   1.368
57271SOL    HW173710   9.175   1.155   1.412
57271SOL    HW273711   9.050   1.197   1.339
57272SOL     OW73712   7.375  10.024   0.637
57272SOL    HW173713   7.341   9.942   0.671
57272SOL    HW273714   7.298  10.075   0.612
57273SOL     OW73715  13.163   4.964  14.590
57273SOL    HW173716  13.175   4.996  14.680
57273SOL    HW273717  13.071   4.979  14.572
57274SOL     OW73718   3.597  13.105   4.659
57274SOL    HW173719   3.667  13.123   4.596
57274SOL    HW273720   3.610  13.171   4.728
57275SOL     OW73721   0.171   2.385  10.473
57275SOL    HW173722   0.166   2.305  10.525
57275SOL    HW273723   0.080   2.401  10.446
57276SOL     OW73724   3.363  11.032   6.761
57276SOL    HW173725   3.410  10.949   6.752
57276SOL    HW273726   3.423  11.088   6.811
57277SOL     OW73727  13.517   6.075  12.967
57277SOL    HW173728  13.504   5.981  12.952
57277SOL    HW273729  13.514   6.114  12.880
57278SOL     OW73730   5.112   9.718   0.106
57278SOL    HW173731   5.053   9.675   0.043
57278SOL    HW273732   5.103   9.667   0.186
57279SOL     OW73733   2.150   6.357   4.842
57279SOL    HW173734   2.105   6.374   4.924
57279SOL    HW273735   2.216   6.291   4.863
57280SOL     OW73736   5.282  13.707   5.033
57280SOL    HW173737   5.265  13.797   5.006
57280SOL    HW273738   5.359  13.714   5.091
57281SOL     OW73739   3.761   9.764  11.346
57281SOL    HW173740   3.827   9.698  11.368
57281SOL    HW273741   3.733   9.741  11.258
57282SOL     OW73742   5.922   2.649  11.032
57282SOL    HW173743   6.003   2.642  10.982
57282SOL    HW273744   5.861   2.694  10.974
57283SOL     OW73745  12.375   3.323  14.017
57283SOL    HW173746  12.380   3.380  14.094
57283SOL    HW273747  12.284   3.295  14.014
57284SOL     OW73748   5.169   2.150   9.084
57284SOL    HW173749   5.199   2.216   9.147
57284SOL    HW273750   5.232   2.157   9.012
57285SOL     OW73751   6.585  12.310   0.820
57285SOL    HW173752   6.575  12.405   0.813
57285SOL    HW273753   6.496  12.277   0.833
57286SOL     OW73754   4.505   7.013   1.936
57286SOL    HW173755   4.545   7.095   1.908
57286SOL    HW273756   4.495   6.962   1.855
57287SOL     OW73757   6.901   4.144   2.958
57287SOL    HW173758   6.925   4.231   2.926
57287SOL    HW273759   6.808   4.135   2.937
57288SOL     OW73760   3.807   2.788   3.874
57288SOL    HW173761   3.738   2.854   3.870
57288SOL    HW273762   3.791   2.742   3.956
57289SOL     OW73763   1.157   8.993   0.259
57289SOL    HW173764   1.180   9.044   0.337
57289SOL    HW273765   1.130   8.908   0.294
57290SOL     OW73766   3.906  13.238  11.729
57290SOL    HW173767   3.970  13.214  11.662
57290SOL    HW273768   3.905  13.164  11.789
57291SOL     OW73769  10.985   1.501   9.386
57291SOL    HW173770  11.007   1.591   9.362
57291SOL    HW273771  10.944   1.464   9.308
57292SOL     OW73772   1.709   9.395   0.082
57292SOL    HW173773   1.659   9.372   0.003
57292SOL    HW273774   1.799   9.373   0.060
57293SOL     OW73775   3.999   7.555   4.213
57293SOL    HW173776   4.086   7.577   4.180
57293SOL    HW273777   3.946   7.543   4.134
57294SOL     OW73778   5.085   4.068  12.308
57294SOL    HW173779   5.104   4.161  12.297
57294SOL    HW273780   4.991   4.066  12.328
57295SOL     OW73781   2.023   5.527  13.475
57295SOL    HW173782   1.994   5.598  13.419
57295SOL    HW273783   1.967   5.453  13.452
57296SOL     OW73784   4.914   1.848   7.265
57296SOL    HW173785   4.976   1.786   7.303
57296SOL    HW273786   4.960   1.932   7.266
57297SOL     OW73787   4.852  11.254   8.090
57297SOL    HW173788   4.931  11.234   8.141
57297SOL    HW273789   4.864  11.207   8.008
57298SOL     OW73790  13.185   2.736  13.498
57298SOL    HW173791  13.141   2.658  13.533
57298SOL    HW273792  13.273   2.732  13.535
57299SOL     OW73793  12.322   8.293   7.386
57299SOL    HW173794  12.378   8.231   7.433
57299SOL    HW273795  12.375   8.321   7.311
57300SOL     OW73796  14.739   0.481  14.858
57300SOL    HW173797  14.717   0.535  14.781
57300SOL    HW273798  14.703   0.394  14.837
57301SOL     OW73799   2.677   0.365  11.911
57301SOL    HW173800   2.707   0.407  11.830
57301SOL    HW273801   2.732   0.402  11.979
57302SOL     OW73802  12.613  11.718   4.561
57302SOL    HW173803  12.612  11.668   4.643
57302SOL    HW273804  12.563  11.664   4.500
57303SOL     OW73805   0.035   8.057  12.146
57303SOL    HW173806   0.045   7.992  12.215
57303SOL    HW273807  14.826   8.091  12.157
57304SOL     OW73808   7.859  10.641   2.178
57304SOL    HW173809   7.787  10.676   2.126
57304SOL    HW273810   7.837  10.665   2.268
57305SOL     OW73811  11.987  13.949   2.049
57305SOL    HW173812  11.981  13.885   1.978
57305SOL    HW273813  12.031  14.024   2.010
57306SOL     OW73814  14.524   2.478   8.495
57306SOL    HW173815  14.579   2.447   8.423
57306SOL    HW273816  14.585   2.493   8.568
57307SOL     OW73817  12.148  14.348   5.042
57307SOL    HW173818  12.146  14.295   4.962
57307SOL    HW273819  12.201  14.424   5.018
57308SOL     OW73820   5.124  14.390  10.041
57308SOL    HW173821   5.204  14.397  10.094
57308SOL    HW273822   5.067  14.459  10.074
57309SOL     OW73823   8.732  12.878   8.719
57309SOL    HW173824   8.806  12.824   8.691
57309SOL    HW273825   8.702  12.837   8.800
57310SOL     OW73826   2.182  10.422  14.344
57310SOL    HW173827   2.162  10.516  14.335
57310SOL    HW273828   2.134  10.395  14.422
57311SOL     OW73829   7.134   2.335   8.064
57311SOL    HW173830   7.119   2.425   8.036
57311SOL    HW273831   7.145   2.341   8.159
57312SOL     OW73832   5.292  10.424   4.355
57312SOL    HW173833   5.301  10.516   4.380
57312SOL    HW273834   5.375  10.401   4.314
57313SOL     OW73835  13.273  11.379   7.304
57313SOL    HW173836  13.315  11.367   7.218
57313SOL    HW273837  13.309  11.309   7.358
57314SOL     OW73838   4.620   8.441   2.512
57314SOL    HW173839   4.656   8.529   2.504
57314SOL    HW273840   4.528   8.455   2.536
57315SOL     OW73841   0.962   8.961   6.299
57315SOL    HW173842   0.958   9.051   6.268
57315SOL    HW273843   0.873   8.927   6.287
57316SOL     OW73844  14.203  11.411   3.927
57316SOL    HW173845  14.251  11.343   3.880
57316SOL    HW273846  14.158  11.365   3.997
57317SOL     OW73847   1.962   7.028  12.007
57317SOL    HW173848   1.970   7.017  11.913
57317SOL    HW273849   1.918   7.113  12.017
57318SOL     OW73850  12.906   8.533   3.726
57318SOL    HW173851  12.827   8.532   3.780
57318SOL    HW273852  12.875   8.523   3.636
57319SOL     OW73853   9.029  12.029  12.829
57319SOL    HW173854   8.936  12.005  12.826
57319SOL    HW273855   9.075  11.952  12.795
57320SOL     OW73856   8.477   3.008   8.263
57320SOL    HW173857   8.433   2.966   8.337
57320SOL    HW273858   8.550   3.055   8.303
57321SOL     OW73859   7.484   0.535  11.831
57321SOL    HW173860   7.471   0.562  11.740
57321SOL    HW273861   7.451   0.445  11.835
57322SOL     OW73862   4.617   7.536  12.940
57322SOL    HW173863   4.547   7.526  12.877
57322SOL    HW273864   4.576   7.521  13.025
57323SOL     OW73865   6.530  10.903  12.597
57323SOL    HW173866   6.488  10.982  12.563
57323SOL    HW273867   6.488  10.831  12.549
57324SOL     OW73868   4.015   3.694  13.724
57324SOL    HW173869   3.999   3.787  13.712
57324SOL    HW273870   4.098   3.677  13.679
57325SOL     OW73871   2.946   0.811   9.531
57325SOL    HW173872   3.025   0.865   9.536
57325SOL    HW273873   2.930   0.802   9.437
57326SOL     OW73874  12.426   9.412   8.305
57326SOL    HW173875  12.454   9.388   8.393
57326SOL    HW273876  12.499   9.461   8.268
57327SOL     OW73877  13.189  12.173   8.879
57327SOL    HW173878  13.122  12.238   8.859
57327SOL    HW273879  13.272  12.221   8.869
57328SOL     OW73880  12.797   2.754   1.267
57328SOL    HW173881  12.807   2.660   1.280
57328SOL    HW273882  12.752   2.762   1.184
57329SOL     OW73883   1.982   6.623   1.109
57329SOL    HW173884   1.943   6.548   1.065
57329SOL    HW273885   2.051   6.653   1.050
57330SOL     OW73886  10.231  14.618   9.532
57330SOL    HW173887  10.320  14.609   9.567
57330SOL    HW273888  10.174  14.590   9.603
57331SOL     OW73889  12.648   0.699  12.123
57331SOL    HW173890  12.677   0.787  12.143
57331SOL    HW273891  12.724   0.644  12.139
57332SOL     OW73892   3.898   5.248  10.548
57332SOL    HW173893   3.947   5.232  10.467
57332SOL    HW273894   3.809   5.266  10.518
57333SOL     OW73895   5.168  12.017   6.659
57333SOL    HW173896   5.226  11.954   6.701
57333SOL    HW273897   5.083  11.973   6.655
57334SOL     OW73898   4.286  13.059  12.293
57334SOL    HW173899   4.301  12.972  12.256
57334SOL    HW273900   4.373  13.095  12.306
57335SOL     OW73901  14.840  13.249   0.744
57335SOL    HW173902  14.854  13.295   0.827
57335SOL    HW273903  14.780  13.305   0.695
57336SOL     OW73904   1.636   0.509   5.915
57336SOL    HW173905   1.610   0.488   5.825
57336SOL    HW273906   1.557   0.545   5.955
57337SOL     OW73907   2.422   1.146   4.273
57337SOL    HW173908   2.411   1.088   4.198
57337SOL    HW273909   2.337   1.190   4.281
57338SOL     OW73910  10.484  11.212   6.760
57338SOL    HW173911  10.529  11.196   6.677
57338SOL    HW273912  10.438  11.295   6.747
57339SOL     OW73913  12.022  10.475   1.964
57339SOL    HW173914  12.016  10.571   1.962
57339SOL    HW273915  11.947  10.447   2.017
57340SOL     OW73916  14.348   5.191  12.171
57340SOL    HW173917  14.324   5.233  12.089
57340SOL    HW273918  14.438   5.219  12.188
57341SOL     OW73919   8.071   0.899   3.175
57341SOL    HW173920   8.121   0.975   3.146
57341SOL    HW273921   8.065   0.843   3.097
57342SOL     OW73922  10.534  10.191  13.182
57342SOL    HW173923  10.589  10.261  13.217
57342SOL    HW273924  10.477  10.234  13.118
57343SOL     OW73925   9.647   5.483  12.868
57343SOL    HW173926   9.676   5.437  12.789
57343SOL    HW273927   9.558   5.451  12.883
57344SOL     OW73928   1.619   3.589  14.270
57344SOL    HW173929   1.702   3.578  14.316
57344SOL    HW273930   1.554   3.597  14.340
57345SOL     OW73931   8.644   0.627   8.607
57345SOL    HW173932   8.618   0.581   8.686
57345SOL    HW273933   8.595   0.584   8.537
57346SOL     OW73934   0.561   5.003  11.980
57346SOL    HW173935   0.589   5.085  12.020
57346SOL    HW273936   0.627   4.984  11.914
57347SOL     OW73937  12.014   7.859   4.036
57347SOL    HW173938  12.043   7.862   4.127
57347SOL    HW273939  11.937   7.916   4.033
57348SOL     OW73940   7.325  11.880  14.590
57348SOL    HW173941   7.296  11.971  14.598
57348SOL    HW273942   7.275  11.845  14.517
57349SOL     OW73943   7.464  10.262   2.242
57349SOL    HW173944   7.491  10.282   2.331
57349SOL    HW273945   7.526  10.309   2.187
57350SOL     OW73946  11.395  10.158  13.103
57350SOL    HW173947  11.349  10.220  13.160
57350SOL    HW273948  11.328  10.124  13.044
57351SOL     OW73949  14.654   1.326  10.849
57351SOL    HW173950  14.602   1.250  10.874
57351SOL    HW273951  14.736   1.289  10.815
57352SOL     OW73952   9.445   3.779   3.257
57352SOL    HW173953   9.478   3.866   3.237
57352SOL    HW273954   9.350   3.786   3.248
57353SOL     OW73955   9.234  11.320  12.462
57353SOL    HW173956   9.157  11.267  12.445
57353SOL    HW273957   9.290  11.265  12.517
57354SOL     OW73958   5.383   5.951  12.085
57354SOL    HW173959   5.422   5.906  12.010
57354SOL    HW273960   5.295   5.974  12.056
57355SOL     OW73961   2.776   1.915   2.213
57355SOL    HW173962   2.694   1.954   2.184
57355SOL    HW273963   2.782   1.938   2.306
57356SOL     OW73964   7.766   4.374  12.458
57356SOL    HW173965   7.703   4.388  12.387
57356SOL    HW273966   7.712   4.350  12.534
57357SOL     OW73967   6.688  14.032   8.068
57357SOL    HW173968   6.698  14.050   8.162
57357SOL    HW273969   6.604  13.988   8.061
57358SOL     OW73970   6.498  11.607   6.040
57358SOL    HW173971   6.416  11.594   6.087
57358SOL    HW273972   6.474  11.598   5.948
57359SOL     OW73973  12.947   2.349  10.218
57359SOL    HW173974  12.962   2.433  10.174
57359SOL    HW273975  12.971   2.284  10.153
57360SOL     OW73976  10.523   9.799  14.636
57360SOL    HW173977  10.510   9.871  14.574
57360SOL    HW273978  10.469   9.822  14.711
57361SOL     OW73979  13.146  10.474   3.765
57361SOL    HW173980  13.194  10.555   3.745
57361SOL    HW273981  13.102  10.493   3.848
57362SOL     OW73982   3.918   8.929   1.538
57362SOL    HW173983   3.825   8.920   1.557
57362SOL    HW273984   3.952   8.984   1.608
57363SOL     OW73985   2.065   9.163  14.649
57363SOL    HW173986   2.129   9.093  14.662
57363SOL    HW273987   1.997   9.125  14.595
57364SOL     OW73988   1.348   8.541   2.491
57364SOL    HW173989   1.321   8.627   2.521
57364SOL    HW273990   1.433   8.526   2.534
57365SOL     OW73991   6.197  14.273   4.493
57365SOL    HW173992   6.193  14.240   4.583
57365SOL    HW273993   6.133  14.220   4.445
57366SOL     OW73994   1.501   7.125  11.734
57366SOL    HW173995   1.445   7.157  11.805
57366SOL    HW273996   1.576   7.184  11.734
57367SOL     OW73997   9.811   9.046   7.867
57367SOL    HW173998   9.880   9.113   7.876
57367SOL    HW273999   9.836   8.979   7.930
57368SOL     OW74000   4.565  10.461  11.822
57368SOL    HW174001   4.641  10.507  11.856
57368SOL    HW274002   4.591  10.369  11.820
57369SOL     OW74003  13.407  12.553   0.366
57369SOL    HW174004  13.386  12.466   0.331
57369SOL    HW274005  13.487  12.539   0.417
57370SOL     OW74006   2.435   7.919   3.130
57370SOL    HW174007   2.367   7.854   3.144
57370SOL    HW274008   2.486   7.918   3.211
57371SOL     OW74009  12.172   5.318   5.692
57371SOL    HW174010  12.097   5.316   5.752
57371SOL    HW274011  12.230   5.251   5.726
57372SOL     OW74012  10.878   9.222  10.357
57372SOL    HW174013  10.849   9.133  10.337
57372SOL    HW274014  10.912   9.217  10.446
57373SOL     OW74015  14.213  11.197   0.203
57373SOL    HW174016  14.188  11.114   0.164
57373SOL    HW274017  14.157  11.207   0.280
57374SOL     OW74018  12.454   5.948  11.647
57374SOL    HW174019  12.503   5.913  11.721
57374SOL    HW274020  12.372   5.898  11.645
57375SOL     OW74021   6.461   3.874   4.774
57375SOL    HW174022   6.455   3.815   4.849
57375SOL    HW274023   6.381   3.926   4.777
57376SOL     OW74024  11.547   8.430   0.041
57376SOL    HW174025  11.483   8.406   0.107
57376SOL    HW274026  11.529   8.522   0.022
57377SOL     OW74027   3.850   2.672   8.051
57377SOL    HW174028   3.908   2.611   8.097
57377SOL    HW274029   3.778   2.618   8.019
57378SOL     OW74030   6.059  13.735   2.709
57378SOL    HW174031   6.051  13.704   2.799
57378SOL    HW274032   6.151  13.760   2.701
57379SOL     OW74033   8.164   1.448   3.599
57379SOL    HW174034   8.082   1.466   3.644
57379SOL    HW274035   8.152   1.363   3.559
57380SOL     OW74036   0.835  14.579  10.560
57380SOL    HW174037   0.798  14.552  10.645
57380SOL    HW274038   0.758  14.597  10.505
57381SOL     OW74039   8.232   5.210   0.218
57381SOL    HW174040   8.267   5.284   0.169
57381SOL    HW274041   8.305   5.147   0.223
57382SOL     OW74042  10.758  14.512   6.461
57382SOL    HW174043  10.785  14.426   6.427
57382SOL    HW274044  10.834  14.569   6.443
57383SOL     OW74045   3.495   9.080  10.691
57383SOL    HW174046   3.531   9.008  10.742
57383SOL    HW274047   3.405   9.053  10.670
57384SOL     OW74048   9.089   8.604   7.259
57384SOL    HW174049   9.060   8.607   7.168
57384SOL    HW274050   9.011   8.582   7.309
57385SOL     OW74051   4.949  14.596   6.660
57385SOL    HW174052   4.947  14.516   6.608
57385SOL    HW274053   4.869  14.642   6.637
57386SOL     OW74054   7.981   1.760  10.708
57386SOL    HW174055   7.931   1.702  10.651
57386SOL    HW274056   7.997   1.838  10.655
57387SOL     OW74057   9.330  10.701   4.037
57387SOL    HW174058   9.302  10.748   4.116
57387SOL    HW274059   9.249  10.667   3.999
57388SOL     OW74060  12.855   8.256  11.677
57388SOL    HW174061  12.782   8.295  11.725
57388SOL    HW274062  12.908   8.331  11.650
57389SOL     OW74063  13.788   5.794   5.808
57389SOL    HW174064  13.798   5.699   5.804
57389SOL    HW274065  13.832   5.826   5.729
57390SOL     OW74066   8.500   2.583  14.398
57390SOL    HW174067   8.450   2.616  14.473
57390SOL    HW274068   8.479   2.644  14.327
57391SOL     OW74069   4.533  11.587   3.300
57391SOL    HW174070   4.512  11.524   3.369
57391SOL    HW274071   4.610  11.633   3.332
57392SOL     OW74072   6.251   4.963  10.424
57392SOL    HW174073   6.273   5.036  10.481
57392SOL    HW274074   6.299   4.979  10.343
57393SOL     OW74075   8.191   1.844  11.807
57393SOL    HW174076   8.197   1.764  11.755
57393SOL    HW274077   8.276   1.886  11.797
57394SOL     OW74078  10.185   4.201   4.097
57394SOL    HW174079  10.195   4.106   4.102
57394SOL    HW274080  10.228   4.225   4.015
57395SOL     OW74081  12.899   6.616   8.743
57395SOL    HW174082  12.965   6.552   8.770
57395SOL    HW274083  12.949   6.684   8.697
57396SOL     OW74084   5.120   5.194  14.461
57396SOL    HW174085   5.042   5.208  14.407
57396SOL    HW274086   5.132   5.277  14.507
57397SOL     OW74087   7.505   7.555   6.568
57397SOL    HW174088   7.420   7.547   6.613
57397SOL    HW274089   7.508   7.646   6.539
57398SOL     OW74090  13.214   8.693   6.012
57398SOL    HW174091  13.306   8.693   5.987
57398SOL    HW274092  13.170   8.640   5.944
57399SOL     OW74093  12.420   6.673   7.080
57399SOL    HW174094  12.460   6.689   7.166
57399SOL    HW274095  12.326   6.671   7.096
57400SOL     OW74096   0.744  11.204   2.514
57400SOL    HW174097   0.813  11.145   2.483
57400SOL    HW274098   0.739  11.273   2.448
57401SOL     OW74099  11.354   4.123   9.774
57401SOL    HW174100  11.416   4.083   9.714
57401SOL    HW274101  11.390   4.211   9.790
57402SOL     OW74102  12.125   2.702   5.904
57402SOL    HW174103  12.113   2.743   5.990
57402SOL    HW274104  12.194   2.754   5.863
57403SOL     OW74105   8.460   7.019   2.068
57403SOL    HW174106   8.454   6.970   2.150
57403SOL    HW274107   8.371   7.013   2.031
57404SOL     OW74108   9.422   4.978   7.295
57404SOL    HW174109   9.370   4.915   7.345
57404SOL    HW274110   9.372   5.059   7.299
57405SOL     OW74111   3.177   3.096   2.883
57405SOL    HW174112   3.211   3.041   2.954
57405SOL    HW274113   3.082   3.088   2.889
57406SOL     OW74114   3.972  12.225  13.018
57406SOL    HW174115   3.992  12.256  13.106
57406SOL    HW274116   3.882  12.253  13.003
57407SOL     OW74117  12.179   2.283   2.370
57407SOL    HW174118  12.169   2.372   2.337
57407SOL    HW274119  12.231   2.292   2.450
57408SOL     OW74120   5.242   0.714   7.318
57408SOL    HW174121   5.248   0.631   7.272
57408SOL    HW274122   5.262   0.780   7.251
57409SOL     OW74123  10.736  12.836   3.527
57409SOL    HW174124  10.791  12.759   3.539
57409SOL    HW274125  10.797  12.909   3.521
57410SOL     OW74126   4.745  11.922   9.318
57410SOL    HW174127   4.711  12.000   9.361
57410SOL    HW274128   4.695  11.850   9.356
57411SOL     OW74129  14.758  11.780  14.127
57411SOL    HW174130  14.711  11.863  14.136
57411SOL    HW274131  14.847  11.799  14.156
57412SOL     OW74132   7.170   0.456   1.993
57412SOL    HW174133   7.147   0.412   2.075
57412SOL    HW274134   7.179   0.548   2.017
57413SOL     OW74135   5.520   3.087   4.032
57413SOL    HW174136   5.495   3.160   3.975
57413SOL    HW274137   5.536   3.014   3.973
57414SOL     OW74138   2.726  12.134  12.097
57414SOL    HW174139   2.817  12.111  12.115
57414SOL    HW274140   2.716  12.222  12.133
57415SOL     OW74141   8.653   0.525  13.886
57415SOL    HW174142   8.717   0.560  13.824
57415SOL    HW274143   8.570   0.526  13.838
57416SOL     OW74144   0.712   6.236  13.221
57416SOL    HW174145   0.712   6.195  13.135
57416SOL    HW274146   0.805   6.254  13.239
57417SOL     OW74147   9.659   8.659  11.500
57417SOL    HW174148   9.689   8.572  11.528
57417SOL    HW274149   9.731   8.717  11.522
57418SOL     OW74150  12.748   8.387  12.205
57418SOL    HW174151  12.669   8.441  12.203
57418SOL    HW274152  12.719   8.304  12.243
57419SOL     OW74153   7.628  10.435   2.100
57419SOL    HW174154   7.710  10.421   2.148
57419SOL    HW274155   7.655  10.470   2.016
57420SOL     OW74156   3.922   6.004   3.676
57420SOL    HW174157   3.885   5.916   3.690
57420SOL    HW274158   3.939   6.037   3.764
57421SOL     OW74159   3.665   2.867   6.928
57421SOL    HW174160   3.758   2.865   6.950
57421SOL    HW274161   3.630   2.939   6.980
57422SOL     OW74162   1.381   6.952  13.167
57422SOL    HW174163   1.333   6.941  13.085
57422SOL    HW274164   1.473   6.941  13.143
57423SOL     OW74165  11.363   8.502   8.876
57423SOL    HW174166  11.380   8.450   8.798
57423SOL    HW274167  11.400   8.588   8.856
57424SOL     OW74168  10.862   1.960  11.080
57424SOL    HW174169  10.881   1.885  11.137
57424SOL    HW274170  10.768   1.955  11.065
57425SOL     OW74171   3.573  10.974  12.125
57425SOL    HW174172   3.560  10.909  12.194
57425SOL    HW274173   3.489  10.976  12.079
57426SOL     OW74174   6.979   5.822  10.124
57426SOL    HW174175   6.976   5.896  10.185
57426SOL    HW274176   7.067   5.785  10.136
57427SOL     OW74177   4.594  10.846   2.335
57427SOL    HW174178   4.568  10.871   2.246
57427SOL    HW274179   4.618  10.753   2.327
57428SOL     OW74180   1.225   7.450  13.122
57428SOL    HW174181   1.194   7.535  13.154
57428SOL    HW274182   1.315   7.444  13.153
57429SOL     OW74183   0.861  11.635   9.574
57429SOL    HW174184   0.893  11.601   9.658
57429SOL    HW274185   0.786  11.580   9.552
57430SOL     OW74186   7.154   7.118   1.066
57430SOL    HW174187   7.107   7.168   0.999
57430SOL    HW274188   7.112   7.141   1.148
57431SOL     OW74189   4.246   9.383   9.048
57431SOL    HW174190   4.320   9.384   9.108
57431SOL    HW274191   4.258   9.303   8.997
57432SOL     OW74192   3.772  10.795   7.097
57432SOL    HW174193   3.858  10.807   7.057
57432SOL    HW274194   3.774  10.706   7.131
57433SOL     OW74195   1.266  14.023   6.362
57433SOL    HW174196   1.258  13.938   6.407
57433SOL    HW274197   1.268  14.087   6.433
57434SOL     OW74198  12.956   8.151  13.438
57434SOL    HW174199  12.862   8.134  13.433
57434SOL    HW274200  12.993   8.110  13.360
57435SOL     OW74201   9.021   3.406   8.104
57435SOL    HW174202   9.093   3.466   8.085
57435SOL    HW274203   9.001   3.421   8.196
57436SOL     OW74204   6.555   4.362   0.134
57436SOL    HW174205   6.479   4.372   0.190
57436SOL    HW274206   6.555   4.269   0.109
57437SOL     OW74207   6.458   7.414  11.544
57437SOL    HW174208   6.426   7.330  11.513
57437SOL    HW274209   6.551   7.414  11.522
57438SOL     OW74210   2.529  12.703  10.812
57438SOL    HW174211   2.613  12.661  10.794
57438SOL    HW274212   2.495  12.656  10.889
57439SOL     OW74213   3.217  12.780   3.415
57439SOL    HW174214   3.310  12.796   3.426
57439SOL    HW274215   3.179  12.866   3.401
57440SOL     OW74216  11.049   8.996  11.868
57440SOL    HW174217  11.053   9.029  11.957
57440SOL    HW274218  11.034   8.902  11.878
57441SOL     OW74219   6.043   2.648   8.524
57441SOL    HW174220   6.014   2.589   8.454
57441SOL    HW274221   6.035   2.596   8.603
57442SOL     OW74222  11.419   5.036   5.685
57442SOL    HW174223  11.474   5.042   5.763
57442SOL    HW274224  11.389   4.945   5.683
57443SOL     OW74225   3.377   1.652   7.319
57443SOL    HW174226   3.376   1.570   7.269
57443SOL    HW274227   3.325   1.713   7.266
57444SOL     OW74228   7.345   3.522  10.034
57444SOL    HW174229   7.395   3.480   9.964
57444SOL    HW274230   7.400   3.514  10.112
57445SOL     OW74231  11.289  13.980  14.572
57445SOL    HW174232  11.323  13.899  14.532
57445SOL    HW274233  11.355  14.046  14.551
57446SOL     OW74234   0.282   7.607   4.939
57446SOL    HW174235   0.340   7.559   4.881
57446SOL    HW274236   0.340   7.662   4.991
57447SOL     OW74237   2.882   9.765  10.817
57447SOL    HW174238   2.829   9.835  10.852
57447SOL    HW274239   2.819   9.701  10.783
57448SOL     OW74240   7.268   3.473   0.363
57448SOL    HW174241   7.302   3.387   0.387
57448SOL    HW274242   7.268   3.523   0.445
57449SOL     OW74243  11.421   8.180   0.476
57449SOL    HW174244  11.446   8.152   0.564
57449SOL    HW274245  11.361   8.253   0.490
57450SOL     OW74246   8.883   7.807   5.013
57450SOL    HW174247   8.921   7.881   5.060
57450SOL    HW274248   8.959   7.759   4.981
57451SOL     OW74249  12.977   6.349   6.446
57451SOL    HW174250  12.961   6.278   6.384
57451SOL    HW274251  12.898   6.403   6.442
57452SOL     OW74252   9.405   1.670   2.981
57452SOL    HW174253   9.470   1.671   2.911
57452SOL    HW274254   9.351   1.748   2.963
57453SOL     OW74255  11.531  10.547   8.107
57453SOL    HW174256  11.532  10.451   8.101
57453SOL    HW274257  11.438  10.569   8.112
57454SOL     OW74258   8.891  14.491   4.532
57454SOL    HW174259   8.843  14.467   4.610
57454SOL    HW274260   8.953  14.419   4.519
57455SOL     OW74261   6.705  12.122   5.838
57455SOL    HW174262   6.714  12.216   5.853
57455SOL    HW274263   6.780  12.099   5.783
57456SOL     OW74264   1.587   3.870  12.028
57456SOL    HW174265   1.548   3.945  11.983
57456SOL    HW274266   1.513   3.813  12.048
57457SOL     OW74267   7.468   8.026   2.877
57457SOL    HW174268   7.446   7.940   2.914
57457SOL    HW274269   7.416   8.088   2.927
57458SOL     OW74270  11.139  14.388   5.484
57458SOL    HW174271  11.223  14.382   5.438
57458SOL    HW274272  11.092  14.309   5.459
57459SOL     OW74273  13.277   0.132   3.560
57459SOL    HW174274  13.195   0.174   3.534
57459SOL    HW274275  13.323   0.116   3.478
57460SOL     OW74276  12.950   4.792   1.459
57460SOL    HW174277  13.023   4.759   1.407
57460SOL    HW274278  12.988   4.862   1.512
57461SOL     OW74279   5.076   5.114  11.142
57461SOL    HW174280   5.015   5.140  11.211
57461SOL    HW274281   5.067   5.183  11.076
57462SOL     OW74282  11.337   2.295  13.803
57462SOL    HW174283  11.276   2.255  13.741
57462SOL    HW274284  11.424   2.266  13.773
57463SOL     OW74285  14.485   6.646   8.920
57463SOL    HW174286  14.432   6.572   8.891
57463SOL    HW274287  14.541   6.667   8.845
57464SOL     OW74288  13.053  10.218   0.375
57464SOL    HW174289  13.099  10.235   0.457
57464SOL    HW274290  13.081  10.130   0.349
57465SOL     OW74291  13.496   6.009   9.584
57465SOL    HW174292  13.517   5.918   9.563
57465SOL    HW274293  13.436   6.036   9.514
57466SOL     OW74294  14.195   6.729  14.244
57466SOL    HW174295  14.285   6.696  14.238
57466SOL    HW274296  14.202   6.823  14.228
57467SOL     OW74297   0.825   4.765  12.304
57467SOL    HW174298   0.796   4.781  12.214
57467SOL    HW274299   0.831   4.670  12.310
57468SOL     OW74300  12.324  13.432   0.976
57468SOL    HW174301  12.354  13.520   0.999
57468SOL    HW274302  12.304  13.437   0.883
57469SOL     OW74303   6.552  12.740   3.967
57469SOL    HW174304   6.601  12.666   4.003
57469SOL    HW274305   6.505  12.703   3.892
57470SOL     OW74306  10.308   9.091   1.925
57470SOL    HW174307  10.228   9.054   1.963
57470SOL    HW274308  10.329   9.166   1.982
57471SOL     OW74309   1.577   2.169   8.460
57471SOL    HW174310   1.618   2.221   8.529
57471SOL    HW274311   1.643   2.164   8.391
57472SOL     OW74312  11.681   0.304   5.018
57472SOL    HW174313  11.662   0.275   5.107
57472SOL    HW274314  11.695   0.398   5.026
57473SOL     OW74315   4.170   1.614  10.411
57473SOL    HW174316   4.113   1.624  10.487
57473SOL    HW274317   4.111   1.589  10.340
57474SOL     OW74318  11.787   3.836   7.144
57474SOL    HW174319  11.831   3.760   7.183
57474SOL    HW274320  11.695   3.810   7.139
57475SOL     OW74321   9.957  13.635   1.941
57475SOL    HW174322   9.868  13.643   1.905
57475SOL    HW274323   9.960  13.546   1.977
57476SOL     OW74324   2.435   1.665   6.284
57476SOL    HW174325   2.510   1.606   6.273
57476SOL    HW274326   2.367   1.610   6.323
57477SOL     OW74327   2.047   5.155   3.837
57477SOL    HW174328   2.036   5.075   3.888
57477SOL    HW274329   1.982   5.216   3.872
57478SOL     OW74330   7.447  13.125   5.041
57478SOL    HW174331   7.369  13.074   5.064
57478SOL    HW274332   7.458  13.186   5.114
57479SOL     OW74333   6.548  13.375  10.422
57479SOL    HW174334   6.598  13.450  10.455
57479SOL    HW274335   6.516  13.331  10.501
57480SOL     OW74336   6.620  12.661   7.110
57480SOL    HW174337   6.612  12.629   7.020
57480SOL    HW274338   6.682  12.733   7.105
57481SOL     OW74339   8.470   6.307  12.569
57481SOL    HW174340   8.562   6.323  12.588
57481SOL    HW274341   8.470   6.235  12.507
57482SOL     OW74342   1.090  14.694  10.487
57482SOL    HW174343   1.007  14.650  10.506
57482SOL    HW274344   1.141  14.685  10.568
57483SOL     OW74345   9.770   3.376   1.947
57483SOL    HW174346   9.707   3.430   1.995
57483SOL    HW274347   9.794   3.307   2.009
57484SOL     OW74348   4.338   6.761  12.023
57484SOL    HW174349   4.377   6.679  11.994
57484SOL    HW274350   4.249   6.738  12.049
57485SOL     OW74351   7.065   8.649   4.718
57485SOL    HW174352   7.077   8.586   4.647
57485SOL    HW274353   7.073   8.597   4.798
57486SOL     OW74354  11.172  10.136   7.165
57486SOL    HW174355  11.120  10.074   7.113
57486SOL    HW274356  11.111  10.167   7.232
57487SOL     OW74357   0.047   8.197   0.262
57487SOL    HW174358  14.851   8.161   0.216
57487SOL    HW274359   0.092   8.250   0.196
57488SOL     OW74360   2.471   4.805  12.444
57488SOL    HW174361   2.536   4.842  12.504
57488SOL    HW274362   2.387   4.841  12.474
57489SOL     OW74363   6.051  12.772   2.322
57489SOL    HW174364   6.089  12.854   2.353
57489SOL    HW274365   6.113  12.705   2.351
57490SOL     OW74366  14.666  10.374   8.628
57490SOL    HW174367  14.660  10.463   8.596
57490SOL    HW274368  14.662  10.382   8.724
57491SOL     OW74369  12.754   1.066   7.866
57491SOL    HW174370  12.665   1.056   7.898
57491SOL    HW274371  12.766   0.992   7.806
57492SOL     OW74372   9.965   6.373   3.028
57492SOL    HW174373  10.008   6.431   3.091
57492SOL    HW274374   9.965   6.422   2.946
57493SOL     OW74375   2.996  10.329  13.921
57493SOL    HW174376   2.970  10.270  13.992
57493SOL    HW274377   2.915  10.347  13.875
57494SOL     OW74378   3.238  13.611  12.535
57494SOL    HW174379   3.301  13.643  12.469
57494SOL    HW274380   3.253  13.517  12.538
57495SOL     OW74381   5.816   4.478   0.482
57495SOL    HW174382   5.726   4.474   0.515
57495SOL    HW274383   5.833   4.571   0.470
57496SOL     OW74384   9.969   1.099  11.188
57496SOL    HW174385  10.025   1.048  11.247
57496SOL    HW274386   9.889   1.047  11.181
57497SOL     OW74387   0.918  14.060  11.396
57497SOL    HW174388   0.828  14.085  11.418
57497SOL    HW274389   0.961  14.046  11.480
57498SOL     OW74390   7.121   1.556   7.420
57498SOL    HW174391   7.054   1.489   7.430
57498SOL    HW274392   7.142   1.583   7.510
57499SOL     OW74393   4.879   8.453   3.863
57499SOL    HW174394   4.831   8.439   3.782
57499SOL    HW274395   4.871   8.546   3.881
57500SOL     OW74396   6.167   4.245   8.867
57500SOL    HW174397   6.181   4.229   8.961
57500SOL    HW274398   6.103   4.179   8.841
57501SOL     OW74399   9.164   4.303   8.797
57501SOL    HW174400   9.202   4.359   8.730
57501SOL    HW274401   9.163   4.357   8.876
57502SOL     OW74402   2.542   4.282   1.720
57502SOL    HW174403   2.451   4.269   1.694
57502SOL    HW274404   2.579   4.337   1.652
57503SOL     OW74405   8.161   2.704  10.921
57503SOL    HW174406   8.096   2.674  10.858
57503SOL    HW274407   8.233   2.642  10.913
57504SOL     OW74408   4.317  10.035   9.767
57504SOL    HW174409   4.284  10.060   9.853
57504SOL    HW274410   4.367   9.955   9.783
57505SOL     OW74411   7.072   3.149  13.772
57505SOL    HW174412   7.164   3.137  13.748
57505SOL    HW274413   7.070   3.132  13.867
57506SOL     OW74414   5.291  11.244   0.046
57506SOL    HW174415   5.229  11.202  14.866
57506SOL    HW274416   5.262  11.217   0.133
57507SOL     OW74417   7.541   6.710   5.543
57507SOL    HW174418   7.585   6.791   5.520
57507SOL    HW274419   7.488   6.731   5.620
57508SOL     OW74420  12.344   2.311  11.070
57508SOL    HW174421  12.333   2.232  11.122
57508SOL    HW274422  12.419   2.293  11.013
57509SOL     OW74423   7.083   2.600  13.182
57509SOL    HW174424   6.989   2.596  13.199
57509SOL    HW274425   7.124   2.584  13.267
57510SOL     OW74426  12.966   6.722   2.655
57510SOL    HW174427  12.926   6.635   2.656
57510SOL    HW274428  13.046   6.710   2.604
57511SOL     OW74429   7.423   9.675  12.103
57511SOL    HW174430   7.397   9.606  12.042
57511SOL    HW274431   7.385   9.647  12.187
57512SOL     OW74432   2.247   8.558  12.524
57512SOL    HW174433   2.166   8.569  12.574
57512SOL    HW274434   2.289   8.644  12.526
57513SOL     OW74435   9.794  11.519   7.412
57513SOL    HW174436   9.732  11.451   7.385
57513SOL    HW274437   9.877  11.491   7.374
57514SOL     OW74438  13.688   8.559   1.987
57514SOL    HW174439  13.752   8.491   1.966
57514SOL    HW274440  13.673   8.551   2.081
57515SOL     OW74441  12.027  14.064   6.553
57515SOL    HW174442  12.093  14.132   6.548
57515SOL    HW274443  12.076  13.982   6.551
57516SOL     OW74444  10.766   2.082   2.436
57516SOL    HW174445  10.722   2.164   2.411
57516SOL    HW274446  10.711   2.046   2.506
57517SOL     OW74447   2.885   9.058   2.252
57517SOL    HW174448   2.964   9.012   2.223
57517SOL    HW274449   2.819   9.039   2.185
57518SOL     OW74450   4.680   4.217  11.331
57518SOL    HW174451   4.774   4.221  11.313
57518SOL    HW274452   4.656   4.307  11.354
57519SOL     OW74453  10.281  13.592   5.849
57519SOL    HW174454  10.270  13.504   5.885
57519SOL    HW274455  10.216  13.597   5.778
57520SOL     OW74456   2.413   4.297   5.315
57520SOL    HW174457   2.408   4.237   5.389
57520SOL    HW274458   2.330   4.346   5.319
57521SOL     OW74459   1.248  11.672   0.070
57521SOL    HW174460   1.339  11.696   0.088
57521SOL    HW274461   1.234  11.591   0.119
57522SOL     OW74462   9.688  11.032  12.395
57522SOL    HW174463   9.658  10.971  12.327
57522SOL    HW274464   9.730  10.976  12.460
57523SOL     OW74465   2.952   5.639   4.878
57523SOL    HW174466   2.979   5.718   4.923
57523SOL    HW274467   2.860   5.655   4.855
57524SOL     OW74468   3.211   6.622   1.646
57524SOL    HW174469   3.151   6.552   1.669
57524SOL    HW274470   3.164   6.674   1.581
57525SOL     OW74471  12.298  10.404  10.475
57525SOL    HW174472  12.379  10.432  10.517
57525SOL    HW274473  12.280  10.318  10.513
57526SOL     OW74474   8.187   3.483   1.399
57526SOL    HW174475   8.260   3.431   1.433
57526SOL    HW274476   8.120   3.477   1.467
57527SOL     OW74477   0.787  10.557   3.112
57527SOL    HW174478   0.751  10.472   3.088
57527SOL    HW274479   0.849  10.537   3.183
57528SOL     OW74480   1.469  10.818   2.040
57528SOL    HW174481   1.534  10.796   1.974
57528SOL    HW274482   1.500  10.774   2.119
57529SOL     OW74483   2.653  14.827   0.246
57529SOL    HW174484   2.595  14.757   0.278
57529SOL    HW274485   2.608  14.863   0.170
57530SOL     OW74486  10.965   0.839  12.821
57530SOL    HW174487  10.883   0.825  12.868
57530SOL    HW274488  10.954   0.925  12.779
57531SOL     OW74489  11.944   2.994   0.249
57531SOL    HW174490  11.887   3.072   0.253
57531SOL    HW274491  11.884   2.922   0.228
57532SOL     OW74492  11.179   2.243  14.011
57532SOL    HW174493  11.192   2.267  13.919
57532SOL    HW274494  11.268   2.242  14.047
57533SOL     OW74495   5.918   8.471   8.303
57533SOL    HW174496   5.931   8.401   8.239
57533SOL    HW274497   5.925   8.552   8.253
57534SOL     OW74498   2.361   1.901  10.446
57534SOL    HW174499   2.442   1.898  10.395
57534SOL    HW274500   2.384   1.863  10.531
57535SOL     OW74501   2.127   0.302   0.819
57535SOL    HW174502   2.148   0.226   0.764
57535SOL    HW274503   2.163   0.376   0.771
57536SOL     OW74504   0.160   8.406   5.211
57536SOL    HW174505   0.232   8.464   5.184
57536SOL    HW274506   0.109   8.393   5.131
57537SOL     OW74507   6.455  12.092  11.846
57537SOL    HW174508   6.390  12.135  11.901
57537SOL    HW274509   6.478  12.013  11.895
57538SOL     OW74510   6.752  10.840   9.462
57538SOL    HW174511   6.765  10.747   9.446
57538SOL    HW274512   6.749  10.847   9.558
57539SOL     OW74513   5.357  13.471   8.848
57539SOL    HW174514   5.316  13.397   8.893
57539SOL    HW274515   5.381  13.437   8.762
57540SOL     OW74516   7.374   1.196   1.217
57540SOL    HW174517   7.464   1.227   1.214
57540SOL    HW274518   7.339   1.231   1.298
57541SOL     OW74519   3.685  13.911   7.739
57541SOL    HW174520   3.695  14.006   7.734
57541SOL    HW274521   3.715  13.888   7.827
57542SOL     OW74522   0.553  14.570   8.744
57542SOL    HW174523   0.565  14.556   8.838
57542SOL    HW274524   0.633  14.535   8.704
57543SOL     OW74525   4.008  10.727  10.667
57543SOL    HW174526   3.922  10.760  10.642
57543SOL    HW274527   4.035  10.671  10.595
57544SOL     OW74528  10.886   3.037  12.713
57544SOL    HW174529  10.802   3.020  12.755
57544SOL    HW274530  10.944   3.064  12.784
57545SOL     OW74531  10.727   3.379   9.464
57545SOL    HW174532  10.798   3.403   9.524
57545SOL    HW274533  10.659   3.443   9.479
57546SOL     OW74534   4.058  14.059   0.183
57546SOL    HW174535   4.103  14.089   0.262
57546SOL    HW274536   3.966  14.083   0.196
57547SOL     OW74537  12.302   9.209   7.080
57547SOL    HW174538  12.235   9.262   7.124
57547SOL    HW274539  12.286   9.223   6.987
57548SOL     OW74540   1.056  13.422   8.402
57548SOL    HW174541   1.104  13.363   8.345
57548SOL    HW274542   1.019  13.364   8.469
57549SOL     OW74543   2.234   6.237  12.556
57549SOL    HW174544   2.309   6.180  12.571
57549SOL    HW274545   2.158   6.181  12.570
57550SOL     OW74546  11.604   2.633   5.858
57550SOL    HW174547  11.538   2.644   5.927
57550SOL    HW274548  11.687   2.630   5.905
57551SOL     OW74549   3.441   0.240   0.584
57551SOL    HW174550   3.414   0.309   0.524
57551SOL    HW274551   3.381   0.167   0.565
57552SOL     OW74552   5.022   2.427   1.733
57552SOL    HW174553   4.927   2.411   1.739
57552SOL    HW274554   5.043   2.477   1.812
57553SOL     OW74555   1.050   0.568   1.489
57553SOL    HW174556   0.983   0.586   1.556
57553SOL    HW274557   1.005   0.584   1.406
57554SOL     OW74558   8.232  13.419  12.252
57554SOL    HW174559   8.165  13.429  12.319
57554SOL    HW274560   8.265  13.329  12.263
57555SOL     OW74561   9.017  12.554   9.941
57555SOL    HW174562   9.000  12.595  10.026
57555SOL    HW274563   8.987  12.463   9.953
57556SOL     OW74564   3.393   4.432   2.525
57556SOL    HW174565   3.487   4.420   2.519
57556SOL    HW274566   3.360   4.401   2.440
57557SOL     OW74567   0.715  11.434   6.115
57557SOL    HW174568   0.625  11.456   6.088
57557SOL    HW274569   0.766  11.446   6.035
57558SOL     OW74570   2.119  12.517   1.401
57558SOL    HW174571   2.169  12.594   1.372
57558SOL    HW274572   2.071  12.547   1.478
57559SOL     OW74573   6.395   8.727  12.492
57559SOL    HW174574   6.374   8.732  12.399
57559SOL    HW274575   6.344   8.654  12.525
57560SOL     OW74576   3.095   6.661  14.258
57560SOL    HW174577   3.015   6.660  14.310
57560SOL    HW274578   3.116   6.754  14.248
57561SOL     OW74579   5.015   9.567   9.331
57561SOL    HW174580   5.037   9.477   9.306
57561SOL    HW274581   5.094   9.617   9.311
57562SOL     OW74582   5.914   5.100  11.662
57562SOL    HW174583   5.902   5.018  11.711
57562SOL    HW274584   5.909   5.073  11.570
57563SOL     OW74585   6.212   3.914   5.111
57563SOL    HW174586   6.289   3.857   5.100
57563SOL    HW274587   6.140   3.864   5.073
57564SOL     OW74588   9.409   9.919   0.216
57564SOL    HW174589   9.441   9.866   0.288
57564SOL    HW274590   9.461   9.999   0.220
57565SOL     OW74591  11.900  14.503   8.387
57565SOL    HW174592  11.873  14.433   8.328
57565SOL    HW274593  11.959  14.461   8.450
57566SOL     OW74594  11.210  14.219  10.598
57566SOL    HW174595  11.178  14.290  10.541
57566SOL    HW274596  11.305  14.224  10.591
57567SOL     OW74597  11.647  10.465  13.345
57567SOL    HW174598  11.736  10.498  13.359
57567SOL    HW274599  11.649  10.376  13.379
57568SOL     OW74600   6.749   3.385   4.513
57568SOL    HW174601   6.840   3.414   4.523
57568SOL    HW274602   6.749   3.295   4.545
57569SOL     OW74603   8.036   1.316   2.932
57569SOL    HW174604   7.992   1.231   2.934
57569SOL    HW274605   7.965   1.379   2.921
57570SOL     OW74606   3.945   7.875   3.258
57570SOL    HW174607   3.969   7.963   3.229
57570SOL    HW274608   3.889   7.842   3.188
57571SOL     OW74609   5.467   5.903  10.512
57571SOL    HW174610   5.460   5.881  10.605
57571SOL    HW274611   5.561   5.916  10.498
57572SOL     OW74612   2.993   7.994   4.698
57572SOL    HW174613   2.968   7.904   4.716
57572SOL    HW274614   2.910   8.043   4.703
57573SOL     OW74615   5.806  12.575   1.967
57573SOL    HW174616   5.772  12.601   1.882
57573SOL    HW274617   5.793  12.480   1.971
57574SOL     OW74618  11.982  12.814  11.323
57574SOL    HW174619  11.899  12.774  11.348
57574SOL    HW274620  11.957  12.889  11.270
57575SOL     OW74621   5.939   3.084   1.977
57575SOL    HW174622   6.026   3.110   1.947
57575SOL    HW274623   5.880   3.150   1.940
57576SOL     OW74624   5.150  13.838   7.908
57576SOL    HW174625   5.242  13.833   7.884
57576SOL    HW274626   5.139  13.927   7.941
57577SOL     OW74627  13.464   9.524   1.831
57577SOL    HW174628  13.510   9.604   1.806
57577SOL    HW274629  13.479   9.464   1.758
57578SOL     OW74630   9.826   0.771   0.231
57578SOL    HW174631   9.748   0.798   0.183
57578SOL    HW274632   9.793   0.748   0.318
57579SOL     OW74633   6.916   5.181  11.367
57579SOL    HW174634   6.885   5.209  11.453
57579SOL    HW274635   7.010   5.199  11.368
57580SOL     OW74636  13.653   3.024   2.509
57580SOL    HW174637  13.719   2.982   2.454
57580SOL    HW274638  13.587   3.057   2.447
57581SOL     OW74639   6.476  11.275   9.904
57581SOL    HW174640   6.486  11.201   9.964
57581SOL    HW274641   6.381  11.288   9.898
57582SOL     OW74642   2.695   2.783  14.123
57582SOL    HW174643   2.700   2.763  14.216
57582SOL    HW274644   2.602   2.781  14.102
57583SOL     OW74645  14.564  12.968   5.773
57583SOL    HW174646  14.643  12.942   5.819
57583SOL    HW274647  14.492  12.938   5.830
57584SOL     OW74648  14.459   1.704   2.248
57584SOL    HW174649  14.507   1.715   2.329
57584SOL    HW274650  14.371   1.738   2.266
57585SOL     OW74651   3.020  10.767   6.878
57585SOL    HW174652   2.985  10.774   6.966
57585SOL    HW274653   3.079  10.691   6.881
57586SOL     OW74654  11.838   3.246  14.199
57586SOL    HW174655  11.791   3.165  14.181
57586SOL    HW274656  11.858   3.283  14.113
57587SOL     OW74657   0.418   4.100   6.493
57587SOL    HW174658   0.434   4.035   6.424
57587SOL    HW274659   0.496   4.095   6.548
57588SOL     OW74660   9.795   7.032  10.379
57588SOL    HW174661   9.723   7.057  10.436
57588SOL    HW274662   9.850   6.974  10.433
57589SOL     OW74663   9.901  11.643   9.902
57589SOL    HW174664   9.937  11.604   9.982
57589SOL    HW274665   9.978  11.677   9.855
57590SOL     OW74666   5.973   5.634   7.078
57590SOL    HW174667   6.025   5.590   7.011
57590SOL    HW274668   5.897   5.668   7.031
57591SOL     OW74669   6.906  14.622  10.852
57591SOL    HW174670   6.811  14.609  10.853
57591SOL    HW274671   6.942  14.537  10.876
57592SOL     OW74672   3.414   7.293   3.510
57592SOL    HW174673   3.391   7.377   3.549
57592SOL    HW274674   3.510   7.295   3.505
57593SOL     OW74675   8.878   3.833  10.493
57593SOL    HW174676   8.964   3.874  10.480
57593SOL    HW274677   8.899   3.744  10.520
57594SOL     OW74678   0.714   1.279   7.920
57594SOL    HW174679   0.650   1.296   7.990
57594SOL    HW274680   0.660   1.258   7.844
57595SOL     OW74681   8.265  14.109   7.372
57595SOL    HW174682   8.252  14.095   7.278
57595SOL    HW274683   8.356  14.081   7.387
57596SOL     OW74684  14.609   5.981  13.760
57596SOL    HW174685  14.536   5.950  13.707
57596SOL    HW274686  14.628   5.908  13.820
57597SOL     OW74687  11.360   0.216   4.386
57597SOL    HW174688  11.324   0.153   4.448
57597SOL    HW274689  11.285   0.240   4.331
57598SOL     OW74690  11.726  12.364   5.742
57598SOL    HW174691  11.764  12.342   5.657
57598SOL    HW274692  11.786  12.429   5.779
57599SOL     OW74693   9.438   4.968   9.917
57599SOL    HW174694   9.431   4.987   9.823
57599SOL    HW274695   9.356   4.925   9.939
57600SOL     OW74696  11.479  11.102   4.879
57600SOL    HW174697  11.525  11.186   4.877
57600SOL    HW274698  11.532  11.044   4.824
57601SOL     OW74699   8.120   9.089  12.827
57601SOL    HW174700   8.059   9.114  12.757
57601SOL    HW274701   8.207   9.094  12.786
57602SOL     OW74702  13.423  11.228   2.253
57602SOL    HW174703  13.493  11.194   2.308
57602SOL    HW274704  13.398  11.155   2.198
57603SOL     OW74705  11.291   2.317  10.585
57603SOL    HW174706  11.242   2.235  10.587
57603SOL    HW274707  11.341   2.313  10.504
57604SOL     OW74708   9.795   2.281   3.291
57604SOL    HW174709   9.860   2.213   3.269
57604SOL    HW274710   9.783   2.329   3.209
57605SOL     OW74711   1.033   1.386   9.690
57605SOL    HW174712   1.094   1.334   9.742
57605SOL    HW274713   1.086   1.459   9.657
57606SOL     OW74714   8.039  14.537   6.788
57606SOL    HW174715   8.045  14.464   6.850
57606SOL    HW274716   8.104  14.517   6.720
57607SOL     OW74717   8.453   0.730   0.333
57607SOL    HW174718   8.475   0.647   0.290
57607SOL    HW274719   8.463   0.796   0.265
57608SOL     OW74720   1.309  11.510   2.308
57608SOL    HW174721   1.241  11.543   2.367
57608SOL    HW274722   1.263  11.491   2.226
57609SOL     OW74723   1.673   0.754   8.955
57609SOL    HW174724   1.745   0.817   8.952
57609SOL    HW274725   1.594   0.807   8.950
57610SOL     OW74726   2.247   9.902  12.201
57610SOL    HW174727   2.278   9.982  12.159
57610SOL    HW274728   2.158   9.891  12.169
57611SOL     OW74729  12.643  13.848   8.751
57611SOL    HW174730  12.575  13.873   8.814
57611SOL    HW274731  12.670  13.931   8.712
57612SOL     OW74732  12.101   0.484  13.456
57612SOL    HW174733  12.047   0.554  13.421
57612SOL    HW274734  12.129   0.434  13.379
57613SOL     OW74735  10.116   8.946  10.032
57613SOL    HW174736  10.058   8.879   9.996
57613SOL    HW274737  10.074   8.974  10.113
57614SOL     OW74738  12.515  13.148   0.751
57614SOL    HW174739  12.509  13.162   0.846
57614SOL    HW274740  12.446  13.085   0.732
57615SOL     OW74741  13.359   9.005  11.001
57615SOL    HW174742  13.416   8.944  10.954
57615SOL    HW274743  13.417   9.077  11.026
57616SOL     OW74744   2.390   3.619   8.902
57616SOL    HW174745   2.469   3.650   8.947
57616SOL    HW274746   2.421   3.545   8.849
57617SOL     OW74747   2.939   5.950  10.325
57617SOL    HW174748   2.847   5.976  10.333
57617SOL    HW274749   2.942   5.897  10.245
57618SOL     OW74750   3.844   4.148   1.289
57618SOL    HW174751   3.808   4.236   1.301
57618SOL    HW274752   3.917   4.160   1.228
57619SOL     OW74753  10.639   4.212  10.160
57619SOL    HW174754  10.689   4.139  10.123
57619SOL    HW274755  10.689   4.290  10.135
57620SOL     OW74756  13.294   9.729   0.740
57620SOL    HW174757  13.253   9.780   0.670
57620SOL    HW274758  13.221   9.681   0.779
57621SOL     OW74759  14.627  14.531  10.569
57621SOL    HW174760  14.578  14.471  10.512
57621SOL    HW274761  14.562  14.563  10.632
57622SOL     OW74762   5.814   0.291   7.609
57622SOL    HW174763   5.764   0.272   7.689
57622SOL    HW274764   5.747   0.318   7.546
57623SOL     OW74765   0.582   7.351   3.444
57623SOL    HW174766   0.589   7.324   3.352
57623SOL    HW274767   0.637   7.289   3.491
57624SOL     OW74768   7.474   4.299   9.681
57624SOL    HW174769   7.396   4.322   9.631
57624SOL    HW274770   7.533   4.259   9.617
57625SOL     OW74771   9.363   0.687   4.937
57625SOL    HW174772   9.398   0.768   4.974
57625SOL    HW274773   9.308   0.715   4.864
57626SOL     OW74774  11.665   3.583  12.349
57626SOL    HW174775  11.645   3.610  12.439
57626SOL    HW274776  11.745   3.531  12.357
57627SOL     OW74777   5.800  11.620   8.887
57627SOL    HW174778   5.876  11.601   8.942
57627SOL    HW274779   5.729  11.569   8.927
57628SOL     OW74780   3.292   0.147   2.657
57628SOL    HW174781   3.265   0.055   2.650
57628SOL    HW274782   3.350   0.161   2.583
57629SOL     OW74783   6.738   9.481  13.335
57629SOL    HW174784   6.797   9.420  13.290
57629SOL    HW274785   6.692   9.525  13.264
57630SOL     OW74786   4.944   0.207   6.528
57630SOL    HW174787   5.005   0.258   6.475
57630SOL    HW274788   4.994   0.181   6.605
57631SOL     OW74789   3.631   2.638  11.857
57631SOL    HW174790   3.591   2.662  11.941
57631SOL    HW274791   3.564   2.659  11.792
57632SOL     OW74792   7.441  13.905   6.721
57632SOL    HW174793   7.481  13.982   6.762
57632SOL    HW274794   7.347  13.923   6.724
57633SOL     OW74795   0.294  10.416   1.134
57633SOL    HW174796   0.329  10.351   1.194
57633SOL    HW274797   0.356  10.490   1.139
57634SOL     OW74798   4.018  10.256   9.027
57634SOL    HW174799   3.989  10.347   9.035
57634SOL    HW274800   3.940  10.209   8.997
57635SOL     OW74801   1.604  10.891   8.779
57635SOL    HW174802   1.556  10.809   8.774
57635SOL    HW274803   1.611  10.920   8.688
57636SOL     OW74804   1.409   2.353  12.517
57636SOL    HW174805   1.431   2.260  12.520
57636SOL    HW274806   1.318   2.357  12.546
57637SOL     OW74807   8.183   1.673   0.605
57637SOL    HW174808   8.106   1.678   0.661
57637SOL    HW274809   8.247   1.731   0.647
57638SOL     OW74810  10.592   4.009  10.548
57638SOL    HW174811  10.529   3.952  10.503
57638SOL    HW274812  10.614   3.960  10.628
57639SOL     OW74813   4.685   7.071  10.059
57639SOL    HW174814   4.658   6.991  10.105
57639SOL    HW274815   4.739   7.039   9.986
57640SOL     OW74816   6.076  10.579   9.910
57640SOL    HW174817   6.020  10.612   9.839
57640SOL    HW274818   6.048  10.630   9.986
57641SOL     OW74819  12.601   0.492  13.133
57641SOL    HW174820  12.576   0.481  13.225
57641SOL    HW274821  12.592   0.405  13.095
57642SOL     OW74822   2.843  11.490   7.050
57642SOL    HW174823   2.826  11.512   7.141
57642SOL    HW274824   2.800  11.559   7.000
57643SOL     OW74825  13.367   5.813   0.318
57643SOL    HW174826  13.409   5.801   0.403
57643SOL    HW274827  13.433   5.787   0.254
57644SOL     OW74828   7.217   2.254  12.423
57644SOL    HW174829   7.262   2.242  12.507
57644SOL    HW274830   7.124   2.240  12.443
57645SOL     OW74831   7.373   0.007   7.171
57645SOL    HW174832   7.411  14.808   7.209
57645SOL    HW274833   7.353  14.863   7.080
57646SOL     OW74834  13.689  13.222   0.682
57646SOL    HW174835  13.640  13.249   0.604
57646SOL    HW274836  13.656  13.134   0.701
57647SOL     OW74837   3.254   9.920  14.823
57647SOL    HW174838   3.206   9.871   0.010
57647SOL    HW274839   3.323   9.860  14.795
57648SOL     OW74840   1.907   6.937   1.178
57648SOL    HW174841   1.929   6.981   1.096
57648SOL    HW274842   1.897   6.845   1.154
57649SOL     OW74843   0.162   4.421  11.780
57649SOL    HW174844   0.212   4.443  11.859
57649SOL    HW274845   0.197   4.336  11.753
57650SOL     OW74846   3.152   9.345  11.493
57650SOL    HW174847   3.126   9.266  11.541
57650SOL    HW274848   3.113   9.416  11.542
57651SOL     OW74849  14.512  12.901   9.494
57651SOL    HW174850  14.503  12.824   9.437
57651SOL    HW274851  14.485  12.870   9.581
57652SOL     OW74852  13.457   6.509   2.885
57652SOL    HW174853  13.506   6.439   2.928
57652SOL    HW274854  13.509   6.588   2.902
57653SOL     OW74855   2.633   9.448  12.953
57653SOL    HW174856   2.653   9.358  12.927
57653SOL    HW274857   2.695   9.501  12.904
57654SOL     OW74858   4.031  12.452   3.017
57654SOL    HW174859   4.055  12.483   2.930
57654SOL    HW274860   4.029  12.357   3.010
57655SOL     OW74861  10.472  11.632  13.089
57655SOL    HW174862  10.452  11.703  13.150
57655SOL    HW274863  10.390  11.615  13.044
57656SOL     OW74864   9.304   9.689   2.935
57656SOL    HW174865   9.372   9.622   2.933
57656SOL    HW274866   9.246   9.662   3.007
57657SOL     OW74867   5.998  11.274  11.793
57657SOL    HW174868   5.960  11.286  11.880
57657SOL    HW274869   6.028  11.361  11.768
57658SOL     OW74870   7.042  11.796   2.623
57658SOL    HW174871   6.961  11.830   2.661
57658SOL    HW274872   7.105  11.868   2.630
57659SOL     OW74873   8.739  13.055   5.182
57659SOL    HW174874   8.806  13.032   5.248
57659SOL    HW274875   8.789  13.093   5.110
57660SOL     OW74876   4.514  10.286  14.247
57660SOL    HW174877   4.593  10.323  14.206
57660SOL    HW274878   4.457  10.361  14.260
57661SOL     OW74879  12.202  13.077   8.699
57661SOL    HW174880  12.191  13.172   8.693
57661SOL    HW274881  12.211  13.048   8.608
57662SOL     OW74882   5.724  14.230   2.280
57662SOL    HW174883   5.761  14.142   2.291
57662SOL    HW274884   5.632  14.221   2.305
57663SOL     OW74885  11.553   6.112   4.612
57663SOL    HW174886  11.460   6.127   4.592
57663SOL    HW274887  11.588   6.072   4.532
57664SOL     OW74888   1.742   4.603   4.762
57664SOL    HW174889   1.671   4.622   4.700
57664SOL    HW274890   1.710   4.635   4.846
57665SOL     OW74891   7.212   6.093  10.404
57665SOL    HW174892   7.248   6.088  10.315
57665SOL    HW274893   7.280   6.056  10.460
57666SOL     OW74894   8.814   3.945   9.422
57666SOL    HW174895   8.868   3.866   9.432
57666SOL    HW274896   8.725   3.916   9.443
57667SOL     OW74897  12.013   0.696   1.596
57667SOL    HW174898  11.933   0.649   1.621
57667SOL    HW274899  12.056   0.716   1.680
57668SOL     OW74900   0.695   1.829   8.234
57668SOL    HW174901   0.774   1.881   8.250
57668SOL    HW274902   0.640   1.845   8.310
57669SOL     OW74903   0.959   5.599   3.605
57669SOL    HW174904   0.967   5.510   3.640
57669SOL    HW274905   0.976   5.590   3.511
57670SOL     OW74906   0.850  14.514   4.008
57670SOL    HW174907   0.806  14.598   3.993
57670SOL    HW274908   0.807  14.477   4.085
57671SOL     OW74909  13.816   9.094   2.013
57671SOL    HW174910  13.854   9.139   1.937
57671SOL    HW274911  13.763   9.161   2.057
57672SOL     OW74912   7.255   7.464  13.731
57672SOL    HW174913   7.271   7.559  13.730
57672SOL    HW274914   7.249   7.443  13.824
57673SOL     OW74915  12.385   8.862   2.548
57673SOL    HW174916  12.479   8.845   2.546
57673SOL    HW274917  12.367   8.890   2.637
57674SOL     OW74918  10.992  10.677  10.215
57674SOL    HW174919  10.901  10.672  10.246
57674SOL    HW274920  11.044  10.674  10.295
57675SOL     OW74921   8.537  11.582  11.595
57675SOL    HW174922   8.618  11.552  11.554
57675SOL    HW274923   8.478  11.601  11.522
57676SOL     OW74924   1.106   2.833   9.308
57676SOL    HW174925   1.081   2.924   9.296
57676SOL    HW274926   1.032   2.794   9.355
57677SOL     OW74927   0.667   5.586   3.482
57677SOL    HW174928   0.735   5.583   3.548
57677SOL    HW274929   0.602   5.648   3.516
57678SOL     OW74930  12.177  13.310   8.990
57678SOL    HW174931  12.121  13.385   9.013
57678SOL    HW274932  12.249  13.348   8.941
57679SOL     OW74933  14.592  11.364  11.641
57679SOL    HW174934  14.677  11.323  11.627
57679SOL    HW274935  14.542  11.344  11.561
57680SOL     OW74936   9.873   0.818   4.073
57680SOL    HW174937   9.884   0.872   4.152
57680SOL    HW274938   9.880   0.728   4.104
57681SOL     OW74939   4.884   7.209   4.818
57681SOL    HW174940   4.837   7.293   4.818
57681SOL    HW274941   4.949   7.219   4.887
57682SOL     OW74942   4.114   3.522   3.813
57682SOL    HW174943   4.156   3.437   3.804
57682SOL    HW274944   4.179   3.585   3.783
57683SOL     OW74945   8.392   3.040  11.920
57683SOL    HW174946   8.441   3.021  12.000
57683SOL    HW274947   8.392   2.957  11.871
57684SOL     OW74948   5.239  10.224   4.081
57684SOL    HW174949   5.257  10.310   4.042
57684SOL    HW274950   5.313  10.170   4.056
57685SOL     OW74951   6.808   5.512   9.518
57685SOL    HW174952   6.842   5.424   9.529
57685SOL    HW274953   6.713   5.502   9.519
57686SOL     OW74954   5.709   8.227   4.696
57686SOL    HW174955   5.758   8.192   4.622
57686SOL    HW274956   5.656   8.154   4.726
57687SOL     OW74957   6.466  11.614  10.933
57687SOL    HW174958   6.435  11.687  10.986
57687SOL    HW274959   6.524  11.565  10.990
57688SOL     OW74960  14.246   6.729   0.682
57688SOL    HW174961  14.287   6.731   0.596
57688SOL    HW274962  14.314   6.696   0.741
57689SOL     OW74963   8.228   3.802   2.382
57689SOL    HW174964   8.163   3.767   2.443
57689SOL    HW274965   8.302   3.742   2.389
57690SOL     OW74966   8.472  12.410   6.747
57690SOL    HW174967   8.469  12.481   6.683
57690SOL    HW274968   8.506  12.335   6.699
57691SOL     OW74969  11.739  13.827   7.432
57691SOL    HW174970  11.763  13.736   7.449
57691SOL    HW274971  11.644  13.826   7.427
57692SOL     OW74972   8.967  12.448   0.131
57692SOL    HW174973   9.039  12.510   0.122
57692SOL    HW274974   9.004  12.376   0.182
57693SOL     OW74975  14.303   4.924   4.281
57693SOL    HW174976  14.329   5.015   4.266
57693SOL    HW274977  14.353   4.874   4.217
57694SOL     OW74978  12.347   9.747   8.416
57694SOL    HW174979  12.350   9.711   8.505
57694SOL    HW274980  12.439   9.760   8.393
57695SOL     OW74981   4.306  13.424  12.808
57695SOL    HW174982   4.329  13.335  12.780
57695SOL    HW274983   4.308  13.475  12.727
57696SOL     OW74984   0.204  12.206   4.879
57696SOL    HW174985   0.223  12.130   4.933
57696SOL    HW274986   0.289  12.233   4.845
57697SOL     OW74987   2.452   7.263   2.443
57697SOL    HW174988   2.418   7.231   2.359
57697SOL    HW274989   2.504   7.340   2.419
57698SOL     OW74990   0.482   8.110  10.347
57698SOL    HW174991   0.506   8.198  10.376
57698SOL    HW274992   0.562   8.059  10.358
57699SOL     OW74993   2.056  10.693  12.830
57699SOL    HW174994   2.098  10.620  12.875
57699SOL    HW274995   2.048  10.665  12.739
57700SOL     OW74996   1.144   1.617   9.017
57700SOL    HW174997   1.186   1.615   8.931
57700SOL    HW274998   1.180   1.541   9.063
57701SOL     OW74999   4.144   0.480  13.596
57701SOL    HW175000   4.117   0.515  13.681
57701SOL    HW275001   4.223   0.429  13.614
57702SOL     OW75002  10.190  11.818   0.394
57702SOL    HW175003  10.166  11.874   0.320
57702SOL    HW275004  10.285  11.818   0.394
57703SOL     OW75005  10.952   1.141  13.238
57703SOL    HW175006  10.935   1.134  13.144
57703SOL    HW275007  10.892   1.210  13.268
57704SOL     OW75008   6.500  13.617  10.098
57704SOL    HW175009   6.540  13.689  10.146
57704SOL    HW275010   6.558  13.543  10.113
57705SOL     OW75011  11.306   5.172   7.529
57705SOL    HW175012  11.289   5.265   7.516
57705SOL    HW275013  11.372   5.151   7.462
57706SOL     OW75014   1.241  14.748   0.125
57706SOL    HW175015   1.231  14.815   0.058
57706SOL    HW275016   1.271  14.796   0.203
57707SOL     OW75017  12.328   2.774   7.966
57707SOL    HW175018  12.276   2.729   8.033
57707SOL    HW275019  12.303   2.866   7.973
57708SOL     OW75020  12.574   6.234   6.704
57708SOL    HW175021  12.579   6.321   6.742
57708SOL    HW275022  12.620   6.178   6.768
57709SOL     OW75023   0.204  12.829   8.092
57709SOL    HW175024   0.256  12.908   8.108
57709SOL    HW275025   0.118  12.862   8.065
57710SOL     OW75026   6.905  13.311   9.959
57710SOL    HW175027   6.914  13.382   9.895
57710SOL    HW275028   6.981  13.320  10.016
57711SOL     OW75029   1.667   3.632   5.318
57711SOL    HW175030   1.700   3.559   5.265
57711SOL    HW275031   1.639   3.592   5.400
57712SOL     OW75032   4.688   0.482   6.875
57712SOL    HW175033   4.763   0.524   6.918
57712SOL    HW275034   4.654   0.550   6.816
57713SOL     OW75035   1.885   6.478  10.123
57713SOL    HW175036   1.927   6.449  10.043
57713SOL    HW275037   1.792   6.487  10.100
57714SOL     OW75038  13.138   8.410   0.236
57714SOL    HW175039  13.078   8.345   0.200
57714SOL    HW275040  13.212   8.359   0.268
57715SOL     OW75041   7.128   6.186  12.324
57715SOL    HW175042   7.172   6.158  12.243
57715SOL    HW275043   7.079   6.110  12.353
57716SOL     OW75044   7.394   1.566   0.200
57716SOL    HW175045   7.353   1.643   0.240
57716SOL    HW275046   7.346   1.491   0.236
57717SOL     OW75047   5.507   7.366   2.560
57717SOL    HW175048   5.581   7.349   2.502
57717SOL    HW275049   5.471   7.450   2.530
57718SOL     OW75050   8.156   4.422  12.713
57718SOL    HW175051   8.211   4.349  12.685
57718SOL    HW275052   8.212   4.500  12.703
57719SOL     OW75053   7.472   1.131   5.161
57719SOL    HW175054   7.426   1.056   5.123
57719SOL    HW275055   7.489   1.189   5.087
57720SOL     OW75056   0.978   9.254  14.091
57720SOL    HW175057   0.967   9.186  14.025
57720SOL    HW275058   0.890   9.290  14.104
57721SOL     OW75059   3.255  13.845   3.464
57721SOL    HW175060   3.263  13.929   3.418
57721SOL    HW275061   3.251  13.780   3.394
57722SOL     OW75062   8.341   8.759  14.796
57722SOL    HW175063   8.249   8.774  14.775
57722SOL    HW275064   8.386   8.838  14.765
57723SOL     OW75065   1.939   1.107   2.970
57723SOL    HW175066   1.875   1.117   2.900
57723SOL    HW275067   2.006   1.173   2.951
57724SOL     OW75068  13.260  12.103   3.013
57724SOL    HW175069  13.236  12.137   2.927
57724SOL    HW275070  13.177  12.095   3.061
57725SOL     OW75071  12.953   7.144   9.492
57725SOL    HW175072  12.974   7.113   9.581
57725SOL    HW275073  13.038   7.169   9.456
57726SOL     OW75074   4.705   7.215  14.674
57726SOL    HW175075   4.681   7.213  14.766
57726SOL    HW275076   4.627   7.248  14.629
57727SOL     OW75077   0.044   4.629   3.564
57727SOL    HW175078   0.009   4.543   3.541
57727SOL    HW275079   0.012   4.644   3.653
57728SOL     OW75080   7.484   7.063  10.051
57728SOL    HW175081   7.553   7.029   9.994
57728SOL    HW275082   7.425   6.989  10.064
57729SOL     OW75083  13.529   7.445  13.187
57729SOL    HW175084  13.511   7.393  13.265
57729SOL    HW275085  13.444   7.455  13.144
57730SOL     OW75086  12.640   1.980  10.393
57730SOL    HW175087  12.687   1.903  10.424
57730SOL    HW275088  12.662   1.985  10.300
57731SOL     OW75089  10.839  13.027  14.497
57731SOL    HW175090  10.792  12.945  14.507
57731SOL    HW275091  10.787  13.077  14.434
57732SOL     OW75092   7.244   5.892   9.769
57732SOL    HW175093   7.160   5.907   9.813
57732SOL    HW275094   7.293   5.973   9.785
57733SOL     OW75095   2.299  13.547   2.534
57733SOL    HW175096   2.235  13.536   2.465
57733SOL    HW275097   2.325  13.639   2.529
57734SOL     OW75098   0.025  13.651  14.472
57734SOL    HW175099   0.023  13.628  14.565
57734SOL    HW275100  14.842  13.723  14.464
57735SOL     OW75101   5.083   3.290   4.278
57735SOL    HW175102   5.068   3.333   4.363
57735SOL    HW275103   5.151   3.226   4.296
57736SOL     OW75104   8.805   0.864   6.736
57736SOL    HW175105   8.862   0.835   6.807
57736SOL    HW275106   8.815   0.960   6.735
57737SOL     OW75107   7.150   6.529   1.483
57737SOL    HW175108   7.137   6.613   1.439
57737SOL    HW275109   7.116   6.542   1.571
57738SOL     OW75110   4.077  11.658  10.513
57738SOL    HW175111   4.139  11.627  10.579
57738SOL    HW275112   4.116  11.738  10.479
57739SOL     OW75113  14.005   6.161  10.014
57739SOL    HW175114  14.088   6.119   9.992
57739SOL    HW275115  13.940   6.115   9.961
57740SOL     OW75116   5.446  14.715   9.705
57740SOL    HW175117   5.501  14.669   9.641
57740SOL    HW275118   5.363  14.667   9.704
57741SOL     OW75119   9.680   3.187   7.171
57741SOL    HW175120   9.736   3.178   7.248
57741SOL    HW275121   9.719   3.129   7.106
57742SOL     OW75122   2.163   6.001   3.435
57742SOL    HW175123   2.221   5.926   3.429
57742SOL    HW275124   2.222   6.077   3.435
57743SOL     OW75125  10.249   8.663   6.481
57743SOL    HW175126  10.274   8.679   6.572
57743SOL    HW275127  10.250   8.568   6.472
57744SOL     OW75128  11.744  13.274  14.000
57744SOL    HW175129  11.777  13.347  13.947
57744SOL    HW275130  11.665  13.246  13.955
57745SOL     OW75131   1.000   0.375   0.262
57745SOL    HW175132   0.931   0.402   0.323
57745SOL    HW275133   0.968   0.403   0.176
57746SOL     OW75134   0.707  13.923   4.240
57746SOL    HW175135   0.659  13.841   4.248
57746SOL    HW275136   0.776  13.905   4.176
57747SOL     OW75137   9.705  13.344   8.149
57747SOL    HW175138   9.642  13.322   8.080
57747SOL    HW275139   9.652  13.380   8.220
57748SOL     OW75140   4.298   1.187   6.443
57748SOL    HW175141   4.351   1.237   6.504
57748SOL    HW275142   4.324   1.220   6.357
57749SOL     OW75143  11.234   8.353   9.288
57749SOL    HW175144  11.144   8.373   9.264
57749SOL    HW275145  11.234   8.353   9.384
57750SOL     OW75146   4.286  11.350  13.335
57750SOL    HW175147   4.214  11.392  13.382
57750SOL    HW275148   4.364  11.399  13.362
57751SOL     OW75149   5.944   7.357   6.898
57751SOL    HW175150   5.911   7.371   6.809
57751SOL    HW275151   5.920   7.436   6.945
57752SOL     OW75152   5.346  14.497  13.217
57752SOL    HW175153   5.403  14.449  13.157
57752SOL    HW275154   5.325  14.578  13.171
57753SOL     OW75155  13.603   8.177  11.054
57753SOL    HW175156  13.685   8.129  11.069
57753SOL    HW275157  13.597   8.184  10.959
57754SOL     OW75158   9.408   3.199  12.676
57754SOL    HW175159   9.352   3.268  12.640
57754SOL    HW275160   9.465   3.173  12.603
57755SOL     OW75161   4.339   7.914   0.967
57755SOL    HW175162   4.348   7.922   0.872
57755SOL    HW275163   4.338   8.005   0.998
57756SOL     OW75164   7.348   1.287  10.828
57756SOL    HW175165   7.374   1.197  10.850
57756SOL    HW275166   7.346   1.289  10.733
57757SOL     OW75167   8.244  13.337   0.629
57757SOL    HW175168   8.313  13.310   0.568
57757SOL    HW275169   8.282  13.322   0.716
57758SOL     OW75170   0.068   2.817   7.277
57758SOL    HW175171   0.005   2.836   7.207
57758SOL    HW275172   0.033   2.739   7.320
57759SOL     OW75173   8.137  11.425  13.511
57759SOL    HW175174   8.083  11.428  13.432
57759SOL    HW275175   8.220  11.385  13.482
57760SOL     OW75176  13.485   0.491   5.821
57760SOL    HW175177  13.527   0.413   5.859
57760SOL    HW275178  13.535   0.564   5.856
57761SOL     OW75179   7.585   6.182   9.619
57761SOL    HW175180   7.493   6.175   9.644
57761SOL    HW275181   7.624   6.100   9.650
57762SOL     OW75182  12.552   8.362   4.170
57762SOL    HW175183  12.613   8.289   4.161
57762SOL    HW275184  12.509   8.368   4.085
57763SOL     OW75185   4.064  10.830   5.789
57763SOL    HW175186   4.024  10.768   5.729
57763SOL    HW275187   4.005  10.906   5.790
57764SOL     OW75188   0.656   0.377   4.894
57764SOL    HW175189   0.650   0.467   4.927
57764SOL    HW275190   0.651   0.386   4.799
57765SOL     OW75191   2.164   1.263  11.240
57765SOL    HW175192   2.105   1.227  11.173
57765SOL    HW275193   2.208   1.336  11.196
57766SOL     OW75194   6.852   0.956   5.493
57766SOL    HW175195   6.890   0.948   5.580
57766SOL    HW275196   6.814   1.044   5.492
57767SOL     OW75197   3.510  11.391  14.694
57767SOL    HW175198   3.491  11.319  14.755
57767SOL    HW275199   3.433  11.397  14.639
57768SOL     OW75200   7.023   8.047  14.331
57768SOL    HW175201   6.939   8.014  14.301
57768SOL    HW275202   7.086   7.978  14.308
57769SOL     OW75203   4.913   0.216  14.646
57769SOL    HW175204   4.937   0.307  14.630
57769SOL    HW275205   4.876   0.186  14.563
57770SOL     OW75206   3.332   8.803   3.822
57770SOL    HW175207   3.286   8.754   3.891
57770SOL    HW275208   3.390   8.739   3.782
57771SOL     OW75209  11.974  13.879   5.615
57771SOL    HW175210  11.937  13.844   5.697
57771SOL    HW275211  11.965  13.974   5.624
57772SOL     OW75212  12.324  14.302  10.449
57772SOL    HW175213  12.395  14.240  10.431
57772SOL    HW275214  12.314  14.351  10.367
57773SOL     OW75215  10.007   8.179  10.355
57773SOL    HW175216   9.932   8.152  10.407
57773SOL    HW275217  10.042   8.097  10.319
57774SOL     OW75218   2.317   9.999   2.838
57774SOL    HW175219   2.351  10.043   2.916
57774SOL    HW275220   2.365  10.040   2.765
57775SOL     OW75221  11.392  14.696   6.337
57775SOL    HW175222  11.389  14.600   6.340
57775SOL    HW275223  11.385  14.718   6.244
57776SOL     OW75224   5.840   7.724   1.818
57776SOL    HW175225   5.823   7.751   1.909
57776SOL    HW275226   5.887   7.798   1.780
57777SOL     OW75227  11.067   0.996   8.568
57777SOL    HW175228  11.084   1.022   8.477
57777SOL    HW275229  11.107   0.910   8.577
57778SOL     OW75230   0.888   0.172   5.078
57778SOL    HW175231   0.889   0.117   5.157
57778SOL    HW275232   0.977   0.207   5.073
57779SOL     OW75233   3.146   5.487   3.727
57779SOL    HW175234   3.182   5.545   3.661
57779SOL    HW275235   3.201   5.409   3.724
57780SOL     OW75236  13.441   8.668   7.634
57780SOL    HW175237  13.510   8.606   7.659
57780SOL    HW275238  13.409   8.636   7.550
57781SOL     OW75239   0.039   7.974  11.157
57781SOL    HW175240   0.046   7.936  11.070
57781SOL    HW275241   0.024   7.900  11.215
57782SOL     OW75242  10.651  11.975   4.418
57782SOL    HW175243  10.608  11.981   4.332
57782SOL    HW275244  10.734  11.930   4.400
57783SOL     OW75245   7.585   0.101   2.883
57783SOL    HW175246   7.634   0.172   2.843
57783SOL    HW275247   7.520   0.145   2.938
57784SOL     OW75248   8.880   8.308   6.361
57784SOL    HW175249   8.933   8.335   6.436
57784SOL    HW275250   8.927   8.343   6.285
57785SOL     OW75251  10.874   4.105   9.525
57785SOL    HW175252  10.934   4.110   9.600
57785SOL    HW275253  10.818   4.181   9.535
57786SOL     OW75254   8.564   9.951  12.401
57786SOL    HW175255   8.525   9.873  12.439
57786SOL    HW275256   8.625   9.983  12.469
57787SOL     OW75257  10.852  11.171   6.180
57787SOL    HW175258  10.808  11.250   6.151
57787SOL    HW275259  10.904  11.198   6.255
57788SOL     OW75260   0.970   0.957   1.447
57788SOL    HW175261   1.006   1.045   1.443
57788SOL    HW275262   0.956   0.933   1.355
57789SOL     OW75263   2.732   0.399  11.368
57789SOL    HW175264   2.689   0.354  11.296
57789SOL    HW275265   2.671   0.391  11.441
57790SOL     OW75266   8.729  10.143  10.939
57790SOL    HW175267   8.742  10.070  10.878
57790SOL    HW275268   8.761  10.220  10.892
57791SOL     OW75269   9.944  12.855   4.901
57791SOL    HW175270   9.971  12.919   4.966
57791SOL    HW275271   9.936  12.773   4.949
57792SOL     OW75272  14.436   0.424  11.757
57792SOL    HW175273  14.418   0.364  11.685
57792SOL    HW275274  14.451   0.509  11.715
57793SOL     OW75275  11.178   7.616   2.459
57793SOL    HW175276  11.093   7.658   2.464
57793SOL    HW275277  11.175   7.546   2.525
57794SOL     OW75278   6.400   1.773   6.861
57794SOL    HW175279   6.364   1.698   6.814
57794SOL    HW275280   6.324   1.818   6.898
57795SOL     OW75281   0.805  13.477   4.248
57795SOL    HW175282   0.846  13.470   4.162
57795SOL    HW275283   0.724  13.426   4.240
57796SOL     OW75284   2.034   9.455  14.086
57796SOL    HW175285   1.946   9.486  14.106
57796SOL    HW275286   2.046   9.475  13.993
57797SOL     OW75287  12.368   3.729   1.015
57797SOL    HW175288  12.282   3.770   1.026
57797SOL    HW275289  12.363   3.688   0.928
57798SOL     OW75290   7.063   9.659  11.279
57798SOL    HW175291   7.027   9.739  11.242
57798SOL    HW275292   7.064   9.597  11.206
57799SOL     OW75293  13.974   8.277   1.613
57799SOL    HW175294  13.911   8.340   1.578
57799SOL    HW275295  13.958   8.197   1.564
57800SOL     OW75296   0.042  13.915  10.690
57800SOL    HW175297  14.832  13.884  10.682
57800SOL    HW275298   0.084  13.853  10.748
57801SOL     OW75299  14.612  14.206   7.437
57801SOL    HW175300  14.558  14.181   7.512
57801SOL    HW275301  14.571  14.163   7.362
57802SOL     OW75302  11.227  10.544   9.026
57802SOL    HW175303  11.272  10.620   8.990
57802SOL    HW275304  11.235  10.476   8.959
57803SOL     OW75305   4.854  10.682   4.727
57803SOL    HW175306   4.818  10.674   4.639
57803SOL    HW275307   4.934  10.734   4.715
57804SOL     OW75308  11.173  11.519   2.894
57804SOL    HW175309  11.176  11.430   2.927
57804SOL    HW275310  11.245  11.525   2.831
57805SOL     OW75311   7.590   1.617   9.260
57805SOL    HW175312   7.622   1.686   9.318
57805SOL    HW275313   7.614   1.646   9.172
57806SOL     OW75314   2.001   9.825   5.745
57806SOL    HW175315   1.983   9.872   5.827
57806SOL    HW275316   2.054   9.886   5.694
57807SOL     OW75317  12.675  10.106   4.406
57807SOL    HW175318  12.586  10.134   4.427
57807SOL    HW275319  12.702  10.164   4.335
57808SOL     OW75320   7.793   1.752   4.318
57808SOL    HW175321   7.700   1.732   4.309
57808SOL    HW275322   7.836   1.667   4.321
57809SOL     OW75323   6.684  13.907  14.752
57809SOL    HW175324   6.770  13.871  14.773
57809SOL    HW275325   6.641  13.917  14.837
57810SOL     OW75326  12.523   1.616  10.220
57810SOL    HW175327  12.612   1.653  10.224
57810SOL    HW275328  12.521   1.568  10.137
57811SOL     OW75329  12.434  11.926   3.645
57811SOL    HW175330  12.356  11.964   3.686
57811SOL    HW275331  12.408  11.908   3.555
57812SOL     OW75332   3.750  11.365   6.271
57812SOL    HW175333   3.703  11.331   6.195
57812SOL    HW275334   3.706  11.324   6.346
57813SOL     OW75335   8.972   8.370   1.033
57813SOL    HW175336   9.048   8.338   0.984
57813SOL    HW275337   9.008   8.429   1.099
57814SOL     OW75338   3.935  10.722   8.190
57814SOL    HW175339   3.911  10.629   8.198
57814SOL    HW275340   3.973  10.729   8.102
57815SOL     OW75341   9.790  14.633  12.900
57815SOL    HW175342   9.873  14.606  12.861
57815SOL    HW275343   9.784  14.726  12.880
57816SOL     OW75344  11.436   1.605   0.068
57816SOL    HW175345  11.354   1.614   0.019
57816SOL    HW275346  11.482   1.532   0.025
57817SOL     OW75347   5.133  14.614   8.644
57817SOL    HW175348   5.196  14.548   8.671
57817SOL    HW275349   5.171  14.697   8.672
57818SOL     OW75350   5.752   4.795   6.605
57818SOL    HW175351   5.782   4.802   6.514
57818SOL    HW275352   5.761   4.884   6.640
57819SOL     OW75353   5.761  13.716  12.895
57819SOL    HW175354   5.847  13.731  12.934
57819SOL    HW275355   5.719  13.802  12.895
57820SOL     OW75356   0.434  14.747  10.303
57820SOL    HW175357   0.349  14.748  10.347
57820SOL    HW275358   0.421  14.797  10.223
57821SOL     OW75359   7.806   9.186   7.618
57821SOL    HW175360   7.858   9.133   7.558
57821SOL    HW275361   7.870   9.243   7.660
57822SOL     OW75362   4.247   7.220  13.498
57822SOL    HW175363   4.244   7.212  13.403
57822SOL    HW275364   4.157   7.204  13.527
57823SOL     OW75365   1.306   0.378   0.835
57823SOL    HW175366   1.390   0.333   0.823
57823SOL    HW275367   1.313   0.456   0.780
57824SOL     OW75368  13.539   9.924   6.606
57824SOL    HW175369  13.447   9.940   6.588
57824SOL    HW275370  13.565   9.993   6.667
57825SOL     OW75371  12.873  13.501  13.031
57825SOL    HW175372  12.911  13.583  13.063
57825SOL    HW275373  12.793  13.490  13.083
57826SOL     OW75374   0.001   1.442  12.814
57826SOL    HW175375  14.859   1.532  12.792
57826SOL    HW275376  14.810   1.390  12.777
57827SOL     OW75377   6.106  11.788  13.028
57827SOL    HW175378   6.090  11.873  12.987
57827SOL    HW275379   6.150  11.808  13.110
57828SOL     OW75380   6.608   2.079   3.421
57828SOL    HW175381   6.646   1.994   3.396
57828SOL    HW275382   6.677   2.143   3.401
57829SOL     OW75383   0.569   4.511  10.786
57829SOL    HW175384   0.528   4.444  10.733
57829SOL    HW275385   0.497   4.566  10.817
57830SOL     OW75386   6.637   2.671   4.415
57830SOL    HW175387   6.576   2.608   4.377
57830SOL    HW275388   6.718   2.659   4.366
57831SOL     OW75389   4.746  11.309   8.697
57831SOL    HW175390   4.748  11.384   8.637
57831SOL    HW275391   4.778  11.344   8.780
57832SOL     OW75392   8.157   6.598   0.894
57832SOL    HW175393   8.235   6.643   0.862
57832SOL    HW275394   8.112   6.663   0.948
57833SOL     OW75395   9.546   1.882   9.323
57833SOL    HW175396   9.601   1.856   9.249
57833SOL    HW275397   9.606   1.888   9.397
57834SOL     OW75398  10.637   0.275   6.142
57834SOL    HW175399  10.545   0.256   6.122
57834SOL    HW275400  10.685   0.243   6.065
57835SOL     OW75401  13.166  13.407   5.365
57835SOL    HW175402  13.238  13.409   5.428
57835SOL    HW275403  13.177  13.488   5.314
57836SOL     OW75404  12.658   3.047   7.121
57836SOL    HW175405  12.679   3.059   7.028
57836SOL    HW275406  12.563   3.050   7.124
57837SOL     OW75407  12.888   2.849  12.783
57837SOL    HW175408  12.950   2.776  12.787
57837SOL    HW275409  12.838   2.834  12.702
57838SOL     OW75410   8.537   4.709   7.738
57838SOL    HW175411   8.536   4.768   7.814
57838SOL    HW275412   8.487   4.633   7.766
57839SOL     OW75413   2.537  12.937  13.920
57839SOL    HW175414   2.551  12.844  13.903
57839SOL    HW275415   2.617  12.979  13.888
57840SOL     OW75416   4.499   2.966   4.426
57840SOL    HW175417   4.566   3.033   4.412
57840SOL    HW275418   4.473   2.978   4.518
57841SOL     OW75419   5.136   3.327   9.928
57841SOL    HW175420   5.099   3.351   9.844
57841SOL    HW275421   5.068   3.275   9.970
57842SOL     OW75422  14.504  14.313   3.089
57842SOL    HW175423  14.526  14.406   3.095
57842SOL    HW275424  14.563  14.279   3.022
57843SOL     OW75425   5.645  13.744   1.742
57843SOL    HW175426   5.602  13.829   1.746
57843SOL    HW275427   5.670  13.734   1.650
57844SOL     OW75428   0.535   5.915   8.357
57844SOL    HW175429   0.483   5.989   8.387
57844SOL    HW275430   0.476   5.840   8.362
57845SOL     OW75431  13.841   9.407   4.868
57845SOL    HW175432  13.900   9.351   4.918
57845SOL    HW275433  13.874   9.402   4.778
57846SOL     OW75434   9.608   2.590  10.105
57846SOL    HW175435   9.565   2.602  10.189
57846SOL    HW275436   9.699   2.569  10.128
57847SOL     OW75437   9.404  12.360   1.019
57847SOL    HW175438   9.482  12.314   0.990
57847SOL    HW275439   9.340  12.347   0.949
57848SOL     OW75440   2.226  13.799   5.778
57848SOL    HW175441   2.278  13.870   5.815
57848SOL    HW275442   2.149  13.794   5.834
57849SOL     OW75443   9.760   9.839   1.571
57849SOL    HW175444   9.773   9.768   1.508
57849SOL    HW275445   9.849   9.867   1.594
57850SOL     OW75446   9.726   2.585  10.763
57850SOL    HW175447   9.665   2.583  10.689
57850SOL    HW275448   9.736   2.493  10.789
57851SOL     OW75449   9.100   3.111   1.134
57851SOL    HW175450   9.132   3.121   1.045
57851SOL    HW275451   9.171   3.145   1.189
57852SOL     OW75452   3.191   0.814   4.444
57852SOL    HW175453   3.227   0.726   4.452
57852SOL    HW275454   3.219   0.844   4.358
57853SOL     OW75455  10.511   2.710   3.898
57853SOL    HW175456  10.525   2.804   3.890
57853SOL    HW275457  10.579   2.681   3.959
57854SOL     OW75458  12.055  12.075   9.081
57854SOL    HW175459  11.983  12.124   9.041
57854SOL    HW275460  12.055  11.992   9.034
57855SOL     OW75461   7.819   2.647   5.302
57855SOL    HW175462   7.822   2.611   5.214
57855SOL    HW275463   7.754   2.594   5.348
57856SOL     OW75464  11.610   6.059   9.648
57856SOL    HW175465  11.556   6.133   9.622
57856SOL    HW275466  11.594   5.992   9.582
57857SOL     OW75467   6.541  10.461   7.354
57857SOL    HW175468   6.482  10.531   7.384
57857SOL    HW275469   6.576  10.423   7.435
57858SOL     OW75470   7.367   8.089  13.360
57858SOL    HW175471   7.401   8.165  13.408
57858SOL    HW275472   7.389   8.107  13.269
57859SOL     OW75473  10.290   2.023   6.913
57859SOL    HW175474  10.360   1.993   6.972
57859SOL    HW275475  10.318   2.110   6.884
57860SOL     OW75476   7.832  11.382  12.642
57860SOL    HW175477   7.744  11.343  12.641
57860SOL    HW275478   7.816  11.476  12.638
57861SOL     OW75479  13.438  14.070   9.017
57861SOL    HW175480  13.377  14.100   9.084
57861SOL    HW275481  13.405  14.108   8.935
57862SOL     OW75482   1.596  10.451   1.464
57862SOL    HW175483   1.677  10.498   1.481
57862SOL    HW275484   1.568  10.418   1.549
57863SOL     OW75485   2.340   9.926   1.443
57863SOL    HW175486   2.293  10.001   1.477
57863SOL    HW275487   2.288   9.896   1.368
57864SOL     OW75488   3.498   5.654   9.091
57864SOL    HW175489   3.544   5.725   9.138
57864SOL    HW275490   3.562   5.583   9.087
57865SOL     OW75491   1.114   1.483   7.238
57865SOL    HW175492   1.084   1.572   7.253
57865SOL    HW275493   1.158   1.486   7.153
57866SOL     OW75494   7.354  11.119   6.334
57866SOL    HW175495   7.362  11.065   6.413
57866SOL    HW275496   7.442  11.153   6.319
57867SOL     OW75497   1.161  13.035   5.875
57867SOL    HW175498   1.124  13.089   5.805
57867SOL    HW275499   1.103  13.050   5.950
57868SOL     OW75500   9.872   6.923   1.526
57868SOL    HW175501   9.807   6.992   1.540
57868SOL    HW275502   9.828   6.862   1.466
57869SOL     OW75503   4.791  10.577   3.429
57869SOL    HW175504   4.707  10.621   3.416
57869SOL    HW275505   4.818  10.551   3.341
57870SOL     OW75506   4.165   3.833   2.748
57870SOL    HW175507   4.232   3.766   2.731
57870SOL    HW275508   4.127   3.808   2.832
57871SOL     OW75509  13.853   7.430  12.757
57871SOL    HW175510  13.925   7.482  12.795
57871SOL    HW275511  13.782   7.438  12.820
57872SOL     OW75512   7.601   0.018  10.938
57872SOL    HW175513   7.635   0.074  10.868
57872SOL    HW275514   7.512  14.875  10.909
57873SOL     OW75515   3.749   4.281  12.310
57873SOL    HW175516   3.663   4.308  12.342
57873SOL    HW275517   3.786   4.360  12.271
57874SOL     OW75518   9.872  12.362  12.559
57874SOL    HW175519   9.791  12.411  12.540
57874SOL    HW275520   9.942  12.426  12.546
57875SOL     OW75521   9.291   7.861   2.795
57875SOL    HW175522   9.383   7.882   2.779
57875SOL    HW275523   9.283   7.769   2.771
57876SOL     OW75524   7.194  10.729   8.713
57876SOL    HW175525   7.226  10.672   8.643
57876SOL    HW275526   7.150  10.801   8.668
57877SOL     OW75527  14.664  12.390  12.125
57877SOL    HW175528  14.577  12.366  12.095
57877SOL    HW275529  14.699  12.447  12.056
57878SOL     OW75530  12.206   2.313   3.268
57878SOL    HW175531  12.215   2.405   3.291
57878SOL    HW275532  12.125   2.285   3.311
57879SOL     OW75533   5.569   5.563   3.422
57879SOL    HW175534   5.552   5.657   3.413
57879SOL    HW275535   5.642   5.558   3.484
57880SOL     OW75536   1.126   6.554  13.931
57880SOL    HW175537   1.154   6.642  13.956
57880SOL    HW275538   1.033   6.564  13.911
57881SOL     OW75539  10.231   3.050   1.395
57881SOL    HW175540  10.225   3.144   1.415
57881SOL    HW275541  10.284   3.045   1.316
57882SOL     OW75542   0.221  10.525   8.939
57882SOL    HW175543   0.197  10.618   8.937
57882SOL    HW275544   0.285  10.519   9.010
57883SOL     OW75545  12.650   4.080   9.133
57883SOL    HW175546  12.664   4.175   9.134
57883SOL    HW275547  12.643   4.058   9.041
57884SOL     OW75548   9.548   1.411  10.106
57884SOL    HW175549   9.572   1.457  10.026
57884SOL    HW275550   9.573   1.320  10.091
57885SOL     OW75551  13.732   4.369   9.300
57885SOL    HW175552  13.821   4.346   9.327
57885SOL    HW275553  13.676   4.312   9.351
57886SOL     OW75554   0.319   4.853   7.899
57886SOL    HW175555   0.373   4.925   7.931
57886SOL    HW275556   0.231   4.874   7.928
57887SOL     OW75557  13.388   2.412   0.705
57887SOL    HW175558  13.378   2.505   0.723
57887SOL    HW275559  13.416   2.407   0.614
57888SOL     OW75560   2.491  13.731  14.075
57888SOL    HW175561   2.409  13.720  14.124
57888SOL    HW275562   2.487  13.664  14.007
57889SOL     OW75563  14.117  13.287   2.761
57889SOL    HW175564  14.211  13.304   2.772
57889SOL    HW275565  14.104  13.201   2.800
57890SOL     OW75566   3.164   9.062   7.670
57890SOL    HW175567   3.184   8.974   7.701
57890SOL    HW275568   3.195   9.063   7.580
57891SOL     OW75569   6.196   9.195  14.497
57891SOL    HW175570   6.191   9.115  14.550
57891SOL    HW275571   6.268   9.244  14.535
57892SOL     OW75572  14.380   5.751  13.419
57892SOL    HW175573  14.350   5.819  13.479
57892SOL    HW275574  14.310   5.742  13.355
57893SOL     OW75575  11.529   3.478   2.300
57893SOL    HW175576  11.566   3.527   2.373
57893SOL    HW275577  11.444   3.519   2.283
57894SOL     OW75578  11.732   3.804   2.239
57894SOL    HW175579  11.768   3.720   2.210
57894SOL    HW275580  11.639   3.787   2.251
57895SOL     OW75581  10.927   8.862   0.416
57895SOL    HW175582  10.975   8.788   0.452
57895SOL    HW275583  10.836   8.834   0.416
57896SOL     OW75584   9.363   1.284   4.531
57896SOL    HW175585   9.272   1.291   4.560
57896SOL    HW275586   9.414   1.294   4.611
57897SOL     OW75587   0.027   9.576   1.552
57897SOL    HW175588   0.060   9.538   1.633
57897SOL    HW275589  14.813   9.559   1.553
57898SOL     OW75590  13.732   3.116   4.229
57898SOL    HW175591  13.756   3.098   4.139
57898SOL    HW275592  13.814   3.144   4.271
57899SOL     OW75593   1.847   0.769  12.560
57899SOL    HW175594   1.768   0.735  12.517
57899SOL    HW275595   1.904   0.692  12.568
57900SOL     OW75596  14.789   1.306   2.093
57900SOL    HW175597  14.786   1.308   2.189
57900SOL    HW275598  14.793   1.213   2.072
57901SOL     OW75599   3.793  13.972   3.190
57901SOL    HW175600   3.849  14.004   3.119
57901SOL    HW275601   3.764  13.886   3.160
57902SOL     OW75602  13.585  13.255  12.761
57902SOL    HW175603  13.544  13.240  12.675
57902SOL    HW275604  13.630  13.338  12.751
57903SOL     OW75605   5.922   2.038   7.347
57903SOL    HW175606   5.860   2.074   7.283
57903SOL    HW275607   5.950   1.955   7.310
57904SOL     OW75608   6.234  13.765   5.110
57904SOL    HW175609   6.309  13.807   5.068
57904SOL    HW275610   6.167  13.760   5.042
57905SOL     OW75611   7.435   3.675   1.433
57905SOL    HW175612   7.442   3.723   1.515
57905SOL    HW275613   7.451   3.584   1.458
57906SOL     OW75614  10.007   1.728   4.505
57906SOL    HW175615  10.100   1.709   4.497
57906SOL    HW275616   9.980   1.754   4.417
57907SOL     OW75617   6.839   2.029  11.350
57907SOL    HW175618   6.877   1.977  11.420
57907SOL    HW275619   6.756   2.060  11.385
57908SOL     OW75620  12.690  10.371  13.519
57908SOL    HW175621  12.747  10.424  13.574
57908SOL    HW275622  12.621  10.341  13.579
57909SOL     OW75623  14.787   2.352   7.613
57909SOL    HW175624  14.784   2.313   7.700
57909SOL    HW275625  14.769   2.279   7.554
57910SOL     OW75626  12.145  10.094   0.245
57910SOL    HW175627  12.132  10.044   0.326
57910SOL    HW275628  12.124  10.185   0.269
57911SOL     OW75629  11.820  12.533   0.972
57911SOL    HW175630  11.886  12.476   1.012
57911SOL    HW275631  11.736  12.501   1.004
57912SOL     OW75632   8.841   5.434   2.734
57912SOL    HW175633   8.751   5.426   2.765
57912SOL    HW275634   8.880   5.501   2.791
57913SOL     OW75635  12.134  13.170  13.416
57913SOL    HW175636  12.159  13.091  13.367
57913SOL    HW275637  12.045  13.190  13.386
57914SOL     OW75638   6.533   7.384   9.929
57914SOL    HW175639   6.539   7.371  10.024
57914SOL    HW275640   6.439   7.389   9.912
57915SOL     OW75641   1.426  14.379  11.106
57915SOL    HW175642   1.335  14.367  11.079
57915SOL    HW275643   1.468  14.421  11.031
57916SOL     OW75644   7.052   7.554   8.756
57916SOL    HW175645   7.046   7.565   8.850
57916SOL    HW275646   7.126   7.608   8.730
57917SOL     OW75647  10.189  14.865   9.366
57917SOL    HW175648  10.191  14.793   9.429
57917SOL    HW275649  10.098   0.017   9.370
57918SOL     OW75650   7.814  11.942   5.664
57918SOL    HW175651   7.770  11.871   5.618
57918SOL    HW275652   7.906  11.934   5.641
57919SOL     OW75653   3.396   1.973   4.657
57919SOL    HW175654   3.350   1.911   4.600
57919SOL    HW275655   3.483   1.935   4.668
57920SOL     OW75656  13.525   8.213   2.463
57920SOL    HW175657  13.511   8.186   2.372
57920SOL    HW275658  13.588   8.284   2.458
57921SOL     OW75659  13.103   1.241   4.279
57921SOL    HW175660  13.095   1.146   4.266
57921SOL    HW275661  13.084   1.253   4.372
57922SOL     OW75662   1.384  14.325   9.584
57922SOL    HW175663   1.433  14.385   9.527
57922SOL    HW275664   1.359  14.379   9.659
57923SOL     OW75665  13.570   2.269   0.233
57923SOL    HW175666  13.495   2.302   0.184
57923SOL    HW275667  13.644   2.323   0.203
57924SOL     OW75668  13.918   4.512   7.791
57924SOL    HW175669  13.851   4.516   7.859
57924SOL    HW275670  13.989   4.461   7.830
57925SOL     OW75671  14.337   7.167   0.693
57925SOL    HW175672  14.354   7.120   0.775
57925SOL    HW275673  14.328   7.258   0.719
57926SOL     OW75674  12.777  10.828   8.989
57926SOL    HW175675  12.737  10.858   8.908
57926SOL    HW275676  12.721  10.756   9.018
57927SOL     OW75677  13.132   4.690   3.623
57927SOL    HW175678  13.157   4.651   3.539
57927SOL    HW275679  13.037   4.677   3.627
57928SOL     OW75680   8.945  13.495  13.670
57928SOL    HW175681   8.876  13.430  13.673
57928SOL    HW275682   9.019  13.455  13.717
57929SOL     OW75683   0.716  10.974  12.467
57929SOL    HW175684   0.655  10.951  12.397
57929SOL    HW275685   0.784  10.907  12.462
57930SOL     OW75686  11.278   2.973   1.521
57930SOL    HW175687  11.220   3.048   1.512
57930SOL    HW275688  11.317   2.982   1.608
57931SOL     OW75689  11.776  13.403  11.588
57931SOL    HW175690  11.715  13.422  11.517
57931SOL    HW275691  11.731  13.336  11.640
57932SOL     OW75692  10.990  13.496   0.716
57932SOL    HW175693  10.972  13.508   0.810
57932SOL    HW275694  11.074  13.450   0.713
57933SOL     OW75695  13.450  10.503   6.406
57933SOL    HW175696  13.406  10.424   6.439
57933SOL    HW275697  13.385  10.573   6.416
57934SOL     OW75698   5.465   1.006  12.848
57934SOL    HW175699   5.495   1.075  12.788
57934SOL    HW275700   5.446   0.931  12.791
57935SOL     OW75701   2.086   7.390   1.478
57935SOL    HW175702   2.081   7.332   1.403
57935SOL    HW275703   2.142   7.462   1.450
57936SOL     OW75704  12.823   2.915   2.532
57936SOL    HW175705  12.815   2.999   2.486
57936SOL    HW275706  12.732   2.892   2.555
57937SOL     OW75707   5.787  12.966   8.695
57937SOL    HW175708   5.821  12.940   8.780
57937SOL    HW275709   5.723  13.035   8.715
57938SOL     OW75710   4.019   6.387  12.145
57938SOL    HW175711   3.928   6.397  12.173
57938SOL    HW275712   4.069   6.390  12.226
57939SOL     OW75713   8.131   1.340  12.320
57939SOL    HW175714   8.151   1.348  12.413
57939SOL    HW275715   8.037   1.358  12.314
57940SOL     OW75716  14.580   3.753   9.415
57940SOL    HW175717  14.511   3.728   9.354
57940SOL    HW275718  14.654   3.696   9.394
57941SOL     OW75719   3.214  12.404  12.808
57941SOL    HW175720   3.120  12.396  12.824
57941SOL    HW275721   3.239  12.321  12.768
57942SOL     OW75722   0.314   2.020  10.241
57942SOL    HW175723   0.248   1.964  10.201
57942SOL    HW275724   0.304   2.005  10.335
57943SOL     OW75725  12.453   8.992  10.564
57943SOL    HW175726  12.387   8.959  10.624
57943SOL    HW275727  12.528   8.934  10.576
57944SOL     OW75728  13.851   2.520   1.985
57944SOL    HW175729  13.895   2.451   2.034
57944SOL    HW275730  13.839   2.484   1.897
57945SOL     OW75731   7.809   3.133  10.358
57945SOL    HW175732   7.745   3.063  10.345
57945SOL    HW275733   7.771   3.188  10.425
57946SOL     OW75734   1.907  14.745  11.426
57946SOL    HW175735   1.916  14.751  11.331
57946SOL    HW275736   1.812  14.744  11.441
57947SOL     OW75737  11.647  14.094  12.395
57947SOL    HW175738  11.713  14.163  12.385
57947SOL    HW275739  11.693  14.013  12.374
57948SOL     OW75740   3.809   1.523  11.841
57948SOL    HW175741   3.797   1.556  11.930
57948SOL    HW275742   3.892   1.561  11.812
57949SOL     OW75743   3.214   1.550   3.255
57949SOL    HW175744   3.239   1.545   3.347
57949SOL    HW275745   3.197   1.459   3.231
57950SOL     OW75746  11.292   4.383  13.355
57950SOL    HW175747  11.381   4.391  13.388
57950SOL    HW275748  11.300   4.389  13.260
57951SOL     OW75749  13.276   8.048  11.560
57951SOL    HW175750  13.239   8.115  11.618
57951SOL    HW275751  13.280   7.969  11.615
57952SOL     OW75752   0.437  13.778   8.395
57952SOL    HW175753   0.368  13.729   8.440
57952SOL    HW275754   0.516  13.759   8.446
57953SOL     OW75755   4.498  13.385   8.388
57953SOL    HW175756   4.436  13.364   8.458
57953SOL    HW275757   4.554  13.308   8.382
57954SOL     OW75758   1.389   7.219   6.762
57954SOL    HW175759   1.412   7.213   6.669
57954SOL    HW275760   1.455   7.278   6.799
57955SOL     OW75761  14.828   5.900   2.962
57955SOL    HW175762  14.816   5.995   2.963
57955SOL    HW275763   0.033   5.886   3.004
57956SOL     OW75764   9.029   8.277  12.532
57956SOL    HW175765   9.075   8.360  12.541
57956SOL    HW275766   8.949   8.288  12.582
57957SOL     OW75767  12.398   6.457  13.627
57957SOL    HW175768  12.334   6.423  13.565
57957SOL    HW275769  12.477   6.471  13.575
57958SOL     OW75770   4.421  12.816  11.475
57958SOL    HW175771   4.414  12.747  11.408
57958SOL    HW275772   4.501  12.795  11.522
57959SOL     OW75773   9.605   9.276  11.712
57959SOL    HW175774   9.584   9.368  11.731
57959SOL    HW275775   9.701   9.272  11.722
57960SOL     OW75776   0.724   1.723   7.978
57960SOL    HW175777   0.723   1.712   8.073
57960SOL    HW275778   0.798   1.670   7.949
57961SOL     OW75779   1.735   6.192   9.116
57961SOL    HW175780   1.818   6.196   9.164
57961SOL    HW275781   1.713   6.284   9.100
57962SOL     OW75782   2.655   6.481  12.903
57962SOL    HW175783   2.703   6.406  12.937
57962SOL    HW275784   2.573   6.444  12.868
57963SOL     OW75785  12.945  11.950  12.697
57963SOL    HW175786  12.874  11.998  12.654
57963SOL    HW275787  12.999  11.917  12.625
57964SOL     OW75788  11.816   6.934   7.303
57964SOL    HW175789  11.775   7.004   7.354
57964SOL    HW275790  11.752   6.912   7.235
57965SOL     OW75791  12.701  13.245   0.055
57965SOL    HW175792  12.788  13.270   0.024
57965SOL    HW275793  12.670  13.181  14.871
57966SOL     OW75794   7.065  10.157   6.820
57966SOL    HW175795   7.064  10.179   6.727
57966SOL    HW275796   7.057  10.062   6.822
57967SOL     OW75797   0.497   3.471   8.841
57967SOL    HW175798   0.577   3.522   8.830
57967SOL    HW275799   0.527   3.389   8.881
57968SOL     OW75800   4.276   3.796   4.261
57968SOL    HW175801   4.291   3.853   4.337
57968SOL    HW275802   4.244   3.714   4.299
57969SOL     OW75803   1.171  13.471   7.426
57969SOL    HW175804   1.182  13.550   7.373
57969SOL    HW275805   1.146  13.504   7.512
57970SOL     OW75806   2.665   6.197   3.440
57970SOL    HW175807   2.605   6.184   3.366
57970SOL    HW275808   2.696   6.109   3.462
57971SOL     OW75809   0.516  13.513   6.227
57971SOL    HW175810   0.597  13.558   6.247
57971SOL    HW275811   0.542  13.439   6.172
57972SOL     OW75812   7.346   3.096   5.115
57972SOL    HW175813   7.388   3.072   5.198
57972SOL    HW275814   7.413   3.145   5.068
57973SOL     OW75815  10.984   8.492  14.337
57973SOL    HW175816  10.971   8.485  14.432
57973SOL    HW275817  11.077   8.508  14.327
57974SOL     OW75818  11.248  11.921   1.604
57974SOL    HW175819  11.198  11.922   1.685
57974SOL    HW275820  11.332  11.881   1.627
57975SOL     OW75821   2.104   2.734   7.436
57975SOL    HW175822   2.199   2.739   7.421
57975SOL    HW275823   2.093   2.762   7.526
57976SOL     OW75824   6.948   3.334  13.308
57976SOL    HW175825   6.961   3.295  13.395
57976SOL    HW275826   6.906   3.418  13.326
57977SOL     OW75827   8.944   5.372   0.011
57977SOL    HW175828   8.897   5.417   0.081
57977SOL    HW275829   8.933   5.279   0.031
57978SOL     OW75830  14.482   6.126   2.161
57978SOL    HW175831  14.433   6.060   2.112
57978SOL    HW275832  14.499   6.084   2.246
57979SOL     OW75833  10.308   3.456   3.915
57979SOL    HW175834  10.244   3.412   3.858
57979SOL    HW275835  10.360   3.385   3.952
57980SOL     OW75836   0.053   5.162   0.160
57980SOL    HW175837   0.022   5.202   0.079
57980SOL    HW275838   0.107   5.088   0.131
57981SOL     OW75839   4.589  12.437   0.352
57981SOL    HW175840   4.551  12.519   0.383
57981SOL    HW275841   4.514  12.381   0.334
57982SOL     OW75842   5.066   8.114   0.015
57982SOL    HW175843   5.043   8.058   0.089
57982SOL    HW275844   5.099   8.194   0.055
57983SOL     OW75845   1.471   3.324   3.488
57983SOL    HW175846   1.376   3.326   3.476
57983SOL    HW275847   1.493   3.231   3.492
57984SOL     OW75848   6.376   1.483  11.950
57984SOL    HW175849   6.379   1.413  11.886
57984SOL    HW275850   6.468   1.506  11.965
57985SOL     OW75851  13.668  10.014   8.301
57985SOL    HW175852  13.675  10.072   8.377
57985SOL    HW275853  13.753  10.022   8.257
57986SOL     OW75854   1.569   5.368   5.624
57986SOL    HW175855   1.511   5.373   5.548
57986SOL    HW275856   1.656   5.351   5.587
57987SOL     OW75857   4.252   5.478   9.088
57987SOL    HW175858   4.235   5.396   9.134
57987SOL    HW275859   4.275   5.541   9.157
57988SOL     OW75860  14.002   5.516   4.067
57988SOL    HW175861  14.048   5.594   4.036
57988SOL    HW275862  13.960   5.481   3.988
57989SOL     OW75863  11.882   2.112   6.242
57989SOL    HW175864  11.843   2.200   6.240
57989SOL    HW275865  11.900   2.092   6.150
57990SOL     OW75866  10.546  14.510   6.661
57990SOL    HW175867  10.598  14.531   6.583
57990SOL    HW275868  10.596  14.546   6.734
57991SOL     OW75869  10.121   4.217   5.537
57991SOL    HW175870  10.099   4.293   5.483
57991SOL    HW275871  10.055   4.217   5.606
57992SOL     OW75872   1.409   3.004  11.102
57992SOL    HW175873   1.448   2.941  11.043
57992SOL    HW275874   1.387   2.954  11.180
57993SOL     OW75875  12.994   6.159  14.360
57993SOL    HW175876  13.059   6.162  14.291
57993SOL    HW275877  13.039   6.119  14.435
57994SOL     OW75878  10.880   1.473   0.792
57994SOL    HW175879  10.854   1.542   0.731
57994SOL    HW275880  10.972   1.490   0.810
57995SOL     OW75881   1.958   2.877   5.372
57995SOL    HW175882   2.012   2.798   5.368
57995SOL    HW275883   1.873   2.847   5.403
57996SOL     OW75884  10.946   0.473   1.855
57996SOL    HW175885  10.887   0.484   1.929
57996SOL    HW275886  10.927   0.385   1.822
57997SOL     OW75887   5.339   5.855   0.418
57997SOL    HW175888   5.420   5.805   0.426
57997SOL    HW275889   5.290   5.811   0.348
57998SOL     OW75890   6.919   8.440  14.682
57998SOL    HW175891   6.841   8.490  14.708
57998SOL    HW275892   6.885   8.364  14.635
57999SOL     OW75893   2.662   6.276   7.388
57999SOL    HW175894   2.644   6.182   7.384
57999SOL    HW275895   2.709   6.295   7.307
58000SOL     OW75896   7.243   2.486  10.909
58000SOL    HW175897   7.306   2.464  10.841
58000SOL    HW275898   7.256   2.419  10.976
58001SOL     OW75899  11.568   3.273  14.045
58001SOL    HW175900  11.488   3.322  14.028
58001SOL    HW275901  11.566   3.257  14.140
58002SOL     OW75902   5.799   2.314   4.171
58002SOL    HW175903   5.866   2.283   4.109
58002SOL    HW275904   5.717   2.310   4.122
58003SOL     OW75905   7.125  14.733   3.662
58003SOL    HW175906   7.115  14.750   3.755
58003SOL    HW275907   7.142  14.639   3.656
58004SOL     OW75908   1.571   0.124  13.915
58004SOL    HW175909   1.621   0.051  13.951
58004SOL    HW275910   1.535   0.091  13.833
58005SOL     OW75911   0.122  13.785   8.919
58005SOL    HW175912   0.141  13.820   9.006
58005SOL    HW275913   0.167  13.844   8.859
58006SOL     OW75914  12.165  14.508  12.608
58006SOL    HW175915  12.173  14.570  12.536
58006SOL    HW275916  12.255  14.483  12.628
58007SOL     OW75917   4.420   9.466   3.873
58007SOL    HW175918   4.464   9.511   3.944
58007SOL    HW275919   4.398   9.379   3.908
58008SOL     OW75920   8.031   4.028  13.051
58008SOL    HW175921   7.949   4.069  13.023
58008SOL    HW275922   8.007   3.978  13.129
58009SOL     OW75923  10.410   3.076  11.875
58009SOL    HW175924  10.464   3.144  11.916
58009SOL    HW275925  10.463   3.044  11.802
58010SOL     OW75926   9.499  10.249  12.637
58010SOL    HW175927   9.505  10.332  12.683
58010SOL    HW275928   9.586  10.234  12.601
58011SOL     OW75929   7.086   9.147  11.797
58011SOL    HW175930   7.136   9.110  11.724
58011SOL    HW275931   7.046   9.226  11.761
58012SOL     OW75932  14.126   7.272   4.588
58012SOL    HW175933  14.067   7.346   4.576
58012SOL    HW275934  14.073   7.207   4.634
58013SOL     OW75935  10.231   3.109   4.046
58013SOL    HW175936  10.244   3.027   4.094
58013SOL    HW275937  10.139   3.130   4.058
58014SOL     OW75938   4.173   5.254   1.764
58014SOL    HW175939   4.157   5.256   1.858
58014SOL    HW275940   4.245   5.316   1.751
58015SOL     OW75941   4.253   8.200   1.949
58015SOL    HW175942   4.342   8.193   1.916
58015SOL    HW275943   4.233   8.112   1.982
58016SOL     OW75944  12.333   8.493   3.575
58016SOL    HW175945  12.386   8.542   3.511
58016SOL    HW275946  12.255   8.547   3.586
58017SOL     OW75947   1.159   3.340   4.042
58017SOL    HW175948   1.243   3.316   4.003
58017SOL    HW275949   1.133   3.264   4.093
58018SOL     OW75950   6.756  12.369   4.436
58018SOL    HW175951   6.764  12.349   4.529
58018SOL    HW275952   6.729  12.286   4.396
58019SOL     OW75953   9.857   9.395   2.608
58019SOL    HW175954   9.848   9.354   2.521
58019SOL    HW275955   9.811   9.478   2.600
58020SOL     OW75956   7.439   2.652  12.364
58020SOL    HW175957   7.348   2.638  12.390
58020SOL    HW275958   7.490   2.607  12.431
58021SOL     OW75959   4.082   1.275   3.152
58021SOL    HW175960   4.164   1.259   3.105
58021SOL    HW275961   4.092   1.362   3.189
58022SOL     OW75962   6.744  12.705   5.556
58022SOL    HW175963   6.775  12.709   5.647
58022SOL    HW275964   6.817  12.739   5.504
58023SOL     OW75965   8.489   7.955  11.788
58023SOL    HW175966   8.494   7.895  11.713
58023SOL    HW275967   8.573   7.943  11.834
58024SOL     OW75968   6.367   0.447   5.759
58024SOL    HW175969   6.416   0.528   5.743
58024SOL    HW275970   6.312   0.467   5.835
58025SOL     OW75971   0.688   4.779   3.213
58025SOL    HW175972   0.712   4.713   3.278
58025SOL    HW275973   0.768   4.830   3.200
58026SOL     OW75974   6.127   3.431   8.677
58026SOL    HW175975   6.042   3.405   8.711
58026SOL    HW275976   6.190   3.387   8.734
58027SOL     OW75977  14.528   7.834  13.801
58027SOL    HW175978  14.516   7.870  13.889
58027SOL    HW275979  14.550   7.742  13.815
58028SOL     OW75980  13.807  10.508   1.106
58028SOL    HW175981  13.847  10.478   1.025
58028SOL    HW275982  13.776  10.428   1.148
58029SOL     OW75983   4.666  10.890   8.801
58029SOL    HW175984   4.585  10.870   8.848
58029SOL    HW275985   4.655  10.849   8.715
58030SOL     OW75986  14.155   7.185   2.900
58030SOL    HW175987  14.215   7.166   2.972
58030SOL    HW275988  14.093   7.248   2.937
58031SOL     OW75989  13.206  13.047   4.788
58031SOL    HW175990  13.225  13.140   4.803
58031SOL    HW275991  13.191  13.011   4.876
58032SOL     OW75992   3.362  12.473   0.625
58032SOL    HW175993   3.374  12.567   0.640
58032SOL    HW275994   3.267  12.460   0.622
58033SOL     OW75995  11.461   9.343  11.357
58033SOL    HW175996  11.554   9.367  11.367
58033SOL    HW275997  11.453   9.321  11.264
58034SOL     OW75998   0.810  14.047   1.145
58034SOL    HW175999   0.880  14.040   1.211
58034SOL    HW276000   0.838  14.119   1.089
58035SOL     OW76001   1.524  10.250  12.823
58035SOL    HW176002   1.594  10.265  12.887
58035SOL    HW276003   1.571  10.236  12.741
58036SOL     OW76004   1.397   0.588   7.849
58036SOL    HW176005   1.422   0.594   7.942
58036SOL    HW276006   1.478   0.606   7.802
58037SOL     OW76007   8.901   2.631  11.302
58037SOL    HW176008   8.940   2.602  11.385
58037SOL    HW276009   8.976   2.659  11.249
58038SOL     OW76010  10.501   0.439   8.853
58038SOL    HW176011  10.434   0.488   8.807
58038SOL    HW276012  10.473   0.438   8.944
58039SOL     OW76013  10.995  12.772   9.410
58039SOL    HW176014  10.980  12.768   9.504
58039SOL    HW276015  10.908  12.766   9.371
58040SOL     OW76016   2.425   6.807   3.483
58040SOL    HW176017   2.513   6.843   3.493
58040SOL    HW276018   2.391   6.848   3.403
58041SOL     OW76019   0.092   6.697  13.820
58041SOL    HW176020   0.091   6.603  13.836
58041SOL    HW276021   0.169   6.712  13.765
58042SOL     OW76022   6.761   3.860  10.783
58042SOL    HW176023   6.820   3.796  10.822
58042SOL    HW276024   6.737   3.919  10.855
58043SOL     OW76025   2.084  11.835  12.373
58043SOL    HW176026   2.021  11.794  12.314
58043SOL    HW276027   2.169  11.807  12.342
58044SOL     OW76028   0.921   2.196   7.685
58044SOL    HW176029   0.851   2.255   7.712
58044SOL    HW276030   0.972   2.246   7.621
58045SOL     OW76031   2.548  10.575   8.215
58045SOL    HW176032   2.617  10.548   8.276
58045SOL    HW276033   2.480  10.613   8.271
58046SOL     OW76034   8.993   2.257   8.694
58046SOL    HW176035   8.988   2.164   8.715
58046SOL    HW276036   9.031   2.298   8.772
58047SOL     OW76037   2.226   8.457   3.435
58047SOL    HW176038   2.279   8.381   3.410
58047SOL    HW276039   2.137   8.422   3.443
58048SOL     OW76040   5.883  12.720  11.302
58048SOL    HW176041   5.914  12.728  11.392
58048SOL    HW276042   5.834  12.638  11.302
58049SOL     OW76043   2.280  12.569  13.542
58049SOL    HW176044   2.312  12.659  13.545
58049SOL    HW276045   2.358  12.516  13.561
58050SOL     OW76046   2.071   8.832   3.521
58050SOL    HW176047   2.110   8.920   3.522
58050SOL    HW276048   2.101   8.792   3.603
58051SOL     OW76049   5.974   1.569   9.190
58051SOL    HW176050   6.040   1.501   9.184
58051SOL    HW276051   5.927   1.565   9.107
58052SOL     OW76052   6.723   1.803   7.727
58052SOL    HW176053   6.807   1.788   7.684
58052SOL    HW276054   6.661   1.816   7.655
58053SOL     OW76055  14.874   0.520  12.013
58053SOL    HW176056  14.812   0.513  12.086
58053SOL    HW276057  14.837   0.587  11.956
58054SOL     OW76058  10.153   4.546   9.132
58054SOL    HW176059  10.212   4.590   9.071
58054SOL    HW276060  10.105   4.617   9.174
58055SOL     OW76061  13.139  13.525   1.024
58055SOL    HW176062  13.206  13.586   0.994
58055SOL    HW276063  13.097  13.495   0.943
58056SOL     OW76064   4.206  14.823   3.030
58056SOL    HW176065   4.271  14.754   3.047
58056SOL    HW276066   4.249   0.023   3.059
58057SOL     OW76067  13.238  14.774   8.876
58057SOL    HW176068  13.285  14.691   8.882
58057SOL    HW276069  13.292  14.829   8.819
58058SOL     OW76070   4.496   3.980   3.405
58058SOL    HW176071   4.577   3.987   3.457
58058SOL    HW276072   4.521   3.927   3.330
58059SOL     OW76073   6.469  10.701   1.387
58059SOL    HW176074   6.445  10.612   1.360
58059SOL    HW276075   6.555  10.691   1.428
58060SOL     OW76076   0.903   0.154   7.644
58060SOL    HW176077   0.897   0.085   7.710
58060SOL    HW276078   0.865   0.231   7.686
58061SOL     OW76079  10.273   8.799   5.805
58061SOL    HW176080  10.255   8.887   5.839
58061SOL    HW276081  10.195   8.777   5.754
58062SOL     OW76082   3.694   2.429   8.660
58062SOL    HW176083   3.718   2.345   8.622
58062SOL    HW276084   3.707   2.418   8.754
58063SOL     OW76085   4.467  11.842  11.466
58063SOL    HW176086   4.514  11.807  11.391
58063SOL    HW276087   4.386  11.878  11.429
58064SOL     OW76088   1.173   7.788   8.753
58064SOL    HW176089   1.185   7.870   8.802
58064SOL    HW276090   1.201   7.719   8.813
58065SOL     OW76091   0.042   1.438  14.241
58065SOL    HW176092  14.879   1.476  14.164
58065SOL    HW276093  14.858   1.375  14.275
58066SOL     OW76094   8.784   0.872   3.728
58066SOL    HW176095   8.871   0.897   3.759
58066SOL    HW276096   8.778   0.779   3.750
58067SOL     OW76097   7.770   9.727   1.193
58067SOL    HW176098   7.723   9.793   1.141
58067SOL    HW276099   7.748   9.644   1.151
58068SOL     OW76100  10.098   0.880   3.518
58068SOL    HW176101  10.035   0.856   3.586
58068SOL    HW276102  10.050   0.942   3.462
58069SOL     OW76103   1.959   3.728   6.574
58069SOL    HW176104   1.900   3.654   6.559
58069SOL    HW276105   1.913   3.781   6.639
58070SOL     OW76106   8.820   1.465   3.797
58070SOL    HW176107   8.777   1.456   3.712
58070SOL    HW276108   8.849   1.376   3.818
58071SOL     OW76109  10.416   5.064   7.960
58071SOL    HW176110  10.329   5.096   7.985
58071SOL    HW276111  10.401   4.972   7.938
58072SOL     OW76112   7.807   4.746   7.962
58072SOL    HW176113   7.781   4.657   7.939
58072SOL    HW276114   7.778   4.757   8.052
58073SOL     OW76115   2.491  12.064   1.823
58073SOL    HW176116   2.504  11.994   1.758
58073SOL    HW276117   2.552  12.043   1.893
58074SOL     OW76118   0.624   2.212  12.522
58074SOL    HW176119   0.599   2.282  12.582
58074SOL    HW276120   0.541   2.173  12.493
58075SOL     OW76121   9.391   1.789  11.268
58075SOL    HW176122   9.389   1.739  11.350
58075SOL    HW276123   9.358   1.876  11.292
58076SOL     OW76124   0.611   3.210  13.595
58076SOL    HW176125   0.658   3.291  13.615
58076SOL    HW276126   0.552   3.234  13.523
58077SOL     OW76127   8.340  11.711   6.905
58077SOL    HW176128   8.322  11.721   6.998
58077SOL    HW276129   8.259  11.740   6.862
58078SOL     OW76130   9.244   2.072  13.342
58078SOL    HW176131   9.159   2.108  13.366
58078SOL    HW276132   9.307   2.121  13.396
58079SOL     OW76133   1.069  14.254   7.273
58079SOL    HW176134   1.056  14.206   7.191
58079SOL    HW276135   1.059  14.188   7.341
58080SOL     OW76136  10.716   2.752  10.203
58080SOL    HW176137  10.666   2.686  10.155
58080SOL    HW276138  10.708   2.832  10.150
58081SOL     OW76139   7.983   8.733   8.917
58081SOL    HW176140   7.968   8.695   8.831
58081SOL    HW276141   7.922   8.687   8.975
58082SOL     OW76142   3.452   2.521   2.228
58082SOL    HW176143   3.374   2.469   2.208
58082SOL    HW276144   3.450   2.532   2.323
58083SOL     OW76145  13.469   8.251   1.885
58083SOL    HW176146  13.549   8.224   1.930
58083SOL    HW276147  13.426   8.169   1.862
58084SOL     OW76148   8.801   3.837   0.749
58084SOL    HW176149   8.884   3.834   0.797
58084SOL    HW276150   8.752   3.761   0.780
58085SOL     OW76151  10.570  12.927  11.550
58085SOL    HW176152  10.593  12.847  11.597
58085SOL    HW276153  10.475  12.920  11.536
58086SOL     OW76154   6.964   6.723   8.955
58086SOL    HW176155   6.959   6.660   9.026
58086SOL    HW276156   6.971   6.809   8.998
58087SOL     OW76157   7.045   2.302  10.328
58087SOL    HW176158   7.010   2.363  10.393
58087SOL    HW276159   7.057   2.220  10.377
58088SOL     OW76160   0.925   4.521   7.778
58088SOL    HW176161   1.017   4.515   7.752
58088SOL    HW276162   0.891   4.433   7.764
58089SOL     OW76163   6.828   9.379   2.639
58089SOL    HW176164   6.796   9.469   2.630
58089SOL    HW276165   6.911   9.388   2.685
58090SOL     OW76166   6.849   0.629   9.869
58090SOL    HW176167   6.839   0.549   9.921
58090SOL    HW276168   6.944   0.645   9.869
58091SOL     OW76169  11.433   5.173   1.237
58091SOL    HW176170  11.339   5.156   1.235
58091SOL    HW276171  11.451   5.204   1.326
58092SOL     OW76172   9.312   0.179  13.200
58092SOL    HW176173   9.342   0.208  13.114
58092SOL    HW276174   9.390   0.180  13.255
58093SOL     OW76175   1.148   7.612   9.972
58093SOL    HW176176   1.243   7.604   9.982
58093SOL    HW276177   1.117   7.521   9.965
58094SOL     OW76178  14.031   4.490   4.989
58094SOL    HW176179  13.937   4.506   4.980
58094SOL    HW276180  14.049   4.504   5.082
58095SOL     OW76181   0.133  10.022   8.897
58095SOL    HW176182   0.195  10.094   8.886
58095SOL    HW276183   0.048  10.065   8.910
58096SOL     OW76184   5.836  14.828  13.698
58096SOL    HW176185   5.795   0.034  13.701
58096SOL    HW276186   5.904  14.831  13.765
58097SOL     OW76187  10.912   7.796   3.000
58097SOL    HW176188  10.925   7.704   3.023
58097SOL    HW276189  10.999   7.835   3.013
58098SOL     OW76190   0.447   6.281   2.048
58098SOL    HW176191   0.469   6.215   2.114
58098SOL    HW276192   0.351   6.282   2.047
58099SOL     OW76193   8.285   3.978   1.174
58099SOL    HW176194   8.371   4.008   1.148
58099SOL    HW276195   8.289   3.969   1.269
58100SOL     OW76196  12.760  14.263   3.950
58100SOL    HW176197  12.843  14.303   3.973
58100SOL    HW276198  12.753  14.276   3.855
58101SOL     OW76199   9.090   8.593   1.890
58101SOL    HW176200   9.097   8.644   1.809
58101SOL    HW276201   9.030   8.522   1.868
58102SOL     OW76202   8.136  11.795   6.763
58102SOL    HW176203   8.171  11.733   6.698
58102SOL    HW276204   8.124  11.876   6.714
58103SOL     OW76205   3.565  12.399   8.946
58103SOL    HW176206   3.571  12.307   8.920
58103SOL    HW276207   3.563  12.447   8.863
58104SOL     OW76208  12.108  14.191  14.481
58104SOL    HW176209  12.144  14.182  14.569
58104SOL    HW276210  12.137  14.111  14.436
58105SOL     OW76211   3.120   6.822  12.318
58105SOL    HW176212   3.088   6.851  12.403
58105SOL    HW276213   3.144   6.730  12.332
58106SOL     OW76214   6.745   8.947  13.116
58106SOL    HW176215   6.832   8.907  13.109
58106SOL    HW276216   6.757   9.036  13.082
58107SOL     OW76217  11.653   4.478   5.356
58107SOL    HW176218  11.570   4.432   5.365
58107SOL    HW276219  11.720   4.411   5.372
58108SOL     OW76220  12.879   4.158   7.140
58108SOL    HW176221  12.805   4.101   7.117
58108SOL    HW276222  12.843   4.246   7.136
58109SOL     OW76223   9.067   7.121   3.820
58109SOL    HW176224   9.062   7.060   3.746
58109SOL    HW276225   9.018   7.198   3.790
58110SOL     OW76226   7.837   0.968  14.732
58110SOL    HW176227   7.829   1.051  14.686
58110SOL    HW276228   7.900   0.918  14.680
58111SOL     OW76229   6.682  12.187   0.135
58111SOL    HW176230   6.755  12.129   0.156
58111SOL    HW276231   6.669  12.240   0.214
58112SOL     OW76232  13.007  14.511   0.493
58112SOL    HW176233  12.929  14.457   0.480
58112SOL    HW276234  13.013  14.524   0.587
58113SOL     OW76235   4.144   5.786   1.775
58113SOL    HW176236   4.234   5.767   1.802
58113SOL    HW276237   4.149   5.872   1.733
58114SOL     OW76238   2.363  13.423   0.372
58114SOL    HW176239   2.276  13.451   0.341
58114SOL    HW276240   2.406  13.389   0.293
58115SOL     OW76241   5.850   6.555  11.724
58115SOL    HW176242   5.909   6.572  11.798
58115SOL    HW276243   5.768   6.528  11.765
58116SOL     OW76244   3.169   2.356   2.765
58116SOL    HW176245   3.098   2.298   2.792
58116SOL    HW276246   3.248   2.306   2.782
58117SOL     OW76247   9.426  12.699  12.818
58117SOL    HW176248   9.461  12.612  12.796
58117SOL    HW276249   9.501  12.757  12.807
58118SOL     OW76250  10.743   7.448   4.827
58118SOL    HW176251  10.683   7.396   4.881
58118SOL    HW276252  10.712   7.538   4.836
58119SOL     OW76253  12.335   2.813   7.572
58119SOL    HW176254  12.406   2.823   7.635
58119SOL    HW276255  12.372   2.756   7.504
58120SOL     OW76256   5.300   6.564   5.464
58120SOL    HW176257   5.230   6.596   5.408
58120SOL    HW276258   5.381   6.587   5.417
58121SOL     OW76259  13.247  14.580   0.673
58121SOL    HW176260  13.285  14.534   0.749
58121SOL    HW276261  13.153  14.583   0.692
58122SOL     OW76262   7.382   9.766   8.004
58122SOL    HW176263   7.338   9.838   8.049
58122SOL    HW276264   7.465   9.756   8.050
58123SOL     OW76265   3.584   7.263  10.329
58123SOL    HW176266   3.668   7.294  10.297
58123SOL    HW276267   3.533   7.246  10.251
58124SOL     OW76268   2.882   0.992  13.286
58124SOL    HW176269   2.890   0.905  13.324
58124SOL    HW276270   2.799   1.026  13.320
58125SOL     OW76271  11.541  13.718   4.486
58125SOL    HW176272  11.560  13.749   4.398
58125SOL    HW276273  11.613  13.659   4.507
58126SOL     OW76274   6.821   4.276   8.415
58126SOL    HW176275   6.826   4.180   8.413
58126SOL    HW276276   6.856   4.304   8.331
58127SOL     OW76277   5.025   0.188  10.072
58127SOL    HW176278   5.111   0.200  10.114
58127SOL    HW276279   5.034   0.231   9.987
58128SOL     OW76280  14.681   2.777   5.278
58128SOL    HW176281  14.722   2.709   5.332
58128SOL    HW276282  14.746   2.847   5.274
58129SOL     OW76283   2.678   3.846  10.403
58129SOL    HW176284   2.715   3.889  10.326
58129SOL    HW276285   2.618   3.910  10.441
58130SOL     OW76286   1.295   9.420   5.947
58130SOL    HW176287   1.295   9.514   5.928
58130SOL    HW276288   1.263   9.414   6.037
58131SOL     OW76289   3.479  10.864  13.506
58131SOL    HW176290   3.567  10.888  13.476
58131SOL    HW276291   3.489  10.852  13.601
58132SOL     OW76292   4.635  11.440  13.645
58132SOL    HW176293   4.698  11.368  13.641
58132SOL    HW276294   4.653  11.483  13.729
58133SOL     OW76295   9.723   1.540   6.718
58133SOL    HW176296   9.639   1.498   6.740
58133SOL    HW276297   9.726   1.618   6.773
58134SOL     OW76298   5.751   0.635   6.257
58134SOL    HW176299   5.743   0.693   6.333
58134SOL    HW276300   5.820   0.573   6.281
58135SOL     OW76301   5.106   2.370   1.244
58135SOL    HW176302   5.119   2.458   1.208
58135SOL    HW276303   5.111   2.382   1.338
58136SOL     OW76304   9.702   1.556   4.076
58136SOL    HW176305   9.613   1.534   4.101
58136SOL    HW276306   9.692   1.625   4.010
58137SOL     OW76307  14.310  12.793  13.468
58137SOL    HW176308  14.222  12.801  13.431
58137SOL    HW276309  14.296  12.777  13.561
58138SOL     OW76310  13.803  10.456  11.365
58138SOL    HW176311  13.796  10.477  11.458
58138SOL    HW276312  13.721  10.411  11.343
58139SOL     OW76313   1.627   0.534   4.222
58139SOL    HW176314   1.639   0.593   4.297
58139SOL    HW276315   1.630   0.592   4.146
58140SOL     OW76316   0.846   2.369  13.256
58140SOL    HW176317   0.850   2.438  13.323
58140SOL    HW276318   0.814   2.292  13.302
58141SOL     OW76319   3.684   1.657   4.344
58141SOL    HW176320   3.703   1.608   4.263
58141SOL    HW276321   3.596   1.629   4.368
58142SOL     OW76322  12.575  10.753  11.774
58142SOL    HW176323  12.485  10.781  11.762
58142SOL    HW276324  12.621  10.786  11.697
58143SOL     OW76325  12.345  13.863   7.347
58143SOL    HW176326  12.268  13.841   7.400
58143SOL    HW276327  12.419  13.836   7.402
58144SOL     OW76328  12.342   8.837  12.634
58144SOL    HW176329  12.410   8.902  12.654
58144SOL    HW276330  12.390   8.766  12.592
58145SOL     OW76331   4.475   6.192   5.456
58145SOL    HW176332   4.383   6.179   5.433
58145SOL    HW276333   4.501   6.271   5.410
58146SOL     OW76334  11.131   9.697   1.008
58146SOL    HW176335  11.221   9.721   0.987
58146SOL    HW276336  11.109   9.627   0.946
58147SOL     OW76337   8.406   0.919   5.555
58147SOL    HW176338   8.486   0.956   5.518
58147SOL    HW276339   8.432   0.831   5.582
58148SOL     OW76340  12.718   5.001  11.536
58148SOL    HW176341  12.656   5.074  11.530
58148SOL    HW276342  12.666   4.927  11.568
58149SOL     OW76343   8.865   9.062  13.187
58149SOL    HW176344   8.806   9.094  13.120
58149SOL    HW276345   8.898   9.140  13.230
58150SOL     OW76346   4.237   5.090   8.038
58150SOL    HW176347   4.255   5.082   7.944
58150SOL    HW276348   4.299   5.031   8.080
58151SOL     OW76349   5.430  14.340   8.080
58151SOL    HW176350   5.525  14.336   8.075
58151SOL    HW276351   5.408  14.430   8.055
58152SOL     OW76352   4.801   4.057  12.256
58152SOL    HW176353   4.825   4.056  12.164
58152SOL    HW276354   4.727   4.117  12.261
58153SOL     OW76355   2.294  11.926   3.112
58153SOL    HW176356   2.360  11.889   3.171
58153SOL    HW276357   2.228  11.857   3.102
58154SOL     OW76358   9.547  13.974  14.785
58154SOL    HW176359   9.544  13.934  14.872
58154SOL    HW276360   9.455  13.982  14.759
58155SOL     OW76361  12.052   6.589   0.686
58155SOL    HW176362  12.037   6.545   0.602
58155SOL    HW276363  12.147   6.600   0.691
58156SOL     OW76364   5.215  10.043   6.665
58156SOL    HW176365   5.167  10.038   6.582
58156SOL    HW276366   5.156  10.002   6.729
58157SOL     OW76367   4.346   6.204   1.905
58157SOL    HW176368   4.427   6.252   1.889
58157SOL    HW276369   4.299   6.258   1.969
58158SOL     OW76370   5.801   2.038   8.615
58158SOL    HW176371   5.844   2.120   8.592
58158SOL    HW276372   5.858   1.970   8.580
58159SOL     OW76373   7.779   9.118  14.528
58159SOL    HW176374   7.712   9.114  14.596
58159SOL    HW276375   7.804   9.026  14.514
58160SOL     OW76376  14.150   2.796   1.403
58160SOL    HW176377  14.191   2.762   1.482
58160SOL    HW276378  14.106   2.720   1.364
58161SOL     OW76379  11.366   9.188   1.365
58161SOL    HW176380  11.407   9.114   1.410
58161SOL    HW276381  11.287   9.207   1.417
58162SOL     OW76382  10.762   7.628   2.555
58162SOL    HW176383  10.801   7.599   2.637
58162SOL    HW276384  10.718   7.551   2.520
58163SOL     OW76385   5.121  14.689  14.200
58163SOL    HW176386   5.081  14.731  14.276
58163SOL    HW276387   5.193  14.637  14.235
58164SOL     OW76388  12.680   5.322  13.194
58164SOL    HW176389  12.608   5.343  13.253
58164SOL    HW276390  12.659   5.236  13.159
58165SOL     OW76391   2.013   1.227   3.355
58165SOL    HW176392   1.953   1.227   3.430
58165SOL    HW276393   2.010   1.138   3.321
58166SOL     OW76394  14.101  10.261   1.206
58166SOL    HW176395  14.059  10.219   1.282
58166SOL    HW276396  14.191  10.279   1.235
58167SOL     OW76397   4.902  11.291   9.522
58167SOL    HW176398   4.923  11.259   9.609
58167SOL    HW276399   4.822  11.246   9.498
58168SOL     OW76400   5.375  13.966   8.214
58168SOL    HW176401   5.330  14.019   8.279
58168SOL    HW276402   5.320  13.887   8.206
58169SOL     OW76403   5.385  13.415   5.440
58169SOL    HW176404   5.304  13.456   5.470
58169SOL    HW276405   5.380  13.420   5.344
58170SOL     OW76406  12.327  14.831  12.270
58170SOL    HW176407  12.348  14.759  12.328
58170SOL    HW276408  12.242  14.862  12.301
58171SOL     OW76409   2.569  13.252   0.622
58171SOL    HW176410   2.507  13.219   0.556
58171SOL    HW276411   2.637  13.185   0.626
58172SOL     OW76412   0.500   6.328  11.685
58172SOL    HW176413   0.423   6.276  11.704
58172SOL    HW276414   0.528   6.298  11.598
58173SOL     OW76415   9.679   5.387   0.097
58173SOL    HW176416   9.761   5.349   0.064
58173SOL    HW276417   9.658   5.457   0.035
58174SOL     OW76418  13.975   6.250  12.696
58174SOL    HW176419  13.986   6.303  12.776
58174SOL    HW276420  14.047   6.188  12.698
58175SOL     OW76421   4.958  14.061   4.686
58175SOL    HW176422   4.970  13.966   4.695
58175SOL    HW276423   5.046  14.097   4.693
58176SOL     OW76424   3.353   9.038  11.950
58176SOL    HW176425   3.301   8.991  11.885
58176SOL    HW276426   3.301   9.034  12.030
58177SOL     OW76427  13.587   4.895   0.015
58177SOL    HW176428  13.571   4.849   0.098
58177SOL    HW276429  13.681   4.888   0.002
58178SOL     OW76430   5.554  11.510   9.092
58178SOL    HW176431   5.609  11.567   9.146
58178SOL    HW276432   5.603  11.429   9.084
58179SOL     OW76433   8.137   8.053   7.724
58179SOL    HW176434   8.119   8.009   7.641
58179SOL    HW276435   8.132   7.983   7.790
58180SOL     OW76436  12.590  14.040   5.352
58180SOL    HW176437  12.620  13.979   5.419
58180SOL    HW276438  12.505  14.071   5.384
58181SOL     OW76439  13.101  13.723  12.463
58181SOL    HW176440  13.036  13.703  12.530
58181SOL    HW276441  13.177  13.754  12.512
58182SOL     OW76442   9.279   6.024   7.487
58182SOL    HW176443   9.243   6.064   7.408
58182SOL    HW276444   9.273   5.930   7.471
58183SOL     OW76445   3.073   7.799  14.475
58183SOL    HW176446   3.030   7.879  14.505
58183SOL    HW276447   3.056   7.735  14.544
58184SOL     OW76448   8.167   4.896   5.025
58184SOL    HW176449   8.158   4.824   4.964
58184SOL    HW276450   8.262   4.909   5.033
58185SOL     OW76451   9.174   0.647   4.677
58185SOL    HW176452   9.110   0.658   4.747
58185SOL    HW276453   9.122   0.653   4.596
58186SOL     OW76454   0.491   7.113  11.686
58186SOL    HW176455   0.530   7.026  11.673
58186SOL    HW276456   0.454   7.135  11.601
58187SOL     OW76457  12.588   3.209   3.683
58187SOL    HW176458  12.661   3.267   3.706
58187SOL    HW276459  12.510   3.261   3.700
58188SOL     OW76460   2.690   4.487   3.764
58188SOL    HW176461   2.696   4.398   3.797
58188SOL    HW276462   2.690   4.542   3.843
58189SOL     OW76463  14.508   8.440  12.888
58189SOL    HW176464  14.574   8.372  12.902
58189SOL    HW276465  14.540   8.515  12.938
58190SOL     OW76466   1.271  14.763   8.657
58190SOL    HW176467   1.227  14.790   8.738
58190SOL    HW276468   1.333  14.834   8.638
58191SOL     OW76469   9.478  10.232   7.901
58191SOL    HW176470   9.518  10.266   7.820
58191SOL    HW276471   9.485  10.304   7.963
58192SOL     OW76472  14.634   3.955   5.973
58192SOL    HW176473  14.647   3.865   6.004
58192SOL    HW276474  14.545   3.955   5.936
58193SOL     OW76475   9.466  13.937  12.584
58193SOL    HW176476   9.541  13.983  12.621
58193SOL    HW276477   9.416  13.907  12.659
58194SOL     OW76478   9.178   3.921   3.263
58194SOL    HW176479   9.158   3.848   3.321
58194SOL    HW276480   9.095   3.943   3.221
58195SOL     OW76481   3.369   9.844   1.237
58195SOL    HW176482   3.361   9.905   1.164
58195SOL    HW276483   3.370   9.900   1.315
58196SOL     OW76484   3.636   2.739  11.017
58196SOL    HW176485   3.700   2.807  11.039
58196SOL    HW276486   3.554   2.786  11.003
58197SOL     OW76487   3.545   1.127  12.956
58197SOL    HW176488   3.610   1.057  12.963
58197SOL    HW276489   3.463   1.085  12.981
58198SOL     OW76490   5.454   5.983  11.544
58198SOL    HW176491   5.402   6.034  11.605
58198SOL    HW276492   5.419   5.894  11.549
58199SOL     OW76493   0.174   8.322   7.158
58199SOL    HW176494   0.192   8.415   7.141
58199SOL    HW276495   0.228   8.275   7.094
58200SOL     OW76496   8.545   3.397  14.520
58200SOL    HW176497   8.567   3.490  14.513
58200SOL    HW276498   8.478   3.393  14.588
58201SOL     OW76499   1.843   1.344   7.185
58201SOL    HW176500   1.839   1.329   7.091
58201SOL    HW276501   1.768   1.399   7.205
58202SOL     OW76502   0.215   6.463  12.205
58202SOL    HW176503   0.266   6.536  12.170
58202SOL    HW276504   0.127   6.475  12.169
58203SOL     OW76505  13.687   8.909   4.095
58203SOL    HW176506  13.740   8.974   4.142
58203SOL    HW276507  13.597   8.938   4.108
58204SOL     OW76508   1.947   4.826   8.963
58204SOL    HW176509   1.939   4.921   8.973
58204SOL    HW276510   1.889   4.790   9.029
58205SOL     OW76511  11.231   4.583  13.079
58205SOL    HW176512  11.147   4.547  13.051
58205SOL    HW276513  11.296   4.530  13.032
58206SOL     OW76514  11.033  12.212  10.505
58206SOL    HW176515  11.039  12.178  10.594
58206SOL    HW276516  10.945  12.188  10.477
58207SOL     OW76517   1.153   7.343   0.696
58207SOL    HW176518   1.177   7.354   0.788
58207SOL    HW276519   1.088   7.411   0.680
58208SOL     OW76520   7.135  11.452   4.234
58208SOL    HW176521   7.148  11.364   4.198
58208SOL    HW276522   7.104  11.436   4.323
58209SOL     OW76523  10.532   5.560   9.824
58209SOL    HW176524  10.604   5.535   9.882
58209SOL    HW276525  10.570   5.558   9.736
58210SOL     OW76526   3.557   9.107   1.215
58210SOL    HW176527   3.552   9.166   1.140
58210SOL    HW276528   3.648   9.114   1.244
58211SOL     OW76529   7.786   3.292   8.565
58211SOL    HW176530   7.821   3.217   8.516
58211SOL    HW276531   7.714   3.255   8.617
58212SOL     OW76532   4.752   6.018  13.002
58212SOL    HW176533   4.666   5.985  13.030
58212SOL    HW276534   4.814   5.951  13.030
58213SOL     OW76535   9.391  12.043  12.191
58213SOL    HW176536   9.480  12.015  12.168
58213SOL    HW276537   9.396  12.139  12.193
58214SOL     OW76538   4.880   0.964  11.339
58214SOL    HW176539   4.836   0.992  11.420
58214SOL    HW276540   4.900   0.872  11.354
58215SOL     OW76541  11.333   4.142  14.062
58215SOL    HW176542  11.329   4.212  14.127
58215SOL    HW276543  11.281   4.071  14.100
58216SOL     OW76544   1.196   1.474   1.528
58216SOL    HW176545   1.144   1.415   1.583
58216SOL    HW276546   1.152   1.471   1.443
58217SOL     OW76547   6.162   9.937   7.386
58217SOL    HW176548   6.071   9.947   7.414
58217SOL    HW276549   6.171   9.997   7.312
58218SOL     OW76550  10.239  10.700  11.829
58218SOL    HW176551  10.318  10.739  11.790
58218SOL    HW276552  10.263  10.681  11.919
58219SOL     OW76553  12.809   3.615  10.748
58219SOL    HW176554  12.721   3.628  10.712
58219SOL    HW276555  12.860   3.581  10.675
58220SOL     OW76556   8.767  10.394   0.731
58220SOL    HW176557   8.763  10.398   0.826
58220SOL    HW276558   8.817  10.472   0.706
58221SOL     OW76559   7.312  12.768  11.806
58221SOL    HW176560   7.268  12.851  11.823
58221SOL    HW276561   7.279  12.709  11.874
58222SOL     OW76562   3.142  13.022   4.760
58222SOL    HW176563   3.217  13.035   4.818
58222SOL    HW276564   3.177  13.031   4.672
58223SOL     OW76565   3.441   0.852  11.033
58223SOL    HW176566   3.510   0.884  11.092
58223SOL    HW276567   3.440   0.758  11.047
58224SOL     OW76568  10.273  13.615   1.349
58224SOL    HW176569  10.229  13.538   1.386
58224SOL    HW276570  10.207  13.684   1.355
58225SOL     OW76571  14.397  14.643   1.085
58225SOL    HW176572  14.471  14.695   1.117
58225SOL    HW276573  14.394  14.660   0.991
58226SOL     OW76574   9.187  11.802   9.711
58226SOL    HW176575   9.131  11.730   9.683
58226SOL    HW276576   9.245  11.763   9.777
58227SOL     OW76577   4.785  11.311   6.549
58227SOL    HW176578   4.782  11.271   6.462
58227SOL    HW276579   4.792  11.236   6.609
58228SOL     OW76580   3.754   3.495   3.726
58228SOL    HW176581   3.780   3.475   3.636
58228SOL    HW276582   3.692   3.567   3.717
58229SOL     OW76583  11.256  12.418  11.249
58229SOL    HW176584  11.225  12.508  11.235
58229SOL    HW276585  11.229  12.398  11.339
58230SOL     OW76586  12.989  11.008   0.047
58230SOL    HW176587  13.067  11.046   0.087
58230SOL    HW276588  12.936  11.083   0.021
58231SOL     OW76589  14.023   1.932  10.794
58231SOL    HW176590  14.032   1.843  10.827
58231SOL    HW276591  14.099   1.944  10.737
58232SOL     OW76592  14.529  11.123   2.570
58232SOL    HW176593  14.474  11.175   2.512
58232SOL    HW276594  14.509  11.156   2.658
58233SOL     OW76595   3.472  10.880   3.895
58233SOL    HW176596   3.420  10.822   3.951
58233SOL    HW276597   3.515  10.940   3.956
58234SOL     OW76598   0.688   5.227  11.259
58234SOL    HW176599   0.617   5.186  11.209
58234SOL    HW276600   0.747   5.154  11.281
58235SOL     OW76601   6.989   9.283  14.873
58235SOL    HW176602   6.989   9.282   0.088
58235SOL    HW276603   6.914   9.229  14.848
58236SOL     OW76604   2.207   3.842  10.580
58236SOL    HW176605   2.221   3.901  10.507
58236SOL    HW276606   2.274   3.865  10.644
58237SOL     OW76607  13.900   0.331   7.691
58237SOL    HW176608  13.934   0.379   7.767
58237SOL    HW276609  13.883   0.243   7.724
58238SOL     OW76610   9.839   6.798   1.919
58238SOL    HW176611   9.852   6.876   1.972
58238SOL    HW276612   9.913   6.799   1.857
58239SOL     OW76613   6.744   0.269   8.034
58239SOL    HW176614   6.755   0.260   7.939
58239SOL    HW276615   6.800   0.343   8.058
58240SOL     OW76616  13.591  10.066   4.482
58240SOL    HW176617  13.632  10.032   4.402
58240SOL    HW276618  13.536  10.137   4.452
58241SOL     OW76619   6.644   0.704  13.408
58241SOL    HW176620   6.700   0.769  13.366
58241SOL    HW276621   6.575   0.687  13.344
58242SOL     OW76622   9.233  11.391  14.223
58242SOL    HW176623   9.271  11.334  14.289
58242SOL    HW276624   9.182  11.455  14.273
58243SOL     OW76625  13.178   8.387   0.630
58243SOL    HW176626  13.239   8.329   0.584
58243SOL    HW276627  13.213   8.475   0.615
58244SOL     OW76628  10.475  12.315  11.283
58244SOL    HW176629  10.497  12.222  11.273
58244SOL    HW276630  10.554  12.354  11.321
58245SOL     OW76631  14.801  10.112  11.894
58245SOL    HW176632  14.807  10.129  11.988
58245SOL    HW276633  14.746  10.183  11.860
58246SOL     OW76634  12.644  11.549   6.511
58246SOL    HW176635  12.732  11.523   6.539
58246SOL    HW276636  12.651  11.559   6.416
58247SOL     OW76637   6.040   8.822   5.076
58247SOL    HW176638   6.071   8.731   5.069
58247SOL    HW276639   5.952   8.819   5.037
58248SOL     OW76640   7.443   8.457  13.758
58248SOL    HW176641   7.498   8.458  13.836
58248SOL    HW276642   7.373   8.521  13.777
58249SOL     OW76643  11.734   8.747   1.357
58249SOL    HW176644  11.653   8.712   1.319
58249SOL    HW276645  11.706   8.789   1.439
58250SOL     OW76646  13.671  10.939   1.787
58250SOL    HW176647  13.609  11.004   1.755
58250SOL    HW276648  13.618  10.880   1.841
58251SOL     OW76649   0.035  13.626   8.701
58251SOL    HW176650  14.853  13.694   8.673
58251SOL    HW276651   0.072  13.659   8.782
58252SOL     OW76652   9.725   4.213   2.140
58252SOL    HW176653   9.676   4.271   2.082
58252SOL    HW276654   9.800   4.266   2.168
58253SOL     OW76655  14.150  11.289   2.434
58253SOL    HW176656  14.223  11.283   2.373
58253SOL    HW276657  14.185  11.254   2.516
58254SOL     OW76658   0.482   7.420   1.998
58254SOL    HW176659   0.540   7.455   1.931
58254SOL    HW276660   0.394   7.427   1.960
58255SOL     OW76661   1.030  12.876   9.901
58255SOL    HW176662   1.040  12.963   9.864
58255SOL    HW276663   0.935  12.859   9.898
58256SOL     OW76664   9.444   3.967   3.944
58256SOL    HW176665   9.466   3.996   3.855
58256SOL    HW276666   9.364   4.015   3.966
58257SOL     OW76667  10.061  14.841   2.744
58257SOL    HW176668  10.121   0.015   2.694
58257SOL    HW276669  10.112  14.763   2.766
58258SOL     OW76670  12.791  11.821   0.711
58258SOL    HW176671  12.785  11.917   0.708
58258SOL    HW276672  12.707  11.790   0.679
58259SOL     OW76673   5.030   3.853  14.170
58259SOL    HW176674   4.953   3.857  14.226
58259SOL    HW276675   5.006   3.903  14.092
58260SOL     OW76676   8.671  10.080   6.555
58260SOL    HW176677   8.757  10.079   6.512
58260SOL    HW276678   8.609  10.054   6.487
58261SOL     OW76679  12.202  10.574   3.608
58261SOL    HW176680  12.292  10.571   3.575
58261SOL    HW276681  12.210  10.622   3.691
58262SOL     OW76682  10.261   6.200  10.590
58262SOL    HW176683  10.300   6.157  10.514
58262SOL    HW276684  10.294   6.289  10.586
58263SOL     OW76685   6.081   8.403   0.471
58263SOL    HW176686   6.012   8.340   0.493
58263SOL    HW276687   6.084   8.461   0.547
58264SOL     OW76688   9.516  11.981  10.133
58264SOL    HW176689   9.435  11.988  10.082
58264SOL    HW276690   9.541  11.889  10.126
58265SOL     OW76691  10.791   8.961   6.140
58265SOL    HW176692  10.702   8.982   6.112
58265SOL    HW276693  10.841   9.041   6.120
58266SOL     OW76694   9.655  13.495   7.340
58266SOL    HW176695   9.741  13.537   7.342
58266SOL    HW276696   9.675  13.403   7.322
58267SOL     OW76697  10.425  11.739  11.574
58267SOL    HW176698  10.373  11.663  11.600
58267SOL    HW276699  10.365  11.813  11.582
58268SOL     OW76700   0.899   8.140   9.584
58268SOL    HW176701   0.927   8.050   9.567
58268SOL    HW276702   0.845   8.164   9.509
58269SOL     OW76703   0.681   9.474   4.566
58269SOL    HW176704   0.754   9.415   4.546
58269SOL    HW276705   0.669   9.467   4.661
58270SOL     OW76706   4.951   5.513   5.398
58270SOL    HW176707   4.888   5.540   5.331
58270SOL    HW276708   4.993   5.435   5.362
58271SOL     OW76709  11.487   1.979   1.754
58271SOL    HW176710  11.419   2.024   1.805
58271SOL    HW276711  11.468   1.886   1.767
58272SOL     OW76712   8.188   4.804   3.791
58272SOL    HW176713   8.222   4.725   3.833
58272SOL    HW276714   8.144   4.852   3.861
58273SOL     OW76715   6.230   3.516   5.089
58273SOL    HW176716   6.134   3.514   5.088
58273SOL    HW276717   6.253   3.522   5.182
58274SOL     OW76718   6.898  11.587  10.683
58274SOL    HW176719   6.922  11.649  10.752
58274SOL    HW276720   6.973  11.586  10.624
58275SOL     OW76721   8.204   7.821  13.272
58275SOL    HW176722   8.178   7.759  13.341
58275SOL    HW276723   8.122   7.854  13.237
58276SOL     OW76724   4.965  10.576   5.610
58276SOL    HW176725   5.037  10.521   5.581
58276SOL    HW276726   4.893  10.515   5.628
58277SOL     OW76727   8.797   3.274   0.302
58277SOL    HW176728   8.705   3.272   0.326
58277SOL    HW276729   8.841   3.315   0.376
58278SOL     OW76730   9.752   9.855   8.057
58278SOL    HW176731   9.726   9.947   8.059
58278SOL    HW276732   9.693   9.812   8.118
58279SOL     OW76733   2.357   7.754   2.088
58279SOL    HW176734   2.351   7.689   2.158
58279SOL    HW276735   2.310   7.715   2.015
58280SOL     OW76736   9.652   2.839   6.707
58280SOL    HW176737   9.719   2.878   6.651
58280SOL    HW276738   9.601   2.914   6.738
58281SOL     OW76739   1.844   6.923   2.031
58281SOL    HW176740   1.847   6.951   1.940
58281SOL    HW276741   1.775   6.977   2.070
58282SOL     OW76742   3.264  11.230   8.163
58282SOL    HW176743   3.182  11.183   8.178
58282SOL    HW276744   3.294  11.199   8.078
58283SOL     OW76745   4.372  11.110  11.506
58283SOL    HW176746   4.463  11.101  11.535
58283SOL    HW276747   4.321  11.108  11.588
58284SOL     OW76748   1.844   9.585   5.264
58284SOL    HW176749   1.771   9.569   5.203
58284SOL    HW276750   1.801   9.613   5.345
58285SOL     OW76751   6.931   8.083   7.409
58285SOL    HW176752   6.975   8.127   7.482
58285SOL    HW276753   6.999   8.027   7.370
58286SOL     OW76754   9.423   7.829   3.989
58286SOL    HW176755   9.335   7.838   3.953
58286SOL    HW276756   9.475   7.792   3.918
58287SOL     OW76757   8.853  11.420   4.607
58287SOL    HW176758   8.841  11.514   4.597
58287SOL    HW276759   8.779  11.391   4.660
58288SOL     OW76760  13.911   6.862   8.552
58288SOL    HW176761  13.864   6.831   8.474
58288SOL    HW276762  13.843   6.893   8.611
58289SOL     OW76763   2.535  13.324   1.578
58289SOL    HW176764   2.462  13.314   1.639
58289SOL    HW276765   2.602  13.369   1.629
58290SOL     OW76766  12.845   2.847   8.496
58290SOL    HW176767  12.934   2.826   8.524
58290SOL    HW276768  12.795   2.767   8.512
58291SOL     OW76769  11.410  12.451   1.610
58291SOL    HW176770  11.388  12.401   1.689
58291SOL    HW276771  11.367  12.403   1.539
58292SOL     OW76772   7.332  14.324  12.429
58292SOL    HW176773   7.247  14.366  12.444
58292SOL    HW276774   7.374  14.377  12.361
58293SOL     OW76775   0.684  11.262  13.407
58293SOL    HW176776   0.686  11.212  13.488
58293SOL    HW276777   0.748  11.332  13.420
58294SOL     OW76778  10.848   2.839   3.290
58294SOL    HW176779  10.908   2.855   3.363
58294SOL    HW276780  10.792   2.917   3.287
58295SOL     OW76781   4.566   1.593  11.854
58295SOL    HW176782   4.566   1.633  11.767
58295SOL    HW276783   4.479   1.554  11.862
58296SOL     OW76784   4.838   6.806  13.464
58296SOL    HW176785   4.832   6.736  13.398
58296SOL    HW276786   4.820   6.762  13.547
58297SOL     OW76787   9.098  11.468  10.766
58297SOL    HW176788   9.159  11.448  10.695
58297SOL    HW276789   9.154  11.471  10.844
58298SOL     OW76790  14.373  12.029  12.371
58298SOL    HW176791  14.376  12.111  12.420
58298SOL    HW276792  14.460  11.991  12.380
58299SOL     OW76793  14.330   1.177  12.387
58299SOL    HW176794  14.352   1.230  12.310
58299SOL    HW276795  14.342   1.086  12.357
58300SOL     OW76796   9.801  10.129   3.485
58300SOL    HW176797   9.829  10.040   3.509
58300SOL    HW276798   9.882  10.173   3.459
58301SOL     OW76799   0.500  11.206  12.894
58301SOL    HW176800   0.465  11.284  12.851
58301SOL    HW276801   0.574  11.180  12.840
58302SOL     OW76802   7.677   3.010   3.283
58302SOL    HW176803   7.712   2.930   3.322
58302SOL    HW276804   7.618   3.046   3.350
58303SOL     OW76805  12.045   7.214   5.405
58303SOL    HW176806  12.005   7.245   5.486
58303SOL    HW276807  12.120   7.271   5.391
58304SOL     OW76808   7.099  10.424   9.954
58304SOL    HW176809   7.171  10.366   9.975
58304SOL    HW276810   7.099  10.489  10.024
58305SOL     OW76811  10.154  13.833   4.770
58305SOL    HW176812  10.166  13.738   4.770
58305SOL    HW276813  10.059  13.844   4.774
58306SOL     OW76814   7.404  13.645   7.585
58306SOL    HW176815   7.339  13.643   7.655
58306SOL    HW276816   7.481  13.685   7.626
58307SOL     OW76817   1.396   5.759  12.449
58307SOL    HW176818   1.472   5.711  12.416
58307SOL    HW276819   1.325   5.694  12.449
58308SOL     OW76820  12.233   1.883   3.937
58308SOL    HW176821  12.175   1.810   3.960
58308SOL    HW276822  12.176   1.946   3.892
58309SOL     OW76823  13.984  13.121   0.329
58309SOL    HW176824  14.050  13.190   0.324
58309SOL    HW276825  13.916  13.157   0.387
58310SOL     OW76826   8.667   1.512   3.130
58310SOL    HW176827   8.617   1.447   3.179
58310SOL    HW276828   8.754   1.511   3.169
58311SOL     OW76829  14.065   0.851   4.535
58311SOL    HW176830  14.152   0.878   4.508
58311SOL    HW276831  14.005   0.912   4.493
58312SOL     OW76832   1.489  12.665   7.080
58312SOL    HW176833   1.573  12.697   7.045
58312SOL    HW276834   1.456  12.738   7.131
58313SOL     OW76835   0.602   2.313   1.361
58313SOL    HW176836   0.667   2.245   1.350
58313SOL    HW276837   0.558   2.291   1.444
58314SOL     OW76838   4.279   0.182   4.300
58314SOL    HW176839   4.339   0.236   4.351
58314SOL    HW276840   4.230   0.244   4.246
58315SOL     OW76841  13.400  11.845   7.137
58315SOL    HW176842  13.493  11.849   7.160
58315SOL    HW276843  13.396  11.782   7.065
58316SOL     OW76844   0.329   8.352   3.852
58316SOL    HW176845   0.269   8.418   3.816
58316SOL    HW276846   0.391   8.334   3.781
58317SOL     OW76847   1.788   1.326   6.852
58317SOL    HW176848   1.736   1.392   6.807
58317SOL    HW276849   1.723   1.271   6.896
58318SOL     OW76850   7.055   9.884   6.752
58318SOL    HW176851   7.011   9.837   6.822
58318SOL    HW276852   7.141   9.842   6.745
58319SOL     OW76853  12.540  11.151   4.756
58319SOL    HW176854  12.605  11.161   4.686
58319SOL    HW276855  12.485  11.229   4.748
58320SOL     OW76856   6.285   3.448   2.736
58320SOL    HW176857   6.190   3.441   2.742
58320SOL    HW276858   6.311   3.375   2.681
58321SOL     OW76859   4.071   6.814   6.858
58321SOL    HW176860   4.102   6.841   6.945
58321SOL    HW276861   4.150   6.783   6.813
58322SOL     OW76862  13.418  14.786  12.725
58322SOL    HW176863  13.481  14.777  12.797
58322SOL    HW276864  13.346  14.837  12.763
58323SOL     OW76865   0.060   5.278   8.478
58323SOL    HW176866   0.130   5.225   8.515
58323SOL    HW276867   0.071   5.365   8.517
58324SOL     OW76868   4.632   5.195   2.508
58324SOL    HW176869   4.663   5.212   2.597
58324SOL    HW276870   4.706   5.217   2.452
58325SOL     OW76871   7.470  11.186   3.962
58325SOL    HW176872   7.415  11.241   3.906
58325SOL    HW276873   7.467  11.099   3.921
58326SOL     OW76874  11.222  12.709   5.522
58326SOL    HW176875  11.197  12.768   5.451
58326SOL    HW276876  11.282  12.646   5.481
58327SOL     OW76877   4.093   4.030   9.140
58327SOL    HW176878   4.084   3.962   9.208
58327SOL    HW276879   4.078   4.112   9.187
58328SOL     OW76880   1.798  13.421  10.298
58328SOL    HW176881   1.724  13.464  10.340
58328SOL    HW276882   1.799  13.333  10.336
58329SOL     OW76883   6.353   7.961   6.660
58329SOL    HW176884   6.404   7.974   6.580
58329SOL    HW276885   6.374   7.873   6.689
58330SOL     OW76886  12.503   6.990  12.620
58330SOL    HW176887  12.446   6.982  12.543
58330SOL    HW276888  12.539   6.902  12.632
58331SOL     OW76889  10.884   9.397   1.152
58331SOL    HW176890  10.879   9.321   1.093
58331SOL    HW276891  10.978   9.410   1.166
58332SOL     OW76892  13.407   1.383   5.639
58332SOL    HW176893  13.435   1.412   5.726
58332SOL    HW276894  13.347   1.311   5.657
58333SOL     OW76895   3.712   3.880   0.197
58333SOL    HW176896   3.774   3.808   0.208
58333SOL    HW276897   3.628   3.846   0.228
58334SOL     OW76898  11.300   4.246   8.144
58334SOL    HW176899  11.229   4.310   8.137
58334SOL    HW276900  11.293   4.194   8.065
58335SOL     OW76901   3.617   7.695   3.346
58335SOL    HW176902   3.631   7.672   3.437
58335SOL    HW276903   3.676   7.638   3.297
58336SOL     OW76904  11.673   7.006  13.839
58336SOL    HW176905  11.581   6.992  13.815
58336SOL    HW276906  11.689   7.098  13.821
58337SOL     OW76907   8.545   4.582   2.799
58337SOL    HW176908   8.637   4.606   2.814
58337SOL    HW276909   8.526   4.616   2.711
58338SOL     OW76910   7.203  11.290  14.530
58338SOL    HW176911   7.245  11.356  14.474
58338SOL    HW276912   7.274  11.231  14.556
58339SOL     OW76913  14.584  13.151   8.549
58339SOL    HW176914  14.543  13.070   8.519
58339SOL    HW276915  14.668  13.153   8.503
58340SOL     OW76916   2.761   2.486   4.049
58340SOL    HW176917   2.723   2.557   3.997
58340SOL    HW276918   2.701   2.413   4.037
58341SOL     OW76919  14.112  11.683  14.392
58341SOL    HW176920  14.177  11.647  14.452
58341SOL    HW276921  14.105  11.776  14.416
58342SOL     OW76922   3.003   9.614   0.357
58342SOL    HW176923   3.006   9.698   0.403
58342SOL    HW276924   3.094   9.584   0.355
58343SOL     OW76925   3.265   3.018   8.161
58343SOL    HW176926   3.272   2.971   8.078
58343SOL    HW276927   3.204   3.090   8.143
58344SOL     OW76928  11.766   7.872   9.273
58344SOL    HW176929  11.755   7.912   9.359
58344SOL    HW276930  11.836   7.808   9.284
58345SOL     OW76931   6.533  12.875   5.909
58345SOL    HW176932   6.514  12.783   5.926
58345SOL    HW276933   6.486  12.896   5.828
58346SOL     OW76934  10.651  12.655  11.677
58346SOL    HW176935  10.622  12.683  11.764
58346SOL    HW276936  10.663  12.560  11.685
58347SOL     OW76937   8.332   2.663   3.219
58347SOL    HW176938   8.370   2.726   3.158
58347SOL    HW276939   8.361   2.692   3.305
58348SOL     OW76940  13.795  10.612  13.249
58348SOL    HW176941  13.769  10.533  13.202
58348SOL    HW276942  13.886  10.627  13.221
58349SOL     OW76943   6.219  14.506   3.162
58349SOL    HW176944   6.236  14.594   3.129
58349SOL    HW276945   6.229  14.449   3.085
58350SOL     OW76946  13.903   9.676   4.766
58350SOL    HW176947  13.883   9.597   4.817
58350SOL    HW276948  13.930   9.643   4.680
58351SOL     OW76949   2.450   7.579   6.790
58351SOL    HW176950   2.527   7.621   6.829
58351SOL    HW276951   2.411   7.648   6.736
58352SOL     OW76952  14.431   3.732   2.787
58352SOL    HW176953  14.374   3.784   2.732
58352SOL    HW276954  14.456   3.790   2.859
58353SOL     OW76955   1.821   1.995   5.835
58353SOL    HW176956   1.772   1.917   5.858
58353SOL    HW276957   1.830   2.043   5.917
58354SOL     OW76958   2.869   2.925   8.087
58354SOL    HW176959   2.895   2.919   7.995
58354SOL    HW276960   2.807   2.853   8.099
58355SOL     OW76961   8.104  10.017  11.465
58355SOL    HW176962   8.039   9.972  11.519
58355SOL    HW276963   8.089   9.983  11.377
58356SOL     OW76964   2.570   7.937   5.777
58356SOL    HW176965   2.608   8.005   5.721
58356SOL    HW276966   2.577   7.856   5.726
58357SOL     OW76967   4.517   7.144  13.127
58357SOL    HW176968   4.556   7.081  13.066
58357SOL    HW276969   4.425   7.150  13.101
58358SOL     OW76970   7.290   2.392   3.105
58358SOL    HW176971   7.366   2.432   3.063
58358SOL    HW276972   7.271   2.314   3.053
58359SOL     OW76973  14.847   7.668   1.257
58359SOL    HW176974   0.006   7.581   1.247
58359SOL    HW276975  14.857   7.688   1.350
58360SOL     OW76976   6.444  10.541   3.874
58360SOL    HW176977   6.424  10.543   3.967
58360SOL    HW276978   6.361  10.559   3.831
58361SOL     OW76979   1.696   8.785   7.275
58361SOL    HW176980   1.718   8.711   7.332
58361SOL    HW276981   1.600   8.791   7.281
58362SOL     OW76982   0.417   6.383   0.399
58362SOL    HW176983   0.371   6.429   0.329
58362SOL    HW276984   0.413   6.291   0.373
58363SOL     OW76985   7.625   8.676   5.036
58363SOL    HW176986   7.654   8.611   4.972
58363SOL    HW276987   7.664   8.646   5.119
58364SOL     OW76988   5.493   5.952  14.088
58364SOL    HW176989   5.511   5.983  13.999
58364SOL    HW276990   5.535   6.018  14.145
58365SOL     OW76991  10.860   1.050   1.316
58365SOL    HW176992  10.773   1.014   1.300
58365SOL    HW276993  10.887   1.011   1.399
58366SOL     OW76994   9.041  10.220  10.260
58366SOL    HW176995   8.980  10.194  10.329
58366SOL    HW276996   9.096  10.287  10.299
58367SOL     OW76997   0.433   4.806   6.572
58367SOL    HW176998   0.520   4.788   6.606
58367SOL    HW276999   0.447   4.867   6.499
58368SOL     OW77000   3.219  14.772  11.274
58368SOL    HW177001   3.301  14.722  11.273
58368SOL    HW277002   3.243  14.857  11.310
58369SOL     OW77003   5.614  13.504   1.248
58369SOL    HW177004   5.624  13.452   1.168
58369SOL    HW277005   5.598  13.439   1.316
58370SOL     OW77006   0.267   3.330   9.772
58370SOL    HW177007   0.202   3.342   9.703
58370SOL    HW277008   0.308   3.416   9.782
58371SOL     OW77009   8.610  12.662   1.392
58371SOL    HW177010   8.578  12.711   1.468
58371SOL    HW277011   8.614  12.571   1.423
58372SOL     OW77012   7.221   0.131   5.608
58372SOL    HW177013   7.149   0.183   5.643
58372SOL    HW277014   7.299   0.164   5.653
58373SOL     OW77015  14.377   7.179  11.028
58373SOL    HW177016  14.283   7.170  11.013
58373SOL    HW277017  14.412   7.211  10.945
58374SOL     OW77018   3.008   1.832   5.863
58374SOL    HW177019   2.994   1.909   5.918
58374SOL    HW277020   3.068   1.863   5.795
58375SOL     OW77021  14.396   3.501   1.727
58375SOL    HW177022  14.331   3.469   1.790
58375SOL    HW277023  14.376   3.594   1.717
58376SOL     OW77024  14.470  11.323   6.907
58376SOL    HW177025  14.527  11.398   6.894
58376SOL    HW277026  14.439  11.332   6.998
58377SOL     OW77027   0.596  14.198   6.626
58377SOL    HW177028   0.596  14.165   6.716
58377SOL    HW277029   0.633  14.286   6.632
58378SOL     OW77030   3.294  12.948   6.071
58378SOL    HW177031   3.292  12.977   5.980
58378SOL    HW277032   3.206  12.914   6.087
58379SOL     OW77033  11.951  12.591  13.897
58379SOL    HW177034  11.964  12.533  13.972
58379SOL    HW277035  12.040  12.614  13.868
58380SOL     OW77036   7.567  12.271   7.716
58380SOL    HW177037   7.552  12.279   7.621
58380SOL    HW277038   7.639  12.209   7.724
58381SOL     OW77039  13.188   4.805   2.249
58381SOL    HW177040  13.273   4.835   2.282
58381SOL    HW277041  13.148   4.761   2.325
58382SOL     OW77042   9.726  12.536   9.690
58382SOL    HW177043   9.801  12.538   9.630
58382SOL    HW277044   9.715  12.627   9.717
58383SOL     OW77045  12.641   6.972  11.795
58383SOL    HW177046  12.571   6.960  11.730
58383SOL    HW277047  12.595   6.976  11.879
58384SOL     OW77048   9.278   8.618  10.681
58384SOL    HW177049   9.306   8.539  10.636
58384SOL    HW277050   9.252   8.588  10.768
58385SOL     OW77051   7.230   1.988  13.161
58385SOL    HW177052   7.293   2.047  13.121
58385SOL    HW277053   7.151   2.041  13.174
58386SOL     OW77054  13.094   1.424   6.510
58386SOL    HW177055  13.090   1.502   6.565
58386SOL    HW277056  13.006   1.416   6.473
58387SOL     OW77057  11.751   7.979  10.886
58387SOL    HW177058  11.754   7.918  10.959
58387SOL    HW277059  11.704   8.055  10.920
58388SOL     OW77060  13.865  10.175   4.322
58388SOL    HW177061  13.812  10.101   4.293
58388SOL    HW277062  13.926  10.138   4.385
58389SOL     OW77063   1.680  14.292   0.653
58389SOL    HW177064   1.643  14.204   0.661
58389SOL    HW277065   1.756  14.282   0.595
58390SOL     OW77066   3.653  10.940   9.039
58390SOL    HW177067   3.707  10.890   8.978
58390SOL    HW277068   3.610  11.006   8.984
58391SOL     OW77069  11.885   5.074   5.362
58391SOL    HW177070  11.925   5.158   5.380
58391SOL    HW277071  11.875   5.032   5.447
58392SOL     OW77072  11.712   6.857   1.565
58392SOL    HW177073  11.788   6.814   1.604
58392SOL    HW277074  11.712   6.828   1.474
58393SOL     OW77075  13.489   8.839   0.133
58393SOL    HW177076  13.503   8.886   0.215
58393SOL    HW277077  13.403   8.871   0.102
58394SOL     OW77078   8.871   8.381   5.539
58394SOL    HW177079   8.921   8.442   5.485
58394SOL    HW277080   8.856   8.306   5.481
58395SOL     OW77081   8.554  11.558   0.630
58395SOL    HW177082   8.522  11.629   0.575
58395SOL    HW277083   8.497  11.559   0.707
58396SOL     OW77084  11.050  11.391   1.051
58396SOL    HW177085  11.105  11.441   0.990
58396SOL    HW277086  11.012  11.321   0.996
58397SOL     OW77087   2.139   5.606   0.687
58397SOL    HW177088   2.088   5.663   0.630
58397SOL    HW277089   2.158   5.529   0.633
58398SOL     OW77090   5.031   6.075   9.661
58398SOL    HW177091   4.966   6.006   9.674
58398SOL    HW277092   4.994   6.151   9.706
58399SOL     OW77093   3.797  13.213  11.410
58399SOL    HW177094   3.754  13.174  11.486
58399SOL    HW277095   3.825  13.299  11.441
58400SOL     OW77096   2.699   3.778  12.204
58400SOL    HW177097   2.723   3.769  12.112
58400SOL    HW277098   2.724   3.867  12.227
58401SOL     OW77099   2.669  11.093  13.076
58401SOL    HW177100   2.651  11.021  13.136
58401SOL    HW277101   2.599  11.156  13.093
58402SOL     OW77102   2.989   4.880  12.021
58402SOL    HW177103   2.993   4.904  11.929
58402SOL    HW277104   3.037   4.797  12.027
58403SOL     OW77105   9.907   7.550   5.108
58403SOL    HW177106   9.937   7.490   5.176
58403SOL    HW277107   9.865   7.493   5.043
58404SOL     OW77108   5.440  14.534  11.482
58404SOL    HW177109   5.487  14.528  11.399
58404SOL    HW277110   5.393  14.617  11.477
58405SOL     OW77111   0.197   8.655   2.999
58405SOL    HW177112   0.122   8.713   3.014
58405SOL    HW277113   0.273   8.709   3.018
58406SOL     OW77114   0.311   1.313  14.078
58406SOL    HW177115   0.338   1.390  14.128
58406SOL    HW277116   0.384   1.252  14.085
58407SOL     OW77117   4.657   7.464  11.494
58407SOL    HW177118   4.655   7.442  11.401
58407SOL    HW277119   4.590   7.408  11.534
58408SOL     OW77120   3.372   7.903   8.748
58408SOL    HW177121   3.290   7.898   8.698
58408SOL    HW277122   3.380   7.816   8.788
58409SOL     OW77123   1.825   9.021   7.228
58409SOL    HW177124   1.839   9.041   7.135
58409SOL    HW277125   1.797   8.929   7.229
58410SOL     OW77126  11.556  14.768  11.753
58410SOL    HW177127  11.542  14.687  11.802
58410SOL    HW277128  11.489  14.766  11.684
58411SOL     OW77129  10.672   9.422   7.190
58411SOL    HW177130  10.667   9.504   7.239
58411SOL    HW277131  10.603   9.429   7.125
58412SOL     OW77132   7.618   7.070   5.342
58412SOL    HW177133   7.631   6.975   5.351
58412SOL    HW277134   7.672   7.095   5.267
58413SOL     OW77135   7.406  14.861   3.822
58413SOL    HW177136   7.445  14.815   3.896
58413SOL    HW277137   7.422  14.804   3.747
58414SOL     OW77138   1.805  14.224  10.732
58414SOL    HW177139   1.846  14.310  10.742
58414SOL    HW277140   1.731  14.225  10.793
58415SOL     OW77141   1.320  10.300   4.852
58415SOL    HW177142   1.359  10.223   4.893
58415SOL    HW277143   1.235  10.311   4.895
58416SOL     OW77144   8.404   9.870   4.616
58416SOL    HW177145   8.384   9.963   4.626
58416SOL    HW277146   8.397   9.855   4.521
58417SOL     OW77147   9.772   0.802  13.124
58417SOL    HW177148   9.723   0.874  13.164
58417SOL    HW277149   9.845   0.786  13.183
58418SOL     OW77150  13.244   4.972  10.697
58418SOL    HW177151  13.178   4.904  10.692
58418SOL    HW277152  13.246   5.011  10.610
58419SOL     OW77153   4.434   8.529   8.185
58419SOL    HW177154   4.393   8.552   8.268
58419SOL    HW277155   4.394   8.446   8.160
58420SOL     OW77156   3.008  14.832   9.940
58420SOL    HW177157   2.937  14.768   9.929
58420SOL    HW277158   2.964   0.033   9.964
58421SOL     OW77159   6.321   2.565  13.749
58421SOL    HW177160   6.378   2.489  13.759
58421SOL    HW277161   6.308   2.573  13.654
58422SOL     OW77162  14.787   4.507   4.310
58422SOL    HW177163  14.800   4.597   4.283
58422SOL    HW277164  14.719   4.474   4.252
58423SOL     OW77165   6.908   2.736   5.099
58423SOL    HW177166   6.855   2.699   5.028
58423SOL    HW277167   6.847   2.789   5.150
58424SOL     OW77168   6.127   0.403   9.495
58424SOL    HW177169   6.116   0.399   9.400
58424SOL    HW277170   6.184   0.329   9.516
58425SOL     OW77171  11.765   5.481   0.802
58425SOL    HW177172  11.700   5.415   0.825
58425SOL    HW277173  11.835   5.469   0.866
58426SOL     OW77174  10.068  12.690  10.551
58426SOL    HW177175  10.109  12.638  10.620
58426SOL    HW277176   9.974  12.682  10.567
58427SOL     OW77177   7.292   7.040  11.584
58427SOL    HW177178   7.386   7.061  11.583
58427SOL    HW277179   7.249   7.124  11.602
58428SOL     OW77180   9.367   9.657   6.010
58428SOL    HW177181   9.296   9.645   5.948
58428SOL    HW277182   9.351   9.743   6.049
58429SOL     OW77183  12.724   0.010   4.347
58429SOL    HW177184  12.725   0.024   4.442
58429SOL    HW277185  12.638  14.852   4.330
58430SOL     OW77186  13.801  10.070   3.367
58430SOL    HW177187  13.719  10.118   3.380
58430SOL    HW277188  13.826  10.088   3.277
58431SOL     OW77189   8.810   9.878  13.074
58431SOL    HW177190   8.782   9.788  13.061
58431SOL    HW277191   8.733   9.922  13.110
58432SOL     OW77192   2.011  11.276  12.435
58432SOL    HW177193   2.021  11.260  12.529
58432SOL    HW277194   1.918  11.262  12.417
58433SOL     OW77195   7.786   9.379   8.732
58433SOL    HW177196   7.804   9.456   8.787
58433SOL    HW277197   7.690   9.375   8.729
58434SOL     OW77198  11.231   2.017   1.452
58434SOL    HW177199  11.297   2.077   1.486
58434SOL    HW277200  11.156   2.074   1.431
58435SOL     OW77201  10.495   0.510  13.464
58435SOL    HW177202  10.563   0.522  13.397
58435SOL    HW277203  10.531   0.552  13.542
58436SOL     OW77204  10.141   3.905   5.861
58436SOL    HW177205  10.066   3.865   5.817
58436SOL    HW277206  10.216   3.880   5.807
58437SOL     OW77207   5.082   8.571   6.813
58437SOL    HW177208   5.157   8.630   6.822
58437SOL    HW277209   5.079   8.550   6.719
58438SOL     OW77210  11.917   8.083   8.908
58438SOL    HW177211  11.908   8.167   8.952
58438SOL    HW277212  11.879   8.097   8.821
58439SOL     OW77213  14.150   0.546   6.471
58439SOL    HW177214  14.220   0.525   6.409
58439SOL    HW277215  14.151   0.642   6.475
58440SOL     OW77216   4.843  13.250  13.572
58440SOL    HW177217   4.823  13.208  13.488
58440SOL    HW277218   4.809  13.190  13.638
58441SOL     OW77219  10.413  13.759   9.608
58441SOL    HW177220  10.469  13.687   9.579
58441SOL    HW277221  10.336  13.754   9.552
58442SOL     OW77222   2.348   6.884   3.224
58442SOL    HW177223   2.334   6.978   3.215
58442SOL    HW277224   2.328   6.848   3.138
58443SOL     OW77225   4.649   1.519  14.248
58443SOL    HW177226   4.701   1.536  14.170
58443SOL    HW277227   4.677   1.432  14.278
58444SOL     OW77228   3.730  14.725  13.238
58444SOL    HW177229   3.679  14.696  13.314
58444SOL    HW277230   3.728  14.821  13.243
58445SOL     OW77231   5.755   1.829  12.271
58445SOL    HW177232   5.726   1.918  12.256
58445SOL    HW277233   5.779   1.826  12.364
58446SOL     OW77234   7.887   4.721  12.055
58446SOL    HW177235   7.805   4.768  12.069
58446SOL    HW277236   7.868   4.661  11.983
58447SOL     OW77237   6.627  12.627   4.517
58447SOL    HW177238   6.669  12.704   4.479
58447SOL    HW277239   6.693  12.558   4.508
58448SOL     OW77240   2.679  14.476  10.554
58448SOL    HW177241   2.609  14.496  10.492
58448SOL    HW277242   2.741  14.423  10.504
58449SOL     OW77243  11.796   6.320  13.597
58449SOL    HW177244  11.730   6.292  13.660
58449SOL    HW277245  11.879   6.318  13.646
58450SOL     OW77246   3.981   2.128  10.951
58450SOL    HW177247   3.896   2.109  10.909
58450SOL    HW277248   3.957   2.169  11.034
58451SOL     OW77249  14.065   4.876   0.427
58451SOL    HW177250  14.117   4.795   0.436
58451SOL    HW277251  14.002   4.871   0.499
58452SOL     OW77252   2.539  11.163   5.323
58452SOL    HW177253   2.467  11.219   5.294
58452SOL    HW277254   2.500  11.076   5.331
58453SOL     OW77255   9.554   7.457  13.368
58453SOL    HW177256   9.503   7.411  13.435
58453SOL    HW277257   9.525   7.548  13.376
58454SOL     OW77258   0.736   5.821   1.138
58454SOL    HW177259   0.675   5.804   1.066
58454SOL    HW277260   0.809   5.868   1.098
58455SOL     OW77261   6.212  10.560  11.698
58455SOL    HW177262   6.232  10.652  11.680
58455SOL    HW277263   6.295  10.514  11.685
58456SOL     OW77264   5.630   3.929   2.563
58456SOL    HW177265   5.616   3.990   2.491
58456SOL    HW277266   5.563   3.952   2.628
58457SOL     OW77267   6.399   6.591   1.344
58457SOL    HW177268   6.338   6.663   1.326
58457SOL    HW277269   6.470   6.604   1.281
58458SOL     OW77270   2.003   0.578   8.268
58458SOL    HW177271   1.942   0.575   8.342
58458SOL    HW277272   2.082   0.618   8.304
58459SOL     OW77273  10.399   1.897   7.366
58459SOL    HW177274  10.323   1.918   7.313
58459SOL    HW277275  10.451   1.837   7.312
58460SOL     OW77276   6.242  11.687   1.053
58460SOL    HW177277   6.253  11.607   1.105
58460SOL    HW277278   6.331  11.722   1.044
58461SOL     OW77279   0.983  14.094   5.190
58461SOL    HW177280   1.063  14.134   5.155
58461SOL    HW277281   0.918  14.107   5.121
58462SOL     OW77282   5.340   2.062   0.069
58462SOL    HW177283   5.395   2.116   0.012
58462SOL    HW277284   5.266   2.037   0.014
58463SOL     OW77285   2.911   7.014   7.953
58463SOL    HW177286   2.953   6.946   8.005
58463SOL    HW277287   2.982   7.077   7.935
58464SOL     OW77288  11.546   0.020   7.097
58464SOL    HW177289  11.597   0.052   7.172
58464SOL    HW277290  11.604  14.838   7.053
58465SOL     OW77291  12.845  12.058   7.619
58465SOL    HW177292  12.931  12.023   7.641
58465SOL    HW277293  12.845  12.146   7.656
58466SOL     OW77294   3.120  13.104   2.317
58466SOL    HW177295   3.072  13.129   2.396
58466SOL    HW277296   3.102  13.174   2.254
58467SOL     OW77297   9.502   2.253  11.934
58467SOL    HW177298   9.534   2.165  11.916
58467SOL    HW277299   9.538   2.274  12.021
58468SOL     OW77300   7.989   3.901   1.425
58468SOL    HW177301   8.034   3.882   1.507
58468SOL    HW277302   7.979   3.996   1.425
58469SOL     OW77303   3.098   1.325   0.019
58469SOL    HW177304   3.028   1.321   0.084
58469SOL    HW277305   3.170   1.371   0.064
58470SOL     OW77306   1.828   5.968   8.805
58470SOL    HW177307   1.855   5.977   8.714
58470SOL    HW277308   1.889   5.903   8.842
58471SOL     OW77309   3.454   9.524  13.457
58471SOL    HW177310   3.480   9.597  13.514
58471SOL    HW277311   3.528   9.513  13.398
58472SOL     OW77312  13.298   2.731  10.424
58472SOL    HW177313  13.232   2.755  10.489
58472SOL    HW277314  13.280   2.789  10.350
58473SOL     OW77315   0.043   4.273  10.200
58473SOL    HW177316   0.003   4.195  10.162
58473SOL    HW277317   0.038   4.259  10.295
58474SOL     OW77318   8.204  14.017   5.063
58474SOL    HW177319   8.181  13.994   5.153
58474SOL    HW277320   8.136  13.976   5.010
58475SOL     OW77321  12.738   4.172   6.056
58475SOL    HW177322  12.661   4.127   6.092
58475SOL    HW277323  12.746   4.252   6.108
58476SOL     OW77324  11.946  10.521   7.357
58476SOL    HW177325  11.944  10.463   7.281
58476SOL    HW277326  11.856  10.525   7.387
58477SOL     OW77327   2.532  13.180   6.705
58477SOL    HW177328   2.606  13.202   6.648
58477SOL    HW277329   2.456  13.222   6.663
58478SOL     OW77330   0.514  11.352  12.630
58478SOL    HW177331   0.599  11.395  12.641
58478SOL    HW277332   0.452  11.425  12.625
58479SOL     OW77333  12.144   2.453   5.351
58479SOL    HW177334  12.206   2.491   5.414
58479SOL    HW277335  12.146   2.513   5.277
58480SOL     OW77336   3.476  10.110   5.256
58480SOL    HW177337   3.464  10.100   5.162
58480SOL    HW277338   3.388  10.103   5.292
58481SOL     OW77339  12.617  14.693   3.892
58481SOL    HW177340  12.624  14.783   3.924
58481SOL    HW277341  12.620  14.639   3.971
58482SOL     OW77342  14.201   4.000   9.954
58482SOL    HW177343  14.115   4.037   9.973
58482SOL    HW277344  14.247   4.001  10.038
58483SOL     OW77345   1.937   2.586  10.992
58483SOL    HW177346   1.849   2.573  11.026
58483SOL    HW277347   1.974   2.498  10.986
58484SOL     OW77348   3.572   9.334  12.630
58484SOL    HW177349   3.592   9.406  12.691
58484SOL    HW277350   3.658   9.307  12.597
58485SOL     OW77351   3.421   2.258   2.603
58485SOL    HW177352   3.382   2.342   2.581
58485SOL    HW277353   3.515   2.270   2.587
58486SOL     OW77354   2.394  11.925   0.144
58486SOL    HW177355   2.329  11.969   0.198
58486SOL    HW277356   2.437  11.864   0.203
58487SOL     OW77357   3.797   1.083   2.379
58487SOL    HW177358   3.721   1.046   2.423
58487SOL    HW277359   3.818   1.020   2.310
58488SOL     OW77360   8.795   8.196   5.372
58488SOL    HW177361   8.811   8.103   5.387
58488SOL    HW277362   8.701   8.206   5.384
58489SOL     OW77363  10.495  13.279   9.408
58489SOL    HW177364  10.511  13.254   9.317
58489SOL    HW277365  10.557  13.227   9.459
58490SOL     OW77366   9.938  12.263  13.884
58490SOL    HW177367   9.938  12.351  13.921
58490SOL    HW277368  10.029  12.247  13.860
58491SOL     OW77369  10.302   0.361   4.967
58491SOL    HW177370  10.367   0.299   4.938
58491SOL    HW277371  10.283   0.415   4.891
58492SOL     OW77372   8.648   4.133  11.141
58492SOL    HW177373   8.560   4.172  11.135
58492SOL    HW277374   8.650   4.090  11.226
58493SOL     OW77375   7.571  14.381  11.344
58493SOL    HW177376   7.514  14.422  11.280
58493SOL    HW277377   7.625  14.321  11.292
58494SOL     OW77378   7.501  13.423   3.707
58494SOL    HW177379   7.484  13.335   3.740
58494SOL    HW277380   7.426  13.442   3.650
58495SOL     OW77381   6.061   9.311   9.353
58495SOL    HW177382   6.087   9.396   9.389
58495SOL    HW277383   5.970   9.301   9.380
58496SOL     OW77384   4.658   1.817   1.062
58496SOL    HW177385   4.751   1.838   1.056
58496SOL    HW277386   4.650   1.729   1.027
58497SOL     OW77387   1.905  13.535   9.956
58497SOL    HW177388   1.964  13.535   9.881
58497SOL    HW277389   1.958  13.501  10.028
58498SOL     OW77390  10.483  14.176  11.533
58498SOL    HW177391  10.425  14.119  11.583
58498SOL    HW277392  10.499  14.130  11.451
58499SOL     OW77393  14.784  10.275   2.954
58499SOL    HW177394  14.733  10.195   2.958
58499SOL    HW277395  14.721  10.343   2.930
58500SOL     OW77396   8.284   3.309  11.433
58500SOL    HW177397   8.214   3.254  11.398
58500SOL    HW277398   8.284   3.387  11.377
58501SOL     OW77399   8.619   7.567   7.671
58501SOL    HW177400   8.554   7.513   7.626
58501SOL    HW277401   8.602   7.655   7.638
58502SOL     OW77402   6.855   1.144  14.355
58502SOL    HW177403   6.825   1.215  14.298
58502SOL    HW277404   6.856   1.183  14.443
58503SOL     OW77405  11.229   0.885  11.392
58503SOL    HW177406  11.227   0.843  11.306
58503SOL    HW277407  11.322   0.899  11.410
58504SOL     OW77408   3.474   6.824   2.623
58504SOL    HW177409   3.561   6.807   2.657
58504SOL    HW277410   3.424   6.745   2.643
58505SOL     OW77411   8.644   5.144   1.921
58505SOL    HW177412   8.681   5.181   1.841
58505SOL    HW277413   8.658   5.212   1.987
58506SOL     OW77414   7.679   1.279   9.342
58506SOL    HW177415   7.696   1.329   9.262
58506SOL    HW277416   7.697   1.340   9.413
58507SOL     OW77417   0.746  13.172  12.995
58507SOL    HW177418   0.750  13.076  13.000
58507SOL    HW277419   0.829  13.197  12.954
58508SOL     OW77420   2.969   0.937  14.791
58508SOL    HW177421   3.063   0.930  14.781
58508SOL    HW277422   2.951   0.901  14.878
58509SOL     OW77423   2.715   4.961   7.964
58509SOL    HW177424   2.739   5.053   7.970
58509SOL    HW277425   2.788   4.914   8.004
58510SOL     OW77426  12.510   9.548  10.332
58510SOL    HW177427  12.568   9.565  10.406
58510SOL    HW277428  12.434   9.604  10.347
58511SOL     OW77429   5.608  12.984   9.733
58511SOL    HW177430   5.524  12.954   9.698
58511SOL    HW277431   5.657  13.013   9.657
58512SOL     OW77432   6.515   7.756  12.598
58512SOL    HW177433   6.464   7.760  12.680
58512SOL    HW277434   6.606   7.760  12.627
58513SOL     OW77435  10.453   2.376  12.511
58513SOL    HW177436  10.522   2.359  12.575
58513SOL    HW277437  10.496   2.366  12.426
58514SOL     OW77438   2.572  10.758   5.266
58514SOL    HW177439   2.661  10.737   5.294
58514SOL    HW277440   2.579  10.771   5.171
58515SOL     OW77441   9.855   5.657  12.906
58515SOL    HW177442   9.922   5.611  12.857
58515SOL    HW277443   9.786   5.592  12.920
58516SOL     OW77444   3.474  10.113   9.824
58516SOL    HW177445   3.519  10.115   9.739
58516SOL    HW277446   3.419  10.035   9.819
58517SOL     OW77447   3.597   0.911   4.519
58517SOL    HW177448   3.543   0.960   4.581
58517SOL    HW277449   3.543   0.903   4.441
58518SOL     OW77450   2.718   6.387   2.516
58518SOL    HW177451   2.773   6.432   2.452
58518SOL    HW277452   2.761   6.303   2.531
58519SOL     OW77453   3.847   6.034  13.834
58519SOL    HW177454   3.882   6.105  13.780
58519SOL    HW277455   3.910   6.025  13.905
58520SOL     OW77456   1.124   8.951   7.871
58520SOL    HW177457   1.103   9.021   7.809
58520SOL    HW277458   1.069   8.878   7.844
58521SOL     OW77459   1.430  13.774  11.285
58521SOL    HW177460   1.362  13.799  11.348
58521SOL    HW277461   1.509  13.762  11.338
58522SOL     OW77462   7.753   9.803   5.913
58522SOL    HW177463   7.690   9.852   5.966
58522SOL    HW277464   7.835   9.851   5.924
58523SOL     OW77465   1.611   3.312   6.966
58523SOL    HW177466   1.649   3.379   6.910
58523SOL    HW277467   1.516   3.321   6.955
58524SOL     OW77468   1.110  13.280  14.626
58524SOL    HW177469   1.156  13.320  14.552
58524SOL    HW277470   1.026  13.326  14.629
58525SOL     OW77471   8.283   5.048   9.006
58525SOL    HW177472   8.333   5.069   8.927
58525SOL    HW277473   8.349   5.042   9.074
58526SOL     OW77474   0.480  11.694   9.687
58526SOL    HW177475   0.481  11.777   9.639
58526SOL    HW277476   0.461  11.719   9.778
58527SOL     OW77477   2.455   6.496   7.298
58527SOL    HW177478   2.501   6.414   7.318
58527SOL    HW277479   2.386   6.470   7.237
58528SOL     OW77480   4.439  12.738  10.580
58528SOL    HW177481   4.404  12.707  10.664
58528SOL    HW277482   4.461  12.830  10.595
58529SOL     OW77483  12.139   9.522   8.609
58529SOL    HW177484  12.211   9.578   8.637
58529SOL    HW277485  12.109   9.561   8.527
58530SOL     OW77486   9.289   0.315   5.203
58530SOL    HW177487   9.313   0.405   5.222
58530SOL    HW277488   9.372   0.268   5.198
58531SOL     OW77489   8.130   5.740   2.334
58531SOL    HW177490   8.039   5.709   2.333
58531SOL    HW277491   8.170   5.694   2.407
58532SOL     OW77492  11.579   2.541  10.762
58532SOL    HW177493  11.532   2.578  10.688
58532SOL    HW277494  11.658   2.594  10.770
58533SOL     OW77495   2.674   8.285   5.789
58533SOL    HW177496   2.652   8.364   5.740
58533SOL    HW277497   2.735   8.238   5.732
58534SOL     OW77498  11.821   2.012   7.407
58534SOL    HW177499  11.760   2.075   7.446
58534SOL    HW277500  11.770   1.968   7.339
58535SOL     OW77501  11.580   3.066   6.212
58535SOL    HW177502  11.580   3.157   6.183
58535SOL    HW277503  11.497   3.030   6.183
58536SOL     OW77504   9.380   6.455   3.304
58536SOL    HW177505   9.383   6.404   3.223
58536SOL    HW277506   9.460   6.430   3.350
58537SOL     OW77507  10.893   2.468   5.054
58537SOL    HW177508  10.805   2.506   5.043
58537SOL    HW277509  10.896   2.397   4.990
58538SOL     OW77510   0.773  13.891   6.198
58538SOL    HW177511   0.804  13.800   6.205
58538SOL    HW277512   0.757  13.917   6.289
58539SOL     OW77513   6.558   5.363  11.188
58539SOL    HW177514   6.624   5.363  11.118
58539SOL    HW277515   6.595   5.419  11.256
58540SOL     OW77516  10.482   4.319   5.395
58540SOL    HW177517  10.572   4.305   5.366
58540SOL    HW277518  10.430   4.258   5.342
58541SOL     OW77519  13.238   0.260  10.163
58541SOL    HW177520  13.184   0.209  10.223
58541SOL    HW277521  13.275   0.329  10.218
58542SOL     OW77522   8.611  13.589  13.973
58542SOL    HW177523   8.586  13.578  14.065
58542SOL    HW277524   8.693  13.638  13.977
58543SOL     OW77525   6.173   5.529   3.150
58543SOL    HW177526   6.266   5.530   3.175
58543SOL    HW277527   6.172   5.569   3.063
58544SOL     OW77528   6.540   0.130  13.385
58544SOL    HW177529   6.594   0.110  13.461
58544SOL    HW277530   6.463   0.073  13.394
58545SOL     OW77531   1.898   2.962   2.647
58545SOL    HW177532   1.827   2.942   2.586
58545SOL    HW277533   1.915   3.056   2.633
58546SOL     OW77534   1.811   6.990   5.543
58546SOL    HW177535   1.893   6.948   5.516
58546SOL    HW277536   1.838   7.074   5.579
58547SOL     OW77537  10.381   9.838   1.426
58547SOL    HW177538  10.366   9.930   1.450
58547SOL    HW277539  10.458   9.840   1.370
58548SOL     OW77540  12.480  11.688   9.338
58548SOL    HW177541  12.491  11.747   9.264
58548SOL    HW277542  12.435  11.740   9.404
58549SOL     OW77543   8.135   1.063  10.778
58549SOL    HW177544   8.192   1.045  10.703
58549SOL    HW277545   8.184   1.126  10.831
58550SOL     OW77546   0.731   9.219   7.309
58550SOL    HW177547   0.712   9.126   7.296
58550SOL    HW277548   0.713   9.259   7.223
58551SOL     OW77549   0.175  12.610   5.119
58551SOL    HW177550   0.267  12.604   5.094
58551SOL    HW277551   0.166  12.550   5.193
58552SOL     OW77552   3.210   8.743   8.607
58552SOL    HW177553   3.294   8.788   8.597
58552SOL    HW277554   3.168   8.787   8.681
58553SOL     OW77555   9.596   0.050   0.988
58553SOL    HW177556   9.691   0.051   0.980
58553SOL    HW277557   9.565   0.039   0.898
58554SOL     OW77558   2.501  14.265   4.993
58554SOL    HW177559   2.414  14.225   5.004
58554SOL    HW277560   2.499  14.341   5.051
58555SOL     OW77561   9.180  12.241   6.641
58555SOL    HW177562   9.087  12.260   6.631
58555SOL    HW277563   9.186  12.146   6.631
58556SOL     OW77564  11.398   8.807   3.603
58556SOL    HW177565  11.442   8.847   3.678
58556SOL    HW277566  11.460   8.743   3.570
58557SOL     OW77567   1.242  10.729   8.859
58557SOL    HW177568   1.317  10.730   8.799
58557SOL    HW277569   1.280  10.707   8.944
58558SOL     OW77570   3.561   3.773  12.802
58558SOL    HW177571   3.539   3.816  12.884
58558SOL    HW277572   3.533   3.834  12.734
58559SOL     OW77573   9.868   8.874  13.463
58559SOL    HW177574   9.954   8.915  13.455
58559SOL    HW277575   9.878   8.788  13.422
58560SOL     OW77576   7.982  10.433   0.658
58560SOL    HW177577   8.076  10.449   0.643
58560SOL    HW277578   7.958  10.369   0.592
58561SOL     OW77579   1.446   7.322   2.085
58561SOL    HW177580   1.386   7.248   2.076
58561SOL    HW277581   1.437   7.349   2.176
58562SOL     OW77582   7.776  12.548  11.166
58562SOL    HW177583   7.831  12.512  11.235
58562SOL    HW277584   7.695  12.573  11.210
58563SOL     OW77585  14.247   0.380  10.480
58563SOL    HW177586  14.246   0.474  10.498
58563SOL    HW277587  14.242   0.374  10.384
58564SOL     OW77588  14.791   4.021  11.804
58564SOL    HW177589  14.865   4.049  11.750
58564SOL    HW277590  14.728   3.985  11.741
58565SOL     OW77591   8.105  11.393   1.890
58565SOL    HW177592   8.057  11.470   1.920
58565SOL    HW277593   8.191  11.426   1.865
58566SOL     OW77594   7.691  11.742   5.510
58566SOL    HW177595   7.613  11.792   5.487
58566SOL    HW277596   7.729  11.717   5.426
58567SOL     OW77597   3.830   1.597   1.956
58567SOL    HW177598   3.794   1.508   1.958
58567SOL    HW277599   3.922   1.586   1.982
58568SOL     OW77600  10.849  12.789  12.720
58568SOL    HW177601  10.837  12.738  12.800
58568SOL    HW277602  10.856  12.724  12.650
58569SOL     OW77603   4.033   8.119   3.134
58569SOL    HW177604   4.125   8.110   3.159
58569SOL    HW277605   4.013   8.212   3.148
58570SOL     OW77606  12.596  13.866   5.566
58570SOL    HW177607  12.602  13.771   5.560
58570SOL    HW277608  12.529  13.882   5.633
58571SOL     OW77609   8.899   8.826   3.018
58571SOL    HW177610   8.916   8.840   3.111
58571SOL    HW277611   8.860   8.909   2.989
58572SOL     OW77612  11.906   8.243  14.342
58572SOL    HW177613  11.989   8.245  14.390
58572SOL    HW277614  11.914   8.167  14.284
58573SOL     OW77615  13.356   8.013  12.990
58573SOL    HW177616  13.411   8.075  13.038
58573SOL    HW277617  13.393   8.011  12.902
58574SOL     OW77618   8.049   7.915   5.522
58574SOL    HW177619   7.963   7.895   5.560
58574SOL    HW277620   8.072   8.000   5.559
58575SOL     OW77621   5.883  10.820   4.569
58575SOL    HW177622   5.964  10.829   4.518
58575SOL    HW277623   5.817  10.865   4.517
58576SOL     OW77624  12.517   8.701  12.241
58576SOL    HW177625  12.483   8.653  12.317
58576SOL    HW277626  12.612   8.702  12.254
58577SOL     OW77627   2.097   3.179   8.676
58577SOL    HW177628   2.168   3.141   8.727
58577SOL    HW277629   2.019   3.167   8.730
58578SOL     OW77630   7.759  11.468   9.459
58578SOL    HW177631   7.838  11.427   9.496
58578SOL    HW277632   7.718  11.399   9.407
58579SOL     OW77633   2.705   0.897   5.578
58579SOL    HW177634   2.751   0.951   5.513
58579SOL    HW277635   2.660   0.831   5.526
58580SOL     OW77636  14.277   2.979   6.532
58580SOL    HW177637  14.281   3.063   6.577
58580SOL    HW277638  14.186   2.971   6.505
58581SOL     OW77639  11.344   5.018   4.705
58581SOL    HW177640  11.333   5.086   4.639
58581SOL    HW277641  11.335   4.936   4.657
58582SOL     OW77642   3.321  10.839   4.207
58582SOL    HW177643   3.329  10.778   4.134
58582SOL    HW277644   3.261  10.906   4.176
58583SOL     OW77645   0.943   5.870   6.961
58583SOL    HW177646   0.876   5.935   6.983
58583SOL    HW277647   1.018   5.921   6.930
58584SOL     OW77648   0.256   1.251   8.326
58584SOL    HW177649   0.241   1.190   8.254
58584SOL    HW277650   0.197   1.324   8.309
58585SOL     OW77651   3.707   2.546   6.052
58585SOL    HW177652   3.628   2.591   6.024
58585SOL    HW277653   3.737   2.597   6.128
58586SOL     OW77654   0.952   1.035   3.647
58586SOL    HW177655   0.927   1.014   3.557
58586SOL    HW277656   0.981   1.126   3.644
58587SOL     OW77657   1.101  12.501  12.572
58587SOL    HW177658   1.119  12.421  12.620
58587SOL    HW277659   1.024  12.538  12.615
58588SOL     OW77660  11.322   8.669  10.506
58588SOL    HW177661  11.302   8.611  10.580
58588SOL    HW277662  11.386   8.731  10.542
58589SOL     OW77663   7.564  12.524   0.322
58589SOL    HW177664   7.618  12.570   0.388
58589SOL    HW277665   7.539  12.442   0.364
58590SOL     OW77666   8.349   9.821   0.548
58590SOL    HW177667   8.278   9.875   0.513
58590SOL    HW277668   8.409   9.884   0.589
58591SOL     OW77669   6.933   8.791   4.067
58591SOL    HW177670   6.888   8.729   4.125
58591SOL    HW277671   6.986   8.736   4.010
58592SOL     OW77672   3.389   1.801   4.975
58592SOL    HW177673   3.426   1.766   4.894
58592SOL    HW277674   3.458   1.856   5.012
58593SOL     OW77675   2.571   4.939  13.379
58593SOL    HW177676   2.487   4.983  13.389
58593SOL    HW277677   2.570   4.906  13.289
58594SOL     OW77678   0.446   6.124   1.021
58594SOL    HW177679   0.380   6.081   1.074
58594SOL    HW277680   0.463   6.207   1.067
58595SOL     OW77681   8.675   9.616  12.076
58595SOL    HW177682   8.582   9.606  12.092
58595SOL    HW277683   8.682   9.700  12.030
58596SOL     OW77684   8.143   8.012   4.288
58596SOL    HW177685   8.217   7.962   4.323
58596SOL    HW277686   8.174   8.043   4.203
58597SOL     OW77687  12.820   3.554   5.535
58597SOL    HW177688  12.801   3.646   5.518
58597SOL    HW277689  12.864   3.554   5.621
58598SOL     OW77690  11.648   9.851   4.277
58598SOL    HW177691  11.626   9.933   4.232
58598SOL    HW277692  11.564   9.807   4.290
58599SOL     OW77693   8.542   3.099  10.108
58599SOL    HW177694   8.517   3.072  10.020
58599SOL    HW277695   8.638   3.100  10.106
58600SOL     OW77696   3.243   5.991  13.329
58600SOL    HW177697   3.297   5.926  13.374
58600SOL    HW277698   3.288   6.007  13.246
58601SOL     OW77699   5.269  12.321  13.052
58601SOL    HW177700   5.254  12.396  13.109
58601SOL    HW277701   5.282  12.359  12.965
58602SOL     OW77702   9.194  13.597   2.629
58602SOL    HW177703   9.168  13.505   2.622
58602SOL    HW277704   9.197  13.614   2.724
58603SOL     OW77705   8.496   0.695   9.975
58603SOL    HW177706   8.553   0.668   9.903
58603SOL    HW277707   8.517   0.634  10.046
58604SOL     OW77708  14.691  14.783   5.573
58604SOL    HW177709  14.601  14.811   5.563
58604SOL    HW277710  14.697  14.701   5.525
58605SOL     OW77711   0.265  12.515   2.845
58605SOL    HW177712   0.280  12.555   2.931
58605SOL    HW277713   0.235  12.588   2.790
58606SOL     OW77714   2.688   5.348   3.977
58606SOL    HW177715   2.640   5.285   3.923
58606SOL    HW277716   2.719   5.297   4.051
58607SOL     OW77717   6.547   1.899  11.404
58607SOL    HW177718   6.522   1.863  11.319
58607SOL    HW277719   6.510   1.987  11.405
58608SOL     OW77720  10.312   1.620   2.943
58608SOL    HW177721  10.306   1.681   2.870
58608SOL    HW277722  10.307   1.675   3.021
58609SOL     OW77723   4.737  11.871   7.007
58609SOL    HW177724   4.816  11.858   6.955
58609SOL    HW277725   4.665  11.870   6.944
58610SOL     OW77726   1.108  12.291   0.041
58610SOL    HW177727   1.018  12.270   0.017
58610SOL    HW277728   1.152  12.310  14.839
58611SOL     OW77729  12.202   8.296   5.404
58611SOL    HW177730  12.193   8.337   5.490
58611SOL    HW277731  12.193   8.368   5.342
58612SOL     OW77732  13.090  13.494   0.463
58612SOL    HW177733  13.031  13.490   0.388
58612SOL    HW277734  13.062  13.572   0.511
58613SOL     OW77735  11.473  10.243  12.706
58613SOL    HW177736  11.470  10.268  12.613
58613SOL    HW277737  11.443  10.321  12.753
58614SOL     OW77738  12.820   3.206  10.995
58614SOL    HW177739  12.851   3.287  11.034
58614SOL    HW277740  12.877   3.138  11.032
58615SOL     OW77741  11.159   4.422   3.668
58615SOL    HW177742  11.093   4.364   3.630
58615SOL    HW277743  11.116   4.462   3.743
58616SOL     OW77744  12.578   6.315   2.932
58616SOL    HW177745  12.511   6.335   2.998
58616SOL    HW277746  12.569   6.385   2.868
58617SOL     OW77747   6.680  12.861  12.341
58617SOL    HW177748   6.632  12.944  12.344
58617SOL    HW277749   6.746  12.874  12.273
58618SOL     OW77750  13.649   5.541  14.675
58618SOL    HW177751  13.618   5.485  14.747
58618SOL    HW277752  13.615   5.627  14.696
58619SOL     OW77753   0.979   2.546  13.068
58619SOL    HW177754   0.931   2.626  13.045
58619SOL    HW277755   0.929   2.507  13.139
58620SOL     OW77756   3.455  10.391  13.467
58620SOL    HW177757   3.535  10.405  13.416
58620SOL    HW277758   3.392  10.356  13.405
58621SOL     OW77759   4.038   3.254   0.792
58621SOL    HW177760   4.063   3.280   0.881
58621SOL    HW277761   4.090   3.311   0.735
58622SOL     OW77762   4.845   8.921  12.480
58622SOL    HW177763   4.791   8.854  12.524
58622SOL    HW277764   4.799   8.940  12.399
58623SOL     OW77765  14.321   5.161  11.710
58623SOL    HW177766  14.269   5.200  11.780
58623SOL    HW277767  14.329   5.230  11.645
58624SOL     OW77768   5.677  13.465   6.811
58624SOL    HW177769   5.685  13.441   6.903
58624SOL    HW277770   5.586  13.442   6.788
58625SOL     OW77771  11.513   7.227   5.782
58625SOL    HW177772  11.584   7.261   5.837
58625SOL    HW277773  11.556   7.198   5.702
58626SOL     OW77774   5.201   6.053   6.633
58626SOL    HW177775   5.257   6.056   6.710
58626SOL    HW277776   5.135   5.986   6.654
58627SOL     OW77777   4.295   6.586  10.530
58627SOL    HW177778   4.331   6.668  10.562
58627SOL    HW277779   4.367   6.524  10.535
58628SOL     OW77780  13.199  12.915   1.799
58628SOL    HW177781  13.114  12.892   1.836
58628SOL    HW277782  13.261  12.860   1.846
58629SOL     OW77783   6.255   4.102   3.831
58629SOL    HW177784   6.298   4.030   3.784
58629SOL    HW277785   6.199   4.058   3.895
58630SOL     OW77786  13.504   0.461   4.295
58630SOL    HW177787  13.473   0.538   4.342
58630SOL    HW277788  13.437   0.394   4.310
58631SOL     OW77789  13.429   2.502   9.465
58631SOL    HW177790  13.344   2.489   9.423
58631SOL    HW277791  13.409   2.502   9.559
58632SOL     OW77792  10.408   7.165   5.037
58632SOL    HW177793  10.440   7.256   5.032
58632SOL    HW277794  10.484   7.115   5.068
58633SOL     OW77795   0.070   9.787   9.913
58633SOL    HW177796   0.001   9.733   9.952
58633SOL    HW277797   0.144   9.728   9.902
58634SOL     OW77798  11.482   5.314   3.992
58634SOL    HW177799  11.467   5.233   3.945
58634SOL    HW277800  11.396   5.357   3.996
58635SOL     OW77801   1.657  10.309  13.055
58635SOL    HW177802   1.608  10.330  13.135
58635SOL    HW277803   1.676  10.394  13.015
58636SOL     OW77804  14.676   6.162   1.972
58636SOL    HW177805  14.650   6.158   2.064
58636SOL    HW277806  14.594   6.171   1.924
58637SOL     OW77807   1.465  10.098   8.953
58637SOL    HW177808   1.518  10.132   9.025
58637SOL    HW277809   1.484  10.004   8.951
58638SOL     OW77810   7.941   5.859   6.692
58638SOL    HW177811   7.850   5.835   6.707
58638SOL    HW277812   7.937   5.940   6.642
58639SOL     OW77813   1.438  14.482   3.889
58639SOL    HW177814   1.478  14.396   3.873
58639SOL    HW277815   1.485  14.516   3.966
58640SOL     OW77816   2.221   6.789  13.534
58640SOL    HW177817   2.247   6.749  13.451
58640SOL    HW277818   2.131   6.760  13.547
58641SOL     OW77819   0.761   2.206  14.774
58641SOL    HW177820   0.775   2.116  14.746
58641SOL    HW277821   0.666   2.214  14.780
58642SOL     OW77822   7.243   6.423   6.524
58642SOL    HW177823   7.202   6.392   6.443
58642SOL    HW277824   7.179   6.404   6.592
58643SOL     OW77825   5.690  11.859   5.396
58643SOL    HW177826   5.744  11.792   5.355
58643SOL    HW277827   5.618  11.811   5.437
58644SOL     OW77828   5.569   3.446   0.331
58644SOL    HW177829   5.573   3.438   0.427
58644SOL    HW277830   5.517   3.525   0.316
58645SOL     OW77831   9.570   5.653  14.154
58645SOL    HW177832   9.555   5.687  14.066
58645SOL    HW277833   9.644   5.704  14.187
58646SOL     OW77834   0.977   8.425   4.712
58646SOL    HW177835   1.065   8.457   4.694
58646SOL    HW277836   0.949   8.477   4.788
58647SOL     OW77837  10.152   8.587   2.868
58647SOL    HW177838  10.193   8.671   2.889
58647SOL    HW277839  10.129   8.549   2.953
58648SOL     OW77840   0.194   8.981   2.035
58648SOL    HW177841   0.167   8.907   2.089
58648SOL    HW277842   0.253   8.943   1.969
58649SOL     OW77843   6.291   1.539  10.207
58649SOL    HW177844   6.245   1.622  10.193
58649SOL    HW277845   6.332   1.549  10.293
58650SOL     OW77846   6.035   6.381  10.077
58650SOL    HW177847   6.054   6.398   9.985
58650SOL    HW277848   5.942   6.402  10.086
58651SOL     OW77849   3.370  12.362   7.374
58651SOL    HW177850   3.336  12.350   7.286
58651SOL    HW277851   3.293  12.379   7.428
58652SOL     OW77852  13.149   1.568   0.654
58652SOL    HW177853  13.225   1.511   0.644
58652SOL    HW277854  13.182   1.645   0.700
58653SOL     OW77855  11.075   7.453   7.885
58653SOL    HW177856  10.991   7.499   7.892
58653SOL    HW277857  11.094   7.452   7.792
58654SOL     OW77858   4.559   6.468   4.118
58654SOL    HW177859   4.562   6.445   4.025
58654SOL    HW277860   4.466   6.488   4.134
58655SOL     OW77861   8.315  12.505  11.277
58655SOL    HW177862   8.278  12.588  11.248
58655SOL    HW277863   8.319  12.451  11.198
58656SOL     OW77864   4.491   0.952   0.967
58656SOL    HW177865   4.527   0.925   0.882
58656SOL    HW277866   4.447   1.035   0.949
58657SOL     OW77867  11.028  10.940   6.694
58657SOL    HW177868  11.011  10.934   6.788
58657SOL    HW277869  11.033  10.849   6.665
58658SOL     OW77870  11.561   9.459   2.031
58658SOL    HW177871  11.502   9.534   2.033
58658SOL    HW277872  11.647   9.496   2.055
58659SOL     OW77873  14.400   1.126   6.372
58659SOL    HW177874  14.487   1.123   6.411
58659SOL    HW277875  14.393   1.215   6.336
58660SOL     OW77876  10.863  13.554   5.046
58660SOL    HW177877  10.837  13.639   5.081
58660SOL    HW277878  10.947  13.535   5.088
58661SOL     OW77879   1.008   9.370  11.276
58661SOL    HW177880   1.052   9.407  11.199
58661SOL    HW277881   0.999   9.445  11.335
58662SOL     OW77882   0.594   5.207   3.703
58662SOL    HW177883   0.613   5.150   3.628
58662SOL    HW277884   0.498   5.209   3.707
58663SOL     OW77885  14.164   1.925   6.142
58663SOL    HW177886  14.140   1.915   6.050
58663SOL    HW277887  14.193   2.016   6.150
58664SOL     OW77888  10.484   5.595   1.073
58664SOL    HW177889  10.395   5.610   1.103
58664SOL    HW277890  10.540   5.630   1.142
58665SOL     OW77891   6.885   5.052   3.891
58665SOL    HW177892   6.827   4.987   3.929
58665SOL    HW277893   6.872   5.130   3.944
58666SOL     OW77894   6.771   6.234   2.043
58666SOL    HW177895   6.753   6.214   1.951
58666SOL    HW277896   6.859   6.199   2.058
58667SOL     OW77897   1.638   5.908   9.707
58667SOL    HW177898   1.728   5.936   9.689
58667SOL    HW277899   1.621   5.939   9.797
58668SOL     OW77900  14.209  11.338   0.578
58668SOL    HW177901  14.123  11.315   0.542
58668SOL    HW277902  14.205  11.432   0.591
58669SOL     OW77903  10.704  14.367  11.478
58669SOL    HW177904  10.799  14.360  11.464
58669SOL    HW277905  10.680  14.283  11.517
58670SOL     OW77906   9.709   8.062   8.140
58670SOL    HW177907   9.711   8.149   8.180
58670SOL    HW277908   9.740   8.076   8.051
58671SOL     OW77909   9.944   6.374   5.918
58671SOL    HW177910   9.883   6.370   5.992
58671SOL    HW277911  10.009   6.306   5.936
58672SOL     OW77912   6.257   7.355   6.757
58672SOL    HW177913   6.344   7.376   6.722
58672SOL    HW277914   6.226   7.438   6.793
58673SOL     OW77915  12.355  10.136  12.431
58673SOL    HW177916  12.350  10.184  12.349
58673SOL    HW277917  12.267  10.098  12.442
58674SOL     OW77918  10.078   4.240  14.204
58674SOL    HW177919  10.094   4.233  14.110
58674SOL    HW277920   9.990   4.202  14.216
58675SOL     OW77921   3.973   4.882  13.734
58675SOL    HW177922   3.939   4.794  13.716
58675SOL    HW277923   4.067   4.875  13.721
58676SOL     OW77924   1.128   8.907   6.691
58676SOL    HW177925   1.219   8.878   6.686
58676SOL    HW277926   1.078   8.828   6.707
58677SOL     OW77927   8.093   2.203  10.594
58677SOL    HW177928   8.040   2.215  10.515
58677SOL    HW277929   8.139   2.120  10.580
58678SOL     OW77930   9.231   8.437  12.150
58678SOL    HW177931   9.250   8.388  12.230
58678SOL    HW277932   9.218   8.369  12.084
58679SOL     OW77933  12.164  10.310  11.304
58679SOL    HW177934  12.135  10.363  11.379
58679SOL    HW277935  12.140  10.221  11.328
58680SOL     OW77936   0.911  13.818   4.069
58680SOL    HW177937   0.988  13.812   4.012
58680SOL    HW277938   0.899  13.729   4.102
58681SOL     OW77939  10.593   5.888   5.858
58681SOL    HW177940  10.587   5.794   5.875
58681SOL    HW277941  10.581   5.895   5.764
58682SOL     OW77942   1.499   8.589  11.237
58682SOL    HW177943   1.544   8.659  11.190
58682SOL    HW277944   1.562   8.558  11.301
58683SOL     OW77945   2.672   8.398   8.893
58683SOL    HW177946   2.753   8.431   8.932
58683SOL    HW277947   2.639   8.471   8.841
58684SOL     OW77948  13.127  14.490   8.438
58684SOL    HW177949  13.203  14.462   8.488
58684SOL    HW277950  13.065  14.417   8.445
58685SOL     OW77951  13.885   8.007   4.320
58685SOL    HW177952  13.859   8.094   4.349
58685SOL    HW277953  13.929   7.968   4.396
58686SOL     OW77954   1.967  14.084   4.205
58686SOL    HW177955   1.871  14.088   4.205
58686SOL    HW277956   1.991  14.093   4.297
58687SOL     OW77957   3.077   9.462   3.666
58687SOL    HW177958   3.157   9.513   3.669
58687SOL    HW277959   3.056   9.454   3.573
58688SOL     OW77960   6.934  10.929   8.419
58688SOL    HW177961   6.925  11.014   8.376
58688SOL    HW277962   7.025  10.925   8.446
58689SOL     OW77963  11.236  11.210  11.446
58689SOL    HW177964  11.283  11.259  11.379
58689SOL    HW277965  11.151  11.192  11.407
58690SOL     OW77966  13.833   4.921   5.217
58690SOL    HW177967  13.890   4.965   5.154
58690SOL    HW277968  13.744   4.938   5.185
58691SOL     OW77969   3.802   2.185   7.808
58691SOL    HW177970   3.760   2.271   7.798
58691SOL    HW277971   3.789   2.142   7.723
58692SOL     OW77972   1.359   9.696   3.413
58692SOL    HW177973   1.441   9.722   3.371
58692SOL    HW277974   1.369   9.602   3.429
58693SOL     OW77975   8.594   5.023  13.951
58693SOL    HW177976   8.607   4.955  14.017
58693SOL    HW277977   8.680   5.064  13.941
58694SOL     OW77978  12.480   5.550  13.236
58694SOL    HW177979  12.526   5.590  13.162
58694SOL    HW277980  12.434   5.623  13.278
58695SOL     OW77981  12.329   2.448  12.278
58695SOL    HW177982  12.271   2.522  12.258
58695SOL    HW277983  12.389   2.481  12.345
58696SOL     OW77984   1.686   0.009  12.621
58696SOL    HW177985   1.737  14.843  12.554
58696SOL    HW277986   1.749   0.025  12.691
58697SOL     OW77987   1.939   3.723  11.044
58697SOL    HW177988   1.852   3.683  11.052
58697SOL    HW277989   1.947   3.742  10.950
58698SOL     OW77990  14.376   7.273   4.145
58698SOL    HW177991  14.425   7.210   4.092
58698SOL    HW277992  14.297   7.225   4.172
58699SOL     OW77993   1.174  12.760   6.125
58699SOL    HW177994   1.184  12.676   6.170
58699SOL    HW277995   1.120  12.813   6.182
58700SOL     OW77996   4.994   5.618  12.012
58700SOL    HW177997   5.009   5.668  12.092
58700SOL    HW277998   5.028   5.675  11.942
58701SOL     OW77999  14.549   4.363   4.773
58701SOL    HW178000  14.525   4.455   4.767
58701SOL    HW278001  14.588   4.353   4.860
58702SOL     OW78002   1.064   4.840   8.866
58702SOL    HW178003   1.104   4.924   8.888
58702SOL    HW278004   0.995   4.862   8.803
58703SOL     OW78005   2.717   9.509  10.977
58703SOL    HW178006   2.641   9.452  10.974
58703SOL    HW278007   2.735   9.529  10.885
58704SOL     OW78008   3.519   6.239  11.485
58704SOL    HW178009   3.507   6.189  11.404
58704SOL    HW278010   3.434   6.282  11.498
58705SOL     OW78011  10.811  14.406  12.595
58705SOL    HW178012  10.875  14.446  12.654
58705SOL    HW278013  10.848  14.319  12.575
58706SOL     OW78014   2.843   9.488   7.391
58706SOL    HW178015   2.781   9.560   7.385
58706SOL    HW278016   2.800   9.423   7.447
58707SOL     OW78017   4.249   6.781   1.452
58707SOL    HW178018   4.185   6.725   1.410
58707SOL    HW278019   4.198   6.838   1.509
58708SOL     OW78020   9.199   7.067   9.732
58708SOL    HW178021   9.137   7.102   9.668
58708SOL    HW278022   9.168   7.101   9.816
58709SOL     OW78023  10.374   8.185   7.854
58709SOL    HW178024  10.428   8.213   7.780
58709SOL    HW278025  10.437   8.161   7.922
58710SOL     OW78026  10.046   9.683   2.662
58710SOL    HW178027  10.107   9.700   2.590
58710SOL    HW278028   9.960   9.677   2.620
58711SOL     OW78029  10.142   9.960  11.401
58711SOL    HW178030  10.055   9.951  11.439
58711SOL    HW278031  10.166  10.052  11.416
58712SOL     OW78032   6.442   0.255  12.725
58712SOL    HW178033   6.403   0.223  12.806
58712SOL    HW278034   6.528   0.287  12.752
58713SOL     OW78035   7.797  11.389   3.785
58713SOL    HW178036   7.705  11.418   3.780
58713SOL    HW278037   7.845  11.455   3.734
58714SOL     OW78038   0.196   5.407   3.780
58714SOL    HW178039   0.138   5.445   3.714
58714SOL    HW278040   0.249   5.343   3.732
58715SOL     OW78041   8.629  14.416  14.706
58715SOL    HW178042   8.550  14.362  14.704
58715SOL    HW278043   8.596  14.506  14.696
58716SOL     OW78044   5.884   3.523   9.379
58716SOL    HW178045   5.875   3.524   9.474
58716SOL    HW278046   5.805   3.478   9.348
58717SOL     OW78047   9.203   7.846   6.749
58717SOL    HW178048   9.241   7.803   6.673
58717SOL    HW278049   9.225   7.938   6.738
58718SOL     OW78050   3.088   3.222   7.666
58718SOL    HW178051   3.018   3.199   7.605
58718SOL    HW278052   3.044   3.269   7.737
58719SOL     OW78053   7.578   3.944  11.172
58719SOL    HW178054   7.530   3.864  11.196
58719SOL    HW278055   7.658   3.941  11.225
58720SOL     OW78056  14.775  12.021   5.901
58720SOL    HW178057  14.701  12.075   5.927
58720SOL    HW278058  14.761  12.004   5.808
58721SOL     OW78059  10.543  13.499   4.770
58721SOL    HW178060  10.523  13.438   4.842
58721SOL    HW278061  10.472  13.563   4.773
58722SOL     OW78062   3.559  11.398   0.133
58722SOL    HW178063   3.587  11.439   0.051
58722SOL    HW278064   3.512  11.467   0.179
58723SOL     OW78065   4.564  11.078   6.122
58723SOL    HW178066   4.569  11.120   6.036
58723SOL    HW278067   4.518  10.996   6.106
58724SOL     OW78068  12.960   5.489   0.157
58724SOL    HW178069  12.872   5.524   0.147
58724SOL    HW278070  12.957   5.404   0.113
58725SOL     OW78071  14.334   2.473   5.037
58725SOL    HW178072  14.382   2.398   5.071
58725SOL    HW278073  14.398   2.544   5.035
58726SOL     OW78074   8.998   5.705   9.673
58726SOL    HW178075   9.035   5.783   9.713
58726SOL    HW278076   9.062   5.679   9.607
58727SOL     OW78077   0.959   9.584  14.660
58727SOL    HW178078   0.932   9.657  14.714
58727SOL    HW278079   0.878   9.552  14.620
58728SOL     OW78080  10.109   3.939  11.113
58728SOL    HW178081  10.196   3.947  11.152
58728SOL    HW278082  10.097   4.020  11.064
58729SOL     OW78083   1.485   8.567   8.340
58729SOL    HW178084   1.566   8.596   8.298
58729SOL    HW278085   1.513   8.520   8.418
58730SOL     OW78086   2.125  12.443   7.876
58730SOL    HW178087   2.086  12.523   7.911
58730SOL    HW278088   2.218  12.464   7.868
58731SOL     OW78089  13.238  12.936  13.359
58731SOL    HW178090  13.184  12.983  13.424
58731SOL    HW278091  13.309  12.996  13.339
58732SOL     OW78092   9.338   6.703   7.629
58732SOL    HW178093   9.311   6.613   7.606
58732SOL    HW278094   9.312   6.714   7.720
58733SOL     OW78095  10.060  10.870  10.209
58733SOL    HW178096  10.050  10.815  10.287
58733SOL    HW278097  10.108  10.816  10.147
58734SOL     OW78098   2.090  13.914  13.679
58734SOL    HW178099   2.128  13.853  13.743
58734SOL    HW278100   2.120  13.882  13.594
58735SOL     OW78101   1.530   3.699   9.795
58735SOL    HW178102   1.468   3.772   9.790
58735SOL    HW278103   1.612   3.734   9.760
58736SOL     OW78104   3.976  11.063  13.321
58736SOL    HW178105   3.898  11.118  13.316
58736SOL    HW278106   3.960  10.994  13.257
58737SOL     OW78107  11.714   1.681   4.749
58737SOL    HW178108  11.723   1.684   4.844
58737SOL    HW278109  11.774   1.611   4.722
58738SOL     OW78110  14.649   1.618  13.595
58738SOL    HW178111  14.716   1.594  13.659
58738SOL    HW278112  14.671   1.706  13.568
58739SOL     OW78113   7.590   3.590  12.900
58739SOL    HW178114   7.562   3.502  12.875
58739SOL    HW278115   7.673   3.603  12.855
58740SOL     OW78116   3.155   2.590  13.748
58740SOL    HW178117   3.090   2.625  13.808
58740SOL    HW278118   3.239   2.605  13.791
58741SOL     OW78119   6.618  11.686  12.185
58741SOL    HW178120   6.586  11.713  12.271
58741SOL    HW278121   6.690  11.626  12.204
58742SOL     OW78122   1.565   6.500   5.107
58742SOL    HW178123   1.536   6.414   5.137
58742SOL    HW278124   1.656   6.488   5.082
58743SOL     OW78125   3.923   6.889  11.163
58743SOL    HW178126   3.962   6.848  11.086
58743SOL    HW278127   3.844   6.838  11.180
58744SOL     OW78128  10.018  13.779   2.335
58744SOL    HW178129  10.106  13.742   2.325
58744SOL    HW278130  10.001  13.822   2.251
58745SOL     OW78131  14.191   7.103  14.470
58745SOL    HW178132  14.195   7.037  14.401
58745SOL    HW278133  14.101   7.136  14.467
58746SOL     OW78134  11.929  12.580   4.115
58746SOL    HW178135  11.972  12.507   4.071
58746SOL    HW278136  11.850  12.596   4.064
58747SOL     OW78137   7.122   7.990   7.212
58747SOL    HW178138   7.130   8.057   7.144
58747SOL    HW278139   7.062   7.925   7.175
58748SOL     OW78140   8.301  13.722  10.667
58748SOL    HW178141   8.382  13.772  10.670
58748SOL    HW278142   8.317  13.654  10.602
58749SOL     OW78143  14.206  10.283  12.708
58749SOL    HW178144  14.194  10.367  12.665
58749SOL    HW278145  14.117  10.256  12.732
58750SOL     OW78146  12.067   2.330   0.987
58750SOL    HW178147  12.100   2.387   1.056
58750SOL    HW278148  11.999   2.381   0.943
58751SOL     OW78149   5.837  13.172   6.867
58751SOL    HW178150   5.833  13.201   6.776
58751SOL    HW278151   5.766  13.219   6.911
58752SOL     OW78152   8.227  13.277   9.460
58752SOL    HW178153   8.278  13.196   9.454
58752SOL    HW278154   8.233  13.301   9.553
58753SOL     OW78155   6.868   5.690  13.651
58753SOL    HW178156   6.842   5.781  13.636
58753SOL    HW278157   6.931   5.671  13.581
58754SOL     OW78158  11.476   4.675  12.309
58754SOL    HW178159  11.474   4.765  12.275
58754SOL    HW278160  11.409   4.629  12.260
58755SOL     OW78161   9.184  12.757  11.305
58755SOL    HW178162   9.121  12.752  11.377
58755SOL    HW278163   9.238  12.678  11.315
58756SOL     OW78164   0.748  12.835  10.118
58756SOL    HW178165   0.767  12.786  10.037
58756SOL    HW278166   0.717  12.920  10.088
58757SOL     OW78167   3.253   5.361  12.101
58757SOL    HW178168   3.280   5.381  12.012
58757SOL    HW278169   3.180   5.299  12.090
58758SOL     OW78170  12.340  13.589   3.653
58758SOL    HW178171  12.339  13.541   3.736
58758SOL    HW278172  12.431  13.616   3.643
58759SOL     OW78173   2.850   7.244   5.309
58759SOL    HW178174   2.912   7.179   5.339
58759SOL    HW278175   2.884   7.327   5.343
58760SOL     OW78176  10.953   1.389   7.672
58760SOL    HW178177  10.859   1.410   7.669
58760SOL    HW278178  10.972   1.353   7.586
58761SOL     OW78179   6.121   0.691   2.677
58761SOL    HW178180   6.099   0.755   2.609
58761SOL    HW278181   6.045   0.690   2.734
58762SOL     OW78182   1.877   5.043   1.419
58762SOL    HW178183   1.889   4.987   1.495
58762SOL    HW278184   1.782   5.045   1.406
58763SOL     OW78185  14.465  11.273   7.637
58763SOL    HW178186  14.526  11.342   7.664
58763SOL    HW278187  14.428  11.305   7.555
58764SOL     OW78188   5.632  12.593   6.076
58764SOL    HW178189   5.707  12.534   6.072
58764SOL    HW278190   5.563  12.548   6.026
58765SOL     OW78191  14.832  11.320  10.072
58765SOL    HW178192  14.825  11.295  10.164
58765SOL    HW278193  14.868  11.243  10.029
58766SOL     OW78194  13.093   4.375   6.074
58766SOL    HW178195  13.097   4.293   6.123
58766SOL    HW278196  13.111   4.443   6.139
58767SOL     OW78197   1.667   9.844  12.432
58767SOL    HW178198   1.749   9.795  12.439
58767SOL    HW278199   1.606   9.797  12.489
58768SOL     OW78200  14.102   1.830   4.542
58768SOL    HW178201  14.030   1.819   4.479
58768SOL    HW278202  14.109   1.924   4.555
58769SOL     OW78203   5.175   6.578   1.942
58769SOL    HW178204   5.173   6.595   2.036
58769SOL    HW278205   5.222   6.495   1.933
58770SOL     OW78206   5.147   9.843   7.590
58770SOL    HW178207   5.231   9.856   7.633
58770SOL    HW278208   5.153   9.756   7.550
58771SOL     OW78209   5.496   3.854   1.057
58771SOL    HW178210   5.527   3.800   1.131
58771SOL    HW278211   5.438   3.918   1.098
58772SOL     OW78212   1.766   6.768  12.622
58772SOL    HW178213   1.705   6.750  12.551
58772SOL    HW278214   1.853   6.753  12.584
58773SOL     OW78215   9.260   4.220   9.627
58773SOL    HW178216   9.304   4.240   9.709
58773SOL    HW278217   9.253   4.304   9.582
58774SOL     OW78218   2.335  12.507   3.454
58774SOL    HW178219   2.314  12.543   3.368
58774SOL    HW278220   2.430  12.495   3.452
58775SOL     OW78221   5.045  11.038   1.172
58775SOL    HW178222   5.071  11.129   1.165
58775SOL    HW278223   5.025  11.011   1.082
58776SOL     OW78224   3.860   8.058  14.834
58776SOL    HW178225   3.857   8.143  14.877
58776SOL    HW278226   3.944   8.057  14.789
58777SOL     OW78227  13.601   1.874   0.055
58777SOL    HW178228  13.528   1.932   0.077
58777SOL    HW278229  13.660   1.928   0.003
58778SOL     OW78230  14.248  14.838   7.939
58778SOL    HW178231  14.154  14.822   7.929
58778SOL    HW278232  14.277  14.771   8.001
58779SOL     OW78233   5.495   1.748  11.263
58779SOL    HW178234   5.418   1.692  11.251
58779SOL    HW278235   5.569   1.691  11.248
58780SOL     OW78236  13.090   9.282   6.140
58780SOL    HW178237  13.174   9.300   6.183
58780SOL    HW278238  13.029   9.265   6.212
58781SOL     OW78239  10.115   0.849  11.231
58781SOL    HW178240  10.045   0.815  11.175
58781SOL    HW278241  10.195   0.834  11.181
58782SOL     OW78242   8.019  14.010  12.526
58782SOL    HW178243   7.939  13.975  12.565
58782SOL    HW278244   8.019  14.102  12.550
58783SOL     OW78245   0.621   1.198   3.737
58783SOL    HW178246   0.601   1.257   3.809
58783SOL    HW278247   0.680   1.133   3.775
58784SOL     OW78248  10.705   2.795   9.585
58784SOL    HW178249  10.668   2.883   9.574
58784SOL    HW278250  10.753   2.779   9.504
58785SOL     OW78251   9.691  12.252   4.153
58785SOL    HW178252   9.654  12.302   4.080
58785SOL    HW278253   9.754  12.313   4.193
58786SOL     OW78254   8.559  14.611   0.810
58786SOL    HW178255   8.565  14.516   0.819
58786SOL    HW278256   8.638  14.645   0.852
58787SOL     OW78257   7.955   8.178  13.370
58787SOL    HW178258   7.867   8.198  13.339
58787SOL    HW278259   7.945   8.095  13.418
58788SOL     OW78260   3.941  10.965   6.732
58788SOL    HW178261   3.949  11.054   6.766
58788SOL    HW278262   4.008  10.915   6.777
58789SOL     OW78263   5.506   6.575   9.805
58789SOL    HW178264   5.458   6.640   9.855
58789SOL    HW278265   5.468   6.579   9.717
58790SOL     OW78266  14.710   5.669   1.736
58790SOL    HW178267  14.788   5.684   1.683
58790SOL    HW278268  14.644   5.637   1.674
58791SOL     OW78269  10.103  11.682   2.074
58791SOL    HW178270  10.192  11.712   2.093
58791SOL    HW278271  10.100  11.593   2.109
58792SOL     OW78272   9.035   2.172   7.517
58792SOL    HW178273   9.119   2.169   7.472
58792SOL    HW278274   9.037   2.255   7.566
58793SOL     OW78275   5.735  12.949  11.147
58793SOL    HW178276   5.642  12.963  11.164
58793SOL    HW278277   5.767  12.906  11.227
58794SOL     OW78278   6.761   3.306   3.289
58794SOL    HW178279   6.852   3.292   3.265
58794SOL    HW278280   6.734   3.224   3.332
58795SOL     OW78281   7.589  12.703   5.358
58795SOL    HW178282   7.681  12.679   5.369
58795SOL    HW278283   7.592  12.784   5.307
58796SOL     OW78284   0.582   2.026   1.393
58796SOL    HW178285   0.493   1.989   1.398
58796SOL    HW278286   0.598   2.062   1.480
58797SOL     OW78287   6.743   9.002   9.915
58797SOL    HW178288   6.717   8.992   9.824
58797SOL    HW278289   6.661   9.006   9.964
58798SOL     OW78290   0.252   2.739   4.547
58798SOL    HW178291   0.312   2.782   4.487
58798SOL    HW278292   0.207   2.674   4.494
58799SOL     OW78293   5.731  10.216  11.209
58799SOL    HW178294   5.783  10.238  11.131
58799SOL    HW278295   5.648  10.262  11.196
58800SOL     OW78296   0.695   7.854   8.538
58800SOL    HW178297   0.676   7.944   8.565
58800SOL    HW278298   0.786   7.857   8.508
58801SOL     OW78299   4.989   6.617   4.150
58801SOL    HW178300   5.071   6.633   4.104
58801SOL    HW278301   4.967   6.701   4.190
58802SOL     OW78302   0.699   4.102  13.243
58802SOL    HW178303   0.671   4.010  13.244
58802SOL    HW278304   0.719   4.119  13.151
58803SOL     OW78305   5.186   4.181   3.279
58803SOL    HW178306   5.258   4.118   3.273
58803SOL    HW278307   5.200   4.225   3.363
58804SOL     OW78308  12.684   4.544   0.131
58804SOL    HW178309  12.768   4.532   0.087
58804SOL    HW278310  12.699   4.514   0.220
58805SOL     OW78311  12.101   6.865  12.345
58805SOL    HW178312  12.010   6.858  12.375
58805SOL    HW278313  12.099   6.835  12.254
58806SOL     OW78314   1.143  12.795   3.101
58806SOL    HW178315   1.236  12.812   3.117
58806SOL    HW278316   1.097  12.854   3.161
58807SOL     OW78317   1.856  14.564   2.824
58807SOL    HW178318   1.911  14.572   2.902
58807SOL    HW278319   1.833  14.471   2.821
58808SOL     OW78320   8.588  10.693   3.883
58808SOL    HW178321   8.589  10.713   3.976
58808SOL    HW278322   8.678  10.670   3.861
58809SOL     OW78323   7.953   1.342  13.995
58809SOL    HW178324   7.936   1.337  14.089
58809SOL    HW278325   7.888   1.284  13.956
58810SOL     OW78326  13.194  13.582   3.792
58810SOL    HW178327  13.163  13.554   3.878
58810SOL    HW278328  13.286  13.603   3.806
58811SOL     OW78329   4.969   4.146   5.998
58811SOL    HW178330   4.915   4.221   5.973
58811SOL    HW278331   4.923   4.071   5.961
58812SOL     OW78332  10.882   0.272   1.530
58812SOL    HW178333  10.843   0.240   1.448
58812SOL    HW278334  10.946   0.337   1.501
58813SOL     OW78335   7.555   0.643   7.085
58813SOL    HW178336   7.603   0.583   7.027
58813SOL    HW278337   7.510   0.703   7.025
58814SOL     OW78338  10.757   0.717   7.320
58814SOL    HW178339  10.776   0.627   7.346
58814SOL    HW278340  10.773   0.719   7.225
58815SOL     OW78341   2.539   8.181  13.355
58815SOL    HW178342   2.632   8.201  13.365
58815SOL    HW278343   2.498   8.267  13.343
58816SOL     OW78344  12.162   3.002   8.511
58816SOL    HW178345  12.210   3.083   8.496
58816SOL    HW278346  12.227   2.941   8.546
58817SOL     OW78347   3.475   7.944   0.186
58817SOL    HW178348   3.522   7.860   0.179
58817SOL    HW278349   3.403   7.936   0.123
58818SOL     OW78350   0.561  13.030  11.948
58818SOL    HW178351   0.655  13.016  11.963
58818SOL    HW278352   0.536  13.095  12.012
58819SOL     OW78353   3.132  12.175   5.440
58819SOL    HW178354   3.158  12.259   5.479
58819SOL    HW278355   3.158  12.110   5.504
58820SOL     OW78356   6.654   0.232  10.270
58820SOL    HW178357   6.682   0.197  10.185
58820SOL    HW278358   6.589   0.170  10.301
58821SOL     OW78359   8.009  10.253   4.274
58821SOL    HW178360   8.007  10.296   4.188
58821SOL    HW278361   7.977  10.320   4.335
58822SOL     OW78362  13.261  14.054  11.530
58822SOL    HW178363  13.330  14.114  11.499
58822SOL    HW278364  13.261  13.983  11.466
58823SOL     OW78365   5.667   4.709   6.122
58823SOL    HW178366   5.588   4.665   6.155
58823SOL    HW278367   5.659   4.704   6.027
58824SOL     OW78368   6.278  11.080   6.946
58824SOL    HW178369   6.187  11.069   6.975
58824SOL    HW278370   6.305  10.992   6.920
58825SOL     OW78371  10.701   5.883   5.570
58825SOL    HW178372  10.695   5.976   5.590
58825SOL    HW278373  10.627   5.867   5.511
58826SOL     OW78374   7.012   1.816  10.823
58826SOL    HW178375   6.919   1.799  10.840
58826SOL    HW278376   7.011   1.877  10.749
58827SOL     OW78377  13.969   2.752  10.827
58827SOL    HW178378  13.883   2.742  10.788
58827SOL    HW278379  13.986   2.846  10.824
58828SOL     OW78380  13.916   4.751  12.867
58828SOL    HW178381  13.822   4.756  12.885
58828SOL    HW278382  13.939   4.661  12.890
58829SOL     OW78383  11.382   7.045   4.225
58829SOL    HW178384  11.343   7.132   4.228
58829SOL    HW278385  11.432   7.044   4.144
58830SOL     OW78386   0.149   3.816   8.506
58830SOL    HW178387   0.082   3.868   8.462
58830SOL    HW278388   0.151   3.848   8.596
58831SOL     OW78389  13.888  11.274   9.578
58831SOL    HW178390  13.916  11.183   9.566
58831SOL    HW278391  13.962  11.316   9.622
58832SOL     OW78392   7.097   7.915  13.041
58832SOL    HW178393   7.135   7.852  13.104
58832SOL    HW278394   7.009   7.931  13.074
58833SOL     OW78395  13.472  11.299   6.712
58833SOL    HW178396  13.461  11.208   6.740
58833SOL    HW278397  13.561  11.303   6.678
58834SOL     OW78398  13.687  11.504   8.608
58834SOL    HW178399  13.732  11.504   8.693
58834SOL    HW278400  13.757  11.524   8.545
58835SOL     OW78401   2.464  11.614   4.589
58835SOL    HW178402   2.372  11.630   4.613
58835SOL    HW278403   2.489  11.538   4.642
58836SOL     OW78404   5.171   3.070   0.768
58836SOL    HW178405   5.211   3.034   0.689
58836SOL    HW278406   5.142   3.158   0.743
58837SOL     OW78407  14.270  14.695   4.807
58837SOL    HW178408  14.187  14.743   4.808
58837SOL    HW278409  14.336  14.762   4.827
58838SOL     OW78410   9.436  14.799   3.529
58838SOL    HW178411   9.382  14.776   3.453
58838SOL    HW278412   9.402   0.003   3.558
58839SOL     OW78413   0.113   2.921   0.172
58839SOL    HW178414   0.141   3.005   0.137
58839SOL    HW278415   0.194   2.871   0.180
58840SOL     OW78416   3.418   4.887   0.188
58840SOL    HW178417   3.325   4.879   0.207
58840SOL    HW278418   3.430   4.840   0.105
58841SOL     OW78419  13.002   4.790   6.440
58841SOL    HW178420  12.926   4.841   6.414
58841SOL    HW278421  13.039   4.838   6.514
58842SOL     OW78422   9.111   4.298  11.129
58842SOL    HW178423   9.185   4.245  11.158
58842SOL    HW278424   9.037   4.237  11.126
58843SOL     OW78425  14.685   9.422   0.390
58843SOL    HW178426  14.763   9.367   0.399
58843SOL    HW278427  14.632   9.401   0.466
58844SOL     OW78428   8.462  12.450  14.691
58844SOL    HW178429   8.467  12.413  14.779
58844SOL    HW278430   8.551  12.477  14.670
58845SOL     OW78431   0.310   8.923   8.045
58845SOL    HW178432   0.322   8.885   8.132
58845SOL    HW278433   0.368   8.999   8.044
58846SOL     OW78434   8.949  10.213   6.076
58846SOL    HW178435   9.023  10.164   6.111
58846SOL    HW278436   8.984  10.301   6.061
58847SOL     OW78437   7.490   8.346  12.922
58847SOL    HW178438   7.475   8.322  12.831
58847SOL    HW278439   7.576   8.389  12.922
58848SOL     OW78440  12.214   7.994   3.413
58848SOL    HW178441  12.235   7.902   3.431
58848SOL    HW278442  12.238   8.039   3.494
58849SOL     OW78443  10.356   1.020   6.347
58849SOL    HW178444  10.265   0.989   6.346
58849SOL    HW278445  10.399   0.968   6.279
58850SOL     OW78446   1.365  11.130   6.561
58850SOL    HW178447   1.331  11.204   6.511
58850SOL    HW278448   1.451  11.113   6.524
58851SOL     OW78449   1.536   1.874   5.414
58851SOL    HW178450   1.499   1.786   5.424
58851SOL    HW278451   1.624   1.866   5.452
58852SOL     OW78452  13.297   3.085   2.190
58852SOL    HW178453  13.229   3.110   2.128
58852SOL    HW278454  13.300   2.990   2.186
58853SOL     OW78455   6.983   2.730   7.819
58853SOL    HW178456   6.906   2.756   7.770
58853SOL    HW278457   7.054   2.730   7.755
58854SOL     OW78458  11.279   4.087   6.882
58854SOL    HW178459  11.318   4.109   6.798
58854SOL    HW278460  11.312   4.155   6.942
58855SOL     OW78461   6.265   0.932   2.285
58855SOL    HW178462   6.256   0.995   2.356
58855SOL    HW278463   6.344   0.961   2.238
58856SOL     OW78464   2.797   1.499  12.249
58856SOL    HW178465   2.826   1.520  12.160
58856SOL    HW278466   2.786   1.584  12.291
58857SOL     OW78467   0.516  11.612  13.856
58857SOL    HW178468   0.466  11.638  13.779
58857SOL    HW278469   0.516  11.516  13.853
58858SOL     OW78470  11.319   3.671   2.173
58858SOL    HW178471  11.231   3.689   2.204
58858SOL    HW278472  11.307   3.638   2.084
58859SOL     OW78473   6.652  14.231   3.634
58859SOL    HW178474   6.707  14.309   3.626
58859SOL    HW278475   6.713  14.157   3.629
58860SOL     OW78476   5.130  12.156   1.852
58860SOL    HW178477   5.131  12.062   1.836
58860SOL    HW278478   5.179  12.193   1.778
58861SOL     OW78479  14.606   4.939   6.072
58861SOL    HW178480  14.650   4.961   6.154
58861SOL    HW278481  14.581   5.024   6.035
58862SOL     OW78482   7.007   6.331   4.078
58862SOL    HW178483   6.960   6.248   4.064
58862SOL    HW278484   6.989   6.354   4.169
58863SOL     OW78485   6.481  14.293   5.507
58863SOL    HW178486   6.461  14.258   5.594
58863SOL    HW278487   6.397  14.328   5.475
58864SOL     OW78488  13.356  13.928   3.434
58864SOL    HW178489  13.367  13.895   3.523
58864SOL    HW278490  13.399  14.014   3.435
58865SOL     OW78491  12.278   8.717   6.833
58865SOL    HW178492  12.332   8.734   6.911
58865SOL    HW278493  12.329   8.655   6.782
58866SOL     OW78494   1.416   0.595  14.174
58866SOL    HW178495   1.384   0.662  14.234
58866SOL    HW278496   1.437   0.520  14.230
58867SOL     OW78497   5.335  13.407   8.541
58867SOL    HW178498   5.309  13.492   8.506
58867SOL    HW278499   5.377  13.362   8.467
58868SOL     OW78500   3.233   6.907  10.843
58868SOL    HW178501   3.222   6.824  10.798
58868SOL    HW278502   3.159   6.911  10.904
58869SOL     OW78503   6.770  12.823  13.382
58869SOL    HW178504   6.716  12.745  13.394
58869SOL    HW278505   6.709  12.896  13.390
58870SOL     OW78506   3.518  11.199  12.965
58870SOL    HW178507   3.552  11.263  12.903
58870SOL    HW278508   3.457  11.146  12.914
58871SOL     OW78509   6.506   0.387  11.517
58871SOL    HW178510   6.551   0.305  11.494
58871SOL    HW278511   6.565   0.456  11.485
58872SOL     OW78512  10.487  12.691  10.299
58872SOL    HW178513  10.491  12.731  10.386
58872SOL    HW278514  10.394  12.671  10.287
58873SOL     OW78515   8.790   7.876   5.416
58873SOL    HW178516   8.727   7.839   5.355
58873SOL    HW278517   8.874   7.871   5.371
58874SOL     OW78518  13.760   9.909   6.949
58874SOL    HW178519  13.745   9.973   6.879
58874SOL    HW278520  13.849   9.926   6.978
58875SOL     OW78521  14.376   1.921   2.692
58875SOL    HW178522  14.362   1.999   2.747
58875SOL    HW278523  14.293   1.910   2.645
58876SOL     OW78524   5.114  14.806   2.412
58876SOL    HW178525   5.114   0.005   2.465
58876SOL    HW278526   5.207  14.788   2.396
58877SOL     OW78527   5.475   4.486  11.604
58877SOL    HW178528   5.554   4.444  11.570
58877SOL    HW278529   5.478   4.575  11.568
58878SOL     OW78530   4.973  14.149  10.894
58878SOL    HW178531   5.006  14.071  10.851
58878SOL    HW278532   4.893  14.171  10.846
58879SOL     OW78533   5.220   9.224   7.659
58879SOL    HW178534   5.283   9.167   7.702
58879SOL    HW278535   5.203   9.293   7.723
58880SOL     OW78536  14.291   7.413  11.762
58880SOL    HW178537  14.302   7.365  11.680
58880SOL    HW278538  14.199   7.399  11.785
58881SOL     OW78539   1.283   0.695  14.400
58881SOL    HW178540   1.294   0.665  14.491
58881SOL    HW278541   1.277   0.791  14.408
58882SOL     OW78542  12.617   8.123   5.820
58882SOL    HW178543  12.564   8.150   5.745
58882SOL    HW278544  12.595   8.030   5.833
58883SOL     OW78545  14.722  10.090   5.266
58883SOL    HW178546  14.685  10.178   5.264
58883SOL    HW278547  14.736  10.068   5.173
58884SOL     OW78548   5.545   6.851   1.371
58884SOL    HW178549   5.507   6.829   1.286
58884SOL    HW278550   5.639   6.842   1.358
58885SOL     OW78551   7.514  14.874   0.584
58885SOL    HW178552   7.493   0.066   0.643
58885SOL    HW278553   7.517  14.797   0.640
58886SOL     OW78554  12.337   1.165   0.114
58886SOL    HW178555  12.243   1.181   0.120
58886SOL    HW278556  12.377   1.237   0.163
58887SOL     OW78557   8.493  13.188   4.445
58887SOL    HW178558   8.450  13.247   4.507
58887SOL    HW278559   8.424  13.160   4.385
58888SOL     OW78560  14.409  11.520   0.133
58888SOL    HW178561  14.432  11.431   0.160
58888SOL    HW278562  14.481  11.546   0.076
58889SOL     OW78563   8.473   8.382  13.365
58889SOL    HW178564   8.562   8.353  13.347
58889SOL    HW278565   8.428   8.376  13.281
58890SOL     OW78566   0.942   5.706   8.170
58890SOL    HW178567   0.994   5.633   8.204
58890SOL    HW278568   0.875   5.664   8.115
58891SOL     OW78569   9.592   5.959  14.229
58891SOL    HW178570   9.586   5.990  14.139
58891SOL    HW278571   9.510   5.988  14.270
58892SOL     OW78572   5.240   5.931   5.956
58892SOL    HW178573   5.232   6.024   5.932
58892SOL    HW278574   5.298   5.930   6.032
58893SOL     OW78575   6.457   1.344  14.165
58893SOL    HW178576   6.513   1.314  14.093
58893SOL    HW278577   6.406   1.267  14.190
58894SOL     OW78578   6.739   1.077   3.242
58894SOL    HW178579   6.728   1.122   3.158
58894SOL    HW278580   6.704   1.138   3.307
58895SOL     OW78581  10.931  14.112   8.831
58895SOL    HW178582  10.937  14.054   8.755
58895SOL    HW278583  10.895  14.193   8.795
58896SOL     OW78584   4.143  11.312   1.878
58896SOL    HW178585   4.208  11.246   1.903
58896SOL    HW278586   4.189  11.369   1.816
58897SOL     OW78587   7.978   3.376  10.956
58897SOL    HW178588   8.061   3.330  10.969
58897SOL    HW278589   7.953   3.355  10.866
58898SOL     OW78590   7.900  10.863  11.526
58898SOL    HW178591   7.811  10.879  11.556
58898SOL    HW278592   7.922  10.776  11.560
58899SOL     OW78593   1.982  11.210   2.663
58899SOL    HW178594   2.044  11.189   2.732
58899SOL    HW278595   1.917  11.266   2.705
58900SOL     OW78596   1.951   5.834   8.402
58900SOL    HW178597   1.949   5.927   8.423
58900SOL    HW278598   2.039   5.820   8.366
58901SOL     OW78599   2.563   9.292   0.139
58901SOL    HW178600   2.630   9.358   0.158
58901SOL    HW278601   2.565   9.233   0.215
58902SOL     OW78602  12.767  12.781   8.617
58902SOL    HW178603  12.854  12.802   8.584
58902SOL    HW278604  12.733  12.715   8.556
58903SOL     OW78605   7.519   1.295   7.121
58903SOL    HW178606   7.589   1.324   7.179
58903SOL    HW278607   7.505   1.203   7.144
58904SOL     OW78608   7.534   4.456  13.747
58904SOL    HW178609   7.497   4.507  13.819
58904SOL    HW278610   7.484   4.375  13.746
58905SOL     OW78611   0.017   9.477  12.521
58905SOL    HW178612  14.848   9.484  12.603
58905SOL    HW278613  14.833   9.495  12.453
58906SOL     OW78614   5.491   7.013   0.374
58906SOL    HW178615   5.556   6.985   0.438
58906SOL    HW278616   5.508   7.107   0.362
58907SOL     OW78617  14.241   0.749  14.783
58907SOL    HW178618  14.256   0.681  14.718
58907SOL    HW278619  14.199   0.704  14.857
58908SOL     OW78620  14.413   9.772   2.757
58908SOL    HW178621  14.396   9.696   2.701
58908SOL    HW278622  14.415   9.736   2.846
58909SOL     OW78623  14.842  10.918   9.488
58909SOL    HW178624  14.866  10.868   9.410
58909SOL    HW278625  14.846  11.010   9.460
58910SOL     OW78626   6.025   4.402   2.756
58910SOL    HW178627   6.079   4.341   2.807
58910SOL    HW278628   5.967   4.442   2.820
58911SOL     OW78629  14.737  12.261   3.768
58911SOL    HW178630  14.709  12.171   3.756
58911SOL    HW278631  14.762  12.267   3.860
58912SOL     OW78632  10.882   2.611   1.257
58912SOL    HW178633  10.955   2.661   1.295
58912SOL    HW278634  10.857   2.549   1.325
58913SOL     OW78635   1.238   0.570   3.764
58913SOL    HW178636   1.199   0.640   3.816
58913SOL    HW278637   1.325   0.603   3.740
58914SOL     OW78638  10.805   6.899   9.556
58914SOL    HW178639  10.747   6.904   9.632
58914SOL    HW278640  10.891   6.922   9.591
58915SOL     OW78641  13.518  10.409   2.481
58915SOL    HW178642  13.450  10.358   2.437
58915SOL    HW278643  13.507  10.498   2.448
58916SOL     OW78644  14.029  11.110   2.104
58916SOL    HW178645  14.012  11.107   2.009
58916SOL    HW278646  13.996  11.195   2.131
58917SOL     OW78647   4.161   6.813   7.990
58917SOL    HW178648   4.173   6.848   7.902
58917SOL    HW278649   4.147   6.891   8.044
58918SOL     OW78650   6.595   6.042   6.111
58918SOL    HW178651   6.645   6.042   6.029
58918SOL    HW278652   6.653   6.086   6.174
58919SOL     OW78653   0.125   1.683  12.936
58919SOL    HW178654   0.091   1.685  12.847
58919SOL    HW278655   0.173   1.766  12.945
58920SOL     OW78656  10.009  10.214  10.518
58920SOL    HW178657  10.028  10.121  10.532
58920SOL    HW278658   9.941  10.234  10.582
58921SOL     OW78659   2.256  10.341   4.263
58921SOL    HW178660   2.178  10.345   4.207
58921SOL    HW278661   2.221  10.330   4.352
58922SOL     OW78662   0.838   3.426  11.540
58922SOL    HW178663   0.929   3.396  11.544
58922SOL    HW278664   0.817   3.450  11.631
58923SOL     OW78665  11.684   0.664  13.528
58923SOL    HW178666  11.681   0.650  13.433
58923SOL    HW278667  11.675   0.577  13.565
58924SOL     OW78668  10.903   7.948  14.540
58924SOL    HW178669  10.853   7.918  14.464
58924SOL    HW278670  10.843   7.940  14.614
58925SOL     OW78671   1.766  11.638   2.917
58925SOL    HW178672   1.840  11.677   2.963
58925SOL    HW278673   1.704  11.710   2.905
58926SOL     OW78674   5.393   3.592   5.464
58926SOL    HW178675   5.317   3.534   5.462
58926SOL    HW278676   5.375   3.655   5.534
58927SOL     OW78677  10.644  12.814   9.860
58927SOL    HW178678  10.555  12.831   9.889
58927SOL    HW278679  10.682  12.901   9.844
58928SOL     OW78680   7.330  12.705  14.280
58928SOL    HW178681   7.370  12.618  14.285
58928SOL    HW278682   7.249  12.697  14.330
58929SOL     OW78683   4.691   6.179  11.436
58929SOL    HW178684   4.680   6.089  11.465
58929SOL    HW278685   4.603   6.208  11.412
58930SOL     OW78686   3.326   3.619   3.178
58930SOL    HW178687   3.386   3.668   3.123
58930SOL    HW278688   3.316   3.535   3.134
58931SOL     OW78689   3.283   4.040   3.047
58931SOL    HW178690   3.275   4.042   3.142
58931SOL    HW278691   3.224   3.970   3.019
58932SOL     OW78692   5.063   2.519  13.677
58932SOL    HW178693   5.027   2.470  13.751
58932SOL    HW278694   4.993   2.581  13.654
58933SOL     OW78695   3.447   7.416   7.758
58933SOL    HW178696   3.524   7.473   7.750
58933SOL    HW278697   3.456   7.376   7.844
58934SOL     OW78698   5.382   0.760   3.966
58934SOL    HW178699   5.414   0.849   3.951
58934SOL    HW278700   5.353   0.761   4.057
58935SOL     OW78701   3.028  13.849  12.205
58935SOL    HW178702   3.092  13.877  12.271
58935SOL    HW278703   2.972  13.925  12.192
58936SOL     OW78704   9.033   3.495   3.648
58936SOL    HW178705   9.086   3.416   3.658
58936SOL    HW278706   8.989   3.504   3.733
58937SOL     OW78707   5.048   2.338  11.606
58937SOL    HW178708   4.975   2.291  11.566
58937SOL    HW278709   5.113   2.271  11.626
58938SOL     OW78710   3.578  10.782   0.719
58938SOL    HW178711   3.615  10.696   0.706
58938SOL    HW278712   3.483  10.769   0.710
58939SOL     OW78713   2.707  10.579  12.041
58939SOL    HW178714   2.729  10.673  12.042
58939SOL    HW278715   2.765  10.542  11.975
58940SOL     OW78716  10.631   9.900   0.995
58940SOL    HW178717  10.681   9.957   0.936
58940SOL    HW278718  10.584   9.841   0.937
58941SOL     OW78719   1.066   8.720   2.840
58941SOL    HW178720   1.147   8.746   2.882
58941SOL    HW278721   1.011   8.688   2.912
58942SOL     OW78722  12.096   2.870   6.475
58942SOL    HW178723  12.143   2.791   6.503
58942SOL    HW278724  12.012   2.865   6.522
58943SOL     OW78725   2.432  13.600   0.564
58943SOL    HW178726   2.525  13.585   0.580
58943SOL    HW278727   2.407  13.532   0.501
58944SOL     OW78728   7.995  12.086   6.106
58944SOL    HW178729   7.926  12.105   6.042
58944SOL    HW278730   7.953  12.094   6.191
58945SOL     OW78731   6.521  12.591   1.849
58945SOL    HW178732   6.442  12.616   1.801
58945SOL    HW278733   6.541  12.503   1.819
58946SOL     OW78734   8.114   8.419   0.764
58946SOL    HW178735   8.205   8.398   0.787
58946SOL    HW278736   8.092   8.356   0.695
58947SOL     OW78737   3.302   8.326   3.953
58947SOL    HW178738   3.279   8.293   4.040
58947SOL    HW278739   3.388   8.287   3.936
58948SOL     OW78740   9.251   6.524   8.454
58948SOL    HW178741   9.346   6.535   8.456
58948SOL    HW278742   9.235   6.463   8.383
58949SOL     OW78743   6.256  11.763  12.483
58949SOL    HW178744   6.273  11.747  12.576
58949SOL    HW278745   6.199  11.692  12.456
58950SOL     OW78746   9.657   5.230   1.644
58950SOL    HW178747   9.616   5.186   1.570
58950SOL    HW278748   9.587   5.240   1.709
58951SOL     OW78749   0.899  12.894   5.869
58951SOL    HW178750   0.972  12.893   5.807
58951SOL    HW278751   0.925  12.959   5.935
58952SOL     OW78752   6.716   4.200   1.958
58952SOL    HW178753   6.642   4.226   1.903
58952SOL    HW278754   6.724   4.106   1.944
58953SOL     OW78755   4.593   7.796  12.394
58953SOL    HW178756   4.655   7.847  12.343
58953SOL    HW278757   4.643   7.766  12.470
58954SOL     OW78758  12.726  12.833   3.409
58954SOL    HW178759  12.755  12.837   3.500
58954SOL    HW278760  12.804  12.809   3.360
58955SOL     OW78761   8.139  11.674   3.013
58955SOL    HW178762   8.202  11.607   3.040
58955SOL    HW278763   8.188  11.730   2.952
58956SOL     OW78764  14.382  10.595  12.319
58956SOL    HW178765  14.440  10.660  12.280
58956SOL    HW278766  14.303  10.599  12.265
58957SOL     OW78767   1.823  14.742   5.770
58957SOL    HW178768   1.773  14.823   5.780
58957SOL    HW278769   1.758  14.673   5.780
58958SOL     OW78770  10.583   8.976   6.399
58958SOL    HW178771  10.610   8.889   6.425
58958SOL    HW278772  10.658   9.032   6.418
58959SOL     OW78773  11.529   7.065  11.459
58959SOL    HW178774  11.599   7.121  11.424
58959SOL    HW278775  11.571   7.018  11.531
58960SOL     OW78776   6.891   2.827   3.849
58960SOL    HW178777   6.913   2.759   3.912
58960SOL    HW278778   6.795   2.830   3.849
58961SOL     OW78779  10.659   7.234   4.554
58961SOL    HW178780  10.727   7.301   4.558
58961SOL    HW278781  10.586   7.271   4.604
58962SOL     OW78782   6.520   8.900  13.270
58962SOL    HW178783   6.468   8.980  13.276
58962SOL    HW278784   6.594   8.924  13.214
58963SOL     OW78785   6.162   1.897   7.021
58963SOL    HW178786   6.169   1.868   7.112
58963SOL    HW278787   6.081   1.857   6.989
58964SOL     OW78788  13.784   5.268   6.692
58964SOL    HW178789  13.767   5.360   6.712
58964SOL    HW278790  13.872   5.268   6.655
58965SOL     OW78791   1.427   1.273   9.040
58965SOL    HW178792   1.334   1.255   9.032
58965SOL    HW278793   1.468   1.217   8.975
58966SOL     OW78794   9.544   9.255   2.067
58966SOL    HW178795   9.560   9.338   2.112
58966SOL    HW278796   9.519   9.195   2.138
58967SOL     OW78797  10.180  10.540   3.741
58967SOL    HW178798  10.259  10.593   3.749
58967SOL    HW278799  10.212  10.451   3.730
58968SOL     OW78800  10.671   5.481   7.805
58968SOL    HW178801  10.652   5.417   7.874
58968SOL    HW278802  10.589   5.489   7.757
58969SOL     OW78803   3.531   2.180  14.468
58969SOL    HW178804   3.541   2.088  14.444
58969SOL    HW278805   3.502   2.178  14.559
58970SOL     OW78806   4.379   4.178   4.212
58970SOL    HW178807   4.438   4.243   4.175
58970SOL    HW278808   4.436   4.120   4.263
58971SOL     OW78809   3.111   4.964   8.609
58971SOL    HW178810   3.167   4.928   8.678
58971SOL    HW278811   3.043   4.898   8.596
58972SOL     OW78812   7.820   8.384  14.002
58972SOL    HW178813   7.898   8.356  14.050
58972SOL    HW278814   7.769   8.433  14.067
58973SOL     OW78815   0.132  10.448   9.592
58973SOL    HW178816   0.174  10.470   9.675
58973SOL    HW278817   0.043  10.481   9.600
58974SOL     OW78818  10.260   5.967   9.524
58974SOL    HW178819  10.321   5.896   9.545
58974SOL    HW278820  10.174   5.926   9.529
58975SOL     OW78821   3.882   9.273  13.154
58975SOL    HW178822   3.965   9.297  13.195
58975SOL    HW278823   3.907   9.229  13.072
58976SOL     OW78824  14.564  13.637  10.290
58976SOL    HW178825  14.565  13.702  10.219
58976SOL    HW278826  14.580  13.688  10.369
58977SOL     OW78827   3.910   5.299   3.806
58977SOL    HW178828   3.950   5.281   3.891
58977SOL    HW278829   3.903   5.394   3.801
58978SOL     OW78830   9.568   8.607   9.142
58978SOL    HW178831   9.510   8.587   9.216
58978SOL    HW278832   9.516   8.667   9.087
58979SOL     OW78833  13.398  10.838   7.174
58979SOL    HW178834  13.307  10.861   7.154
58979SOL    HW278835  13.400  10.743   7.176
58980SOL     OW78836   1.647   2.809  13.631
58980SOL    HW178837   1.596   2.788  13.709
58980SOL    HW278838   1.649   2.904  13.627
58981SOL     OW78839   5.378   1.150   8.464
58981SOL    HW178840   5.445   1.214   8.440
58981SOL    HW278841   5.418   1.099   8.534
58982SOL     OW78842   4.009   5.561   0.861
58982SOL    HW178843   3.986   5.591   0.949
58982SOL    HW278844   4.012   5.466   0.868
58983SOL     OW78845   1.173  13.310  12.368
58983SOL    HW178846   1.105  13.279  12.428
58983SOL    HW278847   1.138  13.391  12.332
58984SOL     OW78848   4.841  13.384   3.448
58984SOL    HW178849   4.817  13.459   3.502
58984SOL    HW278850   4.884  13.323   3.508
58985SOL     OW78851   4.663   8.421   4.629
58985SOL    HW178852   4.632   8.385   4.546
58985SOL    HW278853   4.750   8.456   4.609
58986SOL     OW78854  12.894   8.555   7.865
58986SOL    HW178855  12.836   8.631   7.861
58986SOL    HW278856  12.977   8.587   7.829
58987SOL     OW78857   3.912  10.293  10.251
58987SOL    HW178858   3.880  10.302  10.341
58987SOL    HW278859   3.864  10.217  10.217
58988SOL     OW78860   7.826  10.609   3.080
58988SOL    HW178861   7.900  10.590   3.137
58988SOL    HW278862   7.853  10.686   3.030
58989SOL     OW78863   5.090   4.940   9.318
58989SOL    HW178864   5.139   4.937   9.236
58989SOL    HW278865   5.085   4.849   9.347
58990SOL     OW78866  13.006   1.007   5.834
58990SOL    HW178867  12.920   1.032   5.802
58990SOL    HW278868  12.989   0.939   5.899
58991SOL     OW78869   2.130   9.489   6.291
58991SOL    HW178870   2.152   9.516   6.381
58991SOL    HW278871   2.110   9.396   6.299
58992SOL     OW78872   4.751   8.301   4.233
58992SOL    HW178873   4.841   8.270   4.245
58992SOL    HW278874   4.730   8.278   4.143
58993SOL     OW78875   5.929  13.949  11.391
58993SOL    HW178876   5.935  13.965  11.297
58993SOL    HW278877   5.983  14.018  11.430
58994SOL     OW78878  11.652   7.299   3.874
58994SOL    HW178879  11.677   7.334   3.960
58994SOL    HW278880  11.734   7.297   3.825
58995SOL     OW78881  12.327   2.469   8.510
58995SOL    HW178882  12.364   2.448   8.424
58995SOL    HW278883  12.235   2.489   8.492
58996SOL     OW78884  13.546   9.548   7.095
58996SOL    HW178885  13.520   9.525   7.006
58996SOL    HW278886  13.624   9.603   7.084
58997SOL     OW78887   8.156   9.538  14.712
58997SOL    HW178888   8.220   9.470  14.736
58997SOL    HW278889   8.205   9.620  14.721
58998SOL     OW78890   7.618   2.013   0.777
58998SOL    HW178891   7.647   1.974   0.694
58998SOL    HW278892   7.545   1.958   0.806
58999SOL     OW78893  11.572   1.129   1.842
58999SOL    HW178894  11.645   1.161   1.790
58999SOL    HW278895  11.606   1.126   1.932
59000SOL     OW78896   9.331   5.312   2.181
59000SOL    HW178897   9.337   5.341   2.272
59000SOL    HW278898   9.421   5.319   2.147
59001SOL     OW78899   7.371   8.443   7.293
59001SOL    HW178900   7.352   8.359   7.335
59001SOL    HW278901   7.320   8.506   7.343
59002SOL     OW78902  10.692   2.053  11.610
59002SOL    HW178903  10.605   2.028  11.580
59002SOL    HW278904  10.739   2.080  11.531
59003SOL     OW78905   8.123   9.660   3.968
59003SOL    HW178906   8.058   9.614   4.020
59003SOL    HW278907   8.074   9.726   3.920
59004SOL     OW78908   0.361   1.898   6.806
59004SOL    HW178909   0.429   1.868   6.745
59004SOL    HW278910   0.335   1.984   6.773
59005SOL     OW78911   3.550   6.932  12.560
59005SOL    HW178912   3.569   6.959  12.470
59005SOL    HW278913   3.564   6.837  12.560
59006SOL     OW78914   0.300   7.748  10.231
59006SOL    HW178915   0.281   7.771  10.140
59006SOL    HW278916   0.233   7.683  10.254
59007SOL     OW78917   3.739   7.924   6.089
59007SOL    HW178918   3.654   7.968   6.082
59007SOL    HW278919   3.773   7.951   6.175
59008SOL     OW78920   5.520   5.464   9.175
59008SOL    HW178921   5.455   5.461   9.245
59008SOL    HW278922   5.565   5.548   9.187
59009SOL     OW78923   7.882  12.735  11.778
59009SOL    HW178924   7.815  12.801  11.793
59009SOL    HW278925   7.965  12.780  11.798
59010SOL     OW78926   1.150   5.873   5.991
59010SOL    HW178927   1.220   5.866   5.927
59010SOL    HW278928   1.113   5.785   5.996
59011SOL     OW78929   6.995  12.379  12.916
59011SOL    HW178930   6.957  12.436  12.850
59011SOL    HW278931   7.072  12.427  12.947
59012SOL     OW78932   3.133  14.305   1.245
59012SOL    HW178933   3.051  14.338   1.209
59012SOL    HW278934   3.155  14.229   1.190
59013SOL     OW78935   3.903  12.114   2.456
59013SOL    HW178936   3.951  12.041   2.495
59013SOL    HW278937   3.971  12.168   2.415
59014SOL     OW78938   8.221  13.693   4.578
59014SOL    HW178939   8.311  13.708   4.607
59014SOL    HW278940   8.179  13.647   4.651
59015SOL     OW78941   2.267   2.343   7.633
59015SOL    HW178942   2.352   2.327   7.592
59015SOL    HW278943   2.222   2.258   7.627
59016SOL     OW78944   5.527   7.319   1.606
59016SOL    HW178945   5.569   7.250   1.658
59016SOL    HW278946   5.526   7.283   1.517
59017SOL     OW78947   7.960  13.436   1.052
59017SOL    HW178948   7.870  13.434   1.019
59017SOL    HW278949   7.959  13.502   1.121
59018SOL     OW78950   8.454   2.704  14.135
59018SOL    HW178951   8.409   2.628  14.098
59018SOL    HW278952   8.405   2.780  14.101
59019SOL     OW78953   1.213  11.733  12.977
59019SOL    HW178954   1.161  11.653  12.978
59019SOL    HW278955   1.300  11.704  12.950
59020SOL     OW78956   5.626   9.105  14.023
59020SOL    HW178957   5.553   9.144  13.975
59020SOL    HW278958   5.591   9.089  14.111
59021SOL     OW78959   4.184   1.246  10.436
59021SOL    HW178960   4.147   1.316  10.382
59021SOL    HW278961   4.145   1.166  10.401
59022SOL     OW78962   1.243   4.951   0.005
59022SOL    HW178963   1.220   4.970   0.096
59022SOL    HW278964   1.276   5.035  14.851
59023SOL     OW78965   8.955   5.070   4.721
59023SOL    HW178966   8.965   4.995   4.663
59023SOL    HW278967   9.032   5.124   4.704
59024SOL     OW78968  14.835  13.302  11.498
59024SOL    HW178969  14.861  13.338  11.582
59024SOL    HW278970   0.001  13.219  11.491
59025SOL     OW78971   8.276   0.688   6.694
59025SOL    HW178972   8.260   0.698   6.788
59025SOL    HW278973   8.322   0.769   6.670
59026SOL     OW78974   2.499   8.611   7.718
59026SOL    HW178975   2.437   8.550   7.676
59026SOL    HW278976   2.533   8.663   7.646
59027SOL     OW78977   4.342   0.831   3.328
59027SOL    HW178978   4.313   0.903   3.384
59027SOL    HW278979   4.362   0.872   3.244
59028SOL     OW78980   3.860   2.827   2.434
59028SOL    HW178981   3.953   2.804   2.425
59028SOL    HW278982   3.855   2.916   2.400
59029SOL     OW78983   0.627   5.322   1.460
59029SOL    HW178984   0.566   5.249   1.467
59029SOL    HW278985   0.617   5.370   1.543
59030SOL     OW78986   7.995   9.915   5.883
59030SOL    HW178987   8.018   9.990   5.829
59030SOL    HW278988   8.038   9.932   5.967
59031SOL     OW78989  12.020   6.832   2.779
59031SOL    HW178990  12.078   6.908   2.777
59031SOL    HW278991  12.053   6.774   2.710
59032SOL     OW78992  14.034   0.720  12.717
59032SOL    HW178993  14.126   0.724  12.744
59032SOL    HW278994  13.995   0.798  12.756
59033SOL     OW78995   8.869   1.677   9.107
59033SOL    HW178996   8.859   1.582   9.099
59033SOL    HW278997   8.785   1.707   9.141
59034SOL     OW78998  13.344   7.609  13.713
59034SOL    HW178999  13.314   7.530  13.758
59034SOL    HW279000  13.303   7.681  13.762
59035SOL     OW79001   7.737   8.508  12.513
59035SOL    HW179002   7.652   8.476  12.482
59035SOL    HW279003   7.797   8.435  12.496
59036SOL     OW79004  10.732   4.746  12.291
59036SOL    HW179005  10.778   4.806  12.232
59036SOL    HW279006  10.738   4.661  12.247
59037SOL     OW79007  10.144   0.699  11.898
59037SOL    HW179008  10.072   0.761  11.891
59037SOL    HW279009  10.162   0.673  11.808
59038SOL     OW79010   1.763   3.855  10.483
59038SOL    HW179011   1.830   3.861  10.415
59038SOL    HW279012   1.680   3.855  10.436
59039SOL     OW79013   9.017   5.877  13.068
59039SOL    HW179014   9.061   5.958  13.042
59039SOL    HW279015   8.929   5.885  13.032
59040SOL     OW79016  14.563   9.393   3.078
59040SOL    HW179017  14.525   9.443   3.151
59040SOL    HW279018  14.488   9.371   3.023
59041SOL     OW79019   4.091   4.855  11.235
59041SOL    HW179020   4.058   4.913  11.166
59041SOL    HW279021   4.095   4.769  11.194
59042SOL     OW79022   1.298   6.633   0.510
59042SOL    HW179023   1.315   6.710   0.564
59042SOL    HW279024   1.372   6.574   0.527
59043SOL     OW79025  11.922  14.818   3.000
59043SOL    HW179026  11.969  14.784   3.075
59043SOL    HW279027  11.837  14.846   3.035
59044SOL     OW79028   4.602  14.476   2.081
59044SOL    HW179029   4.574  14.527   2.158
59044SOL    HW279030   4.596  14.537   2.008
59045SOL     OW79031   1.815   2.579   8.867
59045SOL    HW179032   1.724   2.576   8.894
59045SOL    HW279033   1.838   2.488   8.849
59046SOL     OW79034  11.039   9.549   9.005
59046SOL    HW179035  11.089   9.583   8.931
59046SOL    HW279036  10.962   9.605   9.010
59047SOL     OW79037   4.686  14.659   4.067
59047SOL    HW179038   4.630  14.583   4.078
59047SOL    HW279039   4.680  14.705   4.152
59048SOL     OW79040  11.214  11.772   1.224
59048SOL    HW179041  11.211  11.861   1.260
59048SOL    HW279042  11.122  11.749   1.211
59049SOL     OW79043   3.003  11.346  12.955
59049SOL    HW179044   2.957  11.386  13.029
59049SOL    HW279045   2.934  11.305  12.903
59050SOL     OW79046   5.686   6.235   1.252
59050SOL    HW179047   5.665   6.328   1.249
59050SOL    HW279048   5.774   6.229   1.217
59051SOL     OW79049  13.573   6.346   6.326
59051SOL    HW179050  13.509   6.368   6.258
59051SOL    HW279051  13.564   6.415   6.391
59052SOL     OW79052   0.191   0.459   6.643
59052SOL    HW179053   0.160   0.516   6.573
59052SOL    HW279054   0.177   0.510   6.723
59053SOL     OW79055   8.651   5.451  12.758
59053SOL    HW179056   8.671   5.432  12.666
59053SOL    HW279057   8.596   5.378  12.786
59054SOL     OW79058   2.694  14.703   8.125
59054SOL    HW179059   2.760  14.728   8.190
59054SOL    HW279060   2.658  14.620   8.158
59055SOL     OW79061   4.289   5.029  10.207
59055SOL    HW179062   4.282   5.099  10.141
59055SOL    HW279063   4.383   5.011  10.211
59056SOL     OW79064   5.365   1.129   3.511
59056SOL    HW179065   5.427   1.164   3.447
59056SOL    HW279066   5.311   1.069   3.461
59057SOL     OW79067   9.374   9.562   0.064
59057SOL    HW179068   9.287   9.533   0.092
59057SOL    HW279069   9.414   9.595   0.144
59058SOL     OW79070   8.805  13.285   0.470
59058SOL    HW179071   8.807  13.349   0.399
59058SOL    HW279072   8.738  13.318   0.530
59059SOL     OW79073   1.082  12.216   1.427
59059SOL    HW179074   1.090  12.286   1.492
59059SOL    HW279075   1.130  12.142   1.465
59060SOL     OW79076   5.313   7.875   8.695
59060SOL    HW179077   5.339   7.793   8.652
59060SOL    HW279078   5.361   7.943   8.647
59061SOL     OW79079   2.319  12.313   9.080
59061SOL    HW179080   2.315  12.384   9.144
59061SOL    HW279081   2.299  12.234   9.131
59062SOL     OW79082  11.989   6.403  13.051
59062SOL    HW179083  11.968   6.451  13.131
59062SOL    HW279084  11.972   6.466  12.981
59063SOL     OW79085  10.771   3.653  14.807
59063SOL    HW179086  10.755   3.747  14.818
59063SOL    HW279087  10.705   3.626  14.743
59064SOL     OW79088  11.140  13.814   8.437
59064SOL    HW179089  11.175  13.726   8.448
59064SOL    HW279090  11.214  13.871   8.458
59065SOL     OW79091   0.371   6.863  12.967
59065SOL    HW179092   0.324   6.936  13.006
59065SOL    HW279093   0.350   6.867  12.873
59066SOL     OW79094   7.941   0.066   8.350
59066SOL    HW179095   7.990   0.016   8.284
59066SOL    HW279096   7.851   0.064   8.319
59067SOL     OW79097   0.048   8.164   6.422
59067SOL    HW179098   0.014   8.090   6.374
59067SOL    HW279099  14.864   8.234   6.410
59068SOL     OW79100   6.439  14.023  14.707
59068SOL    HW179101   6.477  13.999  14.792
59068SOL    HW279102   6.512  14.060  14.658
59069SOL     OW79103  14.196   9.493   4.844
59069SOL    HW179104  14.137   9.468   4.773
59069SOL    HW279105  14.226   9.410   4.882
59070SOL     OW79106   9.166   7.300   0.441
59070SOL    HW179107   9.232   7.359   0.405
59070SOL    HW279108   9.101   7.291   0.370
59071SOL     OW79109   7.808  10.203   2.917
59071SOL    HW179110   7.821  10.171   3.006
59071SOL    HW279111   7.770  10.290   2.928
59072SOL     OW79112  11.305   3.752   3.933
59072SOL    HW179113  11.215   3.754   3.964
59072SOL    HW279114  11.359   3.756   4.012
59073SOL     OW79115   1.470   4.319  13.296
59073SOL    HW179116   1.434   4.339  13.383
59073SOL    HW279117   1.563   4.337  13.304
59074SOL     OW79118   1.187  11.665  13.562
59074SOL    HW179119   1.114  11.714  13.525
59074SOL    HW279120   1.146  11.597  13.615
59075SOL     OW79121  13.239  10.777   2.194
59075SOL    HW179122  13.168  10.792   2.257
59075SOL    HW279123  13.201  10.716   2.130
59076SOL     OW79124   3.266   2.440  11.385
59076SOL    HW179125   3.246   2.466  11.295
59076SOL    HW279126   3.286   2.522  11.430
59077SOL     OW79127  10.016  10.925   8.347
59077SOL    HW179128  10.092  10.911   8.289
59077SOL    HW279129   9.960  10.985   8.299
59078SOL     OW79130   4.831   9.116   5.818
59078SOL    HW179131   4.756   9.096   5.761
59078SOL    HW279132   4.854   9.032   5.858
59079SOL     OW79133   2.014   0.467  14.839
59079SOL    HW179134   1.956   0.511  14.776
59079SOL    HW279135   2.072   0.414  14.785
59080SOL     OW79136   0.583  10.867  12.249
59080SOL    HW179137   0.523  10.815  12.303
59080SOL    HW279138   0.602  10.811  12.174
59081SOL     OW79139  14.055   1.948   3.380
59081SOL    HW179140  14.104   1.870   3.405
59081SOL    HW279141  14.014   1.979   3.461
59082SOL     OW79142   8.578   7.900   9.481
59082SOL    HW179143   8.525   7.923   9.404
59082SOL    HW279144   8.561   7.807   9.495
59083SOL     OW79145  14.085  13.583   6.268
59083SOL    HW179146  14.154  13.644   6.295
59083SOL    HW279147  14.040  13.627   6.196
59084SOL     OW79148  12.951   6.944   4.694
59084SOL    HW179149  12.931   6.947   4.787
59084SOL    HW279150  13.004   7.023   4.678
59085SOL     OW79151  12.481   2.995   0.813
59085SOL    HW179152  12.459   3.054   0.886
59085SOL    HW279153  12.553   3.038   0.768
59086SOL     OW79154   0.034  12.505  10.510
59086SOL    HW179155   0.010  12.539  10.596
59086SOL    HW279156   0.045  12.582  10.455
59087SOL     OW79157   4.356   6.644   6.153
59087SOL    HW179158   4.285   6.588   6.184
59087SOL    HW279159   4.337   6.656   6.060
59088SOL     OW79160   7.886   8.130  12.230
59088SOL    HW179161   7.816   8.066  12.217
59088SOL    HW279162   7.966   8.079  12.217
59089SOL     OW79163   2.988   0.297   3.641
59089SOL    HW179164   2.995   0.203   3.660
59089SOL    HW279165   3.073   0.333   3.665
59090SOL     OW79166  11.370  10.685   9.371
59090SOL    HW179167  11.410  10.629   9.437
59090SOL    HW279168  11.276  10.663   9.375
59091SOL     OW79169   8.061   6.243   2.315
59091SOL    HW179170   8.134   6.194   2.353
59091SOL    HW279171   8.081   6.335   2.336
59092SOL     OW79172  12.366   0.233   1.885
59092SOL    HW179173  12.338   0.289   1.813
59092SOL    HW279174  12.449   0.194   1.855
59093SOL     OW79175  12.999   7.589  14.361
59093SOL    HW179176  12.906   7.587  14.338
59093SOL    HW279177  13.044   7.556  14.283
59094SOL     OW79178   3.416  14.428   5.064
59094SOL    HW179179   3.499  14.403   5.024
59094SOL    HW279180   3.413  14.378   5.145
59095SOL     OW79181  11.848  14.259  12.360
59095SOL    HW179182  11.913  14.269  12.430
59095SOL    HW279183  11.838  14.347  12.324
59096SOL     OW79184   1.538   8.924  10.465
59096SOL    HW179185   1.464   8.946  10.409
59096SOL    HW279186   1.523   8.833  10.491
59097SOL     OW79187   1.771   5.738   1.792
59097SOL    HW179188   1.864   5.760   1.799
59097SOL    HW279189   1.730   5.818   1.760
59098SOL     OW79190   5.510  11.792   8.604
59098SOL    HW179191   5.573  11.722   8.588
59098SOL    HW279192   5.564  11.870   8.615
59099SOL     OW79193   9.052   0.779   4.944
59099SOL    HW179194   9.125   0.827   4.904
59099SOL    HW279195   8.984   0.846   4.957
59100SOL     OW79196  10.382  13.341  14.173
59100SOL    HW179197  10.463  13.376  14.137
59100SOL    HW279198  10.357  13.271  14.113
59101SOL     OW79199   1.893  10.977  14.818
59101SOL    HW179200   1.851  11.043  14.873
59101SOL    HW279201   1.846  10.896  14.838
59102SOL     OW79202  14.634  14.245   4.570
59102SOL    HW179203  14.699  14.200   4.517
59102SOL    HW279204  14.657  14.338   4.563
59103SOL     OW79205  11.527  11.452  10.878
59103SOL    HW179206  11.527  11.426  10.970
59103SOL    HW279207  11.610  11.418  10.844
59104SOL     OW79208   6.654  13.762   5.007
59104SOL    HW179209   6.703  13.842   5.026
59104SOL    HW279210   6.692  13.697   5.067
59105SOL     OW79211   8.275  12.941  10.079
59105SOL    HW179212   8.308  12.924  10.167
59105SOL    HW279213   8.204  13.004  10.091
59106SOL     OW79214   0.207  14.600  13.066
59106SOL    HW179215   0.264  14.523  13.059
59106SOL    HW279216   0.121  14.569  13.038
59107SOL     OW79217  12.405   2.409   6.659
59107SOL    HW179218  12.336   2.343   6.652
59107SOL    HW279219  12.418   2.438   6.569
59108SOL     OW79220   9.669  13.651  11.206
59108SOL    HW179221   9.754  13.696  11.206
59108SOL    HW279222   9.679  13.583  11.139
59109SOL     OW79223   2.953   2.210   6.857
59109SOL    HW179224   2.887   2.272   6.889
59109SOL    HW279225   2.977   2.243   6.771
59110SOL     OW79226   0.799   9.634   2.129
59110SOL    HW179227   0.709   9.601   2.128
59110SOL    HW279228   0.852   9.559   2.103
59111SOL     OW79229   0.093   4.564  13.453
59111SOL    HW179230   0.058   4.483  13.416
59111SOL    HW279231   0.035   4.632  13.419
59112SOL     OW79232   9.105   6.607  11.344
59112SOL    HW179233   9.014   6.610  11.314
59112SOL    HW279234   9.098   6.611  11.439
59113SOL     OW79235   3.314  12.440  11.315
59113SOL    HW179236   3.257  12.422  11.390
59113SOL    HW279237   3.274  12.515  11.271
59114SOL     OW79238   4.228  12.153  13.716
59114SOL    HW179239   4.245  12.203  13.796
59114SOL    HW279240   4.221  12.062  13.746
59115SOL     OW79241  11.932  13.572   2.566
59115SOL    HW179242  11.838  13.553   2.560
59115SOL    HW279243  11.941  13.661   2.531
59116SOL     OW79244   1.101   8.137  13.447
59116SOL    HW179245   1.120   8.218  13.494
59116SOL    HW279246   1.100   8.163  13.355
59117SOL     OW79247   9.766   2.945  10.067
59117SOL    HW179248   9.704   2.874  10.052
59117SOL    HW279249   9.737   2.984  10.150
59118SOL     OW79250   4.259  11.659   5.767
59118SOL    HW179251   4.292  11.643   5.679
59118SOL    HW279252   4.335  11.650   5.824
59119SOL     OW79253   1.218   5.326   8.378
59119SOL    HW179254   1.280   5.333   8.450
59119SOL    HW279255   1.167   5.247   8.396
59120SOL     OW79256   1.356   8.220  11.597
59120SOL    HW179257   1.353   8.128  11.624
59120SOL    HW279258   1.412   8.262  11.662
59121SOL     OW79259   0.481   8.425  11.813
59121SOL    HW179260   0.471   8.515  11.781
59121SOL    HW279261   0.438   8.372  11.747
59122SOL     OW79262   6.354  12.543  13.716
59122SOL    HW179263   6.261  12.526  13.699
59122SOL    HW279264   6.361  12.540  13.812
59123SOL     OW79265  10.195  10.533  12.833
59123SOL    HW179266  10.147  10.478  12.895
59123SOL    HW279267  10.196  10.482  12.752
59124SOL     OW79268   8.886   8.879  14.505
59124SOL    HW179269   8.882   8.974  14.500
59124SOL    HW279270   8.855   8.858  14.593
59125SOL     OW79271   4.715   1.073   1.098
59125SOL    HW179272   4.725   1.001   1.161
59125SOL    HW279273   4.700   1.030   1.014
59126SOL     OW79274   9.140  10.648   2.507
59126SOL    HW179275   9.224  10.681   2.476
59126SOL    HW279276   9.157  10.622   2.598
59127SOL     OW79277   5.904  13.461   4.191
59127SOL    HW179278   5.936  13.548   4.168
59127SOL    HW279279   5.855  13.432   4.114
59128SOL     OW79280  10.207   4.366   2.914
59128SOL    HW179281  10.190   4.281   2.875
59128SOL    HW279282  10.287   4.397   2.872
59129SOL     OW79283  11.806   0.328   0.758
59129SOL    HW179284  11.901   0.326   0.763
59129SOL    HW279285  11.787   0.369   0.674
59130SOL     OW79286   1.952   1.449   8.460
59130SOL    HW179287   1.882   1.451   8.525
59130SOL    HW279288   2.017   1.389   8.497
59131SOL     OW79289  13.844   6.536  13.152
59131SOL    HW179290  13.897   6.602  13.196
59131SOL    HW279291  13.759   6.579  13.138
59132SOL     OW79292   2.214  13.495   3.739
59132SOL    HW179293   2.300  13.526   3.767
59132SOL    HW279294   2.226  13.402   3.720
59133SOL     OW79295  13.586  12.388   4.578
59133SOL    HW179296  13.583  12.298   4.609
59133SOL    HW279297  13.515  12.393   4.514
59134SOL     OW79298  11.430   2.259   8.083
59134SOL    HW179299  11.367   2.194   8.053
59134SOL    HW279300  11.404   2.340   8.041
59135SOL     OW79301  12.186   3.361  14.629
59135SOL    HW179302  12.248   3.304  14.584
59135SOL    HW279303  12.185   3.329  14.719
59136SOL     OW79304   1.263   4.179   0.050
59136SOL    HW179305   1.198   4.123   0.006
59136SOL    HW279306   1.323   4.206  14.861
59137SOL     OW79307  14.516   3.837  10.613
59137SOL    HW179308  14.591   3.865  10.560
59137SOL    HW279309  14.489   3.754  10.575
59138SOL     OW79310   4.983   4.040   7.477
59138SOL    HW179311   4.961   4.133   7.472
59138SOL    HW279312   5.073   4.039   7.510
59139SOL     OW79313  14.403  11.728  12.931
59139SOL    HW179314  14.468  11.727  13.001
59139SOL    HW279315  14.320  11.741  12.976
59140SOL     OW79316   4.200   6.879   1.686
59140SOL    HW179317   4.208   6.949   1.751
59140SOL    HW279318   4.158   6.808   1.734
59141SOL     OW79319   0.594  14.169   7.682
59141SOL    HW179320   0.536  14.241   7.706
59141SOL    HW279321   0.658  14.165   7.753
59142SOL     OW79322   4.840  13.616   5.447
59142SOL    HW179323   4.861  13.633   5.539
59142SOL    HW279324   4.777  13.544   5.450
59143SOL     OW79325  14.466  10.368  12.765
59143SOL    HW179326  14.532  10.427  12.728
59143SOL    HW279327  14.388  10.384  12.713
59144SOL     OW79328   2.024   7.552  12.004
59144SOL    HW179329   2.034   7.628  11.947
59144SOL    HW279330   2.011   7.589  12.092
59145SOL     OW79331  14.405   1.360   5.422
59145SOL    HW179332  14.379   1.352   5.330
59145SOL    HW279333  14.324   1.381   5.468
59146SOL     OW79334  13.960  10.691   0.237
59146SOL    HW179335  13.881  10.650   0.272
59146SOL    HW279336  13.959  10.670   0.143
59147SOL     OW79337  12.596   7.395   6.231
59147SOL    HW179338  12.598   7.392   6.136
59147SOL    HW279339  12.674   7.347   6.258
59148SOL     OW79340   2.678   0.624   6.722
59148SOL    HW179341   2.619   0.554   6.750
59148SOL    HW279342   2.646   0.702   6.767
59149SOL     OW79343   3.753   4.714   5.597
59149SOL    HW179344   3.767   4.783   5.662
59149SOL    HW279345   3.811   4.736   5.524
59150SOL     OW79346   3.915  11.041   8.113
59150SOL    HW179347   3.940  11.094   8.038
59150SOL    HW279348   3.957  10.956   8.098
59151SOL     OW79349   5.628   1.686   0.323
59151SOL    HW179350   5.553   1.707   0.378
59151SOL    HW279351   5.615   1.736   0.243
59152SOL     OW79352  13.669  14.713   4.506
59152SOL    HW179353  13.626  14.781   4.558
59152SOL    HW279354  13.660  14.742   4.416
59153SOL     OW79355   2.422   4.739   4.601
59153SOL    HW179356   2.427   4.643   4.597
59153SOL    HW279357   2.374   4.757   4.682
59154SOL     OW79358  10.322   5.589   1.815
59154SOL    HW179359  10.397   5.646   1.831
59154SOL    HW279360  10.256   5.646   1.776
59155SOL     OW79361  12.862   2.799  14.210
59155SOL    HW179362  12.806   2.738  14.259
59155SOL    HW279363  12.800   2.852  14.160
59156SOL     OW79364   0.390   1.169   7.304
59156SOL    HW179365   0.384   1.179   7.209
59156SOL    HW279366   0.470   1.217   7.328
59157SOL     OW79367   8.857   6.423   8.730
59157SOL    HW179368   8.833   6.427   8.638
59157SOL    HW279369   8.934   6.365   8.733
59158SOL     OW79370   9.892  10.320   3.714
59158SOL    HW179371   9.822  10.261   3.685
59158SOL    HW279372   9.847  10.389   3.763
59159SOL     OW79373  10.997  10.403   4.103
59159SOL    HW179374  10.953  10.388   4.019
59159SOL    HW279375  10.996  10.317   4.146
59160SOL     OW79376   4.879  14.451   7.246
59160SOL    HW179377   4.912  14.369   7.211
59160SOL    HW279378   4.956  14.496   7.281
59161SOL     OW79379  13.642   6.521  11.784
59161SOL    HW179380  13.630   6.599  11.838
59161SOL    HW279381  13.681   6.457  11.843
59162SOL     OW79382   0.398   9.413   4.181
59162SOL    HW179383   0.321   9.446   4.229
59162SOL    HW279384   0.472   9.430   4.239
59163SOL     OW79385   7.467  10.058   8.697
59163SOL    HW179386   7.458  10.154   8.699
59163SOL    HW279387   7.378  10.025   8.704
59164SOL     OW79388   1.431   9.076   6.189
59164SOL    HW179389   1.477   9.039   6.114
59164SOL    HW279390   1.378   9.004   6.224
59165SOL     OW79391   7.700   8.587  13.849
59165SOL    HW179392   7.776   8.631  13.887
59165SOL    HW279393   7.728   8.497  13.835
59166SOL     OW79394  11.570   4.455   3.605
59166SOL    HW179395  11.629   4.401   3.657
59166SOL    HW279396  11.620   4.534   3.586
59167SOL     OW79397  13.106  12.470   8.729
59167SOL    HW179398  13.047  12.437   8.797
59167SOL    HW279399  13.193  12.463   8.768
59168SOL     OW79400   9.174  11.280   1.585
59168SOL    HW179401   9.246  11.328   1.627
59168SOL    HW279402   9.178  11.193   1.624
59169SOL     OW79403  10.258   1.042   7.760
59169SOL    HW179404  10.170   1.056   7.725
59169SOL    HW279405  10.307   1.004   7.687
59170SOL     OW79406   6.751  14.727   4.130
59170SOL    HW179407   6.692  14.675   4.076
59170SOL    HW279408   6.833  14.730   4.080
59171SOL     OW79409   6.474  11.868   5.635
59171SOL    HW179410   6.419  11.828   5.568
59171SOL    HW279411   6.554  11.894   5.589
59172SOL     OW79412   5.723   9.834   9.549
59172SOL    HW179413   5.646   9.821   9.495
59172SOL    HW279414   5.704   9.786   9.630
59173SOL     OW79415   2.985  13.962   2.890
59173SOL    HW179416   3.054  13.984   2.953
59173SOL    HW279417   3.007  13.873   2.861
59174SOL     OW79418  13.925  12.880   1.163
59174SOL    HW179419  13.896  12.790   1.148
59174SOL    HW279420  13.844  12.930   1.175
59175SOL     OW79421   3.727   4.141  14.270
59175SOL    HW179422   3.654   4.197  14.298
59175SOL    HW279423   3.705   4.055  14.305
59176SOL     OW79424  13.305   7.610   1.635
59176SOL    HW179425  13.244   7.572   1.570
59176SOL    HW279426  13.384   7.556   1.627
59177SOL     OW79427   8.296  11.059  13.521
59177SOL    HW179428   8.276  11.070  13.614
59177SOL    HW279429   8.327  11.145  13.493
59178SOL     OW79430  11.227  11.695   5.389
59178SOL    HW179431  11.228  11.708   5.294
59178SOL    HW279432  11.182  11.611   5.401
59179SOL     OW79433  14.771  14.508   8.713
59179SOL    HW179434  14.802  14.552   8.634
59179SOL    HW279435  14.689  14.552   8.734
59180SOL     OW79436  12.162   4.406   2.057
59180SOL    HW179437  12.205   4.380   1.976
59180SOL    HW279438  12.073   4.429   2.031
59181SOL     OW79439  14.045   4.529  10.230
59181SOL    HW179440  14.088   4.603  10.188
59181SOL    HW279441  14.109   4.458  10.223
59182SOL     OW79442   0.256  11.540  14.750
59182SOL    HW179443   0.300  11.466  14.793
59182SOL    HW279444   0.327  11.586  14.705
59183SOL     OW79445   1.225   6.076   1.422
59183SOL    HW179446   1.232   5.989   1.460
59183SOL    HW279447   1.261   6.134   1.489
59184SOL     OW79448   2.673   0.833  10.316
59184SOL    HW179449   2.768   0.834  10.306
59184SOL    HW279450   2.659   0.812  10.409
59185SOL     OW79451   4.665  11.692   6.237
59185SOL    HW179452   4.618  11.763   6.194
59185SOL    HW279453   4.598  11.628   6.258
59186SOL     OW79454  12.423   0.885  13.938
59186SOL    HW179455  12.343   0.850  13.977
59186SOL    HW279456  12.413   0.869  13.844
59187SOL     OW79457   7.001   0.803   3.421
59187SOL    HW179458   6.936   0.820   3.489
59187SOL    HW279459   7.081   0.847   3.453
59188SOL     OW79460   3.635   6.259   2.925
59188SOL    HW179461   3.665   6.322   2.990
59188SOL    HW279462   3.715   6.217   2.893
59189SOL     OW79463   9.001   2.676  13.056
59189SOL    HW179464   9.085   2.630  13.054
59189SOL    HW279465   9.018   2.755  13.107
59190SOL     OW79466  12.342  14.119  10.059
59190SOL    HW179467  12.276  14.184  10.037
59190SOL    HW279468  12.413  14.135   9.997
59191SOL     OW79469  12.339   1.183  13.242
59191SOL    HW179470  12.364   1.147  13.157
59191SOL    HW279471  12.361   1.113  13.304
59192SOL     OW79472   6.802  10.913   2.355
59192SOL    HW179473   6.842  10.883   2.273
59192SOL    HW279474   6.722  10.860   2.363
59193SOL     OW79475  12.320   8.733   5.960
59193SOL    HW179476  12.236   8.746   5.917
59193SOL    HW279477  12.336   8.814   6.008
59194SOL     OW79478   5.618   6.753   0.121
59194SOL    HW179479   5.620   6.690   0.049
59194SOL    HW279480   5.710   6.762   0.147
59195SOL     OW79481   0.929  13.752  14.832
59195SOL    HW179482   0.980  13.742  14.752
59195SOL    HW279483   0.859  13.687  14.825
59196SOL     OW79484   9.703  11.990   0.504
59196SOL    HW179485   9.641  12.055   0.535
59196SOL    HW279486   9.789  12.031   0.516
59197SOL     OW79487   2.971   3.914   6.693
59197SOL    HW179488   2.886   3.871   6.698
59197SOL    HW279489   3.034   3.843   6.711
59198SOL     OW79490   1.266   5.466   0.496
59198SOL    HW179491   1.214   5.440   0.420
59198SOL    HW279492   1.354   5.480   0.462
59199SOL     OW79493  14.450  11.201   2.830
59199SOL    HW179494  14.525  11.183   2.887
59199SOL    HW279495  14.392  11.256   2.883
59200SOL     OW79496   5.476   2.979   6.169
59200SOL    HW179497   5.410   3.044   6.146
59200SOL    HW279498   5.426   2.901   6.193
59201SOL     OW79499  10.976   6.588   2.236
59201SOL    HW179500  11.012   6.657   2.292
59201SOL    HW279501  10.893   6.565   2.277
59202SOL     OW79502   4.914   2.879  11.939
59202SOL    HW179503   4.997   2.925  11.953
59202SOL    HW279504   4.868   2.889  12.023
59203SOL     OW79505   5.796  11.157  11.068
59203SOL    HW179506   5.740  11.079  11.068
59203SOL    HW279507   5.788  11.192  11.157
59204SOL     OW79508  10.286   1.906  12.660
59204SOL    HW179509  10.350   1.834  12.656
59204SOL    HW279510  10.262   1.921  12.569
59205SOL     OW79511   3.403  11.880   4.542
59205SOL    HW179512   3.358  11.962   4.519
59205SOL    HW279513   3.456  11.860   4.465
59206SOL     OW79514   8.575   4.405   0.407
59206SOL    HW179515   8.604   4.344   0.475
59206SOL    HW279516   8.503   4.453   0.448
59207SOL     OW79517   0.273   0.831   8.931
59207SOL    HW179518   0.297   0.778   9.007
59207SOL    HW279519   0.323   0.793   8.858
59208SOL     OW79520  10.335   0.662   3.300
59208SOL    HW179521  10.351   0.695   3.388
59208SOL    HW279522  10.284   0.730   3.257
59209SOL     OW79523   5.647  14.414   1.175
59209SOL    HW179524   5.701  14.490   1.153
59209SOL    HW279525   5.705  14.339   1.165
59210SOL     OW79526   1.385  14.444  11.954
59210SOL    HW179527   1.477  14.469  11.946
59210SOL    HW279528   1.380  14.397  12.037
59211SOL     OW79529  14.263   7.159   0.080
59211SOL    HW179530  14.279   7.065   0.086
59211SOL    HW279531  14.254   7.188   0.171
59212SOL     OW79532   3.989   6.056   5.267
59212SOL    HW179533   3.966   5.974   5.310
59212SOL    HW279534   4.002   6.032   5.175
59213SOL     OW79535   6.370   0.619   4.891
59213SOL    HW179536   6.366   0.661   4.977
59213SOL    HW279537   6.354   0.526   4.909
59214SOL     OW79538   2.917   2.603   0.533
59214SOL    HW179539   2.861   2.656   0.590
59214SOL    HW279540   2.875   2.517   0.532
59215SOL     OW79541   8.400   4.836   4.044
59215SOL    HW179542   8.378   4.898   4.113
59215SOL    HW279543   8.349   4.758   4.065
59216SOL     OW79544  14.034   8.052  13.613
59216SOL    HW179545  14.090   8.049  13.535
59216SOL    HW279546  13.966   7.986  13.596
59217SOL     OW79547   3.695   1.710  11.560
59217SOL    HW179548   3.611   1.740  11.525
59217SOL    HW279549   3.707   1.623  11.523
59218SOL     OW79550   6.816   4.764   2.738
59218SOL    HW179551   6.725   4.755   2.765
59218SOL    HW279552   6.837   4.856   2.755
59219SOL     OW79553   6.729  10.565   5.486
59219SOL    HW179554   6.730  10.613   5.569
59219SOL    HW279555   6.796  10.608   5.432
59220SOL     OW79556   6.823  14.227   5.727
59220SOL    HW179557   6.757  14.188   5.784
59220SOL    HW279558   6.906  14.194   5.759
59221SOL     OW79559   5.843   9.584  12.402
59221SOL    HW179560   5.910   9.611  12.340
59221SOL    HW279561   5.778   9.654  12.398
59222SOL     OW79562  11.514  12.069   4.414
59222SOL    HW179563  11.504  12.103   4.504
59222SOL    HW279564  11.609  12.070   4.399
59223SOL     OW79565   6.571   1.799  10.155
59223SOL    HW179566   6.628   1.833  10.086
59223SOL    HW279567   6.485   1.833  10.133
59224SOL     OW79568   3.063   1.238   3.558
59224SOL    HW179569   3.141   1.194   3.524
59224SOL    HW279570   2.991   1.207   3.503
59225SOL     OW79571  12.088   9.019   7.662
59225SOL    HW179572  12.158   9.003   7.724
59225SOL    HW279573  12.016   9.053   7.715
59226SOL     OW79574   7.797   8.794   4.392
59226SOL    HW179575   7.806   8.877   4.346
59226SOL    HW279576   7.716   8.756   4.358
59227SOL     OW79577   2.794   0.852  11.806
59227SOL    HW179578   2.741   0.782  11.844
59227SOL    HW279579   2.736   0.894  11.742
59228SOL     OW79580  14.040   3.498   2.717
59228SOL    HW179581  14.027   3.574   2.660
59228SOL    HW279582  14.133   3.501   2.739
59229SOL     OW79583   8.311  10.820   3.974
59229SOL    HW179584   8.378  10.765   3.933
59229SOL    HW279585   8.339  10.828   4.066
59230SOL     OW79586   0.411  10.866   8.103
59230SOL    HW179587   0.404  10.943   8.047
59230SOL    HW279588   0.474  10.892   8.171
59231SOL     OW79589  11.290  12.339   1.122
59231SOL    HW179590  11.214  12.372   1.075
59231SOL    HW279591  11.302  12.250   1.089
59232SOL     OW79592  13.174   8.599  13.116
59232SOL    HW179593  13.098   8.621  13.062
59232SOL    HW279594  13.173   8.663  13.186
59233SOL     OW79595   8.773   1.327   5.397
59233SOL    HW179596   8.795   1.239   5.427
59233SOL    HW279597   8.683   1.320   5.366
59234SOL     OW79598   3.842   1.914  14.229
59234SOL    HW179599   3.886   1.992  14.264
59234SOL    HW279600   3.886   1.898  14.145
59235SOL     OW79601   9.384   0.059   0.380
59235SOL    HW179602   9.417   0.075   0.291
59235SOL    HW279603   9.363   0.147   0.413
59236SOL     OW79604  14.243   5.855   5.253
59236SOL    HW179605  14.200   5.775   5.222
59236SOL    HW279606  14.171   5.912   5.281
59237SOL     OW79607   4.441  12.126  10.188
59237SOL    HW179608   4.461  12.204  10.239
59237SOL    HW279609   4.455  12.054  10.250
59238SOL     OW79610   4.577   0.518   4.754
59238SOL    HW179611   4.531   0.434   4.758
59238SOL    HW279612   4.508   0.584   4.747
59239SOL     OW79613  11.936   9.849  14.566
59239SOL    HW179614  11.932   9.812  14.654
59239SOL    HW279615  12.029   9.842  14.541
59240SOL     OW79616   1.796  11.358  11.229
59240SOL    HW179617   1.761  11.316  11.308
59240SOL    HW279618   1.891  11.352  11.239
59241SOL     OW79619   6.240   2.910   6.909
59241SOL    HW179620   6.304   2.968   6.868
59241SOL    HW279621   6.182   2.884   6.837
59242SOL     OW79622   6.142   4.903  11.903
59242SOL    HW179623   6.081   4.976  11.912
59242SOL    HW279624   6.228   4.944  11.894
59243SOL     OW79625   0.164  10.566   4.477
59243SOL    HW179626   0.202  10.617   4.405
59243SOL    HW279627   0.232  10.503   4.500
59244SOL     OW79628  13.176   8.282   9.924
59244SOL    HW179629  13.213   8.254   9.840
59244SOL    HW279630  13.230   8.357   9.950
59245SOL     OW79631   1.892  13.235  11.668
59245SOL    HW179632   1.929  13.270  11.587
59245SOL    HW279633   1.968  13.216  11.723
59246SOL     OW79634   8.204   9.134   2.127
59246SOL    HW179635   8.177   9.133   2.035
59246SOL    HW279636   8.271   9.066   2.134
59247SOL     OW79637   7.740   2.602   9.961
59247SOL    HW179638   7.827   2.565   9.948
59247SOL    HW279639   7.695   2.539  10.018
59248SOL     OW79640   4.072   2.956  10.682
59248SOL    HW179641   4.062   2.878  10.736
59248SOL    HW279642   4.092   3.026  10.744
59249SOL     OW79643   3.327   1.275   5.601
59249SOL    HW179644   3.350   1.195   5.554
59249SOL    HW279645   3.345   1.254   5.693
59250SOL     OW79646   2.086  12.648   7.012
59250SOL    HW179647   2.156  12.712   6.999
59250SOL    HW279648   2.028  12.660   6.937
59251SOL     OW79649  10.383  12.541  10.644
59251SOL    HW179650  10.339  12.501  10.568
59251SOL    HW279651  10.472  12.505  10.641
59252SOL     OW79652   1.454   8.359   4.513
59252SOL    HW179653   1.363   8.378   4.490
59252SOL    HW279654   1.485   8.437   4.559
59253SOL     OW79655  13.926   8.215   1.127
59253SOL    HW179656  13.882   8.157   1.190
59253SOL    HW279657  13.892   8.302   1.147
59254SOL     OW79658   4.912   8.809  10.446
59254SOL    HW179659   4.892   8.859  10.525
59254SOL    HW279660   4.976   8.744  10.474
59255SOL     OW79661   7.882   1.383   1.384
59255SOL    HW179662   7.865   1.373   1.291
59255SOL    HW279663   7.917   1.472   1.393
59256SOL     OW79664   3.001   8.154   8.398
59256SOL    HW179665   3.063   8.091   8.361
59256SOL    HW279666   2.921   8.103   8.413
59257SOL     OW79667   0.263   0.459   4.323
59257SOL    HW179668   0.185   0.515   4.330
59257SOL    HW279669   0.230   0.377   4.285
59258SOL     OW79670  10.406   6.505   0.107
59258SOL    HW179671  10.334   6.476   0.051
59258SOL    HW279672  10.386   6.596   0.126
59259SOL     OW79673   7.731  12.798   0.676
59259SOL    HW179674   7.671  12.760   0.741
59259SOL    HW279675   7.708  12.891   0.674
59260SOL     OW79676  10.562   8.607   3.865
59260SOL    HW179677  10.551   8.664   3.941
59260SOL    HW279678  10.476   8.607   3.823
59261SOL     OW79679  10.704   3.965  13.558
59261SOL    HW179680  10.682   4.031  13.492
59261SOL    HW279681  10.672   4.002  13.640
59262SOL     OW79682  10.981  11.238   1.307
59262SOL    HW179683  11.063  11.189   1.306
59262SOL    HW279684  10.999  11.317   1.257
59263SOL     OW79685   3.014   1.521  11.784
59263SOL    HW179686   3.043   1.442  11.739
59263SOL    HW279687   3.085   1.584  11.772
59264SOL     OW79688   2.727  13.843   0.146
59264SOL    HW179689   2.712  13.750   0.132
59264SOL    HW279690   2.725  13.853   0.241
59265SOL     OW79691   9.177  14.753  10.707
59265SOL    HW179692   9.253  14.795  10.747
59265SOL    HW279693   9.180  14.663  10.739
59266SOL     OW79694   1.190   7.177   3.142
59266SOL    HW179695   1.198   7.249   3.204
59266SOL    HW279696   1.188   7.099   3.197
59267SOL     OW79697   9.018   5.479  10.591
59267SOL    HW179698   8.999   5.507  10.501
59267SOL    HW279699   9.105   5.513  10.608
59268SOL     OW79700   0.152   1.698  14.862
59268SOL    HW179701   0.141   1.603  14.855
59268SOL    HW279702   0.142   1.730  14.773
59269SOL     OW79703  10.749  10.221   9.920
59269SOL    HW179704  10.801  10.227   9.840
59269SOL    HW279705  10.746  10.127   9.939
59270SOL     OW79706  12.500   4.986  10.563
59270SOL    HW179707  12.411   4.995  10.598
59270SOL    HW279708  12.487   4.967  10.470
59271SOL     OW79709   8.786   1.126  14.683
59271SOL    HW179710   8.769   1.217  14.663
59271SOL    HW279711   8.881   1.119  14.688
59272SOL     OW79712   6.733   9.283   7.708
59272SOL    HW179713   6.742   9.297   7.614
59272SOL    HW279714   6.814   9.316   7.745
59273SOL     OW79715  13.511   7.264   5.036
59273SOL    HW179716  13.445   7.332   5.050
59273SOL    HW279717  13.461   7.182   5.035
59274SOL     OW79718   3.603  12.839   9.365
59274SOL    HW179719   3.641  12.924   9.345
59274SOL    HW279720   3.637  12.816   9.451
59275SOL     OW79721   3.774   0.021   2.578
59275SOL    HW179722   3.860  14.859   2.575
59275SOL    HW279723   3.718  14.845   2.524
59276SOL     OW79724   7.380  14.825  14.487
59276SOL    HW179725   7.448  14.787  14.543
59276SOL    HW279726   7.335   0.008  14.543
59277SOL     OW79727  12.976  10.341   6.868
59277SOL    HW179728  13.040  10.275   6.843
59277SOL    HW279729  12.939  10.372   6.785
59278SOL     OW79730   3.209  13.901  13.380
59278SOL    HW179731   3.183  13.845  13.454
59278SOL    HW279732   3.143  13.969  13.377
59279SOL     OW79733  14.470   8.454  14.071
59279SOL    HW179734  14.375   8.447  14.057
59279SOL    HW279735  14.491   8.545  14.050
59280SOL     OW79736   8.983   1.177   9.566
59280SOL    HW179737   9.051   1.240   9.592
59280SOL    HW279738   9.019   1.092   9.590
59281SOL     OW79739   1.259   6.863   2.122
59281SOL    HW179740   1.302   6.829   2.201
59281SOL    HW279741   1.272   6.795   2.056
59282SOL     OW79742  12.195   2.580   3.619
59282SOL    HW179743  12.199   2.656   3.677
59282SOL    HW279744  12.103   2.555   3.618
59283SOL     OW79745   0.159   8.768   3.916
59283SOL    HW179746   0.122   8.756   4.003
59283SOL    HW279747   0.112   8.843   3.880
59284SOL     OW79748   3.743   9.801   2.301
59284SOL    HW179749   3.820   9.777   2.251
59284SOL    HW279750   3.673   9.745   2.267
59285SOL     OW79751   8.645   0.823  13.952
59285SOL    HW179752   8.663   0.877  13.875
59285SOL    HW279753   8.624   0.737  13.916
59286SOL     OW79754  11.478  14.352  10.977
59286SOL    HW179755  11.397  14.312  10.945
59286SOL    HW279756  11.544  14.325  10.913
59287SOL     OW79757  13.322   7.896   5.213
59287SOL    HW179758  13.341   7.970   5.272
59287SOL    HW279759  13.258   7.843   5.262
59288SOL     OW79760   0.772   1.070   6.366
59288SOL    HW179761   0.711   1.043   6.298
59288SOL    HW279762   0.859   1.056   6.328
59289SOL     OW79763   1.428   1.724  14.522
59289SOL    HW179764   1.352   1.773  14.491
59289SOL    HW279765   1.401   1.685  14.604
59290SOL     OW79766  12.807   5.356   1.795
59290SOL    HW179767  12.794   5.448   1.770
59290SOL    HW279768  12.852   5.360   1.879
59291SOL     OW79769   2.452  13.197   1.209
59291SOL    HW179770   2.398  13.206   1.130
59291SOL    HW279771   2.514  13.270   1.204
59292SOL     OW79772  10.031   0.498   4.005
59292SOL    HW179773  10.094   0.505   3.933
59292SOL    HW279774   9.946   0.494   3.962
59293SOL     OW79775   4.344  11.501   7.392
59293SOL    HW179776   4.314  11.581   7.436
59293SOL    HW279777   4.370  11.443   7.464
59294SOL     OW79778   3.909  10.410  11.008
59294SOL    HW179779   3.949  10.334  10.966
59294SOL    HW279780   3.856  10.450  10.939
59295SOL     OW79781   9.683  12.033   3.640
59295SOL    HW179782   9.700  12.096   3.570
59295SOL    HW279783   9.725  11.952   3.612
59296SOL     OW79784   5.848   2.895   2.155
59296SOL    HW179785   5.873   2.953   2.084
59296SOL    HW279786   5.882   2.938   2.234
59297SOL     OW79787   1.889   2.780   0.116
59297SOL    HW179788   1.807   2.817   0.148
59297SOL    HW279789   1.871   2.687   0.105
59298SOL     OW79790   3.704   6.330   1.306
59298SOL    HW179791   3.619   6.366   1.280
59298SOL    HW279792   3.684   6.268   1.376
59299SOL     OW79793   4.300   7.433   4.765
59299SOL    HW179794   4.360   7.367   4.799
59299SOL    HW279795   4.342   7.465   4.685
59300SOL     OW79796   1.441   6.231   5.172
59300SOL    HW179797   1.495   6.196   5.101
59300SOL    HW279798   1.449   6.167   5.243
59301SOL     OW79799   4.270   8.717   7.867
59301SOL    HW179800   4.222   8.739   7.787
59301SOL    HW279801   4.362   8.732   7.844
59302SOL     OW79802   7.305  11.703  11.378
59302SOL    HW179803   7.396  11.685  11.404
59302SOL    HW279804   7.311  11.782  11.324
59303SOL     OW79805   7.281   7.547  10.229
59303SOL    HW179806   7.253   7.494  10.303
59303SOL    HW279807   7.377   7.550  10.237
59304SOL     OW79808  12.527   8.022  14.318
59304SOL    HW179809  12.482   7.977  14.247
59304SOL    HW279810  12.464   8.020  14.391
59305SOL     OW79811   1.757   0.918   3.707
59305SOL    HW179812   1.765   0.997   3.760
59305SOL    HW279813   1.671   0.882   3.730
59306SOL     OW79814   2.348   4.995   9.124
59306SOL    HW179815   2.281   4.945   9.170
59306SOL    HW279816   2.425   4.938   9.125
59307SOL     OW79817   6.790   9.009   0.160
59307SOL    HW179818   6.870   8.972   0.197
59307SOL    HW279819   6.765   9.079   0.221
59308SOL     OW79820  13.498   8.917   7.296
59308SOL    HW179821  13.431   8.985   7.288
59308SOL    HW279822  13.570   8.960   7.342
59309SOL     OW79823   2.676  11.430   6.630
59309SOL    HW179824   2.750  11.490   6.638
59309SOL    HW279825   2.668  11.391   6.717
59310SOL     OW79826   8.094   5.787   6.165
59310SOL    HW179827   8.188   5.785   6.147
59310SOL    HW279828   8.071   5.880   6.163
59311SOL     OW79829   8.650   0.839   6.412
59311SOL    HW179830   8.570   0.813   6.365
59311SOL    HW279831   8.622   0.850   6.503
59312SOL     OW79832  10.704   9.495   5.215
59312SOL    HW179833  10.773   9.486   5.281
59312SOL    HW279834  10.630   9.447   5.251
59313SOL     OW79835   9.547   4.982   1.127
59313SOL    HW179836   9.463   4.957   1.165
59313SOL    HW279837   9.575   5.058   1.179
59314SOL     OW79838  10.047   4.365   8.060
59314SOL    HW179839  10.000   4.304   8.004
59314SOL    HW279840   9.987   4.440   8.069
59315SOL     OW79841   0.607   9.133   9.163
59315SOL    HW179842   0.697   9.166   9.158
59315SOL    HW279843   0.554   9.211   9.179
59316SOL     OW79844   1.621   3.881   1.553
59316SOL    HW179845   1.671   3.930   1.489
59316SOL    HW279846   1.531   3.913   1.543
59317SOL     OW79847   7.798   0.563   0.349
59317SOL    HW179848   7.878   0.565   0.297
59317SOL    HW279849   7.734   0.518   0.293
59318SOL     OW79850   5.017   3.742  11.769
59318SOL    HW179851   4.974   3.770  11.688
59318SOL    HW279852   4.962   3.780  11.839
59319SOL     OW79853   0.582   8.448   9.295
59319SOL    HW179854   0.549   8.407   9.375
59319SOL    HW279855   0.548   8.392   9.224
59320SOL     OW79856   0.901   2.121   0.134
59320SOL    HW179857   0.932   2.205   0.101
59320SOL    HW279858   0.975   2.061   0.118
59321SOL     OW79859   4.987   7.616   8.136
59321SOL    HW179860   4.910   7.607   8.080
59321SOL    HW279861   5.054   7.562   8.094
59322SOL     OW79862   5.767  10.633   4.111
59322SOL    HW179863   5.850  10.604   4.149
59322SOL    HW279864   5.718  10.552   4.095
59323SOL     OW79865   9.778   2.853  12.940
59323SOL    HW179866   9.712   2.784  12.940
59323SOL    HW279867   9.735   2.928  12.981
59324SOL     OW79868   6.342   5.925   8.085
59324SOL    HW179869   6.283   6.000   8.077
59324SOL    HW279870   6.421   5.961   8.124
59325SOL     OW79871   2.437  10.085   7.283
59325SOL    HW179872   2.402  10.082   7.194
59325SOL    HW279873   2.407  10.169   7.318
59326SOL     OW79874   2.460  11.223   4.026
59326SOL    HW179875   2.497  11.295   3.976
59326SOL    HW279876   2.513  11.147   4.004
59327SOL     OW79877   5.871   5.379   1.289
59327SOL    HW179878   5.873   5.378   1.385
59327SOL    HW279879   5.817   5.304   1.265
59328SOL     OW79880   8.738   5.040   8.580
59328SOL    HW179881   8.785   4.983   8.641
59328SOL    HW279882   8.717   5.119   8.630
59329SOL     OW79883   8.745  11.997   5.532
59329SOL    HW179884   8.831  12.012   5.492
59329SOL    HW279885   8.758  11.920   5.588
59330SOL     OW79886   3.615   6.684  10.757
59330SOL    HW179887   3.710   6.700  10.760
59330SOL    HW279888   3.586   6.696  10.847
59331SOL     OW79889   0.446   3.968   1.522
59331SOL    HW179890   0.461   4.036   1.588
59331SOL    HW279891   0.352   3.973   1.504
59332SOL     OW79892  12.959   0.994   1.263
59332SOL    HW179893  12.868   0.976   1.239
59332SOL    HW279894  12.953   1.036   1.349
59333SOL     OW79895   5.998   6.271   2.422
59333SOL    HW179896   5.958   6.249   2.507
59333SOL    HW279897   6.061   6.340   2.443
59334SOL     OW79898  10.433  10.201   0.085
59334SOL    HW179899  10.524  10.176   0.094
59334SOL    HW279900  10.421  10.273   0.147
59335SOL     OW79901   9.418   0.177   5.898
59335SOL    HW179902   9.336   0.150   5.856
59335SOL    HW279903   9.444   0.256   5.852
59336SOL     OW79904   9.829   7.158   9.950
59336SOL    HW179905   9.752   7.177   9.896
59336SOL    HW279906   9.830   7.063   9.958
59337SOL     OW79907   7.591  14.580   2.205
59337SOL    HW179908   7.673  14.548   2.242
59337SOL    HW279909   7.536  14.598   2.281
59338SOL     OW79910   7.740  13.228  11.521
59338SOL    HW179911   7.703  13.243  11.434
59338SOL    HW279912   7.797  13.303  11.536
59339SOL     OW79913   8.035   0.363  12.375
59339SOL    HW179914   8.101   0.293  12.370
59339SOL    HW279915   8.027   0.383  12.468
59340SOL     OW79916   8.840  11.939  14.114
59340SOL    HW179917   8.900  11.967  14.184
59340SOL    HW279918   8.753  11.959  14.148
59341SOL     OW79919   9.422   4.117  12.532
59341SOL    HW179920   9.464   4.031  12.530
59341SOL    HW279921   9.400   4.135  12.440
59342SOL     OW79922   6.764   3.027  13.930
59342SOL    HW179923   6.700   3.073  13.877
59342SOL    HW279924   6.797   3.094  13.991
59343SOL     OW79925  10.792   5.137   8.042
59343SOL    HW179926  10.732   5.128   7.969
59343SOL    HW279927  10.798   5.231   8.059
59344SOL     OW79928   4.542   3.523   7.576
59344SOL    HW179929   4.570   3.614   7.570
59344SOL    HW279930   4.513   3.512   7.667
59345SOL     OW79931   4.170   7.096   9.669
59345SOL    HW179932   4.241   7.044   9.631
59345SOL    HW279933   4.113   7.117   9.595
59346SOL     OW79934  13.449  13.271   3.593
59346SOL    HW179935  13.472  13.336   3.527
59346SOL    HW279936  13.514  13.283   3.662
59347SOL     OW79937   5.549   0.549  12.078
59347SOL    HW179938   5.513   0.597  12.004
59347SOL    HW279939   5.505   0.585  12.154
59348SOL     OW79940  12.980   0.913   3.956
59348SOL    HW179941  13.010   0.891   3.867
59348SOL    HW279942  12.946   0.831   3.991
59349SOL     OW79943   2.855   0.915  12.432
59349SOL    HW179944   2.781   0.865  12.397
59349SOL    HW279945   2.818   1.001  12.453
59350SOL     OW79946   7.267   4.252   1.868
59350SOL    HW179947   7.267   4.231   1.962
59350SOL    HW279948   7.183   4.295   1.854
59351SOL     OW79949  10.368   9.090   6.543
59351SOL    HW179950  10.289   9.127   6.503
59351SOL    HW279951  10.419   9.058   6.469
59352SOL     OW79952   6.080   1.446   9.913
59352SOL    HW179953   6.097   1.389   9.988
59352SOL    HW279954   6.086   1.389   9.837
59353SOL     OW79955   7.127   4.418   9.882
59353SOL    HW179956   7.081   4.334   9.881
59353SOL    HW279957   7.117   4.451   9.793
59354SOL     OW79958   2.784   2.715   7.843
59354SOL    HW179959   2.831   2.631   7.846
59354SOL    HW279960   2.776   2.734   7.749
59355SOL     OW79961  10.919   0.903  10.053
59355SOL    HW179962  10.825   0.891  10.036
59355SOL    HW279963  10.928   0.887  10.147
59356SOL     OW79964   7.858   0.104   3.398
59356SOL    HW179965   7.912   0.109   3.477
59356SOL    HW279966   7.789   0.041   3.419
59357SOL     OW79967  12.906  11.283   0.079
59357SOL    HW179968  12.935  11.317   0.163
59357SOL    HW279969  12.815  11.255   0.094
59358SOL     OW79970   9.549  11.724   2.031
59358SOL    HW179971   9.527  11.633   2.054
59358SOL    HW279972   9.489  11.745   1.960
59359SOL     OW79973   8.208   1.128   5.622
59359SOL    HW179974   8.204   1.162   5.711
59359SOL    HW279975   8.282   1.067   5.623
59360SOL     OW79976   9.971  11.866   3.071
59360SOL    HW179977   9.955  11.771   3.070
59360SOL    HW279978   9.919  11.900   2.998
59361SOL     OW79979   5.645   7.589  14.446
59361SOL    HW179980   5.666   7.652  14.377
59361SOL    HW279981   5.692   7.621  14.523
59362SOL     OW79982   7.126  14.449   6.379
59362SOL    HW179983   7.097  14.400   6.456
59362SOL    HW279984   7.081  14.533   6.386
59363SOL     OW79985   5.825   6.967  14.021
59363SOL    HW179986   5.791   6.980  13.933
59363SOL    HW279987   5.782   7.034  14.074
59364SOL     OW79988   0.725  14.712   2.895
59364SOL    HW179989   0.751  14.739   2.807
59364SOL    HW279990   0.756  14.782   2.952
59365SOL     OW79991  13.803   5.523   8.383
59365SOL    HW179992  13.803   5.530   8.288
59365SOL    HW279993  13.773   5.608   8.414
59366SOL     OW79994  11.193  12.717   2.226
59366SOL    HW179995  11.248  12.729   2.148
59366SOL    HW279996  11.220  12.632   2.260
59367SOL     OW79997   5.597   4.721   1.524
59367SOL    HW179998   5.584   4.814   1.543
59367SOL    HW279999   5.691   4.708   1.537
59368SOL     OW80000  10.823   3.588   7.632
59368SOL    HW180001  10.795   3.550   7.549
59368SOL    HW280002  10.823   3.515   7.694
59369SOL     OW80003  10.793   5.856   6.534
59369SOL    HW180004  10.756   5.920   6.594
59369SOL    HW280005  10.718   5.803   6.507
59370SOL     OW80006  10.968   4.797   1.535
59370SOL    HW180007  11.023   4.857   1.485
59370SOL    HW280008  10.936   4.734   1.470
59371SOL     OW80009   8.699   0.135   4.215
59371SOL    HW180010   8.626   0.140   4.277
59371SOL    HW280011   8.756   0.067   4.250
59372SOL     OW80012  12.959   8.543  14.728
59372SOL    HW180013  12.923   8.603  14.792
59372SOL    HW280014  12.896   8.544  14.656
59373SOL     OW80015   5.510   1.212   7.887
59373SOL    HW180016   5.455   1.134   7.892
59373SOL    HW280017   5.548   1.209   7.799
59374SOL     OW80018   4.590   8.780   9.848
59374SOL    HW180019   4.649   8.792   9.773
59374SOL    HW280020   4.636   8.720   9.906
59375SOL     OW80021   4.800   2.724  11.428
59375SOL    HW180022   4.837   2.767  11.505
59375SOL    HW280023   4.870   2.728  11.362
59376SOL     OW80024  14.641  13.769  14.071
59376SOL    HW180025  14.649  13.859  14.103
59376SOL    HW280026  14.547  13.756  14.058
59377SOL     OW80027  10.593  10.890  12.263
59377SOL    HW180028  10.665  10.845  12.218
59377SOL    HW280029  10.621  10.893  12.355
59378SOL     OW80030   1.368   2.386  12.851
59378SOL    HW180031   1.329   2.304  12.822
59378SOL    HW280032   1.334   2.400  12.940
59379SOL     OW80033  10.843   2.447   0.136
59379SOL    HW180034  10.882   2.513   0.194
59379SOL    HW280035  10.843   2.488   0.049
59380SOL     OW80036  13.343   8.022   8.981
59380SOL    HW180037  13.368   8.089   8.918
59380SOL    HW280038  13.247   8.021   8.979
59381SOL     OW80039  11.652  12.136  12.004
59381SOL    HW180040  11.654  12.048  11.967
59381SOL    HW280041  11.570  12.174  11.972
59382SOL     OW80042   5.893  12.612   6.790
59382SOL    HW180043   5.946  12.691   6.783
59382SOL    HW280044   5.844  12.608   6.707
59383SOL     OW80045   3.638  13.767   1.066
59383SOL    HW180046   3.562  13.802   1.020
59383SOL    HW280047   3.602  13.728   1.146
59384SOL     OW80048   2.802   0.174   9.542
59384SOL    HW180049   2.749   0.252   9.526
59384SOL    HW280050   2.890   0.198   9.514
59385SOL     OW80051   2.194   2.895  13.807
59385SOL    HW180052   2.101   2.903  13.829
59385SOL    HW280053   2.239   2.897  13.891
59386SOL     OW80054  10.238   7.482   4.626
59386SOL    HW180055  10.264   7.558   4.678
59386SOL    HW280056  10.174   7.436   4.681
59387SOL     OW80057   6.849  10.518   6.060
59387SOL    HW180058   6.853  10.614   6.067
59387SOL    HW280059   6.779  10.502   5.997
59388SOL     OW80060   0.780  13.740  12.331
59388SOL    HW180061   0.721  13.809  12.363
59388SOL    HW280062   0.732  13.659  12.345
59389SOL     OW80063  14.384  13.898   6.707
59389SOL    HW180064  14.457  13.842   6.679
59389SOL    HW280065  14.424  13.962   6.765
59390SOL     OW80066  13.973  14.731  10.117
59390SOL    HW180067  13.996  14.681  10.039
59390SOL    HW280068  13.931  14.810  10.083
59391SOL     OW80069  10.768   5.641  14.269
59391SOL    HW180070  10.828   5.583  14.222
59391SOL    HW280071  10.826   5.696  14.323
59392SOL     OW80072  12.976   1.046   3.502
59392SOL    HW180073  12.981   1.141   3.507
59392SOL    HW280074  13.067   1.016   3.507
59393SOL     OW80075   8.104   7.974  12.183
59393SOL    HW180076   8.151   8.056  12.167
59393SOL    HW280077   8.136   7.914  12.116
59394SOL     OW80078   3.011  10.334   0.782
59394SOL    HW180079   3.031  10.370   0.695
59394SOL    HW280080   2.916  10.334   0.787
59395SOL     OW80081   5.149   2.575  14.088
59395SOL    HW180082   5.130   2.628  14.011
59395SOL    HW280083   5.064   2.554  14.126
59396SOL     OW80084  11.242   7.545   7.327
59396SOL    HW180085  11.274   7.456   7.313
59396SOL    HW280086  11.297   7.600   7.271
59397SOL     OW80087   9.544  13.316  10.234
59397SOL    HW180088   9.596  13.356  10.303
59397SOL    HW280089   9.460  13.362  10.237
59398SOL     OW80090  13.307   4.589  12.550
59398SOL    HW180091  13.264   4.503  12.545
59398SOL    HW280092  13.400   4.568  12.560
59399SOL     OW80093  11.552   7.372   8.244
59399SOL    HW180094  11.500   7.361   8.165
59399SOL    HW280095  11.588   7.285   8.261
59400SOL     OW80096   7.108   9.684   2.083
59400SOL    HW180097   7.076   9.667   2.172
59400SOL    HW280098   7.183   9.742   2.096
59401SOL     OW80099  13.902   0.876  12.264
59401SOL    HW180100  13.840   0.803  12.268
59401SOL    HW280101  13.907   0.908  12.355
59402SOL     OW80102   4.228   5.285   3.108
59402SOL    HW180103   4.195   5.229   3.178
59402SOL    HW280104   4.324   5.277   3.114
59403SOL     OW80105   5.566  10.089   6.674
59403SOL    HW180106   5.532  10.017   6.621
59403SOL    HW280107   5.503  10.097   6.746
59404SOL     OW80108  12.890   4.442  14.116
59404SOL    HW180109  12.984   4.456  14.132
59404SOL    HW280110  12.847   4.497  14.182
59405SOL     OW80111  13.971   7.035   4.748
59405SOL    HW180112  13.956   6.946   4.781
59405SOL    HW280113  14.044   7.068   4.801
59406SOL     OW80114   7.779   2.513   9.127
59406SOL    HW180115   7.862   2.488   9.167
59406SOL    HW280116   7.804   2.549   9.042
59407SOL     OW80117   2.308  14.140  13.872
59407SOL    HW180118   2.222  14.176  13.891
59407SOL    HW280119   2.369  14.200  13.913
59408SOL     OW80120   8.287  12.020   3.181
59408SOL    HW180121   8.321  12.077   3.112
59408SOL    HW280122   8.202  11.991   3.148
59409SOL     OW80123  13.247  14.272   2.625
59409SOL    HW180124  13.246  14.248   2.718
59409SOL    HW280125  13.220  14.192   2.580
59410SOL     OW80126  10.378   7.965  11.642
59410SOL    HW180127  10.323   8.018  11.584
59410SOL    HW280128  10.381   7.879  11.599
59411SOL     OW80129  14.225  13.189  14.012
59411SOL    HW180130  14.213  13.162  14.103
59411SOL    HW280131  14.230  13.285  14.015
59412SOL     OW80132  13.437   8.143   0.432
59412SOL    HW180133  13.412   8.235   0.424
59412SOL    HW280134  13.441   8.128   0.527
59413SOL     OW80135  10.535   2.178  10.104
59413SOL    HW180136  10.559   2.128  10.182
59413SOL    HW280137  10.491   2.115  10.047
59414SOL     OW80138   1.469   7.952   9.781
59414SOL    HW180139   1.379   7.984   9.783
59414SOL    HW280140   1.522   8.031   9.774
59415SOL     OW80141   2.438   6.564   0.940
59415SOL    HW180142   2.467   6.588   0.853
59415SOL    HW280143   2.512   6.582   0.997
59416SOL     OW80144   7.051  14.568  14.710
59416SOL    HW180145   6.995  14.629  14.757
59416SOL    HW280146   7.140  14.589  14.741
59417SOL     OW80147   9.606  13.282  10.751
59417SOL    HW180148   9.563  13.351  10.802
59417SOL    HW280149   9.693  13.318  10.732
59418SOL     OW80150   9.471   4.558  10.287
59418SOL    HW180151   9.388   4.533  10.329
59418SOL    HW280152   9.513   4.616  10.350
59419SOL     OW80153   1.304   7.516   7.219
59419SOL    HW180154   1.268   7.444   7.271
59419SOL    HW280155   1.381   7.545   7.268
59420SOL     OW80156   6.410   2.422   6.049
59420SOL    HW180157   6.333   2.472   6.074
59420SOL    HW280158   6.452   2.399   6.132
59421SOL     OW80159   9.040   5.151   0.847
59421SOL    HW180160   9.090   5.171   0.768
59421SOL    HW280161   9.028   5.236   0.889
59422SOL     OW80162   6.671   3.852   0.241
59422SOL    HW180163   6.689   3.836   0.333
59422SOL    HW280164   6.588   3.808   0.224
59423SOL     OW80165   5.657   3.585   5.789
59423SOL    HW180166   5.642   3.519   5.857
59423SOL    HW280167   5.700   3.657   5.835
59424SOL     OW80168   0.428   9.411   6.722
59424SOL    HW180169   0.403   9.375   6.637
59424SOL    HW280170   0.365   9.481   6.738
59425SOL     OW80171   7.640   1.844   7.888
59425SOL    HW180172   7.685   1.802   7.962
59425SOL    HW280173   7.587   1.912   7.928
59426SOL     OW80174  13.147   3.930   4.791
59426SOL    HW180175  13.151   4.006   4.848
59426SOL    HW280176  13.239   3.908   4.774
59427SOL     OW80177   1.374  10.182  14.242
59427SOL    HW180178   1.374  10.242  14.316
59427SOL    HW280179   1.371  10.095  14.281
59428SOL     OW80180  11.287   1.528   1.963
59428SOL    HW180181  11.222   1.502   2.029
59428SOL    HW280182  11.329   1.445   1.937
59429SOL     OW80183   7.782   0.398   0.750
59429SOL    HW180184   7.824   0.481   0.727
59429SOL    HW280185   7.854   0.335   0.753
59430SOL     OW80186  10.190   9.294   6.975
59430SOL    HW180187  10.201   9.274   6.882
59430SOL    HW280188  10.109   9.346   6.978
59431SOL     OW80189   4.062  10.528  14.338
59431SOL    HW180190   4.020  10.463  14.281
59431SOL    HW280191   3.989  10.572  14.381
59432SOL     OW80192   4.992  13.584   4.539
59432SOL    HW180193   5.065  13.589   4.477
59432SOL    HW280194   5.030  13.613   4.623
59433SOL     OW80195   3.720   7.419  13.699
59433SOL    HW180196   3.793   7.468  13.736
59433SOL    HW280197   3.643   7.452  13.746
59434SOL     OW80198  10.391  11.000   0.303
59434SOL    HW180199  10.350  11.065   0.360
59434SOL    HW280200  10.335  10.997   0.226
59435SOL     OW80201  12.317  11.432   4.398
59435SOL    HW180202  12.335  11.470   4.312
59435SOL    HW280203  12.255  11.494   4.438
59436SOL     OW80204   2.874   5.368   7.383
59436SOL    HW180205   2.881   5.353   7.289
59436SOL    HW280206   2.954   5.416   7.405
59437SOL     OW80207   5.928  10.484   8.529
59437SOL    HW180208   5.987  10.558   8.513
59437SOL    HW280209   5.910  10.448   8.442
59438SOL     OW80210   1.645   6.906   4.554
59438SOL    HW180211   1.578   6.915   4.622
59438SOL    HW280212   1.703   6.837   4.586
59439SOL     OW80213   4.500  11.832   6.509
59439SOL    HW180214   4.529  11.743   6.531
59439SOL    HW280215   4.578  11.886   6.522
59440SOL     OW80216  11.421   3.495  13.239
59440SOL    HW180217  11.349   3.493  13.302
59440SOL    HW280218  11.487   3.551  13.279
59441SOL     OW80219   9.145   7.250   6.068
59441SOL    HW180220   9.085   7.222   5.999
59441SOL    HW280221   9.183   7.169   6.102
59442SOL     OW80222  14.076  10.079   2.285
59442SOL    HW180223  14.171  10.072   2.270
59442SOL    HW280224  14.064  10.167   2.320
59443SOL     OW80225   2.088   3.108  14.120
59443SOL    HW180226   2.016   3.089  14.179
59443SOL    HW280227   2.047   3.147  14.043
59444SOL     OW80228  10.441   7.895   3.373
59444SOL    HW180229  10.350   7.901   3.403
59444SOL    HW280230  10.474   7.814   3.411
59445SOL     OW80231   8.218   8.502   7.420
59445SOL    HW180232   8.267   8.511   7.339
59445SOL    HW280233   8.170   8.420   7.410
59446SOL     OW80234   1.214   2.983  14.861
59446SOL    HW180235   1.173   2.924   0.044
59446SOL    HW280236   1.196   3.070   0.014
59447SOL     OW80237   7.208   6.353   9.627
59447SOL    HW180238   7.258   6.291   9.573
59447SOL    HW280239   7.269   6.380   9.696
59448SOL     OW80240   4.994   5.449   5.834
59448SOL    HW180241   5.000   5.483   5.924
59448SOL    HW280242   5.064   5.493   5.787
59449SOL     OW80243   1.152  11.106   4.169
59449SOL    HW180244   1.211  11.168   4.125
59449SOL    HW280245   1.076  11.100   4.111
59450SOL     OW80246  12.860   1.456  10.087
59450SOL    HW180247  12.831   1.530  10.140
59450SOL    HW280248  12.942   1.487  10.047
59451SOL     OW80249   9.014  12.442  12.067
59451SOL    HW180250   9.013  12.350  12.093
59451SOL    HW280251   8.972  12.443  11.981
59452SOL     OW80252   3.794   1.394   3.352
59452SOL    HW180253   3.752   1.375   3.436
59452SOL    HW280254   3.771   1.319   3.297
59453SOL     OW80255   9.433   7.499   1.319
59453SOL    HW180256   9.454   7.421   1.371
59453SOL    HW280257   9.437   7.571   1.381
59454SOL     OW80258   4.786  12.174  10.403
59454SOL    HW180259   4.873  12.194  10.435
59454SOL    HW280260   4.732  12.247  10.434
59455SOL     OW80261   0.381   6.089   1.715
59455SOL    HW180262   0.451   6.049   1.765
59455SOL    HW280263   0.416   6.174   1.688
59456SOL     OW80264   3.265   7.451   5.075
59456SOL    HW180265   3.356   7.475   5.058
59456SOL    HW280266   3.227   7.528   5.117
59457SOL     OW80267   0.233   1.620   3.383
59457SOL    HW180268   0.327   1.606   3.373
59457SOL    HW280269   0.209   1.677   3.311
59458SOL     OW80270   2.507   2.838   9.081
59458SOL    HW180271   2.475   2.880   9.160
59458SOL    HW280272   2.434   2.785   9.050
59459SOL     OW80273   8.928   0.747  12.685
59459SOL    HW180274   8.938   0.655  12.705
59459SOL    HW280275   9.012   0.773  12.647
59460SOL     OW80276   1.450   0.998   5.406
59460SOL    HW180277   1.530   1.050   5.396
59460SOL    HW280278   1.386   1.059   5.442
59461SOL     OW80279   8.058   7.209  14.712
59461SOL    HW180280   8.097   7.128  14.680
59461SOL    HW280281   8.124   7.276  14.695
59462SOL     OW80282   0.318   1.670   4.222
59462SOL    HW180283   0.366   1.594   4.188
59462SOL    HW280284   0.227   1.654   4.198
59463SOL     OW80285  13.879   3.367   3.182
59463SOL    HW180286  13.860   3.442   3.238
59463SOL    HW280287  13.816   3.300   3.209
59464SOL     OW80288  13.150   7.616  11.562
59464SOL    HW180289  13.240   7.588  11.582
59464SOL    HW280290  13.160   7.693  11.506
59465SOL     OW80291   5.448   0.009   9.201
59465SOL    HW180292   5.515   0.062   9.244
59465SOL    HW280293   5.391  14.860   9.272
59466SOL     OW80294   6.496   0.455   9.528
59466SOL    HW180295   6.504   0.549   9.509
59466SOL    HW280296   6.466   0.452   9.619
59467SOL     OW80297   5.052  12.052  13.869
59467SOL    HW180298   4.976  12.064  13.811
59467SOL    HW280299   5.123  12.028  13.810
59468SOL     OW80300  12.855   7.775   1.198
59468SOL    HW180301  12.867   7.861   1.159
59468SOL    HW280302  12.765   7.776   1.231
59469SOL     OW80303   8.636   3.520  12.659
59469SOL    HW180304   8.719   3.550  12.695
59469SOL    HW280305   8.599   3.464  12.727
59470SOL     OW80306  11.797   2.480  11.412
59470SOL    HW180307  11.839   2.470  11.497
59470SOL    HW280308  11.783   2.574  11.402
59471SOL     OW80309   6.533   1.141   2.908
59471SOL    HW180310   6.554   1.050   2.888
59471SOL    HW280311   6.542   1.187   2.824
59472SOL     OW80312  10.470   5.289   6.747
59472SOL    HW180313  10.479   5.194   6.746
59472SOL    HW280314  10.381   5.305   6.777
59473SOL     OW80315  10.703   4.259   6.187
59473SOL    HW180316  10.626   4.218   6.146
59473SOL    HW280317  10.716   4.340   6.137
59474SOL     OW80318   0.677   6.280   0.092
59474SOL    HW180319   0.693   6.187   0.074
59474SOL    HW280320   0.702   6.325   0.012
59475SOL     OW80321   0.377   6.186   8.499
59475SOL    HW180322   0.409   6.255   8.441
59475SOL    HW280323   0.309   6.141   8.447
59476SOL     OW80324   7.095  14.741  12.317
59476SOL    HW180325   7.024  14.694  12.360
59476SOL    HW280326   7.058  14.772  12.235
59477SOL     OW80327   9.805   0.038   6.471
59477SOL    HW180328   9.822   0.099   6.399
59477SOL    HW280329   9.712   0.019   6.465
59478SOL     OW80330   6.271   4.536   1.382
59478SOL    HW180331   6.268   4.456   1.435
59478SOL    HW280332   6.269   4.505   1.292
59479SOL     OW80333  10.317   6.620  13.385
59479SOL    HW180334  10.319   6.532  13.422
59479SOL    HW280335  10.260   6.613  13.308
59480SOL     OW80336   7.496   3.499  10.245
59480SOL    HW180337   7.437   3.555  10.295
59480SOL    HW280338   7.579   3.547  10.244
59481SOL     OW80339   8.877   6.277  13.716
59481SOL    HW180340   8.799   6.323  13.744
59481SOL    HW280341   8.845   6.195  13.679
59482SOL     OW80342   0.058  11.899   9.395
59482SOL    HW180343  14.849  11.922   9.368
59482SOL    HW280344   0.081  11.965   9.460
59483SOL     OW80345  10.574  10.239   0.830
59483SOL    HW180346  10.625  10.161   0.809
59483SOL    HW280347  10.539  10.223   0.918
59484SOL     OW80348   3.052  13.642   7.924
59484SOL    HW180349   2.988  13.711   7.907
59484SOL    HW280350   3.117  13.652   7.854
59485SOL     OW80351   5.638  14.597  10.916
59485SOL    HW180352   5.602  14.514  10.884
59485SOL    HW280353   5.712  14.615  10.859
59486SOL     OW80354   0.146  11.065   2.441
59486SOL    HW180355   0.068  11.012   2.456
59486SOL    HW280356   0.134  11.102   2.354
59487SOL     OW80357   0.903  14.870   0.316
59487SOL    HW180358   0.980   0.028   0.273
59487SOL    HW280359   0.879  14.796   0.260
59488SOL     OW80360   8.387   1.162   8.670
59488SOL    HW180361   8.298   1.153   8.701
59488SOL    HW280362   8.386   1.124   8.582
59489SOL     OW80363   3.294   3.184   5.933
59489SOL    HW180364   3.226   3.227   5.881
59489SOL    HW280365   3.367   3.246   5.932
59490SOL     OW80366  12.795   6.958  12.094
59490SOL    HW180367  12.799   7.042  12.048
59490SOL    HW280368  12.876   6.955  12.146
59491SOL     OW80369   6.224  12.814   7.059
59491SOL    HW180370   6.141  12.860   7.071
59491SOL    HW280371   6.220  12.740   7.119
59492SOL     OW80372   8.828  11.656  13.726
59492SOL    HW180373   8.854  11.694  13.810
59492SOL    HW280374   8.895  11.687  13.664
59493SOL     OW80375  10.396  11.001  13.294
59493SOL    HW180376  10.403  11.034  13.205
59493SOL    HW280377  10.447  11.062  13.347
59494SOL     OW80378   2.520  11.652  14.836
59494SOL    HW180379   2.454  11.607  14.784
59494SOL    HW280380   2.511  11.615   0.043
59495SOL     OW80381   8.817  11.547  14.401
59495SOL    HW180382   8.821  11.459  14.439
59495SOL    HW280383   8.769  11.599  14.465
59496SOL     OW80384  12.922  12.076   2.157
59496SOL    HW180385  12.850  12.013   2.152
59496SOL    HW280386  12.880  12.157   2.188
59497SOL     OW80387  11.958   3.903   0.555
59497SOL    HW180388  12.046   3.867   0.559
59497SOL    HW280389  11.962   3.982   0.609
59498SOL     OW80390   9.545   9.457   9.878
59498SOL    HW180391   9.579   9.375   9.844
59498SOL    HW280392   9.522   9.438   9.969
59499SOL     OW80393   2.783   8.964   1.987
59499SOL    HW180394   2.817   8.958   1.898
59499SOL    HW280395   2.706   9.019   1.981
59500SOL     OW80396   3.746   1.571   9.661
59500SOL    HW180397   3.664   1.605   9.698
59500SOL    HW280398   3.762   1.489   9.709
59501SOL     OW80399  13.543   2.708   4.239
59501SOL    HW180400  13.504   2.793   4.221
59501SOL    HW280401  13.530   2.694   4.332
59502SOL     OW80402  12.807   7.308  11.614
59502SOL    HW180403  12.867   7.379  11.636
59502SOL    HW280404  12.818   7.295  11.520
59503SOL     OW80405   1.991   0.247  10.937
59503SOL    HW180406   2.008   0.314  11.004
59503SOL    HW280407   1.980   0.166  10.987
59504SOL     OW80408   7.548   6.294  14.323
59504SOL    HW180409   7.506   6.293  14.237
59504SOL    HW280410   7.483   6.254  14.381
59505SOL     OW80411   4.762   0.526   0.641
59505SOL    HW180412   4.753   0.592   0.709
59505SOL    HW280413   4.776   0.444   0.689
59506SOL     OW80414   5.559   5.635  10.711
59506SOL    HW180415   5.481   5.581  10.701
59506SOL    HW280416   5.626   5.575  10.743
59507SOL     OW80417  10.461   8.229  13.267
59507SOL    HW180418  10.475   8.143  13.227
59507SOL    HW280419  10.531   8.284  13.232
59508SOL     OW80420   6.647   3.058  12.083
59508SOL    HW180421   6.692   2.982  12.120
59508SOL    HW280422   6.614   3.106  12.160
59509SOL     OW80423   7.904  13.846   1.260
59509SOL    HW180424   7.913  13.751   1.253
59509SOL    HW280425   7.899  13.877   1.170
59510SOL     OW80426   8.505   6.673  11.622
59510SOL    HW180427   8.424   6.725  11.616
59510SOL    HW280428   8.485   6.593  11.575
59511SOL     OW80429   7.402   3.369  14.811
59511SOL    HW180430   7.442   3.457  14.811
59511SOL    HW280431   7.328   3.376  14.750
59512SOL     OW80432   4.161  11.640   1.792
59512SOL    HW180433   4.084  11.639   1.735
59512SOL    HW280434   4.228  11.593   1.744
59513SOL     OW80435   3.646   3.636  13.665
59513SOL    HW180436   3.559   3.648  13.705
59513SOL    HW280437   3.702   3.697  13.713
59514SOL     OW80438  13.247  11.118   5.931
59514SOL    HW180439  13.268  11.198   5.979
59514SOL    HW280440  13.327  11.066   5.935
59515SOL     OW80441   5.813  11.609   0.509
59515SOL    HW180442   5.893  11.590   0.558
59515SOL    HW280443   5.839  11.608   0.417
59516SOL     OW80444   7.414   1.409   8.835
59516SOL    HW180445   7.336   1.354   8.840
59516SOL    HW280446   7.463   1.390   8.914
59517SOL     OW80447   4.453  10.485   5.717
59517SOL    HW180448   4.538  10.461   5.679
59517SOL    HW280449   4.406  10.402   5.725
59518SOL     OW80450  10.574   3.888   5.687
59518SOL    HW180451  10.537   3.940   5.616
59518SOL    HW280452  10.605   3.952   5.751
59519SOL     OW80453  14.338  14.387  12.275
59519SOL    HW180454  14.428  14.420  12.278
59519SOL    HW280455  14.338  14.322  12.205
59520SOL     OW80456  14.492   5.757   6.989
59520SOL    HW180457  14.477   5.777   6.897
59520SOL    HW280458  14.457   5.832   7.037
59521SOL     OW80459   9.628   8.424   2.427
59521SOL    HW180460   9.624   8.464   2.340
59521SOL    HW280461   9.719   8.435   2.455
59522SOL     OW80462   4.909   5.537  10.965
59522SOL    HW180463   4.816   5.556  10.957
59522SOL    HW280464   4.929   5.552  11.057
59523SOL     OW80465   8.916   1.245  10.164
59523SOL    HW180466   8.861   1.314  10.200
59523SOL    HW280467   8.882   1.231  10.075
59524SOL     OW80468   9.980  11.842   4.544
59524SOL    HW180469   9.908  11.822   4.605
59524SOL    HW280470   9.985  11.765   4.487
59525SOL     OW80471   6.139   1.698   3.196
59525SOL    HW180472   6.163   1.685   3.105
59525SOL    HW280473   6.204   1.649   3.246
59526SOL     OW80474   5.164   0.521   5.387
59526SOL    HW180475   5.207   0.574   5.454
59526SOL    HW280476   5.220   0.529   5.310
59527SOL     OW80477   7.671   1.999  14.426
59527SOL    HW180478   7.748   1.959  14.386
59527SOL    HW280479   7.654   2.077  14.374
59528SOL     OW80480   2.746   7.454  12.568
59528SOL    HW180481   2.692   7.414  12.499
59528SOL    HW280482   2.711   7.418  12.649
59529SOL     OW80483   0.409   8.347  14.115
59529SOL    HW180484   0.329   8.295  14.122
59529SOL    HW280485   0.413   8.396  14.197
59530SOL     OW80486   2.120   6.479   3.385
59530SOL    HW180487   2.071   6.434   3.455
59530SOL    HW280488   2.128   6.413   3.316
59531SOL     OW80489   5.324   9.949   7.173
59531SOL    HW180490   5.247   9.986   7.215
59531SOL    HW280491   5.397   9.976   7.228
59532SOL     OW80492   0.869   9.038  12.671
59532SOL    HW180493   0.845   9.121  12.629
59532SOL    HW280494   0.850   9.052  12.763
59533SOL     OW80495   0.279  14.009   1.447
59533SOL    HW180496   0.359  14.061   1.441
59533SOL    HW280497   0.210  14.074   1.461
59534SOL     OW80498   8.854  12.725   1.610
59534SOL    HW180499   8.888  12.640   1.582
59534SOL    HW280500   8.878  12.785   1.539
59535SOL     OW80501   6.121   1.722  10.921
59535SOL    HW180502   6.079   1.642  10.954
59535SOL    HW280503   6.117   1.783  10.995
59536SOL     OW80504   2.357   6.850   7.007
59536SOL    HW180505   2.312   6.880   6.928
59536SOL    HW280506   2.295   6.869   7.078
59537SOL     OW80507   3.396   2.777   9.969
59537SOL    HW180508   3.462   2.731  10.020
59537SOL    HW280509   3.436   2.862   9.949
59538SOL     OW80510  10.050   6.266   1.373
59538SOL    HW180511  10.114   6.334   1.395
59538SOL    HW280512   9.986   6.311   1.316
59539SOL     OW80513   0.476  10.320   3.142
59539SOL    HW180514   0.433  10.311   3.057
59539SOL    HW280515   0.408  10.299   3.205
59540SOL     OW80516   0.593   5.942  14.220
59540SOL    HW180517   0.604   5.926  14.313
59540SOL    HW280518   0.644   6.021  14.203
59541SOL     OW80519   1.036  11.788   5.291
59541SOL    HW180520   1.023  11.872   5.334
59541SOL    HW280521   1.130  11.771   5.300
59542SOL     OW80522  14.725  14.618  13.261
59542SOL    HW180523  14.771  14.565  13.196
59542SOL    HW280524  14.639  14.576  13.269
59543SOL     OW80525   6.028  11.825   0.721
59543SOL    HW180526   5.991  11.896   0.667
59543SOL    HW280527   6.115  11.855   0.744
59544SOL     OW80528   7.032   3.675   1.436
59544SOL    HW180529   7.074   3.629   1.508
59544SOL    HW280530   7.091   3.661   1.361
59545SOL     OW80531  12.654   1.036   4.769
59545SOL    HW180532  12.662   0.972   4.839
59545SOL    HW280533  12.651   0.984   4.689
59546SOL     OW80534   0.241   9.637  14.242
59546SOL    HW180535   0.196   9.647  14.158
59546SOL    HW280536   0.237   9.543  14.260
59547SOL     OW80537  10.180  10.154  14.854
59547SOL    HW180538  10.192  10.122  14.764
59547SOL    HW280539  10.261  10.201  14.874
59548SOL     OW80540   5.402   2.046  12.586
59548SOL    HW180541   5.463   2.099  12.637
59548SOL    HW280542   5.318   2.059  12.628
59549SOL     OW80543   5.177   0.361  14.229
59549SOL    HW180544   5.257   0.410  14.249
59549SOL    HW280545   5.192   0.275  14.268
59550SOL     OW80546   5.301   0.591   9.926
59550SOL    HW180547   5.341   0.527   9.984
59550SOL    HW280548   5.310   0.675   9.971
59551SOL     OW80549  12.774   7.086   1.478
59551SOL    HW180550  12.732   7.136   1.408
59551SOL    HW280551  12.707   7.079   1.546
59552SOL     OW80552   7.814   1.868  10.346
59552SOL    HW180553   7.768   1.883  10.263
59552SOL    HW280554   7.834   1.956  10.379
59553SOL     OW80555  10.228   0.044  13.106
59553SOL    HW180556  10.320   0.046  13.081
59553SOL    HW280557  10.192  14.848  13.060
59554SOL     OW80558   1.054   4.073  13.653
59554SOL    HW180559   1.027   4.139  13.716
59554SOL    HW280560   0.973   4.049  13.608
59555SOL     OW80561   5.910   4.497   8.198
59555SOL    HW180562   5.840   4.547   8.240
59555SOL    HW280563   5.970   4.475   8.270
59556SOL     OW80564  14.686  14.791   8.612
59556SOL    HW180565  14.756  14.854   8.596
59556SOL    HW280566  14.670  14.751   8.526
59557SOL     OW80567   6.094   1.796  12.378
59557SOL    HW180568   6.044   1.861  12.427
59557SOL    HW280569   6.185   1.813  12.402
59558SOL     OW80570   2.794  13.039   6.415
59558SOL    HW180571   2.884  13.061   6.393
59558SOL    HW280572   2.752  13.124   6.434
59559SOL     OW80573  11.348  13.356   3.017
59559SOL    HW180574  11.321  13.264   3.009
59559SOL    HW280575  11.431  13.353   3.063
59560SOL     OW80576   0.793   8.087   9.915
59560SOL    HW180577   0.820   8.085  10.007
59560SOL    HW280578   0.869   8.123   9.868
59561SOL     OW80579   4.116  14.607   2.328
59561SOL    HW180580   4.199  14.602   2.375
59561SOL    HW280581   4.100  14.518   2.297
59562SOL     OW80582   5.109   8.053   1.786
59562SOL    HW180583   5.163   7.975   1.802
59562SOL    HW280584   5.159   8.105   1.724
59563SOL     OW80585  11.723   3.232   9.716
59563SOL    HW180586  11.752   3.166   9.653
59563SOL    HW280587  11.662   3.186   9.773
59564SOL     OW80588  10.794  11.438   2.296
59564SOL    HW180589  10.762  11.382   2.225
59564SOL    HW280590  10.772  11.527   2.268
59565SOL     OW80591   1.721   2.891   7.580
59565SOL    HW180592   1.629   2.876   7.560
59565SOL    HW280593   1.731   2.864   7.672
59566SOL     OW80594   0.939   1.235  11.491
59566SOL    HW180595   0.962   1.155  11.445
59566SOL    HW280596   0.844   1.239  11.487
59567SOL     OW80597  13.772   3.231   4.744
59567SOL    HW180598  13.771   3.236   4.840
59567SOL    HW280599  13.746   3.142   4.725
59568SOL     OW80600   0.384   3.662   7.685
59568SOL    HW180601   0.409   3.583   7.733
59568SOL    HW280602   0.291   3.652   7.668
59569SOL     OW80603  10.723   6.455  12.852
59569SOL    HW180604  10.780   6.378  12.864
59569SOL    HW280605  10.771   6.527  12.893
59570SOL     OW80606   9.627  12.344   6.712
59570SOL    HW180607   9.542  12.383   6.695
59570SOL    HW280608   9.690  12.414   6.693
59571SOL     OW80609   7.051  11.752   2.319
59571SOL    HW180610   6.994  11.686   2.280
59571SOL    HW280611   7.024  11.755   2.411
59572SOL     OW80612   8.870  13.844   2.695
59572SOL    HW180613   8.957  13.848   2.657
59572SOL    HW280614   8.839  13.934   2.696
59573SOL     OW80615  14.723   4.172   5.713
59573SOL    HW180616  14.750   4.155   5.803
59573SOL    HW280617  14.663   4.101   5.691
59574SOL     OW80618  13.844   3.917  10.559
59574SOL    HW180619  13.846   3.995  10.615
59574SOL    HW280620  13.754   3.912  10.528
59575SOL     OW80621   9.712   7.115  11.004
59575SOL    HW180622   9.637   7.100  11.062
59575SOL    HW280623   9.746   7.201  11.030
59576SOL     OW80624   1.926   6.179   4.446
59576SOL    HW180625   1.948   6.101   4.497
59576SOL    HW280626   1.990   6.244   4.474
59577SOL     OW80627  14.412   0.750   8.778
59577SOL    HW180628  14.420   0.785   8.689
59577SOL    HW280629  14.408   0.655   8.766
59578SOL     OW80630  12.540   0.612  14.055
59578SOL    HW180631  12.572   0.697  14.085
59578SOL    HW280632  12.446   0.614  14.072
59579SOL     OW80633   0.867  10.572   0.663
59579SOL    HW180634   0.872  10.477   0.674
59579SOL    HW280635   0.914  10.607   0.738
59580SOL     OW80636   6.739   1.195   9.358
59580SOL    HW180637   6.705   1.282   9.335
59580SOL    HW280638   6.762   1.202   9.450
59581SOL     OW80639  11.695  14.308   9.460
59581SOL    HW180640  11.640  14.248   9.410
59581SOL    HW280641  11.695  14.389   9.410
59582SOL     OW80642   3.872   9.257  11.857
59582SOL    HW180643   3.905   9.224  11.774
59582SOL    HW280644   3.936   9.227  11.922
59583SOL     OW80645  10.393   9.948  14.466
59583SOL    HW180646  10.410   9.996  14.384
59583SOL    HW280647  10.331  10.004  14.513
59584SOL     OW80648   3.767   2.138   7.261
59584SOL    HW180649   3.693   2.195   7.240
59584SOL    HW280650   3.727   2.052   7.274
59585SOL     OW80651  10.021   8.822   5.683
59585SOL    HW180652   9.965   8.811   5.760
59585SOL    HW280653  10.030   8.917   5.673
59586SOL     OW80654   7.176   3.980   7.224
59586SOL    HW180655   7.114   4.049   7.200
59586SOL    HW280656   7.155   3.908   7.165
59587SOL     OW80657   4.614   3.835  10.600
59587SOL    HW180658   4.681   3.897  10.626
59587SOL    HW280659   4.643   3.802  10.515
59588SOL     OW80660   1.726   7.295   9.673
59588SOL    HW180661   1.777   7.218   9.699
59588SOL    HW280662   1.759   7.318   9.586
59589SOL     OW80663   6.839   2.962   9.151
59589SOL    HW180664   6.811   2.971   9.242
59589SOL    HW280665   6.793   3.033   9.104
59590SOL     OW80666   7.842   8.243   5.455
59590SOL    HW180667   7.764   8.297   5.461
59590SOL    HW280668   7.899   8.275   5.526
59591SOL     OW80669  13.074  11.165   3.699
59591SOL    HW180670  13.095  11.221   3.774
59591SOL    HW280671  12.980  11.147   3.707
59592SOL     OW80672  10.360  13.494   8.971
59592SOL    HW180673  10.358  13.585   8.943
59592SOL    HW280674  10.452  13.468   8.964
59593SOL     OW80675   7.259  11.742   0.404
59593SOL    HW180676   7.334  11.692   0.373
59593SOL    HW280677   7.271  11.830   0.369
59594SOL     OW80678   0.807  12.699  12.011
59594SOL    HW180679   0.745  12.729  11.945
59594SOL    HW280680   0.788  12.606  12.021
59595SOL     OW80681   4.650   9.943   1.061
59595SOL    HW180682   4.647  10.022   1.114
59595SOL    HW280683   4.705   9.966   0.987
59596SOL     OW80684   9.007   0.060  13.478
59596SOL    HW180685   9.026   0.147  13.513
59596SOL    HW280686   9.093   0.018  13.472
59597SOL     OW80687  12.297   6.364  14.180
59597SOL    HW180688  12.299   6.455  14.209
59597SOL    HW280689  12.310   6.369  14.085
59598SOL     OW80690  14.299   5.443   1.538
59598SOL    HW180691  14.232   5.472   1.599
59598SOL    HW280692  14.280   5.350   1.524
59599SOL     OW80693   4.338  10.005   4.075
59599SOL    HW180694   4.337   9.998   3.980
59599SOL    HW280695   4.426  10.036   4.096
59600SOL     OW80696   5.311   9.359   9.090
59600SOL    HW180697   5.311   9.271   9.128
59600SOL    HW280698   5.351   9.347   9.003
59601SOL     OW80699   9.170   4.047   0.501
59601SOL    HW180700   9.105   4.075   0.566
59601SOL    HW280701   9.182   4.123   0.445
59602SOL     OW80702  12.555   7.075   7.571
59602SOL    HW180703  12.536   6.993   7.616
59602SOL    HW280704  12.635   7.107   7.613
59603SOL     OW80705  13.885   9.869   8.534
59603SOL    HW180706  13.865   9.904   8.448
59603SOL    HW280707  13.906   9.777   8.518
59604SOL     OW80708   3.819   2.733   5.325
59604SOL    HW180709   3.753   2.724   5.256
59604SOL    HW280710   3.771   2.718   5.406
59605SOL     OW80711  13.936   5.895  11.837
59605SOL    HW180712  13.857   5.846  11.861
59605SOL    HW280713  13.904   5.966  11.782
59606SOL     OW80714  10.556  12.541   9.879
59606SOL    HW180715  10.608  12.619   9.861
59606SOL    HW280716  10.491  12.569   9.942
59607SOL     OW80717  11.817   6.269   6.248
59607SOL    HW180718  11.806   6.178   6.274
59607SOL    HW280719  11.848   6.264   6.157
59608SOL     OW80720   2.818  10.621   8.451
59608SOL    HW180721   2.829  10.711   8.422
59608SOL    HW280722   2.727  10.615   8.478
59609SOL     OW80723   8.989  12.696  11.507
59609SOL    HW180724   8.959  12.781  11.539
59609SOL    HW280725   8.926  12.634  11.543
59610SOL     OW80726   2.681   5.690   4.894
59610SOL    HW180727   2.661   5.616   4.836
59610SOL    HW280728   2.620   5.759   4.867
59611SOL     OW80729   3.369  14.648   0.524
59611SOL    HW180730   3.380  14.653   0.619
59611SOL    HW280731   3.445  14.694   0.489
59612SOL     OW80732   2.399  13.153   9.855
59612SOL    HW180733   2.413  13.161   9.950
59612SOL    HW280734   2.475  13.104   9.824
59613SOL     OW80735   2.280   3.558  12.016
59613SOL    HW180736   2.300   3.611  11.940
59613SOL    HW280737   2.310   3.610  12.091
59614SOL     OW80738   0.243  11.344   9.638
59614SOL    HW180739   0.152  11.320   9.658
59614SOL    HW280740   0.294  11.267   9.662
59615SOL     OW80741   4.488  10.178   6.707
59615SOL    HW180742   4.444  10.182   6.622
59615SOL    HW280743   4.424  10.213   6.769
59616SOL     OW80744   0.128   9.364   4.739
59616SOL    HW180745   0.150   9.369   4.646
59616SOL    HW280746   0.083   9.281   4.750
59617SOL     OW80747   1.676   4.643   0.698
59617SOL    HW180748   1.615   4.569   0.698
59617SOL    HW280749   1.700   4.654   0.790
59618SOL     OW80750  14.866   0.113  10.498
59618SOL    HW180751   0.057   0.050  10.504
59618SOL    HW280752   0.029   0.199  10.502
59619SOL     OW80753   6.695   5.036  14.315
59619SOL    HW180754   6.740   5.055  14.397
59619SOL    HW280755   6.766   5.011  14.255
59620SOL     OW80756  14.038   1.271   4.627
59620SOL    HW180757  14.120   1.245   4.668
59620SOL    HW280758  14.004   1.341   4.683
59621SOL     OW80759   8.029   8.357   8.789
59621SOL    HW180760   8.120   8.387   8.783
59621SOL    HW280761   8.014   8.344   8.882
59622SOL     OW80762   1.434  11.086   1.231
59622SOL    HW180763   1.449  11.142   1.154
59622SOL    HW280764   1.350  11.044   1.213
59623SOL     OW80765  12.859  14.557   3.122
59623SOL    HW180766  12.910  14.634   3.148
59623SOL    HW280767  12.818  14.526   3.202
59624SOL     OW80768  12.161   2.763   4.543
59624SOL    HW180769  12.166   2.854   4.574
59624SOL    HW280770  12.191   2.711   4.617
59625SOL     OW80771   0.413  11.802  12.875
59625SOL    HW180772   0.402  11.797  12.780
59625SOL    HW280773   0.502  11.834  12.887
59626SOL     OW80774  14.564   7.445  10.593
59626SOL    HW180775  14.471   7.450  10.615
59626SOL    HW280776  14.597   7.534  10.607
59627SOL     OW80777   5.667   9.414   0.435
59627SOL    HW180778   5.728   9.394   0.505
59627SOL    HW280779   5.591   9.359   0.452
59628SOL     OW80780  12.004  10.721   5.547
59628SOL    HW180781  12.067  10.684   5.610
59628SOL    HW280782  12.057  10.774   5.488
59629SOL     OW80783   9.434   3.822  10.796
59629SOL    HW180784   9.525   3.794  10.813
59629SOL    HW280785   9.394   3.826  10.883
59630SOL     OW80786   5.654   1.710  14.603
59630SOL    HW180787   5.687   1.652  14.672
59630SOL    HW280788   5.588   1.657  14.558
59631SOL     OW80789   6.652   0.493  10.081
59631SOL    HW180790   6.564   0.524  10.100
59631SOL    HW280791   6.642   0.399  10.065
59632SOL     OW80792   2.434  10.489  13.265
59632SOL    HW180793   2.417  10.396  13.250
59632SOL    HW280794   2.391  10.508  13.348
59633SOL     OW80795   7.534  11.810  12.414
59633SOL    HW180796   7.456  11.853  12.378
59633SOL    HW280797   7.531  11.832  12.508
59634SOL     OW80798   9.628  10.867   1.598
59634SOL    HW180799   9.634  10.885   1.504
59634SOL    HW280800   9.561  10.927   1.630
59635SOL     OW80801   2.138   3.295   0.813
59635SOL    HW180802   2.103   3.322   0.898
59635SOL    HW280803   2.084   3.342   0.749
59636SOL     OW80804  12.908   1.042  13.947
59636SOL    HW180805  12.856   1.095  14.008
59636SOL    HW280806  12.862   0.958  13.944
59637SOL     OW80807   7.124   0.544   4.271
59637SOL    HW180808   7.205   0.546   4.221
59637SOL    HW280809   7.057   0.571   4.209
59638SOL     OW80810   4.312   7.054  12.383
59638SOL    HW180811   4.362   7.016  12.456
59638SOL    HW280812   4.366   7.037  12.306
59639SOL     OW80813   9.166   7.808   8.386
59639SOL    HW180814   9.101   7.742   8.362
59639SOL    HW280815   9.251   7.767   8.365
59640SOL     OW80816   6.392  10.826  11.437
59640SOL    HW180817   6.345  10.809  11.519
59640SOL    HW280818   6.443  10.747  11.421
59641SOL     OW80819  11.296   4.581   5.002
59641SOL    HW180820  11.373   4.626   5.037
59641SOL    HW280821  11.277   4.513   5.066
59642SOL     OW80822   2.468  11.965  10.711
59642SOL    HW180823   2.456  12.045  10.761
59642SOL    HW280824   2.537  11.986  10.648
59643SOL     OW80825   2.646  13.692  14.328
59643SOL    HW180826   2.615  13.704  14.238
59643SOL    HW280827   2.568  13.670  14.378
59644SOL     OW80828   3.199  12.043  12.488
59644SOL    HW180829   3.184  11.983  12.415
59644SOL    HW280830   3.120  12.034  12.542
59645SOL     OW80831   3.723   9.972   3.546
59645SOL    HW180832   3.743   9.987   3.638
59645SOL    HW280833   3.628   9.982   3.539
59646SOL     OW80834   1.069   3.893   1.462
59646SOL    HW180835   1.075   3.982   1.497
59646SOL    HW280836   1.007   3.849   1.520
59647SOL     OW80837   9.360   1.977   0.077
59647SOL    HW180838   9.380   1.999   0.168
59647SOL    HW280839   9.405   2.044   0.026
59648SOL     OW80840   7.121   8.080   9.288
59648SOL    HW180841   7.054   8.064   9.221
59648SOL    HW280842   7.166   8.159   9.260
59649SOL     OW80843   6.162   9.207   9.702
59649SOL    HW180844   6.181   9.175   9.614
59649SOL    HW280845   6.242   9.189   9.752
59650SOL     OW80846  10.780  14.725   3.896
59650SOL    HW180847  10.692  14.757   3.917
59650SOL    HW280848  10.807  14.676   3.973
59651SOL     OW80849   1.930   1.635   9.049
59651SOL    HW180850   1.954   1.725   9.027
59651SOL    HW280851   2.006   1.600   9.096
59652SOL     OW80852   0.144  14.005   8.723
59652SOL    HW180853   0.116  14.094   8.742
59652SOL    HW280854   0.062  13.957   8.710
59653SOL     OW80855  14.047   7.560  12.885
59653SOL    HW180856  14.074   7.515  12.965
59653SOL    HW280857  14.124   7.559  12.829
59654SOL     OW80858   1.864   1.346   5.350
59654SOL    HW180859   1.944   1.326   5.399
59654SOL    HW280860   1.868   1.289   5.273
59655SOL     OW80861   2.628   9.155   1.125
59655SOL    HW180862   2.643   9.075   1.075
59655SOL    HW280863   2.650   9.131   1.215
59656SOL     OW80864   3.502  14.368   0.035
59656SOL    HW180865   3.452  14.287   0.024
59656SOL    HW280866   3.457  14.414   0.106
59657SOL     OW80867   0.126   2.204   6.414
59657SOL    HW180868   0.170   2.285   6.439
59657SOL    HW280869   0.107   2.215   6.321
59658SOL     OW80870  10.927  12.847  14.215
59658SOL    HW180871  10.891  12.771  14.168
59658SOL    HW280872  11.016  12.819  14.238
59659SOL     OW80873  11.391   2.234   4.310
59659SOL    HW180874  11.395   2.158   4.368
59659SOL    HW280875  11.478   2.238   4.269
59660SOL     OW80876   5.447  11.252   5.827
59660SOL    HW180877   5.491  11.288   5.904
59660SOL    HW280878   5.500  11.283   5.753
59661SOL     OW80879  12.425   1.283  12.289
59661SOL    HW180880  12.454   1.349  12.353
59661SOL    HW280881  12.466   1.309  12.207
59662SOL     OW80882  14.427   8.459   1.542
59662SOL    HW180883  14.451   8.367   1.526
59662SOL    HW280884  14.510   8.502   1.561
59663SOL     OW80885   9.846   9.629   0.894
59663SOL    HW180886   9.859   9.535   0.902
59663SOL    HW280887   9.853   9.646   0.800
59664SOL     OW80888   1.387   6.246   4.833
59664SOL    HW180889   1.458   6.222   4.773
59664SOL    HW280890   1.418   6.325   4.876
59665SOL     OW80891   1.990   3.930   9.952
59665SOL    HW180892   2.043   4.006   9.929
59665SOL    HW280893   2.014   3.863   9.889
59666SOL     OW80894   3.688  13.222   9.949
59666SOL    HW180895   3.594  13.235   9.934
59666SOL    HW280896   3.702  13.252  10.038
59667SOL     OW80897  14.557   1.447   8.663
59667SOL    HW180898  14.529   1.447   8.571
59667SOL    HW280899  14.553   1.355   8.688
59668SOL     OW80900  14.129   0.505   5.821
59668SOL    HW180901  14.169   0.443   5.760
59668SOL    HW280902  14.057   0.456   5.861
59669SOL     OW80903   1.902  13.124   7.037
59669SOL    HW180904   1.854  13.184   7.094
59669SOL    HW280905   1.836  13.088   6.978
59670SOL     OW80906  13.736   2.757  14.517
59670SOL    HW180907  13.688   2.720  14.591
59670SOL    HW280908  13.817   2.707  14.512
59671SOL     OW80909   4.273  14.617   7.285
59671SOL    HW180910   4.290  14.646   7.375
59671SOL    HW280911   4.329  14.674   7.232
59672SOL     OW80912  12.228   4.255   4.272
59672SOL    HW180913  12.134   4.268   4.271
59672SOL    HW280914  12.241   4.177   4.326
59673SOL     OW80915   6.168   8.795  12.237
59673SOL    HW180916   6.236   8.788  12.170
59673SOL    HW280917   6.087   8.809  12.187
59674SOL     OW80918  14.627   9.963   3.228
59674SOL    HW180919  14.698   9.984   3.168
59674SOL    HW280920  14.658   9.992   3.314
59675SOL     OW80921   9.286   6.309   9.126
59675SOL    HW180922   9.250   6.376   9.068
59675SOL    HW280923   9.235   6.316   9.206
59676SOL     OW80924   8.240  10.506   9.811
59676SOL    HW180925   8.190  10.434   9.849
59676SOL    HW280926   8.175  10.572   9.788
59677SOL     OW80927  10.190  13.379   0.564
59677SOL    HW180928  10.154  13.467   0.574
59677SOL    HW280929  10.236  13.362   0.646
59678SOL     OW80930   9.598  10.475  10.060
59678SOL    HW180931   9.522  10.417  10.062
59678SOL    HW280932   9.665  10.429  10.109
59679SOL     OW80933   2.889  10.916  12.067
59679SOL    HW180934   2.842  10.870  12.136
59679SOL    HW280935   2.834  10.906  11.989
59680SOL     OW80936   2.233  13.023   3.784
59680SOL    HW180937   2.147  12.988   3.803
59680SOL    HW280938   2.293  12.952   3.805
59681SOL     OW80939  11.989   2.429   0.530
59681SOL    HW180940  11.894   2.425   0.517
59681SOL    HW280941  12.016   2.509   0.483
59682SOL     OW80942   8.763   6.011   2.145
59682SOL    HW180943   8.710   6.082   2.109
59682SOL    HW280944   8.841   6.055   2.178
59683SOL     OW80945   3.716  11.350  14.464
59683SOL    HW180946   3.677  11.306  14.539
59683SOL    HW280947   3.667  11.317  14.388
59684SOL     OW80948   7.924  14.265   0.512
59684SOL    HW180949   7.832  14.290   0.525
59684SOL    HW280950   7.966  14.289   0.595
59685SOL     OW80951   5.830   7.323   9.126
59685SOL    HW180952   5.896   7.343   9.193
59685SOL    HW280953   5.756   7.289   9.175
59686SOL     OW80954  13.040   2.706  10.188
59686SOL    HW180955  13.130   2.715  10.154
59686SOL    HW280956  12.984   2.723  10.112
59687SOL     OW80957   3.930  10.102   2.520
59687SOL    HW180958   3.858  10.061   2.569
59687SOL    HW280959   3.990  10.031   2.500
59688SOL     OW80960  13.330  14.495   4.779
59688SOL    HW180961  13.330  14.493   4.875
59688SOL    HW280962  13.413  14.455   4.754
59689SOL     OW80963   2.203   8.073   5.466
59689SOL    HW180964   2.234   8.060   5.555
59689SOL    HW280965   2.198   8.168   5.456
59690SOL     OW80966   8.828   7.545   5.154
59690SOL    HW180967   8.887   7.538   5.229
59690SOL    HW280968   8.826   7.639   5.135
59691SOL     OW80969   5.604   9.595   5.229
59691SOL    HW180970   5.536   9.662   5.221
59691SOL    HW280971   5.556   9.515   5.251
59692SOL     OW80972  11.716   6.574  11.086
59692SOL    HW180973  11.776   6.508  11.052
59692SOL    HW280974  11.740   6.654  11.039
59693SOL     OW80975   9.427   3.087  10.708
59693SOL    HW180976   9.403   3.017  10.769
59693SOL    HW280977   9.445   3.041  10.626
59694SOL     OW80978   1.354   0.141  10.290
59694SOL    HW180979   1.283   0.190  10.249
59694SOL    HW280980   1.416   0.208  10.320
59695SOL     OW80981   8.239   7.346   2.347
59695SOL    HW180982   8.144   7.357   2.341
59695SOL    HW280983   8.258   7.356   2.440
59696SOL     OW80984  13.067   4.463   1.675
59696SOL    HW180985  12.998   4.419   1.725
59696SOL    HW280986  13.042   4.449   1.583
59697SOL     OW80987   0.077   5.333   4.989
59697SOL    HW180988   0.101   5.417   5.027
59697SOL    HW280989   0.038   5.355   4.905
59698SOL     OW80990   3.594  11.109   4.010
59698SOL    HW180991   3.578  11.164   4.087
59698SOL    HW280992   3.571  11.166   3.936
59699SOL     OW80993  13.655  10.341   4.710
59699SOL    HW180994  13.714  10.384   4.649
59699SOL    HW280995  13.703  10.263   4.739
59700SOL     OW80996  10.286  12.627   5.782
59700SOL    HW180997  10.313  12.579   5.704
59700SOL    HW280998  10.363  12.626   5.839
59701SOL     OW80999  12.365  14.223   0.825
59701SOL    HW181000  12.378  14.129   0.837
59701SOL    HW281001  12.316  14.251   0.902
59702SOL     OW81002   0.023   9.605   4.396
59702SOL    HW181003  14.818   9.603   4.439
59702SOL    HW281004   0.069   9.527   4.428
59703SOL     OW81005  10.591   2.442   6.470
59703SOL    HW181006  10.524   2.456   6.403
59703SOL    HW281007  10.605   2.529   6.508
59704SOL     OW81008   8.892   4.472   6.717
59704SOL    HW181009   8.983   4.444   6.729
59704SOL    HW281010   8.872   4.522   6.797
59705SOL     OW81011   5.625  13.052  10.709
59705SOL    HW181012   5.579  12.975  10.743
59705SOL    HW281013   5.700  13.063  10.768
59706SOL     OW81014   1.903   4.827  12.615
59706SOL    HW181015   1.903   4.805  12.708
59706SOL    HW281016   1.811   4.833  12.592
59707SOL     OW81017  14.077  10.934  14.778
59707SOL    HW181018  14.019  10.903  14.709
59707SOL    HW281019  14.151  10.873  14.778
59708SOL     OW81020   8.333   9.533   1.144
59708SOL    HW181021   8.296   9.460   1.095
59708SOL    HW281022   8.281   9.537   1.224
59709SOL     OW81023   2.582   9.230  14.210
59709SOL    HW181024   2.583   9.168  14.282
59709SOL    HW281025   2.671   9.227  14.174
59710SOL     OW81026   7.078  12.732   5.886
59710SOL    HW181027   7.160  12.687   5.866
59710SOL    HW281028   7.088  12.819   5.846
59711SOL     OW81029  12.864   0.805  14.256
59711SOL    HW181030  12.854   0.762  14.341
59711SOL    HW281031  12.775   0.819  14.225
59712SOL     OW81032   5.814  11.222   3.386
59712SOL    HW181033   5.784  11.311   3.369
59712SOL    HW281034   5.896  11.215   3.337
59713SOL     OW81035   9.037   6.827  13.330
59713SOL    HW181036   8.956   6.872  13.308
59713SOL    HW281037   9.089   6.892  13.378
59714SOL     OW81038   9.742   6.465   1.828
59714SOL    HW181039   9.771   6.543   1.781
59714SOL    HW281040   9.663   6.437   1.781
59715SOL     OW81041   7.727   7.014   3.230
59715SOL    HW181042   7.794   7.077   3.202
59715SOL    HW281043   7.652   7.034   3.173
59716SOL     OW81044   5.985   9.365   9.075
59716SOL    HW181045   5.894   9.339   9.092
59716SOL    HW281046   6.032   9.340   9.154
59717SOL     OW81047   6.658  10.536   1.192
59717SOL    HW181048   6.564  10.550   1.195
59717SOL    HW281049   6.670  10.445   1.222
59718SOL     OW81050  14.024   4.939   0.159
59718SOL    HW181051  14.043   4.912   0.249
59718SOL    HW281052  14.005   5.033   0.166
59719SOL     OW81053  10.659   7.262   5.882
59719SOL    HW181054  10.579   7.241   5.833
59719SOL    HW281055  10.650   7.355   5.903
59720SOL     OW81056   2.623   5.601   0.608
59720SOL    HW181057   2.536   5.638   0.598
59720SOL    HW281058   2.608   5.506   0.611
59721SOL     OW81059   4.698   9.259   1.815
59721SOL    HW181060   4.612   9.218   1.805
59721SOL    HW281061   4.755   9.189   1.846
59722SOL     OW81062   4.749  11.225   2.749
59722SOL    HW181063   4.826  11.169   2.750
59722SOL    HW281064   4.677  11.168   2.723
59723SOL     OW81065   0.432   9.505   0.817
59723SOL    HW181066   0.358   9.470   0.866
59723SOL    HW281067   0.416   9.599   0.814
59724SOL     OW81068  14.211  11.558   8.378
59724SOL    HW181069  14.165  11.480   8.410
59724SOL    HW281070  14.255  11.529   8.298
59725SOL     OW81071   1.290  11.977   7.439
59725SOL    HW181072   1.224  11.919   7.478
59725SOL    HW281073   1.374  11.940   7.467
59726SOL     OW81074   7.884  10.519  11.379
59726SOL    HW181075   7.862  10.557  11.463
59726SOL    HW281076   7.978  10.532  11.369
59727SOL     OW81077  12.007   6.729   2.222
59727SOL    HW181078  11.929   6.782   2.202
59727SOL    HW281079  12.055   6.724   2.139
59728SOL     OW81080   9.444  13.779   2.149
59728SOL    HW181081   9.447  13.864   2.105
59728SOL    HW281082   9.514  13.785   2.215
59729SOL     OW81083   4.838   1.632   0.308
59729SOL    HW181084   4.933   1.621   0.306
59729SOL    HW281085   4.812   1.602   0.395
59730SOL     OW81086   7.470   2.960   0.843
59730SOL    HW181087   7.429   2.897   0.902
59730SOL    HW281088   7.531   3.008   0.899
59731SOL     OW81089   8.897  13.691  10.364
59731SOL    HW181090   8.927  13.695  10.455
59731SOL    HW281091   8.813  13.646  10.368
59732SOL     OW81092   7.396  12.242  12.118
59732SOL    HW181093   7.419  12.334  12.111
59732SOL    HW281094   7.452  12.198  12.054
59733SOL     OW81095  10.580   2.509   0.086
59733SOL    HW181096  10.515   2.466   0.141
59733SOL    HW281097  10.664   2.485   0.125
59734SOL     OW81098   6.627  11.480  10.209
59734SOL    HW181099   6.554  11.539  10.190
59734SOL    HW281100   6.700  11.538  10.230
59735SOL     OW81101   0.758   6.080  13.452
59735SOL    HW181102   0.726   6.105  13.365
59735SOL    HW281103   0.815   6.005  13.436
59736SOL     OW81104   8.152  14.002  13.555
59736SOL    HW181105   8.195  14.085  13.574
59736SOL    HW281106   8.221  13.936  13.566
59737SOL     OW81107   2.670  12.122   2.819
59737SOL    HW181108   2.680  12.211   2.853
59737SOL    HW281109   2.707  12.125   2.731
59738SOL     OW81110   0.529  10.893   0.958
59738SOL    HW181111   0.462  10.857   0.900
59738SOL    HW281112   0.482  10.916   1.038
59739SOL     OW81113   7.071   4.449   6.447
59739SOL    HW181114   7.133   4.512   6.409
59739SOL    HW281115   7.106   4.431   6.534
59740SOL     OW81116  13.124   3.199   1.989
59740SOL    HW181117  13.046   3.147   1.972
59740SOL    HW281118  13.091   3.287   2.004
59741SOL     OW81119   0.046   3.901  13.423
59741SOL    HW181120   0.112   3.968  13.441
59741SOL    HW281121   0.089   3.840  13.363
59742SOL     OW81122  10.916   0.955   6.576
59742SOL    HW181123  10.862   0.969   6.499
59742SOL    HW281124  10.901   1.032   6.631
59743SOL     OW81125  13.964   4.045   8.789
59743SOL    HW181126  13.919   4.081   8.865
59743SOL    HW281127  13.966   4.118   8.726
59744SOL     OW81128  10.133  14.676   9.021
59744SOL    HW181129  10.154  14.611   9.088
59744SOL    HW281130  10.064  14.730   9.059
59745SOL     OW81131   2.271   4.647   5.538
59745SOL    HW181132   2.356   4.679   5.569
59745SOL    HW281133   2.249   4.576   5.597
59746SOL     OW81134   7.551   7.887   6.689
59746SOL    HW181135   7.508   7.835   6.757
59746SOL    HW281136   7.501   7.869   6.610
59747SOL     OW81137  11.822   3.792  14.398
59747SOL    HW181138  11.782   3.713  14.435
59747SOL    HW281139  11.847   3.767  14.309
59748SOL     OW81140   3.449  11.744   5.824
59748SOL    HW181141   3.525  11.736   5.881
59748SOL    HW281142   3.471  11.690   5.748
59749SOL     OW81143  10.300   3.235  10.080
59749SOL    HW181144  10.216   3.204  10.045
59749SOL    HW281145  10.283   3.251  10.173
59750SOL     OW81146   9.933  12.494  13.991
59750SOL    HW181147   9.898  12.531  13.910
59750SOL    HW281148   9.912  12.559  14.058
59751SOL     OW81149   1.054   5.230   9.536
59751SOL    HW181150   1.062   5.135   9.537
59751SOL    HW281151   1.144   5.262   9.545
59752SOL     OW81152  10.330  12.850  11.446
59752SOL    HW181153  10.245  12.873  11.482
59752SOL    HW281154  10.326  12.755  11.436
59753SOL     OW81155   1.267   0.361   1.534
59753SOL    HW181156   1.209   0.436   1.528
59753SOL    HW281157   1.218   0.289   1.494
59754SOL     OW81158   0.228   3.656  12.537
59754SOL    HW181159   0.247   3.591  12.469
59754SOL    HW281160   0.271   3.736  12.507
59755SOL     OW81161   3.044   1.226   9.162
59755SOL    HW181162   3.040   1.257   9.071
59755SOL    HW281163   3.095   1.292   9.208
59756SOL     OW81164   9.064   7.401   5.348
59756SOL    HW181165   9.154   7.415   5.318
59756SOL    HW281166   9.032   7.330   5.293
59757SOL     OW81167   6.050  14.681   2.338
59757SOL    HW181168   5.989  14.608   2.325
59757SOL    HW281169   6.121  14.664   2.276
59758SOL     OW81170  12.350   4.519   1.440
59758SOL    HW181171  12.265   4.480   1.461
59758SOL    HW281172  12.390   4.537   1.525
59759SOL     OW81173   9.848  11.050  10.834
59759SOL    HW181174   9.787  11.012  10.897
59759SOL    HW281175   9.834  11.000  10.753
59760SOL     OW81176  13.514   2.184  14.407
59760SOL    HW181177  13.488   2.168  14.498
59760SOL    HW281178  13.513   2.098  14.367
59761SOL     OW81179   2.345   1.017   1.730
59761SOL    HW181180   2.415   1.016   1.795
59761SOL    HW281181   2.294   1.095   1.750
59762SOL     OW81182   9.799  12.628  12.662
59762SOL    HW181183   9.749  12.557  12.702
59762SOL    HW281184   9.768  12.707  12.706
59763SOL     OW81185  12.567  10.740   2.802
59763SOL    HW181186  12.661  10.756   2.787
59763SOL    HW281187  12.537  10.820   2.845
59764SOL     OW81188   4.788   0.209  13.169
59764SOL    HW181189   4.741   0.127  13.153
59764SOL    HW281190   4.837   0.193  13.250
59765SOL     OW81191  12.440  12.560  11.916
59765SOL    HW181192  12.500  12.509  11.972
59765SOL    HW281193  12.497  12.623  11.872
59766SOL     OW81194  13.196  12.132  12.590
59766SOL    HW181195  13.172  12.187  12.665
59766SOL    HW281196  13.119  12.134  12.533
59767SOL     OW81197  13.498  13.599   9.820
59767SOL    HW181198  13.526  13.685   9.851
59767SOL    HW281199  13.565  13.539   9.853
59768SOL     OW81200   3.903   2.919   6.481
59768SOL    HW181201   3.826   2.896   6.532
59768SOL    HW281202   3.946   2.988   6.532
59769SOL     OW81203   3.615  13.732   3.744
59769SOL    HW181204   3.560  13.712   3.820
59769SOL    HW281205   3.691  13.674   3.754
59770SOL     OW81206  11.798  10.843   9.054
59770SOL    HW181207  11.865  10.781   9.026
59770SOL    HW281208  11.744  10.857   8.976
59771SOL     OW81209   4.263   1.012   7.245
59771SOL    HW181210   4.169   1.014   7.260
59771SOL    HW281211   4.289   0.921   7.263
59772SOL     OW81212   5.384   9.335   0.111
59772SOL    HW181213   5.406   9.292   0.029
59772SOL    HW281214   5.462   9.327   0.165
59773SOL     OW81215   2.799  13.018   5.265
59773SOL    HW181216   2.805  13.008   5.360
59773SOL    HW281217   2.739  13.092   5.252
59774SOL     OW81218  12.087  10.026  14.178
59774SOL    HW181219  12.035   9.969  14.120
59774SOL    HW281220  12.147   9.966  14.222
59775SOL     OW81221   2.878  14.753  10.599
59775SOL    HW181222   2.937  14.731  10.527
59775SOL    HW281223   2.799  14.785  10.556
59776SOL     OW81224  11.643   1.025  10.191
59776SOL    HW181225  11.662   1.076  10.270
59776SOL    HW281226  11.712   0.959  10.188
59777SOL     OW81227   3.655   9.630   0.307
59777SOL    HW181228   3.587   9.691   0.278
59777SOL    HW281229   3.698   9.675   0.380
59778SOL     OW81230  13.590   4.214   4.365
59778SOL    HW181231  13.589   4.275   4.292
59778SOL    HW281232  13.668   4.237   4.415
59779SOL     OW81233   8.114   7.789   8.330
59779SOL    HW181234   8.086   7.740   8.252
59779SOL    HW281235   8.047   7.857   8.341
59780SOL     OW81236   3.489  14.181   5.794
59780SOL    HW181237   3.569  14.216   5.754
59780SOL    HW281238   3.440  14.259   5.821
59781SOL     OW81239   7.218   3.991   0.640
59781SOL    HW181240   7.255   4.053   0.702
59781SOL    HW281241   7.129   3.976   0.671
59782SOL     OW81242  13.856   2.681   7.140
59782SOL    HW181243  13.919   2.627   7.093
59782SOL    HW281244  13.786   2.698   7.077
59783SOL     OW81245  11.786   8.685  12.311
59783SOL    HW181246  11.788   8.771  12.270
59783SOL    HW281247  11.782   8.703  12.405
59784SOL     OW81248   9.184   7.727   1.495
59784SOL    HW181249   9.167   7.815   1.528
59784SOL    HW281250   9.139   7.724   1.411
59785SOL     OW81251   2.280   3.851  14.775
59785SOL    HW181252   2.263   3.778  14.834
59785SOL    HW281253   2.316   3.920  14.831
59786SOL     OW81254  13.895   4.775  11.384
59786SOL    HW181255  13.953   4.835  11.337
59786SOL    HW281256  13.842   4.833  11.440
59787SOL     OW81257   7.055   5.689  12.981
59787SOL    HW181258   7.011   5.648  12.907
59787SOL    HW281259   6.995   5.759  13.009
59788SOL     OW81260  10.137  11.286   7.415
59788SOL    HW181261  10.178  11.302   7.330
59788SOL    HW281262  10.084  11.208   7.402
59789SOL     OW81263   8.547  14.318  11.979
59789SOL    HW181264   8.616  14.284  11.923
59789SOL    HW281265   8.542  14.256  12.051
59790SOL     OW81266   2.388  10.155   3.027
59790SOL    HW181267   2.439  10.236   3.033
59790SOL    HW281268   2.410  10.107   3.107
59791SOL     OW81269   6.143   2.834   9.660
59791SOL    HW181270   6.128   2.878   9.744
59791SOL    HW281271   6.139   2.904   9.595
59792SOL     OW81272   4.062  10.080   5.940
59792SOL    HW181273   4.116  10.086   6.019
59792SOL    HW281274   4.042  10.171   5.918
59793SOL     OW81275   1.565  13.790   6.293
59793SOL    HW181276   1.513  13.806   6.372
59793SOL    HW281277   1.569  13.695   6.286
59794SOL     OW81278   1.377   6.208   9.801
59794SOL    HW181279   1.448   6.167   9.851
59794SOL    HW281280   1.339   6.272   9.861
59795SOL     OW81281  14.011   6.579   8.349
59795SOL    HW181282  14.104   6.584   8.328
59795SOL    HW281283  13.991   6.485   8.349
59796SOL     OW81284   3.500  10.282   1.734
59796SOL    HW181285   3.428  10.225   1.762
59796SOL    HW281286   3.515  10.341   1.808
59797SOL     OW81287   7.113   7.690  10.476
59797SOL    HW181288   7.174   7.736  10.419
59797SOL    HW281289   7.154   7.604  10.490
59798SOL     OW81290   9.153  14.025  11.609
59798SOL    HW181291   9.080  14.019  11.671
59798SOL    HW281292   9.214  14.087  11.650
59799SOL     OW81293  10.028  11.533  11.183
59799SOL    HW181294   9.966  11.595  11.223
59799SOL    HW281295  10.062  11.579  11.107
59800SOL     OW81296   4.761  11.997   7.998
59800SOL    HW181297   4.747  11.935   8.069
59800SOL    HW281298   4.674  12.013   7.963
59801SOL     OW81299  13.480   1.248  11.049
59801SOL    HW181300  13.474   1.201  11.132
59801SOL    HW281301  13.451   1.337  11.070
59802SOL     OW81302   3.486  12.731   5.941
59802SOL    HW181303   3.410  12.718   5.884
59802SOL    HW281304   3.561  12.731   5.881
59803SOL     OW81305   9.954   3.127  12.409
59803SOL    HW181306   9.869   3.104  12.446
59803SOL    HW281307  10.003   3.044  12.407
59804SOL     OW81308   6.169   1.182  12.121
59804SOL    HW181309   6.222   1.258  12.148
59804SOL    HW281310   6.155   1.195  12.028
59805SOL     OW81311  10.366   1.898  13.742
59805SOL    HW181312  10.276   1.866  13.731
59805SOL    HW281313  10.390   1.872  13.831
59806SOL     OW81314  11.269   4.352   8.672
59806SOL    HW181315  11.176   4.370   8.684
59806SOL    HW281316  11.272   4.276   8.614
59807SOL     OW81317  14.731  13.998   2.174
59807SOL    HW181318  14.678  14.008   2.095
59807SOL    HW281319  14.787  14.075   2.176
59808SOL     OW81320   0.980   2.399  13.947
59808SOL    HW181321   0.903   2.360  13.905
59808SOL    HW281322   0.986   2.356  14.032
59809SOL     OW81323   0.574   3.739   5.391
59809SOL    HW181324   0.598   3.650   5.365
59809SOL    HW281325   0.624   3.796   5.332
59810SOL     OW81326   8.936   9.004   1.729
59810SOL    HW181327   8.905   9.014   1.639
59810SOL    HW281328   8.973   9.089   1.752
59811SOL     OW81329  13.605   9.815   3.338
59811SOL    HW181330  13.590   9.894   3.391
59811SOL    HW281331  13.611   9.848   3.248
59812SOL     OW81332  10.784  14.517  14.809
59812SOL    HW181333  10.827  14.600  14.790
59812SOL    HW281334  10.707  14.517  14.752
59813SOL     OW81335   3.933   4.670  12.325
59813SOL    HW181336   3.866   4.619  12.280
59813SOL    HW281337   4.015   4.646  12.281
59814SOL     OW81338   5.768   9.399   0.176
59814SOL    HW181339   5.733   9.486   0.157
59814SOL    HW281340   5.757   9.388   0.271
59815SOL     OW81341   7.490   6.234   3.967
59815SOL    HW181342   7.411   6.256   3.917
59815SOL    HW281343   7.472   6.263   4.056
59816SOL     OW81344   2.589   5.438  12.478
59816SOL    HW181345   2.597   5.414  12.386
59816SOL    HW281346   2.666   5.492  12.495
59817SOL     OW81347   2.818   8.438  11.985
59817SOL    HW181348   2.851   8.522  12.018
59817SOL    HW281349   2.849   8.373  12.048
59818SOL     OW81350  13.062  11.678   9.405
59818SOL    HW181351  13.141  11.627   9.389
59818SOL    HW281352  13.088  11.769   9.388
59819SOL     OW81353   7.121  13.912   7.104
59819SOL    HW181354   7.038  13.949   7.132
59819SOL    HW281355   7.117  13.821   7.132
59820SOL     OW81356   9.816  10.509  10.576
59820SOL    HW181357   9.910  10.502  10.587
59820SOL    HW281358   9.785  10.551  10.657
59821SOL     OW81359  14.146   5.093  14.387
59821SOL    HW181360  14.209   5.161  14.364
59821SOL    HW281361  14.116   5.057  14.304
59822SOL     OW81362   9.868   6.140   4.009
59822SOL    HW181363   9.794   6.082   4.026
59822SOL    HW281364   9.885   6.183   4.093
59823SOL     OW81365  10.565  14.695   8.730
59823SOL    HW181366  10.520  14.611   8.721
59823SOL    HW281367  10.526  14.735   8.807
59824SOL     OW81368   4.590   9.366   3.273
59824SOL    HW181369   4.511   9.380   3.222
59824SOL    HW281370   4.658   9.349   3.207
59825SOL     OW81371   4.620   5.287   1.104
59825SOL    HW181372   4.695   5.229   1.093
59825SOL    HW281373   4.659   5.375   1.110
59826SOL     OW81374  13.793   4.519   2.400
59826SOL    HW181375  13.862   4.453   2.409
59826SOL    HW281376  13.829   4.597   2.440
59827SOL     OW81377   5.247   1.414  14.349
59827SOL    HW181378   5.164   1.380  14.381
59827SOL    HW281379   5.228   1.446  14.261
59828SOL     OW81380  10.909  10.333   8.840
59828SOL    HW181381  10.906  10.245   8.877
59828SOL    HW281382  10.817  10.357   8.828
59829SOL     OW81383  14.796   5.802   5.757
59829SOL    HW181384  14.820   5.761   5.674
59829SOL    HW281385  14.825   5.893   5.748
59830SOL     OW81386  14.522   1.787   3.168
59830SOL    HW181387  14.482   1.706   3.200
59830SOL    HW281388  14.578   1.759   3.095
59831SOL     OW81389   4.785   9.893  10.813
59831SOL    HW181390   4.811   9.819  10.758
59831SOL    HW281391   4.792   9.860  10.902
59832SOL     OW81392  11.478   5.414   0.347
59832SOL    HW181393  11.431   5.331   0.351
59832SOL    HW281394  11.441   5.459   0.271
59833SOL     OW81395   8.816   2.072  11.470
59833SOL    HW181396   8.760   2.050  11.396
59833SOL    HW281397   8.820   2.168  11.470
59834SOL     OW81398   9.143   8.749   2.097
59834SOL    HW181399   9.083   8.822   2.114
59834SOL    HW281400   9.125   8.723   2.007
59835SOL     OW81401  10.545   4.532  10.407
59835SOL    HW181402  10.479   4.546  10.340
59835SOL    HW281403  10.567   4.439  10.401
59836SOL     OW81404  12.424   9.526  12.418
59836SOL    HW181405  12.419   9.561  12.329
59836SOL    HW281406  12.374   9.444  12.414
59837SOL     OW81407   1.793   1.143   3.840
59837SOL    HW181408   1.884   1.159   3.867
59837SOL    HW281409   1.746   1.131   3.923
59838SOL     OW81410   0.358   5.344   9.339
59838SOL    HW181411   0.298   5.383   9.276
59838SOL    HW281412   0.436   5.322   9.287
59839SOL     OW81413   8.160   9.902   1.676
59839SOL    HW181414   8.160   9.828   1.736
59839SOL    HW281415   8.238   9.953   1.699
59840SOL     OW81416   0.526   0.775   0.299
59840SOL    HW181417   0.579   0.842   0.255
59840SOL    HW281418   0.440   0.782   0.258
59841SOL     OW81419  11.862  13.776   8.511
59841SOL    HW181420  11.777  13.739   8.535
59841SOL    HW281421  11.858  13.867   8.541
59842SOL     OW81422  12.400   0.513  10.799
59842SOL    HW181423  12.491   0.515  10.770
59842SOL    HW281424  12.382   0.420  10.814
59843SOL     OW81425   0.245   2.511  11.052
59843SOL    HW181426   0.306   2.490  10.981
59843SOL    HW281427   0.299   2.554  11.118
59844SOL     OW81428  11.396   0.532  12.063
59844SOL    HW181429  11.458   0.603  12.079
59844SOL    HW281430  11.322   0.574  12.018
59845SOL     OW81431   2.196   9.166   0.156
59845SOL    HW181432   2.243   9.209   0.084
59845SOL    HW281433   2.104   9.184   0.138
59846SOL     OW81434   0.364   6.349   3.933
59846SOL    HW181435   0.403   6.353   4.021
59846SOL    HW281436   0.273   6.324   3.948
59847SOL     OW81437  13.125  10.828  12.536
59847SOL    HW181438  13.180  10.905  12.552
59847SOL    HW281439  13.178  10.754  12.564
59848SOL     OW81440   3.478   8.370   7.518
59848SOL    HW181441   3.511   8.460   7.519
59848SOL    HW281442   3.495   8.340   7.428
59849SOL     OW81443  13.876   3.517   7.033
59849SOL    HW181444  13.890   3.565   6.951
59849SOL    HW281445  13.927   3.437   7.022
59850SOL     OW81446   9.837  14.243   8.072
59850SOL    HW181447   9.781  14.267   7.999
59850SOL    HW281448   9.779  14.194   8.131
59851SOL     OW81449   0.275   4.876   9.361
59851SOL    HW181450   0.265   4.811   9.291
59851SOL    HW281451   0.351   4.928   9.335
59852SOL     OW81452  11.361   9.751  13.543
59852SOL    HW181453  11.347   9.800  13.462
59852SOL    HW281454  11.432   9.691  13.523
59853SOL     OW81455  10.018   2.689   8.599
59853SOL    HW181456  10.098   2.741   8.601
59853SOL    HW281457  10.034   2.624   8.530
59854SOL     OW81458  11.473  14.529   1.651
59854SOL    HW181459  11.388  14.573   1.647
59854SOL    HW281460  11.480  14.499   1.742
59855SOL     OW81461   0.191   9.717  13.951
59855SOL    HW181462   0.253   9.782  13.919
59855SOL    HW281463   0.166   9.667  13.873
59856SOL     OW81464   0.594   2.238   5.972
59856SOL    HW181465   0.664   2.172   5.969
59856SOL    HW281466   0.525   2.198   6.024
59857SOL     OW81467   3.404   3.878   1.080
59857SOL    HW181468   3.401   3.808   1.145
59857SOL    HW281469   3.406   3.958   1.133
59858SOL     OW81470   8.221  10.120  11.158
59858SOL    HW181471   8.127  10.104  11.163
59858SOL    HW281472   8.241  10.119  11.065
59859SOL     OW81473   5.926  10.066   7.512
59859SOL    HW181474   5.946  10.096   7.600
59859SOL    HW281475   5.869   9.990   7.524
59860SOL     OW81476   1.555  13.373   4.415
59860SOL    HW181477   1.647  13.397   4.403
59860SOL    HW281478   1.508  13.456   4.406
59861SOL     OW81479  14.185  13.998   7.174
59861SOL    HW181480  14.124  13.949   7.118
59861SOL    HW281481  14.134  14.073   7.204
59862SOL     OW81482   5.747  14.764   6.195
59862SOL    HW181483   5.794  14.835   6.151
59862SOL    HW281484   5.795  14.685   6.171
59863SOL     OW81485   4.258  12.995   7.467
59863SOL    HW181486   4.288  12.905   7.481
59863SOL    HW281487   4.211  12.991   7.383
59864SOL     OW81488   9.608  10.861   2.348
59864SOL    HW181489   9.618  10.888   2.439
59864SOL    HW281490   9.647  10.932   2.297
59865SOL     OW81491   6.735  13.464  13.666
59865SOL    HW181492   6.797  13.405  13.709
59865SOL    HW281493   6.790  13.517  13.608
59866SOL     OW81494   6.927  12.657   2.878
59866SOL    HW181495   6.969  12.714   2.815
59866SOL    HW281496   6.882  12.591   2.825
59867SOL     OW81497   6.431  12.809   7.252
59867SOL    HW181498   6.388  12.864   7.186
59867SOL    HW281499   6.475  12.741   7.202
59868SOL     OW81500   2.559  14.347   7.561
59868SOL    HW181501   2.491  14.396   7.514
59868SOL    HW281502   2.563  14.388   7.647
59869SOL     OW81503  13.767   3.231  13.203
59869SOL    HW181504  13.755   3.319  13.238
59869SOL    HW281505  13.751   3.172  13.277
59870SOL     OW81506  12.665   3.422   9.377
59870SOL    HW181507  12.665   3.517   9.374
59870SOL    HW281508  12.728   3.395   9.310
59871SOL     OW81509   2.311   3.235   5.226
59871SOL    HW181510   2.339   3.181   5.151
59871SOL    HW281511   2.285   3.318   5.186
59872SOL     OW81512   7.051   6.420  12.727
59872SOL    HW181513   6.984   6.488  12.732
59872SOL    HW281514   7.128   6.464  12.691
59873SOL     OW81515   5.381   7.780   7.759
59873SOL    HW181516   5.456   7.761   7.816
59873SOL    HW281517   5.312   7.722   7.789
59874SOL     OW81518   0.700   7.442   6.837
59874SOL    HW181519   0.632   7.467   6.775
59874SOL    HW281520   0.711   7.519   6.893
59875SOL     OW81521   8.997  10.683   2.160
59875SOL    HW181522   8.966  10.612   2.104
59875SOL    HW281523   9.092  10.672   2.164
59876SOL     OW81524  10.640  12.188  14.567
59876SOL    HW181525  10.624  12.223  14.479
59876SOL    HW281526  10.701  12.116  14.554
59877SOL     OW81527  11.008   0.982   2.129
59877SOL    HW181528  10.963   1.030   2.199
59877SOL    HW281529  10.963   0.898   2.125
59878SOL     OW81530   6.739   5.898   5.616
59878SOL    HW181531   6.687   5.882   5.695
59878SOL    HW281532   6.676   5.895   5.545
59879SOL     OW81533  13.646   5.808   3.183
59879SOL    HW181534  13.741   5.798   3.193
59879SOL    HW281535  13.617   5.845   3.266
59880SOL     OW81536  14.778   9.303   5.335
59880SOL    HW181537  14.843   9.370   5.311
59880SOL    HW281538  14.785   9.238   5.265
59881SOL     OW81539   4.891   1.669   3.943
59881SOL    HW181540   4.962   1.656   3.880
59881SOL    HW281541   4.815   1.627   3.903
59882SOL     OW81542   4.755   0.557   8.466
59882SOL    HW181543   4.697   0.587   8.396
59882SOL    HW281544   4.769   0.635   8.520
59883SOL     OW81545   6.581   4.776  14.386
59883SOL    HW181546   6.617   4.860  14.357
59883SOL    HW281547   6.569   4.787  14.481
59884SOL     OW81548  10.415   8.782   2.500
59884SOL    HW181549  10.445   8.746   2.583
59884SOL    HW281550  10.393   8.873   2.520
59885SOL     OW81551   9.487   1.995  10.637
59885SOL    HW181552   9.444   2.080  10.624
59885SOL    HW281553   9.488   1.955  10.550
59886SOL     OW81554  14.563   2.728   6.284
59886SOL    HW181555  14.641   2.758   6.238
59886SOL    HW281556  14.552   2.790   6.355
59887SOL     OW81557  13.601  12.443   9.967
59887SOL    HW181558  13.650  12.469   9.889
59887SOL    HW281559  13.622  12.350   9.978
59888SOL     OW81560  14.196  12.308   8.446
59888SOL    HW181561  14.167  12.315   8.537
59888SOL    HW281562  14.159  12.226   8.415
59889SOL     OW81563   9.307  12.542  10.721
59889SOL    HW181564   9.239  12.560  10.787
59889SOL    HW281565   9.326  12.449  10.733
59890SOL     OW81566   3.020   0.920  13.048
59890SOL    HW181567   3.104   0.963  13.065
59890SOL    HW281568   2.973   0.926  13.130
59891SOL     OW81569  11.622   3.906  12.903
59891SOL    HW181570  11.545   3.907  12.845
59891SOL    HW281571  11.587   3.881  12.989
59892SOL     OW81572   0.300   5.031  11.313
59892SOL    HW181573   0.215   5.011  11.273
59892SOL    HW281574   0.350   4.950  11.303
59893SOL     OW81575   0.646   9.301   0.647
59893SOL    HW181576   0.648   9.265   0.559
59893SOL    HW281577   0.560   9.276   0.681
59894SOL     OW81578   2.221   4.092  12.074
59894SOL    HW181579   2.238   4.036  11.998
59894SOL    HW281580   2.291   4.070  12.135
59895SOL     OW81581  14.776   1.529   0.748
59895SOL    HW181582  14.860   1.574   0.742
59895SOL    HW281583  14.715   1.597   0.778
59896SOL     OW81584   1.062   4.036   3.612
59896SOL    HW181585   1.054   3.942   3.593
59896SOL    HW281586   0.977   4.072   3.589
59897SOL     OW81587   0.413  13.437   2.382
59897SOL    HW181588   0.364  13.448   2.464
59897SOL    HW281589   0.502  13.464   2.404
59898SOL     OW81590   1.298   5.710  14.259
59898SOL    HW181591   1.331   5.733  14.346
59898SOL    HW281592   1.222   5.767  14.247
59899SOL     OW81593  13.068  10.351   2.282
59899SOL    HW181594  13.070  10.414   2.354
59899SOL    HW281595  13.137  10.288   2.302
59900SOL     OW81596   0.702  10.955   8.178
59900SOL    HW181597   0.699  10.960   8.082
59900SOL    HW281598   0.783  10.908   8.197
59901SOL     OW81599  14.774   7.240  10.535
59901SOL    HW181600  14.741   7.321  10.495
59901SOL    HW281601  14.838   7.207  10.471
59902SOL     OW81602   1.733   5.583   8.029
59902SOL    HW181603   1.758   5.615   7.943
59902SOL    HW281604   1.815   5.554   8.069
59903SOL     OW81605   9.509   8.564   4.300
59903SOL    HW181606   9.442   8.633   4.296
59903SOL    HW281607   9.506   8.523   4.213
59904SOL     OW81608   9.850   8.464   8.068
59904SOL    HW181609   9.899   8.537   8.107
59904SOL    HW281610   9.863   8.474   7.974
59905SOL     OW81611   1.177   0.779  10.079
59905SOL    HW181612   1.240   0.821  10.020
59905SOL    HW281613   1.152   0.698  10.034
59906SOL     OW81614  11.299  14.388  12.457
59906SOL    HW181615  11.353  14.427  12.389
59906SOL    HW281616  11.217  14.365  12.414
59907SOL     OW81617   5.337   3.798   7.974
59907SOL    HW181618   5.315   3.887   8.000
59907SOL    HW281619   5.253   3.756   7.955
59908SOL     OW81620   2.687  11.651   6.909
59908SOL    HW181621   2.593  11.655   6.928
59908SOL    HW281622   2.727  11.716   6.966
59909SOL     OW81623  11.798  11.760   3.984
59909SOL    HW181624  11.869  11.764   4.048
59909SOL    HW281625  11.752  11.678   4.004
59910SOL     OW81626  11.643  14.655  10.423
59910SOL    HW181627  11.665  14.718  10.492
59910SOL    HW281628  11.727  14.620  10.393
59911SOL     OW81629   6.265   5.693   4.378
59911SOL    HW181630   6.335   5.630   4.361
59911SOL    HW281631   6.192   5.664   4.323
59912SOL     OW81632   7.683   8.533  14.233
59912SOL    HW181633   7.656   8.490  14.314
59912SOL    HW281634   7.604   8.535  14.179
59913SOL     OW81635   4.009   3.078   0.214
59913SOL    HW181636   4.051   3.141   0.273
59913SOL    HW281637   4.081   3.024   0.181
59914SOL     OW81638   5.684   9.922   4.238
59914SOL    HW181639   5.668   9.839   4.192
59914SOL    HW281640   5.597   9.949   4.268
59915SOL     OW81641  14.839   5.248   1.556
59915SOL    HW181642  14.843   5.231   1.650
59915SOL    HW281643   0.042   5.216   1.522
59916SOL     OW81644   2.470   8.983   0.067
59916SOL    HW181645   2.431   9.068   0.046
59916SOL    HW281646   2.505   8.951  14.865
59917SOL     OW81647  10.348   7.134   0.994
59917SOL    HW181648  10.390   7.095   1.070
59917SOL    HW281649  10.406   7.206   0.969
59918SOL     OW81650   8.210   1.015  14.148
59918SOL    HW181651   8.236   1.081  14.083
59918SOL    HW281652   8.288   0.962  14.162
59919SOL     OW81653   9.666  13.311   7.656
59919SOL    HW181654   9.630  13.224   7.671
59919SOL    HW281655   9.746  13.295   7.606
59920SOL     OW81656   9.548  10.069   4.202
59920SOL    HW181657   9.574  10.058   4.293
59920SOL    HW281658   9.471  10.125   4.205
59921SOL     OW81659   5.899  11.510  14.572
59921SOL    HW181660   5.969  11.483  14.631
59921SOL    HW281661   5.843  11.566  14.625
59922SOL     OW81662  12.099   9.789  11.982
59922SOL    HW181663  12.010   9.766  11.956
59922SOL    HW281664  12.127   9.854  11.917
59923SOL     OW81665   4.207  11.010   4.706
59923SOL    HW181666   4.298  10.993   4.681
59923SOL    HW281667   4.177  11.077   4.644
59924SOL     OW81668  10.401   3.364  14.407
59924SOL    HW181669  10.454   3.288  14.383
59924SOL    HW281670  10.407   3.423  14.332
59925SOL     OW81671  12.215  11.744  13.348
59925SOL    HW181672  12.263  11.662  13.359
59925SOL    HW281673  12.213  11.758  13.254
59926SOL     OW81674   0.110   7.395   1.293
59926SOL    HW181675   0.121   7.317   1.346
59926SOL    HW281676   0.043   7.371   1.229
59927SOL     OW81677   5.466   3.129   7.288
59927SOL    HW181678   5.428   3.110   7.373
59927SOL    HW281679   5.466   3.224   7.282
59928SOL     OW81680   9.618   0.938   5.331
59928SOL    HW181681   9.656   1.025   5.341
59928SOL    HW281682   9.549   0.934   5.397
59929SOL     OW81683   6.897  14.537   9.049
59929SOL    HW181684   6.873  14.506   9.136
59929SOL    HW281685   6.864  14.627   9.045
59930SOL     OW81686   1.339   4.864  13.946
59930SOL    HW181687   1.434   4.852  13.941
59930SOL    HW281688   1.303   4.800  13.885
59931SOL     OW81689   9.715   5.163   9.038
59931SOL    HW181690   9.687   5.161   8.946
59931SOL    HW281691   9.782   5.231   9.041
59932SOL     OW81692   0.511   3.987   2.657
59932SOL    HW181693   0.532   3.904   2.700
59932SOL    HW281694   0.418   4.001   2.676
59933SOL     OW81695   1.134   6.169   0.428
59933SOL    HW181696   1.090   6.205   0.505
59933SOL    HW281697   1.167   6.246   0.381
59934SOL     OW81698   2.131   8.846   5.113
59934SOL    HW181699   2.041   8.819   5.131
59934SOL    HW281700   2.169   8.865   5.199
59935SOL     OW81701   0.059   4.444   6.497
59935SOL    HW181702   0.100   4.430   6.412
59935SOL    HW281703   0.119   4.505   6.542
59936SOL     OW81704   7.571  14.202   7.779
59936SOL    HW181705   7.485  14.244   7.775
59936SOL    HW281706   7.571  14.156   7.862
59937SOL     OW81707   7.862   6.483  11.032
59937SOL    HW181708   7.808   6.441  11.099
59937SOL    HW281709   7.835   6.443  10.950
59938SOL     OW81710   2.332   2.760  12.700
59938SOL    HW181711   2.295   2.740  12.786
59938SOL    HW281712   2.271   2.823  12.661
59939SOL     OW81713   4.891   0.070   0.900
59939SOL    HW181714   4.966   0.011   0.893
59939SOL    HW281715   4.815   0.013   0.889
59940SOL     OW81716   9.536   5.375   3.065
59940SOL    HW181717   9.551   5.307   2.999
59940SOL    HW281718   9.609   5.365   3.126
59941SOL     OW81719   4.812   3.176  13.362
59941SOL    HW181720   4.747   3.163  13.293
59941SOL    HW281721   4.873   3.241  13.327
59942SOL     OW81722   4.099   1.034   6.074
59942SOL    HW181723   4.107   1.032   5.979
59942SOL    HW281724   4.065   0.947   6.097
59943SOL     OW81725   0.053   1.570   4.156
59943SOL    HW181726  14.857   1.627   4.149
59943SOL    HW281727   0.022   1.494   4.204
59944SOL     OW81728   6.384   9.818   4.817
59944SOL    HW181729   6.340   9.743   4.777
59944SOL    HW281730   6.321   9.850   4.882
59945SOL     OW81731  14.793   1.571   0.252
59945SOL    HW181732  14.811   1.517   0.329
59945SOL    HW281733  14.698   1.583   0.253
59946SOL     OW81734  12.989   9.170  13.975
59946SOL    HW181735  13.069   9.178  14.027
59946SOL    HW281736  13.013   9.110  13.904
59947SOL     OW81737   0.675  11.745  14.346
59947SOL    HW181738   0.710  11.757  14.434
59947SOL    HW281739   0.676  11.650  14.332
59948SOL     OW81740  10.544   4.189   6.702
59948SOL    HW181741  10.509   4.111   6.660
59948SOL    HW281742  10.476   4.256   6.690
59949SOL     OW81743   2.930   8.149  14.606
59949SOL    HW181744   2.861   8.097  14.565
59949SOL    HW281745   2.972   8.089  14.667
59950SOL     OW81746   8.848   4.540  13.683
59950SOL    HW181747   8.858   4.497  13.768
59950SOL    HW281748   8.815   4.470  13.625
59951SOL     OW81749   8.646   3.263  11.256
59951SOL    HW181750   8.589   3.302  11.189
59951SOL    HW281751   8.697   3.337  11.290
59952SOL     OW81752   5.784  11.493   5.827
59952SOL    HW181753   5.858  11.435   5.840
59952SOL    HW281754   5.738  11.457   5.751
59953SOL     OW81755  13.617   4.501   1.077
59953SOL    HW181756  13.582   4.432   1.134
59953SOL    HW281757  13.550   4.512   1.009
59954SOL     OW81758   6.061   3.266  14.396
59954SOL    HW181759   5.989   3.329  14.391
59954SOL    HW281760   6.043   3.204  14.325
59955SOL     OW81761   0.822  14.021  14.645
59955SOL    HW181762   0.819  14.006  14.550
59955SOL    HW281763   0.828  13.934  14.683
59956SOL     OW81764   7.549  11.271  12.272
59956SOL    HW181765   7.505  11.351  12.299
59956SOL    HW281766   7.481  11.203  12.277
59957SOL     OW81767  11.920  10.224  10.994
59957SOL    HW181768  11.983  10.266  10.936
59957SOL    HW281769  11.890  10.147  10.946
59958SOL     OW81770  11.604   8.699  14.389
59958SOL    HW181771  11.639   8.764  14.450
59958SOL    HW281772  11.673   8.689  14.323
59959SOL     OW81773  11.427   2.914  13.356
59959SOL    HW181774  11.503   2.901  13.300
59959SOL    HW281775  11.429   2.841  13.418
59960SOL     OW81776  13.421  10.859   1.974
59960SOL    HW181777  13.467  10.925   2.026
59960SOL    HW281778  13.376  10.804   2.038
59961SOL     OW81779   1.552   2.847   0.452
59961SOL    HW181780   1.627   2.862   0.510
59961SOL    HW281781   1.510   2.768   0.487
59962SOL     OW81782   6.991   5.897   4.262
59962SOL    HW181783   7.075   5.852   4.254
59962SOL    HW281784   7.012   5.978   4.309
59963SOL     OW81785  13.988   7.097   3.385
59963SOL    HW181786  13.974   7.052   3.468
59963SOL    HW281787  14.043   7.037   3.334
59964SOL     OW81788  14.833  14.657  12.069
59964SOL    HW181789   0.002  14.687  12.146
59964SOL    HW281790   0.019  14.615  12.013
59965SOL     OW81791   6.896   4.604   0.424
59965SOL    HW181792   6.975   4.552   0.442
59965SOL    HW281793   6.857   4.563   0.347
59966SOL     OW81794   9.035  11.047  11.925
59966SOL    HW181795   9.035  10.967  11.873
59966SOL    HW281796   8.943  11.069  11.936
59967SOL     OW81797  11.497   2.778   4.174
59967SOL    HW181798  11.586   2.809   4.162
59967SOL    HW281799  11.479   2.724   4.097
59968SOL     OW81800   0.048   6.155   1.476
59968SOL    HW181801   0.045   6.152   1.571
59968SOL    HW281802   0.108   6.227   1.456
59969SOL     OW81803   6.965   5.827   0.589
59969SOL    HW181804   6.985   5.735   0.602
59969SOL    HW281805   7.030   5.858   0.527
59970SOL     OW81806  14.798  13.259   2.813
59970SOL    HW181807  14.785  13.307   2.894
59970SOL    HW281808  14.875  13.205   2.829
59971SOL     OW81809  11.161  10.451   6.670
59971SOL    HW181810  11.100  10.526   6.667
59971SOL    HW281811  11.137  10.399   6.593
59972SOL     OW81812   6.161   5.862   2.723
59972SOL    HW181813   6.215   5.922   2.776
59972SOL    HW281814   6.077   5.906   2.714
59973SOL     OW81815   0.594  10.189  10.725
59973SOL    HW181816   0.513  10.167  10.679
59973SOL    HW281817   0.571  10.183  10.818
59974SOL     OW81818   1.271  11.648   9.014
59974SOL    HW181819   1.332  11.593   8.966
59974SOL    HW281820   1.311  11.735   9.015
59975SOL     OW81821   9.637  12.863   9.457
59975SOL    HW181822   9.653  12.835   9.547
59975SOL    HW281823   9.709  12.923   9.437
59976SOL     OW81824   1.064   3.587   4.007
59976SOL    HW181825   1.061   3.492   4.014
59976SOL    HW281826   1.149   3.606   3.968
59977SOL     OW81827  13.467  14.578  13.329
59977SOL    HW181828  13.559  14.592  13.309
59977SOL    HW281829  13.420  14.618  13.256
59978SOL     OW81830   2.032   4.613  11.151
59978SOL    HW181831   2.009   4.573  11.067
59978SOL    HW281832   1.960   4.587  11.209
59979SOL     OW81833   5.154   9.415  12.988
59979SOL    HW181834   5.130   9.424  13.080
59979SOL    HW281835   5.178   9.323  12.978
59980SOL     OW81836   7.143   1.173  10.364
59980SOL    HW181837   7.073   1.162  10.301
59980SOL    HW281838   7.213   1.116  10.332
59981SOL     OW81839   5.557   3.047   3.125
59981SOL    HW181840   5.579   2.957   3.100
59981SOL    HW281841   5.500   3.038   3.201
59982SOL     OW81842   9.900  10.290  14.090
59982SOL    HW181843   9.812  10.324  14.071
59982SOL    HW281844   9.956  10.367  14.094
59983SOL     OW81845   9.022   6.693   6.884
59983SOL    HW181846   9.038   6.600   6.869
59983SOL    HW281847   8.991   6.698   6.974
59984SOL     OW81848  10.921   8.900  10.899
59984SOL    HW181849  10.845   8.843  10.888
59984SOL    HW281850  10.965   8.898  10.814
59985SOL     OW81851   8.346  13.706   7.211
59985SOL    HW181852   8.262  13.715   7.165
59985SOL    HW281853   8.325  13.720   7.303
59986SOL     OW81854   1.440   0.729   6.049
59986SOL    HW181855   1.408   0.779   6.125
59986SOL    HW281856   1.382   0.653   6.045
59987SOL     OW81857  12.485   5.923  12.491
59987SOL    HW181858  12.443   5.842  12.518
59987SOL    HW281859  12.526   5.902  12.407
59988SOL     OW81860  10.318   8.289  10.735
59988SOL    HW181861  10.300   8.197  10.719
59988SOL    HW281862  10.265   8.336  10.670
59989SOL     OW81863   5.061  14.714   0.900
59989SOL    HW181864   5.132  14.654   0.922
59989SOL    HW281865   5.049  14.702   0.805
59990SOL     OW81866   4.884  14.563  10.009
59990SOL    HW181867   4.866  14.563  10.103
59990SOL    HW281868   4.810  14.610   9.970
59991SOL     OW81869   5.029   6.949   6.286
59991SOL    HW181870   5.013   6.876   6.227
59991SOL    HW281871   5.080   6.912   6.357
59992SOL     OW81872   0.832   6.809   9.266
59992SOL    HW181873   0.756   6.815   9.208
59992SOL    HW281874   0.894   6.873   9.231
59993SOL     OW81875   1.055  10.161   2.051
59993SOL    HW181876   1.148  10.153   2.030
59993SOL    HW281877   1.020  10.073   2.039
59994SOL     OW81878   7.585   5.526   6.376
59994SOL    HW181879   7.500   5.535   6.417
59994SOL    HW281880   7.647   5.553   6.444
59995SOL     OW81881   0.066   2.719   3.255
59995SOL    HW181882   0.036   2.639   3.211
59995SOL    HW281883   0.143   2.692   3.304
59996SOL     OW81884  10.028   8.508   3.430
59996SOL    HW181885  10.102   8.486   3.487
59996SOL    HW281886   9.951   8.471   3.474
59997SOL     OW81887   2.801   9.801   8.284
59997SOL    HW181888   2.756   9.792   8.199
59997SOL    HW281889   2.866   9.869   8.269
59998SOL     OW81890   0.219   0.033   6.260
59998SOL    HW181891   0.265   0.005   6.339
59998SOL    HW281892   0.148   0.089   6.293
59999SOL     OW81893  14.723   1.595  12.085
59999SOL    HW181894  14.719   1.530  12.155
59999SOL    HW281895  14.727   1.679  12.131
60000SOL     OW81896   9.568   9.673  11.472
60000SOL    HW181897   9.533   9.657  11.385
60000SOL    HW281898   9.595   9.765  11.471
60001SOL     OW81899   6.286  12.002   6.507
60001SOL    HW181900   6.278  12.097   6.497
60001SOL    HW281901   6.202  11.968   6.476
60002SOL     OW81902   3.202  13.866   8.084
60002SOL    HW181903   3.217  13.945   8.032
60002SOL    HW281904   3.216  13.794   8.023
60003SOL     OW81905   2.085   7.930   3.373
60003SOL    HW181906   2.166   7.952   3.417
60003SOL    HW281907   2.018   7.983   3.416
60004SOL     OW81908   7.490  10.171  12.945
60004SOL    HW181909   7.404  10.154  12.983
60004SOL    HW281910   7.539  10.091  12.962
60005SOL     OW81911  14.142   6.582   6.716
60005SOL    HW181912  14.167   6.647   6.782
60005SOL    HW281913  14.104   6.511   6.767
60006SOL     OW81914  14.398   3.540  13.178
60006SOL    HW181915  14.451   3.482  13.124
60006SOL    HW281916  14.406   3.625  13.136
60007SOL     OW81917   6.973   6.210   1.225
60007SOL    HW181918   6.933   6.200   1.311
60007SOL    HW281919   7.065   6.228   1.243
60008SOL     OW81920  10.342  11.433   6.629
60008SOL    HW181921  10.249  11.434   6.653
60008SOL    HW281922  10.342  11.415   6.535
60009SOL     OW81923  12.837   2.576   2.818
60009SOL    HW181924  12.758   2.548   2.864
60009SOL    HW281925  12.827   2.540   2.730
60010SOL     OW81926   9.603   1.571   3.220
60010SOL    HW181927   9.645   1.505   3.275
60010SOL    HW281928   9.558   1.521   3.152
60011SOL     OW81929   8.029   9.333   7.989
60011SOL    HW181930   8.006   9.308   8.079
60011SOL    HW281931   8.113   9.291   7.973
60012SOL     OW81932  14.314   9.601  10.924
60012SOL    HW181933  14.249   9.639  10.864
60012SOL    HW281934  14.263   9.567  10.997
60013SOL     OW81935   0.348  10.755   0.324
60013SOL    HW181936   0.277  10.796   0.275
60013SOL    HW281937   0.397  10.829   0.360
60014SOL     OW81938   5.499   3.319  11.481
60014SOL    HW181939   5.561   3.391  11.470
60014SOL    HW281940   5.550   3.249  11.520
60015SOL     OW81941   3.296  13.024  11.720
60015SOL    HW181942   3.328  12.993  11.805
60015SOL    HW281943   3.372  13.067  11.680
60016SOL     OW81944   6.893   7.036   9.408
60016SOL    HW181945   6.952   7.080   9.347
60016SOL    HW281946   6.808   7.038   9.363
60017SOL     OW81947  11.261   8.716   2.359
60017SOL    HW181948  11.252   8.789   2.420
60017SOL    HW281949  11.333   8.664   2.394
60018SOL     OW81950   1.504   8.695   3.606
60018SOL    HW181951   1.443   8.680   3.679
60018SOL    HW281952   1.462   8.652   3.532
60019SOL     OW81953   8.337   3.597   3.899
60019SOL    HW181954   8.292   3.632   3.976
60019SOL    HW281955   8.365   3.675   3.851
60020SOL     OW81956  12.942  11.191   6.270
60020SOL    HW181957  12.899  11.114   6.232
60020SOL    HW281958  13.025  11.158   6.303
60021SOL     OW81959   4.526  14.834   9.724
60021SOL    HW181960   4.531  14.739   9.715
60021SOL    HW281961   4.544  14.867   9.635
60022SOL     OW81962   5.353   9.598  12.992
60022SOL    HW181963   5.336   9.676  12.938
60022SOL    HW281964   5.279   9.540  12.974
60023SOL     OW81965   4.722  11.585  14.479
60023SOL    HW181966   4.669  11.650  14.434
60023SOL    HW281967   4.785  11.635  14.530
60024SOL     OW81968  13.725  11.661   0.666
60024SOL    HW181969  13.741  11.608   0.744
60024SOL    HW281970  13.790  11.732   0.672
60025SOL     OW81971   7.862   8.808   2.160
60025SOL    HW181972   7.886   8.894   2.194
60025SOL    HW281973   7.815   8.827   2.078
60026SOL     OW81974   9.851   7.870   5.131
60026SOL    HW181975   9.895   7.798   5.085
60026SOL    HW281976   9.834   7.935   5.062
60027SOL     OW81977   8.944  13.187   2.623
60027SOL    HW181978   8.910  13.135   2.696
60027SOL    HW281979   9.035  13.205   2.647
60028SOL     OW81980   9.474   5.596  10.841
60028SOL    HW181981   9.517   5.538  10.904
60028SOL    HW281982   9.419   5.538  10.788
60029SOL     OW81983   8.928   1.615  14.791
60029SOL    HW181984   8.997   1.613  14.857
60029SOL    HW281985   8.973   1.635  14.709
60030SOL     OW81986  11.759  12.179   6.407
60030SOL    HW181987  11.801  12.131   6.478
60030SOL    HW281988  11.672  12.140   6.400
60031SOL     OW81989  13.932  12.999   8.737
60031SOL    HW181990  13.991  13.055   8.787
60031SOL    HW281991  13.949  12.910   8.770
60032SOL     OW81992   6.678   0.667  14.561
60032SOL    HW181993   6.769   0.684  14.537
60032SOL    HW281994   6.683   0.634  14.651
60033SOL     OW81995  13.764   8.262  13.485
60033SOL    HW181996  13.700   8.323  13.447
60033SOL    HW281997  13.761   8.186  13.428
60034SOL     OW81998  13.153   9.352  12.079
60034SOL    HW181999  13.060   9.373  12.070
60034SOL    HW282000  13.193   9.432  12.114
60035SOL     OW82001   3.961   8.974   5.219
60035SOL    HW182002   3.870   8.957   5.194
60035SOL    HW282003   3.996   8.888   5.242
60036SOL     OW82004   0.800  10.442  14.411
60036SOL    HW182005   0.838  10.433  14.498
60036SOL    HW282006   0.861  10.394  14.353
60037SOL     OW82007  11.676   4.815  13.622
60037SOL    HW182008  11.753   4.769  13.656
60037SOL    HW282009  11.623   4.833  13.700
60038SOL     OW82010   7.696   1.044  13.225
60038SOL    HW182011   7.604   1.024  13.212
60038SOL    HW282012   7.731   1.055  13.136
60039SOL     OW82013   6.510   4.168   4.327
60039SOL    HW182014   6.549   4.215   4.254
60039SOL    HW282015   6.549   4.208   4.405
60040SOL     OW82016  11.359   9.402  11.754
60040SOL    HW182017  11.296   9.429  11.821
60040SOL    HW282018  11.436   9.374  11.804
60041SOL     OW82019   9.861   8.623   2.834
60041SOL    HW182020   9.957   8.617   2.841
60041SOL    HW282021   9.829   8.558   2.896
60042SOL     OW82022   2.590   9.304   7.460
60042SOL    HW182023   2.561   9.214   7.447
60042SOL    HW282024   2.561   9.327   7.548
60043SOL     OW82025  14.618   2.653  12.378
60043SOL    HW182026  14.616   2.618  12.290
60043SOL    HW282027  14.628   2.576  12.435
60044SOL     OW82028  13.824  11.944   6.537
60044SOL    HW182029  13.746  11.921   6.487
60044SOL    HW282030  13.848  11.863   6.583
60045SOL     OW82031   4.716   7.446   3.697
60045SOL    HW182032   4.713   7.389   3.774
60045SOL    HW282033   4.632   7.491   3.697
60046SOL     OW82034  12.176  11.096  11.184
60046SOL    HW182035  12.140  11.008  11.183
60046SOL    HW282036  12.181  11.118  11.277
60047SOL     OW82037   5.959   7.152  11.207
60047SOL    HW182038   5.943   7.177  11.298
60047SOL    HW282039   6.054   7.158  11.197
60048SOL     OW82040   2.183   0.777   1.679
60048SOL    HW182041   2.260   0.829   1.704
60048SOL    HW282042   2.129   0.836   1.627
60049SOL     OW82043   0.204   1.872   1.071
60049SOL    HW182044   0.163   1.836   1.149
60049SOL    HW282045   0.212   1.966   1.089
60050SOL     OW82046  11.098  13.719  13.458
60050SOL    HW182047  11.005  13.741  13.457
60050SOL    HW282048  11.136  13.768  13.385
60051SOL     OW82049   4.653  13.424   0.776
60051SOL    HW182050   4.747  13.444   0.773
60051SOL    HW282051   4.610  13.507   0.756
60052SOL     OW82052   7.676   0.109   0.384
60052SOL    HW182053   7.611   0.052   0.425
60052SOL    HW282054   7.659   0.101   0.290
60053SOL     OW82055   5.457   4.187   5.923
60053SOL    HW182056   5.405   4.136   5.985
60053SOL    HW282057   5.540   4.203   5.968
60054SOL     OW82058   9.108  13.550   6.487
60054SOL    HW182059   9.042  13.602   6.533
60054SOL    HW282060   9.122  13.474   6.543
60055SOL     OW82061  12.537   8.021   1.074
60055SOL    HW182062  12.514   7.929   1.060
60055SOL    HW282063  12.454   8.067   1.068
60056SOL     OW82064  13.316   3.328   6.696
60056SOL    HW182065  13.263   3.399   6.732
60056SOL    HW282066  13.296   3.252   6.750
60057SOL     OW82067   4.173   5.240   0.628
60057SOL    HW182068   4.225   5.301   0.681
60057SOL    HW282069   4.223   5.158   0.630
60058SOL     OW82070   5.370  12.744   3.957
60058SOL    HW182071   5.412  12.696   4.028
60058SOL    HW282072   5.354  12.678   3.890
60059SOL     OW82073  11.402   3.004  13.835
60059SOL    HW182074  11.355   3.087  13.837
60059SOL    HW282075  11.494   3.028  13.824
60060SOL     OW82076   6.318  14.481   6.548
60060SOL    HW182077   6.359  14.560   6.513
60060SOL    HW282078   6.381  14.446   6.610
60061SOL     OW82079  13.227  11.994  14.366
60061SOL    HW182080  13.139  11.958  14.353
60061SOL    HW282081  13.261  11.947  14.442
60062SOL     OW82082   1.559   1.594  10.514
60062SOL    HW182083   1.521   1.599  10.426
60062SOL    HW282084   1.552   1.502  10.539
60063SOL     OW82085   2.997   3.526   1.561
60063SOL    HW182086   3.053   3.598   1.532
60063SOL    HW282087   3.048   3.479   1.626
60064SOL     OW82088  14.475  13.566  14.465
60064SOL    HW182089  14.444  13.650  14.431
60064SOL    HW282090  14.558  13.551  14.419
60065SOL     OW82091   5.373   7.423  12.490
60065SOL    HW182092   5.287   7.438  12.451
60065SOL    HW282093   5.386   7.329  12.485
60066SOL     OW82094  12.385   6.732  13.672
60066SOL    HW182095  12.403   6.748  13.579
60066SOL    HW282096  12.395   6.638  13.682
60067SOL     OW82097   9.040   6.923   3.090
60067SOL    HW182098   9.016   6.868   3.164
60067SOL    HW282099   9.136   6.924   3.091
60068SOL     OW82100  11.723  11.403   5.396
60068SOL    HW182101  11.656  11.341   5.367
60068SOL    HW282102  11.733  11.463   5.322
60069SOL     OW82103  10.483   1.737   2.602
60069SOL    HW182104  10.473   1.642   2.596
60069SOL    HW282105  10.440   1.771   2.523
60070SOL     OW82106  14.570   0.130  12.734
60070SOL    HW182107  14.540   0.121  12.824
60070SOL    HW282108  14.658   0.092  12.733
60071SOL     OW82109   8.356   1.228   4.810
60071SOL    HW182110   8.323   1.251   4.897
60071SOL    HW282111   8.446   1.262   4.809
60072SOL     OW82112   6.853   3.415   2.679
60072SOL    HW182113   6.776   3.428   2.734
60072SOL    HW282114   6.924   3.457   2.727
60073SOL     OW82115   8.547   8.105   0.171
60073SOL    HW182116   8.579   8.192   0.148
60073SOL    HW282117   8.615   8.045   0.138
60074SOL     OW82118   0.678   2.284   2.116
60074SOL    HW182119   0.750   2.302   2.177
60074SOL    HW282120   0.670   2.188   2.117
60075SOL     OW82121   6.933  11.452   6.458
60075SOL    HW182122   6.997  11.408   6.401
60075SOL    HW282123   6.986  11.511   6.512
60076SOL     OW82124   1.920  13.947   9.986
60076SOL    HW182125   1.938  13.894  10.064
60076SOL    HW282126   1.988  14.014   9.985
60077SOL     OW82127   0.810  14.834   2.675
60077SOL    HW182128   0.759   0.033   2.656
60077SOL    HW282129   0.896  14.852   2.637
60078SOL     OW82130   4.810   8.388   3.169
60078SOL    HW182131   4.757   8.338   3.106
60078SOL    HW282132   4.895   8.399   3.126
60079SOL     OW82133   4.415  12.353   7.332
60079SOL    HW182134   4.471  12.419   7.291
60079SOL    HW282135   4.475  12.288   7.368
60080SOL     OW82136   8.786   4.675  14.487
60080SOL    HW182137   8.764   4.583  14.506
60080SOL    HW282138   8.762   4.687  14.396
60081SOL     OW82139  10.640   6.414   7.327
60081SOL    HW182140  10.591   6.497   7.330
60081SOL    HW282141  10.577   6.349   7.359
60082SOL     OW82142   9.254  11.046   9.049
60082SOL    HW182143   9.335  11.029   9.000
60082SOL    HW282144   9.233  10.962   9.089
60083SOL     OW82145   5.645   9.584   7.973
60083SOL    HW182146   5.553   9.609   7.968
60083SOL    HW282147   5.679   9.633   8.049
60084SOL     OW82148  10.649   1.521   7.302
60084SOL    HW182149  10.568   1.477   7.276
60084SOL    HW282150  10.670   1.577   7.228
60085SOL     OW82151   9.792   6.881  13.313
60085SOL    HW182152   9.771   6.884  13.406
60085SOL    HW282153   9.803   6.788  13.294
60086SOL     OW82154   9.069   5.856   9.274
60086SOL    HW182155   9.106   5.921   9.215
60086SOL    HW282156   9.086   5.890   9.362
60087SOL     OW82157   5.412   3.780   6.376
60087SOL    HW182158   5.403   3.874   6.389
60087SOL    HW282159   5.492   3.757   6.422
60088SOL     OW82160  11.647   9.848   9.631
60088SOL    HW182161  11.664   9.824   9.722
60088SOL    HW282162  11.718   9.806   9.582
60089SOL     OW82163   3.294   5.809  14.205
60089SOL    HW182164   3.238   5.882  14.178
60089SOL    HW282165   3.355   5.797  14.132
60090SOL     OW82166  11.827  12.141   1.060
60090SOL    HW182167  11.870  12.083   1.123
60090SOL    HW282168  11.889  12.213   1.046
60091SOL     OW82169   9.118   8.697  14.499
60091SOL    HW182170   9.126   8.642  14.422
60091SOL    HW282171   9.086   8.781  14.466
60092SOL     OW82172   5.649   1.144  10.578
60092SOL    HW182173   5.730   1.191  10.591
60092SOL    HW282174   5.594   1.169  10.652
60093SOL     OW82175  11.530  11.606   3.880
60093SOL    HW182176  11.472  11.658   3.937
60093SOL    HW282177  11.574  11.546   3.940
60094SOL     OW82178   0.673  14.252  10.292
60094SOL    HW182179   0.677  14.193  10.216
60094SOL    HW282180   0.587  14.294  10.285
60095SOL     OW82181  12.714   0.727   9.343
60095SOL    HW182182  12.645   0.760   9.285
60095SOL    HW282183  12.719   0.792   9.413
60096SOL     OW82184   2.708   3.799   1.817
60096SOL    HW182185   2.664   3.786   1.901
60096SOL    HW282186   2.707   3.894   1.805
60097SOL     OW82187   5.220   5.617  13.578
60097SOL    HW182188   5.198   5.703  13.615
60097SOL    HW282189   5.147   5.561  13.604
60098SOL     OW82190   3.370   2.574  11.986
60098SOL    HW182191   3.362   2.588  11.891
60098SOL    HW282192   3.323   2.492  12.002
60099SOL     OW82193   9.531   7.691  12.457
60099SOL    HW182194   9.460   7.627  12.452
60099SOL    HW282195   9.568   7.693  12.369
60100SOL     OW82196  14.532  12.015   5.449
60100SOL    HW182197  14.518  12.069   5.527
60100SOL    HW282198  14.462  11.949   5.453
60101SOL     OW82199   3.373   2.219   9.073
60101SOL    HW182200   3.307   2.193   9.137
60101SOL    HW282201   3.333   2.291   9.024
60102SOL     OW82202   1.985  10.659   8.460
60102SOL    HW182203   2.059  10.611   8.498
60102SOL    HW282204   2.013  10.677   8.370
60103SOL     OW82205   3.652  11.443  12.525
60103SOL    HW182206   3.589  11.468  12.459
60103SOL    HW282207   3.687  11.526  12.558
60104SOL     OW82208  13.350  13.105   1.573
60104SOL    HW182209  13.416  13.100   1.504
60104SOL    HW282210  13.368  13.030   1.630
60105SOL     OW82211  13.570   9.220  11.340
60105SOL    HW182212  13.557   9.284  11.270
60105SOL    HW282213  13.658   9.186  11.326
60106SOL     OW82214  10.965   8.029  11.319
60106SOL    HW182215  10.987   7.941  11.287
60106SOL    HW282216  10.942   8.078  11.240
60107SOL     OW82217   7.609   6.608  10.071
60107SOL    HW182218   7.558   6.653  10.004
60107SOL    HW282219   7.646   6.678  10.124
60108SOL     OW82220  12.967   0.163   2.513
60108SOL    HW182221  12.926   0.109   2.580
60108SOL    HW282222  12.895   0.189   2.456
60109SOL     OW82223   4.093   4.922   6.110
60109SOL    HW182224   4.003   4.947   6.086
60109SOL    HW282225   4.144   4.936   6.031
60110SOL     OW82226   4.595   6.913  10.672
60110SOL    HW182227   4.537   6.875  10.605
60110SOL    HW282228   4.536   6.944  10.740
60111SOL     OW82229   1.795   2.544   0.208
60111SOL    HW182230   1.732   2.472   0.213
60111SOL    HW282231   1.752   2.616   0.253
60112SOL     OW82232   3.297   0.208   4.529
60112SOL    HW182233   3.364   0.251   4.581
60112SOL    HW282234   3.326   0.219   4.438
60113SOL     OW82235   7.936  11.951  14.313
60113SOL    HW182236   7.943  11.882  14.247
60113SOL    HW282237   7.842  11.957  14.331
60114SOL     OW82238  12.083   7.929   5.076
60114SOL    HW182239  12.010   7.868   5.064
60114SOL    HW282240  12.042   8.016   5.073
60115SOL     OW82241   2.401   8.866   3.595
60115SOL    HW182242   2.348   8.862   3.516
60115SOL    HW282243   2.350   8.819   3.661
60116SOL     OW82244  12.109   0.023  10.173
60116SOL    HW182245  12.126   0.069  10.091
60116SOL    HW282246  12.018  14.877  10.168
60117SOL     OW82247   8.822   3.625   3.827
60117SOL    HW182248   8.845   3.714   3.798
60117SOL    HW282249   8.870   3.613   3.909
60118SOL     OW82250   9.383  13.737  10.640
60118SOL    HW182251   9.423  13.822  10.622
60118SOL    HW282252   9.326  13.752  10.715
60119SOL     OW82253  10.415  10.946   2.784
60119SOL    HW182254  10.439  11.031   2.820
60119SOL    HW282255  10.332  10.924   2.827
60120SOL     OW82256  12.384  13.933   0.832
60120SOL    HW182257  12.423  13.923   0.919
60120SOL    HW282258  12.297  13.895   0.840
60121SOL     OW82259   2.400   6.924  11.163
60121SOL    HW182260   2.445   6.897  11.243
60121SOL    HW282261   2.465   6.974  11.114
60122SOL     OW82262   6.971   0.152  12.566
60122SOL    HW182263   6.891   0.139  12.516
60122SOL    HW282264   7.038   0.105  12.517
60123SOL     OW82265   5.360   3.762   8.386
60123SOL    HW182266   5.415   3.831   8.424
60123SOL    HW282267   5.302   3.737   8.457
60124SOL     OW82268   8.503   3.449   0.022
60124SOL    HW182269   8.451   3.468   0.100
60124SOL    HW282270   8.439   3.436  14.833
60125SOL     OW82271  13.059  14.605  14.112
60125SOL    HW182272  12.995  14.639  14.049
60125SOL    HW282273  13.005  14.563  14.180
60126SOL     OW82274   0.189   5.602   5.676
60126SOL    HW182275   0.183   5.697   5.667
60126SOL    HW282276   0.255   5.576   5.612
60127SOL     OW82277   0.188   6.522  11.663
60127SOL    HW182278   0.155   6.444  11.617
60127SOL    HW282279   0.133   6.593  11.631
60128SOL     OW82280   9.890   1.269   5.056
60128SOL    HW182281   9.884   1.344   5.114
60128SOL    HW282282   9.874   1.304   4.969
60129SOL     OW82283   3.602   4.986   7.817
60129SOL    HW182284   3.662   4.966   7.889
60129SOL    HW282285   3.640   5.064   7.776
60130SOL     OW82286   1.768   1.785   2.107
60130SOL    HW182287   1.804   1.733   2.036
60130SOL    HW282288   1.831   1.857   2.119
60131SOL     OW82289  10.073  10.819   6.598
60131SOL    HW182290  10.104  10.795   6.685
60131SOL    HW282291  10.150  10.813   6.542
60132SOL     OW82292   8.393   8.461   3.452
60132SOL    HW182293   8.449   8.520   3.402
60132SOL    HW282294   8.452   8.413   3.509
60133SOL     OW82295  11.457  13.755   8.918
60133SOL    HW182296  11.468  13.726   9.009
60133SOL    HW282297  11.365  13.781   8.913
60134SOL     OW82298   5.944   4.507   1.819
60134SOL    HW182299   5.976   4.431   1.868
60134SOL    HW282300   6.018   4.568   1.818
60135SOL     OW82301   7.202   0.866  13.193
60135SOL    HW182302   7.297   0.853  13.191
60135SOL    HW282303   7.168   0.789  13.238
60136SOL     OW82304   3.056   3.442   9.117
60136SOL    HW182305   2.989   3.498   9.157
60136SOL    HW282306   3.083   3.490   9.038
60137SOL     OW82307   0.848  10.349   9.391
60137SOL    HW182308   0.765  10.384   9.422
60137SOL    HW282309   0.913  10.382   9.453
60138SOL     OW82310   4.643  12.894   3.188
60138SOL    HW182311   4.664  12.912   3.096
60138SOL    HW282312   4.628  12.799   3.191
60139SOL     OW82313   6.801  14.813   3.427
60139SOL    HW182314   6.718  14.834   3.470
60139SOL    HW282315   6.864  14.808   3.499
60140SOL     OW82316   0.364   4.161   9.105
60140SOL    HW182317   0.301   4.094   9.077
60140SOL    HW282318   0.364   4.155   9.200
60141SOL     OW82319   1.532   9.626   8.851
60141SOL    HW182320   1.534   9.533   8.875
60141SOL    HW282321   1.478   9.629   8.772
60142SOL     OW82322  11.258  11.509  14.681
60142SOL    HW182323  11.199  11.565  14.632
60142SOL    HW282324  11.341  11.512  14.632
60143SOL     OW82325   2.629   5.390  14.145
60143SOL    HW182326   2.645   5.319  14.082
60143SOL    HW282327   2.548   5.364  14.189
60144SOL     OW82328   1.925   8.400   4.462
60144SOL    HW182329   1.869   8.337   4.415
60144SOL    HW282330   1.959   8.457   4.393
60145SOL     OW82331  10.385  10.519  13.634
60145SOL    HW182332  10.337  10.595  13.600
60145SOL    HW282333  10.468  10.556  13.666
60146SOL     OW82334   6.000  13.617   0.160
60146SOL    HW182335   6.030  13.705   0.135
60146SOL    HW282336   5.906  13.628   0.176
60147SOL     OW82337  14.134  14.219   9.787
60147SOL    HW182338  14.046  14.238   9.818
60147SOL    HW282339  14.122  14.155   9.717
60148SOL     OW82340   7.229   2.271   3.504
60148SOL    HW182341   7.248   2.229   3.420
60148SOL    HW282342   7.145   2.232   3.531
60149SOL     OW82343   7.428   1.545  10.359
60149SOL    HW182344   7.369   1.539  10.284
60149SOL    HW282345   7.381   1.600  10.422
60150SOL     OW82346  13.870   3.375  14.279
60150SOL    HW182347  13.833   3.427  14.350
60150SOL    HW282348  13.950   3.337  14.315
60151SOL     OW82349   8.530   0.438   2.516
60151SOL    HW182350   8.517   0.359   2.569
60151SOL    HW282351   8.579   0.497   2.572
60152SOL     OW82352   0.951   3.426  14.183
60152SOL    HW182353   0.873   3.464  14.223
60152SOL    HW282354   0.946   3.455  14.091
60153SOL     OW82355   1.418   5.608   3.518
60153SOL    HW182356   1.355   5.665   3.475
60153SOL    HW282357   1.501   5.656   3.514
60154SOL     OW82358   7.941  10.108  12.399
60154SOL    HW182359   7.875  10.041  12.416
60154SOL    HW282360   8.003  10.100  12.472
60155SOL     OW82361   1.145  11.089   8.718
60155SOL    HW182362   1.226  11.065   8.674
60155SOL    HW282363   1.132  11.181   8.696
60156SOL     OW82364   0.520  12.564   6.662
60156SOL    HW182365   0.564  12.479   6.658
60156SOL    HW282366   0.550  12.611   6.584
60157SOL     OW82367   4.349   4.841   7.157
60157SOL    HW182368   4.408   4.767   7.140
60157SOL    HW282369   4.275   4.827   7.099
60158SOL     OW82370  11.129  10.839   4.750
60158SOL    HW182371  11.192  10.866   4.816
60158SOL    HW282372  11.108  10.921   4.703
60159SOL     OW82373   1.675   5.656   1.041
60159SOL    HW182374   1.680   5.561   1.038
60159SOL    HW282375   1.693   5.678   1.133
60160SOL     OW82376   8.326  10.144  12.042
60160SOL    HW182377   8.365  10.065  12.080
60160SOL    HW282378   8.245  10.157  12.091
60161SOL     OW82379   8.441  14.834   7.263
60161SOL    HW182380   8.495   0.033   7.260
60161SOL    HW282381   8.389  14.838   7.182
60162SOL     OW82382   9.263   8.833   3.697
60162SOL    HW182383   9.306   8.848   3.613
60162SOL    HW282384   9.325   8.867   3.762
60163SOL     OW82385   6.713   9.570  11.419
60163SOL    HW182386   6.732   9.522  11.339
60163SOL    HW282387   6.646   9.633  11.395
60164SOL     OW82388   6.975   8.503  10.107
60164SOL    HW182389   7.008   8.581  10.062
60164SOL    HW282390   6.913   8.537  10.171
60165SOL     OW82391   0.613   5.042   7.409
60165SOL    HW182392   0.661   5.014   7.331
60165SOL    HW282393   0.676   5.096   7.457
60166SOL     OW82394   9.038   5.458   7.391
60166SOL    HW182395   8.948   5.491   7.397
60166SOL    HW282396   9.058   5.462   7.297
60167SOL     OW82397   1.678  12.907   9.273
60167SOL    HW182398   1.753  12.966   9.272
60167SOL    HW282399   1.614  12.949   9.330
60168SOL     OW82400   0.780   9.223  14.816
60168SOL    HW182401   0.869   9.255  14.829
60168SOL    HW282402   0.790   9.135  14.781
60169SOL     OW82403   7.827  12.959   2.264
60169SOL    HW182404   7.797  13.034   2.212
60169SOL    HW282405   7.771  12.886   2.236
60170SOL     OW82406   3.681  11.245   3.573
60170SOL    HW182407   3.651  11.301   3.502
60170SOL    HW282408   3.770  11.219   3.547
60171SOL     OW82409   7.028   7.578   5.733
60171SOL    HW182410   7.109   7.592   5.783
60171SOL    HW282411   6.980   7.512   5.784
60172SOL     OW82412   6.710   9.790   1.282
60172SOL    HW182413   6.685   9.714   1.230
60172SOL    HW282414   6.762   9.845   1.223
60173SOL     OW82415  11.483   4.060   0.562
60173SOL    HW182416  11.522   4.127   0.505
60173SOL    HW282417  11.399   4.040   0.521
60174SOL     OW82418  13.071  10.174   7.485
60174SOL    HW182419  13.030  10.105   7.537
60174SOL    HW282420  13.015  10.183   7.408
60175SOL     OW82421   4.862  10.400   6.527
60175SOL    HW182422   4.768  10.409   6.542
60175SOL    HW282423   4.875  10.307   6.510
60176SOL     OW82424  10.315   5.377   3.789
60176SOL    HW182425  10.347   5.464   3.763
60176SOL    HW282426  10.387   5.338   3.838
60177SOL     OW82427   0.123  10.040   5.872
60177SOL    HW182428   0.159   9.956   5.844
60177SOL    HW282429   0.041  10.017   5.915
60178SOL     OW82430   6.498  12.616   8.068
60178SOL    HW182431   6.542  12.694   8.034
60178SOL    HW282432   6.409  12.645   8.089
60179SOL     OW82433  12.375   4.569   8.852
60179SOL    HW182434  12.437   4.571   8.779
60179SOL    HW282435  12.294   4.534   8.814
60180SOL     OW82436   7.709  10.798   0.157
60180SOL    HW182437   7.663  10.882   0.161
60180SOL    HW282438   7.760  10.795   0.238
60181SOL     OW82439   6.454   4.049  14.163
60181SOL    HW182440   6.435   4.006  14.080
60181SOL    HW282441   6.390   4.120  14.170
60182SOL     OW82442  14.363   4.960  14.181
60182SOL    HW182443  14.373   5.040  14.233
60182SOL    HW282444  14.339   4.893  14.245
60183SOL     OW82445  11.494  14.682   6.642
60183SOL    HW182446  11.436  14.615   6.679
60183SOL    HW282447  11.460  14.697   6.554
60184SOL     OW82448   6.094   3.313  11.427
60184SOL    HW182449   6.128   3.256  11.496
60184SOL    HW282450   6.161   3.380  11.416
60185SOL     OW82451   8.350   2.208   9.123
60185SOL    HW182452   8.362   2.117   9.148
60185SOL    HW282453   8.403   2.257   9.186
60186SOL     OW82454   2.056  14.478   9.209
60186SOL    HW182455   2.066  14.518   9.123
60186SOL    HW282456   2.077  14.385   9.195
60187SOL     OW82457   0.665  10.067   7.294
60187SOL    HW182458   0.735  10.131   7.280
60187SOL    HW282459   0.673  10.006   7.221
60188SOL     OW82460   3.271   9.467   1.369
60188SOL    HW182461   3.304   9.467   1.460
60188SOL    HW282462   3.350   9.463   1.316
60189SOL     OW82463  14.531   7.365   8.001
60189SOL    HW182464  14.500   7.322   8.080
60189SOL    HW282465  14.621   7.335   7.990
60190SOL     OW82466   2.385  12.437   5.977
60190SOL    HW182467   2.412  12.517   5.933
60190SOL    HW282468   2.352  12.466   6.062
60191SOL     OW82469   8.027   9.159   0.151
60191SOL    HW182470   7.966   9.206   0.208
60191SOL    HW282471   8.031   9.212   0.071
60192SOL     OW82472   4.816   7.729   7.013
60192SOL    HW182473   4.782   7.799   7.069
60192SOL    HW282474   4.826   7.654   7.072
60193SOL     OW82475  13.539   4.494  12.811
60193SOL    HW182476  13.572   4.413  12.850
60193SOL    HW282477  13.465   4.519  12.866
60194SOL     OW82478  11.841   9.103  12.948
60194SOL    HW182479  11.748   9.090  12.929
60194SOL    HW282480  11.845   9.109  13.043
60195SOL     OW82481  11.910   0.907  14.054
60195SOL    HW182482  11.882   0.921  13.963
60195SOL    HW282483  11.902   0.813  14.068
60196SOL     OW82484  14.325   2.801   5.964
60196SOL    HW182485  14.301   2.713   5.936
60196SOL    HW282486  14.315   2.855   5.886
60197SOL     OW82487   3.114   9.759   2.653
60197SOL    HW182488   3.118   9.812   2.733
60197SOL    HW282489   3.196   9.776   2.608
60198SOL     OW82490   8.236   9.315  11.018
60198SOL    HW182491   8.268   9.405  11.025
60198SOL    HW282492   8.172   9.307  11.088
60199SOL     OW82493   5.524  14.214   9.537
60199SOL    HW182494   5.554  14.302   9.511
60199SOL    HW282495   5.535  14.213   9.632
60200SOL     OW82496   3.397  10.233   2.808
60200SOL    HW182497   3.366  10.269   2.724
60200SOL    HW282498   3.492  10.229   2.798
60201SOL     OW82499   2.926   5.298   2.081
60201SOL    HW182500   2.884   5.308   2.167
60201SOL    HW282501   2.944   5.205   2.074
60202SOL     OW82502   3.850   8.600  12.405
60202SOL    HW182503   3.793   8.628  12.334
60202SOL    HW282504   3.854   8.676  12.464
60203SOL     OW82505  14.190   0.624   1.045
60203SOL    HW182506  14.175   0.530   1.037
60203SOL    HW282507  14.134   0.662   0.977
60204SOL     OW82508  10.253   8.256  14.785
60204SOL    HW182509  10.162   8.229  14.799
60204SOL    HW282510  10.284   8.281  14.872
60205SOL     OW82511   0.993   4.579  12.801
60205SOL    HW182512   1.001   4.664  12.757
60205SOL    HW282513   1.057   4.584  12.873
60206SOL     OW82514  12.931  14.855  13.534
60206SOL    HW182515  12.894  14.829  13.449
60206SOL    HW282516  12.945   0.069  13.526
60207SOL     OW82517   6.266  11.732  12.771
60207SOL    HW182518   6.341  11.673  12.770
60207SOL    HW282519   6.244  11.742  12.863
60208SOL     OW82520   2.795  10.595   4.099
60208SOL    HW182521   2.753  10.613   4.184
60208SOL    HW282522   2.816  10.682   4.065
60209SOL     OW82523   2.841   7.131  12.731
60209SOL    HW182524   2.822   7.042  12.702
60209SOL    HW282525   2.920   7.156  12.683
60210SOL     OW82526   4.634   9.454   8.717
60210SOL    HW182527   4.582   9.486   8.791
60210SOL    HW282528   4.655   9.363   8.740
60211SOL     OW82529  13.963  11.769   5.861
60211SOL    HW182530  13.988  11.700   5.800
60211SOL    HW282531  14.021  11.757   5.936
60212SOL     OW82532   9.716   0.416   2.623
60212SOL    HW182533   9.707   0.326   2.592
60212SOL    HW282534   9.685   0.470   2.550
60213SOL     OW82535   3.626   8.667   9.186
60213SOL    HW182536   3.573   8.672   9.106
60213SOL    HW282537   3.673   8.750   9.188
60214SOL     OW82538  12.722  13.214   0.324
60214SOL    HW182539  12.733  13.217   0.229
60214SOL    HW282540  12.804  13.176   0.356
60215SOL     OW82541  12.477  14.839   6.662
60215SOL    HW182542  12.406  14.823   6.600
60215SOL    HW282543  12.485   0.054   6.666
60216SOL     OW82544   4.537   2.590  13.966
60216SOL    HW182545   4.612   2.648  13.950
60216SOL    HW282546   4.463   2.650  13.977
60217SOL     OW82547  13.991   3.480  11.089
60217SOL    HW182548  13.965   3.457  10.999
60217SOL    HW282549  14.074   3.435  11.103
60218SOL     OW82550   1.005   1.101  14.212
60218SOL    HW182551   1.025   1.095  14.306
60218SOL    HW282552   0.968   1.016  14.190
60219SOL     OW82553   9.129   9.979  10.770
60219SOL    HW182554   9.126  10.071  10.796
60219SOL    HW282555   9.145   9.931  10.851
60220SOL     OW82556   5.283   1.376   7.072
60220SOL    HW182557   5.356   1.414   7.024
60220SOL    HW282558   5.205   1.414   7.032
60221SOL     OW82559   4.100   6.451   5.845
60221SOL    HW182560   4.126   6.521   5.905
60221SOL    HW282561   4.181   6.426   5.800
60222SOL     OW82562   2.274   3.004   6.454
60222SOL    HW182563   2.235   3.000   6.541
60222SOL    HW282564   2.319   2.919   6.444
60223SOL     OW82565  14.676  11.537   6.901
60223SOL    HW182566  14.622  11.580   6.835
60223SOL    HW282567  14.712  11.609   6.953
60224SOL     OW82568   9.326   8.667   3.990
60224SOL    HW182569   9.408   8.618   3.990
60224SOL    HW282570   9.271   8.623   3.926
60225SOL     OW82571   8.248  12.584   2.725
60225SOL    HW182572   8.177  12.649   2.719
60225SOL    HW282573   8.309  12.620   2.789
60226SOL     OW82574  11.510   7.089   9.426
60226SOL    HW182575  11.594   7.100   9.469
60226SOL    HW282576  11.524   7.020   9.361
60227SOL     OW82577   0.367   9.494   1.547
60227SOL    HW182578   0.284   9.456   1.578
60227SOL    HW282579   0.397   9.433   1.480
60228SOL     OW82580   6.285  12.131   5.344
60228SOL    HW182581   6.236  12.081   5.409
60228SOL    HW282582   6.362  12.077   5.325
60229SOL     OW82583   5.269   6.617  12.048
60229SOL    HW182584   5.184   6.659  12.065
60229SOL    HW282585   5.289   6.641  11.958
60230SOL     OW82586  10.022  13.553   6.816
60230SOL    HW182587   9.953  13.589   6.871
60230SOL    HW282588  10.014  13.600   6.733
60231SOL     OW82589  14.301   2.442   9.303
60231SOL    HW182590  14.379   2.441   9.359
60231SOL    HW282591  14.290   2.352   9.274
60232SOL     OW82592   4.800   3.487   8.040
60232SOL    HW182593   4.711   3.472   8.073
60232SOL    HW282594   4.839   3.547   8.103
60233SOL     OW82595   2.734   4.118   0.639
60233SOL    HW182596   2.672   4.173   0.688
60233SOL    HW282597   2.820   4.144   0.673
60234SOL     OW82598   6.001   0.759  13.334
60234SOL    HW182599   6.011   0.844  13.377
60234SOL    HW282600   6.091   0.726  13.325
60235SOL     OW82601  10.012  12.901   2.765
60235SOL    HW182602  10.057  12.947   2.694
60235SOL    HW282603  10.024  12.958   2.841
60236SOL     OW82604   3.841   7.695   4.370
60236SOL    HW182605   3.902   7.740   4.428
60236SOL    HW282606   3.895   7.630   4.324
60237SOL     OW82607  13.548  13.842   2.283
60237SOL    HW182608  13.556  13.791   2.363
60237SOL    HW282609  13.631  13.889   2.275
60238SOL     OW82610  14.421   2.642  11.408
60238SOL    HW182611  14.361   2.569  11.420
60238SOL    HW282612  14.492   2.626  11.471
60239SOL     OW82613   5.074  10.728  10.715
60239SOL    HW182614   5.035  10.683  10.790
60239SOL    HW282615   5.133  10.793  10.754
60240SOL     OW82616   6.694   0.046  12.721
60240SOL    HW182617   6.656  14.841  12.742
60240SOL    HW282618   6.704   0.045  12.626
60241SOL     OW82619   5.909   1.583   0.597
60241SOL    HW182620   5.844   1.545   0.539
60241SOL    HW282621   5.863   1.593   0.681
60242SOL     OW82622   6.985   0.570   9.008
60242SOL    HW182623   7.030   0.530   8.933
60242SOL    HW282624   6.967   0.498   9.067
60243SOL     OW82625   4.063   9.577   5.862
60243SOL    HW182626   4.004   9.503   5.880
60243SOL    HW282627   4.149   9.547   5.893
60244SOL     OW82628  11.880  14.362   9.901
60244SOL    HW182629  11.805  14.313   9.935
60244SOL    HW282630  11.888  14.333   9.810
60245SOL     OW82631   9.166  11.749   2.445
60245SOL    HW182632   9.147  11.732   2.537
60245SOL    HW282633   9.113  11.826   2.423
60246SOL     OW82634   0.023   9.840  10.240
60246SOL    HW182635   0.044   9.848  10.333
60246SOL    HW282636   0.001   9.929  10.213
60247SOL     OW82637   2.569   2.445   7.087
60247SOL    HW182638   2.476   2.455   7.063
60247SOL    HW282639   2.569   2.377   7.155
60248SOL     OW82640   0.829   6.406   2.891
60248SOL    HW182641   0.900   6.442   2.837
60248SOL    HW282642   0.855   6.316   2.908
60249SOL     OW82643   1.420   9.915  11.292
60249SOL    HW182644   1.450   9.987  11.347
60249SOL    HW282645   1.435   9.836  11.344
60250SOL     OW82646  12.693   8.645  13.490
60250SOL    HW182647  12.751   8.570  13.476
60250SOL    HW282648  12.643   8.652  13.408
60251SOL     OW82649  12.218   1.167  13.763
60251SOL    HW182650  12.177   1.082  13.746
60251SOL    HW282651  12.188   1.223  13.692
60252SOL     OW82652   0.707   6.604   7.279
60252SOL    HW182653   0.639   6.549   7.239
60252SOL    HW282654   0.760   6.542   7.330
60253SOL     OW82655  11.659   3.638  13.638
60253SOL    HW182656  11.749   3.669  13.624
60253SOL    HW282657  11.641   3.661  13.729
60254SOL     OW82658   2.963   6.378   8.317
60254SOL    HW182659   2.875   6.408   8.296
60254SOL    HW282660   2.966   6.377   8.412
60255SOL     OW82661  11.716   8.322   8.267
60255SOL    HW182662  11.735   8.244   8.216
60255SOL    HW282663  11.643   8.364   8.220
60256SOL     OW82664  10.833   7.803   5.201
60256SOL    HW182665  10.774   7.740   5.159
60256SOL    HW282666  10.820   7.789   5.295
60257SOL     OW82667   1.323  10.352   5.594
60257SOL    HW182668   1.301  10.260   5.581
60257SOL    HW282669   1.402  10.366   5.543
60258SOL     OW82670   7.250   2.418   0.566
60258SOL    HW182671   7.231   2.349   0.503
60258SOL    HW282672   7.337   2.450   0.541
60259SOL     OW82673   8.434   2.699  14.651
60259SOL    HW182674   8.511   2.658  14.691
60259SOL    HW282675   8.439   2.790  14.678
60260SOL     OW82676   4.240  10.748   2.927
60260SOL    HW182677   4.145  10.740   2.933
60260SOL    HW282678   4.256  10.766   2.834
60261SOL     OW82679   2.454   6.070  13.976
60261SOL    HW182680   2.430   6.077  13.883
60261SOL    HW282681   2.381   6.023  14.016
60262SOL     OW82682  14.430  10.586   9.800
60262SOL    HW182683  14.471  10.643   9.865
60262SOL    HW282684  14.406  10.644   9.728
60263SOL     OW82685  12.104  11.728   9.781
60263SOL    HW182686  12.168  11.658   9.796
60263SOL    HW282687  12.053  11.698   9.706
60264SOL     OW82688   7.038   2.127  12.619
60264SOL    HW182689   7.054   2.045  12.666
60264SOL    HW282690   7.066   2.195  12.679
60265SOL     OW82691   8.479   3.736   7.213
60265SOL    HW182692   8.435   3.815   7.242
60265SOL    HW282693   8.409   3.673   7.200
60266SOL     OW82694  14.058   1.875   3.775
60266SOL    HW182695  14.052   1.797   3.720
60266SOL    HW282696  14.132   1.857   3.834
60267SOL     OW82697   0.343   1.045   4.562
60267SOL    HW182698   0.399   0.971   4.538
60267SOL    HW282699   0.260   1.005   4.586
60268SOL     OW82700   3.379   4.081   6.214
60268SOL    HW182701   3.380   4.161   6.162
60268SOL    HW282702   3.368   4.112   6.304
60269SOL     OW82703   9.309   5.545   1.901
60269SOL    HW182704   9.304   5.460   1.857
60269SOL    HW282705   9.306   5.524   1.995
60270SOL     OW82706  11.767   1.470   4.978
60270SOL    HW182707  11.791   1.381   5.004
60270SOL    HW282708  11.776   1.469   4.883
60271SOL     OW82709   3.807   0.080   0.864
60271SOL    HW182710   3.741   0.037   0.920
60271SOL    HW282711   3.756   0.123   0.796
60272SOL     OW82712   0.849   2.113   2.671
60272SOL    HW182713   0.765   2.075   2.696
60272SOL    HW282714   0.907   2.095   2.745
60273SOL     OW82715   5.613   2.743   7.512
60273SOL    HW182716   5.603   2.820   7.569
60273SOL    HW282717   5.538   2.748   7.453
60274SOL     OW82718  14.763   9.627   7.460
60274SOL    HW182719  14.755   9.671   7.545
60274SOL    HW282720  14.750   9.534   7.479
60275SOL     OW82721   0.452   4.924   9.988
60275SOL    HW182722   0.538   4.920   9.946
60275SOL    HW282723   0.401   4.856   9.945
60276SOL     OW82724  14.430   8.063   7.798
60276SOL    HW182725  14.458   7.981   7.840
60276SOL    HW282726  14.422   8.125   7.870
60277SOL     OW82727   2.994   7.167   9.659
60277SOL    HW182728   2.910   7.124   9.642
60277SOL    HW282729   3.060   7.103   9.632
60278SOL     OW82730   0.689  10.378   1.687
60278SOL    HW182731   0.773  10.423   1.679
60278SOL    HW282732   0.708  10.287   1.664
60279SOL     OW82733  12.031  10.823   0.257
60279SOL    HW182734  12.068  10.912   0.251
60279SOL    HW282735  12.089  10.770   0.203
60280SOL     OW82736   1.043  13.286   4.376
60280SOL    HW182737   1.037  13.250   4.464
60280SOL    HW282738   1.018  13.377   4.386
60281SOL     OW82739   8.013   9.903   2.813
60281SOL    HW182740   7.950   9.864   2.752
60281SOL    HW282741   7.990   9.867   2.898
60282SOL     OW82742  11.085   2.757   6.230
60282SOL    HW182743  11.038   2.679   6.260
60282SOL    HW282744  11.062   2.763   6.137
60283SOL     OW82745   3.691   1.438   8.776
60283SOL    HW182746   3.754   1.510   8.776
60283SOL    HW282747   3.712   1.389   8.856
60284SOL     OW82748  10.440   0.627   0.966
60284SOL    HW182749  10.507   0.584   0.914
60284SOL    HW282750  10.404   0.558   1.021
60285SOL     OW82751   2.177   5.559  13.157
60285SOL    HW182752   2.089   5.540  13.124
60285SOL    HW282753   2.209   5.475  13.190
60286SOL     OW82754   7.899   2.819   1.779
60286SOL    HW182755   7.869   2.886   1.841
60286SOL    HW282756   7.818   2.777   1.749
60287SOL     OW82757   8.029  10.991   6.739
60287SOL    HW182758   7.941  10.993   6.703
60287SOL    HW282759   8.047  10.899   6.756
60288SOL     OW82760   0.059   6.021   3.595
60288SOL    HW182761   0.025   5.933   3.615
60288SOL    HW282762  14.873   6.080   3.630
60289SOL     OW82763   6.087   2.883   1.616
60289SOL    HW182764   6.100   2.878   1.711
60289SOL    HW282765   6.039   2.804   1.594
60290SOL     OW82766  13.574   6.109   0.866
60290SOL    HW182767  13.557   6.015   0.865
60290SOL    HW282768  13.580   6.133   0.773
60291SOL     OW82769  10.104   0.475   1.924
60291SOL    HW182770  10.025   0.448   1.878
60291SOL    HW282771  10.163   0.504   1.854
60292SOL     OW82772  14.505   9.408   7.596
60292SOL    HW182773  14.467   9.457   7.523
60292SOL    HW282774  14.587   9.374   7.562
60293SOL     OW82775   8.861   7.825  13.798
60293SOL    HW182776   8.851   7.825  13.703
60293SOL    HW282777   8.788   7.878  13.830
60294SOL     OW82778  14.517  13.109   8.955
60294SOL    HW182779  14.540  13.028   8.910
60294SOL    HW282780  14.558  13.178   8.903
60295SOL     OW82781  13.971   5.203  14.751
60295SOL    HW182782  13.885   5.164  14.736
60295SOL    HW282783  13.965   5.290  14.712
60296SOL     OW82784   5.482   8.137   1.683
60296SOL    HW182785   5.572   8.160   1.662
60296SOL    HW282786   5.462   8.061   1.627
60297SOL     OW82787   4.727   5.740   8.046
60297SOL    HW182788   4.775   5.819   8.072
60297SOL    HW282789   4.753   5.725   7.955
60298SOL     OW82790   4.689  11.202   2.334
60298SOL    HW182791   4.627  11.224   2.404
60298SOL    HW282792   4.634  11.177   2.260
60299SOL     OW82793   0.652   1.078   7.148
60299SOL    HW182794   0.609   1.144   7.203
60299SOL    HW282795   0.611   0.995   7.175
60300SOL     OW82796   0.456   6.271  12.610
60300SOL    HW182797   0.484   6.334  12.676
60300SOL    HW282798   0.466   6.317  12.527
60301SOL     OW82799   5.738   3.440  14.596
60301SOL    HW182800   5.735   3.369  14.660
60301SOL    HW282801   5.719   3.397  14.512
60302SOL     OW82802  12.752  13.894  11.132
60302SOL    HW182803  12.696  13.817  11.121
60302SOL    HW282804  12.774  13.920  11.043
60303SOL     OW82805   6.536   1.818   1.561
60303SOL    HW182806   6.614   1.822   1.617
60303SOL    HW282807   6.527   1.726   1.539
60304SOL     OW82808   5.656   2.829   0.026
60304SOL    HW182809   5.637   2.922   0.033
60304SOL    HW282810   5.744   2.819   0.061
60305SOL     OW82811  12.361   7.564   6.223
60305SOL    HW182812  12.303   7.490   6.243
60305SOL    HW282813  12.447   7.525   6.209
60306SOL     OW82814   7.852   8.941   1.019
60306SOL    HW182815   7.908   8.992   1.078
60306SOL    HW282816   7.769   8.989   1.017
60307SOL     OW82817  11.197   6.018   7.398
60307SOL    HW182818  11.131   5.991   7.463
60307SOL    HW282819  11.148   6.070   7.334
60308SOL     OW82820   5.772   5.244  13.953
60308SOL    HW182821   5.704   5.185  13.920
60308SOL    HW282822   5.724   5.322  13.982
60309SOL     OW82823   9.851   9.164  12.573
60309SOL    HW182824   9.894   9.114  12.504
60309SOL    HW282825   9.761   9.132  12.574
60310SOL     OW82826  12.255  10.475   3.953
60310SOL    HW182827  12.306  10.538   3.902
60310SOL    HW282828  12.321  10.421   3.997
60311SOL     OW82829   9.320   0.186   8.910
60311SOL    HW182830   9.342   0.146   8.994
60311SOL    HW282831   9.394   0.165   8.853
60312SOL     OW82832   6.754   8.753   8.567
60312SOL    HW182833   6.802   8.693   8.510
60312SOL    HW282834   6.663   8.747   8.538
60313SOL     OW82835  10.481  13.770   5.820
60313SOL    HW182836  10.527  13.690   5.793
60313SOL    HW282837  10.389  13.745   5.826
60314SOL     OW82838   4.450  11.174   3.885
60314SOL    HW182839   4.386  11.108   3.858
60314SOL    HW282840   4.498  11.133   3.957
60315SOL     OW82841   6.095   2.378  13.417
60315SOL    HW182842   6.066   2.390  13.507
60315SOL    HW282843   6.177   2.428  13.411
60316SOL     OW82844   0.025   9.165   2.770
60316SOL    HW182845   0.052   9.251   2.802
60316SOL    HW282846  14.827   9.144   2.821
60317SOL     OW82847  13.021  12.354  11.015
60317SOL    HW182848  12.995  12.282  10.958
60317SOL    HW282849  13.080  12.315  11.079
60318SOL     OW82850  10.020  12.755  13.398
60318SOL    HW182851  10.058  12.745  13.311
60318SOL    HW282852   9.935  12.712  13.392
60319SOL     OW82853   9.304   8.898  12.315
60319SOL    HW182854   9.314   8.829  12.249
60319SOL    HW282855   9.223   8.875  12.361
60320SOL     OW82856   8.703  13.483   0.287
60320SOL    HW182857   8.767  13.489   0.215
60320SOL    HW282858   8.742  13.537   0.357
60321SOL     OW82859   7.448   5.973   5.981
60321SOL    HW182860   7.515   5.976   5.913
60321SOL    HW282861   7.474   6.039   6.045
60322SOL     OW82862   0.925   8.852   5.984
60322SOL    HW182863   0.933   8.762   6.016
60322SOL    HW282864   0.845   8.852   5.932
60323SOL     OW82865  10.552  11.212   8.903
60323SOL    HW182866  10.546  11.238   8.995
60323SOL    HW282867  10.492  11.271   8.858
60324SOL     OW82868  14.861  10.414  12.005
60324SOL    HW182869  14.835  10.328  12.037
60324SOL    HW282870  14.789  10.472  12.030
60325SOL     OW82871   1.373   2.978   0.297
60325SOL    HW182872   1.425   2.912   0.343
60325SOL    HW282873   1.362   3.049   0.361
60326SOL     OW82874  12.875  11.842   9.516
60326SOL    HW182875  12.952  11.816   9.464
60326SOL    HW282876  12.907  11.843   9.606
60327SOL     OW82877   8.107   1.279   7.050
60327SOL    HW182878   8.179   1.224   7.081
60327SOL    HW282879   8.121   1.363   7.093
60328SOL     OW82880   4.274   4.330   7.252
60328SOL    HW182881   4.270   4.418   7.291
60328SOL    HW282882   4.329   4.280   7.312
60329SOL     OW82883  12.137   6.955   7.588
60329SOL    HW182884  12.083   6.894   7.539
60329SOL    HW282885  12.082   6.981   7.663
60330SOL     OW82886   4.757  11.183   7.180
60330SOL    HW182887   4.813  11.142   7.246
60330SOL    HW282888   4.763  11.277   7.198
60331SOL     OW82889   8.499  13.545   0.599
60331SOL    HW182890   8.457  13.529   0.684
60331SOL    HW282891   8.512  13.457   0.563
60332SOL     OW82892   4.619  14.623   5.209
60332SOL    HW182893   4.705  14.581   5.221
60332SOL    HW282894   4.586  14.635   5.298
60333SOL     OW82895  14.271   7.163  10.659
60333SOL    HW182896  14.248   7.191  10.571
60333SOL    HW282897  14.210   7.091  10.678
60334SOL     OW82898   4.712   0.279   6.393
60334SOL    HW182899   4.643   0.261   6.457
60334SOL    HW282900   4.792   0.250   6.436
60335SOL     OW82901   8.475  14.667  14.571
60335SOL    HW182902   8.471  14.724  14.494
60335SOL    HW282903   8.443  14.582  14.540
60336SOL     OW82904   7.915  10.605   9.150
60336SOL    HW182905   7.967  10.556   9.087
60336SOL    HW282906   7.930  10.697   9.129
60337SOL     OW82907   2.303  13.017   6.465
60337SOL    HW182908   2.385  12.969   6.450
60337SOL    HW282909   2.241  12.979   6.404
60338SOL     OW82910   8.042   1.306   6.756
60338SOL    HW182911   8.071   1.331   6.843
60338SOL    HW282912   7.946   1.313   6.759
60339SOL     OW82913  12.355   7.507   0.547
60339SOL    HW182914  12.428   7.464   0.503
60339SOL    HW282915  12.362   7.480   0.638
60340SOL     OW82916   6.703  11.412  10.662
60340SOL    HW182917   6.778  11.472  10.668
60340SOL    HW282918   6.727  11.350  10.594
60341SOL     OW82919   0.768   1.383  13.772
60341SOL    HW182920   0.823   1.341  13.838
60341SOL    HW282921   0.737   1.463  13.815
60342SOL     OW82922   2.281  13.319  12.257
60342SOL    HW182923   2.213  13.252  12.255
60342SOL    HW282924   2.291  13.346  12.165
60343SOL     OW82925   4.526  13.527   3.290
60343SOL    HW182926   4.480  13.532   3.206
60343SOL    HW282927   4.598  13.466   3.275
60344SOL     OW82928  11.545  11.080   2.577
60344SOL    HW182929  11.470  11.130   2.608
60344SOL    HW282930  11.620  11.140   2.589
60345SOL     OW82931   4.805  13.477  11.332
60345SOL    HW182932   4.783  13.500  11.423
60345SOL    HW282933   4.889  13.433  11.339
60346SOL     OW82934   4.173  11.814  13.102
60346SOL    HW182935   4.147  11.820  13.193
60346SOL    HW282936   4.154  11.723  13.078
60347SOL     OW82937   6.696   4.894   5.272
60347SOL    HW182938   6.629   4.935   5.218
60347SOL    HW282939   6.718   4.813   5.226
60348SOL     OW82940   8.160  10.839   7.853
60348SOL    HW182941   8.087  10.862   7.795
60348SOL    HW282942   8.190  10.923   7.888
60349SOL     OW82943  11.463   5.706   0.291
60349SOL    HW182944  11.558   5.721   0.284
60349SOL    HW282945  11.425   5.772   0.233
60350SOL     OW82946   4.510   2.152   7.258
60350SOL    HW182947   4.584   2.171   7.200
60350SOL    HW282948   4.501   2.057   7.256
60351SOL     OW82949  12.749   9.860   2.147
60351SOL    HW182950  12.669   9.898   2.110
60351SOL    HW282951  12.719   9.807   2.220
60352SOL     OW82952  13.257   6.149  14.612
60352SOL    HW182953  13.165   6.122  14.620
60352SOL    HW282954  13.288   6.154  14.703
60353SOL     OW82955   7.510   2.891   4.720
60353SOL    HW182956   7.519   2.937   4.803
60353SOL    HW282957   7.468   2.954   4.661
60354SOL     OW82958   1.857  12.264   6.282
60354SOL    HW182959   1.813  12.325   6.223
60354SOL    HW282960   1.798  12.189   6.289
60355SOL     OW82961   2.828   5.233   8.337
60355SOL    HW182962   2.886   5.159   8.321
60355SOL    HW282963   2.879   5.294   8.390
60356SOL     OW82964   8.995   3.670   9.943
60356SOL    HW182965   8.985   3.765   9.932
60356SOL    HW282966   9.089   3.654   9.934
60357SOL     OW82967  10.851  13.615  11.171
60357SOL    HW182968  10.933  13.570  11.152
60357SOL    HW282969  10.786  13.571  11.115
60358SOL     OW82970   6.191   5.178   6.414
60358SOL    HW182971   6.122   5.205   6.353
60358SOL    HW282972   6.144   5.156   6.494
60359SOL     OW82973   4.131   5.492   2.944
60359SOL    HW182974   4.097   5.555   3.007
60359SOL    HW282975   4.153   5.415   2.996
60360SOL     OW82976  10.274   5.127   8.963
60360SOL    HW182977  10.208   5.192   8.986
60360SOL    HW282978  10.241   5.046   9.001
60361SOL     OW82979   9.915  12.881   0.290
60361SOL    HW182980   9.833  12.926   0.267
60361SOL    HW282981   9.907  12.863   0.383
60362SOL     OW82982  11.007   6.616   4.448
60362SOL    HW182983  10.915   6.603   4.468
60362SOL    HW282984  11.021   6.710   4.460
60363SOL     OW82985  14.432   3.622   9.890
60363SOL    HW182986  14.342   3.642   9.864
60363SOL    HW282987  14.435   3.526   9.893
60364SOL     OW82988   4.066  10.768   9.929
60364SOL    HW182989   4.000  10.731   9.870
60364SOL    HW282990   4.149  10.737   9.894
60365SOL     OW82991   0.300   5.945   1.477
60365SOL    HW182992   0.351   5.980   1.404
60365SOL    HW282993   0.319   6.004   1.550
60366SOL     OW82994   7.948  10.162   0.274
60366SOL    HW182995   8.004  10.183   0.199
60366SOL    HW282996   7.870  10.122   0.234
60367SOL     OW82997   1.628   1.380   9.918
60367SOL    HW182998   1.583   1.298   9.896
60367SOL    HW282999   1.568   1.449   9.890
60368SOL     OW83000   1.213   1.861   9.137
60368SOL    HW183001   1.300   1.850   9.098
60368SOL    HW283002   1.164   1.784   9.109
60369SOL     OW83003   1.358  12.887   4.155
60369SOL    HW183004   1.270  12.861   4.128
60369SOL    HW283005   1.376  12.834   4.233
60370SOL     OW83006  12.112  13.931   0.136
60370SOL    HW183007  12.141  13.912   0.225
60370SOL    HW283008  12.019  13.953   0.145
60371SOL     OW83009  11.178  14.085  11.953
60371SOL    HW183010  11.116  14.147  11.914
60371SOL    HW283011  11.202  14.027  11.881
60372SOL     OW83012  12.526   2.485   4.647
60372SOL    HW183013  12.493   2.545   4.580
60372SOL    HW283014  12.621   2.485   4.635
60373SOL     OW83015  10.729   1.152   8.189
60373SOL    HW183016  10.690   1.097   8.257
60373SOL    HW283017  10.769   1.090   8.128
60374SOL     OW83018   3.626  11.914  13.831
60374SOL    HW183019   3.559  11.953  13.888
60374SOL    HW283020   3.642  11.980  13.764
60375SOL     OW83021   1.688   9.659  13.710
60375SOL    HW183022   1.671   9.605  13.633
60375SOL    HW283023   1.606   9.707  13.724
60376SOL     OW83024   0.662   1.124   1.074
60376SOL    HW183025   0.571   1.111   1.049
60376SOL    HW283026   0.658   1.183   1.149
60377SOL     OW83027  13.073  13.538   7.388
60377SOL    HW183028  13.095  13.473   7.321
60377SOL    HW283029  13.092  13.623   7.346
60378SOL     OW83030   6.805   4.942   2.064
60378SOL    HW183031   6.733   4.932   2.002
60378SOL    HW283032   6.875   4.887   2.028
60379SOL     OW83033  10.214   1.800   2.026
60379SOL    HW183034  10.231   1.775   1.936
60379SOL    HW283035  10.242   1.892   2.031
60380SOL     OW83036   9.938   5.993   5.412
60380SOL    HW183037   9.973   6.039   5.488
60380SOL    HW283038  10.010   5.990   5.350
60381SOL     OW83039  12.776   3.087  13.938
60381SOL    HW183040  12.702   3.140  13.908
60381SOL    HW283041  12.814   3.139  14.009
60382SOL     OW83042   6.725   9.462  13.018
60382SOL    HW183043   6.777   9.453  12.938
60382SOL    HW283044   6.736   9.378  13.063
60383SOL     OW83045   7.124   3.716  10.535
60383SOL    HW183046   7.049   3.772  10.514
60383SOL    HW283047   7.118   3.703  10.630
60384SOL     OW83048   4.024   4.202  12.933
60384SOL    HW183049   3.984   4.140  12.871
60384SOL    HW283050   3.968   4.280  12.927
60385SOL     OW83051  14.156  12.390   1.646
60385SOL    HW183052  14.218  12.332   1.691
60385SOL    HW283053  14.211  12.457   1.605
60386SOL     OW83054   6.117  14.360   6.401
60386SOL    HW183055   6.200  14.383   6.444
60386SOL    HW283056   6.123  14.266   6.387
60387SOL     OW83057   3.086   2.802  11.645
60387SOL    HW183058   3.026   2.735  11.678
60387SOL    HW283059   3.030   2.868  11.605
60388SOL     OW83060   6.923   3.122   8.663
60388SOL    HW183061   6.926   3.027   8.675
60388SOL    HW283062   6.834   3.140   8.633
60389SOL     OW83063   4.031   9.638   8.570
60389SOL    HW183064   4.061   9.722   8.534
60389SOL    HW283065   4.028   9.652   8.664
60390SOL     OW83066   6.220  12.990   0.322
60390SOL    HW183067   6.178  13.017   0.240
60390SOL    HW283068   6.277  13.063   0.344
60391SOL     OW83069   5.749   7.638  10.068
60391SOL    HW183070   5.828   7.684  10.097
60391SOL    HW283071   5.745   7.560  10.125
60392SOL     OW83072   7.761  12.094   7.688
60392SOL    HW183073   7.786  12.037   7.615
60392SOL    HW283074   7.715  12.037   7.749
60393SOL     OW83075  11.527   0.138   0.817
60393SOL    HW183076  11.560   0.214   0.769
60393SOL    HW283077  11.468   0.094   0.755
60394SOL     OW83078   1.025   6.467   8.522
60394SOL    HW183079   1.067   6.519   8.453
60394SOL    HW283080   1.098   6.431   8.573
60395SOL     OW83081   6.197  14.637   7.328
60395SOL    HW183082   6.269  14.576   7.315
60395SOL    HW283083   6.210  14.704   7.261
60396SOL     OW83084   3.066   7.275   9.893
60396SOL    HW183085   3.054   7.242   9.804
60396SOL    HW283086   3.026   7.362   9.892
60397SOL     OW83087   5.698   9.413  10.265
60397SOL    HW183088   5.721   9.400  10.357
60397SOL    HW283089   5.657   9.500  10.263
60398SOL     OW83090  10.936   3.588   7.912
60398SOL    HW183091  10.951   3.608   7.819
60398SOL    HW283092  10.972   3.664   7.958
60399SOL     OW83093   6.458   7.813   5.485
60399SOL    HW183094   6.502   7.864   5.416
60399SOL    HW283095   6.373   7.789   5.446
60400SOL     OW83096   4.395   5.369   0.313
60400SOL    HW183097   4.310   5.388   0.352
60400SOL    HW283098   4.417   5.282   0.346
60401SOL     OW83099   6.138   9.800  11.013
60401SOL    HW183100   6.214   9.846  11.050
60401SOL    HW283101   6.097   9.757  11.087
60402SOL     OW83102  13.947   4.406   9.507
60402SOL    HW183103  13.856   4.420   9.533
60402SOL    HW283104  13.990   4.489   9.525
60403SOL     OW83105   5.552   9.810   6.825
60403SOL    HW183106   5.625   9.832   6.884
60403SOL    HW283107   5.585   9.736   6.774
60404SOL     OW83108   2.176  11.099  14.831
60404SOL    HW183109   2.119  11.022  14.837
60404SOL    HW283110   2.172  11.125  14.739
60405SOL     OW83111   1.178   3.298   8.829
60405SOL    HW183112   1.115   3.250   8.774
60405SOL    HW283113   1.169   3.258   8.915
60406SOL     OW83114   8.732   3.251   3.555
60406SOL    HW183115   8.820   3.286   3.540
60406SOL    HW283116   8.674   3.310   3.506
60407SOL     OW83117  10.121  12.197   5.686
60407SOL    HW183118  10.082  12.213   5.600
60407SOL    HW283119  10.114  12.282   5.731
60408SOL     OW83120   6.095  11.062   0.571
60408SOL    HW183121   6.056  11.134   0.522
60408SOL    HW283122   6.107  11.096   0.660
60409SOL     OW83123   3.228  14.011   2.263
60409SOL    HW183124   3.291  13.940   2.248
60409SOL    HW283125   3.230  14.062   2.182
60410SOL     OW83126  13.725   9.508   3.202
60410SOL    HW183127  13.779   9.559   3.262
60410SOL    HW283128  13.688   9.573   3.142
60411SOL     OW83129   3.426   3.364   5.525
60411SOL    HW183130   3.515   3.344   5.553
60411SOL    HW283131   3.386   3.406   5.601
60412SOL     OW83132   7.317   0.363   3.560
60412SOL    HW183133   7.243   0.323   3.515
60412SOL    HW283134   7.371   0.290   3.590
60413SOL     OW83135   9.075  10.479   0.072
60413SOL    HW183136   9.011  10.469   0.143
60413SOL    HW283137   9.076  10.394   0.028
60414SOL     OW83138   4.927   4.313   2.918
60414SOL    HW183139   4.850   4.286   2.968
60414SOL    HW283140   4.896   4.316   2.827
60415SOL     OW83141  13.543   1.655   5.336
60415SOL    HW183142  13.448   1.660   5.352
60415SOL    HW283143  13.579   1.727   5.387
60416SOL     OW83144  11.645   7.829  11.102
60416SOL    HW183145  11.551   7.845  11.102
60416SOL    HW283146  11.672   7.839  11.193
60417SOL     OW83147   3.074  11.461   2.095
60417SOL    HW183148   3.112  11.525   2.155
60417SOL    HW283149   3.014  11.409   2.149
60418SOL     OW83150   8.750  13.728   1.203
60418SOL    HW183151   8.818  13.669   1.236
60418SOL    HW283152   8.775  13.814   1.238
60419SOL     OW83153  10.495   7.412   8.099
60419SOL    HW183154  10.479   7.319   8.113
60419SOL    HW283155  10.586   7.425   8.124
60420SOL     OW83156   0.012  13.160   3.203
60420SOL    HW183157   0.040  13.252   3.198
60420SOL    HW283158   0.092  13.112   3.224
60421SOL     OW83159  13.807   9.069  11.306
60421SOL    HW183160  13.838   8.980  11.325
60421SOL    HW283161  13.825   9.082  11.213
60422SOL     OW83162  13.604   1.581   0.257
60422SOL    HW183163  13.638   1.492   0.260
60422SOL    HW283164  13.540   1.581   0.186
60423SOL     OW83165   7.639   4.350   0.204
60423SOL    HW183166   7.557   4.340   0.155
60423SOL    HW283167   7.627   4.295   0.281
60424SOL     OW83168   2.875   1.465  12.627
60424SOL    HW183169   2.811   1.525  12.588
60424SOL    HW283170   2.833   1.434  12.707
60425SOL     OW83171  14.255   3.414   7.689
60425SOL    HW183172  14.176   3.385   7.642
60425SOL    HW283173  14.262   3.507   7.667
60426SOL     OW83174   1.280   9.900  14.328
60426SOL    HW183175   1.215   9.920  14.395
60426SOL    HW283176   1.230   9.872  14.252
60427SOL     OW83177   4.471   8.703  10.464
60427SOL    HW183178   4.469   8.644  10.539
60427SOL    HW283179   4.424   8.781  10.494
60428SOL     OW83180  12.200   3.412  13.709
60428SOL    HW183181  12.233   3.333  13.750
60428SOL    HW283182  12.104   3.403  13.712
60429SOL     OW83183   5.505  12.534   4.607
60429SOL    HW183184   5.531  12.460   4.662
60429SOL    HW283185   5.578  12.545   4.546
60430SOL     OW83186   9.023   7.998   7.412
60430SOL    HW183187   9.017   8.094   7.416
60430SOL    HW283188   9.018   7.977   7.318
60431SOL     OW83189   0.330  13.644  14.193
60431SOL    HW183190   0.328  13.712  14.260
60431SOL    HW283191   0.255  13.587  14.213
60432SOL     OW83192   5.946   6.767   5.423
60432SOL    HW183193   5.934   6.859   5.397
60432SOL    HW283194   6.022   6.768   5.480
60433SOL     OW83195   0.582   8.796   0.005
60433SOL    HW183196   0.517   8.861  14.857
60433SOL    HW283197   0.602   8.747  14.805
60434SOL     OW83198   8.971   0.754  10.587
60434SOL    HW183199   8.982   0.843  10.555
60434SOL    HW283200   8.948   0.703  10.509
60435SOL     OW83201   5.487   9.945   5.756
60435SOL    HW183202   5.513   9.938   5.848
60435SOL    HW283203   5.420   9.878   5.743
60436SOL     OW83204   9.931  12.066   4.173
60436SOL    HW183205   9.845  12.032   4.147
60436SOL    HW283206   9.915  12.158   4.194
60437SOL     OW83207  13.459  10.362  10.823
60437SOL    HW183208  13.376  10.313  10.823
60437SOL    HW283209  13.444  10.435  10.883
60438SOL     OW83210   3.407  12.402   0.966
60438SOL    HW183211   3.412  12.420   0.872
60438SOL    HW283212   3.421  12.488   1.006
60439SOL     OW83213  11.128   8.934   5.626
60439SOL    HW183214  11.080   9.011   5.656
60439SOL    HW283215  11.098   8.863   5.684
60440SOL     OW83216   6.715   0.708   7.523
60440SOL    HW183217   6.642   0.767   7.507
60440SOL    HW283218   6.711   0.689   7.617
60441SOL     OW83219   9.399   4.604   1.392
60441SOL    HW183220   9.483   4.610   1.437
60441SOL    HW283221   9.397   4.680   1.334
60442SOL     OW83222   5.517   3.572  10.110
60442SOL    HW183223   5.469   3.652  10.088
60442SOL    HW283224   5.465   3.501  10.072
60443SOL     OW83225   9.815  14.616  12.174
60443SOL    HW183226   9.856  14.548  12.227
60443SOL    HW283227   9.724  14.590  12.166
60444SOL     OW83228  11.727   0.412   6.733
60444SOL    HW183229  11.718   0.325   6.694
60444SOL    HW283230  11.742   0.471   6.659
60445SOL     OW83231  11.750   4.363  14.840
60445SOL    HW183232  11.757   4.446  14.793
60445SOL    HW283233  11.818   4.368   0.026
60446SOL     OW83234   1.971   9.676   1.734
60446SOL    HW183235   1.936   9.626   1.660
60446SOL    HW283236   2.047   9.721   1.699
60447SOL     OW83237   5.065   0.016   6.027
60447SOL    HW183238   5.125   0.043   6.096
60447SOL    HW283239   4.979   0.015   6.069
60448SOL     OW83240   2.974   5.010   0.921
60448SOL    HW183241   2.969   4.928   0.872
60448SOL    HW283242   3.017   4.987   1.003
60449SOL     OW83243   9.164   3.461   1.199
60449SOL    HW183244   9.180   3.371   1.172
60449SOL    HW283245   9.241   3.509   1.168
60450SOL     OW83246   6.193   7.838   1.953
60450SOL    HW183247   6.176   7.931   1.966
60450SOL    HW283248   6.136   7.795   2.017
60451SOL     OW83249   5.183   4.452   4.107
60451SOL    HW183250   5.133   4.487   4.033
60451SOL    HW283251   5.220   4.371   4.074
60452SOL     OW83252   5.370  12.002   1.303
60452SOL    HW183253   5.347  11.943   1.375
60452SOL    HW283254   5.463  11.986   1.288
60453SOL     OW83255   8.024  10.752   6.882
60453SOL    HW183256   8.054  10.676   6.832
60453SOL    HW283257   8.028  10.723   6.973
60454SOL     OW83258   3.244  11.766   7.356
60454SOL    HW183259   3.183  11.695   7.340
60454SOL    HW283260   3.330  11.731   7.331
60455SOL     OW83261  11.843   2.393  11.923
60455SOL    HW183262  11.769   2.453  11.932
60455SOL    HW283263  11.916   2.448  11.893
60456SOL     OW83264   9.803  13.572   0.774
60456SOL    HW183265   9.855  13.564   0.693
60456SOL    HW283266   9.866  13.601   0.840
60457SOL     OW83267  11.869   0.809   3.006
60457SOL    HW183268  11.868   0.748   3.079
60457SOL    HW283269  11.833   0.759   2.932
60458SOL     OW83270   7.060   0.948   9.383
60458SOL    HW183271   7.073   1.042   9.389
60458SOL    HW283272   7.066   0.917   9.473
60459SOL     OW83273   4.012  14.865  12.149
60459SOL    HW183274   4.013  14.858  12.244
60459SOL    HW283275   4.084   0.044  12.128
60460SOL     OW83276   7.549  10.894  13.190
60460SOL    HW183277   7.540  10.822  13.252
60460SOL    HW283278   7.471  10.948  13.203
60461SOL     OW83279   3.438   4.815   5.163
60461SOL    HW183280   3.454   4.796   5.256
60461SOL    HW283281   3.504   4.881   5.141
60462SOL     OW83282   6.122  12.054   1.692
60462SOL    HW183283   6.092  12.100   1.613
60462SOL    HW283284   6.147  12.125   1.752
60463SOL     OW83285  11.071   4.389   1.675
60463SOL    HW183286  11.081   4.297   1.649
60463SOL    HW283287  11.106   4.392   1.764
60464SOL     OW83288   8.017   5.557   3.658
60464SOL    HW183289   8.015   5.645   3.696
60464SOL    HW283290   8.032   5.499   3.732
60465SOL     OW83291   9.476   1.977  10.368
60465SOL    HW183292   9.555   1.978  10.314
60465SOL    HW283293   9.410   2.021  10.315
60466SOL     OW83294   9.030  10.265  11.759
60466SOL    HW183295   9.083  10.295  11.834
60466SOL    HW283296   9.078  10.297  11.682
60467SOL     OW83297   8.502   2.712   4.628
60467SOL    HW183298   8.437   2.766   4.582
60467SOL    HW283299   8.509   2.752   4.715
60468SOL     OW83300   2.484  12.918   1.158
60468SOL    HW183301   2.550  12.981   1.130
60468SOL    HW283302   2.467  12.941   1.249
60469SOL     OW83303   0.053   0.536   5.800
60469SOL    HW183304   0.104   0.604   5.755
60469SOL    HW283305   0.040   0.571   5.888
60470SOL     OW83306   7.871   5.889   2.061
60470SOL    HW183307   7.803   5.938   2.014
60470SOL    HW283308   7.898   5.947   2.132
60471SOL     OW83309   7.456   3.607   7.493
60471SOL    HW183310   7.368   3.622   7.460
60471SOL    HW283311   7.513   3.626   7.418
60472SOL     OW83312   6.293   5.035   9.376
60472SOL    HW183313   6.291   4.946   9.341
60472SOL    HW283314   6.279   5.091   9.300
60473SOL     OW83315  12.047   1.609   1.849
60473SOL    HW183316  12.122   1.666   1.866
60473SOL    HW283317  12.052   1.541   1.916
60474SOL     OW83318   7.838  10.115   1.558
60474SOL    HW183319   7.916  10.084   1.513
60474SOL    HW283320   7.765  10.082   1.505
60475SOL     OW83321   6.991   2.840  13.398
60475SOL    HW183322   7.063   2.778  13.410
60475SOL    HW283323   6.962   2.861  13.487
60476SOL     OW83324   8.103  10.336   7.414
60476SOL    HW183325   8.018  10.303   7.443
60476SOL    HW283326   8.133  10.392   7.486
60477SOL     OW83327  11.198   7.669   5.254
60477SOL    HW183328  11.103   7.670   5.241
60477SOL    HW283329  11.217   7.751   5.299
60478SOL     OW83330   3.923   5.895   1.646
60478SOL    HW183331   3.968   5.866   1.566
60478SOL    HW283332   3.951   5.833   1.713
60479SOL     OW83333  11.924   3.702  13.557
60479SOL    HW183334  11.941   3.751  13.477
60479SOL    HW283335  12.003   3.651  13.571
60480SOL     OW83336   2.657   4.605  13.342
60480SOL    HW183337   2.644   4.680  13.285
60480SOL    HW283338   2.738   4.564  13.311
60481SOL     OW83339  12.586  11.018   4.999
60481SOL    HW183340  12.567  11.074   4.924
60481SOL    HW283341  12.500  10.991   5.031
60482SOL     OW83342   2.583   9.727  13.078
60482SOL    HW183343   2.561   9.642  13.116
60482SOL    HW283344   2.661   9.755  13.126
60483SOL     OW83345  10.987   4.511   8.592
60483SOL    HW183346  10.922   4.458   8.637
60483SOL    HW283347  10.966   4.601   8.618
60484SOL     OW83348   2.463   3.123   8.535
60484SOL    HW183349   2.412   3.111   8.615
60484SOL    HW283350   2.478   3.034   8.503
60485SOL     OW83351  11.408   0.113   3.237
60485SOL    HW183352  11.340   0.180   3.229
60485SOL    HW283353  11.370   0.046   3.293
60486SOL     OW83354  10.432   6.508   9.927
60486SOL    HW183355  10.481   6.425   9.930
60486SOL    HW283356  10.473   6.563   9.993
60487SOL     OW83357   7.003   4.064  10.097
60487SOL    HW183358   6.968   3.981  10.127
60487SOL    HW283359   6.951   4.130  10.143
60488SOL     OW83360   4.289  12.555  13.456
60488SOL    HW183361   4.366  12.548  13.512
60488SOL    HW283362   4.254  12.466  13.452
60489SOL     OW83363   3.992  12.449   2.235
60489SOL    HW183364   4.009  12.527   2.182
60489SOL    HW283365   3.916  12.472   2.288
60490SOL     OW83366   2.603   3.684   9.064
60490SOL    HW183367   2.682   3.723   9.028
60490SOL    HW283368   2.605   3.707   9.157
60491SOL     OW83369   8.847  11.659   4.986
60491SOL    HW183370   8.795  11.583   4.957
60491SOL    HW283371   8.931  11.622   5.013
60492SOL     OW83372   0.015   3.316  10.446
60492SOL    HW183373   0.029   3.296  10.539
60492SOL    HW283374   0.102   3.334  10.412
60493SOL     OW83375  11.665  11.863   5.968
60493SOL    HW183376  11.573  11.885   5.953
60493SOL    HW283377  11.695  11.930   6.030
60494SOL     OW83378   6.474   1.306  11.698
60494SOL    HW183379   6.457   1.282  11.607
60494SOL    HW283380   6.467   1.402  11.699
60495SOL     OW83381   6.668  10.190   0.192
60495SOL    HW183382   6.686  10.190   0.286
60495SOL    HW283383   6.655  10.098   0.169
60496SOL     OW83384   6.927   1.057   7.592
60496SOL    HW183385   6.967   1.143   7.583
60496SOL    HW283386   6.856   1.057   7.528
60497SOL     OW83387   5.920   9.814   9.392
60497SOL    HW183388   5.873   9.857   9.321
60497SOL    HW283389   5.856   9.809   9.464
60498SOL     OW83390  10.694  12.342   5.444
60498SOL    HW183391  10.667  12.433   5.449
60498SOL    HW283392  10.699  12.313   5.535
60499SOL     OW83393   6.315   9.879  12.774
60499SOL    HW183394   6.398   9.881  12.821
60499SOL    HW283395   6.252   9.844  12.838
60500SOL     OW83396  12.682   8.191   6.791
60500SOL    HW183397  12.711   8.242   6.714
60500SOL    HW283398  12.599   8.231   6.816
60501SOL     OW83399   7.020  11.830  13.640
60501SOL    HW183400   6.996  11.783  13.719
60501SOL    HW283401   6.983  11.918  13.652
60502SOL     OW83402  11.816   0.083  12.584
60502SOL    HW183403  11.876   0.010  12.596
60502SOL    HW283404  11.796   0.084  12.491
60503SOL     OW83405   5.415   6.606  13.118
60503SOL    HW183406   5.502   6.615  13.156
60503SOL    HW283407   5.401   6.689  13.071
60504SOL     OW83408   0.718   9.685   1.666
60504SOL    HW183409   0.711   9.724   1.579
60504SOL    HW283410   0.747   9.756   1.723
60505SOL     OW83411   6.940   7.302   2.594
60505SOL    HW183412   6.866   7.356   2.621
60505SOL    HW283413   6.981   7.275   2.676
60506SOL     OW83414  11.068   9.916   9.721
60506SOL    HW183415  11.028   9.831   9.705
60506SOL    HW283416  11.147   9.897   9.772
60507SOL     OW83417   4.938   7.202   6.269
60507SOL    HW183418   4.957   7.108   6.275
60507SOL    HW283419   4.978   7.240   6.347
60508SOL     OW83420   8.781  11.150   0.520
60508SOL    HW183421   8.844  11.222   0.522
60508SOL    HW283422   8.786  11.111   0.607
60509SOL     OW83423   9.571  13.100   8.532
60509SOL    HW183424   9.514  13.045   8.478
60509SOL    HW283425   9.511  13.156   8.581
60510SOL     OW83426  12.583  10.779  13.233
60510SOL    HW183427  12.652  10.762  13.297
60510SOL    HW283428  12.515  10.715  13.253
60511SOL     OW83429  14.856   5.234   4.438
60511SOL    HW183430   0.062   5.236   4.479
60511SOL    HW283431  14.850   5.146   4.399
60512SOL     OW83432   5.239  12.340   0.221
60512SOL    HW183433   5.324  12.373   0.193
60512SOL    HW283434   5.252  12.317   0.313
60513SOL     OW83435   0.344  11.366   3.776
60513SOL    HW183436   0.423  11.364   3.723
60513SOL    HW283437   0.372  11.401   3.860
60514SOL     OW83438  13.503   1.104  11.288
60514SOL    HW183439  13.459   1.037  11.235
60514SOL    HW283440  13.567   1.055  11.339
60515SOL     OW83441  10.667  14.124   7.491
60515SOL    HW183442  10.742  14.069   7.511
60515SOL    HW283443  10.635  14.153   7.576
60516SOL     OW83444   8.881   1.234   5.093
60516SOL    HW183445   8.856   1.288   5.018
60516SOL    HW283446   8.919   1.296   5.156
60517SOL     OW83447  12.959   3.809   8.558
60517SOL    HW183448  12.894   3.841   8.496
60517SOL    HW283449  12.969   3.716   8.538
60518SOL     OW83450   2.444   9.355   6.173
60518SOL    HW183451   2.511   9.362   6.241
60518SOL    HW283452   2.400   9.440   6.174
60519SOL     OW83453  11.612  13.142   3.373
60519SOL    HW183454  11.686  13.084   3.391
60519SOL    HW283455  11.600  13.192   3.453
60520SOL     OW83456   8.099   8.460   3.502
60520SOL    HW183457   8.183   8.490   3.469
60520SOL    HW283458   8.045   8.445   3.424
60521SOL     OW83459  13.579   6.750   4.923
60521SOL    HW183460  13.505   6.776   4.868
60521SOL    HW283461  13.555   6.664   4.957
60522SOL     OW83462   7.643   8.111   6.766
60522SOL    HW183463   7.569   8.129   6.823
60522SOL    HW283464   7.628   8.022   6.734
60523SOL     OW83465   9.025   1.658   3.889
60523SOL    HW183466   8.988   1.570   3.895
60523SOL    HW283467   9.042   1.683   3.980
60524SOL     OW83468   9.639   1.569   7.191
60524SOL    HW183469   9.653   1.488   7.142
60524SOL    HW283470   9.688   1.557   7.272
60525SOL     OW83471   8.488  12.870   1.278
60525SOL    HW183472   8.450  12.847   1.193
60525SOL    HW283473   8.531  12.790   1.308
60526SOL     OW83474   4.220   0.522   2.575
60526SOL    HW183475   4.194   0.611   2.552
60526SOL    HW283476   4.304   0.510   2.533
60527SOL     OW83477   8.952  14.861   7.611
60527SOL    HW183478   8.995   0.037   7.675
60527SOL    HW283479   9.011  14.786   7.601
60528SOL     OW83480  13.387  14.492  12.676
60528SOL    HW183481  13.400  14.582  12.705
60528SOL    HW283482  13.430  14.488  12.591
60529SOL     OW83483   2.558   9.395   0.784
60529SOL    HW183484   2.468   9.363   0.779
60529SOL    HW283485   2.611   9.317   0.799
60530SOL     OW83486   5.547   2.409   5.502
60530SOL    HW183487   5.496   2.488   5.521
60530SOL    HW283488   5.636   2.441   5.487
60531SOL     OW83489   1.462   1.189   7.492
60531SOL    HW183490   1.472   1.194   7.397
60531SOL    HW283491   1.384   1.241   7.511
60532SOL     OW83492   4.327   2.518   0.658
60532SOL    HW183493   4.411   2.543   0.620
60532SOL    HW283494   4.262   2.560   0.602
60533SOL     OW83495  12.754   1.273  13.792
60533SOL    HW183496  12.748   1.216  13.868
60533SOL    HW283497  12.664   1.284  13.763
60534SOL     OW83498  14.411   3.874   6.536
60534SOL    HW183499  14.338   3.924   6.500
60534SOL    HW283500  14.486   3.901   6.483
60535SOL     OW83501   6.537   0.488   0.959
60535SOL    HW183502   6.447   0.500   0.988
60535SOL    HW283503   6.529   0.444   0.874
60536SOL     OW83504   7.097   5.602   7.872
60536SOL    HW183505   7.174   5.647   7.909
60536SOL    HW283506   7.051   5.671   7.824
60537SOL     OW83507   6.286   4.631  10.596
60537SOL    HW183508   6.359   4.693  10.604
60537SOL    HW283509   6.289   4.581  10.677
60538SOL     OW83510  10.525   9.613   6.883
60538SOL    HW183511  10.508   9.522   6.906
60538SOL    HW283512  10.545   9.611   6.790
60539SOL     OW83513  11.204  13.368   5.759
60539SOL    HW183514  11.115  13.383   5.729
60539SOL    HW283515  11.216  13.428   5.833
60540SOL     OW83516   2.084  10.844  11.427
60540SOL    HW183517   2.078  10.912  11.359
60540SOL    HW283518   2.072  10.762  11.380
60541SOL     OW83519   8.225   3.047   1.295
60541SOL    HW183520   8.188   3.010   1.215
60541SOL    HW283521   8.211   2.980   1.362
60542SOL     OW83522   5.799   5.385   8.876
60542SOL    HW183523   5.792   5.479   8.897
60542SOL    HW283524   5.816   5.344   8.961
60543SOL     OW83525   5.824   0.477  13.155
60543SOL    HW183526   5.812   0.572  13.148
60543SOL    HW283527   5.804   0.456  13.246
60544SOL     OW83528   7.188  12.071  11.483
60544SOL    HW183529   7.248  12.014  11.531
60544SOL    HW283530   7.231  12.086  11.399
60545SOL     OW83531  10.641   8.655   1.021
60545SOL    HW183532  10.605   8.703   1.096
60545SOL    HW283533  10.662   8.723   0.957
60546SOL     OW83534   7.406   5.117   1.611
60546SOL    HW183535   7.343   5.053   1.645
60546SOL    HW283536   7.360   5.161   1.539
60547SOL     OW83537  11.757   7.592   8.012
60547SOL    HW183538  11.714   7.596   7.927
60547SOL    HW283539  11.789   7.502   8.019
60548SOL     OW83540   1.508   6.212   7.332
60548SOL    HW183541   1.588   6.165   7.309
60548SOL    HW283542   1.453   6.147   7.374
60549SOL     OW83543   8.854  12.587  13.523
60549SOL    HW183544   8.898  12.525  13.581
60549SOL    HW283545   8.912  12.663  13.521
60550SOL     OW83546   2.717   2.323  14.221
60550SOL    HW183547   2.707   2.282  14.306
60550SOL    HW283548   2.811   2.341  14.213
60551SOL     OW83549   7.949   5.406  14.091
60551SOL    HW183550   7.964   5.320  14.130
60551SOL    HW283551   7.934   5.464  14.166
60552SOL     OW83552   2.972  10.560   9.733
60552SOL    HW183553   2.974  10.640   9.786
60552SOL    HW283554   2.895  10.513   9.764
60553SOL     OW83555   0.102  14.438   4.825
60553SOL    HW183556   0.141  14.468   4.742
60553SOL    HW283557   0.162  14.372   4.857
60554SOL     OW83558   7.634   2.546   6.407
60554SOL    HW183559   7.556   2.563   6.460
60554SOL    HW283560   7.702   2.601   6.445
60555SOL     OW83561  12.493  11.361  13.877
60555SOL    HW183562  12.408  11.322  13.897
60555SOL    HW283563  12.506  11.426  13.946
60556SOL     OW83564   3.209   4.317   5.606
60556SOL    HW183565   3.123   4.299   5.643
60556SOL    HW283566   3.210   4.269   5.523
60557SOL     OW83567   3.891   0.406   4.019
60557SOL    HW183568   3.811   0.418   3.968
60557SOL    HW283569   3.932   0.328   3.981
60558SOL     OW83570  11.205   0.282  10.754
60558SOL    HW183571  11.147   0.255  10.825
60558SOL    HW283572  11.176   0.371  10.732
60559SOL     OW83573   5.175  12.020   7.831
60559SOL    HW183574   5.212  12.023   7.920
60559SOL    HW283575   5.226  11.952   7.786
60560SOL     OW83576   2.352  13.695   7.451
60560SOL    HW183577   2.360  13.789   7.437
60560SOL    HW283578   2.363  13.657   7.364
60561SOL     OW83579   7.392  10.137   1.895
60561SOL    HW183580   7.375  10.152   1.988
60561SOL    HW283581   7.474  10.089   1.893
60562SOL     OW83582   0.339   1.139   8.572
60562SOL    HW183583   0.258   1.121   8.620
60562SOL    HW283584   0.310   1.169   8.486
60563SOL     OW83585  11.545  10.559   2.681
60563SOL    HW183586  11.601  10.571   2.604
60563SOL    HW283587  11.464  10.605   2.660
60564SOL     OW83588   0.361  14.707   8.604
60564SOL    HW183589   0.286  14.721   8.663
60564SOL    HW283590   0.430  14.673   8.660
60565SOL     OW83591   0.913  12.669   8.026
60565SOL    HW183592   0.986  12.614   7.997
60565SOL    HW283593   0.849  12.664   7.956
60566SOL     OW83594  13.832  13.153  12.755
60566SOL    HW183595  13.849  13.059  12.761
60566SOL    HW283596  13.737  13.161  12.768
60567SOL     OW83597   4.067   8.370   4.685
60567SOL    HW183598   4.025   8.320   4.755
60567SOL    HW283599   4.136   8.312   4.653
60568SOL     OW83600  14.026  11.845  11.359
60568SOL    HW183601  13.949  11.897  11.335
60568SOL    HW283602  13.999  11.795  11.435
60569SOL     OW83603   3.425   1.026   9.779
60569SOL    HW183604   3.457   1.108   9.816
60569SOL    HW283605   3.487   1.005   9.709
60570SOL     OW83606   4.974   8.550  10.524
60570SOL    HW183607   5.041   8.494  10.484
60570SOL    HW283608   5.005   8.564  10.613
60571SOL     OW83609  13.097   6.266   9.437
60571SOL    HW183610  13.053   6.209   9.500
60571SOL    HW283611  13.044   6.262   9.358
60572SOL     OW83612   8.409   5.016   0.219
60572SOL    HW183613   8.404   4.927   0.183
60572SOL    HW283614   8.385   5.006   0.311
60573SOL     OW83615  11.967   3.429   9.554
60573SOL    HW183616  11.933   3.402   9.469
60573SOL    HW283617  12.037   3.367   9.572
60574SOL     OW83618   1.164  13.771   4.281
60574SOL    HW183619   1.184  13.683   4.250
60574SOL    HW283620   1.242  13.822   4.261
60575SOL     OW83621   3.474  13.525   8.086
60575SOL    HW183622   3.531  13.454   8.116
60575SOL    HW283623   3.534  13.588   8.046
60576SOL     OW83624  11.418   4.545  12.758
60576SOL    HW183625  11.326   4.518  12.765
60576SOL    HW283626  11.465   4.464  12.738
60577SOL     OW83627   3.241  11.433   2.766
60577SOL    HW183628   3.322  11.413   2.718
60577SOL    HW283629   3.218  11.521   2.737
60578SOL     OW83630   2.391   6.339   8.539
60578SOL    HW183631   2.418   6.346   8.630
60578SOL    HW283632   2.328   6.267   8.538
60579SOL     OW83633   0.726   7.436   4.202
60579SOL    HW183634   0.724   7.379   4.279
60579SOL    HW283635   0.680   7.387   4.134
60580SOL     OW83636   0.094   2.015   4.203
60580SOL    HW183637   0.150   1.973   4.269
60580SOL    HW283638   0.029   1.949   4.181
60581SOL     OW83639   1.088   4.284   2.168
60581SOL    HW183640   1.067   4.224   2.240
60581SOL    HW283641   1.183   4.277   2.158
60582SOL     OW83642   3.423  11.119   2.081
60582SOL    HW183643   3.399  11.101   1.990
60582SOL    HW283644   3.392  11.208   2.097
60583SOL     OW83645   8.644  11.581   7.559
60583SOL    HW183646   8.563  11.570   7.608
60583SOL    HW283647   8.617  11.621   7.476
60584SOL     OW83648   6.518  13.613  13.756
60584SOL    HW183649   6.580  13.545  13.729
60584SOL    HW283650   6.543  13.632  13.847
60585SOL     OW83651   3.978  13.074  12.162
60585SOL    HW183652   3.914  13.141  12.186
60585SOL    HW283653   4.063  13.119  12.165
60586SOL     OW83654   3.690   4.405   2.809
60586SOL    HW183655   3.768   4.447   2.846
60586SOL    HW283656   3.645   4.369   2.885
60587SOL     OW83657   5.604  11.639   1.540
60587SOL    HW183658   5.677  11.624   1.479
60587SOL    HW283659   5.526  11.619   1.489
60588SOL     OW83660   9.128  10.696  12.759
60588SOL    HW183661   9.198  10.674  12.821
60588SOL    HW283662   9.154  10.781  12.723
60589SOL     OW83663   2.771  14.441   6.051
60589SOL    HW183664   2.804  14.467   5.965
60589SOL    HW283665   2.788  14.516   6.107
60590SOL     OW83666   2.162   1.217   4.236
60590SOL    HW183667   2.120   1.131   4.225
60590SOL    HW283668   2.089   1.279   4.240
60591SOL     OW83669   5.994   3.430   0.687
60591SOL    HW183670   5.976   3.350   0.737
60591SOL    HW283671   5.942   3.498   0.732
60592SOL     OW83672   8.418   8.011   9.253
60592SOL    HW183673   8.333   7.996   9.210
60592SOL    HW283674   8.482   8.007   9.181
60593SOL     OW83675   5.246  12.313   5.244
60593SOL    HW183676   5.271  12.404   5.260
60593SOL    HW283677   5.266  12.268   5.326
60594SOL     OW83678   5.775   2.759  13.739
60594SOL    HW183679   5.805   2.743  13.829
60594SOL    HW283680   5.855   2.762  13.687
60595SOL     OW83681   9.383  11.511  11.576
60595SOL    HW183682   9.372  11.537  11.667
60595SOL    HW283683   9.335  11.429  11.568
60596SOL     OW83684   3.801   4.929   3.930
60596SOL    HW183685   3.845   4.846   3.913
60596SOL    HW283686   3.870   4.985   3.967
60597SOL     OW83687   0.414  14.343   5.960
60597SOL    HW183688   0.468  14.386   6.027
60597SOL    HW283689   0.348  14.409   5.936
60598SOL     OW83690   6.686  13.156   9.799
60598SOL    HW183691   6.713  13.072   9.761
60598SOL    HW283692   6.748  13.170   9.870
60599SOL     OW83693  10.410   1.030  12.403
60599SOL    HW183694  10.426   1.113  12.447
60599SOL    HW283695  10.373   1.054  12.318
60600SOL     OW83696   6.998   8.455   1.304
60600SOL    HW183697   6.975   8.362   1.304
60600SOL    HW283698   7.027   8.472   1.393
60601SOL     OW83699   1.432  11.312   5.756
60601SOL    HW183700   1.528  11.311   5.764
60601SOL    HW283701   1.415  11.371   5.681
60602SOL     OW83702   6.930   3.266   9.439
60602SOL    HW183703   6.841   3.230   9.434
60602SOL    HW283704   6.945   3.280   9.532
60603SOL     OW83705   2.098   6.213  13.694
60603SOL    HW183706   2.068   6.274  13.628
60603SOL    HW283707   2.039   6.227  13.769
60604SOL     OW83708  13.930   7.667   4.938
60604SOL    HW183709  13.878   7.744   4.962
60604SOL    HW283710  13.883   7.630   4.863
60605SOL     OW83711  14.305   8.568   5.884
60605SOL    HW183712  14.315   8.663   5.897
60605SOL    HW283713  14.237   8.560   5.817
60606SOL     OW83714   9.638   6.394   5.107
60606SOL    HW183715   9.678   6.322   5.156
60606SOL    HW283716   9.544   6.374   5.106
60607SOL     OW83717   0.983   5.111   4.852
60607SOL    HW183718   1.050   5.172   4.883
60607SOL    HW283719   0.904   5.165   4.844
60608SOL     OW83720   8.156   3.303   1.681
60608SOL    HW183721   8.236   3.254   1.699
60608SOL    HW283722   8.178   3.394   1.704
60609SOL     OW83723  12.052  10.212  11.685
60609SOL    HW183724  12.004  10.293  11.702
60609SOL    HW283725  12.039  10.196  11.591
60610SOL     OW83726   3.700   2.271  12.963
60610SOL    HW183727   3.788   2.288  12.929
60610SOL    HW283728   3.649   2.347  12.934
60611SOL     OW83729   4.223  10.585   1.235
60611SOL    HW183730   4.205  10.491   1.225
60611SOL    HW283731   4.145  10.620   1.276
60612SOL     OW83732   8.210   6.400   1.607
60612SOL    HW183733   8.201   6.394   1.702
60612SOL    HW283734   8.127   6.368   1.573
60613SOL     OW83735  13.120  10.956   6.559
60613SOL    HW183736  13.178  10.992   6.626
60613SOL    HW283737  13.048  10.916   6.609
60614SOL     OW83738   9.578   1.603   5.756
60614SOL    HW183739   9.528   1.560   5.825
60614SOL    HW283740   9.604   1.532   5.698
60615SOL     OW83741   3.181   8.045   5.391
60615SOL    HW183742   3.167   7.950   5.395
60615SOL    HW283743   3.263   8.055   5.343
60616SOL     OW83744   8.463   0.188   1.295
60616SOL    HW183745   8.485   0.120   1.232
60616SOL    HW283746   8.542   0.198   1.348
60617SOL     OW83747  13.275  10.774  11.819
60617SOL    HW183748  13.276  10.678  11.817
60617SOL    HW283749  13.223  10.796  11.896
60618SOL     OW83750   1.571   3.496  10.684
60618SOL    HW183751   1.647   3.552  10.697
60618SOL    HW283752   1.496   3.555  10.692
60619SOL     OW83753   7.988   6.978   2.998
60619SOL    HW183754   7.947   6.901   2.957
60619SOL    HW283755   8.042   6.941   3.068
60620SOL     OW83756   8.675   7.517   7.330
60620SOL    HW183757   8.604   7.454   7.319
60620SOL    HW283758   8.754   7.469   7.307
60621SOL     OW83759   2.930  11.026   1.725
60621SOL    HW183760   2.918  11.002   1.633
60621SOL    HW283761   2.986  11.103   1.723
60622SOL     OW83762   2.156   8.265   5.165
60622SOL    HW183763   2.085   8.227   5.215
60622SOL    HW283764   2.196   8.191   5.120
60623SOL     OW83765   0.946   3.224   5.429
60623SOL    HW183766   1.003   3.194   5.359
60623SOL    HW283767   0.863   3.178   5.415
60624SOL     OW83768  10.622  14.679   0.592
60624SOL    HW183769  10.656  14.607   0.645
60624SOL    HW283770  10.600  14.747   0.655
60625SOL     OW83771   0.082   2.631   1.450
60625SOL    HW183772  14.875   2.651   1.485
60625SOL    HW283773   0.086   2.536   1.449
60626SOL     OW83774  13.350   8.172  10.612
60626SOL    HW183775  13.276   8.157  10.553
60626SOL    HW283776  13.327   8.251  10.660
60627SOL     OW83777   1.503   4.666   7.457
60627SOL    HW183778   1.447   4.744   7.451
60627SOL    HW283779   1.532   4.665   7.548
60628SOL     OW83780  10.646   5.544   1.645
60628SOL    HW183781  10.614   5.623   1.689
60628SOL    HW283782  10.675   5.574   1.559
60629SOL     OW83783  10.405   7.149   8.402
60629SOL    HW183784  10.347   7.083   8.438
60629SOL    HW283785  10.347   7.213   8.361
60630SOL     OW83786   0.273   5.952   6.022
60630SOL    HW183787   0.341   5.886   6.035
60630SOL    HW283788   0.319   6.036   6.033
60631SOL     OW83789  10.018   4.596   5.649
60631SOL    HW183790   9.961   4.520   5.663
60631SOL    HW283791  10.106   4.559   5.645
60632SOL     OW83792  10.202   8.514   5.252
60632SOL    HW183793  10.170   8.556   5.332
60632SOL    HW283794  10.266   8.449   5.284
60633SOL     OW83795   9.604   0.875   6.526
60633SOL    HW183796   9.572   0.866   6.436
60633SOL    HW283797   9.525   0.872   6.579
60634SOL     OW83798   2.223  10.148   0.357
60634SOL    HW183799   2.156  10.093   0.400
60634SOL    HW283800   2.300  10.092   0.351
60635SOL     OW83801   7.916  10.869   9.084
60635SOL    HW183802   7.938  10.951   9.039
60635SOL    HW283803   7.889  10.896   9.171
60636SOL     OW83804  10.767   2.389   3.323
60636SOL    HW183805  10.751   2.326   3.252
60636SOL    HW283806  10.699   2.456   3.311
60637SOL     OW83807   7.960   6.468   7.937
60637SOL    HW183808   8.008   6.386   7.948
60637SOL    HW283809   7.894   6.468   8.006
60638SOL     OW83810  13.020   0.451   3.061
60638SOL    HW183811  13.105   0.443   3.104
60638SOL    HW283812  12.958   0.414   3.123
60639SOL     OW83813   6.193   8.113  11.308
60639SOL    HW183814   6.111   8.080  11.272
60639SOL    HW283815   6.244   8.138  11.231
60640SOL     OW83816  12.385   3.122   7.094
60640SOL    HW183817  12.416   3.137   7.005
60640SOL    HW283818  12.300   3.166   7.097
60641SOL     OW83819   4.031   0.272   7.824
60641SOL    HW183820   3.987   0.322   7.756
60641SOL    HW283821   3.960   0.229   7.872
60642SOL     OW83822   0.646   5.842   6.658
60642SOL    HW183823   0.695   5.786   6.718
60642SOL    HW283824   0.604   5.781   6.598
60643SOL     OW83825   2.866   2.932   0.284
60643SOL    HW183826   2.952   2.938   0.326
60643SOL    HW283827   2.884   2.944   0.191
60644SOL     OW83828   9.355   1.700   6.107
60644SOL    HW183829   9.301   1.771   6.072
60644SOL    HW283830   9.443   1.738   6.112
60645SOL     OW83831   2.248  14.796  11.304
60645SOL    HW183832   2.343  14.803  11.295
60645SOL    HW283833   2.219  14.755  11.223
60646SOL     OW83834   7.299   6.248   8.961
60646SOL    HW183835   7.207   6.223   8.961
60646SOL    HW283836   7.301   6.332   9.007
60647SOL     OW83837   7.457   5.788   9.433
60647SOL    HW183838   7.424   5.878   9.424
60647SOL    HW283839   7.465   5.757   9.342
60648SOL     OW83840   7.564  10.615   9.683
60648SOL    HW183841   7.513  10.579   9.756
60648SOL    HW283842   7.528  10.703   9.670
60649SOL     OW83843  13.882  11.924  12.546
60649SOL    HW183844  13.963  11.959  12.584
60649SOL    HW283845  13.871  11.838  12.587
60650SOL     OW83846   5.700  13.819  11.449
60650SOL    HW183847   5.657  13.904  11.462
60650SOL    HW283848   5.790  13.842  11.427
60651SOL     OW83849  11.117   9.805  12.043
60651SOL    HW183850  11.192   9.746  12.045
60651SOL    HW283851  11.061   9.772  11.973
60652SOL     OW83852   7.392   5.913   3.277
60652SOL    HW183853   7.368   5.851   3.345
60652SOL    HW283854   7.472   5.877   3.239
60653SOL     OW83855   2.727   8.245   3.980
60653SOL    HW183856   2.776   8.194   4.045
60653SOL    HW283857   2.794   8.273   3.917
60654SOL     OW83858   9.047   5.738  10.842
60654SOL    HW183859   9.055   5.735  10.747
60654SOL    HW283860   8.965   5.692  10.860
60655SOL     OW83861   9.415  10.550   4.340
60655SOL    HW183862   9.344  10.539   4.276
60655SOL    HW283863   9.429  10.462   4.375
60656SOL     OW83864  10.086  10.883   9.236
60656SOL    HW183865  10.056  10.806   9.189
60656SOL    HW283866  10.013  10.907   9.293
60657SOL     OW83867   6.135  14.092   6.396
60657SOL    HW183868   6.109  14.023   6.457
60657SOL    HW283869   6.196  14.049   6.336
60658SOL     OW83870  12.900   0.606   2.870
60658SOL    HW183871  12.950   0.556   2.934
60658SOL    HW283872  12.926   0.697   2.886
60659SOL     OW83873   9.756   3.121   5.329
60659SOL    HW183874   9.724   3.132   5.418
60659SOL    HW283875   9.724   3.035   5.302
60660SOL     OW83876  13.011  10.576   3.952
60660SOL    HW183877  12.963  10.622   3.883
60660SOL    HW283878  12.987  10.623   4.032
60661SOL     OW83879  11.853   2.058   8.321
60661SOL    HW183880  11.944   2.040   8.296
60661SOL    HW283881  11.850   2.041   8.415
60662SOL     OW83882   0.715   0.934  11.508
60662SOL    HW183883   0.653   0.960  11.576
60662SOL    HW283884   0.668   0.946  11.426
60663SOL     OW83885   1.899   0.027   0.466
60663SOL    HW183886   1.916  14.841   0.532
60663SOL    HW283887   1.953   0.102   0.492
60664SOL     OW83888  10.779   4.815   1.893
60664SOL    HW183889  10.831   4.761   1.832
60664SOL    HW283890  10.813   4.904   1.880
60665SOL     OW83891  12.248  12.695   5.676
60665SOL    HW183892  12.333  12.738   5.688
60665SOL    HW283893  12.200  12.751   5.616
60666SOL     OW83894   4.338   0.687  11.929
60666SOL    HW183895   4.270   0.626  11.957
60666SOL    HW283896   4.292   0.750  11.873
60667SOL     OW83897   8.682  13.198  14.570
60667SOL    HW183898   8.622  13.130  14.602
60667SOL    HW283899   8.652  13.278  14.614
60668SOL     OW83900   2.077  14.551   3.971
60668SOL    HW183901   2.086  14.515   3.883
60668SOL    HW283902   2.084  14.474   4.029
60669SOL     OW83903  12.385  10.108   4.580
60669SOL    HW183904  12.327  10.069   4.645
60669SOL    HW283905  12.338  10.185   4.549
60670SOL     OW83906  12.545  10.912   4.540
60670SOL    HW183907  12.569  11.003   4.520
60670SOL    HW283908  12.604  10.886   4.610
60671SOL     OW83909   2.184  11.466  10.000
60671SOL    HW183910   2.278  11.455  10.008
60671SOL    HW283911   2.164  11.548  10.046
60672SOL     OW83912   7.096   1.694  13.134
60672SOL    HW183913   7.162   1.649  13.188
60672SOL    HW283914   7.144   1.767  13.094
60673SOL     OW83915   0.228   2.472  11.784
60673SOL    HW183916   0.276   2.449  11.704
60673SOL    HW283917   0.258   2.409  11.849
60674SOL     OW83918   9.465  14.114  10.241
60674SOL    HW183919   9.521  14.040  10.263
60674SOL    HW283920   9.481  14.178  10.311
60675SOL     OW83921  12.877  11.765   4.466
60675SOL    HW183922  12.792  11.734   4.495
60675SOL    HW283923  12.936  11.743   4.538
60676SOL     OW83924   6.512   6.022   3.815
60676SOL    HW183925   6.497   6.104   3.861
60676SOL    HW283926   6.601   5.996   3.840
60677SOL     OW83927   4.022   5.025  10.128
60677SOL    HW183928   4.110   5.021  10.163
60677SOL    HW283929   4.028   4.982  10.042
60678SOL     OW83930  14.608   4.031   2.370
60678SOL    HW183931  14.620   4.089   2.294
60678SOL    HW283932  14.694   4.024   2.410
60679SOL     OW83933   8.559   0.043   3.596
60679SOL    HW183934   8.607   0.066   3.517
60679SOL    HW283935   8.612  14.856   3.638
60680SOL     OW83936   6.908   3.396   9.723
60680SOL    HW183937   6.843   3.349   9.775
60680SOL    HW283938   6.921   3.479   9.770
60681SOL     OW83939   4.426   4.057  10.295
60681SOL    HW183940   4.339   4.093  10.312
60681SOL    HW283941   4.411   3.993  10.225
60682SOL     OW83942  14.403   1.030   8.171
60682SOL    HW183943  14.444   0.967   8.113
60682SOL    HW283944  14.475   1.080   8.208
60683SOL     OW83945   3.332  10.940  10.072
60683SOL    HW183946   3.381  10.888  10.135
60683SOL    HW283947   3.293  11.011  10.123
60684SOL     OW83948  12.699   0.156  12.461
60684SOL    HW183949  12.786   0.196  12.467
60684SOL    HW283950  12.638   0.229  12.472
60685SOL     OW83951   7.153   5.281  14.476
60685SOL    HW183952   7.066   5.322  14.478
60685SOL    HW283953   7.206   5.335  14.535
60686SOL     OW83954   7.571   8.897   9.081
60686SOL    HW183955   7.613   8.867   9.000
60686SOL    HW283956   7.556   8.817   9.131
60687SOL     OW83957   3.844  10.334   3.729
60687SOL    HW183958   3.799  10.329   3.644
60687SOL    HW283959   3.865  10.427   3.739
60688SOL     OW83960  11.894   6.106  10.627
60688SOL    HW183961  11.904   6.044  10.700
60688SOL    HW283962  11.929   6.059  10.551
60689SOL     OW83963   9.781  13.981   3.667
60689SOL    HW183964   9.797  14.063   3.620
60689SOL    HW283965   9.696  13.994   3.710
60690SOL     OW83966  11.136   4.057  11.854
60690SOL    HW183967  11.194   3.981  11.853
60690SOL    HW283968  11.082   4.046  11.776
60691SOL     OW83969   5.161  13.874  11.979
60691SOL    HW183970   5.079  13.919  11.960
60691SOL    HW283971   5.207  13.933  12.040
60692SOL     OW83972   3.450   3.857  12.000
60692SOL    HW183973   3.418   3.889  11.916
60692SOL    HW283974   3.373   3.820  12.042
60693SOL     OW83975   7.632  12.408   1.253
60693SOL    HW183976   7.550  12.425   1.208
60693SOL    HW283977   7.699  12.415   1.185
60694SOL     OW83978   2.019   6.177   5.560
60694SOL    HW183979   1.993   6.136   5.478
60694SOL    HW283980   1.976   6.262   5.560
60695SOL     OW83981  14.291   9.673   8.153
60695SOL    HW183982  14.355   9.709   8.214
60695SOL    HW283983  14.214   9.655   8.206
60696SOL     OW83984  12.439   8.367   0.769
60696SOL    HW183985  12.388   8.448   0.763
60696SOL    HW283986  12.529   8.396   0.783
60697SOL     OW83987   3.143  12.726  13.352
60697SOL    HW183988   3.192  12.707  13.433
60697SOL    HW283989   3.105  12.813  13.368
60698SOL     OW83990  11.760   2.659   7.468
60698SOL    HW183991  11.762   2.714   7.546
60698SOL    HW283992  11.736   2.719   7.397
60699SOL     OW83993  12.510  12.575  11.350
60699SOL    HW183994  12.533  12.617  11.267
60699SOL    HW283995  12.434  12.625  11.380
60700SOL     OW83996  10.211   1.251   5.636
60700SOL    HW183997  10.154   1.308   5.688
60700SOL    HW283998  10.275   1.311   5.597
60701SOL     OW83999  14.773  12.654   7.262
60701SOL    HW184000  14.716  12.587   7.300
60701SOL    HW284001  14.731  12.677   7.179
60702SOL     OW84002  10.506   6.214  12.190
60702SOL    HW184003  10.553   6.190  12.269
60702SOL    HW284004  10.475   6.130  12.154
60703SOL     OW84005   2.102   6.163   1.295
60703SOL    HW184006   2.048   6.242   1.286
60703SOL    HW284007   2.059   6.098   1.240
60704SOL     OW84008  11.935  10.591  13.017
60704SOL    HW184009  11.862  10.625  12.965
60704SOL    HW284010  11.910  10.501  13.038
60705SOL     OW84011   5.480   3.515   1.598
60705SOL    HW184012   5.402   3.467   1.626
60705SOL    HW284013   5.520   3.460   1.531
60706SOL     OW84014  11.144   1.155   5.724
60706SOL    HW184015  11.101   1.137   5.641
60706SOL    HW284016  11.082   1.210   5.772
60707SOL     OW84017   1.561   5.767   2.527
60707SOL    HW184018   1.584   5.738   2.439
60707SOL    HW284019   1.475   5.808   2.517
60708SOL     OW84020   1.426  13.815   6.528
60708SOL    HW184021   1.383  13.753   6.587
60708SOL    HW284022   1.441  13.893   6.582
60709SOL     OW84023   2.833   6.251   7.874
60709SOL    HW184024   2.822   6.290   7.787
60709SOL    HW284025   2.896   6.308   7.918
60710SOL     OW84026   5.916  14.654   7.219
60710SOL    HW184027   6.011  14.645   7.233
60710SOL    HW284028   5.880  14.573   7.256
60711SOL     OW84029   8.033   6.486  13.784
60711SOL    HW184030   8.021   6.573  13.820
60711SOL    HW284031   7.948   6.465  13.744
60712SOL     OW84032   2.874   6.685   8.497
60712SOL    HW184033   2.822   6.758   8.528
60712SOL    HW284034   2.823   6.647   8.425
60713SOL     OW84035  13.436  13.297   6.277
60713SOL    HW184036  13.419  13.387   6.304
60713SOL    HW284037  13.469  13.305   6.187
60714SOL     OW84038   8.260   7.101   3.050
60714SOL    HW184039   8.339   7.061   3.012
60714SOL    HW284040   8.229   7.161   2.982
60715SOL     OW84041  14.339   6.437   2.227
60715SOL    HW184042  14.299   6.369   2.172
60715SOL    HW284043  14.412   6.393   2.270
60716SOL     OW84044   1.866   4.491   5.131
60716SOL    HW184045   1.950   4.446   5.121
60716SOL    HW284046   1.884   4.581   5.104
60717SOL     OW84047   3.448  11.769  12.427
60717SOL    HW184048   3.544  11.770  12.428
60717SOL    HW284049   3.426  11.679  12.403
60718SOL     OW84050   5.885   5.967   1.422
60718SOL    HW184051   5.859   5.982   1.513
60718SOL    HW284052   5.819   6.012   1.370
60719SOL     OW84053   1.578   6.012   9.266
60719SOL    HW184054   1.624   6.060   9.197
60719SOL    HW284055   1.580   6.071   9.342
60720SOL     OW84056  10.937   0.006   4.839
60720SOL    HW184057  10.976  14.809   4.800
60720SOL    HW284058  10.924   0.066   4.766
60721SOL     OW84059   6.170   4.455   9.313
60721SOL    HW184060   6.094   4.413   9.354
60721SOL    HW284061   6.181   4.537   9.361
60722SOL     OW84062   7.007  12.638   1.330
60722SOL    HW184063   7.046  12.598   1.408
60722SOL    HW284064   7.069  12.616   1.260
60723SOL     OW84065  12.587   7.796   6.968
60723SOL    HW184066  12.602   7.802   6.874
60723SOL    HW284067  12.623   7.878   7.003
60724SOL     OW84068  13.134  10.603   0.811
60724SOL    HW184069  13.167  10.646   0.732
60724SOL    HW284070  13.100  10.674   0.865
60725SOL     OW84071  12.021   6.824  12.089
60725SOL    HW184072  11.931   6.840  12.116
60725SOL    HW284073  12.037   6.889  12.021
60726SOL     OW84074  11.903   6.508  10.078
60726SOL    HW184075  11.842   6.571  10.116
60726SOL    HW284076  11.850   6.459  10.015
60727SOL     OW84077   8.603   4.032   0.797
60727SOL    HW184078   8.590   3.982   0.717
60727SOL    HW284079   8.687   4.001   0.831
60728SOL     OW84080   5.720   2.334   5.214
60728SOL    HW184081   5.793   2.376   5.168
60728SOL    HW284082   5.738   2.352   5.307
60729SOL     OW84083   1.323  11.828   4.764
60729SOL    HW184084   1.406  11.867   4.736
60729SOL    HW284085   1.263  11.903   4.773
60730SOL     OW84086   6.806  11.585   2.656
60730SOL    HW184087   6.836  11.595   2.565
60730SOL    HW284088   6.881  11.546   2.701
60731SOL     OW84089   4.332   2.797   9.572
60731SOL    HW184090   4.269   2.783   9.502
60731SOL    HW284091   4.345   2.892   9.573
60732SOL     OW84092  12.971  14.762   3.264
60732SOL    HW184093  12.922  14.843   3.252
60732SOL    HW284094  13.057  14.779   3.226
60733SOL     OW84095   8.747   4.502   3.087
60733SOL    HW184096   8.670   4.454   3.055
60733SOL    HW284097   8.806   4.434   3.119
60734SOL     OW84098   5.778   6.953   9.325
60734SOL    HW184099   5.792   6.978   9.233
60734SOL    HW284100   5.684   6.938   9.331
60735SOL     OW84101   3.430  11.348   2.577
60735SOL    HW184102   3.382  11.411   2.522
60735SOL    HW284103   3.385  11.265   2.562
60736SOL     OW84104   2.195   3.617  11.129
60736SOL    HW184105   2.195   3.525  11.154
60736SOL    HW284106   2.102   3.637  11.115
60737SOL     OW84107   9.143   9.799   0.219
60737SOL    HW184108   9.113   9.878   0.264
60737SOL    HW284109   9.238   9.805   0.220
60738SOL     OW84110  11.179  11.358   4.243
60738SOL    HW184111  11.118  11.313   4.302
60738SOL    HW284112  11.220  11.287   4.194
60739SOL     OW84113  12.717   1.549   9.785
60739SOL    HW184114  12.809   1.533   9.804
60739SOL    HW284115  12.712   1.643   9.766
60740SOL     OW84116  10.505   9.140   0.980
60740SOL    HW184117  10.583   9.182   0.943
60740SOL    HW284118  10.487   9.189   1.060
60741SOL     OW84119  13.962   9.439   2.481
60741SOL    HW184120  13.939   9.511   2.540
60741SOL    HW284121  13.887   9.380   2.484
60742SOL     OW84122  12.475   6.010   0.938
60742SOL    HW184123  12.388   6.000   0.898
60742SOL    HW284124  12.519   5.927   0.919
60743SOL     OW84125  10.108   4.027   0.921
60743SOL    HW184126  10.049   4.102   0.910
60743SOL    HW284127  10.098   4.003   1.013
60744SOL     OW84128  12.538  11.782   7.270
60744SOL    HW184129  12.480  11.800   7.196
60744SOL    HW284130  12.626  11.797   7.235
60745SOL     OW84131   6.453   0.953   1.679
60745SOL    HW184132   6.363   0.986   1.680
60745SOL    HW284133   6.471   0.927   1.769
60746SOL     OW84134   1.316   7.254   0.010
60746SOL    HW184135   1.306   7.349  14.878
60746SOL    HW284136   1.395   7.245   0.062
60747SOL     OW84137  11.261   2.798  13.723
60747SOL    HW184138  11.333   2.746  13.686
60747SOL    HW284139  11.305   2.871  13.768
60748SOL     OW84140  11.339   7.832   7.306
60748SOL    HW184141  11.396   7.907   7.323
60748SOL    HW284142  11.252   7.861   7.333
60749SOL     OW84143   5.379   1.619  13.932
60749SOL    HW184144   5.412   1.698  13.889
60749SOL    HW284145   5.452   1.557  13.928
60750SOL     OW84146   7.228   2.304  11.130
60750SOL    HW184147   7.153   2.246  11.134
60750SOL    HW284148   7.268   2.299  11.217
60751SOL     OW84149   0.608   9.923   2.873
60751SOL    HW184150   0.560   9.945   2.952
60751SOL    HW284151   0.696   9.901   2.903
60752SOL     OW84152   2.159   0.247   4.375
60752SOL    HW184153   2.134   0.232   4.466
60752SOL    HW284154   2.088   0.209   4.323
60753SOL     OW84155   0.324  14.211  13.216
60753SOL    HW184156   0.348  14.272  13.147
60753SOL    HW284157   0.370  14.242  13.294
60754SOL     OW84158  14.594   5.269  14.520
60754SOL    HW184159  14.527   5.300  14.582
60754SOL    HW284160  14.621   5.184  14.554
60755SOL     OW84161  14.263   8.870  10.951
60755SOL    HW184162  14.310   8.791  10.923
60755SOL    HW284163  14.198   8.837  11.014
60756SOL     OW84164  12.205   1.415  14.115
60756SOL    HW184165  12.250   1.493  14.084
60756SOL    HW284166  12.174   1.438  14.203
60757SOL     OW84167  11.865   0.215  14.048
60757SOL    HW184168  11.957   0.230  14.024
60757SOL    HW284169  11.842   0.133  14.005
60758SOL     OW84170  11.780   5.603   3.826
60758SOL    HW184171  11.727   5.573   3.900
60758SOL    HW284172  11.733   5.680   3.793
60759SOL     OW84173  13.796   6.399   9.810
60759SOL    HW184174  13.738   6.396   9.735
60759SOL    HW284175  13.864   6.334   9.791
60760SOL     OW84176   7.709   3.802  11.846
60760SOL    HW184177   7.704   3.889  11.808
60760SOL    HW284178   7.618   3.775  11.858
60761SOL     OW84179  14.708   1.285  11.454
60761SOL    HW184180  14.695   1.328  11.539
60761SOL    HW284181  14.792   1.241  11.462
60762SOL     OW84182   9.839   5.657   4.672
60762SOL    HW184183   9.772   5.712   4.712
60762SOL    HW284184   9.827   5.571   4.713
60763SOL     OW84185   0.139   8.513  12.973
60763SOL    HW184186   0.235   8.516  12.974
60763SOL    HW284187   0.114   8.496  13.063
60764SOL     OW84188  12.949   1.371  10.479
60764SOL    HW184189  13.004   1.421  10.419
60764SOL    HW284190  12.861   1.378  10.443
60765SOL     OW84191  10.630  10.508  12.369
60765SOL    HW184192  10.545  10.474  12.339
60765SOL    HW284193  10.670  10.435  12.415
60766SOL     OW84194  11.523   7.276  14.087
60766SOL    HW184195  11.512   7.210  14.019
60766SOL    HW284196  11.470   7.350  14.057
60767SOL     OW84197  13.343  11.636  12.706
60767SOL    HW184198  13.382  11.590  12.780
60767SOL    HW284199  13.322  11.722  12.739
60768SOL     OW84200  14.134   9.858   9.309
60768SOL    HW184201  14.209   9.907   9.342
60768SOL    HW284202  14.169   9.808   9.235
60769SOL     OW84203  11.849   5.301  12.890
60769SOL    HW184204  11.937   5.285  12.922
60769SOL    HW284205  11.818   5.375  12.941
60770SOL     OW84206   2.525   4.445  10.540
60770SOL    HW184207   2.575   4.431  10.620
60770SOL    HW284208   2.590   4.441  10.470
60771SOL     OW84209   3.399   2.948  12.347
60771SOL    HW184210   3.396   2.912  12.259
60771SOL    HW284211   3.490   2.976  12.358
60772SOL     OW84212   8.067  12.503   6.231
60772SOL    HW184213   8.036  12.575   6.176
60772SOL    HW284214   7.987  12.459   6.260
60773SOL     OW84215   3.971   9.799  10.918
60773SOL    HW184216   4.058   9.796  10.879
60773SOL    HW284217   3.988   9.814  11.011
60774SOL     OW84218  13.644   6.348  11.376
60774SOL    HW184219  13.630   6.434  11.415
60774SOL    HW284220  13.739   6.334  11.382
60775SOL     OW84221  14.636   6.215  10.744
60775SOL    HW184222  14.569   6.148  10.732
60775SOL    HW284223  14.699   6.199  10.674
60776SOL     OW84224   6.772  10.525   7.892
60776SOL    HW184225   6.753  10.458   7.958
60776SOL    HW284226   6.822  10.479   7.825
60777SOL     OW84227   6.356   0.042   7.649
60777SOL    HW184228   6.319   0.083   7.727
60777SOL    HW284229   6.352  14.828   7.668
60778SOL     OW84230   1.740  13.945   8.013
60778SOL    HW184231   1.789  14.026   7.998
60778SOL    HW284232   1.793  13.897   8.077
60779SOL     OW84233  13.575   6.475  12.115
60779SOL    HW184234  13.617   6.420  12.049
60779SOL    HW284235  13.626   6.462  12.194
60780SOL     OW84236  14.874   4.068  10.474
60780SOL    HW184237   0.065   4.008  10.497
60780SOL    HW284238  14.795   4.013  10.478
60781SOL     OW84239  10.668   3.536  13.225
60781SOL    HW184240  10.761   3.544  13.245
60781SOL    HW284241  10.658   3.575  13.138
60782SOL     OW84242   7.010   2.223   6.679
60782SOL    HW184243   7.083   2.284   6.669
60782SOL    HW284244   6.932   2.275   6.660
60783SOL     OW84245   6.608  11.239  12.996
60783SOL    HW184246   6.545  11.221  12.927
60783SOL    HW284247   6.564  11.211  13.077
60784SOL     OW84248   8.855   4.553   9.553
60784SOL    HW184249   8.879   4.498   9.628
60784SOL    HW284250   8.827   4.491   9.486
60785SOL     OW84251  12.618  14.778   2.106
60785SOL    HW184252  12.554  14.781   2.035
60785SOL    HW284253  12.678  14.850   2.089
60786SOL     OW84254  12.457   1.163   4.072
60786SOL    HW184255  12.450   1.107   3.995
60786SOL    HW284256  12.411   1.244   4.047
60787SOL     OW84257   9.732   4.014   4.775
60787SOL    HW184258   9.736   4.017   4.870
60787SOL    HW284259   9.656   3.960   4.756
60788SOL     OW84260   2.625  12.101   0.039
60788SOL    HW184261   2.583  12.024  14.879
60788SOL    HW284262   2.665  12.066   0.118
60789SOL     OW84263  13.384   4.213   8.823
60789SOL    HW184264  13.436   4.293   8.810
60789SOL    HW284265  13.446   4.142   8.806
60790SOL     OW84266  11.878   3.278   7.367
60790SOL    HW184267  11.937   3.206   7.391
60790SOL    HW284268  11.803   3.235   7.326
60791SOL     OW84269   4.579  10.255  10.181
60791SOL    HW184270   4.586  10.177  10.125
60791SOL    HW284271   4.519  10.313  10.133
60792SOL     OW84272   9.035  14.691   6.560
60792SOL    HW184273   9.110  14.720   6.509
60792SOL    HW284274   9.033  14.596   6.547
60793SOL     OW84275   4.220  13.451   0.610
60793SOL    HW184276   4.266  13.445   0.694
60793SOL    HW284277   4.289  13.449   0.544
60794SOL     OW84278  13.425   8.900  12.359
60794SOL    HW184279  13.415   8.813  12.321
60794SOL    HW284280  13.336   8.933  12.369
60795SOL     OW84281  10.874   6.575   8.861
60795SOL    HW184282  10.798   6.534   8.820
60795SOL    HW284283  10.942   6.508   8.859
60796SOL     OW84284  12.165  14.014  10.880
60796SOL    HW184285  12.170  13.920  10.899
60796SOL    HW284286  12.183  14.021  10.787
60797SOL     OW84287   1.275   0.220   9.581
60797SOL    HW184288   1.357   0.174   9.567
60797SOL    HW284289   1.301   0.310   9.599
60798SOL     OW84290   2.080   0.514   4.369
60798SOL    HW184291   2.147   0.551   4.312
60798SOL    HW284292   2.081   0.420   4.350
60799SOL     OW84293  12.155   6.925  11.695
60799SOL    HW184294  12.181   6.834  11.711
60799SOL    HW284295  12.095   6.946  11.767
60800SOL     OW84296  13.537   7.356   2.967
60800SOL    HW184297  13.529   7.331   2.875
60800SOL    HW284298  13.590   7.435   2.965
60801SOL     OW84299   3.101   6.934   5.470
60801SOL    HW184300   3.117   7.011   5.526
60801SOL    HW284301   3.016   6.901   5.499
60802SOL     OW84302  12.216   4.499   7.817
60802SOL    HW184303  12.299   4.546   7.819
60802SOL    HW284304  12.184   4.504   7.907
60803SOL     OW84305  11.310  13.046   7.834
60803SOL    HW184306  11.324  13.013   7.923
60803SOL    HW284307  11.382  13.108   7.820
60804SOL     OW84308   3.216   9.054   2.408
60804SOL    HW184309   3.201   9.036   2.315
60804SOL    HW284310   3.224   8.967   2.448
60805SOL     OW84311  11.706   7.527   2.831
60805SOL    HW184312  11.684   7.481   2.750
60805SOL    HW284313  11.674   7.616   2.818
60806SOL     OW84314  14.528   4.799   0.120
60806SOL    HW184315  14.434   4.816   0.111
60806SOL    HW284316  14.555   4.766   0.034
60807SOL     OW84317  12.098   9.670   2.046
60807SOL    HW184318  12.025   9.728   2.068
60807SOL    HW284319  12.158   9.726   1.996
60808SOL     OW84320  13.975   0.742   7.815
60808SOL    HW184321  14.017   0.713   7.896
60808SOL    HW284322  13.902   0.797   7.845
60809SOL     OW84323   0.346  14.604   1.519
60809SOL    HW184324   0.436  14.627   1.496
60809SOL    HW284325   0.304  14.584   1.435
60810SOL     OW84326  12.299   0.736   5.114
60810SOL    HW184327  12.258   0.821   5.102
60810SOL    HW284328  12.225   0.676   5.127
60811SOL     OW84329   9.535  12.346  13.437
60811SOL    HW184330   9.499  12.434  13.449
60811SOL    HW284331   9.494  12.294  13.507
60812SOL     OW84332   7.964  10.408  13.385
60812SOL    HW184333   7.890  10.348  13.386
60812SOL    HW284334   8.040  10.351  13.399
60813SOL     OW84335  11.120  14.265   9.563
60813SOL    HW184336  11.115  14.326   9.637
60813SOL    HW284337  11.036  14.273   9.519
60814SOL     OW84338   8.309   5.550   5.604
60814SOL    HW184339   8.308   5.541   5.699
60814SOL    HW284340   8.301   5.644   5.588
60815SOL     OW84341  13.658   7.622   4.398
60815SOL    HW184342  13.600   7.551   4.427
60815SOL    HW284343  13.643   7.693   4.460
60816SOL     OW84344   5.571  13.740   1.094
60816SOL    HW184345   5.589  13.657   1.139
60816SOL    HW284346   5.480  13.733   1.066
60817SOL     OW84347   6.010   4.458  13.989
60817SOL    HW184348   6.018   4.375  13.941
60817SOL    HW284349   5.936   4.444  14.048
60818SOL     OW84350   4.648   5.424  10.993
60818SOL    HW184351   4.604   5.377  10.922
60818SOL    HW284352   4.675   5.355  11.054
60819SOL     OW84353   1.219  12.925   8.876
60819SOL    HW184354   1.275  12.867   8.928
60819SOL    HW284355   1.201  12.875   8.796
60820SOL     OW84356  14.581   4.260  11.793
60820SOL    HW184357  14.641   4.188  11.773
60820SOL    HW284358  14.499   4.217  11.816
60821SOL     OW84359   5.330  10.970   4.563
60821SOL    HW184360   5.383  11.043   4.596
60821SOL    HW284361   5.294  10.930   4.642
60822SOL     OW84362   5.500   1.500   6.960
60822SOL    HW184363   5.540   1.563   7.019
60822SOL    HW284364   5.558   1.500   6.883
60823SOL     OW84365   3.010   8.608  12.796
60823SOL    HW184366   3.082   8.556  12.762
60823SOL    HW284367   3.023   8.610  12.891
60824SOL     OW84368  13.046  13.051  10.818
60824SOL    HW184369  13.025  13.061  10.725
60824SOL    HW284370  12.986  13.111  10.863
60825SOL     OW84371  14.193   9.662   6.802
60825SOL    HW184372  14.161   9.578   6.834
60825SOL    HW284373  14.201   9.716   6.880
60826SOL     OW84374   0.385   6.702   7.879
60826SOL    HW184375   0.289   6.698   7.883
60826SOL    HW284376   0.413   6.698   7.970
60827SOL     OW84377  13.655   2.664   6.949
60827SOL    HW184378  13.628   2.754   6.970
60827SOL    HW284379  13.599   2.640   6.875
60828SOL     OW84380   6.955   1.194   0.490
60828SOL    HW184381   6.977   1.278   0.530
60828SOL    HW284382   6.861   1.200   0.471
60829SOL     OW84383   9.874   1.109   2.554
60829SOL    HW184384   9.842   1.192   2.591
60829SOL    HW284385   9.820   1.042   2.595
60830SOL     OW84386   0.653   7.199   2.025
60830SOL    HW184387   0.636   7.138   2.097
60830SOL    HW284388   0.581   7.262   2.030
60831SOL     OW84389   9.237   2.830   6.012
60831SOL    HW184390   9.262   2.755   5.958
60831SOL    HW284391   9.195   2.791   6.089
60832SOL     OW84392   4.478  12.274   2.624
60832SOL    HW184393   4.478  12.179   2.621
60832SOL    HW284394   4.557  12.300   2.578
60833SOL     OW84395   6.775   5.538   5.509
60833SOL    HW184396   6.748   5.478   5.439
60833SOL    HW284397   6.697   5.548   5.563
60834SOL     OW84398   0.487   6.477  12.790
60834SOL    HW184399   0.399   6.480  12.826
60834SOL    HW284400   0.545   6.496  12.864
60835SOL     OW84401  10.301   6.681  12.476
60835SOL    HW184402  10.240   6.737  12.524
60835SOL    HW284403  10.249   6.646  12.403
60836SOL     OW84404   3.002  12.238   7.582
60836SOL    HW184405   3.001  12.258   7.488
60836SOL    HW284406   2.916  12.266   7.613
60837SOL     OW84407  11.765   7.406  10.828
60837SOL    HW184408  11.786   7.340  10.893
60837SOL    HW284409  11.720   7.358  10.758
60838SOL     OW84410   0.002   6.988   6.877
60838SOL    HW184411  14.808   6.952   6.829
60838SOL    HW284412   0.041   6.912   6.922
60839SOL     OW84413   0.609  14.443   6.128
60839SOL    HW184414   0.674  14.388   6.173
60839SOL    HW284415   0.651  14.469   6.046
60840SOL     OW84416  11.471   0.350   9.772
60840SOL    HW184417  11.461   0.445   9.778
60840SOL    HW284418  11.560   0.334   9.804
60841SOL     OW84419   0.504  11.025  11.174
60841SOL    HW184420   0.525  10.956  11.238
60841SOL    HW284421   0.409  11.031  11.176
60842SOL     OW84422  11.655   6.298   4.794
60842SOL    HW184423  11.601   6.370   4.761
60842SOL    HW284424  11.632   6.223   4.739
60843SOL     OW84425   3.538   3.754   5.542
60843SOL    HW184426   3.489   3.802   5.608
60843SOL    HW284427   3.555   3.818   5.473
60844SOL     OW84428  12.289   4.135   8.258
60844SOL    HW184429  12.304   4.122   8.352
60844SOL    HW284430  12.351   4.076   8.215
60845SOL     OW84431   0.183  14.415  14.822
60845SOL    HW184432   0.266  14.379  14.789
60845SOL    HW284433   0.122  14.404  14.749
60846SOL     OW84434   5.342   9.081  11.351
60846SOL    HW184435   5.388   9.044  11.276
60846SOL    HW284436   5.284   9.148  11.313
60847SOL     OW84437   3.595   2.670   9.387
60847SOL    HW184438   3.547   2.717   9.319
60847SOL    HW284439   3.622   2.738   9.448
60848SOL     OW84440  11.199   0.374   5.222
60848SOL    HW184441  11.230   0.464   5.214
60848SOL    HW284442  11.148   0.373   5.303
60849SOL     OW84443   9.904  11.424  13.713
60849SOL    HW184444   9.970  11.418  13.644
60849SOL    HW284445   9.833  11.367  13.683
60850SOL     OW84446   4.315   8.221  12.201
60850SOL    HW184447   4.336   8.230  12.108
60850SOL    HW284448   4.228   8.261  12.209
60851SOL     OW84449   9.975   1.296   8.305
60851SOL    HW184450   9.911   1.247   8.254
60851SOL    HW284451  10.036   1.230   8.338
60852SOL     OW84452  12.468   2.516  12.502
60852SOL    HW184453  12.430   2.433  12.532
60852SOL    HW284454  12.460   2.575  12.577
60853SOL     OW84455   0.932   5.670   5.277
60853SOL    HW184456   0.996   5.712   5.220
60853SOL    HW284457   0.976   5.663   5.362
60854SOL     OW84458   7.365  14.784   4.181
60854SOL    HW184459   7.344  14.860   4.126
60854SOL    HW284460   7.383  14.821   4.267
60855SOL     OW84461   1.587  14.863   7.979
60855SOL    HW184462   1.496  14.873   8.006
60855SOL    HW284463   1.593   0.030   7.896
60856SOL     OW84464  11.721   9.813  14.199
60856SOL    HW184465  11.717   9.825  14.104
60856SOL    HW284466  11.755   9.896  14.232
60857SOL     OW84467   3.746   8.910   9.175
60857SOL    HW184468   3.690   8.937   9.102
60857SOL    HW284469   3.709   8.956   9.251
60858SOL     OW84470   5.446   4.819   9.626
60858SOL    HW184471   5.499   4.789   9.552
60858SOL    HW284472   5.509   4.862   9.684
60859SOL     OW84473  10.439  10.079   4.492
60859SOL    HW184474  10.475  10.086   4.403
60859SOL    HW284475  10.419   9.986   4.502
60860SOL     OW84476  11.638  10.951   6.615
60860SOL    HW184477  11.547  10.931   6.633
60860SOL    HW284478  11.670  10.994   6.695
60861SOL     OW84479   4.841   6.848   5.530
60861SOL    HW184480   4.909   6.907   5.563
60861SOL    HW284481   4.758   6.891   5.553
60862SOL     OW84482  12.354  10.555   6.065
60862SOL    HW184483  12.263  10.531   6.083
60862SOL    HW284484  12.400  10.471   6.059
60863SOL     OW84485   1.974   9.303   5.751
60863SOL    HW184486   2.000   9.385   5.711
60863SOL    HW284487   1.911   9.265   5.690
60864SOL     OW84488   9.454  13.393   0.486
60864SOL    HW184489   9.450  13.335   0.562
60864SOL    HW284490   9.495  13.341   0.417
60865SOL     OW84491   3.287  11.579   5.001
60865SOL    HW184492   3.331  11.498   4.977
60865SOL    HW284493   3.282  11.629   4.920
60866SOL     OW84494   4.260  11.056   8.051
60866SOL    HW184495   4.215  11.089   8.128
60866SOL    HW284496   4.258  11.129   7.989
60867SOL     OW84497   0.013  11.925   6.864
60867SOL    HW184498  14.859  11.840   6.893
60867SOL    HW284499  14.841  11.989   6.913
60868SOL     OW84500   3.508   7.961  10.739
60868SOL    HW184501   3.531   7.934  10.827
60868SOL    HW284502   3.451   7.891  10.706
60869SOL     OW84503  10.952   3.863   5.128
60869SOL    HW184504  10.890   3.921   5.083
60869SOL    HW284505  10.920   3.774   5.109
60870SOL     OW84506  10.718  14.369   5.549
60870SOL    HW184507  10.794  14.327   5.590
60870SOL    HW284508  10.734  14.359   5.455
60871SOL     OW84509   8.913  13.942   3.017
60871SOL    HW184510   8.924  13.973   3.107
60871SOL    HW284511   8.941  14.015   2.963
60872SOL     OW84512  10.800   2.812   7.066
60872SOL    HW184513  10.838   2.833   6.982
60872SOL    HW284514  10.726   2.872   7.075
60873SOL     OW84515   8.583  13.152   6.549
60873SOL    HW184516   8.516  13.087   6.573
60873SOL    HW284517   8.552  13.189   6.467
60874SOL     OW84518   4.334   9.292   3.156
60874SOL    HW184519   4.241   9.315   3.158
60874SOL    HW284520   4.337   9.207   3.112
60875SOL     OW84521   0.927   1.887   4.356
60875SOL    HW184522   0.883   1.962   4.396
60875SOL    HW284523   0.995   1.863   4.418
60876SOL     OW84524   8.273   1.914   5.561
60876SOL    HW184525   8.183   1.904   5.592
60876SOL    HW284526   8.313   1.975   5.623
60877SOL     OW84527  12.021   3.419   1.819
60877SOL    HW184528  11.932   3.446   1.797
60877SOL    HW284529  12.010   3.335   1.865
60878SOL     OW84530   0.632   8.813   9.882
60878SOL    HW184531   0.634   8.774   9.794
60878SOL    HW284532   0.724   8.815   9.909
60879SOL     OW84533   9.526  10.319  13.433
60879SOL    HW184534   9.486  10.281  13.511
60879SOL    HW284535   9.597  10.374  13.467
60880SOL     OW84536   9.442   8.264  10.378
60880SOL    HW184537   9.510   8.290  10.315
60880SOL    HW284538   9.449   8.168  10.382
60881SOL     OW84539   7.626   6.301  13.860
60881SOL    HW184540   7.574   6.347  13.926
60881SOL    HW284541   7.563   6.246  13.814
60882SOL     OW84542   6.760   6.482  11.460
60882SOL    HW184543   6.817   6.502  11.534
60882SOL    HW284544   6.685   6.541  11.471
60883SOL     OW84545   5.055   3.655   3.225
60883SOL    HW184546   4.975   3.617   3.260
60883SOL    HW284547   5.117   3.582   3.223
60884SOL     OW84548   9.119   3.353   5.134
60884SOL    HW184549   9.064   3.419   5.092
60884SOL    HW284550   9.088   3.350   5.225
60885SOL     OW84551   3.821  10.811  13.498
60885SOL    HW184552   3.892  10.841  13.555
60885SOL    HW284553   3.787  10.733  13.541
60886SOL     OW84554   3.178   3.211  10.526
60886SOL    HW184555   3.195   3.222  10.432
60886SOL    HW284556   3.176   3.300  10.560
60887SOL     OW84557  14.557   9.182  11.187
60887SOL    HW184558  14.627   9.161  11.126
60887SOL    HW284559  14.600   9.180  11.273
60888SOL     OW84560   3.670   3.608   6.341
60888SOL    HW184561   3.578   3.614   6.315
60888SOL    HW284562   3.675   3.529   6.395
60889SOL     OW84563   1.457  10.798   6.630
60889SOL    HW184564   1.489  10.879   6.669
60889SOL    HW284565   1.394  10.764   6.693
60890SOL     OW84566   1.336   8.546  11.975
60890SOL    HW184567   1.269   8.532  12.042
60890SOL    HW284568   1.321   8.635  11.944
60891SOL     OW84569  12.691   6.174   1.158
60891SOL    HW184570  12.663   6.084   1.175
60891SOL    HW284571  12.613   6.217   1.121
60892SOL     OW84572   7.057  12.659  13.316
60892SOL    HW184573   7.005  12.633  13.392
60892SOL    HW284574   7.140  12.613  13.327
60893SOL     OW84575   9.848  10.101  11.729
60893SOL    HW184576   9.806  10.015  11.726
60893SOL    HW284577   9.793  10.157  11.673
60894SOL     OW84578   6.423  12.921  13.559
60894SOL    HW184579   6.495  12.973  13.524
60894SOL    HW284580   6.435  12.924  13.654
60895SOL     OW84581   0.117   8.586  10.898
60895SOL    HW184582   0.031   8.627  10.894
60895SOL    HW284583   0.179   8.658  10.883
60896SOL     OW84584   7.039  11.036   6.447
60896SOL    HW184585   7.033  10.974   6.520
60896SOL    HW284586   6.950  11.072   6.438
60897SOL     OW84587  14.786   1.017   7.644
60897SOL    HW184588  14.768   0.961   7.568
60897SOL    HW284589  14.843   1.085   7.611
60898SOL     OW84590   8.340   0.263   6.778
60898SOL    HW184591   8.348   0.187   6.721
60898SOL    HW284592   8.411   0.321   6.750
60899SOL     OW84593   3.866  13.024   2.755
60899SOL    HW184594   3.870  12.968   2.832
60899SOL    HW284595   3.789  13.079   2.768
60900SOL     OW84596  13.738   5.344  13.215
60900SOL    HW184597  13.707   5.403  13.284
60900SOL    HW284598  13.828   5.322  13.241
60901SOL     OW84599  12.269  10.178   4.992
60901SOL    HW184600  12.197  10.146   5.046
60901SOL    HW284601  12.333  10.211   5.054
60902SOL     OW84602   9.967   7.556   7.566
60902SOL    HW184603   9.917   7.567   7.647
60902SOL    HW284604   9.976   7.462   7.555
60903SOL     OW84605   4.728   2.440  14.759
60903SOL    HW184606   4.805   2.386  14.748
60903SOL    HW284607   4.667   2.410  14.692
60904SOL     OW84608  10.995  14.349   4.232
60904SOL    HW184609  11.085  14.348   4.198
60904SOL    HW284610  11.004  14.323   4.324
60905SOL     OW84611   5.453  12.174  13.894
60905SOL    HW184612   5.440  12.219  13.810
60905SOL    HW284613   5.366  12.174  13.934
60906SOL     OW84614   0.919  11.200  14.239
60906SOL    HW184615   0.925  11.161  14.152
60906SOL    HW284616   1.010  11.201  14.271
60907SOL     OW84617   8.037   5.251  14.396
60907SOL    HW184618   7.994   5.336  14.401
60907SOL    HW284619   8.108   5.264  14.333
60908SOL     OW84620   5.908   7.616   4.828
60908SOL    HW184621   5.954   7.568   4.898
60908SOL    HW284622   5.960   7.598   4.750
60909SOL     OW84623   8.300  11.650   4.040
60909SOL    HW184624   8.211  11.679   4.019
60909SOL    HW284625   8.306  11.562   4.003
60910SOL     OW84626   0.415  13.060   7.846
60910SOL    HW184627   0.333  13.107   7.854
60910SOL    HW284628   0.472  13.118   7.795
60911SOL     OW84629  12.044   9.831  10.627
60911SOL    HW184630  12.027   9.750  10.579
60911SOL    HW284631  12.137   9.848  10.613
60912SOL     OW84632  10.135  12.393   6.492
60912SOL    HW184633  10.146  12.326   6.559
60912SOL    HW284634  10.060  12.365   6.441
60913SOL     OW84635   5.633  13.268   9.342
60913SOL    HW184636   5.544  13.301   9.354
60913SOL    HW284637   5.664  13.251   9.431
60914SOL     OW84638   7.928   9.874   9.661
60914SOL    HW184639   7.892   9.928   9.732
60914SOL    HW284640   7.875   9.898   9.585
60915SOL     OW84641   7.906   4.265   5.731
60915SOL    HW184642   7.944   4.317   5.660
60915SOL    HW284643   7.828   4.314   5.757
60916SOL     OW84644   1.667   8.990   6.397
60916SOL    HW184645   1.609   8.913   6.397
60916SOL    HW284646   1.703   8.993   6.308
60917SOL     OW84647  11.917   5.707   1.779
60917SOL    HW184648  11.905   5.758   1.859
60917SOL    HW284649  11.836   5.656   1.771
60918SOL     OW84650   6.545   8.411   3.849
60918SOL    HW184651   6.618   8.376   3.899
60918SOL    HW284652   6.584   8.444   3.768
60919SOL     OW84653   2.975   0.688  12.593
60919SOL    HW184654   2.903   0.731  12.640
60919SOL    HW284655   2.966   0.718  12.503
60920SOL     OW84656   5.456  11.703   4.739
60920SOL    HW184657   5.459  11.729   4.647
60920SOL    HW284658   5.464  11.785   4.787
60921SOL     OW84659   9.225  11.871   6.777
60921SOL    HW184660   9.299  11.916   6.817
60921SOL    HW284661   9.250  11.778   6.776
60922SOL     OW84662   5.354   1.897  13.040
60922SOL    HW184663   5.339   1.833  12.971
60922SOL    HW284664   5.270   1.906  13.083
60923SOL     OW84665   3.936  14.350   5.690
60923SOL    HW184666   3.971  14.328   5.604
60923SOL    HW284667   4.011  14.389   5.736
60924SOL     OW84668   0.025  10.088  13.307
60924SOL    HW184669   0.065  10.055  13.388
60924SOL    HW284670  14.828  10.033  13.294
60925SOL     OW84671   3.729  13.812  10.814
60925SOL    HW184672   3.646  13.829  10.769
60925SOL    HW284673   3.745  13.719  10.800
60926SOL     OW84674   0.868  14.649   4.309
60926SOL    HW184675   0.936  14.707   4.275
60926SOL    HW284676   0.797  14.708   4.335
60927SOL     OW84677   0.603  10.628   8.144
60927SOL    HW184678   0.611  10.628   8.049
60927SOL    HW284679   0.547  10.703   8.164
60928SOL     OW84680   1.475  10.850  11.221
60928SOL    HW184681   1.451  10.900  11.299
60928SOL    HW284682   1.471  10.759  11.250
60929SOL     OW84683   1.775  12.184  12.643
60929SOL    HW184684   1.758  12.159  12.733
60929SOL    HW284685   1.694  12.162  12.596
60930SOL     OW84686   4.670  10.438  10.345
60930SOL    HW184687   4.761  10.438  10.315
60930SOL    HW284688   4.627  10.371  10.292
60931SOL     OW84689   6.471   6.637   7.819
60931SOL    HW184690   6.498   6.565   7.876
60931SOL    HW284691   6.377   6.626   7.808
60932SOL     OW84692  12.946  12.287   8.835
60932SOL    HW184693  12.924  12.255   8.922
60932SOL    HW284694  12.864  12.280   8.785
60933SOL     OW84695   1.679  11.032  11.124
60933SOL    HW184696   1.652  10.948  11.161
60933SOL    HW284697   1.610  11.054  11.061
60934SOL     OW84698   4.487   4.386   6.736
60934SOL    HW184699   4.471   4.303   6.692
60934SOL    HW284700   4.491   4.450   6.665
60935SOL     OW84701   5.575   9.756  11.993
60935SOL    HW184702   5.609   9.678  12.037
60935SOL    HW284703   5.556   9.817  12.063
60936SOL     OW84704   5.193  11.034  12.671
60936SOL    HW184705   5.180  10.940  12.658
60936SOL    HW284706   5.261  11.040  12.738
60937SOL     OW84707  12.416  13.441  12.230
60937SOL    HW184708  12.362  13.363  12.215
60937SOL    HW284709  12.359  13.515  12.209
60938SOL     OW84710   7.101   0.573   4.803
60938SOL    HW184711   7.190   0.565   4.768
60938SOL    HW284712   7.051   0.508   4.755
60939SOL     OW84713   8.666   8.770   8.125
60939SOL    HW184714   8.639   8.732   8.041
60939SOL    HW284715   8.611   8.727   8.190
60940SOL     OW84716  10.334   0.682  14.493
60940SOL    HW184717  10.262   0.707  14.551
60940SOL    HW284718  10.326   0.741  14.418
60941SOL     OW84719   0.838  11.882   2.247
60941SOL    HW184720   0.776  11.952   2.267
60941SOL    HW284721   0.833  11.823   2.322
60942SOL     OW84722   1.618   0.682   1.294
60942SOL    HW184723   1.711   0.676   1.315
60942SOL    HW284724   1.588   0.761   1.338
60943SOL     OW84725  11.941  10.396  14.736
60943SOL    HW184726  11.866  10.442  14.698
60943SOL    HW284727  11.951  10.318  14.683
60944SOL     OW84728   5.319  13.547   0.004
60944SOL    HW184729   5.262  13.490   0.056
60944SOL    HW284730   5.295  13.530  14.794
60945SOL     OW84731  14.569  12.655  12.763
60945SOL    HW184732  14.573  12.749  12.747
60945SOL    HW284733  14.660  12.627  12.765
60946SOL     OW84734   4.305  14.750   7.541
60946SOL    HW184735   4.256  14.829   7.564
60946SOL    HW284736   4.340  14.718   7.625
60947SOL     OW84737  14.101   2.976  13.835
60947SOL    HW184738  14.025   3.032  13.822
60947SOL    HW284739  14.176   3.035  13.836
60948SOL     OW84740  14.827   9.223  12.368
60948SOL    HW184741  14.859   9.308  12.399
60948SOL    HW284742  14.817   9.235  12.273
60949SOL     OW84743   6.909   6.751   9.556
60949SOL    HW184744   6.850   6.693   9.603
60949SOL    HW284745   6.855   6.827   9.533
60950SOL     OW84746  12.035   8.499   3.578
60950SOL    HW184747  12.043   8.428   3.514
60950SOL    HW284748  12.039   8.579   3.525
60951SOL     OW84749  14.878   6.717   8.243
60951SOL    HW184750   0.076   6.765   8.270
60951SOL    HW284751   0.027   6.627   8.232
60952SOL     OW84752   0.412   6.209  14.574
60952SOL    HW184753   0.342   6.144  14.580
60952SOL    HW284754   0.491   6.163  14.603
60953SOL     OW84755   4.520   5.782   6.346
60953SOL    HW184756   4.472   5.834   6.410
60953SOL    HW284757   4.481   5.807   6.262
60954SOL     OW84758   4.182   6.693   8.903
60954SOL    HW184759   4.096   6.652   8.912
60954SOL    HW284760   4.204   6.723   8.991
60955SOL     OW84761   7.686   9.450   1.127
60955SOL    HW184762   7.597   9.416   1.114
60955SOL    HW284763   7.743   9.380   1.096
60956SOL     OW84764   0.321   5.016   7.075
60956SOL    HW184765   0.303   5.104   7.043
60956SOL    HW284766   0.261   4.960   7.025
60957SOL     OW84767  10.222  11.802  12.245
60957SOL    HW184768  10.144  11.839  12.288
60957SOL    HW284769  10.293  11.861  12.270
60958SOL     OW84770  10.627   0.454   1.756
60958SOL    HW184771  10.550   0.417   1.712
60958SOL    HW284772  10.665   0.514   1.691
60959SOL     OW84773   4.104  14.841  14.436
60959SOL    HW184774   4.151  14.758  14.435
60959SOL    HW284775   4.170   0.027  14.419
60960SOL     OW84776   5.937   2.527   3.561
60960SOL    HW184777   5.912   2.608   3.517
60960SOL    HW284778   5.965   2.555   3.649
60961SOL     OW84779   8.012   0.771  11.770
60961SOL    HW184780   7.975   0.854  11.740
60961SOL    HW284781   8.033   0.724  11.689
60962SOL     OW84782   6.835  14.460  10.056
60962SOL    HW184783   6.916  14.496  10.091
60962SOL    HW284784   6.784  14.537  10.030
60963SOL     OW84785  10.261  11.605   0.933
60963SOL    HW184786  10.257  11.658   1.012
60963SOL    HW284787  10.308  11.526   0.959
60964SOL     OW84788   6.718  11.337  10.948
60964SOL    HW184789   6.753  11.354  10.860
60964SOL    HW284790   6.762  11.402  11.004
60965SOL     OW84791   5.845  12.353   3.126
60965SOL    HW184792   5.773  12.347   3.189
60965SOL    HW284793   5.823  12.289   3.058
60966SOL     OW84794  12.642  14.399   1.418
60966SOL    HW184795  12.587  14.391   1.496
60966SOL    HW284796  12.612  14.480   1.376
60967SOL     OW84797   4.541  14.689   1.894
60967SOL    HW184798   4.594  14.761   1.861
60967SOL    HW284799   4.454  14.703   1.856
60968SOL     OW84800  14.454   7.859  13.502
60968SOL    HW184801  14.496   7.836  13.585
60968SOL    HW284802  14.443   7.775  13.457
60969SOL     OW84803   5.909   2.253   9.713
60969SOL    HW184804   5.823   2.245   9.671
60969SOL    HW284805   5.897   2.323   9.778
60970SOL     OW84806  14.615  10.554  11.727
60970SOL    HW184807  14.564  10.629  11.757
60970SOL    HW284808  14.683  10.592  11.671
60971SOL     OW84809  12.199   7.599  11.683
60971SOL    HW184810  12.114   7.565  11.711
60971SOL    HW284811  12.215   7.673  11.742
60972SOL     OW84812   2.981  11.980  13.629
60972SOL    HW184813   3.031  11.901  13.609
60972SOL    HW284814   2.893  11.961  13.597
60973SOL     OW84815   7.205   3.410  11.904
60973SOL    HW184816   7.130   3.371  11.858
60973SOL    HW284817   7.175   3.497  11.928
60974SOL     OW84818   2.346   7.224   3.432
60974SOL    HW184819   2.269   7.212   3.377
60974SOL    HW284820   2.311   7.235   3.520
60975SOL     OW84821   8.847   7.832   6.911
60975SOL    HW184822   8.826   7.741   6.886
60975SOL    HW284823   8.765   7.879   6.899
60976SOL     OW84824   0.004   4.583  12.387
60976SOL    HW184825  14.804   4.554  12.344
60976SOL    HW284826   0.045   4.502  12.417
60977SOL     OW84827   0.307  11.312   7.248
60977SOL    HW184828   0.386  11.349   7.210
60977SOL    HW284829   0.269  11.258   7.179
60978SOL     OW84830  12.203   6.831   8.779
60978SOL    HW184831  12.210   6.796   8.868
60978SOL    HW284832  12.118   6.876   8.778
60979SOL     OW84833   2.170   1.670   3.299
60979SOL    HW184834   2.255   1.700   3.266
60979SOL    HW284835   2.180   1.576   3.309
60980SOL     OW84836   3.880  12.626   5.451
60980SOL    HW184837   3.933  12.567   5.504
60980SOL    HW284838   3.919  12.712   5.465
60981SOL     OW84839   7.741   4.723   1.118
60981SOL    HW184840   7.756   4.815   1.096
60981SOL    HW284841   7.690   4.689   1.045
60982SOL     OW84842   0.756  14.469  14.119
60982SOL    HW184843   0.712  14.543  14.160
60982SOL    HW284844   0.817  14.508  14.057
60983SOL     OW84845   4.985  14.606   6.260
60983SOL    HW184846   4.991  14.690   6.306
60983SOL    HW284847   4.932  14.551   6.317
60984SOL     OW84848   5.791   6.617   9.453
60984SOL    HW184849   5.744   6.632   9.371
60984SOL    HW284850   5.806   6.522   9.455
60985SOL     OW84851   0.207  10.079   6.223
60985SOL    HW184852   0.285  10.120   6.186
60985SOL    HW284853   0.163  10.150   6.270
60986SOL     OW84854   5.516   0.852   6.914
60986SOL    HW184855   5.526   0.862   7.009
60986SOL    HW284856   5.439   0.795   6.905
60987SOL     OW84857   2.547   9.408   6.597
60987SOL    HW184858   2.579   9.462   6.670
60987SOL    HW284859   2.455   9.392   6.618
60988SOL     OW84860   6.099  14.106   0.973
60988SOL    HW184861   6.043  14.184   0.972
60988SOL    HW284862   6.166  14.126   1.038
60989SOL     OW84863  10.823  14.590  11.123
60989SOL    HW184864  10.895  14.570  11.184
60989SOL    HW284865  10.745  14.559  11.169
60990SOL     OW84866   0.755  10.471   5.424
60990SOL    HW184867   0.718  10.539   5.481
60990SOL    HW284868   0.850  10.478   5.436
60991SOL     OW84869  13.080  10.483   7.326
60991SOL    HW184870  13.170  10.485   7.292
60991SOL    HW284871  13.059  10.390   7.330
60992SOL     OW84872  10.427   8.486   3.005
60992SOL    HW184873  10.402   8.394   3.013
60992SOL    HW284874  10.483   8.488   2.927
60993SOL     OW84875   1.604   3.443   4.674
60993SOL    HW184876   1.559   3.381   4.618
60993SOL    HW284877   1.657   3.496   4.614
60994SOL     OW84878  12.504   3.435   0.249
60994SOL    HW184879  12.488   3.446   0.343
60994SOL    HW284880  12.434   3.485   0.207
60995SOL     OW84881  13.904   0.849  13.876
60995SOL    HW184882  13.897   0.761  13.914
60995SOL    HW284883  13.863   0.842  13.790
60996SOL     OW84884  13.883   7.041   9.370
60996SOL    HW184885  13.957   7.047   9.310
60996SOL    HW284886  13.854   6.950   9.364
60997SOL     OW84887   6.010   4.540  13.170
60997SOL    HW184888   5.982   4.492  13.093
60997SOL    HW284889   6.010   4.476  13.241
60998SOL     OW84890   0.717   0.840   1.757
60998SOL    HW184891   0.692   0.855   1.848
60998SOL    HW284892   0.756   0.752   1.758
60999SOL     OW84893   5.637   7.509   4.823
60999SOL    HW184894   5.703   7.554   4.875
60999SOL    HW284895   5.679   7.494   4.738
61000SOL     OW84896   7.632   3.165  13.221
61000SOL    HW184897   7.633   3.254  13.188
61000SOL    HW284898   7.617   3.174  13.315
61001SOL     OW84899  13.432  11.820  11.820
61001SOL    HW184900  13.463  11.857  11.737
61001SOL    HW284901  13.395  11.894  11.867
61002SOL     OW84902  12.388   1.783   0.781
61002SOL    HW184903  12.444   1.720   0.736
61002SOL    HW284904  12.352   1.837   0.711
61003SOL     OW84905   8.165  11.864  12.372
61003SOL    HW184906   8.230  11.793  12.369
61003SOL    HW284907   8.131  11.869  12.282
61004SOL     OW84908  12.838   4.574   8.885
61004SOL    HW184909  12.862   4.637   8.817
61004SOL    HW284910  12.918   4.561   8.935
61005SOL     OW84911   2.138   8.286   1.129
61005SOL    HW184912   2.159   8.222   1.061
61005SOL    HW284913   2.217   8.289   1.183
61006SOL     OW84914   1.899   6.409   5.357
61006SOL    HW184915   1.993   6.425   5.350
61006SOL    HW284916   1.866   6.484   5.405
61007SOL     OW84917   6.323  13.416  11.551
61007SOL    HW184918   6.357  13.344  11.605
61007SOL    HW284919   6.280  13.474  11.613
61008SOL     OW84920  10.068   9.194   5.129
61008SOL    HW184921   9.982   9.217   5.093
61008SOL    HW284922  10.075   9.100   5.117
61009SOL     OW84923  13.602  13.461   6.959
61009SOL    HW184924  13.519  13.505   6.940
61009SOL    HW284925  13.668  13.519   6.923
61010SOL     OW84926   3.827   3.712   4.579
61010SOL    HW184927   3.772   3.744   4.650
61010SOL    HW284928   3.912   3.693   4.621
61011SOL     OW84929   5.782   3.490   0.152
61011SOL    HW184930   5.716   3.468   0.217
61011SOL    HW284931   5.850   3.424   0.162
61012SOL     OW84932   4.510   8.148   4.537
61012SOL    HW184933   4.488   8.175   4.626
61012SOL    HW284934   4.493   8.225   4.483
61013SOL     OW84935  14.185   7.880   6.529
61013SOL    HW184936  14.090   7.880   6.537
61013SOL    HW284937  14.212   7.967   6.559
61014SOL     OW84938  10.157  11.801   9.832
61014SOL    HW184939  10.212  11.723   9.844
61014SOL    HW284940  10.174  11.828   9.742
61015SOL     OW84941   2.509   7.924  11.797
61015SOL    HW184942   2.575   7.993  11.808
61015SOL    HW284943   2.557   7.852  11.757
61016SOL     OW84944   0.256   9.668   9.721
61016SOL    HW184945   0.323   9.707   9.664
61016SOL    HW284946   0.301   9.654   9.804
61017SOL     OW84947   5.879  13.759  13.953
61017SOL    HW184948   5.787  13.732  13.952
61017SOL    HW284949   5.907  13.744  14.043
61018SOL     OW84950   7.626   7.419  11.612
61018SOL    HW184951   7.615   7.476  11.536
61018SOL    HW284952   7.645   7.480  11.684
61019SOL     OW84953   3.203   4.487   6.381
61019SOL    HW184954   3.220   4.405   6.426
61019SOL    HW284955   3.287   4.513   6.344
61020SOL     OW84956   9.868  12.611  11.778
61020SOL    HW184957   9.824  12.691  11.750
61020SOL    HW284958   9.824  12.587  11.859
61021SOL     OW84959  11.230   4.018  12.272
61021SOL    HW184960  11.185   4.070  12.338
61021SOL    HW284961  11.160   3.976  12.223
61022SOL     OW84962  11.127  13.074   6.161
61022SOL    HW184963  11.144  12.980   6.162
61022SOL    HW284964  11.203  13.112   6.118
61023SOL     OW84965   8.749  14.330   0.291
61023SOL    HW184966   8.736  14.368   0.378
61023SOL    HW284967   8.736  14.403   0.231
61024SOL     OW84968   9.910   1.860   0.689
61024SOL    HW184969   9.853   1.937   0.692
61024SOL    HW284970   9.867   1.800   0.629
61025SOL     OW84971   4.034  13.676  10.302
61025SOL    HW184972   4.076  13.601  10.344
61025SOL    HW284973   3.998  13.727  10.374
61026SOL     OW84974   2.850   7.654   5.818
61026SOL    HW184975   2.918   7.587   5.817
61026SOL    HW284976   2.798   7.635   5.895
61027SOL     OW84977   8.931   1.372   0.890
61027SOL    HW184978   8.965   1.286   0.864
61027SOL    HW284979   8.860   1.390   0.829
61028SOL     OW84980   5.613   0.089   1.153
61028SOL    HW184981   5.654   0.172   1.178
61028SOL    HW284982   5.659   0.023   1.205
61029SOL     OW84983   5.303   4.451   1.190
61029SOL    HW184984   5.284   4.534   1.234
61029SOL    HW284985   5.364   4.406   1.249
61030SOL     OW84986   6.916   8.328   4.736
61030SOL    HW184987   6.882   8.363   4.818
61030SOL    HW284988   6.841   8.329   4.676
61031SOL     OW84989   7.044  12.438   9.602
61031SOL    HW184990   7.114  12.470   9.658
61031SOL    HW284991   7.036  12.345   9.623
61032SOL     OW84992  10.267   3.844  13.234
61032SOL    HW184993  10.216   3.923  13.249
61032SOL    HW284994  10.208   3.772  13.257
61033SOL     OW84995  11.622  10.902  13.987
61033SOL    HW184996  11.694  10.862  13.938
61033SOL    HW284997  11.588  10.831  14.042
61034SOL     OW84998   4.701  11.716   2.267
61034SOL    HW184999   4.619  11.668   2.275
61034SOL    HW285000   4.683  11.785   2.204
61035SOL     OW85001   3.566   6.943   8.217
61035SOL    HW185002   3.581   6.876   8.150
61035SOL    HW285003   3.651   6.986   8.227
61036SOL     OW85004   8.513   1.870  13.475
61036SOL    HW185005   8.441   1.843  13.417
61036SOL    HW285006   8.582   1.806  13.459
61037SOL     OW85007   9.380   9.393   4.546
61037SOL    HW185008   9.443   9.321   4.544
61037SOL    HW285009   9.422   9.461   4.598
61038SOL     OW85010   4.929   5.037   6.092
61038SOL    HW185011   4.957   4.955   6.050
61038SOL    HW285012   4.911   5.012   6.182
61039SOL     OW85013  13.797  13.670   1.083
61039SOL    HW185014  13.863  13.723   1.126
61039SOL    HW285015  13.816  13.580   1.110
61040SOL     OW85016   5.301   0.013   4.008
61040SOL    HW185017   5.315  14.848   4.091
61040SOL    HW285018   5.243  14.837   3.959
61041SOL     OW85019   1.185   5.435   2.628
61041SOL    HW185020   1.191   5.442   2.723
61041SOL    HW285021   1.263   5.480   2.595
61042SOL     OW85022  12.492  14.104   3.971
61042SOL    HW185023  12.572  14.054   3.953
61042SOL    HW285024  12.477  14.156   3.893
61043SOL     OW85025   8.081  14.204   8.205
61043SOL    HW185026   8.134  14.147   8.261
61043SOL    HW285027   7.993  14.198   8.240
61044SOL     OW85028   7.611   9.506   9.328
61044SOL    HW185029   7.582   9.582   9.277
61044SOL    HW285030   7.705   9.501   9.311
61045SOL     OW85031   4.882   7.358   0.379
61045SOL    HW185032   4.967   7.400   0.368
61045SOL    HW285033   4.901   7.278   0.429
61046SOL     OW85034   7.723   1.414   4.147
61046SOL    HW185035   7.733   1.465   4.067
61046SOL    HW285036   7.803   1.430   4.196
61047SOL     OW85037   4.745   4.423  13.685
61047SOL    HW185038   4.658   4.415  13.645
61047SOL    HW285039   4.757   4.516  13.699
61048SOL     OW85040   5.316  12.391   0.520
61048SOL    HW185041   5.308  12.410   0.614
61048SOL    HW285042   5.335  12.475   0.479
61049SOL     OW85043   0.813   8.607  10.010
61049SOL    HW185044   0.765   8.534   9.972
61049SOL    HW285045   0.832   8.579  10.099
61050SOL     OW85046   2.491   8.415   2.966
61050SOL    HW185047   2.443   8.438   2.887
61050SOL    HW285048   2.529   8.498   2.996
61051SOL     OW85049   6.759   7.991  14.536
61051SOL    HW185050   6.821   7.921  14.515
61051SOL    HW285051   6.757   7.995  14.631
61052SOL     OW85052   0.523  12.078  11.428
61052SOL    HW185053   0.427  12.083  11.431
61052SOL    HW285054   0.552  12.166  11.450
61053SOL     OW85055  14.278   6.806   4.134
61053SOL    HW185056  14.217   6.733   4.121
61053SOL    HW285057  14.341   6.775   4.198
61054SOL     OW85058   2.608   5.953  14.259
61054SOL    HW185059   2.586   5.973  14.168
61054SOL    HW285060   2.589   5.860  14.268
61055SOL     OW85061   4.271  10.620   5.409
61055SOL    HW185062   4.201  10.652   5.467
61055SOL    HW285063   4.281  10.689   5.344
61056SOL     OW85064  14.163   6.950   5.586
61056SOL    HW185065  14.106   7.023   5.565
61056SOL    HW285066  14.177   6.956   5.681
61057SOL     OW85067   1.434   5.635   5.343
61057SOL    HW185068   1.498   5.693   5.302
61057SOL    HW285069   1.350   5.664   5.308
61058SOL     OW85070   5.958   8.377   4.988
61058SOL    HW185071   5.904   8.408   5.061
61058SOL    HW285072   5.995   8.294   5.020
61059SOL     OW85073   2.575   3.507  12.154
61059SOL    HW185074   2.659   3.546  12.177
61059SOL    HW285075   2.510   3.569  12.189
61060SOL     OW85076   4.849   8.698   8.669
61060SOL    HW185077   4.846   8.793   8.657
61060SOL    HW285078   4.792   8.663   8.600
61061SOL     OW85079  13.027  12.068  11.257
61061SOL    HW185080  12.962  12.003  11.231
61061SOL    HW285081  12.999  12.097  11.344
61062SOL     OW85082   2.489   5.212   2.046
61062SOL    HW185083   2.523   5.273   2.112
61062SOL    HW285084   2.397   5.237   2.036
61063SOL     OW85085   6.103   8.515  10.067
61063SOL    HW185086   6.164   8.526  10.140
61063SOL    HW285087   6.027   8.568  10.091
61064SOL     OW85088   6.524  13.169   5.742
61064SOL    HW185089   6.493  13.200   5.827
61064SOL    HW285090   6.453  13.191   5.681
61065SOL     OW85091  10.654  13.452   9.756
61065SOL    HW185092  10.731  13.481   9.804
61065SOL    HW285093  10.596  13.414   9.822
61066SOL     OW85094   9.704  14.298  10.174
61066SOL    HW185095   9.608  14.304  10.175
61066SOL    HW285096   9.723  14.218  10.125
61067SOL     OW85097   1.164  14.624  10.797
61067SOL    HW185098   1.080  14.666  10.819
61067SOL    HW285099   1.140  14.538  10.763
61068SOL     OW85100   9.052  13.734  13.778
61068SOL    HW185101   9.043  13.643  13.750
61068SOL    HW285102   9.097  13.730  13.862
61069SOL     OW85103   8.946  14.301   4.256
61069SOL    HW185104   9.037  14.311   4.284
61069SOL    HW285105   8.913  14.227   4.307
61070SOL     OW85106   9.351   9.550  10.659
61070SOL    HW185107   9.411   9.503  10.717
61070SOL    HW285108   9.400   9.627  10.630
61071SOL     OW85109  12.337   5.718  12.210
61071SOL    HW185110  12.333   5.669  12.128
61071SOL    HW285111  12.417   5.770  12.203
61072SOL     OW85112  14.567   3.953  12.839
61072SOL    HW185113  14.609   4.032  12.807
61072SOL    HW285114  14.549   3.901  12.760
61073SOL     OW85115   4.601   5.950  13.600
61073SOL    HW185116   4.544   5.907  13.537
61073SOL    HW285117   4.544   5.968  13.675
61074SOL     OW85118  11.167   5.907   5.405
61074SOL    HW185119  11.197   5.833   5.351
61074SOL    HW285120  11.073   5.913   5.388
61075SOL     OW85121  12.311  13.324   1.361
61075SOL    HW185122  12.405  13.311   1.351
61075SOL    HW285123  12.274  13.297   1.277
61076SOL     OW85124   1.081   3.328  13.840
61076SOL    HW185125   1.023   3.372  13.903
61076SOL    HW285126   1.050   3.358  13.755
61077SOL     OW85127   1.021  11.138  11.633
61077SOL    HW185128   1.079  11.111  11.704
61077SOL    HW285129   0.984  11.057  11.599
61078SOL     OW85130   6.624   8.600   2.718
61078SOL    HW185131   6.549   8.606   2.659
61078SOL    HW285132   6.590   8.622   2.804
61079SOL     OW85133   3.071   9.740   0.055
61079SOL    HW185134   2.990   9.787   0.074
61079SOL    HW285135   3.091   9.692   0.135
61080SOL     OW85136  10.782   5.334   9.220
61080SOL    HW185137  10.817   5.419   9.192
61080SOL    HW285138  10.717   5.312   9.153
61081SOL     OW85139   4.072   3.678   6.859
61081SOL    HW185140   4.118   3.716   6.784
61081SOL    HW285141   4.027   3.752   6.899
61082SOL     OW85142   9.376   3.898   6.574
61082SOL    HW185143   9.376   3.860   6.486
61082SOL    HW285144   9.451   3.957   6.574
61083SOL     OW85145  11.580   2.397   6.112
61083SOL    HW185146  11.551   2.321   6.062
61083SOL    HW285147  11.512   2.463   6.096
61084SOL     OW85148   4.477   7.221  10.742
61084SOL    HW185149   4.444   7.173  10.818
61084SOL    HW285150   4.570   7.233  10.760
61085SOL     OW85151   4.455   8.510   9.851
61085SOL    HW185152   4.481   8.593   9.891
61085SOL    HW285153   4.490   8.514   9.762
61086SOL     OW85154  14.111  11.629  11.704
61086SOL    HW185155  14.160  11.551  11.679
61086SOL    HW285156  14.040  11.634  11.639
61087SOL     OW85157   6.875   2.153  11.976
61087SOL    HW185158   6.824   2.155  12.057
61087SOL    HW285159   6.854   2.068  11.936
61088SOL     OW85160   8.102  14.464  14.821
61088SOL    HW185161   8.090  14.550  14.863
61088SOL    HW285162   8.024  14.415  14.846
61089SOL     OW85163  13.191  11.405   8.938
61089SOL    HW185164  13.150  11.372   8.857
61089SOL    HW285165  13.169  11.498   8.940
61090SOL     OW85166   4.927   2.903  14.357
61090SOL    HW185167   4.962   2.960  14.425
61090SOL    HW285168   4.989   2.830  14.352
61091SOL     OW85169  13.019  10.286   5.485
61091SOL    HW185170  12.992  10.358   5.429
61091SOL    HW285171  13.114  10.280   5.472
61092SOL     OW85172   1.581   9.758   3.807
61092SOL    HW185173   1.642   9.786   3.738
61092SOL    HW285174   1.566   9.837   3.859
61093SOL     OW85175  14.860   7.163   4.255
61093SOL    HW185176  14.768   7.187   4.269
61093SOL    HW285177   0.027   7.246   4.262
61094SOL     OW85178   5.485   1.450   7.515
61094SOL    HW185179   5.572   1.469   7.481
61094SOL    HW285180   5.497   1.372   7.570
61095SOL     OW85181  11.038  14.479  11.295
61095SOL    HW185182  11.104  14.545  11.273
61095SOL    HW285183  11.032  14.481  11.390
61096SOL     OW85184  11.579  12.006   4.089
61096SOL    HW185185  11.542  12.009   4.001
61096SOL    HW285186  11.508  11.971   4.144
61097SOL     OW85187   3.931  13.246  13.404
61097SOL    HW185188   4.006  13.197  13.372
61097SOL    HW285189   3.897  13.195  13.477
61098SOL     OW85190  12.565   7.280  12.558
61098SOL    HW185191  12.653   7.314  12.578
61098SOL    HW285192  12.581   7.196  12.515
61099SOL     OW85193   9.033   4.877   2.363
61099SOL    HW185194   9.097   4.938   2.400
61099SOL    HW285195   8.972   4.933   2.314
61100SOL     OW85196   4.810   9.016  14.286
61100SOL    HW185197   4.849   9.063  14.212
61100SOL    HW285198   4.729   8.979  14.250
61101SOL     OW85199   6.462   5.676   3.997
61101SOL    HW185200   6.485   5.695   3.906
61101SOL    HW285201   6.493   5.752   4.045
61102SOL     OW85202  10.671  14.880   8.092
61102SOL    HW185203  10.619   0.024   8.016
61102SOL    HW285204  10.691   0.083   8.136
61103SOL     OW85205   4.534   5.050  10.692
61103SOL    HW185206   4.612   5.036  10.638
61103SOL    HW285207   4.482   4.971  10.681
61104SOL     OW85208   9.292   3.300  13.824
61104SOL    HW185209   9.258   3.296  13.735
61104SOL    HW285210   9.247   3.229  13.870
61105SOL     OW85211   0.834  11.786   5.634
61105SOL    HW185212   0.747  11.750   5.615
61105SOL    HW285213   0.839  11.786   5.730
61106SOL     OW85214   6.255  12.848   2.096
61106SOL    HW185215   6.222  12.849   2.006
61106SOL    HW285216   6.178  12.835   2.150
61107SOL     OW85217   9.803   9.943   6.144
61107SOL    HW185218   9.885   9.972   6.184
61107SOL    HW285219   9.736   9.997   6.186
61108SOL     OW85220   8.385   2.703   4.219
61108SOL    HW185221   8.362   2.794   4.203
61108SOL    HW285222   8.319   2.652   4.171
61109SOL     OW85223  13.817   7.151   9.945
61109SOL    HW185224  13.753   7.102   9.893
61109SOL    HW285225  13.764   7.212   9.997
61110SOL     OW85226   4.915   0.954   8.490
61110SOL    HW185227   4.888   1.035   8.535
61110SOL    HW285228   4.998   0.976   8.448
61111SOL     OW85229   8.062   8.948   7.026
61111SOL    HW185230   7.998   9.013   7.053
61111SOL    HW285231   8.134   8.958   7.088
61112SOL     OW85232  14.415   7.112   7.124
61112SOL    HW185233  14.428   7.202   7.094
61112SOL    HW285234  14.426   7.058   7.045
61113SOL     OW85235  12.468   3.112  14.141
61113SOL    HW185236  12.456   3.164  14.062
61113SOL    HW285237  12.479   3.177  14.211
61114SOL     OW85238   2.838   1.238   9.619
61114SOL    HW185239   2.787   1.318   9.635
61114SOL    HW285240   2.830   1.223   9.525
61115SOL     OW85241  14.171  10.871  14.337
61115SOL    HW185242  14.130  10.785  14.334
61115SOL    HW285243  14.099  10.934  14.330
61116SOL     OW85244   7.372  11.828   6.350
61116SOL    HW185245   7.320  11.907   6.334
61116SOL    HW285246   7.312  11.756   6.333
61117SOL     OW85247   9.812   7.864   4.339
61117SOL    HW185248   9.762   7.834   4.415
61117SOL    HW285249   9.782   7.954   4.325
61118SOL     OW85250   3.592  11.624  10.756
61118SOL    HW185251   3.534  11.640  10.682
61118SOL    HW285252   3.661  11.689  10.746
61119SOL     OW85253   9.312   6.934   2.667
61119SOL    HW185254   9.251   6.973   2.730
61119SOL    HW285255   9.299   6.840   2.675
61120SOL     OW85256   2.747   1.961   1.820
61120SOL    HW185257   2.768   2.053   1.828
61120SOL    HW285258   2.822   1.922   1.776
61121SOL     OW85259   3.460   5.272   4.702
61121SOL    HW185260   3.549   5.284   4.668
61121SOL    HW285261   3.461   5.186   4.743
61122SOL     OW85262   1.287  13.337   9.048
61122SOL    HW185263   1.233  13.410   9.018
61122SOL    HW285264   1.298  13.353   9.142
61123SOL     OW85265  14.877   8.638   9.742
61123SOL    HW185266   0.034   8.628   9.830
61123SOL    HW285267   0.061   8.597   9.684
61124SOL     OW85268   9.584   0.344   3.448
61124SOL    HW185269   9.563   0.430   3.413
61124SOL    HW285270   9.671   0.354   3.487
61125SOL     OW85271   4.724   3.674   2.143
61125SOL    HW185272   4.781   3.701   2.215
61125SOL    HW285273   4.651   3.629   2.186
61126SOL     OW85274   3.988   4.192  14.236
61126SOL    HW185275   3.937   4.272  14.251
61126SOL    HW285276   3.937   4.123  14.278
61127SOL     OW85277   6.253   8.703  11.819
61127SOL    HW185278   6.334   8.658  11.846
61127SOL    HW285279   6.195   8.632  11.791
61128SOL     OW85280  10.798   4.343   3.841
61128SOL    HW185281  10.876   4.398   3.849
61128SOL    HW285282  10.832   4.254   3.844
61129SOL     OW85283  11.459   9.568   4.142
61129SOL    HW185284  11.479   9.633   4.210
61129SOL    HW285285  11.513   9.492   4.165
61130SOL     OW85286  14.637   1.834  14.182
61130SOL    HW185287  14.673   1.889  14.113
61130SOL    HW285288  14.713   1.798  14.227
61131SOL     OW85289   4.010  14.691  11.417
61131SOL    HW185290   3.949  14.717  11.486
61131SOL    HW285291   4.095  14.722  11.447
61132SOL     OW85292  13.194  10.629   1.976
61132SOL    HW185293  13.153  10.547   1.949
61132SOL    HW285294  13.286  10.618   1.956
61133SOL     OW85295   5.168  13.033  13.650
61133SOL    HW185296   5.136  13.117  13.683
61133SOL    HW285297   5.090  12.980  13.636
61134SOL     OW85298   1.258   8.918   4.759
61134SOL    HW185299   1.223   8.881   4.678
61134SOL    HW285300   1.303   8.998   4.731
61135SOL     OW85301   0.293   1.398   2.069
61135SOL    HW185302   0.341   1.333   2.119
61135SOL    HW285303   0.315   1.379   1.977
61136SOL     OW85304   6.913  12.323  14.184
61136SOL    HW185305   6.885  12.296  14.097
61136SOL    HW285306   6.991  12.376  14.169
61137SOL     OW85307  12.631   7.617   2.996
61137SOL    HW185308  12.545   7.650   3.022
61137SOL    HW285309  12.691   7.649   3.064
61138SOL     OW85310  12.543  10.525  12.549
61138SOL    HW185311  12.532  10.572  12.632
61138SOL    HW285312  12.456  10.525  12.510
61139SOL     OW85313   5.222   6.420   2.655
61139SOL    HW185314   5.206   6.437   2.562
61139SOL    HW285315   5.182   6.334   2.670
61140SOL     OW85316  14.304   0.759   2.772
61140SOL    HW185317  14.214   0.746   2.803
61140SOL    HW285318  14.296   0.778   2.679
61141SOL     OW85319   5.012   5.429   2.551
61141SOL    HW185320   4.981   5.390   2.633
61141SOL    HW285321   4.974   5.517   2.551
61142SOL     OW85322  14.024  12.060   6.716
61142SOL    HW185323  14.112  12.049   6.682
61142SOL    HW285324  13.967  12.051   6.639
61143SOL     OW85325   8.194   1.072  11.681
61143SOL    HW185326   8.221   1.103  11.594
61143SOL    HW285327   8.189   1.152  11.734
61144SOL     OW85328  13.785   2.000  14.787
61144SOL    HW185329  13.860   1.941  14.800
61144SOL    HW285330  13.755   1.980  14.698
61145SOL     OW85331   2.177  10.174  11.474
61145SOL    HW185332   2.230  10.099  11.447
61145SOL    HW285333   2.145  10.212  11.392
61146SOL     OW85334   8.723  13.940  12.833
61146SOL    HW185335   8.745  14.027  12.799
61146SOL    HW285336   8.659  13.957  12.902
61147SOL     OW85337  10.053   2.047   2.982
61147SOL    HW185338  10.030   2.026   3.073
61147SOL    HW285339  10.020   1.972   2.932
61148SOL     OW85340   2.003   0.137   7.216
61148SOL    HW185341   1.908   0.138   7.229
61148SOL    HW285342   2.033   0.060   7.264
61149SOL     OW85343   9.933  10.213   8.673
61149SOL    HW185344   9.874  10.138   8.669
61149SOL    HW285345   9.913  10.256   8.756
61150SOL     OW85346  10.896   7.034   0.908
61150SOL    HW185347  10.987   7.051   0.932
61150SOL    HW285348  10.866   6.968   0.970
61151SOL     OW85349   2.438   4.814  14.286
61151SOL    HW185350   2.472   4.901  14.268
61151SOL    HW285351   2.350   4.814  14.248
61152SOL     OW85352   6.325   1.669   8.538
61152SOL    HW185353   6.386   1.616   8.590
61152SOL    HW285354   6.381   1.732   8.492
61153SOL     OW85355   9.657   8.048   9.899
61153SOL    HW185356   9.712   8.036   9.977
61153SOL    HW285357   9.686   8.131   9.862
61154SOL     OW85358  11.005   2.714   3.763
61154SOL    HW185359  10.951   2.651   3.716
61154SOL    HW285360  11.036   2.667   3.840
61155SOL     OW85361   4.039   8.440   7.724
61155SOL    HW185362   3.950   8.475   7.714
61155SOL    HW285363   4.070   8.478   7.806
61156SOL     OW85364   3.485   2.966  14.655
61156SOL    HW185365   3.520   2.882  14.684
61156SOL    HW285366   3.448   3.005  14.735
61157SOL     OW85367  10.005  12.871   7.618
61157SOL    HW185368   9.974  12.895   7.706
61157SOL    HW285369   9.936  12.901   7.559
61158SOL     OW85370   8.700   1.432   0.733
61158SOL    HW185371   8.744   1.507   0.692
61158SOL    HW285372   8.625   1.414   0.676
61159SOL     OW85373  12.435   7.860   2.621
61159SOL    HW185374  12.470   7.949   2.620
61159SOL    HW285375  12.419   7.839   2.529
61160SOL     OW85376   9.485  10.637  13.389
61160SOL    HW185377   9.470  10.636  13.483
61160SOL    HW285378   9.522  10.724  13.371
61161SOL     OW85379  11.545  12.196   2.748
61161SOL    HW185380  11.497  12.244   2.815
61161SOL    HW285381  11.493  12.210   2.668
61162SOL     OW85382  13.512   2.804   8.771
61162SOL    HW185383  13.440   2.755   8.812
61162SOL    HW285384  13.552   2.742   8.711
61163SOL     OW85385   5.415  14.689  13.871
61163SOL    HW185386   5.426  14.663  13.963
61163SOL    HW285387   5.337  14.641  13.842
61164SOL     OW85388   3.964   6.348  14.322
61164SOL    HW185389   4.014   6.424  14.350
61164SOL    HW285390   3.877   6.361  14.358
61165SOL     OW85391  14.832   5.519   5.559
61165SOL    HW185392  14.797   5.449   5.614
61165SOL    HW285393   0.031   5.548   5.606
61166SOL     OW85394   7.172   3.760   7.031
61166SOL    HW185395   7.245   3.701   7.015
61166SOL    HW285396   7.147   3.791   6.944
61167SOL     OW85397   8.122   8.094  12.574
61167SOL    HW185398   8.057   8.027  12.595
61167SOL    HW285399   8.202   8.063  12.615
61168SOL     OW85400   6.732   5.569   1.770
61168SOL    HW185401   6.749   5.605   1.857
61168SOL    HW285402   6.797   5.611   1.714
61169SOL     OW85403   3.893   8.027  13.225
61169SOL    HW185404   3.919   7.946  13.181
61169SOL    HW285405   3.955   8.037  13.297
61170SOL     OW85406   9.316  12.981  13.929
61170SOL    HW185407   9.407  12.984  13.958
61170SOL    HW285408   9.304  13.063  13.881
61171SOL     OW85409   8.926   4.381  14.605
61171SOL    HW185410   8.843   4.398  14.648
61171SOL    HW285411   8.930   4.285  14.597
61172SOL     OW85412   8.517  10.176  10.360
61172SOL    HW185413   8.490  10.084  10.355
61172SOL    HW285414   8.572  10.189  10.282
61173SOL     OW85415   6.263   5.451   9.538
61173SOL    HW185416   6.188   5.500   9.571
61173SOL    HW285417   6.236   5.419   9.452
61174SOL     OW85418  10.029   1.320   7.097
61174SOL    HW185419  10.026   1.365   7.181
61174SOL    HW285420  10.058   1.231   7.119
61175SOL     OW85421   6.943   4.368  10.752
61175SOL    HW185422   6.978   4.437  10.697
61175SOL    HW285423   6.893   4.312  10.693
61176SOL     OW85424  10.023   9.545   2.404
61176SOL    HW185425   9.991   9.455   2.400
61176SOL    HW285426   9.944   9.598   2.417
61177SOL     OW85427   7.292   2.206  10.707
61177SOL    HW185428   7.369   2.149  10.695
61177SOL    HW285429   7.329   2.293  10.722
61178SOL     OW85430   6.521  11.345   8.724
61178SOL    HW185431   6.579  11.346   8.648
61178SOL    HW285432   6.482  11.433   8.725
61179SOL     OW85433   3.338   3.238   4.013
61179SOL    HW185434   3.273   3.198   4.071
61179SOL    HW285435   3.298   3.322   3.987
61180SOL     OW85436   4.816  11.778  13.215
61180SOL    HW185437   4.872  11.721  13.162
61180SOL    HW285438   4.733  11.730  13.222
61181SOL     OW85439  12.901   7.237   5.581
61181SOL    HW185440  12.947   7.193   5.653
61181SOL    HW285441  12.949   7.319   5.568
61182SOL     OW85442  11.809   2.991   8.725
61182SOL    HW185443  11.792   2.943   8.805
61182SOL    HW285444  11.732   3.046   8.713
61183SOL     OW85445   2.250  12.126   1.701
61183SOL    HW185446   2.336  12.140   1.740
61183SOL    HW285447   2.213  12.053   1.750
61184SOL     OW85448   4.168  11.853   9.037
61184SOL    HW185449   4.118  11.913   9.093
61184SOL    HW285450   4.212  11.794   9.098
61185SOL     OW85451   1.703  11.284   5.767
61185SOL    HW185452   1.787  11.329   5.771
61185SOL    HW285453   1.714  11.208   5.824
61186SOL     OW85454   5.385  11.512   5.684
61186SOL    HW185455   5.454  11.475   5.629
61186SOL    HW285456   5.399  11.472   5.770
61187SOL     OW85457   8.495   9.759   3.459
61187SOL    HW185458   8.512   9.823   3.528
61187SOL    HW285459   8.581   9.742   3.421
61188SOL     OW85460   7.855  10.709   0.412
61188SOL    HW185461   7.806  10.628   0.424
61188SOL    HW285462   7.822  10.768   0.479
61189SOL     OW85463   7.091  11.077   0.359
61189SOL    HW185464   7.019  11.128   0.321
61189SOL    HW285465   7.137  11.139   0.416
61190SOL     OW85466   3.789  10.714  11.182
61190SOL    HW185467   3.730  10.648  11.147
61190SOL    HW285468   3.787  10.785  11.118
61191SOL     OW85469   7.483   7.459   1.020
61191SOL    HW185470   7.523   7.373   1.004
61191SOL    HW285471   7.419   7.468   0.949
61192SOL     OW85472   1.913  11.812   7.928
61192SOL    HW185473   1.918  11.783   8.019
61192SOL    HW285474   1.984  11.765   7.884
61193SOL     OW85475   4.821  11.763  11.507
61193SOL    HW185476   4.803  11.837  11.565
61193SOL    HW285477   4.736  11.720  11.495
61194SOL     OW85478   1.134   8.423  10.671
61194SOL    HW185479   1.170   8.500  10.628
61194SOL    HW285480   1.039   8.438  10.671
61195SOL     OW85481  11.152   3.046   5.285
61195SOL    HW185482  11.174   3.132   5.322
61195SOL    HW285483  11.224   2.989   5.313
61196SOL     OW85484  10.357  13.823  10.755
61196SOL    HW185485  10.423  13.778  10.809
61196SOL    HW285486  10.348  13.909  10.795
61197SOL     OW85487  13.890   8.039   9.422
61197SOL    HW185488  13.906   8.088   9.502
61197SOL    HW285489  13.870   8.105   9.356
61198SOL     OW85490   6.642   8.153   0.516
61198SOL    HW185491   6.642   8.079   0.577
61198SOL    HW285492   6.575   8.129   0.451
61199SOL     OW85493   0.585  10.361   0.306
61199SOL    HW185494   0.563  10.374   0.398
61199SOL    HW285495   0.551  10.274   0.286
61200SOL     OW85496  11.523   8.839   7.411
61200SOL    HW185497  11.573   8.872   7.485
61200SOL    HW285498  11.450   8.792   7.451
61201SOL     OW85499   8.130   7.428  10.175
61201SOL    HW185500   8.170   7.376  10.245
61201SOL    HW285501   8.143   7.519  10.202
61202SOL     OW85502   6.859   7.094  12.452
61202SOL    HW185503   6.813   7.115  12.533
61202SOL    HW285504   6.790   7.075  12.388
61203SOL     OW85505   7.929  12.342  10.527
61203SOL    HW185506   7.856  12.282  10.543
61203SOL    HW285507   7.962  12.316  10.441
61204SOL     OW85508   4.467   4.539  14.787
61204SOL    HW185509   4.481   4.564  14.696
61204SOL    HW285510   4.493   4.448  14.792
61205SOL     OW85511   4.577  11.316  14.167
61205SOL    HW185512   4.551  11.248  14.227
61205SOL    HW285513   4.648  11.363  14.212
61206SOL     OW85514   2.709   1.032   1.651
61206SOL    HW185515   2.675   1.083   1.578
61206SOL    HW285516   2.730   1.098   1.718
61207SOL     OW85517  11.363   0.204   9.993
61207SOL    HW185518  11.430   0.218  10.060
61207SOL    HW285519  11.400   0.243   9.913
61208SOL     OW85520   1.414   2.616   7.381
61208SOL    HW185521   1.323   2.590   7.393
61208SOL    HW285522   1.414   2.711   7.392
61209SOL     OW85523  12.370   6.847   5.490
61209SOL    HW185524  12.386   6.933   5.529
61209SOL    HW285525  12.455   6.822   5.453
61210SOL     OW85526  11.456  12.372   7.275
61210SOL    HW185527  11.490  12.390   7.187
61210SOL    HW285528  11.512  12.303   7.308
61211SOL     OW85529   6.613   6.450  12.397
61211SOL    HW185530   6.673   6.441  12.323
61211SOL    HW285531   6.539   6.395  12.375
61212SOL     OW85532   7.711   2.812   4.546
61212SOL    HW185533   7.644   2.848   4.604
61212SOL    HW285534   7.777   2.777   4.606
61213SOL     OW85535   6.591   2.363   5.801
61213SOL    HW185536   6.553   2.349   5.888
61213SOL    HW285537   6.633   2.280   5.780
61214SOL     OW85538   9.575  14.631   4.478
61214SOL    HW185539   9.524  14.560   4.516
61214SOL    HW285540   9.648  14.587   4.435
61215SOL     OW85541   2.357   0.997   2.957
61215SOL    HW185542   2.274   0.957   2.932
61215SOL    HW285543   2.386   1.044   2.879
61216SOL     OW85544  13.414   7.555   0.650
61216SOL    HW185545  13.402   7.509   0.567
61216SOL    HW285546  13.325   7.569   0.683
61217SOL     OW85547   5.625   2.604   0.785
61217SOL    HW185548   5.673   2.563   0.713
61217SOL    HW285549   5.573   2.533   0.823
61218SOL     OW85550   5.310   7.694   9.791
61218SOL    HW185551   5.216   7.691   9.777
61218SOL    HW285552   5.346   7.735   9.713
61219SOL     OW85553   2.144   7.126  12.594
61219SOL    HW185554   2.066   7.173  12.625
61219SOL    HW285555   2.123   7.034  12.609
61220SOL     OW85556  12.697   3.121   2.351
61220SOL    HW185557  12.646   3.184   2.300
61220SOL    HW285558  12.717   3.051   2.289
61221SOL     OW85559   7.792  11.692  14.488
61221SOL    HW185560   7.844  11.750  14.543
61221SOL    HW285561   7.849  11.671  14.415
61222SOL     OW85562   6.047   6.355  12.385
61222SOL    HW185563   6.076   6.264  12.387
61222SOL    HW285564   5.971   6.355  12.328
61223SOL     OW85565   2.043   3.685   4.629
61223SOL    HW185566   2.042   3.780   4.618
61223SOL    HW285567   2.128   3.666   4.669
61224SOL     OW85568   3.680   7.730  11.542
61224SOL    HW185569   3.686   7.759  11.633
61224SOL    HW285570   3.674   7.635  11.548
61225SOL     OW85571   9.375  10.653  11.241
61225SOL    HW185572   9.317  10.707  11.295
61225SOL    HW285573   9.416  10.715  11.180
61226SOL     OW85574   8.117   9.007   7.852
61226SOL    HW185575   8.159   9.027   7.768
61226SOL    HW285576   8.159   9.065   7.915
61227SOL     OW85577   8.629   1.220   7.055
61227SOL    HW185578   8.652   1.128   7.068
61227SOL    HW285579   8.698   1.268   7.101
61228SOL     OW85580   6.645   9.681  13.647
61228SOL    HW185581   6.603   9.681  13.560
61228SOL    HW285582   6.723   9.627  13.635
61229SOL     OW85583   4.695  11.473  11.472
61229SOL    HW185584   4.610  11.486  11.513
61229SOL    HW285585   4.677  11.421  11.394
61230SOL     OW85586   4.757   3.631   7.196
61230SOL    HW185587   4.821   3.695   7.228
61230SOL    HW285588   4.805   3.581   7.130
61231SOL     OW85589   5.388   7.396   1.067
61231SOL    HW185590   5.388   7.444   1.150
61231SOL    HW285591   5.358   7.461   1.002
61232SOL     OW85592   2.506  10.932   7.746
61232SOL    HW185593   2.566  10.988   7.795
61232SOL    HW285594   2.423  10.980   7.747
61233SOL     OW85595  14.381  10.405   5.660
61233SOL    HW185596  14.411  10.428   5.748
61233SOL    HW285597  14.311  10.342   5.674
61234SOL     OW85598   2.846   4.546   2.882
61234SOL    HW185599   2.784   4.552   2.810
61234SOL    HW285600   2.805   4.595   2.953
61235SOL     OW85601   4.440   9.184   9.587
61235SOL    HW185602   4.357   9.177   9.634
61235SOL    HW285603   4.452   9.278   9.574
61236SOL     OW85604  11.428   3.386   9.008
61236SOL    HW185605  11.362   3.342   9.061
61236SOL    HW285606  11.465   3.452   9.067
61237SOL     OW85607   8.602   1.460   7.362
61237SOL    HW185608   8.614   1.424   7.274
61237SOL    HW285609   8.686   1.503   7.381
61238SOL     OW85610   2.742  13.969   4.318
61238SOL    HW185611   2.792  14.006   4.391
61238SOL    HW285612   2.685  13.904   4.359
61239SOL     OW85613   0.914   6.804  10.254
61239SOL    HW185614   0.928   6.895  10.282
61239SOL    HW285615   0.920   6.808  10.158
61240SOL     OW85616  12.938  10.938  13.371
61240SOL    HW185617  12.980  10.888  13.302
61240SOL    HW285618  12.918  11.023  13.332
61241SOL     OW85619  10.302   3.857  14.189
61241SOL    HW185620  10.310   3.931  14.128
61241SOL    HW285621  10.352   3.883  14.266
61242SOL     OW85622   4.195  13.847   3.183
61242SOL    HW185623   4.122  13.898   3.147
61242SOL    HW285624   4.173  13.756   3.164
61243SOL     OW85625  11.079   9.354   4.709
61243SOL    HW185626  11.016   9.354   4.637
61243SOL    HW285627  11.103   9.445   4.721
61244SOL     OW85628  10.162  12.331  14.487
61244SOL    HW185629  10.089  12.334  14.549
61244SOL    HW285630  10.227  12.274  14.529
61245SOL     OW85631  14.676   3.386   5.706
61245SOL    HW185632  14.730   3.372   5.783
61245SOL    HW285633  14.625   3.305   5.697
61246SOL     OW85634   7.548  13.578   6.456
61246SOL    HW185635   7.491  13.501   6.462
61246SOL    HW285636   7.578  13.593   6.545
61247SOL     OW85637   1.318   7.897   5.197
61247SOL    HW185638   1.313   7.808   5.162
61247SOL    HW285639   1.412   7.914   5.206
61248SOL     OW85640  10.915   4.021   0.794
61248SOL    HW185641  10.950   4.059   0.874
61248SOL    HW285642  10.940   3.929   0.798
61249SOL     OW85643   4.162   6.682  10.041
61249SOL    HW185644   4.165   6.711  10.132
61249SOL    HW285645   4.251   6.695  10.008
61250SOL     OW85646   4.733   6.824  11.931
61250SOL    HW185647   4.670   6.896  11.934
61250SOL    HW285648   4.700   6.761  11.995
61251SOL     OW85649   4.175   9.425  11.503
61251SOL    HW185650   4.268   9.439  11.483
61251SOL    HW285651   4.175   9.355  11.568
61252SOL     OW85652  11.933   5.827   1.466
61252SOL    HW185653  11.960   5.791   1.381
61252SOL    HW285654  11.839   5.813   1.470
61253SOL     OW85655  10.124   9.907   3.806
61253SOL    HW185656  10.102   9.995   3.838
61253SOL    HW285657  10.165   9.923   3.721
61254SOL     OW85658   8.819   0.583   9.001
61254SOL    HW185659   8.798   0.665   9.045
61254SOL    HW285660   8.769   0.585   8.920
61255SOL     OW85661   1.553  12.242   8.509
61255SOL    HW185662   1.532  12.233   8.602
61255SOL    HW285663   1.546  12.336   8.491
61256SOL     OW85664  13.208  13.838   9.543
61256SOL    HW185665  13.198  13.760   9.598
61256SOL    HW285666  13.287  13.880   9.577
61257SOL     OW85667   6.742   0.038   7.394
61257SOL    HW185668   6.795   0.112   7.367
61257SOL    HW285669   6.709   0.001   7.313
61258SOL     OW85670   9.729   2.888   8.001
61258SOL    HW185671   9.770   2.950   8.062
61258SOL    HW285672   9.767   2.909   7.916
61259SOL     OW85673   3.569  11.505  11.510
61259SOL    HW185674   3.636  11.452  11.467
61259SOL    HW285675   3.486  11.469  11.479
61260SOL     OW85676   1.837   7.971   3.060
61260SOL    HW185677   1.851   8.057   3.021
61260SOL    HW285678   1.892   7.912   3.008
61261SOL     OW85679  14.611   8.082  11.941
61261SOL    HW185680  14.574   8.109  11.857
61261SOL    HW285681  14.659   8.002  11.921
61262SOL     OW85682   4.154   6.616   3.700
61262SOL    HW185683   4.142   6.616   3.605
61262SOL    HW285684   4.143   6.524   3.725
61263SOL     OW85685   7.263   6.406   3.541
61263SOL    HW185686   7.246   6.500   3.547
61263SOL    HW285687   7.214   6.377   3.464
61264SOL     OW85688   6.888   7.314   1.440
61264SOL    HW185689   6.901   7.299   1.533
61264SOL    HW285690   6.817   7.379   1.436
61265SOL     OW85691   5.397   5.951   7.142
61265SOL    HW185692   5.455   5.904   7.202
61265SOL    HW285693   5.439   6.036   7.130
61266SOL     OW85694   1.121   0.144   0.251
61266SOL    HW185695   1.208   0.145   0.291
61266SOL    HW285696   1.092   0.236   0.255
61267SOL     OW85697   2.852  12.164   1.974
61267SOL    HW185698   2.809  12.203   1.897
61267SOL    HW285699   2.781  12.123   2.023
61268SOL     OW85700  10.174   9.492  12.520
61268SOL    HW185701  10.104   9.557  12.509
61268SOL    HW285702  10.161   9.457  12.608
61269SOL     OW85703   1.141  10.175   6.319
61269SOL    HW185704   1.168  10.209   6.234
61269SOL    HW285705   1.081  10.241   6.354
61270SOL     OW85706  14.072   3.980  10.360
61270SOL    HW185707  14.031   3.952  10.442
61270SOL    HW285708  14.031   4.064  10.341
61271SOL     OW85709  12.114   0.402   0.733
61271SOL    HW185710  12.173   0.360   0.796
61271SOL    HW285711  12.128   0.355   0.652
61272SOL     OW85712   4.796  10.625   3.786
61272SOL    HW185713   4.881  10.582   3.775
61272SOL    HW285714   4.818  10.714   3.813
61273SOL     OW85715   1.607   6.088   5.478
61273SOL    HW185716   1.640   6.003   5.507
61273SOL    HW285717   1.519   6.070   5.446
61274SOL     OW85718   3.254   5.171  12.404
61274SOL    HW185719   3.208   5.089  12.421
61274SOL    HW285720   3.222   5.199  12.319
61275SOL     OW85721  11.529   4.721   2.169
61275SOL    HW185722  11.451   4.702   2.117
61275SOL    HW285723  11.500   4.784   2.235
61276SOL     OW85724   9.791   7.492   3.325
61276SOL    HW185725   9.811   7.482   3.232
61276SOL    HW285726   9.855   7.436   3.370
61277SOL     OW85727  10.389  13.827   6.635
61277SOL    HW185728  10.438  13.909   6.646
61277SOL    HW285729  10.327  13.826   6.708
61278SOL     OW85730   7.282   4.727   3.276
61278SOL    HW185731   7.276   4.820   3.298
61278SOL    HW285732   7.214   4.686   3.329
61279SOL     OW85733   7.123   1.845   5.570
61279SOL    HW185734   7.169   1.920   5.607
61279SOL    HW285735   7.168   1.769   5.608
61280SOL     OW85736   8.320   3.560  12.174
61280SOL    HW185737   8.354   3.639  12.133
61280SOL    HW285738   8.394   3.525  12.224
61281SOL     OW85739  12.326   8.106  13.220
61281SOL    HW185740  12.367   8.107  13.133
61281SOL    HW285741  12.261   8.036  13.215
61282SOL     OW85742   2.669  10.455  11.292
61282SOL    HW185743   2.689  10.533  11.240
61282SOL    HW285744   2.702  10.382  11.241
61283SOL     OW85745  12.109  12.719   2.703
61283SOL    HW185746  12.203  12.701   2.706
61283SOL    HW285747  12.077  12.669   2.628
61284SOL     OW85748   5.804   4.781  13.288
61284SOL    HW185749   5.824   4.864  13.244
61284SOL    HW285750   5.716   4.793  13.323
61285SOL     OW85751  10.545   3.122   5.065
61285SOL    HW185752  10.545   3.031   5.095
61285SOL    HW285753  10.617   3.127   5.003
61286SOL     OW85754  12.156   7.599   1.930
61286SOL    HW185755  12.223   7.668   1.932
61286SOL    HW285756  12.140   7.580   2.022
61287SOL     OW85757  12.336   7.490   6.554
61287SOL    HW185758  12.319   7.582   6.535
61287SOL    HW285759  12.334   7.447   6.468
61288SOL     OW85760  14.358   4.198   0.511
61288SOL    HW185761  14.419   4.128   0.487
61288SOL    HW285762  14.414   4.272   0.534
61289SOL     OW85763   0.819   0.959   2.224
61289SOL    HW185764   0.834   0.885   2.283
61289SOL    HW285765   0.875   1.029   2.257
61290SOL     OW85766   3.642   6.820   3.000
61290SOL    HW185767   3.561   6.871   3.003
61290SOL    HW285768   3.613   6.731   2.979
61291SOL     OW85769   8.867   2.799   5.980
61291SOL    HW185770   8.864   2.892   5.959
61291SOL    HW285771   8.926   2.761   5.915
61292SOL     OW85772   2.132  12.223  11.025
61292SOL    HW185773   2.173  12.302  10.988
61292SOL    HW285774   2.101  12.250  11.111
61293SOL     OW85775  10.681   7.121  14.083
61293SOL    HW185776  10.713   7.038  14.116
61293SOL    HW285777  10.597   7.134  14.126
61294SOL     OW85778   9.066   7.957   5.744
61294SOL    HW185779   9.080   8.012   5.667
61294SOL    HW285780   9.148   7.908   5.754
61295SOL     OW85781   1.477   3.006   6.001
61295SOL    HW185782   1.440   3.077   6.052
61295SOL    HW285783   1.569   3.002   6.028
61296SOL     OW85784   4.612   0.122  11.779
61296SOL    HW185785   4.708   0.128  11.777
61296SOL    HW285786   4.584   0.172  11.702
61297SOL     OW85787   8.368  12.754  12.578
61297SOL    HW185788   8.329  12.692  12.639
61297SOL    HW285789   8.462  12.749  12.595
61298SOL     OW85790   2.800   5.098   8.872
61298SOL    HW185791   2.853   5.139   8.804
61298SOL    HW285792   2.731   5.052   8.825
61299SOL     OW85793   8.672  12.340   0.273
61299SOL    HW185794   8.661  12.270   0.338
61299SOL    HW285795   8.766  12.342   0.256
61300SOL     OW85796   6.705   0.711   4.932
61300SOL    HW185797   6.621   0.747   4.905
61300SOL    HW285798   6.703   0.621   4.900
61301SOL     OW85799   2.405   1.035  13.287
61301SOL    HW185800   2.474   1.075  13.235
61301SOL    HW285801   2.325   1.076  13.257
61302SOL     OW85802   5.707  14.049   9.410
61302SOL    HW185803   5.662  14.114   9.464
61302SOL    HW285804   5.704  14.086   9.321
61303SOL     OW85805   1.633   9.944  14.836
61303SOL    HW185806   1.620   9.850  14.832
61303SOL    HW285807   1.572   9.975   0.023
61304SOL     OW85808  11.760   7.177   8.576
61304SOL    HW185809  11.714   7.256   8.546
61304SOL    HW285810  11.719   7.156   8.660
61305SOL     OW85811   2.918   0.732   5.366
61305SOL    HW185812   2.978   0.740   5.439
61305SOL    HW285813   2.944   0.801   5.305
61306SOL     OW85814   1.429   2.213  11.364
61306SOL    HW185815   1.356   2.257  11.320
61306SOL    HW285816   1.414   2.229  11.457
61307SOL     OW85817   8.028   8.551  13.710
61307SOL    HW185818   8.043   8.577  13.619
61307SOL    HW285819   7.995   8.462  13.705
61308SOL     OW85820   1.044  13.869  11.260
61308SOL    HW185821   0.996  13.940  11.303
61308SOL    HW285822   1.133  13.875  11.296
61309SOL     OW85823   8.912   5.076   0.056
61309SOL    HW185824   8.820   5.092   0.035
61309SOL    HW285825   8.918   5.091   0.151
61310SOL     OW85826   5.100   8.285   6.351
61310SOL    HW185827   5.184   8.255   6.316
61310SOL    HW285828   5.083   8.227   6.425
61311SOL     OW85829   7.718  13.317   6.645
61311SOL    HW185830   7.773  13.378   6.694
61311SOL    HW285831   7.760  13.231   6.658
61312SOL     OW85832  10.983  12.561   4.064
61312SOL    HW185833  10.895  12.600   4.064
61312SOL    HW285834  11.005  12.553   4.156
61313SOL     OW85835   9.988  13.763   3.055
61313SOL    HW185836  10.024  13.814   3.128
61313SOL    HW285837  10.047  13.781   2.982
61314SOL     OW85838   5.150  12.555   3.861
61314SOL    HW185839   5.104  12.564   3.777
61314SOL    HW285840   5.080  12.545   3.925
61315SOL     OW85841  11.835   6.987  10.854
61315SOL    HW185842  11.861   6.897  10.872
61315SOL    HW285843  11.767   6.979  10.787
61316SOL     OW85844   7.672   5.671   0.346
61316SOL    HW185845   7.738   5.605   0.365
61316SOL    HW285846   7.650   5.708   0.432
61317SOL     OW85847  11.281   3.102   6.248
61317SOL    HW185848  11.254   3.192   6.231
61317SOL    HW285849  11.278   3.093   6.343
61318SOL     OW85850   7.134  10.248   3.107
61318SOL    HW185851   7.137  10.204   3.193
61318SOL    HW285852   7.162  10.338   3.125
61319SOL     OW85853   4.521   8.288   5.387
61319SOL    HW185854   4.445   8.342   5.410
61319SOL    HW285855   4.527   8.224   5.457
61320SOL     OW85856  10.325  13.740   8.799
61320SOL    HW185857  10.325  13.834   8.786
61320SOL    HW285858  10.256  13.707   8.741
61321SOL     OW85859   4.910  10.832  12.706
61321SOL    HW185860   4.971  10.846  12.634
61321SOL    HW285861   4.825  10.859  12.672
61322SOL     OW85862   9.636   6.458  11.014
61322SOL    HW185863   9.675   6.474  10.928
61322SOL    HW285864   9.562   6.519  11.018
61323SOL     OW85865   8.568  13.388   9.576
61323SOL    HW185866   8.549  13.406   9.484
61323SOL    HW285867   8.622  13.309   9.574
61324SOL     OW85868  11.122   9.726   4.221
61324SOL    HW185869  11.161   9.660   4.163
61324SOL    HW285870  11.181   9.801   4.214
61325SOL     OW85871  13.791   9.071   5.350
61325SOL    HW185872  13.796   8.987   5.303
61325SOL    HW285873  13.713   9.114   5.315
61326SOL     OW85874  14.485   2.201   3.098
61326SOL    HW185875  14.409   2.159   3.140
61326SOL    HW285876  14.453   2.288   3.074
61327SOL     OW85877  14.423   0.567   3.890
61327SOL    HW185878  14.345   0.558   3.945
61327SOL    HW285879  14.468   0.483   3.899
61328SOL     OW85880  13.372   9.585   4.594
61328SOL    HW185881  13.413   9.583   4.507
61328SOL    HW285882  13.427   9.642   4.646
61329SOL     OW85883   9.735   0.376  11.667
61329SOL    HW185884   9.704   0.317  11.736
61329SOL    HW285885   9.697   0.461  11.688
61330SOL     OW85886   7.941  11.742  14.134
61330SOL    HW185887   7.990  11.667  14.167
61330SOL    HW285888   7.975  11.755  14.045
61331SOL     OW85889   8.322   0.986  10.607
61331SOL    HW185890   8.327   1.028  10.521
61331SOL    HW285891   8.413   0.987  10.639
61332SOL     OW85892   1.386   8.759   9.324
61332SOL    HW185893   1.362   8.830   9.264
61332SOL    HW285894   1.481   8.767   9.333
61333SOL     OW85895   5.398   3.949  13.361
61333SOL    HW185896   5.390   3.865  13.406
61333SOL    HW285897   5.395   3.927  13.268
61334SOL     OW85898   2.773   2.847   1.334
61334SOL    HW185899   2.850   2.792   1.348
61334SOL    HW285900   2.793   2.928   1.380
61335SOL     OW85901   2.467   4.450  11.340
61335SOL    HW185902   2.382   4.493  11.332
61335SOL    HW285903   2.525   4.517  11.377
61336SOL     OW85904  13.092  13.566  14.191
61336SOL    HW185905  13.025  13.562  14.259
61336SOL    HW285906  13.115  13.659  14.186
61337SOL     OW85907   4.132   3.230  13.446
61337SOL    HW185908   4.041   3.251  13.428
61337SOL    HW285909   4.144   3.254  13.538
61338SOL     OW85910   7.287   4.414  13.895
61338SOL    HW185911   7.211   4.369  13.933
61338SOL    HW285912   7.332   4.346  13.846
61339SOL     OW85913   8.605   3.761   5.646
61339SOL    HW185914   8.687   3.779   5.600
61339SOL    HW285915   8.631   3.706   5.720
61340SOL     OW85916   3.684   9.547  10.299
61340SOL    HW185917   3.700   9.463  10.343
61340SOL    HW285918   3.755   9.603  10.328
61341SOL     OW85919   6.031   6.393   0.417
61341SOL    HW185920   6.114   6.353   0.391
61341SOL    HW285921   6.040   6.485   0.392
61342SOL     OW85922   6.178  11.396   3.056
61342SOL    HW185923   6.243  11.459   3.086
61342SOL    HW285924   6.229  11.324   3.019
61343SOL     OW85925  11.525  11.762   3.655
61343SOL    HW185926  11.617  11.787   3.661
61343SOL    HW285927  11.511  11.706   3.732
61344SOL     OW85928   8.057   0.497   1.935
61344SOL    HW185929   7.966   0.470   1.948
61344SOL    HW285930   8.096   0.493   2.022
61345SOL     OW85931   6.132  12.290  10.236
61345SOL    HW185932   6.084  12.331  10.163
61345SOL    HW285933   6.105  12.339  10.313
61346SOL     OW85934  13.911   2.914  13.555
61346SOL    HW185935  13.950   2.923  13.642
61346SOL    HW285936  13.833   2.969  13.558
61347SOL     OW85937  11.027  13.690   0.276
61347SOL    HW185938  10.940  13.668   0.246
61347SOL    HW285939  11.012  13.748   0.352
61348SOL     OW85940  13.467  13.777   1.462
61348SOL    HW185941  13.507  13.822   1.387
61348SOL    HW285942  13.375  13.765   1.437
61349SOL     OW85943  13.623   0.141   7.992
61349SOL    HW185944  13.627   0.095   8.075
61349SOL    HW285945  13.567   0.216   8.009
61350SOL     OW85946   6.536   1.627   9.725
61350SOL    HW185947   6.470   1.619   9.657
61350SOL    HW285948   6.568   1.717   9.718
61351SOL     OW85949   4.407   6.596   2.272
61351SOL    HW185950   4.440   6.684   2.256
61351SOL    HW285951   4.440   6.574   2.360
61352SOL     OW85952   8.157  11.828   4.620
61352SOL    HW185953   8.124  11.767   4.685
61352SOL    HW285954   8.249  11.805   4.610
61353SOL     OW85955   3.004   2.077  12.878
61353SOL    HW185956   2.936   2.092  12.944
61353SOL    HW285957   2.967   2.114  12.797
61354SOL     OW85958   9.982  12.382   3.855
61354SOL    HW185959  10.040  12.457   3.847
61354SOL    HW285960  10.012  12.320   3.788
61355SOL     OW85961  12.443   1.075  11.040
61355SOL    HW185962  12.370   1.091  11.100
61355SOL    HW285963  12.520   1.102  11.089
61356SOL     OW85964   0.828   1.761   5.605
61356SOL    HW185965   0.797   1.733   5.519
61356SOL    HW285966   0.922   1.740   5.604
61357SOL     OW85967   6.001  14.693  13.197
61357SOL    HW185968   5.944  14.632  13.151
61357SOL    HW285969   5.942  14.747  13.250
61358SOL     OW85970  12.921   7.322   0.285
61358SOL    HW185971  13.001   7.278   0.257
61358SOL    HW285972  12.951   7.403   0.327
61359SOL     OW85973   2.810   4.733   7.158
61359SOL    HW185974   2.816   4.637   7.160
61359SOL    HW285975   2.720   4.751   7.184
61360SOL     OW85976   0.308   2.040   4.962
61360SOL    HW185977   0.227   2.056   4.913
61360SOL    HW285978   0.324   1.946   4.950
61361SOL     OW85979  14.811   1.528   3.873
61361SOL    HW185980  14.863   1.605   3.900
61361SOL    HW285981  14.720   1.559   3.875
61362SOL     OW85982  12.188  11.181   7.532
61362SOL    HW185983  12.130  11.110   7.559
61362SOL    HW285984  12.166  11.254   7.589
61363SOL     OW85985   8.834   9.797   7.816
61363SOL    HW185986   8.783   9.808   7.897
61363SOL    HW285987   8.843   9.886   7.782
61364SOL     OW85988   4.922   8.532   2.175
61364SOL    HW185989   4.850   8.556   2.116
61364SOL    HW285990   4.951   8.446   2.144
61365SOL     OW85991   7.818   6.880  10.841
61365SOL    HW185992   7.739   6.925  10.870
61365SOL    HW285993   7.787   6.810  10.784
61366SOL     OW85994   7.713   5.099   1.891
61366SOL    HW185995   7.758   5.071   1.812
61366SOL    HW285996   7.681   5.018   1.930
61367SOL     OW85997   6.960   6.895   1.746
61367SOL    HW185998   6.884   6.843   1.720
61367SOL    HW285999   6.998   6.926   1.664
61368SOL     OW86000  10.556   3.672  11.139
61368SOL    HW186001  10.495   3.643  11.072
61368SOL    HW286002  10.597   3.751  11.102
61369SOL     OW86003  10.907   9.160   5.400
61369SOL    HW186004  10.955   9.241   5.380
61369SOL    HW286005  10.965   9.111   5.458
61370SOL     OW86006   4.098   2.002  11.613
61370SOL    HW186007   4.049   2.084  11.623
61370SOL    HW286008   4.033   1.938  11.585
61371SOL     OW86009  13.155  10.569  14.276
61371SOL    HW186010  13.178  10.479  14.295
61371SOL    HW286011  13.078  10.587  14.331
61372SOL     OW86012  14.687   8.770   0.328
61372SOL    HW186013  14.707   8.860   0.304
61372SOL    HW286014  14.591   8.765   0.324
61373SOL     OW86015  10.622  10.450   4.825
61373SOL    HW186016  10.679  10.380   4.796
61373SOL    HW286017  10.681  10.516   4.863
61374SOL     OW86018  13.742  13.089  11.959
61374SOL    HW186019  13.662  13.142  11.954
61374SOL    HW286020  13.801  13.140  12.014
61375SOL     OW86021  14.320  10.868   1.525
61375SOL    HW186022  14.292  10.849   1.435
61375SOL    HW286023  14.413  10.889   1.518
61376SOL     OW86024   7.323   3.260   9.169
61376SOL    HW186025   7.272   3.202   9.225
61376SOL    HW286026   7.300   3.232   9.080
61377SOL     OW86027  14.620   8.410   3.181
61377SOL    HW186028  14.546   8.359   3.213
61377SOL    HW286029  14.647   8.464   3.256
61378SOL     OW86030   6.040   5.103   9.875
61378SOL    HW186031   6.026   5.189   9.837
61378SOL    HW286032   5.952   5.065   9.881
61379SOL     OW86033  11.797  12.567  14.418
61379SOL    HW186034  11.870  12.533  14.471
61379SOL    HW286035  11.733  12.496  14.416
61380SOL     OW86036   1.102   1.380   1.799
61380SOL    HW186037   1.021   1.428   1.780
61380SOL    HW286038   1.151   1.437   1.857
61381SOL     OW86039   5.106   0.785   6.303
61381SOL    HW186040   5.098   0.874   6.335
61381SOL    HW286041   5.195   0.758   6.327
61382SOL     OW86042   6.866   6.637  12.711
61382SOL    HW186043   6.868   6.717  12.764
61382SOL    HW286044   6.789   6.589  12.742
61383SOL     OW86045   6.277   6.846  12.560
61383SOL    HW186046   6.231   6.775  12.605
61383SOL    HW286047   6.330   6.802  12.494
61384SOL     OW86048   7.181   0.936  11.843
61384SOL    HW186049   7.210   0.880  11.770
61384SOL    HW286050   7.106   0.890  11.880
61385SOL     OW86051   3.435  10.570   9.398
61385SOL    HW186052   3.456  10.573   9.491
61385SOL    HW286053   3.407  10.659   9.376
61386SOL     OW86054   0.527   4.576   1.617
61386SOL    HW186055   0.615   4.540   1.627
61386SOL    HW286056   0.475   4.503   1.584
61387SOL     OW86057  10.837  12.416   0.143
61387SOL    HW186058  10.798  12.373   0.067
61387SOL    HW286059  10.832  12.509   0.123
61388SOL     OW86060   4.599  10.427   6.629
61388SOL    HW186061   4.550  10.362   6.679
61388SOL    HW286062   4.533  10.489   6.597
61389SOL     OW86063  11.601  14.559  13.416
61389SOL    HW186064  11.581  14.488  13.355
61389SOL    HW286065  11.524  14.565  13.472
61390SOL     OW86066   3.916   3.593   3.311
61390SOL    HW186067   3.979   3.611   3.241
61390SOL    HW286068   3.831   3.592   3.267
61391SOL     OW86069  12.797  10.092  10.353
61391SOL    HW186070  12.728  10.045  10.306
61391SOL    HW286071  12.785  10.183  10.329
61392SOL     OW86072   9.161   2.782   7.036
61392SOL    HW186073   9.232   2.821   7.087
61392SOL    HW286074   9.081   2.805   7.084
61393SOL     OW86075   8.214   7.367   5.241
61393SOL    HW186076   8.303   7.398   5.254
61393SOL    HW286077   8.164   7.446   5.221
61394SOL     OW86078   0.385  11.527  12.898
61394SOL    HW186079   0.387  11.623  12.900
61394SOL    HW286080   0.408  11.501  12.988
61395SOL     OW86081  14.069  10.078   6.607
61395SOL    HW186082  14.108  10.079   6.694
61395SOL    HW286083  14.002  10.147   6.609
61396SOL     OW86084   9.569   7.051  10.744
61396SOL    HW186085   9.478   7.074  10.764
61396SOL    HW286086   9.619   7.085  10.819
61397SOL     OW86087   4.119   6.242  13.942
61397SOL    HW186088   4.059   6.306  13.979
61397SOL    HW286089   4.199   6.252  13.993
61398SOL     OW86090   6.481  14.308   6.202
61398SOL    HW186091   6.514  14.311   6.112
61398SOL    HW286092   6.419  14.381   6.206
61399SOL     OW86093   3.124  12.904   2.854
61399SOL    HW186094   3.147  12.872   2.942
61399SOL    HW286095   3.207  12.904   2.806
61400SOL     OW86096   1.442   1.351  14.207
61400SOL    HW186097   1.534   1.377  14.217
61400SOL    HW286098   1.413   1.398  14.128
61401SOL     OW86099   7.019  12.334   7.455
61401SOL    HW186100   7.052  12.346   7.366
61401SOL    HW286101   7.076  12.267   7.493
61402SOL     OW86102   0.187   9.895   3.959
61402SOL    HW186103   0.228   9.832   3.899
61402SOL    HW286104   0.184   9.849   4.043
61403SOL     OW86105   1.366   6.265   1.540
61403SOL    HW186106   1.392   6.254   1.631
61403SOL    HW286107   1.446   6.290   1.495
61404SOL     OW86108   7.673   9.794   0.456
61404SOL    HW186109   7.693   9.701   0.448
61404SOL    HW286110   7.652   9.821   0.366
61405SOL     OW86111  12.124   7.667  14.300
61405SOL    HW186112  12.081   7.753  14.304
61405SOL    HW286113  12.073   7.613  14.361
61406SOL     OW86114   9.537   6.981  13.993
61406SOL    HW186115   9.511   6.894  13.963
61406SOL    HW286116   9.617   7.001  13.944
61407SOL     OW86117   0.845   1.655   8.923
61407SOL    HW186118   0.937   1.631   8.934
61407SOL    HW286119   0.847   1.748   8.901
61408SOL     OW86120   9.921   6.200   5.600
61408SOL    HW186121   9.934   6.272   5.662
61408SOL    HW286122   9.875   6.240   5.526
61409SOL     OW86123   4.422   3.020  11.736
61409SOL    HW186124   4.436   3.114  11.746
61409SOL    HW286125   4.510   2.983  11.728
61410SOL     OW86126   5.618  10.588   8.261
61410SOL    HW186127   5.596  10.653   8.327
61410SOL    HW286128   5.562  10.513   8.283
61411SOL     OW86129   4.874  14.000  10.499
61411SOL    HW186130   4.834  14.077  10.459
61411SOL    HW286131   4.801  13.949  10.533
61412SOL     OW86132   9.096   4.866  13.538
61412SOL    HW186133   9.126   4.775  13.536
61412SOL    HW286134   9.027   4.870  13.471
61413SOL     OW86135  10.046   9.714  14.615
61413SOL    HW186136  10.080   9.701  14.703
61413SOL    HW286137  10.009   9.629  14.590
61414SOL     OW86138   7.001   7.759   9.327
61414SOL    HW186139   6.950   7.790   9.252
61414SOL    HW286140   6.978   7.667   9.336
61415SOL     OW86141   4.039   3.117  14.290
61415SOL    HW186142   4.090   3.171  14.229
61415SOL    HW286143   3.985   3.179  14.338
61416SOL     OW86144  13.189   3.043  10.857
61416SOL    HW186145  13.145   2.987  10.793
61416SOL    HW286146  13.129   3.046  10.931
61417SOL     OW86147  14.520   1.624  13.877
61417SOL    HW186148  14.586   1.651  13.813
61417SOL    HW286149  14.442   1.606  13.824
61418SOL     OW86150  14.517   3.689  12.236
61418SOL    HW186151  14.572   3.766  12.250
61418SOL    HW286152  14.539   3.660  12.147
61419SOL     OW86153  10.687   0.819  11.085
61419SOL    HW186154  10.656   0.862  11.005
61419SOL    HW286155  10.736   0.744  11.053
61420SOL     OW86156   0.221  13.352   1.522
61420SOL    HW186157   0.311  13.365   1.492
61420SOL    HW286158   0.173  13.427   1.487
61421SOL     OW86159  14.157  13.608   5.525
61421SOL    HW186160  14.238  13.573   5.560
61421SOL    HW286161  14.183  13.653   5.444
61422SOL     OW86162  14.154   6.848  11.850
61422SOL    HW186163  14.165   6.798  11.931
61422SOL    HW286164  14.068   6.889  11.858
61423SOL     OW86165  10.140  13.995   7.355
61423SOL    HW186166  10.073  13.928   7.366
61423SOL    HW286167  10.134  14.021   7.263
61424SOL     OW86168   6.017   7.406   9.304
61424SOL    HW186169   5.955   7.467   9.343
61424SOL    HW286170   6.093   7.459   9.281
61425SOL     OW86171   7.718   3.767   6.601
61425SOL    HW186172   7.637   3.788   6.647
61425SOL    HW286173   7.782   3.829   6.636
61426SOL     OW86174   7.359   3.043   3.325
61426SOL    HW186175   7.398   3.011   3.407
61426SOL    HW286176   7.306   2.970   3.293
61427SOL     OW86177   9.254  11.626   3.429
61427SOL    HW186178   9.177  11.660   3.475
61427SOL    HW286179   9.265  11.537   3.462
61428SOL     OW86180   7.279   4.175   0.429
61428SOL    HW186181   7.221   4.252   0.425
61428SOL    HW286182   7.250   4.128   0.507
61429SOL     OW86183   6.169  12.657  12.765
61429SOL    HW186184   6.183  12.655  12.859
61429SOL    HW286185   6.089  12.709  12.753
61430SOL     OW86186   7.552  14.002  13.058
61430SOL    HW186187   7.528  13.911  13.078
61430SOL    HW286188   7.640  13.997  13.023
61431SOL     OW86189   5.094   3.879   5.946
61431SOL    HW186190   5.134   3.888   6.032
61431SOL    HW286191   5.167   3.855   5.888
61432SOL     OW86192   3.550  13.857  11.527
61432SOL    HW186193   3.483  13.789  11.530
61432SOL    HW286194   3.625  13.815  11.483
61433SOL     OW86195  14.300   4.311   6.662
61433SOL    HW186196  14.288   4.383   6.725
61433SOL    HW286197  14.355   4.248   6.709
61434SOL     OW86198  11.055   4.777   4.149
61434SOL    HW186199  11.036   4.786   4.056
61434SOL    HW286200  11.059   4.867   4.182
61435SOL     OW86201   3.598   9.698  12.431
61435SOL    HW186202   3.531   9.633  12.447
61435SOL    HW286203   3.612   9.740  12.516
61436SOL     OW86204   6.902   1.335  14.673
61436SOL    HW186205   6.887   1.294  14.758
61436SOL    HW286206   6.973   1.397  14.688
61437SOL     OW86207   2.965   3.022  12.347
61437SOL    HW186208   2.935   2.957  12.410
61437SOL    HW286209   2.936   3.106  12.383
61438SOL     OW86210   1.835   0.649   6.319
61438SOL    HW186211   1.894   0.714   6.355
61438SOL    HW286212   1.854   0.569   6.368
61439SOL     OW86213   8.339  11.507   1.853
61439SOL    HW186214   8.381  11.488   1.937
61439SOL    HW286215   8.408  11.492   1.788
61440SOL     OW86216   7.854  12.187  14.667
61440SOL    HW186217   7.842  12.252  14.598
61440SOL    HW286218   7.824  12.232  14.747
61441SOL     OW86219   7.601   5.321   0.241
61441SOL    HW186220   7.630   5.300   0.330
61441SOL    HW286221   7.558   5.406   0.250
61442SOL     OW86222  10.192   2.362   6.742
61442SOL    HW186223  10.262   2.341   6.803
61442SOL    HW286224  10.224   2.334   6.657
61443SOL     OW86225   9.944   7.222   3.145
61443SOL    HW186226  10.020   7.278   3.154
61443SOL    HW286227   9.926   7.221   3.050
61444SOL     OW86228   3.675  12.981   5.029
61444SOL    HW186229   3.589  12.958   5.063
61444SOL    HW286230   3.697  12.908   4.970
61445SOL     OW86231   5.348  13.278  13.981
61445SOL    HW186232   5.316  13.191  14.002
61445SOL    HW286233   5.381  13.270  13.891
61446SOL     OW86234  14.792  12.891  13.521
61446SOL    HW186235  14.860  12.940  13.567
61446SOL    HW286236  14.837  12.815  13.484
61447SOL     OW86237   5.880  13.016   6.547
61447SOL    HW186238   5.965  12.988   6.514
61447SOL    HW286239   5.831  12.934   6.559
61448SOL     OW86240   0.347   4.599   5.273
61448SOL    HW186241   0.303   4.644   5.345
61448SOL    HW286242   0.425   4.652   5.255
61449SOL     OW86243   4.437  13.668   8.450
61449SOL    HW186244   4.342  13.673   8.451
61449SOL    HW286245   4.457  13.584   8.409
61450SOL     OW86246   6.790   6.434  11.762
61450SOL    HW186247   6.819   6.522  11.784
61450SOL    HW286248   6.714   6.418  11.817
61451SOL     OW86249  14.239  12.544   3.827
61451SOL    HW186250  14.265  12.627   3.789
61451SOL    HW286251  14.284  12.478   3.774
61452SOL     OW86252   9.260  10.287   0.775
61452SOL    HW186253   9.317  10.337   0.834
61452SOL    HW286254   9.319  10.253   0.708
61453SOL     OW86255  11.683   2.311   3.728
61453SOL    HW186256  11.760   2.367   3.733
61453SOL    HW286257  11.686   2.259   3.808
61454SOL     OW86258   0.918   2.402   2.231
61454SOL    HW186259   0.943   2.401   2.139
61454SOL    HW286260   0.963   2.326   2.269
61455SOL     OW86261   8.442   2.585   7.315
61455SOL    HW186262   8.449   2.547   7.403
61455SOL    HW286263   8.351   2.613   7.309
61456SOL     OW86264   8.406   0.151   0.571
61456SOL    HW186265   8.382   0.119   0.484
61456SOL    HW286266   8.501   0.145   0.574
61457SOL     OW86267  11.210  11.940  11.307
61457SOL    HW186268  11.292  11.947  11.259
61457SOL    HW286269  11.144  11.924  11.239
61458SOL     OW86270  13.132  13.114  13.029
61458SOL    HW186271  13.226  13.099  13.038
61458SOL    HW286272  13.112  13.182  13.093
61459SOL     OW86273   6.770  13.168  10.883
61459SOL    HW186274   6.806  13.242  10.834
61459SOL    HW286275   6.684  13.198  10.912
61460SOL     OW86276   8.308  11.601   9.838
61460SOL    HW186277   8.291  11.510   9.863
61460SOL    HW286278   8.221  11.636   9.816
61461SOL     OW86279   3.393   1.763   5.561
61461SOL    HW186280   3.349   1.692   5.513
61461SOL    HW286281   3.481   1.730   5.576
61462SOL     OW86282   1.148   4.349   1.206
61462SOL    HW186283   1.209   4.348   1.132
61462SOL    HW286284   1.064   4.375   1.168
61463SOL     OW86285  12.017  12.417  11.193
61463SOL    HW186286  11.923  12.434  11.193
61463SOL    HW286287  12.037  12.394  11.102
61464SOL     OW86288   7.432   6.545   8.230
61464SOL    HW186289   7.371   6.533   8.157
61464SOL    HW286290   7.420   6.467   8.284
61465SOL     OW86291   0.195  11.301   0.438
61465SOL    HW186292   0.183  11.247   0.360
61465SOL    HW286293   0.107  11.328   0.463
61466SOL     OW86294   1.881   5.921  13.102
61466SOL    HW186295   1.837   5.929  13.186
61466SOL    HW286296   1.882   6.010  13.066
61467SOL     OW86297   3.520   4.082   2.597
61467SOL    HW186298   3.454   4.085   2.528
61467SOL    HW286299   3.469   4.067   2.677
61468SOL     OW86300   2.966  11.818   5.482
61468SOL    HW186301   2.987  11.873   5.407
61468SOL    HW286302   3.002  11.865   5.557
61469SOL     OW86303  10.781   9.732   6.943
61469SOL    HW186304  10.827   9.669   6.888
61469SOL    HW286305  10.689   9.708   6.937
61470SOL     OW86306   4.671   3.411  11.535
61470SOL    HW186307   4.618   3.437  11.460
61470SOL    HW286308   4.755   3.455  11.521
61471SOL     OW86309  10.418  14.308   1.898
61471SOL    HW186310  10.385  14.219   1.889
61471SOL    HW286311  10.491  14.301   1.960
61472SOL     OW86312  11.885  11.941   1.458
61472SOL    HW186313  11.890  11.951   1.553
61472SOL    HW286314  11.952  11.876   1.436
61473SOL     OW86315  14.037  11.082   4.993
61473SOL    HW186316  13.945  11.080   5.018
61473SOL    HW286317  14.057  10.991   4.971
61474SOL     OW86318   8.836   1.425   4.887
61474SOL    HW186319   8.919   1.429   4.838
61474SOL    HW286320   8.814   1.516   4.906
61475SOL     OW86321   2.630   7.182   3.351
61475SOL    HW186322   2.556   7.185   3.412
61475SOL    HW286323   2.592   7.154   3.268
61476SOL     OW86324  10.775   6.159   8.736
61476SOL    HW186325  10.723   6.219   8.683
61476SOL    HW286326  10.764   6.190   8.826
61477SOL     OW86327   2.891   7.480   2.814
61477SOL    HW186328   2.982   7.469   2.785
61477SOL    HW286329   2.898   7.507   2.906
61478SOL     OW86330   8.824   8.915   3.381
61478SOL    HW186331   8.760   8.957   3.323
61478SOL    HW286332   8.882   8.986   3.408
61479SOL     OW86333   7.766  14.147   5.125
61479SOL    HW186334   7.783  14.156   5.219
61479SOL    HW286335   7.775  14.053   5.107
61480SOL     OW86336  13.492  11.298   8.530
61480SOL    HW186337  13.475  11.232   8.597
61480SOL    HW286338  13.564  11.350   8.565
61481SOL     OW86339   3.624   5.432   6.955
61481SOL    HW186340   3.549   5.412   6.899
61481SOL    HW286341   3.599   5.398   7.042
61482SOL     OW86342  11.633  10.919   8.814
61482SOL    HW186343  11.579  10.987   8.776
61482SOL    HW286344  11.650  10.858   8.742
61483SOL     OW86345   3.864   1.754   1.172
61483SOL    HW186346   3.915   1.800   1.239
61483SOL    HW286347   3.809   1.693   1.221
61484SOL     OW86348   5.478  14.174   1.670
61484SOL    HW186349   5.394  14.215   1.652
61484SOL    HW286350   5.459  14.105   1.733
61485SOL     OW86351  10.195   6.251   6.282
61485SOL    HW186352  10.270   6.306   6.306
61485SOL    HW286353  10.164   6.215   6.365
61486SOL     OW86354  12.114   2.761  13.112
61486SOL    HW186355  12.088   2.838  13.062
61486SOL    HW286356  12.207   2.749  13.091
61487SOL     OW86357  11.997   1.422   5.680
61487SOL    HW186358  11.949   1.501   5.706
61487SOL    HW286359  11.930   1.366   5.642
61488SOL     OW86360   4.270   7.910   4.438
61488SOL    HW186361   4.337   7.930   4.373
61488SOL    HW286362   4.316   7.857   4.503
61489SOL     OW86363   4.613   7.940   7.461
61489SOL    HW186364   4.537   7.897   7.500
61489SOL    HW286365   4.629   8.016   7.516
61490SOL     OW86366  11.461   4.456   1.230
61490SOL    HW186367  11.393   4.474   1.164
61490SOL    HW286368  11.529   4.521   1.213
61491SOL     OW86369   2.563   6.982  12.695
61491SOL    HW186370   2.573   6.896  12.736
61491SOL    HW286371   2.563   6.964  12.601
61492SOL     OW86372   6.846  10.554   7.460
61492SOL    HW186373   6.800  10.637   7.451
61492SOL    HW286374   6.804  10.495   7.397
61493SOL     OW86375   1.670   6.402   2.386
61493SOL    HW186376   1.708   6.395   2.298
61493SOL    HW286377   1.597   6.464   2.375
61494SOL     OW86378   0.318   7.600  13.796
61494SOL    HW186379   0.406   7.594  13.759
61494SOL    HW286380   0.306   7.694  13.813
61495SOL     OW86381  11.613   4.271   1.501
61495SOL    HW186382  11.545   4.315   1.450
61495SOL    HW286383  11.565   4.207   1.554
61496SOL     OW86384  10.552   4.797   4.558
61496SOL    HW186385  10.582   4.881   4.592
61496SOL    HW286386  10.601   4.785   4.476
61497SOL     OW86387   2.561  10.924   1.572
61497SOL    HW186388   2.469  10.919   1.545
61497SOL    HW286389   2.602  10.849   1.529
61498SOL     OW86390   2.667   9.727   4.634
61498SOL    HW186391   2.587   9.766   4.600
61498SOL    HW286392   2.696   9.787   4.703
61499SOL     OW86393   3.454   6.373   1.230
61499SOL    HW186394   3.367   6.336   1.224
61499SOL    HW286395   3.440   6.468   1.230
61500SOL     OW86396   0.376   2.430  12.482
61500SOL    HW186397   0.336   2.509  12.445
61500SOL    HW286398   0.441   2.464  12.544
61501SOL     OW86399   6.750  13.086   1.774
61501SOL    HW186400   6.655  13.073   1.775
61501SOL    HW286401   6.776  13.070   1.683
61502SOL     OW86402   8.986   6.925   7.721
61502SOL    HW186403   8.957   6.842   7.757
61502SOL    HW286404   9.068   6.944   7.768
61503SOL     OW86405  11.854   4.459  13.416
61503SOL    HW186406  11.820   4.378  13.377
61503SOL    HW286407  11.908   4.429  13.490
61504SOL     OW86408   5.228   4.611   7.559
61504SOL    HW186409   5.271   4.637   7.641
61504SOL    HW286410   5.203   4.520   7.574
61505SOL     OW86411   7.503  13.480   5.023
61505SOL    HW186412   7.492  13.565   5.067
61505SOL    HW286413   7.564  13.432   5.080
61506SOL     OW86414   6.530   2.218  12.598
61506SOL    HW186415   6.523   2.209  12.503
61506SOL    HW286416   6.597   2.155  12.624
61507SOL     OW86417   7.840   5.282   5.030
61507SOL    HW186418   7.874   5.331   5.105
61507SOL    HW286419   7.880   5.325   4.954
61508SOL     OW86420   7.140   2.969  12.898
61508SOL    HW186421   7.117   2.978  12.990
61508SOL    HW286422   7.142   2.875  12.882
61509SOL     OW86423   0.819  12.145   3.484
61509SOL    HW186424   0.911  12.163   3.462
61509SOL    HW286425   0.813  12.050   3.485
61510SOL     OW86426   5.657   7.311   5.004
61510SOL    HW186427   5.622   7.359   4.929
61510SOL    HW286428   5.643   7.370   5.078
61511SOL     OW86429   4.195   6.984  13.647
61511SOL    HW186430   4.282   7.011  13.618
61511SOL    HW286431   4.175   7.042  13.721
61512SOL     OW86432   5.642   0.865   2.657
61512SOL    HW186433   5.564   0.815   2.632
61512SOL    HW286434   5.701   0.856   2.583
61513SOL     OW86435   0.620   5.247  14.041
61513SOL    HW186436   0.714   5.259  14.028
61513SOL    HW286437   0.612   5.210  14.128
61514SOL     OW86438  13.891   5.327   2.240
61514SOL    HW186439  13.922   5.240   2.216
61514SOL    HW286440  13.946   5.351   2.315
61515SOL     OW86441  12.144   4.575  14.322
61515SOL    HW186442  12.109   4.581  14.410
61515SOL    HW286443  12.074   4.608  14.266
61516SOL     OW86444   6.293  10.367  13.502
61516SOL    HW186445   6.310  10.461  13.513
61516SOL    HW286446   6.255  10.339  13.585
61517SOL     OW86447  14.367  13.968   8.377
61517SOL    HW186448  14.318  13.914   8.316
61517SOL    HW286449  14.374  13.915   8.456
61518SOL     OW86450  10.966  13.951   6.993
61518SOL    HW186451  10.957  13.922   6.902
61518SOL    HW286452  10.980  13.870   7.042
61519SOL     OW86453  12.802   4.030   4.637
61519SOL    HW186454  12.865   3.959   4.651
61519SOL    HW286455  12.830   4.099   4.697
61520SOL     OW86456   0.981   2.048   6.735
61520SOL    HW186457   1.021   2.135   6.738
61520SOL    HW286458   0.920   2.052   6.662
61521SOL     OW86459   5.791  14.838  11.615
61521SOL    HW186460   5.811  14.749  11.644
61521SOL    HW286461   5.773  14.830  11.522
61522SOL     OW86462   7.885   6.060  12.719
61522SOL    HW186463   7.864   5.993  12.783
61522SOL    HW286464   7.843   6.030  12.638
61523SOL     OW86465   4.347  11.233   4.353
61523SOL    HW186466   4.358  11.283   4.272
61523SOL    HW286467   4.345  11.300   4.422
61524SOL     OW86468  13.640   1.375   3.281
61524SOL    HW186469  13.595   1.327   3.351
61524SOL    HW286470  13.590   1.354   3.202
61525SOL     OW86471   2.701  11.980   8.004
61525SOL    HW186472   2.616  11.971   8.048
61525SOL    HW286473   2.762  11.931   8.060
61526SOL     OW86474   2.074   6.936  11.386
61526SOL    HW186475   1.981   6.918  11.373
61526SOL    HW286476   2.084   6.947  11.480
61527SOL     OW86477  13.674   2.786   7.323
61527SOL    HW186478  13.713   2.756   7.241
61527SOL    HW286479  13.740   2.843   7.362
61528SOL     OW86480  10.975   4.863   9.883
61528SOL    HW186481  10.956   4.928   9.952
61528SOL    HW286482  11.055   4.895   9.843
61529SOL     OW86483   7.515   4.743  11.062
61529SOL    HW186484   7.527   4.680  11.134
61529SOL    HW286485   7.420   4.754  11.056
61530SOL     OW86486  11.145  13.578   2.594
61530SOL    HW186487  11.059  13.560   2.632
61530SOL    HW286488  11.188  13.492   2.588
61531SOL     OW86489  13.249   0.791   1.486
61531SOL    HW186490  13.189   0.863   1.504
61531SOL    HW286491  13.230   0.767   1.395
61532SOL     OW86492   5.106   6.187   2.007
61532SOL    HW186493   5.021   6.185   2.050
61532SOL    HW286494   5.104   6.114   1.946
61533SOL     OW86495  10.628   7.555   4.130
61533SOL    HW186496  10.721   7.570   4.148
61533SOL    HW286497  10.622   7.463   4.106
61534SOL     OW86498   2.714  12.230   4.914
61534SOL    HW186499   2.769  12.263   4.844
61534SOL    HW286500   2.707  12.136   4.899
61535SOL     OW86501  13.323  10.085   5.841
61535SOL    HW186502  13.335  10.041   5.926
61535SOL    HW286503  13.338  10.016   5.776
61536SOL     OW86504   0.362  13.093  11.109
61536SOL    HW186505   0.331  13.109  11.020
61536SOL    HW286506   0.399  13.176  11.136
61537SOL     OW86507   4.515  13.254   3.589
61537SOL    HW186508   4.522  13.336   3.540
61537SOL    HW286509   4.422  13.243   3.604
61538SOL     OW86510  12.014  11.436   4.297
61538SOL    HW186511  11.925  11.460   4.323
61538SOL    HW286512  12.071  11.494   4.347
61539SOL     OW86513   7.971  13.835   8.027
61539SOL    HW186514   7.919  13.758   8.047
61539SOL    HW286515   7.907  13.902   8.002
61540SOL     OW86516   9.233   9.044  13.575
61540SOL    HW186517   9.256   8.974  13.637
61540SOL    HW286518   9.316   9.082  13.549
61541SOL     OW86519   4.292  14.432   7.662
61541SOL    HW186520   4.259  14.343   7.677
61541SOL    HW286521   4.307  14.468   7.749
61542SOL     OW86522  10.678   6.570   9.047
61542SOL    HW186523  10.756   6.590   8.995
61542SOL    HW286524  10.710   6.515   9.118
61543SOL     OW86525   7.201   6.877   0.305
61543SOL    HW186526   7.293   6.903   0.295
61543SOL    HW286527   7.189   6.807   0.242
61544SOL     OW86528   6.398   7.060  13.134
61544SOL    HW186529   6.329   7.123  13.112
61544SOL    HW286530   6.426   7.086  13.222
61545SOL     OW86531  11.971   5.779   4.997
61545SOL    HW186532  11.986   5.852   5.058
61545SOL    HW286533  11.878   5.761   5.003
61546SOL     OW86534   6.248   1.132   4.605
61546SOL    HW186535   6.302   1.117   4.528
61546SOL    HW286536   6.279   1.216   4.640
61547SOL     OW86537   7.263   1.877  12.448
61547SOL    HW186538   7.286   1.862  12.356
61547SOL    HW286539   7.341   1.850  12.496
61548SOL     OW86540  11.275   7.913   5.691
61548SOL    HW186541  11.277   8.000   5.732
61548SOL    HW286542  11.258   7.853   5.764
61549SOL     OW86543  13.280  11.535   4.923
61549SOL    HW186544  13.324  11.620   4.913
61549SOL    HW286545  13.235  11.522   4.840
61550SOL     OW86546   7.643   9.176   3.485
61550SOL    HW186547   7.596   9.152   3.565
61550SOL    HW286548   7.734   9.151   3.503
61551SOL     OW86549  12.838   9.159   3.726
61551SOL    HW186550  12.783   9.081   3.732
61551SOL    HW286551  12.895   9.154   3.803
61552SOL     OW86552   5.431   0.820   3.655
61552SOL    HW186553   5.462   0.775   3.733
61552SOL    HW286554   5.506   0.873   3.627
61553SOL     OW86555   3.277  12.611   2.801
61553SOL    HW186556   3.240  12.523   2.806
61553SOL    HW286557   3.212  12.661   2.752
61554SOL     OW86558   2.826   2.514  14.587
61554SOL    HW186559   2.922   2.514  14.594
61554SOL    HW286560   2.797   2.474  14.669
61555SOL     OW86561  11.205   2.549   5.563
61555SOL    HW186562  11.138   2.493   5.524
61555SOL    HW286563  11.280   2.491   5.576
61556SOL     OW86564  13.888  13.144  10.151
61556SOL    HW186565  13.859  13.052  10.151
61556SOL    HW286566  13.809  13.194  10.172
61557SOL     OW86567  10.632   7.895  10.045
61557SOL    HW186568  10.697   7.927  10.107
61557SOL    HW286569  10.586   7.825  10.090
61558SOL     OW86570   5.349  14.554   0.273
61558SOL    HW186571   5.409  14.491   0.313
61558SOL    HW286572   5.350  14.531   0.180
61559SOL     OW86573   6.768   5.380   4.268
61559SOL    HW186574   6.678   5.348   4.275
61559SOL    HW286575   6.766   5.468   4.305
61560SOL     OW86576   7.956  12.688   5.701
61560SOL    HW186577   8.026  12.624   5.690
61560SOL    HW286578   7.995  12.757   5.755
61561SOL     OW86579   3.715   7.888   4.183
61561SOL    HW186580   3.755   7.824   4.242
61561SOL    HW286581   3.759   7.873   4.099
61562SOL     OW86582  13.162   4.629  10.429
61562SOL    HW186583  13.099   4.559  10.413
61562SOL    HW286584  13.220   4.627  10.352
61563SOL     OW86585  13.760   4.322   7.585
61563SOL    HW186586  13.826   4.334   7.654
61563SOL    HW286587  13.694   4.265   7.625
61564SOL     OW86588   0.362   7.620  13.337
61564SOL    HW186589   0.426   7.572  13.284
61564SOL    HW286590   0.324   7.683  13.275
61565SOL     OW86591   9.060   4.215   6.386
61565SOL    HW186592   9.123   4.154   6.349
61565SOL    HW286593   8.976   4.170   6.380
61566SOL     OW86594   2.378   1.927  14.104
61566SOL    HW186595   2.348   1.838  14.121
61566SOL    HW286596   2.471   1.917  14.082
61567SOL     OW86597   6.208   3.340  12.048
61567SOL    HW186598   6.282   3.397  12.026
61567SOL    HW286599   6.227   3.257  12.006
61568SOL     OW86600   6.211   7.593   9.650
61568SOL    HW186601   6.131   7.603   9.700
61568SOL    HW286602   6.262   7.672   9.670
61569SOL     OW86603   4.343   8.826   2.041
61569SOL    HW186604   4.393   8.757   2.085
61569SOL    HW286605   4.338   8.897   2.105
61570SOL     OW86606  11.404   2.984   8.799
61570SOL    HW186607  11.414   2.960   8.892
61570SOL    HW286608  11.347   3.061   8.801
61571SOL     OW86609   6.990  11.585  12.947
61571SOL    HW186610   7.047  11.608  12.875
61571SOL    HW286611   7.009  11.650  13.015
61572SOL     OW86612  11.261  11.423  10.832
61572SOL    HW186613  11.355  11.440  10.826
61572SOL    HW286614  11.241  11.432  10.925
61573SOL     OW86615   5.200  10.384   6.424
61573SOL    HW186616   5.191  10.479   6.435
61573SOL    HW286617   5.220  10.352   6.512
61574SOL     OW86618  13.200   0.661  10.809
61574SOL    HW186619  13.176   0.569  10.808
61574SOL    HW286620  13.211   0.682  10.902
61575SOL     OW86621  12.158   5.764   1.060
61575SOL    HW186622  12.098   5.720   1.120
61575SOL    HW286623  12.129   5.855   1.059
61576SOL     OW86624   7.681   9.124  10.190
61576SOL    HW186625   7.624   9.189  10.230
61576SOL    HW286626   7.766   9.168  10.182
61577SOL     OW86627  13.972  13.772   5.625
61577SOL    HW186628  14.039  13.711   5.593
61577SOL    HW286629  14.008  13.858   5.607
61578SOL     OW86630  11.592   9.608  12.910
61578SOL    HW186631  11.518   9.556  12.941
61578SOL    HW286632  11.554   9.693  12.887
61579SOL     OW86633   6.292   8.378  11.434
61579SOL    HW186634   6.379   8.383  11.394
61579SOL    HW286635   6.264   8.288  11.418
61580SOL     OW86636  14.864   8.437  12.259
61580SOL    HW186637  14.818   8.356  12.235
61580SOL    HW286638   0.010   8.475  12.176
61581SOL     OW86639   8.203  14.740   9.491
61581SOL    HW186640   8.200  14.660   9.438
61581SOL    HW286641   8.162  14.807   9.436
61582SOL     OW86642  14.707   7.793   2.079
61582SOL    HW186643  14.679   7.821   2.167
61582SOL    HW286644  14.625   7.785   2.030
61583SOL     OW86645  10.487  10.975  11.183
61583SOL    HW186646  10.427  10.933  11.244
61583SOL    HW286647  10.442  11.055  11.156
61584SOL     OW86648   6.607   3.556   7.025
61584SOL    HW186649   6.583   3.465   7.007
61584SOL    HW286650   6.692   3.567   6.981
61585SOL     OW86651   0.921   0.300  12.934
61585SOL    HW186652   0.832   0.274  12.908
61585SOL    HW286653   0.977   0.261  12.868
61586SOL     OW86654   2.737  10.209  11.470
61586SOL    HW186655   2.661  10.152  11.481
61586SOL    HW286656   2.810  10.150  11.453
61587SOL     OW86657   3.831   8.388   2.048
61587SOL    HW186658   3.910   8.391   2.102
61587SOL    HW286659   3.849   8.449   1.976
61588SOL     OW86660   2.240   2.979   5.264
61588SOL    HW186661   2.148   2.981   5.291
61588SOL    HW286662   2.271   3.068   5.277
61589SOL     OW86663  11.257   5.419   0.163
61589SOL    HW186664  11.220   5.340   0.125
61589SOL    HW286665  11.186   5.484   0.157
61590SOL     OW86666  12.316  12.791  13.954
61590SOL    HW186667  12.300  12.804  13.860
61590SOL    HW286668  12.253  12.849  13.997
61591SOL     OW86669   3.974   9.277   6.174
61591SOL    HW186670   4.020   9.361   6.176
61591SOL    HW286671   4.023   9.222   6.235
61592SOL     OW86672   0.642   8.581   7.667
61592SOL    HW186673   0.683   8.495   7.664
61592SOL    HW286674   0.597   8.585   7.751
61593SOL     OW86675  12.176   7.972   6.329
61593SOL    HW186676  12.229   7.986   6.251
61593SOL    HW286677  12.176   8.056   6.374
61594SOL     OW86678   4.343  13.195   2.663
61594SOL    HW186679   4.344  13.224   2.754
61594SOL    HW286680   4.270  13.134   2.658
61595SOL     OW86681   0.299  14.843   7.437
61595SOL    HW186682   0.235  14.799   7.493
61595SOL    HW286683   0.374  14.784   7.437
61596SOL     OW86684  10.220  11.904   9.551
61596SOL    HW186685  10.244  11.963   9.480
61596SOL    HW286686  10.136  11.866   9.524
61597SOL     OW86687  11.226  10.573   8.609
61597SOL    HW186688  11.175  10.520   8.670
61597SOL    HW286689  11.317  10.562   8.638
61598SOL     OW86690   9.103   2.792  11.177
61598SOL    HW186691   9.192   2.825  11.165
61598SOL    HW286692   9.052   2.869  11.202
61599SOL     OW86693   9.113   5.324   1.146
61599SOL    HW186694   9.193   5.377   1.140
61599SOL    HW286695   9.113   5.291   1.236
61600SOL     OW86696   3.702  10.446   5.625
61600SOL    HW186697   3.739  10.449   5.713
61600SOL    HW286698   3.676  10.354   5.613
61601SOL     OW86699  10.473   7.987   1.223
61601SOL    HW186700  10.493   8.078   1.244
61601SOL    HW286701  10.555   7.950   1.191
61602SOL     OW86702   5.437   2.078  10.928
61602SOL    HW186703   5.509   2.139  10.910
61602SOL    HW286704   5.418   2.092  11.021
61603SOL     OW86705  10.266   2.213   6.124
61603SOL    HW186706  10.214   2.164   6.187
61603SOL    HW286707  10.222   2.298   6.117
61604SOL     OW86708   9.303   1.018  13.901
61604SOL    HW186709   9.208   1.020  13.909
61604SOL    HW286710   9.330   0.946  13.959
61605SOL     OW86711  12.808   2.053   2.163
61605SOL    HW186712  12.865   2.006   2.223
61605SOL    HW286713  12.739   2.089   2.218
61606SOL     OW86714  11.254   2.364  14.552
61606SOL    HW186715  11.193   2.370  14.626
61606SOL    HW286716  11.227   2.284  14.506
61607SOL     OW86717   5.930   4.744   9.797
61607SOL    HW186718   6.004   4.690   9.824
61607SOL    HW286719   5.970   4.825   9.766
61608SOL     OW86720   2.518   9.073  12.485
61608SOL    HW186721   2.485   9.116  12.406
61608SOL    HW286722   2.486   9.126  12.557
61609SOL     OW86723  12.313   9.477   4.531
61609SOL    HW186724  12.260   9.557   4.528
61609SOL    HW286725  12.381   9.496   4.595
61610SOL     OW86726   5.287   2.442   5.136
61610SOL    HW186727   5.210   2.450   5.080
61610SOL    HW286728   5.254   2.456   5.225
61611SOL     OW86729   4.742   9.116   9.774
61611SOL    HW186730   4.768   9.160   9.693
61611SOL    HW286731   4.665   9.164   9.804
61612SOL     OW86732   2.527   9.007   9.024
61612SOL    HW186733   2.621   9.027   9.025
61612SOL    HW286734   2.485   9.084   8.986
61613SOL     OW86735   3.576   0.304   5.311
61613SOL    HW186736   3.486   0.290   5.282
61613SOL    HW286737   3.569   0.370   5.380
61614SOL     OW86738   3.107  14.495  12.385
61614SOL    HW186739   3.058  14.520  12.464
61614SOL    HW286740   3.045  14.509  12.313
61615SOL     OW86741  11.344  11.250   4.474
61615SOL    HW186742  11.415  11.313   4.486
61615SOL    HW286743  11.269  11.289   4.518
61616SOL     OW86744  10.360   0.292   4.681
61616SOL    HW186745  10.451   0.314   4.697
61616SOL    HW286746  10.363   0.214   4.625
61617SOL     OW86747   6.090  11.736   1.570
61617SOL    HW186748   6.034  11.677   1.620
61617SOL    HW286749   6.179  11.716   1.599
61618SOL     OW86750  13.767  13.652   4.617
61618SOL    HW186751  13.746  13.597   4.542
61618SOL    HW286752  13.693  13.641   4.676
61619SOL     OW86753  12.046   4.217   3.831
61619SOL    HW186754  12.026   4.125   3.849
61619SOL    HW286755  12.076   4.218   3.740
61620SOL     OW86756   7.487  12.794   3.521
61620SOL    HW186757   7.434  12.839   3.456
61620SOL    HW286758   7.568  12.844   3.525
61621SOL     OW86759   3.143  10.640   7.181
61621SOL    HW186760   3.054  10.646   7.146
61621SOL    HW286761   3.150  10.550   7.212
61622SOL     OW86762  12.816  13.680   1.024
61622SOL    HW186763  12.762  13.666   0.947
61622SOL    HW286764  12.799  13.604   1.080
61623SOL     OW86765   0.202   5.774   0.575
61623SOL    HW186766   0.150   5.787   0.654
61623SOL    HW286767   0.137   5.769   0.504
61624SOL     OW86768  10.871   7.392   4.243
61624SOL    HW186769  10.950   7.446   4.239
61624SOL    HW286770  10.833   7.410   4.328
61625SOL     OW86771  10.728   1.670   7.735
61625SOL    HW186772  10.681   1.602   7.685
61625SOL    HW286773  10.664   1.739   7.748
61626SOL     OW86774   3.871   4.922   6.995
61626SOL    HW186775   3.964   4.938   7.009
61626SOL    HW286776   3.835   4.914   7.084
61627SOL     OW86777   2.355   6.828   2.100
61627SOL    HW186778   2.374   6.893   2.167
61627SOL    HW286779   2.386   6.745   2.137
61628SOL     OW86780  13.979   7.005   8.088
61628SOL    HW186781  14.030   6.925   8.073
61628SOL    HW286782  14.009   7.037   8.173
61629SOL     OW86783   9.429  11.832   4.779
61629SOL    HW186784   9.433  11.910   4.723
61629SOL    HW286785   9.428  11.867   4.868
61630SOL     OW86786   0.719   9.392   5.990
61630SOL    HW186787   0.756   9.412   6.076
61630SOL    HW286788   0.626   9.409   5.999
61631SOL     OW86789  14.679   8.887  13.350
61631SOL    HW186790  14.746   8.891  13.282
61631SOL    HW286791  14.621   8.816  13.323
61632SOL     OW86792  12.334  11.536   3.846
61632SOL    HW186793  12.370  11.468   3.790
61632SOL    HW286794  12.401  11.605   3.847
61633SOL     OW86795  12.353   7.814   1.948
61633SOL    HW186796  12.422   7.748   1.946
61633SOL    HW286797  12.360   7.854   2.035
61634SOL     OW86798  10.447   5.742   6.188
61634SOL    HW186799  10.479   5.691   6.114
61634SOL    HW286800  10.355   5.718   6.196
61635SOL     OW86801  13.479   4.477   0.830
61635SOL    HW186802  13.538   4.465   0.756
61635SOL    HW286803  13.464   4.389   0.864
61636SOL     OW86804   0.644  10.887  14.489
61636SOL    HW186805   0.572  10.897  14.552
61636SOL    HW286806   0.633  10.800  14.453
61637SOL     OW86807  14.610  12.521   5.677
61637SOL    HW186808  14.617  12.605   5.632
61637SOL    HW286809  14.532  12.480   5.639
61638SOL     OW86810   8.383   5.782   8.973
61638SOL    HW186811   8.321   5.791   8.901
61638SOL    HW286812   8.373   5.862   9.023
61639SOL     OW86813  12.065  10.460   9.318
61639SOL    HW186814  12.068  10.555   9.328
61639SOL    HW286815  12.045  10.446   9.225
61640SOL     OW86816  10.149   2.346   7.262
61640SOL    HW186817  10.081   2.369   7.326
61640SOL    HW286818  10.142   2.413   7.194
61641SOL     OW86819   9.966  11.449  11.477
61641SOL    HW186820   9.985  11.483  11.389
61641SOL    HW286821   9.896  11.386  11.464
61642SOL     OW86822   8.598   7.912   1.260
61642SOL    HW186823   8.569   7.983   1.317
61642SOL    HW286824   8.545   7.921   1.181
61643SOL     OW86825   4.251  11.616  12.391
61643SOL    HW186826   4.237  11.665  12.310
61643SOL    HW286827   4.165  11.582  12.413
61644SOL     OW86828  14.485   2.443  14.588
61644SOL    HW186829  14.525   2.529  14.580
61644SOL    HW286830  14.399   2.459  14.626
61645SOL     OW86831   4.240   3.038   9.647
61645SOL    HW186832   4.162   3.039   9.702
61645SOL    HW286833   4.221   3.102   9.578
61646SOL     OW86834  13.211   1.986  14.435
61646SOL    HW186835  13.160   1.921  14.388
61646SOL    HW286836  13.146   2.042  14.477
61647SOL     OW86837   9.188   2.809   9.109
61647SOL    HW186838   9.257   2.755   9.071
61647SOL    HW286839   9.150   2.754   9.177
61648SOL     OW86840   9.599   7.084   5.879
61648SOL    HW186841   9.621   7.104   5.788
61648SOL    HW286842   9.541   7.008   5.873
61649SOL     OW86843  14.231   1.183   3.518
61649SOL    HW186844  14.323   1.208   3.513
61649SOL    HW286845  14.230   1.091   3.491
61650SOL     OW86846   4.652   1.522  14.543
61650SOL    HW186847   4.558   1.532  14.561
61650SOL    HW286848   4.657   1.504  14.450
61651SOL     OW86849  13.394  10.214   8.204
61651SOL    HW186850  13.467  10.256   8.159
61651SOL    HW286851  13.319  10.226   8.145
61652SOL     OW86852  11.828   1.580   4.401
61652SOL    HW186853  11.875   1.514   4.453
61652SOL    HW286854  11.875   1.661   4.419
61653SOL     OW86855  11.222   0.840   5.418
61653SOL    HW186856  11.222   0.850   5.513
61653SOL    HW286857  11.140   0.879   5.390
61654SOL     OW86858  14.674   1.334  12.273
61654SOL    HW186859  14.723   1.266  12.319
61654SOL    HW286860  14.640   1.391  12.342
61655SOL     OW86861   7.932  14.509   0.330
61655SOL    HW186862   7.956  14.418   0.348
61655SOL    HW286863   8.009  14.546   0.286
61656SOL     OW86864   5.345   2.219  14.499
61656SOL    HW186865   5.358   2.286  14.432
61656SOL    HW286866   5.250   2.210  14.506
61657SOL     OW86867   0.817   7.708   3.297
61657SOL    HW186868   0.746   7.767   3.319
61657SOL    HW286869   0.825   7.650   3.372
61658SOL     OW86870   5.470  14.782  11.687
61658SOL    HW186871   5.395  14.840  11.673
61658SOL    HW286872   5.525  14.797  11.610
61659SOL     OW86873  12.983   0.604   4.577
61659SOL    HW186874  12.920   0.617   4.648
61659SOL    HW286875  12.939   0.638   4.499
61660SOL     OW86876   3.775   1.732   5.478
61660SOL    HW186877   3.747   1.674   5.408
61660SOL    HW286878   3.732   1.699   5.557
61661SOL     OW86879   1.465  12.852  10.175
61661SOL    HW186880   1.549  12.881  10.139
61661SOL    HW286881   1.488  12.820  10.263
61662SOL     OW86882   8.488  11.553   5.724
61662SOL    HW186883   8.492  11.642   5.759
61662SOL    HW286884   8.547  11.554   5.650
61663SOL     OW86885   8.566   4.807   6.028
61663SOL    HW186886   8.528   4.779   6.111
61663SOL    HW286887   8.523   4.753   5.962
61664SOL     OW86888  10.023   4.859   0.968
61664SOL    HW186889  10.079   4.937   0.963
61664SOL    HW286890   9.942   4.891   1.008
61665SOL     OW86891  13.925  12.333   5.617
61665SOL    HW186892  13.834  12.313   5.638
61665SOL    HW286893  13.925  12.343   5.521
61666SOL     OW86894  11.186   1.188  14.524
61666SOL    HW186895  11.174   1.240  14.604
61666SOL    HW286896  11.108   1.207  14.472
61667SOL     OW86897   0.518   8.321   5.510
61667SOL    HW186898   0.511   8.258   5.439
61667SOL    HW286899   0.468   8.282   5.582
61668SOL     OW86900  11.361  11.866   4.255
61668SOL    HW186901  11.386  11.934   4.317
61668SOL    HW286902  11.328  11.794   4.310
61669SOL     OW86903   8.327   1.821  13.028
61669SOL    HW186904   8.348   1.742  12.979
61669SOL    HW286905   8.405   1.876  13.021
61670SOL     OW86906  13.056  12.036   3.546
61670SOL    HW186907  13.131  11.976   3.545
61670SOL    HW286908  13.055  12.075   3.459
61671SOL     OW86909   1.668   1.223  11.030
61671SOL    HW186910   1.674   1.271  10.947
61671SOL    HW286911   1.606   1.273  11.082
61672SOL     OW86912   7.377   3.687  10.381
61672SOL    HW186913   7.414   3.766  10.342
61672SOL    HW286914   7.298   3.717  10.425
61673SOL     OW86915   1.230   4.395   4.179
61673SOL    HW186916   1.164   4.442   4.127
61673SOL    HW286917   1.179   4.333   4.232
61674SOL     OW86918  10.212   0.920   1.486
61674SOL    HW186919  10.229   0.948   1.576
61674SOL    HW286920  10.286   0.864   1.464
61675SOL     OW86921  14.872   7.402   8.586
61675SOL    HW186922  14.878   7.334   8.518
61675SOL    HW286923  14.879   7.354   8.668
61676SOL     OW86924   0.799   0.970  12.224
61676SOL    HW186925   0.860   0.923  12.281
61676SOL    HW286926   0.796   1.058  12.261
61677SOL     OW86927   4.888  11.902   7.538
61677SOL    HW186928   4.793  11.888   7.543
61677SOL    HW286929   4.909  11.951   7.617
61678SOL     OW86930   1.841   9.520   4.540
61678SOL    HW186931   1.929   9.519   4.502
61678SOL    HW286932   1.802   9.437   4.514
61679SOL     OW86933  13.828   5.338  11.542
61679SOL    HW186934  13.876   5.318  11.461
61679SOL    HW286935  13.738   5.312  11.524
61680SOL     OW86936   2.611   0.299  12.452
61680SOL    HW186937   2.697   0.339  12.461
61680SOL    HW286938   2.589   0.308  12.360
61681SOL     OW86939   8.531   5.730   2.482
61681SOL    HW186940   8.523   5.671   2.407
61681SOL    HW286941   8.613   5.776   2.467
61682SOL     OW86942   4.596  10.147   4.065
61682SOL    HW186943   4.683  10.112   4.087
61682SOL    HW286944   4.601  10.165   3.971
61683SOL     OW86945  11.828   1.396   0.150
61683SOL    HW186946  11.745   1.371   0.192
61683SOL    HW286947  11.841   1.487   0.177
61684SOL     OW86948   4.510  14.311   0.279
61684SOL    HW186949   4.484  14.320   0.371
61684SOL    HW286950   4.457  14.375   0.232
61685SOL     OW86951   3.145  13.387   0.734
61685SOL    HW186952   3.213  13.377   0.667
61685SOL    HW286953   3.159  13.313   0.793
61686SOL     OW86954   4.847   2.412   7.483
61686SOL    HW186955   4.936   2.429   7.450
61686SOL    HW286956   4.825   2.325   7.451
61687SOL     OW86957   4.704   9.699   1.154
61687SOL    HW186958   4.665   9.785   1.140
61687SOL    HW286959   4.725   9.698   1.248
61688SOL     OW86960   9.503   1.415   2.289
61688SOL    HW186961   9.545   1.339   2.250
61688SOL    HW286962   9.568   1.450   2.350
61689SOL     OW86963  13.099   4.156  11.801
61689SOL    HW186964  13.165   4.218  11.771
61689SOL    HW286965  13.021   4.209  11.815
61690SOL     OW86966  13.728   3.538   1.684
61690SOL    HW186967  13.789   3.543   1.757
61690SOL    HW286968  13.642   3.555   1.723
61691SOL     OW86969   7.453  11.859  14.288
61691SOL    HW186970   7.445  11.869  14.194
61691SOL    HW286971   7.363  11.867  14.320
61692SOL     OW86972   4.304  10.314   6.844
61692SOL    HW186973   4.209  10.314   6.845
61692SOL    HW286974   4.329  10.395   6.889
61693SOL     OW86975   3.808   8.798  12.850
61693SOL    HW186976   3.802   8.790  12.946
61693SOL    HW286977   3.766   8.719  12.817
61694SOL     OW86978  10.681   3.372   9.196
61694SOL    HW186979  10.676   3.380   9.291
61694SOL    HW286980  10.713   3.458   9.167
61695SOL     OW86981   2.099  12.712   3.652
61695SOL    HW186982   2.098  12.660   3.732
61695SOL    HW286983   2.030  12.777   3.664
61696SOL     OW86984   5.100   6.041  12.049
61696SOL    HW186985   5.012   6.068  12.073
61696SOL    HW286986   5.096   6.028  11.954
61697SOL     OW86987  11.399   8.743  12.449
61697SOL    HW186988  11.341   8.766  12.521
61697SOL    HW286989  11.412   8.649  12.457
61698SOL     OW86990   5.830   2.369   0.735
61698SOL    HW186991   5.814   2.276   0.716
61698SOL    HW286992   5.919   2.385   0.703
61699SOL     OW86993  13.783   4.539   3.629
61699SOL    HW186994  13.766   4.464   3.686
61699SOL    HW286995  13.764   4.506   3.541
61700SOL     OW86996   7.651   2.756  14.159
61700SOL    HW186997   7.640   2.680  14.103
61700SOL    HW286998   7.621   2.830  14.106
61701SOL     OW86999  11.735  14.818  10.873
61701SOL    HW187000  11.827  14.794  10.871
61701SOL    HW287001  11.696  14.772  10.798
61702SOL     OW87002   6.601   0.055  14.105
61702SOL    HW187003   6.638   0.023  14.023
61702SOL    HW287004   6.660   0.125  14.132
61703SOL     OW87005   2.358   2.785   7.140
61703SOL    HW187006   2.379   2.870   7.102
61703SOL    HW287007   2.367   2.724   7.066
61704SOL     OW87008   2.224   4.004   9.626
61704SOL    HW187009   2.219   4.041   9.538
61704SOL    HW287010   2.238   4.080   9.683
61705SOL     OW87011  12.164   9.367  12.586
61705SOL    HW187012  12.250   9.323  12.588
61705SOL    HW287013  12.117   9.322  12.515
61706SOL     OW87014  12.641  12.315   1.545
61706SOL    HW187015  12.648  12.343   1.453
61706SOL    HW287016  12.561  12.356   1.576
61707SOL     OW87017   1.283   7.476   7.682
61707SOL    HW187018   1.323   7.554   7.721
61707SOL    HW287019   1.220   7.447   7.748
61708SOL     OW87020   0.119   6.188   2.133
61708SOL    HW187021   0.101   6.142   2.051
61708SOL    HW287022   0.121   6.280   2.110
61709SOL     OW87023   2.261   0.628   8.377
61709SOL    HW187024   2.293   0.717   8.363
61709SOL    HW287025   2.336   0.572   8.355
61710SOL     OW87026   8.179  14.099   9.914
61710SOL    HW187027   8.160  14.104   9.820
61710SOL    HW287028   8.250  14.161   9.927
61711SOL     OW87029   3.026  13.927  14.551
61711SOL    HW187030   2.980  13.870  14.489
61711SOL    HW287031   3.019  14.015  14.514
61712SOL     OW87032   8.357  10.873   6.567
61712SOL    HW187033   8.300  10.797   6.557
61712SOL    HW287034   8.369  10.881   6.661
61713SOL     OW87035  11.474  14.700   3.080
61713SOL    HW187036  11.545  14.751   3.120
61713SOL    HW287037  11.401  14.708   3.141
61714SOL     OW87038  13.439  10.620   1.845
61714SOL    HW187039  13.437  10.712   1.874
61714SOL    HW287040  13.527  10.607   1.812
61715SOL     OW87041   4.382   1.150  10.868
61715SOL    HW187042   4.459   1.094  10.873
61715SOL    HW287043   4.330   1.115  10.796
61716SOL     OW87044  11.241   0.789  11.768
61716SOL    HW187045  11.210   0.736  11.841
61716SOL    HW287046  11.185   0.763  11.694
61717SOL     OW87047   8.188  12.605  14.835
61717SOL    HW187048   8.199  12.694  14.801
61717SOL    HW287049   8.180  12.550  14.756
61718SOL     OW87050  14.878   3.710   3.195
61718SOL    HW187051  14.808   3.701   3.259
61718SOL    HW287052  14.864   3.638   3.134
61719SOL     OW87053   0.937  10.721  14.180
61719SOL    HW187054   0.957  10.752  14.092
61719SOL    HW287055   0.978  10.786  14.238
61720SOL     OW87056   3.407  10.682   7.818
61720SOL    HW187057   3.351  10.612   7.783
61720SOL    HW287058   3.420  10.658   7.910
61721SOL     OW87059  10.841   1.975   0.256
61721SOL    HW187060  10.788   1.904   0.220
61721SOL    HW287061  10.839   2.042   0.187
61722SOL     OW87062  14.019   3.558   7.397
61722SOL    HW187063  13.929   3.537   7.373
61722SOL    HW287064  14.049   3.483   7.447
61723SOL     OW87065   0.667   4.887   8.161
61723SOL    HW187066   0.668   4.980   8.140
61723SOL    HW287067   0.717   4.845   8.091
61724SOL     OW87068   5.257   1.650  11.193
61724SOL    HW187069   5.212   1.734  11.183
61724SOL    HW287070   5.192   1.593  11.233
61725SOL     OW87071   1.024   9.389   8.166
61725SOL    HW187072   1.092   9.350   8.111
61725SOL    HW287073   0.945   9.384   8.113
61726SOL     OW87074  14.553   9.777   5.915
61726SOL    HW187075  14.468   9.765   5.957
61726SOL    HW287076  14.571   9.694   5.872
61727SOL     OW87077  11.779   9.372  10.116
61727SOL    HW187078  11.762   9.289  10.072
61727SOL    HW287079  11.841   9.349  10.186
61728SOL     OW87080   6.247   8.414   0.869
61728SOL    HW187081   6.335   8.447   0.852
61728SOL    HW287082   6.260   8.343   0.931
61729SOL     OW87083  13.298   3.304   6.280
61729SOL    HW187084  13.322   3.387   6.322
61729SOL    HW287085  13.378   3.252   6.285
61730SOL     OW87086  11.789   7.835   5.613
61730SOL    HW187087  11.728   7.908   5.626
61730SOL    HW287088  11.824   7.816   5.700
61731SOL     OW87089  12.274  13.305   9.690
61731SOL    HW187090  12.329  13.374   9.654
61731SOL    HW287091  12.336  13.241   9.726
61732SOL     OW87092   7.957  13.794  11.853
61732SOL    HW187093   7.902  13.841  11.791
61732SOL    HW287094   7.947  13.702  11.829
61733SOL     OW87095   8.356   4.807  12.374
61733SOL    HW187096   8.404   4.726  12.355
61733SOL    HW287097   8.264   4.784  12.363
61734SOL     OW87098  10.383   1.014   4.524
61734SOL    HW187099  10.327   1.035   4.599
61734SOL    HW287100  10.372   0.920   4.513
61735SOL     OW87101   0.118   5.718   9.478
61735SOL    HW187102   0.077   5.644   9.523
61735SOL    HW287103   0.192   5.742   9.534
61736SOL     OW87104   4.995   7.080   9.842
61736SOL    HW187105   5.032   7.065   9.754
61736SOL    HW287106   4.932   7.008   9.854
61737SOL     OW87107   3.670   4.615  11.992
61737SOL    HW187108   3.680   4.680  11.922
61737SOL    HW287109   3.606   4.552  11.958
61738SOL     OW87110  12.349  12.828   3.487
61738SOL    HW187111  12.355  12.740   3.523
61738SOL    HW287112  12.271  12.827   3.432
61739SOL     OW87113   8.509   7.430  10.575
61739SOL    HW187114   8.470   7.345  10.590
61739SOL    HW287115   8.472   7.486  10.643
61740SOL     OW87116  12.624   9.025   9.204
61740SOL    HW187117  12.594   8.935   9.189
61740SOL    HW287118  12.693   9.017   9.269
61741SOL     OW87119   4.486  14.095  10.393
61741SOL    HW187120   4.530  14.057  10.317
61741SOL    HW287121   4.519  14.185  10.396
61742SOL     OW87122   5.090   8.956   5.048
61742SOL    HW187123   5.020   8.890   5.041
61742SOL    HW287124   5.165   8.908   5.081
61743SOL     OW87125  14.109  13.077  10.279
61743SOL    HW187126  14.019  13.071  10.246
61743SOL    HW287127  14.100  13.067  10.374
61744SOL     OW87128  12.525   7.881   8.728
61744SOL    HW187129  12.565   7.861   8.644
61744SOL    HW287130  12.431   7.882   8.710
61745SOL     OW87131   7.991   1.014  14.321
61745SOL    HW187132   8.026   1.045  14.404
61745SOL    HW287133   8.066   1.016  14.261
61746SOL     OW87134   6.805   2.277   9.641
61746SOL    HW187135   6.841   2.365   9.633
61746SOL    HW287136   6.735   2.285   9.706
61747SOL     OW87137   3.004   2.205   5.639
61747SOL    HW187138   2.928   2.252   5.603
61747SOL    HW287139   2.967   2.123   5.673
61748SOL     OW87140   5.571   6.541   4.353
61748SOL    HW187141   5.622   6.579   4.425
61748SOL    HW287142   5.559   6.613   4.292
61749SOL     OW87143   0.046   6.824   5.234
61749SOL    HW187144   0.056   6.863   5.320
61749SOL    HW287145  14.831   6.823   5.219
61750SOL     OW87146   6.574   8.062   7.652
61750SOL    HW187147   6.555   7.995   7.718
61750SOL    HW287148   6.491   8.108   7.640
61751SOL     OW87149   4.226   5.370   5.983
61751SOL    HW187150   4.248   5.324   6.064
61751SOL    HW287151   4.136   5.401   5.996
61752SOL     OW87152   0.393   0.185   8.594
61752SOL    HW187153   0.417   0.152   8.680
61752SOL    HW287154   0.403   0.110   8.535
61753SOL     OW87155   4.416   7.631   8.867
61753SOL    HW187156   4.447   7.541   8.862
61753SOL    HW287157   4.326   7.627   8.836
61754SOL     OW87158   0.062   7.015  10.384
61754SOL    HW187159  14.873   7.013  10.318
61754SOL    HW287160   0.115   6.937  10.366
61755SOL     OW87161   8.180  13.576  12.566
61755SOL    HW187162   8.195  13.519  12.641
61755SOL    HW287163   8.098  13.545  12.529
61756SOL     OW87164   8.558   3.250   4.898
61756SOL    HW187165   8.652   3.239   4.911
61756SOL    HW287166   8.545   3.345   4.895
61757SOL     OW87167   0.616   6.982  12.984
61757SOL    HW187168   0.667   6.913  12.942
61757SOL    HW287169   0.528   6.945  12.990
61758SOL     OW87170  13.727   2.045  10.188
61758SOL    HW187171  13.668   2.117  10.209
61758SOL    HW287172  13.806   2.087  10.154
61759SOL     OW87173   3.063   8.858   2.847
61759SOL    HW187174   2.991   8.921   2.845
61759SOL    HW287175   3.126   8.895   2.908
61760SOL     OW87176   6.593   4.505   4.869
61760SOL    HW187177   6.542   4.446   4.924
61760SOL    HW287178   6.622   4.574   4.929
61761SOL     OW87179   1.023  14.115  10.851
61761SOL    HW187180   0.951  14.072  10.897
61761SOL    HW287181   1.044  14.191  10.905
61762SOL     OW87182   6.313   6.247   3.337
61762SOL    HW187183   6.362   6.321   3.373
61762SOL    HW287184   6.222   6.265   3.360
61763SOL     OW87185   8.058   7.942   7.475
61763SOL    HW187186   8.003   7.966   7.401
61763SOL    HW287187   8.122   7.881   7.438
61764SOL     OW87188  10.801   0.329  13.179
61764SOL    HW187189  10.886   0.331  13.224
61764SOL    HW287190  10.804   0.249  13.126
61765SOL     OW87191  13.562   1.752  10.828
61765SOL    HW187192  13.536   1.823  10.769
61765SOL    HW287193  13.602   1.797  10.903
61766SOL     OW87194   8.394   3.988   3.034
61766SOL    HW187195   8.368   3.916   2.978
61766SOL    HW287196   8.356   3.967   3.120
61767SOL     OW87197   8.536   3.497  10.705
61767SOL    HW187198   8.598   3.531  10.640
61767SOL    HW287199   8.506   3.414  10.668
61768SOL     OW87200  14.738  14.604   2.057
61768SOL    HW187201  14.674  14.627   1.989
61768SOL    HW287202  14.715  14.515   2.082
61769SOL     OW87203  14.237   2.447   9.974
61769SOL    HW187204  14.287   2.514   9.928
61769SOL    HW287205  14.232   2.478  10.064
61770SOL     OW87206   0.554   3.323  10.441
61770SOL    HW187207   0.531   3.232  10.424
61770SOL    HW287208   0.630   3.339  10.385
61771SOL     OW87209   6.913   2.933  12.189
61771SOL    HW187210   6.872   2.856  12.227
61771SOL    HW287211   6.961   2.900  12.113
61772SOL     OW87212   2.972   1.999   9.923
61772SOL    HW187213   2.990   2.063   9.855
61772SOL    HW287214   3.041   2.015   9.989
61773SOL     OW87215   0.797   8.774   9.446
61773SOL    HW187216   0.769   8.702   9.503
61773SOL    HW287217   0.879   8.745   9.408
61774SOL     OW87218   8.364  10.205   1.158
61774SOL    HW187219   8.291  10.157   1.117
61774SOL    HW287220   8.388  10.151   1.233
61775SOL     OW87221   8.465   8.931   5.336
61775SOL    HW187222   8.442   8.872   5.408
61775SOL    HW287223   8.516   9.001   5.377
61776SOL     OW87224   9.702   8.736  14.761
61776SOL    HW187225   9.650   8.668  14.804
61776SOL    HW287226   9.666   8.742  14.672
61777SOL     OW87227   6.648   2.393   5.483
61777SOL    HW187228   6.613   2.304   5.479
61777SOL    HW287229   6.599   2.435   5.553
61778SOL     OW87230   6.639   6.939  14.465
61778SOL    HW187231   6.610   7.030  14.455
61778SOL    HW287232   6.728   6.938  14.431
61779SOL     OW87233   5.305  13.297  11.149
61779SOL    HW187234   5.354  13.378  11.161
61779SOL    HW287235   5.241  13.318  11.080
61780SOL     OW87236  10.126   4.224  10.993
61780SOL    HW187237  10.221   4.222  10.989
61780SOL    HW287238  10.099   4.231  10.901
61781SOL     OW87239  14.583   8.504  13.429
61781SOL    HW187240  14.606   8.454  13.351
61781SOL    HW287241  14.543   8.440  13.488
61782SOL     OW87242   8.076  10.877   4.874
61782SOL    HW187243   8.046  10.815   4.940
61782SOL    HW287244   8.145  10.927   4.917
61783SOL     OW87245  14.385   6.256  10.052
61783SOL    HW187246  14.477   6.262  10.028
61783SOL    HW287247  14.342   6.325  10.001
61784SOL     OW87248  10.416   4.778  10.486
61784SOL    HW187249  10.330   4.777  10.443
61784SOL    HW287250  10.455   4.695  10.460
61785SOL     OW87251  12.215   4.544  10.302
61785SOL    HW187252  12.297   4.498  10.320
61785SOL    HW287253  12.182   4.503  10.222
61786SOL     OW87254   8.528   3.925   9.426
61786SOL    HW187255   8.473   3.937   9.349
61786SOL    HW287256   8.466   3.907   9.497
61787SOL     OW87257   0.961  11.125   2.060
61787SOL    HW187258   1.055  11.117   2.045
61787SOL    HW287259   0.934  11.039   2.091
61788SOL     OW87260  14.566   7.838   7.339
61788SOL    HW187261  14.649   7.790   7.336
61788SOL    HW287262  14.558   7.877   7.252
61789SOL     OW87263  11.014   1.827   6.705
61789SOL    HW187264  10.973   1.751   6.746
61789SOL    HW287265  11.095   1.840   6.754
61790SOL     OW87266   2.509   8.638  10.163
61790SOL    HW187267   2.590   8.674  10.199
61790SOL    HW287268   2.454   8.715  10.148
61791SOL     OW87269   0.045   8.720   7.535
61791SOL    HW187270   0.120   8.760   7.578
61791SOL    HW287271  14.851   8.777   7.556
61792SOL     OW87272   3.870   4.579   0.941
61792SOL    HW187273   3.863   4.666   0.902
61792SOL    HW287274   3.850   4.518   0.870
61793SOL     OW87275   2.663   2.580   2.003
61793SOL    HW187276   2.742   2.614   2.043
61793SOL    HW287277   2.649   2.635   1.925
61794SOL     OW87278   4.507  12.473  14.121
61794SOL    HW187279   4.514  12.528  14.199
61794SOL    HW287280   4.593  12.478  14.080
61795SOL     OW87281  11.339   4.102   5.863
61795SOL    HW187282  11.331   4.196   5.878
61795SOL    HW287283  11.428   4.090   5.831
61796SOL     OW87284  12.909  11.626   0.969
61796SOL    HW187285  12.928  11.579   0.888
61796SOL    HW287286  12.825  11.669   0.953
61797SOL     OW87287  12.532  11.259   8.033
61797SOL    HW187288  12.509  11.199   8.104
61797SOL    HW287289  12.545  11.202   7.957
61798SOL     OW87290   5.888  10.890   3.170
61798SOL    HW187291   5.932  10.889   3.085
61798SOL    HW287292   5.808  10.939   3.155
61799SOL     OW87293  12.059   4.106   6.878
61799SOL    HW187294  12.100   4.179   6.831
61799SOL    HW287295  12.027   4.048   6.809
61800SOL     OW87296   8.481  11.443   8.567
61800SOL    HW187297   8.437  11.490   8.638
61800SOL    HW287298   8.435  11.360   8.561
61801SOL     OW87299  10.821   2.589   5.847
61801SOL    HW187300  10.807   2.497   5.871
61801SOL    HW287301  10.733   2.622   5.828
61802SOL     OW87302  13.302   1.859  11.665
61802SOL    HW187303  13.242   1.851  11.591
61802SOL    HW287304  13.285   1.781  11.718
61803SOL     OW87305   2.298   6.379   0.301
61803SOL    HW187306   2.286   6.462   0.348
61803SOL    HW287307   2.315   6.315   0.371
61804SOL     OW87308   7.888   2.455   1.569
61804SOL    HW187309   7.965   2.454   1.626
61804SOL    HW287310   7.888   2.542   1.529
61805SOL     OW87311  12.351   1.682  14.783
61805SOL    HW187312  12.268   1.635  14.792
61805SOL    HW287313  12.411   1.637  14.841
61806SOL     OW87314   0.031  11.221   3.567
61806SOL    HW187315  14.845  11.201   3.634
61806SOL    HW287316   0.017  11.155   3.499
61807SOL     OW87317   6.542   2.130  10.855
61807SOL    HW187318   6.568   2.222  10.847
61807SOL    HW287319   6.496   2.111  10.773
61808SOL     OW87320   1.808  12.845   2.528
61808SOL    HW187321   1.816  12.862   2.434
61808SOL    HW287322   1.729  12.892   2.555
61809SOL     OW87323   1.383   8.622   1.047
61809SOL    HW187324   1.457   8.577   1.005
61809SOL    HW287325   1.316   8.554   1.057
61810SOL     OW87326   6.791   1.869  12.297
61810SOL    HW187327   6.851   1.837  12.365
61810SOL    HW287328   6.754   1.789  12.259
61811SOL     OW87329   4.598   5.542   9.713
61811SOL    HW187330   4.579   5.548   9.620
61811SOL    HW287331   4.519   5.575   9.757
61812SOL     OW87332   6.014   1.993  10.678
61812SOL    HW187333   5.993   2.030  10.764
61812SOL    HW287334   6.094   1.942  10.693
61813SOL     OW87335   6.023   9.520  11.358
61813SOL    HW187336   6.026   9.433  11.319
61813SOL    HW287337   6.065   9.510  11.443
61814SOL     OW87338  11.249  14.515  14.045
61814SOL    HW187339  11.260  14.441  13.984
61814SOL    HW287340  11.155  14.531  14.045
61815SOL     OW87341   7.968   9.284   3.205
61815SOL    HW187342   7.916   9.213   3.244
61815SOL    HW287343   7.984   9.256   3.115
61816SOL     OW87344   2.677   1.080   7.491
61816SOL    HW187345   2.693   1.100   7.398
61816SOL    HW287346   2.743   1.130   7.538
61817SOL     OW87347  10.597  12.072   8.927
61817SOL    HW187348  10.564  12.016   8.998
61817SOL    HW287349  10.577  12.022   8.848
61818SOL     OW87350   1.660  10.903   4.555
61818SOL    HW187351   1.564  10.908   4.563
61818SOL    HW287352   1.676  10.897   4.461
61819SOL     OW87353   1.230   1.320   7.449
61819SOL    HW187354   1.173   1.244   7.464
61819SOL    HW287355   1.182   1.374   7.386
61820SOL     OW87356   0.348   4.516   7.059
61820SOL    HW187357   0.415   4.456   7.091
61820SOL    HW287358   0.363   4.521   6.964
61821SOL     OW87359   0.645  12.171   1.938
61821SOL    HW187360   0.631  12.265   1.922
61821SOL    HW287361   0.682  12.167   2.026
61822SOL     OW87362  13.700  14.245  11.549
61822SOL    HW187363  13.762  14.184  11.589
61822SOL    HW287364  13.692  14.315  11.614
61823SOL     OW87365   0.324   8.591   7.316
61823SOL    HW187366   0.395   8.635   7.365
61823SOL    HW287367   0.336   8.498   7.335
61824SOL     OW87368  13.422   4.264   8.182
61824SOL    HW187369  13.477   4.195   8.219
61824SOL    HW287370  13.392   4.314   8.257
61825SOL     OW87371   3.735  10.050  12.518
61825SOL    HW187372   3.742  10.028  12.425
61825SOL    HW287373   3.808  10.110  12.534
61826SOL     OW87374  10.020  10.702   8.704
61826SOL    HW187375  10.095  10.681   8.648
61826SOL    HW287376   9.954  10.736   8.644
61827SOL     OW87377   4.406  12.466   9.725
61827SOL    HW187378   4.419  12.384   9.678
61827SOL    HW287379   4.313  12.484   9.717
61828SOL     OW87380  13.910   5.993  13.196
61828SOL    HW187381  13.999   6.024  13.178
61828SOL    HW287382  13.861   6.073  13.217
61829SOL     OW87383   4.809   3.677  12.203
61829SOL    HW187384   4.715   3.661  12.206
61829SOL    HW287385   4.848   3.590  12.202
61830SOL     OW87386   4.578  10.099   7.262
61830SOL    HW187387   4.546  10.066   7.347
61830SOL    HW287388   4.673  10.094   7.268
61831SOL     OW87389   6.117   4.668   4.477
61831SOL    HW187390   6.079   4.746   4.437
61831SOL    HW287391   6.130   4.692   4.569
61832SOL     OW87392  13.507   0.636   2.905
61832SOL    HW187393  13.530   0.552   2.866
61832SOL    HW287394  13.569   0.647   2.977
61833SOL     OW87395   6.878  10.473   2.257
61833SOL    HW187396   6.943  10.524   2.210
61833SOL    HW287397   6.916  10.385   2.262
61834SOL     OW87398  13.115   5.427   7.321
61834SOL    HW187399  13.044   5.382   7.367
61834SOL    HW287400  13.195   5.390   7.360
61835SOL     OW87401  13.206   5.940   7.069
61835SOL    HW187402  13.286   5.985   7.040
61835SOL    HW287403  13.210   5.854   7.027
61836SOL     OW87404  10.974   9.507   6.330
61836SOL    HW187405  11.044   9.561   6.294
61836SOL    HW287406  10.903   9.569   6.350
61837SOL     OW87407   3.220   9.487   4.629
61837SOL    HW187408   3.247   9.558   4.571
61837SOL    HW287409   3.146   9.524   4.678
61838SOL     OW87410   8.576  13.460  11.043
61838SOL    HW187411   8.537  13.377  11.015
61838SOL    HW287412   8.504  13.509  11.082
61839SOL     OW87413   5.440  13.155  10.348
61839SOL    HW187414   5.376  13.108  10.403
61839SOL    HW287415   5.492  13.206  10.410
61840SOL     OW87416   5.881   3.938  11.044
61840SOL    HW187417   5.897   3.959  10.952
61840SOL    HW287418   5.828   4.010  11.076
61841SOL     OW87419   1.583   0.688  10.150
61841SOL    HW187420   1.501   0.712  10.193
61841SOL    HW287421   1.651   0.715  10.211
61842SOL     OW87422   1.114   0.174  14.187
61842SOL    HW187423   1.114   0.270  14.192
61842SOL    HW287424   1.151   0.154  14.102
61843SOL     OW87425   9.425   4.537   7.824
61843SOL    HW187426   9.342   4.507   7.787
61843SOL    HW287427   9.402   4.615   7.875
61844SOL     OW87428   3.652   8.192   5.241
61844SOL    HW187429   3.711   8.127   5.278
61844SOL    HW287430   3.687   8.212   5.154
61845SOL     OW87431   4.165  12.764  14.334
61845SOL    HW187432   4.154  12.670  14.319
61845SOL    HW287433   4.234  12.770  14.400
61846SOL     OW87434   2.181   7.141  10.020
61846SOL    HW187435   2.115   7.152  10.088
61846SOL    HW287436   2.196   7.229   9.986
61847SOL     OW87437   2.852   4.854   1.797
61847SOL    HW187438   2.881   4.854   1.888
61847SOL    HW287439   2.900   4.927   1.757
61848SOL     OW87440   1.196  10.303   6.063
61848SOL    HW187441   1.180  10.322   5.971
61848SOL    HW287442   1.291  10.290   6.069
61849SOL     OW87443   6.872  11.134   4.732
61849SOL    HW187444   6.939  11.074   4.763
61849SOL    HW287445   6.872  11.124   4.637
61850SOL     OW87446  14.799   4.703   0.993
61850SOL    HW187447  14.824   4.726   0.904
61850SOL    HW287448  14.878   4.717   1.045
61851SOL     OW87449  14.130  13.689   0.880
61851SOL    HW187450  14.083  13.720   0.803
61851SOL    HW287451  14.176  13.611   0.851
61852SOL     OW87452  10.221  12.148   6.768
61852SOL    HW187453  10.199  12.071   6.820
61852SOL    HW287454  10.193  12.126   6.679
61853SOL     OW87455   6.518  13.597  13.142
61853SOL    HW187456   6.486  13.585  13.232
61853SOL    HW287457   6.555  13.512  13.119
61854SOL     OW87458  12.018  14.647   1.832
61854SOL    HW187459  11.990  14.737   1.815
61854SOL    HW287460  12.112  14.653   1.847
61855SOL     OW87461   6.056  13.242   7.010
61855SOL    HW187462   5.982  13.205   6.963
61855SOL    HW287463   6.049  13.206   7.098
61856SOL     OW87464   0.355   0.593   3.759
61856SOL    HW187465   0.339   0.517   3.815
61856SOL    HW287466   0.294   0.659   3.791
61857SOL     OW87467  10.778   5.602   0.998
61857SOL    HW187468  10.811   5.555   0.921
61857SOL    HW287469  10.691   5.566   1.013
61858SOL     OW87470   5.783  14.842   8.654
61858SOL    HW187471   5.712   0.015   8.619
61858SOL    HW287472   5.806   0.004   8.737
61859SOL     OW87473   6.805  11.655   2.351
61859SOL    HW187474   6.765  11.573   2.321
61859SOL    HW287475   6.736  11.721   2.340
61860SOL     OW87476   7.942   1.009   2.650
61860SOL    HW187477   7.994   1.026   2.572
61860SOL    HW287478   7.887   1.086   2.660
61861SOL     OW87479   9.600   2.837   8.242
61861SOL    HW187480   9.637   2.832   8.154
61861SOL    HW287481   9.538   2.910   8.238
61862SOL     OW87482   8.648   5.247   8.066
61862SOL    HW187483   8.630   5.209   7.980
61862SOL    HW287484   8.704   5.182   8.110
61863SOL     OW87485   5.236  10.600   0.507
61863SOL    HW187486   5.329  10.592   0.524
61863SOL    HW287487   5.196  10.525   0.551
61864SOL     OW87488  14.111   9.107   8.900
61864SOL    HW187489  14.104   9.165   8.975
61864SOL    HW287490  14.154   9.028   8.933
61865SOL     OW87491  12.625  12.882   2.254
61865SOL    HW187492  12.558  12.851   2.315
61865SOL    HW287493  12.576  12.906   2.175
61866SOL     OW87494   3.485  14.675   8.281
61866SOL    HW187495   3.470  14.700   8.189
61866SOL    HW287496   3.420  14.724   8.330
61867SOL     OW87497  14.708   1.992   5.558
61867SOL    HW187498  14.787   1.986   5.503
61867SOL    HW287499  14.649   2.049   5.509
61868SOL     OW87500   9.832   6.603  13.327
61868SOL    HW187501   9.853   6.524  13.277
61868SOL    HW287502   9.784   6.571  13.403
61869SOL     OW87503   9.982   5.688   9.168
61869SOL    HW187504   9.990   5.637   9.249
61869SOL    HW287505  10.006   5.777   9.194
61870SOL     OW87506  10.385  11.570   1.906
61870SOL    HW187507  10.347  11.526   1.981
61870SOL    HW287508  10.468  11.604   1.938
61871SOL     OW87509   9.894  14.619   5.555
61871SOL    HW187510   9.939  14.691   5.600
61871SOL    HW287511   9.822  14.596   5.614
61872SOL     OW87512   6.787   2.339  14.101
61872SOL    HW187513   6.743   2.419  14.129
61872SOL    HW287514   6.862   2.332  14.160
61873SOL     OW87515   6.433   4.070   5.907
61873SOL    HW187516   6.434   4.143   5.970
61873SOL    HW287517   6.340   4.048   5.897
61874SOL     OW87518  11.176  11.684   3.215
61874SOL    HW187519  11.224  11.607   3.185
61874SOL    HW287520  11.218  11.708   3.298
61875SOL     OW87521   3.372  12.442   4.451
61875SOL    HW187522   3.287  12.470   4.417
61875SOL    HW287523   3.422  12.523   4.461
61876SOL     OW87524  14.865  11.744   5.785
61876SOL    HW187525  14.828  11.713   5.868
61876SOL    HW287526  14.791  11.784   5.739
61877SOL     OW87527  12.628   6.925  14.413
61877SOL    HW187528  12.621   6.927  14.509
61877SOL    HW287529  12.677   6.845  14.394
61878SOL     OW87530   2.073   3.264   3.550
61878SOL    HW187531   2.041   3.264   3.641
61878SOL    HW287532   2.106   3.353   3.537
61879SOL     OW87533   6.879  10.158  11.930
61879SOL    HW187534   6.792  10.119  11.943
61879SOL    HW287535   6.866  10.221  11.860
61880SOL     OW87536   5.039   2.051   8.487
61880SOL    HW187537   5.127   2.012   8.491
61880SOL    HW287538   5.026   2.089   8.574
61881SOL     OW87539   8.632  11.651  14.543
61881SOL    HW187540   8.581  11.717  14.589
61881SOL    HW287541   8.584  11.636  14.462
61882SOL     OW87542   2.554   9.396   2.457
61882SOL    HW187543   2.581   9.359   2.373
61882SOL    HW287544   2.458   9.399   2.452
61883SOL     OW87545  11.696  10.605  12.876
61883SOL    HW187546  11.658  10.592  12.963
61883SOL    HW287547  11.663  10.691  12.849
61884SOL     OW87548  11.687   8.882   7.888
61884SOL    HW187549  11.667   8.958   7.944
61884SOL    HW287550  11.769   8.848   7.923
61885SOL     OW87551  10.005   6.661  12.790
61885SOL    HW187552  10.020   6.710  12.871
61885SOL    HW287553   9.928   6.608  12.808
61886SOL     OW87554   5.845  14.598  14.307
61886SOL    HW187555   5.923  14.635  14.348
61886SOL    HW287556   5.826  14.519  14.357
61887SOL     OW87557  10.955   1.429   7.275
61887SOL    HW187558  10.946   1.363   7.344
61887SOL    HW287559  10.865   1.455   7.254
61888SOL     OW87560   1.609  12.437   2.228
61888SOL    HW187561   1.592  12.374   2.158
61888SOL    HW287562   1.522  12.456   2.264
61889SOL     OW87563   5.104  14.673  12.381
61889SOL    HW187564   5.091  14.672  12.476
61889SOL    HW287565   5.199  14.675  12.370
61890SOL     OW87566   4.950   3.457   9.755
61890SOL    HW187567   5.017   3.524   9.755
61890SOL    HW287568   4.883   3.490   9.815
61891SOL     OW87569   3.793   5.759  10.976
61891SOL    HW187570   3.745   5.823  11.028
61891SOL    HW287571   3.823   5.809  10.899
61892SOL     OW87572   8.609   8.640   8.810
61892SOL    HW187573   8.571   8.666   8.893
61892SOL    HW287574   8.703   8.659   8.819
61893SOL     OW87575  12.632  12.160   3.545
61893SOL    HW187576  12.589  12.245   3.538
61893SOL    HW287577  12.573  12.108   3.601
61894SOL     OW87578   8.567  10.118   0.434
61894SOL    HW187579   8.535  10.078   0.515
61894SOL    HW287580   8.659  10.091   0.428
61895SOL     OW87581  14.229   2.637  13.216
61895SOL    HW187582  14.163   2.570  13.197
61895SOL    HW287583  14.185   2.697  13.276
61896SOL     OW87584  12.757   9.435  11.862
61896SOL    HW187585  12.741   9.516  11.909
61896SOL    HW287586  12.773   9.370  11.930
61897SOL     OW87587   0.682  13.357   0.702
61897SOL    HW187588   0.607  13.416   0.705
61897SOL    HW287589   0.714  13.363   0.612
61898SOL     OW87590   2.466   8.502   5.736
61898SOL    HW187591   2.488   8.559   5.662
61898SOL    HW287592   2.378   8.470   5.716
61899SOL     OW87593  14.103  11.227   4.663
61899SOL    HW187594  14.096  11.298   4.727
61899SOL    HW287595  14.166  11.166   4.703
61900SOL     OW87596  12.060   7.365   1.186
61900SOL    HW187597  12.030   7.456   1.181
61900SOL    HW287598  12.155   7.372   1.193
61901SOL     OW87599   6.128   2.614   9.887
61901SOL    HW187600   6.119   2.675   9.814
61901SOL    HW287601   6.054   2.555   9.878
61902SOL     OW87602   0.815  14.295   5.527
61902SOL    HW187603   0.902  14.255   5.523
61902SOL    HW287604   0.757  14.231   5.486
61903SOL     OW87605   5.662   4.118   6.796
61903SOL    HW187606   5.703   4.066   6.866
61903SOL    HW287607   5.727   4.184   6.774
61904SOL     OW87608   5.640   9.638   3.352
61904SOL    HW187609   5.700   9.573   3.388
61904SOL    HW287610   5.553   9.602   3.369
61905SOL     OW87611  14.369  12.488   1.477
61905SOL    HW187612  14.423  12.484   1.555
61905SOL    HW287613  14.432  12.491   1.404
61906SOL     OW87614   0.991   3.475  13.256
61906SOL    HW187615   1.033   3.529  13.323
61906SOL    HW287616   0.973   3.392  13.300
61907SOL     OW87617   6.138   0.684  14.350
61907SOL    HW187618   6.224   0.648  14.368
61907SOL    HW287619   6.123   0.747  14.421
61908SOL     OW87620  14.311   7.822   6.809
61908SOL    HW187621  14.350   7.905   6.780
61908SOL    HW287622  14.288   7.777   6.727
61909SOL     OW87623  13.883   6.801   2.828
61909SOL    HW187624  13.969   6.760   2.837
61909SOL    HW287625  13.897   6.872   2.765
61910SOL     OW87626   0.965  11.109   3.913
61910SOL    HW187627   1.036  11.095   3.851
61910SOL    HW287628   0.929  11.195   3.890
61911SOL     OW87629   2.285   9.295   5.800
61911SOL    HW187630   2.196   9.310   5.833
61911SOL    HW287631   2.333   9.374   5.826
61912SOL     OW87632  10.553   0.100   8.945
61912SOL    HW187633  10.643   0.070   8.954
61912SOL    HW287634  10.550   0.141   8.858
61913SOL     OW87635   7.637   9.527   2.451
61913SOL    HW187636   7.590   9.611   2.452
61913SOL    HW287637   7.703   9.537   2.383
61914SOL     OW87638  14.714   7.267  13.487
61914SOL    HW187639  14.717   7.253  13.392
61914SOL    HW287640  14.764   7.347  13.500
61915SOL     OW87641   2.503  12.154   9.941
61915SOL    HW187642   2.422  12.204   9.954
61915SOL    HW287643   2.508  12.096  10.016
61916SOL     OW87644   2.563  14.281   6.608
61916SOL    HW187645   2.582  14.375   6.614
61916SOL    HW287646   2.538  14.256   6.697
61917SOL     OW87647  11.931   1.681   2.920
61917SOL    HW187648  11.949   1.610   2.981
61917SOL    HW287649  11.835   1.683   2.913
61918SOL     OW87650   9.001   9.193   9.099
61918SOL    HW187651   9.064   9.225   9.034
61918SOL    HW287652   8.975   9.107   9.066
61919SOL     OW87653  13.598   7.706   9.522
61919SOL    HW187654  13.560   7.759   9.592
61919SOL    HW287655  13.562   7.618   9.535
61920SOL     OW87656   3.323   1.470  14.676
61920SOL    HW187657   3.367   1.518  14.746
61920SOL    HW287658   3.276   1.399  14.721
61921SOL     OW87659   5.592   2.293   4.526
61921SOL    HW187660   5.552   2.376   4.552
61921SOL    HW287661   5.537   2.262   4.454
61922SOL     OW87662   1.810   9.132   3.178
61922SOL    HW187663   1.904   9.117   3.190
61922SOL    HW287664   1.804   9.178   3.094
61923SOL     OW87665  12.419   9.553  14.674
61923SOL    HW187666  12.502   9.570  14.629
61923SOL    HW287667  12.442   9.492  14.744
61924SOL     OW87668   0.693   5.689   0.706
61924SOL    HW187669   0.784   5.658   0.698
61924SOL    HW287670   0.680   5.746   0.631
61925SOL     OW87671   9.904  14.106   2.087
61925SOL    HW187672   9.920  14.015   2.111
61925SOL    HW287673   9.910  14.154   2.170
61926SOL     OW87674  12.853   8.426   7.322
61926SOL    HW187675  12.929   8.450   7.270
61926SOL    HW287676  12.782   8.480   7.287
61927SOL     OW87677  11.620   7.006  11.724
61927SOL    HW187678  11.703   7.031  11.765
61927SOL    HW287679  11.621   6.910  11.726
61928SOL     OW87680   7.639   5.756   7.823
61928SOL    HW187681   7.679   5.708   7.895
61928SOL    HW287682   7.667   5.847   7.836
61929SOL     OW87683  14.710  11.923   5.637
61929SOL    HW187684  14.644  11.954   5.575
61929SOL    HW287685  14.766  11.864   5.585
61930SOL     OW87686   3.644   3.479   0.095
61930SOL    HW187687   3.573   3.543   0.104
61930SOL    HW287688   3.614   3.404   0.146
61931SOL     OW87689   9.429   8.060   6.472
61931SOL    HW187690   9.483   8.090   6.399
61931SOL    HW287691   9.484   7.997   6.518
61932SOL     OW87692   1.354   2.061   2.680
61932SOL    HW187693   1.355   2.064   2.776
61932SOL    HW287694   1.416   1.992   2.658
61933SOL     OW87695   1.897  10.195   8.386
61933SOL    HW187696   1.857  10.267   8.336
61933SOL    HW287697   1.849  10.193   8.469
61934SOL     OW87698   2.551  10.513   6.652
61934SOL    HW187699   2.619  10.580   6.659
61934SOL    HW287700   2.569  10.452   6.722
61935SOL     OW87701   5.517   2.596  10.879
61935SOL    HW187702   5.461   2.643  10.940
61935SOL    HW287703   5.595   2.651  10.870
61936SOL     OW87704   2.106   5.480  14.256
61936SOL    HW187705   2.103   5.404  14.197
61936SOL    HW287706   2.114   5.441  14.343
61937SOL     OW87707   7.024  10.412   4.887
61937SOL    HW187708   6.959  10.455   4.942
61937SOL    HW287709   6.988  10.324   4.872
61938SOL     OW87710  12.354   4.276   5.939
61938SOL    HW187711  12.335   4.217   6.012
61938SOL    HW287712  12.273   4.327   5.929
61939SOL     OW87713  11.690  10.041   0.055
61939SOL    HW187714  11.644  10.111   0.101
61939SOL    HW287715  11.781  10.048   0.084
61940SOL     OW87716   5.499   8.805   9.922
61940SOL    HW187717   5.468   8.861   9.851
61940SOL    HW287718   5.468   8.848  10.002
61941SOL     OW87719  10.033   0.412   6.111
61941SOL    HW187720  10.080   0.472   6.168
61941SOL    HW287721   9.970   0.467   6.065
61942SOL     OW87722   8.685   5.563  13.998
61942SOL    HW187723   8.653   5.474  14.016
61942SOL    HW287724   8.778   5.551  13.978
61943SOL     OW87725   1.324   8.793   4.989
61943SOL    HW187726   1.295   8.836   4.908
61943SOL    HW287727   1.269   8.832   5.057
61944SOL     OW87728   9.895   0.307   8.586
61944SOL    HW187729   9.894   0.388   8.637
61944SOL    HW287730   9.954   0.325   8.513
61945SOL     OW87731  12.342  11.940   0.204
61945SOL    HW187732  12.350  12.034   0.187
61945SOL    HW287733  12.261  11.930   0.254
61946SOL     OW87734   5.542   0.953   6.435
61946SOL    HW187735   5.475   0.961   6.367
61946SOL    HW287736   5.494   0.949   6.517
61947SOL     OW87737   2.928   8.511   1.891
61947SOL    HW187738   2.943   8.500   1.984
61947SOL    HW287739   2.836   8.487   1.878
61948SOL     OW87740   0.771  10.283   0.713
61948SOL    HW187741   0.685  10.286   0.671
61948SOL    HW287742   0.753  10.252   0.802
61949SOL     OW87743   6.865   3.119  13.125
61949SOL    HW187744   6.894   3.204  13.159
61949SOL    HW287745   6.933   3.058  13.153
61950SOL     OW87746  10.852  13.841   1.386
61950SOL    HW187747  10.820  13.927   1.414
61950SOL    HW287748  10.855  13.789   1.466
61951SOL     OW87749   3.031  13.560   1.083
61951SOL    HW187750   3.078  13.480   1.064
61951SOL    HW287751   3.099  13.627   1.093
61952SOL     OW87752   0.658  12.664   4.506
61952SOL    HW187753   0.723  12.664   4.577
61952SOL    HW287754   0.630  12.755   4.499
61953SOL     OW87755   8.405   7.776   1.469
61953SOL    HW187756   8.475   7.713   1.483
61953SOL    HW287757   8.400   7.786   1.374
61954SOL     OW87758   6.295   7.265   9.662
61954SOL    HW187759   6.384   7.273   9.698
61954SOL    HW287760   6.242   7.325   9.714
61955SOL     OW87761   3.355  11.571   1.818
61955SOL    HW187762   3.414  11.626   1.765
61955SOL    HW287763   3.355  11.613   1.904
61956SOL     OW87764  10.615   6.683   0.580
61956SOL    HW187765  10.692   6.647   0.625
61956SOL    HW287766  10.563   6.606   0.557
61957SOL     OW87767   2.366   9.515   9.680
61957SOL    HW187768   2.390   9.422   9.677
61957SOL    HW287769   2.294   9.523   9.617
61958SOL     OW87770   8.631   3.772   6.271
61958SOL    HW187771   8.677   3.745   6.192
61958SOL    HW287772   8.569   3.701   6.287
61959SOL     OW87773   9.475  14.303   8.546
61959SOL    HW187774   9.545  14.367   8.554
61959SOL    HW287775   9.499  14.233   8.608
61960SOL     OW87776   9.689  13.704  12.321
61960SOL    HW187777   9.614  13.674  12.271
61960SOL    HW287778   9.662  13.697  12.413
61961SOL     OW87779  13.855   3.425   9.752
61961SOL    HW187780  13.845   3.496   9.689
61961SOL    HW287781  13.933   3.448   9.802
61962SOL     OW87782   9.041   6.211   8.791
61962SOL    HW187783   9.132   6.243   8.794
61962SOL    HW287784   9.033   6.170   8.705
61963SOL     OW87785   5.474   0.463   4.944
61963SOL    HW187786   5.433   0.519   4.878
61963SOL    HW287787   5.555   0.432   4.903
61964SOL     OW87788  11.224   5.579  11.301
61964SOL    HW187789  11.169   5.655  11.285
61964SOL    HW287790  11.216   5.562  11.394
61965SOL     OW87791  10.756   2.263  10.822
61965SOL    HW187792  10.833   2.270  10.878
61965SOL    HW287793  10.779   2.313  10.743
61966SOL     OW87794   5.597   5.833   3.379
61966SOL    HW187795   5.521   5.874   3.338
61966SOL    HW287796   5.589   5.854   3.472
61967SOL     OW87797   5.992   8.796   2.116
61967SOL    HW187798   6.019   8.785   2.207
61967SOL    HW287799   6.071   8.779   2.064
61968SOL     OW87800  11.542   8.481   3.267
61968SOL    HW187801  11.536   8.566   3.223
61968SOL    HW287802  11.560   8.419   3.197
61969SOL     OW87803   5.524   5.629  11.341
61969SOL    HW187804   5.523   5.718  11.305
61969SOL    HW287805   5.610   5.621  11.383
61970SOL     OW87806  12.762  14.511   7.937
61970SOL    HW187807  12.856  14.524   7.951
61970SOL    HW287808  12.741  14.433   7.989
61971SOL     OW87809  10.626   8.622   8.895
61971SOL    HW187810  10.648   8.641   8.986
61971SOL    HW287811  10.706   8.640   8.846
61972SOL     OW87812   3.016   0.475   1.336
61972SOL    HW187813   3.081   0.491   1.268
61972SOL    HW287814   2.979   0.389   1.315
61973SOL     OW87815   8.916  13.978   7.222
61973SOL    HW187816   8.941  13.942   7.307
61973SOL    HW287817   8.959  13.922   7.158
61974SOL     OW87818   5.981  10.323  10.341
61974SOL    HW187819   5.955  10.231  10.351
61974SOL    HW287820   5.965  10.343  10.249
61975SOL     OW87821   4.418  12.671   3.917
61975SOL    HW187822   4.465  12.744   3.877
61975SOL    HW287823   4.375  12.627   3.844
61976SOL     OW87824   4.004   2.170   3.173
61976SOL    HW187825   3.944   2.159   3.247
61976SOL    HW287826   4.082   2.121   3.199
61977SOL     OW87827   6.564   7.620   0.888
61977SOL    HW187828   6.556   7.664   0.803
61977SOL    HW287829   6.473   7.607   0.916
61978SOL     OW87830  10.458  10.942   5.377
61978SOL    HW187831  10.508  10.876   5.331
61978SOL    HW287832  10.500  11.025   5.354
61979SOL     OW87833  11.507  13.886  13.342
61979SOL    HW187834  11.460  13.968  13.357
61979SOL    HW287835  11.453  13.838  13.279
61980SOL     OW87836   7.842   1.408  13.178
61980SOL    HW187837   7.816   1.319  13.202
61980SOL    HW287838   7.931   1.398  13.145
61981SOL     OW87839   1.033   9.996  14.449
61981SOL    HW187840   1.012  10.086  14.472
61981SOL    HW287841   0.988   9.981  14.366
61982SOL     OW87842  10.423   1.070   1.721
61982SOL    HW187843  10.437   1.100   1.631
61982SOL    HW287844  10.481   0.994   1.730
61983SOL     OW87845   7.045   6.980   6.516
61983SOL    HW187846   7.012   6.928   6.590
61983SOL    HW287847   6.997   6.945   6.440
61984SOL     OW87848   7.004   1.059   6.136
61984SOL    HW187849   6.996   0.964   6.145
61984SOL    HW287850   6.995   1.075   6.042
61985SOL     OW87851   2.761  10.574   8.788
61985SOL    HW187852   2.700  10.648   8.786
61985SOL    HW287853   2.718  10.506   8.737
61986SOL     OW87854   3.297  10.146  12.702
61986SOL    HW187855   3.228  10.082  12.683
61986SOL    HW287856   3.373  10.094  12.725
61987SOL     OW87857  11.878  13.866   7.200
61987SOL    HW187858  11.816  13.872   7.273
61987SOL    HW287859  11.840  13.922   7.132
61988SOL     OW87860   7.191  12.773   3.714
61988SOL    HW187861   7.182  12.744   3.623
61988SOL    HW287862   7.242  12.853   3.709
61989SOL     OW87863   4.637   4.219   7.725
61989SOL    HW187864   4.638   4.262   7.639
61989SOL    HW287865   4.671   4.285   7.785
61990SOL     OW87866  14.255   0.107   6.291
61990SOL    HW187867  14.250   0.181   6.231
61990SOL    HW287868  14.216   0.034   6.243
61991SOL     OW87869  10.916   2.133   9.178
61991SOL    HW187870  10.956   2.120   9.092
61991SOL    HW287871  10.871   2.051   9.196
61992SOL     OW87872  14.310  12.959   9.055
61992SOL    HW187873  14.377  13.002   9.002
61992SOL    HW287874  14.230  13.008   9.037
61993SOL     OW87875   9.978   8.443  10.773
61993SOL    HW187876   9.919   8.374  10.743
61993SOL    HW287877  10.056   8.434  10.717
61994SOL     OW87878   7.654   3.946   4.779
61994SOL    HW187879   7.607   3.987   4.852
61994SOL    HW287880   7.615   3.859   4.772
61995SOL     OW87881   0.399  13.051   6.605
61995SOL    HW187882   0.483  13.005   6.614
61995SOL    HW287883   0.363  13.020   6.522
61996SOL     OW87884   1.085  12.481  11.584
61996SOL    HW187885   1.141  12.522  11.519
61996SOL    HW287886   1.019  12.434  11.533
61997SOL     OW87887  14.668   9.104   8.211
61997SOL    HW187888  14.585   9.083   8.255
61997SOL    HW287889  14.724   9.028   8.228
61998SOL     OW87890   8.519   0.912  12.336
61998SOL    HW187891   8.442   0.891  12.389
61998SOL    HW287892   8.575   0.962  12.394
61999SOL     OW87893  14.222   4.765   9.484
61999SOL    HW187894  14.294   4.746   9.544
61999SOL    HW287895  14.260   4.757   9.397
62000SOL     OW87896   1.382   0.858   1.738
62000SOL    HW187897   1.314   0.859   1.670
62000SOL    HW287898   1.336   0.882   1.818
62001SOL     OW87899   4.031   4.474   9.083
62001SOL    HW187900   4.119   4.510   9.079
62001SOL    HW287901   3.978   4.535   9.033
62002SOL     OW87902  11.688  14.051   2.790
62002SOL    HW187903  11.615  13.993   2.770
62002SOL    HW287904  11.675  14.127   2.733
62003SOL     OW87905   3.409   7.478   7.400
62003SOL    HW187906   3.414   7.452   7.308
62003SOL    HW287907   3.355   7.557   7.400
62004SOL     OW87908   0.330   4.695   5.754
62004SOL    HW187909   0.357   4.613   5.795
62004SOL    HW287910   0.240   4.708   5.784
62005SOL     OW87911  12.070   4.564   4.194
62005SOL    HW187912  12.034   4.582   4.280
62005SOL    HW287913  12.158   4.530   4.211
62006SOL     OW87914  12.176  12.222   7.388
62006SOL    HW187915  12.210  12.193   7.473
62006SOL    HW287916  12.100  12.167   7.372
62007SOL     OW87917   6.731   1.219   4.623
62007SOL    HW187918   6.773   1.301   4.598
62007SOL    HW287919   6.642   1.245   4.648
62008SOL     OW87920   3.767  12.475   2.704
62008SOL    HW187921   3.704  12.402   2.711
62008SOL    HW287922   3.824  12.465   2.780
62009SOL     OW87923   7.806   9.581   5.697
62009SOL    HW187924   7.809   9.492   5.733
62009SOL    HW287925   7.820   9.638   5.773
62010SOL     OW87926   7.135   1.512   2.073
62010SOL    HW187927   7.050   1.472   2.056
62010SOL    HW287928   7.182   1.505   1.990
62011SOL     OW87929   3.550   9.612   5.497
62011SOL    HW187930   3.464   9.654   5.505
62011SOL    HW287931   3.595   9.636   5.578
62012SOL     OW87932  13.409  12.437   5.557
62012SOL    HW187933  13.355  12.448   5.479
62012SOL    HW287934  13.368  12.493   5.623
62013SOL     OW87935   3.463  13.028   7.293
62013SOL    HW187936   3.377  13.010   7.330
62013SOL    HW287937   3.510  12.944   7.300
62014SOL     OW87938  13.764   6.341  11.965
62014SOL    HW187939  13.849   6.382  11.955
62014SOL    HW287940  13.783   6.255  12.002
62015SOL     OW87941  10.094  14.205   1.088
62015SOL    HW187942  10.142  14.217   1.006
62015SOL    HW287943  10.111  14.114   1.113
62016SOL     OW87944   2.039  11.290   1.314
62016SOL    HW187945   2.018  11.378   1.281
62016SOL    HW287946   2.065  11.304   1.405
62017SOL     OW87947   9.077   3.851  12.473
62017SOL    HW187948   9.132   3.773  12.480
62017SOL    HW287949   8.991   3.823  12.506
62018SOL     OW87950  10.289  10.307   5.582
62018SOL    HW187951  10.375  10.265   5.586
62018SOL    HW287952  10.227  10.237   5.604
62019SOL     OW87953   7.214   2.457  14.326
62019SOL    HW187954   7.227   2.391  14.394
62019SOL    HW287955   7.214   2.407  14.244
62020SOL     OW87956  12.680  12.585   7.233
62020SOL    HW187957  12.611  12.545   7.286
62020SOL    HW287958  12.636  12.613   7.153
62021SOL     OW87959   3.913  10.261  12.575
62021SOL    HW187960   3.985  10.323  12.572
62021SOL    HW287961   3.852  10.292  12.508
62022SOL     OW87962   1.828   0.793   0.307
62022SOL    HW187963   1.760   0.822   0.368
62022SOL    HW287964   1.876   0.873   0.284
62023SOL     OW87965  13.608   8.873   2.264
62023SOL    HW187966  13.685   8.915   2.303
62023SOL    HW287967  13.579   8.810   2.330
62024SOL     OW87968  10.863   4.890   2.581
62024SOL    HW187969  10.844   4.976   2.542
62024SOL    HW287970  10.835   4.900   2.673
62025SOL     OW87971   7.555   5.883  11.218
62025SOL    HW187972   7.602   5.800  11.226
62025SOL    HW287973   7.463   5.859  11.229
62026SOL     OW87974  12.258   1.130   1.162
62026SOL    HW187975  12.255   1.163   1.072
62026SOL    HW287976  12.175   1.158   1.201
62027SOL     OW87977  12.679   8.000   6.457
62027SOL    HW187978  12.695   8.032   6.368
62027SOL    HW287979  12.592   7.960   6.452
62028SOL     OW87980   0.277   3.846   6.773
62028SOL    HW187981   0.184   3.826   6.761
62028SOL    HW287982   0.285   3.938   6.747
62029SOL     OW87983  11.225   7.051   3.885
62029SOL    HW187984  11.244   7.072   3.794
62029SOL    HW287985  11.307   7.071   3.931
62030SOL     OW87986   2.047   6.290   8.922
62030SOL    HW187987   2.051   6.200   8.890
62030SOL    HW287988   2.108   6.293   8.996
62031SOL     OW87989  10.007  14.477  14.513
62031SOL    HW187990  10.002  14.422  14.591
62031SOL    HW287991   9.944  14.547  14.529
62032SOL     OW87992  10.784   3.425   5.664
62032SOL    HW187993  10.745   3.502   5.623
62032SOL    HW287994  10.784   3.445   5.758
62033SOL     OW87995  12.868  14.470   5.860
62033SOL    HW187996  12.857  14.480   5.954
62033SOL    HW287997  12.852  14.377   5.843
62034SOL     OW87998   7.248   1.280   1.495
62034SOL    HW187999   7.245   1.363   1.447
62034SOL    HW288000   7.312   1.295   1.564
62035SOL     OW88001   5.258  14.304   1.089
62035SOL    HW188002   5.307  14.294   1.171
62035SOL    HW288003   5.171  14.269   1.110
62036SOL     OW88004  11.779   2.850  12.418
62036SOL    HW188005  11.759   2.818  12.331
62036SOL    HW288006  11.738   2.787  12.477
62037SOL     OW88007  12.795   7.189   2.495
62037SOL    HW188008  12.801   7.273   2.540
62037SOL    HW288009  12.782   7.125   2.565
62038SOL     OW88010   4.426   4.104   8.039
62038SOL    HW188011   4.382   4.090   8.123
62038SOL    HW288012   4.513   4.137   8.062
62039SOL     OW88013  12.769   4.448   7.172
62039SOL    HW188014  12.678   4.453   7.142
62039SOL    HW288015  12.798   4.539   7.174
62040SOL     OW88016   3.378   0.488  14.728
62040SOL    HW188017   3.448   0.553  14.739
62040SOL    HW288018   3.357   0.491  14.634
62041SOL     OW88019   6.562   9.566   9.439
62041SOL    HW188020   6.617   9.639   9.468
62041SOL    HW288021   6.495   9.559   9.506
62042SOL     OW88022   9.026   4.079  11.349
62042SOL    HW188023   9.116   4.092  11.378
62042SOL    HW288024   8.973   4.126  11.413
62043SOL     OW88025   8.422  13.977   3.522
62043SOL    HW188026   8.391  14.059   3.560
62043SOL    HW288027   8.422  13.992   3.428
62044SOL     OW88028   0.831  14.500   7.713
62044SOL    HW188029   0.904  14.536   7.663
62044SOL    HW288030   0.793  14.433   7.656
62045SOL     OW88031  12.218   3.031   4.604
62045SOL    HW188032  12.134   3.071   4.629
62045SOL    HW288033  12.284   3.092   4.636
62046SOL     OW88034   8.843   3.205  14.237
62046SOL    HW188035   8.878   3.121  14.267
62046SOL    HW288036   8.901   3.271  14.274
62047SOL     OW88037   1.621  10.125   2.659
62047SOL    HW188038   1.715  10.106   2.662
62047SOL    HW288039   1.615  10.220   2.671
62048SOL     OW88040  12.467   4.630   7.835
62048SOL    HW188041  12.496   4.711   7.794
62048SOL    HW288042  12.485   4.642   7.929
62049SOL     OW88043   6.153   9.322   7.610
62049SOL    HW188044   6.139   9.336   7.703
62049SOL    HW288045   6.086   9.259   7.585
62050SOL     OW88046  13.563   0.136   3.632
62050SOL    HW188047  13.588   0.052   3.593
62050SOL    HW288048  13.467   0.132   3.638
62051SOL     OW88049   2.708   9.412   5.214
62051SOL    HW188050   2.703   9.380   5.304
62051SOL    HW288051   2.763   9.349   5.168
62052SOL     OW88052   7.971   7.697  11.922
62052SOL    HW188053   7.995   7.611  11.888
62052SOL    HW288054   8.036   7.756  11.884
62053SOL     OW88055  10.348   7.486   6.487
62053SOL    HW188056  10.295   7.495   6.566
62053SOL    HW288057  10.335   7.569   6.440
62054SOL     OW88058   9.182   3.806   9.077
62054SOL    HW188059   9.270   3.768   9.073
62054SOL    HW288060   9.189   3.887   9.027
62055SOL     OW88061  10.832   7.143   5.182
62055SOL    HW188062  10.869   7.160   5.269
62055SOL    HW288063  10.901   7.170   5.122
62056SOL     OW88064   4.877   7.152  12.986
62056SOL    HW188065   4.788   7.122  12.968
62056SOL    HW288066   4.885   7.233  12.936
62057SOL     OW88067   0.859   6.087  12.550
62057SOL    HW188068   0.825   5.998  12.539
62057SOL    HW288069   0.820   6.117  12.632
62058SOL     OW88070   2.548  11.059   9.337
62058SOL    HW188071   2.625  11.002   9.333
62058SOL    HW288072   2.501  11.030   9.415
62059SOL     OW88073  10.443  10.143   7.875
62059SOL    HW188074  10.384  10.082   7.831
62059SOL    HW288075  10.386  10.213   7.907
62060SOL     OW88076  10.922  10.092  14.221
62060SOL    HW188077  10.977  10.135  14.156
62060SOL    HW288078  10.930  10.148  14.299
62061SOL     OW88079  11.105  12.654  12.513
62061SOL    HW188080  11.183  12.661  12.458
62061SOL    HW288081  11.140  12.637  12.601
62062SOL     OW88082   1.913  12.334   3.171
62062SOL    HW188083   1.955  12.307   3.090
62062SOL    HW288084   1.843  12.393   3.144
62063SOL     OW88085   2.946   5.239  14.033
62063SOL    HW188086   2.942   5.317  14.090
62063SOL    HW288087   2.913   5.269  13.949
62064SOL     OW88088   5.146  11.193  13.846
62064SOL    HW188089   5.109  11.278  13.821
62064SOL    HW288090   5.084  11.129  13.812
62065SOL     OW88091  14.292  13.282  11.525
62065SOL    HW188092  14.306  13.318  11.437
62065SOL    HW288093  14.205  13.241  11.520
62066SOL     OW88094   4.743  14.794   7.722
62066SOL    HW188095   4.694  14.809   7.641
62066SOL    HW288096   4.683  14.746   7.778
62067SOL     OW88097   3.407   9.030  13.518
62067SOL    HW188098   3.385   9.042  13.425
62067SOL    HW288099   3.441   9.115  13.546
62068SOL     OW88100   5.463  14.186  12.616
62068SOL    HW188101   5.445  14.211  12.707
62068SOL    HW288102   5.539  14.127  12.623
62069SOL     OW88103   7.170  13.593   7.804
62069SOL    HW188104   7.149  13.684   7.780
62069SOL    HW288105   7.109  13.540   7.752
62070SOL     OW88106   3.412  12.909   5.184
62070SOL    HW188107   3.392  12.880   5.273
62070SOL    HW288108   3.378  12.999   5.181
62071SOL     OW88109   3.166   0.454   9.473
62071SOL    HW188110   3.207   0.494   9.550
62071SOL    HW288111   3.156   0.362   9.496
62072SOL     OW88112   3.895  11.620   5.206
62072SOL    HW188113   3.876  11.527   5.216
62072SOL    HW288114   3.989  11.627   5.222
62073SOL     OW88115  14.114   2.334  11.732
62073SOL    HW188116  14.071   2.418  11.716
62073SOL    HW288117  14.058   2.270  11.690
62074SOL     OW88118   1.242   7.904  13.414
62074SOL    HW188119   1.289   7.927  13.494
62074SOL    HW288120   1.164   7.958  13.415
62075SOL     OW88121   4.824  11.730  11.970
62075SOL    HW188122   4.797  11.800  11.910
62075SOL    HW288123   4.816  11.650  11.919
62076SOL     OW88124  14.103   2.631   2.299
62076SOL    HW188125  14.186   2.596   2.266
62076SOL    HW288126  14.080   2.701   2.238
62077SOL     OW88127   0.589   1.802  14.390
62077SOL    HW188128   0.503   1.763  14.405
62077SOL    HW288129   0.649   1.750  14.444
62078SOL     OW88130   3.106   4.604  12.030
62078SOL    HW188131   3.080   4.608  11.938
62078SOL    HW288132   3.084   4.516  12.058
62079SOL     OW88133  14.699   5.573   9.997
62079SOL    HW188134  14.615   5.533  10.019
62079SOL    HW288135  14.698   5.658  10.042
62080SOL     OW88136   2.413  12.198   2.724
62080SOL    HW188137   2.341  12.162   2.776
62080SOL    HW288138   2.475  12.126   2.715
62081SOL     OW88139   7.541  13.599   1.568
62081SOL    HW188140   7.450  13.602   1.539
62081SOL    HW288141   7.558  13.506   1.583
62082SOL     OW88142   0.805   4.651  14.594
62082SOL    HW188143   0.749   4.700  14.534
62082SOL    HW288144   0.885   4.635  14.544
62083SOL     OW88145  13.063   7.637   3.797
62083SOL    HW188146  13.071   7.552   3.839
62083SOL    HW288147  13.022   7.619   3.713
62084SOL     OW88148   3.828  14.500  10.488
62084SOL    HW188149   3.903  14.512  10.430
62084SOL    HW288150   3.816  14.405  10.493
62085SOL     OW88151  10.211   7.513   6.724
62085SOL    HW188152  10.186   7.421   6.734
62085SOL    HW288153  10.151   7.560   6.782
62086SOL     OW88154  13.573  10.734   5.971
62086SOL    HW188155  13.522  10.814   5.984
62086SOL    HW288156  13.650  10.762   5.923
62087SOL     OW88157   1.541  11.423   0.344
62087SOL    HW188158   1.565  11.506   0.386
62087SOL    HW288159   1.493  11.375   0.412
62088SOL     OW88160   4.995  10.808   7.423
62088SOL    HW188161   5.057  10.791   7.352
62088SOL    HW288162   4.927  10.740   7.413
62089SOL     OW88163  14.346  11.489  14.518
62089SOL    HW188164  14.329  11.484  14.612
62089SOL    HW288165  14.434  11.526  14.511
62090SOL     OW88166  10.027  11.329   4.638
62090SOL    HW188167  10.037  11.315   4.543
62090SOL    HW288168  10.105  11.378   4.663
62091SOL     OW88169  12.171   8.785   7.172
62091SOL    HW188170  12.183   8.861   7.228
62091SOL    HW288171  12.105   8.811   7.109
62092SOL     OW88172   9.889   3.040   0.690
62092SOL    HW188173   9.900   2.945   0.695
62092SOL    HW288174   9.913   3.072   0.777
62093SOL     OW88175   0.534   7.215  12.886
62093SOL    HW188176   0.558   7.139  12.940
62093SOL    HW288177   0.484   7.271  12.945
62094SOL     OW88178   8.083  14.267   5.335
62094SOL    HW188179   8.086  14.300   5.424
62094SOL    HW288180   7.998  14.223   5.328
62095SOL     OW88181   7.621   1.337   0.676
62095SOL    HW188182   7.715   1.321   0.691
62095SOL    HW288183   7.617   1.377   0.590
62096SOL     OW88184   5.301   1.072  10.140
62096SOL    HW188185   5.278   1.164  10.152
62096SOL    HW288186   5.378   1.059  10.195
62097SOL     OW88187  14.322  12.142  14.646
62097SOL    HW188188  14.404  12.189  14.629
62097SOL    HW288189  14.320  12.072  14.580
62098SOL     OW88190  12.583   5.900  11.907
62098SOL    HW188191  12.674   5.927  11.923
62098SOL    HW288192  12.531   5.974  11.939
62099SOL     OW88193  13.111   9.439   7.681
62099SOL    HW188194  13.104   9.352   7.641
62099SOL    HW288195  13.035   9.487   7.649
62100SOL     OW88196   0.347   3.528  13.619
62100SOL    HW188197   0.305   3.578  13.689
62100SOL    HW288198   0.275   3.505  13.560
62101SOL     OW88199   0.134  11.507  13.992
62101SOL    HW188200   0.168  11.420  14.012
62101SOL    HW288201   0.157  11.521  13.900
62102SOL     OW88202   2.045   1.407   7.620
62102SOL    HW188203   2.138   1.410   7.640
62102SOL    HW288204   2.035   1.328   7.566
62103SOL     OW88205  12.562   9.988  12.870
62103SOL    HW188206  12.541  10.041  12.793
62103SOL    HW288207  12.480   9.944  12.892
62104SOL     OW88208   1.673   1.234   9.137
62104SOL    HW188209   1.583   1.237   9.105
62104SOL    HW288210   1.683   1.312   9.191
62105SOL     OW88211   8.341  14.186  10.548
62105SOL    HW188212   8.387  14.184  10.464
62105SOL    HW288213   8.310  14.276  10.557
62106SOL     OW88214  10.814   4.707   3.931
62106SOL    HW188215  10.728   4.708   3.973
62106SOL    HW288216  10.856   4.628   3.964
62107SOL     OW88217   9.145   4.696   5.131
62107SOL    HW188218   9.110   4.777   5.169
62107SOL    HW288219   9.085   4.676   5.059
62108SOL     OW88220   5.424   9.943   7.515
62108SOL    HW188221   5.452   9.980   7.431
62108SOL    HW288222   5.435  10.015   7.578
62109SOL     OW88223  10.177  10.742  14.361
62109SOL    HW188224  10.201  10.657  14.397
62109SOL    HW288225  10.085  10.754  14.386
62110SOL     OW88226   4.471   7.235   9.674
62110SOL    HW188227   4.483   7.247   9.580
62110SOL    HW288228   4.449   7.142   9.684
62111SOL     OW88229   9.128   4.495  13.268
62111SOL    HW188230   9.076   4.516  13.191
62111SOL    HW288231   9.174   4.414  13.245
62112SOL     OW88232   7.679   4.763   2.460
62112SOL    HW188233   7.648   4.846   2.423
62112SOL    HW288234   7.607   4.702   2.444
62113SOL     OW88235   4.408  10.964  14.775
62113SOL    HW188236   4.502  10.959  14.756
62113SOL    HW288237   4.374  10.879  14.747
62114SOL     OW88238   5.583  12.990   9.999
62114SOL    HW188239   5.492  12.966  10.016
62114SOL    HW288240   5.588  12.999   9.904
62115SOL     OW88241  12.334   5.024  13.607
62115SOL    HW188242  12.268   5.050  13.543
62115SOL    HW288243  12.375   5.106  13.634
62116SOL     OW88244  10.936   9.283   8.473
62116SOL    HW188245  10.853   9.319   8.503
62116SOL    HW288246  10.926   9.276   8.378
62117SOL     OW88247   9.502   6.611   8.415
62117SOL    HW188248   9.502   6.684   8.477
62117SOL    HW288249   9.595   6.596   8.397
62118SOL     OW88250  11.143   5.132   6.785
62118SOL    HW188251  11.165   5.155   6.695
62118SOL    HW288252  11.054   5.164   6.797
62119SOL     OW88253   8.523   5.159   9.770
62119SOL    HW188254   8.546   5.246   9.738
62119SOL    HW288255   8.455   5.174   9.836
62120SOL     OW88256   2.687   8.440   1.084
62120SOL    HW188257   2.745   8.412   1.155
62120SOL    HW288258   2.712   8.387   1.009
62121SOL     OW88259   2.254  11.805   8.790
62121SOL    HW188260   2.298  11.809   8.874
62121SOL    HW288261   2.324  11.801   8.726
62122SOL     OW88262   2.920   5.637   7.669
62122SOL    HW188263   2.944   5.690   7.593
62122SOL    HW288264   2.841   5.591   7.642
62123SOL     OW88265   6.442  11.367  10.381
62123SOL    HW188266   6.517  11.391  10.326
62123SOL    HW288267   6.384  11.444  10.377
62124SOL     OW88268  10.065   2.584  11.853
62124SOL    HW188269  10.009   2.661  11.844
62124SOL    HW288270  10.010   2.512  11.823
62125SOL     OW88271   6.537  12.524   0.486
62125SOL    HW188272   6.545  12.577   0.406
62125SOL    HW288273   6.625  12.522   0.522
62126SOL     OW88274   4.517   0.970   6.441
62126SOL    HW188275   4.579   1.041   6.460
62126SOL    HW288276   4.536   0.946   6.351
62127SOL     OW88277   9.422   3.045   8.275
62127SOL    HW188278   9.394   3.123   8.225
62127SOL    HW288279   9.361   3.042   8.349
62128SOL     OW88280   0.154  14.142  10.163
62128SOL    HW188281   0.093  14.191  10.218
62128SOL    HW288282   0.158  14.055  10.202
62129SOL     OW88283   3.958   3.717   0.239
62129SOL    HW188284   4.018   3.730   0.313
62129SOL    HW288285   4.006   3.657   0.181
62130SOL     OW88286   8.807  11.731   1.320
62130SOL    HW188287   8.778  11.648   1.359
62130SOL    HW288288   8.734  11.757   1.263
62131SOL     OW88289   8.145   1.309   8.142
62131SOL    HW188290   8.161   1.297   8.048
62131SOL    HW288291   8.054   1.282   8.155
62132SOL     OW88292   1.688   0.336  13.385
62132SOL    HW188293   1.657   0.406  13.327
62132SOL    HW288294   1.616   0.322  13.446
62133SOL     OW88295   4.666   8.535   1.667
62133SOL    HW188296   4.637   8.448   1.694
62133SOL    HW288297   4.677   8.583   1.749
62134SOL     OW88298   4.396  11.483  12.601
62134SOL    HW188299   4.345  11.509  12.524
62134SOL    HW288300   4.404  11.388  12.594
62135SOL     OW88301  11.101  10.351  14.631
62135SOL    HW188302  11.157  10.276  14.651
62135SOL    HW288303  11.158  10.427  14.640
62136SOL     OW88304  13.073   5.575   0.494
62136SOL    HW188305  13.048   5.484   0.479
62136SOL    HW288306  13.038   5.623   0.419
62137SOL     OW88307   3.098  11.010   3.448
62137SOL    HW188308   3.173  10.967   3.489
62137SOL    HW288309   3.082  10.959   3.368
62138SOL     OW88310   8.354   8.356   5.191
62138SOL    HW188311   8.399   8.439   5.207
62138SOL    HW288312   8.281   8.357   5.253
62139SOL     OW88313   7.260  12.632  11.547
62139SOL    HW188314   7.200  12.698  11.513
62139SOL    HW288315   7.304  12.675  11.621
62140SOL     OW88316   6.430   3.046  14.047
62140SOL    HW188317   6.405   2.954  14.037
62140SOL    HW288318   6.467   3.070  13.962
62141SOL     OW88319   4.719   2.361  10.303
62141SOL    HW188320   4.670   2.410  10.370
62141SOL    HW288321   4.671   2.377  10.222
62142SOL     OW88322   5.605  13.570  11.375
62142SOL    HW188323   5.675  13.509  11.395
62142SOL    HW288324   5.640  13.656  11.402
62143SOL     OW88325   8.877   6.177   1.084
62143SOL    HW188326   8.966   6.172   1.049
62143SOL    HW288327   8.823   6.202   1.009
62144SOL     OW88328  12.859   7.251  13.721
62144SOL    HW188329  12.881   7.300  13.800
62144SOL    HW288330  12.908   7.295  13.651
62145SOL     OW88331   9.887   6.707   7.390
62145SOL    HW188332   9.857   6.788   7.431
62145SOL    HW288333   9.813   6.647   7.400
62146SOL     OW88334   0.520   6.499  10.550
62146SOL    HW188335   0.492   6.590  10.555
62146SOL    HW288336   0.448   6.454  10.505
62147SOL     OW88337   8.517  14.471   7.841
62147SOL    HW188338   8.463  14.540   7.879
62147SOL    HW288339   8.502  14.477   7.747
62148SOL     OW88340   9.568  11.849   4.393
62148SOL    HW188341   9.601  11.901   4.320
62148SOL    HW288342   9.507  11.787   4.353
62149SOL     OW88343  11.780   0.892   0.204
62149SOL    HW188344  11.718   0.831   0.243
62149SOL    HW288345  11.782   0.868   0.111
62150SOL     OW88346  14.085   4.411  12.172
62150SOL    HW188347  14.027   4.425  12.097
62150SOL    HW288348  14.043   4.341  12.221
62151SOL     OW88349  10.756   1.705   4.426
62151SOL    HW188350  10.745   1.755   4.507
62151SOL    HW288351  10.666   1.689   4.396
62152SOL     OW88352   2.242   1.543  10.706
62152SOL    HW188353   2.311   1.594  10.750
62152SOL    HW288354   2.243   1.574  10.616
62153SOL     OW88355  13.750   5.687  12.684
62153SOL    HW188356  13.776   5.722  12.769
62153SOL    HW288357  13.687   5.751  12.651
62154SOL     OW88358   9.981   4.531  10.383
62154SOL    HW188359   9.972   4.550  10.289
62154SOL    HW288360   9.926   4.455  10.397
62155SOL     OW88361  11.934   1.793   4.531
62155SOL    HW188362  11.894   1.859   4.587
62155SOL    HW288363  12.016   1.833   4.502
62156SOL     OW88364   7.473  11.882   9.134
62156SOL    HW188365   7.447  11.805   9.082
62156SOL    HW288366   7.508  11.845   9.215
62157SOL     OW88367   1.757   1.284   8.670
62157SOL    HW188368   1.815   1.213   8.643
62157SOL    HW288369   1.797   1.319   8.749
62158SOL     OW88370   2.043   7.590  12.469
62158SOL    HW188371   2.048   7.677  12.508
62158SOL    HW288372   1.953   7.562  12.486
62159SOL     OW88373  11.593   8.504  14.641
62159SOL    HW188374  11.620   8.547  14.560
62159SOL    HW288375  11.636   8.419  14.638
62160SOL     OW88376   8.582   4.739   6.289
62160SOL    HW188377   8.563   4.678   6.360
62160SOL    HW288378   8.510   4.802   6.290
62161SOL     OW88379   1.472   2.849   2.098
62161SOL    HW188380   1.428   2.875   2.179
62161SOL    HW288381   1.401   2.833   2.036
62162SOL     OW88382  13.362   8.898   9.808
62162SOL    HW188383  13.345   8.993   9.810
62162SOL    HW288384  13.457   8.891   9.816
62163SOL     OW88385  12.050  13.426   9.793
62163SOL    HW188386  12.057  13.496   9.727
62163SOL    HW288387  12.141  13.402   9.812
62164SOL     OW88388   0.659  12.120   3.777
62164SOL    HW188389   0.592  12.183   3.804
62164SOL    HW288390   0.719  12.170   3.723
62165SOL     OW88391  10.131   1.722   7.369
62165SOL    HW188392  10.148   1.815   7.377
62165SOL    HW288393  10.208   1.680   7.405
62166SOL     OW88394   1.224   4.414   5.844
62166SOL    HW188395   1.313   4.450   5.843
62166SOL    HW288396   1.231   4.336   5.900
62167SOL     OW88397  12.773   6.673   7.520
62167SOL    HW188398  12.724   6.616   7.580
62167SOL    HW288399  12.842   6.618   7.485
62168SOL     OW88400   2.327   1.003   0.846
62168SOL    HW188401   2.276   1.081   0.823
62168SOL    HW288402   2.270   0.930   0.824
62169SOL     OW88403   4.090   5.714   3.502
62169SOL    HW188404   4.034   5.638   3.521
62169SOL    HW288405   4.175   5.691   3.539
62170SOL     OW88406   7.791   2.091  14.808
62170SOL    HW188407   7.851   2.100  14.733
62170SOL    HW288408   7.816   2.009  14.849
62171SOL     OW88409   0.218   2.232  13.970
62171SOL    HW188410   0.279   2.306  13.964
62171SOL    HW288411   0.184   2.236  14.060
62172SOL     OW88412   4.838   0.098   1.756
62172SOL    HW188413   4.875   0.146   1.682
62172SOL    HW288414   4.761   0.054   1.720
62173SOL     OW88415  10.623   6.625   7.962
62173SOL    HW188416  10.538   6.643   7.922
62173SOL    HW288417  10.641   6.702   8.015
62174SOL     OW88418   8.862  13.173   6.690
62174SOL    HW188419   8.833  13.262   6.669
62174SOL    HW288420   8.785  13.130   6.727
62175SOL     OW88421   6.319   0.515   0.536
62175SOL    HW188422   6.279   0.564   0.464
62175SOL    HW288423   6.349   0.433   0.495
62176SOL     OW88424   1.220   9.457  14.284
62176SOL    HW188425   1.206   9.480  14.376
62176SOL    HW288426   1.134   9.465  14.244
62177SOL     OW88427   5.492  10.033   4.398
62177SOL    HW188428   5.424  10.000   4.458
62177SOL    HW288429   5.561  10.065   4.456
62178SOL     OW88430   4.984  12.477   3.311
62178SOL    HW188431   4.985  12.559   3.262
62178SOL    HW288432   4.976  12.409   3.245
62179SOL     OW88433   4.625  10.457   3.617
62179SOL    HW188434   4.651  10.428   3.529
62179SOL    HW288435   4.700  10.509   3.648
62180SOL     OW88436   5.248   0.589   1.277
62180SOL    HW188437   5.270   0.539   1.198
62180SOL    HW288438   5.294   0.672   1.266
62181SOL     OW88439  12.194   3.808  10.108
62181SOL    HW188440  12.143   3.852  10.176
62181SOL    HW288441  12.256   3.753  10.156
62182SOL     OW88442  13.152  12.833   1.297
62182SOL    HW188443  13.099  12.843   1.218
62182SOL    HW288444  13.237  12.802   1.266
62183SOL     OW88445  13.202   9.677  11.200
62183SOL    HW188446  13.277   9.639  11.155
62183SOL    HW288447  13.233   9.763  11.228
62184SOL     OW88448  14.352   4.133   2.443
62184SOL    HW188449  14.416   4.096   2.382
62184SOL    HW288450  14.379   4.100   2.529
62185SOL     OW88451   1.542   5.140  10.598
62185SOL    HW188452   1.458   5.113  10.561
62185SOL    HW288453   1.577   5.203  10.535
62186SOL     OW88454   0.285  13.214   9.617
62186SOL    HW188455   0.275  13.149   9.548
62186SOL    HW288456   0.349  13.277   9.582
62187SOL     OW88457   6.062   6.553  12.579
62187SOL    HW188458   6.126   6.495  12.621
62187SOL    HW288459   6.032   6.504  12.503
62188SOL     OW88460  13.164  13.328   8.622
62188SOL    HW188461  13.097  13.260   8.611
62188SOL    HW288462  13.162  13.347   8.716
62189SOL     OW88463   6.451   1.451   5.136
62189SOL    HW188464   6.528   1.455   5.080
62189SOL    HW288465   6.474   1.505   5.212
62190SOL     OW88466   1.962  10.334   4.743
62190SOL    HW188467   2.005  10.334   4.829
62190SOL    HW288468   1.930  10.245   4.733
62191SOL     OW88469   2.665  10.484   9.278
62191SOL    HW188470   2.644  10.397   9.244
62191SOL    HW288471   2.720  10.524   9.211
62192SOL     OW88472  13.156   1.116   1.892
62192SOL    HW188473  13.156   1.062   1.971
62192SOL    HW288474  13.064   1.123   1.867
62193SOL     OW88475  13.871  10.814   5.992
62193SOL    HW188476  13.905  10.876   5.928
62193SOL    HW288477  13.868  10.864   6.074
62194SOL     OW88478   6.988   3.184  10.027
62194SOL    HW188479   6.965   3.126   9.954
62194SOL    HW288480   6.926   3.161  10.097
62195SOL     OW88481   4.698  10.198   4.827
62195SOL    HW188482   4.703  10.282   4.782
62195SOL    HW288483   4.614  10.199   4.872
62196SOL     OW88484  10.291   5.110   9.754
62196SOL    HW188485  10.336   5.026   9.743
62196SOL    HW288486  10.201   5.086   9.779
62197SOL     OW88487   2.950  10.076  11.346
62197SOL    HW188488   2.907  10.024  11.278
62197SOL    HW288489   3.038  10.090  11.313
62198SOL     OW88490   1.403   8.691   5.385
62198SOL    HW188491   1.311   8.700   5.363
62198SOL    HW288492   1.412   8.600   5.416
62199SOL     OW88493  10.788  14.116   6.022
62199SOL    HW188494  10.715  14.177   6.011
62199SOL    HW288495  10.747  14.031   6.039
62200SOL     OW88496  14.402   3.491  13.691
62200SOL    HW188497  14.425   3.407  13.731
62200SOL    HW288498  14.364   3.467  13.606
62201SOL     OW88499   6.404   3.036  11.536
62201SOL    HW188500   6.392   3.105  11.471
62201SOL    HW288501   6.499   3.019  11.535
62202SOL     OW88502   0.630   0.560   1.466
62202SOL    HW188503   0.541   0.577   1.434
62202SOL    HW288504   0.661   0.646   1.494
62203SOL     OW88505   3.083   4.377   1.183
62203SOL    HW188506   3.074   4.468   1.157
62203SOL    HW288507   3.154   4.343   1.128
62204SOL     OW88508   7.885  13.855  11.086
62204SOL    HW188509   7.861  13.857  10.994
62204SOL    HW288510   7.976  13.826  11.087
62205SOL     OW88511  12.712   2.299   3.692
62205SOL    HW188512  12.789   2.330   3.740
62205SOL    HW288513  12.697   2.211   3.725
62206SOL     OW88514  13.247   2.509   5.916
62206SOL    HW188515  13.217   2.418   5.913
62206SOL    HW288516  13.168   2.561   5.899
62207SOL     OW88517   3.922  13.958  12.500
62207SOL    HW188518   3.986  13.890  12.478
62207SOL    HW288519   3.942  13.983  12.590
62208SOL     OW88520   5.908   5.659  12.531
62208SOL    HW188521   5.904   5.684  12.439
62208SOL    HW288522   5.941   5.737  12.576
62209SOL     OW88523   9.020   4.075   8.686
62209SOL    HW188524   9.082   4.004   8.669
62209SOL    HW288525   9.076   4.151   8.703
62210SOL     OW88526   3.058   9.559   7.555
62210SOL    HW188527   3.065   9.478   7.607
62210SOL    HW288528   2.968   9.559   7.522
62211SOL     OW88529   9.691  12.315   0.452
62211SOL    HW188530   9.776  12.301   0.495
62211SOL    HW288531   9.699  12.268   0.369
62212SOL     OW88532   1.050   3.062  11.347
62212SOL    HW188533   1.030   3.141  11.397
62212SOL    HW288534   1.130   3.028  11.387
62213SOL     OW88535   7.361   8.863   7.675
62213SOL    HW188536   7.346   8.770   7.692
62213SOL    HW288537   7.400   8.865   7.588
62214SOL     OW88538   3.190  13.782   5.995
62214SOL    HW188539   3.144  13.866   5.988
62214SOL    HW288540   3.188  13.762   6.089
62215SOL     OW88541  12.048  14.558   1.010
62215SOL    HW188542  12.001  14.547   1.092
62215SOL    HW288543  11.988  14.607   0.953
62216SOL     OW88544   4.791   3.806  11.957
62216SOL    HW188545   4.806   3.760  12.039
62216SOL    HW288546   4.720   3.758  11.915
62217SOL     OW88547  14.872  14.561   5.033
62217SOL    HW188548   0.035  14.517   4.959
62217SOL    HW288549  14.849  14.490   5.093
62218SOL     OW88550   5.895  10.550   7.921
62218SOL    HW188551   5.908  10.644   7.930
62218SOL    HW288552   5.978  10.517   7.886
62219SOL     OW88553   8.501   7.604   3.831
62219SOL    HW188554   8.551   7.523   3.820
62219SOL    HW288555   8.565   7.667   3.865
62220SOL     OW88556   8.230   4.740  13.065
62220SOL    HW188557   8.249   4.646  13.059
62220SOL    HW288558   8.135   4.746  13.060
62221SOL     OW88559  12.266   4.706  13.505
62221SOL    HW188560  12.327   4.763  13.458
62221SOL    HW288561  12.270   4.737  13.596
62222SOL     OW88562   0.840  13.918   7.768
62222SOL    HW188563   0.934  13.931   7.784
62222SOL    HW288564   0.809  13.872   7.846
62223SOL     OW88565   6.180  13.716  13.241
62223SOL    HW188566   6.203  13.628  13.273
62223SOL    HW288567   6.126  13.700  13.164
62224SOL     OW88568   5.677   7.715   4.489
62224SOL    HW188569   5.637   7.703   4.403
62224SOL    HW288570   5.702   7.626   4.516
62225SOL     OW88571   1.015  10.854   8.771
62225SOL    HW188572   1.100  10.810   8.777
62225SOL    HW288573   1.035  10.947   8.781
62226SOL     OW88574  11.192   1.435   5.962
62226SOL    HW188575  11.199   1.340   5.963
62226SOL    HW288576  11.282   1.467   5.971
62227SOL     OW88577  11.818   6.695   2.471
62227SOL    HW188578  11.806   6.675   2.378
62227SOL    HW288579  11.911   6.677   2.487
62228SOL     OW88580  12.553   6.308   5.142
62228SOL    HW188581  12.491   6.246   5.182
62228SOL    HW288582  12.503   6.389   5.133
62229SOL     OW88583   4.404  13.694  14.336
62229SOL    HW188584   4.323  13.739  14.359
62229SOL    HW288585   4.376  13.613  14.294
62230SOL     OW88586  10.932  13.697   5.863
62230SOL    HW188587  10.977  13.673   5.945
62230SOL    HW288588  10.958  13.788   5.848
62231SOL     OW88589   8.282   2.459  13.747
62231SOL    HW188590   8.296   2.553  13.739
62231SOL    HW288591   8.298   2.424  13.659
62232SOL     OW88592  10.041   8.261   9.149
62232SOL    HW188593  10.076   8.328   9.209
62232SOL    HW288594   9.954   8.241   9.184
62233SOL     OW88595   5.236   6.512  14.143
62233SOL    HW188596   5.264   6.549  14.227
62233SOL    HW288597   5.148   6.548  14.129
62234SOL     OW88598   2.467   9.345  11.035
62234SOL    HW188599   2.507   9.258  11.030
62234SOL    HW288600   2.388   9.332  11.086
62235SOL     OW88601   3.496   1.623  11.228
62235SOL    HW188602   3.544   1.542  11.213
62235SOL    HW288603   3.407   1.604  11.199
62236SOL     OW88604   6.672   1.443   7.790
62236SOL    HW188605   6.604   1.459   7.725
62236SOL    HW288606   6.650   1.502   7.862
62237SOL     OW88607   1.502   8.905   2.928
62237SOL    HW188608   1.574   8.910   2.991
62237SOL    HW288609   1.543   8.926   2.844
62238SOL     OW88610  12.876   4.945  10.007
62238SOL    HW188611  12.922   4.971   9.927
62238SOL    HW288612  12.905   4.855  10.023
62239SOL     OW88613   3.995  11.188   5.353
62239SOL    HW188614   4.085  11.198   5.322
62239SOL    HW288615   3.995  11.227   5.440
62240SOL     OW88616   9.184   4.742  12.708
62240SOL    HW188617   9.191   4.834  12.682
62240SOL    HW288618   9.266   4.703  12.679
62241SOL     OW88619   4.441   2.902   2.805
62241SOL    HW188620   4.419   2.936   2.891
62241SOL    HW288621   4.359   2.865   2.772
62242SOL     OW88622  12.945   4.923   2.014
62242SOL    HW188623  13.002   4.901   1.941
62242SOL    HW288624  12.858   4.895   1.985
62243SOL     OW88625   6.492  11.976  10.828
62243SOL    HW188626   6.557  11.929  10.775
62243SOL    HW288627   6.408  11.949  10.791
62244SOL     OW88628   2.064   1.225   5.748
62244SOL    HW188629   2.115   1.264   5.678
62244SOL    HW288630   1.978   1.268   5.743
62245SOL     OW88631   1.545  10.554   9.644
62245SOL    HW188632   1.597  10.632   9.626
62245SOL    HW288633   1.606  10.494   9.688
62246SOL     OW88634   5.565  11.577  11.319
62246SOL    HW188635   5.585  11.641  11.251
62246SOL    HW288636   5.626  11.596  11.389
62247SOL     OW88637  13.663   4.805  13.526
62247SOL    HW188638  13.692   4.840  13.442
62247SOL    HW288639  13.569   4.789  13.514
62248SOL     OW88640  14.243  11.370   4.254
62248SOL    HW188641  14.214  11.461   4.255
62248SOL    HW288642  14.163  11.320   4.243
62249SOL     OW88643   9.532   4.304  12.727
62249SOL    HW188644   9.468   4.251  12.680
62249SOL    HW288645   9.496   4.315  12.814
62250SOL     OW88646   5.703  11.373   6.260
62250SOL    HW188647   5.753  11.335   6.333
62250SOL    HW288648   5.730  11.465   6.258
62251SOL     OW88649  12.995   7.139  12.295
62251SOL    HW188650  13.029   7.057  12.260
62251SOL    HW288651  12.983   7.122  12.389
62252SOL     OW88652   2.627  11.369  14.033
62252SOL    HW188653   2.710  11.378  14.078
62252SOL    HW288654   2.596  11.458  14.021
62253SOL     OW88655   2.660   8.528   9.200
62253SOL    HW188656   2.698   8.473   9.268
62253SOL    HW288657   2.567   8.504   9.199
62254SOL     OW88658   2.965   7.942   1.857
62254SOL    HW188659   2.959   7.857   1.814
62254SOL    HW288660   3.049   7.939   1.904
62255SOL     OW88661   3.615   1.973   4.336
62255SOL    HW188662   3.568   1.893   4.313
62255SOL    HW288663   3.707   1.946   4.344
62256SOL     OW88664   1.068   2.708   1.569
62256SOL    HW188665   1.164   2.706   1.577
62256SOL    HW288666   1.052   2.760   1.490
62257SOL     OW88667   2.562   4.291  14.232
62257SOL    HW188668   2.541   4.250  14.316
62257SOL    HW288669   2.548   4.385  14.246
62258SOL     OW88670   2.828   6.565   6.580
62258SOL    HW188671   2.795   6.531   6.664
62258SOL    HW288672   2.894   6.630   6.605
62259SOL     OW88673   5.856  14.290   8.806
62259SOL    HW188674   5.829  14.237   8.881
62259SOL    HW288675   5.777  14.300   8.753
62260SOL     OW88676   7.595   2.245   9.540
62260SOL    HW188677   7.613   2.312   9.474
62260SOL    HW288678   7.499   2.240   9.542
62261SOL     OW88679  10.166   3.002  13.741
62261SOL    HW188680  10.251   3.039  13.720
62261SOL    HW288681  10.144   3.038  13.827
62262SOL     OW88682   6.075   5.153  12.301
62262SOL    HW188683   5.995   5.182  12.344
62262SOL    HW288684   6.121   5.102  12.368
62263SOL     OW88685   8.423   6.619   0.771
62263SOL    HW188686   8.424   6.635   0.677
62263SOL    HW288687   8.428   6.706   0.811
62264SOL     OW88688   6.205   6.120  12.723
62264SOL    HW188689   6.203   6.099  12.817
62264SOL    HW288690   6.130   6.178  12.710
62265SOL     OW88691  13.023  12.259   2.392
62265SOL    HW188692  12.937  12.300   2.380
62265SOL    HW288693  13.063  12.260   2.306
62266SOL     OW88694  13.911  13.620   3.069
62266SOL    HW188695  13.951  13.556   3.010
62266SOL    HW288696  13.834  13.651   3.022
62267SOL     OW88697   8.375  10.566  10.295
62267SOL    HW188698   8.348  10.510  10.367
62267SOL    HW288699   8.459  10.604  10.324
62268SOL     OW88700  13.663   8.415  13.850
62268SOL    HW188701  13.611   8.393  13.773
62268SOL    HW288702  13.741   8.361  13.842
62269SOL     OW88703   2.869   8.665   6.702
62269SOL    HW188704   2.815   8.594   6.669
62269SOL    HW288705   2.867   8.731   6.632
62270SOL     OW88706  13.339   0.371   6.157
62270SOL    HW188707  13.316   0.415   6.239
62270SOL    HW288708  13.256   0.335   6.126
62271SOL     OW88709  11.765   5.520  10.703
62271SOL    HW188710  11.775   5.425  10.709
62271SOL    HW288711  11.832   5.555  10.761
62272SOL     OW88712   8.350   8.715  11.741
62272SOL    HW188713   8.359   8.667  11.659
62272SOL    HW288714   8.277   8.671  11.786
62273SOL     OW88715   6.419  10.702   1.016
62273SOL    HW188716   6.438  10.611   0.994
62273SOL    HW288717   6.485  10.725   1.082
62274SOL     OW88718   2.840   0.169   8.018
62274SOL    HW188719   2.879   0.235   7.961
62274SOL    HW288720   2.846   0.088   7.967
62275SOL     OW88721  13.937  13.210  12.493
62275SOL    HW188722  13.915  13.301  12.473
62275SOL    HW288723  13.901  13.195  12.580
62276SOL     OW88724   6.551   7.156  11.119
62276SOL    HW188725   6.520   7.225  11.060
62276SOL    HW288726   6.474   7.102  11.135
62277SOL     OW88727  12.084   9.461  11.549
62277SOL    HW188728  12.154   9.444  11.612
62277SOL    HW288729  12.126   9.455  11.464
62278SOL     OW88730  10.439   2.698  10.669
62278SOL    HW188731  10.475   2.637  10.605
62278SOL    HW288732  10.353   2.664  10.690
62279SOL     OW88733  11.632   5.163  12.173
62279SOL    HW188734  11.619   5.145  12.080
62279SOL    HW288735  11.689   5.093  12.204
62280SOL     OW88736   6.277  12.931  10.272
62280SOL    HW188737   6.191  12.962  10.301
62280SOL    HW288738   6.291  12.973  10.188
62281SOL     OW88739   7.008   4.914   0.311
62281SOL    HW188740   7.030   4.832   0.266
62281SOL    HW288741   6.912   4.913   0.316
62282SOL     OW88742   0.457   5.962   4.019
62282SOL    HW188743   0.393   5.890   4.026
62282SOL    HW288744   0.409   6.039   4.049
62283SOL     OW88745  14.439   3.805   7.072
62283SOL    HW188746  14.459   3.763   7.156
62283SOL    HW288747  14.523   3.810   7.027
62284SOL     OW88748  13.689  12.331   7.359
62284SOL    HW188749  13.767  12.344   7.414
62284SOL    HW288750  13.670  12.238   7.366
62285SOL     OW88751  14.616   4.530  11.335
62285SOL    HW188752  14.559   4.602  11.363
62285SOL    HW288753  14.635   4.482  11.416
62286SOL     OW88754   6.823  11.942   7.560
62286SOL    HW188755   6.823  11.871   7.624
62286SOL    HW288756   6.856  12.018   7.608
62287SOL     OW88757   3.750  14.479  14.472
62287SOL    HW188758   3.687  14.491  14.542
62287SOL    HW288759   3.788  14.567  14.459
62288SOL     OW88760   6.737   8.446   8.768
62288SOL    HW188761   6.776   8.402   8.693
62288SOL    HW288762   6.648   8.411   8.773
62289SOL     OW88763   0.293   7.332  14.740
62289SOL    HW188764   0.293   7.241  14.709
62289SOL    HW288765   0.248   7.381  14.672
62290SOL     OW88766  14.645   8.243   0.301
62290SOL    HW188767  14.648   8.283   0.214
62290SOL    HW288768  14.666   8.314   0.361
62291SOL     OW88769   9.862  14.092   6.226
62291SOL    HW188770   9.895  14.179   6.203
62291SOL    HW288771   9.767  14.103   6.231
62292SOL     OW88772  11.416   1.033  10.030
62292SOL    HW188773  11.499   1.031  10.077
62292SOL    HW288774  11.357   0.979  10.082
62293SOL     OW88775   1.505  14.658   6.767
62293SOL    HW188776   1.508  14.754   6.769
62293SOL    HW288777   1.500  14.637   6.674
62294SOL     OW88778   2.902   6.797   7.015
62294SOL    HW188779   2.900   6.704   6.992
62294SOL    HW288780   2.916   6.798   7.109
62295SOL     OW88781   8.989   7.695   6.128
62295SOL    HW188782   8.999   7.790   6.125
62295SOL    HW288783   8.897   7.681   6.150
62296SOL     OW88784   3.373   5.744  14.877
62296SOL    HW188785   3.310   5.672  14.876
62296SOL    HW288786   3.353   5.794  14.798
62297SOL     OW88787   3.031  14.081  12.789
62297SOL    HW188788   3.015  14.065  12.882
62297SOL    HW288789   3.037  14.176  12.781
62298SOL     OW88790  10.700   9.144  13.407
62298SOL    HW188791  10.663   9.057  13.394
62298SOL    HW288792  10.626   9.197  13.437
62299SOL     OW88793   0.312   2.167  11.587
62299SOL    HW188794   0.265   2.164  11.504
62299SOL    HW288795   0.296   2.082  11.627
62300SOL     OW88796   3.066  12.525   0.629
62300SOL    HW188797   3.104  12.603   0.670
62300SOL    HW288798   2.996  12.500   0.688
62301SOL     OW88799   0.486   6.836   6.479
62301SOL    HW188800   0.442   6.752   6.465
62301SOL    HW288801   0.569   6.813   6.520
62302SOL     OW88802  13.885  10.559   5.410
62302SOL    HW188803  13.921  10.495   5.472
62302SOL    HW288804  13.955  10.623   5.399
62303SOL     OW88805   5.270  11.383   0.953
62303SOL    HW188806   5.244  11.353   0.865
62303SOL    HW288807   5.202  11.348   1.010
62304SOL     OW88808  13.482   7.732   6.303
62304SOL    HW188809  13.443   7.766   6.222
62304SOL    HW288810  13.411   7.684   6.346
62305SOL     OW88811   8.800  11.585   7.873
62305SOL    HW188812   8.785  11.509   7.816
62305SOL    HW288813   8.824  11.655   7.813
62306SOL     OW88814   2.173   5.379   2.739
62306SOL    HW188815   2.257   5.424   2.748
62306SOL    HW288816   2.197   5.291   2.712
62307SOL     OW88817   5.202  10.905  12.101
62307SOL    HW188818   5.141  10.832  12.093
62307SOL    HW288819   5.244  10.892  12.187
62308SOL     OW88820  13.450  13.636   3.852
62308SOL    HW188821  13.523  13.612   3.795
62308SOL    HW288822  13.488  13.637   3.940
62309SOL     OW88823   6.567   1.946   2.285
62309SOL    HW188824   6.507   1.967   2.357
62309SOL    HW288825   6.590   2.030   2.247
62310SOL     OW88826   6.066   2.046   0.589
62310SOL    HW188827   6.138   2.109   0.593
62310SOL    HW288828   6.082   1.998   0.508
62311SOL     OW88829   2.519   0.003  13.346
62311SOL    HW188830   2.446   0.063  13.327
62311SOL    HW288831   2.478  14.809  13.390
62312SOL     OW88832  10.109   8.629   6.176
62312SOL    HW188833  10.173   8.600   6.240
62312SOL    HW288834  10.032   8.574   6.192
62313SOL     OW88835  14.328   8.696  11.911
62313SOL    HW188836  14.398   8.725  11.970
62313SOL    HW288837  14.307   8.608  11.941
62314SOL     OW88838   3.705   9.741  13.808
62314SOL    HW188839   3.673   9.697  13.730
62314SOL    HW288840   3.746   9.821  13.776
62315SOL     OW88841  12.767   2.444   3.446
62315SOL    HW188842  12.757   2.400   3.530
62315SOL    HW288843  12.825   2.518   3.464
62316SOL     OW88844   7.434   5.388   4.774
62316SOL    HW188845   7.474   5.410   4.858
62316SOL    HW288846   7.342   5.415   4.784
62317SOL     OW88847   4.153   9.984  11.393
62317SOL    HW188848   4.117   9.961  11.307
62317SOL    HW288849   4.226  10.043  11.373
62318SOL     OW88850  14.231   1.210   3.936
62318SOL    HW188851  14.159   1.147   3.941
62318SOL    HW288852  14.202   1.283   3.991
62319SOL     OW88853   0.014   1.961   7.511
62319SOL    HW188854  14.815   2.008   7.536
62319SOL    HW288855   0.059   2.020   7.450
62320SOL     OW88856  10.565  10.992   0.568
62320SOL    HW188857  10.525  11.011   0.483
62320SOL    HW288858  10.510  10.923   0.605
62321SOL     OW88859   4.131  11.064  10.042
62321SOL    HW188860   4.177  11.042   9.961
62321SOL    HW288861   4.116  11.159  10.035
62322SOL     OW88862   7.579   0.643   6.427
62322SOL    HW188863   7.522   0.711   6.392
62322SOL    HW288864   7.564   0.567   6.370
62323SOL     OW88865   9.066   1.615   4.168
62323SOL    HW188866   9.070   1.519   4.169
62323SOL    HW288867   9.000   1.637   4.234
62324SOL     OW88868   6.514  11.503   4.602
62324SOL    HW188869   6.440  11.445   4.582
62324SOL    HW288870   6.562  11.458   4.671
62325SOL     OW88871   0.418  12.557   5.039
62325SOL    HW188872   0.439  12.466   5.018
62325SOL    HW288873   0.485  12.608   4.994
62326SOL     OW88874  12.652   5.952   5.025
62326SOL    HW188875  12.569   5.997   5.016
62326SOL    HW288876  12.675   5.962   5.117
62327SOL     OW88877   2.640   0.935  11.584
62327SOL    HW188878   2.566   0.968  11.634
62327SOL    HW288879   2.604   0.918  11.497
62328SOL     OW88880  12.597   0.466  10.352
62328SOL    HW188881  12.643   0.388  10.382
62328SOL    HW288882  12.639   0.488  10.268
62329SOL     OW88883   6.581   2.328   6.260
62329SOL    HW188884   6.537   2.244   6.246
62329SOL    HW288885   6.670   2.304   6.286
62330SOL     OW88886  14.313   1.501   6.943
62330SOL    HW188887  14.254   1.514   6.869
62330SOL    HW288888  14.274   1.552   7.014
62331SOL     OW88889   3.884   3.716  10.193
62331SOL    HW188890   3.856   3.697  10.283
62331SOL    HW288891   3.864   3.808  10.180
62332SOL     OW88892   2.091   3.029   8.118
62332SOL    HW188893   2.079   3.109   8.169
62332SOL    HW288894   2.173   2.992   8.152
62333SOL     OW88895   3.145   8.450  11.236
62333SOL    HW188896   3.203   8.432  11.310
62333SOL    HW288897   3.058   8.423  11.265
62334SOL     OW88898   7.587   3.062  13.829
62334SOL    HW188899   7.562   3.016  13.909
62334SOL    HW288900   7.525   3.134  13.821
62335SOL     OW88901  11.285  13.150   5.932
62335SOL    HW188902  11.339  13.083   5.890
62335SOL    HW288903  11.265  13.212   5.862
62336SOL     OW88904  13.463   2.326   3.166
62336SOL    HW188905  13.377   2.354   3.195
62336SOL    HW288906  13.478   2.374   3.085
62337SOL     OW88907  13.658   9.565  13.920
62337SOL    HW188908  13.712   9.498  13.878
62337SOL    HW288909  13.716   9.641  13.929
62338SOL     OW88910   7.560   4.666   2.795
62338SOL    HW188911   7.489   4.673   2.859
62338SOL    HW288912   7.570   4.755   2.761
62339SOL     OW88913   0.502  10.013  12.136
62339SOL    HW188914   0.450   9.963  12.199
62339SOL    HW288915   0.565   9.950  12.100
62340SOL     OW88916  13.910  12.655  10.339
62340SOL    HW188917  13.957  12.612  10.267
62340SOL    HW288918  13.974  12.661  10.410
62341SOL     OW88919   4.392  13.644   3.782
62341SOL    HW188920   4.426  13.623   3.695
62341SOL    HW288921   4.402  13.562   3.832
62342SOL     OW88922   9.524   4.728   1.791
62342SOL    HW188923   9.588   4.727   1.720
62342SOL    HW288924   9.569   4.770   1.864
62343SOL     OW88925   0.354   4.926  10.798
62343SOL    HW188926   0.344   4.985  10.723
62343SOL    HW288927   0.264   4.908  10.826
62344SOL     OW88928   1.903   8.412   1.067
62344SOL    HW188929   1.987   8.372   1.087
62344SOL    HW288930   1.868   8.439   1.152
62345SOL     OW88931  13.442   0.989  12.810
62345SOL    HW188932  13.448   0.897  12.835
62345SOL    HW288933  13.478   1.036  12.885
62346SOL     OW88934   1.574  13.363   9.287
62346SOL    HW188935   1.571  13.347   9.192
62346SOL    HW288936   1.482  13.377   9.311
62347SOL     OW88937  10.939  12.241   2.824
62347SOL    HW188938  10.898  12.155   2.827
62347SOL    HW288939  11.027  12.225   2.789
62348SOL     OW88940   4.821   7.812   9.149
62348SOL    HW188941   4.886   7.758   9.104
62348SOL    HW288942   4.750   7.823   9.086
62349SOL     OW88943  10.545   5.469   9.389
62349SOL    HW188944  10.531   5.482   9.295
62349SOL    HW288945  10.475   5.409   9.416
62350SOL     OW88946   4.773   2.358   1.099
62350SOL    HW188947   4.775   2.323   1.188
62350SOL    HW288948   4.681   2.355   1.073
62351SOL     OW88949   6.723  10.421   3.475
62351SOL    HW188950   6.798  10.468   3.512
62351SOL    HW288951   6.694  10.363   3.545
62352SOL     OW88952  12.147  10.592  13.638
62352SOL    HW188953  12.130  10.498  13.647
62352SOL    HW288954  12.091  10.632  13.705
62353SOL     OW88955   0.073  13.354  12.736
62353SOL    HW188956   0.065  13.411  12.659
62353SOL    HW288957   0.167  13.342  12.748
62354SOL     OW88958  12.206   5.212   8.409
62354SOL    HW188959  12.231   5.131   8.454
62354SOL    HW288960  12.288   5.248   8.375
62355SOL     OW88961   7.378   1.984  14.868
62355SOL    HW188962   7.406   2.042  14.797
62355SOL    HW288963   7.457   1.970   0.040
62356SOL     OW88964   8.354   3.683  11.574
62356SOL    HW188965   8.371   3.732  11.494
62356SOL    HW288966   8.288   3.618  11.549
62357SOL     OW88967  14.203  11.438  12.284
62357SOL    HW188968  14.142  11.390  12.339
62357SOL    HW288969  14.157  11.518  12.260
62358SOL     OW88970   4.131   9.984   2.299
62358SOL    HW188971   4.105   9.936   2.377
62358SOL    HW288972   4.182  10.058   2.332
62359SOL     OW88973   0.998   6.997  12.587
62359SOL    HW188974   1.005   7.041  12.672
62359SOL    HW288975   0.973   6.907  12.608
62360SOL     OW88976   2.401   3.554   5.340
62360SOL    HW188977   2.368   3.509   5.418
62360SOL    HW288978   2.346   3.632   5.332
62361SOL     OW88979   2.382   0.118   0.430
62361SOL    HW188980   2.431   0.160   0.501
62361SOL    HW288981   2.373   0.027   0.457
62362SOL     OW88982   9.944  14.238   5.145
62362SOL    HW188983   9.992  14.209   5.223
62362SOL    HW288984   9.912  14.157   5.105
62363SOL     OW88985  11.595   5.177  14.173
62363SOL    HW188986  11.598   5.183  14.269
62363SOL    HW288987  11.678   5.216  14.145
62364SOL     OW88988  13.524  14.381   8.915
62364SOL    HW188989  13.565  14.467   8.903
62364SOL    HW288990  13.591  14.328   8.958
62365SOL     OW88991  12.844   1.768   7.763
62365SOL    HW188992  12.800   1.716   7.696
62365SOL    HW288993  12.774   1.798   7.821
62366SOL     OW88994  14.638   9.793   9.122
62366SOL    HW188995  14.670   9.875   9.160
62366SOL    HW288996  14.674   9.724   9.179
62367SOL     OW88997   1.142   4.487   8.535
62367SOL    HW188998   1.052   4.498   8.566
62367SOL    HW288999   1.156   4.392   8.533
62368SOL     OW89000   8.922  11.590  10.969
62368SOL    HW189001   8.951  11.509  10.927
62368SOL    HW289002   8.995  11.651  10.957
62369SOL     OW89003   5.113   9.462  11.219
62369SOL    HW189004   5.033   9.447  11.168
62369SOL    HW289005   5.082   9.499  11.301
62370SOL     OW89006   2.366   1.571   4.730
62370SOL    HW189007   2.374   1.508   4.658
62370SOL    HW289008   2.363   1.656   4.687
62371SOL     OW89009   1.877   2.494   6.488
62371SOL    HW189010   1.844   2.522   6.574
62371SOL    HW289011   1.933   2.419   6.506
62372SOL     OW89012  12.814  10.414   4.687
62372SOL    HW189013  12.739  10.389   4.741
62372SOL    HW289014  12.876  10.342   4.698
62373SOL     OW89015   9.006   6.982   4.951
62373SOL    HW189016   8.923   7.029   4.939
62373SOL    HW289017   8.983   6.908   5.008
62374SOL     OW89018   0.558  13.159   1.051
62374SOL    HW189019   0.614  13.096   1.096
62374SOL    HW289020   0.613  13.237   1.041
62375SOL     OW89021  12.545  11.731   0.594
62375SOL    HW189022  12.574  11.785   0.520
62375SOL    HW289023  12.451  11.719   0.579
62376SOL     OW89024   3.676   2.304   6.603
62376SOL    HW189025   3.623   2.378   6.572
62376SOL    HW289026   3.648   2.230   6.549
62377SOL     OW89027   3.191  14.809   2.039
62377SOL    HW189028   3.128  14.832   1.970
62377SOL    HW289029   3.183  14.879   2.103
62378SOL     OW89030   4.928   9.110   2.449
62378SOL    HW189031   5.000   9.172   2.464
62378SOL    HW289032   4.873   9.152   2.383
62379SOL     OW89033  10.958  10.506   5.841
62379SOL    HW189034  11.015  10.581   5.857
62379SOL    HW289035  11.010  10.449   5.784
62380SOL     OW89036   6.938   6.278   9.731
62380SOL    HW189037   6.935   6.242   9.820
62380SOL    HW289038   7.031   6.293   9.714
62381SOL     OW89039   5.468   2.087   2.769
62381SOL    HW189040   5.414   2.143   2.825
62381SOL    HW289041   5.442   1.998   2.792
62382SOL     OW89042   0.356  12.506   7.786
62382SOL    HW189043   0.269  12.510   7.825
62382SOL    HW289044   0.416  12.508   7.861
62383SOL     OW89045   8.776  10.289   1.281
62383SOL    HW189046   8.865  10.272   1.249
62383SOL    HW289047   8.770  10.239   1.363
62384SOL     OW89048   0.231   7.424   9.082
62384SOL    HW189049   0.185   7.494   9.129
62384SOL    HW289050   0.214   7.345   9.133
62385SOL     OW89051   1.933  13.974  11.544
62385SOL    HW189052   1.845  13.990  11.578
62385SOL    HW289053   1.987  13.962  11.622
62386SOL     OW89054   4.512   9.024  13.167
62386SOL    HW189055   4.574   9.067  13.109
62386SOL    HW289056   4.486   9.092  13.230
62387SOL     OW89057   6.586   4.831   2.889
62387SOL    HW189058   6.581   4.902   2.953
62387SOL    HW289059   6.509   4.777   2.907
62388SOL     OW89060   2.283   3.816   8.717
62388SOL    HW189061   2.301   3.747   8.781
62388SOL    HW289062   2.365   3.864   8.709
62389SOL     OW89063  12.960   1.031  12.220
62389SOL    HW189064  13.015   1.083  12.279
62389SOL    HW289065  12.872   1.040  12.256
62390SOL     OW89066  14.527   8.310   2.950
62390SOL    HW189067  14.436   8.329   2.974
62390SOL    HW289068  14.577   8.328   3.030
62391SOL     OW89069   7.245   1.090   6.703
62391SOL    HW189070   7.259   1.001   6.671
62391SOL    HW289071   7.172   1.123   6.651
62392SOL     OW89072   9.865  14.600   8.730
62392SOL    HW189073   9.958  14.576   8.733
62392SOL    HW289074   9.836  14.598   8.821
62393SOL     OW89075   9.928   1.296   0.460
62393SOL    HW189076   9.916   1.229   0.393
62393SOL    HW289077   9.971   1.369   0.414
62394SOL     OW89078   5.873   6.892  11.198
62394SOL    HW189079   5.919   6.974  11.180
62394SOL    HW289080   5.872   6.885  11.294
62395SOL     OW89081   0.033  13.386  13.957
62395SOL    HW189082   0.013  13.466  13.909
62395SOL    HW289083  14.841  13.375  14.018
62396SOL     OW89084   3.789   6.842   0.593
62396SOL    HW189085   3.874   6.815   0.628
62396SOL    HW289086   3.766   6.920   0.643
62397SOL     OW89087   1.951   2.700  13.134
62397SOL    HW189088   2.020   2.739  13.187
62397SOL    HW289089   1.997   2.642  13.074
62398SOL     OW89090   4.479   6.491   9.548
62398SOL    HW189091   4.439   6.517   9.465
62398SOL    HW289092   4.443   6.404   9.565
62399SOL     OW89093  11.928   2.534   8.099
62399SOL    HW189094  11.903   2.603   8.161
62399SOL    HW289095  12.000   2.488   8.143
62400SOL     OW89096   4.202   0.236  10.046
62400SOL    HW189097   4.272   0.193   9.997
62400SOL    HW289098   4.218   0.330  10.035
62401SOL     OW89099   4.226  13.613   6.349
62401SOL    HW189100   4.147  13.595   6.399
62401SOL    HW289101   4.196  13.619   6.258
62402SOL     OW89102  13.767   5.270   5.708
62402SOL    HW189103  13.679   5.242   5.732
62402SOL    HW289104  13.807   5.192   5.668
62403SOL     OW89105   8.518  11.901   7.657
62403SOL    HW189106   8.549  11.895   7.747
62403SOL    HW289107   8.591  11.871   7.604
62404SOL     OW89108  13.664   9.922  11.799
62404SOL    HW189109  13.748   9.901  11.760
62404SOL    HW289110  13.631   9.995  11.748
62405SOL     OW89111   8.709  10.840   7.355
62405SOL    HW189112   8.747  10.753   7.364
62405SOL    HW289113   8.661  10.836   7.272
62406SOL     OW89114   8.629   6.172   3.087
62406SOL    HW189115   8.717   6.135   3.084
62406SOL    HW289116   8.633   6.238   3.156
62407SOL     OW89117   9.216   8.919  11.429
62407SOL    HW189118   9.222   8.936  11.335
62407SOL    HW289119   9.172   8.996  11.464
62408SOL     OW89120  13.236   8.076   3.652
62408SOL    HW189121  13.171   8.016   3.613
62408SOL    HW289122  13.300   8.018   3.693
62409SOL     OW89123   3.515   0.725   2.358
62409SOL    HW189124   3.545   0.803   2.405
62409SOL    HW289125   3.514   0.656   2.425
62410SOL     OW89126  12.796   6.915   5.954
62410SOL    HW189127  12.825   6.824   5.961
62410SOL    HW289128  12.704   6.909   5.926
62411SOL     OW89129  13.410   2.480   9.733
62411SOL    HW189130  13.323   2.456   9.764
62411SOL    HW289131  13.459   2.502   9.813
62412SOL     OW89132   1.290   7.642   5.142
62412SOL    HW189133   1.313   7.590   5.065
62412SOL    HW289134   1.360   7.625   5.205
62413SOL     OW89135   7.590   4.930  12.752
62413SOL    HW189136   7.628   4.990  12.688
62413SOL    HW289137   7.498   4.923  12.726
62414SOL     OW89138  12.273   4.112   1.217
62414SOL    HW189139  12.273   4.207   1.202
62414SOL    HW289140  12.200   4.079   1.164
62415SOL     OW89141   8.245   7.518  11.433
62415SOL    HW189142   8.284   7.472  11.507
62415SOL    HW289143   8.181   7.457  11.397
62416SOL     OW89144   9.356  13.401   0.829
62416SOL    HW189145   9.339  13.337   0.760
62416SOL    HW289146   9.435  13.368   0.873
62417SOL     OW89147  12.479   9.241   5.014
62417SOL    HW189148  12.384   9.233   5.016
62417SOL    HW289149  12.503   9.261   5.104
62418SOL     OW89150   5.361   1.167   4.599
62418SOL    HW189151   5.372   1.237   4.663
62418SOL    HW289152   5.304   1.206   4.532
62419SOL     OW89153   9.027  14.606   1.548
62419SOL    HW189154   8.952  14.570   1.500
62419SOL    HW289155   9.103  14.583   1.494
62420SOL     OW89156   2.213  10.080   1.970
62420SOL    HW189157   2.158  10.105   1.896
62420SOL    HW289158   2.283  10.146   1.971
62421SOL     OW89159  10.303   7.890   1.664
62421SOL    HW189160  10.363   7.861   1.733
62421SOL    HW289161  10.334   7.847   1.585
62422SOL     OW89162   7.125   4.089   5.964
62422SOL    HW189163   7.071   4.018   5.998
62422SOL    HW289164   7.192   4.103   6.031
62423SOL     OW89165   4.373   6.770   3.609
62423SOL    HW189166   4.306   6.718   3.655
62423SOL    HW289167   4.445   6.709   3.595
62424SOL     OW89168  11.122  14.792  11.890
62424SOL    HW189169  11.033  14.818  11.866
62424SOL    HW289170  11.174  14.870  11.875
62425SOL     OW89171   2.808   4.997   5.741
62425SOL    HW189172   2.869   5.061   5.779
62425SOL    HW289173   2.837   4.987   5.651
62426SOL     OW89174   9.098  10.111   6.722
62426SOL    HW189175   9.069  10.142   6.636
62426SOL    HW289176   9.017  10.091   6.769
62427SOL     OW89177   8.253   3.882   8.578
62427SOL    HW189178   8.179   3.900   8.635
62427SOL    HW289179   8.243   3.942   8.505
62428SOL     OW89180   5.742  12.208   9.716
62428SOL    HW189181   5.798  12.249   9.782
62428SOL    HW289182   5.788  12.223   9.633
62429SOL     OW89183  10.944   4.597   0.574
62429SOL    HW189184  10.943   4.538   0.498
62429SOL    HW289185  11.036   4.615   0.590
62430SOL     OW89186  11.484   2.910   1.136
62430SOL    HW189187  11.426   2.843   1.173
62430SOL    HW289188  11.549   2.925   1.205
62431SOL     OW89189  12.296   9.956   4.811
62431SOL    HW189190  12.382   9.913   4.812
62431SOL    HW289191  12.299  10.016   4.886
62432SOL     OW89192   5.731  11.995   9.361
62432SOL    HW189193   5.731  12.085   9.330
62432SOL    HW289194   5.652  11.956   9.323
62433SOL     OW89195   1.198  11.348   8.659
62433SOL    HW189196   1.242  11.420   8.705
62433SOL    HW289197   1.234  11.352   8.571
62434SOL     OW89198   3.492  12.593   9.635
62434SOL    HW189199   3.543  12.671   9.657
62434SOL    HW289200   3.460  12.610   9.546
62435SOL     OW89201   4.230  10.816   2.678
62435SOL    HW189202   4.200  10.906   2.664
62435SOL    HW289203   4.230  10.777   2.590
62436SOL     OW89204   8.362   6.965   3.710
62436SOL    HW189205   8.284   6.911   3.714
62436SOL    HW289206   8.433   6.908   3.740
62437SOL     OW89207   5.998   2.616   5.924
62437SOL    HW189208   5.902   2.613   5.923
62437SOL    HW289209   6.022   2.647   5.837
62438SOL     OW89210  11.950   5.581   7.234
62438SOL    HW189211  11.997   5.556   7.313
62438SOL    HW289212  11.916   5.669   7.252
62439SOL     OW89213   4.532   2.391   2.916
62439SOL    HW189214   4.605   2.332   2.935
62439SOL    HW289215   4.555   2.432   2.833
62440SOL     OW89216  12.854   6.656  13.777
62440SOL    HW189217  12.909   6.616  13.844
62440SOL    HW289218  12.767   6.659  13.816
62441SOL     OW89219   3.826   8.454   0.289
62441SOL    HW189220   3.832   8.548   0.306
62441SOL    HW289221   3.734   8.438   0.272
62442SOL     OW89222   3.273  10.668  13.421
62442SOL    HW189223   3.323  10.745  13.448
62442SOL    HW289224   3.338  10.598  13.417
62443SOL     OW89225  11.636  11.415   3.710
62443SOL    HW189226  11.630  11.501   3.751
62443SOL    HW289227  11.600  11.428   3.622
62444SOL     OW89228   8.978   7.263   9.249
62444SOL    HW189229   8.923   7.192   9.216
62444SOL    HW289230   8.916   7.329   9.279
62445SOL     OW89231   8.937   9.007   9.609
62445SOL    HW189232   8.901   9.008   9.520
62445SOL    HW289233   8.865   8.978   9.664
62446SOL     OW89234  10.919  10.652   1.654
62446SOL    HW189235  10.889  10.642   1.564
62446SOL    HW289236  11.011  10.676   1.647
62447SOL     OW89237   3.311  11.859   7.629
62447SOL    HW189238   3.277  11.811   7.553
62447SOL    HW289239   3.369  11.925   7.591
62448SOL     OW89240   1.584   6.171   4.643
62448SOL    HW189241   1.564   6.139   4.555
62448SOL    HW289242   1.674   6.203   4.637
62449SOL     OW89243   5.594  12.261   3.620
62449SOL    HW189244   5.633  12.286   3.704
62449SOL    HW289245   5.504  12.238   3.640
62450SOL     OW89246   5.102  12.830  11.979
62450SOL    HW189247   5.123  12.767  11.909
62450SOL    HW289248   5.140  12.792  12.058
62451SOL     OW89249   3.270   4.332   2.290
62451SOL    HW189250   3.199   4.308   2.349
62451SOL    HW289251   3.314   4.250   2.271
62452SOL     OW89252   3.130  10.505   6.506
62452SOL    HW189253   3.055  10.445   6.507
62452SOL    HW289254   3.099  10.582   6.553
62453SOL     OW89255   8.125   3.404  10.334
62453SOL    HW189256   8.106   3.420  10.242
62453SOL    HW289257   8.098   3.314  10.349
62454SOL     OW89258   4.416  12.104   0.861
62454SOL    HW189259   4.394  12.018   0.824
62454SOL    HW289260   4.367  12.107   0.943
62455SOL     OW89261   4.672   0.380   8.639
62455SOL    HW189262   4.705   0.446   8.578
62455SOL    HW289263   4.709   0.406   8.724
62456SOL     OW89264  11.816  11.041   5.353
62456SOL    HW189265  11.883  10.986   5.392
62456SOL    HW289266  11.788  10.994   5.274
62457SOL     OW89267  12.362   7.106   1.205
62457SOL    HW189268  12.314   7.060   1.136
62457SOL    HW289269  12.386   7.037   1.267
62458SOL     OW89270   1.931  14.751   3.865
62458SOL    HW189271   1.969  14.681   3.919
62458SOL    HW289272   2.006  14.805   3.840
62459SOL     OW89273   5.173   5.409  13.038
62459SOL    HW189274   5.138   5.495  13.017
62459SOL    HW289275   5.229   5.423  13.114
62460SOL     OW89276   9.684   0.923   8.645
62460SOL    HW189277   9.643   0.938   8.730
62460SOL    HW289278   9.748   0.995   8.636
62461SOL     OW89279   7.017  12.486  13.579
62461SOL    HW189280   6.947  12.445  13.629
62461SOL    HW289281   7.071  12.414  13.548
62462SOL     OW89282   3.369   3.837   8.255
62462SOL    HW189283   3.413   3.838   8.340
62462SOL    HW289284   3.326   3.922   8.250
62463SOL     OW89285   3.601   9.621  12.150
62463SOL    HW189286   3.573   9.530  12.141
62463SOL    HW289287   3.600   9.637  12.245
62464SOL     OW89288   6.193  11.227   9.043
62464SOL    HW189289   6.248  11.235   8.966
62464SOL    HW289290   6.189  11.315   9.079
62465SOL     OW89291   5.529  12.722  12.780
62465SOL    HW189292   5.550  12.775  12.704
62465SOL    HW289293   5.527  12.632  12.747
62466SOL     OW89294  11.616   6.500   3.275
62466SOL    HW189295  11.604   6.571   3.213
62466SOL    HW289296  11.654   6.542   3.352
62467SOL     OW89297   7.156   4.770   5.714
62467SOL    HW189298   7.175   4.684   5.750
62467SOL    HW289299   7.061   4.771   5.701
62468SOL     OW89300   0.050   2.023   0.520
62468SOL    HW189301   0.028   1.930   0.510
62468SOL    HW289302   0.031   2.062   0.434
62469SOL     OW89303   3.793   9.032   0.695
62469SOL    HW189304   3.704   9.058   0.672
62469SOL    HW289305   3.825   8.984   0.619
62470SOL     OW89306  12.428  11.729   5.264
62470SOL    HW189307  12.513  11.770   5.252
62470SOL    HW289308  12.388  11.777   5.337
62471SOL     OW89309  11.529   1.208   2.472
62471SOL    HW189310  11.572   1.248   2.396
62471SOL    HW289311  11.602   1.182   2.529
62472SOL     OW89312   3.484  10.791   6.596
62472SOL    HW189313   3.426  10.771   6.522
62472SOL    HW289314   3.554  10.726   6.589
62473SOL     OW89315  13.242   0.913   3.834
62473SOL    HW189316  13.335   0.919   3.853
62473SOL    HW289317  13.200   0.972   3.896
62474SOL     OW89318   3.128  14.107  10.761
62474SOL    HW189319   3.192  14.100  10.832
62474SOL    HW289320   3.176  14.084  10.682
62475SOL     OW89321  14.229   2.420   3.264
62475SOL    HW189322  14.261   2.334   3.293
62475SOL    HW289323  14.165   2.445   3.329
62476SOL     OW89324   9.549   8.037   7.427
62476SOL    HW189325   9.534   8.091   7.505
62476SOL    HW289326   9.516   7.950   7.452
62477SOL     OW89327   7.383   8.698   1.845
62477SOL    HW189328   7.381   8.603   1.858
62477SOL    HW289329   7.443   8.730   1.913
62478SOL     OW89330   0.483   2.709  13.840
62478SOL    HW189331   0.393   2.706  13.807
62478SOL    HW289332   0.508   2.802  13.835
62479SOL     OW89333   6.289  11.631  13.855
62479SOL    HW189334   6.356  11.616  13.922
62479SOL    HW289335   6.207  11.608  13.898
62480SOL     OW89336  13.460  10.004   2.173
62480SOL    HW189337  13.409   9.932   2.137
62480SOL    HW289338  13.530  10.019   2.110
62481SOL     OW89339   1.578  10.125   9.226
62481SOL    HW189340   1.673  10.133   9.216
62481SOL    HW289341   1.567  10.046   9.279
62482SOL     OW89342   4.907   0.557  12.313
62482SOL    HW189343   4.871   0.605  12.239
62482SOL    HW289344   4.944   0.477  12.275
62483SOL     OW89345  13.776  13.319   0.422
62483SOL    HW189346  13.764  13.395   0.365
62483SOL    HW289347  13.694  13.270   0.412
62484SOL     OW89348  11.422   6.746  14.287
62484SOL    HW189349  11.375   6.675  14.331
62484SOL    HW289350  11.474   6.702  14.219
62485SOL     OW89351  10.505   1.800   0.780
62485SOL    HW189352  10.421   1.808   0.824
62485SOL    HW289353  10.513   1.880   0.729
62486SOL     OW89354   7.201   2.305   4.037
62486SOL    HW189355   7.124   2.249   4.048
62486SOL    HW289356   7.219   2.303   3.943
62487SOL     OW89357   5.799   6.131   9.937
62487SOL    HW189358   5.873   6.133   9.876
62487SOL    HW289359   5.840   6.125  10.023
62488SOL     OW89360   8.294   8.880   6.480
62488SOL    HW189361   8.246   8.963   6.476
62488SOL    HW289362   8.230   8.815   6.449
62489SOL     OW89363   4.966   3.772   7.726
62489SOL    HW189364   4.936   3.861   7.746
62489SOL    HW289365   4.907   3.742   7.657
62490SOL     OW89366   7.785  13.584  10.246
62490SOL    HW189367   7.780  13.672  10.208
62490SOL    HW289368   7.855  13.590  10.311
62491SOL     OW89369   0.820   0.026   4.865
62491SOL    HW189370   0.805  14.818   4.897
62491SOL    HW289371   0.841   0.077   4.943
62492SOL     OW89372   0.948  14.859   3.461
62492SOL    HW189373   0.924   0.025   3.542
62492SOL    HW289374   1.005  14.788   3.490
62493SOL     OW89375   2.387  11.541  13.485
62493SOL    HW189376   2.300  11.502  13.480
62493SOL    HW289377   2.377  11.615  13.545
62494SOL     OW89378  12.244  13.566   0.366
62494SOL    HW189379  12.194  13.647   0.361
62494SOL    HW289380  12.193  13.503   0.315
62495SOL     OW89381   7.055   3.100   7.208
62495SOL    HW189382   7.130   3.058   7.167
62495SOL    HW289383   6.986   3.033   7.207
62496SOL     OW89384   4.430   6.843  14.686
62496SOL    HW189385   4.519   6.876  14.681
62496SOL    HW289386   4.377   6.918  14.715
62497SOL     OW89387   7.423   5.243   3.649
62497SOL    HW189388   7.497   5.186   3.633
62497SOL    HW289389   7.444   5.289   3.730
62498SOL     OW89390  12.510   1.700   8.800
62498SOL    HW189391  12.498   1.791   8.825
62498SOL    HW289392  12.487   1.650   8.878
62499SOL     OW89393  10.756  10.961  13.769
62499SOL    HW189394  10.709  11.044  13.758
62499SOL    HW289395  10.822  10.962  13.700
62500SOL     OW89396   8.660   8.199  14.516
62500SOL    HW189397   8.709   8.146  14.453
62500SOL    HW289398   8.706   8.185  14.599
62501SOL     OW89399  10.795  12.673   4.960
62501SOL    HW189400  10.736  12.677   4.885
62501SOL    HW289401  10.856  12.602   4.940
62502SOL     OW89402   7.000   6.950   8.350
62502SOL    HW189403   7.092   6.942   8.373
62502SOL    HW289404   6.972   7.031   8.392
62503SOL     OW89405   2.596  13.386   1.295
62503SOL    HW189406   2.593  13.388   1.391
62503SOL    HW289407   2.671  13.441   1.273
62504SOL     OW89408   1.264   9.363  12.895
62504SOL    HW189409   1.347   9.338  12.855
62504SOL    HW289410   1.246   9.293  12.959
62505SOL     OW89411   3.292   2.995   1.847
62505SOL    HW189412   3.349   3.071   1.863
62505SOL    HW289413   3.289   2.950   1.932
62506SOL     OW89414  14.859  14.487  14.027
62506SOL    HW189415   0.070  14.468  14.006
62506SOL    HW289416  14.863  14.555  14.094
62507SOL     OW89417   7.760   3.373   7.104
62507SOL    HW189418   7.829   3.340   7.047
62507SOL    HW289419   7.736   3.299   7.158
62508SOL     OW89420   1.919  11.240   9.708
62508SOL    HW189421   1.843  11.286   9.743
62508SOL    HW289422   1.992  11.301   9.719
62509SOL     OW89423   0.791   5.993   8.812
62509SOL    HW189424   0.735   5.976   8.887
62509SOL    HW289425   0.807   6.088   8.814
62510SOL     OW89426   7.333   0.011  12.816
62510SOL    HW189427   7.293  14.851  12.739
62510SOL    HW289428   7.260   0.028  12.875
62511SOL     OW89429   3.430   9.543   7.825
62511SOL    HW189430   3.356   9.593   7.790
62511SOL    HW289431   3.405   9.452   7.815
62512SOL     OW89432  13.201  11.330  11.426
62512SOL    HW189433  13.133  11.387  11.389
62512SOL    HW289434  13.189  11.335  11.520
62513SOL     OW89435   7.355   3.130   1.886
62513SOL    HW189436   7.394   3.077   1.956
62513SOL    HW289437   7.378   3.220   1.909
62514SOL     OW89438  11.599  10.512   7.746
62514SOL    HW189439  11.554  10.483   7.825
62514SOL    HW289440  11.531  10.553   7.693
62515SOL     OW89441  12.203   7.149  12.063
62515SOL    HW189442  12.153   7.141  12.144
62515SOL    HW289443  12.229   7.241  12.059
62516SOL     OW89444  10.655   4.800   4.267
62516SOL    HW189445  10.697   4.884   4.287
62516SOL    HW289446  10.722   4.735   4.286
62517SOL     OW89447  10.553   8.884  11.534
62517SOL    HW189448  10.482   8.867  11.472
62517SOL    HW289449  10.607   8.950  11.491
62518SOL     OW89450   4.999   9.902  14.049
62518SOL    HW189451   5.092   9.880  14.059
62518SOL    HW289452   4.974   9.937  14.135
62519SOL     OW89453   9.969   6.492  13.571
62519SOL    HW189454  10.001   6.429  13.507
62519SOL    HW289455   9.902   6.542  13.524
62520SOL     OW89456   4.481   7.239  10.420
62520SOL    HW189457   4.506   7.226  10.328
62520SOL    HW289458   4.510   7.159  10.464
62521SOL     OW89459  11.594   1.555   5.554
62521SOL    HW189460  11.509   1.578   5.590
62521SOL    HW289461  11.590   1.460   5.542
62522SOL     OW89462  14.027   1.875  14.684
62522SOL    HW189463  14.016   1.796  14.631
62522SOL    HW289464  14.120   1.898  14.674
62523SOL     OW89465   0.479  14.608   4.688
62523SOL    HW189466   0.567  14.583   4.661
62523SOL    HW289467   0.457  14.546   4.758
62524SOL     OW89468   9.013   3.507   0.467
62524SOL    HW189469   9.030   3.596   0.496
62524SOL    HW289470   9.046   3.504   0.377
62525SOL     OW89471   3.386   4.111  14.710
62525SOL    HW189472   3.349   4.024  14.695
62525SOL    HW289473   3.328   4.171  14.663
62526SOL     OW89474   1.082  10.372   7.159
62526SOL    HW189475   1.168  10.347   7.126
62526SOL    HW289476   1.100  10.425   7.237
62527SOL     OW89477   8.779   7.820   8.214
62527SOL    HW189478   8.721   7.830   8.138
62527SOL    HW289479   8.756   7.893   8.271
62528SOL     OW89480   2.388   1.396   9.212
62528SOL    HW189481   2.351   1.484   9.223
62528SOL    HW289482   2.433   1.379   9.294
62529SOL     OW89483   1.506   4.977  14.683
62529SOL    HW189484   1.481   5.068  14.670
62529SOL    HW289485   1.568   4.958  14.612
62530SOL     OW89486   4.598  12.508   8.493
62530SOL    HW189487   4.677  12.558   8.474
62530SOL    HW289488   4.562  12.486   8.407
62531SOL     OW89489   7.127   6.162  13.163
62531SOL    HW189490   7.196   6.113  13.119
62531SOL    HW289491   7.129   6.249  13.123
62532SOL     OW89492  12.858   9.728   7.427
62532SOL    HW189493  12.950   9.713   7.405
62532SOL    HW289494  12.848   9.823   7.419
62533SOL     OW89495   1.654  11.144   9.332
62533SOL    HW189496   1.604  11.120   9.254
62533SOL    HW289497   1.689  11.231   9.312
62534SOL     OW89498   3.102   9.982   8.973
62534SOL    HW189499   3.056  10.065   8.989
62534SOL    HW289500   3.132   9.989   8.883
62535SOL     OW89501  13.858   4.958  10.861
62535SOL    HW189502  13.770   4.995  10.858
62535SOL    HW289503  13.894   4.974  10.774
62536SOL     OW89504   2.415  13.191   6.100
62536SOL    HW189505   2.404  13.106   6.142
62536SOL    HW289506   2.505  13.191   6.067
62537SOL     OW89507   3.224   1.804   4.523
62537SOL    HW189508   3.232   1.834   4.432
62537SOL    HW289509   3.163   1.730   4.518
62538SOL     OW89510   4.323   0.230  14.055
62538SOL    HW189511   4.359   0.155  14.008
62538SOL    HW289512   4.396   0.293  14.058
62539SOL     OW89513  11.532   9.034   2.652
62539SOL    HW189514  11.452   9.067   2.694
62539SOL    HW289515  11.588   9.007   2.725
62540SOL     OW89516   7.625  10.443   4.246
62540SOL    HW189517   7.533  10.430   4.270
62540SOL    HW289518   7.638  10.389   4.168
62541SOL     OW89519   1.025   0.109   4.445
62541SOL    HW189520   1.084   0.055   4.392
62541SOL    HW289521   1.019   0.191   4.396
62542SOL     OW89522   2.150   3.341  14.770
62542SOL    HW189523   2.088   3.380  14.832
62542SOL    HW289524   2.221   3.405  14.763
62543SOL     OW89525   8.777  12.481  12.840
62543SOL    HW189526   8.857  12.433  12.860
62543SOL    HW289527   8.732  12.427  12.776
62544SOL     OW89528   0.235   0.642   2.959
62544SOL    HW189529   0.275   0.729   2.961
62544SOL    HW289530   0.303   0.583   2.991
62545SOL     OW89531  12.757  12.076  13.506
62545SOL    HW189532  12.686  12.030  13.552
62545SOL    HW289533  12.711  12.140  13.451
62546SOL     OW89534  12.911  11.072   1.063
62546SOL    HW189535  12.894  10.985   1.101
62546SOL    HW289536  12.848  11.129   1.107
62547SOL     OW89537   6.727  10.380   9.909
62547SOL    HW189538   6.724  10.290   9.943
62547SOL    HW289539   6.636  10.402   9.893
62548SOL     OW89540  10.299   5.219  10.329
62548SOL    HW189541  10.343   5.180  10.404
62548SOL    HW289542  10.308   5.154  10.259
62549SOL     OW89543   7.370   1.059   3.937
62549SOL    HW189544   7.282   1.046   3.973
62549SOL    HW289545   7.391   1.150   3.958
62550SOL     OW89546  10.788   4.870   5.894
62550SOL    HW189547  10.854   4.822   5.943
62550SOL    HW289548  10.759   4.939   5.954
62551SOL     OW89549   0.732  13.673   4.422
62551SOL    HW189550   0.759  13.594   4.374
62551SOL    HW289551   0.721  13.644   4.512
62552SOL     OW89552   4.271   2.650  10.495
62552SOL    HW189553   4.221   2.715  10.445
62552SOL    HW289554   4.210   2.619  10.561
62553SOL     OW89555   8.946   7.505   2.427
62553SOL    HW189556   8.909   7.504   2.515
62553SOL    HW289557   8.959   7.598   2.407
62554SOL     OW89558   2.738   2.868   5.404
62554SOL    HW189559   2.828   2.901   5.412
62554SOL    HW289560   2.683   2.938   5.438
62555SOL     OW89561   4.569   7.707   4.197
62555SOL    HW189562   4.618   7.658   4.130
62555SOL    HW289563   4.565   7.796   4.162
62556SOL     OW89564  14.194  10.524   2.665
62556SOL    HW189565  14.210  10.575   2.586
62556SOL    HW289566  14.262  10.551   2.726
62557SOL     OW89567  11.417  13.342   5.322
62557SOL    HW189568  11.377  13.309   5.403
62557SOL    HW289569  11.343  13.365   5.266
62558SOL     OW89570   7.165   1.290  14.083
62558SOL    HW189571   7.244   1.343  14.086
62558SOL    HW289572   7.190   1.207  14.122
62559SOL     OW89573   1.973   9.753   4.684
62559SOL    HW189574   1.936   9.678   4.638
62559SOL    HW289575   1.905   9.779   4.746
62560SOL     OW89576   4.454   7.369   0.273
62560SOL    HW189577   4.489   7.454   0.301
62560SOL    HW289578   4.489   7.357   0.184
62561SOL     OW89579   9.263   4.684   9.771
62561SOL    HW189580   9.288   4.662   9.860
62561SOL    HW289581   9.342   4.669   9.719
62562SOL     OW89582  11.276   0.738   4.677
62562SOL    HW189583  11.213   0.763   4.609
62562SOL    HW289584  11.322   0.819   4.697
62563SOL     OW89585   5.856  14.771  11.293
62563SOL    HW189586   5.839  14.679  11.313
62563SOL    HW289587   5.866  14.772  11.198
62564SOL     OW89588   0.641  11.062   9.421
62564SOL    HW189589   0.664  11.012   9.343
62564SOL    HW289590   0.665  11.005   9.494
62565SOL     OW89591   9.307   5.191  14.200
62565SOL    HW189592   9.314   5.143  14.282
62565SOL    HW289593   9.257   5.269  14.222
62566SOL     OW89594   9.428   0.743   4.586
62566SOL    HW189595   9.456   0.755   4.677
62566SOL    HW289596   9.334   0.730   4.591
62567SOL     OW89597   9.154  11.057  10.464
62567SOL    HW189598   9.216  10.987  10.445
62567SOL    HW289599   9.175  11.126  10.402
62568SOL     OW89600  14.593  10.337  10.922
62568SOL    HW189601  14.638  10.364  11.002
62568SOL    HW289602  14.516  10.289  10.952
62569SOL     OW89603   8.772  13.482   1.530
62569SOL    HW189604   8.768  13.454   1.438
62569SOL    HW289605   8.785  13.577   1.526
62570SOL     OW89606   7.002   5.285   7.129
62570SOL    HW189607   6.977   5.363   7.179
62570SOL    HW289608   7.087   5.308   7.092
62571SOL     OW89609   7.703   8.725   3.039
62571SOL    HW189610   7.710   8.688   2.951
62571SOL    HW289611   7.660   8.657   3.091
62572SOL     OW89612   2.244   7.720   2.461
62572SOL    HW189613   2.257   7.645   2.519
62572SOL    HW289614   2.157   7.754   2.483
62573SOL     OW89615   8.538   0.161  11.740
62573SOL    HW189616   8.445   0.163  11.720
62573SOL    HW289617   8.580   0.200  11.663
62574SOL     OW89618   7.500   3.966  14.143
62574SOL    HW189619   7.546   3.997  14.065
62574SOL    HW289620   7.473   4.046  14.188
62575SOL     OW89621   2.069   0.503  12.267
62575SOL    HW189622   2.120   0.423  12.270
62575SOL    HW289623   2.003   0.487  12.199
62576SOL     OW89624  13.538   8.474  11.954
62576SOL    HW189625  13.517   8.479  12.047
62576SOL    HW289626  13.478   8.410  11.918
62577SOL     OW89627   2.050   5.494  14.517
62577SOL    HW189628   2.017   5.498  14.606
62577SOL    HW289629   2.113   5.566  14.511
62578SOL     OW89630  14.749  14.404   4.131
62578SOL    HW189631  14.684  14.445   4.073
62578SOL    HW289632  14.831  14.446   4.107
62579SOL     OW89633  10.672   4.555  11.358
62579SOL    HW189634  10.760   4.526  11.386
62579SOL    HW289635  10.670   4.648  11.377
62580SOL     OW89636   2.323   2.377   4.493
62580SOL    HW189637   2.379   2.416   4.560
62580SOL    HW289638   2.270   2.450   4.461
62581SOL     OW89639   1.155   8.211   6.332
62581SOL    HW189640   1.154   8.145   6.262
62581SOL    HW289641   1.134   8.161   6.412
62582SOL     OW89642   3.941  14.430   2.592
62582SOL    HW189643   4.037  14.425   2.590
62582SOL    HW289644   3.913  14.339   2.579
62583SOL     OW89645   7.792   1.661   8.093
62583SOL    HW189646   7.841   1.705   8.163
62583SOL    HW289647   7.856   1.648   8.023
62584SOL     OW89648   6.548   0.723   9.908
62584SOL    HW189649   6.627   0.670   9.923
62584SOL    HW289650   6.551   0.790   9.976
62585SOL     OW89651   8.066   8.083   1.188
62585SOL    HW189652   8.099   8.113   1.273
62585SOL    HW289653   8.099   7.994   1.179
62586SOL     OW89654  10.240  14.658   5.682
62586SOL    HW189655  10.226  14.640   5.589
62586SOL    HW289656  10.264  14.751   5.684
62587SOL     OW89657   0.617   5.798  11.736
62587SOL    HW189658   0.618   5.829  11.827
62587SOL    HW289659   0.707   5.810  11.706
62588SOL     OW89660  10.512   1.946   4.771
62588SOL    HW189661  10.477   1.857   4.768
62588SOL    HW289662  10.495   1.982   4.684
62589SOL     OW89663  14.031  13.692  12.480
62589SOL    HW189664  14.045  13.701  12.574
62589SOL    HW289665  13.995  13.776  12.453
62590SOL     OW89666  14.080   3.537   5.412
62590SOL    HW189667  14.062   3.613   5.356
62590SOL    HW289668  13.995   3.495   5.424
62591SOL     OW89669   1.644   6.299   7.626
62591SOL    HW189670   1.683   6.290   7.538
62591SOL    HW289671   1.684   6.228   7.676
62592SOL     OW89672   6.286  14.361   8.851
62592SOL    HW189673   6.224  14.298   8.815
62592SOL    HW289674   6.362  14.356   8.793
62593SOL     OW89675  14.089   0.806   3.222
62593SOL    HW189676  14.019   0.761   3.268
62593SOL    HW289677  14.153   0.737   3.201
62594SOL     OW89678  12.680   8.443   0.299
62594SOL    HW189679  12.759   8.492   0.320
62594SOL    HW289680  12.625   8.451   0.378
62595SOL     OW89681   6.674   2.850  10.827
62595SOL    HW189682   6.749   2.909  10.822
62595SOL    HW289683   6.696   2.778  10.768
62596SOL     OW89684   2.698  10.884   4.289
62596SOL    HW189685   2.632  10.847   4.230
62596SOL    HW289686   2.649  10.948   4.342
62597SOL     OW89687   0.398  13.460  13.306
62597SOL    HW189688   0.319  13.412  13.332
62597SOL    HW289689   0.413  13.432  13.215
62598SOL     OW89690   5.115   8.997  13.477
62598SOL    HW189691   5.077   8.972  13.393
62598SOL    HW289692   5.196   8.947  13.483
62599SOL     OW89693   0.584   2.505   0.784
62599SOL    HW189694   0.570   2.411   0.796
62599SOL    HW289695   0.499   2.537   0.752
62600SOL     OW89696   9.683   1.858  14.416
62600SOL    HW189697   9.625   1.797  14.462
62600SOL    HW289698   9.701   1.817  14.332
62601SOL     OW89699   9.380   0.488  12.622
62601SOL    HW189700   9.441   0.422  12.591
62601SOL    HW289701   9.310   0.438  12.664
62602SOL     OW89702   9.489   8.286  14.647
62602SOL    HW189703   9.567   8.231  14.657
62602SOL    HW289704   9.415   8.226  14.652
62603SOL     OW89705   8.158   2.604   4.416
62603SOL    HW189706   8.238   2.645   4.385
62603SOL    HW289707   8.122   2.559   4.339
62604SOL     OW89708  11.224   0.236   5.627
62604SOL    HW189709  11.215   0.224   5.721
62604SOL    HW289710  11.183   0.321   5.610
62605SOL     OW89711   8.366   2.909   4.420
62605SOL    HW189712   8.382   2.970   4.492
62605SOL    HW289713   8.291   2.946   4.373
62606SOL     OW89714   6.137   2.358   6.887
62606SOL    HW189715   6.186   2.279   6.909
62606SOL    HW289716   6.189   2.400   6.819
62607SOL     OW89717   4.211   0.620   1.739
62607SOL    HW189718   4.129   0.621   1.691
62607SOL    HW289719   4.261   0.548   1.701
62608SOL     OW89720  11.313   6.661   5.427
62608SOL    HW189721  11.218   6.668   5.413
62608SOL    HW289722  11.346   6.748   5.407
62609SOL     OW89723  11.546   6.247   2.750
62609SOL    HW189724  11.611   6.221   2.815
62609SOL    HW289725  11.513   6.331   2.783
62610SOL     OW89726   5.854   5.975   8.412
62610SOL    HW189727   5.903   5.957   8.492
62610SOL    HW289728   5.808   5.894   8.393
62611SOL     OW89729  14.055   1.879  13.441
62611SOL    HW189730  14.075   1.964  13.403
62611SOL    HW289731  14.140   1.839  13.456
62612SOL     OW89732  10.225   8.327   6.042
62612SOL    HW189733  10.201   8.405   5.993
62612SOL    HW289734  10.240   8.358   6.131
62613SOL     OW89735  13.316  14.390   9.963
62613SOL    HW189736  13.369  14.391   9.884
62613SOL    HW289737  13.372  14.348  10.029
62614SOL     OW89738   9.982   9.333   7.569
62614SOL    HW189739   9.977   9.409   7.626
62614SOL    HW289740   9.989   9.369   7.481
62615SOL     OW89741   0.635  11.028   2.713
62615SOL    HW189742   0.709  11.030   2.774
62615SOL    HW289743   0.673  11.054   2.629
62616SOL     OW89744   8.366  10.226  12.399
62616SOL    HW189745   8.429  10.280  12.447
62616SOL    HW289746   8.412  10.143  12.385
62617SOL     OW89747   5.324   7.737  11.891
62617SOL    HW189748   5.407   7.717  11.848
62617SOL    HW289749   5.266   7.665  11.865
62618SOL     OW89750   8.745   9.791   2.037
62618SOL    HW189751   8.759   9.734   1.961
62618SOL    HW289752   8.668   9.754   2.081
62619SOL     OW89753   6.847   7.608  10.368
62619SOL    HW189754   6.860   7.523  10.327
62619SOL    HW289755   6.932   7.630  10.405
62620SOL     OW89756  12.214   7.237   7.596
62620SOL    HW189757  12.132   7.284   7.612
62620SOL    HW289758  12.193   7.145   7.611
62621SOL     OW89759   3.042   3.285   5.399
62621SOL    HW189760   3.049   3.195   5.432
62621SOL    HW289761   2.950   3.294   5.374
62622SOL     OW89762   5.704   2.168  13.426
62622SOL    HW189763   5.718   2.190  13.518
62622SOL    HW289764   5.756   2.232  13.377
62623SOL     OW89765   6.588   9.443   0.442
62623SOL    HW189766   6.615   9.385   0.513
62623SOL    HW289767   6.669   9.469   0.399
62624SOL     OW89768   5.056  13.750   3.371
62624SOL    HW189769   5.069  13.696   3.294
62624SOL    HW289770   4.964  13.774   3.369
62625SOL     OW89771  10.949   9.888   9.352
62625SOL    HW189772  10.936   9.794   9.367
62625SOL    HW289773  11.024   9.893   9.293
62626SOL     OW89774   3.606   9.382   4.768
62626SOL    HW189775   3.590   9.350   4.679
62626SOL    HW289776   3.644   9.307   4.814
62627SOL     OW89777   9.994  12.384  14.724
62627SOL    HW189778   9.920  12.332  14.692
62627SOL    HW289779   9.954  12.452  14.777
62628SOL     OW89780  11.653   1.668   2.851
62628SOL    HW189781  11.596   1.592   2.859
62628SOL    HW289782  11.655   1.686   2.757
62629SOL     OW89783   3.994   1.732   5.292
62629SOL    HW189784   4.024   1.821   5.307
62629SOL    HW289785   3.900   1.735   5.308
62630SOL     OW89786   1.401  14.199   0.446
62630SOL    HW189787   1.398  14.109   0.414
62630SOL    HW289788   1.410  14.191   0.541
62631SOL     OW89789  10.213  10.461   7.208
62631SOL    HW189790  10.275  10.522   7.249
62631SOL    HW289791  10.261  10.423   7.135
62632SOL     OW89792  12.325  13.959   1.572
62632SOL    HW189793  12.244  14.007   1.558
62632SOL    HW289794  12.297  13.878   1.615
62633SOL     OW89795   3.550   8.820   8.170
62633SOL    HW189796   3.501   8.900   8.152
62633SOL    HW289797   3.625   8.848   8.222
62634SOL     OW89798   5.028  10.584  11.275
62634SOL    HW189799   5.113  10.603  11.236
62634SOL    HW289800   5.026  10.489  11.283
62635SOL     OW89801  11.463   5.231   9.428
62635SOL    HW189802  11.438   5.159   9.485
62635SOL    HW289803  11.546   5.263   9.463
62636SOL     OW89804   3.790   4.814   2.411
62636SOL    HW189805   3.833   4.736   2.446
62636SOL    HW289806   3.724   4.779   2.350
62637SOL     OW89807   5.430  13.059  11.226
62637SOL    HW189808   5.409  13.127  11.162
62637SOL    HW289809   5.354  13.000  11.223
62638SOL     OW89810   9.255  14.061   6.700
62638SOL    HW189811   9.198  13.985   6.709
62638SOL    HW289812   9.343  14.029   6.721
62639SOL     OW89813  10.784   3.769   4.099
62639SOL    HW189814  10.798   3.845   4.156
62639SOL    HW289815  10.704   3.729   4.132
62640SOL     OW89816  10.661   2.233   3.111
62640SOL    HW189817  10.656   2.144   3.077
62640SOL    HW289818  10.574   2.249   3.148
62641SOL     OW89819   4.048  14.762   2.098
62641SOL    HW189820   4.090  14.704   2.162
62641SOL    HW289821   4.081  14.849   2.120
62642SOL     OW89822   6.846  12.744   4.860
62642SOL    HW189823   6.864  12.703   4.775
62642SOL    HW289824   6.751  12.743   4.867
62643SOL     OW89825   2.840   9.728  14.639
62643SOL    HW189826   2.774   9.782  14.682
62643SOL    HW289827   2.923   9.774  14.656
62644SOL     OW89828  14.260   4.440   7.599
62644SOL    HW189829  14.348   4.405   7.614
62644SOL    HW289830  14.256   4.454   7.505
62645SOL     OW89831  12.387   7.812  10.129
62645SOL    HW189832  12.349   7.793  10.214
62645SOL    HW289833  12.318   7.790  10.066
62646SOL     OW89834   9.834   0.160   0.715
62646SOL    HW189835   9.758   0.167   0.657
62646SOL    HW289836   9.810   0.090   0.776
62647SOL     OW89837   4.674  13.449  10.489
62647SOL    HW189838   4.744  13.455  10.423
62647SOL    HW289839   4.708  13.496  10.565
62648SOL     OW89840   9.597   8.028   2.116
62648SOL    HW189841   9.552   7.960   2.166
62648SOL    HW289842   9.660   8.065   2.178
62649SOL     OW89843  14.855   9.112   9.692
62649SOL    HW189844  14.819   9.139   9.777
62649SOL    HW289845  14.837   9.019   9.687
62650SOL     OW89846  10.740   5.953  12.485
62650SOL    HW189847  10.760   5.930  12.395
62650SOL    HW289848  10.694   6.037  12.479
62651SOL     OW89849  13.592   7.863  14.658
62651SOL    HW189850  13.583   7.887  14.566
62651SOL    HW289851  13.683   7.883  14.679
62652SOL     OW89852   5.431   7.271  10.077
62652SOL    HW189853   5.353   7.319  10.050
62652SOL    HW289854   5.455   7.310  10.162
62653SOL     OW89855  14.309   8.594   8.973
62653SOL    HW189856  14.259   8.546   8.907
62653SOL    HW289857  14.372   8.645   8.923
62654SOL     OW89858   3.714   5.104   5.271
62654SOL    HW189859   3.743   5.023   5.229
62654SOL    HW289860   3.669   5.075   5.350
62655SOL     OW89861   1.941   2.001  10.008
62655SOL    HW189862   2.015   2.055  10.035
62655SOL    HW289863   1.898   1.977  10.090
62656SOL     OW89864   4.067   5.361  11.431
62656SOL    HW189865   4.148   5.399  11.465
62656SOL    HW289866   4.002   5.431  11.442
62657SOL     OW89867  14.492   7.260  10.787
62657SOL    HW189868  14.434   7.221  10.722
62657SOL    HW289869  14.542   7.326  10.737
62658SOL     OW89870   2.603   6.716   5.318
62658SOL    HW189871   2.668   6.774   5.279
62658SOL    HW289872   2.626   6.712   5.411
62659SOL     OW89873   6.435   6.665   1.589
62659SOL    HW189874   6.403   6.752   1.614
62659SOL    HW289875   6.415   6.658   1.496
62660SOL     OW89876   5.289  12.436   3.089
62660SOL    HW189877   5.229  12.363   3.076
62660SOL    HW289878   5.233  12.514   3.092
62661SOL     OW89879   9.186  14.700   7.645
62661SOL    HW189880   9.199  14.644   7.722
62661SOL    HW289881   9.180  14.639   7.571
62662SOL     OW89882   5.536   8.046   4.815
62662SOL    HW189883   5.617   7.993   4.817
62662SOL    HW289884   5.469   7.986   4.783
62663SOL     OW89885  11.433   5.436   9.116
62663SOL    HW189886  11.473   5.488   9.186
62663SOL    HW289887  11.341   5.426   9.143
62664SOL     OW89888   1.014   2.768  12.301
62664SOL    HW189889   1.080   2.716  12.255
62664SOL    HW289890   0.988   2.713  12.375
62665SOL     OW89891   2.317   5.342  13.241
62665SOL    HW189892   2.378   5.301  13.180
62665SOL    HW289893   2.266   5.270  13.278
62666SOL     OW89894   5.894   0.198   8.008
62666SOL    HW189895   5.815   0.216   7.957
62666SOL    HW289896   5.955   0.268   7.984
62667SOL     OW89897  12.994  14.669  10.536
62667SOL    HW189898  12.992  14.738  10.469
62667SOL    HW289899  13.083  14.671  10.570
62668SOL     OW89900   1.449   8.823  14.868
62668SOL    HW189901   1.532   8.801  14.824
62668SOL    HW289902   1.434   8.750   0.048
62669SOL     OW89903   9.305  13.165  12.627
62669SOL    HW189904   9.268  13.184  12.540
62669SOL    HW289905   9.370  13.233  12.641
62670SOL     OW89906   9.858   1.197   4.099
62670SOL    HW189907   9.819   1.130   4.155
62670SOL    HW289908   9.908   1.253   4.159
62671SOL     OW89909   8.500   6.705  13.804
62671SOL    HW189910   8.526   6.792  13.832
62671SOL    HW289911   8.421   6.686  13.855
62672SOL     OW89912   4.777  12.331  12.059
62672SOL    HW189913   4.851  12.381  12.025
62672SOL    HW289914   4.782  12.340  12.154
62673SOL     OW89915   0.112   5.875   4.623
62673SOL    HW189916   0.178   5.925   4.576
62673SOL    HW289917   0.119   5.905   4.714
62674SOL     OW89918   4.802  13.175  10.919
62674SOL    HW189919   4.827  13.265  10.939
62674SOL    HW289920   4.746  13.149  10.993
62675SOL     OW89921   9.831  13.434   1.747
62675SOL    HW189922   9.837  13.411   1.840
62675SOL    HW289923   9.921  13.433   1.715
62676SOL     OW89924  10.975  14.236  13.288
62676SOL    HW189925  11.064  14.268  13.274
62676SOL    HW289926  10.954  14.187  13.208
62677SOL     OW89927   3.343  10.281  11.107
62677SOL    HW189928   3.354  10.334  11.186
62677SOL    HW289929   3.430  10.282  11.066
62678SOL     OW89930  12.070   1.619  14.353
62678SOL    HW189931  12.118   1.700  14.368
62678SOL    HW289932  12.093   1.562  14.426
62679SOL     OW89933   9.842   3.390   8.028
62679SOL    HW189934   9.870   3.420   7.941
62679SOL    HW289935   9.908   3.425   8.088
62680SOL     OW89936   6.053  10.612  10.498
62680SOL    HW189937   6.091  10.586  10.414
62680SOL    HW289938   6.073  10.539  10.557
62681SOL     OW89939   9.951   1.046   3.316
62681SOL    HW189940   9.920   1.132   3.343
62681SOL    HW289941   9.962   1.053   3.221
62682SOL     OW89942   3.167  10.607  11.385
62682SOL    HW189943   3.106  10.535  11.402
62682SOL    HW289944   3.182  10.646  11.471
62683SOL     OW89945   6.798  12.976   6.743
62683SOL    HW189946   6.838  12.903   6.790
62683SOL    HW289947   6.721  12.939   6.702
62684SOL     OW89948  13.155   2.045  11.040
62684SOL    HW189949  13.152   2.016  10.949
62684SOL    HW289950  13.162   2.140  11.035
62685SOL     OW89951  13.001  13.111  10.549
62685SOL    HW189952  12.951  13.193  10.549
62685SOL    HW289953  12.937  13.044  10.525
62686SOL     OW89954   7.139   8.346  11.480
62686SOL    HW189955   7.171   8.266  11.522
62686SOL    HW289956   7.049   8.354  11.510
62687SOL     OW89957   5.534   4.189   0.263
62687SOL    HW189958   5.454   4.241   0.263
62687SOL    HW289959   5.532   4.142   0.180
62688SOL     OW89960   0.846  12.397  14.510
62688SOL    HW189961   0.753  12.379  14.506
62688SOL    HW289962   0.856  12.459  14.582
62689SOL     OW89963  14.441   9.011  13.162
62689SOL    HW189964  14.346   9.013  13.173
62689SOL    HW289965  14.466   8.920  13.179
62690SOL     OW89966   6.533  11.701   1.057
62690SOL    HW189967   6.579  11.618   1.045
62690SOL    HW289968   6.543  11.720   1.151
62691SOL     OW89969  10.128   5.907   8.754
62691SOL    HW189970  10.061   5.909   8.821
62691SOL    HW289971  10.207   5.939   8.798
62692SOL     OW89972   6.471   3.414   9.606
62692SOL    HW189973   6.494   3.477   9.538
62692SOL    HW289974   6.522   3.441   9.683
62693SOL     OW89975   1.733   8.619  10.616
62693SOL    HW189976   1.748   8.664  10.533
62693SOL    HW289977   1.640   8.596  10.614
62694SOL     OW89978  11.534   8.516   0.593
62694SOL    HW189979  11.456   8.460   0.587
62694SOL    HW289980  11.585   8.477   0.663
62695SOL     OW89981   7.251   3.208   8.917
62695SOL    HW189982   7.283   3.132   8.869
62695SOL    HW289983   7.156   3.205   8.907
62696SOL     OW89984  10.211   3.371   7.274
62696SOL    HW189985  10.174   3.384   7.361
62696SOL    HW289986  10.238   3.458   7.245
62697SOL     OW89987   1.017   8.185  10.521
62697SOL    HW189988   1.083   8.133  10.475
62697SOL    HW289989   1.065   8.260  10.555
62698SOL     OW89990   6.949   6.930  11.956
62698SOL    HW189991   7.039   6.953  11.934
62698SOL    HW289992   6.896   6.994  11.909
62699SOL     OW89993   4.163  11.470   0.969
62699SOL    HW189994   4.200  11.389   0.933
62699SOL    HW289995   4.087  11.488   0.914
62700SOL     OW89996  11.933   1.582   2.245
62700SOL    HW189997  11.974   1.659   2.284
62700SOL    HW289998  11.858   1.617   2.196
62701SOL     OW89999   9.851   9.566   1.162
62701SOL    HW190000   9.789   9.591   1.093
62701SOL    HW290001   9.928   9.534   1.114
62702SOL     OW90002  11.445  12.539  11.464
62702SOL    HW190003  11.449  12.444  11.450
62702SOL    HW290004  11.440  12.576  11.375
62703SOL     OW90005  11.331  11.401   9.945
62703SOL    HW190006  11.257  11.341   9.936
62703SOL    HW290007  11.361  11.389  10.035
62704SOL     OW90008  10.702  10.945   6.819
62704SOL    HW190009  10.694  10.894   6.738
62704SOL    HW290010  10.656  11.027   6.801
62705SOL     OW90011   6.404  12.345   3.579
62705SOL    HW190012   6.341  12.335   3.651
62705SOL    HW290013   6.365  12.294   3.508
62706SOL     OW90014   1.300   8.815   9.614
62706SOL    HW190015   1.314   8.811   9.519
62706SOL    HW290016   1.279   8.907   9.632
62707SOL     OW90017   8.270   3.919   5.125
62707SOL    HW190018   8.315   4.004   5.131
62707SOL    HW290019   8.202   3.933   5.059
62708SOL     OW90020  14.423  14.649   6.311
62708SOL    HW190021  14.489  14.616   6.372
62708SOL    HW290022  14.435  14.744   6.311
62709SOL     OW90023   2.718  10.693   1.463
62709SOL    HW190024   2.741  10.665   1.374
62709SOL    HW290025   2.765  10.633   1.520
62710SOL     OW90026  12.141   7.188  10.220
62710SOL    HW190027  12.153   7.094  10.235
62710SOL    HW290028  12.087   7.193  10.141
62711SOL     OW90029   9.794  13.261   4.152
62711SOL    HW190030   9.755  13.340   4.113
62711SOL    HW290031   9.719  13.211   4.184
62712SOL     OW90032   7.709  13.979   0.541
62712SOL    HW190033   7.699  13.954   0.450
62712SOL    HW290034   7.787  13.932   0.571
62713SOL     OW90035   3.882  13.117  13.643
62713SOL    HW190036   3.878  13.031  13.683
62713SOL    HW290037   3.950  13.164  13.693
62714SOL     OW90038   8.363   1.536   1.981
62714SOL    HW190039   8.339   1.510   1.892
62714SOL    HW290040   8.429   1.605   1.969
62715SOL     OW90041   6.142   9.369   0.642
62715SOL    HW190042   6.153   9.279   0.614
62715SOL    HW290043   6.223   9.413   0.617
62716SOL     OW90044  14.651   8.440   4.226
62716SOL    HW190045  14.728   8.497   4.231
62716SOL    HW290046  14.609   8.462   4.143
62717SOL     OW90047   1.654   5.197  10.035
62717SOL    HW190048   1.720   5.146  10.083
62717SOL    HW290049   1.682   5.288  10.046
62718SOL     OW90050  11.493   8.710   8.791
62718SOL    HW190051  11.482   8.799   8.760
62718SOL    HW290052  11.569   8.676   8.744
62719SOL     OW90053   6.261  12.598   7.535
62719SOL    HW190054   6.261  12.531   7.603
62719SOL    HW290055   6.354  12.611   7.514
62720SOL     OW90056   9.038   7.200   5.837
62720SOL    HW190057   8.969   7.140   5.808
62720SOL    HW290058   9.021   7.281   5.788
62721SOL     OW90059   8.946   3.235   4.206
62721SOL    HW190060   8.904   3.215   4.290
62721SOL    HW290061   9.039   3.242   4.227
62722SOL     OW90062  12.877   2.494   1.258
62722SOL    HW190063  12.812   2.434   1.296
62722SOL    HW290064  12.928   2.438   1.200
62723SOL     OW90065   2.872   6.957   2.292
62723SOL    HW190066   2.935   7.028   2.303
62723SOL    HW290067   2.822   6.981   2.214
62724SOL     OW90068   9.582   4.427   7.646
62724SOL    HW190069   9.557   4.467   7.729
62724SOL    HW290070   9.506   4.439   7.589
62725SOL     OW90071   7.484  12.241  12.408
62725SOL    HW190072   7.442  12.285  12.334
62725SOL    HW290073   7.493  12.309  12.474
62726SOL     OW90074  11.366  14.012  12.335
62726SOL    HW190075  11.277  14.002  12.301
62726SOL    HW290076  11.388  14.103  12.316
62727SOL     OW90077   9.360   0.877   3.340
62727SOL    HW190078   9.323   0.790   3.326
62727SOL    HW290079   9.453   0.861   3.358
62728SOL     OW90080   6.970  12.113  10.410
62728SOL    HW190081   6.936  12.202  10.420
62728SOL    HW290082   6.954  12.092  10.318
62729SOL     OW90083   6.407   7.002  13.614
62729SOL    HW190084   6.393   6.909  13.598
62729SOL    HW290085   6.337   7.027  13.674
62730SOL     OW90086   4.326   5.633   3.590
62730SOL    HW190087   4.341   5.581   3.668
62730SOL    HW290088   4.412   5.668   3.566
62731SOL     OW90089  10.353   8.507   5.621
62731SOL    HW190090  10.298   8.429   5.619
62731SOL    HW290091  10.384   8.517   5.531
62732SOL     OW90092   1.378   0.228   2.740
62732SOL    HW190093   1.380   0.173   2.819
62732SOL    HW290094   1.466   0.265   2.734
62733SOL     OW90095  10.174  10.389   0.322
62733SOL    HW190096  10.131  10.474   0.336
62733SOL    HW290097  10.228  10.377   0.400
62734SOL     OW90098   1.432  14.788   1.798
62734SOL    HW190099   1.406  14.880   1.805
62734SOL    HW290100   1.432  14.770   1.704
62735SOL     OW90101   7.443   7.024  11.232
62735SOL    HW190102   7.452   6.956  11.299
62735SOL    HW290103   7.447   6.976  11.149
62736SOL     OW90104   7.153   4.237   2.124
62736SOL    HW190105   7.106   4.154   2.127
62736SOL    HW290106   7.085   4.303   2.135
62737SOL     OW90107   5.096  13.544   0.454
62737SOL    HW190108   5.166  13.505   0.507
62737SOL    HW290109   5.117  13.637   0.451
62738SOL     OW90110  12.580  11.520   7.388
62738SOL    HW190111  12.514  11.510   7.456
62738SOL    HW290112  12.562  11.606   7.349
62739SOL     OW90113  13.877  11.086   1.878
62739SOL    HW190114  13.807  11.021   1.870
62739SOL    HW290115  13.856  11.152   1.811
62740SOL     OW90116   8.178   7.656   5.424
62740SOL    HW190117   8.184   7.734   5.479
62740SOL    HW290118   8.101   7.672   5.368
62741SOL     OW90119   4.446   6.887   6.965
62741SOL    HW190120   4.465   6.969   6.918
62741SOL    HW290121   4.401   6.833   6.900
62742SOL     OW90122   6.279   3.503  13.592
62742SOL    HW190123   6.270   3.512  13.687
62742SOL    HW290124   6.351   3.562  13.569
62743SOL     OW90125   1.131   9.247   9.051
62743SOL    HW190126   1.107   9.233   8.959
62743SOL    HW290127   1.083   9.180   9.099
62744SOL     OW90128   6.820   8.824  13.745
62744SOL    HW190129   6.812   8.911  13.706
62744SOL    HW290130   6.885   8.779  13.690
62745SOL     OW90131  12.261  13.550  12.546
62745SOL    HW190132  12.269  13.503  12.463
62745SOL    HW290133  12.290  13.487  12.613
62746SOL     OW90134  11.801   2.935   2.390
62746SOL    HW190135  11.887   2.962   2.421
62746SOL    HW290136  11.794   2.973   2.302
62747SOL     OW90137  13.010   9.242   1.682
62747SOL    HW190138  12.973   9.218   1.597
62747SOL    HW290139  13.102   9.215   1.677
62748SOL     OW90140   9.232   4.236   6.623
62748SOL    HW190141   9.291   4.245   6.549
62748SOL    HW290142   9.145   4.244   6.586
62749SOL     OW90143   2.521   8.155   0.666
62749SOL    HW190144   2.593   8.104   0.705
62749SOL    HW290145   2.520   8.129   0.574
62750SOL     OW90146  12.403   0.307  13.922
62750SOL    HW190147  12.481   0.304  13.978
62750SOL    HW290148  12.344   0.369  13.965
62751SOL     OW90149   8.066   4.922  11.289
62751SOL    HW190150   7.979   4.902  11.324
62751SOL    HW290151   8.057   5.009  11.249
62752SOL     OW90152  12.611  10.766   2.390
62752SOL    HW190153  12.603  10.811   2.305
62752SOL    HW290154  12.583  10.676   2.372
62753SOL     OW90155   8.598  14.178   3.862
62753SOL    HW190156   8.657  14.146   3.794
62753SOL    HW290157   8.528  14.113   3.866
62754SOL     OW90158   9.483   0.198   9.501
62754SOL    HW190159   9.495   0.116   9.550
62754SOL    HW290160   9.559   0.251   9.525
62755SOL     OW90161   3.120   2.114  14.204
62755SOL    HW190162   3.130   2.099  14.110
62755SOL    HW290163   3.069   2.195  14.210
62756SOL     OW90164   4.138   7.110   7.240
62756SOL    HW190165   4.161   7.049   7.310
62756SOL    HW290166   4.175   7.194   7.268
62757SOL     OW90167  10.589   0.851   6.198
62757SOL    HW190168  10.579   0.924   6.137
62757SOL    HW290169  10.540   0.779   6.158
62758SOL     OW90170  11.859   8.910  10.276
62758SOL    HW190171  11.773   8.949  10.295
62758SOL    HW290172  11.859   8.897  10.182
62759SOL     OW90173   2.760   6.336   7.054
62759SOL    HW190174   2.693   6.284   7.099
62759SOL    HW290175   2.753   6.310   6.962
62760SOL     OW90176   7.741  14.378   8.990
62760SOL    HW190177   7.774  14.380   8.900
62760SOL    HW290178   7.677  14.306   8.990
62761SOL     OW90179   2.938   5.015  13.773
62761SOL    HW190180   2.993   5.049  13.844
62761SOL    HW290181   2.967   5.063  13.695
62762SOL     OW90182   9.585  12.640  13.664
62762SOL    HW190183   9.570  12.691  13.744
62762SOL    HW290184   9.551  12.552  13.685
62763SOL     OW90185  13.896   6.649   8.056
62763SOL    HW190186  13.974   6.703   8.062
62763SOL    HW290187  13.902   6.605   7.971
62764SOL     OW90188   4.611   8.647   6.613
62764SOL    HW190189   4.660   8.565   6.610
62764SOL    HW290190   4.611   8.679   6.523
62765SOL     OW90191   1.415  12.199   8.276
62765SOL    HW190192   1.445  12.221   8.364
62765SOL    HW290193   1.403  12.284   8.233
62766SOL     OW90194   1.126   5.335   7.258
62766SOL    HW190195   1.082   5.387   7.325
62766SOL    HW290196   1.067   5.336   7.183
62767SOL     OW90197   4.646   5.542   9.427
62767SOL    HW190198   4.693   5.600   9.367
62767SOL    HW290199   4.663   5.454   9.393
62768SOL     OW90200   7.076  12.842   9.880
62768SOL    HW190201   6.980  12.836   9.884
62768SOL    HW290202   7.094  12.876   9.793
62769SOL     OW90203  14.527   0.142   5.791
62769SOL    HW190204  14.608   0.151   5.740
62769SOL    HW290205  14.529   0.217   5.851
62770SOL     OW90206   3.983   5.590   8.299
62770SOL    HW190207   3.939   5.506   8.311
62770SOL    HW290208   3.914   5.655   8.306
62771SOL     OW90209   9.048   1.424   8.720
62771SOL    HW190210   8.959   1.457   8.711
62771SOL    HW290211   9.044   1.333   8.690
62772SOL     OW90212  10.905   2.537  13.975
62772SOL    HW190213  10.996   2.556  13.950
62772SOL    HW290214  10.875   2.616  14.020
62773SOL     OW90215   1.810  10.656   7.327
62773SOL    HW190216   1.768  10.687   7.247
62773SOL    HW290217   1.806  10.561   7.322
62774SOL     OW90218  10.441   4.391  11.933
62774SOL    HW190219  10.526   4.436  11.927
62774SOL    HW290220  10.378   4.463  11.940
62775SOL     OW90221   8.142  10.420  11.316
62775SOL    HW190222   8.224  10.389  11.277
62775SOL    HW290223   8.132  10.368  11.395
62776SOL     OW90224  10.885  10.890   3.462
62776SOL    HW190225  10.811  10.835   3.486
62776SOL    HW290226  10.880  10.965   3.522
62777SOL     OW90227  14.760   0.571   1.992
62777SOL    HW190228  14.776   0.488   2.035
62777SOL    HW290229  14.754   0.549   1.899
62778SOL     OW90230   9.771   8.069   0.785
62778SOL    HW190231   9.698   8.011   0.765
62778SOL    HW290232   9.734   8.157   0.778
62779SOL     OW90233   0.480  11.276  12.311
62779SOL    HW190234   0.419  11.203  12.324
62779SOL    HW290235   0.502  11.305  12.399
62780SOL     OW90236   8.286   8.150   3.443
62780SOL    HW190237   8.223   8.127   3.374
62780SOL    HW290238   8.319   8.236   3.418
62781SOL     OW90239   7.449  12.298   3.017
62781SOL    HW190240   7.369  12.248   3.031
62781SOL    HW290241   7.519  12.241   3.050
62782SOL     OW90242  12.324   0.368  12.812
62782SOL    HW190243  12.307   0.395  12.722
62782SOL    HW290244  12.357   0.446  12.855
62783SOL     OW90245   9.345   3.383  11.853
62783SOL    HW190246   9.324   3.290  11.846
62783SOL    HW290247   9.418   3.397  11.792
62784SOL     OW90248   8.283   1.490   1.720
62784SOL    HW190249   8.205   1.533   1.755
62784SOL    HW290250   8.249   1.413   1.674
62785SOL     OW90251   1.318  12.749   5.624
62785SOL    HW190252   1.284  12.754   5.714
62785SOL    HW290253   1.390  12.812   5.622
62786SOL     OW90254  10.642  13.367  13.127
62786SOL    HW190255  10.550  13.344  13.111
62786SOL    HW290256  10.690  13.325  13.055
62787SOL     OW90257   9.941   6.939   4.195
62787SOL    HW190258   9.925   7.027   4.161
62787SOL    HW290259   9.882   6.882   4.145
62788SOL     OW90260   6.663   6.226  11.551
62788SOL    HW190261   6.697   6.151  11.600
62788SOL    HW290262   6.733   6.291  11.554
62789SOL     OW90263   7.313  11.433  12.641
62789SOL    HW190264   7.255  11.358  12.658
62789SOL    HW290265   7.401  11.396  12.647
62790SOL     OW90266   0.887   6.070   1.026
62790SOL    HW190267   0.858   6.158   1.003
62790SOL    HW290268   0.970   6.083   1.072
62791SOL     OW90269   9.354  11.109   0.039
62791SOL    HW190270   9.342  11.149  14.833
62791SOL    HW290271   9.329  11.018   0.027
62792SOL     OW90272   3.304  11.517  13.618
62792SOL    HW190273   3.242  11.572  13.665
62792SOL    HW290274   3.251  11.470  13.553
62793SOL     OW90275  13.352   8.045   1.188
62793SOL    HW190276  13.314   7.972   1.138
62793SOL    HW290277  13.277   8.090   1.225
62794SOL     OW90278  10.058   0.039   3.035
62794SOL    HW190279  10.074  14.825   3.042
62794SOL    HW290280  10.095   0.064   2.951
62795SOL     OW90281   7.031  12.487   5.760
62795SOL    HW190282   7.086  12.460   5.686
62795SOL    HW290283   6.963  12.540   5.720
62796SOL     OW90284  10.177   8.065  14.179
62796SOL    HW190285  10.091   8.063  14.138
62796SOL    HW290286  10.214   8.149  14.153
62797SOL     OW90287   6.764   4.651   3.118
62797SOL    HW190288   6.790   4.741   3.139
62797SOL    HW290289   6.844   4.600   3.130
62798SOL     OW90290  10.968   1.282   6.913
62798SOL    HW190291  10.925   1.353   6.962
62798SOL    HW290292  11.051   1.269   6.959
62799SOL     OW90293   5.100   8.604   7.099
62799SOL    HW190294   5.036   8.534   7.107
62799SOL    HW290295   5.090   8.636   7.009
62800SOL     OW90296   4.174  12.942  13.683
62800SOL    HW190297   4.266  12.916  13.669
62800SOL    HW290298   4.123  12.871  13.645
62801SOL     OW90299  10.850   3.870  14.192
62801SOL    HW190300  10.756   3.862  14.209
62801SOL    HW290301  10.867   3.964  14.198
62802SOL     OW90302   7.130  11.747   4.354
62802SOL    HW190303   7.097  11.769   4.441
62802SOL    HW290304   7.085  11.666   4.330
62803SOL     OW90305  14.366   9.705  14.283
62803SOL    HW190306  14.369   9.726  14.190
62803SOL    HW290307  14.451   9.667  14.302
62804SOL     OW90308   4.510   3.463  11.324
62804SOL    HW190309   4.434   3.407  11.313
62804SOL    HW290310   4.575   3.426  11.264
62805SOL     OW90311   4.987  11.683   7.121
62805SOL    HW190312   5.018  11.734   7.196
62805SOL    HW290313   4.922  11.740   7.079
62806SOL     OW90314   4.862   2.879  13.152
62806SOL    HW190315   4.767   2.875  13.156
62806SOL    HW290316   4.890   2.867  13.242
62807SOL     OW90317   7.737   3.822   0.829
62807SOL    HW190318   7.787   3.784   0.902
62807SOL    HW290319   7.803   3.839   0.762
62808SOL     OW90320   5.892   7.358  14.788
62808SOL    HW190321   5.828   7.352  14.717
62808SOL    HW290322   5.859   7.300  14.856
62809SOL     OW90323   1.676  10.484   7.611
62809SOL    HW190324   1.673  10.396   7.647
62809SOL    HW290325   1.594  10.494   7.563
62810SOL     OW90326   6.000   8.341  11.027
62810SOL    HW190327   6.088   8.338  11.064
62810SOL    HW290328   5.946   8.378  11.097
62811SOL     OW90329  13.093   0.075   4.858
62811SOL    HW190330  13.012   0.026   4.873
62811SOL    HW290331  13.147   0.016   4.806
62812SOL     OW90332   3.972  12.967   4.781
62812SOL    HW190333   4.049  12.913   4.768
62812SOL    HW290334   3.912  12.941   4.712
62813SOL     OW90335   3.351   0.477  14.131
62813SOL    HW190336   3.256   0.475  14.121
62813SOL    HW290337   3.373   0.569  14.147
62814SOL     OW90338   1.859  13.685   6.306
62814SOL    HW190339   1.850  13.646   6.219
62814SOL    HW290340   1.803  13.763   6.303
62815SOL     OW90341  10.386   5.056   5.925
62815SOL    HW190342  10.410   5.005   6.002
62815SOL    HW290343  10.296   5.030   5.906
62816SOL     OW90344   6.940   9.771  10.505
62816SOL    HW190345   6.994   9.696  10.530
62816SOL    HW290346   6.879   9.737  10.441
62817SOL     OW90347  10.476   3.393   1.308
62817SOL    HW190348  10.454   3.481   1.340
62817SOL    HW290349  10.485   3.404   1.213
62818SOL     OW90350   9.257  12.012  14.415
62818SOL    HW190351   9.248  12.020  14.510
62818SOL    HW290352   9.170  12.031  14.381
62819SOL     OW90353  13.829  10.164  11.604
62819SOL    HW190354  13.742  10.178  11.641
62819SOL    HW290355  13.826  10.077  11.566
62820SOL     OW90356   7.802  13.351  14.508
62820SOL    HW190357   7.877  13.406  14.486
62820SOL    HW290358   7.832  13.262  14.489
62821SOL     OW90359  12.645   7.847  11.304
62821SOL    HW190360  12.640   7.877  11.394
62821SOL    HW290361  12.658   7.752  11.310
62822SOL     OW90362   4.487  12.296   3.448
62822SOL    HW190363   4.476  12.211   3.490
62822SOL    HW290364   4.504  12.276   3.356
62823SOL     OW90365   1.095   4.057   2.357
62823SOL    HW190366   1.125   3.969   2.337
62823SOL    HW290367   1.167   4.096   2.407
62824SOL     OW90368   0.685   8.411   9.896
62824SOL    HW190369   0.686   8.324   9.938
62824SOL    HW290370   0.718   8.395   9.808
62825SOL     OW90371  12.384  12.280  14.681
62825SOL    HW190372  12.339  12.215  14.735
62825SOL    HW290373  12.368  12.363  14.724
62826SOL     OW90374   4.707   7.344   3.965
62826SOL    HW190375   4.757   7.274   4.006
62826SOL    HW290376   4.618   7.333   3.997
62827SOL     OW90377   3.287   1.573   4.130
62827SOL    HW190378   3.312   1.508   4.065
62827SOL    HW290379   3.265   1.651   4.078
62828SOL     OW90380   2.237   8.420  12.302
62828SOL    HW190381   2.255   8.481  12.374
62828SOL    HW290382   2.317   8.368  12.295
62829SOL     OW90383   1.296   0.952  14.440
62829SOL    HW190384   1.312   1.006  14.517
62829SOL    HW290385   1.360   0.982  14.375
62830SOL     OW90386   5.610   8.838  12.769
62830SOL    HW190387   5.584   8.752  12.802
62830SOL    HW290388   5.590   8.835  12.675
62831SOL     OW90389  12.088   1.937   2.945
62831SOL    HW190390  12.141   1.858   2.935
62831SOL    HW290391  12.009   1.920   2.893
62832SOL     OW90392   0.948   2.192  10.619
62832SOL    HW190393   0.858   2.187  10.653
62832SOL    HW290394   0.968   2.286  10.621
62833SOL     OW90395   9.702  13.968   7.672
62833SOL    HW190396   9.726  13.886   7.716
62833SOL    HW290397   9.723  13.953   7.580
62834SOL     OW90398   0.402  12.659   2.219
62834SOL    HW190399   0.482  12.621   2.257
62834SOL    HW290400   0.331  12.613   2.263
62835SOL     OW90401  11.349   5.288   1.754
62835SOL    HW190402  11.441   5.277   1.777
62835SOL    HW290403  11.321   5.367   1.801
62836SOL     OW90404   9.804   5.362   3.889
62836SOL    HW190405   9.887   5.355   3.841
62836SOL    HW290406   9.809   5.293   3.956
62837SOL     OW90407   6.175   2.359   8.770
62837SOL    HW190408   6.161   2.324   8.682
62837SOL    HW290409   6.149   2.288   8.829
62838SOL     OW90410   0.214  13.412   5.524
62838SOL    HW190411   0.178  13.325   5.540
62838SOL    HW290412   0.139  13.465   5.498
62839SOL     OW90413   9.445   4.813  13.670
62839SOL    HW190414   9.371   4.756  13.647
62839SOL    HW290415   9.427   4.840  13.760
62840SOL     OW90416   2.695   4.192   5.484
62840SOL    HW190417   2.606   4.159   5.474
62840SOL    HW290418   2.690   4.254   5.556
62841SOL     OW90419  10.975  12.174   2.486
62841SOL    HW190420  10.894  12.207   2.524
62841SOL    HW290421  11.013  12.118   2.553
62842SOL     OW90422   5.882   2.893   5.817
62842SOL    HW190423   5.947   2.835   5.778
62842SOL    HW290424   5.858   2.851   5.900
62843SOL     OW90425   8.808   3.296   8.962
62843SOL    HW190426   8.835   3.343   9.041
62843SOL    HW290427   8.792   3.364   8.897
62844SOL     OW90428  12.039  11.919  10.396
62844SOL    HW190429  12.127  11.942  10.368
62844SOL    HW290430  12.023  11.974  10.472
62845SOL     OW90431  11.318   1.307   9.052
62845SOL    HW190432  11.268   1.385   9.028
62845SOL    HW290433  11.253   1.246   9.086
62846SOL     OW90434   8.469   0.382   3.265
62846SOL    HW190435   8.545   0.435   3.241
62846SOL    HW290436   8.429   0.428   3.339
62847SOL     OW90437   8.753   3.896   5.948
62847SOL    HW190438   8.670   3.849   5.952
62847SOL    HW290439   8.735   3.981   5.988
62848SOL     OW90440   4.191   4.722   5.241
62848SOL    HW190441   4.168   4.649   5.184
62848SOL    HW290442   4.110   4.772   5.250
62849SOL     OW90443   7.745  11.263  10.049
62849SOL    HW190444   7.808  11.334  10.032
62849SOL    HW290445   7.768  11.231  10.136
62850SOL     OW90446   7.140   0.948   2.671
62850SOL    HW190447   7.126   0.969   2.764
62850SOL    HW290448   7.108   1.026   2.624
62851SOL     OW90449   1.413  11.958   9.433
62851SOL    HW190450   1.332  11.952   9.382
62851SOL    HW290451   1.437  12.051   9.429
62852SOL     OW90452   4.003   5.206  10.310
62852SOL    HW190453   3.990   5.143  10.239
62852SOL    HW290454   4.045   5.281  10.269
62853SOL     OW90455   8.515  11.484  10.196
62853SOL    HW190456   8.420  11.482  10.189
62853SOL    HW290457   8.535  11.565  10.242
62854SOL     OW90458   5.736   4.193  10.225
62854SOL    HW190459   5.658   4.248  10.237
62854SOL    HW290460   5.743   4.143  10.307
62855SOL     OW90461   2.085   3.763   3.870
62855SOL    HW190462   2.134   3.688   3.837
62855SOL    HW290463   2.146   3.808   3.928
62856SOL     OW90464   2.394   3.260  13.884
62856SOL    HW190465   2.389   3.252  13.789
62856SOL    HW290466   2.435   3.346  13.898
62857SOL     OW90467   4.733  12.258   3.713
62857SOL    HW190468   4.768  12.324   3.654
62857SOL    HW290469   4.795  12.257   3.787
62858SOL     OW90470   5.412  10.328   2.836
62858SOL    HW190471   5.395  10.422   2.849
62858SOL    HW290472   5.325  10.289   2.833
62859SOL     OW90473  13.016   1.811  10.235
62859SOL    HW190474  13.010   1.892  10.286
62859SOL    HW290475  13.094   1.768  10.267
62860SOL     OW90476   7.227   9.939   8.756
62860SOL    HW190477   7.139   9.969   8.779
62860SOL    HW290478   7.212   9.866   8.695
62861SOL     OW90479  11.543  14.055  14.470
62861SOL    HW190480  11.544  14.148  14.447
62861SOL    HW290481  11.536  14.010  14.385
62862SOL     OW90482   5.121   3.616   9.296
62862SOL    HW190483   5.072   3.666   9.231
62862SOL    HW290484   5.203   3.593   9.253
62863SOL     OW90485   6.745   1.637   7.412
62863SOL    HW190486   6.653   1.640   7.436
62863SOL    HW290487   6.779   1.723   7.438
62864SOL     OW90488  11.395   2.467   7.119
62864SOL    HW190489  11.448   2.546   7.129
62864SOL    HW290490  11.367   2.469   7.028
62865SOL     OW90491   8.570  14.246   6.699
62865SOL    HW190492   8.614  14.308   6.642
62865SOL    HW290493   8.574  14.286   6.786
62866SOL     OW90494   9.730   5.702   9.781
62866SOL    HW190495   9.725   5.648   9.702
62866SOL    HW290496   9.687   5.651   9.849
62867SOL     OW90497   6.785   3.219  14.369
62867SOL    HW190498   6.760   3.259  14.453
62867SOL    HW290499   6.875   3.189  14.383
62868SOL     OW90500  12.701   5.701  12.518
62868SOL    HW190501  12.623   5.714  12.573
62868SOL    HW290502  12.723   5.789  12.487
62869SOL     OW90503   3.507   5.963   4.636
62869SOL    HW190504   3.420   5.955   4.675
62869SOL    HW290505   3.519   5.883   4.585
62870SOL     OW90506   5.999   3.581  13.591
62870SOL    HW190507   6.090   3.561  13.571
62870SOL    HW290508   5.975   3.522  13.662
62871SOL     OW90509   9.526   8.108  12.118
62871SOL    HW190510   9.578   8.033  12.090
62871SOL    HW290511   9.555   8.125  12.208
62872SOL     OW90512   8.138  14.167   0.025
62872SOL    HW190513   8.195  14.223   0.078
62872SOL    HW290514   8.051  14.206   0.034
62873SOL     OW90515   0.126   3.093  11.421
62873SOL    HW190516   0.075   3.160  11.467
62873SOL    HW290517   0.087   3.010  11.448
62874SOL     OW90518   4.548   5.748  14.288
62874SOL    HW190519   4.576   5.772  14.376
62874SOL    HW290520   4.586   5.661  14.273
62875SOL     OW90521   1.890   8.448  14.063
62875SOL    HW190522   1.896   8.538  14.031
62875SOL    HW290523   1.892   8.395  13.984
62876SOL     OW90524  14.652  11.048   9.957
62876SOL    HW190525  14.621  11.032  10.046
62876SOL    HW290526  14.744  11.071   9.967
62877SOL     OW90527   5.111   8.136   9.339
62877SOL    HW190528   5.023   8.098   9.339
62877SOL    HW290529   5.140   8.127   9.248
62878SOL     OW90530   0.363   0.536   6.223
62878SOL    HW190531   0.362   0.592   6.146
62878SOL    HW290532   0.448   0.491   6.218
62879SOL     OW90533  12.502  12.258   5.056
62879SOL    HW190534  12.486  12.231   4.966
62879SOL    HW290535  12.510  12.353   5.052
62880SOL     OW90536   3.180  10.401  11.764
62880SOL    HW190537   3.172  10.478  11.707
62880SOL    HW290538   3.258  10.356  11.732
62881SOL     OW90539   6.089  11.935   2.286
62881SOL    HW190540   6.117  11.872   2.220
62881SOL    HW290541   6.027  11.886   2.340
62882SOL     OW90542  11.590  11.736   1.356
62882SOL    HW190543  11.581  11.830   1.366
62882SOL    HW290544  11.631  11.724   1.270
62883SOL     OW90545  10.390   4.563  14.712
62883SOL    HW190546  10.325   4.495  14.690
62883SOL    HW290547  10.469   4.513  14.735
62884SOL     OW90548  12.786   1.657  10.264
62884SOL    HW190549  12.792   1.669  10.358
62884SOL    HW290550  12.858   1.710  10.228
62885SOL     OW90551  10.708   4.384   9.868
62885SOL    HW190552  10.691   4.290   9.865
62885SOL    HW290553  10.623   4.424   9.887
62886SOL     OW90554   4.381  12.601   5.230
62886SOL    HW190555   4.314  12.667   5.214
62886SOL    HW290556   4.346  12.521   5.190
62887SOL     OW90557  13.228   7.978   0.064
62887SOL    HW190558  13.215   7.913   0.133
62887SOL    HW290559  13.317   7.962   0.033
62888SOL     OW90560   8.396   1.253  14.295
62888SOL    HW190561   8.438   1.168  14.312
62888SOL    HW290562   8.437   1.313  14.357
62889SOL     OW90563  13.108   4.673  12.055
62889SOL    HW190564  13.178   4.611  12.073
62889SOL    HW290565  13.128   4.749  12.109
62890SOL     OW90566   1.244  11.751   2.993
62890SOL    HW190567   1.218  11.681   2.932
62890SOL    HW290568   1.293  11.706   3.062
62891SOL     OW90569   2.322   5.715   7.755
62891SOL    HW190570   2.322   5.792   7.697
62891SOL    HW290571   2.229   5.696   7.769
62892SOL     OW90572  10.830   8.583  14.111
62892SOL    HW190573  10.900   8.526  14.144
62892SOL    HW290574  10.862   8.613  14.026
62893SOL     OW90575  12.402   8.634   7.341
62893SOL    HW190576  12.346   8.603   7.270
62893SOL    HW290577  12.419   8.726   7.321
62894SOL     OW90578   3.010  11.049   0.707
62894SOL    HW190579   3.055  11.101   0.773
62894SOL    HW290580   3.019  11.100   0.626
62895SOL     OW90581   5.592   5.868   5.560
62895SOL    HW190582   5.553   5.923   5.492
62895SOL    HW290583   5.546   5.784   5.553
62896SOL     OW90584   4.445   7.914   3.600
62896SOL    HW190585   4.408   7.967   3.670
62896SOL    HW290586   4.531   7.887   3.634
62897SOL     OW90587   2.715   9.233  11.228
62897SOL    HW190588   2.678   9.302  11.284
62897SOL    HW290589   2.809   9.238  11.244
62898SOL     OW90590   8.157  12.791   1.372
62898SOL    HW190591   8.144  12.857   1.440
62898SOL    HW290592   8.194  12.839   1.298
62899SOL     OW90593   0.643   3.597   4.071
62899SOL    HW190594   0.635   3.565   4.161
62899SOL    HW290595   0.583   3.672   4.067
62900SOL     OW90596   8.985   2.440  12.608
62900SOL    HW190597   8.901   2.450  12.654
62900SOL    HW290598   8.981   2.353  12.570
62901SOL     OW90599  13.167   8.897   1.104
62901SOL    HW190600  13.125   8.874   1.021
62901SOL    HW290601  13.203   8.815   1.137
62902SOL     OW90602   2.788   3.025  14.026
62902SOL    HW190603   2.773   2.949  14.082
62902SOL    HW290604   2.733   3.094  14.064
62903SOL     OW90605   8.905   5.623   5.447
62903SOL    HW190606   8.876   5.549   5.500
62903SOL    HW290607   8.996   5.602   5.424
62904SOL     OW90608  11.952  10.179  10.304
62904SOL    HW190609  11.945  10.239  10.230
62904SOL    HW290610  11.979  10.096  10.266
62905SOL     OW90611  11.870   6.181   3.262
62905SOL    HW190612  11.800   6.246   3.264
62905SOL    HW290613  11.913   6.190   3.347
62906SOL     OW90614   1.817   7.193   3.502
62906SOL    HW190615   1.752   7.129   3.473
62906SOL    HW290616   1.887   7.187   3.437
62907SOL     OW90617  10.110   5.374   2.954
62907SOL    HW190618  10.195   5.416   2.945
62907SOL    HW290619  10.055   5.418   2.889
62908SOL     OW90620   2.891  12.314   2.929
62908SOL    HW190621   2.809  12.352   2.958
62908SOL    HW290622   2.910  12.245   2.993
62909SOL     OW90623  11.428   8.827   9.717
62909SOL    HW190624  11.365   8.760   9.744
62909SOL    HW290625  11.387   8.910   9.742
62910SOL     OW90626   2.688   3.407  11.936
62910SOL    HW190627   2.637   3.441  12.010
62910SOL    HW290628   2.631   3.340  11.897
62911SOL     OW90629   7.257  14.366   8.008
62911SOL    HW190630   7.289  14.407   7.928
62911SOL    HW290631   7.241  14.438   8.068
62912SOL     OW90632   1.410  12.113  11.502
62912SOL    HW190633   1.498  12.127  11.468
62912SOL    HW290634   1.412  12.149  11.591
62913SOL     OW90635  11.528   5.454  10.522
62913SOL    HW190636  11.570   5.442  10.608
62913SOL    HW290637  11.524   5.549  10.512
62914SOL     OW90638   1.688   8.723   0.748
62914SOL    HW190639   1.740   8.677   0.683
62914SOL    HW290640   1.686   8.813   0.718
62915SOL     OW90641   1.756   1.870   3.303
62915SOL    HW190642   1.801   1.789   3.325
62915SOL    HW290643   1.804   1.938   3.351
62916SOL     OW90644   1.294   4.016  11.996
62916SOL    HW190645   1.327   4.053  11.914
62916SOL    HW290646   1.285   4.092  12.054
62917SOL     OW90647   8.552   5.921  11.971
62917SOL    HW190648   8.485   5.941  12.038
62917SOL    HW290649   8.573   6.006  11.933
62918SOL     OW90650   3.439   6.764   6.544
62918SOL    HW190651   3.520   6.814   6.538
62918SOL    HW290652   3.467   6.673   6.546
62919SOL     OW90653  13.731   3.694  12.367
62919SOL    HW190654  13.770   3.775  12.334
62919SOL    HW290655  13.640   3.718  12.385
62920SOL     OW90656  14.763   6.911   7.926
62920SOL    HW190657  14.857   6.904   7.911
62920SOL    HW290658  14.733   6.820   7.933
62921SOL     OW90659   6.924   5.221  12.282
62921SOL    HW190660   6.974   5.243  12.203
62921SOL    HW290661   6.987   5.174  12.336
62922SOL     OW90662   1.579   9.313  11.096
62922SOL    HW190663   1.660   9.363  11.080
62922SOL    HW290664   1.524   9.372  11.147
62923SOL     OW90665  13.438   1.571  13.728
62923SOL    HW190666  13.482   1.589  13.811
62923SOL    HW290667  13.376   1.643  13.717
62924SOL     OW90668   6.000   7.660  12.514
62924SOL    HW190669   5.977   7.740  12.467
62924SOL    HW290670   5.924   7.603  12.502
62925SOL     OW90671  13.616   9.105   8.853
62925SOL    HW190672  13.647   9.131   8.940
62925SOL    HW290673  13.687   9.052   8.817
62926SOL     OW90674   5.861  12.404   9.115
62926SOL    HW190675   5.924  12.364   9.176
62926SOL    HW290676   5.785  12.423   9.170
62927SOL     OW90677  10.970   8.325   2.741
62927SOL    HW190678  10.948   8.372   2.821
62927SOL    HW290679  10.919   8.244   2.746
62928SOL     OW90680   2.302   7.497   6.500
62928SOL    HW190681   2.347   7.452   6.572
62928SOL    HW290682   2.234   7.436   6.472
62929SOL     OW90683   3.485   3.481   8.500
62929SOL    HW190684   3.557   3.423   8.525
62929SOL    HW290685   3.470   3.535   8.578
62930SOL     OW90686   4.104   2.675  12.198
62930SOL    HW190687   4.176   2.674  12.135
62930SOL    HW290688   4.026   2.696  12.145
62931SOL     OW90689   0.801   3.693   4.371
62931SOL    HW190690   0.846   3.705   4.287
62931SOL    HW290691   0.813   3.776   4.417
62932SOL     OW90692   6.921   6.812   5.953
62932SOL    HW190693   6.859   6.747   5.987
62932SOL    HW290694   6.892   6.828   5.863
62933SOL     OW90695   0.422   1.353   3.282
62933SOL    HW190696   0.476   1.359   3.361
62933SOL    HW290697   0.482   1.370   3.210
62934SOL     OW90698   6.898   2.245  12.423
62934SOL    HW190699   6.895   2.338  12.446
62934SOL    HW290700   6.930   2.202  12.502
62935SOL     OW90701  11.010   0.731   7.001
62935SOL    HW190702  10.917   0.713   7.015
62935SOL    HW290703  11.055   0.654   7.035
62936SOL     OW90704   9.036  14.087   8.018
62936SOL    HW190705   8.999  14.062   7.934
62936SOL    HW290706   8.961  14.093   8.077
62937SOL     OW90707   1.708  10.516   4.687
62937SOL    HW190708   1.784  10.566   4.660
62937SOL    HW290709   1.732  10.425   4.673
62938SOL     OW90710   7.411  10.856   6.070
62938SOL    HW190711   7.424  10.813   5.986
62938SOL    HW290712   7.416  10.786   6.135
62939SOL     OW90713   7.545   7.490   6.108
62939SOL    HW190714   7.600   7.425   6.153
62939SOL    HW290715   7.469   7.440   6.078
62940SOL     OW90716   5.956   9.892   9.831
62940SOL    HW190717   5.864   9.865   9.833
62940SOL    HW290718   5.962   9.963   9.895
62941SOL     OW90719   1.447  14.578   6.006
62941SOL    HW190720   1.456  14.501   6.062
62941SOL    HW290721   1.481  14.551   5.921
62942SOL     OW90722  12.732   1.772   5.182
62942SOL    HW190723  12.640   1.794   5.164
62942SOL    HW290724  12.766   1.744   5.097
62943SOL     OW90725   6.038   0.866   4.870
62943SOL    HW190726   5.955   0.901   4.902
62943SOL    HW290727   6.104   0.901   4.930
62944SOL     OW90728  11.263  12.096   7.453
62944SOL    HW190729  11.321  12.029   7.416
62944SOL    HW290730  11.314  12.137   7.523
62945SOL     OW90731  12.795   9.790   1.901
62945SOL    HW190732  12.842   9.868   1.872
62945SOL    HW290733  12.797   9.795   1.996
62946SOL     OW90734  10.418   2.269   7.210
62946SOL    HW190735  10.466   2.258   7.292
62946SOL    HW290736  10.334   2.307   7.236
62947SOL     OW90737  10.022   3.225   8.972
62947SOL    HW190738  10.035   3.146   8.920
62947SOL    HW290739   9.937   3.258   8.945
62948SOL     OW90740   7.666   9.160   6.316
62948SOL    HW190741   7.645   9.124   6.403
62948SOL    HW290742   7.698   9.248   6.334
62949SOL     OW90743   0.402  11.072  10.387
62949SOL    HW190744   0.479  11.127  10.406
62949SOL    HW290745   0.385  11.026  10.469
62950SOL     OW90746   4.454   6.386  11.039
62950SOL    HW190747   4.362   6.396  11.065
62950SOL    HW290748   4.485   6.310  11.089
62951SOL     OW90749  12.907   5.475   9.647
62951SOL    HW190750  12.830   5.462   9.701
62951SOL    HW290751  12.965   5.529   9.701
62952SOL     OW90752  11.833   9.020   1.937
62952SOL    HW190753  11.770   9.048   2.004
62952SOL    HW290754  11.799   8.935   1.908
62953SOL     OW90755  12.002   5.625   4.044
62953SOL    HW190756  11.951   5.589   3.972
62953SOL    HW290757  12.088   5.582   4.036
62954SOL     OW90758  10.735  10.403  13.747
62954SOL    HW190759  10.658  10.347  13.757
62954SOL    HW290760  10.720  10.450  13.665
62955SOL     OW90761   1.427  12.741   9.052
62955SOL    HW190762   1.481  12.814   9.021
62955SOL    HW290763   1.463  12.664   9.008
62956SOL     OW90764  12.667   8.488   3.584
62956SOL    HW190765  12.593   8.434   3.611
62956SOL    HW290766  12.650   8.574   3.622
62957SOL     OW90767   8.109   3.812   5.400
62957SOL    HW190768   8.133   3.740   5.457
62957SOL    HW290769   8.061   3.873   5.457
62958SOL     OW90770  13.995   7.899   1.010
62958SOL    HW190771  13.916   7.882   0.960
62958SOL    HW290772  14.048   7.819   0.999
62959SOL     OW90773  11.870   4.930   3.556
62959SOL    HW190774  11.849   4.839   3.538
62959SOL    HW290775  11.958   4.942   3.520
62960SOL     OW90776  14.818  12.288   2.678
62960SOL    HW190777  14.878  12.213   2.676
62960SOL    HW290778  14.842  12.337   2.756
62961SOL     OW90779   5.394  14.838   5.803
62961SOL    HW190780   5.481  14.871   5.779
62961SOL    HW290781   5.366  14.789   5.726
62962SOL     OW90782   3.988  11.551  10.119
62962SOL    HW190783   3.976  11.498  10.198
62962SOL    HW290784   4.078  11.583  10.125
62963SOL     OW90785  13.499   8.822  10.859
62963SOL    HW190786  13.482   8.766  10.783
62963SOL    HW290787  13.480   8.766  10.934
62964SOL     OW90788  14.427   0.766   5.608
62964SOL    HW190789  14.494   0.831   5.585
62964SOL    HW290790  14.474   0.683   5.610
62965SOL     OW90791  12.318   6.055  11.324
62965SOL    HW190792  12.287   5.985  11.381
62965SOL    HW290793  12.390   6.016  11.274
62966SOL     OW90794   6.298  11.828   4.462
62966SOL    HW190795   6.257  11.798   4.381
62966SOL    HW290796   6.256  11.912   4.480
62967SOL     OW90797  12.558  13.800   7.480
62967SOL    HW190798  12.571  13.720   7.531
62967SOL    HW290799  12.635  13.854   7.501
62968SOL     OW90800   0.065  12.640   4.881
62968SOL    HW190801   0.093  12.617   4.970
62968SOL    HW290802   0.134  12.606   4.824
62969SOL     OW90803  14.140   7.814   4.507
62969SOL    HW190804  14.128   7.909   4.515
62969SOL    HW290805  14.135   7.797   4.413
62970SOL     OW90806   4.892   2.079   9.834
62970SOL    HW190807   4.798   2.071   9.852
62970SOL    HW290808   4.934   2.034   9.907
62971SOL     OW90809  11.618   4.171   2.705
62971SOL    HW190810  11.656   4.154   2.791
62971SOL    HW290811  11.655   4.256   2.680
62972SOL     OW90812   8.394   2.101   5.723
62972SOL    HW190813   8.357   2.084   5.809
62972SOL    HW290814   8.441   2.184   5.732
62973SOL     OW90815  13.514   6.386   2.075
62973SOL    HW190816  13.464   6.334   2.012
62973SOL    HW290817  13.493   6.345   2.160
62974SOL     OW90818   1.526  14.533  10.923
62974SOL    HW190819   1.543  14.627  10.919
62974SOL    HW290820   1.560  14.499  10.841
62975SOL     OW90821   7.005   1.296  12.551
62975SOL    HW190822   6.912   1.314  12.539
62975SOL    HW290823   7.050   1.367  12.504
62976SOL     OW90824  12.107   7.800   3.787
62976SOL    HW190825  12.169   7.861   3.748
62976SOL    HW290826  12.062   7.850   3.855
62977SOL     OW90827   6.142   3.420   9.337
62977SOL    HW190828   6.217   3.472   9.308
62977SOL    HW290829   6.073   3.484   9.352
62978SOL     OW90830   6.729  12.280   2.531
62978SOL    HW190831   6.801  12.260   2.472
62978SOL    HW290832   6.652  12.242   2.490
62979SOL     OW90833   6.768  14.694   8.045
62979SOL    HW190834   6.698  14.742   8.000
62979SOL    HW290835   6.722  14.645   8.114
62980SOL     OW90836   9.102  12.344   1.983
62980SOL    HW190837   9.190  12.317   1.956
62980SOL    HW290838   9.099  12.438   1.965
62981SOL     OW90839   3.246   1.845   7.156
62981SOL    HW190840   3.273   1.931   7.188
62981SOL    HW290841   3.161   1.860   7.115
62982SOL     OW90842   6.427  13.836   7.848
62982SOL    HW190843   6.515  13.825   7.811
62982SOL    HW290844   6.427  13.925   7.881
62983SOL     OW90845   5.376  11.790   8.346
62983SOL    HW190846   5.457  11.833   8.317
62983SOL    HW290847   5.383  11.788   8.441
62984SOL     OW90848   0.506   8.966   5.048
62984SOL    HW190849   0.468   8.880   5.066
62984SOL    HW290850   0.598   8.956   5.071
62985SOL     OW90851   9.462   2.338   1.637
62985SOL    HW190852   9.484   2.354   1.545
62985SOL    HW290853   9.540   2.298   1.674
62986SOL     OW90854  14.061   0.849   2.942
62986SOL    HW190855  14.001   0.779   2.916
62986SOL    HW290856  14.104   0.816   3.021
62987SOL     OW90857  10.266  14.484  12.559
62987SOL    HW190858  10.261  14.435  12.641
62987SOL    HW290859  10.360  14.491  12.541
62988SOL     OW90860   2.026   4.327   4.352
62988SOL    HW190861   1.965   4.389   4.313
62988SOL    HW290862   2.001   4.242   4.315
62989SOL     OW90863   4.106  12.724  14.800
62989SOL    HW190864   4.109  12.818  14.782
62989SOL    HW290865   4.170  12.687  14.739
62990SOL     OW90866   6.630  13.852  14.368
62990SOL    HW190867   6.641  13.921  14.433
62990SOL    HW290868   6.651  13.894  14.285
62991SOL     OW90869   8.185   4.736   6.838
62991SOL    HW190870   8.174   4.681   6.760
62991SOL    HW290871   8.262   4.789   6.819
62992SOL     OW90872   2.929   8.620   4.355
62992SOL    HW190873   2.969   8.600   4.270
62992SOL    HW290874   2.978   8.697   4.386
62993SOL     OW90875  11.243  13.819   3.624
62993SOL    HW190876  11.328  13.842   3.585
62993SOL    HW290877  11.238  13.871   3.704
62994SOL     OW90878   3.352  13.477   1.300
62994SOL    HW190879   3.293  13.527   1.244
62994SOL    HW290880   3.393  13.414   1.241
62995SOL     OW90881  12.725   8.319   6.554
62995SOL    HW190882  12.743   8.407   6.521
62995SOL    HW290883  12.774   8.261   6.496
62996SOL     OW90884   8.264   4.471  13.022
62996SOL    HW190885   8.177   4.472  12.984
62996SOL    HW290886   8.261   4.402  13.089
62997SOL     OW90887  14.291   5.578   9.316
62997SOL    HW190888  14.384   5.556   9.316
62997SOL    HW290889  14.255   5.530   9.391
62998SOL     OW90890   1.477   6.498   8.323
62998SOL    HW190891   1.440   6.414   8.295
62998SOL    HW290892   1.571   6.483   8.326
62999SOL     OW90893   4.109   3.419   6.481
62999SOL    HW190894   4.171   3.449   6.548
62999SOL    HW290895   4.165   3.386   6.411
63000SOL     OW90896   7.304  10.769  10.355
63000SOL    HW190897   7.265  10.829  10.290
63000SOL    HW290898   7.248  10.692  10.353
63001SOL     OW90899   9.076  13.114   9.401
63001SOL    HW190900   9.165  13.086   9.381
63001SOL    HW290901   9.045  13.051   9.465
63002SOL     OW90902   0.288   1.770   4.956
63002SOL    HW190903   0.280   1.763   5.051
63002SOL    HW290904   0.289   1.680   4.925
63003SOL     OW90905   9.643   8.602   1.501
63003SOL    HW190906   9.710   8.558   1.448
63003SOL    HW290907   9.651   8.694   1.478
63004SOL     OW90908   9.709   2.981  10.802
63004SOL    HW190909   9.625   2.943  10.829
63004SOL    HW290910   9.755   2.909  10.758
63005SOL     OW90911   3.262   9.224   6.098
63005SOL    HW190912   3.191   9.215   6.035
63005SOL    HW290913   3.341   9.222   6.044
63006SOL     OW90914   0.113   7.571   6.179
63006SOL    HW190915   0.133   7.585   6.272
63006SOL    HW290916   0.194   7.592   6.134
63007SOL     OW90917   8.484   5.922   5.985
63007SOL    HW190918   8.556   5.984   5.987
63007SOL    HW290919   8.413   5.969   5.942
63008SOL     OW90920   9.038   3.477   5.806
63008SOL    HW190921   8.956   3.526   5.790
63008SOL    HW290922   9.107   3.544   5.799
63009SOL     OW90923   8.200   7.579  11.166
63009SOL    HW190924   8.216   7.575  11.260
63009SOL    HW290925   8.129   7.642  11.157
63010SOL     OW90926   3.802   5.807   4.878
63010SOL    HW190927   3.870   5.806   4.810
63010SOL    HW290928   3.756   5.724   4.868
63011SOL     OW90929   2.040  12.480   6.047
63011SOL    HW190930   2.047  12.531   5.966
63011SOL    HW290931   2.110  12.514   6.103
63012SOL     OW90932  11.460   5.056   7.954
63012SOL    HW190933  11.426   5.018   7.873
63012SOL    HW290934  11.431   4.996   8.023
63013SOL     OW90935   0.765   3.123   2.237
63013SOL    HW190936   0.833   3.066   2.203
63013SOL    HW290937   0.759   3.101   2.331
63014SOL     OW90938   4.047  13.764   0.773
63014SOL    HW190939   4.139  13.744   0.792
63014SOL    HW290940   4.047  13.856   0.750
63015SOL     OW90941   0.205  12.658  13.706
63015SOL    HW190942   0.272  12.600  13.670
63015SOL    HW290943   0.227  12.666  13.798
63016SOL     OW90944   4.155   1.197  14.808
63016SOL    HW190945   4.208   1.139  14.752
63016SOL    HW290946   4.193   1.187   0.015
63017SOL     OW90947  12.761   5.747   6.624
63017SOL    HW190948  12.787   5.833   6.591
63017SOL    HW290949  12.683   5.725   6.574
63018SOL     OW90950   4.173  11.844   4.781
63018SOL    HW190951   4.095  11.815   4.829
63018SOL    HW290952   4.142  11.859   4.692
63019SOL     OW90953  11.029  10.140   4.209
63019SOL    HW190954  10.943  10.112   4.239
63019SOL    HW290955  11.086  10.066   4.228
63020SOL     OW90956   1.954  14.843  11.987
63020SOL    HW190957   1.884   0.003  11.937
63020SOL    HW290958   2.034   0.006  11.957
63021SOL     OW90959   2.938   1.667   2.559
63021SOL    HW190960   3.020   1.617   2.564
63021SOL    HW290961   2.917   1.669   2.466
63022SOL     OW90962   8.940   0.642   9.418
63022SOL    HW190963   8.944   0.714   9.356
63022SOL    HW290964   8.952   0.564   9.364
63023SOL     OW90965   5.374   5.199   7.855
63023SOL    HW190966   5.352   5.287   7.885
63023SOL    HW290967   5.289   5.155   7.845
63024SOL     OW90968   7.346   0.624   9.054
63024SOL    HW190969   7.260   0.640   9.092
63024SOL    HW290970   7.393   0.707   9.066
63025SOL     OW90971   6.357  13.429   9.934
63025SOL    HW190972   6.273  13.424   9.981
63025SOL    HW290973   6.409  13.491   9.986
63026SOL     OW90974   3.218  11.720   0.282
63026SOL    HW190975   3.209  11.812   0.257
63026SOL    HW290976   3.270  11.681   0.212
63027SOL     OW90977   7.917   7.493   6.013
63027SOL    HW190978   7.912   7.554   6.086
63027SOL    HW290979   7.874   7.414   6.045
63028SOL     OW90980   1.473   1.689   1.063
63028SOL    HW190981   1.384   1.721   1.049
63028SOL    HW290982   1.469   1.644   1.147
63029SOL     OW90983   8.730   2.412   4.152
63029SOL    HW190984   8.759   2.493   4.109
63029SOL    HW290985   8.812   2.367   4.173
63030SOL     OW90986  10.859  10.653  12.907
63030SOL    HW190987  10.886  10.739  12.874
63030SOL    HW290988  10.894  10.591  12.843
63031SOL     OW90989  14.040   0.691   3.568
63031SOL    HW190990  14.121   0.671   3.615
63031SOL    HW290991  13.972   0.688   3.635
63032SOL     OW90992  14.282   3.535   5.614
63032SOL    HW190993  14.289   3.453   5.663
63032SOL    HW290994  14.212   3.519   5.551
63033SOL     OW90995   2.984   6.629   5.226
63033SOL    HW190996   3.007   6.580   5.304
63033SOL    HW290997   3.062   6.683   5.207
63034SOL     OW90998   2.990   4.009   6.330
63034SOL    HW190999   3.026   4.058   6.404
63034SOL    HW291000   2.974   4.074   6.263
63035SOL     OW91001   0.374  12.250   0.455
63035SOL    HW191002   0.331  12.170   0.423
63035SOL    HW291003   0.458  12.252   0.410
63036SOL     OW91004  11.464   7.719   0.833
63036SOL    HW191005  11.418   7.795   0.797
63036SOL    HW291006  11.499   7.749   0.917
63037SOL     OW91007   2.489   9.118  10.022
63037SOL    HW191008   2.469   9.084   9.935
63037SOL    HW291009   2.477   9.043  10.080
63038SOL     OW91010  11.687  13.137   4.056
63038SOL    HW191011  11.709  13.219   4.101
63038SOL    HW291012  11.655  13.080   4.125
63039SOL     OW91013   8.359  12.737   3.352
63039SOL    HW191014   8.414  12.815   3.347
63039SOL    HW291015   8.406  12.678   3.411
63040SOL     OW91016   7.795   7.423   3.277
63040SOL    HW191017   7.821   7.349   3.223
63040SOL    HW291018   7.755   7.384   3.355
63041SOL     OW91019  12.342   1.388   6.558
63041SOL    HW191020  12.263   1.337   6.573
63041SOL    HW291021  12.412   1.323   6.552
63042SOL     OW91022  12.657  14.868   6.307
63042SOL    HW191023  12.596   0.035   6.250
63042SOL    HW291024  12.625  14.778   6.308
63043SOL     OW91025   9.875  14.485  10.245
63043SOL    HW191026   9.819  14.561  10.232
63043SOL    HW291027   9.821  14.410  10.220
63044SOL     OW91028  10.190  12.576   3.783
63044SOL    HW191029  10.257  12.530   3.732
63044SOL    HW291030  10.134  12.617   3.716
63045SOL     OW91031  11.486  11.243   7.244
63045SOL    HW191032  11.440  11.223   7.326
63045SOL    HW291033  11.510  11.335   7.252
63046SOL     OW91034   2.589   7.542  13.510
63046SOL    HW191035   2.646   7.574  13.580
63046SOL    HW291036   2.646   7.532  13.435
63047SOL     OW91037   2.761  11.293   0.120
63047SOL    HW191038   2.835  11.255   0.074
63047SOL    HW291039   2.774  11.388   0.114
63048SOL     OW91040   8.514   0.213   9.446
63048SOL    HW191041   8.542   0.143   9.386
63048SOL    HW291042   8.529   0.294   9.397
63049SOL     OW91043   5.672  12.717   8.392
63049SOL    HW191044   5.627  12.793   8.428
63049SOL    HW291045   5.634  12.706   8.305
63050SOL     OW91046   1.953   1.193  11.585
63050SOL    HW191047   1.894   1.243  11.528
63050SOL    HW291048   2.000   1.135  11.525
63051SOL     OW91049   5.192   7.387  13.141
63051SOL    HW191050   5.287   7.375  13.137
63051SOL    HW291051   5.167   7.343  13.223
63052SOL     OW91052   9.338   2.664   7.379
63052SOL    HW191053   9.416   2.712   7.407
63052SOL    HW291054   9.357   2.573   7.402
63053SOL     OW91055   1.955   3.525   7.489
63053SOL    HW191056   2.009   3.590   7.534
63053SOL    HW291057   1.978   3.442   7.530
63054SOL     OW91058   7.033   8.892  13.142
63054SOL    HW191059   7.039   8.803  13.107
63054SOL    HW291060   7.078   8.947  13.078
63055SOL     OW91061   9.007  11.970   5.404
63055SOL    HW191062   8.998  11.949   5.311
63055SOL    HW291063   9.101  11.965   5.421
63056SOL     OW91064   7.302  11.763  13.605
63056SOL    HW191065   7.288  11.675  13.570
63056SOL    HW291066   7.214  11.800  13.612
63057SOL     OW91067  11.404   6.566  12.455
63057SOL    HW191068  11.425   6.500  12.522
63057SOL    HW291069  11.316   6.595  12.478
63058SOL     OW91070  14.634   0.558   0.420
63058SOL    HW191071  14.678   0.477   0.391
63058SOL    HW291072  14.605   0.539   0.509
63059SOL     OW91073   8.492  14.576   8.818
63059SOL    HW191074   8.516  14.485   8.801
63059SOL    HW291075   8.556  14.607   8.881
63060SOL     OW91076  11.651  12.327   7.956
63060SOL    HW191077  11.671  12.420   7.953
63060SOL    HW291078  11.557  12.322   7.942
63061SOL     OW91079   8.712   2.483  14.494
63061SOL    HW191080   8.748   2.469  14.406
63061SOL    HW291081   8.627   2.524  14.479
63062SOL     OW91082  10.263   5.992   6.936
63062SOL    HW191083  10.180   6.018   6.976
63062SOL    HW291084  10.326   6.057   6.967
63063SOL     OW91085   7.469   8.038  11.364
63063SOL    HW191086   7.444   8.125  11.334
63063SOL    HW291087   7.407   8.017  11.434
63064SOL     OW91088  14.210   9.309   6.079
63064SOL    HW191089  14.142   9.301   6.012
63064SOL    HW291090  14.186   9.386   6.130
63065SOL     OW91091  14.006  13.218   5.196
63065SOL    HW191092  14.068  13.228   5.125
63065SOL    HW291093  13.921  13.205   5.152
63066SOL     OW91094  11.881  11.287   3.419
63066SOL    HW191095  11.800  11.236   3.417
63066SOL    HW291096  11.923  11.262   3.501
63067SOL     OW91097   7.646   7.406   2.423
63067SOL    HW191098   7.636   7.500   2.411
63067SOL    HW291099   7.583   7.367   2.363
63068SOL     OW91100   0.974   4.886  13.875
63068SOL    HW191101   1.030   4.838  13.814
63068SOL    HW291102   0.899   4.912  13.823
63069SOL     OW91103   7.319   6.720   6.957
63069SOL    HW191104   7.278   6.650   7.008
63069SOL    HW291105   7.293   6.702   6.867
63070SOL     OW91106   6.731  10.648   8.828
63070SOL    HW191107   6.738  10.728   8.775
63070SOL    HW291108   6.647  10.657   8.873
63071SOL     OW91109   8.174   7.575   0.288
63071SOL    HW191110   8.255   7.619   0.263
63071SOL    HW291111   8.119   7.645   0.324
63072SOL     OW91112   4.642  10.226   2.460
63072SOL    HW191113   4.642  10.135   2.491
63072SOL    HW291114   4.604  10.220   2.372
63073SOL     OW91115   9.678   4.576   6.686
63073SOL    HW191116   9.589   4.607   6.704
63073SOL    HW291117   9.727   4.654   6.660
63074SOL     OW91118   3.119  11.546   4.758
63074SOL    HW191119   3.101  11.460   4.796
63074SOL    HW291120   3.201  11.536   4.711
63075SOL     OW91121   1.740   1.910  12.148
63075SOL    HW191122   1.753   1.826  12.193
63075SOL    HW291123   1.682   1.960  12.205
63076SOL     OW91124   5.877  10.290   1.769
63076SOL    HW191125   5.964  10.249   1.767
63076SOL    HW291126   5.881  10.351   1.842
63077SOL     OW91127  13.385   7.017   5.009
63077SOL    HW191128  13.317   7.001   5.074
63077SOL    HW291129  13.362   6.959   4.936
63078SOL     OW91130  11.471   4.067  10.192
63078SOL    HW191131  11.411   4.120  10.244
63078SOL    HW291132  11.540   4.040  10.253
63079SOL     OW91133  14.505   8.448  10.170
63079SOL    HW191134  14.570   8.508  10.135
63079SOL    HW291135  14.475   8.489  10.251
63080SOL     OW91136  13.111   9.696  10.754
63080SOL    HW191137  13.094   9.693  10.848
63080SOL    HW291138  13.069   9.618  10.719
63081SOL     OW91139   2.936   3.299  14.618
63081SOL    HW191140   2.963   3.383  14.581
63081SOL    HW291141   3.005   3.237  14.592
63082SOL     OW91142   3.051   1.185  13.344
63082SOL    HW191143   3.076   1.175  13.436
63082SOL    HW291144   2.994   1.110  13.326
63083SOL     OW91145   3.170  12.773   6.707
63083SOL    HW191146   3.122  12.692   6.728
63083SOL    HW291147   3.142  12.835   6.775
63084SOL     OW91148  11.628   1.686  11.682
63084SOL    HW191149  11.553   1.731  11.719
63084SOL    HW291150  11.697   1.752  11.679
63085SOL     OW91151   7.062   5.435   6.152
63085SOL    HW191152   6.989   5.496   6.144
63085SOL    HW291153   7.055   5.401   6.242
63086SOL     OW91154  10.576   3.067   7.914
63086SOL    HW191155  10.518   3.056   7.989
63086SOL    HW291156  10.657   3.022   7.938
63087SOL     OW91157  11.058  13.289  14.095
63087SOL    HW191158  11.102  13.275  14.179
63087SOL    HW291159  11.076  13.380  14.073
63088SOL     OW91160   1.122   5.279  13.316
63088SOL    HW191161   1.186   5.225  13.270
63088SOL    HW291162   1.039   5.232  13.306
63089SOL     OW91163   0.258   0.672   8.210
63089SOL    HW191164   0.163   0.672   8.201
63089SOL    HW291165   0.282   0.580   8.200
63090SOL     OW91166  12.754  11.221   4.597
63090SOL    HW191167  12.796  11.295   4.553
63090SOL    HW291168  12.822  11.186   4.655
63091SOL     OW91169   7.488  11.232  14.697
63091SOL    HW191170   7.470  11.233  14.791
63091SOL    HW291171   7.514  11.322  14.676
63092SOL     OW91172  12.064  12.804   5.535
63092SOL    HW191173  12.050  12.804   5.440
63092SOL    HW291174  11.986  12.846   5.571
63093SOL     OW91175  11.181   2.881   7.464
63093SOL    HW191176  11.254   2.833   7.501
63093SOL    HW291177  11.179   2.964   7.512
63094SOL     OW91178   2.864   6.945   9.162
63094SOL    HW191179   2.875   6.852   9.145
63094SOL    HW291180   2.809   6.949   9.241
63095SOL     OW91181   3.090  13.595   9.847
63095SOL    HW191182   3.133  13.680   9.850
63095SOL    HW291183   2.998  13.616   9.826
63096SOL     OW91184   2.209  14.153   9.180
63096SOL    HW191185   2.285  14.136   9.236
63096SOL    HW291186   2.221  14.094   9.105
63097SOL     OW91187  12.894   6.480   2.198
63097SOL    HW191188  12.911   6.542   2.270
63097SOL    HW291189  12.910   6.531   2.119
63098SOL     OW91190   1.794   1.887   5.578
63098SOL    HW191191   1.842   1.929   5.649
63098SOL    HW291192   1.816   1.938   5.500
63099SOL     OW91193   5.222   6.435   2.392
63099SOL    HW191194   5.276   6.385   2.331
63099SOL    HW291195   5.213   6.521   2.351
63100SOL     OW91196  12.602  11.711   1.986
63100SOL    HW191197  12.562  11.747   2.064
63100SOL    HW291198  12.648  11.786   1.946
63101SOL     OW91199   7.654  10.585  10.943
63101SOL    HW191200   7.711  10.617  10.873
63101SOL    HW291201   7.714  10.549  11.008
63102SOL     OW91202   1.809   8.649   3.861
63102SOL    HW191203   1.747   8.603   3.918
63102SOL    HW291204   1.894   8.639   3.906
63103SOL     OW91205  11.069   5.233   7.187
63103SOL    HW191206  11.034   5.321   7.172
63103SOL    HW291207  11.053   5.217   7.280
63104SOL     OW91208   8.502  13.465   5.364
63104SOL    HW191209   8.421  13.502   5.398
63104SOL    HW291210   8.570  13.524   5.394
63105SOL     OW91211  10.496  13.427   3.034
63105SOL    HW191212  10.531  13.360   2.975
63105SOL    HW291213  10.544  13.414   3.116
63106SOL     OW91214  11.602  11.504  13.763
63106SOL    HW191215  11.572  11.418  13.735
63106SOL    HW291216  11.622  11.551  13.682
63107SOL     OW91217  13.994  12.595   5.711
63107SOL    HW191218  13.924  12.659   5.702
63107SOL    HW291219  13.961  12.517   5.667
63108SOL     OW91220   3.010   0.732  13.403
63108SOL    HW191221   2.929   0.682  13.403
63108SOL    HW291222   3.019   0.765  13.493
63109SOL     OW91223   2.489   6.894  13.043
63109SOL    HW191224   2.478   6.846  13.125
63109SOL    HW291225   2.566   6.854  13.002
63110SOL     OW91226   7.164   6.297   0.678
63110SOL    HW191227   7.167   6.381   0.725
63110SOL    HW291228   7.154   6.232   0.747
63111SOL     OW91229   8.474   3.841   7.927
63111SOL    HW191230   8.513   3.874   8.008
63111SOL    HW291231   8.465   3.919   7.872
63112SOL     OW91232  13.955   9.000   9.667
63112SOL    HW191233  14.001   8.918   9.648
63112SOL    HW291234  13.930   9.034   9.581
63113SOL     OW91235   0.442  10.317   3.604
63113SOL    HW191236   0.379  10.351   3.668
63113SOL    HW291237   0.436  10.376   3.530
63114SOL     OW91238   4.863  10.530   2.186
63114SOL    HW191239   4.771  10.532   2.211
63114SOL    HW291240   4.872  10.451   2.133
63115SOL     OW91241   4.465   8.745   3.086
63115SOL    HW191242   4.466   8.829   3.041
63115SOL    HW291243   4.372   8.720   3.086
63116SOL     OW91244   8.013   2.079  13.971
63116SOL    HW191245   8.058   2.029  13.902
63116SOL    HW291246   8.044   2.169  13.958
63117SOL     OW91247   9.418  11.878   1.516
63117SOL    HW191248   9.482  11.822   1.561
63117SOL    HW291249   9.433  11.965   1.552
63118SOL     OW91250   1.555  13.522   6.274
63118SOL    HW191251   1.567  13.449   6.335
63118SOL    HW291252   1.541  13.480   6.189
63119SOL     OW91253   8.155   6.899  13.246
63119SOL    HW191254   8.176   6.988  13.276
63119SOL    HW291255   8.074   6.909  13.197
63120SOL     OW91256   7.693   3.985   6.794
63120SOL    HW191257   7.675   3.992   6.888
63120SOL    HW291258   7.780   3.944   6.789
63121SOL     OW91259   0.483   9.749   2.637
63121SOL    HW191260   0.476   9.654   2.624
63121SOL    HW291261   0.534   9.759   2.717
63122SOL     OW91262  14.773   3.254  12.108
63122SOL    HW191263  14.821   3.318  12.160
63122SOL    HW291264  14.779   3.173  12.160
63123SOL     OW91265   7.722   0.590   5.186
63123SOL    HW191266   7.724   0.522   5.253
63123SOL    HW291267   7.797   0.570   5.129
63124SOL     OW91268   7.807  10.120   4.156
63124SOL    HW191269   7.767  10.195   4.111
63124SOL    HW291270   7.885  10.157   4.199
63125SOL     OW91271  12.688  14.321   3.700
63125SOL    HW191272  12.658  14.411   3.684
63125SOL    HW291273  12.608  14.270   3.707
63126SOL     OW91274   7.033   9.873   4.909
63126SOL    HW191275   7.057   9.780   4.904
63126SOL    HW291276   6.989   9.882   4.994
63127SOL     OW91277   4.988  13.705  12.138
63127SOL    HW191278   4.950  13.631  12.090
63127SOL    HW291279   5.050  13.744  12.076
63128SOL     OW91280   7.979   4.433  12.314
63128SOL    HW191281   7.917   4.416  12.384
63128SOL    HW291282   8.046   4.364  12.323
63129SOL     OW91283   6.399   7.048   2.812
63129SOL    HW191284   6.448   7.119   2.854
63129SOL    HW291285   6.329   7.093   2.763
63130SOL     OW91286   7.653   4.256   7.186
63130SOL    HW191287   7.701   4.332   7.152
63130SOL    HW291288   7.630   4.281   7.275
63131SOL     OW91289   0.199   1.947  13.239
63131SOL    HW191290   0.237   1.860  13.251
63131SOL    HW291291   0.262   1.994  13.184
63132SOL     OW91292   3.659   1.722   2.488
63132SOL    HW191293   3.631   1.639   2.525
63132SOL    HW291294   3.610   1.730   2.406
63133SOL     OW91295   4.697   2.854   1.795
63133SOL    HW191296   4.738   2.810   1.870
63133SOL    HW291297   4.642   2.787   1.754
63134SOL     OW91298  13.387   9.675   3.458
63134SOL    HW191299  13.471   9.703   3.421
63134SOL    HW291300  13.323   9.738   3.425
63135SOL     OW91301  14.011  12.044   8.299
63135SOL    HW191302  14.023  12.070   8.391
63135SOL    HW291303  14.049  11.957   8.294
63136SOL     OW91304   3.257   4.446   8.798
63136SOL    HW191305   3.321   4.514   8.777
63136SOL    HW291306   3.234   4.463   8.889
63137SOL     OW91307  12.829  13.737  11.822
63137SOL    HW191308  12.886  13.729  11.746
63137SOL    HW291309  12.777  13.657  11.823
63138SOL     OW91310   2.171   6.832   1.208
63138SOL    HW191311   2.108   6.898   1.179
63138SOL    HW291312   2.173   6.841   1.303
63139SOL     OW91313   6.652   0.661   1.201
63139SOL    HW191314   6.607   0.741   1.173
63139SOL    HW291315   6.649   0.603   1.125
63140SOL     OW91316   3.615   3.015   0.764
63140SOL    HW191317   3.668   3.081   0.809
63140SOL    HW291318   3.629   2.934   0.814
63141SOL     OW91319   0.667  13.490   2.454
63141SOL    HW191320   0.749  13.490   2.403
63141SOL    HW291321   0.693  13.457   2.540
63142SOL     OW91322   1.789   1.524   4.181
63142SOL    HW191323   1.774   1.587   4.252
63142SOL    HW291324   1.840   1.572   4.116
63143SOL     OW91325  12.695  10.980  12.756
63143SOL    HW191326  12.645  10.993  12.836
63143SOL    HW291327  12.643  11.024  12.688
63144SOL     OW91328  14.197   3.296   5.703
63144SOL    HW191329  14.106   3.307   5.730
63144SOL    HW291330  14.247   3.294   5.785
63145SOL     OW91331   7.999   7.410  13.509
63145SOL    HW191332   8.084   7.367  13.513
63145SOL    HW291333   7.939   7.342  13.478
63146SOL     OW91334   6.318   9.229   5.685
63146SOL    HW191335   6.350   9.139   5.676
63146SOL    HW291336   6.395   9.284   5.667
63147SOL     OW91337   9.210  12.602   9.178
63147SOL    HW191338   9.168  12.624   9.095
63147SOL    HW291339   9.230  12.686   9.218
63148SOL     OW91340   6.799   6.663   4.497
63148SOL    HW191341   6.783   6.751   4.531
63148SOL    HW291342   6.778   6.605   4.570
63149SOL     OW91343  13.536   6.922   8.994
63149SOL    HW191344  13.543   6.871   9.074
63149SOL    HW291345  13.577   7.006   9.015
63150SOL     OW91346   5.493   7.087  14.321
63150SOL    HW191347   5.422   7.034  14.284
63150SOL    HW291348   5.449   7.152  14.375
63151SOL     OW91349   0.015   1.673  11.815
63151SOL    HW191350  14.842   1.744  11.779
63151SOL    HW291351  14.846   1.643  11.891
63152SOL     OW91352   1.446   8.156   4.022
63152SOL    HW191353   1.488   8.073   4.000
63152SOL    HW291354   1.497   8.189   4.097
63153SOL     OW91355  13.726   0.487  13.806
63153SOL    HW191356  13.667   0.551  13.846
63153SOL    HW291357  13.681   0.461  13.726
63154SOL     OW91358   5.863   2.182   2.091
63154SOL    HW191359   5.776   2.141   2.091
63154SOL    HW291360   5.913   2.131   2.154
63155SOL     OW91361   2.857  11.395  12.041
63155SOL    HW191362   2.905  11.374  12.122
63155SOL    HW291363   2.814  11.313  12.017
63156SOL     OW91364  12.897   5.650   6.359
63156SOL    HW191365  12.851   5.629   6.278
63156SOL    HW291366  12.891   5.746   6.366
63157SOL     OW91367   5.255   2.154   1.481
63157SOL    HW191368   5.297   2.104   1.411
63157SOL    HW291369   5.239   2.241   1.443
63158SOL     OW91370  12.575   6.057   9.599
63158SOL    HW191371  12.580   6.150   9.580
63158SOL    HW291372  12.523   6.021   9.527
63159SOL     OW91373   0.968   2.562   4.976
63159SOL    HW191374   1.019   2.483   4.954
63159SOL    HW291375   0.929   2.542   5.062
63160SOL     OW91376  12.994   0.103   6.665
63160SOL    HW191377  12.980   0.158   6.742
63160SOL    HW291378  12.921   0.124   6.607
63161SOL     OW91379  10.647   7.811   2.980
63161SOL    HW191380  10.624   7.894   3.021
63161SOL    HW291381  10.743   7.810   2.980
63162SOL     OW91382   3.919   1.222   4.043
63162SOL    HW191383   3.892   1.171   4.119
63162SOL    HW291384   3.913   1.313   4.073
63163SOL     OW91385  13.839   6.823   7.383
63163SOL    HW191386  13.923   6.862   7.361
63163SOL    HW291387  13.847   6.801   7.476
63164SOL     OW91388  10.981   9.509   9.997
63164SOL    HW191389  11.072   9.478   9.992
63164SOL    HW291390  10.970   9.535  10.089
63165SOL     OW91391   2.598   4.084   6.543
63165SOL    HW191392   2.658   4.158   6.555
63165SOL    HW291393   2.654   4.013   6.514
63166SOL     OW91394   5.863   0.234   1.479
63166SOL    HW191395   5.879   0.325   1.502
63166SOL    HW291396   5.949   0.192   1.489
63167SOL     OW91397   1.699   3.975   8.669
63167SOL    HW191398   1.756   3.919   8.618
63167SOL    HW291399   1.634   4.007   8.606
63168SOL     OW91400   8.625   7.623   1.541
63168SOL    HW191401   8.656   7.550   1.487
63168SOL    HW291402   8.703   7.676   1.556
63169SOL     OW91403  11.585   3.634   1.915
63169SOL    HW191404  11.562   3.557   1.966
63169SOL    HW291405  11.519   3.699   1.939
63170SOL     OW91406   9.585  13.366  13.695
63170SOL    HW191407   9.664  13.314  13.679
63170SOL    HW291408   9.529  13.348  13.619
63171SOL     OW91409   0.330   6.573  10.050
63171SOL    HW191410   0.426   6.569  10.050
63171SOL    HW291411   0.307   6.578   9.957
63172SOL     OW91412   0.364  14.668   1.055
63172SOL    HW191413   0.304  14.662   0.980
63172SOL    HW291414   0.308  14.654   1.131
63173SOL     OW91415   9.455  14.631  14.018
63173SOL    HW191416   9.512  14.575  14.071
63173SOL    HW291417   9.371  14.586  14.017
63174SOL     OW91418   0.430   5.324   0.740
63174SOL    HW191419   0.340   5.305   0.713
63174SOL    HW291420   0.421   5.369   0.823
63175SOL     OW91421   1.950   9.060  13.021
63175SOL    HW191422   2.023   9.102  12.974
63175SOL    HW291423   1.989   8.984  13.063
63176SOL     OW91424   7.456   8.595   2.253
63176SOL    HW191425   7.525   8.600   2.319
63176SOL    HW291426   7.433   8.686   2.236
63177SOL     OW91427   2.828  11.314   5.066
63177SOL    HW191428   2.877  11.314   5.149
63177SOL    HW291429   2.872  11.380   5.013
63178SOL     OW91430   9.388   8.765  13.807
63178SOL    HW191431   9.385   8.713  13.727
63178SOL    HW291432   9.418   8.851  13.779
63179SOL     OW91433   9.205   0.831   1.777
63179SOL    HW191434   9.215   0.778   1.856
63179SOL    HW291435   9.221   0.769   1.705
63180SOL     OW91436  14.390   5.350   8.775
63180SOL    HW191437  14.480   5.362   8.745
63180SOL    HW291438  14.352   5.287   8.714
63181SOL     OW91439   8.245   2.705   6.435
63181SOL    HW191440   8.300   2.627   6.443
63181SOL    HW291441   8.249   2.728   6.342
63182SOL     OW91442   2.351   3.389   2.620
63182SOL    HW191443   2.387   3.334   2.690
63182SOL    HW291444   2.422   3.449   2.598
63183SOL     OW91445   4.168  12.981  14.701
63183SOL    HW191446   4.199  13.049  14.642
63183SOL    HW291447   4.227  12.985  14.777
63184SOL     OW91448  14.841   8.714  12.807
63184SOL    HW191449   0.005   8.649  12.863
63184SOL    HW291450  14.877   8.798  12.836
63185SOL     OW91451   7.236   0.214   0.575
63185SOL    HW191452   7.311   0.217   0.634
63185SOL    HW291453   7.163   0.250   0.626
63186SOL     OW91454   7.379   9.358   3.593
63186SOL    HW191455   7.373   9.263   3.598
63186SOL    HW291456   7.312   9.384   3.529
63187SOL     OW91457   4.230   6.928   2.089
63187SOL    HW191458   4.313   6.880   2.081
63187SOL    HW291459   4.227   6.983   2.010
63188SOL     OW91460   5.838   5.067   0.650
63188SOL    HW191461   5.824   5.157   0.682
63188SOL    HW291462   5.927   5.046   0.676
63189SOL     OW91463   4.195   2.761  13.368
63189SOL    HW191464   4.134   2.735  13.299
63189SOL    HW291465   4.251   2.685  13.379
63190SOL     OW91466  12.815   2.586  13.560
63190SOL    HW191467  12.807   2.491  13.553
63190SOL    HW291468  12.900   2.599  13.603
63191SOL     OW91469  11.463  13.018  10.796
63191SOL    HW191470  11.485  13.077  10.724
63191SOL    HW291471  11.509  12.937  10.776
63192SOL     OW91472   1.235   4.895  10.606
63192SOL    HW191473   1.224   4.969  10.666
63192SOL    HW291474   1.244   4.935  10.520
63193SOL     OW91475   7.149  13.640   0.523
63193SOL    HW191476   7.169  13.731   0.503
63193SOL    HW291477   7.234  13.601   0.546
63194SOL     OW91478  12.988   4.140   2.489
63194SOL    HW191479  13.048   4.129   2.415
63194SOL    HW291480  13.036   4.104   2.564
63195SOL     OW91481   0.217   9.242   1.448
63195SOL    HW191482   0.309   9.238   1.422
63195SOL    HW291483   0.208   9.174   1.515
63196SOL     OW91484   7.133  11.273   6.356
63196SOL    HW191485   7.225  11.251   6.341
63196SOL    HW291486   7.098  11.197   6.404
63197SOL     OW91487   4.229   6.976   1.162
63197SOL    HW191488   4.284   6.987   1.239
63197SOL    HW291489   4.290   6.973   1.088
63198SOL     OW91490   3.426  14.299  11.561
63198SOL    HW191491   3.394  14.303  11.471
63198SOL    HW291492   3.375  14.228  11.602
63199SOL     OW91493   9.435  11.972   8.904
63199SOL    HW191494   9.415  12.062   8.929
63199SOL    HW291495   9.371  11.919   8.951
63200SOL     OW91496   8.468  13.811   4.646
63200SOL    HW191497   8.561  13.785   4.648
63200SOL    HW291498   8.436  13.789   4.733
63201SOL     OW91499  11.121  10.944  14.006
63201SOL    HW191500  11.198  10.941  14.062
63201SOL    HW291501  11.068  11.016  14.042
63202SOL     OW91502   5.022  12.192   7.352
63202SOL    HW191503   4.991  12.150   7.272
63202SOL    HW291504   5.116  12.173   7.354
63203SOL     OW91505   3.593   6.329   0.527
63203SOL    HW191506   3.650   6.398   0.562
63203SOL    HW291507   3.505   6.365   0.533
63204SOL     OW91508  10.227   6.058   3.799
63204SOL    HW191509  10.265   6.028   3.717
63204SOL    HW291510  10.298   6.103   3.844
63205SOL     OW91511   6.274   3.115   9.234
63205SOL    HW191512   6.265   3.086   9.143
63205SOL    HW291513   6.286   3.210   9.228
63206SOL     OW91514   8.136  11.600   7.419
63206SOL    HW191515   8.213  11.627   7.368
63206SOL    HW291516   8.070  11.577   7.353
63207SOL     OW91517   7.632   3.531  13.259
63207SOL    HW191518   7.685   3.608  13.276
63207SOL    HW291519   7.641   3.516  13.165
63208SOL     OW91520   6.391   2.747  11.151
63208SOL    HW191521   6.460   2.813  11.161
63208SOL    HW291522   6.362   2.729  11.241
63209SOL     OW91523  14.473   6.426   1.179
63209SOL    HW191524  14.513   6.465   1.101
63209SOL    HW291525  14.529   6.350   1.199
63210SOL     OW91526   4.925   9.147   2.832
63210SOL    HW191527   4.945   9.068   2.881
63210SOL    HW291528   5.007   9.170   2.789
63211SOL     OW91529  11.658   9.367   4.475
63211SOL    HW191530  11.607   9.290   4.500
63211SOL    HW291531  11.640   9.431   4.544
63212SOL     OW91532   9.431   6.852   9.991
63212SOL    HW191533   9.398   6.862  10.080
63212SOL    HW291534   9.391   6.771   9.959
63213SOL     OW91535   5.077   7.716  12.243
63213SOL    HW191536   5.034   7.749  12.164
63213SOL    HW291537   5.115   7.632  12.216
63214SOL     OW91538   2.737   1.074  10.627
63214SOL    HW191539   2.641   1.081  10.625
63214SOL    HW291540   2.761   1.109  10.713
63215SOL     OW91541   5.358  14.442   6.962
63215SOL    HW191542   5.270  14.478   6.954
63215SOL    HW291543   5.369  14.389   6.882
63216SOL     OW91544   3.111   7.534   5.829
63216SOL    HW191545   3.186   7.538   5.769
63216SOL    HW291546   3.150   7.531   5.916
63217SOL     OW91547  13.662   3.286   7.920
63217SOL    HW191548  13.679   3.197   7.952
63217SOL    HW291549  13.618   3.273   7.836
63218SOL     OW91550  11.108   1.916   9.935
63218SOL    HW191551  11.045   1.975   9.977
63218SOL    HW291552  11.058   1.835   9.922
63219SOL     OW91553  10.053  13.742   5.173
63219SOL    HW191554   9.989  13.715   5.107
63219SOL    HW291555  10.137  13.742   5.126
63220SOL     OW91556  11.466   2.321   8.455
63220SOL    HW191557  11.537   2.284   8.403
63220SOL    HW291558  11.388   2.307   8.402
63221SOL     OW91559   9.371   3.237   7.578
63221SOL    HW191560   9.381   3.206   7.489
63221SOL    HW291561   9.390   3.331   7.574
63222SOL     OW91562  14.511   9.062   2.059
63222SOL    HW191563  14.437   9.118   2.084
63222SOL    HW291564  14.538   9.021   2.140
63223SOL     OW91565  14.328  14.514   7.779
63223SOL    HW191566  14.326  14.609   7.772
63223SOL    HW291567  14.421  14.491   7.768
63224SOL     OW91568  12.013   2.918  11.676
63224SOL    HW191569  12.085   2.890  11.733
63224SOL    HW291570  11.993   3.007  11.704
63225SOL     OW91571  12.529   1.932   4.341
63225SOL    HW191572  12.603   1.993   4.334
63225SOL    HW291573  12.468   1.962   4.274
63226SOL     OW91574   1.217  13.822   1.785
63226SOL    HW191575   1.170  13.819   1.702
63226SOL    HW291576   1.251  13.911   1.790
63227SOL     OW91577   8.311   7.765  14.146
63227SOL    HW191578   8.322   7.832  14.214
63227SOL    HW291579   8.253   7.805  14.081
63228SOL     OW91580   0.703   4.634   0.237
63228SOL    HW191581   0.637   4.702   0.256
63228SOL    HW291582   0.744   4.662   0.156
63229SOL     OW91583  10.679   9.989   6.293
63229SOL    HW191584  10.657  10.030   6.210
63229SOL    HW291585  10.596   9.981   6.339
63230SOL     OW91586   1.758  11.750  10.612
63230SOL    HW191587   1.683  11.764  10.554
63230SOL    HW291588   1.736  11.799  10.691
63231SOL     OW91589   6.236  13.800   0.524
63231SOL    HW191590   6.292  13.766   0.593
63231SOL    HW291591   6.186  13.725   0.494
63232SOL     OW91592  11.797   3.405  10.527
63232SOL    HW191593  11.852   3.397  10.604
63232SOL    HW291594  11.858   3.412  10.454
63233SOL     OW91595   9.428   1.975   4.305
63233SOL    HW191596   9.411   1.907   4.239
63233SOL    HW291597   9.491   2.033   4.264
63234SOL     OW91598   2.352   1.314  13.926
63234SOL    HW191599   2.278   1.347  13.976
63234SOL    HW291600   2.319   1.308  13.836
63235SOL     OW91601  12.626  11.080   7.839
63235SOL    HW191602  12.691  11.108   7.775
63235SOL    HW291603  12.666  11.004   7.882
63236SOL     OW91604  13.733   9.186  10.854
63236SOL    HW191605  13.776   9.228  10.779
63236SOL    HW291606  13.791   9.203  10.928
63237SOL     OW91607   0.406   5.372   4.530
63237SOL    HW191608   0.369   5.458   4.514
63237SOL    HW291609   0.481   5.388   4.586
63238SOL     OW91610   3.884   9.404   6.988
63238SOL    HW191611   3.830   9.482   6.977
63238SOL    HW291612   3.860   9.348   6.914
63239SOL     OW91613   1.777  11.861   1.828
63239SOL    HW191614   1.823  11.811   1.895
63239SOL    HW291615   1.712  11.801   1.793
63240SOL     OW91616   1.992   4.270   3.127
63240SOL    HW191617   2.014   4.344   3.184
63240SOL    HW291618   2.003   4.303   3.038
63241SOL     OW91619   1.797   8.271   2.547
63241SOL    HW191620   1.744   8.194   2.528
63241SOL    HW291621   1.790   8.325   2.468
63242SOL     OW91622   1.955  10.461   1.038
63242SOL    HW191623   1.893  10.470   0.966
63242SOL    HW291624   1.921  10.519   1.106
63243SOL     OW91625   7.326   3.115  10.015
63243SOL    HW191626   7.290   3.203  10.019
63243SOL    HW291627   7.312   3.088   9.924
63244SOL     OW91628   2.952   6.079   8.588
63244SOL    HW191629   3.032   6.041   8.626
63244SOL    HW291630   2.883   6.050   8.647
63245SOL     OW91631   4.269   7.159   5.677
63245SOL    HW191632   4.200   7.187   5.737
63245SOL    HW291633   4.350   7.183   5.723
63246SOL     OW91634   5.703   1.133  11.897
63246SOL    HW191635   5.617   1.174  11.886
63246SOL    HW291636   5.761   1.206  11.918
63247SOL     OW91637   0.650   3.778   1.001
63247SOL    HW191638   0.702   3.858   1.007
63247SOL    HW291639   0.593   3.782   1.078
63248SOL     OW91640   5.667   8.032   7.043
63248SOL    HW191641   5.589   8.027   6.987
63248SOL    HW291642   5.736   8.062   6.985
63249SOL     OW91643  12.498   4.012   7.753
63249SOL    HW191644  12.440   4.059   7.813
63249SOL    HW291645  12.459   3.925   7.745
63250SOL     OW91646  13.413   1.521  10.409
63250SOL    HW191647  13.435   1.469  10.487
63250SOL    HW291648  13.498   1.553  10.378
63251SOL     OW91649  12.125   2.388   0.113
63251SOL    HW191650  12.049   2.343   0.077
63251SOL    HW291651  12.192   2.320   0.118
63252SOL     OW91652   2.617  11.079   0.996
63252SOL    HW191653   2.710  11.060   1.005
63252SOL    HW291654   2.604  11.160   1.044
63253SOL     OW91655   9.166   9.604   3.163
63253SOL    HW191656   9.160   9.690   3.204
63253SOL    HW291657   9.120   9.545   3.224
63254SOL     OW91658   9.503   0.339  13.604
63254SOL    HW191659   9.571   0.404  13.588
63254SOL    HW291660   9.477   0.353  13.695
63255SOL     OW91661   7.616  13.453  12.324
63255SOL    HW191662   7.599  13.466  12.417
63255SOL    HW291663   7.667  13.372  12.320
63256SOL     OW91664   9.564   3.794   1.004
63256SOL    HW191665   9.631   3.846   0.961
63256SOL    HW291666   9.497   3.857   1.029
63257SOL     OW91667   9.081   3.076   2.343
63257SOL    HW191668   9.074   3.147   2.279
63257SOL    HW291669   8.993   3.068   2.379
63258SOL     OW91670   4.940  14.108   9.236
63258SOL    HW191671   4.858  14.139   9.196
63258SOL    HW291672   4.963  14.030   9.184
63259SOL     OW91673  14.184   2.111   2.408
63259SOL    HW191674  14.139   2.082   2.329
63259SOL    HW291675  14.160   2.046   2.475
63260SOL     OW91676   8.727   7.840  11.471
63260SOL    HW191677   8.798   7.834  11.407
63260SOL    HW291678   8.735   7.929  11.507
63261SOL     OW91679  13.239  13.308  10.791
63261SOL    HW191680  13.286  13.258  10.725
63261SOL    HW291681  13.230  13.248  10.865
63262SOL     OW91682   5.771   0.803   6.484
63262SOL    HW191683   5.755   0.754   6.565
63262SOL    HW291684   5.690   0.850   6.467
63263SOL     OW91685   2.169   0.700  13.264
63263SOL    HW191686   2.245   0.742  13.304
63263SOL    HW291687   2.205   0.629  13.211
63264SOL     OW91688   6.203  12.187   2.702
63264SOL    HW191689   6.297  12.203   2.694
63264SOL    HW291690   6.184  12.197   2.795
63265SOL     OW91691   4.643   9.414   0.561
63265SOL    HW191692   4.632   9.363   0.481
63265SOL    HW291693   4.713   9.369   0.609
63266SOL     OW91694   9.343  10.538   4.952
63266SOL    HW191695   9.429  10.578   4.936
63266SOL    HW291696   9.323  10.492   4.871
63267SOL     OW91697  13.675  12.760   8.026
63267SOL    HW191698  13.730  12.708   8.084
63267SOL    HW291699  13.597  12.706   8.011
63268SOL     OW91700   5.023   9.870   3.453
63268SOL    HW191701   5.003   9.791   3.403
63268SOL    HW291702   5.111   9.894   3.426
63269SOL     OW91703   3.269  11.618   4.383
63269SOL    HW191704   3.279  11.557   4.456
63269SOL    HW291705   3.358  11.650   4.367
63270SOL     OW91706   0.597  11.316  11.336
63270SOL    HW191707   0.644  11.392  11.372
63270SOL    HW291708   0.538  11.353  11.271
63271SOL     OW91709  13.429  11.444   4.618
63271SOL    HW191710  13.355  11.502   4.601
63271SOL    HW291711  13.439  11.393   4.538
63272SOL     OW91712   9.502   3.415  11.626
63272SOL    HW191713   9.582   3.364  11.636
63272SOL    HW291714   9.495   3.430  11.532
63273SOL     OW91715   7.865   7.036  10.574
63273SOL    HW191716   7.825   6.981  10.641
63273SOL    HW291717   7.794   7.092  10.542
63274SOL     OW91718   8.206  14.751  13.881
63274SOL    HW191719   8.128  14.806  13.893
63274SOL    HW291720   8.214  14.702  13.963
63275SOL     OW91721   1.577   2.285   6.361
63275SOL    HW191722   1.622   2.319   6.284
63275SOL    HW291723   1.646   2.250   6.416
63276SOL     OW91724  10.269   3.313   1.730
63276SOL    HW191725  10.336   3.245   1.745
63276SOL    HW291726  10.195   3.286   1.784
63277SOL     OW91727   9.389  13.012   9.380
63277SOL    HW191728   9.450  12.965   9.438
63277SOL    HW291729   9.445  13.051   9.313
63278SOL     OW91730   9.174  10.671   6.735
63278SOL    HW191731   9.098  10.663   6.677
63278SOL    HW291732   9.138  10.696   6.820
63279SOL     OW91733   9.243  13.170  10.429
63279SOL    HW191734   9.221  13.258  10.460
63279SOL    HW291735   9.325  13.181  10.381
63280SOL     OW91736   2.696  11.796   7.600
63280SOL    HW191737   2.773  11.781   7.654
63280SOL    HW291738   2.624  11.802   7.663
63281SOL     OW91739   4.591  11.458   1.866
63281SOL    HW191740   4.508  11.440   1.821
63281SOL    HW291741   4.619  11.542   1.831
63282SOL     OW91742   8.677   1.514   7.073
63282SOL    HW191743   8.669   1.608   7.090
63282SOL    HW291744   8.680   1.507   6.978
63283SOL     OW91745   2.993   4.508   5.746
63283SOL    HW191746   2.952   4.522   5.661
63283SOL    HW291747   2.947   4.432   5.783
63284SOL     OW91748   0.177   7.182   6.016
63284SOL    HW191749   0.118   7.215   6.084
63284SOL    HW291750   0.242   7.252   6.006
63285SOL     OW91751   4.532   6.509  12.404
63285SOL    HW191752   4.440   6.530  12.386
63285SOL    HW291753   4.540   6.415  12.387
63286SOL     OW91754  10.480   6.972   5.526
63286SOL    HW191755  10.485   6.905   5.457
63286SOL    HW291756  10.433   6.930   5.597
63287SOL     OW91757  10.238  12.747   3.447
63287SOL    HW191758  10.238  12.835   3.411
63287SOL    HW291759  10.161  12.743   3.503
63288SOL     OW91760   0.268   5.360  10.268
63288SOL    HW191761   0.208   5.334  10.338
63288SOL    HW291762   0.287   5.279  10.221
63289SOL     OW91763   6.064  10.981   5.098
63289SOL    HW191764   5.995  10.971   5.032
63289SOL    HW291765   6.023  11.033   5.167
63290SOL     OW91766   7.324   7.230   0.691
63290SOL    HW191767   7.371   7.147   0.682
63290SOL    HW291768   7.392   7.297   0.688
63291SOL     OW91769   2.341   8.441   6.093
63291SOL    HW191770   2.322   8.467   6.183
63291SOL    HW291771   2.399   8.509   6.059
63292SOL     OW91772  10.299   5.640   3.246
63292SOL    HW191773  10.214   5.597   3.249
63292SOL    HW291774  10.281   5.728   3.212
63293SOL     OW91775   2.496   7.475   1.528
63293SOL    HW191776   2.470   7.565   1.548
63293SOL    HW291777   2.487   7.429   1.612
63294SOL     OW91778   4.626  12.669   4.121
63294SOL    HW191779   4.547  12.695   4.074
63294SOL    HW291780   4.649  12.583   4.084
63295SOL     OW91781   1.014  12.638   2.682
63295SOL    HW191782   1.101  12.597   2.680
63295SOL    HW291783   1.013  12.688   2.763
63296SOL     OW91784   1.065   6.606   1.689
63296SOL    HW191785   1.124   6.544   1.647
63296SOL    HW291786   0.998   6.552   1.731
63297SOL     OW91787  12.626  12.228  10.876
63297SOL    HW191788  12.666  12.235  10.790
63297SOL    HW291789  12.669  12.153  10.917
63298SOL     OW91790   4.996  12.887   7.524
63298SOL    HW191791   4.934  12.922   7.588
63298SOL    HW291792   5.078  12.932   7.542
63299SOL     OW91793  11.324   1.731   8.034
63299SOL    HW191794  11.319   1.804   8.096
63299SOL    HW291795  11.411   1.740   7.995
63300SOL     OW91796   4.051   6.184  13.031
63300SOL    HW191797   4.075   6.092  13.022
63300SOL    HW291798   4.068   6.221  12.944
63301SOL     OW91799   7.799   6.881   6.073
63301SOL    HW191800   7.761   6.816   6.132
63301SOL    HW291801   7.887   6.897   6.108
63302SOL     OW91802   5.706   8.826  14.291
63302SOL    HW191803   5.705   8.868  14.377
63302SOL    HW291804   5.744   8.740  14.307
63303SOL     OW91805  13.281   5.982  13.579
63303SOL    HW191806  13.206   6.017  13.628
63303SOL    HW291807  13.336   5.941  13.645
63304SOL     OW91808   6.071  14.119  13.360
63304SOL    HW191809   6.119  14.175  13.420
63304SOL    HW291810   6.094  14.030  13.387
63305SOL     OW91811  11.543   3.236   3.972
63305SOL    HW191812  11.481   3.181   4.019
63305SOL    HW291813  11.493   3.315   3.949
63306SOL     OW91814   9.828   5.616  10.626
63306SOL    HW191815   9.887   5.582  10.559
63306SOL    HW291816   9.740   5.600  10.591
63307SOL     OW91817   5.455   1.224  11.938
63307SOL    HW191818   5.432   1.314  11.961
63307SOL    HW291819   5.388   1.170  11.980
63308SOL     OW91820  11.811  13.178  13.088
63308SOL    HW191821  11.827  13.196  13.181
63308SOL    HW291822  11.870  13.105  13.069
63309SOL     OW91823  12.266   7.877  11.781
63309SOL    HW191824  12.315   7.959  11.776
63309SOL    HW291825  12.314   7.824  11.844
63310SOL     OW91826   9.476   2.960   1.728
63310SOL    HW191827   9.439   2.993   1.810
63310SOL    HW291828   9.441   3.019   1.661
63311SOL     OW91829   7.642   5.496   2.717
63311SOL    HW191830   7.569   5.558   2.725
63311SOL    HW291831   7.650   5.457   2.804
63312SOL     OW91832   8.088  11.536  12.833
63312SOL    HW191833   7.996  11.528  12.806
63312SOL    HW291834   8.134  11.561  12.753
63313SOL     OW91835  14.408  11.798   0.157
63313SOL    HW191836  14.421  11.817   0.250
63313SOL    HW291837  14.448  11.713   0.144
63314SOL     OW91838   3.690  10.071  13.982
63314SOL    HW191839   3.769  10.123  13.993
63314SOL    HW291840   3.721   9.984  13.959
63315SOL     OW91841  12.455  11.926   8.168
63315SOL    HW191842  12.420  12.008   8.134
63315SOL    HW291843  12.507  11.951   8.244
63316SOL     OW91844   3.556   2.820   2.379
63316SOL    HW191845   3.638   2.772   2.371
63316SOL    HW291846   3.512   2.780   2.454
63317SOL     OW91847   9.694   2.161  13.213
63317SOL    HW191848   9.725   2.249  13.193
63317SOL    HW291849   9.603   2.173  13.238
63318SOL     OW91850   2.823  10.798  13.897
63318SOL    HW191851   2.862  10.727  13.949
63318SOL    HW291852   2.729  10.781  13.901
63319SOL     OW91853   5.797  12.429   1.668
63319SOL    HW191854   5.728  12.477   1.713
63319SOL    HW291855   5.769  12.338   1.670
63320SOL     OW91856   3.256  14.043  11.230
63320SOL    HW191857   3.338  14.052  11.278
63320SOL    HW291858   3.213  13.967  11.268
63321SOL     OW91859  14.056   7.642   9.713
63321SOL    HW191860  14.063   7.729   9.674
63321SOL    HW291861  14.135   7.597   9.684
63322SOL     OW91862   3.742   3.592  14.029
63322SOL    HW191863   3.824   3.641  14.023
63322SOL    HW291864   3.684   3.636  13.967
63323SOL     OW91865   7.129  13.101   4.475
63323SOL    HW191866   7.142  13.017   4.520
63323SOL    HW291867   7.059  13.144   4.524
63324SOL     OW91868   6.998   3.550   0.609
63324SOL    HW191869   6.961   3.496   0.539
63324SOL    HW291870   7.058   3.610   0.563
63325SOL     OW91871  12.543  11.076  13.284
63325SOL    HW191872  12.573  10.988  13.261
63325SOL    HW291873  12.623  11.128  13.294
63326SOL     OW91874  12.058   3.926   7.295
63326SOL    HW191875  12.134   3.979   7.318
63326SOL    HW291876  12.056   3.926   7.199
63327SOL     OW91877  11.351   3.744   9.770
63327SOL    HW191878  11.400   3.752   9.689
63327SOL    HW291879  11.415   3.710   9.833
63328SOL     OW91880   4.080  11.044   3.185
63328SOL    HW191881   4.094  10.949   3.186
63328SOL    HW291882   4.163  11.082   3.214
63329SOL     OW91883  11.092   7.502   4.661
63329SOL    HW191884  11.083   7.587   4.705
63329SOL    HW291885  11.156   7.517   4.592
63330SOL     OW91886  13.742   1.165   5.454
63330SOL    HW191887  13.729   1.184   5.547
63330SOL    HW291888  13.707   1.241   5.409
63331SOL     OW91889   1.159   5.382  11.928
63331SOL    HW191890   1.111   5.464  11.914
63331SOL    HW291891   1.215   5.400  12.003
63332SOL     OW91892  13.283   4.335   9.041
63332SOL    HW191893  13.320   4.286   8.968
63332SOL    HW291894  13.353   4.394   9.068
63333SOL     OW91895   2.193   2.414  13.810
63333SOL    HW191896   2.157   2.326  13.811
63333SOL    HW291897   2.223   2.429  13.900
63334SOL     OW91898   3.921   2.756   0.435
63334SOL    HW191899   3.914   2.721   0.524
63334SOL    HW291900   3.900   2.849   0.444
63335SOL     OW91901  10.954  12.570   8.235
63335SOL    HW191902  10.868  12.550   8.198
63335SOL    HW291903  10.949  12.538   8.325
63336SOL     OW91904   4.009   7.253   3.830
63336SOL    HW191905   3.952   7.225   3.902
63336SOL    HW291906   4.010   7.348   3.835
63337SOL     OW91907   5.162   2.377   8.446
63337SOL    HW191908   5.208   2.294   8.461
63337SOL    HW291909   5.206   2.440   8.504
63338SOL     OW91910   3.011  13.415  13.698
63338SOL    HW191911   2.947  13.416  13.626
63338SOL    HW291912   3.096  13.427  13.654
63339SOL     OW91913  11.531   4.428   2.497
63339SOL    HW191914  11.468   4.376   2.448
63339SOL    HW291915  11.609   4.429   2.443
63340SOL     OW91916   7.727  13.397   0.936
63340SOL    HW191917   7.766  13.309   0.925
63340SOL    HW291918   7.754  13.444   0.857
63341SOL     OW91919   4.975  11.781   1.382
63341SOL    HW191920   4.947  11.834   1.307
63341SOL    HW291921   5.056  11.739   1.354
63342SOL     OW91922   6.906   4.037   2.150
63342SOL    HW191923   6.870   3.951   2.168
63342SOL    HW291924   6.899   4.084   2.233
63343SOL     OW91925   0.665   9.551   0.474
63343SOL    HW191926   0.604   9.486   0.439
63343SOL    HW291927   0.663   9.537   0.568
63344SOL     OW91928  14.174  14.671  11.340
63344SOL    HW191929  14.227  14.703  11.413
63344SOL    HW291930  14.142  14.750  11.296
63345SOL     OW91931   4.382  10.645  12.857
63345SOL    HW191932   4.410  10.636  12.948
63345SOL    HW291933   4.341  10.732  12.853
63346SOL     OW91934  14.232  12.007   4.394
63346SOL    HW191935  14.143  11.982   4.421
63346SOL    HW291936  14.259  12.073   4.458
63347SOL     OW91937   6.596   1.757  13.040
63347SOL    HW191938   6.504   1.751  13.067
63347SOL    HW291939   6.646   1.726  13.115
63348SOL     OW91940   3.872   3.398  11.301
63348SOL    HW191941   3.819   3.350  11.364
63348SOL    HW291942   3.916   3.466  11.353
63349SOL     OW91943  11.646   1.257   9.408
63349SOL    HW191944  11.626   1.235   9.318
63349SOL    HW291945  11.675   1.348   9.405
63350SOL     OW91946   4.471   9.981   9.367
63350SOL    HW191947   4.499   9.902   9.413
63350SOL    HW291948   4.412   9.949   9.298
63351SOL     OW91949  12.978   0.420  12.676
63351SOL    HW191950  12.921   0.380  12.741
63351SOL    HW291951  13.051   0.457  12.726
63352SOL     OW91952   1.782   8.035  11.944
63352SOL    HW191953   1.733   8.117  11.952
63352SOL    HW291954   1.872   8.063  11.926
63353SOL     OW91955  14.630  14.621  10.149
63353SOL    HW191956  14.652  14.528  10.141
63353SOL    HW291957  14.665  14.647  10.234
63354SOL     OW91958   6.877   1.162   0.918
63354SOL    HW191959   6.848   1.242   0.875
63354SOL    HW291960   6.926   1.193   0.995
63355SOL     OW91961   0.023  11.578   4.551
63355SOL    HW191962  14.834  11.640   4.529
63355SOL    HW291963  14.858  11.500   4.582
63356SOL     OW91964   5.493   4.630   0.125
63356SOL    HW191965   5.554   4.702   0.107
63356SOL    HW291966   5.547   4.551   0.122
63357SOL     OW91967  13.064  14.688   6.685
63357SOL    HW191968  12.979  14.652   6.710
63357SOL    HW291969  13.044  14.771   6.642
63358SOL     OW91970   4.729   7.529   3.095
63358SOL    HW191971   4.755   7.440   3.073
63358SOL    HW291972   4.805   7.583   3.073
63359SOL     OW91973   4.602  12.390  13.056
63359SOL    HW191974   4.530  12.447  13.028
63359SOL    HW291975   4.637  12.354  12.975
63360SOL     OW91976  12.158   9.471   3.715
63360SOL    HW191977  12.128   9.559   3.697
63360SOL    HW291978  12.124   9.451   3.803
63361SOL     OW91979   0.677  12.323   9.659
63361SOL    HW191980   0.593  12.297   9.696
63361SOL    HW291981   0.714  12.384   9.723
63362SOL     OW91982  11.657   6.858   7.112
63362SOL    HW191983  11.681   6.782   7.058
63362SOL    HW291984  11.563   6.847   7.127
63363SOL     OW91985  10.919   8.116   9.334
63363SOL    HW191986  10.881   8.145   9.251
63363SOL    HW291987  10.867   8.040   9.359
63364SOL     OW91988  11.517   6.091   2.546
63364SOL    HW191989  11.512   6.147   2.623
63364SOL    HW291990  11.426   6.069   2.527
63365SOL     OW91991  14.784   2.047   9.761
63365SOL    HW191992  14.784   2.016   9.851
63365SOL    HW291993  14.775   1.968   9.708
63366SOL     OW91994   0.888   7.550   6.378
63366SOL    HW191995   0.834   7.482   6.417
63366SOL    HW291996   0.864   7.549   6.285
63367SOL     OW91997   1.052   6.656   4.167
63367SOL    HW191998   0.980   6.718   4.173
63367SOL    HW291999   1.085   6.665   4.077
63368SOL     OW92000   8.228  11.886   9.255
63368SOL    HW192001   8.133  11.883   9.260
63368SOL    HW292002   8.258  11.813   9.309
63369SOL     OW92003  11.137   4.508  10.949
63369SOL    HW192004  11.225   4.544  10.942
63369SOL    HW292005  11.094   4.532  10.867
63370SOL     OW92006   6.700   8.497   0.270
63370SOL    HW192007   6.702   8.573   0.212
63370SOL    HW292008   6.740   8.426   0.218
63371SOL     OW92009   0.924   9.788   8.424
63371SOL    HW192010   0.844   9.837   8.410
63371SOL    HW292011   0.988   9.853   8.454
63372SOL     OW92012   0.551  11.919   1.947
63372SOL    HW192013   0.524  11.901   2.037
63372SOL    HW292014   0.584  12.008   1.950
63373SOL     OW92015   6.085  11.554  11.817
63373SOL    HW192016   6.104  11.575  11.726
63373SOL    HW292017   6.167  11.519  11.852
63374SOL     OW92018   2.669   9.928   2.500
63374SOL    HW192019   2.634   9.978   2.426
63374SOL    HW292020   2.730   9.866   2.460
63375SOL     OW92021   5.855  11.038   3.923
63375SOL    HW192022   5.784  11.072   3.868
63375SOL    HW292023   5.934  11.046   3.869
63376SOL     OW92024  14.261   8.271  11.614
63376SOL    HW192025  14.345   8.227  11.622
63376SOL    HW292026  14.206   8.229  11.681
63377SOL     OW92027   9.869   8.669  12.585
63377SOL    HW192028   9.857   8.602  12.518
63377SOL    HW292029   9.950   8.645  12.629
63378SOL     OW92030  11.400   1.405   9.762
63378SOL    HW192031  11.452   1.362   9.831
63378SOL    HW292032  11.415   1.350   9.685
63379SOL     OW92033   0.520   1.925   9.172
63379SOL    HW192034   0.532   1.859   9.104
63379SOL    HW292035   0.500   2.005   9.123
63380SOL     OW92036  10.615   3.911  10.837
63380SOL    HW192037  10.641   3.836  10.783
63380SOL    HW292038  10.523   3.895  10.856
63381SOL     OW92039   7.639  13.458   5.423
63381SOL    HW192040   7.664  13.545   5.392
63381SOL    HW292041   7.717  13.405   5.407
63382SOL     OW92042   3.135  12.477   4.288
63382SOL    HW192043   3.077  12.547   4.317
63382SOL    HW292044   3.111  12.462   4.197
63383SOL     OW92045   8.447  12.271   7.940
63383SOL    HW192046   8.435  12.198   8.000
63383SOL    HW292047   8.481  12.231   7.859
63384SOL     OW92048   4.686  10.694   9.154
63384SOL    HW192049   4.603  10.714   9.110
63384SOL    HW292050   4.752  10.742   9.105
63385SOL     OW92051  11.478  11.739  11.174
63385SOL    HW192052  11.408  11.681  11.202
63385SOL    HW292053  11.498  11.791  11.251
63386SOL     OW92054   2.209   6.368  14.739
63386SOL    HW192055   2.275   6.435  14.724
63386SOL    HW292056   2.256   6.285  14.734
63387SOL     OW92057  10.086  13.464  13.884
63387SOL    HW192058  10.020  13.534  13.882
63387SOL    HW292059  10.170  13.510  13.885
63388SOL     OW92060  11.413  12.834  10.526
63388SOL    HW192061  11.328  12.814  10.566
63388SOL    HW292062  11.410  12.792  10.440
63389SOL     OW92063   2.765   5.023   0.608
63389SOL    HW192064   2.747   5.096   0.667
63389SOL    HW292065   2.814   5.063   0.535
63390SOL     OW92066   0.334   9.065  10.026
63390SOL    HW192067   0.290   8.988   9.990
63390SOL    HW292068   0.411   9.077   9.969
63391SOL     OW92069   2.118   5.554   2.047
63391SOL    HW192070   2.033   5.588   2.076
63391SOL    HW292071   2.116   5.563   1.952
63392SOL     OW92072   3.407   8.932   3.251
63392SOL    HW192073   3.369   8.958   3.335
63392SOL    HW292074   3.395   8.837   3.248
63393SOL     OW92075   1.136   6.781   6.787
63393SOL    HW192076   1.111   6.831   6.865
63393SOL    HW292077   1.221   6.816   6.762
63394SOL     OW92078   2.063  10.773   7.496
63394SOL    HW192079   2.008  10.827   7.552
63394SOL    HW292080   2.048  10.683   7.527
63395SOL     OW92081  14.020   9.076  12.721
63395SOL    HW192082  14.073   9.038  12.651
63395SOL    HW292083  13.930   9.057  12.697
63396SOL     OW92084  12.406   6.865   6.888
63396SOL    HW192085  12.413   6.799   6.957
63396SOL    HW292086  12.397   6.948   6.935
63397SOL     OW92087   9.945   1.056   6.854
63397SOL    HW192088   9.881   1.102   6.908
63397SOL    HW292089   9.989   1.124   6.804
63398SOL     OW92090   3.239  13.581   5.218
63398SOL    HW192091   3.177  13.538   5.160
63398SOL    HW292092   3.188  13.649   5.263
63399SOL     OW92093   6.364   9.253   9.068
63399SOL    HW192094   6.368   9.249   8.973
63399SOL    HW292095   6.372   9.346   9.089
63400SOL     OW92096   7.107  12.014   6.472
63400SOL    HW192097   7.066  11.955   6.535
63400SOL    HW292098   7.048  12.015   6.397
63401SOL     OW92099   6.809   5.880   4.502
63401SOL    HW192100   6.874   5.895   4.434
63401SOL    HW292101   6.772   5.966   4.520
63402SOL     OW92102   6.342   2.956  13.708
63402SOL    HW192103   6.403   2.951  13.634
63402SOL    HW292104   6.296   3.038  13.695
63403SOL     OW92105  13.917   3.242   9.450
63403SOL    HW192106  13.997   3.276   9.488
63403SOL    HW292107  13.943   3.160   9.407
63404SOL     OW92108   1.291  13.755   5.245
63404SOL    HW192109   1.222  13.735   5.308
63404SOL    HW292110   1.319  13.844   5.268
63405SOL     OW92111   4.283  12.780  12.350
63405SOL    HW192112   4.236  12.743  12.426
63405SOL    HW292113   4.241  12.739  12.274
63406SOL     OW92114  12.836   8.722   0.677
63406SOL    HW192115  12.890   8.645   0.659
63406SOL    HW292116  12.835   8.771   0.594
63407SOL     OW92117   1.585  10.979   6.775
63407SOL    HW192118   1.526  11.049   6.801
63407SOL    HW292119   1.673  11.016   6.784
63408SOL     OW92120   2.614   9.721   3.203
63408SOL    HW192121   2.669   9.643   3.197
63408SOL    HW292122   2.660   9.777   3.266
63409SOL     OW92123  14.814   5.718   2.519
63409SOL    HW192124   0.014   5.771   2.514
63409SOL    HW292125  14.758   5.754   2.450
63410SOL     OW92126   3.250   1.653  10.481
63410SOL    HW192127   3.321   1.617  10.535
63410SOL    HW292128   3.203   1.576  10.449
63411SOL     OW92129   1.542   5.868   3.095
63411SOL    HW192130   1.502   5.907   3.017
63411SOL    HW292131   1.636   5.869   3.076
63412SOL     OW92132  12.635   9.149   2.892
63412SOL    HW192133  12.654   9.061   2.859
63412SOL    HW292134  12.600   9.134   2.980
63413SOL     OW92135   6.751  11.564   8.385
63413SOL    HW192136   6.740  11.630   8.454
63413SOL    HW292137   6.754  11.481   8.431
63414SOL     OW92138   6.582   0.824  14.310
63414SOL    HW192139   6.520   0.885  14.349
63414SOL    HW292140   6.591   0.754  14.375
63415SOL     OW92141   5.571  14.641   9.203
63415SOL    HW192142   5.570  14.736   9.194
63415SOL    HW292143   5.506  14.610   9.139
63416SOL     OW92144  10.693   1.572   9.487
63416SOL    HW192145  10.677   1.479   9.501
63416SOL    HW292146  10.666   1.588   9.397
63417SOL     OW92147  14.353  10.281   7.430
63417SOL    HW192148  14.307  10.213   7.478
63417SOL    HW292149  14.425  10.235   7.387
63418SOL     OW92150   1.105  11.465   6.591
63418SOL    HW192151   1.186  11.517   6.581
63418SOL    HW292152   1.107  11.404   6.518
63419SOL     OW92153  12.541   3.576   7.845
63419SOL    HW192154  12.533   3.638   7.773
63419SOL    HW292155  12.612   3.517   7.818
63420SOL     OW92156   9.578   9.089   4.943
63420SOL    HW192157   9.546   9.060   5.028
63420SOL    HW292158   9.653   9.145   4.963
63421SOL     OW92159  14.534   9.487   3.891
63421SOL    HW192160  14.604   9.548   3.870
63421SOL    HW292161  14.489   9.472   3.808
63422SOL     OW92162  12.313   3.221   0.929
63422SOL    HW192163  12.273   3.164   0.995
63422SOL    HW292164  12.246   3.288   0.912
63423SOL     OW92165  11.152  13.375  12.519
63423SOL    HW192166  11.112  13.288  12.513
63423SOL    HW292167  11.079  13.436  12.505
63424SOL     OW92168   6.427   5.094   7.817
63424SOL    HW192169   6.426   5.015   7.763
63424SOL    HW292170   6.496   5.148   7.779
63425SOL     OW92171  10.357   3.727   4.025
63425SOL    HW192172  10.356   3.632   4.009
63425SOL    HW292173  10.284   3.760   3.973
63426SOL     OW92174  10.834   8.956   1.710
63426SOL    HW192175  10.768   9.026   1.709
63426SOL    HW292176  10.804   8.896   1.779
63427SOL     OW92177  14.777   7.532   0.470
63427SOL    HW192178  14.778   7.440   0.441
63427SOL    HW292179  14.713   7.534   0.541
63428SOL     OW92180  10.163   8.077   6.259
63428SOL    HW192181  10.152   7.982   6.249
63428SOL    HW292182  10.257   8.091   6.251
63429SOL     OW92183   5.441   5.173   3.482
63429SOL    HW192184   5.508   5.215   3.430
63429SOL    HW292185   5.451   5.210   3.570
63430SOL     OW92186   8.835   4.484   7.433
63430SOL    HW192187   8.847   4.426   7.358
63430SOL    HW292188   8.763   4.445   7.483
63431SOL     OW92189   0.721   9.335  14.103
63431SOL    HW192190   0.682   9.317  14.017
63431SOL    HW292191   0.650   9.377  14.152
63432SOL     OW92192   5.584   0.367  13.616
63432SOL    HW192193   5.616   0.443  13.665
63432SOL    HW292194   5.489   0.369  13.628
63433SOL     OW92195   8.814  14.733   9.213
63433SOL    HW192196   8.857  14.762   9.294
63433SOL    HW292197   8.882  14.686   9.165
63434SOL     OW92198  13.636  12.633   3.437
63434SOL    HW192199  13.559  12.650   3.492
63434SOL    HW292200  13.603  12.640   3.347
63435SOL     OW92201   5.053   5.896  10.097
63435SOL    HW192202   5.076   5.989  10.100
63435SOL    HW292203   4.959   5.894  10.112
63436SOL     OW92204   7.065   8.366   6.189
63436SOL    HW192205   6.992   8.383   6.249
63436SOL    HW292206   7.026   8.311   6.120
63437SOL     OW92207   1.662   8.559   0.970
63437SOL    HW192208   1.748   8.522   0.991
63437SOL    HW292209   1.682   8.635   0.916
63438SOL     OW92210   1.252   7.621   3.063
63438SOL    HW192211   1.319   7.686   3.086
63438SOL    HW292212   1.303   7.542   3.045
63439SOL     OW92213   0.485   3.385  13.816
63439SOL    HW192214   0.500   3.298  13.779
63439SOL    HW292215   0.452   3.436  13.742
63440SOL     OW92216  11.247  11.225  10.632
63440SOL    HW192217  11.257  11.274  10.550
63440SOL    HW292218  11.252  11.292  10.701
63441SOL     OW92219   3.809   8.047   1.736
63441SOL    HW192220   3.830   8.127   1.689
63441SOL    HW292221   3.877   7.985   1.709
63442SOL     OW92222   7.344   0.335   2.467
63442SOL    HW192223   7.295   0.296   2.539
63442SOL    HW292224   7.367   0.261   2.411
63443SOL     OW92225   8.357  12.595  10.616
63443SOL    HW192226   8.280  12.603  10.672
63443SOL    HW292227   8.412  12.530  10.660
63444SOL     OW92228   4.873   0.876  14.762
63444SOL    HW192229   4.959   0.874  14.806
63444SOL    HW292230   4.854   0.969  14.752
63445SOL     OW92231   8.158  10.887   2.746
63445SOL    HW192232   8.072  10.845   2.755
63445SOL    HW292233   8.198  10.844   2.671
63446SOL     OW92234  13.932   3.906   3.310
63446SOL    HW192235  13.915   3.914   3.216
63446SOL    HW292236  13.895   3.820   3.334
63447SOL     OW92237  14.206   4.196   5.437
63447SOL    HW192238  14.115   4.172   5.417
63447SOL    HW292239  14.200   4.248   5.516
63448SOL     OW92240   7.763   2.808   3.447
63448SOL    HW192241   7.849   2.773   3.469
63448SOL    HW292242   7.709   2.789   3.524
63449SOL     OW92243  14.432   4.149  13.614
63449SOL    HW192244  14.515   4.105  13.594
63449SOL    HW292245  14.389   4.091  13.677
63450SOL     OW92246   9.225  11.148   9.844
63450SOL    HW192247   9.269  11.225   9.880
63450SOL    HW292248   9.145  11.182   9.805
63451SOL     OW92249   9.766   3.618   5.498
63451SOL    HW192250   9.762   3.600   5.404
63451SOL    HW292251   9.836   3.683   5.507
63452SOL     OW92252   3.253  13.534   4.229
63452SOL    HW192253   3.286  13.534   4.319
63452SOL    HW292254   3.158  13.522   4.239
63453SOL     OW92255  12.508   7.556   9.347
63453SOL    HW192256  12.583   7.531   9.292
63453SOL    HW292257  12.482   7.475   9.390
63454SOL     OW92258  13.129   1.542  10.073
63454SOL    HW192259  13.133   1.615  10.012
63454SOL    HW292260  13.210   1.493  10.057
63455SOL     OW92261  10.891   0.896  11.268
63455SOL    HW192262  10.852   0.870  11.351
63455SOL    HW292263  10.835   0.857  11.201
63456SOL     OW92264   3.932  11.587   8.967
63456SOL    HW192265   3.931  11.551   8.878
63456SOL    HW292266   4.024  11.589   8.991
63457SOL     OW92267   5.797   3.505  10.462
63457SOL    HW192268   5.809   3.474  10.372
63457SOL    HW292269   5.702   3.503  10.475
63458SOL     OW92270  10.768   8.411  14.583
63458SOL    HW192271  10.724   8.493  14.604
63458SOL    HW292272  10.700   8.344  14.590
63459SOL     OW92273   0.914   2.952   0.748
63459SOL    HW192274   0.989   3.000   0.783
63459SOL    HW292275   0.847   3.020   0.733
63460SOL     OW92276   7.769   8.160   4.710
63460SOL    HW192277   7.686   8.113   4.716
63460SOL    HW292278   7.801   8.142   4.622
63461SOL     OW92279   7.856   1.705   5.336
63461SOL    HW192280   7.837   1.623   5.290
63461SOL    HW292281   7.951   1.711   5.336
63462SOL     OW92282   4.647   6.226   0.360
63462SOL    HW192283   4.579   6.159   0.367
63462SOL    HW292284   4.599   6.308   0.355
63463SOL     OW92285   3.658   9.512   7.676
63463SOL    HW192286   3.590   9.554   7.729
63463SOL    HW292287   3.613   9.484   7.597
63464SOL     OW92288   4.445   5.702   1.503
63464SOL    HW192289   4.537   5.674   1.500
63464SOL    HW292290   4.422   5.696   1.596
63465SOL     OW92291   8.583   6.865   4.252
63465SOL    HW192292   8.651   6.875   4.185
63465SOL    HW292293   8.503   6.849   4.203
63466SOL     OW92294   8.874  11.305  11.885
63466SOL    HW192295   8.797  11.359  11.870
63466SOL    HW292296   8.884  11.253  11.805
63467SOL     OW92297   3.492   4.289  13.382
63467SOL    HW192298   3.556   4.337  13.435
63467SOL    HW292299   3.434   4.356  13.346
63468SOL     OW92300   9.518   1.286   6.399
63468SOL    HW192301   9.600   1.284   6.349
63468SOL    HW292302   9.478   1.370   6.377
63469SOL     OW92303   2.008   4.812   1.940
63469SOL    HW192304   2.062   4.817   2.019
63469SOL    HW292305   1.966   4.726   1.945
63470SOL     OW92306   6.829   8.761   1.168
63470SOL    HW192307   6.870   8.835   1.124
63470SOL    HW292308   6.851   8.772   1.260
63471SOL     OW92309  10.987   3.574  10.091
63471SOL    HW192310  11.057   3.629  10.055
63471SOL    HW292311  11.028   3.527  10.163
63472SOL     OW92312   7.112  11.973   4.803
63472SOL    HW192313   7.177  11.957   4.734
63472SOL    HW292314   7.080  12.062   4.785
63473SOL     OW92315  14.294  11.414  12.914
63473SOL    HW192316  14.361  11.460  12.864
63473SOL    HW292317  14.215  11.466  12.901
63474SOL     OW92318   1.124   0.449  14.244
63474SOL    HW192319   1.155   0.534  14.276
63474SOL    HW292320   1.072   0.471  14.166
63475SOL     OW92321   3.202   8.405  12.734
63475SOL    HW192322   3.283   8.444  12.767
63475SOL    HW292323   3.230   8.323  12.693
63476SOL     OW92324  10.000  13.052   8.779
63476SOL    HW192325   9.906  13.049   8.764
63476SOL    HW292326  10.034  13.102   8.705
63477SOL     OW92327   2.248   9.352   9.176
63477SOL    HW192328   2.214   9.267   9.150
63477SOL    HW292329   2.253   9.402   9.095
63478SOL     OW92330   2.686   6.567   1.309
63478SOL    HW192331   2.730   6.577   1.393
63478SOL    HW292332   2.633   6.488   1.319
63479SOL     OW92333   1.089   3.267  10.314
63479SOL    HW192334   1.158   3.304  10.259
63479SOL    HW292335   1.081   3.176  10.284
63480SOL     OW92336   0.944   6.466   5.220
63480SOL    HW192337   0.878   6.536   5.213
63480SOL    HW292338   0.994   6.472   5.139
63481SOL     OW92339  12.212  12.120   2.667
63481SOL    HW192340  12.146  12.189   2.656
63481SOL    HW292341  12.288  12.151   2.618
63482SOL     OW92342   9.277   5.200   7.695
63482SOL    HW192343   9.236   5.144   7.629
63482SOL    HW292344   9.254   5.289   7.667
63483SOL     OW92345   2.408   9.371   3.959
63483SOL    HW192346   2.417   9.333   4.046
63483SOL    HW292347   2.483   9.338   3.910
63484SOL     OW92348   9.550   6.506   9.181
63484SOL    HW192349   9.551   6.448   9.106
63484SOL    HW292350   9.462   6.546   9.179
63485SOL     OW92351   2.693  12.315   0.590
63485SOL    HW192352   2.665  12.347   0.677
63485SOL    HW292353   2.627  12.250   0.567
63486SOL     OW92354  11.031   2.279   6.829
63486SOL    HW192355  11.024   2.293   6.923
63486SOL    HW292356  11.101   2.215   6.819
63487SOL     OW92357  13.477   9.861   7.319
63487SOL    HW192358  13.385   9.883   7.336
63487SOL    HW292359  13.527   9.918   7.377
63488SOL     OW92360  13.865   7.773  10.543
63488SOL    HW192361  13.834   7.821  10.619
63488SOL    HW292362  13.843   7.829  10.468
63489SOL     OW92363   6.610   3.878   3.044
63489SOL    HW192364   6.650   3.881   3.130
63489SOL    HW292365   6.519   3.906   3.059
63490SOL     OW92366  14.615   4.199  13.201
63490SOL    HW192367  14.543   4.143  13.230
63490SOL    HW292368  14.670   4.141  13.149
63491SOL     OW92369  13.642   0.196  10.465
63491SOL    HW192370  13.600   0.279  10.443
63491SOL    HW292371  13.670   0.160  10.381
63492SOL     OW92372  12.610  14.628  11.248
63492SOL    HW192373  12.668  14.611  11.322
63492SOL    HW292374  12.590  14.722  11.254
63493SOL     OW92375  14.599  12.746   0.801
63493SOL    HW192376  14.511  12.776   0.777
63493SOL    HW292377  14.640  12.823   0.840
63494SOL     OW92378   8.087   5.340   7.792
63494SOL    HW192379   8.010   5.397   7.799
63494SOL    HW292380   8.077   5.296   7.707
63495SOL     OW92381   8.069   7.149   9.613
63495SOL    HW192382   8.071   7.222   9.551
63495SOL    HW292383   8.134   7.087   9.580
63496SOL     OW92384   5.805   6.703  12.041
63496SOL    HW192385   5.718   6.665  12.045
63496SOL    HW292386   5.851   6.653  11.974
63497SOL     OW92387  13.899  11.101  14.415
63497SOL    HW192388  13.824  11.119  14.472
63497SOL    HW292389  13.974  11.139  14.460
63498SOL     OW92390  12.096  11.278   1.450
63498SOL    HW192391  12.189  11.286   1.430
63498SOL    HW292392  12.072  11.363   1.487
63499SOL     OW92393  11.326   5.689   4.503
63499SOL    HW192394  11.336   5.733   4.418
63499SOL    HW292395  11.284   5.755   4.558
63500SOL     OW92396  10.576  10.084  14.259
63500SOL    HW192397  10.548  10.010  14.205
63500SOL    HW292398  10.652  10.052  14.306
63501SOL     OW92399   7.429   4.916  14.115
63501SOL    HW192400   7.520   4.940  14.098
63501SOL    HW292401   7.400   4.873  14.035
63502SOL     OW92402   6.237   0.698  13.767
63502SOL    HW192403   6.260   0.622  13.713
63502SOL    HW292404   6.276   0.680  13.852
63503SOL     OW92405  11.816   3.195   5.905
63503SOL    HW192406  11.836   3.264   5.968
63503SOL    HW292407  11.901   3.164   5.875
63504SOL     OW92408   1.367   9.649   2.106
63504SOL    HW192409   1.354   9.700   2.186
63504SOL    HW292410   1.341   9.560   2.129
63505SOL     OW92411   3.781   5.093  14.321
63505SOL    HW192412   3.753   5.043  14.244
63505SOL    HW292413   3.799   5.180  14.287
63506SOL     OW92414   4.977   4.165   8.197
63506SOL    HW192415   5.020   4.084   8.172
63506SOL    HW292416   4.920   4.140   8.270
63507SOL     OW92417  14.241   4.222   3.133
63507SOL    HW192418  14.196   4.147   3.095
63507SOL    HW292419  14.331   4.191   3.148
63508SOL     OW92420   4.923   9.641  13.195
63508SOL    HW192421   4.991   9.647  13.263
63508SOL    HW292422   4.964   9.675  13.116
63509SOL     OW92423  11.273   4.528   3.018
63509SOL    HW192424  11.193   4.563   2.977
63509SOL    HW292425  11.333   4.515   2.944
63510SOL     OW92426   1.912   5.923   6.040
63510SOL    HW192427   1.930   5.935   5.947
63510SOL    HW292428   1.879   6.008   6.069
63511SOL     OW92429   3.830   9.337   8.423
63511SOL    HW192430   3.909   9.350   8.371
63511SOL    HW292431   3.770   9.291   8.364
63512SOL     OW92432  13.967   1.980   4.828
63512SOL    HW192433  13.879   1.992   4.865
63512SOL    HW292434  14.000   2.069   4.815
63513SOL     OW92435   3.150   1.883   4.264
63513SOL    HW192436   3.198   1.965   4.253
63513SOL    HW292437   3.149   1.844   4.177
63514SOL     OW92438  12.989   4.145   6.202
63514SOL    HW192439  12.915   4.129   6.143
63514SOL    HW292440  12.951   4.146   6.289
63515SOL     OW92441  11.105  14.698   4.737
63515SOL    HW192442  11.185  14.749   4.752
63515SOL    HW292443  11.131  14.607   4.751
63516SOL     OW92444   6.851   1.369   5.868
63516SOL    HW192445   6.882   1.281   5.887
63516SOL    HW292446   6.922   1.410   5.818
63517SOL     OW92447   0.827   1.956   0.735
63517SOL    HW192448   0.920   1.937   0.722
63517SOL    HW292449   0.825   2.020   0.806
63518SOL     OW92450   9.483   2.620   6.562
63518SOL    HW192451   9.443   2.570   6.634
63518SOL    HW292452   9.535   2.687   6.607
63519SOL     OW92453   8.646   2.763  10.183
63519SOL    HW192454   8.561   2.806  10.178
63519SOL    HW292455   8.694   2.795  10.106
63520SOL     OW92456   2.861  10.609   9.094
63520SOL    HW192457   2.862  10.594   8.999
63520SOL    HW292458   2.826  10.697   9.104
63521SOL     OW92459   6.672   3.242   9.837
63521SOL    HW192460   6.627   3.326   9.829
63521SOL    HW292461   6.648   3.211   9.924
63522SOL     OW92462   9.090   4.639   8.677
63522SOL    HW192463   9.103   4.614   8.768
63522SOL    HW292464   9.027   4.575   8.643
63523SOL     OW92465  13.013  13.753   5.462
63523SOL    HW192466  12.991  13.807   5.386
63523SOL    HW292467  13.109  13.751   5.462
63524SOL     OW92468   1.324  13.394  10.102
63524SOL    HW192469   1.410  13.430  10.078
63524SOL    HW292470   1.261  13.454  10.063
63525SOL     OW92471   6.621   0.931   2.690
63525SOL    HW192472   6.689   0.991   2.721
63525SOL    HW292473   6.653   0.844   2.715
63526SOL     OW92474  14.018  13.184  13.466
63526SOL    HW192475  14.077  13.108  13.461
63526SOL    HW292476  13.972  13.173  13.550
63527SOL     OW92477   7.177   2.382   5.686
63527SOL    HW192478   7.185   2.477   5.675
63527SOL    HW292479   7.085   2.363   5.668
63528SOL     OW92480   6.304   8.493   1.150
63528SOL    HW192481   6.253   8.507   1.070
63528SOL    HW292482   6.395   8.488   1.120
63529SOL     OW92483   3.737   5.531   2.478
63529SOL    HW192484   3.783   5.562   2.401
63529SOL    HW292485   3.803   5.527   2.547
63530SOL     OW92486   6.572  11.970  13.930
63530SOL    HW192487   6.621  11.947  14.008
63530SOL    HW292488   6.524  12.049  13.954
63531SOL     OW92489   1.934   8.624   2.318
63531SOL    HW192490   1.926   8.719   2.333
63531SOL    HW292491   1.963   8.589   2.403
63532SOL     OW92492  11.025   9.928   1.156
63532SOL    HW192493  11.001  10.009   1.110
63532SOL    HW292494  11.035   9.863   1.087
63533SOL     OW92495   2.209   3.212   2.472
63533SOL    HW192496   2.272   3.274   2.508
63533SOL    HW292497   2.255   3.128   2.472
63534SOL     OW92498   0.470   9.946  14.651
63534SOL    HW192499   0.464  10.022  14.708
63534SOL    HW292500   0.416   9.969  14.575
63535SOL     OW92501  10.017   0.447   1.601
63535SOL    HW192502   9.964   0.487   1.532
63535SOL    HW292503  10.074   0.517   1.631
63536SOL     OW92504  14.819   2.055   7.021
63536SOL    HW192505   0.027   2.020   7.014
63536SOL    HW292506  14.831   2.144   7.055
63537SOL     OW92507   3.584   3.952   5.344
63537SOL    HW192508   3.503   3.988   5.381
63537SOL    HW292509   3.588   3.989   5.256
63538SOL     OW92510   5.630  12.842  13.243
63538SOL    HW192511   5.677  12.925  13.235
63538SOL    HW292512   5.697  12.775  13.235
63539SOL     OW92513   0.559   0.254  14.198
63539SOL    HW192514   0.564   0.238  14.104
63539SOL    HW292515   0.599   0.340  14.209
63540SOL     OW92516   6.682   5.721   0.407
63540SOL    HW192517   6.720   5.714   0.494
63540SOL    HW292518   6.694   5.634   0.369
63541SOL     OW92519   9.833   6.109  10.466
63541SOL    HW192520   9.885   6.180  10.428
63541SOL    HW292521   9.803   6.058  10.390
63542SOL     OW92522  14.208  14.766  13.302
63542SOL    HW192523  14.232  14.778  13.210
63542SOL    HW292524  14.254  14.836  13.349
63543SOL     OW92525   4.340   3.017  14.782
63543SOL    HW192526   4.282   3.042  14.710
63543SOL    HW292527   4.428   3.031  14.748
63544SOL     OW92528   1.746   2.105   1.847
63544SOL    HW192529   1.673   2.162   1.823
63544SOL    HW292530   1.803   2.105   1.770
63545SOL     OW92531   2.638   1.444   2.457
63545SOL    HW192532   2.719   1.491   2.479
63545SOL    HW292533   2.647   1.359   2.501
63546SOL     OW92534  13.805   7.304  13.090
63546SOL    HW192535  13.730   7.265  13.045
63546SOL    HW292536  13.767   7.345  13.168
63547SOL     OW92537   5.248   0.226  10.913
63547SOL    HW192538   5.225   0.254  11.001
63547SOL    HW292539   5.220   0.135  10.909
63548SOL     OW92540   6.402   3.372   9.180
63548SOL    HW192541   6.340   3.407   9.116
63548SOL    HW292542   6.452   3.447   9.209
63549SOL     OW92543  12.195   3.630   5.112
63549SOL    HW192544  12.113   3.597   5.073
63549SOL    HW292545  12.264   3.591   5.059
63550SOL     OW92546   2.929   4.783   0.776
63550SOL    HW192547   2.901   4.776   0.685
63550SOL    HW292548   2.887   4.709   0.820
63551SOL     OW92549   3.528  11.362   7.564
63551SOL    HW192550   3.603  11.420   7.580
63551SOL    HW292551   3.483  11.401   7.488
63552SOL     OW92552   4.426   6.655   4.876
63552SOL    HW192553   4.404   6.741   4.841
63552SOL    HW292554   4.371   6.646   4.954
63553SOL     OW92555   4.233   0.827   0.646
63553SOL    HW192556   4.227   0.917   0.679
63553SOL    HW292557   4.294   0.832   0.573
63554SOL     OW92558   9.179  12.518  14.776
63554SOL    HW192559   9.092  12.523  14.738
63554SOL    HW292560   9.214  12.434  14.748
63555SOL     OW92561   6.222  11.163  12.065
63555SOL    HW192562   6.315  11.181  12.050
63555SOL    HW292563   6.195  11.113  11.987
63556SOL     OW92564   0.916   8.431   1.491
63556SOL    HW192565   0.842   8.482   1.459
63556SOL    HW292566   0.972   8.495   1.536
63557SOL     OW92567  12.693  11.497   0.628
63557SOL    HW192568  12.650  11.412   0.621
63557SOL    HW292569  12.625  11.560   0.609
63558SOL     OW92570   3.735   0.934   9.096
63558SOL    HW192571   3.786   0.997   9.146
63558SOL    HW292572   3.752   0.956   9.004
63559SOL     OW92573  11.622   8.452   4.599
63559SOL    HW192574  11.709   8.437   4.634
63559SOL    HW292575  11.581   8.513   4.661
63560SOL     OW92576  12.410   3.103  12.472
63560SOL    HW192577  12.370   3.075  12.390
63560SOL    HW292578  12.389   3.196  12.479
63561SOL     OW92579   6.351   6.034   2.824
63561SOL    HW192580   6.440   6.063   2.801
63561SOL    HW292581   6.306   6.114   2.850
63562SOL     OW92582   6.787   8.684  10.016
63562SOL    HW192583   6.706   8.725  10.048
63562SOL    HW292584   6.852   8.755  10.019
63563SOL     OW92585   2.237   8.714   7.465
63563SOL    HW192586   2.273   8.633   7.430
63563SOL    HW292587   2.160   8.731   7.410
63564SOL     OW92588   7.371   4.301   5.442
63564SOL    HW192589   7.441   4.360   5.471
63564SOL    HW292590   7.316   4.356   5.386
63565SOL     OW92591   9.514   2.912  14.443
63565SOL    HW192592   9.421   2.913  14.421
63565SOL    HW292593   9.546   2.829  14.407
63566SOL     OW92594   2.473   0.496  13.250
63566SOL    HW192595   2.494   0.528  13.338
63566SOL    HW292596   2.510   0.408  13.247
63567SOL     OW92597   0.465   7.283  11.921
63567SOL    HW192598   0.506   7.364  11.892
63567SOL    HW292599   0.468   7.225  11.845
63568SOL     OW92600   5.831   1.399  13.484
63568SOL    HW192601   5.893   1.338  13.444
63568SOL    HW292602   5.823   1.370  13.575
63569SOL     OW92603   0.072   7.699   0.285
63569SOL    HW192604   0.078   7.618   0.233
63569SOL    HW292605   0.001   7.681   0.347
63570SOL     OW92606  12.260  10.442  14.782
63570SOL    HW192607  12.205  10.456  14.860
63570SOL    HW292608  12.302  10.357  14.797
63571SOL     OW92609   0.703   4.769   6.625
63571SOL    HW192610   0.788   4.788   6.586
63571SOL    HW292611   0.715   4.784   6.719
63572SOL     OW92612   6.354   0.778   0.871
63572SOL    HW192613   6.326   0.701   0.821
63572SOL    HW292614   6.447   0.787   0.850
63573SOL     OW92615   3.498  10.815   0.418
63573SOL    HW192616   3.577  10.786   0.464
63573SOL    HW292617   3.531  10.848   0.334
63574SOL     OW92618  12.571   5.130   3.116
63574SOL    HW192619  12.571   5.098   3.207
63574SOL    HW292620  12.655   5.100   3.081
63575SOL     OW92621   2.315  12.210   2.446
63575SOL    HW192622   2.227  12.249   2.447
63575SOL    HW292623   2.338  12.200   2.539
63576SOL     OW92624   8.013   0.257   6.091
63576SOL    HW192625   8.103   0.269   6.124
63576SOL    HW292626   7.969   0.208   6.160
63577SOL     OW92627   1.225  13.207  14.052
63577SOL    HW192628   1.174  13.194  14.132
63577SOL    HW292629   1.300  13.260  14.079
63578SOL     OW92630   8.341  12.583   5.513
63578SOL    HW192631   8.348  12.491   5.486
63578SOL    HW292632   8.284  12.581   5.589
63579SOL     OW92633   7.474   6.245   0.407
63579SOL    HW192634   7.433   6.249   0.494
63579SOL    HW292635   7.474   6.152   0.385
63580SOL     OW92636   9.141  14.202  14.795
63580SOL    HW192637   9.111  14.162  14.714
63580SOL    HW292638   9.094  14.285  14.800
63581SOL     OW92639   0.792   0.727   9.248
63581SOL    HW192640   0.859   0.783   9.287
63581SOL    HW292641   0.842   0.655   9.209
63582SOL     OW92642   9.193   9.297   7.498
63582SOL    HW192643   9.117   9.343   7.463
63582SOL    HW292644   9.162   9.208   7.514
63583SOL     OW92645   3.331   1.419   9.458
63583SOL    HW192646   3.355   1.511   9.465
63583SOL    HW292647   3.241   1.420   9.423
63584SOL     OW92648  10.367   5.835   3.603
63584SOL    HW192649  10.299   5.778   3.639
63584SOL    HW292650  10.436   5.775   3.574
63585SOL     OW92651  13.883   8.892   6.129
63585SOL    HW192652  13.949   8.913   6.063
63585SOL    HW292653  13.800   8.889   6.080
63586SOL     OW92654  11.827  14.319   7.185
63586SOL    HW192655  11.883  14.369   7.125
63586SOL    HW292656  11.745  14.369   7.188
63587SOL     OW92657  12.740   8.781   6.243
63587SOL    HW192658  12.742   8.872   6.275
63587SOL    HW292659  12.648   8.767   6.218
63588SOL     OW92660   4.243   8.100  13.382
63588SOL    HW192661   4.153   8.086  13.408
63588SOL    HW292662   4.248   8.193  13.361
63589SOL     OW92663  13.045  12.419   6.024
63589SOL    HW192664  13.095  12.496   6.051
63589SOL    HW292665  13.112  12.354   6.001
63590SOL     OW92666   9.096   0.637   3.521
63590SOL    HW192667   9.069   0.728   3.534
63590SOL    HW292668   9.128   0.634   3.431
63591SOL     OW92669   7.102   8.906   7.357
63591SOL    HW192670   7.033   8.969   7.335
63591SOL    HW292671   7.110   8.911   7.452
63592SOL     OW92672   4.409   3.379  11.726
63592SOL    HW192673   4.397   3.474  11.721
63592SOL    HW292674   4.504   3.367  11.724
63593SOL     OW92675  14.237   9.754  12.811
63593SOL    HW192676  14.299   9.812  12.766
63593SOL    HW292677  14.291   9.698  12.866
63594SOL     OW92678   5.563   3.497  14.162
63594SOL    HW192679   5.490   3.496  14.100
63594SOL    HW292680   5.603   3.583  14.152
63595SOL     OW92681   1.009  13.183   5.201
63595SOL    HW192682   1.033  13.091   5.211
63595SOL    HW292683   0.913  13.183   5.200
63596SOL     OW92684   4.767  13.674  10.272
63596SOL    HW192685   4.842  13.630  10.311
63596SOL    HW292686   4.721  13.605  10.223
63597SOL     OW92687   9.485   6.845   7.987
63597SOL    HW192688   9.500   6.836   8.081
63597SOL    HW292689   9.478   6.940   7.973
63598SOL     OW92690   9.184  12.368   0.440
63598SOL    HW192691   9.266  12.405   0.407
63598SOL    HW292692   9.155  12.430   0.507
63599SOL     OW92693   2.435   0.293  13.738
63599SOL    HW192694   2.505   0.276  13.802
63599SOL    HW292695   2.362   0.324  13.791
63600SOL     OW92696   9.064  11.889  12.483
63600SOL    HW192697   9.153  11.919  12.497
63600SOL    HW292698   9.049  11.824  12.552
63601SOL     OW92699   8.306   1.900   5.144
63601SOL    HW192700   8.360   1.931   5.071
63601SOL    HW292701   8.220   1.885   5.106
63602SOL     OW92702   6.857  12.562   0.826
63602SOL    HW192703   6.863  12.501   0.899
63602SOL    HW292704   6.809  12.637   0.861
63603SOL     OW92705   2.398   6.563  14.748
63603SOL    HW192706   2.459   6.612  14.693
63603SOL    HW292707   2.418   6.590  14.838
63604SOL     OW92708   0.850   5.453  11.385
63604SOL    HW192709   0.882   5.523  11.441
63604SOL    HW292710   0.770   5.487  11.346
63605SOL     OW92711   2.843   6.911   9.479
63605SOL    HW192712   2.785   6.837   9.494
63605SOL    HW292713   2.810   6.980   9.537
63606SOL     OW92714   7.652   7.036   3.796
63606SOL    HW192715   7.712   6.966   3.819
63606SOL    HW292716   7.618   7.012   3.709
63607SOL     OW92717   1.045   8.069   0.472
63607SOL    HW192718   1.104   7.996   0.489
63607SOL    HW292719   0.969   8.029   0.431
63608SOL     OW92720   9.864  11.079   9.844
63608SOL    HW192721   9.917  11.131   9.905
63608SOL    HW292722   9.915  10.999   9.831
63609SOL     OW92723   3.472  12.758  10.667
63609SOL    HW192724   3.529  12.785  10.739
63609SOL    HW292725   3.445  12.669  10.691
63610SOL     OW92726   3.743   3.598   0.550
63610SOL    HW192727   3.807   3.666   0.530
63610SOL    HW292728   3.734   3.601   0.645
63611SOL     OW92729   4.154   8.997  11.798
63611SOL    HW192730   4.215   8.923  11.803
63611SOL    HW292731   4.075   8.961  11.758
63612SOL     OW92732   8.729   0.930   3.379
63612SOL    HW192733   8.648   0.880   3.388
63612SOL    HW292734   8.794   0.865   3.354
63613SOL     OW92735   0.954   2.451   3.650
63613SOL    HW192736   0.979   2.443   3.742
63613SOL    HW292737   0.968   2.363   3.614
63614SOL     OW92738   8.359  13.097   5.434
63614SOL    HW192739   8.360  13.004   5.414
63614SOL    HW292740   8.405  13.138   5.361
63615SOL     OW92741   4.295   1.103   2.161
63615SOL    HW192742   4.355   1.034   2.132
63615SOL    HW292743   4.237   1.117   2.087
63616SOL     OW92744   1.799   8.149  14.451
63616SOL    HW192745   1.799   8.130  14.357
63616SOL    HW292746   1.835   8.071  14.492
63617SOL     OW92747  10.000  14.144  13.862
63617SOL    HW192748   9.971  14.186  13.780
63617SOL    HW292749   9.942  14.180  13.929
63618SOL     OW92750  13.770   6.291   7.077
63618SOL    HW192751  13.727   6.289   6.991
63618SOL    HW292752  13.704   6.260   7.138
63619SOL     OW92753  13.063   1.514  11.033
63619SOL    HW192754  13.042   1.605  11.011
63619SOL    HW292755  12.983   1.465  11.012
63620SOL     OW92756   7.823  14.178   1.608
63620SOL    HW192757   7.819  14.090   1.568
63620SOL    HW292758   7.757  14.175   1.677
63621SOL     OW92759  11.491   4.307   6.138
63621SOL    HW192760  11.551   4.237   6.161
63621SOL    HW292761  11.433   4.315   6.213
63622SOL     OW92762   2.256  13.290  14.747
63622SOL    HW192763   2.321  13.230  14.711
63622SOL    HW292764   2.179  13.235  14.764
63623SOL     OW92765   3.774  13.781   9.681
63623SOL    HW192766   3.722  13.805   9.604
63623SOL    HW292767   3.749  13.691   9.700
63624SOL     OW92768   6.056  13.087  12.265
63624SOL    HW192769   6.079  13.170  12.306
63624SOL    HW292770   6.115  13.081  12.190
63625SOL     OW92771   4.115   3.744   9.814
63625SOL    HW192772   4.038   3.698   9.781
63625SOL    HW292773   4.081   3.825   9.852
63626SOL     OW92774  11.592   3.630   8.631
63626SOL    HW192775  11.643   3.619   8.551
63626SOL    HW292776  11.635   3.704   8.676
63627SOL     OW92777   2.644   9.019  11.963
63627SOL    HW192778   2.551   9.044  11.962
63627SOL    HW292779   2.685   9.082  12.022
63628SOL     OW92780  11.153   8.695   1.049
63628SOL    HW192781  11.160   8.764   1.115
63628SOL    HW292782  11.161   8.614   1.100
63629SOL     OW92783   1.031   0.327   4.284
63629SOL    HW192784   1.040   0.383   4.207
63629SOL    HW292785   1.116   0.334   4.328
63630SOL     OW92786  10.148   4.231   6.760
63630SOL    HW192787  10.130   4.276   6.842
63630SOL    HW292788  10.065   4.191   6.735
63631SOL     OW92789   5.508  12.122   9.780
63631SOL    HW192790   5.475  12.206   9.812
63631SOL    HW292791   5.599  12.139   9.756
63632SOL     OW92792  13.974  10.563   7.226
63632SOL    HW192793  14.024  10.512   7.289
63632SOL    HW292794  13.883  10.548   7.250
63633SOL     OW92795  11.105  12.646   8.003
63633SOL    HW192796  11.027  12.627   8.056
63633SOL    HW292797  11.145  12.721   8.047
63634SOL     OW92798   3.597   8.026  13.891
63634SOL    HW192799   3.564   7.979  13.968
63634SOL    HW292800   3.521   8.075  13.859
63635SOL     OW92801   4.415   9.217  10.874
63635SOL    HW192802   4.431   9.125  10.853
63635SOL    HW292803   4.357   9.247  10.804
63636SOL     OW92804   2.682  13.333  10.984
63636SOL    HW192805   2.635  13.412  10.956
63636SOL    HW292806   2.686  13.340  11.079
63637SOL     OW92807   9.544   6.718   2.593
63637SOL    HW192808   9.581   6.685   2.675
63637SOL    HW292809   9.508   6.803   2.616
63638SOL     OW92810  13.178   5.570   5.963
63638SOL    HW192811  13.210   5.482   5.945
63638SOL    HW292812  13.102   5.580   5.906
63639SOL     OW92813   3.220   2.805   1.030
63639SOL    HW192814   3.220   2.833   1.122
63639SOL    HW292815   3.301   2.756   1.020
63640SOL     OW92816   5.131   9.988  10.640
63640SOL    HW192817   5.099   9.923  10.577
63640SOL    HW292818   5.216   9.954  10.668
63641SOL     OW92819   8.692   5.751   4.502
63641SOL    HW192820   8.624   5.756   4.434
63641SOL    HW292821   8.703   5.657   4.518
63642SOL     OW92822   4.090  14.653  10.777
63642SOL    HW192823   4.016  14.617  10.825
63642SOL    HW292824   4.102  14.740  10.814
63643SOL     OW92825   3.053   2.224   7.902
63643SOL    HW192826   3.024   2.157   7.840
63643SOL    HW292827   3.139   2.193   7.932
63644SOL     OW92828  11.775   9.246  11.503
63644SOL    HW192829  11.772   9.311  11.434
63644SOL    HW292830  11.849   9.190  11.480
63645SOL     OW92831   9.668  13.339   0.765
63645SOL    HW192832   9.715  13.422   0.759
63645SOL    HW292833   9.737  13.273   0.776
63646SOL     OW92834   4.672   1.506   5.750
63646SOL    HW192835   4.715   1.591   5.750
63646SOL    HW292836   4.612   1.508   5.675
63647SOL     OW92837   0.794  11.998   7.820
63647SOL    HW192838   0.874  11.949   7.836
63647SOL    HW292839   0.781  12.050   7.899
63648SOL     OW92840   7.138  13.472  11.785
63648SOL    HW192841   7.142  13.482  11.880
63648SOL    HW292842   7.127  13.378  11.771
63649SOL     OW92843   5.340   1.208  11.630
63649SOL    HW192844   5.342   1.267  11.705
63649SOL    HW292845   5.266   1.239  11.577
63650SOL     OW92846   0.712   4.676  10.046
63650SOL    HW192847   0.680   4.593  10.081
63650SOL    HW292848   0.711   4.735  10.121
63651SOL     OW92849   3.996   6.241   2.657
63651SOL    HW192850   4.082   6.200   2.656
63651SOL    HW292851   3.955   6.208   2.737
63652SOL     OW92852   0.417  10.368  13.367
63652SOL    HW192853   0.501  10.344  13.406
63652SOL    HW292854   0.431  10.356  13.273
63653SOL     OW92855   1.962   2.387  13.433
63653SOL    HW192856   1.929   2.475  13.419
63653SOL    HW292857   1.910   2.354  13.507
63654SOL     OW92858   4.984   7.660  11.149
63654SOL    HW192859   5.018   7.703  11.071
63654SOL    HW292860   4.926   7.592  11.116
63655SOL     OW92861   9.953   2.748   4.849
63655SOL    HW192862   9.920   2.663   4.877
63655SOL    HW292863   9.877   2.792   4.812
63656SOL     OW92864  10.755  14.019  11.973
63656SOL    HW192865  10.773  14.094  11.916
63656SOL    HW292866  10.698  13.962  11.920
63657SOL     OW92867  12.104  13.527   1.198
63657SOL    HW192868  12.096  13.531   1.293
63657SOL    HW292869  12.119  13.435   1.178
63658SOL     OW92870   4.399  13.227  10.151
63658SOL    HW192871   4.434  13.238  10.239
63658SOL    HW292872   4.365  13.313  10.128
63659SOL     OW92873  13.817  12.248   8.805
63659SOL    HW192874  13.831  12.155   8.785
63659SOL    HW292875  13.795  12.250   8.898
63660SOL     OW92876   6.407  14.620  13.718
63660SOL    HW192877   6.419  14.652  13.629
63660SOL    HW292878   6.440  14.531  13.716
63661SOL     OW92879  13.218   8.281   6.352
63661SOL    HW192880  13.260   8.199   6.324
63661SOL    HW292881  13.289   8.334   6.387
63662SOL     OW92882   6.306   3.793  12.252
63662SOL    HW192883   6.296   3.803  12.158
63662SOL    HW292884   6.280   3.703  12.270
63663SOL     OW92885  11.691   0.139  11.702
63663SOL    HW192886  11.664   0.224  11.737
63663SOL    HW292887  11.613   0.104  11.659
63664SOL     OW92888  14.193   6.132  10.861
63664SOL    HW192889  14.213   6.124  10.954
63664SOL    HW292890  14.254   6.198  10.829
63665SOL     OW92891   3.985  13.677   4.149
63665SOL    HW192892   4.067  13.658   4.102
63665SOL    HW292893   3.970  13.600   4.204
63666SOL     OW92894  12.464   2.386  13.245
63666SOL    HW192895  12.392   2.409  13.304
63666SOL    HW292896  12.522   2.462  13.247
63667SOL     OW92897  12.417   4.056  12.556
63667SOL    HW192898  12.329   4.037  12.589
63667SOL    HW292899  12.476   4.023  12.624
63668SOL     OW92900   7.429   5.701   7.323
63668SOL    HW192901   7.423   5.742   7.409
63668SOL    HW292902   7.516   5.725   7.291
63669SOL     OW92903  11.890  14.759   1.427
63669SOL    HW192904  11.891  14.850   1.454
63669SOL    HW292905  11.798  14.734   1.429
63670SOL     OW92906  14.446   6.348   1.874
63670SOL    HW192907  14.361   6.339   1.916
63670SOL    HW292908  14.429   6.332   1.781
63671SOL     OW92909   4.273  10.281  11.586
63671SOL    HW192910   4.294  10.286  11.679
63671SOL    HW292911   4.358  10.283  11.541
63672SOL     OW92912   7.926   6.563   4.475
63672SOL    HW192913   7.961   6.651   4.490
63672SOL    HW292914   7.889   6.537   4.559
63673SOL     OW92915  12.944   7.377  13.965
63673SOL    HW192916  12.938   7.285  13.993
63673SOL    HW292917  12.859   7.414  13.986
63674SOL     OW92918  14.779  13.121   6.198
63674SOL    HW192919  14.755  13.204   6.157
63674SOL    HW292920  14.768  13.056   6.127
63675SOL     OW92921   3.684   8.066   1.096
63675SOL    HW192922   3.668   8.013   1.174
63675SOL    HW292923   3.609   8.124   1.090
63676SOL     OW92924  13.804  11.076  12.103
63676SOL    HW192925  13.750  11.051  12.028
63676SOL    HW292926  13.870  11.007  12.108
63677SOL     OW92927  10.895  13.457   4.555
63677SOL    HW192928  10.857  13.417   4.633
63677SOL    HW292929  10.851  13.541   4.546
63678SOL     OW92930   4.057   7.514   4.928
63678SOL    HW192931   4.070   7.421   4.913
63678SOL    HW292932   4.139   7.544   4.967
63679SOL     OW92933  12.103  12.474   4.387
63679SOL    HW192934  12.085  12.519   4.470
63679SOL    HW292935  12.079  12.538   4.320
63680SOL     OW92936   6.222   8.835   4.591
63680SOL    HW192937   6.227   8.740   4.599
63680SOL    HW292938   6.164   8.850   4.517
63681SOL     OW92939   4.470   5.280   2.845
63681SOL    HW192940   4.377   5.292   2.827
63681SOL    HW292941   4.496   5.205   2.792
63682SOL     OW92942   7.820   4.693   3.787
63682SOL    HW192943   7.886   4.717   3.722
63682SOL    HW292944   7.759   4.767   3.789
63683SOL     OW92945   1.086   0.190   1.411
63683SOL    HW192946   1.096   0.213   1.318
63683SOL    HW292947   1.129   0.105   1.419
63684SOL     OW92948   5.892  11.304   8.884
63684SOL    HW192949   5.892  11.208   8.884
63684SOL    HW292950   5.802  11.328   8.864
63685SOL     OW92951  14.759  10.674   5.298
63685SOL    HW192952  14.737  10.748   5.241
63685SOL    HW292953  14.812  10.616   5.242
63686SOL     OW92954   7.350   2.742  13.024
63686SOL    HW192955   7.405   2.781  12.956
63686SOL    HW292956   7.366   2.648  13.017
63687SOL     OW92957   2.395  13.980  11.084
63687SOL    HW192958   2.309  13.937  11.086
63687SOL    HW292959   2.386  14.050  11.019
63688SOL     OW92960  11.496   8.977   9.479
63688SOL    HW192961  11.484   8.955   9.572
63688SOL    HW292962  11.531   9.066   9.480
63689SOL     OW92963   3.731   9.711   1.610
63689SOL    HW192964   3.746   9.752   1.695
63689SOL    HW292965   3.640   9.681   1.613
63690SOL     OW92966   2.569  13.695   2.166
63690SOL    HW192967   2.586  13.715   2.259
63690SOL    HW292968   2.542  13.779   2.129
63691SOL     OW92969   4.568  12.160   7.597
63691SOL    HW192970   4.623  12.096   7.642
63691SOL    HW292971   4.512  12.196   7.666
63692SOL     OW92972   8.054  13.291  13.056
63692SOL    HW192973   8.070  13.363  13.117
63692SOL    HW292974   8.141  13.265  13.026
63693SOL     OW92975   1.625   9.021  13.859
63693SOL    HW192976   1.585   9.000  13.944
63693SOL    HW292977   1.710   8.978  13.861
63694SOL     OW92978   7.434   9.977  12.340
63694SOL    HW192979   7.356  10.026  12.316
63694SOL    HW292980   7.401   9.891  12.366
63695SOL     OW92981   9.724   3.999   1.133
63695SOL    HW192982   9.749   4.087   1.161
63695SOL    HW292983   9.680   3.961   1.209
63696SOL     OW92984   1.200   4.365   7.147
63696SOL    HW192985   1.160   4.445   7.181
63696SOL    HW292986   1.286   4.393   7.116
63697SOL     OW92987   0.307   7.000  10.163
63697SOL    HW192988   0.321   6.905  10.168
63697SOL    HW292989   0.380   7.037  10.212
63698SOL     OW92990   4.713   2.250   6.829
63698SOL    HW192991   4.765   2.325   6.859
63698SOL    HW292992   4.720   2.187   6.900
63699SOL     OW92993  12.641  10.477   1.597
63699SOL    HW192994  12.701  10.422   1.547
63699SOL    HW292995  12.583  10.416   1.641
63700SOL     OW92996  12.636  12.169   6.504
63700SOL    HW192997  12.552  12.192   6.463
63700SOL    HW292998  12.702  12.208   6.448
63701SOL     OW92999  11.580   0.954   5.883
63701SOL    HW193000  11.585   0.921   5.973
63701SOL    HW293001  11.567   0.876   5.830
63702SOL     OW93002   6.044   5.722   7.689
63702SOL    HW193003   6.040   5.627   7.690
63702SOL    HW293004   5.979   5.750   7.754
63703SOL     OW93005   0.177   3.688   0.201
63703SOL    HW193006   0.142   3.734   0.277
63703SOL    HW293007   0.255   3.737   0.177
63704SOL     OW93008  14.237   6.924   8.294
63704SOL    HW193009  14.186   6.988   8.344
63704SOL    HW293010  14.251   6.852   8.355
63705SOL     OW93011  12.123   2.063   6.747
63705SOL    HW193012  12.077   2.115   6.682
63705SOL    HW293013  12.128   1.975   6.709
63706SOL     OW93014  12.117   9.346   7.294
63706SOL    HW193015  12.067   9.270   7.265
63706SOL    HW293016  12.200   9.310   7.327
63707SOL     OW93017  12.956  12.264   2.883
63707SOL    HW193018  13.048  12.258   2.857
63707SOL    HW293019  12.919  12.328   2.822
63708SOL     OW93020   5.858   7.477   7.461
63708SOL    HW193021   5.898   7.474   7.374
63708SOL    HW293022   5.787   7.413   7.457
63709SOL     OW93023   0.647   6.460  13.536
63709SOL    HW193024   0.601   6.478  13.617
63709SOL    HW293025   0.587   6.404  13.486
63710SOL     OW93026   1.361   2.606   7.118
63710SOL    HW193027   1.389   2.602   7.209
63710SOL    HW293028   1.267   2.590   7.121
63711SOL     OW93029  12.952  12.095  10.917
63711SOL    HW193030  12.943  12.021  10.858
63711SOL    HW293031  12.895  12.074  10.991
63712SOL     OW93032   7.931   8.495   6.838
63712SOL    HW193033   7.849   8.526   6.879
63712SOL    HW293034   7.908   8.410   6.802
63713SOL     OW93035   9.575  13.429   1.643
63713SOL    HW193036   9.558  13.523   1.648
63713SOL    HW293037   9.666  13.419   1.671
63714SOL     OW93038  14.427   8.663   0.570
63714SOL    HW193039  14.407   8.695   0.658
63714SOL    HW293040  14.416   8.569   0.576
63715SOL     OW93041  13.565   0.039  11.245
63715SOL    HW193042  13.616   0.084  11.313
63715SOL    HW293043  13.621   0.039  11.168
63716SOL     OW93044   1.135  12.541   7.828
63716SOL    HW193045   1.201  12.594   7.784
63716SOL    HW293046   1.099  12.485   7.759
63717SOL     OW93047  14.288  11.019   2.138
63717SOL    HW193048  14.313  10.946   2.081
63717SOL    HW293049  14.194  11.029   2.124
63718SOL     OW93050   5.764   9.637   1.791
63718SOL    HW193051   5.674   9.620   1.764
63718SOL    HW293052   5.813   9.560   1.762
63719SOL     OW93053   4.785   7.528   5.777
63719SOL    HW193054   4.829   7.513   5.861
63719SOL    HW293055   4.845   7.583   5.728
63720SOL     OW93056  10.169   4.664   0.376
63720SOL    HW193057  10.227   4.637   0.304
63720SOL    HW293058  10.211   4.630   0.455
63721SOL     OW93059  14.338  11.086  13.699
63721SOL    HW193060  14.334  11.007  13.753
63721SOL    HW293061  14.260  11.136  13.723
63722SOL     OW93062   2.010   4.564   9.521
63722SOL    HW193063   2.002   4.604   9.608
63722SOL    HW293064   1.942   4.607   9.469
63723SOL     OW93065   9.477   6.141  11.837
63723SOL    HW193066   9.436   6.069  11.886
63723SOL    HW293067   9.517   6.100  11.761
63724SOL     OW93068   4.537   5.235   6.555
63724SOL    HW193069   4.595   5.306   6.582
63724SOL    HW293070   4.592   5.157   6.553
63725SOL     OW93071   5.690  12.024   0.682
63725SOL    HW193072   5.648  11.940   0.665
63725SOL    HW293073   5.633  12.088   0.639
63726SOL     OW93074  13.697   8.298   4.089
63726SOL    HW193075  13.784   8.298   4.127
63726SOL    HW293076  13.658   8.215   4.116
63727SOL     OW93077   6.087   0.093   1.553
63727SOL    HW193078   6.120   0.008   1.582
63727SOL    HW293079   6.102   0.151   1.628
63728SOL     OW93080   2.776   6.350  10.412
63728SOL    HW193081   2.777   6.290  10.486
63728SOL    HW293082   2.749   6.434  10.450
63729SOL     OW93083   4.517   8.626  10.843
63729SOL    HW193084   4.606   8.601  10.869
63729SOL    HW293085   4.512   8.603  10.751
63730SOL     OW93086  11.469   7.392  10.053
63730SOL    HW193087  11.444   7.482  10.075
63730SOL    HW293088  11.388   7.343  10.060
63731SOL     OW93089  14.013   0.918   1.894
63731SOL    HW193090  14.103   0.952   1.894
63731SOL    HW293091  14.020   0.831   1.855
63732SOL     OW93092  10.378  11.126   3.930
63732SOL    HW193093  10.283  11.118   3.938
63732SOL    HW293094  10.391  11.196   3.866
63733SOL     OW93095  12.303  14.473  11.072
63733SOL    HW193096  12.393  14.461  11.102
63733SOL    HW293097  12.285  14.395  11.019
63734SOL     OW93098   0.448   3.337  12.580
63734SOL    HW193099   0.480   3.423  12.607
63734SOL    HW293100   0.388   3.355  12.507
63735SOL     OW93101   6.598   5.048  13.285
63735SOL    HW193102   6.598   5.141  13.306
63735SOL    HW293103   6.685   5.018  13.309
63736SOL     OW93104  14.869   3.741  11.941
63736SOL    HW193105   0.018   3.739  11.849
63736SOL    HW293106   0.050   3.801  11.983
63737SOL     OW93107   3.461   0.545   3.576
63737SOL    HW193108   3.504   0.584   3.499
63737SOL    HW293109   3.414   0.618   3.616
63738SOL     OW93110   9.951   2.927   2.765
63738SOL    HW193111   9.950   3.013   2.723
63738SOL    HW293112  10.003   2.940   2.845
63739SOL     OW93113   4.800   9.931  12.304
63739SOL    HW193114   4.731   9.981  12.261
63739SOL    HW293115   4.774   9.926  12.396
63740SOL     OW93116  10.593   8.802   5.204
63740SOL    HW193117  10.595   8.884   5.253
63740SOL    HW293118  10.686   8.783   5.187
63741SOL     OW93119   9.230   0.369   7.349
63741SOL    HW193120   9.242   0.458   7.316
63741SOL    HW293121   9.176   0.326   7.283
63742SOL     OW93122  11.722  13.914   2.447
63742SOL    HW193123  11.717  14.000   2.487
63742SOL    HW293124  11.650  13.864   2.486
63743SOL     OW93125   2.790   9.570   9.017
63743SOL    HW193126   2.843   9.599   9.091
63743SOL    HW293127   2.852   9.564   8.944
63744SOL     OW93128  11.486   3.400   1.987
63744SOL    HW193129  11.407   3.369   1.942
63744SOL    HW293130  11.480   3.363   2.075
63745SOL     OW93131   8.284   0.705   8.690
63745SOL    HW193132   8.284   0.614   8.720
63745SOL    HW293133   8.205   0.712   8.636
63746SOL     OW93134  12.836   8.830   3.054
63746SOL    HW193135  12.881   8.915   3.055
63746SOL    HW293136  12.901   8.769   3.021
63747SOL     OW93137   9.365   7.004   9.529
63747SOL    HW193138   9.305   7.039   9.595
63747SOL    HW293139   9.444   6.981   9.578
63748SOL     OW93140  10.244  12.674   9.777
63748SOL    HW193141  10.299  12.635   9.708
63748SOL    HW293142  10.302  12.735   9.822
63749SOL     OW93143   3.520  12.495   8.444
63749SOL    HW193144   3.487  12.584   8.432
63749SOL    HW293145   3.477  12.443   8.376
63750SOL     OW93146   4.488   5.536   3.253
63750SOL    HW193147   4.490   5.465   3.189
63750SOL    HW293148   4.394   5.551   3.269
63751SOL     OW93149   3.245   7.917   1.224
63751SOL    HW193150   3.186   7.862   1.172
63751SOL    HW293151   3.302   7.960   1.161
63752SOL     OW93152   3.673   3.186  14.624
63752SOL    HW193153   3.608   3.117  14.635
63752SOL    HW293154   3.752   3.152  14.665
63753SOL     OW93155  13.937   8.755  12.047
63753SOL    HW193156  13.880   8.697  11.997
63753SOL    HW293157  13.996   8.792  11.982
63754SOL     OW93158   5.435  12.234  12.394
63754SOL    HW193159   5.368  12.218  12.461
63754SOL    HW293160   5.518  12.218  12.438
63755SOL     OW93161  11.903   9.548   9.120
63755SOL    HW193162  11.819   9.593   9.115
63755SOL    HW293163  11.929   9.556   9.212
63756SOL     OW93164  13.362  10.143  11.983
63756SOL    HW193165  13.422  10.088  12.033
63756SOL    HW293166  13.369  10.229  12.025
63757SOL     OW93167   0.078  11.389  11.847
63757SOL    HW193168   0.013  11.337  11.895
63757SOL    HW293169   0.049  11.385  11.756
63758SOL     OW93170   3.766  12.216   1.945
63758SOL    HW193171   3.859  12.227   1.964
63758SOL    HW293172   3.722  12.277   2.004
63759SOL     OW93173  14.779   0.922   1.293
63759SOL    HW193174  14.707   0.880   1.341
63759SOL    HW293175  14.780   1.012   1.325
63760SOL     OW93176   8.573   4.031   4.631
63760SOL    HW193177   8.637   4.017   4.701
63760SOL    HW293178   8.591   4.120   4.600
63761SOL     OW93179   0.312  12.230   1.827
63761SOL    HW193180   0.265  12.216   1.744
63761SOL    HW293181   0.288  12.154   1.880
63762SOL     OW93182   3.722  13.584   5.363
63762SOL    HW193183   3.633  13.560   5.337
63762SOL    HW293184   3.732  13.546   5.450
63763SOL     OW93185  12.075   2.020   9.514
63763SOL    HW193186  12.111   2.079   9.448
63763SOL    HW293187  12.147   1.961   9.535
63764SOL     OW93188   2.983   2.394  12.947
63764SOL    HW193189   2.894   2.359  12.954
63764SOL    HW293190   3.006   2.382  12.855
63765SOL     OW93191  10.012   4.030   6.614
63765SOL    HW193192   9.968   4.102   6.568
63765SOL    HW293193  10.039   3.970   6.544
63766SOL     OW93194   7.313   4.843   1.071
63766SOL    HW193195   7.374   4.912   1.095
63766SOL    HW293196   7.301   4.853   0.976
63767SOL     OW93197  13.104   9.666   7.317
63767SOL    HW193198  13.172   9.650   7.383
63767SOL    HW293199  13.149   9.656   7.233
63768SOL     OW93200   4.230  14.132   2.503
63768SOL    HW193201   4.219  14.200   2.437
63768SOL    HW293202   4.153  14.140   2.559
63769SOL     OW93203   9.108   5.102   3.342
63769SOL    HW193204   9.026   5.072   3.381
63769SOL    HW293205   9.115   5.194   3.369
63770SOL     OW93206   2.792  14.310  12.193
63770SOL    HW193207   2.728  14.294  12.123
63770SOL    HW293208   2.741  14.300  12.274
63771SOL     OW93209  11.311   1.614  12.169
63771SOL    HW193210  11.384   1.554  12.155
63771SOL    HW293211  11.287   1.643  12.081
63772SOL     OW93212   5.999   1.290   1.976
63772SOL    HW193213   5.927   1.264   2.034
63772SOL    HW293214   5.957   1.339   1.906
63773SOL     OW93215  11.881   1.835   8.831
63773SOL    HW193216  11.800   1.866   8.871
63773SOL    HW293217  11.876   1.740   8.836
63774SOL     OW93218   9.990   6.733   6.548
63774SOL    HW193219  10.042   6.724   6.629
63774SOL    HW293220   9.920   6.793   6.571
63775SOL     OW93221   6.813  10.928   0.496
63775SOL    HW193222   6.821  10.931   0.591
63775SOL    HW293223   6.897  10.961   0.464
63776SOL     OW93224   4.542   7.222  13.382
63776SOL    HW193225   4.606   7.163  13.421
63776SOL    HW293226   4.530   7.189  13.293
63777SOL     OW93227   3.046   0.148  12.460
63777SOL    HW193228   2.996   0.160  12.379
63777SOL    HW293229   3.054   0.236  12.496
63778SOL     OW93230   4.005  13.735  11.754
63778SOL    HW193231   3.921  13.751  11.796
63778SOL    HW293232   4.020  13.641  11.765
63779SOL     OW93233   4.368  11.674  14.551
63779SOL    HW193234   4.415  11.742  14.503
63779SOL    HW293235   4.276  11.691  14.532
63780SOL     OW93236  10.471  10.987   4.869
63780SOL    HW193237  10.408  11.019   4.805
63780SOL    HW293238  10.549  11.042   4.855
63781SOL     OW93239  10.922   4.996   0.265
63781SOL    HW193240  11.002   4.950   0.291
63781SOL    HW293241  10.935   5.015   0.172
63782SOL     OW93242  14.564  10.030  10.292
63782SOL    HW193243  14.536   9.943  10.321
63782SOL    HW293244  14.578  10.021  10.198
63783SOL     OW93245   5.871   6.784   0.274
63783SOL    HW193246   5.876   6.877   0.296
63783SOL    HW293247   5.953   6.747   0.307
63784SOL     OW93248  13.442   8.376  12.632
63784SOL    HW193249  13.432   8.368  12.726
63784SOL    HW293250  13.403   8.461  12.611
63785SOL     OW93251  11.421  11.841   8.343
63785SOL    HW193252  11.477  11.830   8.266
63785SOL    HW293253  11.376  11.757   8.352
63786SOL     OW93254   9.131  13.593   2.370
63786SOL    HW193255   9.053  13.541   2.386
63786SOL    HW293256   9.162  13.618   2.457
63787SOL     OW93257  13.086   8.021   5.688
63787SOL    HW193258  12.997   8.038   5.659
63787SOL    HW293259  13.122   8.107   5.709
63788SOL     OW93260   8.316   0.983   9.033
63788SOL    HW193261   8.358   0.996   8.948
63788SOL    HW293262   8.229   1.022   9.023
63789SOL     OW93263  10.772  14.287   0.466
63789SOL    HW193264  10.849  14.231   0.470
63789SOL    HW293265  10.705  14.233   0.423
63790SOL     OW93266   0.665   8.409   1.969
63790SOL    HW193267   0.613   8.328   1.972
63790SOL    HW293268   0.727   8.400   2.041
63791SOL     OW93269   4.802   9.207  10.171
63791SOL    HW193270   4.831   9.176  10.085
63791SOL    HW293271   4.708   9.185  10.173
63792SOL     OW93272   4.950  10.868   4.361
63792SOL    HW193273   4.900  10.930   4.308
63792SOL    HW293274   4.885  10.806   4.394
63793SOL     OW93275   7.266   9.146   8.180
63793SOL    HW193276   7.293   9.055   8.166
63793SOL    HW293277   7.286   9.164   8.271
63794SOL     OW93278   4.668  10.964   0.239
63794SOL    HW193279   4.672  10.880   0.193
63794SOL    HW293280   4.716  10.949   0.321
63795SOL     OW93281   5.137  14.323   2.676
63795SOL    HW193282   5.171  14.233   2.674
63795SOL    HW293283   5.063  14.319   2.737
63796SOL     OW93284  12.725  13.296   3.928
63796SOL    HW193285  12.768  13.254   3.854
63796SOL    HW293286  12.764  13.255   4.005
63797SOL     OW93287  12.131  14.377   7.387
63797SOL    HW193288  12.144  14.309   7.321
63797SOL    HW293289  12.180  14.346   7.463
63798SOL     OW93290   4.935  10.865   3.917
63798SOL    HW193291   4.932  10.874   3.822
63798SOL    HW293292   5.024  10.837   3.936
63799SOL     OW93293   0.676  12.558   3.822
63799SOL    HW193294   0.632  12.491   3.769
63799SOL    HW293295   0.769  12.541   3.809
63800SOL     OW93296  11.639  12.730   1.271
63800SOL    HW193297  11.572  12.662   1.268
63800SOL    HW293298  11.702  12.706   1.203
63801SOL     OW93299   1.407  13.406   5.325
63801SOL    HW193300   1.435  13.471   5.389
63801SOL    HW293301   1.476  13.404   5.259
63802SOL     OW93302   5.441   7.942   7.434
63802SOL    HW193303   5.511   8.006   7.423
63802SOL    HW293304   5.382   7.957   7.360
63803SOL     OW93305  12.943   2.816   2.953
63803SOL    HW193306  12.887   2.869   3.011
63803SOL    HW293307  12.883   2.750   2.917
63804SOL     OW93308   8.942   2.114   5.262
63804SOL    HW193309   8.859   2.102   5.308
63804SOL    HW293310   8.928   2.075   5.176
63805SOL     OW93311   0.234   2.228   9.253
63805SOL    HW193312   0.180   2.264   9.324
63805SOL    HW293313   0.292   2.300   9.228
63806SOL     OW93314   2.013   1.003  10.539
63806SOL    HW193315   2.045   1.085  10.501
63806SOL    HW293316   1.954   1.030  10.609
63807SOL     OW93317   0.520  14.556   9.544
63807SOL    HW193318   0.499  14.465   9.565
63807SOL    HW293319   0.609  14.568   9.577
63808SOL     OW93320   0.189   0.719   9.187
63808SOL    HW193321   0.108   0.766   9.167
63808SOL    HW293322   0.238   0.779   9.242
63809SOL     OW93323  14.276  11.823   1.079
63809SOL    HW193324  14.293  11.861   0.993
63809SOL    HW293325  14.227  11.891   1.126
63810SOL     OW93326   9.043   4.726  14.636
63810SOL    HW193327   8.960   4.703  14.594
63810SOL    HW293328   9.087   4.782  14.572
63811SOL     OW93329   9.418   2.425   2.907
63811SOL    HW193330   9.375   2.451   2.826
63811SOL    HW293331   9.347   2.408   2.969
63812SOL     OW93332   8.104   5.736   6.864
63812SOL    HW193333   8.065   5.662   6.910
63812SOL    HW293334   8.029   5.781   6.823
63813SOL     OW93335   8.093   3.773  10.530
63813SOL    HW193336   8.152   3.725  10.587
63813SOL    HW293337   8.137   3.773  10.445
63814SOL     OW93338   4.025   0.811   5.531
63814SOL    HW193339   4.057   0.730   5.570
63814SOL    HW293340   4.054   0.808   5.440
63815SOL     OW93341   5.677   5.450   2.880
63815SOL    HW193342   5.600   5.468   2.934
63815SOL    HW293343   5.738   5.521   2.901
63816SOL     OW93344   4.813   9.458   5.177
63816SOL    HW193345   4.888   9.490   5.227
63816SOL    HW293346   4.846   9.450   5.088
63817SOL     OW93347  14.721   5.679   8.677
63817SOL    HW193348  14.775   5.659   8.753
63817SOL    HW293349  14.641   5.718   8.713
63818SOL     OW93350   6.952   6.027  10.291
63818SOL    HW193351   7.033   6.065  10.325
63818SOL    HW293352   6.899   6.011  10.368
63819SOL     OW93353   9.972   3.217   0.490
63819SOL    HW193354   9.913   3.289   0.508
63819SOL    HW293355   9.960   3.156   0.562
63820SOL     OW93356  10.767  12.542   2.681
63820SOL    HW193357  10.834  12.591   2.634
63820SOL    HW293358  10.808  12.519   2.765
63821SOL     OW93359   4.114  12.058  14.856
63821SOL    HW193360   4.058  12.009   0.035
63821SOL    HW293361   4.192  12.079   0.028
63822SOL     OW93362   9.558   5.533  13.700
63822SOL    HW193363   9.525   5.566  13.617
63822SOL    HW293364   9.536   5.440  13.699
63823SOL     OW93365   9.036  14.007   3.286
63823SOL    HW193366   9.105  13.941   3.288
63823SOL    HW293367   9.082  14.091   3.281
63824SOL     OW93368   5.970   8.187   1.003
63824SOL    HW193369   6.053   8.177   1.048
63824SOL    HW293370   5.951   8.281   1.007
63825SOL     OW93371   1.913  10.405  13.516
63825SOL    HW193372   1.840  10.344  13.521
63825SOL    HW293373   1.957  10.399  13.601
63826SOL     OW93374  13.555   7.134   1.908
63826SOL    HW193375  13.627   7.078   1.938
63826SOL    HW293376  13.557   7.126   1.813
63827SOL     OW93377  14.175   1.595   9.169
63827SOL    HW193378  14.090   1.563   9.138
63827SOL    HW293379  14.188   1.550   9.253
63828SOL     OW93380   4.056  10.493  13.273
63828SOL    HW193381   4.014  10.455  13.350
63828SOL    HW293382   4.147  10.464  13.279
63829SOL     OW93383   4.990   7.483   0.652
63829SOL    HW193384   4.939   7.498   0.731
63829SOL    HW293385   4.987   7.567   0.605
63830SOL     OW93386  13.063   5.392  14.106
63830SOL    HW193387  13.104   5.391  14.192
63830SOL    HW293388  12.981   5.440  14.119
63831SOL     OW93389   2.222   7.656   1.765
63831SOL    HW193390   2.204   7.575   1.718
63831SOL    HW293391   2.137   7.701   1.767
63832SOL     OW93392   9.414   6.515  13.796
63832SOL    HW193393   9.329   6.496  13.756
63832SOL    HW293394   9.394   6.578  13.865
63833SOL     OW93395   2.111   9.379   3.616
63833SOL    HW193396   2.028   9.359   3.573
63833SOL    HW293397   2.127   9.471   3.595
63834SOL     OW93398  12.589   3.763   8.024
63834SOL    HW193399  12.684   3.760   8.029
63834SOL    HW293400  12.565   3.699   7.957
63835SOL     OW93401   2.326  10.166  13.904
63835SOL    HW193402   2.263  10.225  13.945
63835SOL    HW293403   2.409  10.186  13.947
63836SOL     OW93404   9.097  11.034   2.768
63836SOL    HW193405   9.060  11.101   2.826
63836SOL    HW293406   9.033  11.024   2.699
63837SOL     OW93407   6.752  13.436   5.744
63837SOL    HW193408   6.786  13.447   5.656
63837SOL    HW293409   6.725  13.344   5.748
63838SOL     OW93410   6.502  10.255  12.712
63838SOL    HW193411   6.410  10.264  12.688
63838SOL    HW293412   6.525  10.166  12.688
63839SOL     OW93413   3.329   1.503   5.438
63839SOL    HW193414   3.361   1.449   5.511
63839SOL    HW293415   3.311   1.440   5.368
63840SOL     OW93416   4.118   0.159   0.366
63840SOL    HW193417   4.173   0.108   0.306
63840SOL    HW293418   4.180   0.202   0.425
63841SOL     OW93419   3.542   8.412   4.919
63841SOL    HW193420   3.459   8.370   4.944
63841SOL    HW293421   3.521   8.505   4.913
63842SOL     OW93422  12.663  13.535  12.098
63842SOL    HW193423  12.580  13.499  12.128
63842SOL    HW293424  12.666  13.623  12.136
63843SOL     OW93425   8.888   6.804   7.463
63843SOL    HW193426   8.806   6.779   7.505
63843SOL    HW293427   8.950   6.813   7.535
63844SOL     OW93428  14.053   4.699   3.633
63844SOL    HW193429  14.007   4.753   3.698
63844SOL    HW293430  14.005   4.616   3.633
63845SOL     OW93431   0.349   2.394   2.437
63845SOL    HW193432   0.352   2.382   2.342
63845SOL    HW293433   0.335   2.487   2.449
63846SOL     OW93434  12.023  10.184   3.025
63846SOL    HW193435  12.058  10.182   3.114
63846SOL    HW293436  12.099  10.200   2.969
63847SOL     OW93437   0.898  12.565   8.448
63847SOL    HW193438   0.883  12.629   8.517
63847SOL    HW293439   0.822  12.507   8.452
63848SOL     OW93440   5.255   6.016  10.368
63848SOL    HW193441   5.338   5.986  10.404
63848SOL    HW293442   5.274   6.101  10.329
63849SOL     OW93443  12.681   1.964  10.132
63849SOL    HW193444  12.594   1.975  10.093
63849SOL    HW293445  12.729   1.910  10.069
63850SOL     OW93446   7.267   5.835  12.077
63850SOL    HW193447   7.345   5.785  12.104
63850SOL    HW293448   7.194   5.789  12.119
63851SOL     OW93449  10.052   0.197   9.147
63851SOL    HW193450  10.126   0.159   9.193
63851SOL    HW293451  10.080   0.200   9.055
63852SOL     OW93452   2.336  10.935  13.873
63852SOL    HW193453   2.246  10.908  13.891
63852SOL    HW293454   2.360  10.991  13.947
63853SOL     OW93455   6.195   9.718  13.887
63853SOL    HW193456   6.264   9.775  13.920
63853SOL    HW293457   6.122   9.732  13.947
63854SOL     OW93458  10.862   5.209   4.549
63854SOL    HW193459  10.840   5.243   4.636
63854SOL    HW293460  10.815   5.266   4.488
63855SOL     OW93461   5.503   4.210   9.043
63855SOL    HW193462   5.504   4.228   8.949
63855SOL    HW293463   5.529   4.292   9.085
63856SOL     OW93464  14.657   6.548   0.629
63856SOL    HW193465  14.617   6.500   0.556
63856SOL    HW293466  14.634   6.639   0.613
63857SOL     OW93467  10.239   0.217   8.263
63857SOL    HW193468  10.149   0.227   8.232
63857SOL    HW293469  10.273   0.142   8.214
63858SOL     OW93470   5.298   4.230  11.883
63858SOL    HW193471   5.262   4.254  11.798
63858SOL    HW293472   5.337   4.310  11.916
63859SOL     OW93473   9.957   4.488   4.391
63859SOL    HW193474   9.993   4.403   4.415
63859SOL    HW293475   9.882   4.467   4.335
63860SOL     OW93476  14.121  12.539  10.550
63860SOL    HW193477  14.168  12.476  10.496
63860SOL    HW293478  14.170  12.541  10.633
63861SOL     OW93479   9.428   1.313   5.526
63861SOL    HW193480   9.499   1.281   5.581
63861SOL    HW293481   9.467   1.384   5.475
63862SOL     OW93482   7.386   6.431   3.269
63862SOL    HW193483   7.327   6.356   3.258
63862SOL    HW293484   7.409   6.429   3.362
63863SOL     OW93485   0.106  11.916  10.024
63863SOL    HW193486   0.069  11.876  10.102
63863SOL    HW293487   0.041  11.980   9.995
63864SOL     OW93488   3.065   0.083   9.390
63864SOL    HW193489   3.006   0.134   9.334
63864SOL    HW293490   3.073  14.879   9.346
63865SOL     OW93491  14.429  11.275   2.364
63865SOL    HW193492  14.465  11.224   2.291
63865SOL    HW293493  14.437  11.366   2.336
63866SOL     OW93494   3.117   3.582   5.108
63866SOL    HW193495   3.026   3.555   5.098
63866SOL    HW293496   3.126   3.657   5.050
63867SOL     OW93497   6.724   0.809  12.876
63867SOL    HW193498   6.717   0.714  12.880
63867SOL    HW293499   6.745   0.827  12.784
63868SOL     OW93500  14.862   2.906  13.407
63868SOL    HW193501  14.802   2.834  13.427
63868SOL    HW293502  14.873   2.903  13.312
63869SOL     OW93503  13.407   3.088  10.060
63869SOL    HW193504  13.487   3.138  10.043
63869SOL    HW293505  13.338   3.140  10.018
63870SOL     OW93506   9.704   3.810   7.417
63870SOL    HW193507   9.689   3.758   7.495
63870SOL    HW293508   9.625   3.796   7.364
63871SOL     OW93509  13.644   4.129   2.839
63871SOL    HW193510  13.606   4.112   2.752
63871SOL    HW293511  13.738   4.116   2.827
63872SOL     OW93512  14.624  13.442  11.400
63872SOL    HW193513  14.698  13.410  11.450
63872SOL    HW293514  14.606  13.372  11.337
63873SOL     OW93515  13.921   1.618  14.328
63873SOL    HW193516  14.007   1.647  14.359
63873SOL    HW293517  13.884   1.569  14.401
63874SOL     OW93518  10.313   1.338   7.789
63874SOL    HW193519  10.355   1.329   7.874
63874SOL    HW293520  10.373   1.294   7.728
63875SOL     OW93521   3.794   6.890  14.532
63875SOL    HW193522   3.825   6.980  14.540
63875SOL    HW293523   3.701   6.898  14.512
63876SOL     OW93524   9.759   8.474   9.000
63876SOL    HW193525   9.703   8.540   9.040
63876SOL    HW293526   9.725   8.464   8.911
63877SOL     OW93527   8.708   8.576  11.561
63877SOL    HW193528   8.671   8.649  11.512
63877SOL    HW293529   8.642   8.507  11.555
63878SOL     OW93530   5.038  14.165   8.185
63878SOL    HW193531   5.079  14.250   8.203
63878SOL    HW293532   5.065  14.145   8.095
63879SOL     OW93533   3.657   4.907   5.934
63879SOL    HW193534   3.681   4.982   5.988
63879SOL    HW293535   3.731   4.897   5.873
63880SOL     OW93536  14.838  12.554   1.706
63880SOL    HW193537   0.006  12.471   1.710
63880SOL    HW293538  14.760  12.539   1.759
63881SOL     OW93539   8.901  14.607   1.777
63881SOL    HW193540   8.826  14.655   1.741
63881SOL    HW293541   8.955  14.585   1.701
63882SOL     OW93542   0.823   8.603   4.901
63882SOL    HW193543   0.756   8.657   4.860
63882SOL    HW293544   0.782   8.518   4.913
63883SOL     OW93545   4.502   4.385   9.351
63883SOL    HW193546   4.422   4.351   9.309
63883SOL    HW293547   4.556   4.307   9.364
63884SOL     OW93548   0.662   0.629   8.654
63884SOL    HW193549   0.595   0.565   8.630
63884SOL    HW293550   0.713   0.585   8.723
63885SOL     OW93551   7.729   3.877   2.004
63885SOL    HW193552   7.737   3.846   1.914
63885SOL    HW293553   7.740   3.972   1.998
63886SOL     OW93554  14.151   7.715  10.531
63886SOL    HW193555  14.061   7.727  10.563
63886SOL    HW293556  14.145   7.736  10.438
63887SOL     OW93557   2.693   9.494   1.914
63887SOL    HW193558   2.739   9.478   1.997
63887SOL    HW293559   2.687   9.408   1.873
63888SOL     OW93560   6.825   7.947   6.229
63888SOL    HW193561   6.769   7.875   6.259
63888SOL    HW293562   6.838   8.002   6.307
63889SOL     OW93563   4.116   7.390   2.041
63889SOL    HW193564   4.046   7.345   2.088
63889SOL    HW293565   4.190   7.389   2.101
63890SOL     OW93566   6.894   1.876  14.312
63890SOL    HW193567   6.923   1.920  14.232
63890SOL    HW293568   6.814   1.830  14.287
63891SOL     OW93569  12.486  13.976   5.107
63891SOL    HW193570  12.517  14.001   5.194
63891SOL    HW293571  12.486  13.881   5.108
63892SOL     OW93572   5.777   3.585   9.629
63892SOL    HW193573   5.691   3.565   9.594
63892SOL    HW293574   5.776   3.551   9.718
63893SOL     OW93575   8.685   9.497   1.181
63893SOL    HW193576   8.641   9.513   1.265
63893SOL    HW293577   8.652   9.411   1.153
63894SOL     OW93578  13.149   4.659   7.216
63894SOL    HW193579  13.186   4.573   7.239
63894SOL    HW293580  13.224   4.719   7.217
63895SOL     OW93581   3.568   1.880   9.103
63895SOL    HW193582   3.558   1.885   9.008
63895SOL    HW293583   3.654   1.840   9.115
63896SOL     OW93584   2.442  11.242  13.118
63896SOL    HW193585   2.413  11.160  13.157
63896SOL    HW293586   2.375  11.306  13.142
63897SOL     OW93587  13.885  12.016  12.279
63897SOL    HW193588  13.936  12.096  12.290
63897SOL    HW293589  13.912  11.960  12.352
63898SOL     OW93590  12.761   6.024   5.291
63898SOL    HW193591  12.811   6.103   5.273
63898SOL    HW293592  12.813   5.976   5.355
63899SOL     OW93593   0.314  11.203   8.324
63899SOL    HW193594   0.253  11.181   8.253
63899SOL    HW293595   0.401  11.190   8.286
63900SOL     OW93596   1.844  13.328   3.573
63900SOL    HW193597   1.769  13.271   3.592
63900SOL    HW293598   1.911  13.269   3.538
63901SOL     OW93599   1.721   9.600   3.545
63901SOL    HW193600   1.685   9.634   3.463
63901SOL    HW293601   1.790   9.662   3.569
63902SOL     OW93602  13.622   9.042   9.773
63902SOL    HW193603  13.603   9.099   9.847
63902SOL    HW293604  13.585   9.088   9.697
63903SOL     OW93605  11.310   3.410  11.467
63903SOL    HW193606  11.268   3.392  11.382
63903SOL    HW293607  11.301   3.504  11.479
63904SOL     OW93608   6.049   2.935   3.166
63904SOL    HW193609   6.084   2.847   3.153
63904SOL    HW293610   6.094   2.968   3.244
63905SOL     OW93611  13.503  14.177   2.158
63905SOL    HW193612  13.475  14.183   2.249
63905SOL    HW293613  13.439  14.119   2.117
63906SOL     OW93614   6.809   4.008   9.551
63906SOL    HW193615   6.817   4.098   9.584
63906SOL    HW293616   6.808   4.018   9.456
63907SOL     OW93617   2.242  11.499   7.790
63907SOL    HW193618   2.158  11.484   7.747
63907SOL    HW293619   2.221  11.505   7.883
63908SOL     OW93620   9.965   7.059  13.676
63908SOL    HW193621  10.018   7.003  13.732
63908SOL    HW293622  10.006   7.145  13.683
63909SOL     OW93623   9.119  12.856   8.626
63909SOL    HW193624   9.105  12.887   8.715
63909SOL    HW293625   9.086  12.928   8.571
63910SOL     OW93626   8.486   4.905   5.241
63910SOL    HW193627   8.478   4.948   5.156
63910SOL    HW293628   8.400   4.915   5.282
63911SOL     OW93629   4.192  14.341   1.131
63911SOL    HW193630   4.279  14.379   1.146
63911SOL    HW293631   4.171  14.298   1.214
63912SOL     OW93632  11.759   4.844   9.385
63912SOL    HW193633  11.801   4.863   9.469
63912SOL    HW293634  11.670   4.878   9.395
63913SOL     OW93635   6.678   9.378  10.090
63913SOL    HW193636   6.590   9.386  10.126
63913SOL    HW293637   6.724   9.320  10.151
63914SOL     OW93638   0.291  14.750   0.005
63914SOL    HW193639   0.249  14.666  14.872
63914SOL    HW293640   0.273  14.800  14.806
63915SOL     OW93641   7.101   9.966   6.502
63915SOL    HW193642   7.067   9.955   6.590
63915SOL    HW293643   7.100   9.877   6.465
63916SOL     OW93644  13.458   8.396   3.695
63916SOL    HW193645  13.447   8.489   3.675
63916SOL    HW293646  13.372   8.369   3.729
63917SOL     OW93647  14.119   9.048   2.201
63917SOL    HW193648  14.040   9.100   2.216
63917SOL    HW293649  14.120   9.033   2.107
63918SOL     OW93650  10.416   3.907  11.211
63918SOL    HW193651  10.487   3.843  11.226
63918SOL    HW293652  10.405   3.908  11.116
63919SOL     OW93653   5.990   8.476   1.204
63919SOL    HW193654   6.080   8.449   1.220
63919SOL    HW293655   5.986   8.489   1.109
63920SOL     OW93656   0.085   8.311   1.699
63920SOL    HW193657   0.071   8.386   1.756
63920SOL    HW293658  14.879   8.293   1.662
63921SOL     OW93659  12.200  10.755   0.054
63921SOL    HW193660  12.279  10.704   0.037
63921SOL    HW293661  12.205  10.830  14.874
63922SOL     OW93662   8.159   5.721   9.343
63922SOL    HW193663   8.208   5.642   9.365
63922SOL    HW293664   8.227   5.787   9.329
63923SOL     OW93665  13.585   6.621  13.144
63923SOL    HW193666  13.577   6.541  13.092
63923SOL    HW293667  13.562   6.594  13.233
63924SOL     OW93668   2.615  13.016   3.964
63924SOL    HW193669   2.551  13.046   4.028
63924SOL    HW293670   2.695  13.001   4.014
63925SOL     OW93671   3.902  13.437   7.732
63925SOL    HW193672   3.910  13.363   7.671
63925SOL    HW293673   3.990  13.447   7.769
63926SOL     OW93674   2.303  11.062   6.769
63926SOL    HW193675   2.395  11.038   6.764
63926SOL    HW293676   2.259  10.982   6.796
63927SOL     OW93677   3.083   6.606  14.846
63927SOL    HW193678   3.010   6.543  14.844
63927SOL    HW293679   3.068   6.657   0.045
63928SOL     OW93680  13.938   8.056   1.456
63928SOL    HW193681  14.002   8.015   1.398
63928SOL    HW293682  13.859   8.002   1.448
63929SOL     OW93683   7.083   7.744  14.005
63929SOL    HW193684   7.019   7.777  14.069
63929SOL    HW293685   7.054   7.655  13.986
63930SOL     OW93686   0.786   6.446  11.338
63930SOL    HW193687   0.732   6.494  11.401
63930SOL    HW293688   0.731   6.436  11.261
63931SOL     OW93689   0.911  12.007   8.443
63931SOL    HW193690   0.938  12.099   8.447
63931SOL    HW293691   0.894  11.983   8.535
63932SOL     OW93692   0.026   7.944   7.001
63932SOL    HW193693   0.105   7.891   6.996
63932SOL    HW293694  14.835   7.883   6.980
63933SOL     OW93695   1.372   8.687   2.212
63933SOL    HW193696   1.410   8.730   2.288
63933SOL    HW293697   1.434   8.618   2.189
63934SOL     OW93698   7.814   2.759  13.207
63934SOL    HW193699   7.781   2.835  13.158
63934SOL    HW293700   7.755   2.751  13.282
63935SOL     OW93701  11.866  14.806  11.155
63935SOL    HW193702  11.853  14.830  11.246
63935SOL    HW293703  11.931  14.868  11.123
63936SOL     OW93704   0.246   6.822  13.505
63936SOL    HW193705   0.151   6.811  13.515
63936SOL    HW293706   0.276   6.738  13.470
63937SOL     OW93707  10.419   1.362   4.812
63937SOL    HW193708  10.464   1.365   4.728
63937SOL    HW293709  10.468   1.422   4.868
63938SOL     OW93710   6.087  12.482   4.585
63938SOL    HW193711   6.006  12.438   4.611
63938SOL    HW293712   6.099  12.458   4.493
63939SOL     OW93713  12.206   2.208  13.965
63939SOL    HW193714  12.135   2.166  14.015
63939SOL    HW293715  12.195   2.301  13.983
63940SOL     OW93716   1.944  11.506   2.377
63940SOL    HW193717   1.922  11.417   2.405
63940SOL    HW293718   2.033  11.498   2.343
63941SOL     OW93719   4.220   9.106   1.592
63941SOL    HW193720   4.179   9.115   1.506
63941SOL    HW293721   4.158   9.146   1.652
63942SOL     OW93722   1.993   2.848   9.135
63942SOL    HW193723   1.996   2.930   9.183
63942SOL    HW293724   1.905   2.815   9.149
63943SOL     OW93725  14.236   2.648   0.403
63943SOL    HW193726  14.323   2.609   0.403
63943SOL    HW293727  14.232   2.699   0.321
63944SOL     OW93728  10.635   9.478   4.043
63944SOL    HW193729  10.541   9.458   4.047
63944SOL    HW293730  10.638   9.573   4.028
63945SOL     OW93731   5.056   0.047  12.566
63945SOL    HW193732   5.133   0.002  12.599
63945SOL    HW293733   5.073   0.140  12.585
63946SOL     OW93734   1.629   5.527   2.350
63946SOL    HW193735   1.624   5.454   2.288
63946SOL    HW293736   1.720   5.529   2.378
63947SOL     OW93737  11.958   5.753   8.099
63947SOL    HW193738  11.983   5.800   8.020
63947SOL    HW293739  12.003   5.669   8.093
63948SOL     OW93740   6.129   6.510   9.263
63948SOL    HW193741   6.058   6.449   9.283
63948SOL    HW293742   6.164   6.535   9.349
63949SOL     OW93743   8.226   8.789   2.740
63949SOL    HW193744   8.241   8.874   2.782
63949SOL    HW293745   8.307   8.773   2.691
63950SOL     OW93746  14.283   6.622   1.153
63950SOL    HW193747  14.334   6.542   1.164
63950SOL    HW293748  14.348   6.690   1.134
63951SOL     OW93749  10.959  14.792   2.243
63951SOL    HW193750  11.026  14.807   2.309
63951SOL    HW293751  10.942  14.879   2.205
63952SOL     OW93752   7.017  11.130   1.061
63952SOL    HW193753   7.076  11.141   0.987
63952SOL    HW293754   6.933  11.167   1.031
63953SOL     OW93755   1.758  10.213   4.017
63953SOL    HW193756   1.788  10.125   3.995
63953SOL    HW293757   1.662  10.208   4.009
63954SOL     OW93758   5.288   6.710   4.906
63954SOL    HW193759   5.204   6.737   4.869
63954SOL    HW293760   5.281   6.730   4.999
63955SOL     OW93761  14.009  14.589   0.102
63955SOL    HW193762  14.014  14.626   0.014
63955SOL    HW293763  13.929  14.626   0.139
63956SOL     OW93764  11.965  10.836   3.999
63956SOL    HW193765  11.972  10.751   3.957
63956SOL    HW293766  11.885  10.874   3.964
63957SOL     OW93767   6.975  11.786   6.539
63957SOL    HW193768   6.927  11.751   6.464
63957SOL    HW293769   7.067  11.766   6.520
63958SOL     OW93770   8.313  13.523  14.399
63958SOL    HW193771   8.325  13.452  14.461
63958SOL    HW293772   8.223  13.513  14.368
63959SOL     OW93773  14.703   3.679   6.049
63959SOL    HW193774  14.711   3.696   6.143
63959SOL    HW293775  14.780   3.628   6.026
63960SOL     OW93776  12.678  14.561   0.235
63960SOL    HW193777  12.737  14.543   0.161
63960SOL    HW293778  12.732  14.544   0.312
63961SOL     OW93779   3.689  12.885  12.031
63961SOL    HW193780   3.600  12.869  12.000
63961SOL    HW293781   3.724  12.799  12.052
63962SOL     OW93782  12.468   6.037   5.338
63962SOL    HW193783  12.547   6.080   5.371
63962SOL    HW293784  12.496   5.948   5.317
63963SOL     OW93785   5.028  12.879   1.184
63963SOL    HW193786   5.064  12.838   1.262
63963SOL    HW293787   5.078  12.961   1.174
63964SOL     OW93788  13.546   0.641   1.705
63964SOL    HW193789  13.559   0.639   1.800
63964SOL    HW293790  13.601   0.570   1.672
63965SOL     OW93791  11.029   2.759   0.691
63965SOL    HW193792  11.017   2.668   0.720
63965SOL    HW293793  11.074   2.751   0.608
63966SOL     OW93794   7.976   4.141   8.663
63966SOL    HW193795   8.024   4.098   8.734
63966SOL    HW293796   7.894   4.170   8.704
63967SOL     OW93797   5.497  13.448   4.404
63967SOL    HW193798   5.501  13.354   4.388
63967SOL    HW293799   5.587  13.472   4.426
63968SOL     OW93800   4.068  11.844  14.293
63968SOL    HW193801   4.144  11.896  14.320
63968SOL    HW293802   3.999  11.869  14.354
63969SOL     OW93803   3.983  13.876  13.687
63969SOL    HW193804   4.070  13.904  13.714
63969SOL    HW293805   3.944  13.954  13.647
63970SOL     OW93806   2.858   8.568   4.686
63970SOL    HW193807   2.895   8.568   4.598
63970SOL    HW293808   2.798   8.642   4.687
63971SOL     OW93809   7.292   4.162   4.875
63971SOL    HW193810   7.294   4.073   4.910
63971SOL    HW293811   7.253   4.153   4.788
63972SOL     OW93812  12.687   8.487   3.291
63972SOL    HW193813  12.772   8.528   3.307
63972SOL    HW293814  12.683   8.414   3.353
63973SOL     OW93815   5.134   0.051   5.529
63973SOL    HW193816   5.090   0.056   5.613
63973SOL    HW293817   5.180  14.847   5.531
63974SOL     OW93818  12.135  11.120   6.302
63974SOL    HW193819  12.056  11.102   6.252
63974SOL    HW293820  12.184  11.182   6.248
63975SOL     OW93821   0.533   4.718  11.497
63975SOL    HW193822   0.620   4.689  11.524
63975SOL    HW293823   0.476   4.645  11.521
63976SOL     OW93824  14.681   0.005   6.003
63976SOL    HW193825  14.642  14.872   6.089
63976SOL    HW293826  14.607   0.012   5.943
63977SOL     OW93827   4.460   7.610   0.833
63977SOL    HW193828   4.369   7.609   0.805
63977SOL    HW293829   4.510   7.618   0.751
63978SOL     OW93830   3.099   6.645   7.848
63978SOL    HW193831   3.192   6.632   7.831
63978SOL    HW293832   3.069   6.561   7.883
63979SOL     OW93833   7.495   6.800   8.264
63979SOL    HW193834   7.455   6.713   8.269
63979SOL    HW293835   7.420   6.860   8.265
63980SOL     OW93836   4.320  10.172  11.279
63980SOL    HW193837   4.265  10.251  11.281
63980SOL    HW293838   4.356  10.171  11.190
63981SOL     OW93839   9.756   8.661   5.685
63981SOL    HW193840   9.725   8.735   5.737
63981SOL    HW293841   9.840   8.691   5.649
63982SOL     OW93842   4.063   8.647   2.363
63982SOL    HW193843   4.124   8.691   2.422
63982SOL    HW293844   4.080   8.685   2.277
63983SOL     OW93845   9.558  12.767  11.899
63983SOL    HW193846   9.645  12.791  11.870
63983SOL    HW293847   9.570  12.736  11.989
63984SOL     OW93848   3.247  12.980  10.100
63984SOL    HW193849   3.284  12.976  10.189
63984SOL    HW293850   3.295  13.051  10.057
63985SOL     OW93851   2.676   7.027   6.354
63985SOL    HW193852   2.761   7.059   6.382
63985SOL    HW293853   2.685   7.014   6.260
63986SOL     OW93854   7.389   2.662  14.270
63986SOL    HW193855   7.463   2.637  14.215
63986SOL    HW293856   7.341   2.581  14.285
63987SOL     OW93857   7.041  10.222   2.204
63987SOL    HW193858   7.131  10.191   2.212
63987SOL    HW293859   6.990  10.161   2.257
63988SOL     OW93860   1.208   1.751  11.275
63988SOL    HW193861   1.186   1.717  11.188
63988SOL    HW293862   1.281   1.697  11.304
63989SOL     OW93863   7.229   0.691   2.128
63989SOL    HW193864   7.280   0.761   2.088
63989SOL    HW293865   7.146   0.732   2.153
63990SOL     OW93866   8.048   2.894  13.113
63990SOL    HW193867   8.119   2.835  13.140
63990SOL    HW293868   7.968   2.845  13.128
63991SOL     OW93869   4.234   1.961  12.538
63991SOL    HW193870   4.328   1.948  12.533
63991SOL    HW293871   4.219   2.045  12.495
63992SOL     OW93872  14.146   4.550   1.864
63992SOL    HW193873  14.164   4.625   1.807
63992SOL    HW293874  14.224   4.495   1.858
63993SOL     OW93875   6.443   4.440   3.439
63993SOL    HW193876   6.379   4.486   3.494
63993SOL    HW293877   6.447   4.491   3.359
63994SOL     OW93878   2.335  11.324   4.282
63994SOL    HW193879   2.328  11.416   4.257
63994SOL    HW293880   2.378  11.281   4.208
63995SOL     OW93881  13.689   6.628  12.566
63995SOL    HW193882  13.731   6.712  12.550
63995SOL    HW293883  13.759   6.564  12.556
63996SOL     OW93884   7.051  14.000   6.611
63996SOL    HW193885   7.082  13.968   6.696
63996SOL    HW293886   6.966  14.041   6.630
63997SOL     OW93887  13.760   5.450   1.539
63997SOL    HW193888  13.769   5.545   1.530
63997SOL    HW293889  13.670   5.438   1.571
63998SOL     OW93890   2.703   1.247   6.116
63998SOL    HW193891   2.773   1.285   6.169
63998SOL    HW293892   2.710   1.291   6.031
63999SOL     OW93893   9.563   4.919   5.686
63999SOL    HW193894   9.547   4.868   5.607
63999SOL    HW293895   9.494   4.891   5.747
64000SOL     OW93896   2.605  14.722   7.400
64000SOL    HW193897   2.549  14.783   7.351
64000SOL    HW293898   2.551  14.644   7.410
64001SOL     OW93899  11.544  10.875  12.059
64001SOL    HW193900  11.620  10.819  12.072
64001SOL    HW293901  11.543  10.933  12.135
64002SOL     OW93902   4.317   9.079   3.989
64002SOL    HW193903   4.280   8.997   4.020
64002SOL    HW293904   4.403   9.083   4.029
64003SOL     OW93905   5.590   3.464   9.014
64003SOL    HW193906   5.578   3.448   8.920
64003SOL    HW293907   5.683   3.450   9.030
64004SOL     OW93908  13.503  10.722  11.539
64004SOL    HW193909  13.448  10.777  11.594
64004SOL    HW293910  13.491  10.633  11.572
64005SOL     OW93911   2.347   0.000   6.622
64005SOL    HW193912   2.434  14.840   6.625
64005SOL    HW293913   2.318  14.869   6.531
64006SOL     OW93914   0.360   1.619  12.153
64006SOL    HW193915   0.392   1.692  12.206
64006SOL    HW293916   0.343   1.657  12.067
64007SOL     OW93917   2.315   4.962   8.352
64007SOL    HW193918   2.301   4.982   8.445
64007SOL    HW293919   2.228   4.968   8.313
64008SOL     OW93920   9.744   5.457  13.888
64008SOL    HW193921   9.710   5.371  13.911
64008SOL    HW293922   9.692   5.485  13.813
64009SOL     OW93923  13.054  10.630  13.970
64009SOL    HW193924  13.115  10.640  14.044
64009SOL    HW293925  13.107  10.653  13.893
64010SOL     OW93926  14.821   0.628   9.577
64010SOL    HW193927  14.754   0.648   9.643
64010SOL    HW293928   0.019   0.672   9.608
64011SOL     OW93929   8.334   6.216  10.289
64011SOL    HW193930   8.317   6.196  10.198
64011SOL    HW293931   8.429   6.229  10.294
64012SOL     OW93932   1.582   3.450   2.360
64012SOL    HW193933   1.557   3.394   2.286
64012SOL    HW293934   1.561   3.396   2.437
64013SOL     OW93935  10.984  11.347   3.029
64013SOL    HW193936  11.051  11.315   3.090
64013SOL    HW293937  11.002  11.300   2.948
64014SOL     OW93938  11.634   8.440   6.171
64014SOL    HW193939  11.687   8.435   6.092
64014SOL    HW293940  11.618   8.534   6.183
64015SOL     OW93941   6.170   1.511   1.134
64015SOL    HW193942   6.130   1.525   1.048
64015SOL    HW293943   6.154   1.593   1.181
64016SOL     OW93944   3.269   0.571   4.535
64016SOL    HW193945   3.215   0.581   4.614
64016SOL    HW293946   3.340   0.513   4.562
64017SOL     OW93947  12.008   0.565  12.190
64017SOL    HW193948  12.085   0.568  12.247
64017SOL    HW293949  11.952   0.498  12.229
64018SOL     OW93950   2.550   3.696   7.910
64018SOL    HW193951   2.528   3.603   7.919
64018SOL    HW293952   2.573   3.706   7.817
64019SOL     OW93953   4.855   0.945  12.157
64019SOL    HW193954   4.925   0.919  12.217
64019SOL    HW293955   4.845   1.039  12.171
64020SOL     OW93956  14.209   3.615  11.265
64020SOL    HW193957  14.260   3.696  11.255
64020SOL    HW293958  14.144   3.636  11.332
64021SOL     OW93959  12.894  13.724   8.344
64021SOL    HW193960  12.933  13.739   8.430
64021SOL    HW293961  12.925  13.638   8.318
64022SOL     OW93962   8.993  12.075   5.668
64022SOL    HW193963   8.995  12.057   5.575
64022SOL    HW293964   9.069  12.131   5.684
64023SOL     OW93965   9.339  12.070   7.567
64023SOL    HW193966   9.430  12.064   7.538
64023SOL    HW293967   9.315  11.980   7.590
64024SOL     OW93968  13.168   6.439   9.642
64024SOL    HW193969  13.224   6.390   9.702
64024SOL    HW293970  13.154   6.380   9.568
64025SOL     OW93971   9.327   8.607   5.674
64025SOL    HW193972   9.292   8.570   5.755
64025SOL    HW293973   9.422   8.604   5.686
64026SOL     OW93974   9.893   6.031   4.979
64026SOL    HW193975   9.892   6.121   5.014
64026SOL    HW293976   9.803   6.000   4.991
64027SOL     OW93977   2.457  10.038   3.280
64027SOL    HW193978   2.481  10.117   3.328
64027SOL    HW293979   2.535   9.983   3.283
64028SOL     OW93980   4.006   5.573   2.708
64028SOL    HW193981   4.045   5.520   2.778
64028SOL    HW293982   4.071   5.640   2.689
64029SOL     OW93983   2.469   8.623   6.600
64029SOL    HW193984   2.403   8.613   6.668
64029SOL    HW293985   2.545   8.575   6.633
64030SOL     OW93986   3.738   5.540   3.135
64030SOL    HW193987   3.705   5.542   3.045
64030SOL    HW293988   3.804   5.610   3.137
64031SOL     OW93989   0.880  10.290   8.828
64031SOL    HW193990   0.956  10.281   8.886
64031SOL    HW293991   0.890  10.378   8.791
64032SOL     OW93992   2.218   3.895  10.916
64032SOL    HW193993   2.255   3.847  10.989
64032SOL    HW293994   2.123   3.885  10.926
64033SOL     OW93995   9.396   0.870   5.484
64033SOL    HW193996   9.428   0.781   5.495
64033SOL    HW293997   9.325   0.863   5.421
64034SOL     OW93998   8.344   3.971   9.216
64034SOL    HW193999   8.289   3.900   9.250
64034SOL    HW294000   8.315   3.982   9.125
64035SOL     OW94001   6.962   0.010  11.354
64035SOL    HW194002   6.872  14.873  11.380
64035SOL    HW294003   6.987  14.815  11.301
64036SOL     OW94004   1.136  10.280   4.556
64036SOL    HW194005   1.207  10.231   4.598
64036SOL    HW294006   1.168  10.297   4.467
64037SOL     OW94007  13.183  11.430  10.137
64037SOL    HW194008  13.142  11.516  10.146
64037SOL    HW294009  13.173  11.409  10.044
64038SOL     OW94010  14.858   4.139  12.037
64038SOL    HW194011  14.780   4.145  12.092
64038SOL    HW294012  14.834   4.077  11.968
64039SOL     OW94013  11.586  14.339  13.278
64039SOL    HW194014  11.497  14.306  13.290
64039SOL    HW294015  11.630  14.320  13.361
64040SOL     OW94016   9.714  13.118   2.168
64040SOL    HW194017   9.677  13.200   2.135
64040SOL    HW294018   9.674  13.050   2.115
64041SOL     OW94019  10.359  10.967   5.666
64041SOL    HW194020  10.416  10.957   5.590
64041SOL    HW294021  10.406  11.030   5.722
64042SOL     OW94022   1.378   0.819   8.418
64042SOL    HW194023   1.472   0.801   8.421
64042SOL    HW294024   1.337   0.732   8.420
64043SOL     OW94025   3.811   6.163   2.275
64043SOL    HW194026   3.832   6.256   2.287
64043SOL    HW294027   3.728   6.152   2.321
64044SOL     OW94028   7.682   4.128   2.483
64044SOL    HW194029   7.590   4.125   2.454
64044SOL    HW294030   7.732   4.143   2.402
64045SOL     OW94031   8.602   2.864   1.770
64045SOL    HW194032   8.644   2.900   1.848
64045SOL    HW294033   8.635   2.775   1.764
64046SOL     OW94034   8.635   6.286   9.905
64046SOL    HW194035   8.717   6.334   9.915
64046SOL    HW294036   8.592   6.295   9.990
64047SOL     OW94037  12.339  12.667   0.961
64047SOL    HW194038  12.372  12.670   0.871
64047SOL    HW294039  12.364  12.581   0.993
64048SOL     OW94040   0.538  10.709   1.418
64048SOL    HW194041   0.561  10.782   1.360
64048SOL    HW294042   0.499  10.644   1.361
64049SOL     OW94043  12.852  12.067   8.296
64049SOL    HW194044  12.936  12.024   8.277
64049SOL    HW294045  12.859  12.095   8.387
64050SOL     OW94046   9.550   4.782   3.896
64050SOL    HW194047   9.467   4.820   3.866
64050SOL    HW294048   9.542   4.689   3.875
64051SOL     OW94049   3.011  11.764  12.846
64051SOL    HW194050   2.994  11.699  12.778
64051SOL    HW294051   3.068  11.719  12.909
64052SOL     OW94052  11.866  12.058   3.918
64052SOL    HW194053  11.809  11.999   3.968
64052SOL    HW294054  11.930  12.000   3.878
64053SOL     OW94055   4.993   4.642   0.155
64053SOL    HW194056   4.984   4.692   0.236
64053SOL    HW294057   5.025   4.556   0.184
64054SOL     OW94058   0.992  12.609   3.308
64054SOL    HW194059   0.917  12.620   3.366
64054SOL    HW294060   0.956  12.621   3.220
64055SOL     OW94061  13.586   7.784  10.412
64055SOL    HW194062  13.579   7.809  10.504
64055SOL    HW294063  13.530   7.846  10.366
64056SOL     OW94064   6.475  11.998   0.536
64056SOL    HW194065   6.413  12.071   0.532
64056SOL    HW294066   6.429  11.925   0.495
64057SOL     OW94067  12.337   6.556  13.166
64057SOL    HW194068  12.290   6.612  13.104
64057SOL    HW294069  12.407   6.516  13.115
64058SOL     OW94070  11.101   7.636  12.658
64058SOL    HW194071  11.059   7.647  12.572
64058SOL    HW294072  11.192   7.616  12.637
64059SOL     OW94073   6.651   4.967  12.202
64059SOL    HW194074   6.694   4.948  12.285
64059SOL    HW294075   6.625   4.882  12.168
64060SOL     OW94076  10.184  10.719  13.540
64060SOL    HW194077  10.229  10.764  13.611
64060SOL    HW294078  10.098  10.698  13.575
64061SOL     OW94079   9.949   8.996  13.876
64061SOL    HW194080  10.025   8.984  13.820
64061SOL    HW294081   9.914   9.081  13.851
64062SOL     OW94082   7.897   5.805   4.404
64062SOL    HW194083   7.940   5.890   4.405
64062SOL    HW294084   7.969   5.742   4.394
64063SOL     OW94085   5.237   0.086   4.869
64063SOL    HW194086   5.270   0.080   4.779
64063SOL    HW294087   5.175   0.013   4.876
64064SOL     OW94088  14.236   3.874   0.393
64064SOL    HW194089  14.192   3.831   0.320
64064SOL    HW294090  14.179   3.948   0.415
64065SOL     OW94091   7.025  12.324   4.963
64065SOL    HW194092   6.937  12.358   4.976
64065SOL    HW294093   7.081  12.381   5.016
64066SOL     OW94094   4.419   0.187   5.894
64066SOL    HW194095   4.481   0.260   5.884
64066SOL    HW294096   4.436   0.131   5.818
64067SOL     OW94097  11.060  10.444   9.630
64067SOL    HW194098  11.150  10.432   9.599
64067SOL    HW294099  11.038  10.361   9.672
64068SOL     OW94100  13.461   8.521   4.962
64068SOL    HW194101  13.503   8.524   5.048
64068SOL    HW294102  13.376   8.481   4.978
64069SOL     OW94103  11.886   2.708  11.177
64069SOL    HW194104  11.861   2.746  11.261
64069SOL    HW294105  11.975   2.677  11.189
64070SOL     OW94106   5.371   2.399   0.719
64070SOL    HW194107   5.428   2.357   0.655
64070SOL    HW294108   5.296   2.340   0.727
64071SOL     OW94109   5.940  12.616   8.380
64071SOL    HW194110   5.860  12.656   8.413
64071SOL    HW294111   5.964  12.670   8.305
64072SOL     OW94112   9.871   2.216   2.863
64072SOL    HW194113   9.923   2.165   2.924
64072SOL    HW294114   9.894   2.181   2.777
64073SOL     OW94115   0.218   7.173   9.197
64073SOL    HW194116   0.269   7.093   9.186
64073SOL    HW294117   0.170   7.160   9.279
64074SOL     OW94118   9.643  10.002  11.141
64074SOL    HW194119   9.678   9.917  11.115
64074SOL    HW294120   9.570  10.017  11.080
64075SOL     OW94121   0.129  12.511   2.066
64075SOL    HW194122   0.060  12.576   2.053
64075SOL    HW294123   0.161  12.526   2.155
64076SOL     OW94124   9.578   9.184   6.510
64076SOL    HW194125   9.574   9.223   6.597
64076SOL    HW294126   9.604   9.256   6.453
64077SOL     OW94127   2.241   2.424  14.830
64077SOL    HW194128   2.296   2.476  14.772
64077SOL    HW294129   2.241   2.473   0.033
64078SOL     OW94130  14.662   0.683   0.722
64078SOL    HW194131  14.632   0.735   0.647
64078SOL    HW294132  14.613   0.601   0.716
64079SOL     OW94133   3.527   0.073   1.254
64079SOL    HW194134   3.499   0.036   1.170
64079SOL    HW294135   3.615   0.038   1.267
64080SOL     OW94136   3.906   2.863   7.098
64080SOL    HW194137   3.919   2.942   7.046
64080SOL    HW294138   3.965   2.872   7.172
64081SOL     OW94139  12.445   6.292  10.395
64081SOL    HW194140  12.384   6.360  10.424
64081SOL    HW294141  12.488   6.263  10.475
64082SOL     OW94142   7.475  14.486   5.557
64082SOL    HW194143   7.483  14.552   5.488
64082SOL    HW294144   7.452  14.536   5.635
64083SOL     OW94145  14.263   4.754  10.817
64083SOL    HW194146  14.240   4.697  10.744
64083SOL    HW294147  14.348   4.720  10.848
64084SOL     OW94148   8.009   4.556   9.749
64084SOL    HW194149   7.982   4.618   9.816
64084SOL    HW294150   8.083   4.598   9.706
64085SOL     OW94151   4.223   2.416   4.152
64085SOL    HW194152   4.274   2.495   4.139
64085SOL    HW294153   4.183   2.426   4.239
64086SOL     OW94154  12.012  14.521   2.177
64086SOL    HW194155  12.091  14.572   2.195
64086SOL    HW294156  12.006  14.460   2.251
64087SOL     OW94157  11.202   7.109   8.002
64087SOL    HW194158  11.124   7.058   8.023
64087SOL    HW294159  11.227   7.080   7.914
64088SOL     OW94160   8.740   7.437  14.821
64088SOL    HW194161   8.713   7.431   0.032
64088SOL    HW294162   8.670   7.485  14.778
64089SOL     OW94163  14.529   2.931  13.092
64089SOL    HW194164  14.486   3.011  13.060
64089SOL    HW294165  14.540   2.877  13.014
64090SOL     OW94166   1.598  12.048  12.815
64090SOL    HW194167   1.525  11.994  12.845
64090SOL    HW294168   1.580  12.066  12.723
64091SOL     OW94169  12.707  12.005   8.986
64091SOL    HW194170  12.705  12.095   9.019
64091SOL    HW294171  12.726  12.014   8.892
64092SOL     OW94172   4.915  12.583   7.754
64092SOL    HW194173   4.870  12.667   7.741
64092SOL    HW294174   4.845  12.522   7.778
64093SOL     OW94175  13.708  12.728   5.894
64093SOL    HW194176  13.703  12.765   5.806
64093SOL    HW294177  13.702  12.634   5.881
64094SOL     OW94178   7.095  13.772   4.591
64094SOL    HW194179   7.079  13.861   4.623
64094SOL    HW294180   7.093  13.717   4.670
64095SOL     OW94181   3.852   4.000  14.031
64095SOL    HW194182   3.907   4.017  14.108
64095SOL    HW294183   3.772   4.049  14.047
64096SOL     OW94184  10.096   0.748   0.157
64096SOL    HW194185  10.149   0.725   0.233
64096SOL    HW294186  10.006   0.730   0.184
64097SOL     OW94187   6.316   8.986   5.523
64097SOL    HW194188   6.247   8.922   5.509
64097SOL    HW294189   6.396   8.933   5.531
64098SOL     OW94190  10.865   7.359  11.153
64098SOL    HW194191  10.819   7.334  11.233
64098SOL    HW294192  10.802   7.342  11.083
64099SOL     OW94193   0.157   2.735  11.812
64099SOL    HW194194   0.061   2.735  11.818
64099SOL    HW294195   0.181   2.644  11.831
64100SOL     OW94196   1.437  10.751   0.769
64100SOL    HW194197   1.427  10.841   0.800
64100SOL    HW294198   1.531  10.733   0.779
64101SOL     OW94199   0.189   0.341  11.599
64101SOL    HW194200   0.192   0.260  11.548
64101SOL    HW294201   0.206   0.313  11.689
64102SOL     OW94202  10.497  10.358   7.287
64102SOL    HW194203  10.471  10.434   7.340
64102SOL    HW294204  10.588  10.343   7.311
64103SOL     OW94205  10.988   9.196  13.477
64103SOL    HW194206  10.971   9.237  13.392
64103SOL    HW294207  10.903   9.163  13.506
64104SOL     OW94208   7.547   0.402   9.978
64104SOL    HW194209   7.614   0.334   9.961
64104SOL    HW294210   7.597   0.483   9.985
64105SOL     OW94211   0.965   1.021   9.005
64105SOL    HW194212   0.978   0.935   9.044
64105SOL    HW294213   0.904   1.066   9.063
64106SOL     OW94214   7.029   7.772   0.408
64106SOL    HW194215   7.108   7.718   0.402
64106SOL    HW294216   7.056   7.850   0.456
64107SOL     OW94217  10.626   6.702   3.798
64107SOL    HW194218  10.608   6.791   3.770
64107SOL    HW294219  10.654   6.711   3.890
64108SOL     OW94220  10.798   0.046  12.641
64108SOL    HW194221  10.771   0.130  12.605
64108SOL    HW294222  10.863   0.068  12.708
64109SOL     OW94223   8.689   1.046   0.583
64109SOL    HW194224   8.715   0.981   0.648
64109SOL    HW294225   8.593   1.047   0.588
64110SOL     OW94226   6.953  12.778   7.699
64110SOL    HW194227   6.858  12.774   7.702
64110SOL    HW294228   6.981  12.754   7.787
64111SOL     OW94229  11.961  12.246   5.992
64111SOL    HW194230  11.977  12.224   5.900
64111SOL    HW294231  12.018  12.187   6.041
64112SOL     OW94232   7.118   1.364   4.923
64112SOL    HW194233   7.134   1.290   4.983
64112SOL    HW294234   7.197   1.417   4.929
64113SOL     OW94235   5.854   7.633   7.689
64113SOL    HW194236   5.867   7.555   7.744
64113SOL    HW294237   5.871   7.603   7.600
64114SOL     OW94238   0.796   5.005   5.254
64114SOL    HW194239   0.708   5.034   5.229
64114SOL    HW294240   0.846   5.086   5.266
64115SOL     OW94241   9.487  10.504   6.843
64115SOL    HW194242   9.392  10.505   6.855
64115SOL    HW294243   9.501  10.554   6.763
64116SOL     OW94244   0.056   1.795   0.224
64116SOL    HW194245   0.108   1.763   0.150
64116SOL    HW294246  14.875   1.725   0.242
64117SOL     OW94247   6.899   2.163   7.963
64117SOL    HW194248   6.909   2.235   8.026
64117SOL    HW294249   6.804   2.156   7.950
64118SOL     OW94250   8.020   0.680  11.451
64118SOL    HW194251   8.097   0.716  11.406
64118SOL    HW294252   7.958   0.660  11.382
64119SOL     OW94253   9.409   0.468   6.506
64119SOL    HW194254   9.435   0.450   6.416
64119SOL    HW294255   9.336   0.530   6.498
64120SOL     OW94256  14.310   7.367   0.989
64120SOL    HW194257  14.270   7.362   1.076
64120SOL    HW294258  14.353   7.283   0.977
64121SOL     OW94259  10.525   2.263   8.156
64121SOL    HW194260  10.584   2.319   8.104
64121SOL    HW294261  10.477   2.212   8.091
64122SOL     OW94262   3.950   3.806  14.635
64122SOL    HW194263   3.865   3.845  14.654
64122SOL    HW294264   3.948   3.722  14.682
64123SOL     OW94265   1.217   0.681  13.874
64123SOL    HW194266   1.311   0.677  13.891
64123SOL    HW294267   1.180   0.719  13.954
64124SOL     OW94268   4.037  12.223  11.253
64124SOL    HW194269   4.023  12.300  11.197
64124SOL    HW294270   4.036  12.258  11.342
64125SOL     OW94271  10.693   2.822   7.556
64125SOL    HW194272  10.635   2.768   7.502
64125SOL    HW294273  10.765   2.846   7.498
64126SOL     OW94274   4.889   9.062   7.425
64126SOL    HW194275   4.983   9.077   7.436
64126SOL    HW294276   4.851   9.149   7.419
64127SOL     OW94277  10.153   9.857  13.211
64127SOL    HW194278  10.192   9.770  13.203
64127SOL    HW294279  10.210   9.904  13.271
64128SOL     OW94280  11.468   0.902   2.121
64128SOL    HW194281  11.497   0.993   2.111
64128SOL    HW294282  11.392   0.895   2.063
64129SOL     OW94283   5.593  10.775   4.595
64129SOL    HW194284   5.687  10.768   4.612
64129SOL    HW294285   5.565  10.685   4.578
64130SOL     OW94286  14.212   4.275   1.592
64130SOL    HW194287  14.140   4.282   1.655
64130SOL    HW294288  14.206   4.355   1.539
64131SOL     OW94289   3.904   7.453   0.297
64131SOL    HW194290   3.850   7.513   0.350
64131SOL    HW294291   3.982   7.437   0.351
64132SOL     OW94292   8.966   8.414   9.713
64132SOL    HW194293   8.880   8.438   9.678
64132SOL    HW294294   8.961   8.437   9.806
64133SOL     OW94295   7.027  10.827  10.990
64133SOL    HW194296   6.945  10.850  10.945
64133SOL    HW294297   7.060  10.751  10.942
64134SOL     OW94298   0.281  13.529   0.313
64134SOL    HW194299   0.356  13.586   0.329
64134SOL    HW294300   0.310  13.442   0.343
64135SOL     OW94301   6.509   2.959   0.227
64135SOL    HW194302   6.431   3.013   0.240
64135SOL    HW294303   6.537   2.936   0.315
64136SOL     OW94304  10.338  12.579  11.426
64136SOL    HW194305  10.386  12.539  11.354
64136SOL    HW294306  10.255  12.532  11.428
64137SOL     OW94307  11.390  13.363  12.166
64137SOL    HW194308  11.400  13.280  12.211
64137SOL    HW294309  11.310  13.401  12.203
64138SOL     OW94310   8.302  14.246  13.626
64138SOL    HW194311   8.238  14.313  13.603
64138SOL    HW294312   8.383  14.276  13.585
64139SOL     OW94313   2.193  13.839   4.770
64139SOL    HW194314   2.201  13.838   4.674
64139SOL    HW294315   2.114  13.788   4.788
64140SOL     OW94316   1.873  11.714   8.965
64140SOL    HW194317   1.924  11.680   8.892
64140SOL    HW294318   1.809  11.772   8.925
64141SOL     OW94319  10.583   8.286   9.528
64141SOL    HW194320  10.521   8.357   9.544
64141SOL    HW294321  10.530   8.218   9.486
64142SOL     OW94322  10.162   4.927   4.262
64142SOL    HW194323  10.101   4.886   4.201
64142SOL    HW294324  10.236   4.867   4.265
64143SOL     OW94325  13.794  11.944  11.701
64143SOL    HW194326  13.814  11.852  11.690
64143SOL    HW294327  13.801  11.960  11.795
64144SOL     OW94328   8.401  14.674   1.672
64144SOL    HW194329   8.391  14.768   1.682
64144SOL    HW294330   8.463  14.649   1.740
64145SOL     OW94331   9.497   0.766  11.487
64145SOL    HW194332   9.414   0.773  11.440
64145SOL    HW294333   9.486   0.689  11.543
64146SOL     OW94334   3.029  13.627   1.642
64146SOL    HW194335   3.104  13.613   1.584
64146SOL    HW294336   2.968  13.557   1.618
64147SOL     OW94337   7.831   4.937   4.072
64147SOL    HW194338   7.920   4.939   4.036
64147SOL    HW294339   7.778   4.899   4.002
64148SOL     OW94340  10.340   9.730   9.569
64148SOL    HW194341  10.362   9.805   9.514
64148SOL    HW294342  10.317   9.661   9.508
64149SOL     OW94343  11.841   7.308   4.367
64149SOL    HW194344  11.925   7.314   4.321
64149SOL    HW294345  11.847   7.374   4.436
64150SOL     OW94346   4.780   7.230   5.211
64150SOL    HW194347   4.831   7.181   5.275
64150SOL    HW294348   4.844   7.284   5.165
64151SOL     OW94349   1.586  13.813   4.394
64151SOL    HW194350   1.651  13.876   4.425
64151SOL    HW294351   1.521  13.866   4.348
64152SOL     OW94352   2.868  14.314   1.571
64152SOL    HW194353   2.786  14.283   1.533
64152SOL    HW294354   2.847  14.401   1.604
64153SOL     OW94355   4.082   0.974  10.030
64153SOL    HW194356   4.165   0.976   9.983
64153SOL    HW294357   4.105   0.991  10.121
64154SOL     OW94358   6.198   0.714  11.346
64154SOL    HW194359   6.270   0.749  11.294
64154SOL    HW294360   6.171   0.635  11.298
64155SOL     OW94361   5.487   7.632  10.497
64155SOL    HW194362   5.501   7.549  10.544
64155SOL    HW294363   5.433   7.608  10.422
64156SOL     OW94364  13.971   1.802   5.285
64156SOL    HW194365  14.020   1.876   5.250
64156SOL    HW294366  13.944   1.753   5.208
64157SOL     OW94367   3.473  11.627  10.165
64157SOL    HW194368   3.441  11.710  10.129
64157SOL    HW294369   3.562  11.619  10.130
64158SOL     OW94370   0.015   0.841   8.842
64158SOL    HW194371   0.105   0.853   8.871
64158SOL    HW294372   0.023   0.797   8.757
64159SOL     OW94373   3.212   6.876   1.065
64159SOL    HW194374   3.268   6.815   1.016
64159SOL    HW294375   3.123   6.853   1.039
64160SOL     OW94376   3.906   3.965  13.648
64160SOL    HW194377   3.868   4.052  13.641
64160SOL    HW294378   3.996   3.980  13.676
64161SOL     OW94379  10.093   7.760   5.725
64161SOL    HW194380  10.000   7.745   5.715
64161SOL    HW294381  10.112   7.833   5.666
64162SOL     OW94382   5.547   5.765   7.347
64162SOL    HW194383   5.627   5.728   7.383
64162SOL    HW294384   5.503   5.692   7.303
64163SOL     OW94385  11.304   5.709   3.626
64163SOL    HW194386  11.298   5.614   3.638
64163SOL    HW294387  11.320   5.721   3.533
64164SOL     OW94388   6.053   3.399  13.817
64164SOL    HW194389   6.133   3.450  13.826
64164SOL    HW294390   6.029   3.376  13.906
64165SOL     OW94391  12.685  10.498   9.522
64165SOL    HW194392  12.647  10.412   9.539
64165SOL    HW294393  12.620  10.561   9.553
64166SOL     OW94394  12.498   6.637   7.641
64166SOL    HW194395  12.437   6.592   7.583
64166SOL    HW294396  12.443   6.696   7.692
64167SOL     OW94397   6.397  11.074  12.387
64167SOL    HW194398   6.340  11.138  12.345
64167SOL    HW294399   6.482  11.087  12.347
64168SOL     OW94400  10.600   3.718   5.303
64168SOL    HW194401  10.562   3.805   5.291
64168SOL    HW294402  10.655   3.727   5.381
64169SOL     OW94403  12.030   2.255   8.951
64169SOL    HW194404  12.069   2.235   9.036
64169SOL    HW294405  11.942   2.216   8.955
64170SOL     OW94406   9.476   6.224   7.252
64170SOL    HW194407   9.547   6.180   7.299
64170SOL    HW294408   9.470   6.310   7.293
64171SOL     OW94409   8.413  12.290  14.445
64171SOL    HW194410   8.381  12.353  14.381
64171SOL    HW294411   8.437  12.343  14.521
64172SOL     OW94412   1.240  11.001  12.244
64172SOL    HW194413   1.276  10.920  12.282
64172SOL    HW294414   1.158  10.974  12.204
64173SOL     OW94415   8.736   7.915  14.437
64173SOL    HW194416   8.791   7.967  14.379
64173SOL    HW294417   8.663   7.887  14.382
64174SOL     OW94418  12.153   0.369   2.018
64174SOL    HW194419  12.155   0.461   1.990
64174SOL    HW294420  12.211   0.325   1.956
64175SOL     OW94421   1.649   2.604   3.148
64175SOL    HW194422   1.604   2.688   3.158
64175SOL    HW294423   1.623   2.554   3.225
64176SOL     OW94424   9.451   3.937   6.108
64176SOL    HW194425   9.494   3.980   6.034
64176SOL    HW294426   9.520   3.884   6.149
64177SOL     OW94427  10.818  10.416  10.689
64177SOL    HW194428  10.865  10.336  10.712
64177SOL    HW294429  10.732  10.405  10.729
64178SOL     OW94430   1.605   6.117   3.347
64178SOL    HW194431   1.632   6.064   3.272
64178SOL    HW294432   1.548   6.060   3.398
64179SOL     OW94433   3.444  14.709  10.425
64179SOL    HW194434   3.529  14.692  10.384
64179SOL    HW294435   3.390  14.745  10.355
64180SOL     OW94436   9.986   0.139  11.908
64180SOL    HW194437  10.053   0.162  11.973
64180SOL    HW294438   9.907   0.186  11.938
64181SOL     OW94439  10.542  11.416  13.808
64181SOL    HW194440  10.478  11.450  13.745
64181SOL    HW294441  10.496  11.415  13.892
64182SOL     OW94442   8.494   9.661   3.886
64182SOL    HW194443   8.530   9.592   3.942
64182SOL    HW294444   8.404   9.633   3.869
64183SOL     OW94445  13.304  13.715   4.083
64183SOL    HW194446  13.292  13.765   4.002
64183SOL    HW294447  13.376  13.759   4.128
64184SOL     OW94448   3.078   4.453   9.063
64184SOL    HW194449   3.029   4.372   9.064
64184SOL    HW294450   3.012   4.522   9.057
64185SOL     OW94451  11.828   9.493   8.422
64185SOL    HW194452  11.837   9.402   8.449
64185SOL    HW294453  11.918   9.524   8.410
64186SOL     OW94454  10.453   7.155  14.192
64186SOL    HW194455  10.452   7.060  14.207
64186SOL    HW294456  10.372   7.172  14.143
64187SOL     OW94457  11.608   4.059   8.840
64187SOL    HW194458  11.529   4.112   8.852
64187SOL    HW294459  11.660   4.076   8.919
64188SOL     OW94460   6.332   2.104  14.874
64188SOL    HW194461   6.350   2.192  14.839
64188SOL    HW294462   6.310   2.120   0.086
64189SOL     OW94463  12.783   3.770   3.328
64189SOL    HW194464  12.717   3.837   3.314
64189SOL    HW294465  12.842   3.779   3.253
64190SOL     OW94466   0.367   3.900   9.359
64190SOL    HW194467   0.418   3.972   9.397
64190SOL    HW294468   0.289   3.893   9.414
64191SOL     OW94469   2.737   2.958   4.459
64191SOL    HW194470   2.693   3.014   4.394
64191SOL    HW294471   2.691   2.874   4.454
64192SOL     OW94472  10.597   5.957   4.682
64192SOL    HW194473  10.563   5.972   4.594
64192SOL    HW294474  10.558   5.873   4.709
64193SOL     OW94475   9.084   2.537   2.952
64193SOL    HW194476   9.154   2.524   3.015
64193SOL    HW294477   9.106   2.619   2.908
64194SOL     OW94478   3.533   2.348   5.490
64194SOL    HW194479   3.592   2.408   5.535
64194SOL    HW294480   3.447   2.364   5.528
64195SOL     OW94481   0.349   6.063  10.609
64195SOL    HW194482   0.311   6.093  10.526
64195SOL    HW294483   0.334   5.968  10.608
64196SOL     OW94484  14.538   5.699   5.978
64196SOL    HW194485  14.459   5.749   5.999
64196SOL    HW294486  14.546   5.705   5.883
64197SOL     OW94487   9.915  13.675   5.413
64197SOL    HW194488   9.973  13.693   5.339
64197SOL    HW294489   9.869  13.595   5.388
64198SOL     OW94490   9.563   0.204  12.906
64198SOL    HW194491   9.490   0.263  12.920
64198SOL    HW294492   9.634   0.261  12.875
64199SOL     OW94493   2.092   8.373  11.736
64199SOL    HW194494   2.134   8.290  11.715
64199SOL    HW294495   2.154   8.439  11.709
64200SOL     OW94496   2.411  12.512  12.573
64200SOL    HW194497   2.359  12.485  12.648
64200SOL    HW294498   2.453  12.593  12.601
64201SOL     OW94499   4.621   6.733  12.859
64201SOL    HW194500   4.552   6.686  12.906
64201SOL    HW294501   4.648   6.673  12.790
64202SOL     OW94502   1.731  12.357   6.749
64202SOL    HW194503   1.697  12.302   6.679
64202SOL    HW294504   1.664  12.423   6.764
64203SOL     OW94505   8.444  13.638  12.926
64203SOL    HW194506   8.443  13.591  13.009
64203SOL    HW294507   8.465  13.572  12.861
64204SOL     OW94508  13.181   4.935   9.121
64204SOL    HW194509  13.179   4.855   9.175
64204SOL    HW294510  13.094   4.939   9.081
64205SOL     OW94511   2.075   0.841   4.879
64205SOL    HW194512   2.090   0.934   4.864
64205SOL    HW294513   2.135   0.818   4.950
64206SOL     OW94514  12.424   7.897   5.491
64206SOL    HW194515  12.349   7.893   5.432
64206SOL    HW294516  12.500   7.895   5.434
64207SOL     OW94517  14.015   9.370   7.747
64207SOL    HW194518  13.946   9.432   7.773
64207SOL    HW294519  14.013   9.303   7.816
64208SOL     OW94520   8.010   3.915   3.618
64208SOL    HW194521   7.990   3.821   3.619
64208SOL    HW294522   7.965   3.948   3.540
64209SOL     OW94523  12.134   9.058   9.689
64209SOL    HW194524  12.125   8.991   9.757
64209SOL    HW294525  12.217   9.037   9.646
64210SOL     OW94526   2.892   7.892  12.368
64210SOL    HW194527   2.894   7.813  12.313
64210SOL    HW294528   2.799   7.908  12.381
64211SOL     OW94529   7.333   1.080  14.530
64211SOL    HW194530   7.283   1.040  14.602
64211SOL    HW294531   7.269   1.089  14.459
64212SOL     OW94532   4.093   1.507   3.937
64212SOL    HW194533   4.152   1.530   3.865
64212SOL    HW294534   4.151   1.489   4.011
64213SOL     OW94535   7.855   9.039   8.002
64213SOL    HW194536   7.936   9.058   7.956
64213SOL    HW294537   7.789   9.029   7.933
64214SOL     OW94538  12.938  13.551   4.336
64214SOL    HW194539  12.973  13.607   4.267
64214SOL    HW294540  12.944  13.462   4.301
64215SOL     OW94541   8.758  13.720   8.003
64215SOL    HW194542   8.695  13.790   8.019
64215SOL    HW294543   8.734  13.652   8.067
64216SOL     OW94544   3.366  13.399  13.125
64216SOL    HW194545   3.382  13.305  13.125
64216SOL    HW294546   3.416  13.432  13.200
64217SOL     OW94547   5.178  13.408  12.377
64217SOL    HW194548   5.176  13.359  12.459
64217SOL    HW294549   5.148  13.496  12.402
64218SOL     OW94550   6.889   7.708   6.868
64218SOL    HW194551   6.859   7.618   6.852
64218SOL    HW294552   6.955   7.724   6.800
64219SOL     OW94553   9.922   1.166   5.801
64219SOL    HW194554   9.870   1.241   5.831
64219SOL    HW294555   9.931   1.110   5.878
64220SOL     OW94556  11.773  12.325   6.910
64220SOL    HW194557  11.713  12.305   6.839
64220SOL    HW294558  11.852  12.357   6.867
64221SOL     OW94559   7.154   0.164   0.239
64221SOL    HW194560   7.221   0.196   0.180
64221SOL    HW294561   7.181   0.195   0.326
64222SOL     OW94562  13.090   7.854   5.421
64222SOL    HW194563  12.999   7.861   5.449
64222SOL    HW294564  13.135   7.924   5.468
64223SOL     OW94565   7.701  13.772   6.356
64223SOL    HW194566   7.665  13.860   6.373
64223SOL    HW294567   7.628  13.713   6.376
64224SOL     OW94568   0.874   6.575   0.805
64224SOL    HW194569   0.912   6.541   0.724
64224SOL    HW294570   0.834   6.658   0.780
64225SOL     OW94571  11.996  12.679   1.936
64225SOL    HW194572  12.069  12.619   1.923
64225SOL    HW294573  11.956  12.688   1.849
64226SOL     OW94574   5.966  11.702   5.678
64226SOL    HW194575   5.907  11.772   5.707
64226SOL    HW294576   5.910  11.640   5.633
64227SOL     OW94577  12.070   3.950  11.381
64227SOL    HW194578  12.106   3.880  11.436
64227SOL    HW294579  12.146   3.988  11.338
64228SOL     OW94580  11.466   4.900  14.749
64228SOL    HW194581  11.431   4.980  14.710
64228SOL    HW294582  11.560   4.915  14.755
64229SOL     OW94583   7.109   8.625   0.276
64229SOL    HW194584   7.101   8.541   0.321
64229SOL    HW294585   7.155   8.604   0.194
64230SOL     OW94586   7.753  13.704   3.614
64230SOL    HW194587   7.817  13.772   3.592
64230SOL    HW294588   7.668  13.745   3.599
64231SOL     OW94589   3.297   7.447   1.515
64231SOL    HW194590   3.266   7.411   1.598
64231SOL    HW294591   3.253   7.394   1.449
64232SOL     OW94592   9.570   3.148   8.991
64232SOL    HW194593   9.620   3.117   9.066
64232SOL    HW294594   9.529   3.229   9.020
64233SOL     OW94595   3.480  11.825   9.780
64233SOL    HW194596   3.534  11.885   9.831
64233SOL    HW294597   3.422  11.784   9.844
64234SOL     OW94598  11.290   3.295   9.888
64234SOL    HW194599  11.361   3.245   9.847
64234SOL    HW294600  11.332   3.339   9.962
64235SOL     OW94601  10.649  12.672   4.726
64235SOL    HW194602  10.658  12.585   4.685
64235SOL    HW294603  10.555  12.682   4.739
64236SOL     OW94604   6.130   6.111  12.309
64236SOL    HW194605   6.210   6.058  12.309
64236SOL    HW294606   6.068   6.060  12.362
64237SOL     OW94607   0.825  10.727   1.477
64237SOL    HW194608   0.857  10.651   1.526
64237SOL    HW294609   0.730  10.722   1.485
64238SOL     OW94610   0.609  11.688   5.008
64238SOL    HW194611   0.636  11.621   4.945
64238SOL    HW294612   0.658  11.667   5.088
64239SOL     OW94613  12.488   5.239   1.622
64239SOL    HW194614  12.538   5.193   1.690
64239SOL    HW294615  12.527   5.326   1.618
64240SOL     OW94616  11.056   0.288   7.405
64240SOL    HW194617  11.016   0.372   7.431
64240SOL    HW294618  11.144   0.312   7.375
64241SOL     OW94619  10.162   0.637  11.382
64241SOL    HW194620  10.113   0.706  11.337
64241SOL    HW294621  10.117   0.557  11.358
64242SOL     OW94622   0.719   5.482   4.387
64242SOL    HW194623   0.700   5.531   4.467
64242SOL    HW294624   0.664   5.523   4.321
64243SOL     OW94625   4.622   0.391   5.939
64243SOL    HW194626   4.689   0.456   5.920
64243SOL    HW294627   4.554   0.440   5.986
64244SOL     OW94628   9.002   0.883   2.560
64244SOL    HW194629   8.913   0.917   2.560
64244SOL    HW294630   9.058   0.958   2.540
64245SOL     OW94631   6.390   7.475  12.560
64245SOL    HW194632   6.472   7.425  12.557
64245SOL    HW294633   6.348   7.447  12.642
64246SOL     OW94634  10.386   7.170   7.823
64246SOL    HW194635  10.304   7.137   7.786
64246SOL    HW294636  10.370   7.174   7.917
64247SOL     OW94637   5.126  11.119   3.697
64247SOL    HW194638   5.202  11.061   3.705
64247SOL    HW294639   5.062  11.067   3.648
64248SOL     OW94640   3.153   3.954   0.373
64248SOL    HW194641   3.120   3.880   0.321
64248SOL    HW294642   3.143   3.926   0.464
64249SOL     OW94643  11.606   9.855   5.790
64249SOL    HW194644  11.697   9.859   5.760
64249SOL    HW294645  11.581   9.764   5.780
64250SOL     OW94646   7.732  14.815  11.946
64250SOL    HW194647   7.735  14.853  11.859
64250SOL    HW294648   7.638  14.807  11.966
64251SOL     OW94649   3.797   9.986  13.708
64251SOL    HW194650   3.888  10.016  13.718
64251SOL    HW294651   3.746  10.067  13.702
64252SOL     OW94652  10.820   5.817  10.888
64252SOL    HW194653  10.734   5.805  10.846
64252SOL    HW294654  10.880   5.832  10.815
64253SOL     OW94655   4.703   5.666   2.129
64253SOL    HW194656   4.739   5.752   2.153
64253SOL    HW294657   4.777   5.606   2.139
64254SOL     OW94658  13.668   2.426  11.321
64254SOL    HW194659  13.752   2.456  11.357
64254SOL    HW294660  13.689   2.347  11.271
64255SOL     OW94661   6.182   8.201   4.052
64255SOL    HW194662   6.122   8.177   3.981
64255SOL    HW294663   6.230   8.277   4.018
64256SOL     OW94664  12.398   2.578   2.997
64256SOL    HW194665  12.466   2.591   3.064
64256SOL    HW294666  12.405   2.655   2.941
64257SOL     OW94667   6.127   5.468   1.305
64257SOL    HW194668   6.039   5.431   1.309
64257SOL    HW294669   6.123   5.533   1.235
64258SOL     OW94670  13.751  14.427  13.913
64258SOL    HW194671  13.665  14.389  13.929
64258SOL    HW294672  13.796  14.364  13.857
64259SOL     OW94673  12.607   4.145   1.470
64259SOL    HW194674  12.513   4.139   1.490
64259SOL    HW294675  12.611   4.167   1.377
64260SOL     OW94676   0.402   0.202  12.297
64260SOL    HW194677   0.482   0.241  12.332
64260SOL    HW294678   0.385   0.249  12.216
64261SOL     OW94679   0.354   4.210   1.866
64261SOL    HW194680   0.327   4.295   1.900
64261SOL    HW294681   0.307   4.147   1.920
64262SOL     OW94682   9.652   0.033  10.688
64262SOL    HW194683   9.733  14.877  10.724
64262SOL    HW294684   9.680   0.083  10.612
64263SOL     OW94685   3.645   7.434  12.043
64263SOL    HW194686   3.678   7.517  12.080
64263SOL    HW294687   3.553   7.451  12.026
64264SOL     OW94688   4.748   5.613   9.162
64264SOL    HW194689   4.738   5.563   9.080
64264SOL    HW294690   4.686   5.685   9.154
64265SOL     OW94691  11.563   1.489   3.581
64265SOL    HW194692  11.544   1.545   3.656
64265SOL    HW294693  11.623   1.541   3.527
64266SOL     OW94694   7.730   0.072  11.686
64266SOL    HW194695   7.663   0.030  11.632
64266SOL    HW294696   7.711   0.166  11.678
64267SOL     OW94697   7.474   7.547  13.364
64267SOL    HW194698   7.560   7.504  13.358
64267SOL    HW294699   7.415   7.477  13.393
64268SOL     OW94700  12.939   8.242   3.769
64268SOL    HW194701  12.899   8.328   3.782
64268SOL    HW294702  13.017   8.243   3.824
64269SOL     OW94703   4.012   7.464   8.138
64269SOL    HW194704   3.924   7.465   8.175
64269SOL    HW294705   4.063   7.410   8.199
64270SOL     OW94706   3.637   9.772   9.652
64270SOL    HW194707   3.610   9.864   9.653
64270SOL    HW294708   3.712   9.770   9.593
64271SOL     OW94709  14.013  12.468   5.997
64271SOL    HW194710  13.968  12.532   5.941
64271SOL    HW294711  14.036  12.397   5.937
64272SOL     OW94712   8.541   5.552   0.886
64272SOL    HW194713   8.628   5.511   0.887
64272SOL    HW294714   8.530   5.582   0.795
64273SOL     OW94715   6.875   8.296   7.917
64273SOL    HW194716   6.926   8.325   7.993
64273SOL    HW294717   6.824   8.222   7.950
64274SOL     OW94718   6.241   5.744   2.409
64274SOL    HW194719   6.220   5.788   2.492
64274SOL    HW294720   6.162   5.693   2.389
64275SOL     OW94721   2.066   6.592   0.655
64275SOL    HW194722   2.007   6.664   0.679
64275SOL    HW294723   2.128   6.587   0.728
64276SOL     OW94724   6.697   1.237  10.098
64276SOL    HW194725   6.603   1.240  10.081
64276SOL    HW294726   6.736   1.224  10.011
64277SOL     OW94727   2.916   9.585   4.273
64277SOL    HW194728   2.900   9.610   4.364
64277SOL    HW294729   3.007   9.609   4.256
64278SOL     OW94730   7.311  10.207   6.963
64278SOL    HW194731   7.246  10.222   6.894
64278SOL    HW294732   7.293  10.118   6.994
64279SOL     OW94733  11.340  13.987   8.479
64279SOL    HW194734  11.388  14.049   8.533
64279SOL    HW294735  11.295  14.041   8.414
64280SOL     OW94736   3.961   9.678   1.464
64280SOL    HW194737   3.970   9.767   1.429
64280SOL    HW294738   3.890   9.684   1.527
64281SOL     OW94739   1.840   8.208  12.894
64281SOL    HW194740   1.811   8.247  12.812
64281SOL    HW294741   1.920   8.161  12.871
64282SOL     OW94742   4.436   5.902   7.105
64282SOL    HW194743   4.509   5.907   7.044
64282SOL    HW294744   4.385   5.981   7.088
64283SOL     OW94745   7.264   3.826  10.829
64283SOL    HW194746   7.336   3.817  10.893
64283SOL    HW294747   7.264   3.919  10.806
64284SOL     OW94748   3.587   1.323  10.922
64284SOL    HW194749   3.572   1.234  10.893
64284SOL    HW294750   3.512   1.343  10.979
64285SOL     OW94751  13.371  13.457  10.399
64285SOL    HW194752  13.292  13.407  10.421
64285SOL    HW294753  13.368  13.532  10.458
64286SOL     OW94754   7.635   9.228   8.060
64286SOL    HW194755   7.657   9.291   7.992
64286SOL    HW294756   7.716   9.179   8.074
64287SOL     OW94757   6.967   7.807  14.566
64287SOL    HW194758   7.062   7.820  14.568
64287SOL    HW294759   6.947   7.763  14.648
64288SOL     OW94760   1.619  10.209   4.625
64288SOL    HW194761   1.576  10.139   4.674
64288SOL    HW294762   1.581  10.204   4.537
64289SOL     OW94763   6.365  13.317  12.852
64289SOL    HW194764   6.452  13.284  12.872
64289SOL    HW294765   6.307  13.270  12.912
64290SOL     OW94766   0.320   5.920   4.433
64290SOL    HW194767   0.357   5.833   4.447
64290SOL    HW294768   0.238   5.904   4.387
64291SOL     OW94769  11.427   0.012   8.761
64291SOL    HW194770  11.489   0.035   8.831
64291SOL    HW294771  11.479   0.018   8.680
64292SOL     OW94772   0.418   0.233   3.607
64292SOL    HW194773   0.353   0.189   3.553
64292SOL    HW294774   0.477   0.276   3.545
64293SOL     OW94775   9.828   8.838  11.163
64293SOL    HW194776   9.775   8.771  11.208
64293SOL    HW294777   9.789   8.843  11.076
64294SOL     OW94778  12.337   1.704  12.374
64294SOL    HW194779  12.358   1.703  12.467
64294SOL    HW294780  12.422   1.705  12.330
64295SOL     OW94781   5.090   1.439   1.078
64295SOL    HW194782   5.007   1.404   1.111
64295SOL    HW294783   5.156   1.402   1.137
64296SOL     OW94784   7.401   1.455   1.665
64296SOL    HW194785   7.457   1.400   1.720
64296SOL    HW294786   7.462   1.513   1.619
64297SOL     OW94787  14.784  10.794   1.053
64297SOL    HW194788  14.852  10.727   1.055
64297SOL    HW294789  14.725  10.767   0.983
64298SOL     OW94790  14.386  13.436   1.027
64298SOL    HW194791  14.313  13.376   1.011
64298SOL    HW294792  14.461  13.396   0.984
64299SOL     OW94793   2.503   2.034  12.339
64299SOL    HW194794   2.518   1.963  12.276
64299SOL    HW294795   2.412   2.022  12.367
64300SOL     OW94796  10.259   7.178  12.775
64300SOL    HW194797  10.193   7.247  12.779
64300SOL    HW294798  10.342   7.224  12.767
64301SOL     OW94799   7.111   4.680  13.063
64301SOL    HW194800   7.179   4.703  13.127
64301SOL    HW294801   7.146   4.604  13.017
64302SOL     OW94802   8.180   0.116   5.011
64302SOL    HW194803   8.243   0.162   5.066
64302SOL    HW294804   8.095   0.155   5.034
64303SOL     OW94805   1.947   0.536  10.412
64303SOL    HW194806   1.926   0.443  10.413
64303SOL    HW294807   1.982   0.552  10.324
64304SOL     OW94808   6.266  10.912   2.546
64304SOL    HW194809   6.196  10.958   2.593
64304SOL    HW294810   6.224  10.833   2.512
64305SOL     OW94811  12.454   1.838  14.533
64305SOL    HW194812  12.380   1.836  14.595
64305SOL    HW294813  12.530   1.819  14.587
64306SOL     OW94814   9.552   6.094  12.590
64306SOL    HW194815   9.478   6.042  12.558
64306SOL    HW294816   9.516   6.182  12.600
64307SOL     OW94817   6.493  11.512   2.894
64307SOL    HW194818   6.584  11.529   2.920
64307SOL    HW294819   6.443  11.519   2.976
64308SOL     OW94820   6.121  13.321   1.529
64308SOL    HW194821   6.164  13.403   1.504
64308SOL    HW294822   6.043  13.349   1.576
64309SOL     OW94823   8.574   0.326   3.653
64309SOL    HW194824   8.542   0.236   3.647
64309SOL    HW294825   8.662   0.318   3.689
64310SOL     OW94826   9.153   4.380  14.427
64310SOL    HW194827   9.196   4.314  14.481
64310SOL    HW294828   9.127   4.448  14.488
64311SOL     OW94829   1.594   0.109  12.299
64311SOL    HW194830   1.563   0.148  12.381
64311SOL    HW294831   1.570   0.016  12.306
64312SOL     OW94832   4.934   3.845   1.320
64312SOL    HW194833   4.860   3.902   1.302
64312SOL    HW294834   4.907   3.793   1.396
64313SOL     OW94835  13.981   5.565   0.372
64313SOL    HW194836  14.054   5.539   0.428
64313SOL    HW294837  13.997   5.658   0.353
64314SOL     OW94838   9.063  13.356  10.233
64314SOL    HW194839   9.083  13.382  10.143
64314SOL    HW294840   9.146  13.322  10.267
64315SOL     OW94841   1.760  13.750  14.210
64315SOL    HW194842   1.668  13.749  14.234
64315SOL    HW294843   1.798  13.677  14.260
64316SOL     OW94844  13.328  10.209   6.172
64316SOL    HW194845  13.422  10.217   6.159
64316SOL    HW294846  13.294  10.297   6.154
64317SOL     OW94847   4.928   3.981   6.708
64317SOL    HW194848   4.910   3.991   6.801
64317SOL    HW294849   4.960   4.067   6.680
64318SOL     OW94850   1.377  14.673  10.647
64318SOL    HW194851   1.314  14.661  10.717
64318SOL    HW294852   1.423  14.590  10.641
64319SOL     OW94853   7.837  11.992  13.732
64319SOL    HW194854   7.900  12.064  13.727
64319SOL    HW294855   7.891  11.913  13.735
64320SOL     OW94856  11.073   8.327   1.864
64320SOL    HW194857  11.027   8.253   1.902
64320SOL    HW294858  11.112   8.292   1.783
64321SOL     OW94859  14.695   0.808   8.124
64321SOL    HW194860  14.693   0.878   8.188
64321SOL    HW294861  14.723   0.850   8.042
64322SOL     OW94862   9.443  12.244   2.113
64322SOL    HW194863   9.411  12.278   2.029
64322SOL    HW294864   9.537  12.233   2.100
64323SOL     OW94865  14.629   8.574   9.560
64323SOL    HW194866  14.716   8.595   9.596
64323SOL    HW294867  14.577   8.549   9.637
64324SOL     OW94868   0.683  13.207  10.534
64324SOL    HW194869   0.773  13.233  10.511
64324SOL    HW294870   0.695  13.137  10.598
64325SOL     OW94871   4.032   4.602  10.511
64325SOL    HW194872   4.020   4.538  10.441
64325SOL    HW294873   4.032   4.687  10.467
64326SOL     OW94874   9.765   9.549   5.601
64326SOL    HW194875   9.712   9.572   5.525
64326SOL    HW294876   9.835   9.614   5.601
64327SOL     OW94877   5.986  14.832   9.416
64327SOL    HW194878   6.035  14.872   9.344
64327SOL    HW294879   5.990  14.738   9.399
64328SOL     OW94880  13.244   7.237   4.629
64328SOL    HW194881  13.244   7.332   4.622
64328SOL    HW294882  13.185   7.218   4.702
64329SOL     OW94883  13.903  12.734   4.127
64329SOL    HW194884  13.885  12.820   4.165
64329SOL    HW294885  13.819  12.687   4.133
64330SOL     OW94886  12.258   3.023   0.603
64330SOL    HW194887  12.327   3.006   0.668
64330SOL    HW294888  12.198   3.083   0.647
64331SOL     OW94889   4.763   9.952   4.676
64331SOL    HW194890   4.849   9.983   4.648
64331SOL    HW294891   4.726  10.026   4.726
64332SOL     OW94892   0.213  14.331   9.025
64332SOL    HW194893   0.173  14.325   8.939
64332SOL    HW294894   0.305  14.310   9.010
64333SOL     OW94895   1.374   9.073  11.133
64333SOL    HW194896   1.352   9.039  11.047
64333SOL    HW294897   1.432   9.147  11.117
64334SOL     OW94898  11.018   4.441  10.027
64334SOL    HW194899  11.098   4.486  10.001
64334SOL    HW294900  11.032   4.350  10.002
64335SOL     OW94901  13.424   8.200   5.045
64335SOL    HW194902  13.379   8.279   5.015
64335SOL    HW294903  13.403   8.193   5.138
64336SOL     OW94904   0.159  10.284   3.032
64336SOL    HW194905   0.065  10.279   3.016
64336SOL    HW294906   0.171  10.247   3.120
64337SOL     OW94907   1.290   5.468   4.251
64337SOL    HW194908   1.200   5.454   4.278
64337SOL    HW294909   1.339   5.475   4.333
64338SOL     OW94910   9.804  12.189  10.687
64338SOL    HW194911   9.838  12.172  10.599
64338SOL    HW294912   9.817  12.283  10.700
64339SOL     OW94913  10.609   3.532   3.616
64339SOL    HW194914  10.653   3.561   3.696
64339SOL    HW294915  10.516   3.554   3.630
64340SOL     OW94916   7.954   4.423  11.645
64340SOL    HW194917   7.864   4.420  11.610
64340SOL    HW294918   7.979   4.331  11.653
64341SOL     OW94919  11.914   6.754   7.922
64341SOL    HW194920  11.853   6.759   7.996
64341SOL    HW294921  11.993   6.799   7.953
64342SOL     OW94922   0.940  12.411   4.707
64342SOL    HW194923   0.936  12.383   4.615
64342SOL    HW294924   0.966  12.332   4.755
64343SOL     OW94925   0.526  12.016   9.405
64343SOL    HW194926   0.463  12.005   9.476
64343SOL    HW294927   0.553  11.926   9.383
64344SOL     OW94928   1.974  13.681   8.756
64344SOL    HW194929   2.052  13.630   8.777
64344SOL    HW294930   1.955  13.659   8.664
64345SOL     OW94931   4.580   9.518  14.214
64345SOL    HW194932   4.494   9.475  14.210
64345SOL    HW294933   4.640   9.448  14.241
64346SOL     OW94934   1.330  12.183   0.516
64346SOL    HW194935   1.277  12.104   0.506
64346SOL    HW294936   1.418  12.150   0.534
64347SOL     OW94937  13.186   0.071  11.806
64347SOL    HW194938  13.209  14.860  11.823
64347SOL    HW294939  13.185   0.077  11.710
64348SOL     OW94940   5.076   7.948  10.419
64348SOL    HW194941   5.152   7.893  10.437
64348SOL    HW294942   5.018   7.892  10.367
64349SOL     OW94943   2.776   5.213   4.542
64349SOL    HW194944   2.700   5.154   4.547
64349SOL    HW294945   2.851   5.155   4.553
64350SOL     OW94946   2.058   9.877  10.060
64350SOL    HW194947   2.083   9.938   9.990
64350SOL    HW294948   2.127   9.812  10.062
64351SOL     OW94949   5.143   5.394   5.074
64351SOL    HW194950   5.070   5.335   5.091
64351SOL    HW294951   5.209   5.339   5.033
64352SOL     OW94952  12.937   0.720   6.349
64352SOL    HW194953  12.855   0.739   6.395
64352SOL    HW294954  12.989   0.669   6.411
64353SOL     OW94955   6.217  10.013  14.180
64353SOL    HW194956   6.292  10.033  14.124
64353SOL    HW294957   6.189  10.098  14.215
64354SOL     OW94958   1.537  11.805   2.959
64354SOL    HW194959   1.498  11.890   2.979
64354SOL    HW294960   1.533  11.757   3.041
64355SOL     OW94961   9.357   2.494  11.863
64355SOL    HW194962   9.270   2.456  11.850
64355SOL    HW294963   9.405   2.428  11.913
64356SOL     OW94964  12.739   7.835  14.079
64356SOL    HW194965  12.676   7.837  14.008
64356SOL    HW294966  12.782   7.921  14.076
64357SOL     OW94967   1.646   8.739   9.431
64357SOL    HW194968   1.635   8.675   9.502
64357SOL    HW294969   1.728   8.715   9.389
64358SOL     OW94970  12.022  11.297   0.475
64358SOL    HW194971  12.091  11.308   0.410
64358SOL    HW294972  12.051  11.222   0.527
64359SOL     OW94973   3.376   5.607   3.128
64359SOL    HW194974   3.389   5.667   3.055
64359SOL    HW294975   3.317   5.653   3.187
64360SOL     OW94976   3.306   0.902   3.229
64360SOL    HW194977   3.271   0.887   3.317
64360SOL    HW294978   3.239   0.869   3.170
64361SOL     OW94979   6.219   6.547   2.029
64361SOL    HW194980   6.175   6.604   1.966
64361SOL    HW294981   6.222   6.598   2.110
64362SOL     OW94982   2.311   8.483  13.941
64362SOL    HW194983   2.302   8.525  13.856
64362SOL    HW294984   2.379   8.416  13.928
64363SOL     OW94985  10.281   4.536   3.827
64363SOL    HW194986  10.275   4.452   3.872
64363SOL    HW294987  10.355   4.580   3.869
64364SOL     OW94988   6.774  12.514  11.022
64364SOL    HW194989   6.791  12.565  10.943
64364SOL    HW294990   6.859  12.479  11.048
64365SOL     OW94991  14.160  10.999   7.474
64365SOL    HW194992  14.248  10.963   7.462
64365SOL    HW294993  14.174  11.083   7.518
64366SOL     OW94994  10.560  13.935   3.220
64366SOL    HW194995  10.599  13.858   3.179
64366SOL    HW294996  10.628  13.969   3.278
64367SOL     OW94997   5.638   2.196   0.149
64367SOL    HW194998   5.669   2.151   0.070
64367SOL    HW294999   5.707   2.258   0.171
64368SOL     OW95000   7.796  11.487   0.424
64368SOL    HW195001   7.799  11.405   0.374
64368SOL    HW295002   7.839  11.466   0.507
64369SOL     OW95003  11.695   1.753  12.481
64369SOL    HW195004  11.737   1.785  12.401
64369SOL    HW295005  11.655   1.831  12.520
64370SOL     OW95006   5.274   2.382   3.712
64370SOL    HW195007   5.274   2.475   3.733
64370SOL    HW295008   5.362   2.351   3.734
64371SOL     OW95009  12.679   4.883   6.904
64371SOL    HW195010  12.709   4.798   6.870
64371SOL    HW295011  12.760   4.929   6.928
64372SOL     OW95012   4.311   2.662   5.270
64372SOL    HW195013   4.402   2.641   5.293
64372SOL    HW295014   4.275   2.578   5.240
64373SOL     OW95015   7.439   1.328  13.522
64373SOL    HW195016   7.474   1.247  13.560
64373SOL    HW295017   7.393   1.299  13.443
64374SOL     OW95018   9.973   8.855  10.535
64374SOL    HW195019   9.888   8.875  10.573
64374SOL    HW295020  10.036   8.894  10.595
64375SOL     OW95021  12.945   9.113  13.324
64375SOL    HW195022  13.004   9.075  13.389
64375SOL    HW295023  12.858   9.084  13.351
64376SOL     OW95024   5.801   4.248  11.638
64376SOL    HW195025   5.749   4.231  11.717
64376SOL    HW295026   5.880   4.195  11.649
64377SOL     OW95027  14.865   4.509   1.736
64377SOL    HW195028  14.849   4.597   1.768
64377SOL    HW295029   0.046   4.521   1.663
64378SOL     OW95030  12.396   1.698   6.972
64378SOL    HW195031  12.325   1.663   7.026
64378SOL    HW295032  12.399   1.791   6.994
64379SOL     OW95033   1.109   2.152   6.176
64379SOL    HW195034   1.154   2.230   6.143
64379SOL    HW295035   1.031   2.145   6.121
64380SOL     OW95036  11.396   4.598  10.966
64380SOL    HW195037  11.471   4.573  10.912
64380SOL    HW295038  11.395   4.533  11.037
64381SOL     OW95039   9.991   8.783   6.569
64381SOL    HW195040  10.036   8.838   6.633
64381SOL    HW295041  10.060   8.757   6.507
64382SOL     OW95042  13.224   7.308  12.322
64382SOL    HW195043  13.152   7.255  12.288
64382SOL    HW295044  13.295   7.296  12.259
64383SOL     OW95045  13.588   3.892  10.881
64383SOL    HW195046  13.651   3.834  10.838
64383SOL    HW295047  13.634   3.923  10.960
64384SOL     OW95048   8.942   7.395   2.180
64384SOL    HW195049   8.963   7.396   2.273
64384SOL    HW295050   8.889   7.316   2.168
64385SOL     OW95051   4.387   9.945   8.611
64385SOL    HW195052   4.477   9.913   8.608
64385SOL    HW295053   4.394  10.039   8.595
64386SOL     OW95054  14.048   9.691   5.176
64386SOL    HW195055  14.136   9.712   5.144
64386SOL    HW295056  14.061   9.614   5.231
64387SOL     OW95057   6.739   4.017  12.257
64387SOL    HW195058   6.674   3.994  12.324
64387SOL    HW295059   6.775   3.933  12.229
64388SOL     OW95060   1.140   8.143  14.284
64388SOL    HW195061   1.169   8.204  14.216
64388SOL    HW295062   1.097   8.198  14.350
64389SOL     OW95063  14.818   9.738  13.334
64389SOL    HW195064  14.741   9.685  13.313
64389SOL    HW295065  14.797   9.825  13.301
64390SOL     OW95066   8.443  13.617   5.111
64390SOL    HW195067   8.380  13.572   5.166
64390SOL    HW295068   8.526  13.610   5.158
64391SOL     OW95069  10.099  14.742  14.186
64391SOL    HW195070  10.132  14.652  14.194
64391SOL    HW295071  10.153  14.782  14.118
64392SOL     OW95072   2.313   0.653   8.051
64392SOL    HW195073   2.259   0.694   7.984
64392SOL    HW295074   2.316   0.561   8.027
64393SOL     OW95075   5.070  12.606   7.510
64393SOL    HW195076   5.030  12.565   7.587
64393SOL    HW295077   5.050  12.699   7.519
64394SOL     OW95078   9.962   9.874   4.213
64394SOL    HW195079   9.938   9.908   4.127
64394SOL    HW295080   9.886   9.892   4.268
64395SOL     OW95081   1.732  11.055  11.788
64395SOL    HW195082   1.677  11.024  11.716
64395SOL    HW295083   1.721  11.150  11.787
64396SOL     OW95084   1.545   7.854   2.735
64396SOL    HW195085   1.459   7.884   2.763
64396SOL    HW295086   1.597   7.852   2.815
64397SOL     OW95087   0.347   4.396   5.894
64397SOL    HW195088   0.399   4.319   5.871
64397SOL    HW295089   0.385   4.427   5.976
64398SOL     OW95090   7.665   5.453   7.087
64398SOL    HW195091   7.643   5.546   7.097
64398SOL    HW295092   7.712   5.431   7.168
64399SOL     OW95093   5.965   9.271  10.585
64399SOL    HW195094   5.871   9.287  10.579
64399SOL    HW295095   6.005   9.358  10.576
64400SOL     OW95096   5.698   7.399  10.947
64400SOL    HW195097   5.792   7.405  10.962
64400SOL    HW295098   5.663   7.359  11.027
64401SOL     OW95099   8.644   0.141   7.234
64401SOL    HW195100   8.626   0.209   7.298
64401SOL    HW295101   8.641   0.186   7.150
64402SOL     OW95102  10.714   1.324   1.391
64402SOL    HW195103  10.729   1.362   1.305
64402SOL    HW295104  10.801   1.293   1.419
64403SOL     OW95105   1.383   0.968   8.192
64403SOL    HW195106   1.378   0.918   8.274
64403SOL    HW295107   1.472   0.954   8.161
64404SOL     OW95108   3.151  11.394   7.851
64404SOL    HW195109   3.232  11.347   7.831
64404SOL    HW295110   3.174  11.486   7.838
64405SOL     OW95111   5.572   6.027   7.924
64405SOL    HW195112   5.498   6.083   7.900
64405SOL    HW295113   5.559   6.009   8.017
64406SOL     OW95114   9.893   1.919   8.776
64406SOL    HW195115   9.897   2.005   8.819
64406SOL    HW295116   9.944   1.931   8.696
64407SOL     OW95117   8.816   1.288  12.362
64407SOL    HW195118   8.849   1.374  12.336
64407SOL    HW295119   8.753   1.265  12.294
64408SOL     OW95120   9.995  10.652   9.115
64408SOL    HW195121   9.950  10.708   9.052
64408SOL    HW295122   9.941  10.657   9.194
64409SOL     OW95123   3.752  10.995  12.758
64409SOL    HW195124   3.739  10.904  12.781
64409SOL    HW295125   3.756  11.042  12.841
64410SOL     OW95126   9.583   7.646  10.410
64410SOL    HW195127   9.578   7.645  10.314
64410SOL    HW295128   9.524   7.576  10.438
64411SOL     OW95129   6.230  14.377   9.596
64411SOL    HW195130   6.258  14.288   9.615
64411SOL    HW295131   6.270  14.397   9.511
64412SOL     OW95132   4.601   6.586   2.685
64412SOL    HW195133   4.593   6.656   2.620
64412SOL    HW295134   4.645   6.627   2.759
64413SOL     OW95135   9.046  12.426   7.070
64413SOL    HW195136   8.966  12.397   7.026
64413SOL    HW295137   9.115  12.371   7.033
64414SOL     OW95138   6.781  14.298  10.723
64414SOL    HW195139   6.735  14.379  10.745
64414SOL    HW295140   6.713  14.240  10.687
64415SOL     OW95141  12.452   4.232  13.917
64415SOL    HW195142  12.374   4.180  13.900
64415SOL    HW295143  12.496   4.187  13.989
64416SOL     OW95144  14.713  13.770   4.680
64416SOL    HW195145  14.666  13.694   4.715
64416SOL    HW295146  14.805  13.750   4.697
64417SOL     OW95147   0.182   4.860   1.648
64417SOL    HW195148   0.158   4.771   1.675
64417SOL    HW295149   0.209   4.903   1.729
64418SOL     OW95150   5.151   6.613   4.441
64418SOL    HW195151   5.173   6.691   4.390
64418SOL    HW295152   5.059   6.625   4.465
64419SOL     OW95153   4.070  11.492   3.404
64419SOL    HW195154   4.010  11.507   3.478
64419SOL    HW295155   4.133  11.429   3.438
64420SOL     OW95156   2.055  10.411   5.470
64420SOL    HW195157   2.072  10.324   5.506
64420SOL    HW295158   2.133  10.431   5.419
64421SOL     OW95159  13.653  12.743   5.142
64421SOL    HW195160  13.676  12.729   5.234
64421SOL    HW295161  13.720  12.803   5.109
64422SOL     OW95162   3.886   0.321   8.356
64422SOL    HW195163   3.887   0.416   8.352
64422SOL    HW295164   3.949   0.298   8.424
64423SOL     OW95165   7.405   1.366  11.128
64423SOL    HW195166   7.388   1.358  11.035
64423SOL    HW295167   7.461   1.291  11.149
64424SOL     OW95168  10.874   5.214   9.453
64424SOL    HW195169  10.848   5.261   9.374
64424SOL    HW295170  10.841   5.125   9.439
64425SOL     OW95171  14.472   5.686   9.024
64425SOL    HW195172  14.433   5.750   9.083
64425SOL    HW295173  14.469   5.727   8.938
64426SOL     OW95174   2.511   3.882   9.575
64426SOL    HW195175   2.558   3.851   9.653
64426SOL    HW295176   2.511   3.977   9.584
64427SOL     OW95177   5.718   1.324   0.132
64427SOL    HW195178   5.673   1.249   0.172
64427SOL    HW295179   5.795   1.285   0.090
64428SOL     OW95180  10.690  11.062   5.726
64428SOL    HW195181  10.760  11.073   5.790
64428SOL    HW295182  10.673  10.968   5.725
64429SOL     OW95183  11.087   6.380   8.686
64429SOL    HW195184  11.046   6.359   8.602
64429SOL    HW295185  11.108   6.294   8.724
64430SOL     OW95186   6.158  12.057  14.029
64430SOL    HW195187   6.228  12.040  13.966
64430SOL    HW295188   6.152  12.153  14.032
64431SOL     OW95189  11.038  10.898   2.587
64431SOL    HW195190  11.001  10.986   2.579
64431SOL    HW295191  11.130  10.909   2.562
64432SOL     OW95192   7.564   9.553   9.620
64432SOL    HW195193   7.558   9.559   9.525
64432SOL    HW295194   7.584   9.460   9.636
64433SOL     OW95195   7.782   3.571  10.259
64433SOL    HW195196   7.814   3.567  10.350
64433SOL    HW295197   7.819   3.493  10.218
64434SOL     OW95198  11.228   5.038   1.692
64434SOL    HW195199  11.281   5.115   1.710
64434SOL    HW295200  11.164   5.068   1.628
64435SOL     OW95201   3.575  11.186   6.877
64435SOL    HW195202   3.660  11.231   6.869
64435SOL    HW295203   3.592  11.116   6.940
64436SOL     OW95204   9.510   2.653   8.524
64436SOL    HW195205   9.591   2.662   8.573
64436SOL    HW295206   9.511   2.563   8.491
64437SOL     OW95207  13.788  11.950   5.670
64437SOL    HW195208  13.830  11.875   5.628
64437SOL    HW295209  13.764  12.008   5.598
64438SOL     OW95210   1.223  10.138   2.388
64438SOL    HW195211   1.181  10.112   2.470
64438SOL    HW295212   1.239  10.232   2.398
64439SOL     OW95213  12.149   3.796   6.605
64439SOL    HW195214  12.086   3.854   6.647
64439SOL    HW295215  12.100   3.754   6.533
64440SOL     OW95216  13.496   8.089  14.267
64440SOL    HW195217  13.400   8.086  14.266
64440SOL    HW295218  13.519   8.123  14.181
64441SOL     OW95219  11.741   5.717   0.646
64441SOL    HW195220  11.767   5.628   0.668
64441SOL    HW295221  11.822   5.768   0.653
64442SOL     OW95222   2.895  12.025   5.075
64442SOL    HW195223   2.861  11.998   4.989
64442SOL    HW295224   2.982  12.060   5.056
64443SOL     OW95225  12.758   6.004   6.901
64443SOL    HW195226  12.801   6.089   6.909
64443SOL    HW295227  12.788   5.970   6.816
64444SOL     OW95228   4.115  14.011   9.473
64444SOL    HW195229   4.062  14.025   9.394
64444SOL    HW295230   4.105  13.918   9.491
64445SOL     OW95231   2.719   6.178   5.550
64445SOL    HW195232   2.689   6.087   5.548
64445SOL    HW295233   2.798   6.178   5.495
64446SOL     OW95234   0.455   5.150  11.101
64446SOL    HW195235   0.412   5.106  11.175
64446SOL    HW295236   0.386   5.200  11.059
64447SOL     OW95237  11.998   9.122   6.967
64447SOL    HW195238  12.076   9.170   6.938
64447SOL    HW295239  11.967   9.171   7.043
64448SOL     OW95240   7.139  14.166   0.984
64448SOL    HW195241   7.112  14.075   0.998
64448SOL    HW295242   7.234  14.165   1.000
64449SOL     OW95243   2.332  11.704  12.312
64449SOL    HW195244   2.261  11.642  12.299
64449SOL    HW295245   2.396  11.656  12.366
64450SOL     OW95246   8.842   2.656   1.100
64450SOL    HW195247   8.889   2.581   1.135
64450SOL    HW295248   8.768   2.618   1.052
64451SOL     OW95249  12.535  10.958  13.019
64451SOL    HW195250  12.511  11.033  13.073
64451SOL    HW295251  12.554  10.888  13.081
64452SOL     OW95252   4.942   1.383   5.381
64452SOL    HW195253   5.006   1.324   5.342
64452SOL    HW295254   4.928   1.349   5.469
64453SOL     OW95255   8.741   3.019   3.403
64453SOL    HW195256   8.759   3.101   3.450
64453SOL    HW295257   8.647   3.006   3.412
64454SOL     OW95258  12.469   9.618   6.443
64454SOL    HW195259  12.385   9.574   6.456
64454SOL    HW295260  12.489   9.658   6.527
64455SOL     OW95261   2.945  11.688   0.735
64455SOL    HW195262   2.913  11.614   0.683
64455SOL    HW295263   2.968  11.755   0.670
64456SOL     OW95264   4.315  14.096   7.948
64456SOL    HW195265   4.298  14.006   7.923
64456SOL    HW295266   4.322  14.143   7.865
64457SOL     OW95267   0.540  13.239   9.016
64457SOL    HW195268   0.475  13.267   9.081
64457SOL    HW295269   0.497  13.169   8.967
64458SOL     OW95270  13.553   0.766  12.914
64458SOL    HW195271  13.585   0.718  12.838
64458SOL    HW295272  13.633   0.788  12.963
64459SOL     OW95273  10.483  14.732   3.891
64459SOL    HW195274  10.516  14.802   3.835
64459SOL    HW295275  10.388  14.741   3.887
64460SOL     OW95276   7.855   6.875   3.848
64460SOL    HW195277   7.835   6.814   3.919
64460SOL    HW295278   7.918   6.936   3.886
64461SOL     OW95279   1.781   7.679   2.111
64461SOL    HW195280   1.870   7.714   2.104
64461SOL    HW295281   1.732   7.727   2.044
64462SOL     OW95282  10.852  12.404   1.226
64462SOL    HW195283  10.819  12.375   1.141
64462SOL    HW295284  10.821  12.494   1.234
64463SOL     OW95285   3.574   1.998   5.079
64463SOL    HW195286   3.574   2.089   5.109
64463SOL    HW295287   3.656   1.962   5.113
64464SOL     OW95288   9.613   3.054   3.492
64464SOL    HW195289   9.567   3.031   3.411
64464SOL    HW295290   9.608   3.149   3.496
64465SOL     OW95291  12.038   9.410  13.596
64465SOL    HW195292  12.078   9.444  13.517
64465SOL    HW295293  12.103   9.424  13.665
64466SOL     OW95294  12.727   8.995   4.486
64466SOL    HW195295  12.699   9.045   4.410
64466SOL    HW295296  12.751   9.060   4.551
64467SOL     OW95297  10.073  10.252   3.411
64467SOL    HW195298  10.141  10.215   3.466
64467SOL    HW295299  10.093  10.222   3.322
64468SOL     OW95300  13.850  13.603   4.884
64468SOL    HW195301  13.900  13.682   4.865
64468SOL    HW295302  13.901  13.558   4.951
64469SOL     OW95303   4.430  13.627  10.396
64469SOL    HW195304   4.418  13.715  10.430
64469SOL    HW295305   4.488  13.584  10.459
64470SOL     OW95306   3.336   7.191   0.296
64470SOL    HW195307   3.323   7.255   0.367
64470SOL    HW295308   3.252   7.145   0.291
64471SOL     OW95309   0.061  12.267   1.978
64471SOL    HW195310   0.133  12.204   1.985
64471SOL    HW295311   0.104  12.352   1.992
64472SOL     OW95312   6.573   3.899   6.081
64472SOL    HW195313   6.496   3.888   6.026
64472SOL    HW295314   6.613   3.981   6.050
64473SOL     OW95315   5.795  14.159   4.809
64473SOL    HW195316   5.838  14.085   4.767
64473SOL    HW295317   5.736  14.120   4.874
64474SOL     OW95318  13.861  12.615   1.520
64474SOL    HW195319  13.863  12.520   1.514
64474SOL    HW295320  13.768  12.637   1.526
64475SOL     OW95321   7.015  14.589   4.458
64475SOL    HW195322   6.979  14.656   4.516
64475SOL    HW295323   6.999  14.506   4.503
64476SOL     OW95324   4.508   8.865  11.731
64476SOL    HW195325   4.446   8.900  11.667
64476SOL    HW295326   4.533   8.779  11.695
64477SOL     OW95327   4.462  10.484   2.492
64477SOL    HW195328   4.501  10.414   2.544
64477SOL    HW295329   4.376  10.498   2.531
64478SOL     OW95330   2.246  13.548   4.670
64478SOL    HW195331   2.167  13.511   4.710
64478SOL    HW295332   2.224  13.559   4.578
64479SOL     OW95333   7.604   8.731  13.638
64479SOL    HW195334   7.644   8.688  13.713
64479SOL    HW295335   7.511   8.708  13.644
64480SOL     OW95336   4.351  13.897   3.391
64480SOL    HW195337   4.298  13.877   3.314
64480SOL    HW295338   4.297  13.872   3.466
64481SOL     OW95339   1.392   3.750  10.942
64481SOL    HW195340   1.406   3.790  10.855
64481SOL    HW295341   1.351   3.666  10.923
64482SOL     OW95342   5.413   5.280   8.339
64482SOL    HW195343   5.376   5.334   8.269
64482SOL    HW295344   5.429   5.195   8.298
64483SOL     OW95345   5.313   0.861   9.750
64483SOL    HW195346   5.269   0.808   9.817
64483SOL    HW295347   5.376   0.914   9.799
64484SOL     OW95348   6.914   2.510   3.746
64484SOL    HW195349   6.839   2.484   3.693
64484SOL    HW295350   6.963   2.572   3.691
64485SOL     OW95351   1.072   6.209  13.836
64485SOL    HW195352   1.137   6.202  13.766
64485SOL    HW295353   0.998   6.254  13.795
64486SOL     OW95354   5.276   4.083  10.791
64486SOL    HW195355   5.285   4.170  10.752
64486SOL    HW295356   5.355   4.036  10.763
64487SOL     OW95357   7.009   2.126   4.113
64487SOL    HW195358   7.056   2.048   4.143
64487SOL    HW295359   6.975   2.165   4.193
64488SOL     OW95360   2.082   9.161   9.061
64488SOL    HW195361   2.041   9.219   8.996
64488SOL    HW295362   2.041   9.186   9.144
64489SOL     OW95363  12.890   3.584   5.797
64489SOL    HW195364  12.969   3.565   5.848
64489SOL    HW295365  12.829   3.514   5.820
64490SOL     OW95366   4.973   5.191   9.322
64490SOL    HW195367   5.032   5.258   9.287
64490SOL    HW295368   5.018   5.109   9.305
64491SOL     OW95369   1.419  13.264   0.990
64491SOL    HW195370   1.407  13.195   1.056
64491SOL    HW295371   1.338  13.315   0.994
64492SOL     OW95372   0.046  14.645   1.738
64492SOL    HW195373  14.843  14.692   1.742
64492SOL    HW295374   0.069  14.630   1.830
64493SOL     OW95375  10.307   1.989   1.403
64493SOL    HW195376  10.228   1.942   1.374
64493SOL    HW295377  10.360   1.922   1.448
64494SOL     OW95378  13.910   0.709   1.778
64494SOL    HW195379  13.871   0.622   1.770
64494SOL    HW295380  13.836   0.766   1.800
64495SOL     OW95381   7.347  12.648   9.094
64495SOL    HW195382   7.374  12.635   9.185
64495SOL    HW295383   7.354  12.742   9.080
64496SOL     OW95384   0.007   8.711   4.603
64496SOL    HW195385   0.010   8.663   4.520
64496SOL    HW295386  14.846   8.795   4.580
64497SOL     OW95387   4.015   2.367   6.046
64497SOL    HW195388   4.018   2.288   6.100
64497SOL    HW295389   4.029   2.439   6.108
64498SOL     OW95390   8.145  10.391   4.619
64498SOL    HW195391   8.199  10.462   4.655
64498SOL    HW295392   8.101  10.431   4.544
64499SOL     OW95393  10.041  13.111   7.312
64499SOL    HW195394  10.057  13.097   7.218
64499SOL    HW295395  10.107  13.056   7.355
64500SOL     OW95396   1.479   0.839   2.118
64500SOL    HW195397   1.426   0.898   2.064
64500SOL    HW295398   1.450   0.752   2.093
64501SOL     OW95399   8.739  14.859  11.614
64501SOL    HW195400   8.740  14.818  11.527
64501SOL    HW295401   8.646  14.865  11.636
64502SOL     OW95402   5.230  14.387   2.416
64502SOL    HW195403   5.182  14.450   2.362
64502SOL    HW295404   5.173  14.371   2.491
64503SOL     OW95405   7.816  13.237   4.930
64503SOL    HW195406   7.872  13.160   4.942
64503SOL    HW295407   7.731  13.201   4.906
64504SOL     OW95408   5.360   2.742  11.078
64504SOL    HW195409   5.278   2.784  11.105
64504SOL    HW295410   5.427   2.808  11.094
64505SOL     OW95411   7.998  12.049   0.606
64505SOL    HW195412   7.995  12.006   0.692
64505SOL    HW295413   7.944  12.127   0.617
64506SOL     OW95414   9.338   2.333   9.947
64506SOL    HW195415   9.348   2.240   9.926
64506SOL    HW295416   9.427   2.368   9.938
64507SOL     OW95417  11.759   5.297  13.568
64507SOL    HW195418  11.794   5.221  13.615
64507SOL    HW295419  11.747   5.266  13.478
64508SOL     OW95420  14.460  10.378   1.029
64508SOL    HW195421  14.365  10.390   1.027
64508SOL    HW295422  14.472  10.284   1.019
64509SOL     OW95423  13.017   2.178  13.487
64509SOL    HW195424  12.988   2.087  13.490
64509SOL    HW295425  13.111   2.172  13.470
64510SOL     OW95426   8.627   0.168   5.641
64510SOL    HW195427   8.694   0.236   5.644
64510SOL    HW295428   8.642   0.116   5.721
64511SOL     OW95429  12.438   6.929   9.103
64511SOL    HW195430  12.397   6.854   9.146
64511SOL    HW295431  12.483   6.892   9.027
64512SOL     OW95432   1.169   3.451  11.888
64512SOL    HW195433   1.235   3.424  11.825
64512SOL    HW295434   1.149   3.372  11.939
64513SOL     OW95435   3.975  14.773   8.836
64513SOL    HW195436   4.000  14.819   8.917
64513SOL    HW295437   3.880  14.782   8.831
64514SOL     OW95438   6.052   3.478  11.796
64514SOL    HW195439   6.103   3.402  11.826
64514SOL    HW295440   5.962   3.447  11.797
64515SOL     OW95441   5.658   0.102   9.325
64515SOL    HW195442   5.719   0.145   9.265
64515SOL    HW295443   5.714   0.052   9.385
64516SOL     OW95444  10.340   9.249  11.450
64516SOL    HW195445  10.386   9.191  11.510
64516SOL    HW295446  10.383   9.235  11.366
64517SOL     OW95447   8.997  13.258   9.004
64517SOL    HW195448   9.030  13.295   9.086
64517SOL    HW295449   8.916  13.306   8.988
64518SOL     OW95450  11.857  13.747   5.821
64518SOL    HW195451  11.911  13.710   5.891
64518SOL    HW295452  11.828  13.672   5.770
64519SOL     OW95453   2.331   2.006   7.105
64519SOL    HW195454   2.325   1.911   7.116
64519SOL    HW295455   2.319   2.020   7.012
64520SOL     OW95456  14.485   4.500   5.884
64520SOL    HW195457  14.397   4.524   5.855
64520SOL    HW295458  14.498   4.412   5.850
64521SOL     OW95459   6.903  12.711   8.915
64521SOL    HW195460   6.830  12.730   8.974
64521SOL    HW295461   6.964  12.659   8.968
64522SOL     OW95462   8.567  11.724  10.349
64522SOL    HW195463   8.566  11.784  10.423
64522SOL    HW295464   8.563  11.782  10.272
64523SOL     OW95465   5.794   4.539   6.372
64523SOL    HW195466   5.720   4.554   6.432
64523SOL    HW295467   5.797   4.618   6.318
64524SOL     OW95468   3.101  14.294  14.483
64524SOL    HW195469   3.117  14.270  14.575
64524SOL    HW295470   3.162  14.366  14.467
64525SOL     OW95471  14.604   1.643   4.774
64525SOL    HW195472  14.681   1.694   4.799
64525SOL    HW295473  14.546   1.706   4.730
64526SOL     OW95474  12.565   0.016  11.314
64526SOL    HW195475  12.647   0.020  11.363
64526SOL    HW295476  12.506   0.076  11.360
64527SOL     OW95477   1.852  12.410   8.532
64527SOL    HW195478   1.891  12.322   8.528
64527SOL    HW295479   1.917  12.464   8.576
64528SOL     OW95480  11.185   8.731   6.102
64528SOL    HW195481  11.140   8.648   6.115
64528SOL    HW295482  11.259   8.728   6.162
64529SOL     OW95483   7.503   1.256   6.386
64529SOL    HW195484   7.587   1.286   6.421
64529SOL    HW295485   7.520   1.242   6.293
64530SOL     OW95486   4.068   5.675   4.104
64530SOL    HW195487   4.125   5.665   4.181
64530SOL    HW295488   3.981   5.688   4.140
64531SOL     OW95489   1.787   7.151  10.403
64531SOL    HW195490   1.794   7.200  10.485
64531SOL    HW295491   1.720   7.085  10.420
64532SOL     OW95492   5.249  13.342   1.424
64532SOL    HW195493   5.285  13.391   1.498
64532SOL    HW295494   5.183  13.285   1.463
64533SOL     OW95495   6.334   1.850  12.704
64533SOL    HW195496   6.410   1.824  12.756
64533SOL    HW295497   6.278   1.772  12.704
64534SOL     OW95498  14.767   4.120  12.982
64534SOL    HW195499  14.830   4.191  12.987
64534SOL    HW295500  14.730   4.126  12.894
64535SOL     OW95501   6.411   2.744  13.983
64535SOL    HW195502   6.362   2.717  14.061
64535SOL    HW295503   6.366   2.700  13.911
64536SOL     OW95504   8.395  10.313  11.238
64536SOL    HW195505   8.467  10.261  11.274
64536SOL    HW295506   8.332  10.248  11.208
64537SOL     OW95507   2.574  11.186   8.233
64537SOL    HW195508   2.538  11.262   8.188
64537SOL    HW295509   2.527  11.112   8.196
64538SOL     OW95510   0.402   6.130   5.041
64538SOL    HW195511   0.322   6.170   5.008
64538SOL    HW295512   0.472   6.190   5.013
64539SOL     OW95513  14.649  14.363   2.208
64539SOL    HW195514  14.573  14.346   2.152
64539SOL    HW295515  14.629  14.318   2.290
64540SOL     OW95516   4.396  10.147  11.838
64540SOL    HW195517   4.463  10.108  11.782
64540SOL    HW295518   4.444  10.207  11.895
64541SOL     OW95519   5.348   7.388   4.991
64541SOL    HW195520   5.378   7.300   4.971
64541SOL    HW295521   5.308   7.381   5.078
64542SOL     OW95522  12.846  11.043  14.563
64542SOL    HW195523  12.812  11.014  14.478
64542SOL    HW295524  12.935  11.007  14.567
64543SOL     OW95525   4.883  11.339   8.925
64543SOL    HW195526   4.923  11.422   8.900
64543SOL    HW295527   4.877  11.343   9.021
64544SOL     OW95528  10.977   7.422  10.739
64544SOL    HW195529  10.972   7.332  10.769
64544SOL    HW295530  10.892   7.460  10.763
64545SOL     OW95531   5.707   8.149   0.403
64545SOL    HW195532   5.684   8.213   0.336
64545SOL    HW295533   5.717   8.067   0.355
64546SOL     OW95534   8.914   6.995   1.384
64546SOL    HW195535   8.961   7.067   1.426
64546SOL    HW295536   8.950   6.916   1.424
64547SOL     OW95537   3.006  11.532  10.315
64547SOL    HW195538   2.980  11.581  10.393
64547SOL    HW295539   3.051  11.596  10.261
64548SOL     OW95540  10.484   0.290  12.797
64548SOL    HW195541  10.575   0.321  12.799
64548SOL    HW295542  10.435   0.360  12.840
64549SOL     OW95543  11.938   7.743   2.815
64549SOL    HW195544  11.990   7.788   2.882
64549SOL    HW295545  11.970   7.652   2.817
64550SOL     OW95546   2.981  11.913   0.558
64550SOL    HW195547   3.037  11.928   0.482
64550SOL    HW295548   3.010  11.978   0.622
64551SOL     OW95549   1.043   2.852   6.774
64551SOL    HW195550   1.013   2.873   6.862
64551SOL    HW295551   1.059   2.758   6.775
64552SOL     OW95552   1.590  11.592   7.814
64552SOL    HW195553   1.668  11.581   7.868
64552SOL    HW295554   1.570  11.686   7.819
64553SOL     OW95555   2.553  10.384   6.121
64553SOL    HW195556   2.582  10.354   6.035
64553SOL    HW295557   2.500  10.462   6.102
64554SOL     OW95558  10.440  14.852   1.443
64554SOL    HW195559  10.530  14.876   1.465
64554SOL    HW295560  10.397  14.839   1.527
64555SOL     OW95561   0.069   5.665   6.513
64555SOL    HW195562   0.021   5.720   6.575
64555SOL    HW295563   0.140   5.720   6.482
64556SOL     OW95564  12.231  10.277   8.740
64556SOL    HW195565  12.196  10.354   8.784
64556SOL    HW295566  12.273  10.226   8.810
64557SOL     OW95567   1.090   8.318   6.633
64557SOL    HW195568   1.134   8.379   6.574
64557SOL    HW295569   1.127   8.233   6.611
64558SOL     OW95570   4.514  14.388   5.150
64558SOL    HW195571   4.547  14.470   5.185
64558SOL    HW295572   4.588  14.328   5.155
64559SOL     OW95573   8.538   8.882  13.467
64559SOL    HW195574   8.601   8.815  13.492
64559SOL    HW295575   8.461   8.833  13.436
64560SOL     OW95576  12.418   3.403  11.065
64560SOL    HW195577  12.421   3.480  11.122
64560SOL    HW295578  12.409   3.329  11.126
64561SOL     OW95579   4.135   6.587   2.206
64561SOL    HW195580   4.224   6.558   2.226
64561SOL    HW295581   4.100   6.617   2.289
64562SOL     OW95582   3.734   8.119   8.965
64562SOL    HW195583   3.810   8.178   8.964
64562SOL    HW295584   3.756   8.053   9.030
64563SOL     OW95585  13.190  11.093  13.690
64563SOL    HW195586  13.271  11.079  13.739
64563SOL    HW295587  13.155  11.005  13.676
64564SOL     OW95588  10.054   1.968  13.884
64564SOL    HW195589   9.960   1.974  13.903
64564SOL    HW295590  10.058   1.939  13.793
64565SOL     OW95591   0.534   7.049   1.705
64565SOL    HW195592   0.589   6.975   1.732
64565SOL    HW295593   0.584   7.127   1.731
64566SOL     OW95594   6.318   6.794   5.956
64566SOL    HW195595   6.256   6.864   5.935
64566SOL    HW295596   6.357   6.770   5.871
64567SOL     OW95597  12.834  10.839   9.785
64567SOL    HW195598  12.858  10.931   9.767
64567SOL    HW295599  12.854  10.827   9.877
64568SOL     OW95600   3.682   7.388   9.908
64568SOL    HW195601   3.594   7.351   9.910
64568SOL    HW295602   3.713   7.372   9.819
64569SOL     OW95603   4.739   2.827  10.304
64569SOL    HW195604   4.691   2.775  10.368
64569SOL    HW295605   4.812   2.771  10.277
64570SOL     OW95606   0.359  10.124   9.704
64570SOL    HW195607   0.268  10.097   9.694
64570SOL    HW295608   0.389  10.082   9.784
64571SOL     OW95609   1.856  10.039   4.897
64571SOL    HW195610   1.826  10.124   4.928
64571SOL    HW295611   1.792   9.977   4.931
64572SOL     OW95612   8.701   5.105  11.204
64572SOL    HW195613   8.766   5.139  11.266
64572SOL    HW295614   8.689   5.014  11.230
64573SOL     OW95615   8.786  13.906   4.129
64573SOL    HW195616   8.870  13.942   4.158
64573SOL    HW295617   8.723  13.977   4.142
64574SOL     OW95618  14.360   2.173   4.646
64574SOL    HW195619  14.369   2.267   4.662
64574SOL    HW295620  14.448   2.145   4.620
64575SOL     OW95621   3.829   1.992   5.586
64575SOL    HW195622   3.793   1.911   5.550
64575SOL    HW295623   3.788   2.061   5.533
64576SOL     OW95624   8.630   6.738   8.034
64576SOL    HW195625   8.664   6.687   7.960
64576SOL    HW295626   8.698   6.730   8.101
64577SOL     OW95627   2.239   7.317   4.190
64577SOL    HW195628   2.293   7.353   4.260
64577SOL    HW295629   2.288   7.243   4.156
64578SOL     OW95630   8.546   3.582   9.812
64578SOL    HW195631   8.510   3.503   9.772
64578SOL    HW295632   8.631   3.554   9.848
64579SOL     OW95633   3.152   8.332   2.136
64579SOL    HW195634   3.130   8.296   2.222
64579SOL    HW295635   3.067   8.345   2.093
64580SOL     OW95636  14.683   4.601   4.550
64580SOL    HW195637  14.615   4.612   4.484
64580SOL    HW295638  14.739   4.532   4.514
64581SOL     OW95639   7.139  13.013   2.749
64581SOL    HW195640   7.138  12.979   2.659
64581SOL    HW295641   7.135  13.108   2.737
64582SOL     OW95642   9.689   8.156   8.433
64582SOL    HW195643   9.649   8.224   8.488
64582SOL    HW295644   9.774   8.191   8.409
64583SOL     OW95645  12.664  12.995  11.136
64583SOL    HW195646  12.690  13.026  11.223
64583SOL    HW295647  12.625  12.909  11.152
64584SOL     OW95648   0.658   7.591   5.002
64584SOL    HW195649   0.747   7.614   5.029
64584SOL    HW295650   0.656   7.495   5.006
64585SOL     OW95651   9.603  12.957  13.415
64585SOL    HW195652   9.659  12.985  13.342
64585SOL    HW295653   9.520  12.932  13.373
64586SOL     OW95654   1.668   4.270   8.811
64586SOL    HW195655   1.748   4.218   8.821
64586SOL    HW295656   1.598   4.208   8.831
64587SOL     OW95657   7.055   9.183   1.417
64587SOL    HW195658   7.077   9.257   1.360
64587SOL    HW295659   7.116   9.114   1.393
64588SOL     OW95660   5.979  12.088   6.419
64588SOL    HW195661   6.020  12.113   6.337
64588SOL    HW295662   5.902  12.037   6.394
64589SOL     OW95663   9.893   6.263   5.126
64589SOL    HW195664   9.823   6.220   5.174
64589SOL    HW295665   9.932   6.323   5.189
64590SOL     OW95666  13.122   2.640   3.881
64590SOL    HW195667  13.178   2.568   3.851
64590SOL    HW295668  13.183   2.710   3.904
64591SOL     OW95669   0.112   8.741   5.207
64591SOL    HW195670   0.088   8.692   5.129
64591SOL    HW295671   0.041   8.723   5.269
64592SOL     OW95672   1.157   2.705   6.442
64592SOL    HW195673   1.162   2.741   6.353
64592SOL    HW295674   1.214   2.762   6.494
64593SOL     OW95675   9.410   0.044  13.984
64593SOL    HW195676   9.346   0.048  13.913
64593SOL    HW295677   9.423  14.831  13.999
64594SOL     OW95678  11.173   6.425   6.715
64594SOL    HW195679  11.103   6.363   6.737
64594SOL    HW295680  11.225   6.381   6.649
64595SOL     OW95681   3.833  12.924   8.022
64595SOL    HW195682   3.772  12.979   7.974
64595SOL    HW295683   3.780  12.850   8.053
64596SOL     OW95684   4.088   8.123  12.706
64596SOL    HW195685   4.178   8.157  12.699
64596SOL    HW295686   4.091   8.064  12.781
64597SOL     OW95687   7.865   9.485   5.439
64597SOL    HW195688   7.934   9.419   5.425
64597SOL    HW295689   7.890   9.529   5.520
64598SOL     OW95690   0.141  12.252   7.450
64598SOL    HW195691   0.188  12.294   7.378
64598SOL    HW295692   0.205  12.191   7.488
64599SOL     OW95693  13.735   1.712   8.470
64599SOL    HW195694  13.790   1.667   8.535
64599SOL    HW295695  13.736   1.803   8.498
64600SOL     OW95696   8.333   8.080  11.177
64600SOL    HW195697   8.250   8.044  11.147
64600SOL    HW295698   8.385   8.090  11.097
64601SOL     OW95699  11.072   8.219   1.575
64601SOL    HW195700  11.009   8.151   1.598
64601SOL    HW295701  11.043   8.251   1.489
64602SOL     OW95702   9.298   5.948  11.878
64602SOL    HW195703   9.219   5.938  11.824
64602SOL    HW295704   9.268   5.934  11.968
64603SOL     OW95705   8.174   4.232  12.378
64603SOL    HW195706   8.161   4.138  12.374
64603SOL    HW295707   8.264   4.242  12.408
64604SOL     OW95708   8.663  14.238   8.896
64604SOL    HW195709   8.653  14.265   8.805
64604SOL    HW295710   8.640  14.145   8.897
64605SOL     OW95711   8.747   3.370   0.971
64605SOL    HW195712   8.659   3.352   0.939
64605SOL    HW295713   8.786   3.283   0.982
64606SOL     OW95714   1.207  10.882   7.356
64606SOL    HW195715   1.124  10.929   7.350
64606SOL    HW295716   1.225  10.855   7.266
64607SOL     OW95717  14.272   9.433   2.948
64607SOL    HW195718  14.191   9.441   3.000
64607SOL    HW295719  14.241   9.427   2.857
64608SOL     OW95720  11.377  14.551   6.049
64608SOL    HW195721  11.336  14.487   6.106
64608SOL    HW295722  11.427  14.499   5.986
64609SOL     OW95723  12.573   7.090  13.500
64609SOL    HW195724  12.544   7.061  13.587
64609SOL    HW295725  12.597   7.009  13.454
64610SOL     OW95726   6.861   1.763   5.035
64610SOL    HW195727   6.778   1.715   5.047
64610SOL    HW295728   6.924   1.715   5.088
64611SOL     OW95729  11.452   6.349   2.361
64611SOL    HW195730  11.395   6.293   2.309
64611SOL    HW295731  11.507   6.288   2.410
64612SOL     OW95732  10.390  11.422   1.648
64612SOL    HW195733  10.349  11.336   1.640
64612SOL    HW295734  10.318  11.480   1.675
64613SOL     OW95735  10.190   7.065   1.737
64613SOL    HW195736  10.195   7.158   1.718
64613SOL    HW295737  10.216   7.022   1.655
64614SOL     OW95738   6.798   6.246   3.424
64614SOL    HW195739   6.763   6.326   3.463
64614SOL    HW295740   6.768   6.175   3.481
64615SOL     OW95741   4.273   1.711   7.265
64615SOL    HW195742   4.273   1.628   7.312
64615SOL    HW295743   4.355   1.753   7.290
64616SOL     OW95744   8.759   8.302   3.949
64616SOL    HW195745   8.835   8.330   3.998
64616SOL    HW295746   8.697   8.374   3.957
64617SOL     OW95747   4.552   0.801  10.494
64617SOL    HW195748   4.583   0.728  10.547
64617SOL    HW295749   4.627   0.860  10.488
64618SOL     OW95750  10.830   3.244   9.973
64618SOL    HW195751  10.922   3.243   9.998
64618SOL    HW295752  10.830   3.217   9.881
64619SOL     OW95753   1.239  10.573   8.203
64619SOL    HW195754   1.248  10.497   8.146
64619SOL    HW295755   1.328  10.599   8.223
64620SOL     OW95756   6.597   4.193   8.881
64620SOL    HW195757   6.624   4.219   8.969
64620SOL    HW295758   6.607   4.097   8.880
64621SOL     OW95759   6.655   2.942   5.769
64621SOL    HW195760   6.694   2.917   5.685
64621SOL    HW295761   6.727   2.931   5.832
64622SOL     OW95762   4.953   4.994  12.404
64622SOL    HW195763   4.956   4.976  12.310
64622SOL    HW295764   4.910   4.917  12.442
64623SOL     OW95765   3.501   3.651   4.901
64623SOL    HW195766   3.523   3.730   4.852
64623SOL    HW295767   3.463   3.684   4.983
64624SOL     OW95768   3.859   1.473   3.770
64624SOL    HW195769   3.929   1.518   3.818
64624SOL    HW295770   3.876   1.380   3.786
64625SOL     OW95771   3.019   9.313   6.622
64625SOL    HW195772   2.996   9.333   6.713
64625SOL    HW295773   3.095   9.368   6.604
64626SOL     OW95774   4.227  14.205  10.015
64626SOL    HW195775   4.279  14.130  10.044
64626SOL    HW295776   4.138  14.185  10.043
64627SOL     OW95777   4.241   1.258   9.166
64627SOL    HW195778   4.150   1.285   9.155
64627SOL    HW295779   4.286   1.337   9.197
64628SOL     OW95780   2.589   3.777   2.074
64628SOL    HW195781   2.631   3.754   2.157
64628SOL    HW295782   2.523   3.709   2.061
64629SOL     OW95783   0.138  10.666  12.749
64629SOL    HW195784   0.060  10.716  12.725
64629SOL    HW295785   0.209  10.729  12.747
64630SOL     OW95786   4.777   7.930   5.358
64630SOL    HW195787   4.723   7.918   5.436
64630SOL    HW295788   4.813   7.843   5.341
64631SOL     OW95789   2.611   6.759  11.606
64631SOL    HW195790   2.649   6.815  11.539
64631SOL    HW295791   2.522   6.793  11.618
64632SOL     OW95792  13.319   7.328   8.058
64632SOL    HW195793  13.378   7.328   7.982
64632SOL    HW295794  13.241   7.281   8.027
64633SOL     OW95795  13.799   0.270   0.365
64633SOL    HW195796  13.743   0.330   0.413
64633SOL    HW295797  13.885   0.313   0.364
64634SOL     OW95798  12.996   1.418   7.275
64634SOL    HW195799  13.014   1.512   7.270
64634SOL    HW295800  12.962   1.396   7.189
64635SOL     OW95801   6.489   4.286  14.484
64635SOL    HW195802   6.538   4.348  14.430
64635SOL    HW295803   6.422   4.338  14.527
64636SOL     OW95804  11.589   7.352  11.165
64636SOL    HW195805  11.554   7.410  11.098
64636SOL    HW295806  11.669   7.316  11.127
64637SOL     OW95807  11.789   1.052   1.223
64637SOL    HW195808  11.870   1.101   1.208
64637SOL    HW295809  11.730   1.115   1.263
64638SOL     OW95810   0.969   8.305  14.447
64638SOL    HW195811   0.878   8.303  14.474
64638SOL    HW295812   0.991   8.398  14.441
64639SOL     OW95813   0.338   8.953   0.972
64639SOL    HW195814   0.290   8.886   0.923
64639SOL    HW295815   0.271   9.014   1.000
64640SOL     OW95816   4.456   1.901   8.468
64640SOL    HW195817   4.461   1.824   8.524
64640SOL    HW295818   4.544   1.939   8.471
64641SOL     OW95819   9.281   9.051   2.530
64641SOL    HW195820   9.252   9.112   2.463
64641SOL    HW295821   9.314   9.107   2.601
64642SOL     OW95822  12.459  10.650   5.344
64642SOL    HW195823  12.442  10.557   5.358
64642SOL    HW295824  12.553  10.660   5.355
64643SOL     OW95825  10.774   8.225  14.341
64643SOL    HW195826  10.735   8.146  14.379
64643SOL    HW295827  10.814   8.270  14.415
64644SOL     OW95828   4.830   0.545  14.697
64644SOL    HW195829   4.780   0.466  14.715
64644SOL    HW295830   4.768   0.602  14.651
64645SOL     OW95831  11.218   7.804   4.177
64645SOL    HW195832  11.157   7.876   4.166
64645SOL    HW295833  11.274   7.807   4.100
64646SOL     OW95834   5.431   0.354   1.917
64646SOL    HW195835   5.351   0.364   1.970
64646SOL    HW295836   5.491   0.419   1.952
64647SOL     OW95837   4.639   1.304   6.863
64647SOL    HW195838   4.577   1.324   6.933
64647SOL    HW295839   4.720   1.280   6.909
64648SOL     OW95840  12.752   2.605  11.582
64648SOL    HW195841  12.804   2.554  11.519
64648SOL    HW295842  12.817   2.657  11.629
64649SOL     OW95843   4.003   8.163   5.641
64649SOL    HW195844   4.060   8.087   5.651
64649SOL    HW295845   3.937   8.134   5.578
64650SOL     OW95846   3.197  13.834   6.746
64650SOL    HW195847   3.228  13.749   6.777
64650SOL    HW295848   3.104  13.835   6.769
64651SOL     OW95849   8.093   4.372  10.234
64651SOL    HW195850   8.116   4.386  10.326
64651SOL    HW295851   8.024   4.436  10.217
64652SOL     OW95852   9.053   1.371  11.457
64652SOL    HW195853   9.047   1.359  11.551
64652SOL    HW295854   9.014   1.292  11.420
64653SOL     OW95855   5.781  10.141  12.450
64653SOL    HW195856   5.711  10.197  12.417
64653SOL    HW295857   5.855  10.200  12.463
64654SOL     OW95858   7.344   2.847   0.301
64654SOL    HW195859   7.316   2.938   0.291
64654SOL    HW295860   7.394   2.846   0.382
64655SOL     OW95861  10.047   6.506  13.851
64655SOL    HW195862  10.097   6.588  13.846
64655SOL    HW295863  10.014   6.493  13.762
64656SOL     OW95864   7.830   6.921   1.986
64656SOL    HW195865   7.860   6.833   1.966
64656SOL    HW295866   7.744   6.928   1.946
64657SOL     OW95867   5.791   2.105   0.661
64657SOL    HW195868   5.709   2.056   0.651
64657SOL    HW295869   5.858   2.038   0.667
64658SOL     OW95870   2.784   8.285   6.102
64658SOL    HW195871   2.845   8.330   6.044
64658SOL    HW295872   2.725   8.238   6.043
64659SOL     OW95873   4.030   7.731   7.825
64659SOL    HW195874   4.087   7.757   7.753
64659SOL    HW295875   3.983   7.654   7.793
64660SOL     OW95876  11.396   6.621   2.393
64660SOL    HW195877  11.343   6.624   2.473
64660SOL    HW295878  11.431   6.532   2.391
64661SOL     OW95879   3.926  14.416  13.623
64661SOL    HW195880   3.975  14.485  13.578
64661SOL    HW295881   3.840  14.454  13.639
64662SOL     OW95882  14.703   0.946   4.760
64662SOL    HW195883  14.739   0.935   4.847
64662SOL    HW295884  14.628   1.005   4.772
64663SOL     OW95885   2.970   0.248   1.899
64663SOL    HW195886   2.989   0.213   1.811
64663SOL    HW295887   2.881   0.282   1.892
64664SOL     OW95888  11.683   8.752   9.080
64664SOL    HW195889  11.716   8.842   9.081
64664SOL    HW295890  11.717   8.714   8.999
64665SOL     OW95891  12.628  11.951   9.529
64665SOL    HW195892  12.592  11.987   9.448
64665SOL    HW295893  12.721  11.936   9.510
64666SOL     OW95894   3.242   9.755  11.533
64666SOL    HW195895   3.257   9.723  11.444
64666SOL    HW295896   3.330   9.773  11.567
64667SOL     OW95897   6.403   5.530   6.681
64667SOL    HW195898   6.449   5.602   6.723
64667SOL    HW295899   6.311   5.544   6.704
64668SOL     OW95900  13.289  11.780   8.285
64668SOL    HW195901  13.308  11.721   8.358
64668SOL    HW295902  13.293  11.724   8.207
64669SOL     OW95903   2.794   0.792  12.802
64669SOL    HW195904   2.777   0.827  12.889
64669SOL    HW295905   2.708   0.787  12.761
64670SOL     OW95906   3.955  12.277   8.900
64670SOL    HW195907   3.936  12.258   8.992
64670SOL    HW295908   4.014  12.207   8.874
64671SOL     OW95909   5.256  14.474   2.990
64671SOL    HW195910   5.331  14.522   3.025
64671SOL    HW295911   5.198  14.541   2.956
64672SOL     OW95912   1.247  10.260  12.530
64672SOL    HW195913   1.241  10.334  12.470
64672SOL    HW295914   1.332  10.220  12.512
64673SOL     OW95915  11.644  12.591   7.333
64673SOL    HW195916  11.569  12.532   7.331
64673SOL    HW295917  11.720  12.534   7.325
64674SOL     OW95918  12.030  10.821  14.540
64674SOL    HW195919  12.116  10.782  14.522
64674SOL    HW295920  12.042  10.914  14.521
64675SOL     OW95921   6.275   4.908  11.520
64675SOL    HW195922   6.356   4.955  11.499
64675SOL    HW295923   6.217   4.926  11.446
64676SOL     OW95924   8.142  13.456   9.758
64676SOL    HW195925   8.053  13.468   9.724
64676SOL    HW295926   8.146  13.364   9.783
64677SOL     OW95927  11.131  10.339  12.372
64677SOL    HW195928  11.178  10.420  12.393
64677SOL    HW295929  11.189  10.269  12.402
64678SOL     OW95930  12.731   7.421  13.511
64678SOL    HW195931  12.685   7.500  13.483
64678SOL    HW295932  12.694   7.352  13.456
64679SOL     OW95933   2.826  12.661  11.790
64679SOL    HW195934   2.851  12.571  11.770
64679SOL    HW295935   2.735  12.668  11.763
64680SOL     OW95936   5.637   4.839   8.605
64680SOL    HW195937   5.651   4.782   8.680
64680SOL    HW295938   5.721   4.841   8.559
64681SOL     OW95939   3.418  13.952   2.972
64681SOL    HW195940   3.455  13.999   3.048
64681SOL    HW295941   3.397  13.865   3.006
64682SOL     OW95942   6.037   7.708   2.119
64682SOL    HW195943   5.987   7.757   2.184
64682SOL    HW295944   5.983   7.631   2.100
64683SOL     OW95945   7.281   9.120   0.709
64683SOL    HW195946   7.318   9.094   0.793
64683SOL    HW295947   7.334   9.074   0.644
64684SOL     OW95948   2.678   8.293   7.827
64684SOL    HW195949   2.704   8.379   7.861
64684SOL    HW295950   2.583   8.291   7.838
64685SOL     OW95951   1.846   6.428   0.960
64685SOL    HW195952   1.840   6.383   0.876
64685SOL    HW295953   1.755   6.431   0.992
64686SOL     OW95954   5.814   4.496   7.078
64686SOL    HW195955   5.731   4.499   7.125
64686SOL    HW295956   5.799   4.549   7.000
64687SOL     OW95957   0.841   1.954  12.625
64687SOL    HW195958   0.920   1.938  12.573
64687SOL    HW295959   0.784   2.005  12.567
64688SOL     OW95960   5.878   2.515   8.325
64688SOL    HW195961   5.953   2.536   8.269
64688SOL    HW295962   5.803   2.554   8.279
64689SOL     OW95963   5.205   9.545  12.217
64689SOL    HW195964   5.249   9.614  12.167
64689SOL    HW295965   5.117   9.580  12.233
64690SOL     OW95966   5.619  11.906  10.530
64690SOL    HW195967   5.535  11.952  10.523
64690SOL    HW295968   5.643  11.886  10.439
64691SOL     OW95969  12.192   5.450   1.319
64691SOL    HW195970  12.247   5.527   1.336
64691SOL    HW295971  12.248   5.376   1.340
64692SOL     OW95972  13.567   6.396  10.226
64692SOL    HW195973  13.497   6.384  10.291
64692SOL    HW295974  13.647   6.370  10.272
64693SOL     OW95975   7.137   5.422   8.719
64693SOL    HW195976   7.066   5.358   8.714
64693SOL    HW295977   7.093   5.505   8.737
64694SOL     OW95978   8.991   2.493   2.669
64694SOL    HW195979   9.008   2.503   2.763
64694SOL    HW295980   9.031   2.410   2.646
64695SOL     OW95981   6.951   0.654   6.962
64695SOL    HW195982   6.957   0.582   6.898
64695SOL    HW295983   6.913   0.613   7.040
64696SOL     OW95984   5.236  10.902   1.646
64696SOL    HW195985   5.169  10.946   1.595
64696SOL    HW295986   5.221  10.931   1.736
64697SOL     OW95987  10.791   0.226   9.876
64697SOL    HW195988  10.702   0.192   9.882
64697SOL    HW295989  10.826   0.188   9.796
64698SOL     OW95990  11.293  11.907   0.265
64698SOL    HW195991  11.387  11.924   0.265
64698SOL    HW295992  11.256  11.982   0.218
64699SOL     OW95993  14.461   2.748  13.293
64699SOL    HW195994  14.382   2.697  13.277
64699SOL    HW295995  14.466   2.809  13.219
64700SOL     OW95996   3.969  10.910   3.821
64700SOL    HW195997   3.926  10.884   3.903
64700SOL    HW295998   3.909  10.880   3.752
64701SOL     OW95999   1.246   5.831   5.216
64701SOL    HW196000   1.270   5.772   5.145
64701SOL    HW296001   1.170   5.878   5.184
64702SOL     OW96002   1.237  14.408   9.192
64702SOL    HW196003   1.156  14.399   9.142
64702SOL    HW296004   1.212  14.395   9.283
64703SOL     OW96005   3.695   0.159   6.927
64703SOL    HW196006   3.783   0.159   6.889
64703SOL    HW296007   3.699   0.225   6.996
64704SOL     OW96008   3.474   5.096   7.428
64704SOL    HW196009   3.389   5.077   7.466
64704SOL    HW296010   3.518   5.151   7.493
64705SOL     OW96011  14.541   2.422   6.114
64705SOL    HW196012  14.543   2.332   6.146
64705SOL    HW296013  14.491   2.470   6.181
64706SOL     OW96014  12.414  14.677  14.826
64706SOL    HW196015  12.477  14.719   0.004
64706SOL    HW296016  12.433  14.584  14.832
64707SOL     OW96017   3.036  10.082  14.820
64707SOL    HW196018   3.014  10.103  14.729
64707SOL    HW296019   3.108  10.019  14.813
64708SOL     OW96020  10.878   8.819   6.380
64708SOL    HW196021  10.905   8.884   6.314
64708SOL    HW296022  10.871   8.869   6.461
64709SOL     OW96023   0.596   0.305   4.414
64709SOL    HW196024   0.526   0.248   4.383
64709SOL    HW296025   0.663   0.244   4.447
64710SOL     OW96026  10.537  13.966  12.162
64710SOL    HW196027  10.489  13.919  12.093
64710SOL    HW296028  10.625  13.977  12.126
64711SOL     OW96029   5.193   7.684  13.170
64711SOL    HW196030   5.185   7.589  13.178
64711SOL    HW296031   5.285   7.702  13.186
64712SOL     OW96032  12.490   9.296   7.742
64712SOL    HW196033  12.400   9.328   7.748
64712SOL    HW296034  12.541   9.353   7.799
64713SOL     OW96035   3.096   9.387  14.594
64713SOL    HW196036   3.081   9.386  14.688
64713SOL    HW296037   3.155   9.313  14.579
64714SOL     OW96038  11.337  13.614  12.433
64714SOL    HW196039  11.288  13.534  12.451
64714SOL    HW296040  11.277  13.685  12.456
64715SOL     OW96041   7.844   2.988   7.602
64715SOL    HW196042   7.793   2.965   7.525
64715SOL    HW296043   7.910   2.919   7.609
64716SOL     OW96044   9.008   0.192  11.062
64716SOL    HW196045   9.068   0.118  11.069
64716SOL    HW296046   9.041   0.242  10.987
64717SOL     OW96047  11.685  10.457  10.408
64717SOL    HW196048  11.750  10.500  10.353
64717SOL    HW296049  11.708  10.483  10.498
64718SOL     OW96050   9.550   5.047   9.400
64718SOL    HW196051   9.511   5.133   9.384
64718SOL    HW296052   9.547   5.003   9.315
64719SOL     OW96053  11.207   5.411  12.998
64719SOL    HW196054  11.244   5.477  13.057
64719SOL    HW296055  11.271   5.340  12.998
64720SOL     OW96056   0.703   4.100  14.299
64720SOL    HW196057   0.726   4.007  14.292
64720SOL    HW296058   0.733   4.126  14.386
64721SOL     OW96059   7.603   7.029  10.876
64721SOL    HW196060   7.621   7.120  10.855
64721SOL    HW296061   7.528   7.006  10.822
64722SOL     OW96062   6.926  12.630   4.636
64722SOL    HW196063   7.001  12.571   4.630
64722SOL    HW296064   6.931  12.685   4.558
64723SOL     OW96065  11.281  13.628  13.853
64723SOL    HW196066  11.336  13.706  13.854
64723SOL    HW296067  11.253  13.618  13.762
64724SOL     OW96068   3.023   8.934   6.921
64724SOL    HW196069   2.981   8.950   6.836
64724SOL    HW296070   3.102   8.884   6.900
64725SOL     OW96071   7.076  10.084   5.829
64725SOL    HW196072   7.029  10.167   5.826
64725SOL    HW296073   7.013  10.019   5.799
64726SOL     OW96074   1.840  12.733   3.530
64726SOL    HW196075   1.797  12.652   3.559
64726SOL    HW296076   1.931  12.707   3.513
64727SOL     OW96077   3.465   6.619   6.243
64727SOL    HW196078   3.451   6.531   6.280
64727SOL    HW296079   3.387   6.668   6.270
64728SOL     OW96080  12.043  10.358  12.281
64728SOL    HW196081  12.092  10.278  12.264
64728SOL    HW296082  12.008  10.347  12.369
64729SOL     OW96083   0.221  12.645   8.961
64729SOL    HW196084   0.299  12.699   8.967
64729SOL    HW296085   0.156  12.691   9.016
64730SOL     OW96086  10.801   3.222   6.079
64730SOL    HW196087  10.888   3.252   6.053
64730SOL    HW296088  10.817   3.146   6.135
64731SOL     OW96089   2.176   2.750  12.910
64731SOL    HW196090   2.232   2.759  12.986
64731SOL    HW296091   2.136   2.836  12.899
64732SOL     OW96092   0.893   7.727   3.888
64732SOL    HW196093   0.811   7.768   3.860
64732SOL    HW296094   0.901   7.751   3.980
64733SOL     OW96095  10.276   1.925   0.921
64733SOL    HW196096  10.265   2.003   0.868
64733SOL    HW296097  10.321   1.956   1.000
64734SOL     OW96098  12.775   2.497   2.427
64734SOL    HW196099  12.855   2.445   2.431
64734SOL    HW296100  12.767   2.521   2.335
64735SOL     OW96101   3.683  13.734   6.377
64735SOL    HW196102   3.757  13.708   6.322
64735SOL    HW296103   3.610  13.742   6.316
64736SOL     OW96104   6.076   9.430   3.267
64736SOL    HW196105   6.148   9.386   3.222
64736SOL    HW296106   6.043   9.494   3.204
64737SOL     OW96107  10.232   3.372   4.584
64737SOL    HW196108  10.228   3.467   4.571
64737SOL    HW296109  10.199   3.358   4.673
64738SOL     OW96110   5.285  10.147  14.403
64738SOL    HW196111   5.252  10.109  14.485
64738SOL    HW296112   5.254  10.088  14.335
64739SOL     OW96113   9.297   0.343   0.763
64739SOL    HW196114   9.286   0.250   0.781
64739SOL    HW296115   9.254   0.356   0.678
64740SOL     OW96116   1.931  10.102   5.352
64740SOL    HW196117   1.860  10.156   5.318
64740SOL    HW296118   1.886  10.024   5.387
64741SOL     OW96119   4.062  11.045   7.718
64741SOL    HW196120   4.031  11.131   7.747
64741SOL    HW296121   4.026  11.035   7.630
64742SOL     OW96122   1.886   5.271  13.791
64742SOL    HW196123   1.943   5.211  13.841
64742SOL    HW296124   1.849   5.330  13.857
64743SOL     OW96125   6.473   4.675   7.423
64743SOL    HW196126   6.384   4.656   7.392
64743SOL    HW296127   6.529   4.651   7.349
64744SOL     OW96128   6.015  14.496   0.686
64744SOL    HW196129   6.095  14.470   0.733
64744SOL    HW296130   6.046  14.518   0.599
64745SOL     OW96131   7.206   5.172   1.437
64745SOL    HW196132   7.146   5.219   1.495
64745SOL    HW296133   7.209   5.225   1.357
64746SOL     OW96134  13.126   0.996  10.110
64746SOL    HW196135  13.070   0.970  10.183
64746SOL    HW296136  13.161   1.081  10.136
64747SOL     OW96137   7.292  12.433   5.602
64747SOL    HW196138   7.366  12.372   5.602
64747SOL    HW296139   7.326  12.511   5.558
64748SOL     OW96140   9.751   7.387   3.797
64748SOL    HW196141   9.780   7.298   3.817
64748SOL    HW296142   9.822   7.425   3.745
64749SOL     OW96143   8.711   3.156   8.353
64749SOL    HW196144   8.774   3.179   8.284
64749SOL    HW296145   8.741   3.206   8.430
64750SOL     OW96146  11.288   9.164   9.104
64750SOL    HW196147  11.319   9.122   9.024
64750SOL    HW296148  11.214   9.217   9.076
64751SOL     OW96149   1.667  12.703   2.264
64751SOL    HW196150   1.646  12.610   2.268
64751SOL    HW296151   1.594  12.746   2.308
64752SOL     OW96152  10.969   2.678  13.585
64752SOL    HW196153  11.021   2.601  13.559
64752SOL    HW296154  10.981   2.740  13.513
64753SOL     OW96155   9.685   9.848  13.808
64753SOL    HW196156   9.607   9.849  13.753
64753SOL    HW296157   9.752   9.892  13.756
64754SOL     OW96158   7.892   0.909   1.429
64754SOL    HW196159   7.835   0.873   1.497
64754SOL    HW296160   7.980   0.890   1.460
64755SOL     OW96161   1.095  13.524   9.039
64755SOL    HW196162   1.000  13.528   9.048
64755SOL    HW296163   1.128  13.594   9.096
64756SOL     OW96164   5.171   8.432   4.468
64756SOL    HW196165   5.232   8.359   4.467
64756SOL    HW296166   5.207   8.493   4.532
64757SOL     OW96167   4.425   6.840   6.404
64757SOL    HW196168   4.365   6.883   6.342
64757SOL    HW296169   4.456   6.911   6.460
64758SOL     OW96170   4.346   4.232   9.085
64758SOL    HW196171   4.304   4.260   9.167
64758SOL    HW296172   4.288   4.263   9.016
64759SOL     OW96173   3.896  12.893  12.522
64759SOL    HW196174   3.877  12.861  12.610
64759SOL    HW296175   3.812  12.925  12.489
64760SOL     OW96176   3.287   7.791   4.927
64760SOL    HW196177   3.305   7.877   4.888
64760SOL    HW296178   3.331   7.729   4.869
64761SOL     OW96179   4.251  14.868  10.428
64761SOL    HW196180   4.310   0.044  10.377
64761SOL    HW296181   4.260   0.019  10.518
64762SOL     OW96182   9.450  13.469   4.230
64762SOL    HW196183   9.366  13.427   4.245
64762SOL    HW296184   9.491  13.476   4.316
64763SOL     OW96185   2.168   3.038  11.388
64763SOL    HW196186   2.191   3.124  11.424
64763SOL    HW296187   2.253   2.996  11.370
64764SOL     OW96188   1.569  14.412   6.356
64764SOL    HW196189   1.540  14.384   6.269
64764SOL    HW296190   1.624  14.341   6.387
64765SOL     OW96191   9.913   9.650   9.133
64765SOL    HW196192   9.870   9.570   9.103
64765SOL    HW296193   9.841   9.708   9.159
64766SOL     OW96194   2.788   9.329   7.671
64766SOL    HW196195   2.826   9.353   7.755
64766SOL    HW296196   2.816   9.239   7.656
64767SOL     OW96197  10.775   9.022   4.756
64767SOL    HW196198  10.770   9.114   4.732
64767SOL    HW296199  10.847   9.018   4.819
64768SOL     OW96200   9.235   3.360  14.718
64768SOL    HW196201   9.300   3.428  14.734
64768SOL    HW296202   9.233   3.351  14.623
64769SOL     OW96203   3.353  10.480   0.170
64769SOL    HW196204   3.387  10.510   0.086
64769SOL    HW296205   3.279  10.423   0.148
64770SOL     OW96206  13.241   1.178   5.795
64770SOL    HW196207  13.174   1.110   5.805
64770SOL    HW296208  13.225   1.239   5.867
64771SOL     OW96209   5.377  10.060  10.359
64771SOL    HW196210   5.286  10.066  10.331
64771SOL    HW296211   5.374  10.080  10.453
64772SOL     OW96212   8.217   6.546   1.368
64772SOL    HW196213   8.211   6.505   1.454
64772SOL    HW296214   8.213   6.473   1.306
64773SOL     OW96215   4.087   4.496   8.279
64773SOL    HW196216   4.120   4.468   8.194
64773SOL    HW296217   4.054   4.416   8.319
64774SOL     OW96218  10.432   8.986  11.305
64774SOL    HW196219  10.344   9.017  11.328
64774SOL    HW296220  10.467   9.053  11.246
64775SOL     OW96221   1.469  10.644  11.436
64775SOL    HW196222   1.529  10.621  11.507
64775SOL    HW296223   1.454  10.562  11.389
64776SOL     OW96224   0.951   2.951  14.275
64776SOL    HW196225   0.864   2.934  14.312
64776SOL    HW296226   1.011   2.910  14.337
64777SOL     OW96227   3.693   3.446   4.856
64777SOL    HW196228   3.643   3.521   4.888
64777SOL    HW296229   3.779   3.482   4.835
64778SOL     OW96230   3.899   8.727  10.319
64778SOL    HW196231   3.918   8.820  10.309
64778SOL    HW296232   3.985   8.685  10.322
64779SOL     OW96233   2.910   4.225   8.519
64779SOL    HW196234   2.938   4.278   8.445
64779SOL    HW296235   2.861   4.285   8.575
64780SOL     OW96236   7.163   3.802   4.689
64780SOL    HW196237   7.192   3.836   4.604
64780SOL    HW296238   7.085   3.853   4.709
64781SOL     OW96239   4.683   3.824   9.564
64781SOL    HW196240   4.648   3.909   9.594
64781SOL    HW296241   4.776   3.828   9.586
64782SOL     OW96242   5.037   9.925   9.818
64782SOL    HW196243   4.972   9.907   9.751
64782SOL    HW296244   4.986   9.938   9.898
64783SOL     OW96245   9.968   6.265  10.283
64783SOL    HW196246  10.063   6.258  10.275
64783SOL    HW296247   9.946   6.345  10.234
64784SOL     OW96248   3.118   7.438   8.051
64784SOL    HW196249   3.089   7.464   8.139
64784SOL    HW296250   3.087   7.508   7.994
64785SOL     OW96251   3.267  14.431   9.131
64785SOL    HW196252   3.352  14.396   9.107
64785SOL    HW296253   3.278  14.526   9.129
64786SOL     OW96254  11.883   9.359   2.269
64786SOL    HW196255  11.815   9.326   2.327
64786SOL    HW296256  11.943   9.406   2.327
64787SOL     OW96257   9.114  13.344  14.655
64787SOL    HW196258   9.106  13.248  14.654
64787SOL    HW296259   9.157  13.364  14.737
64788SOL     OW96260   1.435   9.330   7.371
64788SOL    HW196261   1.414   9.326   7.465
64788SOL    HW296262   1.372   9.271   7.330
64789SOL     OW96263   7.803   1.668   9.790
64789SOL    HW196264   7.842   1.756   9.788
64789SOL    HW296265   7.871   1.613   9.830
64790SOL     OW96266   3.574   7.332   2.283
64790SOL    HW196267   3.656   7.366   2.318
64790SOL    HW296268   3.535   7.406   2.236
64791SOL     OW96269   7.167  12.880   2.166
64791SOL    HW196270   7.215  12.826   2.228
64791SOL    HW296271   7.122  12.818   2.110
64792SOL     OW96272  11.269   3.356   4.391
64792SOL    HW196273  11.240   3.286   4.449
64792SOL    HW296274  11.232   3.332   4.305
64793SOL     OW96275   1.034  11.590  12.681
64793SOL    HW196276   1.106  11.550  12.730
64793SOL    HW296277   0.998  11.519  12.628
64794SOL     OW96278   3.623   0.371  13.267
64794SOL    HW196279   3.684   0.439  13.296
64794SOL    HW296280   3.606   0.392  13.175
64795SOL     OW96281   3.451   9.450   8.323
64795SOL    HW196282   3.513   9.391   8.280
64795SOL    HW296283   3.429   9.406   8.405
64796SOL     OW96284  12.429   6.166   0.390
64796SOL    HW196285  12.379   6.227   0.337
64796SOL    HW296286  12.493   6.128   0.330
64797SOL     OW96287  13.710   8.548   3.234
64797SOL    HW196288  13.785   8.605   3.251
64797SOL    HW296289  13.708   8.538   3.139
64798SOL     OW96290   6.603   3.915  11.260
64798SOL    HW196291   6.540   3.852  11.294
64798SOL    HW296292   6.553   3.967  11.197
64799SOL     OW96293  10.776   2.182   6.163
64799SOL    HW196294  10.855   2.136   6.191
64799SOL    HW296295  10.712   2.112   6.147
64800SOL     OW96296   2.305  12.922  14.545
64800SOL    HW196297   2.261  12.898  14.626
64800SOL    HW296298   2.240  12.907  14.477
64801SOL     OW96299  12.407   3.936  10.322
64801SOL    HW196300  12.428   4.025  10.294
64801SOL    HW296301  12.344   3.947  10.393
64802SOL     OW96302   3.159  13.922   7.769
64802SOL    HW196303   3.156  13.863   7.694
64802SOL    HW296304   3.241  13.971   7.758
64803SOL     OW96305   6.583  11.771   2.270
64803SOL    HW196306   6.539  11.851   2.298
64803SOL    HW296307   6.596  11.781   2.176
64804SOL     OW96308  13.894   2.181  14.007
64804SOL    HW196309  13.893   2.150  14.098
64804SOL    HW296310  13.982   2.161  13.976
64805SOL     OW96311   2.774  10.717  11.192
64805SOL    HW196312   2.729  10.698  11.110
64805SOL    HW296313   2.863  10.741  11.166
64806SOL     OW96314   0.495  10.135  11.854
64806SOL    HW196315   0.401  10.120  11.845
64806SOL    HW296316   0.522  10.077  11.925
64807SOL     OW96317  10.889   4.826  11.410
64807SOL    HW196318  10.901   4.795  11.321
64807SOL    HW296319  10.902   4.921  11.405
64808SOL     OW96320   4.914  12.998   5.982
64808SOL    HW196321   4.961  13.069   5.938
64808SOL    HW296322   4.841  13.041   6.026
64809SOL     OW96323   2.191   1.834   2.501
64809SOL    HW196324   2.283   1.848   2.521
64809SOL    HW296325   2.157   1.921   2.481
64810SOL     OW96326  11.963   0.040   1.892
64810SOL    HW196327  12.011   0.004   1.967
64810SOL    HW296328  11.922   0.120   1.925
64811SOL     OW96329  14.842  11.852  13.502
64811SOL    HW196330   0.050  11.847  13.466
64811SOL    HW296331  14.853  11.887  13.590
64812SOL     OW96332   7.691  14.659   4.280
64812SOL    HW196333   7.650  14.579   4.247
64812SOL    HW296334   7.645  14.678   4.362
64813SOL     OW96335   5.786  10.472   7.297
64813SOL    HW196336   5.823  10.428   7.374
64813SOL    HW296337   5.715  10.526   7.332
64814SOL     OW96338  12.747   7.261   4.732
64814SOL    HW196339  12.662   7.217   4.732
64814SOL    HW296340  12.730   7.348   4.769
64815SOL     OW96341   1.482  12.275   3.267
64815SOL    HW196342   1.416  12.343   3.278
64815SOL    HW296343   1.562  12.312   3.305
64816SOL     OW96344   3.228   7.285   0.555
64816SOL    HW196345   3.208   7.254   0.644
64816SOL    HW296346   3.160   7.247   0.500
64817SOL     OW96347   5.696  10.528   7.061
64817SOL    HW196348   5.694  10.622   7.045
64817SOL    HW296349   5.747  10.518   7.142
64818SOL     OW96350  14.210   9.447  14.577
64818SOL    HW196351  14.288   9.429  14.525
64818SOL    HW296352  14.223   9.535  14.611
64819SOL     OW96353   2.633  10.807   6.363
64819SOL    HW196354   2.685  10.766   6.431
64819SOL    HW296355   2.547  10.765   6.369
64820SOL     OW96356  14.872  12.043  11.444
64820SOL    HW196357  14.787  12.085  11.440
64820SOL    HW296358   0.002  12.017  11.536
64821SOL     OW96359   4.173   4.288   8.880
64821SOL    HW196360   4.198   4.350   8.812
64821SOL    HW296361   4.122   4.339   8.943
64822SOL     OW96362   2.953   2.908   9.690
64822SOL    HW196363   2.926   2.996   9.665
64822SOL    HW296364   2.995   2.872   9.611
64823SOL     OW96365  13.362  10.240   4.352
64823SOL    HW196366  13.395  10.254   4.441
64823SOL    HW296367  13.282  10.189   4.364
64824SOL     OW96368  11.247   8.367   7.859
64824SOL    HW196369  11.237   8.377   7.954
64824SOL    HW296370  11.178   8.305   7.834
64825SOL     OW96371   2.081  13.044   4.693
64825SOL    HW196372   2.088  13.064   4.599
64825SOL    HW296373   2.098  12.950   4.699
64826SOL     OW96374   5.673   8.592   2.326
64826SOL    HW196375   5.620   8.619   2.401
64826SOL    HW296376   5.662   8.663   2.263
64827SOL     OW96377  12.114  10.786  13.179
64827SOL    HW196378  12.161  10.766  13.260
64827SOL    HW296379  12.156  10.731  13.113
64828SOL     OW96380   5.213   2.791   4.657
64828SOL    HW196381   5.153   2.753   4.722
64828SOL    HW296382   5.165   2.783   4.574
64829SOL     OW96383  14.059  11.061   9.230
64829SOL    HW196384  14.136  11.102   9.270
64829SOL    HW296385  14.090  10.977   9.197
64830SOL     OW96386   1.482   8.114  11.950
64830SOL    HW196387   1.396   8.104  11.992
64830SOL    HW296388   1.523   8.187  11.997
64831SOL     OW96389  13.827  12.236   1.928
64831SOL    HW196390  13.794  12.309   1.981
64831SOL    HW296391  13.751  12.178   1.920
64832SOL     OW96392  11.662   0.750  10.082
64832SOL    HW196393  11.696   0.689  10.147
64832SOL    HW296394  11.567   0.741  10.088
64833SOL     OW96395   6.203   4.184   9.132
64833SOL    HW196396   6.231   4.096   9.156
64833SOL    HW296397   6.209   4.235   9.214
64834SOL     OW96398  12.470   0.260   2.181
64834SOL    HW196399  12.401   0.256   2.114
64834SOL    HW296400  12.444   0.193   2.245
64835SOL     OW96401   9.654  14.187   9.015
64835SOL    HW196402   9.609  14.225   8.940
64835SOL    HW296403   9.590  14.129   9.056
64836SOL     OW96404   2.956   6.438   6.843
64836SOL    HW196405   2.861   6.441   6.834
64836SOL    HW296406   2.974   6.351   6.880
64837SOL     OW96407   6.241   0.092   0.333
64837SOL    HW196408   6.178   0.109   0.263
64837SOL    HW296409   6.318   0.057   0.289
64838SOL     OW96410  10.781   2.791   6.453
64838SOL    HW196411  10.743   2.718   6.502
64838SOL    HW296412  10.839   2.749   6.390
64839SOL     OW96413   8.925   2.185   1.261
64839SOL    HW196414   8.833   2.179   1.285
64839SOL    HW296415   8.940   2.278   1.244
64840SOL     OW96416   2.326   2.002   8.521
64840SOL    HW196417   2.318   2.046   8.606
64840SOL    HW296418   2.291   2.065   8.458
64841SOL     OW96419   0.385   3.709  11.074
64841SOL    HW196420   0.320   3.779  11.065
64841SOL    HW296421   0.428   3.727  11.157
64842SOL     OW96422  12.550  10.459   3.694
64842SOL    HW196423  12.543  10.547   3.656
64842SOL    HW296424  12.629  10.422   3.655
64843SOL     OW96425  10.610  13.201   0.182
64843SOL    HW196426  10.570  13.171   0.264
64843SOL    HW296427  10.698  13.164   0.184
64844SOL     OW96428   8.347   8.732  14.129
64844SOL    HW196429   8.434   8.771  14.116
64844SOL    HW296430   8.337   8.671  14.056
64845SOL     OW96431  12.613   7.150   5.417
64845SOL    HW196432  12.611   7.238   5.457
64845SOL    HW296433  12.640   7.092   5.488
64846SOL     OW96434  13.164   1.839   3.468
64846SOL    HW196435  13.095   1.876   3.523
64846SOL    HW296436  13.220   1.913   3.446
64847SOL     OW96437   1.829  11.204   3.781
64847SOL    HW196438   1.854  11.226   3.871
64847SOL    HW296439   1.822  11.288   3.736
64848SOL     OW96440  11.926   5.195  11.954
64848SOL    HW196441  11.952   5.193  11.862
64848SOL    HW296442  11.854   5.132  11.960
64849SOL     OW96443  12.350   8.963  14.425
64849SOL    HW196444  12.390   9.000  14.347
64849SOL    HW296445  12.342   9.037  14.486
64850SOL     OW96446  12.141   6.344   9.299
64850SOL    HW196447  12.066   6.371   9.352
64850SOL    HW296448  12.210   6.406   9.322
64851SOL     OW96449  14.746   9.739   0.641
64851SOL    HW196450  14.778   9.651   0.663
64851SOL    HW296451  14.795   9.763   0.562
64852SOL     OW96452   9.530  13.184   4.212
64852SOL    HW196453   9.521  13.184   4.307
64852SOL    HW296454   9.453  13.230   4.180
64853SOL     OW96455   9.310   5.212   9.380
64853SOL    HW196456   9.331   5.295   9.336
64853SOL    HW296457   9.220   5.194   9.356
64854SOL     OW96458  13.426   3.895   2.171
64854SOL    HW196459  13.391   3.881   2.082
64854SOL    HW296460  13.385   3.827   2.223
64855SOL     OW96461   1.907   4.583   4.301
64855SOL    HW196462   1.927   4.598   4.394
64855SOL    HW296463   1.874   4.668   4.270
64856SOL     OW96464  10.842   0.571  10.759
64856SOL    HW196465  10.931   0.581  10.725
64856SOL    HW296466  10.817   0.482  10.734
64857SOL     OW96467  10.856   9.748   8.145
64857SOL    HW196468  10.847   9.773   8.053
64857SOL    HW296469  10.792   9.678   8.158
64858SOL     OW96470   4.179  14.628  10.470
64858SOL    HW196471   4.192  14.722  10.456
64858SOL    HW296472   4.136  14.622  10.555
64859SOL     OW96473  10.347  12.823   1.743
64859SOL    HW196474  10.304  12.748   1.786
64859SOL    HW296475  10.415  12.783   1.688
64860SOL     OW96476   0.277   1.093   9.014
64860SOL    HW196477   0.240   1.010   8.984
64860SOL    HW296478   0.370   1.074   9.028
64861SOL     OW96479   4.613   8.376  13.728
64861SOL    HW196480   4.616   8.454  13.784
64861SOL    HW296481   4.702   8.369  13.693
64862SOL     OW96482   7.256   6.268  13.556
64862SOL    HW196483   7.202   6.329  13.506
64862SOL    HW296484   7.340   6.313  13.567
64863SOL     OW96485   4.954   9.215   8.816
64863SOL    HW196486   5.005   9.293   8.793
64863SOL    HW296487   4.980   9.149   8.753
64864SOL     OW96488   0.077  14.095  14.128
64864SOL    HW196489   0.156  14.129  14.168
64864SOL    HW296490   0.083  14.124  14.036
64865SOL     OW96491  13.577   5.300  11.447
64865SOL    HW196492  13.529   5.224  11.416
64865SOL    HW296493  13.546   5.372  11.392
64866SOL     OW96494   7.770   0.617  14.759
64866SOL    HW196495   7.755   0.523  14.749
64866SOL    HW296496   7.807   0.627  14.847
64867SOL     OW96497   9.245   0.672   9.528
64867SOL    HW196498   9.340   0.662   9.542
64867SOL    HW296499   9.231   0.638   9.440
64868SOL     OW96500  12.581  14.644   6.902
64868SOL    HW196501  12.620  14.609   6.821
64868SOL    HW296502  12.600  14.576   6.967
64869SOL     OW96503  12.697   9.432  14.514
64869SOL    HW196504  12.698   9.482  14.432
64869SOL    HW296505  12.743   9.488  14.576
64870SOL     OW96506  12.460  10.675   3.554
64870SOL    HW196507  12.507  10.758   3.540
64870SOL    HW296508  12.475  10.626   3.473
64871SOL     OW96509   8.352   6.855   4.057
64871SOL    HW196510   8.357   6.950   4.058
64871SOL    HW296511   8.266   6.836   4.021
64872SOL     OW96512  13.985   7.248   5.170
64872SOL    HW196513  13.950   7.303   5.240
64872SOL    HW296514  13.932   7.269   5.094
64873SOL     OW96515   6.945   5.531   5.794
64873SOL    HW196516   6.868   5.504   5.744
64873SOL    HW296517   6.920   5.614   5.834
64874SOL     OW96518   1.123   3.133  13.147
64874SOL    HW196519   1.031   3.132  13.123
64874SOL    HW296520   1.127   3.086  13.230
64875SOL     OW96521   0.868   2.713   9.443
64875SOL    HW196522   0.877   2.622   9.470
64875SOL    HW296523   0.803   2.711   9.373
64876SOL     OW96524   6.982  11.337  14.195
64876SOL    HW196525   6.954  11.351  14.285
64876SOL    HW296526   6.960  11.418  14.149
64877SOL     OW96527  14.424  11.847   2.483
64877SOL    HW196528  14.370  11.772   2.509
64877SOL    HW296529  14.508  11.833   2.528
64878SOL     OW96530   0.334   3.038   3.256
64878SOL    HW196531   0.364   3.047   3.347
64878SOL    HW296532   0.344   3.125   3.219
64879SOL     OW96533  11.306   1.645   5.427
64879SOL    HW196534  11.327   1.685   5.342
64879SOL    HW296535  11.225   1.596   5.411
64880SOL     OW96536  10.777  10.068  12.291
64880SOL    HW196537  10.779  10.117  12.208
64880SOL    HW296538  10.867  10.041  12.305
64881SOL     OW96539   3.372  14.506   0.299
64881SOL    HW196540   3.353  14.554   0.380
64881SOL    HW296541   3.311  14.542   0.235
64882SOL     OW96542   9.512   4.187   4.149
64882SOL    HW196543   9.493   4.225   4.063
64882SOL    HW296544   9.607   4.180   4.152
64883SOL     OW96545   4.970   0.793   5.823
64883SOL    HW196546   4.881   0.791   5.858
64883SOL    HW296547   5.014   0.861   5.875
64884SOL     OW96548   4.764  13.364   3.185
64884SOL    HW196549   4.796  13.400   3.268
64884SOL    HW296550   4.712  13.288   3.211
64885SOL     OW96551  11.601   1.652   9.954
64885SOL    HW196552  11.518   1.685   9.919
64885SOL    HW296553  11.578   1.567   9.993
64886SOL     OW96554  13.918  12.399  11.625
64886SOL    HW196555  13.919  12.311  11.661
64886SOL    HW296556  13.977  12.449  11.681
64887SOL     OW96557   5.458   6.137   4.699
64887SOL    HW196558   5.511   6.200   4.651
64887SOL    HW296559   5.368   6.168   4.689
64888SOL     OW96560   0.782   6.867   0.467
64888SOL    HW196561   0.717   6.886   0.400
64888SOL    HW296562   0.847   6.937   0.459
64889SOL     OW96563   9.105   1.886   4.397
64889SOL    HW196564   9.050   1.808   4.393
64889SOL    HW296565   9.080   1.929   4.478
64890SOL     OW96566   1.497  13.694   9.402
64890SOL    HW196567   1.417  13.662   9.443
64890SOL    HW296568   1.530  13.761   9.462
64891SOL     OW96569  10.620   6.179   3.707
64891SOL    HW196570  10.638   6.238   3.634
64891SOL    HW296571  10.682   6.207   3.775
64892SOL     OW96572   3.413   6.787   0.626
64892SOL    HW196573   3.457   6.820   0.547
64892SOL    HW296574   3.473   6.722   0.662
64893SOL     OW96575   5.176  10.925   6.818
64893SOL    HW196576   5.126  10.909   6.897
64893SOL    HW296577   5.245  10.859   6.819
64894SOL     OW96578   2.341  11.971  13.471
64894SOL    HW196579   2.363  11.957  13.563
64894SOL    HW296580   2.422  12.004  13.432
64895SOL     OW96581   8.904   3.140   2.741
64895SOL    HW196582   8.875   3.222   2.783
64895SOL    HW296583   8.826   3.085   2.740
64896SOL     OW96584  11.502  13.830   0.781
64896SOL    HW196585  11.480  13.923   0.770
64896SOL    HW296586  11.528  13.823   0.873
64897SOL     OW96587  13.446   5.367   8.182
64897SOL    HW196588  13.402   5.284   8.198
64897SOL    HW296589  13.434   5.417   8.263
64898SOL     OW96590   7.231   0.710   7.554
64898SOL    HW196591   7.229   0.751   7.640
64898SOL    HW296592   7.168   0.760   7.502
64899SOL     OW96593   6.279   3.855   7.748
64899SOL    HW196594   6.289   3.805   7.667
64899SOL    HW296595   6.354   3.828   7.802
64900SOL     OW96596   4.020  12.202   1.704
64900SOL    HW196597   4.014  12.168   1.793
64900SOL    HW296598   3.934  12.183   1.665
64901SOL     OW96599   4.852   0.546   7.449
64901SOL    HW196600   4.856   0.451   7.439
64901SOL    HW296601   4.849   0.560   7.544
64902SOL     OW96602   9.562   5.941   5.686
64902SOL    HW196603   9.612   5.937   5.605
64902SOL    HW296604   9.571   5.854   5.724
64903SOL     OW96605   0.026  11.965   2.617
64903SOL    HW196606   0.099  12.009   2.573
64903SOL    HW296607   0.051  11.873   2.620
64904SOL     OW96608   4.820  12.486  14.401
64904SOL    HW196609   4.753  12.421  14.379
64904SOL    HW296610   4.882  12.437  14.456
64905SOL     OW96611   4.844  14.686   1.731
64905SOL    HW196612   4.796  14.682   1.649
64905SOL    HW296613   4.844  14.779   1.755
64906SOL     OW96614   6.312   9.485  13.796
64906SOL    HW196615   6.239   9.424  13.812
64906SOL    HW296616   6.277   9.570  13.822
64907SOL     OW96617   3.217   3.979  10.637
64907SOL    HW196618   3.269   3.985  10.557
64907SOL    HW296619   3.236   4.060  10.684
64908SOL     OW96620  13.454   2.727  13.243
64908SOL    HW196621  13.529   2.710  13.299
64908SOL    HW296622  13.424   2.815  13.269
64909SOL     OW96623   6.764   1.004  14.048
64909SOL    HW196624   6.721   0.922  14.022
64909SOL    HW296625   6.762   1.058  13.969
64910SOL     OW96626   3.594   0.031   5.270
64910SOL    HW196627   3.594   0.119   5.307
64910SOL    HW296628   3.525   0.032   5.204
64911SOL     OW96629  13.135   1.679   3.248
64911SOL    HW196630  13.149   1.738   3.322
64911SOL    HW296631  13.187   1.601   3.270
64912SOL     OW96632   7.212   4.476   3.892
64912SOL    HW196633   7.117   4.464   3.887
64912SOL    HW296634   7.230   4.550   3.834
64913SOL     OW96635   8.662  11.231   5.118
64913SOL    HW196636   8.726  11.268   5.179
64913SOL    HW296637   8.678  11.137   5.120
64914SOL     OW96638   7.285   9.424   8.331
64914SOL    HW196639   7.269   9.335   8.363
64914SOL    HW296640   7.375   9.443   8.360
64915SOL     OW96641  10.996  14.638   5.413
64915SOL    HW196642  11.006  14.621   5.506
64915SOL    HW296643  11.068  14.591   5.371
64916SOL     OW96644   2.768   2.639   7.396
64916SOL    HW196645   2.854   2.614   7.363
64916SOL    HW296646   2.735   2.701   7.331
64917SOL     OW96647   0.697   0.830   1.485
64917SOL    HW196648   0.652   0.879   1.554
64917SOL    HW296649   0.788   0.858   1.491
64918SOL     OW96650   3.282  11.894  13.287
64918SOL    HW196651   3.236  11.811  13.301
64918SOL    HW296652   3.351  11.874  13.224
64919SOL     OW96653  13.878   5.508   0.830
64919SOL    HW196654  13.964   5.531   0.794
64919SOL    HW296655  13.887   5.416   0.855
64920SOL     OW96656   4.960   4.345   8.013
64920SOL    HW196657   4.971   4.408   8.084
64920SOL    HW296658   4.957   4.260   8.057
64921SOL     OW96659  13.922  13.339   4.519
64921SOL    HW196660  13.963  13.410   4.570
64921SOL    HW296661  13.905  13.271   4.584
64922SOL     OW96662   5.077   8.640   1.507
64922SOL    HW196663   5.115   8.719   1.469
64922SOL    HW296664   5.127   8.568   1.468
64923SOL     OW96665   3.054  11.707  12.551
64923SOL    HW196666   3.057  11.752  12.467
64923SOL    HW296667   3.092  11.621  12.534
64924SOL     OW96668   9.134   3.628   5.537
64924SOL    HW196669   9.142   3.701   5.599
64924SOL    HW296670   9.212   3.635   5.481
64925SOL     OW96671   3.801   0.169   9.109
64925SOL    HW196672   3.757   0.154   9.192
64925SOL    HW296673   3.868   0.235   9.128
64926SOL     OW96674   4.605   9.147   9.193
64926SOL    HW196675   4.683   9.099   9.219
64926SOL    HW296676   4.538   9.119   9.256
64927SOL     OW96677   7.936  14.437   3.105
64927SOL    HW196678   7.880  14.508   3.135
64927SOL    HW296679   8.020  14.479   3.085
64928SOL     OW96680   4.271  12.283   1.818
64928SOL    HW196681   4.233  12.218   1.758
64928SOL    HW296682   4.220  12.362   1.802
64929SOL     OW96683   7.846   7.698   7.087
64929SOL    HW196684   7.796   7.771   7.123
64929SOL    HW296685   7.797   7.673   7.008
64930SOL     OW96686  10.316   4.547  11.269
64930SOL    HW196687  10.297   4.568  11.177
64930SOL    HW296688  10.395   4.493  11.266
64931SOL     OW96689   2.630   5.941   9.785
64931SOL    HW196690   2.696   5.872   9.799
64931SOL    HW296691   2.611   5.973   9.873
64932SOL     OW96692   9.144   6.522  12.357
64932SOL    HW196693   9.053   6.497  12.347
64932SOL    HW296694   9.142   6.606  12.403
64933SOL     OW96695   7.427   7.528   2.781
64933SOL    HW196696   7.490   7.458   2.763
64933SOL    HW296697   7.459   7.603   2.732
64934SOL     OW96698   2.277  14.081   1.356
64934SOL    HW196699   2.205  14.143   1.350
64934SOL    HW296700   2.246  14.015   1.419
64935SOL     OW96701   2.752  11.809   8.858
64935SOL    HW196702   2.715  11.729   8.894
64935SOL    HW296703   2.724  11.878   8.920
64936SOL     OW96704  13.228  11.585  13.399
64936SOL    HW196705  13.237  11.499  13.440
64936SOL    HW296706  13.176  11.636  13.461
64937SOL     OW96707  14.729  14.842  14.329
64937SOL    HW196708  14.797  14.775  14.331
64937SOL    HW296709  14.777   0.044  14.342
64938SOL     OW96710   3.598   2.822  13.176
64938SOL    HW196711   3.651   2.901  13.181
64938SOL    HW296712   3.604   2.795  13.084
64939SOL     OW96713  11.514  10.258   1.925
64939SOL    HW196714  11.523  10.306   2.008
64939SOL    HW296715  11.449  10.309   1.875
64940SOL     OW96716  11.844   2.342  14.620
64940SOL    HW196717  11.823   2.349  14.527
64940SOL    HW296718  11.922   2.397  14.630
64941SOL     OW96719   3.275   4.622   1.029
64941SOL    HW196720   3.233   4.663   1.105
64941SOL    HW296721   3.201   4.591   0.976
64942SOL     OW96722   8.067  12.869   8.413
64942SOL    HW196723   8.074  12.910   8.327
64942SOL    HW296724   7.983  12.898   8.448
64943SOL     OW96725   1.537  10.444   7.989
64943SOL    HW196726   1.536  10.354   7.956
64943SOL    HW296727   1.445  10.470   7.990
64944SOL     OW96728   1.021   6.464  11.210
64944SOL    HW196729   0.947   6.452  11.270
64944SOL    HW296730   1.003   6.548  11.168
64945SOL     OW96731   4.885  10.472   8.236
64945SOL    HW196732   4.827  10.432   8.172
64945SOL    HW296733   4.929  10.542   8.188
64946SOL     OW96734   7.734   3.567  14.736
64946SOL    HW196735   7.737   3.546  14.829
64946SOL    HW296736   7.655   3.620  14.725
64947SOL     OW96737  13.569   7.363   2.389
64947SOL    HW196738  13.520   7.433   2.346
64947SOL    HW296739  13.661   7.386   2.374
64948SOL     OW96740   6.873   3.311   7.972
64948SOL    HW196741   6.952   3.349   8.010
64948SOL    HW296742   6.899   3.223   7.945
64949SOL     OW96743  11.171   1.717  10.174
64949SOL    HW196744  11.206   1.632  10.200
64949SOL    HW296745  11.155   1.710  10.080
64950SOL     OW96746   4.660   8.071   7.077
64950SOL    HW196747   4.591   8.122   7.120
64950SOL    HW296748   4.631   8.063   6.986
64951SOL     OW96749   2.349   9.088   2.957
64951SOL    HW196750   2.333   9.131   3.042
64951SOL    HW296751   2.359   8.995   2.979
64952SOL     OW96752   1.208   8.397   6.863
64952SOL    HW196753   1.154   8.362   6.792
64952SOL    HW296754   1.271   8.327   6.882
64953SOL     OW96755   7.683   3.361  12.496
64953SOL    HW196756   7.595   3.396  12.509
64953SOL    HW296757   7.718   3.413  12.423
64954SOL     OW96758   9.459  12.264   6.247
64954SOL    HW196759   9.423  12.284   6.160
64954SOL    HW296760   9.520  12.192   6.232
64955SOL     OW96761   4.599  13.054  12.258
64955SOL    HW196762   4.662  13.122  12.284
64955SOL    HW296763   4.653  12.987  12.216
64956SOL     OW96764  14.060   9.271   9.142
64956SOL    HW196765  14.033   9.321   9.219
64956SOL    HW296766  14.154   9.255   9.156
64957SOL     OW96767   6.847  10.535   1.436
64957SOL    HW196768   6.783  10.606   1.447
64957SOL    HW296769   6.793  10.456   1.427
64958SOL     OW96770  12.904  12.639   0.804
64958SOL    HW196771  12.899  12.729   0.835
64958SOL    HW296772  12.847  12.637   0.727
64959SOL     OW96773   8.914   6.052  12.196
64959SOL    HW196774   8.959   6.136  12.198
64959SOL    HW296775   8.933   6.016  12.110
64960SOL     OW96776   3.989  11.124  10.530
64960SOL    HW196777   4.039  11.165  10.600
64960SOL    HW296778   4.048  11.121  10.456
64961SOL     OW96779   4.923  12.610   0.850
64961SOL    HW196780   4.828  12.626   0.850
64961SOL    HW296781   4.956  12.666   0.920
64962SOL     OW96782   8.861   2.368  11.425
64962SOL    HW196783   8.954   2.362  11.448
64962SOL    HW296784   8.857   2.340  11.334
64963SOL     OW96785   9.888  14.611  11.664
64963SOL    HW196786   9.902  14.584  11.754
64963SOL    HW296787   9.937  14.692  11.655
64964SOL     OW96788   6.816  10.824  12.615
64964SOL    HW196789   6.720  10.822  12.612
64964SOL    HW296790   6.836  10.915  12.638
64965SOL     OW96791  13.923   9.069   3.003
64965SOL    HW196792  13.870   9.061   3.082
64965SOL    HW296793  13.931   8.980   2.969
64966SOL     OW96794   6.442   8.689   9.254
64966SOL    HW196795   6.437   8.735   9.170
64966SOL    HW296796   6.514   8.731   9.300
64967SOL     OW96797  10.759   2.203  12.872
64967SOL    HW196798  10.832   2.161  12.826
64967SOL    HW296799  10.774   2.183  12.965
64968SOL     OW96800  10.745   0.877  13.533
64968SOL    HW196801  10.763   0.861  13.441
64968SOL    HW296802  10.688   0.806  13.559
64969SOL     OW96803   9.636   1.660  13.575
64969SOL    HW196804   9.550   1.702  13.581
64969SOL    HW296805   9.621   1.583  13.522
64970SOL     OW96806  13.975   6.281   0.505
64970SOL    HW196807  13.947   6.212   0.445
64970SOL    HW296808  14.070   6.271   0.510
64971SOL     OW96809   8.456   1.080   8.412
64971SOL    HW196810   8.484   1.171   8.406
64971SOL    HW296811   8.529   1.035   8.453
64972SOL     OW96812   0.160  12.340   8.466
64972SOL    HW196813   0.090  12.384   8.514
64972SOL    HW296814   0.164  12.386   8.382
64973SOL     OW96815   6.904   3.271  13.581
64973SOL    HW196816   6.871   3.354  13.614
64973SOL    HW296817   6.929   3.222  13.659
64974SOL     OW96818   4.243  14.324   0.080
64974SOL    HW196819   4.167  14.351   0.028
64974SOL    HW296820   4.206  14.277   0.155
64975SOL     OW96821  11.359   1.841  11.207
64975SOL    HW196822  11.453   1.846  11.188
64975SOL    HW296823  11.324   1.924  11.175
64976SOL     OW96824   1.842   0.275   1.332
64976SOL    HW196825   1.792   0.345   1.373
64976SOL    HW296826   1.810   0.195   1.373
64977SOL     OW96827   6.686  11.417   2.226
64977SOL    HW196828   6.749  11.346   2.238
64977SOL    HW296829   6.618  11.380   2.171
64978SOL     OW96830  10.895   5.581  11.499
64978SOL    HW196831  10.858   5.631  11.425
64978SOL    HW296832  10.979   5.623  11.517
64979SOL     OW96833   2.200   1.414  13.655
64979SOL    HW196834   2.250   1.491  13.628
64979SOL    HW296835   2.120   1.450  13.694
64980SOL     OW96836   1.093   6.189  13.036
64980SOL    HW196837   1.150   6.263  13.057
64980SOL    HW296838   1.039   6.177  13.114
64981SOL     OW96839  10.258  10.108   4.690
64981SOL    HW196840  10.329  10.098   4.627
64981SOL    HW296841  10.298  10.151   4.765
64982SOL     OW96842   0.107   1.124  14.121
64982SOL    HW196843   0.154   1.057  14.072
64982SOL    HW296844   0.158   1.204  14.110
64983SOL     OW96845  11.177   3.185   8.267
64983SOL    HW196846  11.265   3.195   8.306
64983SOL    HW296847  11.120   3.171   8.342
64984SOL     OW96848  12.299  11.603   4.150
64984SOL    HW196849  12.339  11.555   4.077
64984SOL    HW296850  12.366  11.665   4.178
64985SOL     OW96851   6.509  12.372   5.486
64985SOL    HW196852   6.538  12.344   5.399
64985SOL    HW296853   6.582  12.350   5.544
64986SOL     OW96854   0.863   8.910   0.774
64986SOL    HW196855   0.944   8.947   0.809
64986SOL    HW296856   0.876   8.815   0.776
64987SOL     OW96857   2.292   4.486   0.312
64987SOL    HW196858   2.338   4.561   0.274
64987SOL    HW296859   2.261   4.436   0.237
64988SOL     OW96860   1.077   7.679   7.330
64988SOL    HW196861   1.018   7.722   7.268
64988SOL    HW296862   1.160   7.671   7.282
64989SOL     OW96863   8.057   6.199   2.678
64989SOL    HW196864   7.985   6.197   2.740
64989SOL    HW296865   8.056   6.113   2.637
64990SOL     OW96866   0.186   4.087   1.592
64990SOL    HW196867   0.139   4.158   1.547
64990SOL    HW296868   0.235   4.132   1.661
64991SOL     OW96869  13.476  11.762   7.553
64991SOL    HW196870  13.560  11.750   7.508
64991SOL    HW296871  13.455  11.677   7.591
64992SOL     OW96872  12.464  12.369   3.442
64992SOL    HW196873  12.481  12.421   3.364
64992SOL    HW296874  12.401  12.303   3.414
64993SOL     OW96875   4.480   7.560  10.424
64993SOL    HW196876   4.513   7.552  10.513
64993SOL    HW296877   4.508   7.480  10.380
64994SOL     OW96878   4.294  13.845   8.249
64994SOL    HW196879   4.223  13.818   8.307
64994SOL    HW296880   4.294  13.780   8.179
64995SOL     OW96881   4.534   7.552   2.396
64995SOL    HW196882   4.592   7.481   2.371
64995SOL    HW296883   4.454   7.537   2.345
64996SOL     OW96884   2.223   1.424   9.859
64996SOL    HW196885   2.300   1.414   9.803
64996SOL    HW296886   2.196   1.334   9.878
64997SOL     OW96887   8.376   1.457   6.801
64997SOL    HW196888   8.299   1.512   6.789
64997SOL    HW296889   8.418   1.456   6.715
64998SOL     OW96890   5.583  13.259  10.531
64998SOL    HW196891   5.671  13.296  10.523
64998SOL    HW296892   5.596  13.179  10.583
64999SOL     OW96893   9.357   7.875  14.534
64999SOL    HW196894   9.340   7.786  14.505
64999SOL    HW296895   9.399   7.864  14.620
65000SOL     OW96896   2.577   9.795  12.246
65000SOL    HW196897   2.516   9.859  12.208
65000SOL    HW296898   2.553   9.793  12.339
65001SOL     OW96899   7.499  10.893  14.837
65001SOL    HW196900   7.463  10.825   0.013
65001SOL    HW296901   7.439  10.966  14.845
65002SOL     OW96902   2.212  12.004   8.440
65002SOL    HW196903   2.204  11.909   8.455
65002SOL    HW296904   2.290  12.030   8.488
65003SOL     OW96905   6.705  12.342  13.969
65003SOL    HW196906   6.667  12.356  14.056
65003SOL    HW296907   6.631  12.352  13.909
65004SOL     OW96908  10.252   3.318   0.429
65004SOL    HW196909  10.202   3.264   0.490
65004SOL    HW296910  10.193   3.333   0.355
65005SOL     OW96911   4.579  11.114   9.789
65005SOL    HW196912   4.595  11.208   9.799
65005SOL    HW296913   4.615  11.075   9.868
65006SOL     OW96914   2.898   7.416   5.087
65006SOL    HW196915   2.969   7.377   5.037
65006SOL    HW296916   2.852   7.341   5.125
65007SOL     OW96917  10.704   3.295  10.986
65007SOL    HW196918  10.762   3.370  10.981
65007SOL    HW296919  10.647   3.304  10.910
65008SOL     OW96920  10.426   1.093   6.821
65008SOL    HW196921  10.332   1.086   6.801
65008SOL    HW296922  10.470   1.081   6.737
65009SOL     OW96923  13.839   5.905   5.482
65009SOL    HW196924  13.816   5.986   5.437
65009SOL    HW296925  13.764   5.847   5.470
65010SOL     OW96926  13.837   4.046  12.059
65010SOL    HW196927  13.794   4.040  11.974
65010SOL    HW296928  13.765   4.052  12.122
65011SOL     OW96929   3.328   8.449   0.881
65011SOL    HW196930   3.349   8.493   0.799
65011SOL    HW296931   3.238   8.476   0.900
65012SOL     OW96932  12.159   9.482  14.581
65012SOL    HW196933  12.252   9.503  14.591
65012SOL    HW296934  12.144   9.408  14.641
65013SOL     OW96935  11.812   5.903  14.697
65013SOL    HW196936  11.764   5.889  14.616
65013SOL    HW296937  11.815   5.817  14.739
65014SOL     OW96938  11.036   9.926   6.513
65014SOL    HW196939  11.053   9.840   6.551
65014SOL    HW296940  11.087   9.987   6.567
65015SOL     OW96941  10.365  12.115   5.717
65015SOL    HW196942  10.379  12.033   5.670
65015SOL    HW296943  10.273  12.137   5.701
65016SOL     OW96944   8.311   3.114   0.603
65016SOL    HW196945   8.401   3.092   0.627
65016SOL    HW296946   8.298   3.075   0.517
65017SOL     OW96947  12.890  10.233   5.746
65017SOL    HW196948  12.834  10.309   5.756
65017SOL    HW296949  12.941  10.251   5.667
65018SOL     OW96950   9.525   2.345   6.132
65018SOL    HW196951   9.566   2.411   6.077
65018SOL    HW296952   9.556   2.364   6.221
65019SOL     OW96953  11.896  12.891   2.670
65019SOL    HW196954  11.960  12.835   2.714
65019SOL    HW296955  11.917  12.882   2.577
65020SOL     OW96956   8.896   0.924  14.456
65020SOL    HW196957   8.972   0.979  14.475
65020SOL    HW296958   8.825   0.964  14.506
65021SOL     OW96959   8.717   9.367   1.499
65021SOL    HW196960   8.663   9.437   1.464
65021SOL    HW296961   8.695   9.290   1.446
65022SOL     OW96962   5.519   3.001   0.400
65022SOL    HW196963   5.433   3.019   0.440
65022SOL    HW296964   5.534   2.908   0.418
65023SOL     OW96965  11.648   4.265  10.499
65023SOL    HW196966  11.573   4.304  10.455
65023SOL    HW296967  11.636   4.170  10.488
65024SOL     OW96968  12.145   6.833   9.727
65024SOL    HW196969  12.050   6.834   9.735
65024SOL    HW296970  12.176   6.889   9.798
65025SOL     OW96971   1.775   9.732  10.042
65025SOL    HW196972   1.813   9.807  10.087
65025SOL    HW296973   1.798   9.657  10.097
65026SOL     OW96974   6.717  10.788   9.155
65026SOL    HW196975   6.703  10.804   9.248
65026SOL    HW296976   6.650  10.841   9.111
65027SOL     OW96977   5.479   8.764   0.350
65027SOL    HW196978   5.447   8.681   0.315
65027SOL    HW296979   5.462   8.827   0.281
65028SOL     OW96980   6.701   8.848   9.323
65028SOL    HW196981   6.773   8.885   9.374
65028SOL    HW296982   6.714   8.883   9.234
65029SOL     OW96983   4.651  12.447   3.956
65029SOL    HW196984   4.604  12.382   3.904
65029SOL    HW296985   4.694  12.503   3.891
65030SOL     OW96986   3.750   8.843  11.432
65030SOL    HW196987   3.655   8.852  11.425
65030SOL    HW296988   3.768   8.751  11.413
65031SOL     OW96989   8.797   0.499   3.384
65031SOL    HW196990   8.836   0.573   3.429
65031SOL    HW296991   8.807   0.426   3.445
65032SOL     OW96992   8.056  11.546   5.903
65032SOL    HW196993   7.988  11.598   5.946
65032SOL    HW296994   8.024  11.535   5.813
65033SOL     OW96995   3.188  13.570   6.870
65033SOL    HW196996   3.263  13.512   6.859
65033SOL    HW296997   3.193  13.598   6.961
65034SOL     OW96998   7.184   6.508  14.405
65034SOL    HW196999   7.238   6.549  14.337
65034SOL    HW297000   7.181   6.573  14.475
65035SOL     OW97001  10.856   0.162  12.132
65035SOL    HW197002  10.853   0.132  12.041
65035SOL    HW297003  10.804   0.242  12.132
65036SOL     OW97004   5.038  12.995   8.400
65036SOL    HW197005   5.130  12.971   8.411
65036SOL    HW297006   4.996  12.962   8.479
65037SOL     OW97007   4.169   8.458   9.036
65037SOL    HW197008   4.224   8.536   9.031
65037SOL    HW297009   4.221   8.389   8.996
65038SOL     OW97010   9.156  14.773  14.800
65038SOL    HW197011   9.219  14.776  14.728
65038SOL    HW297012   9.143  14.680  14.816
65039SOL     OW97013  13.473  14.729   3.753
65039SOL    HW197014  13.434  14.704   3.837
65039SOL    HW297015  13.417  14.686   3.688
65040SOL     OW97016   5.535  10.580   6.640
65040SOL    HW197017   5.629  10.581   6.661
65040SOL    HW297018   5.528  10.636   6.562
65041SOL     OW97019   4.326   8.045   2.292
65041SOL    HW197020   4.257   8.012   2.235
65041SOL    HW297021   4.323   7.990   2.370
65042SOL     OW97022   0.754  10.172   6.966
65042SOL    HW197023   0.704  10.106   6.919
65042SOL    HW297024   0.689  10.235   6.997
65043SOL     OW97025   3.049   8.801   9.807
65043SOL    HW197026   3.095   8.844   9.880
65043SOL    HW297027   3.050   8.708   9.830
65044SOL     OW97028  12.829   1.652  14.387
65044SOL    HW197029  12.910   1.685  14.426
65044SOL    HW297030  12.760   1.692  14.439
65045SOL     OW97031  11.675   1.450  12.867
65045SOL    HW197032  11.741   1.518  12.865
65045SOL    HW297033  11.708   1.382  12.808
65046SOL     OW97034   6.473  10.860  14.048
65046SOL    HW197035   6.495  10.944  14.087
65046SOL    HW297036   6.556  10.812  14.046
65047SOL     OW97037  10.579  14.300   0.003
65047SOL    HW197038  10.586  14.320   0.097
65047SOL    HW297039  10.653  14.346  14.843
65048SOL     OW97040   4.722   6.359  13.374
65048SOL    HW197041   4.750   6.446  13.344
65048SOL    HW297042   4.682   6.319  13.297
65049SOL     OW97043  13.837   9.919   6.499
65049SOL    HW197044  13.925   9.916   6.538
65049SOL    HW297045  13.849   9.969   6.418
65050SOL     OW97046  12.764   5.609  13.690
65050SOL    HW197047  12.673   5.637  13.678
65050SOL    HW297048  12.808   5.684  13.729
65051SOL     OW97049   8.570  14.835   9.311
65051SOL    HW197050   8.532  14.769   9.369
65051SOL    HW297051   8.649  14.793   9.277
65052SOL     OW97052  14.379  10.340   2.328
65052SOL    HW197053  14.286  10.354   2.349
65052SOL    HW297054  14.395  10.249   2.352
65053SOL     OW97055   0.315   3.781   4.320
65053SOL    HW197056   0.315   3.723   4.396
65053SOL    HW297057   0.334   3.867   4.356
65054SOL     OW97058   7.003   4.862   9.010
65054SOL    HW197059   6.940   4.928   9.039
65054SOL    HW297060   6.991   4.789   9.072
65055SOL     OW97061   0.660   5.178   7.853
65055SOL    HW197062   0.668   5.163   7.947
65055SOL    HW297063   0.566   5.183   7.836
65056SOL     OW97064   6.707  14.810  10.303
65056SOL    HW197065   6.735  14.724  10.271
65056SOL    HW297066   6.701  14.800  10.398
65057SOL     OW97067   2.035   6.309   7.712
65057SOL    HW197068   2.032   6.232   7.655
65057SOL    HW297069   2.053   6.272   7.799
65058SOL     OW97070  12.372  13.008   8.479
65058SOL    HW197071  12.371  13.097   8.445
65058SOL    HW297072  12.424  13.014   8.560
65059SOL     OW97073  12.602   0.194   0.063
65059SOL    HW197074  12.596   0.137   0.140
65059SOL    HW297075  12.512   0.203   0.032
65060SOL     OW97076  13.071   9.293  11.293
65060SOL    HW197077  13.013   9.319  11.365
65060SOL    HW297078  13.140   9.241  11.335
65061SOL     OW97079  14.563   6.547   8.514
65061SOL    HW197080  14.593   6.488   8.582
65061SOL    HW297081  14.571   6.634   8.553
65062SOL     OW97082   3.477  13.029  13.735
65062SOL    HW197083   3.413  13.081  13.784
65062SOL    HW297084   3.462  12.939  13.762
65063SOL     OW97085   8.082   8.960  12.264
65063SOL    HW197086   8.176   8.946  12.267
65063SOL    HW297087   8.049   8.894  12.203
65064SOL     OW97088   3.439   7.776   0.872
65064SOL    HW197089   3.511   7.742   0.925
65064SOL    HW297090   3.457   7.870   0.864
65065SOL     OW97091  14.268  10.943   8.674
65065SOL    HW197092  14.194  11.003   8.677
65065SOL    HW297093  14.250  10.886   8.599
65066SOL     OW97094  11.093   0.256   2.248
65066SOL    HW197095  11.020   0.220   2.198
65066SOL    HW297096  11.165   0.261   2.186
65067SOL     OW97097   3.907   9.187   7.777
65067SOL    HW197098   3.903   9.142   7.692
65067SOL    HW297099   3.905   9.116   7.841
65068SOL     OW97100   3.020  13.226   8.827
65068SOL    HW197101   3.013  13.131   8.839
65068SOL    HW297102   2.988  13.263   8.910
65069SOL     OW97103   5.012   5.677   0.719
65069SOL    HW197104   4.989   5.770   0.717
65069SOL    HW297105   5.089   5.670   0.662
65070SOL     OW97106   3.370   7.948  13.638
65070SOL    HW197107   3.310   7.878  13.612
65070SOL    HW297108   3.319   8.028  13.630
65071SOL     OW97109   2.848   1.142  10.395
65071SOL    HW197110   2.816   1.146  10.485
65071SOL    HW297111   2.770   1.126  10.342
65072SOL     OW97112   9.567   9.111   8.480
65072SOL    HW197113   9.601   9.156   8.558
65072SOL    HW297114   9.591   9.167   8.407
65073SOL     OW97115   9.944  13.856   6.141
65073SOL    HW197116   9.906  13.936   6.178
65073SOL    HW297117   9.874  13.819   6.088
65074SOL     OW97118   0.006   8.664   7.918
65074SOL    HW197119  14.832   8.604   7.868
65074SOL    HW297120   0.068   8.608   7.964
65075SOL     OW97121   3.090   6.604   2.321
65075SOL    HW197122   3.095   6.508   2.329
65075SOL    HW297123   3.001   6.625   2.348
65076SOL     OW97124  11.794   5.787   3.430
65076SOL    HW197125  11.824   5.768   3.519
65076SOL    HW297126  11.701   5.763   3.431
65077SOL     OW97127   2.757  10.096  10.431
65077SOL    HW197128   2.819  10.131  10.495
65077SOL    HW297129   2.675  10.088  10.480
65078SOL     OW97130  10.016   2.742   9.036
65078SOL    HW197131   9.943   2.690   9.068
65078SOL    HW297132  10.087   2.679   9.023
65079SOL     OW97133   5.890  11.159   9.909
65079SOL    HW197134   5.905  11.084   9.967
65079SOL    HW297135   5.812  11.201   9.944
65080SOL     OW97136  10.310   6.742   0.196
65080SOL    HW197137  10.279   6.809   0.257
65080SOL    HW297138  10.263   6.761   0.114
65081SOL     OW97139   8.854   7.047   0.367
65081SOL    HW197140   8.820   7.131   0.400
65081SOL    HW297141   8.936   7.035   0.414
65082SOL     OW97142   9.479   6.594   0.617
65082SOL    HW197143   9.525   6.676   0.635
65082SOL    HW297144   9.531   6.528   0.664
65083SOL     OW97145   3.122   1.295   4.463
65083SOL    HW197146   3.167   1.377   4.443
65083SOL    HW297147   3.068   1.316   4.539
65084SOL     OW97148  14.006   2.751   7.701
65084SOL    HW197149  14.014   2.833   7.751
65084SOL    HW297150  13.912   2.736   7.694
65085SOL     OW97151   6.933   7.133  12.995
65085SOL    HW197152   6.848   7.104  13.029
65085SOL    HW297153   6.998   7.085  13.046
65086SOL     OW97154   1.701   1.724   0.073
65086SOL    HW197155   1.705   1.769  14.868
65086SOL    HW297156   1.707   1.631   0.051
65087SOL     OW97157  11.221   6.235  12.736
65087SOL    HW197158  11.282   6.179  12.785
65087SOL    HW297159  11.239   6.323  12.768
65088SOL     OW97160   4.507   1.187   1.686
65088SOL    HW197161   4.533   1.221   1.771
65088SOL    HW297162   4.434   1.243   1.658
65089SOL     OW97163  12.055   6.763  10.829
65089SOL    HW197164  12.098   6.848  10.824
65089SOL    HW297165  12.033   6.752  10.921
65090SOL     OW97166   1.754  13.843   6.870
65090SOL    HW197167   1.743  13.834   6.776
65090SOL    HW297168   1.766  13.754   6.902
65091SOL     OW97169   5.900   8.463   6.133
65091SOL    HW197170   5.895   8.388   6.192
65091SOL    HW297171   5.927   8.426   6.049
65092SOL     OW97172  10.195   1.015   2.706
65092SOL    HW197173  10.242   0.932   2.707
65092SOL    HW297174  10.137   1.009   2.630
65093SOL     OW97175   9.088   2.874   3.779
65093SOL    HW197176   9.012   2.860   3.722
65093SOL    HW297177   9.060   2.944   3.838
65094SOL     OW97178  12.610   1.426   1.137
65094SOL    HW197179  12.582   1.342   1.102
65094SOL    HW297180  12.689   1.405   1.187
65095SOL     OW97181   3.225   6.497   1.321
65095SOL    HW197182   3.187   6.568   1.372
65095SOL    HW297183   3.208   6.418   1.372
65096SOL     OW97184  11.846   2.289   2.407
65096SOL    HW197185  11.917   2.353   2.411
65096SOL    HW297186  11.774   2.330   2.457
65097SOL     OW97187  12.500  10.232   2.882
65097SOL    HW197188  12.527  10.321   2.907
65097SOL    HW297189  12.567  10.204   2.819
65098SOL     OW97190   8.009   4.002   2.142
65098SOL    HW197191   7.982   4.069   2.205
65098SOL    HW297192   7.962   3.923   2.171
65099SOL     OW97193   9.383   2.397  11.218
65099SOL    HW197194   9.418   2.457  11.152
65099SOL    HW297195   9.356   2.454  11.290
65100SOL     OW97196   1.664  11.038  13.552
65100SOL    HW197197   1.753  11.003  13.557
65100SOL    HW297198   1.673  11.130  13.575
65101SOL     OW97199   4.476  12.716   2.308
65101SOL    HW197200   4.463  12.625   2.281
65101SOL    HW297201   4.387  12.748   2.323
65102SOL     OW97202   8.120   3.076  11.958
65102SOL    HW197203   8.211   3.064  11.930
65102SOL    HW297204   8.121   3.155  12.012
65103SOL     OW97205   3.086   0.334   2.619
65103SOL    HW197206   3.174   0.304   2.639
65103SOL    HW297207   3.087   0.427   2.639
65104SOL     OW97208  10.414   4.575   1.161
65104SOL    HW197209  10.337   4.531   1.124
65104SOL    HW297210  10.383   4.615   1.242
65105SOL     OW97211   4.490  11.313  14.734
65105SOL    HW197212   4.406  11.275  14.759
65105SOL    HW297213   4.554  11.269  14.789
65106SOL     OW97214   9.215   0.562   8.976
65106SOL    HW197215   9.207   0.468   8.991
65106SOL    HW297216   9.304   0.575   8.944
65107SOL     OW97217  11.597   2.288   7.024
65107SOL    HW197218  11.550   2.209   6.996
65107SOL    HW297219  11.540   2.327   7.090
65108SOL     OW97220   9.181  14.496   7.835
65108SOL    HW197221   9.095  14.503   7.878
65108SOL    HW297222   9.211  14.407   7.857
65109SOL     OW97223   7.963  10.334   1.390
65109SOL    HW197224   8.005  10.252   1.363
65109SOL    HW297225   7.875  10.309   1.418
65110SOL     OW97226   2.992   8.885  12.688
65110SOL    HW197227   2.913   8.920  12.728
65110SOL    HW297228   2.990   8.792  12.708
65111SOL     OW97229   1.415   7.036   9.868
65111SOL    HW197230   1.322   7.055   9.853
65111SOL    HW297231   1.454   7.121   9.886
65112SOL     OW97232  10.944   3.256   7.246
65112SOL    HW197233  10.945   3.164   7.219
65112SOL    HW297234  10.930   3.254   7.340
65113SOL     OW97235   8.260   6.288  11.353
65113SOL    HW197236   8.293   6.374  11.328
65113SOL    HW297237   8.337   6.231  11.353
65114SOL     OW97238  11.838   3.930   0.278
65114SOL    HW197239  11.866   3.915   0.369
65114SOL    HW297240  11.746   3.955   0.286
65115SOL     OW97241   9.559   3.340   1.306
65115SOL    HW197242   9.612   3.307   1.378
65115SOL    HW297243   9.531   3.427   1.334
65116SOL     OW97244   1.487   2.430   5.650
65116SOL    HW197245   1.565   2.452   5.599
65116SOL    HW297246   1.499   2.338   5.674
65117SOL     OW97247   7.124   3.113   4.415
65117SOL    HW197248   7.072   3.033   4.426
65117SOL    HW297249   7.163   3.127   4.501
65118SOL     OW97250   8.305   7.332  10.366
65118SOL    HW197251   8.315   7.257  10.424
65118SOL    HW297252   8.385   7.332  10.313
65119SOL     OW97253   3.387   0.534   5.012
65119SOL    HW197254   3.416   0.456   5.059
65119SOL    HW297255   3.318   0.571   5.067
65120SOL     OW97256   5.788   7.342  13.581
65120SOL    HW197257   5.856   7.409  13.584
65120SOL    HW297258   5.706   7.390  13.570
65121SOL     OW97259  13.634  13.639   2.984
65121SOL    HW197260  13.627  13.617   2.892
65121SOL    HW297261  13.569  13.584   3.028
65122SOL     OW97262   3.063   8.821  14.560
65122SOL    HW197263   3.028   8.798  14.646
65122SOL    HW297264   3.147   8.776  14.556
65123SOL     OW97265   4.792   4.246   2.672
65123SOL    HW197266   4.697   4.247   2.687
65123SOL    HW297267   4.801   4.248   2.576
65124SOL     OW97268  13.168   7.386   1.804
65124SOL    HW197269  13.095   7.352   1.751
65124SOL    HW297270  13.246   7.359   1.756
65125SOL     OW97271  11.737   4.693   3.483
65125SOL    HW197272  11.756   4.677   3.575
65125SOL    HW297273  11.782   4.623   3.436
65126SOL     OW97274   4.868  13.386   0.158
65126SOL    HW197275   4.837  13.420   0.242
65126SOL    HW297276   4.859  13.460   0.098
65127SOL     OW97277  10.446  13.176   7.412
65127SOL    HW197278  10.424  13.231   7.337
65127SOL    HW297279  10.504  13.109   7.376
65128SOL     OW97280   2.799  11.956   5.769
65128SOL    HW197281   2.810  12.032   5.711
65128SOL    HW297282   2.716  11.973   5.814
65129SOL     OW97283   2.359  12.216   1.347
65129SOL    HW197284   2.371  12.300   1.303
65129SOL    HW297285   2.357  12.237   1.440
65130SOL     OW97286   7.064  13.231   1.125
65130SOL    HW197287   7.127  13.299   1.149
65130SOL    HW297288   7.111  13.149   1.136
65131SOL     OW97289   0.598   0.575   6.593
65131SOL    HW197290   0.664   0.560   6.525
65131SOL    HW297291   0.609   0.666   6.618
65132SOL     OW97292  11.383   6.578  10.250
65132SOL    HW197293  11.411   6.578  10.158
65132SOL    HW297294  11.429   6.504  10.289
65133SOL     OW97295  14.543  11.815   8.798
65133SOL    HW197296  14.605  11.816   8.871
65133SOL    HW297297  14.598  11.818   8.720
65134SOL     OW97298  13.240   3.208   6.034
65134SOL    HW197299  13.145   3.200   6.024
65134SOL    HW297300  13.251   3.259   6.114
65135SOL     OW97301   7.962  10.382  12.423
65135SOL    HW197302   7.929  10.306  12.376
65135SOL    HW297303   7.917  10.378  12.508
65136SOL     OW97304   0.783   4.702  11.980
65136SOL    HW197305   0.829   4.758  11.918
65136SOL    HW297306   0.737   4.638  11.926
65137SOL     OW97307   7.233   5.470   1.688
65137SOL    HW197308   7.198   5.381   1.686
65137SOL    HW297309   7.245   5.490   1.781
65138SOL     OW97310   6.727   4.680  11.784
65138SOL    HW197311   6.713   4.715  11.697
65138SOL    HW297312   6.818   4.699  11.804
65139SOL     OW97313   0.489   1.465   5.113
65139SOL    HW197314   0.467   1.493   5.024
65139SOL    HW297315   0.451   1.378   5.120
65140SOL     OW97316   9.863  10.831  14.080
65140SOL    HW197317   9.831  10.921  14.082
65140SOL    HW297318   9.825  10.791  14.158
65141SOL     OW97319   0.905  10.660   4.513
65141SOL    HW197320   0.948  10.701   4.438
65141SOL    HW297321   0.842  10.724   4.543
65142SOL     OW97322   2.742   0.854  13.541
65142SOL    HW197323   2.692   0.805  13.606
65142SOL    HW297324   2.779   0.928  13.590
65143SOL     OW97325   1.985   8.379   2.001
65143SOL    HW197326   2.076   8.393   2.029
65143SOL    HW297327   1.957   8.300   2.048
65144SOL     OW97328  14.398   6.887   9.524
65144SOL    HW197329  14.342   6.949   9.477
65144SOL    HW297330  14.359   6.801   9.506
65145SOL     OW97331   2.957   0.238  11.886
65145SOL    HW197332   2.875   0.233  11.837
65145SOL    HW297333   2.945   0.178  11.960
65146SOL     OW97334   5.264  12.536  13.211
65146SOL    HW197335   5.187  12.527  13.267
65146SOL    HW297336   5.271  12.630  13.194
65147SOL     OW97337   6.031   0.104  11.588
65147SOL    HW197338   5.953   0.057  11.617
65147SOL    HW297339   6.066   0.052  11.517
65148SOL     OW97340   3.479  13.094  11.076
65148SOL    HW197341   3.411  13.036  11.043
65148SOL    HW297342   3.522  13.044  11.145
65149SOL     OW97343  14.341   8.495   6.660
65149SOL    HW197344  14.251   8.527   6.669
65149SOL    HW297345  14.389   8.538   6.730
65150SOL     OW97346   3.010  13.064   7.819
65150SOL    HW197347   2.980  13.073   7.910
65150SOL    HW297348   2.939  13.103   7.767
65151SOL     OW97349   4.645   9.581   3.410
65151SOL    HW197350   4.616   9.577   3.501
65151SOL    HW297351   4.632   9.492   3.377
65152SOL     OW97352   9.419   4.326  12.980
65152SOL    HW197353   9.440   4.244  13.024
65152SOL    HW297354   9.357   4.369  13.038
65153SOL     OW97355  10.799   1.857  14.649
65153SOL    HW197356  10.835   1.937  14.689
65153SOL    HW297357  10.721   1.887  14.602
65154SOL     OW97358   3.397   3.477   6.651
65154SOL    HW197359   3.312   3.508   6.620
65154SOL    HW297360   3.384   3.457   6.743
65155SOL     OW97361  10.412   7.889   0.532
65155SOL    HW197362  10.405   7.808   0.482
65155SOL    HW297363  10.478   7.940   0.484
65156SOL     OW97364  12.725   1.317   3.710
65156SOL    HW197365  12.785   1.311   3.636
65156SOL    HW297366  12.754   1.249   3.771
65157SOL     OW97367  12.906   8.981  12.801
65157SOL    HW197368  13.002   8.971  12.806
65157SOL    HW297369  12.884   9.036  12.875
65158SOL     OW97370   8.774   8.150   7.146
65158SOL    HW197371   8.817   8.072   7.113
65158SOL    HW297372   8.696   8.160   7.092
65159SOL     OW97373   4.680   9.725   5.201
65159SOL    HW197374   4.725   9.641   5.199
65159SOL    HW297375   4.612   9.715   5.268
65160SOL     OW97376   7.289   5.190  11.645
65160SOL    HW197377   7.234   5.149  11.712
65160SOL    HW297378   7.267   5.143  11.564
65161SOL     OW97379  10.899  12.261  12.045
65161SOL    HW197380  10.921  12.201  11.974
65161SOL    HW297381  10.833  12.215  12.097
65162SOL     OW97382   6.548   8.075  11.389
65162SOL    HW197383   6.510   7.987  11.384
65162SOL    HW297384   6.542   8.110  11.300
65163SOL     OW97385   2.193   6.674   0.889
65163SOL    HW197386   2.283   6.650   0.913
65163SOL    HW297387   2.182   6.764   0.919
65164SOL     OW97388   5.303  12.213  14.492
65164SOL    HW197389   5.221  12.236  14.449
65164SOL    HW297390   5.322  12.124  14.461
65165SOL     OW97391   5.175   9.911   3.914
65165SOL    HW197392   5.120   9.983   3.946
65165SOL    HW297393   5.116   9.858   3.861
65166SOL     OW97394   6.334   0.254   2.642
65166SOL    HW197395   6.343   0.251   2.737
65166SOL    HW297396   6.302   0.342   2.623
65167SOL     OW97397   5.028  13.956   2.694
65167SOL    HW197398   5.075  13.930   2.773
65167SOL    HW297399   4.936  13.953   2.719
65168SOL     OW97400   8.677   6.127   4.746
65168SOL    HW197401   8.665   6.221   4.730
65168SOL    HW297402   8.758   6.105   4.700
65169SOL     OW97403  11.093   0.666   0.772
65169SOL    HW197404  11.153   0.653   0.845
65169SOL    HW297405  11.064   0.756   0.781
65170SOL     OW97406  11.527   3.065   8.548
65170SOL    HW197407  11.498   2.975   8.567
65170SOL    HW297408  11.513   3.112   8.631
65171SOL     OW97409   9.432   9.599   1.629
65171SOL    HW197410   9.358   9.615   1.571
65171SOL    HW297411   9.503   9.570   1.572
65172SOL     OW97412   6.055   0.879   2.511
65172SOL    HW197413   6.038   0.968   2.541
65172SOL    HW297414   6.085   0.889   2.420
65173SOL     OW97415   1.229  10.781   0.573
65173SOL    HW197416   1.174  10.713   0.535
65173SOL    HW297417   1.318  10.747   0.568
65174SOL     OW97418   8.176   3.446  11.649
65174SOL    HW197419   8.081   3.442  11.642
65174SOL    HW297420   8.208   3.383  11.585
65175SOL     OW97421   9.568   6.243   1.965
65175SOL    HW197422   9.477   6.225   1.940
65175SOL    HW297423   9.615   6.250   1.883
65176SOL     OW97424   8.942  11.226   2.260
65176SOL    HW197425   8.927  11.132   2.251
65176SOL    HW297426   8.854  11.265   2.260
65177SOL     OW97427  10.476   5.835   0.754
65177SOL    HW197428  10.503   5.783   0.678
65177SOL    HW297429  10.486   5.776   0.829
65178SOL     OW97430   1.480   3.534   6.089
65178SOL    HW197431   1.516   3.448   6.110
65178SOL    HW297432   1.529   3.595   6.144
65179SOL     OW97433   1.198   4.296  12.956
65179SOL    HW197434   1.212   4.333  12.869
65179SOL    HW297435   1.265   4.229  12.965
65180SOL     OW97436   7.835  11.965   8.549
65180SOL    HW197437   7.816  12.057   8.569
65180SOL    HW297438   7.889  11.934   8.621
65181SOL     OW97439   7.472   0.144  11.362
65181SOL    HW197440   7.391   0.096  11.344
65181SOL    HW297441   7.507   0.164  11.275
65182SOL     OW97442   8.041   6.743  13.495
65182SOL    HW197443   8.109   6.784  13.442
65182SOL    HW297444   7.989   6.692  13.433
65183SOL     OW97445   1.611   0.698   0.152
65183SOL    HW197446   1.691   0.715   0.202
65183SOL    HW297447   1.626   0.612   0.111
65184SOL     OW97448   7.178   3.422  10.967
65184SOL    HW197449   7.134   3.493  10.919
65184SOL    HW297450   7.123   3.406  11.043
65185SOL     OW97451   0.608  10.385  11.792
65185SOL    HW197452   0.597  10.379  11.887
65185SOL    HW297453   0.570  10.305  11.758
65186SOL     OW97454   9.557   7.257   0.037
65186SOL    HW197455   9.627   7.315   0.006
65186SOL    HW297456   9.562   7.180  14.859
65187SOL     OW97457   4.666   6.867   1.427
65187SOL    HW197458   4.661   6.789   1.482
65187SOL    HW297459   4.757   6.896   1.434
65188SOL     OW97460  13.547   5.902   5.675
65188SOL    HW197461  13.637   5.935   5.670
65188SOL    HW297462  13.547   5.845   5.752
65189SOL     OW97463   0.897   3.572  13.954
65189SOL    HW197464   0.975   3.628  13.946
65189SOL    HW297465   0.826   3.628  13.923
65190SOL     OW97466   4.769   8.144   1.620
65190SOL    HW197467   4.830   8.188   1.561
65190SOL    HW297468   4.716   8.215   1.657
65191SOL     OW97469   2.481   2.225  11.554
65191SOL    HW197470   2.543   2.292  11.582
65191SOL    HW297471   2.444   2.190  11.636
65192SOL     OW97472   8.983   0.879   7.660
65192SOL    HW197473   8.927   0.834   7.723
65192SOL    HW297474   8.981   0.823   7.582
65193SOL     OW97475  13.269  14.221   7.640
65193SOL    HW197476  13.251  14.307   7.678
65193SOL    HW297477  13.247  14.159   7.710
65194SOL     OW97478  10.856   2.904   1.483
65194SOL    HW197479  10.923   2.854   1.436
65194SOL    HW297480  10.818   2.842   1.545
65195SOL     OW97481   1.630  10.661   2.279
65195SOL    HW197482   1.723  10.677   2.264
65195SOL    HW297483   1.627  10.580   2.329
65196SOL     OW97484   7.450   6.614   6.684
65196SOL    HW197485   7.503   6.574   6.615
65196SOL    HW297486   7.370   6.642   6.638
65197SOL     OW97487  14.658   7.564   8.760
65197SOL    HW197488  14.673   7.469   8.760
65197SOL    HW297489  14.604   7.580   8.682
65198SOL     OW97490   6.493   9.424   1.746
65198SOL    HW197491   6.578   9.422   1.701
65198SOL    HW297492   6.432   9.459   1.682
65199SOL     OW97493   7.843  13.300   6.401
65199SOL    HW197494   7.797  13.330   6.480
65199SOL    HW297495   7.878  13.380   6.363
65200SOL     OW97496   1.382   7.167  11.478
65200SOL    HW197497   1.362   7.081  11.440
65200SOL    HW297498   1.439   7.147  11.552
65201SOL     OW97499  11.649   3.104  14.543
65201SOL    HW197500  11.690   3.034  14.593
65201SOL    HW297501  11.683   3.093  14.454
65202SOL     OW97502  10.877   7.019  10.171
65202SOL    HW197503  10.844   6.992  10.257
65202SOL    HW297504  10.825   7.097  10.150
65203SOL     OW97505  11.518   7.315  13.482
65203SOL    HW197506  11.528   7.222  13.503
65203SOL    HW297507  11.427   7.334  13.503
65204SOL     OW97508  11.026   7.616   0.032
65204SOL    HW197509  11.072   7.566  14.846
65204SOL    HW297510  11.027   7.706  14.880
65205SOL     OW97511   2.673   5.650  14.198
65205SOL    HW197512   2.655   5.559  14.175
65205SOL    HW297513   2.696   5.647  14.291
65206SOL     OW97514   7.025  11.699   8.602
65206SOL    HW197515   6.986  11.613   8.613
65206SOL    HW297516   6.956  11.753   8.564
65207SOL     OW97517  12.244   1.585   8.120
65207SOL    HW197518  12.220   1.677   8.107
65207SOL    HW297519  12.241   1.573   8.215
65208SOL     OW97520   9.618   5.309   2.108
65208SOL    HW197521   9.683   5.305   2.037
65208SOL    HW297522   9.612   5.220   2.141
65209SOL     OW97523  13.108  12.034   4.578
65209SOL    HW197524  13.153  12.118   4.585
65209SOL    HW297525  13.033  12.042   4.638
65210SOL     OW97526  11.436   8.845  12.143
65210SOL    HW197527  11.444   8.934  12.176
65210SOL    HW297528  11.430   8.855  12.048
65211SOL     OW97529  13.695   2.867   3.865
65211SOL    HW197530  13.764   2.811   3.901
65211SOL    HW297531  13.722   2.956   3.887
65212SOL     OW97532   7.373   6.166   5.134
65212SOL    HW197533   7.330   6.082   5.148
65212SOL    HW297534   7.320   6.229   5.183
65213SOL     OW97535   8.197   3.777  13.147
65213SOL    HW197536   8.140   3.837  13.194
65213SOL    HW297537   8.140   3.703  13.124
65214SOL     OW97538   6.162  11.173   1.106
65214SOL    HW197539   6.232  11.236   1.123
65214SOL    HW297540   6.089  11.226   1.075
65215SOL     OW97541   3.844   6.509  13.970
65215SOL    HW197542   3.874   6.537  13.884
65215SOL    HW297543   3.773   6.448  13.953
65216SOL     OW97544  14.391  10.363  14.169
65216SOL    HW197545  14.418  10.400  14.253
65216SOL    HW297546  14.470  10.319  14.136
65217SOL     OW97547  10.108   8.849   3.936
65217SOL    HW197548  10.022   8.814   3.957
65217SOL    HW297549  10.165   8.816   4.005
65218SOL     OW97550   9.717  12.144  13.759
65218SOL    HW197551   9.681  12.127  13.846
65218SOL    HW297552   9.795  12.197  13.776
65219SOL     OW97553   4.426  13.298   5.866
65219SOL    HW197554   4.470  13.359   5.926
65219SOL    HW297555   4.369  13.245   5.923
65220SOL     OW97556   0.066  10.894   0.574
65220SOL    HW197557   0.059  10.985   0.544
65220SOL    HW297558   0.063  10.900   0.669
65221SOL     OW97559   0.514   3.046  10.441
65221SOL    HW197560   0.491   2.962  10.402
65221SOL    HW297561   0.590   3.027  10.496
65222SOL     OW97562   2.745   5.419   4.756
65222SOL    HW197563   2.813   5.486   4.755
65222SOL    HW297564   2.786   5.341   4.718
65223SOL     OW97565   3.946   3.980  12.764
65223SOL    HW197566   3.882   3.916  12.795
65223SOL    HW297567   3.913   4.009  12.680
65224SOL     OW97568   6.179  10.873   1.089
65224SOL    HW197569   6.266  10.832   1.098
65224SOL    HW297570   6.198  10.966   1.082
65225SOL     OW97571   1.253   1.534   4.999
65225SOL    HW197572   1.168   1.520   4.957
65225SOL    HW297573   1.277   1.449   5.034
65226SOL     OW97574  10.175  12.629  10.257
65226SOL    HW197575  10.163  12.630  10.352
65226SOL    HW297576  10.107  12.689  10.224
65227SOL     OW97577   8.315   6.546  12.321
65227SOL    HW197578   8.405   6.531  12.293
65227SOL    HW297579   8.323   6.587  12.407
65228SOL     OW97580   3.227   5.159   7.000
65228SOL    HW197581   3.250   5.120   6.916
65228SOL    HW297582   3.304   5.210   7.024
65229SOL     OW97583   4.289  14.368  11.458
65229SOL    HW197584   4.330  14.449  11.488
65229SOL    HW297585   4.285  14.376  11.363
65230SOL     OW97586   9.236  10.520   6.153
65230SOL    HW197587   9.311  10.572   6.124
65230SOL    HW297588   9.235  10.529   6.248
65231SOL     OW97589  11.205   7.404  13.247
65231SOL    HW197590  11.109   7.409  13.253
65231SOL    HW297591  11.233   7.373  13.333
65232SOL     OW97592   3.806  11.465   7.468
65232SOL    HW197593   3.853  11.504   7.542
65232SOL    HW297594   3.785  11.540   7.411
65233SOL     OW97595   7.420   7.021   5.119
65233SOL    HW197596   7.511   7.004   5.098
65233SOL    HW297597   7.415   7.014   5.215
65234SOL     OW97598   3.325   4.959   1.103
65234SOL    HW197599   3.305   4.954   1.009
65234SOL    HW297600   3.404   4.906   1.113
65235SOL     OW97601   7.909   3.035  12.195
65235SOL    HW197602   7.989   3.037  12.143
65235SOL    HW297603   7.844   2.994  12.138
65236SOL     OW97604   0.133   7.265   0.937
65236SOL    HW197605   0.092   7.183   0.964
65236SOL    HW297606   0.218   7.265   0.981
65237SOL     OW97607   6.918   5.584   9.273
65237SOL    HW197608   7.009   5.582   9.304
65237SOL    HW297609   6.865   5.574   9.352
65238SOL     OW97610   6.715  10.723  14.009
65238SOL    HW197611   6.695  10.639  13.968
65238SOL    HW297612   6.796  10.752  13.967
65239SOL     OW97613  12.318   6.928  14.114
65239SOL    HW197614  12.241   6.879  14.144
65239SOL    HW297615  12.389   6.864  14.116
65240SOL     OW97616  12.425   9.977  13.651
65240SOL    HW197617  12.404  10.067  13.629
65240SOL    HW297618  12.348   9.944  13.697
65241SOL     OW97619  14.622   8.390   8.038
65241SOL    HW197620  14.528   8.406   8.049
65241SOL    HW297621  14.663   8.472   8.067
65242SOL     OW97622  10.275   0.082   1.114
65242SOL    HW197623  10.318   0.040   1.039
65242SOL    HW297624  10.238   0.009   1.164
65243SOL     OW97625  12.129   3.712  10.738
65243SOL    HW197626  12.161   3.639  10.791
65243SOL    HW297627  12.034   3.711  10.750
65244SOL     OW97628   8.563  13.932   3.262
65244SOL    HW197629   8.610  13.859   3.221
65244SOL    HW297630   8.626  13.970   3.323
65245SOL     OW97631   8.990   3.549  11.645
65245SOL    HW197632   8.961   3.608  11.576
65245SOL    HW297633   9.006   3.465  11.601
65246SOL     OW97634   6.524   9.208   2.376
65246SOL    HW197635   6.493   9.261   2.303
65246SOL    HW297636   6.454   9.212   2.441
65247SOL     OW97637   5.274   4.621   2.596
65247SOL    HW197638   5.283   4.560   2.669
65247SOL    HW297639   5.190   4.664   2.610
65248SOL     OW97640  13.882  14.335   6.885
65248SOL    HW197641  13.849  14.278   6.816
65248SOL    HW297642  13.977  14.337   6.873
65249SOL     OW97643   3.260   6.027   9.166
65249SOL    HW197644   3.248   5.993   9.254
65249SOL    HW297645   3.178   6.006   9.121
65250SOL     OW97646  10.463   8.952  13.702
65250SOL    HW197647  10.520   8.906  13.763
65250SOL    HW297648  10.490   8.921  13.615
65251SOL     OW97649  13.062   5.622   4.793
65251SOL    HW197650  13.082   5.693   4.732
65251SOL    HW297651  13.057   5.544   4.738
65252SOL     OW97652   6.381   4.534  12.030
65252SOL    HW197653   6.460   4.508  11.982
65252SOL    HW297654   6.310   4.517  11.969
65253SOL     OW97655   6.615   8.506   3.631
65253SOL    HW197656   6.575   8.484   3.546
65253SOL    HW297657   6.591   8.598   3.645
65254SOL     OW97658   6.112  12.440   1.700
65254SOL    HW197659   6.020  12.467   1.707
65254SOL    HW297660   6.125  12.425   1.606
65255SOL     OW97661   2.230   4.775   1.221
65255SOL    HW197662   2.281   4.788   1.140
65255SOL    HW297663   2.165   4.846   1.219
65256SOL     OW97664  14.036   3.642   4.647
65256SOL    HW197665  13.948   3.607   4.660
65256SOL    HW297666  14.044   3.711   4.713
65257SOL     OW97667  14.050   2.840  13.053
65257SOL    HW197668  13.982   2.783  13.016
65257SOL    HW297669  14.005   2.890  13.120
65258SOL     OW97670  10.185  11.213   5.243
65258SOL    HW197671  10.135  11.288   5.213
65258SOL    HW297672  10.193  11.226   5.337
65259SOL     OW97673   8.437   2.942  14.758
65259SOL    HW197674   8.404   2.988  14.681
65259SOL    HW297675   8.417   3.000  14.831
65260SOL     OW97676   9.821  11.588  10.893
65260SOL    HW197677   9.862  11.557  10.812
65260SOL    HW297678   9.883  11.651  10.929
65261SOL     OW97679  12.840  11.241   8.405
65261SOL    HW197680  12.820  11.152   8.375
65261SOL    HW297681  12.764  11.267   8.456
65262SOL     OW97682   7.188  11.501   8.348
65262SOL    HW197683   7.255  11.566   8.369
65262SOL    HW297684   7.138  11.539   8.277
65263SOL     OW97685   6.675   3.025  13.575
65263SOL    HW197686   6.763   2.987  13.581
65263SOL    HW297687   6.689   3.113  13.539
65264SOL     OW97688   7.830   1.319  10.020
65264SOL    HW197689   7.893   1.262  10.064
65264SOL    HW297690   7.783   1.362  10.091
65265SOL     OW97691   4.611   9.306   8.224
65265SOL    HW197692   4.647   9.388   8.259
65265SOL    HW297693   4.560   9.269   8.297
65266SOL     OW97694   9.347   1.225   5.757
65266SOL    HW197695   9.339   1.134   5.785
65266SOL    HW297696   9.368   1.220   5.663
65267SOL     OW97697  12.458  14.683  12.455
65267SOL    HW197698  12.408  14.653  12.531
65267SOL    HW297699  12.530  14.620  12.447
65268SOL     OW97700   3.480   2.666   3.130
65268SOL    HW197701   3.430   2.674   3.211
65268SOL    HW297702   3.497   2.572   3.123
65269SOL     OW97703   9.420   8.157   3.836
65269SOL    HW197704   9.343   8.108   3.863
65269SOL    HW297705   9.441   8.213   3.911
65270SOL     OW97706   3.045   3.898   5.405
65270SOL    HW197707   3.066   3.826   5.464
65270SOL    HW297708   3.126   3.916   5.358
65271SOL     OW97709  13.861   8.843   3.408
65271SOL    HW197710  13.854   8.769   3.469
65271SOL    HW297711  13.879   8.803   3.323
65272SOL     OW97712   4.431   4.437  10.919
65272SOL    HW197713   4.408   4.346  10.904
65272SOL    HW297714   4.480   4.437  11.001
65273SOL     OW97715   6.640   4.888   9.943
65273SOL    HW197716   6.598   4.971   9.964
65273SOL    HW297717   6.645   4.841  10.026
65274SOL     OW97718  11.358  10.431   4.446
65274SOL    HW197719  11.266  10.412   4.426
65274SOL    HW297720  11.353  10.498   4.514
65275SOL     OW97721   0.431   6.880  14.838
65275SOL    HW197722   0.397   6.803   0.004
65275SOL    HW297723   0.505   6.846  14.786
65276SOL     OW97724   9.519   9.358   4.026
65276SOL    HW197725   9.475   9.397   4.102
65276SOL    HW297726   9.565   9.282   4.062
65277SOL     OW97727   8.388   0.750   6.216
65277SOL    HW197728   8.372   0.836   6.178
65277SOL    HW297729   8.302   0.719   6.244
65278SOL     OW97730  14.549   5.236   7.064
65278SOL    HW197731  14.593   5.309   7.106
65278SOL    HW297732  14.594   5.158   7.098
65279SOL     OW97733  10.743   8.373  11.152
65279SOL    HW197734  10.685   8.435  11.107
65279SOL    HW297735  10.720   8.381  11.245
65280SOL     OW97736   7.341   9.117  10.400
65280SOL    HW197737   7.424   9.086  10.434
65280SOL    HW297738   7.316   9.052  10.335
65281SOL     OW97739   8.387   6.115   2.190
65281SOL    HW197740   8.298   6.098   2.159
65281SOL    HW297741   8.375   6.169   2.268
65282SOL     OW97742   1.697   7.610   9.232
65282SOL    HW197743   1.615   7.622   9.184
65282SOL    HW297744   1.726   7.699   9.253
65283SOL     OW97745   0.127   1.844  14.140
65283SOL    HW197746   0.196   1.810  14.083
65283SOL    HW297747   0.167   1.921  14.182
65284SOL     OW97748  14.217  10.824   9.548
65284SOL    HW197749  14.158  10.885   9.592
65284SOL    HW297750  14.294  10.877   9.525
65285SOL     OW97751   9.478   4.374   2.997
65285SOL    HW197752   9.415   4.424   3.048
65285SOL    HW297753   9.559   4.378   3.049
65286SOL     OW97754   0.482   6.017   6.808
65286SOL    HW197755   0.394   5.982   6.827
65286SOL    HW297756   0.527   5.945   6.763
65287SOL     OW97757  13.830   8.024   2.244
65287SOL    HW197758  13.757   7.996   2.299
65287SOL    HW297759  13.818   8.118   2.235
65288SOL     OW97760   5.119   2.616  11.672
65288SOL    HW197761   5.144   2.639  11.582
65288SOL    HW297762   5.069   2.535  11.662
65289SOL     OW97763   0.011   5.547   0.859
65289SOL    HW197764   0.106   5.562   0.859
65289SOL    HW297765  14.871   5.523   0.769
65290SOL     OW97766   4.870   1.294   1.156
65290SOL    HW197767   4.937   1.253   1.211
65290SOL    HW297768   4.814   1.222   1.128
65291SOL     OW97769   6.148   1.986  10.105
65291SOL    HW197770   6.096   2.067  10.106
65291SOL    HW297771   6.188   1.984  10.018
65292SOL     OW97772   4.190  12.425   8.703
65292SOL    HW197773   4.208  12.429   8.797
65292SOL    HW297774   4.199  12.332   8.682
65293SOL     OW97775   0.985   9.948   7.617
65293SOL    HW197776   0.960  10.012   7.684
65293SOL    HW297777   1.003   9.868   7.667
65294SOL     OW97778  10.280  11.804  13.234
65294SOL    HW197779  10.310  11.826  13.322
65294SOL    HW297780  10.187  11.784  13.245
65295SOL     OW97781   0.869  12.600   6.230
65295SOL    HW197782   0.818  12.519   6.229
65295SOL    HW297783   0.958  12.573   6.208
65296SOL     OW97784   0.041   2.279   5.729
65296SOL    HW197785   0.093   2.354   5.758
65296SOL    HW297786   0.094   2.203   5.751
65297SOL     OW97787   0.719   4.255  11.166
65297SOL    HW197788   0.755   4.344  11.172
65297SOL    HW297789   0.655   4.261  11.095
65298SOL     OW97790  14.128  13.256   0.929
65298SOL    HW197791  14.070  13.278   0.857
65298SOL    HW297792  14.072  13.210   0.992
65299SOL     OW97793   2.188   4.147   6.856
65299SOL    HW197794   2.171   4.210   6.786
65299SOL    HW297795   2.257   4.091   6.822
65300SOL     OW97796  12.656  10.718   7.947
65300SOL    HW197797  12.650  10.735   7.853
65300SOL    HW297798  12.719  10.782   7.980
65301SOL     OW97799  11.710  10.326   2.799
65301SOL    HW197800  11.676  10.244   2.765
65301SOL    HW297801  11.673  10.393   2.742
65302SOL     OW97802   4.220   7.276  13.235
65302SOL    HW197803   4.247   7.310  13.149
65302SOL    HW297804   4.128   7.303  13.243
65303SOL     OW97805  11.057   8.861   8.993
65303SOL    HW197806  11.120   8.896   8.929
65303SOL    HW297807  10.971   8.876   8.953
65304SOL     OW97808  13.479   3.398   9.102
65304SOL    HW197809  13.537   3.387   9.026
65304SOL    HW297810  13.538   3.409   9.176
65305SOL     OW97811  14.277   1.277   2.699
65305SOL    HW197812  14.199   1.221   2.701
65305SOL    HW297813  14.350   1.216   2.684
65306SOL     OW97814   5.639   3.579   4.266
65306SOL    HW197815   5.683   3.621   4.340
65306SOL    HW297816   5.568   3.529   4.307
65307SOL     OW97817   2.548   8.605   8.761
65307SOL    HW197818   2.533   8.576   8.671
65307SOL    HW297819   2.489   8.679   8.773
65308SOL     OW97820   0.164   3.359   0.139
65308SOL    HW197821   0.137   3.421   0.071
65308SOL    HW297822   0.191   3.415   0.212
65309SOL     OW97823   3.225   4.258   3.321
65309SOL    HW197824   3.231   4.164   3.304
65309SOL    HW297825   3.239   4.298   3.235
65310SOL     OW97826   0.620  14.025   3.097
65310SOL    HW197827   0.631  14.118   3.078
65310SOL    HW297828   0.573  13.991   3.021
65311SOL     OW97829   0.764   2.945   2.589
65311SOL    HW197830   0.711   3.020   2.558
65311SOL    HW297831   0.833   2.936   2.523
65312SOL     OW97832   9.704  10.964   0.594
65312SOL    HW197833   9.659  10.910   0.530
65312SOL    HW297834   9.793  10.928   0.598
65313SOL     OW97835   6.113   0.159   6.988
65313SOL    HW197836   6.028   0.129   6.956
65313SOL    HW297837   6.148   0.212   6.918
65314SOL     OW97838   3.838   8.005  12.064
65314SOL    HW197839   3.881   8.015  11.979
65314SOL    HW297840   3.910   8.009  12.128
65315SOL     OW97841   4.005  10.355   5.832
65315SOL    HW197842   4.048  10.439   5.815
65315SOL    HW297843   3.926  10.378   5.880
65316SOL     OW97844   6.774   5.243   0.266
65316SOL    HW197845   6.782   5.276   0.177
65316SOL    HW297846   6.695   5.286   0.301
65317SOL     OW97847  14.536  14.420   0.380
65317SOL    HW197848  14.482  14.341   0.386
65317SOL    HW297849  14.497  14.481   0.442
65318SOL     OW97850  13.365   4.004   2.451
65318SOL    HW197851  13.388   3.969   2.365
65318SOL    HW297852  13.294   3.947   2.481
65319SOL     OW97853   4.841   7.855  14.825
65319SOL    HW197854   4.914   7.842  14.765
65319SOL    HW297855   4.882   7.878   0.028
65320SOL     OW97856   4.112  13.727  14.366
65320SOL    HW197857   4.124  13.686  14.280
65320SOL    HW297858   4.059  13.805  14.349
65321SOL     OW97859   5.241   7.834   2.951
65321SOL    HW197860   5.218   7.910   3.005
65321SOL    HW297861   5.277   7.771   3.013
65322SOL     OW97862   6.393   8.558   4.265
65322SOL    HW197863   6.301   8.534   4.266
65322SOL    HW297864   6.436   8.492   4.319
65323SOL     OW97865   7.556   2.632  10.968
65323SOL    HW197866   7.598   2.646  10.882
65323SOL    HW297867   7.542   2.537  10.972
65324SOL     OW97868   7.175  12.775   0.933
65324SOL    HW197869   7.245  12.840   0.932
65324SOL    HW297870   7.124  12.793   0.854
65325SOL     OW97871  12.561   1.292   5.345
65325SOL    HW197872  12.647   1.250   5.341
65325SOL    HW297873  12.529   1.273   5.433
65326SOL     OW97874   3.427   0.437   5.731
65326SOL    HW197875   3.493   0.372   5.708
65326SOL    HW297876   3.375   0.395   5.800
65327SOL     OW97877   2.974   4.386  12.128
65327SOL    HW197878   2.986   4.330  12.204
65327SOL    HW297879   2.960   4.325  12.055
65328SOL     OW97880   2.355   4.771   5.792
65328SOL    HW197881   2.445   4.755   5.765
65328SOL    HW297882   2.337   4.862   5.767
65329SOL     OW97883   4.303   5.446  12.459
65329SOL    HW197884   4.258   5.518  12.501
65329SOL    HW297885   4.365   5.488  12.399
65330SOL     OW97886   3.011   9.123   9.964
65330SOL    HW197887   3.086   9.077  10.002
65330SOL    HW297888   2.941   9.111  10.028
65331SOL     OW97889   0.958   3.204   2.510
65331SOL    HW197890   1.035   3.169   2.553
65331SOL    HW297891   0.988   3.227   2.422
65332SOL     OW97892   6.750  10.373   2.818
65332SOL    HW197893   6.821  10.426   2.854
65332SOL    HW297894   6.738  10.303   2.881
65333SOL     OW97895  12.117  13.793   1.114
65333SOL    HW197896  12.127  13.700   1.139
65333SOL    HW297897  12.187  13.837   1.163
65334SOL     OW97898   8.063   3.527   9.471
65334SOL    HW197899   8.036   3.436   9.478
65334SOL    HW297900   8.018   3.560   9.393
65335SOL     OW97901  11.667   0.045  13.439
65335SOL    HW197902  11.575   0.021  13.451
65335SOL    HW297903  11.668   0.140  13.443
65336SOL     OW97904   0.874  14.361  12.762
65336SOL    HW197905   0.946  14.362  12.824
65336SOL    HW297906   0.914  14.332  12.679
65337SOL     OW97907   5.509   2.843   3.397
65337SOL    HW197908   5.475   2.885   3.477
65337SOL    HW297909   5.600   2.872   3.392
65338SOL     OW97910   4.246  12.791  10.022
65338SOL    HW197911   4.299  12.841  10.084
65338SOL    HW297912   4.303  12.777   9.947
65339SOL     OW97913  14.870   9.686   6.444
65339SOL    HW197914   0.021   9.775   6.463
65339SOL    HW297915  14.776   9.689   6.461
65340SOL     OW97916   3.011   9.105   0.259
65340SOL    HW197917   2.962   9.111   0.177
65340SOL    HW297918   3.001   9.014   0.287
65341SOL     OW97919   8.779  11.974  13.829
65341SOL    HW197920   8.856  11.966  13.886
65341SOL    HW297921   8.734  11.890  13.838
65342SOL     OW97922   1.586   1.471  11.417
65342SOL    HW197923   1.498   1.469  11.454
65342SOL    HW297924   1.617   1.561  11.431
65343SOL     OW97925   3.670  13.689  14.561
65343SOL    HW197926   3.737  13.628  14.592
65343SOL    HW297927   3.635  13.729  14.640
65344SOL     OW97928   3.378  14.552  12.780
65344SOL    HW197929   3.385  14.547  12.684
65344SOL    HW297930   3.434  14.482  12.812
65345SOL     OW97931   9.442   5.582   7.462
65345SOL    HW197932   9.387   5.522   7.512
65345SOL    HW297933   9.530   5.544   7.466
65346SOL     OW97934   9.957   3.454   8.336
65346SOL    HW197935  10.035   3.398   8.341
65346SOL    HW297936   9.989   3.536   8.299
65347SOL     OW97937   3.811  11.558   0.658
65347SOL    HW197938   3.828  11.651   0.641
65347SOL    HW297939   3.746  11.533   0.592
65348SOL     OW97940  13.603  14.626   0.999
65348SOL    HW197941  13.611  14.630   0.904
65348SOL    HW297942  13.516  14.662   1.017
65349SOL     OW97943   3.346  10.832  10.746
65349SOL    HW197944   3.351  10.918  10.703
65349SOL    HW297945   3.264  10.795  10.715
65350SOL     OW97946   7.714   3.289   4.463
65350SOL    HW197947   7.669   3.351   4.406
65350SOL    HW297948   7.739   3.217   4.405
65351SOL     OW97949   2.247   1.115   5.515
65351SOL    HW197950   2.184   1.045   5.528
65351SOL    HW297951   2.210   1.168   5.445
65352SOL     OW97952   5.131   5.766   4.086
65352SOL    HW197953   5.153   5.845   4.036
65352SOL    HW297954   5.109   5.797   4.173
65353SOL     OW97955   3.672  14.787   7.077
65353SOL    HW197956   3.577  14.778   7.074
65353SOL    HW297957   3.691  14.866   7.026
65354SOL     OW97958   4.056   7.863   3.727
65354SOL    HW197959   4.033   7.777   3.761
65354SOL    HW297960   4.056   7.851   3.632
65355SOL     OW97961  12.902  10.617  14.396
65355SOL    HW197962  12.886  10.523  14.409
65355SOL    HW297963  12.846  10.641  14.322
65356SOL     OW97964  14.612  10.531  10.738
65356SOL    HW197965  14.678  10.483  10.688
65356SOL    HW297966  14.563  10.463  10.785
65357SOL     OW97967   1.380  13.861   6.963
65357SOL    HW197968   1.421  13.883   7.047
65357SOL    HW297969   1.453  13.850   6.903
65358SOL     OW97970   2.460   5.754   9.248
65358SOL    HW197971   2.424   5.675   9.287
65358SOL    HW297972   2.554   5.748   9.263
65359SOL     OW97973  13.035  10.069   0.897
65359SOL    HW197974  13.029  10.122   0.976
65359SOL    HW297975  12.979   9.993   0.914
65360SOL     OW97976  12.016  13.182   8.267
65360SOL    HW197977  12.011  13.264   8.316
65360SOL    HW297978  12.048  13.208   8.180
65361SOL     OW97979  14.303   0.587  10.001
65361SOL    HW197980  14.304   0.550   9.913
65361SOL    HW297981  14.345   0.521  10.056
65362SOL     OW97982   9.311  10.747   2.137
65362SOL    HW197983   9.263  10.830   2.139
65362SOL    HW297984   9.401  10.773   2.117
65363SOL     OW97985   3.343  12.838   1.555
65363SOL    HW197986   3.375  12.788   1.631
65363SOL    HW297987   3.343  12.775   1.483
65364SOL     OW97988   0.924   2.572  13.414
65364SOL    HW197989   0.967   2.532  13.490
65364SOL    HW297990   0.971   2.654  13.400
65365SOL     OW97991   0.189  11.798   7.553
65365SOL    HW197992   0.164  11.798   7.646
65365SOL    HW297993   0.169  11.709   7.523
65366SOL     OW97994  13.761  12.804  11.989
65366SOL    HW197995  13.679  12.776  12.032
65366SOL    HW297996  13.764  12.898  12.003
65367SOL     OW97997   1.894  12.579   6.802
65367SOL    HW197998   1.865  12.490   6.786
65367SOL    HW297999   1.926  12.610   6.717
65368SOL     OW98000  11.346   1.977  14.198
65368SOL    HW198001  11.368   2.061  14.159
65368SOL    HW298002  11.406   1.967  14.271
65369SOL     OW98003   5.892   8.155   3.093
65369SOL    HW198004   5.883   8.247   3.120
65369SOL    HW298005   5.820   8.141   3.031
65370SOL     OW98006   1.898   2.485   2.130
65370SOL    HW198007   1.858   2.401   2.153
65370SOL    HW298008   1.830   2.550   2.146
65371SOL     OW98009  11.557  10.027  14.011
65371SOL    HW198010  11.630  10.064  13.962
65371SOL    HW298011  11.565  10.066  14.098
65372SOL     OW98012   0.487  13.942   2.871
65372SOL    HW198013   0.501  14.002   2.798
65372SOL    HW298014   0.465  13.858   2.831
65373SOL     OW98015   6.088   9.970  10.592
65373SOL    HW198016   6.160   9.920  10.630
65373SOL    HW298017   6.130  10.034  10.535
65374SOL     OW98018   5.038   8.565   8.778
65374SOL    HW198019   4.998   8.481   8.801
65374SOL    HW298020   4.966   8.618   8.746
65375SOL     OW98021   3.277   2.932   8.679
65375SOL    HW198022   3.253   2.841   8.698
65375SOL    HW298023   3.276   2.938   8.583
65376SOL     OW98024   7.902   0.404  10.977
65376SOL    HW198025   7.869   0.432  11.062
65376SOL    HW298026   7.949   0.322  10.995
65377SOL     OW98027   9.039   7.293   1.728
65377SOL    HW198028   9.078   7.358   1.669
65377SOL    HW298029   9.036   7.337   1.813
65378SOL     OW98030   7.257  11.574  13.959
65378SOL    HW198031   7.346  11.541  13.970
65378SOL    HW298032   7.206  11.497  13.934
65379SOL     OW98033   3.763   9.125  11.156
65379SOL    HW198034   3.824   9.125  11.083
65379SOL    HW298035   3.683   9.166  11.122
65380SOL     OW98036   4.043  10.734   1.672
65380SOL    HW198037   4.130  10.704   1.645
65380SOL    HW298038   4.060  10.814   1.721
65381SOL     OW98039  14.755   1.720   8.147
65381SOL    HW198040  14.845   1.708   8.174
65381SOL    HW298041  14.728   1.803   8.185
65382SOL     OW98042   8.515  14.202   2.452
65382SOL    HW198043   8.600  14.244   2.462
65382SOL    HW298044   8.535  14.115   2.418
65383SOL     OW98045  12.073  12.760   3.389
65383SOL    HW198046  12.090  12.708   3.310
65383SOL    HW298047  12.038  12.697   3.452
65384SOL     OW98048   3.419  14.862   2.964
65384SOL    HW198049   3.492  14.879   2.905
65384SOL    HW298050   3.431  14.771   2.991
65385SOL     OW98051   2.988   1.581   8.150
65385SOL    HW198052   3.002   1.500   8.198
65385SOL    HW298053   3.054   1.580   8.081
65386SOL     OW98054   1.300  11.370  12.448
65386SOL    HW198055   1.207  11.393  12.442
65386SOL    HW298056   1.336  11.396  12.363
65387SOL     OW98057   4.910   4.338   7.417
65387SOL    HW198058   4.985   4.322   7.475
65387SOL    HW298059   4.944   4.394   7.348
65388SOL     OW98060   6.296   1.887   1.279
65388SOL    HW198061   6.391   1.894   1.287
65388SOL    HW298062   6.279   1.899   1.186
65389SOL     OW98063  11.618   4.009   4.354
65389SOL    HW198064  11.713   4.016   4.362
65389SOL    HW298065  11.586   4.099   4.363
65390SOL     OW98066   1.745   1.904  11.863
65390SOL    HW198067   1.836   1.877  11.874
65390SOL    HW298068   1.710   1.910  11.951
65391SOL     OW98069  10.232  10.313   7.983
65391SOL    HW198070  10.173  10.360   7.924
65391SOL    HW298071  10.224  10.359   8.067
65392SOL     OW98072   7.985  11.969   0.868
65392SOL    HW198073   8.023  12.057   0.868
65392SOL    HW298074   8.042  11.919   0.927
65393SOL     OW98075  13.568   0.875   8.905
65393SOL    HW198076  13.648   0.928   8.902
65393SOL    HW298077  13.537   0.873   8.815
65394SOL     OW98078   7.276   1.017  14.124
65394SOL    HW198079   7.227   1.003  14.205
65394SOL    HW298080   7.320   0.934  14.107
65395SOL     OW98081   3.667   8.900   7.065
65395SOL    HW198082   3.703   8.819   7.028
65395SOL    HW298083   3.744   8.948   7.095
65396SOL     OW98084   1.118   6.319   1.096
65396SOL    HW198085   1.129   6.246   1.035
65396SOL    HW298086   1.061   6.284   1.164
65397SOL     OW98087   2.364  10.394   2.726
65397SOL    HW198088   2.275  10.361   2.718
65397SOL    HW298089   2.366  10.437   2.812
65398SOL     OW98090   4.664  10.400   5.563
65398SOL    HW198091   4.618  10.431   5.485
65398SOL    HW298092   4.650  10.305   5.563
65399SOL     OW98093   2.543   0.935   2.213
65399SOL    HW198094   2.545   0.850   2.258
65399SOL    HW298095   2.635   0.959   2.205
65400SOL     OW98096   0.732   8.216  13.119
65400SOL    HW198097   0.738   8.244  13.210
65400SOL    HW298098   0.673   8.142  13.120
65401SOL     OW98099   4.580   2.404  10.548
65401SOL    HW198100   4.620   2.431  10.631
65401SOL    HW298101   4.489   2.383  10.571
65402SOL     OW98102   6.015   7.876   4.575
65402SOL    HW198103   6.019   7.887   4.480
65402SOL    HW298104   6.070   7.800   4.592
65403SOL     OW98105  10.067   7.638   0.082
65403SOL    HW198106  10.010   7.671   0.152
65403SOL    HW298107  10.154   7.668   0.106
65404SOL     OW98108   3.688   3.604   6.853
65404SOL    HW198109   3.751   3.566   6.792
65404SOL    HW298110   3.643   3.671   6.803
65405SOL     OW98111  14.656   5.648  12.392
65405SOL    HW198112  14.734   5.698  12.369
65405SOL    HW298113  14.599   5.657  12.315
65406SOL     OW98114   6.335   8.226   9.424
65406SOL    HW198115   6.245   8.210   9.451
65406SOL    HW298116   6.385   8.234   9.505
65407SOL     OW98117  12.206   2.193   8.782
65407SOL    HW198118  12.126   2.236   8.812
65407SOL    HW298119  12.181   2.102   8.769
65408SOL     OW98120  10.724  14.149  12.345
65408SOL    HW198121  10.665  14.137  12.419
65408SOL    HW298122  10.762  14.062  12.330
65409SOL     OW98123   4.902   6.874   5.058
65409SOL    HW198124   4.816   6.844   5.032
65409SOL    HW298125   4.912   6.844   5.149
65410SOL     OW98126   9.956  10.728   1.392
65410SOL    HW198127   9.961  10.811   1.344
65410SOL    HW298128  10.045  10.713   1.424
65411SOL     OW98129   7.417  14.484   3.928
65411SOL    HW198130   7.406  14.401   3.973
65411SOL    HW298131   7.368  14.473   3.846
65412SOL     OW98132   2.954   6.571   9.907
65412SOL    HW198133   2.928   6.536   9.822
65412SOL    HW298134   3.039   6.612   9.891
65413SOL     OW98135   9.120   5.812   0.884
65413SOL    HW198136   9.129   5.902   0.915
65413SOL    HW298137   9.190   5.765   0.928
65414SOL     OW98138   5.403  12.860   9.604
65414SOL    HW198139   5.393  12.772   9.639
65414SOL    HW298140   5.317  12.881   9.567
65415SOL     OW98141   8.741   2.768  14.233
65415SOL    HW198142   8.749   2.774  14.138
65415SOL    HW298143   8.678   2.698  14.247
65416SOL     OW98144   2.152  11.108  11.462
65416SOL    HW198145   2.219  11.043  11.446
65416SOL    HW298146   2.114  11.083  11.547
65417SOL     OW98147   2.063   9.610  13.787
65417SOL    HW198148   2.064   9.528  13.738
65417SOL    HW298149   2.102   9.674  13.727
65418SOL     OW98150   4.219   6.730  10.313
65418SOL    HW198151   4.174   6.811  10.338
65418SOL    HW298152   4.223   6.679  10.393
65419SOL     OW98153  13.939   9.011  10.556
65419SOL    HW198154  14.034   9.006  10.556
65419SOL    HW298155  13.911   8.940  10.613
65420SOL     OW98156  12.759   2.764   6.689
65420SOL    HW198157  12.748   2.842   6.743
65420SOL    HW298158  12.681   2.711   6.706
65421SOL     OW98159   0.721  14.675  14.501
65421SOL    HW198160   0.726  14.762  14.460
65421SOL    HW298161   0.812  14.655  14.526
65422SOL     OW98162  11.708  10.001   6.265
65422SOL    HW198163  11.669   9.955   6.191
65422SOL    HW298164  11.633  10.039   6.312
65423SOL     OW98165  13.112  11.370   3.864
65423SOL    HW198166  13.092  11.444   3.806
65423SOL    HW298167  13.172  11.407   3.929
65424SOL     OW98168   8.181  11.213   2.078
65424SOL    HW198169   8.150  11.274   2.010
65424SOL    HW298170   8.132  11.132   2.060
65425SOL     OW98171   1.728   9.068  13.163
65425SOL    HW198172   1.648   9.077  13.110
65425SOL    HW298173   1.795   9.042  13.100
65426SOL     OW98174  11.776  11.345  11.835
65426SOL    HW198175  11.715  11.271  11.832
65426SOL    HW298176  11.846  11.317  11.893
65427SOL     OW98177  11.317   2.584   4.041
65427SOL    HW198178  11.276   2.519   4.098
65427SOL    HW298179  11.398   2.541   4.012
65428SOL     OW98180   5.047   9.309   3.556
65428SOL    HW198181   5.043   9.214   3.560
65428SOL    HW298182   4.985   9.332   3.486
65429SOL     OW98183   6.423   1.697   1.064
65429SOL    HW198184   6.390   1.618   1.106
65429SOL    HW298185   6.518   1.693   1.077
65430SOL     OW98186  13.744   6.739   8.845
65430SOL    HW198187  13.667   6.715   8.897
65430SOL    HW298188  13.708   6.791   8.773
65431SOL     OW98189   8.856  14.462   2.246
65431SOL    HW198190   8.768  14.442   2.278
65431SOL    HW298191   8.849  14.456   2.151
65432SOL     OW98192   4.740   1.306   5.217
65432SOL    HW198193   4.649   1.317   5.244
65432SOL    HW298194   4.791   1.328   5.296
65433SOL     OW98195   9.801   4.492  14.869
65433SOL    HW198196   9.862   4.496  14.796
65433SOL    HW298197   9.796   4.582   0.021
65434SOL     OW98198   7.850   7.145   3.626
65434SOL    HW198199   7.922   7.197   3.659
65434SOL    HW298200   7.823   7.091   3.700
65435SOL     OW98201   2.289  10.284   9.972
65435SOL    HW198202   2.364  10.339   9.955
65435SOL    HW298203   2.326  10.201  10.001
65436SOL     OW98204  14.634   6.090   5.420
65436SOL    HW198205  14.619   6.133   5.335
65436SOL    HW298206  14.601   6.001   5.409
65437SOL     OW98207  13.515   1.140   5.931
65437SOL    HW198208  13.485   1.229   5.949
65437SOL    HW298209  13.443   1.101   5.881
65438SOL     OW98210  10.479   9.934   6.459
65438SOL    HW198211  10.414   9.865   6.443
65438SOL    HW298212  10.496   9.930   6.553
65439SOL     OW98213  10.975   5.276  13.940
65439SOL    HW198214  11.008   5.209  13.880
65439SOL    HW298215  10.882   5.284  13.918
65440SOL     OW98216  10.948   5.188   3.480
65440SOL    HW198217  10.900   5.252   3.428
65440SOL    HW298218  10.915   5.199   3.569
65441SOL     OW98219   7.913   5.489   9.893
65441SOL    HW198220   7.869   5.453   9.816
65441SOL    HW298221   7.979   5.550   9.857
65442SOL     OW98222   0.853   2.340   6.148
65442SOL    HW198223   0.843   2.260   6.095
65442SOL    HW298224   0.847   2.411   6.084
65443SOL     OW98225  10.010  14.083   0.371
65443SOL    HW198226  10.043  14.118   0.288
65443SOL    HW298227  10.043  14.144   0.437
65444SOL     OW98228   2.409   1.345   6.108
65444SOL    HW198229   2.398   1.381   6.196
65444SOL    HW298230   2.501   1.321   6.104
65445SOL     OW98231   0.233   4.745  14.406
65445SOL    HW198232   0.220   4.832  14.369
65445SOL    HW298233   0.300   4.705  14.351
65446SOL     OW98234   4.126   1.643   0.005
65446SOL    HW198235   4.078   1.713  14.840
65446SOL    HW298236   4.216   1.675   0.011
65447SOL     OW98237  11.334  12.094   1.013
65447SOL    HW198238  11.422  12.061   1.031
65447SOL    HW298239  11.333  12.110   0.918
65448SOL     OW98240   0.156   6.368   7.654
65448SOL    HW198241   0.214   6.439   7.627
65448SOL    HW298242   0.151   6.311   7.577
65449SOL     OW98243   9.658  11.784   8.562
65449SOL    HW198244   9.645  11.815   8.472
65449SOL    HW298245   9.624  11.695   8.562
65450SOL     OW98246   7.256  11.063  14.268
65450SOL    HW198247   7.277  11.138  14.213
65450SOL    HW298248   7.324  11.062  14.336
65451SOL     OW98249   5.311   7.179   3.098
65451SOL    HW198250   5.239   7.117   3.109
65451SOL    HW298251   5.365   7.167   3.176
65452SOL     OW98252  14.018  12.780   8.846
65452SOL    HW198253  13.986  12.690   8.837
65452SOL    HW298254  14.113  12.773   8.832
65453SOL     OW98255   2.524   0.394  14.414
65453SOL    HW198256   2.589   0.453  14.453
65453SOL    HW298257   2.531   0.313  14.464
65454SOL     OW98258  13.811  10.979   7.100
65454SOL    HW198259  13.896  10.936   7.107
65454SOL    HW298260  13.817  11.053   7.161
65455SOL     OW98261  14.566   8.736   1.940
65455SOL    HW198262  14.543   8.795   2.013
65455SOL    HW298263  14.661   8.740   1.936
65456SOL     OW98264  12.779  14.490   8.538
65456SOL    HW198265  12.847  14.499   8.471
65456SOL    HW298266  12.716  14.559   8.518
65457SOL     OW98267   6.095   2.627  12.879
65457SOL    HW198268   6.143   2.546  12.898
65457SOL    HW298269   6.072   2.662  12.964
65458SOL     OW98270   6.067  10.187   6.861
65458SOL    HW198271   5.984  10.221   6.895
65458SOL    HW298272   6.068  10.095   6.889
65459SOL     OW98273  13.503   2.056   3.746
65459SOL    HW198274  13.474   2.145   3.724
65459SOL    HW298275  13.503   2.009   3.663
65460SOL     OW98276  14.205   3.690   1.420
65460SOL    HW198277  14.296   3.664   1.404
65460SOL    HW298278  14.159   3.666   1.339
65461SOL     OW98279  14.124  12.924   7.228
65461SOL    HW198280  14.160  12.873   7.156
65461SOL    HW298281  14.172  12.895   7.305
65462SOL     OW98282   1.535   7.997  14.194
65462SOL    HW198283   1.560   8.085  14.223
65462SOL    HW298284   1.594   7.938  14.242
65463SOL     OW98285   4.075   4.101  11.022
65463SOL    HW198286   4.034   4.172  10.973
65463SOL    HW298287   4.134   4.059  10.959
65464SOL     OW98288  14.084   5.634   9.164
65464SOL    HW198289  14.077   5.549   9.120
65464SOL    HW298290  14.153   5.621   9.230
65465SOL     OW98291  13.011   5.150   3.541
65465SOL    HW198292  13.045   5.098   3.614
65465SOL    HW298293  13.040   5.102   3.463
65466SOL     OW98294   0.432   7.373   6.779
65466SOL    HW198295   0.451   7.362   6.872
65466SOL    HW298296   0.357   7.315   6.763
65467SOL     OW98297   3.904  14.048   8.727
65467SOL    HW198298   3.910  14.126   8.782
65467SOL    HW298299   3.922  13.975   8.787
65468SOL     OW98300   8.675   7.855   6.641
65468SOL    HW198301   8.712   7.880   6.557
65468SOL    HW298302   8.722   7.776   6.666
65469SOL     OW98303  12.080  12.044   1.694
65469SOL    HW198304  12.095  12.137   1.674
65469SOL    HW298305  12.146  11.997   1.644
65470SOL     OW98306   5.295  14.375   1.839
65470SOL    HW198307   5.207  14.413   1.840
65470SOL    HW298308   5.317  14.364   1.932
65471SOL     OW98309  12.051   2.565  12.555
65471SOL    HW198310  11.999   2.492  12.523
65471SOL    HW298311  12.099   2.596  12.478
65472SOL     OW98312  10.266   9.760   5.485
65472SOL    HW198313  10.262   9.665   5.476
65472SOL    HW298314  10.313   9.774   5.567
65473SOL     OW98315  10.307   1.892  10.811
65473SOL    HW198316  10.402   1.879  10.816
65473SOL    HW298317  10.271   1.810  10.845
65474SOL     OW98318   4.535   9.069   0.795
65474SOL    HW198319   4.489   9.038   0.717
65474SOL    HW298320   4.526   9.164   0.792
65475SOL     OW98321   0.958   4.213   0.826
65475SOL    HW198322   0.951   4.270   0.902
65475SOL    HW298323   0.916   4.262   0.755
65476SOL     OW98324   6.969   3.572   4.529
65476SOL    HW198325   6.949   3.567   4.623
65476SOL    HW298326   7.055   3.614   4.525
65477SOL     OW98327   4.290   0.045  11.885
65477SOL    HW198328   4.229   0.050  11.811
65477SOL    HW298329   4.301   0.136  11.913
65478SOL     OW98330  13.364  10.770   4.320
65478SOL    HW198331  13.424  10.713   4.368
65478SOL    HW298332  13.389  10.859   4.347
65479SOL     OW98333  12.388  14.386   1.581
65479SOL    HW198334  12.427  14.448   1.644
65479SOL    HW298335  12.295  14.386   1.602
65480SOL     OW98336   0.285  11.122   7.566
65480SOL    HW198337   0.357  11.140   7.627
65480SOL    HW298338   0.322  11.059   7.504
65481SOL     OW98339   5.603   0.896   7.588
65481SOL    HW198340   5.552   0.847   7.523
65481SOL    HW298341   5.694   0.870   7.571
65482SOL     OW98342   4.085   3.918   8.711
65482SOL    HW198343   3.997   3.956   8.708
65482SOL    HW298344   4.089   3.873   8.796
65483SOL     OW98345  10.672   4.440   2.375
65483SOL    HW198346  10.577   4.428   2.379
65483SOL    HW298347  10.693   4.441   2.282
65484SOL     OW98348   7.138   1.797   7.254
65484SOL    HW198349   7.175   1.775   7.168
65484SOL    HW298350   7.156   1.720   7.308
65485SOL     OW98351   8.257  10.326   3.428
65485SOL    HW198352   8.219  10.319   3.341
65485SOL    HW298353   8.211  10.261   3.481
65486SOL     OW98354   1.089  13.351   6.866
65486SOL    HW198355   1.050  13.293   6.801
65486SOL    HW298356   1.182  13.356   6.843
65487SOL     OW98357   4.981   4.129  12.769
65487SOL    HW198358   5.077   4.127  12.774
65487SOL    HW298359   4.962   4.207  12.716
65488SOL     OW98360  10.026   3.995  14.392
65488SOL    HW198361  10.032   3.949  14.476
65488SOL    HW298362  10.117   4.017  14.371
65489SOL     OW98363   4.810  13.733   2.613
65489SOL    HW198364   4.863  13.712   2.535
65489SOL    HW298365   4.728  13.766   2.578
65490SOL     OW98366  13.179   2.229   9.555
65490SOL    HW198367  13.162   2.276   9.473
65490SOL    HW298368  13.272   2.205   9.550
65491SOL     OW98369   5.592  13.998   3.736
65491SOL    HW198370   5.560  14.060   3.671
65491SOL    HW298371   5.525  13.997   3.804
65492SOL     OW98372  11.856  12.898   0.119
65492SOL    HW198373  11.853  12.980   0.168
65492SOL    HW298374  11.858  12.925   0.027
65493SOL     OW98375   2.951   8.936   5.429
65493SOL    HW198376   2.890   8.964   5.497
65493SOL    HW298377   3.008   9.011   5.414
65494SOL     OW98378  10.654   0.993   7.720
65494SOL    HW198379  10.703   0.993   7.638
65494SOL    HW298380  10.642   0.900   7.741
65495SOL     OW98381   9.398  14.432  12.037
65495SOL    HW198382   9.394  14.528  12.041
65495SOL    HW298383   9.346  14.403  12.112
65496SOL     OW98384   2.115   0.379   2.548
65496SOL    HW198385   2.165   0.371   2.629
65496SOL    HW298386   2.179   0.362   2.479
65497SOL     OW98387   7.049   3.697   6.773
65497SOL    HW198388   7.073   3.634   6.705
65497SOL    HW298389   7.066   3.783   6.733
65498SOL     OW98390  11.590  12.558   0.751
65498SOL    HW198391  11.664  12.595   0.798
65498SOL    HW298392  11.517  12.617   0.770
65499SOL     OW98393  11.776   8.870   5.577
65499SOL    HW198394  11.766   8.933   5.648
65499SOL    HW298395  11.689   8.832   5.566
65500SOL     OW98396   9.924   3.906   7.544
65500SOL    HW198397   9.903   3.914   7.637
65500SOL    HW298398   9.843   3.874   7.504
65501SOL     OW98399  13.581  11.004   5.327
65501SOL    HW198400  13.558  10.988   5.418
65501SOL    HW298401  13.655  11.064   5.331
65502SOL     OW98402   0.071   5.935   6.316
65502SOL    HW198403   0.018   5.962   6.391
65502SOL    HW298404   0.054   6.001   6.249
65503SOL     OW98405   1.896   5.328   0.541
65503SOL    HW198406   1.862   5.355   0.626
65503SOL    HW298407   1.991   5.341   0.548
65504SOL     OW98408   6.349  10.568  12.117
65504SOL    HW198409   6.263  10.554  12.076
65504SOL    HW298410   6.336  10.545  12.209
65505SOL     OW98411  12.936   3.521  10.512
65505SOL    HW198412  12.866   3.500  10.449
65505SOL    HW298413  13.000   3.451  10.499
65506SOL     OW98414   7.162  11.039   3.932
65506SOL    HW198415   7.177  10.957   3.978
65506SOL    HW298416   7.099  11.017   3.863
65507SOL     OW98417   9.842   1.829   9.288
65507SOL    HW198418   9.882   1.914   9.270
65507SOL    HW298419   9.797   1.806   9.206
65508SOL     OW98420   8.744  12.868   9.013
65508SOL    HW198421   8.765  12.901   9.101
65508SOL    HW298422   8.658  12.829   9.023
65509SOL     OW98423  12.474   0.567  11.939
65509SOL    HW198424  12.516   0.587  12.023
65509SOL    HW298425  12.498   0.640  11.882
65510SOL     OW98426  14.382   5.295  14.693
65510SOL    HW198427  14.326   5.356  14.741
65510SOL    HW298428  14.322   5.227  14.662
65511SOL     OW98429   3.583   6.636   0.754
65511SOL    HW198430   3.675   6.651   0.777
65511SOL    HW298431   3.557   6.559   0.805
65512SOL     OW98432   5.670   0.377   1.763
65512SOL    HW198433   5.575   0.374   1.779
65512SOL    HW298434   5.694   0.286   1.745
65513SOL     OW98435   6.121   5.969   5.768
65513SOL    HW198436   6.174   5.924   5.702
65513SOL    HW298437   6.181   5.988   5.839
65514SOL     OW98438   9.709   4.846   4.629
65514SOL    HW198439   9.726   4.813   4.717
65514SOL    HW298440   9.663   4.774   4.585
65515SOL     OW98441   1.620  11.819  14.855
65515SOL    HW198442   1.579  11.890   0.025
65515SOL    HW298443   1.586  11.829  14.767
65516SOL     OW98444  11.690   2.990   3.938
65516SOL    HW198445  11.684   3.084   3.953
65516SOL    HW298446  11.627   2.973   3.868
65517SOL     OW98447   0.841   7.300  14.849
65517SOL    HW198448   0.749   7.297  14.876
65517SOL    HW298449   0.866   7.208  14.839
65518SOL     OW98450   0.432   1.670  10.804
65518SOL    HW198451   0.490   1.743  10.821
65518SOL    HW298452   0.459   1.636  10.718
65519SOL     OW98453  14.732  11.627   6.001
65519SOL    HW198454  14.643  11.654   6.025
65519SOL    HW298455  14.774  11.609   6.085
65520SOL     OW98456   7.392  14.123   1.009
65520SOL    HW198457   7.422  14.128   1.100
65520SOL    HW298458   7.376  14.030   0.994
65521SOL     OW98459   0.671   1.706   1.630
65521SOL    HW198460   0.691   1.615   1.652
65521SOL    HW298461   0.643   1.702   1.538
65522SOL     OW98462   5.494   0.907  12.109
65522SOL    HW198463   5.526   0.864  12.030
65522SOL    HW298464   5.572   0.918  12.163
65523SOL     OW98465   4.524   1.756   2.634
65523SOL    HW198466   4.568   1.835   2.666
65523SOL    HW298467   4.510   1.703   2.713
65524SOL     OW98468   6.215  14.874  14.297
65524SOL    HW198469   6.139  14.874  14.238
65524SOL    HW298470   6.207  14.792  14.346
65525SOL     OW98471  12.556  10.986   2.906
65525SOL    HW198472  12.506  11.045   2.962
65525SOL    HW298473  12.647  11.004   2.929
65526SOL     OW98474  11.689  12.500   9.611
65526SOL    HW198475  11.778  12.533   9.597
65526SOL    HW298476  11.660  12.473   9.524
65527SOL     OW98477   7.382  14.733   5.100
65527SOL    HW198478   7.425  14.769   5.022
65527SOL    HW298479   7.288  14.738   5.080
65528SOL     OW98480   5.574   0.517   2.371
65528SOL    HW198481   5.634   0.451   2.336
65528SOL    HW298482   5.587   0.594   2.315
65529SOL     OW98483  11.116   4.623   9.824
65529SOL    HW198484  11.045   4.687   9.824
65529SOL    HW298485  11.167   4.644   9.745
65530SOL     OW98486   6.508   8.083   7.014
65530SOL    HW198487   6.541   7.993   7.020
65530SOL    HW298488   6.561   8.123   6.945
65531SOL     OW98489   3.414   8.606  13.068
65531SOL    HW198490   3.380   8.686  13.028
65531SOL    HW298491   3.442   8.552  12.994
65532SOL     OW98492   2.549   8.144  12.622
65532SOL    HW198493   2.609   8.105  12.686
65532SOL    HW298494   2.550   8.237  12.642
65533SOL     OW98495   5.925  14.001   8.274
65533SOL    HW198496   5.971  14.057   8.213
65533SOL    HW298497   5.835  13.998   8.241
65534SOL     OW98498  11.250  11.424   2.564
65534SOL    HW198499  11.296  11.420   2.481
65534SOL    HW298500  11.310  11.467   2.624
65535SOL     OW98501   7.794   2.323   5.329
65535SOL    HW198502   7.836   2.337   5.244
65535SOL    HW298503   7.709   2.366   5.320
65536SOL     OW98504   4.058   1.159  11.734
65536SOL    HW198505   4.126   1.136  11.670
65536SOL    HW298506   3.988   1.197  11.681
65537SOL     OW98507   3.426   3.381   5.235
65537SOL    HW198508   3.516   3.379   5.202
65537SOL    HW298509   3.435   3.374   5.330
65538SOL     OW98510   0.753   0.265   7.131
65538SOL    HW198511   0.731   0.239   7.042
65538SOL    HW298512   0.800   0.348   7.121
65539SOL     OW98513   4.328   2.345   7.183
65539SOL    HW198514   4.382   2.394   7.121
65539SOL    HW298515   4.381   2.270   7.207
65540SOL     OW98516  13.535  13.292  11.987
65540SOL    HW198517  13.605  13.320  12.046
65540SOL    HW298518  13.455  13.297  12.040
65541SOL     OW98519   6.610  13.889  14.043
65541SOL    HW198520   6.641  13.976  14.019
65541SOL    HW298521   6.514  13.896  14.040
65542SOL     OW98522   0.689  10.311  11.279
65542SOL    HW198523   0.705  10.358  11.361
65542SOL    HW298524   0.744  10.355  11.214
65543SOL     OW98525   1.163  12.348  12.920
65543SOL    HW198526   1.156  12.328  12.827
65543SOL    HW298527   1.108  12.426  12.932
65544SOL     OW98528   4.945  14.343   6.912
65544SOL    HW198529   4.882  14.293   6.861
65544SOL    HW298530   4.956  14.294   6.994
65545SOL     OW98531   5.160   2.476   0.491
65545SOL    HW198532   5.091   2.541   0.507
65545SOL    HW298533   5.228   2.497   0.555
65546SOL     OW98534  13.412   5.346  12.307
65546SOL    HW198535  13.441   5.260  12.337
65546SOL    HW298536  13.451   5.408  12.368
65547SOL     OW98537  12.514  10.828  14.204
65547SOL    HW198538  12.486  10.737  14.217
65547SOL    HW298539  12.436  10.872  14.172
65548SOL     OW98540   5.288  11.411  14.550
65548SOL    HW198541   5.341  11.389  14.626
65548SOL    HW298542   5.351  11.435  14.482
65549SOL     OW98543   5.358   0.701   5.225
65549SOL    HW198544   5.360   0.774   5.287
65549SOL    HW298545   5.447   0.697   5.190
65550SOL     OW98546   5.757   1.183  14.636
65550SOL    HW198547   5.805   1.262  14.610
65550SOL    HW298548   5.824   1.114  14.637
65551SOL     OW98549  11.902   3.641  11.452
65551SOL    HW198550  11.874   3.559  11.492
65551SOL    HW298551  11.994   3.649  11.476
65552SOL     OW98552   9.167   2.016   5.721
65552SOL    HW198553   9.233   1.979   5.662
65552SOL    HW298554   9.084   2.004   5.675
65553SOL     OW98555   6.592   6.645  12.967
65553SOL    HW198556   6.519   6.693  13.006
65553SOL    HW298557   6.554   6.598  12.893
65554SOL     OW98558   1.560  10.195   4.350
65554SOL    HW198559   1.585  10.107   4.321
65554SOL    HW298560   1.626  10.253   4.313
65555SOL     OW98561   7.048   9.202  12.162
65555SOL    HW198562   7.063   9.281  12.216
65555SOL    HW298563   6.976   9.227  12.104
65556SOL     OW98564   5.047  14.487   2.207
65556SOL    HW198565   5.124  14.508   2.154
65556SOL    HW298566   4.973  14.497   2.147
65557SOL     OW98567  11.153  13.147  11.423
65557SOL    HW198568  11.111  13.179  11.502
65557SOL    HW298569  11.100  13.182  11.351
65558SOL     OW98570  11.240   9.363   6.383
65558SOL    HW198571  11.190   9.428   6.333
65558SOL    HW298572  11.268   9.410   6.462
65559SOL     OW98573  13.786   7.452   9.287
65559SOL    HW198574  13.691   7.447   9.296
65559SOL    HW298575  13.817   7.487   9.370
65560SOL     OW98576   1.157   1.618  11.656
65560SOL    HW198577   1.167   1.695  11.600
65560SOL    HW298578   1.210   1.551  11.614
65561SOL     OW98579   3.292   4.295   7.471
65561SOL    HW198580   3.329   4.357   7.534
65561SOL    HW298581   3.364   4.276   7.411
65562SOL     OW98582  13.763   6.971   2.023
65562SOL    HW198583  13.791   6.880   2.034
65562SOL    HW298584  13.702   6.987   2.096
65563SOL     OW98585   8.507  10.438   4.020
65563SOL    HW198586   8.470  10.350   4.019
65563SOL    HW298587   8.506  10.466   3.929
65564SOL     OW98588  13.176   0.657   7.481
65564SOL    HW198589  13.132   0.715   7.418
65564SOL    HW298590  13.168   0.702   7.565
65565SOL     OW98591   9.978  11.624   2.495
65565SOL    HW198592   9.994  11.572   2.417
65565SOL    HW298593   9.922  11.696   2.466
65566SOL     OW98594   0.338   3.555   5.486
65566SOL    HW198595   0.320   3.560   5.580
65566SOL    HW298596   0.417   3.608   5.474
65567SOL     OW98597   3.478   2.637  10.615
65567SOL    HW198598   3.435   2.575  10.557
65567SOL    HW298599   3.447   2.614  10.702
65568SOL     OW98600   1.073   6.917   4.012
65568SOL    HW198601   1.132   6.981   4.053
65568SOL    HW298602   1.010   6.895   4.081
65569SOL     OW98603   7.498  14.091   1.278
65569SOL    HW198604   7.533  14.012   1.319
65569SOL    HW298605   7.570  14.154   1.283
65570SOL     OW98606   6.190  13.366   2.584
65570SOL    HW198607   6.175  13.404   2.498
65570SOL    HW298608   6.280  13.335   2.581
65571SOL     OW98609   7.864  11.465   7.544
65571SOL    HW198610   7.792  11.476   7.483
65571SOL    HW298611   7.827  11.486   7.630
65572SOL     OW98612  13.859  12.893   5.061
65572SOL    HW198613  13.831  12.984   5.060
65572SOL    HW298614  13.930  12.888   4.998
65573SOL     OW98615   2.420   2.520  10.339
65573SOL    HW198616   2.485   2.590  10.340
65573SOL    HW298617   2.453   2.455  10.402
65574SOL     OW98618   3.064   4.278   3.553
65574SOL    HW198619   3.056   4.182   3.559
65574SOL    HW298620   3.083   4.294   3.461
65575SOL     OW98621   4.627   0.399  11.370
65575SOL    HW198622   4.713   0.437  11.354
65575SOL    HW298623   4.615   0.335  11.299
65576SOL     OW98624  11.682   9.441   0.686
65576SOL    HW198625  11.671   9.355   0.727
65576SOL    HW298626  11.698   9.501   0.760
65577SOL     OW98627   2.969   7.587  12.529
65577SOL    HW198628   2.893   7.530  12.527
65577SOL    HW298629   3.011   7.574  12.444
65578SOL     OW98630   1.487   1.797   2.709
65578SOL    HW198631   1.431   1.814   2.785
65578SOL    HW298632   1.488   1.702   2.700
65579SOL     OW98633   1.175   1.894   4.056
65579SOL    HW198634   1.118   1.870   3.984
65579SOL    HW298635   1.151   1.834   4.127
65580SOL     OW98636   9.324   2.368   2.129
65580SOL    HW198637   9.376   2.433   2.081
65580SOL    HW298638   9.234   2.397   2.120
65581SOL     OW98639   6.016   2.595   0.921
65581SOL    HW198640   6.055   2.519   0.963
65581SOL    HW298641   5.944   2.621   0.979
65582SOL     OW98642   0.681  13.130   8.224
65582SOL    HW198643   0.689  13.045   8.269
65582SOL    HW298644   0.762  13.137   8.174
65583SOL     OW98645  11.640  13.223   7.176
65583SOL    HW198646  11.580  13.284   7.219
65583SOL    HW298647  11.708  13.279   7.138
65584SOL     OW98648   7.163   4.094  13.831
65584SOL    HW198649   7.150   4.160  13.899
65584SOL    HW298650   7.142   4.011  13.873
65585SOL     OW98651   6.160   0.613  12.413
65585SOL    HW198652   6.143   0.683  12.476
65585SOL    HW298653   6.091   0.624  12.347
65586SOL     OW98654   7.760   3.124   2.246
65586SOL    HW198655   7.847   3.119   2.286
65586SOL    HW298656   7.714   3.190   2.297
65587SOL     OW98657   4.363   6.899  13.220
65587SOL    HW198658   4.376   6.888  13.314
65587SOL    HW298659   4.393   6.988  13.202
65588SOL     OW98660   0.281   8.348   6.315
65588SOL    HW198661   0.219   8.292   6.362
65588SOL    HW298662   0.321   8.290   6.250
65589SOL     OW98663  12.217   9.968   8.330
65589SOL    HW198664  12.195  10.021   8.408
65589SOL    HW298665  12.268   9.895   8.364
65590SOL     OW98666   8.126   9.525   5.950
65590SOL    HW198667   8.130   9.431   5.962
65590SOL    HW298668   8.041   9.551   5.987
65591SOL     OW98669   1.390  12.979   5.002
65591SOL    HW198670   1.331  13.011   5.070
65591SOL    HW298671   1.406  13.055   4.947
65592SOL     OW98672   7.452  13.143  11.035
65592SOL    HW198673   7.504  13.215  11.002
65592SOL    HW298674   7.366  13.181  11.054
65593SOL     OW98675  13.779   9.169  14.783
65593SOL    HW198676  13.860   9.188  14.829
65593SOL    HW298677  13.803   9.170  14.690
65594SOL     OW98678  14.687  12.074   4.039
65594SOL    HW198679  14.657  11.993   3.997
65594SOL    HW298680  14.606  12.115   4.072
65595SOL     OW98681  14.672  14.606   6.135
65595SOL    HW198682  14.652  14.608   6.228
65595SOL    HW298683  14.727  14.682   6.120
65596SOL     OW98684   5.331   2.062   2.133
65596SOL    HW198685   5.284   2.053   2.216
65596SOL    HW298686   5.269   2.105   2.074
65597SOL     OW98687   2.151   2.576   2.199
65597SOL    HW198688   2.173   2.629   2.123
65597SOL    HW298689   2.072   2.528   2.174
65598SOL     OW98690  13.884   0.516  13.097
65598SOL    HW198691  13.803   0.478  13.062
65598SOL    HW298692  13.880   0.500  13.191
65599SOL     OW98693   4.789   1.311   4.077
65599SOL    HW198694   4.812   1.289   3.987
65599SOL    HW298695   4.851   1.379   4.102
65600SOL     OW98696   9.634   5.145  12.410
65600SOL    HW198697   9.551   5.185  12.436
65600SOL    HW298698   9.632   5.058  12.450
65601SOL     OW98699   0.198   0.972   3.405
65601SOL    HW198700   0.278   1.021   3.423
65601SOL    HW298701   0.179   0.928   3.488
65602SOL     OW98702   9.719   0.965   7.101
65602SOL    HW198703   9.778   0.991   7.172
65602SOL    HW298704   9.753   0.881   7.071
65603SOL     OW98705  13.215   9.153   5.537
65603SOL    HW198706  13.207   9.247   5.550
65603SOL    HW298707  13.232   9.143   5.443
65604SOL     OW98708  14.089   9.441   6.989
65604SOL    HW198709  14.092   9.536   7.000
65604SOL    HW298710  14.171   9.410   7.027
65605SOL     OW98711   0.832   3.215   0.953
65605SOL    HW198712   0.770   3.162   1.003
65605SOL    HW298713   0.778   3.262   0.890
65606SOL     OW98714  12.635   4.012   9.414
65606SOL    HW198715  12.566   3.946   9.426
65606SOL    HW298716  12.623   4.045   9.325
65607SOL     OW98717   5.412  14.734   8.520
65607SOL    HW198718   5.334  14.775   8.483
65607SOL    HW298719   5.481  14.800   8.510
65608SOL     OW98720   9.779   9.200   6.927
65608SOL    HW198721   9.849   9.201   6.991
65608SOL    HW298722   9.720   9.131   6.957
65609SOL     OW98723   0.508  14.840   8.418
65609SOL    HW198724   0.449  14.841   8.343
65609SOL    HW298725   0.459  14.796   8.487
65610SOL     OW98726   8.070  12.622  11.525
65610SOL    HW198727   8.143  12.679  11.501
65610SOL    HW298728   8.090  12.592  11.613
65611SOL     OW98729  12.846  11.382   8.736
65611SOL    HW198730  12.857  11.391   8.830
65611SOL    HW298731  12.933  11.359   8.703
65612SOL     OW98732  10.343   8.724   7.512
65612SOL    HW198733  10.343   8.773   7.429
65612SOL    HW298734  10.291   8.778   7.572
65613SOL     OW98735  10.852   3.966   0.308
65613SOL    HW198736  10.796   4.032   0.349
65613SOL    HW298737  10.809   3.947   0.225
65614SOL     OW98738   6.746  12.040   4.064
65614SOL    HW198739   6.741  12.130   4.032
65614SOL    HW298740   6.764  11.988   3.986
65615SOL     OW98741  12.856   7.004   4.304
65615SOL    HW198742  12.887   7.076   4.359
65615SOL    HW298743  12.806   6.948   4.364
65616SOL     OW98744  12.061  12.967   9.032
65616SOL    HW198745  12.062  12.930   8.944
65616SOL    HW298746  12.140  13.022   9.036
65617SOL     OW98747  12.613   5.251   9.979
65617SOL    HW198748  12.614   5.280   9.888
65617SOL    HW298749  12.639   5.159   9.975
65618SOL     OW98750   2.000   2.582   9.801
65618SOL    HW198751   1.949   2.635   9.740
65618SOL    HW298752   2.051   2.646   9.851
65619SOL     OW98753   9.149  10.614   8.463
65619SOL    HW198754   9.161  10.611   8.558
65619SOL    HW298755   9.165  10.705   8.439
65620SOL     OW98756   4.007   7.595   8.562
65620SOL    HW198757   3.975   7.513   8.524
65620SOL    HW298758   4.076   7.624   8.502
65621SOL     OW98759   1.569   1.008  10.703
65621SOL    HW198760   1.568   0.923  10.659
65621SOL    HW298761   1.521   1.066  10.644
65622SOL     OW98762   8.974  11.796   8.439
65622SOL    HW198763   8.957  11.840   8.356
65622SOL    HW298764   8.965  11.702   8.418
65623SOL     OW98765   4.678   0.237  14.163
65623SOL    HW198766   4.715   0.149  14.167
65623SOL    HW298767   4.754   0.295  14.152
65624SOL     OW98768   1.676  14.374  12.281
65624SOL    HW198769   1.629  14.355  12.200
65624SOL    HW298770   1.752  14.317  12.278
65625SOL     OW98771   5.926   8.597  12.503
65625SOL    HW198772   5.968   8.607  12.589
65625SOL    HW298773   5.839   8.563  12.523
65626SOL     OW98774   2.401  14.326  14.353
65626SOL    HW198775   2.467  14.315  14.422
65626SOL    HW298776   2.452  14.330  14.272
65627SOL     OW98777  11.784   4.810   7.210
65627SOL    HW198778  11.704   4.776   7.169
65627SOL    HW298779  11.785   4.903   7.185
65628SOL     OW98780   9.519  12.999  13.720
65628SOL    HW198781   9.582  13.041  13.662
65628SOL    HW298782   9.566  12.988  13.803
65629SOL     OW98783   6.237   2.133  11.592
65629SOL    HW198784   6.210   2.190  11.664
65629SOL    HW298785   6.160   2.080  11.571
65630SOL     OW98786  13.930   2.023  12.687
65630SOL    HW198787  13.934   2.041  12.593
65630SOL    HW298788  13.836   2.014  12.705
65631SOL     OW98789  10.957   0.867   3.692
65631SOL    HW198790  10.916   0.897   3.773
65631SOL    HW298791  10.984   0.948   3.648
65632SOL     OW98792   2.407   5.098   2.902
65632SOL    HW198793   2.341   5.088   2.971
65632SOL    HW298794   2.356   5.111   2.822
65633SOL     OW98795   8.680  14.281   5.966
65633SOL    HW198796   8.759  14.226   5.967
65633SOL    HW298797   8.640  14.267   6.052
65634SOL     OW98798   2.662   3.607   5.394
65634SOL    HW198799   2.615   3.614   5.478
65634SOL    HW298800   2.592   3.598   5.329
65635SOL     OW98801   3.142   2.957   9.322
65635SOL    HW198802   3.119   3.046   9.294
65635SOL    HW298803   3.166   2.966   9.414
65636SOL     OW98804  10.802   3.673  11.289
65636SOL    HW198805  10.722   3.702  11.333
65636SOL    HW298806  10.774   3.604  11.230
65637SOL     OW98807  11.944   0.141  11.641
65637SOL    HW198808  11.852   0.129  11.665
65637SOL    HW298809  11.992   0.082  11.698
65638SOL     OW98810   1.160   4.152  11.354
65638SOL    HW198811   1.182   4.064  11.386
65638SOL    HW298812   1.081   4.139  11.302
65639SOL     OW98813   3.761   4.198  13.622
65639SOL    HW198814   3.741   4.285  13.589
65639SOL    HW298815   3.679   4.149  13.614
65640SOL     OW98816   5.605  10.498  13.243
65640SOL    HW198817   5.685  10.518  13.292
65640SOL    HW298818   5.623  10.413  13.202
65641SOL     OW98819   5.932   6.608  10.305
65641SOL    HW198820   5.947   6.633  10.214
65641SOL    HW298821   5.837   6.604  10.314
65642SOL     OW98822  11.298   5.048   2.336
65642SOL    HW198823  11.347   4.967   2.353
65642SOL    HW298824  11.330   5.109   2.402
65643SOL     OW98825  14.069   5.288   5.539
65643SOL    HW198826  14.036   5.342   5.467
65643SOL    HW298827  14.125   5.223   5.497
65644SOL     OW98828   0.952   9.757   9.258
65644SOL    HW198829   1.035   9.733   9.299
65644SOL    HW298830   0.975   9.776   9.167
65645SOL     OW98831  13.254  14.056   4.101
65645SOL    HW198832  13.236  14.008   4.020
65645SOL    HW298833  13.349  14.052   4.110
65646SOL     OW98834   6.893  10.117   0.949
65646SOL    HW198835   6.903  10.210   0.932
65646SOL    HW298836   6.967  10.076   0.903
65647SOL     OW98837   6.351  13.367   9.059
65647SOL    HW198838   6.308  13.282   9.070
65647SOL    HW298839   6.374  13.371   8.967
65648SOL     OW98840   8.611   9.057   2.013
65648SOL    HW198841   8.570   8.992   1.956
65648SOL    HW298842   8.565   9.049   2.096
65649SOL     OW98843   4.666   3.889  14.672
65649SOL    HW198844   4.651   3.827  14.744
65649SOL    HW298845   4.596   3.870  14.609
65650SOL     OW98846   9.255   1.608   7.707
65650SOL    HW198847   9.180   1.666   7.693
65650SOL    HW298848   9.323   1.664   7.743
65651SOL     OW98849   8.129  11.972   2.666
65651SOL    HW198850   8.180  12.022   2.603
65651SOL    HW298851   8.194  11.938   2.727
65652SOL     OW98852   2.772   7.318   4.288
65652SOL    HW198853   2.778   7.351   4.199
65652SOL    HW298854   2.710   7.246   4.283
65653SOL     OW98855   6.966  11.196   7.276
65653SOL    HW198856   6.884  11.154   7.301
65653SOL    HW298857   6.941  11.266   7.217
65654SOL     OW98858  12.535  10.621   8.624
65654SOL    HW198859  12.486  10.622   8.705
65654SOL    HW298860  12.470  10.639   8.556
65655SOL     OW98861   9.397   8.104  14.397
65655SOL    HW198862   9.486   8.108  14.361
65655SOL    HW298863   9.393   8.018  14.440
65656SOL     OW98864  11.141  10.705   3.077
65656SOL    HW198865  11.201  10.630   3.077
65656SOL    HW298866  11.061  10.671   3.116
65657SOL     OW98867  10.580  12.649  13.137
65657SOL    HW198868  10.612  12.584  13.200
65657SOL    HW298869  10.650  12.714  13.132
65658SOL     OW98870   2.553   1.883   7.883
65658SOL    HW198871   2.550   1.829   7.805
65658SOL    HW298872   2.466   1.922   7.888
65659SOL     OW98873  13.350  13.030   6.019
65659SOL    HW198874  13.399  13.094   5.967
65659SOL    HW298875  13.283  13.082   6.064
65660SOL     OW98876  10.587   4.608   8.456
65660SOL    HW198877  10.535   4.556   8.395
65660SOL    HW298878  10.644   4.661   8.400
65661SOL     OW98879   7.897   9.284  11.492
65661SOL    HW198880   7.959   9.356  11.509
65661SOL    HW298881   7.856   9.267  11.576
65662SOL     OW98882   1.224   4.994   1.723
65662SOL    HW198883   1.315   4.968   1.738
65662SOL    HW298884   1.214   5.076   1.771
65663SOL     OW98885   2.129  10.059  10.476
65663SOL    HW198886   2.108  10.114  10.551
65663SOL    HW298887   2.075  10.094  10.405
65664SOL     OW98888   5.266   2.468   5.793
65664SOL    HW198889   5.199   2.531   5.767
65664SOL    HW298890   5.235   2.384   5.759
65665SOL     OW98891  11.867   5.072  13.688
65665SOL    HW198892  11.827   5.030  13.764
65665SOL    HW298893  11.911   5.000  13.642
65666SOL     OW98894   1.556  10.914   7.191
65666SOL    HW198895   1.564  10.869   7.274
65666SOL    HW298896   1.461  10.929   7.181
65667SOL     OW98897   7.569   6.734   2.335
65667SOL    HW198898   7.493   6.743   2.277
65667SOL    HW298899   7.575   6.819   2.379
65668SOL     OW98900  11.691   1.647   3.368
65668SOL    HW198901  11.661   1.590   3.298
65668SOL    HW298902  11.706   1.732   3.326
65669SOL     OW98903   7.703   0.531  12.864
65669SOL    HW198904   7.733   0.456  12.814
65669SOL    HW298905   7.752   0.605  12.829
65670SOL     OW98906   3.939   2.151  14.564
65670SOL    HW198907   3.862   2.206  14.576
65670SOL    HW298908   3.970   2.135  14.653
65671SOL     OW98909   5.773   7.683   0.218
65671SOL    HW198910   5.723   7.669   0.138
65671SOL    HW298911   5.850   7.625   0.209
65672SOL     OW98912   2.275   6.194   4.661
65672SOL    HW198913   2.346   6.202   4.725
65672SOL    HW298914   2.240   6.282   4.652
65673SOL     OW98915   8.034   1.020   9.538
65673SOL    HW198916   8.011   1.022   9.445
65673SOL    HW298917   8.129   1.004   9.539
65674SOL     OW98918   6.471   9.272   7.044
65674SOL    HW198919   6.489   9.324   7.122
65674SOL    HW298920   6.449   9.185   7.077
65675SOL     OW98921   4.204   5.579  10.847
65675SOL    HW198922   4.275   5.567  10.909
65675SOL    HW298923   4.216   5.667  10.812
65676SOL     OW98924   3.856   9.703  10.474
65676SOL    HW198925   3.806   9.702  10.556
65676SOL    HW298926   3.938   9.659  10.495
65677SOL     OW98927   5.586   6.286   4.513
65677SOL    HW198928   5.595   6.380   4.499
65677SOL    HW298929   5.605   6.247   4.428
65678SOL     OW98930  14.523   5.079  11.882
65678SOL    HW198931  14.597   5.130  11.849
65678SOL    HW298932  14.454   5.093  11.818
65679SOL     OW98933  12.815   4.798  11.019
65679SOL    HW198934  12.905   4.790  10.987
65679SOL    HW298935  12.819   4.867  11.085
65680SOL     OW98936  14.005   0.454   7.208
65680SOL    HW198937  14.084   0.436   7.157
65680SOL    HW298938  14.033   0.513   7.277
65681SOL     OW98939   1.794   7.576   7.813
65681SOL    HW198940   1.826   7.528   7.736
65681SOL    HW298941   1.818   7.520   7.887
65682SOL     OW98942   5.886   6.841   9.565
65682SOL    HW198943   5.872   6.751   9.536
65682SOL    HW298944   5.845   6.895   9.497
65683SOL     OW98945   3.498   9.380  10.729
65683SOL    HW198946   3.478   9.423  10.645
65683SOL    HW298947   3.536   9.296  10.704
65684SOL     OW98948   5.842  12.924  10.549
65684SOL    HW198949   5.836  12.851  10.610
65684SOL    HW298950   5.759  12.971  10.559
65685SOL     OW98951   5.944   5.236   1.809
65685SOL    HW198952   5.983   5.233   1.896
65685SOL    HW298953   5.875   5.303   1.816
65686SOL     OW98954   7.266  10.970   5.779
65686SOL    HW198955   7.171  10.980   5.782
65686SOL    HW298956   7.280  10.875   5.771
65687SOL     OW98957   5.088   8.073   8.146
65687SOL    HW198958   5.130   8.149   8.188
65687SOL    HW298959   5.103   8.001   8.206
65688SOL     OW98960   4.254  10.294  10.640
65688SOL    HW198961   4.165  10.267  10.617
65688SOL    HW298962   4.309  10.222  10.608
65689SOL     OW98963  14.068   0.913  14.517
65689SOL    HW198964  14.110   0.960  14.590
65689SOL    HW298965  14.074   0.973  14.443
65690SOL     OW98966   0.496   3.434  11.691
65690SOL    HW198967   0.483   3.341  11.671
65690SOL    HW298968   0.520   3.474  11.607
65691SOL     OW98969   0.516   5.907   5.233
65691SOL    HW198970   0.606   5.882   5.252
65691SOL    HW298971   0.523   5.980   5.171
65692SOL     OW98972  12.819  10.959   2.480
65692SOL    HW198973  12.826  10.918   2.566
65692SOL    HW298974  12.741  10.921   2.441
65693SOL     OW98975   5.566   1.869   0.117
65693SOL    HW198976   5.511   1.944   0.140
65693SOL    HW298977   5.616   1.898   0.040
65694SOL     OW98978  11.480   1.588  12.478
65694SOL    HW198979  11.488   1.567  12.385
65694SOL    HW298980  11.559   1.637  12.498
65695SOL     OW98981  12.482   8.154   7.597
65695SOL    HW198982  12.405   8.113   7.635
65695SOL    HW298983  12.556   8.118   7.646
65696SOL     OW98984   7.659  11.131  13.403
65696SOL    HW198985   7.597  11.077  13.452
65696SOL    HW298986   7.616  11.145  13.318
65697SOL     OW98987   0.522   5.794   3.574
65697SOL    HW198988   0.560   5.813   3.660
65697SOL    HW298989   0.437   5.839   3.575
65698SOL     OW98990  12.219   5.824   9.034
65698SOL    HW198991  12.269   5.892   9.078
65698SOL    HW298992  12.160   5.873   8.975
65699SOL     OW98993   8.986  11.279  14.552
65699SOL    HW198994   8.976  11.198  14.601
65699SOL    HW298995   8.932  11.342  14.600
65700SOL     OW98996   0.625   0.901  11.226
65700SOL    HW198997   0.655   0.810  11.230
65700SOL    HW298998   0.606   0.915  11.133
65701SOL     OW98999   0.343   8.354   4.124
65701SOL    HW199000   0.303   8.348   4.037
65701SOL    HW299001   0.359   8.447   4.137
65702SOL     OW99002  11.993  12.634   4.667
65702SOL    HW199003  11.917  12.607   4.720
65702SOL    HW299004  11.954  12.671   4.588
65703SOL     OW99005   7.494   3.114   5.886
65703SOL    HW199006   7.538   3.052   5.944
65703SOL    HW299007   7.511   3.080   5.798
65704SOL     OW99008  14.678  13.180   7.518
65704SOL    HW199009  14.769  13.194   7.545
65704SOL    HW299010  14.657  13.256   7.464
65705SOL     OW99011  12.451   4.906  14.349
65705SOL    HW199012  12.497   4.950  14.278
65705SOL    HW299013  12.381   4.967  14.373
65706SOL     OW99014  10.585   0.354   2.908
65706SOL    HW199015  10.621   0.271   2.939
65706SOL    HW299016  10.572   0.406   2.988
65707SOL     OW99017  13.219   6.414   0.116
65707SOL    HW199018  13.272   6.361   0.057
65707SOL    HW299019  13.248   6.390   0.204
65708SOL     OW99020  11.415   0.161  14.749
65708SOL    HW199021  11.510   0.170  14.738
65708SOL    HW299022  11.378   0.210  14.676
65709SOL     OW99023   7.144   3.144   1.096
65709SOL    HW199024   7.121   3.070   1.153
65709SOL    HW299025   7.072   3.206   1.106
65710SOL     OW99026   6.826   2.653  11.597
65710SOL    HW199027   6.777   2.594  11.540
65710SOL    HW299028   6.866   2.716  11.538
65711SOL     OW99029  12.991   6.753   4.248
65711SOL    HW199030  13.085   6.751   4.233
65711SOL    HW299031  12.970   6.846   4.257
65712SOL     OW99032   2.166   2.953  10.216
65712SOL    HW199033   2.073   2.966  10.234
65712SOL    HW299034   2.193   3.032  10.169
65713SOL     OW99035   3.441   8.226  14.836
65713SOL    HW199036   3.413   8.211   0.047
65713SOL    HW299037   3.429   8.141  14.793
65714SOL     OW99038  13.832   1.179  14.255
65714SOL    HW199039  13.925   1.177  14.230
65714SOL    HW299040  13.831   1.148  14.345
65715SOL     OW99041  12.110  13.198  13.947
65715SOL    HW199042  12.042  13.131  13.939
65715SOL    HW299043  12.162  13.188  13.867
65716SOL     OW99044   3.813   9.736  14.057
65716SOL    HW199045   3.775   9.744  13.970
65716SOL    HW299046   3.763   9.666  14.099
65717SOL     OW99047   7.555  13.118   4.394
65717SOL    HW199048   7.550  13.166   4.312
65717SOL    HW299049   7.498  13.042   4.381
65718SOL     OW99050   5.409   3.157  13.871
65718SOL    HW199051   5.445   3.071  13.848
65718SOL    HW299052   5.329   3.136  13.919
65719SOL     OW99053   3.916   6.170   4.702
65719SOL    HW199054   3.878   6.139   4.619
65719SOL    HW299055   3.848   6.155   4.767
65720SOL     OW99056   5.775   5.502   3.599
65720SOL    HW199057   5.817   5.585   3.578
65720SOL    HW299058   5.842   5.436   3.584
65721SOL     OW99059   3.214   0.368  11.932
65721SOL    HW199060   3.255   0.371  11.846
65721SOL    HW299061   3.131   0.322  11.918
65722SOL     OW99062  12.072  14.458  10.058
65722SOL    HW199063  12.026  14.398  10.000
65722SOL    HW299064  12.009  14.529  10.074
65723SOL     OW99065  12.166   1.772  13.444
65723SOL    HW199066  12.176   1.704  13.378
65723SOL    HW299067  12.255   1.801  13.463
65724SOL     OW99068  10.805   8.105  12.613
65724SOL    HW199069  10.841   8.057  12.687
65724SOL    HW299070  10.756   8.177  12.653
65725SOL     OW99071   8.927  12.196  12.131
65725SOL    HW199072   8.925  12.113  12.082
65725SOL    HW299073   8.907  12.170  12.221
65726SOL     OW99074  14.067   6.247  12.133
65726SOL    HW199075  14.108   6.283  12.212
65726SOL    HW299076  14.042   6.324  12.082
65727SOL     OW99077   4.644  14.156   9.288
65727SOL    HW199078   4.552  14.182   9.277
65727SOL    HW299079   4.660  14.095   9.216
65728SOL     OW99080   4.938  10.100   3.095
65728SOL    HW199081   4.918  10.165   3.028
65728SOL    HW299082   5.003  10.043   3.054
65729SOL     OW99083   5.730   2.768  10.866
65729SOL    HW199084   5.732   2.857  10.901
65729SOL    HW299085   5.783   2.772  10.786
65730SOL     OW99086   0.317  12.108  14.273
65730SOL    HW199087   0.386  12.073  14.329
65730SOL    HW299088   0.339  12.200  14.263
65731SOL     OW99089   8.550   4.198   8.041
65731SOL    HW199090   8.598   4.263   8.092
65731SOL    HW299091   8.574   4.216   7.950
65732SOL     OW99092   9.662   1.174  13.661
65732SOL    HW199093   9.715   1.095  13.646
65732SOL    HW299094   9.676   1.228  13.584
65733SOL     OW99095   7.191   1.918   6.514
65733SOL    HW199096   7.272   1.945   6.470
65733SOL    HW299097   7.188   1.971   6.593
65734SOL     OW99098   3.463  14.046   9.200
65734SOL    HW199099   3.461  13.950   9.206
65734SOL    HW299100   3.407  14.066   9.126
65735SOL     OW99101  12.713   2.901  10.089
65735SOL    HW199102  12.741   2.810  10.080
65735SOL    HW299103  12.794   2.949  10.106
65736SOL     OW99104   9.910  11.657  11.664
65736SOL    HW199105   9.897  11.605  11.584
65736SOL    HW299106   9.831  11.641  11.716
65737SOL     OW99107   2.488   2.608   0.830
65737SOL    HW199108   2.548   2.548   0.874
65737SOL    HW299109   2.419   2.552   0.795
65738SOL     OW99110  12.284   6.532   3.823
65738SOL    HW199111  12.189   6.525   3.823
65738SOL    HW299112  12.301   6.626   3.815
65739SOL     OW99113  10.953  11.088  13.589
65739SOL    HW199114  10.994  11.036  13.520
65739SOL    HW299115  10.941  11.174  13.550
65740SOL     OW99116   7.491   4.750   6.427
65740SOL    HW199117   7.429   4.823   6.415
65740SOL    HW299118   7.572   4.793   6.454
65741SOL     OW99119  13.275  11.430   2.845
65741SOL    HW199120  13.349  11.483   2.815
65741SOL    HW299121  13.257  11.370   2.773
65742SOL     OW99122  11.933  11.073  11.605
65742SOL    HW199123  11.902  10.984  11.619
65742SOL    HW299124  11.885  11.103  11.528
65743SOL     OW99125   3.582   5.417   7.964
65743SOL    HW199126   3.638   5.486   7.999
65743SOL    HW299127   3.570   5.439   7.872
65744SOL     OW99128   3.141  10.146   6.533
65744SOL    HW199129   3.143  10.067   6.587
65744SOL    HW299130   3.076  10.129   6.466
65745SOL     OW99131  12.232  13.766  12.684
65745SOL    HW199132  12.136  13.761  12.689
65745SOL    HW299133  12.258  13.688  12.636
65746SOL     OW99134   7.070   9.606   4.925
65746SOL    HW199135   7.004   9.539   4.940
65746SOL    HW299136   7.147   9.575   4.974
65747SOL     OW99137   6.363  10.220   6.704
65747SOL    HW199138   6.268  10.222   6.690
65747SOL    HW299139   6.383  10.309   6.735
65748SOL     OW99140   7.740  11.028  13.034
65748SOL    HW199141   7.668  11.005  13.094
65748SOL    HW299142   7.815  10.980  13.068
65749SOL     OW99143   1.472   4.654   6.017
65749SOL    HW199144   1.459   4.625   5.927
65749SOL    HW299145   1.564   4.681   6.021
65750SOL     OW99146  12.841  13.424   1.175
65750SOL    HW199147  12.928  13.418   1.214
65750SOL    HW299148  12.840  13.357   1.106
65751SOL     OW99149  12.685   5.278  10.273
65751SOL    HW199150  12.674   5.366  10.309
65751SOL    HW299151  12.675   5.289  10.179
65752SOL     OW99152   0.304  11.592   9.503
65752SOL    HW199153   0.380  11.627   9.549
65752SOL    HW299154   0.289  11.506   9.543
65753SOL     OW99155   6.259   0.964   9.682
65753SOL    HW199156   6.301   0.982   9.766
65753SOL    HW299157   6.198   0.893   9.701
65754SOL     OW99158   3.234   2.876   3.611
65754SOL    HW199159   3.277   2.891   3.695
65754SOL    HW299160   3.158   2.823   3.631
65755SOL     OW99161   4.997   2.358   6.276
65755SOL    HW199162   5.047   2.280   6.251
65755SOL    HW299163   5.019   2.423   6.209
65756SOL     OW99164   8.439   8.967   4.693
65756SOL    HW199165   8.485   8.959   4.776
65756SOL    HW299166   8.352   9.000   4.718
65757SOL     OW99167   9.626   7.133  12.084
65757SOL    HW199168   9.583   7.049  12.105
65757SOL    HW299169   9.586   7.195  12.145
65758SOL     OW99170   5.290   5.603   9.300
65758SOL    HW199171   5.201   5.639   9.289
65758SOL    HW299172   5.343   5.653   9.238
65759SOL     OW99173  12.784   2.542   9.053
65759SOL    HW199174  12.849   2.558   8.984
65759SOL    HW299175  12.707   2.512   9.006
65760SOL     OW99176  12.655   5.083   5.450
65760SOL    HW199177  12.689   5.106   5.536
65760SOL    HW299178  12.594   5.154   5.429
65761SOL     OW99179  13.270   8.748   7.240
65761SOL    HW199180  13.283   8.801   7.161
65761SOL    HW299181  13.348   8.763   7.293
65762SOL     OW99182   2.440  12.458   1.962
65762SOL    HW199183   2.534  12.468   1.949
65762SOL    HW299184   2.432  12.386   2.024
65763SOL     OW99185   3.392  13.094   8.913
65763SOL    HW199186   3.385  13.009   8.955
65763SOL    HW299187   3.395  13.075   8.819
65764SOL     OW99188   7.188   5.929   9.169
65764SOL    HW199189   7.282   5.937   9.184
65764SOL    HW299190   7.148   5.970   9.246
65765SOL     OW99191  10.109   9.152   5.681
65765SOL    HW199192  10.042   9.217   5.664
65765SOL    HW299193  10.182   9.177   5.623
65766SOL     OW99194   0.830  14.168   4.968
65766SOL    HW199195   0.829  14.111   4.891
65766SOL    HW299196   0.739  14.170   4.998
65767SOL     OW99197   4.013   2.303   7.605
65767SOL    HW199198   4.041   2.359   7.677
65767SOL    HW299199   4.080   2.234   7.600
65768SOL     OW99200   0.488  13.120  12.831
65768SOL    HW199201   0.574  13.128  12.874
65768SOL    HW299202   0.492  13.036  12.786
65769SOL     OW99203   5.813   2.962   1.373
65769SOL    HW199204   5.742   2.900   1.389
65769SOL    HW299205   5.820   2.966   1.277
65770SOL     OW99206   1.687   6.975   6.826
65770SOL    HW199207   1.731   6.912   6.883
65770SOL    HW299208   1.595   6.953   6.833
65771SOL     OW99209   6.354  13.028   8.947
65771SOL    HW199210   6.296  13.025   9.023
65771SOL    HW299211   6.302  13.070   8.879
65772SOL     OW99212   0.620   1.727   8.741
65772SOL    HW199213   0.691   1.770   8.789
65772SOL    HW299214   0.542   1.743   8.794
65773SOL     OW99215   1.018   8.979  12.428
65773SOL    HW199216   1.004   8.887  12.407
65773SOL    HW299217   0.959   8.997  12.500
65774SOL     OW99218  11.675   6.257   1.557
65774SOL    HW199219  11.671   6.334   1.499
65774SOL    HW299220  11.638   6.288   1.640
65775SOL     OW99221   0.669  11.867  12.901
65775SOL    HW199222   0.753  11.822  12.906
65775SOL    HW299223   0.689  11.957  12.925
65776SOL     OW99224   1.386   3.015   4.514
65776SOL    HW199225   1.431   3.040   4.594
65776SOL    HW299226   1.321   3.084   4.500
65777SOL     OW99227  11.156   7.788   9.990
65777SOL    HW199228  11.093   7.726   9.952
65777SOL    HW299229  11.136   7.871   9.947
65778SOL     OW99230   5.368   1.733   3.727
65778SOL    HW199231   5.371   1.675   3.651
65778SOL    HW299232   5.413   1.684   3.796
65779SOL     OW99233   4.210  10.513   2.196
65779SOL    HW199234   4.281  10.565   2.158
65779SOL    HW299235   4.143  10.510   2.128
65780SOL     OW99236   9.191  14.447   3.904
65780SOL    HW199237   9.235  14.364   3.923
65780SOL    HW299238   9.102  14.435   3.938
65781SOL     OW99239   9.467   4.582   9.634
65781SOL    HW199240   9.496   4.500   9.673
65781SOL    HW299241   9.485   4.572   9.540
65782SOL     OW99242  12.837  13.301   8.890
65782SOL    HW199243  12.791  13.283   8.808
65782SOL    HW299244  12.873  13.216   8.916
65783SOL     OW99245   8.299   5.928   6.978
65783SOL    HW199246   8.280   6.010   6.932
65783SOL    HW299247   8.278   5.859   6.914
65784SOL     OW99248   3.541   7.635   6.928
65784SOL    HW199249   3.537   7.645   6.833
65784SOL    HW299250   3.542   7.725   6.962
65785SOL     OW99251   5.024   4.400   4.725
65785SOL    HW199252   5.070   4.473   4.766
65785SOL    HW299253   4.935   4.404   4.761
65786SOL     OW99254   9.479   8.667   8.396
65786SOL    HW199255   9.417   8.734   8.366
65786SOL    HW299256   9.549   8.717   8.439
65787SOL     OW99257  12.027   1.217   3.048
65787SOL    HW199258  12.111   1.228   3.091
65787SOL    HW299259  12.024   1.286   2.982
65788SOL     OW99260  10.261  13.741   7.675
65788SOL    HW199261  10.284  13.735   7.583
65788SOL    HW299262  10.345  13.741   7.721
65789SOL     OW99263  13.072   4.765   1.810
65789SOL    HW199264  13.099   4.700   1.745
65789SOL    HW299265  13.034   4.836   1.758
65790SOL     OW99266   9.869   1.670   5.626
65790SOL    HW199267   9.784   1.691   5.664
65790SOL    HW299268   9.931   1.725   5.674
65791SOL     OW99269   0.608  11.272   0.561
65791SOL    HW199270   0.635  11.344   0.505
65791SOL    HW299271   0.592  11.199   0.500
65792SOL     OW99272   8.341   3.924   2.662
65792SOL    HW199273   8.327   3.924   2.568
65792SOL    HW299274   8.254   3.912   2.699
65793SOL     OW99275  13.670   7.101  11.328
65793SOL    HW199276  13.688   7.121  11.236
65793SOL    HW299277  13.703   7.011  11.339
65794SOL     OW99278   4.033  13.610   0.487
65794SOL    HW199279   4.090  13.538   0.512
65794SOL    HW299280   4.026  13.664   0.565
65795SOL     OW99281  10.526   0.816   3.087
65795SOL    HW199282  10.522   0.811   2.991
65795SOL    HW299283  10.435   0.823   3.114
65796SOL     OW99284   8.311   4.351  12.174
65796SOL    HW199285   8.394   4.353  12.221
65796SOL    HW299286   8.254   4.297  12.230
65797SOL     OW99287   6.454   2.032  14.200
65797SOL    HW199288   6.423   2.015  14.289
65797SOL    HW299289   6.547   2.049  14.210
65798SOL     OW99290  10.597   7.059   0.641
65798SOL    HW199291  10.559   7.107   0.567
65798SOL    HW299292  10.537   6.986   0.655
65799SOL     OW99293  12.206   5.130  10.195
65799SOL    HW199294  12.162   5.069  10.255
65799SOL    HW299295  12.149   5.207  10.195
65800SOL     OW99296   3.571   4.302   3.986
65800SOL    HW199297   3.645   4.251   4.017
65800SOL    HW299298   3.515   4.238   3.940
65801SOL     OW99299  10.240  10.722   0.218
65801SOL    HW199300  10.281  10.721   0.132
65801SOL    HW299301  10.156  10.678   0.206
65802SOL     OW99302   7.892  12.298   0.144
65802SOL    HW199303   7.914  12.205   0.140
65802SOL    HW299304   7.797  12.301   0.136
65803SOL     OW99305   9.704   6.871   1.313
65803SOL    HW199306   9.612   6.851   1.297
65803SOL    HW299307   9.723   6.946   1.256
65804SOL     OW99308  14.786   3.016   0.604
65804SOL    HW199309  14.877   2.995   0.625
65804SOL    HW299310  14.735   2.943   0.638
65805SOL     OW99311   8.177   8.008   6.420
65805SOL    HW199312   8.221   8.078   6.371
65805SOL    HW299313   8.096   7.993   6.372
65806SOL     OW99314   6.033  13.861  10.963
65806SOL    HW199315   6.099  13.910  11.014
65806SOL    HW299316   5.952  13.873  11.012
65807SOL     OW99317   8.864  11.133   3.619
65807SOL    HW199318   8.863  11.133   3.524
65807SOL    HW299319   8.808  11.207   3.644
65808SOL     OW99320  12.132   8.687   6.582
65808SOL    HW199321  12.193   8.646   6.643
65808SOL    HW299322  12.081   8.748   6.636
65809SOL     OW99323   1.178   8.951  10.555
65809SOL    HW199324   1.233   9.008  10.501
65809SOL    HW299325   1.107   8.923  10.497
65810SOL     OW99326   3.348  13.029  10.385
65810SOL    HW199327   3.325  13.119  10.407
65810SOL    HW299328   3.441  13.034  10.362
65811SOL     OW99329  14.515   6.021   4.445
65811SOL    HW199330  14.481   5.997   4.531
65811SOL    HW299331  14.590   5.964   4.432
65812SOL     OW99332   1.920   3.568  10.003
65812SOL    HW199333   1.893   3.512  10.076
65812SOL    HW299334   1.866   3.647  10.012
65813SOL     OW99335   9.048   7.229   8.127
65813SOL    HW199336   8.992   7.305   8.111
65813SOL    HW299337   9.131   7.267   8.155
65814SOL     OW99338   1.227  10.262  14.707
65814SOL    HW199339   1.165  10.219  14.766
65814SOL    HW299340   1.299  10.201  14.699
65815SOL     OW99341  14.320   2.070  13.610
65815SOL    HW199342  14.350   2.079  13.701
65815SOL    HW299343  14.298   2.159  13.583
65816SOL     OW99344  12.633   4.107  14.539
65816SOL    HW199345  12.686   4.104  14.459
65816SOL    HW299346  12.547   4.075  14.513
65817SOL     OW99347  10.976   2.061   3.050
65817SOL    HW199348  10.887   2.086   3.026
65817SOL    HW299349  11.030   2.091   2.977
65818SOL     OW99350   6.731  12.074  12.738
65818SOL    HW199351   6.670  12.116  12.799
65818SOL    HW299352   6.796  12.142  12.718
65819SOL     OW99353  14.781  10.475  10.305
65819SOL    HW199354  14.774  10.383  10.329
65819SOL    HW299355  14.696  10.496  10.265
65820SOL     OW99356   6.205   0.792   9.904
65820SOL    HW199357   6.206   0.701   9.872
65820SOL    HW299358   6.113   0.810   9.923
65821SOL     OW99359  13.225   2.645  10.740
65821SOL    HW199360  13.186   2.672  10.823
65821SOL    HW299361  13.213   2.721  10.682
65822SOL     OW99362  11.839   1.441   7.828
65822SOL    HW199363  11.791   1.430   7.746
65822SOL    HW299364  11.917   1.491   7.803
65823SOL     OW99365  11.571   4.944   5.928
65823SOL    HW199366  11.647   4.920   5.980
65823SOL    HW299367  11.519   4.864   5.921
65824SOL     OW99368   1.639   3.960   9.059
65824SOL    HW199369   1.631   3.887   8.997
65824SOL    HW299370   1.680   3.922   9.136
65825SOL     OW99371   1.394   3.451   1.892
65825SOL    HW199372   1.370   3.475   1.802
65825SOL    HW299373   1.409   3.535   1.936
65826SOL     OW99374  11.672   3.009   8.981
65826SOL    HW199375  11.692   3.099   9.009
65826SOL    HW299376  11.583   2.994   9.012
65827SOL     OW99377  14.682  14.757   0.098
65827SOL    HW199378  14.595  14.790   0.077
65827SOL    HW299379  14.727  14.754   0.013
65828SOL     OW99380  14.250   1.039   9.459
65828SOL    HW199381  14.315   1.109   9.454
65828SOL    HW299382  14.247   1.003   9.370
65829SOL     OW99383   8.314   7.251   3.722
65829SOL    HW199384   8.374   7.292   3.659
65829SOL    HW299385   8.324   7.157   3.706
65830SOL     OW99386  10.567  10.706  11.363
65830SOL    HW199387  10.623  10.779  11.387
65830SOL    HW299388  10.575  10.699  11.268
65831SOL     OW99389  13.976  14.880   8.852
65831SOL    HW199390  14.047  14.858   8.913
65831SOL    HW299391  13.898   0.002   8.906
65832SOL     OW99392   5.535   1.891  11.487
65832SOL    HW199393   5.524   1.864  11.395
65832SOL    HW299394   5.459   1.854  11.532
65833SOL     OW99395  11.352   6.922   0.879
65833SOL    HW199396  11.285   6.918   0.947
65833SOL    HW299397  11.321   6.988   0.817
65834SOL     OW99398   0.549   6.990   2.916
65834SOL    HW199399   0.504   6.906   2.905
65834SOL    HW299400   0.496   7.052   2.866
65835SOL     OW99401  12.339   4.440  11.818
65835SOL    HW199402  12.261   4.423  11.872
65835SOL    HW299403  12.304   4.452  11.729
65836SOL     OW99404  10.206   3.090   3.769
65836SOL    HW199405  10.254   3.080   3.852
65836SOL    HW299406  10.271   3.073   3.701
65837SOL     OW99407   1.100  11.808  12.530
65837SOL    HW199408   1.070  11.742  12.592
65837SOL    HW299409   1.162  11.862  12.580
65838SOL     OW99410   2.119   4.308  10.362
65838SOL    HW199411   2.041   4.262  10.392
65838SOL    HW299412   2.169   4.324  10.442
65839SOL     OW99413   0.956  13.223   9.228
65839SOL    HW199414   1.009  13.163   9.176
65839SOL    HW299415   0.883  13.247   9.170
65840SOL     OW99416   4.914   0.612  14.015
65840SOL    HW199417   5.006   0.638  14.007
65840SOL    HW299418   4.869   0.692  14.042
65841SOL     OW99419  12.344   2.287   2.589
65841SOL    HW199420  12.418   2.316   2.537
65841SOL    HW299421  12.383   2.249   2.668
65842SOL     OW99422   8.034   2.746   5.985
65842SOL    HW199423   8.100   2.801   5.943
65842SOL    HW299424   7.981   2.712   5.912
65843SOL     OW99425  11.904   9.071   3.765
65843SOL    HW199426  11.885   8.978   3.772
65843SOL    HW299427  11.849   9.112   3.831
65844SOL     OW99428   6.610  11.707   8.575
65844SOL    HW199429   6.567  11.680   8.657
65844SOL    HW299430   6.537  11.725   8.515
65845SOL     OW99431   6.331   4.764   3.157
65845SOL    HW199432   6.357   4.822   3.086
65845SOL    HW299433   6.354   4.812   3.237
65846SOL     OW99434   0.734   5.083   9.996
65846SOL    HW199435   0.695   5.101  10.082
65846SOL    HW299436   0.728   5.166   9.949
65847SOL     OW99437   3.297  10.745   6.400
65847SOL    HW199438   3.269  10.793   6.322
65847SOL    HW299439   3.219  10.741   6.455
65848SOL     OW99440   4.498   1.212   0.916
65848SOL    HW199441   4.569   1.275   0.929
65848SOL    HW299442   4.476   1.182   1.005
65849SOL     OW99443   0.818   1.004   5.401
65849SOL    HW199444   0.808   1.021   5.307
65849SOL    HW299445   0.730   1.018   5.437
65850SOL     OW99446   4.014   0.103   4.020
65850SOL    HW199447   3.929   0.057   4.016
65850SOL    HW299448   4.079   0.032   4.021
65851SOL     OW99449   2.561   6.880   7.979
65851SOL    HW199450   2.591   6.855   7.892
65851SOL    HW299451   2.596   6.968   7.993
65852SOL     OW99452   6.995   5.360   3.390
65852SOL    HW199453   7.010   5.420   3.317
65852SOL    HW299454   7.051   5.393   3.460
65853SOL     OW99455   2.014   3.944   4.702
65853SOL    HW199456   2.079   3.984   4.644
65853SOL    HW299457   2.005   4.006   4.774
65854SOL     OW99458   9.693  11.073   8.959
65854SOL    HW199459   9.726  11.020   8.886
65854SOL    HW299460   9.732  11.159   8.945
65855SOL     OW99461  10.474   7.753   8.568
65855SOL    HW199462  10.463   7.662   8.541
65855SOL    HW299463  10.488   7.749   8.663
65856SOL     OW99464   4.702   4.943  13.289
65856SOL    HW199465   4.629   4.986  13.332
65856SOL    HW299466   4.725   5.000  13.215
65857SOL     OW99467   4.121   0.023  12.414
65857SOL    HW199468   4.190  14.838  12.425
65857SOL    HW299469   4.082   0.031  12.501
65858SOL     OW99470   2.261   1.157   7.780
65858SOL    HW199471   2.284   1.093   7.712
65858SOL    HW299472   2.166   1.156   7.783
65859SOL     OW99473   6.881   5.808  11.575
65859SOL    HW199474   6.933   5.791  11.497
65859SOL    HW299475   6.847   5.722  11.600
65860SOL     OW99476   7.360  12.169   9.611
65860SOL    HW199477   7.434  12.114   9.587
65860SOL    HW299478   7.284  12.124   9.577
65861SOL     OW99479  11.073  10.265   2.045
65861SOL    HW199480  10.989  10.266   2.091
65861SOL    HW299481  11.133  10.312   2.102
65862SOL     OW99482   9.492  14.611   3.718
65862SOL    HW199483   9.474  14.660   3.638
65862SOL    HW299484   9.505  14.521   3.688
65863SOL     OW99485   2.913  14.185   9.878
65863SOL    HW199486   2.958  14.197   9.962
65863SOL    HW299487   2.983  14.183   9.814
65864SOL     OW99488   2.864  13.058  12.228
65864SOL    HW199489   2.841  13.046  12.136
65864SOL    HW299490   2.929  12.990  12.246
65865SOL     OW99491   9.892   3.512  11.309
65865SOL    HW199492   9.981   3.477  11.297
65865SOL    HW299493   9.876   3.563  11.230
65866SOL     OW99494  11.407  13.353   6.412
65866SOL    HW199495  11.489  13.373   6.456
65866SOL    HW299496  11.432  13.335   6.321
65867SOL     OW99497   6.384   3.080   7.905
65867SOL    HW199498   6.376   3.065   7.811
65867SOL    HW299499   6.414   2.996   7.940
65868SOL     OW99500   8.335   8.171   4.510
65868SOL    HW199501   8.346   8.267   4.508
65868SOL    HW299502   8.265   8.154   4.448
65869SOL     OW99503   7.068   5.047   5.845
65869SOL    HW199504   7.116   4.968   5.819
65869SOL    HW299505   7.063   5.100   5.766
65870SOL     OW99506   9.543   0.625  13.944
65870SOL    HW199507   9.521   0.532  13.949
65870SOL    HW299508   9.639   0.627  13.944
65871SOL     OW99509   9.815   8.064  10.491
65871SOL    HW199510   9.806   7.977  10.529
65871SOL    HW299511   9.755   8.119  10.541
65872SOL     OW99512  10.584   0.932  11.923
65872SOL    HW199513  10.508   0.913  11.867
65872SOL    HW299514  10.604   1.024  11.905
65873SOL     OW99515   8.071  12.948   6.260
65873SOL    HW199516   8.024  12.881   6.309
65873SOL    HW299517   8.103  13.008   6.327
65874SOL     OW99518  12.802  10.765  11.944
65874SOL    HW199519  12.792  10.756  12.039
65874SOL    HW299520  12.715  10.790  11.914
65875SOL     OW99521   1.365   4.603   4.300
65875SOL    HW199522   1.309   4.531   4.269
65875SOL    HW299523   1.433   4.559   4.352
65876SOL     OW99524   2.436  11.378   5.958
65876SOL    HW199525   2.412  11.339   5.874
65876SOL    HW299526   2.394  11.464   5.958
65877SOL     OW99527   3.122  11.885  11.454
65877SOL    HW199528   3.188  11.816  11.443
65877SOL    HW299529   3.109  11.890  11.548
65878SOL     OW99530   0.964   6.988   1.306
65878SOL    HW199531   1.019   6.916   1.334
65878SOL    HW299532   1.019   7.039   1.247
65879SOL     OW99533  11.659  12.882   3.237
65879SOL    HW199534  11.635  12.952   3.176
65879SOL    HW299535  11.668  12.805   3.181
65880SOL     OW99536   4.193   3.853   5.662
65880SOL    HW199537   4.263   3.901   5.706
65880SOL    HW299538   4.131   3.832   5.731
65881SOL     OW99539   4.663   9.894   3.659
65881SOL    HW199540   4.586   9.869   3.710
65881SOL    HW299541   4.712   9.813   3.648
65882SOL     OW99542   8.757   1.641   6.326
65882SOL    HW199543   8.852   1.652   6.333
65882SOL    HW299544   8.737   1.564   6.380
65883SOL     OW99545   7.001  11.385   3.379
65883SOL    HW199546   7.036  11.302   3.345
65883SOL    HW299547   6.914  11.362   3.413
65884SOL     OW99548  14.836  14.039  12.062
65884SOL    HW199549  14.842  13.949  12.096
65884SOL    HW299550   0.017  14.041  11.988
65885SOL     OW99551  13.711   0.019  14.208
65885SOL    HW199552  13.701  14.808  14.234
65885SOL    HW299553  13.645   0.066  14.259
65886SOL     OW99554   7.172   4.646  13.416
65886SOL    HW199555   7.236   4.674  13.352
65886SOL    HW299556   7.132   4.727  13.448
65887SOL     OW99557   0.952   8.295   1.246
65887SOL    HW199558   0.980   8.204   1.256
65887SOL    HW299559   0.980   8.337   1.328
65888SOL     OW99560   2.412   7.127   2.006
65888SOL    HW199561   2.363   7.049   1.979
65888SOL    HW299562   2.496   7.094   2.036
65889SOL     OW99563   5.887   5.702   0.945
65889SOL    HW199564   5.843   5.785   0.924
65889SOL    HW299565   5.979   5.718   0.925
65890SOL     OW99566   7.320   4.314   8.705
65890SOL    HW199567   7.230   4.303   8.674
65890SOL    HW299568   7.313   4.378   8.776
65891SOL     OW99569  13.209   3.614  12.376
65891SOL    HW199570  13.191   3.544  12.314
65891SOL    HW299571  13.125   3.658  12.389
65892SOL     OW99572  10.568   5.980   7.805
65892SOL    HW199573  10.480   5.968   7.769
65892SOL    HW299574  10.599   5.892   7.825
65893SOL     OW99575   7.254   7.104  14.795
65893SOL    HW199576   7.235   7.159  14.871
65893SOL    HW299577   7.325   7.046  14.824
65894SOL     OW99578   2.376   8.275   1.273
65894SOL    HW199579   2.417   8.204   1.224
65894SOL    HW299580   2.391   8.353   1.219
65895SOL     OW99581   8.531  11.930   6.238
65895SOL    HW199582   8.567  11.913   6.325
65895SOL    HW299583   8.482  12.011   6.247
65896SOL     OW99584  12.474   7.109   2.697
65896SOL    HW199585  12.460   7.201   2.717
65896SOL    HW299586  12.521   7.075   2.774
65897SOL     OW99587   6.269   4.270   4.927
65897SOL    HW199588   6.348   4.256   4.979
65897SOL    HW299589   6.285   4.222   4.845
65898SOL     OW99590   8.608   6.267   8.439
65898SOL    HW199591   8.600   6.303   8.351
65898SOL    HW299592   8.658   6.186   8.427
65899SOL     OW99593  11.323  13.419  12.779
65899SOL    HW199594  11.313  13.327  12.805
65899SOL    HW299595  11.298  13.421  12.686
65900SOL     OW99596  11.446   8.726   0.770
65900SOL    HW199597  11.505   8.711   0.697
65900SOL    HW299598  11.396   8.804   0.745
65901SOL     OW99599   8.987   2.556  10.783
65901SOL    HW199600   8.993   2.461  10.797
65901SOL    HW299601   8.935   2.588  10.857
65902SOL     OW99602  12.390   3.132   3.321
65902SOL    HW199603  12.311   3.185   3.308
65902SOL    HW299604  12.437   3.139   3.238
65903SOL     OW99605   0.106   1.601  11.058
65903SOL    HW199606   0.026   1.596  11.006
65903SOL    HW299607   0.167   1.542  11.013
65904SOL     OW99608  10.320   7.512  10.367
65904SOL    HW199609  10.333   7.559  10.285
65904SOL    HW299610  10.378   7.436  10.361
65905SOL     OW99611   5.402   9.342  13.188
65905SOL    HW199612   5.382   9.266  13.134
65905SOL    HW299613   5.406   9.415  13.126
65906SOL     OW99614   2.058   0.987   5.893
65906SOL    HW199615   2.151   0.976   5.913
65906SOL    HW299616   2.054   1.065   5.839
65907SOL     OW99617   5.175   0.003   1.830
65907SOL    HW199618   5.180  14.820   1.759
65907SOL    HW299619   5.089  14.868   1.869
65908SOL     OW99620   2.143  10.916  10.357
65908SOL    HW199621   2.211  10.884  10.298
65908SOL    HW299622   2.061  10.897  10.312
65909SOL     OW99623   7.794   5.277   9.749
65909SOL    HW199624   7.828   5.205   9.697
65909SOL    HW299625   7.785   5.350   9.687
65910SOL     OW99626  13.911   8.730   6.361
65910SOL    HW199627  13.840   8.666   6.367
65910SOL    HW299628  13.895   8.775   6.278
65911SOL     OW99629   9.624   3.108   9.249
65911SOL    HW199630   9.712   3.075   9.266
65911SOL    HW299631   9.568   3.030   9.253
65912SOL     OW99632   5.193   8.924   2.715
65912SOL    HW199633   5.116   8.897   2.663
65912SOL    HW299634   5.190   8.869   2.793
65913SOL     OW99635   4.955  12.150   0.591
65913SOL    HW199636   4.963  12.074   0.649
65913SOL    HW299637   4.970  12.225   0.649
65914SOL     OW99638  14.466   8.194   1.488
65914SOL    HW199639  14.522   8.162   1.417
65914SOL    HW299640  14.455   8.118   1.546
65915SOL     OW99641  13.959   4.186   7.789
65915SOL    HW199642  13.990   4.095   7.791
65915SOL    HW299643  14.038   4.239   7.797
65916SOL     OW99644  11.698   1.148   2.669
65916SOL    HW199645  11.647   1.129   2.748
65916SOL    HW299646  11.751   1.069   2.656
65917SOL     OW99647   4.526  13.270   7.270
65917SOL    HW199648   4.527  13.213   7.193
65917SOL    HW299649   4.437  13.260   7.305
65918SOL     OW99650  11.139  10.539  12.034
65918SOL    HW199651  11.082  10.598  12.082
65918SOL    HW299652  11.095  10.524  11.951
65919SOL     OW99653  14.161   8.096   7.798
65919SOL    HW199654  14.256   8.105   7.792
65919SOL    HW299655  14.129   8.118   7.711
65920SOL     OW99656   4.908   5.164  11.348
65920SOL    HW199657   4.895   5.118  11.430
65920SOL    HW299658   4.920   5.256  11.373
65921SOL     OW99659   0.643  11.215  11.035
65921SOL    HW199660   0.605  11.225  11.122
65921SOL    HW299661   0.611  11.129  11.005
65922SOL     OW99662   5.792  12.776  13.520
65922SOL    HW199663   5.700  12.779  13.545
65922SOL    HW299664   5.832  12.715  13.582
65923SOL     OW99665   1.558   8.131  14.860
65923SOL    HW199666   1.649   8.157  14.878
65923SOL    HW299667   1.536   8.177  14.779
65924SOL     OW99668  10.211   1.706  14.344
65924SOL    HW199669  10.197   1.751  14.261
65924SOL    HW299670  10.171   1.620  14.332
65925SOL     OW99671   8.615   1.709   1.940
65925SOL    HW199672   8.621   1.801   1.966
65925SOL    HW299673   8.645   1.708   1.849
65926SOL     OW99674   2.999  12.097  12.153
65926SOL    HW199675   3.083  12.142  12.142
65926SOL    HW299676   2.992  12.038  12.078
65927SOL     OW99677   0.229   1.866   9.746
65927SOL    HW199678   0.209   1.959   9.737
65927SOL    HW299679   0.292   1.848   9.676
65928SOL     OW99680   8.475  11.274  14.146
65928SOL    HW199681   8.473  11.229  14.062
65928SOL    HW299682   8.499  11.206  14.209
65929SOL     OW99683   1.484   9.304  14.806
65929SOL    HW199684   1.413   9.275  14.748
65929SOL    HW299685   1.473   9.251   0.005
65930SOL     OW99686   2.884   5.212   0.787
65930SOL    HW199687   2.888   5.134   0.842
65930SOL    HW299688   2.967   5.258   0.804
65931SOL     OW99689   1.617   8.274   0.333
65931SOL    HW199690   1.611   8.186   0.295
65931SOL    HW299691   1.538   8.282   0.386
65932SOL     OW99692   2.980  12.783  11.527
65932SOL    HW199693   3.021  12.825  11.603
65932SOL    HW299694   2.890  12.815  11.529
65933SOL     OW99695  13.957   2.807   6.788
65933SOL    HW199696  13.937   2.715   6.805
65933SOL    HW299697  14.031   2.804   6.726
65934SOL     OW99698   5.421   1.323   1.110
65934SOL    HW199699   5.391   1.249   1.163
65934SOL    HW299700   5.461   1.383   1.173
65935SOL     OW99701   8.783   8.376  10.212
65935SOL    HW199702   8.861   8.331  10.180
65935SOL    HW299703   8.817   8.459  10.247
65936SOL     OW99704   4.586   8.556  14.181
65936SOL    HW199705   4.582   8.462  14.197
65936SOL    HW299706   4.550   8.595  14.261
65937SOL     OW99707   7.639   1.741   3.205
65937SOL    HW199708   7.621   1.776   3.118
65937SOL    HW299709   7.609   1.650   3.201
65938SOL     OW99710   4.072  14.008   0.654
65938SOL    HW199711   4.021  13.986   0.575
65938SOL    HW299712   4.037  14.093   0.681
65939SOL     OW99713   7.961   3.525  10.522
65939SOL    HW199714   8.022   3.482  10.461
65939SOL    HW299715   8.004   3.607  10.545
65940SOL     OW99716   1.144   9.563   4.380
65940SOL    HW199717   1.114   9.518   4.301
65940SOL    HW299718   1.238   9.544   4.384
65941SOL     OW99719   1.621   8.994   1.770
65941SOL    HW199720   1.573   8.923   1.812
65941SOL    HW299721   1.554   9.055   1.741
65942SOL     OW99722  13.498   4.189   7.307
65942SOL    HW199723  13.438   4.119   7.279
65942SOL    HW299724  13.495   4.185   7.403
65943SOL     OW99725   3.605   2.171   6.401
65943SOL    HW199726   3.552   2.092   6.391
65943SOL    HW299727   3.612   2.206   6.312
65944SOL     OW99728   7.876   3.385   6.328
65944SOL    HW199729   7.875   3.470   6.373
65944SOL    HW299730   7.787   3.352   6.337
65945SOL     OW99731   5.535   5.139   6.785
65945SOL    HW199732   5.505   5.048   6.787
65945SOL    HW299733   5.455   5.190   6.776
65946SOL     OW99734   9.188  13.633   1.495
65946SOL    HW199735   9.217  13.633   1.586
65946SOL    HW299736   9.244  13.570   1.451
65947SOL     OW99737   7.057  10.473   5.276
65947SOL    HW199738   7.077  10.380   5.281
65947SOL    HW299739   7.092  10.510   5.357
65948SOL     OW99740   1.086   3.728  13.665
65948SOL    HW199741   1.074   3.760  13.754
65948SOL    HW299742   1.001   3.741  13.623
65949SOL     OW99743  10.672  11.018   8.273
65949SOL    HW199744  10.599  10.966   8.238
65949SOL    HW299745  10.738  10.953   8.296
65950SOL     OW99746  11.118  10.123  10.978
65950SOL    HW199747  11.207  10.099  10.954
65950SOL    HW299748  11.099  10.202  10.927
65951SOL     OW99749   3.929   3.011   0.523
65951SOL    HW199750   3.950   3.097   0.488
65951SOL    HW299751   3.981   3.004   0.603
65952SOL     OW99752   6.698   1.752  10.410
65952SOL    HW199753   6.679   1.754  10.316
65952SOL    HW299754   6.651   1.674  10.442
65953SOL     OW99755  11.101   7.941   3.567
65953SOL    HW199756  11.114   8.001   3.493
65953SOL    HW299757  11.056   7.994   3.632
65954SOL     OW99758  13.112   5.188   2.946
65954SOL    HW199759  13.158   5.242   3.010
65954SOL    HW299760  13.182   5.136   2.905
65955SOL     OW99761  11.082   6.676   9.798
65955SOL    HW199762  11.068   6.742   9.730
65955SOL    HW299763  11.075   6.725   9.880
65956SOL     OW99764   6.738  11.231   6.150
65956SOL    HW199765   6.722  11.325   6.149
65956SOL    HW299766   6.753  11.209   6.058
65957SOL     OW99767   2.722   0.995  12.056
65957SOL    HW199768   2.635   1.036  12.062
65957SOL    HW299769   2.722   0.930  12.127
65958SOL     OW99770  13.640   7.691   7.508
65958SOL    HW199771  13.628   7.665   7.599
65958SOL    HW299772  13.707   7.758   7.510
65959SOL     OW99773   1.939   9.378   7.769
65959SOL    HW199774   1.965   9.333   7.688
65959SOL    HW299775   1.942   9.310   7.836
65960SOL     OW99776  14.516  12.880   8.477
65960SOL    HW199777  14.597  12.841   8.508
65960SOL    HW299778  14.497  12.834   8.395
65961SOL     OW99779   9.509  10.499   4.031
65961SOL    HW199780   9.448  10.433   3.998
65961SOL    HW299781   9.452  10.571   4.059
65962SOL     OW99782   7.589  14.369  13.224
65962SOL    HW199783   7.682  14.361  13.243
65962SOL    HW299784   7.581  14.449  13.173
65963SOL     OW99785   9.382  11.401   1.386
65963SOL    HW199786   9.373  11.494   1.368
65963SOL    HW299787   9.301  11.376   1.430
65964SOL     OW99788  14.851   0.845   7.417
65964SOL    HW199789  14.781   0.794   7.458
65964SOL    HW299790   0.048   0.828   7.471
65965SOL     OW99791  14.356   9.798   7.892
65965SOL    HW199792  14.369   9.719   7.945
65965SOL    HW299793  14.307   9.767   7.815
65966SOL     OW99794   8.522   3.156   0.092
65966SOL    HW199795   8.586   3.202   0.037
65966SOL    HW299796   8.528   3.200   0.177
65967SOL     OW99797   9.441  13.139   4.461
65967SOL    HW199798   9.441  13.158   4.555
65967SOL    HW299799   9.349  13.123   4.440
65968SOL     OW99800   8.241  10.991   3.728
65968SOL    HW199801   8.148  10.985   3.705
65968SOL    HW299802   8.253  10.925   3.796
65969SOL     OW99803   0.993   1.772   5.261
65969SOL    HW199804   1.069   1.716   5.271
65969SOL    HW299805   0.918   1.715   5.279
65970SOL     OW99806  12.196   9.201   2.163
65970SOL    HW199807  12.211   9.236   2.250
65970SOL    HW299808  12.115   9.150   2.171
65971SOL     OW99809   1.252   5.068  13.751
65971SOL    HW199810   1.312   5.103  13.817
65971SOL    HW299811   1.164   5.087  13.785
65972SOL     OW99812  12.385  12.849   6.132
65972SOL    HW199813  12.474  12.853   6.168
65972SOL    HW299814  12.340  12.785   6.187
65973SOL     OW99815  14.701   8.670   5.778
65973SOL    HW199816  14.735   8.692   5.691
65973SOL    HW299817  14.637   8.601   5.762
65974SOL     OW99818   1.728   3.879   0.975
65974SOL    HW199819   1.719   3.956   0.919
65974SOL    HW299820   1.642   3.870   1.017
65975SOL     OW99821   5.553   5.919   3.929
65975SOL    HW199822   5.522   6.002   3.966
65975SOL    HW299823   5.631   5.943   3.879
65976SOL     OW99824  12.826   6.628  10.955
65976SOL    HW199825  12.809   6.535  10.966
65976SOL    HW299826  12.894   6.632  10.887
65977SOL     OW99827   7.070   1.093  10.906
65977SOL    HW199828   7.122   1.174  10.909
65977SOL    HW299829   7.044   1.085  10.814
65978SOL     OW99830  14.206   7.522   6.284
65978SOL    HW199831  14.134   7.585   6.274
65978SOL    HW299832  14.214   7.509   6.378
65979SOL     OW99833   8.665   2.162   8.388
65979SOL    HW199834   8.741   2.166   8.329
65979SOL    HW299835   8.679   2.234   8.449
65980SOL     OW99836  11.635   9.218   7.642
65980SOL    HW199837  11.611   9.302   7.680
65980SOL    HW299838  11.565   9.159   7.669
65981SOL     OW99839   4.045   9.113  12.021
65981SOL    HW199840   4.078   9.202  12.020
65981SOL    HW299841   4.096   9.067  11.954
65982SOL     OW99842   6.312   5.046   3.624
65982SOL    HW199843   6.273   5.132   3.641
65982SOL    HW299844   6.395   5.048   3.671
65983SOL     OW99845  13.101  12.447  14.084
65983SOL    HW199846  13.175  12.421  14.139
65983SOL    HW299847  13.118  12.407  13.999
65984SOL     OW99848   2.808   7.759  11.981
65984SOL    HW199849   2.727   7.716  11.955
65984SOL    HW299850   2.821   7.732  12.072
65985SOL     OW99851   7.540   5.046  11.515
65985SOL    HW199852   7.460   4.993  11.517
65985SOL    HW299853   7.533   5.097  11.434
65986SOL     OW99854  14.833   3.005   5.271
65986SOL    HW199855   0.013   3.026   5.199
65986SOL    HW299856  14.750   3.044   5.245
65987SOL     OW99857   0.179  14.312  12.607
65987SOL    HW199858   0.252  14.252  12.594
65987SOL    HW299859   0.196  14.385  12.547
65988SOL     OW99860   6.885  10.570   9.456
65988SOL    HW199861   6.941  10.592   9.530
65988SOL    HW299862   6.941  10.520   9.397
65989SOL     OW99863   4.893   6.950   2.759
65989SOL    HW199864   4.958   6.957   2.829
65989SOL    HW299865   4.941   6.911   2.686
65990SOL     OW99866   4.337   6.803  10.696
65990SOL    HW199867   4.350   6.760  10.780
65990SOL    HW299868   4.266   6.866  10.711
65991SOL     OW99869   3.758   2.611   1.549
65991SOL    HW199870   3.678   2.615   1.603
65991SOL    HW299871   3.797   2.526   1.572
65992SOL     OW99872  10.643   3.726   3.398
65992SOL    HW199873  10.639   3.648   3.453
65992SOL    HW299874  10.719   3.774   3.431
65993SOL     OW99875   2.449   1.455   5.739
65993SOL    HW199876   2.444   1.361   5.719
65993SOL    HW299877   2.438   1.498   5.654
65994SOL     OW99878   8.192  13.032   8.886
65994SOL    HW199879   8.216  12.946   8.852
65994SOL    HW299880   8.272  13.066   8.925
65995SOL     OW99881  13.126   8.030   5.073
65995SOL    HW199882  13.074   7.952   5.052
65995SOL    HW299883  13.210   7.995   5.104
65996SOL     OW99884   7.913   9.197  12.342
65996SOL    HW199885   7.979   9.128  12.343
65996SOL    HW299886   7.885   9.202  12.250
65997SOL     OW99887   8.314   9.310   4.819
65997SOL    HW199888   8.321   9.243   4.886
65997SOL    HW299889   8.241   9.365   4.848
65998SOL     OW99890   4.108   8.373   2.129
65998SOL    HW199891   4.184   8.395   2.182
65998SOL    HW299892   4.145   8.334   2.050
65999SOL     OW99893  10.426   4.795  12.267
65999SOL    HW199894  10.490   4.851  12.312
65999SOL    HW299895  10.466   4.708  12.270
66000SOL     OW99896   0.816   1.561   6.990
66000SOL    HW199897   0.855   1.647   7.001
66000SOL    HW299898   0.779   1.540   7.075
66001SOL     OW99899   0.068  14.495   9.757
66001SOL    HW199900   0.024  14.573   9.725
66001SOL    HW299901   0.014  14.422   9.728
66002SOL     OW99902  11.127  12.291   4.177
66002SOL    HW199903  11.197  12.288   4.242
66002SOL    HW299904  11.167  12.257   4.097
66003SOL     OW99905   4.981   6.200   3.527
66003SOL    HW199906   5.054   6.198   3.589
66003SOL    HW299907   4.934   6.118   3.542
66004SOL     OW99908   7.246  11.972   2.566
66004SOL    HW199909   7.262  11.966   2.471
66004SOL    HW299910   7.333  11.985   2.604
66005SOL     OW99911  10.154   4.020   7.434
66005SOL    HW199912  10.172   4.012   7.340
66005SOL    HW299913  10.062   3.995   7.443
66006SOL     OW99914   2.890   8.168   4.443
66006SOL    HW199915   2.927   8.084   4.416
66006SOL    HW299916   2.946   8.234   4.401
66007SOL     OW99917   0.717  10.027   4.188
66007SOL    HW199918   0.789   9.968   4.210
66007SOL    HW299919   0.759  10.112   4.175
66008SOL     OW99920   8.580   9.049   8.578
66008SOL    HW199921   8.638   9.045   8.654
66008SOL    HW299922   8.557   8.957   8.561
66009SOL     OW99923  11.843   4.918  14.041
66009SOL    HW199924  11.905   4.926  14.114
66009SOL    HW299925  11.892   4.874  13.972
66010SOL     OW99926   4.203   7.240   2.445
66010SOL    HW199927   4.145   7.307   2.409
66010SOL    HW299928   4.257   7.213   2.372
66011SOL     OW99929   4.401  11.574  14.109
66011SOL    HW199930   4.310  11.547  14.098
66011SOL    HW299931   4.429  11.531  14.189
66012SOL     OW99932  10.137  14.383  14.764
66012SOL    HW199933  10.229  14.409  14.771
66012SOL    HW299934  10.141  14.292  14.736
66013SOL     OW99935   3.434  14.796   3.363
66013SOL    HW199936   3.512  14.751   3.394
66013SOL    HW299937   3.456   0.009   3.369
66014SOL     OW99938  12.297   8.517  13.308
66014SOL    HW199939  12.340   8.542  13.226
66014SOL    HW299940  12.338   8.435  13.333
66015SOL     OW99941   4.886   2.332   5.270
66015SOL    HW199942   4.955   2.398   5.266
66015SOL    HW299943   4.923   2.262   5.323
66016SOL     OW99944   2.984   9.264   0.987
66016SOL    HW199945   3.066   9.229   0.952
66016SOL    HW299946   3.002   9.279   1.080
66017SOL     OW99947   3.816  10.245  13.009
66017SOL    HW199948   3.859  10.307  13.068
66017SOL    HW299949   3.761  10.300  12.953
66018SOL     OW99950   9.464   3.463  11.341
66018SOL    HW199951   9.479   3.524  11.269
66018SOL    HW299952   9.539   3.403  11.338
66019SOL     OW99953  12.983   9.467   2.357
66019SOL    HW199954  12.914   9.495   2.298
66019SOL    HW299955  12.967   9.373   2.370
66020SOL     OW99956   5.191   5.842   2.767
66020SOL    HW199957   5.222   5.752   2.760
66020SOL    HW299958   5.112   5.835   2.821
66021SOL     OW99959   1.663  13.425   2.884
66021SOL    HW199960   1.568  13.437   2.877
66021SOL    HW299961   1.680  13.424   2.978
66022SOL     OW99962  13.336  13.300   4.629
66022SOL    HW199963  13.260  13.322   4.683
66022SOL    HW299964  13.306  13.313   4.539
66023SOL     OW99965   4.247   1.463   6.222
66023SOL    HW199966   4.256   1.385   6.168
66023SOL    HW299967   4.262   1.536   6.162
66024SOL     OW99968   3.757   3.316  10.313
66024SOL    HW199969   3.744   3.239  10.368
66024SOL    HW299970   3.752   3.390  10.373
66025SOL     OW99971   1.733   7.430  10.504
66025SOL    HW199972   1.783   7.469  10.432
66025SOL    HW299973   1.703   7.346  10.469
66026SOL     OW99974  11.825  10.030   8.131
66026SOL    HW199975  11.775   9.972   8.074
66026SOL    HW299976  11.910   9.987   8.140
66027SOL     OW99977   1.128   5.345   0.259
66027SOL    HW199978   1.144   5.420   0.200
66027SOL    HW299979   1.042   5.364   0.297
66028SOL     OW99980  13.346   8.028   5.555
66028SOL    HW199981  13.295   8.036   5.636
66028SOL    HW299982  13.431   7.995   5.584
66029SOL     OW99983   9.587  11.225   1.761
66029SOL    HW199984   9.531  11.148   1.770
66029SOL    HW299985   9.666  11.202   1.810
66030SOL     OW99986   3.130   2.023   0.291
66030SOL    HW199987   3.067   1.955   0.316
66030SOL    HW299988   3.152   2.003   0.200
66031SOL     OW99989   2.749   0.231  12.759
66031SOL    HW199990   2.813   0.188  12.815
66031SOL    HW299991   2.770   0.324  12.765
66032SOL     OW99992   0.284  10.139   3.902
66032SOL    HW199993   0.248  10.053   3.924
66032SOL    HW299994   0.367  10.143   3.949
66033SOL     OW99995  12.957  11.687   2.322
66033SOL    HW199996  12.881  11.656   2.272
66033SOL    HW299997  12.973  11.617   2.386
66034SOL     OW99998   2.713  12.785  14.634
66034SOL    HW199999   2.805  12.801  14.655
66034SOL    HW2    0   2.702  12.691  14.647
66035SOL     OW    1  10.870   2.418   2.974
66035SOL    HW1    2  10.847   2.339   3.022
66035SOL    HW2    3  10.867   2.488   3.039
66036SOL     OW    4   0.521   0.024  13.943
66036SOL    HW1    5   0.440   0.074  13.953
66036SOL    HW2    6   0.552   0.045  13.855
66037SOL     OW    7   6.878   5.047  10.118
66037SOL    HW1    8   6.843   4.967  10.158
66037SOL    HW2    9   6.951   5.073  10.175
66038SOL     OW   10   2.727   9.412   1.165
66038SOL    HW1   11   2.768   9.446   1.085
66038SOL    HW2   12   2.700   9.323   1.142
66039SOL     OW   13  12.446   0.833   5.998
66039SOL    HW1   14  12.442   0.844   5.903
66039SOL    HW2   15  12.473   0.742   6.010
66040SOL     OW   16   6.791   3.252   3.853
66040SOL    HW1   17   6.728   3.284   3.917
66040SOL    HW2   18   6.824   3.169   3.890
66041SOL     OW   19  13.775   9.070   8.533
66041SOL    HW1   20  13.797   9.006   8.466
66041SOL    HW2   21  13.808   9.033   8.615
66042SOL     OW   22  14.085  12.281   5.817
66042SOL    HW1   23  14.027  12.289   5.741
66042SOL    HW2   24  14.101  12.187   5.825
66043SOL     OW   25   7.634   6.131  14.684
66043SOL    HW1   26   7.607   6.039  14.680
66043SOL    HW2   27   7.631   6.153  14.778
66044SOL     OW   28   9.682  13.472   4.902
66044SOL    HW1   29   9.606  13.426   4.939
66044SOL    HW2   30   9.754  13.411   4.910
66045SOL     OW   31   0.875   0.722   6.666
66045SOL    HW1   32   0.893   0.644   6.720
66045SOL    HW2   33   0.856   0.791   6.730
66046SOL     OW   34  12.369   8.874   2.008
66046SOL    HW1   35  12.419   8.793   2.020
66046SOL    HW2   36  12.341   8.898   2.096
66047SOL     OW   37  12.839   0.003   4.930
66047SOL    HW1   38  12.799   0.053   5.001
66047SOL    HW2   39  12.876  14.806   4.972
66048SOL     OW   40  12.941   6.971   0.590
66048SOL    HW1   41  13.032   7.001   0.595
66048SOL    HW2   42  12.929   6.919   0.669
66049SOL     OW   43   5.162   9.264  10.593
66049SOL    HW1   44   5.185   9.196  10.656
66049SOL    HW2   45   5.130   9.216  10.517
66050SOL     OW   46   6.181   9.307  10.838
66050SOL    HW1   47   6.095   9.319  10.798
66050SOL    HW2   48   6.213   9.396  10.854
66051SOL     OW   49   7.956  12.933   8.841
66051SOL    HW1   50   8.032  12.989   8.855
66051SOL    HW2   51   7.954  12.874   8.916
66052SOL     OW   52   0.288   0.345   9.641
66052SOL    HW1   53   0.344   0.355   9.564
66052SOL    HW2   54   0.348   0.319   9.711
66053SOL     OW   55  11.006   6.843   0.347
66053SOL    HW1   56  11.042   6.895   0.418
66053SOL    HW2   57  11.073   6.845   0.279
66054SOL     OW   58   6.479  12.684  14.212
66054SOL    HW1   59   6.394  12.717  14.184
66054SOL    HW2   60   6.522  12.758  14.255
66055SOL     OW   61   4.188   1.751   9.232
66055SOL    HW1   62   4.275   1.760   9.194
66055SOL    HW2   63   4.199   1.776   9.324
66056SOL     OW   64  13.054   9.740   3.539
66056SOL    HW1   65  13.124   9.802   3.562
66056SOL    HW2   66  12.977   9.775   3.583
66057SOL     OW   67  13.113   4.155   6.936
66057SOL    HW1   68  13.039   4.183   6.990
66057SOL    HW2   69  13.185   4.212   6.963
66058SOL     OW   70  12.926  11.998  11.559
66058SOL    HW1   71  12.860  11.980  11.492
66058SOL    HW2   72  12.878  11.990  11.642
66059SOL     OW   73  12.881   3.774   6.610
66059SOL    HW1   74  12.898   3.766   6.516
66059SOL    HW2   75  12.904   3.865   6.630
66060SOL     OW   76  13.161   7.890   2.573
66060SOL    HW1   77  13.100   7.821   2.545
66060SOL    HW2   78  13.104   7.962   2.599
66061SOL     OW   79  10.880   5.246   9.951
66061SOL    HW1   80  10.902   5.226   9.860
66061SOL    HW2   81  10.828   5.327   9.946
66062SOL     OW   82  13.588  14.490   5.545
66062SOL    HW1   83  13.502  14.459   5.575
66062SOL    HW2   84  13.567  14.550   5.473
66063SOL     OW   85   1.753   1.964   2.621
66063SOL    HW1   86   1.788   1.882   2.586
66063SOL    HW2   87   1.675   1.937   2.670
66064SOL     OW   88   6.943  12.742   6.862
66064SOL    HW1   89   6.989  12.659   6.866
66064SOL    HW2   90   6.929  12.766   6.954
66065SOL     OW   91  12.936   3.629   0.009
66065SOL    HW1   92  12.878   3.669  14.824
66065SOL    HW2   93  13.020   3.620  14.845
66066SOL     OW   94  11.928   6.732   1.671
66066SOL    HW1   95  11.971   6.723   1.586
66066SOL    HW2   96  11.982   6.680   1.731
66067SOL     OW   97  13.786  12.407  10.651
66067SOL    HW1   98  13.832  12.392  10.568
66067SOL    HW2   99  13.850  12.453  10.705
66068SOL     OW  100  12.101  12.331   4.069
66068SOL    HW1  101  12.187  12.352   4.105
66068SOL    HW2  102  12.099  12.235   4.068
66069SOL     OW  103   9.688   1.944  12.994
66069SOL    HW1  104   9.697   2.031  13.034
66069SOL    HW2  105   9.649   1.962  12.908
66070SOL     OW  106   7.261   0.723   8.609
66070SOL    HW1  107   7.167   0.710   8.621
66070SOL    HW2  108   7.302   0.671   8.678
66071SOL     OW  109   1.437   9.455   9.205
66071SOL    HW1  110   1.510   9.477   9.264
66071SOL    HW2  111   1.475   9.457   9.118
66072SOL     OW  112   9.940   3.232  11.631
66072SOL    HW1  113   9.847   3.223  11.651
66072SOL    HW2  114   9.981   3.157  11.673
66073SOL     OW  115   3.711   2.295   6.181
66073SOL    HW1  116   3.694   2.378   6.137
66073SOL    HW2  117   3.806   2.284   6.178
66074SOL     OW  118   0.105  14.726  10.263
66074SOL    HW1  119   0.100  14.808  10.312
66074SOL    HW2  120   0.028  14.677  10.293
66075SOL     OW  121   0.153   7.671  11.446
66075SOL    HW1  122   0.075   7.655  11.499
66075SOL    HW2  123   0.138   7.621  11.365
66076SOL     OW  124   6.757   2.332   6.591
66076SOL    HW1  125   6.674   2.297   6.624
66076SOL    HW2  126   6.775   2.281   6.512
66077SOL     OW  127   7.405   6.437  10.149
66077SOL    HW1  128   7.440   6.362  10.197
66077SOL    HW2  129   7.482   6.490  10.128
66078SOL     OW  130   4.489   0.310  10.655
66078SOL    HW1  131   4.412   0.298  10.600
66078SOL    HW2  132   4.538   0.228  10.646
66079SOL     OW  133   3.073   4.279   2.473
66079SOL    HW1  134   3.016   4.334   2.526
66079SOL    HW2  135   3.036   4.191   2.482
66080SOL     OW  136  10.033  11.944   5.670
66080SOL    HW1  137  10.079  12.024   5.693
66080SOL    HW2  138   9.947  11.953   5.711
66081SOL     OW  139  14.760   5.240   3.752
66081SOL    HW1  140  14.736   5.238   3.845
66081SOL    HW2  141  14.850   5.208   3.750
66082SOL     OW  142   3.343   4.389  10.443
66082SOL    HW1  143   3.350   4.461  10.380
66082SOL    HW2  144   3.326   4.312  10.388
66083SOL     OW  145  10.930   4.106  13.697
66083SOL    HW1  146  11.014   4.104  13.652
66083SOL    HW2  147  10.899   4.015  13.693
66084SOL     OW  148   1.613   3.260   6.136
66084SOL    HW1  149   1.630   3.260   6.231
66084SOL    HW2  150   1.697   3.285   6.097
66085SOL     OW  151   3.901  13.227  14.321
66085SOL    HW1  152   3.975  13.181  14.361
66085SOL    HW2  153   3.868  13.165  14.256
66086SOL     OW  154  11.487   7.768  14.640
66086SOL    HW1  155  11.437   7.845  14.666
66086SOL    HW2  156  11.452   7.696  14.693
66087SOL     OW  157   4.719  10.555   4.218
66087SOL    HW1  158   4.801  10.511   4.239
66087SOL    HW2  159   4.652  10.486   4.223
66088SOL     OW  160   5.731   3.921   8.834
66088SOL    HW1  161   5.728   3.837   8.789
66088SOL    HW2  162   5.669   3.912   8.907
66089SOL     OW  163  13.723  11.469  10.074
66089SOL    HW1  164  13.712  11.564  10.071
66089SOL    HW2  165  13.721  11.448  10.167
66090SOL     OW  166  12.866   6.867   8.093
66090SOL    HW1  167  12.856   6.800   8.026
66090SOL    HW2  168  12.812   6.835   8.166
66091SOL     OW  169   6.442  10.375  14.299
66091SOL    HW1  170   6.515  10.415  14.346
66091SOL    HW2  171   6.365  10.392  14.355
66092SOL     OW  172   4.969  12.604  10.690
66092SOL    HW1  173   4.980  12.660  10.767
66092SOL    HW2  174   4.874  12.598  10.679
66093SOL     OW  175   5.054   1.322   9.003
66093SOL    HW1  176   5.092   1.408   8.982
66093SOL    HW2  177   5.122   1.276   9.051
66094SOL     OW  178   0.546   2.625  13.143
66094SOL    HW1  179   0.610   2.691  13.117
66094SOL    HW2  180   0.572   2.601  13.232
66095SOL     OW  181  12.657   2.382  11.348
66095SOL    HW1  182  12.749   2.390  11.375
66095SOL    HW2  183  12.657   2.315  11.280
66096SOL     OW  184   3.069   1.521   7.163
66096SOL    HW1  185   3.152   1.475   7.174
66096SOL    HW2  186   3.085   1.582   7.091
66097SOL     OW  187  10.668   9.878   8.598
66097SOL    HW1  188  10.690   9.786   8.581
66097SOL    HW2  189  10.629   9.877   8.685
66098SOL     OW  190  10.459  13.802  11.437
66098SOL    HW1  191  10.548  13.803  11.403
66098SOL    HW2  192  10.463  13.745  11.513
66099SOL     OW  193   8.608   9.956   9.191
66099SOL    HW1  194   8.641   9.961   9.102
66099SOL    HW2  195   8.576  10.044   9.211
66100SOL     OW  196   7.326  12.984   2.514
66100SOL    HW1  197   7.346  12.998   2.421
66100SOL    HW2  198   7.250  12.925   2.513
66101SOL     OW  199   9.326   7.341   3.219
66101SOL    HW1  200   9.284   7.262   3.185
66101SOL    HW2  201   9.355   7.317   3.307
66102SOL     OW  202   0.660   2.652   1.000
66102SOL    HW1  203   0.630   2.634   0.911
66102SOL    HW2  204   0.651   2.568   1.046
66103SOL     OW  205   6.523   9.466   5.903
66103SOL    HW1  206   6.521   9.439   5.811
66103SOL    HW2  207   6.586   9.538   5.905
66104SOL     OW  208   5.871  11.367  14.344
66104SOL    HW1  209   5.889  11.422  14.420
66104SOL    HW2  210   5.925  11.289  14.357
66105SOL     OW  211   4.482   7.103   6.495
66105SOL    HW1  212   4.422   7.119   6.567
66105SOL    HW2  213   4.561   7.152   6.518
66106SOL     OW  214   8.925   4.368   0.061
66106SOL    HW1  215   8.848   4.320   0.029
66106SOL    HW2  216   8.890   4.428   0.126
66107SOL     OW  217   1.450   5.858   2.244
66107SOL    HW1  218   1.385   5.905   2.192
66107SOL    HW2  219   1.398   5.808   2.307
66108SOL     OW  220   4.209   5.080  14.030
66108SOL    HW1  221   4.118   5.053  14.018
66108SOL    HW2  222   4.210   5.174  14.011
66109SOL     OW  223  11.808  14.806   9.342
66109SOL    HW1  224  11.794  14.834   9.252
66109SOL    HW2  225  11.879  14.861   9.373
66110SOL     OW  226   2.708   7.317   2.649
66110SOL    HW1  227   2.755   7.316   2.566
66110SOL    HW2  228   2.748   7.389   2.698
66111SOL     OW  229   3.211  12.547  11.631
66111SOL    HW1  230   3.159  12.595  11.567
66111SOL    HW2  231   3.282  12.606  11.654
66112SOL     OW  232  13.547  10.242   6.735
66112SOL    HW1  233  13.565  10.306   6.803
66112SOL    HW2  234  13.486  10.286   6.675
66113SOL     OW  235   9.039  10.458  12.668
66113SOL    HW1  236   9.096  10.414  12.730
66113SOL    HW2  237   9.057  10.551  12.681
66114SOL     OW  238   0.834   8.729  12.191
66114SOL    HW1  239   0.893   8.721  12.267
66114SOL    HW2  240   0.748   8.741  12.230
66115SOL     OW  241   4.594   6.682   4.616
66115SOL    HW1  242   4.568   6.601   4.572
66115SOL    HW2  243   4.566   6.671   4.707
66116SOL     OW  244   7.521  11.846  14.012
66116SOL    HW1  245   7.540  11.752  14.018
66116SOL    HW2  246   7.462  11.854  13.937
66117SOL     OW  247  11.530   7.105   3.504
66117SOL    HW1  248  11.485   7.048   3.441
66117SOL    HW2  249  11.460   7.132   3.564
66118SOL     OW  250   5.308   7.276   7.869
66118SOL    HW1  251   5.401   7.264   7.888
66118SOL    HW2  252   5.273   7.187   7.863
66119SOL     OW  253   6.610  13.189   4.513
66119SOL    HW1  254   6.572  13.190   4.425
66119SOL    HW2  255   6.545  13.143   4.566
66120SOL     OW  256   5.491   5.828   0.842
66120SOL    HW1  257   5.435   5.764   0.798
66120SOL    HW2  258   5.580   5.803   0.816
66121SOL     OW  259  11.887   2.768   5.729
66121SOL    HW1  260  11.954   2.756   5.796
66121SOL    HW2  261  11.826   2.832   5.766
66122SOL     OW  262   5.413   8.681   1.426
66122SOL    HW1  263   5.359   8.602   1.436
66122SOL    HW2  264   5.502   8.648   1.417
66123SOL     OW  265  13.188   8.311   2.218
66123SOL    HW1  266  13.170   8.310   2.312
66123SOL    HW2  267  13.212   8.221   2.197
66124SOL     OW  268  10.219   4.178  10.411
66124SOL    HW1  269  10.137   4.158  10.366
66124SOL    HW2  270  10.287   4.148  10.350
66125SOL     OW  271   8.664  10.457  12.075
66125SOL    HW1  272   8.737  10.507  12.038
66125SOL    HW2  273   8.689  10.443  12.167
66126SOL     OW  274   9.883   3.490  11.569
66126SOL    HW1  275   9.879   3.397  11.590
66126SOL    HW2  276   9.889   3.493  11.473
66127SOL     OW  277  12.524   0.837   2.531
66127SOL    HW1  278  12.472   0.877   2.601
66127SOL    HW2  279  12.582   0.907   2.501
66128SOL     OW  280  11.222  12.779   1.957
66128SOL    HW1  281  11.291  12.757   1.894
66128SOL    HW2  282  11.141  12.772   1.906
66129SOL     OW  283   2.745   2.472   2.766
66129SOL    HW1  284   2.806   2.399   2.773
66129SOL    HW2  285   2.800   2.550   2.779
66130SOL     OW  286   7.044   5.074  10.905
66130SOL    HW1  287   7.029   4.981  10.890
66130SOL    HW2  288   6.983   5.098  10.975
66131SOL     OW  289   1.136  11.676  11.678
66131SOL    HW1  290   1.133  11.599  11.622
66131SOL    HW2  291   1.115  11.749  11.619
66132SOL     OW  292   8.534   1.449  13.884
66132SOL    HW1  293   8.574   1.493  13.960
66132SOL    HW2  294   8.529   1.357  13.910
66133SOL     OW  295   0.032  11.255   2.125
66133SOL    HW1  296   0.051  11.243   2.031
66133SOL    HW2  297   0.112  11.227   2.169
66134SOL     OW  298   4.220   3.122  10.243
66134SOL    HW1  299   4.172   3.155  10.319
66134SOL    HW2  300   4.162   3.138  10.169
66135SOL     OW  301  11.592   5.090   0.629
66135SOL    HW1  302  11.539   5.012   0.611
66135SOL    HW2  303  11.634   5.110   0.545
66136SOL     OW  304   0.824  10.839  12.005
66136SOL    HW1  305   0.787  10.914  11.958
66136SOL    HW2  306   0.781  10.763  11.967
66137SOL     OW  307   1.229   9.584  11.136
66137SOL    HW1  308   1.222   9.666  11.088
66137SOL    HW2  309   1.184   9.520  11.081
66138SOL     OW  310   0.896  12.683  13.216
66138SOL    HW1  311   0.918  12.598  13.255
66138SOL    HW2  312   0.973  12.706  13.164
66139SOL     OW  313   3.710   4.424   7.016
66139SOL    HW1  314   3.618   4.450   7.005
66139SOL    HW2  315   3.756   4.469   6.945
66140SOL     OW  316   7.504  11.644   0.364
66140SOL    HW1  317   7.537  11.654   0.274
66140SOL    HW2  318   7.525  11.554   0.388
66141SOL     OW  319   7.240   7.648   5.912
66141SOL    HW1  320   7.285   7.699   5.979
66141SOL    HW2  321   7.182   7.591   5.960
66142SOL     OW  322   1.202   8.605  12.699
66142SOL    HW1  323   1.270   8.673  12.692
66142SOL    HW2  324   1.249   8.523  12.685
66143SOL     OW  325   2.617   7.269   6.880
66143SOL    HW1  326   2.649   7.180   6.864
66143SOL    HW2  327   2.696   7.318   6.905
66144SOL     OW  328   8.403  14.752   2.632
66144SOL    HW1  329   8.330  14.741   2.571
66144SOL    HW2  330   8.362  14.787   2.712
66145SOL     OW  331   4.946  11.307   4.121
66145SOL    HW1  332   5.001  11.272   4.051
66145SOL    HW2  333   4.937  11.400   4.100
66146SOL     OW  334   1.249   8.604  11.370
66146SOL    HW1  335   1.204   8.689  11.367
66146SOL    HW2  336   1.342   8.627  11.377
66147SOL     OW  337   2.865  10.162   5.286
66147SOL    HW1  338   2.846  10.227   5.218
66147SOL    HW2  339   2.790  10.167   5.346
66148SOL     OW  340   2.537  13.975  12.561
66148SOL    HW1  341   2.585  14.012  12.636
66148SOL    HW2  342   2.451  13.954  12.597
66149SOL     OW  343   2.722   4.083   1.776
66149SOL    HW1  344   2.762   4.129   1.702
66149SOL    HW2  345   2.636   4.125   1.786
66150SOL     OW  346  11.628   3.432   1.552
66150SOL    HW1  347  11.618   3.378   1.630
66150SOL    HW2  348  11.583   3.514   1.574
66151SOL     OW  349   8.281   8.320   2.718
66151SOL    HW1  350   8.273   8.269   2.637
66151SOL    HW2  351   8.293   8.410   2.688
66152SOL     OW  352   0.229   9.932  13.100
66152SOL    HW1  353   0.244   9.973  13.185
66152SOL    HW2  354   0.175   9.995  13.052
66153SOL     OW  355   4.832  14.862   5.224
66153SOL    HW1  356   4.881  14.823   5.152
66153SOL    HW2  357   4.897  14.872   5.294
66154SOL     OW  358   2.487   2.211  11.048
66154SOL    HW1  359   2.484   2.268  11.126
66154SOL    HW2  360   2.410   2.236  10.998
66155SOL     OW  361   4.568   3.734   2.902
66155SOL    HW1  362   4.630   3.767   2.837
66155SOL    HW2  363   4.494   3.701   2.850
66156SOL     OW  364   3.157   3.903   1.892
66156SOL    HW1  365   3.210   3.837   1.848
66156SOL    HW2  366   3.150   3.974   1.830
66157SOL     OW  367   1.723  12.209   5.689
66157SOL    HW1  368   1.699  12.149   5.619
66157SOL    HW2  369   1.818  12.217   5.681
66158SOL     OW  370   6.887   7.251  13.778
66158SOL    HW1  371   6.796   7.280  13.782
66158SOL    HW2  372   6.916   7.250  13.869
66159SOL     OW  373   5.755   4.641   3.318
66159SOL    HW1  374   5.708   4.567   3.355
66159SOL    HW2  375   5.773   4.698   3.392
66160SOL     OW  376   2.817   4.850   5.469
66160SOL    HW1  377   2.825   4.855   5.373
66160SOL    HW2  378   2.827   4.757   5.489
66161SOL     OW  379   5.778   3.757  11.736
66161SOL    HW1  380   5.790   3.826  11.800
66161SOL    HW2  381   5.739   3.685  11.785
66162SOL     OW  382   7.640  13.170   4.120
66162SOL    HW1  383   7.736  13.169   4.115
66162SOL    HW2  384   7.614  13.253   4.082
66163SOL     OW  385   6.390   8.625   6.627
66163SOL    HW1  386   6.385   8.534   6.597
66163SOL    HW2  387   6.335   8.628   6.706
66164SOL     OW  388   1.896  13.391   2.485
66164SOL    HW1  389   1.904  13.421   2.394
66164SOL    HW2  390   1.985  13.397   2.520
66165SOL     OW  391  12.545   6.538   2.755
66165SOL    HW1  392  12.456   6.544   2.790
66165SOL    HW2  393  12.538   6.474   2.684
66166SOL     OW  394   5.574   9.477  14.543
66166SOL    HW1  395   5.505   9.412  14.529
66166SOL    HW2  396   5.637   9.459  14.473
66167SOL     OW  397  14.867   5.251   8.995
66167SOL    HW1  398   0.035   5.210   9.067
66167SOL    HW2  399   0.054   5.295   8.943
66168SOL     OW  400  10.366   0.780   9.130
66168SOL    HW1  401  10.412   0.777   9.046
66168SOL    HW2  402  10.431   0.813   9.192
66169SOL     OW  403   4.951   2.508   6.830
66169SOL    HW1  404   4.984   2.456   6.757
66169SOL    HW2  405   5.002   2.479   6.905
66170SOL     OW  406   5.335   3.600   6.612
66170SOL    HW1  407   5.339   3.659   6.537
66170SOL    HW2  408   5.255   3.625   6.658
66171SOL     OW  409   4.332   1.013   3.122
66171SOL    HW1  410   4.336   1.102   3.089
66171SOL    HW2  411   4.383   0.961   3.060
66172SOL     OW  412  12.543   7.372  14.196
66172SOL    HW1  413  12.465   7.403  14.242
66172SOL    HW2  414  12.540   7.276  14.206
66173SOL     OW  415   5.705   6.116  11.502
66173SOL    HW1  416   5.734   6.118  11.593
66173SOL    HW2  417   5.621   6.070  11.504
66174SOL     OW  418  11.097  14.441   7.059
66174SOL    HW1  419  11.088  14.347   7.041
66174SOL    HW2  420  11.114  14.446   7.153
66175SOL     OW  421   5.284  13.781  13.356
66175SOL    HW1  422   5.335  13.784  13.438
66175SOL    HW2  423   5.232  13.702  13.363
66176SOL     OW  424   7.014   7.270   8.779
66176SOL    HW1  425   7.049   7.354   8.750
66176SOL    HW2  426   6.919   7.281   8.778
66177SOL     OW  427  13.513  14.448   2.070
66177SOL    HW1  428  13.526  14.365   2.025
66177SOL    HW2  429  13.602  14.478   2.092
66178SOL     OW  430   9.919   9.681   6.630
66178SOL    HW1  431   9.860   9.750   6.601
66178SOL    HW2  432   9.899   9.669   6.723
66179SOL     OW  433  14.395   8.572  10.425
66179SOL    HW1  434  14.343   8.641  10.384
66179SOL    HW2  435  14.336   8.497  10.432
66180SOL     OW  436   6.907   8.066  12.041
66180SOL    HW1  437   6.827   8.118  12.048
66180SOL    HW2  438   6.879   7.983  12.003
66181SOL     OW  439   8.493   3.758   5.990
66181SOL    HW1  440   8.475   3.694   5.921
66181SOL    HW2  441   8.412   3.807   6.000
66182SOL     OW  442   8.068   0.099  11.877
66182SOL    HW1  443   8.147   0.118  11.826
66182SOL    HW2  444   8.086   0.015  11.919
66183SOL     OW  445   7.640   5.361   2.966
66183SOL    HW1  446   7.732   5.348   2.988
66183SOL    HW2  447   7.592   5.340   3.046
66184SOL     OW  448   4.875   5.727   3.505
66184SOL    HW1  449   4.916   5.656   3.554
66184SOL    HW2  450   4.944   5.758   3.446
66185SOL     OW  451  14.480   6.170   6.256
66185SOL    HW1  452  14.423   6.104   6.295
66185SOL    HW2  453  14.529   6.122   6.189
66186SOL     OW  454   3.088   5.138   8.068
66186SOL    HW1  455   3.061   5.067   8.125
66186SOL    HW2  456   3.007   5.187   8.051
66187SOL     OW  457  13.495   9.146   5.392
66187SOL    HW1  458  13.497   9.238   5.418
66187SOL    HW2  459  13.493   9.147   5.297
66188SOL     OW  460  13.361  14.010  11.261
66188SOL    HW1  461  13.421  14.068  11.306
66188SOL    HW2  462  13.346  14.052  11.176
66189SOL     OW  463  10.184   7.687   8.786
66189SOL    HW1  464  10.144   7.617   8.837
66189SOL    HW2  465  10.249   7.725   8.845
66190SOL     OW  466   3.525  10.826  12.372
66190SOL    HW1  467   3.489  10.891  12.432
66190SOL    HW2  468   3.501  10.742  12.411
66191SOL     OW  469   2.320   3.539   1.810
66191SOL    HW1  470   2.411   3.569   1.807
66191SOL    HW2  471   2.325   3.448   1.839
66192SOL     OW  472   3.811   3.158  10.923
66192SOL    HW1  473   3.738   3.123  10.873
66192SOL    HW2  474   3.773   3.230  10.974
66193SOL     OW  475   3.442   5.244   4.325
66193SOL    HW1  476   3.509   5.179   4.305
66193SOL    HW2  477   3.445   5.305   4.251
66194SOL     OW  478  14.859   5.156  12.308
66194SOL    HW1  479   0.063   5.120  12.333
66194SOL    HW2  480  14.807   5.156  12.389
66195SOL     OW  481  12.236   5.491   4.066
66195SOL    HW1  482  12.217   5.517   4.156
66195SOL    HW2  483  12.324   5.525   4.049
66196SOL     OW  484  12.709   9.468   0.460
66196SOL    HW1  485  12.663   9.515   0.391
66196SOL    HW2  486  12.639   9.431   0.515
66197SOL     OW  487   8.908   4.387   1.660
66197SOL    HW1  488   8.819   4.351   1.666
66197SOL    HW2  489   8.934   4.370   1.570
66198SOL     OW  490  11.342  13.770  11.382
66198SOL    HW1  491  11.345  13.824  11.302
66198SOL    HW2  492  11.362  13.832  11.453
66199SOL     OW  493  12.045   7.619   9.702
66199SOL    HW1  494  11.976   7.553   9.710
66199SOL    HW2  495  12.097   7.590   9.627
66200SOL     OW  496   0.304  14.830  12.006
66200SOL    HW1  497   0.337  14.763  11.946
66200SOL    HW2  498   0.318   0.032  11.961
66201SOL     OW  499   7.786  10.357  10.397
66201SOL    HW1  500   7.864  10.338  10.344
66201SOL    HW2  501   7.719  10.298  10.363
66202SOL     OW  502   9.275   2.145   9.004
66202SOL    HW1  503   9.350   2.199   8.979
66202SOL    HW2  504   9.290   2.061   8.962
66203SOL     OW  505   2.646   9.425  13.221
66203SOL    HW1  506   2.655   9.415  13.127
66203SOL    HW2  507   2.556   9.399  13.240
66204SOL     OW  508   4.121  14.245   4.122
66204SOL    HW1  509   4.032  14.277   4.106
66204SOL    HW2  510   4.175  14.292   4.057
66205SOL     OW  511   9.867   5.260   1.292
66205SOL    HW1  512   9.883   5.353   1.306
66205SOL    HW2  513   9.931   5.216   1.348
66206SOL     OW  514  10.339   8.188   0.327
66206SOL    HW1  515  10.245   8.196   0.312
66206SOL    HW2  516  10.349   8.198   0.421
66207SOL     OW  517   6.457   4.014   8.200
66207SOL    HW1  518   6.483   4.036   8.289
66207SOL    HW2  519   6.451   3.918   8.199
66208SOL     OW  520   1.331   0.161   1.954
66208SOL    HW1  521   1.420   0.195   1.963
66208SOL    HW2  522   1.315   0.117   2.037
66209SOL     OW  523   3.779   9.548   5.329
66209SOL    HW1  524   3.689   9.542   5.362
66209SOL    HW2  525   3.833   9.555   5.408
66210SOL     OW  526  10.952  10.686   9.678
66210SOL    HW1  527  11.019  10.723   9.735
66210SOL    HW2  528  10.984  10.598   9.659
66211SOL     OW  529   7.936   8.715  13.919
66211SOL    HW1  530   7.994   8.660  13.865
66211SOL    HW2  531   7.962   8.805  13.899
66212SOL     OW  532   3.488  11.896   0.705
66212SOL    HW1  533   3.437  11.942   0.772
66212SOL    HW2  534   3.424  11.838   0.663
66213SOL     OW  535  10.130  10.025   7.575
66213SOL    HW1  536  10.071  10.085   7.621
66213SOL    HW2  537  10.084  10.004   7.494
66214SOL     OW  538   2.803  12.893  10.931
66214SOL    HW1  539   2.710  12.874  10.918
66214SOL    HW2  540   2.806  12.983  10.961
66215SOL     OW  541   6.845   6.980  13.701
66215SOL    HW1  542   6.779   6.984  13.770
66215SOL    HW2  543   6.881   7.068  13.697
66216SOL     OW  544   2.993  10.292   1.363
66216SOL    HW1  545   2.977  10.346   1.285
66216SOL    HW2  546   2.979  10.202   1.333
66217SOL     OW  547  12.337   6.878   5.206
66217SOL    HW1  548  12.344   6.883   5.302
66217SOL    HW2  549  12.279   6.803   5.190
66218SOL     OW  550   4.847  11.468   5.338
66218SOL    HW1  551   4.838  11.559   5.367
66218SOL    HW2  552   4.914  11.431   5.395
66219SOL     OW  553  10.413  10.700  10.433
66219SOL    HW1  554  10.429  10.794  10.424
66219SOL    HW2  555  10.431  10.682  10.525
66220SOL     OW  556   6.226   2.835  10.361
66220SOL    HW1  557   6.175   2.795  10.291
66220SOL    HW2  558   6.287   2.893  10.315
66221SOL     OW  559   6.680   6.049   7.664
66221SOL    HW1  560   6.733   6.064   7.586
66221SOL    HW2  561   6.739   6.006   7.726
66222SOL     OW  562   7.348  12.323   8.513
66222SOL    HW1  563   7.329  12.230   8.523
66222SOL    HW2  564   7.367  12.353   8.602
66223SOL     OW  565   4.581   5.136   7.326
66223SOL    HW1  566   4.580   5.222   7.368
66223SOL    HW2  567   4.674   5.115   7.315
66224SOL     OW  568   2.452  11.429   7.171
66224SOL    HW1  569   2.523  11.491   7.185
66224SOL    HW2  570   2.421  11.407   7.259
66225SOL     OW  571  10.265   8.459  13.590
66225SOL    HW1  572  10.255   8.364  13.597
66225SOL    HW2  573  10.297   8.473  13.501
66226SOL     OW  574   2.329   6.002   3.019
66226SOL    HW1  575   2.248   6.052   3.014
66226SOL    HW2  576   2.307   5.916   2.983
66227SOL     OW  577   5.436   8.638  13.048
66227SOL    HW1  578   5.381   8.716  13.054
66227SOL    HW2  579   5.390   8.581  12.987
66228SOL     OW  580   6.780   3.752   1.599
66228SOL    HW1  581   6.840   3.716   1.534
66228SOL    HW2  582   6.730   3.677   1.630
66229SOL     OW  583  12.806   7.144  12.523
66229SOL    HW1  584  12.791   7.064  12.472
66229SOL    HW2  585  12.888   7.126  12.570
66230SOL     OW  586   7.072   5.735   6.456
66230SOL    HW1  587   7.057   5.666   6.520
66230SOL    HW2  588   6.996   5.732   6.398
66231SOL     OW  589  10.416   7.403   0.162
66231SOL    HW1  590  10.487   7.456   0.196
66231SOL    HW2  591  10.368   7.462   0.103
66232SOL     OW  592   7.450   7.737   8.432
66232SOL    HW1  593   7.485   7.704   8.350
66232SOL    HW2  594   7.522   7.788   8.470
66233SOL     OW  595   5.382   4.431  12.091
66233SOL    HW1  596   5.399   4.473  12.007
66233SOL    HW2  597   5.418   4.492  12.156
66234SOL     OW  598   4.418   4.131  13.810
66234SOL    HW1  599   4.473   4.192  13.859
66234SOL    HW2  600   4.471   4.052  13.800
66235SOL     OW  601   4.426   8.719  12.323
66235SOL    HW1  602   4.410   8.726  12.417
66235SOL    HW2  603   4.347   8.677  12.288
66236SOL     OW  604  14.140  14.854   3.366
66236SOL    HW1  605  14.112  14.820   3.450
66236SOL    HW2  606  14.233  14.876   3.378
66237SOL     OW  607   8.179   3.768   7.642
66237SOL    HW1  608   8.175   3.746   7.735
66237SOL    HW2  609   8.110   3.714   7.602
66238SOL     OW  610   7.155  10.199   5.127
66238SOL    HW1  611   7.128  10.223   5.039
66238SOL    HW2  612   7.251  10.204   5.125
66239SOL     OW  613  13.467   7.959  10.801
66239SOL    HW1  614  13.402   7.888  10.794
66239SOL    HW2  615  13.436   8.026  10.740
66240SOL     OW  616  12.685   2.728   1.034
66240SOL    HW1  617  12.700   2.639   1.003
66240SOL    HW2  618  12.708   2.783   0.959
66241SOL     OW  619  10.892  10.707   2.421
66241SOL    HW1  620  10.809  10.735   2.459
66241SOL    HW2  621  10.953  10.778   2.441
66242SOL     OW  622   2.442   3.478  12.963
66242SOL    HW1  623   2.412   3.460  12.874
66242SOL    HW2  624   2.361   3.493  13.013
66243SOL     OW  625  13.149   3.596   0.961
66243SOL    HW1  626  13.075   3.560   1.010
66243SOL    HW2  627  13.126   3.581   0.869
66244SOL     OW  628  11.209   8.643   9.814
66244SOL    HW1  629  11.144   8.574   9.801
66244SOL    HW2  630  11.172   8.697   9.884
66245SOL     OW  631   1.159   3.010  10.256
66245SOL    HW1  632   1.104   2.966  10.321
66245SOL    HW2  633   1.243   2.964  10.261
66246SOL     OW  634   1.181  11.049   9.837
66246SOL    HW1  635   1.198  10.959   9.864
66246SOL    HW2  636   1.252  11.068   9.774
66247SOL     OW  637   1.736   7.703   0.281
66247SOL    HW1  638   1.714   7.622   0.327
66247SOL    HW2  639   1.716   7.685   0.189
66248SOL     OW  640   6.410  10.761   7.197
66248SOL    HW1  641   6.381  10.707   7.123
66248SOL    HW2  642   6.336  10.818   7.215
66249SOL     OW  643  10.743  13.704  13.436
66249SOL    HW1  644  10.664  13.673  13.393
66249SOL    HW2  645  10.754  13.794  13.404
66250SOL     OW  646   9.723   4.031   5.050
66250SOL    HW1  647   9.708   4.115   5.092
66250SOL    HW2  648   9.781   3.984   5.109
66251SOL     OW  649  14.871  13.374   4.220
66251SOL    HW1  650   0.037  13.359   4.138
66251SOL    HW2  651  14.794  13.317   4.215
66252SOL     OW  652   0.779   6.434   3.803
66252SOL    HW1  653   0.853   6.460   3.749
66252SOL    HW2  654   0.702   6.451   3.748
66253SOL     OW  655   4.407   2.415   7.667
66253SOL    HW1  656   4.333   2.426   7.727
66253SOL    HW2  657   4.366   2.388   7.584
66254SOL     OW  658   1.260   6.639   1.948
66254SOL    HW1  659   1.246   6.557   1.996
66254SOL    HW2  660   1.307   6.612   1.869
66255SOL     OW  661   3.316  11.987   8.604
66255SOL    HW1  662   3.315  11.941   8.520
66255SOL    HW2  663   3.320  11.917   8.669
66256SOL     OW  664   5.784   6.404  13.547
66256SOL    HW1  665   5.800   6.310  13.553
66256SOL    HW2  666   5.871   6.443  13.542
66257SOL     OW  667  10.976   7.757  13.969
66257SOL    HW1  668  10.946   7.752  14.060
66257SOL    HW2  669  10.905   7.803  13.923
66258SOL     OW  670  14.801   2.915  12.874
66258SOL    HW1  671  14.861   2.947  12.806
66258SOL    HW2  672  14.716   2.953  12.851
66259SOL     OW  673   7.214   8.605   7.501
66259SOL    HW1  674   7.243   8.598   7.592
66259SOL    HW2  675   7.125   8.571   7.502
66260SOL     OW  676  11.305  12.588   7.773
66260SOL    HW1  677  11.232  12.640   7.805
66260SOL    HW2  678  11.330  12.534   7.848
66261SOL     OW  679   8.074   9.679   7.890
66261SOL    HW1  680   8.129   9.699   7.814
66261SOL    HW2  681   8.119   9.606   7.933
66262SOL     OW  682   6.755   2.129   9.978
66262SOL    HW1  683   6.845   2.160   9.990
66262SOL    HW2  684   6.748   2.054  10.037
66263SOL     OW  685   6.768  14.760   1.509
66263SOL    HW1  686   6.745  14.853   1.517
66263SOL    HW2  687   6.784  14.731   1.598
66264SOL     OW  688  14.699  13.116   2.428
66264SOL    HW1  689  14.781  13.099   2.381
66264SOL    HW2  690  14.644  13.159   2.363
66265SOL     OW  691   8.117  14.119  13.975
66265SOL    HW1  692   8.071  14.198  14.002
66265SOL    HW2  693   8.123  14.066  14.055
66266SOL     OW  694   4.248   3.448  10.338
66266SOL    HW1  695   4.166   3.415  10.374
66266SOL    HW2  696   4.234   3.451  10.244
66267SOL     OW  697   5.826   7.780   8.590
66267SOL    HW1  698   5.866   7.866   8.597
66267SOL    HW2  699   5.812   7.752   8.680
66268SOL     OW  700  12.954   9.689   0.627
66268SOL    HW1  701  12.957   9.766   0.570
66268SOL    HW2  702  12.908   9.623   0.576
66269SOL     OW  703   8.914  11.793   1.574
66269SOL    HW1  704   8.907  11.779   1.479
66269SOL    HW2  705   8.978  11.864   1.583
66270SOL     OW  706   1.980   9.343   8.306
66270SOL    HW1  707   1.897   9.321   8.350
66270SOL    HW2  708   2.009   9.423   8.349
66271SOL     OW  709   4.917  11.481   1.701
66271SOL    HW1  710   4.893  11.458   1.791
66271SOL    HW2  711   4.833  11.484   1.654
66272SOL     OW  712   4.338  11.851   8.719
66272SOL    HW1  713   4.331  11.817   8.808
66272SOL    HW2  714   4.426  11.828   8.691
66273SOL     OW  715   6.318   3.314   0.626
66273SOL    HW1  716   6.333   3.246   0.560
66273SOL    HW2  717   6.245   3.365   0.592
66274SOL     OW  718  12.218  10.415   7.667
66274SOL    HW1  719  12.183  10.490   7.619
66274SOL    HW2  720  12.172  10.417   7.751
66275SOL     OW  721   2.579   0.594   9.308
66275SOL    HW1  722   2.543   0.615   9.222
66275SOL    HW2  723   2.588   0.678   9.352
66276SOL     OW  724   5.475  14.399  14.004
66276SOL    HW1  725   5.480  14.457  13.928
66276SOL    HW2  726   5.538  14.330  13.985
66277SOL     OW  727  10.816  11.873  12.581
66277SOL    HW1  728  10.858  11.953  12.614
66277SOL    HW2  729  10.728  11.874  12.620
66278SOL     OW  730   5.032  12.663  14.343
66278SOL    HW1  731   4.980  12.741  14.360
66278SOL    HW2  732   4.978  12.591  14.375
66279SOL     OW  733  11.364   9.863   0.704
66279SOL    HW1  734  11.270   9.882   0.709
66279SOL    HW2  735  11.382   9.812   0.783
66280SOL     OW  736   0.907   3.461   4.738
66280SOL    HW1  737   0.951   3.545   4.753
66280SOL    HW2  738   0.970   3.395   4.767
66281SOL     OW  739   8.401   8.463   7.652
66281SOL    HW1  740   8.385   8.532   7.717
66281SOL    HW2  741   8.343   8.485   7.579
66282SOL     OW  742   1.590   4.020  13.918
66282SOL    HW1  743   1.665   3.968  13.890
66282SOL    HW2  744   1.594   4.099  13.863
66283SOL     OW  745   0.697   1.307   2.360
66283SOL    HW1  746   0.672   1.399   2.353
66283SOL    HW2  747   0.625   1.259   2.318
66284SOL     OW  748  13.560   9.360   7.691
66284SOL    HW1  749  13.616   9.392   7.621
66284SOL    HW2  750  13.475   9.345   7.649
66285SOL     OW  751  10.216   9.541   0.277
66285SOL    HW1  752  10.207   9.473   0.211
66285SOL    HW2  753  10.292   9.593   0.249
66286SOL     OW  754   6.660   1.923   2.021
66286SOL    HW1  755   6.627   1.989   1.959
66286SOL    HW2  756   6.616   1.945   2.104
66287SOL     OW  757   3.600   4.521   5.828
66287SOL    HW1  758   3.663   4.485   5.891
66287SOL    HW2  759   3.650   4.531   5.747
66288SOL     OW  760  14.408   3.143   3.643
66288SOL    HW1  761  14.502   3.154   3.657
66288SOL    HW2  762  14.375   3.231   3.630
66289SOL     OW  763   9.753  11.908  13.313
66289SOL    HW1  764   9.691  11.971  13.349
66289SOL    HW2  765   9.801  11.876  13.389
66290SOL     OW  766   4.982  10.295   3.590
66290SOL    HW1  767   4.923  10.222   3.575
66290SOL    HW2  768   4.999  10.331   3.503
66291SOL     OW  769   2.003   0.017  11.678
66291SOL    HW1  770   1.984  14.804  11.690
66291SOL    HW2  771   1.996   0.032  11.584
66292SOL     OW  772   1.778   6.429   6.309
66292SOL    HW1  773   1.683   6.435   6.303
66292SOL    HW2  774   1.794   6.357   6.370
66293SOL     OW  775   9.271   6.483   5.554
66293SOL    HW1  776   9.271   6.388   5.543
66293SOL    HW2  777   9.241   6.496   5.644
66294SOL     OW  778   9.194  13.061  14.729
66294SOL    HW1  779   9.276  13.030  14.693
66294SOL    HW2  780   9.126  13.012  14.682
66295SOL     OW  781   4.271   4.955   4.942
66295SOL    HW1  782   4.318   4.871   4.938
66295SOL    HW2  783   4.182   4.935   4.913
66296SOL     OW  784   9.111  12.203   8.376
66296SOL    HW1  785   9.165  12.174   8.302
66296SOL    HW2  786   9.134  12.143   8.447
66297SOL     OW  787  11.731  13.282   2.981
66297SOL    HW1  788  11.742  13.353   2.917
66297SOL    HW2  789  11.815  13.277   3.026
66298SOL     OW  790   2.547   5.924   2.673
66298SOL    HW1  791   2.493   5.953   2.599
66298SOL    HW2  792   2.634   5.958   2.654
66299SOL     OW  793   5.894   0.753   7.983
66299SOL    HW1  794   5.864   0.698   7.911
66299SOL    HW2  795   5.871   0.843   7.956
66300SOL     OW  796   7.444   2.333   4.807
66300SOL    HW1  797   7.353   2.317   4.833
66300SOL    HW2  798   7.440   2.345   4.712
66301SOL     OW  799  10.251  14.853   0.804
66301SOL    HW1  800  10.222  14.808   0.725
66301SOL    HW2  801  10.196   0.051   0.807
66302SOL     OW  802   9.327   2.164   6.782
66302SOL    HW1  803   9.362   2.117   6.858
66302SOL    HW2  804   9.236   2.183   6.806
66303SOL     OW  805   8.426  12.474   7.018
66303SOL    HW1  806   8.349  12.418   7.033
66303SOL    HW2  807   8.447  12.462   6.926
66304SOL     OW  808  10.446  11.906   3.672
66304SOL    HW1  809  10.528  11.875   3.635
66304SOL    HW2  810  10.435  11.995   3.636
66305SOL     OW  811   0.132   9.152   6.112
66305SOL    HW1  812   0.165   9.119   6.196
66305SOL    HW2  813   0.039   9.129   6.112
66306SOL     OW  814   8.632  12.136  10.095
66306SOL    HW1  815   8.655  12.217  10.049
66306SOL    HW2  816   8.638  12.158  10.188
66307SOL     OW  817   7.865  10.750   4.733
66307SOL    HW1  818   7.805  10.824   4.746
66307SOL    HW2  819   7.944  10.776   4.781
66308SOL     OW  820   2.063   7.353   9.471
66308SOL    HW1  821   1.986   7.403   9.500
66308SOL    HW2  822   2.137   7.404   9.503
66309SOL     OW  823   4.240  14.611   5.636
66309SOL    HW1  824   4.248  14.616   5.541
66309SOL    HW2  825   4.195  14.692   5.661
66310SOL     OW  826   1.568   7.216   8.942
66310SOL    HW1  827   1.603   7.300   8.972
66310SOL    HW2  828   1.644   7.160   8.934
66311SOL     OW  829   7.032   7.091  10.460
66311SOL    HW1  830   7.066   7.048  10.539
66311SOL    HW2  831   6.939   7.068  10.459
66312SOL     OW  832   1.271   8.034  10.056
66312SOL    HW1  833   1.246   8.063   9.968
66312SOL    HW2  834   1.355   8.076  10.072
66313SOL     OW  835   3.051   3.486  12.220
66313SOL    HW1  836   3.121   3.434  12.260
66313SOL    HW2  837   2.972   3.433  12.231
66314SOL     OW  838  13.837   6.770   9.376
66314SOL    HW1  839  13.878   6.760   9.462
66314SOL    HW2  840  13.786   6.690   9.364
66315SOL     OW  841   6.465  11.397   4.336
66315SOL    HW1  842   6.435  11.332   4.400
66315SOL    HW2  843   6.525  11.453   4.385
66316SOL     OW  844   4.937   7.961   4.362
66316SOL    HW1  845   4.998   7.982   4.291
66316SOL    HW2  846   4.984   7.985   4.442
66317SOL     OW  847  11.191   2.978   0.298
66317SOL    HW1  848  11.281   2.998   0.271
66317SOL    HW2  849  11.136   3.025   0.235
66318SOL     OW  850  12.794   9.797   5.709
66318SOL    HW1  851  12.857   9.786   5.781
66318SOL    HW2  852  12.742   9.717   5.711
66319SOL     OW  853  13.806  13.784   4.174
66319SOL    HW1  854  13.881  13.796   4.233
66319SOL    HW2  855  13.838  13.815   4.089
66320SOL     OW  856  13.516  13.781   5.317
66320SOL    HW1  857  13.566  13.720   5.263
66320SOL    HW2  858  13.582  13.832   5.363
66321SOL     OW  859   9.554   6.780   0.149
66321SOL    HW1  860   9.532   6.737   0.067
66321SOL    HW2  861   9.618   6.847   0.125
66322SOL     OW  862  13.997   4.217  11.432
66322SOL    HW1  863  13.986   4.127  11.400
66322SOL    HW2  864  13.976   4.211  11.525
66323SOL     OW  865   2.004   6.733   5.226
66323SOL    HW1  866   2.021   6.800   5.161
66323SOL    HW2  867   2.058   6.758   5.301
66324SOL     OW  868  12.237  12.425   2.173
66324SOL    HW1  869  12.270  12.471   2.095
66324SOL    HW2  870  12.243  12.332   2.151
66325SOL     OW  871   4.730   4.288   0.003
66325SOL    HW1  872   4.709   4.209  14.833
66325SOL    HW2  873   4.647   4.314   0.043
66326SOL     OW  874   1.205   2.979   5.554
66326SOL    HW1  875   1.278   2.937   5.599
66326SOL    HW2  876   1.202   3.067   5.591
66327SOL     OW  877   9.511   9.422   3.436
66327SOL    HW1  878   9.581   9.405   3.499
66327SOL    HW2  879   9.431   9.399   3.482
66328SOL     OW  880  14.713   5.766  12.794
66328SOL    HW1  881  14.631   5.720  12.813
66328SOL    HW2  882  14.703   5.798  12.705
66329SOL     OW  883   4.056  14.406  14.235
66329SOL    HW1  884   4.149  14.427  14.236
66329SOL    HW2  885   4.014  14.485  14.202
66330SOL     OW  886   1.031   7.071   3.383
66330SOL    HW1  887   0.943   7.085   3.350
66330SOL    HW2  888   1.060   7.157   3.414
66331SOL     OW  889   9.194   4.710   0.770
66331SOL    HW1  890   9.115   4.763   0.775
66331SOL    HW2  891   9.252   4.747   0.836
66332SOL     OW  892  12.226   6.484   9.899
66332SOL    HW1  893  12.248   6.391   9.908
66332SOL    HW2  894  12.307   6.530   9.922
66333SOL     OW  895  12.018   2.613   5.141
66333SOL    HW1  896  11.997   2.615   5.047
66333SOL    HW2  897  12.109   2.643   5.145
66334SOL     OW  898   4.572   0.787   9.414
66334SOL    HW1  899   4.586   0.801   9.508
66334SOL    HW2  900   4.565   0.876   9.378
66335SOL     OW  901  14.420   9.234  12.861
66335SOL    HW1  902  14.431   9.240  12.956
66335SOL    HW2  903  14.404   9.141  12.844
66336SOL     OW  904  12.896   5.335  13.016
66336SOL    HW1  905  12.984   5.334  13.056
66336SOL    HW2  906  12.838   5.303  13.085
66337SOL     OW  907   1.201   4.472   0.088
66337SOL    HW1  908   1.144   4.438   0.157
66337SOL    HW2  909   1.248   4.396   0.056
66338SOL     OW  910  12.737   0.268   8.161
66338SOL    HW1  911  12.768   0.191   8.210
66338SOL    HW2  912  12.673   0.309   8.218
66339SOL     OW  913  14.668  14.701  11.692
66339SOL    HW1  914  14.689  14.619  11.647
66339SOL    HW2  915  14.577  14.690  11.720
66340SOL     OW  916   2.752   8.818   6.889
66340SOL    HW1  917   2.792   8.754   6.829
66340SOL    HW2  918   2.813   8.822   6.963
66341SOL     OW  919   1.440   9.728   2.395
66341SOL    HW1  920   1.395   9.662   2.448
66341SOL    HW2  921   1.428   9.810   2.442
66342SOL     OW  922   7.391   1.380   6.080
66342SOL    HW1  923   7.351   1.308   6.129
66342SOL    HW2  924   7.484   1.374   6.100
66343SOL     OW  925   1.136   6.385   2.087
66343SOL    HW1  926   1.168   6.308   2.040
66343SOL    HW2  927   1.047   6.398   2.054
66344SOL     OW  928  12.754   5.780   6.115
66344SOL    HW1  929  12.663   5.805   6.098
66344SOL    HW2  930  12.776   5.721   6.043
66345SOL     OW  931  10.784   9.360   2.091
66345SOL    HW1  932  10.846   9.352   2.018
66345SOL    HW2  933  10.725   9.286   2.080
66346SOL     OW  934  13.262   1.640   6.013
66346SOL    HW1  935  13.244   1.656   6.105
66346SOL    HW2  936  13.176   1.637   5.972
66347SOL     OW  937   1.286   4.726   3.469
66347SOL    HW1  938   1.209   4.726   3.413
66347SOL    HW2  939   1.252   4.702   3.556
66348SOL     OW  940   7.149   6.813   7.707
66348SOL    HW1  941   7.183   6.901   7.690
66348SOL    HW2  942   7.074   6.827   7.765
66349SOL     OW  943  10.645   4.393   4.347
66349SOL    HW1  944  10.700   4.460   4.388
66349SOL    HW2  945  10.614   4.339   4.419
66350SOL     OW  946   2.716   7.075  11.505
66350SOL    HW1  947   2.788   7.137  11.516
66350SOL    HW2  948   2.743   7.020  11.432
66351SOL     OW  949  12.750  10.576   6.664
66351SOL    HW1  950  12.736  10.616   6.750
66351SOL    HW2  951  12.840  10.543   6.668
66352SOL     OW  952   2.306   1.108   7.328
66352SOL    HW1  953   2.359   1.186   7.309
66352SOL    HW2  954   2.308   1.058   7.246
66353SOL     OW  955   7.125  11.652  14.623
66353SOL    HW1  956   7.142  11.630  14.531
66353SOL    HW2  957   7.211  11.679  14.657
66354SOL     OW  958  10.496   4.626   7.397
66354SOL    HW1  959  10.586   4.647   7.374
66354SOL    HW2  960  10.454   4.605   7.314
66355SOL     OW  961   3.816   5.514  12.347
66355SOL    HW1  962   3.799   5.503  12.253
66355SOL    HW2  963   3.812   5.608  12.361
66356SOL     OW  964   3.886   5.311   0.617
66356SOL    HW1  965   3.851   5.296   0.529
66356SOL    HW2  966   3.981   5.302   0.607
66357SOL     OW  967  10.370  12.535  11.689
66357SOL    HW1  968  10.398  12.561  11.601
66357SOL    HW2  969  10.285  12.577  11.701
66358SOL     OW  970   6.912   4.390   2.868
66358SOL    HW1  971   6.976   4.384   2.798
66358SOL    HW2  972   6.868   4.473   2.853
66359SOL     OW  973   8.879   7.901   3.198
66359SOL    HW1  974   8.969   7.896   3.166
66359SOL    HW2  975   8.847   7.811   3.194
66360SOL     OW  976   6.588   4.713   5.689
66360SOL    HW1  977   6.650   4.757   5.747
66360SOL    HW2  978   6.502   4.744   5.718
66361SOL     OW  979  13.587   0.333   7.620
66361SOL    HW1  980  13.556   0.317   7.531
66361SOL    HW2  981  13.675   0.294   7.622
66362SOL     OW  982   9.854   5.107   9.850
66362SOL    HW1  983   9.811   5.106   9.764
66362SOL    HW2  984   9.782   5.110   9.913
66363SOL     OW  985   5.533   7.792   7.985
66363SOL    HW1  986   5.608   7.825   8.035
66363SOL    HW2  987   5.460   7.848   8.012
66364SOL     OW  988   9.894   8.619   4.861
66364SOL    HW1  989   9.899   8.613   4.956
66364SOL    HW2  990   9.807   8.588   4.839
66365SOL     OW  991   3.705  10.262   9.216
66365SOL    HW1  992   3.634  10.324   9.201
66365SOL    HW2  993   3.669  10.177   9.190
66366SOL     OW  994   6.336   9.948   2.519
66366SOL    HW1  995   6.424   9.913   2.504
66366SOL    HW2  996   6.351  10.040   2.542
66367SOL     OW  997   8.213   5.757  12.405
66367SOL    HW1  998   8.299   5.763  12.364
66367SOL    HW2  999   8.151   5.777  12.335
66368SOL     OW 1000   5.903   1.970  13.814
66368SOL    HW1 1001   5.969   1.964  13.883
66368SOL    HW2 1002   5.881   1.880  13.794
66369SOL     OW 1003  13.507  12.283   6.567
66369SOL    HW1 1004  13.508  12.217   6.636
66369SOL    HW2 1005  13.440  12.251   6.506
66370SOL     OW 1006   2.554  14.665  11.593
66370SOL    HW1 1007   2.626  14.728  11.592
66370SOL    HW2 1008   2.597  14.580  11.592
66371SOL     OW 1009   9.629  11.474   0.477
66371SOL    HW1 1010   9.538  11.474   0.445
66371SOL    HW2 1011   9.638  11.391   0.524
66372SOL     OW 1012   7.319  11.744   3.495
66372SOL    HW1 1013   7.292  11.736   3.586
66372SOL    HW2 1014   7.238  11.728   3.445
66373SOL     OW 1015  10.686   9.863  12.964
66373SOL    HW1 1016  10.757   9.819  13.011
66373SOL    HW2 1017  10.656   9.799  12.899
66374SOL     OW 1018  12.984  12.087   1.481
66374SOL    HW1 1019  12.985  12.157   1.547
66374SOL    HW2 1020  12.892  12.061   1.474
66375SOL     OW 1021   4.849   0.387  10.114
66375SOL    HW1 1022   4.911   0.459  10.127
66375SOL    HW2 1023   4.900   0.308  10.129
66376SOL     OW 1024  14.110   0.669   0.467
66376SOL    HW1 1025  14.200   0.690   0.444
66376SOL    HW2 1026  14.060   0.689   0.389
66377SOL     OW 1027   2.068  10.940  11.672
66377SOL    HW1 1028   2.157  10.929  11.706
66377SOL    HW2 1029   2.069  10.895  11.588
66378SOL     OW 1030   5.873   5.643  11.003
66378SOL    HW1 1031   5.954   5.685  11.030
66378SOL    HW2 1032   5.898   5.554  10.980
66379SOL     OW 1033  12.741   9.050   8.351
66379SOL    HW1 1034  12.705   8.967   8.382
66379SOL    HW2 1035  12.768   9.096   8.430
66380SOL     OW 1036   3.292   7.051  12.205
66380SOL    HW1 1037   3.254   7.051  12.117
66380SOL    HW2 1038   3.258   6.971  12.246
66381SOL     OW 1039   1.164   4.937   5.148
66381SOL    HW1 1040   1.088   4.907   5.098
66381SOL    HW2 1041   1.142   4.916   5.239
66382SOL     OW 1042   5.724   2.646   6.197
66382SOL    HW1 1043   5.745   2.647   6.104
66382SOL    HW2 1044   5.719   2.738   6.222
66383SOL     OW 1045  14.650   5.925   1.507
66383SOL    HW1 1046  14.638   5.924   1.601
66383SOL    HW2 1047  14.745   5.925   1.495
66384SOL     OW 1048   4.156  14.663  12.044
66384SOL    HW1 1049   4.092  14.725  12.079
66384SOL    HW2 1050   4.218  14.717  11.996
66385SOL     OW 1051   1.838   9.285  10.594
66385SOL    HW1 1052   1.757   9.290  10.645
66385SOL    HW2 1053   1.840   9.367  10.545
66386SOL     OW 1054  13.839  11.538   8.253
66386SOL    HW1 1055  13.868  11.473   8.189
66386SOL    HW2 1056  13.874  11.505   8.336
66387SOL     OW 1057   9.226   0.882  12.403
66387SOL    HW1 1058   9.184   0.901  12.319
66387SOL    HW2 1059   9.296   0.821  12.381
66388SOL     OW 1060   1.995  14.726   1.829
66388SOL    HW1 1061   1.942  14.756   1.755
66388SOL    HW2 1062   1.954  14.765   1.906
66389SOL     OW 1063   0.884   4.801   5.104
66389SOL    HW1 1064   0.836   4.812   5.021
66389SOL    HW2 1065   0.851   4.871   5.160
66390SOL     OW 1066   2.963   2.970  11.457
66390SOL    HW1 1067   3.006   3.047  11.419
66390SOL    HW2 1068   2.877   2.968  11.414
66391SOL     OW 1069  12.000  14.479  11.128
66391SOL    HW1 1070  11.914  14.521  11.130
66391SOL    HW2 1071  12.039  14.507  11.045
66392SOL     OW 1072  13.517  12.494   1.888
66392SOL    HW1 1073  13.502  12.405   1.855
66392SOL    HW2 1074  13.604  12.517   1.855
66393SOL     OW 1075   8.412  10.189  13.684
66393SOL    HW1 1076   8.420  10.094  13.692
66393SOL    HW2 1077   8.462  10.210  13.605
66394SOL     OW 1078  12.980   7.808  12.147
66394SOL    HW1 1079  12.931   7.727  12.135
66394SOL    HW2 1080  13.023   7.797  12.232
66395SOL     OW 1081   5.627   2.363  12.252
66395SOL    HW1 1082   5.595   2.451  12.274
66395SOL    HW2 1083   5.637   2.365  12.157
66396SOL     OW 1084   0.826   0.346  10.002
66396SOL    HW1 1085   0.828   0.253   9.980
66396SOL    HW2 1086   0.901   0.383   9.956
66397SOL     OW 1087  14.229   2.882  11.288
66397SOL    HW1 1088  14.241   2.788  11.303
66397SOL    HW2 1089  14.134   2.892  11.280
66398SOL     OW 1090  11.111  10.000   6.912
66398SOL    HW1 1091  11.019   9.980   6.896
66398SOL    HW2 1092  11.146   9.923   6.955
66399SOL     OW 1093  12.415  10.271   6.110
66399SOL    HW1 1094  12.436  10.200   6.049
66399SOL    HW2 1095  12.383  10.226   6.188
66400SOL     OW 1096   3.977   3.433   6.939
66400SOL    HW1 1097   3.909   3.415   6.873
66400SOL    HW2 1098   4.005   3.523   6.920
66401SOL     OW 1099   3.217   0.509   9.213
66401SOL    HW1 1100   3.290   0.568   9.195
66401SOL    HW2 1101   3.205   0.514   9.308
66402SOL     OW 1102  12.309  11.347   9.411
66402SOL    HW1 1103  12.234  11.369   9.357
66402SOL    HW2 1104  12.276  11.281   9.472
66403SOL     OW 1105   2.585  11.157   2.591
66403SOL    HW1 1106   2.650  11.228   2.599
66403SOL    HW2 1107   2.636  11.082   2.560
66404SOL     OW 1108  14.228   7.387  11.429
66404SOL    HW1 1109  14.205   7.299  11.458
66404SOL    HW2 1110  14.161   7.409  11.364
66405SOL     OW 1111  10.306   3.436   7.966
66405SOL    HW1 1112  10.398   3.409   7.964
66405SOL    HW2 1113  10.309   3.529   7.943
66406SOL     OW 1114  13.268  14.284   5.300
66406SOL    HW1 1115  13.235  14.213   5.354
66406SOL    HW2 1116  13.347  14.248   5.259
66407SOL     OW 1117   9.305  13.953  14.740
66407SOL    HW1 1118   9.234  14.017  14.733
66407SOL    HW2 1119   9.288  13.891  14.668
66408SOL     OW 1120   9.315   2.929  10.169
66408SOL    HW1 1121   9.241   2.964  10.119
66408SOL    HW2 1122   9.301   2.960  10.258
66409SOL     OW 1123   4.845  10.676  10.600
66409SOL    HW1 1124   4.833  10.710  10.511
66409SOL    HW2 1125   4.921  10.724  10.633
66410SOL     OW 1126  10.095   4.204  13.907
66410SOL    HW1 1127  10.005   4.235  13.919
66410SOL    HW2 1128  10.120   4.234  13.820
66411SOL     OW 1129   2.572  10.523  14.608
66411SOL    HW1 1130   2.560  10.555  14.519
66411SOL    HW2 1131   2.491  10.475  14.627
66412SOL     OW 1132   9.531  13.632   3.878
66412SOL    HW1 1133   9.596  13.668   3.817
66412SOL    HW2 1134   9.451  13.624   3.825
66413SOL     OW 1135   1.129   9.128  11.260
66413SOL    HW1 1136   1.216   9.145  11.226
66413SOL    HW2 1137   1.085   9.213  11.260
66414SOL     OW 1138  11.441  14.340   7.163
66414SOL    HW1 1139  11.441  14.342   7.259
66414SOL    HW2 1140  11.488  14.419   7.137
66415SOL     OW 1141   5.643   3.207  12.669
66415SOL    HW1 1142   5.639   3.298  12.640
66415SOL    HW2 1143   5.654   3.213  12.764
66416SOL     OW 1144   6.884   6.985   6.903
66416SOL    HW1 1145   6.977   6.971   6.921
66416SOL    HW2 1146   6.863   6.924   6.833
66417SOL     OW 1147  14.303  10.246   4.458
66417SOL    HW1 1148  14.248  10.176   4.422
66417SOL    HW2 1149  14.306  10.312   4.389
66418SOL     OW 1150  10.363   2.284   4.542
66418SOL    HW1 1151  10.281   2.236   4.551
66418SOL    HW2 1152  10.337   2.376   4.550
66419SOL     OW 1153   6.590  11.545   3.845
66419SOL    HW1 1154   6.563  11.509   3.761
66419SOL    HW2 1155   6.521  11.519   3.906
66420SOL     OW 1156  13.457   5.356   6.230
66420SOL    HW1 1157  13.543   5.324   6.201
66420SOL    HW2 1158  13.411   5.378   6.149
66421SOL     OW 1159   0.531   4.068   2.386
66421SOL    HW1 1160   0.529   4.162   2.404
66421SOL    HW2 1161   0.517   4.028   2.472
66422SOL     OW 1162  10.674   0.473   7.726
66422SOL    HW1 1163  10.615   0.506   7.658
66422SOL    HW2 1164  10.705   0.389   7.693
66423SOL     OW 1165   2.077  12.241   8.123
66423SOL    HW1 1166   2.004  12.180   8.108
66423SOL    HW2 1167   2.067  12.308   8.055
66424SOL     OW 1168   5.381   5.878  12.850
66424SOL    HW1 1169   5.400   5.856  12.759
66424SOL    HW2 1170   5.460   5.920  12.882
66425SOL     OW 1171   2.343   6.123  14.809
66425SOL    HW1 1172   2.385   6.038  14.800
66425SOL    HW2 1173   2.410   6.179  14.848
66426SOL     OW 1174   4.523  14.236   1.652
66426SOL    HW1 1175   4.534  14.329   1.671
66426SOL    HW2 1176   4.581  14.192   1.715
66427SOL     OW 1177  13.009   0.731   5.041
66427SOL    HW1 1178  13.092   0.700   5.077
66427SOL    HW2 1179  12.944   0.707   5.107
66428SOL     OW 1180   9.637  13.118  10.022
66428SOL    HW1 1181   9.641  13.154  10.110
66428SOL    HW2 1182   9.615  13.026  10.034
66429SOL     OW 1183   2.180   1.365   7.234
66429SOL    HW1 1184   2.165   1.460   7.233
66429SOL    HW2 1185   2.124   1.333   7.305
66430SOL     OW 1186  14.302  14.832  10.712
66430SOL    HW1 1187  14.239   0.017  10.744
66430SOL    HW2 1188  14.315  14.855  10.620
66431SOL     OW 1189   6.028   5.080   1.293
66431SOL    HW1 1190   6.016   5.036   1.209
66431SOL    HW2 1191   5.950   5.057   1.344
66432SOL     OW 1192   2.761   2.882   3.540
66432SOL    HW1 1193   2.845   2.838   3.552
66432SOL    HW2 1194   2.724   2.885   3.628
66433SOL     OW 1195   1.530   6.532  10.579
66433SOL    HW1 1196   1.511   6.624  10.561
66433SOL    HW2 1197   1.555   6.495  10.494
66434SOL     OW 1198   0.480   9.678  14.609
66434SOL    HW1 1199   0.439   9.762  14.626
66434SOL    HW2 1200   0.529   9.658  14.689
66435SOL     OW 1201  13.534   1.097   8.476
66435SOL    HW1 1202  13.499   1.169   8.423
66435SOL    HW2 1203  13.617   1.130   8.509
66436SOL     OW 1204   1.476   6.826   2.357
66436SOL    HW1 1205   1.467   6.739   2.317
66436SOL    HW2 1206   1.549   6.816   2.419
66437SOL     OW 1207   3.528   4.691  14.855
66437SOL    HW1 1208   3.597   4.757  14.844
66437SOL    HW2 1209   3.569   4.622   0.028
66438SOL     OW 1210   2.975   5.370   2.664
66438SOL    HW1 1211   2.991   5.276   2.668
66438SOL    HW2 1212   3.015   5.398   2.582
66439SOL     OW 1213   4.287  14.078  12.167
66439SOL    HW1 1214   4.259  14.137  12.097
66439SOL    HW2 1215   4.293  13.992  12.126
66440SOL     OW 1216   2.385   2.946  10.399
66440SOL    HW1 1217   2.329   2.959  10.323
66440SOL    HW2 1218   2.438   2.869  10.377
66441SOL     OW 1219  13.821   1.147  13.041
66441SOL    HW1 1220  13.910   1.142  13.076
66441SOL    HW2 1221  13.802   1.241  13.040
66442SOL     OW 1222   5.691   4.529  13.247
66442SOL    HW1 1223   5.612   4.580  13.229
66442SOL    HW2 1224   5.758   4.596  13.266
66443SOL     OW 1225   0.610   0.824   2.486
66443SOL    HW1 1226   0.678   0.781   2.434
66443SOL    HW2 1227   0.567   0.752   2.532
66444SOL     OW 1228   8.449   2.101  10.510
66444SOL    HW1 1229   8.366   2.057  10.529
66444SOL    HW2 1230   8.488   2.117  10.596
66445SOL     OW 1231   2.116   9.755  13.434
66445SOL    HW1 1232   2.089   9.713  13.352
66445SOL    HW2 1233   2.034   9.777  13.478
66446SOL     OW 1234   8.838  10.151   1.859
66446SOL    HW1 1235   8.875  10.103   1.933
66446SOL    HW2 1236   8.798  10.229   1.898
66447SOL     OW 1237   8.191   9.191  12.464
66447SOL    HW1 1238   8.244   9.209  12.542
66447SOL    HW2 1239   8.181   9.096  12.463
66448SOL     OW 1240   9.778  10.108  10.668
66448SOL    HW1 1241   9.690  10.119  10.630
66448SOL    HW2 1242   9.765  10.047  10.740
66449SOL     OW 1243  12.805  14.877   2.666
66449SOL    HW1 1244  12.795  14.870   2.761
66449SOL    HW2 1245  12.731   0.051   2.638
66450SOL     OW 1246  11.523   6.205  11.835
66450SOL    HW1 1247  11.566   6.268  11.778
66450SOL    HW2 1248  11.560   6.120  11.811
66451SOL     OW 1249   8.905  11.373   4.940
66451SOL    HW1 1250   8.909  11.277   4.939
66451SOL    HW2 1251   8.812  11.393   4.943
66452SOL     OW 1252   1.237   9.907   4.901
66452SOL    HW1 1253   1.284   9.929   4.821
66452SOL    HW2 1254   1.163   9.968   4.903
66453SOL     OW 1255   3.695   9.063  13.585
66453SOL    HW1 1256   3.632   9.135  13.591
66453SOL    HW2 1257   3.752   9.075  13.661
66454SOL     OW 1258  12.597   6.280  10.613
66454SOL    HW1 1259  12.651   6.356  10.594
66454SOL    HW2 1260  12.644   6.234  10.684
66455SOL     OW 1261  12.106   5.478   7.475
66455SOL    HW1 1262  12.199   5.499   7.464
66455SOL    HW2 1263  12.105   5.390   7.511
66456SOL     OW 1264   0.627   9.952  13.081
66456SOL    HW1 1265   0.576  10.029  13.057
66456SOL    HW2 1266   0.639   9.905  12.998
66457SOL     OW 1267   6.204  13.472   1.244
66457SOL    HW1 1268   6.116  13.502   1.222
66457SOL    HW2 1269   6.238  13.539   1.303
66458SOL     OW 1270   8.318  13.989   6.364
66458SOL    HW1 1271   8.309  14.068   6.418
66458SOL    HW2 1272   8.393  14.007   6.308
66459SOL     OW 1273   9.679  14.644   6.999
66459SOL    HW1 1274   9.666  14.739   6.998
66459SOL    HW2 1275   9.596  14.608   6.968
66460SOL     OW 1276   0.421   6.526  14.268
66460SOL    HW1 1277   0.393   6.474  14.344
66460SOL    HW2 1278   0.339   6.557  14.230
66461SOL     OW 1279   0.613  13.917   0.738
66461SOL    HW1 1280   0.649  13.897   0.825
66461SOL    HW2 1281   0.643  14.006   0.719
66462SOL     OW 1282   6.131   9.313  14.849
66462SOL    HW1 1283   6.096   9.395  14.815
66462SOL    HW2 1284   6.216   9.304  14.805
66463SOL     OW 1285   0.763   0.099   4.515
66463SOL    HW1 1286   0.750   0.016   4.470
66463SOL    HW2 1287   0.858   0.111   4.516
66464SOL     OW 1288   4.245  14.306  12.491
66464SOL    HW1 1289   4.219  14.355  12.413
66464SOL    HW2 1290   4.263  14.218  12.460
66465SOL     OW 1291  14.130   1.998  14.256
66465SOL    HW1 1292  14.117   1.929  14.190
66465SOL    HW2 1293  14.206   2.048  14.224
66466SOL     OW 1294  13.047   2.875   2.101
66466SOL    HW1 1295  13.053   2.807   2.034
66466SOL    HW2 1296  13.137   2.884   2.134
66467SOL     OW 1297   3.370  13.037   8.628
66467SOL    HW1 1298   3.394  13.124   8.596
66467SOL    HW2 1299   3.276  13.030   8.609
66468SOL     OW 1300  11.102   0.914   4.249
66468SOL    HW1 1301  11.123   1.006   4.263
66468SOL    HW2 1302  11.043   0.914   4.174
66469SOL     OW 1303  14.741   6.569   3.451
66469SOL    HW1 1304  14.784   6.504   3.395
66469SOL    HW2 1305  14.810   6.631   3.472
66470SOL     OW 1306  10.355   9.221   8.615
66470SOL    HW1 1307  10.290   9.239   8.547
66470SOL    HW2 1308  10.385   9.307   8.643
66471SOL     OW 1309   1.978   4.744   5.065
66471SOL    HW1 1310   1.931   4.804   5.007
66471SOL    HW2 1311   1.988   4.793   5.147
66472SOL     OW 1312   2.680   5.212   2.532
66472SOL    HW1 1313   2.696   5.196   2.625
66472SOL    HW2 1314   2.614   5.148   2.507
66473SOL     OW 1315   5.511  10.415   6.875
66473SOL    HW1 1316   5.576  10.446   6.937
66473SOL    HW2 1317   5.533  10.459   6.793
66474SOL     OW 1318   1.228   3.910   5.755
66474SOL    HW1 1319   1.181   3.944   5.678
66474SOL    HW2 1320   1.186   3.825   5.772
66475SOL     OW 1321   1.302   7.100   7.885
66475SOL    HW1 1322   1.255   7.133   7.962
66475SOL    HW2 1323   1.282   7.007   7.882
66476SOL     OW 1324   3.505   2.193   6.005
66476SOL    HW1 1325   3.586   2.204   6.055
66476SOL    HW2 1326   3.513   2.257   5.934
66477SOL     OW 1327   5.410   4.594   0.390
66477SOL    HW1 1328   5.423   4.684   0.422
66477SOL    HW2 1329   5.439   4.598   0.299
66478SOL     OW 1330   0.734   9.266  12.553
66478SOL    HW1 1331   0.758   9.358  12.560
66478SOL    HW2 1332   0.638   9.266  12.544
66479SOL     OW 1333  13.902   8.005  12.341
66479SOL    HW1 1334  13.902   7.981  12.248
66479SOL    HW2 1335  13.809   8.008  12.364
66480SOL     OW 1336   0.104   9.597   0.278
66480SOL    HW1 1337   0.089   9.689   0.299
66480SOL    HW2 1338   0.032   9.574   0.219
66481SOL     OW 1339   6.028   5.258  11.375
66481SOL    HW1 1340   5.949   5.304  11.345
66481SOL    HW2 1341   6.000   5.167  11.386
66482SOL     OW 1342   1.459  13.264  12.919
66482SOL    HW1 1343   1.372  13.224  12.914
66482SOL    HW2 1344   1.520  13.194  12.895
66483SOL     OW 1345   9.159  10.320   5.439
66483SOL    HW1 1346   9.127  10.247   5.385
66483SOL    HW2 1347   9.188  10.386   5.376
66484SOL     OW 1348  11.282  11.750   4.540
66484SOL    HW1 1349  11.350  11.685   4.558
66484SOL    HW2 1350  11.200  11.701   4.544
66485SOL     OW 1351   7.714   5.197   3.671
66485SOL    HW1 1352   7.672   5.233   3.749
66485SOL    HW2 1353   7.747   5.274   3.624
66486SOL     OW 1354   7.271  14.236  11.272
66486SOL    HW1 1355   7.336  14.224  11.203
66486SOL    HW2 1356   7.206  14.167  11.256
66487SOL     OW 1357   0.980   2.301   8.039
66487SOL    HW1 1358   1.035   2.252   7.977
66487SOL    HW2 1359   0.899   2.316   7.992
66488SOL     OW 1360   3.443   8.982   5.479
66488SOL    HW1 1361   3.365   9.035   5.494
66488SOL    HW2 1362   3.425   8.900   5.523
66489SOL     OW 1363   4.403   1.930   9.848
66489SOL    HW1 1364   4.423   1.945   9.756
66489SOL    HW2 1365   4.488   1.911   9.888
66490SOL     OW 1366   7.853  12.336  13.073
66490SOL    HW1 1367   7.789  12.402  13.101
66490SOL    HW2 1368   7.915  12.329  13.145
66491SOL     OW 1369   5.311   3.506   5.818
66491SOL    HW1 1370   5.325   3.481   5.909
66491SOL    HW2 1371   5.252   3.439   5.784
66492SOL     OW 1372  12.601   6.102  12.643
66492SOL    HW1 1373  12.529   6.052  12.604
66492SOL    HW2 1374  12.668   6.037  12.663
66493SOL     OW 1375  12.094   4.687  13.173
66493SOL    HW1 1376  12.025   4.708  13.236
66493SOL    HW2 1377  12.051   4.634  13.106
66494SOL     OW 1378  12.083   4.513  14.739
66494SOL    HW1 1379  12.142   4.458  14.688
66494SOL    HW2 1380  12.130   4.529  14.821
66495SOL     OW 1381   2.657  12.980   4.354
66495SOL    HW1 1382   2.734  13.002   4.405
66495SOL    HW2 1383   2.607  12.919   4.409
66496SOL     OW 1384   3.234  14.095  12.079
66496SOL    HW1 1385   3.319  14.052  12.070
66496SOL    HW2 1386   3.252  14.174  12.130
66497SOL     OW 1387   4.275   4.787  14.303
66497SOL    HW1 1388   4.328   4.867  14.304
66497SOL    HW2 1389   4.304   4.739  14.226
66498SOL     OW 1390   0.149  14.344  12.004
66498SOL    HW1 1391   0.167  14.427  11.959
66498SOL    HW2 1392   0.053  14.339  12.007
66499SOL     OW 1393   6.252   7.888  10.961
66499SOL    HW1 1394   6.309   7.874  10.885
66499SOL    HW2 1395   6.169   7.918  10.924
66500SOL     OW 1396   8.534   3.166  10.799
66500SOL    HW1 1397   8.536   3.157  10.703
66500SOL    HW2 1398   8.482   3.091  10.828
66501SOL     OW 1399   0.902   7.238  13.847
66501SOL    HW1 1400   0.957   7.289  13.789
66501SOL    HW2 1401   0.895   7.291  13.927
66502SOL     OW 1402   5.027   2.294  14.275
66502SOL    HW1 1403   4.964   2.267  14.208
66502SOL    HW2 1404   4.989   2.374  14.313
66503SOL     OW 1405   9.869   6.391  13.168
66503SOL    HW1 1406   9.797   6.334  13.194
66503SOL    HW2 1407   9.842   6.426  13.083
66504SOL     OW 1408   8.623   0.685   6.814
66504SOL    HW1 1409   8.537   0.725   6.825
66504SOL    HW2 1410   8.675   0.752   6.770
66505SOL     OW 1411   6.527   1.538   0.105
66505SOL    HW1 1412   6.609   1.551   0.058
66505SOL    HW2 1413   6.459   1.552   0.040
66506SOL     OW 1414   4.228   1.979   2.715
66506SOL    HW1 1415   4.244   2.067   2.680
66506SOL    HW2 1416   4.263   1.982   2.804
66507SOL     OW 1417   0.725  14.438   1.657
66507SOL    HW1 1418   0.771  14.446   1.574
66507SOL    HW2 1419   0.648  14.384   1.638
66508SOL     OW 1420  13.271   0.285   3.220
66508SOL    HW1 1421  13.297   0.198   3.189
66508SOL    HW2 1422  13.349   0.339   3.208
66509SOL     OW 1423  12.560  10.037  11.226
66509SOL    HW1 1424  12.655  10.049  11.222
66509SOL    HW2 1425  12.531  10.040  11.135
66510SOL     OW 1426  10.752   4.752   9.244
66510SOL    HW1 1427  10.751   4.783   9.334
66510SOL    HW2 1428  10.661   4.758   9.215
66511SOL     OW 1429   2.962   1.513   8.929
66511SOL    HW1 1430   2.984   1.606   8.942
66511SOL    HW2 1431   3.045   1.467   8.940
66512SOL     OW 1432   3.325  11.105  11.542
66512SOL    HW1 1433   3.400  11.163  11.532
66512SOL    HW2 1434   3.258  11.160  11.584
66513SOL     OW 1435   2.766   8.101   4.788
66513SOL    HW1 1436   2.775   8.190   4.822
66513SOL    HW2 1437   2.712   8.111   4.710
66514SOL     OW 1438  13.410   2.540   6.377
66514SOL    HW1 1439  13.473   2.520   6.307
66514SOL    HW2 1440  13.444   2.621   6.417
66515SOL     OW 1441   9.625   5.162  13.439
66515SOL    HW1 1442   9.713   5.137  13.414
66515SOL    HW2 1443   9.569   5.092  13.406
66516SOL     OW 1444   9.834   1.079  14.317
66516SOL    HW1 1445   9.784   1.141  14.371
66516SOL    HW2 1446   9.817   0.994  14.356
66517SOL     OW 1447   3.808   4.319   8.596
66517SOL    HW1 1448   3.815   4.383   8.526
66517SOL    HW2 1449   3.715   4.299   8.602
66518SOL     OW 1450  11.210   7.558  14.699
66518SOL    HW1 1451  11.237   7.489  14.639
66518SOL    HW2 1452  11.179   7.628  14.643
66519SOL     OW 1453   3.168   4.029   4.150
66519SOL    HW1 1454   3.237   3.987   4.201
66519SOL    HW2 1455   3.096   4.041   4.212
66520SOL     OW 1456  12.219   0.412   1.719
66520SOL    HW1 1457  12.193   0.497   1.756
66520SOL    HW2 1458  12.270   0.435   1.642
66521SOL     OW 1459   0.761   1.630  13.321
66521SOL    HW1 1460   0.737   1.540  13.342
66521SOL    HW2 1461   0.687   1.663  13.270
66522SOL     OW 1462  13.685   8.418  12.855
66522SOL    HW1 1463  13.698   8.493  12.797
66522SOL    HW2 1464  13.733   8.347  12.814
66523SOL     OW 1465   0.643  10.893   0.169
66523SOL    HW1 1466   0.629  10.809   0.126
66523SOL    HW2 1467   0.729  10.922   0.139
66524SOL     OW 1468   2.952   1.852  11.959
66524SOL    HW1 1469   3.031   1.852  11.904
66524SOL    HW2 1470   2.894   1.916  11.917
66525SOL     OW 1471  13.242   7.284   2.355
66525SOL    HW1 1472  13.300   7.299   2.429
66525SOL    HW2 1473  13.284   7.214   2.305
66526SOL     OW 1474   0.063   2.263   0.726
66526SOL    HW1 1475   0.065   2.357   0.704
66526SOL    HW2 1476   0.039   2.220   0.644
66527SOL     OW 1477   9.272  11.682   0.543
66527SOL    HW1 1478   9.355  11.715   0.576
66527SOL    HW2 1479   9.296  11.600   0.498
66528SOL     OW 1480   1.152   4.294  10.625
66528SOL    HW1 1481   1.246   4.308  10.616
66528SOL    HW2 1482   1.132   4.321  10.714
66529SOL     OW 1483   7.385   3.297  10.432
66529SOL    HW1 1484   7.435   3.365  10.388
66529SOL    HW2 1485   7.300   3.337  10.449
66530SOL     OW 1486  12.981  12.427  12.302
66530SOL    HW1 1487  13.046  12.458  12.240
66530SOL    HW2 1488  12.897  12.459  12.269
66531SOL     OW 1489   3.716  14.068  14.796
66531SOL    HW1 1490   3.648  14.001  14.796
66531SOL    HW2 1491   3.764  14.053  14.715
66532SOL     OW 1492   4.749  13.572   8.329
66532SOL    HW1 1493   4.689  13.499   8.345
66532SOL    HW2 1494   4.773  13.564   8.237
66533SOL     OW 1495   1.895   3.577   9.174
66533SOL    HW1 1496   1.922   3.667   9.194
66533SOL    HW2 1497   1.802   3.574   9.195
66534SOL     OW 1498   8.768  13.136   3.083
66534SOL    HW1 1499   8.697  13.199   3.074
66534SOL    HW2 1500   8.816  13.164   3.161
66535SOL     OW 1501  11.256   6.485   9.416
66535SOL    HW1 1502  11.345   6.451   9.427
66535SOL    HW2 1503  11.256   6.568   9.462
66536SOL     OW 1504   2.339  10.406  14.647
66536SOL    HW1 1505   2.256  10.423  14.601
66536SOL    HW2 1506   2.312  10.373  14.733
66537SOL     OW 1507  12.907  11.095   4.111
66537SOL    HW1 1508  12.874  11.039   4.041
66537SOL    HW2 1509  12.913  11.037   4.187
66538SOL     OW 1510  10.457   8.995   4.469
66538SOL    HW1 1511  10.423   9.007   4.380
66538SOL    HW2 1512  10.551   9.008   4.461
66539SOL     OW 1513  14.831  11.922   0.781
66539SOL    HW1 1514  14.818  11.855   0.714
66539SOL    HW2 1515  14.750  11.972   0.781
66540SOL     OW 1516   8.386  12.242  12.591
66540SOL    HW1 1517   8.364  12.182  12.520
66540SOL    HW2 1518   8.304  12.285  12.613
66541SOL     OW 1519  12.613   6.319   7.975
66541SOL    HW1 1520  12.615   6.328   8.071
66541SOL    HW2 1521  12.533   6.270   7.958
66542SOL     OW 1522   5.231   3.962   2.001
66542SOL    HW1 1523   5.175   3.913   1.941
66542SOL    HW2 1524   5.194   3.945   2.088
66543SOL     OW 1525   5.030   9.186  13.289
66543SOL    HW1 1526   5.070   9.269  13.263
66543SOL    HW2 1527   5.060   9.172  13.379
66544SOL     OW 1528   1.290   4.689   0.930
66544SOL    HW1 1529   1.295   4.712   1.022
66544SOL    HW2 1530   1.339   4.758   0.885
66545SOL     OW 1531  12.067  11.567  12.262
66545SOL    HW1 1532  12.082  11.602  12.350
66545SOL    HW2 1533  12.056  11.473  12.275
66546SOL     OW 1534   6.141  12.840   2.872
66546SOL    HW1 1535   6.051  12.811   2.856
66546SOL    HW2 1536   6.145  12.854   2.967
66547SOL     OW 1537   3.122   4.579   2.831
66547SOL    HW1 1538   3.032   4.584   2.865
66547SOL    HW2 1539   3.119   4.631   2.750
66548SOL     OW 1540   4.700   8.806   6.136
66548SOL    HW1 1541   4.719   8.732   6.077
66548SOL    HW2 1542   4.628   8.775   6.190
66549SOL     OW 1543   9.481   2.347   3.718
66549SOL    HW1 1544   9.444   2.414   3.776
66549SOL    HW2 1545   9.405   2.307   3.676
66550SOL     OW 1546  12.834  10.709   3.304
66550SOL    HW1 1547  12.823  10.803   3.293
66550SOL    HW2 1548  12.788  10.670   3.229
66551SOL     OW 1549  12.711   3.643   3.798
66551SOL    HW1 1550  12.712   3.549   3.814
66551SOL    HW2 1551  12.796   3.662   3.759
66552SOL     OW 1552   3.766  12.548   7.543
66552SOL    HW1 1553   3.731  12.478   7.488
66552SOL    HW2 1554   3.756  12.515   7.633
66553SOL     OW 1555   7.149  13.579  11.169
66553SOL    HW1 1556   7.169  13.673  11.168
66553SOL    HW2 1557   7.145  13.555  11.076
66554SOL     OW 1558  13.387   5.905  10.699
66554SOL    HW1 1559  13.469   5.855  10.693
66554SOL    HW2 1560  13.408   5.976  10.760
66555SOL     OW 1561  10.456   6.061   2.521
66555SOL    HW1 1562  10.361   6.064   2.518
66555SOL    HW2 1563  10.484   6.088   2.433
66556SOL     OW 1564  13.257   9.920   5.391
66556SOL    HW1 1565  13.231   9.983   5.323
66556SOL    HW2 1566  13.175   9.895   5.433
66557SOL     OW 1567  12.137   2.477  11.843
66557SOL    HW1 1568  12.215   2.532  11.837
66557SOL    HW2 1569  12.169   2.395  11.882
66558SOL     OW 1570   4.856   8.603   2.433
66558SOL    HW1 1571   4.777   8.651   2.407
66558SOL    HW2 1572   4.881   8.554   2.355
66559SOL     OW 1573   2.696  13.852  13.674
66559SOL    HW1 1574   2.631  13.899  13.727
66559SOL    HW2 1575   2.772  13.911  13.671
66560SOL     OW 1576  13.198   0.710  11.773
66560SOL    HW1 1577  13.172   0.672  11.857
66560SOL    HW2 1578  13.187   0.804  11.786
66561SOL     OW 1579   2.882   3.062   6.342
66561SOL    HW1 1580   2.847   3.017   6.419
66561SOL    HW2 1581   2.957   3.110   6.374
66562SOL     OW 1582   9.502  11.538   8.703
66562SOL    HW1 1583   9.563  11.465   8.691
66562SOL    HW2 1584   9.455  11.516   8.783
66563SOL     OW 1585   1.704   8.336   8.722
66563SOL    HW1 1586   1.667   8.375   8.801
66563SOL    HW2 1587   1.638   8.272   8.694
66564SOL     OW 1588   7.242  13.431   1.185
66564SOL    HW1 1589   7.338  13.435   1.175
66564SOL    HW2 1590   7.227  13.450   1.277
66565SOL     OW 1591   5.926  11.593   0.248
66565SOL    HW1 1592   5.917  11.612   0.155
66565SOL    HW2 1593   6.004  11.642   0.275
66566SOL     OW 1594   5.466   4.158   6.217
66566SOL    HW1 1595   5.489   4.137   6.307
66566SOL    HW2 1596   5.543   4.205   6.183
66567SOL     OW 1597   6.491  13.898   9.642
66567SOL    HW1 1598   6.453  13.858   9.564
66567SOL    HW2 1599   6.485  13.831   9.709
66568SOL     OW 1600   3.779   6.179  11.527
66568SOL    HW1 1601   3.697   6.228  11.525
66568SOL    HW2 1602   3.768   6.110  11.462
66569SOL     OW 1603  11.524   0.602   6.562
66569SOL    HW1 1604  11.468   0.662   6.514
66569SOL    HW2 1605  11.593   0.657   6.599
66570SOL     OW 1606   4.017  11.176  11.384
66570SOL    HW1 1607   4.077  11.125  11.330
66570SOL    HW2 1608   3.978  11.240  11.323
66571SOL     OW 1609  12.188   9.518   4.894
66571SOL    HW1 1610  12.111   9.546   4.943
66571SOL    HW2 1611  12.226   9.600   4.861
66572SOL     OW 1612   5.937   8.696   3.874
66572SOL    HW1 1613   5.896   8.630   3.819
66572SOL    HW2 1614   5.864   8.742   3.915
66573SOL     OW 1615   7.840  10.578  10.541
66573SOL    HW1 1616   7.923  10.543  10.575
66573SOL    HW2 1617   7.806  10.509  10.484
66574SOL     OW 1618   8.804   8.060  11.594
66574SOL    HW1 1619   8.883   8.055  11.648
66574SOL    HW2 1620   8.836   8.083  11.507
66575SOL     OW 1621  14.647   4.239   2.882
66575SOL    HW1 1622  14.555   4.255   2.863
66575SOL    HW2 1623  14.695   4.283   2.812
66576SOL     OW 1624  11.846   7.204  11.737
66576SOL    HW1 1625  11.905   7.199  11.662
66576SOL    HW2 1626  11.790   7.280  11.719
66577SOL     OW 1627   7.916   6.314  12.643
66577SOL    HW1 1628   7.987   6.307  12.580
66577SOL    HW2 1629   7.890   6.224  12.661
66578SOL     OW 1630   0.710  11.168   4.731
66578SOL    HW1 1631   0.777  11.191   4.666
66578SOL    HW2 1632   0.636  11.225   4.710
66579SOL     OW 1633   6.863   5.822  10.584
66579SOL    HW1 1634   6.921   5.832  10.659
66579SOL    HW2 1635   6.804   5.897  10.590
66580SOL     OW 1636   4.596  13.161   0.631
66580SOL    HW1 1637   4.670  13.139   0.574
66580SOL    HW2 1638   4.611  13.252   0.655
66581SOL     OW 1639   4.675   8.179   8.295
66581SOL    HW1 1640   4.598   8.139   8.254
66581SOL    HW2 1641   4.731   8.202   8.221
66582SOL     OW 1642   1.987  11.674   4.871
66582SOL    HW1 1643   1.995  11.651   4.964
66582SOL    HW2 1644   1.924  11.612   4.836
66583SOL     OW 1645   1.789   2.012  14.358
66583SOL    HW1 1646   1.854   2.075  14.324
66583SOL    HW2 1647   1.828   1.926  14.342
66584SOL     OW 1648   0.681   7.032  10.201
66584SOL    HW1 1649   0.611   7.069  10.255
66584SOL    HW2 1650   0.761   7.054  10.248
66585SOL     OW 1651  11.881   0.501   8.560
66585SOL    HW1 1652  11.919   0.481   8.474
66585SOL    HW2 1653  11.825   0.426   8.580
66586SOL     OW 1654   2.540   5.746   6.609
66586SOL    HW1 1655   2.517   5.756   6.517
66586SOL    HW2 1656   2.626   5.705   6.608
66587SOL     OW 1657   2.884  13.748   7.072
66587SOL    HW1 1658   2.810  13.687   7.083
66587SOL    HW2 1659   2.856  13.828   7.116
66588SOL     OW 1660   2.599  12.242  11.231
66588SOL    HW1 1661   2.524  12.282  11.274
66588SOL    HW2 1662   2.646  12.197  11.301
66589SOL     OW 1663  12.928   1.572   3.437
66589SOL    HW1 1664  12.899   1.641   3.378
66589SOL    HW2 1665  12.989   1.520   3.385
66590SOL     OW 1666   3.751   4.195   2.584
66590SOL    HW1 1667   3.730   4.283   2.617
66590SOL    HW2 1668   3.667   4.151   2.578
66591SOL     OW 1669   0.831   6.019   0.032
66591SOL    HW1 1670   0.857   6.034   0.123
66591SOL    HW2 1671   0.899   6.061  14.860
66592SOL     OW 1672   9.158   4.817   6.423
66592SOL    HW1 1673   9.085   4.856   6.470
66592SOL    HW2 1674   9.205   4.892   6.385
66593SOL     OW 1675  11.815  13.200  10.674
66593SOL    HW1 1676  11.796  13.117  10.718
66593SOL    HW2 1677  11.804  13.180  10.581
66594SOL     OW 1678   3.709  13.110   0.087
66594SOL    HW1 1679   3.636  13.167   0.114
66594SOL    HW2 1680   3.786  13.166   0.093
66595SOL     OW 1681   8.218  11.244  14.377
66595SOL    HW1 1682   8.262  11.311  14.325
66595SOL    HW2 1683   8.141  11.220  14.326
66596SOL     OW 1684   6.314  14.561   4.264
66596SOL    HW1 1685   6.330  14.599   4.177
66596SOL    HW2 1686   6.387  14.591   4.317
66597SOL     OW 1687  11.879   2.344   5.400
66597SOL    HW1 1688  11.971   2.366   5.391
66597SOL    HW2 1689  11.846   2.403   5.468
66598SOL     OW 1690  14.552  13.820   4.968
66598SOL    HW1 1691  14.568  13.753   4.901
66598SOL    HW2 1692  14.502  13.775   5.036
66599SOL     OW 1693  11.392   0.684   5.064
66599SOL    HW1 1694  11.311   0.682   5.014
66599SOL    HW2 1695  11.366   0.658   5.153
66600SOL     OW 1696  13.709   7.157   9.141
66600SOL    HW1 1697  13.655   7.219   9.190
66600SOL    HW2 1698  13.749   7.102   9.207
66601SOL     OW 1699   3.361   8.041  11.241
66601SOL    HW1 1700   3.337   7.948  11.234
66601SOL    HW2 1701   3.344   8.076  11.154
66602SOL     OW 1702   0.453  13.531   5.201
66602SOL    HW1 1703   0.472  13.602   5.262
66602SOL    HW2 1704   0.536  13.518   5.154
66603SOL     OW 1705  11.392   1.039   8.515
66603SOL    HW1 1706  11.465   1.100   8.503
66603SOL    HW2 1707  11.322   1.074   8.460
66604SOL     OW 1708  10.598   1.995  14.510
66604SOL    HW1 1709  10.521   2.052  14.510
66604SOL    HW2 1710  10.672   2.053  14.528
66605SOL     OW 1711  12.935   7.479   1.910
66605SOL    HW1 1712  12.864   7.470   1.847
66605SOL    HW2 1713  13.000   7.414   1.883
66606SOL     OW 1714   4.694  11.298   4.869
66606SOL    HW1 1715   4.773  11.305   4.816
66606SOL    HW2 1716   4.632  11.358   4.828
66607SOL     OW 1717  13.961   3.154   1.651
66607SOL    HW1 1718  14.000   3.068   1.664
66607SOL    HW2 1719  13.872   3.135   1.620
66608SOL     OW 1720   0.122   2.338  13.539
66608SOL    HW1 1721   0.100   2.424  13.576
66608SOL    HW2 1722   0.075   2.276  13.595
66609SOL     OW 1723   1.926   3.909  11.646
66609SOL    HW1 1724   1.990   3.937  11.712
66609SOL    HW2 1725   1.972   3.842  11.595
66610SOL     OW 1726  10.881  13.068  14.012
66610SOL    HW1 1727  10.903  13.007  14.082
66610SOL    HW2 1728  10.906  13.154  14.046
66611SOL     OW 1729  13.561   6.069  11.399
66611SOL    HW1 1730  13.592   6.159  11.396
66611SOL    HW2 1731  13.573   6.042  11.490
66612SOL     OW 1732   8.940   4.587  10.362
66612SOL    HW1 1733   8.872   4.562  10.300
66612SOL    HW2 1734   8.894   4.595  10.446
66613SOL     OW 1735   3.175   4.587   8.545
66613SOL    HW1 1736   3.230   4.664   8.529
66613SOL    HW2 1737   3.187   4.568   8.638
66614SOL     OW 1738   4.644  14.182   8.931
66614SOL    HW1 1739   4.570  14.240   8.913
66614SOL    HW2 1740   4.658  14.135   8.848
66615SOL     OW 1741   1.245  13.274   8.631
66615SOL    HW1 1742   1.210  13.345   8.685
66615SOL    HW2 1743   1.298  13.222   8.691
66616SOL     OW 1744   6.061   1.667  13.087
66616SOL    HW1 1745   6.121   1.739  13.073
66616SOL    HW2 1746   6.064   1.651  13.181
66617SOL     OW 1747   1.111   9.922  13.628
66617SOL    HW1 1748   1.081   9.927  13.537
66617SOL    HW2 1749   1.147  10.008  13.646
66618SOL     OW 1750   0.816  11.406   4.392
66618SOL    HW1 1751   0.836  11.332   4.449
66618SOL    HW2 1752   0.816  11.370   4.304
66619SOL     OW 1753  13.123  10.701   4.488
66619SOL    HW1 1754  13.208  10.697   4.445
66619SOL    HW2 1755  13.127  10.631   4.554
66620SOL     OW 1756  13.150  13.739   6.771
66620SOL    HW1 1757  13.062  13.774   6.780
66620SOL    HW2 1758  13.140  13.665   6.711
66621SOL     OW 1759   5.874   8.888   6.324
66621SOL    HW1 1760   5.935   8.894   6.250
66621SOL    HW2 1761   5.788   8.906   6.286
66622SOL     OW 1762   8.492   4.282  12.381
66622SOL    HW1 1763   8.547   4.205  12.368
66622SOL    HW2 1764   8.462   4.274  12.472
66623SOL     OW 1765   9.731  11.786   3.819
66623SOL    HW1 1766   9.710  11.869   3.861
66623SOL    HW2 1767   9.767  11.811   3.734
66624SOL     OW 1768   9.573   4.729  10.451
66624SOL    HW1 1769   9.590   4.684  10.535
66624SOL    HW2 1770   9.652   4.780  10.435
66625SOL     OW 1771   9.073   6.473   1.136
66625SOL    HW1 1772   9.094   6.410   1.206
66625SOL    HW2 1773   9.147   6.466   1.075
66626SOL     OW 1774   8.283   5.847   3.992
66626SOL    HW1 1775   8.359   5.901   4.015
66626SOL    HW2 1776   8.208   5.907   4.001
66627SOL     OW 1777   0.087  14.052  11.803
66627SOL    HW1 1778   0.141  13.976  11.824
66627SOL    HW2 1779   0.150  14.118  11.771
66628SOL     OW 1780  10.664   3.290   6.767
66628SOL    HW1 1781  10.738   3.263   6.712
66628SOL    HW2 1782  10.689   3.376   6.800
66629SOL     OW 1783   7.525   8.133   6.473
66629SOL    HW1 1784   7.544   8.130   6.566
66629SOL    HW2 1785   7.456   8.198   6.464
66630SOL     OW 1786  10.601  13.932   6.009
66630SOL    HW1 1787  10.558  13.911   5.926
66630SOL    HW2 1788  10.651  13.853   6.031
66631SOL     OW 1789   6.457   6.342  14.765
66631SOL    HW1 1790   6.507   6.327  14.685
66631SOL    HW2 1791   6.515   6.395  14.820
66632SOL     OW 1792  14.457  13.718   0.554
66632SOL    HW1 1793  14.394  13.666   0.605
66632SOL    HW2 1794  14.541  13.700   0.594
66633SOL     OW 1795  12.251   4.520  11.581
66633SOL    HW1 1796  12.188   4.561  11.640
66633SOL    HW2 1797  12.202   4.501  11.501
66634SOL     OW 1798   1.475  13.583  14.477
66634SOL    HW1 1799   1.392  13.547  14.509
66634SOL    HW2 1800   1.509  13.635  14.551
66635SOL     OW 1801  11.614  10.821  14.300
66635SOL    HW1 1802  11.681  10.869  14.348
66635SOL    HW2 1803  11.652  10.734  14.287
66636SOL     OW 1804   5.829   5.836  14.783
66636SOL    HW1 1805   5.769   5.805  14.714
66636SOL    HW2 1806   5.844   5.759  14.837
66637SOL     OW 1807   2.789   6.280   9.902
66637SOL    HW1 1808   2.806   6.327   9.820
66637SOL    HW2 1809   2.827   6.336   9.970
66638SOL     OW 1810   8.173   4.771   6.054
66638SOL    HW1 1811   8.240   4.813   6.107
66638SOL    HW2 1812   8.090   4.806   6.087
66639SOL     OW 1813   5.118   3.503  10.630
66639SOL    HW1 1814   5.184   3.566  10.657
66639SOL    HW2 1815   5.166   3.437  10.580
66640SOL     OW 1816  10.046   5.462   8.546
66640SOL    HW1 1817   9.989   5.514   8.490
66640SOL    HW2 1818  10.104   5.526   8.588
66641SOL     OW 1819   6.059  13.554   0.967
66641SOL    HW1 1820   6.013  13.564   1.050
66641SOL    HW2 1821   6.080  13.644   0.940
66642SOL     OW 1822  10.487   8.289   8.891
66642SOL    HW1 1823  10.441   8.303   8.974
66642SOL    HW2 1824  10.533   8.206   8.903
66643SOL     OW 1825  10.283   6.530   2.799
66643SOL    HW1 1826  10.239   6.615   2.797
66643SOL    HW2 1827  10.221   6.471   2.757
66644SOL     OW 1828  13.610   3.524   1.015
66644SOL    HW1 1829  13.520   3.557   1.008
66644SOL    HW2 1830  13.665   3.598   0.990
66645SOL     OW 1831  14.764   2.165  12.293
66645SOL    HW1 1832  14.697   2.139  12.356
66645SOL    HW2 1833  14.840   2.110  12.314
66646SOL     OW 1834   8.924   9.168   8.638
66646SOL    HW1 1835   8.946   9.211   8.721
66646SOL    HW2 1836   9.000   9.183   8.583
66647SOL     OW 1837  12.118   2.122  10.567
66647SOL    HW1 1838  12.145   2.212  10.587
66647SOL    HW2 1839  12.176   2.095  10.496
66648SOL     OW 1840  11.814   4.837  12.631
66648SOL    HW1 1841  11.784   4.783  12.558
66648SOL    HW2 1842  11.854   4.775  12.692
66649SOL     OW 1843   8.575   6.625  10.795
66649SOL    HW1 1844   8.645   6.564  10.774
66649SOL    HW2 1845   8.591   6.701  10.739
66650SOL     OW 1846  12.645   1.172   9.316
66650SOL    HW1 1847  12.589   1.118   9.259
66650SOL    HW2 1848  12.583   1.223   9.368
66651SOL     OW 1849  11.811   0.875  13.052
66651SOL    HW1 1850  11.768   0.903  12.971
66651SOL    HW2 1851  11.825   0.781  13.041
66652SOL     OW 1852  14.420   1.482  11.410
66652SOL    HW1 1853  14.439   1.489  11.316
66652SOL    HW2 1854  14.485   1.419  11.442
66653SOL     OW 1855   5.446  12.393   6.064
66653SOL    HW1 1856   5.360  12.363   6.093
66653SOL    HW2 1857   5.498  12.397   6.144
66654SOL     OW 1858  13.055   7.593  13.084
66654SOL    HW1 1859  13.031   7.525  13.146
66654SOL    HW2 1860  13.066   7.548  13.000
66655SOL     OW 1861   9.805  10.782  11.439
66655SOL    HW1 1862   9.723  10.812  11.479
66655SOL    HW2 1863   9.785  10.775  11.346
66656SOL     OW 1864   1.278  10.032   4.633
66656SOL    HW1 1865   1.246   9.958   4.581
66656SOL    HW2 1866   1.372  10.016   4.642
66657SOL     OW 1867  11.460  12.581  14.017
66657SOL    HW1 1868  11.503  12.517  13.959
66657SOL    HW2 1869  11.375  12.596  13.977
66658SOL     OW 1870   0.061   5.636   5.057
66658SOL    HW1 1871   0.003   5.603   5.126
66658SOL    HW2 1872   0.101   5.714   5.094
66659SOL     OW 1873  10.410   9.157   3.884
66659SOL    HW1 1874  10.327   9.200   3.899
66659SOL    HW2 1875  10.457   9.167   3.967
66660SOL     OW 1876   0.550   6.057   2.232
66660SOL    HW1 1877   0.556   5.987   2.297
66660SOL    HW2 1878   0.595   6.131   2.272
66661SOL     OW 1879   3.880   0.714  11.011
66661SOL    HW1 1880   3.854   0.705  11.103
66661SOL    HW2 1881   3.957   0.771  11.014
66662SOL     OW 1882  12.692   0.190   3.006
66662SOL    HW1 1883  12.772   0.142   3.029
66662SOL    HW2 1884  12.626   0.156   3.066
66663SOL     OW 1885   1.678   6.332   5.996
66663SOL    HW1 1886   1.583   6.322   5.999
66663SOL    HW2 1887   1.706   6.274   5.925
66664SOL     OW 1888  13.505  14.328   0.058
66664SOL    HW1 1889  13.464  14.258   0.109
66664SOL    HW2 1890  13.453  14.406   0.079
66665SOL     OW 1891   3.583  12.130   4.664
66665SOL    HW1 1892   3.649  12.062   4.658
66665SOL    HW2 1893   3.564  12.154   4.573
66666SOL     OW 1894   5.650  11.039  13.782
66666SOL    HW1 1895   5.590  10.968  13.760
66666SOL    HW2 1896   5.687  11.065  13.698
66667SOL     OW 1897   6.911   2.234   4.338
66667SOL    HW1 1898   6.825   2.200   4.315
66667SOL    HW2 1899   6.919   2.218   4.432
66668SOL     OW 1900  12.908   1.150   9.125
66668SOL    HW1 1901  12.812   1.157   9.131
66668SOL    HW2 1902  12.926   1.057   9.140
66669SOL     OW 1903   2.203   8.892   2.387
66669SOL    HW1 1904   2.125   8.942   2.411
66669SOL    HW2 1905   2.266   8.958   2.357
66670SOL     OW 1906  12.498   3.663   9.266
66670SOL    HW1 1907  12.434   3.599   9.297
66670SOL    HW2 1908  12.489   3.736   9.327
66671SOL     OW 1909   3.898  12.272  10.437
66671SOL    HW1 1910   3.965  12.268  10.368
66671SOL    HW2 1911   3.831  12.331  10.402
66672SOL     OW 1912  12.906   0.730  11.787
66672SOL    HW1 1913  12.853   0.808  11.801
66672SOL    HW2 1914  12.894   0.710  11.694
66673SOL     OW 1915   3.963   3.356   4.640
66673SOL    HW1 1916   3.902   3.306   4.695
66673SOL    HW2 1917   4.049   3.321   4.663
66674SOL     OW 1918   8.819   0.208   3.763
66674SOL    HW1 1919   8.890   0.179   3.821
66674SOL    HW2 1920   8.739   0.194   3.814
66675SOL     OW 1921   4.715   8.879  14.705
66675SOL    HW1 1922   4.727   8.793  14.665
66675SOL    HW2 1923   4.638   8.915  14.661
66676SOL     OW 1924   8.158   4.439   3.086
66676SOL    HW1 1925   8.140   4.460   3.178
66676SOL    HW2 1926   8.250   4.461   3.074
66677SOL     OW 1927   3.620   3.860  10.742
66677SOL    HW1 1928   3.587   3.933  10.689
66677SOL    HW2 1929   3.707   3.888  10.770
66678SOL     OW 1930   6.661   7.678  11.801
66678SOL    HW1 1931   6.749   7.678  11.837
66678SOL    HW2 1932   6.621   7.598  11.835
66679SOL     OW 1933   1.166   1.053   5.154
66679SOL    HW1 1934   1.175   0.973   5.102
66679SOL    HW2 1935   1.073   1.056   5.178
66680SOL     OW 1936  10.894  11.692   3.059
66680SOL    HW1 1937  10.900  11.599   3.082
66680SOL    HW2 1938  10.971  11.707   3.003
66681SOL     OW 1939   5.233  11.667   1.059
66681SOL    HW1 1940   5.277  11.618   0.989
66681SOL    HW2 1941   5.288  11.654   1.136
66682SOL     OW 1942   2.498   7.545   0.340
66682SOL    HW1 1943   2.449   7.613   0.293
66682SOL    HW2 1944   2.577   7.534   0.288
66683SOL     OW 1945   1.924  12.904   6.316
66683SOL    HW1 1946   1.943  12.998   6.318
66683SOL    HW2 1947   1.881  12.891   6.231
66684SOL     OW 1948  13.701  10.901   8.097
66684SOL    HW1 1949  13.775  10.888   8.037
66684SOL    HW2 1950  13.644  10.826   8.080
66685SOL     OW 1951   9.527   0.198  13.369
66685SOL    HW1 1952   9.550   0.107  13.389
66685SOL    HW2 1953   9.531   0.242  13.454
66686SOL     OW 1954  11.769   8.649  10.332
66686SOL    HW1 1955  11.845   8.688  10.374
66686SOL    HW2 1956  11.790   8.651  10.239
66687SOL     OW 1957   0.424   0.776   5.093
66687SOL    HW1 1958   0.398   0.746   5.180
66687SOL    HW2 1959   0.341   0.781   5.044
66688SOL     OW 1960   1.379  12.467  11.754
66688SOL    HW1 1961   1.330  12.480  11.673
66688SOL    HW2 1962   1.453  12.527  11.746
66689SOL     OW 1963   2.300  10.624   1.660
66689SOL    HW1 1964   2.314  10.663   1.573
66689SOL    HW2 1965   2.388  10.616   1.697
66690SOL     OW 1966   8.161  14.752  11.999
66690SOL    HW1 1967   8.127  14.680  12.051
66690SOL    HW2 1968   8.255  14.754  12.020
66691SOL     OW 1969   4.701   1.356   7.421
66691SOL    HW1 1970   4.658   1.420   7.364
66691SOL    HW2 1971   4.685   1.272   7.379
66692SOL     OW 1972  10.832  12.873   8.177
66692SOL    HW1 1973  10.800  12.791   8.138
66692SOL    HW2 1974  10.775  12.887   8.253
66693SOL     OW 1975  10.546   5.696   0.168
66693SOL    HW1 1976  10.525   5.687   0.075
66693SOL    HW2 1977  10.513   5.616   0.208
66694SOL     OW 1978   2.552   1.979  13.773
66694SOL    HW1 1979   2.479   2.006  13.829
66694SOL    HW2 1980   2.626   2.031  13.804
66695SOL     OW 1981   1.616   2.800   3.546
66695SOL    HW1 1982   1.547   2.783   3.610
66695SOL    HW2 1983   1.656   2.715   3.530
66696SOL     OW 1984  14.607   2.381  10.200
66696SOL    HW1 1985  14.554   2.391  10.121
66696SOL    HW2 1986  14.547   2.402  10.272
66697SOL     OW 1987  11.764   6.341   2.270
66697SOL    HW1 1988  11.767   6.246   2.260
66697SOL    HW2 1989  11.851   6.370   2.242
66698SOL     OW 1990   6.187   9.401  14.160
66698SOL    HW1 1991   6.188   9.306  14.149
66698SOL    HW2 1992   6.269   9.431  14.121
66699SOL     OW 1993   4.577   9.514  11.181
66699SOL    HW1 1994   4.612   9.581  11.239
66699SOL    HW2 1995   4.596   9.431  11.225
66700SOL     OW 1996   2.159  10.674   7.103
66700SOL    HW1 1997   2.116  10.678   7.017
66700SOL    HW2 1998   2.248  10.707   7.086
66701SOL     OW 1999   8.913  12.060  14.788
66701SOL    HW1 2000   8.857  12.030  14.859
66701SOL    HW2 2001   8.900  12.155  14.785
66702SOL     OW 2002   4.446   1.545   6.915
66702SOL    HW1 2003   4.371   1.603   6.903
66702SOL    HW2 2004   4.522   1.599   6.893
66703SOL     OW 2005   6.700  11.857  11.020
66703SOL    HW1 2006   6.663  11.794  11.082
66703SOL    HW2 2007   6.624  11.900  10.981
66704SOL     OW 2008   2.093   5.188   3.550
66704SOL    HW1 2009   2.033   5.260   3.571
66704SOL    HW2 2010   2.104   5.141   3.633
66705SOL     OW 2011   0.260  11.524  12.050
66705SOL    HW1 2012   0.222  11.479  11.975
66705SOL    HW2 2013   0.316  11.592  12.012
66706SOL     OW 2014   3.679   7.919   0.434
66706SOL    HW1 2015   3.715   7.831   0.426
66706SOL    HW2 2016   3.624   7.930   0.356
66707SOL     OW 2017  12.815  14.847   8.695
66707SOL    HW1 2018  12.774  14.760   8.697
66707SOL    HW2 2019  12.890  14.837   8.637
66708SOL     OW 2020   6.547   1.917   8.087
66708SOL    HW1 2021   6.543   2.011   8.106
66708SOL    HW2 2022   6.628   1.888   8.128
66709SOL     OW 2023  11.044   8.236   6.113
66709SOL    HW1 2024  11.126   8.186   6.109
66709SOL    HW2 2025  10.994   8.194   6.183
66710SOL     OW 2026   2.842   4.369   7.618
66710SOL    HW1 2027   2.756   4.383   7.578
66710SOL    HW2 2028   2.824   4.317   7.696
66711SOL     OW 2029   1.155   6.152  10.514
66711SOL    HW1 2030   1.159   6.081  10.577
66711SOL    HW2 2031   1.207   6.121  10.439
66712SOL     OW 2032  11.212   5.874   5.670
66712SOL    HW1 2033  11.277   5.943   5.686
66712SOL    HW2 2034  11.192   5.883   5.577
66713SOL     OW 2035   6.126   9.561  13.089
66713SOL    HW1 2036   6.184   9.560  13.165
66713SOL    HW2 2037   6.104   9.653  13.077
66714SOL     OW 2038  13.485  14.419  14.046
66714SOL    HW1 2039  13.459  14.506  14.076
66714SOL    HW2 2040  13.479  14.363  14.123
66715SOL     OW 2041  11.234   7.555   6.384
66715SOL    HW1 2042  11.241   7.474   6.436
66715SOL    HW2 2043  11.229   7.524   6.294
66716SOL     OW 2044   8.579   4.110   5.959
66716SOL    HW1 2045   8.539   4.062   5.886
66716SOL    HW2 2046   8.504   4.142   6.010
66717SOL     OW 2047   8.922   1.032   2.835
66717SOL    HW1 2048   9.008   1.043   2.876
66717SOL    HW2 2049   8.910   1.111   2.782
66718SOL     OW 2050  10.411   5.516   1.458
66718SOL    HW1 2051  10.342   5.581   1.443
66718SOL    HW2 2052  10.460   5.551   1.532
66719SOL     OW 2053   6.155   5.073   0.672
66719SOL    HW1 2054   6.236   5.108   0.709
66719SOL    HW2 2055   6.127   5.139   0.609
66720SOL     OW 2056   9.216   4.369   9.065
66720SOL    HW1 2057   9.300   4.351   9.023
66720SOL    HW2 2058   9.175   4.283   9.075
66721SOL     OW 2059   5.095  13.444  10.076
66721SOL    HW1 2060   5.078  13.398   9.994
66721SOL    HW2 2061   5.183  13.415  10.102
66722SOL     OW 2062   4.172   1.147   3.980
66722SOL    HW1 2063   4.205   1.133   4.069
66722SOL    HW2 2064   4.078   1.165   3.992
66723SOL     OW 2065   9.991   2.355   9.098
66723SOL    HW1 2066   9.985   2.417   9.171
66723SOL    HW2 2067  10.084   2.344   9.083
66724SOL     OW 2068   0.214   4.752   1.175
66724SOL    HW1 2069   0.263   4.750   1.258
66724SOL    HW2 2070   0.201   4.845   1.158
66725SOL     OW 2071  11.604   6.921   6.634
66725SOL    HW1 2072  11.559   6.841   6.610
66725SOL    HW2 2073  11.598   6.977   6.556
66726SOL     OW 2074  11.233  14.095   2.794
66726SOL    HW1 2075  11.153  14.056   2.758
66726SOL    HW2 2076  11.258  14.161   2.730
66727SOL     OW 2077  11.011  13.475   8.202
66727SOL    HW1 2078  11.011  13.457   8.108
66727SOL    HW2 2079  10.998  13.569   8.209
66728SOL     OW 2080   8.588  12.446   2.005
66728SOL    HW1 2081   8.536  12.451   2.086
66728SOL    HW2 2082   8.531  12.400   1.943
66729SOL     OW 2083  13.648   5.977  13.931
66729SOL    HW1 2084  13.563   6.003  13.896
66729SOL    HW2 2085  13.685   5.920  13.864
66730SOL     OW 2086   5.814  11.036   4.377
66730SOL    HW1 2087   5.833  11.026   4.284
66730SOL    HW2 2088   5.814  11.131   4.391
66731SOL     OW 2089   3.571   7.813  14.155
66731SOL    HW1 2090   3.556   7.803  14.249
66731SOL    HW2 2091   3.643   7.876  14.149
66732SOL     OW 2092   3.273   1.137  13.042
66732SOL    HW1 2093   3.296   1.221  13.081
66732SOL    HW2 2094   3.249   1.159  12.952
66733SOL     OW 2095  13.753  12.479   3.021
66733SOL    HW1 2096  13.674  12.533   3.016
66733SOL    HW2 2097  13.740  12.424   3.098
66734SOL     OW 2098  10.643  13.132   5.929
66734SOL    HW1 2099  10.707  13.204   5.929
66734SOL    HW2 2100  10.659  13.086   6.012
66735SOL     OW 2101  11.037   6.663   5.671
66735SOL    HW1 2102  11.035   6.718   5.749
66735SOL    HW2 2103  11.130   6.642   5.659
66736SOL     OW 2104   8.540   5.558   6.085
66736SOL    HW1 2105   8.607   5.514   6.033
66736SOL    HW2 2106   8.461   5.554   6.031
66737SOL     OW 2107  13.008  13.104   9.062
66737SOL    HW1 2108  13.025  13.077   8.972
66737SOL    HW2 2109  13.024  13.026   9.114
66738SOL     OW 2110   2.814   5.364  10.035
66738SOL    HW1 2111   2.817   5.434  10.100
66738SOL    HW2 2112   2.868   5.294  10.073
66739SOL     OW 2113  10.305  14.447   2.328
66739SOL    HW1 2114  10.361  14.525   2.325
66739SOL    HW2 2115  10.296  14.428   2.422
66740SOL     OW 2116   2.659   9.919   3.428
66740SOL    HW1 2117   2.615   9.880   3.503
66740SOL    HW2 2118   2.737   9.961   3.464
66741SOL     OW 2119   7.300   9.509   7.972
66741SOL    HW1 2120   7.324   9.452   8.046
66741SOL    HW2 2121   7.340   9.593   7.994
66742SOL     OW 2122   1.985   7.762  12.264
66742SOL    HW1 2123   1.980   7.699  12.336
66742SOL    HW2 2124   2.070   7.805  12.277
66743SOL     OW 2125  11.639   2.867  12.726
66743SOL    HW1 2126  11.628   2.929  12.798
66743SOL    HW2 2127  11.732   2.847  12.725
66744SOL     OW 2128  14.577   5.540  14.307
66744SOL    HW1 2129  14.646   5.588  14.260
66744SOL    HW2 2130  14.556   5.466  14.249
66745SOL     OW 2131   2.930  10.130  13.574
66745SOL    HW1 2132   3.001  10.189  13.552
66745SOL    HW2 2133   2.915  10.143  13.668
66746SOL     OW 2134  11.485  14.210  12.574
66746SOL    HW1 2135  11.451  14.293  12.539
66746SOL    HW2 2136  11.541  14.176  12.504
66747SOL     OW 2137   3.522  12.605  12.174
66747SOL    HW1 2138   3.596  12.596  12.114
66747SOL    HW2 2139   3.453  12.551  12.136
66748SOL     OW 2140  12.571  10.375   8.277
66748SOL    HW1 2141  12.522  10.378   8.359
66748SOL    HW2 2142  12.642  10.438   8.289
66749SOL     OW 2143   0.173   4.061  12.596
66749SOL    HW1 2144   0.240   4.129  12.604
66749SOL    HW2 2145   0.158   4.054  12.502
66750SOL     OW 2146  11.582  14.539   2.329
66750SOL    HW1 2147  11.640  14.592   2.274
66750SOL    HW2 2148  11.611  14.448   2.315
66751SOL     OW 2149   0.405   0.616   5.976
66751SOL    HW1 2150   0.500   0.627   5.988
66751SOL    HW2 2151   0.386   0.666   5.897
66752SOL     OW 2152   3.139   0.531   7.536
66752SOL    HW1 2153   3.056   0.577   7.521
66752SOL    HW2 2154   3.141   0.463   7.469
66753SOL     OW 2155   0.698   0.613   5.960
66753SOL    HW1 2156   0.736   0.681   6.016
66753SOL    HW2 2157   0.745   0.533   5.985
66754SOL     OW 2158  11.274   4.095   2.080
66754SOL    HW1 2159  11.281   4.190   2.089
66754SOL    HW2 2160  11.254   4.064   2.168
66755SOL     OW 2161  11.762  11.853   9.142
66755SOL    HW1 2162  11.827  11.906   9.188
66755SOL    HW2 2163  11.791  11.854   9.051
66756SOL     OW 2164   8.851   3.171   4.454
66756SOL    HW1 2165   8.917   3.141   4.517
66756SOL    HW2 2166   8.781   3.208   4.509
66757SOL     OW 2167  10.301  12.383   0.130
66757SOL    HW1 2168  10.361  12.311   0.153
66757SOL    HW2 2169  10.241  12.388   0.205
66758SOL     OW 2170   0.581  13.858   6.022
66758SOL    HW1 2171   0.524  13.814   6.084
66758SOL    HW2 2172   0.653  13.892   6.076
66759SOL     OW 2173  12.279   9.029   0.250
66759SOL    HW1 2174  12.324   9.033   0.334
66759SOL    HW2 2175  12.343   8.986   0.192
66760SOL     OW 2176   4.396  10.127   8.090
66760SOL    HW1 2177   4.325  10.123   8.026
66760SOL    HW2 2178   4.473  10.095   8.042
66761SOL     OW 2179  13.190   1.773   9.913
66761SOL    HW1 2180  13.181   1.806   9.824
66761SOL    HW2 2181  13.241   1.840   9.959
66762SOL     OW 2182   7.919  12.581   0.292
66762SOL    HW1 2183   7.852  12.582   0.360
66762SOL    HW2 2184   7.918  12.491   0.258
66763SOL     OW 2185   2.163   7.438  13.733
66763SOL    HW1 2186   2.201   7.415  13.818
66763SOL    HW2 2187   2.229   7.413  13.669
66764SOL     OW 2188   9.452   9.258   2.646
66764SOL    HW1 2189   9.523   9.195   2.658
66764SOL    HW2 2190   9.429   9.287   2.734
66765SOL     OW 2191   7.942   0.652   3.340
66765SOL    HW1 2192   7.960   0.561   3.320
66765SOL    HW2 2193   8.026   0.696   3.330
66766SOL     OW 2194   7.779  10.818   5.420
66766SOL    HW1 2195   7.813  10.867   5.346
66766SOL    HW2 2196   7.685  10.808   5.402
66767SOL     OW 2197   7.286  13.276  13.487
66767SOL    HW1 2198   7.318  13.186  13.490
66767SOL    HW2 2199   7.211  13.278  13.545
66768SOL     OW 2200  13.590   1.657   3.825
66768SOL    HW1 2201  13.655   1.669   3.895
66768SOL    HW2 2202  13.506   1.658   3.871
66769SOL     OW 2203   4.080  13.671  14.089
66769SOL    HW1 2204   4.098  13.666  13.995
66769SOL    HW2 2205   4.001  13.724  14.095
66770SOL     OW 2206   2.124   4.101   1.038
66770SOL    HW1 2207   2.120   4.043   0.962
66770SOL    HW2 2208   2.139   4.188   1.002
66771SOL     OW 2209   8.526   1.988  10.251
66771SOL    HW1 2210   8.592   2.040  10.205
66771SOL    HW2 2211   8.518   2.029  10.337
66772SOL     OW 2212   8.705  10.414   1.858
66772SOL    HW1 2213   8.622  10.457   1.878
66772SOL    HW2 2214   8.729  10.447   1.771
66773SOL     OW 2215   8.293  13.278   3.397
66773SOL    HW1 2216   8.386  13.260   3.404
66773SOL    HW2 2217   8.288  13.369   3.367
66774SOL     OW 2218   5.847  11.023  13.984
66774SOL    HW1 2219   5.816  11.008  13.895
66774SOL    HW2 2220   5.786  11.087  14.021
66775SOL     OW 2221   1.354  13.611   7.823
66775SOL    HW1 2222   1.392  13.689   7.862
66775SOL    HW2 2223   1.392  13.607   7.735
66776SOL     OW 2224   5.369   0.539   8.827
66776SOL    HW1 2225   5.283   0.517   8.864
66776SOL    HW2 2226   5.408   0.455   8.803
66777SOL     OW 2227   6.349   4.002   0.177
66777SOL    HW1 2228   6.407   3.967   0.109
66777SOL    HW2 2229   6.276   4.041   0.128
66778SOL     OW 2230   9.988   4.527   3.375
66778SOL    HW1 2231  10.040   4.538   3.455
66778SOL    HW2 2232   9.925   4.459   3.397
66779SOL     OW 2233   2.967  11.229  13.648
66779SOL    HW1 2234   2.943  11.137  13.645
66779SOL    HW2 2235   3.048  11.231  13.699
66780SOL     OW 2236   4.333  11.190  12.281
66780SOL    HW1 2237   4.265  11.179  12.347
66780SOL    HW2 2238   4.394  11.118  12.297
66781SOL     OW 2239  10.980   2.061  12.234
66781SOL    HW1 2240  11.014   2.127  12.173
66781SOL    HW2 2241  10.885   2.066  12.223
66782SOL     OW 2242   4.121   3.013   3.628
66782SOL    HW1 2243   4.044   3.066   3.649
66782SOL    HW2 2244   4.121   2.943   3.693
66783SOL     OW 2245   8.462   8.962  14.394
66783SOL    HW1 2246   8.409   9.039  14.374
66783SOL    HW2 2247   8.547   8.981  14.354
66784SOL     OW 2248   4.281   6.698   5.893
66784SOL    HW1 2249   4.363   6.682   5.847
66784SOL    HW2 2250   4.236   6.764   5.840
66785SOL     OW 2251  10.897  13.656   8.442
66785SOL    HW1 2252  10.902  13.747   8.412
66785SOL    HW2 2253  10.945  13.657   8.526
66786SOL     OW 2254   5.765   7.544  11.809
66786SOL    HW1 2255   5.787   7.623  11.859
66786SOL    HW2 2256   5.691   7.570  11.755
66787SOL     OW 2257  12.809   0.650  14.842
66787SOL    HW1 2258  12.736   0.649  14.780
66787SOL    HW2 2259  12.843   0.560  14.840
66788SOL     OW 2260  13.648   2.049   8.166
66788SOL    HW1 2261  13.569   2.040   8.112
66788SOL    HW2 2262  13.717   2.006   8.115
66789SOL     OW 2263   5.594  11.594   3.530
66789SOL    HW1 2264   5.677  11.614   3.573
66789SOL    HW2 2265   5.618  11.541   3.454
66790SOL     OW 2266   1.908   3.194   8.854
66790SOL    HW1 2267   1.922   3.242   8.936
66790SOL    HW2 2268   1.848   3.123   8.878
66791SOL     OW 2269  13.895   5.053  10.572
66791SOL    HW1 2270  13.899   5.147  10.554
66791SOL    HW2 2271  13.985   5.030  10.596
66792SOL     OW 2272   9.734  12.540   7.015
66792SOL    HW1 2273   9.639  12.543   7.028
66792SOL    HW2 2274   9.746  12.557   6.921
66793SOL     OW 2275   6.361  11.231   3.659
66793SOL    HW1 2276   6.310  11.151   3.669
66793SOL    HW2 2277   6.346  11.280   3.740
66794SOL     OW 2278   6.651   3.458  14.068
66794SOL    HW1 2279   6.620   3.512  13.995
66794SOL    HW2 2280   6.638   3.512  14.145
66795SOL     OW 2281   6.357   1.852  12.434
66795SOL    HW1 2282   6.356   1.940  12.398
66795SOL    HW2 2283   6.344   1.864  12.528
66796SOL     OW 2284  13.792   7.615   6.757
66796SOL    HW1 2285  13.883   7.628   6.784
66796SOL    HW2 2286  13.746   7.692   6.790
66797SOL     OW 2287   7.036   3.447  12.458
66797SOL    HW1 2288   7.023   3.530  12.413
66797SOL    HW2 2289   6.953   3.401  12.447
66798SOL     OW 2290  12.813   8.579   6.462
66798SOL    HW1 2291  12.767   8.618   6.387
66798SOL    HW2 2292  12.906   8.586   6.439
66799SOL     OW 2293  14.286  14.385   8.161
66799SOL    HW1 2294  14.199  14.394   8.200
66799SOL    HW2 2295  14.274  14.324   8.089
66800SOL     OW 2296   2.944  14.873   4.688
66800SOL    HW1 2297   2.888  14.814   4.637
66800SOL    HW2 2298   3.026  14.877   4.638
66801SOL     OW 2299   4.267  13.702   7.040
66801SOL    HW1 2300   4.327  13.774   7.020
66801SOL    HW2 2301   4.318  13.641   7.093
66802SOL     OW 2302   7.020   0.426   4.568
66802SOL    HW1 2303   7.046   0.336   4.546
66802SOL    HW2 2304   6.976   0.458   4.490
66803SOL     OW 2305  11.523  10.535  14.296
66803SOL    HW1 2306  11.468  10.457  14.301
66803SOL    HW2 2307  11.579  10.530  14.374
66804SOL     OW 2308   2.771  14.333   9.705
66804SOL    HW1 2309   2.686  14.290   9.705
66804SOL    HW2 2310   2.826  14.278   9.760
66805SOL     OW 2311  14.004  12.039   4.041
66805SOL    HW1 2312  13.957  11.966   4.081
66805SOL    HW2 2313  14.035  12.004   3.957
66806SOL     OW 2314   1.080   8.582   1.717
66806SOL    HW1 2315   1.134   8.649   1.674
66806SOL    HW2 2316   1.029   8.631   1.782
66807SOL     OW 2317   4.681   0.121  10.625
66807SOL    HW1 2318   4.717   0.034  10.607
66807SOL    HW2 2319   4.752   0.181  10.605
66808SOL     OW 2320   1.452   5.191   1.221
66808SOL    HW1 2321   1.362   5.173   1.248
66808SOL    HW2 2322   1.464   5.141   1.140
66809SOL     OW 2323   8.845   3.243  13.659
66809SOL    HW1 2324   8.770   3.300  13.643
66809SOL    HW2 2325   8.831   3.209  13.747
66810SOL     OW 2326   9.439   3.053   6.427
66810SOL    HW1 2327   9.472   3.063   6.516
66810SOL    HW2 2328   9.469   2.965   6.401
66811SOL     OW 2329  12.211  11.024  10.853
66811SOL    HW1 2330  12.135  10.995  10.903
66811SOL    HW2 2331  12.283  10.971  10.885
66812SOL     OW 2332   3.890   9.355   7.459
66812SOL    HW1 2333   3.985   9.350   7.464
66812SOL    HW2 2334   3.870   9.449   7.465
66813SOL     OW 2335   9.789  10.965   8.725
66813SOL    HW1 2336   9.826  11.034   8.670
66813SOL    HW2 2337   9.730  10.917   8.668
66814SOL     OW 2338   6.032  12.226   3.566
66814SOL    HW1 2339   6.068  12.211   3.479
66814SOL    HW2 2340   5.979  12.306   3.556
66815SOL     OW 2341  11.688  13.624   8.234
66815SOL    HW1 2342  11.618  13.664   8.182
66815SOL    HW2 2343  11.726  13.558   8.177
66816SOL     OW 2344  14.069   4.454   3.908
66816SOL    HW1 2345  14.153   4.417   3.881
66816SOL    HW2 2346  14.010   4.379   3.912
66817SOL     OW 2347   1.705   9.337   7.449
66817SOL    HW1 2348   1.611   9.336   7.432
66817SOL    HW2 2349   1.712   9.368   7.540
66818SOL     OW 2350   8.871   1.932   6.196
66818SOL    HW1 2351   8.929   1.866   6.233
66818SOL    HW2 2352   8.858   1.905   6.105
66819SOL     OW 2353   8.320   5.544  14.027
66819SOL    HW1 2354   8.366   5.627  14.038
66819SOL    HW2 2355   8.309   5.535  13.932
66820SOL     OW 2356   7.343   4.821   0.798
66820SOL    HW1 2357   7.291   4.741   0.786
66820SOL    HW2 2358   7.278   4.892   0.799
66821SOL     OW 2359   6.712   0.338  12.739
66821SOL    HW1 2360   6.742   0.249  12.755
66821SOL    HW2 2361   6.762   0.367  12.662
66822SOL     OW 2362   3.520   8.823  12.443
66822SOL    HW1 2363   3.595   8.817  12.385
66822SOL    HW2 2364   3.468   8.895  12.408
66823SOL     OW 2365   2.306   1.420   7.765
66823SOL    HW1 2366   2.304   1.444   7.858
66823SOL    HW2 2367   2.298   1.324   7.766
66824SOL     OW 2368   5.418   3.829   9.130
66824SOL    HW1 2369   5.374   3.895   9.077
66824SOL    HW2 2370   5.426   3.869   9.217
66825SOL     OW 2371  11.765   8.050  11.296
66825SOL    HW1 2372  11.693   8.113  11.301
66825SOL    HW2 2373  11.802   8.048  11.384
66826SOL     OW 2374  11.066   9.030  14.863
66826SOL    HW1 2375  11.101   9.117   0.003
66826SOL    HW2 2376  11.001   9.045  14.795
66827SOL     OW 2377   1.199   5.585   2.129
66827SOL    HW1 2378   1.131   5.640   2.168
66827SOL    HW2 2379   1.201   5.507   2.184
66828SOL     OW 2380   0.235  13.936  13.919
66828SOL    HW1 2381   0.217  14.026  13.891
66828SOL    HW2 2382   0.216  13.936  14.013
66829SOL     OW 2383   7.082   7.211   2.830
66829SOL    HW1 2384   7.040   7.156   2.896
66829SOL    HW2 2385   7.134   7.274   2.881
66830SOL     OW 2386   6.643  14.168  12.499
66830SOL    HW1 2387   6.677  14.107  12.564
66830SOL    HW2 2388   6.549  14.153  12.498
66831SOL     OW 2389   7.340   2.789  10.400
66831SOL    HW1 2390   7.333   2.853  10.329
66831SOL    HW2 2391   7.422   2.811  10.444
66832SOL     OW 2392   3.937  11.876  13.590
66832SOL    HW1 2393   3.869  11.808  13.589
66832SOL    HW2 2394   3.894  11.953  13.554
66833SOL     OW 2395  11.008   7.142   3.438
66833SOL    HW1 2396  10.990   7.125   3.531
66833SOL    HW2 2397  10.973   7.066   3.393
66834SOL     OW 2398  10.117   3.310  11.026
66834SOL    HW1 2399  10.129   3.371  11.098
66834SOL    HW2 2400  10.196   3.256  11.026
66835SOL     OW 2401  12.106  13.866   7.487
66835SOL    HW1 2402  12.025  13.820   7.462
66835SOL    HW2 2403  12.076  13.933   7.548
66836SOL     OW 2404   8.716   2.918   6.609
66836SOL    HW1 2405   8.697   2.890   6.699
66836SOL    HW2 2406   8.663   2.860   6.554
66837SOL     OW 2407   5.015  13.215   3.581
66837SOL    HW1 2408   5.002  13.223   3.676
66837SOL    HW2 2409   5.109  13.222   3.569
66838SOL     OW 2410  13.297   6.646   6.588
66838SOL    HW1 2411  13.370   6.707   6.583
66838SOL    HW2 2412  13.257   6.662   6.674
66839SOL     OW 2413  13.129   8.367   2.470
66839SOL    HW1 2414  13.124   8.323   2.555
66839SOL    HW2 2415  13.045   8.412   2.462
66840SOL     OW 2416   8.769  10.134   0.750
66840SOL    HW1 2417   8.761  10.226   0.723
66840SOL    HW2 2418   8.863  10.119   0.754
66841SOL     OW 2419   6.449   9.949   1.896
66841SOL    HW1 2420   6.373   9.976   1.949
66841SOL    HW2 2421   6.479   9.868   1.939
66842SOL     OW 2422   0.428   4.082   4.160
66842SOL    HW1 2423   0.354   4.042   4.206
66842SOL    HW2 2424   0.389   4.154   4.111
66843SOL     OW 2425   6.014  13.991   2.922
66843SOL    HW1 2426   5.960  13.924   2.963
66843SOL    HW2 2427   6.011  14.065   2.982
66844SOL     OW 2428  11.091  12.574  13.136
66844SOL    HW1 2429  11.030  12.618  13.196
66844SOL    HW2 2430  11.123  12.498  13.186
66845SOL     OW 2431  12.098  10.518   3.330
66845SOL    HW1 2432  12.139  10.465   3.263
66845SOL    HW2 2433  12.161  10.518   3.403
66846SOL     OW 2434   4.785   8.422   8.010
66846SOL    HW1 2435   4.876   8.437   8.034
66846SOL    HW2 2436   4.767   8.331   8.034
66847SOL     OW 2437  11.127   0.904   7.177
66847SOL    HW1 2438  11.105   0.995   7.157
66847SOL    HW2 2439  11.084   0.853   7.108
66848SOL     OW 2440  14.328   2.919   4.820
66848SOL    HW1 2441  14.324   2.948   4.729
66848SOL    HW2 2442  14.421   2.907   4.837
66849SOL     OW 2443   8.710   7.259  13.027
66849SOL    HW1 2444   8.650   7.240  12.955
66849SOL    HW2 2445   8.657   7.251  13.106
66850SOL     OW 2446   7.852  13.072   3.706
66850SOL    HW1 2447   7.914  13.029   3.766
66850SOL    HW2 2448   7.856  13.164   3.731
66851SOL     OW 2449   5.439   1.017   9.920
66851SOL    HW1 2450   5.385   1.053   9.990
66851SOL    HW2 2451   5.485   1.093   9.884
66852SOL     OW 2452   8.175   6.773   1.895
66852SOL    HW1 2453   8.098   6.725   1.927
66852SOL    HW2 2454   8.179   6.851   1.950
66853SOL     OW 2455   4.168   0.974   9.657
66853SOL    HW1 2456   4.137   0.889   9.627
66853SOL    HW2 2457   4.109   1.037   9.615
66854SOL     OW 2458   2.794   1.277   1.475
66854SOL    HW1 2459   2.776   1.265   1.382
66854SOL    HW2 2460   2.716   1.319   1.510
66855SOL     OW 2461   6.865   6.619  13.577
66855SOL    HW1 2462   6.798   6.595  13.513
66855SOL    HW2 2463   6.906   6.535  13.602
66856SOL     OW 2464   0.976  10.456  12.365
66856SOL    HW1 2465   0.984  10.531  12.307
66856SOL    HW2 2466   1.037  10.391  12.328
66857SOL     OW 2467   3.167   7.950   6.053
66857SOL    HW1 2468   3.081   7.992   6.044
66857SOL    HW2 2469   3.228   8.023   6.067
66858SOL     OW 2470  13.482   2.861  10.606
66858SOL    HW1 2471  13.462   2.815  10.525
66858SOL    HW2 2472  13.446   2.949  10.593
66859SOL     OW 2473   3.425  12.256  12.457
66859SOL    HW1 2474   3.355  12.210  12.503
66859SOL    HW2 2475   3.499  12.195  12.460
66860SOL     OW 2476   2.847   7.677   7.270
66860SOL    HW1 2477   2.922   7.659   7.327
66860SOL    HW2 2478   2.783   7.611   7.294
66861SOL     OW 2479   4.942   7.680   3.037
66861SOL    HW1 2480   4.996   7.687   3.116
66861SOL    HW2 2481   4.954   7.764   2.993
66862SOL     OW 2482   1.231  11.155  12.783
66862SOL    HW1 2483   1.222  11.113  12.698
66862SOL    HW2 2484   1.149  11.204  12.794
66863SOL     OW 2485   4.380   3.425   4.688
66863SOL    HW1 2486   4.342   3.440   4.602
66863SOL    HW2 2487   4.334   3.348   4.722
66864SOL     OW 2488   7.886  11.575   3.608
66864SOL    HW1 2489   7.924  11.605   3.525
66864SOL    HW2 2490   7.812  11.633   3.623
66865SOL     OW 2491   8.486   0.704   1.153
66865SOL    HW1 2492   8.559   0.643   1.164
66865SOL    HW2 2493   8.511   0.758   1.079
66866SOL     OW 2494   0.169   9.188  11.747
66866SOL    HW1 2495   0.108   9.189  11.821
66866SOL    HW2 2496   0.221   9.268  11.758
66867SOL     OW 2497   3.277   1.448   6.062
66867SOL    HW1 2498   3.271   1.519   5.998
66867SOL    HW2 2499   3.187   1.423   6.078
66868SOL     OW 2500   4.006  11.978  11.150
66868SOL    HW1 2501   3.918  11.957  11.181
66868SOL    HW2 2502   4.024  12.066  11.184
66869SOL     OW 2503   4.152   6.508  14.079
66869SOL    HW1 2504   4.156   6.522  14.173
66869SOL    HW2 2505   4.059   6.497  14.060
66870SOL     OW 2506  11.554  12.628   6.193
66870SOL    HW1 2507  11.645  12.646   6.218
66870SOL    HW2 2508  11.507  12.709   6.213
66871SOL     OW 2509  13.073  13.863  12.208
66871SOL    HW1 2510  13.015  13.885  12.136
66871SOL    HW2 2511  13.015  13.839  12.280
66872SOL     OW 2512   8.002   3.504   9.826
66872SOL    HW1 2513   8.071   3.478   9.766
66872SOL    HW2 2514   7.921   3.491   9.777
66873SOL     OW 2515  13.122  10.858   0.934
66873SOL    HW1 2516  13.214  10.851   0.959
66873SOL    HW2 2517  13.116  10.940   0.886
66874SOL     OW 2518   8.893  14.542   1.133
66874SOL    HW1 2519   8.927  14.513   1.048
66874SOL    HW2 2520   8.916  14.472   1.193
66875SOL     OW 2521   9.529  14.273   0.826
66875SOL    HW1 2522   9.467  14.215   0.782
66875SOL    HW2 2523   9.563  14.328   0.756
66876SOL     OW 2524   4.840   4.944   6.605
66876SOL    HW1 2525   4.847   4.986   6.519
66876SOL    HW2 2526   4.747   4.922   6.612
66877SOL     OW 2527   9.186   6.853   4.086
66877SOL    HW1 2528   9.119   6.823   4.025
66877SOL    HW2 2529   9.209   6.775   4.138
66878SOL     OW 2530   7.862   2.527   1.156
66878SOL    HW1 2531   7.808   2.607   1.152
66878SOL    HW2 2532   7.799   2.457   1.171
66879SOL     OW 2533   7.902   7.666   3.042
66879SOL    HW1 2534   7.811   7.694   3.042
66879SOL    HW2 2535   7.922   7.646   3.133
66880SOL     OW 2536  12.037   8.010   1.334
66880SOL    HW1 2537  12.056   8.081   1.395
66880SOL    HW2 2538  12.117   7.958   1.332
66881SOL     OW 2539   6.123  13.959  12.412
66881SOL    HW1 2540   6.202  13.932  12.459
66881SOL    HW2 2541   6.098  13.883  12.360
66882SOL     OW 2542   4.255  13.278  11.843
66882SOL    HW1 2543   4.265  13.240  11.757
66882SOL    HW2 2544   4.343  13.277  11.881
66883SOL     OW 2545  10.472   3.260   4.075
66883SOL    HW1 2546  10.514   3.247   3.990
66883SOL    HW2 2547  10.399   3.199   4.076
66884SOL     OW 2548   9.532   4.862   7.046
66884SOL    HW1 2549   9.468   4.909   6.992
66884SOL    HW2 2550   9.528   4.906   7.131
66885SOL     OW 2551   0.708  10.090  12.353
66885SOL    HW1 2552   0.675  10.023  12.294
66885SOL    HW2 2553   0.803  10.088  12.341
66886SOL     OW 2554  10.652   7.869  11.356
66886SOL    HW1 2555  10.696   7.922  11.422
66886SOL    HW2 2556  10.560   7.870  11.381
66887SOL     OW 2557   3.253   9.194   0.313
66887SOL    HW1 2558   3.169   9.165   0.279
66887SOL    HW2 2559   3.233   9.233   0.398
66888SOL     OW 2560   2.973  11.398   3.432
66888SOL    HW1 2561   2.988  11.398   3.526
66888SOL    HW2 2562   2.887  11.359   3.421
66889SOL     OW 2563   6.771   6.842  10.663
66889SOL    HW1 2564   6.778   6.786  10.585
66889SOL    HW2 2565   6.734   6.924  10.630
66890SOL     OW 2566  11.656   6.956   0.917
66890SOL    HW1 2567  11.684   6.938   0.828
66890SOL    HW2 2568  11.563   6.935   0.918
66891SOL     OW 2569  10.745  13.448   1.154
66891SOL    HW1 2570  10.682  13.519   1.142
66891SOL    HW2 2571  10.769  13.452   1.246
66892SOL     OW 2572  12.477   0.233   6.373
66892SOL    HW1 2573  12.482   0.210   6.280
66892SOL    HW2 2574  12.562   0.274   6.391
66893SOL     OW 2575   1.401   6.553   0.846
66893SOL    HW1 2576   1.305   6.557   0.850
66893SOL    HW2 2577   1.420   6.512   0.762
66894SOL     OW 2578  10.823   3.469   8.866
66894SOL    HW1 2579  10.799   3.561   8.871
66894SOL    HW2 2580  10.740   3.422   8.872
66895SOL     OW 2581   9.885   0.826   4.715
66895SOL    HW1 2582   9.935   0.773   4.652
66895SOL    HW2 2583   9.900   0.916   4.687
66896SOL     OW 2584  13.089   6.161  11.271
66896SOL    HW1 2585  13.134   6.131  11.192
66896SOL    HW2 2586  13.158   6.164  11.338
66897SOL     OW 2587   5.200   3.411   3.183
66897SOL    HW1 2588   5.149   3.351   3.128
66897SOL    HW2 2589   5.281   3.364   3.201
66898SOL     OW 2590   3.961   2.316   9.173
66898SOL    HW1 2591   3.879   2.266   9.178
66898SOL    HW2 2592   4.028   2.254   9.203
66899SOL     OW 2593   6.808   9.173   8.133
66899SOL    HW1 2594   6.738   9.133   8.184
66899SOL    HW2 2595   6.817   9.261   8.169
66900SOL     OW 2596   9.377   7.195  11.020
66900SOL    HW1 2597   9.443   7.227  10.959
66900SOL    HW2 2598   9.421   7.190  11.104
66901SOL     OW 2599   8.168  13.195   6.430
66901SOL    HW1 2600   8.089  13.244   6.406
66901SOL    HW2 2601   8.158  13.178   6.523
66902SOL     OW 2602  12.687  11.770   3.053
66902SOL    HW1 2603  12.752  11.832   3.085
66902SOL    HW2 2604  12.627  11.823   3.001
66903SOL     OW 2605   6.977   2.517  14.568
66903SOL    HW1 2606   7.054   2.536  14.621
66903SOL    HW2 2607   6.941   2.603  14.546
66904SOL     OW 2608  11.427   7.396   2.616
66904SOL    HW1 2609  11.497   7.331   2.618
66904SOL    HW2 2610  11.451   7.456   2.545
66905SOL     OW 2611   8.170  12.101  10.512
66905SOL    HW1 2612   8.193  12.144  10.595
66905SOL    HW2 2613   8.250  12.105  10.460
66906SOL     OW 2614   0.924  13.061   4.213
66906SOL    HW1 2615   0.894  13.145   4.178
66906SOL    HW2 2616   0.985  13.086   4.283
66907SOL     OW 2617  14.334   0.911  12.270
66907SOL    HW1 2618  14.319   0.842  12.206
66907SOL    HW2 2619  14.263   0.901  12.334
66908SOL     OW 2620  10.672  10.244   8.544
66908SOL    HW1 2621  10.652  10.260   8.636
66908SOL    HW2 2622  10.687  10.331   8.507
66909SOL     OW 2623  10.080   7.878   9.303
66909SOL    HW1 2624   9.994   7.911   9.327
66909SOL    HW2 2625  10.076   7.785   9.322
66910SOL     OW 2626  13.366  13.298   0.990
66910SOL    HW1 2627  13.387  13.334   0.904
66910SOL    HW2 2628  13.314  13.366   1.033
66911SOL     OW 2629  10.645   4.469   6.525
66911SOL    HW1 2630  10.551   4.448   6.522
66911SOL    HW2 2631  10.688   4.386   6.542
66912SOL     OW 2632   8.877  14.466   8.659
66912SOL    HW1 2633   8.861  14.396   8.596
66912SOL    HW2 2634   8.916  14.537   8.607
66913SOL     OW 2635  13.139   8.071   7.079
66913SOL    HW1 2636  13.151   7.988   7.125
66913SOL    HW2 2637  13.152   8.051   6.987
66914SOL     OW 2638   5.577   1.234   8.184
66914SOL    HW1 2639   5.634   1.201   8.254
66914SOL    HW2 2640   5.636   1.249   8.110
66915SOL     OW 2641  12.147  12.433  12.886
66915SOL    HW1 2642  12.132  12.506  12.826
66915SOL    HW2 2643  12.115  12.465  12.970
66916SOL     OW 2644   6.612  12.887   2.463
66916SOL    HW1 2645   6.564  12.908   2.383
66916SOL    HW2 2646   6.571  12.940   2.531
66917SOL     OW 2647   0.278  14.491   2.399
66917SOL    HW1 2648   0.346  14.445   2.350
66917SOL    HW2 2649   0.310  14.581   2.404
66918SOL     OW 2650   3.602  12.184   8.329
66918SOL    HW1 2651   3.665  12.222   8.267
66918SOL    HW2 2652   3.529  12.246   8.330
66919SOL     OW 2653  12.204  13.477  10.677
66919SOL    HW1 2654  12.110  13.488  10.690
66919SOL    HW2 2655  12.216  13.382  10.671
66920SOL     OW 2656  10.605  14.085  12.571
66920SOL    HW1 2657  10.654  14.004  12.587
66920SOL    HW2 2658  10.513  14.058  12.569
66921SOL     OW 2659   7.785   6.036  10.448
66921SOL    HW1 2660   7.736   6.107  10.407
66921SOL    HW2 2661   7.767   5.960  10.394
66922SOL     OW 2662   2.996   0.097  11.145
66922SOL    HW1 2663   3.058   0.049  11.200
66922SOL    HW2 2664   3.010   0.189  11.167
66923SOL     OW 2665   3.975  14.671   7.985
66923SOL    HW1 2666   4.032  14.747   8.000
66923SOL    HW2 2667   3.966  14.631   8.071
66924SOL     OW 2668   9.736   6.126  14.550
66924SOL    HW1 2669   9.658   6.133  14.495
66924SOL    HW2 2670   9.701   6.112  14.639
66925SOL     OW 2671   2.867   5.689   0.492
66925SOL    HW1 2672   2.778   5.669   0.520
66925SOL    HW2 2673   2.885   5.626   0.422
66926SOL     OW 2674   3.709  10.203  12.097
66926SOL    HW1 2675   3.614  10.208  12.097
66926SOL    HW2 2676   3.733  10.203  12.005
66927SOL     OW 2677  10.188   2.197  10.133
66927SOL    HW1 2678  10.245   2.134  10.088
66927SOL    HW2 2679  10.237   2.223  10.211
66928SOL     OW 2680   0.227   7.435   9.429
66928SOL    HW1 2681   0.208   7.343   9.444
66928SOL    HW2 2682   0.178   7.458   9.350
66929SOL     OW 2683   4.672   4.173   6.091
66929SOL    HW1 2684   4.710   4.125   6.164
66929SOL    HW2 2685   4.628   4.248   6.131
66930SOL     OW 2686   5.838   8.185  12.900
66930SOL    HW1 2687   5.756   8.169  12.855
66930SOL    HW2 2688   5.842   8.280  12.911
66931SOL     OW 2689   3.456   2.005   5.445
66931SOL    HW1 2690   3.451   2.061   5.522
66931SOL    HW2 2691   3.420   1.921   5.473
66932SOL     OW 2692   4.015   6.569   7.953
66932SOL    HW1 2693   3.965   6.524   8.021
66932SOL    HW2 2694   4.061   6.639   8.000
66933SOL     OW 2695  11.410   7.535   9.035
66933SOL    HW1 2696  11.413   7.533   9.131
66933SOL    HW2 2697  11.497   7.564   9.009
66934SOL     OW 2698   1.849   4.716   2.630
66934SOL    HW1 2699   1.798   4.728   2.710
66934SOL    HW2 2700   1.799   4.764   2.563
66935SOL     OW 2701   5.053   6.060  11.796
66935SOL    HW1 2702   4.998   6.098  11.727
66935SOL    HW2 2703   5.142   6.086  11.773
66936SOL     OW 2704   0.035   5.251   9.969
66936SOL    HW1 2705  14.850   5.219   9.907
66936SOL    HW2 2706  14.865   5.283  10.044
66937SOL     OW 2707   3.444   8.605  11.799
66937SOL    HW1 2708   3.424   8.639  11.712
66937SOL    HW2 2709   3.441   8.510  11.789
66938SOL     OW 2710   3.239   3.679   6.937
66938SOL    HW1 2711   3.289   3.672   7.018
66938SOL    HW2 2712   3.194   3.764   6.943
66939SOL     OW 2713   9.814   8.420  12.764
66939SOL    HW1 2714   9.761   8.401  12.842
66939SOL    HW2 2715   9.898   8.449  12.799
66940SOL     OW 2716   3.732   9.836   1.868
66940SOL    HW1 2717   3.672   9.878   1.929
66940SOL    HW2 2718   3.806   9.896   1.861
66941SOL     OW 2719  11.795  11.371   0.569
66941SOL    HW1 2720  11.765  11.294   0.617
66941SOL    HW2 2721  11.881  11.346   0.535
66942SOL     OW 2722   7.884  14.340   4.669
66942SOL    HW1 2723   7.842  14.324   4.754
66942SOL    HW2 2724   7.977  14.321   4.684
66943SOL     OW 2725  11.380  12.336   6.268
66943SOL    HW1 2726  11.319  12.314   6.198
66943SOL    HW2 2727  11.466  12.310   6.235
66944SOL     OW 2728  11.889  10.014  13.502
66944SOL    HW1 2729  11.881   9.919  13.513
66944SOL    HW2 2730  11.973  10.027  13.459
66945SOL     OW 2731  14.751   6.890  10.640
66945SOL    HW1 2732  14.691   6.822  10.671
66945SOL    HW2 2733  14.781   6.934  10.720
66946SOL     OW 2734   2.666  11.150  11.058
66946SOL    HW1 2735   2.689  11.242  11.065
66946SOL    HW2 2736   2.641  11.125  11.148
66947SOL     OW 2737  14.050   5.943   2.598
66947SOL    HW1 2738  13.981   5.950   2.533
66947SOL    HW2 2739  14.106   5.873   2.567
66948SOL     OW 2740  10.037   2.267  14.515
66948SOL    HW1 2741   9.991   2.275  14.431
66948SOL    HW2 2742  10.036   2.356  14.551
66949SOL     OW 2743   8.551  11.059  14.315
66949SOL    HW1 2744   8.641  11.069  14.346
66949SOL    HW2 2745   8.497  11.074  14.393
66950SOL     OW 2746  11.725   0.306   9.932
66950SOL    HW1 2747  11.792   0.244   9.957
66950SOL    HW2 2748  11.768   0.392   9.936
66951SOL     OW 2749  10.875   7.489   8.720
66951SOL    HW1 2750  10.820   7.491   8.642
66951SOL    HW2 2751  10.948   7.546   8.700
66952SOL     OW 2752   4.101  13.549   6.857
66952SOL    HW1 2753   4.020  13.598   6.843
66952SOL    HW2 2754   4.155  13.606   6.911
66953SOL     OW 2755  12.624  10.785   9.602
66953SOL    HW1 2756  12.715  10.765   9.621
66953SOL    HW2 2757  12.605  10.863   9.655
66954SOL     OW 2758   4.387  13.844   4.599
66954SOL    HW1 2759   4.355  13.803   4.518
66954SOL    HW2 2760   4.457  13.786   4.630
66955SOL     OW 2761   5.987   9.976   0.953
66955SOL    HW1 2762   6.025  10.006   1.035
66955SOL    HW2 2763   6.054   9.994   0.887
66956SOL     OW 2764   6.437  10.883   0.816
66956SOL    HW1 2765   6.428  10.814   0.881
66956SOL    HW2 2766   6.378  10.857   0.745
66957SOL     OW 2767   2.429   2.651   6.914
66957SOL    HW1 2768   2.471   2.728   6.877
66957SOL    HW2 2769   2.426   2.588   6.843
66958SOL     OW 2770   0.811   8.369   6.043
66958SOL    HW1 2771   0.805   8.451   5.993
66958SOL    HW2 2772   0.745   8.378   6.112
66959SOL     OW 2773   2.902   9.628   1.812
66959SOL    HW1 2774   2.858   9.647   1.729
66959SOL    HW2 2775   2.837   9.579   1.862
66960SOL     OW 2776  13.254   5.534  11.745
66960SOL    HW1 2777  13.348   5.523  11.728
66960SOL    HW2 2778  13.216   5.553  11.659
66961SOL     OW 2779   4.432  12.838   7.740
66961SOL    HW1 2780   4.413  12.761   7.686
66961SOL    HW2 2781   4.464  12.904   7.677
66962SOL     OW 2782   0.831   2.985   0.142
66962SOL    HW1 2783   0.796   2.983   0.231
66962SOL    HW2 2784   0.827   2.894   0.113
66963SOL     OW 2785  11.847  12.406   3.494
66963SOL    HW1 2786  11.883  12.475   3.551
66963SOL    HW2 2787  11.784  12.452   3.438
66964SOL     OW 2788   6.617   0.998   5.985
66964SOL    HW1 2789   6.636   0.959   6.070
66964SOL    HW2 2790   6.537   0.955   5.955
66965SOL     OW 2791   8.253  14.054   7.076
66965SOL    HW1 2792   8.189  13.995   7.037
66965SOL    HW2 2793   8.335  14.003   7.078
66966SOL     OW 2794  10.061  13.760   7.966
66966SOL    HW1 2795   9.978  13.713   7.964
66966SOL    HW2 2796  10.117  13.708   8.023
66967SOL     OW 2797  14.630   3.034   8.377
66967SOL    HW1 2798  14.581   3.112   8.352
66967SOL    HW2 2799  14.646   2.988   8.294
66968SOL     OW 2800  12.868   2.575  11.866
66968SOL    HW1 2801  12.963   2.576  11.882
66968SOL    HW2 2802  12.836   2.655  11.905
66969SOL     OW 2803  11.549  12.999  14.521
66969SOL    HW1 2804  11.603  13.006  14.601
66969SOL    HW2 2805  11.468  12.958  14.551
66970SOL     OW 2806  12.559  11.412  10.826
66970SOL    HW1 2807  12.475  11.391  10.786
66970SOL    HW2 2808  12.603  11.327  10.834
66971SOL     OW 2809   7.252   0.060  10.240
66971SOL    HW1 2810   7.213   0.086  10.324
66971SOL    HW2 2811   7.346   0.050  10.260
66972SOL     OW 2812   1.941   4.396  14.855
66972SOL    HW1 2813   1.976   4.452  14.786
66972SOL    HW2 2814   1.901   4.322  14.807
66973SOL     OW 2815   9.858  12.009   1.923
66973SOL    HW1 2816   9.952  12.015   1.905
66973SOL    HW2 2817   9.851  11.944   1.992
66974SOL     OW 2818   7.909  13.383   2.792
66974SOL    HW1 2819   7.871  13.302   2.758
66974SOL    HW2 2820   7.887  13.383   2.885
66975SOL     OW 2821   8.758  14.073   1.098
66975SOL    HW1 2822   8.834  14.124   1.073
66975SOL    HW2 2823   8.788  14.019   1.171
66976SOL     OW 2824   6.849   0.267   7.770
66976SOL    HW1 2825   6.903   0.188   7.763
66976SOL    HW2 2826   6.776   0.252   7.709
66977SOL     OW 2827   1.479   9.874  11.031
66977SOL    HW1 2828   1.468   9.922  11.113
66977SOL    HW2 2829   1.390   9.859  10.999
66978SOL     OW 2830   4.180  11.381  12.115
66978SOL    HW1 2831   4.236  11.338  12.180
66978SOL    HW2 2832   4.106  11.322  12.103
66979SOL     OW 2833   5.960   1.103   3.814
66979SOL    HW1 2834   6.029   1.158   3.852
66979SOL    HW2 2835   5.894   1.165   3.782
66980SOL     OW 2836   0.386   2.882  11.442
66980SOL    HW1 2837   0.393   2.795  11.482
66980SOL    HW2 2838   0.463   2.889  11.385
66981SOL     OW 2839   5.911   9.211  12.311
66981SOL    HW1 2840   5.870   9.216  12.398
66981SOL    HW2 2841   5.980   9.145  12.321
66982SOL     OW 2842   5.347   4.867   3.490
66982SOL    HW1 2843   5.412   4.886   3.558
66982SOL    HW2 2844   5.391   4.887   3.408
66983SOL     OW 2845  14.528   3.128   0.526
66983SOL    HW1 2846  14.616   3.093   0.515
66983SOL    HW2 2847  14.473   3.051   0.540
66984SOL     OW 2848   6.115  10.125   0.405
66984SOL    HW1 2849   6.040  10.086   0.361
66984SOL    HW2 2850   6.174  10.150   0.333
66985SOL     OW 2851  12.472   1.842  11.922
66985SOL    HW1 2852  12.538   1.903  11.954
66985SOL    HW2 2853  12.391   1.892  11.921
66986SOL     OW 2854   9.088  11.096   8.414
66986SOL    HW1 2855   9.104  11.187   8.439
66986SOL    HW2 2856   8.993  11.088   8.411
66987SOL     OW 2857  14.874   4.200   0.321
66987SOL    HW1 2858  14.861   4.183   0.414
66987SOL    HW2 2859   0.088   4.190   0.308
66988SOL     OW 2860   4.568   2.586  11.478
66988SOL    HW1 2861   4.530   2.595  11.390
66988SOL    HW2 2862   4.655   2.626  11.470
66989SOL     OW 2863  14.729   2.797   8.014
66989SOL    HW1 2864  14.745   2.888   7.989
66989SOL    HW2 2865  14.677   2.761   7.941
66990SOL     OW 2866  10.954   0.285   1.107
66990SOL    HW1 2867  10.912   0.307   1.190
66990SOL    HW2 2868  10.884   0.245   1.055
66991SOL     OW 2869  12.868  13.746   7.688
66991SOL    HW1 2870  12.946  13.689   7.683
66991SOL    HW2 2871  12.824  13.731   7.604
66992SOL     OW 2872   1.252   2.135   5.071
66992SOL    HW1 2873   1.317   2.065   5.069
66992SOL    HW2 2874   1.173   2.094   5.106
66993SOL     OW 2875   2.266   6.180   1.522
66993SOL    HW1 2876   2.231   6.124   1.453
66993SOL    HW2 2877   2.190   6.229   1.554
66994SOL     OW 2878   0.410   5.540  10.114
66994SOL    HW1 2879   0.345   5.497  10.170
66994SOL    HW2 2880   0.388   5.509  10.026
66995SOL     OW 2881   9.535  14.448   6.756
66995SOL    HW1 2882   9.605  14.386   6.774
66995SOL    HW2 2883   9.491  14.460   6.840
66996SOL     OW 2884   0.301   1.465   8.032
66996SOL    HW1 2885   0.340   1.537   8.080
66996SOL    HW2 2886   0.260   1.507   7.956
66997SOL     OW 2887  10.954   2.708   2.682
66997SOL    HW1 2888  11.036   2.723   2.730
66997SOL    HW2 2889  10.901   2.656   2.742
66998SOL     OW 2890  12.899   3.089  10.074
66998SOL    HW1 2891  12.961   3.156  10.098
66998SOL    HW2 2892  12.938   3.045   9.998
66999SOL     OW 2893  12.245   2.592   4.736
66999SOL    HW1 2894  12.332   2.555   4.720
66999SOL    HW2 2895  12.184   2.522   4.713
67000SOL     OW 2896   4.825  11.353   4.614
67000SOL    HW1 2897   4.824  11.428   4.674
67000SOL    HW2 2898   4.918  11.332   4.604
67001SOL     OW 2899   3.139   2.778  12.299
67001SOL    HW1 2900   3.216   2.809  12.250
67001SOL    HW2 2901   3.130   2.840  12.371
67002SOL     OW 2902  12.748   2.287   6.294
67002SOL    HW1 2903  12.720   2.219   6.355
67002SOL    HW2 2904  12.841   2.272   6.282
67003SOL     OW 2905   8.810  11.672   4.531
67003SOL    HW1 2906   8.816  11.762   4.565
67003SOL    HW2 2907   8.835  11.679   4.439
67004SOL     OW 2908   0.550  11.710   8.822
67004SOL    HW1 2909   0.475  11.677   8.871
67004SOL    HW2 2910   0.577  11.637   8.766
67005SOL     OW 2911   1.495  12.680  13.805
67005SOL    HW1 2912   1.473  12.745  13.738
67005SOL    HW2 2913   1.540  12.611  13.757
67006SOL     OW 2914   8.557   9.079   7.439
67006SOL    HW1 2915   8.619   9.010   7.461
67006SOL    HW2 2916   8.569   9.092   7.345
67007SOL     OW 2917  10.237   9.034  12.866
67007SOL    HW1 2918  10.150   9.062  12.894
67007SOL    HW2 2919  10.286   9.115  12.852
67008SOL     OW 2920   8.085   6.854   4.824
67008SOL    HW1 2921   8.119   6.772   4.860
67008SOL    HW2 2922   8.064   6.833   4.733
67009SOL     OW 2923   0.497   4.210   8.506
67009SOL    HW1 2924   0.437   4.162   8.450
67009SOL    HW2 2925   0.524   4.146   8.573
67010SOL     OW 2926  10.783   6.129  13.861
67010SOL    HW1 2927  10.821   6.109  13.946
67010SOL    HW2 2928  10.726   6.055  13.841
67011SOL     OW 2929   2.513   2.390   8.238
67011SOL    HW1 2930   2.595   2.368   8.283
67011SOL    HW2 2931   2.538   2.406   8.147
67012SOL     OW 2932   1.399  11.769  11.966
67012SOL    HW1 2933   1.386  11.848  12.019
67012SOL    HW2 2934   1.424  11.802  11.880
67013SOL     OW 2935   3.642   7.371   4.441
67013SOL    HW1 2936   3.726   7.376   4.396
67013SOL    HW2 2937   3.658   7.413   4.526
67014SOL     OW 2938   8.971   1.174   6.524
67014SOL    HW1 2939   9.050   1.220   6.497
67014SOL    HW2 2940   8.955   1.205   6.613
67015SOL     OW 2941  14.555   0.345  14.125
67015SOL    HW1 2942  14.537   0.308  14.039
67015SOL    HW2 2943  14.472   0.384  14.153
67016SOL     OW 2944  10.049  10.454  10.135
67016SOL    HW1 2945  10.049  10.365  10.169
67016SOL    HW2 2946  10.133  10.491  10.164
67017SOL     OW 2947   9.635  10.311   4.922
67017SOL    HW1 2948   9.730  10.312   4.930
67017SOL    HW2 2949   9.609  10.222   4.945
67018SOL     OW 2950  13.273   0.270   4.816
67018SOL    HW1 2951  13.196   0.213   4.824
67018SOL    HW2 2952  13.252   0.346   4.869
67019SOL     OW 2953   7.774   4.605   9.382
67019SOL    HW1 2954   7.757   4.670   9.313
67019SOL    HW2 2955   7.704   4.620   9.446
67020SOL     OW 2956   5.294  13.388   8.036
67020SOL    HW1 2957   5.280  13.297   8.062
67020SOL    HW2 2958   5.214  13.433   8.064
67021SOL     OW 2959  10.073   2.077  10.802
67021SOL    HW1 2960  10.006   2.030  10.851
67021SOL    HW2 2961  10.148   2.017  10.802
67022SOL     OW 2962   4.234  13.185   3.239
67022SOL    HW1 2963   4.288  13.106   3.247
67022SOL    HW2 2964   4.183  13.171   3.159
67023SOL     OW 2965   5.639  11.292   1.656
67023SOL    HW1 2966   5.726  11.254   1.656
67023SOL    HW2 2967   5.585  11.231   1.706
67024SOL     OW 2968   3.838  13.987   1.909
67024SOL    HW1 2969   3.826  13.892   1.918
67024SOL    HW2 2970   3.806  14.023   1.991
67025SOL     OW 2971  11.889  14.237   7.505
67025SOL    HW1 2972  11.900  14.306   7.570
67025SOL    HW2 2973  11.936  14.268   7.428
67026SOL     OW 2974  11.544  14.514  12.937
67026SOL    HW1 2975  11.510  14.432  12.901
67026SOL    HW2 2976  11.568  14.565  12.860
67027SOL     OW 2977   4.917  13.847   0.969
67027SOL    HW1 2978   4.919  13.792   1.047
67027SOL    HW2 2979   5.008  13.876   0.957
67028SOL     OW 2980   7.261   5.784  10.149
67028SOL    HW1 2981   7.257   5.861  10.205
67028SOL    HW2 2982   7.336   5.800  10.092
67029SOL     OW 2983  14.811   3.938   1.822
67029SOL    HW1 2984  14.724   3.978   1.817
67029SOL    HW2 2985  14.871   4.012   1.835
67030SOL     OW 2986  14.503  14.134  10.884
67030SOL    HW1 2987  14.487  14.174  10.798
67030SOL    HW2 2988  14.558  14.198  10.930
67031SOL     OW 2989   2.921   8.415   3.478
67031SOL    HW1 2990   2.862   8.437   3.406
67031SOL    HW2 2991   2.873   8.443   3.557
67032SOL     OW 2992   6.913  14.300   3.654
67032SOL    HW1 2993   6.984  14.353   3.690
67032SOL    HW2 2994   6.939  14.210   3.675
67033SOL     OW 2995   8.665   3.266   9.808
67033SOL    HW1 2996   8.581   3.257   9.763
67033SOL    HW2 2997   8.706   3.343   9.768
67034SOL     OW 2998  10.900  14.471   8.315
67034SOL    HW1 2999  10.987  14.436   8.294
67034SOL    HW2 3000  10.915  14.522   8.395
67035SOL     OW 3001   9.136   4.006   9.313
67035SOL    HW1 3002   9.213   3.965   9.354
67035SOL    HW2 3003   9.089   4.046   9.386
67036SOL     OW 3004   6.837   8.023   1.607
67036SOL    HW1 3005   6.908   8.008   1.671
67036SOL    HW2 3006   6.757   8.002   1.655
67037SOL     OW 3007   0.229   6.827  12.465
67037SOL    HW1 3008   0.277   6.814  12.383
67037SOL    HW2 3009   0.153   6.769  12.457
67038SOL     OW 3010  12.080   2.977   2.466
67038SOL    HW1 3011  12.113   3.060   2.433
67038SOL    HW2 3012  12.129   2.962   2.547
67039SOL     OW 3013   8.782   5.919   2.470
67039SOL    HW1 3014   8.703   5.967   2.495
67039SOL    HW2 3015   8.796   5.943   2.378
67040SOL     OW 3016   7.865   7.295   7.428
67040SOL    HW1 3017   7.916   7.253   7.359
67040SOL    HW2 3018   7.864   7.231   7.499
67041SOL     OW 3019   0.999   8.159  13.032
67041SOL    HW1 3020   0.912   8.164  13.072
67041SOL    HW2 3021   1.013   8.246  12.995
67042SOL     OW 3022  12.284   8.349  11.590
67042SOL    HW1 3023  12.379   8.360  11.586
67042SOL    HW2 3024  12.267   8.266  11.546
67043SOL     OW 3025  10.238   2.056   0.282
67043SOL    HW1 3026  10.168   2.037   0.219
67043SOL    HW2 3027  10.191   2.076   0.363
67044SOL     OW 3028   8.127   1.386  11.342
67044SOL    HW1 3029   8.041   1.350  11.363
67044SOL    HW2 3030   8.137   1.368  11.248
67045SOL     OW 3031   8.867  13.671   6.671
67045SOL    HW1 3032   8.870  13.712   6.757
67045SOL    HW2 3033   8.810  13.595   6.682
67046SOL     OW 3034   6.864   7.241  10.010
67046SOL    HW1 3035   6.783   7.277   9.974
67046SOL    HW2 3036   6.901   7.190   9.938
67047SOL     OW 3037   5.277   6.860  12.752
67047SOL    HW1 3038   5.343   6.803  12.714
67047SOL    HW2 3039   5.297   6.860  12.846
67048SOL     OW 3040   9.995  12.817  12.400
67048SOL    HW1 3041  10.007  12.905  12.435
67048SOL    HW2 3042   9.903  12.813  12.375
67049SOL     OW 3043   8.399   2.757  12.692
67049SOL    HW1 3044   8.426   2.842  12.726
67049SOL    HW2 3045   8.463   2.695  12.727
67050SOL     OW 3046   7.587  13.871   1.454
67050SOL    HW1 3047   7.675  13.902   1.474
67050SOL    HW2 3048   7.596  13.777   1.444
67051SOL     OW 3049   0.213   9.264  12.571
67051SOL    HW1 3050   0.202   9.248  12.665
67051SOL    HW2 3051   0.174   9.351  12.556
67052SOL     OW 3052   0.120   6.424  14.341
67052SOL    HW1 3053   0.071   6.462  14.414
67052SOL    HW2 3054   0.128   6.496  14.278
67053SOL     OW 3055   9.354  13.021   1.903
67053SOL    HW1 3056   9.412  12.957   1.863
67053SOL    HW2 3057   9.368  13.101   1.852
67054SOL     OW 3058  13.040   0.856   1.937
67054SOL    HW1 3059  12.960   0.906   1.918
67054SOL    HW2 3060  13.030   0.775   1.888
67055SOL     OW 3061   5.510   9.873   9.136
67055SOL    HW1 3062   5.463   9.810   9.190
67055SOL    HW2 3063   5.513   9.832   9.049
67056SOL     OW 3064  10.973  13.316   0.268
67056SOL    HW1 3065  11.046  13.369   0.300
67056SOL    HW2 3066  10.986  13.313   0.173
67057SOL     OW 3067   5.538   4.451   9.172
67057SOL    HW1 3068   5.470   4.447   9.239
67057SOL    HW2 3069   5.620   4.440   9.221
67058SOL     OW 3070   4.127   9.946   6.895
67058SOL    HW1 3071   4.133   9.862   6.940
67058SOL    HW2 3072   4.195  10.000   6.935
67059SOL     OW 3073   6.679   8.069   6.023
67059SOL    HW1 3074   6.738   8.007   6.066
67059SOL    HW2 3075   6.716   8.081   5.935
67060SOL     OW 3076   8.953   9.757   8.205
67060SOL    HW1 3077   8.864   9.726   8.221
67060SOL    HW2 3078   8.988   9.696   8.139
67061SOL     OW 3079   6.947  10.370   9.739
67061SOL    HW1 3080   7.008  10.400   9.806
67061SOL    HW2 3081   6.865  10.354   9.786
67062SOL     OW 3082  10.537  12.852   8.860
67062SOL    HW1 3083  10.491  12.924   8.818
67062SOL    HW2 3084  10.593  12.894   8.925
67063SOL     OW 3085   3.825   0.800   9.629
67063SOL    HW1 3086   3.822   0.720   9.681
67063SOL    HW2 3087   3.834   0.770   9.538
67064SOL     OW 3088   9.214   9.954   3.243
67064SOL    HW1 3089   9.295   9.910   3.219
67064SOL    HW2 3090   9.238  10.012   3.315
67065SOL     OW 3091   2.913  10.334   4.637
67065SOL    HW1 3092   2.896  10.378   4.553
67065SOL    HW2 3093   2.989  10.279   4.620
67066SOL     OW 3094  10.719   3.253   1.060
67066SOL    HW1 3095  10.674   3.171   1.080
67066SOL    HW2 3096  10.727   3.253   0.964
67067SOL     OW 3097  10.051   4.230  14.765
67067SOL    HW1 3098   9.974   4.201  14.716
67067SOL    HW2 3099  10.111   4.264  14.699
67068SOL     OW 3100  12.788   7.748  12.840
67068SOL    HW1 3101  12.775   7.670  12.785
67068SOL    HW2 3102  12.700   7.772  12.869
67069SOL     OW 3103  10.756   8.608   5.050
67069SOL    HW1 3104  10.712   8.674   4.998
67069SOL    HW2 3105  10.844   8.603   5.013
67070SOL     OW 3106   0.103  13.724   1.702
67070SOL    HW1 3107   0.118  13.812   1.734
67070SOL    HW2 3108   0.114  13.668   1.779
67071SOL     OW 3109   5.424   7.748   1.293
67071SOL    HW1 3110   5.489   7.802   1.248
67071SOL    HW2 3111   5.468   7.664   1.307
67072SOL     OW 3112   8.271   5.613   9.801
67072SOL    HW1 3113   8.199   5.676   9.801
67072SOL    HW2 3114   8.230   5.530   9.777
67073SOL     OW 3115  10.192   5.923   5.277
67073SOL    HW1 3116  10.162   5.837   5.249
67073SOL    HW2 3117  10.276   5.935   5.233
67074SOL     OW 3118   5.509  10.278   4.260
67074SOL    HW1 3119   5.489  10.201   4.313
67074SOL    HW2 3120   5.593  10.257   4.217
67075SOL     OW 3121   4.980   0.399   6.037
67075SOL    HW1 3122   4.978   0.487   6.074
67075SOL    HW2 3123   4.976   0.413   5.942
67076SOL     OW 3124  10.571   9.836   8.863
67076SOL    HW1 3125  10.522   9.762   8.897
67076SOL    HW2 3126  10.566   9.902   8.933
67077SOL     OW 3127   3.920  10.684   5.606
67077SOL    HW1 3128   3.941  10.714   5.518
67077SOL    HW2 3129   3.890  10.593   5.594
67078SOL     OW 3130   3.899  13.837   5.572
67078SOL    HW1 3131   3.971  13.801   5.520
67078SOL    HW2 3132   3.826  13.846   5.510
67079SOL     OW 3133  13.731   5.642  13.043
67079SOL    HW1 3134  13.690   5.663  13.127
67079SOL    HW2 3135  13.777   5.722  13.018
67080SOL     OW 3136   1.117  10.048  14.819
67080SOL    HW1 3137   1.119   9.963  14.776
67080SOL    HW2 3138   1.028  10.081  14.804
67081SOL     OW 3139  14.529   7.576   9.763
67081SOL    HW1 3140  14.532   7.486   9.797
67081SOL    HW2 3141  14.512   7.630   9.840
67082SOL     OW 3142   7.122   1.106  12.253
67082SOL    HW1 3143   7.066   1.033  12.280
67082SOL    HW2 3144   7.211   1.077  12.274
67083SOL     OW 3145  14.402  14.314  13.436
67083SOL    HW1 3146  14.390  14.224  13.407
67083SOL    HW2 3147  14.329  14.329  13.496
67084SOL     OW 3148   5.101   4.789  13.350
67084SOL    HW1 3149   5.159   4.713  13.361
67084SOL    HW2 3150   5.152   4.849  13.295
67085SOL     OW 3151  11.732   3.009  10.396
67085SOL    HW1 3152  11.701   3.046  10.479
67085SOL    HW2 3153  11.827   3.005  10.406
67086SOL     OW 3154   6.121   8.773   7.333
67086SOL    HW1 3155   6.044   8.721   7.355
67086SOL    HW2 3156   6.092   8.831   7.263
67087SOL     OW 3157  12.548   4.471   6.054
67087SOL    HW1 3158  12.532   4.556   6.015
67087SOL    HW2 3159  12.503   4.409   5.997
67088SOL     OW 3160  10.821   6.070   4.418
67088SOL    HW1 3161  10.736   6.028   4.402
67088SOL    HW2 3162  10.807   6.122   4.497
67089SOL     OW 3163   2.140   1.481   0.495
67089SOL    HW1 3164   2.195   1.541   0.546
67089SOL    HW2 3165   2.055   1.524   0.491
67090SOL     OW 3166   9.790  14.571  10.523
67090SOL    HW1 3167   9.828  14.648  10.481
67090SOL    HW2 3168   9.780  14.595  10.615
67091SOL     OW 3169   4.422   0.388  12.935
67091SOL    HW1 3170   4.369   0.429  12.867
67091SOL    HW2 3171   4.365   0.318  12.970
67092SOL     OW 3172  10.276   8.455  10.136
67092SOL    HW1 3173  10.223   8.520  10.090
67092SOL    HW2 3174  10.239   8.371  10.111
67093SOL     OW 3175   9.833  12.677   9.962
67093SOL    HW1 3176   9.874  12.605  10.010
67093SOL    HW2 3177   9.743  12.679   9.994
67094SOL     OW 3178  13.364  14.457   3.391
67094SOL    HW1 3179  13.347  14.540   3.435
67094SOL    HW2 3180  13.297  14.451   3.323
67095SOL     OW 3181  12.848   7.720   1.683
67095SOL    HW1 3182  12.861   7.630   1.652
67095SOL    HW2 3183  12.898   7.774   1.622
67096SOL     OW 3184   8.746   5.835   3.993
67096SOL    HW1 3185   8.724   5.791   3.911
67096SOL    HW2 3186   8.683   5.906   3.999
67097SOL     OW 3187   2.575   9.363   6.985
67097SOL    HW1 3188   2.618   9.278   6.978
67097SOL    HW2 3189   2.547   9.368   7.077
67098SOL     OW 3190   7.186  10.273   1.726
67098SOL    HW1 3191   7.266  10.243   1.767
67098SOL    HW2 3192   7.144  10.328   1.793
67099SOL     OW 3193   4.626   3.036   8.291
67099SOL    HW1 3194   4.709   3.036   8.244
67099SOL    HW2 3195   4.610   2.944   8.312
67100SOL     OW 3196   2.066  14.458  14.114
67100SOL    HW1 3197   2.055  14.487  14.023
67100SOL    HW2 3198   2.130  14.518  14.151
67101SOL     OW 3199  10.560   6.794   3.436
67101SOL    HW1 3200  10.623   6.771   3.368
67101SOL    HW2 3201  10.511   6.713   3.452
67102SOL     OW 3202  14.244   9.837  14.496
67102SOL    HW1 3203  14.267   9.793  14.578
67102SOL    HW2 3204  14.290   9.788  14.428
67103SOL     OW 3205   3.760  14.263   0.971
67103SOL    HW1 3206   3.734  14.210   1.046
67103SOL    HW2 3207   3.813  14.204   0.917
67104SOL     OW 3208   5.864  13.611   2.550
67104SOL    HW1 3209   5.946  13.645   2.584
67104SOL    HW2 3210   5.819  13.575   2.626
67105SOL     OW 3211   7.230   7.439  12.704
67105SOL    HW1 3212   7.239   7.389  12.623
67105SOL    HW2 3213   7.251   7.529  12.679
67106SOL     OW 3214   5.989   9.117   3.283
67106SOL    HW1 3215   6.083   9.133   3.282
67106SOL    HW2 3216   5.960   9.148   3.369
67107SOL     OW 3217  13.352   1.480   1.717
67107SOL    HW1 3218  13.293   1.549   1.747
67107SOL    HW2 3219  13.300   1.430   1.653
67108SOL     OW 3220   9.009   3.297   9.923
67108SOL    HW1 3221   9.005   3.227   9.858
67108SOL    HW2 3222   9.099   3.298   9.953
67109SOL     OW 3223  11.834   3.889  10.329
67109SOL    HW1 3224  11.924   3.913  10.310
67109SOL    HW2 3225  11.836   3.793  10.337
67110SOL     OW 3226   4.528   2.214   5.654
67110SOL    HW1 3227   4.520   2.118   5.657
67110SOL    HW2 3228   4.442   2.244   5.624
67111SOL     OW 3229  14.775   7.060   0.582
67111SOL    HW1 3230  14.766   7.131   0.519
67111SOL    HW2 3231  14.869   7.051   0.595
67112SOL     OW 3232  12.623   0.281   5.672
67112SOL    HW1 3233  12.710   0.258   5.705
67112SOL    HW2 3234  12.640   0.328   5.590
67113SOL     OW 3235   7.047   0.856   7.450
67113SOL    HW1 3236   7.058   0.927   7.386
67113SOL    HW2 3237   6.996   0.896   7.521
67114SOL     OW 3238  10.547   3.288  11.982
67114SOL    HW1 3239  10.545   3.368  12.034
67114SOL    HW2 3240  10.623   3.240  12.015
67115SOL     OW 3241  10.591   2.879  14.248
67115SOL    HW1 3242  10.557   2.896  14.161
67115SOL    HW2 3243  10.532   2.814  14.285
67116SOL     OW 3244   5.336   1.291   0.169
67116SOL    HW1 3245   5.335   1.300   0.265
67116SOL    HW2 3246   5.426   1.312   0.144
67117SOL     OW 3247  13.589   5.292   0.056
67117SOL    HW1 3248  13.564   5.345   0.132
67117SOL    HW2 3249  13.632   5.215   0.093
67118SOL     OW 3250   0.695   6.054  13.007
67118SOL    HW1 3251   0.682   6.080  12.916
67118SOL    HW2 3252   0.617   6.004  13.030
67119SOL     OW 3253  12.305   7.431  13.853
67119SOL    HW1 3254  12.305   7.343  13.892
67119SOL    HW2 3255  12.392   7.439  13.813
67120SOL     OW 3256   2.360   2.050   3.079
67120SOL    HW1 3257   2.437   1.995   3.065
67120SOL    HW2 3258   2.393   2.139   3.074
67121SOL     OW 3259   2.459   8.798   6.942
67121SOL    HW1 3260   2.468   8.862   6.871
67121SOL    HW2 3261   2.549   8.785   6.974
67122SOL     OW 3262   7.920  11.340  13.704
67122SOL    HW1 3263   7.882  11.408  13.760
67122SOL    HW2 3264   7.989  11.385  13.656
67123SOL     OW 3265   2.388   9.807  13.966
67123SOL    HW1 3266   2.392   9.711  13.961
67123SOL    HW2 3267   2.325   9.825  14.036
67124SOL     OW 3268   4.188   5.669   1.325
67124SOL    HW1 3269   4.220   5.613   1.255
67124SOL    HW2 3270   4.234   5.639   1.403
67125SOL     OW 3271  12.027   8.673   6.893
67125SOL    HW1 3272  11.992   8.738   6.954
67125SOL    HW2 3273  12.120   8.695   6.884
67126SOL     OW 3274  13.083   3.949   9.043
67126SOL    HW1 3275  13.054   3.880   8.984
67126SOL    HW2 3276  13.177   3.935   9.052
67127SOL     OW 3277  14.005   6.287   8.498
67127SOL    HW1 3278  14.049   6.205   8.477
67127SOL    HW2 3279  13.933   6.262   8.556
67128SOL     OW 3280  14.860   8.695   5.545
67128SOL    HW1 3281   0.047   8.683   5.613
67128SOL    HW2 3282  14.849   8.789   5.538
67129SOL     OW 3283   2.385   5.915   7.001
67129SOL    HW1 3284   2.325   5.843   6.986
67129SOL    HW2 3285   2.468   5.873   7.024
67130SOL     OW 3286   6.227   1.530   8.320
67130SOL    HW1 3287   6.288   1.457   8.327
67130SOL    HW2 3288   6.241   1.581   8.400
67131SOL     OW 3289   0.757   0.334   7.823
67131SOL    HW1 3290   0.690   0.401   7.807
67131SOL    HW2 3291   0.712   0.266   7.872
67132SOL     OW 3292  14.103  14.097   0.798
67132SOL    HW1 3293  14.051  14.175   0.780
67132SOL    HW2 3294  14.045  14.024   0.779
67133SOL     OW 3295   1.055  13.565   2.019
67133SOL    HW1 3296   1.005  13.636   1.980
67133SOL    HW2 3297   1.134  13.607   2.052
67134SOL     OW 3298  13.071   1.343   0.432
67134SOL    HW1 3299  13.034   1.392   0.506
67134SOL    HW2 3300  13.077   1.253   0.465
67135SOL     OW 3301   0.352   4.560  12.773
67135SOL    HW1 3302   0.276   4.598  12.817
67135SOL    HW2 3303   0.406   4.524  12.843
67136SOL     OW 3304   7.316  11.437  14.315
67136SOL    HW1 3305   7.400  11.481  14.328
67136SOL    HW2 3306   7.329  11.381  14.239
67137SOL     OW 3307   9.039   7.115   1.169
67137SOL    HW1 3308   9.011   7.037   1.217
67137SOL    HW2 3309   8.959   7.147   1.127
67138SOL     OW 3310  12.021   4.826   9.818
67138SOL    HW1 3311  12.109   4.796   9.840
67138SOL    HW2 3312  11.963   4.761   9.859
67139SOL     OW 3313  12.575  11.244   4.033
67139SOL    HW1 3314  12.668  11.250   4.015
67139SOL    HW2 3315  12.547  11.334   4.049
67140SOL     OW 3316   3.556   7.775  14.761
67140SOL    HW1 3317   3.640   7.780  14.807
67140SOL    HW2 3318   3.557   7.689  14.719
67141SOL     OW 3319  14.820   1.540   1.186
67141SOL    HW1 3320  14.860   1.521   1.102
67141SOL    HW2 3321  14.757   1.469   1.200
67142SOL     OW 3322   1.719   7.036  12.630
67142SOL    HW1 3323   1.733   6.945  12.656
67142SOL    HW2 3324   1.702   7.032  12.536
67143SOL     OW 3325   5.176   1.469   2.702
67143SOL    HW1 3326   5.118   1.517   2.762
67143SOL    HW2 3327   5.122   1.396   2.671
67144SOL     OW 3328   9.492  13.640   4.730
67144SOL    HW1 3329   9.450  13.723   4.754
67144SOL    HW2 3330   9.585  13.663   4.719
67145SOL     OW 3331  11.212  14.327   8.986
67145SOL    HW1 3332  11.170  14.255   8.940
67145SOL    HW2 3333  11.151  14.350   9.056
67146SOL     OW 3334   2.447  10.241   3.489
67146SOL    HW1 3335   2.358  10.266   3.513
67146SOL    HW2 3336   2.496  10.245   3.572
67147SOL     OW 3337   6.862   6.362  12.286
67147SOL    HW1 3338   6.882   6.426  12.218
67147SOL    HW2 3339   6.947   6.324  12.309
67148SOL     OW 3340   2.813  11.820  11.527
67148SOL    HW1 3341   2.720  11.807  11.507
67148SOL    HW2 3342   2.847  11.869  11.452
67149SOL     OW 3343   2.026  11.946   8.741
67149SOL    HW1 3344   2.026  12.042   8.748
67149SOL    HW2 3345   2.117  11.921   8.757
67150SOL     OW 3346   1.021   9.415   0.495
67150SOL    HW1 3347   0.940   9.384   0.455
67150SOL    HW2 3348   1.069   9.335   0.516
67151SOL     OW 3349   3.401   9.205   9.286
67151SOL    HW1 3350   3.411   9.110   9.296
67151SOL    HW2 3351   3.430   9.222   9.196
67152SOL     OW 3352   3.952   7.398   0.738
67152SOL    HW1 3353   3.878   7.456   0.724
67152SOL    HW2 3354   3.962   7.395   0.833
67153SOL     OW 3355   6.380   6.739   0.510
67153SOL    HW1 3356   6.401   6.759   0.419
67153SOL    HW2 3357   6.452   6.682   0.538
67154SOL     OW 3358   5.988   4.761   8.712
67154SOL    HW1 3359   5.939   4.681   8.733
67154SOL    HW2 3360   5.959   4.825   8.777
67155SOL     OW 3361   3.289   7.348   1.182
67155SOL    HW1 3362   3.356   7.304   1.130
67155SOL    HW2 3363   3.284   7.436   1.145
67156SOL     OW 3364  12.830   7.636   0.755
67156SOL    HW1 3365  12.830   7.724   0.717
67156SOL    HW2 3366  12.862   7.649   0.845
67157SOL     OW 3367  10.044  10.931   1.217
67157SOL    HW1 3368  10.135  10.906   1.202
67157SOL    HW2 3369  10.048  11.024   1.240
67158SOL     OW 3370   3.015  14.383  13.335
67158SOL    HW1 3371   2.931  14.416  13.367
67158SOL    HW2 3372   3.040  14.444  13.266
67159SOL     OW 3373  13.697   0.574   4.119
67159SOL    HW1 3374  13.649   0.570   4.036
67159SOL    HW2 3375  13.634   0.544   4.185
67160SOL     OW 3376  10.467   9.591   4.720
67160SOL    HW1 3377  10.396   9.540   4.681
67160SOL    HW2 3378  10.518   9.527   4.768
67161SOL     OW 3379  10.429   0.188   0.070
67161SOL    HW1 3380  10.365   0.141   0.017
67161SOL    HW2 3381  10.426   0.278   0.036
67162SOL     OW 3382   0.648  13.411   1.074
67162SOL    HW1 3383   0.589  13.476   1.035
67162SOL    HW2 3384   0.704  13.462   1.133
67163SOL     OW 3385   3.680  11.100  13.154
67163SOL    HW1 3386   3.663  11.170  13.217
67163SOL    HW2 3387   3.641  11.132  13.072
67164SOL     OW 3388   9.855   1.780  10.643
67164SOL    HW1 3389   9.843   1.875  10.650
67164SOL    HW2 3390   9.767   1.744  10.650
67165SOL     OW 3391   4.417   9.896  14.869
67165SOL    HW1 3392   4.364   9.947   0.050
67165SOL    HW2 3393   4.483   9.958  14.837
67166SOL     OW 3394   7.627   4.349   4.391
67166SOL    HW1 3395   7.653   4.336   4.482
67166SOL    HW2 3396   7.543   4.304   4.384
67167SOL     OW 3397   6.243  11.434   9.541
67167SOL    HW1 3398   6.329  11.458   9.576
67167SOL    HW2 3399   6.236  11.340   9.555
67168SOL     OW 3400   8.346  13.327   9.026
67168SOL    HW1 3401   8.264  13.353   9.068
67168SOL    HW2 3402   8.377  13.253   9.078
67169SOL     OW 3403   4.858  10.081  11.724
67169SOL    HW1 3404   4.928  10.142  11.743
67169SOL    HW2 3405   4.859  10.072  11.629
67170SOL     OW 3406   3.940   4.942   2.867
67170SOL    HW1 3407   3.970   5.026   2.902
67170SOL    HW2 3408   3.965   4.945   2.774
67171SOL     OW 3409  12.015  14.121  13.533
67171SOL    HW1 3410  12.088  14.129  13.472
67171SOL    HW2 3411  12.037  14.181  13.604
67172SOL     OW 3412   9.672   7.473   8.860
67172SOL    HW1 3413   9.609   7.402   8.870
67172SOL    HW2 3414   9.703   7.465   8.770
67173SOL     OW 3415   4.431   9.801   6.107
67173SOL    HW1 3416   4.353   9.856   6.116
67173SOL    HW2 3417   4.499   9.860   6.075
67174SOL     OW 3418   5.378   9.748   7.863
67174SOL    HW1 3419   5.410   9.772   7.950
67174SOL    HW2 3420   5.296   9.702   7.880
67175SOL     OW 3421   0.062   4.941  11.206
67175SOL    HW1 3422   0.072   4.847  11.214
67175SOL    HW2 3423  14.852   4.954  11.177
67176SOL     OW 3424   5.245  14.395   7.535
67176SOL    HW1 3425   5.298  14.316   7.520
67176SOL    HW2 3426   5.297  14.448   7.596
67177SOL     OW 3427   2.899   0.794   3.978
67177SOL    HW1 3428   2.842   0.846   4.035
67177SOL    HW2 3429   2.910   0.848   3.900
67178SOL     OW 3430   4.748   9.407  14.880
67178SOL    HW1 3431   4.665   9.442   0.034
67178SOL    HW2 3432   4.722   9.330  14.829
67179SOL     OW 3433   0.418  13.959  11.655
67179SOL    HW1 3434   0.433  13.867  11.674
67179SOL    HW2 3435   0.416  14.001  11.741
67180SOL     OW 3436   8.194   3.857   9.526
67180SOL    HW1 3437   8.212   3.949   9.504
67180SOL    HW2 3438   8.185   3.857   9.622
67181SOL     OW 3439  13.435  11.512   6.904
67181SOL    HW1 3440  13.454  11.442   6.841
67181SOL    HW2 3441  13.387  11.577   6.852
67182SOL     OW 3442   9.568   0.795   2.349
67182SOL    HW1 3443   9.599   0.708   2.324
67182SOL    HW2 3444   9.526   0.829   2.270
67183SOL     OW 3445  13.970  13.546   7.677
67183SOL    HW1 3446  13.941  13.583   7.593
67183SOL    HW2 3447  13.941  13.610   7.742
67184SOL     OW 3448   5.110   4.588  11.999
67184SOL    HW1 3449   5.086   4.680  12.010
67184SOL    HW2 3450   5.195   4.580  12.043
67185SOL     OW 3451  12.892   4.693   7.162
67185SOL    HW1 3452  12.877   4.761   7.096
67185SOL    HW2 3453  12.987   4.681   7.162
67186SOL     OW 3454   1.691   6.166  10.353
67186SOL    HW1 3455   1.775   6.209  10.370
67186SOL    HW2 3456   1.708   6.073  10.369
67187SOL     OW 3457   0.822  12.872   7.751
67187SOL    HW1 3458   0.730  12.862   7.776
67187SOL    HW2 3459   0.850  12.783   7.726
67188SOL     OW 3460   7.032   3.841   3.332
67188SOL    HW1 3461   7.034   3.787   3.253
67188SOL    HW2 3462   7.005   3.928   3.301
67189SOL     OW 3463   4.803  13.217  14.416
67189SOL    HW1 3464   4.877  13.163  14.443
67189SOL    HW2 3465   4.743  13.155  14.374
67190SOL     OW 3466   4.883  14.187  14.121
67190SOL    HW1 3467   4.825  14.233  14.181
67190SOL    HW2 3468   4.854  14.096  14.124
67191SOL     OW 3469  13.140   1.524  10.363
67191SOL    HW1 3470  13.233   1.508  10.380
67191SOL    HW2 3471  13.137   1.550  10.271
67192SOL     OW 3472  13.949   2.460  14.150
67192SOL    HW1 3473  13.865   2.427  14.182
67192SOL    HW2 3474  13.966   2.538  14.204
67193SOL     OW 3475   2.612   8.424  13.640
67193SOL    HW1 3476   2.630   8.484  13.713
67193SOL    HW2 3477   2.665   8.347  13.659
67194SOL     OW 3478   4.738   3.731  12.658
67194SOL    HW1 3479   4.760   3.638  12.661
67194SOL    HW2 3480   4.760   3.758  12.569
67195SOL     OW 3481   8.256   8.835   4.105
67195SOL    HW1 3482   8.285   8.926   4.109
67195SOL    HW2 3483   8.205   8.829   4.024
67196SOL     OW 3484   3.176   5.987   0.616
67196SOL    HW1 3485   3.232   5.952   0.547
67196SOL    HW2 3486   3.199   5.936   0.694
67197SOL     OW 3487   9.323   9.930   9.322
67197SOL    HW1 3488   9.229   9.934   9.343
67197SOL    HW2 3489   9.348   9.839   9.341
67198SOL     OW 3490   2.640  11.584   8.926
67198SOL    HW1 3491   2.572  11.608   8.988
67198SOL    HW2 3492   2.667  11.496   8.953
67199SOL     OW 3493   7.662  13.560  11.086
67199SOL    HW1 3494   7.643  13.527  11.174
67199SOL    HW2 3495   7.632  13.490  11.028
67200SOL     OW 3496  10.138   4.093   4.685
67200SOL    HW1 3497  10.166   4.004   4.665
67200SOL    HW2 3498  10.187   4.117   4.763
67201SOL     OW 3499   8.058  13.353  11.567
67201SOL    HW1 3500   8.064  13.305  11.650
67201SOL    HW2 3501   8.148  13.356  11.535
67202SOL     OW 3502   7.352  10.763   9.321
67202SOL    HW1 3503   7.444  10.788   9.316
67202SOL    HW2 3504   7.309  10.817   9.255
67203SOL     OW 3505   4.260   2.077   3.919
67203SOL    HW1 3506   4.165   2.078   3.904
67203SOL    HW2 3507   4.297   2.121   3.843
67204SOL     OW 3508  13.581  12.938   1.511
67204SOL    HW1 3509  13.579  12.932   1.415
67204SOL    HW2 3510  13.642  13.009   1.528
67205SOL     OW 3511  10.095   5.519  12.512
67205SOL    HW1 3512  10.041   5.509  12.434
67205SOL    HW2 3513  10.179   5.551  12.479
67206SOL     OW 3514   9.244   8.111  14.693
67206SOL    HW1 3515   9.262   8.070  14.608
67206SOL    HW2 3516   9.299   8.062  14.755
67207SOL     OW 3517   3.893   8.267   6.435
67207SOL    HW1 3518   3.818   8.228   6.480
67207SOL    HW2 3519   3.969   8.225   6.474
67208SOL     OW 3520  10.483   2.568   2.976
67208SOL    HW1 3521  10.445   2.485   3.006
67208SOL    HW2 3522  10.419   2.635   3.000
67209SOL     OW 3523  14.541   3.316  14.036
67209SOL    HW1 3524  14.598   3.254  14.081
67209SOL    HW2 3525  14.517   3.272  13.955
67210SOL     OW 3526  13.443   5.865   5.947
67210SOL    HW1 3527  13.384   5.901   5.881
67210SOL    HW2 3528  13.509   5.933   5.960
67211SOL     OW 3529   7.767   6.961   9.143
67211SOL    HW1 3530   7.760   7.039   9.088
67211SOL    HW2 3531   7.680   6.948   9.180
67212SOL     OW 3532  10.202  13.476   2.630
67212SOL    HW1 3533  10.114  13.500   2.659
67212SOL    HW2 3534  10.189  13.395   2.580
67213SOL     OW 3535   4.901  13.390   9.182
67213SOL    HW1 3536   4.873  13.461   9.124
67213SOL    HW2 3537   4.850  13.314   9.152
67214SOL     OW 3538   4.528   9.505   4.413
67214SOL    HW1 3539   4.508   9.419   4.450
67214SOL    HW2 3540   4.452   9.559   4.433
67215SOL     OW 3541  12.941   7.710   6.316
67215SOL    HW1 3542  12.961   7.803   6.323
67215SOL    HW2 3543  12.864   7.707   6.260
67216SOL     OW 3544  14.773   3.384  13.538
67216SOL    HW1 3545  14.782   3.459  13.479
67216SOL    HW2 3546  14.786   3.307  13.483
67217SOL     OW 3547   3.268  13.583   2.161
67217SOL    HW1 3548   3.321  13.660   2.140
67217SOL    HW2 3549   3.178  13.612   2.149
67218SOL     OW 3550  10.996  10.668   6.644
67218SOL    HW1 3551  10.945  10.629   6.573
67218SOL    HW2 3552  10.936  10.668   6.719
67219SOL     OW 3553   9.671  11.308   8.694
67219SOL    HW1 3554   9.697  11.320   8.785
67219SOL    HW2 3555   9.737  11.250   8.657
67220SOL     OW 3556  13.054   0.635  11.553
67220SOL    HW1 3557  13.135   0.596  11.520
67220SOL    HW2 3558  13.078   0.673  11.637
67221SOL     OW 3559   9.312   0.305   0.479
67221SOL    HW1 3560   9.219   0.310   0.458
67221SOL    HW2 3561   9.350   0.381   0.434
67222SOL     OW 3562   8.664   9.149   6.708
67222SOL    HW1 3563   8.698   9.077   6.655
67222SOL    HW2 3564   8.641   9.108   6.791
67223SOL     OW 3565   1.543   9.374   8.957
67223SOL    HW1 3566   1.622   9.333   8.992
67223SOL    HW2 3567   1.501   9.305   8.906
67224SOL     OW 3568   5.850   1.277   6.621
67224SOL    HW1 3569   5.799   1.304   6.544
67224SOL    HW2 3570   5.833   1.183   6.629
67225SOL     OW 3571   2.414  14.370   1.706
67225SOL    HW1 3572   2.471  14.443   1.731
67225SOL    HW2 3573   2.326  14.398   1.732
67226SOL     OW 3574   0.920   3.917   8.191
67226SOL    HW1 3575   0.853   3.913   8.260
67226SOL    HW2 3576   0.971   3.837   8.203
67227SOL     OW 3577  11.866   6.790   1.343
67227SOL    HW1 3578  11.836   6.839   1.267
67227SOL    HW2 3579  11.919   6.719   1.307
67228SOL     OW 3580   5.021   9.027   8.644
67228SOL    HW1 3581   5.083   8.982   8.586
67228SOL    HW2 3582   4.936   8.991   8.620
67229SOL     OW 3583   4.097  10.282   7.479
67229SOL    HW1 3584   4.033  10.342   7.518
67229SOL    HW2 3585   4.081  10.198   7.522
67230SOL     OW 3586  13.560   6.820   4.112
67230SOL    HW1 3587  13.597   6.732   4.120
67230SOL    HW2 3588  13.626   6.878   4.150
67231SOL     OW 3589   9.057  12.787  13.494
67231SOL    HW1 3590   9.028  12.865  13.541
67231SOL    HW2 3591   9.138  12.760  13.538
67232SOL     OW 3592   5.863   1.678  10.587
67232SOL    HW1 3593   5.842   1.646  10.499
67232SOL    HW2 3594   5.888   1.769  10.575
67233SOL     OW 3595   5.188   8.581   1.125
67233SOL    HW1 3596   5.162   8.511   1.065
67233SOL    HW2 3597   5.283   8.588   1.114
67234SOL     OW 3598   7.404   8.461   4.740
67234SOL    HW1 3599   7.493   8.441   4.767
67234SOL    HW2 3600   7.354   8.461   4.821
67235SOL     OW 3601   6.214  13.593  11.743
67235SOL    HW1 3602   6.149  13.579  11.811
67235SOL    HW2 3603   6.181  13.667  11.692
67236SOL     OW 3604   7.937   1.284   3.882
67236SOL    HW1 3605   8.014   1.238   3.848
67236SOL    HW2 3606   7.924   1.247   3.970
67237SOL     OW 3607  12.425   0.346  11.194
67237SOL    HW1 3608  12.342   0.324  11.151
67237SOL    HW2 3609  12.435   0.279  11.262
67238SOL     OW 3610   1.220  13.648   4.580
67238SOL    HW1 3611   1.172  13.568   4.604
67238SOL    HW2 3612   1.152  13.710   4.554
67239SOL     OW 3613   1.076   0.815   0.611
67239SOL    HW1 3614   1.072   0.731   0.567
67239SOL    HW2 3615   0.985   0.841   0.623
67240SOL     OW 3616  11.053  13.836  11.810
67240SOL    HW1 3617  10.998  13.912  11.792
67240SOL    HW2 3618  11.106  13.825  11.731
67241SOL     OW 3619   1.179   5.490  13.126
67241SOL    HW1 3620   1.173   5.586  13.122
67241SOL    HW2 3621   1.155   5.469  13.216
67242SOL     OW 3622   6.218   2.294  10.276
67242SOL    HW1 3623   6.303   2.311  10.236
67242SOL    HW2 3624   6.221   2.202  10.301
67243SOL     OW 3625   8.552   0.683  12.614
67243SOL    HW1 3626   8.486   0.616  12.596
67243SOL    HW2 3627   8.512   0.764  12.581
67244SOL     OW 3628   1.143   8.872   1.862
67244SOL    HW1 3629   1.233   8.898   1.884
67244SOL    HW2 3630   1.134   8.893   1.769
67245SOL     OW 3631   9.171  11.029   1.715
67245SOL    HW1 3632   9.140  10.941   1.695
67245SOL    HW2 3633   9.130  11.050   1.799
67246SOL     OW 3634  12.377  13.096   6.418
67246SOL    HW1 3635  12.465  13.110   6.383
67246SOL    HW2 3636  12.365  13.002   6.417
67247SOL     OW 3637   0.055  13.236  13.658
67247SOL    HW1 3638   0.015  13.184  13.728
67247SOL    HW2 3639   0.022  13.325  13.672
67248SOL     OW 3640   2.511  11.609  14.001
67248SOL    HW1 3641   2.431  11.637  14.046
67248SOL    HW2 3642   2.582  11.633  14.061
67249SOL     OW 3643   4.736  12.692   4.905
67249SOL    HW1 3644   4.658  12.639   4.921
67249SOL    HW2 3645   4.799  12.663   4.971
67250SOL     OW 3646   8.187   9.001   6.152
67250SOL    HW1 3647   8.209   8.909   6.137
67250SOL    HW2 3648   8.098   8.999   6.187
67251SOL     OW 3649   7.665   2.123   2.724
67251SOL    HW1 3650   7.680   2.216   2.741
67251SOL    HW2 3651   7.572   2.117   2.703
67252SOL     OW 3652  12.558  11.383   8.320
67252SOL    HW1 3653  12.560  11.340   8.406
67252SOL    HW2 3654  12.628  11.448   8.323
67253SOL     OW 3655   5.975   8.363   2.758
67253SOL    HW1 3656   5.919   8.383   2.684
67253SOL    HW2 3657   5.939   8.415   2.830
67254SOL     OW 3658  10.425   9.910  10.098
67254SOL    HW1 3659  10.446   9.871  10.183
67254SOL    HW2 3660  10.441  10.003  10.109
67255SOL     OW 3661  14.874  12.130   7.069
67255SOL    HW1 3662  14.797  12.116   7.124
67255SOL    HW2 3663   0.059  12.069   7.102
67256SOL     OW 3664   1.594   4.722   3.130
67256SOL    HW1 3665   1.610   4.632   3.159
67256SOL    HW2 3666   1.537   4.760   3.196
67257SOL     OW 3667   7.200   5.261   6.429
67257SOL    HW1 3668   7.176   5.212   6.508
67257SOL    HW2 3669   7.158   5.214   6.357
67258SOL     OW 3670  10.686  14.122   4.319
67258SOL    HW1 3671  10.682  14.042   4.373
67258SOL    HW2 3672  10.762  14.169   4.352
67259SOL     OW 3673  11.678  11.767   6.304
67259SOL    HW1 3674  11.750  11.704   6.304
67259SOL    HW2 3675  11.674  11.799   6.394
67260SOL     OW 3676   0.657   9.774   3.833
67260SOL    HW1 3677   0.701   9.693   3.859
67260SOL    HW2 3678   0.652   9.826   3.914
67261SOL     OW 3679   2.075  10.448   2.960
67261SOL    HW1 3680   2.089  10.488   2.874
67261SOL    HW2 3681   2.160  10.413   2.984
67262SOL     OW 3682   3.960   9.359   2.020
67262SOL    HW1 3683   4.030   9.298   1.998
67262SOL    HW2 3684   3.880   9.307   2.017
67263SOL     OW 3685  12.607   3.416   1.262
67263SOL    HW1 3686  12.649   3.459   1.188
67263SOL    HW2 3687  12.519   3.453   1.265
67264SOL     OW 3688   3.928   3.209   3.684
67264SOL    HW1 3689   3.879   3.280   3.642
67264SOL    HW2 3690   3.889   3.202   3.771
67265SOL     OW 3691   8.034   8.086   6.046
67265SOL    HW1 3692   7.976   8.041   5.985
67265SOL    HW2 3693   8.002   8.176   6.047
67266SOL     OW 3694   7.945   4.435   2.517
67266SOL    HW1 3695   8.006   4.505   2.538
67266SOL    HW2 3696   7.924   4.395   2.601
67267SOL     OW 3697   4.374   8.076  14.052
67267SOL    HW1 3698   4.418   8.097  13.970
67267SOL    HW2 3699   4.362   7.981  14.049
67268SOL     OW 3700   4.330  14.109  11.715
67268SOL    HW1 3701   4.352  14.177  11.778
67268SOL    HW2 3702   4.236  14.121  11.699
67269SOL     OW 3703  11.008  14.654   6.368
67269SOL    HW1 3704  11.082  14.609   6.409
67269SOL    HW2 3705  10.994  14.732   6.421
67270SOL     OW 3706   9.149  13.115   2.103
67270SOL    HW1 3707   9.222  13.092   2.045
67270SOL    HW2 3708   9.098  13.034   2.110
67271SOL     OW 3709  12.285   1.057   4.686
67271SOL    HW1 3710  12.284   1.114   4.763
67271SOL    HW2 3711  12.324   1.111   4.617
67272SOL     OW 3712   2.187   8.881  12.393
67272SOL    HW1 3713   2.175   8.975  12.401
67272SOL    HW2 3714   2.244   8.858  12.466
67273SOL     OW 3715  13.411  11.854   1.427
67273SOL    HW1 3716  13.449  11.941   1.432
67273SOL    HW2 3717  13.404  11.836   1.333
67274SOL     OW 3718   9.522  10.178  14.361
67274SOL    HW1 3719   9.553  10.155  14.274
67274SOL    HW2 3720   9.427  10.172  14.356
67275SOL     OW 3721   4.654   8.740   0.595
67275SOL    HW1 3722   4.585   8.704   0.650
67275SOL    HW2 3723   4.622   8.728   0.505
67276SOL     OW 3724   9.280   7.887  14.231
67276SOL    HW1 3725   9.224   7.809  14.225
67276SOL    HW2 3726   9.227   7.951  14.278
67277SOL     OW 3727  12.589   2.192  10.563
67277SOL    HW1 3728  12.609   2.116  10.508
67277SOL    HW2 3729  12.533   2.156  10.633
67278SOL     OW 3730   3.564  14.795   4.410
67278SOL    HW1 3731   3.543  14.751   4.493
67278SOL    HW2 3732   3.653  14.827   4.422
67279SOL     OW 3733   0.874   0.628  11.405
67279SOL    HW1 3734   0.836   0.550  11.365
67279SOL    HW2 3735   0.918   0.673  11.334
67280SOL     OW 3736   9.665   1.015  10.548
67280SOL    HW1 3737   9.672   0.987  10.639
67280SOL    HW2 3738   9.623   1.101  10.552
67281SOL     OW 3739  14.064  14.296  10.969
67281SOL    HW1 3740  14.122  14.306  11.045
67281SOL    HW2 3741  14.048  14.202  10.963
67282SOL     OW 3742  12.856   2.274   7.190
67282SOL    HW1 3743  12.838   2.303   7.280
67282SOL    HW2 3744  12.923   2.335   7.159
67283SOL     OW 3745   5.969   8.232   8.062
67283SOL    HW1 3746   6.025   8.211   7.988
67283SOL    HW2 3747   5.888   8.265   8.022
67284SOL     OW 3748   1.205   6.627   8.382
67284SOL    HW1 3749   1.276   6.563   8.376
67284SOL    HW2 3750   1.233   6.687   8.451
67285SOL     OW 3751  11.962   4.957   9.563
67285SOL    HW1 3752  11.969   4.930   9.654
67285SOL    HW2 3753  12.014   4.893   9.514
67286SOL     OW 3754   6.803   5.999   3.806
67286SOL    HW1 3755   6.849   5.915   3.815
67286SOL    HW2 3756   6.795   6.011   3.711
67287SOL     OW 3757  10.812   2.484  11.059
67287SOL    HW1 3758  10.753   2.545  11.015
67287SOL    HW2 3759  10.755   2.432  11.115
67288SOL     OW 3760   0.189   3.074  13.572
67288SOL    HW1 3761   0.151   3.005  13.518
67288SOL    HW2 3762   0.269   3.036  13.608
67289SOL     OW 3763   7.295   4.892   4.720
67289SOL    HW1 3764   7.310   4.870   4.628
67289SOL    HW2 3765   7.316   4.985   4.727
67290SOL     OW 3766   1.525   6.127  14.867
67290SOL    HW1 3767   1.598   6.187   0.002
67290SOL    HW2 3768   1.541   6.054   0.046
67291SOL     OW 3769   2.935   3.577   4.116
67291SOL    HW1 3770   2.878   3.583   4.193
67291SOL    HW2 3771   2.893   3.512   4.060
67292SOL     OW 3772   7.241   4.931   0.442
67292SOL    HW1 3773   7.169   4.948   0.380
67292SOL    HW2 3774   7.291   5.013   0.443
67293SOL     OW 3775   8.272   1.285  10.182
67293SOL    HW1 3776   8.302   1.216  10.242
67293SOL    HW2 3777   8.203   1.329  10.230
67294SOL     OW 3778   7.559   4.530  11.238
67294SOL    HW1 3779   7.649   4.564  11.242
67294SOL    HW2 3780   7.563   4.459  11.174
67295SOL     OW 3781   0.553   5.141   4.409
67295SOL    HW1 3782   0.642   5.174   4.423
67295SOL    HW2 3783   0.496   5.212   4.438
67296SOL     OW 3784  11.969   2.597  12.074
67296SOL    HW1 3785  12.054   2.618  12.035
67296SOL    HW2 3786  11.984   2.515  12.121
67297SOL     OW 3787   5.314   0.161   6.724
67297SOL    HW1 3788   5.333   0.078   6.768
67297SOL    HW2 3789   5.361   0.157   6.641
67298SOL     OW 3790   2.126   7.786   9.633
67298SOL    HW1 3791   2.107   7.803   9.725
67298SOL    HW2 3792   2.062   7.840   9.585
67299SOL     OW 3793   1.895   6.355   0.660
67299SOL    HW1 3794   1.826   6.403   0.613
67299SOL    HW2 3795   1.967   6.417   0.666
67300SOL     OW 3796   3.313   0.142  14.139
67300SOL    HW1 3797   3.251   0.214  14.133
67300SOL    HW2 3798   3.259   0.065  14.157
67301SOL     OW 3799   5.878   3.291   4.606
67301SOL    HW1 3800   5.902   3.357   4.541
67301SOL    HW2 3801   5.944   3.299   4.675
67302SOL     OW 3802  11.420   6.858   7.563
67302SOL    HW1 3803  11.506   6.816   7.556
67302SOL    HW2 3804  11.414   6.913   7.485
67303SOL     OW 3805   1.577   0.631  14.531
67303SOL    HW1 3806   1.494   0.624  14.483
67303SOL    HW2 3807   1.551   0.661  14.619
67304SOL     OW 3808   3.172  11.148   3.951
67304SOL    HW1 3809   3.187  11.099   3.870
67304SOL    HW2 3810   3.078  11.161   3.954
67305SOL     OW 3811  13.901   0.335  13.937
67305SOL    HW1 3812  13.862   0.249  13.923
67305SOL    HW2 3813  13.841   0.396  13.894
67306SOL     OW 3814  12.453  12.357  11.218
67306SOL    HW1 3815  12.494  12.429  11.266
67306SOL    HW2 3816  12.387  12.323  11.278
67307SOL     OW 3817  12.266   6.325   2.131
67307SOL    HW1 3818  12.296   6.258   2.192
67307SOL    HW2 3819  12.343   6.348   2.080
67308SOL     OW 3820  13.849   3.194   8.621
67308SOL    HW1 3821  13.802   3.131   8.676
67308SOL    HW2 3822  13.876   3.263   8.682
67309SOL     OW 3823   0.634   1.565  12.502
67309SOL    HW1 3824   0.540   1.567  12.484
67309SOL    HW2 3825   0.651   1.474  12.528
67310SOL     OW 3826   4.237   2.864   5.933
67310SOL    HW1 3827   4.196   2.930   5.989
67310SOL    HW2 3828   4.296   2.914   5.877
67311SOL     OW 3829   5.337  13.346   7.375
67311SOL    HW1 3830   5.372  13.284   7.440
67311SOL    HW2 3831   5.409  13.406   7.359
67312SOL     OW 3832   4.019  12.736   2.107
67312SOL    HW1 3833   3.969  12.738   2.025
67312SOL    HW2 3834   4.074  12.814   2.103
67313SOL     OW 3835  10.329   3.403   9.644
67313SOL    HW1 3836  10.317   3.459   9.567
67313SOL    HW2 3837  10.368   3.323   9.609
67314SOL     OW 3838   2.043   3.754  13.409
67314SOL    HW1 3839   2.137   3.742  13.396
67314SOL    HW2 3840   2.024   3.841  13.374
67315SOL     OW 3841   3.831   3.805  11.063
67315SOL    HW1 3842   3.881   3.882  11.090
67315SOL    HW2 3843   3.896   3.734  11.061
67316SOL     OW 3844   3.146   0.534  13.803
67316SOL    HW1 3845   3.072   0.531  13.864
67316SOL    HW2 3846   3.212   0.588  13.847
67317SOL     OW 3847   2.023  12.936  13.092
67317SOL    HW1 3848   2.024  12.856  13.040
67317SOL    HW2 3849   1.934  12.970  13.081
67318SOL     OW 3850  11.796   0.734   3.496
67318SOL    HW1 3851  11.774   0.669   3.430
67318SOL    HW2 3852  11.771   0.818   3.456
67319SOL     OW 3853   2.402   4.634  10.398
67319SOL    HW1 3854   2.450   4.611  10.319
67319SOL    HW2 3855   2.422   4.565  10.461
67320SOL     OW 3856   0.079  10.202  10.899
67320SOL    HW1 3857   0.175  10.209  10.904
67320SOL    HW2 3858   0.051  10.188  10.990
67321SOL     OW 3859   0.635  11.309   1.400
67321SOL    HW1 3860   0.681  11.297   1.317
67321SOL    HW2 3861   0.599  11.397   1.395
67322SOL     OW 3862   0.389   7.081   9.897
67322SOL    HW1 3863   0.370   7.091   9.990
67322SOL    HW2 3864   0.413   6.988   9.888
67323SOL     OW 3865  13.358  12.019  10.108
67323SOL    HW1 3866  13.319  12.024  10.021
67323SOL    HW2 3867  13.301  11.959  10.156
67324SOL     OW 3868   4.861   3.923   7.017
67324SOL    HW1 3869   4.845   4.017   7.020
67324SOL    HW2 3870   4.878   3.899   7.108
67325SOL     OW 3871   4.923  11.828   3.683
67325SOL    HW1 3872   5.002  11.812   3.736
67325SOL    HW2 3873   4.851  11.829   3.746
67326SOL     OW 3874   4.521   9.513   8.491
67326SOL    HW1 3875   4.491   9.429   8.456
67326SOL    HW2 3876   4.559   9.492   8.576
67327SOL     OW 3877   7.805   3.020   4.356
67327SOL    HW1 3878   7.763   3.004   4.271
67327SOL    HW2 3879   7.777   2.947   4.411
67328SOL     OW 3880   1.551   9.821  13.055
67328SOL    HW1 3881   1.583   9.734  13.031
67328SOL    HW2 3882   1.625   9.880  13.038
67329SOL     OW 3883   4.347   3.096   0.344
67329SOL    HW1 3884   4.395   3.115   0.425
67329SOL    HW2 3885   4.379   3.010   0.317
67330SOL     OW 3886  14.784   6.945   1.923
67330SOL    HW1 3887  14.816   6.918   1.836
67330SOL    HW2 3888  14.690   6.955   1.911
67331SOL     OW 3889  10.698   0.283   2.292
67331SOL    HW1 3890  10.700   0.238   2.377
67331SOL    HW2 3891  10.667   0.217   2.231
67332SOL     OW 3892   3.049   5.712   1.541
67332SOL    HW1 3893   3.131   5.668   1.561
67332SOL    HW2 3894   3.059   5.800   1.578
67333SOL     OW 3895  12.976   5.816   7.858
67333SOL    HW1 3896  13.071   5.821   7.868
67333SOL    HW2 3897  12.957   5.869   7.780
67334SOL     OW 3898   1.891  11.198   6.393
67334SOL    HW1 3899   1.962  11.231   6.339
67334SOL    HW2 3900   1.817  11.256   6.373
67335SOL     OW 3901  11.812   4.421   0.363
67335SOL    HW1 3902  11.875   4.379   0.422
67335SOL    HW2 3903  11.857   4.427   0.279
67336SOL     OW 3904   2.318  10.737  12.476
67336SOL    HW1 3905   2.372  10.772  12.547
67336SOL    HW2 3906   2.380  10.703  12.413
67337SOL     OW 3907  10.572   3.424   5.364
67337SOL    HW1 3908  10.545   3.516   5.362
67337SOL    HW2 3909  10.603   3.410   5.454
67338SOL     OW 3910   8.170   5.843   4.317
67338SOL    HW1 3911   8.239   5.909   4.310
67338SOL    HW2 3912   8.209   5.772   4.368
67339SOL     OW 3913   8.973   3.976   1.192
67339SOL    HW1 3914   8.884   4.003   1.214
67339SOL    HW2 3915   8.988   3.898   1.244
67340SOL     OW 3916   9.518   2.346   8.506
67340SOL    HW1 3917   9.483   2.376   8.590
67340SOL    HW2 3918   9.545   2.256   8.522
67341SOL     OW 3919  13.291  14.666   1.431
67341SOL    HW1 3920  13.228  14.605   1.392
67341SOL    HW2 3921  13.309  14.630   1.518
67342SOL     OW 3922  12.857   8.182   5.554
67342SOL    HW1 3923  12.833   8.262   5.507
67342SOL    HW2 3924  12.850   8.204   5.646
67343SOL     OW 3925   8.731   6.814  10.598
67343SOL    HW1 3926   8.748   6.810  10.503
67343SOL    HW2 3927   8.817   6.810  10.638
67344SOL     OW 3928  12.699  10.803  10.507
67344SOL    HW1 3929  12.725  10.854  10.584
67344SOL    HW2 3930  12.725  10.858  10.432
67345SOL     OW 3931   8.877   5.757   8.580
67345SOL    HW1 3932   8.861   5.813   8.656
67345SOL    HW2 3933   8.972   5.757   8.569
67346SOL     OW 3934   1.325   1.069   7.119
67346SOL    HW1 3935   1.332   1.095   7.027
67346SOL    HW2 3936   1.389   1.125   7.164
67347SOL     OW 3937   9.752   1.217   5.322
67347SOL    HW1 3938   9.756   1.313   5.318
67347SOL    HW2 3939   9.829   1.192   5.373
67348SOL     OW 3940  12.081   8.730   0.446
67348SOL    HW1 3941  12.173   8.710   0.464
67348SOL    HW2 3942  12.062   8.681   0.365
67349SOL     OW 3943   2.306   6.912   9.405
67349SOL    HW1 3944   2.270   6.926   9.318
67349SOL    HW2 3945   2.240   6.946   9.465
67350SOL     OW 3946   4.046  13.586  12.955
67350SOL    HW1 3947   3.996  13.566  13.035
67350SOL    HW2 3948   4.059  13.500  12.914
67351SOL     OW 3949   1.476  11.884   6.254
67351SOL    HW1 3950   1.406  11.828   6.221
67351SOL    HW2 3951   1.529  11.827   6.310
67352SOL     OW 3952   8.097   6.132  11.664
67352SOL    HW1 3953   8.156   6.206  11.646
67352SOL    HW2 3954   8.044   6.125  11.584
67353SOL     OW 3955  12.413   0.639   0.861
67353SOL    HW1 3956  12.318   0.627   0.868
67353SOL    HW2 3957  12.435   0.603   0.775
67354SOL     OW 3958   8.179  11.324  12.026
67354SOL    HW1 3959   8.093  11.329  12.069
67354SOL    HW2 3960   8.163  11.271  11.948
67355SOL     OW 3961  11.213   5.838  14.362
67355SOL    HW1 3962  11.207   5.896  14.438
67355SOL    HW2 3963  11.259   5.890  14.296
67356SOL     OW 3964  11.050  14.640   8.951
67356SOL    HW1 3965  10.980  14.577   8.930
67356SOL    HW2 3966  11.131  14.593   8.929
67357SOL     OW 3967  14.097  10.192   0.157
67357SOL    HW1 3968  14.091  10.159   0.247
67357SOL    HW2 3969  14.012  10.232   0.140
67358SOL     OW 3970  11.760   3.595   2.641
67358SOL    HW1 3971  11.675   3.585   2.599
67358SOL    HW2 3972  11.808   3.515   2.618
67359SOL     OW 3973   6.609  12.846   7.987
67359SOL    HW1 3974   6.703  12.858   7.997
67359SOL    HW2 3975   6.581  12.923   7.937
67360SOL     OW 3976   9.815   2.839   1.175
67360SOL    HW1 3977   9.876   2.784   1.126
67360SOL    HW2 3978   9.733   2.834   1.125
67361SOL     OW 3979  13.533   1.101   7.909
67361SOL    HW1 3980  13.499   1.032   7.966
67361SOL    HW2 3981  13.555   1.056   7.827
67362SOL     OW 3982  13.622   6.060   6.087
67362SOL    HW1 3983  13.677   6.130   6.051
67362SOL    HW2 3984  13.656   6.046   6.176
67363SOL     OW 3985   8.796  13.014   0.412
67363SOL    HW1 3986   8.802  13.106   0.439
67363SOL    HW2 3987   8.776  12.966   0.493
67364SOL     OW 3988  14.144  13.008   3.969
67364SOL    HW1 3989  14.198  12.931   3.951
67364SOL    HW2 3990  14.193  13.081   3.930
67365SOL     OW 3991   1.020   2.565   0.129
67365SOL    HW1 3992   1.019   2.482   0.080
67365SOL    HW2 3993   1.104   2.605   0.105
67366SOL     OW 3994   9.260   7.944   7.142
67366SOL    HW1 3995   9.294   7.938   7.231
67366SOL    HW2 3996   9.174   7.986   7.152
67367SOL     OW 3997   1.750  11.517   8.116
67367SOL    HW1 3998   1.785  11.434   8.084
67367SOL    HW2 3999   1.750  11.507   8.212
67368SOL     OW 4000   7.116   4.929  11.655
67368SOL    HW1 4001   7.133   4.894  11.742
67368SOL    HW2 4002   7.192   4.903  11.603
67369SOL     OW 4003   5.200  11.484   8.575
67369SOL    HW1 4004   5.199  11.403   8.525
67369SOL    HW2 4005   5.281  11.479   8.627
67370SOL     OW 4006   8.006   5.027   0.740
67370SOL    HW1 4007   7.944   4.992   0.676
67370SOL    HW2 4008   8.081   4.967   0.737
67371SOL     OW 4009  14.577  12.570   1.305
67371SOL    HW1 4010  14.652  12.526   1.344
67371SOL    HW2 4011  14.614  12.648   1.263
67372SOL     OW 4012   4.585   4.254  12.288
67372SOL    HW1 4013   4.593   4.203  12.369
67372SOL    HW2 4014   4.493   4.246  12.263
67373SOL     OW 4015   0.657  12.075   2.307
67373SOL    HW1 4016   0.701  12.147   2.262
67373SOL    HW2 4017   0.643  12.107   2.396
67374SOL     OW 4018  12.467  10.642   2.016
67374SOL    HW1 4019  12.411  10.718   2.029
67374SOL    HW2 4020  12.468  10.598   2.101
67375SOL     OW 4021  12.601  13.683   4.647
67375SOL    HW1 4022  12.675  13.725   4.690
67375SOL    HW2 4023  12.612  13.701   4.554
67376SOL     OW 4024   3.806   7.105   7.286
67376SOL    HW1 4025   3.862   7.064   7.220
67376SOL    HW2 4026   3.823   7.055   7.366
67377SOL     OW 4027  10.633   2.293  10.438
67377SOL    HW1 4028  10.542   2.263  10.448
67377SOL    HW2 4029  10.686   2.218  10.461
67378SOL     OW 4030   8.087   2.696   3.004
67378SOL    HW1 4031   8.110   2.607   3.030
67378SOL    HW2 4032   8.157   2.723   2.945
67379SOL     OW 4033   5.110   0.336   4.609
67379SOL    HW1 4034   5.170   0.262   4.619
67379SOL    HW2 4035   5.111   0.378   4.695
67380SOL     OW 4036  13.553  14.299   1.058
67380SOL    HW1 4037  13.628  14.247   1.031
67380SOL    HW2 4038  13.480  14.237   1.061
67381SOL     OW 4039  10.328  14.444  10.446
67381SOL    HW1 4040  10.401  14.433  10.385
67381SOL    HW2 4041  10.255  14.471  10.390
67382SOL     OW 4042   5.795   0.856   0.050
67382SOL    HW1 4043   5.753   0.898   0.126
67382SOL    HW2 4044   5.853   0.791   0.088
67383SOL     OW 4045   8.095   2.230   5.550
67383SOL    HW1 4046   8.021   2.290   5.560
67383SOL    HW2 4047   8.137   2.229   5.636
67384SOL     OW 4048   0.242   5.207  14.203
67384SOL    HW1 4049   0.300   5.263  14.152
67384SOL    HW2 4050   0.214   5.262  14.276
67385SOL     OW 4051   9.131   0.572  12.941
67385SOL    HW1 4052   9.091   0.569  13.028
67385SOL    HW2 4053   9.075   0.515  12.887
67386SOL     OW 4054   5.929   9.165  11.725
67386SOL    HW1 4055   5.960   9.240  11.776
67386SOL    HW2 4056   5.963   9.089  11.773
67387SOL     OW 4057   0.623   2.324   3.878
67387SOL    HW1 4058   0.649   2.258   3.814
67387SOL    HW2 4059   0.566   2.384   3.829
67388SOL     OW 4060   4.831   9.638   8.731
67388SOL    HW1 4061   4.759   9.576   8.718
67388SOL    HW2 4062   4.884   9.598   8.800
67389SOL     OW 4063   1.812   0.213   5.541
67389SOL    HW1 4064   1.789   0.127   5.507
67389SOL    HW2 4065   1.907   0.215   5.540
67390SOL     OW 4066  12.363   4.597   8.467
67390SOL    HW1 4067  12.404   4.668   8.419
67390SOL    HW2 4068  12.355   4.526   8.404
67391SOL     OW 4069  14.585  10.928   3.546
67391SOL    HW1 4070  14.521  10.876   3.593
67391SOL    HW2 4071  14.664  10.873   3.543
67392SOL     OW 4072   8.957  12.430  11.469
67392SOL    HW1 4073   8.962  12.483  11.390
67392SOL    HW2 4074   8.911  12.351  11.443
67393SOL     OW 4075   9.440   3.782  10.042
67393SOL    HW1 4076   9.433   3.762   9.949
67393SOL    HW2 4077   9.350   3.796  10.071
67394SOL     OW 4078   8.628   7.064   1.618
67394SOL    HW1 4079   8.637   7.052   1.713
67394SOL    HW2 4080   8.666   6.985   1.580
67395SOL     OW 4081   4.457  13.536   2.526
67395SOL    HW1 4082   4.380  13.511   2.474
67395SOL    HW2 4083   4.502  13.453   2.543
67396SOL     OW 4084   6.009   1.530   5.498
67396SOL    HW1 4085   5.948   1.489   5.559
67396SOL    HW2 4086   5.987   1.493   5.413
67397SOL     OW 4087   4.350   8.170  12.655
67397SOL    HW1 4088   4.433   8.164  12.703
67397SOL    HW2 4089   4.363   8.114  12.578
67398SOL     OW 4090   8.891   6.913  13.806
67398SOL    HW1 4091   8.861   6.922  13.715
67398SOL    HW2 4092   8.985   6.894  13.798
67399SOL     OW 4093   1.343   1.411   3.154
67399SOL    HW1 4094   1.324   1.419   3.060
67399SOL    HW2 4095   1.429   1.369   3.156
67400SOL     OW 4096   5.051   4.102   7.803
67400SOL    HW1 4097   5.101   4.134   7.728
67400SOL    HW2 4098   5.087   4.150   7.878
67401SOL     OW 4099   8.633  13.444  11.447
67401SOL    HW1 4100   8.614  13.511  11.513
67401SOL    HW2 4101   8.720  13.466  11.415
67402SOL     OW 4102   4.389   3.225  11.186
67402SOL    HW1 4103   4.331   3.151  11.203
67402SOL    HW2 4104   4.475   3.185  11.170
67403SOL     OW 4105   8.074   4.363   5.546
67403SOL    HW1 4106   8.071   4.313   5.465
67403SOL    HW2 4107   8.152   4.331   5.591
67404SOL     OW 4108   4.053   9.581  11.757
67404SOL    HW1 4109   4.060   9.501  11.704
67404SOL    HW2 4110   3.977   9.566  11.812
67405SOL     OW 4111  10.386   4.322   3.371
67405SOL    HW1 4112  10.406   4.358   3.458
67405SOL    HW2 4113  10.353   4.234   3.388
67406SOL     OW 4114   4.152  14.722  10.104
67406SOL    HW1 4115   4.089  14.739  10.174
67406SOL    HW2 4116   4.177  14.630  10.114
67407SOL     OW 4117  13.417   3.044   5.926
67407SOL    HW1 4118  13.483   3.098   5.882
67407SOL    HW2 4119  13.360   3.108   5.969
67408SOL     OW 4120  14.788   0.856  14.083
67408SOL    HW1 4121  14.840   0.934  14.103
67408SOL    HW2 4122  14.697   0.885  14.089
67409SOL     OW 4123   2.686  11.685  10.537
67409SOL    HW1 4124   2.741  11.611  10.562
67409SOL    HW2 4125   2.715  11.709  10.449
67410SOL     OW 4126   1.588   8.351  10.918
67410SOL    HW1 4127   1.567   8.294  10.844
67410SOL    HW2 4128   1.548   8.435  10.896
67411SOL     OW 4129  11.180   0.765   3.238
67411SOL    HW1 4130  11.107   0.711   3.270
67411SOL    HW2 4131  11.144   0.853   3.231
67412SOL     OW 4132   3.735  11.696  13.534
67412SOL    HW1 4133   3.658  11.680  13.589
67412SOL    HW2 4134   3.711  11.659  13.449
67413SOL     OW 4135   4.107  10.825   0.225
67413SOL    HW1 4136   4.200  10.840   0.205
67413SOL    HW2 4137   4.072  10.912   0.242
67414SOL     OW 4138   1.337   4.260   2.615
67414SOL    HW1 4139   1.431   4.250   2.607
67414SOL    HW2 4140   1.325   4.308   2.698
67415SOL     OW 4141   1.826   3.243  12.859
67415SOL    HW1 4142   1.882   3.318  12.841
67415SOL    HW2 4143   1.884   3.167  12.854
67416SOL     OW 4144   2.742  14.619   9.069
67416SOL    HW1 4145   2.767  14.544   9.015
67416SOL    HW2 4146   2.647  14.625   9.059
67417SOL     OW 4147   8.810  14.221   6.321
67417SOL    HW1 4148   8.902  14.237   6.342
67417SOL    HW2 4149   8.782  14.298   6.272
67418SOL     OW 4150  10.810   6.071   1.879
67418SOL    HW1 4151  10.749   6.052   1.808
67418SOL    HW2 4152  10.892   6.094   1.836
67419SOL     OW 4153  14.834  11.383   9.496
67419SOL    HW1 4154  14.826  11.373   9.591
67419SOL    HW2 4155  14.852  11.476   9.483
67420SOL     OW 4156   0.491   4.941   0.648
67420SOL    HW1 4157   0.482   5.014   0.586
67420SOL    HW2 4158   0.436   4.967   0.722
67421SOL     OW 4159   3.417   5.499   8.880
67421SOL    HW1 4160   3.453   5.518   8.966
67421SOL    HW2 4161   3.482   5.442   8.839
67422SOL     OW 4162   5.372   3.327  13.597
67422SOL    HW1 4163   5.287   3.343  13.558
67422SOL    HW2 4164   5.353   3.286  13.681
67423SOL     OW 4165   7.785   7.923   9.843
67423SOL    HW1 4166   7.788   7.890   9.932
67423SOL    HW2 4167   7.769   7.846   9.788
67424SOL     OW 4168   2.601   2.668   5.276
67424SOL    HW1 4169   2.542   2.723   5.224
67424SOL    HW2 4170   2.655   2.730   5.325
67425SOL     OW 4171  11.306   4.542   1.033
67425SOL    HW1 4172  11.271   4.610   0.975
67425SOL    HW2 4173  11.231   4.485   1.051
67426SOL     OW 4174   5.889  12.079  13.422
67426SOL    HW1 4175   5.936  12.119  13.349
67426SOL    HW2 4176   5.839  12.151  13.460
67427SOL     OW 4177  11.366   2.023   3.227
67427SOL    HW1 4178  11.404   1.992   3.144
67427SOL    HW2 4179  11.357   2.117   3.215
67428SOL     OW 4180  13.222  10.657  11.387
67428SOL    HW1 4181  13.306  10.703  11.380
67428SOL    HW2 4182  13.170  10.690  11.313
67429SOL     OW 4183   9.462  13.667   3.267
67429SOL    HW1 4184   9.514  13.633   3.340
67429SOL    HW2 4185   9.525  13.681   3.197
67430SOL     OW 4186   0.454   6.915   8.276
67430SOL    HW1 4187   0.513   6.980   8.315
67430SOL    HW2 4188   0.448   6.940   8.184
67431SOL     OW 4189   4.352   3.846   1.933
67431SOL    HW1 4190   4.336   3.860   1.839
67431SOL    HW2 4191   4.315   3.760   1.951
67432SOL     OW 4192   3.682   0.402   1.606
67432SOL    HW1 4193   3.713   0.456   1.679
67432SOL    HW2 4194   3.760   0.356   1.576
67433SOL     OW 4195   6.924   8.865   8.859
67433SOL    HW1 4196   6.843   8.815   8.865
67433SOL    HW2 4197   6.992   8.804   8.888
67434SOL     OW 4198   0.975  10.395   2.554
67434SOL    HW1 4199   0.935  10.458   2.614
67434SOL    HW2 4200   1.063  10.380   2.590
67435SOL     OW 4201   5.209  14.586  14.471
67435SOL    HW1 4202   5.157  14.514  14.508
67435SOL    HW2 4203   5.287  14.543  14.437
67436SOL     OW 4204  11.083  11.520   6.468
67436SOL    HW1 4205  10.997  11.478   6.457
67436SOL    HW2 4206  11.110  11.495   6.556
67437SOL     OW 4207   6.930  14.367   9.822
67437SOL    HW1 4208   6.888  14.396   9.903
67437SOL    HW2 4209   6.934  14.445   9.767
67438SOL     OW 4210   1.303  11.707   3.805
67438SOL    HW1 4211   1.217  11.684   3.768
67438SOL    HW2 4212   1.321  11.795   3.772
67439SOL     OW 4213   3.651   3.058   5.740
67439SOL    HW1 4214   3.559   3.046   5.718
67439SOL    HW2 4215   3.662   3.153   5.746
67440SOL     OW 4216  12.422  13.169  12.016
67440SOL    HW1 4217  12.429  13.083  11.974
67440SOL    HW2 4218  12.513  13.198  12.026
67441SOL     OW 4219   3.450  12.634   3.727
67441SOL    HW1 4220   3.535  12.602   3.757
67441SOL    HW2 4221   3.389  12.611   3.797
67442SOL     OW 4222  14.741   9.413  10.204
67442SOL    HW1 4223  14.683   9.341  10.177
67442SOL    HW2 4224  14.709   9.437  10.291
67443SOL     OW 4225   6.430   0.335   8.306
67443SOL    HW1 4226   6.376   0.398   8.259
67443SOL    HW2 4227   6.493   0.389   8.354
67444SOL     OW 4228  11.227  12.583   7.245
67444SOL    HW1 4229  11.300  12.523   7.262
67444SOL    HW2 4230  11.203  12.617   7.331
67445SOL     OW 4231  14.398  13.010  14.571
67445SOL    HW1 4232  14.314  13.007  14.616
67445SOL    HW2 4233  14.463  13.002  14.641
67446SOL     OW 4234   3.107  14.863   3.959
67446SOL    HW1 4235   3.181   0.037   3.929
67446SOL    HW2 4236   3.039  14.878   3.893
67447SOL     OW 4237   2.512  13.086   1.437
67447SOL    HW1 4238   2.513  13.153   1.505
67447SOL    HW2 4239   2.502  13.134   1.355
67448SOL     OW 4240   8.263  10.363   7.187
67448SOL    HW1 4241   8.205  10.341   7.260
67448SOL    HW2 4242   8.334  10.412   7.227
67449SOL     OW 4243   1.374   1.834  14.126
67449SOL    HW1 4244   1.431   1.857  14.199
67449SOL    HW2 4245   1.297   1.795  14.168
67450SOL     OW 4246   6.950  12.007  14.425
67450SOL    HW1 4247   6.895  11.937  14.461
67450SOL    HW2 4248   6.889  12.075  14.399
67451SOL     OW 4249   3.937   9.133  14.345
67451SOL    HW1 4250   3.903   9.155  14.258
67451SOL    HW2 4251   3.900   9.201  14.403
67452SOL     OW 4252   9.960   2.139  11.140
67452SOL    HW1 4253   9.948   2.084  11.063
67452SOL    HW2 4254   9.871   2.157  11.171
67453SOL     OW 4255   9.763   3.554   0.163
67453SOL    HW1 4256   9.764   3.631   0.106
67453SOL    HW2 4257   9.804   3.584   0.244
67454SOL     OW 4258  11.501   4.676  13.397
67454SOL    HW1 4259  11.552   4.609  13.351
67454SOL    HW2 4260  11.550   4.693  13.478
67455SOL     OW 4261  13.530   7.015  13.155
67455SOL    HW1 4262  13.554   7.082  13.092
67455SOL    HW2 4263  13.443   7.042  13.187
67456SOL     OW 4264   3.295   7.170   2.122
67456SOL    HW1 4265   3.307   7.241   2.059
67456SOL    HW2 4266   3.382   7.131   2.130
67457SOL     OW 4267   1.582  11.464  14.240
67457SOL    HW1 4268   1.570  11.529  14.309
67457SOL    HW2 4269   1.637  11.507  14.175
67458SOL     OW 4270  11.091   6.932   9.642
67458SOL    HW1 4271  11.135   6.986   9.707
67458SOL    HW2 4272  11.124   6.962   9.557
67459SOL     OW 4273   0.906   3.237  13.366
67459SOL    HW1 4274   0.825   3.225  13.416
67459SOL    HW2 4275   0.962   3.164  13.393
67460SOL     OW 4276   1.979  11.378  10.706
67460SOL    HW1 4277   1.965  11.291  10.743
67460SOL    HW2 4278   1.928  11.378  10.625
67461SOL     OW 4279   6.136   5.967   7.812
67461SOL    HW1 4280   6.159   6.013   7.893
67461SOL    HW2 4281   6.043   5.985   7.801
67462SOL     OW 4282  10.494   9.189   4.205
67462SOL    HW1 4283  10.403   9.193   4.179
67462SOL    HW2 4284  10.499   9.240   4.286
67463SOL     OW 4285   1.562  12.354   2.627
67463SOL    HW1 4286   1.574  12.287   2.693
67463SOL    HW2 4287   1.638  12.347   2.570
67464SOL     OW 4288   3.509   9.794  10.057
67464SOL    HW1 4289   3.460   9.836   9.987
67464SOL    HW2 4290   3.509   9.858  10.128
67465SOL     OW 4291   4.474   9.242   8.463
67465SOL    HW1 4292   4.523   9.191   8.527
67465SOL    HW2 4293   4.393   9.192   8.449
67466SOL     OW 4294   4.395  13.881  11.840
67466SOL    HW1 4295   4.393  13.947  11.771
67466SOL    HW2 4296   4.320  13.902  11.895
67467SOL     OW 4297   5.229   3.040   4.445
67467SOL    HW1 4298   5.282   3.053   4.366
67467SOL    HW2 4299   5.174   2.965   4.424
67468SOL     OW 4300  11.851   6.854   5.228
67468SOL    HW1 4301  11.838   6.822   5.139
67468SOL    HW2 4302  11.905   6.788   5.270
67469SOL     OW 4303   5.312  11.692  11.422
67469SOL    HW1 4304   5.383  11.657  11.368
67469SOL    HW2 4305   5.345  11.685  11.512
67470SOL     OW 4306   2.517  12.982   3.581
67470SOL    HW1 4307   2.480  12.907   3.535
67470SOL    HW2 4308   2.511  12.958   3.674
67471SOL     OW 4309   5.361  13.436  11.809
67471SOL    HW1 4310   5.310  13.515  11.789
67471SOL    HW2 4311   5.320  13.368  11.756
67472SOL     OW 4312  10.301   3.556   2.430
67472SOL    HW1 4313  10.375   3.504   2.398
67472SOL    HW2 4314  10.338   3.610   2.499
67473SOL     OW 4315   7.870  14.877   4.934
67473SOL    HW1 4316   7.897   0.009   4.843
67473SOL    HW2 4317   7.934   0.047   4.985
67474SOL     OW 4318   0.294   6.664   5.208
67474SOL    HW1 4319   0.277   6.635   5.297
67474SOL    HW2 4320   0.217   6.715   5.184
67475SOL     OW 4321  11.988   9.402  14.160
67475SOL    HW1 4322  11.966   9.310  14.171
67475SOL    HW2 4323  12.083   9.405  14.174
67476SOL     OW 4324   0.886  11.564   8.403
67476SOL    HW1 4325   0.836  11.633   8.360
67476SOL    HW2 4326   0.928  11.606   8.477
67477SOL     OW 4327  10.690   7.990  11.088
67477SOL    HW1 4328  10.723   7.958  11.172
67477SOL    HW2 4329  10.595   7.979  11.093
67478SOL     OW 4330   0.645   3.251   6.842
67478SOL    HW1 4331   0.582   3.323   6.846
67478SOL    HW2 4332   0.607   3.183   6.897
67479SOL     OW 4333   9.910   0.909   5.548
67479SOL    HW1 4334   9.980   0.968   5.577
67479SOL    HW2 4335   9.903   0.925   5.454
67480SOL     OW 4336   6.842   8.602   9.192
67480SOL    HW1 4337   6.803   8.689   9.196
67480SOL    HW2 4338   6.768   8.543   9.185
67481SOL     OW 4339   9.581   8.778  14.502
67481SOL    HW1 4340   9.493   8.756  14.532
67481SOL    HW2 4341   9.613   8.698  14.460
67482SOL     OW 4342  11.544   7.764   4.987
67482SOL    HW1 4343  11.517   7.754   4.896
67482SOL    HW2 4344  11.527   7.678   5.027
67483SOL     OW 4345   3.616   5.425   7.388
67483SOL    HW1 4346   3.632   5.506   7.437
67483SOL    HW2 4347   3.603   5.358   7.455
67484SOL     OW 4348   7.392  14.560  12.744
67484SOL    HW1 4349   7.366  14.474  12.774
67484SOL    HW2 4350   7.310  14.610  12.738
67485SOL     OW 4351   5.023   9.458   6.199
67485SOL    HW1 4352   4.929   9.468   6.215
67485SOL    HW2 4353   5.064   9.475   6.283
67486SOL     OW 4354   8.854   8.832   5.441
67486SOL    HW1 4355   8.769   8.840   5.485
67486SOL    HW2 4356   8.871   8.738   5.439
67487SOL     OW 4357   5.505  11.018   3.932
67487SOL    HW1 4358   5.440  11.025   4.002
67487SOL    HW2 4359   5.531  10.925   3.933
67488SOL     OW 4360   9.442  11.261   9.065
67488SOL    HW1 4361   9.489  11.236   9.145
67488SOL    HW2 4362   9.358  11.215   9.072
67489SOL     OW 4363   6.757  13.541   8.372
67489SOL    HW1 4364   6.744  13.635   8.380
67489SOL    HW2 4365   6.710  13.504   8.447
67490SOL     OW 4366   4.595   2.328   0.501
67490SOL    HW1 4367   4.682   2.356   0.530
67490SOL    HW2 4368   4.588   2.359   0.411
67491SOL     OW 4369   6.901   3.777  12.717
67491SOL    HW1 4370   6.936   3.695  12.682
67491SOL    HW2 4371   6.975   3.819  12.761
67492SOL     OW 4372   2.440   3.743  10.781
67492SOL    HW1 4373   2.375   3.801  10.821
67492SOL    HW2 4374   2.413   3.655  10.806
67493SOL     OW 4375   6.782   5.059   2.838
67493SOL    HW1 4376   6.840   5.040   2.911
67493SOL    HW2 4377   6.840   5.062   2.762
67494SOL     OW 4378   2.205  13.927   9.475
67494SOL    HW1 4379   2.124  13.979   9.479
67494SOL    HW2 4380   2.273  13.989   9.450
67495SOL     OW 4381   9.133  10.243   5.712
67495SOL    HW1 4382   9.050  10.289   5.727
67495SOL    HW2 4383   9.158  10.268   5.623
67496SOL     OW 4384  11.228  11.949   3.551
67496SOL    HW1 4385  11.285  12.024   3.566
67496SOL    HW2 4386  11.285  11.872   3.559
67497SOL     OW 4387   6.699  11.459   3.097
67497SOL    HW1 4388   6.692  11.408   3.177
67497SOL    HW2 4389   6.741  11.401   3.034
67498SOL     OW 4390   9.251   9.720  12.785
67498SOL    HW1 4391   9.328   9.700  12.838
67498SOL    HW2 4392   9.202   9.784  12.838
67499SOL     OW 4393   7.432   7.794  14.460
67499SOL    HW1 4394   7.443   7.794  14.365
67499SOL    HW2 4395   7.522   7.788  14.494
67500SOL     OW 4396   6.027   1.607   6.956
67500SOL    HW1 4397   6.113   1.600   6.998
67500SOL    HW2 4398   6.009   1.519   6.923
67501SOL     OW 4399   9.969   7.883  10.719
67501SOL    HW1 4400   9.966   7.832  10.800
67501SOL    HW2 4401   9.918   7.831  10.656
67502SOL     OW 4402   1.672   6.200  14.620
67502SOL    HW1 4403   1.582   6.171  14.634
67502SOL    HW2 4404   1.707   6.213  14.708
67503SOL     OW 4405   6.122   5.662   2.909
67503SOL    HW1 4406   6.141   5.594   2.844
67503SOL    HW2 4407   6.143   5.744   2.865
67504SOL     OW 4408  11.253   5.940   2.631
67504SOL    HW1 4409  11.194   6.016   2.638
67504SOL    HW2 4410  11.258   5.906   2.720
67505SOL     OW 4411  13.996   4.036   4.946
67505SOL    HW1 4412  14.044   4.112   4.980
67505SOL    HW2 4413  13.905   4.066   4.942
67506SOL     OW 4414   7.734   7.930  11.073
67506SOL    HW1 4415   7.770   7.843  11.057
67506SOL    HW2 4416   7.686   7.921  11.155
67507SOL     OW 4417  11.849   3.960  10.638
67507SOL    HW1 4418  11.835   3.878  10.685
67507SOL    HW2 4419  11.857   3.934  10.546
67508SOL     OW 4420  11.678   1.037  13.250
67508SOL    HW1 4421  11.626   1.072  13.178
67508SOL    HW2 4422  11.730   0.967  13.210
67509SOL     OW 4423  10.727  14.139   3.707
67509SOL    HW1 4424  10.798  14.203   3.710
67509SOL    HW2 4425  10.697  14.142   3.616
67510SOL     OW 4426  12.631  14.204   8.496
67510SOL    HW1 4427  12.556  14.261   8.510
67510SOL    HW2 4428  12.630  14.186   8.402
67511SOL     OW 4429   5.897  14.719  11.038
67511SOL    HW1 4430   5.817  14.761  11.007
67511SOL    HW2 4431   5.934  14.677  10.960
67512SOL     OW 4432   9.530   4.558  11.208
67512SOL    HW1 4433   9.522   4.467  11.236
67512SOL    HW2 4434   9.589   4.597  11.273
67513SOL     OW 4435   6.376   3.170   9.966
67513SOL    HW1 4436   6.374   3.090   9.914
67513SOL    HW2 4437   6.465   3.174  10.001
67514SOL     OW 4438   9.209   2.396  12.731
67514SOL    HW1 4439   9.131   2.405  12.676
67514SOL    HW2 4440   9.265   2.469  12.705
67515SOL     OW 4441   9.816   7.466   4.186
67515SOL    HW1 4442   9.855   7.532   4.244
67515SOL    HW2 4443   9.722   7.472   4.204
67516SOL     OW 4444   9.602  12.026   7.499
67516SOL    HW1 4445   9.629  12.085   7.428
67516SOL    HW2 4446   9.667  12.042   7.568
67517SOL     OW 4447   3.745   1.838   8.281
67517SOL    HW1 4448   3.782   1.909   8.228
67517SOL    HW2 4449   3.821   1.801   8.327
67518SOL     OW 4450   3.044   4.655   8.811
67518SOL    HW1 4451   2.977   4.612   8.757
67518SOL    HW2 4452   2.996   4.693   8.884
67519SOL     OW 4453  13.213   5.734  10.443
67519SOL    HW1 4454  13.282   5.721  10.509
67519SOL    HW2 4455  13.259   5.727  10.359
67520SOL     OW 4456   0.213   5.874   5.165
67520SOL    HW1 4457   0.267   5.810   5.210
67520SOL    HW2 4458   0.220   5.954   5.217
67521SOL     OW 4459  13.857   5.950   0.642
67521SOL    HW1 4460  13.851   6.023   0.703
67521SOL    HW2 4461  13.869   5.873   0.698
67522SOL     OW 4462  14.470   7.711   9.988
67522SOL    HW1 4463  14.486   7.694  10.081
67522SOL    HW2 4464  14.509   7.797   9.973
67523SOL     OW 4465   1.813   3.492   6.214
67523SOL    HW1 4466   1.735   3.544   6.233
67523SOL    HW2 4467   1.822   3.497   6.119
67524SOL     OW 4468   1.638   0.716   5.452
67524SOL    HW1 4469   1.671   0.631   5.482
67524SOL    HW2 4470   1.576   0.743   5.520
67525SOL     OW 4471   5.062  10.523   3.755
67525SOL    HW1 4472   5.028  10.450   3.703
67525SOL    HW2 4473   5.056  10.492   3.845
67526SOL     OW 4474   6.054  11.486   0.586
67526SOL    HW1 4475   6.068  11.506   0.678
67526SOL    HW2 4476   6.012  11.400   0.586
67527SOL     OW 4477   7.800   6.647   0.677
67527SOL    HW1 4478   7.875   6.602   0.637
67527SOL    HW2 4479   7.726   6.587   0.663
67528SOL     OW 4480  13.723   2.333   2.423
67528SOL    HW1 4481  13.712   2.405   2.485
67528SOL    HW2 4482  13.780   2.271   2.469
67529SOL     OW 4483   3.603   1.981   3.419
67529SOL    HW1 4484   3.679   1.978   3.361
67529SOL    HW2 4485   3.616   2.061   3.471
67530SOL     OW 4486   5.024  11.585   7.848
67530SOL    HW1 4487   5.034  11.491   7.834
67530SOL    HW2 4488   4.930  11.601   7.838
67531SOL     OW 4489   5.156   8.712  11.350
67531SOL    HW1 4490   5.112   8.777  11.405
67531SOL    HW2 4491   5.102   8.707  11.271
67532SOL     OW 4492   9.077   9.051   4.547
67532SOL    HW1 4493   9.099   9.140   4.575
67532SOL    HW2 4494   9.129   9.038   4.467
67533SOL     OW 4495   7.073   1.199   9.972
67533SOL    HW1 4496   7.159   1.160   9.954
67533SOL    HW2 4497   7.017   1.168   9.901
67534SOL     OW 4498  13.125  13.695   0.008
67534SOL    HW1 4499  13.057  13.657   0.063
67534SOL    HW2 4500  13.080  13.760  14.834
67535SOL     OW 4501  10.667   1.068  10.491
67535SOL    HW1 4502  10.733   1.135  10.477
67535SOL    HW2 4503  10.632   1.049  10.404
67536SOL     OW 4504   0.664  10.139  11.034
67536SOL    HW1 4505   0.754  10.111  11.053
67536SOL    HW2 4506   0.651  10.214  11.091
67537SOL     OW 4507   9.015   4.577   8.946
67537SOL    HW1 4508   9.041   4.518   9.017
67537SOL    HW2 4509   8.920   4.565   8.939
67538SOL     OW 4510   4.684   4.750   8.323
67538SOL    HW1 4511   4.740   4.817   8.361
67538SOL    HW2 4512   4.675   4.775   8.231
67539SOL     OW 4513   9.788   9.957   2.462
67539SOL    HW1 4514   9.765  10.025   2.526
67539SOL    HW2 4515   9.769   9.997   2.377
67540SOL     OW 4516   2.874   6.623   8.093
67540SOL    HW1 4517   2.847   6.609   8.184
67540SOL    HW2 4518   2.809   6.683   8.057
67541SOL     OW 4519  12.222  14.275  10.916
67541SOL    HW1 4520  12.210  14.180  10.923
67541SOL    HW2 4521  12.135  14.309  10.895
67542SOL     OW 4522   0.875   3.790   1.634
67542SOL    HW1 4523   0.791   3.748   1.615
67542SOL    HW2 4524   0.854   3.883   1.642
67543SOL     OW 4525   4.942  10.330   0.471
67543SOL    HW1 4526   4.996  10.358   0.397
67543SOL    HW2 4527   4.990  10.359   0.548
67544SOL     OW 4528   0.464   7.360  13.921
67544SOL    HW1 4529   0.417   7.421  13.978
67544SOL    HW2 4530   0.511   7.415  13.859
67545SOL     OW 4531   8.812   4.395  10.659
67545SOL    HW1 4532   8.779   4.376  10.747
67545SOL    HW2 4533   8.882   4.459  10.673
67546SOL     OW 4534  13.467   4.029   9.791
67546SOL    HW1 4535  13.498   4.003   9.705
67546SOL    HW2 4536  13.374   4.049   9.778
67547SOL     OW 4537  10.029   2.988  10.861
67547SOL    HW1 4538  10.022   2.942  10.777
67547SOL    HW2 4539   9.969   2.941  10.919
67548SOL     OW 4540  12.010   4.568   1.408
67548SOL    HW1 4541  12.087   4.619   1.433
67548SOL    HW2 4542  11.939   4.632   1.406
67549SOL     OW 4543  10.078   9.902  10.108
67549SOL    HW1 4544  10.108   9.865  10.025
67549SOL    HW2 4545  10.145   9.874  10.171
67550SOL     OW 4546  13.217   1.114  10.942
67550SOL    HW1 4547  13.217   1.206  10.914
67550SOL    HW2 4548  13.306   1.098  10.972
67551SOL     OW 4549   9.790  14.024   5.452
67551SOL    HW1 4550   9.753  13.936   5.455
67551SOL    HW2 4551   9.883  14.012   5.472
67552SOL     OW 4552  14.481   1.981   7.807
67552SOL    HW1 4553  14.392   1.945   7.804
67552SOL    HW2 4554  14.537   1.904   7.801
67553SOL     OW 4555  12.619   6.077   4.232
67553SOL    HW1 4556  12.538   6.076   4.284
67553SOL    HW2 4557  12.636   6.170   4.217
67554SOL     OW 4558   3.727  10.030   5.259
67554SOL    HW1 4559   3.632  10.041   5.264
67554SOL    HW2 4560   3.757  10.043   5.349
67555SOL     OW 4561  11.159   9.738  14.175
67555SOL    HW1 4562  11.168   9.650  14.138
67555SOL    HW2 4563  11.243   9.781  14.154
67556SOL     OW 4564   0.960   5.180   1.907
67556SOL    HW1 4565   1.055   5.176   1.920
67556SOL    HW2 4566   0.949   5.203   1.815
67557SOL     OW 4567   7.304  12.446   9.900
67557SOL    HW1 4568   7.218  12.488   9.901
67557SOL    HW2 4569   7.288  12.362   9.857
67558SOL     OW 4570  14.706   9.363   9.573
67558SOL    HW1 4571  14.700   9.451   9.611
67558SOL    HW2 4572  14.665   9.306   9.637
67559SOL     OW 4573   1.214   5.081   0.250
67559SOL    HW1 4574   1.217   5.175   0.268
67559SOL    HW2 4575   1.284   5.044   0.304
67560SOL     OW 4576   2.590  13.358  14.759
67560SOL    HW1 4577   2.541  13.420  14.705
67560SOL    HW2 4578   2.569  13.272  14.723
67561SOL     OW 4579   5.840   2.251   2.860
67561SOL    HW1 4580   5.935   2.259   2.861
67561SOL    HW2 4581   5.816   2.234   2.951
67562SOL     OW 4582  10.072  10.496   5.112
67562SOL    HW1 4583  10.114  10.582   5.107
67562SOL    HW2 4584  10.105  10.458   5.193
67563SOL     OW 4585  13.639  13.358   3.757
67563SOL    HW1 4586  13.706  13.378   3.822
67563SOL    HW2 4587  13.634  13.437   3.703
67564SOL     OW 4588   6.307  10.736  12.913
67564SOL    HW1 4589   6.311  10.696  12.827
67564SOL    HW2 4590   6.353  10.819  12.904
67565SOL     OW 4591   2.140   2.431  13.041
67565SOL    HW1 4592   2.204   2.407  12.974
67565SOL    HW2 4593   2.057   2.396  13.008
67566SOL     OW 4594   5.509   7.284   0.377
67566SOL    HW1 4595   5.602   7.302   0.387
67566SOL    HW2 4596   5.468   7.371   0.367
67567SOL     OW 4597  14.573   5.749  11.815
67567SOL    HW1 4598  14.669   5.753  11.818
67567SOL    HW2 4599  14.553   5.693  11.740
67568SOL     OW 4600   7.227   3.803   2.783
67568SOL    HW1 4601   7.310   3.836   2.749
67568SOL    HW2 4602   7.162   3.866   2.751
67569SOL     OW 4603  12.704  13.684   2.726
67569SOL    HW1 4604  12.665  13.675   2.813
67569SOL    HW2 4605  12.654  13.625   2.671
67570SOL     OW 4606   1.361   9.464   3.585
67570SOL    HW1 4607   1.295   9.408   3.545
67570SOL    HW2 4608   1.430   9.403   3.614
67571SOL     OW 4609   5.429   1.900   5.584
67571SOL    HW1 4610   5.511   1.852   5.593
67571SOL    HW2 4611   5.443   1.981   5.633
67572SOL     OW 4612  11.564   1.702   7.425
67572SOL    HW1 4613  11.546   1.663   7.510
67572SOL    HW2 4614  11.643   1.657   7.394
67573SOL     OW 4615   2.416  11.521  14.460
67573SOL    HW1 4616   2.447  11.611  14.458
67573SOL    HW2 4617   2.393  11.505  14.552
67574SOL     OW 4618   7.981   7.293   6.631
67574SOL    HW1 4619   7.948   7.336   6.552
67574SOL    HW2 4620   8.053   7.238   6.601
67575SOL     OW 4621   6.417  13.497  13.482
67575SOL    HW1 4622   6.339  13.515  13.429
67575SOL    HW2 4623   6.383  13.477  13.569
67576SOL     OW 4624   8.630   8.687   9.485
67576SOL    HW1 4625   8.551   8.719   9.528
67576SOL    HW2 4626   8.674   8.765   9.453
67577SOL     OW 4627  11.184   8.116  11.116
67577SOL    HW1 4628  11.214   8.160  11.037
67577SOL    HW2 4629  11.090   8.136  11.121
67578SOL     OW 4630   7.932   7.627   3.406
67578SOL    HW1 4631   7.875   7.624   3.483
67578SOL    HW2 4632   7.879   7.589   3.336
67579SOL     OW 4633  12.267   4.843   7.734
67579SOL    HW1 4634  12.277   4.848   7.639
67579SOL    HW2 4635  12.242   4.753   7.751
67580SOL     OW 4636   1.946   7.210  11.083
67580SOL    HW1 4637   2.016   7.255  11.037
67580SOL    HW2 4638   1.990   7.166  11.156
67581SOL     OW 4639   9.273  13.465  14.876
67581SOL    HW1 4640   9.321  13.521  14.815
67581SOL    HW2 4641   9.307  13.489   0.082
67582SOL     OW 4642   7.068  12.058   6.128
67582SOL    HW1 4643   7.017  11.987   6.088
67582SOL    HW2 4644   7.003  12.119   6.162
67583SOL     OW 4645   8.460   1.810  11.921
67583SOL    HW1 4646   8.409   1.762  11.986
67583SOL    HW2 4647   8.475   1.747  11.850
67584SOL     OW 4648   8.840   8.211   4.934
67584SOL    HW1 4649   8.814   8.271   5.003
67584SOL    HW2 4650   8.788   8.237   4.858
67585SOL     OW 4651   7.715   7.632   5.869
67585SOL    HW1 4652   7.782   7.579   5.914
67585SOL    HW2 4653   7.644   7.639   5.933
67586SOL     OW 4654   1.633   1.361  12.351
67586SOL    HW1 4655   1.586   1.408  12.281
67586SOL    HW2 4656   1.598   1.272  12.347
67587SOL     OW 4657  12.566  13.215   9.341
67587SOL    HW1 4658  12.477  13.205   9.308
67587SOL    HW2 4659  12.598  13.297   9.301
67588SOL     OW 4660   9.576   4.539   5.645
67588SOL    HW1 4661   9.646   4.491   5.600
67588SOL    HW2 4662   9.610   4.555   5.733
67589SOL     OW 4663   0.254   1.888   0.681
67589SOL    HW1 4664   0.199   1.927   0.614
67589SOL    HW2 4665   0.192   1.849   0.744
67590SOL     OW 4666   7.003   8.973   3.512
67590SOL    HW1 4667   7.031   8.895   3.464
67590SOL    HW2 4668   6.914   8.954   3.540
67591SOL     OW 4669   1.789   9.851   2.170
67591SOL    HW1 4670   1.879   9.864   2.138
67591SOL    HW2 4671   1.799   9.809   2.255
67592SOL     OW 4672   0.549   8.366  10.378
67592SOL    HW1 4673   0.464   8.411  10.377
67592SOL    HW2 4674   0.606   8.423  10.428
67593SOL     OW 4675   2.717  11.275   7.369
67593SOL    HW1 4676   2.787  11.211   7.376
67593SOL    HW2 4677   2.732  11.336   7.441
67594SOL     OW 4678  10.650   5.214   9.716
67594SOL    HW1 4679  10.736   5.246   9.689
67594SOL    HW2 4680  10.662   5.120   9.730
67595SOL     OW 4681   1.992  13.271  13.764
67595SOL    HW1 4682   1.984  13.181  13.734
67595SOL    HW2 4683   2.078  13.299  13.734
67596SOL     OW 4684  13.651  13.034   3.322
67596SOL    HW1 4685  13.708  12.958   3.333
67596SOL    HW2 4686  13.567  12.996   3.294
67597SOL     OW 4687   1.986  13.947  12.862
67597SOL    HW1 4688   2.018  13.929  12.951
67597SOL    HW2 4689   1.897  13.914  12.861
67598SOL     OW 4690   3.175   9.831  10.930
67598SOL    HW1 4691   3.126   9.749  10.931
67598SOL    HW2 4692   3.220   9.833  11.015
67599SOL     OW 4693   7.409   9.537   5.650
67599SOL    HW1 4694   7.321   9.502   5.632
67599SOL    HW2 4695   7.468   9.466   5.624
67600SOL     OW 4696   2.337  13.830   9.692
67600SOL    HW1 4697   2.288  13.838   9.774
67600SOL    HW2 4698   2.285  13.878   9.628
67601SOL     OW 4699   1.164   2.778   8.299
67601SOL    HW1 4700   1.081   2.786   8.346
67601SOL    HW2 4701   1.229   2.808   8.363
67602SOL     OW 4702   3.834   7.166  14.604
67602SOL    HW1 4703   3.816   7.253  14.570
67602SOL    HW2 4704   3.825   7.174  14.699
67603SOL     OW 4705   3.059   7.288   8.933
67603SOL    HW1 4706   3.092   7.204   8.967
67603SOL    HW2 4707   3.125   7.352   8.960
67604SOL     OW 4708   4.203   1.365   2.255
67604SOL    HW1 4709   4.249   1.284   2.233
67604SOL    HW2 4710   4.110   1.342   2.248
67605SOL     OW 4711  10.255  14.331   2.981
67605SOL    HW1 4712  10.328  14.365   2.930
67605SOL    HW2 4713  10.279  14.240   2.999
67606SOL     OW 4714   8.172   5.160   1.214
67606SOL    HW1 4715   8.142   5.243   1.178
67606SOL    HW2 4716   8.097   5.125   1.263
67607SOL     OW 4717  11.776   2.505   8.478
67607SOL    HW1 4718  11.744   2.454   8.404
67607SOL    HW2 4719  11.743   2.458   8.555
67608SOL     OW 4720   6.779  13.194   0.054
67608SOL    HW1 4721   6.704  13.147   0.017
67608SOL    HW2 4722   6.840  13.203  14.861
67609SOL     OW 4723   1.261   0.503   2.344
67609SOL    HW1 4724   1.310   0.423   2.367
67609SOL    HW2 4725   1.192   0.473   2.286
67610SOL     OW 4726  10.755  10.429   6.040
67610SOL    HW1 4727  10.799  10.418   5.955
67610SOL    HW2 4728  10.677  10.374   6.034
67611SOL     OW 4729   8.592   2.717  13.541
67611SOL    HW1 4730   8.603   2.674  13.626
67611SOL    HW2 4731   8.678   2.753  13.521
67612SOL     OW 4732   2.560   0.627   2.686
67612SOL    HW1 4733   2.552   0.588   2.773
67612SOL    HW2 4734   2.471   0.625   2.650
67613SOL     OW 4735   6.429   0.905   6.239
67613SOL    HW1 4736   6.338   0.880   6.222
67613SOL    HW2 4737   6.481   0.842   6.190
67614SOL     OW 4738   6.680   3.352   1.320
67614SOL    HW1 4739   6.639   3.332   1.235
67614SOL    HW2 4740   6.667   3.446   1.331
67615SOL     OW 4741  13.150  14.354  14.681
67615SOL    HW1 4742  13.088  14.284  14.661
67615SOL    HW2 4743  13.233  14.323  14.646
67616SOL     OW 4744  12.938   9.079   7.321
67616SOL    HW1 4745  12.958   9.074   7.228
67616SOL    HW2 4746  12.988   9.008   7.360
67617SOL     OW 4747   3.132   4.216   8.769
67617SOL    HW1 4748   3.188   4.294   8.768
67617SOL    HW2 4749   3.050   4.245   8.730
67618SOL     OW 4750   9.202  11.630   3.017
67618SOL    HW1 4751   9.278  11.575   3.034
67618SOL    HW2 4752   9.225  11.714   3.057
67619SOL     OW 4753   3.582   7.313  10.740
67619SOL    HW1 4754   3.553   7.291  10.829
67619SOL    HW2 4755   3.613   7.230  10.704
67620SOL     OW 4756  13.624  11.681   5.705
67620SOL    HW1 4757  13.651  11.773   5.708
67620SOL    HW2 4758  13.541  11.679   5.754
67621SOL     OW 4759  11.357  12.510  10.689
67621SOL    HW1 4760  11.331  12.420  10.709
67621SOL    HW2 4761  11.361  12.513  10.593
67622SOL     OW 4762   2.237   4.079   4.586
67622SOL    HW1 4763   2.245   4.155   4.529
67622SOL    HW2 4764   2.326   4.064   4.618
67623SOL     OW 4765   3.501  14.130  13.026
67623SOL    HW1 4766   3.487  14.036  13.012
67623SOL    HW2 4767   3.414  14.164  13.048
67624SOL     OW 4768   5.291   8.406   9.931
67624SOL    HW1 4769   5.367   8.456   9.901
67624SOL    HW2 4770   5.247   8.465   9.993
67625SOL     OW 4771   0.160  13.377   3.013
67625SOL    HW1 4772   0.158  13.306   2.949
67625SOL    HW2 4773   0.216  13.444   2.973
67626SOL     OW 4774  14.046  14.334   2.488
67626SOL    HW1 4775  14.073  14.261   2.543
67626SOL    HW2 4776  14.052  14.300   2.398
67627SOL     OW 4777   7.713  12.326   3.361
67627SOL    HW1 4778   7.697  12.296   3.450
67627SOL    HW2 4779   7.681  12.416   3.359
67628SOL     OW 4780   6.085   4.781   4.106
67628SOL    HW1 4781   6.070   4.852   4.044
67628SOL    HW2 4782   6.146   4.818   4.170
67629SOL     OW 4783  13.351   8.036   7.814
67629SOL    HW1 4784  13.444   8.056   7.824
67629SOL    HW2 4785  13.307   8.090   7.879
67630SOL     OW 4786   2.705   6.697   2.278
67630SOL    HW1 4787   2.683   6.690   2.186
67630SOL    HW2 4788   2.768   6.769   2.282
67631SOL     OW 4789   3.313   7.937  12.185
67631SOL    HW1 4790   3.405   7.959  12.197
67631SOL    HW2 4791   3.301   7.857  12.236
67632SOL     OW 4792   5.598   1.817  13.337
67632SOL    HW1 4793   5.591   1.771  13.253
67632SOL    HW2 4794   5.556   1.902  13.321
67633SOL     OW 4795   7.932  13.023   5.186
67633SOL    HW1 4796   7.972  12.949   5.231
67633SOL    HW2 4797   7.992  13.043   5.114
67634SOL     OW 4798   7.605   0.998   0.035
67634SOL    HW1 4799   7.537   0.932   0.022
67634SOL    HW2 4800   7.677   0.972  14.858
67635SOL     OW 4801   1.455  13.679  11.606
67635SOL    HW1 4802   1.441  13.665  11.700
67635SOL    HW2 4803   1.387  13.628  11.563
67636SOL     OW 4804   6.246  10.633  13.636
67636SOL    HW1 4805   6.212  10.683  13.562
67636SOL    HW2 4806   6.201  10.670  13.712
67637SOL     OW 4807   8.399  11.586   5.103
67637SOL    HW1 4808   8.413  11.491   5.100
67637SOL    HW2 4809   8.473  11.622   5.054
67638SOL     OW 4810  11.129   8.182  12.899
67638SOL    HW1 4811  11.089   8.102  12.864
67638SOL    HW2 4812  11.214   8.187  12.855
67639SOL     OW 4813  14.218   1.454  14.274
67639SOL    HW1 4814  14.252   1.374  14.313
67639SOL    HW2 4815  14.242   1.523  14.336
67640SOL     OW 4816   9.365   0.534   7.784
67640SOL    HW1 4817   9.327   0.478   7.852
67640SOL    HW2 4818   9.448   0.563   7.821
67641SOL     OW 4819   8.838  10.994   3.065
67641SOL    HW1 4820   8.886  10.942   3.130
67641SOL    HW2 4821   8.851  10.946   2.983
67642SOL     OW 4822   7.067  12.694   1.925
67642SOL    HW1 4823   6.999  12.657   1.870
67642SOL    HW2 4824   7.097  12.772   1.877
67643SOL     OW 4825   8.889  12.834  14.784
67643SOL    HW1 4826   8.820  12.772  14.806
67643SOL    HW2 4827   8.892  12.894  14.859
67644SOL     OW 4828   6.308  12.518  10.651
67644SOL    HW1 4829   6.248  12.512  10.725
67644SOL    HW2 4830   6.254  12.552  10.579
67645SOL     OW 4831   6.395  12.526  13.986
67645SOL    HW1 4832   6.336  12.468  14.034
67645SOL    HW2 4833   6.417  12.596  14.048
67646SOL     OW 4834   4.354  13.501   9.243
67646SOL    HW1 4835   4.336  13.581   9.193
67646SOL    HW2 4836   4.353  13.431   9.177
67647SOL     OW 4837   4.940   1.245  10.464
67647SOL    HW1 4838   4.946   1.330  10.422
67647SOL    HW2 4839   4.935   1.264  10.558
67648SOL     OW 4840  12.115  10.888   9.687
67648SOL    HW1 4841  12.132  10.831   9.763
67648SOL    HW2 4842  12.042  10.943   9.715
67649SOL     OW 4843  11.671  14.711   0.126
67649SOL    HW1 4844  11.643  14.797   0.095
67649SOL    HW2 4845  11.647  14.651   0.055
67650SOL     OW 4846   1.946   7.715   1.825
67650SOL    HW1 4847   1.882   7.693   1.757
67650SOL    HW2 4848   1.901   7.776   1.883
67651SOL     OW 4849   9.248   6.426  14.677
67651SOL    HW1 4850   9.277   6.365  14.610
67651SOL    HW2 4851   9.276   6.512  14.645
67652SOL     OW 4852  12.980   8.870   5.765
67652SOL    HW1 4853  13.015   8.853   5.852
67652SOL    HW2 4854  13.023   8.952   5.738
67653SOL     OW 4855  11.528  13.646   2.096
67653SOL    HW1 4856  11.622  13.658   2.091
67653SOL    HW2 4857  11.493  13.735   2.106
67654SOL     OW 4858   8.551  10.043   1.974
67654SOL    HW1 4859   8.627  10.083   2.016
67654SOL    HW2 4860   8.569   9.949   1.976
67655SOL     OW 4861   9.628   9.563   5.930
67655SOL    HW1 4862   9.541   9.584   5.965
67655SOL    HW2 4863   9.662   9.646   5.899
67656SOL     OW 4864   7.676   5.613   1.842
67656SOL    HW1 4865   7.600   5.557   1.859
67656SOL    HW2 4866   7.646   5.701   1.864
67657SOL     OW 4867  12.829  14.539   6.507
67657SOL    HW1 4868  12.905  14.480   6.510
67657SOL    HW2 4869  12.844  14.595   6.431
67658SOL     OW 4870   8.560   1.371  11.357
67658SOL    HW1 4871   8.528   1.402  11.272
67658SOL    HW2 4872   8.588   1.451  11.403
67659SOL     OW 4873  13.723   9.523   6.253
67659SOL    HW1 4874  13.682   9.528   6.340
67659SOL    HW2 4875  13.806   9.568   6.263
67660SOL     OW 4876  14.851   2.310   4.094
67660SOL    HW1 4877  14.877   2.224   4.126
67660SOL    HW2 4878  14.846   2.300   3.999
67661SOL     OW 4879   0.376  12.833  11.899
67661SOL    HW1 4880   0.456  12.886  11.905
67661SOL    HW2 4881   0.379  12.776  11.975
67662SOL     OW 4882  13.004   4.047  12.095
67662SOL    HW1 4883  12.931   4.082  12.045
67662SOL    HW2 4884  12.977   4.055  12.186
67663SOL     OW 4885   9.327  12.224   1.854
67663SOL    HW1 4886   9.397  12.219   1.790
67663SOL    HW2 4887   9.303  12.132   1.872
67664SOL     OW 4888   8.914   3.869   8.318
67664SOL    HW1 4889   8.870   3.885   8.401
67664SOL    HW2 4890   8.866   3.796   8.278
67665SOL     OW 4891   5.984  11.246   0.422
67665SOL    HW1 4892   5.992  11.324   0.366
67665SOL    HW2 4893   5.953  11.177   0.363
67666SOL     OW 4894   5.079   2.784   2.717
67666SOL    HW1 4895   5.155   2.811   2.769
67666SOL    HW2 4896   5.006   2.833   2.754
67667SOL     OW 4897   1.440  12.779  13.569
67667SOL    HW1 4898   1.376  12.849  13.578
67667SOL    HW2 4899   1.457  12.774  13.475
67668SOL     OW 4900   3.602   9.620   4.581
67668SOL    HW1 4901   3.582   9.597   4.672
67668SOL    HW2 4902   3.569   9.547   4.530
67669SOL     OW 4903  14.477  13.527   2.632
67669SOL    HW1 4904  14.491  13.453   2.573
67669SOL    HW2 4905  14.440  13.595   2.576
67670SOL     OW 4906   2.036  10.771   8.171
67670SOL    HW1 4907   1.952  10.770   8.125
67670SOL    HW2 4908   2.093  10.716   8.117
67671SOL     OW 4909   0.438  14.404  13.036
67671SOL    HW1 4910   0.499  14.351  12.984
67671SOL    HW2 4911   0.470  14.494  13.027
67672SOL     OW 4912   4.287   2.277  14.370
67672SOL    HW1 4913   4.232   2.289  14.292
67672SOL    HW2 4914   4.357   2.218  14.341
67673SOL     OW 4915   9.132  13.645  11.225
67673SOL    HW1 4916   9.205  13.602  11.181
67673SOL    HW2 4917   9.174  13.707  11.285
67674SOL     OW 4918  13.682  13.628  12.620
67674SOL    HW1 4919  13.675  13.723  12.610
67674SOL    HW2 4920  13.762  13.615  12.671
67675SOL     OW 4921   8.755   1.529   2.096
67675SOL    HW1 4922   8.734   1.600   2.035
67675SOL    HW2 4923   8.698   1.544   2.171
67676SOL     OW 4924   7.673   6.178   3.732
67676SOL    HW1 4925   7.685   6.206   3.823
67676SOL    HW2 4926   7.641   6.257   3.687
67677SOL     OW 4927   4.447   4.756   9.160
67677SOL    HW1 4928   4.414   4.684   9.107
67677SOL    HW2 4929   4.373   4.780   9.215
67678SOL     OW 4930   7.600  11.077   1.052
67678SOL    HW1 4931   7.512  11.051   1.028
67678SOL    HW2 4932   7.589  11.162   1.094
67679SOL     OW 4933  11.138  10.676   7.399
67679SOL    HW1 4934  11.166  10.661   7.489
67679SOL    HW2 4935  11.192  10.749   7.368
67680SOL     OW 4936   8.987   1.600   9.802
67680SOL    HW1 4937   9.006   1.648   9.882
67680SOL    HW2 4938   8.908   1.641   9.767
67681SOL     OW 4939   1.954   3.216   2.528
67681SOL    HW1 4940   2.048   3.195   2.528
67681SOL    HW2 4941   1.935   3.238   2.437
67682SOL     OW 4942   4.659  13.440  14.438
67682SOL    HW1 4943   4.703  13.358  14.414
67682SOL    HW2 4944   4.588  13.413  14.497
67683SOL     OW 4945   4.483   4.538  11.404
67683SOL    HW1 4946   4.431   4.480  11.348
67683SOL    HW2 4947   4.497   4.486  11.484
67684SOL     OW 4948   5.428  11.526   9.879
67684SOL    HW1 4949   5.373  11.459   9.919
67684SOL    HW2 4950   5.375  11.562   9.808
67685SOL     OW 4951   5.508   7.646  11.718
67685SOL    HW1 4952   5.530   7.717  11.657
67685SOL    HW2 4953   5.493   7.570  11.661
67686SOL     OW 4954  11.984  13.761  10.987
67686SOL    HW1 4955  11.951  13.702  11.054
67686SOL    HW2 4956  12.069  13.723  10.961
67687SOL     OW 4957  14.386   3.464   6.507
67687SOL    HW1 4958  14.357   3.375   6.529
67687SOL    HW2 4959  14.332   3.521   6.562
67688SOL     OW 4960   5.551   9.100  14.269
67688SOL    HW1 4961   5.570   9.007  14.284
67688SOL    HW2 4962   5.466   9.114  14.312
67689SOL     OW 4963   1.783   3.877   4.002
67689SOL    HW1 4964   1.872   3.850   4.025
67689SOL    HW2 4965   1.763   3.948   4.062
67690SOL     OW 4966  13.989   9.510  12.245
67690SOL    HW1 4967  14.034   9.551  12.171
67690SOL    HW2 4968  14.019   9.419  12.244
67691SOL     OW 4969  11.519  10.718  14.699
67691SOL    HW1 4970  11.549  10.758  14.780
67691SOL    HW2 4971  11.516  10.790  14.636
67692SOL     OW 4972   6.050   9.623   8.983
67692SOL    HW1 4973   6.052   9.533   9.015
67692SOL    HW2 4974   6.119   9.667   9.032
67693SOL     OW 4975   3.261   8.739   6.454
67693SOL    HW1 4976   3.354   8.759   6.448
67693SOL    HW2 4977   3.222   8.780   6.376
67694SOL     OW 4978  11.642   1.813   7.033
67694SOL    HW1 4979  11.632   1.874   6.960
67694SOL    HW2 4980  11.683   1.735   6.994
67695SOL     OW 4981  13.469   7.780  11.486
67695SOL    HW1 4982  13.527   7.844  11.527
67695SOL    HW2 4983  13.507   7.766  11.399
67696SOL     OW 4984   1.886   7.327   6.136
67696SOL    HW1 4985   1.844   7.291   6.214
67696SOL    HW2 4986   1.839   7.408   6.118
67697SOL     OW 4987   7.492  13.431   9.544
67697SOL    HW1 4988   7.423  13.367   9.561
67697SOL    HW2 4989   7.533  13.445   9.630
67698SOL     OW 4990  14.444   8.082   3.682
67698SOL    HW1 4991  14.438   8.001   3.733
67698SOL    HW2 4992  14.538   8.096   3.670
67699SOL     OW 4993  10.415   1.097  14.380
67699SOL    HW1 4994  10.321   1.081  14.386
67699SOL    HW2 4995  10.431   1.168  14.443
67700SOL     OW 4996   6.625   6.983  13.854
67700SOL    HW1 4997   6.608   6.921  13.925
67700SOL    HW2 4998   6.541   7.027  13.841
67701SOL     OW 4999   3.842   6.430  10.277
67701SOL    HW1 5000   3.924   6.401  10.237
67701SOL    HW2 5001   3.777   6.367  10.246
67702SOL     OW 5002  11.497   9.284   1.726
67702SOL    HW1 5003  11.501   9.201   1.680
67702SOL    HW2 5004  11.481   9.349   1.658
67703SOL     OW 5005  13.001  11.937   9.959
67703SOL    HW1 5006  12.926  11.973  10.006
67703SOL    HW2 5007  12.966  11.913   9.873
67704SOL     OW 5008   9.870  12.968   3.665
67704SOL    HW1 5009   9.873  13.060   3.638
67704SOL    HW2 5010   9.861  12.971   3.760
67705SOL     OW 5011   1.112  11.400   1.335
67705SOL    HW1 5012   1.178  11.469   1.349
67705SOL    HW2 5013   1.147  11.324   1.381
67706SOL     OW 5014   0.132   5.973   4.888
67706SOL    HW1 5015   0.062   5.968   4.954
67706SOL    HW2 5016   0.202   5.918   4.924
67707SOL     OW 5017   5.898   4.437   5.929
67707SOL    HW1 5018   5.978   4.464   5.884
67707SOL    HW2 5019   5.839   4.408   5.859
67708SOL     OW 5020  10.391   2.995  12.753
67708SOL    HW1 5021  10.326   3.058  12.721
67708SOL    HW2 5022  10.420   2.949  12.675
67709SOL     OW 5023   6.060   8.071   8.378
67709SOL    HW1 5024   6.008   8.019   8.316
67709SOL    HW2 5025   6.140   8.020   8.389
67710SOL     OW 5026   1.194   9.504   2.934
67710SOL    HW1 5027   1.221   9.421   2.894
67710SOL    HW2 5028   1.262   9.521   2.999
67711SOL     OW 5029  10.670   4.217  14.338
67711SOL    HW1 5030  10.703   4.294  14.292
67711SOL    HW2 5031  10.702   4.228  14.428
67712SOL     OW 5032  13.146   8.016  14.523
67712SOL    HW1 5033  13.060   8.039  14.489
67712SOL    HW2 5034  13.175   7.943  14.467
67713SOL     OW 5035   0.710   6.323  14.411
67713SOL    HW1 5036   0.672   6.307  14.325
67713SOL    HW2 5037   0.804   6.326  14.396
67714SOL     OW 5038   2.662   2.934   3.781
67714SOL    HW1 5039   2.593   2.998   3.803
67714SOL    HW2 5040   2.660   2.871   3.853
67715SOL     OW 5041  13.470   7.037  10.278
67715SOL    HW1 5042  13.454   7.131  10.270
67715SOL    HW2 5043  13.418   6.997  10.209
67716SOL     OW 5044  10.764   0.483  11.797
67716SOL    HW1 5045  10.766   0.578  11.789
67716SOL    HW2 5046  10.743   0.452  11.709
67717SOL     OW 5047   5.477   2.398   0.122
67717SOL    HW1 5048   5.461   2.410   0.029
67717SOL    HW2 5049   5.513   2.310   0.130
67718SOL     OW 5050  13.857   1.053  13.447
67718SOL    HW1 5051  13.898   0.981  13.399
67718SOL    HW2 5052  13.764   1.031  13.448
67719SOL     OW 5053   6.384  11.675   2.691
67719SOL    HW1 5054   6.413  11.599   2.741
67719SOL    HW2 5055   6.385  11.647   2.600
67720SOL     OW 5056   9.064  10.855   7.375
67720SOL    HW1 5057   9.017  10.773   7.390
67720SOL    HW2 5058   9.120  10.837   7.300
67721SOL     OW 5059   5.483   2.310  13.668
67721SOL    HW1 5060   5.446   2.306  13.757
67721SOL    HW2 5061   5.556   2.249  13.671
67722SOL     OW 5062   6.386   7.554  13.558
67722SOL    HW1 5063   6.478   7.536  13.577
67722SOL    HW2 5064   6.352   7.471  13.524
67723SOL     OW 5065  10.836  11.045   0.609
67723SOL    HW1 5066  10.851  11.056   0.515
67723SOL    HW2 5067  10.741  11.057   0.620
67724SOL     OW 5068   2.873   3.594  12.410
67724SOL    HW1 5069   2.836   3.682  12.409
67724SOL    HW2 5070   2.965   3.606  12.384
67725SOL     OW 5071  12.246   2.195  13.666
67725SOL    HW1 5072  12.225   2.181  13.758
67725SOL    HW2 5073  12.293   2.116  13.639
67726SOL     OW 5074   8.249   6.180   4.444
67726SOL    HW1 5075   8.216   6.235   4.373
67726SOL    HW2 5076   8.194   6.203   4.519
67727SOL     OW 5077   8.949   6.179   7.887
67727SOL    HW1 5078   9.044   6.177   7.898
67727SOL    HW2 5079   8.922   6.260   7.930
67728SOL     OW 5080  11.703  13.894   6.348
67728SOL    HW1 5081  11.793  13.871   6.372
67728SOL    HW2 5082  11.689  13.852   6.264
67729SOL     OW 5083  10.625   8.712   3.085
67729SOL    HW1 5084  10.654   8.621   3.079
67729SOL    HW2 5085  10.538   8.707   3.125
67730SOL     OW 5086   4.646   4.644   3.879
67730SOL    HW1 5087   4.561   4.689   3.879
67730SOL    HW2 5088   4.703   4.701   3.930
67731SOL     OW 5089   0.671   5.088  14.606
67731SOL    HW1 5090   0.710   5.028  14.669
67731SOL    HW2 5091   0.733   5.161  14.602
67732SOL     OW 5092   5.842   6.485  14.832
67732SOL    HW1 5093   5.759   6.530  14.818
67732SOL    HW2 5094   5.825   6.425   0.025
67733SOL     OW 5095   0.784  10.192  13.167
67733SOL    HW1 5096   0.772  10.107  13.124
67733SOL    HW2 5097   0.859  10.231  13.124
67734SOL     OW 5098  12.942   0.230  10.289
67734SOL    HW1 5099  12.908   0.206  10.203
67734SOL    HW2 5100  12.960   0.324  10.283
67735SOL     OW 5101   9.063   7.992   4.120
67735SOL    HW1 5102   8.984   7.985   4.173
67735SOL    HW2 5103   9.085   7.902   4.097
67736SOL     OW 5104   2.051  12.457  14.756
67736SOL    HW1 5105   2.084  12.394  14.692
67736SOL    HW2 5106   2.046  12.408  14.838
67737SOL     OW 5107  12.819  13.949   2.977
67737SOL    HW1 5108  12.908  13.969   2.948
67737SOL    HW2 5109  12.818  13.854   2.989
67738SOL     OW 5110   8.349   6.541  10.557
67738SOL    HW1 5111   8.318   6.617  10.607
67738SOL    HW2 5112   8.289   6.534  10.483
67739SOL     OW 5113   5.858  11.944   0.271
67739SOL    HW1 5114   5.859  11.879   0.201
67739SOL    HW2 5115   5.915  12.014   0.240
67740SOL     OW 5116   3.067  14.464   8.622
67740SOL    HW1 5117   3.058  14.455   8.717
67740SOL    HW2 5118   3.160  14.481   8.609
67741SOL     OW 5119   6.033   0.337  14.766
67741SOL    HW1 5120   6.117   0.382  14.781
67741SOL    HW2 5121   6.008   0.362  14.677
67742SOL     OW 5122   0.655   2.172  12.089
67742SOL    HW1 5123   0.586   2.234  12.114
67742SOL    HW2 5124   0.719   2.177  12.161
67743SOL     OW 5125  14.231   8.466   1.745
67743SOL    HW1 5126  14.292   8.456   1.671
67743SOL    HW2 5127  14.262   8.402   1.810
67744SOL     OW 5128   7.836   5.011  13.120
67744SOL    HW1 5129   7.812   4.928  13.080
67744SOL    HW2 5130   7.832   5.074  13.048
67745SOL     OW 5131  14.638   7.651   2.460
67745SOL    HW1 5132  14.699   7.611   2.522
67745SOL    HW2 5133  14.583   7.578   2.431
67746SOL     OW 5134   7.261  14.063   0.207
67746SOL    HW1 5135   7.239  13.972   0.227
67746SOL    HW2 5136   7.348  14.076   0.245
67747SOL     OW 5137  10.646   6.776  10.918
67747SOL    HW1 5138  10.556   6.778  10.952
67747SOL    HW2 5139  10.693   6.716  10.976
67748SOL     OW 5140   0.327   7.112   4.673
67748SOL    HW1 5141   0.287   7.183   4.723
67748SOL    HW2 5142   0.421   7.131   4.675
67749SOL     OW 5143  10.395   0.124   8.509
67749SOL    HW1 5144  10.358   0.042   8.544
67749SOL    HW2 5145  10.346   0.140   8.429
67750SOL     OW 5146  14.085   0.222   0.408
67750SOL    HW1 5147  14.063   0.131   0.386
67750SOL    HW2 5148  14.129   0.255   0.330
67751SOL     OW 5149  12.489   2.962   4.468
67751SOL    HW1 5150  12.528   2.969   4.555
67751SOL    HW2 5151  12.406   3.009   4.474
67752SOL     OW 5152   9.279  10.831   3.169
67752SOL    HW1 5153   9.268  10.838   3.074
67752SOL    HW2 5154   9.302  10.739   3.183
67753SOL     OW 5155   1.770   0.729  10.334
67753SOL    HW1 5156   1.813   0.643  10.340
67753SOL    HW2 5157   1.839   0.788  10.304
67754SOL     OW 5158   6.551   6.104   3.063
67754SOL    HW1 5159   6.592   6.111   2.977
67754SOL    HW2 5160   6.565   6.191   3.103
67755SOL     OW 5161   7.799   4.336   0.516
67755SOL    HW1 5162   7.724   4.296   0.472
67755SOL    HW2 5163   7.846   4.262   0.555
67756SOL     OW 5164  14.692   6.779  11.478
67756SOL    HW1 5165  14.628   6.785  11.407
67756SOL    HW2 5166  14.768   6.736  11.439
67757SOL     OW 5167  13.587  14.364   6.729
67757SOL    HW1 5168  13.665  14.319   6.696
67757SOL    HW2 5169  13.539  14.389   6.650
67758SOL     OW 5170   9.611  11.812  13.062
67758SOL    HW1 5171   9.558  11.867  13.119
67758SOL    HW2 5172   9.674  11.771  13.121
67759SOL     OW 5173  12.845   1.537   0.743
67759SOL    HW1 5174  12.939   1.520   0.753
67759SOL    HW2 5175  12.840   1.609   0.680
67760SOL     OW 5176   7.027   9.665   0.254
67760SOL    HW1 5177   6.966   9.698   0.188
67760SOL    HW2 5178   7.098   9.729   0.257
67761SOL     OW 5179  11.618  11.879   3.133
67761SOL    HW1 5180  11.594  11.904   3.222
67761SOL    HW2 5181  11.619  11.783   3.135
67762SOL     OW 5182   5.491  12.502   5.240
67762SOL    HW1 5183   5.425  12.562   5.275
67762SOL    HW2 5184   5.513  12.444   5.313
67763SOL     OW 5185  11.019   2.703   4.936
67763SOL    HW1 5186  10.964   2.654   4.997
67763SOL    HW2 5187  11.106   2.666   4.947
67764SOL     OW 5188  12.521   0.048   4.841
67764SOL    HW1 5189  12.610   0.028   4.810
67764SOL    HW2 5190  12.534   0.084   4.928
67765SOL     OW 5191   4.095  11.017   9.561
67765SOL    HW1 5192   4.153  11.075   9.512
67765SOL    HW2 5193   4.085  10.939   9.506
67766SOL     OW 5194   4.624  13.515   5.038
67766SOL    HW1 5195   4.670  13.510   4.954
67766SOL    HW2 5196   4.682  13.473   5.101
67767SOL     OW 5197  12.180   5.895   3.630
67767SOL    HW1 5198  12.232   5.929   3.703
67767SOL    HW2 5199  12.091   5.891   3.664
67768SOL     OW 5200   0.652  12.715   8.453
67768SOL    HW1 5201   0.576  12.774   8.456
67768SOL    HW2 5202   0.617  12.630   8.479
67769SOL     OW 5203   1.931  12.701   2.273
67769SOL    HW1 5204   1.835  12.699   2.275
67769SOL    HW2 5205   1.954  12.647   2.198
67770SOL     OW 5206  10.623   3.729  14.418
67770SOL    HW1 5207  10.679   3.666  14.464
67770SOL    HW2 5208  10.639   3.812  14.462
67771SOL     OW 5209   2.737   5.293  11.609
67771SOL    HW1 5210   2.698   5.354  11.672
67771SOL    HW2 5211   2.709   5.206  11.639
67772SOL     OW 5212  12.988  13.918   6.100
67772SOL    HW1 5213  12.904  13.880   6.077
67772SOL    HW2 5214  13.009  13.881   6.186
67773SOL     OW 5215   8.711   8.440   1.960
67773SOL    HW1 5216   8.621   8.459   1.934
67773SOL    HW2 5217   8.704   8.407   2.050
67774SOL     OW 5218  12.045  13.816   0.414
67774SOL    HW1 5219  12.077  13.904   0.396
67774SOL    HW2 5220  12.032  13.815   0.509
67775SOL     OW 5221  10.922   4.278   5.887
67775SOL    HW1 5222  10.827   4.294   5.885
67775SOL    HW2 5223  10.930   4.183   5.893
67776SOL     OW 5224  11.429  14.870   5.498
67776SOL    HW1 5225  11.501   0.041   5.536
67776SOL    HW2 5226  11.352   0.017   5.548
67777SOL     OW 5227   0.703   0.913  13.561
67777SOL    HW1 5228   0.764   0.927  13.633
67777SOL    HW2 5229   0.711   0.992  13.507
67778SOL     OW 5230  14.169   6.560  12.562
67778SOL    HW1 5231  14.145   6.595  12.648
67778SOL    HW2 5232  14.263   6.577  12.555
67779SOL     OW 5233  12.664  12.007   2.101
67779SOL    HW1 5234  12.640  11.935   2.158
67779SOL    HW2 5235  12.669  12.083   2.158
67780SOL     OW 5236  10.394   4.449  14.193
67780SOL    HW1 5237  10.420   4.377  14.250
67780SOL    HW2 5238  10.299   4.454  14.202
67781SOL     OW 5239   4.757  11.852   1.833
67781SOL    HW1 5240   4.820  11.820   1.769
67781SOL    HW2 5241   4.688  11.893   1.781
67782SOL     OW 5242   4.051  11.233   6.727
67782SOL    HW1 5243   4.124  11.268   6.778
67782SOL    HW2 5244   4.069  11.261   6.637
67783SOL     OW 5245   0.845   4.243   7.275
67783SOL    HW1 5246   0.874   4.316   7.221
67783SOL    HW2 5247   0.857   4.166   7.219
67784SOL     OW 5248  11.843  10.294  12.005
67784SOL    HW1 5249  11.790  10.317  11.928
67784SOL    HW2 5250  11.784  10.309  12.079
67785SOL     OW 5251  11.946  10.794  11.526
67785SOL    HW1 5252  12.022  10.777  11.470
67785SOL    HW2 5253  11.874  10.748  11.483
67786SOL     OW 5254   8.502  12.720   2.808
67786SOL    HW1 5255   8.475  12.796   2.758
67786SOL    HW2 5256   8.597  12.728   2.816
67787SOL     OW 5257   4.594  12.372  10.526
67787SOL    HW1 5258   4.513  12.337  10.489
67787SOL    HW2 5259   4.597  12.463  10.496
67788SOL     OW 5260   0.350   8.115   7.781
67788SOL    HW1 5261   0.353   8.083   7.871
67788SOL    HW2 5262   0.291   8.054   7.736
67789SOL     OW 5263   7.733   4.842  12.968
67789SOL    HW1 5264   7.685   4.849  12.885
67789SOL    HW2 5265   7.674   4.793  13.025
67790SOL     OW 5266  14.016   0.885   9.947
67790SOL    HW1 5267  13.982   0.963   9.903
67790SOL    HW2 5268  14.110   0.899   9.949
67791SOL     OW 5269  13.959   6.315   6.576
67791SOL    HW1 5270  13.885   6.258   6.598
67791SOL    HW2 5271  14.011   6.320   6.656
67792SOL     OW 5272   0.255   4.241   0.393
67792SOL    HW1 5273   0.308   4.263   0.317
67792SOL    HW2 5274   0.273   4.311   0.457
67793SOL     OW 5275   5.493  12.603   6.888
67793SOL    HW1 5276   5.529  12.529   6.838
67793SOL    HW2 5277   5.570  12.647   6.923
67794SOL     OW 5278   6.164   8.535   0.230
67794SOL    HW1 5279   6.257   8.553   0.249
67794SOL    HW2 5280   6.129   8.504   0.314
67795SOL     OW 5281   3.644  14.693   6.250
67795SOL    HW1 5282   3.561  14.686   6.298
67795SOL    HW2 5283   3.711  14.680   6.317
67796SOL     OW 5284   9.212   0.363   2.690
67796SOL    HW1 5285   9.167   0.342   2.772
67796SOL    HW2 5286   9.297   0.398   2.718
67797SOL     OW 5287  12.490  11.622  14.611
67797SOL    HW1 5288  12.577  11.658  14.592
67797SOL    HW2 5289  12.506  11.553  14.675
67798SOL     OW 5290   2.232   1.889  11.365
67798SOL    HW1 5291   2.151   1.840  11.370
67798SOL    HW2 5292   2.249   1.917  11.455
67799SOL     OW 5293   8.334   8.501  11.173
67799SOL    HW1 5294   8.329   8.407  11.191
67799SOL    HW2 5295   8.245   8.527  11.151
67800SOL     OW 5296   3.927   7.286  12.411
67800SOL    HW1 5297   3.835   7.274  12.384
67800SOL    HW2 5298   3.955   7.364  12.363
67801SOL     OW 5299   8.373  11.347   1.326
67801SOL    HW1 5300   8.401  11.408   1.258
67801SOL    HW2 5301   8.425  11.371   1.403
67802SOL     OW 5302   5.797   9.575  13.014
67802SOL    HW1 5303   5.762   9.564  12.926
67802SOL    HW2 5304   5.886   9.538  13.009
67803SOL     OW 5305   6.508  13.851  10.243
67803SOL    HW1 5306   6.598  13.874  10.262
67803SOL    HW2 5307   6.471  13.826  10.328
67804SOL     OW 5308   7.865   1.735   4.692
67804SOL    HW1 5309   7.797   1.700   4.634
67804SOL    HW2 5310   7.939   1.674   4.682
67805SOL     OW 5311   4.168   9.578   3.845
67805SOL    HW1 5312   4.238   9.512   3.839
67805SOL    HW2 5313   4.213   9.661   3.832
67806SOL     OW 5314   8.778   0.359  10.070
67806SOL    HW1 5315   8.771   0.409  10.151
67806SOL    HW2 5316   8.871   0.363  10.048
67807SOL     OW 5317  11.445  11.754   7.025
67807SOL    HW1 5318  11.524  11.767   7.077
67807SOL    HW2 5319  11.375  11.793   7.077
67808SOL     OW 5320  13.151  12.915   3.646
67808SOL    HW1 5321  13.183  13.005   3.633
67808SOL    HW2 5322  13.217  12.860   3.603
67809SOL     OW 5323   4.380   5.529   6.738
67809SOL    HW1 5324   4.464   5.573   6.725
67809SOL    HW2 5325   4.334   5.584   6.802
67810SOL     OW 5326  10.065  11.874   1.423
67810SOL    HW1 5327  10.116  11.809   1.471
67810SOL    HW2 5328  10.102  11.958   1.451
67811SOL     OW 5329   5.264   7.828  10.216
67811SOL    HW1 5330   5.182   7.876  10.224
67811SOL    HW2 5331   5.329   7.896  10.198
67812SOL     OW 5332  11.217   0.547  11.347
67812SOL    HW1 5333  11.206   0.610  11.275
67812SOL    HW2 5334  11.157   0.577  11.415
67813SOL     OW 5335   2.010   7.794   1.288
67813SOL    HW1 5336   2.045   7.750   1.211
67813SOL    HW2 5337   1.919   7.765   1.292
67814SOL     OW 5338   1.931  11.720  13.191
67814SOL    HW1 5339   1.874  11.786  13.230
67814SOL    HW2 5340   1.966  11.761  13.113
67815SOL     OW 5341   3.245   0.434  12.936
67815SOL    HW1 5342   3.299   0.364  12.972
67815SOL    HW2 5343   3.212   0.482  13.012
67816SOL     OW 5344   0.589   5.140  14.311
67816SOL    HW1 5345   0.503   5.148  14.352
67816SOL    HW2 5346   0.649   5.182  14.372
67817SOL     OW 5347  14.393  13.623   9.685
67817SOL    HW1 5348  14.466  13.661   9.734
67817SOL    HW2 5349  14.427  13.540   9.653
67818SOL     OW 5350   5.478  12.641   4.173
67818SOL    HW1 5351   5.562  12.595   4.175
67818SOL    HW2 5352   5.414  12.574   4.197
67819SOL     OW 5353  14.517   4.232   9.403
67819SOL    HW1 5354  14.471   4.209   9.323
67819SOL    HW2 5355  14.549   4.149   9.438
67820SOL     OW 5356  14.376  14.691  10.122
67820SOL    HW1 5357  14.336  14.628  10.182
67820SOL    HW2 5358  14.469  14.668  10.121
67821SOL     OW 5359   1.830   2.894   2.212
67821SOL    HW1 5360   1.913   2.916   2.168
67821SOL    HW2 5361   1.818   2.801   2.195
67822SOL     OW 5362  11.619  12.997   6.936
67822SOL    HW1 5363  11.632  12.947   7.016
67822SOL    HW2 5364  11.525  12.992   6.919
67823SOL     OW 5365   0.886   2.799   1.087
67823SOL    HW1 5366   0.859   2.889   1.101
67823SOL    HW2 5367   0.816   2.746   1.126
67824SOL     OW 5368   4.564   9.536  12.565
67824SOL    HW1 5369   4.501   9.499  12.503
67824SOL    HW2 5370   4.591   9.462  12.619
67825SOL     OW 5371  13.222  10.220  10.733
67825SOL    HW1 5372  13.279  10.144  10.745
67825SOL    HW2 5373  13.158  10.192  10.668
67826SOL     OW 5374   6.844   4.173  13.881
67826SOL    HW1 5375   6.930   4.214  13.871
67826SOL    HW2 5376   6.821   4.186  13.973
67827SOL     OW 5377  14.617   5.928  13.396
67827SOL    HW1 5378  14.561   5.851  13.395
67827SOL    HW2 5379  14.698   5.899  13.353
67828SOL     OW 5380   4.788  14.866  14.155
67828SOL    HW1 5381   4.779  14.771  14.164
67828SOL    HW2 5382   4.809  14.879  14.063
67829SOL     OW 5383   1.779   8.563   3.599
67829SOL    HW1 5384   1.685   8.579   3.609
67829SOL    HW2 5385   1.819   8.607   3.674
67830SOL     OW 5386  14.034   2.879   5.493
67830SOL    HW1 5387  14.060   2.828   5.416
67830SOL    HW2 5388  14.091   2.955   5.492
67831SOL     OW 5389   6.501   7.118   7.477
67831SOL    HW1 5390   6.511   7.023   7.472
67831SOL    HW2 5391   6.510   7.138   7.570
67832SOL     OW 5392   8.012  11.198   7.405
67832SOL    HW1 5393   8.040  11.259   7.336
67832SOL    HW2 5394   7.927  11.231   7.433
67833SOL     OW 5395   0.350   1.689   5.236
67833SOL    HW1 5396   0.441   1.715   5.250
67833SOL    HW2 5397   0.353   1.594   5.231
67834SOL     OW 5398   5.072   8.385   3.095
67834SOL    HW1 5399   5.095   8.376   3.002
67834SOL    HW2 5400   5.150   8.355   3.142
67835SOL     OW 5401   8.501  13.296   0.490
67835SOL    HW1 5402   8.524  13.278   0.399
67835SOL    HW2 5403   8.473  13.212   0.525
67836SOL     OW 5404   6.881   2.502   4.403
67836SOL    HW1 5405   6.954   2.544   4.359
67836SOL    HW2 5406   6.877   2.414   4.365
67837SOL     OW 5407  12.815   0.941   2.123
67837SOL    HW1 5408  12.795   1.028   2.087
67837SOL    HW2 5409  12.893   0.955   2.176
67838SOL     OW 5410   4.731  13.424   8.614
67838SOL    HW1 5411   4.771  13.473   8.685
67838SOL    HW2 5412   4.646  13.466   8.600
67839SOL     OW 5413   3.004   8.627   2.188
67839SOL    HW1 5414   2.914   8.654   2.168
67839SOL    HW2 5415   3.008   8.628   2.284
67840SOL     OW 5416   1.766   9.793   2.768
67840SOL    HW1 5417   1.688   9.749   2.735
67840SOL    HW2 5418   1.815   9.726   2.814
67841SOL     OW 5419   4.966   7.709  12.727
67841SOL    HW1 5420   4.969   7.632  12.670
67841SOL    HW2 5421   5.057   7.726  12.751
67842SOL     OW 5422  10.167   2.581   5.517
67842SOL    HW1 5423  10.200   2.616   5.599
67842SOL    HW2 5424  10.240   2.532   5.480
67843SOL     OW 5425   5.088  10.711   3.483
67843SOL    HW1 5426   5.169  10.691   3.529
67843SOL    HW2 5427   5.064  10.629   3.440
67844SOL     OW 5428  12.720  13.648   7.166
67844SOL    HW1 5429  12.690  13.725   7.116
67844SOL    HW2 5430  12.701  13.574   7.110
67845SOL     OW 5431   4.957  12.639   5.444
67845SOL    HW1 5432   4.906  12.691   5.383
67845SOL    HW2 5433   4.931  12.548   5.426
67846SOL     OW 5434   7.863   4.817  13.966
67846SOL    HW1 5435   7.884   4.812  13.873
67846SOL    HW2 5436   7.794   4.884  13.972
67847SOL     OW 5437   1.483  14.453   1.076
67847SOL    HW1 5438   1.491  14.373   1.128
67847SOL    HW2 5439   1.556  14.448   1.015
67848SOL     OW 5440   1.661  10.476  10.406
67848SOL    HW1 5441   1.710  10.531  10.468
67848SOL    HW2 5442   1.570  10.485  10.434
67849SOL     OW 5443   8.299   9.347   0.004
67849SOL    HW1 5444   8.376   9.297  14.859
67849SOL    HW2 5445   8.264   9.300   0.080
67850SOL     OW 5446   4.207   6.748   7.438
67850SOL    HW1 5447   4.282   6.770   7.493
67850SOL    HW2 5448   4.225   6.792   7.355
67851SOL     OW 5449  13.176  11.331   8.213
67851SOL    HW1 5450  13.271  11.324   8.217
67851SOL    HW2 5451  13.151  11.278   8.138
67852SOL     OW 5452   2.200  12.671   4.640
67852SOL    HW1 5453   2.274  12.623   4.604
67852SOL    HW2 5454   2.192  12.640   4.730
67853SOL     OW 5455   6.475  11.430   9.680
67853SOL    HW1 5456   6.498  11.378   9.757
67853SOL    HW2 5457   6.527  11.392   9.609
67854SOL     OW 5458   6.181   3.122   8.966
67854SOL    HW1 5459   6.112   3.180   8.999
67854SOL    HW2 5460   6.168   3.122   8.871
67855SOL     OW 5461   3.916  14.185   6.248
67855SOL    HW1 5462   3.966  14.109   6.274
67855SOL    HW2 5463   3.948  14.206   6.160
67856SOL     OW 5464  14.393   3.165  10.053
67856SOL    HW1 5465  14.445   3.202  10.124
67856SOL    HW2 5466  14.328   3.109  10.097
67857SOL     OW 5467  14.416  13.691   5.890
67857SOL    HW1 5468  14.493  13.652   5.849
67857SOL    HW2 5469  14.451  13.754   5.953
67858SOL     OW 5470   7.352   9.886   1.713
67858SOL    HW1 5471   7.447   9.891   1.713
67858SOL    HW2 5472   7.327   9.907   1.623
67859SOL     OW 5473  10.302  10.730  13.289
67859SOL    HW1 5474  10.283  10.730  13.383
67859SOL    HW2 5475  10.304  10.822  13.265
67860SOL     OW 5476   9.206   4.228  14.058
67860SOL    HW1 5477   9.181   4.315  14.088
67860SOL    HW2 5478   9.175   4.225  13.967
67861SOL     OW 5479   1.054   5.483  14.402
67861SOL    HW1 5480   1.127   5.440  14.446
67861SOL    HW2 5481   1.056   5.573  14.435
67862SOL     OW 5482   0.972   3.597  12.876
67862SOL    HW1 5483   1.016   3.613  12.792
67862SOL    HW2 5484   1.021   3.525  12.915
67863SOL     OW 5485   2.797   5.185   4.189
67863SOL    HW1 5486   2.890   5.187   4.166
67863SOL    HW2 5487   2.769   5.096   4.167
67864SOL     OW 5488   3.078   4.603  12.371
67864SOL    HW1 5489   3.133   4.569  12.300
67864SOL    HW2 5490   2.994   4.622  12.330
67865SOL     OW 5491   0.442  13.802   9.603
67865SOL    HW1 5492   0.423  13.755   9.684
67865SOL    HW2 5493   0.381  13.765   9.539
67866SOL     OW 5494   0.238   8.365   5.852
67866SOL    HW1 5495   0.173   8.331   5.915
67866SOL    HW2 5496   0.190   8.368   5.769
67867SOL     OW 5497  12.538  14.421   4.763
67867SOL    HW1 5498  12.474  14.354   4.739
67867SOL    HW2 5499  12.530  14.429   4.858
67868SOL     OW 5500  12.246   4.846   7.147
67868SOL    HW1 5501  12.236   4.917   7.211
67868SOL    HW2 5502  12.338   4.823   7.151
67869SOL     OW 5503   2.380   8.003   4.804
67869SOL    HW1 5504   2.375   7.908   4.817
67869SOL    HW2 5505   2.387   8.014   4.709
67870SOL     OW 5506  11.751  12.067   4.295
67870SOL    HW1 5507  11.691  12.024   4.234
67870SOL    HW2 5508  11.747  12.160   4.272
67871SOL     OW 5509  11.651   5.357  10.294
67871SOL    HW1 5510  11.609   5.406  10.365
67871SOL    HW2 5511  11.696   5.424  10.242
67872SOL     OW 5512  13.117  11.280   1.690
67872SOL    HW1 5513  13.038  11.331   1.705
67872SOL    HW2 5514  13.155  11.268   1.777
67873SOL     OW 5515   5.896   2.530  11.999
67873SOL    HW1 5516   5.822   2.470  11.983
67873SOL    HW2 5517   5.897   2.587  11.923
67874SOL     OW 5518  10.444   9.635   2.629
67874SOL    HW1 5519  10.451   9.730   2.619
67874SOL    HW2 5520  10.473   9.599   2.545
67875SOL     OW 5521   1.053   0.814  11.936
67875SOL    HW1 5522   1.050   0.759  12.014
67875SOL    HW2 5523   1.078   0.901  11.970
67876SOL     OW 5524   0.343   6.085   2.913
67876SOL    HW1 5525   0.273   6.146   2.938
67876SOL    HW2 5526   0.326   6.006   2.964
67877SOL     OW 5527   1.798   1.534  14.758
67877SOL    HW1 5528   1.734   1.597  14.726
67877SOL    HW2 5529   1.817   1.478  14.683
67878SOL     OW 5530  14.304   3.499   2.882
67878SOL    HW1 5531  14.335   3.588   2.864
67878SOL    HW2 5532  14.314   3.489   2.977
67879SOL     OW 5533  14.183   5.357   0.232
67879SOL    HW1 5534  14.216   5.297   0.299
67879SOL    HW2 5535  14.168   5.439   0.278
67880SOL     OW 5536  14.043  12.142  11.707
67880SOL    HW1 5537  14.002  12.064  11.669
67880SOL    HW2 5538  14.097  12.107  11.778
67881SOL     OW 5539  11.712   6.231   7.134
67881SOL    HW1 5540  11.789   6.188   7.096
67881SOL    HW2 5541  11.688   6.298   7.070
67882SOL     OW 5542  11.427  13.847  14.117
67882SOL    HW1 5543  11.365  13.813  14.052
67882SOL    HW2 5544  11.499  13.883  14.065
67883SOL     OW 5545  11.677  11.649  12.936
67883SOL    HW1 5546  11.609  11.695  12.886
67883SOL    HW2 5547  11.657  11.669  13.028
67884SOL     OW 5548   3.467   7.859   8.399
67884SOL    HW1 5549   3.518   7.860   8.481
67884SOL    HW2 5550   3.406   7.786   8.410
67885SOL     OW 5551   6.322  10.383  12.388
67885SOL    HW1 5552   6.406  10.407  12.425
67885SOL    HW2 5553   6.337  10.299  12.345
67886SOL     OW 5554  11.586  13.077  12.995
67886SOL    HW1 5555  11.554  13.074  13.086
67886SOL    HW2 5556  11.666  13.130  13.000
67887SOL     OW 5557   6.628   7.901   7.207
67887SOL    HW1 5558   6.650   7.919   7.298
67887SOL    HW2 5559   6.554   7.840   7.212
67888SOL     OW 5560   7.445   0.264  13.830
67888SOL    HW1 5561   7.402   0.188  13.790
67888SOL    HW2 5562   7.472   0.318  13.757
67889SOL     OW 5563   9.904  13.534   6.097
67889SOL    HW1 5564   9.940  13.622   6.108
67889SOL    HW2 5565   9.821  13.536   6.144
67890SOL     OW 5566   2.074  10.169   1.754
67890SOL    HW1 5567   2.009  10.112   1.714
67890SOL    HW2 5568   2.077  10.246   1.697
67891SOL     OW 5569   1.359  14.875   5.962
67891SOL    HW1 5570   1.296   0.007   5.891
67891SOL    HW2 5571   1.369  14.780   5.968
67892SOL     OW 5572   7.929   7.316   1.372
67892SOL    HW1 5573   8.013   7.358   1.353
67892SOL    HW2 5574   7.950   7.250   1.438
67893SOL     OW 5575   7.536   6.522  13.407
67893SOL    HW1 5576   7.458   6.572  13.431
67893SOL    HW2 5577   7.561   6.557  13.321
67894SOL     OW 5578   1.516   8.377   9.694
67894SOL    HW1 5579   1.436   8.368   9.643
67894SOL    HW2 5580   1.490   8.428   9.771
67895SOL     OW 5581   4.873  10.516   9.903
67895SOL    HW1 5582   4.863  10.564   9.821
67895SOL    HW2 5583   4.898  10.428   9.876
67896SOL     OW 5584   1.785  10.359   8.843
67896SOL    HW1 5585   1.829  10.441   8.820
67896SOL    HW2 5586   1.833  10.326   8.919
67897SOL     OW 5587  11.364  12.025   4.650
67897SOL    HW1 5588  11.442  11.998   4.698
67897SOL    HW2 5589  11.348  11.954   4.588
67898SOL     OW 5590   6.038   5.291   0.235
67898SOL    HW1 5591   6.031   5.333   0.320
67898SOL    HW2 5592   6.001   5.203   0.248
67899SOL     OW 5593  14.294   9.252  11.158
67899SOL    HW1 5594  14.248   9.173  11.187
67899SOL    HW2 5595  14.386   9.232  11.171
67900SOL     OW 5596   3.532  14.613   5.329
67900SOL    HW1 5597   3.472  14.683   5.302
67900SOL    HW2 5598   3.478  14.552   5.379
67901SOL     OW 5599   3.914  12.681   3.124
67901SOL    HW1 5600   3.923  12.599   3.076
67901SOL    HW2 5601   3.911  12.655   3.216
67902SOL     OW 5602   2.345   0.642   5.903
67902SOL    HW1 5603   2.439   0.638   5.921
67902SOL    HW2 5604   2.326   0.561   5.855
67903SOL     OW 5605   5.455   7.452  10.847
67903SOL    HW1 5606   5.457   7.449  10.751
67903SOL    HW2 5607   5.538   7.413  10.874
67904SOL     OW 5608   5.515  11.920  11.669
67904SOL    HW1 5609   5.600  11.936  11.629
67904SOL    HW2 5610   5.453  11.964  11.610
67905SOL     OW 5611  12.021   7.338   1.889
67905SOL    HW1 5612  12.082   7.346   1.963
67905SOL    HW2 5613  12.026   7.423   1.845
67906SOL     OW 5614  11.913   4.888   8.577
67906SOL    HW1 5615  11.936   4.803   8.613
67906SOL    HW2 5616  11.884   4.939   8.653
67907SOL     OW 5617   6.417   2.644   3.737
67907SOL    HW1 5618   6.390   2.555   3.761
67907SOL    HW2 5619   6.336   2.690   3.719
67908SOL     OW 5620  14.575   2.342   9.724
67908SOL    HW1 5621  14.556   2.256   9.761
67908SOL    HW2 5622  14.489   2.382   9.710
67909SOL     OW 5623  10.934   9.295   3.652
67909SOL    HW1 5624  10.879   9.233   3.699
67909SOL    HW2 5625  11.024   9.265   3.666
67910SOL     OW 5626  14.385  13.925  12.593
67910SOL    HW1 5627  14.397  13.836  12.561
67910SOL    HW2 5628  14.363  13.976  12.514
67911SOL     OW 5629   9.799   4.110  11.267
67911SOL    HW1 5630   9.872   4.172  11.270
67911SOL    HW2 5631   9.805   4.062  11.349
67912SOL     OW 5632   2.141   5.552   4.253
67912SOL    HW1 5633   2.095   5.476   4.289
67912SOL    HW2 5634   2.095   5.627   4.290
67913SOL     OW 5635  13.916   4.465  13.544
67913SOL    HW1 5636  13.863   4.399  13.590
67913SOL    HW2 5637  14.000   4.464  13.590
67914SOL     OW 5638  14.020  11.957   8.805
67914SOL    HW1 5639  14.027  11.962   8.900
67914SOL    HW2 5640  14.018  11.863   8.786
67915SOL     OW 5641   1.883  11.666  14.281
67915SOL    HW1 5642   1.844  11.688  14.365
67915SOL    HW2 5643   1.977  11.668  14.296
67916SOL     OW 5644   8.069   9.848  10.388
67916SOL    HW1 5645   8.088   9.757  10.364
67916SOL    HW2 5646   8.118   9.900  10.325
67917SOL     OW 5647   0.264  13.360  14.633
67917SOL    HW1 5648   0.242  13.278  14.677
67917SOL    HW2 5649   0.216  13.427  14.682
67918SOL     OW 5650   7.666   2.944   8.069
67918SOL    HW1 5651   7.697   2.972   7.983
67918SOL    HW2 5652   7.692   3.014   8.129
67919SOL     OW 5653   5.850   2.479   5.427
67919SOL    HW1 5654   5.918   2.479   5.359
67919SOL    HW2 5655   5.896   2.454   5.507
67920SOL     OW 5656   9.096   3.191   5.807
67920SOL    HW1 5657   9.089   3.164   5.715
67920SOL    HW2 5658   9.065   3.282   5.806
67921SOL     OW 5659   2.632   7.757  14.122
67921SOL    HW1 5660   2.601   7.690  14.062
67921SOL    HW2 5661   2.707   7.718  14.166
67922SOL     OW 5662  10.620   3.799   4.437
67922SOL    HW1 5663  10.609   3.740   4.363
67922SOL    HW2 5664  10.597   3.885   4.403
67923SOL     OW 5665   1.166  12.493  13.283
67923SOL    HW1 5666   1.201  12.477  13.371
67923SOL    HW2 5667   1.125  12.410  13.258
67924SOL     OW 5668   4.511   5.253   8.831
67924SOL    HW1 5669   4.422   5.225   8.812
67924SOL    HW2 5670   4.505   5.348   8.839
67925SOL     OW 5671  11.694  13.065   8.636
67925SOL    HW1 5672  11.778  13.045   8.595
67925SOL    HW2 5673  11.661  13.141   8.588
67926SOL     OW 5674  13.926   8.982  14.052
67926SOL    HW1 5675  13.890   8.945  14.132
67926SOL    HW2 5676  13.967   8.908  14.008
67927SOL     OW 5677   8.828   1.152   7.261
67927SOL    HW1 5678   8.844   1.067   7.302
67927SOL    HW2 5679   8.879   1.214   7.314
67928SOL     OW 5680  13.146  12.563   2.293
67928SOL    HW1 5681  13.167  12.654   2.315
67928SOL    HW2 5682  13.229  12.525   2.266
67929SOL     OW 5683   2.211  12.045  14.345
67929SOL    HW1 5684   2.221  12.123  14.290
67929SOL    HW2 5685   2.294  12.040  14.394
67930SOL     OW 5686   6.847   4.568  12.743
67930SOL    HW1 5687   6.916   4.506  12.762
67930SOL    HW2 5688   6.777   4.515  12.705
67931SOL     OW 5689   2.479   7.272  14.196
67931SOL    HW1 5690   2.463   7.185  14.233
67931SOL    HW2 5691   2.567   7.267  14.160
67932SOL     OW 5692   7.984   5.625   7.714
67932SOL    HW1 5693   8.036   5.585   7.644
67932SOL    HW2 5694   7.966   5.713   7.683
67933SOL     OW 5695   3.373   1.500  11.584
67933SOL    HW1 5696   3.347   1.498  11.677
67933SOL    HW2 5697   3.313   1.439  11.541
67934SOL     OW 5698   5.915   7.359   7.216
67934SOL    HW1 5699   5.970   7.427   7.176
67934SOL    HW2 5700   5.971   7.280   7.215
67935SOL     OW 5701  13.110  12.596   8.475
67935SOL    HW1 5702  13.034  12.570   8.423
67935SOL    HW2 5703  13.108  12.537   8.551
67936SOL     OW 5704   9.557   6.975   4.438
67936SOL    HW1 5705   9.486   7.038   4.453
67936SOL    HW2 5706   9.635   7.030   4.425
67937SOL     OW 5707  13.436   9.110  10.289
67937SOL    HW1 5708  13.526   9.088  10.310
67937SOL    HW2 5709  13.400   9.144  10.371
67938SOL     OW 5710   0.923  12.811   2.888
67938SOL    HW1 5711   0.928  12.766   2.972
67938SOL    HW2 5712   0.830  12.835   2.879
67939SOL     OW 5713   5.523   6.692  12.727
67939SOL    HW1 5714   5.569   6.686  12.811
67939SOL    HW2 5715   5.560   6.621  12.674
67940SOL     OW 5716   6.911   1.330   2.051
67940SOL    HW1 5717   6.950   1.253   2.093
67940SOL    HW2 5718   6.836   1.352   2.107
67941SOL     OW 5719   8.369   8.865   1.141
67941SOL    HW1 5720   8.383   8.790   1.199
67941SOL    HW2 5721   8.334   8.933   1.198
67942SOL     OW 5722   8.929  12.297   8.707
67942SOL    HW1 5723   8.980  12.336   8.636
67942SOL    HW2 5724   8.882  12.371   8.746
67943SOL     OW 5725   7.032   2.538   3.079
67943SOL    HW1 5726   7.120   2.506   3.058
67943SOL    HW2 5727   7.017   2.610   3.017
67944SOL     OW 5728  12.007  12.915   7.571
67944SOL    HW1 5729  12.012  12.848   7.639
67944SOL    HW2 5730  12.098  12.940   7.554
67945SOL     OW 5731  10.013   3.532  12.585
67945SOL    HW1 5732  10.075   3.605  12.591
67945SOL    HW2 5733  10.021   3.486  12.668
67946SOL     OW 5734   2.704  12.764   5.201
67946SOL    HW1 5735   2.637  12.752   5.269
67946SOL    HW2 5736   2.751  12.843   5.227
67947SOL     OW 5737   7.571  11.683   9.333
67947SOL    HW1 5738   7.538  11.594   9.349
67947SOL    HW2 5739   7.653  11.687   9.381
67948SOL     OW 5740   0.825  12.083   9.434
67948SOL    HW1 5741   0.743  12.051   9.473
67948SOL    HW2 5742   0.874  12.004   9.412
67949SOL     OW 5743   5.529   3.808   3.450
67949SOL    HW1 5744   5.515   3.721   3.411
67949SOL    HW2 5745   5.587   3.791   3.525
67950SOL     OW 5746  13.669   9.793  10.195
67950SOL    HW1 5747  13.586   9.793  10.243
67950SOL    HW2 5748  13.687   9.885  10.179
67951SOL     OW 5749   8.526  12.545   9.926
67951SOL    HW1 5750   8.548  12.609   9.995
67951SOL    HW2 5751   8.471  12.481   9.970
67952SOL     OW 5752   6.772   4.122   0.993
67952SOL    HW1 5753   6.709   4.115   1.065
67952SOL    HW2 5754   6.844   4.064   1.018
67953SOL     OW 5755   3.831  11.927  14.436
67953SOL    HW1 5756   3.763  11.864  14.412
67953SOL    HW2 5757   3.783  12.002  14.470
67954SOL     OW 5758   7.468   8.123   2.375
67954SOL    HW1 5759   7.459   8.051   2.438
67954SOL    HW2 5760   7.380   8.161   2.370
67955SOL     OW 5761   2.886   3.883   7.644
67955SOL    HW1 5762   2.956   3.924   7.694
67955SOL    HW2 5763   2.863   3.948   7.577
67956SOL     OW 5764  11.120   3.833   9.646
67956SOL    HW1 5765  11.192   3.792   9.692
67956SOL    HW2 5766  11.086   3.898   9.708
67957SOL     OW 5767  12.017   5.985   6.132
67957SOL    HW1 5768  11.925   5.999   6.156
67957SOL    HW2 5769  12.020   6.005   6.038
67958SOL     OW 5770   5.726   6.024   0.504
67958SOL    HW1 5771   5.710   6.080   0.579
67958SOL    HW2 5772   5.769   6.082   0.440
67959SOL     OW 5773   4.008   7.805   9.720
67959SOL    HW1 5774   4.072   7.807   9.790
67959SOL    HW2 5775   3.935   7.754   9.755
67960SOL     OW 5776   1.142   2.357   4.910
67960SOL    HW1 5777   1.198   2.281   4.928
67960SOL    HW2 5778   1.167   2.421   4.977
67961SOL     OW 5779   9.328  10.647   5.863
67961SOL    HW1 5780   9.405  10.658   5.918
67961SOL    HW2 5781   9.354  10.582   5.798
67962SOL     OW 5782   2.446  14.824   8.080
67962SOL    HW1 5783   2.535  14.794   8.096
67962SOL    HW2 5784   2.428   0.006   8.151
67963SOL     OW 5785   4.008   7.569  11.816
67963SOL    HW1 5786   4.033   7.478  11.798
67963SOL    HW2 5787   3.987   7.570  11.910
67964SOL     OW 5788   9.898   5.556  14.746
67964SOL    HW1 5789   9.911   5.462  14.759
67964SOL    HW2 5790   9.804   5.570  14.756
67965SOL     OW 5791  10.482  10.163   1.104
67965SOL    HW1 5792  10.515  10.142   1.192
67965SOL    HW2 5793  10.430  10.242   1.116
67966SOL     OW 5794  10.713   8.133   4.273
67966SOL    HW1 5795  10.644   8.094   4.219
67966SOL    HW2 5796  10.709   8.085   4.356
67967SOL     OW 5797  12.463  10.531   3.335
67967SOL    HW1 5798  12.411  10.467   3.287
67967SOL    HW2 5799  12.501  10.586   3.266
67968SOL     OW 5800   1.561   5.252   6.647
67968SOL    HW1 5801   1.623   5.180   6.638
67968SOL    HW2 5802   1.554   5.289   6.559
67969SOL     OW 5803   0.721   0.595   0.693
67969SOL    HW1 5804   0.771   0.608   0.774
67969SOL    HW2 5805   0.645   0.543   0.720
67970SOL     OW 5806   3.954   3.057   6.910
67970SOL    HW1 5807   3.901   3.102   6.844
67970SOL    HW2 5808   4.040   3.047   6.869
67971SOL     OW 5809   0.861   8.374   7.057
67971SOL    HW1 5810   0.865   8.366   6.962
67971SOL    HW2 5811   0.915   8.302   7.090
67972SOL     OW 5812  10.914   1.064   2.371
67972SOL    HW1 5813  10.819   1.049   2.371
67972SOL    HW2 5814  10.925   1.152   2.408
67973SOL     OW 5815  12.598   0.593   8.759
67973SOL    HW1 5816  12.687   0.560   8.746
67973SOL    HW2 5817  12.542   0.530   8.714
67974SOL     OW 5818   4.407  12.535   2.576
67974SOL    HW1 5819   4.421  12.533   2.482
67974SOL    HW2 5820   4.440  12.450   2.607
67975SOL     OW 5821   1.619   4.836   0.436
67975SOL    HW1 5822   1.647   4.805   0.522
67975SOL    HW2 5823   1.699   4.838   0.384
67976SOL     OW 5824   7.905   2.138  14.556
67976SOL    HW1 5825   7.992   2.098  14.562
67976SOL    HW2 5826   7.901   2.172  14.467
67977SOL     OW 5827   1.154   7.329  11.500
67977SOL    HW1 5828   1.163   7.405  11.443
67977SOL    HW2 5829   1.233   7.278  11.485
67978SOL     OW 5830   1.728  14.354   3.498
67978SOL    HW1 5831   1.756  14.445   3.496
67978SOL    HW2 5832   1.654  14.350   3.437
67979SOL     OW 5833  10.539   6.114  10.476
67979SOL    HW1 5834  10.485   6.037  10.460
67979SOL    HW2 5835  10.620   6.080  10.513
67980SOL     OW 5836  11.214  13.603   3.006
67980SOL    HW1 5837  11.285  13.654   3.044
67980SOL    HW2 5838  11.249  13.514   3.000
67981SOL     OW 5839  14.809   0.530   1.696
67981SOL    HW1 5840  14.723   0.519   1.657
67981SOL    HW2 5841  14.830   0.623   1.683
67982SOL     OW 5842   9.854   5.702   5.760
67982SOL    HW1 5843   9.892   5.639   5.698
67982SOL    HW2 5844   9.900   5.784   5.742
67983SOL     OW 5845  13.040  10.436   7.922
67983SOL    HW1 5846  13.006  10.512   7.969
67983SOL    HW2 5847  13.075  10.472   7.841
67984SOL     OW 5848  11.514   3.383   0.707
67984SOL    HW1 5849  11.443   3.447   0.697
67984SOL    HW2 5850  11.553   3.404   0.792
67985SOL     OW 5851  13.404   7.999  12.217
67985SOL    HW1 5852  13.330   7.954  12.257
67985SOL    HW2 5853  13.366   8.078  12.179
67986SOL     OW 5854   2.838   7.886  11.291
67986SOL    HW1 5855   2.924   7.844  11.281
67986SOL    HW2 5856   2.845   7.935  11.373
67987SOL     OW 5857   5.466   1.080  13.145
67987SOL    HW1 5858   5.530   1.151  13.154
67987SOL    HW2 5859   5.456   1.070  13.050
67988SOL     OW 5860   4.802   2.387   9.187
67988SOL    HW1 5861   4.852   2.363   9.265
67988SOL    HW2 5862   4.745   2.458   9.215
67989SOL     OW 5863   1.531  10.827   6.247
67989SOL    HW1 5864   1.564  10.774   6.320
67989SOL    HW2 5865   1.509  10.911   6.287
67990SOL     OW 5866   1.587  11.702   6.399
67990SOL    HW1 5867   1.556  11.694   6.490
67990SOL    HW2 5868   1.682  11.708   6.407
67991SOL     OW 5869   2.010   7.958  11.649
67991SOL    HW1 5870   2.076   7.950  11.580
67991SOL    HW2 5871   1.936   8.000  11.606
67992SOL     OW 5872   3.513  13.076   6.477
67992SOL    HW1 5873   3.499  13.140   6.548
67992SOL    HW2 5874   3.599  13.098   6.442
67993SOL     OW 5875   3.884   9.155  14.016
67993SOL    HW1 5876   3.800   9.112  14.035
67993SOL    HW2 5877   3.860   9.234  13.967
67994SOL     OW 5878  12.616   0.605   6.026
67994SOL    HW1 5879  12.597   0.616   6.120
67994SOL    HW2 5880  12.710   0.589   6.022
67995SOL     OW 5881  11.075   6.397  10.733
67995SOL    HW1 5882  11.065   6.404  10.638
67995SOL    HW2 5883  11.041   6.479  10.768
67996SOL     OW 5884  10.476   1.278  12.525
67996SOL    HW1 5885  10.445   1.351  12.577
67996SOL    HW2 5886  10.484   1.313  12.436
67997SOL     OW 5887   1.344   3.232   9.446
67997SOL    HW1 5888   1.383   3.313   9.414
67997SOL    HW2 5889   1.254   3.235   9.413
67998SOL     OW 5890   3.003  13.114  10.087
67998SOL    HW1 5891   3.072  13.050  10.070
67998SOL    HW2 5892   2.923  13.061  10.091
67999SOL     OW 5893   1.026   5.453   4.044
67999SOL    HW1 5894   0.981   5.535   4.023
67999SOL    HW2 5895   1.119   5.474   4.031
68000SOL     OW 5896   1.779  13.088  13.078
68000SOL    HW1 5897   1.695  13.078  13.031
68000SOL    HW2 5898   1.754  13.116  13.166
68001SOL     OW 5899   8.762   9.440   0.023
68001SOL    HW1 5900   8.807   9.518   0.056
68001SOL    HW2 5901   8.705   9.473  14.834
68002SOL     OW 5902  14.440  13.988  11.995
68002SOL    HW1 5903  14.505  14.057  12.010
68002SOL    HW2 5904  14.420  13.995  11.901
68003SOL     OW 5905   2.568  10.330  12.085
68003SOL    HW1 5906   2.644  10.297  12.038
68003SOL    HW2 5907   2.569  10.425  12.068
68004SOL     OW 5908   3.796   7.114  11.347
68004SOL    HW1 5909   3.758   7.081  11.428
68004SOL    HW2 5910   3.834   7.037  11.304
68005SOL     OW 5911   8.944  12.507   6.080
68005SOL    HW1 5912   9.026  12.510   6.030
68005SOL    HW2 5913   8.961  12.563   6.156
68006SOL     OW 5914   9.179   3.634   0.908
68006SOL    HW1 5915   9.130   3.553   0.907
68006SOL    HW2 5916   9.246   3.623   0.841
68007SOL     OW 5917  12.672   0.420  12.737
68007SOL    HW1 5918  12.615   0.392  12.666
68007SOL    HW2 5919  12.714   0.500  12.704
68008SOL     OW 5920   2.345  11.578   0.562
68008SOL    HW1 5921   2.339  11.510   0.495
68008SOL    HW2 5922   2.309  11.538   0.641
68009SOL     OW 5923  10.168  14.214   9.765
68009SOL    HW1 5924  10.130  14.149   9.825
68009SOL    HW2 5925  10.186  14.165   9.685
68010SOL     OW 5926  14.218   7.795   2.003
68010SOL    HW1 5927  14.157   7.751   1.944
68010SOL    HW2 5928  14.169   7.870   2.038
68011SOL     OW 5929   7.284   8.697  12.244
68011SOL    HW1 5930   7.243   8.757  12.182
68011SOL    HW2 5931   7.229   8.701  12.322
68012SOL     OW 5932   3.929  12.122   7.918
68012SOL    HW1 5933   3.903  12.086   8.003
68012SOL    HW2 5934   3.861  12.091   7.858
68013SOL     OW 5935   9.967   0.844   1.685
68013SOL    HW1 5936   9.916   0.820   1.763
68013SOL    HW2 5937  10.053   0.806   1.701
68014SOL     OW 5938  13.574   9.093   3.814
68014SOL    HW1 5939  13.483   9.063   3.819
68014SOL    HW2 5940  13.594   9.126   3.902
68015SOL     OW 5941  11.628   3.151   7.957
68015SOL    HW1 5942  11.654   3.125   7.869
68015SOL    HW2 5943  11.538   3.118   7.966
68016SOL     OW 5944   2.719   1.882   9.478
68016SOL    HW1 5945   2.677   1.952   9.528
68016SOL    HW2 5946   2.758   1.928   9.403
68017SOL     OW 5947   4.919  12.927   9.546
68017SOL    HW1 5948   4.956  12.934   9.634
68017SOL    HW2 5949   4.872  13.009   9.533
68018SOL     OW 5950   9.149   5.742   1.767
68018SOL    HW1 5951   9.197   5.681   1.823
68018SOL    HW2 5952   9.094   5.792   1.827
68019SOL     OW 5953   4.240  11.859   6.804
68019SOL    HW1 5954   4.180  11.888   6.735
68019SOL    HW2 5955   4.310  11.925   6.805
68020SOL     OW 5956   4.006   9.224  13.548
68020SOL    HW1 5957   4.082   9.167  13.536
68020SOL    HW2 5958   3.948   9.174  13.605
68021SOL     OW 5959   8.509  12.553   6.067
68021SOL    HW1 5960   8.565  12.486   6.029
68021SOL    HW2 5961   8.557  12.634   6.055
68022SOL     OW 5962  14.469   8.231   3.370
68022SOL    HW1 5963  14.414   8.183   3.433
68022SOL    HW2 5964  14.528   8.282   3.424
68023SOL     OW 5965   8.165  14.054  11.489
68023SOL    HW1 5966   8.082  14.083  11.450
68023SOL    HW2 5967   8.231  14.075  11.422
68024SOL     OW 5968   8.908  13.611  12.269
68024SOL    HW1 5969   8.878  13.525  12.238
68024SOL    HW2 5970   8.916  13.663  12.189
68025SOL     OW 5971  13.971   3.081   2.004
68025SOL    HW1 5972  13.990   3.044   2.090
68025SOL    HW2 5973  14.051   3.069   1.953
68026SOL     OW 5974   7.253   0.130   1.211
68026SOL    HW1 5975   7.256   0.047   1.259
68026SOL    HW2 5976   7.340   0.168   1.223
68027SOL     OW 5977   1.960   8.527   6.550
68027SOL    HW1 5978   2.005   8.531   6.634
68027SOL    HW2 5979   2.022   8.485   6.491
68028SOL     OW 5980   4.974  11.244   1.403
68028SOL    HW1 5981   4.989  11.260   1.310
68028SOL    HW2 5982   5.061  11.246   1.442
68029SOL     OW 5983   5.968  11.559  12.082
68029SOL    HW1 5984   5.986  11.539  11.990
68029SOL    HW2 5985   5.999  11.482  12.130
68030SOL     OW 5986   8.153   6.722   0.595
68030SOL    HW1 5987   8.121   6.667   0.667
68030SOL    HW2 5988   8.176   6.660   0.526
68031SOL     OW 5989   1.310   1.643  12.479
68031SOL    HW1 5990   1.348   1.655  12.392
68031SOL    HW2 5991   1.297   1.549  12.487
68032SOL     OW 5992   1.990   6.823   6.716
68032SOL    HW1 5993   1.955   6.824   6.805
68032SOL    HW2 5994   2.074   6.867   6.723
68033SOL     OW 5995   1.628   4.768  13.042
68033SOL    HW1 5996   1.610   4.860  13.061
68033SOL    HW2 5997   1.543   4.725  13.049
68034SOL     OW 5998   4.563   7.269  11.088
68034SOL    HW1 5999   4.635   7.212  11.060
68034SOL    HW2 6000   4.564   7.263  11.184
68035SOL     OW 6001   5.531   3.932   0.096
68035SOL    HW1 6002   5.589   3.889   0.159
68035SOL    HW2 6003   5.588   3.955   0.023
68036SOL     OW 6004  13.043  13.376   1.355
68036SOL    HW1 6005  13.131  13.393   1.323
68036SOL    HW2 6006  13.055  13.315   1.427
68037SOL     OW 6007   5.286   7.518   7.587
68037SOL    HW1 6008   5.360   7.462   7.613
68037SOL    HW2 6009   5.250   7.475   7.509
68038SOL     OW 6010  10.810   8.241   9.676
68038SOL    HW1 6011  10.796   8.150   9.703
68038SOL    HW2 6012  10.725   8.268   9.640
68039SOL     OW 6013   4.755   2.869  11.021
68039SOL    HW1 6014   4.761   2.908  10.934
68039SOL    HW2 6015   4.833   2.814  11.028
68040SOL     OW 6016  14.556   2.418   0.153
68040SOL    HW1 6017  14.588   2.465   0.075
68040SOL    HW2 6018  14.489   2.359   0.119
68041SOL     OW 6019   5.373  14.199   6.362
68041SOL    HW1 6020   5.348  14.249   6.284
68041SOL    HW2 6021   5.296  14.205   6.419
68042SOL     OW 6022  10.155  11.980  10.214
68042SOL    HW1 6023  10.197  12.049  10.163
68042SOL    HW2 6024  10.081  11.953  10.159
68043SOL     OW 6025   1.228  11.001  11.740
68043SOL    HW1 6026   1.175  10.925  11.763
68043SOL    HW2 6027   1.273  11.024  11.821
68044SOL     OW 6028  12.146  10.784  12.160
68044SOL    HW1 6029  12.172  10.875  12.146
68044SOL    HW2 6030  12.050  10.785  12.151
68045SOL     OW 6031  11.850   8.470  10.862
68045SOL    HW1 6032  11.922   8.532  10.853
68045SOL    HW2 6033  11.891   8.390  10.895
68046SOL     OW 6034   1.144  11.067   6.217
68046SOL    HW1 6035   1.084  11.140   6.230
68046SOL    HW2 6036   1.224  11.107   6.182
68047SOL     OW 6037   2.565   3.604   6.378
68047SOL    HW1 6038   2.631   3.563   6.320
68047SOL    HW2 6039   2.550   3.690   6.339
68048SOL     OW 6040   9.819   0.776   1.091
68048SOL    HW1 6041   9.772   0.825   1.158
68048SOL    HW2 6042   9.907   0.765   1.126
68049SOL     OW 6043  14.255  12.392  12.174
68049SOL    HW1 6044  14.281  12.477  12.209
68049SOL    HW2 6045  14.317  12.375  12.103
68050SOL     OW 6046  10.575  11.142  11.414
68050SOL    HW1 6047  10.556  11.236  11.403
68050SOL    HW2 6048  10.574  11.108  11.324
68051SOL     OW 6049   6.300   1.415   2.437
68051SOL    HW1 6050   6.253   1.443   2.359
68051SOL    HW2 6051   6.350   1.493   2.464
68052SOL     OW 6052  14.214   2.758   2.558
68052SOL    HW1 6053  14.174   2.745   2.472
68052SOL    HW2 6054  14.230   2.852   2.564
68053SOL     OW 6055   3.299   2.122   0.998
68053SOL    HW1 6056   3.279   2.202   0.950
68053SOL    HW2 6057   3.230   2.116   1.064
68054SOL     OW 6058   6.440   6.042  14.456
68054SOL    HW1 6059   6.504   5.972  14.445
68054SOL    HW2 6060   6.487   6.122  14.432
68055SOL     OW 6061   7.460   7.887   3.991
68055SOL    HW1 6062   7.499   7.863   4.075
68055SOL    HW2 6063   7.376   7.841   3.990
68056SOL     OW 6064   2.566   9.936   6.178
68056SOL    HW1 6065   2.647   9.950   6.228
68056SOL    HW2 6066   2.595   9.924   6.088
68057SOL     OW 6067  11.157   2.259   5.491
68057SOL    HW1 6068  11.079   2.307   5.463
68057SOL    HW2 6069  11.140   2.168   5.465
68058SOL     OW 6070   3.231   3.439   3.791
68058SOL    HW1 6071   3.152   3.493   3.784
68058SOL    HW2 6072   3.295   3.496   3.833
68059SOL     OW 6073   4.378   5.854   2.322
68059SOL    HW1 6074   4.297   5.903   2.335
68059SOL    HW2 6075   4.439   5.917   2.285
68060SOL     OW 6076   3.694  10.540   0.725
68060SOL    HW1 6077   3.687  10.566   0.817
68060SOL    HW2 6078   3.670  10.448   0.725
68061SOL     OW 6079  12.344  12.612   3.643
68061SOL    HW1 6080  12.389  12.529   3.656
68061SOL    HW2 6081  12.266  12.606   3.698
68062SOL     OW 6082   6.860   0.700   8.298
68062SOL    HW1 6083   6.907   0.776   8.264
68062SOL    HW2 6084   6.885   0.695   8.390
68063SOL     OW 6085   6.622   5.445   7.805
68063SOL    HW1 6086   6.670   5.364   7.823
68063SOL    HW2 6087   6.620   5.451   7.710
68064SOL     OW 6088  11.729  11.162  10.977
68064SOL    HW1 6089  11.748  11.244  10.932
68064SOL    HW2 6090  11.762  11.176  11.066
68065SOL     OW 6091  13.036  10.772  11.221
68065SOL    HW1 6092  12.942  10.765  11.210
68065SOL    HW2 6093  13.051  10.861  11.252
68066SOL     OW 6094  14.293  12.109   2.157
68066SOL    HW1 6095  14.328  12.184   2.204
68066SOL    HW2 6096  14.205  12.135   2.131
68067SOL     OW 6097   1.320   5.638  13.706
68067SOL    HW1 6098   1.347   5.551  13.736
68067SOL    HW2 6099   1.273   5.621  13.624
68068SOL     OW 6100   6.859   9.314  12.003
68068SOL    HW1 6101   6.817   9.273  11.928
68068SOL    HW2 6102   6.854   9.408  11.985
68069SOL     OW 6103  12.904   2.412  12.163
68069SOL    HW1 6104  12.813   2.390  12.141
68069SOL    HW2 6105  12.956   2.365  12.099
68070SOL     OW 6106   4.198  10.577   5.802
68070SOL    HW1 6107   4.174  10.670   5.795
68070SOL    HW2 6108   4.294  10.578   5.802
68071SOL     OW 6109   9.445  11.156  11.327
68071SOL    HW1 6110   9.511  11.209  11.372
68071SOL    HW2 6111   9.444  11.073  11.376
68072SOL     OW 6112  12.367   5.511  12.010
68072SOL    HW1 6113  12.456   5.489  11.982
68072SOL    HW2 6114  12.343   5.442  12.071
68073SOL     OW 6115   5.314  13.322   6.068
68073SOL    HW1 6116   5.318  13.295   5.976
68073SOL    HW2 6117   5.365  13.256   6.115
68074SOL     OW 6118   9.893   4.690   2.643
68074SOL    HW1 6119   9.819   4.669   2.700
68074SOL    HW2 6120   9.856   4.690   2.555
68075SOL     OW 6121  13.051   7.883   3.576
68075SOL    HW1 6122  13.120   7.817   3.573
68075SOL    HW2 6123  13.031   7.901   3.484
68076SOL     OW 6124  11.399  10.463  13.471
68076SOL    HW1 6125  11.473  10.487  13.414
68076SOL    HW2 6126  11.407  10.520  13.547
68077SOL     OW 6127   6.451   7.924   8.994
68077SOL    HW1 6128   6.392   7.990   9.031
68077SOL    HW2 6129   6.538   7.950   9.025
68078SOL     OW 6130   8.491   6.321  14.297
68078SOL    HW1 6131   8.499   6.314  14.202
68078SOL    HW2 6132   8.562   6.266  14.331
68079SOL     OW 6133   5.634   8.227   6.341
68079SOL    HW1 6134   5.668   8.212   6.253
68079SOL    HW2 6135   5.712   8.232   6.396
68080SOL     OW 6136   6.707   1.761   2.917
68080SOL    HW1 6137   6.764   1.824   2.961
68080SOL    HW2 6138   6.649   1.729   2.986
68081SOL     OW 6139   9.321  14.738   1.295
68081SOL    HW1 6140   9.286  14.649   1.301
68081SOL    HW2 6141   9.287  14.782   1.373
68082SOL     OW 6142   8.622   9.070   2.445
68082SOL    HW1 6143   8.667   9.094   2.364
68082SOL    HW2 6144   8.591   8.980   2.429
68083SOL     OW 6145   9.748   0.071  11.193
68083SOL    HW1 6146   9.785   0.123  11.265
68083SOL    HW2 6147   9.742   0.132  11.120
68084SOL     OW 6148   7.444   8.007   8.740
68084SOL    HW1 6149   7.398   8.004   8.656
68084SOL    HW2 6150   7.410   7.932   8.788
68085SOL     OW 6151   5.475  13.179  14.390
68085SOL    HW1 6152   5.531  13.104  14.406
68085SOL    HW2 6153   5.485  13.198  14.297
68086SOL     OW 6154  10.550   8.913   5.851
68086SOL    HW1 6155  10.539   8.947   5.939
68086SOL    HW2 6156  10.462   8.892   5.821
68087SOL     OW 6157   7.801  13.954  12.974
68087SOL    HW1 6158   7.876  13.917  13.020
68087SOL    HW2 6159   7.839  14.014  12.910
68088SOL     OW 6160  12.670   6.351   4.461
68088SOL    HW1 6161  12.735   6.321   4.398
68088SOL    HW2 6162  12.666   6.446   4.448
68089SOL     OW 6163   2.252   0.593  12.642
68089SOL    HW1 6164   2.343   0.575  12.665
68089SOL    HW2 6165   2.256   0.676  12.594
68090SOL     OW 6166   9.711   4.846   8.249
68090SOL    HW1 6167   9.730   4.923   8.195
68090SOL    HW2 6168   9.794   4.799   8.253
68091SOL     OW 6169  14.626   6.251   9.505
68091SOL    HW1 6170  14.602   6.313   9.435
68091SOL    HW2 6171  14.568   6.273   9.578
68092SOL     OW 6172  13.270  11.260  13.148
68092SOL    HW1 6173  13.197  11.248  13.208
68092SOL    HW2 6174  13.326  11.324  13.192
68093SOL     OW 6175  11.176   4.220  10.958
68093SOL    HW1 6176  11.175   4.315  10.967
68093SOL    HW2 6177  11.212   4.188  11.040
68094SOL     OW 6178   3.700  12.990  10.243
68094SOL    HW1 6179   3.683  12.996  10.337
68094SOL    HW2 6180   3.781  13.040  10.230
68095SOL     OW 6181   2.440   7.390   3.891
68095SOL    HW1 6182   2.510   7.326   3.883
68095SOL    HW2 6183   2.395   7.386   3.806
68096SOL     OW 6184   0.989   6.617   4.876
68096SOL    HW1 6185   1.060   6.647   4.933
68096SOL    HW2 6186   0.910   6.655   4.915
68097SOL     OW 6187  13.904   2.289   0.624
68097SOL    HW1 6188  13.823   2.250   0.658
68097SOL    HW2 6189  13.901   2.270   0.530
68098SOL     OW 6190   0.855   9.077  12.974
68098SOL    HW1 6191   0.917   9.041  13.037
68098SOL    HW2 6192   0.770   9.043  13.002
68099SOL     OW 6193   0.934  10.023   2.636
68099SOL    HW1 6194   0.885  10.082   2.579
68099SOL    HW2 6195   1.016  10.069   2.654
68100SOL     OW 6196   6.578   2.207   1.403
68100SOL    HW1 6197   6.673   2.217   1.401
68100SOL    HW2 6198   6.560   2.131   1.349
68101SOL     OW 6199   0.269  13.235  13.962
68101SOL    HW1 6200   0.176  13.260  13.959
68101SOL    HW2 6201   0.312  13.294  13.900
68102SOL     OW 6202   4.801   9.841   9.722
68102SOL    HW1 6203   4.754   9.758   9.715
68102SOL    HW2 6204   4.798   9.877   9.634
68103SOL     OW 6205  13.409  13.778   6.763
68103SOL    HW1 6206  13.441  13.813   6.847
68103SOL    HW2 6207  13.313  13.781   6.771
68104SOL     OW 6208   3.449   0.252   6.825
68104SOL    HW1 6209   3.375   0.210   6.868
68104SOL    HW2 6210   3.526   0.202   6.853
68105SOL     OW 6211   6.852  14.083   9.859
68105SOL    HW1 6212   6.861  14.167   9.815
68105SOL    HW2 6213   6.902  14.092   9.940
68106SOL     OW 6214   0.838   2.950   9.560
68106SOL    HW1 6215   0.744   2.948   9.579
68106SOL    HW2 6216   0.855   2.868   9.515
68107SOL     OW 6217   9.666  11.601  10.451
68107SOL    HW1 6218   9.696  11.615  10.361
68107SOL    HW2 6219   9.603  11.672  10.465
68108SOL     OW 6220   2.880   5.231   3.765
68108SOL    HW1 6221   2.790   5.199   3.765
68108SOL    HW2 6222   2.933   5.152   3.776
68109SOL     OW 6223  12.630   1.363   4.457
68109SOL    HW1 6224  12.582   1.282   4.439
68109SOL    HW2 6225  12.673   1.347   4.541
68110SOL     OW 6226   2.163   4.615   5.291
68110SOL    HW1 6227   2.094   4.680   5.299
68110SOL    HW2 6228   2.212   4.620   5.373
68111SOL     OW 6229  10.363   1.986   9.983
68111SOL    HW1 6230  10.284   1.935  10.001
68111SOL    HW2 6231  10.411   1.935   9.917
68112SOL     OW 6232   2.950   4.468  11.346
68112SOL    HW1 6233   2.945   4.547  11.292
68112SOL    HW2 6234   3.041   4.466  11.376
68113SOL     OW 6235   5.435  11.154  11.124
68113SOL    HW1 6236   5.495  11.084  11.096
68113SOL    HW2 6237   5.482  11.234  11.103
68114SOL     OW 6238   6.751   8.430   5.753
68114SOL    HW1 6239   6.746   8.339   5.782
68114SOL    HW2 6240   6.660   8.459   5.749
68115SOL     OW 6241   8.343   8.335  13.616
68115SOL    HW1 6242   8.253   8.315  13.591
68115SOL    HW2 6243   8.386   8.356  13.533
68116SOL     OW 6244   8.644   3.484   5.119
68116SOL    HW1 6245   8.666   3.567   5.162
68116SOL    HW2 6246   8.718   3.467   5.060
68117SOL     OW 6247   4.900   7.775   7.873
68117SOL    HW1 6248   4.957   7.840   7.913
68117SOL    HW2 6249   4.960   7.715   7.827
68118SOL     OW 6250   7.147   4.090   2.399
68118SOL    HW1 6251   7.120   4.179   2.376
68118SOL    HW2 6252   7.217   4.102   2.462
68119SOL     OW 6253   6.256   0.014   7.959
68119SOL    HW1 6254   6.258  14.846   8.041
68119SOL    HW2 6255   6.179  14.861   7.913
68120SOL     OW 6256   3.836   0.381  13.985
68120SOL    HW1 6257   3.807   0.394  14.075
68120SOL    HW2 6258   3.775   0.317  13.950
68121SOL     OW 6259   5.580  13.815  12.466
68121SOL    HW1 6260   5.520  13.791  12.395
68121SOL    HW2 6261   5.592  13.734  12.515
68122SOL     OW 6262  10.921   0.123   2.095
68122SOL    HW1 6263  10.829   0.140   2.115
68122SOL    HW2 6264  10.926   0.129   1.999
68123SOL     OW 6265  13.545  14.701   2.693
68123SOL    HW1 6266  13.579  14.650   2.766
68123SOL    HW2 6267  13.472  14.750   2.730
68124SOL     OW 6268  13.986   1.754  11.674
68124SOL    HW1 6269  13.894   1.754  11.648
68124SOL    HW2 6270  14.024   1.680  11.627
68125SOL     OW 6271   2.534  14.386  12.625
68125SOL    HW1 6272   2.557  14.345  12.708
68125SOL    HW2 6273   2.567  14.475  12.632
68126SOL     OW 6274   7.672   9.456   0.017
68126SOL    HW1 6275   7.579   9.437  14.880
68126SOL    HW2 6276   7.681   9.549  14.875
68127SOL     OW 6277   2.070   8.931   8.771
68127SOL    HW1 6278   2.124   8.948   8.848
68127SOL    HW2 6279   1.990   8.891   8.806
68128SOL     OW 6280  12.985  12.592   9.376
68128SOL    HW1 6281  12.993  12.640   9.459
68128SOL    HW2 6282  12.912  12.532   9.390
68129SOL     OW 6283  14.427  13.123   3.639
68129SOL    HW1 6284  14.505  13.084   3.599
68129SOL    HW2 6285  14.364  13.051   3.642
68130SOL     OW 6286  12.083  11.288  14.311
68130SOL    HW1 6287  12.131  11.371  14.308
68130SOL    HW2 6288  11.991  11.313  14.311
68131SOL     OW 6289  14.744   3.682   6.311
68131SOL    HW1 6290  14.758   3.775   6.331
68131SOL    HW2 6291  14.820   3.638   6.348
68132SOL     OW 6292   8.849  13.876   5.041
68132SOL    HW1 6293   8.868  13.782   5.044
68132SOL    HW2 6294   8.753  13.881   5.048
68133SOL     OW 6295  12.637  13.491  13.190
68133SOL    HW1 6296  12.567  13.544  13.227
68133SOL    HW2 6297  12.619  13.489  13.096
68134SOL     OW 6298   7.003   0.304  10.090
68134SOL    HW1 6299   6.995   0.254  10.171
68134SOL    HW2 6300   7.097   0.309  10.074
68135SOL     OW 6301   3.765   7.541   5.610
68135SOL    HW1 6302   3.766   7.636   5.620
68135SOL    HW2 6303   3.741   7.508   5.696
68136SOL     OW 6304  11.398   3.891   8.455
68136SOL    HW1 6305  11.387   3.823   8.389
68136SOL    HW2 6306  11.438   3.964   8.408
68137SOL     OW 6307  14.172   0.822   4.862
68137SOL    HW1 6308  14.262   0.851   4.880
68137SOL    HW2 6309  14.162   0.832   4.767
68138SOL     OW 6310   7.366  13.738   3.090
68138SOL    HW1 6311   7.372  13.736   2.994
68138SOL    HW2 6312   7.337  13.650   3.114
68139SOL     OW 6313  14.078   6.595   4.592
68139SOL    HW1 6314  14.124   6.678   4.584
68139SOL    HW2 6315  14.117   6.553   4.669
68140SOL     OW 6316  12.678   5.507   7.926
68140SOL    HW1 6317  12.700   5.473   8.013
68140SOL    HW2 6318  12.582   5.505   7.924
68141SOL     OW 6319   3.787   6.624   1.368
68141SOL    HW1 6320   3.785   6.619   1.273
68141SOL    HW2 6321   3.766   6.536   1.398
68142SOL     OW 6322   6.377   1.340   4.668
68142SOL    HW1 6323   6.379   1.436   4.661
68142SOL    HW2 6324   6.374   1.323   4.762
68143SOL     OW 6325   2.142   8.261   1.440
68143SOL    HW1 6326   2.100   8.341   1.407
68143SOL    HW2 6327   2.226   8.258   1.393
68144SOL     OW 6328  10.799   9.491  12.574
68144SOL    HW1 6329  10.784   9.456  12.487
68144SOL    HW2 6330  10.815   9.415  12.629
68145SOL     OW 6331  13.116   4.622   2.458
68145SOL    HW1 6332  13.145   4.590   2.544
68145SOL    HW2 6333  13.021   4.624   2.464
68146SOL     OW 6334  13.150  11.725   5.190
68146SOL    HW1 6335  13.103  11.716   5.273
68146SOL    HW2 6336  13.106  11.664   5.131
68147SOL     OW 6337   2.192  14.543   4.879
68147SOL    HW1 6338   2.187  14.636   4.860
68147SOL    HW2 6339   2.240  14.506   4.804
68148SOL     OW 6340   9.004  10.314   0.980
68148SOL    HW1 6341   9.045  10.341   0.898
68148SOL    HW2 6342   9.030  10.223   0.991
68149SOL     OW 6343   7.901  12.720   1.616
68149SOL    HW1 6344   7.808  12.734   1.637
68149SOL    HW2 6345   7.900  12.687   1.526
68150SOL     OW 6346  14.081   4.504  11.369
68150SOL    HW1 6347  14.044   4.420  11.397
68150SOL    HW2 6348  14.038   4.569  11.423
68151SOL     OW 6349  11.310  11.306  13.094
68151SOL    HW1 6350  11.270  11.304  13.181
68151SOL    HW2 6351  11.393  11.260  13.105
68152SOL     OW 6352  12.445   4.480   0.026
68152SOL    HW1 6353  12.520   4.495   0.084
68152SOL    HW2 6354  12.456   4.546  14.837
68153SOL     OW 6355   0.418  10.035   7.407
68153SOL    HW1 6356   0.501  10.054   7.363
68153SOL    HW2 6357   0.414   9.940   7.411
68154SOL     OW 6358   0.378  13.204  14.429
68154SOL    HW1 6359   0.346  13.134  14.485
68154SOL    HW2 6360   0.342  13.284  14.467
68155SOL     OW 6361   1.902  10.864   8.830
68155SOL    HW1 6362   1.896  10.889   8.922
68155SOL    HW2 6363   1.812  10.865   8.799
68156SOL     OW 6364   9.835   2.836   6.212
68156SOL    HW1 6365   9.794   2.882   6.286
68156SOL    HW2 6366   9.763   2.820   6.151
68157SOL     OW 6367  10.503  11.768  13.866
68157SOL    HW1 6368  10.419  11.727  13.889
68157SOL    HW2 6369  10.525  11.732  13.781
68158SOL     OW 6370   2.369   4.976  11.556
68158SOL    HW1 6371   2.374   4.968  11.461
68158SOL    HW2 6372   2.306   4.909  11.583
68159SOL     OW 6373  10.957  12.455   4.997
68159SOL    HW1 6374  10.982  12.456   5.089
68159SOL    HW2 6375  11.039  12.438   4.950
68160SOL     OW 6376  12.192   4.573   2.287
68160SOL    HW1 6377  12.141   4.516   2.229
68160SOL    HW2 6378  12.213   4.518   2.362
68161SOL     OW 6379  10.708  14.360   5.276
68161SOL    HW1 6380  10.732  14.450   5.259
68161SOL    HW2 6381  10.632  14.344   5.219
68162SOL     OW 6382  10.936   0.647   8.043
68162SOL    HW1 6383  10.978   0.561   8.038
68162SOL    HW2 6384  10.917   0.659   8.136
68163SOL     OW 6385   9.440  12.854   6.674
68163SOL    HW1 6386   9.386  12.816   6.604
68163SOL    HW2 6387   9.398  12.824   6.755
68164SOL     OW 6388  10.875   6.896  14.794
68164SOL    HW1 6389  10.799   6.844  14.817
68164SOL    HW2 6390  10.907   6.858  14.712
68165SOL     OW 6391  12.382  14.654  14.357
68165SOL    HW1 6392  12.384  14.594  14.431
68165SOL    HW2 6393  12.312  14.717  14.377
68166SOL     OW 6394   8.609   2.782   0.354
68166SOL    HW1 6395   8.608   2.787   0.259
68166SOL    HW2 6396   8.685   2.833   0.380
68167SOL     OW 6397  12.173   9.324   2.709
68167SOL    HW1 6398  12.263   9.309   2.736
68167SOL    HW2 6399  12.126   9.246   2.738
68168SOL     OW 6400   3.384   0.962   3.945
68168SOL    HW1 6401   3.453   1.029   3.938
68168SOL    HW2 6402   3.313   0.996   3.890
68169SOL     OW 6403   2.332   5.783  10.725
68169SOL    HW1 6404   2.359   5.692  10.735
68169SOL    HW2 6405   2.240   5.784  10.752
68170SOL     OW 6406   4.449   1.905   6.762
68170SOL    HW1 6407   4.403   1.827   6.794
68170SOL    HW2 6408   4.426   1.974   6.825
68171SOL     OW 6409   4.838   4.243   4.363
68171SOL    HW1 6410   4.815   4.329   4.326
68171SOL    HW2 6411   4.766   4.222   4.422
68172SOL     OW 6412  12.935  12.087  14.559
68172SOL    HW1 6413  12.928  12.182  14.562
68172SOL    HW2 6414  12.977  12.063  14.641
68173SOL     OW 6415  11.386   7.369   6.901
68173SOL    HW1 6416  11.422   7.295   6.950
68173SOL    HW2 6417  11.454   7.436   6.906
68174SOL     OW 6418   8.752   2.625   2.361
68174SOL    HW1 6419   8.790   2.537   2.360
68174SOL    HW2 6420   8.773   2.660   2.448
68175SOL     OW 6421  14.014  12.105   0.238
68175SOL    HW1 6422  14.063  12.081   0.159
68175SOL    HW2 6423  14.014  12.025   0.291
68176SOL     OW 6424  10.072  11.650   7.058
68176SOL    HW1 6425  10.046  11.616   6.973
68176SOL    HW2 6426  10.039  11.585   7.120
68177SOL     OW 6427  10.649   1.447   7.563
68177SOL    HW1 6428  10.666   1.446   7.469
68177SOL    HW2 6429  10.593   1.371   7.579
68178SOL     OW 6430   0.164   2.904   2.564
68178SOL    HW1 6431   0.165   2.985   2.615
68178SOL    HW2 6432   0.107   2.845   2.613
68179SOL     OW 6433   6.921  13.261   3.873
68179SOL    HW1 6434   6.916  13.205   3.796
68179SOL    HW2 6435   6.829  13.281   3.893
68180SOL     OW 6436   0.661  12.802  14.607
68180SOL    HW1 6437   0.679  12.788  14.514
68180SOL    HW2 6438   0.631  12.717  14.638
68181SOL     OW 6439  14.589   9.293   8.477
68181SOL    HW1 6440  14.663   9.240   8.504
68181SOL    HW2 6441  14.616   9.331   8.393
68182SOL     OW 6442   6.165   9.235   4.201
68182SOL    HW1 6443   6.180   9.272   4.288
68182SOL    HW2 6444   6.134   9.308   4.149
68183SOL     OW 6445   6.714   3.657   8.509
68183SOL    HW1 6446   6.720   3.749   8.482
68183SOL    HW2 6447   6.802   3.635   8.540
68184SOL     OW 6448  12.706   0.349   3.814
68184SOL    HW1 6449  12.615   0.330   3.792
68184SOL    HW2 6450  12.705   0.374   3.906
68185SOL     OW 6451  12.720   6.465  12.166
68185SOL    HW1 6452  12.789   6.519  12.126
68185SOL    HW2 6453  12.647   6.469  12.104
68186SOL     OW 6454   9.579   6.020   2.387
68186SOL    HW1 6455   9.530   5.941   2.363
68186SOL    HW2 6456   9.650   5.988   2.443
68187SOL     OW 6457  10.386  11.680   7.938
68187SOL    HW1 6458  10.475  11.646   7.942
68187SOL    HW2 6459  10.381  11.727   7.855
68188SOL     OW 6460   9.814  11.788   5.863
68188SOL    HW1 6461   9.802  11.882   5.867
68188SOL    HW2 6462   9.782  11.755   5.947
68189SOL     OW 6463  10.113  11.924   6.925
68189SOL    HW1 6464  10.078  11.989   6.985
68189SOL    HW2 6465  10.115  11.843   6.977
68190SOL     OW 6466   8.196   3.222   4.101
68190SOL    HW1 6467   8.157   3.293   4.152
68190SOL    HW2 6468   8.269   3.191   4.155
68191SOL     OW 6469   0.784   0.349   3.231
68191SOL    HW1 6470   0.857   0.291   3.210
68191SOL    HW2 6471   0.825   0.434   3.246
68192SOL     OW 6472   9.686   8.419  13.218
68192SOL    HW1 6473   9.600   8.444  13.253
68192SOL    HW2 6474   9.673   8.330  13.185
68193SOL     OW 6475   6.611   5.123   4.604
68193SOL    HW1 6476   6.616   5.057   4.535
68193SOL    HW2 6477   6.521   5.118   4.635
68194SOL     OW 6478   5.662   2.995   8.953
68194SOL    HW1 6479   5.586   3.053   8.959
68194SOL    HW2 6480   5.693   3.005   8.863
68195SOL     OW 6481   6.208   2.090  12.727
68195SOL    HW1 6482   6.255   2.007  12.720
68195SOL    HW2 6483   6.224   2.119  12.817
68196SOL     OW 6484   8.203   2.034   7.112
68196SOL    HW1 6485   8.177   2.020   7.021
68196SOL    HW2 6486   8.245   1.952   7.137
68197SOL     OW 6487   4.013   1.551   4.748
68197SOL    HW1 6488   3.972   1.475   4.791
68197SOL    HW2 6489   4.107   1.532   4.749
68198SOL     OW 6490   5.468   2.705  10.403
68198SOL    HW1 6491   5.411   2.663  10.467
68198SOL    HW2 6492   5.552   2.660  10.412
68199SOL     OW 6493  10.133  10.405   2.274
68199SOL    HW1 6494  10.110  10.329   2.326
68199SOL    HW2 6495  10.050  10.435   2.237
68200SOL     OW 6496   8.297   3.303   7.584
68200SOL    HW1 6497   8.335   3.387   7.608
68200SOL    HW2 6498   8.225   3.291   7.646
68201SOL     OW 6499   0.855  10.521   2.747
68201SOL    HW1 6500   0.835  10.556   2.834
68201SOL    HW2 6501   0.782  10.548   2.692
68202SOL     OW 6502  10.458  10.034   6.734
68202SOL    HW1 6503  10.407  10.063   6.810
68202SOL    HW2 6504  10.520  10.104   6.719
68203SOL     OW 6505  11.205  12.333   3.424
68203SOL    HW1 6506  11.268  12.403   3.413
68203SOL    HW2 6507  11.251  12.267   3.476
68204SOL     OW 6508   7.109   4.182   6.651
68204SOL    HW1 6509   7.177   4.156   6.590
68204SOL    HW2 6510   7.129   4.273   6.674
68205SOL     OW 6511  12.190   6.083   1.709
68205SOL    HW1 6512  12.207   6.100   1.801
68205SOL    HW2 6513  12.095   6.079   1.702
68206SOL     OW 6514   1.500  14.809   7.315
68206SOL    HW1 6515   1.576  14.868   7.306
68206SOL    HW2 6516   1.442  14.854   7.376
68207SOL     OW 6517   6.551   7.637   7.310
68207SOL    HW1 6518   6.637   7.601   7.332
68207SOL    HW2 6519   6.489   7.568   7.333
68208SOL     OW 6520   0.345   7.061   6.353
68208SOL    HW1 6521   0.275   7.005   6.319
68208SOL    HW2 6522   0.397   7.003   6.408
68209SOL     OW 6523   9.641   6.668   5.351
68209SOL    HW1 6524   9.657   6.750   5.398
68209SOL    HW2 6525   9.635   6.602   5.419
68210SOL     OW 6526  13.648   0.229   5.381
68210SOL    HW1 6527  13.578   0.194   5.436
68210SOL    HW2 6528  13.640   0.182   5.299
68211SOL     OW 6529  13.591   8.779   0.712
68211SOL    HW1 6530  13.559   8.744   0.629
68211SOL    HW2 6531  13.543   8.861   0.724
68212SOL     OW 6532   6.704   0.131   3.677
68212SOL    HW1 6533   6.706   0.038   3.695
68212SOL    HW2 6534   6.635   0.142   3.611
68213SOL     OW 6535   5.894  11.028   8.830
68213SOL    HW1 6536   5.834  10.971   8.783
68213SOL    HW2 6537   5.932  10.972   8.898
68214SOL     OW 6538   0.768   5.836  12.617
68214SOL    HW1 6539   0.736   5.748  12.639
68214SOL    HW2 6540   0.857   5.838  12.651
68215SOL     OW 6541  12.406   9.708   5.640
68215SOL    HW1 6542  12.453   9.733   5.720
68215SOL    HW2 6543  12.403   9.612   5.643
68216SOL     OW 6544   2.618   9.630   8.704
68216SOL    HW1 6545   2.700   9.647   8.749
68216SOL    HW2 6546   2.551   9.669   8.760
68217SOL     OW 6547   9.139   6.337   1.568
68217SOL    HW1 6548   9.151   6.244   1.587
68217SOL    HW2 6549   9.044   6.350   1.575
68218SOL     OW 6550  12.299   1.276   8.297
68218SOL    HW1 6551  12.281   1.369   8.294
68218SOL    HW2 6552  12.254   1.244   8.375
68219SOL     OW 6553   3.307  10.551   1.946
68219SOL    HW1 6554   3.236  10.497   1.913
68219SOL    HW2 6555   3.361  10.491   1.997
68220SOL     OW 6556  14.248  13.380  11.218
68220SOL    HW1 6557  14.277  13.470  11.232
68220SOL    HW2 6558  14.153  13.383  11.227
68221SOL     OW 6559  10.584   7.679   4.803
68221SOL    HW1 6560  10.560   7.656   4.713
68221SOL    HW2 6561  10.501   7.682   4.850
68222SOL     OW 6562   1.774   1.949  10.994
68222SOL    HW1 6563   1.751   1.992  11.076
68222SOL    HW2 6564   1.692   1.913  10.962
68223SOL     OW 6565   3.651   8.593   5.671
68223SOL    HW1 6566   3.714   8.639   5.617
68223SOL    HW2 6567   3.696   8.514   5.700
68224SOL     OW 6568   0.582   2.628   7.800
68224SOL    HW1 6569   0.510   2.691   7.802
68224SOL    HW2 6570   0.579   2.585   7.886
68225SOL     OW 6571  14.783  11.535   5.387
68225SOL    HW1 6572  14.727  11.494   5.454
68225SOL    HW2 6573  14.819  11.461   5.338
68226SOL     OW 6574  10.567   5.842  14.244
68226SOL    HW1 6575  10.650   5.795  14.254
68226SOL    HW2 6576  10.512   5.807  14.314
68227SOL     OW 6577   1.859   6.301   8.264
68227SOL    HW1 6578   1.937   6.294   8.208
68227SOL    HW2 6579   1.836   6.394   8.261
68228SOL     OW 6580   1.773  11.990   4.410
68228SOL    HW1 6581   1.695  11.954   4.367
68228SOL    HW2 6582   1.838  11.996   4.340
68229SOL     OW 6583   9.085   2.168   3.028
68229SOL    HW1 6584   9.137   2.096   3.065
68229SOL    HW2 6585   9.121   2.246   3.070
68230SOL     OW 6586   0.856   3.629  11.038
68230SOL    HW1 6587   0.932   3.578  11.065
68230SOL    HW2 6588   0.782   3.590  11.085
68231SOL     OW 6589  12.451   6.273  11.038
68231SOL    HW1 6590  12.479   6.211  10.970
68231SOL    HW2 6591  12.505   6.251  11.114
68232SOL     OW 6592   5.584  12.125   2.983
68232SOL    HW1 6593   5.540  12.126   3.067
68232SOL    HW2 6594   5.551  12.047   2.939
68233SOL     OW 6595   9.886   6.187  11.238
68233SOL    HW1 6596   9.933   6.110  11.206
68233SOL    HW2 6597   9.795   6.170  11.216
68234SOL     OW 6598   7.386   5.368  12.390
68234SOL    HW1 6599   7.369   5.460  12.410
68234SOL    HW2 6600   7.371   5.322  12.472
68235SOL     OW 6601   1.351  12.668   3.397
68235SOL    HW1 6602   1.432  12.718   3.404
68235SOL    HW2 6603   1.290  12.714   3.455
68236SOL     OW 6604   5.880  14.262  11.298
68236SOL    HW1 6605   5.926  14.260  11.213
68236SOL    HW2 6606   5.951  14.258  11.363
68237SOL     OW 6607  12.812  14.722  14.215
68237SOL    HW1 6608  12.833  14.806  14.257
68237SOL    HW2 6609  12.798  14.745  14.123
68238SOL     OW 6610   3.481   8.448  12.586
68238SOL    HW1 6611   3.483   8.381  12.518
68238SOL    HW2 6612   3.571   8.481  12.589
68239SOL     OW 6613   6.367   9.742   8.023
68239SOL    HW1 6614   6.457   9.771   8.012
68239SOL    HW2 6615   6.341   9.709   7.937
68240SOL     OW 6616  11.491   5.861   2.154
68240SOL    HW1 6617  11.413   5.846   2.101
68240SOL    HW2 6618  11.564   5.852   2.093
68241SOL     OW 6619   3.867   7.863   2.488
68241SOL    HW1 6620   3.772   7.873   2.495
68241SOL    HW2 6621   3.895   7.843   2.577
68242SOL     OW 6622  11.638  12.806   3.758
68242SOL    HW1 6623  11.640  12.821   3.664
68242SOL    HW2 6624  11.545  12.808   3.781
68243SOL     OW 6625   7.339  11.081   2.045
68243SOL    HW1 6626   7.314  11.017   2.112
68243SOL    HW2 6627   7.347  11.030   1.965
68244SOL     OW 6628   8.846  11.824   9.942
68244SOL    HW1 6629   8.842  11.728   9.948
68244SOL    HW2 6630   8.937  11.843   9.918
68245SOL     OW 6631   5.339   1.793  13.466
68245SOL    HW1 6632   5.405   1.841  13.418
68245SOL    HW2 6633   5.388   1.728  13.517
68246SOL     OW 6634  10.293   8.220   3.105
68246SOL    HW1 6635  10.361   8.154   3.092
68246SOL    HW2 6636  10.233   8.181   3.169
68247SOL     OW 6637  11.310   4.411   2.198
68247SOL    HW1 6638  11.316   4.491   2.145
68247SOL    HW2 6639  11.386   4.359   2.172
68248SOL     OW 6640   2.580   7.779   5.554
68248SOL    HW1 6641   2.547   7.844   5.491
68248SOL    HW2 6642   2.528   7.701   5.537
68249SOL     OW 6643   0.852   1.915   1.185
68249SOL    HW1 6644   0.783   1.921   1.251
68249SOL    HW2 6645   0.810   1.943   1.103
68250SOL     OW 6646  14.838  11.226   7.822
68250SOL    HW1 6647  14.792  11.283   7.760
68250SOL    HW2 6648  14.844  11.278   7.902
68251SOL     OW 6649  10.990  13.119   6.670
68251SOL    HW1 6650  11.038  13.101   6.589
68251SOL    HW2 6651  10.998  13.037   6.720
68252SOL     OW 6652   3.916  11.303  14.808
68252SOL    HW1 6653   3.883  11.380  14.761
68252SOL    HW2 6654   3.955  11.338   0.008
68253SOL     OW 6655  13.430   3.610  10.356
68253SOL    HW1 6656  13.422   3.623  10.451
68253SOL    HW2 6657  13.487   3.534  10.348
68254SOL     OW 6658   0.768   5.387  14.856
68254SOL    HW1 6659   0.792   5.324   0.044
68254SOL    HW2 6660   0.848   5.397  14.805
68255SOL     OW 6661  13.357   3.381   7.875
68255SOL    HW1 6662  13.390   3.319   7.811
68255SOL    HW2 6663  13.281   3.421   7.833
68256SOL     OW 6664  12.038  12.858   8.769
68256SOL    HW1 6665  12.077  12.946   8.763
68256SOL    HW2 6666  12.024  12.831   8.679
68257SOL     OW 6667   9.755  14.501   3.942
68257SOL    HW1 6668   9.812  14.424   3.942
68257SOL    HW2 6669   9.751  14.528   3.850
68258SOL     OW 6670  11.379  13.951  11.153
68258SOL    HW1 6671  11.328  14.009  11.210
68258SOL    HW2 6672  11.410  14.008  11.082
68259SOL     OW 6673   9.992   5.471   0.396
68259SOL    HW1 6674   9.974   5.511   0.311
68259SOL    HW2 6675  10.030   5.386   0.375
68260SOL     OW 6676   0.566   3.909  10.408
68260SOL    HW1 6677   0.657   3.900  10.436
68260SOL    HW2 6678   0.570   3.919  10.313
68261SOL     OW 6679   5.931   6.609   2.454
68261SOL    HW1 6680   6.021   6.578   2.465
68261SOL    HW2 6681   5.940   6.704   2.443
68262SOL     OW 6682   5.712  10.009   0.962
68262SOL    HW1 6683   5.700   9.928   0.913
68262SOL    HW2 6684   5.806  10.011   0.982
68263SOL     OW 6685   9.709  10.222  13.735
68263SOL    HW1 6686   9.726  10.296  13.676
68263SOL    HW2 6687   9.766  10.153  13.703
68264SOL     OW 6688   7.061  11.483   9.015
68264SOL    HW1 6689   7.074  11.404   8.962
68264SOL    HW2 6690   6.969  11.479   9.041
68265SOL     OW 6691  13.808   9.604  11.850
68265SOL    HW1 6692  13.773   9.595  11.938
68265SOL    HW2 6693  13.865   9.681  11.854
68266SOL     OW 6694   1.456   4.470  12.277
68266SOL    HW1 6695   1.470   4.565  12.285
68266SOL    HW2 6696   1.517   4.443  12.208
68267SOL     OW 6697   9.250   9.696   7.333
68267SOL    HW1 6698   9.277   9.785   7.311
68267SOL    HW2 6699   9.280   9.683   7.423
68268SOL     OW 6700  10.074   8.867  11.899
68268SOL    HW1 6701  10.130   8.922  11.844
68268SOL    HW2 6702  10.014   8.824  11.837
68269SOL     OW 6703   1.236  13.978  13.247
68269SOL    HW1 6704   1.154  13.933  13.267
68269SOL    HW2 6705   1.255  13.955  13.156
68270SOL     OW 6706   8.561   2.324  14.035
68270SOL    HW1 6707   8.510   2.260  13.986
68270SOL    HW2 6708   8.526   2.319  14.125
68271SOL     OW 6709  12.530   4.562   7.034
68271SOL    HW1 6710  12.538   4.536   6.942
68271SOL    HW2 6711  12.439   4.544   7.056
68272SOL     OW 6712   8.350   7.789   2.268
68272SOL    HW1 6713   8.364   7.763   2.359
68272SOL    HW2 6714   8.313   7.711   2.227
68273SOL     OW 6715  13.013   4.245  10.080
68273SOL    HW1 6716  12.976   4.162  10.109
68273SOL    HW2 6717  12.969   4.262   9.996
68274SOL     OW 6718   9.922   0.240  12.736
68274SOL    HW1 6719  10.005   0.279  12.712
68274SOL    HW2 6720   9.874   0.309  12.782
68275SOL     OW 6721  14.215   3.271   6.201
68275SOL    HW1 6722  14.295   3.259   6.253
68275SOL    HW2 6723  14.187   3.183   6.179
68276SOL     OW 6724   3.638   6.324  13.900
68276SOL    HW1 6725   3.688   6.257  13.946
68276SOL    HW2 6726   3.601   6.278  13.824
68277SOL     OW 6727   3.495   6.523  10.558
68277SOL    HW1 6728   3.520   6.574  10.634
68277SOL    HW2 6729   3.416   6.566  10.525
68278SOL     OW 6730   0.560  14.858   1.089
68278SOL    HW1 6731   0.490  14.793   1.083
68278SOL    HW2 6732   0.515   0.060   1.108
68279SOL     OW 6733  12.909   4.196  13.964
68279SOL    HW1 6734  12.936   4.288  13.959
68279SOL    HW2 6735  12.959   4.153  13.896
68280SOL     OW 6736  11.882  14.234  11.649
68280SOL    HW1 6737  11.917  14.197  11.730
68280SOL    HW2 6738  11.868  14.158  11.592
68281SOL     OW 6739   2.302   5.063   4.535
68281SOL    HW1 6740   2.273   5.145   4.573
68281SOL    HW2 6741   2.391   5.081   4.503
68282SOL     OW 6742   6.063   6.599   9.766
68282SOL    HW1 6743   5.995   6.666   9.777
68282SOL    HW2 6744   6.014   6.520   9.743
68283SOL     OW 6745   8.588  10.021   8.909
68283SOL    HW1 6746   8.638   9.988   8.835
68283SOL    HW2 6747   8.497  10.022   8.878
68284SOL     OW 6748   6.567  11.829   3.899
68284SOL    HW1 6749   6.568  11.830   3.804
68284SOL    HW2 6750   6.588  11.739   3.922
68285SOL     OW 6751   5.143   5.792  10.900
68285SOL    HW1 6752   5.170   5.823  10.813
68285SOL    HW2 6753   5.052   5.766  10.889
68286SOL     OW 6754   6.111  13.563   8.391
68286SOL    HW1 6755   6.133  13.487   8.446
68286SOL    HW2 6756   6.196  13.598   8.363
68287SOL     OW 6757  11.106   2.006   5.364
68287SOL    HW1 6758  11.184   1.953   5.347
68287SOL    HW2 6759  11.058   2.005   5.281
68288SOL     OW 6760   0.482  11.922   1.681
68288SOL    HW1 6761   0.494  11.921   1.776
68288SOL    HW2 6762   0.532  11.847   1.650
68289SOL     OW 6763  13.478  10.441   5.176
68289SOL    HW1 6764  13.486  10.399   5.090
68289SOL    HW2 6765  13.562  10.484   5.190
68290SOL     OW 6766  11.213   6.618   3.290
68290SOL    HW1 6767  11.272   6.557   3.334
68290SOL    HW2 6768  11.201   6.689   3.354
68291SOL     OW 6769   1.129  14.683   8.271
68291SOL    HW1 6770   1.081  14.693   8.353
68291SOL    HW2 6771   1.199  14.747   8.276
68292SOL     OW 6772   2.947  12.421  11.257
68292SOL    HW1 6773   2.927  12.428  11.163
68292SOL    HW2 6774   2.995  12.501  11.278
68293SOL     OW 6775   3.636   1.638  12.735
68293SOL    HW1 6776   3.602   1.728  12.742
68293SOL    HW2 6777   3.572   1.592  12.680
68294SOL     OW 6778   1.907   5.777   0.897
68294SOL    HW1 6779   1.953   5.696   0.922
68294SOL    HW2 6780   1.825   5.774   0.945
68295SOL     OW 6781   1.529   9.729  13.342
68295SOL    HW1 6782   1.537   9.737  13.247
68295SOL    HW2 6783   1.615   9.699  13.371
68296SOL     OW 6784  12.512   6.228   8.460
68296SOL    HW1 6785  12.443   6.242   8.524
68296SOL    HW2 6786  12.468   6.184   8.387
68297SOL     OW 6787   2.364  10.859   8.882
68297SOL    HW1 6788   2.318  10.938   8.911
68297SOL    HW2 6789   2.295  10.803   8.846
68298SOL     OW 6790   7.205  10.676   7.470
68298SOL    HW1 6791   7.182  10.757   7.425
68298SOL    HW2 6792   7.168  10.607   7.414
68299SOL     OW 6793   6.991   9.121  11.130
68299SOL    HW1 6794   7.069   9.176  11.131
68299SOL    HW2 6795   6.990   9.079  11.216
68300SOL     OW 6796  11.938  10.230   3.893
68300SOL    HW1 6797  11.895  10.167   3.950
68300SOL    HW2 6798  11.882  10.234   3.816
68301SOL     OW 6799  12.818   6.066   0.295
68301SOL    HW1 6800  12.913   6.076   0.296
68301SOL    HW2 6801  12.792   6.074   0.387
68302SOL     OW 6802   7.480   0.418   8.034
68302SOL    HW1 6803   7.575   0.414   8.044
68302SOL    HW2 6804   7.463   0.505   7.996
68303SOL     OW 6805  10.857   1.342   0.437
68303SOL    HW1 6806  10.897   1.429   0.430
68303SOL    HW2 6807  10.924   1.283   0.402
68304SOL     OW 6808   0.778   4.268   5.080
68304SOL    HW1 6809   0.775   4.363   5.081
68304SOL    HW2 6810   0.816   4.246   4.994
68305SOL     OW 6811  10.566   1.039   8.405
68305SOL    HW1 6812  10.658   1.040   8.434
68305SOL    HW2 6813  10.558   0.956   8.358
68306SOL     OW 6814  12.024  10.905  11.036
68306SOL    HW1 6815  12.031  10.824  11.088
68306SOL    HW2 6816  11.930  10.922  11.032
68307SOL     OW 6817   5.261   6.244  14.116
68307SOL    HW1 6818   5.247   6.326  14.163
68307SOL    HW2 6819   5.308   6.270  14.037
68308SOL     OW 6820  11.760  14.836  11.920
68308SOL    HW1 6821  11.683  14.860  11.869
68308SOL    HW2 6822  11.792   0.038  11.957
68309SOL     OW 6823   7.901   2.791  14.487
68309SOL    HW1 6824   7.992   2.768  14.503
68309SOL    HW2 6825   7.889   2.874  14.535
68310SOL     OW 6826  11.913  11.110  13.605
68310SOL    HW1 6827  12.006  11.131  13.599
68310SOL    HW2 6828  11.869  11.190  13.575
68311SOL     OW 6829  13.649   5.075   9.676
68311SOL    HW1 6830  13.570   5.128   9.666
68311SOL    HW2 6831  13.646   5.046   9.767
68312SOL     OW 6832   0.795  13.334   9.024
68312SOL    HW1 6833   0.706  13.299   9.028
68312SOL    HW2 6834   0.788  13.422   9.061
68313SOL     OW 6835   4.203   0.083   2.163
68313SOL    HW1 6836   4.297   0.087   2.144
68313SOL    HW2 6837   4.192   0.138   2.240
68314SOL     OW 6838   7.109   2.064  14.317
68314SOL    HW1 6839   7.030   2.011  14.319
68314SOL    HW2 6840   7.178   2.004  14.291
68315SOL     OW 6841   8.698  12.407   5.950
68315SOL    HW1 6842   8.696  12.332   5.891
68315SOL    HW2 6843   8.790  12.415   5.976
68316SOL     OW 6844   6.436  11.424   4.057
68316SOL    HW1 6845   6.354  11.385   4.027
68316SOL    HW2 6846   6.445  11.396   4.148
68317SOL     OW 6847   2.064   1.202   3.895
68317SOL    HW1 6848   2.067   1.117   3.937
68317SOL    HW2 6849   2.090   1.186   3.804
68318SOL     OW 6850   6.646   8.307   9.702
68318SOL    HW1 6851   6.551   8.301   9.688
68318SOL    HW2 6852   6.659   8.395   9.738
68319SOL     OW 6853   0.321   1.455  10.958
68319SOL    HW1 6854   0.352   1.365  10.970
68319SOL    HW2 6855   0.400   1.507  10.947
68320SOL     OW 6856   9.704   3.923   5.523
68320SOL    HW1 6857   9.687   3.837   5.562
68320SOL    HW2 6858   9.629   3.976   5.549
68321SOL     OW 6859  11.185   6.609   8.617
68321SOL    HW1 6860  11.185   6.665   8.694
68321SOL    HW2 6861  11.148   6.526   8.647
68322SOL     OW 6862   4.227   1.561  12.995
68322SOL    HW1 6863   4.228   1.623  12.922
68322SOL    HW2 6864   4.143   1.517  12.989
68323SOL     OW 6865   9.125   2.924  12.639
68323SOL    HW1 6866   9.169   2.914  12.723
68323SOL    HW2 6867   9.141   2.841  12.594
68324SOL     OW 6868   3.624   8.446   3.693
68324SOL    HW1 6869   3.604   8.382   3.762
68324SOL    HW2 6870   3.602   8.402   3.611
68325SOL     OW 6871   8.890   3.330   8.536
68325SOL    HW1 6872   8.925   3.256   8.585
68325SOL    HW2 6873   8.959   3.353   8.474
68326SOL     OW 6874   5.460  11.225   2.047
68326SOL    HW1 6875   5.526  11.260   2.106
68326SOL    HW2 6876   5.427  11.301   1.999
68327SOL     OW 6877   2.800   1.157  14.858
68327SOL    HW1 6878   2.825   1.194   0.063
68327SOL    HW2 6879   2.861   1.085  14.844
68328SOL     OW 6880   3.340   0.395   0.389
68328SOL    HW1 6881   3.265   0.364   0.339
68328SOL    HW2 6882   3.394   0.443   0.326
68329SOL     OW 6883  13.198   1.678  12.492
68329SOL    HW1 6884  13.231   1.717  12.573
68329SOL    HW2 6885  13.190   1.585  12.512
68330SOL     OW 6886   3.645   1.967  12.415
68330SOL    HW1 6887   3.619   2.047  12.370
68330SOL    HW2 6888   3.741   1.969  12.414
68331SOL     OW 6889  12.335  10.164   7.731
68331SOL    HW1 6890  12.278  10.241   7.730
68331SOL    HW2 6891  12.376  10.163   7.644
68332SOL     OW 6892   5.965   9.306   2.681
68332SOL    HW1 6893   5.996   9.216   2.678
68332SOL    HW2 6894   5.874   9.300   2.710
68333SOL     OW 6895   8.120   8.567   2.812
68333SOL    HW1 6896   8.161   8.647   2.779
68333SOL    HW2 6897   8.151   8.561   2.903
68334SOL     OW 6898   1.673   6.157   5.024
68334SOL    HW1 6899   1.712   6.222   4.965
68334SOL    HW2 6900   1.714   6.174   5.109
68335SOL     OW 6901  12.163   3.948  11.945
68335SOL    HW1 6902  12.106   3.883  11.905
68335SOL    HW2 6903  12.200   3.904  12.021
68336SOL     OW 6904   9.490   1.335   5.945
68336SOL    HW1 6905   9.472   1.278   6.020
68336SOL    HW2 6906   9.429   1.305   5.877
68337SOL     OW 6907  13.649   0.161  13.863
68337SOL    HW1 6908  13.615   0.093  13.922
68337SOL    HW2 6909  13.571   0.207  13.833
68338SOL     OW 6910  12.428  14.480   2.751
68338SOL    HW1 6911  12.356  14.422   2.723
68338SOL    HW2 6912  12.396  14.521   2.831
68339SOL     OW 6913   6.910   0.302   3.637
68339SOL    HW1 6914   6.984   0.267   3.686
68339SOL    HW2 6915   6.835   0.250   3.667
68340SOL     OW 6916   2.788   4.978   1.291
68340SOL    HW1 6917   2.726   5.011   1.355
68340SOL    HW2 6918   2.852   5.048   1.280
68341SOL     OW 6919  13.300   7.953   7.551
68341SOL    HW1 6920  13.328   7.957   7.642
68341SOL    HW2 6921  13.205   7.960   7.555
68342SOL     OW 6922   8.255   2.747   0.258
68342SOL    HW1 6923   8.308   2.675   0.223
68342SOL    HW2 6924   8.178   2.750   0.202
68343SOL     OW 6925   3.809  13.073   4.172
68343SOL    HW1 6926   3.838  13.119   4.094
68343SOL    HW2 6927   3.851  12.987   4.166
68344SOL     OW 6928   0.359  11.121   9.776
68344SOL    HW1 6929   0.337  11.028   9.781
68344SOL    HW2 6930   0.434  11.130   9.835
68345SOL     OW 6931   7.733   0.165  14.313
68345SOL    HW1 6932   7.688   0.122  14.386
68345SOL    HW2 6933   7.662   0.204  14.262
68346SOL     OW 6934  11.493   8.446   8.137
68346SOL    HW1 6935  11.510   8.531   8.097
68346SOL    HW2 6936  11.406   8.421   8.106
68347SOL     OW 6937   6.684   4.856  10.218
68347SOL    HW1 6938   6.602   4.830  10.260
68347SOL    HW2 6939   6.747   4.789  10.246
68348SOL     OW 6940   6.088   3.164   3.026
68348SOL    HW1 6941   6.094   3.080   3.072
68348SOL    HW2 6942   6.073   3.228   3.095
68349SOL     OW 6943  13.808   6.866   4.444
68349SOL    HW1 6944  13.819   6.840   4.535
68349SOL    HW2 6945  13.737   6.930   4.445
68350SOL     OW 6946   4.301   3.013  12.005
68350SOL    HW1 6947   4.284   3.107  11.995
68350SOL    HW2 6948   4.338   2.987  11.920
68351SOL     OW 6949   5.764   7.109  14.261
68351SOL    HW1 6950   5.674   7.092  14.286
68351SOL    HW2 6951   5.789   7.187  14.310
68352SOL     OW 6952  11.405   7.721   6.051
68352SOL    HW1 6953  11.339   7.655   6.071
68352SOL    HW2 6954  11.440   7.748   6.136
68353SOL     OW 6955  11.931   5.704   8.411
68353SOL    HW1 6956  11.968   5.627   8.455
68353SOL    HW2 6957  11.847   5.675   8.378
68354SOL     OW 6958   8.020   6.995   7.827
68354SOL    HW1 6959   8.023   6.905   7.860
68354SOL    HW2 6960   7.941   6.998   7.772
68355SOL     OW 6961   6.234   6.204   5.517
68355SOL    HW1 6962   6.324   6.197   5.486
68355SOL    HW2 6963   6.185   6.232   5.441
68356SOL     OW 6964   1.831   9.027  10.440
68356SOL    HW1 6965   1.831   9.079  10.520
68356SOL    HW2 6966   1.751   8.975  10.446
68357SOL     OW 6967  14.052   2.606   5.675
68357SOL    HW1 6968  14.133   2.575   5.714
68357SOL    HW2 6969  14.055   2.701   5.684
68358SOL     OW 6970   9.126  13.949  13.590
68358SOL    HW1 6971   9.107  13.873  13.645
68358SOL    HW2 6972   9.048  13.960  13.536
68359SOL     OW 6973   4.734   6.414   7.939
68359SOL    HW1 6974   4.734   6.506   7.967
68359SOL    HW2 6975   4.810   6.376   7.983
68360SOL     OW 6976   5.518  10.112  13.117
68360SOL    HW1 6977   5.453  10.148  13.178
68360SOL    HW2 6978   5.467  10.059  13.056
68361SOL     OW 6979  12.166   6.648   5.152
68361SOL    HW1 6980  12.085   6.661   5.201
68361SOL    HW2 6981  12.139   6.601   5.073
68362SOL     OW 6982   7.753   6.087   0.368
68362SOL    HW1 6983   7.695   6.163   0.367
68362SOL    HW2 6984   7.841   6.123   0.377
68363SOL     OW 6985   8.127   5.726   1.292
68363SOL    HW1 6986   8.094   5.775   1.367
68363SOL    HW2 6987   8.122   5.634   1.318
68364SOL     OW 6988  12.673  14.498  10.805
68364SOL    HW1 6989  12.618  14.492  10.727
68364SOL    HW2 6990  12.700  14.590  10.808
68365SOL     OW 6991   4.406   0.172   9.842
68365SOL    HW1 6992   4.443   0.092   9.804
68365SOL    HW2 6993   4.482   0.223   9.870
68366SOL     OW 6994   5.157   4.734   0.631
68366SOL    HW1 6995   5.250   4.716   0.618
68366SOL    HW2 6996   5.114   4.651   0.612
68367SOL     OW 6997  12.376   2.837  10.617
68367SOL    HW1 6998  12.434   2.839  10.540
68367SOL    HW2 6999  12.373   2.928  10.647
68368SOL     OW 7000   0.687   8.305  13.828
68368SOL    HW1 7001   0.624   8.345  13.769
68368SOL    HW2 7002   0.668   8.212  13.826
68369SOL     OW 7003  10.031   9.060   0.561
68369SOL    HW1 7004   9.964   9.016   0.615
68369SOL    HW2 7005  10.106   9.070   0.620
68370SOL     OW 7006   0.612   9.538  13.882
68370SOL    HW1 7007   0.613   9.594  13.960
68370SOL    HW2 7008   0.520   9.513  13.872
68371SOL     OW 7009  12.314   1.519   3.391
68371SOL    HW1 7010  12.362   1.591   3.431
68371SOL    HW2 7011  12.236   1.561   3.354
68372SOL     OW 7012   2.843   3.950  10.814
68372SOL    HW1 7013   2.852   3.911  10.727
68372SOL    HW2 7014   2.761   3.913  10.849
68373SOL     OW 7015   6.375   7.543  11.270
68373SOL    HW1 7016   6.345   7.611  11.330
68373SOL    HW2 7017   6.387   7.466  11.325
68374SOL     OW 7018   4.351  13.994   9.322
68374SOL    HW1 7019   4.347  14.075   9.271
68374SOL    HW2 7020   4.275  13.999   9.380
68375SOL     OW 7021  11.686  14.719  12.758
68375SOL    HW1 7022  11.759  14.721  12.820
68375SOL    HW2 7023  11.648  14.807  12.761
68376SOL     OW 7024  12.803  14.721   5.660
68376SOL    HW1 7025  12.794  14.715   5.565
68376SOL    HW2 7026  12.839  14.636   5.686
68377SOL     OW 7027   3.480  11.593   3.864
68377SOL    HW1 7028   3.484  11.684   3.835
68377SOL    HW2 7029   3.568  11.558   3.847
68378SOL     OW 7030   7.502  10.015   0.055
68378SOL    HW1 7031   7.488   9.955  14.862
68378SOL    HW2 7032   7.420  10.014   0.103
68379SOL     OW 7033  14.017   9.201   5.422
68379SOL    HW1 7034  13.934   9.157   5.403
68379SOL    HW2 7035  14.084   9.138   5.399
68380SOL     OW 7036  14.349   0.463   0.271
68380SOL    HW1 7037  14.422   0.521   0.251
68380SOL    HW2 7038  14.271   0.517   0.262
68381SOL     OW 7039  12.771   5.915  12.758
68381SOL    HW1 7040  12.786   5.821  12.753
68381SOL    HW2 7041  12.843   5.953  12.708
68382SOL     OW 7042   4.344   5.286  13.386
68382SOL    HW1 7043   4.256   5.269  13.353
68382SOL    HW2 7044   4.330   5.312  13.477
68383SOL     OW 7045  13.475   5.641   0.527
68383SOL    HW1 7046  13.544   5.668   0.587
68383SOL    HW2 7047  13.418   5.585   0.580
68384SOL     OW 7048   2.390   9.331  10.132
68384SOL    HW1 7049   2.297   9.334  10.108
68384SOL    HW2 7050   2.426   9.260  10.079
68385SOL     OW 7051  13.114   5.447  10.419
68385SOL    HW1 7052  13.165   5.525  10.440
68385SOL    HW2 7053  13.042   5.448  10.482
68386SOL     OW 7054   8.064  13.482   3.691
68386SOL    HW1 7055   8.059  13.557   3.751
68386SOL    HW2 7056   7.981  13.437   3.703
68387SOL     OW 7057   4.564   8.872   1.715
68387SOL    HW1 7058   4.532   8.927   1.644
68387SOL    HW2 7059   4.498   8.803   1.724
68388SOL     OW 7060   2.727  14.835   5.354
68388SOL    HW1 7061   2.632  14.841   5.359
68388SOL    HW2 7062   2.759   0.014   5.422
68389SOL     OW 7063   8.727  14.749  11.337
68389SOL    HW1 7064   8.643  14.704  11.326
68389SOL    HW2 7065   8.766  14.747  11.249
68390SOL     OW 7066  10.440   1.154  13.670
68390SOL    HW1 7067  10.381   1.115  13.605
68390SOL    HW2 7068  10.394   1.143  13.753
68391SOL     OW 7069   8.509  13.888  13.949
68391SOL    HW1 7070   8.560  13.870  13.870
68391SOL    HW2 7071   8.447  13.956  13.922
68392SOL     OW 7072   6.244   8.923   1.734
68392SOL    HW1 7073   6.267   8.996   1.791
68392SOL    HW2 7074   6.292   8.939   1.653
68393SOL     OW 7075  14.577   6.737  11.087
68393SOL    HW1 7076  14.638   6.667  11.112
68393SOL    HW2 7077  14.495   6.714  11.130
68394SOL     OW 7078   0.787  10.478   7.308
68394SOL    HW1 7079   0.823  10.389   7.305
68394SOL    HW2 7080   0.787  10.507   7.216
68395SOL     OW 7081   0.729   7.816  11.361
68395SOL    HW1 7082   0.668   7.814  11.434
68395SOL    HW2 7083   0.809   7.853  11.397
68396SOL     OW 7084   0.725   0.309   8.340
68396SOL    HW1 7085   0.702   0.389   8.294
68396SOL    HW2 7086   0.796   0.334   8.398
68397SOL     OW 7087   0.721   2.961  10.609
68397SOL    HW1 7088   0.767   2.985  10.690
68397SOL    HW2 7089   0.700   2.868  10.621
68398SOL     OW 7090  13.722  12.774   8.890
68398SOL    HW1 7091  13.677  12.809   8.966
68398SOL    HW2 7092  13.809  12.813   8.893
68399SOL     OW 7093   5.176   1.224  13.126
68399SOL    HW1 7094   5.198   1.170  13.050
68399SOL    HW2 7095   5.087   1.198  13.149
68400SOL     OW 7096  11.774  11.828   3.724
68400SOL    HW1 7097  11.820  11.758   3.678
68400SOL    HW2 7098  11.789  11.810   3.817
68401SOL     OW 7099   9.860   6.899   8.907
68401SOL    HW1 7100   9.858   6.993   8.926
68401SOL    HW2 7101   9.866   6.858   8.993
68402SOL     OW 7102   1.684  11.021   9.009
68402SOL    HW1 7103   1.648  10.961   8.943
68402SOL    HW2 7104   1.714  10.964   9.080
68403SOL     OW 7105  13.077   2.291  10.530
68403SOL    HW1 7106  12.986   2.316  10.512
68403SOL    HW2 7107  13.092   2.318  10.620
68404SOL     OW 7108  13.656   2.645   8.347
68404SOL    HW1 7109  13.607   2.631   8.265
68404SOL    HW2 7110  13.661   2.740   8.355
68405SOL     OW 7111   8.534   3.446   1.275
68405SOL    HW1 7112   8.465   3.384   1.250
68405SOL    HW2 7113   8.567   3.414   1.359
68406SOL     OW 7114   2.501   9.551  12.037
68406SOL    HW1 7115   2.531   9.607  12.109
68406SOL    HW2 7116   2.467   9.473  12.081
68407SOL     OW 7117  10.325   4.423  10.538
68407SOL    HW1 7118  10.411   4.423  10.497
68407SOL    HW2 7119  10.275   4.359  10.488
68408SOL     OW 7120  11.315   1.803   2.799
68408SOL    HW1 7121  11.388   1.864   2.811
68408SOL    HW2 7122  11.263   1.842   2.729
68409SOL     OW 7123   8.367   5.092  13.431
68409SOL    HW1 7124   8.462   5.082  13.426
68409SOL    HW2 7125   8.332   5.004  13.414
68410SOL     OW 7126  10.574   6.086   0.725
68410SOL    HW1 7127  10.512   6.115   0.658
68410SOL    HW2 7128  10.531   6.012   0.767
68411SOL     OW 7129   8.881   8.577  11.078
68411SOL    HW1 7130   8.814   8.641  11.054
68411SOL    HW2 7131   8.846   8.535  11.157
68412SOL     OW 7132   2.508  13.693   2.993
68412SOL    HW1 7133   2.523  13.690   3.087
68412SOL    HW2 7134   2.444  13.763   2.981
68413SOL     OW 7135  11.780   7.727   7.016
68413SOL    HW1 7136  11.808   7.786   6.946
68413SOL    HW2 7137  11.857   7.717   7.071
68414SOL     OW 7138  12.978  13.445   6.871
68414SOL    HW1 7139  12.929  13.387   6.929
68414SOL    HW2 7140  13.069  13.434   6.897
68415SOL     OW 7141   4.778   0.166   8.195
68415SOL    HW1 7142   4.746   0.227   8.129
68415SOL    HW2 7143   4.838   0.108   8.147
68416SOL     OW 7144   5.422  10.561  11.601
68416SOL    HW1 7145   5.427  10.572  11.696
68416SOL    HW2 7146   5.472  10.481  11.583
68417SOL     OW 7147  13.327  12.798   8.169
68417SOL    HW1 7148  13.358  12.708   8.166
68417SOL    HW2 7149  13.232  12.791   8.168
68418SOL     OW 7150   6.638  11.809  12.706
68418SOL    HW1 7151   6.599  11.806  12.794
68418SOL    HW2 7152   6.683  11.893  12.703
68419SOL     OW 7153   0.909  10.239  11.986
68419SOL    HW1 7154   1.004  10.229  11.989
68419SOL    HW2 7155   0.878  10.160  11.942
68420SOL     OW 7156   9.243   2.407   3.149
68420SOL    HW1 7157   9.189   2.395   3.226
68420SOL    HW2 7158   9.321   2.454   3.181
68421SOL     OW 7159   8.925   2.880   1.702
68421SOL    HW1 7160   8.932   2.964   1.656
68421SOL    HW2 7161   8.961   2.898   1.789
68422SOL     OW 7162   1.112   3.725  13.381
68422SOL    HW1 7163   1.112   3.741  13.476
68422SOL    HW2 7164   1.044   3.783  13.348
68423SOL     OW 7165  10.521   1.803   8.896
68423SOL    HW1 7166  10.610   1.833   8.875
68423SOL    HW2 7167  10.470   1.822   8.817
68424SOL     OW 7168  13.504   6.233   4.212
68424SOL    HW1 7169  13.558   6.288   4.269
68424SOL    HW2 7170  13.436   6.198   4.270
68425SOL     OW 7171   7.744   7.553  11.101
68425SOL    HW1 7172   7.760   7.459  11.109
68425SOL    HW2 7173   7.655   7.559  11.065
68426SOL     OW 7174   6.858   2.095   7.633
68426SOL    HW1 7175   6.892   2.171   7.680
68426SOL    HW2 7176   6.847   2.028   7.700
68427SOL     OW 7177  10.506   5.493   7.155
68427SOL    HW1 7178  10.474   5.557   7.091
68427SOL    HW2 7179  10.458   5.413   7.133
68428SOL     OW 7180  13.162   5.714   1.448
68428SOL    HW1 7181  13.124   5.629   1.466
68428SOL    HW2 7182  13.254   5.706   1.475
68429SOL     OW 7183   6.278   1.317   7.466
68429SOL    HW1 7184   6.184   1.319   7.446
68429SOL    HW2 7185   6.320   1.323   7.380
68430SOL     OW 7186   8.974   1.287   2.695
68430SOL    HW1 7187   9.059   1.293   2.739
68430SOL    HW2 7188   8.923   1.358   2.732
68431SOL     OW 7189   1.920  14.361  11.525
68431SOL    HW1 7190   1.941  14.270  11.505
68431SOL    HW2 7191   2.003  14.408  11.514
68432SOL     OW 7192  12.383   9.623   2.451
68432SOL    HW1 7193  12.365   9.658   2.364
68432SOL    HW2 7194  12.391   9.701   2.507
68433SOL     OW 7195  13.952  12.236   9.727
68433SOL    HW1 7196  13.897  12.298   9.775
68433SOL    HW2 7197  13.889  12.176   9.685
68434SOL     OW 7198   2.397   4.538   2.258
68434SOL    HW1 7199   2.412   4.578   2.172
68434SOL    HW2 7200   2.482   4.540   2.301
68435SOL     OW 7201  14.059  14.005   5.525
68435SOL    HW1 7202  14.137  14.018   5.470
68435SOL    HW2 7203  13.997  14.072   5.494
68436SOL     OW 7204  10.871  11.781   9.702
68436SOL    HW1 7205  10.921  11.706   9.732
68436SOL    HW2 7206  10.825  11.812   9.780
68437SOL     OW 7207  13.341   4.631  10.220
68437SOL    HW1 7208  13.424   4.599  10.185
68437SOL    HW2 7209  13.364   4.713  10.264
68438SOL     OW 7210   0.695   9.280   6.776
68438SOL    HW1 7211   0.735   9.303   6.692
68438SOL    HW2 7212   0.611   9.327   6.775
68439SOL     OW 7213   1.549   2.224  13.728
68439SOL    HW1 7214   1.488   2.184  13.667
68439SOL    HW2 7215   1.505   2.303  13.759
68440SOL     OW 7216   8.581   0.516  14.806
68440SOL    HW1 7217   8.508   0.518  14.743
68440SOL    HW2 7218   8.539   0.501   0.010
68441SOL     OW 7219  11.306  11.205   1.628
68441SOL    HW1 7220  11.217  11.238   1.627
68441SOL    HW2 7221  11.353  11.262   1.567
68442SOL     OW 7222   7.397   6.181  11.111
68442SOL    HW1 7223   7.445   6.229  11.179
68442SOL    HW2 7224   7.307   6.211  11.120
68443SOL     OW 7225  10.488   1.411   3.838
68443SOL    HW1 7226  10.490   1.392   3.744
68443SOL    HW2 7227  10.531   1.496   3.846
68444SOL     OW 7228   7.637  10.326   3.995
68444SOL    HW1 7229   7.584  10.278   3.931
68444SOL    HW2 7230   7.633  10.417   3.967
68445SOL     OW 7231   3.870   7.645   6.117
68445SOL    HW1 7232   3.947   7.679   6.072
68445SOL    HW2 7233   3.819   7.723   6.138
68446SOL     OW 7234  12.115   2.855  10.757
68446SOL    HW1 7235  12.123   2.946  10.728
68446SOL    HW2 7236  12.175   2.806  10.700
68447SOL     OW 7237   3.558   6.885   6.903
68447SOL    HW1 7238   3.541   6.922   6.989
68447SOL    HW2 7239   3.484   6.912   6.850
68448SOL     OW 7240   9.104   1.617   2.010
68448SOL    HW1 7241   9.049   1.670   2.068
68448SOL    HW2 7242   9.045   1.551   1.975
68449SOL     OW 7243  11.515  11.905   9.271
68449SOL    HW1 7244  11.583  11.914   9.205
68449SOL    HW2 7245  11.491  11.813   9.269
68450SOL     OW 7246   6.828   4.210   7.929
68450SOL    HW1 7247   6.733   4.208   7.941
68450SOL    HW2 7248   6.855   4.119   7.943
68451SOL     OW 7249   3.862   2.559   0.650
68451SOL    HW1 7250   3.810   2.508   0.588
68451SOL    HW2 7251   3.824   2.538   0.735
68452SOL     OW 7252   2.048  13.515   6.736
68452SOL    HW1 7253   2.039  13.442   6.797
68452SOL    HW2 7254   1.986  13.496   6.666
68453SOL     OW 7255   3.935  10.800   6.491
68453SOL    HW1 7256   3.853  10.754   6.507
68453SOL    HW2 7257   3.950  10.852   6.570
68454SOL     OW 7258  13.694   6.697   5.581
68454SOL    HW1 7259  13.643   6.692   5.500
68454SOL    HW2 7260  13.783   6.719   5.552
68455SOL     OW 7261   4.321   8.552   8.421
68455SOL    HW1 7262   4.353   8.475   8.469
68455SOL    HW2 7263   4.237   8.572   8.463
68456SOL     OW 7264  14.406   1.393   7.534
68456SOL    HW1 7265  14.424   1.306   7.568
68456SOL    HW2 7266  14.357   1.377   7.453
68457SOL     OW 7267   8.854   8.836   5.134
68457SOL    HW1 7268   8.861   8.821   5.229
68457SOL    HW2 7269   8.771   8.794   5.109
68458SOL     OW 7270  13.089   7.548  14.636
68458SOL    HW1 7271  13.174   7.591  14.638
68458SOL    HW2 7272  13.057   7.563  14.547
68459SOL     OW 7273   6.222  14.388   0.811
68459SOL    HW1 7274   6.294  14.421   0.757
68459SOL    HW2 7275   6.256  14.389   0.901
68460SOL     OW 7276  10.904   9.101   3.134
68460SOL    HW1 7277  10.907   9.021   3.186
68460SOL    HW2 7278  10.891   9.070   3.044
68461SOL     OW 7279  13.762   4.139  12.390
68461SOL    HW1 7280  13.676   4.161  12.426
68461SOL    HW2 7281  13.743   4.080  12.317
68462SOL     OW 7282   2.256  11.209   6.524
68462SOL    HW1 7283   2.241  11.169   6.438
68462SOL    HW2 7284   2.222  11.144   6.587
68463SOL     OW 7285  10.349  12.353   7.341
68463SOL    HW1 7286  10.262  12.383   7.363
68463SOL    HW2 7287  10.404  12.383   7.413
68464SOL     OW 7288   1.650  11.634   5.723
68464SOL    HW1 7289   1.653  11.705   5.787
68464SOL    HW2 7290   1.692  11.670   5.645
68465SOL     OW 7291   8.871   6.422  12.822
68465SOL    HW1 7292   8.892   6.363  12.894
68465SOL    HW2 7293   8.882   6.510  12.859
68466SOL     OW 7294   9.286  12.565  12.054
68466SOL    HW1 7295   9.286  12.661  12.062
68466SOL    HW2 7296   9.194  12.541  12.055
68467SOL     OW 7297  12.505   1.017   7.030
68467SOL    HW1 7298  12.541   0.930   7.047
68467SOL    HW2 7299  12.561   1.077   7.080
68468SOL     OW 7300   5.814   0.567  12.023
68468SOL    HW1 7301   5.804   0.507  11.949
68468SOL    HW2 7302   5.725   0.590  12.048
68469SOL     OW 7303  12.185  13.069  11.084
68469SOL    HW1 7304  12.157  13.128  11.014
68469SOL    HW2 7305  12.277  13.053  11.067
68470SOL     OW 7306  11.671   7.160  14.287
68470SOL    HW1 7307  11.743   7.126  14.234
68470SOL    HW2 7308  11.618   7.212  14.226
68471SOL     OW 7309   9.268  13.490   9.682
68471SOL    HW1 7310   9.223  13.568   9.650
68471SOL    HW2 7311   9.265  13.498   9.778
68472SOL     OW 7312   1.818  12.906   7.504
68472SOL    HW1 7313   1.860  12.900   7.418
68472SOL    HW2 7314   1.861  12.837   7.556
68473SOL     OW 7315  14.461   8.914   3.002
68473SOL    HW1 7316  14.379   8.962   3.017
68473SOL    HW2 7317  14.460   8.893   2.909
68474SOL     OW 7318   4.743  11.336   1.528
68474SOL    HW1 7319   4.829  11.336   1.487
68474SOL    HW2 7320   4.681  11.349   1.456
68475SOL     OW 7321  11.499  12.335   0.621
68475SOL    HW1 7322  11.535  12.395   0.686
68475SOL    HW2 7323  11.518  12.375   0.537
68476SOL     OW 7324   5.987   5.673   0.334
68476SOL    HW1 7325   6.065   5.648   0.284
68476SOL    HW2 7326   5.916   5.671   0.270
68477SOL     OW 7327   0.860   3.232   4.979
68477SOL    HW1 7328   0.787   3.286   5.008
68477SOL    HW2 7329   0.932   3.256   5.037
68478SOL     OW 7330  13.920   5.825  12.156
68478SOL    HW1 7331  13.873   5.893  12.107
68478SOL    HW2 7332  13.851   5.768  12.191
68479SOL     OW 7333   0.560   5.235   5.666
68479SOL    HW1 7334   0.483   5.233   5.723
68479SOL    HW2 7335   0.579   5.328   5.656
68480SOL     OW 7336   8.724   5.445   5.930
68480SOL    HW1 7337   8.782   5.517   5.904
68480SOL    HW2 7338   8.776   5.392   5.990
68481SOL     OW 7339   3.550   4.340   7.951
68481SOL    HW1 7340   3.614   4.409   7.963
68481SOL    HW2 7341   3.564   4.280   8.025
68482SOL     OW 7342  13.833  11.226   1.599
68482SOL    HW1 7343  13.919  11.206   1.562
68482SOL    HW2 7344  13.773  11.219   1.526
68483SOL     OW 7345   0.074   1.508  11.570
68483SOL    HW1 7346   0.111   1.431  11.614
68483SOL    HW2 7347   0.045   1.564  11.641
68484SOL     OW 7348   9.224   3.031   8.458
68484SOL    HW1 7349   9.266   2.965   8.514
68484SOL    HW2 7350   9.182   3.091   8.520
68485SOL     OW 7351   6.273  12.723  13.437
68485SOL    HW1 7352   6.315  12.669  13.504
68485SOL    HW2 7353   6.316  12.808  13.444
68486SOL     OW 7354   7.011   2.926   3.274
68486SOL    HW1 7355   6.940   2.862   3.280
68486SOL    HW2 7356   7.090   2.874   3.261
68487SOL     OW 7357   7.021  11.473   9.975
68487SOL    HW1 7358   6.955  11.407   9.995
68487SOL    HW2 7359   7.101  11.440  10.017
68488SOL     OW 7360   3.402   2.826  13.827
68488SOL    HW1 7361   3.373   2.767  13.897
68488SOL    HW2 7362   3.438   2.769  13.760
68489SOL     OW 7363   2.176  12.333   4.587
68489SOL    HW1 7364   2.177  12.241   4.561
68489SOL    HW2 7365   2.243  12.374   4.532
68490SOL     OW 7366   4.117  10.270  11.912
68490SOL    HW1 7367   4.175  10.194  11.919
68490SOL    HW2 7368   4.164  10.330  11.854
68491SOL     OW 7369   5.141   2.454   6.055
68491SOL    HW1 7370   5.185   2.434   5.973
68491SOL    HW2 7371   5.061   2.500   6.029
68492SOL     OW 7372   6.261   4.550   5.244
68492SOL    HW1 7373   6.173   4.586   5.239
68492SOL    HW2 7374   6.259   4.490   5.318
68493SOL     OW 7375   1.624   6.285   1.504
68493SOL    HW1 7376   1.700   6.316   1.454
68493SOL    HW2 7377   1.634   6.190   1.506
68494SOL     OW 7378   5.334   4.957   1.404
68494SOL    HW1 7379   5.421   4.943   1.442
68494SOL    HW2 7380   5.339   5.045   1.367
68495SOL     OW 7381   3.967  10.527  13.984
68495SOL    HW1 7382   3.939  10.613  14.014
68495SOL    HW2 7383   4.046  10.508  14.036
68496SOL     OW 7384  11.574   5.021   3.604
68496SOL    HW1 7385  11.630   4.961   3.653
68496SOL    HW2 7386  11.548   4.971   3.526
68497SOL     OW 7387   2.400   1.952   5.793
68497SOL    HW1 7388   2.365   1.949   5.882
68497SOL    HW2 7389   2.469   1.885   5.793
68498SOL     OW 7390   3.747   7.803   8.219
68498SOL    HW1 7391   3.802   7.813   8.141
68498SOL    HW2 7392   3.734   7.708   8.227
68499SOL     OW 7393  14.191   7.696  12.337
68499SOL    HW1 7394  14.275   7.722  12.374
68499SOL    HW2 7395  14.212   7.625  12.276
68500SOL     OW 7396   6.824  14.421  11.705
68500SOL    HW1 7397   6.893  14.487  11.709
68500SOL    HW2 7398   6.783  14.435  11.619
68501SOL     OW 7399   2.249   2.099   2.138
68501SOL    HW1 7400   2.261   2.160   2.065
68501SOL    HW2 7401   2.335   2.062   2.153
68502SOL     OW 7402  13.858   8.400  12.005
68502SOL    HW1 7403  13.793   8.430  12.069
68502SOL    HW2 7404  13.838   8.307  11.993
68503SOL     OW 7405   6.281   4.868   4.295
68503SOL    HW1 7406   6.218   4.922   4.342
68503SOL    HW2 7407   6.288   4.788   4.347
68504SOL     OW 7408   4.721   3.966   7.437
68504SOL    HW1 7409   4.690   4.010   7.358
68504SOL    HW2 7410   4.810   4.000   7.449
68505SOL     OW 7411   6.282   5.582   7.996
68505SOL    HW1 7412   6.327   5.646   7.941
68505SOL    HW2 7413   6.249   5.516   7.935
68506SOL     OW 7414  10.428   2.440   6.268
68506SOL    HW1 7415  10.346   2.481   6.294
68506SOL    HW2 7416  10.404   2.352   6.240
68507SOL     OW 7417   9.060  14.248   9.886
68507SOL    HW1 7418   9.104  14.301   9.953
68507SOL    HW2 7419   9.011  14.183   9.936
68508SOL     OW 7420  12.662   8.380  13.226
68508SOL    HW1 7421  12.613   8.434  13.164
68508SOL    HW2 7422  12.740   8.353  13.178
68509SOL     OW 7423   5.070  13.756   6.988
68509SOL    HW1 7424   5.030  13.698   7.053
68509SOL    HW2 7425   5.125  13.700   6.935
68510SOL     OW 7426   3.015   4.822   2.922
68510SOL    HW1 7427   3.012   4.820   2.826
68510SOL    HW2 7428   3.102   4.790   2.944
68511SOL     OW 7429   5.076  12.744   4.850
68511SOL    HW1 7430   5.171  12.761   4.847
68511SOL    HW2 7431   5.047  12.786   4.931
68512SOL     OW 7432  11.788   4.335  10.740
68512SOL    HW1 7433  11.744   4.324  10.655
68512SOL    HW2 7434  11.882   4.332  10.718
68513SOL     OW 7435  14.754  12.725  14.151
68513SOL    HW1 7436  14.817  12.731  14.222
68513SOL    HW2 7437  14.794  12.772  14.078
68514SOL     OW 7438   9.969   7.179  11.355
68514SOL    HW1 7439  10.040   7.209  11.411
68514SOL    HW2 7440   9.929   7.106  11.403
68515SOL     OW 7441   0.139   2.055   2.064
68515SOL    HW1 7442   0.067   2.116   2.077
68515SOL    HW2 7443   0.187   2.090   1.989
68516SOL     OW 7444  12.905  12.909  10.352
68516SOL    HW1 7445  12.930  12.838  10.412
68516SOL    HW2 7446  12.955  12.892  10.272
68517SOL     OW 7447   2.885   4.815   9.454
68517SOL    HW1 7448   2.945   4.739   9.456
68517SOL    HW2 7449   2.873   4.838   9.546
68518SOL     OW 7450   6.421   4.492   1.712
68518SOL    HW1 7451   6.358   4.438   1.664
68518SOL    HW2 7452   6.383   4.500   1.800
68519SOL     OW 7453   4.396   2.510   0.113
68519SOL    HW1 7454   4.381   2.431   0.061
68519SOL    HW2 7455   4.309   2.544   0.131
68520SOL     OW 7456   2.637  10.372   7.071
68520SOL    HW1 7457   2.552  10.417   7.072
68520SOL    HW2 7458   2.619  10.289   7.028
68521SOL     OW 7459   5.553   6.645  12.413
68521SOL    HW1 7460   5.477   6.589  12.435
68521SOL    HW2 7461   5.551   6.651  12.318
68522SOL     OW 7462  14.235   0.111   2.761
68522SOL    HW1 7463  14.262   0.178   2.698
68522SOL    HW2 7464  14.265   0.145   2.845
68523SOL     OW 7465   4.065   7.298  11.812
68523SOL    HW1 7466   4.097   7.214  11.777
68523SOL    HW2 7467   3.987   7.274  11.862
68524SOL     OW 7468   6.815  14.552   8.305
68524SOL    HW1 7469   6.819  14.467   8.348
68524SOL    HW2 7470   6.751  14.602   8.356
68525SOL     OW 7471   5.618  10.191  14.580
68525SOL    HW1 7472   5.598  10.171  14.488
68525SOL    HW2 7473   5.566  10.128  14.630
68526SOL     OW 7474   1.623   3.075  13.653
68526SOL    HW1 7475   1.569   3.140  13.698
68526SOL    HW2 7476   1.707   3.119  13.638
68527SOL     OW 7477   6.386  11.430   5.483
68527SOL    HW1 7478   6.323  11.387   5.542
68527SOL    HW2 7479   6.366  11.395   5.397
68528SOL     OW 7480   3.618  12.547  13.682
68528SOL    HW1 7481   3.531  12.549  13.722
68528SOL    HW2 7482   3.658  12.629  13.711
68529SOL     OW 7483  11.309   4.827   1.472
68529SOL    HW1 7484  11.369   4.857   1.404
68529SOL    HW2 7485  11.366   4.792   1.540
68530SOL     OW 7486  14.077  11.955  13.229
68530SOL    HW1 7487  14.118  12.038  13.253
68530SOL    HW2 7488  14.149  11.901  13.197
68531SOL     OW 7489  10.637   5.921   8.916
68531SOL    HW1 7490  10.721   5.888   8.884
68531SOL    HW2 7491  10.647   5.922   9.011
68532SOL     OW 7492   3.418   7.823   1.479
68532SOL    HW1 7493   3.485   7.868   1.427
68532SOL    HW2 7494   3.449   7.832   1.569
68533SOL     OW 7495  10.256   1.225   7.350
68533SOL    HW1 7496  10.248   1.266   7.436
68533SOL    HW2 7497  10.183   1.163   7.346
68534SOL     OW 7498   5.722   6.512   1.261
68534SOL    HW1 7499   5.765   6.583   1.309
68534SOL    HW2 7500   5.756   6.520   1.172
68535SOL     OW 7501  13.969   2.626   3.424
68535SOL    HW1 7502  13.893   2.626   3.366
68535SOL    HW2 7503  14.038   2.670   3.374
68536SOL     OW 7504   2.857   3.110  13.586
68536SOL    HW1 7505   2.768   3.102  13.619
68536SOL    HW2 7506   2.871   3.029  13.536
68537SOL     OW 7507  13.072  10.901  14.623
68537SOL    HW1 7508  13.148  10.946  14.660
68537SOL    HW2 7509  13.109  10.823  14.583
68538SOL     OW 7510  10.071   8.950   0.294
68538SOL    HW1 7511  10.055   9.003   0.373
68538SOL    HW2 7512  10.146   8.895   0.317
68539SOL     OW 7513   4.412   0.815   0.423
68539SOL    HW1 7514   4.456   0.900   0.425
68539SOL    HW2 7515   4.374   0.809   0.335
68540SOL     OW 7516   3.761   8.087   7.144
68540SOL    HW1 7517   3.832   8.027   7.119
68540SOL    HW2 7518   3.726   8.050   7.225
68541SOL     OW 7519  12.914  12.114   4.187
68541SOL    HW1 7520  12.986  12.071   4.234
68541SOL    HW2 7521  12.955  12.147   4.107
68542SOL     OW 7522   3.072   5.019   0.613
68542SOL    HW1 7523   2.988   5.052   0.645
68542SOL    HW2 7524   3.127   5.013   0.691
68543SOL     OW 7525  14.749   9.997   9.253
68543SOL    HW1 7526  14.838  10.033   9.251
68543SOL    HW2 7527  14.723  10.002   9.345
68544SOL     OW 7528  12.437  13.054   2.740
68544SOL    HW1 7529  12.468  13.137   2.777
68544SOL    HW2 7530  12.514  13.019   2.694
68545SOL     OW 7531  11.931  11.477   8.343
68545SOL    HW1 7532  12.005  11.432   8.384
68545SOL    HW2 7533  11.936  11.567   8.375
68546SOL     OW 7534   9.822  14.551   3.132
68546SOL    HW1 7535   9.774  14.623   3.173
68546SOL    HW2 7536   9.836  14.580   3.042
68547SOL     OW 7537  13.142   7.600   9.424
68547SOL    HW1 7538  13.081   7.573   9.356
68547SOL    HW2 7539  13.091   7.658   9.481
68548SOL     OW 7540   8.133   3.449  12.661
68548SOL    HW1 7541   8.043   3.422  12.679
68548SOL    HW2 7542   8.127   3.498  12.579
68549SOL     OW 7543   8.054   1.223   8.463
68549SOL    HW1 7544   8.125   1.287   8.468
68549SOL    HW2 7545   8.009   1.244   8.381
68550SOL     OW 7546  11.359   0.432  14.065
68550SOL    HW1 7547  11.296   0.467  14.128
68550SOL    HW2 7548  11.322   0.348  14.038
68551SOL     OW 7549  11.957  11.728   9.502
68551SOL    HW1 7550  12.026  11.705   9.440
68551SOL    HW2 7551  11.876  11.702   9.459
68552SOL     OW 7552  10.488  12.200   1.473
68552SOL    HW1 7553  10.576  12.206   1.436
68552SOL    HW2 7554  10.474  12.286   1.514
68553SOL     OW 7555   4.526   4.848   9.483
68553SOL    HW1 7556   4.433   4.829   9.481
68553SOL    HW2 7557   4.539   4.898   9.564
68554SOL     OW 7558   1.513  14.338   6.095
68554SOL    HW1 7559   1.601  14.314   6.069
68554SOL    HW2 7560   1.460  14.261   6.075
68555SOL     OW 7561   8.510  14.256  11.437
68555SOL    HW1 7562   8.486  14.164  11.429
68555SOL    HW2 7563   8.523  14.269  11.531
68556SOL     OW 7564   3.696  12.092  11.626
68556SOL    HW1 7565   3.664  12.002  11.635
68556SOL    HW2 7566   3.776  12.084  11.575
68557SOL     OW 7567   3.968  11.625  11.986
68557SOL    HW1 7568   4.056  11.662  11.992
68557SOL    HW2 7569   3.928  11.671  11.912
68558SOL     OW 7570  11.343   7.146   3.145
68558SOL    HW1 7571  11.404   7.214   3.175
68558SOL    HW2 7572  11.361   7.137   3.052
68559SOL     OW 7573  11.712  10.629   2.890
68559SOL    HW1 7574  11.653  10.635   2.965
68559SOL    HW2 7575  11.656  10.599   2.818
68560SOL     OW 7576  11.218   0.107   8.888
68560SOL    HW1 7577  11.301   0.064   8.869
68560SOL    HW2 7578  11.168   0.101   8.807
68561SOL     OW 7579   6.077   6.228  10.467
68561SOL    HW1 7580   6.025   6.306  10.484
68561SOL    HW2 7581   6.142   6.255  10.403
68562SOL     OW 7582   0.947  14.051   1.391
68562SOL    HW1 7583   0.904  14.064   1.476
68562SOL    HW2 7584   1.041  14.055   1.411
68563SOL     OW 7585  14.375   3.512  14.878
68563SOL    HW1 7586  14.469   3.504  14.864
68563SOL    HW2 7587  14.337   3.446  14.820
68564SOL     OW 7588   2.232  10.404  10.625
68564SOL    HW1 7589   2.220  10.425  10.717
68564SOL    HW2 7590   2.255  10.488  10.584
68565SOL     OW 7591  12.430  12.937   4.842
68565SOL    HW1 7592  12.402  12.955   4.932
68565SOL    HW2 7593  12.355  12.895   4.801
68566SOL     OW 7594   6.470  13.609  11.837
68566SOL    HW1 7595   6.379  13.595  11.812
68566SOL    HW2 7596   6.466  13.678  11.903
68567SOL     OW 7597   6.262   7.847   9.350
68567SOL    HW1 7598   6.184   7.869   9.401
68567SOL    HW2 7599   6.231   7.786   9.283
68568SOL     OW 7600   5.463  10.551  10.929
68568SOL    HW1 7601   5.461  10.646  10.921
68568SOL    HW2 7602   5.405  10.519  10.861
68569SOL     OW 7603  13.075   3.009   4.699
68569SOL    HW1 7604  13.169   3.002   4.713
68569SOL    HW2 7605  13.042   2.920   4.708
68570SOL     OW 7606   0.650  12.535   6.937
68570SOL    HW1 7607   0.618  12.535   6.847
68570SOL    HW2 7608   0.621  12.620   6.972
68571SOL     OW 7609  11.984   9.084  11.464
68571SOL    HW1 7610  11.950   8.997  11.444
68571SOL    HW2 7611  12.014   9.078  11.555
68572SOL     OW 7612   6.357   5.586   8.850
68572SOL    HW1 7613   6.380   5.494   8.842
68572SOL    HW2 7614   6.357   5.619   8.760
68573SOL     OW 7615   8.266  13.562   6.119
68573SOL    HW1 7616   8.202  13.497   6.147
68573SOL    HW2 7617   8.284  13.540   6.028
68574SOL     OW 7618  10.588   5.103  13.738
68574SOL    HW1 7619  10.578   5.070  13.649
68574SOL    HW2 7620  10.508   5.076  13.783
68575SOL     OW 7621   4.470   5.621  11.124
68575SOL    HW1 7622   4.502   5.704  11.087
68575SOL    HW2 7623   4.524   5.554  11.083
68576SOL     OW 7624   5.270  12.101   7.290
68576SOL    HW1 7625   5.238  12.029   7.236
68576SOL    HW2 7626   5.366  12.092   7.289
68577SOL     OW 7627  13.908  12.536   5.012
68577SOL    HW1 7628  13.824  12.553   5.054
68577SOL    HW2 7629  13.950  12.471   5.067
68578SOL     OW 7630   8.659   6.985   1.888
68578SOL    HW1 7631   8.594   6.985   1.959
68578SOL    HW2 7632   8.699   7.072   1.894
68579SOL     OW 7633  11.954  11.749   8.374
68579SOL    HW1 7634  11.906  11.827   8.401
68579SOL    HW2 7635  12.019  11.781   8.312
68580SOL     OW 7636   0.589   3.901  11.243
68580SOL    HW1 7637   0.679   3.872  11.253
68580SOL    HW2 7638   0.585   3.936  11.154
68581SOL     OW 7639   0.108   7.796   1.054
68581SOL    HW1 7640   0.196   7.781   1.088
68581SOL    HW2 7641   0.050   7.766   1.124
68582SOL     OW 7642  12.918   2.601  13.990
68582SOL    HW1 7643  13.001   2.647  13.977
68582SOL    HW2 7644  12.856   2.669  14.016
68583SOL     OW 7645   7.345   0.691  12.518
68583SOL    HW1 7646   7.388   0.763  12.563
68583SOL    HW2 7647   7.316   0.632  12.588
68584SOL     OW 7648   1.967  12.254   3.678
68584SOL    HW1 7649   1.963  12.193   3.604
68584SOL    HW2 7650   1.969  12.340   3.638
68585SOL     OW 7651  11.178  11.717  10.686
68585SOL    HW1 7652  11.107  11.699  10.625
68585SOL    HW2 7653  11.143  11.692  10.772
68586SOL     OW 7654   0.297   2.713  12.433
68586SOL    HW1 7655   0.301   2.790  12.490
68586SOL    HW2 7656   0.271   2.747  12.348
68587SOL     OW 7657   3.828   9.776   7.179
68587SOL    HW1 7658   3.755   9.831   7.151
68587SOL    HW2 7659   3.906   9.824   7.153
68588SOL     OW 7660   1.133  10.982   0.752
68588SOL    HW1 7661   1.082  11.008   0.675
68588SOL    HW2 7662   1.173  10.899   0.728
68589SOL     OW 7663   7.363  11.172   0.773
68589SOL    HW1 7664   7.345  11.219   0.855
68589SOL    HW2 7665   7.354  11.079   0.796
68590SOL     OW 7666  10.581   4.879   4.838
68590SOL    HW1 7667  10.574   4.972   4.815
68590SOL    HW2 7668  10.651   4.876   4.903
68591SOL     OW 7669   4.959   1.604   1.983
68591SOL    HW1 7670   4.879   1.562   1.952
68591SOL    HW2 7671   5.012   1.533   2.018
68592SOL     OW 7672   8.397   8.111  10.145
68592SOL    HW1 7673   8.459   8.165  10.097
68592SOL    HW2 7674   8.451   8.043  10.186
68593SOL     OW 7675  11.412   3.211   4.624
68593SOL    HW1 7676  11.384   3.275   4.689
68593SOL    HW2 7677  11.344   3.143   4.625
68594SOL     OW 7678  13.262  11.491   5.475
68594SOL    HW1 7679  13.238  11.461   5.562
68594SOL    HW2 7680  13.181  11.525   5.437
68595SOL     OW 7681   3.072  10.770   7.778
68595SOL    HW1 7682   3.121  10.844   7.816
68595SOL    HW2 7683   3.057  10.711   7.851
68596SOL     OW 7684   1.960   2.538   9.306
68596SOL    HW1 7685   1.915   2.591   9.371
68596SOL    HW2 7686   1.901   2.536   9.231
68597SOL     OW 7687   6.765  11.213   6.989
68597SOL    HW1 7688   6.846  11.176   6.953
68597SOL    HW2 7689   6.742  11.154   7.061
68598SOL     OW 7690   7.692  13.706  12.302
68598SOL    HW1 7691   7.656  13.617  12.301
68598SOL    HW2 7692   7.755  13.707  12.230
68599SOL     OW 7693   2.861   3.136   1.320
68599SOL    HW1 7694   2.854   3.169   1.409
68599SOL    HW2 7695   2.946   3.168   1.289
68600SOL     OW 7696  12.478   8.088   0.743
68600SOL    HW1 7697  12.399   8.058   0.698
68600SOL    HW2 7698  12.465   8.183   0.754
68601SOL     OW 7699   4.543  13.493   6.863
68601SOL    HW1 7700   4.529  13.571   6.810
68601SOL    HW2 7701   4.632  13.503   6.897
68602SOL     OW 7702  10.021   6.657   5.302
68602SOL    HW1 7703   9.945   6.707   5.271
68602SOL    HW2 7704  10.040   6.695   5.388
68603SOL     OW 7705  10.495   5.058   9.375
68603SOL    HW1 7706  10.421   5.113   9.403
68603SOL    HW2 7707  10.505   5.078   9.282
68604SOL     OW 7708  10.522  12.085  10.057
68604SOL    HW1 7709  10.563  12.040   9.983
68604SOL    HW2 7710  10.435  12.110  10.025
68605SOL     OW 7711  12.303   4.087   7.930
68605SOL    HW1 7712  12.228   4.147   7.924
68605SOL    HW2 7713  12.264   4.001   7.944
68606SOL     OW 7714   0.360  14.338   9.619
68606SOL    HW1 7715   0.308  14.277   9.672
68606SOL    HW2 7716   0.296  14.378   9.560
68607SOL     OW 7717   5.814  11.926   6.234
68607SOL    HW1 7718   5.722  11.949   6.218
68607SOL    HW2 7719   5.859  11.946   6.153
68608SOL     OW 7720  12.845  12.040  13.251
68608SOL    HW1 7721  12.838  12.064  13.343
68608SOL    HW2 7722  12.937  12.015  13.240
68609SOL     OW 7723   9.872  14.746  13.487
68609SOL    HW1 7724   9.886  14.803  13.562
68609SOL    HW2 7725   9.875  14.805  13.411
68610SOL     OW 7726  10.650   1.975   2.644
68610SOL    HW1 7727  10.578   2.035   2.660
68610SOL    HW2 7728  10.609   1.888   2.643
68611SOL     OW 7729   7.590   8.536   9.206
68611SOL    HW1 7730   7.548   8.451   9.194
68611SOL    HW2 7731   7.650   8.522   9.279
68612SOL     OW 7732  11.346  11.197   5.100
68612SOL    HW1 7733  11.272  11.136   5.095
68612SOL    HW2 7734  11.400  11.176   5.024
68613SOL     OW 7735  14.821  13.065  13.852
68613SOL    HW1 7736  14.818  12.974  13.825
68613SOL    HW2 7737  14.806  13.063  13.947
68614SOL     OW 7738   6.723   8.827   7.155
68614SOL    HW1 7739   6.728   8.735   7.129
68614SOL    HW2 7740   6.814   8.858   7.153
68615SOL     OW 7741  12.248   9.746   0.993
68615SOL    HW1 7742  12.291   9.799   1.060
68615SOL    HW2 7743  12.292   9.662   0.996
68616SOL     OW 7744   8.046   3.919   9.110
68616SOL    HW1 7745   7.952   3.904   9.098
68616SOL    HW2 7746   8.077   3.841   9.157
68617SOL     OW 7747   1.255  11.989  12.661
68617SOL    HW1 7748   1.303  11.979  12.743
68617SOL    HW2 7749   1.322  11.990  12.593
68618SOL     OW 7750  11.530  13.146   0.118
68618SOL    HW1 7751  11.458  13.207   0.134
68618SOL    HW2 7752  11.548  13.108   0.204
68619SOL     OW 7753   8.427   3.223   2.009
68619SOL    HW1 7754   8.452   3.259   2.094
68619SOL    HW2 7755   8.396   3.134   2.028
68620SOL     OW 7756  11.733   0.175   5.548
68620SOL    HW1 7757  11.827   0.162   5.558
68620SOL    HW2 7758  11.700   0.188   5.637
68621SOL     OW 7759   9.447   4.245   8.082
68621SOL    HW1 7760   9.486   4.158   8.073
68621SOL    HW2 7761   9.353   4.230   8.079
68622SOL     OW 7762   4.177  13.945   6.148
68622SOL    HW1 7763   4.226  14.022   6.120
68622SOL    HW2 7764   4.169  13.891   6.069
68623SOL     OW 7765   7.798   0.851  14.380
68623SOL    HW1 7766   7.727   0.915  14.379
68623SOL    HW2 7767   7.874   0.900  14.347
68624SOL     OW 7768   9.002   7.628   4.661
68624SOL    HW1 7769   9.015   7.533   4.668
68624SOL    HW2 7770   8.949   7.640   4.583
68625SOL     OW 7771  13.797   4.379   3.326
68625SOL    HW1 7772  13.707   4.362   3.298
68625SOL    HW2 7773  13.834   4.292   3.342
68626SOL     OW 7774   6.484   9.390  12.236
68626SOL    HW1 7775   6.419   9.342  12.287
68626SOL    HW2 7776   6.438   9.416  12.157
68627SOL     OW 7777   0.890   3.669   3.776
68627SOL    HW1 7778   0.922   3.698   3.862
68627SOL    HW2 7779   0.855   3.582   3.792
68628SOL     OW 7780   3.075   0.380  12.611
68628SOL    HW1 7781   3.153   0.353  12.660
68628SOL    HW2 7782   3.055   0.468  12.645
68629SOL     OW 7783  14.780   8.252   2.525
68629SOL    HW1 7784  14.828   8.187   2.577
68629SOL    HW2 7785  14.701   8.270   2.577
68630SOL     OW 7786  12.288  13.810  13.341
68630SOL    HW1 7787  12.299  13.812  13.245
68630SOL    HW2 7788  12.203  13.769  13.354
68631SOL     OW 7789   8.468  11.962   3.408
68631SOL    HW1 7790   8.400  11.981   3.343
68631SOL    HW2 7791   8.420  11.930   3.484
68632SOL     OW 7792   1.944  11.316   2.020
68632SOL    HW1 7793   1.916  11.376   1.951
68632SOL    HW2 7794   1.868  11.306   2.076
68633SOL     OW 7795   2.276  10.853   9.315
68633SOL    HW1 7796   2.190  10.810   9.313
68633SOL    HW2 7797   2.312  10.839   9.228
68634SOL     OW 7798  11.156  10.669   3.995
68634SOL    HW1 7799  11.099  10.594   4.014
68634SOL    HW2 7800  11.099  10.731   3.949
68635SOL     OW 7801   9.861   3.095   8.381
68635SOL    HW1 7802   9.841   3.111   8.289
68635SOL    HW2 7803   9.777   3.109   8.427
68636SOL     OW 7804  14.368   7.331   2.189
68636SOL    HW1 7805  14.303   7.278   2.142
68636SOL    HW2 7806  14.443   7.272   2.201
68637SOL     OW 7807   7.228   9.413   9.138
68637SOL    HW1 7808   7.309   9.458   9.112
68637SOL    HW2 7809   7.244   9.321   9.117
68638SOL     OW 7810   8.444   6.574  14.412
68638SOL    HW1 7811   8.453   6.651  14.356
68638SOL    HW2 7812   8.415   6.505  14.353
68639SOL     OW 7813   7.715   0.870   9.952
68639SOL    HW1 7814   7.633   0.919   9.947
68639SOL    HW2 7815   7.783   0.938   9.944
68640SOL     OW 7816   7.468   0.100  12.259
68640SOL    HW1 7817   7.493   0.045  12.184
68640SOL    HW2 7818   7.453   0.186  12.222
68641SOL     OW 7819   1.950   5.789   7.906
68641SOL    HW1 7820   2.014   5.825   7.967
68641SOL    HW2 7821   1.875   5.850   7.912
68642SOL     OW 7822   0.294   4.195  14.811
68642SOL    HW1 7823   0.329   4.138  14.743
68642SOL    HW2 7824   0.363   4.259  14.827
68643SOL     OW 7825  11.122  11.160  12.987
68643SOL    HW1 7826  11.193  11.210  13.028
68643SOL    HW2 7827  11.156  11.071  12.982
68644SOL     OW 7828   4.778   1.135  12.993
68644SOL    HW1 7829   4.806   1.219  12.956
68644SOL    HW2 7830   4.839   1.119  13.065
68645SOL     OW 7831   5.504   7.565   6.207
68645SOL    HW1 7832   5.408   7.576   6.208
68645SOL    HW2 7833   5.530   7.574   6.298
68646SOL     OW 7834  11.986   7.319  11.513
68646SOL    HW1 7835  12.081   7.317  11.528
68646SOL    HW2 7836  11.959   7.406  11.543
68647SOL     OW 7837   1.009   8.874  13.110
68647SOL    HW1 7838   1.096   8.901  13.142
68647SOL    HW2 7839   1.023   8.852  13.018
68648SOL     OW 7840   2.456   0.343   9.365
68648SOL    HW1 7841   2.488   0.434   9.360
68648SOL    HW2 7842   2.377   0.349   9.419
68649SOL     OW 7843   2.028   3.761   6.901
68649SOL    HW1 7844   1.979   3.841   6.882
68649SOL    HW2 7845   1.962   3.700   6.933
68650SOL     OW 7846   7.890   7.590   2.705
68650SOL    HW1 7847   7.953   7.590   2.777
68650SOL    HW2 7848   7.825   7.656   2.731
68651SOL     OW 7849   2.348  13.039   2.255
68651SOL    HW1 7850   2.390  12.993   2.182
68651SOL    HW2 7851   2.292  12.973   2.296
68652SOL     OW 7852  13.948   7.979  12.851
68652SOL    HW1 7853  14.018   7.951  12.792
68652SOL    HW2 7854  13.945   7.912  12.919
68653SOL     OW 7855   8.072   1.605   3.295
68653SOL    HW1 7856   8.044   1.691   3.264
68653SOL    HW2 7857   8.156   1.622   3.338
68654SOL     OW 7858  11.927   0.147   3.849
68654SOL    HW1 7859  11.925   0.241   3.869
68654SOL    HW2 7860  12.020   0.125   3.852
68655SOL     OW 7861   3.346   3.595  11.087
68655SOL    HW1 7862   3.425   3.628  11.044
68655SOL    HW2 7863   3.279   3.597  11.019
68656SOL     OW 7864  12.465   7.894   5.765
68656SOL    HW1 7865  12.393   7.840   5.797
68656SOL    HW2 7866  12.459   7.888   5.670
68657SOL     OW 7867   2.351   8.799  12.619
68657SOL    HW1 7868   2.322   8.821  12.708
68657SOL    HW2 7869   2.442   8.827  12.617
68658SOL     OW 7870   7.467   3.921   7.297
68658SOL    HW1 7871   7.382   3.963   7.280
68658SOL    HW2 7872   7.492   3.953   7.384
68659SOL     OW 7873   1.145   8.774   4.033
68659SOL    HW1 7874   1.181   8.743   4.117
68659SOL    HW2 7875   1.115   8.863   4.051
68660SOL     OW 7876   8.750   9.705   6.972
68660SOL    HW1 7877   8.691   9.630   6.968
68660SOL    HW2 7878   8.729   9.756   6.894
68661SOL     OW 7879   2.144   1.940   3.806
68661SOL    HW1 7880   2.195   1.988   3.741
68661SOL    HW2 7881   2.203   1.929   3.881
68662SOL     OW 7882   7.581   9.013   5.188
68662SOL    HW1 7883   7.657   9.028   5.244
68662SOL    HW2 7884   7.584   8.920   5.168
68663SOL     OW 7885  10.465   6.563   8.639
68663SOL    HW1 7886  10.395   6.549   8.703
68663SOL    HW2 7887  10.420   6.564   8.554
68664SOL     OW 7888  14.789   2.156  14.863
68664SOL    HW1 7889  14.709   2.106  14.880
68664SOL    HW2 7890  14.768   2.209  14.786
68665SOL     OW 7891   0.335   3.437   8.492
68665SOL    HW1 7892   0.424   3.401   8.492
68665SOL    HW2 7893   0.343   3.522   8.449
68666SOL     OW 7894   2.615  13.517  10.179
68666SOL    HW1 7895   2.703  13.484  10.158
68666SOL    HW2 7896   2.588  13.565  10.101
68667SOL     OW 7897   3.465   3.375  14.630
68667SOL    HW1 7898   3.504   3.462  14.620
68667SOL    HW2 7899   3.538   3.319  14.656
68668SOL     OW 7900  12.770  14.669   5.390
68668SOL    HW1 7901  12.833  14.601   5.367
68668SOL    HW2 7902  12.691  14.646   5.341
68669SOL     OW 7903   0.757   6.305   7.977
68669SOL    HW1 7904   0.796   6.354   8.050
68669SOL    HW2 7905   0.670   6.281   8.009
68670SOL     OW 7906   0.512   6.559   1.998
68670SOL    HW1 7907   0.510   6.466   1.975
68670SOL    HW2 7908   0.450   6.568   2.070
68671SOL     OW 7909   5.242   0.866   3.416
68671SOL    HW1 7910   5.293   0.851   3.495
68671SOL    HW2 7911   5.278   0.804   3.352
68672SOL     OW 7912   2.587   2.194   3.057
68672SOL    HW1 7913   2.681   2.184   3.066
68672SOL    HW2 7914   2.569   2.173   2.966
68673SOL     OW 7915   3.345   9.450   8.910
68673SOL    HW1 7916   3.425   9.437   8.960
68673SOL    HW2 7917   3.347   9.381   8.843
68674SOL     OW 7918   7.439   2.133   7.742
68674SOL    HW1 7919   7.350   2.110   7.716
68674SOL    HW2 7920   7.444   2.111   7.835
68675SOL     OW 7921  14.344   0.149   3.998
68675SOL    HW1 7922  14.393   0.218   4.044
68675SOL    HW2 7923  14.279   0.119   4.061
68676SOL     OW 7924   7.368  14.517   1.118
68676SOL    HW1 7925   7.452  14.558   1.139
68676SOL    HW2 7926   7.378  14.487   1.028
68677SOL     OW 7927   7.997  13.747   4.423
68677SOL    HW1 7928   8.084  13.747   4.462
68677SOL    HW2 7929   7.944  13.801   4.482
68678SOL     OW 7930  14.587   2.112   6.867
68678SOL    HW1 7931  14.637   2.058   6.928
68678SOL    HW2 7932  14.653   2.162   6.819
68679SOL     OW 7933  12.234   9.892   7.516
68679SOL    HW1 7934  12.321   9.853   7.523
68679SOL    HW2 7935  12.222   9.908   7.423
68680SOL     OW 7936   9.588   3.687   8.451
68680SOL    HW1 7937   9.667   3.726   8.414
68680SOL    HW2 7938   9.607   3.593   8.455
68681SOL     OW 7939   3.777   7.568  13.455
68681SOL    HW1 7940   3.742   7.524  13.532
68681SOL    HW2 7941   3.805   7.654  13.487
68682SOL     OW 7942  12.499   5.696  11.299
68682SOL    HW1 7943  12.547   5.776  11.323
68682SOL    HW2 7944  12.423   5.727  11.250
68683SOL     OW 7945  13.916  13.518   2.106
68683SOL    HW1 7946  13.866  13.543   2.029
68683SOL    HW2 7947  13.955  13.433   2.084
68684SOL     OW 7948  10.590   4.164   4.025
68684SOL    HW1 7949  10.577   4.130   3.937
68684SOL    HW2 7950  10.581   4.259   4.015
68685SOL     OW 7951  11.063   4.723  14.679
68685SOL    HW1 7952  11.143   4.727  14.627
68685SOL    HW2 7953  10.993   4.733  14.615
68686SOL     OW 7954   1.870   8.883   1.120
68686SOL    HW1 7955   1.862   8.914   1.210
68686SOL    HW2 7956   1.880   8.964   1.069
68687SOL     OW 7957   8.962   0.416   9.285
68687SOL    HW1 7958   9.032   0.395   9.224
68687SOL    HW2 7959   8.909   0.336   9.291
68688SOL     OW 7960   0.940   4.690   9.521
68688SOL    HW1 7961   0.907   4.620   9.578
68688SOL    HW2 7962   0.862   4.742   9.501
68689SOL     OW 7963  10.727   9.123   1.985
68689SOL    HW1 7964  10.727   9.150   1.893
68689SOL    HW2 7965  10.680   9.039   1.985
68690SOL     OW 7966   2.826   4.044  12.199
68690SOL    HW1 7967   2.895   4.007  12.144
68690SOL    HW2 7968   2.871   4.106  12.256
68691SOL     OW 7969   9.218   5.550   9.798
68691SOL    HW1 7970   9.125   5.561   9.816
68691SOL    HW2 7971   9.223   5.475   9.739
68692SOL     OW 7972  14.509   5.222   3.629
68692SOL    HW1 7973  14.595   5.244   3.665
68692SOL    HW2 7974  14.455   5.200   3.705
68693SOL     OW 7975  12.524   5.480   9.745
68693SOL    HW1 7976  12.541   5.531   9.665
68693SOL    HW2 7977  12.563   5.395   9.728
68694SOL     OW 7978  10.693  11.945   6.439
68694SOL    HW1 7979  10.778  11.978   6.467
68694SOL    HW2 7980  10.687  11.969   6.347
68695SOL     OW 7981  14.376  13.321   6.324
68695SOL    HW1 7982  14.410  13.407   6.299
68695SOL    HW2 7983  14.441  13.259   6.292
68696SOL     OW 7984   3.445   4.458   8.516
68696SOL    HW1 7985   3.447   4.368   8.547
68696SOL    HW2 7986   3.367   4.463   8.461
68697SOL     OW 7987  14.279   2.019   1.187
68697SOL    HW1 7988  14.280   2.015   1.283
68697SOL    HW2 7989  14.222   2.093   1.167
68698SOL     OW 7990   3.469   4.647   8.788
68698SOL    HW1 7991   3.534   4.660   8.719
68698SOL    HW2 7992   3.516   4.597   8.855
68699SOL     OW 7993   3.207   7.344  10.108
68699SOL    HW1 7994   3.203   7.440  10.105
68699SOL    HW2 7995   3.185   7.317  10.019
68700SOL     OW 7996   3.781   3.754   5.909
68700SOL    HW1 7997   3.750   3.833   5.864
68700SOL    HW2 7998   3.751   3.765   5.999
68701SOL     OW 7999   8.271   0.001   5.884
68701SOL    HW1 8000   8.320   0.083   5.882
68701SOL    HW2 8001   8.332  14.818   5.923
68702SOL     OW 8002   6.071   4.846   6.097
68702SOL    HW1 8003   5.977   4.842   6.083
68702SOL    HW2 8004   6.080   4.858   6.192
68703SOL     OW 8005   9.733   0.146   2.543
68703SOL    HW1 8006   9.764   0.093   2.469
68703SOL    HW2 8007   9.648   0.109   2.565
68704SOL     OW 8008  13.805   0.944  10.319
68704SOL    HW1 8009  13.746   0.916  10.388
68704SOL    HW2 8010  13.887   0.966  10.364
68705SOL     OW 8011  11.624   2.175   7.500
68705SOL    HW1 8012  11.681   2.253   7.496
68705SOL    HW2 8013  11.538   2.207   7.474
68706SOL     OW 8014   9.020  12.779   5.010
68706SOL    HW1 8015   8.925  12.778   5.025
68706SOL    HW2 8016   9.044  12.687   5.001
68707SOL     OW 8017  11.140   0.728   5.819
68707SOL    HW1 8018  11.077   0.749   5.888
68707SOL    HW2 8019  11.098   0.758   5.739
68708SOL     OW 8020  13.665   8.846   5.144
68708SOL    HW1 8021  13.582   8.861   5.189
68708SOL    HW2 8022  13.694   8.760   5.175
68709SOL     OW 8023   8.644  11.904   7.901
68709SOL    HW1 8024   8.708  11.958   7.948
68709SOL    HW2 8025   8.598  11.856   7.970
68710SOL     OW 8026   9.399   7.901  10.836
68710SOL    HW1 8027   9.334   7.847  10.792
68710SOL    HW2 8028   9.351   7.942  10.909
68711SOL     OW 8029   9.251   0.378   7.959
68711SOL    HW1 8030   9.226   0.415   8.043
68711SOL    HW2 8031   9.295   0.295   7.982
68712SOL     OW 8032   3.418   8.522   6.875
68712SOL    HW1 8033   3.406   8.465   6.951
68712SOL    HW2 8034   3.501   8.493   6.836
68713SOL     OW 8035   0.981   7.538   0.632
68713SOL    HW1 8036   0.886   7.545   0.627
68713SOL    HW2 8037   1.013   7.583   0.554
68714SOL     OW 8038   9.805  13.101   6.451
68714SOL    HW1 8039   9.790  13.194   6.433
68714SOL    HW2 8040   9.719  13.068   6.478
68715SOL     OW 8041   1.573  12.842   3.424
68715SOL    HW1 8042   1.668  12.838   3.428
68715SOL    HW2 8043   1.547  12.875   3.510
68716SOL     OW 8044   8.669   5.203  14.597
68716SOL    HW1 8045   8.745   5.223  14.652
68716SOL    HW2 8046   8.661   5.108  14.601
68717SOL     OW 8047   6.914   7.753  11.519
68717SOL    HW1 8048   6.834   7.732  11.471
68717SOL    HW2 8049   6.885   7.800  11.597
68718SOL     OW 8050   2.496   2.151   2.581
68718SOL    HW1 8051   2.403   2.175   2.587
68718SOL    HW2 8052   2.540   2.234   2.564
68719SOL     OW 8053   2.444  14.780   5.344
68719SOL    HW1 8054   2.385  14.705   5.348
68719SOL    HW2 8055   2.407  14.836   5.275
68720SOL     OW 8056   4.535   2.069   2.514
68720SOL    HW1 8057   4.554   2.081   2.607
68720SOL    HW2 8058   4.558   2.152   2.473
68721SOL     OW 8059   5.884   7.921  14.481
68721SOL    HW1 8060   5.948   7.917  14.410
68721SOL    HW2 8061   5.922   7.983  14.544
68722SOL     OW 8062   1.414   9.363   3.902
68722SOL    HW1 8063   1.432   9.446   3.947
68722SOL    HW2 8064   1.458   9.371   3.818
68723SOL     OW 8065   0.782   8.071   5.146
68723SOL    HW1 8066   0.812   8.072   5.055
68723SOL    HW2 8067   0.718   8.000   5.149
68724SOL     OW 8068  12.807   2.313  13.602
68724SOL    HW1 8069  12.755   2.264  13.665
68724SOL    HW2 8070  12.872   2.251  13.569
68725SOL     OW 8071   2.935   6.390   7.275
68725SOL    HW1 8072   2.910   6.369   7.185
68725SOL    HW2 8073   3.031   6.399   7.272
68726SOL     OW 8074   6.679   6.585   7.290
68726SOL    HW1 8075   6.669   6.557   7.381
68726SOL    HW2 8076   6.593   6.567   7.250
68727SOL     OW 8077   7.004   0.449   6.042
68727SOL    HW1 8078   7.008   0.379   5.977
68727SOL    HW2 8079   7.073   0.511   6.015
68728SOL     OW 8080   7.258  10.257   8.988
68728SOL    HW1 8081   7.188  10.193   8.973
68728SOL    HW2 8082   7.223  10.340   8.957
68729SOL     OW 8083   1.271  14.503   0.944
68729SOL    HW1 8084   1.197  14.445   0.962
68729SOL    HW2 8085   1.338  14.475   1.006
68730SOL     OW 8086   1.712   8.703   7.549
68730SOL    HW1 8087   1.715   8.609   7.566
68730SOL    HW2 8088   1.688   8.743   7.633
68731SOL     OW 8089   9.550   8.710  10.302
68731SOL    HW1 8090   9.456   8.695  10.305
68731SOL    HW2 8091   9.580   8.696  10.392
68732SOL     OW 8092   1.932   4.835   8.401
68732SOL    HW1 8093   1.860   4.788   8.442
68732SOL    HW2 8094   2.004   4.772   8.398
68733SOL     OW 8095  14.699   1.494   7.622
68733SOL    HW1 8096  14.792   1.516   7.613
68733SOL    HW2 8097  14.659   1.521   7.540
68734SOL     OW 8098   7.385  14.106   5.721
68734SOL    HW1 8099   7.419  14.158   5.649
68734SOL    HW2 8100   7.348  14.028   5.679
68735SOL     OW 8101   2.556  12.245  12.564
68735SOL    HW1 8102   2.575  12.237  12.471
68735SOL    HW2 8103   2.520  12.334  12.573
68736SOL     OW 8104  10.834   6.344   1.752
68736SOL    HW1 8105  10.871   6.281   1.815
68736SOL    HW2 8106  10.847   6.302   1.667
68737SOL     OW 8107  12.187   8.897  10.367
68737SOL    HW1 8108  12.248   8.955  10.322
68737SOL    HW2 8109  12.101   8.919  10.331
68738SOL     OW 8110   2.197  10.313   4.544
68738SOL    HW1 8111   2.123  10.346   4.594
68738SOL    HW2 8112   2.224  10.234   4.590
68739SOL     OW 8113   3.633   5.795  12.234
68739SOL    HW1 8114   3.650   5.706  12.205
68739SOL    HW2 8115   3.649   5.849  12.157
68740SOL     OW 8116  13.114  11.929   7.891
68740SOL    HW1 8117  13.130  12.023   7.891
68740SOL    HW2 8118  13.187  11.893   7.840
68741SOL     OW 8119   3.695   5.910  14.046
68741SOL    HW1 8120   3.727   5.987  14.092
68741SOL    HW2 8121   3.759   5.893  13.977
68742SOL     OW 8122  12.068  14.786  12.586
68742SOL    HW1 8123  12.072  14.860  12.527
68742SOL    HW2 8124  12.108  14.818  12.667
68743SOL     OW 8125  13.269   0.760   9.677
68743SOL    HW1 8126  13.257   0.816   9.754
68743SOL    HW2 8127  13.270   0.671   9.713
68744SOL     OW 8128  12.571   8.800   4.551
68744SOL    HW1 8129  12.500   8.835   4.604
68744SOL    HW2 8130  12.638   8.868   4.552
68745SOL     OW 8131  11.139  10.950   0.487
68745SOL    HW1 8132  11.066  10.995   0.445
68745SOL    HW2 8133  11.150  10.995   0.571
68746SOL     OW 8134   9.954   9.564   7.716
68746SOL    HW1 8135   9.909   9.630   7.663
68746SOL    HW2 8136   9.912   9.570   7.802
68747SOL     OW 8137   7.732   4.957   7.306
68747SOL    HW1 8138   7.717   5.037   7.356
68747SOL    HW2 8139   7.689   4.974   7.222
68748SOL     OW 8140   3.141   5.454   7.430
68748SOL    HW1 8141   3.155   5.399   7.354
68748SOL    HW2 8142   3.158   5.543   7.399
68749SOL     OW 8143   8.392  13.769   8.741
68749SOL    HW1 8144   8.369  13.737   8.654
68749SOL    HW2 8145   8.422  13.692   8.789
68750SOL     OW 8146   1.821  11.054  10.877
68750SOL    HW1 8147   1.833  11.079  10.968
68750SOL    HW2 8148   1.730  11.025  10.871
68751SOL     OW 8149   5.284   1.285  10.596
68751SOL    HW1 8150   5.226   1.353  10.629
68751SOL    HW2 8151   5.372   1.316  10.619
68752SOL     OW 8152   5.329  13.249   8.995
68752SOL    HW1 8153   5.385  13.199   9.055
68752SOL    HW2 8154   5.321  13.194   8.917
68753SOL     OW 8155   9.116   7.416  10.595
68753SOL    HW1 8156   9.028   7.442  10.623
68753SOL    HW2 8157   9.101   7.349  10.528
68754SOL     OW 8158   8.385   1.087   0.802
68754SOL    HW1 8159   8.470   1.129   0.815
68754SOL    HW2 8160   8.331   1.154   0.759
68755SOL     OW 8161   9.464  13.202   2.881
68755SOL    HW1 8162   9.484  13.108   2.880
68755SOL    HW2 8163   9.492  13.233   2.795
68756SOL     OW 8164   3.878  13.399  14.544
68756SOL    HW1 8165   3.852  13.308  14.554
68756SOL    HW2 8166   3.893  13.410  14.450
68757SOL     OW 8167   7.871  14.342   4.945
68757SOL    HW1 8168   7.830  14.291   5.016
68757SOL    HW2 8169   7.937  14.395   4.989
68758SOL     OW 8170   0.586  10.313   8.247
68758SOL    HW1 8171   0.544  10.246   8.301
68758SOL    HW2 8172   0.607  10.384   8.308
68759SOL     OW 8173  13.355   0.863   9.099
68759SOL    HW1 8174  13.426   0.887   9.041
68759SOL    HW2 8175  13.277   0.862   9.044
68760SOL     OW 8176   2.859   7.432   9.539
68760SOL    HW1 8177   2.766   7.427   9.516
68760SOL    HW2 8178   2.893   7.345   9.516
68761SOL     OW 8179   0.846   6.699   3.372
68761SOL    HW1 8180   0.848   6.704   3.277
68761SOL    HW2 8181   0.791   6.773   3.399
68762SOL     OW 8182   4.567   6.828   1.106
68762SOL    HW1 8183   4.515   6.870   1.038
68762SOL    HW2 8184   4.579   6.896   1.172
68763SOL     OW 8185   2.335  12.760  11.193
68763SOL    HW1 8186   2.354  12.802  11.277
68763SOL    HW2 8187   2.387  12.680  11.194
68764SOL     OW 8188   7.449   3.332   5.007
68764SOL    HW1 8189   7.505   3.372   5.074
68764SOL    HW2 8190   7.362   3.367   5.024
68765SOL     OW 8191   5.240   4.723   4.355
68765SOL    HW1 8192   5.335   4.726   4.363
68765SOL    HW2 8193   5.223   4.655   4.290
68766SOL     OW 8194   4.210   3.586   9.157
68766SOL    HW1 8195   4.226   3.675   9.126
68766SOL    HW2 8196   4.168   3.542   9.082
68767SOL     OW 8197  14.446   6.891  12.638
68767SOL    HW1 8198  14.508   6.948  12.683
68767SOL    HW2 8199  14.368   6.891  12.693
68768SOL     OW 8200  12.851   9.726   1.591
68768SOL    HW1 8201  12.859   9.738   1.685
68768SOL    HW2 8202  12.935   9.756   1.556
68769SOL     OW 8203   5.159   6.415   5.135
68769SOL    HW1 8204   5.244   6.374   5.118
68769SOL    HW2 8205   5.181   6.508   5.149
68770SOL     OW 8206   6.652  10.078   5.443
68770SOL    HW1 8207   6.722  10.095   5.380
68770SOL    HW2 8208   6.624  10.165   5.472
68771SOL     OW 8209  13.162  12.087   0.144
68771SOL    HW1 8210  13.197  12.024   0.082
68771SOL    HW2 8211  13.082  12.046   0.178
68772SOL     OW 8212   0.751  13.389   2.692
68772SOL    HW1 8213   0.728  13.297   2.682
68772SOL    HW2 8214   0.822  13.389   2.756
68773SOL     OW 8215   9.584  12.206  11.753
68773SOL    HW1 8216   9.625  12.251  11.679
68773SOL    HW2 8217   9.612  12.115  11.744
68774SOL     OW 8218   5.497   8.640   9.496
68774SOL    HW1 8219   5.567   8.594   9.450
68774SOL    HW2 8220   5.439   8.571   9.527
68775SOL     OW 8221   0.183   6.884   8.308
68775SOL    HW1 8222   0.199   6.978   8.308
68775SOL    HW2 8223   0.270   6.844   8.314
68776SOL     OW 8224   3.980   1.335   0.310
68776SOL    HW1 8225   4.010   1.397   0.376
68776SOL    HW2 8226   3.951   1.390   0.237
68777SOL     OW 8227   4.226   3.294   7.844
68777SOL    HW1 8228   4.149   3.247   7.875
68777SOL    HW2 8229   4.295   3.271   7.906
68778SOL     OW 8230  14.359  10.454   0.393
68778SOL    HW1 8231  14.366  10.522   0.460
68778SOL    HW2 8232  14.312  10.495   0.321
68779SOL     OW 8233   1.628  11.200  10.538
68779SOL    HW1 8234   1.707  11.247  10.515
68779SOL    HW2 8235   1.569  11.267  10.573
68780SOL     OW 8236   1.078  10.212   5.401
68780SOL    HW1 8237   1.129  10.267   5.341
68780SOL    HW2 8238   1.049  10.138   5.347
68781SOL     OW 8239   4.975   7.262  14.787
68781SOL    HW1 8240   4.928   7.240  14.867
68781SOL    HW2 8241   4.910   7.252  14.717
68782SOL     OW 8242   0.135   4.773   3.248
68782SOL    HW1 8243   0.105   4.833   3.179
68782SOL    HW2 8244   0.124   4.686   3.210
68783SOL     OW 8245   2.905   4.870  14.384
68783SOL    HW1 8246   2.885   4.917  14.303
68783SOL    HW2 8247   2.967   4.802  14.356
68784SOL     OW 8248   9.901   5.386  11.045
68784SOL    HW1 8249   9.933   5.476  11.038
68784SOL    HW2 8250   9.962   5.343  11.105
68785SOL     OW 8251   1.942  10.024  12.936
68785SOL    HW1 8252   2.012  10.075  12.976
68785SOL    HW2 8253   1.868  10.032  12.997
68786SOL     OW 8254   8.273  13.025   3.824
68786SOL    HW1 8255   8.195  12.981   3.789
68786SOL    HW2 8256   8.268  13.114   3.787
68787SOL     OW 8257  13.358   4.685  14.829
68787SOL    HW1 8258  13.355   4.591  14.810
68787SOL    HW2 8259  13.414   4.693   0.026
68788SOL     OW 8260   9.530  14.729   0.507
68788SOL    HW1 8261   9.506  14.641   0.479
68788SOL    HW2 8262   9.472  14.787   0.458
68789SOL     OW 8263   7.738   5.985   9.703
68789SOL    HW1 8264   7.770   5.910   9.651
68789SOL    HW2 8265   7.817   6.024   9.740
68790SOL     OW 8266   7.399   6.650  10.800
68790SOL    HW1 8267   7.306   6.628  10.795
68790SOL    HW2 8268   7.427   6.621  10.886
68791SOL     OW 8269   1.772  12.686  12.660
68791SOL    HW1 8270   1.868  12.690  12.655
68791SOL    HW2 8271   1.755  12.636  12.740
68792SOL     OW 8272   9.629   2.700   1.823
68792SOL    HW1 8273   9.571   2.731   1.753
68792SOL    HW2 8274   9.702   2.762   1.823
68793SOL     OW 8275   7.921   4.745   9.949
68793SOL    HW1 8276   7.864   4.814   9.914
68793SOL    HW2 8277   7.863   4.693  10.004
68794SOL     OW 8278   7.386  14.716   5.679
68794SOL    HW1 8279   7.372  14.766   5.599
68794SOL    HW2 8280   7.332  14.760   5.745
68795SOL     OW 8281   9.857  13.177   0.864
68795SOL    HW1 8282   9.941  13.140   0.836
68795SOL    HW2 8283   9.804  13.102   0.888
68796SOL     OW 8284   3.049  11.267  14.313
68796SOL    HW1 8285   3.092  11.325  14.250
68796SOL    HW2 8286   3.118  11.242  14.374
68797SOL     OW 8287   1.439  13.799   0.710
68797SOL    HW1 8288   1.345  13.791   0.691
68797SOL    HW2 8289   1.481  13.746   0.642
68798SOL     OW 8290  14.645  13.274   8.776
68798SOL    HW1 8291  14.632  13.236   8.689
68798SOL    HW2 8292  14.654  13.368   8.760
68799SOL     OW 8293   4.867  13.445  14.177
68799SOL    HW1 8294   4.892  13.449  14.269
68799SOL    HW2 8295   4.798  13.379  14.173
68800SOL     OW 8296   2.192   9.278  13.374
68800SOL    HW1 8297   2.110   9.323  13.393
68800SOL    HW2 8298   2.223   9.247  13.459
68801SOL     OW 8299  12.409  10.654  10.297
68801SOL    HW1 8300  12.448  10.619  10.377
68801SOL    HW2 8301  12.337  10.710  10.328
68802SOL     OW 8302  10.718   7.478   9.431
68802SOL    HW1 8303  10.724   7.386   9.406
68802SOL    HW2 8304  10.676   7.520   9.356
68803SOL     OW 8305   6.842   1.933  14.622
68803SOL    HW1 8306   6.851   1.885  14.704
68803SOL    HW2 8307   6.901   1.889  14.562
68804SOL     OW 8308  10.541   0.696   7.544
68804SOL    HW1 8309  10.604   0.713   7.474
68804SOL    HW2 8310  10.473   0.643   7.502
68805SOL     OW 8311   7.695   0.147   7.927
68805SOL    HW1 8312   7.696   0.053   7.911
68805SOL    HW2 8313   7.631   0.181   7.865
68806SOL     OW 8314   7.536   7.593   4.627
68806SOL    HW1 8315   7.547   7.504   4.660
68806SOL    HW2 8316   7.451   7.621   4.660
68807SOL     OW 8317  10.393   2.458   4.080
68807SOL    HW1 8318  10.334   2.533   4.092
68807SOL    HW2 8319  10.444   2.454   4.161
68808SOL     OW 8320  11.040   6.046   0.954
68808SOL    HW1 8321  11.106   6.071   1.018
68808SOL    HW2 8322  10.980   6.121   0.952
68809SOL     OW 8323  10.253  13.962  11.413
68809SOL    HW1 8324  10.334  13.911  11.403
68809SOL    HW2 8325  10.283  14.053  11.413
68810SOL     OW 8326  13.594   6.728   2.971
68810SOL    HW1 8327  13.560   6.817   2.966
68810SOL    HW2 8328  13.653   6.721   2.896
68811SOL     OW 8329   3.740  12.646   0.526
68811SOL    HW1 8330   3.773  12.563   0.560
68811SOL    HW2 8331   3.778  12.653   0.439
68812SOL     OW 8332   6.781   9.935   3.467
68812SOL    HW1 8333   6.694   9.939   3.508
68812SOL    HW2 8334   6.788   9.845   3.435
68813SOL     OW 8335   0.884   8.864  10.115
68813SOL    HW1 8336   0.879   8.779  10.072
68813SOL    HW2 8337   0.949   8.913  10.064
68814SOL     OW 8338  14.310  13.583   3.498
68814SOL    HW1 8339  14.277  13.635   3.425
68814SOL    HW2 8340  14.381  13.635   3.535
68815SOL     OW 8341   2.243  13.599   8.819
68815SOL    HW1 8342   2.232  13.542   8.895
68815SOL    HW2 8343   2.284  13.543   8.753
68816SOL     OW 8344  14.508  14.005  14.210
68816SOL    HW1 8345  14.441  14.066  14.177
68816SOL    HW2 8346  14.577  14.062  14.245
68817SOL     OW 8347  14.013   5.961   4.114
68817SOL    HW1 8348  14.012   6.029   4.182
68817SOL    HW2 8349  13.945   5.899   4.141
68818SOL     OW 8350  13.622  12.697   1.605
68818SOL    HW1 8351  13.593  12.784   1.575
68818SOL    HW2 8352  13.653  12.712   1.694
68819SOL     OW 8353   7.582   0.915  11.244
68819SOL    HW1 8354   7.656   0.890  11.189
68819SOL    HW2 8355   7.621   0.965  11.316
68820SOL     OW 8356   6.548   4.214   2.980
68820SOL    HW1 8357   6.562   4.301   2.943
68820SOL    HW2 8358   6.498   4.229   3.060
68821SOL     OW 8359   1.765   1.448   6.374
68821SOL    HW1 8360   1.724   1.391   6.309
68821SOL    HW2 8361   1.748   1.537   6.344
68822SOL     OW 8362  14.183   6.243  12.905
68822SOL    HW1 8363  14.279   6.248  12.905
68822SOL    HW2 8364  14.162   6.186  12.979
68823SOL     OW 8365   2.158   8.055  10.585
68823SOL    HW1 8366   2.253   8.064  10.575
68823SOL    HW2 8367   2.137   8.111  10.659
68824SOL     OW 8368   3.226  11.062   2.784
68824SOL    HW1 8369   3.210  10.968   2.778
68824SOL    HW2 8370   3.268  11.085   2.701
68825SOL     OW 8371   3.036   0.021  13.938
68825SOL    HW1 8372   3.020   0.002  14.031
68825SOL    HW2 8373   2.973   0.090  13.917
68826SOL     OW 8374   6.717  12.326   3.370
68826SOL    HW1 8375   6.749  12.380   3.298
68826SOL    HW2 8376   6.762  12.242   3.360
68827SOL     OW 8377   8.002   9.221   5.625
68827SOL    HW1 8378   8.037   9.228   5.536
68827SOL    HW2 8379   8.056   9.155   5.668
68828SOL     OW 8380  10.375   0.465   0.386
68828SOL    HW1 8381  10.343   0.541   0.337
68828SOL    HW2 8382  10.463   0.490   0.415
68829SOL     OW 8383  10.815  13.260  13.610
68829SOL    HW1 8384  10.781  13.229  13.526
68829SOL    HW2 8385  10.881  13.196  13.635
68830SOL     OW 8386  14.554   1.989  11.381
68830SOL    HW1 8387  14.468   2.015  11.413
68830SOL    HW2 8388  14.614   2.014  11.451
68831SOL     OW 8389   4.939   2.762   2.369
68831SOL    HW1 8390   4.978   2.705   2.435
68831SOL    HW2 8391   4.969   2.726   2.285
68832SOL     OW 8392   2.810   2.125  13.052
68832SOL    HW1 8393   2.810   2.095  13.143
68832SOL    HW2 8394   2.732   2.181  13.046
68833SOL     OW 8395   2.637   7.734  11.629
68833SOL    HW1 8396   2.575   7.717  11.558
68833SOL    HW2 8397   2.723   7.721  11.589
68834SOL     OW 8398  10.047   2.957   6.605
68834SOL    HW1 8399  10.135   2.923   6.622
68834SOL    HW2 8400  10.027   3.008   6.683
68835SOL     OW 8401  13.604   9.236   4.153
68835SOL    HW1 8402  13.530   9.181   4.179
68835SOL    HW2 8403  13.633   9.278   4.235
68836SOL     OW 8404  12.587  10.364  11.307
68836SOL    HW1 8405  12.510  10.338  11.358
68836SOL    HW2 8406  12.551  10.386  11.221
68837SOL     OW 8407   2.959   5.358  13.367
68837SOL    HW1 8408   2.916   5.441  13.389
68837SOL    HW2 8409   3.010   5.378  13.289
68838SOL     OW 8410   9.207   1.598   6.675
68838SOL    HW1 8411   9.241   1.684   6.650
68838SOL    HW2 8412   9.121   1.615   6.712
68839SOL     OW 8413   2.740   4.129   2.063
68839SOL    HW1 8414   2.788   4.128   1.980
68839SOL    HW2 8415   2.662   4.182   2.045
68840SOL     OW 8416  13.276   2.748   5.300
68840SOL    HW1 8417  13.232   2.777   5.380
68840SOL    HW2 8418  13.313   2.663   5.323
68841SOL     OW 8419   1.590   7.597   2.687
68841SOL    HW1 8420   1.576   7.692   2.691
68841SOL    HW2 8421   1.683   7.585   2.708
68842SOL     OW 8422   1.219   2.923   8.966
68842SOL    HW1 8423   1.295   2.955   8.918
68842SOL    HW2 8424   1.186   3.000   9.013
68843SOL     OW 8425   8.393   8.949   2.205
68843SOL    HW1 8426   8.445   8.898   2.268
68843SOL    HW2 8427   8.390   8.894   2.127
68844SOL     OW 8428  13.201   2.251  13.043
68844SOL    HW1 8429  13.257   2.294  12.978
68844SOL    HW2 8430  13.232   2.285  13.127
68845SOL     OW 8431   1.575   9.318  10.379
68845SOL    HW1 8432   1.580   9.259  10.303
68845SOL    HW2 8433   1.550   9.262  10.452
68846SOL     OW 8434   4.120   6.484  10.823
68846SOL    HW1 8435   4.207   6.524  10.818
68846SOL    HW2 8436   4.117   6.442  10.909
68847SOL     OW 8437  14.492   3.266   7.060
68847SOL    HW1 8438  14.415   3.238   7.010
68847SOL    HW2 8439  14.468   3.250   7.151
68848SOL     OW 8440  13.456   1.354   1.414
68848SOL    HW1 8441  13.520   1.303   1.464
68848SOL    HW2 8442  13.381   1.363   1.473
68849SOL     OW 8443  10.934   6.041   2.785
68849SOL    HW1 8444  10.887   5.978   2.728
68849SOL    HW2 8445  10.965   5.988   2.858
68850SOL     OW 8446   4.861   0.506  12.683
68850SOL    HW1 8447   4.783   0.482  12.632
68850SOL    HW2 8448   4.831   0.503  12.774
68851SOL     OW 8449  11.973   1.289   6.694
68851SOL    HW1 8450  11.963   1.356   6.627
68851SOL    HW2 8451  11.891   1.240   6.692
68852SOL     OW 8452  11.959   6.734  11.092
68852SOL    HW1 8453  11.918   6.669  11.150
68852SOL    HW2 8454  12.041   6.756  11.135
68853SOL     OW 8455   0.139   8.611  14.297
68853SOL    HW1 8456   0.118   8.519  14.311
68853SOL    HW2 8457   0.055   8.656  14.302
68854SOL     OW 8458   2.778   5.318   5.848
68854SOL    HW1 8459   2.755   5.273   5.767
68854SOL    HW2 8460   2.874   5.325   5.844
68855SOL     OW 8461   7.430   7.258  12.559
68855SOL    HW1 8462   7.403   7.167  12.550
68855SOL    HW2 8463   7.460   7.265  12.650
68856SOL     OW 8464  11.807   2.710   1.871
68856SOL    HW1 8465  11.881   2.742   1.820
68856SOL    HW2 8466  11.831   2.621   1.896
68857SOL     OW 8467   7.967  14.599   5.420
68857SOL    HW1 8468   7.916  14.657   5.364
68857SOL    HW2 8469   7.905  14.567   5.485
68858SOL     OW 8470  14.281  12.351   0.316
68858SOL    HW1 8471  14.203  12.352   0.372
68858SOL    HW2 8472  14.307  12.259   0.313
68859SOL     OW 8473   1.594   5.746  13.676
68859SOL    HW1 8474   1.635   5.747  13.762
68859SOL    HW2 8475   1.505   5.713  13.692
68860SOL     OW 8476   1.690   5.067   3.672
68860SOL    HW1 8477   1.766   5.058   3.614
68860SOL    HW2 8478   1.619   5.022   3.627
68861SOL     OW 8479   4.395   5.840   6.114
68861SOL    HW1 8480   4.380   5.934   6.099
68861SOL    HW2 8481   4.311   5.799   6.091
68862SOL     OW 8482   7.843   8.249   6.218
68862SOL    HW1 8483   7.866   8.305   6.144
68862SOL    HW2 8484   7.884   8.291   6.294
68863SOL     OW 8485   7.330   4.826   2.840
68863SOL    HW1 8486   7.270   4.824   2.766
68863SOL    HW2 8487   7.392   4.896   2.818
68864SOL     OW 8488   1.327   3.533  13.018
68864SOL    HW1 8489   1.339   3.599  12.949
68864SOL    HW2 8490   1.240   3.498  13.003
68865SOL     OW 8491   8.360   4.128  10.906
68865SOL    HW1 8492   8.402   4.131  10.820
68865SOL    HW2 8493   8.281   4.181  10.897
68866SOL     OW 8494  10.715   3.672   3.840
68866SOL    HW1 8495  10.729   3.725   3.918
68866SOL    HW2 8496  10.753   3.587   3.861
68867SOL     OW 8497   6.081   5.779   2.096
68867SOL    HW1 8498   6.082   5.753   2.004
68867SOL    HW2 8499   6.047   5.703   2.143
68868SOL     OW 8500   1.672   0.520   8.298
68868SOL    HW1 8501   1.637   0.493   8.383
68868SOL    HW2 8502   1.707   0.439   8.260
68869SOL     OW 8503  13.611   9.058  12.847
68869SOL    HW1 8504  13.681   9.062  12.912
68869SOL    HW2 8505  13.656   9.044  12.764
68870SOL     OW 8506   4.508  13.632   1.656
68870SOL    HW1 8507   4.562  13.660   1.730
68870SOL    HW2 8508   4.496  13.711   1.603
68871SOL     OW 8509   5.577   8.305   0.743
68871SOL    HW1 8510   5.522   8.349   0.679
68871SOL    HW2 8511   5.664   8.345   0.732
68872SOL     OW 8512  12.129  13.888   8.449
68872SOL    HW1 8513  12.070  13.818   8.475
68872SOL    HW2 8514  12.116  13.896   8.354
68873SOL     OW 8515   5.393  14.203  11.891
68873SOL    HW1 8516   5.306  14.194  11.931
68873SOL    HW2 8517   5.436  14.271  11.944
68874SOL     OW 8518   3.475   6.032   5.323
68874SOL    HW1 8519   3.496   6.116   5.364
68874SOL    HW2 8520   3.544   6.019   5.258
68875SOL     OW 8521   9.753  13.668   9.870
68875SOL    HW1 8522   9.750  13.745   9.926
68875SOL    HW2 8523   9.674  13.619   9.891
68876SOL     OW 8524   1.409  13.844   2.940
68876SOL    HW1 8525   1.329  13.804   2.906
68876SOL    HW2 8526   1.381  13.932   2.967
68877SOL     OW 8527   5.125  11.361   2.272
68877SOL    HW1 8528   5.122  11.269   2.246
68877SOL    HW2 8529   5.185  11.363   2.346
68878SOL     OW 8530  10.112   2.895  12.282
68878SOL    HW1 8531  10.081   2.815  12.239
68878SOL    HW2 8532  10.206   2.880  12.296
68879SOL     OW 8533   3.712   7.255   0.443
68879SOL    HW1 8534   3.669   7.323   0.495
68879SOL    HW2 8535   3.802   7.254   0.475
68880SOL     OW 8536   3.470  14.442   8.021
68880SOL    HW1 8537   3.519  14.423   8.101
68880SOL    HW2 8538   3.380  14.456   8.050
68881SOL     OW 8539   7.424  11.156   7.966
68881SOL    HW1 8540   7.416  11.219   7.895
68881SOL    HW2 8541   7.334  11.128   7.984
68882SOL     OW 8542  10.308   8.507  13.076
68882SOL    HW1 8543  10.289   8.593  13.038
68882SOL    HW2 8544  10.345   8.457  13.003
68883SOL     OW 8545   4.423  13.445   1.871
68883SOL    HW1 8546   4.447  13.503   1.799
68883SOL    HW2 8547   4.443  13.357   1.839
68884SOL     OW 8548  10.997  13.203   4.415
68884SOL    HW1 8549  10.947  13.272   4.458
68884SOL    HW2 8550  11.051  13.249   4.351
68885SOL     OW 8551  12.023   4.438   8.331
68885SOL    HW1 8552  12.030   4.397   8.418
68885SOL    HW2 8553  12.110   4.427   8.293
68886SOL     OW 8554  11.136  13.657   1.921
68886SOL    HW1 8555  11.043  13.632   1.926
68886SOL    HW2 8556  11.183  13.574   1.918
68887SOL     OW 8557  10.814  13.306   1.881
68887SOL    HW1 8558  10.886  13.335   1.937
68887SOL    HW2 8559  10.851  13.306   1.793
68888SOL     OW 8560  11.901  11.093   0.696
68888SOL    HW1 8561  11.820  11.076   0.647
68888SOL    HW2 8562  11.962  11.027   0.665
68889SOL     OW 8563   6.482   1.542   7.305
68889SOL    HW1 8564   6.445   1.465   7.262
68889SOL    HW2 8565   6.421   1.613   7.283
68890SOL     OW 8566   9.444   5.402   2.424
68890SOL    HW1 8567   9.532   5.364   2.430
68890SOL    HW2 8568   9.391   5.347   2.482
68891SOL     OW 8569  13.358   8.899  11.353
68891SOL    HW1 8570  13.276   8.915  11.306
68891SOL    HW2 8571  13.423   8.884  11.284
68892SOL     OW 8572   7.462   1.306   4.030
68892SOL    HW1 8573   7.446   1.350   4.114
68892SOL    HW2 8574   7.535   1.354   3.991
68893SOL     OW 8575   6.093   3.730   2.739
68893SOL    HW1 8576   6.111   3.801   2.677
68893SOL    HW2 8577   6.095   3.651   2.686
68894SOL     OW 8578   3.244  12.067   8.245
68894SOL    HW1 8579   3.187  12.044   8.171
68894SOL    HW2 8580   3.260  11.984   8.290
68895SOL     OW 8581   9.166  14.663   3.732
68895SOL    HW1 8582   9.193  14.599   3.798
68895SOL    HW2 8583   9.246  14.686   3.687
68896SOL     OW 8584   4.181  12.607   1.757
68896SOL    HW1 8585   4.133  12.689   1.766
68896SOL    HW2 8586   4.228  12.615   1.675
68897SOL     OW 8587  12.985  13.450   3.338
68897SOL    HW1 8588  12.952  13.366   3.307
68897SOL    HW2 8589  13.046  13.428   3.408
68898SOL     OW 8590   8.276   2.598   6.178
68898SOL    HW1 8591   8.294   2.590   6.085
68898SOL    HW2 8592   8.358   2.576   6.221
68899SOL     OW 8593   3.673   1.365   0.625
68899SOL    HW1 8594   3.757   1.345   0.666
68899SOL    HW2 8595   3.647   1.284   0.582
68900SOL     OW 8596   4.246  10.298   6.187
68900SOL    HW1 8597   4.297  10.379   6.184
68900SOL    HW2 8598   4.155  10.327   6.180
68901SOL     OW 8599   8.395   7.846  12.438
68901SOL    HW1 8600   8.403   7.895  12.356
68901SOL    HW2 8601   8.476   7.865  12.486
68902SOL     OW 8602   0.720   2.667  13.982
68902SOL    HW1 8603   0.649   2.652  13.920
68902SOL    HW2 8604   0.677   2.684  14.065
68903SOL     OW 8605  13.312  14.414   5.522
68903SOL    HW1 8606  13.237  14.374   5.566
68903SOL    HW2 8607  13.316  14.371   5.437
68904SOL     OW 8608  11.922  14.272   9.661
68904SOL    HW1 8609  11.861  14.293   9.589
68904SOL    HW2 8610  11.984  14.211   9.622
68905SOL     OW 8611   0.277  11.722   8.503
68905SOL    HW1 8612   0.247  11.790   8.443
68905SOL    HW2 8613   0.363  11.695   8.468
68906SOL     OW 8614   8.127  11.366   4.931
68906SOL    HW1 8615   8.033  11.365   4.913
68906SOL    HW2 8616   8.133  11.344   5.024
68907SOL     OW 8617   8.216   9.147   0.593
68907SOL    HW1 8618   8.121   9.153   0.578
68907SOL    HW2 8619   8.235   9.218   0.653
68908SOL     OW 8620   7.314  11.093  14.880
68908SOL    HW1 8621   7.285  11.182   0.020
68908SOL    HW2 8622   7.241  11.055  14.831
68909SOL     OW 8623   2.342  14.876   9.278
68909SOL    HW1 8624   2.268   0.015   9.220
68909SOL    HW2 8625   2.317   0.035   9.362
68910SOL     OW 8626  11.286   9.870   9.896
68910SOL    HW1 8627  11.271   9.794   9.952
68910SOL    HW2 8628  11.252   9.944   9.946
68911SOL     OW 8629  12.120   8.281   1.857
68911SOL    HW1 8630  12.207   8.265   1.894
68911SOL    HW2 8631  12.136   8.294   1.764
68912SOL     OW 8632  10.165   5.986   7.234
68912SOL    HW1 8633  10.117   5.961   7.155
68912SOL    HW2 8634  10.235   5.921   7.241
68913SOL     OW 8635  13.856   1.219   2.959
68913SOL    HW1 8636  13.860   1.153   3.029
68913SOL    HW2 8637  13.779   1.195   2.908
68914SOL     OW 8638  14.626   7.747  13.101
68914SOL    HW1 8639  14.687   7.735  13.029
68914SOL    HW2 8640  14.548   7.787  13.062
68915SOL     OW 8641   8.486   3.318   0.949
68915SOL    HW1 8642   8.447   3.378   1.012
68915SOL    HW2 8643   8.430   3.241   0.951
68916SOL     OW 8644   2.887  10.502   1.541
68916SOL    HW1 8645   2.922  10.441   1.476
68916SOL    HW2 8646   2.831  10.448   1.597
68917SOL     OW 8647  10.548   0.604   6.113
68917SOL    HW1 8648  10.462   0.596   6.073
68917SOL    HW2 8649  10.606   0.553   6.057
68918SOL     OW 8650   2.164   9.971   4.990
68918SOL    HW1 8651   2.177   9.877   4.977
68918SOL    HW2 8652   2.069   9.983   4.986
68919SOL     OW 8653   6.073  13.601  13.842
68919SOL    HW1 8654   6.109  13.547  13.912
68919SOL    HW2 8655   6.028  13.672  13.887
68920SOL     OW 8656   5.544  12.039   7.253
68920SOL    HW1 8657   5.631  12.074   7.234
68920SOL    HW2 8658   5.552  11.945   7.237
68921SOL     OW 8659   8.426  11.804   3.820
68921SOL    HW1 8660   8.369  11.797   3.897
68921SOL    HW2 8661   8.495  11.740   3.836
68922SOL     OW 8662   3.463   2.333   4.178
68922SOL    HW1 8663   3.399   2.262   4.184
68922SOL    HW2 8664   3.544   2.295   4.211
68923SOL     OW 8665   3.902   1.025   5.597
68923SOL    HW1 8666   3.946   0.944   5.573
68923SOL    HW2 8667   3.923   1.087   5.527
68924SOL     OW 8668  14.836   2.702  10.787
68924SOL    HW1 8669  14.745   2.672  10.785
68924SOL    HW2 8670  14.830   2.796  10.801
68925SOL     OW 8671   8.093   0.570   2.707
68925SOL    HW1 8672   8.058   0.558   2.619
68925SOL    HW2 8673   8.132   0.486   2.730
68926SOL     OW 8674   4.812   1.275  11.845
68926SOL    HW1 8675   4.804   1.239  11.933
68926SOL    HW2 8676   4.906   1.275  11.828
68927SOL     OW 8677   3.982   9.653   6.823
68927SOL    HW1 8678   3.889   9.635   6.834
68927SOL    HW2 8679   4.022   9.622   6.905
68928SOL     OW 8680  12.198  10.105   1.038
68928SOL    HW1 8681  12.185  10.036   1.102
68928SOL    HW2 8682  12.127  10.094   0.975
68929SOL     OW 8683   4.981  10.076   1.670
68929SOL    HW1 8684   4.941  10.079   1.757
68929SOL    HW2 8685   4.925  10.133   1.616
68930SOL     OW 8686  13.219   3.277   0.710
68930SOL    HW1 8687  13.208   3.308   0.800
68930SOL    HW2 8688  13.304   3.233   0.710
68931SOL     OW 8689  10.677   8.676  11.681
68931SOL    HW1 8690  10.761   8.719  11.670
68931SOL    HW2 8691  10.615   8.729  11.631
68932SOL     OW 8692   3.637   8.962   0.385
68932SOL    HW1 8693   3.585   8.997   0.457
68932SOL    HW2 8694   3.635   9.030   0.318
68933SOL     OW 8695   9.001  11.221  14.184
68933SOL    HW1 8696   9.090  11.214  14.218
68933SOL    HW2 8697   9.007  11.189  14.094
68934SOL     OW 8698   3.879   9.025  10.678
68934SOL    HW1 8699   3.954   8.971  10.656
68934SOL    HW2 8700   3.831   9.034  10.596
68935SOL     OW 8701   8.012   7.800   8.620
68935SOL    HW1 8702   8.064   7.798   8.539
68935SOL    HW2 8703   7.940   7.739   8.603
68936SOL     OW 8704   3.828   7.960  14.214
68936SOL    HW1 8705   3.786   7.935  14.296
68936SOL    HW2 8706   3.898   8.020  14.240
68937SOL     OW 8707  14.516   7.663  11.804
68937SOL    HW1 8708  14.592   7.705  11.844
68937SOL    HW2 8709  14.549   7.626  11.722
68938SOL     OW 8710  10.168  11.540  12.584
68938SOL    HW1 8711  10.184  11.633  12.601
68938SOL    HW2 8712  10.083  11.539  12.540
68939SOL     OW 8713  13.383   9.900   5.645
68939SOL    HW1 8714  13.370   9.912   5.551
68939SOL    HW2 8715  13.478   9.906   5.657
68940SOL     OW 8716   9.477   8.899   7.338
68940SOL    HW1 8717   9.408   8.835   7.355
68940SOL    HW2 8718   9.558   8.847   7.334
68941SOL     OW 8719  14.506  11.205   8.028
68941SOL    HW1 8720  14.571  11.151   8.073
68941SOL    HW2 8721  14.485  11.155   7.949
68942SOL     OW 8722   5.692   0.549   9.991
68942SOL    HW1 8723   5.689   0.499  10.073
68942SOL    HW2 8724   5.647   0.631  10.011
68943SOL     OW 8725  11.455   1.720  13.587
68943SOL    HW1 8726  11.479   1.627  13.597
68943SOL    HW2 8727  11.421   1.745  13.673
68944SOL     OW 8728   5.910  12.706   4.304
68944SOL    HW1 8729   6.001  12.694   4.329
68944SOL    HW2 8730   5.882  12.784   4.351
68945SOL     OW 8731  11.990   4.375  13.696
68945SOL    HW1 8732  12.045   4.399  13.771
68945SOL    HW2 8733  11.907   4.349  13.735
68946SOL     OW 8734  11.254  14.764   7.948
68946SOL    HW1 8735  11.254  14.855   7.915
68946SOL    HW2 8736  11.345  14.750   7.976
68947SOL     OW 8737  14.258   0.695   4.148
68947SOL    HW1 8738  14.163   0.691   4.160
68947SOL    HW2 8739  14.271   0.760   4.079
68948SOL     OW 8740   3.184   6.138   6.214
68948SOL    HW1 8741   3.108   6.121   6.269
68948SOL    HW2 8742   3.149   6.180   6.136
68949SOL     OW 8743   4.911   2.601   6.019
68949SOL    HW1 8744   4.822   2.570   5.999
68949SOL    HW2 8745   4.899   2.691   6.047
68950SOL     OW 8746  12.452  13.297  14.009
68950SOL    HW1 8747  12.509  13.221  14.021
68950SOL    HW2 8748  12.412  13.310  14.095
68951SOL     OW 8749   5.414   6.109   0.275
68951SOL    HW1 8750   5.391   6.108   0.183
68951SOL    HW2 8751   5.363   6.037   0.313
68952SOL     OW 8752   7.841  12.280  11.558
68952SOL    HW1 8753   7.807  12.347  11.617
68952SOL    HW2 8754   7.836  12.198  11.608
68953SOL     OW 8755  13.397   8.040   8.709
68953SOL    HW1 8756  13.478   8.081   8.739
68953SOL    HW2 8757  13.421   8.000   8.625
68954SOL     OW 8758  14.788   3.124   9.729
68954SOL    HW1 8759  14.735   3.126   9.808
68954SOL    HW2 8760  14.832   3.209   9.727
68955SOL     OW 8761   8.372  11.269   3.870
68955SOL    HW1 8762   8.399  11.206   3.803
68955SOL    HW2 8763   8.345  11.346   3.820
68956SOL     OW 8764   4.778   4.443   2.075
68956SOL    HW1 8765   4.751   4.535   2.082
68956SOL    HW2 8766   4.865   4.440   2.116
68957SOL     OW 8767   7.041   9.923   9.295
68957SOL    HW1 8768   7.096   9.900   9.220
68957SOL    HW2 8769   7.084   9.999   9.334
68958SOL     OW 8770   0.996  13.594  14.252
68958SOL    HW1 8771   1.022  13.615  14.162
68958SOL    HW2 8772   0.909  13.555  14.243
68959SOL     OW 8773   6.712   0.223   6.961
68959SOL    HW1 8774   6.619   0.212   6.977
68959SOL    HW2 8775   6.748   0.250   7.045
68960SOL     OW 8776   7.313  11.593   1.762
68960SOL    HW1 8777   7.404  11.620   1.776
68960SOL    HW2 8778   7.263  11.648   1.822
68961SOL     OW 8779   2.006   6.872   0.666
68961SOL    HW1 8780   2.083   6.884   0.611
68961SOL    HW2 8781   1.934   6.909   0.615
68962SOL     OW 8782   7.102   2.748   9.885
68962SOL    HW1 8783   7.161   2.723   9.957
68962SOL    HW2 8784   7.135   2.699   9.809
68963SOL     OW 8785   8.850   7.748   8.557
68963SOL    HW1 8786   8.871   7.688   8.486
68963SOL    HW2 8787   8.866   7.835   8.520
68964SOL     OW 8788   3.485   9.171   1.564
68964SOL    HW1 8789   3.491   9.105   1.495
68964SOL    HW2 8790   3.449   9.123   1.639
68965SOL     OW 8791   8.642  11.439   0.408
68965SOL    HW1 8792   8.732  11.414   0.432
68965SOL    HW2 8793   8.601  11.461   0.491
68966SOL     OW 8794  12.819  13.691   4.009
68966SOL    HW1 8795  12.815  13.773   4.058
68966SOL    HW2 8796  12.882  13.707   3.939
68967SOL     OW 8797   1.439   3.179   1.383
68967SOL    HW1 8798   1.379   3.176   1.308
68967SOL    HW2 8799   1.500   3.250   1.362
68968SOL     OW 8800   1.505   6.945   1.307
68968SOL    HW1 8801   1.588   6.971   1.347
68968SOL    HW2 8802   1.523   6.861   1.266
68969SOL     OW 8803  10.647   8.969  11.900
68969SOL    HW1 8804  10.693   8.889  11.926
68969SOL    HW2 8805  10.669   8.979  11.807
68970SOL     OW 8806   0.282   8.552   6.139
68970SOL    HW1 8807   0.288   8.475   6.196
68970SOL    HW2 8808   0.228   8.613   6.188
68971SOL     OW 8809  13.039   2.670  11.016
68971SOL    HW1 8810  13.014   2.676  11.108
68971SOL    HW2 8811  13.134   2.667  11.016
68972SOL     OW 8812  12.759   5.622   9.858
68972SOL    HW1 8813  12.664   5.606   9.861
68972SOL    HW2 8814  12.787   5.617   9.949
68973SOL     OW 8815   2.898   6.756   2.982
68973SOL    HW1 8816   2.923   6.675   2.937
68973SOL    HW2 8817   2.974   6.813   2.972
68974SOL     OW 8818   0.138   2.710   0.817
68974SOL    HW1 8819   0.156   2.655   0.894
68974SOL    HW2 8820   0.212   2.770   0.814
68975SOL     OW 8821   1.707  13.502  13.252
68975SOL    HW1 8822   1.762  13.491  13.175
68975SOL    HW2 8823   1.642  13.432  13.244
68976SOL     OW 8824   8.180   9.855   9.654
68976SOL    HW1 8825   8.086   9.876   9.661
68976SOL    HW2 8826   8.224   9.939   9.666
68977SOL     OW 8827   5.173  10.803  11.161
68977SOL    HW1 8828   5.118  10.784  11.236
68977SOL    HW2 8829   5.160  10.897  11.144
68978SOL     OW 8830   5.011   4.413   0.854
68978SOL    HW1 8831   4.972   4.382   0.773
68978SOL    HW2 8832   4.973   4.499   0.868
68979SOL     OW 8833   4.825   5.668  10.237
68979SOL    HW1 8834   4.807   5.682  10.330
68979SOL    HW2 8835   4.747   5.624  10.204
68980SOL     OW 8836   2.773  12.000  13.971
68980SOL    HW1 8837   2.712  11.930  13.948
68980SOL    HW2 8838   2.775  12.056  13.893
68981SOL     OW 8839  11.961  12.033   0.813
68981SOL    HW1 8840  12.033  12.034   0.876
68981SOL    HW2 8841  11.920  11.947   0.824
68982SOL     OW 8842   4.098   5.419   7.797
68982SOL    HW1 8843   4.085   5.335   7.753
68982SOL    HW2 8844   4.105   5.396   7.890
68983SOL     OW 8845  13.956   7.734   8.354
68983SOL    HW1 8846  14.047   7.722   8.382
68983SOL    HW2 8847  13.931   7.649   8.316
68984SOL     OW 8848   1.936   4.120  10.158
68984SOL    HW1 8849   2.008   4.109  10.221
68984SOL    HW2 8850   1.942   4.044  10.101
68985SOL     OW 8851   7.183   6.723   0.093
68985SOL    HW1 8852   7.118   6.746   0.026
68985SOL    HW2 8853   7.243   6.662   0.050
68986SOL     OW 8854   2.981   0.889  13.911
68986SOL    HW1 8855   3.055   0.920  13.964
68986SOL    HW2 8856   2.904   0.908  13.965
68987SOL     OW 8857  11.816  13.479   4.415
68987SOL    HW1 8858  11.912  13.481   4.407
68987SOL    HW2 8859  11.798  13.520   4.500
68988SOL     OW 8860   1.779   5.609   5.238
68988SOL    HW1 8861   1.697   5.586   5.195
68988SOL    HW2 8862   1.826   5.526   5.248
68989SOL     OW 8863  14.613   9.371   7.278
68989SOL    HW1 8864  14.524   9.404   7.283
68989SOL    HW2 8865  14.660   9.436   7.226
68990SOL     OW 8866  11.068   8.845   2.201
68990SOL    HW1 8867  11.146   8.796   2.229
68990SOL    HW2 8868  11.001   8.821   2.265
68991SOL     OW 8869  10.000   8.608  13.431
68991SOL    HW1 8870  10.079   8.555  13.421
68991SOL    HW2 8871   9.992   8.622  13.525
68992SOL     OW 8872   2.303  13.361   6.597
68992SOL    HW1 8873   2.279  13.452   6.580
68992SOL    HW2 8874   2.297  13.319   6.511
68993SOL     OW 8875   1.925   3.903  14.150
68993SOL    HW1 8876   1.937   3.875  14.241
68993SOL    HW2 8877   1.926   3.821  14.100
68994SOL     OW 8878  11.274   8.371   3.328
68994SOL    HW1 8879  11.234   8.458   3.329
68994SOL    HW2 8880  11.364   8.386   3.357
68995SOL     OW 8881   9.274   1.981   2.624
68995SOL    HW1 8882   9.219   2.051   2.587
68995SOL    HW2 8883   9.228   1.900   2.603
68996SOL     OW 8884  12.878   4.298   9.826
68996SOL    HW1 8885  12.881   4.320   9.733
68996SOL    HW2 8886  12.808   4.233   9.833
68997SOL     OW 8887   6.963  13.743   7.451
68997SOL    HW1 8888   7.020  13.820   7.442
68997SOL    HW2 8889   6.880  13.770   7.412
68998SOL     OW 8890  13.465  12.076   6.736
68998SOL    HW1 8891  13.412  12.080   6.815
68998SOL    HW2 8892  13.439  11.994   6.693
68999SOL     OW 8893   5.983  14.268   2.803
68999SOL    HW1 8894   5.965  14.265   2.709
68999SOL    HW2 8895   5.910  14.221   2.843
69000SOL     OW 8896  13.625  12.852   6.104
69000SOL    HW1 8897  13.659  12.817   6.022
69000SOL    HW2 8898  13.541  12.892   6.080
69001SOL     OW 8899   6.840  13.229  14.247
69001SOL    HW1 8900   6.807  13.173  14.176
69001SOL    HW2 8901   6.856  13.313  14.204
69002SOL     OW 8902   7.192  13.909   7.459
69002SOL    HW1 8903   7.177  14.003   7.461
69002SOL    HW2 8904   7.287  13.899   7.463
69003SOL     OW 8905   0.940   0.788  11.198
69003SOL    HW1 8906   0.937   0.846  11.121
69003SOL    HW2 8907   0.998   0.834  11.259
69004SOL     OW 8908  13.584   2.540   2.276
69004SOL    HW1 8909  13.572   2.599   2.202
69004SOL    HW2 8910  13.637   2.468   2.240
69005SOL     OW 8911   1.854   8.098   8.990
69005SOL    HW1 8912   1.843   8.047   8.910
69005SOL    HW2 8913   1.949   8.106   9.000
69006SOL     OW 8914   4.539   1.650   4.823
69006SOL    HW1 8915   4.564   1.605   4.742
69006SOL    HW2 8916   4.557   1.742   4.806
69007SOL     OW 8917  10.756   0.604   0.821
69007SOL    HW1 8918  10.739   0.522   0.774
69007SOL    HW2 8919  10.837   0.637   0.782
69008SOL     OW 8920   2.476   0.094   9.547
69008SOL    HW1 8921   2.517   0.171   9.507
69008SOL    HW2 8922   2.539   0.023   9.534
69009SOL     OW 8923  13.134   1.025   1.580
69009SOL    HW1 8924  13.096   1.104   1.542
69009SOL    HW2 8925  13.061   0.983   1.626
69010SOL     OW 8926   4.877  12.304   3.925
69010SOL    HW1 8927   4.872  12.389   3.970
69010SOL    HW2 8928   4.863  12.239   3.994
69011SOL     OW 8929   8.381  11.456   9.526
69011SOL    HW1 8930   8.447  11.455   9.596
69011SOL    HW2 8931   8.298  11.441   9.570
69012SOL     OW 8932  10.002   0.724   5.990
69012SOL    HW1 8933   9.932   0.674   5.948
69012SOL    HW2 8934  10.080   0.704   5.938
69013SOL     OW 8935   4.412   3.019  13.770
69013SOL    HW1 8936   4.472   3.058  13.708
69013SOL    HW2 8937   4.325   3.037  13.734
69014SOL     OW 8938   7.665  13.957  10.520
69014SOL    HW1 8939   7.609  13.917  10.586
69014SOL    HW2 8940   7.610  14.026  10.482
69015SOL     OW 8941   8.266   2.397  14.567
69015SOL    HW1 8942   8.240   2.421  14.656
69015SOL    HW2 8943   8.219   2.459  14.511
69016SOL     OW 8944   3.984  13.582  11.057
69016SOL    HW1 8945   4.003  13.578  11.151
69016SOL    HW2 8946   4.070  13.580  11.015
69017SOL     OW 8947   8.038   9.621   8.684
69017SOL    HW1 8948   8.093   9.560   8.734
69017SOL    HW2 8949   8.100   9.676   8.636
69018SOL     OW 8950   4.910   1.991  10.924
69018SOL    HW1 8951   4.976   2.055  10.899
69018SOL    HW2 8952   4.913   1.925  10.855
69019SOL     OW 8953  10.287   9.740   6.412
69019SOL    HW1 8954  10.209   9.684   6.407
69019SOL    HW2 8955  10.344   9.697   6.476
69020SOL     OW 8956  13.301  11.852   2.539
69020SOL    HW1 8957  13.341  11.852   2.452
69020SOL    HW2 8958  13.237  11.923   2.535
69021SOL     OW 8959  11.071  14.102   7.710
69021SOL    HW1 8960  11.032  14.160   7.775
69021SOL    HW2 8961  10.997  14.056   7.671
69022SOL     OW 8962  10.642   6.795  10.108
69022SOL    HW1 8963  10.725   6.827  10.143
69022SOL    HW2 8964  10.654   6.700  10.100
69023SOL     OW 8965   1.013   9.014   9.163
69023SOL    HW1 8966   1.056   8.943   9.116
69023SOL    HW2 8967   1.029   8.995   9.255
69024SOL     OW 8968   3.152   3.772  11.198
69024SOL    HW1 8969   3.231   3.724  11.172
69024SOL    HW2 8970   3.177   3.864  11.191
69025SOL     OW 8971   5.548   8.439  10.615
69025SOL    HW1 8972   5.632   8.484  10.625
69025SOL    HW2 8973   5.567   8.347  10.632
69026SOL     OW 8974   2.777   4.129  13.703
69026SOL    HW1 8975   2.834   4.129  13.780
69026SOL    HW2 8976   2.734   4.044  13.705
69027SOL     OW 8977   6.214   6.565  10.538
69027SOL    HW1 8978   6.276   6.564  10.466
69027SOL    HW2 8979   6.129   6.553  10.497
69028SOL     OW 8980   6.006   8.243   8.963
69028SOL    HW1 8981   6.031   8.216   9.051
69028SOL    HW2 8982   5.993   8.161   8.915
69029SOL     OW 8983  13.926   7.740  14.171
69029SOL    HW1 8984  13.869   7.817  14.165
69029SOL    HW2 8985  13.882   7.683  14.234
69030SOL     OW 8986   1.887   8.281   0.279
69030SOL    HW1 8987   1.936   8.301   0.359
69030SOL    HW2 8988   1.797   8.307   0.299
69031SOL     OW 8989   9.791   8.548  12.120
69031SOL    HW1 8990   9.701   8.520  12.135
69031SOL    HW2 8991   9.792   8.580  12.030
69032SOL     OW 8992   4.703   9.488  10.123
69032SOL    HW1 8993   4.729   9.549  10.192
69032SOL    HW2 8994   4.765   9.416  10.129
69033SOL     OW 8995   5.849   5.118  10.859
69033SOL    HW1 8996   5.776   5.067  10.824
69033SOL    HW2 8997   5.889   5.158  10.782
69034SOL     OW 8998   0.473  10.815   8.794
69034SOL    HW1 8999   0.511  10.751   8.733
69034SOL    HW2 9000   0.485  10.899   8.749
69035SOL     OW 9001   4.527   0.021   6.822
69035SOL    HW1 9002   4.542  14.823   6.875
69035SOL    HW2 9003   4.563   0.093   6.875
69036SOL     OW 9004   0.653  13.931   8.633
69036SOL    HW1 9005   0.684  13.851   8.590
69036SOL    HW2 9006   0.665  13.914   8.726
69037SOL     OW 9007   4.304   1.890   9.577
69037SOL    HW1 9008   4.320   1.955   9.509
69037SOL    HW2 9009   4.218   1.913   9.613
69038SOL     OW 9010  10.287   0.570   2.528
69038SOL    HW1 9011  10.198   0.552   2.559
69038SOL    HW2 9012  10.344   0.534   2.595
69039SOL     OW 9013  13.429   6.140   5.286
69039SOL    HW1 9014  13.375   6.076   5.240
69039SOL    HW2 9015  13.517   6.127   5.251
69040SOL     OW 9016   8.555   7.000  11.626
69040SOL    HW1 9017   8.528   6.909  11.628
69040SOL    HW2 9018   8.555   7.023  11.533
69041SOL     OW 9019   8.104   4.014   7.502
69041SOL    HW1 9020   8.126   3.934   7.549
69041SOL    HW2 9021   8.185   4.065   7.500
69042SOL     OW 9022   7.274  13.664   1.533
69042SOL    HW1 9023   7.259  13.691   1.623
69042SOL    HW2 9024   7.262  13.743   1.481
69043SOL     OW 9025  12.647   5.553  10.963
69043SOL    HW1 9026  12.659   5.600  10.880
69043SOL    HW2 9027  12.731   5.562  11.008
69044SOL     OW 9028   2.546  10.474   9.949
69044SOL    HW1 9029   2.577  10.518  10.029
69044SOL    HW2 9030   2.480  10.532   9.913
69045SOL     OW 9031  11.167   0.600  11.942
69045SOL    HW1 9032  11.128   0.530  11.889
69045SOL    HW2 9033  11.103   0.616  12.012
69046SOL     OW 9034   0.718   3.165   0.648
69046SOL    HW1 9035   0.712   3.260   0.643
69046SOL    HW2 9036   0.701   3.135   0.559
69047SOL     OW 9037   6.419  14.283   4.333
69047SOL    HW1 9038   6.392  14.372   4.307
69047SOL    HW2 9039   6.356  14.258   4.401
69048SOL     OW 9040   9.022   7.846  10.432
69048SOL    HW1 9041   8.998   7.786  10.503
69048SOL    HW2 9042   9.117   7.838  10.425
69049SOL     OW 9043   3.934  14.328   2.912
69049SOL    HW1 9044   3.997  14.395   2.884
69049SOL    HW2 9045   3.982  14.246   2.906
69050SOL     OW 9046  14.472  12.545   3.412
69050SOL    HW1 9047  14.559  12.559   3.448
69050SOL    HW2 9048  14.487  12.489   3.336
69051SOL     OW 9049   2.753  13.447   6.093
69051SOL    HW1 9050   2.760  13.454   5.998
69051SOL    HW2 9051   2.842  13.431   6.123
69052SOL     OW 9052  14.121   6.695   8.673
69052SOL    HW1 9053  14.179   6.685   8.598
69052SOL    HW2 9054  14.061   6.765   8.647
69053SOL     OW 9055  10.455  14.188   1.317
69053SOL    HW1 9056  10.466  14.113   1.258
69053SOL    HW2 9057  10.426  14.150   1.399
69054SOL     OW 9058   0.983  11.504  13.059
69054SOL    HW1 9059   0.930  11.556  12.998
69054SOL    HW2 9060   0.920  11.449  13.105
69055SOL     OW 9061   2.367   7.795   7.975
69055SOL    HW1 9062   2.380   7.889   7.962
69055SOL    HW2 9063   2.277   7.788   8.006
69056SOL     OW 9064   3.541   8.990  14.691
69056SOL    HW1 9065   3.630   8.954  14.696
69056SOL    HW2 9066   3.495   8.948  14.764
69057SOL     OW 9067  12.441  12.813   2.894
69057SOL    HW1 9068  12.536  12.827   2.898
69057SOL    HW2 9069  12.412  12.876   2.827
69058SOL     OW 9070   8.471  11.767   8.068
69058SOL    HW1 9071   8.383  11.729   8.063
69058SOL    HW2 9072   8.526  11.696   8.100
69059SOL     OW 9073   0.253   2.814   4.884
69059SOL    HW1 9074   0.199   2.837   4.808
69059SOL    HW2 9075   0.263   2.719   4.878
69060SOL     OW 9076   8.337   4.141   3.446
69060SOL    HW1 9077   8.251   4.182   3.455
69060SOL    HW2 9078   8.398   4.205   3.484
69061SOL     OW 9079  13.180   1.785   7.740
69061SOL    HW1 9080  13.243   1.787   7.813
69061SOL    HW2 9081  13.124   1.710   7.760
69062SOL     OW 9082  10.536   7.720   6.336
69062SOL    HW1 9083  10.550   7.678   6.251
69062SOL    HW2 9084  10.458   7.773   6.324
69063SOL     OW 9085   6.193   8.714   1.940
69063SOL    HW1 9086   6.198   8.778   1.869
69063SOL    HW2 9087   6.207   8.630   1.896
69064SOL     OW 9088   9.008   0.926   3.867
69064SOL    HW1 9089   9.071   0.858   3.846
69064SOL    HW2 9090   9.061   1.005   3.880
69065SOL     OW 9091  14.866  13.766   4.249
69065SOL    HW1 9092  14.787  13.729   4.290
69065SOL    HW2 9093  14.838  13.853   4.220
69066SOL     OW 9094  14.424   5.802   7.705
69066SOL    HW1 9095  14.363   5.822   7.634
69066SOL    HW2 9096  14.496   5.756   7.662
69067SOL     OW 9097   1.549  10.363  12.194
69067SOL    HW1 9098   1.522  10.367  12.286
69067SOL    HW2 9099   1.479  10.409  12.146
69068SOL     OW 9100  14.004  10.293  14.617
69068SOL    HW1 9101  13.914  10.262  14.616
69068SOL    HW2 9102  14.052  10.231  14.563
69069SOL     OW 9103   9.777   3.525   4.137
69069SOL    HW1 9104   9.784   3.574   4.220
69069SOL    HW2 9105   9.866   3.521   4.104
69070SOL     OW 9106   1.065  11.479   8.193
69070SOL    HW1 9107   1.010  11.424   8.136
69070SOL    HW2 9108   1.002  11.520   8.253
69071SOL     OW 9109  14.481   4.040   5.686
69071SOL    HW1 9110  14.408   4.049   5.747
69071SOL    HW2 9111  14.439   4.029   5.600
69072SOL     OW 9112   4.196   5.166  13.080
69072SOL    HW1 9113   4.163   5.080  13.107
69072SOL    HW2 9114   4.140   5.229  13.126
69073SOL     OW 9115   9.077   4.098  14.288
69073SOL    HW1 9116   9.168   4.092  14.316
69073SOL    HW2 9117   9.081   4.137  14.201
69074SOL     OW 9118  11.779   5.994   6.276
69074SOL    HW1 9119  11.718   5.965   6.208
69074SOL    HW2 9120  11.806   5.913   6.320
69075SOL     OW 9121   6.784  12.436   9.531
69075SOL    HW1 9122   6.774  12.362   9.590
69075SOL    HW2 9123   6.870  12.473   9.553
69076SOL     OW 9124   5.022   9.744   4.917
69076SOL    HW1 9125   4.961   9.706   4.853
69076SOL    HW2 9126   5.081   9.798   4.866
69077SOL     OW 9127   9.263   1.788  12.262
69077SOL    HW1 9128   9.253   1.695  12.241
69077SOL    HW2 9129   9.348   1.812  12.224
69078SOL     OW 9130   2.415   4.889   1.966
69078SOL    HW1 9131   2.355   4.959   1.991
69078SOL    HW2 9132   2.488   4.896   2.028
69079SOL     OW 9133   6.407  11.733  13.632
69079SOL    HW1 9134   6.489  11.772  13.661
69079SOL    HW2 9135   6.352  11.728  13.711
69080SOL     OW 9136  14.234   7.076   9.355
69080SOL    HW1 9137  14.223   7.138   9.283
69080SOL    HW2 9138  14.155   7.021   9.352
69081SOL     OW 9139   3.928   5.933   8.073
69081SOL    HW1 9140   3.949   5.862   8.012
69081SOL    HW2 9141   3.878   5.891   8.143
69082SOL     OW 9142  13.983   1.702   7.910
69082SOL    HW1 9143  14.070   1.736   7.889
69082SOL    HW2 9144  13.943   1.771   7.964
69083SOL     OW 9145  10.552   9.101   7.041
69083SOL    HW1 9146  10.575   9.025   7.095
69083SOL    HW2 9147  10.553   9.068   6.952
69084SOL     OW 9148   0.877   8.148   6.195
69084SOL    HW1 9149   0.953   8.114   6.148
69084SOL    HW2 9150   0.866   8.237   6.162
69085SOL     OW 9151   6.695   6.304   5.110
69085SOL    HW1 9152   6.702   6.377   5.049
69085SOL    HW2 9153   6.683   6.346   5.196
69086SOL     OW 9154   5.321  10.407   8.966
69086SOL    HW1 9155   5.234  10.408   9.008
69086SOL    HW2 9156   5.305  10.370   8.879
69087SOL     OW 9157   0.435  13.502   7.176
69087SOL    HW1 9158   0.351  13.494   7.220
69087SOL    HW2 9159   0.498  13.461   7.235
69088SOL     OW 9160   6.984   9.907   8.459
69088SOL    HW1 9161   7.037   9.851   8.516
69088SOL    HW2 9162   6.961   9.851   8.385
69089SOL     OW 9163   8.613  10.331   2.264
69089SOL    HW1 9164   8.528  10.286   2.272
69089SOL    HW2 9165   8.671  10.265   2.227
69090SOL     OW 9166  13.179   4.016   2.730
69090SOL    HW1 9167  13.222   4.098   2.752
69090SOL    HW2 9168  13.235   3.949   2.769
69091SOL     OW 9169   1.365  14.516   3.568
69091SOL    HW1 9170   1.449  14.543   3.532
69091SOL    HW2 9171   1.382  14.506   3.662
69092SOL     OW 9172  12.893   0.733  11.378
69092SOL    HW1 9173  12.967   0.712  11.435
69092SOL    HW2 9174  12.816   0.713  11.431
69093SOL     OW 9175   2.675  12.742   1.309
69093SOL    HW1 9176   2.682  12.648   1.292
69093SOL    HW2 9177   2.585  12.764   1.282
69094SOL     OW 9178   7.331   2.127  11.685
69094SOL    HW1 9179   7.322   2.100  11.776
69094SOL    HW2 9180   7.253   2.179  11.667
69095SOL     OW 9181   2.049   3.310  13.918
69095SOL    HW1 9182   1.984   3.377  13.895
69095SOL    HW2 9183   2.129   3.360  13.937
69096SOL     OW 9184  11.110  12.276   1.837
69096SOL    HW1 9185  11.093  12.357   1.885
69096SOL    HW2 9186  11.101  12.207   1.902
69097SOL     OW 9187   3.098  12.296  13.085
69097SOL    HW1 9188   3.188  12.262  13.092
69097SOL    HW2 9189   3.069  12.266  12.999
69098SOL     OW 9190   2.075   7.248   6.392
69098SOL    HW1 9191   2.134   7.178   6.421
69098SOL    HW2 9192   2.098   7.263   6.300
69099SOL     OW 9193   8.623   3.661  14.505
69099SOL    HW1 9194   8.587   3.750  14.513
69099SOL    HW2 9195   8.638   3.651  14.411
69100SOL     OW 9196   1.396   2.856   6.914
69100SOL    HW1 9197   1.416   2.905   6.994
69100SOL    HW2 9198   1.318   2.805   6.936
69101SOL     OW 9199  13.166  12.331   5.401
69101SOL    HW1 9200  13.129  12.405   5.449
69101SOL    HW2 9201  13.200  12.369   5.320
69102SOL     OW 9202   5.348  12.759   8.503
69102SOL    HW1 9203   5.411  12.710   8.556
69102SOL    HW2 9204   5.392  12.841   8.484
69103SOL     OW 9205  10.499  13.840   0.614
69103SOL    HW1 9206  10.459  13.910   0.563
69103SOL    HW2 9207  10.497  13.764   0.556
69104SOL     OW 9208   8.469   6.457  11.457
69104SOL    HW1 9209   8.428   6.496  11.380
69104SOL    HW2 9210   8.561   6.450  11.434
69105SOL     OW 9211   8.579  12.116   2.512
69105SOL    HW1 9212   8.494  12.073   2.519
69105SOL    HW2 9213   8.560  12.201   2.473
69106SOL     OW 9214   4.291  10.382   2.993
69106SOL    HW1 9215   4.246  10.309   2.950
69106SOL    HW2 9216   4.366  10.401   2.936
69107SOL     OW 9217   2.649  12.688  13.302
69107SOL    HW1 9218   2.736  12.651  13.309
69107SOL    HW2 9219   2.598  12.621  13.256
69108SOL     OW 9220   1.243  10.133  14.008
69108SOL    HW1 9221   1.202  10.214  13.976
69108SOL    HW2 9222   1.297  10.161  14.082
69109SOL     OW 9223   3.000   4.131   0.710
69109SOL    HW1 9224   3.007   4.053   0.765
69109SOL    HW2 9225   3.090   4.158   0.694
69110SOL     OW 9226   2.323  11.476  14.722
69110SOL    HW1 9227   2.363  11.392  14.747
69110SOL    HW2 9228   2.239  11.477  14.768
69111SOL     OW 9229   9.789   2.210   0.069
69111SOL    HW1 9230   9.801   2.234   0.161
69111SOL    HW2 9231   9.695   2.214   0.056
69112SOL     OW 9232  11.190  12.151  14.700
69112SOL    HW1 9233  11.193  12.237  14.657
69112SOL    HW2 9234  11.229  12.092  14.635
69113SOL     OW 9235   2.877  11.806   7.381
69113SOL    HW1 9236   2.928  11.726   7.369
69113SOL    HW2 9237   2.813  11.785   7.448
69114SOL     OW 9238   1.762   2.070   0.882
69114SOL    HW1 9239   1.690   2.114   0.927
69114SOL    HW2 9240   1.765   2.113   0.796
69115SOL     OW 9241  12.755   3.806   1.255
69115SOL    HW1 9242  12.690   3.768   1.196
69115SOL    HW2 9243  12.792   3.731   1.302
69116SOL     OW 9244   4.739  12.634   2.568
69116SOL    HW1 9245   4.760  12.543   2.550
69116SOL    HW2 9246   4.815  12.668   2.614
69117SOL     OW 9247   6.977   1.892   5.891
69117SOL    HW1 9248   7.065   1.903   5.853
69117SOL    HW2 9249   6.923   1.865   5.817
69118SOL     OW 9250   6.267   4.022   1.484
69118SOL    HW1 9251   6.313   3.987   1.560
69118SOL    HW2 9252   6.179   4.040   1.515
69119SOL     OW 9253   3.114  13.245   7.316
69119SOL    HW1 9254   3.194  13.290   7.343
69119SOL    HW2 9255   3.122  13.157   7.353
69120SOL     OW 9256   0.309  12.923   9.870
69120SOL    HW1 9257   0.272  12.960   9.950
69120SOL    HW2 9258   0.363  12.849   9.900
69121SOL     OW 9259   3.477   2.541   2.511
69121SOL    HW1 9260   3.471   2.620   2.564
69121SOL    HW2 9261   3.534   2.483   2.562
69122SOL     OW 9262  10.482   6.539   6.088
69122SOL    HW1 9263  10.550   6.553   6.153
69122SOL    HW2 9264  10.495   6.609   6.024
69123SOL     OW 9265  10.221   0.148  11.321
69123SOL    HW1 9266  10.256   0.203  11.251
69123SOL    HW2 9267  10.161   0.088  11.277
69124SOL     OW 9268   2.205  11.053   8.994
69124SOL    HW1 9269   2.116  11.073   9.024
69124SOL    HW2 9270   2.262  11.099   9.055
69125SOL     OW 9271   7.985   9.049   7.485
69125SOL    HW1 9272   8.076   9.066   7.512
69125SOL    HW2 9273   7.962   8.967   7.528
69126SOL     OW 9274   2.017   9.886   9.640
69126SOL    HW1 9275   1.956   9.820   9.675
69126SOL    HW2 9276   2.042   9.939   9.715
69127SOL     OW 9277  12.142   3.257   3.237
69127SOL    HW1 9278  12.088   3.321   3.189
69127SOL    HW2 9279  12.117   3.172   3.200
69128SOL     OW 9280   4.582   9.482  10.685
69128SOL    HW1 9281   4.548   9.484  10.774
69128SOL    HW2 9282   4.548   9.562  10.644
69129SOL     OW 9283   8.140   7.683  10.228
69129SOL    HW1 9284   8.122   7.728  10.310
69129SOL    HW2 9285   8.187   7.747  10.175
69130SOL     OW 9286  14.354   0.221   8.742
69130SOL    HW1 9287  14.298   0.191   8.671
69130SOL    HW2 9288  14.356   0.148   8.804
69131SOL     OW 9289   8.355   1.811   3.717
69131SOL    HW1 9290   8.314   1.880   3.769
69131SOL    HW2 9291   8.448   1.817   3.737
69132SOL     OW 9292  11.230  13.782  14.731
69132SOL    HW1 9293  11.315  13.740  14.718
69132SOL    HW2 9294  11.238  13.867  14.688
69133SOL     OW 9295   4.892  12.304   1.964
69133SOL    HW1 9296   4.961  12.240   1.944
69133SOL    HW2 9297   4.913  12.380   1.909
69134SOL     OW 9298   6.459   8.644  11.220
69134SOL    HW1 9299   6.508   8.572  11.259
69134SOL    HW2 9300   6.416   8.687  11.293
69135SOL     OW 9301   8.037   1.410  10.570
69135SOL    HW1 9302   7.998   1.324  10.555
69135SOL    HW2 9303   7.962   1.468  10.586
69136SOL     OW 9304   2.579   4.798  13.149
69136SOL    HW1 9305   2.598   4.727  13.087
69136SOL    HW2 9306   2.495   4.833  13.120
69137SOL     OW 9307   1.658   1.417  12.808
69137SOL    HW1 9308   1.571   1.384  12.787
69137SOL    HW2 9309   1.707   1.340  12.835
69138SOL     OW 9310   5.392   5.061   1.736
69138SOL    HW1 9311   5.426   4.980   1.775
69138SOL    HW2 9312   5.340   5.101   1.806
69139SOL     OW 9313   5.861   9.068   3.051
69139SOL    HW1 9314   5.896   9.075   3.140
69139SOL    HW2 9315   5.790   9.004   3.058
69140SOL     OW 9316  12.937   3.553   1.298
69140SOL    HW1 9317  12.953   3.549   1.203
69140SOL    HW2 9318  12.991   3.484   1.334
69141SOL     OW 9319   6.211   4.183  10.669
69141SOL    HW1 9320   6.220   4.093  10.636
69141SOL    HW2 9321   6.264   4.183  10.749
69142SOL     OW 9322   7.676   7.405   3.778
69142SOL    HW1 9323   7.687   7.312   3.799
69142SOL    HW2 9324   7.581   7.415   3.765
69143SOL     OW 9325  10.450   2.228   0.202
69143SOL    HW1 9326  10.528   2.172   0.207
69143SOL    HW2 9327  10.384   2.173   0.161
69144SOL     OW 9328   6.460  11.164   6.074
69144SOL    HW1 9329   6.546  11.168   6.117
69144SOL    HW2 9330   6.397  11.177   6.145
69145SOL     OW 9331  14.333   4.539  14.824
69145SOL    HW1 9332  14.389   4.462  14.816
69145SOL    HW2 9333  14.270   4.530  14.752
69146SOL     OW 9334   5.312  12.492   7.131
69146SOL    HW1 9335   5.341  12.567   7.079
69146SOL    HW2 9336   5.387  12.434   7.134
69147SOL     OW 9337  12.602   8.819   8.040
69147SOL    HW1 9338  12.516   8.822   8.080
69147SOL    HW2 9339  12.650   8.891   8.080
69148SOL     OW 9340   0.815  11.931  11.008
69148SOL    HW1 9341   0.799  11.958  11.099
69148SOL    HW2 9342   0.737  11.881  10.985
69149SOL     OW 9343   0.775   7.403  13.236
69149SOL    HW1 9344   0.798   7.334  13.173
69149SOL    HW2 9345   0.816   7.374  13.318
69150SOL     OW 9346   3.237  10.832  12.583
69150SOL    HW1 9347   3.227  10.736  12.581
69150SOL    HW2 9348   3.162  10.865  12.534
69151SOL     OW 9349  11.505  13.545  11.427
69151SOL    HW1 9350  11.462  13.630  11.434
69151SOL    HW2 9351  11.443  13.483  11.466
69152SOL     OW 9352   8.245  13.390   3.012
69152SOL    HW1 9353   8.187  13.319   3.040
69152SOL    HW2 9354   8.192  13.469   3.022
69153SOL     OW 9355   4.046   1.809  14.448
69153SOL    HW1 9356   4.131   1.822  14.406
69153SOL    HW2 9357   3.982   1.832  14.381
69154SOL     OW 9358   2.949   9.665   9.823
69154SOL    HW1 9359   3.024   9.645   9.879
69154SOL    HW2 9360   2.875   9.622   9.866
69155SOL     OW 9361   4.627  11.571  13.063
69155SOL    HW1 9362   4.572  11.502  13.026
69155SOL    HW2 9363   4.571  11.612  13.129
69156SOL     OW 9364   7.493  10.991   1.706
69156SOL    HW1 9365   7.492  10.909   1.754
69156SOL    HW2 9366   7.479  10.965   1.615
69157SOL     OW 9367  12.612  14.728   9.506
69157SOL    HW1 9368  12.656  14.765   9.429
69157SOL    HW2 9369  12.565  14.801   9.544
69158SOL     OW 9370   0.557   2.667   6.421
69158SOL    HW1 9371   0.508   2.617   6.356
69158SOL    HW2 9372   0.648   2.664   6.389
69159SOL     OW 9373  14.772   6.326  10.962
69159SOL    HW1 9374  14.713   6.292  10.895
69159SOL    HW2 9375  14.845   6.264  10.965
69160SOL     OW 9376  13.353   6.244   6.828
69160SOL    HW1 9377  13.330   6.244   6.735
69160SOL    HW2 9378  13.304   6.317   6.865
69161SOL     OW 9379   9.957   7.890   4.720
69161SOL    HW1 9380   9.940   7.967   4.666
69161SOL    HW2 9381   9.876   7.877   4.770
69162SOL     OW 9382  13.487   7.154   3.152
69162SOL    HW1 9383  13.551   7.182   3.217
69162SOL    HW2 9384  13.506   7.207   3.074
69163SOL     OW 9385   2.886  12.406  11.714
69163SOL    HW1 9386   2.893  12.377  11.623
69163SOL    HW2 9387   2.855  12.328  11.761
69164SOL     OW 9388   2.020  12.201  10.314
69164SOL    HW1 9389   1.940  12.149  10.323
69164SOL    HW2 9390   2.042  12.227  10.404
69165SOL     OW 9391  11.083  12.496  10.379
69165SOL    HW1 9392  11.178  12.498  10.390
69165SOL    HW2 9393  11.058  12.406  10.401
69166SOL     OW 9394  10.256  11.949  11.579
69166SOL    HW1 9395  10.195  11.916  11.645
69166SOL    HW2 9396  10.205  11.950  11.498
69167SOL     OW 9397   1.664  12.100  14.035
69167SOL    HW1 9398   1.739  12.152  14.006
69167SOL    HW2 9399   1.651  12.125  14.127
69168SOL     OW 9400   6.982   4.520   3.195
69168SOL    HW1 9401   7.023   4.548   3.277
69168SOL    HW2 9402   7.027   4.439   3.172
69169SOL     OW 9403   7.167   1.410   2.355
69169SOL    HW1 9404   7.256   1.429   2.383
69169SOL    HW2 9405   7.176   1.373   2.267
69170SOL     OW 9406  10.581  14.571  11.245
69170SOL    HW1 9407  10.548  14.660  11.242
69170SOL    HW2 9408  10.550  14.536  11.329
69171SOL     OW 9409  12.903  11.134  13.607
69171SOL    HW1 9410  12.905  11.085  13.525
69171SOL    HW2 9411  12.984  11.109  13.651
69172SOL     OW 9412   1.081   0.594   4.884
69172SOL    HW1 9413   1.150   0.588   4.819
69172SOL    HW2 9414   1.000   0.599   4.833
69173SOL     OW 9415   4.851  10.099   1.933
69173SOL    HW1 9416   4.941  10.100   1.966
69173SOL    HW2 9417   4.831  10.191   1.916
69174SOL     OW 9418  14.642   1.848  13.349
69174SOL    HW1 9419  14.679   1.775  13.300
69174SOL    HW2 9420  14.550   1.851  13.323
69175SOL     OW 9421  14.159   5.385  13.588
69175SOL    HW1 9422  14.148   5.329  13.511
69175SOL    HW2 9423  14.122   5.470  13.561
69176SOL     OW 9424   3.199   6.238  14.346
69176SOL    HW1 9425   3.279   6.186  14.353
69176SOL    HW2 9426   3.228   6.328  14.363
69177SOL     OW 9427   2.243  12.350   2.969
69177SOL    HW1 9428   2.163  12.303   2.944
69177SOL    HW2 9429   2.290  12.289   3.026
69178SOL     OW 9430  14.486   7.114   7.384
69178SOL    HW1 9431  14.414   7.167   7.419
69178SOL    HW2 9432  14.464   7.102   7.292
69179SOL     OW 9433  12.610   3.005  14.745
69179SOL    HW1 9434  12.538   3.065  14.765
69179SOL    HW2 9435  12.643   3.035  14.660
69180SOL     OW 9436  14.359   2.259   0.039
69180SOL    HW1 9437  14.426   2.195   0.017
69180SOL    HW2 9438  14.286   2.208   0.075
69181SOL     OW 9439   0.537   7.870   8.307
69181SOL    HW1 9440   0.610   7.885   8.367
69181SOL    HW2 9441   0.519   7.777   8.313
69182SOL     OW 9442   2.090  11.698   4.305
69182SOL    HW1 9443   2.158  11.637   4.335
69182SOL    HW2 9444   2.053  11.735   4.385
69183SOL     OW 9445   8.022  11.215   9.198
69183SOL    HW1 9446   8.097  11.197   9.142
69183SOL    HW2 9447   7.988  11.299   9.166
69184SOL     OW 9448   1.930   6.437  13.542
69184SOL    HW1 9449   1.915   6.412  13.451
69184SOL    HW2 9450   1.925   6.532  13.542
69185SOL     OW 9451  11.299   5.505   6.895
69185SOL    HW1 9452  11.292   5.415   6.927
69185SOL    HW2 9453  11.346   5.551   6.964
69186SOL     OW 9454  14.792   0.158  11.818
69186SOL    HW1 9455  14.848   0.232  11.842
69186SOL    HW2 9456  14.765   0.176  11.728
69187SOL     OW 9457   2.416   8.264  12.113
69187SOL    HW1 9458   2.345   8.228  12.059
69187SOL    HW2 9459   2.489   8.205  12.100
69188SOL     OW 9460   6.079  12.895  13.597
69188SOL    HW1 9461   6.138  12.949  13.544
69188SOL    HW2 9462   6.003  12.880  13.541
69189SOL     OW 9463  12.713   0.627   8.149
69189SOL    HW1 9464  12.706   0.595   8.059
69189SOL    HW2 9465  12.623   0.652   8.172
69190SOL     OW 9466   3.430  14.873  10.675
69190SOL    HW1 9467   3.467  14.821  10.604
69190SOL    HW2 9468   3.351  14.825  10.701
69191SOL     OW 9469   4.902  13.565   6.050
69191SOL    HW1 9470   4.981  13.539   6.097
69191SOL    HW2 9471   4.867  13.483   6.016
69192SOL     OW 9472   3.333   2.174  10.851
69192SOL    HW1 9473   3.255   2.195  10.800
69192SOL    HW2 9474   3.398   2.146  10.786
69193SOL     OW 9475  10.990   7.238  14.429
69193SOL    HW1 9476  11.082   7.220  14.448
69193SOL    HW2 9477  10.950   7.152  14.419
69194SOL     OW 9478   2.587  14.546   3.631
69194SOL    HW1 9479   2.607  14.639   3.642
69194SOL    HW2 9480   2.665  14.501   3.662
69195SOL     OW 9481  10.038  11.409   5.133
69195SOL    HW1 9482  10.023  11.425   5.039
69195SOL    HW2 9483   9.952  11.421   5.173
69196SOL     OW 9484   6.953   3.678   3.634
69196SOL    HW1 9485   7.005   3.604   3.605
69196SOL    HW2 9486   6.980   3.693   3.725
69197SOL     OW 9487   0.210   9.010   4.554
69197SOL    HW1 9488   0.275   9.044   4.616
69197SOL    HW2 9489   0.257   8.945   4.502
69198SOL     OW 9490   7.734   8.680   0.926
69198SOL    HW1 9491   7.648   8.704   0.892
69198SOL    HW2 9492   7.793   8.746   0.890
69199SOL     OW 9493   4.542  13.586   9.423
69199SOL    HW1 9494   4.555  13.675   9.391
69199SOL    HW2 9495   4.468  13.552   9.372
69200SOL     OW 9496  14.834  12.704   3.841
69200SOL    HW1 9497   0.031  12.760   3.848
69200SOL    HW2 9498  14.831  12.658   3.924
69201SOL     OW 9499   2.826  11.191  12.813
69201SOL    HW1 9500   2.755  11.207  12.875
69201SOL    HW2 9501   2.805  11.106  12.774
69202SOL     OW 9502   3.557  14.433  14.667
69202SOL    HW1 9503   3.534  14.415  14.758
69202SOL    HW2 9504   3.578  14.347  14.631
69203SOL     OW 9505   5.198   9.662  14.647
69203SOL    HW1 9506   5.145   9.589  14.678
69203SOL    HW2 9507   5.232   9.634  14.562
69204SOL     OW 9508   6.683   8.903   6.024
69204SOL    HW1 9509   6.632   8.827   6.051
69204SOL    HW2 9510   6.759   8.903   6.082
69205SOL     OW 9511   6.094  10.453   8.758
69205SOL    HW1 9512   6.132  10.367   8.775
69205SOL    HW2 9513   6.047  10.442   8.675
69206SOL     OW 9514  13.748   0.060   0.543
69206SOL    HW1 9515  13.758   0.135   0.484
69206SOL    HW2 9516  13.691   0.093   0.613
69207SOL     OW 9517   1.970   3.823  10.774
69207SOL    HW1 9518   2.015   3.794  10.694
69207SOL    HW2 9519   1.956   3.917  10.760
69208SOL     OW 9520   6.206   3.874   1.992
69208SOL    HW1 9521   6.182   3.933   1.921
69208SOL    HW2 9522   6.235   3.931   2.063
69209SOL     OW 9523   2.309   6.601   2.730
69209SOL    HW1 9524   2.247   6.529   2.719
69209SOL    HW2 9525   2.395   6.558   2.733
69210SOL     OW 9526   5.575  12.791  14.841
69210SOL    HW1 9527   5.646  12.730  14.819
69210SOL    HW2 9528   5.495  12.746  14.815
69211SOL     OW 9529   3.605   8.719   4.210
69211SOL    HW1 9530   3.601   8.626   4.231
69211SOL    HW2 9531   3.666   8.725   4.136
69212SOL     OW 9532   1.573  14.587  10.400
69212SOL    HW1 9533   1.605  14.523  10.337
69212SOL    HW2 9534   1.485  14.608  10.370
69213SOL     OW 9535   8.280   2.013   4.330
69213SOL    HW1 9536   8.292   1.988   4.238
69213SOL    HW2 9537   8.365   1.995   4.371
69214SOL     OW 9538   0.683   3.533   2.157
69214SOL    HW1 9539   0.590   3.552   2.153
69214SOL    HW2 9540   0.707   3.550   2.249
69215SOL     OW 9541   2.633   9.105   5.355
69215SOL    HW1 9542   2.558   9.123   5.299
69215SOL    HW2 9543   2.689   9.047   5.303
69216SOL     OW 9544  12.848   4.965  11.801
69216SOL    HW1 9545  12.831   4.946  11.709
69216SOL    HW2 9546  12.943   4.962  11.809
69217SOL     OW 9547   9.416  11.312  14.680
69217SOL    HW1 9548   9.401  11.383  14.617
69217SOL    HW2 9549   9.456  11.356  14.756
69218SOL     OW 9550   1.896  13.513   1.332
69218SOL    HW1 9551   1.882  13.501   1.426
69218SOL    HW2 9552   1.981  13.558   1.327
69219SOL     OW 9553   6.685   8.427   0.573
69219SOL    HW1 9554   6.698   8.465   0.486
69219SOL    HW2 9555   6.647   8.341   0.556
69220SOL     OW 9556  12.682  10.094   5.953
69220SOL    HW1 9557  12.707  10.024   6.015
69220SOL    HW2 9558  12.757  10.154   5.955
69221SOL     OW 9559   2.258  14.165  13.031
69221SOL    HW1 9560   2.285  14.206  13.112
69221SOL    HW2 9561   2.304  14.082  13.029
69222SOL     OW 9562  11.474   4.571   4.486
69222SOL    HW1 9563  11.477   4.489   4.437
69222SOL    HW2 9564  11.456   4.545   4.576
69223SOL     OW 9565   6.367  10.419   2.684
69223SOL    HW1 9566   6.294  10.471   2.651
69223SOL    HW2 9567   6.326  10.346   2.731
69224SOL     OW 9568  11.287   2.436   2.396
69224SOL    HW1 9569  11.337   2.479   2.466
69224SOL    HW2 9570  11.307   2.485   2.317
69225SOL     OW 9571   3.600   8.488   0.553
69225SOL    HW1 9572   3.508   8.506   0.533
69225SOL    HW2 9573   3.628   8.427   0.485
69226SOL     OW 9574   9.021  12.827  11.911
69226SOL    HW1 9575   8.933  12.791  11.895
69226SOL    HW2 9576   9.054  12.848  11.824
69227SOL     OW 9577   1.795   3.060  14.214
69227SOL    HW1 9578   1.702   3.063  14.193
69227SOL    HW2 9579   1.826   2.977  14.178
69228SOL     OW 9580   6.508   2.310   6.696
69228SOL    HW1 9581   6.419   2.346   6.699
69228SOL    HW2 9582   6.495   2.215   6.704
69229SOL     OW 9583   6.876  10.627   6.405
69229SOL    HW1 9584   6.808  10.560   6.398
69229SOL    HW2 9585   6.829  10.710   6.405
69230SOL     OW 9586  14.536   0.943   9.677
69230SOL    HW1 9587  14.444   0.920   9.684
69230SOL    HW2 9588  14.583   0.865   9.706
69231SOL     OW 9589  11.894  10.802   7.108
69231SOL    HW1 9590  11.833  10.826   7.177
69231SOL    HW2 9591  11.911  10.709   7.122
69232SOL     OW 9592   9.558  10.385   2.900
69232SOL    HW1 9593   9.482  10.327   2.908
69232SOL    HW2 9594   9.627  10.341   2.951
69233SOL     OW 9595  11.819   2.371  13.249
69233SOL    HW1 9596  11.892   2.409  13.201
69233SOL    HW2 9597  11.838   2.277  13.251
69234SOL     OW 9598   4.759  13.898   1.363
69234SOL    HW1 9599   4.783  13.814   1.325
69234SOL    HW2 9600   4.829  13.917   1.426
69235SOL     OW 9601  12.361  11.801   1.806
69235SOL    HW1 9602  12.362  11.706   1.819
69235SOL    HW2 9603  12.436  11.818   1.749
69236SOL     OW 9604   6.851   4.174  10.560
69236SOL    HW1 9605   6.907   4.208  10.490
69236SOL    HW2 9606   6.881   4.084  10.573
69237SOL     OW 9607  10.691   5.228  14.168
69237SOL    HW1 9608  10.735   5.309  14.142
69237SOL    HW2 9609  10.598   5.246  14.151
69238SOL     OW 9610   3.531  14.027  10.180
69238SOL    HW1 9611   3.458  14.085  10.161
69238SOL    HW2 9612   3.514  13.948  10.128
69239SOL     OW 9613   6.972   3.823  12.424
69239SOL    HW1 9614   6.899   3.778  12.382
69239SOL    HW2 9615   6.949   3.827  12.517
69240SOL     OW 9616  11.609   8.311   3.494
69240SOL    HW1 9617  11.605   8.339   3.403
69240SOL    HW2 9618  11.581   8.220   3.493
69241SOL     OW 9619   6.898   6.275  11.082
69241SOL    HW1 9620   6.898   6.339  11.154
69241SOL    HW2 9621   6.961   6.311  11.019
69242SOL     OW 9622   4.786  11.801   8.243
69242SOL    HW1 9623   4.857  11.758   8.290
69242SOL    HW2 9624   4.715  11.738   8.242
69243SOL     OW 9625   6.794   6.377   0.550
69243SOL    HW1 9626   6.707   6.360   0.512
69243SOL    HW2 9627   6.855   6.330   0.493
69244SOL     OW 9628   2.485  10.081  10.009
69244SOL    HW1 9629   2.561  10.127  10.045
69244SOL    HW2 9630   2.440  10.045  10.085
69245SOL     OW 9631   8.658  13.722   9.035
69245SOL    HW1 9632   8.570  13.695   9.010
69245SOL    HW2 9633   8.716  13.655   8.998
69246SOL     OW 9634   9.131   7.249   4.267
69246SOL    HW1 9635   9.054   7.200   4.294
69246SOL    HW2 9636   9.157   7.209   4.184
69247SOL     OW 9637  13.685  12.857  12.442
69247SOL    HW1 9638  13.726  12.817  12.518
69247SOL    HW2 9639  13.697  12.793  12.372
69248SOL     OW 9640   5.981   1.424   3.865
69248SOL    HW1 9641   5.976   1.514   3.897
69248SOL    HW2 9642   6.043   1.381   3.925
69249SOL     OW 9643   9.979   1.562   2.449
69249SOL    HW1 9644  10.042   1.490   2.447
69249SOL    HW2 9645  10.016   1.626   2.510
69250SOL     OW 9646   7.145  12.992   6.278
69250SOL    HW1 9647   7.208  12.924   6.303
69250SOL    HW2 9648   7.069  12.944   6.245
69251SOL     OW 9649  12.528   2.556   8.895
69251SOL    HW1 9650  12.452   2.599   8.854
69251SOL    HW2 9651  12.518   2.463   8.872
69252SOL     OW 9652   2.886  13.041   9.135
69252SOL    HW1 9653   2.930  12.956   9.131
69252SOL    HW2 9654   2.951  13.099   9.175
69253SOL     OW 9655   5.289   9.736  12.026
69253SOL    HW1 9656   5.349   9.798  11.983
69253SOL    HW2 9657   5.206   9.747  11.981
69254SOL     OW 9658   2.520  10.580  10.774
69254SOL    HW1 9659   2.473  10.663  10.762
69254SOL    HW2 9660   2.605  10.605  10.810
69255SOL     OW 9661   3.019   3.248   0.292
69255SOL    HW1 9662   3.031   3.182   0.224
69255SOL    HW2 9663   3.006   3.330   0.244
69256SOL     OW 9664   8.183   1.623  10.847
69256SOL    HW1 9665   8.112   1.672  10.807
69256SOL    HW2 9666   8.165   1.626  10.941
69257SOL     OW 9667   0.107   2.476  12.410
69257SOL    HW1 9668   0.166   2.424  12.466
69257SOL    HW2 9669   0.105   2.562  12.451
69258SOL     OW 9670  10.894  12.813  10.217
69258SOL    HW1 9671  10.886  12.857  10.132
69258SOL    HW2 9672  10.841  12.734  10.207
69259SOL     OW 9673   4.687  12.908   1.327
69259SOL    HW1 9674   4.701  12.996   1.363
69259SOL    HW2 9675   4.681  12.852   1.404
69260SOL     OW 9676  12.725   6.271   0.520
69260SOL    HW1 9677  12.662   6.327   0.475
69260SOL    HW2 9678  12.679   6.240   0.597
69261SOL     OW 9679   5.331   6.646  11.483
69261SOL    HW1 9680   5.408   6.595  11.459
69261SOL    HW2 9681   5.363   6.736  11.493
69262SOL     OW 9682   4.263   7.042   6.188
69262SOL    HW1 9683   4.232   6.965   6.139
69262SOL    HW2 9684   4.193   7.059   6.251
69263SOL     OW 9685  12.853   2.474  14.664
69263SOL    HW1 9686  12.828   2.436  14.579
69263SOL    HW2 9687  12.792   2.434  14.726
69264SOL     OW 9688  14.799  12.077   0.470
69264SOL    HW1 9689   0.010  12.066   0.445
69264SOL    HW2 9690  14.751  12.069   0.387
69265SOL     OW 9691  10.922  12.400   7.356
69265SOL    HW1 9692  10.911  12.362   7.269
69265SOL    HW2 9693  11.014  12.388   7.376
69266SOL     OW 9694   9.528  13.285   2.045
69266SOL    HW1 9695   9.441  13.290   2.084
69266SOL    HW2 9696   9.513  13.273   1.952
69267SOL     OW 9697   6.298   0.765  12.094
69267SOL    HW1 9698   6.222   0.708  12.107
69267SOL    HW2 9699   6.306   0.774  11.999
69268SOL     OW 9700   7.820   8.890  12.830
69268SOL    HW1 9701   7.743   8.874  12.776
69268SOL    HW2 9702   7.889   8.911  12.768
69269SOL     OW 9703   2.722   7.952  10.162
69269SOL    HW1 9704   2.664   7.938  10.236
69269SOL    HW2 9705   2.669   7.930  10.085
69270SOL     OW 9706  10.627  10.659  10.926
69270SOL    HW1 9707  10.662  10.571  10.940
69270SOL    HW2 9708  10.568  10.674  10.999
69271SOL     OW 9709   8.564   1.368   8.387
69271SOL    HW1 9710   8.619   1.446   8.378
69271SOL    HW2 9711   8.617   1.307   8.438
69272SOL     OW 9712  13.955  11.651   6.979
69272SOL    HW1 9713  13.911  11.717   7.032
69272SOL    HW2 9714  13.988  11.698   6.903
69273SOL     OW 9715   4.592   6.017   0.955
69273SOL    HW1 9716   4.545   5.974   1.027
69273SOL    HW2 9717   4.646   6.084   0.998
69274SOL     OW 9718   2.123  12.321   3.901
69274SOL    HW1 9719   2.198  12.353   3.851
69274SOL    HW2 9720   2.062  12.289   3.835
69275SOL     OW 9721  13.921   2.187   9.146
69275SOL    HW1 9722  13.913   2.242   9.069
69275SOL    HW2 9723  13.899   2.244   9.220
69276SOL     OW 9724   7.917   3.702   8.119
69276SOL    HW1 9725   7.948   3.612   8.124
69276SOL    HW2 9726   7.907   3.718   8.025
69277SOL     OW 9727   2.634  12.512   9.167
69277SOL    HW1 9728   2.544  12.482   9.173
69277SOL    HW2 9729   2.629  12.595   9.119
69278SOL     OW 9730  11.148   0.713   8.651
69278SOL    HW1 9731  11.131   0.693   8.743
69278SOL    HW2 9732  11.087   0.656   8.603
69279SOL     OW 9733  10.415  10.247  12.571
69279SOL    HW1 9734  10.393  10.159  12.600
69279SOL    HW2 9735  10.469  10.235  12.493
69280SOL     OW 9736   8.649   7.887  12.181
69280SOL    HW1 9737   8.711   7.958  12.196
69280SOL    HW2 9738   8.565   7.922  12.212
69281SOL     OW 9739   3.272  11.239  12.055
69281SOL    HW1 9740   3.330  11.201  11.988
69281SOL    HW2 9741   3.209  11.169  12.073
69282SOL     OW 9742  14.682   3.999   6.689
69282SOL    HW1 9743  14.611   3.996   6.624
69282SOL    HW2 9744  14.726   4.083   6.672
69283SOL     OW 9745  10.933  10.974   2.170
69283SOL    HW1 9746  10.904  11.020   2.092
69283SOL    HW2 9747  10.883  11.014   2.241
69284SOL     OW 9748   8.150  12.005  14.461
69284SOL    HW1 9749   8.205  12.043  14.393
69284SOL    HW2 9750   8.061  12.009  14.425
69285SOL     OW 9751  12.707   3.388   3.196
69285SOL    HW1 9752  12.657   3.451   3.144
69285SOL    HW2 9753  12.704   3.423   3.286
69286SOL     OW 9754   9.122   9.724  12.522
69286SOL    HW1 9755   9.160   9.708  12.608
69286SOL    HW2 9756   9.196   9.744  12.466
69287SOL     OW 9757   7.959   0.779  12.181
69287SOL    HW1 9758   7.960   0.870  12.151
69287SOL    HW2 9759   7.871   0.747  12.158
69288SOL     OW 9760  12.506   5.493   5.899
69288SOL    HW1 9761  12.445   5.556   5.862
69288SOL    HW2 9762  12.590   5.539   5.900
69289SOL     OW 9763   3.153  12.823   5.716
69289SOL    HW1 9764   3.113  12.739   5.740
69289SOL    HW2 9765   3.149  12.826   5.620
69290SOL     OW 9766   7.283  12.005   0.303
69290SOL    HW1 9767   7.249  12.044   0.222
69290SOL    HW2 9768   7.371  12.042   0.313
69291SOL     OW 9769   1.766  10.990  13.173
69291SOL    HW1 9770   1.788  11.083  13.168
69291SOL    HW2 9771   1.780  10.957  13.084
69292SOL     OW 9772  13.661   7.098   6.144
69292SOL    HW1 9773  13.641   7.116   6.236
69292SOL    HW2 9774  13.669   7.003   6.139
69293SOL     OW 9775   6.039   8.586  10.359
69293SOL    HW1 9776   5.964   8.556  10.411
69293SOL    HW2 9777   6.091   8.508  10.344
69294SOL     OW 9778   3.168   7.276  10.373
69294SOL    HW1 9779   3.184   7.297  10.282
69294SOL    HW2 9780   3.256   7.265  10.410
69295SOL     OW 9781   1.002   0.699   6.984
69295SOL    HW1 9782   0.961   0.616   7.009
69295SOL    HW2 9783   0.977   0.760   7.053
69296SOL     OW 9784   2.175  11.484   2.208
69296SOL    HW1 9785   2.229  11.408   2.189
69296SOL    HW2 9786   2.219  11.557   2.164
69297SOL     OW 9787   9.539   8.260   1.668
69297SOL    HW1 9788   9.521   8.186   1.725
69297SOL    HW2 9789   9.607   8.229   1.608
69298SOL     OW 9790   5.501   1.566  14.437
69298SOL    HW1 9791   5.460   1.486  14.404
69298SOL    HW2 9792   5.501   1.625  14.362
69299SOL     OW 9793   0.934   4.170   9.864
69299SOL    HW1 9794   1.019   4.205   9.837
69299SOL    HW2 9795   0.886   4.247   9.897
69300SOL     OW 9796   8.284  12.991  14.766
69300SOL    HW1 9797   8.245  13.036  14.691
69300SOL    HW2 9798   8.214  12.987  14.831
69301SOL     OW 9799   4.805   6.767  10.538
69301SOL    HW1 9800   4.747   6.710  10.589
69301SOL    HW2 9801   4.757   6.849  10.529
69302SOL     OW 9802  13.969  12.388   0.172
69302SOL    HW1 9803  14.028  12.434   0.113
69302SOL    HW2 9804  14.000  12.297   0.171
69303SOL     OW 9805   0.296   8.750  10.501
69303SOL    HW1 9806   0.205   8.773  10.485
69303SOL    HW2 9807   0.314   8.680  10.438
69304SOL     OW 9808   5.121   5.295   6.093
69304SOL    HW1 9809   5.148   5.359   6.159
69304SOL    HW2 9810   5.065   5.234   6.141
69305SOL     OW 9811   3.903  11.407  10.342
69305SOL    HW1 9812   3.846  11.352  10.288
69305SOL    HW2 9813   3.844  11.457  10.397
69306SOL     OW 9814   2.541   1.325   2.236
69306SOL    HW1 9815   2.617   1.311   2.180
69306SOL    HW2 9816   2.578   1.361   2.317
69307SOL     OW 9817   7.434  14.838   8.060
69307SOL    HW1 9818   7.445   0.053   8.058
69307SOL    HW2 9819   7.357  14.825   8.115
69308SOL     OW 9820   2.676   7.665   4.377
69308SOL    HW1 9821   2.595   7.615   4.385
69308SOL    HW2 9822   2.746   7.600   4.387
69309SOL     OW 9823   4.616   9.421   5.585
69309SOL    HW1 9824   4.610   9.355   5.515
69309SOL    HW2 9825   4.564   9.494   5.553
69310SOL     OW 9826   5.356  12.725   1.139
69310SOL    HW1 9827   5.434  12.673   1.157
69310SOL    HW2 9828   5.365  12.802   1.195
69311SOL     OW 9829   4.370   8.411  13.891
69311SOL    HW1 9830   4.340   8.349  13.825
69311SOL    HW2 9831   4.466   8.407  13.885
69312SOL     OW 9832  10.868   3.977   8.821
69312SOL    HW1 9833  10.793   4.037   8.826
69312SOL    HW2 9834  10.836   3.904   8.768
69313SOL     OW 9835   6.410   8.118   2.073
69313SOL    HW1 9836   6.355   8.159   2.006
69313SOL    HW2 9837   6.354   8.053   2.115
69314SOL     OW 9838  13.268   3.247   8.554
69314SOL    HW1 9839  13.192   3.245   8.612
69314SOL    HW2 9840  13.260   3.167   8.502
69315SOL     OW 9841  12.314   2.052  13.380
69315SOL    HW1 9842  12.238   2.020  13.333
69315SOL    HW2 9843  12.299   2.026  13.471
69316SOL     OW 9844   9.913  11.671   7.611
69316SOL    HW1 9845   9.864  11.627   7.541
69316SOL    HW2 9846   9.888  11.763   7.603
69317SOL     OW 9847   1.837  14.294   5.186
69317SOL    HW1 9848   1.807  14.248   5.265
69317SOL    HW2 9849   1.913  14.345   5.215
69318SOL     OW 9850   5.135   1.226   5.294
69318SOL    HW1 9851   5.229   1.211   5.284
69318SOL    HW2 9852   5.109   1.169   5.366
69319SOL     OW 9853  11.534  13.015   9.710
69319SOL    HW1 9854  11.566  12.968   9.633
69319SOL    HW2 9855  11.506  12.946   9.771
69320SOL     OW 9856   8.614   2.219   0.898
69320SOL    HW1 9857   8.582   2.137   0.936
69320SOL    HW2 9858   8.709   2.216   0.908
69321SOL     OW 9859   7.934   8.797   9.970
69321SOL    HW1 9860   7.930   8.892   9.961
69321SOL    HW2 9861   7.877   8.777  10.044
69322SOL     OW 9862   3.781   4.616  10.165
69322SOL    HW1 9863   3.762   4.554  10.235
69322SOL    HW2 9864   3.714   4.684  10.174
69323SOL     OW 9865  11.944   3.751  11.844
69323SOL    HW1 9866  12.003   3.678  11.826
69323SOL    HW2 9867  11.883   3.717  11.909
69324SOL     OW 9868  13.521   6.561  13.403
69324SOL    HW1 9869  13.488   6.622  13.469
69324SOL    HW2 9870  13.591   6.513  13.447
69325SOL     OW 9871  14.603   0.680   7.002
69325SOL    HW1 9872  14.659   0.602   7.010
69325SOL    HW2 9873  14.645   0.745   7.058
69326SOL     OW 9874   3.879   0.136   2.306
69326SOL    HW1 9875   3.810   0.115   2.368
69326SOL    HW2 9876   3.881   0.232   2.303
69327SOL     OW 9877   5.414   1.301  12.927
69327SOL    HW1 9878   5.392   1.347  13.009
69327SOL    HW2 9879   5.501   1.264  12.943
69328SOL     OW 9880  11.906   0.308  13.619
69328SOL    HW1 9881  11.979   0.246  13.616
69328SOL    HW2 9882  11.932   0.379  13.561
69329SOL     OW 9883   9.052   1.446   1.583
69329SOL    HW1 9884   8.995   1.374   1.553
69329SOL    HW2 9885   9.018   1.469   1.669
69330SOL     OW 9886  12.483  11.523   5.089
69330SOL    HW1 9887  12.563  11.488   5.127
69330SOL    HW2 9888  12.469  11.606   5.133
69331SOL     OW 9889   7.504  12.483   8.928
69331SOL    HW1 9890   7.443  12.539   8.975
69331SOL    HW2 9891   7.578  12.472   8.987
69332SOL     OW 9892   3.260   7.236   5.605
69332SOL    HW1 9893   3.299   7.306   5.552
69332SOL    HW2 9894   3.325   7.167   5.606
69333SOL     OW 9895   1.273   9.798  12.950
69333SOL    HW1 9896   1.242   9.888  12.964
69333SOL    HW2 9897   1.366   9.801  12.970
69334SOL     OW 9898  12.576  13.020  13.970
69334SOL    HW1 9899  12.527  12.995  14.049
69334SOL    HW2 9900  12.567  12.945  13.911
69335SOL     OW 9901   0.107   1.500  12.223
69335SOL    HW1 9902   0.132   1.421  12.271
69335SOL    HW2 9903   0.185   1.555  12.225
69336SOL     OW 9904  11.758  13.387   0.300
69336SOL    HW1 9905  11.800  13.466   0.333
69336SOL    HW2 9906  11.666  13.411   0.291
69337SOL     OW 9907   0.413   3.855  11.519
69337SOL    HW1 9908   0.484   3.856  11.454
69337SOL    HW2 9909   0.449   3.808  11.594
69338SOL     OW 9910  11.446   2.211  14.092
69338SOL    HW1 9911  11.485   2.255  14.167
69338SOL    HW2 9912  11.509   2.222  14.021
69339SOL     OW 9913  12.568  14.343   9.802
69339SOL    HW1 9914  12.643  14.331   9.744
69339SOL    HW2 9915  12.596  14.304   9.885
69340SOL     OW 9916   7.317   8.731  14.450
69340SOL    HW1 9917   7.362   8.686  14.522
69340SOL    HW2 9918   7.278   8.661  14.399
69341SOL     OW 9919   4.791   1.210  12.145
69341SOL    HW1 9920   4.860   1.269  12.175
69341SOL    HW2 9921   4.716   1.266  12.128
69342SOL     OW 9922   6.472   2.248   5.231
69342SOL    HW1 9923   6.537   2.213   5.293
69342SOL    HW2 9924   6.392   2.255   5.282
69343SOL     OW 9925  12.748   1.456   3.139
69343SOL    HW1 9926  12.815   1.523   3.157
69343SOL    HW2 9927  12.797   1.375   3.129
69344SOL     OW 9928  14.268   8.891  11.544
69344SOL    HW1 9929  14.283   8.880  11.450
69344SOL    HW2 9930  14.311   8.815  11.584
69345SOL     OW 9931  14.833   6.290   4.956
69345SOL    HW1 9932   0.030   6.269   4.903
69345SOL    HW2 9933  14.848   6.379   4.986
69346SOL     OW 9934  10.593   2.443  11.971
69346SOL    HW1 9935  10.667   2.387  11.946
69346SOL    HW2 9936  10.551   2.465  11.888
69347SOL     OW 9937   6.807  11.304  10.036
69347SOL    HW1 9938   6.842  11.279  10.122
69347SOL    HW2 9939   6.724  11.347  10.055
69348SOL     OW 9940   2.540   5.561   6.142
69348SOL    HW1 9941   2.601   5.629   6.168
69348SOL    HW2 9942   2.592   5.481   6.140
69349SOL     OW 9943   3.697  14.522   0.961
69349SOL    HW1 9944   3.789  14.539   0.980
69349SOL    HW2 9945   3.695  14.431   0.932
69350SOL     OW 9946   4.520  13.501   6.011
69350SOL    HW1 9947   4.517  13.477   6.104
69350SOL    HW2 9948   4.566  13.585   6.009
69351SOL     OW 9949  11.833   2.132   6.689
69351SOL    HW1 9950  11.854   2.160   6.600
69351SOL    HW2 9951  11.868   2.202   6.745
69352SOL     OW 9952   4.739   9.387   1.157
69352SOL    HW1 9953   4.702   9.468   1.192
69352SOL    HW2 9954   4.765   9.337   1.235
69353SOL     OW 9955  14.467   1.329  12.838
69353SOL    HW1 9956  14.496   1.275  12.765
69353SOL    HW2 9957  14.426   1.267  12.899
69354SOL     OW 9958  11.198   1.245  10.647
69354SOL    HW1 9959  11.239   1.253  10.734
69354SOL    HW2 9960  11.107   1.271  10.661
69355SOL     OW 9961  14.429  11.754   4.595
69355SOL    HW1 9962  14.345  11.762   4.641
69355SOL    HW2 9963  14.494  11.744   4.665
69356SOL     OW 9964  11.093  11.635   9.782
69356SOL    HW1 9965  11.086  11.539   9.781
69356SOL    HW2 9966  11.171  11.654   9.730
69357SOL     OW 9967   8.472   6.385   2.162
69357SOL    HW1 9968   8.476   6.289   2.162
69357SOL    HW2 9969   8.513   6.411   2.080
69358SOL     OW 9970   5.252   3.110  10.631
69358SOL    HW1 9971   5.272   3.190  10.583
69358SOL    HW2 9972   5.161   3.120  10.658
69359SOL     OW 9973  13.028  10.216   1.120
69359SOL    HW1 9974  12.935  10.239   1.118
69359SOL    HW2 9975  13.070  10.289   1.166
69360SOL     OW 9976   0.285   4.324   5.193
69360SOL    HW1 9977   0.219   4.302   5.258
69360SOL    HW2 9978   0.318   4.410   5.220
69361SOL     OW 9979   4.442  14.496   6.407
69361SOL    HW1 9980   4.492  14.562   6.359
69361SOL    HW2 9981   4.353  14.529   6.409
69362SOL     OW 9982  10.441  14.214   0.269
69362SOL    HW1 9983  10.512  14.152   0.251
69362SOL    HW2 9984  10.485  14.296   0.292
69363SOL     OW 9985   9.771   3.511   2.368
69363SOL    HW1 9986   9.857   3.492   2.406
69363SOL    HW2 9987   9.790   3.527   2.275
69364SOL     OW 9988  10.789  12.943   3.230
69364SOL    HW1 9989  10.828  12.878   3.171
69364SOL    HW2 9990  10.722  12.986   3.177
69365SOL     OW 9991   9.389   5.683   0.923
69365SOL    HW1 9992   9.374   5.702   0.830
69365SOL    HW2 9993   9.483   5.693   0.935
69366SOL     OW 9994  12.705  14.194  13.159
69366SOL    HW1 9995  12.774  14.144  13.116
69366SOL    HW2 9996  12.638  14.205  13.091
69367SOL     OW 9997   1.268  13.622   1.085
69367SOL    HW1 9998   1.349  13.620   1.033
69367SOL    HW2 9999   1.231  13.534   1.075
69368SOL     OW10000   8.167   8.785   7.369
69368SOL    HW110001   8.199   8.695   7.377
69368SOL    HW210002   8.125   8.803   7.453
69369SOL     OW10003   4.911  13.878   0.598
69369SOL    HW110004   4.991  13.834   0.571
69369SOL    HW210005   4.844  13.845   0.537
69370SOL     OW10006   2.172   2.773   3.772
69370SOL    HW110007   2.080   2.801   3.774
69370SOL    HW210008   2.207   2.810   3.691
69371SOL     OW10009  14.168   2.680   0.085
69371SOL    HW110010  14.087   2.728   0.069
69371SOL    HW210011  14.140   2.600   0.130
69372SOL     OW10012  10.153  11.180   4.284
69372SOL    HW110013  10.162  11.098   4.331
69372SOL    HW210014  10.172  11.159   4.193
69373SOL     OW10015   4.789  13.088   9.312
69373SOL    HW110016   4.715  13.147   9.301
69373SOL    HW210017   4.752  13.000   9.299
69374SOL     OW10018   0.710  10.269   9.166
69374SOL    HW110019   0.741  10.186   9.132
69374SOL    HW210020   0.744  10.274   9.255
69375SOL     OW10021  11.430   0.188   9.564
69375SOL    HW110022  11.451   0.231   9.646
69375SOL    HW210023  11.360   0.126   9.586
69376SOL     OW10024  14.426   5.678  13.043
69376SOL    HW110025  14.431   5.641  12.955
69376SOL    HW210026  14.494   5.632  13.092
69377SOL     OW10027   0.397  11.076  13.316
69377SOL    HW110028   0.469  11.064  13.378
69377SOL    HW210029   0.436  11.059  13.230
69378SOL     OW10030   3.697   4.830  12.184
69378SOL    HW110031   3.655   4.792  12.261
69378SOL    HW210032   3.682   4.766  12.115
69379SOL     OW10033   2.020   0.424  11.175
69379SOL    HW110034   1.988   0.510  11.149
69379SOL    HW210035   2.065   0.439  11.258
69380SOL     OW10036   6.854   2.164   4.756
69380SOL    HW110037   6.900   2.222   4.695
69380SOL    HW210038   6.768   2.204   4.768
69381SOL     OW10039   0.391   8.798   7.614
69381SOL    HW110040   0.451   8.739   7.569
69381SOL    HW210041   0.367   8.751   7.694
69382SOL     OW10042   8.451  10.618  11.985
69382SOL    HW110043   8.402  10.625  12.067
69382SOL    HW210044   8.540  10.594  12.011
69383SOL     OW10045   1.711   4.916   6.995
69383SOL    HW110046   1.797   4.937   6.958
69383SOL    HW210047   1.723   4.923   7.089
69384SOL     OW10048   3.990   7.206   0.184
69384SOL    HW110049   4.059   7.171   0.240
69384SOL    HW210050   3.940   7.265   0.240
69385SOL     OW10051   0.382  13.461  10.338
69385SOL    HW110052   0.339  13.409  10.269
69385SOL    HW210053   0.319  13.460  10.410
69386SOL     OW10054   9.774   5.095   8.139
69386SOL    HW110055   9.720   5.126   8.067
69386SOL    HW210056   9.862   5.089   8.103
69387SOL     OW10057  14.125   5.425   2.818
69387SOL    HW110058  14.111   5.348   2.763
69387SOL    HW210059  14.218   5.422   2.841
69388SOL     OW10060   4.903  14.518   1.346
69388SOL    HW110061   4.995  14.525   1.372
69388SOL    HW210062   4.884  14.425   1.352
69389SOL     OW10063  10.883   4.298   4.673
69389SOL    HW110064  10.793   4.265   4.669
69389SOL    HW210065  10.874   4.392   4.655
69390SOL     OW10066   2.629   5.823   6.945
69390SOL    HW110067   2.653   5.846   6.856
69390SOL    HW210068   2.678   5.743   6.964
69391SOL     OW10069  13.004   3.614   5.238
69391SOL    HW110070  13.058   3.683   5.200
69391SOL    HW210071  13.057   3.581   5.311
69392SOL     OW10072   9.720   1.805   4.969
69392SOL    HW110073   9.779   1.734   4.944
69392SOL    HW210074   9.734   1.817   5.063
69393SOL     OW10075   8.677   3.509   8.428
69393SOL    HW110076   8.698   3.592   8.386
69393SOL    HW210077   8.744   3.498   8.496
69394SOL     OW10078  13.518   1.624   2.942
69394SOL    HW110079  13.519   1.690   2.873
69394SOL    HW210080  13.498   1.673   3.022
69395SOL     OW10081   4.190  11.522   4.042
69395SOL    HW110082   4.145  11.464   3.981
69395SOL    HW210083   4.263  11.470   4.075
69396SOL     OW10084  12.377   5.505  14.500
69396SOL    HW110085  12.301   5.557  14.527
69396SOL    HW210086  12.419   5.479  14.582
69397SOL     OW10087  14.384  12.670   5.992
69397SOL    HW110088  14.315  12.671   6.059
69397SOL    HW210089  14.339  12.649   5.911
69398SOL     OW10090  14.709  14.430   1.027
69398SOL    HW110091  14.760  14.496   0.980
69398SOL    HW210092  14.643  14.402   0.964
69399SOL     OW10093  12.726   8.249   2.804
69399SOL    HW110094  12.654   8.312   2.799
69399SOL    HW210095  12.685   8.165   2.784
69400SOL     OW10096   1.055  11.005  13.245
69400SOL    HW110097   0.963  10.997  13.216
69400SOL    HW210098   1.058  11.090  13.290
69401SOL     OW10099   8.506   6.138  13.221
69401SOL    HW110100   8.539   6.048  13.229
69401SOL    HW210101   8.412   6.128  13.209
69402SOL     OW10102   9.694   5.454   7.866
69402SOL    HW110103   9.622   5.511   7.842
69402SOL    HW210104   9.768   5.485   7.813
69403SOL     OW10105   2.332  10.348   7.314
69403SOL    HW110106   2.345  10.374   7.222
69403SOL    HW210107   2.256  10.399   7.342
69404SOL     OW10108   4.362   7.769   6.357
69404SOL    HW110109   4.341   7.734   6.271
69404SOL    HW210110   4.433   7.832   6.341
69405SOL     OW10111   5.858   8.679   4.620
69405SOL    HW110112   5.876   8.672   4.526
69405SOL    HW210113   5.912   8.610   4.659
69406SOL     OW10114   6.029   4.337  12.629
69406SOL    HW110115   5.941   4.303  12.643
69406SOL    HW210116   6.020   4.398  12.555
69407SOL     OW10117  11.864   4.978   1.429
69407SOL    HW110118  11.842   5.068   1.404
69407SOL    HW210119  11.919   4.987   1.507
69408SOL     OW10120   2.773   2.188  14.805
69408SOL    HW110121   2.816   2.177   0.009
69408SOL    HW210122   2.745   2.280  14.803
69409SOL     OW10123  13.808  14.545   6.562
69409SOL    HW110124  13.758  14.562   6.642
69409SOL    HW210125  13.897  14.575   6.582
69410SOL     OW10126  12.309   9.425   6.317
69410SOL    HW110127  12.313   9.499   6.257
69410SOL    HW210128  12.245   9.365   6.277
69411SOL     OW10129   9.293   3.946   9.540
69411SOL    HW110130   9.277   4.024   9.593
69411SOL    HW210131   9.361   3.973   9.478
69412SOL     OW10132   2.712  13.009   7.136
69412SOL    HW110133   2.701  13.092   7.090
69412SOL    HW210134   2.771  13.028   7.208
69413SOL     OW10135   7.148  11.480  11.392
69413SOL    HW110136   7.205  11.556  11.384
69413SOL    HW210137   7.191  11.424  11.457
69414SOL     OW10138   6.984   8.826   2.011
69414SOL    HW110139   6.929   8.753   2.040
69414SOL    HW210140   7.046   8.839   2.083
69415SOL     OW10141   1.449   0.897  11.724
69415SOL    HW110142   1.369   0.949  11.727
69415SOL    HW210143   1.450   0.860  11.635
69416SOL     OW10144   3.435   7.695  10.688
69416SOL    HW110145   3.423   7.706  10.782
69416SOL    HW210146   3.528   7.678  10.677
69417SOL     OW10147   7.712   0.785   3.394
69417SOL    HW110148   7.773   0.713   3.377
69417SOL    HW210149   7.743   0.823   3.477
69418SOL     OW10150   9.100  11.446   2.613
69418SOL    HW110151   9.119  11.540   2.620
69418SOL    HW210152   9.005  11.441   2.623
69419SOL     OW10153   7.810   1.165   8.590
69419SOL    HW110154   7.900   1.195   8.576
69419SOL    HW210155   7.787   1.118   8.510
69420SOL     OW10156   2.184  11.333  13.485
69420SOL    HW110157   2.091  11.328  13.461
69420SOL    HW210158   2.228  11.279  13.420
69421SOL     OW10159   1.971   2.221  14.360
69421SOL    HW110160   2.002   2.212  14.450
69421SOL    HW210161   2.019   2.297  14.326
69422SOL     OW10162   7.009  11.556   0.262
69422SOL    HW110163   7.052  11.633   0.223
69422SOL    HW210164   7.060  11.482   0.230
69423SOL     OW10165   0.276  12.871  14.195
69423SOL    HW110166   0.367  12.891  14.214
69423SOL    HW210167   0.236  12.955  14.173
69424SOL     OW10168   0.516   5.547   7.779
69424SOL    HW110169   0.462   5.469   7.791
69424SOL    HW210170   0.592   5.517   7.729
69425SOL     OW10171   0.114  11.543   7.607
69425SOL    HW110172   0.095  11.459   7.565
69425SOL    HW210173   0.031  11.571   7.645
69426SOL     OW10174   1.426   9.511   1.163
69426SOL    HW110175   1.507   9.553   1.134
69426SOL    HW210176   1.364   9.582   1.174
69427SOL     OW10177   0.601   0.953   3.371
69427SOL    HW110178   0.649   1.027   3.334
69427SOL    HW210179   0.541   0.992   3.435
69428SOL     OW10180  14.757   9.180   1.536
69428SOL    HW110181  14.703   9.233   1.594
69428SOL    HW210182  14.720   9.195   1.448
69429SOL     OW10183   9.392   5.291   3.537
69429SOL    HW110184   9.455   5.241   3.588
69429SOL    HW210185   9.443   5.361   3.495
69430SOL     OW10186  14.537   6.824   4.513
69430SOL    HW110187  14.589   6.829   4.593
69430SOL    HW210188  14.571   6.895   4.458
69431SOL     OW10189   1.583  14.092  13.225
69431SOL    HW110190   1.552  14.002  13.223
69431SOL    HW210191   1.518  14.139  13.277
69432SOL     OW10192   7.912  12.297  10.992
69432SOL    HW110193   7.816  12.295  10.984
69432SOL    HW210194   7.932  12.386  11.022
69433SOL     OW10195   4.184   5.027   1.582
69433SOL    HW110196   4.198   5.083   1.658
69433SOL    HW210197   4.104   4.978   1.601
69434SOL     OW10198  14.565  12.806  12.141
69434SOL    HW110199  14.491  12.861  12.116
69434SOL    HW210200  14.572  12.815  12.236
69435SOL     OW10201   8.344  13.832   1.750
69435SOL    HW110202   8.428  13.861   1.786
69435SOL    HW210203   8.331  13.744   1.785
69436SOL     OW10204  12.021  11.246   2.272
69436SOL    HW110205  12.004  11.316   2.209
69436SOL    HW210206  12.103  11.272   2.315
69437SOL     OW10207   3.379   2.778   4.390
69437SOL    HW110208   3.393   2.688   4.420
69437SOL    HW210209   3.464   2.821   4.403
69438SOL     OW10210  11.037   4.799   3.394
69438SOL    HW110211  11.103   4.837   3.452
69438SOL    HW210212  10.968   4.768   3.453
69439SOL     OW10213   7.585   2.645   0.330
69439SOL    HW110214   7.666   2.603   0.302
69439SOL    HW210215   7.552   2.590   0.400
69440SOL     OW10216   3.687   5.424  13.806
69440SOL    HW110217   3.634   5.374  13.745
69440SOL    HW210218   3.743   5.358  13.848
69441SOL     OW10219   1.438   9.065   9.459
69441SOL    HW110220   1.366   9.109   9.414
69441SOL    HW210221   1.517   9.102   9.420
69442SOL     OW10222   5.915  14.218   0.156
69442SOL    HW110223   5.976  14.148   0.134
69442SOL    HW210224   5.854  14.222   0.082
69443SOL     OW10225   3.680  12.570   9.166
69443SOL    HW110226   3.676  12.506   9.095
69443SOL    HW210227   3.677  12.655   9.122
69444SOL     OW10228  11.168  11.204  13.822
69444SOL    HW110229  11.073  11.197  13.829
69444SOL    HW210230  11.192  11.134  13.761
69445SOL     OW10231  13.585   8.401  14.839
69445SOL    HW110232  13.521   8.348  14.792
69445SOL    HW210233  13.636   8.337   0.010
69446SOL     OW10234  13.469   5.597   0.999
69446SOL    HW110235  13.506   5.560   0.919
69446SOL    HW210236  13.389   5.546   1.014
69447SOL     OW10237   2.869   9.155  13.552
69447SOL    HW110238   2.963   9.135  13.557
69447SOL    HW210239   2.826   9.069  13.557
69448SOL     OW10240   5.473   9.353   2.891
69448SOL    HW110241   5.477   9.342   2.986
69448SOL    HW210242   5.501   9.443   2.875
69449SOL     OW10243   1.128  12.767   3.524
69449SOL    HW110244   1.072  12.808   3.590
69449SOL    HW210245   1.074  12.768   3.445
69450SOL     OW10246   1.156  14.092   2.453
69450SOL    HW110247   1.071  14.121   2.486
69450SOL    HW210248   1.159  14.124   2.363
69451SOL     OW10249  11.275   7.404   4.904
69451SOL    HW110250  11.312   7.396   4.816
69451SOL    HW210251  11.181   7.417   4.889
69452SOL     OW10252  11.558   9.109   6.775
69452SOL    HW110253  11.482   9.158   6.745
69452SOL    HW210254  11.579   9.146   6.861
69453SOL     OW10255   0.449  12.073   8.591
69453SOL    HW110256   0.450  12.037   8.680
69453SOL    HW210257   0.357  12.066   8.563
69454SOL     OW10258   9.577   9.910  14.720
69454SOL    HW110259   9.616   9.910  14.808
69454SOL    HW210260   9.649   9.935  14.662
69455SOL     OW10261   5.638   1.721   8.027
69455SOL    HW110262   5.607   1.637   7.996
69455SOL    HW210263   5.722   1.733   7.983
69456SOL     OW10264   4.098   9.717   1.042
69456SOL    HW110265   4.035   9.647   1.024
69456SOL    HW210266   4.102   9.721   1.138
69457SOL     OW10267   8.080   8.272  13.598
69457SOL    HW110268   8.063   8.254  13.506
69457SOL    HW210269   7.996   8.258  13.642
69458SOL     OW10270   6.150  10.457   6.842
69458SOL    HW110271   6.110  10.467   6.756
69458SOL    HW210272   6.141  10.364   6.862
69459SOL     OW10273   8.656  12.641  13.246
69459SOL    HW110274   8.728  12.580  13.229
69459SOL    HW210275   8.584  12.585  13.276
69460SOL     OW10276   6.183   7.547   0.353
69460SOL    HW110277   6.189   7.591   0.438
69460SOL    HW210278   6.261   7.493   0.348
69461SOL     OW10279   8.193  12.930   2.472
69461SOL    HW110280   8.117  12.923   2.529
69461SOL    HW210281   8.187  13.018   2.435
69462SOL     OW10282  12.317  10.916   0.388
69462SOL    HW110283  12.358  10.856   0.450
69462SOL    HW210284  12.377  10.918   0.313
69463SOL     OW10285   7.932   3.653   7.573
69463SOL    HW110286   7.925   3.580   7.511
69463SOL    HW210287   7.905   3.730   7.523
69464SOL     OW10288   7.528   6.845   7.631
69464SOL    HW110289   7.481   6.888   7.559
69464SOL    HW210290   7.493   6.756   7.632
69465SOL     OW10291   8.114  12.782   7.852
69465SOL    HW110292   8.052  12.781   7.926
69465SOL    HW210293   8.059  12.777   7.774
69466SOL     OW10294   5.776   0.145  11.817
69466SOL    HW110295   5.854   0.109  11.860
69466SOL    HW210296   5.760   0.087  11.743
69467SOL     OW10297  13.816   7.727   1.497
69467SOL    HW110298  13.726   7.697   1.485
69467SOL    HW210299  13.818   7.764   1.585
69468SOL     OW10300   7.291   2.253   5.905
69468SOL    HW110301   7.225   2.196   5.945
69468SOL    HW210302   7.243   2.301   5.838
69469SOL     OW10303   8.619   6.049  14.332
69469SOL    HW110304   8.649   6.068  14.421
69469SOL    HW210305   8.535   6.006  14.344
69470SOL     OW10306   4.802   5.388  12.951
69470SOL    HW110307   4.822   5.440  13.029
69470SOL    HW210308   4.721   5.426  12.917
69471SOL     OW10309   2.029   9.353   8.882
69471SOL    HW110310   2.035   9.447   8.897
69471SOL    HW210311   2.109   9.331   8.833
69472SOL     OW10312  10.981   5.854  12.918
69472SOL    HW110313  11.060   5.812  12.954
69472SOL    HW210314  10.937   5.783  12.870
69473SOL     OW10315   6.991  10.847   6.631
69473SOL    HW110316   6.896  10.839   6.630
69473SOL    HW210317   7.023  10.758   6.617
69474SOL     OW10318   4.325   6.257  14.809
69474SOL    HW110319   4.248   6.262  14.752
69474SOL    HW210320   4.306   6.184  14.868
69475SOL     OW10321   8.043   4.874   3.136
69475SOL    HW110322   8.029   4.852   3.228
69475SOL    HW210323   8.136   4.854   3.120
69476SOL     OW10324   5.529  11.454  10.778
69476SOL    HW110325   5.588  11.379  10.781
69476SOL    HW210326   5.441  11.416  10.776
69477SOL     OW10327   0.419   9.717  13.083
69477SOL    HW110328   0.466   9.768  13.017
69477SOL    HW210329   0.329   9.751  13.080
69478SOL     OW10330   1.872  12.224  13.333
69478SOL    HW110331   1.866  12.320  13.339
69478SOL    HW210332   1.965  12.206  13.345
69479SOL     OW10333   0.488   6.976   1.081
69479SOL    HW110334   0.570   7.013   1.049
69479SOL    HW210335   0.464   6.910   1.015
69480SOL     OW10336   8.754   7.819   6.023
69480SOL    HW110337   8.729   7.731   6.049
69480SOL    HW210338   8.678   7.854   5.977
69481SOL     OW10339   5.007   1.521   9.600
69481SOL    HW110340   5.051   1.441   9.571
69481SOL    HW210341   5.071   1.564   9.657
69482SOL     OW10342   4.477   1.874  13.952
69482SOL    HW110343   4.530   1.888  13.873
69482SOL    HW210344   4.442   1.786  13.942
69483SOL     OW10345   0.524   2.737  10.710
69483SOL    HW110346   0.442   2.701  10.674
69483SOL    HW210347   0.496   2.814  10.759
69484SOL     OW10348  10.948   0.319   8.981
69484SOL    HW110349  10.902   0.403   8.987
69484SOL    HW210350  10.979   0.303   9.070
69485SOL     OW10351   0.870  11.682  11.786
69485SOL    HW110352   0.964  11.681  11.768
69485SOL    HW210353   0.836  11.605  11.740
69486SOL     OW10354   5.618   3.421   6.394
69486SOL    HW110355   5.674   3.344   6.403
69486SOL    HW210356   5.674   3.494   6.422
69487SOL     OW10357  12.744   8.263   2.222
69487SOL    HW110358  12.747   8.183   2.169
69487SOL    HW210359  12.661   8.304   2.199
69488SOL     OW10360  13.051   5.744   5.728
69488SOL    HW110361  13.125   5.797   5.699
69488SOL    HW210362  12.985   5.755   5.659
69489SOL     OW10363   5.256   5.580   2.773
69489SOL    HW110364   5.243   5.505   2.715
69489SOL    HW210365   5.225   5.550   2.858
69490SOL     OW10366   0.712   7.012  14.308
69490SOL    HW110367   0.657   6.933  14.309
69490SOL    HW210368   0.795   6.983  14.347
69491SOL     OW10369   7.143  14.314   1.932
69491SOL    HW110370   7.105  14.357   1.855
69491SOL    HW210371   7.099  14.228   1.935
69492SOL     OW10372   6.223  10.453   4.348
69492SOL    HW110373   6.272  10.416   4.275
69492SOL    HW210374   6.291  10.494   4.403
69493SOL     OW10375   5.737  13.469   7.786
69493SOL    HW110376   5.770  13.532   7.722
69493SOL    HW210377   5.649  13.501   7.808
69494SOL     OW10378   0.848   9.724  14.358
69494SOL    HW110379   0.850   9.811  14.317
69494SOL    HW210380   0.919   9.676  14.316
69495SOL     OW10381   0.473  10.699  10.396
69495SOL    HW110382   0.418  10.683  10.472
69495SOL    HW210383   0.451  10.628  10.335
69496SOL     OW10384  14.552   1.037  10.318
69496SOL    HW110385  14.483   0.985  10.278
69496SOL    HW210386  14.581   1.096  10.248
69497SOL     OW10387  14.747   3.130   9.090
69497SOL    HW110388  14.691   3.164   9.160
69497SOL    HW210389  14.688   3.078   9.035
69498SOL     OW10390   1.126   2.215  12.559
69498SOL    HW110391   1.099   2.127  12.535
69498SOL    HW210392   1.052   2.271  12.532
69499SOL     OW10393   2.884   7.181   0.612
69499SOL    HW110394   2.847   7.269   0.602
69499SOL    HW210395   2.818   7.132   0.661
69500SOL     OW10396  14.259   0.051   0.608
69500SOL    HW110397  14.236   0.019   0.521
69500SOL    HW210398  14.208   0.131   0.619
69501SOL     OW10399   1.359   5.834  14.506
69501SOL    HW110400   1.451   5.811  14.520
69501SOL    HW210401   1.355   5.927  14.529
69502SOL     OW10402   2.934   9.235   7.333
69502SOL    HW110403   2.930   9.331   7.339
69502SOL    HW210404   3.028   9.216   7.329
69503SOL     OW10405   3.843   9.036   6.012
69503SOL    HW110406   3.867   9.059   6.101
69503SOL    HW210407   3.865   8.943   6.004
69504SOL     OW10408   2.425   1.056   1.436
69504SOL    HW110409   2.385   1.014   1.512
69504SOL    HW210410   2.485   1.122   1.473
69505SOL     OW10411   5.193   3.923   4.362
69505SOL    HW110412   5.217   4.015   4.374
69505SOL    HW210413   5.178   3.915   4.268
69506SOL     OW10414   0.824  13.602   9.756
69506SOL    HW110415   0.779  13.518   9.764
69506SOL    HW210416   0.808  13.645   9.840
69507SOL     OW10417  14.084   1.564  11.499
69507SOL    HW110418  14.050   1.475  11.506
69507SOL    HW210419  14.159   1.566  11.558
69508SOL     OW10420  11.782   2.114   5.061
69508SOL    HW110421  11.708   2.084   5.114
69508SOL    HW210422  11.797   2.204   5.090
69509SOL     OW10423   9.869   4.888   7.786
69509SOL    HW110424   9.798   4.833   7.753
69509SOL    HW210425   9.944   4.866   7.731
69510SOL     OW10426   6.192   2.004   5.154
69510SOL    HW110427   6.123   2.070   5.149
69510SOL    HW210428   6.150   1.927   5.192
69511SOL     OW10429  14.580  14.568   3.018
69511SOL    HW110430  14.643  14.577   2.947
69511SOL    HW210431  14.609  14.631   3.084
69512SOL     OW10432   5.071   2.795   4.410
69512SOL    HW110433   4.988   2.836   4.435
69512SOL    HW210434   5.045   2.722   4.353
69513SOL     OW10435  13.777  11.579   5.316
69513SOL    HW110436  13.695  11.569   5.365
69513SOL    HW210437  13.802  11.490   5.293
69514SOL     OW10438   8.162   5.911  11.048
69514SOL    HW110439   8.223   5.958  10.992
69514SOL    HW210440   8.129   5.977  11.109
69515SOL     OW10441   0.281  14.400   4.218
69515SOL    HW110442   0.195  14.361   4.235
69515SOL    HW210443   0.343  14.335   4.252
69516SOL     OW10444   4.603   5.427   1.573
69516SOL    HW110445   4.627   5.491   1.505
69516SOL    HW210446   4.674   5.434   1.637
69517SOL     OW10447  13.029   5.784  13.830
69517SOL    HW110448  12.984   5.773  13.914
69517SOL    HW210449  13.122   5.770  13.851
69518SOL     OW10450   2.501   0.672   2.288
69518SOL    HW110451   2.531   0.584   2.308
69518SOL    HW210452   2.491   0.674   2.193
69519SOL     OW10453   5.503  11.517   1.015
69519SOL    HW110454   5.580  11.469   0.986
69519SOL    HW210455   5.430  11.456   1.001
69520SOL     OW10456   2.387   4.554   8.235
69520SOL    HW110457   2.434   4.638   8.236
69520SOL    HW210458   2.377   4.531   8.327
69521SOL     OW10459  10.629   3.721   7.412
69521SOL    HW110460  10.619   3.798   7.467
69521SOL    HW210461  10.699   3.745   7.350
69522SOL     OW10462   8.400   3.421   5.261
69522SOL    HW110463   8.488   3.438   5.228
69522SOL    HW210464   8.410   3.421   5.357
69523SOL     OW10465  10.379   0.538   7.390
69523SOL    HW110466  10.290   0.534   7.424
69523SOL    HW210467  10.387   0.461   7.333
69524SOL     OW10468  14.574   0.505   5.586
69524SOL    HW110469  14.614   0.504   5.499
69524SOL    HW210470  14.627   0.445   5.638
69525SOL     OW10471  14.837  13.751   2.216
69525SOL    HW110472  14.782  13.828   2.203
69525SOL    HW210473  14.785  13.693   2.272
69526SOL     OW10474  13.215   5.522   8.135
69526SOL    HW110475  13.212   5.611   8.100
69526SOL    HW210476  13.303   5.492   8.117
69527SOL     OW10477  13.748  11.843  10.900
69527SOL    HW110478  13.742  11.803  10.813
69527SOL    HW210479  13.735  11.936  10.884
69528SOL     OW10480  11.484   9.901  12.382
69528SOL    HW110481  11.519   9.894  12.293
69528SOL    HW210482  11.404   9.849  12.381
69529SOL     OW10483   2.087   6.164   0.606
69529SOL    HW110484   2.041   6.122   0.532
69529SOL    HW210485   2.038   6.245   0.621
69530SOL     OW10486  13.467   3.588  11.523
69530SOL    HW110487  13.481   3.682  11.535
69530SOL    HW210488  13.378   3.573  11.553
69531SOL     OW10489   5.188   5.377   3.650
69531SOL    HW110490   5.260   5.394   3.711
69531SOL    HW210491   5.110   5.375   3.705
69532SOL     OW10492  11.280   3.507   1.683
69532SOL    HW110493  11.355   3.547   1.639
69532SOL    HW210494  11.233   3.580   1.722
69533SOL     OW10495   5.044  11.543   9.695
69533SOL    HW110496   5.118  11.602   9.686
69533SOL    HW210497   5.080  11.456   9.678
69534SOL     OW10498   5.020   4.987  10.729
69534SOL    HW110499   5.037   4.964  10.821
69534SOL    HW210500   4.932   5.025  10.730
69535SOL     OW10501   8.398   2.409   3.423
69535SOL    HW110502   8.466   2.473   3.441
69535SOL    HW210503   8.418   2.376   3.335
69536SOL     OW10504   2.883  10.333   7.204
69536SOL    HW110505   2.858  10.276   7.277
69536SOL    HW210506   2.800  10.368   7.172
69537SOL     OW10507  14.289   6.283  14.801
69537SOL    HW110508  14.250   6.329  14.727
69537SOL    HW210509  14.214   6.240  14.844
69538SOL     OW10510  10.220  14.116   0.594
69538SOL    HW110511  10.314  14.101   0.606
69538SOL    HW210512  10.185  14.030   0.571
69539SOL     OW10513   3.630   9.978  14.716
69539SOL    HW110514   3.588  10.042  14.658
69539SOL    HW210515   3.579   9.897  14.703
69540SOL     OW10516  13.057   2.101   0.826
69540SOL    HW110517  13.017   2.136   0.906
69540SOL    HW210518  13.116   2.033   0.857
69541SOL     OW10519   2.694   1.696  14.463
69541SOL    HW110520   2.737   1.732  14.386
69541SOL    HW210521   2.731   1.745  14.537
69542SOL     OW10522   5.500   0.685   7.457
69542SOL    HW110523   5.410   0.684   7.424
69542SOL    HW210524   5.508   0.604   7.507
69543SOL     OW10525  11.752  11.327  11.493
69543SOL    HW110526  11.756  11.343  11.587
69543SOL    HW210527  11.839  11.351  11.461
69544SOL     OW10528   0.096   5.016   6.554
69544SOL    HW110529   0.183   5.047   6.530
69544SOL    HW210530   0.059   5.087   6.606
69545SOL     OW10531   1.583  10.704   1.236
69545SOL    HW110532   1.489  10.718   1.251
69545SOL    HW210533   1.586  10.633   1.172
69546SOL     OW10534  11.864   0.372   7.635
69546SOL    HW110535  11.772   0.373   7.661
69546SOL    HW210536  11.878   0.285   7.598
69547SOL     OW10537  12.351   1.401   4.108
69547SOL    HW110538  12.267   1.394   4.155
69547SOL    HW210539  12.411   1.440   4.171
69548SOL     OW10540  13.247   7.002   0.332
69548SOL    HW110541  13.187   7.058   0.283
69548SOL    HW210542  13.194   6.927   0.358
69549SOL     OW10543  10.851   1.366  12.510
69549SOL    HW110544  10.834   1.317  12.429
69549SOL    HW210545  10.939   1.401  12.499
69550SOL     OW10546  12.640   5.303   1.357
69550SOL    HW110547  12.549   5.288   1.331
69550SOL    HW210548  12.671   5.371   1.298
69551SOL     OW10549   6.619  13.577   1.161
69551SOL    HW110550   6.696  13.520   1.157
69551SOL    HW210551   6.625  13.631   1.083
69552SOL     OW10552  10.123   9.328  11.000
69552SOL    HW110553  10.075   9.354  11.078
69552SOL    HW210554  10.119   9.232  11.000
69553SOL     OW10555  13.301   0.194   1.262
69553SOL    HW110556  13.240   0.120   1.260
69553SOL    HW210557  13.245   0.271   1.260
69554SOL     OW10558   0.899  10.914   0.049
69554SOL    HW110559   0.994  10.912   0.058
69554SOL    HW210560   0.884  10.943  14.839
69555SOL     OW10561  12.365   7.569   5.878
69555SOL    HW110562  12.326   7.617   5.805
69555SOL    HW210563  12.291   7.531   5.925
69556SOL     OW10564   1.928   0.214  13.358
69556SOL    HW110565   1.835   0.235  13.353
69556SOL    HW210566   1.968   0.265  13.287
69557SOL     OW10567  11.492   0.219   1.063
69557SOL    HW110568  11.398   0.240   1.062
69557SOL    HW210569  11.505   0.169   0.982
69558SOL     OW10570   8.638  12.005  12.500
69558SOL    HW110571   8.559  12.043  12.463
69558SOL    HW210572   8.651  11.924  12.450
69559SOL     OW10573   2.305  13.369   5.910
69559SOL    HW110574   2.352  13.303   5.962
69559SOL    HW210575   2.374  13.427   5.877
69560SOL     OW10576   9.716   4.271  14.468
69560SOL    HW110577   9.674   4.345  14.423
69560SOL    HW210578   9.675   4.193  14.431
69561SOL     OW10579  11.753   0.352  10.411
69561SOL    HW110580  11.687   0.311  10.354
69561SOL    HW210581  11.714   0.351  10.498
69562SOL     OW10582  11.122   0.958   8.020
69562SOL    HW110583  11.190   0.994   8.077
69562SOL    HW210584  11.118   1.019   7.946
69563SOL     OW10585   2.286  12.926   1.492
69563SOL    HW110586   2.363  12.966   1.450
69563SOL    HW210587   2.296  12.947   1.585
69564SOL     OW10588  10.709  13.956   8.499
69564SOL    HW110589  10.705  14.013   8.421
69564SOL    HW210590  10.778  13.994   8.552
69565SOL     OW10591   8.119   9.533   9.871
69565SOL    HW110592   8.080   9.573   9.793
69565SOL    HW210593   8.076   9.448   9.878
69566SOL     OW10594   8.993   5.609  14.393
69566SOL    HW110595   8.918   5.562  14.428
69566SOL    HW210596   9.061   5.599  14.459
69567SOL     OW10597  11.001   5.852  13.405
69567SOL    HW110598  11.029   5.760  13.397
69567SOL    HW210599  11.018   5.873  13.497
69568SOL     OW10600   3.939   8.449   5.482
69568SOL    HW110601   4.029   8.475   5.463
69568SOL    HW210602   3.947   8.390   5.557
69569SOL     OW10603   6.423   5.304  14.461
69569SOL    HW110604   6.387   5.384  14.498
69569SOL    HW210605   6.346   5.256  14.429
69570SOL     OW10606   4.879   5.300  14.735
69570SOL    HW110607   4.900   5.271  14.823
69570SOL    HW210608   4.911   5.390  14.731
69571SOL     OW10609  11.511   5.343   0.794
69571SOL    HW110610  11.432   5.396   0.784
69571SOL    HW210611  11.503   5.275   0.726
69572SOL     OW10612   5.839  14.496   6.129
69572SOL    HW110613   5.917  14.452   6.096
69572SOL    HW210614   5.777  14.426   6.146
69573SOL     OW10615  13.753   3.037   7.674
69573SOL    HW110616  13.677   3.062   7.622
69573SOL    HW210617  13.729   2.953   7.713
69574SOL     OW10618  14.335  11.645   8.783
69574SOL    HW110619  14.316  11.657   8.876
69574SOL    HW210620  14.418  11.690   8.770
69575SOL     OW10621   8.003   3.478   3.966
69575SOL    HW110622   7.948   3.556   3.960
69575SOL    HW210623   8.074   3.504   4.025
69576SOL     OW10624   6.393   1.724   9.337
69576SOL    HW110625   6.438   1.808   9.347
69576SOL    HW210626   6.320   1.729   9.399
69577SOL     OW10627  13.073   3.862   0.148
69577SOL    HW110628  13.022   3.942   0.158
69577SOL    HW210629  13.009   3.796   0.122
69578SOL     OW10630  14.391   7.837   4.662
69578SOL    HW110631  14.423   7.901   4.599
69578SOL    HW210632  14.307   7.808   4.626
69579SOL     OW10633  11.698   2.035  11.135
69579SOL    HW110634  11.652   2.118  11.148
69579SOL    HW210635  11.790   2.059  11.127
69580SOL     OW10636   0.829   3.112   8.520
69580SOL    HW110637   0.793   3.139   8.604
69580SOL    HW210638   0.837   3.194   8.470
69581SOL     OW10639   8.119   6.098  12.842
69581SOL    HW110640   8.053   6.089  12.774
69581SOL    HW210641   8.148   6.009  12.860
69582SOL     OW10642   2.544  12.422   7.127
69582SOL    HW110643   2.586  12.363   7.189
69582SOL    HW210644   2.471  12.371   7.091
69583SOL     OW10645   0.196   4.230   7.208
69583SOL    HW110646   0.242   4.272   7.135
69583SOL    HW210647   0.178   4.301   7.270
69584SOL     OW10648   7.370   3.283  11.196
69584SOL    HW110649   7.355   3.297  11.102
69584SOL    HW210650   7.465   3.282  11.205
69585SOL     OW10651   2.210   3.778  12.747
69585SOL    HW110652   2.151   3.742  12.813
69585SOL    HW210653   2.275   3.828  12.796
69586SOL     OW10654   5.321   4.365  11.283
69586SOL    HW110655   5.268   4.315  11.221
69586SOL    HW210656   5.379   4.300  11.323
69587SOL     OW10657   8.638  10.475   1.553
69587SOL    HW110658   8.551  10.485   1.513
69587SOL    HW210659   8.657  10.382   1.545
69588SOL     OW10660   3.261   9.248   8.097
69588SOL    HW110661   3.292   9.309   8.164
69588SOL    HW210662   3.225   9.304   8.028
69589SOL     OW10663  12.756  11.248  12.993
69589SOL    HW110664  12.680  11.269  12.939
69589SOL    HW210665  12.811  11.193  12.937
69590SOL     OW10666   1.090  13.669   6.306
69590SOL    HW110667   1.142  13.696   6.229
69590SOL    HW210668   1.050  13.586   6.279
69591SOL     OW10669   9.587   5.165  14.194
69591SOL    HW110670   9.498   5.189  14.170
69591SOL    HW210671   9.624   5.245  14.232
69592SOL     OW10672   0.001   5.978  10.367
69592SOL    HW110673  14.796   6.004  10.331
69592SOL    HW210674  14.875   5.998  10.460
69593SOL     OW10675  12.881   9.920   4.545
69593SOL    HW110676  12.922  10.003   4.571
69593SOL    HW210677  12.891   9.864   4.622
69594SOL     OW10678  11.648   2.150   1.254
69594SOL    HW110679  11.575   2.088   1.253
69594SOL    HW210680  11.702   2.124   1.180
69595SOL     OW10681   2.690   1.002   5.084
69595SOL    HW110682   2.673   1.089   5.048
69595SOL    HW210683   2.620   0.947   5.047
69596SOL     OW10684   3.872   8.790  12.596
69596SOL    HW110685   3.870   8.805  12.690
69596SOL    HW210686   3.828   8.867  12.558
69597SOL     OW10687  11.918   7.807  13.245
69597SOL    HW110688  11.849   7.770  13.301
69597SOL    HW210689  11.883   7.892  13.217
69598SOL     OW10690   7.022   7.489   9.684
69598SOL    HW110691   7.068   7.570   9.705
69598SOL    HW210692   6.941   7.493   9.735
69599SOL     OW10693  12.003  12.245   3.784
69599SOL    HW110694  11.938  12.296   3.736
69599SOL    HW210695  11.952  12.194   3.847
69600SOL     OW10696   7.159   6.151   0.896
69600SOL    HW110697   7.242   6.103   0.892
69600SOL    HW210698   7.183   6.236   0.932
69601SOL     OW10699   0.785   2.047   8.559
69601SOL    HW110700   0.865   1.998   8.577
69601SOL    HW210701   0.799   2.087   8.473
69602SOL     OW10702   6.042   3.080   1.447
69602SOL    HW110703   6.077   3.007   1.498
69602SOL    HW210704   5.973   3.041   1.393
69603SOL     OW10705  12.120   9.013   2.530
69603SOL    HW110706  12.067   8.933   2.527
69603SOL    HW210707  12.165   9.015   2.445
69604SOL     OW10708   8.086   8.058   1.718
69604SOL    HW110709   8.128   8.063   1.632
69604SOL    HW210710   7.993   8.051   1.699
69605SOL     OW10711  10.466   5.658   0.494
69605SOL    HW110712  10.525   5.583   0.501
69605SOL    HW210713  10.399   5.630   0.432
69606SOL     OW10714   0.190   4.061   2.028
69606SOL    HW110715   0.260   4.022   2.080
69606SOL    HW210716   0.109   4.026   2.065
69607SOL     OW10717   0.318   2.186   6.788
69607SOL    HW110718   0.386   2.219   6.847
69607SOL    HW210719   0.259   2.261   6.776
69608SOL     OW10720   1.565   1.925   1.912
69608SOL    HW110721   1.636   1.983   1.883
69608SOL    HW210722   1.593   1.894   1.999
69609SOL     OW10723  12.081   2.414   4.628
69609SOL    HW110724  12.110   2.396   4.538
69609SOL    HW210725  11.986   2.411   4.624
69610SOL     OW10726  10.843  10.886   6.183
69610SOL    HW110727  10.816  10.977   6.179
69610SOL    HW210728  10.936  10.890   6.209
69611SOL     OW10729  12.141   5.096   6.992
69611SOL    HW110730  12.198   5.170   6.968
69611SOL    HW210731  12.202   5.024   7.007
69612SOL     OW10732   2.759   5.092  12.069
69612SOL    HW110733   2.838   5.040  12.056
69612SOL    HW210734   2.756   5.108  12.163
69613SOL     OW10735  12.028  13.081   6.616
69613SOL    HW110736  12.022  13.142   6.543
69613SOL    HW210737  11.944  13.089   6.661
69614SOL     OW10738   9.713   7.988   4.870
69614SOL    HW110739   9.710   8.066   4.814
69614SOL    HW210740   9.650   8.006   4.940
69615SOL     OW10741   0.316   6.980   1.564
69615SOL    HW110742   0.369   6.977   1.485
69615SOL    HW210743   0.375   7.013   1.632
69616SOL     OW10744   1.057  14.727   9.236
69616SOL    HW110745   0.997  14.681   9.178
69616SOL    HW210746   1.139  14.677   9.232
69617SOL     OW10747   5.505  10.310   4.624
69617SOL    HW110748   5.576  10.248   4.641
69617SOL    HW210749   5.480  10.343   4.710
69618SOL     OW10750   0.408   1.221   9.262
69618SOL    HW110751   0.491   1.190   9.299
69618SOL    HW210752   0.433   1.262   9.179
69619SOL     OW10753   5.406   5.863  10.085
69619SOL    HW110754   5.325   5.881  10.038
69619SOL    HW210755   5.461   5.940  10.070
69620SOL     OW10756  13.906  10.588  14.521
69620SOL    HW110757  13.963  10.557  14.450
69620SOL    HW210758  13.857  10.510  14.548
69621SOL     OW10759  14.324   6.671  11.176
69621SOL    HW110760  14.327   6.757  11.219
69621SOL    HW210761  14.241   6.633  11.203
69622SOL     OW10762   4.645   5.908   7.455
69622SOL    HW110763   4.652   5.943   7.366
69622SOL    HW210764   4.611   5.980   7.507
69623SOL     OW10765   1.268   3.230   1.146
69623SOL    HW110766   1.321   3.227   1.066
69623SOL    HW210767   1.190   3.279   1.120
69624SOL     OW10768   4.928   8.829  14.426
69624SOL    HW110769   4.880   8.898  14.381
69624SOL    HW210770   4.961   8.773  14.355
69625SOL     OW10771   9.833   3.641   2.136
69625SOL    HW110772   9.834   3.737   2.131
69625SOL    HW210773   9.778   3.614   2.062
69626SOL     OW10774  12.929   5.087  11.361
69626SOL    HW110775  12.881   5.054  11.436
69626SOL    HW210776  12.982   5.013  11.331
69627SOL     OW10777   4.111   2.135   1.474
69627SOL    HW110778   4.177   2.162   1.412
69627SOL    HW210779   4.149   2.154   1.560
69628SOL     OW10780   3.945   5.609   5.058
69628SOL    HW110781   3.924   5.673   4.990
69628SOL    HW210782   3.881   5.624   5.127
69629SOL     OW10783   9.266   9.007   9.478
69629SOL    HW110784   9.276   9.103   9.481
69629SOL    HW210785   9.242   8.982   9.567
69630SOL     OW10786   8.941  11.029   4.432
69630SOL    HW110787   8.847  11.017   4.448
69630SOL    HW210788   8.978  10.941   4.436
69631SOL     OW10789   3.339   9.408   0.863
69631SOL    HW110790   3.295   9.330   0.830
69631SOL    HW210791   3.273   9.477   0.856
69632SOL     OW10792   0.766   9.259   7.030
69632SOL    HW110793   0.735   9.261   6.939
69632SOL    HW210794   0.793   9.349   7.048
69633SOL     OW10795   7.051   7.976   6.098
69633SOL    HW110796   6.977   7.967   6.157
69633SOL    HW210797   7.027   7.925   6.020
69634SOL     OW10798   4.863  10.283  12.958
69634SOL    HW110799   4.786  10.337  12.977
69634SOL    HW210800   4.910  10.331  12.890
69635SOL     OW10801  13.279  11.865  13.848
69635SOL    HW110802  13.304  11.945  13.802
69635SOL    HW210803  13.211  11.894  13.910
69636SOL     OW10804   3.797  12.853   9.932
69636SOL    HW110805   3.710  12.876   9.966
69636SOL    HW210806   3.791  12.760   9.913
69637SOL     OW10807   7.371   0.620   5.998
69637SOL    HW110808   7.346   0.553   6.062
69637SOL    HW210809   7.289   0.659   5.970
69638SOL     OW10810   5.749   9.795   7.336
69638SOL    HW110811   5.771   9.763   7.424
69638SOL    HW210812   5.831   9.829   7.302
69639SOL     OW10813   3.702   1.812  13.182
69639SOL    HW110814   3.727   1.795  13.091
69639SOL    HW210815   3.786   1.824  13.227
69640SOL     OW10816   8.104   5.722   4.749
69640SOL    HW110817   8.182   5.699   4.799
69640SOL    HW210818   8.129   5.710   4.657
69641SOL     OW10819   4.554   2.924   4.059
69641SOL    HW110820   4.508   3.000   4.095
69641SOL    HW210821   4.589   2.954   3.975
69642SOL     OW10822   8.016   2.948   3.163
69642SOL    HW110823   8.024   2.903   3.247
69642SOL    HW210824   8.042   2.883   3.098
69643SOL     OW10825  11.009   6.109  11.651
69643SOL    HW110826  11.081   6.169  11.633
69643SOL    HW210827  10.998   6.112  11.746
69644SOL     OW10828   2.890   6.366  12.702
69644SOL    HW110829   2.933   6.305  12.643
69644SOL    HW210830   2.813   6.319  12.735
69645SOL     OW10831   7.210  11.061   3.626
69645SOL    HW110832   7.236  10.975   3.657
69645SOL    HW210833   7.291  11.113   3.627
69646SOL     OW10834   9.606  11.430   3.445
69646SOL    HW110835   9.696  11.458   3.430
69646SOL    HW210836   9.615  11.340   3.477
69647SOL     OW10837  12.990   6.039  14.615
69647SOL    HW110838  12.940   6.076  14.688
69647SOL    HW210839  12.957   5.950  14.605
69648SOL     OW10840  14.665  13.414   4.576
69648SOL    HW110841  14.594  13.449   4.629
69648SOL    HW210842  14.742  13.419   4.633
69649SOL     OW10843   1.743   1.894  14.730
69649SOL    HW110844   1.785   1.976  14.756
69649SOL    HW210845   1.789   1.869  14.649
69650SOL     OW10846  11.607  14.284   5.109
69650SOL    HW110847  11.526  14.239   5.131
69650SOL    HW210848  11.587  14.333   5.029
69651SOL     OW10849   5.501  14.122   7.688
69651SOL    HW110850   5.569  14.122   7.621
69651SOL    HW210851   5.547  14.104   7.770
69652SOL     OW10852   1.540  10.233   9.486
69652SOL    HW110853   1.548  10.203   9.395
69652SOL    HW210854   1.460  10.284   9.487
69653SOL     OW10855   0.800   2.731   0.087
69653SOL    HW110856   0.868   2.668   0.112
69653SOL    HW210857   0.725   2.709   0.142
69654SOL     OW10858  14.435   3.446  11.682
69654SOL    HW110859  14.506   3.510  11.674
69654SOL    HW210860  14.474   3.364  11.654
69655SOL     OW10861   9.122   5.948   3.527
69655SOL    HW110862   9.084   5.864   3.502
69655SOL    HW210863   9.080   6.012   3.470
69656SOL     OW10864  11.307  11.376   3.520
69656SOL    HW110865  11.228  11.424   3.547
69656SOL    HW210866  11.293  11.287   3.551
69657SOL     OW10867   2.037   3.118   9.210
69657SOL    HW110868   2.036   3.186   9.142
69657SOL    HW210869   2.000   3.160   9.287
69658SOL     OW10870  12.629   7.325   2.003
69658SOL    HW110871  12.562   7.320   2.071
69658SOL    HW210872  12.707   7.285   2.043
69659SOL     OW10873  14.648   1.298   0.170
69659SOL    HW110874  14.661   1.391   0.187
69659SOL    HW210875  14.671   1.287   0.077
69660SOL     OW10876   7.968   1.275   0.109
69660SOL    HW110877   8.001   1.187   0.090
69660SOL    HW210878   8.035   1.333   0.073
69661SOL     OW10879   3.625   4.232   6.509
69661SOL    HW110880   3.531   4.220   6.525
69661SOL    HW210881   3.663   4.239   6.596
69662SOL     OW10882   8.452  12.908   3.653
69662SOL    HW110883   8.462  12.820   3.688
69662SOL    HW210884   8.392  12.952   3.713
69663SOL     OW10885   9.014   8.851  12.417
69663SOL    HW110886   8.994   8.879  12.328
69663SOL    HW210887   8.951   8.781  12.436
69664SOL     OW10888  12.187  13.951  14.361
69664SOL    HW110889  12.182  13.993  14.276
69664SOL    HW210890  12.280  13.935  14.375
69665SOL     OW10891   6.413   2.535   1.239
69665SOL    HW110892   6.354   2.460   1.248
69665SOL    HW210893   6.434   2.560   1.329
69666SOL     OW10894   8.118  11.604   3.736
69666SOL    HW110895   8.043  11.594   3.678
69666SOL    HW210896   8.081  11.611   3.824
69667SOL     OW10897   4.901   9.038   4.126
69667SOL    HW110898   4.885   9.083   4.209
69667SOL    HW210899   4.848   8.959   4.132
69668SOL     OW10900  14.318   1.007   4.165
69668SOL    HW110901  14.333   0.976   4.076
69668SOL    HW210902  14.346   1.099   4.164
69669SOL     OW10903  13.488   9.797   4.735
69669SOL    HW110904  13.496   9.889   4.760
69669SOL    HW210905  13.521   9.749   4.811
69670SOL     OW10906   9.342   1.666   3.375
69670SOL    HW110907   9.267   1.657   3.317
69670SOL    HW210908   9.418   1.657   3.318
69671SOL     OW10909   4.286   3.902  12.811
69671SOL    HW110910   4.219   3.917  12.744
69671SOL    HW210911   4.237   3.896  12.893
69672SOL     OW10912   0.546   8.651   0.651
69672SOL    HW110913   0.557   8.630   0.743
69672SOL    HW210914   0.528   8.745   0.650
69673SOL     OW10915  13.114   2.342   3.744
69673SOL    HW110916  13.179   2.295   3.795
69673SOL    HW210917  13.162   2.378   3.670
69674SOL     OW10918   6.387  14.231  12.054
69674SOL    HW110919   6.300  14.258  12.024
69674SOL    HW210920   6.378  14.137  12.071
69675SOL     OW10921   6.350  13.027   1.312
69675SOL    HW110922   6.317  13.005   1.399
69675SOL    HW210923   6.433  12.979   1.305
69676SOL     OW10924   5.280  11.931   0.585
69676SOL    HW110925   5.192  11.944   0.550
69676SOL    HW210926   5.312  11.853   0.539
69677SOL     OW10927   8.105   0.966   8.401
69677SOL    HW110928   8.091   1.060   8.409
69677SOL    HW210929   8.183   0.957   8.346
69678SOL     OW10930   2.400   0.942  14.528
69678SOL    HW110931   2.382   0.946  14.434
69678SOL    HW210932   2.355   1.018  14.565
69679SOL     OW10933   5.923   8.777   2.831
69679SOL    HW110934   5.905   8.717   2.758
69679SOL    HW210935   5.984   8.842   2.794
69680SOL     OW10936   0.683  14.482   6.622
69680SOL    HW110937   0.768  14.480   6.665
69680SOL    HW210938   0.633  14.549   6.669
69681SOL     OW10939   7.917   7.410   2.490
69681SOL    HW110940   7.904   7.462   2.569
69681SOL    HW210941   7.854   7.446   2.428
69682SOL     OW10942   2.820  14.294   2.316
69682SOL    HW110943   2.889  14.247   2.363
69682SOL    HW210944   2.742  14.282   2.370
69683SOL     OW10945  11.677   2.234  11.421
69683SOL    HW110946  11.716   2.320  11.436
69683SOL    HW210947  11.706   2.180  11.494
69684SOL     OW10948  12.331  11.946   8.816
69684SOL    HW110949  12.374  12.029   8.797
69684SOL    HW210950  12.295  11.917   8.732
69685SOL     OW10951  12.989   0.217  12.188
69685SOL    HW110952  13.069   0.163  12.186
69685SOL    HW210953  12.981   0.244  12.280
69686SOL     OW10954   4.140   8.406   3.698
69686SOL    HW110955   4.066   8.463   3.717
69686SOL    HW210956   4.133   8.336   3.763
69687SOL     OW10957   2.321  10.779  14.205
69687SOL    HW110958   2.253  10.787  14.272
69687SOL    HW210959   2.341  10.870  14.180
69688SOL     OW10960   0.186  13.887   9.923
69688SOL    HW110961   0.252  13.823   9.895
69688SOL    HW210962   0.187  13.883  10.019
69689SOL     OW10963  14.280   4.299  14.142
69689SOL    HW110964  14.354   4.331  14.091
69689SOL    HW210965  14.216   4.270  14.076
69690SOL     OW10966   3.756   3.164   2.356
69690SOL    HW110967   3.753   3.236   2.293
69690SOL    HW210968   3.849   3.153   2.376
69691SOL     OW10969   8.069   8.643   8.069
69691SOL    HW110970   8.061   8.548   8.070
69691SOL    HW210971   8.154   8.660   8.111
69692SOL     OW10972   7.786   1.873   6.699
69692SOL    HW110973   7.709   1.833   6.738
69692SOL    HW210974   7.758   1.962   6.675
69693SOL     OW10975   2.567  13.072   2.591
69693SOL    HW110976   2.491  13.051   2.646
69693SOL    HW210977   2.552  13.161   2.562
69694SOL     OW10978  11.172   9.563   5.313
69694SOL    HW110979  11.184   9.643   5.261
69694SOL    HW210980  11.261   9.541   5.342
69695SOL     OW10981   0.435   3.323   2.237
69695SOL    HW110982   0.354   3.332   2.189
69695SOL    HW210983   0.410   3.279   2.318
69696SOL     OW10984  13.435   2.025   2.060
69696SOL    HW110985  13.509   2.084   2.052
69696SOL    HW210986  13.426   1.984   1.974
69697SOL     OW10987   9.071   7.764   2.535
69697SOL    HW110988   9.167   7.758   2.535
69697SOL    HW210989   9.050   7.818   2.458
69698SOL     OW10990  12.900  10.879   6.707
69698SOL    HW110991  12.854  10.823   6.770
69698SOL    HW210992  12.832  10.934   6.669
69699SOL     OW10993   3.458   9.173   2.469
69699SOL    HW110994   3.498   9.131   2.546
69699SOL    HW210995   3.369   9.138   2.468
69700SOL     OW10996  10.415   9.549  14.589
69700SOL    HW110997  10.400   9.552  14.684
69700SOL    HW210998  10.418   9.640  14.562
69701SOL     OW10999   9.621   3.594   7.160
69701SOL    HW111000   9.559   3.523   7.180
69701SOL    HW211001   9.572   3.674   7.178
69702SOL     OW11002  14.434   6.415   5.454
69702SOL    HW111003  14.515   6.431   5.503
69702SOL    HW211004  14.382   6.495   5.467
69703SOL     OW11005  10.236   4.360  14.555
69703SOL    HW111006  10.306   4.332  14.497
69703SOL    HW211007  10.155   4.333  14.510
69704SOL     OW11008   2.967  13.161   7.070
69704SOL    HW111009   2.940  13.201   7.153
69704SOL    HW211010   2.981  13.236   7.011
69705SOL     OW11011   7.183   3.847   2.065
69705SOL    HW111012   7.246   3.915   2.043
69705SOL    HW211013   7.127   3.888   2.131
69706SOL     OW11014  14.240  11.600   0.597
69706SOL    HW111015  14.155  11.640   0.613
69706SOL    HW211016  14.296  11.634   0.667
69707SOL     OW11017   8.603   1.140  14.873
69707SOL    HW111018   8.660   1.115  14.800
69707SOL    HW211019   8.653   1.205   0.041
69708SOL     OW11020   4.965   0.277   2.829
69708SOL    HW111021   5.053   0.314   2.819
69708SOL    HW211022   4.940   0.249   2.742
69709SOL     OW11023   8.648  14.550  11.770
69709SOL    HW111024   8.697  14.590  11.841
69709SOL    HW211025   8.645  14.457  11.791
69710SOL     OW11026   2.286  14.035   2.479
69710SOL    HW111027   2.279  14.100   2.408
69710SOL    HW211028   2.251  14.080   2.555
69711SOL     OW11029   5.591  11.752   6.068
69711SOL    HW111030   5.542  11.707   6.137
69711SOL    HW211031   5.602  11.841   6.100
69712SOL     OW11032  14.474   6.075   6.569
69712SOL    HW111033  14.447   6.154   6.615
69712SOL    HW211034  14.409   6.064   6.500
69713SOL     OW11035   6.170   0.274   7.272
69713SOL    HW111036   6.182   0.279   7.177
69713SOL    HW211037   6.106   0.342   7.291
69714SOL     OW11038   5.745   1.019  13.323
69714SOL    HW111039   5.754   1.007  13.418
69714SOL    HW211040   5.700   1.103  13.313
69715SOL     OW11041   6.710   3.823  13.972
69715SOL    HW111042   6.618   3.846  13.956
69715SOL    HW211043   6.754   3.906  13.984
69716SOL     OW11044  11.791   8.865  13.560
69716SOL    HW111045  11.801   8.882  13.653
69716SOL    HW211046  11.809   8.771  13.551
69717SOL     OW11047   5.125   3.971  14.421
69717SOL    HW111048   5.039   4.011  14.407
69717SOL    HW211049   5.147   3.931  14.336
69718SOL     OW11050   7.565  12.839  14.243
69718SOL    HW111051   7.496  12.777  14.266
69718SOL    HW211052   7.538  12.875  14.158
69719SOL     OW11053   2.615  13.286  12.966
69719SOL    HW111054   2.691  13.251  12.919
69719SOL    HW211055   2.541  13.269  12.907
69720SOL     OW11056  12.503   4.722   1.279
69720SOL    HW111057  12.557   4.709   1.357
69720SOL    HW211058  12.454   4.640   1.271
69721SOL     OW11059   3.103   7.995  14.277
69721SOL    HW111060   3.160   8.031  14.344
69721SOL    HW211061   3.109   7.901  14.288
69722SOL     OW11062  10.032   3.082   6.849
69722SOL    HW111063  10.059   3.170   6.823
69722SOL    HW211064  10.108   3.047   6.895
69723SOL     OW11065  10.398   4.961   3.651
69723SOL    HW111066  10.383   4.885   3.594
69723SOL    HW211067  10.471   4.935   3.707
69724SOL     OW11068   6.598  13.454   1.431
69724SOL    HW111069   6.626  13.493   1.348
69724SOL    HW211070   6.633  13.365   1.428
69725SOL     OW11071   5.280   1.119   2.202
69725SOL    HW111072   5.330   1.199   2.187
69725SOL    HW211073   5.197   1.150   2.238
69726SOL     OW11074   6.457  10.059  14.450
69726SOL    HW111075   6.524  10.115  14.488
69726SOL    HW211076   6.473  10.062  14.356
69727SOL     OW11077  12.545   1.439   6.234
69727SOL    HW111078  12.476   1.485   6.282
69727SOL    HW211079  12.579   1.504   6.173
69728SOL     OW11080  10.572   8.632  13.488
69728SOL    HW111081  10.531   8.625  13.574
69728SOL    HW211082  10.663   8.607  13.503
69729SOL     OW11083   2.311   9.507   0.301
69729SOL    HW111084   2.374   9.437   0.282
69729SOL    HW211085   2.308   9.511   0.397
69730SOL     OW11086   2.559   3.180   0.352
69730SOL    HW111087   2.489   3.239   0.378
69730SOL    HW211088   2.633   3.205   0.407
69731SOL     OW11089  10.230   9.881  12.398
69731SOL    HW111090  10.140   9.911  12.391
69731SOL    HW211091  10.246   9.834  12.316
69732SOL     OW11092   5.722   3.676   6.169
69732SOL    HW111093   5.641   3.660   6.217
69732SOL    HW211094   5.780   3.718   6.232
69733SOL     OW11095   3.343  10.350  10.490
69733SOL    HW111096   3.411  10.396  10.539
69733SOL    HW211097   3.297  10.418  10.441
69734SOL     OW11098   0.299   5.227   6.464
69734SOL    HW111099   0.255   5.281   6.398
69734SOL    HW211100   0.366   5.179   6.415
69735SOL     OW11101   3.498   6.787   5.465
69735SOL    HW111102   3.496   6.763   5.372
69735SOL    HW211103   3.590   6.806   5.483
69736SOL     OW11104   4.579   2.816  14.689
69736SOL    HW111105   4.551   2.765  14.765
69736SOL    HW211106   4.507   2.806  14.627
69737SOL     OW11107   7.095  10.577   2.614
69737SOL    HW111108   7.064  10.667   2.604
69737SOL    HW211109   7.016  10.523   2.607
69738SOL     OW11110   9.890  12.000  10.894
69738SOL    HW111111   9.880  12.074  10.833
69738SOL    HW211112   9.835  11.931  10.856
69739SOL     OW11113   6.694   6.596   2.513
69739SOL    HW111114   6.765   6.546   2.554
69739SOL    HW211115   6.712   6.687   2.537
69740SOL     OW11116   7.063   1.777   1.029
69740SOL    HW111117   7.112   1.859   1.043
69740SOL    HW211118   7.131   1.709   1.029
69741SOL     OW11119   6.843   2.126   5.012
69741SOL    HW111120   6.846   2.129   4.916
69741SOL    HW211121   6.871   2.212   5.040
69742SOL     OW11122   1.207  12.331   3.223
69742SOL    HW111123   1.235  12.275   3.151
69742SOL    HW211124   1.166  12.406   3.180
69743SOL     OW11125  10.569   1.944   6.683
69743SOL    HW111126  10.538   1.907   6.766
69743SOL    HW211127  10.652   1.986   6.704
69744SOL     OW11128   7.715   9.721   5.384
69744SOL    HW111129   7.778   9.649   5.379
69744SOL    HW211130   7.724   9.754   5.474
69745SOL     OW11131   0.215  11.798   0.576
69745SOL    HW111132   0.255  11.727   0.525
69745SOL    HW211133   0.136  11.759   0.613
69746SOL     OW11134   3.374   2.675  11.423
69746SOL    HW111135   3.358   2.769  11.420
69746SOL    HW211136   3.429   2.657  11.347
69747SOL     OW11137  13.007  12.760  12.762
69747SOL    HW111138  13.005  12.680  12.708
69747SOL    HW211139  13.099  12.788  12.758
69748SOL     OW11140   0.890   1.081   1.768
69748SOL    HW111141   0.883   0.992   1.803
69748SOL    HW211142   0.862   1.137   1.840
69749SOL     OW11143   6.339   2.849  13.097
69749SOL    HW111144   6.386   2.768  13.117
69749SOL    HW211145   6.388   2.887  13.024
69750SOL     OW11146  12.641   0.951   3.904
69750SOL    HW111147  12.690   0.974   3.825
69750SOL    HW211148  12.553   0.986   3.889
69751SOL     OW11149   5.356  14.240   4.975
69751SOL    HW111150   5.430  14.235   4.914
69751SOL    HW211151   5.329  14.149   4.987
69752SOL     OW11152  13.665  10.202   8.542
69752SOL    HW111153  13.695  10.137   8.606
69752SOL    HW211154  13.730  10.272   8.547
69753SOL     OW11155   9.966   1.225   6.263
69753SOL    HW111156  10.053   1.264   6.272
69753SOL    HW211157   9.979   1.149   6.207
69754SOL     OW11158   5.408  10.264   1.930
69754SOL    HW111159   5.466  10.204   1.977
69754SOL    HW211160   5.398  10.225   1.843
69755SOL     OW11161   3.143   1.155   0.525
69755SOL    HW111162   3.099   1.233   0.492
69755SOL    HW211163   3.236   1.178   0.526
69756SOL     OW11164  11.830   1.734  12.952
69756SOL    HW111165  11.844   1.769  12.864
69756SOL    HW211166  11.899   1.775  13.005
69757SOL     OW11167  13.052   1.885  12.375
69757SOL    HW111168  13.089   1.802  12.406
69757SOL    HW211169  12.958   1.869  12.371
69758SOL     OW11170  14.766   6.850   7.358
69758SOL    HW111171  14.689   6.893   7.395
69758SOL    HW211172  14.788   6.781   7.421
69759SOL     OW11173  10.935   1.686   9.622
69759SOL    HW111174  10.996   1.616   9.646
69759SOL    HW211175  10.872   1.643   9.563
69760SOL     OW11176  11.305   9.905   3.277
69760SOL    HW111177  11.364   9.849   3.225
69760SOL    HW211178  11.347   9.991   3.277
69761SOL     OW11179   3.930  12.045   0.440
69761SOL    HW111180   3.862  12.028   0.504
69761SOL    HW211181   4.003  12.081   0.490
69762SOL     OW11182   2.788   4.314  13.119
69762SOL    HW111183   2.818   4.393  13.165
69762SOL    HW211184   2.866   4.260  13.111
69763SOL     OW11185   2.735   6.144   1.836
69763SOL    HW111186   2.754   6.225   1.883
69763SOL    HW211187   2.753   6.074   1.899
69764SOL     OW11188   5.524   1.973   7.307
69764SOL    HW111189   5.556   2.021   7.383
69764SOL    HW211190   5.602   1.959   7.254
69765SOL     OW11191   3.880   4.032   5.874
69765SOL    HW111192   3.877   4.088   5.951
69765SOL    HW211193   3.838   4.084   5.805
69766SOL     OW11194   1.544  10.330   1.699
69766SOL    HW111195   1.469  10.274   1.683
69766SOL    HW211196   1.593  10.286   1.768
69767SOL     OW11197   2.866   1.293   7.536
69767SOL    HW111198   2.955   1.287   7.502
69767SOL    HW211199   2.877   1.334   7.622
69768SOL     OW11200   3.250   2.988   9.737
69768SOL    HW111201   3.185   2.919   9.726
69768SOL    HW211202   3.246   3.038   9.656
69769SOL     OW11203   9.502   9.566  11.237
69769SOL    HW111204   9.484   9.473  11.224
69769SOL    HW211205   9.597   9.574  11.224
69770SOL     OW11206   5.198  12.948   3.887
69770SOL    HW111207   5.107  12.923   3.872
69770SOL    HW211208   5.244  12.865   3.903
69771SOL     OW11209  11.799   8.473  11.891
69771SOL    HW111210  11.799   8.565  11.919
69771SOL    HW211211  11.755   8.474  11.806
69772SOL     OW11212   3.427   4.550  13.545
69772SOL    HW111213   3.396   4.640  13.543
69772SOL    HW211214   3.358   4.499  13.502
69773SOL     OW11215   1.399   4.911   5.417
69773SOL    HW111216   1.351   4.993   5.429
69773SOL    HW211217   1.330   4.844   5.411
69774SOL     OW11218   0.501  11.045  10.129
69774SOL    HW111219   0.589  11.079  10.141
69774SOL    HW211220   0.462  11.048  10.217
69775SOL     OW11221   2.428   1.786   4.577
69775SOL    HW111222   2.488   1.861   4.575
69775SOL    HW211223   2.345   1.821   4.546
69776SOL     OW11224   3.952  14.868  14.192
69776SOL    HW111225   3.975   0.067  14.144
69776SOL    HW211226   3.995  14.878  14.277
69777SOL     OW11227   9.596   5.239   8.284
69777SOL    HW111228   9.662   5.190   8.234
69777SOL    HW211229   9.597   5.200   8.371
69778SOL     OW11230   8.422   0.244   3.036
69778SOL    HW111231   8.432   0.293   3.118
69778SOL    HW211232   8.511   0.216   3.014
69779SOL     OW11233   4.317   4.065   8.738
69779SOL    HW111234   4.307   4.132   8.805
69779SOL    HW211235   4.236   4.014   8.742
69780SOL     OW11236   1.737   8.186  13.535
69780SOL    HW111237   1.654   8.195  13.583
69780SOL    HW211238   1.804   8.216  13.597
69781SOL     OW11239   9.555   1.896  12.425
69781SOL    HW111240   9.628   1.908  12.485
69781SOL    HW211241   9.505   1.823  12.462
69782SOL     OW11242   2.572  12.206   3.356
69782SOL    HW111243   2.586  12.143   3.427
69782SOL    HW211244   2.571  12.291   3.400
69783SOL     OW11245   9.351  13.538   0.242
69783SOL    HW111246   9.359  13.500   0.330
69783SOL    HW211247   9.344  13.632   0.257
69784SOL     OW11248   3.168   0.277   0.193
69784SOL    HW111249   3.108   0.203   0.189
69784SOL    HW211250   3.113   0.352   0.213
69785SOL     OW11251   1.374   6.970   4.642
69785SOL    HW111252   1.287   7.001   4.670
69785SOL    HW211253   1.428   7.048   4.639
69786SOL     OW11254  11.777  12.757  10.252
69786SOL    HW111255  11.728  12.838  10.242
69786SOL    HW211256  11.869  12.784  10.249
69787SOL     OW11257   8.295   9.435   8.367
69787SOL    HW111258   8.334   9.434   8.280
69787SOL    HW211259   8.323   9.353   8.408
69788SOL     OW11260  13.451  12.659   6.230
69788SOL    HW111261  13.488  12.600   6.296
69788SOL    HW211262  13.522  12.721   6.211
69789SOL     OW11263   8.833  12.526   4.836
69789SOL    HW111264   8.827  12.616   4.804
69789SOL    HW211265   8.825  12.534   4.931
69790SOL     OW11266   8.321   2.921  11.272
69790SOL    HW111267   8.369   2.972  11.207
69790SOL    HW211268   8.364   2.835  11.272
69791SOL     OW11269   9.570  10.528   0.061
69791SOL    HW111270   9.622  10.461   0.016
69791SOL    HW211271   9.614  10.610   0.040
69792SOL     OW11272  13.966   2.646   4.164
69792SOL    HW111273  13.892   2.618   4.218
69792SOL    HW211274  13.955   2.599   4.081
69793SOL     OW11275   2.379   9.330   8.453
69793SOL    HW111276   2.450   9.394   8.456
69793SOL    HW211277   2.369   9.309   8.360
69794SOL     OW11278   7.092   4.389   1.624
69794SOL    HW111279   7.182   4.384   1.594
69794SOL    HW211280   7.040   4.368   1.546
69795SOL     OW11281  13.075  13.731  13.454
69795SOL    HW111282  13.101  13.692  13.537
69795SOL    HW211283  13.019  13.665  13.412
69796SOL     OW11284   5.062   8.423   8.076
69796SOL    HW111285   5.117   8.374   8.137
69796SOL    HW211286   5.076   8.379   7.991
69797SOL     OW11287   6.729   8.318   4.145
69797SOL    HW111288   6.713   8.296   4.237
69797SOL    HW211289   6.688   8.247   4.096
69798SOL     OW11290  12.145   1.576   4.061
69798SOL    HW111291  12.100   1.508   4.112
69798SOL    HW211292  12.116   1.658   4.101
69799SOL     OW11293  14.026   2.870  10.511
69799SOL    HW111294  13.945   2.839  10.552
69799SOL    HW211295  13.997   2.910  10.429
69800SOL     OW11296   9.661   1.993   6.541
69800SOL    HW111297   9.679   2.085   6.523
69800SOL    HW211298   9.643   1.955   6.455
69801SOL     OW11299   0.010  14.251   7.633
69801SOL    HW111300   0.069  14.292   7.569
69801SOL    HW211301   0.001  14.161   7.602
69802SOL     OW11302  11.739   6.464   0.596
69802SOL    HW111303  11.746   6.553   0.631
69802SOL    HW211304  11.704   6.412   0.669
69803SOL     OW11305   8.073  13.055   2.863
69803SOL    HW111306   8.088  13.105   2.943
69803SOL    HW211307   8.003  13.102   2.818
69804SOL     OW11308  12.709   3.648   7.331
69804SOL    HW111309  12.657   3.568   7.329
69804SOL    HW211310  12.799   3.619   7.317
69805SOL     OW11311   7.981  12.747   9.709
69805SOL    HW111312   8.058  12.795   9.741
69805SOL    HW211313   7.919  12.815   9.684
69806SOL     OW11314   4.304  11.868   1.935
69806SOL    HW111315   4.276  11.837   2.021
69806SOL    HW211316   4.235  11.838   1.875
69807SOL     OW11317   2.018  11.413   3.228
69807SOL    HW111318   1.974  11.414   3.143
69807SOL    HW211319   2.064  11.329   3.230
69808SOL     OW11320   3.649   0.517   6.894
69808SOL    HW111321   3.595   0.511   6.816
69808SOL    HW211322   3.625   0.601   6.933
69809SOL     OW11323   1.781  14.314   7.413
69809SOL    HW111324   1.854  14.304   7.353
69809SOL    HW211325   1.761  14.224   7.441
69810SOL     OW11326   0.309   2.209   9.883
69810SOL    HW111327   0.262   2.247   9.810
69810SOL    HW211328   0.390   2.260   9.888
69811SOL     OW11329   8.881   9.977  10.580
69811SOL    HW111330   8.953  10.003  10.636
69811SOL    HW211331   8.915   9.903  10.530
69812SOL     OW11332   9.636   1.334   0.531
69812SOL    HW111333   9.718   1.346   0.483
69812SOL    HW211334   9.567   1.357   0.469
69813SOL     OW11335   3.434  10.058   6.429
69813SOL    HW111336   3.387  10.013   6.359
69813SOL    HW211337   3.383  10.137   6.445
69814SOL     OW11338   3.284   7.667   8.363
69814SOL    HW111339   3.277   7.573   8.347
69814SOL    HW211340   3.263   7.708   8.280
69815SOL     OW11341   2.265  10.573   4.783
69815SOL    HW111342   2.180  10.599   4.820
69815SOL    HW211343   2.309  10.528   4.855
69816SOL     OW11344  14.496  12.238   7.358
69816SOL    HW111345  14.554  12.241   7.434
69816SOL    HW211346  14.473  12.330   7.342
69817SOL     OW11347   9.546   4.416   8.587
69817SOL    HW111348   9.628   4.453   8.555
69817SOL    HW211349   9.571   4.339   8.636
69818SOL     OW11350   7.108   8.322   4.529
69818SOL    HW111351   7.183   8.278   4.570
69818SOL    HW211352   7.033   8.296   4.583
69819SOL     OW11353  11.783  14.361   1.183
69819SOL    HW111354  11.709  14.381   1.240
69819SOL    HW211355  11.816  14.277   1.214
69820SOL     OW11356   0.526   0.420   8.549
69820SOL    HW111357   0.457   0.353   8.557
69820SOL    HW211358   0.586   0.384   8.484
69821SOL     OW11359   9.180   5.344   4.292
69821SOL    HW111360   9.209   5.422   4.243
69821SOL    HW211361   9.145   5.378   4.374
69822SOL     OW11362   3.862   8.053   0.907
69822SOL    HW111363   3.792   8.052   0.972
69822SOL    HW211364   3.902   8.139   0.916
69823SOL     OW11365  11.758   5.142   3.419
69823SOL    HW111366  11.666   5.159   3.440
69823SOL    HW211367  11.791   5.090   3.492
69824SOL     OW11368   0.207   9.134  14.635
69824SOL    HW111369   0.183   9.070  14.567
69824SOL    HW211370   0.264   9.197  14.590
69825SOL     OW11371  11.961   6.937   3.146
69825SOL    HW111372  12.035   6.988   3.112
69825SOL    HW211373  11.889   6.959   3.087
69826SOL     OW11374   6.181   9.501   8.357
69826SOL    HW111375   6.245   9.564   8.324
69826SOL    HW211376   6.135   9.547   8.427
69827SOL     OW11377   4.875   3.528  11.826
69827SOL    HW111378   4.943   3.594  11.812
69827SOL    HW211379   4.847   3.504  11.738
69828SOL     OW11380  12.514  12.995   0.265
69828SOL    HW111381  12.598  12.995   0.312
69828SOL    HW211382  12.539  13.001   0.172
69829SOL     OW11383  13.532   1.979   9.808
69829SOL    HW111384  13.616   1.958   9.848
69829SOL    HW211385  13.468   1.966   9.878
69830SOL     OW11386   0.289   3.541   7.362
69830SOL    HW111387   0.302   3.605   7.432
69830SOL    HW211388   0.203   3.503   7.380
69831SOL     OW11389   3.002  10.865  11.480
69831SOL    HW111390   2.919  10.853  11.435
69831SOL    HW211391   3.068  10.853  11.413
69832SOL     OW11392   2.206   3.613   6.006
69832SOL    HW111393   2.241   3.685   6.059
69832SOL    HW211394   2.277   3.548   6.003
69833SOL     OW11395  14.383   4.606   2.268
69833SOL    HW111396  14.361   4.693   2.235
69833SOL    HW211397  14.299   4.569   2.294
69834SOL     OW11398  10.708   8.815   0.806
69834SOL    HW111399  10.685   8.742   0.748
69834SOL    HW211400  10.799   8.834   0.786
69835SOL     OW11401  14.098   9.154  14.177
69835SOL    HW111402  14.159   9.080  14.180
69835SOL    HW211403  14.033   9.128  14.111
69836SOL     OW11404  10.362   2.112  14.841
69836SOL    HW111405  10.366   2.016  14.835
69836SOL    HW211406  10.383   2.143  14.753
69837SOL     OW11407  11.237   7.848   2.284
69837SOL    HW111408  11.184   7.817   2.357
69837SOL    HW211409  11.257   7.939   2.306
69838SOL     OW11410  11.603   7.689   8.634
69838SOL    HW111411  11.633   7.751   8.568
69838SOL    HW211412  11.618   7.734   8.718
69839SOL     OW11413  10.308  10.170   6.940
69839SOL    HW111414  10.238  10.196   6.880
69839SOL    HW211415  10.347  10.253   6.969
69840SOL     OW11416   2.633   1.930  10.393
69840SOL    HW111417   2.630   2.016  10.350
69840SOL    HW211418   2.726   1.911  10.401
69841SOL     OW11419   3.073  11.637   1.175
69841SOL    HW111420   3.106  11.723   1.150
69841SOL    HW211421   3.112  11.577   1.112
69842SOL     OW11422   1.281   8.233   1.561
69842SOL    HW111423   1.312   8.284   1.635
69842SOL    HW211424   1.229   8.295   1.509
69843SOL     OW11425   9.775  10.791  11.150
69843SOL    HW111426   9.818  10.705  11.145
69843SOL    HW211427   9.754  10.812  11.059
69844SOL     OW11428  14.210   5.990   4.583
69844SOL    HW111429  14.234   6.082   4.592
69844SOL    HW211430  14.118   5.992   4.556
69845SOL     OW11431   7.098   3.520   6.569
69845SOL    HW111432   7.068   3.511   6.479
69845SOL    HW211433   7.127   3.432   6.593
69846SOL     OW11434  12.156   8.082  12.646
69846SOL    HW111435  12.104   8.057  12.570
69846SOL    HW211436  12.106   8.050  12.721
69847SOL     OW11437   7.185  13.807   3.986
69847SOL    HW111438   7.262  13.846   3.946
69847SOL    HW211439   7.219  13.738   4.042
69848SOL     OW11440   1.939   4.526  10.922
69848SOL    HW111441   1.844   4.536  10.917
69848SOL    HW211442   1.973   4.595  10.864
69849SOL     OW11443   5.628   2.728   8.659
69849SOL    HW111444   5.670   2.796   8.711
69849SOL    HW211445   5.685   2.718   8.583
69850SOL     OW11446   3.329   4.806  13.575
69850SOL    HW111447   3.251   4.836  13.529
69850SOL    HW211448   3.394   4.875  13.561
69851SOL     OW11449  11.362   4.752   6.710
69851SOL    HW111450  11.363   4.802   6.792
69851SOL    HW211451  11.349   4.819   6.642
69852SOL     OW11452   7.041   5.718  12.172
69852SOL    HW111453   7.050   5.630  12.209
69852SOL    HW211454   6.958   5.716  12.124
69853SOL     OW11455  10.145  11.786   2.837
69853SOL    HW111456  10.175  11.774   2.747
69853SOL    HW211457  10.145  11.881   2.849
69854SOL     OW11458   5.375   4.376   3.652
69854SOL    HW111459   5.372   4.463   3.612
69854SOL    HW211460   5.317   4.323   3.597
69855SOL     OW11461   8.629   6.983   5.119
69855SOL    HW111462   8.658   6.932   5.195
69855SOL    HW211463   8.539   7.008   5.141
69856SOL     OW11464   6.674  11.856   5.824
69856SOL    HW111465   6.688  11.945   5.858
69856SOL    HW211466   6.583  11.855   5.795
69857SOL     OW11467   9.945  10.655   0.341
69857SOL    HW111468   9.861  10.620   0.369
69857SOL    HW211469   9.955  10.624   0.251
69858SOL     OW11470   0.740   8.637  13.615
69858SOL    HW111471   0.752   8.553  13.570
69858SOL    HW211472   0.825   8.656  13.653
69859SOL     OW11473   8.968   2.067  10.056
69859SOL    HW111474   8.874   2.083  10.053
69859SOL    HW211475   9.007   2.152  10.036
69860SOL     OW11476   4.119   8.840  12.325
69860SOL    HW111477   4.048   8.863  12.385
69860SOL    HW211478   4.195   8.888  12.359
69861SOL     OW11479  10.088   1.859  11.805
69861SOL    HW111480  10.029   1.789  11.777
69861SOL    HW211481  10.141   1.879  11.728
69862SOL     OW11482   1.141   3.729   0.457
69862SOL    HW111483   1.103   3.815   0.478
69862SOL    HW211484   1.227   3.730   0.497
69863SOL     OW11485  12.997  12.537  12.598
69863SOL    HW111486  12.918  12.501  12.558
69863SOL    HW211487  13.066  12.521  12.534
69864SOL     OW11488   1.319  11.997   3.820
69864SOL    HW111489   1.280  12.026   3.902
69864SOL    HW211490   1.334  12.078   3.771
69865SOL     OW11491  10.207  11.163  11.582
69865SOL    HW111492  10.128  11.111  11.575
69865SOL    HW211493  10.194  11.216  11.661
69866SOL     OW11494  11.197   3.768   5.488
69866SOL    HW111495  11.284   3.747   5.456
69866SOL    HW211496  11.184   3.710   5.563
69867SOL     OW11497  11.622   6.119  14.811
69867SOL    HW111498  11.567   6.041  14.821
69867SOL    HW211499  11.695   6.089  14.757
69868SOL     OW11500   7.458   6.759   1.939
69868SOL    HW111501   7.384   6.810   1.907
69868SOL    HW211502   7.534   6.798   1.896
69869SOL     OW11503  11.814   1.000   4.169
69869SOL    HW111504  11.755   0.983   4.096
69869SOL    HW211505  11.894   1.034   4.128
69870SOL     OW11506   2.411   6.140  10.344
69870SOL    HW111507   2.341   6.132  10.279
69870SOL    HW211508   2.365   6.151  10.427
69871SOL     OW11509  10.071   3.531  10.725
69871SOL    HW111510  10.069   3.581  10.643
69871SOL    HW211511  10.065   3.439  10.696
69872SOL     OW11512   4.150  10.814   9.390
69872SOL    HW111513   4.147  10.815   9.295
69872SOL    HW211514   4.187  10.728   9.412
69873SOL     OW11515  12.980   4.640   5.012
69873SOL    HW111516  12.892   4.612   5.038
69873SOL    HW211517  12.971   4.662   4.919
69874SOL     OW11518  10.921  12.852   2.916
69874SOL    HW111519  10.898  12.808   2.998
69874SOL    HW211520  11.017  12.857   2.917
69875SOL     OW11521  13.060  13.220   4.378
69875SOL    HW111522  13.085  13.194   4.290
69875SOL    HW211523  12.968  13.248   4.370
69876SOL     OW11524   9.426  14.472   6.361
69876SOL    HW111525   9.354  14.418   6.328
69876SOL    HW211526   9.491  14.472   6.291
69877SOL     OW11527   9.744   4.585   0.335
69877SOL    HW111528   9.789   4.622   0.259
69877SOL    HW211529   9.731   4.659   0.394
69878SOL     OW11530  12.710   0.507  10.101
69878SOL    HW111531  12.698   0.602  10.105
69878SOL    HW211532  12.792   0.495  10.053
69879SOL     OW11533  12.045  14.507   4.335
69879SOL    HW111534  12.133  14.496   4.371
69879SOL    HW211535  12.023  14.420   4.301
69880SOL     OW11536  12.552   6.393   5.873
69880SOL    HW111537  12.473   6.344   5.851
69880SOL    HW211538  12.587   6.347   5.950
69881SOL     OW11539   9.133  11.753  10.292
69881SOL    HW111540   9.057  11.715  10.337
69881SOL    HW211541   9.205  11.692  10.311
69882SOL     OW11542   7.435   7.782   0.988
69882SOL    HW111543   7.381   7.772   0.909
69882SOL    HW211544   7.453   7.692   1.016
69883SOL     OW11545   4.835   7.918  12.265
69883SOL    HW111546   4.897   7.933  12.336
69883SOL    HW211547   4.803   8.006  12.243
69884SOL     OW11548  10.141   2.717   0.547
69884SOL    HW111549  10.149   2.781   0.476
69884SOL    HW211550  10.189   2.755   0.620
69885SOL     OW11551  13.628   6.171   2.582
69885SOL    HW111552  13.569   6.096   2.577
69885SOL    HW211553  13.714   6.133   2.604
69886SOL     OW11554  13.194  12.114   1.945
69886SOL    HW111555  13.104  12.092   1.921
69886SOL    HW211556  13.187  12.159   2.029
69887SOL     OW11557  11.565   9.800  11.926
69887SOL    HW111558  11.573   9.862  11.998
69887SOL    HW211559  11.515   9.727  11.962
69888SOL     OW11560   5.918   2.745  13.427
69888SOL    HW111561   5.924   2.839  13.415
69888SOL    HW211562   5.986   2.724  13.491
69889SOL     OW11563   1.095  14.793   4.253
69889SOL    HW111564   1.115  14.735   4.179
69889SOL    HW211565   1.115  14.740   4.331
69890SOL     OW11566   1.096  13.929  10.102
69890SOL    HW111567   1.063  13.865  10.165
69890SOL    HW211568   1.186  13.944  10.128
69891SOL     OW11569   8.656   3.919   7.440
69891SOL    HW111570   8.638   3.982   7.370
69891SOL    HW211571   8.569   3.896   7.474
69892SOL     OW11572   1.566   2.197   5.766
69892SOL    HW111573   1.540   2.119   5.717
69892SOL    HW211574   1.620   2.165   5.838
69893SOL     OW11575   9.418  11.846   0.904
69893SOL    HW111576   9.388  11.833   0.814
69893SOL    HW211577   9.436  11.757   0.936
69894SOL     OW11578  10.954   1.627   1.316
69894SOL    HW111579  10.981   1.717   1.297
69894SOL    HW211580  10.858   1.630   1.313
69895SOL     OW11581   0.294   1.694  11.896
69895SOL    HW111582   0.201   1.671  11.898
69895SOL    HW211583   0.321   1.674  11.807
69896SOL     OW11584   6.261   5.170  10.648
69896SOL    HW111585   6.233   5.241  10.590
69896SOL    HW211586   6.235   5.199  10.736
69897SOL     OW11587   6.050   0.912   3.616
69897SOL    HW111588   6.013   0.980   3.672
69897SOL    HW211589   5.994   0.913   3.538
69898SOL     OW11590   0.144   7.128   1.366
69898SOL    HW111591   0.194   7.092   1.440
69898SOL    HW211592   0.168   7.072   1.292
69899SOL     OW11593   6.457  10.024   9.370
69899SOL    HW111594   6.396  10.054   9.303
69899SOL    HW211595   6.440  10.080   9.446
69900SOL     OW11596  13.298   2.799   1.426
69900SOL    HW111597  13.293   2.787   1.521
69900SOL    HW211598  13.212   2.834   1.401
69901SOL     OW11599   2.073  14.874  13.693
69901SOL    HW111600   2.081  14.781  13.673
69901SOL    HW211601   1.985   0.018  13.665
69902SOL     OW11602   3.681  12.400   8.145
69902SOL    HW111603   3.739  12.407   8.069
69902SOL    HW211604   3.721  12.455   8.211
69903SOL     OW11605  10.119   0.114  12.471
69903SOL    HW111606  10.079   0.036  12.433
69903SOL    HW211607  10.188   0.081  12.528
69904SOL     OW11608  13.260  11.792   0.548
69904SOL    HW111609  13.168  11.771   0.561
69904SOL    HW211610  13.260  11.883   0.520
69905SOL     OW11611   7.143   0.774  13.601
69905SOL    HW111612   7.191   0.836  13.656
69905SOL    HW211613   7.176   0.688  13.627
69906SOL     OW11614   8.409  10.891   0.924
69906SOL    HW111615   8.352  10.860   0.994
69906SOL    HW211616   8.449  10.971   0.959
69907SOL     OW11617   5.541   0.877   8.015
69907SOL    HW111618   5.490   0.924   8.081
69907SOL    HW211619   5.562   0.793   8.056
69908SOL     OW11620   1.822   4.397  12.605
69908SOL    HW111621   1.742   4.449  12.609
69908SOL    HW211622   1.881   4.447  12.549
69909SOL     OW11623   3.586   9.984   8.615
69909SOL    HW111624   3.675   9.955   8.634
69909SOL    HW211625   3.536   9.962   8.693
69910SOL     OW11626   4.134   3.603  12.909
69910SOL    HW111627   4.136   3.611  12.814
69910SOL    HW211628   4.080   3.677  12.938
69911SOL     OW11629  11.821   4.471   6.480
69911SOL    HW111630  11.767   4.392   6.483
69911SOL    HW211631  11.862   4.476   6.567
69912SOL     OW11632   5.545  14.100  11.443
69912SOL    HW111633   5.540  14.170  11.509
69912SOL    HW211634   5.456  14.093  11.409
69913SOL     OW11635  14.305  13.534  13.721
69913SOL    HW111636  14.358  13.477  13.777
69913SOL    HW211637  14.367  13.569  13.657
69914SOL     OW11638   0.131  13.490  14.282
69914SOL    HW111639   0.104  13.552  14.350
69914SOL    HW211640   0.088  13.408  14.306
69915SOL     OW11641   0.771  11.408  10.495
69915SOL    HW111642   0.801  11.489  10.454
69915SOL    HW211643   0.833  11.393  10.566
69916SOL     OW11644   0.909  11.628   0.302
69916SOL    HW111645   0.850  11.700   0.323
69916SOL    HW211646   0.994  11.656   0.335
69917SOL     OW11647   9.653  14.434   9.381
69917SOL    HW111648   9.723  14.409   9.321
69917SOL    HW211649   9.694  14.498   9.440
69918SOL     OW11650   7.787  12.761   6.275
69918SOL    HW111651   7.795  12.851   6.307
69918SOL    HW211652   7.788  12.707   6.355
69919SOL     OW11653   4.745   5.664  12.356
69919SOL    HW111654   4.809   5.730  12.383
69919SOL    HW211655   4.757   5.592  12.417
69920SOL     OW11656   6.468   8.000   5.681
69920SOL    HW111657   6.394   7.989   5.741
69920SOL    HW211658   6.454   7.935   5.613
69921SOL     OW11659  11.821   1.734   6.270
69921SOL    HW111660  11.888   1.668   6.284
69921SOL    HW211661  11.800   1.728   6.177
69922SOL     OW11662  13.598   1.031   4.719
69922SOL    HW111663  13.553   1.040   4.635
69922SOL    HW211664  13.689   1.013   4.696
69923SOL     OW11665   6.678  13.517  12.069
69923SOL    HW111666   6.654  13.426  12.083
69923SOL    HW211667   6.676  13.528  11.974
69924SOL     OW11668   4.489   6.313   7.871
69924SOL    HW111669   4.572   6.356   7.892
69924SOL    HW211670   4.424   6.383   7.873
69925SOL     OW11671  12.054  11.139  14.016
69925SOL    HW111672  11.965  11.122  13.987
69925SOL    HW211673  12.046  11.155  14.110
69926SOL     OW11674   8.989   3.293   3.453
69926SOL    HW111675   8.981   3.322   3.362
69926SOL    HW211676   9.016   3.371   3.500
69927SOL     OW11677   8.264  11.545  14.408
69927SOL    HW111678   8.277  11.534  14.502
69927SOL    HW211679   8.343  11.590  14.378
69928SOL     OW11680   2.488   4.911  12.852
69928SOL    HW111681   2.464   4.989  12.802
69928SOL    HW211682   2.414   4.851  12.840
69929SOL     OW11683  12.967   9.882   1.173
69929SOL    HW111684  12.893   9.920   1.221
69929SOL    HW211685  12.929   9.847   1.093
69930SOL     OW11686   1.826  12.116  10.713
69930SOL    HW111687   1.907  12.077  10.746
69930SOL    HW211688   1.756  12.070  10.760
69931SOL     OW11689  10.608  11.622   4.542
69931SOL    HW111690  10.641  11.582   4.462
69931SOL    HW211691  10.534  11.676   4.514
69932SOL     OW11692   3.495   1.069   1.681
69932SOL    HW111693   3.570   1.126   1.700
69932SOL    HW211694   3.444   1.070   1.762
69933SOL     OW11695   1.195  11.157  14.303
69933SOL    HW111696   1.205  11.069  14.266
69933SOL    HW211697   1.270  11.205  14.269
69934SOL     OW11698   5.331   1.189   3.048
69934SOL    HW111699   5.375   1.105   3.055
69934SOL    HW211700   5.238   1.167   3.043
69935SOL     OW11701  14.250   9.631   0.542
69935SOL    HW111702  14.312   9.608   0.611
69935SOL    HW211703  14.191   9.555   0.538
69936SOL     OW11704   8.892   3.097  11.341
69936SOL    HW111705   8.982   3.067  11.331
69936SOL    HW211706   8.876   3.152  11.264
69937SOL     OW11707   9.119   5.062   5.102
69937SOL    HW111708   9.172   5.036   5.177
69937SOL    HW211709   9.047   4.999   5.101
69938SOL     OW11710   9.312   7.495   6.657
69938SOL    HW111711   9.293   7.405   6.682
69938SOL    HW211712   9.238   7.521   6.602
69939SOL     OW11713   6.633  14.709   3.661
69939SOL    HW111714   6.619  14.662   3.744
69939SOL    HW211715   6.572  14.667   3.600
69940SOL     OW11716   9.435   4.276  10.304
69940SOL    HW111717   9.494   4.203  10.325
69940SOL    HW211718   9.480   4.353  10.339
69941SOL     OW11719   0.392   4.638  12.292
69941SOL    HW111720   0.409   4.619  12.384
69941SOL    HW211721   0.458   4.704  12.268
69942SOL     OW11722   7.993   6.164  11.969
69942SOL    HW111723   8.050   6.235  11.999
69942SOL    HW211724   7.910   6.179  12.015
69943SOL     OW11725   5.471  13.922   9.900
69943SOL    HW111726   5.505  13.949   9.985
69943SOL    HW211727   5.539  13.866   9.863
69944SOL     OW11728   3.992   1.358   5.248
69944SOL    HW111729   4.052   1.418   5.204
69944SOL    HW211730   3.908   1.405   5.250
69945SOL     OW11731  11.870   6.326   6.686
69945SOL    HW111732  11.912   6.358   6.766
69945SOL    HW211733  11.926   6.254   6.656
69946SOL     OW11734   5.419  12.313  13.666
69946SOL    HW111735   5.442  12.406  13.674
69946SOL    HW211736   5.445  12.289  13.578
69947SOL     OW11737   6.924   7.269  12.702
69947SOL    HW111738   6.874   7.283  12.782
69947SOL    HW211739   6.998   7.215  12.730
69948SOL     OW11740   3.159   6.000   8.726
69948SOL    HW111741   3.193   5.915   8.753
69948SOL    HW211742   3.236   6.049   8.695
69949SOL     OW11743   8.324  14.872   3.493
69949SOL    HW111744   8.402   0.019   3.542
69949SOL    HW211745   8.348   0.004   3.401
69950SOL     OW11746   1.837  12.151   0.082
69950SOL    HW111747   1.874  12.084   0.025
69950SOL    HW211748   1.763  12.108   0.125
69951SOL     OW11749   7.012   5.791  11.030
69951SOL    HW111750   6.916   5.784  11.028
69951SOL    HW211751   7.033   5.849  10.957
69952SOL     OW11752   0.037   1.893  11.005
69952SOL    HW111753   0.038   1.848  10.920
69952SOL    HW211754   0.119   1.866  11.046
69953SOL     OW11755   9.477   8.562   2.800
69953SOL    HW111756   9.502   8.620   2.871
69953SOL    HW211757   9.382   8.571   2.794
69954SOL     OW11758  14.006   3.826   8.959
69954SOL    HW111759  13.985   3.891   8.893
69954SOL    HW211760  13.980   3.743   8.921
69955SOL     OW11761  11.314   8.925   5.082
69955SOL    HW111762  11.345   8.844   5.123
69955SOL    HW211763  11.278   8.896   4.998
69956SOL     OW11764   3.348  11.115  14.257
69956SOL    HW111765   3.385  11.027  14.249
69956SOL    HW211766   3.296  11.126  14.177
69957SOL     OW11767  11.257   9.204  14.544
69957SOL    HW111768  11.285   9.260  14.617
69957SOL    HW211769  11.300   9.243  14.467
69958SOL     OW11770  11.171   4.749   5.694
69958SOL    HW111771  11.106   4.809   5.657
69958SOL    HW211772  11.175   4.772   5.786
69959SOL     OW11773  10.464   4.074   2.579
69959SOL    HW111774  10.425   4.112   2.501
69959SOL    HW211775  10.558   4.070   2.559
69960SOL     OW11776   5.553  11.938   6.704
69960SOL    HW111777   5.611  11.921   6.630
69960SOL    HW211778   5.570  12.029   6.727
69961SOL     OW11779  14.737   6.888  12.297
69961SOL    HW111780  14.695   6.836  12.228
69961SOL    HW211781  14.739   6.977  12.261
69962SOL     OW11782   3.735  13.723  13.088
69962SOL    HW111783   3.704  13.658  13.025
69962SOL    HW211784   3.680  13.709  13.165
69963SOL     OW11785   2.464   8.220   5.959
69963SOL    HW111786   2.524   8.268   5.903
69963SOL    HW211787   2.431   8.285   6.021
69964SOL     OW11788   7.445   5.548   0.243
69964SOL    HW111789   7.373   5.583   0.296
69964SOL    HW211790   7.512   5.616   0.248
69965SOL     OW11791  10.089  14.364  11.571
69965SOL    HW111792  10.025  14.293  11.578
69965SOL    HW211793  10.051  14.424  11.507
69966SOL     OW11794  12.333   0.679   3.523
69966SOL    HW111795  12.354   0.638   3.606
69966SOL    HW211796  12.241   0.704   3.531
69967SOL     OW11797   8.674   6.417  10.625
69967SOL    HW111798   8.710   6.343  10.575
69967SOL    HW211799   8.596   6.443  10.576
69968SOL     OW11800  13.112   9.655  10.498
69968SOL    HW111801  13.175   9.668  10.570
69968SOL    HW211802  13.083   9.743  10.475
69969SOL     OW11803   2.963   6.802  12.002
69969SOL    HW111804   3.043   6.749  12.002
69969SOL    HW211805   2.899   6.748  12.048
69970SOL     OW11806  14.163   9.748   4.482
69970SOL    HW111807  14.210   9.721   4.561
69970SOL    HW211808  14.228   9.795   4.431
69971SOL     OW11809   4.844   7.087  12.231
69971SOL    HW111810   4.929   7.044  12.236
69971SOL    HW211811   4.824   7.090  12.137
69972SOL     OW11812  14.530   3.374   0.407
69972SOL    HW111813  14.522   3.295   0.460
69972SOL    HW211814  14.578   3.436   0.462
69973SOL     OW11815   9.169   0.174   8.543
69973SOL    HW111816   9.091   0.228   8.551
69973SOL    HW211817   9.242   0.234   8.558
69974SOL     OW11818  14.772   7.875   4.481
69974SOL    HW111819  14.689   7.831   4.463
69974SOL    HW211820  14.835   7.804   4.494
69975SOL     OW11821   8.860   5.491   6.754
69975SOL    HW111822   8.820   5.575   6.731
69975SOL    HW211823   8.828   5.430   6.688
69976SOL     OW11824  12.215   4.900  11.559
69976SOL    HW111825  12.300   4.911  11.601
69976SOL    HW211826  12.233   4.848  11.481
69977SOL     OW11827   6.200   8.579   2.338
69977SOL    HW111828   6.237   8.499   2.302
69977SOL    HW211829   6.266   8.610   2.400
69978SOL     OW11830   0.607   9.659  13.603
69978SOL    HW111831   0.653   9.627  13.680
69978SOL    HW211832   0.637   9.602  13.531
69979SOL     OW11833   7.353  14.370   2.992
69979SOL    HW111834   7.439  14.412   2.983
69979SOL    HW211835   7.290  14.441   2.975
69980SOL     OW11836   5.232   7.327  13.770
69980SOL    HW111837   5.315   7.328  13.723
69980SOL    HW211838   5.237   7.250  13.827
69981SOL     OW11839   6.974   7.950   9.529
69981SOL    HW111840   7.010   7.910   9.449
69981SOL    HW211841   7.049   7.991   9.571
69982SOL     OW11842   0.650  12.253  12.330
69982SOL    HW111843   0.574  12.303  12.299
69982SOL    HW211844   0.721  12.279  12.272
69983SOL     OW11845   6.021   4.784   6.671
69983SOL    HW111846   6.025   4.781   6.767
69983SOL    HW211847   5.933   4.754   6.650
69984SOL     OW11848   3.753   8.184   4.423
69984SOL    HW111849   3.843   8.179   4.390
69984SOL    HW211850   3.745   8.272   4.459
69985SOL     OW11851   0.225   6.133   5.294
69985SOL    HW111852   0.297   6.128   5.232
69985SOL    HW211853   0.178   6.213   5.270
69986SOL     OW11854   9.732  13.931   9.243
69986SOL    HW111855   9.639  13.941   9.220
69986SOL    HW211856   9.772  13.890   9.166
69987SOL     OW11857   0.293   5.725  13.777
69987SOL    HW111858   0.286   5.820  13.789
69987SOL    HW211859   0.293   5.690  13.866
69988SOL     OW11860  10.323   7.528  12.089
69988SOL    HW111861  10.348   7.552  12.178
69988SOL    HW211862  10.340   7.607  12.038
69989SOL     OW11863   7.250   4.473  12.882
69989SOL    HW111864   7.325   4.416  12.899
69989SOL    HW211865   7.174   4.414  12.884
69990SOL     OW11866  11.536   4.701   7.137
69990SOL    HW111867  11.505   4.660   7.218
69990SOL    HW211868  11.539   4.630   7.074
69991SOL     OW11869  13.675   5.712  10.995
69991SOL    HW111870  13.698   5.639  11.053
69991SOL    HW211871  13.753   5.727  10.942
69992SOL     OW11872   0.932   7.012   4.398
69992SOL    HW111873   1.027   7.013   4.383
69992SOL    HW211874   0.911   6.920   4.409
69993SOL     OW11875   9.796   9.963   0.909
69993SOL    HW111876   9.763   9.880   0.942
69993SOL    HW211877   9.766  10.028   0.972
69994SOL     OW11878   1.812   3.320   5.812
69994SOL    HW111879   1.744   3.388   5.813
69994SOL    HW211880   1.889   3.362   5.850
69995SOL     OW11881   4.890   8.703  12.094
69995SOL    HW111882   4.841   8.783  12.112
69995SOL    HW211883   4.896   8.658  12.178
69996SOL     OW11884  10.138   9.797  14.379
69996SOL    HW111885  10.097   9.756  14.455
69996SOL    HW211886  10.137   9.891  14.399
69997SOL     OW11887   6.849   8.892   1.772
69997SOL    HW111888   6.902   8.841   1.710
69997SOL    HW211889   6.877   8.860   1.858
69998SOL     OW11890   5.243   1.845   0.238
69998SOL    HW111891   5.298   1.916   0.206
69998SOL    HW211892   5.302   1.791   0.290
69999SOL     OW11893  10.934   8.498  12.761
69999SOL    HW111894  10.946   8.541  12.846
69999SOL    HW211895  10.872   8.554  12.714
70000SOL     OW11896   5.114  13.601  13.904
70000SOL    HW111897   5.144  13.579  13.992
70000SOL    HW211898   5.056  13.529  13.880
70001SOL     OW11899   5.694   9.801   2.722
70001SOL    HW111900   5.750   9.854   2.778
70001SOL    HW211901   5.703   9.841   2.635
70002SOL     OW11902  11.470   9.505   5.252
70002SOL    HW111903  11.545   9.464   5.209
70002SOL    HW211904  11.407   9.520   5.181
70003SOL     OW11905  11.117   1.527   3.945
70003SOL    HW111906  11.037   1.579   3.943
70003SOL    HW211907  11.119   1.489   4.033
70004SOL     OW11908  12.838   0.280  13.361
70004SOL    HW111909  12.891   0.352  13.396
70004SOL    HW211910  12.753   0.289  13.404
70005SOL     OW11911   1.009   3.319   8.106
70005SOL    HW111912   1.087   3.321   8.051
70005SOL    HW211913   0.960   3.398   8.081
70006SOL     OW11914  11.462   3.859   2.316
70006SOL    HW111915  11.409   3.808   2.255
70006SOL    HW211916  11.400   3.892   2.381
70007SOL     OW11917   6.696   7.920   0.682
70007SOL    HW111918   6.644   7.842   0.666
70007SOL    HW211919   6.769   7.890   0.736
70008SOL     OW11920   4.598   8.301  10.115
70008SOL    HW111921   4.587   8.225  10.172
70008SOL    HW211922   4.553   8.372  10.160
70009SOL     OW11923  10.319  14.590  13.775
70009SOL    HW111924  10.350  14.504  13.803
70009SOL    HW211925  10.228  14.594  13.805
70010SOL     OW11926  13.500   1.509  14.493
70010SOL    HW111927  13.541   1.594  14.512
70010SOL    HW211928  13.565   1.463  14.439
70011SOL     OW11929  13.438  14.265  13.818
70011SOL    HW111930  13.363  14.294  13.765
70011SOL    HW211931  13.431  14.317  13.898
70012SOL     OW11932   3.617  14.536   5.999
70012SOL    HW111933   3.663  14.583   5.930
70012SOL    HW211934   3.645  14.577   6.080
70013SOL     OW11935  12.588   4.104   3.879
70013SOL    HW111936  12.508   4.056   3.898
70013SOL    HW211937  12.657   4.038   3.879
70014SOL     OW11938   0.828   9.716  11.186
70014SOL    HW111939   0.854   9.798  11.144
70014SOL    HW211940   0.776   9.671  11.120
70015SOL     OW11941   0.286   4.268   9.984
70015SOL    HW111942   0.257   4.201  10.045
70015SOL    HW211943   0.212   4.328   9.977
70016SOL     OW11944  14.479   0.949   2.852
70016SOL    HW111945  14.423   0.999   2.911
70016SOL    HW211946  14.426   0.872   2.829
70017SOL     OW11947   2.068   1.552  14.820
70017SOL    HW111948   1.981   1.542  14.781
70017SOL    HW211949   2.108   1.624  14.771
70018SOL     OW11950  14.134  11.805  11.108
70018SOL    HW111951  14.161  11.715  11.092
70018SOL    HW211952  14.106  11.805  11.200
70019SOL     OW11953  14.096   9.955   9.833
70019SOL    HW111954  14.186   9.958   9.865
70019SOL    HW211955  14.068  10.047   9.833
70020SOL     OW11956  14.851  11.992   4.561
70020SOL    HW111957  14.788  11.997   4.633
70020SOL    HW211958  14.816  12.051   4.494
70021SOL     OW11959  12.872   7.578   3.566
70021SOL    HW111960  12.809   7.651   3.566
70021SOL    HW211961  12.837   7.516   3.630
70022SOL     OW11962  13.249   7.226   2.808
70022SOL    HW111963  13.189   7.183   2.870
70022SOL    HW211964  13.294   7.154   2.765
70023SOL     OW11965   9.762   5.904   2.568
70023SOL    HW111966   9.849   5.874   2.597
70023SOL    HW211967   9.702   5.838   2.604
70024SOL     OW11968   8.789   3.277  13.092
70024SOL    HW111969   8.820   3.321  13.171
70024SOL    HW211970   8.869   3.257  13.042
70025SOL     OW11971  14.627  12.083   9.490
70025SOL    HW111972  14.588  12.168   9.511
70025SOL    HW211973  14.675  12.099   9.408
70026SOL     OW11974   7.200   2.766   4.273
70026SOL    HW111975   7.197   2.824   4.197
70026SOL    HW211976   7.142   2.693   4.249
70027SOL     OW11977   7.776   4.401  13.200
70027SOL    HW111978   7.786   4.360  13.286
70027SOL    HW211979   7.756   4.328  13.141
70028SOL     OW11980   4.079   3.302  12.942
70028SOL    HW111981   4.117   3.375  12.893
70028SOL    HW211982   4.026   3.255  12.878
70029SOL     OW11983   8.588  13.752  11.007
70029SOL    HW111984   8.612  13.660  11.015
70029SOL    HW211985   8.663  13.792  10.961
70030SOL     OW11986   9.611   3.703   9.288
70030SOL    HW111987   9.558   3.741   9.218
70030SOL    HW211988   9.620   3.610   9.265
70031SOL     OW11989   7.099  13.115   8.679
70031SOL    HW111990   7.189  13.082   8.685
70031SOL    HW211991   7.055  13.079   8.756
70032SOL     OW11992  10.356  11.710   9.400
70032SOL    HW111993  10.344  11.752   9.485
70032SOL    HW211994  10.334  11.778   9.336
70033SOL     OW11995   3.926   6.014  12.230
70033SOL    HW111996   3.872   5.976  12.160
70033SOL    HW211997   4.006   6.041  12.186
70034SOL     OW11998  13.827  11.001   9.501
70034SOL    HW111999  13.780  10.983   9.583
70034SOL    HW212000  13.845  10.914   9.465
70035SOL     OW12001  12.326   3.515   9.427
70035SOL    HW112002  12.303   3.438   9.375
70035SOL    HW212003  12.408   3.491   9.470
70036SOL     OW12004   2.004  11.242   5.462
70036SOL    HW112005   2.060  11.310   5.424
70036SOL    HW212006   1.970  11.194   5.386
70037SOL     OW12007   4.663   5.549   3.465
70037SOL    HW112008   4.606   5.537   3.389
70037SOL    HW212009   4.751   5.557   3.427
70038SOL     OW12010   0.493  10.501   3.375
70038SOL    HW112011   0.507  10.594   3.358
70038SOL    HW212012   0.520  10.457   3.294
70039SOL     OW12013  11.610   5.210   8.111
70039SOL    HW112014  11.627   5.176   8.199
70039SOL    HW212015  11.551   5.145   8.071
70040SOL     OW12016   0.809   5.754   0.097
70040SOL    HW112017   0.721   5.718   0.107
70040SOL    HW212018   0.794   5.846   0.075
70041SOL     OW12019   1.235   8.953   5.217
70041SOL    HW112020   1.256   9.039   5.182
70041SOL    HW212021   1.309   8.932   5.275
70042SOL     OW12022  10.415   3.397   3.197
70042SOL    HW112023  10.436   3.475   3.144
70042SOL    HW212024  10.420   3.324   3.136
70043SOL     OW12025  13.973   2.845   3.079
70043SOL    HW112026  14.005   2.905   3.146
70043SOL    HW212027  14.030   2.859   3.003
70044SOL     OW12028   8.270   5.148   9.936
70044SOL    HW112029   8.229   5.061   9.937
70044SOL    HW212030   8.213   5.202   9.990
70045SOL     OW12031   1.752   5.956   4.781
70045SOL    HW112032   1.794   6.028   4.827
70045SOL    HW212033   1.660   5.961   4.807
70046SOL     OW12034  10.901   4.291   2.766
70046SOL    HW112035  10.812   4.287   2.731
70046SOL    HW212036  10.955   4.316   2.692
70047SOL     OW12037   0.066  14.425  10.036
70047SOL    HW112038   0.078  14.414   9.942
70047SOL    HW212039   0.142  14.477  10.064
70048SOL     OW12040   5.655   0.143  10.060
70048SOL    HW112041   5.638   0.116   9.970
70048SOL    HW212042   5.661   0.062  10.110
70049SOL     OW12043   6.061   4.218   5.330
70049SOL    HW112044   6.148   4.184   5.350
70049SOL    HW212045   6.041   4.183   5.243
70050SOL     OW12046   3.151  12.721   4.725
70050SOL    HW112047   3.159  12.816   4.736
70050SOL    HW212048   3.077  12.696   4.780
70051SOL     OW12049   4.493   8.125  13.788
70051SOL    HW112050   4.532   8.210  13.769
70051SOL    HW212051   4.492   8.079  13.704
70052SOL     OW12052  12.288  14.262   0.546
70052SOL    HW112053  12.372  14.300   0.520
70052SOL    HW212054  12.300  14.234   0.637
70053SOL     OW12055  13.926   8.747   4.220
70053SOL    HW112056  13.974   8.734   4.138
70053SOL    HW212057  13.859   8.812   4.199
70054SOL     OW12058   9.070   1.657   5.631
70054SOL    HW112059   9.072   1.675   5.725
70054SOL    HW212060   9.005   1.588   5.621
70055SOL     OW12061  10.559  13.041   3.114
70055SOL    HW112062  10.538  13.113   3.054
70055SOL    HW212063  10.550  12.962   3.061
70056SOL     OW12064  10.160  14.672   8.564
70056SOL    HW112065  10.093  14.689   8.498
70056SOL    HW212066  10.220  14.610   8.522
70057SOL     OW12067   4.200  11.725   9.568
70057SOL    HW112068   4.254  11.752   9.494
70057SOL    HW212069   4.112  11.758   9.547
70058SOL     OW12070   2.669  12.439   0.335
70058SOL    HW112071   2.664  12.413   0.427
70058SOL    HW212072   2.759  12.423   0.310
70059SOL     OW12073   4.565   8.129  12.806
70059SOL    HW112074   4.612   8.183  12.870
70059SOL    HW212075   4.634   8.075  12.766
70060SOL     OW12076   3.457   7.553  10.061
70060SOL    HW112077   3.508   7.501   9.998
70060SOL    HW212078   3.519   7.619  10.092
70061SOL     OW12079   5.915   3.513  14.293
70061SOL    HW112080   5.908   3.561  14.376
70061SOL    HW212081   5.942   3.579  14.229
70062SOL     OW12082  10.252  13.269   4.670
70062SOL    HW112083  10.292  13.219   4.598
70062SOL    HW212084  10.322  13.283   4.732
70063SOL     OW12085   6.697   0.426   3.966
70063SOL    HW112086   6.792   0.425   3.974
70063SOL    HW212087   6.669   0.343   4.006
70064SOL     OW12088   2.289   6.960  10.228
70064SOL    HW112089   2.294   6.877  10.181
70064SOL    HW212090   2.256   7.023  10.163
70065SOL     OW12091   9.330  10.170   3.401
70065SOL    HW112092   9.293  10.254   3.372
70065SOL    HW212093   9.424  10.179   3.385
70066SOL     OW12094   0.755   3.081   5.877
70066SOL    HW112095   0.718   3.009   5.928
70066SOL    HW212096   0.790   3.142   5.943
70067SOL     OW12097   0.357  12.539   6.135
70067SOL    HW112098   0.326  12.570   6.221
70067SOL    HW212099   0.278  12.504   6.093
70068SOL     OW12100  12.283   1.910   1.105
70068SOL    HW112101  12.197   1.904   1.147
70068SOL    HW212102  12.305   1.820   1.081
70069SOL     OW12103  10.484   4.289  12.749
70069SOL    HW112104  10.512   4.380  12.757
70069SOL    HW212105  10.555   4.246  12.701
70070SOL     OW12106  10.445   0.613  10.942
70070SOL    HW112107  10.488   0.639  10.860
70070SOL    HW212108  10.504   0.547  10.979
70071SOL     OW12109   4.810   7.288   2.973
70071SOL    HW112110   4.761   7.246   2.902
70071SOL    HW212111   4.822   7.219   3.038
70072SOL     OW12112   5.966  10.156   5.018
70072SOL    HW112113   5.912  10.139   5.096
70072SOL    HW212114   6.018  10.233   5.041
70073SOL     OW12115   2.868   2.644   8.984
70073SOL    HW112116   2.887   2.587   8.910
70073SOL    HW212117   2.950   2.648   9.034
70074SOL     OW12118   8.361  12.574  13.291
70074SOL    HW112119   8.334  12.484  13.270
70074SOL    HW212120   8.280  12.617  13.317
70075SOL     OW12121   6.112  12.153  10.869
70075SOL    HW112122   6.077  12.133  10.783
70075SOL    HW212123   6.107  12.070  10.917
70076SOL     OW12124   5.832   1.012   7.198
70076SOL    HW112125   5.913   1.008   7.249
70076SOL    HW212126   5.854   1.065   7.122
70077SOL     OW12127  13.139   4.472  14.678
70077SOL    HW112128  13.069   4.417  14.641
70077SOL    HW212129  13.139   4.550  14.622
70078SOL     OW12130   5.847   4.559   2.913
70078SOL    HW112131   5.867   4.509   2.992
70078SOL    HW212132   5.755   4.582   2.921
70079SOL     OW12133   0.398   8.296   0.026
70079SOL    HW112134   0.368   8.268  14.820
70079SOL    HW212135   0.331   8.358   0.055
70080SOL     OW12136  12.940   0.374   5.536
70080SOL    HW112137  12.931   0.347   5.628
70080SOL    HW212138  12.928   0.293   5.486
70081SOL     OW12139   2.998   1.214   2.462
70081SOL    HW112140   3.006   1.270   2.384
70081SOL    HW212141   3.040   1.264   2.532
70082SOL     OW12142   1.418   2.596   2.287
70082SOL    HW112143   1.405   2.560   2.199
70082SOL    HW212144   1.349   2.554   2.340
70083SOL     OW12145  13.151  10.333   8.588
70083SOL    HW112146  13.120  10.413   8.546
70083SOL    HW212147  13.241  10.322   8.556
70084SOL     OW12148  11.794   9.502  13.574
70084SOL    HW112149  11.886   9.476  13.572
70084SOL    HW212150  11.747   9.420  13.588
70085SOL     OW12151   7.046   9.744   0.818
70085SOL    HW112152   7.022   9.667   0.871
70085SOL    HW212153   6.993   9.736   0.739
70086SOL     OW12154   7.848   9.624   4.704
70086SOL    HW112155   7.830   9.630   4.610
70086SOL    HW212156   7.895   9.541   4.715
70087SOL     OW12157   5.871   5.780   5.531
70087SOL    HW112158   5.901   5.861   5.573
70087SOL    HW212159   5.776   5.790   5.526
70088SOL     OW12160  13.967   1.451   8.864
70088SOL    HW112161  14.042   1.396   8.888
70088SOL    HW212162  14.000   1.508   8.794
70089SOL     OW12163   6.238   7.812   8.374
70089SOL    HW112164   6.175   7.741   8.386
70089SOL    HW212165   6.299   7.802   8.447
70090SOL     OW12166   0.636  14.182   0.724
70090SOL    HW112167   0.679  14.236   0.790
70090SOL    HW212168   0.675  14.210   0.641
70091SOL     OW12169   5.401   0.963   1.701
70091SOL    HW112170   5.334   0.991   1.639
70091SOL    HW212171   5.391   1.022   1.776
70092SOL     OW12172   3.373  13.017   3.119
70092SOL    HW112173   3.306  12.952   3.096
70092SOL    HW212174   3.455  12.968   3.120
70093SOL     OW12175   0.811   2.883  13.271
70093SOL    HW112176   0.769   2.929  13.344
70093SOL    HW212177   0.902   2.873  13.298
70094SOL     OW12178  11.412  14.740   2.236
70094SOL    HW112179  11.464  14.669   2.275
70094SOL    HW212180  11.399  14.802   2.307
70095SOL     OW12181   8.132   2.751  11.530
70095SOL    HW112182   8.165   2.805  11.458
70095SOL    HW212183   8.037   2.751  11.518
70096SOL     OW12184   6.249   8.547   7.763
70096SOL    HW112185   6.279   8.585   7.680
70096SOL    HW212186   6.312   8.578   7.828
70097SOL     OW12187  13.942   6.139   8.048
70097SOL    HW112188  13.847   6.148   8.063
70097SOL    HW212189  13.951   6.057   8.000
70098SOL     OW12190   3.652   9.349  11.438
70098SOL    HW112191   3.688   9.271  11.398
70098SOL    HW212192   3.591   9.384  11.373
70099SOL     OW12193   5.244   8.900   4.125
70099SOL    HW112194   5.262   8.993   4.133
70099SOL    HW212195   5.168   8.885   4.182
70100SOL     OW12196   0.925  12.301   9.258
70100SOL    HW112197   0.859  12.370   9.253
70100SOL    HW212198   0.880  12.227   9.299
70101SOL     OW12199   7.362   3.312   9.621
70101SOL    HW112200   7.308   3.272   9.553
70101SOL    HW212201   7.348   3.406   9.611
70102SOL     OW12202   9.227   3.740   0.057
70102SOL    HW112203   9.198   3.767  14.850
70102SOL    HW212204   9.271   3.817   0.093
70103SOL     OW12205  13.940   7.851  12.123
70103SOL    HW112206  13.961   7.787  12.055
70103SOL    HW212207  13.903   7.799  12.194
70104SOL     OW12208   8.747  13.392   6.664
70104SOL    HW112209   8.704  13.391   6.749
70104SOL    HW212210   8.686  13.438   6.606
70105SOL     OW12211  11.009   1.084   5.504
70105SOL    HW112212  10.974   1.170   5.480
70105SOL    HW212213  10.984   1.027   5.431
70106SOL     OW12214  10.711   9.713  10.214
70106SOL    HW112215  10.735   9.622  10.232
70106SOL    HW212216  10.723   9.723  10.119
70107SOL     OW12217   6.297   7.428   9.442
70107SOL    HW112218   6.253   7.493   9.498
70107SOL    HW212219   6.309   7.352   9.498
70108SOL     OW12220  10.685   5.547   2.879
70108SOL    HW112221  10.767   5.584   2.845
70108SOL    HW212222  10.626   5.622   2.886
70109SOL     OW12223   2.258   5.873  12.855
70109SOL    HW112224   2.270   5.865  12.950
70109SOL    HW212225   2.321   5.941  12.829
70110SOL     OW12226  14.426  14.099   7.233
70110SOL    HW112227  14.338  14.069   7.257
70110SOL    HW212228  14.412  14.183   7.190
70111SOL     OW12229   3.684   6.556   2.814
70111SOL    HW112230   3.750   6.567   2.745
70111SOL    HW212231   3.735   6.545   2.894
70112SOL     OW12232   2.682   3.400  12.470
70112SOL    HW112233   2.729   3.483  12.461
70112SOL    HW212234   2.623   3.413  12.544
70113SOL     OW12235   1.437  12.593   5.429
70113SOL    HW112236   1.505  12.655   5.403
70113SOL    HW212237   1.383  12.642   5.491
70114SOL     OW12238   3.860  12.487   1.718
70114SOL    HW112239   3.945  12.531   1.714
70114SOL    HW212240   3.879  12.396   1.697
70115SOL     OW12241   2.487  10.742   7.978
70115SOL    HW112242   2.492  10.740   7.882
70115SOL    HW212243   2.518  10.656   8.006
70116SOL     OW12244   4.358  10.166  13.045
70116SOL    HW112245   4.354  10.082  12.999
70116SOL    HW212246   4.302  10.155  13.121
70117SOL     OW12247  11.584  10.097  11.768
70117SOL    HW112248  11.564  10.034  11.698
70117SOL    HW212249  11.500  10.109  11.813
70118SOL     OW12250   3.605  11.331   3.827
70118SOL    HW112251   3.626  11.310   3.736
70118SOL    HW212252   3.674  11.391   3.854
70119SOL     OW12253  13.007   4.707  13.193
70119SOL    HW112254  12.981   4.617  13.174
70119SOL    HW212255  12.992   4.718  13.287
70120SOL     OW12256   2.955   6.142   8.910
70120SOL    HW112257   3.023   6.102   8.856
70120SOL    HW212258   2.875   6.094   8.886
70121SOL     OW12259  14.761   3.223   2.749
70121SOL    HW112260  14.694   3.184   2.692
70121SOL    HW212261  14.735   3.314   2.758
70122SOL     OW12262  11.848   9.121   7.785
70122SOL    HW112263  11.804   9.120   7.870
70122SOL    HW212264  11.781   9.151   7.724
70123SOL     OW12265   0.143   4.634   8.878
70123SOL    HW112266   0.172   4.563   8.935
70123SOL    HW212267   0.182   4.613   8.793
70124SOL     OW12268   0.625   9.020   6.744
70124SOL    HW112269   0.652   9.111   6.744
70124SOL    HW212270   0.685   8.976   6.684
70125SOL     OW12271  11.113   0.503   7.077
70125SOL    HW112272  11.051   0.450   7.127
70125SOL    HW212273  11.153   0.441   7.016
70126SOL     OW12274   8.971   5.660  12.670
70126SOL    HW112275   8.926   5.744  12.677
70126SOL    HW212276   8.901   5.595  12.661
70127SOL     OW12277   5.950   0.332   2.941
70127SOL    HW112278   5.885   0.313   2.873
70127SOL    HW212279   6.016   0.263   2.932
70128SOL     OW12280  13.059  13.151  14.511
70128SOL    HW112281  13.083  13.244  14.519
70128SOL    HW212282  12.968  13.153  14.480
70129SOL     OW12283   3.180   3.862   6.040
70129SOL    HW112284   3.160   3.829   6.127
70129SOL    HW212285   3.269   3.898   6.048
70130SOL     OW12286   1.953   0.213   5.265
70130SOL    HW112287   1.973   0.274   5.194
70130SOL    HW212288   1.880   0.254   5.312
70131SOL     OW12289  11.687   6.148   5.917
70131SOL    HW112290  11.781   6.138   5.901
70131SOL    HW212291  11.662   6.070   5.965
70132SOL     OW12292   9.000   9.201  11.103
70132SOL    HW112293   8.985   9.175  11.194
70132SOL    HW212294   8.925   9.167  11.055
70133SOL     OW12295   8.334   1.418   8.971
70133SOL    HW112296   8.311   1.428   8.878
70133SOL    HW212297   8.418   1.464   8.980
70134SOL     OW12298   3.681   8.489   1.691
70134SOL    HW112299   3.602   8.527   1.729
70134SOL    HW212300   3.749   8.502   1.758
70135SOL     OW12301   8.138   2.643   0.834
70135SOL    HW112302   8.142   2.659   0.740
70135SOL    HW212303   8.053   2.603   0.848
70136SOL     OW12304   1.285  12.537   4.952
70136SOL    HW112305   1.333  12.535   5.034
70136SOL    HW212306   1.318  12.461   4.903
70137SOL     OW12307   4.615   8.365   6.364
70137SOL    HW112308   4.549   8.296   6.360
70137SOL    HW212309   4.640   8.379   6.272
70138SOL     OW12310  10.812   6.218   3.915
70138SOL    HW112311  10.889   6.267   3.886
70138SOL    HW212312  10.799   6.247   4.006
70139SOL     OW12313   8.949   9.623   7.336
70139SOL    HW112314   9.040   9.631   7.309
70139SOL    HW212315   8.911   9.709   7.317
70140SOL     OW12316   2.627   5.825   7.479
70140SOL    HW112317   2.564   5.896   7.493
70140SOL    HW212318   2.573   5.751   7.449
70141SOL     OW12319   6.347  14.186   1.812
70141SOL    HW112320   6.288  14.135   1.868
70141SOL    HW212321   6.319  14.166   1.723
70142SOL     OW12322  11.185  12.679  11.242
70142SOL    HW112323  11.147  12.752  11.291
70142SOL    HW212324  11.279  12.697  11.243
70143SOL     OW12325   6.869  11.687  12.661
70143SOL    HW112326   6.780  11.706  12.688
70143SOL    HW212327   6.923  11.749  12.711
70144SOL     OW12328   1.470   5.901  12.644
70144SOL    HW112329   1.450   5.847  12.567
70144SOL    HW212330   1.399   5.964  12.649
70145SOL     OW12331   4.699  14.627  12.263
70145SOL    HW112332   4.750  14.569  12.320
70145SOL    HW212333   4.658  14.689  12.323
70146SOL     OW12334  11.125   0.762   9.379
70146SOL    HW112335  11.183   0.811   9.321
70146SOL    HW212336  11.091   0.691   9.325
70147SOL     OW12337  11.480  14.600   0.999
70147SOL    HW112338  11.569  14.624   1.027
70147SOL    HW212339  11.487  14.588   0.905
70148SOL     OW12340   7.305  11.732  13.037
70148SOL    HW112341   7.267  11.663  12.983
70148SOL    HW212342   7.378  11.766  12.985
70149SOL     OW12343   2.744  14.193   8.715
70149SOL    HW112344   2.704  14.110   8.742
70149SOL    HW212345   2.828  14.168   8.677
70150SOL     OW12346   2.018   6.603   7.118
70150SOL    HW112347   2.015   6.697   7.099
70150SOL    HW212348   1.953   6.565   7.059
70151SOL     OW12349   5.015   2.941  12.416
70151SOL    HW112350   4.972   2.900  12.491
70151SOL    HW212351   4.974   3.028  12.410
70152SOL     OW12352  13.438   0.073   4.699
70152SOL    HW112353  13.409   0.158   4.731
70152SOL    HW212354  13.507   0.093   4.635
70153SOL     OW12355  10.159   7.487   9.588
70153SOL    HW112356  10.210   7.420   9.543
70153SOL    HW212357  10.141   7.450   9.674
70154SOL     OW12358   0.535  11.756  10.399
70154SOL    HW112359   0.607  11.767  10.337
70154SOL    HW212360   0.456  11.762  10.345
70155SOL     OW12361   4.054   0.976   1.672
70155SOL    HW112362   4.101   1.022   1.602
70155SOL    HW212363   4.033   0.890   1.635
70156SOL     OW12364  14.724  11.317   6.227
70156SOL    HW112365  14.786  11.274   6.285
70156SOL    HW212366  14.773  11.332   6.146
70157SOL     OW12367   9.390   7.513   9.685
70157SOL    HW112368   9.398   7.585   9.623
70157SOL    HW212369   9.364   7.438   9.631
70158SOL     OW12370   5.650  10.433  10.653
70158SOL    HW112371   5.593  10.502  10.686
70158SOL    HW212372   5.639  10.436  10.558
70159SOL     OW12373   8.616   1.289   4.803
70159SOL    HW112374   8.654   1.284   4.715
70159SOL    HW212375   8.682   1.335   4.854
70160SOL     OW12376  11.530   5.548   8.720
70160SOL    HW112377  11.468   5.529   8.791
70160SOL    HW212378  11.603   5.488   8.735
70161SOL     OW12379  10.825   0.663   1.700
70161SOL    HW112380  10.884   0.607   1.752
70161SOL    HW212381  10.874   0.682   1.620
70162SOL     OW12382  10.756   4.548  13.293
70162SOL    HW112383  10.759   4.619  13.358
70162SOL    HW212384  10.664   4.522  13.290
70163SOL     OW12385   1.940  11.557   3.474
70163SOL    HW112386   1.961  11.555   3.380
70163SOL    HW212387   1.852  11.595   3.478
70164SOL     OW12388   3.439   2.754   0.318
70164SOL    HW112389   3.496   2.786   0.388
70164SOL    HW212390   3.491   2.688   0.273
70165SOL     OW12391  12.421   4.867   5.429
70165SOL    HW112392  12.336   4.908   5.446
70165SOL    HW212393  12.484   4.935   5.451
70166SOL     OW12394   0.235   3.436  12.095
70166SOL    HW112395   0.248   3.499  12.025
70166SOL    HW212396   0.268   3.353  12.060
70167SOL     OW12397   1.513  11.527   5.936
70167SOL    HW112398   1.559  11.556   6.014
70167SOL    HW212399   1.577  11.536   5.865
70168SOL     OW12400  10.738   8.802   1.443
70168SOL    HW112401  10.687   8.726   1.469
70168SOL    HW212402  10.797   8.818   1.516
70169SOL     OW12403   8.529   9.023   0.959
70169SOL    HW112404   8.476   8.974   1.022
70169SOL    HW212405   8.474   9.028   0.881
70170SOL     OW12406  11.873  13.124   1.529
70170SOL    HW112407  11.921  13.207   1.523
70170SOL    HW212408  11.932  13.061   1.487
70171SOL     OW12409   6.230   4.415  13.744
70171SOL    HW112410   6.181   4.345  13.703
70171SOL    HW212411   6.232   4.485  13.679
70172SOL     OW12412   9.848   8.741  10.851
70172SOL    HW112413   9.932   8.784  10.833
70172SOL    HW212414   9.867   8.648  10.843
70173SOL     OW12415   8.296   4.994   2.692
70173SOL    HW112416   8.326   4.914   2.648
70173SOL    HW212417   8.357   5.062   2.662
70174SOL     OW12418  11.141   0.547  14.176
70174SOL    HW112419  11.105   0.633  14.155
70174SOL    HW212420  11.084   0.485  14.131
70175SOL     OW12421   2.509   9.630  11.093
70175SOL    HW112422   2.593   9.648  11.051
70175SOL    HW212423   2.474   9.555  11.046
70176SOL     OW12424  13.901  13.981   7.034
70176SOL    HW112425  13.892  14.016   7.123
70176SOL    HW212426  13.918  14.058   6.980
70177SOL     OW12427   4.666   9.231  10.619
70177SOL    HW112428   4.628   9.299  10.674
70177SOL    HW212429   4.628   9.246  10.532
70178SOL     OW12430   8.162   5.648   8.340
70178SOL    HW112431   8.232   5.710   8.363
70178SOL    HW212432   8.103   5.699   8.285
70179SOL     OW12433   1.084   2.503  11.841
70179SOL    HW112434   1.117   2.414  11.826
70179SOL    HW212435   1.016   2.493  11.908
70180SOL     OW12436  14.154  11.399   9.698
70180SOL    HW112437  14.228  11.457   9.682
70180SOL    HW212438  14.181  11.347   9.774
70181SOL     OW12439   8.439   4.513   5.355
70181SOL    HW112440   8.517   4.535   5.305
70181SOL    HW212441   8.378   4.478   5.290
70182SOL     OW12442   5.754   7.012   4.502
70182SOL    HW112443   5.711   7.063   4.571
70182SOL    HW212444   5.701   7.029   4.423
70183SOL     OW12445   0.794   1.812   2.157
70183SOL    HW112446   0.716   1.848   2.199
70183SOL    HW212447   0.815   1.875   2.088
70184SOL     OW12448  11.918  10.445   0.738
70184SOL    HW112449  11.877  10.371   0.694
70184SOL    HW212450  11.894  10.521   0.684
70185SOL     OW12451   7.794   5.390   7.836
70185SOL    HW112452   7.722   5.351   7.885
70185SOL    HW212453   7.808   5.475   7.878
70186SOL     OW12454  11.113  12.645   0.227
70186SOL    HW112455  11.209  12.650   0.233
70186SOL    HW212456  11.087  12.733   0.198
70187SOL     OW12457   4.544   9.494   0.194
70187SOL    HW112458   4.589   9.427   0.245
70187SOL    HW212459   4.453   9.487   0.220
70188SOL     OW12460   7.468   8.300   9.292
70188SOL    HW112461   7.396   8.271   9.236
70188SOL    HW212462   7.443   8.271   9.380
70189SOL     OW12463   2.714   0.277   8.262
70189SOL    HW112464   2.737   0.238   8.177
70189SOL    HW212465   2.725   0.371   8.248
70190SOL     OW12466  11.960   1.953  12.510
70190SOL    HW112467  12.028   1.900  12.553
70190SOL    HW212468  11.879   1.930  12.555
70191SOL     OW12469   7.396  11.159   0.505
70191SOL    HW112470   7.313  11.116   0.486
70191SOL    HW212471   7.392  11.182   0.598
70192SOL     OW12472   0.864  10.804   2.539
70192SOL    HW112473   0.932  10.774   2.600
70192SOL    HW212474   0.781  10.781   2.583
70193SOL     OW12475   8.948   2.921  13.424
70193SOL    HW112476   8.870   2.975  13.411
70193SOL    HW212477   8.988   2.915  13.337
70194SOL     OW12478  10.469  10.516  11.546
70194SOL    HW112479  10.503  10.588  11.492
70194SOL    HW212480  10.525  10.516  11.623
70195SOL     OW12481  14.709  13.583  13.787
70195SOL    HW112482  14.751  13.660  13.825
70195SOL    HW212483  14.737  13.582  13.696
70196SOL     OW12484   0.572   0.613   9.376
70196SOL    HW112485   0.653   0.633   9.329
70196SOL    HW212486   0.580   0.659   9.459
70197SOL     OW12487   0.310  14.516   6.173
70197SOL    HW112488   0.342  14.598   6.136
70197SOL    HW212489   0.351  14.511   6.260
70198SOL     OW12490   5.278   3.760  10.550
70198SOL    HW112491   5.321   3.840  10.521
70198SOL    HW212492   5.349   3.704  10.579
70199SOL     OW12493   9.613  13.704   1.003
70199SOL    HW112494   9.607  13.637   0.935
70199SOL    HW212495   9.705  13.731   1.002
70200SOL     OW12496  14.620   4.098  14.698
70200SOL    HW112497  14.672   4.073  14.773
70200SOL    HW212498  14.564   4.170  14.730
70201SOL     OW12499   6.527  10.397   1.874
70201SOL    HW112500   6.536  10.334   1.946
70201SOL    HW212501   6.557  10.349   1.796
70202SOL     OW12502  11.949   7.757   6.330
70202SOL    HW112503  12.012   7.773   6.259
70202SOL    HW212504  11.959   7.833   6.388
70203SOL     OW12505   2.472   9.276  12.673
70203SOL    HW112506   2.393   9.327  12.693
70203SOL    HW212507   2.525   9.336  12.621
70204SOL     OW12508  11.076   9.622   8.279
70204SOL    HW112509  10.995   9.639   8.232
70204SOL    HW212510  11.048   9.587   8.364
70205SOL     OW12511   7.131   2.863   9.414
70205SOL    HW112512   7.068   2.793   9.398
70205SOL    HW212513   7.191   2.858   9.339
70206SOL     OW12514  11.483   1.264   3.046
70206SOL    HW112515  11.435   1.279   2.964
70206SOL    HW212516  11.538   1.188   3.028
70207SOL     OW12517   2.946   8.874   1.504
70207SOL    HW112518   2.911   8.846   1.419
70207SOL    HW212519   2.961   8.793   1.552
70208SOL     OW12520   5.033  11.086   0.094
70208SOL    HW112521   5.104  11.041   0.048
70208SOL    HW212522   4.980  11.016   0.132
70209SOL     OW12523   5.328  14.498   4.269
70209SOL    HW112524   5.364  14.414   4.241
70209SOL    HW212525   5.375  14.563   4.215
70210SOL     OW12526   8.007   1.939  11.287
70210SOL    HW112527   7.914   1.945  11.267
70210SOL    HW212528   8.051   1.946  11.202
70211SOL     OW12529   2.016   1.426   6.729
70211SOL    HW112530   2.095   1.418   6.782
70211SOL    HW212531   1.946   1.394   6.786
70212SOL     OW12532   2.062  10.617  11.984
70212SOL    HW112533   2.059  10.622  12.079
70212SOL    HW212534   2.012  10.693  11.954
70213SOL     OW12535   7.426  13.062   1.959
70213SOL    HW112536   7.339  13.032   1.984
70213SOL    HW212537   7.479  12.982   1.955
70214SOL     OW12538  14.702   5.597  14.856
70214SOL    HW112539  14.706   5.503  14.844
70214SOL    HW212540  14.714   5.633  14.768
70215SOL     OW12541   0.045   8.402   8.782
70215SOL    HW112542   0.110   8.442   8.725
70215SOL    HW212543  14.857   8.369   8.723
70216SOL     OW12544   6.369   0.920  10.099
70216SOL    HW112545   6.333   0.856  10.160
70216SOL    HW212546   6.340   0.891  10.013
70217SOL     OW12547  14.207  14.010  11.454
70217SOL    HW112548  14.135  14.023  11.393
70217SOL    HW212549  14.220  13.915  11.456
70218SOL     OW12550   9.146   9.728  14.559
70218SOL    HW112551   9.211   9.729  14.629
70218SOL    HW212552   9.113   9.638  14.559
70219SOL     OW12553   8.113   4.340  10.499
70219SOL    HW112554   8.023   4.309  10.496
70219SOL    HW212555   8.163   4.266  10.533
70220SOL     OW12556   6.178   5.728   9.820
70220SOL    HW112557   6.110   5.701   9.758
70220SOL    HW212558   6.146   5.810   9.856
70221SOL     OW12559   4.261  12.474   3.162
70221SOL    HW112560   4.251  12.381   3.178
70221SOL    HW212561   4.195  12.495   3.096
70222SOL     OW12562   6.367   6.694  11.043
70222SOL    HW112563   6.452   6.655  11.061
70222SOL    HW212564   6.337   6.649  10.963
70223SOL     OW12565  13.092   7.254  10.024
70223SOL    HW112566  13.059   7.164  10.022
70223SOL    HW212567  13.094   7.276  10.117
70224SOL     OW12568  12.152   5.406  12.764
70224SOL    HW112569  12.112   5.328  12.725
70224SOL    HW212570  12.225   5.372  12.816
70225SOL     OW12571  14.391   9.164  10.898
70225SOL    HW112572  14.394   9.230  10.967
70225SOL    HW212573  14.349   9.088  10.939
70226SOL     OW12574   2.194   5.124   9.750
70226SOL    HW112575   2.254   5.198   9.747
70226SOL    HW212576   2.197   5.087   9.662
70227SOL     OW12577   6.871  11.817   7.890
70227SOL    HW112578   6.848  11.787   7.978
70227SOL    HW212579   6.915  11.901   7.904
70228SOL     OW12580   6.551   6.213   4.335
70228SOL    HW112581   6.619   6.263   4.289
70228SOL    HW212582   6.524   6.270   4.407
70229SOL     OW12583  11.328  14.284   2.956
70229SOL    HW112584  11.342  14.238   3.039
70229SOL    HW212585  11.280  14.221   2.902
70230SOL     OW12586   6.248   8.868   0.637
70230SOL    HW112587   6.340   8.874   0.613
70230SOL    HW212588   6.239   8.925   0.714
70231SOL     OW12589  11.898   8.049   8.436
70231SOL    HW112590  11.987   8.012   8.439
70231SOL    HW212591  11.902   8.114   8.366
70232SOL     OW12592  11.901  10.327  12.501
70232SOL    HW112593  11.828  10.384  12.526
70232SOL    HW212594  11.861  10.242  12.484
70233SOL     OW12595  11.346   4.663   3.252
70233SOL    HW112596  11.348   4.584   3.307
70233SOL    HW212597  11.318   4.631   3.166
70234SOL     OW12598  12.530  10.477   6.903
70234SOL    HW112599  12.444  10.446   6.932
70234SOL    HW212600  12.522  10.573   6.904
70235SOL     OW12601   4.237   6.214  14.346
70235SOL    HW112602   4.142   6.211  14.332
70235SOL    HW212603   4.267   6.126  14.322
70236SOL     OW12604   8.778  11.017  11.337
70236SOL    HW112605   8.734  11.014  11.422
70236SOL    HW212606   8.774  10.927  11.305
70237SOL     OW12607   3.094   6.823  14.654
70237SOL    HW112608   3.024   6.888  14.656
70237SOL    HW212609   3.050   6.741  14.676
70238SOL     OW12610   6.471   9.250   1.372
70238SOL    HW112611   6.431   9.332   1.344
70238SOL    HW212612   6.401   9.205   1.419
70239SOL     OW12613   8.956   2.139  12.543
70239SOL    HW112614   8.953   2.062  12.599
70239SOL    HW212615   8.883   2.128  12.483
70240SOL     OW12616   8.289  13.311   4.045
70240SOL    HW112617   8.293  13.317   3.950
70240SOL    HW212618   8.380  13.303   4.073
70241SOL     OW12619  11.872   9.397   7.990
70241SOL    HW112620  11.907   9.386   7.902
70241SOL    HW212621  11.947   9.425   8.042
70242SOL     OW12622   1.936  14.737   0.235
70242SOL    HW112623   1.972  14.794   0.167
70242SOL    HW212624   1.931  14.793   0.313
70243SOL     OW12625  13.122   3.721  13.340
70243SOL    HW112626  13.193   3.661  13.316
70243SOL    HW212627  13.108   3.706  13.433
70244SOL     OW12628  11.766   0.598  14.492
70244SOL    HW112629  11.813   0.676  14.463
70244SOL    HW212630  11.717   0.569  14.414
70245SOL     OW12631   8.425   6.732  13.528
70245SOL    HW112632   8.455   6.645  13.501
70245SOL    HW212633   8.445   6.737  13.621
70246SOL     OW12634  10.073   8.103  14.447
70246SOL    HW112635  10.101   8.080  14.359
70246SOL    HW212636  10.129   8.176  14.472
70247SOL     OW12637   4.460   3.558   2.542
70247SOL    HW112638   4.478   3.584   2.451
70247SOL    HW212639   4.536   3.504   2.567
70248SOL     OW12640   7.738   7.578   0.382
70248SOL    HW112641   7.733   7.523   0.461
70248SOL    HW212642   7.777   7.521   0.316
70249SOL     OW12643   1.762   1.942   6.691
70249SOL    HW112644   1.854   1.922   6.672
70249SOL    HW212645   1.735   1.997   6.617
70250SOL     OW12646   4.577   2.879   7.320
70250SOL    HW112647   4.527   2.955   7.352
70250SOL    HW212648   4.533   2.804   7.359
70251SOL     OW12649  10.232   1.115   5.941
70251SOL    HW112650  10.307   1.091   5.888
70251SOL    HW212651  10.238   1.210   5.950
70252SOL     OW12652  11.179   8.800   6.841
70252SOL    HW112653  11.098   8.776   6.886
70252SOL    HW212654  11.249   8.768   6.899
70253SOL     OW12655   4.496   6.850   1.694
70253SOL    HW112656   4.409   6.833   1.659
70253SOL    HW212657   4.542   6.767   1.685
70254SOL     OW12658   6.942  12.863  13.588
70254SOL    HW112659   6.949  12.784  13.643
70254SOL    HW212660   6.878  12.839  13.520
70255SOL     OW12661   0.309   2.667   8.895
70255SOL    HW112662   0.216   2.682   8.908
70255SOL    HW212663   0.352   2.714   8.967
70256SOL     OW12664   6.485   3.976   7.140
70256SOL    HW112665   6.426   3.992   7.214
70256SOL    HW212666   6.443   4.021   7.067
70257SOL     OW12667   1.753  11.000   9.542
70257SOL    HW112668   1.710  11.055   9.476
70257SOL    HW212669   1.819  11.058   9.581
70258SOL     OW12670  12.601   7.935   6.724
70258SOL    HW112671  12.611   8.030   6.726
70258SOL    HW212672  12.656   7.906   6.651
70259SOL     OW12673  13.412   0.288  11.008
70259SOL    HW112674  13.399   0.198  10.977
70259SOL    HW212675  13.333   0.334  10.982
70260SOL     OW12676   4.357  12.708  10.316
70260SOL    HW112677   4.406  12.706  10.398
70260SOL    HW212678   4.287  12.772  10.332
70261SOL     OW12679   0.866  11.419  10.068
70261SOL    HW112680   0.956  11.386  10.070
70261SOL    HW212681   0.866  11.493  10.129
70262SOL     OW12682   7.328   4.641   1.465
70262SOL    HW112683   7.311   4.548   1.480
70262SOL    HW212684   7.419   4.645   1.435
70263SOL     OW12685   2.768   5.204  11.327
70263SOL    HW112686   2.756   5.215  11.421
70263SOL    HW212687   2.709   5.268  11.288
70264SOL     OW12688  11.111  12.430   3.157
70264SOL    HW112689  11.175  12.366   3.128
70264SOL    HW212690  11.123  12.435   3.252
70265SOL     OW12691   5.781   5.957   4.127
70265SOL    HW112692   5.823   5.919   4.050
70265SOL    HW212693   5.761   5.881   4.183
70266SOL     OW12694   9.296   8.603  11.756
70266SOL    HW112695   9.367   8.543  11.733
70266SOL    HW212696   9.328   8.689  11.730
70267SOL     OW12697   2.297  10.900   1.924
70267SOL    HW112698   2.385  10.907   1.888
70267SOL    HW212699   2.300  10.822   1.979
70268SOL     OW12700   7.431   5.027  11.919
70268SOL    HW112701   7.438   5.103  11.862
70268SOL    HW212702   7.416   5.063  12.006
70269SOL     OW12703   0.941   6.864   5.355
70269SOL    HW112704   0.957   6.873   5.261
70269SOL    HW212705   1.009   6.804   5.385
70270SOL     OW12706   4.482  11.507  13.412
70270SOL    HW112707   4.512  11.585  13.366
70270SOL    HW212708   4.545  11.494  13.483
70271SOL     OW12709  12.330   0.767  12.138
70271SOL    HW112710  12.414   0.791  12.099
70271SOL    HW212711  12.350   0.748  12.229
70272SOL     OW12712  12.685   8.294   0.638
70272SOL    HW112713  12.617   8.350   0.599
70272SOL    HW212714  12.679   8.212   0.590
70273SOL     OW12715   7.879   3.522  11.151
70273SOL    HW112716   7.906   3.471  11.074
70273SOL    HW212717   7.900   3.613  11.128
70274SOL     OW12718   7.224   9.925   8.199
70274SOL    HW112719   7.247   9.870   8.274
70274SOL    HW212720   7.284  10.000   8.204
70275SOL     OW12721  12.323   9.380   1.220
70275SOL    HW112722  12.346   9.297   1.261
70275SOL    HW212723  12.322   9.444   1.292
70276SOL     OW12724   3.263   7.322  11.866
70276SOL    HW112725   3.239   7.244  11.817
70276SOL    HW212726   3.288   7.386  11.799
70277SOL     OW12727   3.360   1.529  13.650
70277SOL    HW112728   3.401   1.596  13.705
70277SOL    HW212729   3.422   1.515  13.579
70278SOL     OW12730   0.239  14.084   5.904
70278SOL    HW112731   0.234  14.152   5.971
70278SOL    HW212732   0.328  14.090   5.870
70279SOL     OW12733   7.770   3.258   7.554
70279SOL    HW112734   7.764   3.163   7.563
70279SOL    HW212735   7.703   3.292   7.613
70280SOL     OW12736  10.060   5.113   3.147
70280SOL    HW112737  10.100   5.114   3.234
70280SOL    HW212738  10.115   5.171   3.095
70281SOL     OW12739  10.462  12.833  11.172
70281SOL    HW112740  10.439  12.857  11.262
70281SOL    HW212741  10.467  12.737  11.174
70282SOL     OW12742   0.327   6.912   4.470
70282SOL    HW112743   0.328   6.964   4.550
70282SOL    HW212744   0.282   6.966   4.406
70283SOL     OW12745  12.366  12.680   2.278
70283SOL    HW112746  12.305  12.612   2.306
70283SOL    HW212747  12.445  12.633   2.253
70284SOL     OW12748   5.623  10.154   2.599
70284SOL    HW112749   5.588  10.161   2.510
70284SOL    HW212750   5.547  10.169   2.656
70285SOL     OW12751   4.832   9.802   2.768
70285SOL    HW112752   4.856   9.836   2.682
70285SOL    HW212753   4.761   9.859   2.797
70286SOL     OW12754  11.610   4.975  11.472
70286SOL    HW112755  11.678   4.908  11.477
70286SOL    HW212756  11.555   4.959  11.549
70287SOL     OW12757   4.235   5.470   1.117
70287SOL    HW112758   4.286   5.406   1.167
70287SOL    HW212759   4.208   5.423   1.038
70288SOL     OW12760  12.917  12.542   1.486
70288SOL    HW112761  12.937  12.513   1.575
70288SOL    HW212762  12.961  12.626   1.478
70289SOL     OW12763  12.283  11.379   2.431
70289SOL    HW112764  12.349  11.423   2.378
70289SOL    HW212765  12.307  11.286   2.428
70290SOL     OW12766   4.395  14.105   4.860
70290SOL    HW112767   4.432  14.087   4.774
70290SOL    HW212768   4.436  14.187   4.888
70291SOL     OW12769  13.004   5.705  10.982
70291SOL    HW112770  13.048   5.735  11.061
70291SOL    HW212771  13.040   5.758  10.912
70292SOL     OW12772   2.282   7.512   6.997
70292SOL    HW112773   2.361   7.534   6.949
70292SOL    HW212774   2.212   7.513   6.931
70293SOL     OW12775   7.938   4.642   4.697
70293SOL    HW112776   7.845   4.662   4.711
70293SOL    HW212777   7.940   4.547   4.682
70294SOL     OW12778   7.244   0.512  14.299
70294SOL    HW112779   7.232   0.424  14.264
70294SOL    HW212780   7.161   0.557  14.281
70295SOL     OW12781  11.674   5.235   4.536
70295SOL    HW112782  11.610   5.245   4.465
70295SOL    HW212783  11.650   5.153   4.578
70296SOL     OW12784   8.131  12.956   0.867
70296SOL    HW112785   8.123  12.878   0.811
70296SOL    HW212786   8.100  13.028   0.812
70297SOL     OW12787   2.798   5.809   2.761
70297SOL    HW112788   2.824   5.794   2.670
70297SOL    HW212789   2.731   5.742   2.778
70298SOL     OW12790  10.567   5.398  11.337
70298SOL    HW112791  10.497   5.332  11.338
70298SOL    HW212792  10.638   5.355  11.289
70299SOL     OW12793   1.422   3.684   2.401
70299SOL    HW112794   1.346   3.665   2.347
70299SOL    HW212795   1.470   3.601   2.406
70300SOL     OW12796   6.095   2.392   9.231
70300SOL    HW112797   6.053   2.396   9.317
70300SOL    HW212798   6.124   2.301   9.223
70301SOL     OW12799   4.525  13.057   1.089
70301SOL    HW112800   4.619  13.045   1.101
70301SOL    HW212801   4.486  12.973   1.115
70302SOL     OW12802  14.851  14.076   0.870
70302SOL    HW112803  14.823  14.132   0.798
70302SOL    HW212804  14.794  14.101   0.943
70303SOL     OW12805   7.878   5.999   9.435
70303SOL    HW112806   7.963   6.036   9.410
70303SOL    HW212807   7.835   5.978   9.352
70304SOL     OW12808   2.256   3.247  12.468
70304SOL    HW112809   2.169   3.287  12.467
70304SOL    HW212810   2.265   3.208  12.381
70305SOL     OW12811   6.544   0.995  12.917
70305SOL    HW112812   6.601   0.920  12.905
70305SOL    HW212813   6.596   1.058  12.967
70306SOL     OW12814  11.257  10.157  11.616
70306SOL    HW112815  11.308  10.086  11.579
70306SOL    HW212816  11.292  10.236  11.574
70307SOL     OW12817   5.004   1.535   0.527
70307SOL    HW112818   5.001   1.501   0.617
70307SOL    HW212819   5.019   1.457   0.473
70308SOL     OW12820  11.758  12.754  13.963
70308SOL    HW112821  11.821  12.797  14.021
70308SOL    HW212822  11.806  12.682  13.924
70309SOL     OW12823   6.046  11.042   1.343
70309SOL    HW112824   6.080  11.094   1.270
70309SOL    HW212825   6.124  11.000   1.380
70310SOL     OW12826   5.378   1.717   0.459
70310SOL    HW112827   5.379   1.759   0.545
70310SOL    HW212828   5.388   1.624   0.477
70311SOL     OW12829  14.088   7.117  10.983
70311SOL    HW112830  14.079   7.023  10.973
70311SOL    HW212831  14.074   7.152  10.895
70312SOL     OW12832  14.319   6.388  10.932
70312SOL    HW112833  14.346   6.407  10.842
70312SOL    HW212834  14.399   6.363  10.977
70313SOL     OW12835   8.946  14.223   4.622
70313SOL    HW112836   8.978  14.147   4.671
70313SOL    HW212837   8.898  14.185   4.548
70314SOL     OW12838   8.607  12.004   2.186
70314SOL    HW112839   8.675  12.058   2.226
70314SOL    HW212840   8.650  11.963   2.111
70315SOL     OW12841  12.790  14.749  10.712
70315SOL    HW112842  12.865  14.713  10.664
70315SOL    HW212843  12.826  14.775  10.797
70316SOL     OW12844   3.947   7.361   7.222
70316SOL    HW112845   4.040   7.352   7.245
70316SOL    HW212846   3.901   7.311   7.289
70317SOL     OW12847   3.040   0.993  10.573
70317SOL    HW112848   3.044   1.033  10.486
70317SOL    HW212849   2.948   1.000  10.598
70318SOL     OW12850   7.519  10.690   7.441
70318SOL    HW112851   7.466  10.625   7.488
70318SOL    HW212852   7.513  10.664   7.349
70319SOL     OW12853   5.624   2.876  14.071
70319SOL    HW112854   5.531   2.882  14.092
70319SOL    HW212855   5.668   2.915  14.146
70320SOL     OW12856   4.645   8.713   5.065
70320SOL    HW112857   4.635   8.761   5.147
70320SOL    HW212858   4.625   8.622   5.086
70321SOL     OW12859   3.620   1.611   3.271
70321SOL    HW112860   3.546   1.553   3.251
70321SOL    HW212861   3.657   1.573   3.351
70322SOL     OW12862   7.449  13.738  12.099
70322SOL    HW112863   7.532  13.710  12.061
70322SOL    HW212864   7.424  13.666  12.157
70323SOL     OW12865   4.164  14.233   5.499
70323SOL    HW112866   4.242  14.240   5.444
70323SOL    HW212867   4.102  14.295   5.461
70324SOL     OW12868   4.526   9.741   2.653
70324SOL    HW112869   4.546   9.775   2.740
70324SOL    HW212870   4.431   9.752   2.644
70325SOL     OW12871   1.617   0.374   0.811
70325SOL    HW112872   1.710   0.388   0.793
70325SOL    HW212873   1.616   0.303   0.875
70326SOL     OW12874   3.401   1.193   7.486
70326SOL    HW112875   3.438   1.256   7.424
70326SOL    HW212876   3.400   1.110   7.439
70327SOL     OW12877   0.853   6.540  13.355
70327SOL    HW112878   0.877   6.615  13.410
70327SOL    HW212879   0.775   6.504  13.397
70328SOL     OW12880  13.219   3.672   3.308
70328SOL    HW112881  13.196   3.616   3.234
70328SOL    HW212882  13.312   3.657   3.322
70329SOL     OW12883   2.185   7.744   6.334
70329SOL    HW112884   2.211   7.772   6.422
70329SOL    HW212885   2.131   7.666   6.348
70330SOL     OW12886   3.367   7.276  14.880
70330SOL    HW112887   3.413   7.222  14.817
70330SOL    HW212888   3.371   7.226   0.082
70331SOL     OW12889   3.951   7.956   5.921
70331SOL    HW112890   3.889   7.937   5.991
70331SOL    HW212891   3.955   8.052   5.918
70332SOL     OW12892   0.264   1.047  10.249
70332SOL    HW112893   0.175   1.069  10.220
70332SOL    HW212894   0.257   1.040  10.344
70333SOL     OW12895  14.236  14.798   1.926
70333SOL    HW112896  14.186  14.857   1.982
70333SOL    HW212897  14.272  14.856   1.858
70334SOL     OW12898   6.025   7.205  12.046
70334SOL    HW112899   6.087   7.194  11.974
70334SOL    HW212900   5.944   7.167  12.014
70335SOL     OW12901   0.264   7.331   2.944
70335SOL    HW112902   0.251   7.272   3.018
70335SOL    HW212903   0.329   7.394   2.975
70336SOL     OW12904   2.457  13.123  14.644
70336SOL    HW112905   2.408  13.048  14.610
70336SOL    HW212906   2.547  13.108  14.616
70337SOL     OW12907  14.661   3.137   9.976
70337SOL    HW112908  14.576   3.099   9.993
70337SOL    HW212909  14.657   3.224  10.014
70338SOL     OW12910   9.094  12.989  10.215
70338SOL    HW112911   9.179  12.949  10.233
70338SOL    HW212912   9.067  13.026  10.299
70339SOL     OW12913   2.942  11.663   3.660
70339SOL    HW112914   2.936  11.684   3.567
70339SOL    HW212915   3.031  11.631   3.672
70340SOL     OW12916   0.610   7.876   5.187
70340SOL    HW112917   0.522   7.840   5.173
70340SOL    HW212918   0.646   7.822   5.258
70341SOL     OW12919   4.168   2.104  11.248
70341SOL    HW112920   4.138   2.190  11.277
70341SOL    HW212921   4.094   2.046  11.264
70342SOL     OW12922   7.821   3.182  13.735
70342SOL    HW112923   7.877   3.105  13.741
70342SOL    HW212924   7.735   3.152  13.765
70343SOL     OW12925   1.498   8.117   4.676
70343SOL    HW112926   1.507   8.166   4.757
70343SOL    HW212927   1.470   8.181   4.611
70344SOL     OW12928   9.732   5.020   2.763
70344SOL    HW112929   9.771   4.950   2.815
70344SOL    HW212930   9.804   5.053   2.709
70345SOL     OW12931   0.144   8.948   2.890
70345SOL    HW112932   0.118   9.007   2.819
70345SOL    HW212933   0.062   8.919   2.929
70346SOL     OW12934   2.179   3.064   7.242
70346SOL    HW112935   2.107   3.017   7.283
70346SOL    HW212936   2.258   3.019   7.272
70347SOL     OW12937   3.164  10.532   6.919
70347SOL    HW112938   3.159  10.449   6.966
70347SOL    HW212939   3.232  10.581   6.966
70348SOL     OW12940   2.358  11.024   0.155
70348SOL    HW112941   2.279  11.068   0.124
70348SOL    HW212942   2.401  10.995   0.074
70349SOL     OW12943  10.701   6.053  10.704
70349SOL    HW112944  10.716   6.107  10.782
70349SOL    HW212945  10.632   5.993  10.728
70350SOL     OW12946  13.800   8.244   4.390
70350SOL    HW112947  13.745   8.298   4.334
70350SOL    HW212948  13.842   8.307   4.449
70351SOL     OW12949  10.585   1.592   9.902
70351SOL    HW112950  10.655   1.537   9.865
70351SOL    HW212951  10.519   1.529   9.932
70352SOL     OW12952  10.102   7.254   8.071
70352SOL    HW112953  10.124   7.347   8.070
70352SOL    HW212954  10.020   7.250   8.121
70353SOL     OW12955   0.648   5.838   1.545
70353SOL    HW112956   0.710   5.766   1.537
70353SOL    HW212957   0.616   5.853   1.456
70354SOL     OW12958   5.386   3.381   6.047
70354SOL    HW112959   5.351   3.291   6.049
70354SOL    HW212960   5.481   3.369   6.041
70355SOL     OW12961  14.811  11.513   3.048
70355SOL    HW112962  14.730  11.499   3.099
70355SOL    HW212963  14.878  11.526   3.115
70356SOL     OW12964  12.331   4.126   4.053
70356SOL    HW112965  12.326   4.215   4.020
70356SOL    HW212966  12.251   4.114   4.104
70357SOL     OW12967   1.346   1.681   2.110
70357SOL    HW112968   1.319   1.590   2.117
70357SOL    HW212969   1.400   1.696   2.189
70358SOL     OW12970   6.150   0.602   1.412
70358SOL    HW112971   6.163   0.667   1.343
70358SOL    HW212972   6.226   0.612   1.470
70359SOL     OW12973   1.826   7.243   5.147
70359SOL    HW112974   1.786   7.233   5.233
70359SOL    HW212975   1.885   7.318   5.156
70360SOL     OW12976   1.569   3.965  11.296
70360SOL    HW112977   1.646   3.981  11.350
70360SOL    HW212978   1.566   3.870  11.285
70361SOL     OW12979   8.349   0.585   1.880
70361SOL    HW112980   8.419   0.595   1.945
70361SOL    HW212981   8.296   0.512   1.912
70362SOL     OW12982   7.670   1.080   7.878
70362SOL    HW112983   7.745   1.028   7.905
70362SOL    HW212984   7.685   1.166   7.918
70363SOL     OW12985   6.327  10.905   0.528
70363SOL    HW112986   6.330  10.864   0.442
70363SOL    HW212987   6.239  10.941   0.535
70364SOL     OW12988   9.995   6.817  10.182
70364SOL    HW112989  10.013   6.910  10.175
70364SOL    HW212990  10.076   6.774  10.155
70365SOL     OW12991   8.701  14.223  14.270
70365SOL    HW112992   8.630  14.163  14.290
70365SOL    HW212993   8.671  14.308  14.302
70366SOL     OW12994   0.625   0.958   7.749
70366SOL    HW112995   0.602   0.989   7.837
70366SOL    HW212996   0.659   1.036   7.705
70367SOL     OW12997   8.159  13.469   5.241
70367SOL    HW112998   8.068  13.495   5.253
70367SOL    HW212999   8.200  13.482   5.326
70368SOL     OW13000   1.160   6.724  11.298
70368SOL    HW113001   1.103   6.688  11.366
70368SOL    HW213002   1.106   6.724  11.219
70369SOL     OW13003   5.801   0.045  14.399
70369SOL    HW113004   5.755  14.845  14.372
70369SOL    HW213005   5.792   0.104  14.324
70370SOL     OW13006   4.047  13.686  12.565
70370SOL    HW113007   4.098  13.736  12.629
70370SOL    HW213008   3.967  13.661  12.611
70371SOL     OW13009  13.270   8.256   1.498
70371SOL    HW113010  13.219   8.256   1.417
70371SOL    HW213011  13.213   8.297   1.563
70372SOL     OW13012  14.878   8.812   1.665
70372SOL    HW113013  14.854   8.855   1.583
70372SOL    HW213014  14.823   8.854   1.731
70373SOL     OW13015   4.371  12.672  13.899
70373SOL    HW113016   4.276  12.683  13.911
70373SOL    HW213017   4.386  12.694  13.807
70374SOL     OW13018   3.109   5.094   2.411
70374SOL    HW113019   3.038   5.155   2.390
70374SOL    HW213020   3.159   5.139   2.479
70375SOL     OW13021   2.289  13.591   7.965
70375SOL    HW113022   2.346  13.636   7.903
70375SOL    HW213023   2.278  13.503   7.929
70376SOL     OW13024   7.840  13.221   3.404
70376SOL    HW113025   7.769  13.163   3.378
70376SOL    HW213026   7.799  13.284   3.463
70377SOL     OW13027   8.248   4.690   1.907
70377SOL    HW113028   8.333   4.712   1.945
70377SOL    HW213029   8.219   4.614   1.957
70378SOL     OW13030  12.121   7.439  13.643
70378SOL    HW113031  12.056   7.509  13.636
70378SOL    HW213032  12.151   7.443  13.733
70379SOL     OW13033  12.958   5.724  11.995
70379SOL    HW113034  12.902   5.719  12.073
70379SOL    HW213035  12.989   5.634  11.983
70380SOL     OW13036   2.381  13.113  11.713
70380SOL    HW113037   2.430  13.031  11.719
70380SOL    HW213038   2.426  13.172  11.773
70381SOL     OW13039   7.150  12.340   3.851
70381SOL    HW113040   7.122  12.280   3.782
70381SOL    HW213041   7.241  12.316   3.868
70382SOL     OW13042   6.712   8.051   9.517
70382SOL    HW113043   6.805   8.031   9.517
70382SOL    HW213044   6.705   8.135   9.561
70383SOL     OW13045  13.864   0.072  13.029
70383SOL    HW113046  13.884  14.861  13.049
70383SOL    HW213047  13.778   0.069  12.987
70384SOL     OW13048  10.747   8.878   1.194
70384SOL    HW113049  10.652   8.883   1.183
70384SOL    HW213050  10.759   8.852   1.285
70385SOL     OW13051   8.004   9.129   9.607
70385SOL    HW113052   7.972   9.146   9.519
70385SOL    HW213053   7.990   9.212   9.654
70386SOL     OW13054   4.230  14.177  10.872
70386SOL    HW113055   4.258  14.250  10.817
70386SOL    HW213056   4.139  14.197  10.894
70387SOL     OW13057   1.520  11.570   9.438
70387SOL    HW113058   1.425  11.565   9.445
70387SOL    HW213059   1.536  11.652   9.389
70388SOL     OW13060  10.111   3.844  12.230
70388SOL    HW113061  10.038   3.784  12.218
70388SOL    HW213062  10.187   3.799  12.193
70389SOL     OW13063   9.315  11.549   6.137
70389SOL    HW113064   9.270  11.541   6.221
70389SOL    HW213065   9.347  11.461   6.118
70390SOL     OW13066  13.521   0.781   5.949
70390SOL    HW113067  13.553   0.856   5.999
70390SOL    HW213068  13.593   0.761   5.889
70391SOL     OW13069  10.264   6.933   8.499
70391SOL    HW113070  10.303   6.880   8.568
70391SOL    HW213071  10.220   6.870   8.442
70392SOL     OW13072   1.463   8.674  10.562
70392SOL    HW113073   1.393   8.668  10.496
70392SOL    HW213074   1.443   8.604  10.624
70393SOL     OW13075   6.536   3.247   7.036
70393SOL    HW113076   6.627   3.217   7.035
70393SOL    HW213077   6.510   3.242   7.128
70394SOL     OW13078   0.311   7.406   7.575
70394SOL    HW113079   0.381   7.343   7.593
70394SOL    HW213080   0.285   7.388   7.485
70395SOL     OW13081   6.560   9.150  13.486
70395SOL    HW113082   6.538   9.206  13.560
70395SOL    HW213083   6.476   9.116  13.456
70396SOL     OW13084   9.290   7.465   8.904
70396SOL    HW113085   9.325   7.542   8.949
70396SOL    HW213086   9.265   7.497   8.817
70397SOL     OW13087   1.340   0.020  13.383
70397SOL    HW113088   1.288  14.869  13.456
70397SOL    HW213089   1.322   0.114  13.378
70398SOL     OW13090   9.576  13.063   7.660
70398SOL    HW113091   9.497  13.017   7.633
70398SOL    HW213092   9.598  13.025   7.745
70399SOL     OW13093  12.919   2.408  13.312
70399SOL    HW113094  12.931   2.323  13.354
70399SOL    HW213095  13.008   2.438  13.292
70400SOL     OW13096   8.648   0.566   2.747
70400SOL    HW113097   8.646   0.660   2.763
70400SOL    HW213098   8.739   0.540   2.766
70401SOL     OW13099   7.558   7.306   2.010
70401SOL    HW113100   7.525   7.294   2.099
70401SOL    HW213101   7.630   7.368   2.020
70402SOL     OW13102   5.786   7.527   9.400
70402SOL    HW113103   5.770   7.432   9.395
70402SOL    HW213104   5.739   7.555   9.478
70403SOL     OW13105   8.530   9.591   6.587
70403SOL    HW113106   8.515   9.671   6.638
70403SOL    HW213107   8.611   9.555   6.623
70404SOL     OW13108  12.923   6.125  12.102
70404SOL    HW113109  12.977   6.156  12.176
70404SOL    HW213110  12.912   6.203  12.048
70405SOL     OW13111   8.111   5.687   7.283
70405SOL    HW113112   8.168   5.653   7.214
70405SOL    HW213113   8.053   5.748   7.237
70406SOL     OW13114  10.983   4.636   4.571
70406SOL    HW113115  11.018   4.715   4.530
70406SOL    HW213116  11.044   4.566   4.545
70407SOL     OW13117  12.454   5.034   4.453
70407SOL    HW113118  12.429   5.114   4.408
70407SOL    HW213119  12.493   4.979   4.384
70408SOL     OW13120   6.079  12.836   6.711
70408SOL    HW113121   6.088  12.850   6.617
70408SOL    HW213122   6.142  12.896   6.751
70409SOL     OW13123   2.328  10.823   7.448
70409SOL    HW113124   2.234  10.814   7.464
70409SOL    HW213125   2.338  10.911   7.409
70410SOL     OW13126   2.237  10.579   8.565
70410SOL    HW113127   2.259  10.490   8.591
70410SOL    HW213128   2.206  10.621   8.645
70411SOL     OW13129   9.804   6.882   3.732
70411SOL    HW113130   9.716   6.893   3.696
70411SOL    HW213131   9.860   6.868   3.655
70412SOL     OW13132   5.833   5.543   0.673
70412SOL    HW113133   5.859   5.612   0.734
70412SOL    HW213134   5.872   5.463   0.708
70413SOL     OW13135   5.953   3.295   0.276
70413SOL    HW113136   6.007   3.343   0.339
70413SOL    HW213137   5.902   3.235   0.330
70414SOL     OW13138   9.455   2.160   5.468
70414SOL    HW113139   9.527   2.104   5.439
70414SOL    HW213140   9.376   2.110   5.449
70415SOL     OW13141   2.907   4.716   8.192
70415SOL    HW113142   2.994   4.720   8.152
70415SOL    HW213143   2.866   4.640   8.151
70416SOL     OW13144   8.110   5.867  14.354
70416SOL    HW113145   8.114   5.818  14.272
70416SOL    HW213146   8.188   5.923  14.352
70417SOL     OW13147   1.522   3.849  13.670
70417SOL    HW113148   1.586   3.839  13.741
70417SOL    HW213149   1.470   3.769  13.673
70418SOL     OW13150  10.584   1.193  14.026
70418SOL    HW113151  10.503   1.154  13.993
70418SOL    HW213152  10.643   1.194  13.950
70419SOL     OW13153   7.439   3.470   2.891
70419SOL    HW113154   7.429   3.379   2.921
70419SOL    HW213155   7.350   3.500   2.875
70420SOL     OW13156  11.818   2.084   8.047
70420SOL    HW113157  11.846   2.095   8.139
70420SOL    HW213158  11.880   2.137   7.997
70421SOL     OW13159   9.821   8.153   7.906
70421SOL    HW113160   9.798   8.199   7.825
70421SOL    HW213161   9.900   8.197   7.938
70422SOL     OW13162   9.849  10.641   6.917
70422SOL    HW113163   9.903  10.592   6.856
70422SOL    HW213164   9.799  10.702   6.863
70423SOL     OW13165   9.532  13.266   5.063
70423SOL    HW113166   9.502  13.268   5.154
70423SOL    HW213167   9.476  13.202   5.020
70424SOL     OW13168  14.636  13.421   0.608
70424SOL    HW113169  14.643  13.442   0.514
70424SOL    HW213170  14.642  13.506   0.651
70425SOL     OW13171   8.758   6.148  10.465
70425SOL    HW113172   8.719   6.088  10.528
70425SOL    HW213173   8.832   6.098  10.429
70426SOL     OW13174  14.420   2.873   9.701
70426SOL    HW113175  14.449   2.844   9.615
70426SOL    HW213176  14.427   2.969   9.698
70427SOL     OW13177   4.604   7.725   5.570
70427SOL    HW113178   4.675   7.775   5.611
70427SOL    HW213179   4.570   7.669   5.640
70428SOL     OW13180   5.374   8.791   3.266
70428SOL    HW113181   5.351   8.701   3.289
70428SOL    HW213182   5.469   8.793   3.266
70429SOL     OW13183  12.603   2.156   5.488
70429SOL    HW113184  12.682   2.149   5.434
70429SOL    HW213185  12.535   2.182   5.426
70430SOL     OW13186   7.783  13.871  11.337
70430SOL    HW113187   7.808  13.821  11.259
70430SOL    HW213188   7.841  13.947  11.337
70431SOL     OW13189   1.746   1.405   1.963
70431SOL    HW113190   1.770   1.390   2.055
70431SOL    HW213191   1.712   1.321   1.934
70432SOL     OW13192  12.258   6.778   3.431
70432SOL    HW113193  12.245   6.700   3.485
70432SOL    HW213194  12.178   6.829   3.444
70433SOL     OW13195  12.144  11.952   4.349
70433SOL    HW113196  12.128  12.045   4.335
70433SOL    HW213197  12.221  11.932   4.295
70434SOL     OW13198  11.080   0.023   2.648
70434SOL    HW113199  11.132   0.096   2.615
70434SOL    HW213200  11.123  14.877   2.729
70435SOL     OW13201  12.893   8.673   5.032
70435SOL    HW113202  12.916   8.692   5.123
70435SOL    HW213203  12.852   8.586   5.035
70436SOL     OW13204   0.906   1.021   8.707
70436SOL    HW113205   0.817   0.986   8.706
70436SOL    HW213206   0.924   1.039   8.799
70437SOL     OW13207  10.523   7.671  13.170
70437SOL    HW113208  10.517   7.576  13.167
70437SOL    HW213209  10.591   7.689  13.236
70438SOL     OW13210   3.695   2.364   4.590
70438SOL    HW113211   3.619   2.378   4.647
70438SOL    HW213212   3.719   2.452   4.562
70439SOL     OW13213   8.082  10.595   3.203
70439SOL    HW113214   8.107  10.503   3.190
70439SOL    HW213215   8.127  10.643   3.134
70440SOL     OW13216  13.378   6.410   5.029
70440SOL    HW113217  13.447   6.350   5.000
70440SOL    HW213218  13.319   6.417   4.954
70441SOL     OW13219   7.527   6.146   4.609
70441SOL    HW113220   7.600   6.084   4.613
70441SOL    HW213221   7.461   6.109   4.666
70442SOL     OW13222  11.969  13.535  13.071
70442SOL    HW113223  12.014  13.481  13.136
70442SOL    HW213224  11.922  13.601  13.123
70443SOL     OW13225   4.370   9.600   1.757
70443SOL    HW113226   4.381   9.536   1.687
70443SOL    HW213227   4.387   9.551   1.838
70444SOL     OW13228   1.799   7.035   4.375
70444SOL    HW113229   1.821   7.124   4.403
70444SOL    HW213230   1.734   7.005   4.439
70445SOL     OW13231   7.560   9.104  12.247
70445SOL    HW113232   7.569   9.078  12.339
70445SOL    HW213233   7.472   9.140  12.241
70446SOL     OW13234   0.953   7.416   3.621
70446SOL    HW113235   0.908   7.483   3.569
70446SOL    HW213236   0.985   7.464   3.698
70447SOL     OW13237   7.238  14.024   4.772
70447SOL    HW113238   7.297  14.065   4.709
70447SOL    HW213239   7.151  14.052   4.744
70448SOL     OW13240   8.766   1.457  10.541
70448SOL    HW113241   8.745   1.441  10.449
70448SOL    HW213242   8.731   1.544  10.559
70449SOL     OW13243   8.330   1.048   3.309
70449SOL    HW113244   8.385   1.099   3.249
70449SOL    HW213245   8.243   1.086   3.300
70450SOL     OW13246  11.813   9.731  12.237
70450SOL    HW113247  11.750   9.662  12.259
70450SOL    HW213248  11.836   9.770  12.322
70451SOL     OW13249   0.321   6.010   3.307
70451SOL    HW113250   0.364   5.981   3.388
70451SOL    HW213251   0.330   6.105   3.308
70452SOL     OW13252   9.933   1.100   2.001
70452SOL    HW113253   9.917   1.143   1.917
70452SOL    HW213254   9.936   1.172   2.065
70453SOL     OW13255   3.532   7.906   1.715
70453SOL    HW113256   3.474   7.981   1.730
70453SOL    HW213257   3.620   7.940   1.730
70454SOL     OW13258   3.547  14.422   1.582
70454SOL    HW113259   3.549  14.332   1.550
70454SOL    HW213260   3.454  14.445   1.581
70455SOL     OW13261   0.986   8.735  13.962
70455SOL    HW113262   0.902   8.691  13.975
70455SOL    HW213263   1.045   8.690  14.023
70456SOL     OW13264   2.796   7.643  12.247
70456SOL    HW113265   2.760   7.583  12.181
70456SOL    HW213266   2.732   7.641  12.318
70457SOL     OW13267   2.101   3.541  13.736
70457SOL    HW113268   2.153   3.575  13.809
70457SOL    HW213269   2.046   3.615  13.710
70458SOL     OW13270  13.912   5.581  10.145
70458SOL    HW113271  13.875   5.587  10.233
70458SOL    HW213272  13.974   5.653  10.140
70459SOL     OW13273   3.147   3.910   2.651
70459SOL    HW113274   3.185   3.828   2.619
70459SOL    HW213275   3.221   3.958   2.688
70460SOL     OW13276   1.740   2.295  14.569
70460SOL    HW113277   1.785   2.275  14.487
70460SOL    HW213278   1.802   2.350  14.618
70461SOL     OW13279  14.538  11.437   8.808
70461SOL    HW113280  14.577  11.500   8.869
70461SOL    HW213281  14.480  11.384   8.862
70462SOL     OW13282   5.535  11.530   1.772
70462SOL    HW113283   5.545  11.580   1.690
70462SOL    HW213284   5.599  11.460   1.765
70463SOL     OW13285  14.763  14.068   0.197
70463SOL    HW113286  14.685  14.082   0.144
70463SOL    HW213287  14.763  14.141   0.259
70464SOL     OW13288  10.755   2.171   8.600
70464SOL    HW113289  10.828   2.229   8.620
70464SOL    HW213290  10.759   2.159   8.505
70465SOL     OW13291  13.492   5.887   4.627
70465SOL    HW113292  13.459   5.977   4.621
70465SOL    HW213293  13.545   5.886   4.707
70466SOL     OW13294   1.521   5.477   0.382
70466SOL    HW113295   1.584   5.532   0.429
70466SOL    HW213296   1.575   5.423   0.324
70467SOL     OW13297   8.343  10.146   0.246
70467SOL    HW113298   8.434  10.115   0.251
70467SOL    HW213299   8.290  10.070   0.271
70468SOL     OW13300   3.456   6.966   8.953
70468SOL    HW113301   3.455   7.057   8.983
70468SOL    HW213302   3.403   6.919   9.018
70469SOL     OW13303   7.187   7.383  10.758
70469SOL    HW113304   7.133   7.307  10.779
70469SOL    HW213305   7.169   7.445  10.830
70470SOL     OW13306   9.027   4.737   4.318
70470SOL    HW113307   9.048   4.764   4.229
70470SOL    HW213308   9.110   4.744   4.365
70471SOL     OW13309   8.802  13.385  14.387
70471SOL    HW113310   8.886  13.357  14.351
70471SOL    HW213311   8.780  13.318  14.452
70472SOL     OW13312   8.424   8.477   6.941
70472SOL    HW113313   8.430   8.573   6.944
70472SOL    HW213314   8.332   8.460   6.919
70473SOL     OW13315   6.526   5.112  10.830
70473SOL    HW113316   6.621   5.115  10.835
70473SOL    HW213317   6.499   5.203  10.813
70474SOL     OW13318   5.798   4.279   3.657
70474SOL    HW113319   5.743   4.201   3.651
70474SOL    HW213320   5.815   4.290   3.751
70475SOL     OW13321  13.162   0.999  11.408
70475SOL    HW113322  13.120   0.947  11.476
70475SOL    HW213323  13.232   1.047  11.453
70476SOL     OW13324   5.081   9.320  14.509
70476SOL    HW113325   5.008   9.257  14.508
70476SOL    HW213326   5.088   9.345  14.601
70477SOL     OW13327   0.389  11.011   8.621
70477SOL    HW113328   0.300  10.977   8.612
70477SOL    HW213329   0.438  10.968   8.551
70478SOL     OW13330  10.972   0.493   3.870
70478SOL    HW113331  11.058   0.513   3.832
70478SOL    HW213332  10.910   0.521   3.803
70479SOL     OW13333  13.580   2.022   5.747
70479SOL    HW113334  13.584   1.954   5.680
70479SOL    HW213335  13.505   2.077   5.722
70480SOL     OW13336  13.816  12.997  13.726
70480SOL    HW113337  13.722  13.005  13.710
70480SOL    HW213338  13.837  12.908  13.697
70481SOL     OW13339   8.304   4.975   9.486
70481SOL    HW113340   8.291   5.066   9.511
70481SOL    HW213341   8.399   4.963   9.487
70482SOL     OW13342  13.100  11.490   5.881
70482SOL    HW113343  13.073  11.483   5.973
70482SOL    HW213344  13.028  11.450   5.832
70483SOL     OW13345  13.261  10.996   2.557
70483SOL    HW113346  13.189  10.956   2.509
70483SOL    HW213347  13.340  10.957   2.520
70484SOL     OW13348   9.268  13.783   7.971
70484SOL    HW113349   9.305  13.849   8.030
70484SOL    HW213350   9.182  13.763   8.009
70485SOL     OW13351  10.779   6.532  13.569
70485SOL    HW113352  10.694   6.550  13.608
70485SOL    HW213353  10.809   6.452  13.611
70486SOL     OW13354  13.545   8.038  11.783
70486SOL    HW113355  13.511   7.952  11.806
70486SOL    HW213356  13.585   8.025  11.696
70487SOL     OW13357  13.375  11.602   8.073
70487SOL    HW113358  13.443  11.668   8.064
70487SOL    HW213359  13.333  11.598   7.987
70488SOL     OW13360   4.401   4.603  14.516
70488SOL    HW113361   4.393   4.692  14.550
70488SOL    HW213362   4.380   4.610  14.423
70489SOL     OW13363  11.766   5.756   8.652
70489SOL    HW113364  11.718   5.735   8.732
70489SOL    HW213365  11.709   5.726   8.581
70490SOL     OW13366  11.859   8.968   9.073
70490SOL    HW113367  11.849   9.063   9.076
70490SOL    HW213368  11.913   8.947   9.150
70491SOL     OW13369   0.492   3.824   3.085
70491SOL    HW113370   0.517   3.838   2.994
70491SOL    HW213371   0.560   3.766   3.120
70492SOL     OW13372  12.251  12.571   1.924
70492SOL    HW113373  12.257  12.492   1.870
70492SOL    HW213374  12.326  12.624   1.897
70493SOL     OW13375   5.385   3.986   3.675
70493SOL    HW113376   5.364   3.896   3.651
70493SOL    HW213377   5.395   3.983   3.771
70494SOL     OW13378   5.611   6.939   3.875
70494SOL    HW113379   5.525   6.972   3.901
70494SOL    HW213380   5.662   6.937   3.956
70495SOL     OW13381   7.284  12.416  12.865
70495SOL    HW113382   7.271  12.326  12.833
70495SOL    HW213383   7.373  12.415  12.902
70496SOL     OW13384  14.055   2.412  13.236
70496SOL    HW113385  14.007   2.387  13.157
70496SOL    HW213386  13.990   2.409  13.306
70497SOL     OW13387  13.288  13.784   5.470
70497SOL    HW113388  13.370  13.771   5.422
70497SOL    HW213389  13.316  13.817   5.555
70498SOL     OW13390  13.733   9.745   8.283
70498SOL    HW113391  13.694   9.824   8.321
70498SOL    HW213392  13.805   9.723   8.343
70499SOL     OW13393  13.952   0.281   1.848
70499SOL    HW113394  13.937   0.375   1.844
70499SOL    HW213395  13.989   0.258   1.763
70500SOL     OW13396   9.321   6.509   2.492
70500SOL    HW113397   9.403   6.558   2.481
70500SOL    HW213398   9.288   6.538   2.578
70501SOL     OW13399   0.149   4.646  13.102
70501SOL    HW113400   0.080   4.624  13.040
70501SOL    HW213401   0.103   4.687  13.176
70502SOL     OW13402  10.631   2.951  10.697
70502SOL    HW113403  10.565   2.883  10.685
70502SOL    HW213404  10.642   2.989  10.610
70503SOL     OW13405   5.556   1.717  13.087
70503SOL    HW113406   5.505   1.637  13.077
70503SOL    HW213407   5.492   1.788  13.072
70504SOL     OW13408  11.680   9.946  12.577
70504SOL    HW113409  11.715  10.025  12.535
70504SOL    HW213410  11.601   9.925  12.526
70505SOL     OW13411  10.217   4.658   1.966
70505SOL    HW113412  10.237   4.645   1.873
70505SOL    HW213413  10.294   4.701   2.002
70506SOL     OW13414   0.878   4.614  10.330
70506SOL    HW113415   0.908   4.600  10.240
70506SOL    HW213416   0.884   4.528  10.371
70507SOL     OW13417   5.438   5.346  12.338
70507SOL    HW113418   5.352   5.386  12.355
70507SOL    HW213419   5.491   5.370  12.414
70508SOL     OW13420   1.983  13.486   0.884
70508SOL    HW113421   2.032  13.416   0.928
70508SOL    HW213422   1.961  13.449   0.798
70509SOL     OW13423  12.573   2.277   3.283
70509SOL    HW113424  12.626   2.346   3.325
70509SOL    HW213425  12.497   2.324   3.249
70510SOL     OW13426  13.683   0.347  10.088
70510SOL    HW113427  13.716   0.418  10.033
70510SOL    HW213428  13.675   0.386  10.175
70511SOL     OW13429   2.291   9.628   4.003
70511SOL    HW113430   2.321   9.539   3.987
70511SOL    HW213431   2.369   9.682   3.990
70512SOL     OW13432  10.297   6.863   2.472
70512SOL    HW113433  10.296   6.813   2.390
70512SOL    HW213434  10.211   6.906   2.475
70513SOL     OW13435   9.429   8.919   2.108
70513SOL    HW113436   9.516   8.901   2.074
70513SOL    HW213437   9.380   8.838   2.094
70514SOL     OW13438   8.983   4.354   9.804
70514SOL    HW113439   9.017   4.265   9.797
70514SOL    HW213440   9.007   4.383   9.892
70515SOL     OW13441   0.541   5.792   9.259
70515SOL    HW113442   0.447   5.801   9.272
70515SOL    HW213443   0.567   5.723   9.321
70516SOL     OW13444  10.276   2.784   8.540
70516SOL    HW113445  10.246   2.721   8.475
70516SOL    HW213446  10.282   2.867   8.493
70517SOL     OW13447  10.902   5.712   6.735
70517SOL    HW113448  10.852   5.774   6.681
70517SOL    HW213449  10.841   5.641   6.752
70518SOL     OW13450   3.020   7.336   1.208
70518SOL    HW113451   3.026   7.381   1.292
70518SOL    HW213452   3.111   7.310   1.188
70519SOL     OW13453   0.085   2.675   4.115
70519SOL    HW113454   0.071   2.714   4.029
70519SOL    HW213455   0.157   2.613   4.102
70520SOL     OW13456   9.989   6.089   9.706
70520SOL    HW113457   9.984   6.014   9.647
70520SOL    HW213458  10.026   6.054   9.786
70521SOL     OW13459   2.404  14.083   9.354
70521SOL    HW113460   2.404  14.177   9.371
70521SOL    HW213461   2.493  14.062   9.328
70522SOL     OW13462   0.660  10.505  10.741
70522SOL    HW113463   0.753  10.486  10.743
70522SOL    HW213464   0.623  10.455  10.813
70523SOL     OW13465   0.183   6.490   1.079
70523SOL    HW113466   0.255   6.537   1.121
70523SOL    HW213467   0.106   6.514   1.131
70524SOL     OW13468  14.084   2.128   7.538
70524SOL    HW113469  14.019   2.141   7.469
70524SOL    HW213470  14.111   2.037   7.529
70525SOL     OW13471   1.944   0.601   7.999
70525SOL    HW113472   1.960   0.607   8.093
70525SOL    HW213473   1.984   0.517   7.973
70526SOL     OW13474   9.102   1.909   0.219
70526SOL    HW113475   9.142   1.823   0.231
70526SOL    HW213476   9.175   1.967   0.198
70527SOL     OW13477  12.953   1.298   8.905
70527SOL    HW113478  13.041   1.285   8.869
70527SOL    HW213479  12.955   1.252   8.989
70528SOL     OW13480   2.603   1.679   1.431
70528SOL    HW113481   2.692   1.708   1.409
70528SOL    HW213482   2.584   1.722   1.515
70529SOL     OW13483   2.370   3.076  14.069
70529SOL    HW113484   2.275   3.088  14.070
70529SOL    HW213485   2.402   3.149  14.015
70530SOL     OW13486  11.839   3.566   2.153
70530SOL    HW113487  11.916   3.510   2.169
70530SOL    HW213488  11.766   3.504   2.148
70531SOL     OW13489  11.392   0.430   9.219
70531SOL    HW113490  11.431   0.517   9.223
70531SOL    HW213491  11.356   0.416   9.307
70532SOL     OW13492   0.956  10.850   8.163
70532SOL    HW113493   0.991  10.790   8.097
70532SOL    HW213494   0.991  10.817   8.246
70533SOL     OW13495   7.065  12.774   0.420
70533SOL    HW113496   7.042  12.840   0.486
70533SOL    HW213497   6.992  12.774   0.359
70534SOL     OW13498  11.948   1.792   3.940
70534SOL    HW113499  11.943   1.853   3.867
70534SOL    HW213500  11.940   1.705   3.900
70535SOL     OW13501   9.134   5.803  10.582
70535SOL    HW113502   9.161   5.800  10.490
70535SOL    HW213503   9.134   5.896  10.604
70536SOL     OW13504  14.331   2.228  14.559
70536SOL    HW113505  14.296   2.245  14.471
70536SOL    HW213506  14.409   2.284  14.565
70537SOL     OW13507  11.841   8.562   2.104
70537SOL    HW113508  11.750   8.532   2.096
70537SOL    HW213509  11.888   8.514   2.037
70538SOL     OW13510   8.551  14.345   4.075
70538SOL    HW113511   8.539  14.279   4.007
70538SOL    HW213512   8.617  14.405   4.039
70539SOL     OW13513   1.545   0.729   4.876
70539SOL    HW113514   1.591   0.648   4.854
70539SOL    HW213515   1.600   0.799   4.840
70540SOL     OW13516   4.163  13.479  10.445
70540SOL    HW113517   4.252  13.499  10.416
70540SOL    HW213518   4.171  13.461  10.538
70541SOL     OW13519   7.469   8.879   2.020
70541SOL    HW113520   7.445   8.964   1.984
70541SOL    HW213521   7.458   8.890   2.115
70542SOL     OW13522  10.186  13.971   6.136
70542SOL    HW113523  10.091  13.959   6.129
70542SOL    HW213524  10.213  13.905   6.200
70543SOL     OW13525  14.174   5.902   8.156
70543SOL    HW113526  14.187   5.859   8.072
70543SOL    HW213527  14.149   5.832   8.216
70544SOL     OW13528   4.216   4.300   9.311
70544SOL    HW113529   4.179   4.375   9.357
70544SOL    HW213530   4.227   4.233   9.379
70545SOL     OW13531   2.862  10.840   8.041
70545SOL    HW113532   2.910  10.758   8.055
70545SOL    HW213533   2.798  10.819   7.973
70546SOL     OW13534   1.696  13.793   4.862
70546SOL    HW113535   1.671  13.781   4.954
70546SOL    HW213536   1.616  13.777   4.813
70547SOL     OW13537   9.690   1.645  12.738
70547SOL    HW113538   9.785   1.656  12.747
70547SOL    HW213539   9.654   1.687  12.816
70548SOL     OW13540   4.706  11.891  13.499
70548SOL    HW113541   4.731  11.868  13.409
70548SOL    HW213542   4.611  11.893  13.498
70549SOL     OW13543  12.051  10.434   6.342
70549SOL    HW113544  12.049  10.435   6.246
70549SOL    HW213545  12.034  10.525   6.367
70550SOL     OW13546   4.308   2.347  10.530
70550SOL    HW113547   4.259   2.355  10.449
70550SOL    HW213548   4.244   2.315  10.594
70551SOL     OW13549   0.291   5.473   2.911
70551SOL    HW113550   0.351   5.421   2.859
70551SOL    HW213551   0.226   5.505   2.849
70552SOL     OW13552   2.086   3.909   1.897
70552SOL    HW113553   2.005   3.898   1.946
70552SOL    HW213554   2.062   3.892   1.806
70553SOL     OW13555   7.062   1.619   7.903
70553SOL    HW113556   7.109   1.619   7.987
70553SOL    HW213557   7.083   1.705   7.865
70554SOL     OW13558   7.861   1.722  12.419
70554SOL    HW113559   7.772   1.758  12.419
70554SOL    HW213560   7.859   1.654  12.351
70555SOL     OW13561   7.727   8.125   9.671
70555SOL    HW113562   7.644   8.155   9.708
70555SOL    HW213563   7.750   8.047   9.721
70556SOL     OW13564   3.558   8.345   9.949
70556SOL    HW113565   3.567   8.250   9.957
70556SOL    HW213566   3.527   8.374  10.035
70557SOL     OW13567   6.797  13.742   9.240
70557SOL    HW113568   6.734  13.672   9.255
70557SOL    HW213569   6.791  13.761   9.146
70558SOL     OW13570  10.408   4.338  13.934
70558SOL    HW113571  10.417   4.382  14.018
70558SOL    HW213572  10.484   4.280  13.928
70559SOL     OW13573   6.530   5.453   9.515
70559SOL    HW113574   6.438   5.451   9.541
70559SOL    HW213575   6.551   5.361   9.494
70560SOL     OW13576   8.172  13.707   1.084
70560SOL    HW113577   8.200  13.792   1.119
70560SOL    HW213578   8.117  13.670   1.153
70561SOL     OW13579  13.171   8.084   0.378
70561SOL    HW113580  13.174   8.032   0.459
70561SOL    HW213581  13.262   8.107   0.362
70562SOL     OW13582   6.261   6.330   2.218
70562SOL    HW113583   6.353   6.304   2.220
70562SOL    HW213584   6.255   6.390   2.143
70563SOL     OW13585  12.668   4.058  11.538
70563SOL    HW113586  12.628   4.048  11.624
70563SOL    HW213587  12.761   4.038  11.552
70564SOL     OW13588   7.747   6.019  12.494
70564SOL    HW113589   7.684   6.072  12.445
70564SOL    HW213590   7.740   5.932  12.454
70565SOL     OW13591   2.686  12.088   4.378
70565SOL    HW113592   2.631  12.044   4.441
70565SOL    HW213593   2.684  12.032   4.300
70566SOL     OW13594   6.642  12.518  12.789
70566SOL    HW113595   6.610  12.605  12.765
70566SOL    HW213596   6.575  12.458  12.757
70567SOL     OW13597   6.926   6.081  11.915
70567SOL    HW113598   6.916   6.081  11.820
70567SOL    HW213599   6.887   5.998  11.943
70568SOL     OW13600  10.348  11.761   1.384
70568SOL    HW113601  10.302  11.769   1.468
70568SOL    HW213602  10.300  11.693   1.337
70569SOL     OW13603  13.314  11.507   1.739
70569SOL    HW113604  13.409  11.516   1.730
70569SOL    HW213605  13.302  11.419   1.775
70570SOL     OW13606   6.131  10.148  10.989
70570SOL    HW113607   6.152  10.132  11.081
70570SOL    HW213608   6.086  10.069  10.960
70571SOL     OW13609   0.610   1.781   6.116
70571SOL    HW113610   0.683   1.723   6.133
70571SOL    HW213611   0.630   1.822   6.031
70572SOL     OW13612   1.967   3.104   6.378
70572SOL    HW113613   2.047   3.139   6.339
70572SOL    HW213614   1.997   3.030   6.430
70573SOL     OW13615   9.402   2.414   7.521
70573SOL    HW113616   9.389   2.441   7.611
70573SOL    HW213617   9.363   2.327   7.515
70574SOL     OW13618   8.778   5.437  12.074
70574SOL    HW113619   8.686   5.426  12.047
70574SOL    HW213620   8.809   5.348  12.088
70575SOL     OW13621   9.391   8.416   8.877
70575SOL    HW113622   9.476   8.444   8.843
70575SOL    HW213623   9.384   8.324   8.851
70576SOL     OW13624   9.228  12.086   2.943
70576SOL    HW113625   9.166  12.153   2.914
70576SOL    HW213626   9.243  12.032   2.866
70577SOL     OW13627   0.964   3.706   6.390
70577SOL    HW113628   0.967   3.633   6.452
70577SOL    HW213629   0.981   3.666   6.305
70578SOL     OW13630   2.558  11.163  11.614
70578SOL    HW113631   2.498  11.127  11.679
70578SOL    HW213632   2.645  11.154  11.654
70579SOL     OW13633   7.558  14.852   5.878
70579SOL    HW113634   7.504  14.798   5.936
70579SOL    HW213635   7.549  14.812   5.792
70580SOL     OW13636   6.289  13.985  12.170
70580SOL    HW113637   6.326  13.954  12.252
70580SOL    HW213638   6.195  13.993  12.187
70581SOL     OW13639   1.017   0.950   6.248
70581SOL    HW113640   1.039   0.902   6.328
70581SOL    HW213641   1.101   0.974   6.210
70582SOL     OW13642  13.797   6.785  10.498
70582SOL    HW113643  13.784   6.843  10.423
70582SOL    HW213644  13.879   6.739  10.480
70583SOL     OW13645  12.991   4.679   9.650
70583SOL    HW113646  13.029   4.619   9.714
70583SOL    HW213647  12.943   4.622   9.590
70584SOL     OW13648   7.229  12.174  10.452
70584SOL    HW113649   7.142  12.135  10.456
70584SOL    HW213650   7.251  12.195  10.542
70585SOL     OW13651   0.388   9.338   9.132
70585SOL    HW113652   0.354   9.365   9.217
70585SOL    HW213653   0.459   9.399   9.113
70586SOL     OW13654  12.141   7.717   6.103
70586SOL    HW113655  12.229   7.688   6.128
70586SOL    HW213656  12.152   7.752   6.015
70587SOL     OW13657  14.612   5.209   2.024
70587SOL    HW113658  14.599   5.118   2.049
70587SOL    HW213659  14.542   5.227   1.961
70588SOL     OW13660  12.723  11.941   6.020
70588SOL    HW113661  12.805  11.893   6.010
70588SOL    HW213662  12.708  11.945   6.114
70589SOL     OW13663  13.495   5.441   1.330
70589SOL    HW113664  13.546   5.415   1.253
70589SOL    HW213665  13.483   5.360   1.379
70590SOL     OW13666   2.484  13.756  11.364
70590SOL    HW113667   2.517  13.735  11.277
70590SOL    HW213668   2.389  13.748  11.356
70591SOL     OW13669   7.707   4.423  11.533
70591SOL    HW113670   7.729   4.471  11.454
70591SOL    HW213671   7.637   4.363  11.506
70592SOL     OW13672   7.393  14.136  13.296
70592SOL    HW113673   7.441  14.089  13.228
70592SOL    HW213674   7.401  14.229  13.271
70593SOL     OW13675   5.568   1.601  12.316
70593SOL    HW113676   5.618   1.676  12.283
70593SOL    HW213677   5.628   1.558  12.378
70594SOL     OW13678   0.335   6.244  11.993
70594SOL    HW113679   0.329   6.209  11.904
70594SOL    HW213680   0.258   6.301  12.002
70595SOL     OW13681   3.818   7.091  13.291
70595SOL    HW113682   3.729   7.107  13.324
70595SOL    HW213683   3.837   7.001  13.317
70596SOL     OW13684  11.458   8.124   4.209
70596SOL    HW113685  11.453   8.199   4.268
70596SOL    HW213686  11.367   8.097   4.196
70597SOL     OW13687  13.986   0.948   8.687
70597SOL    HW113688  14.061   0.958   8.746
70597SOL    HW213689  13.992   0.857   8.657
70598SOL     OW13690   8.394   8.643   1.314
70598SOL    HW113691   8.459   8.585   1.352
70598SOL    HW213692   8.381   8.711   1.379
70599SOL     OW13693  10.875   4.172  10.966
70599SOL    HW113694  10.955   4.143  11.010
70599SOL    HW213695  10.902   4.186  10.875
70600SOL     OW13696   5.659   8.094   9.058
70600SOL    HW113697   5.643   8.057   8.971
70600SOL    HW213698   5.574   8.093   9.101
70601SOL     OW13699   7.178   5.826   3.827
70601SOL    HW113700   7.102   5.813   3.884
70601SOL    HW213701   7.238   5.879   3.878
70602SOL     OW13702  12.445  12.847  12.412
70602SOL    HW113703  12.530  12.855  12.369
70602SOL    HW213704  12.440  12.923  12.470
70603SOL     OW13705  10.826  11.022   6.535
70603SOL    HW113706  10.900  11.010   6.594
70603SOL    HW213707  10.776  10.941   6.542
70604SOL     OW13708   1.589  10.825  12.743
70604SOL    HW113709   1.520  10.819  12.810
70604SOL    HW213710   1.542  10.814  12.660
70605SOL     OW13711   6.561  14.155   4.085
70605SOL    HW113712   6.501  14.166   4.158
70605SOL    HW213713   6.580  14.062   4.082
70606SOL     OW13714   7.422  12.062   3.617
70606SOL    HW113715   7.507  12.035   3.581
70606SOL    HW213716   7.444  12.116   3.692
70607SOL     OW13717   6.015   1.986  12.557
70607SOL    HW113718   5.920   1.987  12.564
70607SOL    HW213719   6.046   2.037  12.632
70608SOL     OW13720  12.790  12.177   9.352
70608SOL    HW113721  12.773  12.237   9.425
70608SOL    HW213722  12.717  12.116   9.354
70609SOL     OW13723   7.118   6.439   7.531
70609SOL    HW113724   7.041   6.400   7.490
70609SOL    HW213725   7.185   6.370   7.529
70610SOL     OW13726   8.043   2.021  14.232
70610SOL    HW113727   8.039   2.064  14.147
70610SOL    HW213728   8.006   1.934  14.217
70611SOL     OW13729   4.779   3.598   8.370
70611SOL    HW113730   4.759   3.676   8.318
70611SOL    HW213731   4.872   3.605   8.390
70612SOL     OW13732   7.001   4.323   5.636
70612SOL    HW113733   6.967   4.395   5.584
70612SOL    HW213734   6.995   4.354   5.727
70613SOL     OW13735   4.991  13.353  13.339
70613SOL    HW113736   4.957  13.338  13.428
70613SOL    HW213737   5.084  13.332  13.345
70614SOL     OW13738   0.280  10.554   9.809
70614SOL    HW113739   0.247  10.631   9.764
70614SOL    HW213740   0.366  10.581   9.843
70615SOL     OW13741   7.678   4.684   4.762
70615SOL    HW113742   7.595   4.724   4.736
70615SOL    HW213743   7.699   4.724   4.847
70616SOL     OW13744   9.871  11.337   8.322
70616SOL    HW113745   9.954  11.349   8.276
70616SOL    HW213746   9.845  11.425   8.349
70617SOL     OW13747   2.263   9.904   3.398
70617SOL    HW113748   2.291   9.812   3.396
70617SOL    HW213749   2.330   9.950   3.349
70618SOL     OW13750  14.607   1.597  14.384
70618SOL    HW113751  14.592   1.566  14.295
70618SOL    HW213752  14.694   1.637  14.381
70619SOL     OW13753  10.402  13.227   8.169
70619SOL    HW113754  10.462  13.153   8.174
70619SOL    HW213755  10.358  13.227   8.254
70620SOL     OW13756   4.161   9.073  11.298
70620SOL    HW113757   4.152   9.142  11.232
70620SOL    HW213758   4.074   9.064  11.336
70621SOL     OW13759   2.851  12.010   9.951
70621SOL    HW113760   2.797  11.973   9.881
70621SOL    HW213761   2.940  11.984   9.930
70622SOL     OW13762  10.813   1.120   8.604
70622SOL    HW113763  10.893   1.070   8.586
70622SOL    HW213764  10.764   1.066   8.665
70623SOL     OW13765   7.566   1.341   1.872
70623SOL    HW113766   7.648   1.369   1.830
70623SOL    HW213767   7.542   1.413   1.930
70624SOL     OW13768  11.945   4.873  10.884
70624SOL    HW113769  11.984   4.939  10.826
70624SOL    HW213770  11.917   4.803  10.826
70625SOL     OW13771   3.254   9.578   0.270
70625SOL    HW113772   3.321   9.519   0.236
70625SOL    HW213773   3.301   9.642   0.322
70626SOL     OW13774   2.003   9.450   1.128
70626SOL    HW113775   1.962   9.482   1.209
70626SOL    HW213776   1.933   9.451   1.064
70627SOL     OW13777   8.605  13.213   2.741
70627SOL    HW113778   8.525  13.167   2.768
70627SOL    HW213779   8.662  13.144   2.706
70628SOL     OW13780  13.788   4.159   2.379
70628SOL    HW113781  13.745   4.106   2.312
70628SOL    HW213782  13.873   4.181   2.341
70629SOL     OW13783   1.799  14.456   9.891
70629SOL    HW113784   1.718  14.423   9.931
70629SOL    HW213785   1.849  14.492   9.964
70630SOL     OW13786  10.045   7.356   6.461
70630SOL    HW113787  10.034   7.297   6.386
70630SOL    HW213788  10.060   7.298   6.535
70631SOL     OW13789  10.191  12.487  14.063
70631SOL    HW113790  10.100  12.484  14.031
70631SOL    HW213791  10.220  12.576  14.044
70632SOL     OW13792   7.535   2.000   1.577
70632SOL    HW113793   7.514   2.092   1.597
70632SOL    HW213794   7.557   1.962   1.662
70633SOL     OW13795   5.284   0.135  10.637
70633SOL    HW113796   5.291   0.118  10.731
70633SOL    HW213797   5.190   0.134  10.620
70634SOL     OW13798   2.254   4.206  12.708
70634SOL    HW113799   2.339   4.162  12.713
70634SOL    HW213800   2.213   4.188  12.792
70635SOL     OW13801   6.390   6.431   4.849
70635SOL    HW113802   6.437   6.486   4.912
70635SOL    HW213803   6.303   6.469   4.843
70636SOL     OW13804   9.540   0.025   9.052
70636SOL    HW113805   9.524  14.860   8.969
70636SOL    HW213806   9.622   0.072   9.038
70637SOL     OW13807   8.187  11.128  11.198
70637SOL    HW113808   8.106  11.169  11.167
70637SOL    HW213809   8.170  11.034  11.191
70638SOL     OW13810  14.425   0.023   0.052
70638SOL    HW113811  14.424  14.834  14.866
70638SOL    HW213812  14.406  14.858   0.134
70639SOL     OW13813   1.715   3.697   7.325
70639SOL    HW113814   1.779   3.642   7.280
70639SOL    HW213815   1.707   3.659   7.412
70640SOL     OW13816   1.952   9.326   7.194
70640SOL    HW113817   1.907   9.395   7.146
70640SOL    HW213818   1.883   9.264   7.217
70641SOL     OW13819   4.815   8.372  10.260
70641SOL    HW113820   4.782   8.411  10.341
70641SOL    HW213821   4.739   8.367  10.203
70642SOL     OW13822  13.003  13.278   7.575
70642SOL    HW113823  13.080  13.221   7.574
70642SOL    HW213824  13.028  13.354   7.524
70643SOL     OW13825   0.053  14.289  11.457
70643SOL    HW113826   0.024  14.363  11.404
70643SOL    HW213827  14.861  14.228  11.454
70644SOL     OW13828   4.589   5.321  13.795
70644SOL    HW113829   4.555   5.410  13.793
70644SOL    HW213830   4.637   5.315  13.877
70645SOL     OW13831  14.098   4.546  11.853
70645SOL    HW113832  14.183   4.540  11.897
70645SOL    HW213833  14.070   4.637  11.868
70646SOL     OW13834   6.456   0.482   9.806
70646SOL    HW113835   6.379   0.475   9.863
70646SOL    HW213836   6.479   0.575   9.810
70647SOL     OW13837   2.028   8.122  11.897
70647SOL    HW113838   2.109   8.084  11.933
70647SOL    HW213839   2.020   8.083  11.810
70648SOL     OW13840  14.000   0.536  11.478
70648SOL    HW113841  14.082   0.562  11.435
70648SOL    HW213842  13.984   0.447  11.447
70649SOL     OW13843  11.507   7.239   2.858
70649SOL    HW113844  11.567   7.257   2.930
70649SOL    HW213845  11.563   7.240   2.780
70650SOL     OW13846   1.062   1.108  13.574
70650SOL    HW113847   1.004   1.168  13.528
70650SOL    HW213848   1.148   1.150  13.571
70651SOL     OW13849   5.234   0.265  10.228
70651SOL    HW113850   5.298   0.232  10.291
70651SOL    HW213851   5.200   0.345  10.268
70652SOL     OW13852  14.270  10.203   8.123
70652SOL    HW113853  14.289  10.109   8.120
70652SOL    HW213854  14.294  10.230   8.211
70653SOL     OW13855  11.062  14.134   1.057
70653SOL    HW113856  11.060  14.174   0.971
70653SOL    HW213857  11.116  14.193   1.110
70654SOL     OW13858   2.853  13.336   7.264
70654SOL    HW113859   2.834  13.428   7.282
70654SOL    HW213860   2.933  13.318   7.314
70655SOL     OW13861   1.016  12.745  13.553
70655SOL    HW113862   0.942  12.685  13.558
70655SOL    HW213863   1.058  12.725  13.470
70656SOL     OW13864  11.148   2.014   2.172
70656SOL    HW113865  11.107   2.006   2.258
70656SOL    HW213866  11.102   2.087   2.130
70657SOL     OW13867   9.083  12.742  10.605
70657SOL    HW113868   9.021  12.743  10.678
70657SOL    HW213869   9.030  12.718  10.529
70658SOL     OW13870   9.726   9.919   6.968
70658SOL    HW113871   9.712   9.965   6.886
70658SOL    HW213872   9.644   9.932   7.017
70659SOL     OW13873  12.258   6.929   9.964
70659SOL    HW113874  12.230   6.944  10.054
70659SOL    HW213875  12.332   6.988   9.951
70660SOL     OW13876  11.371   6.043   9.080
70660SOL    HW113877  11.326   6.046   9.164
70660SOL    HW213878  11.409   6.131   9.071
70661SOL     OW13879   4.971   5.199   1.820
70661SOL    HW113880   4.929   5.113   1.824
70661SOL    HW213881   5.019   5.199   1.737
70662SOL     OW13882  11.772   1.463   0.716
70662SOL    HW113883  11.751   1.510   0.797
70662SOL    HW213884  11.864   1.441   0.723
70663SOL     OW13885  10.587   6.089   2.268
70663SOL    HW113886  10.620   6.178   2.255
70663SOL    HW213887  10.665   6.038   2.290
70664SOL     OW13888  11.421  14.632  10.974
70664SOL    HW113889  11.435  14.537  10.980
70664SOL    HW213890  11.344  14.648  11.028
70665SOL     OW13891   5.157   1.307  12.057
70665SOL    HW113892   5.107   1.389  12.064
70665SOL    HW213893   5.192   1.293  12.145
70666SOL     OW13894   3.451  10.658   5.796
70666SOL    HW113895   3.544  10.672   5.817
70666SOL    HW213896   3.415  10.617   5.875
70667SOL     OW13897   8.915  13.100   4.707
70667SOL    HW113898   8.930  13.193   4.723
70667SOL    HW213899   8.988  13.056   4.750
70668SOL     OW13900   5.717   1.743   1.654
70668SOL    HW113901   5.782   1.712   1.591
70668SOL    HW213902   5.695   1.832   1.624
70669SOL     OW13903   1.763   2.357  12.086
70669SOL    HW113904   1.705   2.360  12.162
70669SOL    HW213905   1.850   2.345  12.122
70670SOL     OW13906   6.876   6.481   2.177
70670SOL    HW113907   6.829   6.564   2.171
70670SOL    HW213908   6.808   6.414   2.169
70671SOL     OW13909  13.459   1.354  10.615
70671SOL    HW113910  13.404   1.378  10.690
70671SOL    HW213911  13.403   1.297  10.563
70672SOL     OW13912  10.110   0.503   7.441
70672SOL    HW113913  10.020   0.522   7.468
70672SOL    HW213914  10.101   0.432   7.377
70673SOL     OW13915   4.947   1.262   5.646
70673SOL    HW113916   4.913   1.332   5.701
70673SOL    HW213917   5.009   1.215   5.702
70674SOL     OW13918   7.606   2.093   6.625
70674SOL    HW113919   7.543   2.053   6.685
70674SOL    HW213920   7.608   2.185   6.650
70675SOL     OW13921  14.684   3.946   4.248
70675SOL    HW113922  14.694   3.857   4.281
70675SOL    HW213923  14.767   3.964   4.203
70676SOL     OW13924   5.133  10.067  12.583
70676SOL    HW113925   5.222  10.098  12.567
70676SOL    HW213926   5.143   9.974  12.603
70677SOL     OW13927   7.905  14.005   5.626
70677SOL    HW113928   7.873  13.916   5.608
70677SOL    HW213929   7.861  14.030   5.707
70678SOL     OW13930   9.058   3.960   5.366
70678SOL    HW113931   9.116   3.890   5.336
70678SOL    HW213932   9.114   4.016   5.420
70679SOL     OW13933   6.738   6.064  10.468
70679SOL    HW113934   6.740   6.143  10.414
70679SOL    HW213935   6.650   6.029  10.455
70680SOL     OW13936   8.912   6.286   6.323
70680SOL    HW113937   8.990   6.316   6.277
70680SOL    HW213938   8.868   6.366   6.351
70681SOL     OW13939   5.844  11.916   3.175
70681SOL    HW113940   5.804  11.924   3.261
70681SOL    HW213941   5.775  11.882   3.119
70682SOL     OW13942   8.177   7.318   0.371
70682SOL    HW113943   8.177   7.303   0.466
70682SOL    HW213944   8.143   7.406   0.360
70683SOL     OW13945  14.585   7.064   6.021
70683SOL    HW113946  14.622   7.068   6.109
70683SOL    HW213947  14.658   7.036   5.966
70684SOL     OW13948   6.598   9.857   7.937
70684SOL    HW113949   6.566   9.946   7.951
70684SOL    HW213950   6.686   9.868   7.901
70685SOL     OW13951  14.285  12.658  12.245
70685SOL    HW113952  14.316  12.686  12.331
70685SOL    HW213953  14.270  12.740  12.198
70686SOL     OW13954   2.470   6.509   5.573
70686SOL    HW113955   2.438   6.574   5.635
70686SOL    HW213956   2.477   6.556   5.490
70687SOL     OW13957   0.501   8.569  11.405
70687SOL    HW113958   0.413   8.601  11.385
70687SOL    HW213959   0.556   8.601  11.334
70688SOL     OW13960   6.962   9.564  11.515
70688SOL    HW113961   7.004   9.596  11.435
70688SOL    HW213962   6.869   9.561  11.493
70689SOL     OW13963   4.441   8.616  12.573
70689SOL    HW113964   4.366   8.582  12.621
70689SOL    HW213965   4.471   8.543  12.519
70690SOL     OW13966  11.921   5.321   0.150
70690SOL    HW113967  11.872   5.248   0.112
70690SOL    HW213968  11.855   5.372   0.196
70691SOL     OW13969   0.760  11.665   5.260
70691SOL    HW113970   0.839  11.719   5.269
70691SOL    HW213971   0.752  11.621   5.344
70692SOL     OW13972  14.695   1.260  12.616
70692SOL    HW113973  14.718   1.206  12.541
70692SOL    HW213974  14.652   1.337  12.579
70693SOL     OW13975  13.124   9.013  13.713
70693SOL    HW113976  13.134   8.983  13.623
70693SOL    HW213977  13.062   8.953  13.753
70694SOL     OW13978   9.241  10.917   7.799
70694SOL    HW113979   9.323  10.961   7.779
70694SOL    HW213980   9.245  10.835   7.749
70695SOL     OW13981  12.965   0.347  14.602
70695SOL    HW113982  12.873   0.341  14.628
70695SOL    HW213983  12.969   0.306  14.516
70696SOL     OW13984  11.692   7.923   3.726
70696SOL    HW113985  11.628   7.958   3.788
70696SOL    HW213986  11.657   7.836   3.702
70697SOL     OW13987   1.123  11.179   6.705
70697SOL    HW113988   1.082  11.258   6.670
70697SOL    HW213989   1.205  11.171   6.655
70698SOL     OW13990   1.225   1.793  13.139
70698SOL    HW113991   1.301   1.845  13.167
70698SOL    HW213992   1.183   1.768  13.221
70699SOL     OW13993  11.551   4.247   0.364
70699SOL    HW113994  11.504   4.330   0.372
70699SOL    HW213995  11.643   4.272   0.356
70700SOL     OW13996   7.918   4.407   7.929
70700SOL    HW113997   7.974   4.436   8.001
70700SOL    HW213998   7.878   4.326   7.960
70701SOL     OW13999   4.211   7.707   1.335
70701SOL    HW114000   4.290   7.718   1.282
70701SOL    HW214001   4.146   7.762   1.294
70702SOL     OW14002   6.606   5.843   0.980
70702SOL    HW114003   6.692   5.817   0.947
70702SOL    HW214004   6.607   5.938   0.975
70703SOL     OW14005   1.890   9.094   3.903
70703SOL    HW114006   1.883   9.165   3.839
70703SOL    HW214007   1.983   9.075   3.908
70704SOL     OW14008  11.257  14.470   1.935
70704SOL    HW114009  11.191  14.540   1.934
70704SOL    HW214010  11.266  14.446   2.027
70705SOL     OW14011   9.101   7.091   5.522
70705SOL    HW114012   9.115   7.107   5.429
70705SOL    HW214013   9.038   7.157   5.549
70706SOL     OW14014   9.291   9.254  12.447
70706SOL    HW114015   9.216   9.301  12.413
70706SOL    HW214016   9.324   9.203  12.373
70707SOL     OW14017   8.540  13.936   7.999
70707SOL    HW114018   8.606  14.005   8.003
70707SOL    HW214019   8.460  13.976   8.035
70708SOL     OW14020  13.936  10.405   8.867
70708SOL    HW114021  13.918  10.358   8.786
70708SOL    HW214022  13.890  10.355   8.935
70709SOL     OW14023   0.019   1.210  10.758
70709SOL    HW114024   0.015   1.115  10.766
70709SOL    HW214025   0.109   1.233  10.783
70710SOL     OW14026   6.873   4.565   7.396
70710SOL    HW114027   6.807   4.613   7.346
70710SOL    HW214028   6.825   4.492   7.435
70711SOL     OW14029   1.574   3.331  11.986
70711SOL    HW114030   1.523   3.385  12.046
70711SOL    HW214031   1.526   3.248  11.982
70712SOL     OW14032  11.734  12.315  11.761
70712SOL    HW114033  11.648  12.321  11.803
70712SOL    HW214034  11.792  12.364  11.819
70713SOL     OW14035  12.329  13.956   4.465
70713SOL    HW114036  12.340  13.862   4.447
70713SOL    HW214037  12.350  13.999   4.382
70714SOL     OW14038   7.877   4.073   0.573
70714SOL    HW114039   7.861   4.104   0.662
70714SOL    HW214040   7.914   3.985   0.585
70715SOL     OW14041   7.263   3.460  14.579
70715SOL    HW114042   7.210   3.417  14.511
70715SOL    HW214043   7.323   3.516  14.529
70716SOL     OW14044   9.289  10.471   2.084
70716SOL    HW114045   9.293  10.563   2.111
70716SOL    HW214046   9.292  10.422   2.167
70717SOL     OW14047   7.563   7.947   3.448
70717SOL    HW114048   7.567   7.858   3.485
70717SOL    HW214049   7.498   7.992   3.502
70718SOL     OW14050  10.191   6.502   2.014
70718SOL    HW114051  10.203   6.474   1.923
70718SOL    HW214052  10.250   6.446   2.065
70719SOL     OW14053  14.335   6.001   8.692
70719SOL    HW114054  14.302   5.997   8.602
70719SOL    HW214055  14.381   6.085   8.696
70720SOL     OW14056  10.283   3.229   0.113
70720SOL    HW114057  10.234   3.197   0.037
70720SOL    HW214058  10.229   3.299   0.148
70721SOL     OW14059   4.191  12.138   8.820
70721SOL    HW114060   4.240  12.193   8.882
70721SOL    HW214061   4.240  12.056   8.817
70722SOL     OW14062   1.026   8.529   3.046
70722SOL    HW114063   0.935   8.503   3.032
70722SOL    HW214064   1.073   8.489   2.973
70723SOL     OW14065  14.761   4.611   0.520
70723SOL    HW114066  14.842   4.599   0.471
70723SOL    HW214067  14.694   4.620   0.452
70724SOL     OW14068   4.243   9.632  10.813
70724SOL    HW114069   4.201   9.564  10.864
70724SOL    HW214070   4.336   9.627  10.837
70725SOL     OW14071   6.687   5.705   7.871
70725SOL    HW114072   6.779   5.717   7.893
70725SOL    HW214073   6.681   5.614   7.841
70726SOL     OW14074   4.854  12.788  13.940
70726SOL    HW114075   4.783  12.841  13.976
70726SOL    HW214076   4.812  12.738  13.870
70727SOL     OW14077   0.581   0.235  12.006
70727SOL    HW114078   0.582   0.298  12.078
70727SOL    HW214079   0.509   0.263  11.951
70728SOL     OW14080   2.057  12.874  13.456
70728SOL    HW114081   2.003  12.931  13.510
70728SOL    HW214082   2.147  12.903  13.472
70729SOL     OW14083  14.627   3.437   3.071
70729SOL    HW114084  14.642   3.342   3.069
70729SOL    HW214085  14.538   3.447   3.105
70730SOL     OW14086  11.131  14.622   9.532
70730SOL    HW114087  11.173  14.536   9.532
70730SOL    HW214088  11.097  14.632   9.444
70731SOL     OW14089  13.024  12.750  13.263
70731SOL    HW114090  13.030  12.720  13.173
70731SOL    HW214091  13.065  12.837  13.262
70732SOL     OW14092   5.764   6.321   0.144
70732SOL    HW114093   5.721   6.238   0.120
70732SOL    HW214094   5.716   6.351   0.221
70733SOL     OW14095   2.627   2.824   8.838
70733SOL    HW114096   2.701   2.769   8.866
70733SOL    HW214097   2.574   2.836   8.917
70734SOL     OW14098   7.743   8.044  13.114
70734SOL    HW114099   7.676   8.014  13.052
70734SOL    HW214100   7.755   8.136  13.094
70735SOL     OW14101   5.096   8.436  14.571
70735SOL    HW114102   5.089   8.341  14.568
70735SOL    HW214103   5.109   8.463  14.480
70736SOL     OW14104   7.156   6.978   7.018
70736SOL    HW114105   7.224   6.926   6.976
70736SOL    HW214106   7.193   7.066   7.025
70737SOL     OW14107   2.822   4.241  10.646
70737SOL    HW114108   2.850   4.203  10.730
70737SOL    HW214109   2.804   4.333  10.667
70738SOL     OW14110   1.609   2.398   1.560
70738SOL    HW114111   1.599   2.475   1.615
70738SOL    HW214112   1.522   2.383   1.522
70739SOL     OW14113  11.001   2.727   5.980
70739SOL    HW114114  11.000   2.820   5.959
70739SOL    HW214115  10.916   2.694   5.952
70740SOL     OW14116   1.686   6.151   5.756
70740SOL    HW114117   1.729   6.092   5.695
70740SOL    HW214118   1.595   6.155   5.726
70741SOL     OW14119   6.559   6.881  11.516
70741SOL    HW114120   6.494   6.819  11.551
70741SOL    HW214121   6.536   6.890  11.424
70742SOL     OW14122  10.460  14.862  11.304
70742SOL    HW114123  10.380   0.026  11.275
70742SOL    HW214124  10.428  14.786  11.352
70743SOL     OW14125  12.476   2.004   8.727
70743SOL    HW114126  12.545   2.026   8.663
70743SOL    HW214127  12.505   2.047   8.808
70744SOL     OW14128  13.531   8.155   9.803
70744SOL    HW114129  13.457   8.175   9.745
70744SOL    HW214130  13.539   8.060   9.801
70745SOL     OW14131   6.974   7.093   3.095
70745SOL    HW114132   6.899   7.152   3.105
70745SOL    HW214133   6.978   7.045   3.177
70746SOL     OW14134   2.096   3.906   5.219
70746SOL    HW114135   2.182   3.865   5.205
70746SOL    HW214136   2.035   3.833   5.221
70747SOL     OW14137   9.003  10.675   4.088
70747SOL    HW114138   8.920  10.637   4.060
70747SOL    HW214139   8.984  10.768   4.102
70748SOL     OW14140   9.436  14.633   7.250
70748SOL    HW114141   9.502  14.592   7.306
70748SOL    HW214142   9.387  14.690   7.309
70749SOL     OW14143  12.399  11.538   6.984
70749SOL    HW114144  12.370  11.448   7.000
70749SOL    HW214145  12.492  11.538   7.005
70750SOL     OW14146  11.742   1.535  11.164
70750SOL    HW114147  11.810   1.603  11.160
70750SOL    HW214148  11.685   1.563  11.235
70751SOL     OW14149   7.381   0.752   9.358
70751SOL    HW114150   7.437   0.730   9.284
70751SOL    HW214151   7.293   0.758   9.321
70752SOL     OW14152  13.944  11.329  14.745
70752SOL    HW114153  13.917  11.386  14.673
70752SOL    HW214154  14.007  11.383  14.794
70753SOL     OW14155   2.824  12.140   6.612
70753SOL    HW114156   2.845  12.058   6.657
70753SOL    HW214157   2.734  12.127   6.580
70754SOL     OW14158   8.360   3.588   0.970
70754SOL    HW114159   8.310   3.548   1.042
70754SOL    HW214160   8.369   3.680   0.995
70755SOL     OW14161  10.603   0.666   1.992
70755SOL    HW114162  10.552   0.605   2.044
70755SOL    HW214163  10.565   0.661   1.904
70756SOL     OW14164   8.648  14.688   5.295
70756SOL    HW114165   8.582  14.720   5.357
70756SOL    HW214166   8.651  14.594   5.309
70757SOL     OW14167  14.037   3.547   0.808
70757SOL    HW114168  14.024   3.456   0.836
70757SOL    HW214169  14.027   3.598   0.888
70758SOL     OW14170   6.539  14.710   7.513
70758SOL    HW114171   6.624  14.746   7.535
70758SOL    HW214172   6.498  14.691   7.597
70759SOL     OW14173  13.132   4.931  13.366
70759SOL    HW114174  13.149   4.860  13.304
70759SOL    HW214175  13.207   4.990  13.356
70760SOL     OW14176   2.882   2.508  10.817
70760SOL    HW114177   2.976   2.522  10.814
70760SOL    HW214178   2.854   2.509  10.725
70761SOL     OW14179   4.414  11.919  12.984
70761SOL    HW114180   4.407  11.909  12.889
70761SOL    HW214181   4.330  11.954  13.012
70762SOL     OW14182  13.743   0.368  14.526
70762SOL    HW114183  13.825   0.411  14.548
70762SOL    HW214184  13.749   0.350  14.432
70763SOL     OW14185  13.140  13.058   6.779
70763SOL    HW114186  13.108  12.987   6.725
70763SOL    HW214187  13.187  13.015   6.851
70764SOL     OW14188   8.298   7.003   1.556
70764SOL    HW114189   8.354   6.944   1.607
70764SOL    HW214190   8.359   7.056   1.506
70765SOL     OW14191   1.274   3.051   1.595
70765SOL    HW114192   1.353   3.087   1.554
70765SOL    HW214193   1.203   3.076   1.536
70766SOL     OW14194   0.253   9.996   7.649
70766SOL    HW114195   0.239  10.036   7.564
70766SOL    HW214196   0.269   9.903   7.630
70767SOL     OW14197   9.903   6.686  11.800
70767SOL    HW114198   9.894   6.747  11.726
70767SOL    HW214199   9.942   6.738  11.870
70768SOL     OW14200   3.389  11.767   1.508
70768SOL    HW114201   3.451  11.713   1.557
70768SOL    HW214202   3.371  11.716   1.429
70769SOL     OW14203   0.823  13.561  10.448
70769SOL    HW114204   0.823  13.627  10.517
70769SOL    HW214205   0.906  13.514  10.460
70770SOL     OW14206  14.719  13.380  10.157
70770SOL    HW114207  14.794  13.412  10.207
70770SOL    HW214208  14.647  13.379  10.221
70771SOL     OW14209   8.823   1.168   2.511
70771SOL    HW114210   8.872   1.178   2.430
70771SOL    HW214211   8.876   1.214   2.577
70772SOL     OW14212   0.144   3.180   4.092
70772SOL    HW114213   0.088   3.253   4.120
70772SOL    HW214214   0.105   3.103   4.132
70773SOL     OW14215   4.930   1.511   8.705
70773SOL    HW114216   4.924   1.578   8.637
70773SOL    HW214217   5.019   1.478   8.699
70774SOL     OW14218   8.022   2.041  11.843
70774SOL    HW114219   8.094   1.978  11.844
70774SOL    HW214220   8.007   2.060  11.751
70775SOL     OW14221   7.989   4.296   1.686
70775SOL    HW114222   7.941   4.364   1.733
70775SOL    HW214223   8.008   4.334   1.601
70776SOL     OW14224   8.479   1.744   3.208
70776SOL    HW114225   8.549   1.704   3.155
70776SOL    HW214226   8.399   1.726   3.159
70777SOL     OW14227   8.067  11.244   0.831
70777SOL    HW114228   8.146  11.250   0.776
70777SOL    HW214229   8.039  11.153   0.823
70778SOL     OW14230   9.100   3.816   3.963
70778SOL    HW114231   9.179   3.766   3.940
70778SOL    HW214232   9.126   3.908   3.955
70779SOL     OW14233   6.909   3.525   1.774
70779SOL    HW114234   6.916   3.590   1.844
70779SOL    HW214235   6.993   3.529   1.729
70780SOL     OW14236   3.806  13.148  14.652
70780SOL    HW114237   3.785  13.055  14.648
70780SOL    HW214238   3.797  13.171  14.744
70781SOL     OW14239   6.096   8.893  13.552
70781SOL    HW114240   6.065   8.803  13.561
70781SOL    HW214241   6.093   8.910  13.458
70782SOL     OW14242   2.937   0.864  10.246
70782SOL    HW114243   2.992   0.788  10.264
70782SOL    HW214244   2.995   0.927  10.204
70783SOL     OW14245  11.505  13.719   3.152
70783SOL    HW114246  11.590  13.725   3.109
70783SOL    HW214247  11.522  13.742   3.243
70784SOL     OW14248   8.526   0.540  13.168
70784SOL    HW114249   8.533   0.541  13.073
70784SOL    HW214250   8.595   0.482  13.197
70785SOL     OW14251   1.785  10.044  13.358
70785SOL    HW114252   1.878  10.035  13.378
70785SOL    HW214253   1.746  10.077  13.440
70786SOL     OW14254   0.329  10.639   7.973
70786SOL    HW114255   0.358  10.725   8.005
70786SOL    HW214256   0.236  10.650   7.954
70787SOL     OW14257   6.498  11.334   0.149
70787SOL    HW114258   6.567  11.324   0.083
70787SOL    HW214259   6.423  11.369   0.100
70788SOL     OW14260   5.487  11.178   9.539
70788SOL    HW114261   5.470  11.272   9.527
70788SOL    HW214262   5.499  11.167   9.633
70789SOL     OW14263  12.417   1.688   1.536
70789SOL    HW114264  12.442   1.676   1.445
70789SOL    HW214265  12.426   1.782   1.552
70790SOL     OW14266   4.244  12.041  13.351
70790SOL    HW114267   4.295  11.964  13.379
70790SOL    HW214268   4.299  12.082  13.284
70791SOL     OW14269   2.900  14.685   0.228
70791SOL    HW114270   2.806  14.691   0.242
70791SOL    HW214271   2.925  14.773   0.199
70792SOL     OW14272   4.343   9.198   0.170
70792SOL    HW114273   4.351   9.170   0.079
70792SOL    HW214274   4.347   9.293   0.167
70793SOL     OW14275   4.718   7.921  13.356
70793SOL    HW114276   4.721   7.947  13.448
70793SOL    HW214277   4.778   7.847  13.350
70794SOL     OW14278   1.343  12.115   6.672
70794SOL    HW114279   1.289  12.117   6.751
70794SOL    HW214280   1.293  12.060   6.611
70795SOL     OW14281  11.971   0.782   2.281
70795SOL    HW114282  11.916   0.735   2.219
70795SOL    HW214283  11.950   0.874   2.267
70796SOL     OW14284   0.521   6.826  14.308
70796SOL    HW114285   0.500   6.738  14.277
70796SOL    HW214286   0.439   6.859  14.344
70797SOL     OW14287   1.969   5.917   3.930
70797SOL    HW114288   2.025   5.931   4.007
70797SOL    HW214289   2.031   5.910   3.857
70798SOL     OW14290   5.577   1.468   9.108
70798SOL    HW114291   5.515   1.451   9.037
70798SOL    HW214292   5.533   1.433   9.186
70799SOL     OW14293   6.157  11.973   9.907
70799SOL    HW114294   6.179  12.017   9.826
70799SOL    HW214295   6.183  12.035   9.976
70800SOL     OW14296  12.771   4.512  10.285
70800SOL    HW114297  12.826   4.437  10.304
70800SOL    HW214298  12.791   4.535  10.194
70801SOL     OW14299   7.131  12.037   3.553
70801SOL    HW114300   7.110  12.002   3.467
70801SOL    HW214301   7.221  12.010   3.569
70802SOL     OW14302  14.744   9.422  11.013
70802SOL    HW114303  14.663   9.465  11.041
70802SOL    HW214304  14.805   9.494  10.997
70803SOL     OW14305   3.550   4.115   5.125
70803SOL    HW114306   3.641   4.143   5.129
70803SOL    HW214307   3.500   4.196   5.137
70804SOL     OW14308   7.011   2.298   9.215
70804SOL    HW114309   6.994   2.390   9.232
70804SOL    HW214310   7.101   2.296   9.182
70805SOL     OW14311   5.322   6.736   3.512
70805SOL    HW114312   5.402   6.690   3.538
70805SOL    HW214313   5.345   6.779   3.430
70806SOL     OW14314  11.920   8.431   1.879
70806SOL    HW114315  11.845   8.402   1.827
70806SOL    HW214316  11.989   8.369   1.857
70807SOL     OW14317   3.400  13.976   9.592
70807SOL    HW114318   3.407  13.893   9.639
70807SOL    HW214319   3.365  13.952   9.506
70808SOL     OW14320   8.199   3.757   6.907
70808SOL    HW114321   8.141   3.693   6.950
70808SOL    HW214322   8.169   3.842   6.939
70809SOL     OW14323   8.735  10.491  13.664
70809SOL    HW114324   8.825  10.488  13.630
70809SOL    HW214325   8.680  10.480  13.586
70810SOL     OW14326  13.188   7.501   9.824
70810SOL    HW114327  13.281   7.482   9.840
70810SOL    HW214328  13.182   7.596   9.827
70811SOL     OW14329   1.809   4.797   7.471
70811SOL    HW114330   1.821   4.849   7.551
70811SOL    HW214331   1.764   4.719   7.501
70812SOL     OW14332   0.347   6.008  12.976
70812SOL    HW114333   0.300   6.090  12.962
70812SOL    HW214334   0.391   5.992  12.892
70813SOL     OW14335   9.318   4.827  12.305
70813SOL    HW114336   9.341   4.918  12.321
70813SOL    HW214337   9.376   4.799  12.234
70814SOL     OW14338  10.272  13.302   3.180
70814SOL    HW114339  10.360  13.280   3.208
70814SOL    HW214340  10.280  13.320   3.086
70815SOL     OW14341   0.977   4.218  13.859
70815SOL    HW114342   1.003   4.261  13.940
70815SOL    HW214343   0.881   4.214  13.863
70816SOL     OW14344   4.310  12.019   2.700
70816SOL    HW114345   4.241  11.974   2.748
70816SOL    HW214346   4.364  11.948   2.664
70817SOL     OW14347  12.064   7.036   6.626
70817SOL    HW114348  12.101   6.948   6.619
70817SOL    HW214349  12.079   7.062   6.716
70818SOL     OW14350   1.636  13.613   3.259
70818SOL    HW114351   1.659  13.668   3.334
70818SOL    HW214352   1.720  13.585   3.222
70819SOL     OW14353   5.481   5.606  12.150
70819SOL    HW114354   5.413   5.565  12.204
70819SOL    HW214355   5.515   5.535  12.097
70820SOL     OW14356   0.202   9.631   8.375
70820SOL    HW114357   0.180   9.548   8.335
70820SOL    HW214358   0.296   9.642   8.358
70821SOL     OW14359   1.549   5.754  10.262
70821SOL    HW114360   1.618   5.789  10.319
70821SOL    HW214361   1.487   5.827  10.253
70822SOL     OW14362   7.082   4.317   7.048
70822SOL    HW114363   7.020   4.279   7.111
70822SOL    HW214364   7.031   4.327   6.967
70823SOL     OW14365   9.744   3.037   4.140
70823SOL    HW114366   9.715   3.006   4.225
70823SOL    HW214367   9.695   3.118   4.125
70824SOL     OW14368   6.562  11.824   0.035
70824SOL    HW114369   6.485  11.793  14.868
70824SOL    HW214370   6.539  11.817   0.127
70825SOL     OW14371   5.522   0.735   7.798
70825SOL    HW114372   5.515   0.800   7.728
70825SOL    HW214373   5.551   0.785   7.874
70826SOL     OW14374   0.491  10.836   5.384
70826SOL    HW114375   0.440  10.764   5.422
70826SOL    HW214376   0.579  10.800   5.375
70827SOL     OW14377  12.043   7.664   4.777
70827SOL    HW114378  11.999   7.692   4.858
70827SOL    HW214379  12.006   7.578   4.759
70828SOL     OW14380   1.367   4.020   9.966
70828SOL    HW114381   1.303   4.085   9.938
70828SOL    HW214382   1.333   3.937   9.933
70829SOL     OW14383  14.510   1.263   3.018
70829SOL    HW114384  14.601   1.281   2.994
70829SOL    HW214385  14.496   1.172   2.993
70830SOL     OW14386   1.016   1.738   8.101
70830SOL    HW114387   0.953   1.702   8.164
70830SOL    HW214388   1.101   1.729   8.144
70831SOL     OW14389  14.136   9.781   0.307
70831SOL    HW114390  14.140   9.866   0.351
70831SOL    HW214391  14.152   9.717   0.377
70832SOL     OW14392   7.854  13.032   3.079
70832SOL    HW114393   7.863  12.940   3.102
70832SOL    HW214394   7.941  13.059   3.050
70833SOL     OW14395   1.036   0.520   9.387
70833SOL    HW114396   0.993   0.549   9.467
70833SOL    HW214397   0.984   0.557   9.316
70834SOL     OW14398   2.512   4.831   6.537
70834SOL    HW114399   2.548   4.890   6.470
70834SOL    HW214400   2.538   4.871   6.620
70835SOL     OW14401   1.869   7.615   6.088
70835SOL    HW114402   1.904   7.622   6.176
70835SOL    HW214403   1.908   7.687   6.040
70836SOL     OW14404   6.818   4.276  13.096
70836SOL    HW114405   6.753   4.340  13.124
70836SOL    HW214406   6.767   4.204  13.058
70837SOL     OW14407  11.176  11.160   6.570
70837SOL    HW114408  11.129  11.223   6.625
70837SOL    HW214409  11.161  11.075   6.611
70838SOL     OW14410   4.383   5.561   4.717
70838SOL    HW114411   4.378   5.649   4.681
70838SOL    HW214412   4.311   5.557   4.781
70839SOL     OW14413   0.594   8.809   4.491
70839SOL    HW114414   0.532   8.747   4.452
70839SOL    HW214415   0.557   8.895   4.473
70840SOL     OW14416  12.249   2.547   7.857
70840SOL    HW114417  12.295   2.627   7.883
70840SOL    HW214418  12.276   2.531   7.767
70841SOL     OW14419  10.838  10.405  14.745
70841SOL    HW114420  10.838  10.456  14.826
70841SOL    HW214421  10.930  10.382  14.731
70842SOL     OW14422   1.203   1.988   9.368
70842SOL    HW114423   1.192   1.918   9.304
70842SOL    HW214424   1.158   2.064   9.329
70843SOL     OW14425  12.530  10.234   6.758
70843SOL    HW114426  12.531  10.292   6.834
70843SOL    HW214427  12.447  10.254   6.714
70844SOL     OW14428   8.118  12.398   1.345
70844SOL    HW114429   8.172  12.325   1.314
70844SOL    HW214430   8.091  12.372   1.433
70845SOL     OW14431   4.126   6.736   5.541
70845SOL    HW114432   4.178   6.812   5.567
70845SOL    HW214433   4.103   6.694   5.624
70846SOL     OW14434  10.120   6.896  14.072
70846SOL    HW114435  10.131   6.861  13.984
70846SOL    HW214436  10.156   6.985  14.068
70847SOL     OW14437  14.684   4.802  12.176
70847SOL    HW114438  14.646   4.764  12.255
70847SOL    HW214439  14.778   4.809  12.195
70848SOL     OW14440   1.524   1.208   7.225
70848SOL    HW114441   1.528   1.302   7.240
70848SOL    HW214442   1.584   1.192   7.152
70849SOL     OW14443   0.412   0.552   9.133
70849SOL    HW114444   0.329   0.590   9.164
70849SOL    HW214445   0.477   0.579   9.198
70850SOL     OW14446  11.900  11.778  14.220
70850SOL    HW114447  11.980  11.766  14.169
70850SOL    HW214448  11.829  11.772  14.156
70851SOL     OW14449   5.799  11.792  14.323
70851SOL    HW114450   5.875  11.786  14.265
70851SOL    HW214451   5.816  11.870  14.376
70852SOL     OW14452   9.748  10.306   1.664
70852SOL    HW114453   9.660  10.345   1.664
70852SOL    HW214454   9.782  10.327   1.577
70853SOL     OW14455   8.114   9.449  11.582
70853SOL    HW114456   8.081   9.530  11.544
70853SOL    HW214457   8.155   9.476  11.664
70854SOL     OW14458  12.677   9.443  11.265
70854SOL    HW114459  12.588   9.467  11.291
70854SOL    HW214460  12.733   9.509  11.305
70855SOL     OW14461  12.037   1.160  10.093
70855SOL    HW114462  11.975   1.226  10.062
70855SOL    HW214463  12.068   1.117  10.013
70856SOL     OW14464   3.557   6.999   7.151
70856SOL    HW114465   3.598   7.084   7.135
70856SOL    HW214466   3.617   6.953   7.210
70857SOL     OW14467  13.297   7.468   7.086
70857SOL    HW114468  13.343   7.396   7.127
70857SOL    HW214469  13.206   7.456   7.110
70858SOL     OW14470  10.596  14.435   2.873
70858SOL    HW114471  10.597  14.339   2.877
70858SOL    HW214472  10.661  14.462   2.938
70859SOL     OW14473   0.376   2.389  13.045
70859SOL    HW114474   0.316   2.375  13.119
70859SOL    HW214475   0.420   2.472  13.065
70860SOL     OW14476   7.503  10.203  13.429
70860SOL    HW114477   7.438  10.264  13.394
70860SOL    HW214478   7.462  10.168  13.509
70861SOL     OW14479   0.042   2.499   4.887
70861SOL    HW114480   0.118   2.491   4.829
70861SOL    HW214481   0.057   2.433   4.955
70862SOL     OW14482   7.348   5.681  10.998
70862SOL    HW114483   7.366   5.771  11.026
70862SOL    HW214484   7.300   5.692  10.915
70863SOL     OW14485  13.365   2.744   6.123
70863SOL    HW114486  13.348   2.807   6.193
70863SOL    HW214487  13.292   2.755   6.062
70864SOL     OW14488   4.134   2.301   1.952
70864SOL    HW114489   4.139   2.237   1.882
70864SOL    HW214490   4.220   2.298   1.994
70865SOL     OW14491   4.583  10.347  11.300
70865SOL    HW114492   4.655  10.402  11.271
70865SOL    HW214493   4.505  10.386  11.259
70866SOL     OW14494   2.527   9.657   5.979
70866SOL    HW114495   2.602   9.617   6.023
70866SOL    HW214496   2.457   9.656   6.045
70867SOL     OW14497   0.955  14.167   7.032
70867SOL    HW114498   1.021  14.164   6.963
70867SOL    HW214499   0.936  14.075   7.051
70868SOL     OW14500  14.198   0.693   6.770
70868SOL    HW114501  14.240   0.611   6.747
70868SOL    HW214502  14.270   0.756   6.777
70869SOL     OW14503  14.446  14.373  10.394
70869SOL    HW114504  14.376  14.431  10.364
70869SOL    HW214505  14.492  14.347  10.314
70870SOL     OW14506   9.840   3.662  12.938
70870SOL    HW114507   9.874   3.702  12.858
70870SOL    HW214508   9.775   3.598  12.906
70871SOL     OW14509   2.153   5.497   6.586
70871SOL    HW114510   2.146   5.457   6.499
70871SOL    HW214511   2.070   5.474   6.629
70872SOL     OW14512  12.171   6.575  12.137
70872SOL    HW114513  12.122   6.656  12.153
70872SOL    HW214514  12.136   6.512  12.201
70873SOL     OW14515  13.367   9.259   7.533
70873SOL    HW114516  13.283   9.288   7.496
70873SOL    HW214517  13.351   9.170   7.563
70874SOL     OW14518   5.942  13.456   8.105
70874SOL    HW114519   6.028  13.440   8.142
70874SOL    HW214520   5.882  13.448   8.178
70875SOL     OW14521  10.137   8.626   2.247
70875SOL    HW114522  10.063   8.597   2.193
70875SOL    HW214523  10.116   8.717   2.269
70876SOL     OW14524   5.056   3.037   1.633
70876SOL    HW114525   4.966   3.059   1.612
70876SOL    HW214526   5.102   3.039   1.549
70877SOL     OW14527   9.153   8.820  10.150
70877SOL    HW114528   9.183   8.906  10.123
70877SOL    HW214529   9.206   8.799  10.227
70878SOL     OW14530  14.548   3.230  13.672
70878SOL    HW114531  14.611   3.159  13.686
70878SOL    HW214532  14.598   3.296  13.623
70879SOL     OW14533   5.973   4.333   9.469
70879SOL    HW114534   6.036   4.354   9.538
70879SOL    HW214535   5.927   4.256   9.501
70880SOL     OW14536   7.783   9.005   8.272
70880SOL    HW114537   7.817   8.915   8.275
70880SOL    HW214538   7.824   9.043   8.194
70881SOL     OW14539   3.222  12.734  11.989
70881SOL    HW114540   3.127  12.739  11.982
70881SOL    HW214541   3.238  12.652  12.037
70882SOL     OW14542  14.221   0.193   0.110
70882SOL    HW114543  14.206   0.285   0.085
70882SOL    HW214544  14.298   0.167   0.058
70883SOL     OW14545   2.234   0.186   9.499
70883SOL    HW114546   2.314   0.154   9.542
70883SOL    HW214547   2.168   0.185   9.569
70884SOL     OW14548   5.289   5.717   5.773
70884SOL    HW114549   5.264   5.791   5.829
70884SOL    HW214550   5.377   5.694   5.801
70885SOL     OW14551  13.923   6.163  13.751
70885SOL    HW114552  13.884   6.203  13.828
70885SOL    HW214553  13.848   6.141  13.695
70886SOL     OW14554  12.669  10.051   6.572
70886SOL    HW114555  12.595   9.997   6.544
70886SOL    HW214556  12.632  10.113   6.634
70887SOL     OW14557   3.145   1.499  12.425
70887SOL    HW114558   3.058   1.462  12.443
70887SOL    HW214559   3.196   1.479  12.503
70888SOL     OW14560   3.943   6.092   3.968
70888SOL    HW114561   4.014   6.028   3.959
70888SOL    HW214562   3.876   6.046   4.019
70889SOL     OW14563   6.361   7.817   8.608
70889SOL    HW114564   6.401   7.750   8.663
70889SOL    HW214565   6.304   7.866   8.667
70890SOL     OW14566   2.530  10.132   0.555
70890SOL    HW114567   2.487  10.062   0.604
70890SOL    HW214568   2.499  10.120   0.465
70891SOL     OW14569  12.404   5.971  10.696
70891SOL    HW114570  12.334   5.919  10.736
70891SOL    HW214571  12.363   6.055  10.677
70892SOL     OW14572   6.968  12.735   1.648
70892SOL    HW114573   7.027  12.751   1.575
70892SOL    HW214574   6.958  12.821   1.690
70893SOL     OW14575  14.593   9.694   1.439
70893SOL    HW114576  14.559   9.783   1.448
70893SOL    HW214577  14.527   9.639   1.481
70894SOL     OW14578   1.896   2.643   0.973
70894SOL    HW114579   1.886   2.626   0.880
70894SOL    HW214580   1.816   2.690   0.998
70895SOL     OW14581   3.011   0.629   0.780
70895SOL    HW114582   2.981   0.545   0.747
70895SOL    HW214583   3.090   0.648   0.730
70896SOL     OW14584   3.911   7.381   4.391
70896SOL    HW114585   3.939   7.448   4.328
70896SOL    HW214586   3.968   7.392   4.466
70897SOL     OW14587  11.962   2.314   6.895
70897SOL    HW114588  12.052   2.343   6.901
70897SOL    HW214589  11.965   2.221   6.919
70898SOL     OW14590   1.752   2.552   1.880
70898SOL    HW114591   1.774   2.559   1.973
70898SOL    HW214592   1.775   2.638   1.843
70899SOL     OW14593   8.023   3.156  14.862
70899SOL    HW114594   8.025   3.252  14.865
70899SOL    HW214595   8.096   3.129   0.038
70900SOL     OW14596   6.033   6.110   9.070
70900SOL    HW114597   5.980   6.187   9.049
70900SOL    HW214598   5.973   6.036   9.060
70901SOL     OW14599   8.399   9.581  12.106
70901SOL    HW114600   8.349   9.518  12.157
70901SOL    HW214601   8.334   9.640  12.069
70902SOL     OW14602   4.130  10.432   9.283
70902SOL    HW114603   4.184  10.469   9.352
70902SOL    HW214604   4.184  10.363   9.244
70903SOL     OW14605   5.542   7.227  11.839
70903SOL    HW114606   5.509   7.225  11.749
70903SOL    HW214607   5.517   7.142  11.875
70904SOL     OW14608  10.177   4.792  10.128
70904SOL    HW114609  10.093   4.806  10.170
70904SOL    HW214610  10.164   4.714  10.073
70905SOL     OW14611   0.479   9.654   4.738
70905SOL    HW114612   0.390   9.626   4.762
70905SOL    HW214613   0.536   9.588   4.778
70906SOL     OW14614  10.896   1.175   3.280
70906SOL    HW114615  10.809   1.144   3.254
70906SOL    HW214616  10.885   1.269   3.292
70907SOL     OW14617   4.535   6.782   5.750
70907SOL    HW114618   4.566   6.872   5.750
70907SOL    HW214619   4.607   6.731   5.787
70908SOL     OW14620  10.438   6.537   5.466
70908SOL    HW114621  10.391   6.453   5.462
70908SOL    HW214622  10.452   6.552   5.559
70909SOL     OW14623   7.811   1.835   6.343
70909SOL    HW114624   7.772   1.809   6.259
70909SOL    HW214625   7.789   1.764   6.403
70910SOL     OW14626  14.187  14.143   0.507
70910SOL    HW114627  14.117  14.095   0.463
70910SOL    HW214628  14.156  14.155   0.597
70911SOL     OW14629   2.710   1.096   7.191
70911SOL    HW114630   2.783   1.102   7.129
70911SOL    HW214631   2.694   1.003   7.201
70912SOL     OW14632   9.657  11.342  10.895
70912SOL    HW114633   9.680  11.321  10.804
70912SOL    HW214634   9.689  11.432  10.907
70913SOL     OW14635  11.556   9.587  12.503
70913SOL    HW114636  11.618   9.590  12.575
70913SOL    HW214637  11.495   9.659  12.521
70914SOL     OW14638   5.315   1.572   4.108
70914SOL    HW114639   5.402   1.585   4.071
70914SOL    HW214640   5.276   1.503   4.055
70915SOL     OW14641   0.431  13.834  13.751
70915SOL    HW114642   0.357  13.878  13.792
70915SOL    HW214643   0.411  13.837  13.657
70916SOL     OW14644   1.111   0.605   5.156
70916SOL    HW114645   1.079   0.609   5.066
70916SOL    HW214646   1.204   0.626   5.149
70917SOL     OW14647   6.260  14.706  11.751
70917SOL    HW114648   6.254  14.632  11.812
70917SOL    HW214649   6.301  14.669  11.673
70918SOL     OW14650  11.100   6.511   0.326
70918SOL    HW114651  11.184   6.466   0.336
70918SOL    HW214652  11.109   6.589   0.380
70919SOL     OW14653  13.759   7.610   6.248
70919SOL    HW114654  13.704   7.673   6.296
70919SOL    HW214655  13.719   7.604   6.162
70920SOL     OW14656   1.188  12.219   9.906
70920SOL    HW114657   1.151  12.289   9.852
70920SOL    HW214658   1.273  12.201   9.866
70921SOL     OW14659  12.209   7.850   5.295
70921SOL    HW114660  12.137   7.809   5.343
70921SOL    HW214661  12.173   7.871   5.210
70922SOL     OW14662   7.147   5.492  10.553
70922SOL    HW114663   7.198   5.423  10.596
70922SOL    HW214664   7.057   5.459  10.553
70923SOL     OW14665   0.891   6.651   1.453
70923SOL    HW114666   0.949   6.619   1.523
70923SOL    HW214667   0.948   6.662   1.377
70924SOL     OW14668  13.458   3.770   3.588
70924SOL    HW114669  13.429   3.851   3.630
70924SOL    HW214670  13.535   3.795   3.537
70925SOL     OW14671   6.461  11.361  14.095
70925SOL    HW114672   6.511  11.285  14.125
70925SOL    HW214673   6.425  11.333  14.011
70926SOL     OW14674   4.961   5.785  13.644
70926SOL    HW114675   4.909   5.866  13.645
70926SOL    HW214676   4.969   5.760  13.736
70927SOL     OW14677  12.672  13.269  12.076
70927SOL    HW114678  12.701  13.359  12.089
70927SOL    HW214679  12.752  13.216  12.087
70928SOL     OW14680   6.143  12.241  12.264
70928SOL    HW114681   6.116  12.154  12.294
70928SOL    HW214682   6.235  12.231  12.242
70929SOL     OW14683   5.809   0.269   6.953
70929SOL    HW114684   5.878   0.329   6.923
70929SOL    HW214685   5.788   0.217   6.875
70930SOL     OW14686   9.829  14.000  11.771
70930SOL    HW114687   9.769  13.989  11.845
70930SOL    HW214688   9.819  13.920  11.720
70931SOL     OW14689   0.822  11.273   4.137
70931SOL    HW114690   0.765  11.267   4.061
70931SOL    HW214691   0.810  11.189   4.182
70932SOL     OW14692   7.958   9.418   1.705
70932SOL    HW114693   8.040   9.420   1.754
70932SOL    HW214694   7.939   9.510   1.687
70933SOL     OW14695   7.459   8.687   4.529
70933SOL    HW114696   7.454   8.716   4.620
70933SOL    HW214697   7.438   8.764   4.478
70934SOL     OW14698   8.322   0.061   0.854
70934SOL    HW114699   8.347   0.072   0.946
70934SOL    HW214700   8.373   0.128   0.807
70935SOL     OW14701  10.782   1.683   7.129
70935SOL    HW114702  10.849   1.674   7.061
70935SOL    HW214703  10.828   1.725   7.202
70936SOL     OW14704  10.266   2.630   9.040
70936SOL    HW114705  10.297   2.660   8.954
70936SOL    HW214706  10.320   2.679   9.102
70937SOL     OW14707   0.902  10.508   4.067
70937SOL    HW114708   0.995  10.515   4.086
70937SOL    HW214709   0.873  10.598   4.056
70938SOL     OW14710   9.909   4.168  11.633
70938SOL    HW114711   9.992   4.214  11.624
70938SOL    HW214712   9.896   4.161  11.728
70939SOL     OW14713  13.729   9.443   5.625
70939SOL    HW114714  13.747   9.351   5.604
70939SOL    HW214715  13.638   9.456   5.601
70940SOL     OW14716   6.118  14.379  12.280
70940SOL    HW114717   6.159  14.361  12.364
70940SOL    HW214718   6.028  14.406  12.302
70941SOL     OW14719   0.317   0.061   3.188
70941SOL    HW114720   0.363   0.132   3.143
70941SOL    HW214721   0.333  14.864   3.133
70942SOL     OW14722   2.791   4.972  10.606
70942SOL    HW114723   2.882   4.953  10.630
70942SOL    HW214724   2.764   4.895  10.556
70943SOL     OW14725   6.814   8.191   1.015
70943SOL    HW114726   6.805   8.284   1.039
70943SOL    HW214727   6.744   8.176   0.952
70944SOL     OW14728  11.311   9.640   2.272
70944SOL    HW114729  11.386   9.696   2.257
70944SOL    HW214730  11.346   9.551   2.268
70945SOL     OW14731   1.557  14.347   8.170
70945SOL    HW114732   1.586  14.311   8.087
70945SOL    HW214733   1.575  14.441   8.163
70946SOL     OW14734   7.013   8.389   9.733
70946SOL    HW114735   6.950   8.400   9.661
70946SOL    HW214736   7.094   8.426   9.699
70947SOL     OW14737   0.591   3.001   3.496
70947SOL    HW114738   0.686   3.010   3.505
70947SOL    HW214739   0.561   3.089   3.473
70948SOL     OW14740  13.983   2.294  11.974
70948SOL    HW114741  14.040   2.300  11.897
70948SOL    HW214742  13.915   2.231  11.949
70949SOL     OW14743  13.243   9.109   1.653
70949SOL    HW114744  13.263   9.116   1.559
70949SOL    HW214745  13.322   9.142   1.697
70950SOL     OW14746  12.918  12.759  12.365
70950SOL    HW114747  13.012  12.753  12.381
70950SOL    HW214748  12.902  12.852  12.348
70951SOL     OW14749   5.429   8.022   9.481
70951SOL    HW114750   5.415   8.041   9.388
70951SOL    HW214751   5.393   7.935   9.494
70952SOL     OW14752  13.761   4.342   6.892
70952SOL    HW114753  13.746   4.267   6.836
70952SOL    HW214754  13.729   4.314   6.978
70953SOL     OW14755   0.149   9.630  11.705
70953SOL    HW114756   0.125   9.698  11.768
70953SOL    HW214757   0.179   9.679  11.628
70954SOL     OW14758   8.862   2.620  13.439
70954SOL    HW114759   8.881   2.714  13.447
70954SOL    HW214760   8.936   2.585  13.390
70955SOL     OW14761   4.650   9.320   1.467
70955SOL    HW114762   4.675   9.381   1.536
70955SOL    HW214763   4.733   9.284   1.435
70956SOL     OW14764   6.747   4.832   0.041
70956SOL    HW114765   6.799   4.760   0.004
70956SOL    HW214766   6.773   4.909  14.872
70957SOL     OW14767   2.931  12.601  13.450
70957SOL    HW114768   2.964  12.513  13.466
70957SOL    HW214769   2.997  12.643  13.395
70958SOL     OW14770   7.991  12.148  14.112
70958SOL    HW114771   7.970  12.063  14.149
70958SOL    HW214772   8.057  12.185  14.172
70959SOL     OW14773   4.550   1.965  12.499
70959SOL    HW114774   4.623   1.965  12.562
70959SOL    HW214775   4.562   1.883  12.450
70960SOL     OW14776   8.257   4.896   1.183
70960SOL    HW114777   8.182   4.837   1.176
70960SOL    HW214778   8.219   4.984   1.178
70961SOL     OW14779   8.934   5.084   9.147
70961SOL    HW114780   8.988   5.117   9.219
70961SOL    HW214781   8.996   5.064   9.077
70962SOL     OW14782  10.457  10.094   2.881
70962SOL    HW114783  10.490  10.156   2.947
70962SOL    HW214784  10.423  10.021   2.932
70963SOL     OW14785   1.226   1.399  13.327
70963SOL    HW114786   1.301   1.427  13.273
70963SOL    HW214787   1.163   1.471  13.320
70964SOL     OW14788   7.118   7.482   3.474
70964SOL    HW114789   7.112   7.560   3.418
70964SOL    HW214790   7.174   7.422   3.424
70965SOL     OW14791   5.453  13.022   7.059
70965SOL    HW114792   5.459  12.966   6.982
70965SOL    HW214793   5.544  13.036   7.086
70966SOL     OW14794   7.338   7.908   9.347
70966SOL    HW114795   7.314   7.832   9.400
70966SOL    HW214796   7.255   7.951   9.327
70967SOL     OW14797   3.820   6.799   6.777
70967SOL    HW114798   3.770   6.856   6.836
70967SOL    HW214799   3.911   6.808   6.806
70968SOL     OW14800   7.945   6.108   6.544
70968SOL    HW114801   7.965   6.158   6.465
70968SOL    HW214802   7.916   6.174   6.607
70969SOL     OW14803   3.118   5.394   0.260
70969SOL    HW114804   3.108   5.301   0.242
70969SOL    HW214805   3.195   5.420   0.210
70970SOL     OW14806   6.119   7.781  10.385
70970SOL    HW114807   6.081   7.745  10.465
70970SOL    HW214808   6.112   7.876  10.396
70971SOL     OW14809   0.528  11.284   2.350
70971SOL    HW114810   0.471  11.361   2.347
70971SOL    HW214811   0.517  11.250   2.439
70972SOL     OW14812   9.626   7.054   1.682
70972SOL    HW114813   9.560   7.111   1.722
70972SOL    HW214814   9.591   6.965   1.692
70973SOL     OW14815   7.984   3.841   0.724
70973SOL    HW114816   8.041   3.893   0.782
70973SOL    HW214817   8.020   3.753   0.728
70974SOL     OW14818   6.175   0.253  11.774
70974SOL    HW114819   6.120   0.210  11.710
70974SOL    HW214820   6.259   0.207  11.769
70975SOL     OW14821   0.416   2.606   2.747
70975SOL    HW114822   0.503   2.612   2.786
70975SOL    HW214823   0.389   2.515   2.762
70976SOL     OW14824  13.855   2.643   3.897
70976SOL    HW114825  13.951   2.648   3.898
70976SOL    HW214826  13.835   2.597   3.816
70977SOL     OW14827   0.963   7.103   8.147
70977SOL    HW114828   1.029   7.169   8.130
70977SOL    HW214829   0.884   7.152   8.169
70978SOL     OW14830  13.771  13.848   7.637
70978SOL    HW114831  13.796  13.786   7.569
70978SOL    HW214832  13.852  13.866   7.684
70979SOL     OW14833   7.584   3.868   8.721
70979SOL    HW114834   7.553   3.822   8.643
70979SOL    HW214835   7.508   3.920   8.749
70980SOL     OW14836   1.996   1.514  13.470
70980SOL    HW114837   1.997   1.421  13.494
70980SOL    HW214838   1.904   1.535  13.457
70981SOL     OW14839   2.427   0.477  12.178
70981SOL    HW114840   2.397   0.561  12.214
70981SOL    HW214841   2.522   0.480  12.186
70982SOL     OW14842   9.768  10.012   0.076
70982SOL    HW114843   9.853  10.056   0.083
70982SOL    HW214844   9.705  10.079   0.102
70983SOL     OW14845   0.653   2.223   5.600
70983SOL    HW114846   0.617   2.297   5.550
70983SOL    HW214847   0.584   2.157   5.598
70984SOL     OW14848  12.337   7.307   7.815
70984SOL    HW114849  12.302   7.309   7.725
70984SOL    HW214850  12.409   7.370   7.814
70985SOL     OW14851   4.537  14.068   4.620
70985SOL    HW114852   4.586  14.079   4.539
70985SOL    HW214853   4.487  13.987   4.607
70986SOL     OW14854   5.572   8.518   0.060
70986SOL    HW114855   5.621   8.600   0.054
70986SOL    HW214856   5.538   8.504  14.852
70987SOL     OW14857   3.347   7.538   4.225
70987SOL    HW114858   3.418   7.561   4.165
70987SOL    HW214859   3.303   7.622   4.242
70988SOL     OW14860   8.840   7.499  10.425
70988SOL    HW114861   8.778   7.432  10.455
70988SOL    HW214862   8.859   7.475  10.334
70989SOL     OW14863  12.796   1.767  13.097
70989SOL    HW114864  12.836   1.775  13.010
70989SOL    HW214865  12.853   1.818  13.155
70990SOL     OW14866  10.237  11.076   9.125
70990SOL    HW114867  10.163  11.034   9.170
70990SOL    HW214868  10.253  11.021   9.049
70991SOL     OW14869  14.591   7.512  13.245
70991SOL    HW114870  14.620   7.589  13.196
70991SOL    HW214871  14.636   7.439  13.202
70992SOL     OW14872  12.242   8.504   5.245
70992SOL    HW114873  12.196   8.576   5.201
70992SOL    HW214874  12.316   8.547   5.288
70993SOL     OW14875   5.979  12.380   6.433
70993SOL    HW114876   6.021  12.385   6.347
70993SOL    HW214877   5.961  12.287   6.445
70994SOL     OW14878   5.097  13.879  14.377
70994SOL    HW114879   5.034  13.808  14.384
70994SOL    HW214880   5.157  13.852  14.308
70995SOL     OW14881   2.517   4.824   1.014
70995SOL    HW114882   2.587   4.861   1.067
70995SOL    HW214883   2.524   4.730   1.028
70996SOL     OW14884  11.910   7.588   5.897
70996SOL    HW114885  11.910   7.671   5.945
70996SOL    HW214886  11.935   7.523   5.963
70997SOL     OW14887  10.192   0.701  11.650
70997SOL    HW114888  10.242   0.772  11.611
70997SOL    HW214889  10.161   0.650  11.575
70998SOL     OW14890   9.917  11.430   1.107
70998SOL    HW114891   9.866  11.507   1.131
70998SOL    HW214892   9.872  11.395   1.030
70999SOL     OW14893  11.719   4.641  12.435
70999SOL    HW114894  11.633   4.643  12.393
70999SOL    HW214895  11.780   4.621  12.363
71000SOL     OW14896   3.440   0.581  10.090
71000SOL    HW114897   3.380   0.512  10.061
71000SOL    HW214898   3.508   0.583  10.023
71001SOL     OW14899  13.513   4.580   5.096
71001SOL    HW114900  13.505   4.541   5.183
71001SOL    HW214901  13.444   4.646   5.093
71002SOL     OW14902   9.317  10.056   3.660
71002SOL    HW114903   9.366  10.080   3.581
71002SOL    HW214904   9.361   9.977   3.692
71003SOL     OW14905  10.577   6.563  14.401
71003SOL    HW114906  10.653   6.532  14.449
71003SOL    HW214907  10.568   6.501  14.328
71004SOL     OW14908  14.580  13.181  11.783
71004SOL    HW114909  14.582  13.242  11.710
71004SOL    HW214910  14.490  13.183  11.814
71005SOL     OW14911   9.679   3.744   8.106
71005SOL    HW114912   9.725   3.758   8.188
71005SOL    HW214913   9.587   3.732   8.131
71006SOL     OW14914   8.164   4.898   8.340
71006SOL    HW114915   8.085   4.906   8.288
71006SOL    HW214916   8.200   4.812   8.316
71007SOL     OW14917   5.017   6.641  13.738
71007SOL    HW114918   5.049   6.628  13.649
71007SOL    HW214919   4.932   6.684  13.726
71008SOL     OW14920  14.311   8.351   3.182
71008SOL    HW114921  14.225   8.311   3.170
71008SOL    HW214922  14.349   8.305   3.257
71009SOL     OW14923  14.289   3.695   6.135
71009SOL    HW114924  14.319   3.662   6.051
71009SOL    HW214925  14.366   3.690   6.192
71010SOL     OW14926   4.062   0.772   0.005
71010SOL    HW114927   4.093   0.775  14.795
71010SOL    HW214928   4.140   0.755   0.057
71011SOL     OW14929   4.273   1.700   1.621
71011SOL    HW114930   4.276   1.642   1.697
71011SOL    HW214931   4.254   1.642   1.547
71012SOL     OW14932   1.238   4.155   5.992
71012SOL    HW114933   1.210   4.190   6.076
71012SOL    HW214934   1.207   4.064   5.992
71013SOL     OW14935   6.640  14.682   2.628
71013SOL    HW114936   6.564  14.626   2.642
71013SOL    HW214937   6.606  14.771   2.635
71014SOL     OW14938   1.495   4.010  14.392
71014SOL    HW114939   1.559   3.944  14.419
71014SOL    HW214940   1.466   3.981  14.306
71015SOL     OW14941  14.134   7.730  13.523
71015SOL    HW114942  14.104   7.641  13.538
71015SOL    HW214943  14.213   7.721  13.470
71016SOL     OW14944   9.182   5.841  11.160
71016SOL    HW114945   9.141   5.754  11.160
71016SOL    HW214946   9.229   5.845  11.077
71017SOL     OW14947   6.654   9.915   0.166
71017SOL    HW114948   6.728   9.875   0.121
71017SOL    HW214949   6.579   9.860   0.142
71018SOL     OW14950  12.161   6.915   1.505
71018SOL    HW114951  12.153   6.854   1.432
71018SOL    HW214952  12.075   6.955   1.512
71019SOL     OW14953   2.662   5.386   2.207
71019SOL    HW114954   2.700   5.457   2.154
71019SOL    HW214955   2.632   5.429   2.287
71020SOL     OW14956   0.070   2.454   2.072
71020SOL    HW114957   0.059   2.415   1.985
71020SOL    HW214958   0.045   2.546   2.060
71021SOL     OW14959   9.574   0.653   8.213
71021SOL    HW114960   9.539   0.742   8.210
71021SOL    HW214961   9.529   0.608   8.141
71022SOL     OW14962  11.825   5.341   4.996
71022SOL    HW114963  11.759   5.274   4.977
71022SOL    HW214964  11.782   5.424   4.976
71023SOL     OW14965   0.887  13.633  13.704
71023SOL    HW114966   0.905  13.613  13.612
71023SOL    HW214967   0.960  13.593  13.752
71024SOL     OW14968   2.158  14.374   6.657
71024SOL    HW114969   2.209  14.384   6.737
71024SOL    HW214970   2.092  14.443   6.662
71025SOL     OW14971  14.625   9.866  11.319
71025SOL    HW114972  14.659   9.949  11.354
71025SOL    HW214973  14.594   9.887  11.231
71026SOL     OW14974  13.701   1.708  12.805
71026SOL    HW114975  13.786   1.698  12.764
71026SOL    HW214976  13.641   1.726  12.732
71027SOL     OW14977  10.917  13.387  10.892
71027SOL    HW114978  10.842  13.378  10.950
71027SOL    HW214979  10.888  13.448  10.824
71028SOL     OW14980  13.409   2.622   0.447
71028SOL    HW114981  13.504   2.626   0.458
71028SOL    HW214982  13.395   2.644   0.355
71029SOL     OW14983   3.536   3.029   8.243
71029SOL    HW114984   3.464   3.001   8.188
71029SOL    HW214985   3.612   3.033   8.184
71030SOL     OW14986  13.922   6.142  10.846
71030SOL    HW114987  14.012   6.118  10.824
71030SOL    HW214988  13.868   6.087  10.789
71031SOL     OW14989  10.299   0.235   1.369
71031SOL    HW114990  10.334   0.159   1.416
71031SOL    HW214991  10.266   0.199   1.287
71032SOL     OW14992   2.754   7.666   9.662
71032SOL    HW114993   2.811   7.590   9.671
71032SOL    HW214994   2.803   7.726   9.605
71033SOL     OW14995  10.307  13.010   2.238
71033SOL    HW114996  10.227  13.058   2.261
71033SOL    HW214997  10.360  13.013   2.318
71034SOL     OW14998   9.745  11.623  12.825
71034SOL    HW114999   9.671  11.600  12.768
71034SOL    HW215000   9.789  11.695  12.779
71035SOL     OW15001   0.349   3.358   6.573
71035SOL    HW115002   0.256   3.341   6.591
71035SOL    HW215003   0.362   3.450   6.598
71036SOL     OW15004  11.944  10.121   3.483
71036SOL    HW115005  11.948  10.164   3.569
71036SOL    HW215006  11.921  10.030   3.503
71037SOL     OW15007  13.190   1.566  13.422
71037SOL    HW115008  13.202   1.643  13.478
71037SOL    HW215009  13.101   1.537  13.440
71038SOL     OW15010  12.077   8.746  12.743
71038SOL    HW115011  12.060   8.806  12.815
71038SOL    HW215012  12.153   8.783  12.698
71039SOL     OW15013  11.579  12.046   1.343
71039SOL    HW115014  11.627  12.129   1.354
71039SOL    HW215015  11.573  12.034   1.249
71040SOL     OW15016  13.575  12.686   2.540
71040SOL    HW115017  13.653  12.661   2.591
71040SOL    HW215018  13.589  12.645   2.454
71041SOL     OW15019   8.568   8.538   5.264
71041SOL    HW115020   8.601   8.626   5.246
71041SOL    HW215021   8.605   8.516   5.350
71042SOL     OW15022   5.766  14.841   7.394
71042SOL    HW115023   5.812   0.037   7.360
71042SOL    HW215024   5.791  14.770   7.334
71043SOL     OW15025  13.356  13.658   0.162
71043SOL    HW115026  13.308  13.710   0.226
71043SOL    HW215027  13.303  13.664   0.082
71044SOL     OW15028   7.003  11.264   8.819
71044SOL    HW115029   7.088  11.231   8.790
71044SOL    HW215030   6.944  11.190   8.809
71045SOL     OW15031   0.667   7.791   1.744
71045SOL    HW115032   0.719   7.778   1.824
71045SOL    HW215033   0.686   7.880   1.717
71046SOL     OW15034  11.299   2.450   1.649
71046SOL    HW115035  11.210   2.429   1.677
71046SOL    HW215036  11.347   2.368   1.660
71047SOL     OW15037  14.243  12.296  13.578
71047SOL    HW115038  14.298  12.373  13.583
71047SOL    HW215039  14.302  12.225  13.553
71048SOL     OW15040  12.455   2.699   8.305
71048SOL    HW115041  12.366   2.723   8.278
71048SOL    HW215042  12.505   2.780   8.296
71049SOL     OW15043   6.319   0.213   5.163
71049SOL    HW115044   6.297   0.269   5.088
71049SOL    HW215045   6.336   0.275   5.234
71050SOL     OW15046   9.274  10.930  10.131
71050SOL    HW115047   9.317  10.916  10.047
71050SOL    HW215048   9.313  11.010  10.166
71051SOL     OW15049  14.869   7.561   9.873
71051SOL    HW115050  14.801   7.584   9.936
71051SOL    HW215051  14.823   7.547   9.790
71052SOL     OW15052  11.185  13.086   2.796
71052SOL    HW115053  11.275  13.119   2.797
71052SOL    HW215054  11.191  12.999   2.835
71053SOL     OW15055   5.122  10.522   6.135
71053SOL    HW115056   5.060  10.451   6.121
71053SOL    HW215057   5.089  10.594   6.081
71054SOL     OW15058   3.818  10.525  12.731
71054SOL    HW115059   3.908  10.543  12.758
71054SOL    HW215060   3.809  10.572  12.648
71055SOL     OW15061  12.648  13.191   9.784
71055SOL    HW115062  12.557  13.171   9.806
71055SOL    HW215063  12.685  13.107   9.755
71056SOL     OW15064   6.513  11.276   6.676
71056SOL    HW115065   6.513  11.185   6.648
71056SOL    HW215066   6.566  11.322   6.611
71057SOL     OW15067   6.203   3.492   1.406
71057SOL    HW115068   6.167   3.544   1.334
71057SOL    HW215069   6.271   3.548   1.443
71058SOL     OW15070  14.580   1.552   3.701
71058SOL    HW115071  14.516   1.481   3.692
71058SOL    HW215072  14.575   1.600   3.618
71059SOL     OW15073   2.947  12.993  14.151
71059SOL    HW115074   2.958  13.074  14.201
71059SOL    HW215075   2.906  12.932  14.213
71060SOL     OW15076  13.202   7.042   6.385
71060SOL    HW115077  13.161   7.019   6.469
71060SOL    HW215078  13.250   6.963   6.360
71061SOL     OW15079   1.778   6.968   8.027
71061SOL    HW115080   1.703   6.923   7.987
71061SOL    HW215081   1.831   6.996   7.953
71062SOL     OW15082  13.129   7.202   0.170
71062SOL    HW115083  13.216   7.216   0.133
71062SOL    HW215084  13.070   7.204   0.095
71063SOL     OW15085  13.095   6.905   8.669
71063SOL    HW115086  13.030   6.920   8.738
71063SOL    HW215087  13.173   6.875   8.716
71064SOL     OW15088   0.168   7.371   4.288
71064SOL    HW115089   0.219   7.425   4.227
71064SOL    HW215090   0.200   7.396   4.375
71065SOL     OW15091  12.404  11.032   7.167
71065SOL    HW115092  12.342  11.004   7.100
71065SOL    HW215093  12.465  10.958   7.175
71066SOL     OW15094  10.275   3.511  11.769
71066SOL    HW115095  10.267   3.594  11.816
71066SOL    HW215096  10.304   3.536  11.681
71067SOL     OW15097  11.672   3.075   7.448
71067SOL    HW115098  11.607   3.008   7.470
71067SOL    HW215099  11.726   3.082   7.527
71068SOL     OW15100   1.318   7.283   9.640
71068SOL    HW115101   1.317   7.372   9.605
71068SOL    HW215102   1.393   7.280   9.699
71069SOL     OW15103   3.162  11.629   6.535
71069SOL    HW115104   3.105  11.676   6.475
71069SOL    HW215105   3.199  11.697   6.591
71070SOL     OW15106  12.152   0.490   5.393
71070SOL    HW115107  12.110   0.482   5.478
71070SOL    HW215108  12.098   0.555   5.346
71071SOL     OW15109  13.559  11.624   6.386
71071SOL    HW115110  13.473  11.587   6.407
71071SOL    HW215111  13.620  11.550   6.396
71072SOL     OW15112   7.251   8.635  13.815
71072SOL    HW115113   7.193   8.603  13.884
71072SOL    HW215114   7.291   8.714  13.852
71073SOL     OW15115   1.898   3.617   7.790
71073SOL    HW115116   1.884   3.708   7.765
71073SOL    HW215117   1.978   3.618   7.843
71074SOL     OW15118   5.312   6.642  13.921
71074SOL    HW115119   5.280   6.579  13.985
71074SOL    HW215120   5.269   6.617  13.839
71075SOL     OW15121   5.942   6.933  11.479
71075SOL    HW115122   5.943   7.007  11.540
71075SOL    HW215123   6.015   6.878  11.508
71076SOL     OW15124   8.410   4.063  12.119
71076SOL    HW115125   8.410   4.154  12.148
71076SOL    HW215126   8.501   4.048  12.091
71077SOL     OW15127   8.229   4.660  10.135
71077SOL    HW115128   8.273   4.726  10.080
71077SOL    HW215129   8.166   4.711  10.186
71078SOL     OW15130  13.022   7.785   8.004
71078SOL    HW115131  13.080   7.845   8.051
71078SOL    HW215132  13.078   7.741   7.941
71079SOL     OW15133   1.367   4.671   6.977
71079SOL    HW115134   1.422   4.732   7.025
71079SOL    HW215135   1.387   4.585   7.015
71080SOL     OW15136  14.222  10.150  14.185
71080SOL    HW115137  14.273  10.229  14.164
71080SOL    HW215138  14.232  10.094  14.108
71081SOL     OW15139   5.812   1.306   1.078
71081SOL    HW115140   5.894   1.344   1.111
71081SOL    HW215141   5.792   1.357   0.999
71082SOL     OW15142   6.937   6.934  14.372
71082SOL    HW115143   6.891   6.998  14.318
71082SOL    HW215144   6.969   6.984  14.447
71083SOL     OW15145   6.003   6.027  14.598
71083SOL    HW115146   6.095   6.049  14.612
71083SOL    HW215147   5.955   6.090  14.652
71084SOL     OW15148   4.645   6.416   2.374
71084SOL    HW115149   4.675   6.504   2.398
71084SOL    HW215150   4.640   6.369   2.456
71085SOL     OW15151   5.122   8.291   9.558
71085SOL    HW115152   5.104   8.226   9.491
71085SOL    HW215153   5.131   8.241   9.639
71086SOL     OW15154   8.050  11.582   4.433
71086SOL    HW115155   8.065  11.529   4.511
71086SOL    HW215156   8.065  11.672   4.462
71087SOL     OW15157   5.643  13.069   1.726
71087SOL    HW115158   5.557  13.085   1.687
71087SOL    HW215159   5.702  13.060   1.652
71088SOL     OW15160   8.983   7.870   9.735
71088SOL    HW115161   8.895   7.833   9.726
71088SOL    HW215162   8.978   7.955   9.689
71089SOL     OW15163   0.642  11.837   0.112
71089SOL    HW115164   0.713  11.851   0.175
71089SOL    HW215165   0.594  11.921   0.111
71090SOL     OW15166  13.882  14.364   6.371
71090SOL    HW115167  13.856  14.440   6.423
71090SOL    HW215168  13.881  14.291   6.432
71091SOL     OW15169   5.819   0.916  10.809
71091SOL    HW115170   5.772   0.999  10.821
71091SOL    HW215171   5.835   0.885  10.898
71092SOL     OW15172   0.629   8.123   3.897
71092SOL    HW115173   0.540   8.131   3.933
71092SOL    HW215174   0.652   8.212   3.872
71093SOL     OW15175   6.166   5.651  11.841
71093SOL    HW115176   6.134   5.565  11.869
71093SOL    HW215177   6.261   5.643  11.844
71094SOL     OW15178  10.314   8.992   4.196
71094SOL    HW115179  10.393   8.959   4.153
71094SOL    HW215180  10.256   8.916   4.200
71095SOL     OW15181   3.850   8.768  13.155
71095SOL    HW115182   3.884   8.844  13.203
71095SOL    HW215183   3.757   8.767  13.176
71096SOL     OW15184   7.032  10.222  11.129
71096SOL    HW115185   7.031  10.236  11.224
71096SOL    HW215186   7.020  10.310  11.092
71097SOL     OW15187   9.111   6.724  10.612
71097SOL    HW115188   9.031   6.696  10.656
71097SOL    HW215189   9.138   6.647  10.562
71098SOL     OW15190  11.797  14.431  12.797
71098SOL    HW115191  11.813  14.444  12.891
71098SOL    HW215192  11.789  14.520  12.762
71099SOL     OW15193   4.468  10.943   7.447
71099SOL    HW115194   4.421  10.993   7.514
71099SOL    HW215195   4.495  11.009   7.383
71100SOL     OW15196  12.029   0.008  13.769
71100SOL    HW115197  12.106  14.832  13.758
71100SOL    HW215198  12.064   0.093  13.794
71101SOL     OW15199   4.581  14.122   3.741
71101SOL    HW115200   4.649  14.170   3.695
71101SOL    HW215201   4.627  14.069   3.805
71102SOL     OW15202   4.060   9.849   0.617
71102SOL    HW115203   4.120   9.865   0.690
71102SOL    HW215204   4.005   9.776   0.646
71103SOL     OW15205   0.045   7.421   3.181
71103SOL    HW115206   0.077   7.374   3.104
71103SOL    HW215207   0.089   7.380   3.255
71104SOL     OW15208  13.921   5.617   2.536
71104SOL    HW115209  13.965   5.533   2.527
71104SOL    HW215210  13.864   5.623   2.459
71105SOL     OW15211  12.036   9.543   6.979
71105SOL    HW115212  12.019   9.581   7.065
71105SOL    HW215213  12.101   9.475   6.995
71106SOL     OW15214   7.739   0.276   1.238
71106SOL    HW115215   7.814   0.289   1.180
71106SOL    HW215216   7.759   0.329   1.316
71107SOL     OW15217  10.164   3.040   7.441
71107SOL    HW115218  10.096   3.089   7.486
71107SOL    HW215219  10.240   3.045   7.498
71108SOL     OW15220   6.150   2.770   2.238
71108SOL    HW115221   6.112   2.692   2.198
71108SOL    HW215222   6.076   2.829   2.253
71109SOL     OW15223   4.635   3.381   5.582
71109SOL    HW115224   4.571   3.389   5.652
71109SOL    HW215225   4.591   3.331   5.514
71110SOL     OW15226  10.907  13.270   7.692
71110SOL    HW115227  10.980  13.245   7.748
71110SOL    HW215228  10.887  13.191   7.642
71111SOL     OW15229   3.181   6.570  12.683
71111SOL    HW115230   3.171   6.487  12.729
71111SOL    HW215231   3.164   6.636  12.749
71112SOL     OW15232  13.203  12.229   2.184
71112SOL    HW115233  13.271  12.296   2.183
71112SOL    HW215234  13.225  12.174   2.260
71113SOL     OW15235   7.007  13.155  11.409
71113SOL    HW115236   7.048  13.240  11.391
71113SOL    HW215237   6.913  13.173  11.403
71114SOL     OW15238  13.179   7.121   3.493
71114SOL    HW115239  13.088   7.116   3.521
71114SOL    HW215240  13.223   7.051   3.542
71115SOL     OW15241  14.229   9.051   5.315
71115SOL    HW115242  14.296   9.090   5.259
71115SOL    HW215243  14.277   9.003   5.382
71116SOL     OW15244  10.868  14.600   4.150
71116SOL    HW115245  10.928  14.531   4.178
71116SOL    HW215246  10.785  14.580   4.195
71117SOL     OW15247   9.955  10.453   7.289
71117SOL    HW115248   9.883  10.453   7.226
71117SOL    HW215249  10.034  10.461   7.235
71118SOL     OW15250   7.129  11.786  14.095
71118SOL    HW115251   7.185  11.729  14.044
71118SOL    HW215252   7.126  11.868  14.046
71119SOL     OW15253  13.866  10.741  13.525
71119SOL    HW115254  13.944  10.707  13.570
71119SOL    HW215255  13.830  10.666  13.479
71120SOL     OW15256  13.659  11.059   5.816
71120SOL    HW115257  13.642  10.994   5.748
71120SOL    HW215258  13.754  11.059   5.827
71121SOL     OW15259   0.169   0.211  10.837
71121SOL    HW115260   0.194   0.241  10.750
71121SOL    HW215261   0.229   0.140  10.857
71122SOL     OW15262   1.164   7.383   3.305
71122SOL    HW115263   1.186   7.430   3.385
71122SOL    HW215264   1.098   7.438   3.262
71123SOL     OW15265   8.324   7.420   1.913
71123SOL    HW115266   8.252   7.364   1.886
71123SOL    HW215267   8.400   7.388   1.864
71124SOL     OW15268   7.583   2.173  11.573
71124SOL    HW115269   7.646   2.156  11.643
71124SOL    HW215270   7.499   2.149  11.610
71125SOL     OW15271   1.069   9.629   6.051
71125SOL    HW115272   1.071   9.544   6.096
71125SOL    HW215273   0.993   9.623   5.994
71126SOL     OW15274  10.825   2.022   6.708
71126SOL    HW115275  10.891   1.952   6.701
71126SOL    HW215276  10.839   2.076   6.631
71127SOL     OW15277  11.758  10.739   6.178
71127SOL    HW115278  11.829  10.689   6.220
71127SOL    HW215279  11.760  10.824   6.221
71128SOL     OW15280   1.999   6.722   7.813
71128SOL    HW115281   1.992   6.815   7.790
71128SOL    HW215282   2.062   6.720   7.885
71129SOL     OW15283   2.650   5.416  11.220
71129SOL    HW115284   2.744   5.437  11.215
71129SOL    HW215285   2.608   5.501  11.233
71130SOL     OW15286   2.775   4.512   2.329
71130SOL    HW115287   2.723   4.439   2.363
71130SOL    HW215288   2.813   4.478   2.247
71131SOL     OW15289   1.783  10.500   0.187
71131SOL    HW115290   1.748  10.430   0.241
71131SOL    HW215291   1.837  10.552   0.246
71132SOL     OW15292  12.951   7.425   1.334
71132SOL    HW115293  12.920   7.345   1.292
71132SOL    HW215294  12.873   7.480   1.341
71133SOL     OW15295   6.357   2.720  12.280
71133SOL    HW115296   6.355   2.639  12.331
71133SOL    HW215297   6.281   2.714  12.222
71134SOL     OW15298  10.923  14.678   9.730
71134SOL    HW115299  10.878  14.593   9.731
71134SOL    HW215300  11.005  14.661   9.684
71135SOL     OW15301  10.635  14.207   9.374
71135SOL    HW115302  10.669  14.158   9.299
71135SOL    HW215303  10.612  14.141   9.439
71136SOL     OW15304  10.985   0.427   4.249
71136SOL    HW115305  11.001   0.333   4.249
71136SOL    HW215306  11.063   0.465   4.206
71137SOL     OW15307   2.047   3.321   2.114
71137SOL    HW115308   2.006   3.332   2.028
71137SOL    HW215309   1.979   3.283   2.169
71138SOL     OW15310  11.642   0.152   6.168
71138SOL    HW115311  11.599   0.075   6.131
71138SOL    HW215312  11.687   0.193   6.095
71139SOL     OW15313   9.012   0.843   1.300
71139SOL    HW115314   9.101   0.808   1.291
71139SOL    HW215315   9.025   0.935   1.321
71140SOL     OW15316   8.049   5.890   7.108
71140SOL    HW115317   8.131   5.875   7.061
71140SOL    HW215318   8.006   5.960   7.060
71141SOL     OW15319   0.267   3.187  11.972
71141SOL    HW115320   0.291   3.156  11.884
71141SOL    HW215321   0.209   3.120  12.006
71142SOL     OW15322   9.756   2.031  10.686
71142SOL    HW115323   9.663   2.025  10.664
71142SOL    HW215324   9.792   2.088  10.618
71143SOL     OW15325  10.028   7.674  14.223
71143SOL    HW115326  10.029   7.722  14.306
71143SOL    HW215327   9.951   7.706  14.177
71144SOL     OW15328   5.990   5.495   2.009
71144SOL    HW115329   5.945   5.538   2.082
71144SOL    HW215330   6.012   5.409   2.043
71145SOL     OW15331  12.088  11.439   9.291
71145SOL    HW115332  12.114  11.525   9.257
71145SOL    HW215333  12.105  11.379   9.218
71146SOL     OW15334   5.843   4.800  10.073
71146SOL    HW115335   5.894   4.843  10.142
71146SOL    HW215336   5.909   4.754  10.020
71147SOL     OW15337  12.415   8.591   8.383
71147SOL    HW115338  12.469   8.643   8.443
71147SOL    HW215339  12.476   8.559   8.317
71148SOL     OW15340   8.248   1.119   0.235
71148SOL    HW115341   8.278   1.029   0.223
71148SOL    HW215342   8.168   1.124   0.182
71149SOL     OW15343   0.409   7.146  13.683
71149SOL    HW115344   0.480   7.184  13.630
71149SOL    HW215345   0.402   7.204  13.759
71150SOL     OW15346   0.668  10.129   0.925
71150SOL    HW115347   0.622  10.145   1.007
71150SOL    HW215348   0.757  10.105   0.951
71151SOL     OW15349   9.569  11.731   3.308
71151SOL    HW115350   9.659  11.717   3.337
71151SOL    HW215351   9.517  11.677   3.367
71152SOL     OW15352   2.493  11.148   8.744
71152SOL    HW115353   2.483  11.071   8.688
71152SOL    HW215354   2.580  11.139   8.782
71153SOL     OW15355   8.926  10.142   6.417
71153SOL    HW115356   9.004  10.147   6.362
71153SOL    HW215357   8.912  10.232   6.447
71154SOL     OW15358  13.991  10.176   2.616
71154SOL    HW115359  13.961  10.197   2.704
71154SOL    HW215360  14.079  10.213   2.611
71155SOL     OW15361   6.911  13.346   9.432
71155SOL    HW115362   6.901  13.293   9.353
71155SOL    HW215363   6.999  13.384   9.426
71156SOL     OW15364   2.203  10.453  11.519
71156SOL    HW115365   2.218  10.361  11.538
71156SOL    HW215366   2.269  10.475  11.454
71157SOL     OW15367   3.311   0.871  10.171
71157SOL    HW115368   3.320   0.820  10.251
71157SOL    HW215369   3.398   0.867  10.130
71158SOL     OW15370   0.075   1.034   0.745
71158SOL    HW115371   0.074   1.108   0.684
71158SOL    HW215372   0.104   0.960   0.693
71159SOL     OW15373   8.642   7.766  13.341
71159SOL    HW115374   8.692   7.713  13.279
71159SOL    HW215375   8.601   7.703  13.400
71160SOL     OW15376   3.299  12.636  13.990
71160SOL    HW115377   3.274  12.544  13.998
71160SOL    HW215378   3.234  12.683  14.042
71161SOL     OW15379   8.175  13.814   5.909
71161SOL    HW115380   8.158  13.824   6.003
71161SOL    HW215381   8.259  13.769   5.905
71162SOL     OW15382  12.496   5.444   1.023
71162SOL    HW115383  12.425   5.382   1.039
71162SOL    HW215384  12.460   5.529   1.047
71163SOL     OW15385   1.433   9.456   5.352
71163SOL    HW115386   1.498   9.523   5.371
71163SOL    HW215387   1.380   9.451   5.431
71164SOL     OW15388   5.273  13.308  13.411
71164SOL    HW115389   5.310  13.230  13.369
71164SOL    HW215390   5.326  13.381  13.378
71165SOL     OW15391  11.123   3.648   0.486
71165SOL    HW115392  11.032   3.677   0.474
71165SOL    HW215393  11.143   3.598   0.406
71166SOL     OW15394  13.549   3.403  14.407
71166SOL    HW115395  13.557   3.356  14.490
71166SOL    HW215396  13.619   3.469  14.411
71167SOL     OW15397   5.989   3.777  14.231
71167SOL    HW115398   5.944   3.824  14.161
71167SOL    HW215399   6.008   3.844  14.297
71168SOL     OW15400   2.162   4.325   0.905
71168SOL    HW115401   2.164   4.322   0.810
71168SOL    HW215402   2.110   4.402   0.927
71169SOL     OW15403   8.866   9.164   9.362
71169SOL    HW115404   8.919   9.229   9.409
71169SOL    HW215405   8.889   9.178   9.269
71170SOL     OW15406  12.530   6.053   3.264
71170SOL    HW115407  12.442   6.015   3.271
71170SOL    HW215408  12.559   6.030   3.175
71171SOL     OW15409   7.938   9.611  10.696
71171SOL    HW115410   7.876   9.634  10.627
71171SOL    HW215411   7.884   9.592  10.772
71172SOL     OW15412   2.150   4.817   6.920
71172SOL    HW115413   2.190   4.847   7.001
71172SOL    HW215414   2.123   4.727   6.939
71173SOL     OW15415   0.344  11.071   6.141
71173SOL    HW115416   0.266  11.112   6.104
71173SOL    HW215417   0.310  11.014   6.211
71174SOL     OW15418  12.667   5.743  13.058
71174SOL    HW115419  12.648   5.831  13.024
71174SOL    HW215420  12.752   5.752  13.101
71175SOL     OW15421   8.337   7.274  13.977
71175SOL    HW115422   8.406   7.294  13.913
71175SOL    HW215423   8.327   7.356  14.026
71176SOL     OW15424   8.417   4.422  14.266
71176SOL    HW115425   8.346   4.477  14.300
71176SOL    HW215426   8.494   4.450  14.316
71177SOL     OW15427  12.407  11.641   3.234
71177SOL    HW115428  12.405  11.653   3.139
71177SOL    HW215429  12.403  11.546   3.245
71178SOL     OW15430   0.309   1.231  13.702
71178SOL    HW115431   0.401   1.237  13.679
71178SOL    HW215432   0.269   1.184  13.628
71179SOL     OW15433   1.802   3.267   2.764
71179SOL    HW115434   1.856   3.271   2.685
71179SOL    HW215435   1.843   3.329   2.825
71180SOL     OW15436   4.719   5.615  14.540
71180SOL    HW115437   4.781   5.681  14.509
71180SOL    HW215438   4.656   5.664  14.593
71181SOL     OW15439   2.083   8.647  10.700
71181SOL    HW115440   2.071   8.656  10.794
71181SOL    HW215441   2.110   8.734  10.671
71182SOL     OW15442  12.984   5.759   0.062
71182SOL    HW115443  12.922   5.696   0.098
71182SOL    HW215444  12.931   5.816   0.007
71183SOL     OW15445   9.643  12.852   3.477
71183SOL    HW115446   9.652  12.944   3.500
71183SOL    HW215447   9.731  12.816   3.488
71184SOL     OW15448   7.896   2.394   8.161
71184SOL    HW115449   7.878   2.473   8.110
71184SOL    HW215450   7.991   2.386   8.159
71185SOL     OW15451   8.079   7.514   0.907
71185SOL    HW115452   8.104   7.422   0.898
71185SOL    HW215453   7.983   7.514   0.902
71186SOL     OW15454  10.318   0.917   4.176
71186SOL    HW115455  10.406   0.939   4.147
71186SOL    HW215456  10.331   0.872   4.259
71187SOL     OW15457  11.686  10.722   7.334
71187SOL    HW115458  11.697  10.652   7.398
71187SOL    HW215459  11.621  10.780   7.372
71188SOL     OW15460   3.083   7.348   4.900
71188SOL    HW115461   3.123   7.340   4.814
71188SOL    HW215462   3.155   7.377   4.957
71189SOL     OW15463  14.488   1.081  14.755
71189SOL    HW115464  14.493   1.025  14.833
71189SOL    HW215465  14.580   1.093  14.729
71190SOL     OW15466   1.019  13.824   7.429
71190SOL    HW115467   0.996  13.765   7.357
71190SOL    HW215468   1.056  13.767   7.496
71191SOL     OW15469   1.189   4.066   4.235
71191SOL    HW115470   1.098   4.094   4.225
71191SOL    HW215471   1.183   3.974   4.261
71192SOL     OW15472   7.333  12.552   3.211
71192SOL    HW115473   7.408  12.564   3.269
71192SOL    HW215474   7.362  12.488   3.147
71193SOL     OW15475   9.776   7.834   4.021
71193SOL    HW115476   9.683   7.820   4.039
71193SOL    HW215477   9.779   7.884   3.940
71194SOL     OW15478   0.949  10.033   0.932
71194SOL    HW115479   1.000  10.004   0.857
71194SOL    HW215480   0.946   9.957   0.990
71195SOL     OW15481  12.359  12.184   9.634
71195SOL    HW115482  12.312  12.106   9.662
71195SOL    HW215483  12.292  12.253   9.632
71196SOL     OW15484   1.250   6.796   8.635
71196SOL    HW115485   1.242   6.828   8.725
71196SOL    HW215486   1.336   6.753   8.633
71197SOL     OW15487   8.877   4.090   4.365
71197SOL    HW115488   8.869   4.015   4.306
71197SOL    HW215489   8.971   4.109   4.368
71198SOL     OW15490   0.093  12.699   2.730
71198SOL    HW115491   0.009  12.666   2.699
71198SOL    HW215492   0.070  12.763   2.798
71199SOL     OW15493   9.318  11.420   0.455
71199SOL    HW115494   9.326  11.354   0.524
71199SOL    HW215495   9.281  11.373   0.381
71200SOL     OW15496  11.860  13.489   2.226
71200SOL    HW115497  11.938  13.522   2.270
71200SOL    HW215498  11.837  13.409   2.273
71201SOL     OW15499   8.459   4.418   9.042
71201SOL    HW115500   8.411   4.417   9.125
71201SOL    HW215501   8.486   4.510   9.032
71202SOL     OW15502  14.500   7.090  11.305
71202SOL    HW115503  14.471   7.145  11.233
71202SOL    HW215504  14.423   7.038  11.329
71203SOL     OW15505   6.204   2.179   6.310
71203SOL    HW115506   6.191   2.267   6.345
71203SOL    HW215507   6.188   2.188   6.216
71204SOL     OW15508   1.571   9.923   0.365
71204SOL    HW115509   1.548   9.997   0.309
71204SOL    HW215510   1.571   9.847   0.306
71205SOL     OW15511  10.264   6.562  12.748
71205SOL    HW115512  10.231   6.491  12.693
71205SOL    HW215513  10.191   6.624  12.753
71206SOL     OW15514   1.400   4.924   6.220
71206SOL    HW115515   1.330   4.860   6.203
71206SOL    HW215516   1.386   4.992   6.155
71207SOL     OW15517  14.206   7.951   0.118
71207SOL    HW115518  14.211   7.878   0.180
71207SOL    HW215519  14.194   7.909   0.033
71208SOL     OW15520  11.524   3.745  14.356
71208SOL    HW115521  11.600   3.688  14.346
71208SOL    HW215522  11.559   3.833  14.347
71209SOL     OW15523  12.916  13.924  14.765
71209SOL    HW115524  12.852  13.958  14.702
71209SOL    HW215525  12.881  13.839  14.791
71210SOL     OW15526  14.678   0.857  14.477
71210SOL    HW115527  14.760   0.832  14.435
71210SOL    HW215528  14.650   0.779  14.524
71211SOL     OW15529  12.632  14.457   9.512
71211SOL    HW115530  12.636  14.552   9.510
71211SOL    HW215531  12.715  14.429   9.472
71212SOL     OW15532  14.173   6.478  10.665
71212SOL    HW115533  14.179   6.551  10.727
71212SOL    HW215534  14.265   6.455  10.647
71213SOL     OW15535   5.620  12.103  14.425
71213SOL    HW115536   5.564  12.040  14.380
71213SOL    HW215537   5.589  12.188  14.396
71214SOL     OW15538  11.832   7.856   1.219
71214SOL    HW115539  11.824   7.901   1.134
71214SOL    HW215540  11.902   7.903   1.264
71215SOL     OW15541  11.968   7.960   0.071
71215SOL    HW115542  11.977   7.951   0.166
71215SOL    HW215543  11.916   7.884   0.045
71216SOL     OW15544  11.068   6.182   4.653
71216SOL    HW115545  10.973   6.173   4.658
71216SOL    HW215546  11.099   6.147   4.737
71217SOL     OW15547  14.578   0.169   9.833
71217SOL    HW115548  14.489   0.200   9.812
71217SOL    HW215549  14.563   0.089   9.884
71218SOL     OW15550   9.065   7.582  11.566
71218SOL    HW115551   9.062   7.610  11.474
71218SOL    HW215552   9.130   7.512  11.567
71219SOL     OW15553   2.148   1.991   4.237
71219SOL    HW115554   2.220   1.931   4.217
71219SOL    HW215555   2.158   2.063   4.175
71220SOL     OW15556   4.200  11.486  10.718
71220SOL    HW115557   4.241  11.455  10.799
71220SOL    HW215558   4.110  11.453  10.723
71221SOL     OW15559  10.747   5.915   1.458
71221SOL    HW115560  10.755   5.823   1.432
71221SOL    HW215561  10.764   5.964   1.378
71222SOL     OW15562  11.797   7.070   9.454
71222SOL    HW115563  11.823   6.983   9.427
71222SOL    HW215564  11.850   7.129   9.400
71223SOL     OW15565  11.028  11.680  10.056
71223SOL    HW115566  11.058  11.649   9.971
71223SOL    HW215567  11.035  11.775  10.051
71224SOL     OW15568   2.507   7.078   3.833
71224SOL    HW115569   2.506   6.983   3.830
71224SOL    HW215570   2.599   7.102   3.818
71225SOL     OW15571   6.552   1.385   3.979
71225SOL    HW115572   6.496   1.386   3.901
71225SOL    HW215573   6.641   1.377   3.944
71226SOL     OW15574   7.299   8.523  10.460
71226SOL    HW115575   7.364   8.539  10.392
71226SOL    HW215576   7.230   8.587  10.442
71227SOL     OW15577   2.105  10.361  11.856
71227SOL    HW115578   2.037  10.315  11.906
71227SOL    HW215579   2.106  10.449  11.892
71228SOL     OW15580   0.324   8.642   2.082
71228SOL    HW115581   0.358   8.718   2.035
71228SOL    HW215582   0.251   8.676   2.134
71229SOL     OW15583   9.740   5.704  10.300
71229SOL    HW115584   9.686   5.659  10.366
71229SOL    HW215585   9.821   5.653  10.298
71230SOL     OW15586  11.928   5.820   9.069
71230SOL    HW115587  11.971   5.825   9.154
71230SOL    HW215588  11.857   5.883   9.074
71231SOL     OW15589  13.914  10.426  13.537
71231SOL    HW115590  13.819  10.422  13.543
71231SOL    HW215591  13.936  10.361  13.470
71232SOL     OW15592   2.533  11.714   0.984
71232SOL    HW115593   2.624  11.698   1.010
71232SOL    HW215594   2.523  11.668   0.901
71233SOL     OW15595   0.243   5.951  13.969
71233SOL    HW115596   0.244   5.966  14.064
71233SOL    HW215597   0.160   5.991  13.940
71234SOL     OW15598   4.219  13.342   3.471
71234SOL    HW115599   4.238  13.299   3.387
71234SOL    HW215600   4.215  13.270   3.534
71235SOL     OW15601  11.706   3.578   6.673
71235SOL    HW115602  11.710   3.673   6.670
71235SOL    HW215603  11.736   3.549   6.587
71236SOL     OW15604  10.873  10.921   7.489
71236SOL    HW115605  10.921  11.000   7.514
71236SOL    HW215606  10.938  10.867   7.443
71237SOL     OW15607   8.067   7.311  11.391
71237SOL    HW115608   8.005   7.242  11.369
71237SOL    HW215609   8.015   7.391  11.390
71238SOL     OW15610   0.981   0.209   2.231
71238SOL    HW115611   1.006   0.298   2.203
71238SOL    HW215612   1.009   0.153   2.159
71239SOL     OW15613   2.622   2.137  10.742
71239SOL    HW115614   2.578   2.133  10.826
71239SOL    HW215615   2.702   2.188  10.759
71240SOL     OW15616   3.066   2.351   0.418
71240SOL    HW115617   3.135   2.413   0.438
71240SOL    HW215618   3.005   2.399   0.361
71241SOL     OW15619  14.381   0.514  13.292
71241SOL    HW115620  14.399   0.439  13.234
71241SOL    HW215621  14.407   0.590  13.240
71242SOL     OW15622   9.889   5.031  14.593
71242SOL    HW115623   9.944   5.015  14.516
71242SOL    HW215624   9.851   5.117  14.578
71243SOL     OW15625  13.929  11.347   5.290
71243SOL    HW115626  14.008  11.293   5.283
71243SOL    HW215627  13.864  11.290   5.331
71244SOL     OW15628   3.200   2.414  11.710
71244SOL    HW115629   3.143   2.447  11.641
71244SOL    HW215630   3.183   2.472  11.784
71245SOL     OW15631   4.165   3.059   2.651
71245SOL    HW115632   4.096   3.113   2.689
71245SOL    HW215633   4.181   3.097   2.564
71246SOL     OW15634   1.292   2.736   3.195
71246SOL    HW115635   1.265   2.758   3.106
71246SOL    HW215636   1.373   2.785   3.209
71247SOL     OW15637   5.287   2.861   1.041
71247SOL    HW115638   5.299   2.954   1.057
71247SOL    HW215639   5.362   2.835   0.988
71248SOL     OW15640   3.619   1.092   0.624
71248SOL    HW115641   3.696   1.069   0.572
71248SOL    HW215642   3.616   1.028   0.694
71249SOL     OW15643   6.081  11.053   9.205
71249SOL    HW115644   6.111  11.114   9.137
71249SOL    HW215645   6.039  11.108   9.270
71250SOL     OW15646  14.785  13.218  14.603
71250SOL    HW115647  14.813  13.279  14.535
71250SOL    HW215648  14.823  13.253  14.684
71251SOL     OW15649  14.131   8.775   7.435
71251SOL    HW115650  14.212   8.818   7.408
71251SOL    HW215651  14.140   8.685   7.401
71252SOL     OW15652  11.574   2.434  13.291
71252SOL    HW115653  11.663   2.408  13.268
71252SOL    HW215654  11.551   2.501  13.226
71253SOL     OW15655   7.839   1.153   4.159
71253SOL    HW115656   7.778   1.200   4.215
71253SOL    HW215657   7.910   1.125   4.217
71254SOL     OW15658  10.034  13.742   8.310
71254SOL    HW115659  10.107  13.688   8.280
71254SOL    HW215660   9.983  13.685   8.367
71255SOL     OW15661   2.895  13.055   5.642
71255SOL    HW115662   2.847  13.127   5.683
71255SOL    HW215663   2.828  13.001   5.601
71256SOL     OW15664   1.102   2.601   3.392
71256SOL    HW115665   1.142   2.552   3.464
71256SOL    HW215666   1.175   2.650   3.353
71257SOL     OW15667   2.061  12.654   0.067
71257SOL    HW115668   2.066  12.601  14.868
71257SOL    HW215669   2.146  12.641   0.110
71258SOL     OW15670   3.102  11.480  11.950
71258SOL    HW115671   3.016  11.451  11.982
71258SOL    HW215672   3.162  11.411  11.976
71259SOL     OW15673   6.282  14.816   3.427
71259SOL    HW115674   6.220  14.782   3.491
71259SOL    HW215675   6.232  14.878   3.375
71260SOL     OW15676   0.122   8.921   7.864
71260SOL    HW115677   0.190   8.921   7.931
71260SOL    HW215678   0.084   8.834   7.867
71261SOL     OW15679  10.395   0.282   5.747
71261SOL    HW115680  10.438   0.332   5.817
71261SOL    HW215681  10.387   0.345   5.675
71262SOL     OW15682  10.032   8.630   6.814
71262SOL    HW115683   9.999   8.716   6.840
71262SOL    HW215684  10.052   8.639   6.721
71263SOL     OW15685   5.166  12.890   6.539
71263SOL    HW115686   5.099  12.853   6.597
71263SOL    HW215687   5.193  12.817   6.484
71264SOL     OW15688  10.921   5.311   8.739
71264SOL    HW115689  10.884   5.234   8.782
71264SOL    HW215690  10.895   5.301   8.647
71265SOL     OW15691   6.104  13.906   0.132
71265SOL    HW115692   6.153  13.946   0.204
71265SOL    HW215693   6.111  13.969   0.060
71266SOL     OW15694   9.325   0.167  11.472
71266SOL    HW115695   9.280   0.116  11.539
71266SOL    HW215696   9.397   0.111  11.443
71267SOL     OW15697   8.252   1.248  13.205
71267SOL    HW115698   8.337   1.245  13.249
71267SOL    HW215699   8.190   1.273  13.274
71268SOL     OW15700   8.195   9.324   2.352
71268SOL    HW115701   8.194   9.248   2.294
71268SOL    HW215702   8.225   9.396   2.296
71269SOL     OW15703  10.998   2.273  12.006
71269SOL    HW115704  10.960   2.207  11.948
71269SOL    HW215705  11.021   2.346  11.947
71270SOL     OW15706   9.957   4.178   4.237
71270SOL    HW115707  10.014   4.188   4.313
71270SOL    HW215708  10.005   4.219   4.165
71271SOL     OW15709  10.188   0.979   5.612
71271SOL    HW115710  10.205   1.071   5.631
71271SOL    HW215711  10.247   0.958   5.540
71272SOL     OW15712   2.094  14.356  13.353
71272SOL    HW115713   2.153  14.318  13.287
71272SOL    HW215714   2.075  14.283  13.412
71273SOL     OW15715   9.340  13.451   4.843
71273SOL    HW115716   9.404  13.520   4.826
71273SOL    HW215717   9.255  13.497   4.841
71274SOL     OW15718   9.146  11.564   9.961
71274SOL    HW115719   9.111  11.573   9.873
71274SOL    HW215720   9.159  11.654   9.991
71275SOL     OW15721  14.574   5.523   9.223
71275SOL    HW115722  14.530   5.562   9.148
71275SOL    HW215723  14.663   5.559   9.220
71276SOL     OW15724   1.949   1.109  10.090
71276SOL    HW115725   1.910   1.160  10.161
71276SOL    HW215726   1.964   1.023  10.128
71277SOL     OW15727   0.641   8.343   4.231
71277SOL    HW115728   0.682   8.289   4.163
71277SOL    HW215729   0.710   8.402   4.261
71278SOL     OW15730   3.527   1.240   9.432
71278SOL    HW115731   3.574   1.257   9.513
71278SOL    HW215732   3.454   1.302   9.432
71279SOL     OW15733  10.406   2.732   6.432
71279SOL    HW115734  10.319   2.691   6.437
71279SOL    HW215735  10.422   2.743   6.338
71280SOL     OW15736   4.395   9.292  13.911
71280SOL    HW115737   4.475   9.241  13.927
71280SOL    HW215738   4.378   9.282  13.818
71281SOL     OW15739   6.889   4.669  12.186
71281SOL    HW115740   6.902   4.647  12.279
71281SOL    HW215741   6.818   4.611  12.157
71282SOL     OW15742   2.769   9.721  10.450
71282SOL    HW115743   2.719   9.773  10.386
71282SOL    HW215744   2.842   9.778  10.474
71283SOL     OW15745   2.901   1.159  14.431
71283SOL    HW115746   2.866   1.221  14.496
71283SOL    HW215747   2.887   1.073  14.471
71284SOL     OW15748   7.026  13.944  14.683
71284SOL    HW115749   6.990  14.019  14.729
71284SOL    HW215750   7.024  13.969  14.590
71285SOL     OW15751   6.778   9.667  10.297
71285SOL    HW115752   6.720   9.703  10.231
71285SOL    HW215753   6.742   9.581  10.317
71286SOL     OW15754   8.307   4.654   2.272
71286SOL    HW115755   8.361   4.657   2.193
71286SOL    HW215756   8.242   4.723   2.260
71287SOL     OW15757  11.456   3.318   2.529
71287SOL    HW115758  11.458   3.360   2.443
71287SOL    HW215759  11.491   3.231   2.514
71288SOL     OW15760  10.495   9.050   9.688
71288SOL    HW115761  10.455   9.133   9.662
71288SOL    HW215762  10.586   9.056   9.659
71289SOL     OW15763   8.002   2.595  10.740
71289SOL    HW115764   8.031   2.565  10.654
71289SOL    HW215765   7.907   2.600  10.733
71290SOL     OW15766  12.363   6.748   8.384
71290SOL    HW115767  12.377   6.806   8.458
71290SOL    HW215768  12.268   6.735   8.380
71291SOL     OW15769  10.489   1.271   1.901
71291SOL    HW115770  10.459   1.198   1.848
71291SOL    HW215771  10.427   1.342   1.882
71292SOL     OW15772   1.807  10.121   9.860
71292SOL    HW115773   1.761  10.055   9.912
71292SOL    HW215774   1.862  10.167   9.924
71293SOL     OW15775  13.571   2.429   5.030
71293SOL    HW115776  13.570   2.520   5.062
71293SOL    HW215777  13.660   2.417   4.998
71294SOL     OW15778   6.676   5.278  14.612
71294SOL    HW115779   6.713   5.363  14.586
71294SOL    HW215780   6.618   5.254  14.541
71295SOL     OW15781   4.097   0.535   4.589
71295SOL    HW115782   4.146   0.612   4.617
71295SOL    HW215783   4.007   0.552   4.617
71296SOL     OW15784  10.741  13.205   1.463
71296SOL    HW115785  10.668  13.226   1.404
71296SOL    HW215786  10.703  13.146   1.528
71297SOL     OW15787   1.058   8.963   2.249
71297SOL    HW115788   1.047   8.874   2.216
71297SOL    HW215789   1.041   8.957   2.343
71298SOL     OW15790   7.950   4.662   8.333
71298SOL    HW115791   7.911   4.578   8.356
71298SOL    HW215792   7.883   4.727   8.357
71299SOL     OW15793   4.675   5.914   4.838
71299SOL    HW115794   4.604   5.916   4.901
71299SOL    HW215795   4.753   5.893   4.889
71300SOL     OW15796   5.164  12.678  10.126
71300SOL    HW115797   5.097  12.716  10.183
71300SOL    HW215798   5.165  12.585  10.147
71301SOL     OW15799  12.564  11.703   8.445
71301SOL    HW115800  12.631  11.650   8.489
71301SOL    HW215801  12.481  11.666   8.477
71302SOL     OW15802   7.893   7.302   7.792
71302SOL    HW115803   7.903   7.223   7.739
71302SOL    HW215804   7.902   7.271   7.882
71303SOL     OW15805  13.198   3.541   3.964
71303SOL    HW115806  13.273   3.571   3.913
71303SOL    HW215807  13.236   3.492   4.036
71304SOL     OW15808   0.934  14.120   9.924
71304SOL    HW115809   0.971  14.165   9.847
71304SOL    HW215810   1.001  14.056   9.948
71305SOL     OW15811   2.342   7.107   5.605
71305SOL    HW115812   2.309   7.127   5.692
71305SOL    HW215813   2.370   7.191   5.570
71306SOL     OW15814   8.302  10.315   0.465
71306SOL    HW115815   8.260  10.267   0.394
71306SOL    HW215816   8.393  10.286   0.464
71307SOL     OW15817  12.867   8.374  13.604
71307SOL    HW115818  12.903   8.296  13.561
71307SOL    HW215819  12.940   8.410  13.654
71308SOL     OW15820  12.954   3.303   6.951
71308SOL    HW115821  13.040   3.288   6.990
71308SOL    HW215822  12.957   3.258   6.867
71309SOL     OW15823   5.179   4.809   8.332
71309SOL    HW115824   5.177   4.901   8.357
71309SOL    HW215825   5.131   4.805   8.250
71310SOL     OW15826   0.051  12.244  11.713
71310SOL    HW115827   0.031  12.151  11.703
71310SOL    HW215828  14.850  12.282  11.744
71311SOL     OW15829   9.556   2.062   8.466
71311SOL    HW115830   9.552   1.967   8.463
71311SOL    HW215831   9.492   2.091   8.400
71312SOL     OW15832  13.801   7.702   5.521
71312SOL    HW115833  13.734   7.765   5.494
71312SOL    HW215834  13.758   7.616   5.510
71313SOL     OW15835   0.423  13.855   3.685
71313SOL    HW115836   0.508  13.874   3.646
71313SOL    HW215837   0.430  13.885   3.776
71314SOL     OW15838   2.881   4.274  11.889
71314SOL    HW115839   2.868   4.314  11.803
71314SOL    HW215840   2.895   4.181  11.871
71315SOL     OW15841   6.822   0.521   4.395
71315SOL    HW115842   6.756   0.584   4.369
71315SOL    HW215843   6.774   0.454   4.444
71316SOL     OW15844  10.657   1.975   3.029
71316SOL    HW115845  10.564   1.980   3.006
71316SOL    HW215846  10.666   1.890   3.071
71317SOL     OW15847   9.853   3.658  14.064
71317SOL    HW115848   9.763   3.676  14.039
71317SOL    HW215849   9.860   3.562  14.061
71318SOL     OW15850  11.782   1.351   9.772
71318SOL    HW115851  11.714   1.287   9.793
71318SOL    HW215852  11.842   1.347   9.847
71319SOL     OW15853   9.459  13.876   8.929
71319SOL    HW115854   9.426  13.953   8.883
71319SOL    HW215855   9.381  13.831   8.960
71320SOL     OW15856   7.536   1.918   1.838
71320SOL    HW115857   7.552   1.905   1.932
71320SOL    HW215858   7.448   1.883   1.825
71321SOL     OW15859   2.497   2.248   5.539
71321SOL    HW115860   2.496   2.342   5.560
71321SOL    HW215861   2.476   2.245   5.445
71322SOL     OW15862   7.436  14.187   6.417
71322SOL    HW115863   7.458  14.273   6.452
71322SOL    HW215864   7.342  14.191   6.400
71323SOL     OW15865   9.885   4.465   6.054
71323SOL    HW115866   9.906   4.425   6.138
71323SOL    HW215867   9.914   4.399   5.989
71324SOL     OW15868   6.840  11.513   7.876
71324SOL    HW115869   6.808  11.603   7.885
71324SOL    HW215870   6.933  11.522   7.859
71325SOL     OW15871  10.282   8.102   1.858
71325SOL    HW115872  10.308   8.082   1.948
71325SOL    HW215873  10.343   8.053   1.804
71326SOL     OW15874   1.363   8.167   0.975
71326SOL    HW115875   1.449   8.205   0.990
71326SOL    HW215876   1.373   8.075   0.999
71327SOL     OW15877  10.392   3.187   9.511
71327SOL    HW115878  10.480   3.157   9.486
71327SOL    HW215879  10.365   3.125   9.579
71328SOL     OW15880   5.000   6.842  11.585
71328SOL    HW115881   4.912   6.812  11.604
71328SOL    HW215882   5.037   6.865  11.670
71329SOL     OW15883   5.690  13.005   5.924
71329SOL    HW115884   5.732  12.920   5.916
71329SOL    HW215885   5.611  12.989   5.977
71330SOL     OW15886   2.453   4.515   0.555
71330SOL    HW115887   2.397   4.486   0.483
71330SOL    HW215888   2.476   4.605   0.533
71331SOL     OW15889   4.440   5.656   0.823
71331SOL    HW115890   4.436   5.725   0.757
71331SOL    HW215891   4.403   5.695   0.902
71332SOL     OW15892   1.687   0.198  10.918
71332SOL    HW115893   1.762   0.243  10.881
71332SOL    HW215894   1.611   0.240  10.879
71333SOL     OW15895   3.735   6.641  14.640
71333SOL    HW115896   3.759   6.730  14.617
71333SOL    HW215897   3.675   6.613  14.570
71334SOL     OW15898   8.995  12.013  13.489
71334SOL    HW115899   9.036  12.091  13.451
71334SOL    HW215900   9.009  12.023  13.583
71335SOL     OW15901  11.783   0.548   5.000
71335SOL    HW115902  11.867   0.561   4.957
71335SOL    HW215903  11.796   0.580   5.090
71336SOL     OW15904   1.220  13.330   9.731
71336SOL    HW115905   1.184  13.342   9.643
71336SOL    HW215906   1.313  13.350   9.721
71337SOL     OW15907   8.996   3.963   7.566
71337SOL    HW115908   9.016   3.885   7.515
71337SOL    HW215909   8.912   3.943   7.608
71338SOL     OW15910   2.768  13.911  11.229
71338SOL    HW115911   2.796  13.876  11.313
71338SOL    HW215912   2.721  13.992  11.252
71339SOL     OW15913   2.271  12.384   9.932
71339SOL    HW115914   2.261  12.354   9.842
71339SOL    HW215915   2.226  12.319   9.985
71340SOL     OW15916   8.973   4.124  13.252
71340SOL    HW115917   8.943   4.055  13.193
71340SOL    HW215918   8.941   4.205  13.213
71341SOL     OW15919   7.378   8.995   5.862
71341SOL    HW115920   7.430   8.916   5.872
71341SOL    HW215921   7.299   8.979   5.913
71342SOL     OW15922   6.111   9.676   3.102
71342SOL    HW115923   6.051   9.650   3.032
71342SOL    HW215924   6.197   9.647   3.072
71343SOL     OW15925   7.710  11.832   2.333
71343SOL    HW115926   7.701  11.919   2.371
71343SOL    HW215927   7.804  11.815   2.332
71344SOL     OW15928   5.171  14.193  11.103
71344SOL    HW115929   5.225  14.269  11.125
71344SOL    HW215930   5.120  14.221  11.027
71345SOL     OW15931   1.821   8.120   1.903
71345SOL    HW115932   1.799   8.035   1.865
71345SOL    HW215933   1.888   8.155   1.844
71346SOL     OW15934  10.413   5.950  12.109
71346SOL    HW115935  10.415   5.905  12.194
71346SOL    HW215936  10.321   5.956  12.087
71347SOL     OW15937  12.942   5.293   7.471
71347SOL    HW115938  12.917   5.203   7.489
71347SOL    HW215939  12.867   5.345   7.498
71348SOL     OW15940   2.048   3.508  12.588
71348SOL    HW115941   2.087   3.549  12.665
71348SOL    HW215942   2.044   3.577  12.523
71349SOL     OW15943  10.553   7.581   9.217
71349SOL    HW115944  10.597   7.515   9.165
71349SOL    HW215945  10.460   7.565   9.203
71350SOL     OW15946   1.588   7.750   8.112
71350SOL    HW115947   1.682   7.742   8.131
71350SOL    HW215948   1.564   7.667   8.072
71351SOL     OW15949   1.304  11.278   3.187
71351SOL    HW115950   1.277  11.252   3.098
71351SOL    HW215951   1.382  11.226   3.205
71352SOL     OW15952  13.729   1.729   9.832
71352SOL    HW115953  13.749   1.636   9.841
71352SOL    HW215954  13.638   1.737   9.859
71353SOL     OW15955   6.704   8.325  10.270
71353SOL    HW115956   6.638   8.391  10.291
71353SOL    HW215957   6.686   8.301  10.179
71354SOL     OW15958  10.006  12.173  11.738
71354SOL    HW115959  10.033  12.112  11.806
71354SOL    HW215960  10.086  12.194  11.690
71355SOL     OW15961   5.281   0.702  11.969
71355SOL    HW115962   5.277   0.787  12.013
71355SOL    HW215963   5.192   0.689  11.935
71356SOL     OW15964   0.598   5.577  13.913
71356SOL    HW115965   0.644   5.560  13.995
71356SOL    HW215966   0.543   5.653  13.932
71357SOL     OW15967   9.317   0.617   9.237
71357SOL    HW115968   9.277   0.595   9.152
71357SOL    HW215969   9.359   0.536   9.265
71358SOL     OW15970  14.868  12.918   5.653
71358SOL    HW115971   0.009  12.952   5.566
71358SOL    HW215972  14.866  12.995   5.710
71359SOL     OW15973  11.835   3.947   8.208
71359SOL    HW115974  11.780   3.961   8.131
71359SOL    HW215975  11.912   4.002   8.192
71360SOL     OW15976  12.883   0.255  14.174
71360SOL    HW115977  12.840   0.203  14.241
71360SOL    HW215978  12.961   0.291  14.216
71361SOL     OW15979   2.961   2.783  10.946
71361SOL    HW115980   2.889   2.799  10.885
71361SOL    HW215981   2.923   2.724  11.012
71362SOL     OW15982   3.380   0.453  14.458
71362SOL    HW115983   3.339   0.380  14.412
71362SOL    HW215984   3.368   0.528  14.400
71363SOL     OW15985  12.787   3.738   2.275
71363SOL    HW115986  12.744   3.770   2.195
71363SOL    HW215987  12.868   3.789   2.280
71364SOL     OW15988  10.479   5.794   9.572
71364SOL    HW115989  10.544   5.864   9.573
71364SOL    HW215990  10.529   5.715   9.551
71365SOL     OW15991   6.302  14.144  13.840
71365SOL    HW115992   6.351  14.196  13.905
71365SOL    HW215993   6.211  14.168  13.855
71366SOL     OW15994  14.760  11.414   4.715
71366SOL    HW115995  14.774  11.411   4.810
71366SOL    HW215996  14.667  11.433   4.705
71367SOL     OW15997   9.819   1.392  12.779
71367SOL    HW115998   9.893   1.413  12.722
71367SOL    HW215999   9.757   1.464  12.765
71368SOL     OW16000   4.333   4.621  12.505
71368SOL    HW116001   4.253   4.656  12.466
71368SOL    HW216002   4.400   4.688  12.487
71369SOL     OW16003   4.961   6.352  14.433
71369SOL    HW116004   4.886   6.329  14.377
71369SOL    HW216005   5.025   6.283  14.416
71370SOL     OW16006  10.357  11.837   1.785
71370SOL    HW116007  10.381  11.769   1.848
71370SOL    HW216008  10.437  11.888   1.773
71371SOL     OW16009  11.395   3.345  10.970
71371SOL    HW116010  11.431   3.368  10.884
71371SOL    HW216011  11.433   3.409  11.030
71372SOL     OW16012  14.624   4.855   6.538
71372SOL    HW116013  14.654   4.897   6.618
71372SOL    HW216014  14.673   4.773   6.534
71373SOL     OW16015   0.410  12.373   3.738
71373SOL    HW116016   0.430  12.322   3.660
71373SOL    HW216017   0.388  12.308   3.804
71374SOL     OW16018  13.925   5.614   3.339
71374SOL    HW116019  13.913   5.687   3.278
71374SOL    HW216020  13.907   5.652   3.425
71375SOL     OW16021   2.752   6.379  11.809
71375SOL    HW116022   2.741   6.345  11.898
71375SOL    HW216023   2.699   6.321  11.755
71376SOL     OW16024  11.369   1.969   6.712
71376SOL    HW116025  11.335   2.050   6.750
71376SOL    HW216026  11.384   1.990   6.620
71377SOL     OW16027   2.350  12.831   9.979
71377SOL    HW116028   2.425  12.787  10.020
71377SOL    HW216029   2.370  12.924   9.987
71378SOL     OW16030   4.374   1.416   8.494
71378SOL    HW116031   4.346   1.326   8.475
71378SOL    HW216032   4.456   1.405   8.543
71379SOL     OW16033   4.437   0.418  13.474
71379SOL    HW116034   4.349   0.406  13.439
71379SOL    HW216035   4.431   0.386  13.564
71380SOL     OW16036  11.415   1.136   3.936
71380SOL    HW116037  11.325   1.113   3.956
71380SOL    HW216038  11.409   1.215   3.881
71381SOL     OW16039   3.276   7.002   4.929
71381SOL    HW116040   3.356   6.963   4.893
71381SOL    HW216041   3.276   6.975   5.021
71382SOL     OW16042  10.040   7.075   0.609
71382SOL    HW116043  10.119   7.063   0.663
71382SOL    HW216044  10.038   7.168   0.589
71383SOL     OW16045   0.777  13.296  14.339
71383SOL    HW116046   0.718  13.236  14.383
71383SOL    HW216047   0.720  13.345  14.279
71384SOL     OW16048   8.469   6.245   4.111
71384SOL    HW116049   8.448   6.313   4.047
71384SOL    HW216050   8.387   6.233   4.161
71385SOL     OW16051   2.115   4.175   9.916
71385SOL    HW116052   2.183   4.199   9.853
71385SOL    HW216053   2.045   4.239   9.900
71386SOL     OW16054   4.389   8.783  13.233
71386SOL    HW116055   4.436   8.767  13.315
71386SOL    HW216056   4.429   8.863  13.198
71387SOL     OW16057   6.191   0.553   6.289
71387SOL    HW116058   6.260   0.592   6.342
71387SOL    HW216059   6.236   0.522   6.210
71388SOL     OW16060   1.306   0.155  10.688
71388SOL    HW116061   1.377   0.116  10.637
71388SOL    HW216062   1.350   0.192  10.764
71389SOL     OW16063   7.680  11.415   8.163
71389SOL    HW116064   7.643  11.488   8.114
71389SOL    HW216065   7.758  11.390   8.113
71390SOL     OW16066  12.450  14.730  14.023
71390SOL    HW116067  12.495  14.647  14.007
71390SOL    HW216068  12.507  14.796  13.983
71391SOL     OW16069  11.143   1.710  13.436
71391SOL    HW116070  11.066   1.749  13.396
71391SOL    HW216071  11.208   1.780  13.435
71392SOL     OW16072  10.042   3.441   4.075
71392SOL    HW116073  10.129   3.472   4.051
71392SOL    HW216074  10.022   3.373   4.010
71393SOL     OW16075   6.906  12.296   9.057
71393SOL    HW116076   6.891  12.293   9.151
71393SOL    HW216077   6.846  12.231   9.021
71394SOL     OW16078  11.122   2.257   2.539
71394SOL    HW116079  11.121   2.351   2.521
71394SOL    HW216080  11.059   2.245   2.609
71395SOL     OW16081   6.786   2.592   6.656
71395SOL    HW116082   6.764   2.503   6.630
71395SOL    HW216083   6.717   2.618   6.718
71396SOL     OW16084  11.515  12.606   9.780
71396SOL    HW116085  11.478  12.522   9.807
71396SOL    HW216086  11.591  12.582   9.726
71397SOL     OW16087   8.306   9.570   8.121
71397SOL    HW116088   8.350   9.647   8.087
71397SOL    HW216089   8.353   9.496   8.081
71398SOL     OW16090   6.689   7.491   1.074
71398SOL    HW116091   6.713   7.556   1.140
71398SOL    HW216092   6.642   7.541   1.008
71399SOL     OW16093  10.401   3.473  13.294
71399SOL    HW116094  10.402   3.403  13.229
71399SOL    HW216095  10.493   3.488  13.316
71400SOL     OW16096   1.291   6.359  14.090
71400SOL    HW116097   1.288   6.438  14.144
71400SOL    HW216098   1.250   6.386  14.007
71401SOL     OW16099   7.068  10.095   5.479
71401SOL    HW116100   7.144  10.147   5.452
71401SOL    HW216101   7.101  10.005   5.483
71402SOL     OW16102   8.360   8.634   0.491
71402SOL    HW116103   8.324   8.546   0.488
71402SOL    HW216104   8.444   8.624   0.536
71403SOL     OW16105  13.865  14.606   3.003
71403SOL    HW116106  13.922  14.678   2.979
71403SOL    HW216107  13.789  14.647   3.043
71404SOL     OW16108  12.914   4.505  10.876
71404SOL    HW116109  12.985   4.546  10.925
71404SOL    HW216110  12.834   4.532  10.922
71405SOL     OW16111  10.104  12.718   0.087
71405SOL    HW116112  10.013  12.737   0.110
71405SOL    HW216113  10.100  12.686  14.877
71406SOL     OW16114   6.458  10.339   7.127
71406SOL    HW116115   6.416  10.418   7.091
71406SOL    HW216116   6.482  10.364   7.217
71407SOL     OW16117   6.871  11.865  10.522
71407SOL    HW116118   6.938  11.815  10.569
71407SOL    HW216119   6.907  11.953  10.516
71408SOL     OW16120   1.336   3.321   7.548
71408SOL    HW116121   1.251   3.285   7.521
71408SOL    HW216122   1.318   3.361   7.633
71409SOL     OW16123   0.386   9.882   0.494
71409SOL    HW116124   0.321   9.926   0.439
71409SOL    HW216125   0.429   9.820   0.436
71410SOL     OW16126   0.777  11.929   5.033
71410SOL    HW116127   0.704  11.870   5.017
71410SOL    HW216128   0.853  11.884   4.997
71411SOL     OW16129  10.500  13.444  12.031
71411SOL    HW116130  10.505  13.393  12.112
71411SOL    HW216131  10.591  13.457  12.006
71412SOL     OW16132   5.299  12.304   0.826
71412SOL    HW116133   5.209  12.331   0.805
71412SOL    HW216134   5.343  12.385   0.852
71413SOL     OW16135   7.987   4.863   5.539
71413SOL    HW116136   7.999   4.901   5.452
71413SOL    HW216137   8.068   4.813   5.554
71414SOL     OW16138   4.764  13.077  13.753
71414SOL    HW116139   4.679  13.048  13.785
71414SOL    HW216140   4.813  13.101  13.832
71415SOL     OW16141  12.160   0.737  11.943
71415SOL    HW116142  12.083   0.787  11.968
71415SOL    HW216143  12.218   0.742  12.019
71416SOL     OW16144   5.644  11.685   9.809
71416SOL    HW116145   5.554  11.655   9.824
71416SOL    HW216146   5.638  11.745   9.735
71417SOL     OW16147  10.319  12.916   7.218
71417SOL    HW116148  10.403  12.929   7.260
71417SOL    HW216149  10.260  12.891   7.289
71418SOL     OW16150   5.117   0.123  12.278
71418SOL    HW116151   5.212   0.112  12.273
71418SOL    HW216152   5.095   0.095  12.367
71419SOL     OW16153   7.039   1.843  10.271
71419SOL    HW116154   7.026   1.798  10.355
71419SOL    HW216155   6.999   1.929  10.283
71420SOL     OW16156   9.284   5.508   3.100
71420SOL    HW116157   9.358   5.448   3.107
71420SOL    HW216158   9.259   5.505   3.008
71421SOL     OW16159   9.568  10.937   0.862
71421SOL    HW116160   9.565  10.952   0.767
71421SOL    HW216161   9.660  10.950   0.885
71422SOL     OW16162   6.477   6.407   1.750
71422SOL    HW116163   6.452   6.480   1.692
71422SOL    HW216164   6.508   6.450   1.829
71423SOL     OW16165   2.674   6.695   9.480
71423SOL    HW116166   2.671   6.719   9.388
71423SOL    HW216167   2.729   6.617   9.483
71424SOL     OW16168  11.755   2.361   6.322
71424SOL    HW116169  11.800   2.445   6.320
71424SOL    HW216170  11.706   2.358   6.241
71425SOL     OW16171   7.753  10.428   4.709
71425SOL    HW116172   7.794  10.388   4.786
71425SOL    HW216173   7.764  10.522   4.722
71426SOL     OW16174   9.006  10.484  13.571
71426SOL    HW116175   9.096  10.494  13.539
71426SOL    HW216176   8.994  10.390  13.580
71427SOL     OW16177  14.255   1.175   9.822
71427SOL    HW116178  14.341   1.212   9.845
71427SOL    HW216179  14.272   1.081   9.816
71428SOL     OW16180   5.650   8.162  10.312
71428SOL    HW116181   5.581   8.112  10.356
71428SOL    HW216182   5.682   8.104  10.244
71429SOL     OW16183  14.327   5.078   3.369
71429SOL    HW116184  14.421   5.064   3.365
71429SOL    HW216185  14.289   4.997   3.335
71430SOL     OW16186   7.351  10.037  10.211
71430SOL    HW116187   7.291  10.004  10.278
71430SOL    HW216188   7.399   9.959  10.182
71431SOL     OW16189   1.354   2.254   9.440
71431SOL    HW116190   1.284   2.309   9.406
71431SOL    HW216191   1.367   2.187   9.373
71432SOL     OW16192  10.271   7.302   3.743
71432SOL    HW116193  10.307   7.326   3.658
71432SOL    HW216194  10.242   7.212   3.733
71433SOL     OW16195   3.812   6.352   4.007
71433SOL    HW116196   3.887   6.296   4.026
71433SOL    HW216197   3.847   6.422   3.952
71434SOL     OW16198   6.155   7.659  11.843
71434SOL    HW116199   6.088   7.606  11.800
71434SOL    HW216200   6.176   7.612  11.924
71435SOL     OW16201   2.740   9.225  10.040
71435SOL    HW116202   2.756   9.224  10.134
71435SOL    HW216203   2.653   9.188  10.030
71436SOL     OW16204   3.623   5.565   2.864
71436SOL    HW116205   3.542   5.600   2.899
71436SOL    HW216206   3.643   5.621   2.789
71437SOL     OW16207  12.888   4.151   6.460
71437SOL    HW116208  12.861   4.242   6.468
71437SOL    HW216209  12.931   4.131   6.543
71438SOL     OW16210   7.562  14.734  14.767
71438SOL    HW116211   7.593  14.819  14.737
71438SOL    HW216212   7.628  14.706  14.831
71439SOL     OW16213   9.716   1.775   2.672
71439SOL    HW116214   9.690   1.860   2.635
71439SOL    HW216215   9.791   1.795   2.727
71440SOL     OW16216   1.143   6.459   1.464
71440SOL    HW116217   1.187   6.398   1.524
71440SOL    HW216218   1.074   6.407   1.423
71441SOL     OW16219   2.053  12.598  13.380
71441SOL    HW116220   2.043  12.692  13.396
71441SOL    HW216221   2.128  12.573  13.434
71442SOL     OW16222  13.417   2.209   5.426
71442SOL    HW116223  13.384   2.297   5.404
71442SOL    HW216224  13.415   2.206   5.521
71443SOL     OW16225   8.317  10.026   2.163
71443SOL    HW116226   8.312  10.087   2.236
71443SOL    HW216227   8.386  10.061   2.107
71444SOL     OW16228  14.296   0.638   8.273
71444SOL    HW116229  14.363   0.576   8.244
71444SOL    HW216230  14.232   0.584   8.320
71445SOL     OW16231   4.624  11.865   7.238
71445SOL    HW116232   4.554  11.807   7.210
71445SOL    HW216233   4.675  11.882   7.159
71446SOL     OW16234   5.004  14.716   4.499
71446SOL    HW116235   5.076  14.732   4.438
71446SOL    HW216236   4.981  14.624   4.485
71447SOL     OW16237   9.290   1.712   0.306
71447SOL    HW116238   9.289   1.619   0.281
71447SOL    HW216239   9.356   1.717   0.375
71448SOL     OW16240   8.803  14.731   6.893
71448SOL    HW116241   8.837  14.681   6.967
71448SOL    HW216242   8.877  14.783   6.863
71449SOL     OW16243   8.298   3.161   4.863
71449SOL    HW116244   8.277   3.068   4.858
71449SOL    HW216245   8.393   3.164   4.869
71450SOL     OW16246   0.163  11.593   3.946
71450SOL    HW116247   0.228  11.549   3.892
71450SOL    HW216248   0.111  11.522   3.983
71451SOL     OW16249   4.470   6.596   3.873
71451SOL    HW116250   4.553   6.569   3.834
71451SOL    HW216251   4.475   6.691   3.878
71452SOL     OW16252   9.290  14.786   2.943
71452SOL    HW116253   9.232  14.811   2.870
71452SOL    HW216254   9.369  14.837   2.927
71453SOL     OW16255  14.040  10.227  10.891
71453SOL    HW116256  14.027  10.180  10.808
71453SOL    HW216257  13.983  10.182  10.953
71454SOL     OW16258  12.915   6.018  14.038
71454SOL    HW116259  12.843   6.074  14.009
71454SOL    HW216260  12.872   5.950  14.091
71455SOL     OW16261   0.443  14.629   2.075
71455SOL    HW116262   0.407  14.554   2.028
71455SOL    HW216263   0.534  14.603   2.095
71456SOL     OW16264   2.933   3.961   8.215
71456SOL    HW116265   2.886   4.033   8.173
71456SOL    HW216266   3.006   3.942   8.156
71457SOL     OW16267   0.762   8.475   0.549
71457SOL    HW116268   0.738   8.385   0.571
71457SOL    HW216269   0.685   8.527   0.570
71458SOL     OW16270   0.364   2.816   9.133
71458SOL    HW116271   0.345   2.906   9.106
71458SOL    HW216272   0.325   2.808   9.220
71459SOL     OW16273   5.745  14.474   4.370
71459SOL    HW116274   5.777  14.418   4.299
71459SOL    HW216275   5.709  14.550   4.325
71460SOL     OW16276  13.717  10.074  10.167
71460SOL    HW116277  13.795  10.095  10.115
71460SOL    HW216278  13.644  10.089  10.107
71461SOL     OW16279   4.344  14.184   9.731
71461SOL    HW116280   4.301  14.179   9.817
71461SOL    HW216281   4.428  14.226   9.749
71462SOL     OW16282   3.136   1.982   6.771
71462SOL    HW116283   3.054   2.020   6.739
71462SOL    HW216284   3.180   2.053   6.818
71463SOL     OW16285   1.526   1.667   4.915
71463SOL    HW116286   1.436   1.672   4.882
71463SOL    HW216287   1.516   1.664   5.010
71464SOL     OW16288   7.503  13.798  14.289
71464SOL    HW116289   7.460  13.713  14.300
71464SOL    HW216290   7.446  13.860  14.335
71465SOL     OW16291   4.991   1.758   4.453
71465SOL    HW116292   5.022   1.744   4.363
71465SOL    HW216293   4.896   1.761   4.445
71466SOL     OW16294   0.391  13.249   1.262
71466SOL    HW116295   0.403  13.340   1.291
71466SOL    HW216296   0.422  13.249   1.172
71467SOL     OW16297   1.026   9.528   8.461
71467SOL    HW116298   1.009   9.504   8.370
71467SOL    HW216299   1.009   9.622   8.465
71468SOL     OW16300  13.737  13.626   6.508
71468SOL    HW116301  13.649  13.591   6.522
71468SOL    HW216302  13.756  13.675   6.588
71469SOL     OW16303  13.728  12.315   3.256
71469SOL    HW116304  13.784  12.244   3.286
71469SOL    HW216305  13.645  12.273   3.233
71470SOL     OW16306   8.038   5.064   9.711
71470SOL    HW116307   8.040   4.970   9.692
71470SOL    HW216308   8.050   5.106   9.627
71471SOL     OW16309  10.724   5.569  12.469
71471SOL    HW116310  10.721   5.607  12.557
71471SOL    HW216311  10.664   5.495  12.473
71472SOL     OW16312   9.899  10.319  11.398
71472SOL    HW116313   9.911  10.229  11.366
71472SOL    HW216314   9.939  10.374  11.331
71473SOL     OW16315   8.916   9.070  11.337
71473SOL    HW116316   8.884   8.980  11.331
71473SOL    HW216317   8.928   9.085  11.431
71474SOL     OW16318   8.303  14.763  10.296
71474SOL    HW116319   8.340  14.847  10.324
71474SOL    HW216320   8.323  14.759  10.202
71475SOL     OW16321  14.671   1.751   6.654
71475SOL    HW116322  14.590   1.783   6.694
71475SOL    HW216323  14.733   1.824   6.664
71476SOL     OW16324   0.325   9.717   0.150
71476SOL    HW116325   0.257   9.660   0.186
71476SOL    HW216326   0.392   9.721   0.218
71477SOL     OW16327   0.773   7.446   5.235
71477SOL    HW116328   0.767   7.464   5.328
71477SOL    HW216329   0.863   7.467   5.211
71478SOL     OW16330   1.982   8.047   1.452
71478SOL    HW116331   2.019   7.974   1.402
71478SOL    HW216332   2.040   8.120   1.433
71479SOL     OW16333   0.784  12.374   5.186
71479SOL    HW116334   0.819  12.417   5.108
71479SOL    HW216335   0.838  12.296   5.197
71480SOL     OW16336   4.892   4.457   5.096
71480SOL    HW116337   4.960   4.510   5.137
71480SOL    HW216338   4.826   4.445   5.165
71481SOL     OW16339  14.878   6.016   8.522
71481SOL    HW116340  14.808   5.985   8.580
71481SOL    HW216341  14.854   6.106   8.502
71482SOL     OW16342  12.198   7.965   2.956
71482SOL    HW116343  12.170   8.001   3.040
71482SOL    HW216344  12.223   7.875   2.975
71483SOL     OW16345   0.337  13.602   2.197
71483SOL    HW116346   0.363  13.527   2.250
71483SOL    HW216347   0.334  13.675   2.258
71484SOL     OW16348  11.551  10.137   8.269
71484SOL    HW116349  11.484  10.145   8.337
71484SOL    HW216350  11.599  10.057   8.292
71485SOL     OW16351  13.136   0.406   1.259
71485SOL    HW116352  13.130   0.481   1.318
71485SOL    HW216353  13.053   0.359   1.272
71486SOL     OW16354  12.292   5.255  11.405
71486SOL    HW116355  12.270   5.251  11.312
71486SOL    HW216356  12.295   5.348  11.425
71487SOL     OW16357   7.392   3.882   5.898
71487SOL    HW116358   7.465   3.932   5.933
71487SOL    HW216359   7.344   3.853   5.976
71488SOL     OW16360  14.522  13.587   4.789
71488SOL    HW116361  14.553  13.507   4.831
71488SOL    HW216362  14.432  13.598   4.821
71489SOL     OW16363   5.894   7.715  10.845
71489SOL    HW116364   5.964   7.780  10.838
71489SOL    HW216365   5.882   7.702  10.939
71490SOL     OW16366   2.423  14.479  11.917
71490SOL    HW116367   2.473  14.398  11.910
71490SOL    HW216368   2.372  14.470  11.997
71491SOL     OW16369  13.442  13.611  13.001
71491SOL    HW116370  13.382  13.574  13.066
71491SOL    HW216371  13.408  13.580  12.917
71492SOL     OW16372   6.496  12.364   7.913
71492SOL    HW116373   6.583  12.326   7.908
71492SOL    HW216374   6.505  12.436   7.976
71493SOL     OW16375   7.616   5.266   3.915
71493SOL    HW116376   7.674   5.234   3.984
71493SOL    HW216377   7.528   5.259   3.952
71494SOL     OW16378   0.876   1.395  12.079
71494SOL    HW116379   0.785   1.425  12.071
71494SOL    HW216380   0.924   1.450  12.017
71495SOL     OW16381  10.049  10.161  10.204
71495SOL    HW116382  10.056  10.146  10.298
71495SOL    HW216383  10.059  10.074  10.165
71496SOL     OW16384  14.810   1.094   0.288
71496SOL    HW116385  14.857   1.066   0.210
71496SOL    HW216386  14.756   1.167   0.259
71497SOL     OW16387  13.777  12.248   0.645
71497SOL    HW116388  13.849  12.310   0.649
71497SOL    HW216389  13.755  12.232   0.737
71498SOL     OW16390   4.248   4.125   6.111
71498SOL    HW116391   4.167   4.084   6.141
71498SOL    HW216392   4.276   4.073   6.037
71499SOL     OW16393   4.157  10.297   1.169
71499SOL    HW116394   4.198  10.296   1.082
71499SOL    HW216395   4.092  10.226   1.165
71500SOL     OW16396   8.174  13.011  10.963
71500SOL    HW116397   8.134  12.958  11.032
71500SOL    HW216398   8.258  12.968  10.946
71501SOL     OW16399   3.001   5.737  14.031
71501SOL    HW116400   3.019   5.791  14.108
71501SOL    HW216401   2.908   5.750  14.015
71502SOL     OW16402   8.158   2.883  12.152
71502SOL    HW116403   8.248   2.906  12.175
71502SOL    HW216404   8.139   2.935  12.074
71503SOL     OW16405   9.966   3.921  10.568
71503SOL    HW116406  10.055   3.950  10.584
71503SOL    HW216407   9.913   3.969  10.632
71504SOL     OW16408  13.431  13.305   8.127
71504SOL    HW116409  13.459  13.218   8.098
71504SOL    HW216410  13.472  13.317   8.212
71505SOL     OW16411   6.666   0.086   8.508
71505SOL    HW116412   6.690   0.111   8.419
71505SOL    HW216413   6.731   0.020   8.533
71506SOL     OW16414  11.593   2.363   0.926
71506SOL    HW116415  11.648   2.321   0.861
71506SOL    HW216416  11.515   2.308   0.932
71507SOL     OW16417  10.094   0.317  10.529
71507SOL    HW116418  10.188   0.333  10.520
71507SOL    HW216419  10.071   0.350  10.615
71508SOL     OW16420  14.403   0.050   7.118
71508SOL    HW116421  14.445   0.066   7.202
71508SOL    HW216422  14.450  14.856   7.081
71509SOL     OW16423  14.048   2.239   4.798
71509SOL    HW116424  14.090   2.274   4.877
71509SOL    HW216425  13.992   2.310   4.767
71510SOL     OW16426  10.782  12.336   0.966
71510SOL    HW116427  10.714  12.270   0.985
71510SOL    HW216428  10.792  12.333   0.871
71511SOL     OW16429   2.446   2.878  11.099
71511SOL    HW116430   2.477   2.843  11.015
71511SOL    HW216431   2.413   2.802  11.146
71512SOL     OW16432  12.379  11.749  11.915
71512SOL    HW116433  12.331  11.832  11.915
71512SOL    HW216434  12.319  11.686  11.875
71513SOL     OW16435   3.909   7.865  10.978
71513SOL    HW116436   3.951   7.922  10.914
71513SOL    HW216437   3.873   7.793  10.927
71514SOL     OW16438   1.701   0.121  11.819
71514SOL    HW116439   1.712   0.207  11.779
71514SOL    HW216440   1.697   0.139  11.913
71515SOL     OW16441   6.032   2.873   5.457
71515SOL    HW116442   6.050   2.870   5.363
71515SOL    HW216443   5.987   2.957   5.470
71516SOL     OW16444   5.125  12.315   4.500
71516SOL    HW116445   5.124  12.224   4.529
71516SOL    HW216446   5.146  12.365   4.579
71517SOL     OW16447   6.487   7.106  13.380
71517SOL    HW116448   6.536   7.186  13.395
71517SOL    HW216449   6.477   7.067  13.468
71518SOL     OW16450  11.545   8.291   6.394
71518SOL    HW116451  11.597   8.344   6.334
71518SOL    HW216452  11.461   8.337   6.401
71519SOL     OW16453   9.218  10.825   4.240
71519SOL    HW116454   9.132  10.849   4.205
71519SOL    HW216455   9.252  10.906   4.277
71520SOL     OW16456   0.717  14.339  12.039
71520SOL    HW116457   0.784  14.306  12.098
71520SOL    HW216458   0.765  14.379  11.967
71521SOL     OW16459   8.836   3.620  12.845
71521SOL    HW116460   8.926   3.592  12.865
71521SOL    HW216461   8.795   3.631  12.930
71522SOL     OW16462  11.411  10.696   3.924
71522SOL    HW116463  11.322  10.673   3.949
71522SOL    HW216464  11.431  10.638   3.851
71523SOL     OW16465   3.245   8.487   9.175
71523SOL    HW116466   3.156   8.457   9.187
71523SOL    HW216467   3.266   8.533   9.257
71524SOL     OW16468   4.527  11.020   4.089
71524SOL    HW116469   4.456  11.011   4.153
71524SOL    HW216470   4.577  10.939   4.098
71525SOL     OW16471   1.230  10.057  10.628
71525SOL    HW116472   1.231  10.031  10.536
71525SOL    HW216473   1.306  10.113  10.639
71526SOL     OW16474   3.659   3.409   6.510
71526SOL    HW116475   3.584   3.429   6.566
71526SOL    HW216476   3.650   3.316   6.490
71527SOL     OW16477   8.254  13.256   5.091
71527SOL    HW116478   8.242  13.311   5.168
71527SOL    HW216479   8.338  13.212   5.106
71528SOL     OW16480  11.111   7.123   1.729
71528SOL    HW116481  11.110   7.208   1.774
71528SOL    HW216482  11.200   7.091   1.740
71529SOL     OW16483   9.108  14.653   4.696
71529SOL    HW116484   9.060  14.615   4.623
71529SOL    HW216485   9.059  14.733   4.717
71530SOL     OW16486   2.418  12.303   2.203
71530SOL    HW116487   2.355  12.249   2.154
71530SOL    HW216488   2.412  12.271   2.293
71531SOL     OW16489  11.182  12.528   3.915
71531SOL    HW116490  11.248  12.547   3.981
71531SOL    HW216491  11.099  12.529   3.962
71532SOL     OW16492  11.039   8.290   6.657
71532SOL    HW116493  10.950   8.259   6.672
71532SOL    HW216494  11.081   8.220   6.608
71533SOL     OW16495   5.202   2.005   7.526
71533SOL    HW116496   5.167   2.021   7.438
71533SOL    HW216497   5.283   1.957   7.510
71534SOL     OW16498   3.016   0.825   4.874
71534SOL    HW116499   3.104   0.830   4.837
71534SOL    HW216500   2.984   0.916   4.873
71535SOL     OW16501   7.961   6.041   7.883
71535SOL    HW116502   8.012   6.120   7.905
71535SOL    HW216503   8.027   5.972   7.874
71536SOL     OW16504   2.164   5.593   1.787
71536SOL    HW116505   2.233   5.653   1.757
71536SOL    HW216506   2.202   5.506   1.778
71537SOL     OW16507  10.717  12.812   2.510
71537SOL    HW116508  10.766  12.893   2.522
71537SOL    HW216509  10.690  12.786   2.598
71538SOL     OW16510  13.701  13.920  12.578
71538SOL    HW116511  13.754  13.925  12.658
71538SOL    HW216512  13.628  13.979  12.595
71539SOL     OW16513   6.852  11.043   3.298
71539SOL    HW116514   6.847  10.949   3.284
71539SOL    HW216515   6.939  11.068   3.265
71540SOL     OW16516   8.347   5.380   2.646
71540SOL    HW116517   8.253   5.367   2.649
71540SOL    HW216518   8.364   5.451   2.707
71541SOL     OW16519   1.052  10.022  12.535
71541SOL    HW116520   1.082  10.112  12.529
71541SOL    HW216521   1.001  10.019  12.616
71542SOL     OW16522   6.088   4.354   6.122
71542SOL    HW116523   6.064   4.361   6.215
71542SOL    HW216524   6.005   4.361   6.075
71543SOL     OW16525   0.211  12.003  14.034
71543SOL    HW116526   0.274  12.019  14.104
71543SOL    HW216527   0.165  11.923  14.061
71544SOL     OW16528   9.912  14.789   9.116
71544SOL    HW116529   9.895  14.860   9.054
71544SOL    HW216530   9.902  14.829   9.202
71545SOL     OW16531  11.945   5.522  14.400
71545SOL    HW116532  12.028   5.530  14.353
71545SOL    HW216533  11.965   5.547  14.490
71546SOL     OW16534  13.779  10.797   3.270
71546SOL    HW116535  13.705  10.744   3.302
71546SOL    HW216536  13.787  10.867   3.334
71547SOL     OW16537   8.839   9.498   9.767
71547SOL    HW116538   8.749   9.527   9.787
71547SOL    HW216539   8.857   9.430   9.832
71548SOL     OW16540   8.740   4.640  14.224
71548SOL    HW116541   8.763   4.653  14.132
71548SOL    HW216542   8.709   4.549  14.229
71549SOL     OW16543   7.827  14.802  14.551
71549SOL    HW116544   7.779  14.737  14.500
71549SOL    HW216545   7.918  14.792  14.524
71550SOL     OW16546  12.244   3.162   4.008
71550SOL    HW116547  12.314   3.217   3.972
71550SOL    HW216548  12.166   3.186   3.957
71551SOL     OW16549  12.392   6.702  12.586
71551SOL    HW116550  12.308   6.747  12.602
71551SOL    HW216551  12.372   6.640  12.516
71552SOL     OW16552  13.462   6.067  10.955
71552SOL    HW116553  13.491   5.986  10.998
71552SOL    HW216554  13.528   6.132  10.979
71553SOL     OW16555   0.858   7.518  12.735
71553SOL    HW116556   0.916   7.482  12.668
71553SOL    HW216557   0.813   7.442  12.772
71554SOL     OW16558   5.463   0.193  12.811
71554SOL    HW116559   5.529   0.127  12.827
71554SOL    HW216560   5.481   0.224  12.722
71555SOL     OW16561   4.110  12.247   2.322
71555SOL    HW116562   4.157  12.220   2.244
71555SOL    HW216563   4.044  12.309   2.291
71556SOL     OW16564   8.902  10.998   6.879
71556SOL    HW116565   8.972  11.056   6.911
71556SOL    HW216566   8.826  11.055   6.869
71557SOL     OW16567  10.783   1.380  10.949
71557SOL    HW116568  10.832   1.297  10.947
71557SOL    HW216569  10.845   1.445  10.917
71558SOL     OW16570  10.885  13.516  10.310
71558SOL    HW116571  10.872  13.587  10.372
71558SOL    HW216572  10.968  13.536  10.267
71559SOL     OW16573   2.737   8.206   9.095
71559SOL    HW116574   2.714   8.257   9.017
71559SOL    HW216575   2.814   8.250   9.131
71560SOL     OW16576  12.596   9.169   1.302
71560SOL    HW116577  12.598   9.241   1.238
71560SOL    HW216578  12.624   9.209   1.384
71561SOL     OW16579   5.518   3.567   4.734
71561SOL    HW116580   5.517   3.501   4.665
71561SOL    HW216581   5.495   3.649   4.689
71562SOL     OW16582  12.034  11.342   8.700
71562SOL    HW116583  11.977  11.278   8.741
71562SOL    HW216584  11.975  11.402   8.655
71563SOL     OW16585  10.159   7.275   8.407
71563SOL    HW116586  10.168   7.271   8.502
71563SOL    HW216587  10.153   7.369   8.387
71564SOL     OW16588  13.300   2.677  11.022
71564SOL    HW116589  13.352   2.653  11.099
71564SOL    HW216590  13.364   2.715  10.962
71565SOL     OW16591   7.891  11.325   8.031
71565SOL    HW116592   7.965  11.365   8.075
71565SOL    HW216593   7.920  11.237   8.009
71566SOL     OW16594   0.728  13.222   6.685
71566SOL    HW116595   0.722  13.143   6.630
71566SOL    HW216596   0.801  13.204   6.744
71567SOL     OW16597  11.882   7.190  12.666
71567SOL    HW116598  11.969   7.186  12.627
71567SOL    HW216599  11.897   7.212  12.758
71568SOL     OW16600  11.916   5.601  10.932
71568SOL    HW116601  12.010   5.588  10.933
71568SOL    HW216602  11.904   5.690  10.966
71569SOL     OW16603  10.010  11.407  11.854
71569SOL    HW116604   9.933  11.384  11.802
71569SOL    HW216605  10.002  11.500  11.871
71570SOL     OW16606  12.090   8.378   6.862
71570SOL    HW116607  12.098   8.470   6.887
71570SOL    HW216608  12.025   8.379   6.791
71571SOL     OW16609   8.292   2.613   2.824
71571SOL    HW116610   8.297   2.638   2.731
71571SOL    HW216611   8.258   2.523   2.822
71572SOL     OW16612  12.183   4.330   8.799
71572SOL    HW116613  12.218   4.268   8.864
71572SOL    HW216614  12.094   4.348   8.829
71573SOL     OW16615  14.538   2.060  14.853
71573SOL    HW116616  14.529   2.055  14.758
71573SOL    HW216617  14.500   1.978   0.004
71574SOL     OW16618   6.197   1.757  12.113
71574SOL    HW116619   6.182   1.747  12.207
71574SOL    HW216620   6.288   1.728  12.101
71575SOL     OW16621  11.053   7.742   7.172
71575SOL    HW116622  10.988   7.812   7.166
71575SOL    HW216623  11.017   7.681   7.237
71576SOL     OW16624  10.748   3.134   5.390
71576SOL    HW116625  10.655   3.119   5.374
71576SOL    HW216626  10.776   3.189   5.317
71577SOL     OW16627   1.969   6.527  10.927
71577SOL    HW116628   2.061   6.516  10.949
71577SOL    HW216629   1.949   6.454  10.869
71578SOL     OW16630   4.488   4.587   6.541
71578SOL    HW116631   4.581   4.608   6.539
71578SOL    HW216632   4.444   4.672   6.538
71579SOL     OW16633  13.851   9.626   9.955
71579SOL    HW116634  13.768   9.598   9.994
71579SOL    HW216635  13.829   9.707   9.909
71580SOL     OW16636   8.608   5.149   0.472
71580SOL    HW116637   8.555   5.150   0.392
71580SOL    HW216638   8.660   5.069   0.466
71581SOL     OW16639  10.360   2.790  13.286
71581SOL    HW116640  10.359   2.789  13.190
71581SOL    HW216641  10.393   2.876  13.309
71582SOL     OW16642   2.845   9.094   5.984
71582SOL    HW116643   2.887   9.107   6.069
71582SOL    HW216644   2.799   9.176   5.967
71583SOL     OW16645   0.434   4.458   2.099
71583SOL    HW116646   0.370   4.497   2.039
71583SOL    HW216647   0.519   4.476   2.058
71584SOL     OW16648  11.480  14.678  13.963
71584SOL    HW116649  11.500  14.587  13.986
71584SOL    HW216650  11.531  14.730  14.025
71585SOL     OW16651   2.648   4.673   0.819
71585SOL    HW116652   2.612   4.746   0.870
71585SOL    HW216653   2.574   4.640   0.769
71586SOL     OW16654  11.985  14.611   2.832
71586SOL    HW116655  11.963  14.694   2.874
71586SOL    HW216656  11.908  14.556   2.845
71587SOL     OW16657   6.537  14.591   1.221
71587SOL    HW116658   6.611  14.557   1.271
71587SOL    HW216659   6.575  14.658   1.163
71588SOL     OW16660  11.054  14.183   1.979
71588SOL    HW116661  11.107  14.221   1.909
71588SOL    HW216662  11.092  14.096   1.993
71589SOL     OW16663   8.537   8.599  14.383
71589SOL    HW116664   8.602   8.582  14.315
71589SOL    HW216665   8.466   8.645  14.337
71590SOL     OW16666   7.675   7.822  10.700
71590SOL    HW116667   7.768   7.817  10.680
71590SOL    HW216668   7.663   7.910  10.737
71591SOL     OW16669   4.990  14.125   0.652
71591SOL    HW116670   5.067  14.107   0.705
71591SOL    HW216671   4.970  14.042   0.609
71592SOL     OW16672  11.953   4.911   0.228
71592SOL    HW116673  11.909   4.826   0.232
71592SOL    HW216674  11.938   4.950   0.314
71593SOL     OW16675   7.806   7.833   5.174
71593SOL    HW116676   7.899   7.854   5.180
71593SOL    HW216677   7.762   7.910   5.210
71594SOL     OW16678   0.849   6.996  13.480
71594SOL    HW116679   0.935   7.032  13.458
71594SOL    HW216680   0.796   7.014  13.403
71595SOL     OW16681   9.069  10.940  12.190
71595SOL    HW116682   9.082  10.954  12.096
71595SOL    HW216683   9.139  10.880  12.215
71596SOL     OW16684  10.428  14.134   4.214
71596SOL    HW116685  10.523  14.138   4.223
71596SOL    HW216686  10.412  14.150   4.121
71597SOL     OW16687   0.629   7.551   1.510
71597SOL    HW116688   0.555   7.499   1.541
71597SOL    HW216689   0.590   7.623   1.461
71598SOL     OW16690   7.861   7.647  13.389
71598SOL    HW116691   7.865   7.613  13.299
71598SOL    HW216692   7.897   7.576  13.442
71599SOL     OW16693   4.563   3.477   0.173
71599SOL    HW116694   4.616   3.533   0.116
71599SOL    HW216695   4.626   3.414   0.209
71600SOL     OW16696  12.498   3.689   7.597
71600SOL    HW116697  12.415   3.692   7.549
71600SOL    HW216698  12.563   3.669   7.529
71601SOL     OW16699   7.325  13.953  10.347
71601SOL    HW116700   7.292  14.010  10.416
71601SOL    HW216701   7.391  14.005  10.302
71602SOL     OW16702   7.300   1.557   4.886
71602SOL    HW116703   7.270   1.592   4.803
71602SOL    HW216704   7.278   1.624   4.951
71603SOL     OW16705  12.390   1.684   1.018
71603SOL    HW116706  12.328   1.616   0.990
71603SOL    HW216707  12.413   1.729   0.937
71604SOL     OW16708   6.010   7.506  11.578
71604SOL    HW116709   5.973   7.554  11.504
71604SOL    HW216710   5.934   7.480  11.630
71605SOL     OW16711   6.708  13.728   9.763
71605SOL    HW116712   6.739  13.731   9.672
71605SOL    HW216713   6.631  13.672   9.760
71606SOL     OW16714  12.341   4.108   8.522
71606SOL    HW116715  12.361   4.047   8.594
71606SOL    HW216716  12.409   4.175   8.528
71607SOL     OW16717   2.561  14.693   3.105
71607SOL    HW116718   2.655  14.690   3.091
71607SOL    HW216719   2.525  14.636   3.037
71608SOL     OW16720   6.219   2.829   0.254
71608SOL    HW116721   6.262   2.785   0.328
71608SOL    HW216722   6.212   2.761   0.187
71609SOL     OW16723   2.661  10.135   6.933
71609SOL    HW116724   2.681  10.096   7.018
71609SOL    HW216725   2.576  10.097   6.910
71610SOL     OW16726   1.292  10.762  14.619
71610SOL    HW116727   1.253  10.688  14.572
71610SOL    HW216728   1.218  10.815  14.647
71611SOL     OW16729   4.224   1.852  14.268
71611SOL    HW116730   4.215   1.894  14.182
71611SOL    HW216731   4.284   1.779  14.252
71612SOL     OW16732   0.848  11.587   3.537
71612SOL    HW116733   0.803  11.586   3.621
71612SOL    HW216734   0.843  11.678   3.508
71613SOL     OW16735   7.057  14.235  12.205
71613SOL    HW116736   7.043  14.169  12.273
71613SOL    HW216737   7.138  14.279  12.232
71614SOL     OW16738   1.506   1.606   1.309
71614SOL    HW116739   1.564   1.536   1.338
71614SOL    HW216740   1.470   1.642   1.390
71615SOL     OW16741   1.189   1.070  13.151
71615SOL    HW116742   1.267   1.019  13.172
71615SOL    HW216743   1.178   1.129  13.226
71616SOL     OW16744   3.031   1.585   2.119
71616SOL    HW116745   3.018   1.676   2.092
71616SOL    HW216746   3.074   1.544   2.044
71617SOL     OW16747   6.581  11.269  12.309
71617SOL    HW116748   6.568  11.342  12.370
71617SOL    HW216749   6.671  11.239  12.326
71618SOL     OW16750  10.686   0.601  13.294
71618SOL    HW116751  10.694   0.543  13.218
71618SOL    HW216752  10.775   0.632  13.310
71619SOL     OW16753   7.634   7.371   7.317
71619SOL    HW116754   7.703   7.345   7.377
71619SOL    HW216755   7.680   7.391   7.235
71620SOL     OW16756   0.875   5.752   6.330
71620SOL    HW116757   0.900   5.838   6.365
71620SOL    HW216758   0.928   5.690   6.379
71621SOL     OW16759   0.816   6.850   8.703
71621SOL    HW116760   0.893   6.871   8.651
71621SOL    HW216761   0.744   6.845   8.639
71622SOL     OW16762   3.722  13.488   9.488
71622SOL    HW116763   3.719  13.573   9.445
71622SOL    HW216764   3.651  13.438   9.448
71623SOL     OW16765   8.188  14.280   0.303
71623SOL    HW116766   8.120  14.259   0.367
71623SOL    HW216767   8.253  14.331   0.352
71624SOL     OW16768   8.172   7.036   2.362
71624SOL    HW116769   8.189   7.130   2.371
71624SOL    HW216770   8.096   7.031   2.304
71625SOL     OW16771   4.067   2.945  12.255
71625SOL    HW116772   4.107   2.858  12.260
71625SOL    HW216773   4.128   3.002  12.302
71626SOL     OW16774  11.467   8.209   2.902
71626SOL    HW116775  11.470   8.116   2.880
71626SOL    HW216776  11.375   8.233   2.888
71627SOL     OW16777   3.305  10.895  11.342
71627SOL    HW116778   3.357  10.930  11.270
71627SOL    HW216779   3.296  10.968  11.404
71628SOL     OW16780  11.981   1.583  10.330
71628SOL    HW116781  11.918   1.655  10.326
71628SOL    HW216782  12.017   1.586  10.418
71629SOL     OW16783   2.884   6.153   2.732
71629SOL    HW116784   2.809   6.131   2.677
71629SOL    HW216785   2.931   6.070   2.745
71630SOL     OW16786  13.944   8.245   6.425
71630SOL    HW116787  14.017   8.186   6.404
71630SOL    HW216788  13.978   8.332   6.406
71631SOL     OW16789   1.804   1.201  13.167
71631SOL    HW116790   1.837   1.123  13.211
71631SOL    HW216791   1.811   1.270  13.232
71632SOL     OW16792   9.552   4.637   0.645
71632SOL    HW116793   9.626   4.689   0.612
71632SOL    HW216794   9.564   4.636   0.740
71633SOL     OW16795   6.669   1.138   0.468
71633SOL    HW116796   6.645   1.116   0.558
71633SOL    HW216797   6.590   1.175   0.430
71634SOL     OW16798  11.153  11.268   9.771
71634SOL    HW116799  11.074  11.232   9.730
71634SOL    HW216800  11.225  11.222   9.729
71635SOL     OW16801   1.277  11.332   8.404
71635SOL    HW116802   1.369  11.311   8.388
71635SOL    HW216803   1.240  11.346   8.317
71636SOL     OW16804  12.306   8.696   0.003
71636SOL    HW116805  12.259   8.638  14.824
71636SOL    HW216806  12.365   8.637   0.051
71637SOL     OW16807  10.545   8.758  14.485
71637SOL    HW116808  10.640   8.768  14.478
71637SOL    HW216809  10.515   8.840  14.523
71638SOL     OW16810   0.853  13.668   7.224
71638SOL    HW116811   0.761  13.691   7.209
71638SOL    HW216812   0.854  13.572   7.222
71639SOL     OW16813  10.751   0.921   8.052
71639SOL    HW116814  10.698   0.952   7.979
71639SOL    HW216815  10.804   0.850   8.016
71640SOL     OW16816  14.855  13.185   6.447
71640SOL    HW116817   0.023  13.266   6.429
71640SOL    HW216818  14.797  13.175   6.371
71641SOL     OW16819   8.120  12.460   5.125
71641SOL    HW116820   8.093  12.389   5.068
71641SOL    HW216821   8.197  12.427   5.171
71642SOL     OW16822   4.149  12.929   1.255
71642SOL    HW116823   4.232  12.901   1.293
71642SOL    HW216824   4.136  12.872   1.180
71643SOL     OW16825  13.884  12.090   7.969
71643SOL    HW116826  13.937  12.075   8.047
71643SOL    HW216827  13.796  12.064   7.994
71644SOL     OW16828   6.919   3.408  13.862
71644SOL    HW116829   6.872   3.412  13.945
71644SOL    HW216830   6.963   3.323  13.864
71645SOL     OW16831   8.056  11.151   3.421
71645SOL    HW116832   8.125  11.198   3.373
71645SOL    HW216833   8.043  11.203   3.501
71646SOL     OW16834   2.308   7.546   2.645
71646SOL    HW116835   2.229   7.493   2.647
71646SOL    HW216836   2.379   7.486   2.667
71647SOL     OW16837  14.302   7.629   9.320
71647SOL    HW116838  14.355   7.697   9.361
71647SOL    HW216839  14.217   7.670   9.305
71648SOL     OW16840   8.668   4.664   7.206
71648SOL    HW116841   8.717   4.740   7.176
71648SOL    HW216842   8.645   4.684   7.297
71649SOL     OW16843   2.863  14.849   3.047
71649SOL    HW116844   2.868  14.815   3.137
71649SOL    HW216845   2.952  14.842   3.014
71650SOL     OW16846   4.865  11.615  13.991
71650SOL    HW116847   4.863  11.566  14.073
71650SOL    HW216848   4.957  11.620  13.968
71651SOL     OW16849   0.020   7.313   6.206
71651SOL    HW116850   0.087   7.382   6.209
71651SOL    HW216851  14.820   7.356   6.235
71652SOL     OW16852   2.402   2.163  12.050
71652SOL    HW116853   2.356   2.244  12.067
71652SOL    HW216854   2.369   2.102  12.116
71653SOL     OW16855   6.719   2.124   2.762
71653SOL    HW116856   6.633   2.107   2.724
71653SOL    HW216857   6.780   2.119   2.689
71654SOL     OW16858  12.367   0.379   4.206
71654SOL    HW116859  12.366   0.405   4.298
71654SOL    HW216860  12.367   0.462   4.158
71655SOL     OW16861   6.427   8.631   0.778
71655SOL    HW116862   6.420   8.656   0.686
71655SOL    HW216863   6.458   8.710   0.822
71656SOL     OW16864  13.218   9.302  10.260
71656SOL    HW116865  13.212   9.212  10.228
71656SOL    HW216866  13.308   9.329  10.243
71657SOL     OW16867   8.830   5.463  12.529
71657SOL    HW116868   8.851   5.504  12.445
71657SOL    HW216869   8.798   5.376  12.505
71658SOL     OW16870  11.341   9.393  14.733
71658SOL    HW116871  11.286   9.470  14.749
71658SOL    HW216872  11.405   9.393  14.804
71659SOL     OW16873  13.376   5.377   8.842
71659SOL    HW116874  13.342   5.291   8.867
71659SOL    HW216875  13.347   5.435   8.913
71660SOL     OW16876  12.261   9.696  10.901
71660SOL    HW116877  12.270   9.601  10.892
71660SOL    HW216878  12.333   9.732  10.848
71661SOL     OW16879  13.358  10.273   2.280
71661SOL    HW116880  13.380  10.335   2.210
71661SOL    HW216881  13.357  10.187   2.236
71662SOL     OW16882  14.314  14.474   5.542
71662SOL    HW116883  14.268  14.547   5.582
71662SOL    HW216884  14.347  14.423   5.616
71663SOL     OW16885  13.117   5.941   3.922
71663SOL    HW116886  13.090   5.944   4.014
71663SOL    HW216887  13.211   5.960   3.924
71664SOL     OW16888   7.754   3.143  10.962
71664SOL    HW116889   7.800   3.195  10.897
71664SOL    HW216890   7.823   3.095  11.008
71665SOL     OW16891  12.251  13.719   1.716
71665SOL    HW116892  12.328  13.662   1.720
71665SOL    HW216893  12.211  13.711   1.803
71666SOL     OW16894  11.651   0.193   0.438
71666SOL    HW116895  11.572   0.183   0.491
71666SOL    HW216896  11.620   0.224   0.353
71667SOL     OW16897  13.862   3.802  14.869
71667SOL    HW116898  13.905   3.742   0.050
71667SOL    HW216899  13.914   3.882  14.872
71668SOL     OW16900  12.526  12.074   0.694
71668SOL    HW116901  12.620  12.067   0.709
71668SOL    HW216902  12.486  12.035   0.772
71669SOL     OW16903   4.487   6.556  13.837
71669SOL    HW116904   4.413   6.615  13.839
71669SOL    HW216905   4.450   6.471  13.812
71670SOL     OW16906   3.642   4.654   4.813
71670SOL    HW116907   3.572   4.594   4.838
71670SOL    HW216908   3.608   4.741   4.838
71671SOL     OW16909   8.257  12.094   1.439
71671SOL    HW116910   8.242  12.103   1.533
71671SOL    HW216911   8.293  12.006   1.429
71672SOL     OW16912  11.561  13.286   8.538
71672SOL    HW116913  11.583  13.331   8.620
71672SOL    HW216914  11.466  13.273   8.543
71673SOL     OW16915  13.897   7.551   7.672
71673SOL    HW116916  13.887   7.646   7.676
71673SOL    HW216917  13.933   7.536   7.584
71674SOL     OW16918  12.615   5.226  12.304
71674SOL    HW116919  12.544   5.289  12.315
71674SOL    HW216920  12.574   5.151  12.262
71675SOL     OW16921  12.738  13.800   6.110
71675SOL    HW116922  12.648  13.828   6.097
71675SOL    HW216923  12.746  13.786   6.204
71676SOL     OW16924   2.142  11.814  14.505
71676SOL    HW116925   2.122  11.846  14.418
71676SOL    HW216926   2.238  11.815  14.509
71677SOL     OW16927  13.934   1.471   5.557
71677SOL    HW116928  13.887   1.501   5.635
71677SOL    HW216929  13.866   1.460   5.491
71678SOL     OW16930  11.908   6.649   3.296
71678SOL    HW116931  11.918   6.688   3.209
71678SOL    HW216932  11.914   6.723   3.357
71679SOL     OW16933  12.073   4.052   9.971
71679SOL    HW116934  12.049   4.045  10.063
71679SOL    HW216935  12.046   3.969   9.933
71680SOL     OW16936   5.895  11.802   7.679
71680SOL    HW116937   5.970  11.824   7.624
71680SOL    HW216938   5.925  11.729   7.733
71681SOL     OW16939   9.908  12.255   4.633
71681SOL    HW116940   9.863  12.192   4.577
71681SOL    HW216941   9.864  12.338   4.616
71682SOL     OW16942  13.622  12.994   0.801
71682SOL    HW116943  13.614  12.989   0.897
71682SOL    HW216944  13.680  12.921   0.779
71683SOL     OW16945  14.159   1.182   8.378
71683SOL    HW116946  14.080   1.202   8.329
71683SOL    HW216947  14.154   1.088   8.396
71684SOL     OW16948   6.466  11.710   7.870
71684SOL    HW116949   6.486  11.803   7.883
71684SOL    HW216950   6.417  11.708   7.787
71685SOL     OW16951  14.650   5.354  10.372
71685SOL    HW116952  14.708   5.387  10.304
71685SOL    HW216953  14.705   5.297  10.426
71686SOL     OW16954  10.589  14.697  13.891
71686SOL    HW116955  10.503  14.699  13.849
71686SOL    HW216956  10.570  14.674  13.982
71687SOL     OW16957   1.980   6.192   7.256
71687SOL    HW116958   1.964   6.214   7.164
71687SOL    HW216959   2.074   6.177   7.261
71688SOL     OW16960  12.501   8.123   3.146
71688SOL    HW116961  12.540   8.161   3.225
71688SOL    HW216962  12.439   8.189   3.115
71689SOL     OW16963   1.820  13.226  12.615
71689SOL    HW116964   1.778  13.191  12.537
71689SOL    HW216965   1.798  13.164  12.685
71690SOL     OW16966   8.612   1.209  10.997
71690SOL    HW116967   8.690   1.213  11.052
71690SOL    HW216968   8.639   1.246  10.913
71691SOL     OW16969   0.915   2.060   6.462
71691SOL    HW116970   0.924   2.035   6.370
71691SOL    HW216971   0.955   2.147   6.468
71692SOL     OW16972   7.509   5.878   2.897
71692SOL    HW116973   7.600   5.897   2.872
71692SOL    HW216974   7.509   5.784   2.914
71693SOL     OW16975   9.390   0.752   3.686
71693SOL    HW116976   9.355   0.731   3.599
71693SOL    HW216977   9.477   0.788   3.669
71694SOL     OW16978  10.436  14.266   6.685
71694SOL    HW116979  10.472  14.354   6.673
71694SOL    HW216980  10.366  14.260   6.620
71695SOL     OW16981   8.525   1.637   2.871
71695SOL    HW116982   8.550   1.568   2.932
71695SOL    HW216983   8.462   1.596   2.812
71696SOL     OW16984  13.864  10.216  10.385
71696SOL    HW116985  13.862  10.298  10.336
71696SOL    HW216986  13.830  10.151  10.324
71697SOL     OW16987   9.501   6.694  10.968
71697SOL    HW116988   9.501   6.691  10.872
71697SOL    HW216989   9.410   6.708  10.992
71698SOL     OW16990  10.046   8.368   0.573
71698SOL    HW116991   9.982   8.359   0.645
71698SOL    HW216992  10.025   8.295   0.514
71699SOL     OW16993  10.155   7.923  12.865
71699SOL    HW116994  10.191   7.997  12.915
71699SOL    HW216995  10.156   7.850  12.928
71700SOL     OW16996   0.695  13.377   7.015
71700SOL    HW116997   0.701  13.379   7.110
71700SOL    HW216998   0.779  13.412   6.985
71701SOL     OW16999  12.105  12.029   0.370
71701SOL    HW117000  12.046  11.961   0.337
71701SOL    HW217001  12.055  12.110   0.363
71702SOL     OW17002  10.045   6.802  12.045
71702SOL    HW117003  10.134   6.806  12.011
71702SOL    HW217004  10.023   6.892  12.066
71703SOL     OW17005   6.556   4.896  12.598
71703SOL    HW117006   6.599   4.867  12.678
71703SOL    HW217007   6.628   4.918  12.539
71704SOL     OW17008   4.551   1.804   1.427
71704SOL    HW117009   4.551   1.891   1.387
71704SOL    HW217010   4.477   1.805   1.487
71705SOL     OW17011   0.160   5.951   9.916
71705SOL    HW117012   0.166   5.856   9.914
71705SOL    HW217013   0.080   5.969   9.965
71706SOL     OW17014   1.572  12.936   7.417
71706SOL    HW117015   1.595  13.004   7.354
71706SOL    HW217016   1.651  12.925   7.470
71707SOL     OW17017   4.079   5.343  13.285
71707SOL    HW117018   4.053   5.433  13.267
71707SOL    HW217019   3.996   5.296  13.298
71708SOL     OW17020   1.921  10.665   1.505
71708SOL    HW117021   1.963  10.711   1.577
71708SOL    HW217022   1.938  10.720   1.428
71709SOL     OW17023   4.474  14.296  12.280
71709SOL    HW117024   4.431  14.211  12.282
71709SOL    HW217025   4.427  14.346  12.213
71710SOL     OW17026   2.682   4.465   0.334
71710SOL    HW117027   2.626   4.401   0.377
71710SOL    HW217028   2.629   4.498   0.261
71711SOL     OW17029   6.897   2.704   9.062
71711SOL    HW117030   6.871   2.786   9.105
71711SOL    HW217031   6.826   2.643   9.081
71712SOL     OW17032  10.616   4.369  14.740
71712SOL    HW117033  10.619   4.425  14.662
71712SOL    HW217034  10.707   4.367  14.771
71713SOL     OW17035   3.334   2.380  14.398
71713SOL    HW117036   3.348   2.289  14.424
71713SOL    HW217037   3.313   2.374  14.304
71714SOL     OW17038  12.676  10.104   9.253
71714SOL    HW117039  12.644  10.144   9.334
71714SOL    HW217040  12.764  10.073   9.276
71715SOL     OW17041   0.138  13.589   6.934
71715SOL    HW117042   0.169  13.499   6.921
71715SOL    HW217043   0.217  13.642   6.935
71716SOL     OW17044   4.801   2.146   4.730
71716SOL    HW117045   4.720   2.106   4.698
71716SOL    HW217046   4.842   2.182   4.651
71717SOL     OW17047   3.443   3.745  14.078
71717SOL    HW117048   3.423   3.696  13.998
71717SOL    HW217049   3.439   3.680  14.148
71718SOL     OW17050   9.873   7.679  11.236
71718SOL    HW117051   9.817   7.725  11.297
71718SOL    HW217052   9.869   7.587  11.263
71719SOL     OW17053   7.219   2.409   6.334
71719SOL    HW117054   7.177   2.341   6.281
71719SOL    HW217055   7.282   2.362   6.389
71720SOL     OW17056   8.864   7.071   0.944
71720SOL    HW117057   8.951   7.040   0.920
71720SOL    HW217058   8.843   7.137   0.878
71721SOL     OW17059   5.061   1.301   0.354
71721SOL    HW117060   5.140   1.270   0.309
71721SOL    HW217061   5.058   1.251   0.436
71722SOL     OW17062   9.578  11.035   3.270
71722SOL    HW117063   9.660  11.078   3.297
71722SOL    HW217064   9.511  11.101   3.286
71723SOL     OW17065  11.705   9.753   3.291
71723SOL    HW117066  11.677   9.675   3.242
71723SOL    HW217067  11.702   9.823   3.226
71724SOL     OW17068   9.952   8.568   8.582
71724SOL    HW117069   9.932   8.638   8.644
71724SOL    HW217070   9.953   8.488   8.636
71725SOL     OW17071   2.431  11.933  12.265
71725SOL    HW117072   2.521  11.904  12.280
71725SOL    HW217073   2.378  11.855  12.282
71726SOL     OW17074   2.738   0.841   7.597
71726SOL    HW117075   2.824   0.870   7.628
71726SOL    HW217076   2.693   0.922   7.572
71727SOL     OW17077  10.763   0.795   4.205
71727SOL    HW117078  10.722   0.719   4.164
71727SOL    HW217079  10.813   0.836   4.135
71728SOL     OW17080   5.434  11.520   0.388
71728SOL    HW117081   5.357  11.577   0.386
71728SOL    HW217082   5.409  11.448   0.447
71729SOL     OW17083   2.847  11.557  13.920
71729SOL    HW117084   2.868  11.650  13.931
71729SOL    HW217085   2.847  11.522  14.009
71730SOL     OW17086  12.866   7.528   8.934
71730SOL    HW117087  12.918   7.465   8.884
71730SOL    HW217088  12.818   7.578   8.868
71731SOL     OW17089   4.114  11.125   2.890
71731SOL    HW117090   4.044  11.087   2.837
71731SOL    HW217091   4.069  11.169   2.962
71732SOL     OW17092   6.352  13.852   3.592
71732SOL    HW117093   6.372  13.857   3.498
71732SOL    HW217094   6.276  13.909   3.603
71733SOL     OW17095  14.385   0.380   1.643
71733SOL    HW117096  14.473   0.347   1.662
71733SOL    HW217097  14.399   0.472   1.621
71734SOL     OW17098   1.882   0.025   8.625
71734SOL    HW117099   1.791  14.876   8.623
71734SOL    HW217100   1.933  14.825   8.610
71735SOL     OW17101  10.693  12.658  13.531
71735SOL    HW117102  10.619  12.666  13.592
71735SOL    HW217103  10.739  12.741  13.538
71736SOL     OW17104   8.289   1.794   1.198
71736SOL    HW117105   8.232   1.870   1.205
71736SOL    HW217106   8.251   1.741   1.128
71737SOL     OW17107   9.393   2.498  14.768
71737SOL    HW117108   9.341   2.503  14.849
71737SOL    HW217109   9.397   2.405  14.748
71738SOL     OW17110   8.538   8.039   2.546
71738SOL    HW117111   8.454   8.005   2.577
71738SOL    HW217112   8.534   8.133   2.566
71739SOL     OW17113   2.911   2.960   7.789
71739SOL    HW117114   2.838   2.900   7.774
71739SOL    HW217115   2.908   3.021   7.716
71740SOL     OW17116  11.337   1.523   2.858
71740SOL    HW117117  11.400   1.488   2.795
71740SOL    HW217118  11.327   1.615   2.835
71741SOL     OW17119  14.628   3.042   1.038
71741SOL    HW117120  14.689   3.031   1.110
71741SOL    HW217121  14.564   2.971   1.050
71742SOL     OW17122   3.796  10.739   9.225
71742SOL    HW117123   3.716  10.789   9.209
71742SOL    HW217124   3.853  10.799   9.272
71743SOL     OW17125   2.485  13.456   2.842
71743SOL    HW117126   2.538  13.390   2.887
71743SOL    HW217127   2.487  13.532   2.900
71744SOL     OW17128  14.328   1.600   7.897
71744SOL    HW117129  14.251   1.544   7.890
71744SOL    HW217130  14.400   1.548   7.863
71745SOL     OW17131  12.643   7.215   5.014
71745SOL    HW117132  12.593   7.170   4.946
71745SOL    HW217133  12.613   7.306   5.009
71746SOL     OW17134  10.949  11.596  10.515
71746SOL    HW117135  10.927  11.523  10.572
71746SOL    HW217136  10.966  11.555  10.430
71747SOL     OW17137  14.619  10.069   6.108
71747SOL    HW117138  14.681  10.007   6.070
71747SOL    HW217139  14.669  10.113   6.177
71748SOL     OW17140   2.446   9.987   0.340
71748SOL    HW117141   2.491   9.926   0.281
71748SOL    HW217142   2.411   9.932   0.410
71749SOL     OW17143   7.903  10.774   6.071
71749SOL    HW117144   7.836  10.831   6.034
71749SOL    HW217145   7.984  10.824   6.065
71750SOL     OW17146  14.342   3.294   8.716
71750SOL    HW117147  14.425   3.290   8.763
71750SOL    HW217148  14.285   3.348   8.771
71751SOL     OW17149   3.151  14.463   6.813
71751SOL    HW117150   3.200  14.412   6.749
71751SOL    HW217151   3.063  14.425   6.812
71752SOL     OW17152   8.255  13.530   7.651
71752SOL    HW117153   8.324  13.545   7.715
71752SOL    HW217154   8.176  13.567   7.691
71753SOL     OW17155   6.603   1.445   9.036
71753SOL    HW117156   6.550   1.523   9.052
71753SOL    HW217157   6.692   1.478   9.026
71754SOL     OW17158   3.669   6.607  11.986
71754SOL    HW117159   3.738   6.601  11.919
71754SOL    HW217160   3.595   6.559  11.948
71755SOL     OW17161   8.228  10.299   0.061
71755SOL    HW117162   8.272  10.267   0.140
71755SOL    HW217163   8.275  10.258  14.869
71756SOL     OW17164   6.010   7.706  10.144
71756SOL    HW117165   6.041   7.710  10.235
71756SOL    HW217166   5.995   7.797  10.120
71757SOL     OW17167   3.940   3.860   7.023
71757SOL    HW117168   3.981   3.904   7.098
71757SOL    HW217169   3.893   3.786   7.062
71758SOL     OW17170   4.078  10.402   3.222
71758SOL    HW117171   4.136  10.401   3.299
71758SOL    HW217172   4.131  10.443   3.153
71759SOL     OW17173  11.505   9.453   4.903
71759SOL    HW117174  11.414   9.473   4.925
71759SOL    HW217175  11.537   9.404   4.978
71760SOL     OW17176   4.683  12.248   4.978
71760SOL    HW117177   4.610  12.192   4.953
71760SOL    HW217178   4.756  12.187   4.993
71761SOL     OW17179  14.049   8.086   8.070
71761SOL    HW117180  14.120   8.082   8.006
71761SOL    HW217181  14.049   8.001   8.113
71762SOL     OW17182   1.519   3.172  13.934
71762SOL    HW117183   1.474   3.185  13.850
71762SOL    HW217184   1.544   3.260  13.962
71763SOL     OW17185   4.010   0.443   0.026
71763SOL    HW117186   4.051   0.508  14.850
71763SOL    HW217187   4.018   0.361  14.859
71764SOL     OW17188   4.616   3.057   6.497
71764SOL    HW117189   4.685   3.100   6.446
71764SOL    HW217190   4.662   2.993   6.550
71765SOL     OW17191  14.711  14.009   8.876
71765SOL    HW117192  14.633  13.970   8.917
71765SOL    HW217193  14.780  13.998   8.941
71766SOL     OW17194   3.148   7.955   4.083
71766SOL    HW117195   3.238   7.945   4.114
71766SOL    HW217196   3.150   7.918   3.994
71767SOL     OW17197   4.857   4.644   9.976
71767SOL    HW117198   4.861   4.730  10.019
71767SOL    HW217199   4.765   4.632   9.954
71768SOL     OW17200  11.955   4.280   4.273
71768SOL    HW117201  11.919   4.196   4.244
71768SOL    HW217202  11.909   4.299   4.354
71769SOL     OW17203  14.139   9.633  12.044
71769SOL    HW117204  14.147   9.592  11.957
71769SOL    HW217205  14.113   9.724  12.025
71770SOL     OW17206  13.850  10.560   4.133
71770SOL    HW117207  13.829  10.644   4.094
71770SOL    HW217208  13.891  10.510   4.063
71771SOL     OW17209   6.296   1.459   1.617
71771SOL    HW117210   6.381   1.481   1.580
71771SOL    HW217211   6.261   1.393   1.558
71772SOL     OW17212   6.066   1.710  11.323
71772SOL    HW117213   5.977   1.697  11.290
71772SOL    HW217214   6.109   1.763  11.257
71773SOL     OW17215   3.943   4.677   9.542
71773SOL    HW117216   3.978   4.748   9.486
71773SOL    HW217217   3.877   4.720   9.596
71774SOL     OW17218   5.704   8.462  10.203
71774SOL    HW117219   5.733   8.383  10.250
71774SOL    HW217220   5.657   8.428  10.128
71775SOL     OW17221  12.048  10.681  12.383
71775SOL    HW117222  12.085  10.729  12.310
71775SOL    HW217223  12.119  10.625  12.415
71776SOL     OW17224   6.666   1.745   0.709
71776SOL    HW117225   6.648   1.671   0.766
71776SOL    HW217226   6.741   1.789   0.749
71777SOL     OW17227  11.835   4.600  10.345
71777SOL    HW117228  11.851   4.523  10.291
71777SOL    HW217229  11.875   4.579  10.429
71778SOL     OW17230  12.887  14.449  13.161
71778SOL    HW117231  12.807  14.485  13.200
71778SOL    HW217232  12.874  14.354  13.163
71779SOL     OW17233   1.140   9.361   6.173
71779SOL    HW117234   1.109   9.352   6.263
71779SOL    HW217235   1.135   9.273   6.137
71780SOL     OW17236   8.200   7.179  10.906
71780SOL    HW117237   8.228   7.248  10.966
71780SOL    HW217238   8.253   7.103  10.930
71781SOL     OW17239  10.729   6.881   5.668
71781SOL    HW117240  10.707   6.915   5.581
71781SOL    HW217241  10.718   6.787   5.660
71782SOL     OW17242  11.310   9.593  11.340
71782SOL    HW117243  11.266   9.577  11.256
71782SOL    HW217244  11.358   9.512  11.357
71783SOL     OW17245   9.217   4.577  10.391
71783SOL    HW117246   9.124   4.561  10.378
71783SOL    HW217247   9.234   4.548  10.480
71784SOL     OW17248  12.254  13.713  10.864
71784SOL    HW117249  12.347  13.730  10.878
71784SOL    HW217250  12.252  13.652  10.790
71785SOL     OW17251  10.110   4.692  13.524
71785SOL    HW117252  10.135   4.673  13.434
71785SOL    HW217253  10.048   4.623  13.547
71786SOL     OW17254   0.383   1.676   2.695
71786SOL    HW117255   0.394   1.583   2.712
71786SOL    HW217256   0.447   1.696   2.627
71787SOL     OW17257   6.383   0.870   2.591
71787SOL    HW117258   6.354   0.954   2.556
71787SOL    HW217259   6.472   0.886   2.621
71788SOL     OW17260   4.581  12.580  13.276
71788SOL    HW117261   4.629  12.534  13.207
71788SOL    HW217262   4.500  12.608  13.234
71789SOL     OW17263   7.667   3.881   6.346
71789SOL    HW117264   7.703   3.880   6.434
71789SOL    HW217265   7.656   3.789   6.323
71790SOL     OW17266   3.680   1.413   5.992
71790SOL    HW117267   3.768   1.444   6.014
71790SOL    HW217268   3.636   1.405   6.077
71791SOL     OW17269   9.898   5.873   0.213
71791SOL    HW117270   9.924   5.790   0.173
71791SOL    HW217271   9.917   5.862   0.306
71792SOL     OW17272   7.233   9.297   9.549
71792SOL    HW117273   7.186   9.371   9.589
71792SOL    HW217274   7.313   9.336   9.515
71793SOL     OW17275  10.706  14.842  13.464
71793SOL    HW117276  10.779  14.800  13.510
71793SOL    HW217277  10.628  14.801  13.500
71794SOL     OW17278   3.101  14.245   1.677
71794SOL    HW117279   3.129  14.174   1.620
71794SOL    HW217280   3.025  14.282   1.633
71795SOL     OW17281   6.877  10.374   2.590
71795SOL    HW117282   6.834  10.391   2.673
71795SOL    HW217283   6.957  10.327   2.614
71796SOL     OW17284   7.876  14.237   8.380
71796SOL    HW117285   7.866  14.198   8.467
71796SOL    HW217286   7.925  14.318   8.396
71797SOL     OW17287  13.317   8.066   4.034
71797SOL    HW117288  13.319   7.976   4.000
71797SOL    HW217289  13.265   8.114   3.970
71798SOL     OW17290   4.896  12.937   2.445
71798SOL    HW117291   4.942  12.861   2.411
71798SOL    HW217292   4.859  12.979   2.367
71799SOL     OW17293  10.594   3.475  13.695
71799SOL    HW117294  10.680   3.446  13.724
71799SOL    HW217295  10.547   3.494  13.777
71800SOL     OW17296   2.803  14.437   0.710
71800SOL    HW117297   2.848  14.429   0.794
71800SOL    HW217298   2.729  14.376   0.716
71801SOL     OW17299   4.932  13.156   6.847
71801SOL    HW117300   4.918  13.061   6.851
71801SOL    HW217301   4.854  13.190   6.803
71802SOL     OW17302   1.852   4.964  13.208
71802SOL    HW117303   1.823   4.936  13.295
71802SOL    HW217304   1.771   4.978  13.159
71803SOL     OW17305   7.114  13.503   9.375
71803SOL    HW117306   7.208  13.491   9.360
71803SOL    HW217307   7.109  13.561   9.451
71804SOL     OW17308   3.339   5.795   1.465
71804SOL    HW117309   3.366   5.873   1.417
71804SOL    HW217310   3.417   5.740   1.466
71805SOL     OW17311   6.260   8.229   1.826
71805SOL    HW117312   6.341   8.264   1.788
71805SOL    HW217313   6.217   8.184   1.753
71806SOL     OW17314   2.890   9.472   6.902
71806SOL    HW117315   2.820   9.483   6.967
71806SOL    HW217316   2.902   9.378   6.895
71807SOL     OW17317  14.237   6.988   0.520
71807SOL    HW117318  14.143   6.997   0.507
71807SOL    HW217319  14.258   7.049   0.590
71808SOL     OW17320  14.820   0.027  12.743
71808SOL    HW117321   0.021  14.880  12.701
71808SOL    HW217322  14.847   0.064  12.827
71809SOL     OW17323   2.816  12.724   4.226
71809SOL    HW117324   2.741  12.782   4.239
71809SOL    HW217325   2.835  12.690   4.314
71810SOL     OW17326   2.320   3.576   3.838
71810SOL    HW117327   2.375   3.542   3.766
71810SOL    HW217328   2.382   3.594   3.909
71811SOL     OW17329   2.002   3.698  12.398
71811SOL    HW117330   1.931   3.736  12.347
71811SOL    HW217331   2.066   3.769  12.407
71812SOL     OW17332  12.972   1.973   5.258
71812SOL    HW117333  12.908   2.043   5.275
71812SOL    HW217334  12.936   1.897   5.304
71813SOL     OW17335   6.206   7.930  11.532
71813SOL    HW117336   6.253   7.860  11.488
71813SOL    HW217337   6.198   7.999  11.466
71814SOL     OW17338   7.362   6.703   9.104
71814SOL    HW117339   7.285   6.760   9.100
71814SOL    HW217340   7.379   6.678   9.013
71815SOL     OW17341   4.590  13.601  12.402
71815SOL    HW117342   4.679  13.617  12.436
71815SOL    HW217343   4.571  13.679  12.350
71816SOL     OW17344   7.001   9.274   4.529
71816SOL    HW117345   7.039   9.297   4.445
71816SOL    HW217346   7.031   9.185   4.546
71817SOL     OW17347   1.370   5.533   2.436
71817SOL    HW117348   1.340   5.541   2.346
71817SOL    HW217349   1.465   5.540   2.430
71818SOL     OW17350  12.159   1.379   5.284
71818SOL    HW117351  12.125   1.446   5.225
71818SOL    HW217352  12.244   1.355   5.246
71819SOL     OW17353   9.301   9.295   8.940
71819SOL    HW117354   9.370   9.359   8.955
71819SOL    HW217355   9.310   9.233   9.012
71820SOL     OW17356   9.884   4.974   6.263
71820SOL    HW117357   9.901   4.957   6.356
71820SOL    HW217358   9.870   4.887   6.225
71821SOL     OW17359   5.561   4.979   3.761
71821SOL    HW117360   5.638   5.005   3.710
71821SOL    HW217361   5.597   4.930   3.836
71822SOL     OW17362  14.473   7.581   7.686
71822SOL    HW117363  14.473   7.661   7.634
71822SOL    HW217364  14.563   7.549   7.680
71823SOL     OW17365   6.841   7.242   6.758
71823SOL    HW117366   6.822   7.333   6.780
71823SOL    HW217367   6.851   7.198   6.842
71824SOL     OW17368  12.666   3.404   2.882
71824SOL    HW117369  12.628   3.460   2.813
71824SOL    HW217370  12.595   3.344   2.905
71825SOL     OW17371   3.252  14.041   8.730
71825SOL    HW117372   3.161  14.026   8.758
71825SOL    HW217373   3.281  14.115   8.783
71826SOL     OW17374  11.284   7.194  14.453
71826SOL    HW117375  11.323   7.278  14.478
71826SOL    HW217376  11.345   7.158  14.388
71827SOL     OW17377   8.637   6.182  11.838
71827SOL    HW117378   8.719   6.168  11.790
71827SOL    HW217379   8.577   6.218  11.773
71828SOL     OW17380   6.652  12.857   3.642
71828SOL    HW117381   6.678  12.772   3.678
71828SOL    HW217382   6.631  12.838   3.550
71829SOL     OW17383   3.234   2.336  14.805
71829SOL    HW117384   3.240   2.380   0.010
71829SOL    HW217385   3.268   2.400  14.743
71830SOL     OW17386   4.920   0.049   3.635
71830SOL    HW117387   4.880   0.102   3.705
71830SOL    HW217388   4.908   0.101   3.556
71831SOL     OW17389   9.970   5.892   8.951
71831SOL    HW117390   9.920   5.810   8.952
71831SOL    HW217391   9.997   5.904   9.043
71832SOL     OW17392   4.206  10.026  12.131
71832SOL    HW117393   4.209   9.978  12.048
71832SOL    HW217394   4.187   9.959  12.197
71833SOL     OW17395   9.933   8.508  12.341
71833SOL    HW117396   9.870   8.525  12.271
71833SOL    HW217397  10.015   8.489  12.296
71834SOL     OW17398   8.878   6.623  10.795
71834SOL    HW117399   8.890   6.683  10.868
71834SOL    HW217400   8.883   6.535  10.834
71835SOL     OW17401  13.253   5.828  13.342
71835SOL    HW117402  13.316   5.876  13.396
71835SOL    HW217403  13.178   5.814  13.400
71836SOL     OW17404   8.275   5.558  13.047
71836SOL    HW117405   8.317   5.618  13.109
71836SOL    HW217406   8.339   5.488  13.034
71837SOL     OW17407  12.195  13.555   1.471
71837SOL    HW117408  12.243  13.477   1.441
71837SOL    HW217409  12.235  13.577   1.555
71838SOL     OW17410  13.946   4.658   1.262
71838SOL    HW117411  13.915   4.736   1.217
71838SOL    HW217412  13.910   4.666   1.351
71839SOL     OW17413  10.407   4.010  13.751
71839SOL    HW117414  10.441   4.036  13.665
71839SOL    HW217415  10.484   4.002  13.806
71840SOL     OW17416   9.875  12.103  12.683
71840SOL    HW117417   9.874  12.198  12.670
71840SOL    HW217418   9.820  12.069  12.612
71841SOL     OW17419   3.813   6.915   6.163
71841SOL    HW117420   3.884   6.953   6.216
71841SOL    HW217421   3.851   6.836   6.126
71842SOL     OW17422   4.935   8.136   3.921
71842SOL    HW117423   4.984   8.141   4.003
71842SOL    HW217424   4.955   8.217   3.875
71843SOL     OW17425   8.621  12.662   8.088
71843SOL    HW117426   8.713  12.642   8.067
71843SOL    HW217427   8.571  12.623   8.017
71844SOL     OW17428  14.016   3.184   0.816
71844SOL    HW117429  14.025   3.171   0.910
71844SOL    HW217430  14.103   3.166   0.781
71845SOL     OW17431  14.442   2.230   8.050
71845SOL    HW117432  14.478   2.159   7.997
71845SOL    HW217433  14.362   2.194   8.087
71846SOL     OW17434  12.074  11.238  11.775
71846SOL    HW117435  12.030  11.320  11.751
71846SOL    HW217436  12.032  11.172  11.720
71847SOL     OW17437   6.776  10.131  11.576
71847SOL    HW117438   6.684  10.133  11.603
71847SOL    HW217439   6.814  10.208  11.618
71848SOL     OW17440  14.605   4.042   8.656
71848SOL    HW117441  14.629   4.058   8.565
71848SOL    HW217442  14.542   4.110   8.677
71849SOL     OW17443  12.158  13.212   6.181
71849SOL    HW117444  12.156  13.299   6.220
71849SOL    HW217445  12.250  13.196   6.162
71850SOL     OW17446   5.695   9.538  14.109
71850SOL    HW117447   5.653   9.459  14.143
71850SOL    HW217448   5.785   9.533  14.142
71851SOL     OW17449  11.090   1.534   5.292
71851SOL    HW117450  11.028   1.605   5.276
71851SOL    HW217451  11.084   1.479   5.214
71852SOL     OW17452   2.771   3.492  11.429
71852SOL    HW117453   2.783   3.399  11.449
71852SOL    HW217454   2.829   3.537  11.490
71853SOL     OW17455  11.633   2.442   2.538
71853SOL    HW117456  11.627   2.536   2.523
71853SOL    HW217457  11.577   2.426   2.614
71854SOL     OW17458   0.743   8.935   7.951
71854SOL    HW117459   0.705   8.871   8.011
71854SOL    HW217460   0.806   8.886   7.899
71855SOL     OW17461  12.030   6.437   3.820
71855SOL    HW117462  11.956   6.379   3.802
71855SOL    HW217463  11.995   6.504   3.878
71856SOL     OW17464   3.760   3.202   3.988
71856SOL    HW117465   3.691   3.262   4.018
71856SOL    HW217466   3.717   3.118   3.978
71857SOL     OW17467  14.261   9.948   1.407
71857SOL    HW117468  14.354   9.940   1.386
71857SOL    HW217469  14.249   9.890   1.483
71858SOL     OW17470   2.286   0.813  12.485
71858SOL    HW117471   2.211   0.815  12.426
71858SOL    HW217472   2.329   0.898  12.473
71859SOL     OW17473   9.351   4.990   3.514
71859SOL    HW117474   9.405   4.970   3.438
71859SOL    HW217475   9.330   5.083   3.505
71860SOL     OW17476  11.952   4.179  14.156
71860SOL    HW117477  11.913   4.263  14.128
71860SOL    HW217478  11.938   4.178  14.250
71861SOL     OW17479   2.608  11.765   1.380
71861SOL    HW117480   2.517  11.739   1.367
71861SOL    HW217481   2.655  11.683   1.395
71862SOL     OW17482  12.385   4.479   9.922
71862SOL    HW117483  12.401   4.429   9.841
71862SOL    HW217484  12.473   4.498   9.956
71863SOL     OW17485  10.981   6.303   3.538
71863SOL    HW117486  11.013   6.305   3.448
71863SOL    HW217487  10.889   6.278   3.530
71864SOL     OW17488  12.187   5.260   7.966
71864SOL    HW117489  12.180   5.226   7.876
71864SOL    HW217490  12.271   5.226   7.997
71865SOL     OW17491  11.369  10.959   3.772
71865SOL    HW117492  11.449  10.958   3.719
71865SOL    HW217493  11.382  10.890   3.836
71866SOL     OW17494   2.077  12.033  10.823
71866SOL    HW117495   2.079  12.079  10.906
71866SOL    HW217496   2.156  11.978  10.824
71867SOL     OW17497  14.766   0.345   5.710
71867SOL    HW117498  14.833   0.281   5.734
71867SOL    HW217499  14.808   0.430   5.725
71868SOL     OW17500   3.512  14.347   9.205
71868SOL    HW117501   3.492  14.394   9.286
71868SOL    HW217502   3.484  14.257   9.222
71869SOL     OW17503  14.379   8.837   6.033
71869SOL    HW117504  14.320   8.802   6.101
71869SOL    HW217505  14.369   8.932   6.040
71870SOL     OW17506   3.127   5.506   8.899
71870SOL    HW117507   3.216   5.520   8.866
71870SOL    HW217508   3.106   5.587   8.946
71871SOL     OW17509  10.604   7.203   2.904
71871SOL    HW117510  10.667   7.165   2.965
71871SOL    HW217511  10.540   7.247   2.959
71872SOL     OW17512  10.541   8.536  11.091
71872SOL    HW117513  10.461   8.495  11.125
71872SOL    HW217514  10.522   8.630  11.091
71873SOL     OW17515   2.596   9.748   1.982
71873SOL    HW117516   2.563   9.816   1.924
71873SOL    HW217517   2.612   9.673   1.926
71874SOL     OW17518  13.828  13.935   4.659
71874SOL    HW117519  13.766  14.001   4.626
71874SOL    HW217520  13.793  13.852   4.629
71875SOL     OW17521   3.221   0.020   0.493
71875SOL    HW117522   3.282   0.040   0.421
71875SOL    HW217523   3.212  14.805   0.491
71876SOL     OW17524   4.817  12.671   8.406
71876SOL    HW117525   4.856  12.653   8.320
71876SOL    HW217526   4.891  12.676   8.466
71877SOL     OW17527   7.287  10.107  14.537
71877SOL    HW117528   7.306  10.201  14.533
71877SOL    HW217529   7.263  10.091  14.628
71878SOL     OW17530   5.255  12.089  10.235
71878SOL    HW117531   5.301  12.070  10.154
71878SOL    HW217532   5.173  12.039  10.228
71879SOL     OW17533   0.798  11.764   7.135
71879SOL    HW117534   0.732  11.734   7.072
71879SOL    HW217535   0.856  11.688   7.146
71880SOL     OW17536  10.104  13.872  10.200
71880SOL    HW117537  10.051  13.813  10.254
71880SOL    HW217538  10.192  13.835  10.203
71881SOL     OW17539   8.598  12.032  14.159
71881SOL    HW117540   8.558  12.003  14.241
71881SOL    HW217541   8.530  12.020  14.093
71882SOL     OW17542   6.803   0.685  13.871
71882SOL    HW117543   6.808   0.595  13.901
71882SOL    HW217544   6.739   0.727  13.929
71883SOL     OW17545  12.316  10.663   9.904
71883SOL    HW117546  12.268  10.640   9.824
71883SOL    HW217547  12.384  10.596   9.911
71884SOL     OW17548  14.314  13.837  10.335
71884SOL    HW117549  14.379  13.850  10.404
71884SOL    HW217550  14.300  13.925  10.298
71885SOL     OW17551   2.682  10.300   0.757
71885SOL    HW117552   2.708  10.376   0.705
71885SOL    HW217553   2.640  10.241   0.695
71886SOL     OW17554   1.915  10.986   2.943
71886SOL    HW117555   2.007  11.006   2.926
71886SOL    HW217556   1.867  11.038   2.879
71887SOL     OW17557   7.019  11.619   5.872
71887SOL    HW117558   7.103  11.643   5.910
71887SOL    HW217559   6.954  11.650   5.935
71888SOL     OW17560  10.588   1.982  11.093
71888SOL    HW117561  10.553   2.033  11.165
71888SOL    HW217562  10.530   1.906  11.087
71889SOL     OW17563   7.407   1.996   6.769
71889SOL    HW117564   7.387   1.999   6.863
71889SOL    HW217565   7.338   2.049   6.728
71890SOL     OW17566  10.909  11.565  11.988
71890SOL    HW117567  10.897  11.537  12.079
71890SOL    HW217568  10.902  11.660  11.991
71891SOL     OW17569  13.080   7.339   9.174
71891SOL    HW117570  13.090   7.269   9.110
71891SOL    HW217571  13.142   7.318   9.243
71892SOL     OW17572   8.609  14.104  12.129
71892SOL    HW117573   8.546  14.032  12.130
71892SOL    HW217574   8.628  14.121  12.221
71893SOL     OW17575   8.025   8.759  12.109
71893SOL    HW117576   8.042   8.726  12.021
71893SOL    HW217577   7.929   8.762  12.115
71894SOL     OW17578  11.588   0.973  12.509
71894SOL    HW117579  11.564   0.915  12.581
71894SOL    HW217580  11.639   0.918  12.450
71895SOL     OW17581   6.047   1.359   2.519
71895SOL    HW117582   6.141   1.375   2.515
71895SOL    HW217583   6.009   1.421   2.456
71896SOL     OW17584  12.953   4.667   8.597
71896SOL    HW117585  12.874   4.662   8.543
71896SOL    HW217586  13.003   4.589   8.572
71897SOL     OW17587   0.950   2.578   7.878
71897SOL    HW117588   1.042   2.556   7.870
71897SOL    HW217589   0.949   2.659   7.929
71898SOL     OW17590   0.832   8.532  10.284
71898SOL    HW117591   0.765   8.558  10.348
71898SOL    HW217592   0.847   8.439  10.300
71899SOL     OW17593  12.493  14.234  14.130
71899SOL    HW117594  12.440  14.310  14.150
71899SOL    HW217595  12.583  14.265  14.134
71900SOL     OW17596   7.909  13.291  12.840
71900SOL    HW117597   7.985  13.322  12.789
71900SOL    HW217598   7.946  13.265  12.924
71901SOL     OW17599   0.516   6.493   4.639
71901SOL    HW117600   0.457   6.542   4.581
71901SOL    HW217601   0.486   6.403   4.634
71902SOL     OW17602  14.463   1.838   1.071
71902SOL    HW117603  14.442   1.762   1.125
71902SOL    HW217604  14.416   1.911   1.111
71903SOL     OW17605   1.285  11.141  14.795
71903SOL    HW117606   1.269  11.218  14.741
71903SOL    HW217607   1.344  11.172  14.864
71904SOL     OW17608   8.924  11.499  12.310
71904SOL    HW117609   8.987  11.495  12.239
71904SOL    HW217610   8.973  11.532  12.385
71905SOL     OW17611   2.124  10.121   3.061
71905SOL    HW117612   2.207  10.122   3.013
71905SOL    HW217613   2.064  10.073   3.003
71906SOL     OW17614   7.801  11.895   6.615
71906SOL    HW117615   7.886  11.879   6.575
71906SOL    HW217616   7.822  11.925   6.704
71907SOL     OW17617   2.692  12.335   9.788
71907SOL    HW117618   2.625  12.272   9.814
71907SOL    HW217619   2.655  12.420   9.810
71908SOL     OW17620   1.274   9.973   5.813
71908SOL    HW117621   1.216  10.000   5.884
71908SOL    HW217622   1.248  10.028   5.739
71909SOL     OW17623   1.854   7.361  10.834
71909SOL    HW117624   1.830   7.321  10.918
71909SOL    HW217625   1.776   7.353  10.780
71910SOL     OW17626   5.827   1.283  10.706
71910SOL    HW117627   5.785   1.252  10.786
71910SOL    HW217628   5.910   1.322  10.736
71911SOL     OW17629   8.875  14.335  13.225
71911SOL    HW117630   8.946  14.384  13.266
71911SOL    HW217631   8.796  14.385  13.245
71912SOL     OW17632  11.531  11.488   3.455
71912SOL    HW117633  11.553  11.416   3.396
71912SOL    HW217634  11.436  11.479   3.470
71913SOL     OW17635   4.547   7.844  10.064
71913SOL    HW117636   4.592   7.837  10.148
71913SOL    HW217637   4.526   7.754  10.039
71914SOL     OW17638  14.558   4.562   6.728
71914SOL    HW117639  14.550   4.615   6.807
71914SOL    HW217640  14.481   4.584   6.676
71915SOL     OW17641  11.094   2.764   1.397
71915SOL    HW117642  11.182   2.731   1.417
71915SOL    HW217643  11.110   2.845   1.348
71916SOL     OW17644   1.860  11.400  12.011
71916SOL    HW117645   1.816  11.372  12.091
71916SOL    HW217646   1.924  11.330  11.993
71917SOL     OW17647   5.678  11.679   6.756
71917SOL    HW117648   5.594  11.651   6.719
71917SOL    HW217649   5.671  11.774   6.761
71918SOL     OW17650   8.011   5.546   3.200
71918SOL    HW117651   8.013   5.642   3.198
71918SOL    HW217652   8.103   5.521   3.196
71919SOL     OW17653   4.901   7.203   9.464
71919SOL    HW117654   4.915   7.291   9.498
71919SOL    HW217655   4.828   7.212   9.402
71920SOL     OW17656  12.632   5.632  11.524
71920SOL    HW117657  12.675   5.715  11.544
71920SOL    HW217658  12.572   5.653  11.452
71921SOL     OW17659  14.853  10.071  11.129
71921SOL    HW117660  14.782  10.006  11.132
71921SOL    HW217661  14.843  10.120  11.211
71922SOL     OW17662   5.018   7.466  12.982
71922SOL    HW117663   5.073   7.434  13.053
71922SOL    HW217664   4.972   7.542  13.018
71923SOL     OW17665   5.295  11.217   9.068
71923SOL    HW117666   5.341  11.134   9.083
71923SOL    HW217667   5.316  11.271   9.144
71924SOL     OW17668   5.713   0.598   0.416
71924SOL    HW117669   5.747   0.555   0.337
71924SOL    HW217670   5.620   0.612   0.397
71925SOL     OW17671   0.065   0.955   5.700
71925SOL    HW117672  14.872   0.994   5.747
71925SOL    HW217673   0.132   1.024   5.697
71926SOL     OW17674  10.196   6.847   3.619
71926SOL    HW117675  10.251   6.777   3.655
71926SOL    HW217676  10.124   6.802   3.576
71927SOL     OW17677   6.969  10.809   2.568
71927SOL    HW117678   6.904  10.810   2.499
71927SOL    HW217679   7.008  10.896   2.566
71928SOL     OW17680  13.069   8.255  12.204
71928SOL    HW117681  13.027   8.341  12.199
71928SOL    HW217682  13.161   8.275  12.223
71929SOL     OW17683   9.450   7.673   1.557
71929SOL    HW117684   9.356   7.693   1.560
71929SOL    HW217685   9.492   7.747   1.602
71930SOL     OW17686   4.104   2.622  10.188
71930SOL    HW117687   4.045   2.624  10.263
71930SOL    HW217688   4.137   2.711  10.181
71931SOL     OW17689   3.024   9.442   6.062
71931SOL    HW117690   3.040   9.402   5.976
71931SOL    HW217691   3.020   9.368   6.122
71932SOL     OW17692  12.774  10.078   9.636
71932SOL    HW117693  12.823   9.995   9.636
71932SOL    HW217694  12.823  10.134   9.696
71933SOL     OW17695  14.087   9.754  14.189
71933SOL    HW117696  14.068   9.694  14.117
71933SOL    HW217697  14.136   9.702  14.252
71934SOL     OW17698  13.061   4.790  10.667
71934SOL    HW117699  13.077   4.745  10.584
71934SOL    HW217700  12.969   4.770  10.688
71935SOL     OW17701  13.816  13.294  10.793
71935SOL    HW117702  13.764  13.254  10.863
71935SOL    HW217703  13.889  13.335  10.838
71936SOL     OW17704   4.065   3.072  13.128
71936SOL    HW117705   4.069   3.020  13.048
71936SOL    HW217706   4.144   3.048  13.177
71937SOL     OW17707   9.815  11.195   1.341
71937SOL    HW117708   9.753  11.123   1.336
71937SOL    HW217709   9.779  11.253   1.409
71938SOL     OW17710  11.241   7.286  13.546
71938SOL    HW117711  11.202   7.348  13.608
71938SOL    HW217712  11.171   7.225  13.525
71939SOL     OW17713   6.980   3.610   8.611
71939SOL    HW117714   7.004   3.624   8.519
71939SOL    HW217715   7.064   3.598   8.655
71940SOL     OW17716   2.652   3.704   7.658
71940SOL    HW117717   2.733   3.754   7.656
71940SOL    HW217718   2.592   3.753   7.602
71941SOL     OW17719  14.082   5.263   7.034
71941SOL    HW117720  14.014   5.328   7.052
71941SOL    HW217721  14.135   5.302   6.965
71942SOL     OW17722   5.727  10.021  11.991
71942SOL    HW117723   5.775  10.050  12.068
71942SOL    HW217724   5.753  10.082  11.922
71943SOL     OW17725   6.196   6.033  11.923
71943SOL    HW117726   6.291   6.030  11.909
71943SOL    HW217727   6.180   6.118  11.962
71944SOL     OW17728   4.125  14.774  12.686
71944SOL    HW117729   4.082  14.839  12.741
71944SOL    HW217730   4.052  14.727  12.644
71945SOL     OW17731   3.402   0.876   1.978
71945SOL    HW117732   3.388   0.795   2.028
71945SOL    HW217733   3.460   0.849   1.906
71946SOL     OW17734  10.545   5.839  10.797
71946SOL    HW117735  10.491   5.775  10.751
71946SOL    HW217736  10.481   5.898  10.839
71947SOL     OW17737  14.778   1.942   2.681
71947SOL    HW117738  14.850   1.879   2.683
71947SOL    HW217739  14.728   1.925   2.761
71948SOL     OW17740   4.550   1.481   3.179
71948SOL    HW117741   4.636   1.479   3.138
71948SOL    HW217742   4.565   1.446   3.267
71949SOL     OW17743   6.019   4.594   7.266
71949SOL    HW117744   5.975   4.677   7.279
71949SOL    HW217745   5.959   4.543   7.212
71950SOL     OW17746   5.836   9.467   2.283
71950SOL    HW117747   5.925   9.462   2.249
71950SOL    HW217748   5.787   9.514   2.215
71951SOL     OW17749   2.305  12.366   9.629
71951SOL    HW117750   2.252  12.286   9.631
71951SOL    HW217751   2.247  12.432   9.592
71952SOL     OW17752  13.433  13.377   2.301
71952SOL    HW117753  13.379  13.437   2.353
71952SOL    HW217754  13.523  13.397   2.327
71953SOL     OW17755   7.776  14.498  11.948
71953SOL    HW117756   7.782  14.406  11.922
71953SOL    HW217757   7.749  14.543  11.868
71954SOL     OW17758   8.816   4.765   2.794
71954SOL    HW117759   8.740   4.804   2.837
71954SOL    HW217760   8.815   4.802   2.706
71955SOL     OW17761   6.898   9.862  11.140
71955SOL    HW117762   6.841   9.939  11.139
71955SOL    HW217763   6.858   9.802  11.077
71956SOL     OW17764  14.562   6.991  11.633
71956SOL    HW117765  14.603   6.938  11.565
71956SOL    HW217766  14.627   6.997  11.702
71957SOL     OW17767   2.137  14.201  10.864
71957SOL    HW117768   2.102  14.209  10.953
71957SOL    HW217769   2.087  14.129  10.825
71958SOL     OW17770   4.686   8.817  12.269
71958SOL    HW117771   4.659   8.883  12.205
71958SOL    HW217772   4.604   8.780  12.301
71959SOL     OW17773   8.258   8.772   8.848
71959SOL    HW117774   8.180   8.773   8.903
71959SOL    HW217775   8.306   8.851   8.872
71960SOL     OW17776  12.812   0.838   0.902
71960SOL    HW117777  12.870   0.906   0.868
71960SOL    HW217778  12.787   0.787   0.825
71961SOL     OW17779  10.440   4.416   9.575
71961SOL    HW117780  10.412   4.463   9.497
71961SOL    HW217781  10.373   4.348   9.587
71962SOL     OW17782   3.378   5.218   5.915
71962SOL    HW117783   3.284   5.225   5.897
71962SOL    HW217784   3.417   5.292   5.869
71963SOL     OW17785   5.494   7.889  11.571
71963SOL    HW117786   5.407   7.912  11.604
71963SOL    HW217787   5.493   7.915  11.479
71964SOL     OW17788   5.533   4.599   5.288
71964SOL    HW117789   5.462   4.620   5.349
71964SOL    HW217790   5.590   4.676   5.291
71965SOL     OW17791   7.754  11.505  14.215
71965SOL    HW117792   7.838  11.550  14.231
71965SOL    HW217793   7.766  11.418  14.254
71966SOL     OW17794  13.524  13.303  14.395
71966SOL    HW117795  13.497  13.297  14.487
71966SOL    HW217796  13.565  13.389  14.388
71967SOL     OW17797  13.726   1.955  13.346
71967SOL    HW117798  13.753   1.930  13.434
71967SOL    HW217799  13.805   1.948  13.293
71968SOL     OW17800   6.561  13.433   8.061
71968SOL    HW117801   6.524  13.428   8.149
71968SOL    HW217802   6.533  13.352   8.019
71969SOL     OW17803  14.417  12.859   4.518
71969SOL    HW117804  14.442  12.771   4.545
71969SOL    HW217805  14.479  12.881   4.449
71970SOL     OW17806   9.955  10.711   5.704
71970SOL    HW117807  10.004  10.780   5.659
71970SOL    HW217808   9.961  10.635   5.647
71971SOL     OW17809   5.142   6.235   5.360
71971SOL    HW117810   5.135   6.288   5.440
71971SOL    HW217811   5.156   6.298   5.290
71972SOL     OW17812   3.100   5.684   0.079
71972SOL    HW117813   3.108   5.692   0.174
71972SOL    HW217814   3.024   5.628   0.066
71973SOL     OW17815   2.979  13.543   4.274
71973SOL    HW117816   2.916  13.530   4.345
71973SOL    HW217817   2.932  13.515   4.196
71974SOL     OW17818   3.599   4.427  10.943
71974SOL    HW117819   3.669   4.383  10.896
71974SOL    HW217820   3.577   4.502  10.888
71975SOL     OW17821   0.162   1.344   8.916
71975SOL    HW117822   0.242   1.313   8.958
71975SOL    HW217823   0.092   1.301   8.965
71976SOL     OW17824  12.421  13.041  10.135
71976SOL    HW117825  12.373  12.988  10.199
71976SOL    HW217826  12.374  13.124  10.133
71977SOL     OW17827   1.880  12.443  14.171
71977SOL    HW117828   1.791  12.413  14.152
71977SOL    HW217829   1.919  12.458  14.085
71978SOL     OW17830   0.972  14.690   5.119
71978SOL    HW117831   0.903  14.714   5.181
71978SOL    HW217832   0.937  14.716   5.034
71979SOL     OW17833  10.732  12.983   5.098
71979SOL    HW117834  10.800  13.039   5.135
71979SOL    HW217835  10.764  12.893   5.113
71980SOL     OW17836   4.559   3.432   9.685
71980SOL    HW117837   4.502   3.374   9.635
71980SOL    HW217838   4.607   3.482   9.619
71981SOL     OW17839   8.836  11.494  10.155
71981SOL    HW117840   8.743  11.504  10.176
71981SOL    HW217841   8.879  11.567  10.199
71982SOL     OW17842   6.435   5.228   9.849
71982SOL    HW117843   6.461   5.165   9.916
71982SOL    HW217844   6.383   5.178   9.786
71983SOL     OW17845  14.785   5.446   7.618
71983SOL    HW117846  14.736   5.364   7.615
71983SOL    HW217847  14.877   5.419   7.624
71984SOL     OW17848   8.018  13.358   3.241
71984SOL    HW117849   8.056  13.426   3.297
71984SOL    HW217850   7.948  13.319   3.295
71985SOL     OW17851  13.341   6.873  12.332
71985SOL    HW117852  13.313   6.781  12.329
71985SOL    HW217853  13.371   6.891  12.243
71986SOL     OW17854  10.762  14.069   5.414
71986SOL    HW117855  10.741  14.086   5.506
71986SOL    HW217856  10.699  14.121   5.365
71987SOL     OW17857  12.913  13.607   9.512
71987SOL    HW117858  12.906  13.512   9.520
71987SOL    HW217859  13.001  13.627   9.545
71988SOL     OW17860  13.520   3.330  11.535
71988SOL    HW117861  13.512   3.423  11.512
71988SOL    HW217862  13.614   3.314  11.537
71989SOL     OW17863   2.603   3.275   1.224
71989SOL    HW117864   2.539   3.270   1.295
71989SOL    HW217865   2.675   3.218   1.252
71990SOL     OW17866   3.354  14.431   5.507
71990SOL    HW117867   3.313  14.515   5.531
71990SOL    HW217868   3.341  14.376   5.584
71991SOL     OW17869   1.305  10.853  11.467
71991SOL    HW117870   1.257  10.846  11.549
71991SOL    HW217871   1.359  10.773  11.464
71992SOL     OW17872  10.711   4.049   1.659
71992SOL    HW117873  10.616   4.040   1.652
71992SOL    HW217874  10.745   3.963   1.633
71993SOL     OW17875   8.034  11.850   6.439
71993SOL    HW117876   8.113  11.871   6.489
71993SOL    HW217877   8.066  11.827   6.352
71994SOL     OW17878   7.331  11.756  10.007
71994SOL    HW117879   7.393  11.819  10.045
71994SOL    HW217880   7.374  11.726   9.927
71995SOL     OW17881   4.393   0.806   1.775
71995SOL    HW117882   4.390   0.833   1.683
71995SOL    HW217883   4.335   0.729   1.779
71996SOL     OW17884  11.058  13.326   0.002
71996SOL    HW117885  11.045  13.253  14.822
71996SOL    HW217886  11.014  13.400  14.841
71997SOL     OW17887   8.371  12.396   0.348
71997SOL    HW117888   8.283  12.360   0.357
71997SOL    HW217889   8.362  12.468   0.287
71998SOL     OW17890   0.901   8.692   2.233
71998SOL    HW117891   0.974   8.641   2.198
71998SOL    HW217892   0.849   8.715   2.157
71999SOL     OW17893   8.809   4.844   2.509
71999SOL    HW117894   8.773   4.932   2.521
71999SOL    HW217895   8.888   4.857   2.457
72000SOL     OW17896  12.922   7.694   4.127
72000SOL    HW117897  12.867   7.617   4.135
72000SOL    HW217898  12.880   7.760   4.183
72001SOL     OW17899   1.331  10.414   9.710
72001SOL    HW117900   1.298  10.362   9.637
72001SOL    HW217901   1.404  10.464   9.673
72002SOL     OW17902   5.651   8.003  11.282
72002SOL    HW117903   5.598   8.054  11.221
72002SOL    HW217904   5.626   7.912  11.264
72003SOL     OW17905  12.065   5.356  14.624
72003SOL    HW117906  12.102   5.344  14.711
72003SOL    HW217907  12.131   5.405  14.576
72004SOL     OW17908  11.200   6.755   0.155
72004SOL    HW117909  11.167   6.676   0.112
72004SOL    HW217910  11.295   6.743   0.157
72005SOL     OW17911   2.618   7.370  10.868
72005SOL    HW117912   2.632   7.425  10.790
72005SOL    HW217913   2.551   7.307  10.840
72006SOL     OW17914   8.506  10.796   9.656
72006SOL    HW117915   8.424  10.758   9.689
72006SOL    HW217916   8.479  10.847   9.579
72007SOL     OW17917   8.750   1.478  10.275
72007SOL    HW117918   8.664   1.481  10.233
72007SOL    HW217919   8.786   1.566  10.264
72008SOL     OW17920  13.174  14.472   3.165
72008SOL    HW117921  13.079  14.471   3.177
72008SOL    HW217922  13.186  14.508   3.077
72009SOL     OW17923   5.809   9.285   4.403
72009SOL    HW117924   5.809   9.327   4.317
72009SOL    HW217925   5.872   9.337   4.454
72010SOL     OW17926   1.163   6.058  12.623
72010SOL    HW117927   1.122   6.145  12.621
72010SOL    HW217928   1.147   6.022  12.536
72011SOL     OW17929   3.850  11.424   2.890
72011SOL    HW117930   3.841  11.357   2.958
72011SOL    HW217931   3.775  11.410   2.832
72012SOL     OW17932  14.729  13.263   7.922
72012SOL    HW117933  14.671  13.205   7.873
72012SOL    HW217934  14.745  13.217   8.005
72013SOL     OW17935   7.798   1.456   2.894
72013SOL    HW117936   7.738   1.413   2.955
72013SOL    HW217937   7.830   1.532   2.942
72014SOL     OW17938   9.036   0.966  10.184
72014SOL    HW117939   8.985   1.039  10.221
72014SOL    HW217940   8.991   0.945  10.102
72015SOL     OW17941   5.111  11.161   9.408
72015SOL    HW117942   5.063  11.085   9.376
72015SOL    HW217943   5.044  11.227   9.423
72016SOL     OW17944   0.387   8.725   4.897
72016SOL    HW117945   0.359   8.669   4.825
72016SOL    HW217946   0.328   8.800   4.894
72017SOL     OW17947  12.472  12.969   2.049
72017SOL    HW117948  12.400  12.906   2.043
72017SOL    HW217949  12.429  13.052   2.068
72018SOL     OW17950  11.280   1.675  11.912
72018SOL    HW117951  11.317   1.742  11.854
72018SOL    HW217952  11.195   1.655  11.874
72019SOL     OW17953   7.446   1.631   2.075
72019SOL    HW117954   7.431   1.537   2.085
72019SOL    HW217955   7.387   1.671   2.138
72020SOL     OW17956   1.889   7.049   4.077
72020SOL    HW117957   1.851   7.137   4.073
72020SOL    HW217958   1.934   7.046   4.161
72021SOL     OW17959  10.692  13.933   4.528
72021SOL    HW117960  10.727  13.978   4.605
72021SOL    HW217961  10.617  13.884   4.561
72022SOL     OW17962  13.428   5.665   1.541
72022SOL    HW117963  13.516   5.674   1.578
72022SOL    HW217964  13.440   5.604   1.468
72023SOL     OW17965  11.148   6.393   1.696
72023SOL    HW117966  11.179   6.440   1.619
72023SOL    HW217967  11.111   6.462   1.752
72024SOL     OW17968  11.355   8.565   7.453
72024SOL    HW117969  11.377   8.600   7.367
72024SOL    HW217970  11.292   8.495   7.436
72025SOL     OW17971   8.364  11.971  12.700
72025SOL    HW117972   8.433  12.037  12.696
72025SOL    HW217973   8.297  12.001  12.638
72026SOL     OW17974   7.505   1.029   7.249
72026SOL    HW117975   7.455   0.984   7.181
72026SOL    HW217976   7.499   0.972   7.325
72027SOL     OW17977   5.215  11.875  14.220
72027SOL    HW117978   5.127  11.869  14.257
72027SOL    HW217979   5.213  11.819  14.143
72028SOL     OW17980   5.427  10.821   9.864
72028SOL    HW117981   5.513  10.848   9.897
72028SOL    HW217982   5.434  10.831   9.769
72029SOL     OW17983   0.382   3.358   9.231
72029SOL    HW117984   0.373   3.273   9.274
72029SOL    HW217985   0.392   3.338   9.138
72030SOL     OW17986  11.326   3.506  14.025
72030SOL    HW117987  11.251   3.458  14.060
72030SOL    HW217988  11.336   3.581  14.084
72031SOL     OW17989   0.413   3.144   9.501
72031SOL    HW117990   0.317   3.141   9.497
72031SOL    HW217991   0.433   3.145   9.594
72032SOL     OW17992   1.064   0.318  10.170
72032SOL    HW117993   1.036   0.230  10.143
72032SOL    HW217994   1.055   0.317  10.265
72033SOL     OW17995   8.282   3.522  11.265
72033SOL    HW117996   8.242   3.582  11.201
72033SOL    HW217997   8.376   3.530  11.249
72034SOL     OW17998   0.756   2.876  10.149
72034SOL    HW117999   0.670   2.837  10.168
72034SOL    HW218000   0.747   2.912  10.061
72035SOL     OW18001  13.816  11.870   2.972
72035SOL    HW118002  13.897  11.919   2.987
72035SOL    HW218003  13.806  11.815   3.050
72036SOL     OW18004   5.970   8.020  13.756
72036SOL    HW118005   6.004   7.969  13.830
72036SOL    HW218006   5.876   8.006  13.759
72037SOL     OW18007  11.266   7.588   3.783
72037SOL    HW118008  11.173   7.607   3.789
72037SOL    HW218009  11.309   7.673   3.799
72038SOL     OW18010  11.192   2.415   4.228
72038SOL    HW118011  11.263   2.352   4.246
72038SOL    HW218012  11.115   2.360   4.215
72039SOL     OW18013   8.599   9.033   3.267
72039SOL    HW118014   8.599   9.056   3.174
72039SOL    HW218015   8.530   8.968   3.277
72040SOL     OW18016  11.138   4.596   6.659
72040SOL    HW118017  11.216   4.652   6.656
72040SOL    HW218018  11.065   4.657   6.664
72041SOL     OW18019  13.209   3.309  10.692
72041SOL    HW118020  13.166   3.256  10.760
72041SOL    HW218021  13.229   3.392  10.735
72042SOL     OW18022   6.428   5.990   7.593
72042SOL    HW118023   6.518   6.010   7.619
72042SOL    HW218024   6.413   6.040   7.513
72043SOL     OW18025  11.296   2.686   0.027
72043SOL    HW118026  11.307   2.628   0.102
72043SOL    HW218027  11.227   2.645  14.855
72044SOL     OW18028   2.920   8.970   8.492
72044SOL    HW118029   2.932   8.994   8.584
72044SOL    HW218030   2.994   8.913   8.472
72045SOL     OW18031   1.555  10.744   4.297
72045SOL    HW118032   1.630  10.803   4.287
72045SOL    HW218033   1.478  10.800   4.286
72046SOL     OW18034   0.231   6.611   6.739
72046SOL    HW118035   0.181   6.532   6.719
72046SOL    HW218036   0.310   6.604   6.684
72047SOL     OW18037   0.444   8.505   5.929
72047SOL    HW118038   0.392   8.529   6.006
72047SOL    HW218039   0.388   8.446   5.879
72048SOL     OW18040   0.789   6.064   8.504
72048SOL    HW118041   0.774   5.998   8.572
72048SOL    HW218042   0.836   6.017   8.435
72049SOL     OW18043   3.852  10.182  11.862
72049SOL    HW118044   3.879  10.109  11.806
72049SOL    HW218045   3.933  10.230  11.878
72050SOL     OW18046   3.414   3.608  14.363
72050SOL    HW118047   3.352   3.539  14.339
72050SOL    HW218048   3.360   3.674  14.406
72051SOL     OW18049   8.516  11.318   5.423
72051SOL    HW118050   8.599  11.301   5.467
72051SOL    HW218051   8.459  11.245   5.449
72052SOL     OW18052   2.338  11.178   9.881
72052SOL    HW118053   2.380  11.093   9.868
72052SOL    HW218054   2.258  11.158   9.929
72053SOL     OW18055   4.387   2.237   3.371
72053SOL    HW118056   4.474   2.276   3.358
72053SOL    HW218057   4.327   2.310   3.357
72054SOL     OW18058  13.405   2.086  14.630
72054SOL    HW118059  13.344   2.130  14.690
72054SOL    HW218060  13.348   2.047  14.563
72055SOL     OW18061   6.474   8.907  13.719
72055SOL    HW118062   6.530   8.981  13.701
72055SOL    HW218063   6.392   8.946  13.751
72056SOL     OW18064  10.651   0.523   9.535
72056SOL    HW118065  10.646   0.618   9.533
72056SOL    HW218066  10.727   0.504   9.590
72057SOL     OW18067  13.743   7.072   7.510
72057SOL    HW118068  13.649   7.066   7.525
72057SOL    HW218069  13.781   7.009   7.571
72058SOL     OW18070   9.086   7.357  11.383
72058SOL    HW118071   9.076   7.263  11.369
72058SOL    HW218072   9.153   7.383  11.319
72059SOL     OW18073   1.898   0.368   4.524
72059SOL    HW118074   1.817   0.332   4.487
72059SOL    HW218075   1.915   0.447   4.473
72060SOL     OW18076  12.560   8.649  11.364
72060SOL    HW118077  12.553   8.594  11.286
72060SOL    HW218078  12.631   8.710  11.344
72061SOL     OW18079   4.091   2.461  14.498
72061SOL    HW118080   4.132   2.375  14.505
72061SOL    HW218081   4.083   2.477  14.404
72062SOL     OW18082  14.730  14.081  12.888
72062SOL    HW118083  14.821  14.086  12.916
72062SOL    HW218084  14.707  14.171  12.864
72063SOL     OW18085   6.587   7.928  10.259
72063SOL    HW118086   6.568   7.909  10.168
72063SOL    HW218087   6.681   7.917  10.267
72064SOL     OW18088   7.234   8.743   6.380
72064SOL    HW118089   7.180   8.822   6.377
72064SOL    HW218090   7.277   8.741   6.294
72065SOL     OW18091   7.055  13.170   9.748
72065SOL    HW118092   7.007  13.097   9.708
72065SOL    HW218093   6.996  13.202   9.816
72066SOL     OW18094   7.941   5.093   9.995
72066SOL    HW118095   7.971   5.065   9.908
72066SOL    HW218096   7.846   5.091   9.989
72067SOL     OW18097  10.272   1.139   4.751
72067SOL    HW118098  10.335   1.211   4.761
72067SOL    HW218099  10.256   1.109   4.841
72068SOL     OW18100  14.122  13.920   6.592
72068SOL    HW118101  14.206  13.903   6.635
72068SOL    HW218102  14.146  13.951   6.505
72069SOL     OW18103  14.564   3.353   8.866
72069SOL    HW118104  14.656   3.339   8.841
72069SOL    HW218105  14.558   3.448   8.879
72070SOL     OW18106  11.196  11.973   9.881
72070SOL    HW118107  11.218  11.960   9.789
72070SOL    HW218108  11.277  11.952   9.928
72071SOL     OW18109   8.749  11.857   2.529
72071SOL    HW118110   8.697  11.938   2.532
72071SOL    HW218111   8.774  11.841   2.620
72072SOL     OW18112   5.152   8.135   8.811
72072SOL    HW118113   5.108   8.220   8.804
72072SOL    HW218114   5.170   8.110   8.720
72073SOL     OW18115   5.004   3.884   2.630
72073SOL    HW118116   5.074   3.864   2.691
72073SOL    HW218117   5.010   3.979   2.616
72074SOL     OW18118   4.449  10.724   1.181
72074SOL    HW118119   4.381  10.668   1.217
72074SOL    HW218120   4.451  10.703   1.087
72075SOL     OW18121  13.988  13.087   9.217
72075SOL    HW118122  14.024  13.138   9.290
72075SOL    HW218123  14.050  13.101   9.146
72076SOL     OW18124   7.971   0.490   9.118
72076SOL    HW118125   8.000   0.573   9.081
72076SOL    HW218126   7.991   0.425   9.051
72077SOL     OW18127   3.147   6.365   7.517
72077SOL    HW118128   3.176   6.390   7.429
72077SOL    HW218129   3.223   6.323   7.556
72078SOL     OW18130   8.872  14.866   6.009
72078SOL    HW118131   8.834   0.073   5.998
72078SOL    HW218132   8.966  14.880   6.002
72079SOL     OW18133   0.521   2.573   1.313
72079SOL    HW118134   0.479   2.616   1.387
72079SOL    HW218135   0.511   2.479   1.331
72080SOL     OW18136   4.011  12.115   3.395
72080SOL    HW118137   4.036  12.062   3.470
72080SOL    HW218138   3.959  12.187   3.432
72081SOL     OW18139  11.564   4.546   7.724
72081SOL    HW118140  11.617   4.616   7.687
72081SOL    HW218141  11.592   4.538   7.815
72082SOL     OW18142  10.258  13.807   4.215
72082SOL    HW118143  10.273  13.754   4.294
72082SOL    HW218144  10.286  13.895   4.240
72083SOL     OW18145   0.174   2.226   2.562
72083SOL    HW118146   0.204   2.259   2.646
72083SOL    HW218147   0.235   2.264   2.498
72084SOL     OW18148   3.434   4.435  14.112
72084SOL    HW118149   3.366   4.474  14.057
72084SOL    HW218150   3.491   4.388  14.051
72085SOL     OW18151  12.222  12.907   9.853
72085SOL    HW118152  12.172  12.988   9.850
72085SOL    HW218153  12.158  12.839   9.871
72086SOL     OW18154  10.437   6.198   0.993
72086SOL    HW118155  10.478   6.125   1.038
72086SOL    HW218156  10.488   6.210   0.913
72087SOL     OW18157   3.139   4.934  13.954
72087SOL    HW118158   3.195   4.956  13.880
72087SOL    HW218159   3.195   4.942  14.030
72088SOL     OW18160  10.700   2.433   6.189
72088SOL    HW118161  10.612   2.432   6.227
72088SOL    HW218162  10.724   2.341   6.181
72089SOL     OW18163  14.503  14.445   0.125
72089SOL    HW118164  14.590  14.465   0.092
72089SOL    HW218165  14.508  14.463   0.219
72090SOL     OW18166   4.702   3.466   1.387
72090SOL    HW118167   4.614   3.466   1.349
72090SOL    HW218168   4.713   3.554   1.422
72091SOL     OW18169   2.983  13.711  12.550
72091SOL    HW118170   2.966  13.804  12.565
72091SOL    HW218171   3.076  13.700  12.568
72092SOL     OW18172   1.618  11.026   4.092
72092SOL    HW118173   1.556  11.020   4.165
72092SOL    HW218174   1.617  11.119   4.067
72093SOL     OW18175   7.817   2.560   3.943
72093SOL    HW118176   7.778   2.646   3.931
72093SOL    HW218177   7.802   2.538   4.035
72094SOL     OW18178  14.333  10.275   5.322
72094SOL    HW118179  14.369  10.363   5.317
72094SOL    HW218180  14.402  10.224   5.366
72095SOL     OW18181  10.251   2.241   6.498
72095SOL    HW118182  10.263   2.147   6.483
72095SOL    HW218183  10.193   2.269   6.427
72096SOL     OW18184   7.399   5.658  13.487
72096SOL    HW118185   7.338   5.673  13.558
72096SOL    HW218186   7.431   5.745  13.463
72097SOL     OW18187   1.719   6.048   4.015
72097SOL    HW118188   1.814   6.060   4.014
72097SOL    HW218189   1.707   5.960   4.050
72098SOL     OW18190   3.799   4.540  13.883
72098SOL    HW118191   3.852   4.488  13.824
72098SOL    HW218192   3.725   4.484  13.905
72099SOL     OW18193   9.885  12.718  14.125
72099SOL    HW118194   9.826  12.781  14.085
72099SOL    HW218195   9.887  12.742  14.218
72100SOL     OW18196   2.250   3.892   4.020
72100SOL    HW118197   2.271   3.975   4.062
72100SOL    HW218198   2.289   3.825   4.076
72101SOL     OW18199   4.800  11.113  14.701
72101SOL    HW118200   4.891  11.132  14.678
72101SOL    HW218201   4.769  11.058  14.630
72102SOL     OW18202  10.003  12.986   6.636
72102SOL    HW118203   9.977  12.898   6.663
72102SOL    HW218204   9.926  13.021   6.590
72103SOL     OW18205   9.470  10.001  11.364
72103SOL    HW118206   9.559   9.988  11.332
72103SOL    HW218207   9.432  10.066  11.305
72104SOL     OW18208   3.736  11.550   7.852
72104SOL    HW118209   3.651  11.587   7.877
72104SOL    HW218210   3.782  11.537   7.935
72105SOL     OW18211   7.027  11.845   5.203
72105SOL    HW118212   7.100  11.860   5.142
72105SOL    HW218213   7.052  11.766   5.250
72106SOL     OW18214  10.911   3.628   7.362
72106SOL    HW118215  10.929   3.630   7.268
72106SOL    HW218216  10.902   3.720   7.386
72107SOL     OW18217   5.004   1.537  12.101
72107SOL    HW118218   4.957   1.569  12.024
72107SOL    HW218219   4.980   1.597  12.171
72108SOL     OW18220  10.150  13.653  12.321
72108SOL    HW118221  10.219  13.719  12.326
72108SOL    HW218222  10.070  13.700  12.343
72109SOL     OW18223   8.429   7.349   0.224
72109SOL    HW118224   8.379   7.329   0.303
72109SOL    HW218225   8.392   7.292   0.157
72110SOL     OW18226   4.548   7.250   1.354
72110SOL    HW118227   4.465   7.231   1.398
72110SOL    HW218228   4.546   7.197   1.275
72111SOL     OW18229   5.691   4.350   8.437
72111SOL    HW118230   5.673   4.423   8.378
72111SOL    HW218231   5.608   4.335   8.483
72112SOL     OW18232   4.614   1.026   7.797
72112SOL    HW118233   4.646   0.946   7.755
72112SOL    HW218234   4.659   1.097   7.751
72113SOL     OW18235   6.041   7.046   8.122
72113SOL    HW118236   5.997   7.130   8.138
72113SOL    HW218237   6.016   6.991   8.196
72114SOL     OW18238  14.569   1.486  14.642
72114SOL    HW118239  14.477   1.471  14.621
72114SOL    HW218240  14.599   1.548  14.576
72115SOL     OW18241  12.476   8.479   7.013
72115SOL    HW118242  12.507   8.415   7.078
72115SOL    HW218243  12.382   8.484   7.028
72116SOL     OW18244   3.477  10.703   3.359
72116SOL    HW118245   3.452  10.782   3.312
72116SOL    HW218246   3.425  10.633   3.317
72117SOL     OW18247   3.269   7.211  14.577
72117SOL    HW118248   3.220   7.171  14.505
72117SOL    HW218249   3.361   7.194  14.556
72118SOL     OW18250   4.345   4.123  12.292
72118SOL    HW118251   4.296   4.184  12.346
72118SOL    HW218252   4.278   4.079  12.239
72119SOL     OW18253   0.468  12.353  14.244
72119SOL    HW118254   0.450  12.445  14.261
72119SOL    HW218255   0.538  12.354  14.178
72120SOL     OW18256   9.737   9.650   9.901
72120SOL    HW118257   9.710   9.693   9.982
72120SOL    HW218258   9.675   9.578   9.890
72121SOL     OW18259   5.113  12.756   0.977
72121SOL    HW118260   5.063  12.807   1.040
72121SOL    HW218261   5.190  12.726   1.026
72122SOL     OW18262   8.260   8.331  14.501
72122SOL    HW118263   8.214   8.413  14.486
72122SOL    HW218264   8.349   8.358  14.525
72123SOL     OW18265   0.597  10.166  10.295
72123SOL    HW118266   0.616  10.238  10.356
72123SOL    HW218267   0.505  10.145  10.310
72124SOL     OW18268   4.677   5.382  14.393
72124SOL    HW118269   4.699   5.460  14.445
72124SOL    HW218270   4.640   5.416  14.312
72125SOL     OW18271  14.330   5.110   6.229
72125SOL    HW118272  14.350   5.021   6.199
72125SOL    HW218273  14.308   5.100   6.321
72126SOL     OW18274   8.682   9.873   4.703
72126SOL    HW118275   8.696   9.811   4.775
72126SOL    HW218276   8.587   9.884   4.699
72127SOL     OW18277  13.449   2.464  10.708
72127SOL    HW118278  13.373   2.521  10.709
72127SOL    HW218279  13.445   2.415  10.790
72128SOL     OW18280   9.597   3.373   9.371
72128SOL    HW118281   9.506   3.393   9.395
72128SOL    HW218282   9.596   3.280   9.351
72129SOL     OW18283  13.563   6.644  14.277
72129SOL    HW118284  13.616   6.724  14.284
72129SOL    HW218285  13.514   6.641  14.359
72130SOL     OW18286  11.832  14.048  10.221
72130SOL    HW118287  11.893  13.992  10.269
72130SOL    HW218288  11.855  14.034  10.129
72131SOL     OW18289   7.749   0.274  12.744
72131SOL    HW118290   7.769   0.270  12.651
72131SOL    HW218291   7.660   0.238  12.751
72132SOL     OW18292   7.955   4.832  13.713
72132SOL    HW118293   8.011   4.847  13.637
72132SOL    HW218294   7.870   4.809  13.678
72133SOL     OW18295   3.345  11.246   6.592
72133SOL    HW118296   3.411  11.222   6.527
72133SOL    HW218297   3.303  11.163   6.615
72134SOL     OW18298   6.280  13.820   3.116
72134SOL    HW118299   6.365  13.807   3.159
72134SOL    HW218300   6.302  13.851   3.028
72135SOL     OW18301   0.405   5.579   0.607
72135SOL    HW118302   0.399   5.524   0.685
72135SOL    HW218303   0.344   5.651   0.623
72136SOL     OW18304  14.136  12.709   6.195
72136SOL    HW118305  14.135  12.805   6.191
72136SOL    HW218306  14.083  12.682   6.120
72137SOL     OW18307  13.203   3.531   7.713
72137SOL    HW118308  13.113   3.559   7.697
72137SOL    HW218309  13.248   3.610   7.744
72138SOL     OW18310   5.408   1.835   5.280
72138SOL    HW118311   5.385   1.824   5.372
72138SOL    HW218312   5.452   1.920   5.275
72139SOL     OW18313   6.482   1.720  12.224
72139SOL    HW118314   6.539   1.794  12.200
72139SOL    HW218315   6.436   1.750  12.303
72140SOL     OW18316   0.690   7.899  10.376
72140SOL    HW118317   0.765   7.902  10.436
72140SOL    HW218318   0.638   7.825  10.407
72141SOL     OW18319  14.591   4.482  13.179
72141SOL    HW118320  14.601   4.387  13.185
72141SOL    HW218321  14.586   4.499  13.085
72142SOL     OW18322  12.345   0.537   6.006
72142SOL    HW118323  12.435   0.549   5.975
72142SOL    HW218324  12.322   0.447   5.982
72143SOL     OW18325  10.526  11.195  12.607
72143SOL    HW118326  10.444  11.179  12.561
72143SOL    HW218327  10.515  11.282  12.646
72144SOL     OW18328   3.759  12.287  12.605
72144SOL    HW118329   3.782  12.207  12.653
72144SOL    HW218330   3.747  12.259  12.515
72145SOL     OW18331   2.245   1.026  12.133
72145SOL    HW118332   2.174   1.080  12.099
72145SOL    HW218333   2.201   0.965  12.193
72146SOL     OW18334   0.257   9.479  13.327
72146SOL    HW118335   0.324   9.510  13.267
72146SOL    HW218336   0.255   9.545  13.397
72147SOL     OW18337   6.525  11.022  10.534
72147SOL    HW118338   6.473  11.078  10.591
72147SOL    HW218339   6.526  10.937  10.578
72148SOL     OW18340  10.636   4.802  11.551
72148SOL    HW118341  10.579   4.790  11.475
72148SOL    HW218342  10.683   4.884  11.533
72149SOL     OW18343  13.562   4.038  13.329
72149SOL    HW118344  13.630   4.054  13.263
72149SOL    HW218345  13.483   4.021  13.278
72150SOL     OW18346  10.411  12.757  12.621
72150SOL    HW118347  10.417  12.662  12.615
72150SOL    HW218348  10.319  12.777  12.603
72151SOL     OW18349   2.577  10.265   4.336
72151SOL    HW118350   2.548  10.267   4.245
72151SOL    HW218351   2.527  10.335   4.378
72152SOL     OW18352   4.819  12.274   8.454
72152SOL    HW118353   4.888  12.208   8.459
72152SOL    HW218354   4.854  12.341   8.395
72153SOL     OW18355   8.503  11.241   2.375
72153SOL    HW118356   8.551  11.245   2.457
72153SOL    HW218357   8.467  11.153   2.372
72154SOL     OW18358  13.372   3.045  14.475
72154SOL    HW118359  13.434   3.095  14.528
72154SOL    HW218360  13.292   3.043  14.528
72155SOL     OW18361   9.558   7.734   8.752
72155SOL    HW118362   9.588   7.775   8.671
72155SOL    HW218363   9.635   7.689   8.786
72156SOL     OW18364  13.815  10.144   0.526
72156SOL    HW118365  13.763  10.075   0.485
72156SOL    HW218366  13.814  10.122   0.620
72157SOL     OW18367   4.443  13.005   3.365
72157SOL    HW118368   4.486  12.952   3.299
72157SOL    HW218369   4.489  13.089   3.362
72158SOL     OW18370   4.693   2.584   6.897
72158SOL    HW118371   4.682   2.653   6.962
72158SOL    HW218372   4.787   2.565   6.898
72159SOL     OW18373  10.586   3.896  12.578
72159SOL    HW118374  10.603   3.990  12.569
72159SOL    HW218375  10.553   3.886  12.667
72160SOL     OW18376   8.963   0.713   2.152
72160SOL    HW118377   8.880   0.685   2.193
72160SOL    HW218378   8.947   0.707   2.058
72161SOL     OW18379   0.053   1.131   3.250
72161SOL    HW118380   0.089   1.127   3.161
72161SOL    HW218381   0.103   1.065   3.298
72162SOL     OW18382  11.566   0.769   2.524
72162SOL    HW118383  11.541   0.773   2.432
72162SOL    HW218384  11.483   0.774   2.572
72163SOL     OW18385   9.763   7.041  13.090
72163SOL    HW118386   9.764   6.994  13.173
72163SOL    HW218387   9.689   7.101  13.097
72164SOL     OW18388   9.693   1.769   5.349
72164SOL    HW118389   9.764   1.825   5.379
72164SOL    HW218390   9.644   1.824   5.288
72165SOL     OW18391   8.935   7.548   3.952
72165SOL    HW118392   8.881   7.506   4.019
72165SOL    HW218393   8.945   7.481   3.884
72166SOL     OW18394   7.997   3.272   7.012
72166SOL    HW118395   8.054   3.230   6.948
72166SOL    HW218396   7.979   3.205   7.077
72167SOL     OW18397  11.585   5.657   1.902
72167SOL    HW118398  11.624   5.577   1.867
72167SOL    HW218399  11.661   5.712   1.924
72168SOL     OW18400  12.409   3.743  11.834
72168SOL    HW118401  12.333   3.718  11.888
72168SOL    HW218402  12.484   3.707  11.881
72169SOL     OW18403   3.207   4.387  10.683
72169SOL    HW118404   3.255   4.397  10.600
72169SOL    HW218405   3.170   4.473  10.699
72170SOL     OW18406  14.005   6.201   7.232
72170SOL    HW118407  13.913   6.182   7.212
72170SOL    HW218408  14.027   6.274   7.174
72171SOL     OW18409   3.333  11.724   0.554
72171SOL    HW118410   3.358  11.631   0.558
72171SOL    HW218411   3.263  11.726   0.489
72172SOL     OW18412   6.474  11.054   7.865
72172SOL    HW118413   6.428  11.051   7.949
72172SOL    HW218414   6.405  11.039   7.800
72173SOL     OW18415   9.570   0.955   8.904
72173SOL    HW118416   9.492   0.980   8.954
72173SOL    HW218417   9.592   0.867   8.935
72174SOL     OW18418   6.666  12.193   0.592
72174SOL    HW118419   6.646  12.244   0.670
72174SOL    HW218420   6.593  12.132   0.583
72175SOL     OW18421   4.681   7.690  12.626
72175SOL    HW118422   4.738   7.616  12.609
72175SOL    HW218423   4.605   7.653  12.670
72176SOL     OW18424   6.043   0.897   4.464
72176SOL    HW118425   6.045   0.977   4.517
72176SOL    HW218426   6.106   0.839   4.507
72177SOL     OW18427  13.353  12.082   4.260
72177SOL    HW118428  13.400  12.081   4.177
72177SOL    HW218429  13.418  12.108   4.325
72178SOL     OW18430   5.927   0.571  10.910
72178SOL    HW118431   5.881   0.560  10.827
72178SOL    HW218432   5.999   0.631  10.890
72179SOL     OW18433   7.476  13.637   2.557
72179SOL    HW118434   7.528  13.653   2.478
72179SOL    HW218435   7.462  13.724   2.595
72180SOL     OW18436  12.151   2.713   0.727
72180SOL    HW118437  12.166   2.629   0.770
72180SOL    HW218438  12.199   2.707   0.644
72181SOL     OW18439  10.056  10.098   8.093
72181SOL    HW118440   9.986  10.132   8.037
72181SOL    HW218441  10.130  10.158   8.078
72182SOL     OW18442   0.799   9.466   6.227
72182SOL    HW118443   0.823   9.557   6.244
72182SOL    HW218444   0.739   9.443   6.298
72183SOL     OW18445   5.497   3.980   1.718
72183SOL    HW118446   5.419   3.924   1.717
72183SOL    HW218447   5.472   4.054   1.774
72184SOL     OW18448   4.606   2.928  10.581
72184SOL    HW118449   4.521   2.954  10.547
72184SOL    HW218450   4.605   2.832  10.580
72185SOL     OW18451   6.182  12.609  11.358
72185SOL    HW118452   6.202  12.703  11.357
72185SOL    HW218453   6.109  12.600  11.419
72186SOL     OW18454  13.079   4.469   1.333
72186SOL    HW118455  13.074   4.376   1.310
72186SOL    HW218456  13.058   4.515   1.252
72187SOL     OW18457   2.606   9.653   4.220
72187SOL    HW118458   2.573   9.565   4.207
72187SOL    HW218459   2.689   9.641   4.267
72188SOL     OW18460   5.450   1.495   1.874
72188SOL    HW118461   5.490   1.570   1.918
72188SOL    HW218462   5.387   1.461   1.937
72189SOL     OW18463  11.963   2.224  10.204
72189SOL    HW118464  12.039   2.277  10.230
72189SOL    HW218465  11.932   2.185  10.286
72190SOL     OW18466   9.743   6.315   1.536
72190SOL    HW118467   9.799   6.378   1.580
72190SOL    HW218468   9.655   6.335   1.566
72191SOL     OW18469   3.670   8.194  10.705
72191SOL    HW118470   3.608   8.122  10.707
72191SOL    HW218471   3.750   8.155  10.669
72192SOL     OW18472  11.000   5.549   1.159
72192SOL    HW118473  11.054   5.624   1.137
72192SOL    HW218474  10.918   5.563   1.110
72193SOL     OW18475   5.818   7.182   2.885
72193SOL    HW118476   5.905   7.188   2.846
72193SOL    HW218477   5.782   7.271   2.877
72194SOL     OW18478  13.447   6.451   6.107
72194SOL    HW118479  13.423   6.368   6.067
72194SOL    HW218480  13.408   6.518   6.051
72195SOL     OW18481  13.599  11.515   0.467
72195SOL    HW118482  13.677  11.506   0.413
72195SOL    HW218483  13.631  11.554   0.549
72196SOL     OW18484  12.509   3.326   6.495
72196SOL    HW118485  12.529   3.400   6.437
72196SOL    HW218486  12.418   3.341   6.521
72197SOL     OW18487   3.198   3.726   1.004
72197SOL    HW118488   3.258   3.795   1.032
72197SOL    HW218489   3.198   3.664   1.078
72198SOL     OW18490   2.374   7.092   1.365
72198SOL    HW118491   2.308   7.150   1.328
72198SOL    HW218492   2.357   7.007   1.324
72199SOL     OW18493   9.835  11.414   7.969
72199SOL    HW118494   9.802  11.490   7.922
72199SOL    HW218495   9.756  11.365   7.993
72200SOL     OW18496   9.642  13.640   9.091
72200SOL    HW118497   9.709  13.629   9.024
72200SOL    HW218498   9.600  13.723   9.070
72201SOL     OW18499   1.899  11.957   5.454
72201SOL    HW118500   1.954  11.882   5.431
72201SOL    HW218501   1.929  11.984   5.540
72202SOL     OW18502  12.369  14.268   2.396
72202SOL    HW118503  12.443  14.263   2.457
72202SOL    HW218504  12.350  14.177   2.374
72203SOL     OW18505   7.878   9.041   7.188
72203SOL    HW118506   7.812   8.985   7.230
72203SOL    HW218507   7.935   9.068   7.260
72204SOL     OW18508   9.822   4.470  12.251
72204SOL    HW118509   9.752   4.455  12.314
72204SOL    HW218510   9.778   4.509  12.175
72205SOL     OW18511   2.849   6.262   6.156
72205SOL    HW118512   2.756   6.262   6.179
72205SOL    HW218513   2.888   6.195   6.212
72206SOL     OW18514  10.773   7.203   1.097
72206SOL    HW118515  10.712   7.237   1.032
72206SOL    HW218516  10.778   7.109   1.079
72207SOL     OW18517  11.063   0.398  13.296
72207SOL    HW118518  11.015   0.477  13.320
72207SOL    HW218519  11.154   0.419  13.315
72208SOL     OW18520  11.880   8.219   7.026
72208SOL    HW118521  11.967   8.182   7.011
72208SOL    HW218522  11.897   8.301   7.072
72209SOL     OW18523   7.914  11.910   9.333
72209SOL    HW118524   7.943  11.999   9.355
72209SOL    HW218525   7.837  11.923   9.278
72210SOL     OW18526   3.917  12.759  14.159
72210SOL    HW118527   3.987  12.709  14.201
72210SOL    HW218528   3.962  12.824  14.106
72211SOL     OW18529   6.495  14.866  12.310
72211SOL    HW118530   6.464   0.048  12.244
72211SOL    HW218531   6.440   0.002  12.386
72212SOL     OW18532   7.072   9.259   6.276
72212SOL    HW118533   7.117   9.213   6.205
72212SOL    HW218534   7.112   9.347   6.275
72213SOL     OW18535   4.594   2.657  13.514
72213SOL    HW118536   4.619   2.747  13.494
72213SOL    HW218537   4.562   2.622  13.431
72214SOL     OW18538  14.339   5.718   8.444
72214SOL    HW118539  14.252   5.745   8.415
72214SOL    HW218540  14.325   5.690   8.535
72215SOL     OW18541   9.133   9.812  10.979
72215SOL    HW118542   9.219   9.769  10.983
72215SOL    HW218543   9.082   9.771  11.048
72216SOL     OW18544   5.048   6.171   6.019
72216SOL    HW118545   5.026   6.215   6.101
72216SOL    HW218546   5.051   6.241   5.954
72217SOL     OW18547  10.730   4.864   6.185
72217SOL    HW118548  10.793   4.933   6.203
72217SOL    HW218549  10.766   4.786   6.227
72218SOL     OW18550   3.671  12.014   2.810
72218SOL    HW118551   3.609  12.024   2.882
72218SOL    HW218552   3.744  12.071   2.833
72219SOL     OW18553  12.183  10.716   9.166
72219SOL    HW118554  12.123  10.741   9.236
72219SOL    HW218555  12.173  10.786   9.101
72220SOL     OW18556  13.275   4.189  13.889
72220SOL    HW118557  13.363   4.194  13.927
72220SOL    HW218558  13.289   4.188  13.794
72221SOL     OW18559   6.699  10.342   8.087
72221SOL    HW118560   6.723  10.251   8.107
72221SOL    HW218561   6.695  10.385   8.172
72222SOL     OW18562   9.470  10.130   4.637
72222SOL    HW118563   9.406  10.097   4.701
72222SOL    HW218564   9.555  10.114   4.679
72223SOL     OW18565   1.511  12.226   9.358
72223SOL    HW118566   1.550  12.266   9.436
72223SOL    HW218567   1.467  12.298   9.314
72224SOL     OW18568  13.203   3.008   0.397
72224SOL    HW118569  13.236   3.040   0.481
72224SOL    HW218570  13.171   2.920   0.416
72225SOL     OW18571   3.852   9.016  10.343
72225SOL    HW118572   3.855   9.096  10.291
72225SOL    HW218573   3.761   9.008  10.371
72226SOL     OW18574   5.914  11.883   3.598
72226SOL    HW118575   5.863  11.957   3.629
72226SOL    HW218576   5.868  11.806   3.633
72227SOL     OW18577  14.556  11.091   9.061
72227SOL    HW118578  14.583  11.017   9.116
72227SOL    HW218579  14.633  11.109   9.007
72228SOL     OW18580  11.624   7.750   6.524
72228SOL    HW118581  11.562   7.791   6.584
72228SOL    HW218582  11.688   7.708   6.582
72229SOL     OW18583  10.112   2.858   3.292
72229SOL    HW118584  10.141   2.832   3.379
72229SOL    HW218585  10.029   2.903   3.307
72230SOL     OW18586   8.057   1.037   0.047
72230SOL    HW118587   8.107   0.968   0.090
72230SOL    HW218588   7.993   0.990  14.873
72231SOL     OW18589  12.426   3.672   8.686
72231SOL    HW118590  12.464   3.655   8.773
72231SOL    HW218591  12.341   3.712   8.705
72232SOL     OW18592   4.570   1.856  14.833
72232SOL    HW118593   4.579   1.947  14.862
72232SOL    HW218594   4.629   1.849  14.758
72233SOL     OW18595  14.198   9.979  10.444
72233SOL    HW118596  14.211  10.003  10.536
72233SOL    HW218597  14.225   9.887  10.439
72234SOL     OW18598   2.282  13.742   2.179
72234SOL    HW118599   2.319  13.783   2.101
72234SOL    HW218600   2.342  13.766   2.249
72235SOL     OW18601   5.848   1.029   2.909
72235SOL    HW118602   5.838   1.082   2.830
72235SOL    HW218603   5.906   1.080   2.965
72236SOL     OW18604   7.290   4.836   7.788
72236SOL    HW118605   7.245   4.785   7.854
72236SOL    HW218606   7.345   4.896   7.837
72237SOL     OW18607   3.754   6.420   5.476
72237SOL    HW118608   3.826   6.473   5.440
72237SOL    HW218609   3.691   6.484   5.507
72238SOL     OW18610  14.104  11.865  12.747
72238SOL    HW118611  14.186  11.846  12.701
72238SOL    HW218612  14.070  11.779  12.771
72239SOL     OW18613   0.352   4.543   8.713
72239SOL    HW118614   0.441   4.557   8.748
72239SOL    HW218615   0.326   4.459   8.749
72240SOL     OW18616   0.004   2.581  13.615
72240SOL    HW118617  14.824   2.537  13.674
72240SOL    HW218618  14.830   2.608  13.541
72241SOL     OW18619  11.347   4.077   4.025
72241SOL    HW118620  11.355   3.989   4.062
72241SOL    HW218621  11.288   4.066   3.950
72242SOL     OW18622   2.756   2.830  13.462
72242SOL    HW118623   2.777   2.814  13.554
72242SOL    HW218624   2.828   2.790  13.413
72243SOL     OW18625   7.618   6.584  11.240
72243SOL    HW118626   7.623   6.662  11.185
72243SOL    HW218627   7.604   6.619  11.329
72244SOL     OW18628   9.300  11.530   9.417
72244SOL    HW118629   9.385  11.520   9.376
72244SOL    HW218630   9.318  11.531   9.511
72245SOL     OW18631   9.166   2.798   8.078
72245SOL    HW118632   9.127   2.791   7.991
72245SOL    HW218633   9.159   2.709   8.114
72246SOL     OW18634   6.636   6.646  12.172
72246SOL    HW118635   6.669   6.734  12.157
72246SOL    HW218636   6.632   6.607  12.084
72247SOL     OW18637   7.636   4.954   0.932
72247SOL    HW118638   7.716   5.005   0.941
72247SOL    HW218639   7.597   4.984   0.850
72248SOL     OW18640   0.206   5.387   1.042
72248SOL    HW118641   0.233   5.365   0.952
72248SOL    HW218642   0.112   5.366   1.044
72249SOL     OW18643   9.563   1.439   8.522
72249SOL    HW118644   9.510   1.390   8.585
72249SOL    HW218645   9.580   1.523   8.565
72250SOL     OW18646   9.691   8.786  14.016
72250SOL    HW118647   9.747   8.805  13.940
72250SOL    HW218648   9.669   8.872  14.051
72251SOL     OW18649   8.082   1.853  12.473
72251SOL    HW118650   8.008   1.794  12.457
72251SOL    HW218651   8.099   1.893  12.388
72252SOL     OW18652  10.549   2.616  10.031
72252SOL    HW118653  10.596   2.533  10.034
72252SOL    HW218654  10.475   2.599   9.971
72253SOL     OW18655   8.717   9.582   4.876
72253SOL    HW118656   8.668   9.501   4.890
72253SOL    HW218657   8.656   9.652   4.901
72254SOL     OW18658   3.938   4.959   9.657
72254SOL    HW118659   3.918   5.038   9.606
72254SOL    HW218660   3.855   4.937   9.699
72255SOL     OW18661   5.760   2.992   5.217
72255SOL    HW118662   5.728   3.075   5.252
72255SOL    HW218663   5.701   2.971   5.145
72256SOL     OW18664   4.389   4.968   7.527
72256SOL    HW118665   4.365   4.985   7.436
72256SOL    HW218666   4.477   5.005   7.536
72257SOL     OW18667  13.136  12.395   1.355
72257SOL    HW118668  13.070  12.405   1.424
72257SOL    HW218669  13.215  12.437   1.391
72258SOL     OW18670  11.700  12.327   4.412
72258SOL    HW118671  11.645  12.286   4.478
72258SOL    HW218672  11.704  12.419   4.438
72259SOL     OW18673  13.550   7.320  11.455
72259SOL    HW118674  13.589   7.257  11.394
72259SOL    HW218675  13.456   7.308  11.443
72260SOL     OW18676   3.848  11.822   6.115
72260SOL    HW118677   3.842  11.915   6.136
72260SOL    HW218678   3.802  11.813   6.032
72261SOL     OW18679   6.024   5.838   1.233
72261SOL    HW118680   6.059   5.784   1.304
72261SOL    HW218681   6.004   5.922   1.274
72262SOL     OW18682   8.899  14.741   3.864
72262SOL    HW118683   8.976  14.688   3.843
72262SOL    HW218684   8.935  14.825   3.894
72263SOL     OW18685   6.520  13.908   2.663
72263SOL    HW118686   6.562  13.823   2.670
72263SOL    HW218687   6.483  13.923   2.750
72264SOL     OW18688   1.451  12.716   1.043
72264SOL    HW118689   1.534  12.759   1.060
72264SOL    HW218690   1.420  12.688   1.130
72265SOL     OW18691   8.406   9.001   9.289
72265SOL    HW118692   8.492   8.968   9.261
72265SOL    HW218693   8.399   9.087   9.247
72266SOL     OW18694  10.230   1.159   9.519
72266SOL    HW118695  10.253   1.240   9.475
72266SOL    HW218696  10.135   1.157   9.519
72267SOL     OW18697   6.254  10.881  10.231
72267SOL    HW118698   6.215  10.911  10.313
72267SOL    HW218699   6.255  10.786  10.238
72268SOL     OW18700  10.490   8.795   2.240
72268SOL    HW118701  10.465   8.775   2.331
72268SOL    HW218702  10.442   8.875   2.220
72269SOL     OW18703   8.682   5.269   3.517
72269SOL    HW118704   8.716   5.280   3.428
72269SOL    HW218705   8.665   5.175   3.524
72270SOL     OW18706   7.801   6.279   9.493
72270SOL    HW118707   7.718   6.262   9.536
72270SOL    HW218708   7.821   6.198   9.446
72271SOL     OW18709   3.788  13.694   9.215
72271SOL    HW118710   3.836  13.647   9.146
72271SOL    HW218711   3.700  13.706   9.178
72272SOL     OW18712   4.809   9.983   4.376
72272SOL    HW118713   4.749   9.927   4.426
72272SOL    HW218714   4.838  10.049   4.439
72273SOL     OW18715   0.744  12.492   7.319
72273SOL    HW118716   0.730  12.586   7.324
72273SOL    HW218717   0.674  12.460   7.262
72274SOL     OW18718   6.588   8.102  11.121
72274SOL    HW118719   6.642   8.180  11.115
72274SOL    HW218720   6.620   8.045  11.052
72275SOL     OW18721  11.975  12.857   5.265
72275SOL    HW118722  11.899  12.878   5.212
72275SOL    HW218723  12.013  12.780   5.223
72276SOL     OW18724   5.554   6.762  13.896
72276SOL    HW118725   5.618   6.695  13.920
72276SOL    HW218726   5.471   6.714  13.886
72277SOL     OW18727   4.610  11.803   8.632
72277SOL    HW118728   4.591  11.891   8.601
72277SOL    HW218729   4.700  11.807   8.664
72278SOL     OW18730   2.765   3.005  14.826
72278SOL    HW118731   2.706   2.949  14.775
72278SOL    HW218732   2.848   2.957  14.826
72279SOL     OW18733   1.631   2.702   5.888
72279SOL    HW118734   1.651   2.774   5.948
72279SOL    HW218735   1.536   2.705   5.876
72280SOL     OW18736  10.229   1.720   3.899
72280SOL    HW118737  10.158   1.768   3.856
72280SOL    HW218738  10.206   1.628   3.888
72281SOL     OW18739  12.055   7.400  13.029
72281SOL    HW118740  12.126   7.338  13.046
72281SOL    HW218741  12.024   7.426  13.115
72282SOL     OW18742  11.690  13.417   5.909
72282SOL    HW118743  11.721  13.458   5.829
72282SOL    HW218744  11.760  13.357   5.934
72283SOL     OW18745  13.223  13.193   3.283
72283SOL    HW118746  13.128  13.191   3.278
72283SOL    HW218747  13.250  13.252   3.213
72284SOL     OW18748   1.450   5.254  14.726
72284SOL    HW118749   1.467   5.348  14.737
72284SOL    HW218750   1.489   5.214  14.804
72285SOL     OW18751   3.723   4.008   6.368
72285SOL    HW118752   3.694   4.096   6.392
72285SOL    HW218753   3.724   3.959   6.450
72286SOL     OW18754  13.719   1.986  14.517
72286SOL    HW118755  13.756   2.019  14.435
72286SOL    HW218756  13.626   2.008  14.513
72287SOL     OW18757   0.041   2.990   3.817
72287SOL    HW118758   0.090   2.913   3.847
72287SOL    HW218759  14.844   2.992   3.873
72288SOL     OW18760   3.988  10.232  11.545
72288SOL    HW118761   3.982  10.188  11.460
72288SOL    HW218762   4.080  10.258  11.552
72289SOL     OW18763   7.927  10.671   4.162
72289SOL    HW118764   7.880  10.589   4.170
72289SOL    HW218765   7.914  10.715   4.246
72290SOL     OW18766  13.372  12.398   4.398
72290SOL    HW118767  13.301  12.337   4.420
72290SOL    HW218768  13.348  12.431   4.311
72291SOL     OW18769   9.381  13.448   2.953
72291SOL    HW118770   9.421  13.361   2.943
72291SOL    HW218771   9.290  13.436   2.927
72292SOL     OW18772   7.684  13.488   0.201
72292SOL    HW118773   7.779  13.501   0.199
72292SOL    HW218774   7.653  13.549   0.268
72293SOL     OW18775  11.290   5.738   7.947
72293SOL    HW118776  11.286   5.827   7.912
72293SOL    HW218777  11.376   5.732   7.988
72294SOL     OW18778  11.336   8.027   1.504
72294SOL    HW118779  11.250   8.028   1.545
72294SOL    HW218780  11.349   8.116   1.472
72295SOL     OW18781  14.022   8.693   0.552
72295SOL    HW118782  14.030   8.788   0.551
72295SOL    HW218783  14.020   8.668   0.459
72296SOL     OW18784   9.194   2.184   1.358
72296SOL    HW118785   9.133   2.246   1.398
72296SOL    HW218786   9.140   2.131   1.300
72297SOL     OW18787   6.838   5.443   8.481
72297SOL    HW118788   6.774   5.469   8.415
72297SOL    HW218789   6.786   5.412   8.555
72298SOL     OW18790  13.816   4.755   7.319
72298SOL    HW118791  13.758   4.802   7.379
72298SOL    HW218792  13.843   4.677   7.368
72299SOL     OW18793   5.276   6.866  13.025
72299SOL    HW118794   5.317   6.952  13.016
72299SOL    HW218795   5.182   6.885  13.035
72300SOL     OW18796  11.821  14.129   1.328
72300SOL    HW118797  11.823  14.035   1.310
72300SOL    HW218798  11.785  14.136   1.416
72301SOL     OW18799   8.980  10.611   5.663
72301SOL    HW118800   9.041  10.657   5.720
72301SOL    HW218801   8.961  10.672   5.593
72302SOL     OW18802   5.427  13.429   4.930
72302SOL    HW118803   5.429  13.335   4.913
72302SOL    HW218804   5.383  13.437   5.015
72303SOL     OW18805   4.477   6.640  14.257
72303SOL    HW118806   4.532   6.698  14.205
72303SOL    HW218807   4.406   6.696  14.288
72304SOL     OW18808   9.211   6.627   0.842
72304SOL    HW118809   9.262   6.554   0.879
72304SOL    HW218810   9.125   6.588   0.822
72305SOL     OW18811   9.978   5.605  10.112
72305SOL    HW118812  10.028   5.563  10.182
72305SOL    HW218813   9.973   5.538  10.044
72306SOL     OW18814  14.594   5.708   4.308
72306SOL    HW118815  14.673   5.759   4.326
72306SOL    HW218816  14.623   5.617   4.312
72307SOL     OW18817  12.314  14.445  14.171
72307SOL    HW118818  12.331  14.524  14.222
72307SOL    HW218819  12.224  14.457  14.138
72308SOL     OW18820   2.171   7.661   1.005
72308SOL    HW118821   2.145   7.610   0.928
72308SOL    HW218822   2.165   7.599   1.077
72309SOL     OW18823   6.328   3.235  13.612
72309SOL    HW118824   6.320   3.331  13.616
72309SOL    HW218825   6.256   3.208  13.555
72310SOL     OW18826   5.238  13.441   4.741
72310SOL    HW118827   5.169  13.504   4.763
72310SOL    HW218828   5.305  13.455   4.808
72311SOL     OW18829  11.067   9.676   3.563
72311SOL    HW118830  11.105   9.589   3.577
72311SOL    HW218831  11.143   9.734   3.557
72312SOL     OW18832   2.355  10.351   0.886
72312SOL    HW118833   2.286  10.366   0.951
72312SOL    HW218834   2.354  10.429   0.831
72313SOL     OW18835  11.756   2.395   9.142
72313SOL    HW118836  11.803   2.365   9.219
72313SOL    HW218837  11.722   2.316   9.101
72314SOL     OW18838   5.288   3.536   8.246
72314SOL    HW118839   5.304   3.616   8.296
72314SOL    HW218840   5.286   3.565   8.154
72315SOL     OW18841   1.468  13.605   3.040
72315SOL    HW118842   1.466  13.687   2.990
72315SOL    HW218843   1.528  13.622   3.112
72316SOL     OW18844  14.528   5.986   2.383
72316SOL    HW118845  14.591   5.916   2.366
72316SOL    HW218846  14.467   5.948   2.447
72317SOL     OW18847  10.352   3.547   2.921
72317SOL    HW118848  10.399   3.534   2.839
72317SOL    HW218849  10.407   3.608   2.971
72318SOL     OW18850  11.307   6.556  13.338
72318SOL    HW118851  11.372   6.620  13.366
72318SOL    HW218852  11.237   6.562  13.403
72319SOL     OW18853  11.938   9.844  11.436
72319SOL    HW118854  11.866   9.798  11.481
72319SOL    HW218855  11.963   9.784  11.365
72320SOL     OW18856   1.195   5.668  12.257
72320SOL    HW118857   1.117   5.616  12.278
72320SOL    HW218858   1.231   5.626  12.179
72321SOL     OW18859  10.935   9.517  11.564
72321SOL    HW118860  11.008   9.563  11.605
72321SOL    HW218861  10.858   9.569  11.586
72322SOL     OW18862  11.696   6.564  13.522
72322SOL    HW118863  11.634   6.552  13.594
72322SOL    HW218864  11.757   6.490  13.531
72323SOL     OW18865  12.125  10.106  12.216
72323SOL    HW118866  12.096  10.119  12.126
72323SOL    HW218867  12.143  10.012  12.223
72324SOL     OW18868   1.168   4.276  13.487
72324SOL    HW118869   1.132   4.197  13.527
72324SOL    HW218870   1.262   4.260  13.485
72325SOL     OW18871   0.605  11.481   8.627
72325SOL    HW118872   0.672  11.471   8.560
72325SOL    HW218873   0.597  11.395   8.667
72326SOL     OW18874   5.762   4.653   5.564
72326SOL    HW118875   5.847   4.617   5.539
72326SOL    HW218876   5.702   4.622   5.497
72327SOL     OW18877   2.602  11.292  12.234
72327SOL    HW118878   2.523  11.335  12.202
72327SOL    HW218879   2.624  11.338  12.315
72328SOL     OW18880  13.657  13.537   1.884
72328SOL    HW118881  13.640  13.594   1.809
72328SOL    HW218882  13.696  13.458   1.846
72329SOL     OW18883  13.330   7.447  12.965
72329SOL    HW118884  13.247   7.399  12.974
72329SOL    HW218885  13.305   7.536  12.941
72330SOL     OW18886   6.111   1.671   6.404
72330SOL    HW118887   6.071   1.750   6.367
72330SOL    HW218888   6.155   1.629   6.330
72331SOL     OW18889  13.122   8.888   7.409
72331SOL    HW118890  13.160   8.854   7.328
72331SOL    HW218891  13.082   8.812   7.451
72332SOL     OW18892  11.054   3.079   2.643
72332SOL    HW118893  11.119   3.149   2.641
72332SOL    HW218894  10.971   3.123   2.622
72333SOL     OW18895  14.246   8.704  14.058
72333SOL    HW118896  14.175   8.732  14.000
72333SOL    HW218897  14.211   8.626  14.102
72334SOL     OW18898   1.258   4.766   4.872
72334SOL    HW118899   1.337   4.754   4.925
72334SOL    HW218900   1.190   4.716   4.918
72335SOL     OW18901   1.282   8.323  11.317
72335SOL    HW118902   1.287   8.415  11.344
72335SOL    HW218903   1.276   8.327  11.222
72336SOL     OW18904   7.297  13.047   5.746
72336SOL    HW118905   7.221  13.064   5.801
72336SOL    HW218906   7.371  13.084   5.795
72337SOL     OW18907   7.354  11.564   0.944
72337SOL    HW118908   7.442  11.538   0.917
72337SOL    HW218909   7.340  11.649   0.901
72338SOL     OW18910   9.433  14.323  10.087
72338SOL    HW118911   9.411  14.233  10.109
72338SOL    HW218912   9.421  14.328   9.992
72339SOL     OW18913   3.732   1.116   0.904
72339SOL    HW118914   3.803   1.102   0.842
72339SOL    HW218915   3.776   1.139   0.986
72340SOL     OW18916   2.281   1.032   0.464
72340SOL    HW118917   2.284   1.023   0.369
72340SOL    HW218918   2.216   0.968   0.493
72341SOL     OW18919   9.114   6.067   8.301
72341SOL    HW118920   9.122   5.973   8.320
72341SOL    HW218921   9.153   6.110   8.377
72342SOL     OW18922   6.970   1.096   3.416
72342SOL    HW118923   7.035   1.035   3.452
72342SOL    HW218924   6.910   1.039   3.367
72343SOL     OW18925   9.307  12.874   1.338
72343SOL    HW118926   9.272  12.933   1.272
72343SOL    HW218927   9.271  12.788   1.315
72344SOL     OW18928   1.623   1.175   0.540
72344SOL    HW118929   1.709   1.177   0.498
72344SOL    HW218930   1.641   1.162   0.633
72345SOL     OW18931   8.885   4.063   0.942
72345SOL    HW118932   8.923   4.018   1.018
72345SOL    HW218933   8.887   4.156   0.965
72346SOL     OW18934   6.586   7.392  10.214
72346SOL    HW118935   6.597   7.403  10.309
72346SOL    HW218936   6.650   7.452  10.176
72347SOL     OW18937   8.051   6.270   3.890
72347SOL    HW118938   8.107   6.218   3.831
72347SOL    HW218939   7.988   6.311   3.831
72348SOL     OW18940   2.640  14.811  14.677
72348SOL    HW118941   2.584  14.739  14.647
72348SOL    HW218942   2.651  14.795  14.771
72349SOL     OW18943  13.961   9.021  10.157
72349SOL    HW118944  13.931   8.931  10.170
72349SOL    HW218945  13.901   9.056  10.091
72350SOL     OW18946   9.111   4.215   4.667
72350SOL    HW118947   9.033   4.269   4.683
72350SOL    HW218948   9.096   4.136   4.719
72351SOL     OW18949  11.360   7.473   1.229
72351SOL    HW118950  11.267   7.458   1.242
72351SOL    HW218951  11.395   7.389   1.198
72352SOL     OW18952  13.576   4.215   0.257
72352SOL    HW118953  13.536   4.298   0.284
72352SOL    HW218954  13.537   4.149   0.314
72353SOL     OW18955   9.903  10.276   2.199
72353SOL    HW118956   9.851  10.199   2.225
72353SOL    HW218957   9.948  10.249   2.119
72354SOL     OW18958   0.137  11.448  10.985
72354SOL    HW118959   0.136  11.512  11.057
72354SOL    HW218960   0.176  11.495  10.911
72355SOL     OW18961   5.562   8.671   3.025
72355SOL    HW118962   5.606   8.703   3.104
72355SOL    HW218963   5.612   8.594   2.998
72356SOL     OW18964   1.968  11.116   9.051
72356SOL    HW118965   1.873  11.124   9.042
72356SOL    HW218966   1.982  11.102   9.144
72357SOL     OW18967   5.313   6.122  11.718
72357SOL    HW118968   5.373   6.097  11.788
72357SOL    HW218969   5.337   6.212  11.696
72358SOL     OW18970   1.945   8.545   8.217
72358SOL    HW118971   2.026   8.586   8.187
72358SOL    HW218972   1.972   8.488   8.289
72359SOL     OW18973   3.527  10.278  12.419
72359SOL    HW118974   3.601  10.301  12.362
72359SOL    HW218975   3.567  10.226  12.489
72360SOL     OW18976   4.019   3.097   7.900
72360SOL    HW118977   3.952   3.049   7.851
72360SOL    HW218978   4.050   3.035   7.966
72361SOL     OW18979   8.470   2.689   2.022
72361SOL    HW118980   8.391   2.638   2.006
72361SOL    HW218981   8.542   2.632   1.994
72362SOL     OW18982   1.465   3.201  10.362
72362SOL    HW118983   1.421   3.273  10.317
72362SOL    HW218984   1.447   3.217  10.455
72363SOL     OW18985  14.323   1.596  10.088
72363SOL    HW118986  14.276   1.625  10.167
72363SOL    HW218987  14.287   1.509  10.070
72364SOL     OW18988   6.584   7.122   1.653
72364SOL    HW118989   6.624   7.064   1.718
72364SOL    HW218990   6.586   7.208   1.693
72365SOL     OW18991   7.119   4.589   3.427
72365SOL    HW118992   7.067   4.611   3.505
72365SOL    HW218993   7.179   4.521   3.457
72366SOL     OW18994  13.690  13.910   1.584
72366SOL    HW118995  13.695  13.937   1.676
72366SOL    HW218996  13.598  13.885   1.571
72367SOL     OW18997  12.441   8.189   6.469
72367SOL    HW118998  12.428   8.232   6.384
72367SOL    HW218999  12.520   8.229   6.504
72368SOL     OW19000  12.482   9.309   8.551
72368SOL    HW119001  12.575   9.328   8.561
72368SOL    HW219002  12.444   9.325   8.637
72369SOL     OW19003  13.941   5.339   1.117
72369SOL    HW119004  13.995   5.324   1.039
72369SOL    HW219005  13.963   5.429   1.144
72370SOL     OW19006   5.296   4.468   8.741
72370SOL    HW119007   5.268   4.541   8.686
72370SOL    HW219008   5.297   4.504   8.830
72371SOL     OW19009   0.171   3.388   2.118
72371SOL    HW119010   0.151   3.336   2.040
72371SOL    HW219011   0.115   3.465   2.111
72372SOL     OW19012  10.468  12.173   0.174
72372SOL    HW119013  10.480  12.140   0.264
72372SOL    HW219014  10.548  12.146   0.128
72373SOL     OW19015  10.532   7.211   4.056
72373SOL    HW119016  10.494   7.278   3.998
72373SOL    HW219017  10.457   7.168   4.096
72374SOL     OW19018   3.337   4.111   5.795
72374SOL    HW119019   3.368   4.155   5.874
72374SOL    HW219020   3.271   4.170   5.758
72375SOL     OW19021   3.199   8.361   2.881
72375SOL    HW119022   3.197   8.351   2.976
72375SOL    HW219023   3.286   8.397   2.862
72376SOL     OW19024   2.991  11.380  13.291
72376SOL    HW119025   2.934  11.406  13.220
72376SOL    HW219026   2.941  11.398  13.371
72377SOL     OW19027   2.346  12.469   1.021
72377SOL    HW119028   2.422  12.503   1.069
72377SOL    HW219029   2.289  12.545   1.012
72378SOL     OW19030  11.122   9.174   7.559
72378SOL    HW119031  11.146   9.082   7.567
72378SOL    HW219032  11.079   9.195   7.642
72379SOL     OW19033   5.133  10.102   5.249
72379SOL    HW119034   5.082  10.031   5.209
72379SOL    HW219035   5.193  10.057   5.309
72380SOL     OW19036   0.727  10.772   2.962
72380SOL    HW119037   0.746  10.694   3.014
72380SOL    HW219038   0.635  10.764   2.940
72381SOL     OW19039   4.688   0.125   8.943
72381SOL    HW119040   4.674   0.030   8.936
72381SOL    HW219041   4.741   0.147   8.866
72382SOL     OW19042  14.599  14.366  11.361
72382SOL    HW119043  14.585  14.271  11.365
72382SOL    HW219044  14.511  14.403  11.373
72383SOL     OW19045   0.508   9.942   4.687
72383SOL    HW119046   0.531   9.940   4.594
72383SOL    HW219047   0.474   9.855   4.705
72384SOL     OW19048  12.774  14.686  13.680
72384SOL    HW119049  12.687  14.724  13.667
72384SOL    HW219050  12.834  14.752  13.645
72385SOL     OW19051   3.671  11.308  12.192
72385SOL    HW119052   3.651  11.244  12.260
72385SOL    HW219053   3.634  11.271  12.112
72386SOL     OW19054   0.131  10.746   3.182
72386SOL    HW119055   0.164  10.688   3.113
72386SOL    HW219056   0.202  10.808   3.199
72387SOL     OW19057   5.701   3.014   9.800
72387SOL    HW119058   5.662   2.929   9.820
72387SOL    HW219059   5.627   3.074   9.794
72388SOL     OW19060   7.704  12.422   9.099
72388SOL    HW119061   7.628  12.371   9.125
72388SOL    HW219062   7.763  12.418   9.174
72389SOL     OW19063   5.106   1.876  11.253
72389SOL    HW119064   5.041   1.944  11.268
72389SOL    HW219065   5.108   1.826  11.335
72390SOL     OW19066  13.738   4.985   2.148
72390SOL    HW119067  13.715   5.010   2.238
72390SOL    HW219068  13.780   4.900   2.157
72391SOL     OW19069   4.817  12.466   5.089
72391SOL    HW119070   4.759  12.514   5.147
72391SOL    HW219071   4.768  12.389   5.063
72392SOL     OW19072   4.335   9.345  14.179
72392SOL    HW119073   4.374   9.351  14.091
72392SOL    HW219074   4.244   9.322  14.163
72393SOL     OW19075   8.017  10.419   2.170
72393SOL    HW119076   8.099  10.430   2.218
72393SOL    HW219077   7.969  10.500   2.186
72394SOL     OW19078   3.971   0.213   7.233
72394SOL    HW119079   3.929   0.241   7.152
72394SOL    HW219080   3.961   0.117   7.234
72395SOL     OW19081   5.063   8.635  13.725
72395SOL    HW119082   5.028   8.713  13.682
72395SOL    HW219083   5.135   8.667  13.779
72396SOL     OW19084  11.912   6.971  10.489
72396SOL    HW119085  11.948   7.051  10.529
72396SOL    HW219086  11.962   6.900  10.529
72397SOL     OW19087   5.799   9.386   6.811
72397SOL    HW119088   5.728   9.373   6.747
72397SOL    HW219089   5.840   9.469   6.785
72398SOL     OW19090   3.164   0.749   4.008
72398SOL    HW119091   3.073   0.769   3.988
72398SOL    HW219092   3.202   0.832   4.037
72399SOL     OW19093  13.638  11.976  13.323
72399SOL    HW119094  13.701  12.041  13.292
72399SOL    HW219095  13.594  11.945  13.243
72400SOL     OW19096  14.802   2.256   7.183
72400SOL    HW119097  14.840   2.343   7.192
72400SOL    HW219098  14.726   2.256   7.242
72401SOL     OW19099  14.708   7.972  10.729
72401SOL    HW119100  14.738   7.973  10.638
72401SOL    HW219101  14.682   8.063  10.746
72402SOL     OW19102  14.136   8.071  11.478
72402SOL    HW119103  14.183   8.153  11.490
72402SOL    HW219104  14.200   8.013  11.435
72403SOL     OW19105   2.563  14.196  10.284
72403SOL    HW119106   2.640  14.140  10.293
72403SOL    HW219107   2.564  14.222  10.192
72404SOL     OW19108  13.325   9.383   2.017
72404SOL    HW119109  13.367   9.297   2.025
72404SOL    HW219110  13.375   9.428   1.950
72405SOL     OW19111   5.299  10.500   3.974
72405SOL    HW119112   5.352  10.516   3.896
72405SOL    HW219113   5.356  10.520   4.048
72406SOL     OW19114   9.154   8.250  14.372
72406SOL    HW119115   9.243   8.223  14.395
72406SOL    HW219116   9.110   8.169  14.348
72407SOL     OW19117   8.667   4.836  11.276
72407SOL    HW119118   8.641   4.793  11.194
72407SOL    HW219119   8.720   4.771  11.322
72408SOL     OW19120   0.546  12.378   7.134
72408SOL    HW119121   0.599  12.441   7.085
72408SOL    HW219122   0.506  12.322   7.067
72409SOL     OW19123  13.827  12.088   1.657
72409SOL    HW119124  13.752  12.049   1.702
72409SOL    HW219125  13.903  12.055   1.704
72410SOL     OW19126   7.532   9.162   9.199
72410SOL    HW119127   7.593   9.216   9.150
72410SOL    HW219128   7.543   9.074   9.163
72411SOL     OW19129   4.359  11.831   9.385
72411SOL    HW119130   4.398  11.871   9.462
72411SOL    HW219131   4.369  11.897   9.316
72412SOL     OW19132  11.354   1.183   6.678
72412SOL    HW119133  11.408   1.205   6.754
72412SOL    HW219134  11.387   1.238   6.608
72413SOL     OW19135   0.750   4.501  13.593
72413SOL    HW119136   0.774   4.434  13.529
72413SOL    HW219137   0.740   4.581  13.540
72414SOL     OW19138   4.812   6.387  13.970
72414SOL    HW119139   4.775   6.368  13.884
72414SOL    HW219140   4.877   6.455  13.954
72415SOL     OW19141   3.354  12.492   9.858
72415SOL    HW119142   3.389  12.545   9.930
72415SOL    HW219143   3.380  12.539   9.779
72416SOL     OW19144   6.105  11.902   0.062
72416SOL    HW119145   6.039  11.839   0.032
72416SOL    HW219146   6.157  11.854   0.126
72417SOL     OW19147   4.249   8.444  12.700
72417SOL    HW119148   4.201   8.483  12.627
72417SOL    HW219149   4.292   8.368  12.663
72418SOL     OW19150  13.008  11.047   5.306
72418SOL    HW119151  13.072  11.099   5.258
72418SOL    HW219152  13.059  10.974   5.342
72419SOL     OW19153   6.683   9.199   2.828
72419SOL    HW119154   6.619   9.271   2.827
72419SOL    HW219155   6.761   9.237   2.788
72420SOL     OW19156   9.051  10.560   3.137
72420SOL    HW119157   9.012  10.473   3.140
72420SOL    HW219158   9.143  10.546   3.159
72421SOL     OW19159  11.214   4.534   0.652
72421SOL    HW119160  11.229   4.476   0.727
72421SOL    HW219161  11.237   4.482   0.575
72422SOL     OW19162  13.128   8.918   9.934
72422SOL    HW119163  13.118   8.831   9.974
72422SOL    HW219164  13.221   8.923   9.912
72423SOL     OW19165  13.343  13.416  13.457
72423SOL    HW119166  13.346  13.323  13.435
72423SOL    HW219167  13.345  13.418  13.553
72424SOL     OW19168   2.656   5.849   8.580
72424SOL    HW119169   2.567   5.826   8.606
72424SOL    HW219170   2.680   5.784   8.515
72425SOL     OW19171   7.363  11.162   2.739
72425SOL    HW119172   7.342  11.227   2.806
72425SOL    HW219173   7.416  11.210   2.676
72426SOL     OW19174  10.442   3.364  12.873
72426SOL    HW119175  10.492   3.331  12.798
72426SOL    HW219176  10.359   3.393  12.836
72427SOL     OW19177  13.099  13.030   2.389
72427SOL    HW119178  13.050  13.111   2.382
72427SOL    HW219179  13.077  12.981   2.310
72428SOL     OW19180   4.796  14.272   3.619
72428SOL    HW119181   4.878  14.322   3.621
72428SOL    HW219182   4.771  14.273   3.526
72429SOL     OW19183   6.598   8.383   7.742
72429SOL    HW119184   6.656   8.309   7.763
72429SOL    HW219185   6.629   8.414   7.657
72430SOL     OW19186  13.817   1.691   6.138
72430SOL    HW119187  13.818   1.766   6.198
72430SOL    HW219188  13.742   1.639   6.165
72431SOL     OW19189   0.674   1.594   4.004
72431SOL    HW119190   0.590   1.623   3.968
72431SOL    HW219191   0.692   1.654   4.076
72432SOL     OW19192   9.377  13.014   0.296
72432SOL    HW119193   9.402  13.106   0.294
72432SOL    HW219194   9.320  13.006   0.373
72433SOL     OW19195   8.541  11.686   8.463
72433SOL    HW119196   8.525  11.702   8.556
72433SOL    HW219197   8.543  11.590   8.455
72434SOL     OW19198   2.774  13.322   9.857
72434SOL    HW119199   2.819  13.348   9.777
72434SOL    HW219200   2.734  13.238   9.837
72435SOL     OW19201   9.555   9.082   0.588
72435SOL    HW119202   9.613   9.158   0.583
72435SOL    HW219203   9.496   9.101   0.661
72436SOL     OW19204   1.081   9.385  13.388
72436SOL    HW119205   1.029   9.452  13.343
72436SOL    HW219206   1.163   9.429  13.410
72437SOL     OW19207   0.995   8.690  11.554
72437SOL    HW119208   0.990   8.698  11.650
72437SOL    HW219209   0.954   8.770  11.522
72438SOL     OW19210   1.958   6.810   0.184
72438SOL    HW119211   2.028   6.797   0.120
72438SOL    HW219212   1.913   6.889   0.155
72439SOL     OW19213   7.134  12.981  10.796
72439SOL    HW119214   7.169  12.929  10.869
72439SOL    HW219215   7.205  12.984  10.732
72440SOL     OW19216   4.703  12.428   9.366
72440SOL    HW119217   4.785  12.468   9.395
72440SOL    HW219218   4.667  12.491   9.303
72441SOL     OW19219   4.131  10.155   2.900
72441SOL    HW119220   4.156  10.062   2.895
72441SOL    HW219221   4.060  10.164   2.836
72442SOL     OW19222   4.444  11.059  12.707
72442SOL    HW119223   4.528  11.026  12.675
72442SOL    HW219224   4.427  11.136  12.653
72443SOL     OW19225   3.269   2.063  13.584
72443SOL    HW119226   3.214   2.062  13.506
72443SOL    HW219227   3.277   2.156  13.607
72444SOL     OW19228   7.485   2.931  14.047
72444SOL    HW119229   7.475   2.997  14.117
72444SOL    HW219230   7.402   2.885  14.046
72445SOL     OW19231   6.297   0.970   3.548
72445SOL    HW119232   6.206   0.941   3.555
72445SOL    HW219233   6.327   0.935   3.464
72446SOL     OW19234   5.206   1.726  12.309
72446SOL    HW119235   5.159   1.810  12.312
72446SOL    HW219236   5.272   1.733  12.377
72447SOL     OW19237   2.609   1.281  11.924
72447SOL    HW119238   2.541   1.252  11.862
72447SOL    HW219239   2.584   1.241  12.007
72448SOL     OW19240   5.786  13.890  12.148
72448SOL    HW119241   5.742  13.867  12.066
72448SOL    HW219242   5.722  13.867  12.216
72449SOL     OW19243  11.002   5.847  10.289
72449SOL    HW119244  11.007   5.914  10.358
72449SOL    HW219245  11.019   5.765  10.335
72450SOL     OW19246   8.474  13.161   0.982
72450SOL    HW119247   8.416  13.166   1.058
72450SOL    HW219248   8.549  13.110   1.013
72451SOL     OW19249   2.948   6.566   4.031
72451SOL    HW119250   2.868   6.515   4.020
72451SOL    HW219251   3.012   6.521   3.976
72452SOL     OW19252   2.589   0.619  11.197
72452SOL    HW119253   2.638   0.580  11.269
72452SOL    HW219254   2.575   0.546  11.136
72453SOL     OW19255  13.304  12.921   9.624
72453SOL    HW119256  13.238  12.965   9.570
72453SOL    HW219257  13.268  12.923   9.713
72454SOL     OW19258   8.934   4.815  13.743
72454SOL    HW119259   8.995   4.828  13.670
72454SOL    HW219260   8.905   4.724  13.734
72455SOL     OW19261   1.865   4.378   0.341
72455SOL    HW119262   1.935   4.439   0.364
72455SOL    HW219263   1.877   4.304   0.402
72456SOL     OW19264  13.878   0.219   7.055
72456SOL    HW119265  13.909   0.300   7.097
72456SOL    HW219266  13.958   0.167   7.043
72457SOL     OW19267  12.517   7.427   8.444
72457SOL    HW119268  12.493   7.351   8.392
72457SOL    HW219269  12.606   7.409   8.474
72458SOL     OW19270   7.016   6.415  14.156
72458SOL    HW119271   6.970   6.468  14.090
72458SOL    HW219272   7.052   6.479  14.217
72459SOL     OW19273   6.011  13.523   6.130
72459SOL    HW119274   5.949  13.511   6.058
72459SOL    HW219275   6.000  13.614   6.158
72460SOL     OW19276   7.317   8.816   8.787
72460SOL    HW119277   7.336   8.909   8.803
72460SOL    HW219278   7.399   8.771   8.809
72461SOL     OW19279  14.839  11.954   7.460
72461SOL    HW119280   0.024  11.923   7.522
72461SOL    HW219281  14.845  12.049   7.464
72462SOL     OW19282  13.540  12.473   1.083
72462SOL    HW119283  13.598  12.411   1.127
72462SOL    HW219284  13.455  12.459   1.123
72463SOL     OW19285  13.474   5.501   7.011
72463SOL    HW119286  13.508   5.456   6.933
72463SOL    HW219287  13.453   5.589   6.980
72464SOL     OW19288   4.059   3.149   7.290
72464SOL    HW119289   4.107   3.194   7.221
72464SOL    HW219290   3.982   3.204   7.306
72465SOL     OW19291   1.676   3.768   8.886
72465SOL    HW119292   1.632   3.784   8.802
72465SOL    HW219293   1.768   3.783   8.869
72466SOL     OW19294  11.019   5.348  12.273
72466SOL    HW119295  10.958   5.285  12.312
72466SOL    HW219296  11.076   5.294  12.217
72467SOL     OW19297   5.178   6.418  13.688
72467SOL    HW119298   5.143   6.362  13.618
72467SOL    HW219299   5.115   6.491  13.693
72468SOL     OW19300  12.050   8.426  12.336
72468SOL    HW119301  12.113   8.486  12.295
72468SOL    HW219302  11.977   8.422  12.273
72469SOL     OW19303  13.390   0.294  14.463
72469SOL    HW119304  13.340   0.245  14.528
72469SOL    HW219305  13.354   0.383  14.467
72470SOL     OW19306  13.918   8.041   6.825
72470SOL    HW119307  13.958   7.983   6.890
72470SOL    HW219308  13.838   8.072   6.868
72471SOL     OW19309  10.010  10.831   7.946
72471SOL    HW119310  10.001  10.918   7.908
72471SOL    HW219311  10.098  10.829   7.982
72472SOL     OW19312   7.955   7.017   2.212
72472SOL    HW119313   7.913   6.992   2.130
72472SOL    HW219314   7.884   7.052   2.266
72473SOL     OW19315  13.869   2.354  12.287
72473SOL    HW119316  13.910   2.282  12.239
72473SOL    HW219317  13.932   2.425  12.282
72474SOL     OW19318   7.032  12.580   9.868
72474SOL    HW119319   7.081  12.661   9.879
72474SOL    HW219320   6.944  12.607   9.842
72475SOL     OW19321   6.832   1.381   1.217
72475SOL    HW119322   6.774   1.386   1.293
72475SOL    HW219323   6.810   1.459   1.165
72476SOL     OW19324   3.069   0.721  12.285
72476SOL    HW119325   3.101   0.632  12.265
72476SOL    HW219326   3.038   0.754  12.201
72477SOL     OW19327   1.637   6.624   2.004
72477SOL    HW119328   1.605   6.697   1.951
72477SOL    HW219329   1.678   6.565   1.941
72478SOL     OW19330   0.979  13.387  13.544
72478SOL    HW119331   1.021  13.465  13.507
72478SOL    HW219332   1.006  13.386  13.636
72479SOL     OW19333  12.113   4.760   9.450
72479SOL    HW119334  12.158   4.711   9.519
72479SOL    HW219335  12.177   4.766   9.379
72480SOL     OW19336   8.723   4.418   9.849
72480SOL    HW119337   8.656   4.372   9.799
72480SOL    HW219338   8.806   4.380   9.818
72481SOL     OW19339  11.407   8.415  11.939
72481SOL    HW119340  11.338   8.353  11.964
72481SOL    HW219341  11.417   8.472  12.015
72482SOL     OW19342   5.078  13.537   2.068
72482SOL    HW119343   5.072  13.578   2.154
72482SOL    HW219344   4.988  13.536   2.035
72483SOL     OW19345  13.410   1.431   4.007
72483SOL    HW119346  13.441   1.352   4.052
72483SOL    HW219347  13.393   1.402   3.917
72484SOL     OW19348   6.055  12.296   9.702
72484SOL    HW119349   6.070  12.366   9.639
72484SOL    HW219350   5.990  12.239   9.661
72485SOL     OW19351   3.064   4.114   1.711
72485SOL    HW119352   3.130   4.145   1.649
72485SOL    HW219353   2.982   4.117   1.663
72486SOL     OW19354   4.026   4.341  12.505
72486SOL    HW119355   3.947   4.394  12.518
72486SOL    HW219356   4.089   4.376  12.568
72487SOL     OW19357   9.909   3.387  14.110
72487SOL    HW119358   9.891   3.305  14.157
72487SOL    HW219359   9.977   3.429  14.162
72488SOL     OW19360   5.819  12.728   2.209
72488SOL    HW119361   5.845  12.705   2.120
72488SOL    HW219362   5.901  12.752   2.252
72489SOL     OW19363  11.310  12.540   7.516
72489SOL    HW119364  11.339  12.449   7.506
72489SOL    HW219365  11.307  12.553   7.610
72490SOL     OW19366   6.040  10.921   9.630
72490SOL    HW119367   6.084  10.980   9.691
72490SOL    HW219368   6.102  10.908   9.559
72491SOL     OW19369   8.789   6.824  14.245
72491SOL    HW119370   8.831   6.775  14.316
72491SOL    HW219371   8.858   6.839  14.181
72492SOL     OW19372   7.967  12.665  12.449
72492SOL    HW119373   7.872  12.658  12.443
72492SOL    HW219374   7.986  12.674  12.542
72493SOL     OW19375   5.999   5.237   8.482
72493SOL    HW119376   5.956   5.321   8.463
72493SOL    HW219377   6.056   5.222   8.407
72494SOL     OW19378   7.621  12.782   4.703
72494SOL    HW119379   7.667  12.830   4.634
72494SOL    HW219380   7.533  12.821   4.704
72495SOL     OW19381   3.341   4.827   2.462
72495SOL    HW119382   3.379   4.752   2.509
72495SOL    HW219383   3.378   4.904   2.504
72496SOL     OW19384   4.555   5.026  12.249
72496SOL    HW119385   4.484   5.078  12.211
72496SOL    HW219386   4.521   4.937  12.252
72497SOL     OW19387   5.185   4.263  13.584
72497SOL    HW119388   5.101   4.226  13.611
72497SOL    HW219389   5.210   4.214  13.506
72498SOL     OW19390   5.269   2.707   7.173
72498SOL    HW119391   5.185   2.737   7.137
72498SOL    HW219392   5.252   2.694   7.267
72499SOL     OW19393   9.625   5.632   7.061
72499SOL    HW119394   9.608   5.703   7.122
72499SOL    HW219395   9.719   5.614   7.070
72500SOL     OW19396  10.641   0.170   9.198
72500SOL    HW119397  10.629   0.076   9.210
72500SOL    HW219398  10.602   0.189   9.113
72501SOL     OW19399   9.379  13.933   6.294
72501SOL    HW119400   9.333  13.850   6.300
72501SOL    HW219401   9.312  13.995   6.264
72502SOL     OW19402   1.208   8.157  13.199
72502SOL    HW119403   1.141   8.176  13.134
72502SOL    HW219404   1.280   8.120  13.149
72503SOL     OW19405  13.583   7.030   5.245
72503SOL    HW119406  13.622   7.093   5.306
72503SOL    HW219407  13.505   7.074   5.212
72504SOL     OW19408   1.268   0.472   7.057
72504SOL    HW119409   1.287   0.566   7.047
72504SOL    HW219410   1.334   0.441   7.119
72505SOL     OW19411   7.781  11.561   1.370
72505SOL    HW119412   7.867  11.551   1.411
72505SOL    HW219413   7.766  11.655   1.367
72506SOL     OW19414   7.088   6.989   5.314
72506SOL    HW119415   7.027   6.943   5.371
72506SOL    HW219416   7.170   6.940   5.323
72507SOL     OW19417   8.194   7.801   9.568
72507SOL    HW119418   8.125   7.867   9.574
72507SOL    HW219419   8.201   7.766   9.657
72508SOL     OW19420   6.439   1.257   0.697
72508SOL    HW119421   6.432   1.167   0.665
72508SOL    HW219422   6.425   1.250   0.791
72509SOL     OW19423   1.161   3.595   8.906
72509SOL    HW119424   1.199   3.523   8.957
72509SOL    HW219425   1.225   3.666   8.915
72510SOL     OW19426   4.538  14.209   1.363
72510SOL    HW119427   4.507  14.205   1.454
72510SOL    HW219428   4.494  14.137   1.319
72511SOL     OW19429  14.646  11.584   8.999
72511SOL    HW119430  14.729  11.537   9.002
72511SOL    HW219431  14.660  11.661   9.054
72512SOL     OW19432   2.078  13.885   4.015
72512SOL    HW119433   2.024  13.854   3.942
72512SOL    HW219434   2.037  13.967   4.042
72513SOL     OW19435  11.364   1.877  11.750
72513SOL    HW119436  11.411   1.956  11.775
72513SOL    HW219437  11.271   1.901  11.757
72514SOL     OW19438   0.338  14.343  13.674
72514SOL    HW119439   0.365  14.421  13.626
72514SOL    HW219440   0.243  14.353  13.686
72515SOL     OW19441   2.652  14.838  12.238
72515SOL    HW119442   2.604  14.875  12.163
72515SOL    HW219443   2.597  14.766  12.268
72516SOL     OW19444  10.629  11.728  14.356
72516SOL    HW119445  10.535  11.708  14.354
72516SOL    HW219446  10.650  11.755  14.266
72517SOL     OW19447  13.440  10.988  12.837
72517SOL    HW119448  13.524  11.016  12.803
72517SOL    HW219449  13.405  10.929  12.770
72518SOL     OW19450  12.711   6.232   6.369
72518SOL    HW119451  12.785   6.186   6.329
72518SOL    HW219452  12.656   6.162   6.405
72519SOL     OW19453   8.288   1.001  11.158
72519SOL    HW119454   8.378   0.989  11.189
72519SOL    HW219455   8.280   1.095  11.144
72520SOL     OW19456   9.237   6.629   4.251
72520SOL    HW119457   9.225   6.654   4.342
72520SOL    HW219458   9.221   6.535   4.249
72521SOL     OW19459   2.165   0.423   2.847
72521SOL    HW119460   2.180   0.503   2.896
72521SOL    HW219461   2.211   0.355   2.896
72522SOL     OW19462   6.590   6.400  11.976
72522SOL    HW119463   6.599   6.337  12.048
72522SOL    HW219464   6.506   6.442  11.990
72523SOL     OW19465   9.155   9.824   5.566
72523SOL    HW119466   9.065   9.801   5.545
72523SOL    HW219467   9.149   9.885   5.639
72524SOL     OW19468  12.355   1.014   2.139
72524SOL    HW119469  12.348   0.942   2.202
72524SOL    HW219470  12.407   0.978   2.067
72525SOL     OW19471   4.159   4.562  11.543
72525SOL    HW119472   4.103   4.630  11.507
72525SOL    HW219473   4.130   4.482  11.500
72526SOL     OW19474   2.652   2.398   9.667
72526SOL    HW119475   2.677   2.355   9.749
72526SOL    HW219476   2.558   2.383   9.660
72527SOL     OW19477   8.830   8.451   4.404
72527SOL    HW119478   8.792   8.470   4.318
72527SOL    HW219479   8.803   8.526   4.458
72528SOL     OW19480   4.022   0.840   3.768
72528SOL    HW119481   4.020   0.910   3.833
72528SOL    HW219482   4.038   0.760   3.819
72529SOL     OW19483  11.744  11.361  10.769
72529SOL    HW119484  11.835  11.360  10.738
72529SOL    HW219485  11.692  11.349  10.689
72530SOL     OW19486   5.004   2.775  10.601
72530SOL    HW119487   5.070   2.761  10.669
72530SOL    HW219488   5.042   2.841  10.543
72531SOL     OW19489  11.895   3.975  14.588
72531SOL    HW119490  11.966   3.923  14.624
72531SOL    HW219491  11.850   3.915  14.528
72532SOL     OW19492  14.639   9.236   7.963
72532SOL    HW119493  14.566   9.297   7.971
72532SOL    HW219494  14.639   9.188   8.046
72533SOL     OW19495   6.874   0.805  13.643
72533SOL    HW119496   6.875   0.776  13.734
72533SOL    HW219497   6.966   0.806  13.618
72534SOL     OW19498   3.773   9.811  11.673
72534SOL    HW119499   3.828   9.889  11.682
72534SOL    HW219500   3.829   9.747  11.629
72535SOL     OW19501  10.861  11.112  12.019
72535SOL    HW119502  10.950  11.122  11.986
72535SOL    HW219503  10.816  11.191  11.990
72536SOL     OW19504   8.807   7.168   5.011
72536SOL    HW119505   8.744   7.239   5.007
72536SOL    HW219506   8.759   7.096   5.053
72537SOL     OW19507  11.674   3.313   1.801
72537SOL    HW119508  11.648   3.226   1.832
72537SOL    HW219509  11.623   3.373   1.855
72538SOL     OW19510   3.246   8.822  11.828
72538SOL    HW119511   3.162   8.776  11.834
72538SOL    HW219512   3.312   8.753  11.832
72539SOL     OW19513   7.069   7.680   3.309
72539SOL    HW119514   7.012   7.727   3.370
72539SOL    HW219515   7.022   7.679   3.226
72540SOL     OW19516   2.831  12.083  10.290
72540SOL    HW119517   2.920  12.108  10.316
72540SOL    HW219518   2.802  12.153  10.232
72541SOL     OW19519   4.611   2.914   5.346
72541SOL    HW119520   4.538   2.895   5.286
72541SOL    HW219521   4.641   2.828   5.375
72542SOL     OW19522   7.660  13.179   0.312
72542SOL    HW119523   7.633  13.089   0.334
72542SOL    HW219524   7.584  13.216   0.268
72543SOL     OW19525   1.015   6.703  11.537
72543SOL    HW119526   0.961   6.655  11.600
72543SOL    HW219527   0.970   6.786  11.524
72544SOL     OW19528   1.126  10.794  10.542
72544SOL    HW119529   1.061  10.823  10.478
72544SOL    HW219530   1.188  10.866  10.547
72545SOL     OW19531  13.496   3.817   6.078
72545SOL    HW119532  13.591   3.814   6.091
72545SOL    HW219533  13.485   3.825   5.984
72546SOL     OW19534   2.477   8.780  14.376
72546SOL    HW119535   2.521   8.716  14.320
72546SOL    HW219536   2.490   8.747  14.465
72547SOL     OW19537   3.446  13.892   0.895
72547SOL    HW119538   3.424  13.985   0.889
72547SOL    HW219539   3.375  13.847   0.849
72548SOL     OW19540  14.343   0.504   6.270
72548SOL    HW119541  14.433   0.473   6.273
72548SOL    HW219542  14.350   0.596   6.246
72549SOL     OW19543  10.651  11.774   3.570
72549SOL    HW119544  10.594  11.744   3.499
72549SOL    HW219545  10.736  11.735   3.549
72550SOL     OW19546   4.025   2.504   1.079
72550SOL    HW119547   3.956   2.441   1.059
72550SOL    HW219548   4.101   2.450   1.102
72551SOL     OW19549   3.685   8.097   8.349
72551SOL    HW119550   3.643   8.011   8.359
72551SOL    HW219551   3.779   8.077   8.351
72552SOL     OW19552   4.523   3.846   5.638
72552SOL    HW119553   4.560   3.787   5.703
72552SOL    HW219554   4.485   3.918   5.689
72553SOL     OW19555   7.255   0.151   5.331
72553SOL    HW119556   7.222   0.151   5.420
72553SOL    HW219557   7.207   0.079   5.288
72554SOL     OW19558   6.056   0.618   7.514
72554SOL    HW119559   6.031   0.551   7.451
72554SOL    HW219560   6.132   0.662   7.473
72555SOL     OW19561   5.505   5.333   5.131
72555SOL    HW119562   5.574   5.353   5.194
72555SOL    HW219563   5.438   5.289   5.182
72556SOL     OW19564   5.802   5.073   3.683
72556SOL    HW119565   5.829   5.165   3.686
72556SOL    HW219566   5.883   5.024   3.694
72557SOL     OW19567   3.086   6.346  14.681
72557SOL    HW119568   3.140   6.425  14.677
72557SOL    HW219569   3.149   6.274  14.692
72558SOL     OW19570   1.028  13.448  13.166
72558SOL    HW119571   0.958  13.448  13.231
72558SOL    HW219572   1.023  13.536  13.127
72559SOL     OW19573   3.638  10.075   2.340
72559SOL    HW119574   3.695   9.999   2.352
72559SOL    HW219575   3.550  10.038   2.330
72560SOL     OW19576   7.390   8.630   6.571
72560SOL    HW119577   7.309   8.613   6.619
72560SOL    HW219578   7.362   8.660   6.485
72561SOL     OW19579   9.555  13.085  10.524
72561SOL    HW119580   9.582  13.167  10.566
72561SOL    HW219581   9.632  13.029  10.532
72562SOL     OW19582   4.324   5.523   5.577
72562SOL    HW119583   4.370   5.539   5.494
72562SOL    HW219584   4.240   5.566   5.567
72563SOL     OW19585   5.944   9.242   8.804
72563SOL    HW119586   5.999   9.174   8.765
72563SOL    HW219587   5.987   9.262   8.888
72564SOL     OW19588   7.686   9.237  11.725
72564SOL    HW119589   7.612   9.250  11.785
72564SOL    HW219590   7.655   9.171  11.663
72565SOL     OW19591   6.747   4.430  12.134
72565SOL    HW119592   6.685   4.386  12.193
72565SOL    HW219593   6.832   4.411  12.173
72566SOL     OW19594  12.652   2.798   5.879
72566SOL    HW119595  12.673   2.738   5.807
72566SOL    HW219596  12.622   2.740   5.950
72567SOL     OW19597   6.389   6.616   6.666
72567SOL    HW119598   6.383   6.686   6.602
72567SOL    HW219599   6.304   6.616   6.710
72568SOL     OW19600  11.454   6.963  10.704
72568SOL    HW119601  11.444   7.043  10.756
72568SOL    HW219602  11.520   6.986  10.638
72569SOL     OW19603   0.338   2.619   0.628
72569SOL    HW119604   0.354   2.685   0.560
72569SOL    HW219605   0.244   2.628   0.647
72570SOL     OW19606   5.514   9.456   6.052
72570SOL    HW119607   5.467   9.540   6.055
72570SOL    HW219608   5.594   9.475   6.002
72571SOL     OW19609  11.885   9.555  14.577
72571SOL    HW119610  11.863   9.565  14.485
72571SOL    HW219611  11.977   9.528  14.577
72572SOL     OW19612   7.706   8.608   7.946
72572SOL    HW119613   7.689   8.700   7.966
72572SOL    HW219614   7.657   8.560   8.012
72573SOL     OW19615   2.080  10.932   2.593
72573SOL    HW119616   2.037  11.017   2.608
72573SOL    HW219617   2.011  10.877   2.555
72574SOL     OW19618   4.214   3.638   0.429
72574SOL    HW119619   4.236   3.545   0.415
72574SOL    HW219620   4.289   3.686   0.396
72575SOL     OW19621   1.317   1.037  13.760
72575SOL    HW119622   1.228   1.025  13.793
72575SOL    HW219623   1.306   1.046  13.665
72576SOL     OW19624  11.038  13.196  11.810
72576SOL    HW119625  10.977  13.192  11.737
72576SOL    HW219626  11.115  13.241  11.774
72577SOL     OW19627   8.193  12.491   1.934
72577SOL    HW119628   8.151  12.534   1.859
72577SOL    HW219629   8.274  12.455   1.897
72578SOL     OW19630   4.500  10.510   8.855
72578SOL    HW119631   4.449  10.523   8.935
72578SOL    HW219632   4.448  10.551   8.786
72579SOL     OW19633   9.826  12.967  13.214
72579SOL    HW119634   9.916  12.962  13.180
72579SOL    HW219635   9.790  13.047  13.175
72580SOL     OW19636   1.314   2.134   9.708
72580SOL    HW119637   1.348   2.148   9.620
72580SOL    HW219638   1.343   2.211   9.757
72581SOL     OW19639   7.546  12.233   9.181
72581SOL    HW119640   7.609  12.210   9.249
72581SOL    HW219641   7.461  12.216   9.221
72582SOL     OW19642  14.280   1.450   0.269
72582SOL    HW119643  14.274   1.358   0.243
72582SOL    HW219644  14.214   1.460   0.338
72583SOL     OW19645   6.778   7.616  13.948
72583SOL    HW119646   6.824   7.575  14.022
72583SOL    HW219647   6.744   7.542  13.898
72584SOL     OW19648   9.249   0.227  12.759
72584SOL    HW119649   9.287   0.153  12.806
72584SOL    HW219650   9.192   0.270  12.822
72585SOL     OW19651   5.659   6.129   5.201
72585SOL    HW119652   5.676   6.221   5.220
72585SOL    HW219653   5.619   6.129   5.114
72586SOL     OW19654   4.792   7.359   2.434
72586SOL    HW119655   4.771   7.265   2.437
72586SOL    HW219656   4.862   7.371   2.498
72587SOL     OW19657  10.757   9.257   8.243
72587SOL    HW119658  10.668   9.238   8.272
72587SOL    HW219659  10.776   9.193   8.175
72588SOL     OW19660   2.724   6.553   8.314
72588SOL    HW119661   2.671   6.473   8.317
72588SOL    HW219662   2.663   6.621   8.284
72589SOL     OW19663   1.054   0.754   1.859
72589SOL    HW119664   1.090   0.827   1.909
72589SOL    HW219665   1.110   0.747   1.783
72590SOL     OW19666   6.505  14.820   5.953
72590SOL    HW119667   6.554  14.785   5.879
72590SOL    HW219668   6.449   0.008   5.914
72591SOL     OW19669   2.029  10.280   0.214
72591SOL    HW119670   1.949  10.230   0.228
72591SOL    HW219671   2.088  10.250   0.284
72592SOL     OW19672  11.429   2.045   6.439
72592SOL    HW119673  11.503   2.013   6.387
72592SOL    HW219674  11.460   2.127   6.477
72593SOL     OW19675   8.462   6.116   6.745
72593SOL    HW119676   8.466   6.171   6.823
72593SOL    HW219677   8.369   6.095   6.735
72594SOL     OW19678   4.393   0.911   8.365
72594SOL    HW119679   4.323   0.868   8.414
72594SOL    HW219680   4.355   0.930   8.280
72595SOL     OW19681  13.145  11.720  13.658
72595SOL    HW119682  13.139  11.797  13.601
72595SOL    HW219683  13.201  11.747  13.730
72596SOL     OW19684  13.884   3.371   2.104
72596SOL    HW119685  13.863   3.409   2.189
72596SOL    HW219686  13.839   3.287   2.103
72597SOL     OW19687   7.878   2.531  14.165
72597SOL    HW119688   7.813   2.572  14.222
72597SOL    HW219689   7.933   2.603  14.135
72598SOL     OW19690   8.745   9.712   3.330
72598SOL    HW119691   8.767   9.801   3.302
72598SOL    HW219692   8.828   9.674   3.359
72599SOL     OW19693   1.318   2.676   9.164
72599SOL    HW119694   1.242   2.727   9.193
72599SOL    HW219695   1.283   2.588   9.151
72600SOL     OW19696  13.487   5.191   1.468
72600SOL    HW119697  13.471   5.141   1.549
72600SOL    HW219698  13.525   5.127   1.408
72601SOL     OW19699   7.485  11.956   6.737
72601SOL    HW119700   7.399  11.935   6.774
72601SOL    HW219701   7.507  11.880   6.683
72602SOL     OW19702   8.510   9.438  11.472
72602SOL    HW119703   8.453   9.507  11.437
72602SOL    HW219704   8.581   9.486  11.517
72603SOL     OW19705   6.714   7.656  10.141
72603SOL    HW119706   6.770   7.723  10.101
72603SOL    HW219707   6.752   7.642  10.227
72604SOL     OW19708   7.885  10.992  10.734
72604SOL    HW119709   7.877  10.964  10.643
72604SOL    HW219710   7.918  10.915  10.780
72605SOL     OW19711  13.992   8.862  14.344
72605SOL    HW119712  13.897   8.868  14.344
72605SOL    HW219713  14.019   8.908  14.424
72606SOL     OW19714   6.663  14.151   0.608
72606SOL    HW119715   6.629  14.081   0.664
72606SOL    HW219716   6.585  14.188   0.567
72607SOL     OW19717  14.339  13.034   0.959
72607SOL    HW119718  14.413  13.085   0.990
72607SOL    HW219719  14.263  13.076   0.999
72608SOL     OW19720   4.974   3.471  13.602
72608SOL    HW119721   5.002   3.562  13.610
72608SOL    HW219722   5.050   3.426  13.567
72609SOL     OW19723   5.353   5.586  10.946
72609SOL    HW119724   5.308   5.501  10.957
72609SOL    HW219725   5.282   5.647  10.928
72610SOL     OW19726  13.479  11.714   3.728
72610SOL    HW119727  13.523  11.745   3.648
72610SOL    HW219728  13.518  11.766   3.798
72611SOL     OW19729   9.136   9.028  12.868
72611SOL    HW119730   9.088   9.011  12.787
72611SOL    HW219731   9.228   9.033  12.841
72612SOL     OW19732   1.311   6.875   0.656
72612SOL    HW119733   1.251   6.940   0.619
72612SOL    HW219734   1.296   6.879   0.750
72613SOL     OW19735  12.103  11.519   3.008
72613SOL    HW119736  12.074  11.506   3.098
72613SOL    HW219737  12.188  11.562   3.016
72614SOL     OW19738   3.500   1.432   0.406
72614SOL    HW119739   3.437   1.496   0.438
72614SOL    HW219740   3.584   1.460   0.442
72615SOL     OW19741  14.144   2.833   8.343
72615SOL    HW119742  14.099   2.867   8.421
72615SOL    HW219743  14.072   2.806   8.285
72616SOL     OW19744   9.855   9.096   9.670
72616SOL    HW119745   9.878   9.187   9.649
72616SOL    HW219746   9.918   9.070   9.737
72617SOL     OW19747  13.643   9.254  13.319
72617SOL    HW119748  13.583   9.307  13.266
72617SOL    HW219749  13.586   9.197  13.371
72618SOL     OW19750  11.286   0.262   6.442
72618SOL    HW119751  11.337   0.281   6.521
72618SOL    HW219752  11.266   0.168   6.449
72619SOL     OW19753   3.869   2.931  13.685
72619SOL    HW119754   3.793   2.963  13.636
72619SOL    HW219755   3.887   2.845  13.646
72620SOL     OW19756  12.792   5.828   4.584
72620SOL    HW119757  12.776   5.917   4.616
72620SOL    HW219758  12.706   5.785   4.590
72621SOL     OW19759   0.535   5.638   6.487
72621SOL    HW119760   0.456   5.675   6.448
72621SOL    HW219761   0.591   5.615   6.412
72622SOL     OW19762   6.397   6.883   9.679
72622SOL    HW119763   6.457   6.922   9.615
72622SOL    HW219764   6.310   6.905   9.647
72623SOL     OW19765  10.447  11.235   7.035
72623SOL    HW119766  10.446  11.256   6.942
72623SOL    HW219767  10.402  11.308   7.077
72624SOL     OW19768   8.046   6.822   6.207
72624SOL    HW119769   8.114   6.888   6.221
72624SOL    HW219770   8.029   6.786   6.294
72625SOL     OW19771   2.948   8.787  14.040
72625SOL    HW119772   2.874   8.767  14.098
72625SOL    HW219773   2.929   8.875  14.007
72626SOL     OW19774   9.070   8.744  11.892
72626SOL    HW119775   9.135   8.692  11.845
72626SOL    HW219776   8.999   8.755  11.829
72627SOL     OW19777   2.612   5.981   6.028
72627SOL    HW119778   2.524   5.976   6.067
72627SOL    HW219779   2.603   5.934   5.944
72628SOL     OW19780  10.831   6.435   0.253
72628SOL    HW119781  10.920   6.469   0.265
72628SOL    HW219782  10.797   6.426   0.342
72629SOL     OW19783   0.922   3.081   8.864
72629SOL    HW119784   0.914   3.176   8.862
72629SOL    HW219785   0.891   3.056   8.951
72630SOL     OW19786  12.361   0.980  13.421
72630SOL    HW119787  12.392   0.938  13.501
72630SOL    HW219788  12.397   0.926  13.351
72631SOL     OW19789   2.935   7.613   1.011
72631SOL    HW119790   2.853   7.643   1.052
72631SOL    HW219791   3.001   7.675   1.042
72632SOL     OW19792   5.554   7.282  10.329
72632SOL    HW119793   5.493   7.315  10.395
72632SOL    HW219794   5.629   7.250  10.379
72633SOL     OW19795   6.617  10.475   8.620
72633SOL    HW119796   6.667  10.536   8.674
72633SOL    HW219797   6.651  10.389   8.644
72634SOL     OW19798   5.070   2.718   1.461
72634SOL    HW119799   4.979   2.734   1.437
72634SOL    HW219800   5.120   2.768   1.397
72635SOL     OW19801   2.595   1.646   3.399
72635SOL    HW119802   2.571   1.638   3.306
72635SOL    HW219803   2.688   1.626   3.401
72636SOL     OW19804  14.332  10.194  10.303
72636SOL    HW119805  14.267  10.141  10.350
72636SOL    HW219806  14.401  10.133  10.280
72637SOL     OW19807   4.514  12.756  10.907
72637SOL    HW119808   4.587  12.799  10.863
72637SOL    HW219809   4.469  12.827  10.954
72638SOL     OW19810   5.252  11.020   7.118
72638SOL    HW119811   5.238  11.104   7.161
72638SOL    HW219812   5.165  10.994   7.087
72639SOL     OW19813   7.085   7.574  13.192
72639SOL    HW119814   7.070   7.503  13.254
72639SOL    HW219815   7.158   7.624  13.230
72640SOL     OW19816   5.051  13.784   9.800
72640SOL    HW119817   5.010  13.776   9.714
72640SOL    HW219818   4.978  13.796   9.860
72641SOL     OW19819  13.769  11.989   2.188
72641SOL    HW119820  13.743  11.934   2.262
72641SOL    HW219821  13.736  11.943   2.111
72642SOL     OW19822   8.412   4.425   9.791
72642SOL    HW119823   8.340   4.385   9.743
72642SOL    HW219824   8.386   4.420   9.883
72643SOL     OW19825   2.270   0.561  13.032
72643SOL    HW119826   2.335   0.544  13.100
72643SOL    HW219827   2.284   0.493  12.967
72644SOL     OW19828   6.906  12.167   8.343
72644SOL    HW119829   6.950  12.093   8.384
72644SOL    HW219830   6.952  12.244   8.376
72645SOL     OW19831   8.695  12.253  10.354
72645SOL    HW119832   8.776  12.218  10.390
72645SOL    HW219833   8.706  12.348  10.358
72646SOL     OW19834  12.557   2.952   8.288
72646SOL    HW119835  12.485   3.014   8.276
72646SOL    HW219836  12.620   2.999   8.341
72647SOL     OW19837   0.913  12.319  13.487
72647SOL    HW119838   0.858  12.395  13.507
72647SOL    HW219839   0.922  12.321  13.391
72648SOL     OW19840   0.248   9.690  11.995
72648SOL    HW119841   0.218   9.625  12.057
72648SOL    HW219842   0.190   9.766  12.009
72649SOL     OW19843   6.008   3.405   4.416
72649SOL    HW119844   5.968   3.394   4.330
72649SOL    HW219845   6.093   3.363   4.409
72650SOL     OW19846   5.102   5.630   5.600
72650SOL    HW119847   5.177   5.675   5.637
72650SOL    HW219848   5.140   5.562   5.544
72651SOL     OW19849   6.758   2.034  13.019
72651SOL    HW119850   6.730   2.070  13.103
72651SOL    HW219851   6.710   1.952  13.010
72652SOL     OW19852  12.196  10.376   0.731
72652SOL    HW119853  12.218  10.323   0.654
72652SOL    HW219854  12.102  10.394   0.722
72653SOL     OW19855   7.382  13.272  12.198
72653SOL    HW119856   7.315  13.275  12.266
72653SOL    HW219857   7.418  13.184  12.205
72654SOL     OW19858   9.611   3.969   3.042
72654SOL    HW119859   9.656   3.905   3.097
72654SOL    HW219860   9.607   3.929   2.956
72655SOL     OW19861  12.279   7.092  13.561
72655SOL    HW119862  12.341   7.139  13.506
72655SOL    HW219863  12.323   7.085  13.646
72656SOL     OW19864   9.101  14.452   6.456
72656SOL    HW119865   9.128  14.410   6.537
72656SOL    HW219866   9.156  14.412   6.389
72657SOL     OW19867   6.273   6.017   9.699
72657SOL    HW119868   6.331   6.084   9.736
72657SOL    HW219869   6.271   6.036   9.605
72658SOL     OW19870   6.207  14.535  11.416
72658SOL    HW119871   6.269  14.534  11.489
72658SOL    HW219872   6.149  14.461  11.432
72659SOL     OW19873   8.803   9.460  11.208
72659SOL    HW119874   8.865   9.465  11.281
72659SOL    HW219875   8.853   9.419  11.137
72660SOL     OW19876   8.641  10.727   1.681
72660SOL    HW119877   8.580  10.731   1.755
72660SOL    HW219878   8.631  10.638   1.646
72661SOL     OW19879   5.509   5.307   2.676
72661SOL    HW119880   5.519   5.396   2.642
72661SOL    HW219881   5.574   5.301   2.746
72662SOL     OW19882  11.627   6.534   5.709
72662SOL    HW119883  11.635   6.613   5.655
72662SOL    HW219884  11.581   6.471   5.653
72663SOL     OW19885   6.534   5.283   0.764
72663SOL    HW119886   6.524   5.237   0.681
72663SOL    HW219887   6.627   5.272   0.786
72664SOL     OW19888   7.445   8.487  14.107
72664SOL    HW119889   7.382   8.418  14.127
72664SOL    HW219890   7.391   8.558  14.071
72665SOL     OW19891  14.054  10.322  14.318
72665SOL    HW119892  13.972  10.273  14.313
72665SOL    HW219893  14.121  10.258  14.294
72666SOL     OW19894   1.271   2.209   2.193
72666SOL    HW119895   1.359   2.177   2.214
72666SOL    HW219896   1.269   2.299   2.224
72667SOL     OW19897   1.528   0.344  13.620
72667SOL    HW119898   1.542   0.387  13.705
72667SOL    HW219899   1.479   0.265  13.641
72668SOL     OW19900   7.264   5.270  10.664
72668SOL    HW119901   7.285   5.177  10.657
72668SOL    HW219902   7.347   5.314  10.643
72669SOL     OW19903   0.093  12.157   0.193
72669SOL    HW119904   0.128  12.126   0.277
72669SOL    HW219905   0.108  12.084   0.133
72670SOL     OW19906   9.165   5.404   7.139
72670SOL    HW119907   9.245   5.457   7.136
72670SOL    HW219908   9.163   5.358   7.056
72671SOL     OW19909  12.024   4.985  14.260
72671SOL    HW119910  12.059   5.073  14.271
72671SOL    HW219911  12.072   4.932  14.323
72672SOL     OW19912   4.755   4.927  10.419
72672SOL    HW119913   4.850   4.929  10.415
72672SOL    HW219914   4.736   4.876  10.498
72673SOL     OW19915  13.680  13.715  14.113
72673SOL    HW119916  13.734  13.636  14.105
72673SOL    HW219917  13.618  13.709  14.040
72674SOL     OW19918   4.487   2.547  12.262
72674SOL    HW119919   4.451   2.466  12.224
72674SOL    HW219920   4.459   2.616  12.202
72675SOL     OW19921   2.446   9.711  14.260
72675SOL    HW119922   2.430   9.628  14.306
72675SOL    HW219923   2.360   9.736  14.226
72676SOL     OW19924   8.181   3.063   9.591
72676SOL    HW119925   8.115   3.100   9.649
72676SOL    HW219926   8.132   3.009   9.529
72677SOL     OW19927  10.897  12.998   7.626
72677SOL    HW119928  10.922  12.964   7.712
72677SOL    HW219929  10.821  12.945   7.601
72678SOL     OW19930   6.727   2.345   1.116
72678SOL    HW119931   6.750   2.260   1.079
72678SOL    HW219932   6.633   2.338   1.135
72679SOL     OW19933  12.949  12.234  10.111
72679SOL    HW119934  13.015  12.225  10.180
72679SOL    HW219935  12.904  12.149  10.110
72680SOL     OW19936   3.142   4.070   9.967
72680SOL    HW119937   3.203   4.044   9.899
72680SOL    HW219938   3.180   4.036  10.048
72681SOL     OW19939   4.214  12.760   8.763
72681SOL    HW119940   4.265  12.798   8.691
72681SOL    HW219941   4.178  12.679   8.727
72682SOL     OW19942   6.108  10.832  12.030
72682SOL    HW119943   6.140  10.749  11.995
72682SOL    HW219944   6.105  10.890  11.953
72683SOL     OW19945   8.871   4.760  13.421
72683SOL    HW119946   8.860   4.682  13.366
72683SOL    HW219947   8.798   4.757  13.482
72684SOL     OW19948   4.170  11.153   6.104
72684SOL    HW119949   4.138  11.064   6.088
72684SOL    HW219950   4.207  11.150   6.192
72685SOL     OW19951   8.400   5.989   8.149
72685SOL    HW119952   8.380   6.038   8.228
72685SOL    HW219953   8.406   5.898   8.178
72686SOL     OW19954  10.885   9.600   9.440
72686SOL    HW119955  10.793   9.576   9.449
72686SOL    HW219956  10.913   9.620   9.530
72687SOL     OW19957   1.852   3.883   7.706
72687SOL    HW119958   1.906   3.962   7.702
72687SOL    HW219959   1.764   3.916   7.726
72688SOL     OW19960   7.002   3.197   3.232
72688SOL    HW119961   7.005   3.103   3.248
72688SOL    HW219962   7.043   3.236   3.310
72689SOL     OW19963   2.858   9.488  10.067
72689SOL    HW119964   2.837   9.394  10.069
72689SOL    HW219965   2.949   9.492  10.035
72690SOL     OW19966   6.086   1.915   9.025
72690SOL    HW119967   6.168   1.917   8.976
72690SOL    HW219968   6.045   1.832   8.999
72691SOL     OW19969  14.313   4.442  11.532
72691SOL    HW119970  14.265   4.461  11.451
72691SOL    HW219971  14.335   4.528  11.568
72692SOL     OW19972  10.510   5.986   3.035
72692SOL    HW119973  10.515   6.041   2.957
72692SOL    HW219974  10.554   6.037   3.103
72693SOL     OW19975  11.065   9.376  11.764
72693SOL    HW119976  11.060   9.283  11.743
72693SOL    HW219977  11.018   9.419  11.692
72694SOL     OW19978  12.549  13.679  11.100
72694SOL    HW119979  12.577  13.614  11.165
72694SOL    HW219980  12.573  13.640  11.016
72695SOL     OW19981   9.051   2.184   7.850
72695SOL    HW119982   9.145   2.168   7.850
72695SOL    HW219983   9.043   2.279   7.851
72696SOL     OW19984   3.393   5.777  13.698
72696SOL    HW119985   3.342   5.852  13.666
72696SOL    HW219986   3.484   5.808  13.695
72697SOL     OW19987   5.722   3.617   2.686
72697SOL    HW119988   5.726   3.663   2.770
72697SOL    HW219989   5.630   3.594   2.675
72698SOL     OW19990  12.893  14.724   6.290
72698SOL    HW119991  12.843  14.804   6.274
72698SOL    HW219992  12.965  14.727   6.227
72699SOL     OW19993  11.552   5.821   9.493
72699SOL    HW119994  11.624   5.767   9.525
72699SOL    HW219995  11.473   5.779   9.526
72700SOL     OW19996  14.379  13.008   9.914
72700SOL    HW119997  14.323  13.083   9.892
72700SOL    HW219998  14.450  13.047   9.966
72701SOL     OW19999  10.301  10.982  10.594
72701SOL    HW120000  10.329  11.024  10.513
72701SOL    HW220001  10.382  10.952  10.635
72702SOL     OW20002  13.381  14.805  11.069
72702SOL    HW120003  13.289  14.824  11.051
72702SOL    HW220004  13.401  14.854  11.149
72703SOL     OW20005   6.044   3.602  12.136
72703SOL    HW120006   6.040   3.603  12.040
72703SOL    HW220007   6.021   3.513  12.160
72704SOL     OW20008  11.146   6.168   8.865
72704SOL    HW120009  11.155   6.130   8.953
72704SOL    HW220010  11.100   6.100   8.815
72705SOL     OW20011   9.049   4.266   5.313
72705SOL    HW120012   9.002   4.212   5.249
72705SOL    HW220013   8.983   4.287   5.379
72706SOL     OW20014   9.770   6.885   6.606
72706SOL    HW120015   9.731   6.889   6.693
72706SOL    HW220016   9.733   6.961   6.560
72707SOL     OW20017   9.142   1.536  13.424
72707SOL    HW120018   9.153   1.497  13.510
72707SOL    HW220019   9.193   1.617  13.427
72708SOL     OW20020   0.604   0.728   9.604
72708SOL    HW120021   0.548   0.717   9.681
72708SOL    HW220022   0.578   0.813   9.567
72709SOL     OW20023   6.087   7.767   2.973
72709SOL    HW120024   6.153   7.791   3.037
72709SOL    HW220025   6.134   7.768   2.889
72710SOL     OW20026  10.593   6.301   9.381
72710SOL    HW120027  10.638   6.251   9.450
72710SOL    HW220028  10.515   6.250   9.361
72711SOL     OW20029   3.255   5.935   8.215
72711SOL    HW120030   3.228   6.026   8.221
72711SOL    HW220031   3.315   5.923   8.288
72712SOL     OW20032  14.422   9.378  12.649
72712SOL    HW120033  14.425   9.332  12.733
72712SOL    HW220034  14.488   9.334  12.596
72713SOL     OW20035   2.025   8.462   8.926
72713SOL    HW120036   1.994   8.418   8.846
72713SOL    HW220037   2.105   8.507   8.899
72714SOL     OW20038   0.499  11.408   7.441
72714SOL    HW120039   0.573  11.448   7.393
72714SOL    HW220040   0.425  11.415   7.381
72715SOL     OW20041   1.222   7.113  12.213
72715SOL    HW120042   1.223   7.100  12.308
72715SOL    HW220043   1.290   7.054  12.180
72716SOL     OW20044   2.511   6.949  13.332
72716SOL    HW120045   2.508   6.936  13.427
72716SOL    HW220046   2.420   6.941  13.304
72717SOL     OW20047   2.565   3.195   9.667
72717SOL    HW120048   2.552   3.239   9.751
72717SOL    HW220049   2.652   3.222   9.639
72718SOL     OW20050   5.427   1.351   8.863
72718SOL    HW120051   5.443   1.296   8.787
72718SOL    HW220052   5.427   1.441   8.829
72719SOL     OW20053  11.363   6.031  12.860
72719SOL    HW120054  11.289   5.985  12.821
72719SOL    HW220055  11.352   6.020  12.954
72720SOL     OW20056   5.577   8.326  10.005
72720SOL    HW120057   5.538   8.392   9.947
72720SOL    HW220058   5.502   8.281  10.044
72721SOL     OW20059   8.632   3.921  10.521
72721SOL    HW120060   8.639   3.942  10.614
72721SOL    HW220061   8.722   3.908  10.492
72722SOL     OW20062   5.968   4.624   0.781
72722SOL    HW120063   5.926   4.538   0.789
72722SOL    HW220064   6.042   4.609   0.722
72723SOL     OW20065   8.761   8.500  12.158
72723SOL    HW120066   8.742   8.543  12.241
72723SOL    HW220067   8.823   8.431  12.180
72724SOL     OW20068   7.999   0.574   9.952
72724SOL    HW120069   8.015   0.542   9.864
72724SOL    HW220070   8.076   0.546  10.002
72725SOL     OW20071   8.999   1.134  13.207
72725SOL    HW120072   9.010   1.040  13.223
72725SOL    HW220073   9.051   1.151  13.129
72726SOL     OW20074   6.716  10.304   1.360
72726SOL    HW120075   6.660  10.227   1.350
72726SOL    HW220076   6.794  10.283   1.309
72727SOL     OW20077   1.785   3.550   4.486
72727SOL    HW120078   1.845   3.479   4.465
72727SOL    HW220079   1.840   3.629   4.488
72728SOL     OW20080   3.068  14.229   3.582
72728SOL    HW120081   3.142  14.252   3.638
72728SOL    HW220082   3.025  14.156   3.627
72729SOL     OW20083   3.789  10.363   6.604
72729SOL    HW120084   3.787  10.280   6.652
72729SOL    HW220085   3.868  10.407   6.636
72730SOL     OW20086  11.095   2.059  13.206
72730SOL    HW120087  11.112   2.129  13.270
72730SOL    HW220088  11.106   1.978  13.256
72731SOL     OW20089   2.575   3.863  13.653
72731SOL    HW120090   2.608   3.806  13.584
72731SOL    HW220091   2.504   3.812  13.694
72732SOL     OW20092   4.406   7.479   8.548
72732SOL    HW120093   4.433   7.426   8.623
72732SOL    HW220094   4.451   7.563   8.560
72733SOL     OW20095   3.486   7.742   9.181
72733SOL    HW120096   3.474   7.837   9.175
72733SOL    HW220097   3.438   7.717   9.260
72734SOL     OW20098  14.604   0.130  11.150
72734SOL    HW120099  14.658   0.090  11.082
72734SOL    HW220100  14.610   0.224  11.133
72735SOL     OW20101   5.303   0.207  13.263
72735SOL    HW120102   5.386   0.254  13.260
72735SOL    HW220103   5.268   0.212  13.174
72736SOL     OW20104   2.867   3.220  12.502
72736SOL    HW120105   2.792   3.276  12.480
72736SOL    HW220106   2.841   3.177  12.584
72737SOL     OW20107   0.110   2.241  10.702
72737SOL    HW120108   0.107   2.150  10.672
72737SOL    HW220109   0.018   2.268  10.707
72738SOL     OW20110   2.436   8.640  11.088
72738SOL    HW120111   2.461   8.562  11.038
72738SOL    HW220112   2.407   8.605  11.173
72739SOL     OW20113  10.154   5.656   3.641
72739SOL    HW120114  10.125   5.627   3.555
72739SOL    HW220115  10.082   5.707   3.676
72740SOL     OW20116   2.334   2.655   1.142
72740SOL    HW120117   2.425   2.634   1.122
72740SOL    HW220118   2.289   2.651   1.057
72741SOL     OW20119   3.043   6.512   0.435
72741SOL    HW120120   3.073   6.438   0.488
72741SOL    HW220121   3.007   6.471   0.356
72742SOL     OW20122   5.778   9.489   7.219
72742SOL    HW120123   5.727   9.563   7.186
72742SOL    HW220124   5.796   9.511   7.310
72743SOL     OW20125  11.124   7.436  12.105
72743SOL    HW120126  11.174   7.368  12.061
72743SOL    HW220127  11.094   7.396  12.186
72744SOL     OW20128  10.113   7.386   4.844
72744SOL    HW120129  10.076   7.301   4.868
72744SOL    HW220130  10.037   7.444   4.839
72745SOL     OW20131   3.800   7.628   9.743
72745SOL    HW120132   3.791   7.590   9.830
72745SOL    HW220133   3.710   7.646   9.715
72746SOL     OW20134   1.609  12.901   2.935
72746SOL    HW120135   1.514  12.900   2.932
72746SOL    HW220136   1.634  12.965   2.868
72747SOL     OW20137   2.308   2.690  14.396
72747SOL    HW120138   2.385   2.724  14.351
72747SOL    HW220139   2.234   2.724  14.346
72748SOL     OW20140  13.406  12.972   7.156
72748SOL    HW120141  13.463  12.981   7.079
72748SOL    HW220142  13.436  13.041   7.215
72749SOL     OW20143  14.677  10.590  11.373
72749SOL    HW120144  14.603  10.650  11.361
72749SOL    HW220145  14.752  10.648  11.391
72750SOL     OW20146   2.536   3.526  10.527
72750SOL    HW120147   2.575   3.560  10.446
72750SOL    HW220148   2.445   3.556  10.523
72751SOL     OW20149   0.732  11.142   1.826
72751SOL    HW120150   0.807  11.128   1.769
72751SOL    HW220151   0.767  11.189   1.902
72752SOL     OW20152  12.748  13.272   7.484
72752SOL    HW120153  12.829  13.290   7.531
72752SOL    HW220154  12.776  13.262   7.393
72753SOL     OW20155  13.460   6.254   8.060
72753SOL    HW120156  13.391   6.297   8.110
72753SOL    HW220157  13.487   6.319   7.995
72754SOL     OW20158  13.653  11.537   7.030
72754SOL    HW120159  13.685  11.447   7.031
72754SOL    HW220160  13.572  11.533   6.979
72755SOL     OW20161  13.375   9.703  13.267
72755SOL    HW120162  13.464   9.691  13.235
72755SOL    HW220163  13.319   9.687  13.191
72756SOL     OW20164   9.605   8.327   9.910
72756SOL    HW120165   9.573   8.378   9.836
72756SOL    HW220166   9.698   8.346   9.914
72757SOL     OW20167   3.932  10.667   1.045
72757SOL    HW120168   3.997  10.597   1.043
72757SOL    HW220169   3.982  10.745   1.069
72758SOL     OW20170  10.270   2.374   9.127
72758SOL    HW120171  10.262   2.462   9.090
72758SOL    HW220172  10.284   2.388   9.220
72759SOL     OW20173  12.744   4.683   5.513
72759SOL    HW120174  12.712   4.719   5.431
72759SOL    HW220175  12.833   4.654   5.494
72760SOL     OW20176   6.878   1.457  10.263
72760SOL    HW120177   6.790   1.495  10.253
72760SOL    HW220178   6.880   1.427  10.354
72761SOL     OW20179  14.789  11.652  12.053
72761SOL    HW120180  14.803  11.631  11.960
72761SOL    HW220181  14.786  11.747  12.055
72762SOL     OW20182  11.646   3.274  11.245
72762SOL    HW120183  11.596   3.239  11.319
72762SOL    HW220184  11.615   3.223  11.170
72763SOL     OW20185   1.349  13.674   6.749
72763SOL    HW120186   1.258  13.674   6.781
72763SOL    HW220187   1.402  13.661   6.828
72764SOL     OW20188  13.729   5.456  11.834
72764SOL    HW120189  13.782   5.405  11.773
72764SOL    HW220190  13.723   5.401  11.912
72765SOL     OW20191  10.931   5.824  14.397
72765SOL    HW120192  11.021   5.815  14.365
72765SOL    HW220193  10.919   5.918  14.410
72766SOL     OW20194   5.813   4.290   3.923
72766SOL    HW120195   5.735   4.266   3.973
72766SOL    HW220196   5.883   4.295   3.988
72767SOL     OW20197   4.014  10.298   4.043
72767SOL    HW120198   3.959  10.257   4.110
72767SOL    HW220199   4.039  10.226   3.985
72768SOL     OW20200  13.643  11.639   1.777
72768SOL    HW120201  13.700  11.641   1.700
72768SOL    HW220202  13.627  11.546   1.793
72769SOL     OW20203   0.869   8.259   1.745
72769SOL    HW120204   0.920   8.318   1.689
72769SOL    HW220205   0.812   8.317   1.795
72770SOL     OW20206  14.462  13.885   2.820
72770SOL    HW120207  14.440  13.819   2.885
72770SOL    HW220208  14.481  13.835   2.741
72771SOL     OW20209   7.775  14.549   0.958
72771SOL    HW120210   7.868  14.549   0.934
72771SOL    HW220211   7.738  14.621   0.906
72772SOL     OW20212  12.907  12.884   4.565
72772SOL    HW120213  12.860  12.879   4.482
72772SOL    HW220214  12.973  12.953   4.551
72773SOL     OW20215   3.607   2.154   9.652
72773SOL    HW120216   3.666   2.079   9.664
72773SOL    HW220217   3.663   2.231   9.664
72774SOL     OW20218  10.616  10.256   8.800
72774SOL    HW120219  10.681  10.189   8.823
72774SOL    HW220220  10.547  10.245   8.865
72775SOL     OW20221  13.394  13.813   4.705
72775SOL    HW120222  13.325  13.800   4.770
72775SOL    HW220223  13.468  13.761   4.736
72776SOL     OW20224   3.735   6.910   4.122
72776SOL    HW120225   3.737   6.860   4.040
72776SOL    HW220226   3.785   6.858   4.184
72777SOL     OW20227   9.365  11.697   1.778
72777SOL    HW120228   9.424  11.673   1.707
72777SOL    HW220229   9.293  11.634   1.773
72778SOL     OW20230  14.847   6.878  13.223
72778SOL    HW120231   0.029   6.868  13.295
72778SOL    HW220232  14.776   6.932  13.259
72779SOL     OW20233  11.292  10.043  13.942
72779SOL    HW120234  11.311  10.042  13.848
72779SOL    HW220235  11.376  10.021  13.984
72780SOL     OW20236  13.979   3.076   2.812
72780SOL    HW120237  13.943   3.140   2.750
72780SOL    HW220238  13.901   3.033   2.848
72781SOL     OW20239   1.481   7.680   4.323
72781SOL    HW120240   1.460   7.622   4.397
72781SOL    HW220241   1.485   7.767   4.361
72782SOL     OW20242   1.993  10.815   9.381
72782SOL    HW120243   1.995  10.835   9.475
72782SOL    HW220244   1.972  10.898   9.339
72783SOL     OW20245  14.785  10.348   8.356
72783SOL    HW120246  14.869  10.395   8.356
72783SOL    HW220247  14.767  10.332   8.449
72784SOL     OW20248  14.792   6.677  13.027
72784SOL    HW120249  14.811   6.755  13.079
72784SOL    HW220250  14.870   6.665  12.972
72785SOL     OW20251  11.899   1.876  10.735
72785SOL    HW120252  11.905   1.815  10.808
72785SOL    HW220253  11.903   1.821  10.657
72786SOL     OW20254  11.414   1.875  10.221
72786SOL    HW120255  11.433   1.923  10.140
72786SOL    HW220256  11.321   1.892  10.238
72787SOL     OW20257  10.361   8.956   7.356
72787SOL    HW120258  10.296   9.000   7.301
72787SOL    HW220259  10.433   8.935   7.296
72788SOL     OW20260   8.757   0.217   2.793
72788SOL    HW120261   8.812   0.139   2.792
72788SOL    HW220262   8.678   0.191   2.746
72789SOL     OW20263  12.231  10.447  13.879
72789SOL    HW120264  12.323  10.463  13.902
72789SOL    HW220265  12.183  10.519  13.920
72790SOL     OW20266   9.505  12.136   5.527
72790SOL    HW120267   9.469  12.190   5.457
72790SOL    HW220268   9.598  12.160   5.530
72791SOL     OW20269   0.490   6.628   7.598
72791SOL    HW120270   0.567   6.577   7.624
72791SOL    HW220271   0.443   6.644   7.680
72792SOL     OW20272   0.906   6.448   1.850
72792SOL    HW120273   0.863   6.384   1.906
72792SOL    HW220274   0.835   6.492   1.805
72793SOL     OW20275   6.544   2.128   9.001
72793SOL    HW120276   6.554   2.219   8.973
72793SOL    HW220277   6.473   2.094   8.947
72794SOL     OW20278   3.569   8.689  13.262
72794SOL    HW120279   3.513   8.660  13.191
72794SOL    HW220280   3.516   8.677  13.341
72795SOL     OW20281  12.507  10.967  11.235
72795SOL    HW120282  12.450  10.925  11.300
72795SOL    HW220283  12.523  11.054  11.271
72796SOL     OW20284   5.015  14.363   0.894
72796SOL    HW120285   5.100  14.407   0.894
72796SOL    HW220286   5.012  14.315   0.811
72797SOL     OW20287  10.988   3.111   0.909
72797SOL    HW120288  11.006   3.017   0.905
72797SOL    HW220289  10.988   3.132   1.002
72798SOL     OW20290   0.963   0.101  14.387
72798SOL    HW120291   1.013   0.133  14.313
72798SOL    HW220292   1.018   0.119  14.464
72799SOL     OW20293   4.451   7.883   8.571
72799SOL    HW120294   4.513   7.942   8.614
72799SOL    HW220295   4.503   7.806   8.548
72800SOL     OW20296   2.883   5.592  12.968
72800SOL    HW120297   2.893   5.657  13.037
72800SOL    HW220298   2.845   5.640  12.894
72801SOL     OW20299   7.068   4.034  14.471
72801SOL    HW120300   7.057   4.081  14.554
72801SOL    HW220301   7.019   3.952  14.483
72802SOL     OW20302   2.755   0.810   7.246
72802SOL    HW120303   2.809   0.837   7.321
72802SOL    HW220304   2.799   0.732   7.212
72803SOL     OW20305   3.690   0.633   9.941
72803SOL    HW120306   3.718   0.583  10.018
72803SOL    HW220307   3.746   0.602   9.870
72804SOL     OW20308  10.339   6.365   4.758
72804SOL    HW120309  10.323   6.437   4.698
72804SOL    HW220310  10.256   6.352   4.804
72805SOL     OW20311   5.687  14.069  11.228
72805SOL    HW120312   5.754  14.128  11.262
72805SOL    HW220313   5.618  14.068  11.295
72806SOL     OW20314  11.542   3.587   9.913
72806SOL    HW120315  11.509   3.535   9.986
72806SOL    HW220316  11.608   3.532   9.872
72807SOL     OW20317   5.663  12.613   2.746
72807SOL    HW120318   5.672  12.539   2.805
72807SOL    HW220319   5.613  12.579   2.672
72808SOL     OW20320   0.434   8.143   4.256
72808SOL    HW120321   0.523   8.172   4.277
72808SOL    HW220322   0.397   8.213   4.203
72809SOL     OW20323  10.015   0.888   7.643
72809SOL    HW120324   9.939   0.921   7.690
72809SOL    HW220325  10.020   0.795   7.666
72810SOL     OW20326   4.120  11.269   7.507
72810SOL    HW120327   4.027  11.246   7.499
72810SOL    HW220328   4.150  11.281   7.417
72811SOL     OW20329   8.771   7.899  11.921
72811SOL    HW120330   8.748   7.862  12.006
72811SOL    HW220331   8.830   7.834  11.882
72812SOL     OW20332   2.173   6.881   1.472
72812SOL    HW120333   2.086   6.843   1.485
72812SOL    HW220334   2.182   6.945   1.543
72813SOL     OW20335   5.958  11.790   2.489
72813SOL    HW120336   6.035  11.778   2.545
72813SOL    HW220337   5.933  11.702   2.463
72814SOL     OW20338  11.017  14.379   2.187
72814SOL    HW120339  11.001  14.318   2.115
72814SOL    HW220340  11.048  14.459   2.144
72815SOL     OW20341  10.756  13.726   3.815
72815SOL    HW120342  10.825  13.673   3.855
72815SOL    HW220343  10.769  13.814   3.849
72816SOL     OW20344   5.030   8.109   5.763
72816SOL    HW120345   5.026   8.014   5.750
72816SOL    HW220346   4.940   8.134   5.784
72817SOL     OW20347  11.556   7.380   5.422
72817SOL    HW120348  11.572   7.296   5.465
72817SOL    HW220349  11.583   7.445   5.487
72818SOL     OW20350  11.873   7.591  10.666
72818SOL    HW120351  11.827   7.598  10.582
72818SOL    HW220352  11.823   7.525  10.715
72819SOL     OW20353   5.521   0.800  14.077
72819SOL    HW120354   5.519   0.757  13.992
72819SOL    HW220355   5.612   0.795  14.105
72820SOL     OW20356  10.735   1.425   2.233
72820SOL    HW120357  10.763   1.506   2.191
72820SOL    HW220358  10.714   1.367   2.159
72821SOL     OW20359   7.220   7.144   8.574
72821SOL    HW120360   7.285   7.214   8.581
72821SOL    HW220361   7.148   7.172   8.630
72822SOL     OW20362   7.321   4.005   9.994
72822SOL    HW120363   7.372   4.073   9.951
72822SOL    HW220364   7.296   4.043  10.078
72823SOL     OW20365   1.125  13.312   6.238
72823SOL    HW120366   1.194  13.267   6.287
72823SOL    HW220367   1.158  13.315   6.148
72824SOL     OW20368   3.650   0.587   4.158
72824SOL    HW120369   3.579   0.566   4.218
72824SOL    HW220370   3.644   0.521   4.089
72825SOL     OW20371   6.210   4.719   1.026
72825SOL    HW120372   6.225   4.658   0.954
72825SOL    HW220373   6.145   4.781   0.993
72826SOL     OW20374   7.288   0.338   9.019
72826SOL    HW120375   7.269   0.319   9.111
72826SOL    HW220376   7.323   0.427   9.019
72827SOL     OW20377  10.114   1.640  11.101
72827SOL    HW120378  10.089   1.643  11.009
72827SOL    HW220379  10.096   1.550  11.127
72828SOL     OW20380   0.055   6.216   4.650
72828SOL    HW120381   0.021   6.191   4.564
72828SOL    HW220382   0.016   6.153   4.711
72829SOL     OW20383   1.864   1.716   2.884
72829SOL    HW120384   1.893   1.783   2.946
72829SOL    HW220385   1.921   1.728   2.808
72830SOL     OW20386   1.485   8.577  12.277
72830SOL    HW120387   1.462   8.508  12.215
72830SOL    HW220388   1.533   8.641  12.225
72831SOL     OW20389  12.562   6.240   7.485
72831SOL    HW120390  12.581   6.299   7.557
72831SOL    HW220391  12.623   6.167   7.496
72832SOL     OW20392   3.117  10.644  12.925
72832SOL    HW120393   3.173  10.722  12.921
72832SOL    HW220394   3.160  10.587  12.989
72833SOL     OW20395   7.438   2.912   9.583
72833SOL    HW120396   7.438   2.849   9.512
72833SOL    HW220397   7.444   2.860   9.663
72834SOL     OW20398   3.971   1.448   4.247
72834SOL    HW120399   4.032   1.518   4.223
72834SOL    HW220400   3.981   1.440   4.342
72835SOL     OW20401  11.269  12.978  10.231
72835SOL    HW120402  11.250  13.044  10.296
72835SOL    HW220403  11.246  13.019  10.147
72836SOL     OW20404   1.383  14.290  12.180
72836SOL    HW120405   1.448  14.258  12.243
72836SOL    HW220406   1.358  14.212  12.130
72837SOL     OW20407   9.328   9.784  14.102
72837SOL    HW120408   9.334   9.855  14.037
72837SOL    HW220409   9.375   9.711  14.062
72838SOL     OW20410   4.940  13.335   5.639
72838SOL    HW120411   4.853  13.372   5.630
72838SOL    HW220412   4.932  13.246   5.604
72839SOL     OW20413  13.629  14.393   3.867
72839SOL    HW120414  13.711  14.348   3.847
72839SOL    HW220415  13.641  14.482   3.833
72840SOL     OW20416  11.529  11.966   3.384
72840SOL    HW120417  11.546  11.976   3.478
72840SOL    HW220418  11.535  12.055   3.349
72841SOL     OW20419  13.644   6.079  10.383
72841SOL    HW120420  13.672   6.152  10.328
72841SOL    HW220421  13.641   6.115  10.472
72842SOL     OW20422   8.390  12.827   6.358
72842SOL    HW120423   8.336  12.754   6.328
72842SOL    HW220424   8.480  12.803   6.333
72843SOL     OW20425  13.665   6.205   1.191
72843SOL    HW120426  13.731   6.246   1.135
72843SOL    HW220427  13.582   6.229   1.152
72844SOL     OW20428  11.426   7.460  10.483
72844SOL    HW120429  11.345   7.436  10.528
72844SOL    HW220430  11.402   7.464  10.391
72845SOL     OW20431  11.683   8.473   2.849
72845SOL    HW120432  11.665   8.414   2.923
72845SOL    HW220433  11.611   8.456   2.788
72846SOL     OW20434  12.567   1.895  13.121
72846SOL    HW120435  12.577   1.982  13.159
72846SOL    HW220436  12.656   1.868  13.098
72847SOL     OW20437  11.644  13.722  13.517
72847SOL    HW120438  11.704  13.791  13.548
72847SOL    HW220439  11.588  13.766  13.453
72848SOL     OW20440  12.054  12.442  10.385
72848SOL    HW120441  12.021  12.378  10.448
72848SOL    HW220442  11.981  12.458  10.326
72849SOL     OW20443   2.701   2.282   3.471
72849SOL    HW120444   2.647   2.205   3.451
72849SOL    HW220445   2.783   2.267   3.424
72850SOL     OW20446   7.700   8.047   8.844
72850SOL    HW120447   7.607   8.034   8.823
72850SOL    HW220448   7.716   7.990   8.918
72851SOL     OW20449   9.036   6.842   4.708
72851SOL    HW120450   9.082   6.902   4.767
72851SOL    HW220451   8.988   6.784   4.766
72852SOL     OW20452   6.726  11.591   8.899
72852SOL    HW120453   6.741  11.583   8.994
72852SOL    HW220454   6.688  11.678   8.889
72853SOL     OW20455  12.879   7.952  12.704
72853SOL    HW120456  12.852   7.868  12.741
72853SOL    HW220457  12.878   7.939  12.609
72854SOL     OW20458   1.867  13.784   8.981
72854SOL    HW120459   1.901  13.756   8.896
72854SOL    HW220460   1.933  13.756   9.044
72855SOL     OW20461   0.094  12.764  14.354
72855SOL    HW120462   0.157  12.820  14.308
72855SOL    HW220463   0.125  12.763  14.445
72856SOL     OW20464  11.367   2.659   1.471
72856SOL    HW120465  11.315   2.598   1.523
72856SOL    HW220466  11.430   2.697   1.533
72857SOL     OW20467  10.045   8.903   9.562
72857SOL    HW120468  10.012   8.990   9.581
72857SOL    HW220469  10.128   8.898   9.609
72858SOL     OW20470   2.915   7.963  11.537
72858SOL    HW120471   2.898   7.874  11.566
72858SOL    HW220472   3.003   7.983  11.570
72859SOL     OW20473   7.807   0.105   8.725
72859SOL    HW120474   7.745   0.033   8.725
72859SOL    HW220475   7.753   0.184   8.726
72860SOL     OW20476   1.537   7.587   1.747
72860SOL    HW120477   1.557   7.602   1.655
72860SOL    HW220478   1.567   7.497   1.764
72861SOL     OW20479   2.016   0.011  14.180
72861SOL    HW120480   1.988   0.094  14.219
72861SOL    HW220481   1.935  14.848  14.155
72862SOL     OW20482   1.867   2.797  14.128
72862SOL    HW120483   1.798   2.836  14.074
72862SOL    HW220484   1.884   2.712  14.086
72863SOL     OW20485  12.583   7.761  11.061
72863SOL    HW120486  12.488   7.765  11.075
72863SOL    HW220487  12.619   7.823  11.124
72864SOL     OW20488   4.945   4.352   8.530
72864SOL    HW120489   4.876   4.308   8.580
72864SOL    HW220490   4.990   4.407   8.594
72865SOL     OW20491   3.374   1.330   2.034
72865SOL    HW120492   3.439   1.260   2.041
72865SOL    HW220493   3.425   1.411   2.031
72866SOL     OW20494   4.336   9.055   7.526
72866SOL    HW120495   4.382   9.137   7.541
72866SOL    HW220496   4.300   9.062   7.438
72867SOL     OW20497   0.310  10.720   6.118
72867SOL    HW120498   0.282  10.801   6.075
72867SOL    HW220499   0.279  10.729   6.208
72868SOL     OW20500   6.351  11.819   0.784
72868SOL    HW120501   6.416  11.848   0.848
72868SOL    HW220502   6.323  11.733   0.817
72869SOL     OW20503   1.667   1.178   6.080
72869SOL    HW120504   1.758   1.202   6.059
72869SOL    HW220505   1.656   1.091   6.041
72870SOL     OW20506   9.437  11.945   6.036
72870SOL    HW120507   9.525  11.955   6.072
72870SOL    HW220508   9.446  11.965   5.943
72871SOL     OW20509   8.844  10.304   5.728
72871SOL    HW120510   8.817  10.319   5.819
72871SOL    HW220511   8.772  10.338   5.676
72872SOL     OW20512   4.945   3.088   4.047
72872SOL    HW120513   4.890   3.131   4.112
72872SOL    HW220514   4.926   2.995   4.058
72873SOL     OW20515   5.947   5.354   6.327
72873SOL    HW120516   5.861   5.359   6.285
72873SOL    HW220517   5.929   5.334   6.418
72874SOL     OW20518   5.269   7.141   4.300
72874SOL    HW120519   5.316   7.137   4.383
72874SOL    HW220520   5.298   7.223   4.260
72875SOL     OW20521   9.080  10.870   6.145
72875SOL    HW120522   9.012  10.937   6.136
72875SOL    HW220523   9.158  10.909   6.105
72876SOL     OW20524  14.178   9.394   3.463
72876SOL    HW120525  14.163   9.300   3.454
72876SOL    HW220526  14.115   9.434   3.403
72877SOL     OW20527  12.403  11.082  10.559
72877SOL    HW120528  12.411  11.089  10.654
72877SOL    HW220529  12.404  11.172  10.527
72878SOL     OW20530  13.332   6.251  11.461
72878SOL    HW120531  13.393   6.232  11.390
72878SOL    HW220532  13.376   6.321  11.511
72879SOL     OW20533  14.201   3.101   8.576
72879SOL    HW120534  14.249   3.018   8.569
72879SOL    HW220535  14.259   3.156   8.628
72880SOL     OW20536   7.653  12.137  13.637
72880SOL    HW120537   7.580  12.076  13.625
72880SOL    HW220538   7.722  12.084  13.677
72881SOL     OW20539   2.848   4.201  11.317
72881SOL    HW120540   2.878   4.292  11.315
72881SOL    HW220541   2.911   4.156  11.372
72882SOL     OW20542  14.471   4.895   1.942
72882SOL    HW120543  14.561   4.908   1.972
72882SOL    HW220544  14.420   4.888   2.022
72883SOL     OW20545  14.544   1.062  14.358
72883SOL    HW120546  14.565   1.051  14.265
72883SOL    HW220547  14.582   0.984  14.400
72884SOL     OW20548   4.199   3.050  11.129
72884SOL    HW120549   4.230   2.960  11.132
72884SOL    HW220550   4.120   3.050  11.183
72885SOL     OW20551  12.087  11.687   1.688
72885SOL    HW120552  12.165  11.732   1.721
72885SOL    HW220553  12.092  11.697   1.593
72886SOL     OW20554  12.601   7.958  10.171
72886SOL    HW120555  12.587   8.052  10.158
72886SOL    HW220556  12.515   7.919  10.155
72887SOL     OW20557  11.069  10.430  11.026
72887SOL    HW120558  11.135  10.472  11.081
72887SOL    HW220559  10.985  10.463  11.059
72888SOL     OW20560   5.186  10.592  13.508
72888SOL    HW120561   5.278  10.599  13.532
72888SOL    HW220562   5.145  10.552  13.585
72889SOL     OW20563  14.312   8.620   3.120
72889SOL    HW120564  14.249   8.672   3.168
72889SOL    HW220565  14.304   8.532   3.157
72890SOL     OW20566   0.853   8.340   6.774
72890SOL    HW120567   0.930   8.333   6.718
72890SOL    HW220568   0.796   8.268   6.747
72891SOL     OW20569  10.830  11.376   4.583
72891SOL    HW120570  10.790  11.448   4.633
72891SOL    HW220571  10.756  11.322   4.556
72892SOL     OW20572  13.258   9.979   6.591
72892SOL    HW120573  13.175   9.942   6.621
72892SOL    HW220574  13.264   9.952   6.499
72893SOL     OW20575   4.409   9.025   9.924
72893SOL    HW120576   4.465   9.060   9.855
72893SOL    HW220577   4.435   8.934   9.932
72894SOL     OW20578  13.200  12.950  12.248
72894SOL    HW120579  13.203  12.903  12.331
72894SOL    HW220580  13.243  12.892  12.185
72895SOL     OW20581  11.901   0.070   6.878
72895SOL    HW120582  11.906   0.140   6.943
72895SOL    HW220583  11.810   0.070   6.848
72896SOL     OW20584   5.523   0.224  12.540
72896SOL    HW120585   5.618   0.214  12.533
72896SOL    HW220586   5.505   0.312  12.507
72897SOL     OW20587  14.327  12.628   7.345
72897SOL    HW120588  14.338  12.719   7.373
72897SOL    HW220589  14.244  12.628   7.298
72898SOL     OW20590   7.622   9.515  10.757
72898SOL    HW120591   7.546   9.484  10.709
72898SOL    HW220592   7.610   9.610  10.763
72899SOL     OW20593   7.739   7.789   1.548
72899SOL    HW120594   7.674   7.767   1.482
72899SOL    HW220595   7.690   7.841   1.613
72900SOL     OW20596  12.309  13.363   4.472
72900SOL    HW120597  12.381  13.375   4.410
72900SOL    HW220598  12.306  13.269   4.486
72901SOL     OW20599   8.566   8.386   8.463
72901SOL    HW120600   8.649   8.424   8.491
72901SOL    HW220601   8.546   8.320   8.529
72902SOL     OW20602  11.422  12.118   0.747
72902SOL    HW120603  11.428  12.035   0.699
72902SOL    HW220604  11.441  12.185   0.681
72903SOL     OW20605   3.047   9.587  14.137
72903SOL    HW120606   2.959   9.608  14.107
72903SOL    HW220607   3.036   9.509  14.191
72904SOL     OW20608   4.636   2.380   4.110
72904SOL    HW120609   4.550   2.381   4.068
72904SOL    HW220610   4.662   2.288   4.111
72905SOL     OW20611  12.570   4.964   3.336
72905SOL    HW120612  12.615   5.026   3.393
72905SOL    HW220613  12.496   4.933   3.388
72906SOL     OW20614   8.367   1.078   6.863
72906SOL    HW120615   8.288   1.076   6.809
72906SOL    HW220616   8.339   1.117   6.946
72907SOL     OW20617   6.348  10.125   5.042
72907SOL    HW120618   6.315  10.040   5.012
72907SOL    HW220619   6.312  10.135   5.130
72908SOL     OW20620   2.029   2.142  14.605
72908SOL    HW120621   1.986   2.143  14.690
72908SOL    HW220622   2.116   2.179  14.622
72909SOL     OW20623   7.866   9.592   8.943
72909SOL    HW120624   7.860   9.628   9.031
72909SOL    HW220625   7.814   9.652   8.889
72910SOL     OW20626   0.442   9.221  10.988
72910SOL    HW120627   0.394   9.179  11.059
72910SOL    HW220628   0.498   9.286  11.031
72911SOL     OW20629   2.779  12.219  13.023
72911SOL    HW120630   2.691  12.230  12.988
72911SOL    HW220631   2.797  12.126  13.012
72912SOL     OW20632   4.720  13.608   7.760
72912SOL    HW120633   4.731  13.515   7.783
72912SOL    HW220634   4.627  13.616   7.737
72913SOL     OW20635   1.469  12.278  10.721
72913SOL    HW120636   1.468  12.304  10.629
72913SOL    HW220637   1.450  12.185  10.720
72914SOL     OW20638   9.994  12.331   4.988
72914SOL    HW120639  10.017  12.261   4.927
72914SOL    HW220640   9.926  12.293   5.043
72915SOL     OW20641  14.666   6.432   3.059
72915SOL    HW120642  14.733   6.416   2.993
72915SOL    HW220643  14.651   6.527   3.056
72916SOL     OW20644   7.220   6.201  14.051
72916SOL    HW120645   7.230   6.141  14.126
72916SOL    HW220646   7.125   6.202  14.036
72917SOL     OW20647   0.611   8.337   7.093
72917SOL    HW120648   0.567   8.412   7.053
72917SOL    HW220649   0.702   8.345   7.067
72918SOL     OW20650   9.441   9.736   3.471
72918SOL    HW120651   9.432   9.798   3.399
72918SOL    HW220652   9.352   9.726   3.506
72919SOL     OW20653   6.577   0.597   3.754
72919SOL    HW120654   6.587   0.564   3.844
72919SOL    HW220655   6.517   0.671   3.763
72920SOL     OW20656   0.910   8.000  13.268
72920SOL    HW120657   0.981   8.026  13.210
72920SOL    HW220658   0.836   7.981  13.209
72921SOL     OW20659   5.215  10.599   1.113
72921SOL    HW120660   5.297  10.649   1.113
72921SOL    HW220661   5.204  10.571   1.022
72922SOL     OW20662  14.112   4.616   9.047
72922SOL    HW120663  14.081   4.569   9.125
72922SOL    HW220664  14.032   4.634   8.997
72923SOL     OW20665  10.427   1.400   0.204
72923SOL    HW120666  10.453   1.385   0.113
72923SOL    HW220667  10.481   1.339   0.254
72924SOL     OW20668  14.231  11.878   6.031
72924SOL    HW120669  14.216  11.797   6.081
72924SOL    HW220670  14.179  11.944   6.076
72925SOL     OW20671  10.247   8.835   6.988
72925SOL    HW120672  10.263   8.771   7.058
72925SOL    HW220673  10.238   8.919   7.034
72926SOL     OW20674   0.602   6.673   1.315
72926SOL    HW120675   0.644   6.624   1.385
72926SOL    HW220676   0.632   6.763   1.327
72927SOL     OW20677   8.193   7.910  10.088
72927SOL    HW120678   8.251   7.975  10.126
72927SOL    HW220679   8.143   7.958  10.021
72928SOL     OW20680   2.055  14.139  14.702
72928SOL    HW120681   2.128  14.161  14.761
72928SOL    HW220682   1.983  14.195  14.730
72929SOL     OW20683   6.853   1.033   1.435
72929SOL    HW120684   6.937   1.059   1.473
72929SOL    HW220685   6.799   1.011   1.510
72930SOL     OW20686   7.392   2.158   8.477
72930SOL    HW120687   7.468   2.161   8.536
72930SOL    HW220688   7.316   2.159   8.535
72931SOL     OW20689   7.984  11.135   4.281
72931SOL    HW120690   8.050  11.196   4.248
72931SOL    HW220691   7.931  11.112   4.204
72932SOL     OW20692  14.061   9.292  11.819
72932SOL    HW120693  13.972   9.312  11.790
72932SOL    HW220694  14.049   9.233  11.893
72933SOL     OW20695   6.394   5.226   2.119
72933SOL    HW120696   6.436   5.258   2.039
72933SOL    HW220697   6.466   5.194   2.173
72934SOL     OW20698  12.044  10.738   9.452
72934SOL    HW120699  11.961  10.787   9.452
72934SOL    HW220700  12.091  10.770   9.528
72935SOL     OW20701   6.885   4.144  10.946
72935SOL    HW120702   6.903   4.230  10.908
72935SOL    HW220703   6.893   4.159  11.040
72936SOL     OW20704  11.277  11.330   6.997
72936SOL    HW120705  11.337  11.357   7.066
72936SOL    HW220706  11.219  11.405   6.985
72937SOL     OW20707   1.412   9.403   0.292
72937SOL    HW120708   1.387   9.381   0.382
72937SOL    HW220709   1.435   9.318   0.253
72938SOL     OW20710   7.940   3.688   5.216
72938SOL    HW120711   7.907   3.621   5.276
72938SOL    HW220712   7.989   3.748   5.272
72939SOL     OW20713  13.099  10.355   5.099
72939SOL    HW120714  13.129  10.423   5.159
72939SOL    HW220715  13.004  10.353   5.110
72940SOL     OW20716  12.055  12.253  13.381
72940SOL    HW120717  12.090  12.174  13.422
72940SOL    HW220718  12.019  12.304  13.453
72941SOL     OW20719   7.292  12.400   0.039
72941SOL    HW120720   7.290  12.486  14.877
72941SOL    HW220721   7.214  12.400   0.095
72942SOL     OW20722   4.776  11.394  12.476
72942SOL    HW120723   4.756  11.485  12.496
72942SOL    HW220724   4.871  11.389  12.482
72943SOL     OW20725   1.873   0.560  10.109
72943SOL    HW120726   1.853   0.467  10.102
72943SOL    HW220727   1.966   0.563  10.134
72944SOL     OW20728   5.799  14.678   4.664
72944SOL    HW120729   5.814  14.772   4.670
72944SOL    HW220730   5.886  14.641   4.649
72945SOL     OW20731  12.643  13.086   3.145
72945SOL    HW120732  12.694  13.012   3.109
72945SOL    HW220733  12.585  13.046   3.209
72946SOL     OW20734  13.530   1.892   5.480
72946SOL    HW120735  13.442   1.895   5.443
72946SOL    HW220736  13.579   1.960   5.432
72947SOL     OW20737   8.343   5.741  10.227
72947SOL    HW120738   8.280   5.808  10.201
72947SOL    HW220739   8.332   5.732  10.322
72948SOL     OW20740  10.071   3.072   2.986
72948SOL    HW120741   9.989   3.104   3.024
72948SOL    HW220742  10.121   3.151   2.968
72949SOL     OW20743   6.693   5.708   1.464
72949SOL    HW120744   6.628   5.758   1.514
72949SOL    HW220745   6.760   5.685   1.528
72950SOL     OW20746   2.006   1.527   4.677
72950SOL    HW120747   1.991   1.615   4.643
72950SOL    HW220748   2.066   1.486   4.615
72951SOL     OW20749   4.219  11.148   6.373
72951SOL    HW120750   4.189  11.210   6.439
72951SOL    HW220751   4.314  11.159   6.372
72952SOL     OW20752   9.448   8.579   0.360
72952SOL    HW120753   9.389   8.584   0.285
72952SOL    HW220754   9.403   8.524   0.423
72953SOL     OW20755   2.323   7.332  12.678
72953SOL    HW120756   2.257   7.263  12.664
72953SOL    HW220757   2.398   7.286  12.716
72954SOL     OW20758   5.591   6.536  11.827
72954SOL    HW120759   5.524   6.603  11.815
72954SOL    HW220760   5.544   6.453  11.816
72955SOL     OW20761   3.504   1.108  13.441
72955SOL    HW120762   3.542   1.162  13.371
72955SOL    HW220763   3.427   1.068  13.401
72956SOL     OW20764   4.394   5.346   2.437
72956SOL    HW120765   4.335   5.316   2.506
72956SOL    HW220766   4.472   5.291   2.447
72957SOL     OW20767  13.199  13.580  10.765
72957SOL    HW120768  13.193  13.485  10.776
72957SOL    HW220769  13.280  13.594  10.717
72958SOL     OW20770   6.608  14.392   6.625
72958SOL    HW120771   6.598  14.309   6.578
72958SOL    HW220772   6.695  14.424   6.600
72959SOL     OW20773   7.902   0.826  12.879
72959SOL    HW120774   7.825   0.874  12.911
72959SOL    HW220775   7.931   0.876  12.802
72960SOL     OW20776   3.331   6.228   2.206
72960SOL    HW120777   3.405   6.201   2.262
72960SOL    HW220778   3.357   6.201   2.118
72961SOL     OW20779  14.679  13.888  14.874
72961SOL    HW120780  14.716  13.836   0.065
72961SOL    HW220781  14.658  13.823  14.806
72962SOL     OW20782  12.383  10.685   0.562
72962SOL    HW120783  12.426  10.654   0.483
72962SOL    HW220784  12.449  10.674   0.631
72963SOL     OW20785  14.674   5.796  11.535
72963SOL    HW120786  14.738   5.734  11.498
72963SOL    HW220787  14.593   5.778  11.488
72964SOL     OW20788   5.963  11.063   5.477
72964SOL    HW120789   5.903  10.997   5.511
72964SOL    HW220790   6.034  11.013   5.437
72965SOL     OW20791   8.713  13.213   5.876
72965SOL    HW120792   8.636  13.189   5.824
72965SOL    HW220793   8.785  13.214   5.813
72966SOL     OW20794  10.388  13.912   0.338
72966SOL    HW120795  10.380  14.007   0.335
72966SOL    HW220796  10.473  13.893   0.300
72967SOL     OW20797  14.263  10.004  14.810
72967SOL    HW120798  14.290   9.940  14.876
72967SOL    HW220799  14.305  10.085  14.838
72968SOL     OW20800   8.539   3.334  11.028
72968SOL    HW120801   8.572   3.289  10.950
72968SOL    HW220802   8.547   3.427  11.008
72969SOL     OW20803   1.117   0.499  12.518
72969SOL    HW120804   1.141   0.459  12.602
72969SOL    HW220805   1.026   0.526  12.530
72970SOL     OW20806   9.722  12.045  12.461
72970SOL    HW120807   9.695  12.032  12.370
72970SOL    HW220808   9.644  12.078  12.504
72971SOL     OW20809  11.586   9.533  14.151
72971SOL    HW120810  11.560   9.623  14.169
72971SOL    HW220811  11.654   9.514  14.215
72972SOL     OW20812   5.895  11.307   1.841
72972SOL    HW120813   5.856  11.374   1.897
72972SOL    HW220814   5.925  11.239   1.902
72973SOL     OW20815   9.675   1.989   9.059
72973SOL    HW120816   9.627   2.032   8.989
72973SOL    HW220817   9.662   1.895   9.043
72974SOL     OW20818   3.026  10.479   0.513
72974SOL    HW120819   3.118  10.476   0.537
72974SOL    HW220820   3.012  10.568   0.481
72975SOL     OW20821   8.039   1.893   5.072
72975SOL    HW120822   7.993   1.924   4.994
72975SOL    HW220823   8.003   1.945   5.144
72976SOL     OW20824   8.394   9.251   9.127
72976SOL    HW120825   8.346   9.315   9.074
72976SOL    HW220826   8.474   9.297   9.153
72977SOL     OW20827  14.110   9.001   1.157
72977SOL    HW120828  14.069   9.061   1.219
72977SOL    HW220829  14.080   8.914   1.184
72978SOL     OW20830   8.073   0.839  10.056
72978SOL    HW120831   8.060   0.753  10.016
72978SOL    HW220832   8.167   0.855  10.050
72979SOL     OW20833   7.206   6.826   8.103
72979SOL    HW120834   7.173   6.759   8.044
72979SOL    HW220835   7.135   6.841   8.166
72980SOL     OW20836   3.797   5.883  14.727
72980SOL    HW120837   3.717   5.861  14.681
72980SOL    HW220838   3.853   5.806  14.717
72981SOL     OW20839   7.285   1.679   7.034
72981SOL    HW120840   7.290   1.585   7.016
72981SOL    HW220841   7.275   1.720   6.948
72982SOL     OW20842  11.601   7.101   7.398
72982SOL    HW120843  11.599   7.192   7.367
72982SOL    HW220844  11.663   7.101   7.471
72983SOL     OW20845  10.901   2.017  14.227
72983SOL    HW120846  10.878   2.017  14.135
72983SOL    HW220847  10.857   2.093  14.264
72984SOL     OW20848   9.045   9.543  13.833
72984SOL    HW120849   9.067   9.634  13.854
72984SOL    HW220850   9.089   9.492  13.901
72985SOL     OW20851   7.864   1.478  12.755
72985SOL    HW120852   7.877   1.389  12.788
72985SOL    HW220853   7.949   1.520  12.765
72986SOL     OW20854  12.065  11.257   3.609
72986SOL    HW120855  12.128  11.329   3.604
72986SOL    HW220856  12.114  11.185   3.649
72987SOL     OW20857   1.677   0.590   9.204
72987SOL    HW120858   1.613   0.660   9.191
72987SOL    HW220859   1.752   0.634   9.246
72988SOL     OW20860  13.311   0.475   8.694
72988SOL    HW120861  13.281   0.490   8.605
72988SOL    HW220862  13.375   0.404   8.686
72989SOL     OW20863  13.998   4.300   3.028
72989SOL    HW120864  13.922   4.318   3.084
72989SOL    HW220865  14.067   4.275   3.088
72990SOL     OW20866  10.808   5.331   0.139
72990SOL    HW120867  10.810   5.405   0.199
72990SOL    HW220868  10.850   5.364   0.060
72991SOL     OW20869   6.778   3.553  14.414
72991SOL    HW120870   6.689   3.545  14.380
72991SOL    HW220871   6.770   3.531  14.506
72992SOL     OW20872  11.942  10.510   4.895
72992SOL    HW120873  11.957  10.595   4.855
72992SOL    HW220874  12.030  10.472   4.904
72993SOL     OW20875   5.753   4.326   5.707
72993SOL    HW120876   5.731   4.405   5.658
72993SOL    HW220877   5.805   4.273   5.646
72994SOL     OW20878   2.752   3.985  12.642
72994SOL    HW120879   2.683   3.966  12.579
72994SOL    HW220880   2.815   4.038  12.594
72995SOL     OW20881   7.375  13.432   2.706
72995SOL    HW120882   7.301  13.477   2.746
72995SOL    HW220883   7.416  13.497   2.649
72996SOL     OW20884   3.998   5.188   8.731
72996SOL    HW120885   3.926   5.136   8.695
72996SOL    HW220886   3.960   5.231   8.808
72997SOL     OW20887  14.043   9.474   3.063
72997SOL    HW120888  13.993   9.543   3.107
72997SOL    HW220889  13.977   9.424   3.014
72998SOL     OW20890  11.824  10.083   2.486
72998SOL    HW120891  11.838   9.990   2.471
72998SOL    HW220892  11.907  10.114   2.522
72999SOL     OW20893  11.170   3.104   4.549
72999SOL    HW120894  11.086   3.071   4.579
72999SOL    HW220895  11.184   3.061   4.464
73000SOL     OW20896   0.983  12.318   0.580
73000SOL    HW120897   1.023  12.304   0.665
73000SOL    HW220898   1.049  12.289   0.517
73001SOL     OW20899   0.557  11.160   3.946
73001SOL    HW120900   0.498  11.095   3.907
73001SOL    HW220901   0.501  11.235   3.966
73002SOL     OW20902   4.634   4.689  14.305
73002SOL    HW120903   4.568   4.670  14.238
73002SOL    HW220904   4.694   4.616  14.301
73003SOL     OW20905   0.735  10.953   3.941
73003SOL    HW120906   0.816  11.003   3.931
73003SOL    HW220907   0.667  11.020   3.952
73004SOL     OW20908   0.704  10.560   0.190
73004SOL    HW120909   0.719  10.628   0.256
73004SOL    HW220910   0.668  10.486   0.239
73005SOL     OW20911  12.649  14.286  11.478
73005SOL    HW120912  12.554  14.283  11.473
73005SOL    HW220913  12.677  14.196  11.460
73006SOL     OW20914   6.635   7.123   0.175
73006SOL    HW120915   6.610   7.162   0.259
73006SOL    HW220916   6.722   7.161   0.157
73007SOL     OW20917   8.541  14.442   2.836
73007SOL    HW120918   8.450  14.456   2.810
73007SOL    HW220919   8.583  14.528   2.825
73008SOL     OW20920   9.222   9.921   2.101
73008SOL    HW120921   9.263   9.972   2.171
73008SOL    HW220922   9.172   9.853   2.147
73009SOL     OW20923   9.574   6.158   3.383
73009SOL    HW120924   9.572   6.252   3.405
73009SOL    HW220925   9.490   6.125   3.414
73010SOL     OW20926   9.201   5.686   8.619
73010SOL    HW120927   9.190   5.653   8.708
73010SOL    HW220928   9.252   5.766   8.630
73011SOL     OW20929   3.200   9.585   9.088
73011SOL    HW120930   3.196   9.539   9.171
73011SOL    HW220931   3.251   9.527   9.031
73012SOL     OW20932   2.800   3.353  12.883
73012SOL    HW120933   2.874   3.294  12.867
73012SOL    HW220934   2.768   3.327  12.970
73013SOL     OW20935   9.433  13.011   8.303
73013SOL    HW120936   9.416  12.927   8.260
73013SOL    HW220937   9.491  13.057   8.242
73014SOL     OW20938   8.568   5.937   9.118
73014SOL    HW120939   8.658   5.959   9.142
73014SOL    HW220940   8.533   6.018   9.081
73015SOL     OW20941   7.410  12.672   7.136
73015SOL    HW120942   7.426  12.618   7.213
73015SOL    HW220943   7.497  12.684   7.097
73016SOL     OW20944   9.864   3.306  10.180
73016SOL    HW120945   9.920   3.368  10.227
73016SOL    HW220946   9.925   3.252  10.129
73017SOL     OW20947  14.276   6.514   8.193
73017SOL    HW120948  14.267   6.421   8.170
73017SOL    HW220949  14.366   6.536   8.167
73018SOL     OW20950   4.541  12.415   8.891
73018SOL    HW120951   4.523  12.437   8.800
73018SOL    HW220952   4.569  12.497   8.931
73019SOL     OW20953  11.732   6.424  10.750
73019SOL    HW120954  11.637   6.429  10.761
73019SOL    HW220955  11.744   6.375  10.668
73020SOL     OW20956   5.812   9.864   0.003
73020SOL    HW120957   5.759   9.901  14.812
73020SOL    HW220958   5.897   9.846  14.842
73021SOL     OW20959   3.374  11.298   4.196
73021SOL    HW120960   3.301  11.292   4.257
73021SOL    HW220961   3.340  11.261   4.114
73022SOL     OW20962   9.786   1.452  10.729
73022SOL    HW120963   9.750   1.522  10.674
73022SOL    HW220964   9.847   1.405  10.671
73023SOL     OW20965   9.033  10.269  12.458
73023SOL    HW120966   9.126  10.251  12.447
73023SOL    HW220967   9.030  10.348  12.512
73024SOL     OW20968  10.568   1.270   0.715
73024SOL    HW120969  10.536   1.180   0.716
73024SOL    HW220970  10.663   1.260   0.703
73025SOL     OW20971   1.904   1.067  11.182
73025SOL    HW120972   1.828   1.124  11.194
73025SOL    HW220973   1.951   1.104  11.107
73026SOL     OW20974   0.895  12.756   2.454
73026SOL    HW120975   0.877  12.694   2.383
73026SOL    HW220976   0.927  12.702   2.526
73027SOL     OW20977   5.829  14.406  14.660
73027SOL    HW120978   5.838  14.398  14.565
73027SOL    HW220979   5.739  14.434  14.673
73028SOL     OW20980   6.338  13.591   4.111
73028SOL    HW120981   6.250  13.604   4.075
73028SOL    HW220982   6.395  13.644   4.056
73029SOL     OW20983   2.494   9.404  10.657
73029SOL    HW120984   2.438   9.338  10.698
73029SOL    HW220985   2.466   9.406  10.566
73030SOL     OW20986  11.110   4.641  11.891
73030SOL    HW120987  11.033   4.584  11.889
73030SOL    HW220988  11.096   4.702  11.819
73031SOL     OW20989   2.500   6.753  10.446
73031SOL    HW120990   2.417   6.799  10.459
73031SOL    HW220991   2.482   6.691  10.375
73032SOL     OW20992  14.178   2.136  11.177
73032SOL    HW120993  14.112   2.152  11.111
73032SOL    HW220994  14.245   2.203  11.161
73033SOL     OW20995   6.892   1.488   0.274
73033SOL    HW120996   6.798   1.472   0.285
73033SOL    HW220997   6.903   1.580   0.297
73034SOL     OW20998   7.617   6.316  11.249
73034SOL    HW120999   7.605   6.411  11.251
73034SOL    HW221000   7.667   6.296  11.328
73035SOL     OW21001   3.843   3.692   7.211
73035SOL    HW121002   3.755   3.663   7.191
73035SOL    HW221003   3.840   3.720   7.303
73036SOL     OW21004  13.894   3.490  11.444
73036SOL    HW121005  13.922   3.398  11.442
73036SOL    HW221006  13.881   3.513  11.353
73037SOL     OW21007   8.498   6.552   3.753
73037SOL    HW121008   8.485   6.627   3.811
73037SOL    HW221009   8.479   6.586   3.666
73038SOL     OW21010   5.569   1.834  10.532
73038SOL    HW121011   5.541   1.834  10.623
73038SOL    HW221012   5.593   1.743  10.513
73039SOL     OW21013   1.814   9.155   1.619
73039SOL    HW121014   1.892   9.114   1.583
73039SOL    HW221015   1.761   9.082   1.652
73040SOL     OW21016   2.888   2.183   0.164
73040SOL    HW121017   2.976   2.193   0.200
73040SOL    HW221018   2.845   2.121   0.224
73041SOL     OW21019   3.099   3.473  11.421
73041SOL    HW121020   3.191   3.477  11.396
73041SOL    HW221021   3.100   3.464  11.517
73042SOL     OW21022  12.949  10.052   4.923
73042SOL    HW121023  12.891   9.998   4.868
73042SOL    HW221024  12.958  10.001   5.004
73043SOL     OW21025   1.964   3.181   0.045
73043SOL    HW121026   2.010   3.169  14.843
73043SOL    HW221027   1.871   3.183   0.021
73044SOL     OW21028   9.032   2.989   0.058
73044SOL    HW121029   8.951   2.989   0.008
73044SOL    HW221030   9.028   3.068   0.111
73045SOL     OW21031   2.221   3.309   3.163
73045SOL    HW121032   2.292   3.246   3.175
73045SOL    HW221033   2.229   3.337   3.072
73046SOL     OW21034  12.670   1.513   8.659
73046SOL    HW121035  12.598   1.573   8.680
73046SOL    HW221036  12.672   1.451   8.731
73047SOL     OW21037   6.531  12.258   4.738
73047SOL    HW121038   6.531  12.223   4.827
73047SOL    HW221039   6.591  12.201   4.690
73048SOL     OW21040   9.561   0.188   2.208
73048SOL    HW121041   9.650   0.215   2.232
73048SOL    HW221042   9.510   0.203   2.288
73049SOL     OW21043  12.917  14.454  13.854
73049SOL    HW121044  13.013  14.459  13.851
73049SOL    HW221045  12.888  14.501  13.776
73050SOL     OW21046   8.150   0.010   1.331
73050SOL    HW121047   8.190   0.057   1.404
73050SOL    HW221048   8.191   0.047   1.253
73051SOL     OW21049  14.278   0.380   7.882
73051SOL    HW121050  14.274   0.313   7.951
73051SOL    HW221051  14.254   0.333   7.802
73052SOL     OW21052   3.401   1.372   1.599
73052SOL    HW121053   3.399   1.343   1.507
73052SOL    HW221054   3.316   1.344   1.634
73053SOL     OW21055   1.588   4.170  14.143
73053SOL    HW121056   1.675   4.162  14.181
73053SOL    HW221057   1.587   4.107  14.071
73054SOL     OW21058   7.501   5.486   7.497
73054SOL    HW121059   7.574   5.546   7.511
73054SOL    HW221060   7.441   5.534   7.441
73055SOL     OW21061   7.764  11.778   0.529
73055SOL    HW121062   7.743  11.697   0.481
73055SOL    HW221063   7.754  11.755   0.621
73056SOL     OW21064   4.443   1.397  13.019
73056SOL    HW121065   4.490   1.417  12.938
73056SOL    HW221066   4.364   1.450  13.015
73057SOL     OW21067  12.801   8.034   6.976
73057SOL    HW121068  12.780   8.077   7.059
73057SOL    HW221069  12.742   8.074   6.913
73058SOL     OW21070  10.215   3.755   7.948
73058SOL    HW121071  10.199   3.743   7.855
73058SOL    HW221072  10.177   3.841   7.968
73059SOL     OW21073   8.398   7.002   4.918
73059SOL    HW121074   8.455   7.058   4.865
73059SOL    HW221075   8.397   7.042   5.004
73060SOL     OW21076   8.553   4.229  12.918
73060SOL    HW121077   8.495   4.215  12.992
73060SOL    HW221078   8.575   4.141  12.887
73061SOL     OW21079   6.887  12.086  13.637
73061SOL    HW121080   6.940  12.141  13.579
73061SOL    HW221081   6.866  12.142  13.711
73062SOL     OW21082  11.370   2.178  11.397
73062SOL    HW121083  11.393   2.222  11.315
73062SOL    HW221084  11.453   2.169  11.443
73063SOL     OW21085  13.100   1.383  13.966
73063SOL    HW121086  13.060   1.344  14.044
73063SOL    HW221087  13.140   1.309  13.919
73064SOL     OW21088   4.052  10.734  11.299
73064SOL    HW121089   3.971  10.718  11.252
73064SOL    HW221090   4.040  10.692  11.384
73065SOL     OW21091  14.836   6.950   0.247
73065SOL    HW121092  14.768   7.000   0.292
73065SOL    HW221093   0.032   7.007   0.248
73066SOL     OW21094   5.606   8.993   8.840
73066SOL    HW121095   5.547   8.928   8.880
73066SOL    HW221096   5.684   8.990   8.895
73067SOL     OW21097   3.280  14.699  11.017
73067SOL    HW121098   3.332  14.644  11.076
73067SOL    HW221099   3.240  14.765  11.073
73068SOL     OW21100  12.060   5.206   6.434
73068SOL    HW121101  11.997   5.239   6.370
73068SOL    HW221102  12.114   5.282   6.456
73069SOL     OW21103   1.778   0.157   6.576
73069SOL    HW121104   1.724   0.117   6.645
73069SOL    HW221105   1.813   0.083   6.527
73070SOL     OW21106  14.085   4.115   0.232
73070SOL    HW121107  14.069   4.084   0.143
73070SOL    HW221108  14.030   4.193   0.241
73071SOL     OW21109   8.443   5.629   1.516
73071SOL    HW121110   8.397   5.572   1.455
73071SOL    HW221111   8.401   5.714   1.506
73072SOL     OW21112  11.001   6.806   7.768
73072SOL    HW121113  10.967   6.736   7.712
73072SOL    HW221114  11.095   6.792   7.771
73073SOL     OW21115   4.503  13.842   0.404
73073SOL    HW121116   4.443  13.873   0.473
73073SOL    HW221117   4.513  13.917   0.346
73074SOL     OW21118   1.153   4.996  12.579
73074SOL    HW121119   1.212   5.067  12.604
73074SOL    HW221120   1.075   5.010  12.633
73075SOL     OW21121   6.525   2.340  13.423
73075SOL    HW121122   6.515   2.246  13.411
73075SOL    HW221123   6.532   2.375  13.334
73076SOL     OW21124   5.683  10.367  12.016
73076SOL    HW121125   5.649  10.416  11.941
73076SOL    HW221126   5.727  10.432  12.070
73077SOL     OW21127   8.434   8.942   3.026
73077SOL    HW121128   8.424   8.871   3.089
73077SOL    HW221129   8.495   8.908   2.960
73078SOL     OW21130   6.177   9.478  10.056
73078SOL    HW121131   6.172   9.453   9.964
73078SOL    HW221132   6.176   9.574  10.054
73079SOL     OW21133   0.093   0.587  11.588
73079SOL    HW121134   0.173   0.638  11.583
73079SOL    HW221135   0.122   0.496  11.598
73080SOL     OW21136   5.638   0.317   5.377
73080SOL    HW121137   5.711   0.325   5.439
73080SOL    HW221138   5.600   0.231   5.396
73081SOL     OW21139   2.349   4.891   7.635
73081SOL    HW121140   2.300   4.971   7.655
73081SOL    HW221141   2.426   4.921   7.588
73082SOL     OW21142   0.145   8.492  13.712
73082SOL    HW121143   0.162   8.463  13.622
73082SOL    HW221144   0.212   8.447  13.764
73083SOL     OW21145  11.997   3.261   3.970
73083SOL    HW121146  11.932   3.313   3.923
73083SOL    HW221147  12.001   3.300   4.057
73084SOL     OW21148   8.254   2.748  13.155
73084SOL    HW121149   8.322   2.735  13.089
73084SOL    HW221150   8.273   2.683  13.222
73085SOL     OW21151   0.226   5.006   2.886
73085SOL    HW121152   0.162   4.976   2.952
73085SOL    HW221153   0.258   5.089   2.920
73086SOL     OW21154  11.932   6.953   7.048
73086SOL    HW121155  11.840   6.927   7.039
73086SOL    HW221156  11.952   6.940   7.141
73087SOL     OW21157  10.433   5.027   6.778
73087SOL    HW121158  10.341   5.021   6.802
73087SOL    HW221159  10.481   5.024   6.861
73088SOL     OW21160  10.955   5.594   6.281
73088SOL    HW121161  10.940   5.679   6.240
73088SOL    HW221162  10.984   5.615   6.369
73089SOL     OW21163   9.115   0.665  12.158
73089SOL    HW121164   9.031   0.663  12.205
73089SOL    HW221165   9.132   0.758  12.144
73090SOL     OW21166  13.244   5.313   9.301
73090SOL    HW121167  13.201   5.398   9.298
73090SOL    HW221168  13.212   5.267   9.223
73091SOL     OW21169   9.260  10.236   0.132
73091SOL    HW121170   9.290  10.189   0.054
73091SOL    HW221171   9.181  10.189   0.159
73092SOL     OW21172  12.810   0.029  11.737
73092SOL    HW121173  12.747   0.052  11.805
73092SOL    HW221174  12.895   0.041  11.780
73093SOL     OW21175   4.273   1.642   0.366
73093SOL    HW121176   4.265   1.595   0.448
73093SOL    HW221177   4.328   1.718   0.386
73094SOL     OW21178   7.874   5.633   7.975
73094SOL    HW121179   7.923   5.651   7.895
73094SOL    HW221180   7.941   5.609   8.039
73095SOL     OW21181  11.990   8.772   9.253
73095SOL    HW121182  12.056   8.709   9.224
73095SOL    HW221183  11.909   8.742   9.211
73096SOL     OW21184   9.825   0.141   4.206
73096SOL    HW121185   9.751   0.181   4.250
73096SOL    HW221186   9.899   0.151   4.267
73097SOL     OW21187   0.436  11.744   2.896
73097SOL    HW121188   0.375  11.765   2.966
73097SOL    HW221189   0.484  11.667   2.927
73098SOL     OW21190   5.154   9.723  13.374
73098SOL    HW121191   5.225   9.750  13.433
73098SOL    HW221192   5.166   9.778  13.297
73099SOL     OW21193   5.636   9.259  12.024
73099SOL    HW121194   5.604   9.180  12.067
73099SOL    HW221195   5.557   9.302  11.991
73100SOL     OW21196  10.469   9.640   7.538
73100SOL    HW121197  10.374   9.657   7.537
73100SOL    HW221198  10.476   9.552   7.576
73101SOL     OW21199  13.444  13.408  13.749
73101SOL    HW121200  13.494  13.359  13.813
73101SOL    HW221201  13.451  13.499  13.777
73102SOL     OW21202   4.124   7.769  14.603
73102SOL    HW121203   4.094   7.850  14.561
73102SOL    HW221204   4.216   7.762  14.577
73103SOL     OW21205   4.271   9.503   5.419
73103SOL    HW121206   4.350   9.484   5.367
73103SOL    HW221207   4.274   9.439   5.490
73104SOL     OW21208   3.633  14.271  12.594
73104SOL    HW121209   3.648  14.178  12.607
73104SOL    HW221210   3.572  14.296  12.663
73105SOL     OW21211   9.134   2.454  11.465
73105SOL    HW121212   9.207   2.412  11.511
73105SOL    HW221213   9.116   2.532  11.516
73106SOL     OW21214  14.509  12.876   7.982
73106SOL    HW121215  14.436  12.884   8.043
73106SOL    HW221216  14.471  12.894   7.896
73107SOL     OW21217   7.521   8.159   2.016
73107SOL    HW121218   7.450   8.110   1.975
73107SOL    HW221219   7.507   8.150   2.110
73108SOL     OW21220   4.476   8.414  13.491
73108SOL    HW121221   4.519   8.425  13.407
73108SOL    HW221222   4.538   8.366  13.545
73109SOL     OW21223  14.815  10.082  12.407
73109SOL    HW121224   0.003  10.114  12.466
73109SOL    HW221225  14.823   9.987  12.411
73110SOL     OW21226   1.794   6.219  14.871
73110SOL    HW121227   1.865   6.158  14.854
73110SOL    HW221228   1.837   6.304   0.002
73111SOL     OW21229   5.159   7.922   3.956
73111SOL    HW121230   5.195   7.985   3.893
73111SOL    HW221231   5.181   7.837   3.920
73112SOL     OW21232  12.969   7.930   6.796
73112SOL    HW121233  12.920   7.952   6.875
73112SOL    HW221234  12.902   7.905   6.733
73113SOL     OW21235   2.727   1.447  13.844
73113SOL    HW121236   2.787   1.423  13.774
73113SOL    HW221237   2.744   1.383  13.914
73114SOL     OW21238  13.631   9.532   9.122
73114SOL    HW121239  13.619   9.459   9.061
73114SOL    HW221240  13.566   9.516   9.190
73115SOL     OW21241   4.141  14.481   6.369
73115SOL    HW121242   4.186  14.419   6.311
73115SOL    HW221243   4.154  14.566   6.328
73116SOL     OW21244  10.932  14.031   0.743
73116SOL    HW121245  10.997  13.971   0.779
73116SOL    HW221246  10.978  14.115   0.736
73117SOL     OW21247  14.658  12.981   7.074
73117SOL    HW121248  14.573  12.981   7.030
73117SOL    HW221249  14.715  12.932   7.015
73118SOL     OW21250  14.162   5.483   3.550
73118SOL    HW121251  14.233   5.435   3.507
73118SOL    HW221252  14.099   5.501   3.480
73119SOL     OW21253   7.067  10.049   7.972
73119SOL    HW121254   7.078  10.131   8.020
73119SOL    HW221255   7.069   9.982   8.039
73120SOL     OW21256   3.487   0.423   9.742
73120SOL    HW121257   3.503   0.363   9.669
73120SOL    HW221258   3.488   0.368   9.820
73121SOL     OW21259  10.799   4.668   6.884
73121SOL    HW121260  10.731   4.653   6.820
73121SOL    HW221261  10.861   4.726   6.840
73122SOL     OW21262  11.085  11.434   3.955
73122SOL    HW121263  11.139  11.450   4.033
73122SOL    HW221264  11.025  11.364   3.983
73123SOL     OW21265   4.299   9.038   8.338
73123SOL    HW121266   4.346   8.959   8.308
73123SOL    HW221267   4.302   9.097   8.263
73124SOL     OW21268  13.023   1.773   8.076
73124SOL    HW121269  12.938   1.811   8.098
73124SOL    HW221270  13.003   1.693   8.028
73125SOL     OW21271   7.085   9.189  10.565
73125SOL    HW121272   7.174   9.182  10.529
73125SOL    HW221273   7.031   9.136  10.507
73126SOL     OW21274   5.530   5.486   1.161
73126SOL    HW121275   5.621   5.503   1.137
73126SOL    HW221276   5.531   5.477   1.256
73127SOL     OW21277  12.201  14.725   5.778
73127SOL    HW121278  12.247  14.645   5.804
73127SOL    HW221279  12.126  14.730   5.837
73128SOL     OW21280   3.837   0.191  10.788
73128SOL    HW121281   3.777   0.264  10.801
73128SOL    HW221282   3.901   0.223  10.725
73129SOL     OW21283   0.712   7.493  11.488
73129SOL    HW121284   0.635   7.549  11.497
73129SOL    HW221285   0.741   7.505  11.398
73130SOL     OW21286   2.399  14.389   8.606
73130SOL    HW121287   2.479  14.373   8.557
73130SOL    HW221288   2.429  14.425   8.690
73131SOL     OW21289  13.718   8.287   1.737
73131SOL    HW121290  13.727   8.194   1.756
73131SOL    HW221291  13.727   8.293   1.642
73132SOL     OW21292  10.888  14.748   6.041
73132SOL    HW121293  10.963  14.704   5.999
73132SOL    HW221294  10.852  14.683   6.101
73133SOL     OW21295   4.976  12.595  13.327
73133SOL    HW121296   4.941  12.657  13.264
73133SOL    HW221297   5.020  12.649  13.392
73134SOL     OW21298  12.061  13.645  13.368
73134SOL    HW121299  12.058  13.636  13.463
73134SOL    HW221300  11.980  13.691  13.346
73135SOL     OW21301   5.535  14.759  14.654
73135SOL    HW121302   5.614  14.705  14.663
73135SOL    HW221303   5.519  14.762  14.560
73136SOL     OW21304   9.661  10.570   1.536
73136SOL    HW121305   9.658  10.665   1.538
73136SOL    HW221306   9.571  10.542   1.550
73137SOL     OW21307  11.796   0.512   4.200
73137SOL    HW121308  11.854   0.544   4.269
73137SOL    HW221309  11.779   0.589   4.145
73138SOL     OW21310   3.313   1.877   2.013
73138SOL    HW121311   3.230   1.862   2.058
73138SOL    HW221312   3.363   1.797   2.026
73139SOL     OW21313   3.225   3.993   3.317
73139SOL    HW121314   3.267   3.966   3.399
73139SOL    HW221315   3.131   3.988   3.336
73140SOL     OW21316   9.250  11.308  11.250
73140SOL    HW121317   9.338  11.299  11.285
73140SOL    HW221318   9.216  11.218  11.248
73141SOL     OW21319   1.967  11.262   8.124
73141SOL    HW121320   2.002  11.319   8.193
73141SOL    HW221321   1.989  11.174   8.152
73142SOL     OW21322   4.552   0.714   1.367
73142SOL    HW121323   4.542   0.711   1.272
73142SOL    HW221324   4.647   0.712   1.381
73143SOL     OW21325   3.458   1.947   6.321
73143SOL    HW121326   3.431   1.893   6.395
73143SOL    HW221327   3.511   1.889   6.267
73144SOL     OW21328   7.173  10.777   4.494
73144SOL    HW121329   7.167  10.701   4.436
73144SOL    HW221330   7.130  10.749   4.575
73145SOL     OW21331   4.402   8.783   8.626
73145SOL    HW121332   4.331   8.719   8.618
73145SOL    HW221333   4.458   8.747   8.695
73146SOL     OW21334  12.783   3.054   7.399
73146SOL    HW121335  12.737   3.056   7.315
73146SOL    HW221336  12.761   2.969   7.437
73147SOL     OW21337   1.449   1.964  12.917
73147SOL    HW121338   1.485   2.037  12.968
73147SOL    HW221339   1.382   2.005  12.862
73148SOL     OW21340  11.344  10.480  12.226
73148SOL    HW121341  11.313  10.541  12.293
73148SOL    HW221342  11.281  10.489  12.155
73149SOL     OW21343   9.253  10.437  14.615
73149SOL    HW121344   9.185  10.503  14.596
73149SOL    HW221345   9.331  10.469  14.571
73150SOL     OW21346   9.599  14.185   3.374
73150SOL    HW121347   9.506  14.193   3.395
73150SOL    HW221348   9.611  14.240   3.297
73151SOL     OW21349   1.075   0.235   9.406
73151SOL    HW121350   1.152   0.212   9.458
73151SOL    HW221351   1.082   0.329   9.394
73152SOL     OW21352   6.481   8.820  14.856
73152SOL    HW121353   6.545   8.758   0.011
73152SOL    HW221354   6.398   8.793   0.014
73153SOL     OW21355   1.270   3.066   9.863
73153SOL    HW121356   1.324   2.987   9.863
73153SOL    HW221357   1.328   3.135   9.897
73154SOL     OW21358  14.456  14.496   2.774
73154SOL    HW121359  14.458  14.515   2.867
73154SOL    HW221360  14.390  14.555   2.739
73155SOL     OW21361   9.869  13.914  14.209
73155SOL    HW121362   9.857  13.941  14.300
73155SOL    HW221363   9.956  13.875  14.207
73156SOL     OW21364  10.355   8.322  11.266
73156SOL    HW121365  10.437   8.346  11.307
73156SOL    HW221366  10.380   8.271  11.189
73157SOL     OW21367   5.821  14.587  10.703
73157SOL    HW121368   5.905  14.627  10.725
73157SOL    HW221369   5.810  14.603  10.610
73158SOL     OW21370   5.250   2.707   7.694
73158SOL    HW121371   5.243   2.639   7.760
73158SOL    HW221372   5.280   2.784   7.742
73159SOL     OW21373   4.783   5.882  11.859
73159SOL    HW121374   4.837   5.917  11.789
73159SOL    HW221375   4.737   5.807  11.820
73160SOL     OW21376  10.800   8.841   5.685
73160SOL    HW121377  10.709   8.840   5.717
73160SOL    HW221378  10.849   8.887   5.753
73161SOL     OW21379  13.247   7.802   7.847
73161SOL    HW121380  13.281   7.889   7.829
73161SOL    HW221381  13.324   7.745   7.847
73162SOL     OW21382  14.037   1.210   6.993
73162SOL    HW121383  14.016   1.117   6.983
73162SOL    HW221384  14.129   1.212   7.016
73163SOL     OW21385   5.863   9.197   2.356
73163SOL    HW121386   5.842   9.290   2.357
73163SOL    HW221387   5.788   9.154   2.396
73164SOL     OW21388   4.584   3.201   1.971
73164SOL    HW121389   4.504   3.251   1.981
73164SOL    HW221390   4.582   3.171   1.880
73165SOL     OW21391   0.817  10.265   4.156
73165SOL    HW121392   0.810  10.357   4.130
73165SOL    HW221393   0.911  10.249   4.164
73166SOL     OW21394   8.641   1.471  11.736
73166SOL    HW121395   8.596   1.412  11.797
73166SOL    HW221396   8.578   1.541  11.719
73167SOL     OW21397   3.170   1.197   5.333
73167SOL    HW121398   3.204   1.242   5.256
73167SOL    HW221399   3.189   1.104   5.318
73168SOL     OW21400   5.394  14.651   4.711
73168SOL    HW121401   5.456  14.691   4.772
73168SOL    HW221402   5.440  14.576   4.674
73169SOL     OW21403  11.754   7.488   5.009
73169SOL    HW121404  11.758   7.438   4.927
73169SOL    HW221405  11.681   7.449   5.057
73170SOL     OW21406   1.451   1.575   7.830
73170SOL    HW121407   1.459   1.514   7.903
73170SOL    HW221408   1.433   1.660   7.871
73171SOL     OW21409   6.803   3.086   9.658
73171SOL    HW121410   6.872   3.039   9.704
73171SOL    HW221411   6.759   3.137   9.727
73172SOL     OW21412   7.581   5.222  11.737
73172SOL    HW121413   7.521   5.156  11.703
73172SOL    HW221414   7.586   5.288  11.668
73173SOL     OW21415   0.092  12.537  13.225
73173SOL    HW121416   0.064  12.446  13.236
73173SOL    HW221417   0.051  12.566  13.144
73174SOL     OW21418   2.081  11.125  11.948
73174SOL    HW121419   2.108  11.159  11.862
73174SOL    HW221420   2.065  11.032  11.932
73175SOL     OW21421  13.107   1.608   2.059
73175SOL    HW121422  13.172   1.541   2.040
73175SOL    HW221423  13.158   1.684   2.086
73176SOL     OW21424  13.628   7.607   2.869
73176SOL    HW121425  13.615   7.699   2.892
73176SOL    HW221426  13.566   7.591   2.797
73177SOL     OW21427   8.878  14.878   2.172
73177SOL    HW121428   8.882  14.823   2.250
73177SOL    HW221429   8.894   0.086   2.204
73178SOL     OW21430  11.658  11.490  12.129
73178SOL    HW121431  11.725  11.422  12.129
73178SOL    HW221432  11.598  11.465  12.199
73179SOL     OW21433  10.090  12.986  13.985
73179SOL    HW121434  10.183  12.996  14.002
73179SOL    HW221435  10.056  13.075  13.983
73180SOL     OW21436   5.597   0.355   7.485
73180SOL    HW121437   5.548   0.286   7.531
73180SOL    HW221438   5.549   0.367   7.403
73181SOL     OW21439  11.532   2.431   2.800
73181SOL    HW121440  11.476   2.402   2.871
73181SOL    HW221441  11.621   2.413   2.829
73182SOL     OW21442  11.021  10.071  13.967
73182SOL    HW121443  11.116  10.065  13.956
73182SOL    HW221444  10.989   9.985  13.943
73183SOL     OW21445   1.610   0.252  12.050
73183SOL    HW121446   1.577   0.182  12.105
73183SOL    HW221447   1.623   0.326  12.110
73184SOL     OW21448   3.515   5.083   8.494
73184SOL    HW121449   3.556   5.056   8.412
73184SOL    HW221450   3.474   5.167   8.473
73185SOL     OW21451   5.337   2.044   6.516
73185SOL    HW121452   5.433   2.048   6.515
73185SOL    HW221453   5.317   1.957   6.482
73186SOL     OW21454  13.566  13.976  10.286
73186SOL    HW121455  13.642  13.972  10.227
73186SOL    HW221456  13.511  13.902  10.258
73187SOL     OW21457  11.212   9.263  12.332
73187SOL    HW121458  11.245   9.318  12.404
73187SOL    HW221459  11.163   9.322  12.276
73188SOL     OW21460   5.205  13.724   8.190
73188SOL    HW121461   5.173  13.715   8.101
73188SOL    HW221462   5.156  13.659   8.240
73189SOL     OW21463   2.341  11.812   9.039
73189SOL    HW121464   2.390  11.750   9.092
73189SOL    HW221465   2.350  11.895   9.085
73190SOL     OW21466   2.337  12.181   6.386
73190SOL    HW121467   2.424  12.215   6.366
73190SOL    HW221468   2.291  12.254   6.425
73191SOL     OW21469   4.334   7.142   2.247
73191SOL    HW121470   4.304   7.068   2.194
73191SOL    HW221471   4.413   7.173   2.203
73192SOL     OW21472   2.960   3.479  10.566
73192SOL    HW121473   3.054   3.465  10.579
73192SOL    HW221474   2.919   3.409  10.617
73193SOL     OW21475  13.718   4.096   3.211
73193SOL    HW121476  13.629   4.061   3.202
73193SOL    HW221477  13.762   4.034   3.270
73194SOL     OW21478   3.325   4.939  14.183
73194SOL    HW121479   3.399   4.879  14.196
73194SOL    HW221480   3.364   5.026  14.183
73195SOL     OW21481   3.904   7.978  11.213
73195SOL    HW121482   3.812   7.958  11.227
73195SOL    HW221483   3.924   7.940  11.128
73196SOL     OW21484  10.092   8.278   4.054
73196SOL    HW121485  10.060   8.257   3.966
73196SOL    HW221486  10.177   8.235   4.059
73197SOL     OW21487   4.147  10.657  13.678
73197SOL    HW121488   4.173  10.695  13.595
73197SOL    HW221489   4.111  10.731  13.728
73198SOL     OW21490   1.158  11.811  10.481
73198SOL    HW121491   1.177  11.744  10.547
73198SOL    HW221492   1.103  11.874  10.526
73199SOL     OW21493   5.759   4.061  10.451
73199SOL    HW121494   5.704   4.061  10.530
73199SOL    HW221495   5.747   3.975  10.413
73200SOL     OW21496   1.173   3.577   7.093
73200SOL    HW121497   1.268   3.568   7.084
73200SOL    HW221498   1.160   3.666   7.124
73201SOL     OW21499   4.132   7.096  11.612
73201SOL    HW121500   4.214   7.055  11.638
73201SOL    HW221501   4.117   7.065  11.523
73202SOL     OW21502   4.896  14.532   9.599
73202SOL    HW121503   4.967  14.524   9.534
73202SOL    HW221504   4.896  14.625   9.623
73203SOL     OW21505   6.761  11.615  14.565
73203SOL    HW121506   6.819  11.582  14.633
73203SOL    HW221507   6.735  11.702  14.596
73204SOL     OW21508   1.562   2.303   0.362
73204SOL    HW121509   1.475   2.265   0.354
73204SOL    HW221510   1.552   2.375   0.424
73205SOL     OW21511   2.122   5.021   1.311
73205SOL    HW121512   2.109   5.104   1.264
73205SOL    HW221513   2.036   4.999   1.345
73206SOL     OW21514  10.726   3.186  12.188
73206SOL    HW121515  10.776   3.239  12.250
73206SOL    HW221516  10.792   3.130  12.146
73207SOL     OW21517   5.872  12.063   2.193
73207SOL    HW121518   5.961  12.043   2.222
73207SOL    HW221519   5.834  11.978   2.172
73208SOL     OW21520   5.568   6.457   1.493
73208SOL    HW121521   5.642   6.462   1.433
73208SOL    HW221522   5.506   6.398   1.451
73209SOL     OW21523   7.995   9.459   9.396
73209SOL    HW121524   8.032   9.510   9.323
73209SOL    HW221525   7.981   9.372   9.358
73210SOL     OW21526   5.932  13.112   9.316
73210SOL    HW121527   5.843  13.148   9.320
73210SOL    HW221528   5.948  13.081   9.405
73211SOL     OW21529   1.959  11.130   5.226
73211SOL    HW121530   1.868  11.106   5.209
73211SOL    HW221531   2.008  11.091   5.154
73212SOL     OW21532   2.764   6.174  10.613
73212SOL    HW121533   2.730   6.088  10.589
73212SOL    HW221534   2.829   6.156  10.681
73213SOL     OW21535  13.267   6.092   9.128
73213SOL    HW121536  13.301   6.057   9.046
73213SOL    HW221537  13.286   6.185   9.125
73214SOL     OW21538  13.618   7.902   2.367
73214SOL    HW121539  13.663   7.829   2.324
73214SOL    HW221540  13.612   7.875   2.459
73215SOL     OW21541   4.738   1.926   0.268
73215SOL    HW121542   4.752   1.982   0.345
73215SOL    HW221543   4.800   1.854   0.279
73216SOL     OW21544   5.185   9.805   1.404
73216SOL    HW121545   5.158   9.798   1.495
73216SOL    HW221546   5.121   9.751   1.356
73217SOL     OW21547   7.096   6.468   0.434
73217SOL    HW121548   7.181   6.511   0.441
73217SOL    HW221549   7.086   6.420   0.516
73218SOL     OW21550   4.488   6.808   8.864
73218SOL    HW121551   4.455   6.741   8.924
73218SOL    HW221552   4.472   6.773   8.776
73219SOL     OW21553  13.072   9.913  10.397
73219SOL    HW121554  13.091   9.980  10.463
73219SOL    HW221555  12.992   9.943  10.354
73220SOL     OW21556   6.641   2.634   2.636
73220SOL    HW121557   6.686   2.709   2.597
73220SOL    HW221558   6.548   2.653   2.627
73221SOL     OW21559   9.446   1.514   6.812
73221SOL    HW121560   9.409   1.435   6.852
73221SOL    HW221561   9.380   1.543   6.749
73222SOL     OW21562   9.696   7.656   7.290
73222SOL    HW121563   9.721   7.685   7.203
73222SOL    HW221564   9.601   7.646   7.285
73223SOL     OW21565  12.823   2.712  13.069
73223SOL    HW121566  12.835   2.791  13.121
73223SOL    HW221567  12.912   2.690  13.039
73224SOL     OW21568   5.690   9.604   5.531
73224SOL    HW121569   5.682   9.602   5.435
73224SOL    HW221570   5.780   9.579   5.548
73225SOL     OW21571   7.941  10.075  11.105
73225SOL    HW121572   7.916  10.061  11.013
73225SOL    HW221573   7.857  10.083  11.151
73226SOL     OW21574  12.239   5.798  11.177
73226SOL    HW121575  12.196   5.786  11.261
73226SOL    HW221576  12.213   5.886  11.149
73227SOL     OW21577   7.146   5.374   7.724
73227SOL    HW121578   7.152   5.389   7.629
73227SOL    HW221579   7.132   5.462   7.761
73228SOL     OW21580  10.697   8.700  11.350
73228SOL    HW121581  10.642   8.682  11.273
73228SOL    HW221582  10.640   8.679  11.425
73229SOL     OW21583  13.479  14.016  12.688
73229SOL    HW121584  13.495  13.981  12.775
73229SOL    HW221585  13.447  14.105  12.704
73230SOL     OW21586   1.254   6.370   8.617
73230SOL    HW121587   1.232   6.282   8.648
73230SOL    HW221588   1.341   6.387   8.652
73231SOL     OW21589   7.588   4.089   5.776
73231SOL    HW121590   7.577   4.176   5.814
73231SOL    HW221591   7.511   4.076   5.722
73232SOL     OW21592   2.744   5.711   6.239
73232SOL    HW121593   2.784   5.767   6.172
73232SOL    HW221594   2.815   5.691   6.299
73233SOL     OW21595   5.205   9.984  13.282
73233SOL    HW121596   5.232   9.975  13.373
73233SOL    HW221597   5.148  10.061  13.282
73234SOL     OW21598   8.123   9.417  12.802
73234SOL    HW121599   8.148   9.466  12.724
73234SOL    HW221600   8.202   9.416  12.856
73235SOL     OW21601   6.330   0.670   4.408
73235SOL    HW121602   6.310   0.758   4.376
73235SOL    HW221603   6.370   0.625   4.333
73236SOL     OW21604   0.719   3.864   7.902
73236SOL    HW121605   0.690   3.883   7.813
73236SOL    HW221606   0.670   3.786   7.928
73237SOL     OW21607   5.287   0.149  14.353
73237SOL    HW121608   5.347   0.077  14.332
73237SOL    HW221609   5.311   0.176  14.441
73238SOL     OW21610   1.890   0.672   9.574
73238SOL    HW121611   1.902   0.753   9.624
73238SOL    HW221612   1.889   0.699   9.483
73239SOL     OW21613  14.467   7.309   9.808
73239SOL    HW121614  14.488   7.245   9.876
73239SOL    HW221615  14.400   7.265   9.755
73240SOL     OW21616   9.265  11.893   3.107
73240SOL    HW121617   9.256  11.975   3.057
73240SOL    HW221618   9.183  11.884   3.154
73241SOL     OW21619   2.805   6.289   4.298
73241SOL    HW121620   2.892   6.323   4.278
73241SOL    HW221621   2.819   6.197   4.320
73242SOL     OW21622   0.210   7.073   3.752
73242SOL    HW121623   0.150   7.052   3.681
73242SOL    HW221624   0.153   7.090   3.827
73243SOL     OW21625   9.308   8.737   4.264
73243SOL    HW121626   9.291   8.710   4.174
73243SOL    HW221627   9.229   8.712   4.311
73244SOL     OW21628  12.529   6.551   0.158
73244SOL    HW121629  12.488   6.498   0.089
73244SOL    HW221630  12.505   6.641   0.137
73245SOL     OW21631   6.110  12.454  11.115
73245SOL    HW121632   6.116  12.465  11.210
73245SOL    HW221633   6.198  12.473  11.083
73246SOL     OW21634   3.111   6.445   3.867
73246SOL    HW121635   3.181   6.399   3.912
73246SOL    HW221636   3.132   6.437   3.774
73247SOL     OW21637  10.077   7.456  10.215
73247SOL    HW121638   9.994   7.413  10.236
73247SOL    HW221639  10.122   7.462  10.299
73248SOL     OW21640   7.954  12.536   2.886
73248SOL    HW121641   7.867  12.577   2.893
73248SOL    HW221642   8.014  12.610   2.873
73249SOL     OW21643   9.711   5.038   5.926
73249SOL    HW121644   9.751   5.124   5.926
73249SOL    HW221645   9.685   5.024   5.835
73250SOL     OW21646   5.498  14.556   2.160
73250SOL    HW121647   5.487  14.462   2.144
73250SOL    HW221648   5.442  14.598   2.095
73251SOL     OW21649   9.387   4.977  13.414
73251SOL    HW121650   9.364   4.901  13.360
73251SOL    HW221651   9.422   4.939  13.494
73252SOL     OW21652   0.454  14.627   8.165
73252SOL    HW121653   0.492  14.569   8.100
73252SOL    HW221654   0.371  14.655   8.127
73253SOL     OW21655  12.150   4.852   2.182
73253SOL    HW121656  12.137   4.770   2.230
73253SOL    HW221657  12.218   4.898   2.230
73254SOL     OW21658   7.879  13.817   4.178
73254SOL    HW121659   7.791  13.783   4.192
73254SOL    HW221660   7.927  13.793   4.257
73255SOL     OW21661  13.127  12.334   7.204
73255SOL    HW121662  13.154  12.414   7.159
73255SOL    HW221663  13.188  12.327   7.278
73256SOL     OW21664  13.175   8.584   1.717
73256SOL    HW121665  13.236   8.543   1.778
73256SOL    HW221666  13.137   8.656   1.767
73257SOL     OW21667  10.353  10.373  10.602
73257SOL    HW121668  10.399  10.385  10.520
73257SOL    HW221669  10.422  10.372  10.669
73258SOL     OW21670   9.308  13.474  10.156
73258SOL    HW121671   9.300  13.548  10.217
73258SOL    HW221672   9.235  13.485  10.096
73259SOL     OW21673  11.457   3.716   9.489
73259SOL    HW121674  11.512   3.643   9.518
73259SOL    HW221675  11.517   3.790   9.484
73260SOL     OW21676   5.285  12.026  13.071
73260SOL    HW121677   5.272  12.119  13.054
73260SOL    HW221678   5.369  12.005  13.030
73261SOL     OW21679  14.044   8.170   0.891
73261SOL    HW121680  14.051   8.075   0.886
73261SOL    HW221681  14.019   8.188   0.982
73262SOL     OW21682   2.821  13.482   4.059
73262SOL    HW121683   2.736  13.443   4.077
73262SOL    HW221684   2.853  13.435   3.982
73263SOL     OW21685   4.382   1.473   9.246
73263SOL    HW121686   4.395   1.561   9.211
73263SOL    HW221687   4.467   1.449   9.284
73264SOL     OW21688   6.214   6.774  13.313
73264SOL    HW121689   6.119   6.774  13.314
73264SOL    HW221690   6.240   6.792  13.403
73265SOL     OW21691   5.130   2.324   9.989
73265SOL    HW121692   5.036   2.310   9.998
73265SOL    HW221693   5.169   2.253  10.041
73266SOL     OW21694   4.620   0.227   6.151
73266SOL    HW121695   4.652   0.281   6.079
73266SOL    HW221696   4.649   0.273   6.230
73267SOL     OW21697   0.790   2.880  13.790
73267SOL    HW121698   0.813   2.951  13.850
73267SOL    HW221699   0.776   2.804  13.846
73268SOL     OW21700   5.013  10.432   8.643
73268SOL    HW121701   5.087  10.386   8.683
73268SOL    HW221702   4.960  10.461   8.717
73269SOL     OW21703   9.142  14.248   9.195
73269SOL    HW121704   9.135  14.300   9.276
73269SOL    HW221705   9.051  14.230   9.171
73270SOL     OW21706   3.597   0.014   7.489
73270SOL    HW121707   3.686  14.867   7.512
73270SOL    HW221708   3.553  14.813   7.463
73271SOL     OW21709  10.394   8.000   2.126
73271SOL    HW121710  10.368   8.092   2.121
73271SOL    HW221711  10.485   8.003   2.155
73272SOL     OW21712   2.837   6.782   4.986
73272SOL    HW121713   2.827   6.779   5.081
73272SOL    HW221714   2.918   6.831   4.972
73273SOL     OW21715  14.397   9.637  12.173
73273SOL    HW121716  14.456   9.605  12.105
73273SOL    HW221717  14.314   9.650  12.128
73274SOL     OW21718  13.418   9.131   5.099
73274SOL    HW121719  13.341   9.184   5.082
73274SOL    HW221720  13.423   9.071   5.025
73275SOL     OW21721   6.494  12.600  14.728
73275SOL    HW121722   6.586  12.583  14.708
73275SOL    HW221723   6.446  12.566  14.653
73276SOL     OW21724   1.919   5.540   1.582
73276SOL    HW121725   1.836   5.544   1.630
73276SOL    HW221726   1.981   5.586   1.637
73277SOL     OW21727   1.262   8.327  14.120
73277SOL    HW121728   1.218   8.386  14.059
73277SOL    HW221729   1.351   8.363  14.128
73278SOL     OW21730   8.364   6.637   5.204
73278SOL    HW121731   8.295   6.703   5.215
73278SOL    HW221732   8.393   6.648   5.113
73279SOL     OW21733   6.306   4.080   5.303
73279SOL    HW121734   6.281   4.016   5.236
73279SOL    HW221735   6.361   4.143   5.256
73280SOL     OW21736   8.627   1.761   1.086
73280SOL    HW121737   8.574   1.713   1.023
73280SOL    HW221738   8.691   1.697   1.117
73281SOL     OW21739   1.246   4.462   9.093
73281SOL    HW121740   1.220   4.402   9.023
73281SOL    HW221741   1.333   4.431   9.120
73282SOL     OW21742   5.837   5.920  11.013
73282SOL    HW121743   5.835   5.960  11.100
73282SOL    HW221744   5.812   5.829  11.029
73283SOL     OW21745  10.767  14.056   4.748
73283SOL    HW121746  10.812  14.140   4.742
73283SOL    HW221747  10.697  14.071   4.812
73284SOL     OW21748   2.693   0.159   7.132
73284SOL    HW121749   2.725   0.208   7.208
73284SOL    HW221750   2.761   0.094   7.115
73285SOL     OW21751   7.470   8.637  11.863
73285SOL    HW121752   7.415   8.595  11.797
73285SOL    HW221753   7.560   8.619  11.834
73286SOL     OW21754   0.698   8.165   2.497
73286SOL    HW121755   0.672   8.234   2.558
73286SOL    HW221756   0.618   8.145   2.448
73287SOL     OW21757   9.795   9.057   8.828
73287SOL    HW121758   9.874   9.096   8.865
73287SOL    HW221759   9.825   9.014   8.748
73288SOL     OW21760   7.770  12.856  11.087
73288SOL    HW121761   7.810  12.936  11.119
73288SOL    HW221762   7.784  12.792  11.157
73289SOL     OW21763   6.254  11.388  12.303
73289SOL    HW121764   6.243  11.427  12.216
73289SOL    HW221765   6.240  11.461  12.364
73290SOL     OW21766   1.894   2.448   4.007
73290SOL    HW121767   1.963   2.408   3.953
73290SOL    HW221768   1.827   2.380   4.013
73291SOL     OW21769   9.220  10.408   9.931
73291SOL    HW121770   9.126  10.395   9.929
73291SOL    HW221771   9.258  10.320   9.934
73292SOL     OW21772   3.351   9.108  13.256
73292SOL    HW121773   3.311   9.081  13.173
73292SOL    HW221774   3.295   9.178  13.287
73293SOL     OW21775  13.616  12.746   6.735
73293SOL    HW121776  13.692  12.790   6.698
73293SOL    HW221777  13.650  12.663   6.768
73294SOL     OW21778   6.084  12.509  13.662
73294SOL    HW121779   6.062  12.572  13.594
73294SOL    HW221780   6.018  12.523  13.730
73295SOL     OW21781  12.662   7.850   9.132
73295SOL    HW121782  12.752   7.863   9.160
73295SOL    HW221783  12.631   7.775   9.183
73296SOL     OW21784  12.268  14.734   1.720
73296SOL    HW121785  12.244  14.730   1.628
73296SOL    HW221786  12.364  14.738   1.720
73297SOL     OW21787   6.321   1.747  14.601
73297SOL    HW121788   6.372   1.672  14.630
73297SOL    HW221789   6.336   1.814  14.668
73298SOL     OW21790   1.666   1.817   1.427
73298SOL    HW121791   1.698   1.865   1.350
73298SOL    HW221792   1.593   1.765   1.393
73299SOL     OW21793   5.177   7.101  10.590
73299SOL    HW121794   5.140   7.189  10.581
73299SOL    HW221795   5.248   7.112  10.653
73300SOL     OW21796   3.167   4.710   8.106
73300SOL    HW121797   3.154   4.660   8.025
73300SOL    HW221798   3.256   4.686   8.134
73301SOL     OW21799   3.992   9.536   5.528
73301SOL    HW121800   4.080   9.533   5.491
73301SOL    HW221801   3.987   9.619   5.574
73302SOL     OW21802  11.919   9.134  14.239
73302SOL    HW121803  11.899   9.180  14.321
73302SOL    HW221804  11.977   9.063  14.265
73303SOL     OW21805   2.951   9.553   9.263
73303SOL    HW121806   2.890   9.577   9.332
73303SOL    HW221807   2.989   9.470   9.292
73304SOL     OW21808   0.870  11.202   6.179
73304SOL    HW121809   0.825  11.281   6.152
73304SOL    HW221810   0.877  11.150   6.099
73305SOL     OW21811   1.010  12.651   4.238
73305SOL    HW121812   1.061  12.729   4.217
73305SOL    HW221813   0.919  12.679   4.230
73306SOL     OW21814  11.117   5.014  11.800
73306SOL    HW121815  11.196   5.017  11.855
73306SOL    HW221816  11.109   5.102  11.765
73307SOL     OW21817   3.332   0.510   3.057
73307SOL    HW121818   3.407   0.476   3.105
73307SOL    HW221819   3.320   0.449   2.984
73308SOL     OW21820   5.892  13.361   1.665
73308SOL    HW121821   5.839  13.408   1.728
73308SOL    HW221822   5.938  13.294   1.716
73309SOL     OW21823   4.833  14.735   6.963
73309SOL    HW121824   4.806  14.732   6.871
73309SOL    HW221825   4.792  14.659   7.003
73310SOL     OW21826  10.153  14.756  10.472
73310SOL    HW121827  10.194  14.702  10.405
73310SOL    HW221828  10.220  14.820  10.497
73311SOL     OW21829   7.364   3.068  12.329
73311SOL    HW121830   7.449   3.099  12.296
73311SOL    HW221831   7.300   3.118  12.278
73312SOL     OW21832   3.455  12.533   9.350
73312SOL    HW121833   3.432  12.451   9.308
73312SOL    HW221834   3.527  12.568   9.297
73313SOL     OW21835  14.034  10.509   9.742
73313SOL    HW121836  14.064  10.587   9.789
73313SOL    HW221837  13.944  10.496   9.773
73314SOL     OW21838   3.247   7.281   1.749
73314SOL    HW121839   3.194   7.276   1.829
73314SOL    HW221840   3.332   7.247   1.775
73315SOL     OW21841   0.414  10.969  14.593
73315SOL    HW121842   0.335  10.929  14.557
73315SOL    HW221843   0.404  11.063  14.575
73316SOL     OW21844   5.002   2.606   2.143
73316SOL    HW121845   5.058   2.620   2.066
73316SOL    HW221846   5.017   2.515   2.168
73317SOL     OW21847   2.227   0.431  14.439
73317SOL    HW121848   2.201   0.341  14.457
73317SOL    HW221849   2.297   0.449  14.502
73318SOL     OW21850  10.971  11.760   6.528
73318SOL    HW121851  10.988  11.668   6.507
73318SOL    HW221852  11.013  11.810   6.458
73319SOL     OW21853   1.990   7.315   0.749
73319SOL    HW121854   1.989   7.301   0.654
73319SOL    HW221855   2.081   7.303   0.775
73320SOL     OW21856   2.637   7.811   3.762
73320SOL    HW121857   2.560   7.754   3.771
73320SOL    HW221858   2.711   7.754   3.782
73321SOL     OW21859  11.948   6.800   3.689
73321SOL    HW121860  11.888   6.875   3.679
73321SOL    HW221861  12.007   6.807   3.614
73322SOL     OW21862  12.663  13.253   7.927
73322SOL    HW121863  12.735  13.300   7.885
73322SOL    HW221864  12.706  13.191   7.986
73323SOL     OW21865   8.994   6.560   5.430
73323SOL    HW121866   9.081   6.547   5.466
73323SOL    HW221867   8.935   6.527   5.498
73324SOL     OW21868   7.851  11.955   3.373
73324SOL    HW121869   7.919  12.022   3.388
73324SOL    HW221870   7.885  11.903   3.300
73325SOL     OW21871  12.573   8.256  13.885
73325SOL    HW121872  12.579   8.324  13.818
73325SOL    HW221873  12.636   8.190  13.859
73326SOL     OW21874   0.857   7.228   1.517
73326SOL    HW121875   0.850   7.274   1.433
73326SOL    HW221876   0.949   7.202   1.523
73327SOL     OW21877   9.977  10.582   1.635
73327SOL    HW121878   9.935  10.636   1.567
73327SOL    HW221879   9.920  10.591   1.711
73328SOL     OW21880  10.031   0.750   3.009
73328SOL    HW121881   9.963   0.696   3.050
73328SOL    HW221882   9.990   0.784   2.930
73329SOL     OW21883  13.130   2.435   0.155
73329SOL    HW121884  13.166   2.346   0.147
73329SOL    HW221885  13.183   2.476   0.223
73330SOL     OW21886   3.347   3.891   0.634
73330SOL    HW121887   3.389   3.940   0.705
73330SOL    HW221888   3.354   3.800   0.661
73331SOL     OW21889  10.546   5.568   5.914
73331SOL    HW121890  10.633   5.551   5.950
73331SOL    HW221891  10.505   5.482   5.907
73332SOL     OW21892   4.823  12.758  13.138
73332SOL    HW121893   4.766  12.809  13.080
73332SOL    HW221894   4.847  12.681  13.087
73333SOL     OW21895   5.039   6.268  14.702
73333SOL    HW121896   5.054   6.268  14.607
73333SOL    HW221897   5.036   6.360  14.726
73334SOL     OW21898  13.526   0.204  11.809
73334SOL    HW121899  13.564   0.153  11.881
73334SOL    HW221900  13.437   0.223  11.838
73335SOL     OW21901   4.230   2.612   8.026
73335SOL    HW121902   4.291   2.655   8.086
73335SOL    HW221903   4.167   2.568   8.084
73336SOL     OW21904   8.151   3.495  12.386
73336SOL    HW121905   8.192   3.520  12.303
73336SOL    HW221906   8.179   3.405  12.400
73337SOL     OW21907  14.824  11.790   1.630
73337SOL    HW121908  14.783  11.872   1.602
73337SOL    HW221909   0.038  11.808   1.629
73338SOL     OW21910   1.867   7.522  10.288
73338SOL    HW121911   1.883   7.591  10.352
73338SOL    HW221912   1.954   7.493  10.260
73339SOL     OW21913  10.076   2.655  12.130
73339SOL    HW121914  10.030   2.580  12.169
73339SOL    HW221915  10.074   2.637  12.036
73340SOL     OW21916   8.730   3.507   2.381
73340SOL    HW121917   8.791   3.531   2.450
73340SOL    HW221918   8.785   3.490   2.304
73341SOL     OW21919   3.745  12.885   6.612
73341SOL    HW121920   3.738  12.808   6.556
73341SOL    HW221921   3.658  12.898   6.647
73342SOL     OW21922  13.574  12.343  14.013
73342SOL    HW121923  13.587  12.406  13.941
73342SOL    HW221924  13.493  12.371  14.055
73343SOL     OW21925   1.230   3.396   5.055
73343SOL    HW121926   1.295   3.396   4.985
73343SOL    HW221927   1.195   3.485   5.056
73344SOL     OW21928   8.339  13.604  11.511
73344SOL    HW121929   8.341  13.582  11.604
73344SOL    HW221930   8.315  13.697  11.510
73345SOL     OW21931  11.017   8.239   2.474
73345SOL    HW121932  10.973   8.281   2.548
73345SOL    HW221933  11.026   8.310   2.410
73346SOL     OW21934  12.611   9.005   3.751
73346SOL    HW121935  12.534   8.992   3.807
73346SOL    HW221936  12.586   9.076   3.692
73347SOL     OW21937   4.611   8.715   1.161
73347SOL    HW121938   4.643   8.709   1.251
73347SOL    HW221939   4.663   8.785   1.122
73348SOL     OW21940   2.295  14.064   7.502
73348SOL    HW121941   2.203  14.039   7.515
73348SOL    HW221942   2.299  14.095   7.412
73349SOL     OW21943   3.181   4.031   9.035
73349SOL    HW121944   3.174   3.981   8.953
73349SOL    HW221945   3.107   4.091   9.033
73350SOL     OW21946   2.128   1.085   9.049
73350SOL    HW121947   2.051   1.129   9.085
73350SOL    HW221948   2.201   1.122   9.098
73351SOL     OW21949   6.100   2.353   4.665
73351SOL    HW121950   6.052   2.331   4.585
73351SOL    HW221951   6.157   2.278   4.681
73352SOL     OW21952  10.503   4.795   9.172
73352SOL    HW121953  10.509   4.877   9.123
73352SOL    HW221954  10.409   4.779   9.181
73353SOL     OW21955   0.832   7.728   1.967
73353SOL    HW121956   0.894   7.800   1.980
73353SOL    HW221957   0.779   7.728   2.046
73354SOL     OW21958   5.132   6.460  10.994
73354SOL    HW121959   5.100   6.517  11.064
73354SOL    HW221960   5.151   6.377  11.038
73355SOL     OW21961  11.515   8.679   6.246
73355SOL    HW121962  11.515   8.761   6.197
73355SOL    HW221963  11.487   8.703   6.334
73356SOL     OW21964   1.624   4.185  10.547
73356SOL    HW121965   1.668   4.136  10.617
73356SOL    HW221966   1.593   4.265  10.590
73357SOL     OW21967   6.074   4.971   4.958
73357SOL    HW121968   6.105   5.059   4.936
73357SOL    HW221969   6.136   4.940   5.024
73358SOL     OW21970   8.240   3.084  13.245
73358SOL    HW121971   8.182   3.114  13.314
73358SOL    HW221972   8.186   3.021  13.195
73359SOL     OW21973   5.367   7.286  11.624
73359SOL    HW121974   5.300   7.353  11.613
73359SOL    HW221975   5.433   7.306  11.558
73360SOL     OW21976  10.233   3.304  11.939
73360SOL    HW121977  10.269   3.228  11.893
73360SOL    HW221978  10.273   3.380  11.895
73361SOL     OW21979  13.786   7.533  14.789
73361SOL    HW121980  13.758   7.526  14.697
73361SOL    HW221981  13.881   7.541  14.783
73362SOL     OW21982   8.456   3.723  13.022
73362SOL    HW121983   8.379   3.763  13.063
73362SOL    HW221984   8.420   3.657  12.963
73363SOL     OW21985   9.524  10.821   2.804
73363SOL    HW121986   9.459  10.891   2.794
73363SOL    HW221987   9.606  10.861   2.774
73364SOL     OW21988  11.570   4.058   6.259
73364SOL    HW121989  11.493   4.020   6.216
73364SOL    HW221990  11.628   3.983   6.273
73365SOL     OW21991  11.845   0.969   5.279
73365SOL    HW121992  11.831   0.963   5.184
73365SOL    HW221993  11.908   1.040   5.290
73366SOL     OW21994   5.179   9.295   2.889
73366SOL    HW121995   5.144   9.244   2.963
73366SOL    HW221996   5.273   9.300   2.907
73367SOL     OW21997   0.230  10.504  12.119
73367SOL    HW121998   0.172  10.473  12.050
73367SOL    HW221999   0.240  10.430  12.179
73368SOL     OW22000   9.413  12.622   5.295
73368SOL    HW122001   9.453  12.618   5.208
73368SOL    HW222002   9.371  12.708   5.297
73369SOL     OW22003   2.266   1.624  12.352
73369SOL    HW122004   2.178   1.660  12.354
73369SOL    HW222005   2.277   1.585  12.439
73370SOL     OW22006  14.471   5.691   0.113
73370SOL    HW122007  14.547   5.690   0.055
73370SOL    HW222008  14.508   5.676   0.200
73371SOL     OW22009   6.888  12.824   7.118
73371SOL    HW122010   6.838  12.903   7.135
73371SOL    HW222011   6.946  12.815   7.193
73372SOL     OW22012  12.815   5.137   0.554
73372SOL    HW122013  12.903   5.102   0.544
73372SOL    HW222014  12.764   5.063   0.587
73373SOL     OW22015   8.807  11.362   7.511
73373SOL    HW122016   8.733  11.301   7.513
73373SOL    HW222017   8.775  11.441   7.553
73374SOL     OW22018   4.297   3.561   7.147
73374SOL    HW122019   4.326   3.518   7.227
73374SOL    HW222020   4.287   3.489   7.084
73375SOL     OW22021   0.482  12.730   0.955
73375SOL    HW122022   0.388  12.749   0.953
73375SOL    HW222023   0.490  12.661   1.021
73376SOL     OW22024  10.861   8.094   2.877
73376SOL    HW122025  10.949   8.075   2.912
73376SOL    HW222026  10.813   8.130   2.952
73377SOL     OW22027   4.279   5.740   7.251
73377SOL    HW122028   4.193   5.774   7.231
73377SOL    HW222029   4.340   5.804   7.215
73378SOL     OW22030   4.614  12.899   5.071
73378SOL    HW122031   4.519  12.906   5.063
73378SOL    HW222032   4.640  12.839   5.001
73379SOL     OW22033   0.509   6.035   7.262
73379SOL    HW122034   0.518   5.944   7.292
73379SOL    HW222035   0.598   6.070   7.266
73380SOL     OW22036   5.867   2.336  11.600
73380SOL    HW122037   5.912   2.416  11.626
73380SOL    HW222038   5.780   2.366  11.571
73381SOL     OW22039   9.146   7.360   6.324
73381SOL    HW122040   9.141   7.326   6.235
73381SOL    HW222041   9.219   7.312   6.364
73382SOL     OW22042   3.734   3.206   7.127
73382SOL    HW122043   3.811   3.242   7.171
73382SOL    HW222044   3.691   3.282   7.088
73383SOL     OW22045  13.933   6.694  14.271
73383SOL    HW122046  14.025   6.719  14.265
73383SOL    HW222047  13.933   6.617  14.328
73384SOL     OW22048   2.330   1.944  13.610
73384SOL    HW122049   2.293   1.992  13.684
73384SOL    HW222050   2.421   1.974  13.605
73385SOL     OW22051   4.770   4.425   4.870
73385SOL    HW122052   4.824   4.447   4.946
73385SOL    HW222053   4.710   4.358   4.901
73386SOL     OW22054   8.385  12.315  10.010
73386SOL    HW122055   8.375  12.325  10.105
73386SOL    HW222056   8.306  12.268   9.983
73387SOL     OW22057  14.530  13.079   6.278
73387SOL    HW122058  14.623  13.098   6.264
73387SOL    HW222059  14.506  13.022   6.205
73388SOL     OW22060   5.485   7.890  12.117
73388SOL    HW122061   5.420   7.822  12.098
73388SOL    HW222062   5.568   7.842  12.122
73389SOL     OW22063  11.292   0.199  13.686
73389SOL    HW122064  11.266   0.183  13.776
73389SOL    HW222065  11.210   0.220  13.640
73390SOL     OW22066   7.893   0.331   3.281
73390SOL    HW122067   7.867   0.250   3.325
73390SOL    HW222068   7.986   0.340   3.302
73391SOL     OW22069  12.734   3.847  14.409
73391SOL    HW122070  12.786   3.899  14.347
73391SOL    HW222071  12.702   3.773  14.357
73392SOL     OW22072  12.917  12.922  13.645
73392SOL    HW122073  12.834  12.947  13.603
73392SOL    HW222074  12.913  12.962  13.732
73393SOL     OW22075   1.195   9.889   3.091
73393SOL    HW122076   1.193   9.950   3.018
73393SOL    HW222077   1.131   9.821   3.067
73394SOL     OW22078   7.163   6.350  11.213
73394SOL    HW122079   7.129   6.264  11.239
73394SOL    HW222080   7.087   6.408  11.214
73395SOL     OW22081  12.654   5.796  13.494
73395SOL    HW122082  12.640   5.837  13.409
73395SOL    HW222083  12.744   5.818  13.517
73396SOL     OW22084   1.187  13.413  14.379
73396SOL    HW122085   1.108  13.453  14.342
73396SOL    HW222086   1.182  13.321  14.352
73397SOL     OW22087   3.326   2.037  12.044
73397SOL    HW122088   3.385   1.989  12.103
73397SOL    HW222089   3.338   1.994  11.959
73398SOL     OW22090  13.216  14.656   8.227
73398SOL    HW122091  13.180  14.595   8.291
73398SOL    HW222092  13.166  14.641   8.147
73399SOL     OW22093   4.222  13.157   4.078
73399SOL    HW122094   4.145  13.197   4.037
73399SOL    HW222095   4.231  13.202   4.162
73400SOL     OW22096   1.750   2.824  13.247
73400SOL    HW122097   1.748   2.796  13.338
73400SOL    HW222098   1.807   2.761  13.203
73401SOL     OW22099  12.232   5.279   9.189
73401SOL    HW122100  12.243   5.244   9.101
73401SOL    HW222101  12.179   5.214   9.235
73402SOL     OW22102  12.014   1.826   0.408
73402SOL    HW122103  11.920   1.835   0.393
73402SOL    HW222104  12.043   1.915   0.429
73403SOL     OW22105  14.074   6.818   2.246
73403SOL    HW122106  14.002   6.766   2.210
73403SOL    HW222107  14.128   6.754   2.293
73404SOL     OW22108  14.002   1.610   6.756
73404SOL    HW122109  14.019   1.516   6.745
73404SOL    HW222110  14.001   1.645   6.666
73405SOL     OW22111  13.832   1.391  12.814
73405SOL    HW122112  13.801   1.390  12.905
73405SOL    HW222113  13.767   1.444  12.768
73406SOL     OW22114  14.726   4.590   5.703
73406SOL    HW122115  14.695   4.560   5.789
73406SOL    HW222116  14.813   4.552   5.695
73407SOL     OW22117   8.218  12.472   7.543
73407SOL    HW122118   8.234  12.462   7.449
73407SOL    HW222119   8.217  12.383   7.578
73408SOL     OW22120  10.002   9.752  12.076
73408SOL    HW122121   9.964   9.810  12.009
73408SOL    HW222122   9.936   9.684  12.090
73409SOL     OW22123   8.389   0.185  14.273
73409SOL    HW122124   8.328   0.255  14.297
73409SOL    HW222125   8.345   0.138  14.203
73410SOL     OW22126  10.219  12.215   9.093
73410SOL    HW122127  10.129  12.185   9.087
73410SOL    HW222128  10.214  12.301   9.135
73411SOL     OW22129   5.305   6.184   5.787
73411SOL    HW122130   5.288   6.127   5.712
73411SOL    HW222131   5.226   6.236   5.797
73412SOL     OW22132   2.176   9.402   7.331
73412SOL    HW122133   2.118   9.345   7.281
73412SOL    HW222134   2.185   9.481   7.278
73413SOL     OW22135   7.992  14.705   0.136
73413SOL    HW122136   7.989  14.753   0.219
73413SOL    HW222137   7.901  14.678   0.121
73414SOL     OW22138   6.139  14.086   6.079
73414SOL    HW122139   6.155  13.995   6.056
73414SOL    HW222140   6.210  14.109   6.139
73415SOL     OW22141   2.192  14.546   1.766
73415SOL    HW122142   2.161  14.515   1.681
73415SOL    HW222143   2.130  14.614   1.792
73416SOL     OW22144   6.708  14.003   6.488
73416SOL    HW122145   6.713  13.957   6.573
73416SOL    HW222146   6.618  14.033   6.482
73417SOL     OW22147   6.022   0.063   5.739
73417SOL    HW122148   5.999   0.043   5.648
73417SOL    HW222149   6.065  14.863   5.770
73418SOL     OW22150   5.592   3.947   5.210
73418SOL    HW122151   5.538   3.939   5.288
73418SOL    HW222152   5.590   3.861   5.169
73419SOL     OW22153   7.616  11.649  11.752
73419SOL    HW122154   7.696  11.684  11.791
73419SOL    HW222155   7.615  11.556  11.776
73420SOL     OW22156   8.274  13.464  13.243
73420SOL    HW122157   8.276  13.450  13.338
73420SOL    HW222158   8.316  13.386  13.206
73421SOL     OW22159   1.972  11.523   0.752
73421SOL    HW122160   1.956  11.467   0.828
73421SOL    HW222161   2.067  11.528   0.745
73422SOL     OW22162   8.688  11.416   2.999
73422SOL    HW122163   8.711  11.385   3.087
73422SOL    HW222164   8.769  11.452   2.964
73423SOL     OW22165  11.114   0.741   6.499
73423SOL    HW122166  11.039   0.798   6.519
73423SOL    HW222167  11.075   0.665   6.455
73424SOL     OW22168  12.246   0.161   4.364
73424SOL    HW122169  12.274   0.232   4.306
73424SOL    HW222170  12.297   0.172   4.444
73425SOL     OW22171   5.899  10.258  14.621
73425SOL    HW122172   5.812  10.232  14.591
73425SOL    HW222173   5.899  10.354  14.616
73426SOL     OW22174   1.529   3.562  14.726
73426SOL    HW122175   1.491   3.484  14.765
73426SOL    HW222176   1.621   3.560  14.752
73427SOL     OW22177   1.860   8.831   1.831
73427SOL    HW122178   1.890   8.742   1.850
73427SOL    HW222179   1.783   8.843   1.886
73428SOL     OW22180   2.692  11.329  10.022
73428SOL    HW122181   2.779  11.334  10.061
73428SOL    HW222182   2.668  11.237  10.029
73429SOL     OW22183  12.167  10.765  10.110
73429SOL    HW122184  12.079  10.779  10.075
73429SOL    HW222185  12.211  10.711  10.044
73430SOL     OW22186  11.269   2.973   9.276
73430SOL    HW122187  11.189   2.923   9.296
73430SOL    HW222188  11.319   2.971   9.358
73431SOL     OW22189   7.599   2.653  13.385
73431SOL    HW122190   7.530   2.719  13.376
73431SOL    HW222191   7.583   2.592  13.313
73432SOL     OW22192   6.253  13.690   7.350
73432SOL    HW122193   6.270  13.600   7.321
73432SOL    HW222194   6.158  13.700   7.342
73433SOL     OW22195   8.803   9.084  12.591
73433SOL    HW122196   8.777   9.176  12.586
73433SOL    HW222197   8.896   9.085  12.612
73434SOL     OW22198  12.456  11.313  10.027
73434SOL    HW122199  12.419  11.260   9.956
73434SOL    HW222200  12.538  11.348   9.991
73435SOL     OW22201  10.970   0.653  13.313
73435SOL    HW122202  11.027   0.659  13.390
73435SOL    HW222203  11.028   0.669  13.239
73436SOL     OW22204   7.065  13.115  14.001
73436SOL    HW122205   7.039  13.023  13.996
73436SOL    HW222206   7.144  13.120  13.947
73437SOL     OW22207  10.442  13.734   1.808
73437SOL    HW122208  10.441  13.647   1.767
73437SOL    HW222209  10.491  13.789   1.746
73438SOL     OW22210   5.696   7.345  12.902
73438SOL    HW122211   5.665   7.429  12.936
73438SOL    HW222212   5.779   7.366  12.860
73439SOL     OW22213  10.921   5.715   4.114
73439SOL    HW122214  10.939   5.784   4.050
73439SOL    HW222215  10.918   5.761   4.198
73440SOL     OW22216   3.892  10.087   7.842
73440SOL    HW122217   3.868  10.001   7.880
73440SOL    HW222218   3.809  10.133   7.836
73441SOL     OW22219   0.008   8.733  13.795
73441SOL    HW122220   0.052   8.649  13.789
73441SOL    HW222221  14.831   8.736  13.718
73442SOL     OW22222  10.532   9.269   7.878
73442SOL    HW122223  10.521   9.205   7.807
73442SOL    HW222224  10.607   9.322   7.851
73443SOL     OW22225  12.366   2.896   8.820
73443SOL    HW122226  12.444   2.904   8.765
73443SOL    HW222227  12.348   2.802   8.821
73444SOL     OW22228   8.330  13.798  13.582
73444SOL    HW122229   8.391  13.753  13.523
73444SOL    HW222230   8.307  13.732  13.647
73445SOL     OW22231   2.016  11.864  10.554
73445SOL    HW122232   1.937  11.841  10.601
73445SOL    HW222233   2.086  11.857  10.618
73446SOL     OW22234   5.946   7.165  10.832
73446SOL    HW122235   5.961   7.162  10.738
73446SOL    HW222236   5.878   7.099  10.848
73447SOL     OW22237   0.179   1.524   6.834
73447SOL    HW122238   0.225   1.594   6.880
73447SOL    HW222239   0.237   1.500   6.762
73448SOL     OW22240   1.300   8.885  13.536
73448SOL    HW122241   1.258   8.901  13.620
73448SOL    HW222242   1.242   8.926  13.472
73449SOL     OW22243   7.215   6.523   3.978
73449SOL    HW122244   7.126   6.487   3.978
73449SOL    HW222245   7.260   6.474   4.046
73450SOL     OW22246   6.792   1.810   8.176
73450SOL    HW122247   6.868   1.866   8.160
73450SOL    HW222248   6.826   1.739   8.231
73451SOL     OW22249  12.698   4.352  13.277
73451SOL    HW122250  12.680   4.446  13.274
73451SOL    HW222251  12.653   4.322  13.356
73452SOL     OW22252   1.165   5.023   3.388
73452SOL    HW122253   1.253   5.040   3.356
73452SOL    HW222254   1.128   5.110   3.402
73453SOL     OW22255   0.056  12.189   8.736
73453SOL    HW122256   0.100  12.156   8.658
73453SOL    HW222257  14.843  12.181   8.716
73454SOL     OW22258   8.975   6.979   8.227
73454SOL    HW122259   8.997   7.056   8.175
73454SOL    HW222260   8.999   7.003   8.317
73455SOL     OW22261   1.752   7.998   1.557
73455SOL    HW122262   1.836   8.001   1.512
73455SOL    HW222263   1.730   8.090   1.573
73456SOL     OW22264   9.161   8.371   4.317
73456SOL    HW122265   9.212   8.418   4.383
73456SOL    HW222266   9.071   8.373   4.350
73457SOL     OW22267  13.045   7.852   1.551
73457SOL    HW122268  13.062   7.844   1.457
73457SOL    HW222269  13.105   7.789   1.591
73458SOL     OW22270   4.138   2.854   3.399
73458SOL    HW122271   4.204   2.917   3.367
73458SOL    HW222272   4.111   2.890   3.484
73459SOL     OW22273  13.203   1.351  10.836
73459SOL    HW122274  13.240   1.435  10.862
73459SOL    HW222275  13.110   1.370  10.819
73460SOL     OW22276   5.057   5.155   5.837
73460SOL    HW122277   5.092   5.102   5.909
73460SOL    HW222278   5.040   5.240   5.876
73461SOL     OW22279  14.487  11.796   1.945
73461SOL    HW122280  14.556  11.740   1.909
73461SOL    HW222281  14.442  11.740   2.009
73462SOL     OW22282   7.655  10.958   7.320
73462SOL    HW122283   7.610  10.884   7.360
73462SOL    HW222284   7.722  10.918   7.264
73463SOL     OW22285   1.328  12.010   3.365
73463SOL    HW122286   1.367  12.089   3.403
73463SOL    HW222287   1.364  12.007   3.276
73464SOL     OW22288   4.435   1.091   2.635
73464SOL    HW122289   4.504   1.130   2.581
73464SOL    HW222290   4.414   1.159   2.699
73465SOL     OW22291   1.551   4.282  12.686
73465SOL    HW122292   1.624   4.237  12.644
73465SOL    HW222293   1.555   4.371  12.653
73466SOL     OW22294   5.338   7.595   2.493
73466SOL    HW122295   5.363   7.663   2.430
73466SOL    HW222296   5.328   7.642   2.576
73467SOL     OW22297   0.779   6.732   2.703
73467SOL    HW122298   0.775   6.825   2.725
73467SOL    HW222299   0.787   6.731   2.608
73468SOL     OW22300   7.908   3.766  12.046
73468SOL    HW122301   7.991   3.771  11.999
73468SOL    HW222302   7.841   3.774  11.978
73469SOL     OW22303  13.864   8.218   5.215
73469SOL    HW122304  13.952   8.210   5.178
73469SOL    HW222305  13.806   8.216   5.138
73470SOL     OW22306  14.292   1.718   8.877
73470SOL    HW122307  14.249   1.674   8.804
73470SOL    HW222308  14.305   1.648   8.942
73471SOL     OW22309  12.832   6.177   7.754
73471SOL    HW122310  12.768   6.248   7.743
73471SOL    HW222311  12.905   6.202   7.697
73472SOL     OW22312  14.410   1.747   8.480
73472SOL    HW122313  14.387   1.739   8.572
73472SOL    HW222314  14.330   1.723   8.433
73473SOL     OW22315  10.988  10.109   5.964
73473SOL    HW122316  10.971  10.106   6.058
73473SOL    HW222317  11.062  10.169   5.954
73474SOL     OW22318  11.486   8.002   5.090
73474SOL    HW122319  11.520   7.920   5.054
73474SOL    HW222320  11.559   8.063   5.085
73475SOL     OW22321  10.004  14.847   5.686
73475SOL    HW122322  10.095  14.828   5.708
73475SOL    HW222323  10.009   0.046   5.632
73476SOL     OW22324   5.754   2.739   5.473
73476SOL    HW122325   5.764   2.653   5.433
73476SOL    HW222326   5.799   2.798   5.413
73477SOL     OW22327  13.074   4.749   7.736
73477SOL    HW122328  13.009   4.820   7.734
73477SOL    HW222329  13.058   4.699   7.656
73478SOL     OW22330   5.263  14.191  10.741
73478SOL    HW122331   5.197  14.261  10.741
73478SOL    HW222332   5.219  14.116  10.703
73479SOL     OW22333  10.248   2.137   4.923
73479SOL    HW122334  10.263   2.066   4.985
73479SOL    HW222335  10.335   2.173   4.906
73480SOL     OW22336  14.806  12.492  12.680
73480SOL    HW122337   0.005  12.539  12.655
73480SOL    HW222338  14.775  12.451  12.600
73481SOL     OW22339   4.026   5.869   4.746
73481SOL    HW122340   4.110   5.896   4.782
73481SOL    HW222341   4.027   5.900   4.655
73482SOL     OW22342  11.680   9.169   7.340
73482SOL    HW122343  11.667   9.168   7.434
73482SOL    HW222344  11.659   9.080   7.312
73483SOL     OW22345  11.821  11.739   0.837
73483SOL    HW122346  11.913  11.728   0.815
73483SOL    HW222347  11.777  11.743   0.752
73484SOL     OW22348   2.739   3.419   1.562
73484SOL    HW122349   2.822   3.466   1.568
73484SOL    HW222350   2.763   3.326   1.570
73485SOL     OW22351   9.602   5.808  14.452
73485SOL    HW122352   9.532   5.746  14.432
73485SOL    HW222353   9.599   5.872  14.381
73486SOL     OW22354   2.035   2.578   1.635
73486SOL    HW122355   2.011   2.622   1.554
73486SOL    HW222356   1.978   2.500   1.638
73487SOL     OW22357  10.607  12.612   5.138
73487SOL    HW122358  10.567  12.525   5.127
73487SOL    HW222359  10.687  12.608   5.086
73488SOL     OW22360  13.254  12.679  10.808
73488SOL    HW122361  13.191  12.611  10.785
73488SOL    HW222362  13.273  12.723  10.725
73489SOL     OW22363  10.765   4.015   8.265
73489SOL    HW122364  10.832   3.958   8.225
73489SOL    HW222365  10.802   4.103   8.257
73490SOL     OW22366  12.742   6.071   3.721
73490SOL    HW122367  12.802   6.138   3.754
73490SOL    HW222368  12.755   6.073   3.626
73491SOL     OW22369  12.059   1.708  12.352
73491SOL    HW122370  12.153   1.698  12.366
73491SOL    HW222371  12.019   1.679  12.435
73492SOL     OW22372   2.673  11.339   0.775
73492SOL    HW122373   2.648  11.252   0.744
73492SOL    HW222374   2.674  11.332   0.870
73493SOL     OW22375   4.233   8.315   8.757
73493SOL    HW122376   4.319   8.354   8.741
73493SOL    HW222377   4.241   8.225   8.724
73494SOL     OW22378   2.814  11.456   6.375
73494SOL    HW122379   2.771  11.518   6.317
73494SOL    HW222380   2.744  11.422   6.431
73495SOL     OW22381   1.412   1.002  12.641
73495SOL    HW122382   1.483   0.946  12.675
73495SOL    HW222383   1.364   0.945  12.581
73496SOL     OW22384   3.433  14.225   1.373
73496SOL    HW122385   3.489  14.279   1.318
73496SOL    HW222386   3.356  14.279   1.390
73497SOL     OW22387  13.430  12.491  12.693
73497SOL    HW122388  13.392  12.487  12.781
73497SOL    HW222389  13.516  12.452  12.703
73498SOL     OW22390  13.242  14.424   5.046
73498SOL    HW122391  13.242  14.376   5.129
73498SOL    HW222392  13.173  14.382   4.994
73499SOL     OW22393   0.283  14.701   2.760
73499SOL    HW122394   0.189  14.685   2.764
73499SOL    HW222395   0.293  14.768   2.692
73500SOL     OW22396   6.097  11.454   8.745
73500SOL    HW122397   6.040  11.380   8.769
73500SOL    HW222398   6.041  11.510   8.691
73501SOL     OW22399   1.223   4.134   3.837
73501SOL    HW122400   1.202   4.110   3.746
73501SOL    HW222401   1.137   4.145   3.879
73502SOL     OW22402   5.379   5.446  10.559
73502SOL    HW122403   5.370   5.488  10.474
73502SOL    HW222404   5.437   5.371  10.543
73503SOL     OW22405   7.860   7.638   8.466
73503SOL    HW122406   7.818   7.568   8.517
73503SOL    HW222407   7.948   7.605   8.449
73504SOL     OW22408   3.791  11.917  13.065
73504SOL    HW122409   3.857  11.906  12.997
73504SOL    HW222410   3.832  11.976  13.128
73505SOL     OW22411   3.117  12.781   5.454
73505SOL    HW122412   3.096  12.870   5.425
73505SOL    HW222413   3.057  12.725   5.403
73506SOL     OW22414   7.495   0.086   2.327
73506SOL    HW122415   7.583   0.121   2.315
73506SOL    HW222416   7.452   0.097   2.242
73507SOL     OW22417   5.183   0.686  12.390
73507SOL    HW122418   5.153   0.597  12.369
73507SOL    HW222419   5.142   0.741  12.324
73508SOL     OW22420   0.961   1.149  10.390
73508SOL    HW122421   0.975   1.059  10.361
73508SOL    HW222422   0.882   1.144  10.444
73509SOL     OW22423   2.763  14.200  11.499
73509SOL    HW122424   2.762  14.288  11.536
73509SOL    HW222425   2.796  14.211  11.410
73510SOL     OW22426   2.805   6.169   8.381
73510SOL    HW122427   2.872   6.130   8.438
73510SOL    HW222428   2.855   6.215   8.314
73511SOL     OW22429   6.402  13.115   2.001
73511SOL    HW122430   6.397  13.177   1.928
73511SOL    HW222431   6.311  13.100   2.025
73512SOL     OW22432  14.321   2.219   6.854
73512SOL    HW122433  14.414   2.197   6.860
73512SOL    HW222434  14.306   2.281   6.926
73513SOL     OW22435   8.063   4.243   3.582
73513SOL    HW122436   8.001   4.303   3.539
73513SOL    HW222437   8.034   4.156   3.554
73514SOL     OW22438  12.389   3.096  10.661
73514SOL    HW122439  12.422   3.121  10.575
73514SOL    HW222440  12.466   3.097  10.718
73515SOL     OW22441   9.746  12.883   1.952
73515SOL    HW122442   9.700  12.838   2.023
73515SOL    HW222443   9.697  12.860   1.873
73516SOL     OW22444   5.192  10.647   8.815
73516SOL    HW122445   5.119  10.600   8.856
73516SOL    HW222446   5.174  10.642   8.721
73517SOL     OW22447  12.643   3.415   8.574
73517SOL    HW122448  12.734   3.386   8.580
73517SOL    HW222449  12.638   3.490   8.633
73518SOL     OW22450   8.697  14.358   0.751
73518SOL    HW122451   8.635  14.301   0.704
73518SOL    HW222452   8.779  14.308   0.752
73519SOL     OW22453   0.680   1.624   0.900
73519SOL    HW122454   0.673   1.649   0.808
73519SOL    HW222455   0.638   1.696   0.948
73520SOL     OW22456   6.311  13.995   2.922
73520SOL    HW122457   6.217  13.999   2.941
73520SOL    HW222458   6.332  14.081   2.884
73521SOL     OW22459   2.685   7.127   0.188
73521SOL    HW122460   2.644   7.183   0.254
73521SOL    HW222461   2.673   7.038   0.220
73522SOL     OW22462  14.547   2.905   4.565
73522SOL    HW122463  14.580   2.928   4.652
73522SOL    HW222464  14.455   2.932   4.566
73523SOL     OW22465   2.151  10.535   5.691
73523SOL    HW122466   2.245  10.517   5.702
73523SOL    HW222467   2.126  10.485   5.613
73524SOL     OW22468   8.435   2.528   6.655
73524SOL    HW122469   8.357   2.481   6.626
73524SOL    HW222470   8.487   2.462   6.701
73525SOL     OW22471  10.713  11.815  11.149
73525SOL    HW122472  10.772  11.793  11.222
73525SOL    HW222473  10.626  11.792  11.181
73526SOL     OW22474   5.768   5.020   9.907
73526SOL    HW122475   5.673   5.031   9.909
73526SOL    HW222476   5.784   4.938   9.955
73527SOL     OW22477   2.833   1.005   3.776
73527SOL    HW122478   2.890   1.009   3.699
73527SOL    HW222479   2.763   1.068   3.757
73528SOL     OW22480   2.082   7.408   5.174
73528SOL    HW122481   2.060   7.430   5.084
73528SOL    HW222482   2.133   7.483   5.205
73529SOL     OW22483   3.645  10.368  14.134
73529SOL    HW122484   3.661  10.362  14.040
73529SOL    HW222485   3.587  10.443  14.145
73530SOL     OW22486   5.193   6.083   9.240
73530SOL    HW122487   5.275   6.068   9.193
73530SOL    HW222488   5.220   6.107   9.328
73531SOL     OW22489   1.747  14.034   4.734
73531SOL    HW122490   1.781  14.085   4.807
73531SOL    HW222491   1.759  13.943   4.760
73532SOL     OW22492   5.168   8.427   0.473
73532SOL    HW122493   5.087   8.466   0.504
73532SOL    HW222494   5.192   8.480   0.396
73533SOL     OW22495   1.684  14.285   3.093
73533SOL    HW122496   1.647  14.197   3.083
73533SOL    HW222497   1.677  14.325   3.006
73534SOL     OW22498   8.812  11.964   3.591
73534SOL    HW122499   8.877  12.029   3.620
73534SOL    HW222500   8.789  11.916   3.671
73535SOL     OW22501  12.738   1.015   0.086
73535SOL    HW122502  12.670   1.037   0.022
73535SOL    HW222503  12.818   1.055   0.051
73536SOL     OW22504   2.713   8.889  12.801
73536SOL    HW122505   2.715   8.888  12.897
73536SOL    HW222506   2.650   8.959  12.780
73537SOL     OW22507   7.015   9.783   6.212
73537SOL    HW122508   7.069   9.861   6.200
73537SOL    HW222509   6.928   9.817   6.229
73538SOL     OW22510   0.372   8.071   4.716
73538SOL    HW122511   0.448   8.101   4.765
73538SOL    HW222512   0.315   8.031   4.781
73539SOL     OW22513   2.055   4.555   5.931
73539SOL    HW122514   2.067   4.649   5.925
73539SOL    HW222515   1.961   4.542   5.936
73540SOL     OW22516   0.939  14.831   9.462
73540SOL    HW122517   0.980  14.775   9.396
73540SOL    HW222518   0.991   0.031   9.460
73541SOL     OW22519  13.972   4.953   9.798
73541SOL    HW122520  13.963   4.977   9.706
73541SOL    HW222521  14.044   4.890   9.799
73542SOL     OW22522  11.003   8.016   8.613
73542SOL    HW122523  10.913   7.987   8.630
73542SOL    HW222524  11.008   8.103   8.652
73543SOL     OW22525  14.792   6.930  13.783
73543SOL    HW122526  14.839   6.864  13.835
73543SOL    HW222527  14.839   7.011  13.799
73544SOL     OW22528   5.721   3.029  11.001
73544SOL    HW122529   5.684   3.091  10.938
73544SOL    HW222530   5.787   3.081  11.048
73545SOL     OW22531   7.117   9.834   7.246
73545SOL    HW122532   7.054   9.843   7.318
73545SOL    HW222533   7.123   9.740   7.230
73546SOL     OW22534   8.974   6.533   8.199
73546SOL    HW122535   9.055   6.490   8.228
73546SOL    HW222536   8.908   6.506   8.263
73547SOL     OW22537   0.380   9.361   3.321
73547SOL    HW122538   0.309   9.334   3.263
73547SOL    HW222539   0.419   9.436   3.277
73548SOL     OW22540  14.436   1.601   5.194
73548SOL    HW122541  14.357   1.559   5.160
73548SOL    HW222542  14.423   1.694   5.178
73549SOL     OW22543   5.016   5.674   9.237
73549SOL    HW122544   4.995   5.761   9.271
73549SOL    HW222545   4.931   5.635   9.216
73550SOL     OW22546   5.350   5.717  11.542
73550SOL    HW122547   5.399   5.668  11.476
73550SOL    HW222548   5.262   5.680  11.539
73551SOL     OW22549   4.243  12.984   5.806
73551SOL    HW122550   4.337  12.982   5.791
73551SOL    HW222551   4.225  12.903   5.855
73552SOL     OW22552  10.778   6.657   3.596
73552SOL    HW122553  10.720   6.702   3.534
73552SOL    HW222554  10.726   6.650   3.676
73553SOL     OW22555  11.906   3.586  14.633
73553SOL    HW122556  11.893   3.499  14.671
73553SOL    HW222557  11.830   3.637  14.663
73554SOL     OW22558   4.046   3.961   1.929
73554SOL    HW122559   4.134   3.977   1.963
73554SOL    HW222560   3.987   3.999   1.994
73555SOL     OW22561   7.266  11.841   0.837
73555SOL    HW122562   7.329  11.894   0.886
73555SOL    HW222563   7.316  11.807   0.762
73556SOL     OW22564   4.505  13.307  13.772
73556SOL    HW122565   4.417  13.341  13.756
73556SOL    HW222566   4.497  13.213  13.754
73557SOL     OW22567   1.222  12.219   4.582
73557SOL    HW122568   1.162  12.280   4.540
73557SOL    HW222569   1.168  12.145   4.608
73558SOL     OW22570   2.947  10.890  12.999
73558SOL    HW122571   2.944  10.959  13.066
73558SOL    HW222572   2.890  10.821  13.034
73559SOL     OW22573   8.187   5.915   5.282
73559SOL    HW122574   8.126   5.981   5.314
73559SOL    HW222575   8.267   5.930   5.333
73560SOL     OW22576  12.327   4.688  10.544
73560SOL    HW122577  12.418   4.669  10.520
73560SOL    HW222578  12.277   4.615  10.508
73561SOL     OW22579   7.487   8.431   1.852
73561SOL    HW122580   7.558   8.493   1.834
73561SOL    HW222581   7.508   8.395   1.938
73562SOL     OW22582  10.150  14.869   7.791
73562SOL    HW122583  10.096  14.865   7.870
73562SOL    HW222584  10.185   0.078   7.791
73563SOL     OW22585  14.464   3.380   0.829
73563SOL    HW122586  14.531   3.326   0.786
73563SOL    HW222587  14.498   3.469   0.824
73564SOL     OW22588   6.301   0.194   9.481
73564SOL    HW122589   6.397   0.193   9.472
73564SOL    HW222590   6.282   0.124   9.543
73565SOL     OW22591   6.272  14.476  11.904
73565SOL    HW122592   6.319  14.494  11.986
73565SOL    HW222593   6.225  14.395  11.921
73566SOL     OW22594  14.244   4.942  12.076
73566SOL    HW122595  14.283   5.011  12.130
73566SOL    HW222596  14.314   4.878  12.066
73567SOL     OW22597  14.584   0.076  12.471
73567SOL    HW122598  14.549  14.869  12.484
73567SOL    HW222599  14.584   0.115  12.559
73568SOL     OW22600  13.880   6.889   7.678
73568SOL    HW122601  13.926   6.961   7.722
73568SOL    HW222602  13.942   6.816   7.682
73569SOL     OW22603  10.450  10.624   1.964
73569SOL    HW122604  10.508  10.637   2.039
73569SOL    HW222605  10.508  10.596   1.893
73570SOL     OW22606   8.260   5.585  11.128
73570SOL    HW122607   8.290   5.632  11.206
73570SOL    HW222608   8.314   5.505  11.126
73571SOL     OW22609   4.690   5.380   9.011
73571SOL    HW122610   4.713   5.291   9.040
73571SOL    HW222611   4.610   5.368   8.960
73572SOL     OW22612   0.497   3.351   0.125
73572SOL    HW122613   0.510   3.444   0.107
73572SOL    HW222614   0.523   3.340   0.217
73573SOL     OW22615  14.092   1.842   7.462
73573SOL    HW122616  14.061   1.767   7.410
73573SOL    HW222617  14.142   1.802   7.533
73574SOL     OW22618   7.562   0.233   0.727
73574SOL    HW122619   7.546   0.298   0.658
73574SOL    HW222620   7.652   0.248   0.753
73575SOL     OW22621   9.800   7.967   1.189
73575SOL    HW122622   9.856   7.920   1.128
73575SOL    HW222623   9.760   8.036   1.137
73576SOL     OW22624   7.941  14.152   6.601
73576SOL    HW122625   7.881  14.127   6.671
73576SOL    HW222626   8.028  14.137   6.638
73577SOL     OW22627  11.435   7.916   2.838
73577SOL    HW122628  11.386   7.838   2.865
73577SOL    HW222629  11.510   7.881   2.789
73578SOL     OW22630   2.087   4.920   4.001
73578SOL    HW122631   2.145   4.868   3.946
73578SOL    HW222632   2.118   4.905   4.090
73579SOL     OW22633   8.140   8.892  14.198
73579SOL    HW122634   8.169   8.970  14.150
73579SOL    HW222635   8.197   8.822  14.166
73580SOL     OW22636   7.033  13.014   5.458
73580SOL    HW122637   6.999  13.018   5.547
73580SOL    HW222638   6.989  13.087   5.413
73581SOL     OW22639   9.290   8.187   1.409
73581SOL    HW122640   9.300   8.115   1.347
73581SOL    HW222641   9.281   8.145   1.494
73582SOL     OW22642   3.130  11.329   8.668
73582SOL    HW122643   3.084  11.246   8.664
73582SOL    HW222644   3.139  11.347   8.762
73583SOL     OW22645   2.597   6.104   7.982
73583SOL    HW122646   2.615   6.034   7.919
73583SOL    HW222647   2.653   6.176   7.954
73584SOL     OW22648  12.622   1.682  11.406
73584SOL    HW122649  12.561   1.676  11.332
73584SOL    HW222650  12.583   1.747  11.465
73585SOL     OW22651   8.488   8.234  11.299
73585SOL    HW122652   8.435   8.168  11.254
73585SOL    HW222653   8.505   8.197  11.385
73586SOL     OW22654   5.443  11.280   9.280
73586SOL    HW122655   5.433  11.196   9.325
73586SOL    HW222656   5.516  11.266   9.219
73587SOL     OW22657  14.012   3.337   1.845
73587SOL    HW122658  13.976   3.293   1.922
73587SOL    HW222659  14.008   3.270   1.776
73588SOL     OW22660   0.913   7.610  13.072
73588SOL    HW122661   0.944   7.662  13.146
73588SOL    HW222662   0.895   7.524  13.109
73589SOL     OW22663  13.310   5.283   6.025
73589SOL    HW122664  13.228   5.248   5.990
73589SOL    HW222665  13.376   5.259   5.960
73590SOL     OW22666   9.109  12.845   9.893
73590SOL    HW122667   9.112  12.749   9.893
73590SOL    HW222668   9.182  12.871   9.837
73591SOL     OW22669   4.323   8.044   3.829
73591SOL    HW122670   4.240   8.087   3.808
73591SOL    HW222671   4.303   7.988   3.904
73592SOL     OW22672   5.278   9.585   3.143
73592SOL    HW122673   5.353   9.626   3.186
73592SOL    HW222674   5.269   9.500   3.186
73593SOL     OW22675   1.291  13.518  10.572
73593SOL    HW122676   1.246  13.515  10.487
73593SOL    HW222677   1.257  13.443  10.619
73594SOL     OW22678   1.763   0.633  14.066
73594SOL    HW122679   1.765   0.577  13.988
73594SOL    HW222680   1.764   0.572  14.140
73595SOL     OW22681  12.585   8.981  12.617
73595SOL    HW122682  12.658   8.950  12.672
73595SOL    HW222683  12.627   9.027  12.545
73596SOL     OW22684  14.636   2.305   3.730
73596SOL    HW122685  14.660   2.378   3.674
73596SOL    HW222686  14.571   2.256   3.679
73597SOL     OW22687   4.834   7.079   0.110
73597SOL    HW122688   4.920   7.059   0.148
73597SOL    HW222689   4.781   7.106   0.186
73598SOL     OW22690   5.303   2.109   0.933
73598SOL    HW122691   5.333   2.168   1.002
73598SOL    HW222692   5.342   2.024   0.956
73599SOL     OW22693  11.910   6.048   1.692
73599SOL    HW122694  11.816   6.059   1.704
73599SOL    HW222695  11.918   5.998   1.611
73600SOL     OW22696  14.497   2.677   4.941
73600SOL    HW122697  14.566   2.738   4.969
73600SOL    HW222698  14.538   2.626   4.870
73601SOL     OW22699   5.615  13.216   8.708
73601SOL    HW122700   5.652  13.258   8.785
73601SOL    HW222701   5.584  13.288   8.654
73602SOL     OW22702   3.140   1.278   1.707
73602SOL    HW122703   3.108   1.214   1.643
73602SOL    HW222704   3.127   1.235   1.792
73603SOL     OW22705   3.017   9.988   4.781
73603SOL    HW122706   2.929   9.984   4.743
73603SOL    HW222707   3.066   9.921   4.734
73604SOL     OW22708   8.242   7.275   0.642
73604SOL    HW122709   8.244   7.180   0.628
73604SOL    HW222710   8.197   7.286   0.726
73605SOL     OW22711   5.607   3.246   9.601
73605SOL    HW122712   5.573   3.166   9.561
73605SOL    HW222713   5.573   3.245   9.690
73606SOL     OW22714  14.849   2.782   9.076
73606SOL    HW122715  14.864   2.876   9.090
73606SOL    HW222716  14.873   2.767   8.985
73607SOL     OW22717   5.852   9.171   1.475
73607SOL    HW122718   5.893   9.108   1.533
73607SOL    HW222719   5.924   9.216   1.431
73608SOL     OW22720  13.006   0.201   5.265
73608SOL    HW122721  13.093   0.236   5.246
73608SOL    HW222722  13.014   0.164   5.353
73609SOL     OW22723   5.254   5.587   8.600
73609SOL    HW122724   5.180   5.648   8.597
73609SOL    HW222725   5.331   5.643   8.602
73610SOL     OW22726   7.930   6.083   4.374
73610SOL    HW122727   7.854   6.118   4.326
73610SOL    HW222728   8.003   6.090   4.312
73611SOL     OW22729  10.272   8.914   1.706
73611SOL    HW122730  10.302   8.969   1.778
73611SOL    HW222731  10.302   8.826   1.729
73612SOL     OW22732  12.765  11.532  10.110
73612SOL    HW122733  12.723  11.541  10.195
73612SOL    HW222734  12.850  11.573  10.120
73613SOL     OW22735   4.900  11.064  11.573
73613SOL    HW122736   4.929  11.109  11.494
73613SOL    HW222737   4.979  11.054  11.625
73614SOL     OW22738   4.272   1.726   8.868
73614SOL    HW122739   4.304   1.734   8.958
73614SOL    HW222740   4.331   1.780   8.816
73615SOL     OW22741   5.213   5.892   5.093
73615SOL    HW122742   5.138   5.924   5.142
73615SOL    HW222743   5.228   5.959   5.026
73616SOL     OW22744  14.063  14.433   7.752
73616SOL    HW122745  14.137  14.474   7.797
73616SOL    HW222746  14.017  14.385   7.821
73617SOL     OW22747  10.957  10.503   9.107
73617SOL    HW122748  10.900  10.531   9.035
73617SOL    HW222749  11.045  10.501   9.068
73618SOL     OW22750  14.195   3.939   3.076
73618SOL    HW122751  14.118   3.893   3.043
73618SOL    HW222752  14.179   3.949   3.169
73619SOL     OW22753  11.476  12.711   2.613
73619SOL    HW122754  11.408  12.657   2.653
73619SOL    HW222755  11.558  12.671   2.641
73620SOL     OW22756  13.689   8.527   7.711
73620SOL    HW122757  13.702   8.485   7.626
73620SOL    HW222758  13.767   8.581   7.723
73621SOL     OW22759  14.432  10.922   7.429
73621SOL    HW122760  14.497  10.992   7.431
73621SOL    HW222761  14.474  10.849   7.474
73622SOL     OW22762   3.236  10.309   5.175
73622SOL    HW122763   3.188  10.257   5.111
73622SOL    HW222764   3.279  10.377   5.124
73623SOL     OW22765  11.218  14.175  14.346
73623SOL    HW122766  11.162  14.108  14.385
73623SOL    HW222767  11.260  14.217  14.420
73624SOL     OW22768   6.644  13.367   6.706
73624SOL    HW122769   6.568  13.375   6.764
73624SOL    HW222770   6.631  13.283   6.662
73625SOL     OW22771  11.454  10.583   1.133
73625SOL    HW122772  11.531  10.554   1.084
73625SOL    HW222773  11.455  10.678   1.124
73626SOL     OW22774   8.916   8.528  14.631
73626SOL    HW122775   8.976   8.455  14.647
73626SOL    HW222776   8.969   8.594  14.586
73627SOL     OW22777  14.742  13.490   7.629
73627SOL    HW122778  14.728  13.514   7.537
73627SOL    HW222779  14.658  13.453   7.656
73628SOL     OW22780   4.194  13.821   5.914
73628SOL    HW122781   4.224  13.751   5.856
73628SOL    HW222782   4.165  13.890   5.855
73629SOL     OW22783  10.741   8.471  12.354
73629SOL    HW122784  10.799   8.406  12.315
73629SOL    HW222785  10.727   8.536  12.285
73630SOL     OW22786   5.990   0.868   8.947
73630SOL    HW122787   6.065   0.908   8.992
73630SOL    HW222788   6.025   0.837   8.863
73631SOL     OW22789  10.809   1.742   5.476
73631SOL    HW122790  10.845   1.732   5.388
73631SOL    HW222791  10.873   1.700   5.533
73632SOL     OW22792   9.942   4.660   6.464
73632SOL    HW122793   9.851   4.687   6.454
73632SOL    HW222794   9.993   4.732   6.426
73633SOL     OW22795   1.445   8.383   7.524
73633SOL    HW122796   1.414   8.470   7.500
73633SOL    HW222797   1.528   8.373   7.477
73634SOL     OW22798  14.709  10.686   2.523
73634SOL    HW122799  14.719  10.624   2.595
73634SOL    HW222800  14.633  10.655   2.475
73635SOL     OW22801  14.051   0.831   0.253
73635SOL    HW122802  13.970   0.829   0.202
73635SOL    HW222803  14.075   0.924   0.256
73636SOL     OW22804   0.979   6.166  13.268
73636SOL    HW122805   0.991   6.234  13.334
73636SOL    HW222806   1.053   6.106  13.281
73637SOL     OW22807   2.088   8.469  10.175
73637SOL    HW122808   2.114   8.546  10.225
73637SOL    HW222809   2.159   8.457  10.111
73638SOL     OW22810   4.610   1.678  10.405
73638SOL    HW122811   4.596   1.592  10.364
73638SOL    HW222812   4.547   1.680  10.477
73639SOL     OW22813   8.058  11.445   2.791
73639SOL    HW122814   8.020  11.532   2.805
73639SOL    HW222815   8.094  11.420   2.876
73640SOL     OW22816  12.073   1.234   0.191
73640SOL    HW122817  12.114   1.280   0.265
73640SOL    HW222818  11.987   1.274   0.182
73641SOL     OW22819  10.952   7.477   5.948
73641SOL    HW122820  10.984   7.389   5.928
73641SOL    HW222821  10.876   7.488   5.891
73642SOL     OW22822  10.859   4.219   8.651
73642SOL    HW122823  10.907   4.255   8.726
73642SOL    HW222824  10.773   4.195   8.686
73643SOL     OW22825   4.300   9.456   0.310
73643SOL    HW122826   4.220   9.408   0.333
73643SOL    HW222827   4.301   9.530   0.371
73644SOL     OW22828  10.382   1.323   0.944
73644SOL    HW122829  10.382   1.285   0.856
73644SOL    HW222830  10.429   1.406   0.934
73645SOL     OW22831   2.018  13.832   2.209
73645SOL    HW122832   2.104  13.792   2.200
73645SOL    HW222833   2.036  13.926   2.208
73646SOL     OW22834   9.204   4.936   6.833
73646SOL    HW122835   9.274   4.965   6.776
73646SOL    HW222836   9.173   4.854   6.794
73647SOL     OW22837   8.225   7.017   1.214
73647SOL    HW122838   8.152   7.008   1.274
73647SOL    HW222839   8.277   7.089   1.249
73648SOL     OW22840   3.299   1.844  14.806
73648SOL    HW122841   3.386   1.848  14.768
73648SOL    HW222842   3.289   1.928  14.852
73649SOL     OW22843  10.916   7.256   6.953
73649SOL    HW122844  10.968   7.326   6.992
73649SOL    HW222845  10.854   7.301   6.895
73650SOL     OW22846   0.295  12.358   7.268
73650SOL    HW122847   0.390  12.353   7.263
73650SOL    HW222848   0.268  12.398   7.185
73651SOL     OW22849   6.216   5.271   8.286
73651SOL    HW122850   6.238   5.274   8.192
73651SOL    HW222851   6.206   5.363   8.310
73652SOL     OW22852   6.102   9.930   5.657
73652SOL    HW122853   6.098   9.927   5.562
73652SOL    HW222854   6.021   9.973   5.683
73653SOL     OW22855   5.840   6.285   8.994
73653SOL    HW122856   5.758   6.244   9.021
73653SOL    HW222857   5.813   6.356   8.936
73654SOL     OW22858  13.211  13.794   2.792
73654SOL    HW122859  13.264  13.855   2.740
73654SOL    HW222860  13.186  13.844   2.870
73655SOL     OW22861   0.301  11.234  10.988
73655SOL    HW122862   0.249  11.314  10.991
73655SOL    HW222863   0.382  11.256  11.033
73656SOL     OW22864  10.048  11.384  14.797
73656SOL    HW122865  10.131  11.361  14.756
73656SOL    HW222866  10.072  11.432  14.876
73657SOL     OW22867  12.487   7.757   0.508
73657SOL    HW122868  12.464   7.686   0.569
73657SOL    HW222869  12.578   7.776   0.527
73658SOL     OW22870  13.392   9.343  10.587
73658SOL    HW122871  13.442   9.275  10.633
73658SOL    HW222872  13.310   9.300  10.563
73659SOL     OW22873   8.647  14.250   2.974
73659SOL    HW122874   8.609  14.314   2.914
73659SOL    HW222875   8.572  14.204   3.011
73660SOL     OW22876  12.282   4.295   0.138
73660SOL    HW122877  12.334   4.368   0.105
73660SOL    HW222878  12.340   4.250   0.200
73661SOL     OW22879   0.518  14.520  11.443
73661SOL    HW122880   0.425  14.542  11.449
73661SOL    HW222881   0.538  14.474  11.524
73662SOL     OW22882  14.157  11.629   5.608
73662SOL    HW122883  14.141  11.551   5.556
73662SOL    HW222884  14.175  11.597   5.696
73663SOL     OW22885   5.137   1.122   8.351
73663SOL    HW122886   5.227   1.106   8.379
73663SOL    HW222887   5.129   1.217   8.352
73664SOL     OW22888   7.665  13.386   0.546
73664SOL    HW122889   7.754  13.400   0.578
73664SOL    HW222890   7.669  13.301   0.501
73665SOL     OW22891   1.009   1.668  12.599
73665SOL    HW122892   0.991   1.576  12.582
73665SOL    HW222893   1.051   1.670  12.685
73666SOL     OW22894  10.995  14.592   8.549
73666SOL    HW122895  11.063  14.543   8.594
73666SOL    HW222896  10.958  14.649   8.617
73667SOL     OW22897  14.832   7.672  12.134
73667SOL    HW122898  14.842   7.590  12.182
73667SOL    HW222899  14.839   7.740  12.201
73668SOL     OW22900   0.728   4.819  10.288
73668SOL    HW122901   0.796   4.886  10.291
73668SOL    HW222902   0.771   4.739  10.317
73669SOL     OW22903   3.529   6.881   1.625
73669SOL    HW122904   3.444   6.919   1.648
73669SOL    HW222905   3.589   6.955   1.629
73670SOL     OW22906  14.232  10.302   2.913
73670SOL    HW122907  14.239  10.210   2.939
73670SOL    HW222908  14.147  10.308   2.868
73671SOL     OW22909   7.068  10.042   6.130
73671SOL    HW122910   6.997  10.106   6.133
73671SOL    HW222911   7.099  10.045   6.039
73672SOL     OW22912   5.261  12.420   5.698
73672SOL    HW122913   5.260  12.515   5.685
73672SOL    HW222914   5.351  12.401   5.724
73673SOL     OW22915   4.488  14.124   0.817
73673SOL    HW122916   4.495  14.219   0.824
73673SOL    HW222917   4.577  14.092   0.826
73674SOL     OW22918   9.256  10.410   8.031
73674SOL    HW122919   9.286  10.466   7.960
73674SOL    HW222920   9.182  10.362   7.993
73675SOL     OW22921   4.937   1.072  13.261
73675SOL    HW122922   4.951   0.988  13.218
73675SOL    HW222923   4.957   1.056  13.353
73676SOL     OW22924   9.358  14.557   0.880
73676SOL    HW122925   9.447  14.554   0.847
73676SOL    HW222926   9.304  14.529   0.806
73677SOL     OW22927   9.750   4.420   3.691
73677SOL    HW122928   9.800   4.501   3.696
73677SOL    HW222929   9.811   4.352   3.721
73678SOL     OW22930   6.913  12.227  12.008
73678SOL    HW122931   6.866  12.279  11.943
73678SOL    HW222932   6.997  12.207  11.966
73679SOL     OW22933   5.345  10.395   5.327
73679SOL    HW122934   5.391  10.479   5.323
73679SOL    HW222935   5.415  10.330   5.335
73680SOL     OW22936  12.440   2.912  10.075
73680SOL    HW122937  12.414   2.827  10.112
73680SOL    HW222938  12.532   2.920  10.097
73681SOL     OW22939  12.367   7.205  13.973
73681SOL    HW122940  12.397   7.121  13.937
73681SOL    HW222941  12.435   7.228  14.037
73682SOL     OW22942   2.314   9.817  13.690
73682SOL    HW122943   2.326   9.808  13.784
73682SOL    HW222944   2.258   9.894  13.680
73683SOL     OW22945   8.747  13.594   2.486
73683SOL    HW122946   8.759  13.669   2.427
73683SOL    HW222947   8.693  13.629   2.557
73684SOL     OW22948  12.394   7.409  13.544
73684SOL    HW122949  12.448   7.443  13.616
73684SOL    HW222950  12.315   7.377  13.586
73685SOL     OW22951   9.345   7.045  14.375
73685SOL    HW122952   9.422   7.001  14.411
73685SOL    HW222953   9.304   6.979  14.318
73686SOL     OW22954   0.684   4.183   9.091
73686SOL    HW122955   0.606   4.141   9.056
73686SOL    HW222956   0.755   4.153   9.033
73687SOL     OW22957  11.290   9.105   2.755
73687SOL    HW122958  11.231   9.180   2.767
73687SOL    HW222959  11.321   9.085   2.844
73688SOL     OW22960   6.902   6.998   1.978
73688SOL    HW122961   6.906   6.956   1.892
73688SOL    HW222962   6.825   7.055   1.973
73689SOL     OW22963   9.016  14.047   5.210
73689SOL    HW122964   8.970  14.127   5.234
73689SOL    HW222965   8.958  14.004   5.147
73690SOL     OW22966  12.111  13.306   2.372
73690SOL    HW122967  12.132  13.332   2.283
73690SOL    HW222968  12.189  13.260   2.403
73691SOL     OW22969   4.592  10.287   7.038
73691SOL    HW122970   4.600  10.220   7.106
73691SOL    HW222971   4.672  10.280   6.987
73692SOL     OW22972  11.849   3.347   6.733
73692SOL    HW122973  11.802   3.421   6.695
73692SOL    HW222974  11.912   3.387   6.793
73693SOL     OW22975   2.119  14.304   7.332
73693SOL    HW122976   2.181  14.358   7.381
73693SOL    HW222977   2.168  14.274   7.256
73694SOL     OW22978  12.907  14.859   3.821
73694SOL    HW122979  12.908  14.825   3.732
73694SOL    HW222980  12.820  14.837   3.855
73695SOL     OW22981   7.814   7.030  12.103
73695SOL    HW122982   7.834   6.961  12.166
73695SOL    HW222983   7.774   6.985  12.029
73696SOL     OW22984  12.864   5.619  10.321
73696SOL    HW122985  12.928   5.551  10.299
73696SOL    HW222986  12.781   5.586  10.286
73697SOL     OW22987   6.413  12.458  13.278
73697SOL    HW122988   6.331  12.444  13.325
73697SOL    HW222989   6.461  12.376  13.285
73698SOL     OW22990  12.797  12.649   9.813
73698SOL    HW122991  12.835  12.660   9.901
73698SOL    HW222992  12.751  12.565   9.818
73699SOL     OW22993   3.391   0.666   5.421
73699SOL    HW122994   3.434   0.705   5.345
73699SOL    HW222995   3.306   0.636   5.388
73700SOL     OW22996   6.544  13.324  10.951
73700SOL    HW122997   6.456  13.295  10.976
73700SOL    HW222998   6.564  13.396  11.011
73701SOL     OW22999   5.714  11.305  13.692
73701SOL    HW123000   5.625  11.314  13.726
73701SOL    HW223001   5.768  11.289  13.770
73702SOL     OW23002   9.815   1.449   6.993
73702SOL    HW123003   9.880   1.392   7.035
73702SOL    HW223004   9.773   1.394   6.928
73703SOL     OW23005   6.569   8.861   1.756
73703SOL    HW123006   6.564   8.843   1.850
73703SOL    HW223007   6.663   8.876   1.741
73704SOL     OW23008   5.884   6.506  12.812
73704SOL    HW123009   5.876   6.525  12.718
73704SOL    HW223010   5.823   6.434  12.827
73705SOL     OW23011  13.215   9.639   2.317
73705SOL    HW123012  13.175   9.648   2.230
73705SOL    HW223013  13.169   9.565   2.357
73706SOL     OW23014   7.691   4.153  13.452
73706SOL    HW123015   7.631   4.226  13.465
73706SOL    HW223016   7.655   4.083  13.506
73707SOL     OW23017   4.534   0.191   2.990
73707SOL    HW123018   4.602   0.251   3.021
73707SOL    HW223019   4.547   0.111   3.040
73708SOL     OW23020   6.089   1.662   0.917
73708SOL    HW123021   6.029   1.721   0.871
73708SOL    HW223022   6.169   1.665   0.865
73709SOL     OW23023  12.302   8.210  10.783
73709SOL    HW123024  12.395   8.229  10.766
73709SOL    HW223025  12.300   8.185  10.875
73710SOL     OW23026  14.297   1.777  13.590
73710SOL    HW123027  14.295   1.721  13.668
73710SOL    HW223028  14.320   1.863  13.624
73711SOL     OW23029   3.767   5.978   6.277
73711SOL    HW123030   3.791   6.038   6.348
73711SOL    HW223031   3.804   6.017   6.198
73712SOL     OW23032   8.164  12.584   4.461
73712SOL    HW123033   8.210  12.660   4.426
73712SOL    HW223034   8.104  12.557   4.391
73713SOL     OW23035  10.483  13.502  10.264
73713SOL    HW123036  10.402  13.456  10.246
73713SOL    HW223037  10.515  13.465  10.346
73714SOL     OW23038   4.564  13.142   7.925
73714SOL    HW123039   4.493  13.080   7.943
73714SOL    HW223040   4.572  13.140   7.829
73715SOL     OW23041   3.145   6.591   5.675
73715SOL    HW123042   3.141   6.673   5.726
73715SOL    HW223043   3.164   6.524   5.740
73716SOL     OW23044  11.021   0.708   9.891
73716SOL    HW123045  10.997   0.792   9.930
73716SOL    HW223046  10.941   0.656   9.895
73717SOL     OW23047   5.109   2.989   7.348
73717SOL    HW123048   5.091   2.947   7.263
73717SOL    HW223049   5.060   3.071   7.345
73718SOL     OW23050   6.952   2.842  11.442
73718SOL    HW123051   7.012   2.835  11.368
73718SOL    HW223052   7.009   2.851  11.518
73719SOL     OW23053   0.739   0.066  13.702
73719SOL    HW123054   0.781   0.066  13.616
73719SOL    HW223055   0.808   0.037  13.763
73720SOL     OW23056   4.481  11.276   6.328
73720SOL    HW123057   4.485  11.371   6.313
73720SOL    HW223058   4.530  11.239   6.254
73721SOL     OW23059   0.275   2.390   9.653
73721SOL    HW123060   0.200   2.424   9.603
73721SOL    HW223061   0.344   2.379   9.589
73722SOL     OW23062   1.331   7.430   0.502
73722SOL    HW123063   1.301   7.384   0.424
73722SOL    HW223064   1.271   7.402   0.571
73723SOL     OW23065   5.057   7.866   8.875
73723SOL    HW123066   5.057   7.950   8.922
73723SOL    HW223067   5.115   7.881   8.800
73724SOL     OW23068  12.269   0.760   4.354
73724SOL    HW123069  12.295   0.761   4.446
73724SOL    HW223070  12.175   0.779   4.355
73725SOL     OW23071  14.302   6.277   4.826
73725SOL    HW123072  14.293   6.205   4.889
73725SOL    HW223073  14.394   6.301   4.830
73726SOL     OW23074  13.899   1.644  10.304
73726SOL    HW123075  13.934   1.647  10.216
73726SOL    HW223076  13.944   1.714  10.351
73727SOL     OW23077  12.183   7.626   9.958
73727SOL    HW123078  12.131   7.598  10.033
73727SOL    HW223079  12.119   7.660   9.896
73728SOL     OW23080  12.209   4.233  13.590
73728SOL    HW123081  12.238   4.304  13.649
73728SOL    HW223082  12.118   4.255  13.569
73729SOL     OW23083  14.743   2.909  11.057
73729SOL    HW123084  14.653   2.886  11.034
73729SOL    HW223085  14.787   2.920  10.973
73730SOL     OW23086  14.046   4.845   1.827
73730SOL    HW123087  14.132   4.820   1.795
73730SOL    HW223088  13.989   4.772   1.804
73731SOL     OW23089   6.814   6.547   5.280
73731SOL    HW123090   6.770   6.560   5.196
73731SOL    HW223091   6.899   6.589   5.269
73732SOL     OW23092  13.174   6.006  11.042
73732SOL    HW123093  13.220   5.926  11.065
73732SOL    HW223094  13.229   6.047  10.974
73733SOL     OW23095   8.699   8.477  14.810
73733SOL    HW123096   8.646   8.419  14.755
73733SOL    HW223097   8.787   8.472  14.773
73734SOL     OW23098   9.169  10.077   6.272
73734SOL    HW123099   9.209  10.111   6.353
73734SOL    HW223100   9.214  10.124   6.202
73735SOL     OW23101   1.581   9.852   8.966
73735SOL    HW123102   1.585   9.770   8.917
73735SOL    HW223103   1.663   9.854   9.015
73736SOL     OW23104   5.373   2.342   1.106
73736SOL    HW123105   5.340   2.410   1.047
73736SOL    HW223106   5.314   2.345   1.181
73737SOL     OW23107   2.087   3.675   7.976
73737SOL    HW123108   2.159   3.656   8.036
73737SOL    HW223109   2.062   3.765   7.996
73738SOL     OW23110  13.562   8.434  13.390
73738SOL    HW123111  13.628   8.493  13.354
73738SOL    HW223112  13.487   8.443  13.331
73739SOL     OW23113  13.414   4.725   5.474
73739SOL    HW123114  13.495   4.753   5.517
73739SOL    HW223115  13.371   4.670   5.539
73740SOL     OW23116  14.020  13.776   3.715
73740SOL    HW123117  14.033  13.697   3.663
73740SOL    HW223118  14.084  13.838   3.681
73741SOL     OW23119   3.989   6.958   2.214
73741SOL    HW123120   4.040   6.959   2.294
73741SOL    HW223121   4.049   6.923   2.147
73742SOL     OW23122   4.369   9.716  11.186
73742SOL    HW123123   4.410   9.638  11.149
73742SOL    HW223124   4.423   9.788  11.157
73743SOL     OW23125  11.735  13.383   4.149
73743SOL    HW123126  11.675  13.455   4.128
73743SOL    HW223127  11.778  13.411   4.229
73744SOL     OW23128   4.333   7.699   9.807
73744SOL    HW123129   4.328   7.603   9.807
73744SOL    HW223130   4.418   7.717   9.766
73745SOL     OW23131  11.864   3.298   4.560
73745SOL    HW123132  11.818   3.256   4.487
73745SOL    HW223133  11.802   3.362   4.594
73746SOL     OW23134  14.655   1.125  11.201
73746SOL    HW123135  14.718   1.190  11.171
73746SOL    HW223136  14.672   1.118  11.295
73747SOL     OW23137   6.513   7.709   1.570
73747SOL    HW123138   6.517   7.672   1.658
73747SOL    HW223139   6.604   7.714   1.542
73748SOL     OW23140   6.002   8.479   7.881
73748SOL    HW123141   6.082   8.505   7.835
73748SOL    HW223142   5.969   8.404   7.833
73749SOL     OW23143   8.907  12.889   8.040
73749SOL    HW123144   8.954  12.967   8.014
73749SOL    HW223145   8.968  12.841   8.096
73750SOL     OW23146  10.075  12.668   1.523
73750SOL    HW123147   9.990  12.709   1.540
73750SOL    HW223148  10.101  12.633   1.609
73751SOL     OW23149  10.174   1.991  13.365
73751SOL    HW123150  10.211   2.076  13.341
73751SOL    HW223151  10.120   1.967  13.291
73752SOL     OW23152   1.098   4.176   2.893
73752SOL    HW123153   1.078   4.268   2.875
73752SOL    HW223154   1.063   4.160   2.981
73753SOL     OW23155   6.748   3.701   4.045
73753SOL    HW123156   6.783   3.690   4.134
73753SOL    HW223157   6.782   3.786   4.017
73754SOL     OW23158   3.119   1.894   5.443
73754SOL    HW123159   3.177   1.923   5.373
73754SOL    HW223160   3.167   1.914   5.523
73755SOL     OW23161  10.215   2.495  13.197
73755SOL    HW123162  10.284   2.527  13.139
73755SOL    HW223163  10.153   2.568  13.202
73756SOL     OW23164   6.459  13.027  11.362
73756SOL    HW123165   6.464  13.121  11.378
73756SOL    HW223166   6.539  12.992  11.402
73757SOL     OW23167  12.804   6.367  10.996
73757SOL    HW123168  12.717   6.353  11.034
73757SOL    HW223169  12.845   6.281  10.998
73758SOL     OW23170  12.475   9.839  14.448
73758SOL    HW123171  12.517   9.888  14.518
73758SOL    HW223172  12.528   9.858  14.370
73759SOL     OW23173  10.408   9.735   5.724
73759SOL    HW123174  10.334   9.718   5.783
73759SOL    HW223175  10.429   9.649   5.687
73760SOL     OW23176  11.515   5.663   5.255
73760SOL    HW123177  11.515   5.635   5.347
73760SOL    HW223178  11.437   5.622   5.217
73761SOL     OW23179  14.224   2.280   5.854
73761SOL    HW123180  14.173   2.223   5.797
73761SOL    HW223181  14.284   2.222   5.899
73762SOL     OW23182   4.230   2.338   1.152
73762SOL    HW123183   4.270   2.302   1.231
73762SOL    HW223184   4.200   2.261   1.104
73763SOL     OW23185   3.698  11.345  12.802
73763SOL    HW123186   3.769  11.292  12.838
73763SOL    HW223187   3.711  11.339  12.707
73764SOL     OW23188   8.936   2.983  14.050
73764SOL    HW123189   8.961   2.954  14.137
73764SOL    HW223190   8.935   2.903  13.997
73765SOL     OW23191   1.550  11.462   6.625
73765SOL    HW123192   1.515  11.548   6.645
73765SOL    HW223193   1.637  11.479   6.588
73766SOL     OW23194  13.474   4.059  10.086
73766SOL    HW123195  13.441   4.037   9.999
73766SOL    HW223196  13.428   4.141  10.108
73767SOL     OW23197  11.918   2.069   2.239
73767SOL    HW123198  11.864   2.027   2.307
73767SOL    HW223199  11.948   2.150   2.279
73768SOL     OW23200  12.608  10.225  10.604
73768SOL    HW123201  12.615  10.133  10.631
73768SOL    HW223202  12.594  10.272  10.686
73769SOL     OW23203   3.026   7.854   5.799
73769SOL    HW123204   2.982   7.769   5.799
73769SOL    HW223205   3.070   7.859   5.884
73770SOL     OW23206   6.927   3.635   4.265
73770SOL    HW123207   6.947   3.586   4.345
73770SOL    HW223208   7.013   3.662   4.232
73771SOL     OW23209   4.410   6.166   7.220
73771SOL    HW123210   4.334   6.161   7.162
73771SOL    HW223211   4.430   6.260   7.226
73772SOL     OW23212  14.026  11.664   2.163
73772SOL    HW123213  13.986  11.716   2.093
73772SOL    HW223214  14.085  11.725   2.207
73773SOL     OW23215   6.302  11.400  10.869
73773SOL    HW123216   6.336  11.325  10.820
73773SOL    HW223217   6.376  11.462  10.873
73774SOL     OW23218   5.220   9.511   6.895
73774SOL    HW123219   5.284   9.554   6.951
73774SOL    HW223220   5.272   9.468   6.827
73775SOL     OW23221   2.720   7.897   1.135
73775SOL    HW123222   2.802   7.874   1.178
73775SOL    HW223223   2.714   7.992   1.143
73776SOL     OW23224   6.309  14.287  10.010
73776SOL    HW123225   6.261  14.252   9.935
73776SOL    HW223226   6.377  14.223  10.028
73777SOL     OW23227   2.424   8.754  10.560
73777SOL    HW123228   2.482   8.699  10.613
73777SOL    HW223229   2.368   8.798  10.623
73778SOL     OW23230   3.646  13.440  12.494
73778SOL    HW123231   3.581  13.374  12.473
73778SOL    HW223232   3.720  13.391  12.531
73779SOL     OW23233  10.839   1.508   8.298
73779SOL    HW123234  10.792   1.433   8.261
73779SOL    HW223235  10.895   1.539   8.226
73780SOL     OW23236  10.360   0.548  13.735
73780SOL    HW123237  10.299   0.497  13.681
73780SOL    HW223238  10.428   0.486  13.760
73781SOL     OW23239   7.078   1.583   8.202
73781SOL    HW123240   7.116   1.519   8.263
73781SOL    HW223241   7.086   1.667   8.247
73782SOL     OW23242   7.059   0.022   1.590
73782SOL    HW123243   7.063   0.108   1.549
73782SOL    HW223244   7.085  14.841   1.521
73783SOL     OW23245   6.024  11.610   7.447
73783SOL    HW123246   6.042  11.701   7.422
73783SOL    HW223247   6.015  11.563   7.364
73784SOL     OW23248   6.596   9.116   6.691
73784SOL    HW123249   6.667   9.155   6.640
73784SOL    HW223250   6.562   9.045   6.637
73785SOL     OW23251  12.597  11.441  10.468
73785SOL    HW123252  12.633  11.352  10.468
73785SOL    HW223253  12.502  11.429  10.466
73786SOL     OW23254   1.889   4.161  14.214
73786SOL    HW123255   1.894   4.165  14.309
73786SOL    HW223256   1.909   4.069  14.193
73787SOL     OW23257   1.959  10.287   7.149
73787SOL    HW123258   2.033  10.326   7.197
73787SOL    HW223259   1.882  10.314   7.198
73788SOL     OW23260  11.910   9.201   9.184
73788SOL    HW123261  11.967   9.167   9.253
73788SOL    HW223262  11.942   9.290   9.167
73789SOL     OW23263  13.936  12.099  10.219
73789SOL    HW123264  13.954  12.144  10.137
73789SOL    HW223265  13.849  12.060  10.206
73790SOL     OW23266   1.098   3.308   2.294
73790SOL    HW123267   1.150   3.350   2.364
73790SOL    HW223268   1.159   3.298   2.222
73791SOL     OW23269  13.664   6.811  13.851
73791SOL    HW123270  13.587   6.862  13.826
73791SOL    HW223271  13.735   6.846  13.796
73792SOL     OW23272  14.837   6.891   1.656
73792SOL    HW123273   0.027   6.918   1.597
73792SOL    HW223274  14.757   6.922   1.613
73793SOL     OW23275  14.301   1.560  12.455
73793SOL    HW123276  14.297   1.510  12.537
73793SOL    HW223277  14.257   1.643  12.476
73794SOL     OW23278   8.410  13.992   3.927
73794SOL    HW123279   8.346  13.980   3.997
73794SOL    HW223280   8.442  13.904   3.909
73795SOL     OW23281  10.656  10.779   3.612
73795SOL    HW123282  10.595  10.706   3.602
73795SOL    HW223283  10.602  10.852   3.643
73796SOL     OW23284  10.030   3.063  10.455
73796SOL    HW123285  10.072   3.063  10.541
73796SOL    HW223286  10.077   3.130  10.405
73797SOL     OW23287   2.555  11.071   0.732
73797SOL    HW123288   2.631  11.031   0.689
73797SOL    HW223289   2.559  11.039   0.822
73798SOL     OW23290   8.987   5.828   6.461
73798SOL    HW123291   9.055   5.764   6.485
73798SOL    HW223292   8.967   5.809   6.370
73799SOL     OW23293  10.309   1.591  10.798
73799SOL    HW123294  10.328   1.587  10.705
73799SOL    HW223295  10.227   1.542  10.808
73800SOL     OW23296  12.945   6.415  10.376
73800SOL    HW123297  12.929   6.347  10.310
73800SOL    HW223298  13.030   6.453  10.351
73801SOL     OW23299   6.792  14.404   4.804
73801SOL    HW123300   6.720  14.461   4.831
73801SOL    HW223301   6.867  14.432   4.857
73802SOL     OW23302   5.764  12.839  13.977
73802SOL    HW123303   5.835  12.882  14.026
73802SOL    HW223304   5.739  12.765  14.032
73803SOL     OW23305   9.062   1.682   5.912
73803SOL    HW123306   9.113   1.608   5.946
73803SOL    HW223307   9.108   1.759   5.945
73804SOL     OW23308   1.103  10.777   4.878
73804SOL    HW123309   1.137  10.740   4.796
73804SOL    HW223310   1.112  10.872   4.866
73805SOL     OW23311  12.104   9.813   5.569
73805SOL    HW123312  12.145   9.734   5.536
73805SOL    HW223313  12.161   9.843   5.640
73806SOL     OW23314   0.536  11.189   7.626
73806SOL    HW123315   0.521  11.266   7.571
73806SOL    HW223316   0.631  11.187   7.639
73807SOL     OW23317   3.555   1.212  12.086
73807SOL    HW123318   3.589   1.248  12.168
73807SOL    HW223319   3.461   1.224  12.092
73808SOL     OW23320   9.673   7.075   2.239
73808SOL    HW123321   9.721   7.064   2.157
73808SOL    HW223322   9.716   7.015   2.300
73809SOL     OW23323   2.259   5.715   7.309
73809SOL    HW123324   2.225   5.672   7.388
73809SOL    HW223325   2.211   5.797   7.304
73810SOL     OW23326  13.833  11.237  13.218
73810SOL    HW123327  13.746  11.201  13.201
73810SOL    HW223328  13.828  11.274  13.306
73811SOL     OW23329  14.072   3.059   9.786
73811SOL    HW123330  14.070   3.128   9.853
73811SOL    HW223331  14.127   3.095   9.716
73812SOL     OW23332   1.401   4.114   4.783
73812SOL    HW123333   1.476   4.124   4.724
73812SOL    HW223334   1.328   4.094   4.725
73813SOL     OW23335   9.311   6.026  13.781
73813SOL    HW123336   9.352   6.106  13.815
73813SOL    HW223337   9.384   5.970  13.756
73814SOL     OW23338   4.077   0.715   2.131
73814SOL    HW123339   4.164   0.721   2.170
73814SOL    HW223340   4.089   0.660   2.054
73815SOL     OW23341   6.912   0.864  14.237
73815SOL    HW123342   6.869   0.921  14.173
73815SOL    HW223343   6.861   0.876  14.317
73816SOL     OW23344   6.165   5.897  10.828
73816SOL    HW123345   6.073   5.880  10.808
73816SOL    HW223346   6.189   5.971  10.772
73817SOL     OW23347   4.156   1.816   4.854
73817SOL    HW123348   4.092   1.764   4.901
73817SOL    HW223349   4.112   1.900   4.839
73818SOL     OW23350   5.458   0.706   1.933
73818SOL    HW123351   5.372   0.705   1.889
73818SOL    HW223352   5.438   0.683   2.024
73819SOL     OW23353   1.837  11.427  10.470
73819SOL    HW123354   1.802  11.440  10.382
73819SOL    HW223355   1.908  11.491  10.478
73820SOL     OW23356   4.561   5.345  11.437
73820SOL    HW123357   4.620   5.394  11.380
73820SOL    HW223358   4.613   5.325  11.515
73821SOL     OW23359   0.885  12.771   0.016
73821SOL    HW123360   0.804  12.789   0.064
73821SOL    HW223361   0.940  12.726   0.080
73822SOL     OW23362  10.961   0.086   7.227
73822SOL    HW123363  10.988   0.164   7.275
73822SOL    HW223364  10.950   0.115   7.137
73823SOL     OW23365   6.588  12.355   8.945
73823SOL    HW123366   6.614  12.433   8.995
73823SOL    HW223367   6.493  12.353   8.953
73824SOL     OW23368   1.938  13.411   7.438
73824SOL    HW123369   1.936  13.324   7.479
73824SOL    HW223370   2.024  13.416   7.396
73825SOL     OW23371   3.232  13.617   7.737
73825SOL    HW123372   3.241  13.600   7.643
73825SOL    HW223373   3.323  13.627   7.767
73826SOL     OW23374  12.139   9.760   9.777
73826SOL    HW123375  12.138   9.726   9.688
73826SOL    HW223376  12.178   9.847   9.770
73827SOL     OW23377   5.560   7.971   4.454
73827SOL    HW123378   5.618   7.922   4.512
73827SOL    HW223379   5.474   7.968   4.497
73828SOL     OW23380   9.906  13.190  14.569
73828SOL    HW123381   9.929  13.206  14.661
73828SOL    HW223382   9.989  13.184  14.524
73829SOL     OW23383   5.205   1.376   9.527
73829SOL    HW123384   5.297   1.377   9.552
73829SOL    HW223385   5.205   1.352   9.434
73830SOL     OW23386   9.416  12.139   0.554
73830SOL    HW123387   9.372  12.199   0.494
73830SOL    HW223388   9.373  12.054   0.539
73831SOL     OW23389   1.773   0.779  13.444
73831SOL    HW123390   1.837   0.713  13.471
73831SOL    HW223391   1.733   0.743  13.365
73832SOL     OW23392   7.608   8.081  10.870
73832SOL    HW123393   7.527   8.031  10.863
73832SOL    HW223394   7.660   8.034  10.935
73833SOL     OW23395  12.413   4.720   4.382
73833SOL    HW123396  12.509   4.719   4.384
73833SOL    HW223397  12.390   4.645   4.328
73834SOL     OW23398   9.810   6.563   0.635
73834SOL    HW123399   9.831   6.472   0.613
73834SOL    HW223400   9.869   6.615   0.581
73835SOL     OW23401   2.504  11.937   5.525
73835SOL    HW123402   2.533  11.928   5.434
73835SOL    HW223403   2.416  11.899   5.525
73836SOL     OW23404   1.082   1.395   8.235
73836SOL    HW123405   1.109   1.321   8.290
73836SOL    HW223406   1.017   1.358   8.175
73837SOL     OW23407   5.267   2.853  14.726
73837SOL    HW123408   5.337   2.788  14.732
73837SOL    HW223409   5.187   2.804  14.741
73838SOL     OW23410   3.127   6.709  10.674
73838SOL    HW123411   3.134   6.617  10.646
73838SOL    HW223412   3.171   6.758  10.604
73839SOL     OW23413  14.421   9.457  11.354
73839SOL    HW123414  14.395   9.427  11.267
73839SOL    HW223415  14.353   9.421  11.412
73840SOL     OW23416   9.202   7.629  13.025
73840SOL    HW123417   9.129   7.682  13.058
73840SOL    HW223418   9.202   7.551  13.079
73841SOL     OW23419   9.567   7.904   0.727
73841SOL    HW123420   9.611   7.819   0.730
73841SOL    HW223421   9.532   7.910   0.638
73842SOL     OW23422   6.172   5.886   3.753
73842SOL    HW123423   6.200   5.938   3.829
73842SOL    HW223424   6.244   5.895   3.691
73843SOL     OW23425   3.186  12.112   6.945
73843SOL    HW123426   3.091  12.114   6.950
73843SOL    HW223427   3.210  12.030   6.988
73844SOL     OW23428  14.265   7.202   8.853
73844SOL    HW123429  14.226   7.135   8.909
73844SOL    HW223430  14.359   7.184   8.856
73845SOL     OW23431   5.550   4.268   2.735
73845SOL    HW123432   5.487   4.236   2.800
73845SOL    HW223433   5.635   4.249   2.772
73846SOL     OW23434  11.404   2.807  14.435
73846SOL    HW123435  11.321   2.853  14.445
73846SOL    HW223436  11.381   2.714  14.442
73847SOL     OW23437   5.086   8.125  13.283
73847SOL    HW123438   5.072   8.192  13.217
73847SOL    HW223439   5.022   8.144  13.352
73848SOL     OW23440  14.768   1.784   5.734
73848SOL    HW123441  14.750   1.853   5.670
73848SOL    HW223442  14.689   1.729   5.733
73849SOL     OW23443   0.880   7.098   2.590
73849SOL    HW123444   0.839   7.068   2.671
73849SOL    HW223445   0.918   7.183   2.612
73850SOL     OW23446   0.983   6.197   5.171
73850SOL    HW123447   1.018   6.168   5.087
73850SOL    HW223448   0.974   6.292   5.162
73851SOL     OW23449  11.135   8.507   2.061
73851SOL    HW123450  11.189   8.554   1.998
73851SOL    HW223451  11.096   8.435   2.011
73852SOL     OW23452  12.178   8.603  14.476
73852SOL    HW123453  12.253   8.571  14.426
73852SOL    HW223454  12.122   8.644  14.410
73853SOL     OW23455   4.507   8.799   5.299
73853SOL    HW123456   4.479   8.754   5.379
73853SOL    HW223457   4.578   8.857   5.327
73854SOL     OW23458  11.200  12.900  13.366
73854SOL    HW123459  11.119  12.849  13.354
73854SOL    HW223460  11.179  12.963  13.435
73855SOL     OW23461  13.279   9.349  12.867
73855SOL    HW123462  13.245   9.439  12.865
73855SOL    HW223463  13.326   9.340  12.783
73856SOL     OW23464   5.794  14.447  13.360
73856SOL    HW123465   5.788  14.505  13.437
73856SOL    HW223466   5.757  14.498  13.288
73857SOL     OW23467   0.031  13.101  10.282
73857SOL    HW123468   0.064  13.074  10.368
73857SOL    HW223469  14.817  13.080  10.285
73858SOL     OW23470   7.543   2.700   3.610
73858SOL    HW123471   7.482   2.663   3.675
73858SOL    HW223472   7.572   2.624   3.559
73859SOL     OW23473   0.044  10.933   0.846
73859SOL    HW123474   0.010  10.874   0.914
73859SOL    HW223475  14.862  11.005   0.844
73860SOL     OW23476   2.886  13.809   5.076
73860SOL    HW123477   2.831  13.732   5.056
73860SOL    HW223478   2.830  13.864   5.131
73861SOL     OW23479   6.971   4.345   9.459
73861SOL    HW123480   6.913   4.332   9.535
73861SOL    HW223481   6.949   4.433   9.428
73862SOL     OW23482  12.508  10.517  13.926
73862SOL    HW123483  12.455  10.564  13.991
73862SOL    HW223484  12.547  10.586  13.873
73863SOL     OW23485   7.238   8.332  12.092
73863SOL    HW123486   7.255   8.275  12.166
73863SOL    HW223487   7.324   8.369  12.069
73864SOL     OW23488   4.627  14.668   9.982
73864SOL    HW123489   4.549  14.704   9.940
73864SOL    HW223490   4.679  14.744  10.004
73865SOL     OW23491   8.406  11.498  10.506
73865SOL    HW123492   8.440  11.555  10.438
73865SOL    HW223493   8.459  11.518  10.583
73866SOL     OW23494  13.413   8.454   7.175
73866SOL    HW123495  13.502   8.489   7.185
73866SOL    HW223496  13.426   8.363   7.147
73867SOL     OW23497   4.953   1.739  13.743
73867SOL    HW123498   4.882   1.804  13.734
73867SOL    HW223499   5.012   1.778  13.807
73868SOL     OW23500   5.820  10.385   9.657
73868SOL    HW123501   5.804  10.294   9.681
73868SOL    HW223502   5.818  10.385   9.561
73869SOL     OW23503   5.121   4.299   7.563
73869SOL    HW123504   5.113   4.359   7.637
73869SOL    HW223505   5.180   4.231   7.594
73870SOL     OW23506   0.721  10.675   3.479
73870SOL    HW123507   0.706  10.769   3.473
73870SOL    HW223508   0.647  10.643   3.531
73871SOL     OW23509   1.493  14.423   8.746
73871SOL    HW123510   1.491  14.336   8.786
73871SOL    HW223511   1.490  14.406   8.652
73872SOL     OW23512   7.608  11.396  13.465
73872SOL    HW123513   7.529  11.403  13.411
73872SOL    HW223514   7.647  11.313  13.437
73873SOL     OW23515   6.134  14.370   2.140
73873SOL    HW123516   6.166  14.365   2.050
73873SOL    HW223517   6.050  14.415   2.134
73874SOL     OW23518  13.086  12.333   7.631
73874SOL    HW123519  13.108  12.246   7.597
73874SOL    HW223520  13.123  12.393   7.567
73875SOL     OW23521   1.194   0.782   4.216
73875SOL    HW123522   1.253   0.708   4.196
73875SOL    HW223523   1.140   0.751   4.288
73876SOL     OW23524  11.518   4.702  12.963
73876SOL    HW123525  11.468   4.681  12.884
73876SOL    HW223526  11.545   4.617  12.997
73877SOL     OW23527   2.855   2.017   9.274
73877SOL    HW123528   2.929   2.071   9.245
73877SOL    HW223529   2.830   1.967   9.196
73878SOL     OW23530   5.033   0.312   9.801
73878SOL    HW123531   5.041   0.380   9.734
73878SOL    HW223532   5.104   0.251   9.783
73879SOL     OW23533   0.698   0.037   9.281
73879SOL    HW123534   0.619   0.055   9.332
73879SOL    HW223535   0.700  14.822   9.272
73880SOL     OW23536  13.073   8.856  11.888
73880SOL    HW123537  13.035   8.817  11.966
73880SOL    HW223538  13.095   8.946  11.914
73881SOL     OW23539   5.446   1.349   2.122
73881SOL    HW123540   5.539   1.373   2.121
73881SOL    HW223541   5.409   1.397   2.196
73882SOL     OW23542   4.369  10.593   9.082
73882SOL    HW123543   4.310  10.517   9.079
73882SOL    HW223544   4.406  10.590   9.170
73883SOL     OW23545  10.201   9.663   2.264
73883SOL    HW123546  10.131   9.618   2.310
73883SOL    HW223547  10.170   9.670   2.174
73884SOL     OW23548   2.666   4.890   3.681
73884SOL    HW123549   2.688   4.884   3.588
73884SOL    HW223550   2.594   4.828   3.693
73885SOL     OW23551   4.804   9.859  13.316
73885SOL    HW123552   4.857   9.848  13.395
73885SOL    HW223553   4.833   9.790  13.258
73886SOL     OW23554   6.770  13.965   1.583
73886SOL    HW123555   6.709  13.943   1.653
73886SOL    HW223556   6.749  13.904   1.513
73887SOL     OW23557   8.344   7.431   9.383
73887SOL    HW123558   8.260   7.470   9.358
73887SOL    HW223559   8.393   7.426   9.301
73888SOL     OW23560   6.063  13.020   3.626
73888SOL    HW123561   6.114  13.090   3.585
73888SOL    HW223562   5.988  13.008   3.568
73889SOL     OW23563   2.069   9.470  10.734
73889SOL    HW123564   2.016   9.411  10.788
73889SOL    HW223565   2.021   9.553  10.735
73890SOL     OW23566   3.528   9.354  13.859
73890SOL    HW123567   3.482   9.434  13.833
73890SOL    HW223568   3.459   9.296  13.890
73891SOL     OW23569  11.060   3.435   7.500
73891SOL    HW123570  10.992   3.372   7.524
73891SOL    HW223571  11.014   3.503   7.451
73892SOL     OW23572   2.298  13.729   5.321
73892SOL    HW123573   2.280  13.689   5.406
73892SOL    HW223574   2.388  13.703   5.301
73893SOL     OW23575   2.432  10.944   8.314
73893SOL    HW123576   2.368  11.012   8.334
73893SOL    HW223577   2.457  10.961   8.223
73894SOL     OW23578   1.383   3.728  12.085
73894SOL    HW123579   1.408   3.648  12.133
73894SOL    HW223580   1.302   3.757  12.127
73895SOL     OW23581   4.272  13.676   0.201
73895SOL    HW123582   4.299  13.729   0.276
73895SOL    HW223583   4.266  13.738   0.128
73896SOL     OW23584   8.059  12.065   3.881
73896SOL    HW123585   8.096  12.041   3.796
73896SOL    HW223586   7.978  12.015   3.888
73897SOL     OW23587   3.126   9.729  13.732
73897SOL    HW123588   3.193   9.792  13.703
73897SOL    HW223589   3.100   9.760  13.818
73898SOL     OW23590   4.974   3.235   3.796
73898SOL    HW123591   4.919   3.302   3.837
73898SOL    HW223592   5.008   3.184   3.870
73899SOL     OW23593  12.622   2.861   5.107
73899SOL    HW123594  12.562   2.895   5.173
73899SOL    HW223595  12.613   2.920   5.033
73900SOL     OW23596   2.168   1.446   9.483
73900SOL    HW123597   2.242   1.503   9.505
73900SOL    HW223598   2.097   1.476   9.540
73901SOL     OW23599   2.500   5.049  10.419
73901SOL    HW123600   2.467   5.138  10.406
73901SOL    HW223601   2.421   4.994  10.417
73902SOL     OW23602   4.295   6.177  11.926
73902SOL    HW123603   4.302   6.203  11.834
73902SOL    HW223604   4.356   6.104  11.935
73903SOL     OW23605   0.179   2.461   3.797
73903SOL    HW123606   0.106   2.522   3.791
73903SOL    HW223607   0.226   2.486   3.876
73904SOL     OW23608   1.110  14.652   7.914
73904SOL    HW123609   1.120  14.576   7.972
73904SOL    HW223610   1.133  14.727   7.969
73905SOL     OW23611   8.624   0.150   0.795
73905SOL    HW123612   8.708   0.187   0.825
73905SOL    HW223613   8.634   0.056   0.806
73906SOL     OW23614  12.378   9.371   4.027
73906SOL    HW123615  12.405   9.379   4.119
73906SOL    HW223616  12.300   9.314   4.031
73907SOL     OW23617   2.038   7.779  11.867
73907SOL    HW123618   2.119   7.819  11.899
73907SOL    HW223619   2.032   7.807  11.776
73908SOL     OW23620   4.314   3.910  11.320
73908SOL    HW123621   4.291   3.826  11.280
73908SOL    HW223622   4.294   3.900  11.413
73909SOL     OW23623  11.632   5.346  12.377
73909SOL    HW123624  11.727   5.358  12.382
73909SOL    HW223625  11.621   5.270  12.319
73910SOL     OW23626   1.097   4.207  10.199
73910SOL    HW123627   1.180   4.229  10.242
73910SOL    HW223628   1.105   4.115  10.177
73911SOL     OW23629   9.161   8.536  13.221
73911SOL    HW123630   9.104   8.588  13.278
73911SOL    HW223631   9.168   8.588  13.140
73912SOL     OW23632   8.057   4.440  10.815
73912SOL    HW123633   8.101   4.368  10.860
73912SOL    HW223634   7.973   4.404  10.788
73913SOL     OW23635   6.751  11.198   1.678
73913SOL    HW123636   6.790  11.264   1.735
73913SOL    HW223637   6.811  11.124   1.682
73914SOL     OW23638   6.961   5.646   9.741
73914SOL    HW123639   6.897   5.660   9.811
73914SOL    HW223640   6.911   5.654   9.660
73915SOL     OW23641  10.654  12.414   4.629
73915SOL    HW123642  10.565  12.402   4.662
73915SOL    HW223643  10.646  12.408   4.534
73916SOL     OW23644   5.491   5.898   5.076
73916SOL    HW123645   5.398   5.877   5.076
73916SOL    HW223646   5.532   5.827   5.127
73917SOL     OW23647   5.116   4.788   6.042
73917SOL    HW123648   5.029   4.747   6.037
73917SOL    HW223649   5.175   4.722   6.006
73918SOL     OW23650   4.987   0.329  12.157
73918SOL    HW123651   4.899   0.295  12.146
73918SOL    HW223652   5.027   0.272  12.223
73919SOL     OW23653  13.983   0.603   4.159
73919SOL    HW123654  13.982   0.695   4.185
73919SOL    HW223655  13.891   0.582   4.143
73920SOL     OW23656   9.432  11.492   6.899
73920SOL    HW123657   9.374  11.470   6.972
73920SOL    HW223658   9.480  11.412   6.881
73921SOL     OW23659   0.641   8.133   3.101
73921SOL    HW123660   0.675   8.171   3.020
73921SOL    HW223661   0.551   8.166   3.108
73922SOL     OW23662   1.711  11.032   8.283
73922SOL    HW123663   1.731  11.035   8.190
73922SOL    HW223664   1.796  11.045   8.326
73923SOL     OW23665   5.679   3.325   3.925
73923SOL    HW123666   5.697   3.416   3.950
73923SOL    HW223667   5.588   3.326   3.895
73924SOL     OW23668   5.971   9.029  10.796
73924SOL    HW123669   5.948   9.064  10.882
73924SOL    HW223670   5.955   9.102  10.736
73925SOL     OW23671  14.130  14.804   6.107
73925SOL    HW123672  14.104  14.713   6.125
73925SOL    HW223673  14.184  14.799   6.028
73926SOL     OW23674   7.693   6.907  13.300
73926SOL    HW123675   7.719   6.888  13.390
73926SOL    HW223676   7.748   6.850  13.246
73927SOL     OW23677   5.178   2.819  13.846
73927SOL    HW123678   5.216   2.834  13.759
73927SOL    HW223679   5.098   2.872  13.846
73928SOL     OW23680   4.973   3.163   6.564
73928SOL    HW123681   4.939   3.079   6.594
73928SOL    HW223682   4.896   3.209   6.531
73929SOL     OW23683  13.782  12.835   4.716
73929SOL    HW123684  13.755  12.748   4.747
73929SOL    HW223685  13.858  12.819   4.661
73930SOL     OW23686   6.711  13.069   1.484
73930SOL    HW123687   6.740  13.039   1.397
73930SOL    HW223688   6.741  13.160   1.489
73931SOL     OW23689  13.952  12.309  14.159
73931SOL    HW123690  13.973  12.402  14.161
73931SOL    HW223691  14.009  12.270  14.225
73932SOL     OW23692  11.576  11.767  10.640
73932SOL    HW123693  11.531  11.850  10.622
73932SOL    HW223694  11.562  11.752  10.733
73933SOL     OW23695   9.268  10.211   6.478
73933SOL    HW123696   9.322  10.285   6.451
73933SOL    HW223697   9.255  10.224   6.572
73934SOL     OW23698  12.434   1.416  10.987
73934SOL    HW123699  12.356   1.386  11.035
73934SOL    HW223700  12.401   1.444  10.902
73935SOL     OW23701  12.144   2.082  14.686
73935SOL    HW123702  12.194   2.163  14.679
73935SOL    HW223703  12.152   2.041  14.600
73936SOL     OW23704   0.136  13.096   7.895
73936SOL    HW123705   0.104  13.140   7.816
73936SOL    HW223706   0.082  13.018   7.902
73937SOL     OW23707   4.602  13.700   4.737
73937SOL    HW123708   4.630  13.612   4.763
73937SOL    HW223709   4.625  13.756   4.811
73938SOL     OW23710   9.729  12.475   1.358
73938SOL    HW123711   9.824  12.490   1.353
73938SOL    HW223712   9.720  12.385   1.390
73939SOL     OW23713   9.264  14.327  11.768
73939SOL    HW123714   9.281  14.414  11.731
73939SOL    HW223715   9.302  14.330  11.855
73940SOL     OW23716   2.476  10.862   0.336
73940SOL    HW123717   2.396  10.857   0.389
73940SOL    HW223718   2.452  10.916   0.261
73941SOL     OW23719   5.272  11.035  14.586
73941SOL    HW123720   5.246  11.032  14.494
73941SOL    HW223721   5.361  11.000  14.587
73942SOL     OW23722   2.960   0.513   6.286
73942SOL    HW123723   2.893   0.580   6.301
73942SOL    HW223724   3.041   0.554   6.315
73943SOL     OW23725  12.115   5.927  13.192
73943SOL    HW123726  12.092   6.007  13.144
73943SOL    HW223727  12.031   5.886  13.211
73944SOL     OW23728   7.676   4.909   9.564
73944SOL    HW123729   7.668   4.947   9.476
73944SOL    HW223730   7.771   4.903   9.578
73945SOL     OW23731   8.969   0.978   5.879
73945SOL    HW123732   9.015   0.989   5.796
73945SOL    HW223733   8.970   1.065   5.919
73946SOL     OW23734   6.435   0.067   8.223
73946SOL    HW123735   6.364   0.132   8.227
73946SOL    HW223736   6.515   0.118   8.237
73947SOL     OW23737   8.680   1.319   1.129
73947SOL    HW123738   8.735   1.391   1.159
73947SOL    HW223739   8.656   1.273   1.210
73948SOL     OW23740  11.016   2.434   6.575
73948SOL    HW123741  11.014   2.387   6.658
73948SOL    HW223742  11.108   2.432   6.548
73949SOL     OW23743   3.777  11.735   3.621
73949SOL    HW123744   3.842  11.666   3.636
73949SOL    HW223745   3.826  11.817   3.632
73950SOL     OW23746   8.233   0.199   1.509
73950SOL    HW123747   8.315   0.220   1.464
73950SOL    HW223748   8.231   0.256   1.585
73951SOL     OW23749   2.041  10.656  14.804
73951SOL    HW123750   2.024  10.578  14.856
73951SOL    HW223751   1.961  10.669  14.754
73952SOL     OW23752  11.227  10.941   9.352
73952SOL    HW123753  11.304  10.994   9.334
73952SOL    HW223754  11.261  10.863   9.395
73953SOL     OW23755  11.456   2.627   1.218
73953SOL    HW123756  11.451   2.642   1.312
73953SOL    HW223757  11.500   2.542   1.209
73954SOL     OW23758  10.927  12.769   9.659
73954SOL    HW123759  11.007  12.777   9.710
73954SOL    HW223760  10.857  12.787   9.721
73955SOL     OW23761  13.017  10.447   5.900
73955SOL    HW123762  13.093  10.404   5.862
73955SOL    HW223763  12.967  10.376   5.941
73956SOL     OW23764   6.931   4.893   6.892
73956SOL    HW123765   6.947   4.805   6.928
73956SOL    HW223766   7.007   4.944   6.921
73957SOL     OW23767  10.445   7.223   3.128
73957SOL    HW123768  10.511   7.158   3.150
73957SOL    HW223769  10.400   7.241   3.210
73958SOL     OW23770   8.504   1.000   2.618
73958SOL    HW123771   8.533   1.068   2.557
73958SOL    HW223772   8.452   0.941   2.565
73959SOL     OW23773  13.961   5.895  11.483
73959SOL    HW123774  13.922   5.850  11.408
73959SOL    HW223775  13.895   5.959  11.510
73960SOL     OW23776   9.582   0.585   3.947
73960SOL    HW123777   9.576   0.644   4.023
73960SOL    HW223778   9.492   0.555   3.933
73961SOL     OW23779   7.874  14.174   3.412
73961SOL    HW123780   7.800  14.145   3.464
73961SOL    HW223781   7.836  14.204   3.330
73962SOL     OW23782   1.372   0.012   4.176
73962SOL    HW123783   1.284   0.007   4.140
73962SOL    HW223784   1.407  14.803   4.169
73963SOL     OW23785   0.015   3.897  14.443
73963SOL    HW123786  14.824   3.832  14.439
73963SOL    HW223787  14.853   3.980  14.424
73964SOL     OW23788   0.130   1.782   2.670
73964SOL    HW123789   0.217   1.769   2.708
73964SOL    HW223790   0.090   1.694   2.672
73965SOL     OW23791   7.812   0.976   1.963
73965SOL    HW123792   7.898   1.013   1.983
73965SOL    HW223793   7.826   0.924   1.883
73966SOL     OW23794  12.263   6.353   1.376
73966SOL    HW123795  12.253   6.305   1.294
73966SOL    HW223796  12.214   6.434   1.362
73967SOL     OW23797  11.268   7.385   8.060
73967SOL    HW123798  11.265   7.292   8.036
73967SOL    HW223799  11.205   7.426   8.002
73968SOL     OW23800   1.561   5.326  12.536
73968SOL    HW123801   1.602   5.395  12.587
73968SOL    HW223802   1.607   5.329  12.451
73969SOL     OW23803   9.493   3.294  12.416
73969SOL    HW123804   9.407   3.264  12.386
73969SOL    HW223805   9.474   3.369  12.472
73970SOL     OW23806   7.811  13.099   7.668
73970SOL    HW123807   7.740  13.066   7.723
73970SOL    HW223808   7.891  13.067   7.710
73971SOL     OW23809  12.607   0.937  11.974
73971SOL    HW123810  12.659   1.010  11.942
73971SOL    HW223811  12.606   0.875  11.901
73972SOL     OW23812   2.809   9.164   9.001
73972SOL    HW123813   2.860   9.151   8.921
73972SOL    HW223814   2.870   9.206   9.062
73973SOL     OW23815   5.714  14.503   6.603
73973SOL    HW123816   5.707  14.514   6.698
73973SOL    HW223817   5.739  14.412   6.591
73974SOL     OW23818   0.957  13.958   2.068
73974SOL    HW123819   0.922  14.043   2.041
73974SOL    HW223820   1.047  13.977   2.098
73975SOL     OW23821   6.205   5.463   5.948
73975SOL    HW123822   6.115   5.455   5.979
73975SOL    HW223823   6.254   5.496   6.024
73976SOL     OW23824   0.517   0.587   3.520
73976SOL    HW123825   0.462   0.591   3.598
73976SOL    HW223826   0.547   0.496   3.517
73977SOL     OW23827   2.899  11.154   4.007
73977SOL    HW123828   2.807  11.152   3.982
73977SOL    HW223829   2.910  11.237   4.053
73978SOL     OW23830  12.021   1.913   7.759
73978SOL    HW123831  12.080   1.882   7.827
73978SOL    HW223832  12.021   1.843   7.693
73979SOL     OW23833  11.055   3.266   2.407
73979SOL    HW123834  11.024   3.178   2.387
73979SOL    HW223835  10.977   3.314   2.432
73980SOL     OW23836   0.856   8.007  10.170
73980SOL    HW123837   0.807   7.941  10.219
73980SOL    HW223838   0.947   7.978  10.175
73981SOL     OW23839   0.271  14.837  10.775
73981SOL    HW123840   0.214  14.773  10.819
73981SOL    HW223841   0.359  14.801  10.784
73982SOL     OW23842   2.761  12.904  11.294
73982SOL    HW123843   2.828  12.964  11.264
73982SOL    HW223844   2.691  12.911  11.229
73983SOL     OW23845  11.917  11.155   6.502
73983SOL    HW123846  11.971  11.219   6.457
73983SOL    HW223847  11.929  11.174   6.595
73984SOL     OW23848   8.021   4.263   8.935
73984SOL    HW123849   8.026   4.344   8.986
73984SOL    HW223850   8.111   4.245   8.909
73985SOL     OW23851   6.847   3.806  10.538
73985SOL    HW123852   6.813   3.845  10.619
73985SOL    HW223853   6.798   3.724  10.529
73986SOL     OW23854   0.403   4.542   9.411
73986SOL    HW123855   0.465   4.567   9.343
73986SOL    HW223856   0.320   4.578   9.382
73987SOL     OW23857   7.321  12.167   4.066
73987SOL    HW123858   7.261  12.098   4.038
73987SOL    HW223859   7.370  12.128   4.138
73988SOL     OW23860   6.493  13.853  12.336
73988SOL    HW123861   6.542  13.895  12.265
73988SOL    HW223862   6.550  13.782  12.366
73989SOL     OW23863  10.189   9.385   1.377
73989SOL    HW123864  10.171   9.343   1.461
73989SOL    HW223865  10.200   9.477   1.398
73990SOL     OW23866  14.517   6.274   7.255
73990SOL    HW123867  14.517   6.192   7.206
73990SOL    HW223868  14.483   6.339   7.193
73991SOL     OW23869   9.721  11.174   2.749
73991SOL    HW123870   9.718  11.266   2.777
73991SOL    HW223871   9.713  11.124   2.830
73992SOL     OW23872   8.315   4.013  12.812
73992SOL    HW123873   8.249   4.038  12.877
73992SOL    HW223874   8.394   3.997  12.864
73993SOL     OW23875  11.248   5.955   9.315
73993SOL    HW123876  11.155   5.956   9.336
73993SOL    HW223877  11.279   5.869   9.344
73994SOL     OW23878   5.387   6.452   3.366
73994SOL    HW123879   5.294   6.434   3.376
73994SOL    HW223880   5.405   6.435   3.273
73995SOL     OW23881  14.655   1.578   5.031
73995SOL    HW123882  14.581   1.565   5.090
73995SOL    HW223883  14.615   1.596   4.946
73996SOL     OW23884   8.523   2.291   2.805
73996SOL    HW123885   8.485   2.204   2.794
73996SOL    HW223886   8.606   2.287   2.759
73997SOL     OW23887   6.413   9.899  13.952
73997SOL    HW123888   6.444   9.973  14.006
73997SOL    HW223889   6.479   9.890  13.884
73998SOL     OW23890   5.713  12.420   4.404
73998SOL    HW123891   5.726  12.336   4.360
73998SOL    HW223892   5.745  12.485   4.342
73999SOL     OW23893   8.399   6.767   7.703
73999SOL    HW123894   8.453   6.823   7.759
73999SOL    HW223895   8.426   6.678   7.725
74000SOL     OW23896   9.348   7.647  13.975
74000SOL    HW123897   9.300   7.658  13.893
74000SOL    HW223898   9.414   7.716  13.973
74001SOL     OW23899   2.155   4.185  12.950
74001SOL    HW123900   2.080   4.193  13.009
74001SOL    HW223901   2.228   4.160  13.008
74002SOL     OW23902  12.303  10.969  14.156
74002SOL    HW123903  12.209  10.955  14.168
74002SOL    HW223904  12.315  11.063  14.166
74003SOL     OW23905   7.486   7.518   9.352
74003SOL    HW123906   7.517   7.460   9.422
74003SOL    HW223907   7.546   7.592   9.354
74004SOL     OW23908   4.046   6.853   4.304
74004SOL    HW123909   4.021   6.943   4.283
74004SOL    HW223910   4.115   6.863   4.370
74005SOL     OW23911  13.140   8.281   1.274
74005SOL    HW123912  13.195   8.332   1.214
74005SOL    HW223913  13.064   8.258   1.221
74006SOL     OW23914  10.983   4.524  12.519
74006SOL    HW123915  11.003   4.528  12.613
74006SOL    HW223916  11.005   4.611  12.486
74007SOL     OW23917   1.552   8.979  14.187
74007SOL    HW123918   1.590   9.062  14.217
74007SOL    HW223919   1.565   8.919  14.260
74008SOL     OW23920  13.122  11.327   2.019
74008SOL    HW123921  13.126  11.255   2.081
74008SOL    HW223922  13.148  11.405   2.069
74009SOL     OW23923   1.560  12.265   6.541
74009SOL    HW123924   1.589  12.193   6.486
74009SOL    HW223925   1.479  12.235   6.581
74010SOL     OW23926   6.033   9.107   2.150
74010SOL    HW123927   5.963   9.143   2.205
74010SOL    HW223928   6.013   9.013   2.144
74011SOL     OW23929  10.840   2.111  13.136
74011SOL    HW123930  10.845   2.154  13.221
74011SOL    HW223931  10.931   2.094  13.113
74012SOL     OW23932   9.666  13.613   0.415
74012SOL    HW123933   9.622  13.696   0.433
74012SOL    HW223934   9.595  13.550   0.404
74013SOL     OW23935  14.751  10.268   5.934
74013SOL    HW123936  14.696  10.203   5.977
74013SOL    HW223937  14.819  10.288   5.999
74014SOL     OW23938   6.493   3.335  10.846
74014SOL    HW123939   6.427   3.351  10.778
74014SOL    HW223940   6.484   3.241  10.865
74015SOL     OW23941   2.239  11.359  13.790
74015SOL    HW123942   2.315  11.301  13.800
74015SOL    HW223943   2.210  11.345  13.700
74016SOL     OW23944   5.666  11.218   1.227
74016SOL    HW123945   5.683  11.189   1.137
74016SOL    HW223946   5.690  11.143   1.281
74017SOL     OW23947  10.394  11.882   6.879
74017SOL    HW123948  10.410  11.835   6.797
74017SOL    HW223949  10.301  11.903   6.877
74018SOL     OW23950  14.616  11.537   8.557
74018SOL    HW123951  14.601  11.458   8.504
74018SOL    HW223952  14.573  11.518   8.640
74019SOL     OW23953   3.594  12.918   8.738
74019SOL    HW123954   3.555  12.846   8.788
74019SOL    HW223955   3.519  12.962   8.698
74020SOL     OW23956   1.489  12.079   2.295
74020SOL    HW123957   1.406  12.102   2.337
74020SOL    HW223958   1.498  12.142   2.224
74021SOL     OW23959  13.716   0.160   1.947
74021SOL    HW123960  13.783   0.203   1.894
74021SOL    HW223961  13.693   0.224   2.014
74022SOL     OW23962   6.747   1.246   3.016
74022SOL    HW123963   6.760   1.338   2.996
74022SOL    HW223964   6.670   1.220   2.964
74023SOL     OW23965   6.246   3.892  11.986
74023SOL    HW123966   6.286   3.811  11.954
74023SOL    HW223967   6.282   3.961  11.930
74024SOL     OW23968   6.428  13.632  11.371
74024SOL    HW123969   6.382  13.551  11.395
74024SOL    HW223970   6.359  13.697  11.362
74025SOL     OW23971   9.665   3.478   3.178
74025SOL    HW123972   9.689   3.431   3.098
74025SOL    HW223973   9.617   3.554   3.148
74026SOL     OW23974   4.898   8.894  13.629
74026SOL    HW123975   4.853   8.854  13.554
74026SOL    HW223976   4.973   8.939  13.590
74027SOL     OW23977   2.534   2.308   3.666
74027SOL    HW123978   2.473   2.380   3.651
74027SOL    HW223979   2.589   2.307   3.587
74028SOL     OW23980  12.146  11.767  13.047
74028SOL    HW123981  12.073  11.780  13.108
74028SOL    HW223982  12.178  11.855  13.029
74029SOL     OW23983   2.973   4.173  11.559
74029SOL    HW123984   2.950   4.139  11.646
74029SOL    HW223985   3.032   4.247  11.577
74030SOL     OW23986  12.131   0.552  13.744
74030SOL    HW123987  12.143   0.514  13.657
74030SOL    HW223988  12.041   0.587  13.742
74031SOL     OW23989   6.510   5.650   2.314
74031SOL    HW123990   6.425   5.674   2.351
74031SOL    HW223991   6.531   5.722   2.254
74032SOL     OW23992   3.620  10.516   6.997
74032SOL    HW123993   3.692  10.465   6.959
74032SOL    HW223994   3.629  10.503   7.092
74033SOL     OW23995   6.829  13.069   5.247
74033SOL    HW123996   6.913  13.078   5.203
74033SOL    HW223997   6.828  13.140   5.311
74034SOL     OW23998   9.390  12.909   2.313
74034SOL    HW123999   9.429  12.873   2.234
74034SOL    HW224000   9.418  12.849   2.383
74035SOL     OW24001   5.302   4.599   9.713
74035SOL    HW124002   5.258   4.648   9.782
74035SOL    HW224003   5.323   4.665   9.647
74036SOL     OW24004   8.893   1.826   8.358
74036SOL    HW124005   8.912   1.816   8.265
74036SOL    HW224006   8.968   1.873   8.394
74037SOL     OW24007   6.101   7.481   7.931
74037SOL    HW124008   6.156   7.494   7.853
74037SOL    HW224009   6.142   7.533   7.999
74038SOL     OW24010  14.272   5.929  12.855
74038SOL    HW124011  14.293   5.918  12.948
74038SOL    HW224012  14.273   6.024  12.842
74039SOL     OW24013   1.618  10.263   5.559
74039SOL    HW124014   1.607  10.168   5.566
74039SOL    HW224015   1.672  10.287   5.634
74040SOL     OW24016  10.519   4.788   3.043
74040SOL    HW124017  10.562   4.781   2.957
74040SOL    HW224018  10.521   4.882   3.062
74041SOL     OW24019   7.876  13.656   2.287
74041SOL    HW124020   7.854  13.576   2.334
74041SOL    HW224021   7.972  13.659   2.288
74042SOL     OW24022   7.455  13.310   5.297
74042SOL    HW124023   7.450  13.249   5.370
74042SOL    HW224024   7.521  13.375   5.323
74043SOL     OW24025  12.872   4.735  13.480
74043SOL    HW124026  12.853   4.808  13.422
74043SOL    HW224027  12.876   4.773  13.568
74044SOL     OW24028  12.553   9.872   4.844
74044SOL    HW124029  12.601   9.939   4.795
74044SOL    HW224030  12.596   9.870   4.929
74045SOL     OW24031   2.768   3.941   3.358
74045SOL    HW124032   2.799   3.852   3.378
74045SOL    HW224033   2.700   3.928   3.291
74046SOL     OW24034   4.070   7.465   9.287
74046SOL    HW124035   3.994   7.406   9.291
74046SOL    HW224036   4.138   7.413   9.244
74047SOL     OW24037   0.097   3.618   4.205
74047SOL    HW124038   0.180   3.657   4.235
74047SOL    HW224039   0.095   3.637   4.111
74048SOL     OW24040   6.118   9.586   7.350
74048SOL    HW124041   6.194   9.609   7.403
74048SOL    HW224042   6.045   9.586   7.412
74049SOL     OW24043  13.488   3.160  14.240
74049SOL    HW124044  13.466   3.125  14.327
74049SOL    HW224045  13.520   3.249  14.258
74050SOL     OW24046  11.591   1.932  13.249
74050SOL    HW124047  11.606   1.838  13.234
74050SOL    HW224048  11.587   1.970  13.162
74051SOL     OW24049  11.625   2.805   4.596
74051SOL    HW124050  11.546   2.805   4.542
74051SOL    HW224051  11.595   2.832   4.682
74052SOL     OW24052   2.332  14.759   3.678
74052SOL    HW124053   2.424  14.770   3.655
74052SOL    HW224054   2.332  14.687   3.742
74053SOL     OW24055  12.062   1.556  14.849
74053SOL    HW124056  11.996   1.612   0.010
74053SOL    HW224057  12.106   1.513   0.042
74054SOL     OW24058   7.935   9.932   2.201
74054SOL    HW124059   7.964   9.971   2.118
74054SOL    HW224060   7.852   9.975   2.220
74055SOL     OW24061   5.713   9.410   4.142
74055SOL    HW124062   5.657   9.431   4.217
74055SOL    HW224063   5.677   9.329   4.106
74056SOL     OW24064   2.327   1.739   1.133
74056SOL    HW124065   2.401   1.756   1.074
74056SOL    HW224066   2.328   1.813   1.194
74057SOL     OW24067  13.514   1.781  13.259
74057SOL    HW124068  13.535   1.713  13.324
74057SOL    HW224069  13.559   1.859  13.292
74058SOL     OW24070  14.005   6.076  14.552
74058SOL    HW124071  14.014   5.981  14.553
74058SOL    HW224072  13.942   6.094  14.482
74059SOL     OW24073  13.866   9.553   2.776
74059SOL    HW124074  13.857   9.472   2.826
74059SOL    HW224075  13.787   9.557   2.722
74060SOL     OW24076  12.017  14.067   2.334
74060SOL    HW124077  12.065  14.035   2.257
74060SOL    HW224078  11.963  13.993   2.361
74061SOL     OW24079   1.087  12.892   4.073
74061SOL    HW124080   1.048  12.863   3.991
74061SOL    HW224081   1.046  12.977   4.090
74062SOL     OW24082   6.727   8.849   3.864
74062SOL    HW124083   6.674   8.815   3.936
74062SOL    HW224084   6.795   8.783   3.851
74063SOL     OW24085   3.693   4.264   9.863
74063SOL    HW124086   3.737   4.348   9.854
74063SOL    HW224087   3.655   4.248   9.776
74064SOL     OW24088  11.097  14.276   4.901
74064SOL    HW124089  11.049  14.305   4.979
74064SOL    HW224090  11.133  14.191   4.926
74065SOL     OW24091  11.741  13.142  10.398
74065SOL    HW124092  11.772  13.065  10.350
74065SOL    HW224093  11.764  13.216  10.341
74066SOL     OW24094  11.806   6.992   6.293
74066SOL    HW124095  11.785   6.899   6.288
74066SOL    HW224096  11.770   7.020   6.377
74067SOL     OW24097  14.601  12.257   9.074
74067SOL    HW124098  14.690  12.292   9.082
74067SOL    HW224099  14.600  12.214   8.989
74068SOL     OW24100   0.704   6.625   8.005
74068SOL    HW124101   0.687   6.591   7.917
74068SOL    HW224102   0.766   6.697   7.991
74069SOL     OW24103  11.986   4.869  14.729
74069SOL    HW124104  12.044   4.858  14.653
74069SOL    HW224105  12.034   4.829  14.801
74070SOL     OW24106   2.265  10.296   2.212
74070SOL    HW124107   2.225  10.230   2.155
74070SOL    HW224108   2.194  10.325   2.269
74071SOL     OW24109  12.153   4.620  12.549
74071SOL    HW124110  12.206   4.552  12.507
74071SOL    HW224111  12.150   4.691  12.485
74072SOL     OW24112  13.323  12.067   5.927
74072SOL    HW124113  13.353  12.075   6.017
74072SOL    HW224114  13.399  12.031   5.880
74073SOL     OW24115  12.214   5.870   2.551
74073SOL    HW124116  12.250   5.789   2.516
74073SOL    HW224117  12.172   5.844   2.633
74074SOL     OW24118  13.417   4.755   0.487
74074SOL    HW124119  13.412   4.721   0.576
74074SOL    HW224120  13.467   4.836   0.495
74075SOL     OW24121   9.702   9.364   8.316
74075SOL    HW124122   9.771   9.414   8.361
74075SOL    HW224123   9.621   9.393   8.358
74076SOL     OW24124   8.633   4.132   5.303
74076SOL    HW124125   8.639   4.212   5.251
74076SOL    HW224126   8.569   4.152   5.372
74077SOL     OW24127   7.676   8.704   8.618
74077SOL    HW124128   7.767   8.679   8.604
74077SOL    HW224129   7.626   8.652   8.555
74078SOL     OW24130   3.178   3.355   4.882
74078SOL    HW124131   3.168   3.379   4.974
74078SOL    HW224132   3.252   3.295   4.880
74079SOL     OW24133  14.284   4.068   0.833
74079SOL    HW124134  14.268   3.995   0.773
74079SOL    HW224135  14.353   4.119   0.791
74080SOL     OW24136  10.556   6.902  12.677
74080SOL    HW124137  10.490   6.937  12.617
74080SOL    HW224138  10.517   6.911  12.764
74081SOL     OW24139   6.735  11.930  14.131
74081SOL    HW124140   6.718  12.017  14.169
74081SOL    HW224141   6.819  11.903  14.169
74082SOL     OW24142   3.898  11.624  10.926
74082SOL    HW124143   3.944  11.702  10.896
74082SOL    HW224144   3.824  11.658  10.977
74083SOL     OW24145  10.223   6.255  10.214
74083SOL    HW124146  10.223   6.252  10.118
74083SOL    HW224147  10.315   6.270  10.238
74084SOL     OW24148  13.125  12.071   4.932
74084SOL    HW124149  13.054  12.033   4.882
74084SOL    HW224150  13.202  12.063   4.875
74085SOL     OW24151   7.396   7.301   5.157
74085SOL    HW124152   7.482   7.311   5.197
74085SOL    HW224153   7.391   7.208   5.134
74086SOL     OW24154  12.753   7.852   0.563
74086SOL    HW124155  12.739   7.943   0.536
74086SOL    HW224156  12.822   7.820   0.506
74087SOL     OW24157  13.042   9.909   9.026
74087SOL    HW124158  13.028  10.003   9.029
74087SOL    HW224159  13.137   9.898   9.032
74088SOL     OW24160   0.246  10.030   0.308
74088SOL    HW124161   0.216  10.055   0.220
74088SOL    HW224162   0.331  10.074   0.317
74089SOL     OW24163   4.013   9.823  12.259
74089SOL    HW124164   4.029   9.823  12.354
74089SOL    HW224165   3.929   9.868  12.249
74090SOL     OW24166   4.592   5.308   8.528
74090SOL    HW124167   4.509   5.355   8.537
74090SOL    HW224168   4.657   5.364   8.571
74091SOL     OW24169  13.138   2.915   3.205
74091SOL    HW124170  13.090   2.955   3.277
74091SOL    HW224171  13.070   2.890   3.142
74092SOL     OW24172   7.071   2.738   2.676
74092SOL    HW124173   7.117   2.788   2.608
74092SOL    HW224174   7.033   2.663   2.629
74093SOL     OW24175   4.053   4.391   2.590
74093SOL    HW124176   4.132   4.373   2.538
74093SOL    HW224177   4.086   4.406   2.679
74094SOL     OW24178   7.125   9.900  14.427
74094SOL    HW124179   7.187   9.832  14.452
74094SOL    HW224180   7.158   9.979  14.470
74095SOL     OW24181   3.011  14.090  13.441
74095SOL    HW124182   2.919  14.065  13.438
74095SOL    HW224183   3.016  14.171  13.390
74096SOL     OW24184   3.008   8.679   6.255
74096SOL    HW124185   3.020   8.727   6.173
74096SOL    HW224186   2.950   8.735   6.307
74097SOL     OW24187  12.956  13.262   5.276
74097SOL    HW124188  13.036  13.306   5.302
74097SOL    HW224189  12.913  13.322   5.215
74098SOL     OW24190   7.109   5.104   5.567
74098SOL    HW124191   7.097   5.141   5.479
74098SOL    HW224192   7.196   5.063   5.564
74099SOL     OW24193  14.005   6.252   9.725
74099SOL    HW124194  14.024   6.300   9.644
74099SOL    HW224195  14.018   6.160   9.702
74100SOL     OW24196  14.385   1.722   9.557
74100SOL    HW124197  14.389   1.640   9.606
74100SOL    HW224198  14.435   1.705   9.477
74101SOL     OW24199   1.497   3.795  10.355
74101SOL    HW124200   1.480   3.740  10.279
74101SOL    HW224201   1.458   3.879  10.333
74102SOL     OW24202   6.288   9.691   2.158
74102SOL    HW124203   6.358   9.730   2.210
74102SOL    HW224204   6.330   9.619   2.111
74103SOL     OW24205  10.190   4.599  10.994
74103SOL    HW124206  10.106   4.645  10.996
74103SOL    HW224207  10.167   4.506  10.989
74104SOL     OW24208   5.028   5.695   6.339
74104SOL    HW124209   5.094   5.630   6.314
74104SOL    HW224210   5.078   5.765   6.381
74105SOL     OW24211  11.601  13.369   3.200
74105SOL    HW124212  11.654  13.353   3.123
74105SOL    HW224213  11.620  13.295   3.258
74106SOL     OW24214  14.629   0.300   7.130
74106SOL    HW124215  14.654   0.210   7.154
74106SOL    HW224216  14.693   0.355   7.173
74107SOL     OW24217   3.790   2.853   4.909
74107SOL    HW124218   3.714   2.812   4.868
74107SOL    HW224219   3.755   2.891   4.990
74108SOL     OW24220  12.368  13.735  14.211
74108SOL    HW124221  12.310  13.665  14.181
74108SOL    HW224222  12.365  13.800  14.140
74109SOL     OW24223   1.450  10.967   5.207
74109SOL    HW124224   1.432  10.960   5.114
74109SOL    HW224225   1.435  10.878   5.241
74110SOL     OW24226   5.383   3.839   3.071
74110SOL    HW124227   5.345   3.875   3.151
74110SOL    HW224228   5.315   3.848   3.005
74111SOL     OW24229   1.191   7.919   0.783
74111SOL    HW124230   1.132   7.978   0.831
74111SOL    HW224231   1.177   7.834   0.825
74112SOL     OW24232  10.736   7.828   7.892
74112SOL    HW124233  10.704   7.904   7.842
74112SOL    HW224234  10.823   7.811   7.857
74113SOL     OW24235   7.280   6.125   6.306
74113SOL    HW124236   7.334   6.195   6.344
74113SOL    HW224237   7.226   6.094   6.378
74114SOL     OW24238   8.950   6.832   0.739
74114SOL    HW124239   8.889   6.759   0.728
74114SOL    HW224240   9.004   6.807   0.814
74115SOL     OW24241   9.098   3.934   2.421
74115SOL    HW124242   9.143   3.894   2.496
74115SOL    HW224243   9.051   4.009   2.459
74116SOL     OW24244   1.161  14.596   9.987
74116SOL    HW124245   1.084  14.650   9.966
74116SOL    HW224246   1.125  14.511  10.012
74117SOL     OW24247  13.279   3.546  14.538
74117SOL    HW124248  13.233   3.617  14.493
74117SOL    HW224249  13.318   3.494  14.467
74118SOL     OW24250   3.125  13.519   2.476
74118SOL    HW124251   3.210  13.481   2.452
74118SOL    HW224252   3.104  13.579   2.404
74119SOL     OW24253   2.329   3.956   2.006
74119SOL    HW124254   2.356   3.866   2.023
74119SOL    HW224255   2.244   3.948   1.962
74120SOL     OW24256   0.498   8.745   9.652
74120SOL    HW124257   0.430   8.775   9.712
74120SOL    HW224258   0.482   8.792   9.571
74121SOL     OW24259  11.603   4.515  12.026
74121SOL    HW124260  11.511   4.500  12.008
74121SOL    HW224261  11.645   4.431  12.011
74122SOL     OW24262  12.923   0.416  13.856
74122SOL    HW124263  12.901   0.461  13.937
74122SOL    HW224264  13.014   0.389  13.866
74123SOL     OW24265  13.041  13.023   5.231
74123SOL    HW124266  13.011  13.111   5.253
74123SOL    HW224267  12.973  12.965   5.266
74124SOL     OW24268   8.616   7.747   7.471
74124SOL    HW124269   8.559   7.774   7.398
74124SOL    HW224270   8.637   7.656   7.452
74125SOL     OW24271   9.811   5.361  12.046
74125SOL    HW124272   9.903   5.338  12.058
74125SOL    HW224273   9.812   5.454  12.022
74126SOL     OW24274  13.851   1.080   1.751
74126SOL    HW124275  13.775   1.025   1.733
74126SOL    HW224276  13.904   1.029   1.813
74127SOL     OW24277   5.837   1.050   1.081
74127SOL    HW124278   5.851   1.008   1.166
74127SOL    HW224279   5.807   1.138   1.103
74128SOL     OW24280  14.493   3.826   9.724
74128SOL    HW124281  14.496   3.732   9.743
74128SOL    HW224282  14.504   3.868   9.809
74129SOL     OW24283   4.137   8.121   7.993
74129SOL    HW124284   4.100   8.036   7.969
74129SOL    HW224285   4.212   8.133   7.936
74130SOL     OW24286   8.352  12.907   8.365
74130SOL    HW124287   8.309  12.855   8.433
74130SOL    HW224288   8.288  12.911   8.294
74131SOL     OW24289   5.331   8.044  12.274
74131SOL    HW124290   5.313   8.129  12.233
74131SOL    HW224291   5.381   7.996  12.208
74132SOL     OW24292   3.401  13.984   5.381
74132SOL    HW124293   3.423  13.988   5.474
74132SOL    HW224294   3.327  13.923   5.376
74133SOL     OW24295   0.331   5.159  10.087
74133SOL    HW124296   0.321   5.214  10.009
74133SOL    HW224297   0.392   5.090  10.059
74134SOL     OW24298  14.703  13.519   5.635
74134SOL    HW124299  14.744  13.476   5.710
74134SOL    HW224300  14.612  13.490   5.638
74135SOL     OW24301  13.196   1.408   7.990
74135SOL    HW124302  13.141   1.457   7.930
74135SOL    HW224303  13.241   1.344   7.935
74136SOL     OW24304  10.477  11.040   8.450
74136SOL    HW124305  10.544  11.066   8.387
74136SOL    HW224306  10.513  11.062   8.535
74137SOL     OW24307  14.696   3.032  11.296
74137SOL    HW124308  14.742   2.973  11.236
74137SOL    HW224309  14.698   3.117  11.252
74138SOL     OW24310  14.572  11.428   5.034
74138SOL    HW124311  14.550  11.412   4.942
74138SOL    HW224312  14.668  11.433   5.035
74139SOL     OW24313   0.215  11.023  11.291
74139SOL    HW124314   0.123  11.049  11.282
74139SOL    HW224315   0.256  11.096  11.338
74140SOL     OW24316  10.306  12.053   8.200
74140SOL    HW124317  10.249  12.034   8.125
74140SOL    HW224318  10.309  11.971   8.249
74141SOL     OW24319   8.394  10.482  10.634
74141SOL    HW124320   8.472  10.519  10.593
74141SOL    HW224321   8.422  10.455  10.721
74142SOL     OW24322  12.189   5.073  13.361
74142SOL    HW124323  12.230   5.026  13.288
74142SOL    HW224324  12.102   5.096  13.328
74143SOL     OW24325   1.543  13.771  14.746
74143SOL    HW124326   1.514  13.833  14.813
74143SOL    HW224327   1.485  13.696  14.755
74144SOL     OW24328  12.452  14.103   4.245
74144SOL    HW124329  12.477  14.098   4.152
74144SOL    HW224330  12.371  14.152   4.245
74145SOL     OW24331   7.323   5.045   6.073
74145SOL    HW124332   7.328   5.138   6.049
74145SOL    HW224333   7.353   4.999   5.995
74146SOL     OW24334   5.904   7.661  12.203
74146SOL    HW124335   5.972   7.614  12.252
74146SOL    HW224336   5.837   7.595  12.185
74147SOL     OW24337  12.310   2.209   2.144
74147SOL    HW124338  12.397   2.246   2.132
74147SOL    HW224339  12.272   2.259   2.216
74148SOL     OW24340   1.418   6.954   3.667
74148SOL    HW124341   1.376   7.036   3.696
74148SOL    HW224342   1.371   6.885   3.714
74149SOL     OW24343   2.363   4.164   7.953
74149SOL    HW124344   2.415   4.106   7.898
74149SOL    HW224345   2.343   4.111   8.031
74150SOL     OW24346   3.219  14.004   4.152
74150SOL    HW124347   3.219  14.081   4.210
74150SOL    HW224348   3.137  13.958   4.173
74151SOL     OW24349   5.852  12.208  14.118
74151SOL    HW124350   5.898  12.176  14.196
74151SOL    HW224351   5.768  12.161  14.119
74152SOL     OW24352   1.021  12.606   4.989
74152SOL    HW124353   1.113  12.583   4.977
74152SOL    HW224354   0.973  12.524   4.977
74153SOL     OW24355  11.874   7.996  11.558
74153SOL    HW124356  11.841   7.967  11.643
74153SOL    HW224357  11.873   8.091  11.563
74154SOL     OW24358   3.733  12.796   2.337
74154SOL    HW124359   3.774  12.722   2.381
74154SOL    HW224360   3.805  12.857   2.321
74155SOL     OW24361   0.799  12.265   2.154
74155SOL    HW124362   0.888  12.236   2.171
74155SOL    HW224363   0.798  12.357   2.180
74156SOL     OW24364   6.025   5.412   3.515
74156SOL    HW124365   5.998   5.464   3.439
74156SOL    HW224366   6.052   5.328   3.477
74157SOL     OW24367   6.326   8.904   8.777
74157SOL    HW124368   6.316   8.830   8.717
74157SOL    HW224369   6.387   8.872   8.843
74158SOL     OW24370  13.037   2.085   8.881
74158SOL    HW124371  13.056   1.995   8.854
74158SOL    HW224372  12.964   2.112   8.826
74159SOL     OW24373  12.274   7.356  11.555
74159SOL    HW124374  12.260   7.446  11.584
74159SOL    HW224375  12.355   7.329  11.598
74160SOL     OW24376  11.071   1.912   1.638
74160SOL    HW124377  11.131   1.923   1.565
74160SOL    HW224378  11.058   1.818   1.645
74161SOL     OW24379   8.557   7.282   2.137
74161SOL    HW124380   8.538   7.375   2.145
74161SOL    HW224381   8.473   7.242   2.116
74162SOL     OW24382  10.379   2.281   6.923
74162SOL    HW124383  10.382   2.282   7.019
74162SOL    HW224384  10.468   2.304   6.896
74163SOL     OW24385  12.700  11.164  13.861
74163SOL    HW124386  12.704  11.126  13.774
74163SOL    HW224387  12.620  11.216  13.861
74164SOL     OW24388   5.499   8.296   5.857
74164SOL    HW124389   5.545   8.305   5.774
74164SOL    HW224390   5.427   8.236   5.838
74165SOL     OW24391   4.926   7.499   3.482
74165SOL    HW124392   4.914   7.561   3.554
74165SOL    HW224393   4.944   7.416   3.524
74166SOL     OW24394  10.977  10.839   3.895
74166SOL    HW124395  11.015  10.920   3.861
74166SOL    HW224396  10.907  10.869   3.953
74167SOL     OW24397  14.563   2.103  12.470
74167SOL    HW124398  14.525   2.190  12.481
74167SOL    HW224399  14.500   2.044  12.512
74168SOL     OW24400   1.087  11.308   7.683
74168SOL    HW124401   1.150  11.265   7.740
74168SOL    HW224402   1.123  11.298   7.595
74169SOL     OW24403  12.535   9.707  12.147
74169SOL    HW124404  12.562   9.744  12.062
74169SOL    HW224405  12.510   9.783  12.199
74170SOL     OW24406   1.504  13.642  12.194
74170SOL    HW124407   1.435  13.641  12.261
74170SOL    HW224408   1.538  13.731  12.196
74171SOL     OW24409   2.384   8.518   3.909
74171SOL    HW124410   2.357   8.609   3.915
74171SOL    HW224411   2.467   8.514   3.956
74172SOL     OW24412   7.358  10.557   3.767
74172SOL    HW124413   7.391  10.553   3.677
74172SOL    HW224414   7.437  10.561   3.821
74173SOL     OW24415   2.860  11.459   0.610
74173SOL    HW124416   2.791  11.426   0.667
74173SOL    HW224417   2.906  11.380   0.580
74174SOL     OW24418   5.239   1.496   4.845
74174SOL    HW124419   5.189   1.448   4.911
74174SOL    HW224420   5.173   1.532   4.786
74175SOL     OW24421  10.797   3.475   8.110
74175SOL    HW124422  10.870   3.470   8.172
74175SOL    HW224423  10.838   3.479   8.024
74176SOL     OW24424  13.975   7.275   8.368
74176SOL    HW124425  13.933   7.230   8.441
74176SOL    HW224426  14.066   7.286   8.396
74177SOL     OW24427  14.694   0.936   3.212
74177SOL    HW124428  14.650   0.955   3.294
74177SOL    HW224429  14.743   1.016   3.192
74178SOL     OW24430   0.639   6.527  11.545
74178SOL    HW124431   0.562   6.585  11.536
74178SOL    HW224432   0.611   6.459  11.605
74179SOL     OW24433  10.350   9.866   3.667
74179SOL    HW124434  10.374   9.951   3.703
74179SOL    HW224435  10.341   9.881   3.573
74180SOL     OW24436  13.754   2.350  10.903
74180SOL    HW124437  13.702   2.275  10.874
74180SOL    HW224438  13.748   2.412  10.830
74181SOL     OW24439   5.014  11.053  10.054
74181SOL    HW124440   4.998  11.041  10.148
74181SOL    HW224441   5.047  10.969  10.024
74182SOL     OW24442  11.981   5.818   2.972
74182SOL    HW124443  11.936   5.844   3.052
74182SOL    HW224444  11.989   5.899   2.921
74183SOL     OW24445  11.497  11.514  13.177
74183SOL    HW124446  11.529  11.427  13.202
74183SOL    HW224447  11.563  11.575  13.211
74184SOL     OW24448   3.968   3.681   5.148
74184SOL    HW124449   3.973   3.644   5.060
74184SOL    HW224450   3.973   3.605   5.206
74185SOL     OW24451  12.060   9.223   9.428
74185SOL    HW124452  12.101   9.176   9.500
74185SOL    HW224453  12.133   9.264   9.381
74186SOL     OW24454   2.173  12.207  10.087
74186SOL    HW124455   2.238  12.145  10.118
74186SOL    HW224456   2.105  12.206  10.154
74187SOL     OW24457  12.920   3.180   6.019
74187SOL    HW124458  12.885   3.111   6.075
74187SOL    HW224459  12.896   3.154   5.930
74188SOL     OW24460   4.207   9.450   2.865
74188SOL    HW124461   4.184   9.358   2.878
74188SOL    HW224462   4.148   9.498   2.923
74189SOL     OW24463   0.014  12.941  11.850
74189SOL    HW124464   0.099  12.965  11.814
74189SOL    HW224465  14.839  12.926  11.774
74190SOL     OW24466   0.371   5.067   8.866
74190SOL    HW124467   0.405   5.144   8.913
74190SOL    HW224468   0.427   4.995   8.894
74191SOL     OW24469   0.717   9.817  12.068
74191SOL    HW124470   0.804   9.816  12.027
74191SOL    HW224471   0.689   9.725  12.065
74192SOL     OW24472   4.285   8.782   5.914
74192SOL    HW124473   4.198   8.817   5.892
74192SOL    HW224474   4.301   8.813   6.003
74193SOL     OW24475   3.603   0.073   2.092
74193SOL    HW124476   3.655   0.028   2.159
74193SOL    HW224477   3.513   0.052   2.114
74194SOL     OW24478   3.723   4.815   1.594
74194SOL    HW124479   3.685   4.878   1.533
74194SOL    HW224480   3.803   4.858   1.625
74195SOL     OW24481   7.464   5.199   2.166
74195SOL    HW124482   7.536   5.261   2.174
74195SOL    HW224483   7.388   5.246   2.199
74196SOL     OW24484  14.366   5.118   5.751
74196SOL    HW124485  14.351   5.188   5.688
74196SOL    HW224486  14.401   5.163   5.828
74197SOL     OW24487   8.222  13.349  11.160
74197SOL    HW124488   8.176  13.289  11.219
74197SOL    HW224489   8.307  13.363  11.201
74198SOL     OW24490   8.387   0.467  12.516
74198SOL    HW124491   8.315   0.509  12.470
74198SOL    HW224492   8.348   0.390  12.557
74199SOL     OW24493   7.518   9.277   9.445
74199SOL    HW124494   7.550   9.364   9.420
74199SOL    HW224495   7.526   9.225   9.366
74200SOL     OW24496   7.277   1.765  13.920
74200SOL    HW124497   7.337   1.818  13.867
74200SOL    HW224498   7.334   1.705  13.967
74201SOL     OW24499  14.525   0.790   1.431
74201SOL    HW124500  14.508   0.880   1.459
74201SOL    HW224501  14.440   0.758   1.400
74202SOL     OW24502  10.141   1.165  10.332
74202SOL    HW124503  10.081   1.152  10.258
74202SOL    HW224504  10.206   1.227  10.299
74203SOL     OW24505  13.904   7.247  14.870
74203SOL    HW124506  13.934   7.166   0.030
74203SOL    HW224507  13.974   7.310   0.009
74204SOL     OW24508  12.783   3.369   3.799
74204SOL    HW124509  12.793   3.327   3.884
74204SOL    HW224510  12.871   3.400   3.777
74205SOL     OW24511  10.645  13.754  10.827
74205SOL    HW124512  10.660  13.833  10.775
74205SOL    HW224513  10.694  13.686  10.781
74206SOL     OW24514  13.208  14.246  13.320
74206SOL    HW124515  13.169  14.315  13.374
74206SOL    HW224516  13.135  14.186  13.302
74207SOL     OW24517   8.447   4.514  11.578
74207SOL    HW124518   8.363   4.521  11.532
74207SOL    HW224519   8.426   4.470  11.660
74208SOL     OW24520   8.407   3.169   9.751
74208SOL    HW124521   8.443   3.107   9.815
74208SOL    HW224522   8.330   3.125   9.715
74209SOL     OW24523  10.016  12.625   4.283
74209SOL    HW124524   9.989  12.534   4.294
74209SOL    HW224525  10.091  12.621   4.225
74210SOL     OW24526   3.203   0.038   6.300
74210SOL    HW124527   3.285   0.087   6.304
74210SOL    HW224528   3.135   0.104   6.293
74211SOL     OW24529   9.566   7.823  14.258
74211SOL    HW124530   9.471   7.819  14.247
74211SOL    HW224531   9.596   7.882  14.189
74212SOL     OW24532   0.208   4.438  10.466
74212SOL    HW124533   0.218   4.478  10.380
74212SOL    HW224534   0.113   4.441  10.483
74213SOL     OW24535   5.276   9.064   7.050
74213SOL    HW124536   5.255   9.003   6.980
74213SOL    HW224537   5.198   9.063   7.106
74214SOL     OW24538  12.729  12.958   5.301
74214SOL    HW124539  12.639  12.941   5.275
74214SOL    HW224540  12.722  13.011   5.381
74215SOL     OW24541  13.631  14.620   0.701
74215SOL    HW124542  13.650  14.711   0.680
74215SOL    HW224543  13.639  14.573   0.618
74216SOL     OW24544  14.755   8.463   1.907
74216SOL    HW124545  14.763   8.502   1.994
74216SOL    HW224546  14.755   8.369   1.923
74217SOL     OW24547   7.502  12.041   5.963
74217SOL    HW124548   7.457  12.029   5.879
74217SOL    HW224549   7.443  12.097   6.014
74218SOL     OW24550   7.701  13.538  14.011
74218SOL    HW124551   7.794  13.537  14.034
74218SOL    HW224552   7.656  13.501  14.087
74219SOL     OW24553  12.781   5.609   0.445
74219SOL    HW124554  12.829   5.533   0.480
74219SOL    HW224555  12.820   5.684   0.488
74220SOL     OW24556   0.699   0.253   2.322
74220SOL    HW124557   0.652   0.262   2.239
74220SOL    HW224558   0.790   0.237   2.296
74221SOL     OW24559   3.736   3.469   9.468
74221SOL    HW124560   3.670   3.440   9.405
74221SOL    HW224561   3.759   3.557   9.439
74222SOL     OW24562   8.399   2.065   2.753
74222SOL    HW124563   8.427   1.995   2.693
74222SOL    HW224564   8.335   2.023   2.811
74223SOL     OW24565  12.098   0.989   7.625
74223SOL    HW124566  12.038   0.919   7.651
74223SOL    HW224567  12.041   1.062   7.601
74224SOL     OW24568   6.204   2.843  14.504
74224SOL    HW124569   6.214   2.910  14.572
74224SOL    HW224570   6.290   2.801  14.501
74225SOL     OW24571  12.555   0.321   5.951
74225SOL    HW124572  12.573   0.304   5.858
74225SOL    HW224573  12.607   0.399   5.971
74226SOL     OW24574   7.636   8.847  11.365
74226SOL    HW124575   7.621   8.802  11.282
74226SOL    HW224576   7.700   8.792  11.411
74227SOL     OW24577   7.451  11.428   6.048
74227SOL    HW124578   7.358  11.405   6.045
74227SOL    HW224579   7.481  11.395   6.133
74228SOL     OW24580   4.731   6.766   0.877
74228SOL    HW124581   4.669   6.808   0.936
74228SOL    HW224582   4.759   6.687   0.924
74229SOL     OW24583   9.265  10.832  13.186
74229SOL    HW124584   9.240  10.756  13.133
74229SOL    HW224585   9.194  10.894  13.175
74230SOL     OW24586   2.809  14.769   7.887
74230SOL    HW124587   2.844  14.682   7.868
74230SOL    HW224588   2.783  14.765   7.979
74231SOL     OW24589   8.786  12.765   4.132
74231SOL    HW124590   8.744  12.847   4.156
74231SOL    HW224591   8.823  12.731   4.214
74232SOL     OW24592   9.255  14.208   4.056
74232SOL    HW124593   9.309  14.277   4.094
74232SOL    HW224594   9.316  14.157   4.003
74233SOL     OW24595  13.703   5.912   8.734
74233SOL    HW124596  13.739   5.900   8.822
74233SOL    HW224597  13.623   5.860   8.734
74234SOL     OW24598   8.808   3.598   2.140
74234SOL    HW124599   8.740   3.645   2.188
74234SOL    HW224600   8.888   3.647   2.158
74235SOL     OW24601   6.697   3.985   4.667
74235SOL    HW124602   6.608   3.952   4.681
74235SOL    HW224603   6.739   3.918   4.613
74236SOL     OW24604   5.981  12.508   8.633
74236SOL    HW124605   5.910  12.539   8.689
74236SOL    HW224606   5.961  12.544   8.546
74237SOL     OW24607  10.330   9.992   1.980
74237SOL    HW124608  10.370   9.949   2.056
74237SOL    HW224609  10.349   9.934   1.907
74238SOL     OW24610  13.219   7.313   6.363
74238SOL    HW124611  13.145   7.359   6.325
74238SOL    HW224612  13.190   7.222   6.370
74239SOL     OW24613   5.863   4.548   8.486
74239SOL    HW124614   5.798   4.478   8.477
74239SOL    HW224615   5.934   4.508   8.536
74240SOL     OW24616   7.221   1.318   9.663
74240SOL    HW124617   7.276   1.345   9.736
74240SOL    HW224618   7.141   1.369   9.673
74241SOL     OW24619  13.642  11.446   6.095
74241SOL    HW124620  13.567  11.390   6.073
74241SOL    HW224621  13.639  11.454   6.190
74242SOL     OW24622   6.542   2.405  12.271
74242SOL    HW124623   6.618   2.388  12.215
74242SOL    HW224624   6.467   2.382  12.216
74243SOL     OW24625   2.919  14.510  14.558
74243SOL    HW124626   2.920  14.479  14.648
74243SOL    HW224627   2.977  14.450  14.511
74244SOL     OW24628   5.545  13.173  10.969
74244SOL    HW124629   5.562  13.229  11.045
74244SOL    HW224630   5.627  13.125  10.956
74245SOL     OW24631   9.090   2.633   5.037
74245SOL    HW124632   9.148   2.566   5.072
74245SOL    HW224633   9.139   2.673   4.966
74246SOL     OW24634   6.740  10.132  12.443
74246SOL    HW124635   6.695  10.067  12.496
74246SOL    HW224636   6.706  10.119  12.354
74247SOL     OW24637   5.588   4.840  13.437
74247SOL    HW124638   5.564   4.933  13.436
74247SOL    HW224639   5.587   4.817  13.530
74248SOL     OW24640   3.848   6.617   0.883
74248SOL    HW124641   3.936   6.589   0.907
74248SOL    HW224642   3.796   6.601   0.962
74249SOL     OW24643  14.587   4.432   2.247
74249SOL    HW124644  14.503   4.471   2.223
74249SOL    HW224645  14.652   4.501   2.229
74250SOL     OW24646  14.297  11.844   2.197
74250SOL    HW124647  14.340  11.841   2.283
74250SOL    HW224648  14.287  11.937   2.178
74251SOL     OW24649   6.067   3.493  10.857
74251SOL    HW124650   6.040   3.436  10.929
74251SOL    HW224651   6.147   3.452  10.824
74252SOL     OW24652   7.809   9.248  14.297
74252SOL    HW124653   7.774   9.205  14.374
74252SOL    HW224654   7.892   9.285  14.326
74253SOL     OW24655  12.175   0.708   0.990
74253SOL    HW124656  12.233   0.781   0.967
74253SOL    HW224657  12.094   0.750   1.017
74254SOL     OW24658   3.694  13.512   4.572
74254SOL    HW124659   3.761  13.486   4.509
74254SOL    HW224660   3.732  13.489   4.657
74255SOL     OW24661   0.853   8.606   5.730
74255SOL    HW124662   0.815   8.633   5.813
74255SOL    HW224663   0.827   8.515   5.719
74256SOL     OW24664  13.821  14.152   8.475
74256SOL    HW124665  13.737  14.182   8.510
74256SOL    HW224666  13.797  14.094   8.402
74257SOL     OW24667  12.442  13.148  12.469
74257SOL    HW124668  12.393  13.151  12.387
74257SOL    HW224669  12.475  13.237  12.481
74258SOL     OW24670   7.187   3.735   0.488
74258SOL    HW124671   7.127   3.780   0.429
74258SOL    HW224672   7.229   3.805   0.538
74259SOL     OW24673   4.775  10.669   4.461
74259SOL    HW124674   4.765  10.579   4.493
74259SOL    HW224675   4.732  10.669   4.376
74260SOL     OW24676   4.757   7.933  12.711
74260SOL    HW124677   4.829   7.946  12.650
74260SOL    HW224678   4.754   7.838  12.726
74261SOL     OW24679   0.828   4.175  12.186
74261SOL    HW124680   0.904   4.219  12.150
74261SOL    HW224681   0.755   4.235  12.170
74262SOL     OW24682  12.172   6.292   4.556
74262SOL    HW124683  12.109   6.234   4.514
74262SOL    HW224684  12.257   6.260   4.525
74263SOL     OW24685  12.942  12.249  11.887
74263SOL    HW124686  13.035  12.245  11.910
74263SOL    HW224687  12.928  12.340  11.860
74264SOL     OW24688   1.416  11.130  12.082
74264SOL    HW124689   1.370  11.071  12.142
74264SOL    HW224690   1.466  11.072  12.025
74265SOL     OW24691   7.890  14.262  10.910
74265SOL    HW124692   7.945  14.186  10.893
74265SOL    HW224693   7.950  14.336  10.909
74266SOL     OW24694   3.959   2.044  13.006
74266SOL    HW124695   3.889   2.066  13.067
74266SOL    HW224696   3.913   2.014  12.927
74267SOL     OW24697   0.197  13.213   2.794
74267SOL    HW124698   0.284  13.251   2.809
74267SOL    HW224699   0.208  13.158   2.716
74268SOL     OW24700   6.566   9.291   3.384
74268SOL    HW124701   6.505   9.316   3.453
74268SOL    HW224702   6.533   9.207   3.351
74269SOL     OW24703   0.268  11.675  10.041
74269SOL    HW124704   0.304  11.610   9.982
74269SOL    HW224705   0.203  11.722   9.989
74270SOL     OW24706   9.831   9.230   3.458
74270SOL    HW124707   9.785   9.230   3.542
74270SOL    HW224708   9.909   9.283   3.473
74271SOL     OW24709   1.764   0.346   3.510
74271SOL    HW124710   1.825   0.303   3.570
74271SOL    HW224711   1.816   0.365   3.432
74272SOL     OW24712  12.590  11.962  14.652
74272SOL    HW124713  12.643  11.883  14.639
74272SOL    HW224714  12.548  11.948  14.737
74273SOL     OW24715   3.513   3.807   3.310
74273SOL    HW124716   3.591   3.863   3.318
74273SOL    HW224717   3.441   3.869   3.296
74274SOL     OW24718   8.995   4.138  12.874
74274SOL    HW124719   9.052   4.206  12.839
74274SOL    HW224720   8.908   4.178  12.874
74275SOL     OW24721   6.665   0.526   8.244
74275SOL    HW124722   6.722   0.602   8.252
74275SOL    HW224723   6.716   0.454   8.281
74276SOL     OW24724   7.078   5.591  13.486
74276SOL    HW124725   7.106   5.621  13.572
74276SOL    HW224726   7.148   5.618  13.426
74277SOL     OW24727   4.475  12.123   4.873
74277SOL    HW124728   4.416  12.156   4.806
74277SOL    HW224729   4.419  12.073   4.932
74278SOL     OW24730   6.268   4.977   2.700
74278SOL    HW124731   6.224   4.893   2.711
74278SOL    HW224732   6.345   4.957   2.646
74279SOL     OW24733   5.762   0.209   6.678
74279SOL    HW124734   5.782   0.169   6.593
74279SOL    HW224735   5.690   0.270   6.659
74280SOL     OW24736   6.382  11.691  14.737
74280SOL    HW124737   6.429  11.638  14.672
74280SOL    HW224738   6.351  11.767  14.688
74281SOL     OW24739  10.377  10.514   4.021
74281SOL    HW124740  10.300  10.458   4.009
74281SOL    HW224741  10.427  10.471   4.091
74282SOL     OW24742   9.375   0.172   3.592
74282SOL    HW124743   9.442   0.221   3.544
74282SOL    HW224744   9.343   0.234   3.658
74283SOL     OW24745  13.880  10.949   5.531
74283SOL    HW124746  13.903  11.035   5.566
74283SOL    HW224747  13.893  10.957   5.437
74284SOL     OW24748   2.678   4.643   3.153
74284SOL    HW124749   2.709   4.691   3.076
74284SOL    HW224750   2.607   4.697   3.187
74285SOL     OW24751   5.628   4.560   8.258
74285SOL    HW124752   5.567   4.628   8.287
74285SOL    HW224753   5.614   4.554   8.163
74286SOL     OW24754   5.990   6.789   3.329
74286SOL    HW124755   5.939   6.869   3.316
74286SOL    HW224756   6.016   6.792   3.421
74287SOL     OW24757   1.012  10.031   5.211
74287SOL    HW124758   1.062   9.954   5.240
74287SOL    HW224759   1.040  10.044   5.120
74288SOL     OW24760   9.500   3.449  14.163
74288SOL    HW124761   9.521   3.542  14.158
74288SOL    HW224762   9.418   3.446  14.213
74289SOL     OW24763  12.604  14.288   5.584
74289SOL    HW124764  12.557  14.240   5.652
74289SOL    HW224765  12.538  14.345   5.544
74290SOL     OW24766   6.371  13.011  13.875
74290SOL    HW124767   6.421  13.012  13.956
74290SOL    HW224768   6.334  13.099  13.868
74291SOL     OW24769  14.149  10.580   3.646
74291SOL    HW124770  14.112  10.578   3.557
74291SOL    HW224771  14.163  10.488   3.668
74292SOL     OW24772  12.685   0.328  14.669
74292SOL    HW124773  12.607   0.350  14.618
74292SOL    HW224774  12.651   0.292  14.751
74293SOL     OW24775   9.454   0.641  11.986
74293SOL    HW124776   9.379   0.691  11.954
74293SOL    HW224777   9.414   0.570  12.038
74294SOL     OW24778   4.159   7.097   1.890
74294SOL    HW124779   4.168   7.187   1.857
74294SOL    HW224780   4.065   7.086   1.902
74295SOL     OW24781   2.491   0.951  10.169
74295SOL    HW124782   2.512   0.948  10.075
74295SOL    HW224783   2.554   0.892  10.210
74296SOL     OW24784   2.857   3.544   9.889
74296SOL    HW124785   2.805   3.624   9.896
74296SOL    HW224786   2.816   3.483   9.950
74297SOL     OW24787  11.482   7.788   4.519
74297SOL    HW124788  11.507   7.724   4.452
74297SOL    HW224789  11.559   7.845   4.527
74298SOL     OW24790   2.869  11.723   8.428
74298SOL    HW124791   2.845  11.766   8.510
74298SOL    HW224792   2.943  11.666   8.452
74299SOL     OW24793   7.547   1.857   2.973
74299SOL    HW124794   7.464   1.887   3.012
74299SOL    HW224795   7.522   1.781   2.921
74300SOL     OW24796   3.605   4.156   8.143
74300SOL    HW124797   3.645   4.160   8.230
74300SOL    HW224798   3.666   4.104   8.091
74301SOL     OW24799  13.989   3.703  10.664
74301SOL    HW124800  13.960   3.779  10.614
74301SOL    HW224801  14.015   3.738  10.749
74302SOL     OW24802   6.854  13.074   9.531
74302SOL    HW124803   6.891  13.158   9.504
74302SOL    HW224804   6.925  13.011   9.518
74303SOL     OW24805  11.093  12.923  14.455
74303SOL    HW124806  11.148  12.921  14.377
74303SOL    HW224807  11.005  12.942  14.422
74304SOL     OW24808   9.038   1.398   4.477
74304SOL    HW124809   9.064   1.342   4.404
74304SOL    HW224810   8.943   1.408   4.467
74305SOL     OW24811   0.308  14.369   1.073
74305SOL    HW124812   0.402  14.388   1.066
74305SOL    HW224813   0.272  14.444   1.120
74306SOL     OW24814  14.239   9.356   8.321
74306SOL    HW124815  14.325   9.329   8.288
74306SOL    HW224816  14.190   9.274   8.328
74307SOL     OW24817   1.673   7.935  14.667
74307SOL    HW124818   1.694   7.931  14.760
74307SOL    HW224819   1.585   7.974  14.664
74308SOL     OW24820   7.328   3.619  11.378
74308SOL    HW124821   7.240   3.584  11.366
74308SOL    HW224822   7.352   3.653  11.292
74309SOL     OW24823   7.200   2.662   5.006
74309SOL    HW124824   7.155   2.621   5.080
74309SOL    HW224825   7.135   2.721   4.968
74310SOL     OW24826   9.413   3.288   0.842
74310SOL    HW124827   9.466   3.236   0.782
74310SOL    HW224828   9.404   3.373   0.797
74311SOL     OW24829  10.419   4.680  14.366
74311SOL    HW124830  10.398   4.602  14.314
74311SOL    HW224831  10.380   4.752  14.318
74312SOL     OW24832  13.410   6.607  14.514
74312SOL    HW124833  13.350   6.655  14.571
74312SOL    HW224834  13.447   6.538  14.570
74313SOL     OW24835  10.867  12.938   5.920
74313SOL    HW124836  10.946  12.916   5.870
74313SOL    HW224837  10.900  12.982   5.998
74314SOL     OW24838  10.697   9.399  10.192
74314SOL    HW124839  10.637   9.439  10.255
74314SOL    HW224840  10.744   9.332  10.242
74315SOL     OW24841  12.950  11.836   3.286
74315SOL    HW124842  12.863  11.797   3.297
74315SOL    HW224843  13.010  11.763   3.294
74316SOL     OW24844  12.680   3.901   7.418
74316SOL    HW124845  12.666   3.816   7.375
74316SOL    HW224846  12.642   3.965   7.358
74317SOL     OW24847  14.130   8.704   3.329
74317SOL    HW124848  14.088   8.624   3.363
74317SOL    HW224849  14.133   8.763   3.404
74318SOL     OW24850  11.194   2.188   4.647
74318SOL    HW124851  11.237   2.271   4.669
74318SOL    HW224852  11.262   2.136   4.604
74319SOL     OW24853   4.267   9.270   6.623
74319SOL    HW124854   4.178   9.241   6.600
74319SOL    HW224855   4.324   9.200   6.593
74320SOL     OW24856   5.639   2.242   9.659
74320SOL    HW124857   5.613   2.251   9.567
74320SOL    HW224858   5.592   2.166   9.691
74321SOL     OW24859   0.507   9.567  10.490
74321SOL    HW124860   0.596   9.585  10.521
74321SOL    HW224861   0.451   9.619  10.547
74322SOL     OW24862   4.227  13.891  10.202
74322SOL    HW124863   4.245  13.968  10.255
74322SOL    HW224864   4.133  13.893  10.186
74323SOL     OW24865   9.342   4.844  10.424
74323SOL    HW124866   9.283   4.774  10.398
74323SOL    HW224867   9.423   4.800  10.448
74324SOL     OW24868   2.833   8.967   4.857
74324SOL    HW124869   2.834   8.925   4.943
74324SOL    HW224870   2.922   9.001   4.845
74325SOL     OW24871  14.804   6.092   0.364
74325SOL    HW124872  14.758   6.102   0.447
74325SOL    HW224873  14.841   6.179   0.347
74326SOL     OW24874   8.569  14.558   5.004
74326SOL    HW124875   8.635  14.522   5.064
74326SOL    HW224876   8.561  14.649   5.030
74327SOL     OW24877   4.502  14.618   3.602
74327SOL    HW124878   4.444  14.583   3.535
74327SOL    HW224879   4.590  14.591   3.573
74328SOL     OW24880   8.723   6.816   3.993
74328SOL    HW124881   8.784   6.889   4.002
74328SOL    HW224882   8.780   6.739   3.989
74329SOL     OW24883  11.216   1.256  11.080
74329SOL    HW124884  11.168   1.221  11.156
74329SOL    HW224885  11.239   1.346  11.106
74330SOL     OW24886  13.336   4.130  12.711
74330SOL    HW124887  13.416   4.078  12.717
74330SOL    HW224888  13.300   4.109  12.625
74331SOL     OW24889  14.450   7.789   6.066
74331SOL    HW124890  14.542   7.812   6.055
74331SOL    HW224891  14.420   7.769   5.977
74332SOL     OW24892   0.452   8.446   8.367
74332SOL    HW124893   0.447   8.356   8.335
74332SOL    HW224894   0.534   8.450   8.416
74333SOL     OW24895  14.553   9.585   2.255
74333SOL    HW124896  14.597   9.560   2.336
74333SOL    HW224897  14.583   9.674   2.237
74334SOL     OW24898   3.653  14.259   4.636
74334SOL    HW124899   3.617  14.323   4.575
74334SOL    HW224900   3.693  14.192   4.580
74335SOL     OW24901   1.362   8.498   6.079
74335SOL    HW124902   1.273   8.463   6.079
74335SOL    HW224903   1.385   8.507   6.171
74336SOL     OW24904   0.984  14.229   6.611
74336SOL    HW124905   0.933  14.289   6.665
74336SOL    HW224906   0.952  14.142   6.635
74337SOL     OW24907  10.682  11.490   7.930
74337SOL    HW124908  10.689  11.583   7.913
74337SOL    HW224909  10.768  11.455   7.905
74338SOL     OW24910  13.225  12.969  14.403
74338SOL    HW124911  13.186  13.044  14.449
74338SOL    HW224912  13.174  12.894  14.433
74339SOL     OW24913   2.450  12.331   4.698
74339SOL    HW124914   2.446  12.236   4.691
74339SOL    HW224915   2.533  12.349   4.742
74340SOL     OW24916   2.323   2.945   7.426
74340SOL    HW124917   2.309   2.951   7.521
74340SOL    HW224918   2.350   2.855   7.411
74341SOL     OW24919  11.141  11.544   3.715
74341SOL    HW124920  11.232  11.573   3.719
74341SOL    HW224921  11.129  11.489   3.792
74342SOL     OW24922  11.097   0.217  10.002
74342SOL    HW124923  11.193   0.221  10.002
74342SOL    HW224924  11.077   0.126  10.020
74343SOL     OW24925   7.087   7.031   2.184
74343SOL    HW124926   7.164   7.067   2.141
74343SOL    HW224927   7.020   7.027   2.115
74344SOL     OW24928   0.296  14.189   5.142
74344SOL    HW124929   0.269  14.168   5.231
74344SOL    HW224930   0.268  14.114   5.090
74345SOL     OW24931  11.778   7.740  11.488
74345SOL    HW124932  11.785   7.835  11.486
74345SOL    HW224933  11.686   7.722  11.508
74346SOL     OW24934   8.563  13.929   0.241
74346SOL    HW124935   8.527  13.955   0.156
74346SOL    HW224936   8.642  13.981   0.250
74347SOL     OW24937  12.446  14.453  13.846
74347SOL    HW124938  12.428  14.366  13.811
74347SOL    HW224939  12.516  14.439  13.911
74348SOL     OW24940   8.290   5.298   0.786
74348SOL    HW124941   8.203   5.264   0.762
74348SOL    HW224942   8.318   5.348   0.709
74349SOL     OW24943  11.400   8.526  13.433
74349SOL    HW124944  11.345   8.588  13.386
74349SOL    HW224945  11.418   8.569  13.517
74350SOL     OW24946   2.618   3.233  12.256
74350SOL    HW124947   2.621   3.277  12.341
74350SOL    HW224948   2.583   3.298  12.196
74351SOL     OW24949   1.721   8.688  11.743
74351SOL    HW124950   1.778   8.721  11.813
74351SOL    HW224951   1.724   8.757  11.676
74352SOL     OW24952  10.152   0.865   6.904
74352SOL    HW124953  10.093   0.940   6.908
74352SOL    HW224954  10.095   0.788   6.901
74353SOL     OW24955   4.905   1.566   7.767
74353SOL    HW124956   4.948   1.642   7.726
74353SOL    HW224957   4.947   1.490   7.725
74354SOL     OW24958  14.548   4.356   7.568
74354SOL    HW124959  14.505   4.395   7.492
74354SOL    HW224960  14.624   4.310   7.533
74355SOL     OW24961   1.805  13.096  10.141
74355SOL    HW124962   1.778  13.123  10.229
74355SOL    HW224963   1.899  13.112  10.139
74356SOL     OW24964   3.136  10.569   6.229
74356SOL    HW124965   3.154  10.542   6.319
74356SOL    HW224966   3.097  10.656   6.238
74357SOL     OW24967   5.000  12.716   3.612
74357SOL    HW124968   4.955  12.774   3.551
74357SOL    HW224969   5.059  12.774   3.660
74358SOL     OW24970  13.439  13.469   7.725
74358SOL    HW124971  13.463  13.424   7.644
74358SOL    HW224972  13.465  13.560   7.711
74359SOL     OW24973   5.845  10.116   7.171
74359SOL    HW124974   5.931  10.133   7.209
74359SOL    HW224975   5.840  10.175   7.096
74360SOL     OW24976   4.157  11.527  14.787
74360SOL    HW124977   4.234  11.580  14.807
74360SOL    HW224978   4.193  11.443  14.758
74361SOL     OW24979   8.460   9.045   5.843
74361SOL    HW124980   8.526   8.995   5.890
74361SOL    HW224981   8.420   9.100   5.910
74362SOL     OW24982   2.284   6.706  13.283
74362SOL    HW124983   2.276   6.624  13.233
74362SOL    HW224984   2.194   6.739  13.288
74363SOL     OW24985   0.153  13.614   8.183
74363SOL    HW124986   0.177  13.637   8.273
74363SOL    HW224987   0.160  13.697   8.135
74364SOL     OW24988   4.878   4.055  11.985
74364SOL    HW124989   4.826   3.978  11.964
74364SOL    HW224990   4.968   4.022  11.989
74365SOL     OW24991  11.112   4.257   7.393
74365SOL    HW124992  11.096   4.275   7.300
74365SOL    HW224993  11.041   4.303   7.438
74366SOL     OW24994   1.739   0.564   7.051
74366SOL    HW124995   1.806   0.573   6.983
74366SOL    HW224996   1.657   0.560   7.002
74367SOL     OW24997  11.587  11.078  12.244
74367SOL    HW124998  11.555  11.020  12.314
74367SOL    HW224999  11.566  11.166  12.275
74368SOL     OW25000  10.281   3.624  14.691
74368SOL    HW125001  10.323   3.703  14.725
74368SOL    HW225002  10.296   3.558  14.758
74369SOL     OW25003  13.639   0.465  12.773
74369SOL    HW125004  13.684   0.397  12.722
74369SOL    HW225005  13.658   0.546  12.726
74370SOL     OW25006   0.907   6.034   5.901
74370SOL    HW125007   0.863   5.958   5.939
74370SOL    HW225008   0.970   5.996   5.839
74371SOL     OW25009   5.575   0.157   3.697
74371SOL    HW125010   5.490   0.179   3.659
74371SOL    HW225011   5.566   0.182   3.789
74372SOL     OW25012   8.999   5.596   4.158
74372SOL    HW125013   9.088   5.609   4.123
74372SOL    HW225014   8.954   5.545   4.091
74373SOL     OW25015   6.861   4.521   6.616
74373SOL    HW125016   6.932   4.540   6.555
74373SOL    HW225017   6.803   4.597   6.610
74374SOL     OW25018   6.049   2.449   2.300
74374SOL    HW125019   6.061   2.488   2.213
74374SOL    HW225020   5.966   2.487   2.331
74375SOL     OW25021   3.824   2.124   5.148
74375SOL    HW125022   3.906   2.076   5.164
74375SOL    HW225023   3.786   2.136   5.235
74376SOL     OW25024  14.166   6.578   1.895
74376SOL    HW125025  14.210   6.652   1.936
74376SOL    HW225026  14.205   6.573   1.807
74377SOL     OW25027   6.611  12.210  10.627
74377SOL    HW125028   6.638  12.200  10.718
74377SOL    HW225029   6.515  12.218  10.631
74378SOL     OW25030  12.966   7.520   8.234
74378SOL    HW125031  12.984   7.426   8.230
74378SOL    HW225032  12.948   7.545   8.143
74379SOL     OW25033  12.917   1.000   4.529
74379SOL    HW125034  12.933   0.966   4.617
74379SOL    HW225035  12.958   1.086   4.529
74380SOL     OW25036  12.578  12.915   7.274
74380SOL    HW125037  12.483  12.916   7.262
74380SOL    HW225038  12.612  12.874   7.194
74381SOL     OW25039   3.312   1.726   1.575
74381SOL    HW125040   3.406   1.711   1.585
74381SOL    HW225041   3.300   1.744   1.482
74382SOL     OW25042   6.987   2.156   0.584
74382SOL    HW125043   6.911   2.213   0.571
74382SOL    HW225044   6.983   2.094   0.512
74383SOL     OW25045  11.870  13.008  14.077
74383SOL    HW125046  11.863  13.091  14.030
74383SOL    HW225047  11.801  13.012  14.144
74384SOL     OW25048   0.024   8.527  10.382
74384SOL    HW125049   0.007   8.451  10.328
74384SOL    HW225050  14.876   8.501  10.470
74385SOL     OW25051   0.220   0.260  12.652
74385SOL    HW125052   0.228   0.296  12.741
74385SOL    HW225053   0.213   0.166  12.665
74386SOL     OW25054  12.343  11.783  13.671
74386SOL    HW125055  12.378  11.697  13.650
74386SOL    HW225056  12.249  11.768  13.684
74387SOL     OW25057   6.111   2.707  14.129
74387SOL    HW125058   6.058   2.750  14.062
74387SOL    HW225059   6.086   2.615  14.124
74388SOL     OW25060   6.204  12.270   4.436
74388SOL    HW125061   6.245  12.298   4.354
74388SOL    HW225062   6.148  12.196   4.410
74389SOL     OW25063   2.237  11.197  11.020
74389SOL    HW125064   2.185  11.194  11.101
74389SOL    HW225065   2.266  11.287  11.013
74390SOL     OW25066   1.905   3.558  13.280
74390SOL    HW125067   1.954   3.629  13.321
74390SOL    HW225068   1.813   3.581  13.294
74391SOL     OW25069  12.750   1.097  11.607
74391SOL    HW125070  12.705   1.012  11.603
74391SOL    HW225071  12.696   1.156  11.555
74392SOL     OW25072   5.566   7.145   8.875
74392SOL    HW125073   5.513   7.065   8.868
74392SOL    HW225074   5.551   7.192   8.793
74393SOL     OW25075   8.768  12.712   2.941
74393SOL    HW125076   8.842  12.770   2.918
74393SOL    HW225077   8.716  12.764   3.003
74394SOL     OW25078   6.789  11.111  11.549
74394SOL    HW125079   6.780  11.194  11.596
74394SOL    HW225080   6.709  11.104  11.497
74395SOL     OW25081  13.390  13.611   6.982
74395SOL    HW125082  13.343  13.593   7.063
74395SOL    HW225083  13.336  13.676   6.937
74396SOL     OW25084   9.842   6.002  14.863
74396SOL    HW125085   9.843   5.953   0.065
74396SOL    HW225086   9.834   5.934  14.796
74397SOL     OW25087   6.673   0.401  10.618
74397SOL    HW125088   6.615   0.423  10.545
74397SOL    HW225089   6.744   0.466  10.613
74398SOL     OW25090   2.131   6.734   7.359
74398SOL    HW125091   2.124   6.675   7.434
74398SOL    HW225092   2.105   6.680   7.284
74399SOL     OW25093   9.414  14.237   3.829
74399SOL    HW125094   9.463  14.276   3.757
74399SOL    HW225095   9.440  14.145   3.830
74400SOL     OW25096  14.823  11.383   0.528
74400SOL    HW125097  14.778  11.404   0.446
74400SOL    HW225098  14.753  11.382   0.594
74401SOL     OW25099   8.480   5.882   3.327
74401SOL    HW125100   8.516   5.793   3.323
74401SOL    HW225101   8.514   5.917   3.409
74402SOL     OW25102   0.716   4.174  10.579
74402SOL    HW125103   0.752   4.240  10.639
74402SOL    HW225104   0.715   4.094  10.631
74403SOL     OW25105   5.913   1.532   6.539
74403SOL    HW125106   6.001   1.557   6.511
74403SOL    HW225107   5.922   1.443   6.572
74404SOL     OW25108   3.379  10.173   8.669
74404SOL    HW125109   3.359  10.267   8.669
74404SOL    HW225110   3.422  10.157   8.585
74405SOL     OW25111   9.629  10.040   7.347
74405SOL    HW125112   9.601   9.976   7.282
74405SOL    HW225113   9.587  10.012   7.428
74406SOL     OW25114  10.394   7.853  14.219
74406SOL    HW125115  10.332   7.921  14.191
74406SOL    HW225116  10.349   7.771  14.200
74407SOL     OW25117   6.127   0.244  13.652
74407SOL    HW125118   6.206   0.293  13.627
74407SOL    HW225119   6.136   0.160  13.608
74408SOL     OW25120  13.176   0.167   1.867
74408SOL    HW125121  13.186   0.208   1.953
74408SOL    HW225122  13.218   0.082   1.877
74409SOL     OW25123   8.818  13.261   0.090
74409SOL    HW125124   8.879  13.328   0.121
74409SOL    HW225125   8.781  13.297   0.009
74410SOL     OW25126   2.542   5.990   3.689
74410SOL    HW125127   2.616   5.931   3.675
74410SOL    HW225128   2.547   6.012   3.782
74411SOL     OW25129  11.495   2.873   6.626
74411SOL    HW125130  11.411   2.873   6.580
74411SOL    HW225131  11.554   2.924   6.570
74412SOL     OW25132   5.584  13.559  14.836
74412SOL    HW125133   5.632  13.515   0.026
74412SOL    HW225134   5.492  13.552  14.861
74413SOL     OW25135   1.232  12.719   0.485
74413SOL    HW125136   1.309  12.669   0.459
74413SOL    HW225137   1.259  12.811   0.478
74414SOL     OW25138   8.994  14.520  10.430
74414SOL    HW125139   8.901  14.520  10.407
74414SOL    HW225140   9.017  14.613  10.435
74415SOL     OW25141  14.500   5.800   7.361
74415SOL    HW125142  14.439   5.822   7.290
74415SOL    HW225143  14.444   5.764   7.430
74416SOL     OW25144   8.973   1.056   4.869
74416SOL    HW125145   8.890   1.010   4.861
74416SOL    HW225146   8.967   1.102   4.953
74417SOL     OW25147   4.691  12.368   1.720
74417SOL    HW125148   4.727  12.341   1.635
74417SOL    HW225149   4.756  12.428   1.756
74418SOL     OW25150  13.106   8.061  13.678
74418SOL    HW125151  13.045   7.988  13.690
74418SOL    HW225152  13.073   8.107  13.601
74419SOL     OW25153   9.816  14.227   1.122
74419SOL    HW125154   9.787  14.270   1.041
74419SOL    HW225155   9.911  14.221   1.113
74420SOL     OW25156  10.425   9.338   8.939
74420SOL    HW125157  10.345   9.388   8.950
74420SOL    HW225158  10.429   9.282   9.017
74421SOL     OW25159  13.030  14.871  10.382
74421SOL    HW125160  13.111   0.026  10.420
74421SOL    HW225161  12.979   0.068  10.360
74422SOL     OW25162  10.220   3.956   5.184
74422SOL    HW125163  10.314   3.961   5.173
74422SOL    HW225164  10.197   4.035   5.233
74423SOL     OW25165   2.771   9.035   7.185
74423SOL    HW125166   2.761   9.070   7.096
74423SOL    HW225167   2.821   9.102   7.231
74424SOL     OW25168  12.027   7.884   9.573
74424SOL    HW125169  11.934   7.900   9.592
74424SOL    HW225170  12.052   7.814   9.633
74425SOL     OW25171  13.746  14.236   0.020
74425SOL    HW125172  13.660  14.255   0.057
74425SOL    HW225173  13.808  14.258   0.090
74426SOL     OW25174   6.580  13.124  13.081
74426SOL    HW125175   6.659  13.117  13.028
74426SOL    HW225176   6.591  13.205  13.130
74427SOL     OW25177   9.610  13.055   1.560
74427SOL    HW125178   9.533  13.088   1.513
74427SOL    HW225179   9.673  13.127   1.556
74428SOL     OW25180   5.012  14.400   3.472
74428SOL    HW125181   5.018  14.313   3.432
74428SOL    HW225182   5.103  14.424   3.490
74429SOL     OW25183  13.850   3.237   6.453
74429SOL    HW125184  13.880   3.326   6.473
74429SOL    HW225185  13.757   3.237   6.474
74430SOL     OW25186   0.898   1.442   1.642
74430SOL    HW125187   0.831   1.382   1.611
74430SOL    HW225188   0.906   1.507   1.572
74431SOL     OW25189  13.617  11.161   2.451
74431SOL    HW125190  13.582  11.227   2.510
74431SOL    HW225191  13.701  11.197   2.421
74432SOL     OW25192   2.213   0.238   6.221
74432SOL    HW125193   2.255   0.322   6.243
74432SOL    HW225194   2.126   0.245   6.260
74433SOL     OW25195   1.776  11.533   4.557
74433SOL    HW125196   1.818  11.607   4.514
74433SOL    HW225197   1.714  11.499   4.492
74434SOL     OW25198   7.726  10.359  13.177
74434SOL    HW125199   7.663  10.307  13.228
74434SOL    HW225200   7.793  10.296  13.150
74435SOL     OW25201   1.391   5.202   6.851
74435SOL    HW125202   1.305   5.232   6.820
74435SOL    HW225203   1.447   5.206   6.773
74436SOL     OW25204   9.448   6.795   8.579
74436SOL    HW125205   9.508   6.831   8.644
74436SOL    HW225206   9.380   6.863   8.570
74437SOL     OW25207   9.913   6.056   7.374
74437SOL    HW125208   9.963   5.998   7.317
74437SOL    HW225209   9.947   6.039   7.462
74438SOL     OW25210  11.787   6.511   9.212
74438SOL    HW125211  11.829   6.520   9.127
74438SOL    HW225212  11.836   6.441   9.256
74439SOL     OW25213   1.322   3.585  13.294
74439SOL    HW125214   1.303   3.549  13.207
74439SOL    HW225215   1.239   3.622  13.323
74440SOL     OW25216  10.377  13.586   4.430
74440SOL    HW125217  10.320  13.515   4.399
74440SOL    HW225218  10.466  13.552   4.422
74441SOL     OW25219   9.285   4.572   4.534
74441SOL    HW125220   9.263   4.514   4.462
74441SOL    HW225221   9.290   4.659   4.495
74442SOL     OW25222  12.793  12.091   0.761
74442SOL    HW125223  12.815  12.095   0.854
74442SOL    HW225224  12.837  12.167   0.722
74443SOL     OW25225  11.991  12.492   9.817
74443SOL    HW125226  12.008  12.585   9.803
74443SOL    HW225227  11.933  12.490   9.893
74444SOL     OW25228   4.608   2.539   9.364
74444SOL    HW125229   4.683   2.587   9.398
74444SOL    HW225230   4.577   2.592   9.291
74445SOL     OW25231  12.869   7.209   6.627
74445SOL    HW125232  12.820   7.292   6.626
74445SOL    HW225233  12.850   7.171   6.712
74446SOL     OW25234  11.375   9.819   1.524
74446SOL    HW125235  11.303   9.829   1.587
74446SOL    HW225236  11.334   9.831   1.438
74447SOL     OW25237  10.536  13.259  11.695
74447SOL    HW125238  10.550  13.285  11.604
74447SOL    HW225239  10.594  13.316  11.745
74448SOL     OW25240   6.164  11.418   0.278
74448SOL    HW125241   6.121  11.481   0.220
74448SOL    HW225242   6.154  11.455   0.366
74449SOL     OW25243   8.847  14.549  11.523
74449SOL    HW125244   8.783  14.616  11.502
74449SOL    HW225245   8.848  14.546  11.619
74450SOL     OW25246  11.809   0.607  10.265
74450SOL    HW125247  11.848   0.681  10.313
74450SOL    HW225248  11.795   0.540  10.331
74451SOL     OW25249   5.583  12.819   2.948
74451SOL    HW125250   5.620  12.759   2.882
74451SOL    HW225251   5.489  12.804   2.944
74452SOL     OW25252   6.830  13.628  10.107
74452SOL    HW125253   6.804  13.555  10.164
74452SOL    HW225254   6.852  13.587  10.024
74453SOL     OW25255   2.322   2.886  12.208
74453SOL    HW125256   2.366   2.819  12.155
74453SOL    HW225257   2.393   2.929  12.256
74454SOL     OW25258   6.106   5.386  14.872
74454SOL    HW125259   6.140   5.299  14.851
74454SOL    HW225260   6.108   5.390   0.087
74455SOL     OW25261  12.496   7.375   7.538
74455SOL    HW125262  12.475   7.288   7.572
74455SOL    HW225263  12.525   7.425   7.615
74456SOL     OW25264   2.811  14.754   8.373
74456SOL    HW125265   2.833  14.680   8.430
74456SOL    HW225266   2.895  14.795   8.353
74457SOL     OW25267   9.202   9.399  11.117
74457SOL    HW125268   9.154   9.317  11.119
74457SOL    HW225269   9.218   9.417  11.025
74458SOL     OW25270   1.537   5.146  11.126
74458SOL    HW125271   1.554   5.240  11.116
74458SOL    HW225272   1.613   5.104  11.086
74459SOL     OW25273  11.414  11.130   9.289
74459SOL    HW125274  11.386  11.169   9.206
74459SOL    HW225275  11.505  11.104   9.273
74460SOL     OW25276  13.001   6.508  14.220
74460SOL    HW125277  12.961   6.495  14.305
74460SOL    HW225278  13.093   6.529  14.239
74461SOL     OW25279  14.483   4.831  11.988
74461SOL    HW125280  14.558   4.811  12.045
74461SOL    HW225281  14.494   4.924  11.967
74462SOL     OW25282  10.535  14.179   5.777
74462SOL    HW125283  10.454  14.192   5.825
74462SOL    HW225284  10.523  14.227   5.695
74463SOL     OW25285  13.982   9.386  13.063
74463SOL    HW125286  13.892   9.415  13.047
74463SOL    HW225287  14.018   9.369  12.976
74464SOL     OW25288   9.320  14.109   0.740
74464SOL    HW125289   9.333  14.107   0.645
74464SOL    HW225290   9.226  14.116   0.751
74465SOL     OW25291  10.953  13.537  14.760
74465SOL    HW125292  11.012  13.591  14.709
74465SOL    HW225293  10.873  13.589  14.768
74466SOL     OW25294   9.259   4.312   0.387
74466SOL    HW125295   9.223   4.400   0.404
74466SOL    HW225296   9.353   4.321   0.404
74467SOL     OW25297   4.513   7.769   8.066
74467SOL    HW125298   4.560   7.702   8.115
74467SOL    HW225299   4.427   7.730   8.047
74468SOL     OW25300   3.098   8.693   5.500
74468SOL    HW125301   3.060   8.772   5.462
74468SOL    HW225302   3.077   8.624   5.437
74469SOL     OW25303   0.106  11.493   8.426
74469SOL    HW125304   0.139  11.441   8.498
74469SOL    HW225305   0.106  11.583   8.459
74470SOL     OW25306  14.743   8.878   9.399
74470SOL    HW125307  14.752   8.814   9.328
74470SOL    HW225308  14.796   8.953   9.371
74471SOL     OW25309  13.998  10.044   7.068
74471SOL    HW125310  14.049   9.980   7.118
74471SOL    HW225311  14.055  10.067   6.994
74472SOL     OW25312   0.501  14.277   8.978
74472SOL    HW125313   0.494  14.216   8.905
74472SOL    HW225314   0.549  14.230   9.045
74473SOL     OW25315  10.920   4.649   9.062
74473SOL    HW125316  10.880   4.664   9.148
74473SOL    HW225317  11.010   4.624   9.081
74474SOL     OW25318   6.361   9.812   9.929
74474SOL    HW125319   6.306   9.794   9.853
74474SOL    HW225320   6.411   9.890   9.906
74475SOL     OW25321  11.588   0.537   6.205
74475SOL    HW125322  11.600   0.517   6.298
74475SOL    HW225323  11.494   0.527   6.190
74476SOL     OW25324   8.576   2.609  13.115
74476SOL    HW125325   8.602   2.687  13.066
74476SOL    HW225326   8.547   2.642  13.200
74477SOL     OW25327  10.169  11.190  11.905
74477SOL    HW125328  10.116  11.139  11.967
74477SOL    HW225329  10.127  11.276  11.904
74478SOL     OW25330  12.185   2.127   4.713
74478SOL    HW125331  12.113   2.181   4.682
74478SOL    HW225332  12.238   2.186   4.767
74479SOL     OW25333  13.602  10.038   4.751
74479SOL    HW125334  13.589  10.022   4.657
74479SOL    HW225335  13.695  10.058   4.759
74480SOL     OW25336   8.731   1.579   8.326
74480SOL    HW125337   8.758   1.647   8.387
74480SOL    HW225338   8.811   1.529   8.308
74481SOL     OW25339   3.620  11.622   8.596
74481SOL    HW125340   3.564  11.588   8.666
74481SOL    HW225341   3.652  11.706   8.629
74482SOL     OW25342   2.948   7.324   5.844
74482SOL    HW125343   3.022   7.382   5.827
74482SOL    HW225344   2.918   7.347   5.931
74483SOL     OW25345   1.061   6.052   2.733
74483SOL    HW125346   1.000   6.106   2.783
74483SOL    HW225347   1.110   6.004   2.800
74484SOL     OW25348  10.392   4.854   9.758
74484SOL    HW125349  10.309   4.828   9.797
74484SOL    HW225350  10.385   4.827   9.667
74485SOL     OW25351  12.783   3.283   6.696
74485SOL    HW125352  12.878   3.270   6.695
74485SOL    HW225353  12.771   3.376   6.678
74486SOL     OW25354   7.086   7.562   3.979
74486SOL    HW125355   7.139   7.494   4.021
74486SOL    HW225356   7.075   7.533   3.889
74487SOL     OW25357  11.175   7.396   0.356
74487SOL    HW125358  11.081   7.389   0.345
74487SOL    HW225359  11.211   7.391   0.268
74488SOL     OW25360  12.882   5.241  12.191
74488SOL    HW125361  12.868   5.280  12.104
74488SOL    HW225362  12.794   5.219  12.221
74489SOL     OW25363   2.622  11.651   2.327
74489SOL    HW125364   2.636  11.745   2.320
74489SOL    HW225365   2.709  11.613   2.316
74490SOL     OW25366   7.618   9.858   6.337
74490SOL    HW125367   7.621   9.778   6.285
74490SOL    HW225368   7.642   9.927   6.275
74491SOL     OW25369  14.640   7.352  14.759
74491SOL    HW125370  14.562   7.313  14.718
74491SOL    HW225371  14.692   7.384  14.686
74492SOL     OW25372   6.590   1.278  10.401
74492SOL    HW125373   6.627   1.194  10.376
74492SOL    HW225374   6.567   1.320  10.319
74493SOL     OW25375  11.745   2.962   5.321
74493SOL    HW125376  11.771   3.018   5.248
74493SOL    HW225377  11.747   2.874   5.285
74494SOL     OW25378   6.369   8.184   0.692
74494SOL    HW125379   6.335   8.261   0.737
74494SOL    HW225380   6.351   8.201   0.599
74495SOL     OW25381   0.358   3.443  12.882
74495SOL    HW125382   0.352   3.477  12.793
74495SOL    HW225383   0.276   3.469  12.923
74496SOL     OW25384   3.932  10.158   7.124
74496SOL    HW125385   3.850  10.154   7.173
74496SOL    HW225386   3.972  10.241   7.149
74497SOL     OW25387   9.413   6.891  13.190
74497SOL    HW125388   9.466   6.826  13.236
74497SOL    HW225389   9.338   6.905  13.248
74498SOL     OW25390  11.535  11.576  11.554
74498SOL    HW125391  11.524  11.663  11.516
74498SOL    HW225392  11.582  11.526  11.487
74499SOL     OW25393   0.607   3.110  14.011
74499SOL    HW125394   0.696   3.115  13.975
74499SOL    HW225395   0.558   3.061  13.946
74500SOL     OW25396   4.514  13.031   4.296
74500SOL    HW125397   4.551  13.067   4.215
74500SOL    HW225398   4.590  13.005   4.348
74501SOL     OW25399   5.806  13.860  11.097
74501SOL    HW125400   5.773  13.914  11.169
74501SOL    HW225401   5.729  13.815  11.063
74502SOL     OW25402   7.872   7.957   5.869
74502SOL    HW125403   7.869   7.980   5.776
74502SOL    HW225404   7.879   7.861   5.870
74503SOL     OW25405   2.450   7.477   4.417
74503SOL    HW125406   2.513   7.420   4.462
74503SOL    HW225407   2.480   7.479   4.326
74504SOL     OW25408   1.033   7.666  10.320
74504SOL    HW125409   1.079   7.723  10.258
74504SOL    HW225410   1.093   7.591  10.332
74505SOL     OW25411  13.374   5.193   3.073
74505SOL    HW125412  13.458   5.234   3.054
74505SOL    HW225413  13.324   5.261   3.117
74506SOL     OW25414   8.748  12.216   9.632
74506SOL    HW125415   8.786  12.182   9.713
74506SOL    HW225416   8.718  12.139   9.585
74507SOL     OW25417   4.756   5.491  11.277
74507SOL    HW125418   4.786   5.579  11.255
74507SOL    HW225419   4.835   5.445  11.307
74508SOL     OW25420   4.230  10.554   6.311
74508SOL    HW125421   4.165  10.486   6.328
74508SOL    HW225422   4.294  10.544   6.382
74509SOL     OW25423  10.002   2.481  12.546
74509SOL    HW125424   9.993   2.576  12.558
74509SOL    HW225425  10.077   2.457  12.602
74510SOL     OW25426  11.060   5.645   8.032
74510SOL    HW125427  11.143   5.682   8.000
74510SOL    HW225428  11.087   5.574   8.090
74511SOL     OW25429  14.827  11.567  11.423
74511SOL    HW125430  14.786  11.536  11.342
74511SOL    HW225431   0.037  11.535  11.418
74512SOL     OW25432   5.266   4.071  14.871
74512SOL    HW125433   5.202   4.128   0.034
74512SOL    HW225434   5.341   4.069   0.051
74513SOL     OW25435   6.595  13.479   4.498
74513SOL    HW125436   6.604  13.384   4.507
74513SOL    HW225437   6.509  13.491   4.457
74514SOL     OW25438  10.821   9.327   7.793
74514SOL    HW125439  10.885   9.257   7.781
74514SOL    HW225440  10.871   9.402   7.824
74515SOL     OW25441   4.229   3.941   0.834
74515SOL    HW125442   4.187   3.970   0.915
74515SOL    HW225443   4.290   4.012   0.812
74516SOL     OW25444   6.415   7.648  12.883
74516SOL    HW125445   6.327   7.648  12.843
74516SOL    HW225446   6.460   7.574  12.843
74517SOL     OW25447   4.579  13.575  13.527
74517SOL    HW125448   4.575  13.499  13.469
74517SOL    HW225449   4.654  13.559  13.584
74518SOL     OW25450   9.089   6.699   5.146
74518SOL    HW125451   8.996   6.692   5.165
74518SOL    HW225452   9.131   6.701   5.232
74519SOL     OW25453   3.987  13.067   8.189
74519SOL    HW125454   3.918  13.014   8.148
74519SOL    HW225455   4.037  13.103   8.117
74520SOL     OW25456   1.352   2.331   9.963
74520SOL    HW125457   1.306   2.415   9.954
74520SOL    HW225458   1.428   2.352  10.018
74521SOL     OW25459  10.606   3.639  12.958
74521SOL    HW125460  10.529   3.626  12.903
74521SOL    HW225461  10.590   3.723  13.002
74522SOL     OW25462   6.047   1.808   2.167
74522SOL    HW125463   5.967   1.757   2.157
74522SOL    HW225464   6.096   1.794   2.086
74523SOL     OW25465   5.484  11.254   8.142
74523SOL    HW125466   5.530  11.332   8.112
74523SOL    HW225467   5.404  11.286   8.181
74524SOL     OW25468   9.211   5.983   5.687
74524SOL    HW125469   9.270   5.913   5.716
74524SOL    HW225470   9.152   5.941   5.625
74525SOL     OW25471  12.208   4.623  12.155
74525SOL    HW125472  12.286   4.647  12.104
74525SOL    HW225473  12.137   4.620  12.091
74526SOL     OW25474   0.974   7.028   0.303
74526SOL    HW125475   1.053   6.976   0.316
74526SOL    HW225476   0.941   7.001   0.217
74527SOL     OW25477  10.220  10.813   6.310
74527SOL    HW125478  10.148  10.861   6.268
74527SOL    HW225479  10.285  10.802   6.241
74528SOL     OW25480  10.129   8.573   5.918
74528SOL    HW125481  10.199   8.633   5.891
74528SOL    HW225482  10.124   8.584   6.013
74529SOL     OW25483   9.692   0.138   8.491
74529SOL    HW125484   9.746   0.211   8.521
74529SOL    HW225485   9.744   0.060   8.510
74530SOL     OW25486  13.168   0.411  11.221
74530SOL    HW125487  13.080   0.377  11.237
74530SOL    HW225488  13.219   0.333  11.198
74531SOL     OW25489  13.812  14.316   2.699
74531SOL    HW125490  13.801  14.264   2.620
74531SOL    HW225491  13.779  14.403   2.675
74532SOL     OW25492   8.730   5.412   7.629
74532SOL    HW125493   8.779   5.450   7.556
74532SOL    HW225494   8.788   5.345   7.665
74533SOL     OW25495   2.767   6.823   3.210
74533SOL    HW125496   2.797   6.792   3.124
74533SOL    HW225497   2.746   6.743   3.258
74534SOL     OW25498   3.436   6.334   5.576
74534SOL    HW125499   3.358   6.336   5.520
74534SOL    HW225500   3.459   6.426   5.589
74535SOL     OW25501   6.683   2.172   3.048
74535SOL    HW125502   6.700   2.135   2.961
74535SOL    HW225503   6.750   2.239   3.059
74536SOL     OW25504   9.790  10.692   9.906
74536SOL    HW125505   9.773  10.600   9.928
74536SOL    HW225506   9.786  10.737   9.990
74537SOL     OW25507  12.926   1.897  11.858
74537SOL    HW125508  12.960   1.813  11.828
74537SOL    HW225509  13.002   1.942  11.896
74538SOL     OW25510  13.995  13.692   8.337
74538SOL    HW125511  13.917  13.636   8.330
74538SOL    HW225512  14.048  13.650   8.405
74539SOL     OW25513   4.563   0.542  11.817
74539SOL    HW125514   4.567   0.604  11.744
74539SOL    HW225515   4.508   0.585  11.883
74540SOL     OW25516   9.275   7.451   3.507
74540SOL    HW125517   9.248   7.539   3.482
74540SOL    HW225518   9.347   7.465   3.568
74541SOL     OW25519   6.912  11.213   7.935
74541SOL    HW125520   6.869  11.149   7.876
74541SOL    HW225521   6.898  11.297   7.892
74542SOL     OW25522   6.657  10.669   4.931
74542SOL    HW125523   6.623  10.594   4.881
74542SOL    HW225524   6.603  10.743   4.903
74543SOL     OW25525  12.024  13.671   6.447
74543SOL    HW125526  11.951  13.691   6.505
74543SOL    HW225527  12.100  13.713   6.488
74544SOL     OW25528  13.024   2.823  12.391
74544SOL    HW125529  12.951   2.848  12.334
74544SOL    HW225530  13.099   2.818  12.332
74545SOL     OW25531   1.378   8.410   6.333
74545SOL    HW125532   1.333   8.332   6.300
74545SOL    HW225533   1.333   8.431   6.415
74546SOL     OW25534  11.270   7.660   8.805
74546SOL    HW125535  11.273   7.654   8.901
74546SOL    HW225536  11.343   7.718   8.783
74547SOL     OW25537   3.598  14.056   0.531
74547SOL    HW125538   3.590  14.145   0.497
74547SOL    HW225539   3.518  14.012   0.503
74548SOL     OW25540   5.329  11.307   2.894
74548SOL    HW125541   5.405  11.325   2.839
74548SOL    HW225542   5.262  11.277   2.833
74549SOL     OW25543  10.277  11.046   6.656
74549SOL    HW125544  10.338  11.109   6.693
74549SOL    HW225545  10.231  11.095   6.587
74550SOL     OW25546   6.965   9.898   4.181
74550SOL    HW125547   6.967   9.897   4.276
74550SOL    HW225548   6.972   9.990   4.158
74551SOL     OW25549   8.308   6.336   0.597
74551SOL    HW125550   8.276   6.373   0.679
74551SOL    HW225551   8.343   6.250   0.622
74552SOL     OW25552   8.260   1.283   2.071
74552SOL    HW125553   8.303   1.362   2.040
74552SOL    HW225554   8.286   1.274   2.162
74553SOL     OW25555   7.766   8.710  10.206
74553SOL    HW125556   7.803   8.622  10.217
74553SOL    HW225557   7.771   8.748  10.293
74554SOL     OW25558   7.033   9.673   9.769
74554SOL    HW125559   7.007   9.743   9.710
74554SOL    HW225560   7.127   9.684   9.779
74555SOL     OW25561   8.456   9.032  10.722
74555SOL    HW125562   8.416   9.006  10.639
74555SOL    HW225563   8.481   9.124  10.710
74556SOL     OW25564   3.134   6.027  13.775
74556SOL    HW125565   3.116   6.112  13.815
74556SOL    HW225566   3.206   6.044  13.714
74557SOL     OW25567   3.798   3.879   1.858
74557SOL    HW125568   3.792   3.785   1.837
74557SOL    HW225569   3.887   3.891   1.892
74558SOL     OW25570  14.087   5.718  10.475
74558SOL    HW125571  13.993   5.725  10.458
74558SOL    HW225572  14.104   5.782  10.544
74559SOL     OW25573   9.414   6.811  13.637
74559SOL    HW125574   9.447   6.888  13.590
74559SOL    HW225575   9.438   6.737  13.581
74560SOL     OW25576   6.593   1.053  11.081
74560SOL    HW125577   6.549   1.037  10.997
74560SOL    HW225578   6.668   1.108  11.059
74561SOL     OW25579  12.742  14.053  14.170
74561SOL    HW125580  12.795  14.075  14.093
74561SOL    HW225581  12.775  13.968  14.198
74562SOL     OW25582  10.532  13.325  12.284
74562SOL    HW125583  10.468  13.264  12.319
74562SOL    HW225584  10.501  13.412  12.310
74563SOL     OW25585   6.393  13.217  14.494
74563SOL    HW125586   6.485  13.216  14.466
74563SOL    HW225587   6.346  13.260  14.422
74564SOL     OW25588  11.356  13.091   3.228
74564SOL    HW125589  11.435  13.088   3.174
74564SOL    HW225590  11.386  13.128   3.312
74565SOL     OW25591  11.760   8.486   3.716
74565SOL    HW125592  11.705   8.547   3.667
74565SOL    HW225593  11.826   8.458   3.652
74566SOL     OW25594   7.401  13.164   8.927
74566SOL    HW125595   7.411  13.124   8.840
74566SOL    HW225596   7.462  13.239   8.926
74567SOL     OW25597  11.084   0.163  10.989
74567SOL    HW125598  11.069   0.070  10.974
74567SOL    HW225599  11.156   0.167  11.051
74568SOL     OW25600   6.962   4.028   8.255
74568SOL    HW125601   7.049   3.989   8.247
74568SOL    HW225602   6.930   4.035   8.165
74569SOL     OW25603   4.160  13.844  11.334
74569SOL    HW125604   4.202  13.899  11.268
74569SOL    HW225605   4.231  13.814  11.390
74570SOL     OW25606  13.727   9.980  11.168
74570SOL    HW125607  13.707  10.060  11.120
74570SOL    HW225608  13.695   9.996  11.257
74571SOL     OW25609   7.208   2.759   3.640
74571SOL    HW125610   7.255   2.690   3.687
74571SOL    HW225611   7.153   2.711   3.577
74572SOL     OW25612  12.479   9.442  11.018
74572SOL    HW125613  12.437   9.436  10.932
74572SOL    HW225614  12.462   9.357  11.059
74573SOL     OW25615   1.379   1.212   4.558
74573SOL    HW125616   1.305   1.193   4.616
74573SOL    HW225617   1.371   1.306   4.540
74574SOL     OW25618   5.005   2.815   7.091
74574SOL    HW125619   4.943   2.870   7.140
74574SOL    HW225620   4.987   2.835   6.999
74575SOL     OW25621   2.107  12.086   6.528
74575SOL    HW125622   2.161  12.041   6.593
74575SOL    HW225623   2.167  12.104   6.456
74576SOL     OW25624   9.610  11.722   5.715
74576SOL    HW125625   9.686  11.730   5.773
74576SOL    HW225626   9.538  11.697   5.773
74577SOL     OW25627   3.775  12.718  11.401
74577SOL    HW125628   3.750  12.687  11.314
74577SOL    HW225629   3.868  12.696  11.409
74578SOL     OW25630   5.409   8.417   6.462
74578SOL    HW125631   5.318   8.447   6.458
74578SOL    HW225632   5.406   8.328   6.426
74579SOL     OW25633   5.677   1.622   9.616
74579SOL    HW125634   5.711   1.542   9.575
74579SOL    HW225635   5.732   1.692   9.581
74580SOL     OW25636  14.198   6.014   8.441
74580SOL    HW125637  14.263   6.084   8.437
74580SOL    HW225638  14.137   6.035   8.370
74581SOL     OW25639  14.814   6.847   3.939
74581SOL    HW125640  14.737   6.801   3.907
74581SOL    HW225641   0.008   6.802   3.897
74582SOL     OW25642   7.641   7.933   6.297
74582SOL    HW125643   7.586   7.940   6.219
74582SOL    HW225644   7.608   8.002   6.355
74583SOL     OW25645  11.657   6.610  12.347
74583SOL    HW125646  11.699   6.538  12.394
74583SOL    HW225647  11.572   6.621  12.390
74584SOL     OW25648  14.876  10.232   4.678
74584SOL    HW125649  14.844  10.265   4.594
74584SOL    HW225650  14.797  10.225   4.732
74585SOL     OW25651   5.092   3.983   5.165
74585SOL    HW125652   5.077   3.998   5.258
74585SOL    HW225653   5.053   4.059   5.121
74586SOL     OW25654   4.085  12.668   6.916
74586SOL    HW125655   4.090  12.720   6.836
74586SOL    HW225656   3.992  12.646   6.924
74587SOL     OW25657  10.230   0.353   3.154
74587SOL    HW125658  10.141   0.331   3.125
74587SOL    HW225659  10.252   0.284   3.216
74588SOL     OW25660   4.314   6.125   8.285
74588SOL    HW125661   4.259   6.178   8.227
74588SOL    HW225662   4.326   6.179   8.363
74589SOL     OW25663   6.337   2.552   4.051
74589SOL    HW125664   6.243   2.550   4.033
74589SOL    HW225665   6.356   2.643   4.071
74590SOL     OW25666   4.791  11.845  13.756
74590SOL    HW125667   4.761  11.849  13.665
74590SOL    HW225668   4.715  11.816  13.806
74591SOL     OW25669  12.782   6.773   8.352
74591SOL    HW125670  12.870   6.793   8.385
74591SOL    HW225671  12.740   6.724   8.423
74592SOL     OW25672   7.137   6.594   1.125
74592SOL    HW125673   7.104   6.636   1.205
74592SOL    HW225674   7.059   6.557   1.084
74593SOL     OW25675  11.756   4.690   8.877
74593SOL    HW125676  11.670   4.678   8.916
74593SOL    HW225677  11.767   4.615   8.819
74594SOL     OW25678   1.465   7.180   6.490
74594SOL    HW125679   1.546   7.166   6.440
74594SOL    HW225680   1.421   7.251   6.445
74595SOL     OW25681  13.508   3.293   5.395
74595SOL    HW125682  13.460   3.265   5.317
74595SOL    HW225683  13.600   3.290   5.369
74596SOL     OW25684   2.549   4.181   9.388
74596SOL    HW125685   2.456   4.160   9.376
74596SOL    HW225686   2.569   4.149   9.476
74597SOL     OW25687   9.556   6.429   7.904
74597SOL    HW125688   9.598   6.347   7.881
74597SOL    HW225689   9.572   6.487   7.829
74598SOL     OW25690  10.931  10.139   8.622
74598SOL    HW125691  10.843  10.129   8.585
74598SOL    HW225692  10.927  10.221   8.672
74599SOL     OW25693   5.702   2.319   7.699
74599SOL    HW125694   5.637   2.333   7.768
74599SOL    HW225695   5.743   2.404   7.687
74600SOL     OW25696   4.919  12.648   1.544
74600SOL    HW125697   4.926  12.590   1.468
74600SOL    HW225698   4.949  12.733   1.512
74601SOL     OW25699   5.214   1.375   8.079
74601SOL    HW125700   5.162   1.297   8.059
74601SOL    HW225701   5.213   1.381   8.175
74602SOL     OW25702   0.319   5.107   9.771
74602SOL    HW125703   0.369   5.072   9.698
74602SOL    HW225704   0.239   5.054   9.773
74603SOL     OW25705   1.745  12.785  13.950
74603SOL    HW125706   1.803  12.740  13.889
74603SOL    HW225707   1.657  12.755  13.928
74604SOL     OW25708   2.858  10.325  12.888
74604SOL    HW125709   2.851  10.420  12.880
74604SOL    HW225710   2.836  10.307  12.979
74605SOL     OW25711   7.850  13.891   2.506
74605SOL    HW125712   7.929  13.846   2.476
74605SOL    HW225713   7.801  13.823   2.554
74606SOL     OW25714  10.907  12.299   3.350
74606SOL    HW125715  10.839  12.266   3.408
74606SOL    HW225716  10.981  12.319   3.408
74607SOL     OW25717   6.261   7.533   2.127
74607SOL    HW125718   6.203   7.608   2.121
74607SOL    HW225719   6.210   7.467   2.175
74608SOL     OW25720  14.645   7.021   3.765
74608SOL    HW125721  14.601   6.941   3.794
74608SOL    HW225722  14.737   7.009   3.791
74609SOL     OW25723   2.706   7.853   6.011
74609SOL    HW125724   2.684   7.897   5.929
74609SOL    HW225725   2.718   7.761   5.987
74610SOL     OW25726  10.348  13.051   0.931
74610SOL    HW125727  10.414  13.118   0.949
74610SOL    HW225728  10.321  13.020   1.018
74611SOL     OW25729   9.703   5.879  13.014
74611SOL    HW125730   9.775   5.919  13.063
74611SOL    HW225731   9.736   5.792  12.990
74612SOL     OW25732   9.540  13.994   1.937
74612SOL    HW125733   9.625  14.021   1.902
74612SOL    HW225734   9.518  14.063   1.999
74613SOL     OW25735   0.249  14.656  11.429
74613SOL    HW125736   0.221  14.599  11.501
74613SOL    HW225737   0.169  14.677  11.383
74614SOL     OW25738   7.135  14.711  12.727
74614SOL    HW125739   7.081  14.632  12.723
74614SOL    HW225740   7.092  14.767  12.791
74615SOL     OW25741   3.318  14.702   9.147
74615SOL    HW125742   3.402  14.738   9.120
74615SOL    HW225743   3.259  14.777   9.149
74616SOL     OW25744  10.053   1.507   3.645
74616SOL    HW125745  10.009   1.431   3.608
74616SOL    HW225746  10.065   1.486   3.738
74617SOL     OW25747  10.298  11.499  14.725
74617SOL    HW125748  10.345  11.480  14.643
74617SOL    HW225749  10.366  11.500  14.792
74618SOL     OW25750   0.732   5.229  11.998
74618SOL    HW125751   0.727   5.270  11.912
74618SOL    HW225752   0.820   5.191  12.001
74619SOL     OW25753  11.717   9.184   4.700
74619SOL    HW125754  11.719   9.261   4.757
74619SOL    HW225755  11.756   9.114   4.753
74620SOL     OW25756  10.381   9.259  12.835
74620SOL    HW125757  10.403   9.333  12.890
74620SOL    HW225758  10.449   9.258  12.767
74621SOL     OW25759   9.330   8.946   7.866
74621SOL    HW125760   9.396   9.014   7.860
74621SOL    HW225761   9.348   8.902   7.949
74622SOL     OW25762  12.161   5.717   4.324
74622SOL    HW125763  12.139   5.624   4.331
74622SOL    HW225764  12.164   5.748   4.415
74623SOL     OW25765   2.369  13.546   9.642
74623SOL    HW125766   2.348  13.638   9.656
74623SOL    HW225767   2.422  13.522   9.718
74624SOL     OW25768   2.984   3.081   4.559
74624SOL    HW125769   3.030   3.130   4.490
74624SOL    HW225770   2.911   3.039   4.513
74625SOL     OW25771   2.997   3.778   7.289
74625SOL    HW125772   2.932   3.840   7.322
74625SOL    HW225773   3.081   3.814   7.317
74626SOL     OW25774   1.454   8.808   8.799
74626SOL    HW125775   1.478   8.729   8.847
74626SOL    HW225776   1.535   8.837   8.758
74627SOL     OW25777  14.865   6.212   9.629
74627SOL    HW125778  14.781   6.221   9.584
74627SOL    HW225779  14.854   6.136   9.685
74628SOL     OW25780  14.654   7.310   3.746
74628SOL    HW125781  14.747   7.333   3.747
74628SOL    HW225782  14.651   7.219   3.774
74629SOL     OW25783   3.340   6.303   9.013
74629SOL    HW125784   3.373   6.277   8.927
74629SOL    HW225785   3.383   6.386   9.031
74630SOL     OW25786   1.332  13.145   5.407
74630SOL    HW125787   1.404  13.096   5.448
74630SOL    HW225788   1.374  13.222   5.370
74631SOL     OW25789   5.215  11.146   1.836
74631SOL    HW125790   5.131  11.170   1.797
74631SOL    HW225791   5.242  11.223   1.886
74632SOL     OW25792  13.157  12.731   2.679
74632SOL    HW125793  13.224  12.720   2.747
74632SOL    HW225794  13.133  12.642   2.654
74633SOL     OW25795   9.123  13.748   8.725
74633SOL    HW125796   9.135  13.740   8.820
74633SOL    HW225797   9.118  13.842   8.710
74634SOL     OW25798  13.581  11.378   1.843
74634SOL    HW125799  13.496  11.338   1.865
74634SOL    HW225800  13.638  11.354   1.916
74635SOL     OW25801   1.059   7.872   3.314
74635SOL    HW125802   0.992   7.814   3.349
74635SOL    HW225803   1.011   7.945   3.276
74636SOL     OW25804   2.985   1.788   0.303
74636SOL    HW125805   2.900   1.744   0.306
74636SOL    HW225806   3.042   1.728   0.256
74637SOL     OW25807  11.060   0.036   3.519
74637SOL    HW125808  11.053   0.048   3.425
74637SOL    HW225809  11.148   0.068   3.541
74638SOL     OW25810   0.549   5.406  14.463
74638SOL    HW125811   0.620   5.359  14.505
74638SOL    HW225812   0.482   5.340  14.447
74639SOL     OW25813  10.233   4.192   5.834
74639SOL    HW125814  10.170   4.122   5.848
74639SOL    HW225815  10.294   4.156   5.769
74640SOL     OW25816   0.169   4.806   2.540
74640SOL    HW125817   0.112   4.874   2.577
74640SOL    HW225818   0.139   4.725   2.580
74641SOL     OW25819   9.251   4.944   0.914
74641SOL    HW125820   9.234   5.035   0.894
74641SOL    HW225821   9.190   4.922   0.985
74642SOL     OW25822   3.709  10.470  13.891
74642SOL    HW125823   3.792  10.483  13.937
74642SOL    HW225824   3.729  10.491  13.800
74643SOL     OW25825   6.650   6.662   6.800
74643SOL    HW125826   6.636   6.739   6.856
74643SOL    HW225827   6.566   6.648   6.757
74644SOL     OW25828   2.010   3.613   1.286
74644SOL    HW125829   2.103   3.593   1.274
74644SOL    HW225830   1.994   3.689   1.230
74645SOL     OW25831   4.037   8.675   1.554
74645SOL    HW125832   4.001   8.763   1.564
74645SOL    HW225833   4.118   8.688   1.504
74646SOL     OW25834  14.779   7.137   5.157
74646SOL    HW125835  14.777   7.144   5.253
74646SOL    HW225836  14.728   7.058   5.139
74647SOL     OW25837   0.886   3.340   8.351
74647SOL    HW125838   0.920   3.326   8.263
74647SOL    HW225839   0.868   3.434   8.356
74648SOL     OW25840  13.354   0.985   1.738
74648SOL    HW125841  13.302   1.058   1.771
74648SOL    HW225842  13.311   0.960   1.656
74649SOL     OW25843   4.261   5.882   8.205
74649SOL    HW125844   4.268   5.973   8.233
74649SOL    HW225845   4.237   5.835   8.285
74650SOL     OW25846  13.312  12.850   2.414
74650SOL    HW125847  13.347  12.800   2.488
74650SOL    HW225848  13.267  12.924   2.454
74651SOL     OW25849   8.455   2.014  11.078
74651SOL    HW125850   8.465   1.944  11.013
74651SOL    HW225851   8.476   2.094  11.030
74652SOL     OW25852   0.025   3.385   9.636
74652SOL    HW125853   0.076   3.462   9.611
74652SOL    HW225854  14.837   3.418   9.694
74653SOL     OW25855   1.654   1.646   7.691
74653SOL    HW125856   1.577   1.615   7.738
74653SOL    HW225857   1.728   1.614   7.743
74654SOL     OW25858   1.906   5.774   4.187
74654SOL    HW125859   1.899   5.751   4.280
74654SOL    HW225860   1.816   5.780   4.157
74655SOL     OW25861  14.294  14.215  11.876
74655SOL    HW125862  14.368  14.243  11.822
74655SOL    HW225863  14.272  14.292  11.928
74656SOL     OW25864  11.040   0.676   2.461
74656SOL    HW125865  11.099   0.631   2.401
74656SOL    HW225866  10.961   0.693   2.410
74657SOL     OW25867   0.328   9.243   5.302
74657SOL    HW125868   0.414   9.279   5.282
74657SOL    HW225869   0.331   9.225   5.396
74658SOL     OW25870   8.949  10.634   6.230
74658SOL    HW125871   8.980  10.724   6.221
74658SOL    HW225872   9.028  10.580   6.217
74659SOL     OW25873  14.877   8.022   1.621
74659SOL    HW125874  14.846   7.953   1.562
74659SOL    HW225875   0.081   7.989   1.653
74660SOL     OW25876  12.589  10.915   1.916
74660SOL    HW125877  12.616  11.003   1.891
74660SOL    HW225878  12.498  10.908   1.886
74661SOL     OW25879   3.996  12.256  14.526
74661SOL    HW125880   3.908  12.293  14.534
74661SOL    HW225881   3.989  12.170  14.567
74662SOL     OW25882   7.221   7.448  14.443
74662SOL    HW125883   7.234   7.532  14.399
74662SOL    HW225884   7.248   7.463  14.533
74663SOL     OW25885   7.761   6.126   1.901
74663SOL    HW125886   7.670   6.102   1.918
74663SOL    HW225887   7.792   6.165   1.982
74664SOL     OW25888  13.562  14.196   7.922
74664SOL    HW125889  13.593  14.149   7.999
74664SOL    HW225890  13.501  14.261   7.957
74665SOL     OW25891   6.317  10.424   0.002
74665SOL    HW125892   6.269  10.472   0.069
74665SOL    HW225893   6.260  10.425  14.805
74666SOL     OW25894  14.013   5.559   8.563
74666SOL    HW125895  13.989   5.583   8.653
74666SOL    HW225896  13.935   5.516   8.528
74667SOL     OW25897   0.007  12.056  13.246
74667SOL    HW125898  14.792  12.048  13.239
74667SOL    HW225899   0.040  11.972  13.214
74668SOL     OW25900   8.451  14.234   7.718
74668SOL    HW125901   8.462  14.278   7.803
74668SOL    HW225902   8.359  14.208   7.716
74669SOL     OW25903   4.635   3.634  13.825
74669SOL    HW125904   4.687   3.616  13.904
74669SOL    HW225905   4.589   3.552  13.807
74670SOL     OW25906  14.268   8.670   4.141
74670SOL    HW125907  14.277   8.575   4.131
74670SOL    HW225908  14.203   8.695   4.075
74671SOL     OW25909  12.536  14.075   1.943
74671SOL    HW125910  12.489  14.154   1.914
74671SOL    HW225911  12.618  14.108   1.978
74672SOL     OW25912   1.508   8.572   3.993
74672SOL    HW125913   1.462   8.552   3.912
74672SOL    HW225914   1.570   8.500   4.004
74673SOL     OW25915  14.575  12.218   6.047
74673SOL    HW125916  14.489  12.239   6.012
74673SOL    HW225917  14.627  12.297   6.032
74674SOL     OW25918  12.283  11.394   3.543
74674SOL    HW125919  12.250  11.483   3.529
74674SOL    HW225920  12.359  11.388   3.485
74675SOL     OW25921   1.977   1.968   2.105
74675SOL    HW125922   1.993   1.956   2.012
74675SOL    HW225923   2.062   1.991   2.142
74676SOL     OW25924   6.375   2.495   7.582
74676SOL    HW125925   6.290   2.538   7.579
74676SOL    HW225926   6.435   2.562   7.616
74677SOL     OW25927   1.327  11.362   5.446
74677SOL    HW125928   1.399  11.319   5.400
74677SOL    HW225929   1.250  11.311   5.422
74678SOL     OW25930   6.179   9.436   4.408
74678SOL    HW125931   6.272   9.455   4.396
74678SOL    HW225932   6.175   9.388   4.491
74679SOL     OW25933  14.124   5.646   0.742
74679SOL    HW125934  14.198   5.695   0.705
74679SOL    HW225935  14.160   5.604   0.821
74680SOL     OW25936   7.278   2.892   1.435
74680SOL    HW125937   7.340   2.822   1.415
74680SOL    HW225938   7.316   2.937   1.511
74681SOL     OW25939   2.320   8.092   5.771
74681SOL    HW125940   2.355   8.165   5.822
74681SOL    HW225941   2.393   8.031   5.764
74682SOL     OW25942   0.767  11.809   8.330
74682SOL    HW125943   0.806  11.895   8.343
74682SOL    HW225944   0.762  11.800   8.234
74683SOL     OW25945   5.588   1.671   5.032
74683SOL    HW125946   5.517   1.675   5.096
74683SOL    HW225947   5.558   1.727   4.960
74684SOL     OW25948   8.814   4.493   7.059
74684SOL    HW125949   8.761   4.538   7.125
74684SOL    HW225950   8.752   4.474   6.988
74685SOL     OW25951   7.368   5.049   2.499
74685SOL    HW125952   7.373   5.110   2.572
74685SOL    HW225953   7.444   4.992   2.510
74686SOL     OW25954   2.169   4.806  10.501
74686SOL    HW125955   2.218   4.842  10.574
74686SOL    HW225956   2.232   4.751  10.454
74687SOL     OW25957  12.792   6.843   3.950
74687SOL    HW125958  12.726   6.777   3.971
74687SOL    HW225959  12.859   6.796   3.900
74688SOL     OW25960   4.345   8.556   4.246
74688SOL    HW125961   4.255   8.542   4.276
74688SOL    HW225962   4.365   8.646   4.272
74689SOL     OW25963   5.828   9.205   6.368
74689SOL    HW125964   5.850   9.112   6.372
74689SOL    HW225965   5.832   9.226   6.275
74690SOL     OW25966   4.675  11.724   0.901
74690SOL    HW125967   4.754  11.729   0.957
74690SOL    HW225968   4.689  11.645   0.849
74691SOL     OW25969   9.491  12.058   5.786
74691SOL    HW125970   9.580  12.026   5.793
74691SOL    HW225971   9.487  12.101   5.701
74692SOL     OW25972   4.248   7.597  13.596
74692SOL    HW125973   4.319   7.660  13.609
74692SOL    HW225974   4.204   7.593  13.681
74693SOL     OW25975  14.582  14.856   2.764
74693SOL    HW125976  14.668  14.857   2.806
74693SOL    HW225977  14.524   0.019   2.827
74694SOL     OW25978   7.376   8.365   6.474
74694SOL    HW125979   7.324   8.440   6.503
74694SOL    HW225980   7.457   8.403   6.440
74695SOL     OW25981   5.856  11.733   5.993
74695SOL    HW125982   5.839  11.660   5.934
74695SOL    HW225983   5.770  11.769   6.013
74696SOL     OW25984  10.724   7.480  10.488
74696SOL    HW125985  10.818   7.495  10.496
74696SOL    HW225986  10.684   7.564  10.509
74697SOL     OW25987  11.921   7.010  14.778
74697SOL    HW125988  11.939   7.066  14.702
74697SOL    HW225989  11.831   7.032  14.803
74698SOL     OW25990   4.704   4.678   4.897
74698SOL    HW125991   4.728   4.586   4.900
74698SOL    HW225992   4.714   4.708   4.987
74699SOL     OW25993   3.286   7.612   2.192
74699SOL    HW125994   3.367   7.644   2.231
74699SOL    HW225995   3.235   7.691   2.176
74700SOL     OW25996  13.240   7.852   1.027
74700SOL    HW125997  13.199   7.880   0.945
74700SOL    HW225998  13.262   7.760   1.012
74701SOL     OW25999   8.764   5.463  11.253
74701SOL    HW126000   8.718   5.417  11.183
74701SOL    HW226001   8.768   5.399  11.325
74702SOL     OW26002  12.098   7.188   3.042
74702SOL    HW126003  12.193   7.172   3.046
74702SOL    HW226004  12.078   7.190   2.949
74703SOL     OW26005  13.832   9.408   3.660
74703SOL    HW126006  13.812   9.466   3.733
74703SOL    HW226007  13.820   9.461   3.582
74704SOL     OW26008  12.124   1.979   9.107
74704SOL    HW126009  12.152   2.053   9.161
74704SOL    HW226010  12.030   1.973   9.123
74705SOL     OW26011   7.630   7.481  13.600
74705SOL    HW126012   7.544   7.507  13.566
74705SOL    HW226013   7.692   7.537  13.553
74706SOL     OW26014  12.763   4.033   0.343
74706SOL    HW126015  12.825   4.053   0.414
74706SOL    HW226016  12.751   3.938   0.348
74707SOL     OW26017  11.921   0.812   1.061
74707SOL    HW126018  11.844   0.757   1.049
74707SOL    HW226019  11.886   0.900   1.075
74708SOL     OW26020   9.710   9.683  11.100
74708SOL    HW126021   9.774   9.616  11.075
74708SOL    HW226022   9.720   9.752  11.035
74709SOL     OW26023   5.180   2.985   3.743
74709SOL    HW126024   5.098   2.937   3.730
74709SOL    HW226025   5.168   3.066   3.693
74710SOL     OW26026  13.869  12.469  12.056
74710SOL    HW126027  13.804  12.477  12.125
74710SOL    HW226028  13.824  12.500  11.977
74711SOL     OW26029   4.754  14.043   0.827
74711SOL    HW126030   4.803  14.055   0.746
74711SOL    HW226031   4.792  13.965   0.867
74712SOL     OW26032   1.777  10.477  11.860
74712SOL    HW126033   1.823  10.426  11.927
74712SOL    HW226034   1.846  10.501  11.798
74713SOL     OW26035   3.951  11.537   7.698
74713SOL    HW126036   3.898  11.578   7.766
74713SOL    HW226037   4.038  11.576   7.707
74714SOL     OW26038  10.439   4.895   0.244
74714SOL    HW126039  10.348   4.890   0.216
74714SOL    HW226040  10.477   4.967   0.193
74715SOL     OW26041   3.067   2.017   4.982
74715SOL    HW126042   3.080   1.951   4.915
74715SOL    HW226043   3.145   2.073   4.976
74716SOL     OW26044   7.826  11.337   0.958
74716SOL    HW126045   7.791  11.316   1.045
74716SOL    HW226046   7.887  11.266   0.938
74717SOL     OW26047   7.795   7.531   1.344
74717SOL    HW126048   7.830   7.444   1.363
74717SOL    HW226049   7.866   7.591   1.370
74718SOL     OW26050  10.606  13.929  13.823
74718SOL    HW126051  10.584  13.947  13.914
74718SOL    HW226052  10.662  13.851  13.826
74719SOL     OW26053   7.623   3.327   9.943
74719SOL    HW126054   7.674   3.345  10.022
74719SOL    HW226055   7.619   3.232   9.938
74720SOL     OW26056  12.486   3.814  12.331
74720SOL    HW126057  12.433   3.866  12.392
74720SOL    HW226058  12.575   3.820  12.367
74721SOL     OW26059   9.726   9.832   4.874
74721SOL    HW126060   9.634   9.832   4.897
74721SOL    HW226061   9.750   9.925   4.871
74722SOL     OW26062   6.689   8.107   8.698
74722SOL    HW126063   6.758   8.156   8.655
74722SOL    HW226064   6.672   8.155   8.779
74723SOL     OW26065   6.194   3.621   0.660
74723SOL    HW126066   6.146   3.540   0.677
74723SOL    HW226067   6.147   3.662   0.588
74724SOL     OW26068   0.711   1.448  14.380
74724SOL    HW126069   0.749   1.383  14.440
74724SOL    HW226070   0.711   1.529  14.430
74725SOL     OW26071   1.959  14.468   5.783
74725SOL    HW126072   1.946  14.557   5.749
74725SOL    HW226073   1.979  14.481   5.876
74726SOL     OW26074   2.322   9.966   8.104
74726SOL    HW126075   2.302   9.955   8.197
74726SOL    HW226076   2.371  10.048   8.099
74727SOL     OW26077  12.895   9.776   4.764
74727SOL    HW126078  12.984   9.741   4.765
74727SOL    HW226079  12.839   9.701   4.786
74728SOL     OW26080   6.564  13.614   0.842
74728SOL    HW126081   6.619  13.559   0.785
74728SOL    HW226082   6.511  13.551   0.892
74729SOL     OW26083   0.346   5.708  13.393
74729SOL    HW126084   0.415   5.670  13.446
74729SOL    HW226085   0.319   5.638  13.334
74730SOL     OW26086   0.043   7.508  13.815
74730SOL    HW126087   0.046   7.455  13.895
74730SOL    HW226088   0.124   7.559  13.817
74731SOL     OW26089   5.811   3.754   8.478
74731SOL    HW126090   5.859   3.713   8.406
74731SOL    HW226091   5.734   3.793   8.437
74732SOL     OW26092  10.998  14.584  13.952
74732SOL    HW126093  10.964  14.583  14.042
74732SOL    HW226094  10.921  14.578  13.897
74733SOL     OW26095   3.488  12.737   7.045
74733SOL    HW126096   3.512  12.805   6.982
74733SOL    HW226097   3.392  12.731   7.038
74734SOL     OW26098   2.068   7.693   4.124
74734SOL    HW126099   2.143   7.662   4.175
74734SOL    HW226100   2.063   7.634   4.050
74735SOL     OW26101   7.611   4.404   7.421
74735SOL    HW126102   7.640   4.339   7.484
74735SOL    HW226103   7.525   4.373   7.392
74736SOL     OW26104  11.136  13.893   7.401
74736SOL    HW126105  11.152  13.847   7.318
74736SOL    HW226106  11.193  13.849   7.464
74737SOL     OW26107   6.301   8.193  12.471
74737SOL    HW126108   6.230   8.138  12.505
74737SOL    HW226109   6.379   8.138  12.478
74738SOL     OW26110  14.068   6.139   1.625
74738SOL    HW126111  14.032   6.212   1.674
74738SOL    HW226112  14.064   6.167   1.534
74739SOL     OW26113  10.276  10.731   1.601
74739SOL    HW126114  10.208  10.708   1.665
74739SOL    HW226115  10.357  10.728   1.652
74740SOL     OW26116   4.666   4.852  13.936
74740SOL    HW126117   4.635   4.765  13.964
74740SOL    HW226118   4.588   4.908  13.944
74741SOL     OW26119   8.922   4.077   6.624
74741SOL    HW126120   8.885   3.990   6.639
74741SOL    HW226121   8.852   4.137   6.650
74742SOL     OW26122  14.553   9.248   1.361
74742SOL    HW126123  14.553   9.288   1.274
74742SOL    HW226124  14.498   9.305   1.415
74743SOL     OW26125   5.297   5.127   2.409
74743SOL    HW126126   5.258   5.057   2.356
74743SOL    HW226127   5.391   5.122   2.390
74744SOL     OW26128   3.015   2.800   3.144
74744SOL    HW126129   2.939   2.742   3.135
74744SOL    HW226130   2.984   2.871   3.200
74745SOL     OW26131   4.248   7.173   5.001
74745SOL    HW126132   4.313   7.204   4.938
74745SOL    HW226133   4.168   7.219   4.978
74746SOL     OW26134   5.931   1.904  10.436
74746SOL    HW126135   5.984   1.932  10.511
74746SOL    HW226136   5.890   1.984  10.404
74747SOL     OW26137   9.060   9.093   1.035
74747SOL    HW126138   9.097   9.097   0.947
74747SOL    HW226139   9.129   9.130   1.091
74748SOL     OW26140  12.793  12.491   5.809
74748SOL    HW126141  12.779  12.409   5.762
74748SOL    HW226142  12.863  12.471   5.871
74749SOL     OW26143  12.218   6.173  10.714
74749SOL    HW126144  12.208   6.175  10.809
74749SOL    HW226145  12.179   6.255  10.684
74750SOL     OW26146   6.962   4.519   0.839
74750SOL    HW126147   6.925   4.606   0.855
74750SOL    HW226148   6.888   4.460   0.851
74751SOL     OW26149   2.812   4.814   2.073
74751SOL    HW126150   2.835   4.764   2.151
74751SOL    HW226151   2.738   4.868   2.101
74752SOL     OW26152   1.436   4.866   2.512
74752SOL    HW126153   1.463   4.878   2.603
74752SOL    HW226154   1.399   4.951   2.487
74753SOL     OW26155   7.856   9.128  10.950
74753SOL    HW126156   7.819   9.042  10.971
74753SOL    HW226157   7.916   9.146  11.023
74754SOL     OW26158   5.673   1.449  13.774
74754SOL    HW126159   5.687   1.358  13.749
74754SOL    HW226160   5.615   1.444  13.850
74755SOL     OW26161   3.315   3.964   5.100
74755SOL    HW126162   3.385   4.029   5.093
74755SOL    HW226163   3.357   3.888   5.140
74756SOL     OW26164   6.383   6.824   3.613
74756SOL    HW126165   6.299   6.869   3.605
74756SOL    HW226166   6.425   6.862   3.690
74757SOL     OW26167   4.712  13.077   3.687
74757SOL    HW126168   4.649  13.130   3.639
74757SOL    HW226169   4.767  13.141   3.733
74758SOL     OW26170   8.506   7.801   8.855
74758SOL    HW126171   8.486   7.882   8.901
74758SOL    HW226172   8.482   7.732   8.917
74759SOL     OW26173  12.619   4.570  10.056
74759SOL    HW126174  12.614   4.635  10.127
74759SOL    HW226175  12.701   4.590  10.011
74760SOL     OW26176  12.074  13.455   4.323
74760SOL    HW126177  12.137  13.419   4.261
74760SOL    HW226178  12.113  13.440   4.409
74761SOL     OW26179   7.003   1.659  12.050
74761SOL    HW126180   7.033   1.585  11.997
74761SOL    HW226181   6.922   1.628  12.090
74762SOL     OW26182  10.904  11.625   3.541
74762SOL    HW126183  10.900  11.576   3.459
74762SOL    HW226184  10.972  11.581   3.591
74763SOL     OW26185  14.730   4.204   1.270
74763SOL    HW126186  14.677   4.130   1.299
74763SOL    HW226187  14.667   4.269   1.240
74764SOL     OW26188   5.866   5.994   2.022
74764SOL    HW126189   5.821   5.943   1.954
74764SOL    HW226190   5.865   5.938   2.099
74765SOL     OW26191  13.979  10.531   1.726
74765SOL    HW126192  13.992  10.530   1.632
74765SOL    HW226193  14.066  10.542   1.763
74766SOL     OW26194   0.444  11.000   3.601
74766SOL    HW126195   0.531  11.011   3.563
74766SOL    HW226196   0.387  11.055   3.546
74767SOL     OW26197   5.805   2.396   0.242
74767SOL    HW126198   5.753   2.476   0.243
74767SOL    HW226199   5.862   2.405   0.166
74768SOL     OW26200   0.429   5.170   2.383
74768SOL    HW126201   0.355   5.180   2.443
74768SOL    HW226202   0.468   5.086   2.408
74769SOL     OW26203  11.484   5.616   1.168
74769SOL    HW126204  11.476   5.603   1.262
74769SOL    HW226205  11.492   5.527   1.132
74770SOL     OW26206   4.301  14.028   1.362
74770SOL    HW126207   4.314  14.011   1.268
74770SOL    HW226208   4.213  13.993   1.380
74771SOL     OW26209   8.058  11.997  11.135
74771SOL    HW126210   7.983  12.053  11.153
74771SOL    HW226211   8.056  11.984  11.040
74772SOL     OW26212   2.391   5.548   3.397
74772SOL    HW126213   2.453   5.492   3.443
74772SOL    HW226214   2.371   5.501   3.317
74773SOL     OW26215   1.045   8.282   8.460
74773SOL    HW126216   1.100   8.296   8.383
74773SOL    HW226217   1.082   8.205   8.503
74774SOL     OW26218  14.102   8.499   9.734
74774SOL    HW126219  14.196   8.496   9.753
74774SOL    HW226220  14.093   8.455   9.649
74775SOL     OW26221   4.124   0.699   9.540
74775SOL    HW126222   4.219   0.703   9.532
74775SOL    HW226223   4.092   0.707   9.450
74776SOL     OW26224   8.919  10.487  14.141
74776SOL    HW126225   8.911  10.392  14.148
74776SOL    HW226226   8.890  10.507  14.052
74777SOL     OW26227  11.324   1.133   7.548
74777SOL    HW126228  11.366   1.201   7.497
74777SOL    HW226229  11.249   1.106   7.495
74778SOL     OW26230  13.328   9.976  11.728
74778SOL    HW126231  13.359  10.042  11.790
74778SOL    HW226232  13.233   9.985  11.729
74779SOL     OW26233  14.126   5.910  10.707
74779SOL    HW126234  14.178   5.967  10.763
74779SOL    HW226235  14.094   5.968  10.638
74780SOL     OW26236   2.519  13.059  12.119
74780SOL    HW126237   2.432  13.022  12.129
74780SOL    HW226238   2.570  13.021  12.190
74781SOL     OW26239   2.236   4.375   7.380
74781SOL    HW126240   2.209   4.346   7.467
74781SOL    HW226241   2.161   4.423   7.345
74782SOL     OW26242   0.964   9.617  11.417
74782SOL    HW126243   0.924   9.641  11.334
74782SOL    HW226244   1.020   9.692  11.439
74783SOL     OW26245   8.613  14.332   3.281
74783SOL    HW126246   8.625  14.342   3.187
74783SOL    HW226247   8.685  14.276   3.309
74784SOL     OW26248   7.184   6.743  10.502
74784SOL    HW126249   7.138   6.799  10.564
74784SOL    HW226250   7.115   6.704  10.448
74785SOL     OW26251   0.195  12.890   0.054
74785SOL    HW126252   0.263  12.886   0.121
74785SOL    HW226253   0.216  12.968   0.003
74786SOL     OW26254   3.731  10.636   0.461
74786SOL    HW126255   3.759  10.609   0.548
74786SOL    HW226256   3.690  10.557   0.424
74787SOL     OW26257  12.794   7.867   0.071
74787SOL    HW126258  12.775   7.785   0.116
74787SOL    HW226259  12.794   7.933   0.141
74788SOL     OW26260   4.555  12.985  10.596
74788SOL    HW126261   4.642  13.024  10.601
74788SOL    HW226262   4.500  13.055  10.560
74789SOL     OW26263  12.922   2.112   8.373
74789SOL    HW126264  13.008   2.127   8.334
74789SOL    HW226265  12.937   2.042   8.437
74790SOL     OW26266  13.996   2.581  11.034
74790SOL    HW126267  13.905   2.555  11.024
74790SOL    HW226268  14.012   2.642  10.961
74791SOL     OW26269   6.802   3.800  14.878
74791SOL    HW126270   6.751   3.832   0.072
74791SOL    HW226271   6.842   3.719   0.029
74792SOL     OW26272   1.787   9.252   8.993
74792SOL    HW126273   1.854   9.287   8.934
74792SOL    HW226274   1.818   9.273   9.080
74793SOL     OW26275   4.905   9.605   5.399
74793SOL    HW126276   4.954   9.687   5.384
74793SOL    HW226277   4.894   9.600   5.494
74794SOL     OW26278   5.716   1.209  12.364
74794SOL    HW126279   5.626   1.228  12.340
74794SOL    HW226280   5.768   1.246  12.292
74795SOL     OW26281   5.541  10.122   6.256
74795SOL    HW126282   5.551  10.213   6.230
74795SOL    HW226283   5.451  10.117   6.289
74796SOL     OW26284   8.321  12.535  12.292
74796SOL    HW126285   8.270  12.603  12.335
74796SOL    HW226286   8.277  12.519  12.209
74797SOL     OW26287   9.459  14.227  13.379
74797SOL    HW126288   9.554  14.212  13.381
74797SOL    HW226289   9.429  14.207  13.468
74798SOL     OW26290   8.362   2.637   5.465
74798SOL    HW126291   8.286   2.583   5.482
74798SOL    HW226292   8.406   2.594   5.391
74799SOL     OW26293  14.020   8.761  13.913
74799SOL    HW126294  14.025   8.732  13.822
74799SOL    HW226295  13.936   8.728  13.945
74800SOL     OW26296   8.636  11.915   1.677
74800SOL    HW126297   8.716  11.920   1.624
74800SOL    HW226298   8.607  11.824   1.668
74801SOL     OW26299  10.577  10.877   0.194
74801SOL    HW126300  10.499  10.919   0.232
74801SOL    HW226301  10.546  10.792   0.163
74802SOL     OW26302   2.764   0.280   4.118
74802SOL    HW126303   2.820   0.232   4.179
74802SOL    HW226304   2.802   0.368   4.115
74803SOL     OW26305   7.448   6.563   1.242
74803SOL    HW126306   7.470   6.524   1.326
74803SOL    HW226307   7.385   6.502   1.203
74804SOL     OW26308   2.453   8.835   3.087
74804SOL    HW126309   2.522   8.878   3.138
74804SOL    HW226310   2.500   8.780   3.024
74805SOL     OW26311  11.149  12.003  12.454
74805SOL    HW126312  11.217  12.051  12.500
74805SOL    HW226313  11.189  11.919  12.432
74806SOL     OW26314   7.035   2.798   1.942
74806SOL    HW126315   7.027   2.875   1.885
74806SOL    HW226316   7.002   2.827   2.027
74807SOL     OW26317   7.240  13.317  12.842
74807SOL    HW126318   7.265  13.245  12.900
74807SOL    HW226319   7.233  13.393  12.900
74808SOL     OW26320   5.169   5.691   6.066
74808SOL    HW126321   5.264   5.682   6.068
74808SOL    HW226322   5.154   5.783   6.045
74809SOL     OW26323   1.785   8.628   9.709
74809SOL    HW126324   1.872   8.667   9.711
74809SOL    HW226325   1.759   8.621   9.801
74810SOL     OW26326   4.173   6.304   5.042
74810SOL    HW126327   4.174   6.209   5.055
74810SOL    HW226328   4.265   6.326   5.023
74811SOL     OW26329  11.442   8.052  11.537
74811SOL    HW126330  11.502   7.989  11.578
74811SOL    HW226331  11.371   7.999  11.501
74812SOL     OW26332   8.507  11.052   6.268
74812SOL    HW126333   8.600  11.029   6.268
74812SOL    HW226334   8.504  11.144   6.242
74813SOL     OW26335   0.204   0.682   3.309
74813SOL    HW126336   0.248   0.765   3.324
74813SOL    HW226337   0.228   0.657   3.220
74814SOL     OW26338   5.744  12.539   4.848
74814SOL    HW126339   5.715  12.622   4.810
74814SOL    HW226340   5.757  12.558   4.941
74815SOL     OW26341   6.628   5.495   2.512
74815SOL    HW126342   6.589   5.565   2.460
74815SOL    HW226343   6.640   5.423   2.450
74816SOL     OW26344   3.365   8.855   4.230
74816SOL    HW126345   3.355   8.837   4.324
74816SOL    HW226346   3.432   8.793   4.201
74817SOL     OW26347   7.279  13.485   9.795
74817SOL    HW126348   7.206  13.494   9.856
74817SOL    HW226349   7.344  13.549   9.825
74818SOL     OW26350  10.431  11.690   6.684
74818SOL    HW126351  10.398  11.600   6.682
74818SOL    HW226352  10.505  11.689   6.623
74819SOL     OW26353  10.912  11.568   2.779
74819SOL    HW126354  10.938  11.550   2.688
74819SOL    HW226355  10.992  11.553   2.829
74820SOL     OW26356   2.458  11.841   8.545
74820SOL    HW126357   2.473  11.748   8.529
74820SOL    HW226358   2.546  11.880   8.545
74821SOL     OW26359   6.058   3.755   6.142
74821SOL    HW126360   6.066   3.777   6.235
74821SOL    HW226361   6.118   3.682   6.129
74822SOL     OW26362   8.568   6.175  11.249
74822SOL    HW126363   8.638   6.208  11.193
74822SOL    HW226364   8.597   6.088  11.275
74823SOL     OW26365   3.143   9.360   2.420
74823SOL    HW126366   3.121   9.294   2.486
74823SOL    HW226367   3.073   9.355   2.356
74824SOL     OW26368  13.215   6.471   2.324
74824SOL    HW126369  13.234   6.540   2.260
74824SOL    HW226370  13.159   6.409   2.277
74825SOL     OW26371   8.001   7.098   9.875
74825SOL    HW126372   8.000   7.113   9.781
74825SOL    HW226373   8.033   7.008   9.884
74826SOL     OW26374   1.363   0.279   4.715
74826SOL    HW126375   1.457   0.291   4.700
74826SOL    HW226376   1.352   0.300   4.808
74827SOL     OW26377   8.025   6.262   1.478
74827SOL    HW126378   7.949   6.304   1.437
74827SOL    HW226379   7.988   6.212   1.551
74828SOL     OW26380   3.490  13.555   0.330
74828SOL    HW126381   3.452  13.643   0.328
74828SOL    HW226382   3.581  13.568   0.357
74829SOL     OW26383   2.640   5.193   2.820
74829SOL    HW126384   2.555   5.161   2.851
74829SOL    HW226385   2.669   5.253   2.889
74830SOL     OW26386  10.387   5.067  12.463
74830SOL    HW126387  10.464   5.053  12.408
74830SOL    HW226388  10.338   5.137  12.420
74831SOL     OW26389   6.064   1.775  14.648
74831SOL    HW126390   6.158   1.768  14.634
74831SOL    HW226391   6.034   1.685  14.662
74832SOL     OW26392   7.938  10.836   7.656
74832SOL    HW126393   7.991  10.870   7.584
74832SOL    HW226394   7.907  10.751   7.624
74833SOL     OW26395   1.645   6.575   3.717
74833SOL    HW126396   1.571   6.546   3.769
74833SOL    HW226397   1.713   6.595   3.781
74834SOL     OW26398  10.506   8.528  10.292
74834SOL    HW126399  10.560   8.456  10.326
74834SOL    HW226400  10.430   8.485  10.254
74835SOL     OW26401   4.730   5.557  14.186
74835SOL    HW126402   4.713   5.480  14.131
74835SOL    HW226403   4.818   5.585  14.162
74836SOL     OW26404   1.809   5.656   9.691
74836SOL    HW126405   1.849   5.574   9.719
74836SOL    HW226406   1.883   5.714   9.672
74837SOL     OW26407   1.967   3.490   0.625
74837SOL    HW126408   2.056   3.523   0.609
74837SOL    HW226409   1.916   3.568   0.648
74838SOL     OW26410   8.926   2.028  13.592
74838SOL    HW126411   8.906   1.955  13.534
74838SOL    HW226412   8.941   1.988  13.678
74839SOL     OW26413   5.183   2.447   5.381
74839SOL    HW126414   5.251   2.506   5.414
74839SOL    HW226415   5.167   2.385   5.453
74840SOL     OW26416  12.243  13.734   2.646
74840SOL    HW126417  12.250  13.766   2.556
74840SOL    HW226418  12.278  13.806   2.699
74841SOL     OW26419   4.577  14.269   5.734
74841SOL    HW126420   4.511  14.213   5.694
74841SOL    HW226421   4.635  14.295   5.662
74842SOL     OW26422  13.546   8.809  13.199
74842SOL    HW126423  13.640   8.801  13.189
74842SOL    HW226424  13.510   8.768  13.120
74843SOL     OW26425  13.828   9.932   6.001
74843SOL    HW126426  13.750   9.983   5.982
74843SOL    HW226427  13.807   9.843   5.971
74844SOL     OW26428  10.202  11.312   3.113
74844SOL    HW126429  10.237  11.278   3.195
74844SOL    HW226430  10.271  11.369   3.079
74845SOL     OW26431  14.333   0.071   4.431
74845SOL    HW126432  14.352   0.147   4.486
74845SOL    HW226433  14.389   0.001   4.466
74846SOL     OW26434   1.504   6.483   6.533
74846SOL    HW126435   1.516   6.459   6.441
74846SOL    HW226436   1.432   6.427   6.563
74847SOL     OW26437  13.824   3.495   5.537
74847SOL    HW126438  13.844   3.429   5.603
74847SOL    HW226439  13.742   3.535   5.567
74848SOL     OW26440  13.888   7.405   6.379
74848SOL    HW126441  13.907   7.369   6.292
74848SOL    HW226442  13.821   7.472   6.364
74849SOL     OW26443  12.053   0.529   2.765
74849SOL    HW126444  11.995   0.455   2.749
74849SOL    HW226445  12.020   0.599   2.708
74850SOL     OW26446   2.384  14.810   6.997
74850SOL    HW126447   2.458  14.820   6.937
74850SOL    HW226448   2.400  14.875   7.066
74851SOL     OW26449   3.170   5.244   5.181
74851SOL    HW126450   3.154   5.338   5.189
74851SOL    HW226451   3.086   5.203   5.201
74852SOL     OW26452   4.890   7.286  11.827
74852SOL    HW126453   4.801   7.272  11.795
74852SOL    HW226454   4.882   7.285  11.923
74853SOL     OW26455  10.817   1.646   2.612
74853SOL    HW126456  10.903   1.605   2.624
74853SOL    HW226457  10.755   1.575   2.630
74854SOL     OW26458   6.910   0.880   8.808
74854SOL    HW126459   6.921   0.793   8.768
74854SOL    HW226460   6.919   0.865   8.902
74855SOL     OW26461   0.789  11.740   2.016
74855SOL    HW126462   0.808  11.791   2.094
74855SOL    HW226463   0.717  11.786   1.973
74856SOL     OW26464   4.023   1.356   9.950
74856SOL    HW126465   4.100   1.324   9.903
74856SOL    HW226466   4.008   1.444   9.917
74857SOL     OW26467   3.096   1.221   9.732
74857SOL    HW126468   3.081   1.145   9.788
74857SOL    HW226469   3.012   1.237   9.691
74858SOL     OW26470   2.225   2.199   2.614
74858SOL    HW126471   2.197   2.165   2.529
74858SOL    HW226472   2.182   2.142   2.678
74859SOL     OW26473   0.443   6.033   9.022
74859SOL    HW126474   0.475   6.056   9.110
74859SOL    HW226475   0.494   5.955   8.999
74860SOL     OW26476  14.544  12.237   2.686
74860SOL    HW126477  14.600  12.248   2.763
74860SOL    HW226478  14.596  12.182   2.627
74861SOL     OW26479  13.928   9.752   2.580
74861SOL    HW126480  13.962   9.779   2.665
74861SOL    HW226481  13.834   9.768   2.585
74862SOL     OW26482  11.751  13.484  13.476
74862SOL    HW126483  11.668  13.442  13.455
74862SOL    HW226484  11.735  13.577  13.464
74863SOL     OW26485  12.585   4.828   6.557
74863SOL    HW126486  12.640   4.904   6.539
74863SOL    HW226487  12.595   4.812   6.651
74864SOL     OW26488  12.816  14.779   2.918
74864SOL    HW126489  12.905  14.746   2.923
74864SOL    HW226490  12.763  14.702   2.896
74865SOL     OW26491   0.393   7.181   2.735
74865SOL    HW126492   0.340   7.227   2.800
74865SOL    HW226493   0.330   7.149   2.671
74866SOL     OW26494   3.625  10.257   0.710
74866SOL    HW126495   3.551  10.211   0.750
74866SOL    HW226496   3.640  10.210   0.628
74867SOL     OW26497   9.802  12.215   5.132
74867SOL    HW126498   9.719  12.255   5.106
74867SOL    HW226499   9.790  12.121   5.116
74868SOL     OW26500   0.029   5.472  11.781
74868SOL    HW126501   0.015   5.547  11.839
74868SOL    HW226502   0.123   5.458  11.782
74869SOL     OW26503   2.841   4.829  11.540
74869SOL    HW126504   2.887   4.899  11.492
74869SOL    HW226505   2.762   4.813  11.489
74870SOL     OW26506   2.704  12.717  10.383
74870SOL    HW126507   2.796  12.694  10.400
74870SOL    HW226508   2.676  12.656  10.315
74871SOL     OW26509  12.429   9.897   0.822
74871SOL    HW126510  12.461   9.839   0.752
74871SOL    HW226511  12.360   9.848   0.865
74872SOL     OW26512   0.614   9.678   1.214
74872SOL    HW126513   0.639   9.635   1.133
74872SOL    HW226514   0.534   9.726   1.192
74873SOL     OW26515  12.519   1.612   6.626
74873SOL    HW126516  12.486   1.588   6.540
74873SOL    HW226517  12.466   1.562   6.687
74874SOL     OW26518   3.147   0.763   2.492
74874SOL    HW126519   3.189   0.708   2.558
74874SOL    HW226520   3.112   0.700   2.428
74875SOL     OW26521   0.937  13.479   4.942
74875SOL    HW126522   0.980  13.479   4.857
74875SOL    HW226523   0.986  13.543   4.994
74876SOL     OW26524   4.778   0.385   1.892
74876SOL    HW126525   4.774   0.436   1.811
74876SOL    HW226526   4.872   0.383   1.914
74877SOL     OW26527   5.436   2.797   0.839
74877SOL    HW126528   5.460   2.889   0.829
74877SOL    HW226529   5.513   2.749   0.809
74878SOL     OW26530   6.564   7.248   1.045
74878SOL    HW126531   6.644   7.197   1.062
74878SOL    HW226532   6.594   7.339   1.044
74879SOL     OW26533   5.862   3.017   1.113
74879SOL    HW126534   5.956   3.014   1.097
74879SOL    HW226535   5.824   2.968   1.041
74880SOL     OW26536   4.133   3.351  11.140
74880SOL    HW126537   4.082   3.309  11.210
74880SOL    HW226538   4.216   3.304  11.141
74881SOL     OW26539   7.666  12.090   4.441
74881SOL    HW126540   7.605  12.041   4.496
74881SOL    HW226541   7.728  12.025   4.409
74882SOL     OW26542  12.712  10.302   4.192
74882SOL    HW126543  12.669  10.360   4.255
74882SOL    HW226544  12.643  10.275   4.132
74883SOL     OW26545  14.756  13.417   3.775
74883SOL    HW126546  14.786  13.339   3.728
74883SOL    HW226547  14.708  13.383   3.850
74884SOL     OW26548   5.920  14.592   6.452
74884SOL    HW126549   5.939  14.509   6.408
74884SOL    HW226550   5.840  14.576   6.501
74885SOL     OW26551   3.578  11.056   0.881
74885SOL    HW126552   3.554  10.970   0.849
74885SOL    HW226553   3.646  11.040   0.947
74886SOL     OW26554   3.911  11.002   2.758
74886SOL    HW126555   3.928  10.916   2.795
74886SOL    HW226556   3.823  10.996   2.721
74887SOL     OW26557   7.367   4.203  13.586
74887SOL    HW126558   7.394   4.241  13.503
74887SOL    HW226559   7.275   4.178  13.572
74888SOL     OW26560   5.153   2.083   3.678
74888SOL    HW126561   5.233   2.102   3.727
74888SOL    HW226562   5.085   2.079   3.746
74889SOL     OW26563   5.259   4.861   5.692
74889SOL    HW126564   5.190   4.800   5.668
74889SOL    HW226565   5.339   4.810   5.686
74890SOL     OW26566   9.877  14.647   2.601
74890SOL    HW126567   9.892  14.740   2.583
74890SOL    HW226568   9.956  14.603   2.570
74891SOL     OW26569   8.809   2.605  12.325
74891SOL    HW126570   8.748   2.666  12.368
74891SOL    HW226571   8.780   2.518  12.353
74892SOL     OW26572  13.326   1.912   9.355
74892SOL    HW126573  13.366   1.951   9.277
74892SOL    HW226574  13.376   1.950   9.428
74893SOL     OW26575   3.767  12.880   0.649
74893SOL    HW126576   3.766  12.934   0.570
74893SOL    HW226577   3.768  12.790   0.617
74894SOL     OW26578   5.476   0.364   0.805
74894SOL    HW126579   5.561   0.381   0.762
74894SOL    HW226580   5.452   0.276   0.776
74895SOL     OW26581   9.591   3.488   6.460
74895SOL    HW126582   9.502   3.480   6.493
74895SOL    HW226583   9.646   3.481   6.538
74896SOL     OW26584  11.617   3.207  11.927
74896SOL    HW126585  11.616   3.226  11.833
74896SOL    HW226586  11.598   3.113  11.933
74897SOL     OW26587   2.896   5.486   8.727
74897SOL    HW126588   2.829   5.535   8.775
74897SOL    HW226589   2.970   5.484   8.787
74898SOL     OW26590   8.818   5.454   5.643
74898SOL    HW126591   8.780   5.368   5.659
74898SOL    HW226592   8.762   5.515   5.691
74899SOL     OW26593   8.696   0.646   0.772
74899SOL    HW126594   8.676   0.583   0.841
74899SOL    HW226595   8.612   0.687   0.751
74900SOL     OW26596   2.596   8.642  10.770
74900SOL    HW126597   2.626   8.703  10.838
74900SOL    HW226598   2.542   8.579  10.816
74901SOL     OW26599  14.170   9.096   2.715
74901SOL    HW126600  14.129   9.032   2.656
74901SOL    HW226601  14.256   9.059   2.734
74902SOL     OW26602   1.085   8.325   0.658
74902SOL    HW126603   1.009   8.269   0.641
74902SOL    HW226604   1.073   8.399   0.598
74903SOL     OW26605   6.494   3.429  12.011
74903SOL    HW126606   6.510   3.373  12.087
74903SOL    HW226607   6.520   3.376  11.936
74904SOL     OW26608  12.350   8.893   4.690
74904SOL    HW126609  12.338   8.976   4.644
74904SOL    HW226610  12.291   8.899   4.765
74905SOL     OW26611   3.597   3.934   3.826
74905SOL    HW126612   3.653   3.915   3.902
74905SOL    HW226613   3.518   3.974   3.863
74906SOL     OW26614   6.562   3.282  12.230
74906SOL    HW126615   6.534   3.352  12.289
74906SOL    HW226616   6.651   3.307  12.205
74907SOL     OW26617   1.439  14.627   4.724
74907SOL    HW126618   1.524  14.618   4.767
74907SOL    HW226619   1.400  14.539   4.729
74908SOL     OW26620  13.200  14.037  10.197
74908SOL    HW126621  13.164  14.038  10.108
74908SOL    HW226622  13.269  13.971  10.194
74909SOL     OW26623  14.742   3.764   1.283
74909SOL    HW126624  14.705   3.851   1.294
74909SOL    HW226625  14.826   3.767   1.329
74910SOL     OW26626   1.050   0.455   2.138
74910SOL    HW126627   1.109   0.519   2.097
74910SOL    HW226628   0.962   0.487   2.118
74911SOL     OW26629   6.391   6.736  14.206
74911SOL    HW126630   6.323   6.801  14.225
74911SOL    HW226631   6.343   6.661  14.171
74912SOL     OW26632  14.024  12.960   3.185
74912SOL    HW126633  13.960  12.920   3.244
74912SOL    HW226634  14.065  13.029   3.237
74913SOL     OW26635   8.354   2.949  10.902
74913SOL    HW126636   8.320   2.984  10.985
74913SOL    HW226637   8.279   2.902  10.864
74914SOL     OW26638   1.760  11.379   7.154
74914SOL    HW126639   1.780  11.469   7.128
74914SOL    HW226640   1.783  11.326   7.077
74915SOL     OW26641   9.745  10.216   0.561
74915SOL    HW126642   9.820  10.194   0.506
74915SOL    HW226643   9.778  10.280   0.623
74916SOL     OW26644  12.223  13.613  11.573
74916SOL    HW126645  12.146  13.563  11.599
74916SOL    HW226646  12.189  13.684  11.518
74917SOL     OW26647   3.229   0.067   9.040
74917SOL    HW126648   3.149   0.089   8.992
74917SOL    HW226649   3.297   0.063   8.973
74918SOL     OW26650  10.206   5.873  13.264
74918SOL    HW126651  10.262   5.802  13.295
74918SOL    HW226652  10.251   5.906  13.186
74919SOL     OW26653  11.292  14.562   5.680
74919SOL    HW126654  11.250  14.647   5.669
74919SOL    HW226655  11.256  14.507   5.611
74920SOL     OW26656   0.356  14.724  12.875
74920SOL    HW126657   0.369  14.655  12.810
74920SOL    HW226658   0.295  14.686  12.939
74921SOL     OW26659   7.756   2.475   7.648
74921SOL    HW126660   7.845   2.449   7.674
74921SOL    HW226661   7.758   2.475   7.552
74922SOL     OW26662   3.532   7.332   8.238
74922SOL    HW126663   3.527   7.304   8.330
74922SOL    HW226664   3.474   7.271   8.192
74923SOL     OW26665   7.266   1.765   6.781
74923SOL    HW126666   7.255   1.693   6.718
74923SOL    HW226667   7.269   1.843   6.726
74924SOL     OW26668   8.766   2.318   2.662
74924SOL    HW126669   8.832   2.386   2.646
74924SOL    HW226670   8.806   2.260   2.726
74925SOL     OW26671   4.713   7.263   5.713
74925SOL    HW126672   4.739   7.354   5.728
74925SOL    HW226673   4.773   7.212   5.767
74926SOL     OW26674  14.513   3.517   8.078
74926SOL    HW126675  14.485   3.607   8.065
74926SOL    HW226676  14.582   3.503   8.013
74927SOL     OW26677   9.335   0.084   9.198
74927SOL    HW126678   9.411   0.046   9.154
74927SOL    HW226679   9.285   0.009   9.230
74928SOL     OW26680   2.912   7.119  10.511
74928SOL    HW126681   2.869   7.166  10.440
74928SOL    HW226682   3.003   7.148  10.508
74929SOL     OW26683   8.392  11.362  11.696
74929SOL    HW126684   8.304  11.338  11.667
74929SOL    HW226685   8.403  11.452  11.666
74930SOL     OW26686   5.757   0.127   1.713
74930SOL    HW126687   5.811   0.123   1.792
74930SOL    HW226688   5.818   0.152   1.643
74931SOL     OW26689   4.521   3.163   8.728
74931SOL    HW126690   4.544   3.070   8.724
74931SOL    HW226691   4.509   3.188   8.637
74932SOL     OW26692   5.363  13.455   9.432
74932SOL    HW126693   5.409  13.457   9.348
74932SOL    HW226694   5.343  13.362   9.446
74933SOL     OW26695  12.840  11.465   0.418
74933SOL    HW126696  12.796  11.461   0.503
74933SOL    HW226697  12.769  11.476   0.355
74934SOL     OW26698  14.580   5.767   2.962
74934SOL    HW126699  14.649   5.832   2.954
74934SOL    HW226700  14.498   5.817   2.959
74935SOL     OW26701   5.379  12.887   5.734
74935SOL    HW126702   5.398  12.927   5.819
74935SOL    HW226703   5.431  12.938   5.672
74936SOL     OW26704   2.566  10.347  13.620
74936SOL    HW126705   2.482  10.354  13.575
74936SOL    HW226706   2.569  10.256  13.651
74937SOL     OW26707   0.438   7.119   0.151
74937SOL    HW126708   0.465   7.194   0.098
74937SOL    HW226709   0.426   7.048   0.088
74938SOL     OW26710  13.791   4.393   5.331
74938SOL    HW126711  13.724   4.394   5.398
74938SOL    HW226712  13.831   4.480   5.335
74939SOL     OW26713  13.182   3.294   4.927
74939SOL    HW126714  13.117   3.278   4.859
74939SOL    HW226715  13.131   3.324   5.003
74940SOL     OW26716   6.546   9.997   5.666
74940SOL    HW126717   6.586  10.060   5.726
74940SOL    HW226718   6.601  10.001   5.588
74941SOL     OW26719   1.322  13.865  13.002
74941SOL    HW126720   1.246  13.842  12.948
74941SOL    HW226721   1.389  13.803  12.976
74942SOL     OW26722  12.364   7.463  11.071
74942SOL    HW126723  12.364   7.385  11.016
74942SOL    HW226724  12.364   7.430  11.161
74943SOL     OW26725   6.137   4.097   5.887
74943SOL    HW126726   6.083   4.116   5.964
74943SOL    HW226727   6.075   4.069   5.820
74944SOL     OW26728   4.920   0.488   9.122
74944SOL    HW126729   4.984   0.528   9.180
74944SOL    HW226730   4.901   0.403   9.162
74945SOL     OW26731  11.288   6.573  13.861
74945SOL    HW126732  11.197   6.570  13.833
74945SOL    HW226733  11.288   6.633  13.936
74946SOL     OW26734  14.462   8.510   8.595
74946SOL    HW126735  14.422   8.567   8.529
74946SOL    HW226736  14.388   8.463   8.634
74947SOL     OW26737  13.767  11.665   3.965
74947SOL    HW126738  13.702  11.735   3.958
74947SOL    HW226739  13.722  11.587   3.931
74948SOL     OW26740   2.148   6.633  11.466
74948SOL    HW126741   2.190   6.661  11.385
74948SOL    HW226742   2.111   6.547  11.445
74949SOL     OW26743   4.659   7.911   1.000
74949SOL    HW126744   4.677   7.818   1.015
74949SOL    HW226745   4.564   7.918   1.011
74950SOL     OW26746  10.836  12.049   9.222
74950SOL    HW126747  10.875  12.086   9.143
74950SOL    HW226748  10.785  11.974   9.192
74951SOL     OW26749   0.495  12.195   9.820
74951SOL    HW126750   0.442  12.119   9.794
74951SOL    HW226751   0.579  12.157   9.845
74952SOL     OW26752   3.375  12.827  12.866
74952SOL    HW126753   3.433  12.804  12.793
74952SOL    HW226754   3.356  12.920  12.853
74953SOL     OW26755   4.005   6.610  13.714
74953SOL    HW126756   3.994   6.687  13.660
74953SOL    HW226757   3.962   6.540  13.665
74954SOL     OW26758  12.338   6.518   1.626
74954SOL    HW126759  12.298   6.433   1.644
74954SOL    HW226760  12.274   6.581   1.659
74955SOL     OW26761  14.869   9.267  14.738
74955SOL    HW126762   0.073   9.241  14.703
74955SOL    HW226763  14.819   9.186  14.744
74956SOL     OW26764   0.759   4.016   0.685
74956SOL    HW126765   0.663   4.009   0.690
74956SOL    HW226766   0.776   4.110   0.691
74957SOL     OW26767  10.324   7.700   0.142
74957SOL    HW126768  10.351   7.789   0.119
74957SOL    HW226769  10.369   7.683   0.225
74958SOL     OW26770  11.347  10.514   3.059
74958SOL    HW126771  11.368  10.442   3.118
74958SOL    HW226772  11.346  10.474   2.972
74959SOL     OW26773  14.483  14.764   6.577
74959SOL    HW126774  14.398  14.807   6.566
74959SOL    HW226775  14.461  14.674   6.601
74960SOL     OW26776  13.640   3.274   3.656
74960SOL    HW126777  13.586   3.201   3.625
74960SOL    HW226778  13.593   3.307   3.733
74961SOL     OW26779   2.002   7.282  11.883
74961SOL    HW126780   2.003   7.362  11.935
74961SOL    HW226781   2.094   7.254  11.879
74962SOL     OW26782   3.571  13.812  10.012
74962SOL    HW126783   3.618  13.775  10.086
74962SOL    HW226784   3.635  13.866   9.966
74963SOL     OW26785   5.579   2.002   9.414
74963SOL    HW126786   5.544   2.017   9.326
74963SOL    HW226787   5.534   1.923   9.444
74964SOL     OW26788  11.122   5.142  13.745
74964SOL    HW126789  11.091   5.069  13.692
74964SOL    HW226790  11.211   5.119  13.769
74965SOL     OW26791   2.077  12.414   2.425
74965SOL    HW126792   2.055  12.445   2.513
74965SOL    HW226793   2.112  12.490   2.380
74966SOL     OW26794  14.834   7.527  10.863
74966SOL    HW126795   0.006   7.542  10.942
74966SOL    HW226796  14.879   7.455  10.818
74967SOL     OW26797   1.049   1.015  14.495
74967SOL    HW126798   1.046   0.986  14.586
74967SOL    HW226799   1.137   0.993  14.465
74968SOL     OW26800  11.144   2.744   0.462
74968SOL    HW126801  11.180   2.797   0.391
74968SOL    HW226802  11.205   2.670   0.470
74969SOL     OW26803  10.397   1.303   9.929
74969SOL    HW126804  10.410   1.345   9.844
74969SOL    HW226805  10.327   1.239   9.914
74970SOL     OW26806   7.133   8.590   6.692
74970SOL    HW126807   7.080   8.650   6.639
74970SOL    HW226808   7.095   8.597   6.780
74971SOL     OW26809   2.651  10.747  10.064
74971SOL    HW126810   2.654  10.686  10.138
74971SOL    HW226811   2.724  10.807  10.080
74972SOL     OW26812   9.565   7.939  11.842
74972SOL    HW126813   9.486   7.908  11.797
74972SOL    HW226814   9.591   8.017  11.793
74973SOL     OW26815   0.749   4.250  12.588
74973SOL    HW126816   0.807   4.326  12.591
74973SOL    HW226817   0.801   4.179  12.623
74974SOL     OW26818  13.983   7.365  14.159
74974SOL    HW126819  14.001   7.366  14.065
74974SOL    HW226820  14.043   7.431  14.195
74975SOL     OW26821  13.644   3.556   1.401
74975SOL    HW126822  13.680   3.571   1.489
74975SOL    HW226823  13.676   3.469   1.378
74976SOL     OW26824   4.733  13.616  14.697
74976SOL    HW126825   4.665  13.681  14.684
74976SOL    HW226826   4.752  13.583  14.610
74977SOL     OW26827   4.139  10.417   1.734
74977SOL    HW126828   4.108  10.498   1.694
74977SOL    HW226829   4.092  10.347   1.688
74978SOL     OW26830   0.415  14.553  12.676
74978SOL    HW126831   0.339  14.551  12.618
74978SOL    HW226832   0.435  14.461  12.694
74979SOL     OW26833  12.018   1.227   1.241
74979SOL    HW126834  12.022   1.212   1.335
74979SOL    HW226835  11.967   1.307   1.231
74980SOL     OW26836  14.545   9.452   4.722
74980SOL    HW126837  14.472   9.421   4.775
74980SOL    HW226838  14.617   9.463   4.784
74981SOL     OW26839  12.070  12.171  14.221
74981SOL    HW126840  12.040  12.105  14.158
74981SOL    HW226841  12.163  12.151  14.234
74982SOL     OW26842   1.565  14.878  11.145
74982SOL    HW126843   1.605   0.043  11.071
74982SOL    HW226844   1.554   0.067  11.211
74983SOL     OW26845  10.313   9.242   1.179
74983SOL    HW126846  10.247   9.217   1.115
74983SOL    HW226847  10.268   9.304   1.237
74984SOL     OW26848   4.939   1.440   1.545
74984SOL    HW126849   4.879   1.507   1.511
74984SOL    HW226850   4.982   1.483   1.619
74985SOL     OW26851  12.626   8.344   5.460
74985SOL    HW126852  12.615   8.278   5.528
74985SOL    HW226853  12.673   8.416   5.502
74986SOL     OW26854  13.784   3.609  11.687
74986SOL    HW126855  13.695   3.643  11.695
74986SOL    HW226856  13.787   3.571  11.600
74987SOL     OW26857   8.073   8.458  11.153
74987SOL    HW126858   8.095   8.395  11.222
74987SOL    HW226859   8.037   8.533  11.200
74988SOL     OW26860  13.650   4.195  10.437
74988SOL    HW126861  13.576   4.234  10.390
74988SOL    HW226862  13.712   4.266  10.448
74989SOL     OW26863   2.263  13.706   6.994
74989SOL    HW126864   2.279  13.703   6.900
74989SOL    HW226865   2.175  13.670   7.005
74990SOL     OW26866   9.763  14.712   4.237
74990SOL    HW126867   9.820  14.749   4.305
74990SOL    HW226868   9.809  14.729   4.155
74991SOL     OW26869   9.794   1.438   7.410
74991SOL    HW126870   9.813   1.441   7.504
74991SOL    HW226871   9.742   1.359   7.399
74992SOL     OW26872   1.967   7.320   4.222
74992SOL    HW126873   1.971   7.305   4.317
74992SOL    HW226874   2.058   7.313   4.193
74993SOL     OW26875  12.408  13.359   7.954
74993SOL    HW126876  12.495  13.318   7.955
74993SOL    HW226877  12.424  13.447   7.919
74994SOL     OW26878   4.777   3.543   4.227
74994SOL    HW126879   4.826   3.551   4.146
74994SOL    HW226880   4.840   3.562   4.296
74995SOL     OW26881   7.815   3.808  13.762
74995SOL    HW126882   7.867   3.775  13.689
74995SOL    HW226883   7.848   3.760  13.838
74996SOL     OW26884   3.802  13.845   7.976
74996SOL    HW126885   3.873  13.908   7.967
74996SOL    HW226886   3.734  13.892   8.024
74997SOL     OW26887   5.626  10.506  10.346
74997SOL    HW126888   5.552  10.557  10.312
74997SOL    HW226889   5.687  10.571  10.381
74998SOL     OW26890  10.961   6.763  11.414
74998SOL    HW126891  10.942   6.671  11.430
74998SOL    HW226892  11.049   6.777  11.450
74999SOL     OW26893   5.875  12.143   1.434
74999SOL    HW126894   5.887  12.054   1.467
74999SOL    HW226895   5.880  12.135   1.339
75000SOL     OW26896  12.896  14.178   7.945
75000SOL    HW126897  12.812  14.182   7.992
75000SOL    HW226898  12.918  14.085   7.944
75001SOL     OW26899   9.558  10.295   8.433
75001SOL    HW126900   9.625  10.356   8.464
75001SOL    HW226901   9.487  10.351   8.403
75002SOL     OW26902  14.747   5.307  13.623
75002SOL    HW126903  14.807   5.243  13.662
75002SOL    HW226904  14.679   5.320  13.689
75003SOL     OW26905  11.542   0.773   4.265
75003SOL    HW126906  11.475   0.705   4.268
75003SOL    HW226907  11.588   0.758   4.182
75004SOL     OW26908   1.413  11.713   0.329
75004SOL    HW126909   1.381  11.797   0.296
75004SOL    HW226910   1.499  11.702   0.289
75005SOL     OW26911  10.911  12.671   0.821
75005SOL    HW126912  10.824  12.670   0.859
75005SOL    HW226913  10.908  12.604   0.753
75006SOL     OW26914   0.133  10.478  12.509
75006SOL    HW126915   0.223  10.486  12.476
75006SOL    HW226916   0.135  10.520  12.595
75007SOL     OW26917   3.386   1.265  13.862
75007SOL    HW126918   3.320   1.328  13.833
75007SOL    HW226919   3.429   1.308  13.936
75008SOL     OW26920   8.931   8.814  12.787
75008SOL    HW126921   8.903   8.759  12.714
75008SOL    HW226922   8.910   8.763  12.866
75009SOL     OW26923   0.028   1.889   1.710
75009SOL    HW126924  14.826   1.882   1.758
75009SOL    HW226925   0.096   1.873   1.776
75010SOL     OW26926  14.648   1.569   9.597
75010SOL    HW126927  14.726   1.517   9.615
75010SOL    HW226928  14.591   1.554   9.672
75011SOL     OW26929   3.884   1.595  13.144
75011SOL    HW126930   3.825   1.528  13.109
75011SOL    HW226931   3.971   1.566  13.118
75012SOL     OW26932  10.176   3.668   0.946
75012SOL    HW126933  10.172   3.703   0.857
75012SOL    HW226934  10.167   3.574   0.935
75013SOL     OW26935  10.654  12.357  12.661
75013SOL    HW126936  10.665  12.289  12.594
75013SOL    HW226937  10.712  12.427  12.633
75014SOL     OW26938  14.610   3.374  13.041
75014SOL    HW126939  14.684   3.318  13.063
75014SOL    HW226940  14.649   3.451  13.000
75015SOL     OW26941   7.701  12.579  13.618
75015SOL    HW126942   7.660  12.636  13.683
75015SOL    HW226943   7.726  12.637  13.547
75016SOL     OW26944  12.420   0.151   5.523
75016SOL    HW126945  12.503   0.194   5.542
75016SOL    HW226946  12.370   0.157   5.604
75017SOL     OW26947   9.232  12.018  11.987
75017SOL    HW126948   9.288  12.020  12.065
75017SOL    HW226949   9.258  12.094  11.936
75018SOL     OW26950   7.945  13.363  14.096
75018SOL    HW126951   7.894  13.290  14.133
75018SOL    HW226952   7.945  13.346  14.001
75019SOL     OW26953   6.476  13.775   3.940
75019SOL    HW126954   6.512  13.820   3.864
75019SOL    HW226955   6.536  13.799   4.012
75020SOL     OW26956   5.125   2.375  11.969
75020SOL    HW126957   5.147   2.429  12.046
75020SOL    HW226958   5.195   2.310  11.965
75021SOL     OW26959   1.028   4.314  12.077
75021SOL    HW126960   1.121   4.299  12.098
75021SOL    HW226961   1.026   4.403  12.043
75022SOL     OW26962  14.488   8.870  14.451
75022SOL    HW126963  14.442   8.853  14.369
75022SOL    HW226964  14.572   8.906  14.424
75023SOL     OW26965   9.316  12.104   4.594
75023SOL    HW126966   9.230  12.075   4.563
75023SOL    HW226967   9.372  12.101   4.516
75024SOL     OW26968   1.612   0.848   4.199
75024SOL    HW126969   1.542   0.907   4.171
75024SOL    HW226970   1.681   0.859   4.133
75025SOL     OW26971   1.184   7.322   5.972
75025SOL    HW126972   1.259   7.366   6.013
75025SOL    HW226973   1.204   7.229   5.977
75026SOL     OW26974   0.662  13.195   4.038
75026SOL    HW126975   0.750  13.226   4.015
75026SOL    HW226976   0.658  13.106   4.003
75027SOL     OW26977  14.691  13.607  14.257
75027SOL    HW126978  14.783  13.615  14.283
75027SOL    HW226979  14.682  13.667  14.183
75028SOL     OW26980   6.467  11.157   5.370
75028SOL    HW126981   6.433  11.237   5.332
75028SOL    HW226982   6.435  11.087   5.313
75029SOL     OW26983   8.576   5.872  12.420
75029SOL    HW126984   8.530   5.823  12.488
75029SOL    HW226985   8.586   5.809  12.348
75030SOL     OW26986   2.376  12.712   4.270
75030SOL    HW126987   2.442  12.655   4.232
75030SOL    HW226988   2.330  12.657   4.333
75031SOL     OW26989  10.539   4.534   5.582
75031SOL    HW126990  10.553   4.490   5.499
75031SOL    HW226991  10.495   4.616   5.559
75032SOL     OW26992   9.601   2.027   8.764
75032SOL    HW126993   9.665   1.957   8.769
75032SOL    HW226994   9.586   2.040   8.670
75033SOL     OW26995   7.838   9.770  14.407
75033SOL    HW126996   7.861   9.695  14.463
75033SOL    HW226997   7.894   9.841  14.439
75034SOL     OW26998  10.037   2.723  13.179
75034SOL    HW126999  10.041   2.815  13.205
75034SOL    HW227000  10.049   2.724  13.084
75035SOL     OW27001   5.193  14.764   0.352
75035SOL    HW127002   5.252  14.690   0.338
75035SOL    HW227003   5.239  14.820   0.414
75036SOL     OW27004  11.450   7.276   9.029
75036SOL    HW127005  11.433   7.369   9.041
75036SOL    HW227006  11.542   7.265   9.055
75037SOL     OW27007  13.794   1.909  13.925
75037SOL    HW127008  13.770   1.855  14.001
75037SOL    HW227009  13.874   1.868  13.892
75038SOL     OW27010  13.318  10.874   0.062
75038SOL    HW127011  13.364  10.801   0.021
75038SOL    HW227012  13.285  10.926  14.869
75039SOL     OW27013   6.016   7.024  12.948
75039SOL    HW127014   6.082   6.956  12.935
75039SOL    HW227015   5.999   7.024  13.042
75040SOL     OW27016   2.984   9.245  12.836
75040SOL    HW127017   3.027   9.265  12.753
75040SOL    HW227018   3.030   9.299  12.901
75041SOL     OW27019   2.478   8.902   0.336
75041SOL    HW127020   2.469   8.943   0.250
75041SOL    HW227021   2.436   8.963   0.396
75042SOL     OW27022  14.665   0.007  12.018
75042SOL    HW127023  14.712  14.804  12.017
75042SOL    HW227024  14.709   0.060  11.952
75043SOL     OW27025  14.757   9.796   7.682
75043SOL    HW127026  14.850   9.813   7.695
75043SOL    HW227027  14.727   9.761   7.767
75044SOL     OW27028   9.270   9.889   6.615
75044SOL    HW127029   9.296   9.822   6.679
75044SOL    HW227030   9.196   9.933   6.656
75045SOL     OW27031   5.480   3.593   3.301
75045SOL    HW127032   5.487   3.595   3.206
75045SOL    HW227033   5.557   3.544   3.330
75046SOL     OW27034  12.334   7.775   8.258
75046SOL    HW127035  12.355   7.790   8.166
75046SOL    HW227036  12.248   7.733   8.257
75047SOL     OW27037   6.107   1.848   5.784
75047SOL    HW127038   6.074   1.937   5.784
75047SOL    HW227039   6.056   1.803   5.851
75048SOL     OW27040   2.232  11.910   7.835
75048SOL    HW127041   2.206  11.848   7.903
75048SOL    HW227042   2.174  11.890   7.762
75049SOL     OW27043  10.490  14.762   7.060
75049SOL    HW127044  10.539  14.708   6.998
75049SOL    HW227045  10.423  14.804   7.006
75050SOL     OW27046   9.816   9.494  13.146
75050SOL    HW127047   9.779   9.545  13.218
75050SOL    HW227048   9.866   9.558  13.095
75051SOL     OW27049   1.350   7.670   4.630
75051SOL    HW127050   1.434   7.716   4.624
75051SOL    HW227051   1.367   7.597   4.689
75052SOL     OW27052   6.454   3.656   0.156
75052SOL    HW127053   6.385   3.595   0.180
75052SOL    HW227054   6.447   3.665   0.061
75053SOL     OW27055   1.047   2.811  10.678
75053SOL    HW127056   0.984   2.861  10.730
75053SOL    HW227057   1.126   2.809  10.732
75054SOL     OW27058  13.074  10.732  12.035
75054SOL    HW127059  13.005  10.761  11.975
75054SOL    HW227060  13.052  10.774  12.118
75055SOL     OW27061   0.950   2.305   1.595
75055SOL    HW127062   0.980   2.216   1.579
75055SOL    HW227063   0.901   2.300   1.677
75056SOL     OW27064   5.881   4.424  10.161
75056SOL    HW127065   5.887   4.467  10.247
75056SOL    HW227066   5.858   4.333  10.182
75057SOL     OW27067   2.103  10.950  12.508
75057SOL    HW127068   2.173  10.894  12.475
75057SOL    HW227069   2.101  11.023  12.446
75058SOL     OW27070   0.361   7.564   6.361
75058SOL    HW127071   0.408   7.501   6.415
75058SOL    HW227072   0.288   7.593   6.416
75059SOL     OW27073   2.297   8.701   9.425
75059SOL    HW127074   2.346   8.736   9.350
75059SOL    HW227075   2.364   8.665   9.483
75060SOL     OW27076   5.029  10.521   6.696
75060SOL    HW127077   5.096  10.552   6.635
75060SOL    HW227078   4.964  10.479   6.640
75061SOL     OW27079   0.370   5.881   5.459
75061SOL    HW127080   0.408   5.957   5.503
75061SOL    HW227081   0.410   5.881   5.372
75062SOL     OW27082   9.441   9.306  11.419
75062SOL    HW127083   9.469   9.285  11.508
75062SOL    HW227084   9.353   9.269  11.412
75063SOL     OW27085  10.680  11.706  14.626
75063SOL    HW127086  10.588  11.721  14.651
75063SOL    HW227087  10.680  11.718  14.531
75064SOL     OW27088   0.404  13.540   1.335
75064SOL    HW127089   0.485  13.589   1.319
75064SOL    HW227090   0.334  13.599   1.305
75065SOL     OW27091   1.269  12.552   4.020
75065SOL    HW127092   1.230  12.481   3.969
75065SOL    HW227093   1.195  12.597   4.061
75066SOL     OW27094   6.768   0.148   1.914
75066SOL    HW127095   6.795   0.057   1.902
75066SOL    HW227096   6.709   0.166   1.841
75067SOL     OW27097   6.535   9.304   5.102
75067SOL    HW127098   6.442   9.294   5.122
75067SOL    HW227099   6.553   9.237   5.035
75068SOL     OW27100   0.762   4.381   4.522
75068SOL    HW127101   0.811   4.460   4.542
75068SOL    HW227102   0.725   4.396   4.436
75069SOL     OW27103  12.750   5.500  14.429
75069SOL    HW127104  12.747   5.565  14.499
75069SOL    HW227105  12.715   5.420  14.467
75070SOL     OW27106  10.423  13.357   5.273
75070SOL    HW127107  10.412  13.422   5.342
75070SOL    HW227108  10.518  13.349   5.263
75071SOL     OW27109   4.939   4.882   0.030
75071SOL    HW127110   4.949   4.806   0.087
75071SOL    HW227111   4.942   4.846  14.822
75072SOL     OW27112   6.231   2.513   5.627
75072SOL    HW127113   6.325   2.531   5.634
75072SOL    HW227114   6.226   2.418   5.617
75073SOL     OW27115  10.471   9.467   0.980
75073SOL    HW127116  10.543   9.445   1.038
75073SOL    HW227117  10.393   9.433   1.024
75074SOL     OW27118   6.413   4.657   4.751
75074SOL    HW127119   6.484   4.601   4.782
75074SOL    HW227120   6.411   4.644   4.656
75075SOL     OW27121   7.408   4.776   5.224
75075SOL    HW127122   7.404   4.797   5.131
75075SOL    HW227123   7.447   4.689   5.227
75076SOL     OW27124   6.183   2.007  11.998
75076SOL    HW127125   6.187   1.917  12.030
75076SOL    HW227126   6.097   2.039  12.026
75077SOL     OW27127   2.736   6.305   4.765
75077SOL    HW127128   2.754   6.372   4.700
75077SOL    HW227129   2.672   6.345   4.824
75078SOL     OW27130   9.339   5.888   1.354
75078SOL    HW127131   9.259   5.848   1.387
75078SOL    HW227132   9.360   5.957   1.416
75079SOL     OW27133   2.247   7.735  10.108
75079SOL    HW127134   2.258   7.687  10.190
75079SOL    HW227135   2.294   7.817  10.122
75080SOL     OW27136   5.709  10.903  10.835
75080SOL    HW127137   5.789  10.944  10.802
75080SOL    HW227138   5.694  10.828  10.778
75081SOL     OW27139   5.992   8.376   4.680
75081SOL    HW127140   5.942   8.366   4.761
75081SOL    HW227141   5.956   8.310   4.621
75082SOL     OW27142   4.951  11.942   0.776
75082SOL    HW127143   5.025  11.941   0.837
75082SOL    HW227144   4.949  11.854   0.740
75083SOL     OW27145   0.024  10.796   5.773
75083SOL    HW127146  14.877  10.706   5.790
75083SOL    HW227147  14.839  10.830   5.712
75084SOL     OW27148   5.855  10.834  12.118
75084SOL    HW127149   5.931  10.839  12.059
75084SOL    HW227150   5.872  10.900  12.185
75085SOL     OW27151   4.761  14.320   6.041
75085SOL    HW127152   4.854  14.302   6.027
75085SOL    HW227153   4.754  14.416   6.039
75086SOL     OW27154   5.360  12.207   6.585
75086SOL    HW127155   5.439  12.194   6.639
75086SOL    HW227156   5.291  12.164   6.635
75087SOL     OW27157  12.198   6.337   6.194
75087SOL    HW127158  12.152   6.377   6.268
75087SOL    HW227159  12.267   6.400   6.172
75088SOL     OW27160  11.598   6.240   3.646
75088SOL    HW127161  11.629   6.157   3.611
75088SOL    HW227162  11.649   6.254   3.726
75089SOL     OW27163   7.444  12.318   0.485
75089SOL    HW127164   7.351  12.300   0.495
75089SOL    HW227165   7.484  12.232   0.472
75090SOL     OW27166   3.080   5.421  12.890
75090SOL    HW127167   3.146   5.477  12.848
75090SOL    HW227168   2.998   5.468  12.879
75091SOL     OW27169  13.249   4.579   3.837
75091SOL    HW127170  13.171   4.529   3.860
75091SOL    HW227171  13.228   4.618   3.751
75092SOL     OW27172   6.578   1.070   0.966
75092SOL    HW127173   6.645   1.109   0.909
75092SOL    HW227174   6.609   1.087   1.055
75093SOL     OW27175   4.311  13.493  11.507
75093SOL    HW127176   4.297  13.413  11.557
75093SOL    HW227177   4.346  13.556  11.571
75094SOL     OW27178   4.831  10.828   5.590
75094SOL    HW127179   4.878  10.746   5.606
75094SOL    HW227180   4.862  10.857   5.504
75095SOL     OW27181  10.472   8.217   1.474
75095SOL    HW127182  10.477   8.259   1.560
75095SOL    HW227183  10.386   8.174   1.473
75096SOL     OW27184   7.687   3.819  10.227
75096SOL    HW127185   7.649   3.828  10.139
75096SOL    HW227186   7.705   3.726  10.235
75097SOL     OW27187  13.229   4.981   3.188
75097SOL    HW127188  13.304   5.037   3.165
75097SOL    HW227189  13.243   4.961   3.281
75098SOL     OW27190  13.641   0.112   2.554
75098SOL    HW127191  13.651   0.030   2.506
75098SOL    HW227192  13.548   0.117   2.575
75099SOL     OW27193   6.413  14.752  12.962
75099SOL    HW127194   6.465  14.715  13.033
75099SOL    HW227195   6.407  14.683  12.897
75100SOL     OW27196  13.287   1.905   1.563
75100SOL    HW127197  13.264   1.972   1.627
75100SOL    HW227198  13.354   1.852   1.606
75101SOL     OW27199  13.008   7.314   0.693
75101SOL    HW127200  13.077   7.296   0.630
75101SOL    HW227201  13.012   7.241   0.755
75102SOL     OW27202   9.581   6.816   9.394
75102SOL    HW127203   9.519   6.761   9.442
75102SOL    HW227204   9.622   6.869   9.462
75103SOL     OW27205  10.840  11.720   4.202
75103SOL    HW127206  10.754  11.679   4.211
75103SOL    HW227207  10.851  11.772   4.281
75104SOL     OW27208  12.761   2.517  14.287
75104SOL    HW127209  12.748   2.446  14.350
75104SOL    HW227210  12.842   2.495  14.241
75105SOL     OW27211   9.077   8.803   9.317
75105SOL    HW127212   9.085   8.864   9.390
75105SOL    HW227213   9.105   8.719   9.353
75106SOL     OW27214  14.093  11.462   2.644
75106SOL    HW127215  14.139  11.415   2.714
75106SOL    HW227216  14.125  11.422   2.563
75107SOL     OW27217   2.450   8.326   9.032
75107SOL    HW127218   2.393   8.269   8.980
75107SOL    HW227219   2.520   8.352   8.972
75108SOL     OW27220   7.051   5.683   9.057
75108SOL    HW127221   7.006   5.644   9.132
75108SOL    HW227222   7.094   5.761   9.093
75109SOL     OW27223   5.473   6.012   2.298
75109SOL    HW127224   5.531   6.018   2.374
75109SOL    HW227225   5.493   6.091   2.247
75110SOL     OW27226   2.803   5.948  14.624
75110SOL    HW127227   2.836   6.022  14.573
75110SOL    HW227228   2.765   5.888  14.560
75111SOL     OW27229  12.874  14.218   4.845
75111SOL    HW127230  12.850  14.308   4.821
75111SOL    HW227231  12.833  14.164   4.778
75112SOL     OW27232   3.564   4.056  12.717
75112SOL    HW127233   3.643   4.107  12.735
75112SOL    HW227234   3.502   4.084  12.785
75113SOL     OW27235   6.108   2.374   0.609
75113SOL    HW127236   6.045   2.315   0.567
75113SOL    HW227237   6.091   2.459   0.569
75114SOL     OW27238   1.345   6.524  13.753
75114SOL    HW127239   1.277   6.459  13.741
75114SOL    HW227240   1.310   6.585  13.818
75115SOL     OW27241   1.673   7.270   6.796
75115SOL    HW127242   1.723   7.189   6.811
75115SOL    HW227243   1.666   7.311   6.882
75116SOL     OW27244   4.647   6.356  10.812
75116SOL    HW127245   4.563   6.366  10.856
75116SOL    HW227246   4.699   6.301  10.870
75117SOL     OW27247   4.560  10.865   5.587
75117SOL    HW127248   4.649  10.834   5.572
75117SOL    HW227249   4.565  10.960   5.579
75118SOL     OW27250   9.624   7.825   9.105
75118SOL    HW127251   9.562   7.893   9.078
75118SOL    HW227252   9.582   7.743   9.079
75119SOL     OW27253  14.494  14.383   6.826
75119SOL    HW127254  14.586  14.359   6.831
75119SOL    HW227255  14.458  14.356   6.911
75120SOL     OW27256  10.940   9.812   3.945
75120SOL    HW127257  10.984   9.873   3.886
75120SOL    HW227258  11.010   9.756   3.980
75121SOL     OW27259   2.919   0.281  14.867
75121SOL    HW127260   2.832   0.315  14.842
75121SOL    HW227261   2.972   0.360   0.001
75122SOL     OW27262   1.349   4.298   2.103
75122SOL    HW127263   1.381   4.362   2.040
75122SOL    HW227264   1.415   4.228   2.101
75123SOL     OW27265   0.964   5.132  11.015
75123SOL    HW127266   0.921   5.214  11.038
75123SOL    HW227267   1.042   5.129  11.070
75124SOL     OW27268  11.603   1.026   4.328
75124SOL    HW127269  11.576   0.937   4.306
75124SOL    HW227270  11.681   1.042   4.275
75125SOL     OW27271   5.507  10.454  12.806
75125SOL    HW127272   5.537  10.376  12.852
75125SOL    HW227273   5.564  10.524  12.838
75126SOL     OW27274   8.454   5.585   6.836
75126SOL    HW127275   8.446   5.677   6.812
75126SOL    HW227276   8.472   5.540   6.754
75127SOL     OW27277   1.762   0.317   1.723
75127SOL    HW127278   1.725   0.326   1.635
75127SOL    HW227279   1.716   0.242   1.761
75128SOL     OW27280   7.784   5.223   6.247
75128SOL    HW127281   7.816   5.260   6.330
75128SOL    HW227282   7.730   5.293   6.210
75129SOL     OW27283   7.047   1.578   9.153
75129SOL    HW127284   7.033   1.488   9.184
75129SOL    HW227285   7.034   1.633   9.230
75130SOL     OW27286   1.609  13.981  13.867
75130SOL    HW127287   1.568  14.018  13.946
75130SOL    HW227288   1.699  13.964  13.893
75131SOL     OW27289   7.794   9.038   5.380
75131SOL    HW127290   7.793   8.964   5.441
75131SOL    HW227291   7.885   9.066   5.378
75132SOL     OW27292   5.053  11.717   5.916
75132SOL    HW127293   5.015  11.788   5.968
75132SOL    HW227294   5.138  11.701   5.957
75133SOL     OW27295  12.976  13.400   5.625
75133SOL    HW127296  13.005  13.445   5.546
75133SOL    HW227297  13.034  13.432   5.694
75134SOL     OW27298   0.357   3.402   3.967
75134SOL    HW127299   0.293   3.355   4.020
75134SOL    HW227300   0.441   3.366   3.993
75135SOL     OW27301  12.975   7.879   5.984
75135SOL    HW127302  12.913   7.856   5.914
75135SOL    HW227303  12.957   7.971   6.001
75136SOL     OW27304   0.576   7.637   0.062
75136SOL    HW127305   0.629   7.716   0.044
75136SOL    HW227306   0.487   7.663   0.038
75137SOL     OW27307   8.152   1.292   6.170
75137SOL    HW127308   8.099   1.281   6.249
75137SOL    HW227309   8.239   1.315   6.202
75138SOL     OW27310   7.682   5.108  14.171
75138SOL    HW127311   7.776   5.114  14.155
75138SOL    HW227312   7.642   5.147  14.093
75139SOL     OW27313   7.365   9.108   5.083
75139SOL    HW127314   7.314   9.028   5.067
75139SOL    HW227315   7.437   9.080   5.138
75140SOL     OW27316  10.176   1.206   0.242
75140SOL    HW127317  10.150   1.270   0.175
75140SOL    HW227318  10.244   1.250   0.292
75141SOL     OW27319   5.233   8.941   1.140
75141SOL    HW127320   5.213   8.897   1.058
75141SOL    HW227321   5.322   8.976   1.128
75142SOL     OW27322   7.134  10.661   0.488
75142SOL    HW127323   7.165  10.610   0.562
75142SOL    HW227324   7.204  10.654   0.423
75143SOL     OW27325   7.312   1.719   3.361
75143SOL    HW127326   7.249   1.646   3.361
75143SOL    HW227327   7.264   1.792   3.400
75144SOL     OW27328   7.025   9.157   1.679
75144SOL    HW127329   7.024   9.139   1.585
75144SOL    HW227330   7.089   9.096   1.714
75145SOL     OW27331   4.012   6.824  13.561
75145SOL    HW127332   4.082   6.886  13.580
75145SOL    HW227333   3.981   6.848  13.474
75146SOL     OW27334   8.043   4.671   3.586
75146SOL    HW127335   8.070   4.747   3.638
75146SOL    HW227336   8.072   4.596   3.637
75147SOL     OW27337  12.775  14.487   4.448
75147SOL    HW127338  12.828  14.565   4.467
75147SOL    HW227339  12.840  14.416   4.439
75148SOL     OW27340   1.906   9.396   9.722
75148SOL    HW127341   1.963   9.423   9.651
75148SOL    HW227342   1.921   9.301   9.730
75149SOL     OW27343   9.261  11.098  14.233
75149SOL    HW127344   9.261  11.143  14.317
75149SOL    HW227345   9.240  11.007  14.254
75150SOL     OW27346  12.745  12.591  13.694
75150SOL    HW127347  12.825  12.612  13.743
75150SOL    HW227348  12.756  12.499  13.669
75151SOL     OW27349   7.609   4.617  11.758
75151SOL    HW127350   7.650   4.549  11.703
75151SOL    HW227351   7.658   4.697  11.737
75152SOL     OW27352   5.548   1.147  13.719
75152SOL    HW127353   5.490   1.211  13.679
75152SOL    HW227354   5.526   1.064  13.677
75153SOL     OW27355   3.208   1.308   6.334
75153SOL    HW127356   3.241   1.345   6.252
75153SOL    HW227357   3.287   1.286   6.384
75154SOL     OW27358   5.164   8.321  12.627
75154SOL    HW127359   5.245   8.333  12.677
75154SOL    HW227360   5.170   8.386  12.557
75155SOL     OW27361  13.009   0.842   6.066
75155SOL    HW127362  12.952   0.803   6.132
75155SOL    HW227363  13.097   0.810   6.089
75156SOL     OW27364   7.754  12.579   6.524
75156SOL    HW127365   7.760  12.498   6.473
75156SOL    HW227366   7.799  12.559   6.606
75157SOL     OW27367  13.953  10.381   0.507
75157SOL    HW127368  13.914  10.294   0.509
75157SOL    HW227369  13.894  10.432   0.451
75158SOL     OW27370   3.283   2.651  12.750
75158SOL    HW127371   3.333   2.697  12.682
75158SOL    HW227372   3.336   2.661  12.829
75159SOL     OW27373   3.605   3.999   9.965
75159SOL    HW127374   3.636   4.081   9.929
75159SOL    HW227375   3.577   3.948   9.889
75160SOL     OW27376   3.369   7.055   1.253
75160SOL    HW127377   3.308   7.128   1.265
75160SOL    HW227378   3.330   7.002   1.183
75161SOL     OW27379  10.669   7.807   1.645
75161SOL    HW127380  10.702   7.775   1.729
75161SOL    HW227381  10.669   7.729   1.588
75162SOL     OW27382  11.958  11.808   9.978
75162SOL    HW127383  12.009  11.752   9.919
75162SOL    HW227384  11.910  11.866   9.919
75163SOL     OW27385  11.837   1.814   8.022
75163SOL    HW127386  11.931   1.797   8.029
75163SOL    HW227387  11.830   1.909   8.014
75164SOL     OW27388  14.363  13.454  10.461
75164SOL    HW127389  14.398  13.514  10.395
75164SOL    HW227390  14.416  13.375  10.452
75165SOL     OW27391   3.610  14.259   8.521
75165SOL    HW127392   3.694  14.277   8.561
75165SOL    HW227393   3.623  14.176   8.474
75166SOL     OW27394   9.328   5.399   6.402
75166SOL    HW127395   9.298   5.345   6.329
75166SOL    HW227396   9.363   5.478   6.362
75167SOL     OW27397  10.680   7.928   6.675
75167SOL    HW127398  10.587   7.906   6.687
75167SOL    HW227399  10.705   7.884   6.594
75168SOL     OW27400   5.369  12.843   6.842
75168SOL    HW127401   5.415  12.763   6.867
75168SOL    HW227402   5.288  12.840   6.895
75169SOL     OW27403   4.423   1.114  13.245
75169SOL    HW127404   4.377   1.107  13.328
75169SOL    HW227405   4.509   1.074  13.262
75170SOL     OW27406  12.763   5.052   6.493
75170SOL    HW127407  12.826   5.121   6.471
75170SOL    HW227408  12.714   5.038   6.412
75171SOL     OW27409   3.946   3.414   7.673
75171SOL    HW127410   4.028   3.460   7.657
75171SOL    HW227411   3.889   3.480   7.712
75172SOL     OW27412   6.677  14.676   9.994
75172SOL    HW127413   6.618  14.603  10.009
75172SOL    HW227414   6.661  14.701   9.903
75173SOL     OW27415  14.276  12.881   1.379
75173SOL    HW127416  14.191  12.879   1.423
75173SOL    HW227417  14.308  12.971   1.391
75174SOL     OW27418   1.592   7.547   0.847
75174SOL    HW127419   1.648   7.622   0.831
75174SOL    HW227420   1.503   7.582   0.847
75175SOL     OW27421  14.127   3.805   7.424
75175SOL    HW127422  14.072   3.727   7.419
75175SOL    HW227423  14.208   3.775   7.464
75176SOL     OW27424   0.798  12.451   1.453
75176SOL    HW127425   0.745  12.528   1.471
75176SOL    HW227426   0.883  12.471   1.492
75177SOL     OW27427  13.677   1.416  13.552
75177SOL    HW127428  13.676   1.392  13.459
75177SOL    HW227429  13.604   1.477  13.561
75178SOL     OW27430   0.520   0.854   7.218
75178SOL    HW127431   0.437   0.877   7.259
75178SOL    HW227432   0.518   0.758   7.212
75179SOL     OW27433  12.995   5.973   9.129
75179SOL    HW127434  12.947   5.976   9.212
75179SOL    HW227435  13.086   5.988   9.153
75180SOL     OW27436  10.596   9.415   9.446
75180SOL    HW127437  10.556   9.485   9.395
75180SOL    HW227438  10.521   9.366   9.482
75181SOL     OW27439  14.841   0.386   7.257
75181SOL    HW127440   0.016   0.463   7.273
75181SOL    HW227441   0.020   0.311   7.265
75182SOL     OW27442   2.145   6.690  14.565
75182SOL    HW127443   2.237   6.703  14.543
75182SOL    HW227444   2.103   6.773  14.543
75183SOL     OW27445  12.294  11.195  13.230
75183SOL    HW127446  12.378  11.166  13.266
75183SOL    HW227447  12.304  11.289  13.216
75184SOL     OW27448  13.970   2.965   1.301
75184SOL    HW127449  14.054   2.939   1.341
75184SOL    HW227450  13.912   2.891   1.319
75185SOL     OW27451   4.000   3.121  11.287
75185SOL    HW127452   3.938   3.193  11.295
75185SOL    HW227453   3.960   3.048  11.334
75186SOL     OW27454  10.742  10.626   2.790
75186SOL    HW127455  10.706  10.572   2.719
75186SOL    HW227456  10.836  10.607   2.789
75187SOL     OW27457   1.432   2.503   5.343
75187SOL    HW127458   1.445   2.408   5.333
75187SOL    HW227459   1.513   2.542   5.309
75188SOL     OW27460  12.886   7.368  11.349
75188SOL    HW127461  12.797   7.371  11.315
75188SOL    HW227462  12.922   7.287  11.313
75189SOL     OW27463   8.405   6.578   8.171
75189SOL    HW127464   8.439   6.627   8.096
75189SOL    HW227465   8.466   6.596   8.242
75190SOL     OW27466   6.886   1.411   8.444
75190SOL    HW127467   6.861   1.504   8.444
75190SOL    HW227468   6.979   1.412   8.464
75191SOL     OW27469   0.501   2.999   4.626
75191SOL    HW127470   0.515   2.972   4.716
75191SOL    HW227471   0.553   2.937   4.574
75192SOL     OW27472   4.010  14.821   7.201
75192SOL    HW127473   3.988  14.750   7.262
75192SOL    HW227474   3.986  14.787   7.115
75193SOL     OW27475   9.335   4.129   7.321
75193SOL    HW127476   9.407   4.102   7.263
75193SOL    HW227477   9.256   4.094   7.279
75194SOL     OW27478  10.094  14.319   8.051
75194SOL    HW127479  10.005  14.284   8.048
75194SOL    HW227480  10.143  14.255   8.103
75195SOL     OW27481   0.599   3.992   8.656
75195SOL    HW127482   0.549   3.910   8.651
75195SOL    HW227483   0.662   3.976   8.727
75196SOL     OW27484  13.832  13.961   0.160
75196SOL    HW127485  13.797  14.040   0.202
75196SOL    HW227486  13.756  13.904   0.150
75197SOL     OW27487   1.364   3.313  10.667
75197SOL    HW127488   1.432   3.374  10.639
75197SOL    HW227489   1.391   3.284  10.753
75198SOL     OW27490  10.173   9.872  11.802
75198SOL    HW127491  10.085   9.903  11.778
75198SOL    HW227492  10.160   9.781  11.828
75199SOL     OW27493  12.013   4.369  10.581
75199SOL    HW127494  12.026   4.300  10.515
75199SOL    HW227495  12.084   4.354  10.645
75200SOL     OW27496  12.759   4.955   3.017
75200SOL    HW127497  12.781   5.011   2.943
75200SOL    HW227498  12.837   4.956   3.073
75201SOL     OW27499   8.608   0.551   2.008
75201SOL    HW127500   8.698   0.577   2.028
75201SOL    HW227501   8.563   0.557   2.092
75202SOL     OW27502   7.410  12.471  14.003
75202SOL    HW127503   7.475  12.419  13.956
75202SOL    HW227504   7.451  12.490  14.087
75203SOL     OW27505   0.526   4.275   0.214
75203SOL    HW127506   0.597   4.322   0.257
75203SOL    HW227507   0.531   4.301   0.122
75204SOL     OW27508   3.019   4.508   6.159
75204SOL    HW127509   2.927   4.529   6.172
75204SOL    HW227510   3.046   4.466   6.240
75205SOL     OW27511   7.237   3.913   8.761
75205SOL    HW127512   7.301   3.969   8.805
75205SOL    HW227513   7.243   3.938   8.669
75206SOL     OW27514  11.416   4.783   0.430
75206SOL    HW127515  11.451   4.696   0.447
75206SOL    HW227516  11.473   4.819   0.362
75207SOL     OW27517   2.395   1.259   5.230
75207SOL    HW127518   2.439   1.310   5.162
75207SOL    HW227519   2.465   1.236   5.291
75208SOL     OW27520   5.937   6.450   8.562
75208SOL    HW127521   5.843   6.468   8.562
75208SOL    HW227522   5.978   6.536   8.555
75209SOL     OW27523   2.851  11.806   0.952
75209SOL    HW127524   2.770  11.854   0.933
75209SOL    HW227525   2.876  11.768   0.867
75210SOL     OW27526   2.941   2.519   4.944
75210SOL    HW127527   2.970   2.440   4.989
75210SOL    HW227528   2.889   2.487   4.870
75211SOL     OW27529   6.457   1.313   8.627
75211SOL    HW127530   6.385   1.260   8.662
75211SOL    HW227531   6.451   1.302   8.532
75212SOL     OW27532   3.189  11.946   6.497
75212SOL    HW127533   3.275  11.943   6.538
75212SOL    HW227534   3.183  12.034   6.460
75213SOL     OW27535  14.249   5.521  10.395
75213SOL    HW127536  14.327   5.523  10.451
75213SOL    HW227537  14.212   5.609  10.402
75214SOL     OW27538   6.437   2.045   5.875
75214SOL    HW127539   6.451   1.962   5.922
75214SOL    HW227540   6.480   2.031   5.790
75215SOL     OW27541  12.352   7.107   9.299
75215SOL    HW127542  12.431   7.054   9.312
75215SOL    HW227543  12.356   7.172   9.369
75216SOL     OW27544   7.200   0.751   6.897
75216SOL    HW127545   7.121   0.707   6.926
75216SOL    HW227546   7.227   0.704   6.818
75217SOL     OW27547   2.099  13.194   0.699
75217SOL    HW127548   2.027  13.251   0.670
75217SOL    HW227549   2.156  13.186   0.622
75218SOL     OW27550  12.219   6.177   9.915
75218SOL    HW127551  12.217   6.083   9.928
75218SOL    HW227552  12.211   6.214  10.003
75219SOL     OW27553   1.793  13.704   0.951
75219SOL    HW127554   1.817  13.775   0.892
75219SOL    HW227555   1.869  13.646   0.951
75220SOL     OW27556   6.109   6.647   3.831
75220SOL    HW127557   6.159   6.566   3.833
75220SOL    HW227558   6.037   6.633   3.893
75221SOL     OW27559   7.724   9.405   7.842
75221SOL    HW127560   7.712   9.500   7.850
75221SOL    HW227561   7.813   9.395   7.807
75222SOL     OW27562   6.642   5.816  12.847
75222SOL    HW127563   6.561   5.777  12.814
75222SOL    HW227564   6.703   5.812  12.773
75223SOL     OW27565   5.985   1.898   8.495
75223SOL    HW127566   6.037   1.846   8.556
75223SOL    HW227567   6.050   1.936   8.435
75224SOL     OW27568   6.293   2.899   2.806
75224SOL    HW127569   6.217   2.918   2.860
75224SOL    HW227570   6.328   2.817   2.842
75225SOL     OW27571   3.437   9.031   4.901
75225SOL    HW127572   3.477   9.117   4.909
75225SOL    HW227573   3.399   9.012   4.987
75226SOL     OW27574   5.108   9.808  13.085
75226SOL    HW127575   5.159   9.788  13.007
75226SOL    HW227576   5.140   9.894  13.113
75227SOL     OW27577  10.419   6.586   7.356
75227SOL    HW127578  10.436   6.655   7.291
75227SOL    HW227579  10.325   6.591   7.373
75228SOL     OW27580  14.066   7.484   2.699
75228SOL    HW127581  14.068   7.461   2.791
75228SOL    HW227582  14.152   7.457   2.666
75229SOL     OW27583   8.365   1.178   7.142
75229SOL    HW127584   8.373   1.118   7.216
75229SOL    HW227585   8.454   1.204   7.121
75230SOL     OW27586   3.415   6.216  12.098
75230SOL    HW127587   3.371   6.289  12.143
75230SOL    HW227588   3.419   6.146  12.163
75231SOL     OW27589   9.860   8.170   7.188
75231SOL    HW127590   9.859   8.144   7.280
75231SOL    HW227591   9.934   8.230   7.181
75232SOL     OW27592   4.241   5.543  14.557
75232SOL    HW127593   4.279   5.482  14.620
75232SOL    HW227594   4.172   5.493  14.513
75233SOL     OW27595   0.721  11.798   1.341
75233SOL    HW127596   0.694  11.785   1.432
75233SOL    HW227597   0.643  11.778   1.290
75234SOL     OW27598  14.269   9.449  13.622
75234SOL    HW127599  14.229   9.396  13.553
75234SOL    HW227600  14.244   9.539  13.600
75235SOL     OW27601   9.912   6.493   9.881
75235SOL    HW127602   9.988   6.437   9.898
75235SOL    HW227603   9.837   6.441   9.908
75236SOL     OW27604   2.926  11.878   6.343
75236SOL    HW127605   2.983  11.909   6.273
75236SOL    HW227606   2.839  11.913   6.320
75237SOL     OW27607  10.248  11.143  12.920
75237SOL    HW127608  10.216  11.180  12.837
75237SOL    HW227609  10.177  11.161  12.983
75238SOL     OW27610   0.651   4.965   5.684
75238SOL    HW127611   0.627   5.057   5.672
75238SOL    HW227612   0.623   4.922   5.604
75239SOL     OW27613   1.706  13.920   2.179
75239SOL    HW127614   1.624  13.968   2.178
75239SOL    HW227615   1.714  13.888   2.269
75240SOL     OW27616   6.244  13.121   2.785
75240SOL    HW127617   6.209  13.142   2.698
75240SOL    HW227618   6.189  13.049   2.816
75241SOL     OW27619  13.077   2.205   4.555
75241SOL    HW127620  13.168   2.234   4.562
75241SOL    HW227621  13.074   2.155   4.473
75242SOL     OW27622  11.170   4.871  12.849
75242SOL    HW127623  11.123   4.948  12.881
75242SOL    HW227624  11.197   4.894  12.760
75243SOL     OW27625   2.267   9.196  10.637
75243SOL    HW127626   2.340   9.151  10.679
75243SOL    HW227627   2.189   9.159  10.678
75244SOL     OW27628   7.569  14.039  11.120
75244SOL    HW127629   7.617  13.970  11.074
75244SOL    HW227630   7.529  13.994  11.194
75245SOL     OW27631   3.085  14.551   8.102
75245SOL    HW127632   3.052  14.467   8.135
75245SOL    HW227633   3.043  14.561   8.016
75246SOL     OW27634   5.409   2.557   8.675
75246SOL    HW127635   5.487   2.611   8.687
75246SOL    HW227636   5.350   2.611   8.622
75247SOL     OW27637   9.755   5.229   7.354
75247SOL    HW127638   9.671   5.239   7.310
75247SOL    HW227639   9.746   5.148   7.404
75248SOL     OW27640   5.675   1.792   7.028
75248SOL    HW127641   5.645   1.882   7.036
75248SOL    HW227642   5.680   1.776   6.934
75249SOL     OW27643   7.881  14.614   3.983
75249SOL    HW127644   7.815  14.548   3.962
75249SOL    HW227645   7.959  14.563   4.007
75250SOL     OW27646   8.534   0.519  10.197
75250SOL    HW127647   8.588   0.469  10.258
75250SOL    HW227648   8.447   0.518  10.237
75251SOL     OW27649  11.163  11.295   3.235
75251SOL    HW127650  11.248  11.272   3.196
75251SOL    HW227651  11.150  11.228   3.303
75252SOL     OW27652   3.316   8.359  13.472
75252SOL    HW127653   3.355   8.434  13.427
75252SOL    HW227654   3.307   8.292  13.404
75253SOL     OW27655  12.215  11.915   9.338
75253SOL    HW127656  12.269  11.892   9.413
75253SOL    HW227657  12.233  12.008   9.322
75254SOL     OW27658   8.236   6.710   5.990
75254SOL    HW127659   8.140   6.710   5.986
75254SOL    HW227660   8.257   6.745   6.076
75255SOL     OW27661   3.271   9.249   3.856
75255SOL    HW127662   3.261   9.228   3.763
75255SOL    HW227663   3.319   9.174   3.892
75256SOL     OW27664   8.593  13.610   6.541
75256SOL    HW127665   8.542  13.580   6.465
75256SOL    HW227666   8.533  13.667   6.589
75257SOL     OW27667   8.848  10.234  14.075
75257SOL    HW127668   8.816  10.196  13.993
75257SOL    HW227669   8.885  10.159  14.123
75258SOL     OW27670   1.627   1.451   3.913
75258SOL    HW127671   1.629   1.470   4.007
75258SOL    HW227672   1.718   1.435   3.890
75259SOL     OW27673  10.775   3.699   2.649
75259SOL    HW127674  10.710   3.769   2.644
75259SOL    HW227675  10.832   3.714   2.574
75260SOL     OW27676   1.430  11.840  12.490
75260SOL    HW127677   1.363  11.820  12.424
75260SOL    HW227678   1.499  11.776  12.474
75261SOL     OW27679   7.931  12.623   0.909
75261SOL    HW127680   7.866  12.553   0.906
75261SOL    HW227681   7.925  12.658   0.998
75262SOL     OW27682   8.152  10.821  11.079
75262SOL    HW127683   8.079  10.837  11.138
75262SOL    HW227684   8.111  10.786  10.999
75263SOL     OW27685  12.235   4.069  13.821
75263SOL    HW127686  12.233   4.140  13.757
75263SOL    HW227687  12.229   3.989  13.769
75264SOL     OW27688   1.905   1.962  10.507
75264SOL    HW127689   1.973   1.969  10.440
75264SOL    HW227690   1.848   1.890  10.477
75265SOL     OW27691   4.408  11.889  14.831
75265SOL    HW127692   4.386  11.875  14.739
75265SOL    HW227693   4.341  11.842  14.880
75266SOL     OW27694   8.561  11.419   1.972
75266SOL    HW127695   8.595  11.501   2.008
75266SOL    HW227696   8.555  11.360   2.047
75267SOL     OW27697  13.489   0.213   0.907
75267SOL    HW127698  13.396   0.203   0.929
75267SOL    HW227699  13.526   0.259   0.983
75268SOL     OW27700   6.924   6.494   9.421
75268SOL    HW127701   6.911   6.407   9.383
75268SOL    HW227702   6.849   6.506   9.480
75269SOL     OW27703  10.222   1.492   4.524
75269SOL    HW127704  10.301   1.444   4.502
75269SOL    HW227705  10.150   1.434   4.496
75270SOL     OW27706   7.240   0.774  10.868
75270SOL    HW127707   7.236   0.762  10.963
75270SOL    HW227708   7.175   0.714  10.833
75271SOL     OW27709   9.649  13.691   6.320
75271SOL    HW127710   9.554  13.703   6.309
75271SOL    HW227711   9.676  13.763   6.376
75272SOL     OW27712  10.456   7.218   5.674
75272SOL    HW127713  10.362   7.226   5.686
75272SOL    HW227714  10.466   7.160   5.599
75273SOL     OW27715  11.503   1.558   3.154
75273SOL    HW127716  11.456   1.475   3.147
75273SOL    HW227717  11.436   1.625   3.144
75274SOL     OW27718  10.635  14.459   7.899
75274SOL    HW127719  10.724  14.456   7.935
75274SOL    HW227720  10.620  14.371   7.864
75275SOL     OW27721   5.584  13.474   0.588
75275SOL    HW127722   5.604  13.549   0.531
75275SOL    HW227723   5.574  13.400   0.528
75276SOL     OW27724  10.465   7.419   2.683
75276SOL    HW127725  10.513   7.470   2.748
75276SOL    HW227726  10.533   7.369   2.637
75277SOL     OW27727  12.294   7.509   7.368
75277SOL    HW127728  12.361   7.457   7.412
75277SOL    HW227729  12.221   7.449   7.355
75278SOL     OW27730  14.695   4.610  10.458
75278SOL    HW127731  14.739   4.583  10.377
75278SOL    HW227732  14.745   4.567  10.527
75279SOL     OW27733  14.247  13.194   8.767
75279SOL    HW127734  14.279  13.283   8.753
75279SOL    HW227735  14.267  13.148   8.685
75280SOL     OW27736  14.163   2.139   3.663
75280SOL    HW127737  14.152   2.047   3.687
75280SOL    HW227738  14.103   2.186   3.720
75281SOL     OW27739   1.317   5.259   0.693
75281SOL    HW127740   1.389   5.251   0.631
75281SOL    HW227741   1.274   5.341   0.669
75282SOL     OW27742  11.271   7.709   8.307
75282SOL    HW127743  11.201   7.749   8.358
75282SOL    HW227744  11.330   7.670   8.371
75283SOL     OW27745   8.629   7.510  11.762
75283SOL    HW127746   8.674   7.504  11.678
75283SOL    HW227747   8.661   7.435  11.812
75284SOL     OW27748   3.675   3.920  13.069
75284SOL    HW127749   3.627   4.002  13.084
75284SOL    HW227750   3.765   3.940  13.093
75285SOL     OW27751   4.933   7.668   5.599
75285SOL    HW127752   5.016   7.714   5.592
75285SOL    HW227753   4.949   7.582   5.561
75286SOL     OW27754  12.294  14.865   1.983
75286SOL    HW127755  12.334   0.067   1.958
75286SOL    HW227756  12.265  14.826   1.901
75287SOL     OW27757  12.593  13.456  10.501
75287SOL    HW127758  12.555  13.512  10.569
75287SOL    HW227759  12.546  13.481  10.421
75288SOL     OW27760  10.842   8.878   3.268
75288SOL    HW127761  10.867   8.815   3.335
75288SOL    HW227762  10.772   8.835   3.219
75289SOL     OW27763   6.163   8.482   8.127
75289SOL    HW127764   6.112   8.402   8.114
75289SOL    HW227765   6.107   8.552   8.093
75290SOL     OW27766   4.010   7.228  10.721
75290SOL    HW127767   3.940   7.227  10.655
75290SOL    HW227768   4.080   7.280  10.681
75291SOL     OW27769   5.928  10.352   2.023
75291SOL    HW127770   5.934  10.358   2.119
75291SOL    HW227771   6.012  10.383   1.992
75292SOL     OW27772  10.713   9.668   0.286
75292SOL    HW127773  10.671   9.753   0.273
75292SOL    HW227774  10.659   9.623   0.351
75293SOL     OW27775  11.542  11.318   6.939
75293SOL    HW127776  11.450  11.300   6.958
75293SOL    HW227777  11.544  11.410   6.913
75294SOL     OW27778   0.166   5.855   2.501
75294SOL    HW127779   0.171   5.878   2.409
75294SOL    HW227780   0.195   5.934   2.547
75295SOL     OW27781   0.065  13.026   3.828
75295SOL    HW127782   0.140  12.992   3.878
75295SOL    HW227783  14.871  13.019   3.889
75296SOL     OW27784  13.141  11.803  12.131
75296SOL    HW127785  13.078  11.780  12.063
75296SOL    HW227786  13.206  11.733  12.128
75297SOL     OW27787  10.882   1.938   8.418
75297SOL    HW127788  10.815   1.995   8.381
75297SOL    HW227789  10.964   1.966   8.376
75298SOL     OW27790  12.798   0.363  12.018
75298SOL    HW127791  12.709   0.335  12.038
75298SOL    HW227792  12.854   0.310  12.075
75299SOL     OW27793   7.143  12.349   7.216
75299SOL    HW127794   7.183  12.277   7.168
75299SOL    HW227795   7.067  12.374   7.164
75300SOL     OW27796   1.953   1.572   2.285
75300SOL    HW127797   1.949   1.663   2.314
75300SOL    HW227798   2.047   1.554   2.276
75301SOL     OW27799   8.476   6.627  11.892
75301SOL    HW127800   8.550   6.664  11.942
75301SOL    HW227801   8.490   6.658  11.803
75302SOL     OW27802   4.339   6.744  13.632
75302SOL    HW127803   4.373   6.824  13.591
75302SOL    HW227804   4.321   6.770  13.722
75303SOL     OW27805   8.504   9.660  10.287
75303SOL    HW127806   8.461   9.639  10.370
75303SOL    HW227807   8.487   9.754  10.274
75304SOL     OW27808  12.888  12.435   4.291
75304SOL    HW127809  12.857  12.484   4.367
75304SOL    HW227810  12.838  12.353   4.293
75305SOL     OW27811   3.027   8.331   8.590
75305SOL    HW127812   3.043   8.422   8.565
75305SOL    HW227813   2.998   8.288   8.510
75306SOL     OW27814   7.038  13.931  14.399
75306SOL    HW127815   7.123  13.970  14.379
75306SOL    HW227816   7.059  13.845  14.434
75307SOL     OW27817   2.990   8.121   9.332
75307SOL    HW127818   3.070   8.096   9.378
75307SOL    HW227819   2.995   8.073   9.249
75308SOL     OW27820   4.084   0.100  13.831
75308SOL    HW127821   4.112   0.011  13.813
75308SOL    HW227822   4.040   0.095  13.916
75309SOL     OW27823  11.391  12.756  12.453
75309SOL    HW127824  11.411  12.664  12.435
75309SOL    HW227825  11.467  12.804  12.418
75310SOL     OW27826  14.297   6.816  13.949
75310SOL    HW127827  14.358   6.815  14.022
75310SOL    HW227828  14.352   6.830  13.872
75311SOL     OW27829  11.640   0.271  12.106
75311SOL    HW127830  11.675   0.210  12.041
75311SOL    HW227831  11.549   0.244  12.117
75312SOL     OW27832  13.375  14.153   6.298
75312SOL    HW127833  13.313  14.118   6.361
75312SOL    HW227834  13.460  14.120   6.327
75313SOL     OW27835   7.302   9.401  13.535
75313SOL    HW127836   7.207   9.388  13.536
75313SOL    HW227837   7.326   9.404  13.628
75314SOL     OW27838   0.747   8.997   0.223
75314SOL    HW127839   0.719   8.974   0.311
75314SOL    HW227840   0.774   8.915   0.183
75315SOL     OW27841   8.435   4.315   1.123
75315SOL    HW127842   8.490   4.339   1.197
75315SOL    HW227843   8.461   4.226   1.102
75316SOL     OW27844   7.809   4.064   2.717
75316SOL    HW127845   7.902   4.085   2.706
75316SOL    HW227846   7.768   4.088   2.635
75317SOL     OW27847   3.377   4.893   7.696
75317SOL    HW127848   3.441   4.945   7.744
75317SOL    HW227849   3.327   4.956   7.645
75318SOL     OW27850   5.203  11.941   5.453
75318SOL    HW127851   5.209  11.943   5.548
75318SOL    HW227852   5.179  11.851   5.432
75319SOL     OW27853  11.277   9.738   3.793
75319SOL    HW127854  11.274   9.750   3.698
75319SOL    HW227855  11.359   9.691   3.809
75320SOL     OW27856   2.800  12.196  13.788
75320SOL    HW127857   2.800  12.290  13.801
75320SOL    HW227858   2.854  12.183  13.710
75321SOL     OW27859  10.355   1.262   2.138
75321SOL    HW127860  10.383   1.347   2.173
75321SOL    HW227861  10.383   1.264   2.047
75322SOL     OW27862   6.141   3.040   3.460
75322SOL    HW127863   6.146   3.135   3.453
75322SOL    HW227864   6.089   3.024   3.538
75323SOL     OW27865   5.791   3.943   3.822
75323SOL    HW127866   5.840   3.916   3.899
75323SOL    HW227867   5.764   4.033   3.842
75324SOL     OW27868   9.378   5.871   2.943
75324SOL    HW127869   9.453   5.893   2.998
75324SOL    HW227870   9.325   5.952   2.942
75325SOL     OW27871   1.470  12.193   9.844
75325SOL    HW127872   1.544  12.176   9.786
75325SOL    HW227873   1.509  12.203   9.931
75326SOL     OW27874  13.248   5.691   7.573
75326SOL    HW127875  13.256   5.686   7.478
75326SOL    HW227876  13.191   5.767   7.589
75327SOL     OW27877   7.709   6.911  11.435
75327SOL    HW127878   7.769   6.885  11.365
75327SOL    HW227879   7.662   6.830  11.457
75328SOL     OW27880   8.141   3.601  10.903
75328SOL    HW127881   8.165   3.627  10.814
75328SOL    HW227882   8.126   3.507  10.897
75329SOL     OW27883   1.359  13.564  14.780
75329SOL    HW127884   1.329  13.473  14.787
75329SOL    HW227885   1.344  13.601  14.867
75330SOL     OW27886   6.331   5.748  12.747
75330SOL    HW127887   6.305   5.806  12.819
75330SOL    HW227888   6.302   5.793  12.668
75331SOL     OW27889  14.676   4.688  13.981
75331SOL    HW127890  14.677   4.698  13.886
75331SOL    HW227891  14.763   4.716  14.009
75332SOL     OW27892   2.923  14.797   9.179
75332SOL    HW127893   2.856  14.739   9.142
75332SOL    HW227894   2.932  14.867   9.114
75333SOL     OW27895   6.097   1.555  10.687
75333SOL    HW127896   6.109   1.621  10.755
75333SOL    HW227897   6.008   1.569  10.655
75334SOL     OW27898  12.777  13.646  10.199
75334SOL    HW127899  12.847  13.648  10.264
75334SOL    HW227900  12.728  13.727  10.215
75335SOL     OW27901   1.048   8.832  12.828
75335SOL    HW127902   1.090   8.893  12.768
75335SOL    HW227903   1.090   8.748  12.810
75336SOL     OW27904  14.755   7.204   5.431
75336SOL    HW127905  14.816   7.278   5.433
75336SOL    HW227906  14.676   7.237   5.474
75337SOL     OW27907  11.390   2.188   0.116
75337SOL    HW127908  11.396   2.243   0.039
75337SOL    HW227909  11.416   2.101   0.086
75338SOL     OW27910  12.356   2.892   5.820
75338SOL    HW127911  12.388   2.982   5.820
75338SOL    HW227912  12.417   2.844   5.877
75339SOL     OW27913   6.667  11.428   1.071
75339SOL    HW127914   6.733  11.391   1.013
75339SOL    HW227915   6.715  11.449   1.151
75340SOL     OW27916   7.344  12.180   6.149
75340SOL    HW127917   7.258  12.144   6.130
75340SOL    HW227918   7.364  12.150   6.238
75341SOL     OW27919   7.883   2.068   1.778
75341SOL    HW127920   7.824   2.143   1.776
75341SOL    HW227921   7.929   2.075   1.862
75342SOL     OW27922   1.410   8.406  12.613
75342SOL    HW127923   1.405   8.320  12.655
75342SOL    HW227924   1.364   8.394  12.529
75343SOL     OW27925  12.177   4.065  13.179
75343SOL    HW127926  12.242   4.122  13.220
75343SOL    HW227927  12.206   3.977  13.201
75344SOL     OW27928  14.672   3.962  10.963
75344SOL    HW127929  14.576   3.963  10.965
75344SOL    HW227930  14.693   3.886  10.908
75345SOL     OW27931   9.922   4.846  11.366
75345SOL    HW127932   9.999   4.798  11.394
75345SOL    HW227933   9.946   4.938  11.375
75346SOL     OW27934   7.954   9.763   0.448
75346SOL    HW127935   7.958   9.738   0.541
75346SOL    HW227936   7.865   9.796   0.436
75347SOL     OW27937   0.752  10.275  10.518
75347SOL    HW127938   0.695  10.260  10.594
75347SOL    HW227939   0.731  10.364  10.490
75348SOL     OW27940   6.364   3.153   9.604
75348SOL    HW127941   6.433   3.129   9.666
75348SOL    HW227942   6.373   3.248   9.595
75349SOL     OW27943  10.364   3.901   8.645
75349SOL    HW127944  10.435   3.884   8.583
75349SOL    HW227945  10.327   3.815   8.664
75350SOL     OW27946   0.484   8.069   2.874
75350SOL    HW127947   0.574   8.102   2.869
75350SOL    HW227948   0.468   8.029   2.789
75351SOL     OW27949   2.896   0.025   3.772
75351SOL    HW127950   2.842  14.855   3.832
75351SOL    HW227951   2.838   0.094   3.740
75352SOL     OW27952   6.765   1.123   6.812
75352SOL    HW127953   6.799   1.038   6.839
75352SOL    HW227954   6.677   1.128   6.850
75353SOL     OW27955   8.171   6.774   2.610
75353SOL    HW127956   8.150   6.859   2.649
75353SOL    HW227957   8.138   6.780   2.520
75354SOL     OW27958   1.896  12.853  11.183
75354SOL    HW127959   1.976  12.859  11.236
75354SOL    HW227960   1.857  12.770  11.210
75355SOL     OW27961   4.138   7.197  12.746
75355SOL    HW127962   4.156   7.281  12.706
75355SOL    HW227963   4.086   7.150  12.681
75356SOL     OW27964   3.272   4.353   7.946
75356SOL    HW127965   3.233   4.433   7.911
75356SOL    HW227966   3.362   4.355   7.915
75357SOL     OW27967   9.694   3.413  12.812
75357SOL    HW127968   9.672   3.340  12.869
75357SOL    HW227969   9.711   3.374  12.726
75358SOL     OW27970  12.546   6.036   6.114
75358SOL    HW127971  12.463   6.084   6.119
75358SOL    HW227972  12.524   5.952   6.076
75359SOL     OW27973   3.000   5.597  13.754
75359SOL    HW127974   3.004   5.628  13.663
75359SOL    HW227975   2.972   5.673  13.805
75360SOL     OW27976   0.955  10.629  11.224
75360SOL    HW127977   0.928  10.628  11.316
75360SOL    HW227978   1.049  10.614  11.227
75361SOL     OW27979   5.656  13.114   4.710
75361SOL    HW127980   5.705  13.048   4.758
75361SOL    HW227981   5.571  13.117   4.753
75362SOL     OW27982   0.376   3.778   7.179
75362SOL    HW127983   0.365   3.683   7.187
75362SOL    HW227984   0.316   3.814   7.244
75363SOL     OW27985   6.748   5.602  11.735
75363SOL    HW127986   6.670   5.571  11.780
75363SOL    HW227987   6.820   5.556  11.778
75364SOL     OW27988  13.483  11.263   8.245
75364SOL    HW127989  13.472  11.302   8.331
75364SOL    HW227990  13.515  11.174   8.262
75365SOL     OW27991   0.793  11.419   6.661
75365SOL    HW127992   0.858  11.379   6.602
75365SOL    HW227993   0.763  11.347   6.716
75366SOL     OW27994   8.607  12.413   1.472
75366SOL    HW127995   8.628  12.333   1.521
75366SOL    HW227996   8.562  12.468   1.536
75367SOL     OW27997   3.575   1.919   8.826
75367SOL    HW127998   3.631   1.918   8.749
75367SOL    HW227999   3.590   2.004   8.867
75368SOL     OW28000  12.723   3.227  11.588
75368SOL    HW128001  12.734   3.315  11.552
75368SOL    HW228002  12.762   3.169  11.522
75369SOL     OW28003  13.687  10.092   7.963
75369SOL    HW128004  13.728  10.006   7.961
75369SOL    HW228005  13.608  10.083   7.910
75370SOL     OW28006  12.172  14.030   4.008
75370SOL    HW128007  12.250  14.004   3.960
75370SOL    HW228008  12.187  14.120   4.033
75371SOL     OW28009   1.151   9.383   9.556
75371SOL    HW128010   1.155   9.460   9.613
75371SOL    HW228011   1.238   9.343   9.565
75372SOL     OW28012   9.452   5.905   1.074
75372SOL    HW128013   9.424   5.884   1.163
75372SOL    HW228014   9.520   5.972   1.085
75373SOL     OW28015  10.269   4.469   5.713
75373SOL    HW128016  10.256   4.376   5.696
75373SOL    HW228017  10.333   4.497   5.648
75374SOL     OW28018   8.138   9.619   6.632
75374SOL    HW128019   8.121   9.624   6.538
75374SOL    HW228020   8.080   9.549   6.663
75375SOL     OW28021   0.255   1.566   8.809
75375SOL    HW128022   0.289   1.521   8.733
75375SOL    HW228023   0.227   1.497   8.868
75376SOL     OW28024   3.127   5.531   2.872
75376SOL    HW128025   3.078   5.471   2.816
75376SOL    HW228026   3.219   5.513   2.852
75377SOL     OW28027   6.292   4.914  13.643
75377SOL    HW128028   6.215   4.970  13.650
75377SOL    HW228029   6.326   4.930  13.555
75378SOL     OW28030   7.357   7.926   0.475
75378SOL    HW128031   7.372   7.843   0.521
75378SOL    HW228032   7.329   7.900   0.387
75379SOL     OW28033  10.026   6.326  10.793
75379SOL    HW128034   9.976   6.265  10.847
75379SOL    HW228035  10.058   6.273  10.720
75380SOL     OW28036   0.685   0.798   3.597
75380SOL    HW128037   0.685   0.864   3.528
75380SOL    HW228038   0.630   0.727   3.563
75381SOL     OW28039  10.424   3.662   8.970
75381SOL    HW128040  10.438   3.640   8.877
75381SOL    HW228041  10.511   3.656   9.009
75382SOL     OW28042  11.642  14.390   1.464
75382SOL    HW128043  11.583  14.463   1.482
75382SOL    HW228044  11.610  14.319   1.519
75383SOL     OW28045   0.205   3.200   3.502
75383SOL    HW128046   0.184   3.292   3.517
75383SOL    HW228047   0.125   3.162   3.466
75384SOL     OW28048  10.965   8.958   9.710
75384SOL    HW128049  11.024   8.903   9.658
75384SOL    HW228050  11.010   9.043   9.715
75385SOL     OW28051  12.476  12.394   3.726
75385SOL    HW128052  12.523  12.325   3.772
75385SOL    HW228053  12.496  12.380   3.634
75386SOL     OW28054   7.796   1.606   5.661
75386SOL    HW128055   7.849   1.535   5.625
75386SOL    HW228056   7.708   1.591   5.625
75387SOL     OW28057   2.143   7.872  11.434
75387SOL    HW128058   2.125   7.797  11.378
75387SOL    HW228059   2.191   7.933  11.378
75388SOL     OW28060  12.417   9.449   5.655
75388SOL    HW128061  12.454   9.452   5.743
75388SOL    HW228062  12.425   9.357   5.628
75389SOL     OW28063   2.041   1.937   1.859
75389SOL    HW128064   2.012   1.874   1.793
75389SOL    HW228065   2.040   2.021   1.814
75390SOL     OW28066  13.268   1.873   0.870
75390SOL    HW128067  13.238   1.858   0.960
75390SOL    HW228068  13.319   1.795   0.850
75391SOL     OW28069   8.924   9.171  14.009
75391SOL    HW128070   8.996   9.193  13.949
75391SOL    HW228071   8.947   9.217  14.090
75392SOL     OW28072   4.460   4.924   4.029
75392SOL    HW128073   4.516   4.987   4.073
75392SOL    HW228074   4.449   4.854   4.093
75393SOL     OW28075   3.945   6.261   4.285
75393SOL    HW128076   4.004   6.235   4.356
75393SOL    HW228077   3.864   6.214   4.303
75394SOL     OW28078  14.279  12.635  10.082
75394SOL    HW128079  14.294  12.666  10.171
75394SOL    HW228080  14.346  12.569  10.068
75395SOL     OW28081  11.261   4.866   5.969
75395SOL    HW128082  11.267   4.911   6.053
75395SOL    HW228083  11.333   4.804   5.969
75396SOL     OW28084   5.269   4.926   7.658
75396SOL    HW128085   5.184   4.958   7.689
75396SOL    HW228086   5.302   4.997   7.602
75397SOL     OW28087  14.006   2.679  14.301
75397SOL    HW128088  14.038   2.756  14.254
75397SOL    HW228089  14.054   2.680  14.384
75398SOL     OW28090   6.660  13.169   1.205
75398SOL    HW128091   6.628  13.084   1.177
75398SOL    HW228092   6.615  13.232   1.148
75399SOL     OW28093   5.838   9.937   3.699
75399SOL    HW128094   5.835   9.842   3.710
75399SOL    HW228095   5.902   9.967   3.763
75400SOL     OW28096  13.173   9.947   4.595
75400SOL    HW128097  13.151   9.877   4.657
75400SOL    HW228098  13.256   9.920   4.557
75401SOL     OW28099   4.797  14.267  11.417
75401SOL    HW128100   4.835  14.184  11.389
75401SOL    HW228101   4.853  14.334  11.376
75402SOL     OW28102   4.314  13.616   5.289
75402SOL    HW128103   4.267  13.670   5.353
75402SOL    HW228104   4.402  13.653   5.287
75403SOL     OW28105   8.203   1.506   7.756
75403SOL    HW128106   8.221   1.533   7.666
75403SOL    HW228107   8.278   1.537   7.806
75404SOL     OW28108  10.428  14.115   7.302
75404SOL    HW128109  10.342  14.111   7.344
75404SOL    HW228110  10.489  14.087   7.370
75405SOL     OW28111  13.739   9.061   5.005
75405SOL    HW128112  13.728   8.980   5.054
75405SOL    HW228113  13.785   9.034   4.925
75406SOL     OW28114  11.565  10.435   2.149
75406SOL    HW128115  11.543  10.525   2.128
75406SOL    HW228116  11.589  10.436   2.242
75407SOL     OW28117   3.783   8.443   8.079
75407SOL    HW128118   3.805   8.350   8.084
75407SOL    HW228119   3.825   8.481   8.156
75408SOL     OW28120   3.279   2.828   2.048
75408SOL    HW128121   3.269   2.733   2.053
75408SOL    HW228122   3.287   2.857   2.139
75409SOL     OW28123   0.573   5.898   1.795
75409SOL    HW128124   0.604   5.891   1.705
75409SOL    HW228125   0.569   5.808   1.826
75410SOL     OW28126   7.430   0.398   4.048
75410SOL    HW128127   7.389   0.407   3.962
75410SOL    HW228128   7.412   0.482   4.092
75411SOL     OW28129   2.180  13.228   4.882
75411SOL    HW128130   2.263  13.236   4.835
75411SOL    HW228131   2.131  13.162   4.834
75412SOL     OW28132  10.141   4.512  14.258
75412SOL    HW128133  10.083   4.556  14.321
75412SOL    HW228134  10.115   4.420  14.261
75413SOL     OW28135  14.660   9.130  11.429
75413SOL    HW128136  14.589   9.138  11.492
75413SOL    HW228137  14.705   9.048  11.454
75414SOL     OW28138   8.754   8.151   2.914
75414SOL    HW128139   8.716   8.117   2.995
75414SOL    HW228140   8.830   8.201   2.942
75415SOL     OW28141   8.286   2.191   5.162
75415SOL    HW128142   8.205   2.148   5.189
75415SOL    HW228143   8.295   2.168   5.069
75416SOL     OW28144   2.138   0.419  14.190
75416SOL    HW128145   2.186   0.433  14.271
75416SOL    HW228146   2.203   0.428  14.121
75417SOL     OW28147   5.469   6.009   5.361
75417SOL    HW128148   5.539   6.048   5.309
75417SOL    HW228149   5.437   5.936   5.308
75418SOL     OW28150  12.375   3.070   1.870
75418SOL    HW128151  12.316   3.138   1.838
75418SOL    HW228152  12.440   3.118   1.922
75419SOL     OW28153   4.325  10.039   3.792
75419SOL    HW128154   4.235  10.069   3.789
75419SOL    HW228155   4.376  10.111   3.755
75420SOL     OW28156   7.284  10.540   1.482
75420SOL    HW128157   7.283  10.472   1.415
75420SOL    HW228158   7.195  10.539   1.518
75421SOL     OW28159   5.053   8.226  13.040
75421SOL    HW128160   5.008   8.286  12.981
75421SOL    HW228161   5.009   8.142  13.029
75422SOL     OW28162   4.017   1.541   3.350
75422SOL    HW128163   3.937   1.488   3.346
75422SOL    HW228164   4.032   1.568   3.259
75423SOL     OW28165   8.867   0.247   0.874
75423SOL    HW128166   8.915   0.182   0.822
75423SOL    HW228167   8.932   0.284   0.933
75424SOL     OW28168   6.965  14.587  10.373
75424SOL    HW128169   6.957  14.650  10.444
75424SOL    HW228170   7.037  14.620  10.319
75425SOL     OW28171   3.139  13.325   6.042
75425SOL    HW128172   3.180  13.247   6.080
75425SOL    HW228173   3.103  13.373   6.116
75426SOL     OW28174  13.594  14.755   5.726
75426SOL    HW128175  13.641  14.742   5.643
75426SOL    HW228176  13.581  14.850   5.730
75427SOL     OW28177   9.345   5.403   6.928
75427SOL    HW128178   9.410   5.473   6.933
75427SOL    HW228179   9.270   5.442   6.882
75428SOL     OW28180  13.567   0.609   9.371
75428SOL    HW128181  13.657   0.593   9.400
75428SOL    HW228182  13.538   0.684   9.423
75429SOL     OW28183  14.066   7.838   4.198
75429SOL    HW128184  14.022   7.910   4.242
75429SOL    HW228185  14.033   7.841   4.108
75430SOL     OW28186   1.539  14.411   7.220
75430SOL    HW128187   1.481  14.460   7.161
75430SOL    HW228188   1.480  14.375   7.286
75431SOL     OW28189   6.890   8.340  11.611
75431SOL    HW128190   6.880   8.359  11.704
75431SOL    HW228191   6.802   8.351  11.575
75432SOL     OW28192   1.286   0.176   1.162
75432SOL    HW128193   1.367   0.218   1.191
75432SOL    HW228194   1.242   0.242   1.109
75433SOL     OW28195   1.314  14.808   7.764
75433SOL    HW128196   1.233  14.804   7.714
75433SOL    HW228197   1.293  14.768   7.848
75434SOL     OW28198   9.327  13.140   6.737
75434SOL    HW128199   9.347  13.154   6.829
75434SOL    HW228200   9.320  13.045   6.728
75435SOL     OW28201   2.059  14.879   5.106
75435SOL    HW128202   2.014   0.060   5.165
75435SOL    HW228203   2.053  14.795   5.151
75436SOL     OW28204   3.865   3.691  12.678
75436SOL    HW128205   3.801   3.703  12.608
75436SOL    HW228206   3.824   3.630  12.739
75437SOL     OW28207  13.635  12.925   3.978
75437SOL    HW128208  13.577  12.992   3.941
75437SOL    HW228209  13.711  12.974   4.010
75438SOL     OW28210   5.945   6.203  10.971
75438SOL    HW128211   5.963   6.152  10.891
75438SOL    HW228212   5.856   6.177  10.995
75439SOL     OW28213   7.432   3.111   2.852
75439SOL    HW128214   7.344   3.142   2.874
75439SOL    HW228215   7.462   3.065   2.930
75440SOL     OW28216  12.571  11.832   5.827
75440SOL    HW128217  12.557  11.738   5.825
75440SOL    HW228218  12.608  11.850   5.913
75441SOL     OW28219   6.817   3.626   6.883
75441SOL    HW128220   6.898   3.647   6.837
75441SOL    HW228221   6.811   3.692   6.952
75442SOL     OW28222   7.379   5.018  14.680
75442SOL    HW128223   7.435   4.988  14.751
75442SOL    HW228224   7.439   5.040  14.609
75443SOL     OW28225   5.845   4.325  12.130
75443SOL    HW128226   5.823   4.408  12.172
75443SOL    HW228227   5.763   4.276  12.129
75444SOL     OW28228   8.715   8.436   2.869
75444SOL    HW128229   8.689   8.347   2.849
75444SOL    HW228230   8.741   8.433   2.961
75445SOL     OW28231  11.933   6.148   0.894
75445SOL    HW128232  11.888   6.064   0.907
75445SOL    HW228233  11.931   6.161   0.799
75446SOL     OW28234   4.557   9.538   4.773
75446SOL    HW128235   4.548   9.507   4.683
75446SOL    HW228236   4.546   9.633   4.767
75447SOL     OW28237   8.852   0.263   3.490
75447SOL    HW128238   8.931   0.218   3.459
75447SOL    HW228239   8.852   0.249   3.584
75448SOL     OW28240  14.089   9.767  11.463
75448SOL    HW128241  14.033   9.691  11.478
75448SOL    HW228242  14.104   9.768  11.368
75449SOL     OW28243  14.052   5.080   1.212
75449SOL    HW128244  14.004   5.157   1.243
75449SOL    HW228245  14.110   5.113   1.144
75450SOL     OW28246   6.726   1.282   5.290
75450SOL    HW128247   6.776   1.219   5.239
75450SOL    HW228248   6.787   1.354   5.305
75451SOL     OW28249   1.347  10.928   9.387
75451SOL    HW128250   1.326  10.999   9.327
75451SOL    HW228251   1.274  10.927   9.449
75452SOL     OW28252  13.790   0.860   7.455
75452SOL    HW128253  13.716   0.907   7.416
75452SOL    HW228254  13.749   0.787   7.501
75453SOL     OW28255   5.706   4.192   5.243
75453SOL    HW128256   5.660   4.108   5.243
75453SOL    HW228257   5.735   4.203   5.334
75454SOL     OW28258   4.366   0.319   2.826
75454SOL    HW128259   4.405   0.272   2.900
75454SOL    HW228260   4.437   0.372   2.791
75455SOL     OW28261  10.889   3.941  11.476
75455SOL    HW128262  10.869   3.851  11.449
75455SOL    HW228263  10.856   3.995  11.404
75456SOL     OW28264  12.720   8.785   2.131
75456SOL    HW128265  12.681   8.791   2.043
75456SOL    HW228266  12.704   8.694   2.158
75457SOL     OW28267   0.106   2.140   1.646
75457SOL    HW128268   0.050   2.151   1.569
75457SOL    HW228269   0.109   2.046   1.661
75458SOL     OW28270   2.985   6.974  11.012
75458SOL    HW128271   2.936   6.909  11.062
75458SOL    HW228272   2.926   6.999  10.941
75459SOL     OW28273  11.801   9.392   6.738
75459SOL    HW128274  11.852   9.471   6.755
75459SOL    HW228275  11.724   9.401   6.795
75460SOL     OW28276  13.246  14.157   8.193
75460SOL    HW128277  13.297  14.139   8.272
75460SOL    HW228278  13.158  14.125   8.214
75461SOL     OW28279  11.280   0.679   1.610
75461SOL    HW128280  11.364   0.716   1.638
75461SOL    HW228281  11.303   0.609   1.550
75462SOL     OW28282   9.991   9.563   9.880
75462SOL    HW128283  10.049   9.636   9.900
75462SOL    HW228284   9.903   9.600   9.883
75463SOL     OW28285  12.989   1.182  13.199
75463SOL    HW128286  13.050   1.231  13.144
75463SOL    HW228287  12.991   1.093  13.164
75464SOL     OW28288   6.111   9.484   9.778
75464SOL    HW128289   6.084   9.521   9.695
75464SOL    HW228290   6.135   9.393   9.758
75465SOL     OW28291  11.097   0.663   3.507
75465SOL    HW128292  11.046   0.736   3.543
75465SOL    HW228293  11.186   0.697   3.500
75466SOL     OW28294  14.401  12.397   2.052
75466SOL    HW128295  14.489  12.360   2.050
75466SOL    HW228296  14.360  12.358   2.129
75467SOL     OW28297   9.487   6.420   2.170
75467SOL    HW128298   9.403   6.387   2.202
75467SOL    HW228299   9.515   6.357   2.104
75468SOL     OW28300   9.826  12.590   6.010
75468SOL    HW128301   9.898  12.629   6.060
75468SOL    HW228302   9.795  12.518   6.064
75469SOL     OW28303  10.637   2.409   4.712
75469SOL    HW128304  10.653   2.404   4.618
75469SOL    HW228305  10.724   2.400   4.751
75470SOL     OW28306  14.815  14.309   0.377
75470SOL    HW128307  14.852  14.378   0.322
75470SOL    HW228308  14.729  14.343   0.403
75471SOL     OW28309  10.362  14.806   7.439
75471SOL    HW128310  10.315  14.771   7.364
75471SOL    HW228311  10.348  14.742   7.508
75472SOL     OW28312   1.104   7.048   4.720
75472SOL    HW128313   1.055   6.966   4.717
75472SOL    HW228314   1.059   7.105   4.657
75473SOL     OW28315  12.602  11.874  11.708
75473SOL    HW128316  12.606  11.781  11.730
75473SOL    HW228317  12.690  11.907  11.728
75474SOL     OW28318   8.939   4.928  11.565
75474SOL    HW128319   8.890   4.952  11.487
75474SOL    HW228320   8.997   5.003  11.580
75475SOL     OW28321   4.466   4.781  13.232
75475SOL    HW128322   4.476   4.751  13.323
75475SOL    HW228323   4.522   4.858  13.226
75476SOL     OW28324   6.735   6.334   7.841
75476SOL    HW128325   6.647   6.359   7.867
75476SOL    HW228326   6.727   6.243   7.813
75477SOL     OW28327   6.464   8.620   9.863
75477SOL    HW128328   6.557   8.623   9.843
75477SOL    HW228329   6.455   8.662   9.948
75478SOL     OW28330   1.259   2.846  12.772
75478SOL    HW128331   1.164   2.836  12.779
75478SOL    HW228332   1.281   2.911  12.838
75479SOL     OW28333  14.870   4.166   3.795
75479SOL    HW128334   0.079   4.197   3.779
75479SOL    HW228335  14.861   4.090   3.738
75480SOL     OW28336  12.881   5.116   4.012
75480SOL    HW128337  12.843   5.029   4.021
75480SOL    HW228338  12.820   5.163   3.956
75481SOL     OW28339   4.578   3.881   6.064
75481SOL    HW128340   4.596   3.951   6.127
75481SOL    HW228341   4.499   3.839   6.097
75482SOL     OW28342   2.375   4.774   9.332
75482SOL    HW128343   2.404   4.841   9.393
75482SOL    HW228344   2.456   4.737   9.297
75483SOL     OW28345   2.137  13.448  10.984
75483SOL    HW128346   2.114  13.431  10.893
75483SOL    HW228347   2.131  13.363  11.027
75484SOL     OW28348   5.927   5.695  12.259
75484SOL    HW128349   5.843   5.726  12.227
75484SOL    HW228350   5.991   5.734  12.200
75485SOL     OW28351  11.131   3.508   3.677
75485SOL    HW128352  11.208   3.525   3.624
75485SOL    HW228353  11.075   3.585   3.665
75486SOL     OW28354  14.316   0.881  13.078
75486SOL    HW128355  14.387   0.817  13.084
75486SOL    HW228356  14.267   0.869  13.159
75487SOL     OW28357   1.794  10.672  10.544
75487SOL    HW128358   1.869  10.705  10.595
75487SOL    HW228359   1.737  10.749  10.535
75488SOL     OW28360  10.778  12.653   1.227
75488SOL    HW128361  10.700  12.703   1.203
75488SOL    HW228362  10.851  12.704   1.192
75489SOL     OW28363   0.157   6.609   4.239
75489SOL    HW128364   0.101   6.642   4.309
75489SOL    HW228365   0.209   6.685   4.212
75490SOL     OW28366  12.769   8.712  12.362
75490SOL    HW128367  12.825   8.760  12.302
75490SOL    HW228368  12.794   8.744  12.449
75491SOL     OW28369  12.901   1.936   2.797
75491SOL    HW128370  12.836   1.974   2.855
75491SOL    HW228371  12.873   1.845   2.787
75492SOL     OW28372  10.832   1.818   2.391
75492SOL    HW128373  10.820   1.777   2.476
75492SOL    HW228374  10.814   1.911   2.406
75493SOL     OW28375   1.305   4.598  12.691
75493SOL    HW128376   1.275   4.645  12.768
75493SOL    HW228377   1.261   4.513  12.695
75494SOL     OW28378  12.043   3.396   2.213
75494SOL    HW128379  12.120   3.429   2.166
75494SOL    HW228380  12.080   3.347   2.287
75495SOL     OW28381   1.060   8.825   8.283
75495SOL    HW128382   1.110   8.879   8.222
75495SOL    HW228383   1.123   8.803   8.352
75496SOL     OW28384   3.844   8.314  13.217
75496SOL    HW128385   3.845   8.224  13.252
75496SOL    HW228386   3.917   8.317  13.156
75497SOL     OW28387  10.077   2.838   6.329
75497SOL    HW128388   9.992   2.850   6.287
75497SOL    HW228389  10.103   2.926   6.356
75498SOL     OW28390   7.306  13.803   1.024
75498SOL    HW128391   7.335  13.735   1.084
75498SOL    HW228392   7.236  13.763   0.973
75499SOL     OW28393   2.692  10.036  10.883
75499SOL    HW128394   2.677  10.130  10.891
75499SOL    HW228395   2.736  10.011  10.964
75500SOL     OW28396  10.283  12.406   0.484
75500SOL    HW128397  10.219  12.346   0.444
75500SOL    HW228398  10.268  12.489   0.439
75501SOL     OW28399   3.233   3.716   4.073
75501SOL    HW128400   3.234   3.733   4.167
75501SOL    HW228401   3.140   3.707   4.051
75502SOL     OW28402   2.614   5.314  13.818
75502SOL    HW128403   2.709   5.315  13.803
75502SOL    HW228404   2.589   5.406  13.824
75503SOL     OW28405   3.212   0.894   7.207
75503SOL    HW128406   3.133   0.889   7.154
75503SOL    HW228407   3.268   0.823   7.174
75504SOL     OW28408  13.333  10.307   7.309
75504SOL    HW128409  13.422  10.271   7.317
75504SOL    HW228410  13.279  10.233   7.284
75505SOL     OW28411  14.441   9.522  13.966
75505SOL    HW128412  14.514   9.462  13.948
75505SOL    HW228413  14.372   9.465  14.001
75506SOL     OW28414   2.197   4.648   8.922
75506SOL    HW128415   2.267   4.710   8.900
75506SOL    HW228416   2.123   4.704   8.948
75507SOL     OW28417  10.195   0.190   9.826
75507SOL    HW128418  10.247   0.235   9.892
75507SOL    HW228419  10.251   0.188   9.748
75508SOL     OW28420  13.778  12.475   7.948
75508SOL    HW128421  13.867  12.442   7.935
75508SOL    HW228422  13.727  12.398   7.970
75509SOL     OW28423   9.734   6.388   2.314
75509SOL    HW128424   9.644   6.386   2.347
75509SOL    HW228425   9.730   6.447   2.238
75510SOL     OW28426   8.106   0.535  11.991
75510SOL    HW128427   8.099   0.605  11.926
75510SOL    HW228428   8.031   0.548  12.049
75511SOL     OW28429   1.719   5.920   6.385
75511SOL    HW128430   1.663   5.935   6.460
75511SOL    HW228431   1.681   5.844   6.341
75512SOL     OW28432   1.159  13.410  11.081
75512SOL    HW128433   1.081  13.364  11.051
75512SOL    HW228434   1.224  13.341  11.093
75513SOL     OW28435  12.294  12.880   9.590
75513SOL    HW128436  12.275  12.916   9.677
75513SOL    HW228437  12.287  12.955   9.531
75514SOL     OW28438  14.461   4.681   4.748
75514SOL    HW128439  14.389   4.667   4.688
75514SOL    HW228440  14.537   4.640   4.706
75515SOL     OW28441   6.429   9.109   9.722
75515SOL    HW128442   6.415   9.129   9.629
75515SOL    HW228443   6.513   9.063   9.724
75516SOL     OW28444  12.393  13.871  11.956
75516SOL    HW128445  12.421  13.866  11.864
75516SOL    HW228446  12.349  13.788  11.972
75517SOL     OW28447   4.163   3.634   1.978
75517SOL    HW128448   4.126   3.717   1.946
75517SOL    HW228449   4.119   3.567   1.925
75518SOL     OW28450  11.028   7.880   0.016
75518SOL    HW128451  10.951   7.859  14.843
75518SOL    HW228452  11.021   7.973   0.033
75519SOL     OW28453   8.142   8.411   9.337
75519SOL    HW128454   8.227   8.399   9.380
75519SOL    HW228455   8.109   8.321   9.324
75520SOL     OW28456  12.730   9.389   3.998
75520SOL    HW128457  12.766   9.404   3.911
75520SOL    HW228458  12.655   9.331   3.984
75521SOL     OW28459   3.219   4.433   4.497
75521SOL    HW128460   3.233   4.375   4.572
75521SOL    HW228461   3.240   4.521   4.530
75522SOL     OW28462   7.339   6.261   7.877
75522SOL    HW128463   7.421   6.253   7.926
75522SOL    HW228464   7.292   6.332   7.920
75523SOL     OW28465   7.883   9.796  14.138
75523SOL    HW128466   7.879   9.788  14.233
75523SOL    HW228467   7.977   9.791  14.118
75524SOL     OW28468  12.141   3.885   1.080
75524SOL    HW128469  12.083   3.863   1.007
75524SOL    HW228470  12.098   3.845   1.156
75525SOL     OW28471  11.002   7.313   4.844
75525SOL    HW128472  11.035   7.349   4.762
75525SOL    HW228473  10.917   7.356   4.856
75526SOL     OW28474   2.646  10.371   5.866
75526SOL    HW128475   2.696  10.413   5.796
75526SOL    HW228476   2.685  10.284   5.875
75527SOL     OW28477   2.527  14.506   8.844
75527SOL    HW128478   2.503  14.598   8.829
75527SOL    HW228479   2.619  14.500   8.817
75528SOL     OW28480  11.412   5.981   8.198
75528SOL    HW128481  11.407   6.004   8.291
75528SOL    HW228482  11.483   5.916   8.194
75529SOL     OW28483   9.485   1.934   4.884
75529SOL    HW128484   9.577   1.925   4.909
75529SOL    HW228485   9.483   1.916   4.790
75530SOL     OW28486   9.235  14.301   6.262
75530SOL    HW128487   9.232  14.347   6.179
75530SOL    HW228488   9.197  14.215   6.244
75531SOL     OW28489   9.956  14.301   5.622
75531SOL    HW128490  10.030  14.361   5.620
75531SOL    HW228491   9.956  14.265   5.711
75532SOL     OW28492   9.347  12.300   8.705
75532SOL    HW128493   9.324  12.258   8.788
75532SOL    HW228494   9.290  12.259   8.640
75533SOL     OW28495   5.062   4.390   0.289
75533SOL    HW128496   4.997   4.373   0.357
75533SOL    HW228497   5.145   4.396   0.336
75534SOL     OW28498   6.504   0.502  14.418
75534SOL    HW128499   6.450   0.505  14.496
75534SOL    HW228500   6.592   0.522  14.449
75535SOL     OW28501  10.935  13.990  12.575
75535SOL    HW128502  11.005  14.047  12.607
75535SOL    HW228503  10.866  14.051  12.546
75536SOL     OW28504   4.006   2.371   3.961
75536SOL    HW128505   4.088   2.409   3.993
75536SOL    HW228506   3.976   2.433   3.894
75537SOL     OW28507   8.119   8.648  11.374
75537SOL    HW128508   8.091   8.740  11.369
75537SOL    HW228509   8.212   8.652  11.396
75538SOL     OW28510  11.042  10.484   1.817
75538SOL    HW128511  11.021  10.517   1.905
75538SOL    HW228512  10.993  10.541   1.758
75539SOL     OW28513  10.973  10.130   0.956
75539SOL    HW128514  11.059  10.147   0.917
75539SOL    HW228515  10.926  10.214   0.948
75540SOL     OW28516  10.279   8.757   0.368
75540SOL    HW128517  10.246   8.667   0.375
75540SOL    HW228518  10.276   8.790   0.458
75541SOL     OW28519   8.906   0.480   2.795
75541SOL    HW128520   8.985   0.478   2.849
75541SOL    HW228521   8.867   0.393   2.807
75542SOL     OW28522   9.730   4.371   4.710
75542SOL    HW128523   9.693   4.400   4.626
75542SOL    HW228524   9.669   4.403   4.776
75543SOL     OW28525   3.257   5.174   2.633
75543SOL    HW128526   3.224   5.132   2.712
75543SOL    HW228527   3.349   5.148   2.629
75544SOL     OW28528   0.554   8.694   0.268
75544SOL    HW128529   0.571   8.729   0.180
75544SOL    HW228530   0.593   8.606   0.266
75545SOL     OW28531   9.781   4.919  10.487
75545SOL    HW128532   9.754   5.010  10.501
75545SOL    HW228533   9.861   4.926  10.434
75546SOL     OW28534   4.164  11.776   3.384
75546SOL    HW128535   4.233  11.717   3.413
75546SOL    HW228536   4.112  11.724   3.324
75547SOL     OW28537   0.520   3.010   0.825
75547SOL    HW128538   0.559   2.939   0.773
75547SOL    HW228539   0.569   3.088   0.801
75548SOL     OW28540  12.937   0.903  14.750
75548SOL    HW128541  12.906   0.819  14.784
75548SOL    HW228542  12.870   0.929  14.686
75549SOL     OW28543   0.752   6.133   7.331
75549SOL    HW128544   0.811   6.086   7.390
75549SOL    HW228545   0.764   6.225   7.354
75550SOL     OW28546  13.478   5.945   3.022
75550SOL    HW128547  13.515   5.890   3.092
75550SOL    HW228548  13.452   6.025   3.067
75551SOL     OW28549   8.158   0.860   6.021
75551SOL    HW128550   8.235   0.911   5.997
75551SOL    HW228551   8.084   0.916   5.997
75552SOL     OW28552  12.215  11.069   6.582
75552SOL    HW128553  12.153  11.094   6.513
75552SOL    HW228554  12.297  11.111   6.556
75553SOL     OW28555   7.518   1.839  13.762
75553SOL    HW128556   7.569   1.828  13.843
75553SOL    HW228557   7.542   1.927  13.732
75554SOL     OW28558   3.928   3.203   9.309
75554SOL    HW128559   3.981   3.277   9.338
75554SOL    HW228560   3.880   3.236   9.233
75555SOL     OW28561   2.990   7.329  13.867
75555SOL    HW128562   3.019   7.341  13.777
75555SOL    HW228563   2.896   7.313  13.860
75556SOL     OW28564   2.803   6.113  12.499
75556SOL    HW128565   2.779   6.020  12.494
75556SOL    HW228566   2.728   6.159  12.462
75557SOL     OW28567   1.565  14.371   1.945
75557SOL    HW128568   1.655  14.368   1.977
75557SOL    HW228569   1.557  14.456   1.901
75558SOL     OW28570  13.712  12.463  10.296
75558SOL    HW128571  13.799  12.483  10.330
75558SOL    HW228572  13.727  12.442  10.204
75559SOL     OW28573  11.694   8.754   8.241
75559SOL    HW128574  11.788   8.735   8.242
75559SOL    HW228575  11.686   8.837   8.288
75560SOL     OW28576   8.654   4.108  10.728
75560SOL    HW128577   8.736   4.138  10.766
75560SOL    HW228578   8.594   4.182  10.737
75561SOL     OW28579   9.944   4.978   3.510
75561SOL    HW128580   9.884   4.958   3.438
75561SOL    HW228581  10.026   5.001   3.466
75562SOL     OW28582  12.217  11.919   2.077
75562SOL    HW128583  12.275  11.892   2.006
75562SOL    HW228584  12.129  11.917   2.038
75563SOL     OW28585   6.283  10.195   6.321
75563SOL    HW128586   6.318  10.164   6.405
75563SOL    HW228587   6.306  10.126   6.259
75564SOL     OW28588   3.909   0.242   3.787
75564SOL    HW128589   3.951   0.184   3.850
75564SOL    HW228590   3.851   0.185   3.737
75565SOL     OW28591   1.747  11.693  11.597
75565SOL    HW128592   1.724  11.632  11.667
75565SOL    HW228593   1.730  11.780  11.635
75566SOL     OW28594   1.592   7.890   4.060
75566SOL    HW128595   1.544   7.823   4.109
75566SOL    HW228596   1.670   7.845   4.028
75567SOL     OW28597  12.878   4.477   6.896
75567SOL    HW128598  12.873   4.473   6.992
75567SOL    HW228599  12.969   4.501   6.879
75568SOL     OW28600   7.736   1.339  10.904
75568SOL    HW128601   7.800   1.267  10.898
75568SOL    HW228602   7.653   1.295  10.923
75569SOL     OW28603   0.140  14.225  13.892
75569SOL    HW128604   0.115  14.275  13.814
75569SOL    HW228605   0.182  14.290  13.950
75570SOL     OW28606  14.178  11.650  14.045
75570SOL    HW128607  14.204  11.693  13.964
75570SOL    HW228608  14.082  11.658  14.046
75571SOL     OW28609   4.437   7.000  13.525
75571SOL    HW128610   4.530   7.002  13.547
75571SOL    HW228611   4.417   7.089  13.495
75572SOL     OW28612   8.127   6.255   7.922
75572SOL    HW128613   8.188   6.278   7.992
75572SOL    HW228614   8.183   6.232   7.848
75573SOL     OW28615   5.093   8.899  11.877
75573SOL    HW128616   5.076   8.988  11.846
75573SOL    HW228617   5.134   8.911  11.963
75574SOL     OW28618  14.611  12.132   0.270
75574SOL    HW128619  14.524  12.105   0.300
75574SOL    HW228620  14.618  12.223   0.298
75575SOL     OW28621  12.369   0.245  10.761
75575SOL    HW128622  12.285   0.199  10.758
75575SOL    HW228623  12.435   0.176  10.757
75576SOL     OW28624  13.266   1.302   7.210
75576SOL    HW128625  13.342   1.323   7.155
75576SOL    HW228626  13.206   1.374   7.196
75577SOL     OW28627   9.834   3.066   3.089
75577SOL    HW128628   9.832   2.971   3.078
75577SOL    HW228629   9.769   3.084   3.157
75578SOL     OW28630   9.631   3.900  11.203
75578SOL    HW128631   9.668   3.832  11.259
75578SOL    HW228632   9.683   3.978  11.222
75579SOL     OW28633   2.263  14.079  12.460
75579SOL    HW128634   2.264  14.126  12.376
75579SOL    HW228635   2.308  13.997  12.441
75580SOL     OW28636  12.416   8.813   7.050
75580SOL    HW128637  12.322   8.814   7.066
75580SOL    HW228638  12.455   8.841   7.133
75581SOL     OW28639   5.624  12.789  12.514
75581SOL    HW128640   5.674  12.736  12.452
75581SOL    HW228641   5.532  12.774  12.490
75582SOL     OW28642   9.613  10.900   8.546
75582SOL    HW128643   9.590  10.934   8.460
75582SOL    HW228644   9.529  10.891   8.591
75583SOL     OW28645  11.811   5.017  13.079
75583SOL    HW128646  11.734   5.066  13.050
75583SOL    HW228647  11.780   4.927  13.091
75584SOL     OW28648   1.316   7.666  11.498
75584SOL    HW128649   1.387   7.603  11.503
75584SOL    HW228650   1.267   7.642  11.419
75585SOL     OW28651  14.513   7.052  14.025
75585SOL    HW128652  14.524   7.042  14.120
75585SOL    HW228653  14.432   7.102  14.016
75586SOL     OW28654  12.738   9.885   6.179
75586SOL    HW128655  12.666   9.824   6.198
75586SOL    HW228656  12.803   9.866   6.246
75587SOL     OW28657   2.441  11.335   3.178
75587SOL    HW128658   2.430  11.423   3.141
75587SOL    HW228659   2.491  11.350   3.258
75588SOL     OW28660   4.859  10.828   6.768
75588SOL    HW128661   4.776  10.782   6.754
75588SOL    HW228662   4.925  10.771   6.730
75589SOL     OW28663   2.912   5.144   0.411
75589SOL    HW128664   3.001   5.120   0.437
75589SOL    HW228665   2.918   5.159   0.317
75590SOL     OW28666   0.864   9.635   4.759
75590SOL    HW128667   0.790   9.575   4.773
75590SOL    HW228668   0.940   9.577   4.750
75591SOL     OW28669   7.493   9.024  11.994
75591SOL    HW128670   7.399   9.029  12.015
75591SOL    HW228671   7.536   9.055  12.073
75592SOL     OW28672  11.894   4.956   2.673
75592SOL    HW128673  11.819   4.979   2.619
75592SOL    HW228674  11.905   5.030   2.732
75593SOL     OW28675   7.073   9.006   7.058
75593SOL    HW128676   7.047   9.017   6.967
75593SOL    HW228677   6.999   9.040   7.108
75594SOL     OW28678  12.745   9.725   2.619
75594SOL    HW128679  12.833   9.742   2.586
75594SOL    HW228680  12.689   9.787   2.571
75595SOL     OW28681   4.208   5.482   7.483
75595SOL    HW128682   4.136   5.477   7.546
75595SOL    HW228683   4.247   5.569   7.498
75596SOL     OW28684   0.490   0.169   7.220
75596SOL    HW128685   0.565   0.197   7.167
75596SOL    HW228686   0.473   0.080   7.192
75597SOL     OW28687   3.557   5.874   9.283
75597SOL    HW128688   3.650   5.892   9.271
75597SOL    HW228689   3.544   5.880   9.378
75598SOL     OW28690  13.655   7.596  11.912
75598SOL    HW128691  13.676   7.661  11.979
75598SOL    HW228692  13.733   7.593  11.856
75599SOL     OW28693  10.403   5.020   8.529
75599SOL    HW128694  10.309   5.010   8.516
75599SOL    HW228695  10.437   5.040   8.442
75600SOL     OW28696   5.628  10.437   2.308
75600SOL    HW128697   5.577  10.365   2.344
75600SOL    HW228698   5.643  10.414   2.217
75601SOL     OW28699   0.771   1.625   9.182
75601SOL    HW128700   0.778   1.632   9.087
75601SOL    HW228701   0.828   1.552   9.205
75602SOL     OW28702   8.872  14.276  10.492
75602SOL    HW128703   8.910  14.233  10.415
75602SOL    HW228704   8.933  14.345  10.515
75603SOL     OW28705  11.914   9.947   8.943
75603SOL    HW128706  11.912   9.956   9.038
75603SOL    HW228707  11.825   9.919   8.920
75604SOL     OW28708   8.393  12.240   9.700
75604SOL    HW128709   8.477  12.196   9.696
75604SOL    HW228710   8.390  12.278   9.788
75605SOL     OW28711   1.639  12.432   5.080
75605SOL    HW128712   1.648  12.527   5.083
75605SOL    HW228713   1.728  12.400   5.066
75606SOL     OW28714   3.223   6.885  10.446
75606SOL    HW128715   3.186   6.962  10.488
75606SOL    HW228716   3.306   6.914  10.410
75607SOL     OW28717  14.773  11.701   7.691
75607SOL    HW128718  14.831  11.751   7.748
75607SOL    HW228719  14.713  11.765   7.654
75608SOL     OW28720   3.417   2.861  12.598
75608SOL    HW128721   3.408   2.882  12.505
75608SOL    HW228722   3.342   2.904  12.639
75609SOL     OW28723   5.093   6.709   3.004
75609SOL    HW128724   5.081   6.787   3.059
75609SOL    HW228725   5.061   6.636   3.058
75610SOL     OW28726   0.047   0.908  11.947
75610SOL    HW128727  14.847   0.857  11.946
75610SOL    HW228728   0.027   0.985  11.894
75611SOL     OW28729   1.433   5.976  11.402
75611SOL    HW128730   1.489   5.992  11.325
75611SOL    HW228731   1.360   6.037  11.392
75612SOL     OW28732  14.301   5.917  12.388
75612SOL    HW128733  14.273   5.971  12.314
75612SOL    HW228734  14.259   5.833  12.374
75613SOL     OW28735   3.534  13.152   2.049
75613SOL    HW128736   3.569  13.240   2.034
75613SOL    HW228737   3.611  13.095   2.043
75614SOL     OW28738   2.930   3.325  11.853
75614SOL    HW128739   2.838   3.337  11.876
75614SOL    HW228740   2.953   3.241  11.894
75615SOL     OW28741   1.156   8.439   2.808
75615SOL    HW128742   1.161   8.414   2.715
75615SOL    HW228743   1.238   8.487   2.823
75616SOL     OW28744  12.777   5.261   7.747
75616SOL    HW128745  12.772   5.357   7.745
75616SOL    HW228746  12.820   5.242   7.831
75617SOL     OW28747   2.079  11.247  11.239
75617SOL    HW128748   2.115  11.209  11.319
75617SOL    HW228749   2.033  11.175  11.196
75618SOL     OW28750   5.093   7.940   2.404
75618SOL    HW128751   5.073   7.913   2.314
75618SOL    HW228752   5.007   7.952   2.445
75619SOL     OW28753  12.878   5.898  13.643
75619SOL    HW128754  12.916   5.979  13.610
75619SOL    HW228755  12.912   5.891  13.732
75620SOL     OW28756  10.659   4.322   5.798
75620SOL    HW128757  10.619   4.258   5.740
75620SOL    HW228758  10.651   4.405   5.751
75621SOL     OW28759   5.193   2.746   7.437
75621SOL    HW128760   5.232   2.737   7.524
75621SOL    HW228761   5.153   2.832   7.437
75622SOL     OW28762  10.742   6.487   1.971
75622SOL    HW128763  10.749   6.582   1.977
75622SOL    HW228764  10.788   6.464   1.890
75623SOL     OW28765   3.572  14.311   2.711
75623SOL    HW128766   3.570  14.271   2.624
75623SOL    HW228767   3.584  14.237   2.770
75624SOL     OW28768   2.745  11.559   1.094
75624SOL    HW128769   2.835  11.593   1.093
75624SOL    HW228770   2.717  11.567   1.185
75625SOL     OW28771   7.620   5.451   6.118
75625SOL    HW128772   7.649   5.531   6.074
75625SOL    HW228773   7.607   5.477   6.209
75626SOL     OW28774   3.536  13.113  11.646
75626SOL    HW128775   3.548  13.127  11.552
75626SOL    HW228776   3.593  13.039  11.666
75627SOL     OW28777   2.526   4.204   2.849
75627SOL    HW128778   2.601   4.244   2.893
75627SOL    HW228779   2.480   4.156   2.918
75628SOL     OW28780   8.303   6.488  10.101
75628SOL    HW128781   8.386   6.441  10.091
75628SOL    HW228782   8.260   6.479  10.016
75629SOL     OW28783   7.902   2.462   9.535
75629SOL    HW128784   7.957   2.450   9.613
75629SOL    HW228785   7.944   2.409   9.468
75630SOL     OW28786   5.449  10.557  11.889
75630SOL    HW128787   5.498  10.638  11.901
75630SOL    HW228788   5.357  10.582  11.903
75631SOL     OW28789   1.390  10.879   8.329
75631SOL    HW128790   1.470  10.914   8.291
75631SOL    HW228791   1.344  10.955   8.364
75632SOL     OW28792   8.756   6.721  11.703
75632SOL    HW128793   8.776   6.650  11.764
75632SOL    HW228794   8.678   6.691  11.656
75633SOL     OW28795   4.205  10.883   6.421
75633SOL    HW128796   4.209  10.978   6.418
75633SOL    HW228797   4.114  10.863   6.443
75634SOL     OW28798   7.484  13.031   2.256
75634SOL    HW128799   7.494  12.939   2.278
75634SOL    HW228800   7.435  13.031   2.174
75635SOL     OW28801  11.242   3.330   9.582
75635SOL    HW128802  11.191   3.252   9.602
75635SOL    HW228803  11.266   3.367   9.667
75636SOL     OW28804   3.313  11.146  13.251
75636SOL    HW128805   3.382  11.109  13.196
75636SOL    HW228806   3.243  11.080  13.248
75637SOL     OW28807  12.285   3.797   4.706
75637SOL    HW128808  12.290   3.707   4.675
75637SOL    HW228809  12.367   3.837   4.676
75638SOL     OW28810   1.531   2.199  14.297
75638SOL    HW128811   1.489   2.149  14.227
75638SOL    HW228812   1.583   2.134  14.344
75639SOL     OW28813  10.428   9.476   2.377
75639SOL    HW128814  10.511   9.523   2.371
75639SOL    HW228815  10.361   9.542   2.361
75640SOL     OW28816  13.623   4.129   8.573
75640SOL    HW128817  13.687   4.132   8.502
75640SOL    HW228818  13.545   4.091   8.533
75641SOL     OW28819  14.115   7.193   7.253
75641SOL    HW128820  14.157   7.277   7.272
75641SOL    HW228821  14.021   7.213   7.252
75642SOL     OW28822   6.460  13.584   0.582
75642SOL    HW128823   6.422  13.627   0.659
75642SOL    HW228824   6.476  13.656   0.521
75643SOL     OW28825   5.252   3.098   9.264
75643SOL    HW128826   5.274   3.191   9.257
75643SOL    HW228827   5.263   3.064   9.175
75644SOL     OW28828   9.048  11.810   3.255
75644SOL    HW128829   9.053  11.865   3.333
75644SOL    HW228830   9.008  11.729   3.285
75645SOL     OW28831  12.847   3.192  10.698
75645SOL    HW128832  12.821   3.102  10.715
75645SOL    HW228833  12.854   3.232  10.785
75646SOL     OW28834  11.105   0.433   1.518
75646SOL    HW128835  11.075   0.524   1.527
75646SOL    HW228836  11.183   0.439   1.463
75647SOL     OW28837   8.620   0.243   6.968
75647SOL    HW128838   8.629   0.163   6.917
75647SOL    HW228839   8.559   0.297   6.918
75648SOL     OW28840   3.778   7.558   7.024
75648SOL    HW128841   3.716   7.599   6.964
75648SOL    HW228842   3.741   7.572   7.111
75649SOL     OW28843   3.689  14.329  11.697
75649SOL    HW128844   3.702  14.420  11.670
75649SOL    HW228845   3.613  14.300  11.647
75650SOL     OW28846   3.038   7.241   9.408
75650SOL    HW128847   3.106   7.189   9.366
75650SOL    HW228848   3.037   7.211   9.499
75651SOL     OW28849   0.230   9.483  11.057
75651SOL    HW128850   0.234   9.388  11.063
75651SOL    HW228851   0.209   9.512  11.145
75652SOL     OW28852  14.703  12.615   6.345
75652SOL    HW128853  14.667  12.670   6.414
75652SOL    HW228854  14.630  12.556   6.321
75653SOL     OW28855  13.318  12.072   6.971
75653SOL    HW128856  13.223  12.057   6.969
75653SOL    HW228857  13.353  11.998   7.020
75654SOL     OW28858  13.274  11.388  10.942
75654SOL    HW128859  13.275  11.410  11.035
75654SOL    HW228860  13.247  11.296  10.940
75655SOL     OW28861  11.375  10.628   6.510
75655SOL    HW128862  11.452  10.578   6.487
75655SOL    HW228863  11.310  10.603   6.444
75656SOL     OW28864  14.354   0.705   5.871
75656SOL    HW128865  14.391   0.726   5.785
75656SOL    HW228866  14.280   0.647   5.852
75657SOL     OW28867   8.305  13.736   3.225
75657SOL    HW128868   8.349  13.820   3.217
75657SOL    HW228869   8.271  13.735   3.314
75658SOL     OW28870   3.399  14.575  11.502
75658SOL    HW128871   3.334  14.630  11.547
75658SOL    HW228872   3.388  14.489  11.542
75659SOL     OW28873   4.644  11.777   5.322
75659SOL    HW128874   4.674  11.747   5.236
75659SOL    HW228875   4.703  11.734   5.384
75660SOL     OW28876   7.555   8.400   3.730
75660SOL    HW128877   7.567   8.319   3.779
75660SOL    HW228878   7.636   8.449   3.745
75661SOL     OW28879   7.229  10.441   3.972
75661SOL    HW128880   7.265  10.503   3.909
75661SOL    HW228881   7.286  10.447   4.048
75662SOL     OW28882   3.673  11.439   6.656
75662SOL    HW128883   3.722  11.521   6.651
75662SOL    HW228884   3.719  11.388   6.723
75663SOL     OW28885   8.054  10.061   8.835
75663SOL    HW128886   8.015  10.147   8.852
75663SOL    HW228887   8.038  10.011   8.915
75664SOL     OW28888   9.514  11.541  12.679
75664SOL    HW128889   9.478  11.587  12.604
75664SOL    HW228890   9.438  11.521  12.734
75665SOL     OW28891   6.032  12.927   5.737
75665SOL    HW128892   6.091  12.854   5.754
75665SOL    HW228893   6.064  12.998   5.793
75666SOL     OW28894  10.976   9.140  12.432
75666SOL    HW128895  11.009   9.053  12.455
75666SOL    HW228896  11.053   9.188  12.403
75667SOL     OW28897  11.797  10.148   6.741
75667SOL    HW128898  11.872  10.192   6.700
75667SOL    HW228899  11.747  10.219   6.782
75668SOL     OW28900   3.517   5.684   5.495
75668SOL    HW128901   3.592   5.743   5.486
75668SOL    HW228902   3.481   5.704   5.581
75669SOL     OW28903  11.485   1.305  10.503
75669SOL    HW128904  11.400   1.346  10.489
75669SOL    HW228905  11.549   1.373  10.484
75670SOL     OW28906   2.553   9.981  14.187
75670SOL    HW128907   2.524   9.891  14.169
75670SOL    HW228908   2.493  10.013  14.254
75671SOL     OW28909   9.748  14.853  14.851
75671SOL    HW128910   9.749  14.799  14.772
75671SOL    HW228911   9.829   0.023  14.847
75672SOL     OW28912  10.224  12.764  13.926
75672SOL    HW128913  10.163  12.832  13.955
75672SOL    HW228914  10.194  12.740  13.838
75673SOL     OW28915   3.820   7.688   4.896
75673SOL    HW128916   3.852   7.778   4.903
75673SOL    HW228917   3.899   7.635   4.888
75674SOL     OW28918   6.491   7.343   2.631
75674SOL    HW128919   6.404   7.306   2.649
75674SOL    HW228920   6.548   7.303   2.696
75675SOL     OW28921   9.874  14.623  13.145
75675SOL    HW128922   9.848  14.709  13.177
75675SOL    HW228923   9.831  14.615  13.060
75676SOL     OW28924   9.520   7.406  12.630
75676SOL    HW128925   9.578   7.391  12.555
75676SOL    HW228926   9.558   7.481  12.675
75677SOL     OW28927   1.877   0.268  10.449
75677SOL    HW128928   1.800   0.244  10.501
75677SOL    HW228929   1.949   0.222  10.491
75678SOL     OW28930  10.119   3.806   3.923
75678SOL    HW128931  10.039   3.824   3.973
75678SOL    HW228932  10.087   3.774   3.838
75679SOL     OW28933   6.174   8.359  12.044
75679SOL    HW128934   6.108   8.292  12.060
75679SOL    HW228935   6.125   8.442  12.044
75680SOL     OW28936  12.467   5.688  12.665
75680SOL    HW128937  12.373   5.696  12.682
75680SOL    HW228938  12.478   5.598  12.634
75681SOL     OW28939   0.191   3.262   5.987
75681SOL    HW128940   0.280   3.297   5.987
75681SOL    HW228941   0.168   3.256   5.894
75682SOL     OW28942   9.732   7.167   4.350
75682SOL    HW128943   9.805   7.164   4.289
75682SOL    HW228944   9.666   7.222   4.306
75683SOL     OW28945   5.696  12.964   6.281
75683SOL    HW128946   5.780  12.919   6.266
75683SOL    HW228947   5.672  12.941   6.370
75684SOL     OW28948  10.597  11.001   9.366
75684SOL    HW128949  10.657  10.931   9.392
75684SOL    HW228950  10.533  10.958   9.310
75685SOL     OW28951  13.317   9.823   0.033
75685SOL    HW128952  13.297   9.736  14.878
75685SOL    HW228953  13.286   9.883  14.846
75686SOL     OW28954   3.208   9.046   5.373
75686SOL    HW128955   3.236   9.116   5.314
75686SOL    HW228956   3.231   8.965   5.327
75687SOL     OW28957  13.603   2.059   6.761
75687SOL    HW128958  13.662   2.061   6.836
75687SOL    HW228959  13.523   2.101   6.792
75688SOL     OW28960  12.297   1.337   4.558
75688SOL    HW128961  12.325   1.285   4.483
75688SOL    HW228962  12.366   1.403   4.569
75689SOL     OW28963  11.824   5.888   0.977
75689SOL    HW128964  11.732   5.866   0.990
75689SOL    HW228965  11.869   5.858   1.056
75690SOL     OW28966   6.793  11.692   3.671
75690SOL    HW128967   6.792  11.614   3.726
75690SOL    HW228968   6.701  11.715   3.658
75691SOL     OW28969  10.213   0.219   2.407
75691SOL    HW128970  10.131   0.266   2.420
75691SOL    HW228971  10.221   0.208   2.312
75692SOL     OW28972   1.903   1.677   8.307
75692SOL    HW128973   1.927   1.591   8.342
75692SOL    HW228974   1.908   1.666   8.212
75693SOL     OW28975  13.864   3.302   6.879
75693SOL    HW128976  13.811   3.357   6.821
75693SOL    HW228977  13.813   3.296   6.959
75694SOL     OW28978   8.861   1.430   9.006
75694SOL    HW128979   8.793   1.365   8.990
75694SOL    HW228980   8.915   1.428   8.926
75695SOL     OW28981  11.125   8.320   0.017
75695SOL    HW128982  11.033   8.295   0.007
75695SOL    HW228983  11.131   8.406  14.856
75696SOL     OW28984   2.887   4.987  14.113
75696SOL    HW128985   2.957   4.945  14.063
75696SOL    HW228986   2.889   5.078  14.083
75697SOL     OW28987  12.623  13.335   4.562
75697SOL    HW128988  12.625  13.239   4.559
75697SOL    HW228989  12.640  13.356   4.654
75698SOL     OW28990   1.329  13.525   5.708
75698SOL    HW128991   1.422  13.535   5.731
75698SOL    HW228992   1.313  13.431   5.713
75699SOL     OW28993   5.246  13.316  13.041
75699SOL    HW128994   5.277  13.316  12.950
75699SOL    HW228995   5.269  13.229  13.074
75700SOL     OW28996   1.090   8.402   9.116
75700SOL    HW128997   1.139   8.451   9.050
75700SOL    HW228998   1.024   8.353   9.067
75701SOL     OW28999   1.413  10.427   2.051
75701SOL    HW129000   1.504  10.403   2.067
75701SOL    HW229001   1.376  10.439   2.138
75702SOL     OW29002  11.208   2.803  10.574
75702SOL    HW129003  11.222   2.734  10.638
75702SOL    HW229004  11.113   2.816  10.573
75703SOL     OW29005   0.587   7.868   4.906
75703SOL    HW129006   0.653   7.838   4.969
75703SOL    HW229007   0.629   7.857   4.821
75704SOL     OW29008   7.743   1.953   9.851
75704SOL    HW129009   7.673   1.918   9.795
75704SOL    HW229010   7.786   2.019   9.798
75705SOL     OW29011   7.123  13.047  11.667
75705SOL    HW129012   7.123  13.044  11.762
75705SOL    HW229013   7.047  13.101  11.644
75706SOL     OW29014  11.475   7.001   4.762
75706SOL    HW129015  11.446   7.070   4.822
75706SOL    HW229016  11.404   6.992   4.699
75707SOL     OW29017  11.793   2.039  14.572
75707SOL    HW129018  11.812   2.037  14.479
75707SOL    HW229019  11.821   2.126  14.601
75708SOL     OW29020  12.995   4.417   1.008
75708SOL    HW129021  12.960   4.504   0.991
75708SOL    HW229022  12.919   4.359   0.998
75709SOL     OW29023   6.540  14.666  14.442
75709SOL    HW129024   6.501  14.735  14.389
75709SOL    HW229025   6.490  14.667  14.524
75710SOL     OW29026   8.636   1.928  13.208
75710SOL    HW129027   8.574   1.859  13.227
75710SOL    HW229028   8.586   2.009  13.216
75711SOL     OW29029   0.413   8.506  14.338
75711SOL    HW129030   0.329   8.542  14.310
75711SOL    HW229031   0.408   8.506  14.434
75712SOL     OW29032  12.777  10.982   1.494
75712SOL    HW129033  12.751  10.909   1.549
75712SOL    HW229034  12.865  10.959   1.463
75713SOL     OW29035   4.973   7.599   3.795
75713SOL    HW129036   4.890   7.551   3.790
75713SOL    HW229037   4.998   7.592   3.887
75714SOL     OW29038   0.070   7.992  13.520
75714SOL    HW129039   0.063   8.087  13.520
75714SOL    HW229040   0.059   7.968  13.428
75715SOL     OW29041   6.040   4.967   3.198
75715SOL    HW129042   6.064   5.028   3.128
75715SOL    HW229043   6.116   4.966   3.256
75716SOL     OW29044   5.131   2.933   3.393
75716SOL    HW129045   5.162   2.859   3.445
75716SOL    HW229046   5.067   2.895   3.332
75717SOL     OW29047   5.427   5.044  12.271
75717SOL    HW129048   5.444   5.136  12.250
75717SOL    HW229049   5.490   5.022  12.339
75718SOL     OW29050   9.851   3.942   4.290
75718SOL    HW129051   9.882   4.023   4.249
75718SOL    HW229052   9.804   3.970   4.369
75719SOL     OW29053   5.257   9.963   9.981
75719SOL    HW129054   5.173   9.978   9.936
75719SOL    HW229055   5.323   9.971   9.911
75720SOL     OW29056   0.949   9.207  12.284
75720SOL    HW129057   0.913   9.270  12.346
75720SOL    HW229058   0.980   9.135  12.338
75721SOL     OW29059   3.202   2.597   6.901
75721SOL    HW129060   3.267   2.658   6.936
75721SOL    HW229061   3.173   2.637   6.819
75722SOL     OW29062   9.248   3.152   4.983
75722SOL    HW129063   9.302   3.191   4.915
75722SOL    HW229064   9.195   3.225   5.016
75723SOL     OW29065   3.985   8.796   8.788
75723SOL    HW129066   3.960   8.889   8.790
75723SOL    HW229067   3.938   8.758   8.862
75724SOL     OW29068   4.031  11.864   3.615
75724SOL    HW129069   4.069  11.831   3.534
75724SOL    HW229070   4.058  11.801   3.682
75725SOL     OW29071   0.700  12.386   8.362
75725SOL    HW129072   0.713  12.432   8.280
75725SOL    HW229073   0.604  12.382   8.372
75726SOL     OW29074   5.618   1.736   1.918
75726SOL    HW129075   5.664   1.733   1.834
75726SOL    HW229076   5.573   1.821   1.917
75727SOL     OW29077   6.795   6.981   7.358
75727SOL    HW129078   6.720   6.945   7.405
75727SOL    HW229079   6.822   7.056   7.411
75728SOL     OW29080  12.372  10.215  14.599
75728SOL    HW129081  12.394  10.266  14.521
75728SOL    HW229082  12.456  10.178  14.628
75729SOL     OW29083   4.749  10.387  10.634
75729SOL    HW129084   4.686  10.388  10.706
75729SOL    HW229085   4.714  10.447  10.569
75730SOL     OW29086  10.592   4.968  12.922
75730SOL    HW129087  10.531   4.895  12.921
75730SOL    HW229088  10.658   4.944  12.987
75731SOL     OW29089   1.126   6.157   3.809
75731SOL    HW129090   1.107   6.133   3.900
75731SOL    HW229091   1.164   6.079   3.771
75732SOL     OW29092   9.776  13.957   0.327
75732SOL    HW129093   9.846  14.019   0.348
75732SOL    HW229094   9.725  13.948   0.407
75733SOL     OW29095  13.798   8.605  14.833
75733SOL    HW129096  13.741   8.532  14.810
75733SOL    HW229097  13.885   8.567  14.841
75734SOL     OW29098   8.472  14.012   9.608
75734SOL    HW129099   8.468  13.978   9.697
75734SOL    HW229100   8.565  14.031   9.593
75735SOL     OW29101  13.360   7.438   1.334
75735SOL    HW129102  13.287   7.488   1.370
75735SOL    HW229103  13.416   7.503   1.292
75736SOL     OW29104  12.993   2.673   5.916
75736SOL    HW129105  12.949   2.726   5.982
75736SOL    HW229106  13.044   2.736   5.865
75737SOL     OW29107   9.304   9.561   0.646
75737SOL    HW129108   9.381   9.549   0.701
75737SOL    HW229109   9.236   9.507   0.687
75738SOL     OW29110  13.418   2.073   0.759
75738SOL    HW129111  13.389   2.085   0.668
75738SOL    HW229112  13.388   1.985   0.782
75739SOL     OW29113  14.798  10.844   8.099
75739SOL    HW129114  14.859  10.773   8.081
75739SOL    HW229115  14.737  10.842   8.025
75740SOL     OW29116   5.814   8.586  10.904
75740SOL    HW129117   5.733   8.536  10.897
75740SOL    HW229118   5.837   8.583  10.997
75741SOL     OW29119  13.218  11.204  14.374
75741SOL    HW129120  13.207  11.110  14.364
75741SOL    HW229121  13.296  11.225  14.323
75742SOL     OW29122   2.582   3.557   1.764
75742SOL    HW129123   2.608   3.649   1.762
75742SOL    HW229124   2.642   3.515   1.702
75743SOL     OW29125   5.857   8.951  13.758
75743SOL    HW129126   5.802   8.888  13.711
75743SOL    HW229127   5.852   8.923  13.850
75744SOL     OW29128   2.438   6.329   3.045
75744SOL    HW129129   2.430   6.251   3.100
75744SOL    HW229130   2.488   6.299   2.968
75745SOL     OW29131  14.257   3.741  12.271
75745SOL    HW129132  14.246   3.831  12.241
75745SOL    HW229133  14.351   3.724  12.262
75746SOL     OW29134  14.394   8.377   0.628
75746SOL    HW129135  14.460   8.323   0.673
75746SOL    HW229136  14.318   8.320   0.622
75747SOL     OW29137   9.565  12.887  10.079
75747SOL    HW129138   9.556  12.895  10.174
75747SOL    HW229139   9.499  12.822  10.054
75748SOL     OW29140   6.445   9.267  14.319
75748SOL    HW129141   6.369   9.217  14.288
75748SOL    HW229142   6.410   9.354  14.339
75749SOL     OW29143   2.261   3.155  12.209
75749SOL    HW129144   2.253   3.065  12.177
75749SOL    HW229145   2.215   3.208  12.144
75750SOL     OW29146   0.317  12.301   1.105
75750SOL    HW129147   0.249  12.303   1.037
75750SOL    HW229148   0.344  12.209   1.109
75751SOL     OW29149   7.164   0.054  11.541
75751SOL    HW129150   7.219  14.874  11.491
75751SOL    HW229151   7.082   0.060  11.490
75752SOL     OW29152   7.007  12.941  13.290
75752SOL    HW129153   7.048  12.855  13.300
75752SOL    HW229154   6.916  12.926  13.317
75753SOL     OW29155   5.102   6.418   9.538
75753SOL    HW129156   5.013   6.396   9.567
75753SOL    HW229157   5.097   6.510   9.513
75754SOL     OW29158   1.711  11.298  12.858
75754SOL    HW129159   1.725  11.338  12.944
75754SOL    HW229160   1.655  11.223  12.875
75755SOL     OW29161   1.211  10.521   7.707
75755SOL    HW129162   1.175  10.520   7.619
75755SOL    HW229163   1.224  10.614   7.727
75756SOL     OW29164   5.904   2.739   5.209
75756SOL    HW129165   5.854   2.818   5.186
75756SOL    HW229166   5.995   2.766   5.199
75757SOL     OW29167   2.100   6.738   2.007
75757SOL    HW129168   2.164   6.804   2.031
75757SOL    HW229169   2.017   6.786   2.003
75758SOL     OW29170   2.777   0.546   2.115
75758SOL    HW129171   2.811   0.462   2.145
75758SOL    HW229172   2.835   0.571   2.042
75759SOL     OW29173   1.462  12.348   5.627
75759SOL    HW129174   1.515  12.401   5.686
75759SOL    HW229175   1.402  12.410   5.586
75760SOL     OW29176   1.790   0.859   4.810
75760SOL    HW129177   1.868   0.832   4.859
75760SOL    HW229178   1.771   0.947   4.843
75761SOL     OW29179   2.693   4.568   1.974
75761SOL    HW129180   2.751   4.640   1.949
75761SOL    HW229181   2.753   4.501   2.008
75762SOL     OW29182   8.393   1.522  13.045
75762SOL    HW129183   8.442   1.492  12.969
75762SOL    HW229184   8.308   1.479  13.037
75763SOL     OW29185   4.817   8.169   8.062
75763SOL    HW129186   4.907   8.138   8.053
75763SOL    HW229187   4.764   8.097   8.029
75764SOL     OW29188   5.134   1.365   2.979
75764SOL    HW129189   5.060   1.305   2.984
75764SOL    HW229190   5.160   1.364   2.887
75765SOL     OW29191   9.152   4.114   6.870
75765SOL    HW129192   9.198   4.146   6.792
75765SOL    HW229193   9.069   4.081   6.836
75766SOL     OW29194   0.503  14.606   3.380
75766SOL    HW129195   0.462  14.569   3.302
75766SOL    HW229196   0.592  14.627   3.354
75767SOL     OW29197  14.729   4.921  10.103
75767SOL    HW129198  14.738   4.890  10.193
75767SOL    HW229199  14.820   4.932  10.073
75768SOL     OW29200   3.255  13.173   6.786
75768SOL    HW129201   3.293  13.253   6.821
75768SOL    HW229202   3.239  13.118   6.863
75769SOL     OW29203  13.793   5.419   7.465
75769SOL    HW129204  13.741   5.339   7.459
75769SOL    HW229205  13.732   5.488   7.438
75770SOL     OW29206   9.628   5.461   4.770
75770SOL    HW129207   9.630   5.551   4.804
75770SOL    HW229208   9.553   5.420   4.813
75771SOL     OW29209   1.554   2.567   8.962
75771SOL    HW129210   1.509   2.488   8.932
75771SOL    HW229211   1.483   2.628   8.983
75772SOL     OW29212   3.043  14.204  12.458
75772SOL    HW129213   2.987  14.259  12.403
75772SOL    HW229214   3.059  14.256  12.537
75773SOL     OW29215   9.291   2.468   0.156
75773SOL    HW129216   9.216   2.507   0.200
75773SOL    HW229217   9.361   2.471   0.220
75774SOL     OW29218  12.093   5.430   0.581
75774SOL    HW129219  12.005   5.398   0.602
75774SOL    HW229220  12.150   5.387   0.646
75775SOL     OW29221   1.660   8.809  12.478
75775SOL    HW129222   1.644   8.904  12.476
75775SOL    HW229223   1.624   8.776  12.396
75776SOL     OW29224  14.847  11.421  14.287
75776SOL    HW129225  14.878  11.486  14.223
75776SOL    HW229226  14.752  11.427  14.283
75777SOL     OW29227   9.143   7.254  14.136
75777SOL    HW129228   9.163   7.347  14.142
75777SOL    HW229229   9.222   7.215  14.098
75778SOL     OW29230  10.803  11.617   3.930
75778SOL    HW129231  10.886  11.569   3.931
75778SOL    HW229232  10.803  11.666   4.012
75779SOL     OW29233   7.997  11.011   0.979
75779SOL    HW129234   8.001  10.985   0.887
75779SOL    HW229235   8.089  11.018   1.006
75780SOL     OW29236   8.757  10.646   9.672
75780SOL    HW129237   8.673  10.693   9.677
75780SOL    HW229238   8.776  10.621   9.763
75781SOL     OW29239   4.229   0.549  10.914
75781SOL    HW129240   4.241   0.560  10.819
75781SOL    HW229241   4.140   0.516  10.924
75782SOL     OW29242   0.271   3.044   8.300
75782SOL    HW129243   0.236   3.008   8.219
75782SOL    HW229244   0.313   2.970   8.344
75783SOL     OW29245  12.554   2.726   5.391
75783SOL    HW129246  12.554   2.804   5.447
75783SOL    HW229247  12.554   2.761   5.302
75784SOL     OW29248   3.807   9.296  14.542
75784SOL    HW129249   3.813   9.295  14.638
75784SOL    HW229250   3.717   9.268  14.523
75785SOL     OW29251   9.658   1.810   7.562
75785SOL    HW129252   9.744   1.770   7.573
75785SOL    HW229253   9.648   1.819   7.467
75786SOL     OW29254   1.115  13.567  12.257
75786SOL    HW129255   1.108  13.642  12.315
75786SOL    HW229256   1.160  13.601  12.179
75787SOL     OW29257   6.384   7.349   0.331
75787SOL    HW129258   6.366   7.305   0.248
75787SOL    HW229259   6.462   7.305   0.365
75788SOL     OW29260  13.617   6.556   4.154
75788SOL    HW129261  13.576   6.533   4.071
75788SOL    HW229262  13.654   6.474   4.186
75789SOL     OW29263   0.286  14.039  12.796
75789SOL    HW129264   0.252  13.995  12.874
75789SOL    HW229265   0.371  13.998  12.780
75790SOL     OW29266   5.329   3.357   0.717
75790SOL    HW129267   5.330   3.450   0.739
75790SOL    HW229268   5.360   3.313   0.796
75791SOL     OW29269   4.567   1.410  12.310
75791SOL    HW129270   4.539   1.371  12.227
75791SOL    HW229271   4.546   1.344  12.376
75792SOL     OW29272   1.961   4.527  14.603
75792SOL    HW129273   1.899   4.550  14.534
75792SOL    HW229274   2.013   4.456  14.566
75793SOL     OW29275   8.409   5.241  12.688
75793SOL    HW129276   8.383   5.178  12.622
75793SOL    HW229277   8.433   5.188  12.764
75794SOL     OW29278   5.170  11.069  11.153
75794SOL    HW129279   5.245  11.109  11.110
75794SOL    HW229280   5.153  11.126  11.229
75795SOL     OW29281  14.603   0.156  10.534
75795SOL    HW129282  14.693   0.137  10.509
75795SOL    HW229283  14.585   0.097  10.606
75796SOL     OW29284   6.121  11.518  12.543
75796SOL    HW129285   6.097  11.434  12.581
75796SOL    HW229286   6.068  11.582  12.591
75797SOL     OW29287   5.914   1.908   2.826
75797SOL    HW129288   5.820   1.907   2.806
75797SOL    HW229289   5.918   1.918   2.921
75798SOL     OW29290   4.927   0.615   0.456
75798SOL    HW129291   4.942   0.542   0.396
75798SOL    HW229292   4.875   0.578   0.527
75799SOL     OW29293   3.877  12.450  11.784
75799SOL    HW129294   3.802  12.507  11.803
75799SOL    HW229295   3.952  12.508  11.787
75800SOL     OW29296   2.600   1.402  10.301
75800SOL    HW129297   2.647   1.332  10.255
75800SOL    HW229298   2.669   1.460  10.332
75801SOL     OW29299   6.114   8.099   2.010
75801SOL    HW129300   6.155   8.158   1.946
75801SOL    HW229301   6.022   8.128   2.014
75802SOL     OW29302  11.013  10.671   2.771
75802SOL    HW129303  11.090  10.660   2.828
75802SOL    HW229304  11.032  10.751   2.721
75803SOL     OW29305   6.188   6.485   0.065
75803SOL    HW129306   6.261   6.432   0.094
75803SOL    HW229307   6.112   6.427   0.068
75804SOL     OW29308  14.519  10.333   9.713
75804SOL    HW129309  14.481  10.408   9.759
75804SOL    HW229310  14.527  10.265   9.781
75805SOL     OW29311   9.965  11.400   5.883
75805SOL    HW129312   9.884  11.383   5.932
75805SOL    HW229313   9.942  11.382   5.792
75806SOL     OW29314  11.369  10.140   5.386
75806SOL    HW129315  11.432  10.205   5.353
75806SOL    HW229316  11.418  10.092   5.453
75807SOL     OW29317  14.523   4.001   1.341
75807SOL    HW129318  14.487   3.963   1.261
75807SOL    HW229319  14.448   4.008   1.400
75808SOL     OW29320   9.170  10.872  11.116
75808SOL    HW129321   9.174  10.955  11.067
75808SOL    HW229322   9.192  10.805  11.052
75809SOL     OW29323   7.041   5.683   8.247
75809SOL    HW129324   7.090   5.684   8.330
75809SOL    HW229325   7.093   5.738   8.188
75810SOL     OW29326   0.054   3.418   7.329
75810SOL    HW129327   0.012   3.345   7.283
75810SOL    HW229328   0.000   3.494   7.308
75811SOL     OW29329  10.424   1.037   9.656
75811SOL    HW129330  10.506   1.061   9.613
75811SOL    HW229331  10.358   1.092   9.614
75812SOL     OW29332   1.890  10.723   2.235
75812SOL    HW129333   1.904  10.643   2.186
75812SOL    HW229334   1.926  10.793   2.180
75813SOL     OW29335   7.891   6.232   6.307
75813SOL    HW129336   7.883   6.326   6.292
75813SOL    HW229337   7.810   6.194   6.272
75814SOL     OW29338   3.276  14.220   6.043
75814SOL    HW129339   3.241  14.304   6.014
75814SOL    HW229340   3.368  14.237   6.060
75815SOL     OW29341   9.957   2.840  10.656
75815SOL    HW129342   9.981   2.747  10.650
75815SOL    HW229343   9.929   2.864  10.568
75816SOL     OW29344   6.446  10.470   6.772
75816SOL    HW129345   6.383  10.509   6.711
75816SOL    HW229346   6.526  10.521   6.761
75817SOL     OW29347   5.448   6.732  10.586
75817SOL    HW129348   5.359   6.737  10.552
75817SOL    HW229349   5.458   6.642  10.617
75818SOL     OW29350   5.051   9.839   8.681
75818SOL    HW129351   4.969   9.839   8.729
75818SOL    HW229352   5.030   9.881   8.597
75819SOL     OW29353   6.813  11.757   8.136
75819SOL    HW129354   6.821  11.676   8.187
75819SOL    HW229355   6.747  11.808   8.183
75820SOL     OW29356   9.679  10.205   1.200
75820SOL    HW129357   9.704  10.279   1.257
75820SOL    HW229358   9.742  10.136   1.222
75821SOL     OW29359   5.750  10.908   9.175
75821SOL    HW129360   5.700  10.983   9.144
75821SOL    HW229361   5.731  10.903   9.268
75822SOL     OW29362   8.635  12.904   5.445
75822SOL    HW129363   8.662  12.980   5.393
75822SOL    HW229364   8.667  12.923   5.533
75823SOL     OW29365   5.225   6.994  14.310
75823SOL    HW129366   5.243   6.920  14.251
75823SOL    HW229367   5.173   7.054  14.257
75824SOL     OW29368  10.779   4.305  13.912
75824SOL    HW129369  10.774   4.384  13.858
75824SOL    HW229370  10.828   4.331  13.990
75825SOL     OW29371   7.314   4.893  11.485
75825SOL    HW129372   7.306   4.810  11.439
75825SOL    HW229373   7.312   4.959  11.415
75826SOL     OW29374   4.539  10.595   0.897
75826SOL    HW129375   4.612  10.657   0.886
75826SOL    HW229376   4.581  10.509   0.894
75827SOL     OW29377   5.589   6.784   2.278
75827SOL    HW129378   5.605   6.799   2.185
75827SOL    HW229379   5.599   6.689   2.289
75828SOL     OW29380   0.217  10.623   3.543
75828SOL    HW129381   0.309  10.642   3.521
75828SOL    HW229382   0.212  10.638   3.637
75829SOL     OW29383   8.027  14.033   4.420
75829SOL    HW129384   7.946  13.994   4.453
75829SOL    HW229385   8.025  14.017   4.326
75830SOL     OW29386  12.249   7.653   8.865
75830SOL    HW129387  12.259   7.678   8.957
75830SOL    HW229388  12.274   7.560   8.863
75831SOL     OW29389   1.761  14.240   6.035
75831SOL    HW129390   1.814  14.206   6.107
75831SOL    HW229391   1.795  14.196   5.957
75832SOL     OW29392  10.817   1.015  12.488
75832SOL    HW129393  10.803   1.091  12.431
75832SOL    HW229394  10.744   1.020  12.551
75833SOL     OW29395   8.830  10.142   4.390
75833SOL    HW129396   8.753  10.188   4.356
75833SOL    HW229397   8.904  10.182   4.344
75834SOL     OW29398   5.213   2.504  14.715
75834SOL    HW129399   5.297   2.550  14.710
75834SOL    HW229400   5.178   2.527  14.801
75835SOL     OW29401   3.847   5.139  14.614
75835SOL    HW129402   3.831   5.083  14.538
75835SOL    HW229403   3.816   5.225  14.587
75836SOL     OW29404  12.399   6.280   0.642
75836SOL    HW129405  12.483   6.259   0.683
75836SOL    HW229406  12.392   6.218   0.570
75837SOL     OW29407  11.722  10.537  10.033
75837SOL    HW129408  11.699  10.520  10.124
75837SOL    HW229409  11.815  10.558  10.035
75838SOL     OW29410   2.871   7.337  11.490
75838SOL    HW129411   2.899   7.333  11.582
75838SOL    HW229412   2.952   7.343  11.441
75839SOL     OW29413   3.944  12.723   5.916
75839SOL    HW129414   3.895  12.645   5.891
75839SOL    HW229415   3.892  12.796   5.884
75840SOL     OW29416   4.703   7.001   8.834
75840SOL    HW129417   4.630   6.941   8.842
75840SOL    HW229418   4.776   6.947   8.802
75841SOL     OW29419   8.959   4.811  10.683
75841SOL    HW129420   8.882   4.849  10.641
75841SOL    HW229421   8.962   4.853  10.769
75842SOL     OW29422   4.479   4.770  12.201
75842SOL    HW129423   4.512   4.681  12.215
75842SOL    HW229424   4.497   4.787  12.108
75843SOL     OW29425   9.697   2.736  10.384
75843SOL    HW129426   9.722   2.821  10.348
75843SOL    HW229427   9.779   2.697  10.412
75844SOL     OW29428  14.243   0.565  14.589
75844SOL    HW129429  14.319   0.507  14.584
75844SOL    HW229430  14.212   0.571  14.498
75845SOL     OW29431   2.658   6.083   6.354
75845SOL    HW129432   2.611   6.151   6.403
75845SOL    HW229433   2.607   6.003   6.367
75846SOL     OW29434   3.902   3.030   3.332
75846SOL    HW129435   3.854   2.957   3.371
75846SOL    HW229436   3.835   3.094   3.311
75847SOL     OW29437  13.388  12.811   4.850
75847SOL    HW129438  13.453  12.837   4.785
75847SOL    HW229439  13.328  12.886   4.855
75848SOL     OW29440  12.596   4.688   0.439
75848SOL    HW129441  12.639   4.717   0.359
75848SOL    HW229442  12.511   4.731   0.438
75849SOL     OW29443   9.431   8.938   3.144
75849SOL    HW129444   9.406   8.847   3.162
75849SOL    HW229445   9.410   8.985   3.224
75850SOL     OW29446   8.859   2.208   4.595
75850SOL    HW129447   8.770   2.197   4.628
75850SOL    HW229448   8.872   2.302   4.589
75851SOL     OW29449   9.458   8.547  13.242
75851SOL    HW129450   9.362   8.554  13.238
75851SOL    HW229451   9.489   8.617  13.185
75852SOL     OW29452   9.383   8.078   4.993
75852SOL    HW129453   9.348   8.162   5.024
75852SOL    HW229454   9.342   8.065   4.908
75853SOL     OW29455   8.067  11.583  14.797
75853SOL    HW129456   8.126  11.645  14.754
75853SOL    HW229457   8.070  11.504  14.742
75854SOL     OW29458   1.107  12.875  11.904
75854SOL    HW129459   1.061  12.820  11.840
75854SOL    HW229460   1.080  12.839  11.989
75855SOL     OW29461  12.001  10.072   9.663
75855SOL    HW129462  11.943  10.045   9.735
75855SOL    HW229463  12.088  10.047   9.692
75856SOL     OW29464   6.058   9.476   5.143
75856SOL    HW129465   6.100   9.533   5.078
75856SOL    HW229466   6.123   9.465   5.212
75857SOL     OW29467   8.551  11.511  13.711
75857SOL    HW129468   8.638  11.547  13.732
75857SOL    HW229469   8.491  11.585  13.724
75858SOL     OW29470   6.982   2.503   0.485
75858SOL    HW129471   7.027   2.558   0.420
75858SOL    HW229472   7.048   2.486   0.552
75859SOL     OW29473  11.289  13.748   7.965
75859SOL    HW129474  11.332  13.697   8.033
75859SOL    HW229475  11.198  13.755   7.993
75860SOL     OW29476   7.276  10.073   2.181
75860SOL    HW129477   7.340  10.141   2.200
75860SOL    HW229478   7.279  10.015   2.257
75861SOL     OW29479   9.461   8.546   6.912
75861SOL    HW129480   9.430   8.456   6.911
75861SOL    HW229481   9.394   8.595   6.960
75862SOL     OW29482   8.997   1.220   6.013
75862SOL    HW129483   9.038   1.306   6.007
75862SOL    HW229484   8.911   1.238   6.052
75863SOL     OW29485  13.986   1.751  11.959
75863SOL    HW129486  14.081   1.743  11.969
75863SOL    HW229487  13.973   1.757  11.864
75864SOL     OW29488  13.113   4.847   0.670
75864SOL    HW129489  13.181   4.784   0.648
75864SOL    HW229490  13.082   4.879   0.585
75865SOL     OW29491  13.081   8.919   3.853
75865SOL    HW129492  13.005   8.955   3.899
75865SOL    HW229493  13.044   8.880   3.774
75866SOL     OW29494   2.030   7.577   0.793
75866SOL    HW129495   2.012   7.493   0.752
75866SOL    HW229496   1.993   7.642   0.733
75867SOL     OW29497   5.278   1.488   2.315
75867SOL    HW129498   5.322   1.422   2.368
75867SOL    HW229499   5.207   1.519   2.371
75868SOL     OW29500   7.061   3.137   2.716
75868SOL    HW129501   6.985   3.145   2.657
75868SOL    HW229502   7.041   3.060   2.769
75869SOL     OW29503   5.188  13.331   6.517
75869SOL    HW129504   5.241  13.410   6.522
75869SOL    HW229505   5.173  13.306   6.608
75870SOL     OW29506  13.941  14.813   7.979
75870SOL    HW129507  13.882  14.748   7.942
75870SOL    HW229508  13.906   0.017   7.950
75871SOL     OW29509   3.253   3.883   7.376
75871SOL    HW129510   3.254   3.933   7.457
75871SOL    HW229511   3.323   3.818   7.387
75872SOL     OW29512   7.644  12.914   5.726
75872SOL    HW129513   7.621  12.829   5.762
75872SOL    HW229514   7.641  12.974   5.801
75873SOL     OW29515   7.532   3.358   1.951
75873SOL    HW129516   7.520   3.443   1.994
75873SOL    HW229517   7.621   3.332   1.975
75874SOL     OW29518  12.118  10.120   8.530
75874SOL    HW129519  12.078  10.190   8.479
75874SOL    HW229520  12.150  10.162   8.609
75875SOL     OW29521   9.774   5.385   5.182
75875SOL    HW129522   9.734   5.411   5.100
75875SOL    HW229523   9.705   5.337   5.228
75876SOL     OW29524   9.918   0.372  10.362
75876SOL    HW129525   9.888   0.453  10.403
75876SOL    HW229526   9.987   0.340  10.420
75877SOL     OW29527  14.206  12.626   4.553
75877SOL    HW129528  14.204  12.552   4.492
75877SOL    HW229529  14.299  12.650   4.559
75878SOL     OW29530   5.707   0.667   6.776
75878SOL    HW129531   5.766   0.695   6.846
75878SOL    HW229532   5.623   0.708   6.798
75879SOL     OW29533   4.036   5.169   3.507
75879SOL    HW129534   4.054   5.175   3.413
75879SOL    HW229535   4.027   5.075   3.523
75880SOL     OW29536  10.145   0.685   8.335
75880SOL    HW129537  10.156   0.773   8.371
75880SOL    HW229538  10.182   0.690   8.247
75881SOL     OW29539   8.551   3.907   8.601
75881SOL    HW129540   8.481   3.967   8.577
75881SOL    HW229541   8.507   3.839   8.653
75882SOL     OW29542  11.252  12.239   8.956
75882SOL    HW129543  11.333  12.275   8.920
75882SOL    HW229544  11.281  12.188   9.032
75883SOL     OW29545   5.932   1.222   3.090
75883SOL    HW129546   5.869   1.229   3.163
75883SOL    HW229547   6.000   1.286   3.112
75884SOL     OW29548   8.050  11.113   8.618
75884SOL    HW129549   7.958  11.089   8.620
75884SOL    HW229550   8.055  11.196   8.666
75885SOL     OW29551  14.552  12.337   9.514
75885SOL    HW129552  14.565  12.419   9.561
75885SOL    HW229553  14.540  12.363   9.423
75886SOL     OW29554   3.560  11.134  12.363
75886SOL    HW129555   3.584  11.114  12.453
75886SOL    HW229556   3.584  11.056  12.313
75887SOL     OW29557  13.002  11.462   2.461
75887SOL    HW129558  13.008  11.367   2.460
75887SOL    HW229559  13.087  11.492   2.494
75888SOL     OW29560   4.922  14.486   4.106
75888SOL    HW129561   4.877  14.567   4.129
75888SOL    HW229562   4.855  14.432   4.063
75889SOL     OW29563  11.629   9.116   9.895
75889SOL    HW129564  11.629   9.120   9.799
75889SOL    HW229565  11.702   9.058   9.916
75890SOL     OW29566   2.403   6.818   9.659
75890SOL    HW129567   2.366   6.843   9.574
75890SOL    HW229568   2.491   6.857   9.658
75891SOL     OW29569   5.645  14.523   2.583
75891SOL    HW129570   5.709  14.518   2.512
75891SOL    HW229571   5.600  14.606   2.569
75892SOL     OW29572   0.741  13.459   8.693
75892SOL    HW129573   0.784  13.375   8.711
75892SOL    HW229574   0.653  13.449   8.729
75893SOL     OW29575   9.806   2.628   4.213
75893SOL    HW129576   9.878   2.565   4.212
75893SOL    HW229577   9.823   2.684   4.137
75894SOL     OW29578   4.104  12.735  12.614
75894SOL    HW129579   4.123  12.783  12.694
75894SOL    HW229580   4.041  12.789  12.567
75895SOL     OW29581  12.709  12.907   7.708
75895SOL    HW129582  12.643  12.963   7.749
75895SOL    HW229583  12.661  12.857   7.643
75896SOL     OW29584  13.780   0.697   5.276
75896SOL    HW129585  13.868   0.693   5.311
75896SOL    HW229586  13.786   0.650   5.192
75897SOL     OW29587   8.097   1.168   3.533
75897SOL    HW129588   8.141   1.154   3.617
75897SOL    HW229589   8.073   1.081   3.503
75898SOL     OW29590   9.863  11.850   3.596
75898SOL    HW129591   9.953  11.881   3.608
75898SOL    HW229592   9.857  11.828   3.503
75899SOL     OW29593   6.056  12.393   3.287
75899SOL    HW129594   6.056  12.487   3.275
75899SOL    HW229595   5.980  12.362   3.236
75900SOL     OW29596   2.928  11.186  11.453
75900SOL    HW129597   2.944  11.108  11.400
75900SOL    HW229598   2.851  11.165  11.505
75901SOL     OW29599   5.320   4.294   3.896
75901SOL    HW129600   5.340   4.340   3.814
75901SOL    HW229601   5.247   4.236   3.874
75902SOL     OW29602   1.548   3.337  11.485
75902SOL    HW129603   1.552   3.318  11.391
75902SOL    HW229604   1.603   3.415  11.496
75903SOL     OW29605   1.948   0.943   1.696
75903SOL    HW129606   1.956   1.038   1.705
75903SOL    HW229607   1.862   0.930   1.657
75904SOL     OW29608   0.990   5.865  11.043
75904SOL    HW129609   0.931   5.917  10.989
75904SOL    HW229610   1.073   5.913  11.040
75905SOL     OW29611  11.633   9.176   8.813
75905SOL    HW129612  11.639   9.268   8.789
75905SOL    HW229613  11.712   9.160   8.865
75906SOL     OW29614   3.747  10.149   0.285
75906SOL    HW129615   3.799  10.103   0.351
75906SOL    HW229616   3.745  10.089   0.210
75907SOL     OW29617   6.646   4.431   5.801
75907SOL    HW129618   6.696   4.511   5.814
75907SOL    HW229619   6.636   4.395   5.889
75908SOL     OW29620   9.947   2.765   5.452
75908SOL    HW129621  10.014   2.696   5.454
75908SOL    HW229622   9.866   2.719   5.474
75909SOL     OW29623   5.834   1.893   9.631
75909SOL    HW129624   5.839   1.852   9.545
75909SOL    HW229625   5.761   1.955   9.624
75910SOL     OW29626  12.331   5.307  12.244
75910SOL    HW129627  12.309   5.360  12.321
75910SOL    HW229628  12.254   5.252  12.231
75911SOL     OW29629   1.014   5.533  13.861
75911SOL    HW129630   1.051   5.505  13.946
75911SOL    HW229631   0.971   5.616  13.880
75912SOL     OW29632   1.463  11.859  11.730
75912SOL    HW129633   1.531  11.916  11.696
75912SOL    HW229634   1.404  11.846  11.655
75913SOL     OW29635  13.667   6.003   0.048
75913SOL    HW129636  13.755   6.018   0.015
75913SOL    HW229637  13.614   6.071   0.006
75914SOL     OW29638  13.646   1.613  13.912
75914SOL    HW129639  13.716   1.617  13.847
75914SOL    HW229640  13.687   1.642  13.993
75915SOL     OW29641   5.417   2.035   1.283
75915SOL    HW129642   5.501   1.994   1.306
75915SOL    HW229643   5.370   1.966   1.235
75916SOL     OW29644  12.452   4.679   5.878
75916SOL    HW129645  12.365   4.640   5.888
75916SOL    HW229646  12.476   4.662   5.787
75917SOL     OW29647  12.512  14.056  10.557
75917SOL    HW129648  12.608  14.050  10.553
75917SOL    HW229649  12.484  14.055  10.465
75918SOL     OW29650   2.113  11.940  12.701
75918SOL    HW129651   2.173  11.975  12.635
75918SOL    HW229652   2.084  11.856  12.666
75919SOL     OW29653   4.458   6.330  14.516
75919SOL    HW129654   4.439   6.322  14.609
75919SOL    HW229655   4.404   6.263  14.474
75920SOL     OW29656   8.537   2.013   1.994
75920SOL    HW129657   8.462   1.968   1.954
75920SOL    HW229658   8.517   2.014   2.088
75921SOL     OW29659   4.218   2.565   2.636
75921SOL    HW129660   4.243   2.504   2.705
75921SOL    HW229661   4.136   2.530   2.601
75922SOL     OW29662   9.532   5.256   7.662
75922SOL    HW129663   9.438   5.256   7.679
75922SOL    HW229664   9.557   5.163   7.666
75923SOL     OW29665  14.875   6.676  12.745
75923SOL    HW129666   0.034   6.757  12.776
75923SOL    HW229667  14.864   6.689  12.651
75924SOL     OW29668  10.725  14.055   3.960
75924SOL    HW129669  10.727  14.068   3.866
75924SOL    HW229670  10.743  14.141   3.997
75925SOL     OW29671   7.312  13.596   4.780
75925SOL    HW129672   7.302  13.669   4.841
75925SOL    HW229673   7.245  13.533   4.807
75926SOL     OW29674  13.899   8.201  11.395
75926SOL    HW129675  13.882   8.230  11.484
75926SOL    HW229676  13.961   8.129  11.404
75927SOL     OW29677   7.637  14.324   6.122
75927SOL    HW129678   7.609  14.367   6.204
75927SOL    HW229679   7.679  14.243   6.151
75928SOL     OW29680   5.990   0.582  12.804
75928SOL    HW129681   6.081   0.586  12.835
75928SOL    HW229682   5.949   0.661  12.839
75929SOL     OW29683   7.984   9.367   7.721
75929SOL    HW129684   8.057   9.425   7.701
75929SOL    HW229685   7.990   9.353   7.816
75930SOL     OW29686   5.752   2.861  10.087
75930SOL    HW129687   5.678   2.835  10.032
75930SOL    HW229688   5.800   2.923  10.033
75931SOL     OW29689  14.764   8.212  11.061
75931SOL    HW129690  14.670   8.193  11.057
75931SOL    HW229691  14.805   8.126  11.071
75932SOL     OW29692  13.024   6.405  14.785
75932SOL    HW129693  12.964   6.353  14.839
75932SOL    HW229694  13.102   6.415  14.838
75933SOL     OW29695   2.054  11.267   7.875
75933SOL    HW129696   2.059  11.357   7.845
75933SOL    HW229697   2.036  11.273   7.969
75934SOL     OW29698   3.298   6.373  11.594
75934SOL    HW129699   3.220   6.321  11.576
75934SOL    HW229700   3.326   6.346  11.681
75935SOL     OW29701   3.638   5.407   3.895
75935SOL    HW129702   3.702   5.337   3.879
75935SOL    HW229703   3.589   5.414   3.813
75936SOL     OW29704   1.920  13.792   3.794
75936SOL    HW129705   1.893  13.701   3.805
75936SOL    HW229706   1.922  13.805   3.699
75937SOL     OW29707   6.976  10.441   8.465
75937SOL    HW129708   6.889  10.438   8.427
75937SOL    HW229709   6.982  10.362   8.519
75938SOL     OW29710   1.199   7.565   2.074
75938SOL    HW129711   1.179   7.651   2.111
75938SOL    HW229712   1.263   7.528   2.134
75939SOL     OW29713  10.503   9.308   1.421
75939SOL    HW129714  10.464   9.338   1.504
75939SOL    HW229715  10.429   9.274   1.371
75940SOL     OW29716   1.472  10.215   3.988
75940SOL    HW129717   1.424  10.206   3.906
75940SOL    HW229718   1.466  10.308   4.009
75941SOL     OW29719   5.926  13.569   6.859
75941SOL    HW129720   5.847  13.515   6.858
75941SOL    HW229721   5.992  13.515   6.815
75942SOL     OW29722  11.768  10.662   4.566
75942SOL    HW129723  11.740  10.658   4.657
75942SOL    HW229724  11.763  10.754   4.542
75943SOL     OW29725   3.134   2.550   2.946
75943SOL    HW129726   3.093   2.489   3.006
75943SOL    HW229727   3.156   2.497   2.869
75944SOL     OW29728   8.864  12.737   7.056
75944SOL    HW129729   8.896  12.826   7.075
75944SOL    HW229730   8.790  12.725   7.115
75945SOL     OW29731   9.227   4.562  14.068
75945SOL    HW129732   9.143   4.595  14.037
75945SOL    HW229733   9.290   4.631  14.047
75946SOL     OW29734   9.107   9.741  12.055
75946SOL    HW129735   9.117   9.834  12.037
75946SOL    HW229736   9.055   9.708  11.982
75947SOL     OW29737  13.330   3.276  11.716
75947SOL    HW129738  13.414   3.266  11.671
75947SOL    HW229739  13.282   3.341  11.664
75948SOL     OW29740  12.797   2.706   0.173
75948SOL    HW129741  12.828   2.722   0.084
75948SOL    HW229742  12.861   2.750   0.229
75949SOL     OW29743   7.858  12.624   5.425
75949SOL    HW129744   7.836  12.534   5.449
75949SOL    HW229745   7.872  12.668   5.509
75950SOL     OW29746   3.808   1.298   8.375
75950SOL    HW129747   3.753   1.227   8.408
75950SOL    HW229748   3.762   1.378   8.403
75951SOL     OW29749   5.230   5.887   3.533
75951SOL    HW129750   5.219   5.944   3.609
75951SOL    HW229751   5.247   5.946   3.460
75952SOL     OW29752   8.056   9.300   7.370
75952SOL    HW129753   8.137   9.270   7.411
75952SOL    HW229754   7.987   9.248   7.412
75953SOL     OW29755   1.357  11.067   2.036
75953SOL    HW129756   1.311  11.073   1.952
75953SOL    HW229757   1.406  10.985   2.030
75954SOL     OW29758   7.723   6.474   7.382
75954SOL    HW129759   7.794   6.437   7.435
75954SOL    HW229760   7.732   6.568   7.391
75955SOL     OW29761  11.243  12.378   6.581
75955SOL    HW129762  11.173  12.394   6.518
75955SOL    HW229763  11.308  12.329   6.532
75956SOL     OW29764   7.484   7.578   8.747
75956SOL    HW129765   7.432   7.641   8.695
75956SOL    HW229766   7.486   7.617   8.835
75957SOL     OW29767   1.644  14.468  13.932
75957SOL    HW129768   1.703  14.505  13.998
75957SOL    HW229769   1.702  14.420  13.873
75958SOL     OW29770   4.794  14.603   3.529
75958SOL    HW129771   4.870  14.545   3.527
75958SOL    HW229772   4.788  14.631   3.620
75959SOL     OW29773   2.641  10.246   5.489
75959SOL    HW129774   2.581  10.290   5.429
75959SOL    HW229775   2.633  10.295   5.571
75960SOL     OW29776   0.658   0.200   0.592
75960SOL    HW129777   0.601   0.230   0.663
75960SOL    HW229778   0.615   0.121   0.558
75961SOL     OW29779   6.655  11.015  10.048
75961SOL    HW129780   6.744  11.051  10.058
75961SOL    HW229781   6.650  10.946  10.114
75962SOL     OW29782  12.395   7.737  13.242
75962SOL    HW129783  12.401   7.648  13.208
75962SOL    HW229784  12.361   7.726  13.331
75963SOL     OW29785  10.886  14.471   7.995
75963SOL    HW129786  10.864  14.459   8.087
75963SOL    HW229787  10.976  14.503   7.996
75964SOL     OW29788   7.608  10.645   0.629
75964SOL    HW129789   7.586  10.633   0.721
75964SOL    HW229790   7.664  10.723   0.628
75965SOL     OW29791   5.206   2.804  11.861
75965SOL    HW129792   5.171   2.746  11.793
75965SOL    HW229793   5.262   2.748  11.914
75966SOL     OW29794   4.534   3.898   3.154
75966SOL    HW129795   4.544   3.836   3.081
75966SOL    HW229796   4.554   3.983   3.115
75967SOL     OW29797  12.727   2.675  10.954
75967SOL    HW129798  12.664   2.627  10.900
75967SOL    HW229799  12.811   2.661  10.910
75968SOL     OW29800   5.856   1.844   1.151
75968SOL    HW129801   5.935   1.792   1.146
75968SOL    HW229802   5.882   1.924   1.198
75969SOL     OW29803  14.445   4.117   4.078
75969SOL    HW129804  14.469   4.106   4.170
75969SOL    HW229805  14.361   4.164   4.080
75970SOL     OW29806  12.236  10.455   0.345
75970SOL    HW129807  12.202  10.483   0.260
75970SOL    HW229808  12.186  10.507   0.409
75971SOL     OW29809   5.457   2.279   7.290
75971SOL    HW129810   5.469   2.195   7.334
75971SOL    HW229811   5.456   2.343   7.360
75972SOL     OW29812   3.765  11.387   8.438
75972SOL    HW129813   3.759  11.303   8.484
75972SOL    HW229814   3.692  11.439   8.473
75973SOL     OW29815   2.021   9.829  14.859
75973SOL    HW129816   1.933   9.866  14.854
75973SOL    HW229817   2.056   9.861   0.062
75974SOL     OW29818   9.550   9.702   7.329
75974SOL    HW129819   9.530   9.663   7.413
75974SOL    HW229820   9.469   9.695   7.279
75975SOL     OW29821  11.875   1.778  14.586
75975SOL    HW129822  11.821   1.748  14.659
75975SOL    HW229823  11.847   1.868  14.570
75976SOL     OW29824   5.423   6.242  10.544
75976SOL    HW129825   5.348   6.271  10.493
75976SOL    HW229826   5.393   6.162  10.587
75977SOL     OW29827   7.500   8.363   1.337
75977SOL    HW129828   7.420   8.327   1.300
75977SOL    HW229829   7.564   8.358   1.266
75978SOL     OW29830  12.040   7.222  13.919
75978SOL    HW129831  12.080   7.306  13.940
75978SOL    HW229832  12.113   7.166  13.892
75979SOL     OW29833  13.184   2.671   2.881
75979SOL    HW129834  13.236   2.714   2.949
75979SOL    HW229835  13.095   2.705   2.893
75980SOL     OW29836   4.406  10.920   5.959
75980SOL    HW129837   4.472  10.868   5.915
75980SOL    HW229838   4.380  10.867   6.035
75981SOL     OW29839  11.516   7.649  11.975
75981SOL    HW129840  11.584   7.633  12.041
75981SOL    HW229841  11.508   7.566  11.928
75982SOL     OW29842  13.339  10.675   3.137
75982SOL    HW129843  13.295  10.754   3.169
75982SOL    HW229844  13.283  10.603   3.163
75983SOL     OW29845  13.633   0.017   0.795
75983SOL    HW129846  13.607   0.094   0.845
75983SOL    HW229847  13.692  14.850   0.853
75984SOL     OW29848  11.512  11.241   5.315
75984SOL    HW129849  11.449  11.219   5.246
75984SOL    HW229850  11.509  11.166   5.375
75985SOL     OW29851   4.395   1.645  14.240
75985SOL    HW129852   4.414   1.553  14.227
75985SOL    HW229853   4.479   1.685  14.263
75986SOL     OW29854   2.741   3.823  11.938
75986SOL    HW129855   2.699   3.905  11.962
75986SOL    HW229856   2.685   3.786  11.870
75987SOL     OW29857   8.770   7.144   2.190
75987SOL    HW129858   8.732   7.056   2.188
75987SOL    HW229859   8.695   7.202   2.178
75988SOL     OW29860  14.163   0.217  11.786
75988SOL    HW129861  14.134   0.193  11.698
75988SOL    HW229862  14.235   0.157  11.804
75989SOL     OW29863   0.138   3.471   3.574
75989SOL    HW129864   0.205   3.501   3.636
75989SOL    HW229865   0.174   3.494   3.488
75990SOL     OW29866   1.804   4.441   2.634
75990SOL    HW129867   1.891   4.404   2.617
75990SOL    HW229868   1.808   4.529   2.597
75991SOL     OW29869   5.988  12.018   2.698
75991SOL    HW129870   5.997  11.954   2.627
75991SOL    HW229871   6.062  12.078   2.686
75992SOL     OW29872  14.283   0.794  12.814
75992SOL    HW129873  14.357   0.736  12.796
75992SOL    HW229874  14.293   0.819  12.906
75993SOL     OW29875   3.488   9.866  11.616
75993SOL    HW129876   3.581   9.845  11.617
75993SOL    HW229877   3.469   9.901  11.703
75994SOL     OW29878  11.879   5.518   6.934
75994SOL    HW129879  11.953   5.574   6.912
75994SOL    HW229880  11.863   5.534   7.027
75995SOL     OW29881   9.104   1.657  14.557
75995SOL    HW129882   9.144   1.743  14.564
75995SOL    HW229883   9.087   1.646  14.463
75996SOL     OW29884  12.940  13.068   0.387
75996SOL    HW129885  13.016  13.122   0.365
75996SOL    HW229886  12.971  12.978   0.379
75997SOL     OW29887   3.284   7.670  12.303
75997SOL    HW129888   3.358   7.628  12.346
75997SOL    HW229889   3.241   7.719  12.372
75998SOL     OW29890   8.727  10.337   2.894
75998SOL    HW129891   8.789  10.326   2.822
75998SOL    HW229892   8.643  10.351   2.850
75999SOL     OW29893   1.084  14.505   3.851
75999SOL    HW129894   1.007  14.481   3.902
75999SOL    HW229895   1.109  14.424   3.805
76000SOL     OW29896   4.192   2.670   0.463
76000SOL    HW129897   4.159   2.586   0.430
76000SOL    HW229898   4.157   2.735   0.401
76001SOL     OW29899   7.817   7.518   2.221
76001SOL    HW129900   7.898   7.568   2.231
76001SOL    HW229901   7.811   7.500   2.128
76002SOL     OW29902   4.156   5.354  14.065
76002SOL    HW129903   4.152   5.447  14.043
76002SOL    HW229904   4.069   5.320  14.046
76003SOL     OW29905   0.400  14.850  12.453
76003SOL    HW129906   0.391  14.785  12.383
76003SOL    HW229907   0.407   0.053  12.407
76004SOL     OW29908   3.792  11.868   5.380
76004SOL    HW129909   3.727  11.898   5.317
76004SOL    HW229910   3.802  11.775   5.362
76005SOL     OW29911   6.617  12.002   9.579
76005SOL    HW129912   6.643  11.969   9.665
76005SOL    HW229913   6.691  11.981   9.522
76006SOL     OW29914  13.098   2.319  14.411
76006SOL    HW129915  13.059   2.337  14.325
76006SOL    HW229916  13.146   2.399  14.432
76007SOL     OW29917   7.014   7.881  12.759
76007SOL    HW129918   7.008   7.946  12.829
76007SOL    HW229919   7.018   7.797  12.805
76008SOL     OW29920   0.859  13.195  10.041
76008SOL    HW129921   0.790  13.143  10.001
76008SOL    HW229922   0.929  13.198   9.976
76009SOL     OW29923   7.768   3.529   0.112
76009SOL    HW129924   7.716   3.559   0.187
76009SOL    HW229925   7.845   3.586   0.113
76010SOL     OW29926   8.217  11.787  14.609
76010SOL    HW129927   8.309  11.811  14.620
76010SOL    HW229928   8.183  11.850  14.545
76011SOL     OW29929   0.463   2.193  10.631
76011SOL    HW129930   0.407   2.265  10.661
76011SOL    HW229931   0.478   2.211  10.539
76012SOL     OW29932  13.018  11.482   2.975
76012SOL    HW129933  13.100  11.496   2.929
76012SOL    HW229934  13.001  11.565   3.021
76013SOL     OW29935   9.251  14.299   9.529
76013SOL    HW129936   9.231  14.390   9.509
76013SOL    HW229937   9.181  14.272   9.589
76014SOL     OW29938  11.661   7.865   2.126
76014SOL    HW129939  11.728   7.916   2.079
76014SOL    HW229940  11.620   7.928   2.185
76015SOL     OW29941   9.525  14.234   2.090
76015SOL    HW129942   9.615  14.237   2.121
76015SOL    HW229943   9.478  14.294   2.148
76016SOL     OW29944   9.929   8.915   6.203
76016SOL    HW129945   9.881   8.849   6.252
76016SOL    HW229946   9.993   8.865   6.152
76017SOL     OW29947   8.326  10.433   8.360
76017SOL    HW129948   8.392  10.398   8.301
76017SOL    HW229949   8.348  10.525   8.371
76018SOL     OW29950  13.104  12.080   6.073
76018SOL    HW129951  13.154  12.082   5.991
76018SOL    HW229952  13.114  11.991   6.105
76019SOL     OW29953   3.670   7.116   3.386
76019SOL    HW129954   3.688   7.027   3.418
76019SOL    HW229955   3.753   7.162   3.392
76020SOL     OW29956  10.795   1.621   6.814
76020SOL    HW129957  10.721   1.680   6.828
76020SOL    HW229958  10.759   1.550   6.761
76021SOL     OW29959   1.709  11.490   2.147
76021SOL    HW129960   1.706  11.417   2.085
76021SOL    HW229961   1.770  11.462   2.215
76022SOL     OW29962  10.610   3.008  12.891
76022SOL    HW129963  10.579   3.079  12.947
76022SOL    HW229964  10.531   2.972  12.851
76023SOL     OW29965   2.539  10.955  12.095
76023SOL    HW129966   2.537  10.952  12.191
76023SOL    HW229967   2.479  10.886  12.068
76024SOL     OW29968   7.352  14.203   4.086
76024SOL    HW129969   7.341  14.145   4.161
76024SOL    HW229970   7.266  14.205   4.044
76025SOL     OW29971   0.234  13.216   6.239
76025SOL    HW129972   0.277  13.140   6.278
76025SOL    HW229973   0.143  13.189   6.227
76026SOL     OW29974  13.146  12.501   2.000
76026SOL    HW129975  13.220  12.534   2.052
76026SOL    HW229976  13.070  12.514   2.056
76027SOL     OW29977   1.537   9.498  14.528
76027SOL    HW129978   1.521   9.522  14.619
76027SOL    HW229979   1.509   9.574  14.478
76028SOL     OW29980   7.316   1.576  13.208
76028SOL    HW129981   7.406   1.554  13.229
76028SOL    HW229982   7.269   1.492  13.211
76029SOL     OW29983  10.348  12.300   2.601
76029SOL    HW129984  10.408  12.245   2.652
76029SOL    HW229985  10.401  12.374   2.573
76030SOL     OW29986   6.068   7.152   7.191
76030SOL    HW129987   6.088   7.090   7.261
76030SOL    HW229988   6.151   7.164   7.144
76031SOL     OW29989  14.035   4.843   2.112
76031SOL    HW129990  13.950   4.800   2.122
76031SOL    HW229991  14.045   4.856   2.018
76032SOL     OW29992  10.074   4.989  14.366
76032SOL    HW129993  10.147   5.039  14.404
76032SOL    HW229994  10.061   5.028  14.279
76033SOL     OW29995   2.710   1.498   8.338
76033SOL    HW129996   2.749   1.417   8.307
76033SOL    HW229997   2.761   1.522   8.415
76034SOL     OW29998   6.487   9.989  11.287
76034SOL    HW129999   6.551  10.060  11.296
76034SOL    HW230000   6.403  10.034  11.276
76035SOL     OW30001   3.564   6.081   1.745
76035SOL    HW130002   3.654   6.050   1.731
76035SOL    HW230003   3.572   6.146   1.815
76036SOL     OW30004   4.105  11.187   0.126
76036SOL    HW130005   4.143  11.266   0.164
76036SOL    HW230006   4.083  11.133   0.202
76037SOL     OW30007   5.167  14.496   6.108
76037SOL    HW130008   5.165  14.573   6.052
76037SOL    HW230009   5.101  14.514   6.175
76038SOL     OW30010   8.080   9.192  10.124
76038SOL    HW130011   8.171   9.177  10.096
76038SOL    HW230012   8.027   9.150  10.056
76039SOL     OW30013   9.086  12.546   9.599
76039SOL    HW130014   9.084  12.482   9.528
76039SOL    HW230015   8.996  12.575   9.608
76040SOL     OW30016  14.418  12.294  12.453
76040SOL    HW130017  14.328  12.327  12.448
76040SOL    HW230018  14.463  12.355  12.512
76041SOL     OW30019   1.783   0.022   4.060
76041SOL    HW130020   1.770  14.825   4.115
76041SOL    HW230021   1.841  14.872   3.990
76042SOL     OW30022   1.459   8.348   6.706
76042SOL    HW130023   1.448   8.278   6.770
76042SOL    HW230024   1.551   8.344   6.681
76043SOL     OW30025   3.878   2.561   6.582
76043SOL    HW130026   3.970   2.570   6.605
76043SOL    HW230027   3.835   2.543   6.666
76044SOL     OW30028   3.768   3.653   4.225
76044SOL    HW130029   3.782   3.583   4.289
76044SOL    HW230030   3.849   3.705   4.228
76045SOL     OW30031  10.382   6.771  10.972
76045SOL    HW130032  10.340   6.777  10.887
76045SOL    HW230033  10.314   6.737  11.030
76046SOL     OW30034  12.558   7.573   8.844
76046SOL    HW130035  12.466   7.551   8.857
76046SOL    HW230036  12.557   7.659   8.803
76047SOL     OW30037   2.804   9.861   2.123
76047SOL    HW130038   2.801   9.784   2.179
76047SOL    HW230039   2.751   9.838   2.047
76048SOL     OW30040   7.044  14.672  14.091
76048SOL    HW130041   7.004  14.755  14.116
76048SOL    HW230042   7.105  14.653  14.162
76049SOL     OW30043   7.745   2.188   7.335
76049SOL    HW130044   7.825   2.146   7.304
76049SOL    HW230045   7.715   2.131   7.406
76050SOL     OW30046   9.643   6.576   8.145
76050SOL    HW130047   9.596   6.520   8.083
76050SOL    HW230048   9.587   6.652   8.157
76051SOL     OW30049   8.807  14.395  11.261
76051SOL    HW130050   8.785  14.442  11.341
76051SOL    HW230051   8.900  14.414  11.246
76052SOL     OW30052   2.390   5.343  14.526
76052SOL    HW130053   2.304   5.303  14.513
76052SOL    HW230054   2.447   5.300  14.462
76053SOL     OW30055   5.626   1.545   1.271
76053SOL    HW130056   5.702   1.595   1.300
76053SOL    HW230057   5.637   1.538   1.176
76054SOL     OW30058  13.598   1.918   3.256
76054SOL    HW130059  13.579   1.937   3.164
76054SOL    HW230060  13.610   1.823   3.259
76055SOL     OW30061   8.546   7.573   4.590
76055SOL    HW130062   8.595   7.544   4.513
76055SOL    HW230063   8.455   7.546   4.572
76056SOL     OW30064   2.762  10.658   0.738
76056SOL    HW130065   2.732  10.620   0.656
76056SOL    HW230066   2.773  10.751   0.719
76057SOL     OW30067  10.710   7.977   0.228
76057SOL    HW130068  10.748   8.062   0.203
76057SOL    HW230069  10.777   7.913   0.203
76058SOL     OW30070   8.713   1.876   9.662
76058SOL    HW130071   8.711   1.799   9.718
76058SOL    HW230072   8.804   1.903   9.660
76059SOL     OW30073   4.125   2.792   9.307
76059SOL    HW130074   4.070   2.824   9.236
76059SOL    HW230075   4.111   2.697   9.307
76060SOL     OW30076   8.941   5.848   8.908
76060SOL    HW130077   8.946   5.868   9.002
76060SOL    HW230078   8.859   5.800   8.898
76061SOL     OW30079  11.331   8.652   7.042
76061SOL    HW130080  11.326   8.560   7.015
76061SOL    HW230081  11.423   8.665   7.064
76062SOL     OW30082   4.492   9.812  13.108
76062SOL    HW130083   4.424   9.833  13.044
76062SOL    HW230084   4.563   9.774  13.056
76063SOL     OW30085   7.888  13.625   8.241
76063SOL    HW130086   7.971  13.619   8.290
76063SOL    HW230087   7.846  13.704   8.275
76064SOL     OW30088   9.522   4.203  13.475
76064SOL    HW130089   9.445   4.147  13.471
76064SOL    HW230090   9.574   4.177  13.398
76065SOL     OW30091   2.181   0.263   2.013
76065SOL    HW130092   2.244   0.327   1.981
76065SOL    HW230093   2.211   0.179   1.977
76066SOL     OW30094   4.261   1.054   3.461
76066SOL    HW130095   4.169   1.077   3.449
76066SOL    HW230096   4.300   1.133   3.498
76067SOL     OW30097   1.385   9.472   2.542
76067SOL    HW130098   1.437   9.411   2.490
76067SOL    HW230099   1.298   9.433   2.547
76068SOL     OW30100  11.148  11.617   4.209
76068SOL    HW130101  11.190  11.539   4.245
76068SOL    HW230102  11.057  11.611   4.239
76069SOL     OW30103   6.185  13.104   0.633
76069SOL    HW130104   6.151  13.019   0.659
76069SOL    HW230105   6.166  13.162   0.707
76070SOL     OW30106   3.120   1.357   8.296
76070SOL    HW130107   3.207   1.392   8.316
76070SOL    HW230108   3.136   1.281   8.240
76071SOL     OW30109  14.661   5.454  12.574
76071SOL    HW130110  14.739   5.469  12.628
76071SOL    HW230111  14.664   5.523  12.507
76072SOL     OW30112   8.787  11.305   9.579
76072SOL    HW130113   8.713  11.358   9.607
76072SOL    HW230114   8.762  11.215   9.601
76073SOL     OW30115  12.077   2.895   7.551
76073SOL    HW130116  12.169   2.866   7.550
76073SOL    HW230117  12.037   2.841   7.620
76074SOL     OW30118   2.211  12.909   4.171
76074SOL    HW130119   2.157  12.882   4.097
76074SOL    HW230120   2.252  12.829   4.201
76075SOL     OW30121  11.000   0.936   0.844
76075SOL    HW130122  11.067   1.000   0.868
76075SOL    HW230123  10.923   0.961   0.897
76076SOL     OW30124  12.127   0.368  12.370
76076SOL    HW130125  12.189   0.435  12.401
76076SOL    HW230126  12.042   0.396  12.405
76077SOL     OW30127   6.213  10.386   5.414
76077SOL    HW130128   6.187  10.294   5.424
76077SOL    HW230129   6.204  10.422   5.502
76078SOL     OW30130  10.118  10.685   2.604
76078SOL    HW130131  10.112  10.771   2.646
76078SOL    HW230132  10.045  10.684   2.542
76079SOL     OW30133  14.383   5.277   1.896
76079SOL    HW130134  14.315   5.328   1.940
76079SOL    HW230135  14.342   5.249   1.814
76080SOL     OW30136  14.037   4.202  12.345
76080SOL    HW130137  13.943   4.194  12.363
76080SOL    HW230138  14.079   4.166  12.423
76081SOL     OW30139  13.289   9.155   9.744
76081SOL    HW130140  13.228   9.152   9.670
76081SOL    HW230141  13.369   9.190   9.707
76082SOL     OW30142   7.321   9.162  11.388
76082SOL    HW130143   7.385   9.107  11.433
76082SOL    HW230144   7.371   9.206  11.319
76083SOL     OW30145   8.112   3.176   2.139
76083SOL    HW130146   8.079   3.200   2.225
76083SOL    HW230147   8.145   3.259   2.102
76084SOL     OW30148   4.620  10.129  10.828
76084SOL    HW130149   4.652  10.189  10.895
76084SOL    HW230150   4.692  10.067  10.815
76085SOL     OW30151   3.638   1.412  10.555
76085SOL    HW130152   3.674   1.462  10.628
76085SOL    HW230153   3.677   1.453  10.477
76086SOL     OW30154  14.664   9.146  10.489
76086SOL    HW130155  14.584   9.185  10.452
76086SOL    HW230156  14.719   9.128  10.412
76087SOL     OW30157  11.196   5.452   6.615
76087SOL    HW130158  11.233   5.478   6.699
76087SOL    HW230159  11.260   5.481   6.550
76088SOL     OW30160  12.219   5.437   9.493
76088SOL    HW130161  12.160   5.364   9.513
76088SOL    HW230162  12.303   5.395   9.473
76089SOL     OW30163  10.910  13.974   0.168
76089SOL    HW130164  10.920  13.896   0.222
76089SOL    HW230165  10.974  14.035   0.203
76090SOL     OW30166   8.274  14.156   3.718
76090SOL    HW130167   8.307  14.099   3.788
76090SOL    HW230168   8.253  14.238   3.762
76091SOL     OW30169   7.678  12.033  11.428
76091SOL    HW130170   7.664  11.938  11.428
76091SOL    HW230171   7.642  12.062  11.512
76092SOL     OW30172   5.270   3.033   9.663
76092SOL    HW130173   5.291   2.941   9.649
76092SOL    HW230174   5.210   3.056   9.592
76093SOL     OW30175  13.932   6.867  12.910
76093SOL    HW130176  13.842   6.845  12.933
76093SOL    HW230177  13.928   6.898  12.820
76094SOL     OW30178   8.936   8.963   6.281
76094SOL    HW130179   8.954   8.936   6.371
76094SOL    HW230180   9.004   8.920   6.230
76095SOL     OW30181   8.827   9.886   1.735
76095SOL    HW130182   8.919   9.863   1.720
76095SOL    HW230183   8.831   9.959   1.796
76096SOL     OW30184   6.899   5.925  13.314
76096SOL    HW130185   6.815   5.880  13.299
76096SOL    HW230186   6.934   5.941  13.227
76097SOL     OW30187  11.006  12.612   5.921
76097SOL    HW130188  11.099  12.608   5.900
76097SOL    HW230189  10.962  12.603   5.837
76098SOL     OW30190  11.042   9.281   3.282
76098SOL    HW130191  10.978   9.230   3.233
76098SOL    HW230192  11.009   9.371   3.279
76099SOL     OW30193  12.419  13.790  13.087
76099SOL    HW130194  12.386  13.719  13.032
76099SOL    HW230195  12.514  13.784  13.078
76100SOL     OW30196   2.537  13.535  10.488
76100SOL    HW130197   2.619  13.523  10.537
76100SOL    HW230198   2.470  13.539  10.556
76101SOL     OW30199  13.842   5.594   2.230
76101SOL    HW130200  13.764   5.587   2.285
76101SOL    HW230201  13.867   5.503   2.213
76102SOL     OW30202   5.101   8.816   0.538
76102SOL    HW130203   5.058   8.769   0.467
76102SOL    HW230204   5.030   8.856   0.588
76103SOL     OW30205   8.754   2.951   1.991
76103SOL    HW130206   8.847   2.970   1.982
76103SOL    HW230207   8.750   2.878   2.053
76104SOL     OW30208   1.093  11.586  14.742
76104SOL    HW130209   1.138  11.609  14.823
76104SOL    HW230210   1.038  11.511  14.766
76105SOL     OW30211   0.341   8.605  14.599
76105SOL    HW130212   0.253   8.616  14.635
76105SOL    HW230213   0.400   8.639  14.666
76106SOL     OW30214   0.664   6.397  11.886
76106SOL    HW130215   0.756   6.374  11.873
76106SOL    HW230216   0.619   6.354  11.814
76107SOL     OW30217   8.719   8.115   3.197
76107SOL    HW130218   8.761   8.033   3.174
76107SOL    HW230219   8.701   8.107   3.291
76108SOL     OW30220  13.916  12.718   0.464
76108SOL    HW130221  13.929  12.624   0.469
76108SOL    HW230222  13.980  12.748   0.400
76109SOL     OW30223   3.033   1.703   8.465
76109SOL    HW130224   2.992   1.631   8.416
76109SOL    HW230225   3.079   1.659   8.536
76110SOL     OW30226  14.639  13.376  13.361
76110SOL    HW130227  14.617  13.290  13.395
76110SOL    HW230228  14.694  13.359  13.284
76111SOL     OW30229  13.039  13.056   0.708
76111SOL    HW130230  13.117  13.080   0.657
76111SOL    HW230231  13.063  13.075   0.799
76112SOL     OW30232   1.903   3.422   3.018
76112SOL    HW130233   1.888   3.356   3.086
76112SOL    HW230234   1.846   3.495   3.042
76113SOL     OW30235   1.055  14.410  11.284
76113SOL    HW130236   0.973  14.382  11.325
76113SOL    HW230237   1.117  14.341  11.306
76114SOL     OW30238   9.190   4.763   2.627
76114SOL    HW130239   9.146   4.742   2.544
76114SOL    HW230240   9.129   4.822   2.671
76115SOL     OW30241   5.753  12.025   3.998
76115SOL    HW130242   5.686  12.080   4.038
76115SOL    HW230243   5.746  12.043   3.904
76116SOL     OW30244  11.693   6.058  13.907
76116SOL    HW130245  11.768   6.032  13.853
76116SOL    HW230246  11.711   6.019  13.992
76117SOL     OW30247  12.955   4.942   9.724
76117SOL    HW130248  12.956   4.988   9.640
76117SOL    HW230249  12.962   4.849   9.701
76118SOL     OW30250   5.309  10.457  14.164
76118SOL    HW130251   5.310  10.442  14.258
76118SOL    HW230252   5.363  10.535  14.151
76119SOL     OW30253   8.050  11.550  11.143
76119SOL    HW130254   7.994  11.604  11.088
76119SOL    HW230255   8.109  11.611  11.185
76120SOL     OW30256   5.925  10.066  14.019
76120SOL    HW130257   6.004  10.109  14.053
76120SOL    HW230258   5.932   9.976  14.049
76121SOL     OW30259   2.398  12.617   2.879
76121SOL    HW130260   2.344  12.544   2.848
76121SOL    HW230261   2.444  12.647   2.800
76122SOL     OW30262  14.058   9.226   8.022
76122SOL    HW130263  14.141   9.273   8.015
76122SOL    HW230264  14.016   9.264   8.099
76123SOL     OW30265   3.814  12.724   7.060
76123SOL    HW130266   3.805  12.691   7.150
76123SOL    HW230267   3.809  12.820   7.069
76124SOL     OW30268   0.350  14.096   0.783
76124SOL    HW130269   0.346  14.051   0.868
76124SOL    HW230270   0.442  14.123   0.776
76125SOL     OW30271   6.878   2.669  12.267
76125SOL    HW130272   6.903   2.591  12.217
76125SOL    HW230273   6.782   2.672  12.260
76126SOL     OW30274   1.595   8.802   4.955
76126SOL    HW130275   1.503   8.780   4.972
76126SOL    HW230276   1.637   8.799   5.041
76127SOL     OW30277  11.807   2.699  10.078
76127SOL    HW130278  11.868   2.626  10.086
76127SOL    HW230279  11.854   2.765  10.026
76128SOL     OW30280   5.231  10.906   8.212
76128SOL    HW130281   5.300  10.962   8.247
76128SOL    HW230282   5.186  10.873   8.290
76129SOL     OW30283  14.431   5.738  14.429
76129SOL    HW130284  14.475   5.767  14.509
76129SOL    HW230285  14.477   5.659  14.403
76130SOL     OW30286   4.431   9.800   9.782
76130SOL    HW130287   4.433   9.776   9.874
76130SOL    HW230288   4.406   9.720   9.736
76131SOL     OW30289   2.529   4.326   1.995
76131SOL    HW130290   2.570   4.407   2.025
76131SOL    HW230291   2.533   4.331   1.900
76132SOL     OW30292   0.293   8.197   1.339
76132SOL    HW130293   0.344   8.139   1.282
76132SOL    HW230294   0.358   8.243   1.391
76133SOL     OW30295   8.601   5.144  10.294
76133SOL    HW130296   8.509   5.124  10.279
76133SOL    HW230297   8.643   5.130  10.209
76134SOL     OW30298   1.285  13.950  13.530
76134SOL    HW130299   1.290  13.969  13.436
76134SOL    HW230300   1.261  14.034  13.570
76135SOL     OW30301  11.426  11.655   7.866
76135SOL    HW130302  11.424  11.751   7.862
76135SOL    HW230303  11.406  11.627   7.777
76136SOL     OW30304   1.862   8.090  13.276
76136SOL    HW130305   1.855   8.139  13.357
76136SOL    HW230306   1.848   7.999  13.301
76137SOL     OW30307   0.420   8.249   6.099
76137SOL    HW130308   0.487   8.304   6.059
76137SOL    HW230309   0.469   8.192   6.159
76138SOL     OW30310   4.040   9.092   5.827
76138SOL    HW130311   4.113   9.146   5.857
76138SOL    HW230312   3.993   9.069   5.906
76139SOL     OW30313   2.712  10.754   6.080
76139SOL    HW130314   2.695  10.783   6.169
76139SOL    HW230315   2.686  10.828   6.025
76140SOL     OW30316   0.914   0.093   4.085
76140SOL    HW130317   0.950   0.181   4.080
76140SOL    HW230318   0.975   0.045   4.140
76141SOL     OW30319  10.543   5.853   4.130
76141SOL    HW130320  10.521   5.761   4.118
76141SOL    HW230321  10.608   5.871   4.062
76142SOL     OW30322  12.207  14.672   4.170
76142SOL    HW130323  12.272  14.690   4.238
76142SOL    HW230324  12.240  14.594   4.125
76143SOL     OW30325  10.953   8.764   1.969
76143SOL    HW130326  10.967   8.676   2.003
76143SOL    HW230327  10.998   8.821   2.031
76144SOL     OW30328   4.062  13.215   7.952
76144SOL    HW130329   4.125  13.268   7.905
76144SOL    HW230330   4.016  13.165   7.883
76145SOL     OW30331   0.702  13.248   2.206
76145SOL    HW130332   0.780  13.302   2.219
76145SOL    HW230333   0.718  13.202   2.124
76146SOL     OW30334   7.896   4.179  10.378
76146SOL    HW130335   7.927   4.224  10.298
76146SOL    HW230336   7.868   4.093  10.347
76147SOL     OW30337   0.881   0.243  14.004
76147SOL    HW130338   0.937   0.166  14.014
76147SOL    HW230339   0.841   0.232  13.918
76148SOL     OW30340   2.583   1.415   2.776
76148SOL    HW130341   2.573   1.339   2.719
76148SOL    HW230342   2.677   1.417   2.798
76149SOL     OW30343   4.028   5.653   8.011
76149SOL    HW130344   4.044   5.636   8.104
76149SOL    HW230345   4.115   5.660   7.972
76150SOL     OW30346   0.969   0.482   7.872
76150SOL    HW130347   0.952   0.493   7.966
76150SOL    HW230348   0.911   0.410   7.846
76151SOL     OW30349   0.315   1.362   1.805
76151SOL    HW130350   0.245   1.427   1.793
76151SOL    HW230351   0.283   1.284   1.759
76152SOL     OW30352  13.017   6.610   7.930
76152SOL    HW130353  12.926   6.607   7.959
76152SOL    HW230354  13.013   6.586   7.837
76153SOL     OW30355   4.119   5.044   6.729
76153SOL    HW130356   4.157   5.111   6.673
76153SOL    HW230357   4.025   5.061   6.726
76154SOL     OW30358   8.994  13.204  13.939
76154SOL    HW130359   9.061  13.184  14.005
76154SOL    HW230360   8.911  13.196  13.986
76155SOL     OW30361   6.953   1.252  13.043
76155SOL    HW130362   7.022   1.207  13.092
76155SOL    HW230363   6.996   1.328  13.005
76156SOL     OW30364   6.731   9.737   8.860
76156SOL    HW130365   6.656   9.700   8.814
76156SOL    HW230366   6.738   9.683   8.940
76157SOL     OW30367   1.961   0.915  13.253
76157SOL    HW130368   2.041   0.866  13.271
76157SOL    HW230369   1.900   0.887  13.321
76158SOL     OW30370   2.002   0.238   1.099
76158SOL    HW130371   1.937   0.210   1.034
76158SOL    HW230372   1.951   0.271   1.172
76159SOL     OW30373  11.377  13.757  12.883
76159SOL    HW130374  11.461  13.735  12.842
76159SOL    HW230375  11.312  13.743  12.814
76160SOL     OW30376  10.071  11.564   0.757
76160SOL    HW130377  10.056  11.659   0.752
76160SOL    HW230378  10.146  11.555   0.816
76161SOL     OW30379   6.407   2.041  10.626
76161SOL    HW130380   6.354   2.092  10.564
76161SOL    HW230381   6.493   2.034  10.584
76162SOL     OW30382   7.835   7.585   4.289
76162SOL    HW130383   7.824   7.529   4.212
76162SOL    HW230384   7.902   7.648   4.263
76163SOL     OW30385  10.127  14.568  12.199
76163SOL    HW130386  10.210  14.521  12.205
76163SOL    HW230387  10.153  14.660  12.187
76164SOL     OW30388   7.542   2.479   3.054
76164SOL    HW130389   7.602   2.515   3.119
76164SOL    HW230390   7.596   2.418   3.003
76165SOL     OW30391   0.438  11.189  14.318
76165SOL    HW130392   0.462  11.278  14.292
76165SOL    HW230393   0.518  11.138  14.303
76166SOL     OW30394   0.876  13.948  14.066
76166SOL    HW130395   0.830  13.915  13.989
76166SOL    HW230396   0.828  14.027  14.091
76167SOL     OW30397   6.896   0.518  10.523
76167SOL    HW130398   6.981   0.477  10.542
76167SOL    HW230399   6.894   0.527  10.428
76168SOL     OW30400  14.192  13.618  14.793
76168SOL    HW130401  14.176  13.639   0.005
76168SOL    HW230402  14.155  13.692  14.745
76169SOL     OW30403   3.933   4.097  10.558
76169SOL    HW130404   3.993   4.165  10.587
76169SOL    HW230405   3.902   4.128  10.472
76170SOL     OW30406   8.014   8.739   5.156
76170SOL    HW130407   8.033   8.806   5.221
76170SOL    HW230408   8.018   8.656   5.204
76171SOL     OW30409   4.502   6.014   7.875
76171SOL    HW130410   4.422   5.972   7.908
76171SOL    HW230411   4.502   6.101   7.914
76172SOL     OW30412   1.219   6.023  11.060
76172SOL    HW130413   1.252   6.049  10.974
76172SOL    HW230414   1.248   6.092  11.119
76173SOL     OW30415  10.573   3.354   7.973
76173SOL    HW130416  10.626   3.402   8.037
76173SOL    HW230417  10.593   3.262   7.991
76174SOL     OW30418  11.024   7.323   0.728
76174SOL    HW130419  11.007   7.262   0.655
76174SOL    HW230420  10.968   7.291   0.799
76175SOL     OW30421   5.690   3.274  14.034
76175SOL    HW130422   5.630   3.214  14.080
76175SOL    HW230423   5.683   3.356  14.082
76176SOL     OW30424   7.821   5.364   8.819
76176SOL    HW130425   7.892   5.302   8.839
76176SOL    HW230426   7.745   5.308   8.801
76177SOL     OW30427   6.724   1.067   8.814
76177SOL    HW130428   6.755   1.118   8.740
76177SOL    HW230429   6.783   0.991   8.818
76178SOL     OW30430   0.247   5.195  11.973
76178SOL    HW130431   0.300   5.242  11.908
76178SOL    HW230432   0.182   5.148  11.922
76179SOL     OW30433   5.922  10.550  14.610
76179SOL    HW130434   5.854  10.575  14.672
76179SOL    HW230435   5.876  10.511  14.536
76180SOL     OW30436   2.651  10.040   9.755
76180SOL    HW130437   2.587  10.030   9.825
76180SOL    HW230438   2.736  10.035   9.799
76181SOL     OW30439   1.174  13.303   1.255
76181SOL    HW130440   1.081  13.321   1.267
76181SOL    HW230441   1.189  13.220   1.300
76182SOL     OW30442   1.370  10.694   3.143
76182SOL    HW130443   1.338  10.647   3.220
76182SOL    HW230444   1.427  10.762   3.179
76183SOL     OW30445   2.780   0.212  14.437
76183SOL    HW130446   2.706   0.157  14.463
76183SOL    HW230447   2.831   0.224  14.516
76184SOL     OW30448  14.543   5.874  10.333
76184SOL    HW130449  14.457   5.851  10.299
76184SOL    HW230450  14.547   5.970  10.327
76185SOL     OW30451   0.465   5.690   2.935
76185SOL    HW130452   0.402   5.743   2.984
76185SOL    HW230453   0.421   5.606   2.922
76186SOL     OW30454   0.643  11.490   5.436
76186SOL    HW130455   0.558  11.464   5.402
76186SOL    HW230456   0.628  11.507   5.529
76187SOL     OW30457   6.653   8.650   6.773
76187SOL    HW130458   6.594   8.625   6.702
76187SOL    HW230459   6.658   8.745   6.768
76188SOL     OW30460  10.086   7.906  11.207
76188SOL    HW130461  10.042   7.825  11.184
76188SOL    HW230462  10.017   7.961  11.244
76189SOL     OW30463  13.226   6.761   6.846
76189SOL    HW130464  13.194   6.824   6.911
76189SOL    HW230465  13.321   6.772   6.846
76190SOL     OW30466  13.473   9.311   8.720
76190SOL    HW130467  13.535   9.260   8.772
76190SOL    HW230468  13.508   9.307   8.631
76191SOL     OW30469   5.183   8.180   2.602
76191SOL    HW130470   5.122   8.132   2.547
76191SOL    HW230471   5.238   8.228   2.540
76192SOL     OW30472   9.751   9.616  12.512
76192SOL    HW130473   9.779   9.547  12.573
76192SOL    HW230474   9.672   9.581  12.471
76193SOL     OW30475   2.629   5.530   9.189
76193SOL    HW130476   2.632   5.439   9.160
76193SOL    HW230477   2.713   5.543   9.234
76194SOL     OW30478  13.386   3.653   7.124
76194SOL    HW130479  13.322   3.679   7.059
76194SOL    HW230480  13.470   3.657   7.078
76195SOL     OW30481   4.624   2.108  12.148
76195SOL    HW130482   4.710   2.097  12.109
76195SOL    HW230483   4.566   2.121  12.073
76196SOL     OW30484  10.102   4.885  10.699
76196SOL    HW130485  10.134   4.808  10.652
76196SOL    HW230486  10.019   4.907  10.655
76197SOL     OW30487  11.619  11.026   1.515
76197SOL    HW130488  11.651  11.094   1.456
76197SOL    HW230489  11.613  11.068   1.600
76198SOL     OW30490   4.196   2.026  14.868
76198SOL    HW130491   4.244   1.948   0.017
76198SOL    HW230492   4.218   2.035  14.776
76199SOL     OW30493  10.055  11.374   7.840
76199SOL    HW130494   9.979  11.381   7.898
76199SOL    HW230495  10.045  11.290   7.796
76200SOL     OW30496  12.676   3.454   5.317
76200SOL    HW130497  12.723   3.475   5.398
76200SOL    HW230498  12.650   3.363   5.327
76201SOL     OW30499   8.654   5.261   4.570
76201SOL    HW130500   8.570   5.226   4.540
76201SOL    HW230501   8.718   5.225   4.508
76202SOL     OW30502   8.296   3.899  11.757
76202SOL    HW130503   8.296   3.840  11.682
76202SOL    HW230504   8.225   3.866  11.813
76203SOL     OW30505  14.460  13.405   1.609
76203SOL    HW130506  14.552  13.430   1.611
76203SOL    HW230507  14.426  13.442   1.527
76204SOL     OW30508   3.609  10.186  13.759
76204SOL    HW130509   3.639  10.161  13.846
76204SOL    HW230510   3.629  10.279  13.752
76205SOL     OW30511  12.401   4.468   4.697
76205SOL    HW130512  12.485   4.426   4.677
76205SOL    HW230513  12.345   4.397   4.729
76206SOL     OW30514  12.605  14.186   2.867
76206SOL    HW130515  12.685  14.136   2.884
76206SOL    HW230516  12.557  14.186   2.950
76207SOL     OW30517  14.015   9.325   9.579
76207SOL    HW130518  14.096   9.275   9.591
76207SOL    HW230519  14.015   9.350   9.487
76208SOL     OW30520  10.278  14.663   4.702
76208SOL    HW130521  10.342  14.668   4.632
76208SOL    HW230522  10.204  14.714   4.670
76209SOL     OW30523  14.425   6.902   6.665
76209SOL    HW130524  14.413   6.817   6.621
76209SOL    HW230525  14.339   6.942   6.662
76210SOL     OW30526   3.675   5.005   1.103
76210SOL    HW130527   3.635   5.080   1.057
76210SOL    HW230528   3.769   5.022   1.098
76211SOL     OW30529   2.674  13.493   9.629
76211SOL    HW130530   2.653  13.503   9.722
76211SOL    HW230531   2.590  13.474   9.587
76212SOL     OW30532   8.324   3.319   3.330
76212SOL    HW130533   8.236   3.299   3.363
76212SOL    HW230534   8.351   3.240   3.283
76213SOL     OW30535   9.778   1.351   3.897
76213SOL    HW130536   9.747   1.415   3.961
76213SOL    HW230537   9.815   1.280   3.950
76214SOL     OW30538   9.639   3.036  13.062
76214SOL    HW130539   9.585   3.094  13.008
76214SOL    HW230540   9.638   3.077  13.149
76215SOL     OW30541   9.622   8.925   4.582
76215SOL    HW130542   9.664   8.840   4.572
76215SOL    HW230543   9.531   8.905   4.603
76216SOL     OW30544  10.113   4.486   4.140
76216SOL    HW130545  10.188   4.427   4.128
76216SOL    HW230546  10.040   4.428   4.161
76217SOL     OW30547  11.297   1.149   3.553
76217SOL    HW130548  11.203   1.129   3.562
76217SOL    HW230549  11.308   1.169   3.460
76218SOL     OW30550   3.988  11.310  11.126
76218SOL    HW130551   3.908  11.261  11.111
76218SOL    HW230552   4.055  11.263  11.077
76219SOL     OW30553  13.037   5.389   3.355
76219SOL    HW130554  12.950   5.397   3.315
76219SOL    HW230555  13.022   5.337   3.434
76220SOL     OW30556   6.969   0.615   9.513
76220SOL    HW130557   6.952   0.525   9.541
76220SOL    HW230558   6.936   0.619   9.423
76221SOL     OW30559   2.451   8.279   4.815
76221SOL    HW130560   2.455   8.297   4.909
76221SOL    HW230561   2.429   8.186   4.809
76222SOL     OW30562   5.041  13.879   9.096
76222SOL    HW130563   5.121  13.843   9.135
76222SOL    HW230564   4.980  13.805   9.096
76223SOL     OW30565  13.204   7.817   6.631
76223SOL    HW130566  13.213   7.830   6.536
76223SOL    HW230567  13.111   7.800   6.644
76224SOL     OW30568   4.019  12.308   7.536
76224SOL    HW130569   4.028  12.355   7.618
76224SOL    HW230570   4.070  12.359   7.473
76225SOL     OW30571   9.496   5.700  10.539
76225SOL    HW130572   9.427   5.723  10.477
76225SOL    HW230573   9.464   5.620  10.581
76226SOL     OW30574  10.166   6.540   5.832
76226SOL    HW130575  10.125   6.612   5.880
76226SOL    HW230576  10.100   6.471   5.832
76227SOL     OW30577   0.143   5.354  13.449
76227SOL    HW130578   0.165   5.368  13.541
76227SOL    HW230579   0.094   5.432  13.423
76228SOL     OW30580  13.682   1.261   5.738
76228SOL    HW130581  13.675   1.356   5.745
76228SOL    HW230582  13.623   1.227   5.805
76229SOL     OW30583  13.023  14.256  10.623
76229SOL    HW130584  12.989  14.266  10.712
76229SOL    HW230585  13.083  14.330  10.611
76230SOL     OW30586   6.615   3.511   1.559
76230SOL    HW130587   6.553   3.568   1.514
76230SOL    HW230588   6.562   3.436   1.588
76231SOL     OW30589   7.076  11.478   3.640
76231SOL    HW130590   7.078  11.467   3.545
76231SOL    HW230591   7.006  11.542   3.655
76232SOL     OW30592   2.246   2.574  11.820
76232SOL    HW130593   2.166   2.612  11.784
76232SOL    HW230594   2.226   2.480  11.827
76233SOL     OW30595   3.511   4.296  10.061
76233SOL    HW130596   3.565   4.268   9.987
76233SOL    HW230597   3.568   4.354  10.111
76234SOL     OW30598   2.057  10.418   1.594
76234SOL    HW130599   1.996  10.466   1.538
76234SOL    HW230600   2.143  10.456   1.575
76235SOL     OW30601  10.069  10.085   2.034
76235SOL    HW130602  10.062  10.136   1.954
76235SOL    HW230603  10.160  10.057   2.038
76236SOL     OW30604   4.999  13.945  11.395
76236SOL    HW130605   4.984  13.921  11.304
76236SOL    HW230606   5.090  13.919  11.412
76237SOL     OW30607   7.371   0.923   5.024
76237SOL    HW130608   7.298   0.885   4.976
76237SOL    HW230609   7.419   0.848   5.060
76238SOL     OW30610   0.862   6.561   6.293
76238SOL    HW130611   0.804   6.502   6.245
76238SOL    HW230612   0.947   6.551   6.252
76239SOL     OW30613   5.498  11.633  14.759
76239SOL    HW130614   5.512  11.652  14.851
76239SOL    HW230615   5.403  11.628  14.749
76240SOL     OW30616  10.712   3.845   6.785
76240SOL    HW130617  10.766   3.829   6.708
76240SOL    HW230618  10.727   3.937   6.806
76241SOL     OW30619   9.625   6.121   0.154
76241SOL    HW130620   9.661   6.098   0.068
76241SOL    HW230621   9.625   6.216   0.155
76242SOL     OW30622   7.196   4.403  11.492
76242SOL    HW130623   7.195   4.315  11.531
76242SOL    HW230624   7.125   4.450  11.535
76243SOL     OW30625  10.382  10.127   7.408
76243SOL    HW130626  10.299  10.170   7.390
76243SOL    HW230627  10.444  10.168   7.347
76244SOL     OW30628  13.709   3.096  10.233
76244SOL    HW130629  13.654   3.024  10.202
76244SOL    HW230630  13.648   3.159  10.270
76245SOL     OW30631  12.109   5.081   0.095
76245SOL    HW130632  12.051   5.015   0.134
76245SOL    HW230633  12.146   5.127   0.170
76246SOL     OW30634   0.949  12.880  10.324
76246SOL    HW130635   0.983  12.968  10.307
76246SOL    HW230636   0.871  12.874  10.270
76247SOL     OW30637   4.027   2.550   9.369
76247SOL    HW130638   4.037   2.474   9.426
76247SOL    HW230639   3.964   2.521   9.302
76248SOL     OW30640   8.757   9.554  11.585
76248SOL    HW130641   8.787   9.645  11.578
76248SOL    HW230642   8.835   9.502  11.566
76249SOL     OW30643  12.505  13.926   0.582
76249SOL    HW130644  12.489  13.839   0.545
76249SOL    HW230645  12.462  13.924   0.667
76250SOL     OW30646   4.420  12.701   1.058
76250SOL    HW130647   4.375  12.767   1.005
76250SOL    HW230648   4.349  12.647   1.094
76251SOL     OW30649   5.160  12.578   9.411
76251SOL    HW130650   5.176  12.546   9.500
76251SOL    HW230651   5.156  12.673   9.420
76252SOL     OW30652  11.350  13.535   4.477
76252SOL    HW130653  11.407  13.611   4.487
76252SOL    HW230654  11.333  13.529   4.383
76253SOL     OW30655  10.425   2.450  14.163
76253SOL    HW130656  10.486   2.420  14.096
76253SOL    HW230657  10.361   2.502  14.115
76254SOL     OW30658  12.097   6.012   7.028
76254SOL    HW130659  12.173   5.965   6.993
76254SOL    HW230660  12.120   6.032   7.118
76255SOL     OW30661   4.305   9.659  11.762
76255SOL    HW130662   4.216   9.631  11.742
76255SOL    HW230663   4.317   9.740  11.713
76256SOL     OW30664   9.620   9.232   8.706
76256SOL    HW130665   9.635   9.322   8.737
76256SOL    HW230666   9.683   9.179   8.755
76257SOL     OW30667   3.590   0.350   5.993
76257SOL    HW130668   3.674   0.396   5.991
76257SOL    HW230669   3.604   0.273   5.939
76258SOL     OW30670   3.723  13.773  11.344
76258SOL    HW130671   3.722  13.813  11.257
76258SOL    HW230672   3.814  13.782  11.373
76259SOL     OW30673   8.178  14.111   9.630
76259SOL    HW130674   8.265  14.126   9.594
76259SOL    HW230675   8.118  14.130   9.558
76260SOL     OW30676   5.521  12.603  11.107
76260SOL    HW130677   5.506  12.512  11.131
76260SOL    HW230678   5.519  12.603  11.011
76261SOL     OW30679   4.694   2.050   0.505
76261SOL    HW130680   4.701   2.145   0.508
76261SOL    HW230681   4.659   2.025   0.590
76262SOL     OW30682   2.167   6.791  12.075
76262SOL    HW130683   2.075   6.805  12.053
76262SOL    HW230684   2.214   6.805  11.993
76263SOL     OW30685  13.109  13.701   4.797
76263SOL    HW130686  13.131  13.737   4.711
76263SOL    HW230687  13.164  13.750   4.858
76264SOL     OW30688   5.770   4.011   7.024
76264SOL    HW130689   5.811   4.041   7.105
76264SOL    HW230690   5.676   4.017   7.042
76265SOL     OW30691  13.585   1.375  12.199
76265SOL    HW130692  13.668   1.383  12.248
76265SOL    HW230693  13.607   1.402  12.110
76266SOL     OW30694  13.630  11.496   9.619
76266SOL    HW130695  13.663  11.420   9.571
76266SOL    HW230696  13.576  11.459   9.689
76267SOL     OW30697   5.132  14.674   4.075
76267SOL    HW130698   5.084  14.596   4.101
76267SOL    HW230699   5.162  14.712   4.158
76268SOL     OW30700   2.023   7.287  12.798
76268SOL    HW130701   2.005   7.380  12.814
76268SOL    HW230702   2.082   7.262  12.869
76269SOL     OW30703  12.131  10.477  10.253
76269SOL    HW130704  12.164  10.419  10.322
76269SOL    HW230705  12.201  10.542  10.240
76270SOL     OW30706  14.862   5.035  13.347
76270SOL    HW130707   0.076   5.045  13.356
76270SOL    HW230708  14.838   5.092  13.274
76271SOL     OW30709   6.487  13.425   6.913
76271SOL    HW130710   6.397  13.447   6.936
76271SOL    HW230711   6.503  13.341   6.955
76272SOL     OW30712   9.755   8.157  13.800
76272SOL    HW130713   9.718   8.118  13.721
76272SOL    HW230714   9.754   8.251  13.783
76273SOL     OW30715   1.371   3.956   2.369
76273SOL    HW130716   1.362   3.861   2.378
76273SOL    HW230717   1.429   3.968   2.295
76274SOL     OW30718  13.278   6.554   1.092
76274SOL    HW130719  13.206   6.496   1.116
76274SOL    HW230720  13.339   6.548   1.166
76275SOL     OW30721   7.237   3.986   6.868
76275SOL    HW130722   7.165   4.049   6.857
76275SOL    HW230723   7.240   3.970   6.962
76276SOL     OW30724   3.691   6.564   1.102
76276SOL    HW130725   3.597   6.578   1.089
76276SOL    HW230726   3.702   6.469   1.090
76277SOL     OW30727   5.168   9.310   4.640
76277SOL    HW130728   5.141   9.218   4.649
76277SOL    HW230729   5.191   9.337   4.729
76278SOL     OW30730   3.217   2.174   6.033
76278SOL    HW130731   3.310   2.156   6.023
76278SOL    HW230732   3.194   2.229   5.958
76279SOL     OW30733  11.110   9.481  14.088
76279SOL    HW130734  11.043   9.467  14.022
76279SOL    HW230735  11.104   9.406  14.147
76280SOL     OW30736  14.483   4.633  13.678
76280SOL    HW130737  14.573   4.659  13.701
76280SOL    HW230738  14.455   4.699  13.615
76281SOL     OW30739   6.032   3.017   2.342
76281SOL    HW130740   6.036   3.026   2.437
76281SOL    HW230741   6.102   3.075   2.310
76282SOL     OW30742  14.657   1.958   1.540
76282SOL    HW130743  14.613   1.966   1.455
76282SOL    HW230744  14.750   1.968   1.519
76283SOL     OW30745  11.904   2.014   5.942
76283SOL    HW130746  11.903   1.918   5.945
76283SOL    HW230747  11.924   2.035   5.851
76284SOL     OW30748   2.104   3.307   6.655
76284SOL    HW130749   2.058   3.265   6.582
76284SOL    HW230750   2.191   3.326   6.620
76285SOL     OW30751   9.428   7.507   2.301
76285SOL    HW130752   9.407   7.443   2.368
76285SOL    HW230753   9.384   7.475   2.222
76286SOL     OW30754   4.264  10.703   3.395
76286SOL    HW130755   4.260  10.617   3.437
76286SOL    HW230756   4.286  10.684   3.303
76287SOL     OW30757   9.026   1.948   7.268
76287SOL    HW130758   9.054   2.036   7.245
76287SOL    HW230759   9.105   1.905   7.301
76288SOL     OW30760   5.356   8.258   4.472
76288SOL    HW130761   5.434   8.314   4.475
76288SOL    HW230762   5.344   8.229   4.562
76289SOL     OW30763   5.831   0.013   6.446
76289SOL    HW130764   5.850  14.800   6.454
76289SOL    HW230765   5.758   0.018   6.385
76290SOL     OW30766   0.203  13.176  11.416
76290SOL    HW130767   0.297  13.177  11.397
76290SOL    HW230768   0.185  13.086  11.442
76291SOL     OW30769   3.675   8.300   2.352
76291SOL    HW130770   3.753   8.279   2.302
76291SOL    HW230771   3.603   8.263   2.301
76292SOL     OW30772   9.182  11.207   0.979
76292SOL    HW130773   9.202  11.113   0.970
76292SOL    HW230774   9.238  11.236   1.052
76293SOL     OW30775   5.986  12.466  12.933
76293SOL    HW130776   6.021  12.533  12.875
76293SOL    HW230777   5.900  12.501  12.960
76294SOL     OW30778   1.756   6.700   9.991
76294SOL    HW130779   1.820   6.696   9.919
76294SOL    HW230780   1.768   6.787  10.028
76295SOL     OW30781  12.674   8.962   1.597
76295SOL    HW130782  12.747   8.904   1.574
76295SOL    HW230783  12.620   8.910   1.657
76296SOL     OW30784  13.116   0.859   8.912
76296SOL    HW130785  13.121   0.881   8.819
76296SOL    HW230786  13.042   0.910   8.945
76297SOL     OW30787   7.253   8.525   9.639
76297SOL    HW130788   7.297   8.453   9.592
76297SOL    HW230789   7.248   8.596   9.575
76298SOL     OW30790   0.470   5.242   7.198
76298SOL    HW130791   0.488   5.151   7.220
76298SOL    HW230792   0.398   5.239   7.135
76299SOL     OW30793   1.018   2.377   2.949
76299SOL    HW130794   0.976   2.291   2.940
76299SOL    HW230795   0.976   2.416   3.026
76300SOL     OW30796   2.617   4.892   9.099
76300SOL    HW130797   2.706   4.899   9.131
76300SOL    HW230798   2.626   4.856   9.011
76301SOL     OW30799   6.465  13.236   4.273
76301SOL    HW130800   6.438  13.146   4.253
76301SOL    HW230801   6.386  13.277   4.309
76302SOL     OW30802   9.586   1.741  10.738
76302SOL    HW130803   9.511   1.689  10.769
76302SOL    HW230804   9.551   1.830  10.728
76303SOL     OW30805   9.406  10.503   9.611
76303SOL    HW130806   9.485  10.550   9.640
76303SOL    HW230807   9.334  10.563   9.629
76304SOL     OW30808  11.829   6.222  11.817
76304SOL    HW130809  11.784   6.306  11.827
76304SOL    HW230810  11.910   6.232  11.867
76305SOL     OW30811   2.004  11.332  10.155
76305SOL    HW130812   1.918  11.361  10.185
76305SOL    HW230813   2.039  11.405  10.105
76306SOL     OW30814   2.439   7.807   4.498
76306SOL    HW130815   2.503   7.820   4.427
76306SOL    HW230816   2.456   7.879   4.559
76307SOL     OW30817   4.888  12.876  14.389
76307SOL    HW130818   4.906  12.925  14.470
76307SOL    HW230819   4.912  12.937  14.319
76308SOL     OW30820  12.694   3.108  14.346
76308SOL    HW130821  12.786   3.119  14.367
76308SOL    HW230822  12.676   3.174  14.279
76309SOL     OW30823  10.632  14.340   3.546
76309SOL    HW130824  10.652  14.389   3.625
76309SOL    HW230825  10.560  14.388   3.505
76310SOL     OW30826   0.879   0.568  10.521
76310SOL    HW130827   0.866   0.596  10.612
76310SOL    HW230828   0.973   0.572  10.508
76311SOL     OW30829  13.176   7.838  14.285
76311SOL    HW130830  13.235   7.785  14.232
76311SOL    HW230831  13.103   7.780  14.306
76312SOL     OW30832  11.044   8.750  13.960
76312SOL    HW130833  11.117   8.806  13.930
76312SOL    HW230834  10.989   8.808  14.012
76313SOL     OW30835   1.225   7.793   5.475
76313SOL    HW130836   1.136   7.775   5.447
76313SOL    HW230837   1.264   7.843   5.403
76314SOL     OW30838  12.441   2.814  14.533
76314SOL    HW130839  12.409   2.852  14.615
76314SOL    HW230840  12.401   2.727  14.530
76315SOL     OW30841   6.349  12.092   1.468
76315SOL    HW130842   6.268  12.043   1.457
76315SOL    HW230843   6.392  12.087   1.382
76316SOL     OW30844   0.868   2.078   0.408
76316SOL    HW130845   0.905   2.150   0.459
76316SOL    HW230846   0.874   2.108   0.317
76317SOL     OW30847  11.578   8.026   3.983
76317SOL    HW130848  11.529   8.082   4.044
76317SOL    HW230849  11.644   7.983   4.037
76318SOL     OW30850   3.473   5.195   9.830
76318SOL    HW130851   3.519   5.145   9.897
76318SOL    HW230852   3.521   5.178   9.749
76319SOL     OW30853   9.731   7.014   0.141
76319SOL    HW130854   9.774   7.022   0.226
76319SOL    HW230855   9.693   7.100   0.124
76320SOL     OW30856   6.398   6.876   2.222
76320SOL    HW130857   6.485   6.852   2.190
76320SOL    HW230858   6.405   6.969   2.242
76321SOL     OW30859  10.728   9.548  13.573
76321SOL    HW130860  10.698   9.495  13.500
76321SOL    HW230861  10.817   9.574  13.548
76322SOL     OW30862   0.897   8.300   4.483
76322SOL    HW130863   0.924   8.335   4.568
76322SOL    HW230864   0.889   8.377   4.427
76323SOL     OW30865   8.817   8.985   2.652
76323SOL    HW130866   8.774   9.051   2.597
76323SOL    HW230867   8.821   9.024   2.739
76324SOL     OW30868  11.892  11.322   0.925
76324SOL    HW130869  11.888  11.262   0.851
76324SOL    HW230870  11.803  11.325   0.960
76325SOL     OW30871  10.620  12.481   5.816
76325SOL    HW130872  10.583  12.542   5.751
76325SOL    HW230873  10.633  12.400   5.767
76326SOL     OW30874   7.250   0.501  13.750
76326SOL    HW130875   7.304   0.517  13.828
76326SOL    HW230876   7.301   0.538  13.678
76327SOL     OW30877   7.365  11.643  11.852
76327SOL    HW130878   7.384  11.596  11.934
76327SOL    HW230879   7.451  11.670  11.819
76328SOL     OW30880  10.187   7.619  13.227
76328SOL    HW130881  10.239   7.687  13.185
76328SOL    HW230882  10.181   7.550  13.161
76329SOL     OW30883  14.443  13.451  14.076
76329SOL    HW130884  14.348  13.462  14.072
76329SOL    HW230885  14.477  13.538  14.096
76330SOL     OW30886   2.502  13.987   8.439
76330SOL    HW130887   2.436  14.055   8.454
76330SOL    HW230888   2.559  14.024   8.371
76331SOL     OW30889   0.821   8.051  12.699
76331SOL    HW130890   0.863   8.002  12.770
76331SOL    HW230891   0.731   8.017  12.697
76332SOL     OW30892   6.067   5.421  12.915
76332SOL    HW130893   6.002   5.457  12.855
76332SOL    HW230894   6.055   5.471  12.996
76333SOL     OW30895   7.146  13.899  12.971
76333SOL    HW130896   7.160  13.836  12.901
76333SOL    HW230897   7.054  13.925  12.962
76334SOL     OW30898   3.490   9.719   8.031
76334SOL    HW130899   3.484   9.644   7.972
76334SOL    HW230900   3.408   9.718   8.080
76335SOL     OW30901   3.877   6.142   6.448
76335SOL    HW130902   3.967   6.138   6.416
76335SOL    HW230903   3.867   6.231   6.481
76336SOL     OW30904   0.189  12.779   5.401
76336SOL    HW130905   0.114  12.744   5.353
76336SOL    HW230906   0.264  12.732   5.366
76337SOL     OW30907   8.249   9.894  12.774
76337SOL    HW130908   8.194   9.834  12.824
76337SOL    HW230909   8.336   9.854  12.776
76338SOL     OW30910  13.768   0.102  10.039
76338SOL    HW130911  13.740   0.194  10.042
76338SOL    HW230912  13.847   0.102   9.986
76339SOL     OW30913   3.346   1.506   4.788
76339SOL    HW130914   3.381   1.591   4.763
76339SOL    HW230915   3.280   1.485   4.721
76340SOL     OW30916   2.148  13.462   9.859
76340SOL    HW130917   2.176  13.409   9.785
76340SOL    HW230918   2.205  13.436   9.931
76341SOL     OW30919   5.023  14.534  13.992
76341SOL    HW130920   5.079  14.481  13.935
76341SOL    HW230921   5.085  14.583  14.046
76342SOL     OW30922   1.570   3.311   2.139
76342SOL    HW130923   1.587   3.218   2.122
76342SOL    HW230924   1.630   3.357   2.081
76343SOL     OW30925   5.932   5.709   4.645
76343SOL    HW130926   5.855   5.704   4.701
76343SOL    HW230927   5.915   5.782   4.586
76344SOL     OW30928   1.252  12.142   4.943
76344SOL    HW130929   1.307  12.199   4.889
76344SOL    HW230930   1.286  12.155   5.032
76345SOL     OW30931  11.542   0.297  12.504
76345SOL    HW130932  11.526   0.362  12.573
76345SOL    HW230933  11.512   0.340  12.424
76346SOL     OW30934  13.684   1.702  11.513
76346SOL    HW130935  13.610   1.654  11.478
76346SOL    HW230936  13.751   1.698  11.444
76347SOL     OW30937  12.720  10.275   2.675
76347SOL    HW130938  12.779  10.222   2.728
76347SOL    HW230939  12.763  10.361   2.671
76348SOL     OW30940   4.245   0.359  11.734
76348SOL    HW130941   4.267   0.333  11.824
76348SOL    HW230942   4.327   0.350  11.686
76349SOL     OW30943   0.028   2.556   4.549
76349SOL    HW130944  14.866   2.517   4.472
76349SOL    HW230945  14.848   2.625   4.577
76350SOL     OW30946   1.987  13.863   6.475
76350SOL    HW130947   1.959  13.777   6.445
76350SOL    HW230948   1.927  13.885   6.547
76351SOL     OW30949  14.223   1.611   3.123
76351SOL    HW130950  14.274   1.576   3.196
76351SOL    HW230951  14.225   1.543   3.056
76352SOL     OW30952   9.591  11.464  11.158
76352SOL    HW130953   9.558  11.545  11.197
76352SOL    HW230954   9.541  11.454  11.077
76353SOL     OW30955   0.220   8.346   9.710
76353SOL    HW130956   0.232   8.302   9.626
76353SOL    HW230957   0.208   8.438   9.686
76354SOL     OW30958   7.643  12.930   9.116
76354SOL    HW130959   7.640  12.951   9.023
76354SOL    HW230960   7.736  12.921   9.136
76355SOL     OW30961  11.143   0.249   3.269
76355SOL    HW130962  11.096   0.284   3.344
76355SOL    HW230963  11.124   0.310   3.198
76356SOL     OW30964   4.718  12.180   9.145
76356SOL    HW130965   4.669  12.104   9.114
76356SOL    HW230966   4.702  12.182   9.240
76357SOL     OW30967  13.360   7.121  12.855
76357SOL    HW130968  13.327   7.208  12.832
76357SOL    HW230969  13.291   7.084  12.911
76358SOL     OW30970   6.296   5.540   6.179
76358SOL    HW130971   6.278   5.481   6.253
76358SOL    HW230972   6.390   5.529   6.162
76359SOL     OW30973   6.659   4.361   7.406
76359SOL    HW130974   6.669   4.266   7.411
76359SOL    HW230975   6.666   4.381   7.312
76360SOL     OW30976  10.007   8.095   8.527
76360SOL    HW130977  10.058   8.019   8.557
76360SOL    HW230978  10.006   8.087   8.432
76361SOL     OW30979   1.760  12.164   8.260
76361SOL    HW130980   1.774  12.102   8.332
76361SOL    HW230981   1.772  12.250   8.300
76362SOL     OW30982   9.801  14.435   5.923
76362SOL    HW130983   9.773  14.479   5.843
76362SOL    HW230984   9.797  14.503   5.991
76363SOL     OW30985  14.812  14.066   6.698
76363SOL    HW130986  14.764  14.022   6.768
76363SOL    HW230987  14.802  14.160   6.718
76364SOL     OW30988  12.598   1.098   9.669
76364SOL    HW130989  12.525   1.151   9.700
76364SOL    HW230990  12.594   1.018   9.721
76365SOL     OW30991   6.382   1.424  12.547
76365SOL    HW130992   6.464   1.375  12.557
76365SOL    HW230993   6.381   1.486  12.620
76366SOL     OW30994  14.650  10.710  14.876
76366SOL    HW130995  14.647  10.620  14.845
76366SOL    HW230996  14.704  10.756  14.811
76367SOL     OW30997  13.448   0.488   5.550
76367SOL    HW130998  13.353   0.498   5.557
76367SOL    HW230999  13.480   0.506   5.638
76368SOL     OW31000   4.831   4.999   5.240
76368SOL    HW131001   4.809   5.033   5.327
76368SOL    HW231002   4.780   4.918   5.233
76369SOL     OW31003   2.331  12.334   8.824
76369SOL    HW131004   2.283  12.415   8.805
76369SOL    HW231005   2.331  12.328   8.919
76370SOL     OW31006   9.985   5.374   9.956
76370SOL    HW131007  10.079   5.391   9.963
76370SOL    HW231008   9.979   5.292   9.906
76371SOL     OW31009  12.695   8.305   9.659
76371SOL    HW131010  12.722   8.214   9.673
76371SOL    HW231011  12.637   8.302   9.584
76372SOL     OW31012  12.982   5.932   5.476
76372SOL    HW131013  13.067   5.887   5.474
76372SOL    HW231014  12.997   6.009   5.531
76373SOL     OW31015   2.664   5.877  14.855
76373SOL    HW131016   2.732   5.842   0.033
76373SOL    HW231017   2.713   5.918  14.783
76374SOL     OW31018   4.928  14.114  11.727
76374SOL    HW131019   4.976  14.080  11.652
76374SOL    HW231020   4.907  14.204  11.704
76375SOL     OW31021  10.692  12.450  12.099
76375SOL    HW131022  10.623  12.450  12.032
76375SOL    HW231023  10.743  12.371  12.081
76376SOL     OW31024   2.455   2.593   6.650
76376SOL    HW131025   2.537   2.566   6.691
76376SOL    HW231026   2.465   2.569   6.557
76377SOL     OW31027   2.060  10.659  11.193
76377SOL    HW131028   2.120  10.616  11.131
76377SOL    HW231029   1.974  10.654  11.150
76378SOL     OW31030   4.872   4.922   2.520
76378SOL    HW131031   4.804   4.889   2.578
76378SOL    HW231032   4.919   4.988   2.572
76379SOL     OW31033   5.832   7.922  10.080
76379SOL    HW131034   5.840   8.011  10.046
76379SOL    HW231035   5.764   7.881  10.027
76380SOL     OW31036   8.422   7.076   5.873
76380SOL    HW131037   8.334   7.106   5.897
76380SOL    HW231038   8.480   7.148   5.899
76381SOL     OW31039  12.639   0.182   7.683
76381SOL    HW131040  12.636   0.274   7.658
76381SOL    HW231041  12.724   0.151   7.651
76382SOL     OW31042   3.824  14.589   6.719
76382SOL    HW131043   3.743  14.560   6.677
76382SOL    HW231044   3.817  14.557   6.809
76383SOL     OW31045  13.684  13.927   5.055
76383SOL    HW131046  13.683  13.886   4.969
76383SOL    HW231047  13.734  13.867   5.110
76384SOL     OW31048   5.464   6.984  11.939
76384SOL    HW131049   5.476   6.889  11.939
76384SOL    HW231050   5.438   7.005  12.029
76385SOL     OW31051   7.631   9.745  14.830
76385SOL    HW131052   7.567   9.691  14.784
76385SOL    HW231053   7.638   9.825  14.777
76386SOL     OW31054  12.361  11.360   4.788
76386SOL    HW131055  12.354  11.304   4.865
76386SOL    HW231056  12.285  11.337   4.735
76387SOL     OW31057   9.429   1.214  12.749
76387SOL    HW131058   9.496   1.156  12.785
76387SOL    HW231059   9.347   1.183  12.787
76388SOL     OW31060   9.041   3.374   1.469
76388SOL    HW131061   9.091   3.425   1.533
76388SOL    HW231062   9.066   3.410   1.384
76389SOL     OW31063  10.876   1.173  12.979
76389SOL    HW131064  10.903   1.141  12.894
76389SOL    HW231065  10.909   1.263  12.983
76390SOL     OW31066  13.510  12.021  10.779
76390SOL    HW131067  13.473  12.043  10.864
76390SOL    HW231068  13.570  12.094  10.760
76391SOL     OW31069   1.286   8.655   3.821
76391SOL    HW131070   1.254   8.566   3.831
76391SOL    HW231071   1.254   8.701   3.898
76392SOL     OW31072  13.303   3.358   7.540
76392SOL    HW131073  13.255   3.424   7.590
76392SOL    HW231074  13.365   3.408   7.487
76393SOL     OW31075   5.231  14.822   7.526
76393SOL    HW131076   5.142  14.792   7.541
76393SOL    HW231077   5.227  14.867   7.441
76394SOL     OW31078  14.684   2.916   2.547
76394SOL    HW131079  14.595   2.930   2.580
76394SOL    HW231080  14.740   2.965   2.607
76395SOL     OW31081  12.244   7.095   3.890
76395SOL    HW131082  12.259   7.072   3.798
76395SOL    HW231083  12.166   7.150   3.889
76396SOL     OW31084   9.307   9.124   9.143
76396SOL    HW131085   9.268   9.134   9.230
76396SOL    HW231086   9.344   9.036   9.144
76397SOL     OW31087   7.602   2.811  10.529
76397SOL    HW131088   7.554   2.815  10.612
76397SOL    HW231089   7.688   2.847  10.548
76398SOL     OW31090  12.906  14.524  12.840
76398SOL    HW131091  12.829  14.575  12.815
76398SOL    HW231092  12.873  14.434  12.850
76399SOL     OW31093   8.488   0.199   2.642
76399SOL    HW131094   8.492   0.142   2.566
76399SOL    HW231095   8.403   0.181   2.681
76400SOL     OW31096  10.760  12.702   4.122
76400SOL    HW131097  10.678  12.723   4.076
76400SOL    HW231098  10.772  12.775   4.183
76401SOL     OW31099  11.749  13.661  12.181
76401SOL    HW131100  11.745  13.681  12.087
76401SOL    HW231101  11.695  13.728  12.222
76402SOL     OW31102   8.826   8.122   7.833
76402SOL    HW131103   8.817   8.048   7.773
76402SOL    HW231104   8.763   8.187   7.801
76403SOL     OW31105   4.773   0.553   9.773
76403SOL    HW131106   4.819   0.536   9.690
76403SOL    HW231107   4.842   0.557   9.839
76404SOL     OW31108   2.119   1.046  13.061
76404SOL    HW131109   2.045   1.004  13.106
76404SOL    HW231110   2.105   1.026  12.968
76405SOL     OW31111   9.952   5.097  11.151
76405SOL    HW131112   9.997   5.095  11.066
76405SOL    HW231113   9.998   5.166  11.200
76406SOL     OW31114   1.571   2.209  13.037
76406SOL    HW131115   1.662   2.180  13.035
76406SOL    HW231116   1.576   2.304  13.039
76407SOL     OW31117   0.145   9.397   2.895
76407SOL    HW131118   0.219   9.458   2.897
76407SOL    HW231119   0.149   9.352   2.979
76408SOL     OW31120  11.818   1.135  10.752
76408SOL    HW131121  11.883   1.170  10.813
76408SOL    HW231122  11.849   1.047  10.731
76409SOL     OW31123   5.959  14.301   4.973
76409SOL    HW131124   5.894  14.246   4.928
76409SOL    HW231125   5.990  14.247   5.046
76410SOL     OW31126  12.688   4.536  12.278
76410SOL    HW131127  12.653   4.599  12.215
76410SOL    HW231128  12.720   4.463  12.224
76411SOL     OW31129   7.639  13.974  12.136
76411SOL    HW131130   7.577  13.988  12.064
76411SOL    HW231131   7.591  13.917  12.197
76412SOL     OW31132   4.735   1.662   2.288
76412SOL    HW131133   4.667   1.728   2.298
76412SOL    HW231134   4.808   1.709   2.248
76413SOL     OW31135  11.005   8.216  14.553
76413SOL    HW131136  10.982   8.127  14.528
76413SOL    HW231137  11.101   8.218  14.545
76414SOL     OW31138   6.991   2.746  10.957
76414SOL    HW131139   6.960   2.787  10.876
76414SOL    HW231140   7.079   2.782  10.970
76415SOL     OW31141   5.003   0.229   0.611
76415SOL    HW131142   4.953   0.293   0.661
76415SOL    HW231143   4.936   0.175   0.568
76416SOL     OW31144  14.066   4.064   6.824
76416SOL    HW131145  14.151   4.024   6.842
76416SOL    HW231146  14.002   3.999   6.854
76417SOL     OW31147   2.998   7.486   2.241
76417SOL    HW131148   3.025   7.398   2.218
76417SOL    HW231149   3.075   7.525   2.282
76418SOL     OW31150   6.465   6.389   0.816
76418SOL    HW131151   6.414   6.467   0.836
76418SOL    HW231152   6.420   6.349   0.741
76419SOL     OW31153  10.910  10.728  11.284
76419SOL    HW131154  10.958  10.809  11.266
76419SOL    HW231155  10.882  10.736  11.375
76420SOL     OW31156   0.297   8.762  10.804
76420SOL    HW131157   0.294   8.754  10.709
76420SOL    HW231158   0.367   8.825  10.821
76421SOL     OW31159   0.372   3.518  12.312
76421SOL    HW131160   0.339   3.496  12.225
76421SOL    HW231161   0.461   3.483  12.313
76422SOL     OW31162  14.476   9.356  13.367
76422SOL    HW131163  14.547   9.341  13.428
76422SOL    HW231164  14.404   9.300  13.398
76423SOL     OW31165   9.173  11.116   6.627
76423SOL    HW131166   9.091  11.074   6.600
76423SOL    HW231167   9.208  11.059   6.695
76424SOL     OW31168  14.162   2.552   1.268
76424SOL    HW131169  14.251   2.537   1.238
76424SOL    HW231170  14.113   2.575   1.189
76425SOL     OW31171   3.647   8.750   0.210
76425SOL    HW131172   3.727   8.779   0.167
76425SOL    HW231173   3.640   8.806   0.288
76426SOL     OW31174   9.858  12.128   9.621
76426SOL    HW131175   9.915  12.139   9.544
76426SOL    HW231176   9.770  12.142   9.587
76427SOL     OW31177   3.296  14.376   9.669
76427SOL    HW131178   3.350  14.390   9.746
76427SOL    HW231179   3.245  14.457   9.661
76428SOL     OW31180   1.162   7.813  13.924
76428SOL    HW131181   1.210   7.835  14.004
76428SOL    HW231182   1.138   7.898  13.887
76429SOL     OW31183   8.707  12.982   7.296
76429SOL    HW131184   8.653  12.916   7.255
76429SOL    HW231185   8.646  13.052   7.321
76430SOL     OW31186   2.717  13.973   8.912
76430SOL    HW131187   2.805  13.943   8.891
76430SOL    HW231188   2.661  13.935   8.844
76431SOL     OW31189   5.195  12.688   5.890
76431SOL    HW131190   5.102  12.675   5.872
76431SOL    HW231191   5.237  12.686   5.804
76432SOL     OW31192   3.504   9.368   7.426
76432SOL    HW131193   3.465   9.282   7.441
76432SOL    HW231194   3.523   9.369   7.332
76433SOL     OW31195   8.406  10.914  12.769
76433SOL    HW131196   8.360  10.987  12.809
76433SOL    HW231197   8.397  10.841  12.831
76434SOL     OW31198  13.234   5.546   3.449
76434SOL    HW131199  13.175   5.478   3.415
76434SOL    HW231200  13.321   5.505   3.447
76435SOL     OW31201  12.511  14.752   4.221
76435SOL    HW131202  12.521  14.806   4.143
76435SOL    HW231203  12.559  14.671   4.201
76436SOL     OW31204   1.618   5.787   5.880
76436SOL    HW131205   1.658   5.814   5.797
76436SOL    HW231206   1.616   5.691   5.875
76437SOL     OW31207  14.318   0.115  12.114
76437SOL    HW131208  14.351   0.095  12.027
76437SOL    HW231209  14.390   0.160  12.157
76438SOL     OW31210   9.995   1.990  13.067
76438SOL    HW131211   9.922   1.938  13.035
76438SOL    HW231212   9.997   2.067  13.010
76439SOL     OW31213  13.501   2.466   6.100
76439SOL    HW131214  13.588   2.468   6.059
76439SOL    HW231215  13.463   2.552   6.082
76440SOL     OW31216   2.385  13.100   4.734
76440SOL    HW131217   2.355  13.018   4.773
76440SOL    HW231218   2.395  13.080   4.641
76441SOL     OW31219   5.880   9.985   0.247
76441SOL    HW131220   5.848   9.938   0.169
76441SOL    HW231221   5.843  10.072   0.238
76442SOL     OW31222  14.433   6.650  12.513
76442SOL    HW131223  14.500   6.595  12.553
76442SOL    HW231224  14.446   6.736  12.553
76443SOL     OW31225   9.888   7.611  12.256
76443SOL    HW131226   9.971   7.569  12.232
76443SOL    HW231227   9.906   7.655  12.338
76444SOL     OW31228  13.725   6.220   1.627
76444SOL    HW131229  13.699   6.171   1.705
76444SOL    HW231230  13.727   6.154   1.557
76445SOL     OW31231   7.185   0.259   6.484
76445SOL    HW131232   7.223   0.334   6.530
76445SOL    HW231233   7.127   0.218   6.548
76446SOL     OW31234   4.533  13.120   7.651
76446SOL    HW131235   4.605  13.111   7.589
76446SOL    HW231236   4.457  13.141   7.596
76447SOL     OW31237   1.584   9.948  12.808
76447SOL    HW131238   1.562   9.951  12.901
76447SOL    HW231239   1.521  10.007  12.766
76448SOL     OW31240   7.507   0.688  14.677
76448SOL    HW131241   7.601   0.679  14.689
76448SOL    HW231242   7.478   0.745  14.748
76449SOL     OW31243   4.516  10.067  11.474
76449SOL    HW131244   4.540  10.153  11.510
76449SOL    HW231245   4.450  10.087  11.408
76450SOL     OW31246   3.524   9.432   3.202
76450SOL    HW131247   3.619   9.429   3.210
76450SOL    HW231248   3.502   9.356   3.148
76451SOL     OW31249  13.715   5.127   5.414
76451SOL    HW131250  13.796   5.166   5.448
76451SOL    HW231251  13.744   5.048   5.369
76452SOL     OW31252  10.057  13.899   0.568
76452SOL    HW131253  10.110  13.837   0.519
76452SOL    HW231254  10.011  13.950   0.502
76453SOL     OW31255   2.532   6.161  13.231
76453SOL    HW131256   2.607   6.103  13.247
76453SOL    HW231257   2.509   6.197  13.317
76454SOL     OW31258   2.261   5.816   1.667
76454SOL    HW131259   2.341   5.764   1.662
76454SOL    HW231260   2.290   5.906   1.653
76455SOL     OW31261  14.094  11.663   6.131
76455SOL    HW131262  14.008  11.676   6.171
76455SOL    HW231263  14.111  11.569   6.138
76456SOL     OW31264   5.128  14.744   4.750
76456SOL    HW131265   5.214  14.703   4.743
76456SOL    HW231266   5.097  14.750   4.660
76457SOL     OW31267   3.133   1.977  12.517
76457SOL    HW131268   3.125   1.947  12.607
76457SOL    HW231269   3.141   1.898  12.465
76458SOL     OW31270  10.546   1.365   8.213
76458SOL    HW131271  10.464   1.352   8.166
76458SOL    HW231272  10.604   1.297   8.179
76459SOL     OW31273   0.229  13.076  10.102
76459SOL    HW131274   0.304  13.050  10.154
76459SOL    HW231275   0.157  13.084  10.165
76460SOL     OW31276  12.439   7.328   9.466
76460SOL    HW131277  12.431   7.385   9.543
76460SOL    HW231278  12.519   7.278   9.482
76461SOL     OW31279  14.009   5.889  13.439
76461SOL    HW131280  13.978   5.881  13.348
76461SOL    HW231281  14.067   5.965  13.438
76462SOL     OW31282  13.886  10.589   6.698
76462SOL    HW131283  13.800  10.619   6.668
76462SOL    HW231284  13.896  10.630   6.784
76463SOL     OW31285   6.574  11.040   0.376
76463SOL    HW131286   6.619  11.032   0.461
76463SOL    HW231287   6.627  10.986   0.317
76464SOL     OW31288   2.304   3.027   9.177
76464SOL    HW131289   2.312   3.035   9.272
76464SOL    HW231290   2.216   2.991   9.164
76465SOL     OW31291   7.862  10.613  11.631
76465SOL    HW131292   7.811  10.554  11.686
76465SOL    HW231293   7.941  10.631  11.682
76466SOL     OW31294   3.054  12.598  12.315
76466SOL    HW131295   3.099  12.560  12.239
76466SOL    HW231296   3.122  12.600  12.383
76467SOL     OW31297   3.941   4.256  10.088
76467SOL    HW131298   3.891   4.260  10.006
76467SOL    HW231299   4.023   4.212  10.064
76468SOL     OW31300  11.175   5.694   5.891
76468SOL    HW131301  11.183   5.616   5.835
76468SOL    HW231302  11.177   5.767   5.829
76469SOL     OW31303   4.228   6.182   5.355
76469SOL    HW131304   4.205   6.275   5.352
76469SOL    HW231305   4.144   6.136   5.343
76470SOL     OW31306   7.321   8.190  13.104
76470SOL    HW131307   7.325   8.270  13.052
76470SOL    HW231308   7.350   8.121  13.043
76471SOL     OW31309   1.304   8.038   7.826
76471SOL    HW131310   1.224   8.039   7.774
76471SOL    HW231311   1.349   7.958   7.798
76472SOL     OW31312   1.140   9.381   5.325
76472SOL    HW131313   1.160   9.341   5.241
76472SOL    HW231314   1.096   9.312   5.375
76473SOL     OW31315  13.439   1.150   3.554
76473SOL    HW131316  13.533   1.164   3.550
76473SOL    HW231317  13.402   1.225   3.508
76474SOL     OW31318   6.999  12.887  12.765
76474SOL    HW131319   6.952  12.907  12.846
76474SOL    HW231320   7.046  12.806  12.784
76475SOL     OW31321   5.167   3.885   0.606
76475SOL    HW131322   5.224   3.871   0.682
76475SOL    HW231323   5.139   3.797   0.580
76476SOL     OW31324   8.131   6.188  10.899
76476SOL    HW131325   8.077   6.255  10.857
76476SOL    HW231326   8.077   6.109  10.897
76477SOL     OW31327  13.117   6.225   8.191
76477SOL    HW131328  13.156   6.310   8.169
76477SOL    HW231329  13.036   6.223   8.142
76478SOL     OW31330   7.021   8.874   0.189
76478SOL    HW131331   7.034   8.790   0.234
76478SOL    HW231332   7.093   8.880   0.127
76479SOL     OW31333  12.294   4.174   3.347
76479SOL    HW131334  12.202   4.169   3.324
76479SOL    HW231335  12.297   4.229   3.425
76480SOL     OW31336   1.155   8.836  12.004
76480SOL    HW131337   1.062   8.862  12.009
76480SOL    HW231338   1.162   8.759  12.060
76481SOL     OW31339  12.665   4.366   9.151
76481SOL    HW131340  12.690   4.428   9.220
76481SOL    HW231341  12.575   4.389   9.129
76482SOL     OW31342   7.709   0.161   9.948
76482SOL    HW131343   7.794   0.187   9.985
76482SOL    HW231344   7.730   0.127   9.861
76483SOL     OW31345   4.233   4.169   4.602
76483SOL    HW131346   4.180   4.145   4.678
76483SOL    HW231347   4.319   4.188   4.638
76484SOL     OW31348   5.800  12.768   5.902
76484SOL    HW131349   5.767  12.680   5.921
76484SOL    HW231350   5.842  12.760   5.817
76485SOL     OW31351   7.079   4.274   7.351
76485SOL    HW131352   7.056   4.365   7.335
76485SOL    HW231353   6.999   4.225   7.335
76486SOL     OW31354  10.069   7.424   2.699
76486SOL    HW131355  10.137   7.475   2.654
76486SOL    HW231356  10.049   7.351   2.640
76487SOL     OW31357  12.503   5.732   5.748
76487SOL    HW131358  12.588   5.745   5.707
76487SOL    HW231359  12.440   5.742   5.676
76488SOL     OW31360   6.985   3.926   0.402
76488SOL    HW131361   6.955   4.010   0.436
76488SOL    HW231362   6.922   3.862   0.436
76489SOL     OW31363   3.813   0.004   4.452
76489SOL    HW131364   3.822  14.862   4.545
76489SOL    HW231365   3.896  14.857   4.413
76490SOL     OW31366   8.544   7.232   9.509
76490SOL    HW131367   8.564   7.246   9.601
76490SOL    HW231368   8.457   7.271   9.497
76491SOL     OW31369   2.117   2.769   5.074
76491SOL    HW131370   2.181   2.701   5.099
76491SOL    HW231371   2.163   2.852   5.089
76492SOL     OW31372   3.755   8.387  10.389
76492SOL    HW131373   3.690   8.321  10.414
76492SOL    HW231374   3.708   8.470  10.394
76493SOL     OW31375   9.102   0.965   2.180
76493SOL    HW131376   9.057   0.881   2.192
76493SOL    HW231377   9.055   1.026   2.237
76494SOL     OW31378  13.682   6.361   8.268
76494SOL    HW131379  13.617   6.430   8.255
76494SOL    HW231380  13.758   6.389   8.216
76495SOL     OW31381   3.181  12.952  12.209
76495SOL    HW131382   3.193  12.928  12.301
76495SOL    HW231383   3.208  12.874  12.160
76496SOL     OW31384   6.339  13.764  14.621
76496SOL    HW131385   6.369  13.847  14.657
76496SOL    HW231386   6.278  13.789  14.551
76497SOL     OW31387  11.471  12.452   6.002
76497SOL    HW131388  11.488  12.510   6.077
76497SOL    HW231389  11.529  12.377   6.017
76498SOL     OW31390   8.771   7.252   0.781
76498SOL    HW131391   8.814   7.337   0.777
76498SOL    HW231392   8.683   7.268   0.747
76499SOL     OW31393   7.802   5.722   7.251
76499SOL    HW131394   7.807   5.627   7.262
76499SOL    HW231395   7.752   5.752   7.326
76500SOL     OW31396  13.022  13.568   6.171
76500SOL    HW131397  12.945  13.556   6.227
76500SOL    HW231398  13.074  13.489   6.184
76501SOL     OW31399  12.082   4.812   5.239
76501SOL    HW131400  12.155   4.753   5.258
76501SOL    HW231401  12.009   4.778   5.291
76502SOL     OW31402  13.013  11.522  12.490
76502SOL    HW131403  13.030  11.612  12.518
76502SOL    HW231404  12.919  11.510  12.503
76503SOL     OW31405  12.079   4.209  11.879
76503SOL    HW131406  12.056   4.206  11.786
76503SOL    HW231407  12.111   4.120  11.898
76504SOL     OW31408   5.900  12.055   4.668
76504SOL    HW131409   5.853  12.131   4.635
76504SOL    HW231410   5.832  11.992   4.690
76505SOL     OW31411   2.346  14.443  10.707
76505SOL    HW131412   2.332  14.399  10.623
76505SOL    HW231413   2.411  14.511  10.688
76506SOL     OW31414   6.088  13.239   3.168
76506SOL    HW131415   5.997  13.266   3.178
76506SOL    HW231416   6.123  13.296   3.100
76507SOL     OW31417   7.220  11.978   5.057
76507SOL    HW131418   7.269  12.055   5.031
76507SOL    HW231419   7.166  11.957   4.981
76508SOL     OW31420   0.989   5.735   3.996
76508SOL    HW131421   1.001   5.794   4.071
76508SOL    HW231422   1.023   5.784   3.921
76509SOL     OW31423   9.330  11.316   0.787
76509SOL    HW131424   9.287  11.267   0.856
76509SOL    HW231425   9.305  11.272   0.706
76510SOL     OW31426   1.604   3.355  10.974
76510SOL    HW131427   1.698   3.371  10.975
76510SOL    HW231428   1.565   3.440  10.955
76511SOL     OW31429   6.231  10.223   0.176
76511SOL    HW131430   6.283  10.292   0.137
76511SOL    HW231431   6.189  10.179   0.102
76512SOL     OW31432   2.998  11.654   9.572
76512SOL    HW131433   2.916  11.605   9.574
76512SOL    HW231434   3.039  11.628   9.489
76513SOL     OW31435  13.665  11.220   4.229
76513SOL    HW131436  13.695  11.129   4.219
76513SOL    HW231437  13.722  11.257   4.295
76514SOL     OW31438   9.535   4.920   1.509
76514SOL    HW131439   9.453   4.928   1.559
76514SOL    HW231440   9.532   4.993   1.447
76515SOL     OW31441   4.469   8.699  13.497
76515SOL    HW131442   4.465   8.605  13.512
76515SOL    HW231443   4.391   8.734  13.541
76516SOL     OW31444   9.669   4.549   2.052
76516SOL    HW131445   9.668   4.512   1.964
76516SOL    HW231446   9.757   4.587   2.061
76517SOL     OW31447   0.385   6.450   8.318
76517SOL    HW131448   0.421   6.517   8.259
76517SOL    HW231449   0.449   6.444   8.389
76518SOL     OW31450   8.885   8.520   9.973
76518SOL    HW131451   8.804   8.547   9.930
76518SOL    HW231452   8.879   8.556  10.061
76519SOL     OW31453  12.998  14.050  13.311
76519SOL    HW131454  12.904  14.062  13.324
76519SOL    HW231455  13.006  14.026  13.219
76520SOL     OW31456   2.575   4.168  13.078
76520SOL    HW131457   2.647   4.231  13.084
76520SOL    HW231458   2.617   4.083  13.084
76521SOL     OW31459   8.516   9.298   3.845
76521SOL    HW131460   8.424   9.289   3.819
76521SOL    HW231461   8.519   9.378   3.898
76522SOL     OW31462   0.117  12.967   0.774
76522SOL    HW131463   0.158  12.882   0.756
76522SOL    HW231464   0.190  13.023   0.800
76523SOL     OW31465   5.832   3.013   1.663
76523SOL    HW131466   5.836   3.055   1.577
76523SOL    HW231467   5.920   3.022   1.699
76524SOL     OW31468  12.133   2.680  14.474
76524SOL    HW131469  12.066   2.647  14.415
76524SOL    HW231470  12.118   2.775  14.478
76525SOL     OW31471   1.810   3.947  12.782
76525SOL    HW131472   1.804   3.980  12.872
76525SOL    HW231473   1.898   3.910  12.776
76526SOL     OW31474   3.876   9.983  10.356
76526SOL    HW131475   3.850   9.892  10.345
76526SOL    HW231476   3.900   9.991  10.448
76527SOL     OW31477   9.681   0.661   8.687
76527SOL    HW131478   9.688   0.754   8.665
76527SOL    HW231479   9.643   0.621   8.609
76528SOL     OW31480   1.308  10.409   1.268
76528SOL    HW131481   1.397  10.424   1.300
76528SOL    HW231482   1.255  10.471   1.318
76529SOL     OW31483  10.984   2.807   2.046
76529SOL    HW131484  10.939   2.770   1.971
76529SOL    HW231485  11.073   2.774   2.040
76530SOL     OW31486   6.525   6.328   0.239
76530SOL    HW131487   6.502   6.346   0.330
76530SOL    HW231488   6.454   6.272   0.207
76531SOL     OW31489   9.256   0.033   0.809
76531SOL    HW131490   9.249  14.878   0.897
76531SOL    HW231491   9.348   0.021   0.785
76532SOL     OW31492   5.166   4.327   5.432
76532SOL    HW131493   5.192   4.277   5.354
76532SOL    HW231494   5.236   4.391   5.443
76533SOL     OW31495   5.470  14.612   3.092
76533SOL    HW131496   5.460  14.547   3.162
76533SOL    HW231497   5.517  14.684   3.133
76534SOL     OW31498  12.567  11.338  12.821
76534SOL    HW131499  12.558  11.433  12.811
76534SOL    HW231500  12.502  11.301  12.761
76535SOL     OW31501  12.825  12.525   1.761
76535SOL    HW131502  12.864  12.604   1.799
76535SOL    HW231503  12.778  12.556   1.684
76536SOL     OW31504   7.324  10.471  10.171
76536SOL    HW131505   7.275  10.542  10.129
76536SOL    HW231506   7.276  10.453  10.251
76537SOL     OW31507   7.609   9.465   5.026
76537SOL    HW131508   7.568   9.380   5.009
76537SOL    HW231509   7.546   9.511   5.082
76538SOL     OW31510   3.587   4.762  13.272
76538SOL    HW131511   3.668   4.788  13.317
76538SOL    HW231512   3.518   4.812  13.317
76539SOL     OW31513   3.204   8.975   3.046
76539SOL    HW131514   3.184   9.066   3.067
76539SOL    HW231515   3.257   8.945   3.120
76540SOL     OW31516  12.188   4.558   2.915
76540SOL    HW131517  12.101   4.554   2.876
76540SOL    HW231518  12.195   4.479   2.968
76541SOL     OW31519   5.357   1.810   8.856
76541SOL    HW131520   5.366   1.893   8.809
76541SOL    HW231521   5.304   1.831   8.933
76542SOL     OW31522  10.494  11.184   2.851
76542SOL    HW131523  10.569  11.189   2.911
76542SOL    HW231524  10.431  11.246   2.887
76543SOL     OW31525   4.442  14.156   7.697
76543SOL    HW131526   4.464  14.065   7.717
76543SOL    HW231527   4.524  14.193   7.664
76544SOL     OW31528   9.444   1.751   6.509
76544SOL    HW131529   9.516   1.790   6.557
76544SOL    HW231530   9.365   1.787   6.549
76545SOL     OW31531   7.935   2.928  11.267
76545SOL    HW131532   7.983   2.845  11.267
76545SOL    HW231533   7.859   2.911  11.212
76546SOL     OW31534   5.940   1.714   2.489
76546SOL    HW131535   5.920   1.643   2.429
76546SOL    HW231536   5.856   1.736   2.530
76547SOL     OW31537   0.671  14.461  14.827
76547SOL    HW131538   0.745  14.401  14.814
76547SOL    HW231539   0.626  14.427   0.024
76548SOL     OW31540   2.844   8.575   3.976
76548SOL    HW131541   2.753   8.565   4.005
76548SOL    HW231542   2.837   8.583   3.881
76549SOL     OW31543   4.891   6.304   2.805
76549SOL    HW131544   4.930   6.243   2.742
76549SOL    HW231545   4.858   6.376   2.752
76550SOL     OW31546   0.531   3.413  14.685
76550SOL    HW131547   0.519   3.372  14.771
76550SOL    HW231548   0.608   3.468  14.695
76551SOL     OW31549  11.370   1.754   5.204
76551SOL    HW131550  11.427   1.825   5.235
76551SOL    HW231551  11.430   1.689   5.168
76552SOL     OW31552   2.751  13.921  11.944
76552SOL    HW131553   2.820  13.966  11.992
76552SOL    HW231554   2.758  13.956  11.855
76553SOL     OW31555   8.892   0.254  14.659
76553SOL    HW131556   8.971   0.201  14.653
76553SOL    HW231557   8.921   0.341  14.632
76554SOL     OW31558  13.389   7.166   3.911
76554SOL    HW131559  13.355   7.122   3.833
76554SOL    HW231560  13.337   7.131   3.983
76555SOL     OW31561   3.008   6.401   3.605
76555SOL    HW131562   2.986   6.392   3.512
76555SOL    HW231563   3.075   6.468   3.607
76556SOL     OW31564   3.065   6.273   9.121
76556SOL    HW131565   3.159   6.289   9.108
76556SOL    HW231566   3.034   6.243   9.035
76557SOL     OW31567   2.181  12.268  14.154
76557SOL    HW131568   2.192  12.363  14.159
76557SOL    HW231569   2.166  12.250  14.061
76558SOL     OW31570   2.424  10.907   9.598
76558SOL    HW131571   2.343  10.914   9.547
76558SOL    HW231572   2.444  10.813   9.596
76559SOL     OW31573   5.093  13.801   3.874
76559SOL    HW131574   5.082  13.827   3.965
76559SOL    HW231575   5.010  13.822   3.832
76560SOL     OW31576   5.947  10.794   3.427
76560SOL    HW131577   5.913  10.839   3.350
76560SOL    HW231578   5.889  10.718   3.437
76561SOL     OW31579   8.628   0.191   1.681
76561SOL    HW131580   8.624   0.280   1.715
76561SOL    HW231581   8.658   0.201   1.591
76562SOL     OW31582   1.322   4.667   2.354
76562SOL    HW131583   1.393   4.603   2.360
76562SOL    HW231584   1.348   4.737   2.414
76563SOL     OW31585  12.471   4.966  12.019
76563SOL    HW131586  12.430   4.984  12.104
76563SOL    HW231587  12.454   4.873  12.004
76564SOL     OW31588   1.309   4.170   9.379
76564SOL    HW131589   1.375   4.105   9.400
76564SOL    HW231590   1.325   4.191   9.287
76565SOL     OW31591   2.480  11.052  10.549
76565SOL    HW131592   2.522  11.136  10.531
76565SOL    HW231593   2.387  11.074  10.557
76566SOL     OW31594  11.803   9.305   5.367
76566SOL    HW131595  11.870   9.320   5.300
76566SOL    HW231596  11.848   9.323   5.450
76567SOL     OW31597   1.830   9.145  14.215
76567SOL    HW131598   1.860   9.195  14.139
76567SOL    HW231599   1.773   9.207  14.262
76568SOL     OW31600   7.715   7.459   8.624
76568SOL    HW131601   7.641   7.504   8.665
76568SOL    HW231602   7.781   7.455   8.693
76569SOL     OW31603  14.133  13.057   6.203
76569SOL    HW131604  14.168  13.111   6.274
76569SOL    HW231605  14.045  13.092   6.188
76570SOL     OW31606   0.264   4.196   3.754
76570SOL    HW131607   0.286   4.107   3.727
76570SOL    HW231608   0.289   4.250   3.679
76571SOL     OW31609   9.899  12.081  12.061
76571SOL    HW131610   9.905  12.173  12.088
76571SOL    HW231611   9.988  12.058  12.034
76572SOL     OW31612  13.747   6.885  13.284
76572SOL    HW131613  13.672   6.831  13.311
76572SOL    HW231614  13.710   6.947  13.222
76573SOL     OW31615   8.646  12.318  11.066
76573SOL    HW131616   8.554  12.305  11.090
76573SOL    HW231617   8.677  12.386  11.126
76574SOL     OW31618   4.595  14.002  12.818
76574SOL    HW131619   4.663  13.984  12.754
76574SOL    HW231620   4.641  14.002  12.902
76575SOL     OW31621   2.662   7.625   2.037
76575SOL    HW131622   2.613   7.666   1.967
76575SOL    HW231623   2.749   7.664   2.032
76576SOL     OW31624   9.482   9.106  12.270
76576SOL    HW131625   9.567   9.069  12.250
76576SOL    HW231626   9.425   9.030  12.284
76577SOL     OW31627  11.012  11.346  13.507
76577SOL    HW131628  11.033  11.425  13.557
76577SOL    HW231629  11.077  11.343  13.438
76578SOL     OW31630  14.467  11.095   3.870
76578SOL    HW131631  14.419  11.125   3.793
76578SOL    HW231632  14.480  11.174   3.922
76579SOL     OW31633   6.174   0.686  10.895
76579SOL    HW131634   6.241   0.673  10.828
76579SOL    HW231635   6.211   0.754  10.952
76580SOL     OW31636   4.162   6.664   4.169
76580SOL    HW131637   4.156   6.681   4.075
76580SOL    HW231638   4.118   6.739   4.210
76581SOL     OW31639   3.841   2.221   8.547
76581SOL    HW131640   3.912   2.274   8.583
76581SOL    HW231641   3.875   2.188   8.464
76582SOL     OW31642   1.366   7.193  13.543
76582SOL    HW131643   1.435   7.234  13.492
76582SOL    HW231644   1.367   7.241  13.626
76583SOL     OW31645   7.697   1.173   8.847
76583SOL    HW131646   7.751   1.242   8.886
76583SOL    HW231647   7.712   1.182   8.752
76584SOL     OW31648   4.988   8.065  10.000
76584SOL    HW131649   5.052   8.101  10.062
76584SOL    HW231650   4.963   8.139   9.945
76585SOL     OW31651   1.820  12.326  10.129
76585SOL    HW131652   1.861  12.390  10.071
76585SOL    HW231653   1.873  12.329  10.209
76586SOL     OW31654   3.654  12.735  14.828
76586SOL    HW131655   3.566  12.714  14.799
76586SOL    HW231656   3.691  12.787  14.757
76587SOL     OW31657   4.837  13.462   0.456
76587SOL    HW131658   4.932  13.474   0.452
76587SOL    HW231659   4.800  13.545   0.427
76588SOL     OW31660   7.866   0.766   4.001
76588SOL    HW131661   7.848   0.856   3.977
76588SOL    HW231662   7.853   0.763   4.096
76589SOL     OW31663   0.591  11.155   6.302
76589SOL    HW131664   0.662  11.156   6.237
76589SOL    HW231665   0.512  11.139   6.251
76590SOL     OW31666   7.571   3.506   0.774
76590SOL    HW131667   7.481   3.478   0.787
76590SOL    HW231668   7.597   3.542   0.859
76591SOL     OW31669   8.534   8.607   3.893
76591SOL    HW131670   8.489   8.554   3.959
76591SOL    HW231671   8.588   8.668   3.943
76592SOL     OW31672  11.594   4.946   6.274
76592SOL    HW131673  11.561   4.856   6.277
76592SOL    HW231674  11.517   4.999   6.253
76593SOL     OW31675   9.753  14.020   4.490
76593SOL    HW131676   9.837  14.059   4.468
76593SOL    HW231677   9.710  14.007   4.405
76594SOL     OW31678   9.811  13.894  12.928
76594SOL    HW131679   9.849  13.855  12.849
76594SOL    HW231680   9.844  13.984  12.928
76595SOL     OW31681   2.808   2.612   3.106
76595SOL    HW131682   2.724   2.576   3.076
76595SOL    HW231683   2.873   2.548   3.076
76596SOL     OW31684   7.959   7.184   2.621
76596SOL    HW131685   7.979   7.269   2.582
76596SOL    HW231686   7.884   7.151   2.571
76597SOL     OW31687  12.361  13.965   9.234
76597SOL    HW131688  12.426  14.031   9.210
76597SOL    HW231689  12.291  14.014   9.277
76598SOL     OW31690  12.428  10.254   4.037
76598SOL    HW131691  12.471  10.190   3.980
76598SOL    HW231692  12.334  10.240   4.022
76599SOL     OW31693   1.960   3.142  10.254
76599SOL    HW131694   1.915   3.140  10.169
76599SOL    HW231695   1.930   3.223  10.295
76600SOL     OW31696  11.147   6.908  14.298
76600SOL    HW131697  11.111   6.932  14.384
76600SOL    HW231698  11.239   6.890  14.315
76601SOL     OW31699   5.006   6.828   5.306
76601SOL    HW131700   5.052   6.906   5.336
76601SOL    HW231701   4.937   6.815   5.371
76602SOL     OW31702   7.819  12.622   7.327
76602SOL    HW131703   7.815  12.605   7.421
76602SOL    HW231704   7.750  12.686   7.311
76603SOL     OW31705  10.194   2.905   5.477
76603SOL    HW131706  10.206   2.936   5.387
76603SOL    HW231707  10.150   2.821   5.468
76604SOL     OW31708   9.172   1.678  11.756
76604SOL    HW131709   9.200   1.769  11.758
76604SOL    HW231710   9.096   1.675  11.815
76605SOL     OW31711  13.457  11.130   1.233
76605SOL    HW131712  13.541  11.090   1.254
76605SOL    HW231713  13.437  11.185   1.309
76606SOL     OW31714   2.865   0.929   6.602
76606SOL    HW131715   2.878   0.839   6.631
76606SOL    HW231716   2.771   0.936   6.585
76607SOL     OW31717   0.564   3.107  10.094
76607SOL    HW131718   0.617   3.110  10.174
76607SOL    HW231719   0.581   3.190  10.050
76608SOL     OW31720   8.556   4.673   3.268
76608SOL    HW131721   8.582   4.608   3.202
76608SOL    HW231722   8.460   4.672   3.264
76609SOL     OW31723   2.508  11.169   6.131
76609SOL    HW131724   2.480  11.232   6.065
76609SOL    HW231725   2.603  11.180   6.136
76610SOL     OW31726  11.676   9.156   3.476
76610SOL    HW131727  11.659   9.087   3.541
76610SOL    HW231728  11.768   9.180   3.490
76611SOL     OW31729  14.172  12.991  14.734
76611SOL    HW131730  14.195  12.923  14.797
76611SOL    HW231731  14.084  12.967  14.704
76612SOL     OW31732   6.715   8.762  10.838
76612SOL    HW131733   6.626   8.783  10.867
76612SOL    HW231734   6.765   8.842  10.854
76613SOL     OW31735   4.005   0.643  10.071
76613SOL    HW131736   3.958   0.725  10.055
76613SOL    HW231737   3.947   0.593  10.128
76614SOL     OW31738   2.671   7.329   7.736
76614SOL    HW131739   2.643   7.397   7.675
76614SOL    HW231740   2.767   7.329   7.731
76615SOL     OW31741   9.813   4.059  10.745
76615SOL    HW131742   9.854   4.143  10.766
76615SOL    HW231743   9.791   4.021  10.830
76616SOL     OW31744  11.574   2.678   9.150
76616SOL    HW131745  11.595   2.588   9.125
76616SOL    HW231746  11.499   2.670   9.209
76617SOL     OW31747   4.703  11.948  10.273
76617SOL    HW131748   4.696  11.894  10.352
76617SOL    HW231749   4.732  12.033  10.306
76618SOL     OW31750   1.129  13.610  14.012
76618SOL    HW131751   1.117  13.570  13.925
76618SOL    HW231752   1.221  13.596  14.032
76619SOL     OW31753  13.073   4.088   2.194
76619SOL    HW131754  13.065   3.994   2.205
76619SOL    HW231755  13.129   4.099   2.118
76620SOL     OW31756   4.715   2.636   2.980
76620SOL    HW131757   4.754   2.550   2.965
76620SOL    HW231758   4.711   2.675   2.893
76621SOL     OW31759  10.799  14.057   8.262
76621SOL    HW131760  10.881  14.095   8.231
76621SOL    HW231761  10.752  14.033   8.182
76622SOL     OW31762   5.488   2.020   6.954
76622SOL    HW131763   5.528   2.105   6.935
76622SOL    HW231764   5.510   1.966   6.878
76623SOL     OW31765   2.766   8.118  11.115
76623SOL    HW131766   2.794   8.028  11.133
76623SOL    HW231767   2.753   8.121  11.020
76624SOL     OW31768  11.662   8.161   2.042
76624SOL    HW131769  11.755   8.166   2.064
76624SOL    HW231770  11.624   8.240   2.081
76625SOL     OW31771   1.758   3.258   3.670
76625SOL    HW131772   1.705   3.187   3.634
76625SOL    HW231773   1.695   3.317   3.711
76626SOL     OW31774   3.409  14.110   1.775
76626SOL    HW131775   3.362  14.126   1.857
76626SOL    HW231776   3.499  14.138   1.792
76627SOL     OW31777   0.396   2.103   4.592
76627SOL    HW131778   0.403   2.017   4.551
76627SOL    HW231779   0.343   2.154   4.531
76628SOL     OW31780   2.675  13.958   7.553
76628SOL    HW131781   2.690  13.864   7.561
76628SOL    HW231782   2.599  13.975   7.609
76629SOL     OW31783  11.360  11.864   0.646
76629SOL    HW131784  11.342  11.798   0.578
76629SOL    HW231785  11.448  11.844   0.676
76630SOL     OW31786   8.592  14.558   6.902
76630SOL    HW131787   8.668  14.614   6.881
76630SOL    HW231788   8.516  14.613   6.882
76631SOL     OW31789   5.273   0.729   4.505
76631SOL    HW131790   5.356   0.770   4.482
76631SOL    HW231791   5.246   0.772   4.586
76632SOL     OW31792   3.425   4.829  14.498
76632SOL    HW131793   3.343   4.873  14.520
76632SOL    HW231794   3.409   4.789  14.412
76633SOL     OW31795  11.500   2.726  13.557
76633SOL    HW131796  11.485   2.632  13.563
76633SOL    HW231797  11.588   2.739  13.594
76634SOL     OW31798   6.725   1.358   1.462
76634SOL    HW131799   6.779   1.349   1.541
76634SOL    HW231800   6.674   1.277   1.459
76635SOL     OW31801   1.564  13.070  12.599
76635SOL    HW131802   1.493  13.130  12.580
76635SOL    HW231803   1.532  12.985  12.568
76636SOL     OW31804   8.676   5.735   8.894
76636SOL    HW131805   8.608   5.774   8.949
76636SOL    HW231806   8.631   5.665   8.848
76637SOL     OW31807  14.849  11.977  11.715
76637SOL    HW131808  14.780  11.928  11.670
76637SOL    HW231809   0.012  11.912  11.770
76638SOL     OW31810  11.739   4.956  14.808
76638SOL    HW131811  11.745   5.050  14.825
76638SOL    HW231812  11.826   4.932  14.777
76639SOL     OW31813  13.965   2.155   4.272
76639SOL    HW131814  14.038   2.132   4.329
76639SOL    HW231815  13.998   2.141   4.183
76640SOL     OW31816  14.202   0.875  10.874
76640SOL    HW131817  14.228   0.960  10.838
76640SOL    HW231818  14.218   0.813  10.802
76641SOL     OW31819   4.315   5.950   2.017
76641SOL    HW131820   4.328   6.014   1.947
76641SOL    HW231821   4.376   5.977   2.086
76642SOL     OW31822   7.398   1.456  14.473
76642SOL    HW131823   7.490   1.476  14.453
76642SOL    HW231824   7.403   1.392  14.544
76643SOL     OW31825   5.294   5.845   4.492
76643SOL    HW131826   5.259   5.838   4.581
76643SOL    HW231827   5.216   5.849   4.436
76644SOL     OW31828  10.368   5.867  12.355
76644SOL    HW131829  10.423   5.860  12.433
76644SOL    HW231830  10.281   5.891  12.388
76645SOL     OW31831   1.440   1.129   2.970
76645SOL    HW131832   1.456   1.100   2.880
76645SOL    HW231833   1.408   1.051   3.015
76646SOL     OW31834   2.738  10.072  14.394
76646SOL    HW131835   2.699  10.014  14.329
76646SOL    HW231836   2.757  10.152  14.346
76647SOL     OW31837   7.939   6.509   9.494
76647SOL    HW131838   7.872   6.570   9.465
76647SOL    HW231839   7.895   6.425   9.498
76648SOL     OW31840   2.911  14.823   7.032
76648SOL    HW131841   2.841  14.791   6.975
76648SOL    HW231842   2.961  14.745   7.054
76649SOL     OW31843   4.783   6.311  12.017
76649SOL    HW131844   4.806   6.226  12.053
76649SOL    HW231845   4.748   6.291  11.930
76650SOL     OW31846  10.951  11.924  13.227
76650SOL    HW131847  10.899  11.845  13.215
76650SOL    HW231848  10.904  11.991  13.177
76651SOL     OW31849   4.825  10.858  12.254
76651SOL    HW131850   4.890  10.816  12.198
76651SOL    HW231851   4.876  10.903  12.321
76652SOL     OW31852   4.225   2.945   2.040
76652SOL    HW131853   4.197   3.028   2.002
76652SOL    HW231854   4.228   2.885   1.966
76653SOL     OW31855   0.332   6.586   2.464
76653SOL    HW131856   0.251   6.537   2.481
76653SOL    HW231857   0.324   6.665   2.516
76654SOL     OW31858   9.878  10.701   9.361
76654SOL    HW131859   9.939  10.657   9.421
76654SOL    HW231860   9.869  10.789   9.398
76655SOL     OW31861  13.032   6.384   9.993
76655SOL    HW131862  13.125   6.404   9.988
76655SOL    HW231863  13.024   6.327  10.069
76656SOL     OW31864  12.947   8.289   1.907
76656SOL    HW131865  12.981   8.255   1.825
76656SOL    HW231866  12.934   8.212   1.962
76657SOL     OW31867   0.528   7.910   3.193
76657SOL    HW131868   0.444   7.937   3.155
76657SOL    HW231869   0.584   7.987   3.185
76658SOL     OW31870   1.955  11.709   0.236
76658SOL    HW131871   1.984  11.785   0.286
76658SOL    HW231872   1.979  11.634   0.289
76659SOL     OW31873   3.475   2.744   3.520
76659SOL    HW131874   3.399   2.794   3.550
76659SOL    HW231875   3.478   2.668   3.578
76660SOL     OW31876   7.390   6.608  14.797
76660SOL    HW131877   7.384   6.518  14.768
76660SOL    HW231878   7.484   6.625  14.804
76661SOL     OW31879   8.679   5.479   1.497
76661SOL    HW131880   8.661   5.438   1.412
76661SOL    HW231881   8.600   5.531   1.515
76662SOL     OW31882   4.348   6.623   0.890
76662SOL    HW131883   4.270   6.580   0.855
76662SOL    HW231884   4.344   6.605   0.984
76663SOL     OW31885   0.830   1.620  10.748
76663SOL    HW131886   0.815   1.691  10.686
76663SOL    HW231887   0.895   1.563  10.706
76664SOL     OW31888   9.645   5.991   7.754
76664SOL    HW131889   9.568   5.936   7.762
76664SOL    HW231890   9.718   5.933   7.773
76665SOL     OW31891  12.884  10.805   4.092
76665SOL    HW131892  12.817  10.843   4.035
76665SOL    HW231893  12.836  10.780   4.171
76666SOL     OW31894   4.353   4.903   8.863
76666SOL    HW131895   4.390   4.959   8.931
76666SOL    HW231896   4.260   4.895   8.886
76667SOL     OW31897   3.649   3.644  11.878
76667SOL    HW131898   3.676   3.722  11.829
76667SOL    HW231899   3.589   3.677  11.945
76668SOL     OW31900   0.503   8.675  13.295
76668SOL    HW131901   0.479   8.689  13.386
76668SOL    HW231902   0.598   8.687  13.292
76669SOL     OW31903   0.963   6.475   8.910
76669SOL    HW131904   0.918   6.558   8.896
76669SOL    HW231905   0.971   6.437   8.823
76670SOL     OW31906  13.341   7.825  13.978
76670SOL    HW131907  13.413   7.810  14.039
76670SOL    HW231908  13.383   7.839  13.893
76671SOL     OW31909  11.359   1.016   8.797
76671SOL    HW131910  11.288   1.080   8.785
76671SOL    HW231911  11.389   0.997   8.708
76672SOL     OW31912   3.269   7.404   9.056
76672SOL    HW131913   3.338   7.349   9.094
76672SOL    HW231914   3.260   7.477   9.118
76673SOL     OW31915   0.914  14.703   7.451
76673SOL    HW131916   0.829  14.665   7.470
76673SOL    HW231917   0.895  14.779   7.396
76674SOL     OW31918   7.173  14.791   5.829
76674SOL    HW131919   7.169   0.000   5.797
76674SOL    HW231920   7.084  14.771   5.857
76675SOL     OW31921   9.141   3.449   7.818
76675SOL    HW131922   9.147   3.359   7.849
76675SOL    HW231923   9.182   3.501   7.888
76676SOL     OW31924   4.506  11.729  12.408
76676SOL    HW131925   4.523  11.698  12.318
76676SOL    HW231926   4.431  11.677  12.437
76677SOL     OW31927   7.227  12.104   0.023
76677SOL    HW131928   7.146  12.103  14.852
76677SOL    HW231929   7.254  12.196   0.022
76678SOL     OW31930   2.881   7.616   5.262
76678SOL    HW131931   2.855   7.574   5.345
76678SOL    HW231932   2.902   7.544   5.204
76679SOL     OW31933   3.249   5.211   0.431
76679SOL    HW131934   3.209   5.189   0.515
76679SOL    HW231935   3.340   5.182   0.439
76680SOL     OW31936   2.363   6.389   1.127
76680SOL    HW131937   2.396   6.434   1.049
76680SOL    HW231938   2.310   6.317   1.093
76681SOL     OW31939   8.413  13.819   0.965
76681SOL    HW131940   8.340  13.762   0.939
76681SOL    HW231941   8.491  13.767   0.947
76682SOL     OW31942  11.495   8.889  14.717
76682SOL    HW131943  11.499   8.974  14.761
76682SOL    HW231944  11.572   8.886  14.661
76683SOL     OW31945  11.571  12.401   1.014
76683SOL    HW131946  11.500  12.417   0.952
76683SOL    HW231947  11.576  12.306   1.021
76684SOL     OW31948  12.110   1.834   8.022
76684SOL    HW131949  12.196   1.851   7.983
76684SOL    HW231950  12.109   1.885   8.103
76685SOL     OW31951   4.087   1.239   4.652
76685SOL    HW131952   4.049   1.227   4.738
76685SOL    HW231953   4.153   1.307   4.664
76686SOL     OW31954  13.926   2.515  11.359
76686SOL    HW131955  13.983   2.558  11.422
76686SOL    HW231956  13.972   2.522  11.276
76687SOL     OW31957   0.093   2.079  14.677
76687SOL    HW131958   0.029   2.111  14.741
76687SOL    HW231959   0.178   2.099  14.716
76688SOL     OW31960   8.398   5.707   3.808
76688SOL    HW131961   8.351   5.758   3.874
76688SOL    HW231962   8.363   5.619   3.817
76689SOL     OW31963   8.624   7.153   4.352
76689SOL    HW131964   8.584   7.167   4.438
76689SOL    HW231965   8.615   7.059   4.336
76690SOL     OW31966   0.566  13.183  10.284
76690SOL    HW131967   0.608  13.188  10.370
76690SOL    HW231968   0.534  13.272  10.267
76691SOL     OW31969  10.915  13.534  13.704
76691SOL    HW131970  10.869  13.473  13.646
76691SOL    HW231971  11.004  13.537  13.669
76692SOL     OW31972   1.276   2.053  11.944
76692SOL    HW131973   1.317   1.973  11.910
76692SOL    HW231974   1.302   2.056  12.036
76693SOL     OW31975  12.640   0.432   1.871
76693SOL    HW131976  12.677   0.509   1.827
76693SOL    HW231977  12.587   0.467   1.942
76694SOL     OW31978  13.629   5.220   6.914
76694SOL    HW131979  13.677   5.211   6.832
76694SOL    HW231980  13.568   5.147   6.915
76695SOL     OW31981   0.160   7.634   9.604
76695SOL    HW131982   0.067   7.613   9.614
76695SOL    HW231983   0.189   7.581   9.530
76696SOL     OW31984  11.335  13.008   1.064
76696SOL    HW131985  11.344  13.065   0.987
76696SOL    HW231986  11.276  12.938   1.035
76697SOL     OW31987  10.687  14.688   4.587
76697SOL    HW131988  10.776  14.723   4.575
76697SOL    HW231989  10.646  14.747   4.650
76698SOL     OW31990   1.744   8.670  10.326
76698SOL    HW131991   1.823   8.722  10.342
76698SOL    HW231992   1.776   8.593  10.278
76699SOL     OW31993  13.049  12.223  14.800
76699SOL    HW131994  13.128  12.265  14.766
76699SOL    HW231995  13.081  12.164  14.868
76700SOL     OW31996   5.568  13.594  11.896
76700SOL    HW131997   5.494  13.540  11.868
76700SOL    HW231998   5.633  13.584  11.827
76701SOL     OW31999   1.133   0.396   1.039
76701SOL    HW132000   1.195   0.409   0.967
76701SOL    HW232001   1.101   0.484   1.058
76702SOL     OW32002   1.305   7.550   9.485
76702SOL    HW132003   1.385   7.603   9.495
76702SOL    HW232004   1.241   7.593   9.542
76703SOL     OW32005   5.976   6.210   2.114
76703SOL    HW132006   5.922   6.137   2.085
76703SOL    HW232007   6.017   6.243   2.033
76704SOL     OW32008   9.656   6.698   9.803
76704SOL    HW132009   9.723   6.634   9.825
76704SOL    HW232010   9.574   6.657   9.831
76705SOL     OW32011   1.933   9.602  14.437
76705SOL    HW132012   1.875   9.640  14.504
76705SOL    HW232013   1.983   9.535  14.484
76706SOL     OW32014   2.107   1.749  13.482
76706SOL    HW132015   2.193   1.739  13.523
76706SOL    HW232016   2.077   1.659  13.467
76707SOL     OW32017   2.374  13.139   0.425
76707SOL    HW132018   2.366  13.234   0.421
76707SOL    HW232019   2.283  13.107   0.426
76708SOL     OW32020  13.849  12.226  13.599
76708SOL    HW132021  13.907  12.236  13.523
76708SOL    HW232022  13.907  12.236  13.674
76709SOL     OW32023  10.454  14.350   9.204
76709SOL    HW132024  10.400  14.291   9.151
76709SOL    HW232025  10.494  14.294   9.270
76710SOL     OW32026  12.955   7.221   3.656
76710SOL    HW132027  12.913   7.301   3.686
76710SOL    HW232028  13.009   7.193   3.729
76711SOL     OW32029  10.671  14.878   8.521
76711SOL    HW132030  10.601   0.052   8.557
76711SOL    HW232031  10.699  14.824   8.595
76712SOL     OW32032  12.920   1.170   6.067
76712SOL    HW132033  12.948   1.100   6.009
76712SOL    HW232034  12.833   1.195   6.035
76713SOL     OW32035   1.250   3.568  11.217
76713SOL    HW132036   1.262   3.473  11.222
76713SOL    HW232037   1.196   3.581  11.139
76714SOL     OW32038   1.702   2.212   0.637
76714SOL    HW132039   1.615   2.251   0.648
76714SOL    HW232040   1.741   2.261   0.566
76715SOL     OW32041   0.937  10.743  10.323
76715SOL    HW132042   0.856  10.779  10.360
76715SOL    HW232043   0.921  10.649  10.317
76716SOL     OW32044  12.331   0.105   2.691
76716SOL    HW132045  12.241   0.084   2.716
76716SOL    HW232046  12.385   0.047   2.746
76717SOL     OW32047  10.959   6.306  12.880
76717SOL    HW132048  11.029   6.286  12.818
76717SOL    HW232049  10.993   6.381  12.930
76718SOL     OW32050  14.591   4.385  13.670
76718SOL    HW132051  14.520   4.335  13.629
76718SOL    HW232052  14.555   4.473  13.682
76719SOL     OW32053   0.473   0.707   8.390
76719SOL    HW132054   0.389   0.702   8.345
76719SOL    HW232055   0.521   0.629   8.361
76720SOL     OW32056   1.866   9.666   9.134
76720SOL    HW132057   1.896   9.632   9.050
76720SOL    HW232058   1.907   9.752   9.142
76721SOL     OW32059   5.121  12.360  13.512
76721SOL    HW132060   5.202  12.396  13.546
76721SOL    HW232061   5.119  12.270  13.544
76722SOL     OW32062   4.675  13.180   4.873
76722SOL    HW132063   4.584  13.153   4.887
76722SOL    HW232064   4.716  13.105   4.830
76723SOL     OW32065   9.840   0.235   6.246
76723SOL    HW132066   9.873   0.300   6.183
76723SOL    HW232067   9.754   0.209   6.212
76724SOL     OW32068  11.271   3.661  11.590
76724SOL    HW132069  11.237   3.628  11.673
76724SOL    HW232070  11.225   3.744  11.576
76725SOL     OW32071   3.242  10.389  13.802
76725SOL    HW132072   3.272  10.306  13.764
76725SOL    HW232073   3.154  10.370  13.834
76726SOL     OW32074  14.777   7.459   0.929
76726SOL    HW132075  14.851   7.399   0.914
76726SOL    HW232076  14.765   7.460   1.024
76727SOL     OW32077   2.203   9.805  14.150
76727SOL    HW132078   2.120   9.795  14.104
76727SOL    HW232079   2.178   9.816  14.242
76728SOL     OW32080   6.075  13.881   9.898
76728SOL    HW132081   6.074  13.846   9.808
76728SOL    HW232082   6.077  13.803   9.953
76729SOL     OW32083   0.498   4.201   0.818
76729SOL    HW132084   0.453   4.162   0.893
76729SOL    HW232085   0.456   4.161   0.742
76730SOL     OW32086   0.495  13.432  11.232
76730SOL    HW132087   0.463  13.516  11.197
76730SOL    HW232088   0.565  13.457  11.292
76731SOL     OW32089   6.127  14.799  11.377
76731SOL    HW132090   6.143  14.705  11.386
76731SOL    HW232091   6.038  14.805  11.342
76732SOL     OW32092  14.297   6.123   7.818
76732SOL    HW132093  14.354   6.070   7.874
76732SOL    HW232094  14.328   6.105   7.729
76733SOL     OW32095  14.656  11.044   7.691
76733SOL    HW132096  14.744  11.078   7.708
76733SOL    HW232097  14.605  11.121   7.666
76734SOL     OW32098  13.594   0.979   2.021
76734SOL    HW132099  13.609   0.892   1.982
76734SOL    HW232100  13.681   1.009   2.045
76735SOL     OW32101  14.591   1.463  13.033
76735SOL    HW132102  14.565   1.419  12.952
76735SOL    HW232103  14.522   1.441  13.095
76736SOL     OW32104   5.087   0.948   5.997
76736SOL    HW132105   5.162   0.937   6.057
76736SOL    HW232106   5.060   1.038   6.009
76737SOL     OW32107   2.162   6.342  11.678
76737SOL    HW132108   2.235   6.338  11.617
76737SOL    HW232109   2.140   6.251  11.696
76738SOL     OW32110   7.329   5.497   6.497
76738SOL    HW132111   7.289   5.423   6.450
76738SOL    HW232112   7.263   5.521   6.563
76739SOL     OW32113   1.209   3.178   9.121
76739SOL    HW132114   1.179   3.173   9.211
76739SOL    HW232115   1.291   3.227   9.125
76740SOL     OW32116   6.285   5.590   5.434
76740SOL    HW132117   6.314   5.503   5.461
76740SOL    HW232118   6.364   5.633   5.402
76741SOL     OW32119   4.004   2.619   7.006
76741SOL    HW132120   3.969   2.705   7.028
76741SOL    HW232121   3.973   2.562   7.077
76742SOL     OW32122  14.759  12.962   4.021
76742SOL    HW132123  14.799  12.976   4.107
76742SOL    HW232124  14.668  12.939   4.039
76743SOL     OW32125   9.480  12.201   4.800
76743SOL    HW132126   9.540  12.136   4.763
76743SOL    HW232127   9.395  12.178   4.763
76744SOL     OW32128  10.370  12.705   2.428
76744SOL    HW132129  10.343  12.792   2.397
76744SOL    HW232130  10.292  12.670   2.471
76745SOL     OW32131   0.820   5.229   4.360
76745SOL    HW132132   0.796   5.321   4.350
76745SOL    HW232133   0.887   5.215   4.293
76746SOL     OW32134   4.577  10.776   6.730
76746SOL    HW132135   4.500  10.740   6.774
76746SOL    HW232136   4.545  10.803   6.644
76747SOL     OW32137   5.038  14.449  11.867
76747SOL    HW132138   4.952  14.462  11.909
76747SOL    HW232139   5.086  14.392  11.927
76748SOL     OW32140   7.942  11.077   7.947
76748SOL    HW132141   7.910  10.987   7.951
76748SOL    HW232142   8.017  11.073   7.888
76749SOL     OW32143  12.481   2.562   9.438
76749SOL    HW132144  12.397   2.598   9.468
76749SOL    HW232145  12.476   2.566   9.343
76750SOL     OW32146   5.691  12.405   6.899
76750SOL    HW132147   5.745  12.459   6.841
76750SOL    HW232148   5.738  12.405   6.982
76751SOL     OW32149  10.351   2.347   5.548
76751SOL    HW132150  10.365   2.307   5.462
76751SOL    HW232151  10.389   2.434   5.540
76752SOL     OW32152   6.244   9.869   6.629
76752SOL    HW132153   6.246   9.815   6.708
76752SOL    HW232154   6.183   9.825   6.571
76753SOL     OW32155  10.396   5.214   3.566
76753SOL    HW132156  10.379   5.264   3.645
76753SOL    HW232157  10.428   5.129   3.597
76754SOL     OW32158  10.777  10.521   7.969
76754SOL    HW132159  10.856  10.467   7.973
76754SOL    HW232160  10.719  10.474   7.909
76755SOL     OW32161   4.075   3.968   3.039
76755SOL    HW132162   4.075   4.035   3.108
76755SOL    HW232163   3.986   3.970   3.005
76756SOL     OW32164  13.779   1.117   6.750
76756SOL    HW132165  13.856   1.065   6.774
76756SOL    HW232166  13.740   1.070   6.676
76757SOL     OW32167  13.502   0.342   9.401
76757SOL    HW132168  13.408   0.349   9.414
76757SOL    HW232169  13.530   0.431   9.379
76758SOL     OW32170   2.322  13.496   1.252
76758SOL    HW132171   2.301  13.437   1.180
76758SOL    HW232172   2.412  13.473   1.276
76759SOL     OW32173   9.512  10.861  10.678
76759SOL    HW132174   9.445  10.795  10.656
76759SOL    HW232175   9.528  10.906  10.595
76760SOL     OW32176  10.179  13.820   1.850
76760SOL    HW132177  10.264  13.776   1.845
76760SOL    HW232178  10.117  13.751   1.873
76761SOL     OW32179  14.569   1.651   4.135
76761SOL    HW132180  14.609   1.645   4.221
76761SOL    HW232181  14.569   1.561   4.102
76762SOL     OW32182   3.303   2.026   7.606
76762SOL    HW132183   3.345   2.110   7.623
76762SOL    HW232184   3.351   1.964   7.660
76763SOL     OW32185   4.110   6.151   6.277
76763SOL    HW132186   4.037   6.142   6.216
76763SOL    HW232187   4.187   6.126   6.227
76764SOL     OW32188   8.429  13.292   6.861
76764SOL    HW132189   8.412  13.294   6.955
76764SOL    HW232190   8.490  13.364   6.847
76765SOL     OW32191   6.945   5.723   0.096
76765SOL    HW132192   6.984   5.808   0.115
76765SOL    HW232193   6.850   5.739   0.095
76766SOL     OW32194   7.826   9.630   4.070
76766SOL    HW132195   7.793   9.715   4.041
76766SOL    HW232196   7.760   9.567   4.039
76767SOL     OW32197   6.811   6.004  11.371
76767SOL    HW132198   6.841   5.913  11.368
76767SOL    HW232199   6.736   6.003  11.431
76768SOL     OW32200   9.971   3.178   1.668
76768SOL    HW132201  10.040   3.117   1.643
76768SOL    HW232202   9.890   3.130   1.649
76769SOL     OW32203   7.660  12.887   7.063
76769SOL    HW132204   7.599  12.948   7.022
76769SOL    HW232205   7.745  12.929   7.055
76770SOL     OW32206  13.254  13.843  13.279
76770SOL    HW132207  13.331  13.886  13.316
76770SOL    HW232208  13.213  13.799  13.353
76771SOL     OW32209  11.801   7.894   0.469
76771SOL    HW132210  11.762   7.981   0.459
76771SOL    HW232211  11.739   7.845   0.523
76772SOL     OW32212  13.477   1.998  12.633
76772SOL    HW132213  13.540   1.999  12.705
76772SOL    HW232214  13.441   2.087  12.631
76773SOL     OW32215   5.570  11.124   5.535
76773SOL    HW132216   5.490  11.072   5.538
76773SOL    HW232217   5.593  11.128   5.442
76774SOL     OW32218   8.616  11.201   4.322
76774SOL    HW132219   8.561  11.168   4.393
76774SOL    HW232220   8.555  11.215   4.250
76775SOL     OW32221  14.321  11.947   9.624
76775SOL    HW132222  14.317  12.020   9.686
76775SOL    HW232223  14.306  11.987   9.539
76776SOL     OW32224   5.514  11.097   1.808
76776SOL    HW132225   5.512  11.125   1.900
76776SOL    HW232226   5.424  11.070   1.789
76777SOL     OW32227   6.390   6.152  13.731
76777SOL    HW132228   6.382   6.057  13.723
76777SOL    HW232229   6.467   6.165  13.787
76778SOL     OW32230   6.830   5.605  12.414
76778SOL    HW132231   6.813   5.549  12.489
76778SOL    HW232232   6.920   5.582  12.387
76779SOL     OW32233  12.414   6.772   0.059
76779SOL    HW132234  12.344   6.753   0.122
76779SOL    HW232235  12.410   6.867   0.046
76780SOL     OW32236   9.034  10.337   3.506
76780SOL    HW132237   8.948  10.358   3.542
76780SOL    HW232238   9.096  10.373   3.569
76781SOL     OW32239   7.657   5.209   4.766
76781SOL    HW132240   7.728   5.260   4.805
76781SOL    HW232241   7.590   5.274   4.743
76782SOL     OW32242   3.177   1.029   8.813
76782SOL    HW132243   3.251   1.026   8.752
76782SOL    HW232244   3.100   1.034   8.757
76783SOL     OW32245  13.866   7.944   6.289
76783SOL    HW132246  13.801   7.948   6.218
76783SOL    HW232247  13.934   8.006   6.263
76784SOL     OW32248   0.036   6.136   8.059
76784SOL    HW132249   0.100   6.077   8.019
76784SOL    HW232250  14.871   6.083   8.123
76785SOL     OW32251   5.637   3.420   9.386
76785SOL    HW132252   5.556   3.471   9.396
76785SOL    HW232253   5.644   3.371   9.468
76786SOL     OW32254  11.795  13.999   6.698
76786SOL    HW132255  11.864  14.052   6.658
76786SOL    HW232256  11.719  14.058   6.704
76787SOL     OW32257   9.566   4.883   2.590
76787SOL    HW132258   9.501   4.822   2.624
76787SOL    HW232259   9.602   4.925   2.668
76788SOL     OW32260  11.091  13.529  11.070
76788SOL    HW132261  11.065  13.468  11.001
76788SOL    HW232262  11.186  13.516  11.078
76789SOL     OW32263   5.693   7.804   2.059
76789SOL    HW132264   5.638   7.848   1.993
76789SOL    HW232265   5.723   7.875   2.116
76790SOL     OW32266   1.425  11.400   7.492
76790SOL    HW132267   1.335  11.369   7.487
76790SOL    HW232268   1.446  11.429   7.403
76791SOL     OW32269   1.918  12.107   4.599
76791SOL    HW132270   1.868  12.169   4.652
76791SOL    HW232271   1.851  12.059   4.550
76792SOL     OW32272   1.238   0.126  12.700
76792SOL    HW132273   1.144   0.139  12.687
76792SOL    HW232274   1.260   0.185  12.772
76793SOL     OW32275  13.306   0.659  12.933
76793SOL    HW132276  13.277   0.693  13.017
76793SOL    HW232277  13.388   0.705  12.915
76794SOL     OW32278  11.466   8.216   9.362
76794SOL    HW132279  11.466   8.142   9.301
76794SOL    HW232280  11.428   8.288   9.312
76795SOL     OW32281   3.546   7.249   6.994
76795SOL    HW132282   3.512   7.326   7.039
76795SOL    HW232283   3.476   7.224   6.933
76796SOL     OW32284   2.260   1.383   3.708
76796SOL    HW132285   2.342   1.408   3.666
76796SOL    HW232286   2.285   1.319   3.774
76797SOL     OW32287  10.642  13.057  10.395
76797SOL    HW132288  10.737  13.054  10.405
76797SOL    HW232289  10.620  12.972  10.357
76798SOL     OW32290  10.608   8.322   2.299
76798SOL    HW132291  10.577   8.407   2.266
76798SOL    HW232292  10.537   8.261   2.278
76799SOL     OW32293  10.547  10.510   3.136
76799SOL    HW132294  10.610  10.557   3.080
76799SOL    HW232295  10.552  10.555   3.220
76800SOL     OW32296  13.376   0.184   2.870
76800SOL    HW132297  13.365   0.170   2.776
76800SOL    HW232298  13.449   0.246   2.877
76801SOL     OW32299   7.554   0.217  14.108
76801SOL    HW132300   7.561   0.122  14.120
76801SOL    HW232301   7.510   0.227  14.023
76802SOL     OW32302  11.334   9.195  11.558
76802SOL    HW132303  11.378   9.239  11.485
76802SOL    HW232304  11.311   9.266  11.618
76803SOL     OW32305   5.291  10.165  12.859
76803SOL    HW132306   5.366  10.224  12.847
76803SOL    HW232307   5.222  10.202  12.804
76804SOL     OW32308   9.271   3.003   3.651
76804SOL    HW132309   9.251   3.093   3.675
76804SOL    HW232310   9.203   2.951   3.695
76805SOL     OW32311   1.608  12.098   1.268
76805SOL    HW132312   1.696  12.117   1.299
76805SOL    HW232313   1.567  12.051   1.340
76806SOL     OW32314   6.498   5.823  12.488
76806SOL    HW132315   6.507   5.728  12.493
76806SOL    HW232316   6.416   5.842  12.534
76807SOL     OW32317  11.502   1.888  13.898
76807SOL    HW132318  11.525   1.865  13.988
76807SOL    HW232319  11.409   1.912  13.903
76808SOL     OW32320  11.752  14.712   7.038
76808SOL    HW132321  11.772  14.689   6.947
76808SOL    HW232322  11.838  14.725   7.078
76809SOL     OW32323   7.292   2.001   9.540
76809SOL    HW132324   7.229   1.940   9.577
76809SOL    HW232325   7.257   2.088   9.560
76810SOL     OW32326   8.716   7.994  11.028
76810SOL    HW132327   8.624   8.012  11.047
76810SOL    HW232328   8.762   8.075  11.050
76811SOL     OW32329   4.053  10.533   0.237
76811SOL    HW132330   4.142  10.520   0.271
76811SOL    HW232331   4.057  10.617   0.191
76812SOL     OW32332   7.735   4.143   8.356
76812SOL    HW132333   7.769   4.213   8.301
76812SOL    HW232334   7.682   4.188   8.422
76813SOL     OW32335   6.206  13.510  14.741
76813SOL    HW132336   6.273  13.508  14.811
76813SOL    HW232337   6.211  13.599  14.706
76814SOL     OW32338  14.418   7.266  14.604
76814SOL    HW132339  14.399   7.213  14.526
76814SOL    HW232340  14.336   7.270  14.651
76815SOL     OW32341   1.294   3.333   2.109
76815SOL    HW132342   1.390   3.339   2.115
76815SOL    HW232343   1.276   3.330   2.015
76816SOL     OW32344   1.791   1.028  14.644
76816SOL    HW132345   1.812   1.119  14.621
76816SOL    HW232346   1.697   1.029  14.662
76817SOL     OW32347   2.950  12.030  14.844
76817SOL    HW132348   2.868  11.985  14.861
76817SOL    HW232349   2.926  12.122  14.832
76818SOL     OW32350   4.609   2.037   0.796
76818SOL    HW132351   4.688   2.019   0.847
76818SOL    HW232352   4.551   2.083   0.857
76819SOL     OW32353   7.132  12.749   8.757
76819SOL    HW132354   7.096  12.759   8.669
76819SOL    HW232355   7.061  12.776   8.815
76820SOL     OW32356   3.839   7.848   7.550
76820SOL    HW132357   3.845   7.865   7.644
76820SOL    HW232358   3.788   7.768   7.543
76821SOL     OW32359   0.945   2.625  12.544
76821SOL    HW132360   1.037   2.626  12.570
76821SOL    HW232361   0.898   2.591  12.621
76822SOL     OW32362   9.736   0.081  14.435
76822SOL    HW132363   9.755   0.121  14.350
76822SOL    HW232364   9.821   0.061  14.472
76823SOL     OW32365   3.142   0.214   9.772
76823SOL    HW132366   3.108   0.194   9.860
76823SOL    HW232367   3.109   0.302   9.754
76824SOL     OW32368   4.895   1.236   2.489
76824SOL    HW132369   4.811   1.194   2.507
76824SOL    HW232370   4.949   1.216   2.565
76825SOL     OW32371   1.205   9.724   6.315
76825SOL    HW132372   1.174   9.675   6.239
76825SOL    HW232373   1.286   9.766   6.286
76826SOL     OW32374  12.026  11.192  13.292
76826SOL    HW132375  12.120  11.202  13.277
76826SOL    HW232376  12.018  11.170  13.385
76827SOL     OW32377   9.385   9.699   5.690
76827SOL    HW132378   9.439   9.778   5.696
76827SOL    HW232379   9.302   9.731   5.655
76828SOL     OW32380   6.518   2.655  13.218
76828SOL    HW132381   6.502   2.719  13.287
76828SOL    HW232382   6.600   2.684  13.176
76829SOL     OW32383  11.246   3.074  10.633
76829SOL    HW132384  11.205   2.989  10.620
76829SOL    HW232385  11.275   3.074  10.724
76830SOL     OW32386   7.938  10.258  11.798
76830SOL    HW132387   7.887  10.330  11.836
76830SOL    HW232388   7.876  10.186  11.788
76831SOL     OW32389  13.847   9.894   9.735
76831SOL    HW132390  13.938   9.901   9.765
76831SOL    HW232391  13.853   9.858   9.647
76832SOL     OW32392  10.782  11.754  14.871
76832SOL    HW132393  10.753  11.733  14.782
76832SOL    HW232394  10.867  11.797  14.859
76833SOL     OW32395   5.214   5.685  12.462
76833SOL    HW132396   5.184   5.595  12.474
76833SOL    HW232397   5.135   5.735  12.442
76834SOL     OW32398   0.220   7.869   2.222
76834SOL    HW132399   0.168   7.949   2.213
76834SOL    HW232400   0.184   7.826   2.300
76835SOL     OW32401   7.169   4.520  12.417
76835SOL    HW132402   7.215   4.526  12.500
76835SOL    HW232403   7.157   4.611  12.389
76836SOL     OW32404  14.159   8.398  11.090
76836SOL    HW132405  14.169   8.477  11.143
76836SOL    HW232406  14.208   8.331  11.137
76837SOL     OW32407   1.825   6.430   2.723
76837SOL    HW132408   1.829   6.425   2.628
76837SOL    HW232409   1.752   6.490   2.741
76838SOL     OW32410   8.858   3.132   1.050
76838SOL    HW132411   8.843   3.050   1.005
76838SOL    HW232412   8.941   3.120   1.096
76839SOL     OW32413   5.930   6.673  10.045
76839SOL    HW132414   5.854   6.684   9.988
76839SOL    HW232415   5.975   6.757  10.041
76840SOL     OW32416  11.364   4.285   3.780
76840SOL    HW132417  11.432   4.350   3.763
76840SOL    HW232418  11.286   4.320   3.736
76841SOL     OW32419  10.760   5.604   8.150
76841SOL    HW132420  10.816   5.541   8.105
76841SOL    HW232421  10.691   5.551   8.189
76842SOL     OW32422   5.698   7.886   8.157
76842SOL    HW132423   5.677   7.904   8.249
76842SOL    HW232424   5.791   7.909   8.150
76843SOL     OW32425  13.013   7.270   8.194
76843SOL    HW132426  12.932   7.221   8.181
76843SOL    HW232427  13.069   7.242   8.122
76844SOL     OW32428  14.280  13.880   1.001
76844SOL    HW132429  14.224  13.824   0.949
76844SOL    HW232430  14.344  13.914   0.939
76845SOL     OW32431   3.392   8.177  14.169
76845SOL    HW132432   3.364   8.088  14.152
76845SOL    HW232433   3.363   8.227  14.093
76846SOL     OW32434   5.621   7.041   9.657
76846SOL    HW132435   5.680   7.052   9.731
76846SOL    HW232436   5.538   7.077   9.686
76847SOL     OW32437   1.893  14.441  10.324
76847SOL    HW132438   1.871  14.393  10.404
76847SOL    HW232439   1.885  14.376  10.254
76848SOL     OW32440   2.425   5.635   9.688
76848SOL    HW132441   2.395   5.655   9.776
76848SOL    HW232442   2.453   5.719   9.653
76849SOL     OW32443   9.093  13.090   0.255
76849SOL    HW132444   9.153  13.125   0.190
76849SOL    HW232445   9.030  13.039   0.205
76850SOL     OW32446   9.126   6.923   7.352
76850SOL    HW132447   9.101   7.015   7.359
76850SOL    HW232448   9.049   6.874   7.382
76851SOL     OW32449   2.243   0.015   5.526
76851SOL    HW132450   2.162  14.844   5.518
76851SOL    HW232451   2.312  14.829   5.534
76852SOL     OW32452   6.617   7.234   0.431
76852SOL    HW132453   6.656   7.211   0.515
76852SOL    HW232454   6.676   7.300   0.395
76853SOL     OW32455  12.144   0.507   4.983
76853SOL    HW132456  12.103   0.455   5.051
76853SOL    HW232457  12.204   0.447   4.938
76854SOL     OW32458   9.045  10.961   5.218
76854SOL    HW132459   9.108  10.996   5.282
76854SOL    HW232460   9.098  10.944   5.140
76855SOL     OW32461   1.624   8.687   5.745
76855SOL    HW132462   1.675   8.634   5.683
76855SOL    HW232463   1.686   8.753   5.777
76856SOL     OW32464   4.591  10.802   7.633
76856SOL    HW132465   4.539  10.853   7.570
76856SOL    HW232466   4.593  10.857   7.712
76857SOL     OW32467   9.495   6.740   6.105
76857SOL    HW132468   9.404   6.753   6.078
76857SOL    HW232469   9.526   6.667   6.052
76858SOL     OW32470   3.721   6.790   3.839
76858SOL    HW132471   3.697   6.871   3.794
76858SOL    HW232472   3.645   6.733   3.829
76859SOL     OW32473   1.475   0.235   6.419
76859SOL    HW132474   1.564   0.208   6.398
76859SOL    HW232475   1.467   0.323   6.383
76860SOL     OW32476  11.387  10.615   1.756
76860SOL    HW132477  11.369  10.527   1.788
76860SOL    HW232478  11.306  10.642   1.712
76861SOL     OW32479  13.051   4.856  11.245
76861SOL    HW132480  13.055   4.898  11.158
76861SOL    HW232481  13.046   4.763  11.226
76862SOL     OW32482   7.902  11.882   6.864
76862SOL    HW132483   7.984  11.845   6.832
76862SOL    HW232484   7.848  11.805   6.885
76863SOL     OW32485  10.723   3.338  12.825
76863SOL    HW132486  10.725   3.433  12.831
76863SOL    HW232487  10.704   3.309  12.914
76864SOL     OW32488   3.903   6.946   7.985
76864SOL    HW132489   3.960   6.901   8.047
76864SOL    HW232490   3.895   6.886   7.911
76865SOL     OW32491   3.547   1.263   8.430
76865SOL    HW132492   3.547   1.233   8.339
76865SOL    HW232493   3.512   1.352   8.426
76866SOL     OW32494   2.305   0.158  13.280
76866SOL    HW132495   2.295   0.164  13.375
76866SOL    HW232496   2.253   0.230  13.246
76867SOL     OW32497  10.698  10.742   0.855
76867SOL    HW132498  10.639  10.678   0.893
76867SOL    HW232499  10.688  10.731   0.760
76868SOL     OW32500   7.855  13.797   6.142
76868SOL    HW132501   7.936  13.778   6.189
76868SOL    HW232502   7.786  13.790   6.209
76869SOL     OW32503   9.563   9.516   5.202
76869SOL    HW132504   9.575   9.465   5.282
76869SOL    HW232505   9.491   9.472   5.156
76870SOL     OW32506   2.674   6.464   6.809
76870SOL    HW132507   2.632   6.509   6.882
76870SOL    HW232508   2.601   6.426   6.760
76871SOL     OW32509   8.204  12.464   3.113
76871SOL    HW132510   8.177  12.552   3.089
76871SOL    HW232511   8.136  12.433   3.173
76872SOL     OW32512   9.454   5.279  10.800
76872SOL    HW132513   9.466   5.185  10.794
76872SOL    HW232514   9.537   5.313  10.834
76873SOL     OW32515   5.237   8.319   5.140
76873SOL    HW132516   5.332   8.314   5.128
76873SOL    HW232517   5.208   8.378   5.070
76874SOL     OW32518   6.954  11.037  12.733
76874SOL    HW132519   7.005  10.960  12.756
76874SOL    HW232520   6.919  11.069  12.816
76875SOL     OW32521   5.338  10.457  12.397
76875SOL    HW132522   5.344  10.390  12.329
76875SOL    HW232523   5.422  10.454  12.441
76876SOL     OW32524  13.917   3.780   9.752
76876SOL    HW132525  13.857   3.726   9.701
76876SOL    HW232526  13.860   3.831   9.809
76877SOL     OW32527   2.013   1.311   8.195
76877SOL    HW132528   2.002   1.217   8.187
76877SOL    HW232529   1.975   1.333   8.280
76878SOL     OW32530   9.969   8.306  12.051
76878SOL    HW132531   9.902   8.294  11.984
76878SOL    HW232532   9.976   8.401  12.062
76879SOL     OW32533  11.227  11.375   6.079
76879SOL    HW132534  11.255  11.467   6.080
76879SOL    HW232535  11.236  11.346   6.170
76880SOL     OW32536   0.020   5.042  14.470
76880SOL    HW132537   0.064   5.097  14.534
76880SOL    HW232538  14.864   5.103  14.406
76881SOL     OW32539  12.376  11.562   0.133
76881SOL    HW132540  12.328  11.635   0.094
76881SOL    HW232541  12.445  11.543   0.069
76882SOL     OW32542  14.077   7.879   1.681
76882SOL    HW132543  14.063   7.953   1.623
76882SOL    HW232544  14.148   7.906   1.739
76883SOL     OW32545   8.398   6.143   1.734
76883SOL    HW132546   8.345   6.223   1.732
76883SOL    HW232547   8.336   6.072   1.720
76884SOL     OW32548   3.868   6.044   1.287
76884SOL    HW132549   3.816   6.084   1.357
76884SOL    HW232550   3.902   6.118   1.237
76885SOL     OW32551   9.062  10.597  10.479
76885SOL    HW132552   9.102  10.618  10.395
76885SOL    HW232553   9.096  10.510  10.501
76886SOL     OW32554  11.989   6.444  11.224
76886SOL    HW132555  11.944   6.433  11.140
76886SOL    HW232556  11.963   6.367  11.275
76887SOL     OW32557   6.058   4.133  12.298
76887SOL    HW132558   5.970   4.168  12.306
76887SOL    HW232559   6.049   4.060  12.235
76888SOL     OW32560  11.739   8.932  11.365
76888SOL    HW132561  11.788   8.976  11.295
76888SOL    HW232562  11.648   8.954  11.346
76889SOL     OW32563   2.472  12.214   5.617
76889SOL    HW132564   2.548  12.272   5.603
76889SOL    HW232565   2.505  12.127   5.594
76890SOL     OW32566   8.970   0.542  14.613
76890SOL    HW132567   9.016   0.562  14.531
76890SOL    HW232568   9.022   0.587  14.680
76891SOL     OW32569  10.740   2.608  12.382
76891SOL    HW132570  10.713   2.694  12.350
76891SOL    HW232571  10.680   2.546  12.339
76892SOL     OW32572  11.389   6.243   3.820
76892SOL    HW132573  11.317   6.287   3.775
76892SOL    HW232574  11.459   6.240   3.756
76893SOL     OW32575  14.771  10.367   2.390
76893SOL    HW132576  14.809  10.290   2.434
76893SOL    HW232577  14.840  10.399   2.333
76894SOL     OW32578  13.001   8.569  11.303
76894SOL    HW132579  12.920   8.521  11.317
76894SOL    HW232580  12.981   8.660  11.326
76895SOL     OW32581   1.378   5.904   5.839
76895SOL    HW132582   1.375   5.999   5.845
76895SOL    HW232583   1.469   5.881   5.859
76896SOL     OW32584  11.897  11.151   4.730
76896SOL    HW132585  11.919  11.059   4.718
76896SOL    HW232586  11.925  11.170   4.820
76897SOL     OW32587   8.133   2.152  10.037
76897SOL    HW132588   8.095   2.240  10.029
76897SOL    HW232589   8.095   2.103   9.964
76898SOL     OW32590   0.780  10.544   7.033
76898SOL    HW132591   0.760  10.622   6.981
76898SOL    HW232592   0.732  10.474   6.989
76899SOL     OW32593  11.562   9.767   2.161
76899SOL    HW132594  11.555   9.831   2.090
76899SOL    HW232595  11.641   9.717   2.141
76900SOL     OW32596  12.089  10.622   0.496
76900SOL    HW132597  12.026  10.637   0.566
76900SOL    HW232598  12.168  10.668   0.525
76901SOL     OW32599  12.000   2.167   4.504
76901SOL    HW132600  11.914   2.209   4.500
76901SOL    HW232601  12.046   2.199   4.427
76902SOL     OW32602   3.140   2.502   5.350
76902SOL    HW132603   3.046   2.516   5.359
76902SOL    HW232604   3.166   2.554   5.274
76903SOL     OW32605  11.570   8.160   9.633
76903SOL    HW132606  11.521   8.176   9.552
76903SOL    HW232607  11.503   8.139   9.697
76904SOL     OW32608  14.720  14.281   7.155
76904SOL    HW132609  14.770  14.343   7.208
76904SOL    HW232610  14.715  14.202   7.207
76905SOL     OW32611   7.637   2.197   8.606
76905SOL    HW132612   7.628   2.191   8.701
76905SOL    HW232613   7.709   2.259   8.593
76906SOL     OW32614   4.560  12.999   5.871
76906SOL    HW132615   4.577  13.067   5.936
76906SOL    HW232616   4.532  13.046   5.793
76907SOL     OW32617  11.130   7.787   9.174
76907SOL    HW132618  11.094   7.699   9.185
76907SOL    HW232619  11.173   7.806   9.258
76908SOL     OW32620   8.764   5.547   3.615
76908SOL    HW132621   8.775   5.470   3.558
76908SOL    HW232622   8.845   5.596   3.605
76909SOL     OW32623  14.790   3.889   9.686
76909SOL    HW132624  14.740   3.869   9.608
76909SOL    HW232625  14.753   3.971   9.719
76910SOL     OW32626   9.240   8.663  12.974
76910SOL    HW132627   9.195   8.590  12.931
76910SOL    HW232628   9.183   8.739  12.957
76911SOL     OW32629  11.604   0.525   5.714
76911SOL    HW132630  11.695   0.521   5.744
76911SOL    HW232631  11.584   0.618   5.712
76912SOL     OW32632   8.845  10.617   9.951
76912SOL    HW132633   8.890  10.697   9.980
76912SOL    HW232634   8.828  10.569  10.032
76913SOL     OW32635   8.607   4.185  13.343
76913SOL    HW132636   8.674   4.242  13.305
76913SOL    HW232637   8.646   4.151  13.424
76914SOL     OW32638   6.563   5.607   9.054
76914SOL    HW132639   6.628   5.668   9.019
76914SOL    HW232640   6.493   5.606   8.989
76915SOL     OW32641  11.490   0.852  13.588
76915SOL    HW132642  11.551   0.784  13.558
76915SOL    HW232643  11.515   0.869  13.679
76916SOL     OW32644   7.138  14.072  10.498
76916SOL    HW132645   7.083  14.150  10.489
76916SOL    HW232646   7.077  13.999  10.488
76917SOL     OW32647  13.521  13.507   2.738
76917SOL    HW132648  13.479  13.448   2.800
76917SOL    HW232649  13.554  13.449   2.669
76918SOL     OW32650   7.383   6.349   5.567
76918SOL    HW132651   7.453   6.407   5.597
76918SOL    HW232652   7.361   6.297   5.645
76919SOL     OW32653  12.716   0.456   4.980
76919SOL    HW132654  12.640   0.513   4.992
76919SOL    HW232655  12.678   0.369   4.966
76920SOL     OW32656  12.337  14.488   0.321
76920SOL    HW132657  12.317  14.472   0.229
76920SOL    HW232658  12.272  14.552   0.348
76921SOL     OW32659   0.889   3.652   7.014
76921SOL    HW132660   0.954   3.690   6.956
76921SOL    HW232661   0.923   3.666   7.102
76922SOL     OW32662   8.800   8.434  14.405
76922SOL    HW132663   8.797   8.441  14.501
76922SOL    HW232664   8.805   8.339  14.389
76923SOL     OW32665   4.209   4.940  13.411
76923SOL    HW132666   4.300   4.950  13.384
76923SOL    HW232667   4.163   4.912  13.332
76924SOL     OW32668  11.435  12.714   1.750
76924SOL    HW132669  11.419  12.683   1.661
76924SOL    HW232670  11.505  12.657   1.783
76925SOL     OW32671   8.809  14.700   2.370
76925SOL    HW132672   8.713  14.691   2.371
76925SOL    HW232673   8.840  14.619   2.330
76926SOL     OW32674   0.209  11.989  12.116
76926SOL    HW132675   0.149  12.062  12.129
76926SOL    HW232676   0.282  12.026  12.066
76927SOL     OW32677  11.697   4.671  14.082
76927SOL    HW132678  11.641   4.676  14.160
76927SOL    HW232679  11.745   4.753  14.080
76928SOL     OW32680   7.102  10.643  10.814
76928SOL    HW132681   7.096  10.705  10.742
76928SOL    HW232682   7.160  10.574  10.781
76929SOL     OW32683   2.721   3.818   6.743
76929SOL    HW132684   2.693   3.893   6.795
76929SOL    HW232685   2.639   3.773   6.721
76930SOL     OW32686   2.710   7.564   9.215
76930SOL    HW132687   2.697   7.513   9.135
76930SOL    HW232688   2.754   7.504   9.275
76931SOL     OW32689  10.429  14.417   8.903
76931SOL    HW132690  10.409  14.460   8.820
76931SOL    HW232691  10.450  14.327   8.880
76932SOL     OW32692   2.552   4.481  13.550
76932SOL    HW132693   2.573   4.538  13.476
76932SOL    HW232694   2.636   4.441  13.573
76933SOL     OW32695  10.068  12.534  12.449
76933SOL    HW132696  10.160  12.548  12.468
76933SOL    HW232697  10.030  12.622  12.447
76934SOL     OW32698   9.878   6.954   2.804
76934SOL    HW132699   9.791   6.994   2.818
76934SOL    HW232700   9.883   6.941   2.710
76935SOL     OW32701   5.602   3.344  12.381
76935SOL    HW132702   5.620   3.260  12.338
76935SOL    HW232703   5.507   3.354  12.374
76936SOL     OW32704  12.632   7.489  10.315
76936SOL    HW132705  12.573   7.517  10.384
76936SOL    HW232706  12.687   7.565  10.297
76937SOL     OW32707   7.968   2.670   8.897
76937SOL    HW132708   8.057   2.705   8.886
76937SOL    HW232709   7.914   2.746   8.917
76938SOL     OW32710  12.851   9.830   9.679
76938SOL    HW132711  12.910   9.808   9.751
76938SOL    HW232712  12.824   9.745   9.644
76939SOL     OW32713  11.068  11.024  10.839
76939SOL    HW132714  11.155  10.986  10.852
76939SOL    HW232715  11.010  10.948  10.830
76940SOL     OW32716  13.266  14.293   0.670
76940SOL    HW132717  13.279  14.378   0.627
76940SOL    HW232718  13.183  14.260   0.635
76941SOL     OW32719  10.570   1.855   1.395
76941SOL    HW132720  10.588   1.774   1.347
76941SOL    HW232721  10.657   1.889   1.418
76942SOL     OW32722   3.140   0.736  10.016
76942SOL    HW132723   3.196   0.792  10.070
76942SOL    HW232724   3.153   0.770   9.927
76943SOL     OW32725   4.363   2.986   0.786
76943SOL    HW132726   4.275   2.951   0.773
76943SOL    HW232727   4.413   2.914   0.826
76944SOL     OW32728   6.500   2.096   0.474
76944SOL    HW132729   6.438   2.047   0.419
76944SOL    HW232730   6.568   2.125   0.414
76945SOL     OW32731  13.408   5.395  14.785
76945SOL    HW132732  13.331   5.353  14.820
76945SOL    HW232733  13.480   5.334  14.802
76946SOL     OW32734  14.060   1.232   1.632
76946SOL    HW132735  13.976   1.200   1.665
76946SOL    HW232736  14.100   1.156   1.590
76947SOL     OW32737   8.900   0.454  12.252
76947SOL    HW132738   8.876   0.413  12.169
76947SOL    HW232739   8.818   0.489  12.286
76948SOL     OW32740   8.050  12.508   9.814
76948SOL    HW132741   8.097  12.532   9.894
76948SOL    HW232742   8.033  12.592   9.771
76949SOL     OW32743   7.003  11.709  13.172
76949SOL    HW132744   7.091  11.697  13.209
76949SOL    HW232745   6.953  11.750  13.243
76950SOL     OW32746  13.860   6.811   4.064
76950SOL    HW132747  13.811   6.891   4.047
76950SOL    HW232748  13.886   6.817   4.155
76951SOL     OW32749   5.875   2.772   3.442
76951SOL    HW132750   5.825   2.850   3.466
76951SOL    HW232751   5.964   2.803   3.429
76952SOL     OW32752   6.602  14.707   6.819
76952SOL    HW132753   6.521  14.753   6.798
76952SOL    HW232754   6.575  14.635   6.875
76953SOL     OW32755  11.177   7.072  10.586
76953SOL    HW132756  11.183   7.167  10.578
76953SOL    HW232757  11.264   7.044  10.612
76954SOL     OW32758   2.167  14.222   5.940
76954SOL    HW132759   2.103  14.282   5.978
76954SOL    HW232760   2.117  14.173   5.875
76955SOL     OW32761   1.336   3.904   8.672
76955SOL    HW132762   1.389   3.982   8.656
76955SOL    HW232763   1.262   3.912   8.612
76956SOL     OW32764  14.436   2.334   0.845
76956SOL    HW132765  14.397   2.256   0.883
76956SOL    HW232766  14.392   2.407   0.889
76957SOL     OW32767   0.721  13.360   6.119
76957SOL    HW132768   0.762  13.325   6.040
76957SOL    HW232769   0.740  13.294   6.186
76958SOL     OW32770   2.899   0.521   5.202
76958SOL    HW132771   2.906   0.435   5.244
76958SOL    HW232772   2.897   0.583   5.275
76959SOL     OW32773   3.814   4.695  14.404
76959SOL    HW132774   3.773   4.757  14.464
76959SOL    HW232775   3.765   4.614  14.416
76960SOL     OW32776   9.663   8.973   7.029
76960SOL    HW132777   9.649   8.907   6.962
76960SOL    HW232778   9.576   8.989   7.066
76961SOL     OW32779   7.635   5.159   8.798
76961SOL    HW132780   7.566   5.224   8.812
76961SOL    HW232781   7.607   5.110   8.721
76962SOL     OW32782   9.393  13.350   6.439
76962SOL    HW132783   9.405  13.439   6.472
76962SOL    HW232784   9.299  13.340   6.430
76963SOL     OW32785   9.392  11.045  12.393
76963SOL    HW132786   9.407  11.105  12.320
76963SOL    HW232787   9.477  11.039  12.437
76964SOL     OW32788  10.926  11.166  10.639
76964SOL    HW132789  11.005  11.220  10.629
76964SOL    HW232790  10.931  11.132  10.728
76965SOL     OW32791  11.314   5.658  14.817
76965SOL    HW132792  11.293   5.679  14.726
76965SOL    HW232793  11.229   5.639  14.857
76966SOL     OW32794  10.088   2.369   1.978
76966SOL    HW132795  10.089   2.454   1.935
76966SOL    HW232796  10.089   2.389   2.072
76967SOL     OW32797  13.078   7.033  12.565
76967SOL    HW132798  13.104   7.065  12.651
76967SOL    HW232799  13.042   6.946  12.581
76968SOL     OW32800   4.558  11.665   1.640
76968SOL    HW132801   4.517  11.629   1.561
76968SOL    HW232802   4.521  11.752   1.649
76969SOL     OW32803   8.376  12.163   6.432
76969SOL    HW132804   8.338  12.082   6.465
76969SOL    HW232805   8.301  12.222   6.423
76970SOL     OW32806   4.779  13.068   8.056
76970SOL    HW132807   4.702  13.096   8.006
76970SOL    HW232808   4.747  12.997   8.112
76971SOL     OW32809   2.487   7.029   6.539
76971SOL    HW132810   2.510   6.976   6.615
76971SOL    HW232811   2.565   7.028   6.484
76972SOL     OW32812   3.470   2.776   2.658
76972SOL    HW132813   3.509   2.739   2.738
76972SOL    HW232814   3.382   2.800   2.684
76973SOL     OW32815   1.093  13.513   3.115
76973SOL    HW132816   1.000  13.531   3.133
76973SOL    HW232817   1.137  13.528   3.199
76974SOL     OW32818   1.346  11.185   8.166
76974SOL    HW132819   1.306  11.238   8.096
76974SOL    HW232820   1.321  11.095   8.145
76975SOL     OW32821   4.954  13.925   1.569
76975SOL    HW132822   5.049  13.917   1.560
76975SOL    HW232823   4.943  13.974   1.651
76976SOL     OW32824  13.083   8.496  10.431
76976SOL    HW132825  13.130   8.551  10.368
76976SOL    HW232826  13.109   8.406  10.408
76977SOL     OW32827   2.052   5.446  10.932
76977SOL    HW132828   1.976   5.391  10.954
76977SOL    HW232829   2.126   5.386  10.930
76978SOL     OW32830  12.720   9.135   7.502
76978SOL    HW132831  12.678   9.056   7.535
76978SOL    HW232832  12.797   9.103   7.454
76979SOL     OW32833  14.404  13.805   2.460
76979SOL    HW132834  14.349  13.777   2.533
76979SOL    HW232835  14.343  13.813   2.386
76980SOL     OW32836  13.030  13.957  13.573
76980SOL    HW132837  13.007  14.001  13.491
76980SOL    HW232838  13.054  13.868  13.547
76981SOL     OW32839  12.317  11.728   2.573
76981SOL    HW132840  12.310  11.748   2.480
76981SOL    HW232841  12.227  11.727   2.605
76982SOL     OW32842  13.372   9.918   2.893
76982SOL    HW132843  13.278   9.909   2.905
76982SOL    HW232844  13.381   9.963   2.809
76983SOL     OW32845   6.973  14.803  14.341
76983SOL    HW132846   6.950  14.830  14.430
76983SOL    HW232847   7.065  14.774  14.348
76984SOL     OW32848  12.616  12.616   4.229
76984SOL    HW132849  12.604  12.548   4.296
76984SOL    HW232850  12.527  12.642   4.206
76985SOL     OW32851  10.141   6.115   1.615
76985SOL    HW132852  10.071   6.051   1.629
76985SOL    HW232853  10.114   6.164   1.538
76986SOL     OW32854   2.402  13.817   1.958
76986SOL    HW132855   2.484  13.855   1.926
76986SOL    HW232856   2.344  13.817   1.882
76987SOL     OW32857  13.838  11.055   3.367
76987SOL    HW132858  13.900  11.011   3.425
76987SOL    HW232859  13.888  11.077   3.289
76988SOL     OW32860   0.919   5.698   1.407
76988SOL    HW132861   0.897   5.777   1.357
76988SOL    HW232862   0.930   5.630   1.341
76989SOL     OW32863   3.370  14.439   8.556
76989SOL    HW132864   3.424  14.363   8.574
76989SOL    HW232865   3.412  14.481   8.481
76990SOL     OW32866   8.196   6.372  11.620
76990SOL    HW132867   8.140   6.449  11.631
76990SOL    HW232868   8.193   6.353  11.527
76991SOL     OW32869   6.116  10.310   5.745
76991SOL    HW132870   6.038  10.321   5.692
76991SOL    HW232871   6.086  10.261   5.822
76992SOL     OW32872   4.916   0.717   4.022
76992SOL    HW132873   4.863   0.639   4.005
76992SOL    HW232874   4.999   0.683   4.055
76993SOL     OW32875  13.107   0.446  10.613
76993SOL    HW132876  13.102   0.444  10.518
76993SOL    HW232877  13.194   0.410  10.633
76994SOL     OW32878   2.197   3.163   1.624
76994SOL    HW132879   2.283   3.183   1.663
76994SOL    HW232880   2.214   3.161   1.530
76995SOL     OW32881   1.825   2.407   9.619
76995SOL    HW132882   1.855   2.492   9.586
76995SOL    HW232883   1.730   2.413   9.620
76996SOL     OW32884   0.508  12.130   1.516
76996SOL    HW132885   0.602  12.146   1.502
76996SOL    HW232886   0.505  12.053   1.572
76997SOL     OW32887   8.631   5.897   6.483
76997SOL    HW132888   8.721   5.865   6.485
76997SOL    HW232889   8.594   5.857   6.404
76998SOL     OW32890   8.184   6.630  11.914
76998SOL    HW132891   8.190   6.687  11.991
76998SOL    HW232892   8.275   6.615  11.889
76999SOL     OW32893  10.147  12.737  11.109
76999SOL    HW132894  10.229  12.717  11.154
76999SOL    HW232895  10.089  12.770  11.178
77000SOL     OW32896   5.051  11.218  14.587
77000SOL    HW132897   5.006  11.195  14.506
77000SOL    HW232898   5.137  11.178  14.579
77001SOL     OW32899  10.860   4.174   1.857
77001SOL    HW132900  10.797   4.138   1.795
77001SOL    HW232901  10.933   4.113   1.856
77002SOL     OW32902   4.060   5.750  13.701
77002SOL    HW132903   4.032   5.836  13.672
77002SOL    HW232904   4.013   5.736  13.783
77003SOL     OW32905   7.932   5.017   5.767
77003SOL    HW132906   7.840   5.040   5.759
77003SOL    HW232907   7.949   4.957   5.694
77004SOL     OW32908  11.957   8.227  11.034
77004SOL    HW132909  11.970   8.284  11.110
77004SOL    HW232910  11.963   8.138  11.069
77005SOL     OW32911  11.600   1.236   7.925
77005SOL    HW132912  11.558   1.266   7.845
77005SOL    HW232913  11.582   1.142   7.928
77006SOL     OW32914  10.056   8.347   7.291
77006SOL    HW132915  10.126   8.331   7.227
77006SOL    HW232916  10.102   8.361   7.374
77007SOL     OW32917  14.837   5.436  10.181
77007SOL    HW132918  14.875   5.501  10.241
77007SOL    HW232919  14.825   5.484  10.099
77008SOL     OW32920  10.769   7.138   4.162
77008SOL    HW132921  10.820   7.219   4.156
77008SOL    HW232922  10.683   7.161   4.126
77009SOL     OW32923  10.333  14.856   6.859
77009SOL    HW132924  10.305  14.809   6.781
77009SOL    HW232925  10.333   0.068   6.833
77010SOL     OW32926   9.633   6.258   0.722
77010SOL    HW132927   9.711   6.277   0.669
77010SOL    HW232928   9.607   6.170   0.695
77011SOL     OW32929   4.565   9.165   4.086
77011SOL    HW132930   4.609   9.148   4.003
77011SOL    HW232931   4.516   9.246   4.072
77012SOL     OW32932   4.554   6.593   0.560
77012SOL    HW132933   4.496   6.535   0.609
77012SOL    HW232934   4.553   6.559   0.471
77013SOL     OW32935   2.365  11.577  10.702
77013SOL    HW132936   2.442  11.549  10.751
77013SOL    HW232937   2.336  11.498  10.656
77014SOL     OW32938   9.064  13.236   6.484
77014SOL    HW132939   8.979  13.201   6.458
77014SOL    HW232940   9.063  13.232   6.580
77015SOL     OW32941  10.341   2.184   1.741
77015SOL    HW132942  10.245   2.184   1.745
77015SOL    HW232943  10.365   2.092   1.734
77016SOL     OW32944   3.525   8.522   6.454
77016SOL    HW132945   3.480   8.461   6.513
77016SOL    HW232946   3.539   8.600   6.507
77017SOL     OW32947   3.878   0.950   4.538
77017SOL    HW132948   3.792   0.923   4.506
77017SOL    HW232949   3.862   0.981   4.627
77018SOL     OW32950  12.778   2.587   3.136
77018SOL    HW132951  12.835   2.585   3.213
77018SOL    HW232952  12.695   2.622   3.169
77019SOL     OW32953   6.753   0.947   7.982
77019SOL    HW132954   6.727   0.927   8.072
77019SOL    HW232955   6.756   1.042   7.979
77020SOL     OW32956   9.726  13.349   4.548
77020SOL    HW132957   9.720  13.254   4.558
77020SOL    HW232958   9.636  13.378   4.533
77021SOL     OW32959  10.472   3.288   5.662
77021SOL    HW132960  10.538   3.278   5.731
77021SOL    HW232961  10.408   3.219   5.680
77022SOL     OW32962   1.846   5.733   6.616
77022SOL    HW132963   1.823   5.776   6.533
77022SOL    HW232964   1.925   5.780   6.645
77023SOL     OW32965   0.128   1.545   1.746
77023SOL    HW132966   0.084   1.568   1.664
77023SOL    HW232967   0.154   1.629   1.784
77024SOL     OW32968   8.314  11.558   0.775
77024SOL    HW132969   8.271  11.476   0.750
77024SOL    HW232970   8.244  11.624   0.770
77025SOL     OW32971  12.925   7.885  13.715
77025SOL    HW132972  12.839   7.844  13.702
77025SOL    HW232973  12.983   7.812  13.735
77026SOL     OW32974   9.799   7.872   8.338
77026SOL    HW132975   9.772   7.959   8.308
77026SOL    HW232976   9.749   7.857   8.418
77027SOL     OW32977   6.025   0.595   4.837
77027SOL    HW132978   6.051   0.588   4.745
77027SOL    HW232979   6.043   0.687   4.859
77028SOL     OW32980  11.343   6.885   5.690
77028SOL    HW132981  11.332   6.792   5.710
77028SOL    HW232982  11.385   6.886   5.604
77029SOL     OW32983   2.575   6.701   6.934
77029SOL    HW132984   2.485   6.733   6.945
77029SOL    HW232985   2.609   6.695   7.023
77030SOL     OW32986   1.015   8.349   2.568
77030SOL    HW132987   0.985   8.298   2.493
77030SOL    HW232988   1.020   8.286   2.640
77031SOL     OW32989  14.032  11.576   1.412
77031SOL    HW132990  14.053  11.485   1.432
77031SOL    HW232991  14.024  11.579   1.317
77032SOL     OW32992   2.780  13.428  13.462
77032SOL    HW132993   2.816  13.452  13.376
77032SOL    HW232994   2.738  13.343  13.447
77033SOL     OW32995   1.466  11.782   1.929
77033SOL    HW132996   1.377  11.764   1.959
77033SOL    HW232997   1.521  11.768   2.007
77034SOL     OW32998   8.857  12.758   3.455
77034SOL    HW132999   8.927  12.726   3.397
77034SOL    HW233000   8.786  12.694   3.444
77035SOL     OW33001  11.363   7.059   8.523
77035SOL    HW133002  11.402   6.983   8.479
77035SOL    HW233003  11.283   7.024   8.563
77036SOL     OW33004   6.702   2.944   9.416
77036SOL    HW133005   6.718   2.977   9.504
77036SOL    HW233006   6.607   2.934   9.411
77037SOL     OW33007   0.189   3.569   1.224
77037SOL    HW133008   0.206   3.557   1.130
77037SOL    HW233009   0.276   3.566   1.264
77038SOL     OW33010   3.257   0.254  10.281
77038SOL    HW133011   3.297   0.324  10.333
77038SOL    HW233012   3.163   0.263  10.298
77039SOL     OW33013  11.765   7.058   4.371
77039SOL    HW133014  11.775   7.151   4.392
77039SOL    HW233015  11.821   7.044   4.295
77040SOL     OW33016   9.675  11.544   5.518
77040SOL    HW133017   9.659  11.630   5.558
77040SOL    HW233018   9.589  11.512   5.493
77041SOL     OW33019  14.763   7.822  11.892
77041SOL    HW133020  14.843   7.845  11.843
77041SOL    HW233021  14.793   7.764  11.961
77042SOL     OW33022  14.736  10.627   2.997
77042SOL    HW133023  14.752  10.609   2.904
77042SOL    HW233024  14.820  10.611   3.040
77043SOL     OW33025   9.153  13.121   3.352
77043SOL    HW133026   9.238  13.079   3.349
77043SOL    HW233027   9.101  13.067   3.412
77044SOL     OW33028   0.619   0.244   1.602
77044SOL    HW133029   0.708   0.214   1.584
77044SOL    HW233030   0.592   0.287   1.521
77045SOL     OW33031  11.443  14.392   6.708
77045SOL    HW133032  11.491  14.348   6.638
77045SOL    HW233033  11.358  14.348   6.709
77046SOL     OW33034   1.884   3.056  11.354
77046SOL    HW133035   1.864   2.975  11.400
77046SOL    HW233036   1.967   3.085  11.390
77047SOL     OW33037   4.750  11.171   7.542
77047SOL    HW133038   4.814  11.154   7.472
77047SOL    HW233039   4.803  11.195   7.618
77048SOL     OW33040   1.026   9.460   5.732
77048SOL    HW133041   0.982   9.530   5.781
77048SOL    HW233042   0.964   9.388   5.731
77049SOL     OW33043   9.341   0.471  14.798
77049SOL    HW133044   9.434   0.461  14.816
77049SOL    HW233045   9.314   0.387  14.761
77050SOL     OW33046   8.248   9.804   3.582
77050SOL    HW133047   8.324   9.770   3.534
77050SOL    HW233048   8.173   9.782   3.526
77051SOL     OW33049   8.452   8.765   5.554
77051SOL    HW133050   8.372   8.715   5.573
77051SOL    HW233051   8.521   8.699   5.548
77052SOL     OW33052   0.764   2.186   3.347
77052SOL    HW133053   0.842   2.231   3.314
77052SOL    HW233054   0.712   2.256   3.388
77053SOL     OW33055  10.155  12.640  13.130
77053SOL    HW133056  10.128  12.554  13.162
77053SOL    HW233057  10.180  12.625  13.039
77054SOL     OW33058   8.097   8.625   3.160
77054SOL    HW133059   8.184   8.665   3.170
77054SOL    HW233060   8.046   8.691   3.113
77055SOL     OW33061   0.468   0.338  13.877
77055SOL    HW133062   0.452   0.428  13.903
77055SOL    HW233063   0.389   0.291  13.903
77056SOL     OW33064  13.764   0.770  14.277
77056SOL    HW133065  13.764   0.821  14.196
77056SOL    HW233066  13.717   0.689  14.254
77057SOL     OW33067   3.370   2.537  10.863
77057SOL    HW133068   3.340   2.476  10.931
77057SOL    HW233069   3.373   2.622  10.907
77058SOL     OW33070  13.104   5.646   8.438
77058SOL    HW133071  13.138   5.582   8.376
77058SOL    HW233072  13.110   5.603   8.523
77059SOL     OW33073  11.198  12.894  10.674
77059SOL    HW133074  11.264  12.960  10.694
77059SOL    HW233075  11.154  12.928  10.595
77060SOL     OW33076   1.461  11.263  14.564
77060SOL    HW133077   1.366  11.253  14.565
77060SOL    HW233078   1.491  11.209  14.637
77061SOL     OW33079   6.873  14.590   3.877
77061SOL    HW133080   6.935  14.518   3.865
77061SOL    HW233081   6.926  14.669   3.872
77062SOL     OW33082   7.363  11.127  11.103
77062SOL    HW133083   7.369  11.073  11.024
77062SOL    HW233084   7.270  11.132  11.122
77063SOL     OW33085   8.421   3.423   9.070
77063SOL    HW133086   8.326   3.434   9.073
77063SOL    HW233087   8.455   3.494   9.124
77064SOL     OW33088   3.729  14.628   9.677
77064SOL    HW133089   3.820  14.656   9.671
77064SOL    HW233090   3.732  14.533   9.673
77065SOL     OW33091   2.459  12.141   0.599
77065SOL    HW133092   2.484  12.050   0.616
77065SOL    HW233093   2.420  12.171   0.681
77066SOL     OW33094  12.070   8.197  13.847
77066SOL    HW133095  12.110   8.207  13.933
77066SOL    HW233096  12.143   8.176  13.789
77067SOL     OW33097  12.589   8.543   3.048
77067SOL    HW133098  12.622   8.512   3.133
77067SOL    HW233099  12.646   8.616   3.025
77068SOL     OW33100   9.321   9.670   8.673
77068SOL    HW133101   9.404   9.642   8.713
77068SOL    HW233102   9.334   9.763   8.654
77069SOL     OW33103   0.277  12.971   5.646
77069SOL    HW133104   0.316  12.883   5.650
77069SOL    HW233105   0.186  12.958   5.673
77070SOL     OW33106   2.747   7.082   9.638
77070SOL    HW133107   2.738   7.103   9.730
77070SOL    HW233108   2.660   7.095   9.601
77071SOL     OW33109   4.552   7.974   6.542
77071SOL    HW133110   4.630   8.020   6.574
77071SOL    HW233111   4.572   7.881   6.556
77072SOL     OW33112   2.778   9.185  12.963
77072SOL    HW133113   2.852   9.210  12.908
77072SOL    HW233114   2.816   9.174  13.051
77073SOL     OW33115  11.232  12.885  14.206
77073SOL    HW133116  11.328  12.885  14.200
77073SOL    HW233117  11.202  12.865  14.118
77074SOL     OW33118  10.852  13.387   8.814
77074SOL    HW133119  10.858  13.321   8.745
77074SOL    HW233120  10.910  13.458   8.784
77075SOL     OW33121   9.626   0.485   4.594
77075SOL    HW133122   9.661   0.556   4.541
77075SOL    HW233123   9.540   0.467   4.556
77076SOL     OW33124   7.761   3.716   8.421
77076SOL    HW133125   7.797   3.780   8.482
77076SOL    HW233126   7.832   3.654   8.406
77077SOL     OW33127  11.393   0.341  10.526
77077SOL    HW133128  11.309   0.299  10.543
77077SOL    HW233129  11.441   0.331  10.608
77078SOL     OW33130   8.647   4.359   5.156
77078SOL    HW133131   8.663   4.453   5.147
77078SOL    HW233132   8.672   4.322   5.072
77079SOL     OW33133   6.895  14.310   0.646
77079SOL    HW133134   6.837  14.386   0.639
77079SOL    HW233135   6.837  14.234   0.634
77080SOL     OW33136   3.287  10.619   5.359
77080SOL    HW133137   3.200  10.579   5.366
77080SOL    HW233138   3.299  10.634   5.266
77081SOL     OW33139   5.176   6.597  10.465
77081SOL    HW133140   5.171   6.581  10.560
77081SOL    HW233141   5.147   6.687  10.455
77082SOL     OW33142   8.679   0.529   3.147
77082SOL    HW133143   8.722   0.542   3.231
77082SOL    HW233144   8.690   0.612   3.100
77083SOL     OW33145   2.826   7.390   3.801
77083SOL    HW133146   2.780   7.450   3.743
77083SOL    HW233147   2.917   7.419   3.799
77084SOL     OW33148   1.411   9.960   2.553
77084SOL    HW133149   1.335  10.006   2.588
77084SOL    HW233150   1.485  10.017   2.576
77085SOL     OW33151   9.243   7.741   0.874
77085SOL    HW133152   9.257   7.697   0.790
77085SOL    HW233153   9.271   7.677   0.940
77086SOL     OW33154   4.137   5.095  12.474
77086SOL    HW133155   4.093   5.179  12.480
77086SOL    HW233156   4.193   5.102  12.396
77087SOL     OW33157  14.251   6.873   0.078
77087SOL    HW133158  14.242   6.786   0.039
77087SOL    HW233159  14.310   6.860   0.152
77088SOL     OW33160   2.655   2.222   5.764
77088SOL    HW133161   2.723   2.157   5.743
77088SOL    HW233162   2.580   2.195   5.711
77089SOL     OW33163   8.696   7.239   5.974
77089SOL    HW133164   8.698   7.329   5.941
77089SOL    HW233165   8.720   7.186   5.899
77090SOL     OW33166   0.617  11.805   5.430
77090SOL    HW133167   0.671  11.873   5.390
77090SOL    HW233168   0.614  11.736   5.364
77091SOL     OW33169   7.125   1.707   2.909
77091SOL    HW133170   7.089   1.753   2.833
77091SOL    HW233171   7.085   1.751   2.984
77092SOL     OW33172   1.299   0.236  12.118
77092SOL    HW133173   1.347   0.311  12.152
77092SOL    HW233174   1.293   0.176  12.191
77093SOL     OW33175  11.820   6.213   8.200
77093SOL    HW133176  11.766   6.166   8.136
77093SOL    HW233177  11.802   6.306   8.182
77094SOL     OW33178   8.052   8.154   4.751
77094SOL    HW133179   8.031   8.167   4.659
77094SOL    HW233180   7.993   8.085   4.780
77095SOL     OW33181   8.544   8.056   6.057
77095SOL    HW133182   8.639   8.045   6.060
77095SOL    HW233183   8.528   8.104   5.976
77096SOL     OW33184  14.438   8.599   7.192
77096SOL    HW133185  14.510   8.559   7.241
77096SOL    HW233186  14.448   8.693   7.208
77097SOL     OW33187   3.100   9.747   2.274
77097SOL    HW133188   3.090   9.821   2.334
77097SOL    HW233189   3.044   9.768   2.199
77098SOL     OW33190   8.000  11.231  10.821
77098SOL    HW133191   7.974  11.232  10.913
77098SOL    HW233192   7.966  11.148  10.787
77099SOL     OW33193   7.757   5.642  10.916
77099SOL    HW133194   7.835   5.613  10.868
77099SOL    HW233195   7.770   5.736  10.928
77100SOL     OW33196   7.054   0.937  12.953
77100SOL    HW133197   7.088   0.916  13.040
77100SOL    HW233198   6.959   0.942  12.966
77101SOL     OW33199  14.467   2.834  10.591
77101SOL    HW133200  14.552   2.875  10.612
77101SOL    HW233201  14.408   2.868  10.658
77102SOL     OW33202  13.899   5.435   5.991
77102SOL    HW133203  13.873   5.496   5.921
77102SOL    HW233204  13.966   5.381   5.951
77103SOL     OW33205   0.517   3.811  11.770
77103SOL    HW133206   0.483   3.874  11.834
77103SOL    HW233207   0.611   3.824  11.771
77104SOL     OW33208   9.887  10.959   2.886
77104SOL    HW133209   9.839  10.998   2.959
77104SOL    HW233210   9.973  11.001   2.889
77105SOL     OW33211   7.217   9.768  12.825
77105SOL    HW133212   7.128   9.752  12.792
77105SOL    HW233213   7.273   9.713  12.771
77106SOL     OW33214   8.084   2.512   7.324
77106SOL    HW133215   7.992   2.513   7.350
77106SOL    HW233216   8.131   2.486   7.404
77107SOL     OW33217   9.942  14.341  10.564
77107SOL    HW133218   9.968  14.308  10.478
77107SOL    HW233219   9.878  14.409  10.545
77108SOL     OW33220  14.421   9.198  10.357
77108SOL    HW133221  14.341   9.173  10.311
77108SOL    HW233222  14.395   9.208  10.448
77109SOL     OW33223   4.449   2.817   9.967
77109SOL    HW133224   4.539   2.823   9.933
77109SOL    HW233225   4.446   2.883  10.037
77110SOL     OW33226   9.737   8.032   8.721
77110SOL    HW133227   9.740   7.941   8.748
77110SOL    HW233228   9.818   8.070   8.756
77111SOL     OW33229  10.308  14.214   0.913
77111SOL    HW133230  10.404  14.218   0.915
77111SOL    HW233231  10.288  14.128   0.875
77112SOL     OW33232   6.258   2.224   0.243
77112SOL    HW133233   6.220   2.164   0.307
77112SOL    HW233234   6.228   2.310   0.269
77113SOL     OW33235   0.720  13.220   7.836
77113SOL    HW133236   0.786  13.226   7.767
77113SOL    HW233237   0.759  13.163   7.902
77114SOL     OW33238   1.209  13.710  12.017
77114SOL    HW133239   1.286  13.735  12.068
77114SOL    HW233240   1.239  13.639  11.960
77115SOL     OW33241  13.382   2.075   4.213
77115SOL    HW133242  13.418   2.023   4.284
77115SOL    HW233243  13.398   2.022   4.134
77116SOL     OW33244   1.661   1.473   9.310
77116SOL    HW133245   1.626   1.532   9.244
77116SOL    HW233246   1.650   1.520   9.393
77117SOL     OW33247   6.843   2.281   3.398
77117SOL    HW133248   6.877   2.295   3.309
77117SOL    HW233249   6.831   2.369   3.433
77118SOL     OW33250   0.358  10.265  10.948
77118SOL    HW133251   0.400  10.350  10.962
77118SOL    HW233252   0.408  10.205  11.004
77119SOL     OW33253   0.599  13.378  13.100
77119SOL    HW133254   0.643  13.408  13.180
77119SOL    HW233255   0.648  13.302  13.072
77120SOL     OW33256   1.346  11.812   7.911
77120SOL    HW133257   1.276  11.762   7.953
77120SOL    HW233258   1.393  11.853   7.983
77121SOL     OW33259   7.603   8.530   2.805
77121SOL    HW133260   7.609   8.441   2.770
77121SOL    HW233261   7.691   8.566   2.794
77122SOL     OW33262   1.703   8.074  11.065
77122SOL    HW133263   1.760   8.085  10.989
77122SOL    HW233264   1.619   8.046  11.028
77123SOL     OW33265   5.282   8.254   3.229
77123SOL    HW133266   5.298   8.215   3.315
77123SOL    HW233267   5.369   8.279   3.198
77124SOL     OW33268   4.449   7.076   8.073
77124SOL    HW133269   4.362   7.063   8.110
77124SOL    HW233270   4.454   7.014   8.000
77125SOL     OW33271   5.666   6.338   3.808
77125SOL    HW133272   5.689   6.418   3.762
77125SOL    HW233273   5.736   6.276   3.785
77126SOL     OW33274   0.784  11.182  10.176
77126SOL    HW133275   0.802  11.274  10.153
77126SOL    HW233276   0.852  11.133  10.131
77127SOL     OW33277  12.980   3.283   3.107
77127SOL    HW133278  12.969   3.201   3.059
77127SOL    HW233279  12.891   3.311   3.128
77128SOL     OW33280   3.536  13.255   8.277
77128SOL    HW133281   3.467  13.248   8.343
77128SOL    HW233282   3.590  13.328   8.306
77129SOL     OW33283   6.773   0.166   5.714
77129SOL    HW133284   6.697   0.156   5.771
77129SOL    HW233285   6.736   0.193   5.630
77130SOL     OW33286   7.105   3.281   5.002
77130SOL    HW133287   7.037   3.248   4.944
77130SOL    HW233288   7.153   3.203   5.029
77131SOL     OW33289   1.783   4.843  13.466
77131SOL    HW133290   1.706   4.815  13.415
77131SOL    HW233291   1.834   4.764  13.479
77132SOL     OW33292  12.055   0.228   0.101
77132SOL    HW133293  12.085   0.168   0.033
77132SOL    HW233294  11.960   0.234   0.086
77133SOL     OW33295   6.864   9.654   0.023
77133SOL    HW133296   6.785   9.615  14.867
77133SOL    HW233297   6.935   9.623  14.846
77134SOL     OW33298   6.658   9.701  11.659
77134SOL    HW133299   6.704   9.785  11.658
77134SOL    HW233300   6.697   9.652  11.587
77135SOL     OW33301   1.610   0.314   4.691
77135SOL    HW133302   1.645   0.403   4.685
77135SOL    HW233303   1.683   0.261   4.724
77136SOL     OW33304   2.240   2.425   9.151
77136SOL    HW133305   2.156   2.395   9.187
77136SOL    HW233306   2.234   2.406   9.057
77137SOL     OW33307  11.299   5.790  10.594
77137SOL    HW133308  11.296   5.780  10.689
77137SOL    HW233309  11.345   5.712  10.563
77138SOL     OW33310   9.574   5.829   3.691
77138SOL    HW133311   9.600   5.919   3.707
77138SOL    HW233312   9.656   5.783   3.671
77139SOL     OW33313   8.781   7.636  12.661
77139SOL    HW133314   8.732   7.675  12.590
77139SOL    HW233315   8.821   7.710  12.708
77140SOL     OW33316   6.651   6.146  13.891
77140SOL    HW133317   6.676   6.200  13.966
77140SOL    HW233318   6.639   6.058  13.928
77141SOL     OW33319   7.942   9.665   0.727
77141SOL    HW133320   8.003   9.724   0.772
77141SOL    HW233321   7.860   9.675   0.775
77142SOL     OW33322   5.274   9.384  12.585
77142SOL    HW133323   5.248   9.463  12.634
77142SOL    HW233324   5.335   9.416  12.519
77143SOL     OW33325   5.616   0.907   1.457
77143SOL    HW133326   5.615   0.846   1.531
77143SOL    HW233327   5.551   0.973   1.479
77144SOL     OW33328  11.971   0.797  14.420
77144SOL    HW133329  12.027   0.810  14.497
77144SOL    HW233330  11.967   0.883  14.379
77145SOL     OW33331   2.509   9.164   3.585
77145SOL    HW133332   2.593   9.122   3.563
77145SOL    HW233333   2.495   9.141   3.677
77146SOL     OW33334   2.027   3.424  11.399
77146SOL    HW133335   2.117   3.402  11.420
77146SOL    HW233336   2.003   3.364  11.328
77147SOL     OW33337  11.660   4.544   6.076
77147SOL    HW133338  11.654   4.451   6.099
77147SOL    HW233339  11.715   4.582   6.145
77148SOL     OW33340   1.442   9.390  12.509
77148SOL    HW133341   1.422   9.385  12.416
77148SOL    HW233342   1.519   9.335  12.521
77149SOL     OW33343   7.715   3.113   4.843
77149SOL    HW133344   7.765   3.130   4.764
77149SOL    HW233345   7.765   3.155   4.913
77150SOL     OW33346   2.805   9.537   0.889
77150SOL    HW133347   2.880   9.495   0.847
77150SOL    HW233348   2.729   9.503   0.842
77151SOL     OW33349   0.513   0.534  14.508
77151SOL    HW133350   0.575   0.478  14.555
77151SOL    HW233351   0.437   0.540  14.566
77152SOL     OW33352  10.423  12.164   8.538
77152SOL    HW133353  10.455  12.253   8.555
77152SOL    HW233354  10.471  12.109   8.600
77153SOL     OW33355   2.949  11.342   1.243
77153SOL    HW133356   3.042  11.334   1.223
77153SOL    HW233357   2.912  11.392   1.170
77154SOL     OW33358  14.835  13.966   9.496
77154SOL    HW133359  14.750  14.002   9.520
77154SOL    HW233360  14.816  13.876   9.470
77155SOL     OW33361   9.003  11.111   1.943
77155SOL    HW133362   8.941  11.176   1.911
77155SOL    HW233363   8.986  11.105   2.037
77156SOL     OW33364   8.912   1.654  14.061
77156SOL    HW133365   8.819   1.675  14.061
77156SOL    HW233366   8.926   1.610  13.976
77157SOL     OW33367   9.828   0.274   7.158
77157SOL    HW133368   9.874   0.243   7.236
77157SOL    HW233369   9.772   0.345   7.190
77158SOL     OW33370   7.208   1.022   8.989
77158SOL    HW133371   7.290   1.043   9.034
77158SOL    HW233372   7.170   0.952   9.041
77159SOL     OW33373   3.191   0.571   4.800
77159SOL    HW133374   3.115   0.539   4.849
77159SOL    HW233375   3.260   0.580   4.865
77160SOL     OW33376  12.588   8.577  14.080
77160SOL    HW133377  12.522   8.615  14.022
77160SOL    HW233378  12.591   8.637  14.155
77161SOL     OW33379  10.312   4.008   6.596
77161SOL    HW133380  10.249   3.940   6.571
77161SOL    HW233381  10.261   4.074   6.642
77162SOL     OW33382   9.945  13.602   9.608
77162SOL    HW133383   9.928  13.512   9.583
77162SOL    HW233384   9.863  13.648   9.591
77163SOL     OW33385   7.484   3.958   0.921
77163SOL    HW133386   7.542   4.005   0.981
77163SOL    HW233387   7.536   3.884   0.890
77164SOL     OW33388   6.886  11.326   7.655
77164SOL    HW133389   6.812  11.284   7.610
77164SOL    HW233390   6.878  11.419   7.634
77165SOL     OW33391  12.366   6.282   3.451
77165SOL    HW133392  12.397   6.200   3.412
77165SOL    HW233393  12.300   6.255   3.515
77166SOL     OW33394   0.754  10.392   1.380
77166SOL    HW133395   0.822  10.424   1.321
77166SOL    HW233396   0.763  10.445   1.459
77167SOL     OW33397   8.811   4.706   5.403
77167SOL    HW133398   8.854   4.632   5.360
77167SOL    HW233399   8.816   4.685   5.496
77168SOL     OW33400   4.209  13.988   4.213
77168SOL    HW133401   4.157  13.952   4.285
77168SOL    HW233402   4.172  14.075   4.198
77169SOL     OW33403   0.591   2.089  14.333
77169SOL    HW133404   0.606   2.008  14.382
77169SOL    HW233405   0.565   2.153  14.399
77170SOL     OW33406   3.889  14.345   4.082
77170SOL    HW133407   3.860  14.415   4.024
77170SOL    HW233408   3.862  14.372   4.169
77171SOL     OW33409   4.633   4.332  12.921
77171SOL    HW133410   4.564   4.398  12.929
77171SOL    HW233411   4.588   4.255  12.888
77172SOL     OW33412   1.402   6.544  13.370
77172SOL    HW133413   1.431   6.507  13.287
77172SOL    HW233414   1.474   6.524  13.431
77173SOL     OW33415  13.172   6.680   7.212
77173SOL    HW133416  13.234   6.703   7.143
77173SOL    HW233417  13.181   6.750   7.277
77174SOL     OW33418   0.949   6.361   4.729
77174SOL    HW133419   0.958   6.437   4.787
77174SOL    HW233420   1.039   6.343   4.700
77175SOL     OW33421   4.209  12.005   5.715
77175SOL    HW133422   4.269  12.037   5.782
77175SOL    HW233423   4.125  12.045   5.736
77176SOL     OW33424   6.633  11.954   7.035
77176SOL    HW133425   6.667  11.944   7.123
77176SOL    HW233426   6.620  11.865   7.004
77177SOL     OW33427   4.602  12.695  10.177
77177SOL    HW133428   4.610  12.691  10.081
77177SOL    HW233429   4.516  12.657  10.196
77178SOL     OW33430   9.506   9.732   2.110
77178SOL    HW133431   9.483   9.799   2.174
77178SOL    HW233432   9.575   9.771   2.057
77179SOL     OW33433   6.801  14.564   2.447
77179SOL    HW133434   6.885  14.570   2.492
77179SOL    HW233435   6.741  14.615   2.501
77180SOL     OW33436   8.353   4.528   1.617
77180SOL    HW133437   8.393   4.615   1.610
77180SOL    HW233438   8.389   4.492   1.698
77181SOL     OW33439  12.854  12.482   0.401
77181SOL    HW133440  12.815  12.491   0.314
77181SOL    HW233441  12.948  12.491   0.386
77182SOL     OW33442   0.875   5.407  11.107
77182SOL    HW133443   0.931   5.469  11.155
77182SOL    HW233444   0.820   5.368  11.174
77183SOL     OW33445  12.849   2.062   1.798
77183SOL    HW133446  12.815   2.146   1.767
77183SOL    HW233447  12.839   2.065   1.893
77184SOL     OW33448   8.793   6.011   1.495
77184SOL    HW133449   8.754   6.097   1.480
77184SOL    HW233450   8.736   5.970   1.559
77185SOL     OW33451   2.618  10.811   8.772
77185SOL    HW133452   2.537  10.834   8.817
77185SOL    HW233453   2.615  10.861   8.690
77186SOL     OW33454   7.054  12.624   7.950
77186SOL    HW133455   7.052  12.578   8.034
77186SOL    HW233456   7.143  12.610   7.917
77187SOL     OW33457   1.387   5.935   7.718
77187SOL    HW133458   1.402   6.029   7.728
77187SOL    HW233459   1.404   5.899   7.805
77188SOL     OW33460   2.983   7.792  12.963
77188SOL    HW133461   2.999   7.874  12.917
77188SOL    HW233462   2.893   7.769  12.940
77189SOL     OW33463   2.293   5.186   2.380
77189SOL    HW133464   2.285   5.271   2.423
77189SOL    HW233465   2.283   5.205   2.287
77190SOL     OW33466  11.634   7.193   2.625
77190SOL    HW133467  11.700   7.223   2.562
77190SOL    HW233468  11.639   7.098   2.622
77191SOL     OW33469   3.210  11.899   7.109
77191SOL    HW133470   3.210  11.862   7.197
77191SOL    HW233471   3.164  11.835   7.055
77192SOL     OW33472   8.504  11.079   4.804
77192SOL    HW133473   8.527  11.019   4.733
77192SOL    HW233474   8.587  11.119   4.829
77193SOL     OW33475  10.314   5.401  10.591
77193SOL    HW133476  10.260   5.363  10.521
77193SOL    HW233477  10.392   5.346  10.594
77194SOL     OW33478  14.431  10.787  10.166
77194SOL    HW133479  14.343  10.785  10.205
77194SOL    HW233480  14.470  10.704  10.192
77195SOL     OW33481  13.624   0.755   4.381
77195SOL    HW133482  13.562   0.812   4.427
77195SOL    HW233483  13.615   0.778   4.289
77196SOL     OW33484  12.890   9.751   6.368
77196SOL    HW133485  12.844   9.704   6.438
77196SOL    HW233486  12.935   9.682   6.319
77197SOL     OW33487  12.676  10.965   6.611
77197SOL    HW133488  12.654  10.881   6.571
77197SOL    HW233489  12.597  10.991   6.658
77198SOL     OW33490   0.806   2.500   7.147
77198SOL    HW133491   0.749   2.425   7.159
77198SOL    HW233492   0.752   2.575   7.171
77199SOL     OW33493  12.982   9.922   0.452
77199SOL    HW133494  12.910   9.978   0.480
77199SOL    HW233495  12.964   9.904   0.360
77200SOL     OW33496  13.817  13.888  12.856
77200SOL    HW133497  13.874  13.815  12.831
77200SOL    HW233498  13.842  13.908  12.946
77201SOL     OW33499  12.447   1.996   1.323
77201SOL    HW133500  12.411   1.982   1.410
77201SOL    HW233501  12.389   1.948   1.264
77202SOL     OW33502  12.553  13.442   4.329
77202SOL    HW133503  12.562  13.404   4.417
77202SOL    HW233504  12.640  13.474   4.308
77203SOL     OW33505   0.132   1.507   0.954
77203SOL    HW133506   0.113   1.416   0.932
77203SOL    HW233507   0.201   1.532   0.893
77204SOL     OW33508   6.704  10.920   5.889
77204SOL    HW133509   6.729  10.872   5.968
77204SOL    HW233510   6.772  10.986   5.878
77205SOL     OW33511  11.306  12.698  13.608
77205SOL    HW133512  11.212  12.696  13.592
77205SOL    HW233513  11.327  12.790  13.621
77206SOL     OW33514   9.847   1.157   8.593
77206SOL    HW133515   9.812   1.207   8.667
77206SOL    HW233516   9.942   1.155   8.609
77207SOL     OW33517   1.784   7.096   0.723
77207SOL    HW133518   1.711   7.072   0.780
77207SOL    HW233519   1.818   7.177   0.761
77208SOL     OW33520  10.494   4.298  12.388
77208SOL    HW133521  10.457   4.210  12.393
77208SOL    HW233522  10.418   4.356  12.389
77209SOL     OW33523   9.480   7.707  13.423
77209SOL    HW133524   9.490   7.780  13.362
77209SOL    HW233525   9.507   7.743  13.508
77210SOL     OW33526   1.159  10.061  12.996
77210SOL    HW133527   1.188  10.053  13.087
77210SOL    HW233528   1.090  10.128  12.999
77211SOL     OW33529   8.399   6.733   2.978
77211SOL    HW133530   8.464   6.779   2.925
77211SOL    HW233531   8.334   6.702   2.915
77212SOL     OW33532  11.719   0.299   8.666
77212SOL    HW133533  11.657   0.293   8.593
77212SOL    HW233534  11.733   0.208   8.692
77213SOL     OW33535  13.142   0.979   6.564
77213SOL    HW133536  13.053   0.965   6.598
77213SOL    HW233537  13.173   1.056   6.611
77214SOL     OW33538   3.924  11.883   1.594
77214SOL    HW133539   3.877  11.923   1.667
77214SOL    HW233540   3.898  11.790   1.597
77215SOL     OW33541  11.540   6.152  11.565
77215SOL    HW133542  11.543   6.085  11.633
77215SOL    HW233543  11.473   6.122  11.503
77216SOL     OW33544  12.774  13.102   8.722
77216SOL    HW133545  12.683  13.076   8.711
77216SOL    HW233546  12.824  13.021   8.713
77217SOL     OW33547   7.243  11.775  13.338
77217SOL    HW133548   7.254  11.870  13.344
77217SOL    HW233549   7.286  11.752  13.256
77218SOL     OW33550   4.531   9.695   3.062
77218SOL    HW133551   4.489   9.689   3.147
77218SOL    HW233552   4.624   9.705   3.081
77219SOL     OW33553   5.718   2.937   6.064
77219SOL    HW133554   5.699   2.983   5.982
77219SOL    HW233555   5.632   2.909   6.096
77220SOL     OW33556   4.314  12.121   1.103
77220SOL    HW133557   4.224  12.153   1.096
77220SOL    HW233558   4.314  12.068   1.183
77221SOL     OW33559   7.548   0.861   4.083
77221SOL    HW133560   7.609   0.908   4.026
77221SOL    HW233561   7.513   0.927   4.141
77222SOL     OW33562   1.597   1.786  13.210
77222SOL    HW133563   1.548   1.868  13.216
77222SOL    HW233564   1.687   1.810  13.235
77223SOL     OW33565   9.405  12.065   0.050
77223SOL    HW133566   9.427  12.135   0.112
77223SOL    HW233567   9.344  12.009   0.097
77224SOL     OW33568   1.517  10.694  10.042
77224SOL    HW133569   1.604  10.724  10.070
77224SOL    HW233570   1.507  10.730   9.954
77225SOL     OW33571   0.741   5.884   5.697
77225SOL    HW133572   0.756   5.953   5.632
77225SOL    HW233573   0.693   5.816   5.649
77226SOL     OW33574   0.882   7.451  10.792
77226SOL    HW133575   0.845   7.397  10.722
77226SOL    HW233576   0.819   7.523  10.802
77227SOL     OW33577   1.880  13.813   8.209
77227SOL    HW133578   1.974  13.799   8.207
77227SOL    HW233579   1.864  13.859   8.291
77228SOL     OW33580   9.970   8.827   9.133
77228SOL    HW133581  10.065   8.819   9.130
77228SOL    HW233582   9.953   8.880   9.211
77229SOL     OW33583  11.632   9.805   4.757
77229SOL    HW133584  11.664   9.728   4.710
77229SOL    HW233585  11.709   9.861   4.766
77230SOL     OW33586   4.212   3.468  13.769
77230SOL    HW133587   4.228   3.562  13.772
77230SOL    HW233588   4.117   3.460  13.759
77231SOL     OW33589   1.062   2.810   7.318
77231SOL    HW133590   1.149   2.847   7.332
77231SOL    HW233591   1.024   2.805   7.405
77232SOL     OW33592   9.673   8.716   7.295
77232SOL    HW133593   9.682   8.672   7.211
77232SOL    HW233594   9.681   8.646   7.360
77233SOL     OW33595  12.348   7.194  10.483
77233SOL    HW133596  12.282   7.260  10.462
77233SOL    HW233597  12.412   7.199  10.413
77234SOL     OW33598   6.573   1.934   1.302
77234SOL    HW133599   6.543   1.878   1.374
77234SOL    HW233600   6.668   1.920   1.300
77235SOL     OW33601   6.920   6.461   1.043
77235SOL    HW133602   6.897   6.419   0.961
77235SOL    HW233603   6.927   6.389   1.106
77236SOL     OW33604  12.370   5.765   0.737
77236SOL    HW133605  12.287   5.725   0.762
77236SOL    HW233606  12.436   5.705   0.769
77237SOL     OW33607   6.036   9.570   2.583
77237SOL    HW133608   6.047   9.483   2.621
77237SOL    HW233609   6.115   9.583   2.530
77238SOL     OW33610  12.276  13.538   5.663
77238SOL    HW133611  12.338  13.525   5.591
77238SOL    HW233612  12.300  13.471   5.727
77239SOL     OW33613   0.557   4.632   3.866
77239SOL    HW133614   0.473   4.599   3.834
77239SOL    HW233615   0.596   4.557   3.912
77240SOL     OW33616   3.561   3.371   1.087
77240SOL    HW133617   3.499   3.339   1.022
77240SOL    HW233618   3.643   3.380   1.039
77241SOL     OW33619   8.597  14.864   5.075
77241SOL    HW133620   8.669   0.037   5.042
77241SOL    HW233621   8.627  14.832   5.160
77242SOL     OW33622   4.782  14.034  13.838
77242SOL    HW133623   4.867  14.064  13.871
77242SOL    HW233624   4.800  14.004  13.749
77243SOL     OW33625   1.949   4.610  13.538
77243SOL    HW133626   1.995   4.540  13.491
77243SOL    HW233627   1.968   4.593  13.630
77244SOL     OW33628   4.642   4.472   9.974
77244SOL    HW133629   4.719   4.433   9.932
77244SOL    HW233630   4.611   4.404  10.035
77245SOL     OW33631  13.765   3.663   3.437
77245SOL    HW133632  13.820   3.683   3.513
77245SOL    HW233633  13.777   3.569   3.423
77246SOL     OW33634   7.218   2.870  11.589
77246SOL    HW133635   7.277   2.942  11.609
77246SOL    HW233636   7.276   2.797  11.565
77247SOL     OW33637   1.404  12.686   2.891
77247SOL    HW133638   1.498  12.700   2.891
77247SOL    HW233639   1.378  12.693   2.982
77248SOL     OW33640  14.579   6.366   6.982
77248SOL    HW133641  14.624   6.446   6.957
77248SOL    HW233642  14.649   6.305   7.004
77249SOL     OW33643   6.785   3.252   5.159
77249SOL    HW133644   6.774   3.157   5.169
77249SOL    HW233645   6.858   3.273   5.218
77250SOL     OW33646   6.413   0.225   5.548
77250SOL    HW133647   6.395   0.275   5.469
77250SOL    HW233648   6.424   0.291   5.617
77251SOL     OW33649   7.390   0.020  13.732
77251SOL    HW133650   7.344  14.821  13.759
77251SOL    HW233651   7.483  14.879  13.744
77252SOL     OW33652   8.616   8.763   2.367
77252SOL    HW133653   8.704   8.734   2.391
77252SOL    HW233654   8.587   8.700   2.301
77253SOL     OW33655   6.928   1.394   7.715
77253SOL    HW133656   6.841   1.429   7.733
77253SOL    HW233657   6.976   1.405   7.797
77254SOL     OW33658   6.440   5.429   4.581
77254SOL    HW133659   6.508   5.496   4.577
77254SOL    HW233660   6.359   5.477   4.595
77255SOL     OW33661   5.045  13.842   4.165
77255SOL    HW133662   5.080  13.762   4.205
77255SOL    HW233663   4.951  13.839   4.185
77256SOL     OW33664   6.408   9.026   5.176
77256SOL    HW133665   6.381   9.064   5.093
77256SOL    HW233666   6.326   9.012   5.224
77257SOL     OW33667   4.028   7.955  12.505
77257SOL    HW133668   4.044   8.026  12.568
77257SOL    HW233669   4.114   7.918  12.488
77258SOL     OW33670   4.814   1.238   3.261
77258SOL    HW133671   4.780   1.235   3.172
77258SOL    HW233672   4.740   1.265   3.315
77259SOL     OW33673  12.107  14.830   4.494
77259SOL    HW133674  12.163  14.754   4.485
77259SOL    HW233675  12.147   0.016   4.438
77260SOL     OW33676   9.275  13.661   6.292
77260SOL    HW133677   9.331  13.586   6.274
77260SOL    HW233678   9.198  13.624   6.335
77261SOL     OW33679   0.341  13.138   1.685
77261SOL    HW133680   0.313  13.221   1.646
77261SOL    HW233681   0.281  13.073   1.649
77262SOL     OW33682  12.264   3.375  12.505
77262SOL    HW133683  12.271   3.391  12.411
77262SOL    HW233684  12.280   3.461  12.545
77263SOL     OW33685   3.755   1.533   4.107
77263SOL    HW133686   3.835   1.503   4.151
77263SOL    HW233687   3.786   1.599   4.044
77264SOL     OW33688  11.500  14.012   7.349
77264SOL    HW133689  11.557  14.050   7.415
77264SOL    HW233690  11.473  13.928   7.386
77265SOL     OW33691   2.607   9.697   0.980
77265SOL    HW133692   2.570   9.713   0.894
77265SOL    HW233693   2.677   9.634   0.965
77266SOL     OW33694   1.281   2.133   4.619
77266SOL    HW133695   1.229   2.213   4.623
77266SOL    HW233696   1.324   2.128   4.704
77267SOL     OW33697   0.279   0.418  12.887
77267SOL    HW133698   0.318   0.490  12.837
77267SOL    HW233699   0.345   0.396  12.952
77268SOL     OW33700   2.735   4.540   5.973
77268SOL    HW133701   2.661   4.505   6.022
77268SOL    HW233702   2.770   4.610   6.027
77269SOL     OW33703   1.218   0.402  12.785
77269SOL    HW133704   1.178   0.450  12.857
77269SOL    HW233705   1.308   0.387  12.814
77270SOL     OW33706   7.968   0.664   7.746
77270SOL    HW133707   8.014   0.610   7.682
77270SOL    HW233708   7.883   0.620   7.757
77271SOL     OW33709   0.791   7.470   6.100
77271SOL    HW133710   0.769   7.382   6.132
77271SOL    HW233711   0.708   7.505   6.066
77272SOL     OW33712   3.098   9.369  14.879
77272SOL    HW133713   3.013   9.336   0.029
77272SOL    HW233714   3.143   9.395   0.078
77273SOL     OW33715   6.791  10.870   8.661
77273SOL    HW133716   6.834  10.872   8.575
77273SOL    HW233717   6.861  10.892   8.722
77274SOL     OW33718   9.270   5.877  12.765
77274SOL    HW133719   9.272   5.923  12.849
77274SOL    HW233720   9.356   5.836  12.759
77275SOL     OW33721  11.334   9.574  14.351
77275SOL    HW133722  11.407   9.564  14.412
77275SOL    HW233723  11.298   9.660  14.371
77276SOL     OW33724  14.490  13.371   9.655
77276SOL    HW133725  14.552  13.301   9.639
77276SOL    HW233726  14.494  13.387   9.749
77277SOL     OW33727   6.608   0.785  14.046
77277SOL    HW133728   6.520   0.747  14.043
77277SOL    HW233729   6.631   0.784  14.140
77278SOL     OW33730   2.339  10.874   4.755
77278SOL    HW133731   2.279  10.848   4.825
77278SOL    HW233732   2.283  10.879   4.677
77279SOL     OW33733  13.095   2.024   4.326
77279SOL    HW133734  13.095   1.991   4.237
77279SOL    HW233735  13.154   1.966   4.374
77280SOL     OW33736   6.242  10.735   3.097
77280SOL    HW133737   6.327  10.763   3.063
77280SOL    HW233738   6.254  10.729   3.191
77281SOL     OW33739  11.931   6.018   5.561
77281SOL    HW133740  11.884   6.069   5.627
77281SOL    HW233741  12.023   6.031   5.581
77282SOL     OW33742  14.029  11.521  11.316
77282SOL    HW133743  13.933  11.520  11.315
77282SOL    HW233744  14.054  11.428  11.320
77283SOL     OW33745   8.565   9.787   4.978
77283SOL    HW133746   8.633   9.812   5.040
77283SOL    HW233747   8.491   9.845   4.997
77284SOL     OW33748   2.489   4.566   1.079
77284SOL    HW133749   2.549   4.529   1.143
77284SOL    HW233750   2.486   4.501   1.008
77285SOL     OW33751   7.003   4.077   7.613
77285SOL    HW133752   7.063   4.093   7.685
77285SOL    HW233753   6.955   4.159   7.602
77286SOL     OW33754   7.959   2.276   3.953
77286SOL    HW133755   7.886   2.336   3.964
77286SOL    HW233756   8.028   2.329   3.912
77287SOL     OW33757  14.157   3.000   6.223
77287SOL    HW133758  14.068   2.962   6.223
77287SOL    HW233759  14.207   2.941   6.279
77288SOL     OW33760   4.528   3.188   5.399
77288SOL    HW133761   4.440   3.173   5.433
77288SOL    HW233762   4.551   3.107   5.354
77289SOL     OW33763   5.336  11.708   7.149
77289SOL    HW133764   5.316  11.699   7.243
77289SOL    HW233765   5.431  11.711   7.145
77290SOL     OW33766  13.048   9.382  10.719
77290SOL    HW133767  13.107   9.330  10.664
77290SOL    HW233768  13.074   9.362  10.809
77291SOL     OW33769   4.056   9.131  12.327
77291SOL    HW133770   4.008   9.098  12.250
77291SOL    HW233771   3.992   9.187  12.371
77292SOL     OW33772  14.493   9.377  11.837
77292SOL    HW133773  14.445   9.458  11.854
77292SOL    HW233774  14.563   9.403  11.777
77293SOL     OW33775   5.242  12.781   3.403
77293SOL    HW133776   5.160  12.765   3.356
77293SOL    HW233777   5.217  12.832   3.480
77294SOL     OW33778   1.469  13.308  14.100
77294SOL    HW133779   1.504  13.337  14.184
77294SOL    HW233780   1.509  13.223  14.085
77295SOL     OW33781   8.382   2.077  13.594
77295SOL    HW133782   8.458   2.135  13.583
77295SOL    HW233783   8.409   1.996  13.551
77296SOL     OW33784   9.524  10.861   3.897
77296SOL    HW133785   9.484  10.781   3.933
77296SOL    HW233786   9.460  10.930   3.915
77297SOL     OW33787  12.401   3.913   6.741
77297SOL    HW133788  12.447   3.930   6.658
77297SOL    HW233789  12.309   3.932   6.722
77298SOL     OW33790   2.202  14.335  13.652
77298SOL    HW133791   2.234  14.275  13.719
77298SOL    HW233792   2.181  14.278  13.578
77299SOL     OW33793   6.141   0.180   8.210
77299SOL    HW133794   6.081   0.144   8.274
77299SOL    HW233795   6.106   0.152   8.125
77300SOL     OW33796   5.735   2.538   3.869
77300SOL    HW133797   5.652   2.538   3.820
77300SOL    HW233798   5.744   2.449   3.901
77301SOL     OW33799   6.893  13.011   3.703
77301SOL    HW133800   6.831  13.002   3.630
77301SOL    HW233801   6.843  12.985   3.780
77302SOL     OW33802   9.984  12.563  12.105
77302SOL    HW133803  10.075  12.544  12.083
77302SOL    HW233804   9.951  12.481  12.142
77303SOL     OW33805   8.399   7.240  12.414
77303SOL    HW133806   8.451   7.302  12.363
77303SOL    HW233807   8.463   7.191  12.466
77304SOL     OW33808   8.320  13.750  13.200
77304SOL    HW133809   8.399  13.801  13.183
77304SOL    HW233810   8.352  13.669  13.241
77305SOL     OW33811   5.099   6.232  12.680
77305SOL    HW133812   5.116   6.206  12.771
77305SOL    HW233813   5.131   6.322  12.674
77306SOL     OW33814   1.580   7.279   5.983
77306SOL    HW133815   1.560   7.187   6.000
77306SOL    HW233816   1.646   7.276   5.913
77307SOL     OW33817   0.073   7.509   7.105
77307SOL    HW133818   0.136   7.446   7.139
77307SOL    HW233819   0.015   7.457   7.049
77308SOL     OW33820   4.876   6.707   3.870
77308SOL    HW133821   4.823   6.705   3.949
77308SOL    HW233822   4.925   6.789   3.876
77309SOL     OW33823  14.827   2.991   7.672
77309SOL    HW133824  14.740   3.009   7.636
77309SOL    HW233825   0.006   3.042   7.616
77310SOL     OW33826   2.965   2.575   9.389
77310SOL    HW133827   2.926   2.491   9.411
77310SOL    HW233828   2.912   2.640   9.435
77311SOL     OW33829  13.424   2.607   1.972
77311SOL    HW133830  13.457   2.545   1.907
77311SOL    HW233831  13.418   2.690   1.925
77312SOL     OW33832  12.021  10.624   6.794
77312SOL    HW133833  12.075  10.692   6.753
77312SOL    HW233834  11.984  10.575   6.721
77313SOL     OW33835   6.871  10.506   5.096
77313SOL    HW133836   6.797  10.448   5.110
77313SOL    HW233837   6.936  10.478   5.161
77314SOL     OW33838   6.167   7.862  13.990
77314SOL    HW133839   6.247   7.862  13.939
77314SOL    HW233840   6.108   7.803  13.943
77315SOL     OW33841   1.742  13.226   4.047
77315SOL    HW133842   1.690  13.195   4.120
77315SOL    HW233843   1.680  13.272   3.990
77316SOL     OW33844   4.527   2.485  13.718
77316SOL    HW133845   4.537   2.541  13.795
77316SOL    HW233846   4.545   2.542  13.644
77317SOL     OW33847   1.053   8.020   7.620
77317SOL    HW133848   0.982   8.011   7.683
77317SOL    HW233849   1.065   7.932   7.584
77318SOL     OW33850   5.329  13.724   9.975
77318SOL    HW133851   5.363  13.813   9.968
77318SOL    HW233852   5.240  13.735  10.009
77319SOL     OW33853   7.401   4.262   7.312
77319SOL    HW133854   7.381   4.220   7.396
77319SOL    HW233855   7.318   4.258   7.264
77320SOL     OW33856   9.227   0.640   7.294
77320SOL    HW133857   9.216   0.700   7.220
77320SOL    HW233858   9.149   0.654   7.347
77321SOL     OW33859  13.962  11.613  12.414
77321SOL    HW133860  14.027  11.680  12.392
77321SOL    HW233861  13.938  11.575  12.330
77322SOL     OW33862  11.121   4.080   8.752
77322SOL    HW133863  11.045   4.028   8.728
77322SOL    HW233864  11.176   4.080   8.674
77323SOL     OW33865   7.307   2.200   4.251
77323SOL    HW133866   7.265   2.251   4.182
77323SOL    HW233867   7.246   2.129   4.268
77324SOL     OW33868   9.962   8.112   3.022
77324SOL    HW133869   9.989   8.048   3.088
77324SOL    HW233870   9.986   8.072   2.938
77325SOL     OW33871   6.999   5.951  12.398
77325SOL    HW133872   6.950   5.901  12.463
77325SOL    HW233873   7.016   5.890  12.327
77326SOL     OW33874   9.915  13.693   3.689
77326SOL    HW133875  10.005  13.699   3.720
77326SOL    HW233876   9.872  13.771   3.723
77327SOL     OW33877   9.066   0.956   3.101
77327SOL    HW133878   9.103   0.892   3.041
77327SOL    HW233879   9.140   1.011   3.126
77328SOL     OW33880   8.309   3.290   2.651
77328SOL    HW133881   8.263   3.219   2.606
77328SOL    HW233882   8.258   3.306   2.730
77329SOL     OW33883  12.139  10.439   5.213
77329SOL    HW133884  12.076  10.405   5.276
77329SOL    HW233885  12.221  10.395   5.236
77330SOL     OW33886  12.479   4.548  12.472
77330SOL    HW133887  12.455   4.638  12.491
77330SOL    HW233888  12.541   4.554  12.400
77331SOL     OW33889  14.143   7.109   2.208
77331SOL    HW133890  14.108   7.020   2.210
77331SOL    HW233891  14.092   7.156   2.274
77332SOL     OW33892   9.896   2.983   3.480
77332SOL    HW133893   9.817   3.036   3.466
77332SOL    HW233894   9.866   2.892   3.468
77333SOL     OW33895   7.314   3.026  13.732
77333SOL    HW133896   7.294   2.934  13.751
77333SOL    HW233897   7.409   3.029  13.724
77334SOL     OW33898   5.163  11.429   6.087
77334SOL    HW133899   5.073  11.431   6.055
77334SOL    HW233900   5.155  11.424   6.182
77335SOL     OW33901   5.293  13.517   9.783
77335SOL    HW133902   5.248  13.463   9.847
77335SOL    HW233903   5.300  13.603   9.824
77336SOL     OW33904  14.188   4.298  10.307
77336SOL    HW133905  14.198   4.335  10.394
77336SOL    HW233906  14.277   4.276  10.279
77337SOL     OW33907   5.490  11.337  14.755
77337SOL    HW133908   5.518  11.423  14.786
77337SOL    HW233909   5.428  11.307  14.821
77338SOL     OW33910  11.766   3.907   1.132
77338SOL    HW133911  11.714   3.828   1.148
77338SOL    HW233912  11.789   3.938   1.220
77339SOL     OW33913   6.550   3.075  10.764
77339SOL    HW133914   6.523   3.067  10.672
77339SOL    HW233915   6.580   2.987  10.787
77340SOL     OW33916   6.525   5.529  12.492
77340SOL    HW133917   6.440   5.493  12.521
77340SOL    HW233918   6.547   5.478  12.415
77341SOL     OW33919   0.329   4.870  13.974
77341SOL    HW133920   0.418   4.903  13.962
77341SOL    HW233921   0.340   4.777  13.993
77342SOL     OW33922   0.093   9.548   2.415
77342SOL    HW133923   0.185   9.558   2.390
77342SOL    HW233924   0.094   9.486   2.488
77343SOL     OW33925  13.875   4.503   8.514
77343SOL    HW133926  13.890   4.588   8.557
77343SOL    HW233927  13.957   4.485   8.467
77344SOL     OW33928   4.831   4.577   7.550
77344SOL    HW133929   4.824   4.535   7.636
77344SOL    HW233930   4.852   4.506   7.490
77345SOL     OW33931   4.334   5.941  11.776
77345SOL    HW133932   4.388   5.931  11.855
77345SOL    HW233933   4.297   5.854  11.762
77346SOL     OW33934   2.788  14.522   1.725
77346SOL    HW133935   2.702  14.565   1.733
77346SOL    HW233936   2.850  14.594   1.715
77347SOL     OW33937  10.213  14.345   1.279
77347SOL    HW133938  10.287  14.285   1.290
77347SOL    HW233939  10.173  14.318   1.197
77348SOL     OW33940  14.058  12.481   7.970
77348SOL    HW133941  14.115  12.461   8.044
77348SOL    HW233942  14.077  12.573   7.949
77349SOL     OW33943  11.128   6.084  13.942
77349SOL    HW133944  11.188   6.146  13.901
77349SOL    HW233945  11.167   6.064  14.027
77350SOL     OW33946   2.424   8.198   6.745
77350SOL    HW133947   2.422   8.200   6.649
77350SOL    HW233948   2.339   8.160   6.769
77351SOL     OW33949  10.008   3.719   8.673
77351SOL    HW133950   9.936   3.664   8.640
77351SOL    HW233951   9.992   3.724   8.767
77352SOL     OW33952  13.091   3.164   6.675
77352SOL    HW133953  13.142   3.199   6.601
77352SOL    HW233954  13.155   3.115   6.727
77353SOL     OW33955  11.460   0.052  12.076
77353SOL    HW133956  11.377   0.099  12.078
77353SOL    HW233957  11.437  14.843  12.104
77354SOL     OW33958   3.854  11.000   5.755
77354SOL    HW133959   3.791  11.011   5.683
77354SOL    HW233960   3.806  11.026   5.833
77355SOL     OW33961   8.655  11.802  13.341
77355SOL    HW133962   8.630  11.847  13.423
77355SOL    HW233963   8.733  11.850  13.311
77356SOL     OW33964  10.551   7.718  10.277
77356SOL    HW133965  10.622   7.702  10.339
77356SOL    HW233966  10.564   7.653  10.208
77357SOL     OW33967   7.391   2.147   0.362
77357SOL    HW133968   7.480   2.137   0.331
77357SOL    HW233969   7.345   2.191   0.290
77358SOL     OW33970   9.691   0.918  11.587
77358SOL    HW133971   9.617   0.866  11.557
77358SOL    HW233972   9.755   0.854  11.617
77359SOL     OW33973  11.867   0.758  10.492
77359SOL    HW133974  11.786   0.808  10.498
77359SOL    HW233975  11.877   0.719  10.579
77360SOL     OW33976   5.895  10.412   2.275
77360SOL    HW133977   5.935  10.348   2.333
77360SOL    HW233978   5.809  10.429   2.314
77361SOL     OW33979   1.949  10.785   3.235
77361SOL    HW133980   2.022  10.824   3.187
77361SOL    HW233981   1.942  10.696   3.200
77362SOL     OW33982   4.535   4.564  13.107
77362SOL    HW133983   4.604   4.529  13.165
77362SOL    HW233984   4.501   4.640  13.155
77363SOL     OW33985   8.415   2.037   5.370
77363SOL    HW133986   8.374   2.042   5.284
77363SOL    HW233987   8.347   2.004   5.428
77364SOL     OW33988  13.212   8.829   1.552
77364SOL    HW133989  13.280   8.768   1.581
77364SOL    HW233990  13.215   8.901   1.615
77365SOL     OW33991   8.670   7.285   3.179
77365SOL    HW133992   8.628   7.200   3.184
77365SOL    HW233993   8.650   7.327   3.263
77366SOL     OW33994   9.811   0.429   1.919
77366SOL    HW133995   9.792   0.363   1.987
77366SOL    HW233996   9.798   0.513   1.964
77367SOL     OW33997   1.291  11.312  11.620
77367SOL    HW133998   1.326  11.255  11.551
77367SOL    HW233999   1.271  11.253  11.692
77368SOL     OW34000  11.098  12.860   4.057
77368SOL    HW134001  11.070  12.783   4.009
77368SOL    HW234002  11.072  12.934   4.002
77369SOL     OW34003   7.752   6.751   4.064
77369SOL    HW134004   7.671   6.703   4.049
77369SOL    HW234005   7.747   6.779   4.155
77370SOL     OW34006   0.169  10.252  11.544
77370SOL    HW134007   0.225  10.330  11.543
77370SOL    HW234008   0.200  10.202  11.620
77371SOL     OW34009  13.313   6.579   1.728
77371SOL    HW134010  13.385   6.556   1.668
77371SOL    HW234011  13.297   6.498   1.776
77372SOL     OW34012  14.490   9.259  13.107
77372SOL    HW134013  14.474   9.172  13.145
77372SOL    HW234014  14.480   9.320  13.181
77373SOL     OW34015   8.144   3.325   0.740
77373SOL    HW134016   8.126   3.263   0.811
77373SOL    HW234017   8.221   3.290   0.696
77374SOL     OW34018   5.817  13.586  13.693
77374SOL    HW134019   5.800  13.679  13.704
77374SOL    HW234020   5.906  13.574  13.727
77375SOL     OW34021   6.406   6.829   9.318
77375SOL    HW134022   6.350   6.903   9.295
77375SOL    HW234023   6.357   6.782   9.386
77376SOL     OW34024  11.963   5.562   3.021
77376SOL    HW134025  11.981   5.648   2.983
77376SOL    HW234026  11.994   5.568   3.111
77377SOL     OW34027  10.861   9.821   9.960
77377SOL    HW134028  10.818   9.862   9.885
77377SOL    HW234029  10.895   9.738   9.925
77378SOL     OW34030   8.041  11.541   8.139
77378SOL    HW134031   7.984  11.584   8.202
77378SOL    HW234032   8.113  11.506   8.191
77379SOL     OW34033   8.388   0.959  13.846
77379SOL    HW134034   8.423   0.924  13.764
77379SOL    HW234035   8.407   1.053  13.841
77380SOL     OW34036   4.981  11.817  14.350
77380SOL    HW134037   4.901  11.818  14.297
77380SOL    HW234038   4.952  11.791  14.437
77381SOL     OW34039  12.645   4.570   4.986
77381SOL    HW134040  12.579   4.502   4.976
77381SOL    HW234041  12.713   4.547   4.922
77382SOL     OW34042   1.539   0.477   8.537
77382SOL    HW134043   1.600   0.519   8.597
77382SOL    HW234044   1.458   0.468   8.588
77383SOL     OW34045   6.640   5.947   0.049
77383SOL    HW134046   6.653   5.853   0.060
77383SOL    HW234047   6.729   5.984   0.050
77384SOL     OW34048  13.365  12.486  12.985
77384SOL    HW134049  13.397  12.571  13.016
77384SOL    HW234050  13.281  12.475  13.029
77385SOL     OW34051   4.856   6.088   4.417
77385SOL    HW134052   4.935   6.142   4.425
77385SOL    HW234053   4.818   6.088   4.505
77386SOL     OW34054  12.157   6.345  14.540
77386SOL    HW134055  12.245   6.341  14.575
77386SOL    HW234056  12.100   6.349  14.617
77387SOL     OW34057   7.045   9.104   8.851
77387SOL    HW134058   7.134   9.090   8.884
77387SOL    HW234059   7.000   9.022   8.868
77388SOL     OW34060   3.532   5.905   7.276
77388SOL    HW134061   3.527   5.849   7.353
77388SOL    HW234062   3.587   5.979   7.303
77389SOL     OW34063   2.510   5.010   2.426
77389SOL    HW134064   2.459   5.084   2.394
77389SOL    HW234065   2.451   4.935   2.420
77390SOL     OW34066  10.294   8.347  13.905
77390SOL    HW134067  10.379   8.375  13.870
77390SOL    HW234068  10.267   8.276  13.847
77391SOL     OW34069  14.045  11.866  10.208
77391SOL    HW134070  14.021  11.958  10.219
77391SOL    HW234071  14.141  11.866  10.204
77392SOL     OW34072  13.792   5.018   4.053
77392SOL    HW134073  13.795   5.103   4.098
77392SOL    HW234074  13.856   4.965   4.101
77393SOL     OW34075   7.181  13.839   0.003
77393SOL    HW134076   7.251  13.803  14.829
77393SOL    HW234077   7.122  13.881  14.821
77394SOL     OW34078  10.792   5.314  11.982
77394SOL    HW134079  10.868   5.338  12.035
77394SOL    HW234080  10.793   5.375  11.909
77395SOL     OW34081   4.143   2.589   8.421
77395SOL    HW134082   4.194   2.667   8.403
77395SOL    HW234083   4.073   2.618   8.479
77396SOL     OW34084   4.049   3.769   1.572
77396SOL    HW134085   4.005   3.839   1.524
77396SOL    HW234086   3.997   3.760   1.652
77397SOL     OW34087  14.439   0.116  11.404
77397SOL    HW134088  14.476   0.140  11.320
77397SOL    HW234089  14.400   0.197  11.438
77398SOL     OW34090   7.165  10.638  11.818
77398SOL    HW134091   7.178  10.689  11.898
77398SOL    HW234092   7.243  10.655  11.765
77399SOL     OW34093  11.778   8.118   1.626
77399SOL    HW134094  11.813   8.185   1.567
77399SOL    HW234095  11.754   8.046   1.568
77400SOL     OW34096   6.669   1.966  10.564
77400SOL    HW134097   6.755   1.988  10.597
77400SOL    HW234098   6.679   1.878  10.526
77401SOL     OW34099   1.603   4.391  14.683
77401SOL    HW134100   1.621   4.457  14.750
77401SOL    HW234101   1.510   4.371  14.694
77402SOL     OW34102   4.266   9.136  10.379
77402SOL    HW134103   4.305   9.086  10.307
77402SOL    HW234104   4.227   9.213  10.338
77403SOL     OW34105   7.261   4.903   9.846
77403SOL    HW134106   7.312   4.955   9.783
77403SOL    HW234107   7.177   4.948   9.851
77404SOL     OW34108   2.419   3.396   6.021
77404SOL    HW134109   2.439   3.385   6.114
77404SOL    HW234110   2.496   3.362   5.976
77405SOL     OW34111   5.753  10.765   7.310
77405SOL    HW134112   5.673  10.775   7.259
77405SOL    HW234113   5.723  10.740   7.398
77406SOL     OW34114   9.493  13.004  13.048
77406SOL    HW134115   9.549  13.082  13.050
77406SOL    HW234116   9.554  12.931  13.040
77407SOL     OW34117   8.503   2.026   2.287
77407SOL    HW134118   8.425   1.978   2.315
77407SOL    HW234119   8.565   2.016   2.360
77408SOL     OW34120   8.736  11.768  11.293
77408SOL    HW134121   8.760  11.850  11.248
77408SOL    HW234122   8.649  11.784  11.328
77409SOL     OW34123   9.548   8.052   4.099
77409SOL    HW134124   9.516   7.964   4.082
77409SOL    HW234125   9.477   8.095   4.147
77410SOL     OW34126   3.248  14.217  13.088
77410SOL    HW134127   3.177  14.162  13.056
77410SOL    HW234128   3.213  14.306  13.084
77411SOL     OW34129   4.358   6.168   4.216
77411SOL    HW134130   4.437   6.156   4.163
77411SOL    HW234131   4.359   6.261   4.240
77412SOL     OW34132  10.447   2.981   2.235
77412SOL    HW134133  10.455   2.957   2.328
77412SOL    HW234134  10.481   2.905   2.188
77413SOL     OW34135   6.209  11.458   1.231
77413SOL    HW134136   6.148  11.436   1.301
77413SOL    HW234137   6.284  11.497   1.275
77414SOL     OW34138  10.968   8.340   0.992
77414SOL    HW134139  10.873   8.341   0.992
77414SOL    HW234140  10.993   8.348   1.084
77415SOL     OW34141   2.936  14.464   0.387
77415SOL    HW134142   2.980  14.503   0.462
77415SOL    HW234143   2.907  14.538   0.334
77416SOL     OW34144   1.597   5.314   4.605
77416SOL    HW134145   1.630   5.289   4.519
77416SOL    HW234146   1.602   5.233   4.657
77417SOL     OW34147   6.949  14.286  10.514
77417SOL    HW134148   6.893  14.269  10.590
77417SOL    HW234149   6.932  14.377  10.491
77418SOL     OW34150  10.482   4.831   7.590
77418SOL    HW134151  10.451   4.793   7.673
77418SOL    HW234152  10.453   4.768   7.524
77419SOL     OW34153   3.545  11.307   2.904
77419SOL    HW134154   3.500  11.265   2.976
77419SOL    HW234155   3.478  11.361   2.862
77420SOL     OW34156  14.629   2.792   8.584
77420SOL    HW134157  14.704   2.817   8.529
77420SOL    HW234158  14.648   2.703   8.611
77421SOL     OW34159   7.952   1.211   5.761
77421SOL    HW134160   7.935   1.167   5.678
77421SOL    HW234161   7.970   1.302   5.737
77422SOL     OW34162  14.457   8.162  12.728
77422SOL    HW134163  14.544   8.167  12.690
77422SOL    HW234164  14.421   8.251  12.719
77423SOL     OW34165   3.075   8.635   3.708
77423SOL    HW134166   3.009   8.704   3.710
77423SOL    HW234167   3.124   8.650   3.627
77424SOL     OW34168   8.243   7.546   1.160
77424SOL    HW134169   8.181   7.548   1.087
77424SOL    HW234170   8.329   7.553   1.119
77425SOL     OW34171   1.166   6.581   6.247
77425SOL    HW134172   1.235   6.524   6.214
77425SOL    HW234173   1.166   6.655   6.187
77426SOL     OW34174   1.436   2.196   4.401
77426SOL    HW134175   1.400   2.141   4.470
77426SOL    HW234176   1.369   2.264   4.387
77427SOL     OW34177  12.314  13.895   2.341
77427SOL    HW134178  12.327  13.901   2.246
77427SOL    HW234179  12.229  13.935   2.356
77428SOL     OW34180  14.832   9.942   2.737
77428SOL    HW134181   0.021  10.004   2.715
77428SOL    HW234182  14.762   9.997   2.773
77429SOL     OW34183  11.578   1.632   4.045
77429SOL    HW134184  11.587   1.538   4.061
77429SOL    HW234185  11.563   1.670   4.131
77430SOL     OW34186   2.048   0.660   8.807
77430SOL    HW134187   2.019   0.585   8.859
77430SOL    HW234188   2.088   0.719   8.871
77431SOL     OW34189   6.805   8.970   9.093
77431SOL    HW134190   6.857   9.049   9.080
77431SOL    HW234191   6.804   8.926   9.008
77432SOL     OW34192  14.798   7.650   7.331
77432SOL    HW134193  14.774   7.584   7.397
77432SOL    HW234194  14.839   7.600   7.261
77433SOL     OW34195   3.826   0.705  14.136
77433SOL    HW134196   3.861   0.615  14.139
77433SOL    HW234197   3.876   0.751  14.204
77434SOL     OW34198   0.237  14.142  11.312
77434SOL    HW134199   0.225  14.064  11.367
77434SOL    HW234200   0.179  14.207  11.350
77435SOL     OW34201   9.933   9.487  11.942
77435SOL    HW134202   9.927   9.436  12.023
77435SOL    HW234203   9.904   9.427  11.873
77436SOL     OW34204  14.719   4.329   5.472
77436SOL    HW134205  14.738   4.282   5.553
77436SOL    HW234206  14.632   4.298   5.446
77437SOL     OW34207   6.441  13.252   2.552
77437SOL    HW134208   6.493  13.174   2.568
77437SOL    HW234209   6.405  13.240   2.464
77438SOL     OW34210  11.033  13.790   8.904
77438SOL    HW134211  11.044  13.778   8.999
77438SOL    HW234212  11.107  13.844   8.878
77439SOL     OW34213   4.993  11.264   4.896
77439SOL    HW134214   5.085  11.245   4.913
77439SOL    HW234215   4.992  11.295   4.805
77440SOL     OW34216   3.115   9.810   1.789
77440SOL    HW134217   3.164   9.812   1.707
77440SOL    HW234218   3.049   9.742   1.776
77441SOL     OW34219  13.843   6.425   1.039
77441SOL    HW134220  13.847   6.425   0.944
77441SOL    HW234221  13.782   6.496   1.061
77442SOL     OW34222  13.896   3.318   5.738
77442SOL    HW134223  13.881   3.295   5.829
77442SOL    HW234224  13.878   3.238   5.689
77443SOL     OW34225   1.780   7.339   8.789
77443SOL    HW134226   1.772   7.350   8.884
77443SOL    HW234227   1.690   7.333   8.758
77444SOL     OW34228  11.186   6.320   8.152
77444SOL    HW134229  11.270   6.296   8.113
77444SOL    HW234230  11.195   6.295   8.245
77445SOL     OW34231  11.398   4.409   9.785
77445SOL    HW134232  11.317   4.423   9.736
77445SOL    HW234233  11.459   4.475   9.751
77446SOL     OW34234  13.360   3.201  13.992
77446SOL    HW134235  13.420   3.230  14.061
77446SOL    HW234236  13.378   3.108  13.983
77447SOL     OW34237   0.849  13.685   3.113
77447SOL    HW134238   0.804  13.684   3.028
77447SOL    HW234239   0.873  13.777   3.125
77448SOL     OW34240  11.012  10.356  10.134
77448SOL    HW134241  10.917  10.356  10.143
77448SOL    HW234242  11.031  10.428  10.074
77449SOL     OW34243  14.518   7.362   1.912
77449SOL    HW134244  14.605   7.322   1.921
77449SOL    HW234245  14.472   7.339   1.993
77450SOL     OW34246   7.793   7.581   5.335
77450SOL    HW134247   7.754   7.561   5.420
77450SOL    HW234248   7.774   7.674   5.322
77451SOL     OW34249  13.664   3.609   5.744
77451SOL    HW134250  13.633   3.693   5.777
77451SOL    HW234251  13.627   3.544   5.804
77452SOL     OW34252   2.639   4.988   7.005
77452SOL    HW134253   2.612   4.978   6.914
77452SOL    HW234254   2.557   5.000   7.053
77453SOL     OW34255  14.468   5.595   1.120
77453SOL    HW134256  14.520   5.612   1.199
77453SOL    HW234257  14.533   5.590   1.049
77454SOL     OW34258   9.369   4.096   2.289
77454SOL    HW134259   9.329   4.135   2.367
77454SOL    HW234260   9.305   4.032   2.259
77455SOL     OW34261  14.127   8.904   7.697
77455SOL    HW134262  14.170   8.844   7.759
77455SOL    HW234263  14.134   8.858   7.613
77456SOL     OW34264   3.662   0.767   8.245
77456SOL    HW134265   3.692   0.680   8.219
77456SOL    HW234266   3.570   0.754   8.270
77457SOL     OW34267  11.802   5.449   3.386
77457SOL    HW134268  11.802   5.354   3.390
77457SOL    HW234269  11.829   5.477   3.474
77458SOL     OW34270   0.169   4.763  10.540
77458SOL    HW134271   0.177   4.840  10.483
77458SOL    HW234272   0.252   4.716  10.529
77459SOL     OW34273  11.977   6.088   4.366
77459SOL    HW134274  12.034   6.028   4.414
77459SOL    HW234275  11.929   6.032   4.305
77460SOL     OW34276   9.159   3.059   9.791
77460SOL    HW134277   9.194   2.974   9.819
77460SOL    HW234278   9.236   3.110   9.767
77461SOL     OW34279  12.448   7.350  14.790
77461SOL    HW134280  12.510   7.420  14.771
77461SOL    HW234281  12.437   7.305  14.706
77462SOL     OW34282  12.046   4.043   8.764
77462SOL    HW134283  12.008   4.011   8.682
77462SOL    HW234284  12.000   4.126   8.781
77463SOL     OW34285   4.966  11.745   2.070
77463SOL    HW134286   4.941  11.811   2.135
77463SOL    HW234287   4.901  11.675   2.080
77464SOL     OW34288   0.452   9.884  13.578
77464SOL    HW134289   0.507   9.806  13.578
77464SOL    HW234290   0.471   9.928  13.661
77465SOL     OW34291  14.596   8.336   0.052
77465SOL    HW134292  14.501   8.344   0.060
77465SOL    HW234293  14.617   8.382  14.850
77466SOL     OW34294   0.242  13.124  14.832
77466SOL    HW134295   0.164  13.174  14.857
77466SOL    HW234296   0.315  13.177  14.864
77467SOL     OW34297  13.315   1.447   3.132
77467SOL    HW134298  13.396   1.401   3.109
77467SOL    HW234299  13.315   1.525   3.076
77468SOL     OW34300   5.216   7.538  13.438
77468SOL    HW134301   5.219   7.442  13.441
77468SOL    HW234302   5.128   7.559  13.469
77469SOL     OW34303  11.069  10.825   8.470
77469SOL    HW134304  11.073  10.750   8.530
77469SOL    HW234305  11.149  10.875   8.489
77470SOL     OW34306   3.704   6.124   5.783
77470SOL    HW134307   3.680   6.129   5.690
77470SOL    HW234308   3.789   6.168   5.788
77471SOL     OW34309  14.809  13.168   8.165
77471SOL    HW134310   0.013  13.211   8.160
77471SOL    HW234311  14.788  13.168   8.259
77472SOL     OW34312   1.283  14.585  12.920
77472SOL    HW134313   1.232  14.547  12.992
77472SOL    HW234314   1.370  14.601  12.958
77473SOL     OW34315   1.756   1.676   2.522
77473SOL    HW134316   1.700   1.653   2.596
77473SOL    HW234317   1.698   1.669   2.446
77474SOL     OW34318   4.152   4.399   2.867
77474SOL    HW134319   4.080   4.435   2.919
77474SOL    HW234320   4.227   4.455   2.889
77475SOL     OW34321   2.933   4.695   9.086
77475SOL    HW134322   2.930   4.791   9.081
77475SOL    HW234323   2.844   4.669   9.106
77476SOL     OW34324  14.091  12.879   9.385
77476SOL    HW134325  14.114  12.926   9.465
77476SOL    HW234326  14.126  12.933   9.314
77477SOL     OW34327   7.660   5.738  12.426
77477SOL    HW134328   7.566   5.752  12.439
77477SOL    HW234329   7.666   5.651  12.387
77478SOL     OW34330  12.226  12.081   7.599
77478SOL    HW134331  12.164  12.083   7.672
77478SOL    HW234332  12.312  12.081   7.642
77479SOL     OW34333   1.334  11.484   7.822
77479SOL    HW134334   1.428  11.499   7.818
77479SOL    HW234335   1.324  11.389   7.819
77480SOL     OW34336   4.487   7.927   7.760
77480SOL    HW134337   4.526   7.853   7.713
77480SOL    HW234338   4.528   7.925   7.846
77481SOL     OW34339   0.714   1.296  12.546
77481SOL    HW134340   0.639   1.249  12.585
77481SOL    HW234341   0.721   1.260  12.458
77482SOL     OW34342   5.965   5.358   7.159
77482SOL    HW134343   5.925   5.300   7.224
77482SOL    HW234344   5.934   5.446   7.183
77483SOL     OW34345   5.112  13.671   2.620
77483SOL    HW134346   5.105  13.753   2.669
77483SOL    HW234347   5.055  13.610   2.666
77484SOL     OW34348  11.956  10.494   2.894
77484SOL    HW134349  11.914  10.411   2.871
77484SOL    HW234350  11.884  10.555   2.905
77485SOL     OW34351   8.375   6.584   5.474
77485SOL    HW134352   8.377   6.624   5.388
77485SOL    HW234353   8.466   6.584   5.503
77486SOL     OW34354   6.543  10.125   7.413
77486SOL    HW134355   6.612  10.085   7.360
77486SOL    HW234356   6.465  10.074   7.393
77487SOL     OW34357   8.419   5.196   4.422
77487SOL    HW134358   8.383   5.256   4.357
77487SOL    HW234359   8.353   5.126   4.429
77488SOL     OW34360  14.507   3.598   4.154
77488SOL    HW134361  14.591   3.604   4.199
77488SOL    HW234362  14.490   3.688   4.124
77489SOL     OW34363  12.994   1.856   6.827
77489SOL    HW134364  12.932   1.901   6.769
77489SOL    HW234365  12.940   1.816   6.895
77490SOL     OW34366  11.800   8.580   8.870
77490SOL    HW134367  11.867   8.608   8.932
77490SOL    HW234368  11.771   8.495   8.903
77491SOL     OW34369  11.162   1.577   2.214
77491SOL    HW134370  11.231   1.512   2.205
77491SOL    HW234371  11.206   1.654   2.249
77492SOL     OW34372   9.443   5.671  11.137
77492SOL    HW134373   9.411   5.585  11.162
77492SOL    HW234374   9.437   5.672  11.042
77493SOL     OW34375   8.639  12.697   1.025
77493SOL    HW134376   8.549  12.665   1.023
77493SOL    HW234377   8.678  12.653   1.100
77494SOL     OW34378  13.472   1.683   2.305
77494SOL    HW134379  13.478   1.620   2.376
77494SOL    HW234380  13.532   1.649   2.238
77495SOL     OW34381   0.223   6.866   6.647
77495SOL    HW134382   0.199   6.779   6.678
77495SOL    HW234383   0.311   6.880   6.681
77496SOL     OW34384   2.774   3.481   6.239
77496SOL    HW134385   2.809   3.447   6.322
77496SOL    HW234386   2.842   3.461   6.174
77497SOL     OW34387  14.870   9.423  14.292
77497SOL    HW134388   0.012   9.359  14.224
77497SOL    HW234389   0.063   9.418  14.354
77498SOL     OW34390   6.043  14.108   4.280
77498SOL    HW134391   5.953  14.137   4.266
77498SOL    HW234392   6.071  14.075   4.195
77499SOL     OW34393  10.195  10.653   0.536
77499SOL    HW134394  10.282  10.667   0.498
77499SOL    HW234395  10.134  10.678   0.466
77500SOL     OW34396   1.352   6.931   9.523
77500SOL    HW134397   1.403   6.995   9.573
77500SOL    HW234398   1.331   6.862   9.586
77501SOL     OW34399  14.672   4.440  12.253
77501SOL    HW134400  14.601   4.501  12.272
77501SOL    HW234401  14.673   4.434  12.158
77502SOL     OW34402   5.194  10.655   6.457
77502SOL    HW134403   5.184  10.736   6.507
77502SOL    HW234404   5.252  10.678   6.385
77503SOL     OW34405  10.930  14.155   7.956
77503SOL    HW134406  10.927  14.246   7.927
77503SOL    HW234407  10.849  14.116   7.923
77504SOL     OW34408   4.720   8.860   0.103
77504SOL    HW134409   4.733   8.871   0.009
77504SOL    HW234410   4.804   8.883   0.142
77505SOL     OW34411   2.122   8.190   6.859
77505SOL    HW134412   2.088   8.168   6.946
77505SOL    HW234413   2.044   8.206   6.806
77506SOL     OW34414  12.344   1.491   2.852
77506SOL    HW134415  12.331   1.426   2.922
77506SOL    HW234416  12.435   1.519   2.862
77507SOL     OW34417   4.564  11.790  14.402
77507SOL    HW134418   4.587  11.879  14.430
77507SOL    HW234419   4.510  11.803  14.324
77508SOL     OW34420  11.254  12.580   6.255
77508SOL    HW134421  11.303  12.652   6.294
77508SOL    HW234422  11.318  12.509   6.246
77509SOL     OW34423   2.703   9.342   3.884
77509SOL    HW134424   2.739   9.332   3.796
77509SOL    HW234425   2.724   9.432   3.909
77510SOL     OW34426   9.834   7.316   4.945
77510SOL    HW134427   9.862   7.238   4.896
77510SOL    HW234428   9.738   7.310   4.945
77511SOL     OW34429   2.673   2.442  14.810
77511SOL    HW134430   2.617   2.443  14.733
77511SOL    HW234431   2.621   2.483  14.879
77512SOL     OW34432   3.755  11.398   9.880
77512SOL    HW134433   3.851  11.401   9.872
77512SOL    HW234434   3.723  11.427   9.794
77513SOL     OW34435  14.356  11.797  12.138
77513SOL    HW134436  14.282  11.748  12.104
77513SOL    HW234437  14.376  11.755  12.222
77514SOL     OW34438   0.229   7.190   1.890
77514SOL    HW134439   0.265   7.234   1.813
77514SOL    HW234440   0.278   7.108   1.895
77515SOL     OW34441  11.783   3.362   2.880
77515SOL    HW134442  11.703   3.409   2.857
77515SOL    HW234443  11.763   3.270   2.862
77516SOL     OW34444  13.705  12.061   3.721
77516SOL    HW134445  13.738  12.074   3.810
77516SOL    HW234446  13.739  12.136   3.672
77517SOL     OW34447   1.247   2.678  11.968
77517SOL    HW134448   1.191   2.603  11.949
77517SOL    HW234449   1.324   2.664  11.913
77518SOL     OW34450   9.673   1.084   1.502
77518SOL    HW134451   9.611   1.027   1.548
77518SOL    HW234452   9.747   1.092   1.562
77519SOL     OW34453  14.814  12.384   1.434
77519SOL    HW134454  14.829  12.290   1.419
77519SOL    HW234455   0.012  12.413   1.481
77520SOL     OW34456  12.939  12.228  14.007
77520SOL    HW134457  13.005  12.230  13.938
77520SOL    HW234458  12.955  12.308  14.058
77521SOL     OW34459  13.160   9.758  13.076
77521SOL    HW134460  13.172   9.849  13.050
77521SOL    HW234461  13.099   9.761  13.150
77522SOL     OW34462   7.956   9.182  13.275
77522SOL    HW134463   8.029   9.209  13.220
77522SOL    HW234464   7.910   9.264  13.297
77523SOL     OW34465  13.548  12.678  13.305
77523SOL    HW134466  13.622  12.639  13.258
77523SOL    HW234467  13.586  12.754  13.350
77524SOL     OW34468  14.049  13.499   5.031
77524SOL    HW134469  14.025  13.506   5.123
77524SOL    HW234470  14.098  13.417   5.025
77525SOL     OW34471  14.569   1.486  12.496
77525SOL    HW134472  14.591   1.577  12.517
77525SOL    HW234473  14.475   1.488  12.480
77526SOL     OW34474  11.375   5.745   1.506
77526SOL    HW134475  11.425   5.667   1.480
77526SOL    HW234476  11.284   5.718   1.500
77527SOL     OW34477   0.458   7.362   6.500
77527SOL    HW134478   0.393   7.298   6.473
77527SOL    HW234479   0.457   7.357   6.596
77528SOL     OW34480   8.915   3.649  14.280
77528SOL    HW134481   8.819   3.655  14.283
77528SOL    HW234482   8.939   3.696  14.200
77529SOL     OW34483   9.550   2.913   5.257
77529SOL    HW134484   9.507   2.829   5.274
77529SOL    HW234485   9.480   2.969   5.223
77530SOL     OW34486   1.804   2.310  13.666
77530SOL    HW134487   1.788   2.390  13.715
77530SOL    HW234488   1.729   2.254  13.685
77531SOL     OW34489   3.479  10.226   3.249
77531SOL    HW134490   3.545  10.160   3.266
77531SOL    HW234491   3.396  10.178   3.252
77532SOL     OW34492   1.831   5.037   0.794
77532SOL    HW134493   1.896   5.107   0.786
77532SOL    HW234494   1.882   4.956   0.792
77533SOL     OW34495   7.404   2.733   1.140
77533SOL    HW134496   7.354   2.725   1.059
77533SOL    HW234497   7.352   2.791   1.195
77534SOL     OW34498  12.030   5.027   5.912
77534SOL    HW134499  12.080   5.069   5.981
77534SOL    HW234500  11.976   4.962   5.959
77535SOL     OW34501  14.165   9.757  11.196
77535SOL    HW134502  14.193   9.668  11.175
77535SOL    HW234503  14.107   9.781  11.124
77536SOL     OW34504   5.044   5.288   7.146
77536SOL    HW134505   4.961   5.335   7.154
77536SOL    HW234506   5.102   5.332   7.208
77537SOL     OW34507   5.737   2.160  13.741
77537SOL    HW134508   5.796   2.095  13.780
77537SOL    HW234509   5.740   2.234  13.801
77538SOL     OW34510   6.948   9.309  11.615
77538SOL    HW134511   6.870   9.254  11.609
77538SOL    HW234512   6.928   9.386  11.561
77539SOL     OW34513   0.564   3.070   8.176
77539SOL    HW134514   0.646   3.031   8.205
77539SOL    HW234515   0.543   3.135   8.243
77540SOL     OW34516  10.858   5.895   9.729
77540SOL    HW134517  10.845   5.923   9.819
77540SOL    HW234518  10.953   5.900   9.716
77541SOL     OW34519   2.071   9.227   6.385
77541SOL    HW134520   2.083   9.134   6.367
77541SOL    HW234521   1.986   9.233   6.428
77542SOL     OW34522   0.218   0.193   6.575
77542SOL    HW134523   0.130   0.156   6.576
77542SOL    HW234524   0.204   0.288   6.584
77543SOL     OW34525   7.256  10.374   1.220
77543SOL    HW134526   7.306  10.296   1.195
77543SOL    HW234527   7.263  10.432   1.144
77544SOL     OW34528   7.607   4.506   6.972
77544SOL    HW134529   7.542   4.569   7.004
77544SOL    HW234530   7.556   4.427   6.955
77545SOL     OW34531  14.197   4.029   6.498
77545SOL    HW134532  14.187   4.100   6.561
77545SOL    HW234533  14.202   4.073   6.413
77546SOL     OW34534   9.961  10.955   6.214
77546SOL    HW134535  10.033  11.017   6.206
77546SOL    HW234536   9.928  10.944   6.125
77547SOL     OW34537  12.482  12.284   2.301
77547SOL    HW134538  12.399  12.237   2.293
77547SOL    HW234539  12.473  12.360   2.243
77548SOL     OW34540   2.807   3.066   9.032
77548SOL    HW134541   2.798   3.007   8.957
77548SOL    HW234542   2.724   3.112   9.036
77549SOL     OW34543  10.937   9.165   9.145
77549SOL    HW134544  11.005   9.201   9.088
77549SOL    HW234545  10.886   9.241   9.172
77550SOL     OW34546  10.991  13.249  11.246
77550SOL    HW134547  11.012  13.307  11.173
77550SOL    HW234548  10.904  13.277  11.275
77551SOL     OW34549   2.892   0.457   4.683
77551SOL    HW134550   2.887   0.537   4.631
77551SOL    HW234551   2.922   0.486   4.770
77552SOL     OW34552   0.474   2.209  10.355
77552SOL    HW134553   0.448   2.142  10.292
77552SOL    HW234554   0.511   2.279  10.301
77553SOL     OW34555  13.187   1.204  14.182
77553SOL    HW134556  13.197   1.168  14.270
77553SOL    HW234557  13.106   1.165  14.149
77554SOL     OW34558   3.604   7.267   1.639
77554SOL    HW134559   3.673   7.209   1.672
77554SOL    HW234560   3.564   7.218   1.567
77555SOL     OW34561   0.077   6.406  10.385
77555SOL    HW134562   0.094   6.416  10.478
77555SOL    HW234563   0.013   6.474  10.364
77556SOL     OW34564  12.450   9.280  12.650
77556SOL    HW134565  12.480   9.200  12.694
77556SOL    HW234566  12.466   9.350  12.714
77557SOL     OW34567   0.105   6.351  10.128
77557SOL    HW134568   0.146   6.431  10.096
77557SOL    HW234569   0.102   6.360  10.223
77558SOL     OW34570   9.923   2.973  14.054
77558SOL    HW134571   9.996   3.021  14.014
77558SOL    HW234572   9.885   3.036  14.116
77559SOL     OW34573   7.310   7.689   5.217
77559SOL    HW134574   7.261   7.764   5.252
77559SOL    HW234575   7.326   7.633   5.292
77560SOL     OW34576  10.847   1.219   4.491
77560SOL    HW134577  10.769   1.163   4.491
77560SOL    HW234578  10.825   1.292   4.433
77561SOL     OW34579  14.043  12.982  14.287
77561SOL    HW134580  14.023  12.990  14.194
77561SOL    HW234581  13.973  12.928  14.322
77562SOL     OW34582   3.201  11.982   9.552
77562SOL    HW134583   3.110  11.972   9.581
77562SOL    HW234584   3.218  11.904   9.499
77563SOL     OW34585   7.349   5.163   4.668
77563SOL    HW134586   7.308   5.230   4.612
77563SOL    HW234587   7.408   5.212   4.725
77564SOL     OW34588   7.679  12.585   5.743
77564SOL    HW134589   7.774  12.590   5.735
77564SOL    HW234590   7.661  12.491   5.743
77565SOL     OW34591   6.809  11.697  11.688
77565SOL    HW134592   6.825  11.635  11.617
77565SOL    HW234593   6.814  11.643  11.768
77566SOL     OW34594   9.183  14.439   8.498
77566SOL    HW134595   9.261  14.393   8.467
77566SOL    HW234596   9.212  14.487   8.576
77567SOL     OW34597  11.880   0.350  12.527
77567SOL    HW134598  11.843   0.417  12.585
77567SOL    HW234599  11.882   0.271  12.580
77568SOL     OW34600   8.947   7.480   0.719
77568SOL    HW134601   8.913   7.550   0.775
77568SOL    HW234602   8.998   7.525   0.651
77569SOL     OW34603  13.876  10.683   6.958
77569SOL    HW134604  13.905  10.759   7.008
77569SOL    HW234605  13.815  10.718   6.894
77570SOL     OW34606   5.719  13.971  12.931
77570SOL    HW134607   5.694  13.979  13.023
77570SOL    HW234608   5.769  14.051  12.913
77571SOL     OW34609  14.700   6.199   5.880
77571SOL    HW134610  14.680   6.144   5.955
77571SOL    HW234611  14.725   6.138   5.811
77572SOL     OW34612   4.261   7.283   1.490
77572SOL    HW134613   4.193   7.300   1.556
77572SOL    HW234614   4.214   7.240   1.418
77573SOL     OW34615  14.035  10.668   8.866
77573SOL    HW134616  13.991  10.583   8.863
77573SOL    HW234617  14.006  10.707   8.948
77574SOL     OW34618  12.939  10.510   1.681
77574SOL    HW134619  12.902  10.424   1.662
77574SOL    HW234620  12.870  10.557   1.726
77575SOL     OW34621   5.579  10.164   8.894
77575SOL    HW134622   5.501  10.151   8.947
77575SOL    HW234623   5.556  10.235   8.834
77576SOL     OW34624  11.741   0.577   9.619
77576SOL    HW134625  11.775   0.488   9.632
77576SOL    HW234626  11.780   0.629   9.689
77577SOL     OW34627  10.938   7.482  10.098
77577SOL    HW134628  10.904   7.542  10.032
77577SOL    HW234629  10.871   7.413  10.104
77578SOL     OW34630   5.267   4.348   0.726
77578SOL    HW134631   5.324   4.309   0.792
77578SOL    HW234632   5.192   4.381   0.776
77579SOL     OW34633  12.738  12.385  11.290
77579SOL    HW134634  12.711  12.375  11.381
77579SOL    HW234635  12.815  12.441  11.294
77580SOL     OW34636  10.054  10.052   9.787
77580SOL    HW134637  10.148  10.066   9.777
77580SOL    HW234638  10.019  10.063   9.699
77581SOL     OW34639   6.465   1.207  13.213
77581SOL    HW134640   6.547   1.240  13.177
77581SOL    HW234641   6.399   1.229  13.148
77582SOL     OW34642   5.297   4.036   9.037
77582SOL    HW134643   5.217   4.088   9.041
77582SOL    HW234644   5.367   4.098   9.057
77583SOL     OW34645   1.551   1.525   2.627
77583SOL    HW134646   1.584   1.466   2.559
77583SOL    HW234647   1.553   1.472   2.707
77584SOL     OW34648   1.618  12.329   3.707
77584SOL    HW134649   1.649  12.301   3.793
77584SOL    HW234650   1.526  12.302   3.705
77585SOL     OW34651   3.475   0.366   3.239
77585SOL    HW134652   3.567   0.348   3.254
77585SOL    HW234653   3.430   0.284   3.259
77586SOL     OW34654   8.794   2.444  13.065
77586SOL    HW134655   8.735   2.517  13.086
77586SOL    HW234656   8.846   2.433  13.145
77587SOL     OW34657  13.672   4.402  11.602
77587SOL    HW134658  13.759   4.429  11.631
77587SOL    HW234659  13.640   4.476  11.550
77588SOL     OW34660   5.823   0.570   2.993
77588SOL    HW134661   5.820   0.644   2.932
77588SOL    HW234662   5.891   0.513   2.958
77589SOL     OW34663   4.707   3.188   6.920
77589SOL    HW134664   4.732   3.261   6.864
77589SOL    HW234665   4.786   3.170   6.972
77590SOL     OW34666  12.551   1.203  10.098
77590SOL    HW134667  12.457   1.222  10.103
77590SOL    HW234668  12.589   1.284  10.064
77591SOL     OW34669   1.520   5.787   9.386
77591SOL    HW134670   1.547   5.835   9.464
77591SOL    HW234671   1.547   5.842   9.313
77592SOL     OW34672   2.539   7.787   2.506
77592SOL    HW134673   2.478   7.759   2.574
77592SOL    HW234674   2.623   7.798   2.551
77593SOL     OW34675   2.269   7.426  12.372
77593SOL    HW134676   2.193   7.476  12.403
77593SOL    HW234677   2.277   7.353  12.433
77594SOL     OW34678  11.369   9.180   7.829
77594SOL    HW134679  11.336   9.251   7.775
77594SOL    HW234680  11.315   9.105   7.806
77595SOL     OW34681   7.593  10.721  11.814
77595SOL    HW134682   7.544  10.693  11.892
77595SOL    HW234683   7.677  10.675  11.821
77596SOL     OW34684  14.160   9.903   5.952
77596SOL    HW134685  14.233   9.957   5.983
77596SOL    HW234686  14.082   9.948   5.985
77597SOL     OW34687   4.101   8.922   0.359
77597SOL    HW134688   4.058   8.893   0.440
77597SOL    HW234689   4.044   8.891   0.289
77598SOL     OW34690  13.635   5.255   5.061
77598SOL    HW134691  13.644   5.330   5.001
77598SOL    HW234692  13.592   5.292   5.138
77599SOL     OW34693  10.068   9.629  13.450
77599SOL    HW134694  10.060   9.547  13.498
77599SOL    HW234695  10.145   9.617  13.394
77600SOL     OW34696   9.431   3.740   1.923
77600SOL    HW134697   9.466   3.654   1.946
77600SOL    HW234698   9.500   3.782   1.871
77601SOL     OW34699   9.493  12.233   4.360
77601SOL    HW134700   9.565  12.244   4.298
77601SOL    HW234701   9.425  12.189   4.309
77602SOL     OW34702  12.696   6.090  12.229
77602SOL    HW134703  12.774   6.085  12.174
77602SOL    HW234704  12.691   6.182  12.256
77603SOL     OW34705   2.363   9.123  13.844
77603SOL    HW134706   2.326   9.206  13.873
77603SOL    HW234707   2.458   9.136  13.850
77604SOL     OW34708  13.304   7.517   8.483
77604SOL    HW134709  13.231   7.575   8.502
77604SOL    HW234710  13.313   7.520   8.387
77605SOL     OW34711   1.407   9.982  12.394
77605SOL    HW134712   1.496   9.950  12.386
77605SOL    HW234713   1.363   9.920  12.451
77606SOL     OW34714   7.957   3.854  14.401
77606SOL    HW134715   7.871   3.897  14.389
77606SOL    HW234716   7.957   3.824  14.491
77607SOL     OW34717   8.593  12.560  13.577
77607SOL    HW134718   8.681  12.551  13.540
77607SOL    HW234719   8.550  12.477  13.558
77608SOL     OW34720   7.990   8.258   7.385
77608SOL    HW134721   7.933   8.181   7.389
77608SOL    HW234722   7.929   8.332   7.381
77609SOL     OW34723   9.042   4.155   9.118
77609SOL    HW134724   9.076   4.088   9.177
77609SOL    HW234725   8.950   4.131   9.105
77610SOL     OW34726   3.594   9.428   7.162
77610SOL    HW134727   3.586   9.513   7.205
77610SOL    HW234728   3.682   9.430   7.122
77611SOL     OW34729   6.800   9.356   9.315
77611SOL    HW134730   6.817   9.428   9.376
77611SOL    HW234731   6.886   9.318   9.297
77612SOL     OW34732  13.701  13.193  11.451
77612SOL    HW134733  13.720  13.124  11.515
77612SOL    HW234734  13.627  13.159  11.400
77613SOL     OW34735   9.523   5.786   3.968
77613SOL    HW134736   9.600   5.734   3.990
77613SOL    HW234737   9.531   5.802   3.874
77614SOL     OW34738  14.757   2.109  11.535
77614SOL    HW134739  14.814   2.163  11.479
77614SOL    HW234740  14.693   2.171  11.570
77615SOL     OW34741   4.701   4.749   7.778
77615SOL    HW134742   4.617   4.704   7.777
77615SOL    HW234743   4.691   4.821   7.715
77616SOL     OW34744   5.728   8.249   8.590
77616SOL    HW134745   5.688   8.269   8.674
77616SOL    HW234746   5.726   8.332   8.542
77617SOL     OW34747   7.304   7.807   8.022
77617SOL    HW134748   7.225   7.753   8.028
77617SOL    HW234749   7.374   7.750   8.054
77618SOL     OW34750   7.976  11.024  14.405
77618SOL    HW134751   8.008  11.038  14.494
77618SOL    HW234752   8.054  11.021  14.351
77619SOL     OW34753   1.976   2.383  14.828
77619SOL    HW134754   2.067   2.411  14.834
77619SOL    HW234755   1.935   2.447  14.770
77620SOL     OW34756  13.343   6.845   4.808
77620SOL    HW134757  13.348   6.896   4.727
77620SOL    HW234758  13.279   6.775   4.789
77621SOL     OW34759  13.254   5.757  11.175
77621SOL    HW134760  13.296   5.674  11.154
77621SOL    HW234761  13.180   5.732  11.231
77622SOL     OW34762   8.242  10.236  11.786
77622SOL    HW134763   8.275  10.176  11.854
77622SOL    HW234764   8.148  10.243  11.803
77623SOL     OW34765  12.187  12.630   8.063
77623SOL    HW134766  12.213  12.701   8.004
77623SOL    HW234767  12.121  12.582   8.013
77624SOL     OW34768   3.016   6.476   1.780
77624SOL    HW134769   3.042   6.385   1.795
77624SOL    HW234770   3.036   6.521   1.862
77625SOL     OW34771  10.100  10.978   6.870
77625SOL    HW134772  10.139  10.906   6.920
77625SOL    HW234773  10.135  10.967   6.781
77626SOL     OW34774   3.866  11.693   4.939
77626SOL    HW134775   3.792  11.750   4.918
77626SOL    HW234776   3.852  11.669   5.031
77627SOL     OW34777  10.258   7.567   2.569
77627SOL    HW134778  10.330   7.515   2.604
77627SOL    HW234779  10.295   7.609   2.492
77628SOL     OW34780   4.717   9.515   6.221
77628SOL    HW134781   4.688   9.599   6.257
77628SOL    HW234782   4.703   9.524   6.127
77629SOL     OW34783   7.789  14.682   6.788
77629SOL    HW134784   7.865  14.624   6.792
77629SOL    HW234785   7.797  14.726   6.704
77630SOL     OW34786   8.271  14.741   5.607
77630SOL    HW134787   8.283  14.647   5.616
77630SOL    HW234788   8.228  14.768   5.688
77631SOL     OW34789   3.675  14.601   2.027
77631SOL    HW134790   3.680  14.611   2.122
77631SOL    HW234791   3.582  14.612   2.006
77632SOL     OW34792   2.590   6.608   1.577
77632SOL    HW134793   2.509   6.559   1.569
77632SOL    HW234794   2.573   6.673   1.645
77633SOL     OW34795   3.888   9.056   1.245
77633SOL    HW134796   3.859   9.000   1.317
77633SOL    HW234797   3.983   9.043   1.241
77634SOL     OW34798   5.966   8.921  10.041
77634SOL    HW134799   5.915   8.846  10.071
77634SOL    HW234800   5.949   8.927   9.947
77635SOL     OW34801   0.989   8.617   7.414
77635SOL    HW134802   0.934   8.692   7.436
77635SOL    HW234803   0.927   8.549   7.388
77636SOL     OW34804   1.330   7.853   7.192
77636SOL    HW134805   1.330   7.819   7.282
77636SOL    HW234806   1.396   7.922   7.192
77637SOL     OW34807  12.756   8.260   8.457
77637SOL    HW134808  12.670   8.272   8.499
77637SOL    HW234809  12.819   8.269   8.529
77638SOL     OW34810   3.753   1.455   2.272
77638SOL    HW134811   3.814   1.384   2.251
77638SOL    HW234812   3.808   1.526   2.304
77639SOL     OW34813   2.101  11.770   6.387
77639SOL    HW134814   2.192  11.799   6.379
77639SOL    HW234815   2.101  11.679   6.356
77640SOL     OW34816  10.349   2.110   8.998
77640SOL    HW134817  10.439   2.089   9.023
77640SOL    HW234818  10.325   2.186   9.051
77641SOL     OW34819   4.459   9.334  12.084
77641SOL    HW134820   4.520   9.288  12.026
77641SOL    HW234821   4.386   9.358  12.026
77642SOL     OW34822  14.058   4.896  14.244
77642SOL    HW134823  14.123   4.870  14.308
77642SOL    HW234824  14.077   4.843  14.166
77643SOL     OW34825   4.569   1.284   8.648
77643SOL    HW134826   4.514   1.206   8.660
77643SOL    HW234827   4.567   1.327   8.733
77644SOL     OW34828   3.431  12.519  12.437
77644SOL    HW134829   3.437  12.543  12.344
77644SOL    HW234830   3.435  12.424  12.438
77645SOL     OW34831   1.080   7.403   9.430
77645SOL    HW134832   1.156   7.460   9.440
77645SOL    HW234833   1.110   7.332   9.374
77646SOL     OW34834  14.530   9.267  10.078
77646SOL    HW134835  14.472   9.327  10.031
77646SOL    HW234836  14.475   9.232  10.149
77647SOL     OW34837   0.012   9.665  11.047
77647SOL    HW134838  14.833   9.722  10.998
77647SOL    HW234839   0.081   9.643  10.985
77648SOL     OW34840   4.528  12.460   4.576
77648SOL    HW134841   4.612  12.474   4.618
77648SOL    HW234842   4.469  12.521   4.619
77649SOL     OW34843   5.482   6.410   0.125
77649SOL    HW134844   5.510   6.411   0.216
77649SOL    HW234845   5.388   6.424   0.128
77650SOL     OW34846  12.027  11.110   4.435
77650SOL    HW134847  11.975  11.089   4.357
77650SOL    HW234848  12.056  11.026   4.469
77651SOL     OW34849   8.583   9.924   5.391
77651SOL    HW134850   8.545   9.898   5.474
77651SOL    HW234851   8.510   9.962   5.342
77652SOL     OW34852   1.217   8.063  10.388
77652SOL    HW134853   1.260   7.992  10.434
77652SOL    HW234854   1.276   8.086  10.317
77653SOL     OW34855   6.149  10.266  14.223
77653SOL    HW134856   6.173  10.296  14.135
77653SOL    HW234857   6.162  10.343  14.279
77654SOL     OW34858   9.430   8.677   3.232
77654SOL    HW134859   9.336   8.659   3.245
77654SOL    HW234860   9.474   8.600   3.268
77655SOL     OW34861   2.882  14.016  10.809
77655SOL    HW134862   2.968  14.054  10.790
77655SOL    HW234863   2.886  13.995  10.903
77656SOL     OW34864  12.502   8.668   3.403
77656SOL    HW134865  12.554   8.747   3.389
77656SOL    HW234866  12.550   8.598   3.359
77657SOL     OW34867  11.095   3.467   5.012
77657SOL    HW134868  11.153   3.518   5.068
77657SOL    HW234869  11.079   3.386   5.062
77658SOL     OW34870   3.293  13.716   1.147
77658SOL    HW134871   3.244  13.766   1.081
77658SOL    HW234872   3.335  13.784   1.201
77659SOL     OW34873   8.479  11.162   9.091
77659SOL    HW134874   8.471  11.100   9.019
77659SOL    HW234875   8.559  11.211   9.072
77660SOL     OW34876  11.073   8.798   3.027
77660SOL    HW134877  10.980   8.822   3.033
77660SOL    HW234878  11.095   8.814   2.935
77661SOL     OW34879   2.984   7.820  13.989
77661SOL    HW134880   2.905   7.771  14.010
77661SOL    HW234881   3.054   7.774  14.036
77662SOL     OW34882   9.729   5.409   0.935
77662SOL    HW134883   9.746   5.457   0.855
77662SOL    HW234884   9.697   5.475   0.997
77663SOL     OW34885   9.208   5.744  13.345
77663SOL    HW134886   9.125   5.715  13.306
77663SOL    HW234887   9.182   5.789  13.425
77664SOL     OW34888   3.524  12.671   4.423
77664SOL    HW134889   3.530  12.703   4.333
77664SOL    HW234890   3.501  12.748   4.475
77665SOL     OW34891   7.359   5.883  12.428
77665SOL    HW134892   7.390   5.935  12.353
77665SOL    HW234893   7.333   5.948  12.493
77666SOL     OW34894   6.874  12.737   0.252
77666SOL    HW134895   6.779  12.731   0.260
77666SOL    HW234896   6.901  12.650   0.224
77667SOL     OW34897   5.996   9.133   6.007
77667SOL    HW134898   5.999   9.037   6.002
77667SOL    HW234899   5.964   9.160   5.922
77668SOL     OW34900   6.464   6.322   7.663
77668SOL    HW134901   6.382   6.333   7.711
77668SOL    HW234902   6.487   6.230   7.675
77669SOL     OW34903   4.601   1.239  11.636
77669SOL    HW134904   4.652   1.271  11.710
77669SOL    HW234905   4.610   1.307  11.569
77670SOL     OW34906   7.883   2.272   6.861
77670SOL    HW134907   7.892   2.281   6.956
77670SOL    HW234908   7.968   2.239   6.832
77671SOL     OW34909  11.796   1.909   0.595
77671SOL    HW134910  11.862   1.854   0.637
77671SOL    HW234911  11.846   1.980   0.554
77672SOL     OW34912  13.802   3.279   6.148
77672SOL    HW134913  13.804   3.261   6.242
77672SOL    HW234914  13.736   3.348   6.138
77673SOL     OW34915   4.939  12.747   6.070
77673SOL    HW134916   4.941  12.837   6.037
77673SOL    HW234917   4.898  12.697   5.999
77674SOL     OW34918   9.817   2.139   8.556
77674SOL    HW134919   9.725   2.117   8.542
77674SOL    HW234920   9.815   2.226   8.597
77675SOL     OW34921   1.873  11.540   5.495
77675SOL    HW134922   1.886  11.506   5.583
77675SOL    HW234923   1.798  11.490   5.461
77676SOL     OW34924   3.115   3.530  13.443
77676SOL    HW134925   3.165   3.542  13.523
77676SOL    HW234926   3.064   3.451  13.458
77677SOL     OW34927  11.137  11.316   0.469
77677SOL    HW134928  11.126  11.254   0.541
77677SOL    HW234929  11.062  11.299   0.411
77678SOL     OW34930  11.083  14.255   1.588
77678SOL    HW134931  11.014  14.275   1.651
77678SOL    HW234932  11.051  14.290   1.505
77679SOL     OW34933   7.665   4.877   9.895
77679SOL    HW134934   7.591   4.827   9.859
77679SOL    HW234935   7.635   4.968   9.895
77680SOL     OW34936   2.019   8.830   2.721
77680SOL    HW134937   2.078   8.855   2.649
77680SOL    HW234938   2.039   8.894   2.790
77681SOL     OW34939   1.925  12.573  10.323
77681SOL    HW134940   1.938  12.525  10.405
77681SOL    HW234941   1.830  12.574  10.311
77682SOL     OW34942  11.559  12.146   3.153
77682SOL    HW134943  11.589  12.057   3.134
77682SOL    HW234944  11.597  12.199   3.083
77683SOL     OW34945  13.805   0.519   0.978
77683SOL    HW134946  13.844   0.434   0.957
77683SOL    HW234947  13.768   0.548   0.894
77684SOL     OW34948   6.540   4.385   8.177
77684SOL    HW134949   6.550   4.390   8.272
77684SOL    HW234950   6.449   4.411   8.161
77685SOL     OW34951  14.414   5.640   2.073
77685SOL    HW134952  14.421   5.624   2.167
77685SOL    HW234953  14.490   5.597   2.035
77686SOL     OW34954  10.019   6.454  14.613
77686SOL    HW134955  10.040   6.366  14.583
77686SOL    HW234956  10.003   6.504  14.532
77687SOL     OW34957  11.675   4.072  13.726
77687SOL    HW134958  11.751   4.023  13.759
77687SOL    HW234959  11.601   4.035  13.775
77688SOL     OW34960  12.057   3.023   8.890
77688SOL    HW134961  12.142   2.984   8.867
77688SOL    HW234962  11.995   2.982   8.830
77689SOL     OW34963  12.860   8.648   6.722
77689SOL    HW134964  12.844   8.603   6.639
77689SOL    HW234965  12.773   8.679   6.749
77690SOL     OW34966   2.626   8.189   4.515
77690SOL    HW134967   2.721   8.180   4.512
77690SOL    HW234968   2.599   8.191   4.423
77691SOL     OW34969  11.304   2.222   5.050
77691SOL    HW134970  11.225   2.169   5.041
77691SOL    HW234971  11.333   2.237   4.960
77692SOL     OW34972   1.556   1.853  12.594
77692SOL    HW134973   1.577   1.815  12.679
77692SOL    HW234974   1.501   1.788  12.551
77693SOL     OW34975   2.512  13.227  11.917
77693SOL    HW134976   2.530  13.150  11.971
77693SOL    HW234977   2.560  13.298  11.960
77694SOL     OW34978   4.157   6.004   7.642
77694SOL    HW134979   4.100   6.028   7.715
77694SOL    HW234980   4.183   5.914   7.661
77695SOL     OW34981   7.424   5.678   0.935
77695SOL    HW134982   7.333   5.697   0.960
77695SOL    HW234983   7.441   5.591   0.972
77696SOL     OW34984  10.712   7.480  12.461
77696SOL    HW134985  10.797   7.469  12.504
77696SOL    HW234986  10.684   7.391  12.441
77697SOL     OW34987   7.274   7.094   9.104
77697SOL    HW134988   7.308   7.040   9.033
77697SOL    HW234989   7.349   7.107   9.163
77698SOL     OW34990  12.908   4.577   4.315
77698SOL    HW134991  12.915   4.593   4.410
77698SOL    HW234992  12.861   4.494   4.309
77699SOL     OW34993   9.783   4.830   6.667
77699SOL    HW134994   9.712   4.894   6.673
77699SOL    HW234995   9.851   4.874   6.615
77700SOL     OW34996   9.079   6.724   2.449
77700SOL    HW134997   9.003   6.754   2.499
77700SOL    HW234998   9.043   6.667   2.381
77701SOL     OW34999   8.474   8.707   4.227
77701SOL    HW135000   8.466   8.612   4.213
77701SOL    HW235001   8.405   8.745   4.173
77702SOL     OW35002  13.585   2.915   8.369
77702SOL    HW135003  13.528   2.908   8.445
77702SOL    HW235004  13.617   3.005   8.371
77703SOL     OW35005   8.529   1.197  13.985
77703SOL    HW135006   8.612   1.181  14.030
77703SOL    HW235007   8.463   1.183  14.053
77704SOL     OW35008  11.217  11.096   7.913
77704SOL    HW135009  11.216  11.191   7.922
77704SOL    HW235010  11.179  11.064   7.994
77705SOL     OW35011   2.809   5.455   5.121
77705SOL    HW135012   2.846   5.404   5.049
77705SOL    HW235013   2.717   5.468   5.096
77706SOL     OW35014   7.715  13.466   9.387
77706SOL    HW135015   7.719  13.400   9.318
77706SOL    HW235016   7.631  13.450   9.431
77707SOL     OW35017   4.124   7.312   5.252
77707SOL    HW135018   4.176   7.282   5.326
77707SOL    HW235019   4.182   7.302   5.176
77708SOL     OW35020  10.900   2.184   0.960
77708SOL    HW135021  10.864   2.213   0.876
77708SOL    HW235022  10.969   2.248   0.979
77709SOL     OW35023  11.484  14.243  10.557
77709SOL    HW135024  11.531  14.266  10.637
77709SOL    HW235025  11.526  14.164  10.525
77710SOL     OW35026   1.812   1.801   3.997
77710SOL    HW135027   1.814   1.887   3.956
77710SOL    HW235028   1.788   1.741   3.926
77711SOL     OW35029  11.773   8.514   6.448
77711SOL    HW135030  11.770   8.570   6.370
77711SOL    HW235031  11.710   8.554   6.508
77712SOL     OW35032   5.341  14.210   5.395
77712SOL    HW135033   5.288  14.261   5.457
77712SOL    HW235034   5.313  14.120   5.408
77713SOL     OW35035   4.626   1.849   9.985
77713SOL    HW135036   4.643   1.940  10.005
77713SOL    HW235037   4.690   1.800  10.037
77714SOL     OW35038  13.684   5.689  12.274
77714SOL    HW135039  13.722   5.606  12.303
77714SOL    HW235040  13.622   5.713  12.343
77715SOL     OW35041   4.120  10.868   1.066
77715SOL    HW135042   4.117  10.961   1.087
77715SOL    HW235043   4.210  10.853   1.038
77716SOL     OW35044   2.276   5.382   7.406
77716SOL    HW135045   2.372   5.374   7.398
77716SOL    HW235046   2.248   5.295   7.436
77717SOL     OW35047   0.901   3.357  11.247
77717SOL    HW135048   0.856   3.367  11.331
77717SOL    HW235049   0.844   3.299  11.196
77718SOL     OW35050   7.495   3.370   9.364
77718SOL    HW135051   7.458   3.449   9.405
77718SOL    HW235052   7.429   3.344   9.300
77719SOL     OW35053   8.015   1.464   9.556
77719SOL    HW135054   7.983   1.394   9.613
77719SOL    HW235055   7.972   1.448   9.472
77720SOL     OW35056  13.711  10.577  12.107
77720SOL    HW135057  13.658  10.657  12.105
77720SOL    HW235058  13.785  10.598  12.164
77721SOL     OW35059   5.172  13.571   6.722
77721SOL    HW135060   5.188  13.501   6.785
77721SOL    HW235061   5.081  13.560   6.696
77722SOL     OW35062   7.461   1.292   2.736
77722SOL    HW135063   7.555   1.298   2.753
77722SOL    HW235064   7.420   1.340   2.808
77723SOL     OW35065   6.557  12.856  10.962
77723SOL    HW135066   6.524  12.766  10.963
77723SOL    HW235067   6.494  12.906  11.013
77724SOL     OW35068   9.095   7.695   7.276
77724SOL    HW135069   9.144   7.756   7.330
77724SOL    HW235070   9.034   7.653   7.337
77725SOL     OW35071   9.958   3.670  11.109
77725SOL    HW135072  10.015   3.632  11.042
77725SOL    HW235073   9.990   3.760  11.119
77726SOL     OW35074   2.370   0.492   5.675
77726SOL    HW135075   2.291   0.529   5.636
77726SOL    HW235076   2.387   0.413   5.625
77727SOL     OW35077   7.397   0.113   7.675
77727SOL    HW135078   7.375   0.173   7.747
77727SOL    HW235079   7.445   0.168   7.613
77728SOL     OW35080   6.940   3.967   7.916
77728SOL    HW135081   6.869   3.935   7.861
77728SOL    HW235082   7.004   3.895   7.916
77729SOL     OW35083   0.627   3.326   3.920
77729SOL    HW135084   0.695   3.261   3.934
77729SOL    HW235085   0.652   3.400   3.976
77730SOL     OW35086   1.758   5.563  10.904
77730SOL    HW135087   1.829   5.598  10.958
77730SOL    HW235088   1.733   5.481  10.946
77731SOL     OW35089   7.727   0.701   1.578
77731SOL    HW135090   7.650   0.749   1.609
77731SOL    HW235091   7.699   0.662   1.496
77732SOL     OW35092   0.403  11.092   7.945
77732SOL    HW135093   0.476  11.078   7.885
77732SOL    HW235094   0.368  11.178   7.921
77733SOL     OW35095   1.790   8.018   6.944
77733SOL    HW135096   1.838   8.093   6.909
77733SOL    HW235097   1.720   8.003   6.882
77734SOL     OW35098   6.244  10.155   3.667
77734SOL    HW135099   6.210  10.077   3.623
77734SOL    HW235100   6.334  10.133   3.689
77735SOL     OW35101   4.718  13.589  11.557
77735SOL    HW135102   4.634  13.597  11.602
77735SOL    HW235103   4.742  13.679  11.536
77736SOL     OW35104  12.626   9.592  13.998
77736SOL    HW135105  12.537   9.607  13.968
77736SOL    HW235106  12.681   9.617  13.924
77737SOL     OW35107  13.554  10.783   6.357
77737SOL    HW135108  13.560  10.714   6.424
77737SOL    HW235109  13.472  10.765   6.311
77738SOL     OW35110  12.030  14.244   0.152
77738SOL    HW135111  11.988  14.164   0.183
77738SOL    HW235112  11.974  14.275   0.081
77739SOL     OW35113   1.530  11.502  13.313
77739SOL    HW135114   1.471  11.428  13.327
77739SOL    HW235115   1.516  11.558  13.390
77740SOL     OW35116   8.377  12.044  12.402
77740SOL    HW135117   8.313  11.973  12.395
77740SOL    HW235118   8.355  12.103  12.330
77741SOL     OW35119   0.226   6.115  10.373
77741SOL    HW135120   0.149   6.061  10.393
77741SOL    HW235121   0.226   6.123  10.278
77742SOL     OW35122   7.741   4.826   4.970
77742SOL    HW135123   7.652   4.860   4.983
77742SOL    HW235124   7.759   4.775   5.048
77743SOL     OW35125   1.539  14.396   3.310
77743SOL    HW135126   1.583  14.375   3.228
77743SOL    HW235127   1.446  14.404   3.287
77744SOL     OW35128   5.263   6.901   2.663
77744SOL    HW135129   5.302   6.980   2.701
77744SOL    HW235130   5.334   6.860   2.615
77745SOL     OW35131  11.324  14.475  12.093
77745SOL    HW135132  11.358  14.510  12.176
77745SOL    HW235133  11.245  14.527  12.076
77746SOL     OW35134   9.941   9.626  11.618
77746SOL    HW135135  10.031   9.592  11.619
77746SOL    HW235136   9.891   9.559  11.571
77747SOL     OW35137   1.793   9.837  11.792
77747SOL    HW135138   1.887   9.833  11.774
77747SOL    HW235139   1.786   9.829  11.887
77748SOL     OW35140  12.260   3.303  11.903
77748SOL    HW135141  12.256   3.387  11.949
77748SOL    HW235142  12.292   3.325  11.816
77749SOL     OW35143  14.490   6.613   0.827
77749SOL    HW135144  14.560   6.582   0.770
77749SOL    HW235145  14.528   6.614   0.915
77750SOL     OW35146   4.745   3.071  14.610
77750SOL    HW135147   4.685   3.105  14.544
77750SOL    HW235148   4.703   2.992  14.643
77751SOL     OW35149  12.898  10.201   3.858
77751SOL    HW135150  12.879  10.203   3.764
77751SOL    HW235151  12.990  10.175   3.863
77752SOL     OW35152   2.744   2.095   1.229
77752SOL    HW135153   2.769   2.027   1.291
77752SOL    HW235154   2.720   2.047   1.149
77753SOL     OW35155   9.666   7.037   6.405
77753SOL    HW135156   9.601   7.026   6.336
77753SOL    HW235157   9.739   7.083   6.363
77754SOL     OW35158  11.028   8.202  13.310
77754SOL    HW135159  10.997   8.262  13.242
77754SOL    HW235160  11.100   8.249  13.352
77755SOL     OW35161   0.561   1.988  11.670
77755SOL    HW135162   0.559   2.065  11.612
77755SOL    HW235163   0.501   1.926  11.629
77756SOL     OW35164  11.927   6.504   5.734
77756SOL    HW135165  11.945   6.569   5.801
77756SOL    HW235166  11.832   6.502   5.727
77757SOL     OW35167   7.235  10.385  12.742
77757SOL    HW135168   7.208  10.298  12.714
77757SOL    HW235169   7.246  10.435  12.661
77758SOL     OW35170   7.260   9.952   4.377
77758SOL    HW135171   7.178   9.958   4.426
77758SOL    HW235172   7.307   9.879   4.420
77759SOL     OW35173   3.836   5.379  14.245
77759SOL    HW135174   3.911   5.368  14.303
77759SOL    HW235175   3.769   5.422  14.299
77760SOL     OW35176   7.127   5.440  11.973
77760SOL    HW135177   7.154   5.403  12.057
77760SOL    HW235178   7.204   5.489  11.942
77761SOL     OW35179   5.743   5.316  11.613
77761SOL    HW135180   5.793   5.237  11.630
77761SOL    HW235181   5.773   5.378  11.680
77762SOL     OW35182   0.190   4.460  14.782
77762SOL    HW135183   0.209   4.367  14.789
77762SOL    HW235184   0.161   4.473  14.692
77763SOL     OW35185  14.672   3.455   7.014
77763SOL    HW135186  14.622   3.504   6.948
77763SOL    HW235187  14.615   3.381   7.037
77764SOL     OW35188  11.954   6.988   6.051
77764SOL    HW135189  12.025   6.945   6.099
77764SOL    HW235190  11.891   7.012   6.119
77765SOL     OW35191   3.659   0.128   0.206
77765SOL    HW135192   3.714   0.056   0.175
77765SOL    HW235193   3.630   0.173   0.127
77766SOL     OW35194   9.414   3.264   6.245
77766SOL    HW135195   9.322   3.275   6.221
77766SOL    HW235196   9.413   3.204   6.320
77767SOL     OW35197  12.411   3.383   9.024
77767SOL    HW135198  12.499   3.421   9.032
77767SOL    HW235199  12.409   3.346   8.936
77768SOL     OW35200   5.590   9.277   2.146
77768SOL    HW135201   5.565   9.202   2.092
77768SOL    HW235202   5.548   9.261   2.231
77769SOL     OW35203   0.172   9.987   4.755
77769SOL    HW135204   0.113  10.061   4.739
77769SOL    HW235205   0.114   9.911   4.760
77770SOL     OW35206   2.717   7.186   8.155
77770SOL    HW135207   2.768   7.143   8.086
77770SOL    HW235208   2.716   7.123   8.227
77771SOL     OW35209   5.696   1.259  12.978
77771SOL    HW135210   5.780   1.303  12.965
77771SOL    HW235211   5.710   1.170  12.946
77772SOL     OW35212   6.207   8.211   8.566
77772SOL    HW135213   6.160   8.202   8.483
77772SOL    HW235214   6.298   8.188   8.544
77773SOL     OW35215   3.134  13.699   4.462
77773SOL    HW135216   3.077  13.663   4.394
77773SOL    HW235217   3.222  13.676   4.434
77774SOL     OW35218   9.989   4.021  12.746
77774SOL    HW135219  10.007   4.021  12.840
77774SOL    HW235220  10.042   4.093  12.712
77775SOL     OW35221   9.567  11.824   8.003
77775SOL    HW135222   9.633  11.759   7.977
77775SOL    HW235223   9.560  11.883   7.928
77776SOL     OW35224  13.073   0.771   2.371
77776SOL    HW135225  13.047   0.719   2.448
77776SOL    HW235226  13.133   0.713   2.324
77777SOL     OW35227  11.842   8.076   3.875
77777SOL    HW135228  11.918   8.099   3.823
77777SOL    HW235229  11.791   8.017   3.819
77778SOL     OW35230   2.371  11.434   5.186
77778SOL    HW135231   2.392  11.468   5.273
77778SOL    HW235232   2.380  11.510   5.128
77779SOL     OW35233  10.459   4.287   7.152
77779SOL    HW135234  10.492   4.289   7.242
77779SOL    HW235235  10.400   4.212   7.149
77780SOL     OW35236   9.105   8.742  13.485
77780SOL    HW135237   9.149   8.791  13.415
77780SOL    HW235238   9.023   8.790  13.500
77781SOL     OW35239   7.967  10.914   7.376
77781SOL    HW135240   7.979  11.004   7.405
77781SOL    HW235241   7.961  10.920   7.281
77782SOL     OW35242   4.021  11.832   6.344
77782SOL    HW135243   3.976  11.850   6.262
77782SOL    HW235244   3.978  11.887   6.408
77783SOL     OW35245   5.689  14.827  12.471
77783SOL    HW135246   5.736   0.028  12.489
77783SOL    HW235247   5.676  14.787  12.557
77784SOL     OW35248   5.611   5.144  14.280
77784SOL    HW135249   5.517   5.132  14.295
77784SOL    HW235250   5.635   5.074  14.220
77785SOL     OW35251   8.723   5.261  11.439
77785SOL    HW135252   8.795   5.214  11.480
77785SOL    HW235253   8.649   5.200  11.444
77786SOL     OW35254  11.325   6.482   7.655
77786SOL    HW135255  11.291   6.512   7.571
77786SOL    HW235256  11.257   6.423   7.688
77787SOL     OW35257  11.491   9.678   6.220
77787SOL    HW135258  11.553   9.627   6.167
77787SOL    HW235259  11.491   9.765   6.180
77788SOL     OW35260   1.351  12.160   9.056
77788SOL    HW135261   1.300  12.188   9.132
77788SOL    HW235262   1.316  12.212   8.984
77789SOL     OW35263  10.465   3.066   0.238
77789SOL    HW135264  10.426   2.979   0.248
77789SOL    HW235265  10.405   3.113   0.180
77790SOL     OW35266  10.230  12.217  13.821
77790SOL    HW135267  10.272  12.149  13.873
77790SOL    HW235268  10.226  12.180  13.732
77791SOL     OW35269  10.404   6.547   7.618
77791SOL    HW135270  10.437   6.550   7.528
77791SOL    HW235271  10.320   6.503   7.611
77792SOL     OW35272   3.988  11.543   4.715
77792SOL    HW135273   3.969  11.614   4.776
77792SOL    HW235274   3.966  11.580   4.629
77793SOL     OW35275  12.281   7.714   3.024
77793SOL    HW135276  12.290   7.687   2.933
77793SOL    HW235277  12.197   7.678   3.053
77794SOL     OW35278  10.483   8.819   1.188
77794SOL    HW135279  10.396   8.837   1.151
77794SOL    HW235280  10.473   8.840   1.281
77795SOL     OW35281  13.560   9.336   8.165
77795SOL    HW135282  13.539   9.270   8.231
77795SOL    HW235283  13.549   9.290   8.081
77796SOL     OW35284   0.134  11.505   1.344
77796SOL    HW135285   0.140  11.601   1.347
77796SOL    HW235286   0.040  11.487   1.345
77797SOL     OW35287  11.301   4.505  12.193
77797SOL    HW135288  11.325   4.491  12.102
77797SOL    HW235289  11.246   4.431  12.216
77798SOL     OW35290  11.160  11.374   8.947
77798SOL    HW135291  11.101  11.322   9.002
77798SOL    HW235292  11.239  11.320   8.940
77799SOL     OW35293  10.045   5.525   4.887
77799SOL    HW135294  10.056   5.538   4.792
77799SOL    HW235295  10.111   5.582   4.926
77800SOL     OW35296  10.401   6.815   0.717
77800SOL    HW135297  10.471   6.753   0.695
77800SOL    HW235298  10.321   6.763   0.717
77801SOL     OW35299  14.716   8.137   3.648
77801SOL    HW135300  14.803   8.138   3.687
77801SOL    HW235301  14.727   8.090   3.566
77802SOL     OW35302   4.087  14.332  13.835
77802SOL    HW135303   4.088  14.413  13.885
77802SOL    HW235304   4.023  14.348  13.765
77803SOL     OW35305  14.713   7.512   9.048
77803SOL    HW135306  14.689   7.528   8.957
77803SOL    HW235307  14.670   7.582   9.097
77804SOL     OW35308   0.032   3.518  13.318
77804SOL    HW135309   0.030   3.592  13.379
77804SOL    HW235310   0.095   3.457  13.356
77805SOL     OW35311  12.673  11.481   1.767
77805SOL    HW135312  12.660  11.452   1.677
77805SOL    HW235313  12.762  11.515   1.769
77806SOL     OW35314  13.523   7.446   8.654
77806SOL    HW135315  13.495   7.435   8.745
77806SOL    HW235316  13.441   7.446   8.603
77807SOL     OW35317  10.586  11.048   7.179
77807SOL    HW135318  10.539  10.972   7.142
77807SOL    HW235319  10.584  11.113   7.110
77808SOL     OW35320   2.828   9.087   3.891
77808SOL    HW135321   2.764   9.017   3.902
77808SOL    HW235322   2.779   9.168   3.905
77809SOL     OW35323   6.802   7.402   2.224
77809SOL    HW135324   6.888   7.369   2.252
77809SOL    HW235325   6.810   7.497   2.231
77810SOL     OW35326   6.020  12.938   3.909
77810SOL    HW135327   6.065  12.956   3.827
77810SOL    HW235328   6.088  12.943   3.976
77811SOL     OW35329   7.681  14.436   2.540
77811SOL    HW135330   7.733  14.486   2.476
77811SOL    HW235331   7.732  14.358   2.557
77812SOL     OW35332   0.705  14.106  10.052
77812SOL    HW135333   0.787  14.080  10.009
77812SOL    HW235334   0.644  14.123   9.980
77813SOL     OW35335   8.589   6.690   9.990
77813SOL    HW135336   8.525   6.708  10.058
77813SOL    HW235337   8.619   6.601  10.007
77814SOL     OW35338   6.334   0.015  13.552
77814SOL    HW135339   6.347   0.011  13.647
77814SOL    HW235340   6.257  14.841  13.537
77815SOL     OW35341   9.968   6.434   6.873
77815SOL    HW135342  10.022   6.393   6.940
77815SOL    HW235343  10.030   6.479   6.816
77816SOL     OW35344   6.006  13.772  12.993
77816SOL    HW135345   5.969  13.806  13.075
77816SOL    HW235346   6.083  13.825  12.977
77817SOL     OW35347  10.068  13.707   8.650
77817SOL    HW135348  10.029  13.652   8.582
77817SOL    HW235349  10.011  13.783   8.656
77818SOL     OW35350  14.163   8.604  13.705
77818SOL    HW135351  14.128   8.519  13.679
77818SOL    HW235352  14.231   8.623  13.640
77819SOL     OW35353   9.012  13.834  11.038
77819SOL    HW135354   9.047  13.762  11.091
77819SOL    HW235355   9.025  13.912  11.092
77820SOL     OW35356   3.772   1.607   1.638
77820SOL    HW135357   3.739   1.554   1.710
77820SOL    HW235358   3.694   1.648   1.600
77821SOL     OW35359   7.812   4.848  12.448
77821SOL    HW135360   7.878   4.809  12.505
77821SOL    HW235361   7.759   4.775  12.418
77822SOL     OW35362   9.300  13.771  14.532
77822SOL    HW135363   9.229  13.722  14.492
77822SOL    HW235364   9.364  13.704  14.558
77823SOL     OW35365   9.665  12.978  14.250
77823SOL    HW135366   9.721  12.942  14.318
77823SOL    HW235367   9.599  12.910  14.236
77824SOL     OW35368   4.950   3.138   6.020
77824SOL    HW135369   4.936   3.231   6.035
77824SOL    HW235370   5.017   3.135   5.952
77825SOL     OW35371   2.997   4.898  11.128
77825SOL    HW135372   2.980   4.816  11.082
77825SOL    HW235373   3.093   4.904  11.131
77826SOL     OW35374   3.577   3.312  10.761
77826SOL    HW135375   3.668   3.287  10.741
77826SOL    HW235376   3.574   3.406  10.745
77827SOL     OW35377   6.586   5.977   9.779
77827SOL    HW135378   6.551   6.062   9.805
77827SOL    HW235379   6.606   5.987   9.686
77828SOL     OW35380   0.341   9.730   7.608
77828SOL    HW135381   0.283   9.668   7.563
77828SOL    HW235382   0.407   9.675   7.650
77829SOL     OW35383   8.154   8.475   6.248
77829SOL    HW135384   8.234   8.424   6.234
77829SOL    HW235385   8.137   8.468   6.342
77830SOL     OW35386   2.416   6.905   2.619
77830SOL    HW135387   2.488   6.966   2.604
77830SOL    HW235388   2.423   6.841   2.548
77831SOL     OW35389   7.040   2.203  13.146
77831SOL    HW135390   7.022   2.262  13.220
77831SOL    HW235391   7.089   2.257  13.084
77832SOL     OW35392   0.906  11.341  14.525
77832SOL    HW135393   0.894  11.305  14.437
77832SOL    HW235394   0.825  11.322  14.571
77833SOL     OW35395  13.973   1.868   1.993
77833SOL    HW135396  13.948   1.840   1.905
77833SOL    HW235397  14.025   1.947   1.980
77834SOL     OW35398   2.601  12.472  14.054
77834SOL    HW135399   2.663  12.528  14.100
77834SOL    HW235400   2.630  12.475  13.963
77835SOL     OW35401  13.994  10.648   3.399
77835SOL    HW135402  14.002  10.556   3.374
77835SOL    HW235403  13.922  10.681   3.345
77836SOL     OW35404   0.591   6.874   7.360
77836SOL    HW135405   0.673   6.844   7.320
77836SOL    HW235406   0.564   6.802   7.416
77837SOL     OW35407  11.608   1.414   1.988
77837SOL    HW135408  11.628   1.507   1.991
77837SOL    HW235409  11.522   1.407   2.031
77838SOL     OW35410   5.059   0.161   6.788
77838SOL    HW135411   5.044   0.142   6.880
77838SOL    HW235412   5.154   0.157   6.778
77839SOL     OW35413   4.424  14.008   1.074
77839SOL    HW135414   4.507  13.960   1.071
77839SOL    HW235415   4.428  14.067   0.999
77840SOL     OW35416   2.783   2.940  11.256
77840SOL    HW135417   2.714   2.977  11.200
77840SOL    HW235418   2.865   2.965  11.214
77841SOL     OW35419  14.675   1.305   1.744
77841SOL    HW135420  14.583   1.330   1.746
77841SOL    HW235421  14.720   1.376   1.790
77842SOL     OW35422   0.043  12.803  11.098
77842SOL    HW135423   0.026  12.743  11.171
77842SOL    HW235424   0.132  12.783  11.070
77843SOL     OW35425  11.023   4.929  14.880
77843SOL    HW135426  10.943   4.917  14.829
77843SOL    HW235427  11.074   4.849  14.864
77844SOL     OW35428   6.242   5.213  10.050
77844SOL    HW135429   6.302   5.236   9.979
77844SOL    HW235430   6.164   5.179  10.006
77845SOL     OW35431  14.469   4.047   7.929
77845SOL    HW135432  14.560   4.032   7.904
77845SOL    HW235433  14.460   4.003   8.014
77846SOL     OW35434  12.505   4.210   0.779
77846SOL    HW135435  12.518   4.255   0.696
77846SOL    HW235436  12.422   4.244   0.812
77847SOL     OW35437   6.352   9.407   4.039
77847SOL    HW135438   6.395   9.350   4.103
77847SOL    HW235439   6.315   9.347   3.974
77848SOL     OW35440  14.827   3.712   7.509
77848SOL    HW135441  14.760   3.666   7.458
77848SOL    HW235442  14.810   3.805   7.491
77849SOL     OW35443  11.286   1.841   5.622
77849SOL    HW135444  11.303   1.770   5.560
77849SOL    HW235445  11.219   1.807   5.681
77850SOL     OW35446  14.503   4.545   8.441
77850SOL    HW135447  14.523   4.584   8.526
77850SOL    HW235448  14.423   4.588   8.413
77851SOL     OW35449   9.275   0.980   0.083
77851SOL    HW135450   9.274   0.887   0.058
77851SOL    HW235451   9.325   0.982   0.164
77852SOL     OW35452  12.163  14.329   1.710
77852SOL    HW135453  12.158  14.248   1.760
77852SOL    HW235454  12.074  14.347   1.683
77853SOL     OW35455   1.837   6.035   9.578
77853SOL    HW135456   1.882   5.955   9.550
77853SOL    HW235457   1.854   6.097   9.507
77854SOL     OW35458   6.248   6.203  11.011
77854SOL    HW135459   6.218   6.201  10.921
77854SOL    HW235460   6.168   6.192  11.063
77855SOL     OW35461   6.508  11.672   7.021
77855SOL    HW135462   6.416  11.683   6.996
77855SOL    HW235463   6.543  11.610   6.957
77856SOL     OW35464  11.377   3.113   4.166
77856SOL    HW135465  11.291   3.152   4.152
77856SOL    HW235466  11.366   3.057   4.243
77857SOL     OW35467   5.490  13.631   7.733
77857SOL    HW135468   5.409  13.582   7.743
77857SOL    HW235469   5.489  13.694   7.805
77858SOL     OW35470   6.308   6.886   3.860
77858SOL    HW135471   6.249   6.813   3.839
77858SOL    HW235472   6.250   6.960   3.874
77859SOL     OW35473  11.231  11.260   8.686
77859SOL    HW135474  11.233  11.260   8.590
77859SOL    HW235475  11.140  11.280   8.709
77860SOL     OW35476   8.650   6.280   7.626
77860SOL    HW135477   8.715   6.324   7.571
77860SOL    HW235478   8.583   6.250   7.565
77861SOL     OW35479  13.689  14.015   1.848
77861SOL    HW135480  13.627  13.943   1.859
77861SOL    HW235481  13.761  13.995   1.908
77862SOL     OW35482  10.844   2.324   5.560
77862SOL    HW135483  10.863   2.410   5.596
77862SOL    HW235484  10.802   2.277   5.632
77863SOL     OW35485   2.583   2.073   9.616
77863SOL    HW135486   2.601   2.166   9.630
77863SOL    HW235487   2.517   2.051   9.681
77864SOL     OW35488   5.623   3.057   2.433
77864SOL    HW135489   5.552   2.998   2.407
77864SOL    HW235490   5.640   3.109   2.355
77865SOL     OW35491  12.071   2.377   7.613
77865SOL    HW135492  12.033   2.290   7.602
77865SOL    HW235493  12.088   2.408   7.525
77866SOL     OW35494   3.264   6.910   6.864
77866SOL    HW135495   3.258   6.948   6.777
77866SOL    HW235496   3.224   6.824   6.855
77867SOL     OW35497   4.585  14.268   9.580
77867SOL    HW135498   4.500  14.227   9.564
77867SOL    HW235499   4.639  14.238   9.507
77868SOL     OW35500  10.200   0.145   5.064
77868SOL    HW135501  10.229   0.235   5.051
77868SOL    HW235502  10.162   0.120   4.979
77869SOL     OW35503   0.995   8.179   7.288
77869SOL    HW135504   0.936   8.114   7.326
77869SOL    HW235505   1.019   8.235   7.362
77870SOL     OW35506   9.848  11.565   0.334
77870SOL    HW135507   9.871  11.645   0.383
77870SOL    HW235508   9.772  11.530   0.380
77871SOL     OW35509   4.487   5.750   8.310
77871SOL    HW135510   4.482   5.679   8.246
77871SOL    HW235511   4.427   5.817   8.277
77872SOL     OW35512   0.489   7.814   2.295
77872SOL    HW135513   0.472   7.733   2.343
77872SOL    HW235514   0.403   7.845   2.268
77873SOL     OW35515   1.689   3.619   5.784
77873SOL    HW135516   1.621   3.684   5.802
77873SOL    HW235517   1.663   3.579   5.701
77874SOL     OW35518   6.969  13.162   1.915
77874SOL    HW135519   6.906  13.163   1.843
77874SOL    HW235520   6.976  13.254   1.941
77875SOL     OW35521   3.939  10.372  11.276
77875SOL    HW135522   3.927  10.377  11.182
77875SOL    HW235523   3.869  10.426  11.313
77876SOL     OW35524   5.623   5.139   7.045
77876SOL    HW135525   5.552   5.188   7.086
77876SOL    HW235526   5.602   5.138   6.952
77877SOL     OW35527  10.637   1.234   2.913
77877SOL    HW135528  10.600   1.168   2.854
77877SOL    HW235529  10.709   1.188   2.957
77878SOL     OW35530   2.241   1.251  13.206
77878SOL    HW135531   2.177   1.320  13.224
77878SOL    HW235532   2.207   1.206  13.129
77879SOL     OW35533   9.654   7.334  12.408
77879SOL    HW135534   9.594   7.265  12.382
77879SOL    HW235535   9.732   7.288  12.440
77880SOL     OW35536  11.767  13.536   5.656
77880SOL    HW135537  11.860  13.540   5.633
77880SOL    HW235538  11.721  13.549   5.572
77881SOL     OW35539  12.749   6.149   8.580
77881SOL    HW135540  12.658   6.176   8.566
77881SOL    HW235541  12.773   6.102   8.500
77882SOL     OW35542   2.449   5.504  10.791
77882SOL    HW135543   2.533   5.526  10.833
77882SOL    HW235544   2.400   5.458  10.859
77883SOL     OW35545   0.027  13.492   6.433
77883SOL    HW135546   0.030  13.554   6.506
77883SOL    HW235547   0.101  13.518   6.377
77884SOL     OW35548  12.233   2.711   1.565
77884SOL    HW135549  12.203   2.800   1.546
77884SOL    HW235550  12.164   2.674   1.621
77885SOL     OW35551   2.293  12.594   0.220
77885SOL    HW135552   2.296  12.550   0.305
77885SOL    HW235553   2.385  12.617   0.203
77886SOL     OW35554   0.329   5.249   6.962
77886SOL    HW135555   0.266   5.321   6.961
77886SOL    HW235556   0.367   5.249   6.875
77887SOL     OW35557  13.218  12.683   3.521
77887SOL    HW135558  13.310  12.656   3.523
77887SOL    HW235559  13.190  12.677   3.612
77888SOL     OW35560   7.194  12.412   5.982
77888SOL    HW135561   7.152  12.424   5.896
77888SOL    HW235562   7.246  12.332   5.972
77889SOL     OW35563   4.467   4.893   1.937
77889SOL    HW135564   4.538   4.956   1.923
77889SOL    HW235565   4.441   4.866   1.848
77890SOL     OW35566  11.844  11.790   4.456
77890SOL    HW135567  11.920  11.795   4.513
77890SOL    HW235568  11.843  11.873   4.409
77891SOL     OW35569   5.774   1.455  14.510
77891SOL    HW135570   5.685   1.470  14.540
77891SOL    HW235571   5.771   1.474  14.416
77892SOL     OW35572  14.354  11.430  13.878
77892SOL    HW135573  14.313  11.489  13.941
77892SOL    HW235574  14.431  11.396  13.923
77893SOL     OW35575   6.918   1.830   7.449
77893SOL    HW135576   6.912   1.926   7.445
77893SOL    HW235577   6.999   1.809   7.402
77894SOL     OW35578   9.535   5.937   0.602
77894SOL    HW135579   9.626   5.913   0.586
77894SOL    HW235580   9.491   5.855   0.624
77895SOL     OW35581  14.805   9.173  11.104
77895SOL    HW135582   0.008   9.140  11.069
77895SOL    HW235583  14.815   9.268  11.103
77896SOL     OW35584   3.851   5.340   5.315
77896SOL    HW135585   3.772   5.392   5.324
77896SOL    HW235586   3.822   5.249   5.319
77897SOL     OW35587  13.984  12.832  13.914
77897SOL    HW135588  13.954  12.916  13.949
77897SOL    HW235589  13.948  12.828  13.826
77898SOL     OW35590   0.060   5.861  10.881
77898SOL    HW135591   0.103   5.947  10.892
77898SOL    HW235592   0.126   5.798  10.911
77899SOL     OW35593   8.241   1.857  12.695
77899SOL    HW135594   8.169   1.863  12.632
77899SOL    HW235595   8.231   1.934  12.751
77900SOL     OW35596   2.472  12.376  13.695
77900SOL    HW135597   2.548  12.371  13.638
77900SOL    HW235598   2.463  12.288  13.732
77901SOL     OW35599   1.693   9.782   4.886
77901SOL    HW135600   1.619   9.722   4.892
77901SOL    HW235601   1.765   9.735   4.928
77902SOL     OW35602  14.839  12.796  11.581
77902SOL    HW135603  14.750  12.808  11.612
77902SOL    HW235604  14.846  12.702  11.564
77903SOL     OW35605   9.749   4.353  10.384
77903SOL    HW135606   9.753   4.368  10.478
77903SOL    HW235607   9.735   4.259  10.374
77904SOL     OW35608   2.632   8.171   1.510
77904SOL    HW135609   2.699   8.103   1.512
77904SOL    HW235610   2.590   8.165   1.596
77905SOL     OW35611   4.955  11.406   7.466
77905SOL    HW135612   4.872  11.444   7.437
77905SOL    HW235613   5.013  11.481   7.477
77906SOL     OW35614   0.914  14.118   0.121
77906SOL    HW135615   0.836  14.120   0.177
77906SOL    HW235616   0.976  14.062   0.168
77907SOL     OW35617   3.088   3.474   6.652
77907SOL    HW135618   3.025   3.536   6.688
77907SOL    HW235619   3.107   3.415   6.725
77908SOL     OW35620   5.859  12.593   9.515
77908SOL    HW135621   5.931  12.652   9.537
77908SOL    HW235622   5.820  12.631   9.437
77909SOL     OW35623   3.100   1.755  13.442
77909SOL    HW135624   3.096   1.673  13.394
77909SOL    HW235625   3.193   1.765  13.463
77910SOL     OW35626   6.175   2.974  14.775
77910SOL    HW135627   6.175   2.880  14.794
77910SOL    HW235628   6.145   3.014  14.857
77911SOL     OW35629  14.689   3.878   8.214
77911SOL    HW135630  14.605   3.924   8.210
77911SOL    HW235631  14.667   3.786   8.200
77912SOL     OW35632  10.873   6.350   4.946
77912SOL    HW135633  10.902   6.406   4.874
77912SOL    HW235634  10.779   6.340   4.932
77913SOL     OW35635   0.371   7.917   5.614
77913SOL    HW135636   0.396   8.007   5.636
77913SOL    HW235637   0.316   7.926   5.536
77914SOL     OW35638  10.107   9.753  11.215
77914SOL    HW135639  10.152   9.833  11.242
77914SOL    HW235640  10.023   9.755  11.261
77915SOL     OW35641   9.167  11.349   2.351
77915SOL    HW135642   9.094  11.311   2.302
77915SOL    HW235643   9.125  11.392   2.426
77916SOL     OW35644  12.168   6.800  11.275
77916SOL    HW135645  12.191   6.882  11.319
77916SOL    HW235646  12.179   6.733  11.342
77917SOL     OW35647  13.181   7.795  13.379
77917SOL    HW135648  13.253   7.828  13.433
77917SOL    HW235649  13.224   7.758  13.302
77918SOL     OW35650   0.836  12.999  14.150
77918SOL    HW135651   0.913  12.944  14.166
77918SOL    HW235652   0.827  13.051  14.230
77919SOL     OW35653   1.564   2.655   7.698
77919SOL    HW135654   1.614   2.613   7.627
77919SOL    HW235655   1.630   2.693   7.755
77920SOL     OW35656   2.931   2.761   6.366
77920SOL    HW135657   2.922   2.842   6.316
77920SOL    HW235658   2.917   2.788   6.457
77921SOL     OW35659   6.524   9.733  11.331
77921SOL    HW135660   6.518   9.827  11.314
77921SOL    HW235661   6.448   9.714  11.386
77922SOL     OW35662   1.277   8.787   6.046
77922SOL    HW135663   1.321   8.701   6.042
77922SOL    HW235664   1.210   8.783   5.978
77923SOL     OW35665  11.622   5.805  10.749
77923SOL    HW135666  11.533   5.797  10.784
77923SOL    HW235667  11.679   5.783  10.824
77924SOL     OW35668   8.323  10.076   7.395
77924SOL    HW135669   8.315   9.990   7.354
77924SOL    HW235670   8.233  10.106   7.407
77925SOL     OW35671   9.106   0.680  14.191
77925SOL    HW135672   9.108   0.767  14.231
77925SOL    HW235673   9.016   0.650  14.202
77926SOL     OW35674   1.212   1.344   9.409
77926SOL    HW135675   1.196   1.329   9.316
77926SOL    HW235676   1.134   1.311   9.453
77927SOL     OW35677  12.738  11.545  13.062
77927SOL    HW135678  12.657  11.592  13.084
77927SOL    HW235679  12.730  11.461  13.106
77928SOL     OW35680   7.684   1.632   1.881
77928SOL    HW135681   7.669   1.703   1.819
77928SOL    HW235682   7.610   1.638   1.942
77929SOL     OW35683   3.279   4.893   0.857
77929SOL    HW135684   3.368   4.888   0.822
77929SOL    HW235685   3.245   4.804   0.847
77930SOL     OW35686  11.356   8.654   4.356
77930SOL    HW135687  11.280   8.658   4.298
77930SOL    HW235688  11.321   8.619   4.438
77931SOL     OW35689  12.109   8.772   5.816
77931SOL    HW135690  12.137   8.854   5.775
77931SOL    HW235691  12.013   8.779   5.820
77932SOL     OW35692  11.107  12.362   2.316
77932SOL    HW135693  11.166  12.410   2.374
77932SOL    HW235694  11.072  12.291   2.369
77933SOL     OW35695   5.575   6.552  14.819
77933SOL    HW135696   5.539   6.501   0.011
77933SOL    HW235697   5.499   6.574  14.765
77934SOL     OW35698   4.726  14.055  10.823
77934SOL    HW135699   4.700  14.038  10.914
77934SOL    HW235700   4.723  13.969  10.781
77935SOL     OW35701   6.199   1.939   0.364
77935SOL    HW135702   6.201   1.859   0.417
77935SOL    HW235703   6.216   1.909   0.275
77936SOL     OW35704  14.178   8.977   0.278
77936SOL    HW135705  14.105   8.963   0.340
77936SOL    HW235706  14.242   8.910   0.302
77937SOL     OW35707   2.908   4.113  11.017
77937SOL    HW135708   2.864   4.088  11.098
77937SOL    HW235709   2.880   4.048  10.953
77938SOL     OW35710   7.273   5.004   5.087
77938SOL    HW135711   7.211   4.933   5.105
77938SOL    HW235712   7.322   5.014   5.169
77939SOL     OW35713  11.240   9.773   0.387
77939SOL    HW135714  11.162   9.725   0.361
77939SOL    HW235715  11.300   9.706   0.419
77940SOL     OW35716  11.008  14.546  12.132
77940SOL    HW135717  11.003  14.592  12.216
77940SOL    HW235718  10.923  14.502  12.124
77941SOL     OW35719  11.115   7.222  12.970
77941SOL    HW135720  11.036   7.197  13.018
77941SOL    HW235721  11.157   7.139  12.947
77942SOL     OW35722   4.641  13.928  10.174
77942SOL    HW135723   4.680  13.841  10.177
77942SOL    HW235724   4.590  13.928  10.093
77943SOL     OW35725  14.206   1.730   0.758
77943SOL    HW135726  14.220   1.677   0.837
77943SOL    HW235727  14.241   1.677   0.687
77944SOL     OW35728   8.958   9.603   8.549
77944SOL    HW135729   8.983   9.610   8.641
77944SOL    HW235730   8.869   9.638   8.545
77945SOL     OW35731  10.672   3.973   5.952
77945SOL    HW135732  10.625   4.055   5.968
77945SOL    HW235733  10.607   3.905   5.970
77946SOL     OW35734   5.324   2.187  10.134
77946SOL    HW135735   5.277   2.111  10.168
77946SOL    HW235736   5.303   2.258  10.195
77947SOL     OW35737   6.060   0.765   0.672
77947SOL    HW135738   6.088   0.685   0.717
77947SOL    HW235739   5.969   0.749   0.649
77948SOL     OW35740   8.993  13.242   7.737
77948SOL    HW135741   8.899  13.247   7.723
77948SOL    HW235742   9.021  13.333   7.748
77949SOL     OW35743  13.952   3.658   1.035
77949SOL    HW135744  13.975   3.624   1.121
77949SOL    HW235745  13.869   3.704   1.048
77950SOL     OW35746   1.325   3.524   1.646
77950SOL    HW135747   1.239   3.561   1.665
77950SOL    HW235748   1.318   3.490   1.557
77951SOL     OW35749   8.579   6.588   5.654
77951SOL    HW135750   8.498   6.588   5.705
77951SOL    HW235751   8.647   6.611   5.718
77952SOL     OW35752   8.690   0.963  13.689
77952SOL    HW135753   8.738   1.031  13.736
77952SOL    HW235754   8.675   1.000  13.602
77953SOL     OW35755   1.547  13.997   0.035
77953SOL    HW135756   1.545  14.027  14.825
77953SOL    HW235757   1.619  14.045   0.075
77954SOL     OW35758   4.956   8.043  10.895
77954SOL    HW135759   4.974   8.056  10.989
77954SOL    HW235760   4.920   8.127  10.866
77955SOL     OW35761   2.849   7.234  14.383
77955SOL    HW135762   2.818   7.301  14.443
77955SOL    HW235763   2.804   7.253  14.300
77956SOL     OW35764   1.776   4.560   9.717
77956SOL    HW135765   1.828   4.640   9.714
77956SOL    HW235766   1.700   4.583   9.770
77957SOL     OW35767  14.736   4.671   8.319
77957SOL    HW135768  14.666   4.620   8.360
77957SOL    HW235769  14.695   4.755   8.298
77958SOL     OW35770  10.696   1.533  12.078
77958SOL    HW135771  10.670   1.619  12.046
77958SOL    HW235772  10.616   1.495  12.114
77959SOL     OW35773   4.609   8.892   7.126
77959SOL    HW135774   4.687   8.904   7.071
77959SOL    HW235775   4.631   8.818   7.182
77960SOL     OW35776   7.763   1.458   8.880
77960SOL    HW135777   7.750   1.517   8.806
77960SOL    HW235778   7.846   1.484   8.919
77961SOL     OW35779  10.312   1.572   7.518
77961SOL    HW135780  10.337   1.604   7.604
77961SOL    HW235781  10.283   1.482   7.533
77962SOL     OW35782  14.703   9.714   3.895
77962SOL    HW135783  14.780   9.726   3.840
77962SOL    HW235784  14.736   9.720   3.984
77963SOL     OW35785   9.548  10.184   0.240
77963SOL    HW135786   9.462  10.223   0.227
77963SOL    HW235787   9.595  10.245   0.296
77964SOL     OW35788   6.113  13.156  11.662
77964SOL    HW135789   6.206  13.171  11.680
77964SOL    HW235790   6.110  13.128  11.571
77965SOL     OW35791   3.468   3.076   3.379
77965SOL    HW135792   3.409   3.010   3.341
77965SOL    HW235793   3.432   3.092   3.466
77966SOL     OW35794   9.278   7.536   4.235
77966SOL    HW135795   9.200   7.551   4.288
77966SOL    HW235796   9.341   7.498   4.296
77967SOL     OW35797  14.872   7.850   5.067
77967SOL    HW135798  14.780   7.868   5.048
77967SOL    HW235799  14.869   7.782   5.135
77968SOL     OW35800   4.804  13.852   4.280
77968SOL    HW135801   4.710  13.839   4.278
77968SOL    HW235802   4.816  13.932   4.332
77969SOL     OW35803   6.195  12.569   4.285
77969SOL    HW135804   6.209  12.591   4.193
77969SOL    HW235805   6.144  12.488   4.283
77970SOL     OW35806   9.595   9.397  10.207
77970SOL    HW135807   9.584   9.490  10.191
77970SOL    HW235808   9.639   9.391  10.292
77971SOL     OW35809   2.305   9.636  10.651
77971SOL    HW135810   2.234   9.577  10.674
77971SOL    HW235811   2.384   9.582  10.654
77972SOL     OW35812   0.299   3.290   3.137
77972SOL    HW135813   0.349   3.369   3.157
77972SOL    HW235814   0.220   3.321   3.094
77973SOL     OW35815   0.206  10.792  12.272
77973SOL    HW135816   0.239  10.708  12.239
77973SOL    HW235817   0.250  10.803  12.356
77974SOL     OW35818   9.899   6.538   3.319
77974SOL    HW135819   9.876   6.460   3.371
77974SOL    HW235820   9.985   6.517   3.282
77975SOL     OW35821  11.987   5.965  10.889
77975SOL    HW135822  12.049   6.020  10.937
77975SOL    HW235823  11.916   5.949  10.952
77976SOL     OW35824   7.772  12.091   5.899
77976SOL    HW135825   7.678  12.094   5.918
77976SOL    HW235826   7.782  12.020   5.836
77977SOL     OW35827  12.643  12.236  14.622
77977SOL    HW135828  12.650  12.142  14.605
77977SOL    HW235829  12.552  12.248  14.649
77978SOL     OW35830   2.320  12.464   2.649
77978SOL    HW135831   2.232  12.428   2.662
77978SOL    HW235832   2.379  12.390   2.665
77979SOL     OW35833   5.763   7.465   4.559
77979SOL    HW135834   5.709   7.403   4.510
77979SOL    HW235835   5.853   7.435   4.544
77980SOL     OW35836   4.523  14.558  10.599
77980SOL    HW135837   4.481  14.585  10.518
77980SOL    HW235838   4.470  14.485  10.631
77981SOL     OW35839   2.442   6.706  14.458
77981SOL    HW135840   2.527   6.749  14.471
77981SOL    HW235841   2.392   6.769  14.406
77982SOL     OW35842  11.445   2.044   7.070
77982SOL    HW135843  11.426   1.966   7.018
77982SOL    HW235844  11.500   2.013   7.141
77983SOL     OW35845   9.791   5.957   9.367
77983SOL    HW135846   9.864   6.018   9.356
77983SOL    HW235847   9.715   6.013   9.379
77984SOL     OW35848   0.675   4.138   4.288
77984SOL    HW135849   0.651   4.228   4.266
77984SOL    HW235850   0.601   4.085   4.259
77985SOL     OW35851   3.750   3.596  14.304
77985SOL    HW135852   3.669   3.638  14.331
77985SOL    HW235853   3.746   3.595  14.208
77986SOL     OW35854   8.839   7.887   2.633
77986SOL    HW135855   8.846   7.980   2.613
77986SOL    HW235856   8.928   7.853   2.621
77987SOL     OW35857   5.656   0.673   4.648
77987SOL    HW135858   5.568   0.683   4.683
77987SOL    HW235859   5.696   0.760   4.659
77988SOL     OW35860   0.736  13.343  12.679
77988SOL    HW135861   0.705  13.401  12.749
77988SOL    HW235862   0.664  13.339  12.617
77989SOL     OW35863   6.591  10.999   5.559
77989SOL    HW135864   6.620  11.073   5.612
77989SOL    HW235865   6.547  11.038   5.484
77990SOL     OW35866   7.312   9.781   6.767
77990SOL    HW135867   7.323   9.686   6.763
77990SOL    HW235868   7.362   9.815   6.693
77991SOL     OW35869   6.808   0.484   0.217
77991SOL    HW135870   6.803   0.522   0.304
77991SOL    HW235871   6.809   0.390   0.231
77992SOL     OW35872   9.303   6.236   5.828
77992SOL    HW135873   9.262   6.167   5.776
77992SOL    HW235874   9.396   6.231   5.805
77993SOL     OW35875  11.784   0.810  14.814
77993SOL    HW135876  11.878   0.807  14.794
77993SOL    HW235877  11.749   0.877  14.755
77994SOL     OW35878   6.703   0.009   2.339
77994SOL    HW135879   6.742   0.092   2.369
77994SOL    HW235880   6.649  14.861   2.412
77995SOL     OW35881   1.432   4.870   5.115
77995SOL    HW135882   1.341   4.898   5.123
77995SOL    HW235883   1.462   4.857   5.205
77996SOL     OW35884   4.134   2.316   4.700
77996SOL    HW135885   4.087   2.397   4.720
77996SOL    HW235886   4.100   2.253   4.764
77997SOL     OW35887   0.747  13.088  10.829
77997SOL    HW135888   0.805  13.023  10.869
77997SOL    HW235889   0.806  13.155  10.793
77998SOL     OW35890  13.812   0.046   3.891
77998SOL    HW135891  13.863  14.867   3.947
77998SOL    HW235892  13.767   0.104   3.953
77999SOL     OW35893   4.763   1.602  14.011
77999SOL    HW135894   4.705   1.625  13.938
77999SOL    HW235895   4.784   1.685  14.052
78000SOL     OW35896  14.576  12.257  13.564
78000SOL    HW135897  14.630  12.291  13.493
78000SOL    HW235898  14.589  12.320  13.635
78001SOL     OW35899   4.836   0.213   3.255
78001SOL    HW135900   4.816   0.266   3.332
78001SOL    HW235901   4.790   0.130   3.270
78002SOL     OW35902   3.176   7.420   2.897
78002SOL    HW135903   3.175   7.462   2.983
78002SOL    HW235904   3.162   7.327   2.915
78003SOL     OW35905  11.075   9.127  14.361
78003SOL    HW135906  11.154   9.163  14.403
78003SOL    HW235907  11.074   9.035  14.386
78004SOL     OW35908  10.555  13.639   9.965
78004SOL    HW135909  10.607  13.682  10.033
78004SOL    HW235910  10.534  13.553  10.001
78005SOL     OW35911   7.153   1.117   5.058
78005SOL    HW135912   7.230   1.061   5.047
78005SOL    HW235913   7.119   1.094   5.144
78006SOL     OW35914   8.450  11.488   6.428
78006SOL    HW135915   8.442  11.457   6.518
78006SOL    HW235916   8.359  11.491   6.396
78007SOL     OW35917  10.511   2.120  11.302
78007SOL    HW135918  10.494   2.191  11.364
78007SOL    HW235919  10.446   2.053  11.326
78008SOL     OW35920   5.180  11.295   9.730
78008SOL    HW135921   5.199  11.209   9.691
78008SOL    HW235922   5.242  11.303   9.802
78009SOL     OW35923   1.781   9.198   0.498
78009SOL    HW135924   1.836   9.236   0.567
78009SOL    HW235925   1.753   9.274   0.447
78010SOL     OW35926  13.765  12.057   3.338
78010SOL    HW135927  13.820  11.992   3.381
78010SOL    HW235928  13.710  12.005   3.279
78011SOL     OW35929  12.066   4.530   2.608
78011SOL    HW135930  12.110   4.604   2.565
78011SOL    HW235931  12.118   4.453   2.583
78012SOL     OW35932   4.033  13.522   5.975
78012SOL    HW135933   4.114  13.554   5.938
78012SOL    HW235934   3.965  13.549   5.913
78013SOL     OW35935   6.037  11.000  13.022
78013SOL    HW135936   6.121  10.974  13.060
78013SOL    HW235937   6.017  11.084  13.064
78014SOL     OW35938  13.572   0.919   2.366
78014SOL    HW135939  13.570   0.919   2.270
78014SOL    HW235940  13.481   0.913   2.393
78015SOL     OW35941   1.115   5.926  12.333
78015SOL    HW135942   1.028   5.914  12.369
78015SOL    HW235943   1.134   5.843  12.287
78016SOL     OW35944  13.358   3.674  12.664
78016SOL    HW135945  13.422   3.621  12.712
78016SOL    HW235946  13.333   3.620  12.590
78017SOL     OW35947  10.378   8.342   0.126
78017SOL    HW135948  10.450   8.402   0.143
78017SOL    HW235949  10.361   8.300   0.210
78018SOL     OW35950   5.243   2.676   3.778
78018SOL    HW135951   5.337   2.665   3.789
78018SOL    HW235952   5.218   2.739   3.845
78019SOL     OW35953   1.130   7.747   7.576
78019SOL    HW135954   1.091   7.696   7.646
78019SOL    HW235955   1.090   7.712   7.496
78020SOL     OW35956   2.829   8.727   5.695
78020SOL    HW135957   2.921   8.751   5.688
78020SOL    HW235958   2.782   8.810   5.694
78021SOL     OW35959   4.147   9.688   4.928
78021SOL    HW135960   4.052   9.685   4.932
78021SOL    HW235961   4.174   9.717   5.015
78022SOL     OW35962  10.737   7.894   4.881
78022SOL    HW135963  10.671   7.828   4.864
78022SOL    HW235964  10.809   7.847   4.922
78023SOL     OW35965   9.227   9.442  10.435
78023SOL    HW135966   9.257   9.489  10.513
78023SOL    HW235967   9.147   9.398  10.463
78024SOL     OW35968  13.142  14.413   0.105
78024SOL    HW135969  13.125  14.420   0.011
78024SOL    HW235970  13.114  14.324   0.127
78025SOL     OW35971   4.174   4.469   8.027
78025SOL    HW135972   4.140   4.387   7.991
78025SOL    HW235973   4.268   4.465   8.011
78026SOL     OW35974   4.286   1.988   4.185
78026SOL    HW135975   4.382   1.988   4.192
78026SOL    HW235976   4.269   1.998   4.091
78027SOL     OW35977   7.574  10.563   1.477
78027SOL    HW135978   7.492  10.611   1.472
78027SOL    HW235979   7.581  10.519   1.392
78028SOL     OW35980   5.123   3.889   1.591
78028SOL    HW135981   5.205   3.864   1.634
78028SOL    HW235982   5.091   3.809   1.551
78029SOL     OW35983  11.192   0.987   1.729
78029SOL    HW135984  11.245   1.036   1.666
78029SOL    HW235985  11.221   0.896   1.719
78030SOL     OW35986   4.917  14.095  12.728
78030SOL    HW135987   4.977  14.032  12.769
78030SOL    HW235988   4.945  14.099  12.637
78031SOL     OW35989   4.794  13.038   2.208
78031SOL    HW135990   4.827  13.075   2.126
78031SOL    HW235991   4.736  12.968   2.180
78032SOL     OW35992   9.450   2.642   3.662
78032SOL    HW135993   9.478   2.715   3.717
78032SOL    HW235994   9.529   2.588   3.652
78033SOL     OW35995  13.762  11.945   8.750
78033SOL    HW135996  13.850  11.933   8.786
78033SOL    HW235997  13.743  11.862   8.706
78034SOL     OW35998   0.967   4.223   5.779
78034SOL    HW135999   1.050   4.206   5.824
78034SOL    HW236000   0.929   4.136   5.764
78035SOL     OW36001   9.087   5.359  12.695
78035SOL    HW136002   9.133   5.408  12.627
78035SOL    HW236003   9.028   5.423  12.735
78036SOL     OW36004   5.553   4.202   4.036
78036SOL    HW136005   5.527   4.190   4.127
78036SOL    HW236006   5.483   4.255   3.998
78037SOL     OW36007   6.612  12.694   0.236
78037SOL    HW136008   6.587  12.786   0.223
78037SOL    HW236009   6.560  12.646   0.172
78038SOL     OW36010  10.692   0.008   1.504
78038SOL    HW136011  10.760   0.075   1.510
78038SOL    HW236012  10.735  14.807   1.532
78039SOL     OW36013  10.179   8.515   0.397
78039SOL    HW136014  10.245   8.452   0.425
78039SOL    HW236015  10.103   8.497   0.454
78040SOL     OW36016   4.127  13.783   2.181
78040SOL    HW136017   4.168  13.755   2.099
78040SOL    HW236018   4.161  13.871   2.195
78041SOL     OW36019   5.476  12.861  14.186
78041SOL    HW136020   5.548  12.822  14.137
78041SOL    HW236021   5.517  12.899  14.264
78042SOL     OW36022   6.017   4.684  10.562
78042SOL    HW136023   6.015   4.656  10.654
78042SOL    HW236024   6.107   4.670  10.535
78043SOL     OW36025   5.602   6.304   8.252
78043SOL    HW136026   5.530   6.242   8.265
78043SOL    HW236027   5.567   6.369   8.191
78044SOL     OW36028   3.848   2.913  14.306
78044SOL    HW136029   3.853   2.869  14.221
78044SOL    HW236030   3.914   2.983  14.300
78045SOL     OW36031   8.008  12.005   4.970
78045SOL    HW136032   8.007  12.041   5.059
78045SOL    HW236033   8.091  12.035   4.933
78046SOL     OW36034  12.368  10.143   1.846
78046SOL    HW136035  12.301  10.183   1.901
78046SOL    HW236036  12.387  10.209   1.779
78047SOL     OW36037  11.546   6.329   9.103
78047SOL    HW136038  11.460   6.369   9.095
78047SOL    HW236039  11.607   6.402   9.092
78048SOL     OW36040   6.531   5.983   2.521
78048SOL    HW136041   6.556   5.953   2.608
78048SOL    HW236042   6.481   5.911   2.484
78049SOL     OW36043  11.631  10.350   6.895
78049SOL    HW136044  11.603  10.315   6.979
78049SOL    HW236045  11.561  10.411   6.869
78050SOL     OW36046  11.374   1.504   4.291
78050SOL    HW136047  11.453   1.556   4.285
78050SOL    HW236048  11.404   1.417   4.316
78051SOL     OW36049   6.252   9.679  13.500
78051SOL    HW136050   6.333   9.729  13.504
78051SOL    HW236051   6.253   9.625  13.579
78052SOL     OW36052  13.853   7.381   2.353
78052SOL    HW136053  13.904   7.325   2.412
78052SOL    HW236054  13.917   7.445   2.320
78053SOL     OW36055   2.120  14.537  11.525
78053SOL    HW136056   2.197  14.572  11.571
78053SOL    HW236057   2.067  14.615  11.506
78054SOL     OW36058  13.983   9.633   1.442
78054SOL    HW136059  13.919   9.575   1.400
78054SOL    HW236060  14.028   9.577   1.506
78055SOL     OW36061   6.314   5.480  11.512
78055SOL    HW136062   6.401   5.455  11.543
78055SOL    HW236063   6.254   5.436  11.572
78056SOL     OW36064   1.087  10.736   3.012
78056SOL    HW136065   1.162  10.697   2.967
78056SOL    HW236066   1.073  10.680   3.088
78057SOL     OW36067   3.421   8.294  13.706
78057SOL    HW136068   3.363   8.318  13.633
78057SOL    HW236069   3.489   8.241  13.666
78058SOL     OW36070   6.693  12.527   4.174
78058SOL    HW136071   6.781  12.564   4.162
78058SOL    HW236072   6.700  12.475   4.254
78059SOL     OW36073  14.027   4.182  11.730
78059SOL    HW136074  14.120   4.199  11.719
78059SOL    HW236075  14.018   4.153  11.821
78060SOL     OW36076   4.281   0.217   0.773
78060SOL    HW136077   4.225   0.159   0.824
78060SOL    HW236078   4.223   0.259   0.710
78061SOL     OW36079   1.467  13.660   5.484
78061SOL    HW136080   1.455  13.740   5.433
78061SOL    HW236081   1.422  13.677   5.567
78062SOL     OW36082  11.487  12.309  11.883
78062SOL    HW136083  11.448  12.381  11.834
78062SOL    HW236084  11.415  12.271  11.933
78063SOL     OW36085   7.473  14.122  13.719
78063SOL    HW136086   7.492  14.028  13.725
78063SOL    HW236087   7.559  14.163  13.711
78064SOL     OW36088   1.545   1.651   9.732
78064SOL    HW136089   1.482   1.588   9.698
78064SOL    HW236090   1.598   1.675   9.655
78065SOL     OW36091   5.669   4.112   1.544
78065SOL    HW136092   5.618   4.047   1.592
78065SOL    HW236093   5.698   4.174   1.611
78066SOL     OW36094   9.215   2.972   3.350
78066SOL    HW136095   9.239   2.948   3.440
78066SOL    HW236096   9.157   3.047   3.360
78067SOL     OW36097   0.346   0.979  12.602
78067SOL    HW136098   0.267   0.927  12.616
78067SOL    HW236099   0.417   0.925  12.637
78068SOL     OW36100   3.441  14.645   9.432
78068SOL    HW136101   3.403  14.646   9.344
78068SOL    HW236102   3.524  14.692   9.423
78069SOL     OW36103  10.034  12.022  11.354
78069SOL    HW136104   9.940  12.039  11.349
78069SOL    HW236105  10.074  12.102  11.320
78070SOL     OW36106  12.133   5.407  13.305
78070SOL    HW136107  12.131   5.352  13.384
78070SOL    HW236108  12.120   5.496  13.338
78071SOL     OW36109   2.691   2.619  14.385
78071SOL    HW136110   2.738   2.600  14.467
78071SOL    HW236111   2.630   2.547  14.374
78072SOL     OW36112   2.491   0.467   6.975
78072SOL    HW136113   2.476   0.550   7.020
78072SOL    HW236114   2.403   0.433   6.958
78073SOL     OW36115   8.476   7.256   4.842
78073SOL    HW136116   8.475   7.298   4.928
78073SOL    HW236117   8.469   7.329   4.780
78074SOL     OW36118   6.885  13.716   1.228
78074SOL    HW136119   6.896  13.622   1.210
78074SOL    HW236120   6.974  13.752   1.219
78075SOL     OW36121   6.897  14.874   5.070
78075SOL    HW136122   6.950   0.071   5.053
78075SOL    HW236123   6.942  14.804   5.023
78076SOL     OW36124   0.245   2.750  12.165
78076SOL    HW136125   0.206   2.819  12.111
78076SOL    HW236126   0.187   2.675  12.152
78077SOL     OW36127   7.369   0.972   2.276
78077SOL    HW136128   7.313   0.931   2.342
78077SOL    HW236129   7.444   1.005   2.325
78078SOL     OW36130   9.610   1.532   5.418
78078SOL    HW136131   9.695   1.505   5.453
78078SOL    HW236132   9.624   1.622   5.388
78079SOL     OW36133   0.317   4.654  10.808
78079SOL    HW136134   0.256   4.657  10.881
78079SOL    HW236135   0.341   4.746  10.793
78080SOL     OW36136  13.959   8.017   7.319
78080SOL    HW136137  13.928   7.960   7.249
78080SOL    HW236138  14.052   7.997   7.327
78081SOL     OW36139   1.104  14.271  10.103
78081SOL    HW136140   1.072  14.191  10.060
78081SOL    HW236141   1.111  14.248  10.195
78082SOL     OW36142   0.787   4.010   3.294
78082SOL    HW136143   0.724   4.056   3.238
78082SOL    HW236144   0.867   4.006   3.241
78083SOL     OW36145   0.548  12.880  10.839
78083SOL    HW136146   0.577  12.790  10.826
78083SOL    HW236147   0.626  12.926  10.870
78084SOL     OW36148   4.971   2.140   3.467
78084SOL    HW136149   4.897   2.199   3.479
78084SOL    HW236150   5.017   2.142   3.550
78085SOL     OW36151   8.383  12.843   2.313
78085SOL    HW136152   8.314  12.835   2.380
78085SOL    HW236153   8.354  12.915   2.257
78086SOL     OW36154  11.690   0.073   4.177
78086SOL    HW136155  11.672   0.057   4.085
78086SOL    HW236156  11.646   0.155   4.197
78087SOL     OW36157   2.248   0.406   3.430
78087SOL    HW136158   2.178   0.343   3.440
78087SOL    HW236159   2.328   0.358   3.453
78088SOL     OW36160   3.454   5.285   8.204
78088SOL    HW136161   3.464   5.360   8.145
78088SOL    HW236162   3.363   5.258   8.191
78089SOL     OW36163   0.711   0.575   8.218
78089SOL    HW136164   0.802   0.577   8.188
78089SOL    HW236165   0.660   0.595   8.140
78090SOL     OW36166   2.344   2.715   5.414
78090SOL    HW136167   2.312   2.647   5.355
78090SOL    HW236168   2.280   2.785   5.406
78091SOL     OW36169   2.189   7.333  14.544
78091SOL    HW136170   2.095   7.324  14.524
78091SOL    HW236171   2.200   7.427  14.559
78092SOL     OW36172  13.091   6.652  13.994
78092SOL    HW136173  13.071   6.603  14.074
78092SOL    HW236174  13.164   6.604  13.954
78093SOL     OW36175   2.877   2.770  14.774
78093SOL    HW136176   2.817   2.742  14.704
78093SOL    HW236177   2.939   2.697  14.782
78094SOL     OW36178   4.553   6.781   2.118
78094SOL    HW136179   4.535   6.868   2.081
78094SOL    HW236180   4.635   6.754   2.077
78095SOL     OW36181   6.536  10.655   1.759
78095SOL    HW136182   6.535  10.583   1.822
78095SOL    HW236183   6.531  10.734   1.814
78096SOL     OW36184  11.408  11.311  11.817
78096SOL    HW136185  11.420  11.384  11.878
78096SOL    HW236186  11.374  11.351  11.737
78097SOL     OW36187   6.784  11.198   5.877
78097SOL    HW136188   6.709  11.204   5.819
78097SOL    HW236189   6.856  11.239   5.828
78098SOL     OW36190  11.338  13.067   6.418
78098SOL    HW136191  11.355  13.161   6.413
78098SOL    HW236192  11.246  13.060   6.445
78099SOL     OW36193   0.277   2.936   0.898
78099SOL    HW136194   0.211   2.998   0.867
78099SOL    HW236195   0.360   2.971   0.864
78100SOL     OW36196  13.025   1.762  10.874
78100SOL    HW136197  13.052   1.846  10.838
78100SOL    HW236198  13.018   1.704  10.798
78101SOL     OW36199   8.339   5.417   8.280
78101SOL    HW136200   8.286   5.345   8.248
78101SOL    HW236201   8.282   5.494   8.275
78102SOL     OW36202  11.405   0.154   2.297
78102SOL    HW136203  11.442   0.242   2.303
78102SOL    HW236204  11.411   0.120   2.386
78103SOL     OW36205  12.497   6.798   0.885
78103SOL    HW136206  12.472   6.725   0.829
78103SOL    HW236207  12.531   6.864   0.824
78104SOL     OW36208   7.695   0.634   3.840
78104SOL    HW136209   7.771   0.675   3.880
78104SOL    HW236210   7.624   0.697   3.854
78105SOL     OW36211   8.005   0.239   0.144
78105SOL    HW136212   8.077   0.295   0.174
78105SOL    HW236213   7.972   0.197   0.223
78106SOL     OW36214  13.528   8.367  14.163
78106SOL    HW136215  13.461   8.436  14.162
78106SOL    HW236216  13.598   8.402  14.217
78107SOL     OW36217   7.230  13.918  12.175
78107SOL    HW136218   7.283  13.839  12.183
78107SOL    HW236219   7.289  13.990  12.200
78108SOL     OW36220   5.756  10.192   9.126
78108SOL    HW136221   5.698  10.174   9.053
78108SOL    HW236222   5.805  10.269   9.100
78109SOL     OW36223   9.719  14.452   4.344
78109SOL    HW136224   9.776  14.516   4.302
78109SOL    HW236225   9.740  14.369   4.300
78110SOL     OW36226   1.388   1.853   7.300
78110SOL    HW136227   1.444   1.793   7.349
78110SOL    HW236228   1.443   1.929   7.281
78111SOL     OW36229  14.016   7.647  11.966
78111SOL    HW136230  14.074   7.575  11.992
78111SOL    HW236231  14.001   7.634  11.873
78112SOL     OW36232  14.349   5.204   2.767
78112SOL    HW136233  14.290   5.129   2.768
78112SOL    HW236234  14.337   5.244   2.681
78113SOL     OW36235   1.445   8.859   1.421
78113SOL    HW136236   1.511   8.927   1.429
78113SOL    HW236237   1.488   8.790   1.369
78114SOL     OW36238   4.292   0.170  14.415
78114SOL    HW136239   4.220   0.233  14.412
78114SOL    HW236240   4.368   0.219  14.384
78115SOL     OW36241   5.092  14.300   5.480
78115SOL    HW136242   5.034  14.294   5.556
78115SOL    HW236243   5.070  14.224   5.427
78116SOL     OW36244   9.970  10.902   0.443
78116SOL    HW136245   9.987  10.955   0.365
78116SOL    HW236246   9.971  10.812   0.411
78117SOL     OW36247  12.319   2.389   3.790
78117SOL    HW136248  12.282   2.445   3.722
78117SOL    HW236249  12.366   2.321   3.742
78118SOL     OW36250  12.451  11.545   6.109
78118SOL    HW136251  12.468  11.556   6.015
78118SOL    HW236252  12.368  11.590   6.124
78119SOL     OW36253  14.781   7.854   3.072
78119SOL    HW136254  14.847   7.785   3.073
78119SOL    HW236255  14.787   7.894   3.159
78120SOL     OW36256  13.892  12.964   2.475
78120SOL    HW136257  13.889  12.934   2.566
78120SOL    HW236258  13.975  13.011   2.468
78121SOL     OW36259   5.324   6.331   2.070
78121SOL    HW136260   5.357   6.289   2.149
78121SOL    HW236261   5.245   6.282   2.047
78122SOL     OW36262   3.051  13.505  11.975
78122SOL    HW136263   3.077  13.478  12.063
78122SOL    HW236264   2.977  13.448  11.953
78123SOL     OW36265   9.352  10.623  10.624
78123SOL    HW136266   9.300  10.628  10.544
78123SOL    HW236267   9.392  10.536  10.621
78124SOL     OW36268  13.052   9.871   9.368
78124SOL    HW136269  13.000   9.951   9.364
78124SOL    HW236270  13.143   9.901   9.364
78125SOL     OW36271  13.296   4.457   9.409
78125SOL    HW136272  13.307   4.421   9.497
78125SOL    HW236273  13.268   4.383   9.356
78126SOL     OW36274   4.438  14.754   8.727
78126SOL    HW136275   4.506  14.805   8.683
78126SOL    HW236276   4.383  14.818   8.771
78127SOL     OW36277  11.163  14.799   2.887
78127SOL    HW136278  11.140  14.706   2.884
78127SOL    HW236279  11.098  14.838   2.945
78128SOL     OW36280  11.714  12.464   0.457
78128SOL    HW136281  11.713  12.560   0.464
78128SOL    HW236282  11.757  12.435   0.537
78129SOL     OW36283   8.851   1.930  11.039
78129SOL    HW136284   8.844   1.921  10.944
78129SOL    HW236285   8.923   1.872  11.063
78130SOL     OW36286   8.229   8.984   9.669
78130SOL    HW136287   8.149   9.023   9.635
78130SOL    HW236288   8.287   9.058   9.685
78131SOL     OW36289  12.589  14.667   8.222
78131SOL    HW136290  12.510  14.708   8.258
78131SOL    HW236291  12.568  14.650   8.131
78132SOL     OW36292   1.060  10.939   5.756
78132SOL    HW136293   1.100  11.018   5.792
78132SOL    HW236294   1.134  10.886   5.726
78133SOL     OW36295   4.578   6.437   9.887
78133SOL    HW136296   4.640   6.508   9.903
78133SOL    HW236297   4.623   6.380   9.825
78134SOL     OW36298   0.852   7.209   5.090
78134SOL    HW136299   0.849   7.256   5.174
78134SOL    HW236300   0.776   7.241   5.042
78135SOL     OW36301   5.899   2.886  12.988
78135SOL    HW136302   5.871   2.952  13.053
78135SOL    HW236303   5.960   2.831  13.037
78136SOL     OW36304   6.119   7.309   1.730
78136SOL    HW136305   6.040   7.359   1.750
78136SOL    HW236306   6.185   7.343   1.791
78137SOL     OW36307  10.561  11.150  13.433
78137SOL    HW136308  10.560  11.156  13.528
78137SOL    HW236309  10.647  11.183  13.408
78138SOL     OW36310   5.193   5.076   3.972
78138SOL    HW136311   5.284   5.098   3.951
78138SOL    HW236312   5.155   5.051   3.888
78139SOL     OW36313  11.450   4.143   5.457
78139SOL    HW136314  11.383   4.111   5.517
78139SOL    HW236315  11.423   4.233   5.437
78140SOL     OW36316   8.171  12.407   0.126
78140SOL    HW136317   8.111  12.441   0.193
78140SOL    HW236318   8.189  12.483   0.070
78141SOL     OW36319  12.401   1.613  13.987
78141SOL    HW136320  12.482   1.616  14.038
78141SOL    HW236321  12.372   1.704  13.982
78142SOL     OW36322   6.605   9.667   5.568
78142SOL    HW136323   6.566   9.735   5.514
78142SOL    HW236324   6.685   9.643   5.522
78143SOL     OW36325  11.029   1.567  10.908
78143SOL    HW136326  11.096   1.574  10.977
78143SOL    HW236327  11.001   1.657  10.892
78144SOL     OW36328   1.687  13.798  13.191
78144SOL    HW136329   1.704  13.705  13.207
78144SOL    HW236330   1.598  13.812  13.223
78145SOL     OW36331   4.629   2.305   6.162
78145SOL    HW136332   4.614   2.392   6.124
78145SOL    HW236333   4.556   2.252   6.130
78146SOL     OW36334   5.817   3.015   6.959
78146SOL    HW136335   5.725   3.006   6.934
78146SOL    HW236336   5.827   3.107   6.982
78147SOL     OW36337  14.188  14.792   7.345
78147SOL    HW136338  14.227  14.877   7.327
78147SOL    HW236339  14.198  14.780   7.440
78148SOL     OW36340   2.949   9.192   1.945
78148SOL    HW136341   2.920   9.259   2.007
78148SOL    HW236342   2.888   9.200   1.871
78149SOL     OW36343  14.236  14.309  11.168
78149SOL    HW136344  14.285  14.390  11.151
78149SOL    HW236345  14.225  14.308  11.263
78150SOL     OW36346  12.833   1.327   1.230
78150SOL    HW136347  12.850   1.256   1.292
78150SOL    HW236348  12.843   1.288   1.144
78151SOL     OW36349   6.153   8.213  13.749
78151SOL    HW136350   6.215   8.146  13.778
78151SOL    HW236351   6.073   8.165  13.729
78152SOL     OW36352  10.101   4.338  11.603
78152SOL    HW136353  10.044   4.386  11.663
78152SOL    HW236354  10.150   4.405  11.556
78153SOL     OW36355   7.643  10.890   9.583
78153SOL    HW136356   7.727  10.935   9.570
78153SOL    HW236357   7.632  10.838   9.503
78154SOL     OW36358   2.433  11.200   9.618
78154SOL    HW136359   2.418  11.206   9.712
78154SOL    HW236360   2.360  11.147   9.585
78155SOL     OW36361   4.405   3.651   6.424
78155SOL    HW136362   4.394   3.595   6.501
78155SOL    HW236363   4.353   3.608   6.356
78156SOL     OW36364   9.834  14.058   1.553
78156SOL    HW136365   9.806  14.070   1.644
78156SOL    HW236366   9.848  14.147   1.520
78157SOL     OW36367   6.230   6.341  10.268
78157SOL    HW136368   6.275   6.269  10.225
78157SOL    HW236369   6.167   6.372  10.202
78158SOL     OW36370   3.275   6.193   2.668
78158SOL    HW136371   3.261   6.181   2.574
78158SOL    HW236372   3.220   6.268   2.691
78159SOL     OW36373   6.723   4.943   7.762
78159SOL    HW136374   6.678   4.878   7.707
78159SOL    HW236375   6.814   4.940   7.733
78160SOL     OW36376  12.144   0.047   6.722
78160SOL    HW136377  12.191  14.867   6.779
78160SOL    HW236378  12.068   0.075   6.773
78161SOL     OW36379   0.498   7.158   6.157
78161SOL    HW136380   0.441   7.119   6.224
78161SOL    HW236381   0.473   7.250   6.155
78162SOL     OW36382   1.412   2.556  11.144
78162SOL    HW136383   1.378   2.603  11.219
78162SOL    HW236384   1.336   2.546  11.086
78163SOL     OW36385   3.247   6.115   3.480
78163SOL    HW136386   3.310   6.100   3.409
78163SOL    HW236387   3.165   6.079   3.447
78164SOL     OW36388   2.098  10.255   5.744
78164SOL    HW136389   2.144  10.336   5.765
78164SOL    HW236390   2.124  10.194   5.813
78165SOL     OW36391   2.189   6.624  14.134
78165SOL    HW136392   2.219   6.534  14.126
78165SOL    HW236393   2.149   6.644  14.049
78166SOL     OW36394   6.150  13.167   5.915
78166SOL    HW136395   6.220  13.139   5.975
78166SOL    HW236396   6.154  13.262   5.916
78167SOL     OW36397   7.944   7.166   1.057
78167SOL    HW136398   7.971   7.119   1.136
78167SOL    HW236399   7.854   7.193   1.074
78168SOL     OW36400   1.938   5.229  12.729
78168SOL    HW136401   1.931   5.153  12.672
78168SOL    HW236402   2.020   5.216  12.777
78169SOL     OW36403   3.290   7.153   3.253
78169SOL    HW136404   3.380   7.184   3.246
78169SOL    HW236405   3.298   7.067   3.295
78170SOL     OW36406   3.454  10.519   9.678
78170SOL    HW136407   3.530  10.469   9.648
78170SOL    HW236408   3.442  10.494   9.769
78171SOL     OW36409   2.681  10.012   7.171
78171SOL    HW136410   2.594  10.026   7.208
78171SOL    HW236411   2.742  10.042   7.239
78172SOL     OW36412   1.331  11.271   4.057
78172SOL    HW136413   1.343  11.365   4.070
78172SOL    HW236414   1.415  11.240   4.025
78173SOL     OW36415   7.182   0.009  13.189
78173SOL    HW136416   7.135   0.071  13.244
78173SOL    HW236417   7.166   0.039  13.099
78174SOL     OW36418   0.209   4.638   0.100
78174SOL    HW136419   0.182   4.564   0.046
78174SOL    HW236420   0.153   4.710   0.072
78175SOL     OW36421  11.156   0.973   2.471
78175SOL    HW136422  11.182   0.905   2.408
78175SOL    HW236423  11.064   0.989   2.453
78176SOL     OW36424   0.389   8.217   3.121
78176SOL    HW136425   0.373   8.249   3.032
78176SOL    HW236426   0.334   8.272   3.176
78177SOL     OW36427  11.032  13.308   2.053
78177SOL    HW136428  11.076  13.223   2.050
78177SOL    HW236429  11.096  13.370   2.017
78178SOL     OW36430  10.177   7.948   7.954
78178SOL    HW136431  10.158   8.021   8.012
78178SOL    HW236432  10.268   7.961   7.927
78179SOL     OW36433   9.052   6.833  12.255
78179SOL    HW136434   9.012   6.879  12.329
78179SOL    HW236435   9.125   6.785  12.294
78180SOL     OW36436  12.062  14.861   5.570
78180SOL    HW136437  12.114  14.815   5.636
78180SOL    HW236438  11.998   0.030   5.621
78181SOL     OW36439  11.006   4.282   9.137
78181SOL    HW136440  10.938   4.324   9.189
78181SOL    HW236441  10.979   4.191   9.130
78182SOL     OW36442   6.018   1.048   0.138
78182SOL    HW136443   6.007   0.968   0.087
78182SOL    HW236444   6.024   1.118   0.073
78183SOL     OW36445   0.338   9.854  12.284
78183SOL    HW136446   0.252   9.836  12.247
78183SOL    HW236447   0.373   9.767  12.305
78184SOL     OW36448   7.556  12.828   9.512
78184SOL    HW136449   7.607  12.892   9.464
78184SOL    HW236450   7.590  12.831   9.602
78185SOL     OW36451   9.424  11.752  10.914
78185SOL    HW136452   9.445  11.813  10.844
78185SOL    HW236453   9.505  11.744  10.964
78186SOL     OW36454   7.781   4.966   5.994
78186SOL    HW136455   7.734   5.048   6.007
78186SOL    HW236456   7.835   4.981   5.916
78187SOL     OW36457   2.605  10.956  14.851
78187SOL    HW136458   2.590  10.862  14.840
78187SOL    HW236459   2.657  10.981  14.775
78188SOL     OW36460   1.509  11.072   6.041
78188SOL    HW136461   1.496  10.977   6.047
78188SOL    HW236462   1.574  11.083   5.972
78189SOL     OW36463  11.809  11.256  10.315
78189SOL    HW136464  11.859  11.199  10.374
78189SOL    HW236465  11.873  11.321  10.286
78190SOL     OW36466  14.816   7.249   0.383
78190SOL    HW136467  14.774   7.273   0.301
78190SOL    HW236468   0.029   7.266   0.369
78191SOL     OW36469   6.789   0.718   5.433
78191SOL    HW136470   6.809   0.810   5.449
78191SOL    HW236471   6.752   0.716   5.345
78192SOL     OW36472   9.802  10.779   8.128
78192SOL    HW136473   9.728  10.825   8.089
78192SOL    HW236474   9.879  10.824   8.093
78193SOL     OW36475   0.184   2.906  13.889
78193SOL    HW136476   0.091   2.925  13.899
78193SOL    HW236477   0.191   2.864  13.803
78194SOL     OW36478  12.446   0.236   7.174
78194SOL    HW136479  12.476   0.220   7.085
78194SOL    HW236480  12.477   0.159   7.223
78195SOL     OW36481  11.550   3.397  10.742
78195SOL    HW136482  11.523   3.484  10.712
78195SOL    HW236483  11.643   3.407  10.762
78196SOL     OW36484   8.814   9.871   5.710
78196SOL    HW136485   8.740   9.932   5.706
78196SOL    HW236486   8.885   9.922   5.749
78197SOL     OW36487   9.233  10.310  14.103
78197SOL    HW136488   9.151  10.341  14.141
78197SOL    HW236489   9.273  10.257  14.171
78198SOL     OW36490   1.092   1.772   5.682
78198SOL    HW136491   1.135   1.855   5.704
78198SOL    HW236492   1.158   1.724   5.632
78199SOL     OW36493   0.827  12.549  14.759
78199SOL    HW136494   0.843  12.632  14.805
78199SOL    HW236495   0.814  12.485  14.829
78200SOL     OW36496   3.129   7.035   9.049
78200SOL    HW136497   3.048   6.992   9.074
78200SOL    HW236498   3.198   6.975   9.077
78201SOL     OW36499  11.606   6.962   9.146
78201SOL    HW136500  11.642   7.049   9.162
78201SOL    HW236501  11.586   6.961   9.052
78202SOL     OW36502   3.999   7.239   5.786
78202SOL    HW136503   3.949   7.164   5.815
78202SOL    HW236504   3.949   7.275   5.713
78203SOL     OW36505   1.661  10.335   2.135
78203SOL    HW136506   1.621  10.274   2.197
78203SOL    HW236507   1.746  10.356   2.174
78204SOL     OW36508   2.975   9.862   7.287
78204SOL    HW136509   2.986   9.851   7.192
78204SOL    HW236510   3.056   9.905   7.315
78205SOL     OW36511   2.654  13.795   1.252
78205SOL    HW136512   2.629  13.867   1.310
78205SOL    HW236513   2.573  13.773   1.206
78206SOL     OW36514   7.370  12.413   1.186
78206SOL    HW136515   7.290  12.459   1.161
78206SOL    HW236516   7.339  12.329   1.221
78207SOL     OW36517  12.881   7.097   4.055
78207SOL    HW136518  12.872   7.110   4.149
78207SOL    HW236519  12.840   7.012   4.038
78208SOL     OW36520  10.117  10.075   5.520
78208SOL    HW136521  10.151  10.054   5.433
78208SOL    HW236522  10.022  10.083   5.507
78209SOL     OW36523   8.910  10.754   2.418
78209SOL    HW136524   8.898  10.755   2.323
78209SOL    HW236525   8.997  10.719   2.431
78210SOL     OW36526   3.684  14.265  11.216
78210SOL    HW136527   3.718  14.213  11.288
78210SOL    HW236528   3.686  14.355  11.248
78211SOL     OW36529   1.691   0.181   0.120
78211SOL    HW136530   1.778   0.162   0.086
78211SOL    HW236531   1.638   0.105   0.096
78212SOL     OW36532   2.472  13.136  10.125
78212SOL    HW136533   2.538  13.067  10.127
78212SOL    HW236534   2.467  13.167  10.216
78213SOL     OW36535   4.391   1.212  14.090
78213SOL    HW136536   4.327   1.273  14.054
78213SOL    HW236537   4.475   1.241  14.056
78214SOL     OW36538  13.899   9.700  10.804
78214SOL    HW136539  13.868   9.629  10.860
78214SOL    HW236540  13.846   9.692  10.724
78215SOL     OW36541  13.165   4.319  10.761
78215SOL    HW136542  13.206   4.386  10.816
78215SOL    HW236543  13.236   4.287  10.705
78216SOL     OW36544   5.376   3.723   9.944
78216SOL    HW136545   5.372   3.661   9.871
78216SOL    HW236546   5.458   3.771   9.930
78217SOL     OW36547   8.564   6.483   1.873
78217SOL    HW136548   8.531   6.460   1.786
78217SOL    HW236549   8.622   6.558   1.857
78218SOL     OW36550   9.217   8.179   8.209
78218SOL    HW136551   9.163   8.129   8.270
78218SOL    HW236552   9.303   8.136   8.213
78219SOL     OW36553   9.149   8.468   0.758
78219SOL    HW136554   9.161   8.546   0.812
78219SOL    HW236555   9.186   8.397   0.810
78220SOL     OW36556   2.105  12.814   2.621
78220SOL    HW136557   2.033  12.756   2.596
78220SOL    HW236558   2.113  12.876   2.548
78221SOL     OW36559   7.286  12.274   0.917
78221SOL    HW136560   7.193  12.266   0.899
78221SOL    HW236561   7.299  12.365   0.942
78222SOL     OW36562   5.752  11.881   5.664
78222SOL    HW136563   5.743  11.878   5.569
78222SOL    HW236564   5.670  11.919   5.695
78223SOL     OW36565  14.238  14.261   8.611
78223SOL    HW136566  14.177  14.187   8.614
78223SOL    HW236567  14.324  14.220   8.606
78224SOL     OW36568   5.181  10.386   5.539
78224SOL    HW136569   5.238  10.385   5.461
78224SOL    HW236570   5.232  10.342   5.606
78225SOL     OW36571   7.251   2.623   2.862
78225SOL    HW136572   7.271   2.537   2.824
78225SOL    HW236573   7.177   2.655   2.811
78226SOL     OW36574   7.436   5.275   7.680
78226SOL    HW136575   7.345   5.290   7.705
78226SOL    HW236576   7.457   5.347   7.621
78227SOL     OW36577   0.869   0.598  12.610
78227SOL    HW136578   0.783   0.557  12.623
78227SOL    HW236579   0.866   0.677  12.663
78228SOL     OW36580   7.993   8.471   1.019
78228SOL    HW136581   8.070   8.479   0.962
78228SOL    HW236582   7.926   8.525   0.978
78229SOL     OW36583   7.167  10.087  10.912
78229SOL    HW136584   7.132  10.116  10.997
78229SOL    HW236585   7.254  10.053  10.932
78230SOL     OW36586   5.586  12.328   5.736
78230SOL    HW136587   5.545  12.413   5.754
78230SOL    HW236588   5.680  12.345   5.740
78231SOL     OW36589   7.449   9.139   3.132
78231SOL    HW136590   7.355   9.125   3.136
78231SOL    HW236591   7.465   9.167   3.041
78232SOL     OW36592   3.724   2.975   8.063
78232SOL    HW136593   3.817   2.953   8.072
78232SOL    HW236594   3.698   2.936   7.980
78233SOL     OW36595   7.563  12.661   4.106
78233SOL    HW136596   7.556  12.755   4.118
78233SOL    HW236597   7.506  12.641   4.031
78234SOL     OW36598   3.760  12.264  13.306
78234SOL    HW136599   3.785  12.301  13.391
78234SOL    HW236600   3.770  12.170  13.317
78235SOL     OW36601   4.663   6.646   1.607
78235SOL    HW136602   4.583   6.594   1.618
78235SOL    HW236603   4.734   6.584   1.623
78236SOL     OW36604   8.487   3.042   3.427
78236SOL    HW136605   8.491   3.123   3.477
78236SOL    HW236606   8.396   3.038   3.395
78237SOL     OW36607   3.340  11.832   5.442
78237SOL    HW136608   3.271  11.835   5.375
78237SOL    HW236609   3.378  11.745   5.433
78238SOL     OW36610   4.814  13.021   0.216
78238SOL    HW136611   4.720  13.010   0.227
78238SOL    HW236612   4.833  12.983   0.130
78239SOL     OW36613   1.581  13.089   2.103
78239SOL    HW136614   1.589  13.156   2.171
78239SOL    HW236615   1.568  13.138   2.022
78240SOL     OW36616  14.859  11.600  14.701
78240SOL    HW136617  14.855  11.690  14.670
78240SOL    HW236618   0.068  11.572  14.679
78241SOL     OW36619   3.064  10.368   6.064
78241SOL    HW136620   2.976  10.335   6.081
78241SOL    HW236621   3.089  10.413   6.145
78242SOL     OW36622  12.147  12.501   3.819
78242SOL    HW136623  12.087  12.436   3.854
78242SOL    HW236624  12.189  12.539   3.896
78243SOL     OW36625   5.922  12.566   1.070
78243SOL    HW136626   5.901  12.615   1.149
78243SOL    HW236627   5.965  12.629   1.013
78244SOL     OW36628   6.805   6.769  11.542
78244SOL    HW136629   6.823   6.758  11.636
78244SOL    HW236630   6.725   6.822  11.540
78245SOL     OW36631   2.072   1.605   5.839
78245SOL    HW136632   2.089   1.689   5.797
78245SOL    HW236633   2.141   1.597   5.905
78246SOL     OW36634   2.611   4.795   9.810
78246SOL    HW136635   2.525   4.757   9.826
78246SOL    HW236636   2.640   4.824   9.897
78247SOL     OW36637  13.744  14.676  13.285
78247SOL    HW136638  13.777  14.635  13.205
78247SOL    HW236639  13.822  14.707  13.330
78248SOL     OW36640  10.716  11.273   1.629
78248SOL    HW136641  10.662  11.208   1.674
78248SOL    HW236642  10.696  11.356   1.673
78249SOL     OW36643  11.752   6.426   5.022
78249SOL    HW136644  11.694   6.438   5.097
78249SOL    HW236645  11.694   6.400   4.950
78250SOL     OW36646   6.150   0.790   8.730
78250SOL    HW136647   6.146   0.695   8.718
78250SOL    HW236648   6.168   0.824   8.642
78251SOL     OW36649  11.487   9.248  10.261
78251SOL    HW136650  11.442   9.212  10.185
78251SOL    HW236651  11.527   9.328  10.229
78252SOL     OW36652   2.309  14.122   2.807
78252SOL    HW136653   2.305  14.195   2.869
78252SOL    HW236654   2.401  14.100   2.802
78253SOL     OW36655  13.406  12.626   7.902
78253SOL    HW136656  13.395  12.718   7.876
78253SOL    HW236657  13.320  12.587   7.887
78254SOL     OW36658  14.512   1.004  14.111
78254SOL    HW136659  14.479   1.068  14.047
78254SOL    HW236660  14.490   0.919  14.073
78255SOL     OW36661   0.810   8.093  12.029
78255SOL    HW136662   0.720   8.126  12.021
78255SOL    HW236663   0.846   8.101  11.941
78256SOL     OW36664   8.385   0.192  14.780
78256SOL    HW136665   8.343   0.121  14.828
78256SOL    HW236666   8.459   0.150  14.735
78257SOL     OW36667   9.607  12.985  11.520
78257SOL    HW136668   9.560  13.067  11.509
78257SOL    HW236669   9.697  13.005  11.492
78258SOL     OW36670   0.700  10.686   1.026
78258SOL    HW136671   0.758  10.725   1.092
78258SOL    HW236672   0.653  10.761   0.988
78259SOL     OW36673   1.758   1.729   1.115
78259SOL    HW136674   1.665   1.718   1.097
78259SOL    HW236675   1.772   1.824   1.109
78260SOL     OW36676   9.549  13.050  12.049
78260SOL    HW136677   9.591  12.968  12.023
78260SOL    HW236678   9.596  13.118  12.000
78261SOL     OW36679   4.576   9.726   2.164
78261SOL    HW136680   4.572   9.815   2.197
78261SOL    HW236681   4.605   9.735   2.073
78262SOL     OW36682   4.532   7.062   3.037
78262SOL    HW136683   4.470   7.105   3.095
78262SOL    HW236684   4.539   7.120   2.961
78263SOL     OW36685  10.120   3.199   1.105
78263SOL    HW136686  10.214   3.219   1.107
78263SOL    HW236687  10.085   3.243   1.182
78264SOL     OW36688   3.372   2.578  10.310
78264SOL    HW136689   3.315   2.652  10.288
78264SOL    HW236690   3.459   2.607  10.283
78265SOL     OW36691   7.270   5.453  13.782
78265SOL    HW136692   7.191   5.399  13.785
78265SOL    HW236693   7.314   5.435  13.866
78266SOL     OW36694  12.017   2.412  12.261
78266SOL    HW136695  12.074   2.348  12.302
78266SOL    HW236696  11.934   2.367  12.249
78267SOL     OW36697   5.812  14.551   9.099
78267SOL    HW136698   5.852  14.464   9.097
78267SOL    HW236699   5.723  14.537   9.133
78268SOL     OW36700   2.398   1.030  12.777
78268SOL    HW136701   2.397   0.947  12.825
78268SOL    HW236702   2.488   1.061  12.785
78269SOL     OW36703  11.007   6.808   8.418
78269SOL    HW136704  11.070   6.810   8.490
78269SOL    HW236705  10.932   6.858   8.451
78270SOL     OW36706   9.490   6.527   0.248
78270SOL    HW136707   9.517   6.618   0.236
78270SOL    HW236708   9.434   6.529   0.326
78271SOL     OW36709  13.469  11.688  13.351
78271SOL    HW136710  13.375  11.673  13.353
78271SOL    HW236711  13.485  11.750  13.423
78272SOL     OW36712   9.218   8.484  11.154
78272SOL    HW136713   9.236   8.541  11.229
78272SOL    HW236714   9.256   8.530  11.079
78273SOL     OW36715   9.170   3.035  11.348
78273SOL    HW136716   9.253   3.082  11.347
78273SOL    HW236717   9.174   2.981  11.427
78274SOL     OW36718   0.145   7.446   0.089
78274SOL    HW136719   0.058   7.463   0.053
78274SOL    HW236720   0.195   7.410   0.016
78275SOL     OW36721   8.526  12.001   2.914
78275SOL    HW136722   8.479  12.038   2.989
78275SOL    HW236723   8.616  12.032   2.925
78276SOL     OW36724  11.810  10.979   7.417
78276SOL    HW136725  11.755  11.007   7.345
78276SOL    HW236726  11.775  10.893   7.442
78277SOL     OW36727   5.289  13.037  12.037
78277SOL    HW136728   5.233  12.990  11.975
78277SOL    HW236729   5.339  13.099  11.983
78278SOL     OW36730  11.118  13.266  10.569
78278SOL    HW136731  11.045  13.217  10.531
78278SOL    HW236732  11.117  13.241  10.662
78279SOL     OW36733  12.871  14.638   8.253
78279SOL    HW136734  12.779  14.633   8.226
78279SOL    HW236735  12.915  14.571   8.201
78280SOL     OW36736  12.849  14.152   6.517
78280SOL    HW136737  12.821  14.130   6.428
78280SOL    HW236738  12.893  14.236   6.509
78281SOL     OW36739  13.829   9.433   1.348
78281SOL    HW136740  13.770   9.454   1.421
78281SOL    HW236741  13.772   9.398   1.280
78282SOL     OW36742   1.532   6.268   9.366
78282SOL    HW136743   1.466   6.262   9.435
78282SOL    HW236744   1.481   6.265   9.285
78283SOL     OW36745   3.739   7.063  10.121
78283SOL    HW136746   3.690   7.055  10.039
78283SOL    HW236747   3.693   7.131  10.169
78284SOL     OW36748   4.898  14.195   7.503
78284SOL    HW136749   4.909  14.214   7.596
78284SOL    HW236750   4.980  14.223   7.463
78285SOL     OW36751   5.102  11.371   5.456
78285SOL    HW136752   5.106  11.318   5.536
78285SOL    HW236753   5.117  11.461   5.486
78286SOL     OW36754  12.252   8.641  14.093
78286SOL    HW136755  12.181   8.595  14.138
78286SOL    HW236756  12.301   8.572  14.048
78287SOL     OW36757   2.138   3.566   3.207
78287SOL    HW136758   2.136   3.472   3.187
78287SOL    HW236759   2.052   3.584   3.245
78288SOL     OW36760   6.998   8.326   6.675
78288SOL    HW136761   6.927   8.362   6.623
78288SOL    HW236762   7.057   8.400   6.689
78289SOL     OW36763   9.909   0.421  14.666
78289SOL    HW136764   9.956   0.407  14.584
78289SOL    HW236765   9.817   0.428  14.641
78290SOL     OW36766   5.176  10.960  13.630
78290SOL    HW136767   5.232  10.955  13.553
78290SOL    HW236768   5.087  10.968  13.596
78291SOL     OW36769   3.425   7.974  12.557
78291SOL    HW136770   3.502   7.921  12.577
78291SOL    HW236771   3.352   7.913  12.556
78292SOL     OW36772  12.876   6.475   1.011
78292SOL    HW136773  12.910   6.553   1.055
78292SOL    HW236774  12.782   6.491   1.003
78293SOL     OW36775   8.648   2.133  12.087
78293SOL    HW136776   8.618   2.222  12.101
78293SOL    HW236777   8.683   2.105  12.171
78294SOL     OW36778   5.919   8.560   2.968
78294SOL    HW136779   5.975   8.576   3.045
78294SOL    HW236780   5.913   8.646   2.926
78295SOL     OW36781   5.741  11.619   4.877
78295SOL    HW136782   5.706  11.706   4.859
78295SOL    HW236783   5.731  11.571   4.795
78296SOL     OW36784   0.614  13.091   1.605
78296SOL    HW136785   0.612  13.001   1.639
78296SOL    HW236786   0.534  13.131   1.639
78297SOL     OW36787   4.815   3.681   1.144
78297SOL    HW136788   4.847   3.591   1.148
78297SOL    HW236789   4.864   3.727   1.212
78298SOL     OW36790  13.140  13.832  13.928
78298SOL    HW136791  13.114  13.744  13.902
78298SOL    HW236792  13.204  13.819  13.997
78299SOL     OW36793   8.670  11.208  14.692
78299SOL    HW136794   8.716  11.149  14.751
78299SOL    HW236795   8.600  11.154  14.653
78300SOL     OW36796   5.641   1.199   3.705
78300SOL    HW136797   5.699   1.268   3.670
78300SOL    HW236798   5.569   1.248   3.745
78301SOL     OW36799   0.822   3.836   2.697
78301SOL    HW136800   0.793   3.927   2.682
78301SOL    HW236801   0.912   3.834   2.664
78302SOL     OW36802  12.221   6.136  13.890
78302SOL    HW136803  12.299   6.121  13.943
78302SOL    HW236804  12.175   6.051  13.891
78303SOL     OW36805   0.017  12.320   3.215
78303SOL    HW136806   0.056  12.324   3.302
78303SOL    HW236807  14.873  12.411   3.196
78304SOL     OW36808   9.265   7.691  12.752
78304SOL    HW136809   9.246   7.598  12.740
78304SOL    HW236810   9.299   7.698  12.841
78305SOL     OW36811  12.548   1.331  12.551
78305SOL    HW136812  12.608   1.307  12.622
78305SOL    HW236813  12.591   1.404  12.507
78306SOL     OW36814   1.583   0.059   5.056
78306SOL    HW136815   1.646   0.104   5.112
78306SOL    HW236816   1.575  14.851   5.093
78307SOL     OW36817   4.888  14.813   6.425
78307SOL    HW136818   4.820  14.783   6.485
78307SOL    HW236819   4.910   0.021   6.455
78308SOL     OW36820   6.345   9.104   4.943
78308SOL    HW136821   6.253   9.082   4.931
78308SOL    HW236822   6.388   9.069   4.865
78309SOL     OW36823   0.017   7.588  14.200
78309SOL    HW136824   0.075   7.617  14.270
78309SOL    HW236825  14.811   7.582  14.241
78310SOL     OW36826  11.811  14.287  10.970
78310SOL    HW136827  11.824  14.201  11.011
78310SOL    HW236828  11.777  14.342  11.041
78311SOL     OW36829  11.581   9.789   2.436
78311SOL    HW136830  11.677   9.794   2.432
78311SOL    HW236831  11.554   9.765   2.347
78312SOL     OW36832   5.050   8.851   2.318
78312SOL    HW136833   4.990   8.915   2.356
78312SOL    HW236834   4.995   8.775   2.300
78313SOL     OW36835   1.568   2.035   7.009
78313SOL    HW136836   1.661   2.036   6.988
78313SOL    HW236837   1.563   2.078   7.095
78314SOL     OW36838  10.257  14.395   5.685
78314SOL    HW136839  10.319  14.364   5.618
78314SOL    HW236840  10.271  14.490   5.688
78315SOL     OW36841   6.391   1.066   4.395
78315SOL    HW136842   6.461   1.003   4.408
78315SOL    HW236843   6.394   1.087   4.302
78316SOL     OW36844   7.795   1.837  13.492
78316SOL    HW136845   7.808   1.742  13.486
78316SOL    HW236846   7.717   1.855  13.441
78317SOL     OW36847   7.136  11.138   8.037
78317SOL    HW136848   7.118  11.110   8.127
78317SOL    HW236849   7.054  11.176   8.007
78318SOL     OW36850   2.267   1.578  11.825
78318SOL    HW136851   2.287   1.537  11.909
78318SOL    HW236852   2.352   1.592  11.784
78319SOL     OW36853   2.293   0.913  10.578
78319SOL    HW136854   2.200   0.918  10.597
78319SOL    HW236855   2.314   0.820  10.582
78320SOL     OW36856   4.996   7.362   9.041
78320SOL    HW136857   5.090   7.356   9.029
78320SOL    HW236858   4.960   7.359   8.952
78321SOL     OW36859   3.571   4.640   2.331
78321SOL    HW136860   3.483   4.610   2.306
78321SOL    HW236861   3.588   4.595   2.414
78322SOL     OW36862   3.717   1.262  13.898
78322SOL    HW136863   3.679   1.208  13.829
78322SOL    HW236864   3.676   1.229  13.978
78323SOL     OW36865   1.785   3.679   2.795
78323SOL    HW136866   1.870   3.643   2.767
78323SOL    HW236867   1.792   3.685   2.890
78324SOL     OW36868   7.337  11.996   2.318
78324SOL    HW136869   7.314  12.019   2.229
78324SOL    HW236870   7.365  12.078   2.358
78325SOL     OW36871   9.457   9.441   9.254
78325SOL    HW136872   9.521   9.437   9.183
78325SOL    HW236873   9.434   9.350   9.271
78326SOL     OW36874   0.709   3.217   7.426
78326SOL    HW136875   0.670   3.149   7.480
78326SOL    HW236876   0.780   3.252   7.479
78327SOL     OW36877  14.871   8.598   6.359
78327SOL    HW136878   0.025   8.668   6.304
78327SOL    HW236879  14.853   8.640   6.443
78328SOL     OW36880  13.606   7.501  12.858
78328SOL    HW136881  13.615   7.578  12.802
78328SOL    HW236882  13.521   7.511  12.899
78329SOL     OW36883  11.060  14.662   9.276
78329SOL    HW136884  11.074  14.590   9.214
78329SOL    HW236885  11.092  14.740   9.231
78330SOL     OW36886   5.280   1.886   1.100
78330SOL    HW136887   5.187   1.901   1.121
78330SOL    HW236888   5.285   1.793   1.078
78331SOL     OW36889   0.519  10.077  13.797
78331SOL    HW136890   0.540  10.170  13.794
78331SOL    HW236891   0.543  10.050  13.886
78332SOL     OW36892  13.819  12.960   4.265
78332SOL    HW136893  13.897  13.013   4.255
78332SOL    HW236894  13.791  12.974   4.356
78333SOL     OW36895   1.784   4.709   6.472
78333SOL    HW136896   1.871   4.744   6.489
78333SOL    HW236897   1.765   4.655   6.549
78334SOL     OW36898   1.906  13.304  14.848
78334SOL    HW136899   1.944  13.219  14.824
78334SOL    HW236900   1.813  13.296  14.827
78335SOL     OW36901   8.604  13.564   4.273
78335SOL    HW136902   8.519  13.562   4.318
78335SOL    HW236903   8.663  13.606   4.334
78336SOL     OW36904  10.650  12.875   1.846
78336SOL    HW136905  10.678  12.916   1.928
78336SOL    HW236906  10.676  12.783   1.854
78337SOL     OW36907   3.087   3.202   3.692
78337SOL    HW136908   3.168   3.164   3.659
78337SOL    HW236909   3.112   3.289   3.724
78338SOL     OW36910   8.191   2.484  11.526
78338SOL    HW136911   8.163   2.575  11.514
78338SOL    HW236912   8.286   2.490  11.540
78339SOL     OW36913   2.953   7.640   7.016
78339SOL    HW136914   2.972   7.731   6.991
78339SOL    HW236915   2.892   7.648   7.090
78340SOL     OW36916   6.374  12.160  13.579
78340SOL    HW136917   6.383  12.091  13.645
78340SOL    HW236918   6.281  12.182  13.581
78341SOL     OW36919   5.853  14.608   1.118
78341SOL    HW136920   5.943  14.582   1.140
78341SOL    HW236921   5.856  14.626   1.024
78342SOL     OW36922   2.998   3.339   2.344
78342SOL    HW136923   3.042   3.366   2.424
78342SOL    HW236924   3.032   3.251   2.326
78343SOL     OW36925   2.469   2.918   2.874
78343SOL    HW136926   2.550   2.938   2.922
78343SOL    HW236927   2.438   2.836   2.913
78344SOL     OW36928   5.495   0.633   2.594
78344SOL    HW136929   5.533   0.587   2.519
78344SOL    HW236930   5.532   0.590   2.671
78345SOL     OW36931  10.744   1.521  11.479
78345SOL    HW136932  10.836   1.549  11.481
78345SOL    HW236933  10.729   1.495  11.389
78346SOL     OW36934   3.005  10.516   5.495
78346SOL    HW136935   3.008  10.420   5.503
78346SOL    HW236936   3.081  10.546   5.544
78347SOL     OW36937  10.134  14.767  12.657
78347SOL    HW136938  10.219  14.808  12.672
78347SOL    HW236939  10.154  14.686  12.611
78348SOL     OW36940   6.238   2.517  11.540
78348SOL    HW136941   6.155   2.518  11.586
78348SOL    HW236942   6.247   2.605  11.502
78349SOL     OW36943  11.017  12.768  13.574
78349SOL    HW136944  10.934  12.768  13.527
78349SOL    HW236945  11.039  12.675  13.583
78350SOL     OW36946   1.776   4.726  13.789
78350SOL    HW136947   1.716   4.792  13.755
78350SOL    HW236948   1.802   4.676  13.711
78351SOL     OW36949   8.580  10.279   6.749
78351SOL    HW136950   8.602  10.218   6.679
78351SOL    HW236951   8.637  10.255   6.822
78352SOL     OW36952   9.492   3.596  12.745
78352SOL    HW136953   9.552   3.662  12.711
78352SOL    HW236954   9.541   3.514  12.738
78353SOL     OW36955   5.340  10.987  13.423
78353SOL    HW136956   5.310  10.918  13.363
78353SOL    HW236957   5.410  11.031  13.375
78354SOL     OW36958  12.495  10.892   6.272
78354SOL    HW136959  12.573  10.853   6.312
78354SOL    HW236960  12.506  10.876   6.178
78355SOL     OW36961  14.035   7.975   2.075
78355SOL    HW136962  14.087   8.050   2.104
78355SOL    HW236963  13.962   7.971   2.137
78356SOL     OW36964  12.726  14.225  14.413
78356SOL    HW136965  12.752  14.199  14.325
78356SOL    HW236966  12.630  14.234  14.408
78357SOL     OW36967   0.584  14.144   5.473
78357SOL    HW136968   0.543  14.160   5.558
78357SOL    HW236969   0.516  14.167   5.409
78358SOL     OW36970   1.007  13.107   7.058
78358SOL    HW136971   1.024  13.158   7.137
78358SOL    HW236972   0.964  13.168   6.998
78359SOL     OW36973   0.993   5.339   3.756
78359SOL    HW136974   0.911   5.292   3.773
78359SOL    HW236975   1.027   5.361   3.842
78360SOL     OW36976   5.331   1.156  13.912
78360SOL    HW136977   5.410   1.151  13.858
78360SOL    HW236978   5.269   1.097  13.869
78361SOL     OW36979  13.611   6.417   8.983
78361SOL    HW136980  13.704   6.397   8.970
78361SOL    HW236981  13.609   6.475   9.059
78362SOL     OW36982   7.388   4.284   9.920
78362SOL    HW136983   7.444   4.277   9.842
78362SOL    HW236984   7.312   4.334   9.890
78363SOL     OW36985  12.493  13.925  14.032
78363SOL    HW136986  12.529  14.013  14.040
78363SOL    HW236987  12.466  13.918  13.940
78364SOL     OW36988   2.155   9.051   3.995
78364SOL    HW136989   2.199   9.046   4.080
78364SOL    HW236990   2.172   9.141   3.966
78365SOL     OW36991   7.758   5.789   6.261
78365SOL    HW136992   7.828   5.803   6.325
78365SOL    HW236993   7.692   5.737   6.308
78366SOL     OW36994   1.914   8.982  12.623
78366SOL    HW136995   1.962   8.901  12.604
78366SOL    HW236996   1.898   9.021  12.537
78367SOL     OW36997  13.898   9.340   8.544
78367SOL    HW136998  13.946   9.316   8.623
78367SOL    HW236999  13.865   9.257   8.510
78368SOL     OW37000  14.234  14.273  12.594
78368SOL    HW137001  14.209  14.222  12.517
78368SOL    HW237002  14.165  14.255  12.658
78369SOL     OW37003   0.764   1.668  14.538
78369SOL    HW137004   0.853   1.639  14.553
78369SOL    HW237005   0.718   1.649  14.619
78370SOL     OW37006   1.233   0.929   5.717
78370SOL    HW137007   1.245   1.023   5.709
78370SOL    HW237008   1.204   0.901   5.630
78371SOL     OW37009  12.599  10.801  14.702
78371SOL    HW137010  12.684  10.794  14.658
78371SOL    HW237011  12.535  10.802  14.631
78372SOL     OW37012   6.866   4.130   7.295
78372SOL    HW137013   6.819   4.117   7.212
78372SOL    HW237014   6.805   4.100   7.362
78373SOL     OW37015   2.883   9.028   9.369
78373SOL    HW137016   2.882   8.933   9.361
78373SOL    HW237017   2.976   9.052   9.362
78374SOL     OW37018  11.016   4.501   3.916
78374SOL    HW137019  11.066   4.430   3.957
78374SOL    HW237020  11.069   4.579   3.931
78375SOL     OW37021  13.572   5.831   0.844
78375SOL    HW137022  13.653   5.797   0.806
78375SOL    HW237023  13.523   5.753   0.869
78376SOL     OW37024  14.757   4.920   5.368
78376SOL    HW137025  14.837   4.931   5.419
78376SOL    HW237026  14.724   4.834   5.394
78377SOL     OW37027  13.290   6.937   3.691
78377SOL    HW137028  13.298   6.855   3.642
78377SOL    HW237029  13.252   6.912   3.774
78378SOL     OW37030   3.787   5.626  11.744
78378SOL    HW137031   3.730   5.572  11.800
78378SOL    HW237032   3.732   5.700  11.719
78379SOL     OW37033   4.262  10.259   2.292
78379SOL    HW137034   4.263  10.277   2.386
78379SOL    HW237035   4.268  10.345   2.251
78380SOL     OW37036  14.539  11.511  12.029
78380SOL    HW137037  14.473  11.487  12.095
78380SOL    HW237038  14.622  11.508  12.077
78381SOL     OW37039   7.725   8.235   9.181
78381SOL    HW137040   7.640   8.253   9.221
78381SOL    HW237041   7.788   8.240   9.254
78382SOL     OW37042   4.710   1.117  13.470
78382SOL    HW137043   4.629   1.113  13.521
78382SOL    HW237044   4.719   1.030  13.431
78383SOL     OW37045   7.724   4.442   9.825
78383SOL    HW137046   7.787   4.499   9.780
78383SOL    HW237047   7.698   4.378   9.759
78384SOL     OW37048   5.418   0.791  12.644
78384SOL    HW137049   5.491   0.731  12.627
78384SOL    HW237050   5.365   0.747  12.710
78385SOL     OW37051  12.932   8.515   1.620
78385SOL    HW137052  13.022   8.532   1.650
78385SOL    HW237053  12.926   8.419   1.617
78386SOL     OW37054  11.836   8.336   0.437
78386SOL    HW137055  11.889   8.398   0.488
78386SOL    HW237056  11.885   8.325   0.355
78387SOL     OW37057   5.959  11.303   4.139
78387SOL    HW137058   5.864  11.313   4.132
78387SOL    HW237059   5.977  11.310   4.233
78388SOL     OW37060   7.892  10.899  13.985
78388SOL    HW137061   7.876  10.836  13.915
78388SOL    HW237062   7.875  10.850  14.065
78389SOL     OW37063   6.975   1.319   9.227
78389SOL    HW137064   7.056   1.272   9.249
78389SOL    HW237065   6.923   1.315   9.307
78390SOL     OW37066   7.166  11.049  13.732
78390SOL    HW137067   7.105  11.068  13.803
78390SOL    HW237068   7.213  10.971  13.760
78391SOL     OW37069   6.848   2.199   8.384
78391SOL    HW137070   6.932   2.159   8.362
78391SOL    HW237071   6.801   2.130   8.431
78392SOL     OW37072   7.057  11.416   2.183
78392SOL    HW137073   7.115  11.368   2.124
78392SOL    HW237074   7.113  11.442   2.257
78393SOL     OW37075   1.789   5.053   2.114
78393SOL    HW137076   1.769   4.966   2.080
78393SOL    HW237077   1.839   5.095   2.044
78394SOL     OW37078  10.632  14.481   8.369
78394SOL    HW137079  10.724  14.488   8.344
78394SOL    HW237080  10.587  14.545   8.314
78395SOL     OW37081   5.367   8.176  13.913
78395SOL    HW137082   5.362   8.271  13.917
78395SOL    HW237083   5.303   8.145  13.976
78396SOL     OW37084   7.257   2.141   0.681
78396SOL    HW137085   7.164   2.141   0.660
78396SOL    HW237086   7.300   2.116   0.599
78397SOL     OW37087   8.636  13.333   6.279
78397SOL    HW137088   8.632  13.352   6.185
78397SOL    HW237089   8.546  13.307   6.302
78398SOL     OW37090   4.725   1.208   7.651
78398SOL    HW137091   4.715   1.276   7.584
78398SOL    HW237092   4.756   1.254   7.728
78399SOL     OW37093  10.333   9.026   2.254
78399SOL    HW137094  10.341   9.085   2.180
78399SOL    HW237095  10.296   9.080   2.324
78400SOL     OW37096   1.627   7.173   8.149
78400SOL    HW137097   1.699   7.117   8.117
78400SOL    HW237098   1.616   7.146   8.240
78401SOL     OW37099  10.845  11.683   2.147
78401SOL    HW137100  10.909  11.754   2.155
78401SOL    HW237101  10.897  11.608   2.119
78402SOL     OW37102   6.032   0.742  10.526
78402SOL    HW137103   5.952   0.782  10.491
78402SOL    HW237104   6.008   0.716  10.615
78403SOL     OW37105   8.579   5.140  12.896
78403SOL    HW137106   8.554   5.097  12.978
78403SOL    HW237107   8.663   5.100  12.873
78404SOL     OW37108  11.775   5.835   4.390
78404SOL    HW137109  11.742   5.800   4.473
78404SOL    HW237110  11.731   5.920   4.380
78405SOL     OW37111   7.798   5.043  10.733
78405SOL    HW137112   7.734   5.081  10.792
78405SOL    HW237113   7.784   4.949  10.739
78406SOL     OW37114   9.701   8.578   0.238
78406SOL    HW137115   9.730   8.669   0.243
78406SOL    HW237116   9.613   8.578   0.277
78407SOL     OW37117   9.979  11.760   6.739
78407SOL    HW137118   9.976  11.826   6.808
78407SOL    HW237119  10.054  11.785   6.685
78408SOL     OW37120   1.957   3.516   5.938
78408SOL    HW137121   2.044   3.551   5.957
78408SOL    HW237122   1.917   3.581   5.879
78409SOL     OW37123  11.529   8.575   8.402
78409SOL    HW137124  11.474   8.511   8.358
78409SOL    HW237125  11.576   8.619   8.331
78410SOL     OW37126   1.018  11.992   6.279
78410SOL    HW137127   0.941  11.938   6.292
78410SOL    HW237128   0.988  12.064   6.224
78411SOL     OW37129   2.106   6.362   5.963
78411SOL    HW137130   2.081   6.452   5.985
78411SOL    HW237131   2.116   6.364   5.867
78412SOL     OW37132   2.696  13.254   8.493
78412SOL    HW137133   2.607  13.237   8.464
78412SOL    HW237134   2.692  13.245   8.588
78413SOL     OW37135   1.031  12.021  10.073
78413SOL    HW137136   1.051  12.069   9.993
78413SOL    HW237137   0.964  12.074  10.117
78414SOL     OW37138  12.122  10.118   4.271
78414SOL    HW137139  12.116  10.187   4.205
78414SOL    HW237140  12.129  10.037   4.222
78415SOL     OW37141   5.288   3.531   0.980
78415SOL    HW137142   5.206   3.581   0.980
78415SOL    HW237143   5.345   3.579   0.920
78416SOL     OW37144  11.475  14.472   0.713
78416SOL    HW137145  11.447  14.403   0.774
78416SOL    HW237146  11.568  14.454   0.697
78417SOL     OW37147   3.390   7.602  13.594
78417SOL    HW137148   3.312   7.657  13.589
78417SOL    HW237149   3.431   7.610  13.508
78418SOL     OW37150   1.735   7.617   3.460
78418SOL    HW137151   1.680   7.542   3.439
78418SOL    HW237152   1.751   7.660   3.376
78419SOL     OW37153   8.030  14.127  14.608
78419SOL    HW137154   7.945  14.156  14.641
78419SOL    HW237155   8.085  14.119  14.687
78420SOL     OW37156  14.071   0.994   3.906
78420SOL    HW137157  14.007   0.973   3.974
78420SOL    HW237158  14.099   0.909   3.873
78421SOL     OW37159   0.424   2.316  12.153
78421SOL    HW137160   0.431   2.410  12.171
78421SOL    HW237161   0.350   2.309  12.093
78422SOL     OW37162   4.737   2.453   2.189
78422SOL    HW137163   4.831   2.456   2.207
78422SOL    HW237164   4.700   2.404   2.262
78423SOL     OW37165   8.385   2.073   3.219
78423SOL    HW137166   8.399   2.160   3.257
78423SOL    HW237167   8.327   2.029   3.281
78424SOL     OW37168   7.563   9.195   1.556
78424SOL    HW137169   7.545   9.289   1.550
78424SOL    HW237170   7.650   9.189   1.597
78425SOL     OW37171  13.921  14.345   9.872
78425SOL    HW137172  13.849  14.406   9.853
78425SOL    HW237173  13.901  14.312   9.960
78426SOL     OW37174  10.779  13.008   0.839
78426SOL    HW137175  10.803  13.101   0.835
78426SOL    HW237176  10.795  12.976   0.750
78427SOL     OW37177  13.641   1.048  11.576
78427SOL    HW137178  13.702   1.011  11.512
78427SOL    HW237179  13.635   0.980  11.644
78428SOL     OW37180  12.593   5.765  10.779
78428SOL    HW137181  12.652   5.799  10.712
78428SOL    HW237182  12.509   5.808  10.761
78429SOL     OW37183   8.417   6.619   6.654
78429SOL    HW137184   8.453   6.581   6.734
78429SOL    HW237185   8.323   6.627   6.672
78430SOL     OW37186   6.666   0.080  13.651
78430SOL    HW137187   6.661   0.167  13.689
78430SOL    HW237188   6.642   0.020  13.722
78431SOL     OW37189  14.047   9.103   0.691
78431SOL    HW137190  14.031   9.042   0.762
78431SOL    HW237191  13.960   9.122   0.655
78432SOL     OW37192   0.321  13.900   3.443
78432SOL    HW137193   0.394  13.864   3.392
78432SOL    HW237194   0.327  13.856   3.528
78433SOL     OW37195  12.440  10.692   8.910
78433SOL    HW137196  12.494  10.660   8.981
78433SOL    HW237197  12.443  10.788   8.918
78434SOL     OW37198  11.255   2.713   7.063
78434SOL    HW137199  11.227   2.803   7.077
78434SOL    HW237200  11.349   2.714   7.076
78435SOL     OW37201   6.273   7.618  11.517
78435SOL    HW137202   6.351   7.563  11.526
78435SOL    HW237203   6.219   7.596  11.593
78436SOL     OW37204  12.404   1.252   1.368
78436SOL    HW137205  12.376   1.178   1.315
78436SOL    HW237206  12.398   1.328   1.309
78437SOL     OW37207  11.549   0.288   3.882
78437SOL    HW137208  11.522   0.291   3.974
78437SOL    HW237209  11.591   0.373   3.867
78438SOL     OW37210  11.313  10.269  10.742
78438SOL    HW137211  11.358  10.278  10.658
78438SOL    HW237212  11.383  10.273  10.807
78439SOL     OW37213   1.895  12.517  13.200
78439SOL    HW137214   1.810  12.547  13.231
78439SOL    HW237215   1.958  12.559  13.258
78440SOL     OW37216   5.695  13.434   7.077
78440SOL    HW137217   5.691  13.397   7.165
78440SOL    HW237218   5.623  13.498   7.074
78441SOL     OW37219   1.617  10.919   7.778
78441SOL    HW137220   1.650  10.974   7.706
78441SOL    HW237221   1.522  10.918   7.765
78442SOL     OW37222   8.262  13.983   4.744
78442SOL    HW137223   8.195  14.045   4.773
78442SOL    HW237224   8.219  13.898   4.744
78443SOL     OW37225   0.365   4.033   5.257
78443SOL    HW137226   0.327   4.118   5.236
78443SOL    HW237227   0.459   4.046   5.248
78444SOL     OW37228  10.242   8.030  10.741
78444SOL    HW137229  10.164   7.974  10.740
78444SOL    HW237230  10.316   7.969  10.747
78445SOL     OW37231   6.283  10.748   5.507
78445SOL    HW137232   6.308  10.698   5.585
78445SOL    HW237233   6.364  10.754   5.456
78446SOL     OW37234  12.316  13.737  11.227
78446SOL    HW137235  12.299  13.643  11.238
78446SOL    HW237236  12.392  13.740  11.170
78447SOL     OW37237  13.481   3.698   9.684
78447SOL    HW137238  13.453   3.781   9.645
78447SOL    HW237239  13.399   3.654   9.707
78448SOL     OW37240  13.959   9.238   5.047
78448SOL    HW137241  13.880   9.198   5.083
78448SOL    HW237242  14.007   9.166   5.007
78449SOL     OW37243  12.072   9.815   4.906
78449SOL    HW137244  12.089   9.838   4.998
78449SOL    HW237245  12.146   9.852   4.859
78450SOL     OW37246   5.256   0.734   1.718
78450SOL    HW137247   5.283   0.825   1.731
78450SOL    HW237248   5.328   0.695   1.668
78451SOL     OW37249  11.111   6.205  12.510
78451SOL    HW137250  11.150   6.241  12.589
78451SOL    HW237251  11.030   6.163  12.539
78452SOL     OW37252  12.805   1.289   7.707
78452SOL    HW137253  12.809   1.200   7.743
78452SOL    HW237254  12.712   1.311   7.712
78453SOL     OW37255  11.968  10.239   7.848
78453SOL    HW137256  11.958  10.158   7.798
78453SOL    HW237257  11.920  10.305   7.798
78454SOL     OW37258   1.001   6.240   1.349
78454SOL    HW137259   1.053   6.160   1.355
78454SOL    HW237260   0.941   6.235   1.424
78455SOL     OW37261   1.205   0.121   7.368
78455SOL    HW137262   1.178   0.067   7.294
78455SOL    HW237263   1.180   0.071   7.445
78456SOL     OW37264   1.562  10.476   1.036
78456SOL    HW137265   1.478  10.444   1.005
78456SOL    HW237266   1.600  10.522   0.961
78457SOL     OW37267   3.808   4.027   8.367
78457SOL    HW137268   3.828   3.951   8.422
78457SOL    HW237269   3.730   4.065   8.408
78458SOL     OW37270  10.123   0.506  10.053
78458SOL    HW137271  10.063   0.434  10.070
78458SOL    HW237272  10.082   0.582  10.094
78459SOL     OW37273  10.024   4.370   6.977
78459SOL    HW137274  10.017   4.297   7.040
78459SOL    HW237275  10.065   4.440   7.027
78460SOL     OW37276  10.548   3.905  12.154
78460SOL    HW137277  10.629   3.900  12.203
78460SOL    HW237278  10.532   3.816  12.123
78461SOL     OW37279   7.628   6.680  10.656
78461SOL    HW137280   7.550   6.632  10.683
78461SOL    HW237281   7.605   6.718  10.572
78462SOL     OW37282  10.482  13.449   3.997
78462SOL    HW137283  10.403  13.502   4.006
78462SOL    HW237284  10.544  13.486   4.059
78463SOL     OW37285   0.020  13.639   9.977
78463SOL    HW137286   0.091  13.703   9.984
78463SOL    HW237287  14.844  13.659  10.052
78464SOL     OW37288  10.666  11.759  11.434
78464SOL    HW137289  10.727  11.732  11.503
78464SOL    HW237290  10.581  11.761  11.477
78465SOL     OW37291   2.239  13.351   2.795
78465SOL    HW137292   2.232  13.321   2.705
78465SOL    HW237293   2.319  13.403   2.798
78466SOL     OW37294  11.786   3.377   8.702
78466SOL    HW137295  11.694   3.376   8.678
78466SOL    HW237296  11.832   3.357   8.620
78467SOL     OW37297  14.458   2.794  11.759
78467SOL    HW137298  14.427   2.851  11.689
78467SOL    HW237299  14.387   2.731  11.772
78468SOL     OW37300   8.323  12.321  10.831
78468SOL    HW137301   8.331  12.233  10.868
78468SOL    HW237302   8.229  12.338  10.828
78469SOL     OW37303   5.430   4.610   3.521
78469SOL    HW137304   5.411   4.572   3.435
78469SOL    HW237305   5.370   4.685   3.529
78470SOL     OW37306  14.502  12.233   4.205
78470SOL    HW137307  14.429  12.223   4.266
78470SOL    HW237308  14.465  12.283   4.131
78471SOL     OW37309   8.226   7.901   0.776
78471SOL    HW137310   8.193   7.885   0.688
78471SOL    HW237311   8.321   7.892   0.768
78472SOL     OW37312   3.174   6.014   3.042
78472SOL    HW137313   3.259   6.041   3.006
78472SOL    HW237314   3.134   5.962   2.972
78473SOL     OW37315   4.092  13.780   3.505
78473SOL    HW137316   4.018  13.838   3.489
78473SOL    HW237317   4.146  13.827   3.569
78474SOL     OW37318   0.819   0.786  12.785
78474SOL    HW137319   0.879   0.861  12.793
78474SOL    HW237320   0.764   0.791  12.864
78475SOL     OW37321   0.669  11.037  12.740
78475SOL    HW137322   0.690  11.029  12.647
78475SOL    HW237323   0.752  11.017  12.784
78476SOL     OW37324  14.531   2.854   9.450
78476SOL    HW137325  14.596   2.924   9.448
78476SOL    HW237326  14.570   2.784   9.397
78477SOL     OW37327   3.596   9.991  13.059
78477SOL    HW137328   3.588  10.036  12.975
78477SOL    HW237329   3.536   9.917  13.053
78478SOL     OW37330   2.632  12.587   6.928
78478SOL    HW137331   2.704  12.641   6.963
78478SOL    HW237332   2.601  12.537   7.004
78479SOL     OW37333   6.023   7.315   8.925
78479SOL    HW137334   5.977   7.354   9.000
78479SOL    HW237335   6.008   7.221   8.933
78480SOL     OW37336  10.612   1.336   9.281
78480SOL    HW137337  10.640   1.327   9.190
78480SOL    HW237338  10.569   1.253   9.301
78481SOL     OW37339  11.881   5.859   7.005
78481SOL    HW137340  11.807   5.893   6.956
78481SOL    HW237341  11.943   5.932   7.009
78482SOL     OW37342  14.063   8.941   5.025
78482SOL    HW137343  14.044   8.862   4.975
78482SOL    HW237344  14.081   8.910   5.114
78483SOL     OW37345  13.758  14.363  14.327
78483SOL    HW137346  13.785  14.419  14.254
78483SOL    HW237347  13.687  14.310  14.292
78484SOL     OW37348  10.614  12.033   2.305
78484SOL    HW137349  10.602  12.126   2.287
78484SOL    HW237350  10.529  12.004   2.337
78485SOL     OW37351   5.361   0.465  10.838
78485SOL    HW137352   5.332   0.385  10.884
78485SOL    HW237353   5.419   0.508  10.901
78486SOL     OW37354   8.331   5.786   8.526
78486SOL    HW137355   8.373   5.701   8.510
78486SOL    HW237356   8.299   5.781   8.616
78487SOL     OW37357  12.970   1.029  11.926
78487SOL    HW137358  13.061   1.038  11.899
78487SOL    HW237359  12.974   1.020  12.021
78488SOL     OW37360  14.647   9.435   1.625
78488SOL    HW137361  14.610   9.466   1.707
78488SOL    HW237362  14.571   9.414   1.571
78489SOL     OW37363   9.407  13.264   1.791
78489SOL    HW137364   9.316  13.287   1.774
78489SOL    HW237365   9.458  13.326   1.739
78490SOL     OW37366   7.786  14.155  12.772
78490SOL    HW137367   7.784  14.226  12.708
78490SOL    HW237368   7.734  14.189  12.846
78491SOL     OW37369   7.664  12.033   9.629
78491SOL    HW137370   7.612  11.954   9.619
78491SOL    HW237371   7.642  12.065   9.717
78492SOL     OW37372   8.035   9.891  14.592
78492SOL    HW137373   8.125   9.875  14.564
78492SOL    HW237374   8.030   9.851  14.679
78493SOL     OW37375   9.140  13.753  14.258
78493SOL    HW137376   9.085  13.829  14.273
78493SOL    HW237377   9.097  13.683  14.308
78494SOL     OW37378   9.690   4.328  11.521
78494SOL    HW137379   9.758   4.395  11.509
78494SOL    HW237380   9.730   4.264  11.580
78495SOL     OW37381  10.345   9.286   7.319
78495SOL    HW137382  10.364   9.216   7.257
78495SOL    HW237383  10.390   9.261   7.399
78496SOL     OW37384   4.007   1.033   7.278
78496SOL    HW137385   3.931   0.993   7.237
78496SOL    HW237386   3.991   1.027   7.372
78497SOL     OW37387   5.444  10.031   4.864
78497SOL    HW137388   5.377  10.099   4.859
78497SOL    HW237389   5.514  10.070   4.916
78498SOL     OW37390   8.137   3.264   6.166
78498SOL    HW137391   8.109   3.220   6.086
78498SOL    HW237392   8.223   3.300   6.145
78499SOL     OW37393   5.972   7.937  12.935
78499SOL    HW137394   6.057   7.950  12.978
78499SOL    HW237395   5.930   8.023  12.937
78500SOL     OW37396  13.500  11.745   2.053
78500SOL    HW137397  13.466  11.756   1.964
78500SOL    HW237398  13.543  11.659   2.052
78501SOL     OW37399   7.670   9.953   9.542
78501SOL    HW137400   7.623   9.976   9.462
78501SOL    HW237401   7.709  10.036   9.571
78502SOL     OW37402   8.311   3.532   6.541
78502SOL    HW137403   8.332   3.617   6.579
78502SOL    HW237404   8.341   3.469   6.607
78503SOL     OW37405  11.985   6.326   5.322
78503SOL    HW137406  11.908   6.279   5.354
78503SOL    HW237407  11.957   6.362   5.238
78504SOL     OW37408  10.957   6.604   3.188
78504SOL    HW137409  11.047   6.592   3.219
78504SOL    HW237410  10.961   6.682   3.133
78505SOL     OW37411  13.336   9.430   5.128
78505SOL    HW137412  13.360   9.499   5.190
78505SOL    HW237413  13.411   9.423   5.069
78506SOL     OW37414   4.873  11.351   9.219
78506SOL    HW137415   4.967  11.340   9.229
78506SOL    HW237416   4.838  11.262   9.216
78507SOL     OW37417   8.814  11.576  10.624
78507SOL    HW137418   8.842  11.486  10.640
78507SOL    HW237419   8.883  11.630  10.664
78508SOL     OW37420  14.594   4.762   9.921
78508SOL    HW137421  14.637   4.806   9.994
78508SOL    HW237422  14.541   4.830   9.880
78509SOL     OW37423   1.034   5.257   3.491
78509SOL    HW137424   1.059   5.281   3.580
78509SOL    HW237425   0.951   5.303   3.476
78510SOL     OW37426   7.502   1.203   6.718
78510SOL    HW137427   7.410   1.175   6.719
78510SOL    HW237428   7.539   1.158   6.642
78511SOL     OW37429  10.308  10.751   7.861
78511SOL    HW137430  10.403  10.758   7.867
78511SOL    HW237431  10.279  10.839   7.836
78512SOL     OW37432   3.726  10.352   4.285
78512SOL    HW137433   3.770  10.296   4.222
78512SOL    HW237434   3.678  10.416   4.232
78513SOL     OW37435  10.418   9.703  14.319
78513SOL    HW137436  10.342   9.652  14.348
78513SOL    HW237437  10.396   9.793  14.341
78514SOL     OW37438   4.590   0.847  13.253
78514SOL    HW137439   4.501   0.821  13.277
78514SOL    HW237440   4.639   0.764  13.252
78515SOL     OW37441   9.849   8.661   3.248
78515SOL    HW137442   9.905   8.642   3.324
78515SOL    HW237443   9.803   8.579   3.231
78516SOL     OW37444  13.866   9.059   4.765
78516SOL    HW137445  13.930   8.992   4.740
78516SOL    HW237446  13.815   9.075   4.685
78517SOL     OW37447   1.114   4.096   7.519
78517SOL    HW137448   1.121   4.191   7.527
78517SOL    HW237449   1.200   4.068   7.486
78518SOL     OW37450   2.591   3.873  11.565
78518SOL    HW137451   2.587   3.778  11.554
78518SOL    HW237452   2.678   3.898  11.535
78519SOL     OW37453  14.030   9.195   1.859
78519SOL    HW137454  14.056   9.104   1.873
78519SOL    HW237455  14.011   9.200   1.765
78520SOL     OW37456  13.509   0.705  10.867
78520SOL    HW137457  13.555   0.777  10.911
78520SOL    HW237458  13.418   0.735  10.862
78521SOL     OW37459   9.791  12.462   0.032
78521SOL    HW137460   9.789  12.521   0.108
78521SOL    HW237461   9.724  12.498  14.854
78522SOL     OW37462  14.438  12.364   6.630
78522SOL    HW137463  14.525  12.383   6.663
78522SOL    HW237464  14.434  12.408   6.545
78523SOL     OW37465  10.437   9.844   2.219
78523SOL    HW137466  10.499   9.774   2.198
78523SOL    HW237467  10.355   9.799   2.239
78524SOL     OW37468   1.818   2.308   8.788
78524SOL    HW137469   1.750   2.342   8.729
78524SOL    HW237470   1.855   2.233   8.741
78525SOL     OW37471  10.957  12.978   2.474
78525SOL    HW137472  11.015  13.035   2.424
78525SOL    HW237473  11.015  12.917   2.519
78526SOL     OW37474   8.896   5.575   2.965
78526SOL    HW137475   8.862   5.525   3.039
78526SOL    HW237476   8.855   5.661   2.974
78527SOL     OW37477  11.321   2.005   7.779
78527SOL    HW137478  11.284   2.034   7.695
78527SOL    HW237479  11.412   2.034   7.775
78528SOL     OW37480   9.418  11.962   3.311
78528SOL    HW137481   9.377  11.949   3.225
78528SOL    HW237482   9.488  11.897   3.313
78529SOL     OW37483   6.104  10.553  12.018
78529SOL    HW137484   6.117  10.464  11.986
78529SOL    HW237485   6.020  10.550  12.064
78530SOL     OW37486  12.057  10.983  12.497
78530SOL    HW137487  12.088  10.897  12.470
78530SOL    HW237488  12.009  11.016  12.420
78531SOL     OW37489  10.100   7.092   3.693
78531SOL    HW137490  10.024   7.104   3.636
78531SOL    HW237491  10.138   7.009   3.665
78532SOL     OW37492  11.022  10.187  11.475
78532SOL    HW137493  11.077  10.161  11.549
78532SOL    HW237494  10.960  10.115  11.464
78533SOL     OW37495   0.267  10.075   1.220
78533SOL    HW137496   0.293   9.988   1.189
78533SOL    HW237497   0.184  10.092   1.177
78534SOL     OW37498  13.627   7.055  14.513
78534SOL    HW137499  13.668   6.991  14.455
78534SOL    HW237500  13.686   7.058  14.589
78535SOL     OW37501  10.125   0.304  14.824
78535SOL    HW137502  10.209   0.347  14.810
78535SOL    HW237503  10.062   0.359  14.778
78536SOL     OW37504  11.126   1.132  13.464
78536SOL    HW137505  11.076   1.131  13.383
78536SOL    HW237506  11.205   1.082  13.445
78537SOL     OW37507   9.916   8.608   2.083
78537SOL    HW137508   9.951   8.627   1.996
78537SOL    HW237509   9.831   8.653   2.085
78538SOL     OW37510  11.637   6.387   7.368
78538SOL    HW137511  11.700   6.326   7.329
78538SOL    HW237512  11.658   6.387   7.461
78539SOL     OW37513   2.727   8.149   5.338
78539SOL    HW137514   2.790   8.193   5.281
78539SOL    HW237515   2.668   8.103   5.277
78540SOL     OW37516   1.613   9.598   4.187
78540SOL    HW137517   1.701   9.573   4.161
78540SOL    HW237518   1.561   9.589   4.107
78541SOL     OW37519  14.776   5.125   9.761
78541SOL    HW137520  14.695   5.097   9.718
78541SOL    HW237521  14.845   5.074   9.719
78542SOL     OW37522  10.490   6.644  12.876
78542SOL    HW137523  10.422   6.604  12.823
78542SOL    HW237524  10.570   6.596  12.854
78543SOL     OW37525  10.262   9.791  10.693
78543SOL    HW137526  10.207   9.782  10.770
78543SOL    HW237527  10.337   9.843  10.722
78544SOL     OW37528  10.889   2.714  10.444
78544SOL    HW137529  10.977   2.690  10.413
78544SOL    HW237530  10.843   2.744  10.365
78545SOL     OW37531  14.130   0.427   6.904
78545SOL    HW137532  14.090   0.511   6.922
78545SOL    HW237533  14.196   0.445   6.838
78546SOL     OW37534   8.763   6.235  11.065
78546SOL    HW137535   8.797   6.296  11.000
78546SOL    HW237536   8.735   6.159  11.015
78547SOL     OW37537   2.166   5.914   2.091
78547SOL    HW137538   2.208   5.998   2.071
78547SOL    HW237539   2.217   5.879   2.165
78548SOL     OW37540   1.178  12.899  12.742
78548SOL    HW137541   1.098  12.924  12.696
78548SOL    HW237542   1.147  12.848  12.818
78549SOL     OW37543  11.728  10.296   9.370
78549SOL    HW137544  11.724  10.306   9.466
78549SOL    HW237545  11.731  10.386   9.337
78550SOL     OW37546  11.270   3.388   5.853
78550SOL    HW137547  11.309   3.315   5.804
78550SOL    HW237548  11.342   3.424   5.904
78551SOL     OW37549   2.084   6.615   6.115
78551SOL    HW137550   2.060   6.595   6.206
78551SOL    HW237551   2.109   6.707   6.117
78552SOL     OW37552   8.234   3.191  13.526
78552SOL    HW137553   8.151   3.149  13.506
78552SOL    HW237554   8.214   3.284  13.530
78553SOL     OW37555   1.342   1.066   0.772
78553SOL    HW137556   1.429   1.104   0.786
78553SOL    HW237557   1.282   1.127   0.813
78554SOL     OW37558   5.828   0.850   3.904
78554SOL    HW137559   5.879   0.928   3.883
78554SOL    HW237560   5.772   0.877   3.977
78555SOL     OW37561   6.818  11.298   9.721
78555SOL    HW137562   6.824  11.314   9.815
78555SOL    HW237563   6.873  11.221   9.707
78556SOL     OW37564   7.394   7.411  11.205
78556SOL    HW137565   7.422   7.502  11.191
78556SOL    HW237566   7.335   7.416  11.281
78557SOL     OW37567  12.258   9.457   1.743
78557SOL    HW137568  12.170   9.432   1.716
78557SOL    HW237569  12.260   9.441   1.837
78558SOL     OW37570   1.554   6.869   1.904
78558SOL    HW137571   1.571   6.920   1.983
78558SOL    HW237572   1.497   6.925   1.852
78559SOL     OW37573  12.388   4.092   0.291
78559SOL    HW137574  12.445   4.037   0.237
78559SOL    HW237575  12.305   4.045   0.293
78560SOL     OW37576  13.636   9.580   2.631
78560SOL    HW137577  13.580   9.529   2.573
78560SOL    HW237578  13.623   9.671   2.603
78561SOL     OW37579   7.246   7.193   2.400
78561SOL    HW137580   7.262   7.108   2.359
78561SOL    HW237581   7.274   7.182   2.491
78562SOL     OW37582   2.692  11.837  11.064
78562SOL    HW137583   2.645  11.802  10.988
78562SOL    HW237584   2.666  11.779  11.136
78563SOL     OW37585   7.115  13.769  13.232
78563SOL    HW137586   7.142  13.808  13.149
78563SOL    HW237587   7.032  13.726  13.212
78564SOL     OW37588  13.360  11.457   3.694
78564SOL    HW137589  13.402  11.538   3.722
78564SOL    HW237590  13.266  11.475   3.700
78565SOL     OW37591   6.701   0.530   8.617
78565SOL    HW137592   6.788   0.567   8.631
78565SOL    HW237593   6.715   0.459   8.554
78566SOL     OW37594   7.528   7.245   1.413
78566SOL    HW137595   7.599   7.206   1.362
78566SOL    HW237596   7.479   7.170   1.447
78567SOL     OW37597  14.703  13.507   7.123
78567SOL    HW137598  14.761  13.442   7.084
78567SOL    HW237599  14.656  13.546   7.049
78568SOL     OW37600   0.830   5.324   1.288
78568SOL    HW137601   0.774   5.297   1.361
78568SOL    HW237602   0.859   5.242   1.249
78569SOL     OW37603   3.550  14.493   4.046
78569SOL    HW137604   3.645  14.505   4.038
78569SOL    HW237605   3.518  14.495   3.956
78570SOL     OW37606   4.454  13.740  11.213
78570SOL    HW137607   4.396  13.737  11.137
78570SOL    HW237608   4.466  13.649  11.238
78571SOL     OW37609   4.475   4.083  13.520
78571SOL    HW137610   4.489   3.989  13.515
78571SOL    HW237611   4.483   4.103  13.613
78572SOL     OW37612   0.728  14.271   3.006
78572SOL    HW137613   0.760  14.351   3.047
78572SOL    HW237614   0.757  14.278   2.915
78573SOL     OW37615   6.562  11.213   3.921
78573SOL    HW137616   6.525  11.285   3.971
78573SOL    HW237617   6.641  11.188   3.970
78574SOL     OW37618  13.640   3.660   3.076
78574SOL    HW137619  13.715   3.613   3.041
78574SOL    HW237620  13.619   3.725   3.009
78575SOL     OW37621   0.921  10.424  10.783
78575SOL    HW137622   0.955  10.335  10.778
78575SOL    HW237623   0.967  10.471  10.713
78576SOL     OW37624   1.804  12.422   9.764
78576SOL    HW137625   1.877  12.461   9.717
78576SOL    HW237626   1.761  12.496   9.807
78577SOL     OW37627   8.047   6.570  13.121
78577SOL    HW137628   8.142   6.573  13.128
78577SOL    HW237629   8.029   6.494  13.064
78578SOL     OW37630   5.527  12.974   4.041
78578SOL    HW137631   5.530  13.038   3.970
78578SOL    HW237632   5.467  12.907   4.010
78579SOL     OW37633   5.679   5.243  13.662
78579SOL    HW137634   5.624   5.194  13.723
78579SOL    HW237635   5.621   5.312  13.629
78580SOL     OW37636  14.644   4.156  12.228
78580SOL    HW137637  14.675   4.246  12.219
78580SOL    HW237638  14.549   4.164  12.239
78581SOL     OW37639   8.264   1.698   3.053
78581SOL    HW137640   8.174   1.684   3.025
78581SOL    HW237641   8.294   1.771   2.998
78582SOL     OW37642  12.203   9.886   8.954
78582SOL    HW137643  12.201   9.801   8.911
78582SOL    HW237644  12.116   9.924   8.936
78583SOL     OW37645   6.148  11.762   5.918
78583SOL    HW137646   6.155  11.708   5.839
78583SOL    HW237647   6.057  11.753   5.946
78584SOL     OW37648   4.378   1.873   1.032
78584SOL    HW137649   4.474   1.871   1.027
78584SOL    HW237650   4.350   1.790   0.995
78585SOL     OW37651   1.627   5.293  12.230
78585SOL    HW137652   1.653   5.220  12.173
78585SOL    HW237653   1.709   5.330  12.261
78586SOL     OW37654   1.914  10.348   4.357
78586SOL    HW137655   1.846  10.392   4.307
78586SOL    HW237656   1.927  10.403   4.434
78587SOL     OW37657   2.801  12.746   8.966
78587SOL    HW137658   2.810  12.671   8.908
78587SOL    HW237659   2.706  12.752   8.982
78588SOL     OW37660  14.504  12.017   1.351
78588SOL    HW137661  14.446  12.088   1.376
78588SOL    HW237662  14.463  11.938   1.387
78589SOL     OW37663  11.116  11.113   3.427
78589SOL    HW137664  11.122  11.141   3.518
78589SOL    HW237665  11.149  11.023   3.427
78590SOL     OW37666   3.715   9.248   4.239
78590SOL    HW137667   3.629   9.287   4.220
78590SOL    HW237668   3.696   9.154   4.250
78591SOL     OW37669  10.533  11.261   5.859
78591SOL    HW137670  10.591  11.193   5.824
78591SOL    HW237671  10.525  11.240   5.952
78592SOL     OW37672  14.105   6.948   7.378
78592SOL    HW137673  14.084   7.036   7.345
78592SOL    HW237674  14.169   6.963   7.447
78593SOL     OW37675  11.780   8.916   2.691
78593SOL    HW137676  11.821   8.844   2.642
78593SOL    HW237677  11.772   8.883   2.780
78594SOL     OW37678   7.233   8.049   8.543
78594SOL    HW137679   7.191   8.135   8.547
78594SOL    HW237680   7.163   7.987   8.564
78595SOL     OW37681  10.273  13.136  11.485
78595SOL    HW137682  10.282  13.145  11.390
78595SOL    HW237683  10.355  13.097  11.514
78596SOL     OW37684   1.770   8.698  13.243
78596SOL    HW137685   1.696   8.737  13.291
78596SOL    HW237686   1.736   8.684  13.155
78597SOL     OW37687   9.178  13.619   7.181
78597SOL    HW137688   9.110  13.581   7.126
78597SOL    HW237689   9.204  13.548   7.239
78598SOL     OW37690   6.779   9.259   6.332
78598SOL    HW137691   6.741   9.326   6.275
78598SOL    HW237692   6.860   9.234   6.288
78599SOL     OW37693   6.747   5.462   3.353
78599SOL    HW137694   6.777   5.548   3.383
78599SOL    HW237695   6.817   5.402   3.378
78600SOL     OW37696   4.543  14.578   9.212
78600SOL    HW137697   4.488  14.657   9.214
78600SOL    HW237698   4.505  14.524   9.143
78601SOL     OW37699   5.014   4.307  10.362
78601SOL    HW137700   5.098   4.268  10.389
78601SOL    HW237701   5.038   4.372  10.296
78602SOL     OW37702   4.058   5.301   0.083
78602SOL    HW137703   3.972   5.315   0.122
78602SOL    HW237704   4.099   5.235   0.138
78603SOL     OW37705   4.866   9.863   8.995
78603SOL    HW137706   4.915   9.945   9.005
78603SOL    HW237707   4.840   9.863   8.903
78604SOL     OW37708   6.359   0.096   1.746
78604SOL    HW137709   6.381   0.185   1.720
78604SOL    HW237710   6.427   0.072   1.810
78605SOL     OW37711  14.331  13.287  12.696
78605SOL    HW137712  14.364  13.290  12.606
78605SOL    HW237713  14.336  13.377  12.727
78606SOL     OW37714  14.424  13.495  14.817
78606SOL    HW137715  14.334  13.511  14.788
78606SOL    HW237716  14.425  13.402  14.839
78607SOL     OW37717   3.779   8.626  11.242
78607SOL    HW137718   3.802   8.557  11.181
78607SOL    HW237719   3.686   8.642  11.226
78608SOL     OW37720   0.112  12.992  10.520
78608SOL    HW137721   0.201  13.025  10.531
78608SOL    HW237722   0.096  12.937  10.597
78609SOL     OW37723   1.208   0.419   7.736
78609SOL    HW137724   1.118   0.418   7.769
78609SOL    HW237725   1.252   0.487   7.788
78610SOL     OW37726   2.881  12.088   5.327
78610SOL    HW137727   2.886  12.060   5.235
78610SOL    HW237728   2.963  12.136   5.341
78611SOL     OW37729   9.051   7.682   5.458
78611SOL    HW137730   9.065   7.594   5.492
78611SOL    HW237731   9.068   7.674   5.364
78612SOL     OW37732   2.900  12.403   5.964
78612SOL    HW137733   2.952  12.325   5.944
78612SOL    HW237734   2.809  12.374   5.958
78613SOL     OW37735   1.496  14.229   1.606
78613SOL    HW137736   1.570  14.275   1.644
78613SOL    HW237737   1.473  14.163   1.672
78614SOL     OW37738   9.008   2.272  10.364
78614SOL    HW137739   9.054   2.203  10.410
78614SOL    HW237740   8.987   2.337  10.432
78615SOL     OW37741   6.076   1.511   7.801
78615SOL    HW137742   6.108   1.422   7.784
78615SOL    HW237743   6.125   1.540   7.878
78616SOL     OW37744   9.756  13.190  13.069
78616SOL    HW137745   9.739  13.215  12.979
78616SOL    HW237746   9.796  13.267  13.109
78617SOL     OW37747  10.010  12.264  13.481
78617SOL    HW137748   9.975  12.176  13.496
78617SOL    HW237749  10.102  12.249  13.457
78618SOL     OW37750   2.238  11.059   1.711
78618SOL    HW137751   2.260  10.999   1.783
78618SOL    HW237752   2.192  11.131   1.754
78619SOL     OW37753  13.832   8.465   6.961
78619SOL    HW137754  13.796   8.428   6.880
78619SOL    HW237755  13.896   8.400   6.991
78620SOL     OW37756   2.500   8.091   8.423
78620SOL    HW137757   2.460   8.024   8.367
78620SOL    HW237758   2.465   8.074   8.510
78621SOL     OW37759  11.468   6.626   1.124
78621SOL    HW137760  11.447   6.535   1.143
78621SOL    HW237761  11.513   6.624   1.040
78622SOL     OW37762   3.822  13.214   6.741
78622SOL    HW137763   3.847  13.135   6.788
78622SOL    HW237764   3.728  13.204   6.725
78623SOL     OW37765   6.837   2.683   0.112
78623SOL    HW137766   6.756   2.672   0.161
78623SOL    HW237767   6.824   2.631   0.032
78624SOL     OW37768  12.117   3.602   7.111
78624SOL    HW137769  12.201   3.588   7.154
78624SOL    HW237770  12.053   3.561   7.170
78625SOL     OW37771  13.388  10.699   6.679
78625SOL    HW137772  13.343  10.618   6.702
78625SOL    HW237773  13.344  10.729   6.599
78626SOL     OW37774   6.708  14.446   0.871
78626SOL    HW137775   6.743  14.509   0.808
78626SOL    HW237776   6.780  14.429   0.931
78627SOL     OW37777  11.570   1.587  10.967
78627SOL    HW137778  11.567   1.682  10.974
78627SOL    HW237779  11.610   1.558  11.048
78628SOL     OW37780   3.240   1.790   2.821
78628SOL    HW137781   3.270   1.880   2.808
78628SOL    HW237782   3.314   1.745   2.862
78629SOL     OW37783  14.425   5.181  14.310
78629SOL    HW137784  14.464   5.221  14.388
78629SOL    HW237785  14.494   5.184  14.244
78630SOL     OW37786  11.253   8.368  10.791
78630SOL    HW137787  11.313   8.346  10.720
78630SOL    HW237788  11.236   8.462  10.780
78631SOL     OW37789   9.306   2.448   8.047
78631SOL    HW137790   9.351   2.517   8.096
78631SOL    HW237791   9.231   2.424   8.101
78632SOL     OW37792   2.432  11.366   9.005
78632SOL    HW137793   2.409  11.293   9.061
78632SOL    HW237794   2.437  11.441   9.064
78633SOL     OW37795   2.299  11.774  13.259
78633SOL    HW137796   2.260  11.699  13.304
78633SOL    HW237797   2.301  11.843  13.325
78634SOL     OW37798   9.887   2.126   8.975
78634SOL    HW137799   9.828   2.070   9.025
78634SOL    HW237800   9.904   2.201   9.032
78635SOL     OW37801   5.150  10.737   4.223
78635SOL    HW137802   5.076  10.779   4.266
78635SOL    HW237803   5.227  10.774   4.266
78636SOL     OW37804   3.650  14.582  13.719
78636SOL    HW137805   3.604  14.564  13.801
78636SOL    HW237806   3.731  14.625  13.746
78637SOL     OW37807  12.134  11.115   0.874
78637SOL    HW137808  12.040  11.106   0.890
78637SOL    HW237809  12.164  11.026   0.860
78638SOL     OW37810   8.613   7.488   9.722
78638SOL    HW137811   8.703   7.454   9.717
78638SOL    HW237812   8.560   7.412   9.747
78639SOL     OW37813   6.885  11.119   4.433
78639SOL    HW137814   6.862  11.206   4.399
78639SOL    HW237815   6.817  11.061   4.398
78640SOL     OW37816   4.726   4.021   5.879
78640SOL    HW137817   4.682   3.946   5.918
78640SOL    HW237818   4.723   4.089   5.947
78641SOL     OW37819   9.829   9.363   2.081
78641SOL    HW137820   9.842   9.426   2.011
78641SOL    HW237821   9.734   9.359   2.092
78642SOL     OW37822   0.891   2.800   4.887
78642SOL    HW137823   0.909   2.711   4.917
78642SOL    HW237824   0.865   2.847   4.966
78643SOL     OW37825   2.155   4.231  14.432
78643SOL    HW137826   2.068   4.201  14.458
78643SOL    HW237827   2.198   4.152  14.398
78644SOL     OW37828   4.532   8.821   7.855
78644SOL    HW137829   4.553   8.855   7.768
78644SOL    HW237830   4.616   8.794   7.891
78645SOL     OW37831  11.539   7.094  13.214
78645SOL    HW137832  11.532   7.063  13.304
78645SOL    HW237833  11.581   7.180  13.221
78646SOL     OW37834  10.150   6.104  10.978
78646SOL    HW137835  10.099   6.038  11.026
78646SOL    HW237836  10.173   6.169  11.044
78647SOL     OW37837   2.570   6.811   0.569
78647SOL    HW137838   2.569   6.897   0.610
78647SOL    HW237839   2.662   6.789   0.560
78648SOL     OW37840   2.845   4.598   1.672
78648SOL    HW137841   2.849   4.684   1.713
78648SOL    HW237842   2.900   4.543   1.727
78649SOL     OW37843   3.258   1.367  12.657
78649SOL    HW137844   3.195   1.413  12.714
78649SOL    HW237845   3.250   1.275  12.683
78650SOL     OW37846   2.678   3.078   2.177
78650SOL    HW137847   2.699   3.171   2.165
78650SOL    HW237848   2.713   3.035   2.099
78651SOL     OW37849  12.998  12.988   7.205
78651SOL    HW137850  13.037  13.018   7.288
78651SOL    HW237851  13.073  12.968   7.150
78652SOL     OW37852  14.173  10.476   4.876
78652SOL    HW137853  14.156  10.408   4.811
78652SOL    HW237854  14.147  10.436   4.959
78653SOL     OW37855  10.669  10.538   4.417
78653SOL    HW137856  10.756  10.507   4.443
78653SOL    HW237857  10.611  10.464   4.432
78654SOL     OW37858   4.757   5.192   5.970
78654SOL    HW137859   4.811   5.130   6.019
78654SOL    HW237860   4.762   5.274   6.020
78655SOL     OW37861  12.518   9.866   7.512
78655SOL    HW137862  12.528   9.778   7.475
78655SOL    HW237863  12.601   9.884   7.555
78656SOL     OW37864   8.158   4.218  11.893
78656SOL    HW137865   8.160   4.142  11.951
78656SOL    HW237866   8.102   4.281  11.937
78657SOL     OW37867  12.470   2.219  14.398
78657SOL    HW137868  12.390   2.262  14.367
78657SOL    HW237869  12.540   2.280  14.373
78658SOL     OW37870   9.586   2.473  10.503
78658SOL    HW137871   9.658   2.424  10.542
78658SOL    HW237872   9.629   2.544  10.455
78659SOL     OW37873   8.308  11.342  10.940
78659SOL    HW137874   8.384  11.377  10.986
78659SOL    HW237875   8.249  11.312  11.009
78660SOL     OW37876   8.255   9.110   0.288
78660SOL    HW137877   8.174   9.096   0.240
78660SOL    HW237878   8.233   9.094   0.380
78661SOL     OW37879   3.625   8.092  13.308
78661SOL    HW137880   3.707   8.066  13.267
78661SOL    HW237881   3.563   8.102  13.236
78662SOL     OW37882   8.380  10.728   8.359
78662SOL    HW137883   8.353  10.797   8.299
78662SOL    HW237884   8.400  10.774   8.441
78663SOL     OW37885  13.646  13.998   3.568
78663SOL    HW137886  13.725  14.030   3.526
78663SOL    HW237887  13.651  13.902   3.559
78664SOL     OW37888  14.839   6.311  12.006
78664SOL    HW137889  14.832   6.244  12.075
78664SOL    HW237890  14.826   6.394  12.052
78665SOL     OW37891  12.106   0.094  12.380
78665SOL    HW137892  12.029   0.073  12.327
78665SOL    HW237893  12.113   0.189  12.376
78666SOL     OW37894   6.387  13.936   6.855
78666SOL    HW137895   6.418  13.884   6.929
78666SOL    HW237896   6.296  13.908   6.843
78667SOL     OW37897  12.250   3.443  10.831
78667SOL    HW137898  12.324   3.452  10.891
78667SOL    HW237899  12.181   3.403  10.884
78668SOL     OW37900  14.321   2.341   8.283
78668SOL    HW137901  14.306   2.255   8.322
78668SOL    HW237902  14.404   2.370   8.321
78669SOL     OW37903  14.183   4.824   6.116
78669SOL    HW137904  14.160   4.747   6.166
78669SOL    HW237905  14.274   4.810   6.089
78670SOL     OW37906   7.530   5.232  11.238
78670SOL    HW137907   7.619   5.197  11.232
78670SOL    HW237908   7.518   5.280  11.156
78671SOL     OW37909  11.337   1.131   8.067
78671SOL    HW137910  11.377   1.193   8.006
78671SOL    HW237911  11.404   1.064   8.080
78672SOL     OW37912   6.700   1.341  11.480
78672SOL    HW137913   6.739   1.398  11.546
78672SOL    HW237914   6.766   1.336  11.411
78673SOL     OW37915   9.524   2.116  13.771
78673SOL    HW137916   9.481   2.036  13.800
78673SOL    HW237917   9.617   2.098  13.781
78674SOL     OW37918   9.947   0.556  12.237
78674SOL    HW137919   9.986   0.479  12.278
78674SOL    HW237920   9.854   0.535  12.228
78675SOL     OW37921   5.867   6.220  14.746
78675SOL    HW137922   5.787   6.171  14.766
78675SOL    HW237923   5.842   6.312  14.758
78676SOL     OW37924  11.285   2.489   6.493
78676SOL    HW137925  11.320   2.574   6.467
78676SOL    HW237926  11.303   2.431   6.420
78677SOL     OW37927   8.523   9.453  14.151
78677SOL    HW137928   8.525   9.409  14.066
78677SOL    HW237929   8.614   9.470  14.172
78678SOL     OW37930   2.648   4.325   7.274
78678SOL    HW137931   2.626   4.394   7.337
78678SOL    HW237932   2.739   4.341   7.252
78679SOL     OW37933  10.009   0.051  10.223
78679SOL    HW137934  10.096   0.092  10.226
78679SOL    HW237935  10.025  14.844  10.188
78680SOL     OW37936   2.489   0.127   8.288
78680SOL    HW137937   2.466   0.094   8.375
78680SOL    HW237938   2.576   0.166   8.299
78681SOL     OW37939  11.156  13.452   4.655
78681SOL    HW137940  11.071  13.432   4.616
78681SOL    HW237941  11.217  13.453   4.582
78682SOL     OW37942   3.501   9.090  11.024
78682SOL    HW137943   3.453   9.169  10.997
78682SOL    HW237944   3.511   9.039  10.944
78683SOL     OW37945   5.924   1.244   9.298
78683SOL    HW137946   5.904   1.269   9.208
78683SOL    HW237947   6.017   1.264   9.308
78684SOL     OW37948   1.235  14.089   9.880
78684SOL    HW137949   1.291  14.167   9.891
78684SOL    HW237950   1.258  14.033   9.954
78685SOL     OW37951   3.836   3.985   2.830
78685SOL    HW137952   3.807   4.066   2.871
78685SOL    HW237953   3.863   4.011   2.741
78686SOL     OW37954   9.178   8.504  12.561
78686SOL    HW137955   9.254   8.560  12.574
78686SOL    HW237956   9.103   8.562  12.569
78687SOL     OW37957  14.075   5.081  13.706
78687SOL    HW137958  14.023   5.002  13.694
78687SOL    HW237959  14.125   5.066  13.786
78688SOL     OW37960  12.923   2.294   6.656
78688SOL    HW137961  12.992   2.311   6.719
78688SOL    HW237962  12.945   2.348   6.580
78689SOL     OW37963  13.792  12.562  14.676
78689SOL    HW137964  13.738  12.640  14.661
78689SOL    HW237965  13.870  12.576  14.622
78690SOL     OW37966   9.232   6.060  13.058
78690SOL    HW137967   9.298   6.003  13.021
78690SOL    HW237968   9.245   6.055  13.153
78691SOL     OW37969   9.711   8.858   9.598
78691SOL    HW137970   9.753   8.787   9.647
78691SOL    HW237971   9.714   8.933   9.657
78692SOL     OW37972   6.621   0.687  11.653
78692SOL    HW137973   6.603   0.773  11.692
78692SOL    HW237974   6.564   0.684  11.577
78693SOL     OW37975  12.806   9.151   4.694
78693SOL    HW137976  12.891   9.144   4.739
78693SOL    HW237977  12.748   9.192   4.757
78694SOL     OW37978  10.534   5.946  13.514
78694SOL    HW137979  10.619   5.970  13.477
78694SOL    HW237980  10.501   5.878  13.454
78695SOL     OW37981   9.059   2.374  12.985
78695SOL    HW137982   9.074   2.376  12.891
78695SOL    HW237983   9.003   2.450  13.002
78696SOL     OW37984  12.981  14.487   0.752
78696SOL    HW137985  12.954  14.395   0.755
78696SOL    HW237986  12.974  14.517   0.842
78697SOL     OW37987   6.645   3.049   5.490
78697SOL    HW137988   6.552   3.035   5.503
78697SOL    HW237989   6.678   2.964   5.461
78698SOL     OW37990   9.871   8.464   1.372
78698SOL    HW137991   9.926   8.432   1.443
78698SOL    HW237992   9.917   8.439   1.292
78699SOL     OW37993  12.652   7.486   2.278
78699SOL    HW137994  12.560   7.513   2.273
78699SOL    HW237995  12.702   7.566   2.265
78700SOL     OW37996   2.329   1.340   2.516
78700SOL    HW137997   2.366   1.419   2.477
78700SOL    HW237998   2.290   1.292   2.443
78701SOL     OW37999   7.882   0.494   6.008
78701SOL    HW138000   7.830   0.434   6.062
78701SOL    HW238001   7.956   0.440   5.978
78702SOL     OW38002  11.770  10.881   1.917
78702SOL    HW138003  11.757  10.801   1.967
78702SOL    HW238004  11.722  10.866   1.835
78703SOL     OW38005  11.111   7.958  13.722
78703SOL    HW138006  11.139   7.977  13.811
78703SOL    HW238007  11.190   7.971  13.669
78704SOL     OW38008  14.821  13.880   8.148
78704SOL    HW138009  14.735  13.921   8.152
78704SOL    HW238010  14.829  13.847   8.058
78705SOL     OW38011  10.965   6.279   1.131
78705SOL    HW138012  10.902   6.299   1.201
78705SOL    HW238013  11.040   6.336   1.150
78706SOL     OW38014   2.767   0.442  14.015
78706SOL    HW138015   2.823   0.516  13.991
78706SOL    HW238016   2.688   0.483  14.051
78707SOL     OW38017   3.371   3.079   5.312
78707SOL    HW138018   3.358   3.130   5.232
78707SOL    HW238019   3.451   3.029   5.297
78708SOL     OW38020   2.678   4.699   8.361
78708SOL    HW138021   2.617   4.751   8.307
78708SOL    HW238022   2.764   4.718   8.324
78709SOL     OW38023   0.576   0.060   5.289
78709SOL    HW138024   0.537   0.110   5.217
78709SOL    HW238025   0.669   0.057   5.269
78710SOL     OW38026   2.997   6.835   3.927
78710SOL    HW138027   2.998   6.740   3.942
78710SOL    HW238028   2.904   6.859   3.926
78711SOL     OW38029   9.568   4.547  13.801
78711SOL    HW138030   9.626   4.568  13.874
78711SOL    HW238031   9.605   4.595  13.726
78712SOL     OW38032  14.207   9.386  14.030
78712SOL    HW138033  14.181   9.299  14.061
78712SOL    HW238034  14.141   9.445  14.068
78713SOL     OW38035   3.326   5.033   3.826
78713SOL    HW138036   3.410   5.018   3.869
78713SOL    HW238037   3.332   5.123   3.793
78714SOL     OW38038  12.679   9.857   1.044
78714SOL    HW138039  12.599   9.809   1.065
78714SOL    HW238040  12.654   9.949   1.052
78715SOL     OW38041   5.905   2.485   5.055
78715SOL    HW138042   5.972   2.494   4.987
78715SOL    HW238043   5.905   2.569   5.100
78716SOL     OW38044   3.625   9.897   5.822
78716SOL    HW138045   3.718   9.904   5.802
78716SOL    HW238046   3.596   9.821   5.771
78717SOL     OW38047   9.232   7.163   4.911
78717SOL    HW138048   9.174   7.092   4.937
78717SOL    HW238049   9.187   7.243   4.939
78718SOL     OW38050   0.278   7.455   3.947
78718SOL    HW138051   0.351   7.415   3.899
78718SOL    HW238052   0.314   7.534   3.986
78719SOL     OW38053   4.806   9.253   2.223
78719SOL    HW138054   4.759   9.311   2.163
78719SOL    HW238055   4.750   9.248   2.300
78720SOL     OW38056   1.089   5.948  10.732
78720SOL    HW138057   1.032   5.876  10.759
78720SOL    HW238058   1.035   6.027  10.741
78721SOL     OW38059  11.295   6.062  10.565
78721SOL    HW138060  11.388   6.084  10.556
78721SOL    HW238061  11.293   5.967  10.569
78722SOL     OW38062  13.590  14.617   3.346
78722SOL    HW138063  13.553  14.542   3.393
78722SOL    HW238064  13.617  14.580   3.262
78723SOL     OW38065  12.434   2.519  11.390
78723SOL    HW138066  12.415   2.430  11.418
78723SOL    HW238067  12.528   2.520  11.373
78724SOL     OW38068   5.896  14.666   0.439
78724SOL    HW138069   5.828  14.679   0.373
78724SOL    HW238070   5.886  14.740   0.499
78725SOL     OW38071   1.335  14.752   7.033
78725SOL    HW138072   1.378  14.791   7.109
78725SOL    HW238073   1.371  14.800   6.958
78726SOL     OW38074  14.011  14.024   7.479
78726SOL    HW138075  14.007  13.935   7.444
78726SOL    HW238076  14.000  14.081   7.403
78727SOL     OW38077  12.347   4.434   6.288
78727SOL    HW138078  12.274   4.433   6.225
78727SOL    HW238079  12.396   4.513   6.266
78728SOL     OW38080   6.309  10.800   1.668
78728SOL    HW138081   6.221  10.786   1.701
78728SOL    HW238082   6.352  10.715   1.679
78729SOL     OW38083   0.708  14.186  14.122
78729SOL    HW138084   0.728  14.280  14.115
78729SOL    HW238085   0.655  14.179  14.201
78730SOL     OW38086   9.742  12.108   4.458
78730SOL    HW138087   9.654  12.131   4.428
78730SOL    HW238088   9.746  12.013   4.454
78731SOL     OW38089  10.381  11.919  12.005
78731SOL    HW138090  10.382  11.905  12.099
78731SOL    HW238091  10.307  11.977  11.990
78732SOL     OW38092  14.826   2.170  10.139
78732SOL    HW138093  14.746   2.222  10.133
78732SOL    HW238094   0.016   2.233  10.125
78733SOL     OW38095   2.630   5.396   1.802
78733SOL    HW138096   2.615   5.374   1.894
78733SOL    HW238097   2.718   5.361   1.783
78734SOL     OW38098   7.276  10.726   6.601
78734SOL    HW138099   7.357  10.687   6.568
78734SOL    HW238100   7.212  10.655   6.596
78735SOL     OW38101  14.697   0.106   5.313
78735SOL    HW138102  14.736   0.131   5.397
78735SOL    HW238103  14.612   0.068   5.335
78736SOL     OW38104   2.213   2.077  10.079
78736SOL    HW138105   2.266   1.997  10.081
78736SOL    HW238106   2.274   2.146  10.053
78737SOL     OW38107   7.334   5.611  12.485
78737SOL    HW138108   7.377   5.619  12.571
78737SOL    HW238109   7.316   5.702  12.459
78738SOL     OW38110   8.117   0.765   2.296
78738SOL    HW138111   8.032   0.722   2.286
78738SOL    HW238112   8.177   0.711   2.245
78739SOL     OW38113   4.854   4.237   6.389
78739SOL    HW138114   4.850   4.154   6.342
78739SOL    HW238115   4.763   4.260   6.405
78740SOL     OW38116  12.478  10.094   0.992
78740SOL    HW138117  12.394  10.098   1.038
78740SOL    HW238118  12.470  10.019   0.933
78741SOL     OW38119  14.531  11.765   4.937
78741SOL    HW138120  14.515  11.680   4.978
78741SOL    HW238121  14.524  11.828   5.010
78742SOL     OW38122   6.866   4.672   1.258
78742SOL    HW138123   6.916   4.591   1.248
78742SOL    HW238124   6.931   4.737   1.285
78743SOL     OW38125  14.581  12.888   1.793
78743SOL    HW138126  14.522  12.854   1.726
78743SOL    HW238127  14.572  12.828   1.867
78744SOL     OW38128   5.069   7.871   1.162
78744SOL    HW138129   5.057   7.953   1.210
78744SOL    HW238130   5.065   7.803   1.229
78745SOL     OW38131   9.539  10.963   6.153
78745SOL    HW138132   9.603  11.031   6.174
78745SOL    HW238133   9.465  10.980   6.210
78746SOL     OW38134  12.904   0.295   6.858
78746SOL    HW138135  12.926   0.316   6.948
78746SOL    HW238136  12.823   0.244   6.864
78747SOL     OW38137   9.334  12.132  12.875
78747SOL    HW138138   9.359  12.040  12.862
78747SOL    HW238139   9.240  12.129  12.889
78748SOL     OW38140  13.147   5.693   5.048
78748SOL    HW138141  13.144   5.643   4.966
78748SOL    HW238142  13.138   5.784   5.020
78749SOL     OW38143  10.647   8.350   3.320
78749SOL    HW138144  10.588   8.412   3.364
78749SOL    HW238145  10.685   8.298   3.392
78750SOL     OW38146   2.153   4.524   1.644
78750SOL    HW138147   2.191   4.511   1.558
78750SOL    HW238148   2.227   4.549   1.700
78751SOL     OW38149   3.037  11.304  10.037
78751SOL    HW138150   3.003  11.347  10.115
78751SOL    HW238151   3.053  11.375   9.975
78752SOL     OW38152  10.345  14.053   1.864
78752SOL    HW138153  10.387  14.015   1.941
78752SOL    HW238154  10.276  13.991   1.840
78753SOL     OW38155  13.859   9.332  13.918
78753SOL    HW138156  13.799   9.265  13.949
78753SOL    HW238157  13.900   9.293  13.840
78754SOL     OW38158   9.485  11.663   6.498
78754SOL    HW138159   9.416  11.646   6.562
78754SOL    HW238160   9.561  11.616   6.532
78755SOL     OW38161   1.165   6.795   1.310
78755SOL    HW138162   1.255   6.767   1.295
78755SOL    HW238163   1.111   6.726   1.272
78756SOL     OW38164  12.280   6.814   3.977
78756SOL    HW138165  12.279   6.822   4.072
78756SOL    HW238166  12.260   6.902   3.945
78757SOL     OW38167   3.495  12.705   2.689
78757SOL    HW138168   3.416  12.663   2.722
78757SOL    HW238169   3.563  12.682   2.753
78758SOL     OW38170   0.501   9.957   3.677
78758SOL    HW138171   0.583   9.916   3.706
78758SOL    HW238172   0.463   9.993   3.757
78759SOL     OW38173   7.409  14.205   4.618
78759SOL    HW138174   7.467  14.227   4.691
78759SOL    HW238175   7.424  14.275   4.554
78760SOL     OW38176  14.523   3.519   9.600
78760SOL    HW138177  14.555   3.600   9.560
78760SOL    HW238178  14.508   3.460   9.526
78761SOL     OW38179  11.616   2.087  10.002
78761SOL    HW138180  11.524   2.066   9.983
78761SOL    HW238181  11.663   2.006   9.984
78762SOL     OW38182  14.496   0.312   3.606
78762SOL    HW138183  14.529   0.318   3.696
78762SOL    HW238184  14.558   0.253   3.562
78763SOL     OW38185  14.699  14.540   4.593
78763SOL    HW138186  14.684  14.552   4.687
78763SOL    HW238187  14.752  14.615   4.567
78764SOL     OW38188   3.437  13.049   8.117
78764SOL    HW138189   3.446  13.127   8.171
78764SOL    HW238190   3.362  13.067   8.061
78765SOL     OW38191   5.707   1.897   3.781
78765SOL    HW138192   5.624   1.925   3.743
78765SOL    HW238193   5.753   1.855   3.708
78766SOL     OW38194   0.553   5.475   6.041
78766SOL    HW138195   0.473   5.501   5.996
78766SOL    HW238196   0.564   5.541   6.110
78767SOL     OW38197   4.559  11.062  13.769
78767SOL    HW138198   4.573  10.968  13.780
78767SOL    HW238199   4.521  11.070  13.681
78768SOL     OW38200   4.883  12.981  12.030
78768SOL    HW138201   4.965  12.934  12.014
78768SOL    HW238202   4.886  13.056  11.971
78769SOL     OW38203  11.615  11.645   2.877
78769SOL    HW138204  11.688  11.675   2.823
78769SOL    HW238205  11.654  11.621   2.961
78770SOL     OW38206   2.361   8.031   2.186
78770SOL    HW138207   2.316   8.085   2.121
78770SOL    HW238208   2.366   7.944   2.145
78771SOL     OW38209   2.488   2.747  12.475
78771SOL    HW138210   2.457   2.728  12.564
78771SOL    HW238211   2.516   2.839  12.479
78772SOL     OW38212  11.787   8.377   9.994
78772SOL    HW138213  11.787   8.380   9.898
78772SOL    HW238214  11.695   8.371  10.018
78773SOL     OW38215   7.981  13.910   3.253
78773SOL    HW138216   7.985  13.838   3.316
78773SOL    HW238217   7.888  13.925   3.239
78774SOL     OW38218   0.259   0.404   1.143
78774SOL    HW138219   0.170   0.440   1.152
78774SOL    HW238220   0.306   0.469   1.091
78775SOL     OW38221   6.050   8.875   5.454
78775SOL    HW138222   6.082   8.785   5.451
78775SOL    HW238223   5.964   8.871   5.412
78776SOL     OW38224  12.388  10.927   5.337
78776SOL    HW138225  12.462  10.947   5.279
78776SOL    HW238226  12.413  10.846   5.380
78777SOL     OW38227  10.017   1.091   0.884
78777SOL    HW138228  10.003   1.177   0.846
78777SOL    HW238229   9.939   1.041   0.861
78778SOL     OW38230   4.797   4.111  12.970
78778SOL    HW138231   4.759   4.195  12.945
78778SOL    HW238232   4.857   4.090  12.898
78779SOL     OW38233   6.456   5.839   1.528
78779SOL    HW138234   6.391   5.902   1.560
78779SOL    HW238235   6.419   5.807   1.446
78780SOL     OW38236   4.797   4.050   5.638
78780SOL    HW138237   4.860   4.119   5.656
78780SOL    HW238238   4.747   4.041   5.719
78781SOL     OW38239  14.691   3.450   9.819
78781SOL    HW138240  14.616   3.488   9.773
78781SOL    HW238241  14.744   3.525   9.845
78782SOL     OW38242  11.151   9.572   4.001
78782SOL    HW138243  11.071   9.530   3.970
78782SOL    HW238244  11.206   9.581   3.923
78783SOL     OW38245   3.236   2.255   3.085
78783SOL    HW138246   3.221   2.202   3.164
78783SOL    HW238247   3.324   2.291   3.097
78784SOL     OW38248  14.467  13.577   9.311
78784SOL    HW138249  14.420  13.585   9.227
78784SOL    HW238250  14.400  13.594   9.377
78785SOL     OW38251   6.990   8.145   4.143
78785SOL    HW138252   6.932   8.140   4.219
78785SOL    HW238253   7.060   8.082   4.162
78786SOL     OW38254   9.596   0.777   3.439
78786SOL    HW138255   9.621   0.760   3.530
78786SOL    HW238256   9.670   0.746   3.387
78787SOL     OW38257   9.298   5.799  10.336
78787SOL    HW138258   9.343   5.841  10.262
78787SOL    HW238259   9.260   5.720  10.299
78788SOL     OW38260   7.224   8.087   1.598
78788SOL    HW138261   7.310   8.057   1.569
78788SOL    HW238262   7.199   8.026   1.668
78789SOL     OW38263   8.722   9.451   9.101
78789SOL    HW138264   8.740   9.521   9.039
78789SOL    HW238265   8.699   9.376   9.047
78790SOL     OW38266   5.761   0.171   5.092
78790SOL    HW138267   5.676   0.131   5.111
78790SOL    HW238268   5.770   0.165   4.997
78791SOL     OW38269  12.589   5.452  11.864
78791SOL    HW138270  12.616   5.466  11.773
78791SOL    HW238271  12.622   5.365  11.886
78792SOL     OW38272  10.668  10.807   6.596
78792SOL    HW138273  10.583  10.808   6.553
78792SOL    HW238274  10.707  10.723   6.573
78793SOL     OW38275  11.558   6.153   2.115
78793SOL    HW138276  11.611   6.096   2.171
78793SOL    HW238277  11.622   6.200   2.061
78794SOL     OW38278   1.440   3.324   9.116
78794SOL    HW138279   1.477   3.369   9.191
78794SOL    HW238280   1.481   3.365   9.040
78795SOL     OW38281  10.930  13.556   3.909
78795SOL    HW138282  10.902  13.478   3.957
78795SOL    HW238283  10.980  13.522   3.835
78796SOL     OW38284   0.575   8.312   8.014
78796SOL    HW138285   0.648   8.312   7.953
78796SOL    HW238286   0.542   8.222   8.013
78797SOL     OW38287  14.762  14.650   0.587
78797SOL    HW138288  14.675  14.629   0.555
78797SOL    HW238289  14.803  14.700   0.517
78798SOL     OW38290  12.404   0.627   3.784
78798SOL    HW138291  12.422   0.681   3.861
78798SOL    HW238292  12.456   0.548   3.798
78799SOL     OW38293  14.277   3.715   9.501
78799SOL    HW138294  14.213   3.782   9.476
78799SOL    HW238295  14.333   3.758   9.566
78800SOL     OW38296   0.354   5.254   1.224
78800SOL    HW138297   0.441   5.295   1.225
78800SOL    HW238298   0.302   5.310   1.167
78801SOL     OW38299   8.073  10.033   1.980
78801SOL    HW138300   8.167  10.044   1.995
78801SOL    HW238301   8.035  10.118   2.003
78802SOL     OW38302  13.412   5.768   6.931
78802SOL    HW138303  13.441   5.839   6.873
78802SOL    HW238304  13.463   5.782   7.012
78803SOL     OW38305  13.837   9.742   2.965
78803SOL    HW138306  13.852   9.664   2.912
78803SOL    HW238307  13.901   9.806   2.932
78804SOL     OW38308   9.330  11.946  12.455
78804SOL    HW138309   9.351  11.979  12.367
78804SOL    HW238310   9.357  12.016  12.514
78805SOL     OW38311  12.910   5.259  13.317
78805SOL    HW138312  12.981   5.289  13.261
78805SOL    HW238313  12.834   5.310  13.290
78806SOL     OW38314   2.235   0.113   3.255
78806SOL    HW138315   2.326   0.085   3.256
78806SOL    HW238316   2.192   0.059   3.322
78807SOL     OW38317   7.304   9.721   8.339
78807SOL    HW138318   7.286   9.636   8.298
78807SOL    HW238319   7.395   9.714   8.368
78808SOL     OW38320   1.936  11.944   2.052
78808SOL    HW138321   1.855  11.912   2.091
78808SOL    HW238322   1.986  11.865   2.032
78809SOL     OW38323   8.454   9.665   2.831
78809SOL    HW138324   8.382   9.680   2.770
78809SOL    HW238325   8.470   9.571   2.826
78810SOL     OW38326  13.809  11.551  10.538
78810SOL    HW138327  13.756  11.623  10.571
78810SOL    HW238328  13.885  11.593  10.498
78811SOL     OW38329   2.466   9.509  13.966
78811SOL    HW138330   2.526   9.505  14.041
78811SOL    HW238331   2.519   9.479  13.892
78812SOL     OW38332   8.468   0.198   5.953
78812SOL    HW138333   8.379   0.233   5.942
78812SOL    HW238334   8.501   0.241   6.032
78813SOL     OW38335   0.622  13.938   1.292
78813SOL    HW138336   0.604  13.997   1.364
78813SOL    HW238337   0.685  13.986   1.237
78814SOL     OW38338  11.729   6.749  13.957
78814SOL    HW138339  11.691   6.826  13.915
78814SOL    HW238340  11.664   6.721  14.021
78815SOL     OW38341   5.168   1.919   4.775
78815SOL    HW138342   5.155   1.879   4.860
78815SOL    HW238343   5.260   1.948   4.775
78816SOL     OW38344  14.119   9.070  11.270
78816SOL    HW138345  14.181   9.000  11.289
78816SOL    HW238346  14.057   9.068  11.343
78817SOL     OW38347  12.064   8.623  10.912
78817SOL    HW138348  12.094   8.703  10.869
78817SOL    HW238349  12.142   8.569  10.920
78818SOL     OW38350   7.171  14.311  11.790
78818SOL    HW138351   7.112  14.242  11.820
78818SOL    HW238352   7.244  14.264  11.750
78819SOL     OW38353  12.062   0.944  11.449
78819SOL    HW138354  12.000   0.891  11.499
78819SOL    HW238355  12.148   0.913  11.479
78820SOL     OW38356   0.704   6.394   6.122
78820SOL    HW138357   0.635   6.419   6.061
78820SOL    HW238358   0.670   6.316   6.166
78821SOL     OW38359   1.307   3.027   3.692
78821SOL    HW138360   1.273   3.008   3.780
78821SOL    HW238361   1.229   3.049   3.641
78822SOL     OW38362  14.868   6.604  10.852
78822SOL    HW138363  14.783   6.643  10.831
78822SOL    HW238364  14.847   6.523  10.898
78823SOL     OW38365   7.219  13.315   9.072
78823SOL    HW138366   7.276  13.258   9.021
78823SOL    HW238367   7.271  13.340   9.149
78824SOL     OW38368  12.373   1.879  11.019
78824SOL    HW138369  12.352   1.951  11.079
78824SOL    HW238370  12.332   1.904  10.936
78825SOL     OW38371   7.426  10.045   1.097
78825SOL    HW138372   7.453  10.039   1.189
78825SOL    HW238373   7.407   9.954   1.072
78826SOL     OW38374   0.867   9.705  13.431
78826SOL    HW138375   0.909   9.666  13.355
78826SOL    HW238376   0.776   9.718  13.405
78827SOL     OW38377  10.621   6.349   5.829
78827SOL    HW138378  10.639   6.319   5.918
78827SOL    HW238379  10.695   6.406   5.808
78828SOL     OW38380  11.331   3.469  10.123
78828SOL    HW138381  11.394   3.493  10.192
78828SOL    HW238382  11.310   3.552  10.080
78829SOL     OW38383   5.148   1.510   3.207
78829SOL    HW138384   5.074   1.571   3.211
78829SOL    HW238385   5.140   1.469   3.120
78830SOL     OW38386  12.925   2.886   4.105
78830SOL    HW138387  12.851   2.916   4.052
78830SOL    HW238388  12.887   2.867   4.191
78831SOL     OW38389   8.320   1.676  12.149
78831SOL    HW138390   8.243   1.620  12.132
78831SOL    HW238391   8.283   1.761  12.170
78832SOL     OW38392  12.822  12.022   2.595
78832SOL    HW138393  12.785  12.007   2.508
78832SOL    HW238394  12.762  11.976   2.654
78833SOL     OW38395   5.977  13.402   8.921
78833SOL    HW138396   5.943  13.338   8.983
78833SOL    HW238397   5.914  13.474   8.924
78834SOL     OW38398   4.805   7.793  11.362
78834SOL    HW138399   4.732   7.796  11.300
78834SOL    HW238400   4.878   7.757  11.312
78835SOL     OW38401   9.562  11.735   6.946
78835SOL    HW138402   9.523  11.648   6.946
78835SOL    HW238403   9.488  11.795   6.952
78836SOL     OW38404   8.020  10.804   2.460
78836SOL    HW138405   7.957  10.841   2.521
78836SOL    HW238406   8.029  10.870   2.391
78837SOL     OW38407   7.294   5.543   8.986
78837SOL    HW138408   7.211   5.589   8.997
78837SOL    HW238409   7.304   5.492   9.066
78838SOL     OW38410   9.909   0.531   6.562
78838SOL    HW138411   9.876   0.570   6.481
78838SOL    HW238412   9.851   0.457   6.578
78839SOL     OW38413   1.630   8.534   0.437
78839SOL    HW138414   1.625   8.446   0.400
78839SOL    HW238415   1.719   8.541   0.471
78840SOL     OW38416   4.794  13.973   3.456
78840SOL    HW138417   4.749  14.053   3.428
78840SOL    HW238418   4.731  13.903   3.438
78841SOL     OW38419   5.765   7.396  14.207
78841SOL    HW138420   5.789   7.473  14.258
78841SOL    HW238421   5.677   7.373  14.237
78842SOL     OW38422  13.086   8.046   9.565
78842SOL    HW138423  13.146   7.983   9.525
78842SOL    HW238424  13.041   8.087   9.491
78843SOL     OW38425  11.468  12.531   8.385
78843SOL    HW138426  11.425  12.567   8.463
78843SOL    HW238427  11.399  12.481   8.341
78844SOL     OW38428  11.850  13.732   0.618
78844SOL    HW138429  11.788  13.765   0.553
78844SOL    HW238430  11.874  13.809   0.669
78845SOL     OW38431   0.499  14.015  14.629
78845SOL    HW138432   0.524  14.016  14.537
78845SOL    HW238433   0.580  13.996  14.676
78846SOL     OW38434  11.004  10.236   9.118
78846SOL    HW138435  11.097  10.217   9.107
78846SOL    HW238436  10.997  10.331   9.114
78847SOL     OW38437   2.767   6.309   3.870
78847SOL    HW138438   2.775   6.396   3.832
78847SOL    HW238439   2.733   6.325   3.958
78848SOL     OW38440  12.189   1.168   8.533
78848SOL    HW138441  12.159   1.246   8.579
78848SOL    HW238442  12.110   1.132   8.494
78849SOL     OW38443   2.884  13.042  13.188
78849SOL    HW138444   2.883  13.128  13.148
78849SOL    HW238445   2.880  12.981  13.114
78850SOL     OW38446   6.551   3.440   6.027
78850SOL    HW138447   6.533   3.493   6.104
78850SOL    HW238448   6.502   3.359   6.042
78851SOL     OW38449   7.623   6.046   0.837
78851SOL    HW138450   7.645   6.001   0.919
78851SOL    HW238451   7.705   6.087   0.810
78852SOL     OW38452  13.806  11.636   7.938
78852SOL    HW138453  13.819  11.617   7.845
78852SOL    HW238454  13.838  11.558   7.983
78853SOL     OW38455  14.236   9.469   9.402
78853SOL    HW138456  14.309   9.499   9.456
78853SOL    HW238457  14.262   9.488   9.312
78854SOL     OW38458   6.434  13.180   9.864
78854SOL    HW138459   6.527  13.188   9.842
78854SOL    HW238460   6.400  13.269   9.857
78855SOL     OW38461  13.475  11.986   5.075
78855SOL    HW138462  13.440  11.931   5.006
78855SOL    HW238463  13.416  12.062   5.078
78856SOL     OW38464   7.204  11.916  14.345
78856SOL    HW138465   7.120  11.950  14.375
78856SOL    HW238466   7.185  11.874  14.261
78857SOL     OW38467  10.815   0.474   5.631
78857SOL    HW138468  10.778   0.386   5.631
78857SOL    HW238469  10.738   0.532   5.637
78858SOL     OW38470  11.169  12.811   5.274
78858SOL    HW138471  11.252  12.828   5.229
78858SOL    HW238472  11.107  12.870   5.232
78859SOL     OW38473   8.094   9.787   9.389
78859SOL    HW138474   8.119   9.788   9.482
78859SOL    HW238475   8.157   9.844   9.346
78860SOL     OW38476   0.081   5.602  10.349
78860SOL    HW138477   0.154   5.541  10.359
78860SOL    HW238478   0.034   5.597  10.433
78861SOL     OW38479  12.618   2.896  10.483
78861SOL    HW138480  12.579   2.969  10.435
78861SOL    HW238481  12.650   2.935  10.564
78862SOL     OW38482   2.264   6.170   1.017
78862SOL    HW138483   2.281   6.228   0.942
78862SOL    HW238484   2.204   6.104   0.983
78863SOL     OW38485  14.396  10.461  13.889
78863SOL    HW138486  14.374  10.484  13.979
78863SOL    HW238487  14.333  10.393  13.865
78864SOL     OW38488   0.029   4.367  13.296
78864SOL    HW138489   0.072   4.349  13.213
78864SOL    HW238490  14.815   4.363  13.277
78865SOL     OW38491   5.183   6.296  11.414
78865SOL    HW138492   5.113   6.358  11.434
78865SOL    HW238493   5.175   6.282  11.319
78866SOL     OW38494   6.117  14.194   4.753
78866SOL    HW138495   6.058  14.242   4.811
78866SOL    HW238496   6.059  14.145   4.695
78867SOL     OW38497   3.507   5.391   2.520
78867SOL    HW138498   3.577   5.345   2.474
78867SOL    HW238499   3.534   5.483   2.519
78868SOL     OW38500   2.852  14.130   4.790
78868SOL    HW138501   2.767  14.175   4.794
78868SOL    HW238502   2.916  14.198   4.810
78869SOL     OW38503  13.863   4.650   0.244
78869SOL    HW138504  13.836   4.559   0.253
78869SOL    HW238505  13.931   4.649   0.177
78870SOL     OW38506  14.457   4.613   4.382
78870SOL    HW138507  14.379   4.593   4.434
78870SOL    HW238508  14.423   4.643   4.298
78871SOL     OW38509   8.121  12.276   0.423
78871SOL    HW138510   8.058  12.247   0.358
78871SOL    HW238511   8.158  12.195   0.459
78872SOL     OW38512  11.281  12.247   5.779
78872SOL    HW138513  11.214  12.284   5.721
78872SOL    HW238514  11.279  12.153   5.761
78873SOL     OW38515   5.154   7.209   5.263
78873SOL    HW138516   5.195   7.281   5.312
78873SOL    HW238517   5.161   7.133   5.321
78874SOL     OW38518  14.732   2.321  14.649
78874SOL    HW138519  14.763   2.355  14.565
78874SOL    HW238520  14.643   2.355  14.658
78875SOL     OW38521  10.189   4.662   9.842
78875SOL    HW138522  10.158   4.612   9.767
78875SOL    HW238523  10.148   4.621   9.918
78876SOL     OW38524   9.840   4.515   8.917
78876SOL    HW138525   9.925   4.539   8.953
78876SOL    HW238526   9.852   4.517   8.822
78877SOL     OW38527   3.480   9.465   3.897
78877SOL    HW138528   3.428   9.543   3.881
78877SOL    HW238529   3.435   9.395   3.850
78878SOL     OW38530   1.876  12.152   5.248
78878SOL    HW138531   1.815  12.194   5.310
78878SOL    HW238532   1.892  12.066   5.285
78879SOL     OW38533  14.869  12.691   8.243
78879SOL    HW138534   0.074  12.679   8.203
78879SOL    HW238535  14.826  12.759   8.191
78880SOL     OW38536   1.632   3.563  13.325
78880SOL    HW138537   1.627   3.528  13.236
78880SOL    HW238538   1.541   3.568  13.353
78881SOL     OW38539   5.850   2.830  10.597
78881SOL    HW138540   5.815   2.861  10.514
78881SOL    HW238541   5.945   2.827  10.584
78882SOL     OW38542   6.183   6.077   3.101
78882SOL    HW138543   6.248   6.007   3.098
78882SOL    HW238544   6.234   6.158   3.105
78883SOL     OW38545   7.536   4.679   0.513
78883SOL    HW138546   7.512   4.742   0.445
78883SOL    HW238547   7.455   4.630   0.530
78884SOL     OW38548   7.623  12.723   1.588
78884SOL    HW138549   7.592  12.685   1.505
78884SOL    HW238550   7.548  12.716   1.647
78885SOL     OW38551   1.802   7.703  13.875
78885SOL    HW138552   1.835   7.790  13.898
78885SOL    HW238553   1.726   7.690  13.933
78886SOL     OW38554  11.265   9.161   5.224
78886SOL    HW138555  11.340   9.168   5.283
78886SOL    HW238556  11.286   9.086   5.168
78887SOL     OW38557   1.082  13.461   3.789
78887SOL    HW138558   1.172  13.494   3.782
78887SOL    HW238559   1.034  13.508   3.721
78888SOL     OW38560   6.833  13.308  10.417
78888SOL    HW138561   6.908  13.275  10.367
78888SOL    HW238562   6.780  13.230  10.435
78889SOL     OW38563   5.585  12.143  13.204
78889SOL    HW138564   5.522  12.087  13.160
78889SOL    HW238565   5.600  12.101  13.289
78890SOL     OW38566   3.848   1.817  12.855
78890SOL    HW138567   3.823   1.756  12.785
78890SOL    HW238568   3.920   1.773  12.900
78891SOL     OW38569  11.911  13.985  11.505
78891SOL    HW138570  11.923  13.891  11.499
78891SOL    HW238571  11.954  14.020  11.427
78892SOL     OW38572   7.841   4.522   7.296
78892SOL    HW138573   7.888   4.586   7.349
78892SOL    HW238574   7.776   4.485   7.356
78893SOL     OW38575   0.937   1.020  12.577
78893SOL    HW138576   0.842   1.015  12.585
78893SOL    HW238577   0.964   1.080  12.646
78894SOL     OW38578  11.659   7.047   1.285
78894SOL    HW138579  11.697   7.025   1.200
78894SOL    HW238580  11.711   7.121   1.317
78895SOL     OW38581   9.918   5.611  14.039
78895SOL    HW138582   9.855   5.560  13.988
78895SOL    HW238583   9.963   5.666  13.974
78896SOL     OW38584  12.377  12.642   1.412
78896SOL    HW138585  12.380  12.654   1.507
78896SOL    HW238586  12.330  12.719   1.380
78897SOL     OW38587   6.032  12.489   2.711
78897SOL    HW138588   6.036  12.523   2.800
78897SOL    HW238589   5.957  12.430   2.711
78898SOL     OW38590   8.532   2.098  14.803
78898SOL    HW138591   8.500   2.108  14.713
78898SOL    HW238592   8.625   2.121  14.798
78899SOL     OW38593   8.416   4.497  10.983
78899SOL    HW138594   8.481   4.567  10.985
78899SOL    HW238595   8.333   4.541  10.997
78900SOL     OW38596   3.079  12.473   4.028
78900SOL    HW138597   3.003  12.416   4.014
78900SOL    HW238598   3.056  12.554   3.982
78901SOL     OW38599   2.565   7.933  13.495
78901SOL    HW138600   2.562   8.005  13.432
78901SOL    HW238601   2.494   7.875  13.467
78902SOL     OW38602  11.634  13.134   6.099
78902SOL    HW138603  11.648  13.091   6.183
78902SOL    HW238604  11.707  13.195   6.090
78903SOL     OW38605   4.315   9.574   3.224
78903SOL    HW138606   4.318   9.614   3.311
78903SOL    HW238607   4.314   9.480   3.240
78904SOL     OW38608   9.493   8.205   9.334
78904SOL    HW138609   9.563   8.229   9.273
78904SOL    HW238610   9.538   8.177   9.413
78905SOL     OW38611   9.477   7.620   3.392
78905SOL    HW138612   9.485   7.637   3.298
78905SOL    HW238613   9.528   7.540   3.406
78906SOL     OW38614  14.273  11.622   8.087
78906SOL    HW138615  14.200  11.670   8.048
78906SOL    HW238616  14.329  11.690   8.125
78907SOL     OW38617  12.934   3.792   1.582
78907SOL    HW138618  12.942   3.704   1.620
78907SOL    HW238619  12.842   3.815   1.594
78908SOL     OW38620   5.081  10.809  12.503
78908SOL    HW138621   5.130  10.767  12.573
78908SOL    HW238622   5.103  10.758  12.425
78909SOL     OW38623   0.179  11.318  14.409
78909SOL    HW138624   0.108  11.343  14.351
78909SOL    HW238625   0.243  11.275  14.351
78910SOL     OW38626   3.011   4.869   7.037
78910SOL    HW138627   3.083   4.866   7.101
78910SOL    HW238628   2.935   4.840   7.086
78911SOL     OW38629  10.130   4.556  13.258
78911SOL    HW138630  10.135   4.602  13.174
78911SOL    HW238631  10.195   4.487  13.251
78912SOL     OW38632  13.794   0.946   5.001
78912SOL    HW138633  13.762   0.893   4.928
78912SOL    HW238634  13.722   0.946   5.064
78913SOL     OW38635   4.636   8.710   3.319
78913SOL    HW138636   4.574   8.732   3.249
78913SOL    HW238637   4.619   8.618   3.338
78914SOL     OW38638   6.010  13.447  14.307
78914SOL    HW138639   5.922  13.426  14.276
78914SOL    HW238640   5.996  13.506  14.381
78915SOL     OW38641   0.971  11.180   3.540
78915SOL    HW138642   0.931  11.215   3.619
78915SOL    HW238643   0.965  11.085   3.551
78916SOL     OW38644   4.194   9.540   8.160
78916SOL    HW138645   4.276   9.511   8.120
78916SOL    HW238646   4.219   9.567   8.249
78917SOL     OW38647   1.731   5.648   6.906
78917SOL    HW138648   1.803   5.682   6.853
78917SOL    HW238649   1.655   5.699   6.878
78918SOL     OW38650   1.743  10.367   5.819
78918SOL    HW138651   1.832  10.399   5.836
78918SOL    HW238652   1.689  10.413   5.883
78919SOL     OW38653   8.060  14.122   2.353
78919SOL    HW138654   7.999  14.076   2.295
78919SOL    HW238655   8.012  14.133   2.435
78920SOL     OW38656   1.997  10.852  12.138
78920SOL    HW138657   1.950  10.913  12.195
78920SOL    HW238658   1.952  10.858  12.054
78921SOL     OW38659   6.337   4.253  12.505
78921SOL    HW138660   6.329   4.258  12.410
78921SOL    HW238661   6.359   4.162  12.523
78922SOL     OW38662  10.519   0.536   6.378
78922SOL    HW138663  10.531   0.566   6.288
78922SOL    HW238664  10.518   0.617   6.430
78923SOL     OW38665   0.934   2.765  12.004
78923SOL    HW138666   0.944   2.700  12.074
78923SOL    HW238667   0.874   2.830  12.041
78924SOL     OW38668   1.664  14.607   5.398
78924SOL    HW138669   1.721  14.540   5.435
78924SOL    HW238670   1.575  14.579   5.421
78925SOL     OW38671   2.447   6.132  12.974
78925SOL    HW138672   2.479   6.145  13.063
78925SOL    HW238673   2.355   6.159  12.978
78926SOL     OW38674   2.857   7.787   5.580
78926SOL    HW138675   2.765   7.766   5.565
78926SOL    HW238676   2.871   7.767   5.673
78927SOL     OW38677  14.234   9.518   8.865
78927SOL    HW138678  14.278   9.602   8.852
78927SOL    HW238679  14.226   9.482   8.777
78928SOL     OW38680   2.317   5.591   8.051
78928SOL    HW138681   2.324   5.497   8.032
78928SOL    HW238682   2.324   5.633   7.965
78929SOL     OW38683  12.569   3.007   9.181
78929SOL    HW138684  12.659   2.998   9.212
78929SOL    HW238685  12.515   3.002   9.259
78930SOL     OW38686   2.663  11.305   6.880
78930SOL    HW138687   2.661  11.249   6.957
78930SOL    HW238688   2.679  11.393   6.915
78931SOL     OW38689   5.393  14.389   3.925
78931SOL    HW138690   5.479  14.378   3.884
78931SOL    HW238691   5.364  14.476   3.897
78932SOL     OW38692  13.801  11.670   4.570
78932SOL    HW138693  13.762  11.583   4.568
78932SOL    HW238694  13.730  11.727   4.598
78933SOL     OW38695   6.741   7.118   4.684
78933SOL    HW138696   6.816   7.066   4.653
78933SOL    HW238697   6.683   7.123   4.608
78934SOL     OW38698   3.944   3.067   2.023
78934SOL    HW138699   3.950   2.990   2.078
78934SOL    HW238700   3.927   3.033   1.935
78935SOL     OW38701   3.673   6.367   5.023
78935SOL    HW138702   3.697   6.428   4.953
78935SOL    HW238703   3.756   6.340   5.062
78936SOL     OW38704  12.895   1.508  13.821
78936SOL    HW138705  12.848   1.425  13.818
78936SOL    HW238706  12.969   1.491  13.880
78937SOL     OW38707   6.292   6.561   9.901
78937SOL    HW138708   6.226   6.565   9.832
78937SOL    HW238709   6.277   6.639   9.954
78938SOL     OW38710   2.527  10.760   4.113
78938SOL    HW138711   2.518  10.796   4.025
78938SOL    HW238712   2.491  10.671   4.107
78939SOL     OW38713   5.128   0.013   7.980
78939SOL    HW138714   5.047  14.844   7.992
78939SOL    HW238715   5.180  14.841   7.919
78940SOL     OW38716   6.913  11.066   9.440
78940SOL    HW138717   6.829  11.020   9.432
78940SOL    HW238718   6.966  11.011   9.496
78941SOL     OW38719  11.655  14.792  14.363
78941SOL    HW138720  11.635  14.755  14.449
78941SOL    HW238721  11.696  14.876  14.382
78942SOL     OW38722   2.738   4.349   6.966
78942SOL    HW138723   2.769   4.399   7.041
78942SOL    HW238724   2.643   4.351   6.974
78943SOL     OW38725   3.014  10.028  13.877
78943SOL    HW138726   3.063   9.960  13.923
78943SOL    HW238727   2.995  10.094  13.945
78944SOL     OW38728   4.803   3.846  14.353
78944SOL    HW138729   4.815   3.933  14.390
78944SOL    HW238730   4.764   3.794  14.424
78945SOL     OW38731   5.877   1.412   5.235
78945SOL    HW138732   5.947   1.354   5.207
78945SOL    HW238733   5.814   1.355   5.280
78946SOL     OW38734   0.698   1.007   5.926
78946SOL    HW138735   0.693   0.942   5.856
78946SOL    HW238736   0.700   0.955   6.007
78947SOL     OW38737  11.090   0.308  12.093
78947SOL    HW138738  11.004   0.275  12.122
78947SOL    HW238739  11.103   0.388  12.144
78948SOL     OW38740  10.527   4.100   4.769
78948SOL    HW138741  10.445   4.095   4.817
78948SOL    HW238742  10.556   4.009   4.761
78949SOL     OW38743  13.885   5.881  12.946
78949SOL    HW138744  13.840   5.946  12.891
78949SOL    HW238745  13.878   5.915  13.035
78950SOL     OW38746  11.198  12.118   8.614
78950SOL    HW138747  11.290  12.093   8.623
78950SOL    HW238748  11.165  12.119   8.704
78951SOL     OW38749  13.040  10.433  11.480
78951SOL    HW138750  12.944  10.433  11.481
78951SOL    HW238751  13.064  10.523  11.457
78952SOL     OW38752   7.106   2.298   2.277
78952SOL    HW138753   7.157   2.237   2.224
78952SOL    HW238754   7.018   2.295   2.239
78953SOL     OW38755   6.875  12.014  11.663
78953SOL    HW138756   6.881  12.027  11.757
78953SOL    HW238757   6.846  11.924  11.653
78954SOL     OW38758   3.184   1.573   4.367
78954SOL    HW138759   3.099   1.615   4.352
78954SOL    HW238760   3.220   1.562   4.279
78955SOL     OW38761   2.387   3.779  11.116
78955SOL    HW138762   2.459   3.729  11.154
78955SOL    HW238763   2.313   3.719  11.117
78956SOL     OW38764  13.593   0.100   4.456
78956SOL    HW138765  13.608   0.180   4.407
78956SOL    HW238766  13.593   0.031   4.390
78957SOL     OW38767  11.182   9.088   0.595
78957SOL    HW138768  11.102   9.054   0.636
78957SOL    HW238769  11.166   9.080   0.501
78958SOL     OW38770  13.003  11.290  10.337
78958SOL    HW138771  13.087  11.289  10.383
78958SOL    HW238772  13.006  11.370  10.284
78959SOL     OW38773   6.690   3.027   0.012
78959SOL    HW138774   6.672   2.967   0.085
78959SOL    HW238775   6.610   3.079   0.004
78960SOL     OW38776  13.833   0.564   3.780
78960SOL    HW138777  13.765   0.589   3.842
78960SOL    HW238778  13.787   0.515   3.712
78961SOL     OW38779  12.818   8.747   9.004
78961SOL    HW138780  12.868   8.672   8.971
78961SOL    HW238781  12.861   8.770   9.086
78962SOL     OW38782  13.906   9.266   3.373
78962SOL    HW138783  13.847   9.229   3.438
78962SOL    HW238784  13.856   9.266   3.291
78963SOL     OW38785   4.486   6.286   2.202
78963SOL    HW138786   4.551   6.320   2.263
78963SOL    HW238787   4.478   6.353   2.134
78964SOL     OW38788   7.866   1.282  14.265
78964SOL    HW138789   7.869   1.188  14.286
78964SOL    HW238790   7.796   1.317  14.321
78965SOL     OW38791   1.940   7.862   0.905
78965SOL    HW138792   1.992   7.936   0.874
78965SOL    HW238793   2.004   7.795   0.928
78966SOL     OW38794   0.035  11.174   5.631
78966SOL    HW138795   0.028  11.268   5.620
78966SOL    HW238796  14.830  11.147   5.664
78967SOL     OW38797  10.080   4.147   6.182
78967SOL    HW138798  10.161   4.127   6.136
78967SOL    HW238799  10.103   4.215   6.245
78968SOL     OW38800  14.085   0.639   7.416
78968SOL    HW138801  14.155   0.632   7.481
78968SOL    HW238802  14.005   0.645   7.467
78969SOL     OW38803   3.634   6.211  13.627
78969SOL    HW138804   3.619   6.279  13.561
78969SOL    HW238805   3.725   6.186  13.615
78970SOL     OW38806   6.224   1.650   8.928
78970SOL    HW138807   6.193   1.579   8.985
78970SOL    HW238808   6.307   1.677   8.966
78971SOL     OW38809   6.888  10.589   0.351
78971SOL    HW138810   6.888  10.494   0.364
78971SOL    HW238811   6.970  10.619   0.391
78972SOL     OW38812   3.453   2.169  14.734
78972SOL    HW138813   3.526   2.229  14.751
78972SOL    HW238814   3.376   2.215  14.766
78973SOL     OW38815   6.282  11.837   4.829
78973SOL    HW138816   6.280  11.904   4.898
78973SOL    HW238817   6.239  11.878   4.754
78974SOL     OW38818   3.783  11.285   7.239
78974SOL    HW138819   3.689  11.265   7.232
78974SOL    HW238820   3.794  11.317   7.328
78975SOL     OW38821  14.135  13.898  14.710
78975SOL    HW138822  14.140  13.993  14.719
78975SOL    HW238823  14.135  13.883  14.615
78976SOL     OW38824  10.538   1.684   3.947
78976SOL    HW138825  10.443   1.677   3.947
78976SOL    HW238826  10.556   1.768   3.989
78977SOL     OW38827   5.166   7.230  13.379
78977SOL    HW138828   5.241   7.175  13.360
78977SOL    HW238829   5.132   7.196  13.462
78978SOL     OW38830  13.602   7.304   5.885
78978SOL    HW138831  13.600   7.220   5.930
78978SOL    HW238832  13.690   7.308   5.847
78979SOL     OW38833  14.310  10.616   6.902
78979SOL    HW138834  14.310  10.556   6.827
78979SOL    HW238835  14.342  10.699   6.866
78980SOL     OW38836   8.708   1.132  14.193
78980SOL    HW138837   8.769   1.059  14.185
78980SOL    HW238838   8.693   1.139  14.288
78981SOL     OW38839  12.877  10.761   0.932
78981SOL    HW138840  12.834  10.778   1.015
78981SOL    HW238841  12.962  10.804   0.939
78982SOL     OW38842  13.138   2.568   6.701
78982SOL    HW138843  13.118   2.617   6.621
78982SOL    HW238844  13.062   2.583   6.757
78983SOL     OW38845   7.257  10.292   7.663
78983SOL    HW138846   7.284  10.273   7.573
78983SOL    HW238847   7.217  10.211   7.694
78984SOL     OW38848  12.979  10.322  12.456
78984SOL    HW138849  12.886  10.344  12.463
78984SOL    HW238850  12.983  10.229  12.478
78985SOL     OW38851  10.067   3.723   8.392
78985SOL    HW138852  10.149   3.686   8.360
78985SOL    HW238853  10.085   3.749   8.482
78986SOL     OW38854   3.515  14.025   6.611
78986SOL    HW138855   3.599  13.993   6.577
78986SOL    HW238856   3.517  14.119   6.595
78987SOL     OW38857  14.819   0.919  10.681
78987SOL    HW138858  14.816   0.953  10.592
78987SOL    HW238859   0.000   0.847  10.678
78988SOL     OW38860   4.283  14.042  12.441
78988SOL    HW138861   4.243  13.969  12.488
78988SOL    HW238862   4.268  14.022  12.349
78989SOL     OW38863  10.400  11.209   5.059
78989SOL    HW138864  10.403  11.161   4.976
78989SOL    HW238865  10.329  11.169   5.108
78990SOL     OW38866  12.996  10.512   9.574
78990SOL    HW138867  12.901  10.519   9.562
78990SOL    HW238868  13.033  10.538   9.490
78991SOL     OW38869   0.856   0.257  11.525
78991SOL    HW138870   0.926   0.272  11.461
78991SOL    HW238871   0.874   0.321  11.594
78992SOL     OW38872   4.380   8.921   6.201
78992SOL    HW138873   4.296   8.912   6.245
78992SOL    HW238874   4.445   8.922   6.271
78993SOL     OW38875   8.867   7.051   4.008
78993SOL    HW138876   8.784   7.097   4.013
78993SOL    HW238877   8.915   7.097   3.939
78994SOL     OW38878   3.328   7.340  11.553
78994SOL    HW138879   3.316   7.417  11.609
78994SOL    HW238880   3.409   7.358  11.505
78995SOL     OW38881   9.569   3.959  14.632
78995SOL    HW138882   9.483   3.919  14.633
78995SOL    HW238883   9.582   3.991  14.722
78996SOL     OW38884   2.360   3.184   1.327
78996SOL    HW138885   2.324   3.110   1.278
78996SOL    HW238886   2.302   3.258   1.306
78997SOL     OW38887   4.827  10.084   0.354
78997SOL    HW138888   4.768  10.115   0.285
78997SOL    HW238889   4.855  10.164   0.398
78998SOL     OW38890   2.348   3.687   4.145
78998SOL    HW138891   2.335   3.671   4.239
78998SOL    HW238892   2.437   3.655   4.128
78999SOL     OW38893   3.770   9.421   3.912
78999SOL    HW138894   3.805   9.425   4.001
78999SOL    HW238895   3.677   9.443   3.922
79000SOL     OW38896  14.503   5.023   0.311
79000SOL    HW138897  14.514   4.960   0.240
79000SOL    HW238898  14.574   5.086   0.298
79001SOL     OW38899  11.357   0.844   3.432
79001SOL    HW138900  11.406   0.925   3.417
79001SOL    HW238901  11.322   0.820   3.346
79002SOL     OW38902   4.189  11.664   0.724
79002SOL    HW138903   4.112  11.697   0.679
79002SOL    HW238904   4.160  11.652   0.815
79003SOL     OW38905   2.408   2.218  14.467
79003SOL    HW138906   2.466   2.145  14.488
79003SOL    HW238907   2.364   2.192  14.386
79004SOL     OW38908   0.063  14.749  13.677
79004SOL    HW138909   0.092  14.823  13.624
79004SOL    HW238910   0.135  14.686  13.671
79005SOL     OW38911   1.216  10.073   9.373
79005SOL    HW138912   1.122  10.064   9.386
79005SOL    HW238913   1.234  10.025   9.292
79006SOL     OW38914   6.624   5.167   8.149
79006SOL    HW138915   6.608   5.261   8.134
79006SOL    HW238916   6.644   5.161   8.243
79007SOL     OW38917   9.344   5.021   1.949
79007SOL    HW138918   9.300   5.061   2.023
79007SOL    HW238919   9.318   4.929   1.952
79008SOL     OW38920   8.525  13.913   5.338
79008SOL    HW138921   8.437  13.928   5.373
79008SOL    HW238922   8.584  13.951   5.403
79009SOL     OW38923   2.164  10.797  13.126
79009SOL    HW138924   2.254  10.767  13.118
79009SOL    HW238925   2.138  10.819  13.037
79010SOL     OW38926  14.807   6.331   9.244
79010SOL    HW138927  14.790   6.238   9.234
79010SOL    HW238928   0.014   6.336   9.283
79011SOL     OW38929   7.144   7.907  12.169
79011SOL    HW138930   7.104   7.821  12.179
79011SOL    HW238931   7.076   7.961  12.127
79012SOL     OW38932   6.658  11.324   4.754
79012SOL    HW138933   6.698  11.380   4.821
79012SOL    HW238934   6.717  11.249   4.746
79013SOL     OW38935   3.263  10.071   3.001
79013SOL    HW138936   3.338  10.013   3.013
79013SOL    HW238937   3.283  10.121   2.922
79014SOL     OW38938  13.449   3.514  13.221
79014SOL    HW138939  13.456   3.585  13.157
79014SOL    HW238940  13.497   3.546  13.297
79015SOL     OW38941   2.283   9.521  11.323
79015SOL    HW138942   2.286   9.439  11.273
79015SOL    HW238943   2.285   9.590  11.257
79016SOL     OW38944  12.500   7.962   2.916
79016SOL    HW138945  12.429   7.898   2.916
79016SOL    HW238946  12.463   8.039   2.959
79017SOL     OW38947  12.748   0.280   2.363
79017SOL    HW138948  12.735   0.372   2.386
79017SOL    HW238949  12.735   0.277   2.268
79018SOL     OW38950   4.398   9.531   1.241
79018SOL    HW138951   4.305   9.532   1.263
79018SOL    HW238952   4.433   9.612   1.276
79019SOL     OW38953   6.986  10.095   9.758
79019SOL    HW138954   6.907  10.041   9.755
79019SOL    HW238955   6.954  10.184   9.746
79020SOL     OW38956  10.171   5.679  14.626
79020SOL    HW138957  10.128   5.632  14.697
79020SOL    HW238958  10.101   5.699  14.564
79021SOL     OW38959   3.265   8.829   5.197
79021SOL    HW138960   3.198   8.836   5.129
79021SOL    HW238961   3.308   8.745   5.180
79022SOL     OW38962   2.761   8.683  13.737
79022SOL    HW138963   2.841   8.632  13.753
79022SOL    HW238964   2.697   8.648  13.800
79023SOL     OW38965   3.434   6.591   9.062
79023SOL    HW138966   3.404   6.680   9.045
79023SOL    HW238967   3.438   6.584   9.157
79024SOL     OW38968  12.504   8.243   7.184
79024SOL    HW138969  12.424   8.191   7.178
79024SOL    HW238970  12.566   8.186   7.230
79025SOL     OW38971   4.369   2.792  13.999
79025SOL    HW138972   4.339   2.882  14.011
79025SOL    HW238973   4.348   2.748  14.081
79026SOL     OW38974   2.659   9.161  11.582
79026SOL    HW138975   2.603   9.237  11.569
79026SOL    HW238976   2.598   9.089  11.599
79027SOL     OW38977   4.991   1.444  13.933
79027SOL    HW138978   4.929   1.371  13.921
79027SOL    HW238979   4.940   1.522  13.908
79028SOL     OW38980   9.269  12.882   0.695
79028SOL    HW138981   9.224  12.938   0.632
79028SOL    HW238982   9.208  12.875   0.769
79029SOL     OW38983  10.571   1.793   2.236
79029SOL    HW138984  10.656   1.814   2.274
79029SOL    HW238985  10.590   1.769   2.145
79030SOL     OW38986   8.206   0.372  14.493
79030SOL    HW138987   8.192   0.282  14.523
79030SOL    HW238988   8.128   0.392  14.442
79031SOL     OW38989   5.892   4.634  11.296
79031SOL    HW138990   5.803   4.661  11.320
79031SOL    HW238991   5.922   4.583  11.371
79032SOL     OW38992   5.683   0.513   7.046
79032SOL    HW138993   5.738   0.441   7.016
79032SOL    HW238994   5.739   0.590   7.043
79033SOL     OW38995   3.968   3.017   1.522
79033SOL    HW138996   3.973   3.094   1.579
79033SOL    HW238997   3.888   3.031   1.471
79034SOL     OW38998  10.001   5.974   7.609
79034SOL    HW138999  10.068   6.033   7.645
79034SOL    HW239000   9.958   5.936   7.686
79035SOL     OW39001   5.136  11.260   8.448
79035SOL    HW139002   5.056  11.309   8.431
79035SOL    HW239003   5.111  11.168   8.435
79036SOL     OW39004   3.602   9.632   4.863
79036SOL    HW139005   3.535   9.657   4.925
79036SOL    HW239006   3.584   9.540   4.844
79037SOL     OW39007  10.595  13.915   7.706
79037SOL    HW139008  10.542  13.917   7.626
79037SOL    HW239009  10.588  13.824   7.737
79038SOL     OW39010   8.004   9.283  14.783
79038SOL    HW139011   7.988   9.377  14.772
79038SOL    HW239012   7.918   9.243  14.768
79039SOL     OW39013   9.017  12.136  10.844
79039SOL    HW139014   9.004  12.165  10.934
79039SOL    HW239015   9.108  12.108  10.841
79040SOL     OW39016   5.731   1.057   8.600
79040SOL    HW139017   5.733   1.102   8.516
79040SOL    HW239018   5.823   1.045   8.623
79041SOL     OW39019   7.953   7.201   4.916
79041SOL    HW139020   8.027   7.153   4.880
79041SOL    HW239021   7.889   7.204   4.844
79042SOL     OW39022   0.865  12.795   8.589
79042SOL    HW139023   0.836  12.880   8.622
79042SOL    HW239024   0.787  12.759   8.547
79043SOL     OW39025  11.212   6.743  11.569
79043SOL    HW139026  11.233   6.836  11.569
79043SOL    HW239027  11.293   6.699  11.544
79044SOL     OW39028  14.074   2.978   7.927
79044SOL    HW139029  14.042   2.897   7.967
79044SOL    HW239030  14.149   3.003   7.981
79045SOL     OW39031  12.840   9.954   4.203
79045SOL    HW139032  12.799   9.975   4.287
79045SOL    HW239033  12.934   9.951   4.223
79046SOL     OW39034  12.523  11.176   4.418
79046SOL    HW139035  12.446  11.233   4.410
79046SOL    HW239036  12.594  11.236   4.441
79047SOL     OW39037   1.785   6.966  14.811
79047SOL    HW139038   1.699   6.932  14.786
79047SOL    HW239039   1.847   6.899  14.780
79048SOL     OW39040   6.898   8.040   8.316
79048SOL    HW139041   6.913   8.026   8.410
79048SOL    HW239042   6.838   7.970   8.291
79049SOL     OW39043   5.064  10.840   9.671
79049SOL    HW139044   5.111  10.917   9.641
79049SOL    HW239045   5.074  10.841   9.766
79050SOL     OW39046   9.653  11.677   8.288
79050SOL    HW139047   9.694  11.615   8.350
79050SOL    HW239048   9.721  11.742   8.272
79051SOL     OW39049   6.211  11.686   5.569
79051SOL    HW139050   6.229  11.594   5.552
79051SOL    HW239051   6.125  11.686   5.612
79052SOL     OW39052  14.607  12.834  11.257
79052SOL    HW139053  14.686  12.779  11.258
79052SOL    HW239054  14.554  12.800  11.329
79053SOL     OW39055   3.156   9.825   9.197
79053SOL    HW139056   3.159   9.734   9.165
79053SOL    HW239057   3.154   9.878   9.117
79054SOL     OW39058   5.304  14.777   2.727
79054SOL    HW139059   5.245  14.788   2.652
79054SOL    HW239060   5.335  14.687   2.721
79055SOL     OW39061  14.372   2.065   8.401
79055SOL    HW139062  14.427   1.986   8.403
79055SOL    HW239063  14.396   2.112   8.481
79056SOL     OW39064  10.338  13.684  11.223
79056SOL    HW139065  10.382  13.731  11.295
79056SOL    HW239066  10.276  13.748  11.188
79057SOL     OW39067   3.267   3.696   2.554
79057SOL    HW139068   3.357   3.721   2.530
79057SOL    HW239069   3.269   3.601   2.557
79058SOL     OW39070   7.671  12.734   8.227
79058SOL    HW139071   7.596  12.675   8.219
79058SOL    HW239072   7.665  12.769   8.316
79059SOL     OW39073  13.289  10.354  10.440
79059SOL    HW139074  13.256  10.444  10.440
79059SOL    HW239075  13.314  10.338  10.531
79060SOL     OW39076   2.058  12.370   9.337
79060SOL    HW139077   2.101  12.441   9.384
79060SOL    HW239078   1.968  12.400   9.324
79061SOL     OW39079  14.622  12.674   7.785
79061SOL    HW139080  14.615  12.736   7.712
79061SOL    HW239081  14.532  12.659   7.813
79062SOL     OW39082  12.769  13.976  12.301
79062SOL    HW139083  12.748  13.974  12.208
79062SOL    HW239084  12.772  14.070  12.323
79063SOL     OW39085   0.393  13.067  10.619
79063SOL    HW139086   0.436  13.031  10.696
79063SOL    HW239087   0.380  13.159  10.640
79064SOL     OW39088  10.423   1.429   9.686
79064SOL    HW139089  10.377   1.454   9.606
79064SOL    HW239090  10.489   1.366   9.657
79065SOL     OW39091   8.323   5.561  14.355
79065SOL    HW139092   8.290   5.609  14.430
79065SOL    HW239093   8.384   5.497  14.392
79066SOL     OW39094  10.933   3.631  12.673
79066SOL    HW139095  10.902   3.716  12.704
79066SOL    HW239096  10.858   3.573  12.681
79067SOL     OW39097   8.775   4.055   3.220
79067SOL    HW139098   8.763   3.965   3.249
79067SOL    HW239099   8.740   4.108   3.291
79068SOL     OW39100   8.361   2.299   6.969
79068SOL    HW139101   8.411   2.232   7.017
79068SOL    HW239102   8.412   2.313   6.889
79069SOL     OW39103   1.285   3.920  11.109
79069SOL    HW139104   1.251   3.844  11.156
79069SOL    HW239105   1.335   3.883  11.037
79070SOL     OW39106   4.795   8.947   8.535
79070SOL    HW139107   4.716   8.991   8.566
79070SOL    HW239108   4.773   8.917   8.447
79071SOL     OW39109   9.346  14.454  14.635
79071SOL    HW139110   9.344  14.455  14.539
79071SOL    HW239111   9.257  14.431  14.661
79072SOL     OW39112  12.721   0.921   1.135
79072SOL    HW139113  12.684   1.005   1.110
79072SOL    HW239114  12.751   0.882   1.052
79073SOL     OW39115   7.116   3.135   8.436
79073SOL    HW139116   7.050   3.124   8.505
79073SOL    HW239117   7.066   3.133   8.354
79074SOL     OW39118   2.577   3.126   4.704
79074SOL    HW139119   2.492   3.121   4.659
79074SOL    HW239120   2.640   3.093   4.639
79075SOL     OW39121   4.479  10.433   5.330
79075SOL    HW139122   4.406  10.489   5.354
79075SOL    HW239123   4.518  10.475   5.253
79076SOL     OW39124   2.091   9.494  12.632
79076SOL    HW139125   2.101   9.535  12.718
79076SOL    HW239126   2.045   9.411  12.650
79077SOL     OW39127   4.931   0.958   6.961
79077SOL    HW139128   4.870   0.946   7.033
79077SOL    HW239129   5.017   0.962   7.003
79078SOL     OW39130   5.504   7.778  12.752
79078SOL    HW139131   5.561   7.789  12.676
79078SOL    HW239132   5.514   7.686  12.775
79079SOL     OW39133   7.796  13.475   1.864
79079SOL    HW139134   7.746  13.458   1.943
79079SOL    HW239135   7.753  13.551   1.824
79080SOL     OW39136   0.573   4.776   4.928
79080SOL    HW139137   0.520   4.711   4.882
79080SOL    HW239138   0.533   4.860   4.907
79081SOL     OW39139  13.740  14.647   7.248
79081SOL    HW139140  13.661  14.702   7.248
79081SOL    HW239141  13.759  14.633   7.155
79082SOL     OW39142  10.960   9.366   6.602
79082SOL    HW139143  11.032   9.309   6.627
79082SOL    HW239144  10.955   9.358   6.507
79083SOL     OW39145   0.813   9.565   8.813
79083SOL    HW139146   0.780   9.647   8.776
79083SOL    HW239147   0.751   9.543   8.883
79084SOL     OW39148  14.238  11.609   3.738
79084SOL    HW139149  14.231  11.547   3.811
79084SOL    HW239150  14.149  11.642   3.727
79085SOL     OW39151  10.881   6.945   9.059
79085SOL    HW139152  10.786   6.958   9.054
79085SOL    HW239153  10.900   6.948   9.153
79086SOL     OW39154  12.928   8.856   1.554
79086SOL    HW139155  13.000   8.808   1.514
79086SOL    HW239156  12.961   8.882   1.640
79087SOL     OW39157  10.925   3.483   0.351
79087SOL    HW139158  10.872   3.557   0.320
79087SOL    HW239159  10.863   3.430   0.402
79088SOL     OW39160   0.511   8.199   1.888
79088SOL    HW139161   0.482   8.210   1.797
79088SOL    HW239162   0.437   8.228   1.940
79089SOL     OW39163   6.129   3.263   7.391
79089SOL    HW139164   6.106   3.333   7.331
79089SOL    HW239165   6.077   3.188   7.362
79090SOL     OW39166  14.086  12.831   9.991
79090SOL    HW139167  14.142  12.764  10.029
79090SOL    HW239168  14.025  12.855  10.061
79091SOL     OW39169   5.027   7.111   7.363
79091SOL    HW139170   4.999   7.175   7.298
79091SOL    HW239171   5.020   7.026   7.318
79092SOL     OW39172   0.868   0.036  10.400
79092SOL    HW139173   0.902  14.829  10.381
79092SOL    HW239174   0.845   0.033  10.493
79093SOL     OW39175   7.968   9.638   4.317
79093SOL    HW139176   8.042   9.687   4.279
79093SOL    HW239177   7.910   9.622   4.242
79094SOL     OW39178   9.550   3.031   2.807
79094SOL    HW139179   9.518   2.951   2.766
79094SOL    HW239180   9.472   3.083   2.825
79095SOL     OW39181  12.869  11.029   9.144
79095SOL    HW139182  12.833  10.952   9.099
79095SOL    HW239183  12.834  11.104   9.096
79096SOL     OW39184   2.437   3.301   3.718
79096SOL    HW139185   2.421   3.207   3.719
79096SOL    HW239186   2.384   3.333   3.644
79097SOL     OW39187   0.896   6.302   3.306
79097SOL    HW139188   0.823   6.258   3.262
79097SOL    HW239189   0.911   6.381   3.254
79098SOL     OW39190   8.142   6.803   3.743
79098SOL    HW139191   8.048   6.819   3.749
79098SOL    HW239192   8.160   6.740   3.812
79099SOL     OW39193   3.330  10.289   8.380
79099SOL    HW139194   3.341  10.278   8.285
79099SOL    HW239195   3.272  10.217   8.406
79100SOL     OW39196   7.021  12.259   3.616
79100SOL    HW139197   6.942  12.253   3.563
79100SOL    HW239198   7.067  12.177   3.600
79101SOL     OW39199   2.146   1.602   0.741
79101SOL    HW139200   2.205   1.585   0.814
79101SOL    HW239201   2.083   1.666   0.776
79102SOL     OW39202   1.508   8.149  11.370
79102SOL    HW139203   1.542   8.117  11.453
79102SOL    HW239204   1.423   8.187  11.392
79103SOL     OW39205   8.559   4.355  13.667
79103SOL    HW139206   8.486   4.319  13.617
79103SOL    HW239207   8.518   4.414  13.731
79104SOL     OW39208   1.197   4.181   6.871
79104SOL    HW139209   1.226   4.223   6.952
79104SOL    HW239210   1.194   4.252   6.807
79105SOL     OW39211   8.151  12.158   8.886
79105SOL    HW139212   8.163  12.251   8.868
79105SOL    HW239213   8.174  12.147   8.978
79106SOL     OW39214  11.570  14.169   2.558
79106SOL    HW139215  11.500  14.118   2.516
79106SOL    HW239216  11.526  14.248   2.591
79107SOL     OW39217   6.433   2.733   0.643
79107SOL    HW139218   6.357   2.746   0.700
79107SOL    HW239219   6.504   2.707   0.702
79108SOL     OW39220   3.783  14.841   4.030
79108SOL    HW139221   3.716   0.013   3.986
79108SOL    HW239222   3.738  14.803   4.106
79109SOL     OW39223   8.454   9.745  12.904
79109SOL    HW139224   8.415   9.771  12.988
79109SOL    HW239225   8.541   9.714  12.927
79110SOL     OW39226   2.727   0.431   3.834
79110SOL    HW139227   2.704   0.363   3.897
79110SOL    HW239228   2.747   0.508   3.888
79111SOL     OW39229  12.119   8.654   2.937
79111SOL    HW139230  12.054   8.679   3.003
79111SOL    HW239231  12.201   8.647   2.985
79112SOL     OW39232  11.677   1.211   0.939
79112SOL    HW139233  11.761   1.250   0.916
79112SOL    HW239234  11.633   1.278   0.992
79113SOL     OW39235   8.039   9.865   6.674
79113SOL    HW139236   8.071   9.795   6.617
79113SOL    HW239237   7.944   9.865   6.661
79114SOL     OW39238  11.594   2.470   5.651
79114SOL    HW139239  11.642   2.395   5.688
79114SOL    HW239240  11.603   2.539   5.716
79115SOL     OW39241   8.335   4.031   2.285
79115SOL    HW139242   8.278   3.956   2.303
79115SOL    HW239243   8.302   4.101   2.342
79116SOL     OW39244  14.438   2.418   2.765
79116SOL    HW139245  14.367   2.359   2.791
79116SOL    HW239246  14.516   2.362   2.764
79117SOL     OW39247   0.710   9.341  13.728
79117SOL    HW139248   0.797   9.373  13.706
79117SOL    HW239249   0.669   9.414  13.776
79118SOL     OW39250   1.958   5.464   8.105
79118SOL    HW139251   2.023   5.479   8.175
79118SOL    HW239252   2.011   5.451   8.026
79119SOL     OW39253   7.045  10.139  14.275
79119SOL    HW139254   7.044  10.062  14.332
79119SOL    HW239255   7.083  10.107  14.193
79120SOL     OW39256  12.905  14.285  11.619
79120SOL    HW139257  12.822  14.324  11.592
79120SOL    HW239258  12.945  14.350  11.677
79121SOL     OW39259   9.411   8.909   9.878
79121SOL    HW139260   9.391   8.816   9.892
79121SOL    HW239261   9.505   8.910   9.861
79122SOL     OW39262  13.120   3.468  12.758
79122SOL    HW139263  13.149   3.520  12.833
79122SOL    HW239264  13.193   3.408  12.742
79123SOL     OW39265   8.827   5.992  10.723
79123SOL    HW139266   8.900   6.052  10.738
79123SOL    HW239267   8.788   5.981  10.810
79124SOL     OW39268   8.204   9.850  13.228
79124SOL    HW139269   8.128   9.883  13.276
79124SOL    HW239270   8.218   9.914  13.158
79125SOL     OW39271   3.114   5.360   0.837
79125SOL    HW139272   3.056   5.394   0.904
79125SOL    HW239273   3.150   5.437   0.794
79126SOL     OW39274   6.227  10.177   3.308
79126SOL    HW139275   6.233  10.135   3.222
79126SOL    HW239276   6.251  10.109   3.371
79127SOL     OW39277   5.184   7.354   7.410
79127SOL    HW139278   5.129   7.401   7.348
79127SOL    HW239279   5.158   7.262   7.402
79128SOL     OW39280   8.384   7.540   8.552
79128SOL    HW139281   8.435   7.460   8.558
79128SOL    HW239282   8.446   7.606   8.521
79129SOL     OW39283   2.053   0.041   7.632
79129SOL    HW139284   1.998   0.041   7.710
79129SOL    HW239285   2.113   0.114   7.645
79130SOL     OW39286   5.408   3.575  11.938
79130SOL    HW139287   5.429   3.629  11.862
79130SOL    HW239288   5.487   3.577  11.992
79131SOL     OW39289   3.659   7.422   9.236
79131SOL    HW139290   3.731   7.367   9.266
79131SOL    HW239291   3.627   7.378   9.157
79132SOL     OW39292   0.943   1.804  11.341
79132SOL    HW139293   1.032   1.768  11.338
79132SOL    HW239294   0.890   1.731  11.374
79133SOL     OW39295   5.504   2.284   9.417
79133SOL    HW139296   5.492   2.193   9.388
79133SOL    HW239297   5.448   2.336   9.359
79134SOL     OW39298   6.925   7.525   7.844
79134SOL    HW139299   6.868   7.575   7.787
79134SOL    HW239300   6.983   7.476   7.785
79135SOL     OW39301   5.685   9.205  14.870
79135SOL    HW139302   5.622   9.249  14.813
79135SOL    HW239303   5.703   9.268   0.059
79136SOL     OW39304   9.712   1.569   2.854
79136SOL    HW139305   9.803   1.579   2.885
79136SOL    HW239306   9.705   1.630   2.781
79137SOL     OW39307   5.794   0.774   0.621
79137SOL    HW139308   5.759   0.705   0.564
79137SOL    HW239309   5.734   0.776   0.695
79138SOL     OW39310  14.555   6.559   5.118
79138SOL    HW139311  14.480   6.614   5.139
79138SOL    HW239312  14.540   6.531   5.028
79139SOL     OW39313  13.163   1.890   0.167
79139SOL    HW139314  13.248   1.931   0.181
79139SOL    HW239315  13.100   1.950   0.208
79140SOL     OW39316   9.971  11.836   0.778
79140SOL    HW139317   9.920  11.816   0.856
79140SOL    HW239318  10.051  11.876   0.811
79141SOL     OW39319  12.569   4.980   4.713
79141SOL    HW139320  12.554   4.891   4.745
79141SOL    HW239321  12.533   4.981   4.624
79142SOL     OW39322  12.992  13.906   7.852
79142SOL    HW139323  12.941  13.863   7.783
79142SOL    HW239324  13.029  13.834   7.903
79143SOL     OW39325  13.123  10.601   9.325
79143SOL    HW139326  13.037  10.626   9.292
79143SOL    HW239327  13.174  10.682   9.324
79144SOL     OW39328  12.301   2.636   8.749
79144SOL    HW139329  12.332   2.579   8.678
79144SOL    HW239330  12.209   2.652   8.728
79145SOL     OW39331   2.368  10.176   7.906
79145SOL    HW139332   2.342  10.268   7.917
79145SOL    HW239333   2.309  10.142   7.839
79146SOL     OW39334  14.300   7.957   0.560
79146SOL    HW139335  14.257   8.042   0.569
79146SOL    HW239336  14.256   7.901   0.623
79147SOL     OW39337  10.274   4.793   5.184
79147SOL    HW139338  10.285   4.828   5.272
79147SOL    HW239339  10.259   4.699   5.197
79148SOL     OW39340   7.300   5.676   9.626
79148SOL    HW139341   7.264   5.745   9.682
79148SOL    HW239342   7.374   5.716   9.581
79149SOL     OW39343   0.191  13.464   7.268
79149SOL    HW139344   0.179  13.476   7.173
79149SOL    HW239345   0.173  13.371   7.282
79150SOL     OW39346   5.735  13.953   2.178
79150SOL    HW139347   5.748  13.887   2.246
79150SOL    HW239348   5.804  13.935   2.114
79151SOL     OW39349  12.710   9.558   1.459
79151SOL    HW139350  12.769   9.623   1.496
79151SOL    HW239351  12.726   9.479   1.511
79152SOL     OW39352   3.939   7.045   3.577
79152SOL    HW139353   4.029   7.053   3.545
79152SOL    HW239354   3.918   6.953   3.564
79153SOL     OW39355  10.280   9.010  14.225
79153SOL    HW139356  10.244   9.087  14.267
79153SOL    HW239357  10.204   8.959  14.197
79154SOL     OW39358   8.897   1.985   5.034
79154SOL    HW139359   8.934   1.942   4.957
79154SOL    HW239360   8.823   2.035   5.000
79155SOL     OW39361  12.581   4.469   8.652
79155SOL    HW139362  12.611   4.424   8.732
79155SOL    HW239363  12.559   4.399   8.592
79156SOL     OW39364  13.611   3.360  11.884
79156SOL    HW139365  13.616   3.328  11.794
79156SOL    HW239366  13.519   3.381  11.896
79157SOL     OW39367   0.791  14.370   4.239
79157SOL    HW139368   0.877  14.329   4.253
79157SOL    HW239369   0.802  14.459   4.272
79158SOL     OW39370   1.168  11.613   2.502
79158SOL    HW139371   1.168  11.545   2.569
79158SOL    HW239372   1.213  11.687   2.542
79159SOL     OW39373  13.587   2.062  14.019
79159SOL    HW139374  13.625   2.150  14.013
79159SOL    HW239375  13.653   2.004  13.982
79160SOL     OW39376   0.960  12.724  11.751
79160SOL    HW139377   0.966  12.781  11.674
79160SOL    HW239378   0.878  12.676  11.738
79161SOL     OW39379   8.767   3.172   9.313
79161SOL    HW139380   8.702   3.239   9.287
79161SOL    HW239381   8.842   3.223   9.344
79162SOL     OW39382   5.488   9.895   0.665
79162SOL    HW139383   5.571   9.942   0.665
79162SOL    HW239384   5.505   9.814   0.616
79163SOL     OW39385  11.299   7.604  14.167
79163SOL    HW139386  11.218   7.556  14.183
79163SOL    HW239387  11.313   7.655  14.247
79164SOL     OW39388   9.049   7.506  12.296
79164SOL    HW139389   9.071   7.574  12.232
79164SOL    HW239390   8.958   7.523  12.319
79165SOL     OW39391   1.063  11.763   7.225
79165SOL    HW139392   1.155  11.762   7.198
79165SOL    HW239393   1.019  11.816   7.158
79166SOL     OW39394   8.493  11.849  11.393
79166SOL    HW139395   8.418  11.887  11.347
79166SOL    HW239396   8.527  11.920  11.447
79167SOL     OW39397  10.087   0.201   0.766
79167SOL    HW139398  10.003   0.160   0.744
79167SOL    HW239399  10.087   0.284   0.718
79168SOL     OW39400  13.857   1.541  14.599
79168SOL    HW139401  13.851   1.452  14.565
79168SOL    HW239402  13.847   1.532  14.694
79169SOL     OW39403   3.391   7.237   4.807
79169SOL    HW139404   3.332   7.163   4.824
79169SOL    HW239405   3.346   7.289   4.741
79170SOL     OW39406   0.597   9.240   8.862
79170SOL    HW139407   0.676   9.186   8.853
79170SOL    HW239408   0.608   9.284   8.947
79171SOL     OW39409   0.967  12.074   3.142
79171SOL    HW139410   0.964  11.978   3.133
79171SOL    HW239411   1.009  12.088   3.227
79172SOL     OW39412  14.819  10.018   7.350
79172SOL    HW139413  14.744  10.032   7.292
79172SOL    HW239414  14.788  10.047   7.436
79173SOL     OW39415   4.332   7.129  14.836
79173SOL    HW139416   4.251   7.080  14.850
79173SOL    HW239417   4.304   7.217  14.814
79174SOL     OW39418  10.972  14.716  14.764
79174SOL    HW139419  11.014  14.792  14.723
79174SOL    HW239420  11.001  14.719  14.855
79175SOL     OW39421   6.474  12.090   8.771
79175SOL    HW139422   6.522  12.100   8.689
79175SOL    HW239423   6.541  12.069   8.836
79176SOL     OW39424   0.290   4.613   3.464
79176SOL    HW139425   0.288   4.678   3.394
79176SOL    HW239426   0.213   4.632   3.517
79177SOL     OW39427  13.884  13.992  11.955
79177SOL    HW139428  13.975  13.973  11.931
79177SOL    HW239429  13.865  13.929  12.024
79178SOL     OW39430   8.473   3.677   0.491
79178SOL    HW139431   8.459   3.606   0.553
79178SOL    HW239432   8.568   3.683   0.481
79179SOL     OW39433   6.970   8.476   1.908
79179SOL    HW139434   6.985   8.570   1.898
79179SOL    HW239435   7.054   8.436   1.889
79180SOL     OW39436   5.678  13.710   4.635
79180SOL    HW139437   5.651  13.650   4.704
79180SOL    HW239438   5.736  13.658   4.579
79181SOL     OW39439   7.140   5.699   0.912
79181SOL    HW139440   7.053   5.730   0.938
79181SOL    HW239441   7.125   5.609   0.882
79182SOL     OW39442  13.179   1.521   7.071
79182SOL    HW139443  13.096   1.567   7.068
79182SOL    HW239444  13.245   1.590   7.058
79183SOL     OW39445   6.803  12.347   8.785
79183SOL    HW139446   6.715  12.340   8.823
79183SOL    HW239447   6.860  12.358   8.861
79184SOL     OW39448   1.876   9.145  12.405
79184SOL    HW139449   1.829   9.118  12.326
79184SOL    HW239450   1.822   9.216  12.441
79185SOL     OW39451   6.940  11.897  12.822
79185SOL    HW139452   6.877  11.962  12.791
79185SOL    HW239453   6.985  11.939  12.895
79186SOL     OW39454   0.398   0.493   3.128
79186SOL    HW139455   0.438   0.407   3.142
79186SOL    HW239456   0.455   0.554   3.175
79187SOL     OW39457   0.385   0.806   5.772
79187SOL    HW139458   0.449   0.770   5.710
79187SOL    HW239459   0.302   0.801   5.726
79188SOL     OW39460   2.649   6.788   7.659
79188SOL    HW139461   2.585   6.758   7.595
79188SOL    HW239462   2.646   6.884   7.653
79189SOL     OW39463  13.894   3.206  10.597
79189SOL    HW139464  13.924   3.291  10.565
79189SOL    HW239465  13.974   3.161  10.622
79190SOL     OW39466   9.778  12.133   5.558
79190SOL    HW139467   9.819  12.054   5.522
79190SOL    HW239468   9.808  12.204   5.500
79191SOL     OW39469   4.820  12.836   3.467
79191SOL    HW139470   4.789  12.885   3.543
79191SOL    HW239471   4.746  12.780   3.442
79192SOL     OW39472  14.219  13.926   3.029
79192SOL    HW139473  14.282  13.915   3.100
79192SOL    HW239474  14.241  14.011   2.990
79193SOL     OW39475   5.265   9.490  13.906
79193SOL    HW139476   5.339   9.549  13.921
79193SOL    HW239477   5.201   9.514  13.973
79194SOL     OW39478   8.714   4.772   0.177
79194SOL    HW139479   8.734   4.689   0.220
79194SOL    HW239480   8.791   4.790   0.122
79195SOL     OW39481   7.407   7.567   5.462
79195SOL    HW139482   7.413   7.546   5.555
79195SOL    HW239483   7.386   7.483   5.420
79196SOL     OW39484   5.248   1.524  13.379
79196SOL    HW139485   5.195   1.503  13.456
79196SOL    HW239486   5.315   1.584  13.412
79197SOL     OW39487  11.025   8.492   9.208
79197SOL    HW139488  11.087   8.563   9.193
79197SOL    HW239489  10.975   8.486   9.126
79198SOL     OW39490   3.866  11.792  11.777
79198SOL    HW139491   3.952  11.817  11.743
79198SOL    HW239492   3.836  11.722  11.719
79199SOL     OW39493   3.667   0.656   4.959
79199SOL    HW139494   3.729   0.712   5.006
79199SOL    HW239495   3.657   0.579   5.014
79200SOL     OW39496  11.363  12.869   9.464
79200SOL    HW139497  11.455  12.852   9.479
79200SOL    HW239498  11.318  12.822   9.535
79201SOL     OW39499   9.065   6.302   3.021
79201SOL    HW139500   9.032   6.330   3.106
79201SOL    HW239501   8.991   6.315   2.961
79202SOL     OW39502   2.504  10.882  11.750
79202SOL    HW139503   2.456  10.799  11.753
79202SOL    HW239504   2.583  10.866  11.801
79203SOL     OW39505   7.578  11.359   2.543
79203SOL    HW139506   7.644  11.373   2.611
79203SOL    HW239507   7.566  11.445   2.503
79204SOL     OW39508   7.661   7.726  12.823
79204SOL    HW139509   7.754   7.747  12.826
79204SOL    HW239510   7.648   7.688  12.736
79205SOL     OW39511   5.658   2.346   1.792
79205SOL    HW139512   5.704   2.292   1.728
79205SOL    HW239513   5.718   2.418   1.810
79206SOL     OW39514   1.166   1.770  13.429
79206SOL    HW139515   1.110   1.699  13.397
79206SOL    HW239516   1.145   1.777  13.522
79207SOL     OW39517  10.371   1.788   3.180
79207SOL    HW139518  10.382   1.848   3.253
79207SOL    HW239519  10.458   1.778   3.143
79208SOL     OW39520  14.153   4.691   7.676
79208SOL    HW139521  14.192   4.749   7.611
79208SOL    HW239522  14.188   4.604   7.655
79209SOL     OW39523   8.151   0.597   0.254
79209SOL    HW139524   8.113   0.609   0.341
79209SOL    HW239525   8.189   0.509   0.256
79210SOL     OW39526   1.480   4.705   9.788
79210SOL    HW139527   1.528   4.751   9.857
79210SOL    HW239528   1.395   4.684   9.827
79211SOL     OW39529   1.402  14.344  11.632
79211SOL    HW139530   1.368  14.349  11.542
79211SOL    HW239531   1.445  14.428  11.646
79212SOL     OW39532  12.473   7.023   0.740
79212SOL    HW139533  12.428   7.049   0.820
79212SOL    HW239534  12.560   7.061   0.748
79213SOL     OW39535   3.688   8.462  13.775
79213SOL    HW139536   3.747   8.403  13.727
79213SOL    HW239537   3.604   8.454  13.729
79214SOL     OW39538  13.644   2.489   0.071
79214SOL    HW139539  13.724   2.481   0.019
79214SOL    HW239540  13.668   2.548   0.143
79215SOL     OW39541   6.863  10.640  10.030
79215SOL    HW139542   6.816  10.557  10.026
79215SOL    HW239543   6.937  10.629   9.970
79216SOL     OW39544  11.446  12.568   4.818
79216SOL    HW139545  11.394  12.647   4.824
79216SOL    HW239546  11.386  12.497   4.840
79217SOL     OW39547  11.721   6.048   7.964
79217SOL    HW139548  11.668   5.996   7.904
79217SOL    HW239549  11.708   6.139   7.935
79218SOL     OW39550   6.147   8.386   6.367
79218SOL    HW139551   6.172   8.354   6.280
79218SOL    HW239552   6.114   8.309   6.413
79219SOL     OW39553   2.101  10.885   6.878
79219SOL    HW139554   2.064  10.973   6.865
79219SOL    HW239555   2.036  10.826   6.838
79220SOL     OW39556   1.471   1.094  14.298
79220SOL    HW139557   1.488   1.055  14.213
79220SOL    HW239558   1.462   1.188  14.280
79221SOL     OW39559   5.627   0.961   3.386
79221SOL    HW139560   5.635   0.962   3.481
79221SOL    HW239561   5.615   0.869   3.364
79222SOL     OW39562   6.752   7.903   7.505
79222SOL    HW139563   6.688   7.965   7.539
79222SOL    HW239564   6.823   7.958   7.472
79223SOL     OW39565   0.390   5.637   5.155
79223SOL    HW139566   0.429   5.551   5.137
79223SOL    HW239567   0.449   5.699   5.112
79224SOL     OW39568  13.286  14.508   2.866
79224SOL    HW139569  13.283  14.412   2.869
79224SOL    HW239570  13.373  14.530   2.901
79225SOL     OW39571   0.923   8.091   3.248
79225SOL    HW139572   0.835   8.101   3.212
79225SOL    HW239573   0.936   8.170   3.301
79226SOL     OW39574   1.125   5.664   7.884
79226SOL    HW139575   1.101   5.576   7.911
79226SOL    HW239576   1.149   5.708   7.966
79227SOL     OW39577   2.228   1.734   8.518
79227SOL    HW139578   2.323   1.746   8.523
79227SOL    HW239579   2.192   1.822   8.527
79228SOL     OW39580  14.031   9.029  11.536
79228SOL    HW139581  13.971   8.964  11.574
79228SOL    HW239582  14.116   8.985  11.535
79229SOL     OW39583   2.716   4.917  10.315
79229SOL    HW139584   2.639   4.958  10.353
79229SOL    HW239585   2.740   4.848  10.378
79230SOL     OW39586  12.505   0.714   1.134
79230SOL    HW139587  12.573   0.777   1.109
79230SOL    HW239588  12.477   0.675   1.051
79231SOL     OW39589  12.104  10.006  13.348
79231SOL    HW139590  12.152  10.052  13.279
79231SOL    HW239591  12.099   9.915  13.318
79232SOL     OW39592   7.576   6.573   4.972
79232SOL    HW139593   7.576   6.588   5.067
79232SOL    HW239594   7.515   6.501   4.959
79233SOL     OW39595   3.953   8.507   5.969
79233SOL    HW139596   3.898   8.478   6.042
79233SOL    HW239597   4.010   8.432   5.950
79234SOL     OW39598  14.046   2.148  10.294
79234SOL    HW139599  14.023   2.206  10.222
79234SOL    HW239600  14.134   2.175  10.320
79235SOL     OW39601   1.599  10.408   2.803
79235SOL    HW139602   1.579  10.353   2.879
79235SOL    HW239603   1.661  10.473   2.836
79236SOL     OW39604  10.472   6.408   2.959
79236SOL    HW139605  10.408   6.453   2.904
79236SOL    HW239606  10.492   6.327   2.911
79237SOL     OW39607   4.055   0.706   5.211
79237SOL    HW139608   4.127   0.733   5.268
79237SOL    HW239609   4.086   0.723   5.122
79238SOL     OW39610   1.939  12.587   3.858
79238SOL    HW139611   1.911  12.503   3.894
79238SOL    HW239612   1.864  12.617   3.806
79239SOL     OW39613  10.675   4.949  13.243
79239SOL    HW139614  10.738   4.880  13.222
79239SOL    HW239615  10.722   5.030  13.226
79240SOL     OW39616  12.635   6.527   6.384
79240SOL    HW139617  12.690   6.556   6.312
79240SOL    HW239618  12.653   6.433   6.391
79241SOL     OW39619  12.342   1.815   9.041
79241SOL    HW139620  12.309   1.728   9.064
79241SOL    HW239621  12.273   1.875   9.070
79242SOL     OW39622   6.933   2.906   4.483
79242SOL    HW139623   6.989   2.837   4.517
79242SOL    HW239624   6.878   2.862   4.418
79243SOL     OW39625   6.144  12.663   4.010
79243SOL    HW139626   6.114  12.619   3.931
79243SOL    HW239627   6.082  12.736   4.020
79244SOL     OW39628   8.530  13.404   3.681
79244SOL    HW139629   8.567  13.481   3.638
79244SOL    HW239630   8.515  13.342   3.609
79245SOL     OW39631   9.817   7.014   7.230
79245SOL    HW139632   9.800   7.107   7.240
79245SOL    HW239633   9.860   6.988   7.311
79246SOL     OW39634  13.133   0.970   5.580
79246SOL    HW139635  13.106   1.042   5.637
79246SOL    HW239636  13.161   0.901   5.640
79247SOL     OW39637  12.390   6.711   5.788
79247SOL    HW139638  12.422   6.797   5.759
79247SOL    HW239639  12.392   6.657   5.710
79248SOL     OW39640   6.487   3.033   6.254
79248SOL    HW139641   6.396   3.008   6.268
79248SOL    HW239642   6.482   3.124   6.223
79249SOL     OW39643  10.891   6.331   2.470
79249SOL    HW139644  10.800   6.314   2.492
79249SOL    HW239645  10.891   6.345   2.375
79250SOL     OW39646   2.763  13.513   9.256
79250SOL    HW139647   2.778  13.421   9.280
79250SOL    HW239648   2.693  13.542   9.314
79251SOL     OW39649   2.800   9.365   3.638
79251SOL    HW139650   2.788   9.282   3.591
79251SOL    HW239651   2.895   9.376   3.642
79252SOL     OW39652   9.701  13.911   4.201
79252SOL    HW139653   9.758  13.836   4.219
79252SOL    HW239654   9.614  13.872   4.190
79253SOL     OW39655   3.041  10.883  10.142
79253SOL    HW139656   3.087  10.966  10.134
79253SOL    HW239657   2.950  10.908  10.162
79254SOL     OW39658   3.757   5.983   7.069
79254SOL    HW139659   3.756   5.961   7.162
79254SOL    HW239660   3.778   6.076   7.066
79255SOL     OW39661   8.011   2.084   7.312
79255SOL    HW139662   8.030   1.996   7.343
79255SOL    HW239663   8.065   2.095   7.234
79256SOL     OW39664   2.611   4.137   9.700
79256SOL    HW139665   2.560   4.174   9.772
79256SOL    HW239666   2.699   4.172   9.711
79257SOL     OW39667   8.542   5.337  10.062
79257SOL    HW139668   8.472   5.279  10.033
79257SOL    HW239669   8.527   5.347  10.156
79258SOL     OW39670   6.062   9.862   4.638
79258SOL    HW139671   6.015   9.868   4.554
79258SOL    HW239672   6.130   9.796   4.623
79259SOL     OW39673   3.219   7.583  12.023
79259SOL    HW139674   3.213   7.488  12.016
79259SOL    HW239675   3.241   7.599  12.115
79260SOL     OW39676   4.134  11.850  13.795
79260SOL    HW139677   4.196  11.787  13.759
79260SOL    HW239678   4.070  11.862  13.725
79261SOL     OW39679  14.843   4.928   0.251
79261SOL    HW139680  14.824   5.018   0.226
79261SOL    HW239681  14.841   4.878   0.169
79262SOL     OW39682   4.274  14.018   8.911
79262SOL    HW139683   4.216  13.996   8.984
79262SOL    HW239684   4.316  13.935   8.888
79263SOL     OW39685   5.875   9.486   8.706
79263SOL    HW139686   5.926   9.552   8.754
79263SOL    HW239687   5.921   9.404   8.722
79264SOL     OW39688   3.674  13.513  10.730
79264SOL    HW139689   3.622  13.502  10.810
79264SOL    HW239690   3.747  13.452  10.740
79265SOL     OW39691   1.739   8.717  14.239
79265SOL    HW139692   1.765   8.740  14.149
79265SOL    HW239693   1.819   8.730  14.290
79266SOL     OW39694   6.693   4.127   0.150
79266SOL    HW139695   6.748   4.131   0.073
79266SOL    HW239696   6.711   4.042   0.189
79267SOL     OW39697   1.557   4.107  11.833
79267SOL    HW139698   1.561   4.040  11.765
79267SOL    HW239699   1.522   4.184  11.788
79268SOL     OW39700   2.336   5.755   5.128
79268SOL    HW139701   2.347   5.847   5.103
79268SOL    HW239702   2.252   5.751   5.173
79269SOL     OW39703   5.071   3.692  14.474
79269SOL    HW139704   5.109   3.778  14.456
79269SOL    HW239705   4.982   3.697  14.440
79270SOL     OW39706   5.899  13.585  12.480
79270SOL    HW139707   5.804  13.582  12.495
79270SOL    HW239708   5.935  13.618  12.562
79271SOL     OW39709  11.914   2.544   0.941
79271SOL    HW139710  11.872   2.569   1.023
79271SOL    HW239711  11.856   2.579   0.873
79272SOL     OW39712  11.150   0.723  12.653
79272SOL    HW139713  11.072   0.757  12.697
79272SOL    HW239714  11.212   0.705  12.723
79273SOL     OW39715   7.914   7.738  11.631
79273SOL    HW139716   8.002   7.777  11.637
79273SOL    HW239717   7.927   7.648  11.658
79274SOL     OW39718  13.864   0.671  11.683
79274SOL    HW139719  13.866   0.618  11.763
79274SOL    HW239720  13.919   0.622  11.622
79275SOL     OW39721   0.064   3.336   5.459
79275SOL    HW139722   0.069   3.241   5.448
79275SOL    HW239723  14.852   3.357   5.441
79276SOL     OW39724   7.786   6.608   0.977
79276SOL    HW139725   7.693   6.631   0.978
79276SOL    HW239726   7.814   6.623   0.887
79277SOL     OW39727  14.597   4.121   7.051
79277SOL    HW139728  14.591   4.029   7.027
79277SOL    HW239729  14.667   4.156   6.997
79278SOL     OW39730   8.100   5.382   1.058
79278SOL    HW139731   8.040   5.453   1.035
79278SOL    HW239732   8.183   5.407   1.019
79279SOL     OW39733   8.655   5.663   5.710
79279SOL    HW139734   8.569   5.696   5.736
79279SOL    HW239735   8.655   5.667   5.614
79280SOL     OW39736  11.832   1.787   5.470
79280SOL    HW139737  11.799   1.742   5.548
79280SOL    HW239738  11.778   1.866   5.462
79281SOL     OW39739  12.473   5.294   9.374
79281SOL    HW139740  12.388   5.288   9.331
79281SOL    HW239741  12.505   5.204   9.377
79282SOL     OW39742  14.028   5.623  14.022
79282SOL    HW139743  14.120   5.637  14.045
79282SOL    HW239744  14.011   5.686  13.952
79283SOL     OW39745   7.573   6.842  11.081
79283SOL    HW139746   7.635   6.905  11.118
79283SOL    HW239747   7.586   6.848  10.986
79284SOL     OW39748   6.983   9.730  12.704
79284SOL    HW139749   6.895   9.693  12.701
79284SOL    HW239750   6.998   9.766  12.617
79285SOL     OW39751   5.904   6.051   5.295
79285SOL    HW139752   5.948   5.972   5.264
79285SOL    HW239753   5.825   6.057   5.241
79286SOL     OW39754   5.948  13.662  11.509
79286SOL    HW139755   5.937  13.735  11.448
79286SOL    HW239756   5.949  13.702  11.596
79287SOL     OW39757   8.687  12.562  10.551
79287SOL    HW139758   8.691  12.561  10.646
79287SOL    HW239759   8.640  12.642  10.529
79288SOL     OW39760   2.194   6.048  11.654
79288SOL    HW139761   2.198   5.976  11.591
79288SOL    HW239762   2.158   6.007  11.734
79289SOL     OW39763   9.771   8.982   0.868
79289SOL    HW139764   9.837   9.008   0.931
79289SOL    HW239765   9.704   9.050   0.873
79290SOL     OW39766  10.787   4.447  10.199
79290SOL    HW139767  10.783   4.532  10.243
79290SOL    HW239768  10.852   4.459  10.130
79291SOL     OW39769  14.472  14.276   1.762
79291SOL    HW139770  14.549  14.259   1.707
79291SOL    HW239771  14.421  14.341   1.714
79292SOL     OW39772   5.379   7.748   9.510
79292SOL    HW139773   5.400   7.716   9.423
79292SOL    HW239774   5.286   7.768   9.507
79293SOL     OW39775  11.728   9.014   6.093
79293SOL    HW139776  11.648   9.045   6.051
79293SOL    HW239777  11.748   9.080   6.159
79294SOL     OW39778   0.673   2.846   4.469
79294SOL    HW139779   0.697   2.777   4.530
79294SOL    HW239780   0.726   2.829   4.391
79295SOL     OW39781   1.060   8.064   8.222
79295SOL    HW139782   1.118   7.998   8.183
79295SOL    HW239783   1.120   8.132   8.253
79296SOL     OW39784   9.499  14.589  10.050
79296SOL    HW139785   9.425  14.631  10.094
79296SOL    HW239786   9.488  14.496  10.070
79297SOL     OW39787   6.691   1.152   5.607
79297SOL    HW139788   6.638   1.190   5.536
79297SOL    HW239789   6.672   1.207   5.683
79298SOL     OW39790   4.710   1.716   6.307
79298SOL    HW139791   4.638   1.771   6.277
79298SOL    HW239792   4.707   1.722   6.403
79299SOL     OW39793   2.735   3.228   5.499
79299SOL    HW139794   2.700   3.214   5.412
79299SOL    HW239795   2.676   3.181   5.558
79300SOL     OW39796   7.838   4.657   3.365
79300SOL    HW139797   7.903   4.624   3.426
79300SOL    HW239798   7.841   4.753   3.375
79301SOL     OW39799   3.740   0.913  13.244
79301SOL    HW139800   3.672   0.852  13.270
79301SOL    HW239801   3.771   0.952  13.326
79302SOL     OW39802   0.373   3.048   7.597
79302SOL    HW139803   0.459   3.013   7.573
79302SOL    HW239804   0.311   2.992   7.552
79303SOL     OW39805   0.676  11.681   4.435
79303SOL    HW139806   0.597  11.657   4.484
79303SOL    HW239807   0.735  11.608   4.448
79304SOL     OW39808  14.373   2.855   1.068
79304SOL    HW139809  14.380   2.882   1.159
79304SOL    HW239810  14.281   2.869   1.045
79305SOL     OW39811   9.464   8.642   9.917
79305SOL    HW139812   9.515   8.562   9.901
79305SOL    HW239813   9.398   8.616   9.980
79306SOL     OW39814   3.771  12.008  10.568
79306SOL    HW139815   3.788  12.096  10.534
79306SOL    HW239816   3.847  11.956  10.539
79307SOL     OW39817   6.457   0.391   9.256
79307SOL    HW139818   6.362   0.395   9.251
79307SOL    HW239819   6.479   0.433   9.339
79308SOL     OW39820  11.541   9.562   9.603
79308SOL    HW139821  11.632   9.534   9.617
79308SOL    HW239822  11.537   9.585   9.510
79309SOL     OW39823   6.830   8.840   1.449
79309SOL    HW139824   6.916   8.823   1.487
79309SOL    HW239825   6.798   8.917   1.495
79310SOL     OW39826   2.365   7.119   4.064
79310SOL    HW139827   2.408   7.110   3.979
79310SOL    HW239828   2.344   7.029   4.090
79311SOL     OW39829  10.522   3.218   7.122
79311SOL    HW139830  10.562   3.285   7.178
79311SOL    HW239831  10.429   3.221   7.144
79312SOL     OW39832  13.937  14.614  14.381
79312SOL    HW139833  13.869  14.671  14.416
79312SOL    HW239834  13.902  14.584  14.297
79313SOL     OW39835   3.027   8.135   1.670
79313SOL    HW139836   2.993   8.088   1.594
79313SOL    HW239837   2.994   8.086   1.746
79314SOL     OW39838  10.623   5.932   7.162
79314SOL    HW139839  10.569   5.987   7.217
79314SOL    HW239840  10.689   5.895   7.221
79315SOL     OW39841   3.429   3.188   1.983
79315SOL    HW139842   3.403   3.224   2.068
79315SOL    HW239843   3.506   3.134   2.002
79316SOL     OW39844   3.423   7.978   7.462
79316SOL    HW139845   3.451   8.026   7.540
79316SOL    HW239846   3.337   8.016   7.441
79317SOL     OW39847   5.647  10.824   7.902
79317SOL    HW139848   5.694  10.831   7.985
79317SOL    HW239849   5.601  10.908   7.894
79318SOL     OW39850   5.095  11.071  10.332
79318SOL    HW139851   5.109  11.070  10.426
79318SOL    HW239852   5.122  11.159  10.304
79319SOL     OW39853  11.986  10.708   6.399
79319SOL    HW139854  12.058  10.754   6.442
79319SOL    HW239855  11.911  10.766   6.410
79320SOL     OW39856  12.615   7.653   2.717
79320SOL    HW139857  12.620   7.625   2.808
79320SOL    HW239858  12.642   7.745   2.718
79321SOL     OW39859   5.413  12.191  11.269
79321SOL    HW139860   5.335  12.207  11.216
79321SOL    HW239861   5.431  12.276  11.311
79322SOL     OW39862   2.661  10.231  10.146
79322SOL    HW139863   2.606  10.288  10.200
79322SOL    HW239864   2.704  10.173  10.209
79323SOL     OW39865   7.807   9.934  10.340
79323SOL    HW139866   7.899   9.906  10.348
79323SOL    HW239867   7.774   9.933  10.430
79324SOL     OW39868   2.664  13.801  13.358
79324SOL    HW139869   2.664  13.897  13.368
79324SOL    HW239870   2.747  13.773  13.397
79325SOL     OW39871   6.235   2.064  14.403
79325SOL    HW139872   6.170   2.054  14.472
79325SOL    HW239873   6.189   2.113  14.334
79326SOL     OW39874  14.811   6.948   2.276
79326SOL    HW139875   0.022   6.921   2.266
79326SOL    HW239876  14.761   6.880   2.229
79327SOL     OW39877  12.803   8.014   9.680
79327SOL    HW139878  12.760   7.944   9.729
79327SOL    HW239879  12.867   8.050   9.741
79328SOL     OW39880  11.924   2.921  10.960
79328SOL    HW139881  11.988   2.920  10.888
79328SOL    HW239882  11.922   2.831  10.991
79329SOL     OW39883   5.080  10.939   8.731
79329SOL    HW139884   5.097  10.981   8.815
79329SOL    HW239885   4.994  10.973   8.703
79330SOL     OW39886  13.440  10.834  13.601
79330SOL    HW139887  13.432  10.759  13.542
79330SOL    HW239888  13.453  10.909  13.543
79331SOL     OW39889   8.532   8.123  14.236
79331SOL    HW139890   8.477   8.200  14.221
79331SOL    HW239891   8.495   8.082  14.314
79332SOL     OW39892   5.964   8.490   0.923
79332SOL    HW139893   6.040   8.475   0.866
79332SOL    HW239894   5.896   8.522   0.864
79333SOL     OW39895   4.634   4.974  12.573
79333SOL    HW139896   4.601   5.048  12.521
79333SOL    HW239897   4.669   4.913  12.508
79334SOL     OW39898   3.611   6.247   0.241
79334SOL    HW139899   3.703   6.275   0.241
79334SOL    HW239900   3.578   6.272   0.327
79335SOL     OW39901  13.768  12.479  13.541
79335SOL    HW139902  13.797  12.396  13.579
79335SOL    HW239903  13.829  12.494  13.469
79336SOL     OW39904   2.115   5.681   3.222
79336SOL    HW139905   2.168   5.663   3.144
79336SOL    HW239906   2.168   5.741   3.274
79337SOL     OW39907  13.784   5.806  13.775
79337SOL    HW139908  13.760   5.861  13.700
79337SOL    HW239909  13.794   5.718  13.738
79338SOL     OW39910  13.478   1.538  11.693
79338SOL    HW139911  13.555   1.482  11.700
79338SOL    HW239912  13.477   1.566  11.601
79339SOL     OW39913  12.043   3.116   5.819
79339SOL    HW139914  12.069   3.034   5.776
79339SOL    HW239915  12.053   3.183   5.751
79340SOL     OW39916  13.141  14.202   1.659
79340SOL    HW139917  13.202  14.220   1.731
79340SOL    HW239918  13.065  14.162   1.701
79341SOL     OW39919   1.522   2.445  14.443
79341SOL    HW139920   1.507   2.399  14.359
79341SOL    HW239921   1.589   2.393  14.486
79342SOL     OW39922   6.088   2.554  10.756
79342SOL    HW139923   6.078   2.584  10.665
79342SOL    HW239924   6.174   2.587  10.782
79343SOL     OW39925  13.428   1.681   8.127
79343SOL    HW139926  13.484   1.605   8.112
79343SOL    HW239927  13.407   1.678   8.220
79344SOL     OW39928   4.212  14.408   5.863
79344SOL    HW139929   4.206  14.469   5.790
79344SOL    HW239930   4.283  14.443   5.918
79345SOL     OW39931  11.294  10.856   8.226
79345SOL    HW139932  11.312  10.925   8.290
79345SOL    HW239933  11.372  10.854   8.171
79346SOL     OW39934   6.050   3.850   0.493
79346SOL    HW139935   6.136   3.886   0.473
79346SOL    HW239936   5.995   3.877   0.419
79347SOL     OW39937   1.458   6.278   1.808
79347SOL    HW139938   1.532   6.307   1.862
79347SOL    HW239939   1.466   6.183   1.806
79348SOL     OW39940   1.102   2.504  11.412
79348SOL    HW139941   1.045   2.570  11.374
79348SOL    HW239942   1.106   2.434  11.346
79349SOL     OW39943   8.539   9.933   3.940
79349SOL    HW139944   8.591   9.918   4.018
79349SOL    HW239945   8.504   9.847   3.917
79350SOL     OW39946   9.165  12.871   5.975
79350SOL    HW139947   9.166  12.857   6.070
79350SOL    HW239948   9.251  12.909   5.955
79351SOL     OW39949   6.251   8.818   2.661
79351SOL    HW139950   6.265   8.848   2.571
79351SOL    HW239951   6.297   8.882   2.716
79352SOL     OW39952  12.144  13.631   2.360
79352SOL    HW139953  12.098  13.619   2.443
79352SOL    HW239954  12.124  13.720   2.333
79353SOL     OW39955   1.785  14.528  13.500
79353SOL    HW139956   1.748  14.447  13.533
79353SOL    HW239957   1.760  14.530  13.407
79354SOL     OW39958  11.868   3.903   1.689
79354SOL    HW139959  11.904   3.823   1.726
79354SOL    HW239960  11.831   3.950   1.763
79355SOL     OW39961   3.846   3.768   8.453
79355SOL    HW139962   3.879   3.704   8.390
79355SOL    HW239963   3.867   3.730   8.538
79356SOL     OW39964   7.471  13.634   9.012
79356SOL    HW139965   7.491  13.670   9.099
79356SOL    HW239966   7.383  13.664   8.993
79357SOL     OW39967   2.178   0.113  13.952
79357SOL    HW139968   2.138   0.067  13.878
79357SOL    HW239969   2.120   0.094  14.026
79358SOL     OW39970  11.428   8.650  14.791
79358SOL    HW139971  11.439   8.735  14.750
79358SOL    HW239972  11.495   8.595  14.750
79359SOL     OW39973  13.547   9.817  14.653
79359SOL    HW139974  13.628   9.866  14.639
79359SOL    HW239975  13.551   9.791  14.745
79360SOL     OW39976   1.643  14.731   6.186
79360SOL    HW139977   1.701  14.666   6.225
79360SOL    HW239978   1.595  14.684   6.118
79361SOL     OW39979   9.703  11.952   8.965
79361SOL    HW139980   9.697  12.005   9.045
79361SOL    HW239981   9.612  11.936   8.940
79362SOL     OW39982  11.547  11.737  10.918
79362SOL    HW139983  11.578  11.647  10.907
79362SOL    HW239984  11.532  11.747  11.012
79363SOL     OW39985  10.239   7.164  14.833
79363SOL    HW139986  10.284   7.172  14.750
79363SOL    HW239987  10.190   7.082  14.826
79364SOL     OW39988   4.601  13.933   2.206
79364SOL    HW139989   4.579  14.026   2.202
79364SOL    HW239990   4.601  13.912   2.299
79365SOL     OW39991   9.288   1.110  11.925
79365SOL    HW139992   9.363   1.113  11.866
79365SOL    HW239993   9.221   1.063  11.875
79366SOL     OW39994   2.464   3.587   3.082
79366SOL    HW139995   2.523   3.618   3.013
79366SOL    HW239996   2.427   3.506   3.046
79367SOL     OW39997   7.958   5.891   5.786
79367SOL    HW139998   8.043   5.891   5.830
79367SOL    HW239999   7.894   5.897   5.858
79368SOL     OW40000  13.765  13.213   5.876
79368SOL    HW140001  13.729  13.251   5.796
79368SOL    HW240002  13.818  13.139   5.846
79369SOL     OW40003   3.446   9.489  10.435
79369SOL    HW140004   3.391   9.492  10.356
79369SOL    HW240005   3.535   9.479  10.401
79370SOL     OW40006  12.134  11.284  12.272
79370SOL    HW140007  12.164  11.196  12.297
79370SOL    HW240008  12.197  11.313  12.207
79371SOL     OW40009   3.484  14.307  12.802
79371SOL    HW140010   3.400  14.260  12.796
79371SOL    HW240011   3.530  14.263  12.873
79372SOL     OW40012  10.677   3.076   7.402
79372SOL    HW140013  10.620   3.035   7.336
79372SOL    HW240014  10.629   3.067   7.484
79373SOL     OW40015   0.781   3.661   3.158
79373SOL    HW140016   0.810   3.745   3.123
79373SOL    HW240017   0.815   3.596   3.097
79374SOL     OW40018   9.481  11.659  11.371
79374SOL    HW140019   9.475  11.746  11.408
79374SOL    HW240020   9.461  11.600  11.444
79375SOL     OW40021   8.289   7.676   3.664
79375SOL    HW140022   8.359   7.633   3.714
79375SOL    HW240023   8.230   7.605   3.639
79376SOL     OW40024   1.333  10.577   4.382
79376SOL    HW140025   1.422  10.599   4.355
79376SOL    HW240026   1.345  10.517   4.456
79377SOL     OW40027   2.825   3.715   9.589
79377SOL    HW140028   2.895   3.777   9.610
79377SOL    HW240029   2.764   3.721   9.662
79378SOL     OW40030   3.733   1.182  10.255
79378SOL    HW140031   3.753   1.093  10.282
79378SOL    HW240032   3.654   1.205  10.303
79379SOL     OW40033   3.238  12.178  14.471
79379SOL    HW140034   3.211  12.220  14.552
79379SOL    HW240035   3.177  12.211  14.405
79380SOL     OW40036   1.888  11.929  12.863
79380SOL    HW140037   1.893  12.001  12.926
79380SOL    HW240038   1.961  11.944  12.803
79381SOL     OW40039   8.907   2.230   8.239
79381SOL    HW140040   8.948   2.159   8.191
79381SOL    HW240041   8.861   2.281   8.173
79382SOL     OW40042   1.312   7.692   6.961
79382SOL    HW140043   1.315   7.602   6.993
79382SOL    HW240044   1.295   7.745   7.039
79383SOL     OW40045   5.329  11.511   7.860
79383SOL    HW140046   5.382  11.571   7.911
79383SOL    HW240047   5.239  11.534   7.882
79384SOL     OW40048   1.385  11.060   8.537
79384SOL    HW140049   1.421  11.148   8.533
79384SOL    HW240050   1.455  11.007   8.576
79385SOL     OW40051   3.676   5.700  14.304
79385SOL    HW140052   3.602   5.732  14.251
79385SOL    HW240053   3.752   5.707  14.246
79386SOL     OW40054   3.578  12.851   9.661
79386SOL    HW140055   3.641  12.922   9.673
79386SOL    HW240056   3.493  12.895   9.657
79387SOL     OW40057   5.171  13.872   4.597
79387SOL    HW140058   5.137  13.936   4.534
79387SOL    HW240059   5.217  13.808   4.543
79388SOL     OW40060   5.138   1.827   6.181
79388SOL    HW140061   5.079   1.901   6.169
79388SOL    HW240062   5.183   1.846   6.264
79389SOL     OW40063   4.648  13.364  14.033
79389SOL    HW140064   4.577  13.398  13.978
79389SOL    HW240065   4.683  13.290  13.984
79390SOL     OW40066  10.011   4.298   9.169
79390SOL    HW140067  10.055   4.381   9.153
79390SOL    HW240068  10.069   4.232   9.130
79391SOL     OW40069  11.615  13.316   9.724
79391SOL    HW140070  11.630  13.403   9.761
79391SOL    HW240071  11.543  13.280   9.775
79392SOL     OW40072  11.996  10.448   2.497
79392SOL    HW140073  11.933  10.450   2.425
79392SOL    HW240074  12.066  10.391   2.467
79393SOL     OW40075   9.315  11.145   0.582
79393SOL    HW140076   9.357  11.108   0.504
79393SOL    HW240077   9.257  11.075   0.613
79394SOL     OW40078  11.273   3.200   3.386
79394SOL    HW140079  11.195   3.177   3.335
79394SOL    HW240080  11.258   3.291   3.412
79395SOL     OW40081   8.186  12.417  13.602
79395SOL    HW140082   8.154  12.456  13.683
79395SOL    HW240083   8.205  12.492  13.546
79396SOL     OW40084  12.452  10.392   9.626
79396SOL    HW140085  12.368  10.353   9.601
79396SOL    HW240086  12.448  10.482   9.594
79397SOL     OW40087   2.301  10.116   9.039
79397SOL    HW140088   2.240  10.179   9.077
79397SOL    HW240089   2.338  10.070   9.115
79398SOL     OW40090   8.086  11.940  10.313
79398SOL    HW140091   8.158  11.955  10.253
79398SOL    HW240092   8.100  12.002  10.384
79399SOL     OW40093   1.633   5.552   4.317
79399SOL    HW140094   1.552   5.501   4.316
79399SOL    HW240095   1.612   5.630   4.368
79400SOL     OW40096  11.812  10.627   2.081
79400SOL    HW140097  11.842  10.695   2.142
79400SOL    HW240098  11.805  10.548   2.134
79401SOL     OW40099  11.234   5.355  10.704
79401SOL    HW140100  11.301   5.397  10.759
79401SOL    HW240101  11.283   5.293  10.650
79402SOL     OW40102   2.979   5.984   4.229
79402SOL    HW140103   3.027   6.059   4.195
79402SOL    HW240104   2.931   5.950   4.154
79403SOL     OW40105   4.881   1.393  12.873
79403SOL    HW140106   4.897   1.453  12.800
79403SOL    HW240107   4.929   1.314  12.850
79404SOL     OW40108   5.461   8.541   4.203
79404SOL    HW140109   5.408   8.474   4.160
79404SOL    HW240110   5.448   8.525   4.297
79405SOL     OW40111   4.241   3.327  13.183
79405SOL    HW140112   4.187   3.272  13.126
79405SOL    HW240113   4.220   3.298  13.271
79406SOL     OW40114   8.549   4.321   4.078
79406SOL    HW140115   8.552   4.417   4.075
79406SOL    HW240116   8.546   4.301   4.172
79407SOL     OW40117  10.267  10.872  14.140
79407SOL    HW140118  10.327  10.803  14.113
79407SOL    HW240119  10.210  10.831  14.205
79408SOL     OW40120   7.431   8.964  14.325
79408SOL    HW140121   7.517   8.925  14.340
79408SOL    HW240122   7.370   8.904  14.366
79409SOL     OW40123   5.933   2.800  12.715
79409SOL    HW140124   5.903   2.818  12.805
79409SOL    HW240125   6.028   2.806  12.720
79410SOL     OW40126   3.442   0.732  14.190
79410SOL    HW140127   3.382   0.791  14.235
79410SOL    HW240128   3.475   0.784  14.116
79411SOL     OW40129   5.116   1.410   2.099
79411SOL    HW140130   5.070   1.334   2.135
79411SOL    HW240131   5.175   1.438   2.169
79412SOL     OW40132   4.744   5.648   7.504
79412SOL    HW140133   4.709   5.726   7.459
79412SOL    HW240134   4.823   5.626   7.455
79413SOL     OW40135  13.368  10.142   7.054
79413SOL    HW140136  13.378  10.077   6.985
79413SOL    HW240137  13.314  10.100   7.121
79414SOL     OW40138   0.605   1.767   6.682
79414SOL    HW140139   0.699   1.757   6.669
79414SOL    HW240140   0.566   1.752   6.596
79415SOL     OW40141   8.462   1.622  10.430
79415SOL    HW140142   8.445   1.672  10.350
79415SOL    HW240143   8.542   1.661  10.466
79416SOL     OW40144   3.425   1.203   7.762
79416SOL    HW140145   3.512   1.173   7.787
79416SOL    HW240146   3.417   1.178   7.670
79417SOL     OW40147   8.481  10.843   2.031
79417SOL    HW140148   8.393  10.806   2.020
79417SOL    HW240149   8.496  10.892   1.950
79418SOL     OW40150  13.771   4.917  10.062
79418SOL    HW140151  13.794   4.892   9.972
79418SOL    HW240152  13.846   4.890  10.114
79419SOL     OW40153   8.312  11.283   0.696
79419SOL    HW140154   8.314  11.260   0.603
79419SOL    HW240155   8.403  11.274   0.725
79420SOL     OW40156   3.640   9.601   6.017
79420SOL    HW140157   3.578   9.648   6.073
79420SOL    HW240158   3.724   9.644   6.033
79421SOL     OW40159   4.874  14.576   8.662
79421SOL    HW140160   4.887  14.586   8.756
79421SOL    HW240161   4.959  14.595   8.623
79422SOL     OW40162  12.815  14.310   0.536
79422SOL    HW140163  12.872  14.235   0.518
79422SOL    HW240164  12.736  14.272   0.572
79423SOL     OW40165  14.414   7.379   9.285
79423SOL    HW140166  14.388   7.471   9.292
79423SOL    HW240167  14.342   7.337   9.238
79424SOL     OW40168  11.657   2.403   6.773
79424SOL    HW140169  11.648   2.359   6.858
79424SOL    HW240170  11.730   2.464   6.785
79425SOL     OW40171   9.835   9.178  10.292
79425SOL    HW140172   9.840   9.252  10.353
79425SOL    HW240173   9.857   9.216  10.207
79426SOL     OW40174   6.565  11.824   6.473
79426SOL    HW140175   6.553  11.919   6.463
79426SOL    HW240176   6.561  11.790   6.383
79427SOL     OW40177   7.759   0.540   8.090
79427SOL    HW140178   7.758   0.574   8.180
79427SOL    HW240179   7.722   0.611   8.037
79428SOL     OW40180   8.077  10.942   0.710
79428SOL    HW140181   8.170  10.934   0.688
79428SOL    HW240182   8.044  10.852   0.707
79429SOL     OW40183   0.951  10.724   5.097
79429SOL    HW140184   1.033  10.676   5.089
79429SOL    HW240185   0.952  10.784   5.022
79430SOL     OW40186   3.061  12.829   1.542
79430SOL    HW140187   3.156  12.835   1.532
79430SOL    HW240188   3.047  12.751   1.595
79431SOL     OW40189   3.960   4.018   9.668
79431SOL    HW140190   3.977   4.000   9.761
79431SOL    HW240191   3.876   3.974   9.651
79432SOL     OW40192   4.436  11.678   3.668
79432SOL    HW140193   4.519  11.682   3.621
79432SOL    HW240194   4.430  11.588   3.700
79433SOL     OW40195   7.166  10.081   4.781
79433SOL    HW140196   7.128  10.008   4.830
79433SOL    HW240197   7.189  10.044   4.696
79434SOL     OW40198  12.455  12.130   8.637
79434SOL    HW140199  12.465  12.048   8.588
79434SOL    HW240200  12.442  12.197   8.569
79435SOL     OW40201   5.563  11.021  14.846
79435SOL    HW140202   5.536  11.100   0.013
79435SOL    HW240203   5.657  11.015  14.862
79436SOL     OW40204   6.105   1.874   7.875
79436SOL    HW140205   6.110   1.961   7.916
79436SOL    HW240206   6.176   1.825   7.917
79437SOL     OW40207   1.039   6.128  14.122
79437SOL    HW140208   1.042   6.172  14.037
79437SOL    HW240209   1.040   6.199  14.186
79438SOL     OW40210  10.475   5.529   2.362
79438SOL    HW140211  10.493   5.480   2.443
79438SOL    HW240212  10.474   5.462   2.294
79439SOL     OW40213   5.634  14.516  11.734
79439SOL    HW140214   5.610  14.558  11.816
79439SOL    HW240215   5.569  14.547  11.671
79440SOL     OW40216  12.050   6.507   9.655
79440SOL    HW140217  12.065   6.415   9.633
79440SOL    HW240218  12.112   6.525   9.725
79441SOL     OW40219   3.313   3.992  12.252
79441SOL    HW140220   3.318   4.080  12.215
79441SOL    HW240221   3.387   3.987  12.312
79442SOL     OW40222   7.749  10.228   9.600
79442SOL    HW140223   7.730  10.308   9.553
79442SOL    HW240224   7.704  10.238   9.684
79443SOL     OW40225  13.357   6.102  12.302
79443SOL    HW140226  13.267   6.127  12.282
79443SOL    HW240227  13.373   6.023  12.251
79444SOL     OW40228   5.496   8.531   5.188
79444SOL    HW140229   5.524   8.443   5.210
79444SOL    HW240230   5.437   8.556   5.259
79445SOL     OW40231  14.449   7.663   8.158
79445SOL    HW140232  14.420   7.608   8.085
79445SOL    HW240233  14.474   7.746   8.116
79446SOL     OW40234   0.580   1.732  13.744
79446SOL    HW140235   0.516   1.664  13.724
79446SOL    HW240236   0.583   1.786  13.665
79447SOL     OW40237   1.862   2.749   1.262
79447SOL    HW140238   1.779   2.767   1.219
79447SOL    HW240239   1.887   2.832   1.303
79448SOL     OW40240   8.350  13.369   5.715
79448SOL    HW140241   8.393  13.283   5.719
79448SOL    HW240242   8.270  13.359   5.766
79449SOL     OW40243  12.669  12.496   6.639
79449SOL    HW140244  12.716  12.483   6.721
79449SOL    HW240245  12.717  12.445   6.574
79450SOL     OW40246   7.428   2.324  12.248
79450SOL    HW140247   7.489   2.356  12.315
79450SOL    HW240248   7.351   2.295  12.298
79451SOL     OW40249   4.364   7.921   0.450
79451SOL    HW140250   4.294   7.857   0.460
79451SOL    HW240251   4.356   7.951   0.360
79452SOL     OW40252   3.869   4.058   7.404
79452SOL    HW140253   3.961   4.081   7.417
79452SOL    HW240254   3.841   4.109   7.328
79453SOL     OW40255   1.784  10.117   7.925
79453SOL    HW140256   1.852  10.103   7.991
79453SOL    HW240257   1.776  10.031   7.882
79454SOL     OW40258  13.535   8.763   2.733
79454SOL    HW140259  13.507   8.819   2.806
79454SOL    HW240260  13.499   8.677   2.754
79455SOL     OW40261  10.628  10.053   9.080
79455SOL    HW140262  10.547  10.059   9.131
79455SOL    HW240263  10.694  10.097   9.134
79456SOL     OW40264   5.828   2.746  11.812
79456SOL    HW140265   5.816   2.821  11.754
79456SOL    HW240266   5.753   2.749  11.871
79457SOL     OW40267  10.086  14.863  10.925
79457SOL    HW140268  10.023   0.014  10.860
79457SOL    HW240269  10.172  14.878  10.884
79458SOL     OW40270   0.283   0.828   0.193
79458SOL    HW140271   0.229   0.749   0.192
79458SOL    HW240272   0.245   0.882   0.263
79459SOL     OW40273   0.570   7.367   0.023
79459SOL    HW140274   0.489   7.386  14.856
79459SOL    HW240275   0.590   7.447   0.071
79460SOL     OW40276   0.967   0.960   7.931
79460SOL    HW140277   0.878   0.938   7.957
79460SOL    HW240278   1.003   0.878   7.897
79461SOL     OW40279   6.520   4.143   0.372
79461SOL    HW140280   6.447   4.108   0.321
79461SOL    HW240281   6.592   4.152   0.310
79462SOL     OW40282  12.823   2.475   4.595
79462SOL    HW140283  12.909   2.510   4.569
79462SOL    HW240284  12.838   2.433   4.680
79463SOL     OW40285  13.480   5.901   2.225
79463SOL    HW140286  13.471   5.811   2.257
79463SOL    HW240287  13.422   5.905   2.149
79464SOL     OW40288   0.022  10.974   3.435
79464SOL    HW140289  14.828  10.954   3.377
79464SOL    HW240290   0.017  10.909   3.504
79465SOL     OW40291  12.106   3.271   0.556
79465SOL    HW140292  12.072   3.286   0.644
79465SOL    HW240293  12.193   3.309   0.556
79466SOL     OW40294   4.413   5.679   9.863
79466SOL    HW140295   4.381   5.591   9.882
79466SOL    HW240296   4.430   5.717   9.949
79467SOL     OW40297  12.250   1.787   1.942
79467SOL    HW140298  12.305   1.825   1.873
79467SOL    HW240299  12.219   1.862   1.992
79468SOL     OW40300   2.320   0.933   5.964
79468SOL    HW140301   2.341   0.841   5.946
79468SOL    HW240302   2.402   0.979   5.950
79469SOL     OW40303  11.163  11.045  10.370
79469SOL    HW140304  11.256  11.040  10.347
79469SOL    HW240305  11.150  11.135  10.398
79470SOL     OW40306   2.148   7.772   0.368
79470SOL    HW140307   2.215   7.736   0.309
79470SOL    HW240308   2.120   7.853   0.325
79471SOL     OW40309   9.754  11.521   8.519
79471SOL    HW140310   9.783  11.529   8.610
79471SOL    HW240311   9.705  11.438   8.517
79472SOL     OW40312  12.659   1.094   8.167
79472SOL    HW140313  12.750   1.088   8.141
79472SOL    HW240314  12.647   1.186   8.193
79473SOL     OW40315   8.011  10.049  13.276
79473SOL    HW140316   8.076  10.115  13.295
79473SOL    HW240317   7.964  10.082  13.200
79474SOL     OW40318   9.079   7.156   1.510
79474SOL    HW140319   9.078   7.212   1.587
79474SOL    HW240320   9.142   7.196   1.450
79475SOL     OW40321  10.475   1.170   5.727
79475SOL    HW140322  10.475   1.171   5.631
79475SOL    HW240323  10.452   1.259   5.752
79476SOL     OW40324   7.583   0.910   9.471
79476SOL    HW140325   7.662   0.887   9.422
79476SOL    HW240326   7.516   0.848   9.439
79477SOL     OW40327   8.367   5.432   0.458
79477SOL    HW140328   8.289   5.465   0.503
79477SOL    HW240329   8.358   5.337   0.460
79478SOL     OW40330  14.059  12.299   4.128
79478SOL    HW140331  14.041  12.207   4.108
79478SOL    HW240332  13.992  12.348   4.081
79479SOL     OW40333   6.399  12.880   6.178
79479SOL    HW140334   6.304  12.893   6.169
79479SOL    HW240335   6.437  12.941   6.115
79480SOL     OW40336  14.749   1.510   6.822
79480SOL    HW140337  14.732   1.568   6.748
79480SOL    HW240338  14.844   1.512   6.832
79481SOL     OW40339   9.480   3.741   9.056
79481SOL    HW140340   9.493   3.828   9.017
79481SOL    HW240341   9.539   3.684   9.008
79482SOL     OW40342  14.076   2.127   0.806
79482SOL    HW140343  14.004   2.151   0.748
79482SOL    HW240344  14.033   2.090   0.884
79483SOL     OW40345   7.507  11.654  12.731
79483SOL    HW140346   7.598  11.629  12.750
79483SOL    HW240347   7.470  11.578  12.688
79484SOL     OW40348   1.157  14.648  11.338
79484SOL    HW140349   1.245  14.611  11.337
79484SOL    HW240350   1.099  14.574  11.322
79485SOL     OW40351  11.467   2.516  14.698
79485SOL    HW140352  11.385   2.472  14.676
79485SOL    HW240353  11.462   2.529  14.793
79486SOL     OW40354   4.473  13.208  12.486
79486SOL    HW140355   4.506  13.187  12.573
79486SOL    HW240356   4.549  13.201  12.428
79487SOL     OW40357   4.064   6.808  10.945
79487SOL    HW140358   4.123   6.867  10.897
79487SOL    HW240359   4.005   6.773  10.878
79488SOL     OW40360   4.545  14.539   8.827
79488SOL    HW140361   4.635  14.549   8.797
79488SOL    HW240362   4.502  14.621   8.802
79489SOL     OW40363  14.334   3.235  12.174
79489SOL    HW140364  14.364   3.311  12.124
79489SOL    HW240365  14.348   3.260  12.266
79490SOL     OW40366   4.130   4.174   4.914
79490SOL    HW140367   4.080   4.093   4.904
79490SOL    HW240368   4.069   4.234   4.957
79491SOL     OW40369  13.971   1.189  10.116
79491SOL    HW140370  13.940   1.259  10.174
79491SOL    HW240371  14.013   1.126  10.175
79492SOL     OW40372   5.296   8.971   3.108
79492SOL    HW140373   5.369   8.971   3.046
79492SOL    HW240374   5.312   8.895   3.164
79493SOL     OW40375   3.073  14.471   2.975
79493SOL    HW140376   3.015  14.508   2.909
79493SOL    HW240377   3.014  14.441   3.044
79494SOL     OW40378   3.868   9.424   9.771
79494SOL    HW140379   3.784   9.470   9.768
79494SOL    HW240380   3.850   9.338   9.733
79495SOL     OW40381  14.605   0.117   6.521
79495SOL    HW140382  14.581   0.028   6.547
79495SOL    HW240383  14.658   0.150   6.593
79496SOL     OW40384   6.265   9.925  14.620
79496SOL    HW140385   6.296  10.011  14.591
79496SOL    HW240386   6.240   9.881  14.539
79497SOL     OW40387   5.195   3.367   8.923
79497SOL    HW140388   5.181   3.361   9.018
79497SOL    HW240389   5.240   3.450   8.911
79498SOL     OW40390   7.646   2.731   0.779
79498SOL    HW140391   7.732   2.752   0.744
79498SOL    HW240392   7.601   2.816   0.785
79499SOL     OW40393  10.295   5.588   4.444
79499SOL    HW140394  10.382   5.619   4.419
79499SOL    HW240395  10.244   5.594   4.363
79500SOL     OW40396  12.317   7.093   5.603
79500SOL    HW140397  12.363   7.099   5.686
79500SOL    HW240398  12.314   7.183   5.571
79501SOL     OW40399  10.275   4.279   1.299
79501SOL    HW140400  10.346   4.338   1.325
79501SOL    HW240401  10.261   4.297   1.206
79502SOL     OW40402   0.938   2.225   8.947
79502SOL    HW140403   0.872   2.265   8.890
79502SOL    HW240404   0.961   2.143   8.903
79503SOL     OW40405   7.639  14.465   2.910
79503SOL    HW140406   7.725  14.442   2.875
79503SOL    HW240407   7.656  14.483   3.003
79504SOL     OW40408   4.207  13.055   0.672
79504SOL    HW140409   4.254  13.106   0.606
79504SOL    HW240410   4.244  13.084   0.755
79505SOL     OW40411   4.662  10.563   7.093
79505SOL    HW140412   4.665  10.517   7.177
79505SOL    HW240413   4.627  10.499   7.031
79506SOL     OW40414   1.029   1.549   6.483
79506SOL    HW140415   0.958   1.501   6.439
79506SOL    HW240416   0.995   1.567   6.571
79507SOL     OW40417   8.358  11.383   7.439
79507SOL    HW140418   8.308  11.414   7.515
79507SOL    HW240419   8.391  11.463   7.398
79508SOL     OW40420   6.880   1.095  11.551
79508SOL    HW140421   6.851   1.168  11.497
79508SOL    HW240422   6.933   1.041  11.492
79509SOL     OW40423   4.249   6.351   1.452
79509SOL    HW140424   4.322   6.361   1.513
79509SOL    HW240425   4.182   6.305   1.503
79510SOL     OW40426   5.116   2.466   4.043
79510SOL    HW140427   5.130   2.375   4.018
79510SOL    HW240428   5.080   2.507   3.965
79511SOL     OW40429   4.089   9.852   2.557
79511SOL    HW140430   4.020   9.787   2.555
79511SOL    HW240431   4.167   9.804   2.583
79512SOL     OW40432   8.278   1.469   8.702
79512SOL    HW140433   8.304   1.391   8.653
79512SOL    HW240434   8.320   1.541   8.655
79513SOL     OW40435   9.680   2.282   1.862
79513SOL    HW140436   9.764   2.293   1.819
79513SOL    HW240437   9.694   2.213   1.927
79514SOL     OW40438   5.009  12.411  14.127
79514SOL    HW140439   4.982  12.391  14.038
79514SOL    HW240440   5.016  12.507  14.130
79515SOL     OW40441  10.264   0.646  10.642
79515SOL    HW140442  10.304   0.566  10.606
79515SOL    HW240443  10.311   0.718  10.600
79516SOL     OW40444   4.564   3.015   7.629
79516SOL    HW140445   4.514   2.975   7.701
79516SOL    HW240446   4.503   3.020   7.556
79517SOL     OW40447  12.885   9.158  12.497
79517SOL    HW140448  12.798   9.191  12.476
79517SOL    HW240449  12.940   9.236  12.498
79518SOL     OW40450   6.539   5.206   7.570
79518SOL    HW140451   6.632   5.198   7.549
79518SOL    HW240452   6.514   5.291   7.533
79519SOL     OW40453   7.017   1.779   5.294
79519SOL    HW140454   7.070   1.789   5.373
79519SOL    HW240455   6.927   1.786   5.325
79520SOL     OW40456   2.392  13.097   5.795
79520SOL    HW140457   2.398  13.106   5.890
79520SOL    HW240458   2.476  13.127   5.763
79521SOL     OW40459   6.645   7.443  14.314
79521SOL    HW140460   6.565   7.483  14.280
79521SOL    HW240461   6.707   7.516  14.322
79522SOL     OW40462  11.491   6.105   9.997
79522SOL    HW140463  11.457   6.134  10.081
79522SOL    HW240464  11.502   6.186   9.946
79523SOL     OW40465  14.722  11.125   0.906
79523SOL    HW140466  14.661  11.167   0.844
79523SOL    HW240467  14.677  11.129   0.990
79524SOL     OW40468   0.690   7.032   5.894
79524SOL    HW140469   0.612   7.067   5.937
79524SOL    HW240470   0.675   7.047   5.801
79525SOL     OW40471   1.862  10.379  14.790
79525SOL    HW140472   1.886  10.397   0.000
79525SOL    HW240473   1.855  10.283  14.785
79526SOL     OW40474   4.038  13.204   4.624
79526SOL    HW140475   4.081  13.119   4.628
79526SOL    HW240476   4.087  13.259   4.684
79527SOL     OW40477   9.555   0.974   1.864
79527SOL    HW140478   9.505   1.040   1.912
79527SOL    HW240479   9.502   0.955   1.786
79528SOL     OW40480   6.746  10.829   0.867
79528SOL    HW140481   6.806  10.904   0.868
79528SOL    HW240482   6.660  10.867   0.853
79529SOL     OW40483   3.829  10.680   1.877
79529SOL    HW140484   3.881  10.668   1.798
79529SOL    HW240485   3.748  10.720   1.847
79530SOL     OW40486   4.435   0.734   5.591
79530SOL    HW140487   4.513   0.789   5.582
79530SOL    HW240488   4.465   0.647   5.566
79531SOL     OW40489   4.895   1.144   6.267
79531SOL    HW140490   4.941   1.197   6.203
79531SOL    HW240491   4.805   1.179   6.267
79532SOL     OW40492   9.875  14.249   9.591
79532SOL    HW140493   9.820  14.219   9.663
79532SOL    HW240494   9.956  14.198   9.600
79533SOL     OW40495   1.627  11.081   0.426
79533SOL    HW140496   1.627  11.040   0.513
79533SOL    HW240497   1.719  11.082   0.400
79534SOL     OW40498  11.881  11.275   5.816
79534SOL    HW140499  11.821  11.203   5.795
79534SOL    HW240500  11.846  11.351   5.770
79535SOL     OW40501   4.039   3.076   6.051
79535SOL    HW140502   4.072   3.045   6.135
79535SOL    HW240503   3.945   3.059   6.053
79536SOL     OW40504   1.196   6.181  11.621
79536SOL    HW140505   1.189   6.270  11.589
79536SOL    HW240506   1.281   6.179  11.665
79537SOL     OW40507   1.751   2.248   1.382
79537SOL    HW140508   1.819   2.294   1.333
79537SOL    HW240509   1.700   2.318   1.423
79538SOL     OW40510   3.740   8.025   3.387
79538SOL    HW140511   3.677   7.989   3.450
79538SOL    HW240512   3.780   7.947   3.347
79539SOL     OW40513   3.844   5.040   6.510
79539SOL    HW140514   3.764   5.046   6.458
79539SOL    HW240515   3.900   5.109   6.475
79540SOL     OW40516   8.957   8.363  10.654
79540SOL    HW140517   8.933   8.454  10.637
79540SOL    HW240518   9.008   8.366  10.735
79541SOL     OW40519  11.175   8.713  10.267
79541SOL    HW140520  11.238   8.730  10.337
79541SOL    HW240521  11.177   8.618  10.256
79542SOL     OW40522   3.442  11.165   3.530
79542SOL    HW140523   3.534  11.188   3.542
79542SOL    HW240524   3.406  11.162   3.619
79543SOL     OW40525   6.562   0.173   1.401
79543SOL    HW140526   6.526   0.231   1.334
79543SOL    HW240527   6.651   0.153   1.371
79544SOL     OW40528  11.315   0.461   6.259
79544SOL    HW140529  11.326   0.391   6.324
79544SOL    HW240530  11.238   0.510   6.289
79545SOL     OW40531   0.718   6.462   9.687
79545SOL    HW140532   0.730   6.556   9.690
79545SOL    HW240533   0.672   6.446   9.604
79546SOL     OW40534   1.187   1.263   0.494
79546SOL    HW140535   1.218   1.175   0.515
79546SOL    HW240536   1.264   1.319   0.505
79547SOL     OW40537   2.072   1.457   8.767
79547SOL    HW140538   2.125   1.529   8.803
79547SOL    HW240539   2.001   1.446   8.829
79548SOL     OW40540   8.801   2.083   1.950
79548SOL    HW140541   8.820   2.072   1.857
79548SOL    HW240542   8.709   2.058   1.960
79549SOL     OW40543  14.348   0.111   6.792
79549SOL    HW140544  14.315   0.103   6.703
79549SOL    HW240545  14.354   0.021   6.824
79550SOL     OW40546   5.948   8.958   9.502
79550SOL    HW140547   5.966   8.894   9.571
79550SOL    HW240548   6.033   8.994   9.480
79551SOL     OW40549  14.474   1.584  10.462
79551SOL    HW140550  14.520   1.505  10.489
79551SOL    HW240551  14.393   1.583  10.512
79552SOL     OW40552   0.918   0.076  10.087
79552SOL    HW140553   0.845   0.030  10.128
79552SOL    HW240554   0.934   0.028  10.006
79553SOL     OW40555  12.217  14.422   3.839
79553SOL    HW140556  12.193  14.381   3.755
79553SOL    HW240557  12.230  14.514   3.817
79554SOL     OW40558   1.318  14.370   7.371
79554SOL    HW140559   1.239  14.351   7.320
79554SOL    HW240560   1.298  14.453   7.414
79555SOL     OW40561   9.317  11.205   9.480
79555SOL    HW140562   9.257  11.228   9.409
79555SOL    HW240563   9.281  11.248   9.557
79556SOL     OW40564   8.218   0.643   7.611
79556SOL    HW140565   8.281   0.668   7.544
79556SOL    HW240566   8.267   0.645   7.693
79557SOL     OW40567   9.034  13.700   8.066
79557SOL    HW140568   9.011  13.698   8.159
79557SOL    HW240569   8.951  13.715   8.021
79558SOL     OW40570   4.772  14.330   0.083
79558SOL    HW140571   4.816  14.253   0.120
79558SOL    HW240572   4.686  14.331   0.125
79559SOL     OW40573  10.945   1.310   5.835
79559SOL    HW140574  10.854   1.337   5.822
79559SOL    HW240575  10.983   1.379   5.889
79560SOL     OW40576   7.588   9.369   9.017
79560SOL    HW140577   7.585   9.316   8.937
79560SOL    HW240578   7.679   9.361   9.047
79561SOL     OW40579   6.242  10.414  10.066
79561SOL    HW140580   6.215  10.328  10.035
79561SOL    HW240581   6.191  10.476  10.013
79562SOL     OW40582   4.628   5.227  14.630
79562SOL    HW140583   4.611   5.258  14.541
79562SOL    HW240584   4.713   5.265  14.653
79563SOL     OW40585  12.250   4.321   0.753
79563SOL    HW140586  12.251   4.334   0.658
79563SOL    HW240587  12.174   4.370   0.783
79564SOL     OW40588  10.596   8.523   0.177
79564SOL    HW140589  10.571   8.615   0.187
79564SOL    HW240590  10.691   8.525   0.165
79565SOL     OW40591  14.115   0.397   5.330
79565SOL    HW140592  14.083   0.410   5.420
79565SOL    HW240593  14.038   0.407   5.275
79566SOL     OW40594   9.659  11.744   9.778
79566SOL    HW140595   9.690  11.676   9.837
79566SOL    HW240596   9.729  11.810   9.778
79567SOL     OW40597   1.205   5.380   5.930
79567SOL    HW140598   1.125   5.327   5.932
79567SOL    HW240599   1.256   5.349   6.005
79568SOL     OW40600   5.335  10.826   5.430
79568SOL    HW140601   5.384  10.813   5.511
79568SOL    HW240602   5.282  10.904   5.446
79569SOL     OW40603   5.501   1.586  12.801
79569SOL    HW140604   5.505   1.681  12.811
79569SOL    HW240605   5.462   1.554  12.882
79570SOL     OW40606   4.979  11.743   1.661
79570SOL    HW140607   4.968  11.649   1.673
79570SOL    HW240608   4.985  11.755   1.566
79571SOL     OW40609  12.241   8.328   0.542
79571SOL    HW140610  12.173   8.266   0.569
79571SOL    HW240611  12.296   8.339   0.619
79572SOL     OW40612   3.984   3.537  14.487
79572SOL    HW140613   3.897   3.548  14.449
79572SOL    HW240614   4.042   3.585  14.429
79573SOL     OW40615   0.864   4.004   7.187
79573SOL    HW140616   0.787   3.971   7.141
79573SOL    HW240617   0.938   3.975   7.133
79574SOL     OW40618   8.484   7.252   9.143
79574SOL    HW140619   8.500   7.159   9.157
79574SOL    HW240620   8.397   7.257   9.105
79575SOL     OW40621   4.308   8.222  14.641
79575SOL    HW140622   4.358   8.169  14.579
79575SOL    HW240623   4.251   8.160  14.686
79576SOL     OW40624   4.285   5.275   6.670
79576SOL    HW140625   4.345   5.220   6.620
79576SOL    HW240626   4.330   5.358   6.680
79577SOL     OW40627   2.571  12.049  13.318
79577SOL    HW140628   2.615  12.129  13.345
79577SOL    HW240629   2.561  12.058  13.223
79578SOL     OW40630   6.426   6.776  14.488
79578SOL    HW140631   6.420   6.775  14.392
79578SOL    HW240632   6.503   6.830  14.506
79579SOL     OW40633   8.302  13.298   3.781
79579SOL    HW140634   8.231  13.353   3.747
79579SOL    HW240635   8.381  13.350   3.765
79580SOL     OW40636   7.863   6.887   8.215
79580SOL    HW140637   7.950   6.872   8.176
79580SOL    HW240638   7.877   6.957   8.279
79581SOL     OW40639   4.361  12.057   1.400
79581SOL    HW140640   4.318  11.979   1.435
79581SOL    HW240641   4.324  12.130   1.449
79582SOL     OW40642   9.558  11.493  13.024
79582SOL    HW140643   9.552  11.416  12.967
79582SOL    HW240644   9.608  11.557  12.973
79583SOL     OW40645  10.030   9.324  11.461
79583SOL    HW140646   9.991   9.263  11.400
79583SOL    HW240647  10.124   9.309  11.456
79584SOL     OW40648   2.554   8.509  12.221
79584SOL    HW140649   2.540   8.425  12.177
79584SOL    HW240650   2.503   8.572  12.170
79585SOL     OW40651  11.233   3.920   1.609
79585SOL    HW140652  11.208   3.998   1.560
79585SOL    HW240653  11.219   3.848   1.547
79586SOL     OW40654   6.849   2.518   1.512
79586SOL    HW140655   6.762   2.478   1.513
79586SOL    HW240656   6.910   2.444   1.509
79587SOL     OW40657   0.636   4.678   4.275
79587SOL    HW140658   0.692   4.740   4.321
79587SOL    HW240659   0.677   4.669   4.189
79588SOL     OW40660   2.603  10.062   7.841
79588SOL    HW140661   2.521  10.104   7.867
79588SOL    HW240662   2.602  10.065   7.745
79589SOL     OW40663   1.546  11.958   9.679
79589SOL    HW140664   1.544  11.942   9.585
79589SOL    HW240665   1.629  11.920   9.708
79590SOL     OW40666   9.633   8.883   1.925
79590SOL    HW140667   9.652   8.886   1.831
79590SOL    HW240668   9.609   8.792   1.942
79591SOL     OW40669   6.313   6.088   6.182
79591SOL    HW140670   6.358   6.059   6.261
79591SOL    HW240671   6.226   6.114   6.212
79592SOL     OW40672   0.225   3.292   6.980
79592SOL    HW140673   0.209   3.198   6.966
79592SOL    HW240674   0.269   3.296   7.065
79593SOL     OW40675   5.318   7.677   3.145
79593SOL    HW140676   5.389   7.686   3.209
79593SOL    HW240677   5.322   7.585   3.118
79594SOL     OW40678   5.032   0.867   0.498
79594SOL    HW140679   4.939   0.888   0.498
79594SOL    HW240680   5.035   0.772   0.485
79595SOL     OW40681   4.801  10.241   9.575
79595SOL    HW140682   4.753  10.324   9.577
79595SOL    HW240683   4.764  10.193   9.501
79596SOL     OW40684   0.739   2.564   2.593
79596SOL    HW140685   0.764   2.572   2.685
79596SOL    HW240686   0.698   2.648   2.572
79597SOL     OW40687   3.486  13.857  13.596
79597SOL    HW140688   3.473  13.937  13.646
79597SOL    HW240689   3.457  13.879  13.507
79598SOL     OW40690  11.148  13.478  12.147
79598SOL    HW140691  11.101  13.492  12.065
79598SOL    HW240692  11.083  13.500  12.215
79599SOL     OW40693   8.707  10.028  12.671
79599SOL    HW140694   8.763   9.953  12.687
79599SOL    HW240695   8.764  10.104  12.681
79600SOL     OW40696   4.030  10.965   0.721
79600SOL    HW140697   3.964  10.914   0.768
79600SOL    HW240698   4.067  10.903   0.657
79601SOL     OW40699   1.301  10.417   2.393
79601SOL    HW140700   1.224  10.474   2.403
79601SOL    HW240701   1.366  10.454   2.452
79602SOL     OW40702   3.343   0.302  12.165
79602SOL    HW140703   3.293   0.352  12.100
79602SOL    HW240704   3.379   0.229  12.115
79603SOL     OW40705  10.925   0.337   6.197
79603SOL    HW140706  10.954   0.247   6.211
79603SOL    HW240707  10.832   0.330   6.176
79604SOL     OW40708   8.366   7.056   8.813
79604SOL    HW140709   8.400   6.967   8.803
79604SOL    HW240710   8.433   7.111   8.773
79605SOL     OW40711   7.256   7.006   3.994
79605SOL    HW140712   7.232   7.082   3.941
79605SOL    HW240713   7.229   7.028   4.083
79606SOL     OW40714  11.147   2.306   5.959
79606SOL    HW140715  11.183   2.390   5.930
79606SOL    HW240716  11.056   2.307   5.929
79607SOL     OW40717   7.243   9.460   6.239
79607SOL    HW140718   7.307   9.515   6.283
79607SOL    HW240719   7.293   9.386   6.205
79608SOL     OW40720   8.383   7.342   8.162
79608SOL    HW140721   8.407   7.420   8.113
79608SOL    HW240722   8.466   7.303   8.187
79609SOL     OW40723   3.684   0.977   7.065
79609SOL    HW140724   3.775   0.950   7.056
79609SOL    HW240725   3.688   1.068   7.095
79610SOL     OW40726   2.422   8.369   5.126
79610SOL    HW140727   2.361   8.299   5.149
79610SOL    HW240728   2.367   8.447   5.116
79611SOL     OW40729  10.308   0.780   1.143
79611SOL    HW140730  10.341   0.718   1.078
79611SOL    HW240731  10.374   0.850   1.145
79612SOL     OW40732  12.329   5.999   0.128
79612SOL    HW140733  12.279   6.070   0.087
79612SOL    HW240734  12.273   5.969   0.200
79613SOL     OW40735   3.582   6.293   6.293
79613SOL    HW140736   3.487   6.291   6.302
79613SOL    HW240737   3.614   6.320   6.379
79614SOL     OW40738   1.859  11.992  10.369
79614SOL    HW140739   1.917  11.952  10.434
79614SOL    HW240740   1.774  11.953  10.387
79615SOL     OW40741  10.745  13.821  14.074
79615SOL    HW140742  10.822  13.771  14.100
79615SOL    HW240743  10.755  13.905  14.119
79616SOL     OW40744   0.894   5.711  10.795
79616SOL    HW140745   0.862   5.621  10.796
79616SOL    HW240746   0.955   5.715  10.868
79617SOL     OW40747   8.840   3.967   5.224
79617SOL    HW140748   8.903   3.982   5.295
79617SOL    HW240749   8.766   4.023   5.247
79618SOL     OW40750  10.484   5.301   9.992
79618SOL    HW140751  10.508   5.317   9.901
79618SOL    HW240752  10.500   5.207  10.005
79619SOL     OW40753   2.581  10.790  13.637
79619SOL    HW140754   2.488  10.776  13.623
79619SOL    HW240755   2.596  10.882  13.614
79620SOL     OW40756   4.373  13.355   9.004
79620SOL    HW140757   4.435  13.425   8.982
79620SOL    HW240758   4.392  13.286   8.940
79621SOL     OW40759   3.682   1.332   5.742
79621SOL    HW140760   3.669   1.368   5.829
79621SOL    HW240761   3.686   1.237   5.756
79622SOL     OW40762   9.044  11.117   4.844
79622SOL    HW140763   9.127  11.099   4.800
79622SOL    HW240764   9.067  11.119   4.937
79623SOL     OW40765   6.471  12.965   2.222
79623SOL    HW140766   6.401  12.915   2.179
79623SOL    HW240767   6.499  13.028   2.156
79624SOL     OW40768   1.739   2.648   3.930
79624SOL    HW140769   1.794   2.594   3.987
79624SOL    HW240770   1.798   2.718   3.901
79625SOL     OW40771  14.247   3.958   6.971
79625SOL    HW140772  14.312   3.888   6.967
79625SOL    HW240773  14.228   3.968   7.064
79626SOL     OW40774  13.700   1.652   0.937
79626SOL    HW140775  13.785   1.648   0.981
79626SOL    HW240776  13.643   1.593   0.987
79627SOL     OW40777  12.277   9.358   9.352
79627SOL    HW140778  12.364   9.328   9.327
79627SOL    HW240779  12.291   9.448   9.383
79628SOL     OW40780   8.230   9.865  12.354
79628SOL    HW140781   8.159   9.801  12.348
79628SOL    HW240782   8.210   9.915  12.433
79629SOL     OW40783   1.628   2.024  12.379
79629SOL    HW140784   1.678   2.104  12.396
79629SOL    HW240785   1.618   1.984  12.466
79630SOL     OW40786   6.648  12.071   1.343
79630SOL    HW140787   6.620  12.146   1.290
79630SOL    HW240788   6.603  12.082   1.427
79631SOL     OW40789  13.915  11.671   1.892
79631SOL    HW140790  13.821  11.683   1.882
79631SOL    HW240791  13.930  11.579   1.875
79632SOL     OW40792   3.661  10.173   4.872
79632SOL    HW140793   3.570  10.183   4.901
79632SOL    HW240794   3.676  10.079   4.869
79633SOL     OW40795   3.378   1.334  11.133
79633SOL    HW140796   3.301   1.285  11.163
79633SOL    HW240797   3.427   1.353  11.213
79634SOL     OW40798   8.148   2.453   3.100
79634SOL    HW140799   8.226   2.495   3.136
79634SOL    HW240800   8.134   2.375   3.155
79635SOL     OW40801   2.519   0.808   8.122
79635SOL    HW140802   2.487   0.890   8.085
79635SOL    HW240803   2.454   0.743   8.096
79636SOL     OW40804  14.159   3.343   9.201
79636SOL    HW140805  14.237   3.323   9.149
79636SOL    HW240806  14.192   3.394   9.275
79637SOL     OW40807   2.871   6.659  14.417
79637SOL    HW140808   2.890   6.641  14.509
79637SOL    HW240809   2.812   6.734  14.419
79638SOL     OW40810   0.760  11.731  13.802
79638SOL    HW140811   0.678  11.695  13.835
79638SOL    HW240812   0.828  11.691  13.857
79639SOL     OW40813   0.245  10.380   3.773
79639SOL    HW140814   0.252  10.289   3.800
79639SOL    HW240815   0.156  10.389   3.740
79640SOL     OW40816   8.226   9.394  12.256
79640SOL    HW140817   8.224   9.336  12.179
79640SOL    HW240818   8.209   9.335  12.330
79641SOL     OW40819   7.285   1.398   5.217
79641SOL    HW140820   7.368   1.386   5.171
79641SOL    HW240821   7.281   1.325   5.279
79642SOL     OW40822   6.324  12.053   3.621
79642SOL    HW140823   6.395  12.052   3.557
79642SOL    HW240824   6.260  11.991   3.587
79643SOL     OW40825   2.013   8.297   1.721
79643SOL    HW140826   2.008   8.388   1.749
79643SOL    HW240827   2.015   8.301   1.626
79644SOL     OW40828   2.354  10.245   6.678
79644SOL    HW140829   2.302  10.170   6.648
79644SOL    HW240830   2.412  10.264   6.604
79645SOL     OW40831   5.810  10.773   7.692
79645SOL    HW140832   5.797  10.678   7.701
79645SOL    HW240833   5.758  10.810   7.764
79646SOL     OW40834   1.712   7.218   5.393
79646SOL    HW140835   1.619   7.235   5.381
79646SOL    HW240836   1.717   7.125   5.415
79647SOL     OW40837   9.659  10.949   7.374
79647SOL    HW140838   9.584  10.992   7.332
79647SOL    HW240839   9.664  10.863   7.332
79648SOL     OW40840   8.711  11.813   8.290
79648SOL    HW140841   8.703  11.733   8.238
79648SOL    HW240842   8.678  11.789   8.376
79649SOL     OW40843   4.931  10.453  11.642
79649SOL    HW140844   5.002  10.515  11.625
79649SOL    HW240845   4.973  10.378  11.684
79650SOL     OW40846   7.600  10.325  12.086
79650SOL    HW140847   7.550  10.264  12.032
79650SOL    HW240848   7.619  10.276  12.167
79651SOL     OW40849  12.644   9.603   4.133
79651SOL    HW140850  12.673   9.513   4.124
79651SOL    HW240851  12.718   9.656   4.103
79652SOL     OW40852  13.847  10.838   2.055
79652SOL    HW140853  13.941  10.834   2.040
79652SOL    HW240854  13.826  10.931   2.047
79653SOL     OW40855   5.772   7.746  11.520
79653SOL    HW140856   5.833   7.798  11.572
79653SOL    HW240857   5.703   7.807  11.495
79654SOL     OW40858  12.770   1.732  13.856
79654SOL    HW140859  12.802   1.644  13.834
79654SOL    HW240860  12.733   1.723  13.944
79655SOL     OW40861   5.550   8.827   6.804
79655SOL    HW140862   5.553   8.891   6.874
79655SOL    HW240863   5.523   8.876   6.726
79656SOL     OW40864   1.266   7.248   2.868
79656SOL    HW140865   1.196   7.311   2.851
79656SOL    HW240866   1.265   7.237   2.964
79657SOL     OW40867   2.346   9.278  14.836
79657SOL    HW140868   2.323   9.352  14.779
79657SOL    HW240869   2.438   9.292  14.857
79658SOL     OW40870  12.707   8.752  13.742
79658SOL    HW140871  12.685   8.737  13.650
79658SOL    HW240872  12.631   8.722  13.791
79659SOL     OW40873   7.235  12.674   7.487
79659SOL    HW140874   7.290  12.748   7.510
79659SOL    HW240875   7.285  12.627   7.419
79660SOL     OW40876  11.590   6.464   6.651
79660SOL    HW140877  11.683   6.441   6.656
79660SOL    HW240878  11.561   6.430   6.566
79661SOL     OW40879  11.593   5.173   5.509
79661SOL    HW140880  11.526   5.220   5.459
79661SOL    HW240881  11.543   5.121   5.573
79662SOL     OW40882  14.080   4.812  13.993
79662SOL    HW140883  14.163   4.768  13.975
79662SOL    HW240884  14.019   4.775  13.929
79663SOL     OW40885   2.059   3.944   8.618
79663SOL    HW140886   2.090   4.026   8.580
79663SOL    HW240887   2.135   3.907   8.662
79664SOL     OW40888   1.486  11.870   2.484
79664SOL    HW140889   1.486  11.939   2.418
79664SOL    HW240890   1.399  11.874   2.522
79665SOL     OW40891  10.834   6.346  10.256
79665SOL    HW140892  10.840   6.264  10.208
79665SOL    HW240893  10.746   6.345  10.295
79666SOL     OW40894   3.890  13.257   7.534
79666SOL    HW140895   3.826  13.186   7.538
79666SOL    HW240896   3.885  13.289   7.444
79667SOL     OW40897   3.613   2.891   1.898
79667SOL    HW140898   3.621   2.829   1.970
79667SOL    HW240899   3.629   2.977   1.939
79668SOL     OW40900  11.328   9.402   8.354
79668SOL    HW140901  11.299   9.358   8.275
79668SOL    HW240902  11.416   9.434   8.332
79669SOL     OW40903   7.709   4.779   9.197
79669SOL    HW140904   7.689   4.867   9.231
79669SOL    HW240905   7.781   4.793   9.136
79670SOL     OW40906   1.280  13.281   5.102
79670SOL    HW140907   1.309  13.331   5.178
79670SOL    HW240908   1.190  13.258   5.122
79671SOL     OW40909  10.172   7.062   9.146
79671SOL    HW140910  10.216   6.989   9.102
79671SOL    HW240911  10.127   7.021   9.220
79672SOL     OW40912   7.616   9.316   4.616
79672SOL    HW140913   7.585   9.405   4.633
79672SOL    HW240914   7.654   9.288   4.699
79673SOL     OW40915   5.077  14.552   1.806
79673SOL    HW140916   5.003  14.608   1.830
79673SOL    HW240917   5.040  14.490   1.743
79674SOL     OW40918  14.538   5.777   5.681
79674SOL    HW140919  14.495   5.863   5.685
79674SOL    HW240920  14.630   5.796   5.700
79675SOL     OW40921   1.161   9.138  12.137
79675SOL    HW140922   1.198   9.068  12.190
79675SOL    HW240923   1.074   9.153  12.174
79676SOL     OW40924   7.097  12.006   7.877
79676SOL    HW140925   7.177  12.059   7.880
79676SOL    HW240926   7.045  12.039   7.950
79677SOL     OW40927  10.096   7.858   4.054
79677SOL    HW140928  10.128   7.926   4.113
79677SOL    HW240929  10.014   7.828   4.093
79678SOL     OW40930  10.536   7.844  12.663
79678SOL    HW140931  10.515   7.937  12.668
79678SOL    HW240932  10.520   7.811  12.751
79679SOL     OW40933   0.596   0.474  12.160
79679SOL    HW140934   0.668   0.533  12.138
79679SOL    HW240935   0.517   0.523  12.141
79680SOL     OW40936   9.118   6.381   5.044
79680SOL    HW140937   9.126   6.475   5.026
79680SOL    HW240938   9.024   6.368   5.060
79681SOL     OW40939   7.664   8.433   0.617
79681SOL    HW140940   7.741   8.428   0.674
79681SOL    HW240941   7.699   8.455   0.531
79682SOL     OW40942   7.767   1.338   0.317
79682SOL    HW140943   7.848   1.330   0.266
79682SOL    HW240944   7.728   1.251   0.313
79683SOL     OW40945  14.688   3.065   9.458
79683SOL    HW140946  14.763   3.093   9.510
79683SOL    HW240947  14.689   3.122   9.381
79684SOL     OW40948   2.376  11.155  11.814
79684SOL    HW140949   2.379  11.141  11.909
79684SOL    HW240950   2.296  11.207  11.801
79685SOL     OW40951   8.151   7.008   2.754
79685SOL    HW140952   8.124   7.085   2.704
79685SOL    HW240953   8.090   7.004   2.828
79686SOL     OW40954   4.798   8.730   9.181
79686SOL    HW140955   4.753   8.754   9.262
79686SOL    HW240956   4.850   8.653   9.205
79687SOL     OW40957  10.307   7.733   4.902
79687SOL    HW140958  10.213   7.725   4.921
79687SOL    HW240959  10.327   7.825   4.919
79688SOL     OW40960   9.707  11.005   4.193
79688SOL    HW140961   9.665  10.921   4.210
79688SOL    HW240962   9.638  11.060   4.157
79689SOL     OW40963   0.632   7.482   7.964
79689SOL    HW140964   0.712   7.535   7.966
79689SOL    HW240965   0.566   7.538   8.007
79690SOL     OW40966   4.063   0.897  11.060
79690SOL    HW140967   4.157   0.896  11.041
79690SOL    HW240968   4.038   0.989  11.049
79691SOL     OW40969   2.924   1.673  12.983
79691SOL    HW140970   2.844   1.674  13.036
79691SOL    HW240971   2.990   1.715  13.038
79692SOL     OW40972   3.004  10.879   8.613
79692SOL    HW140973   2.937  10.812   8.630
79692SOL    HW240974   2.997  10.897   8.520
79693SOL     OW40975   2.794   4.453  14.401
79693SOL    HW140976   2.704   4.461  14.370
79693SOL    HW240977   2.840   4.527  14.360
79694SOL     OW40978   3.157  12.977   3.888
79694SOL    HW140979   3.204  13.041   3.835
79694SOL    HW240980   3.119  13.029   3.960
79695SOL     OW40981  10.063   6.915   3.297
79695SOL    HW140982  10.039   6.926   3.205
79695SOL    HW240983  10.127   6.844   3.296
79696SOL     OW40984   4.850   1.481   3.563
79696SOL    HW140985   4.925   1.462   3.507
79696SOL    HW240986   4.862   1.572   3.590
79697SOL     OW40987   4.867   8.137   8.980
79697SOL    HW140988   4.902   8.068   9.035
79697SOL    HW240989   4.776   8.112   8.965
79698SOL     OW40990   1.761   3.987   9.364
79698SOL    HW140991   1.789   4.030   9.445
79698SOL    HW240992   1.837   3.935   9.337
79699SOL     OW40993   9.661  12.076   6.732
79699SOL    HW140994   9.659  12.047   6.641
79699SOL    HW240995   9.666  12.171   6.727
79700SOL     OW40996   2.239   5.946   8.604
79700SOL    HW140997   2.291   5.902   8.671
79700SOL    HW240998   2.208   6.026   8.646
79701SOL     OW40999   1.983   2.648  13.685
79701SOL    HW141000   2.059   2.608  13.728
79701SOL    HW241001   1.954   2.715  13.746
79702SOL     OW41002  10.929   6.851   7.388
79702SOL    HW141003  10.948   6.945   7.380
79702SOL    HW241004  11.011   6.812   7.417
79703SOL     OW41005   6.399   5.437   2.628
79703SOL    HW141006   6.477   5.442   2.573
79703SOL    HW241007   6.432   5.405   2.712
79704SOL     OW41008   2.898   7.763   7.659
79704SOL    HW141009   2.864   7.852   7.643
79704SOL    HW241010   2.960   7.749   7.587
79705SOL     OW41011  14.377   4.397  12.738
79705SOL    HW141012  14.387   4.303  12.754
79705SOL    HW241013  14.437   4.439  12.800
79706SOL     OW41014  12.967   7.105   5.823
79706SOL    HW141015  12.913   7.030   5.848
79706SOL    HW241016  13.007   7.134   5.905
79707SOL     OW41017   8.141   8.440   4.349
79707SOL    HW141018   8.067   8.400   4.304
79707SOL    HW241019   8.102   8.486   4.423
79708SOL     OW41020   9.384  12.206  13.206
79708SOL    HW141021   9.382  12.294  13.169
79708SOL    HW241022   9.461  12.206  13.263
79709SOL     OW41023   2.362   9.769  12.426
79709SOL    HW141024   2.343   9.819  12.347
79709SOL    HW241025   2.315   9.686  12.414
79710SOL     OW41026   2.700  13.738   4.004
79710SOL    HW141027   2.731  13.649   3.991
79710SOL    HW241028   2.651  13.735   4.086
79711SOL     OW41029   2.793   3.625   3.423
79711SOL    HW141030   2.780   3.668   3.508
79711SOL    HW241031   2.857   3.557   3.440
79712SOL     OW41032   2.004   0.260  12.060
79712SOL    HW141033   2.071   0.250  12.128
79712SOL    HW241034   1.926   0.291  12.107
79713SOL     OW41035   6.651   9.717   8.296
79713SOL    HW141036   6.638   9.754   8.384
79713SOL    HW241037   6.740   9.741   8.272
79714SOL     OW41038   9.115   2.521   9.166
79714SOL    HW141039   9.175   2.517   9.241
79714SOL    HW241040   9.033   2.555   9.203
79715SOL     OW41041   7.673   0.106   0.979
79715SOL    HW141042   7.708   0.077   1.063
79715SOL    HW241043   7.705   0.196   0.970
79716SOL     OW41044  14.321   8.900   8.826
79716SOL    HW141045  14.355   8.850   8.900
79716SOL    HW241046  14.343   8.991   8.847
79717SOL     OW41047  13.021  11.502  11.357
79717SOL    HW141048  13.021  11.594  11.385
79717SOL    HW241049  12.930  11.482  11.337
79718SOL     OW41050   8.166   0.681   9.016
79718SOL    HW141051   8.210   0.765   9.014
79718SOL    HW241052   8.236   0.617   9.004
79719SOL     OW41053  14.666   3.864   6.934
79719SOL    HW141054  14.757   3.845   6.954
79719SOL    HW241055  14.669   3.920   6.856
79720SOL     OW41056  13.212   7.054  10.567
79720SOL    HW141057  13.295   7.006  10.562
79720SOL    HW241058  13.151   6.993  10.608
79721SOL     OW41059   1.385  12.191   1.455
79721SOL    HW141060   1.403  12.105   1.493
79721SOL    HW241061   1.438  12.252   1.506
79722SOL     OW41062   5.709  11.970   8.621
79722SOL    HW141063   5.739  12.000   8.707
79722SOL    HW241064   5.669  12.047   8.581
79723SOL     OW41065   2.762  14.830  11.109
79723SOL    HW141066   2.837   0.006  11.126
79723SOL    HW241067   2.800  14.742  11.099
79724SOL     OW41068   7.744   7.838  11.921
79724SOL    HW141069   7.827   7.791  11.927
79724SOL    HW241070   7.752   7.890  11.841
79725SOL     OW41071   4.902   2.776   8.315
79725SOL    HW141072   4.878   2.838   8.384
79725SOL    HW241073   4.880   2.821   8.234
79726SOL     OW41074  11.142   4.792   7.558
79726SOL    HW141075  11.151   4.726   7.627
79726SOL    HW241076  11.057   4.832   7.574
79727SOL     OW41077  13.497   8.525  14.447
79727SOL    HW141078  13.433   8.455  14.436
79727SOL    HW241079  13.450   8.593  14.496
79728SOL     OW41080  11.957   2.229   7.877
79728SOL    HW141081  11.967   2.235   7.782
79728SOL    HW241082  12.042   2.255   7.912
79729SOL     OW41083   8.200  13.432   7.991
79729SOL    HW141084   8.128  13.462   7.934
79729SOL    HW241085   8.229  13.511   8.036
79730SOL     OW41086   9.178   2.684   3.314
79730SOL    HW141087   9.194   2.778   3.318
79730SOL    HW241088   9.244   2.651   3.252
79731SOL     OW41089  11.328   6.036   7.952
79731SOL    HW141090  11.356   6.123   7.923
79731SOL    HW241091  11.361   6.029   8.042
79732SOL     OW41092  11.325  12.894   1.537
79732SOL    HW141093  11.351  12.906   1.446
79732SOL    HW241094  11.358  12.971   1.583
79733SOL     OW41095  12.545   2.830   7.757
79733SOL    HW141096  12.555   2.925   7.761
79733SOL    HW241097  12.482   2.808   7.826
79734SOL     OW41098   9.498  12.614   1.140
79734SOL    HW141099   9.454  12.676   1.082
79734SOL    HW241100   9.463  12.529   1.115
79735SOL     OW41101   2.672  14.214   0.766
79735SOL    HW141102   2.696  14.153   0.697
79735SOL    HW241103   2.667  14.161   0.845
79736SOL     OW41104   2.366   9.586   4.415
79736SOL    HW141105   2.453   9.569   4.452
79736SOL    HW241106   2.371   9.677   4.386
79737SOL     OW41107   2.681   8.855   8.568
79737SOL    HW141108   2.756   8.908   8.542
79737SOL    HW241109   2.679   8.783   8.504
79738SOL     OW41110   8.941   9.153  14.481
79738SOL    HW141111   9.000   9.093  14.436
79738SOL    HW241112   8.996   9.227  14.507
79739SOL     OW41113  11.694   4.635  10.972
79739SOL    HW141114  11.646   4.705  11.017
79739SOL    HW241115  11.764   4.681  10.925
79740SOL     OW41116  10.850   8.774   2.365
79740SOL    HW141117  10.759   8.802   2.360
79740SOL    HW241118  10.860   8.737   2.452
79741SOL     OW41119   6.410   5.721   0.671
79741SOL    HW141120   6.504   5.705   0.661
79741SOL    HW241121   6.403   5.815   0.683
79742SOL     OW41122   2.362  14.462   4.688
79742SOL    HW141123   2.449  14.470   4.729
79742SOL    HW241124   2.368  14.516   4.609
79743SOL     OW41125   6.578   4.226   3.807
79743SOL    HW141126   6.568   4.282   3.884
79743SOL    HW241127   6.492   4.225   3.766
79744SOL     OW41128  13.395   5.830   4.212
79744SOL    HW141129  13.378   5.827   4.118
79744SOL    HW241130  13.490   5.833   4.220
79745SOL     OW41131   7.077  11.673   3.349
79745SOL    HW141132   7.054  11.580   3.351
79745SOL    HW241133   7.073  11.698   3.257
79746SOL     OW41134   0.527  11.006   4.854
79746SOL    HW141135   0.556  10.964   4.935
79746SOL    HW241136   0.605  11.051   4.821
79747SOL     OW41137   6.410   0.739   5.686
79747SOL    HW141138   6.365   0.790   5.753
79747SOL    HW241139   6.474   0.800   5.648
79748SOL     OW41140   4.003  11.105   2.132
79748SOL    HW141141   3.921  11.154   2.139
79748SOL    HW241142   3.988  11.026   2.184
79749SOL     OW41143   0.622  10.365   8.525
79749SOL    HW141144   0.688  10.426   8.558
79749SOL    HW241145   0.547  10.378   8.583
79750SOL     OW41146   7.658  10.757  10.004
79750SOL    HW141147   7.617  10.708   9.934
79750SOL    HW241148   7.611  10.731  10.083
79751SOL     OW41149   1.170   0.119   9.200
79751SOL    HW141150   1.149   0.026   9.201
79751SOL    HW241151   1.114   0.157   9.268
79752SOL     OW41152   3.482   6.052   3.730
79752SOL    HW141153   3.461   6.009   3.813
79752SOL    HW241154   3.522   6.135   3.756
79753SOL     OW41155   9.205   1.887  13.850
79753SOL    HW141156   9.157   1.932  13.919
79753SOL    HW241157   9.137   1.855  13.790
79754SOL     OW41158   8.893   5.330   6.115
79754SOL    HW141159   8.952   5.264   6.079
79754SOL    HW241160   8.952   5.396   6.153
79755SOL     OW41161  11.494   5.318   5.208
79755SOL    HW141162  11.584   5.346   5.225
79755SOL    HW241163  11.461   5.381   5.145
79756SOL     OW41164  12.697   5.996   9.842
79756SOL    HW141165  12.654   6.012   9.758
79756SOL    HW241166  12.777   6.048   9.837
79757SOL     OW41167   9.604  14.511  13.221
79757SOL    HW141168   9.681  14.484  13.271
79757SOL    HW241169   9.548  14.433  13.219
79758SOL     OW41170  13.533   0.382   0.210
79758SOL    HW141171  13.546   0.287   0.215
79758SOL    HW241172  13.438   0.392   0.201
79759SOL     OW41173   3.341  12.763  10.281
79759SOL    HW141174   3.339  12.849  10.324
79759SOL    HW241175   3.336  12.700  10.353
79760SOL     OW41176   7.368  14.357  12.917
79760SOL    HW141177   7.377  14.262  12.926
79760SOL    HW241178   7.294  14.379  12.973
79761SOL     OW41179  14.271  11.721  13.787
79761SOL    HW141180  14.321  11.766  13.718
79761SOL    HW241181  14.223  11.652  13.740
79762SOL     OW41182   8.886  10.516   4.847
79762SOL    HW141183   8.930  10.497   4.764
79762SOL    HW241184   8.794  10.498   4.830
79763SOL     OW41185   4.352   8.333   1.552
79763SOL    HW141186   4.426   8.276   1.573
79763SOL    HW241187   4.390   8.400   1.494
79764SOL     OW41188   9.780   9.985   4.492
79764SOL    HW141189   9.718   9.939   4.434
79764SOL    HW241190   9.783  10.074   4.458
79765SOL     OW41191   8.315   4.431   9.275
79765SOL    HW141192   8.322   4.472   9.361
79765SOL    HW241193   8.232   4.463   9.239
79766SOL     OW41194   4.361   3.318   2.865
79766SOL    HW141195   4.417   3.379   2.912
79766SOL    HW241196   4.330   3.256   2.931
79767SOL     OW41197   7.555   8.209   9.844
79767SOL    HW141198   7.542   8.135   9.902
79767SOL    HW241199   7.497   8.277   9.878
79768SOL     OW41200   2.717   2.934  12.171
79768SOL    HW141201   2.642   2.982  12.206
79768SOL    HW241202   2.789   2.952  12.232
79769SOL     OW41203   0.449   5.102   5.448
79769SOL    HW141204   0.474   5.133   5.534
79769SOL    HW241205   0.374   5.045   5.464
79770SOL     OW41206   3.316  13.994   0.461
79770SOL    HW141207   3.255  13.986   0.534
79770SOL    HW241208   3.351  14.083   0.470
79771SOL     OW41209   1.340  11.643  14.179
79771SOL    HW141210   1.399  11.702  14.227
79771SOL    HW241211   1.353  11.665  14.087
79772SOL     OW41212   1.991   5.571   7.142
79772SOL    HW141213   2.073   5.525   7.161
79772SOL    HW241214   2.013   5.664   7.149
79773SOL     OW41215   4.498  11.230   9.303
79773SOL    HW141216   4.560  11.157   9.312
79773SOL    HW241217   4.460  11.218   9.216
79774SOL     OW41218   9.189   4.220   4.407
79774SOL    HW141219   9.235   4.137   4.396
79774SOL    HW241220   9.171   4.225   4.501
79775SOL     OW41221   7.222   5.310   5.095
79775SOL    HW141222   7.231   5.219   5.068
79775SOL    HW241223   7.312   5.337   5.116
79776SOL     OW41224   3.566   4.192   4.291
79776SOL    HW141225   3.634   4.185   4.224
79776SOL    HW241226   3.505   4.257   4.257
79777SOL     OW41227   9.543   3.466   5.925
79777SOL    HW141228   9.555   3.387   5.872
79777SOL    HW241229   9.455   3.496   5.903
79778SOL     OW41230   4.166   6.091  12.170
79778SOL    HW141231   4.181   6.099  12.076
79778SOL    HW241232   4.216   6.013  12.196
79779SOL     OW41233   5.346   3.782   1.748
79779SOL    HW141234   5.363   3.711   1.686
79779SOL    HW241235   5.376   3.748   1.832
79780SOL     OW41236  12.856   0.025  12.044
79780SOL    HW141237  12.772  14.873  12.076
79780SOL    HW241238  12.881   0.094  12.107
79781SOL     OW41239  13.825   0.417  13.352
79781SOL    HW141240  13.731   0.432  13.361
79781SOL    HW241241  13.864   0.463  13.426
79782SOL     OW41242  14.075  14.421   9.558
79782SOL    HW141243  14.164  14.424   9.593
79782SOL    HW241244  14.029  14.357   9.612
79783SOL     OW41245  10.115  11.501   3.525
79783SOL    HW141246  10.168  11.568   3.569
79783SOL    HW241247  10.148  11.418   3.558
79784SOL     OW41248   5.435   2.662   5.854
79784SOL    HW141249   5.384   2.604   5.797
79784SOL    HW241250   5.473   2.727   5.795
79785SOL     OW41251   5.331   1.265   6.039
79785SOL    HW141252   5.273   1.338   6.058
79785SOL    HW241253   5.377   1.290   5.959
79786SOL     OW41254  11.380  11.733   3.406
79786SOL    HW141255  11.437  11.657   3.394
79786SOL    HW241256  11.437  11.809   3.394
79787SOL     OW41257   6.753   3.311   8.914
79787SOL    HW141258   6.713   3.387   8.871
79787SOL    HW241259   6.678   3.258   8.942
79788SOL     OW41260  14.828   1.064   9.398
79788SOL    HW141261  14.825   1.014   9.316
79788SOL    HW241262   0.031   1.040   9.438
79789SOL     OW41263   2.847   9.875   9.271
79789SOL    HW141264   2.936   9.910   9.263
79789SOL    HW241265   2.792   9.941   9.228
79790SOL     OW41266  11.682   0.835   6.124
79790SOL    HW141267  11.752   0.890   6.160
79790SOL    HW241268  11.721   0.747   6.119
79791SOL     OW41269   7.177   9.828   5.448
79791SOL    HW141270   7.253   9.837   5.505
79791SOL    HW241271   7.130   9.752   5.482
79792SOL     OW41272  13.356   6.998   4.526
79792SOL    HW141273  13.274   6.950   4.517
79792SOL    HW241274  13.330   7.087   4.549
79793SOL     OW41275  13.970   2.493   1.033
79793SOL    HW141276  13.899   2.557   1.038
79793SOL    HW241277  13.938   2.417   1.081
79794SOL     OW41278   9.723  13.061  10.921
79794SOL    HW141279   9.675  13.113  10.857
79794SOL    HW241280   9.780  13.124  10.965
79795SOL     OW41281   6.928   8.098   6.483
79795SOL    HW141282   6.934   8.192   6.499
79795SOL    HW241283   6.857   8.068   6.541
79796SOL     OW41284  11.350   0.148  11.094
79796SOL    HW141285  11.422   0.156  11.156
79796SOL    HW241286  11.391   0.152  11.008
79797SOL     OW41287   6.143   7.345   1.318
79797SOL    HW141288   6.233   7.314   1.310
79797SOL    HW241289   6.139   7.385   1.405
79798SOL     OW41290   9.848  12.161  14.174
79798SOL    HW141291   9.763  12.198  14.198
79798SOL    HW241292   9.876  12.213  14.099
79799SOL     OW41293   1.235   6.745  13.570
79799SOL    HW141294   1.263   6.654  13.579
79799SOL    HW241295   1.315   6.792  13.545
79800SOL     OW41296   8.753   9.997  14.383
79800SOL    HW141297   8.762   9.902  14.394
79800SOL    HW241298   8.660  10.014  14.398
79801SOL     OW41299   9.102   2.400  11.820
79801SOL    HW141300   9.127   2.322  11.769
79801SOL    HW241301   9.015   2.380  11.854
79802SOL     OW41302   8.576   6.857   8.702
79802SOL    HW141303   8.610   6.936   8.661
79802SOL    HW241304   8.640   6.836   8.770
79803SOL     OW41305   5.327   9.405  14.444
79803SOL    HW141306   5.245   9.368  14.476
79803SOL    HW241307   5.303   9.489  14.406
79804SOL     OW41308   6.070   8.357  14.259
79804SOL    HW141309   6.144   8.353  14.319
79804SOL    HW241310   6.076   8.277  14.207
79805SOL     OW41311   5.325   9.342  10.384
79805SOL    HW141312   5.242   9.330  10.430
79805SOL    HW241313   5.334   9.263  10.331
79806SOL     OW41314   0.837   3.237  11.891
79806SOL    HW141315   0.827   3.327  11.863
79806SOL    HW241316   0.909   3.203  11.836
79807SOL     OW41317  14.651   5.651   1.333
79807SOL    HW141318  14.623   5.613   1.417
79807SOL    HW241319  14.670   5.743   1.353
79808SOL     OW41320  14.255   7.377   5.716
79808SOL    HW141321  14.232   7.432   5.791
79808SOL    HW241322  14.336   7.333   5.743
79809SOL     OW41323  12.374   5.379   8.266
79809SOL    HW141324  12.282   5.387   8.243
79809SOL    HW241325  12.411   5.325   8.196
79810SOL     OW41326   0.803  10.795   8.916
79810SOL    HW141327   0.884  10.810   8.868
79810SOL    HW241328   0.820  10.718   8.969
79811SOL     OW41329   3.055   2.246   5.336
79811SOL    HW141330   3.064   2.186   5.410
79811SOL    HW241331   3.103   2.325   5.362
79812SOL     OW41332   3.700   6.964   8.540
79812SOL    HW141333   3.630   6.917   8.495
79812SOL    HW241334   3.706   6.922   8.626
79813SOL     OW41335   7.736   1.158   1.393
79813SOL    HW141336   7.793   1.083   1.411
79813SOL    HW241337   7.793   1.234   1.406
79814SOL     OW41338   6.121  10.067   1.947
79814SOL    HW141339   6.098  10.092   1.857
79814SOL    HW241340   6.077   9.983   1.960
79815SOL     OW41341   8.516   5.663   9.528
79815SOL    HW141342   8.483   5.734   9.471
79815SOL    HW241343   8.587   5.704   9.578
79816SOL     OW41344   5.545  13.614  10.457
79816SOL    HW141345   5.519  13.694  10.503
79816SOL    HW241346   5.486  13.609  10.382
79817SOL     OW41347  12.490   8.426   2.831
79817SOL    HW141348  12.512   8.483   2.905
79817SOL    HW241349  12.402   8.396   2.850
79818SOL     OW41350  10.151   3.514  13.740
79818SOL    HW141351  10.186   3.600  13.762
79818SOL    HW241352  10.211   3.480  13.674
79819SOL     OW41353   6.291  11.933   6.101
79819SOL    HW141354   6.286  11.971   6.013
79819SOL    HW241355   6.280  11.839   6.088
79820SOL     OW41356  11.533  11.525   0.527
79820SOL    HW141357  11.449  11.547   0.487
79820SOL    HW241358  11.564  11.449   0.478
79821SOL     OW41359   0.586  12.848  12.672
79821SOL    HW141360   0.615  12.757  12.674
79821SOL    HW241361   0.506  12.847  12.618
79822SOL     OW41362   8.470  14.325   7.231
79822SOL    HW141363   8.513  14.405   7.261
79822SOL    HW241364   8.415  14.298   7.304
79823SOL     OW41365   6.301   6.359   1.474
79823SOL    HW141366   6.327   6.438   1.427
79823SOL    HW241367   6.206   6.356   1.466
79824SOL     OW41368   2.915  14.551  12.193
79824SOL    HW141369   2.868  14.467  12.192
79824SOL    HW241370   2.925  14.573  12.101
79825SOL     OW41371  13.667   8.600   7.145
79825SOL    HW141372  13.734   8.620   7.210
79825SOL    HW241373  13.708   8.535   7.088
79826SOL     OW41374   1.878   6.651   3.894
79826SOL    HW141375   1.878   6.646   3.990
79826SOL    HW241376   1.902   6.742   3.875
79827SOL     OW41377   0.387   6.467  10.814
79827SOL    HW141378   0.469   6.497  10.775
79827SOL    HW241379   0.347   6.545  10.851
79828SOL     OW41380   3.272   4.462  13.309
79828SOL    HW141381   3.200   4.402  13.291
79828SOL    HW241382   3.320   4.467  13.227
79829SOL     OW41383   2.394  14.216   3.259
79829SOL    HW141384   2.411  14.140   3.314
79829SOL    HW241385   2.444  14.287   3.299
79830SOL     OW41386  11.322   7.304   0.071
79830SOL    HW141387  11.407   7.265   0.051
79830SOL    HW241388  11.313   7.376   0.008
79831SOL     OW41389   4.665  12.789   1.595
79831SOL    HW141390   4.720  12.710   1.595
79831SOL    HW241391   4.598  12.771   1.660
79832SOL     OW41392   3.920   2.802   2.119
79832SOL    HW141393   3.959   2.727   2.074
79832SOL    HW241394   3.827   2.780   2.125
79833SOL     OW41395   5.494   8.396  14.440
79833SOL    HW141396   5.488   8.461  14.370
79833SOL    HW241397   5.561   8.431  14.498
79834SOL     OW41398  13.722   4.334  14.078
79834SOL    HW141399  13.771   4.417  14.079
79834SOL    HW241400  13.732   4.299  14.166
79835SOL     OW41401  14.665  14.245   2.460
79835SOL    HW141402  14.730  14.305   2.423
79835SOL    HW241403  14.715  14.185   2.515
79836SOL     OW41404  10.487   7.233  10.153
79836SOL    HW141405  10.493   7.278  10.237
79836SOL    HW241406  10.444   7.150  10.172
79837SOL     OW41407   8.112  14.458  11.482
79837SOL    HW141408   8.018  14.475  11.489
79837SOL    HW241409   8.125  14.431  11.391
79838SOL     OW41410   0.436   4.258   2.784
79838SOL    HW141411   0.435   4.310   2.864
79838SOL    HW241412   0.529   4.243   2.766
79839SOL     OW41413   3.981  13.693   9.821
79839SOL    HW141414   3.909  13.748   9.788
79839SOL    HW241415   3.937  13.619   9.863
79840SOL     OW41416   1.572   3.943  13.372
79840SOL    HW141417   1.546   3.926  13.463
79840SOL    HW241418   1.496   3.986  13.333
79841SOL     OW41419   6.645  14.325   5.990
79841SOL    HW141420   6.715  14.373   6.035
79841SOL    HW241421   6.673  14.234   5.992
79842SOL     OW41422   1.114   7.750   0.241
79842SOL    HW141423   1.113   7.827   0.297
79842SOL    HW241424   1.051   7.690   0.281
79843SOL     OW41425  14.876   5.700  11.940
79843SOL    HW141426   0.014   5.674  12.031
79843SOL    HW241427   0.029   5.790  11.934
79844SOL     OW41428   6.702  10.727  12.269
79844SOL    HW141429   6.763  10.672  12.220
79844SOL    HW241430   6.739  10.733  12.357
79845SOL     OW41431   4.037   8.117   3.788
79845SOL    HW141432   4.045   8.024   3.771
79845SOL    HW241433   3.993   8.152   3.711
79846SOL     OW41434   7.837  14.193   3.059
79846SOL    HW141435   7.859  14.183   2.966
79846SOL    HW241436   7.869  14.281   3.082
79847SOL     OW41437   1.145   1.187   1.258
79847SOL    HW141438   1.233   1.160   1.233
79847SOL    HW241439   1.151   1.282   1.270
79848SOL     OW41440   4.139   1.753  12.736
79848SOL    HW141441   4.090   1.692  12.681
79848SOL    HW241442   4.179   1.815  12.674
79849SOL     OW41443  10.276  12.334   0.807
79849SOL    HW141444  10.312  12.268   0.747
79849SOL    HW241445  10.283  12.417   0.759
79850SOL     OW41446  14.774   6.416   0.822
79850SOL    HW141447  14.867   6.415   0.847
79850SOL    HW241448  14.767   6.486   0.758
79851SOL     OW41449   8.580   4.050  14.796
79851SOL    HW141450   8.492   4.063  14.760
79851SOL    HW241451   8.566   4.000  14.877
79852SOL     OW41452   5.563  10.253  14.321
79852SOL    HW141453   5.482  10.292  14.355
79852SOL    HW241454   5.631  10.318  14.341
79853SOL     OW41455   5.480   5.563   6.585
79853SOL    HW141456   5.462   5.605   6.501
79853SOL    HW241457   5.453   5.627   6.651
79854SOL     OW41458   1.777  14.496   6.103
79854SOL    HW141459   1.759  14.417   6.052
79854SOL    HW241460   1.860  14.478   6.147
79855SOL     OW41461   5.714   9.147   0.648
79855SOL    HW141462   5.720   9.076   0.584
79855SOL    HW241463   5.647   9.205   0.612
79856SOL     OW41464   0.527  13.529   8.034
79856SOL    HW141465   0.563  13.490   8.113
79856SOL    HW241466   0.502  13.618   8.060
79857SOL     OW41467   1.772   8.484   1.301
79857SOL    HW141468   1.711   8.553   1.276
79857SOL    HW241469   1.731   8.441   1.376
79858SOL     OW41470   9.795   8.679   1.070
79858SOL    HW141471   9.823   8.763   1.032
79858SOL    HW241472   9.853   8.614   1.030
79859SOL     OW41473   4.870   5.727   5.785
79859SOL    HW141474   4.889   5.705   5.876
79859SOL    HW241475   4.818   5.807   5.790
79860SOL     OW41476   2.581  10.178  14.021
79860SOL    HW141477   2.638  10.242  14.064
79860SOL    HW241478   2.574  10.106  14.085
79861SOL     OW41479   0.964  10.483   8.649
79861SOL    HW141480   1.053  10.471   8.684
79861SOL    HW241481   0.975  10.544   8.576
79862SOL     OW41482  13.969   3.969   2.486
79862SOL    HW141483  13.922   4.049   2.510
79862SOL    HW241484  13.997   3.984   2.396
79863SOL     OW41485   2.685  13.672   8.526
79863SOL    HW141486   2.625  13.651   8.597
79863SOL    HW241487   2.630  13.673   8.447
79864SOL     OW41488   3.740  12.371  11.315
79864SOL    HW141489   3.682  12.311  11.268
79864SOL    HW241490   3.802  12.401  11.249
79865SOL     OW41491  12.666  10.273  11.893
79865SOL    HW141492  12.668  10.331  11.817
79865SOL    HW241493  12.576  10.279  11.925
79866SOL     OW41494   7.521   4.977  13.178
79866SOL    HW141495   7.461   5.042  13.216
79866SOL    HW241496   7.541   5.012  13.091
79867SOL     OW41497   3.125   3.829   2.999
79867SOL    HW141498   3.176   3.748   2.987
79867SOL    HW241499   3.040   3.809   2.959
79868SOL     OW41500   8.135   0.888   1.521
79868SOL    HW141501   8.186   0.824   1.571
79868SOL    HW241502   8.180   0.893   1.436
79869SOL     OW41503  11.572   6.239  13.747
79869SOL    HW141504  11.603   6.166  13.801
79869SOL    HW241505  11.506   6.200  13.690
79870SOL     OW41506   3.040  12.562   5.757
79870SOL    HW141507   3.022  12.513   5.837
79870SOL    HW241508   2.965  12.621   5.747
79871SOL     OW41509   4.803   2.222  14.074
79871SOL    HW141510   4.714   2.257  14.063
79871SOL    HW241511   4.797   2.131  14.045
79872SOL     OW41512  11.680  12.977   7.940
79872SOL    HW141513  11.769  13.013   7.945
79872SOL    HW241514  11.693  12.887   7.908
79873SOL     OW41515  12.654   7.235  13.279
79873SOL    HW141516  12.625   7.188  13.357
79873SOL    HW241517  12.578   7.236  13.221
79874SOL     OW41518   0.598  12.441   2.363
79874SOL    HW141519   0.679  12.429   2.412
79874SOL    HW241520   0.529  12.440   2.429
79875SOL     OW41521   5.252  10.554   1.529
79875SOL    HW141522   5.318  10.498   1.570
79875SOL    HW241523   5.255  10.635   1.579
79876SOL     OW41524  14.304   5.094   7.047
79876SOL    HW141525  14.236   5.158   7.068
79876SOL    HW241526  14.385   5.134   7.079
79877SOL     OW41527  13.826   4.977   8.956
79877SOL    HW141528  13.749   4.953   9.007
79877SOL    HW241529  13.790   5.014   8.875
79878SOL     OW41530  11.574   4.076   5.783
79878SOL    HW141531  11.640   4.122   5.834
79878SOL    HW241532  11.562   4.129   5.704
79879SOL     OW41533  11.927  11.816   7.807
79879SOL    HW141534  11.948  11.725   7.826
79879SOL    HW241535  11.837  11.826   7.839
79880SOL     OW41536  12.390   7.738  11.976
79880SOL    HW141537  12.307   7.703  12.010
79880SOL    HW241538  12.446   7.662  11.968
79881SOL     OW41539  10.769   3.338   0.504
79881SOL    HW141540  10.766   3.309   0.595
79881SOL    HW241541  10.677   3.346   0.479
79882SOL     OW41542   0.900   7.666   0.379
79882SOL    HW141543   0.872   7.755   0.359
79882SOL    HW241544   0.824   7.626   0.420
79883SOL     OW41545   9.672  13.079   5.477
79883SOL    HW141546   9.700  13.058   5.566
79883SOL    HW241547   9.752  13.105   5.432
79884SOL     OW41548   5.149   6.669   2.210
79884SOL    HW141549   5.055   6.685   2.199
79884SOL    HW241550   5.190   6.754   2.196
79885SOL     OW41551   9.364   8.727   7.084
79885SOL    HW141552   9.293   8.790   7.071
79885SOL    HW241553   9.377   8.725   7.178
79886SOL     OW41554  12.062  10.507   0.071
79886SOL    HW141555  12.024  10.482  14.868
79886SOL    HW241556  12.086  10.599   0.061
79887SOL     OW41557  14.880  10.093   5.496
79887SOL    HW141558  14.814  10.115   5.430
79887SOL    HW241559  14.855  10.143   5.573
79888SOL     OW41560  10.152   3.738   1.383
79888SOL    HW141561  10.159   3.802   1.454
79888SOL    HW241562  10.072   3.690   1.402
79889SOL     OW41563   0.472   0.485  13.078
79889SOL    HW141564   0.455   0.552  13.012
79889SOL    HW241565   0.430   0.518  13.158
79890SOL     OW41566   2.417   7.084   4.817
79890SOL    HW141567   2.444   7.018   4.753
79890SOL    HW241568   2.400   7.162   4.765
79891SOL     OW41569  13.031  14.041   6.876
79891SOL    HW141570  13.116  14.022   6.835
79891SOL    HW241571  13.016  13.966   6.934
79892SOL     OW41572   7.832   6.838   5.545
79892SOL    HW141573   7.906   6.841   5.485
79892SOL    HW241574   7.844   6.914   5.602
79893SOL     OW41575   9.019   6.375   7.255
79893SOL    HW141576   9.047   6.286   7.277
79893SOL    HW241577   9.083   6.405   7.191
79894SOL     OW41578   1.710   6.799   3.454
79894SOL    HW141579   1.770   6.750   3.510
79894SOL    HW241580   1.631   6.745   3.452
79895SOL     OW41581   3.863   4.723   6.211
79895SOL    HW141582   3.849   4.804   6.162
79895SOL    HW241583   3.951   4.732   6.247
79896SOL     OW41584   9.229   6.970   8.627
79896SOL    HW141585   9.174   7.028   8.574
79896SOL    HW241586   9.268   7.027   8.693
79897SOL     OW41587   8.263  10.939   1.628
79897SOL    HW141588   8.274  10.900   1.541
79897SOL    HW241589   8.277  10.867   1.689
79898SOL     OW41590  13.932  11.421   3.743
79898SOL    HW141591  13.962  11.330   3.752
79898SOL    HW241592  13.947  11.460   3.828
79899SOL     OW41593  14.488  10.125   3.456
79899SOL    HW141594  14.531  10.146   3.373
79899SOL    HW241595  14.561  10.115   3.518
79900SOL     OW41596   3.434   8.872  10.873
79900SOL    HW141597   3.371   8.821  10.823
79900SOL    HW241598   3.431   8.835  10.961
79901SOL     OW41599   1.983  10.878  14.578
79901SOL    HW141600   1.922  10.907  14.645
79901SOL    HW241601   2.066  10.865  14.624
79902SOL     OW41602   3.298   0.415  11.676
79902SOL    HW141603   3.368   0.470  11.713
79902SOL    HW241604   3.322   0.406  11.583
79903SOL     OW41605  14.254  13.182   7.534
79903SOL    HW141606  14.170  13.200   7.491
79903SOL    HW241607  14.249  13.230   7.616
79904SOL     OW41608   0.801  10.771   4.171
79904SOL    HW141609   0.836  10.814   4.249
79904SOL    HW241610   0.792  10.842   4.107
79905SOL     OW41611   5.449  13.282   8.342
79905SOL    HW141612   5.381  13.252   8.282
79905SOL    HW241613   5.519  13.313   8.285
79906SOL     OW41614   1.680   8.002   7.981
79906SOL    HW141615   1.623   7.928   8.001
79906SOL    HW241616   1.695   7.995   7.887
79907SOL     OW41617   3.181   8.562   7.403
79907SOL    HW141618   3.179   8.553   7.498
79907SOL    HW241619   3.240   8.493   7.373
79908SOL     OW41620   4.565  10.989   3.155
79908SOL    HW141621   4.608  10.935   3.089
79908SOL    HW241622   4.489  11.026   3.110
79909SOL     OW41623   6.615   6.811   7.510
79909SOL    HW141624   6.670   6.750   7.560
79909SOL    HW241625   6.531   6.768   7.503
79910SOL     OW41626   2.976   0.080   7.266
79910SOL    HW141627   2.994   0.038   7.182
79910SOL    HW241628   2.953   0.008   7.325
79911SOL     OW41629  13.684   2.712   5.065
79911SOL    HW141630  13.779   2.707   5.068
79911SOL    HW241631  13.661   2.779   5.129
79912SOL     OW41632   4.003   9.500   9.290
79912SOL    HW141633   4.003   9.405   9.279
79912SOL    HW241634   3.941   9.516   9.361
79913SOL     OW41635   9.644   6.550  10.071
79913SOL    HW141636   9.663   6.460  10.046
79913SOL    HW241637   9.561   6.570  10.029
79914SOL     OW41638   4.423   6.645   5.313
79914SOL    HW141639   4.344   6.692   5.287
79914SOL    HW241640   4.494   6.709   5.304
79915SOL     OW41641  12.330   7.406  12.582
79915SOL    HW141642  12.413   7.359  12.595
79915SOL    HW241643  12.357   7.496  12.567
79916SOL     OW41644   8.867   2.670  11.013
79916SOL    HW141645   8.807   2.742  11.033
79916SOL    HW241646   8.953   2.702  11.039
79917SOL     OW41647   1.285   9.173   0.941
79917SOL    HW141648   1.346   9.195   1.011
79917SOL    HW241649   1.339   9.134   0.873
79918SOL     OW41650   9.203   3.905   2.088
79918SOL    HW141651   9.275   3.856   2.049
79918SOL    HW241652   9.149   3.932   2.014
79919SOL     OW41653  12.125   0.653   1.977
79919SOL    HW141654  12.122   0.703   1.895
79919SOL    HW241655  12.099   0.716   2.044
79920SOL     OW41656  12.618   9.806  14.212
79920SOL    HW141657  12.618   9.710  14.210
79920SOL    HW241658  12.648   9.832  14.125
79921SOL     OW41659  11.971  12.103   2.388
79921SOL    HW141660  11.988  12.010   2.404
79921SOL    HW241661  11.878  12.114   2.408
79922SOL     OW41662   6.033   6.224   5.947
79922SOL    HW141663   6.032   6.319   5.961
79922SOL    HW241664   5.976   6.189   6.016
79923SOL     OW41665   6.828   4.740   0.896
79923SOL    HW141666   6.791   4.749   0.984
79923SOL    HW241667   6.875   4.822   0.881
79924SOL     OW41668   4.404   6.160  11.649
79924SOL    HW141669   4.487   6.166  11.698
79924SOL    HW241670   4.363   6.080  11.681
79925SOL     OW41671   7.375   4.947   8.784
79925SOL    HW141672   7.319   4.892   8.730
79925SOL    HW241673   7.327   5.030   8.791
79926SOL     OW41674   6.678   8.156  12.820
79926SOL    HW141675   6.658   8.227  12.880
79926SOL    HW241676   6.742   8.193  12.759
79927SOL     OW41677   7.906   2.131  10.387
79927SOL    HW141678   7.960   2.060  10.352
79927SOL    HW241679   7.939   2.210  10.345
79928SOL     OW41680  11.141   2.571  10.336
79928SOL    HW141681  11.185   2.499  10.381
79928SOL    HW241682  11.105   2.531  10.257
79929SOL     OW41683  13.028   3.210   8.332
79929SOL    HW141684  12.944   3.186   8.293
79929SOL    HW241685  13.078   3.128   8.333
79930SOL     OW41686  12.124  10.834   4.440
79930SOL    HW141687  12.076  10.783   4.375
79930SOL    HW241688  12.209  10.852   4.400
79931SOL     OW41689   8.653   2.661  12.737
79931SOL    HW141690   8.678   2.702  12.819
79931SOL    HW241691   8.625   2.573  12.761
79932SOL     OW41692  11.555   3.255   8.781
79932SOL    HW141693  11.498   3.309   8.835
79932SOL    HW241694  11.637   3.249   8.831
79933SOL     OW41695   1.369   3.009  12.320
79933SOL    HW141696   1.383   3.051  12.235
79933SOL    HW241697   1.456   3.007  12.360
79934SOL     OW41698   7.054  14.134   5.838
79934SOL    HW141699   7.088  14.098   5.756
79934SOL    HW241700   7.122  14.193   5.870
79935SOL     OW41701   5.556   9.378   8.453
79935SOL    HW141702   5.482   9.349   8.507
79935SOL    HW241703   5.600   9.297   8.428
79936SOL     OW41704  13.435  13.385   0.761
79936SOL    HW141705  13.531  13.389   0.761
79936SOL    HW241706  13.407  13.473   0.735
79937SOL     OW41707   5.236   4.545  13.424
79937SOL    HW141708   5.217   4.508  13.338
79937SOL    HW241709   5.328   4.526  13.439
79938SOL     OW41710   5.819   6.277  13.970
79938SOL    HW141711   5.810   6.356  14.023
79938SOL    HW241712   5.738   6.273  13.918
79939SOL     OW41713  13.067   9.363   3.337
79939SOL    HW141714  13.022   9.291   3.382
79939SOL    HW241715  13.152   9.369   3.381
79940SOL     OW41716   0.519   1.963   0.731
79940SOL    HW141717   0.433   1.941   0.697
79940SOL    HW241718   0.576   1.963   0.654
79941SOL     OW41719   7.441   6.856   1.315
79941SOL    HW141720   7.390   6.776   1.301
79941SOL    HW241721   7.530   6.832   1.290
79942SOL     OW41722   6.542   7.754  11.584
79942SOL    HW141723   6.467   7.784  11.635
79942SOL    HW241724   6.600   7.713  11.648
79943SOL     OW41725   4.762   6.682  14.209
79943SOL    HW141726   4.820   6.735  14.264
79943SOL    HW241727   4.817   6.611  14.177
79944SOL     OW41728   5.471   8.255   7.571
79944SOL    HW141729   5.539   8.311   7.608
79944SOL    HW241730   5.475   8.273   7.477
79945SOL     OW41731   5.163  10.922   6.535
79945SOL    HW141732   5.105  10.985   6.493
79945SOL    HW241733   5.151  10.938   6.629
79946SOL     OW41734   2.639   8.928  12.268
79946SOL    HW141735   2.656   9.019  12.246
79946SOL    HW241736   2.615   8.930  12.361
79947SOL     OW41737  12.974  14.625  10.899
79947SOL    HW141738  13.038  14.590  10.961
79947SOL    HW241739  12.949  14.550  10.846
79948SOL     OW41740  14.137   3.856   4.786
79948SOL    HW141741  14.088   3.909   4.849
79948SOL    HW241742  14.216   3.829   4.833
79949SOL     OW41743  12.166   4.541   8.081
79949SOL    HW141744  12.159   4.633   8.106
79949SOL    HW241745  12.234   4.505   8.138
79950SOL     OW41746   7.026   7.229   5.169
79950SOL    HW141747   7.040   7.264   5.257
79950SOL    HW241748   7.035   7.134   5.179
79951SOL     OW41749   7.366  14.027   7.044
79951SOL    HW141750   7.308  13.953   7.059
79951SOL    HW241751   7.366  14.074   7.128
79952SOL     OW41752  12.583   3.248   1.936
79952SOL    HW141753  12.676   3.229   1.954
79952SOL    HW241754  12.560   3.314   2.001
79953SOL     OW41755   2.590  13.855   9.604
79953SOL    HW141756   2.495  13.853   9.617
79953SOL    HW241757   2.627  13.845   9.692
79954SOL     OW41758   3.070   3.164   2.071
79954SOL    HW141759   3.139   3.120   2.021
79954SOL    HW241760   3.086   3.138   2.161
79955SOL     OW41761   1.775   2.160   0.253
79955SOL    HW141762   1.734   2.075   0.238
79955SOL    HW241763   1.708   2.212   0.297
79956SOL     OW41764   2.622   3.133   6.166
79956SOL    HW141765   2.704   3.183   6.169
79956SOL    HW241766   2.555   3.197   6.191
79957SOL     OW41767  12.855  13.823  12.814
79957SOL    HW141768  12.838  13.843  12.722
79957SOL    HW241769  12.943  13.785  12.814
79958SOL     OW41770  12.659  12.589   5.444
79958SOL    HW141771  12.710  12.622   5.369
79958SOL    HW241772  12.568  12.609   5.420
79959SOL     OW41773  13.951   1.357   5.191
79959SOL    HW141774  13.998   1.328   5.113
79959SOL    HW241775  13.988   1.303   5.262
79960SOL     OW41776  14.765   2.035  10.354
79960SOL    HW141777  14.851   2.049  10.394
79960SOL    HW241778  14.770   2.082  10.271
79961SOL     OW41779  10.622   9.041   3.408
79961SOL    HW141780  10.713   9.013   3.401
79961SOL    HW241781  10.625   9.119   3.463
79962SOL     OW41782   1.095   2.799  11.041
79962SOL    HW141783   1.095   2.856  11.118
79962SOL    HW241784   1.125   2.855  10.970
79963SOL     OW41785   1.903   0.674   8.560
79963SOL    HW141786   1.967   0.649   8.627
79963SOL    HW241787   1.819   0.645   8.595
79964SOL     OW41788  11.323   6.848   2.699
79964SOL    HW141789  11.370   6.888   2.626
79964SOL    HW241790  11.262   6.787   2.657
79965SOL     OW41791   9.205   4.265   8.354
79965SOL    HW141792   9.200   4.310   8.270
79965SOL    HW241793   9.122   4.218   8.361
79966SOL     OW41794   6.189   0.934   7.565
79966SOL    HW141795   6.245   0.998   7.609
79966SOL    HW241796   6.225   0.849   7.590
79967SOL     OW41797   9.519   3.392   8.022
79967SOL    HW141798   9.528   3.431   7.935
79967SOL    HW241799   9.609   3.378   8.051
79968SOL     OW41800  13.777   4.525  11.334
79968SOL    HW141801  13.834   4.460  11.293
79968SOL    HW241802  13.826   4.607  11.329
79969SOL     OW41803   4.235   2.974   1.322
79969SOL    HW141804   4.275   3.059   1.307
79969SOL    HW241805   4.142   2.989   1.305
79970SOL     OW41806   8.348  11.384  13.866
79970SOL    HW141807   8.368  11.438  13.943
79970SOL    HW241808   8.427  11.390  13.812
79971SOL     OW41809   6.099   9.034  10.483
79971SOL    HW141810   6.059   9.035  10.396
79971SOL    HW241811   6.061   9.109  10.528
79972SOL     OW41812  12.336  14.509  14.575
79972SOL    HW141813  12.390  14.494  14.652
79972SOL    HW241814  12.247  14.491  14.604
79973SOL     OW41815  10.115  13.849   0.828
79973SOL    HW141816  10.182  13.781   0.822
79973SOL    HW241817  10.079  13.855   0.740
79974SOL     OW41818   4.346   4.827  10.578
79974SOL    HW141819   4.374   4.795  10.492
79974SOL    HW241820   4.253   4.804  10.583
79975SOL     OW41821   1.750   1.356  10.555
79975SOL    HW141822   1.827   1.300  10.543
79975SOL    HW241823   1.758   1.422  10.486
79976SOL     OW41824   3.111   3.018   5.420
79976SOL    HW141825   3.199   3.037   5.387
79976SOL    HW241826   3.070   2.967   5.350
79977SOL     OW41827  12.254   3.773  14.576
79977SOL    HW141828  12.187   3.780  14.643
79977SOL    HW241829  12.310   3.850  14.590
79978SOL     OW41830   2.864  12.099   9.315
79978SOL    HW141831   2.864  12.066   9.404
79978SOL    HW241832   2.951  12.139   9.304
79979SOL     OW41833  12.519   5.062   5.731
79979SOL    HW141834  12.518   5.157   5.748
79979SOL    HW241835  12.428   5.035   5.742
79980SOL     OW41836   7.304  13.523  10.767
79980SOL    HW141837   7.237  13.484  10.822
79980SOL    HW241838   7.264  13.603  10.733
79981SOL     OW41839  12.084   7.418  10.582
79981SOL    HW141840  12.136   7.410  10.662
79981SOL    HW241841  12.015   7.481  10.604
79982SOL     OW41842   6.974   6.763  14.761
79982SOL    HW141843   7.041   6.713  14.714
79982SOL    HW241844   6.892   6.717  14.742
79983SOL     OW41845   3.280   3.697  12.169
79983SOL    HW141846   3.203   3.641  12.163
79983SOL    HW241847   3.266   3.749  12.249
79984SOL     OW41848   8.761  12.147   6.329
79984SOL    HW141849   8.847  12.130   6.291
79984SOL    HW241850   8.735  12.064   6.368
79985SOL     OW41851   2.552   8.737   8.089
79985SOL    HW141852   2.470   8.736   8.039
79985SOL    HW241853   2.583   8.827   8.083
79986SOL     OW41854   8.101  13.115   7.729
79986SOL    HW141855   8.180  13.066   7.710
79986SOL    HW241856   8.070  13.146   7.644
79987SOL     OW41857   8.368  13.054   2.821
79987SOL    HW141858   8.273  13.064   2.828
79987SOL    HW241859   8.381  13.000   2.743
79988SOL     OW41860   2.835   7.489   5.507
79988SOL    HW141861   2.929   7.472   5.501
79988SOL    HW241862   2.824   7.535   5.590
79989SOL     OW41863  12.511   4.436   6.710
79989SOL    HW141864  12.436   4.494   6.697
79989SOL    HW241865  12.507   4.374   6.637
79990SOL     OW41866   8.930   5.127   2.286
79990SOL    HW141867   8.847   5.084   2.264
79990SOL    HW241868   8.907   5.218   2.303
79991SOL     OW41869   9.577   7.464   5.038
79991SOL    HW141870   9.546   7.480   4.949
79991SOL    HW241871   9.526   7.525   5.092
79992SOL     OW41872   0.968   9.795   0.678
79992SOL    HW141873   1.021   9.834   0.608
79992SOL    HW241874   1.008   9.709   0.693
79993SOL     OW41875  14.064   1.191   7.587
79993SOL    HW141876  14.046   1.189   7.681
79993SOL    HW241877  14.121   1.116   7.572
79994SOL     OW41878   9.513   8.558   0.910
79994SOL    HW141879   9.514   8.577   1.004
79994SOL    HW241880   9.426   8.586   0.880
79995SOL     OW41881  12.223  13.120  11.751
79995SOL    HW141882  12.256  13.210  11.752
79995SOL    HW241883  12.128  13.129  11.739
79996SOL     OW41884  12.608  10.232   9.469
79996SOL    HW141885  12.648  10.170   9.530
79996SOL    HW241886  12.514  10.215   9.477
79997SOL     OW41887   0.092   8.035   0.971
79997SOL    HW141888   0.020   8.056   1.030
79997SOL    HW241889   0.106   7.941   0.981
79998SOL     OW41890   7.222  13.757  10.695
79998SOL    HW141891   7.173  13.782  10.616
79998SOL    HW241892   7.225  13.838  10.747
79999SOL     OW41893   1.327   6.302   9.551
79999SOL    HW141894   1.347   6.282   9.642
79999SOL    HW241895   1.267   6.232   9.524
80000SOL     OW41896   6.775   0.360   1.085
80000SOL    HW141897   6.807   0.447   1.111
80000SOL    HW241898   6.693   0.378   1.039
80001SOL     OW41899   3.997   9.723   4.607
80001SOL    HW141900   4.089   9.695   4.613
80001SOL    HW241901   3.999   9.815   4.636
80002SOL     OW41902   2.174   2.353   1.555
80002SOL    HW141903   2.189   2.364   1.461
80002SOL    HW241904   2.172   2.442   1.590
80003SOL     OW41905  13.506   1.735   1.631
80003SOL    HW141906  13.582   1.746   1.572
80003SOL    HW241907  13.508   1.813   1.687
80004SOL     OW41908   9.333   6.413   3.613
80004SOL    HW141909   9.356   6.478   3.547
80004SOL    HW241910   9.276   6.351   3.567
80005SOL     OW41911   6.691  11.556  11.971
80005SOL    HW141912   6.715  11.490  12.037
80005SOL    HW241913   6.674  11.635  12.022
80006SOL     OW41914  13.623  14.309  12.151
80006SOL    HW141915  13.532  14.303  12.121
80006SOL    HW241916  13.621  14.277  12.241
80007SOL     OW41917   0.640  11.594   5.726
80007SOL    HW141918   0.612  11.646   5.802
80007SOL    HW241919   0.660  11.508   5.762
80008SOL     OW41920   7.184   8.402  13.491
80008SOL    HW141921   7.278   8.419  13.502
80008SOL    HW241922   7.152   8.385  13.579
80009SOL     OW41923   2.578   5.414   6.916
80009SOL    HW141924   2.528   5.452   6.844
80009SOL    HW241925   2.641   5.356   6.873
80010SOL     OW41926  10.725  14.728   5.505
80010SOL    HW141927  10.663  14.678   5.452
80010SOL    HW241928  10.801  14.741   5.447
80011SOL     OW41929   4.384  14.607   2.760
80011SOL    HW141930   4.473  14.621   2.792
80011SOL    HW241931   4.366  14.684   2.706
80012SOL     OW41932   5.021   0.083  10.592
80012SOL    HW141933   4.970   0.011  10.554
80012SOL    HW241934   4.981   0.162  10.556
80013SOL     OW41935   8.469   2.935   3.775
80013SOL    HW141936   8.450   2.881   3.698
80013SOL    HW241937   8.483   3.023   3.739
80014SOL     OW41938  14.134   8.642   7.903
80014SOL    HW141939  14.066   8.615   7.841
80014SOL    HW241940  14.214   8.603   7.869
80015SOL     OW41941   1.764   2.614   8.136
80015SOL    HW141942   1.765   2.565   8.054
80015SOL    HW241943   1.672   2.615   8.161
80016SOL     OW41944   8.001   9.160  10.578
80016SOL    HW141945   8.022   9.190  10.490
80016SOL    HW241946   8.073   9.192  10.632
80017SOL     OW41947   4.834  10.300   6.851
80017SOL    HW141948   4.806  10.271   6.764
80017SOL    HW241949   4.869  10.388   6.836
80018SOL     OW41950   2.032   6.663  13.886
80018SOL    HW141951   1.973   6.605  13.935
80018SOL    HW241952   2.011   6.647  13.794
80019SOL     OW41953   9.808  13.992   5.119
80019SOL    HW141954   9.713  13.980   5.112
80019SOL    HW241955   9.829  13.964   5.208
80020SOL     OW41956   0.426   2.439   3.126
80020SOL    HW141957   0.414   2.524   3.084
80020SOL    HW241958   0.516   2.442   3.160
80021SOL     OW41959   0.149   6.425  10.630
80021SOL    HW141960   0.096   6.454  10.704
80021SOL    HW241961   0.236   6.408  10.668
80022SOL     OW41962   6.464  10.172   8.664
80022SOL    HW141963   6.525  10.124   8.720
80022SOL    HW241964   6.378  10.134   8.683
80023SOL     OW41965   0.700   9.857   0.731
80023SOL    HW141966   0.683   9.907   0.811
80023SOL    HW241967   0.792   9.831   0.737
80024SOL     OW41968   4.660  12.042   4.403
80024SOL    HW141969   4.600  12.111   4.377
80024SOL    HW241970   4.681  12.061   4.494
80025SOL     OW41971   0.323   5.654   8.955
80025SOL    HW141972   0.294   5.745   8.950
80025SOL    HW241973   0.370   5.638   8.873
80026SOL     OW41974   7.369  10.897  14.074
80026SOL    HW141975   7.311  10.950  14.129
80026SOL    HW241976   7.313  10.866  14.003
80027SOL     OW41977  12.521   8.020   1.840
80027SOL    HW141978  12.492   7.936   1.877
80027SOL    HW241979  12.450   8.081   1.859
80028SOL     OW41980  10.007   0.389  10.788
80028SOL    HW141981  10.058   0.424  10.860
80028SOL    HW241982   9.917   0.385  10.821
80029SOL     OW41983  11.064  12.239   7.683
80029SOL    HW141984  11.057  12.268   7.774
80029SOL    HW241985  11.155  12.257   7.659
80030SOL     OW41986   8.243  11.555  10.186
80030SOL    HW141987   8.201  11.621  10.131
80030SOL    HW241988   8.205  11.570  10.273
80031SOL     OW41989   0.622  11.213  10.719
80031SOL    HW141990   0.621  11.175  10.631
80031SOL    HW241991   0.674  11.151  10.771
80032SOL     OW41992  14.564  13.700  11.169
80032SOL    HW141993  14.624  13.669  11.236
80032SOL    HW241994  14.580  13.642  11.094
80033SOL     OW41995   4.890  14.701   5.599
80033SOL    HW141996   4.943  14.647   5.540
80033SOL    HW241997   4.948  14.772   5.625
80034SOL     OW41998   5.347   0.536   6.216
80034SOL    HW141999   5.428   0.500   6.179
80034SOL    HW242000   5.291   0.460   6.230
80035SOL     OW42001   3.086   3.978   0.898
80035SOL    HW142002   3.040   3.960   0.981
80035SOL    HW242003   3.110   3.891   0.865
80036SOL     OW42004   1.473   2.131   4.853
80036SOL    HW142005   1.547   2.184   4.880
80036SOL    HW242006   1.482   2.050   4.904
80037SOL     OW42007   0.421  12.790   8.820
80037SOL    HW142008   0.407  12.738   8.741
80037SOL    HW242009   0.513  12.776   8.842
80038SOL     OW42010  13.639   2.145  11.770
80038SOL    HW142011  13.694   2.096  11.831
80038SOL    HW242012  13.610   2.079  11.706
80039SOL     OW42013   6.289   3.681  10.210
80039SOL    HW142014   6.294   3.776  10.200
80039SOL    HW242015   6.196   3.662  10.214
80040SOL     OW42016   3.616   4.139   0.237
80040SOL    HW142017   3.538   4.130   0.292
80040SOL    HW242018   3.647   4.050   0.224
80041SOL     OW42019   3.711  10.816   3.774
80041SOL    HW142020   3.636  10.857   3.819
80041SOL    HW242021   3.678  10.730   3.747
80042SOL     OW42022  10.965   4.156   2.365
80042SOL    HW142023  10.943   4.223   2.430
80042SOL    HW242024  10.942   4.195   2.281
80043SOL     OW42025   9.110   2.339   1.885
80043SOL    HW142026   9.152   2.300   1.808
80043SOL    HW242027   9.078   2.264   1.935
80044SOL     OW42028   7.379   6.608   6.379
80044SOL    HW142029   7.298   6.640   6.339
80044SOL    HW242030   7.350   6.541   6.440
80045SOL     OW42031   7.103   5.530   4.945
80045SOL    HW142032   7.010   5.515   4.963
80045SOL    HW242033   7.148   5.467   5.001
80046SOL     OW42034   1.303   9.251   8.024
80046SOL    HW142035   1.359   9.185   7.983
80046SOL    HW242036   1.249   9.283   7.952
80047SOL     OW42037   1.297   6.774   3.913
80047SOL    HW142038   1.345   6.811   3.987
80047SOL    HW242039   1.217   6.826   3.909
80048SOL     OW42040  13.982  13.423   3.331
80048SOL    HW142041  13.998  13.341   3.284
80048SOL    HW242042  13.898  13.454   3.299
80049SOL     OW42043   5.529  13.673  13.280
80049SOL    HW142044   5.441  13.711  13.287
80049SOL    HW242045   5.582  13.724  13.341
80050SOL     OW42046   8.813   8.345   5.790
80050SOL    HW142047   8.890   8.299   5.823
80050SOL    HW242048   8.827   8.349   5.695
80051SOL     OW42049   1.141   7.892  13.079
80051SOL    HW142050   1.179   7.959  13.021
80051SOL    HW242051   1.199   7.891  13.155
80052SOL     OW42052   8.370   9.342   7.385
80052SOL    HW142053   8.400   9.256   7.411
80052SOL    HW242054   8.416   9.403   7.443
80053SOL     OW42055   0.367  11.356   0.009
80053SOL    HW142056   0.384  11.291   0.078
80053SOL    HW242057   0.393  11.439   0.048
80054SOL     OW42058   7.976   9.066   0.519
80054SOL    HW142059   7.980   9.004   0.446
80054SOL    HW242060   7.908   9.031   0.577
80055SOL     OW42061   3.498  12.011  12.572
80055SOL    HW142062   3.545  11.965  12.642
80055SOL    HW242063   3.470  11.942  12.512
80056SOL     OW42064   3.842   4.261   7.221
80056SOL    HW142065   3.872   4.309   7.298
80056SOL    HW242066   3.824   4.329   7.156
80057SOL     OW42067   9.917   6.750   1.091
80057SOL    HW142068   9.958   6.814   1.149
80057SOL    HW242069   9.861   6.697   1.149
80058SOL     OW42070  10.995   3.025  11.670
80058SOL    HW142071  11.013   3.114  11.703
80058SOL    HW242072  11.011   3.031  11.576
80059SOL     OW42073   7.925   2.141   8.918
80059SOL    HW142074   7.916   2.053   8.880
80059SOL    HW242075   8.020   2.156   8.919
80060SOL     OW42076   4.093   7.048   3.231
80060SOL    HW142077   4.164   7.029   3.293
80060SOL    HW242078   4.014   7.044   3.284
80061SOL     OW42079  12.977   1.666   3.683
80061SOL    HW142080  12.978   1.594   3.745
80061SOL    HW242081  12.956   1.625   3.599
80062SOL     OW42082  10.161  14.299   1.632
80062SOL    HW142083  10.120  14.379   1.663
80062SOL    HW242084  10.097  14.262   1.570
80063SOL     OW42085   3.384   2.120   8.146
80063SOL    HW142086   3.435   2.097   8.223
80063SOL    HW242087   3.384   2.040   8.092
80064SOL     OW42088   0.742  10.820   9.229
80064SOL    HW142089   0.766  10.738   9.185
80064SOL    HW242090   0.820  10.875   9.221
80065SOL     OW42091   3.024   9.534  12.275
80065SOL    HW142092   2.929   9.534  12.266
80065SOL    HW242093   3.040   9.493  12.360
80066SOL     OW42094  12.567   8.101  12.559
80066SOL    HW142095  12.520   8.144  12.488
80066SOL    HW242096  12.659   8.107  12.534
80067SOL     OW42097   5.136   0.360   5.587
80067SOL    HW142098   5.133   0.398   5.499
80067SOL    HW242099   5.229   0.345   5.604
80068SOL     OW42100   8.151   0.051  14.850
80068SOL    HW142101   8.106   0.123   0.012
80068SOL    HW242102   8.086  14.861  14.846
80069SOL     OW42103   1.971   5.573   5.545
80069SOL    HW142104   1.875   5.575   5.551
80069SOL    HW242105   2.000   5.644   5.602
80070SOL     OW42106   0.346   0.413   8.127
80070SOL    HW142107   0.325   0.394   8.036
80070SOL    HW242108   0.362   0.328   8.167
80071SOL     OW42109  11.968  13.371   1.571
80071SOL    HW142110  12.000  13.438   1.631
80071SOL    HW242111  11.891  13.412   1.529
80072SOL     OW42112   4.366  10.048   3.060
80072SOL    HW142113   4.324   9.996   2.991
80072SOL    HW242114   4.334  10.010   3.142
80073SOL     OW42115   6.622   6.735  13.704
80073SOL    HW142116   6.715   6.723  13.684
80073SOL    HW242117   6.616   6.824  13.739
80074SOL     OW42118   7.575   8.142   5.048
80074SOL    HW142119   7.550   8.232   5.031
80074SOL    HW242120   7.664   8.134   5.013
80075SOL     OW42121   2.770   4.279   2.979
80075SOL    HW142122   2.811   4.351   2.932
80075SOL    HW242123   2.785   4.299   3.072
80076SOL     OW42124   5.260  11.572   9.058
80076SOL    HW142125   5.346  11.560   9.099
80076SOL    HW242126   5.202  11.514   9.108
80077SOL     OW42127   2.471   9.482   1.267
80077SOL    HW142128   2.484   9.541   1.340
80077SOL    HW242129   2.559   9.464   1.234
80078SOL     OW42130   4.533   7.431   7.633
80078SOL    HW142131   4.600   7.383   7.585
80078SOL    HW242132   4.488   7.364   7.685
80079SOL     OW42133  11.895   9.850   8.669
80079SOL    HW142134  11.951   9.900   8.728
80079SOL    HW242135  11.891   9.903   8.589
80080SOL     OW42136   8.369   8.809   1.984
80080SOL    HW142137   8.287   8.765   2.007
80080SOL    HW242138   8.410   8.752   1.919
80081SOL     OW42139   9.631   8.449   6.395
80081SOL    HW142140   9.685   8.473   6.470
80081SOL    HW242141   9.635   8.353   6.392
80082SOL     OW42142   9.441  12.516   7.376
80082SOL    HW142143   9.422  12.495   7.468
80082SOL    HW242144   9.443  12.431   7.333
80083SOL     OW42145   3.465  14.876  11.452
80083SOL    HW142146   3.463   0.052  11.529
80083SOL    HW242147   3.527  14.807  11.474
80084SOL     OW42148  14.535   4.952   8.254
80084SOL    HW142149  14.501   4.921   8.170
80084SOL    HW242150  14.511   5.044   8.258
80085SOL     OW42151   9.794   8.950   0.107
80085SOL    HW142152   9.747   8.893   0.047
80085SOL    HW242153   9.823   8.893   0.178
80086SOL     OW42154  13.176   3.396   2.776
80086SOL    HW142155  13.207   3.336   2.843
80086SOL    HW242156  13.148   3.339   2.704
80087SOL     OW42157   0.134  12.727  10.097
80087SOL    HW142158   0.109  12.662  10.032
80087SOL    HW242159   0.229  12.722  10.101
80088SOL     OW42160   6.210   3.796   8.825
80088SOL    HW142161   6.214   3.881   8.782
80088SOL    HW242162   6.284   3.747   8.790
80089SOL     OW42163  12.876   0.740   5.275
80089SOL    HW142164  12.850   0.648   5.279
80089SOL    HW242165  12.961   0.743   5.319
80090SOL     OW42166   9.089   9.595   8.007
80090SOL    HW142167   9.054   9.548   7.931
80090SOL    HW242168   9.154   9.535   8.044
80091SOL     OW42169  11.143  11.854   1.850
80091SOL    HW142170  11.095  11.772   1.855
80091SOL    HW242171  11.147  11.886   1.940
80092SOL     OW42172   9.394   4.088   1.278
80092SOL    HW142173   9.420   4.179   1.288
80092SOL    HW242174   9.410   4.068   1.186
80093SOL     OW42175   9.964  12.302  10.340
80093SOL    HW142176   9.997  12.269  10.257
80093SOL    HW242177   9.869  12.312  10.327
80094SOL     OW42178   0.315   0.378  12.081
80094SOL    HW142179   0.257   0.337  12.145
80094SOL    HW242180   0.321   0.469  12.108
80095SOL     OW42181   6.799   1.925   3.150
80095SOL    HW142182   6.754   1.882   3.223
80095SOL    HW242183   6.742   1.999   3.127
80096SOL     OW42184  11.878  10.353  13.149
80096SOL    HW142185  11.886  10.265  13.112
80096SOL    HW242186  11.837  10.339  13.235
80097SOL     OW42187   5.225   8.143  11.161
80097SOL    HW142188   5.155   8.191  11.204
80097SOL    HW242189   5.190   8.055  11.147
80098SOL     OW42190   1.858   0.593  14.648
80098SOL    HW142191   1.773   0.590  14.602
80098SOL    HW242192   1.923   0.579  14.579
80099SOL     OW42193   2.104  12.880  11.378
80099SOL    HW142194   2.135  12.941  11.445
80099SOL    HW242195   2.159  12.803  11.388
80100SOL     OW42196   6.582   7.928  13.552
80100SOL    HW142197   6.613   7.998  13.609
80100SOL    HW242198   6.645   7.926  13.480
80101SOL     OW42199  12.505   7.144   4.742
80101SOL    HW142200  12.472   7.106   4.660
80101SOL    HW242201  12.436   7.126   4.806
80102SOL     OW42202   9.030   8.380   3.663
80102SOL    HW142203   8.967   8.440   3.622
80102SOL    HW242204   9.055   8.320   3.593
80103SOL     OW42205  14.731  10.105  11.409
80103SOL    HW142206  14.735  10.083  11.503
80103SOL    HW242207  14.691  10.192  11.407
80104SOL     OW42208  10.831   2.460   2.277
80104SOL    HW142209  10.875   2.522   2.335
80104SOL    HW242210  10.882   2.462   2.196
80105SOL     OW42211   2.098   9.824  14.407
80105SOL    HW142212   2.053   9.743  14.383
80105SOL    HW242213   2.123   9.811  14.498
80106SOL     OW42214   0.020   3.676   1.851
80106SOL    HW142215   0.012   3.769   1.830
80106SOL    HW242216   0.042   3.674   1.944
80107SOL     OW42217   4.798   3.353   0.219
80107SOL    HW142218   4.829   3.429   0.169
80107SOL    HW242219   4.877   3.321   0.264
80108SOL     OW42220  14.223  11.432   7.698
80108SOL    HW142221  14.245  11.396   7.784
80108SOL    HW242222  14.128  11.426   7.693
80109SOL     OW42223  13.723   4.268  12.892
80109SOL    HW142224  13.757   4.267  12.982
80109SOL    HW242225  13.713   4.176  12.870
80110SOL     OW42226   4.594   0.712   6.601
80110SOL    HW142227   4.620   0.747   6.687
80110SOL    HW242228   4.560   0.788   6.554
80111SOL     OW42229  12.515   9.926   5.455
80111SOL    HW142230  12.579   9.956   5.520
80111SOL    HW242231  12.457   9.868   5.505
80112SOL     OW42232  14.203  12.920  12.128
80112SOL    HW142233  14.129  12.862  12.109
80112SOL    HW242234  14.255  12.920  12.048
80113SOL     OW42235   8.439   0.719   0.767
80113SOL    HW142236   8.383   0.650   0.802
80113SOL    HW242237   8.453   0.779   0.841
80114SOL     OW42238  13.763   3.468   6.718
80114SOL    HW142239  13.682   3.475   6.667
80114SOL    HW242240  13.829   3.514   6.665
80115SOL     OW42241   8.727   1.943  11.922
80115SOL    HW142242   8.684   2.011  11.974
80115SOL    HW242243   8.655   1.888  11.890
80116SOL     OW42244   5.719   5.875  12.553
80116SOL    HW142245   5.772   5.795  12.550
80116SOL    HW242246   5.632   5.845  12.580
80117SOL     OW42247  12.109   3.620  14.421
80117SOL    HW142248  12.164   3.681  14.469
80117SOL    HW242249  12.040   3.596  14.483
80118SOL     OW42250   2.564  12.898   6.448
80118SOL    HW142251   2.607  12.827   6.496
80118SOL    HW242252   2.636  12.954   6.418
80119SOL     OW42253  13.693  13.184   1.468
80119SOL    HW142254  13.788  13.178   1.455
80119SOL    HW242255  13.665  13.253   1.408
80120SOL     OW42256   8.634   8.055  10.679
80120SOL    HW142257   8.650   8.140  10.638
80120SOL    HW242258   8.717   8.009  10.670
80121SOL     OW42259   9.883   1.969   5.531
80121SOL    HW142260   9.957   1.908   5.529
80121SOL    HW242261   9.910   2.041   5.473
80122SOL     OW42262  12.052   0.171   1.338
80122SOL    HW142263  12.036   0.214   1.254
80122SOL    HW242264  12.001   0.223   1.401
80123SOL     OW42265   3.723   5.246   2.365
80123SOL    HW142266   3.804   5.210   2.330
80123SOL    HW242267   3.733   5.341   2.358
80124SOL     OW42268   9.036   8.856  13.045
80124SOL    HW142269   9.049   8.918  12.973
80124SOL    HW242270   9.015   8.911  13.121
80125SOL     OW42271   7.235   3.623  12.866
80125SOL    HW142272   7.235   3.622  12.961
80125SOL    HW242273   7.328   3.623  12.842
80126SOL     OW42274  11.180   0.555   0.346
80126SOL    HW142275  11.215   0.466   0.342
80126SOL    HW242276  11.257   0.610   0.363
80127SOL     OW42277  13.990  10.067  14.789
80127SOL    HW142278  13.994  10.153  14.830
80127SOL    HW242279  14.079  10.053  14.755
80128SOL     OW42280   8.298   2.124   8.421
80128SOL    HW142281   8.360   2.094   8.488
80128SOL    HW242282   8.352   2.147   8.346
80129SOL     OW42283   5.853   7.565  13.104
80129SOL    HW142284   5.871   7.639  13.162
80129SOL    HW242285   5.939   7.532  13.080
80130SOL     OW42286  11.396   3.591  12.264
80130SOL    HW142287  11.491   3.579  12.275
80130SOL    HW242288  11.363   3.502  12.248
80131SOL     OW42289  14.838   5.950   7.164
80131SOL    HW142290  14.836   5.951   7.260
80131SOL    HW242291   0.051   5.958   7.143
80132SOL     OW42292   3.603   0.259   8.913
80132SOL    HW142293   3.663   0.227   8.981
80132SOL    HW242294   3.657   0.319   8.861
80133SOL     OW42295   5.165   1.018   8.648
80133SOL    HW142296   5.233   1.081   8.626
80133SOL    HW242297   5.198   0.934   8.615
80134SOL     OW42298   9.888   6.649   3.806
80134SOL    HW142299   9.861   6.730   3.763
80134SOL    HW242300   9.973   6.669   3.844
80135SOL     OW42301   8.664   9.885  14.035
80135SOL    HW142302   8.642   9.968  14.077
80135SOL    HW242303   8.623   9.890  13.949
80136SOL     OW42304  14.667   2.610  13.067
80136SOL    HW142305  14.601   2.668  13.031
80136SOL    HW242306  14.621   2.528  13.084
80137SOL     OW42307   8.715   9.189   3.674
80137SOL    HW142308   8.649   9.217   3.737
80137SOL    HW242309   8.711   9.094   3.677
80138SOL     OW42310   3.174   8.194   2.658
80138SOL    HW142311   3.180   8.245   2.739
80138SOL    HW242312   3.136   8.110   2.686
80139SOL     OW42313   8.486   0.773   2.294
80139SOL    HW142314   8.459   0.696   2.243
80139SOL    HW242315   8.459   0.753   2.384
80140SOL     OW42316   1.316   6.846  10.431
80140SOL    HW142317   1.343   6.763  10.391
80140SOL    HW242318   1.325   6.910  10.361
80141SOL     OW42319   7.374   6.756   4.425
80141SOL    HW142320   7.377   6.835   4.369
80141SOL    HW242321   7.463   6.720   4.418
80142SOL     OW42322  12.962   6.538   8.262
80142SOL    HW142323  12.957   6.629   8.292
80142SOL    HW242324  12.874   6.503   8.275
80143SOL     OW42325  11.039   9.728   5.603
80143SOL    HW142326  11.009   9.773   5.682
80143SOL    HW242327  11.134   9.722   5.612
80144SOL     OW42328   2.352   9.419   8.924
80144SOL    HW142329   2.438   9.378   8.934
80144SOL    HW242330   2.368   9.512   8.939
80145SOL     OW42331   8.791  12.520  11.188
80145SOL    HW142332   8.854  12.579  11.148
80145SOL    HW242333   8.764  12.565  11.268
80146SOL     OW42334  14.209   9.679  13.447
80146SOL    HW142335  14.127   9.721  13.421
80146SOL    HW242336  14.213   9.601  13.392
80147SOL     OW42337   4.247   7.345   0.894
80147SOL    HW142338   4.217   7.373   0.981
80147SOL    HW242339   4.206   7.259   0.881
80148SOL     OW42340   8.984  10.172   9.176
80148SOL    HW142341   8.950  10.082   9.176
80148SOL    HW242342   9.079  10.162   9.171
80149SOL     OW42343  11.347  11.979   6.045
80149SOL    HW142344  11.321  11.969   5.953
80149SOL    HW242345  11.302  12.057   6.075
80150SOL     OW42346   9.129  11.630   7.756
80150SOL    HW142347   9.052  11.684   7.771
80150SOL    HW242348   9.125  11.563   7.825
80151SOL     OW42349   3.861  11.352  13.190
80151SOL    HW142350   3.770  11.345  13.220
80151SOL    HW242351   3.910  11.380  13.267
80152SOL     OW42352   0.938  12.315  13.212
80152SOL    HW142353   0.929  12.221  13.200
80152SOL    HW242354   0.889  12.354  13.139
80153SOL     OW42355   9.495  10.062   5.371
80153SOL    HW142356   9.535  10.142   5.337
80153SOL    HW242357   9.435  10.034   5.302
80154SOL     OW42358  11.542   2.409   7.708
80154SOL    HW142359  11.607   2.423   7.777
80154SOL    HW242360  11.593   2.412   7.627
80155SOL     OW42361  11.637   4.153   6.852
80155SOL    HW142362  11.549   4.150   6.889
80155SOL    HW242363  11.695   4.149   6.928
80156SOL     OW42364   7.584  10.164   0.513
80156SOL    HW142365   7.533  10.098   0.560
80156SOL    HW242366   7.595  10.127   0.425
80157SOL     OW42367  11.358  13.221  13.610
80157SOL    HW142368  11.416  13.230  13.686
80157SOL    HW242369  11.417  13.226  13.535
80158SOL     OW42370   2.561  11.172   1.780
80158SOL    HW142371   2.468  11.153   1.777
80158SOL    HW242372   2.571  11.250   1.724
80159SOL     OW42373  12.343  12.829  10.929
80159SOL    HW142374  12.289  12.860  10.856
80159SOL    HW242375  12.305  12.744  10.953
80160SOL     OW42376   7.779   6.781   7.471
80160SOL    HW142377   7.743   6.839   7.404
80160SOL    HW242378   7.719   6.789   7.545
80161SOL     OW42379   6.263   7.490   1.511
80161SOL    HW142380   6.235   7.553   1.577
80161SOL    HW242381   6.337   7.445   1.553
80162SOL     OW42382   4.062   9.253   8.248
80162SOL    HW142383   4.085   9.282   8.160
80162SOL    HW242384   4.117   9.306   8.306
80163SOL     OW42385   3.892  12.054   3.752
80163SOL    HW142386   3.954  12.070   3.824
80163SOL    HW242387   3.943  12.003   3.689
80164SOL     OW42388  13.824   0.280   7.431
80164SOL    HW142389  13.880   0.338   7.380
80164SOL    HW242390  13.837   0.307   7.522
80165SOL     OW42391   6.900  13.249   3.461
80165SOL    HW142392   6.862  13.226   3.376
80165SOL    HW242393   6.979  13.196   3.467
80166SOL     OW42394   9.098   6.483  13.969
80166SOL    HW142395   9.026   6.420  13.970
80166SOL    HW242396   9.116   6.498  13.876
80167SOL     OW42397   9.269  12.181   2.300
80167SOL    HW142398   9.333  12.194   2.231
80167SOL    HW242399   9.313  12.211   2.380
80168SOL     OW42400   6.597   2.873   4.151
80168SOL    HW142401   6.609   2.844   4.061
80168SOL    HW242402   6.508   2.846   4.173
80169SOL     OW42403   5.082   5.888   2.059
80169SOL    HW142404   5.163   5.906   2.010
80169SOL    HW242405   5.014   5.886   1.992
80170SOL     OW42406   6.072   9.820  12.896
80170SOL    HW142407   6.073   9.774  12.812
80170SOL    HW242408   5.979   9.834  12.915
80171SOL     OW42409  12.238   8.328   4.780
80171SOL    HW142410  12.320   8.369   4.808
80171SOL    HW242411  12.193   8.306   4.862
80172SOL     OW42412  14.559  13.997   9.565
80172SOL    HW142413  14.533  14.029   9.651
80172SOL    HW242414  14.511  13.915   9.554
80173SOL     OW42415   8.397  11.845   2.046
80173SOL    HW142416   8.363  11.756   2.046
80173SOL    HW242417   8.487  11.837   2.079
80174SOL     OW42418  13.857   4.793   4.907
80174SOL    HW142419  13.953   4.797   4.900
80174SOL    HW242420  13.830   4.884   4.916
80175SOL     OW42421  14.162  10.920   0.206
80175SOL    HW142422  14.093  10.860   0.236
80175SOL    HW242423  14.169  10.903   0.112
80176SOL     OW42424   3.549  12.084   8.572
80176SOL    HW142425   3.454  12.072   8.571
80176SOL    HW242426   3.571  12.113   8.483
80177SOL     OW42427   1.140   0.653   0.252
80177SOL    HW142428   1.108   0.595   0.321
80177SOL    HW242429   1.172   0.595   0.184
80178SOL     OW42430   7.814   3.277   3.307
80178SOL    HW142431   7.804   3.182   3.300
80178SOL    HW242432   7.883   3.298   3.245
80179SOL     OW42433  14.149   8.586  12.305
80179SOL    HW142434  14.054   8.581  12.313
80179SOL    HW242435  14.177   8.495  12.287
80180SOL     OW42436  11.071  14.869   9.106
80180SOL    HW142437  11.065  14.791   9.051
80180SOL    HW242438  11.130   0.047   9.058
80181SOL     OW42439   0.723   2.800   5.332
80181SOL    HW142440   0.782   2.725   5.331
80181SOL    HW242441   0.652   2.774   5.273
80182SOL     OW42442  13.922   7.976   3.998
80182SOL    HW142443  13.848   8.005   3.944
80182SOL    HW242444  13.891   7.984   4.088
80183SOL     OW42445   5.537   4.947  11.189
80183SOL    HW142446   5.580   4.885  11.248
80183SOL    HW242447   5.466   4.984  11.241
80184SOL     OW42448   1.198   6.008   3.241
80184SOL    HW142449   1.210   6.058   3.160
80184SOL    HW242450   1.227   6.067   3.311
80185SOL     OW42451   8.472   1.664   9.944
80185SOL    HW142452   8.453   1.628   9.858
80185SOL    HW242453   8.565   1.684   9.942
80186SOL     OW42454   4.600   5.524   6.392
80186SOL    HW142455   4.584   5.617   6.383
80186SOL    HW242456   4.615   5.511   6.486
80187SOL     OW42457   0.013  11.187  11.191
80187SOL    HW142458   0.016  11.216  11.099
80187SOL    HW242459  14.807  11.147  11.200
80188SOL     OW42460   0.478   1.861  12.209
80188SOL    HW142461   0.565   1.834  12.239
80188SOL    HW242462   0.489   1.881  12.116
80189SOL     OW42463   9.865   1.431   1.574
80189SOL    HW142464   9.923   1.407   1.503
80189SOL    HW242465   9.777   1.431   1.535
80190SOL     OW42466   5.124   4.852   6.337
80190SOL    HW142467   5.214   4.846   6.307
80190SOL    HW242468   5.119   4.934   6.385
80191SOL     OW42469   6.062   1.784   5.261
80191SOL    HW142470   6.097   1.696   5.276
80191SOL    HW242471   5.976   1.769   5.221
80192SOL     OW42472  11.920  14.175   5.611
80192SOL    HW142473  11.936  14.264   5.578
80192SOL    HW242474  11.851  14.140   5.554
80193SOL     OW42475   0.807   5.593   2.419
80193SOL    HW142476   0.792   5.663   2.483
80193SOL    HW242477   0.887   5.551   2.450
80194SOL     OW42478   1.319  12.334   1.199
80194SOL    HW142479   1.409  12.314   1.174
80194SOL    HW242480   1.305  12.286   1.281
80195SOL     OW42481   8.690   6.270   8.113
80195SOL    HW142482   8.731   6.333   8.055
80195SOL    HW242483   8.760   6.244   8.174
80196SOL     OW42484   4.442   4.887   3.774
80196SOL    HW142485   4.464   4.972   3.735
80196SOL    HW242486   4.475   4.893   3.864
80197SOL     OW42487   4.508   7.476   6.499
80197SOL    HW142488   4.494   7.432   6.416
80197SOL    HW242489   4.564   7.416   6.549
80198SOL     OW42490   7.200   8.253   3.927
80198SOL    HW142491   7.265   8.184   3.912
80198SOL    HW242492   7.209   8.275   4.020
80199SOL     OW42493   7.932   7.278  10.055
80199SOL    HW142494   7.959   7.228   9.978
80199SOL    HW242495   8.004   7.338  10.072
80200SOL     OW42496   4.565   3.902   0.892
80200SOL    HW142497   4.502   3.888   0.963
80200SOL    HW242498   4.526   3.859   0.816
80201SOL     OW42499   7.599   2.969   5.176
80201SOL    HW142500   7.651   3.046   5.151
80201SOL    HW242501   7.587   2.921   5.093
80202SOL     OW42502   5.176  12.962  11.150
80202SOL    HW142503   5.140  13.024  11.085
80202SOL    HW242504   5.155  12.876  11.114
80203SOL     OW42505   5.871   3.922  12.743
80203SOL    HW142506   5.832   3.988  12.801
80203SOL    HW242507   5.928   3.972  12.685
80204SOL     OW42508  10.870   6.401   5.735
80204SOL    HW142509  10.893   6.321   5.687
80204SOL    HW242510  10.942   6.461   5.718
80205SOL     OW42511  10.503   4.050   4.338
80205SOL    HW142512  10.497   4.100   4.419
80205SOL    HW242513  10.524   4.116   4.271
80206SOL     OW42514   0.441   2.423  14.280
80206SOL    HW142515   0.506   2.492  14.271
80206SOL    HW242516   0.480   2.360  14.340
80207SOL     OW42517  10.645   8.635  12.110
80207SOL    HW142518  10.587   8.583  12.056
80207SOL    HW242519  10.713   8.666  12.050
80208SOL     OW42520   5.133  14.138  10.222
80208SOL    HW142521   5.057  14.097  10.263
80208SOL    HW242522   5.132  14.106  10.132
80209SOL     OW42523  14.826  13.404   5.844
80209SOL    HW142524  14.788  13.362   5.921
80209SOL    HW242525   0.000  13.474   5.880
80210SOL     OW42526   9.347   9.768   6.874
80210SOL    HW142527   9.266   9.743   6.918
80210SOL    HW242528   9.413   9.709   6.912
80211SOL     OW42529   7.323   0.398   8.261
80211SOL    HW142530   7.332   0.420   8.168
80211SOL    HW242531   7.409   0.363   8.285
80212SOL     OW42532   5.280  11.669   6.049
80212SOL    HW142533   5.256  11.577   6.048
80212SOL    HW242534   5.358  11.673   6.104
80213SOL     OW42535  10.493   0.519   4.057
80213SOL    HW142536  10.473   0.438   4.010
80213SOL    HW242537  10.588   0.524   4.058
80214SOL     OW42538   4.880   8.897   0.663
80214SOL    HW142539   4.814   8.838   0.626
80214SOL    HW242540   4.842   8.925   0.747
80215SOL     OW42541   5.009   2.015   4.586
80215SOL    HW142542   5.062   1.971   4.652
80215SOL    HW242543   4.932   1.959   4.575
80216SOL     OW42544   2.106   9.814   0.666
80216SOL    HW142545   2.050   9.737   0.667
80216SOL    HW242546   2.133   9.825   0.758
80217SOL     OW42547   5.626   2.600   0.253
80217SOL    HW142548   5.642   2.663   0.182
80217SOL    HW242549   5.567   2.535   0.215
80218SOL     OW42550  11.313  11.375  13.601
80218SOL    HW142551  11.264  11.457  13.596
80218SOL    HW242552  11.266  11.322  13.665
80219SOL     OW42553  14.853   3.000  10.143
80219SOL    HW142554  14.794   3.031  10.074
80219SOL    HW242555  14.826   3.047  10.221
80220SOL     OW42556   2.321   7.565  11.856
80220SOL    HW142557   2.351   7.475  11.841
80220SOL    HW242558   2.283   7.592  11.772
80221SOL     OW42559   9.544   7.584   9.460
80221SOL    HW142560   9.618   7.607   9.403
80221SOL    HW242561   9.509   7.503   9.422
80222SOL     OW42562   6.040  13.100   0.152
80222SOL    HW142563   6.019  13.189   0.128
80222SOL    HW242564   6.003  13.046   0.082
80223SOL     OW42565   9.443   6.376   6.451
80223SOL    HW142566   9.452   6.418   6.536
80223SOL    HW242567   9.528   6.389   6.409
80224SOL     OW42568   0.820   1.920   3.380
80224SOL    HW142569   0.775   2.004   3.389
80224SOL    HW242570   0.877   1.932   3.304
80225SOL     OW42571   5.515   7.626   8.225
80225SOL    HW142572   5.555   7.662   8.146
80225SOL    HW242573   5.447   7.567   8.192
80226SOL     OW42574   6.664   4.684   6.551
80226SOL    HW142575   6.707   4.719   6.472
80226SOL    HW242576   6.574   4.670   6.525
80227SOL     OW42577   1.250   6.640   6.514
80227SOL    HW142578   1.238   6.553   6.550
80227SOL    HW242579   1.236   6.630   6.420
80228SOL     OW42580  12.758   4.668   6.775
80228SOL    HW142581  12.764   4.658   6.680
80228SOL    HW242582  12.813   4.599   6.811
80229SOL     OW42583   4.393  14.845  12.654
80229SOL    HW142584   4.306  14.811  12.630
80229SOL    HW242585   4.429  14.780  12.714
80230SOL     OW42586  11.802   0.793   5.506
80230SOL    HW142587  11.783   0.872   5.456
80230SOL    HW242588  11.718   0.766   5.542
80231SOL     OW42589   6.428   3.675  14.764
80231SOL    HW142590   6.495   3.705  14.703
80231SOL    HW242591   6.415   3.583  14.742
80232SOL     OW42592  12.673   5.296   6.742
80232SOL    HW142593  12.702   5.223   6.686
80232SOL    HW242594  12.753   5.346   6.760
80233SOL     OW42595  13.309   5.639   6.207
80233SOL    HW142596  13.264   5.566   6.250
80233SOL    HW242597  13.285   5.631   6.115
80234SOL     OW42598   3.551   0.154   3.412
80234SOL    HW142599   3.603   0.191   3.341
80234SOL    HW242600   3.588   0.192   3.492
80235SOL     OW42601   4.525  12.156   8.849
80235SOL    HW142602   4.544  12.177   8.757
80235SOL    HW242603   4.508  12.241   8.889
80236SOL     OW42604   0.826   5.299  14.476
80236SOL    HW142605   0.888   5.359  14.517
80236SOL    HW242606   0.880   5.242  14.421
80237SOL     OW42607   7.544  10.049   7.524
80237SOL    HW142608   7.535   9.973   7.582
80237SOL    HW242609   7.606  10.020   7.457
80238SOL     OW42610   0.094   0.902  14.530
80238SOL    HW142611   0.178   0.949  14.521
80238SOL    HW242612   0.092   0.842  14.456
80239SOL     OW42613   6.530  12.542   4.764
80239SOL    HW142614   6.511  12.448   4.762
80239SOL    HW242615   6.544  12.565   4.673
80240SOL     OW42616   2.833   9.080   7.541
80240SOL    HW142617   2.864   8.997   7.505
80240SOL    HW242618   2.850   9.143   7.471
80241SOL     OW42619   4.912  10.219   4.501
80241SOL    HW142620   4.962  10.288   4.543
80241SOL    HW242621   4.960  10.200   4.420
80242SOL     OW42622   0.690  12.341   1.217
80242SOL    HW142623   0.710  12.353   1.310
80242SOL    HW242624   0.760  12.387   1.171
80243SOL     OW42625   4.243   1.331   5.429
80243SOL    HW142626   4.178   1.392   5.465
80243SOL    HW242627   4.192   1.255   5.403
80244SOL     OW42628   6.419   9.439  10.205
80244SOL    HW142629   6.332   9.437  10.164
80244SOL    HW242630   6.407   9.397  10.289
80245SOL     OW42631  13.063   2.444   7.105
80245SOL    HW142632  13.152   2.477   7.115
80245SOL    HW242633  13.021   2.506   7.045
80246SOL     OW42634  11.600   6.588   8.830
80246SOL    HW142635  11.527   6.535   8.800
80246SOL    HW242636  11.628   6.637   8.753
80247SOL     OW42637  10.718   7.249  10.676
80247SOL    HW142638  10.732   7.336  10.637
80247SOL    HW242639  10.804   7.208  10.673
80248SOL     OW42640   9.784   7.055   5.214
80248SOL    HW142641   9.748   6.984   5.267
80248SOL    HW242642   9.714   7.120   5.211
80249SOL     OW42643  13.450   5.043   1.701
80249SOL    HW142644  13.524   5.088   1.742
80249SOL    HW242645  13.417   4.984   1.769
80250SOL     OW42646  10.899  12.250  10.185
80250SOL    HW142647  10.882  12.162  10.219
80250SOL    HW242648  10.828  12.303  10.220
80251SOL     OW42649   0.669  12.679   1.550
80251SOL    HW142650   0.578  12.678   1.520
80251SOL    HW242651   0.664  12.714   1.639
80252SOL     OW42652  11.994   5.450   0.959
80252SOL    HW142653  12.044   5.368   0.966
80252SOL    HW242654  11.943   5.454   1.040
80253SOL     OW42655  14.784  13.957   1.381
80253SOL    HW142656  14.799  13.952   1.476
80253SOL    HW242657  14.696  13.919   1.370
80254SOL     OW42658   1.840   7.736   8.208
80254SOL    HW142659   1.895   7.676   8.259
80254SOL    HW242660   1.889   7.752   8.128
80255SOL     OW42661  12.789   9.657   7.657
80255SOL    HW142662  12.753   9.573   7.628
80255SOL    HW242663  12.809   9.703   7.575
80256SOL     OW42664  14.653   7.323  11.783
80256SOL    HW142665  14.612   7.319  11.696
80256SOL    HW242666  14.626   7.241  11.825
80257SOL     OW42667   3.969   9.320   1.235
80257SOL    HW142668   4.018   9.263   1.176
80257SOL    HW242669   3.886   9.275   1.248
80258SOL     OW42670   9.133   3.231   9.525
80258SOL    HW142671   9.192   3.190   9.588
80258SOL    HW242672   9.106   3.160   9.468
80259SOL     OW42673   6.639  11.069   8.252
80259SOL    HW142674   6.586  10.999   8.215
80259SOL    HW242675   6.650  11.046   8.344
80260SOL     OW42676   6.021   5.254  14.030
80260SOL    HW142677   6.006   5.243  14.123
80260SOL    HW242678   5.934   5.255  13.991
80261SOL     OW42679  11.283  11.183   8.360
80261SOL    HW142680  11.338  11.217   8.290
80261SOL    HW242681  11.195  11.180   8.322
80262SOL     OW42682  11.570   0.427   8.859
80262SOL    HW142683  11.484   0.412   8.819
80262SOL    HW242684  11.630   0.371   8.811
80263SOL     OW42685   3.431  11.909   9.058
80263SOL    HW142686   3.357  11.898   8.998
80263SOL    HW242687   3.444  11.822   9.096
80264SOL     OW42688   4.773   4.731  10.645
80264SOL    HW142689   4.685   4.693  10.653
80264SOL    HW242690   4.795   4.760  10.733
80265SOL     OW42691  14.035  13.553   4.637
80265SOL    HW142692  14.102  13.618   4.616
80265SOL    HW242693  13.953  13.602   4.638
80266SOL     OW42694   9.197   3.446   4.823
80266SOL    HW142695   9.215   3.536   4.851
80266SOL    HW242696   9.112   3.452   4.779
80267SOL     OW42697   5.143   4.894   0.831
80267SOL    HW142698   5.134   4.842   0.751
80267SOL    HW242699   5.225   4.864   0.870
80268SOL     OW42700   1.061   1.414   5.597
80268SOL    HW142701   1.041   1.436   5.688
80268SOL    HW242702   1.041   1.320   5.590
80269SOL     OW42703  12.605   0.147   2.554
80269SOL    HW142704  12.514   0.178   2.558
80269SOL    HW242705  12.645   0.197   2.483
80270SOL     OW42706   6.100  12.409   5.726
80270SOL    HW142707   6.153  12.415   5.647
80270SOL    HW242708   6.122  12.488   5.775
80271SOL     OW42709  11.763   4.841   1.182
80271SOL    HW142710  11.812   4.907   1.230
80271SOL    HW242711  11.794   4.757   1.217
80272SOL     OW42712   5.037  13.780   2.907
80272SOL    HW142713   5.094  13.704   2.922
80272SOL    HW242714   4.949  13.744   2.903
80273SOL     OW42715   0.446  13.762   0.617
80273SOL    HW142716   0.380  13.828   0.596
80273SOL    HW242717   0.513  13.809   0.666
80274SOL     OW42718   4.366   8.510   5.872
80274SOL    HW142719   4.324   8.596   5.872
80274SOL    HW242720   4.445   8.522   5.925
80275SOL     OW42721   0.988   1.218   0.716
80275SOL    HW142722   1.043   1.196   0.791
80275SOL    HW242723   1.051   1.238   0.646
80276SOL     OW42724   6.111   5.465   7.802
80276SOL    HW142725   6.142   5.388   7.754
80276SOL    HW242726   6.016   5.454   7.807
80277SOL     OW42727   9.010   5.211  11.239
80277SOL    HW142728   8.989   5.262  11.161
80277SOL    HW242729   9.069   5.142  11.209
80278SOL     OW42730   7.696   0.555  11.476
80278SOL    HW142731   7.751   0.564  11.398
80278SOL    HW242732   7.718   0.469  11.512
80279SOL     OW42733   3.650   7.458   0.645
80279SOL    HW142734   3.558   7.475   0.624
80279SOL    HW242735   3.657   7.475   0.738
80280SOL     OW42736  13.813   4.595  10.344
80280SOL    HW142737  13.888   4.569  10.291
80280SOL    HW242738  13.844   4.672  10.393
80281SOL     OW42739  11.528   8.108   9.099
80281SOL    HW142740  11.594   8.042   9.079
80281SOL    HW242741  11.502   8.143   9.014
80282SOL     OW42742   0.631   5.157   1.894
80282SOL    HW142743   0.599   5.097   1.961
80282SOL    HW242744   0.679   5.224   1.943
80283SOL     OW42745   3.450  13.817   2.143
80283SOL    HW142746   3.530  13.779   2.177
80283SOL    HW242747   3.469  13.837   2.051
80284SOL     OW42748  14.562   9.951   2.586
80284SOL    HW142749  14.556  10.021   2.651
80284SOL    HW242750  14.527   9.874   2.630
80285SOL     OW42751   3.150   8.993   2.143
80285SOL    HW142752   3.209   9.059   2.107
80285SOL    HW242753   3.171   8.914   2.094
80286SOL     OW42754   3.022   5.327  11.581
80286SOL    HW142755   2.934   5.289  11.590
80286SOL    HW242756   3.017   5.410  11.629
80287SOL     OW42757   0.543  10.942   9.023
80287SOL    HW142758   0.507  10.883   8.956
80287SOL    HW242759   0.565  10.885   9.096
80288SOL     OW42760   8.445  10.498   7.345
80288SOL    HW142761   8.505  10.473   7.415
80288SOL    HW242762   8.406  10.580   7.375
80289SOL     OW42763   1.024  13.353   1.811
80289SOL    HW142764   1.008  13.428   1.868
80289SOL    HW242765   1.058  13.390   1.730
80290SOL     OW42766   4.256   4.913   2.157
80290SOL    HW142767   4.323   4.919   2.088
80290SOL    HW242768   4.174   4.932   2.112
80291SOL     OW42769  11.036  12.047   4.394
80291SOL    HW142770  11.028  12.058   4.299
80291SOL    HW242771  11.117  12.092   4.417
80292SOL     OW42772   4.376  12.176  12.794
80292SOL    HW142773   4.306  12.133  12.842
80292SOL    HW242774   4.417  12.106  12.743
80293SOL     OW42775   7.921  12.278   9.705
80293SOL    HW142776   7.899  12.227   9.782
80293SOL    HW242777   7.989  12.338   9.734
80294SOL     OW42778  11.018   9.780  14.636
80294SOL    HW142779  11.031   9.798  14.543
80294SOL    HW242780  10.930   9.743  14.642
80295SOL     OW42781   5.448  11.975  10.057
80295SOL    HW142782   5.442  11.897  10.112
80295SOL    HW242783   5.526  12.021  10.089
80296SOL     OW42784   1.680  10.198   0.863
80296SOL    HW142785   1.651  10.123   0.916
80296SOL    HW242786   1.759  10.167   0.819
80297SOL     OW42787   8.682  12.831  11.081
80297SOL    HW142788   8.684  12.743  11.117
80297SOL    HW242789   8.639  12.884  11.149
80298SOL     OW42790   5.384   5.645  13.368
80298SOL    HW142791   5.297   5.637  13.409
80298SOL    HW242792   5.430   5.708  13.423
80299SOL     OW42793  12.113  10.021   2.108
80299SOL    HW142794  12.152   9.992   2.190
80299SOL    HW242795  12.154  10.106   2.090
80300SOL     OW42796   6.841  11.779   0.318
80300SOL    HW142797   6.834  11.794   0.224
80300SOL    HW242798   6.848  11.684   0.327
80301SOL     OW42799   5.761  10.627   0.682
80301SOL    HW142800   5.773  10.628   0.777
80301SOL    HW242801   5.815  10.700   0.650
80302SOL     OW42802   0.107   2.800   8.578
80302SOL    HW142803   0.156   2.768   8.503
80302SOL    HW242804   0.053   2.871   8.543
80303SOL     OW42805  10.401   1.989   5.340
80303SOL    HW142806  10.422   1.912   5.393
80303SOL    HW242807  10.376   1.954   5.255
80304SOL     OW42808   0.315   5.482  13.253
80304SOL    HW142809   0.408   5.464  13.239
80304SOL    HW242810   0.281   5.403  13.295
80305SOL     OW42811   8.816   0.322  10.682
80305SOL    HW142812   8.768   0.273  10.749
80305SOL    HW242813   8.811   0.266  10.604
80306SOL     OW42814  11.101   4.147   0.618
80306SOL    HW142815  11.151   4.071   0.588
80306SOL    HW242816  11.019   4.110   0.651
80307SOL     OW42817   4.295   8.497  11.384
80307SOL    HW142818   4.223   8.554  11.357
80307SOL    HW242819   4.302   8.510  11.478
80308SOL     OW42820   2.048   5.608  14.793
80308SOL    HW142821   2.060   5.687  14.740
80308SOL    HW242822   2.137   5.578  14.811
80309SOL     OW42823   4.212   0.056   8.787
80309SOL    HW142824   4.268   0.051   8.864
80309SOL    HW242825   4.138   0.109   8.815
80310SOL     OW42826   3.888  13.330  10.778
80310SOL    HW142827   3.850  13.244  10.761
80310SOL    HW242828   3.868  13.347  10.870
80311SOL     OW42829  13.666   8.273   8.426
80311SOL    HW142830  13.730   8.241   8.361
80311SOL    HW242831  13.600   8.318   8.374
80312SOL     OW42832   2.989  14.284  14.215
80312SOL    HW142833   3.021  14.202  14.178
80312SOL    HW242834   3.021  14.283  14.306
80313SOL     OW42835  11.542   9.315   2.608
80313SOL    HW142836  11.541   9.222   2.628
80313SOL    HW242837  11.502   9.322   2.521
80314SOL     OW42838   1.140  13.720  14.653
80314SOL    HW142839   1.203  13.792  14.663
80314SOL    HW242840   1.187  13.643  14.686
80315SOL     OW42841   1.186  10.368   5.220
80315SOL    HW142842   1.144  10.399   5.139
80315SOL    HW242843   1.253  10.433   5.239
80316SOL     OW42844  10.638   3.960   7.547
80316SOL    HW142845  10.707   4.027   7.555
80316SOL    HW242846  10.568   4.004   7.499
80317SOL     OW42847  14.868   9.997   3.044
80317SOL    HW142848   0.010   9.995   2.951
80317SOL    HW242849   0.070   9.978   3.089
80318SOL     OW42850   6.032  10.596  10.830
80318SOL    HW142851   5.954  10.645  10.856
80318SOL    HW242852   6.006  10.552  10.749
80319SOL     OW42853   5.376   4.055   4.687
80319SOL    HW142854   5.281   4.061   4.697
80319SOL    HW242855   5.411   4.104   4.761
80320SOL     OW42856  13.505   8.947   6.100
80320SOL    HW142857  13.419   8.990   6.094
80320SOL    HW242858  13.547   8.966   6.017
80321SOL     OW42859   6.205   0.191   8.520
80321SOL    HW142860   6.247   0.121   8.569
80321SOL    HW242861   6.259   0.203   8.442
80322SOL     OW42862   3.879   5.550  11.462
80322SOL    HW142863   3.896   5.607  11.386
80322SOL    HW242864   3.869   5.611  11.535
80323SOL     OW42865   1.867   5.566  14.226
80323SOL    HW142866   1.954   5.527  14.230
80323SOL    HW242867   1.861   5.602  14.137
80324SOL     OW42868   9.246   7.125   3.052
80324SOL    HW142869   9.232   7.102   2.960
80324SOL    HW242870   9.172   7.181   3.074
80325SOL     OW42871   5.809   6.012  11.265
80325SOL    HW142872   5.865   5.950  11.313
80325SOL    HW242873   5.750   6.048  11.331
80326SOL     OW42874   4.407  12.324   0.687
80326SOL    HW142875   4.412  12.246   0.742
80326SOL    HW242876   4.497  12.358   0.686
80327SOL     OW42877   6.779  13.457   0.724
80327SOL    HW142878   6.823  13.513   0.660
80327SOL    HW242879   6.848  13.398   0.756
80328SOL     OW42880  11.046   5.934   1.622
80328SOL    HW142881  10.977   5.986   1.581
80328SOL    HW242882  11.086   5.994   1.686
80329SOL     OW42883   5.563   9.350   4.917
80329SOL    HW142884   5.600   9.293   4.984
80329SOL    HW242885   5.470   9.355   4.939
80330SOL     OW42886   6.153   2.044  14.684
80330SOL    HW142887   6.212   2.072  14.754
80330SOL    HW242888   6.147   1.949  14.693
80331SOL     OW42889   9.874   3.765   1.846
80331SOL    HW142890   9.788   3.801   1.822
80331SOL    HW242891   9.880   3.682   1.800
80332SOL     OW42892   8.504   1.330   7.859
80332SOL    HW142893   8.469   1.419   7.869
80332SOL    HW242894   8.526   1.323   7.766
80333SOL     OW42895   9.209   7.815   9.273
80333SOL    HW142896   9.213   7.899   9.320
80333SOL    HW242897   9.226   7.838   9.182
80334SOL     OW42898   3.692  10.231   2.827
80334SOL    HW142899   3.754  10.267   2.890
80334SOL    HW242900   3.729  10.147   2.801
80335SOL     OW42901   3.301   6.356   6.310
80335SOL    HW142902   3.220   6.386   6.351
80335SOL    HW242903   3.275   6.277   6.261
80336SOL     OW42904  12.233   1.688   5.228
80336SOL    HW142905  12.155   1.656   5.182
80336SOL    HW242906  12.222   1.783   5.231
80337SOL     OW42907   1.787   6.227  14.359
80337SOL    HW142908   1.746   6.250  14.442
80337SOL    HW242909   1.717   6.189  14.307
80338SOL     OW42910   4.316  10.940   9.142
80338SOL    HW142911   4.315  11.036   9.139
80338SOL    HW242912   4.225  10.914   9.129
80339SOL     OW42913   0.259   8.250   6.917
80339SOL    HW142914   0.330   8.304   6.883
80339SOL    HW242915   0.213   8.218   6.839
80340SOL     OW42916  12.460   0.546  11.391
80340SOL    HW142917  12.449   0.505  11.305
80340SOL    HW242918  12.403   0.495  11.449
80341SOL     OW42919  13.248   9.470  13.799
80341SOL    HW142920  13.298   9.503  13.873
80341SOL    HW242921  13.306   9.482  13.724
80342SOL     OW42922   3.971   3.523   1.243
80342SOL    HW142923   4.063   3.527   1.271
80342SOL    HW242924   3.964   3.442   1.194
80343SOL     OW42925  14.011   9.344   5.902
80343SOL    HW142926  13.986   9.275   5.841
80343SOL    HW242927  14.040   9.416   5.847
80344SOL     OW42928   6.440  10.485   4.578
80344SOL    HW142929   6.524  10.444   4.557
80344SOL    HW242930   6.462  10.578   4.590
80345SOL     OW42931   4.470   3.734  11.170
80345SOL    HW142932   4.472   3.819  11.215
80345SOL    HW242933   4.495   3.671  11.237
80346SOL     OW42934   2.447  14.006   1.128
80346SOL    HW142935   2.353  13.987   1.120
80346SOL    HW242936   2.462  14.013   1.222
80347SOL     OW42937   1.755   1.126   1.871
80347SOL    HW142938   1.709   1.047   1.843
80347SOL    HW242939   1.805   1.099   1.947
80348SOL     OW42940  11.466  14.224   9.832
80348SOL    HW142941  11.498  14.161   9.768
80348SOL    HW242942  11.371  14.214   9.831
80349SOL     OW42943  11.416  12.067  14.268
80349SOL    HW142944  11.385  12.003  14.204
80349SOL    HW242945  11.510  12.049  14.276
80350SOL     OW42946   8.940   7.637   8.322
80350SOL    HW142947   8.903   7.708   8.269
80350SOL    HW242948   8.967   7.571   8.258
80351SOL     OW42949   5.807   6.924   1.758
80351SOL    HW142950   5.883   6.977   1.780
80351SOL    HW242951   5.794   6.867   1.834
80352SOL     OW42952   6.631   2.141   1.863
80352SOL    HW142953   6.587   2.147   1.778
80352SOL    HW242954   6.654   2.232   1.884
80353SOL     OW42955   0.057   3.952   7.606
80353SOL    HW142956   0.014   4.024   7.560
80353SOL    HW242957   0.076   3.987   7.693
80354SOL     OW42958  10.511  11.299   0.619
80354SOL    HW142959  10.477  11.369   0.675
80354SOL    HW242960  10.444  11.231   0.622
80355SOL     OW42961   9.145  12.125   5.969
80355SOL    HW142962   9.185  12.041   5.946
80355SOL    HW242963   9.144  12.174   5.887
80356SOL     OW42964   4.621  14.297   2.966
80356SOL    HW142965   4.656  14.339   3.044
80356SOL    HW242966   4.640  14.358   2.895
80357SOL     OW42967   8.956  10.631  11.005
80357SOL    HW142968   8.919  10.702  10.952
80357SOL    HW242969   9.041  10.614  10.965
80358SOL     OW42970   9.378   0.935   3.914
80358SOL    HW142971   9.349   0.868   3.852
80358SOL    HW242972   9.464   0.961   3.881
80359SOL     OW42973   7.959  10.381   1.088
80359SOL    HW142974   7.962  10.349   1.178
80359SOL    HW242975   7.971  10.476   1.096
80360SOL     OW42976   6.390  12.205   3.083
80360SOL    HW142977   6.307  12.223   3.039
80360SOL    HW242978   6.452  12.268   3.044
80361SOL     OW42979   8.314  12.975  14.413
80361SOL    HW142980   8.248  12.917  14.450
80361SOL    HW242981   8.390  12.964  14.469
80362SOL     OW42982   4.380   8.283   4.735
80362SOL    HW142983   4.426   8.359   4.770
80362SOL    HW242984   4.380   8.220   4.807
80363SOL     OW42985   9.526   7.844  13.930
80363SOL    HW142986   9.565   7.916  13.980
80363SOL    HW242987   9.598   7.810  13.877
80364SOL     OW42988  14.146  13.225   6.418
80364SOL    HW142989  14.216  13.286   6.394
80364SOL    HW242990  14.071  13.281   6.437
80365SOL     OW42991  10.167   4.082  12.107
80365SOL    HW142992  10.149   3.989  12.113
80365SOL    HW242993  10.136   4.107  12.020
80366SOL     OW42994  12.527  10.867   1.202
80366SOL    HW142995  12.541  10.797   1.138
80366SOL    HW242996  12.440  10.901   1.182
80367SOL     OW42997  10.046  13.788   9.228
80367SOL    HW142998   9.996  13.706   9.233
80367SOL    HW242999  10.047  13.809   9.135
80368SOL     OW43000  14.651  10.267   4.805
80368SOL    HW143001  14.608  10.304   4.727
80368SOL    HW243002  14.578  10.248   4.864
80369SOL     OW43003  12.680   2.778  12.054
80369SOL    HW143004  12.618   2.746  12.120
80369SOL    HW243005  12.666   2.872  12.052
80370SOL     OW43006   0.839   5.181   1.638
80370SOL    HW143007   0.826   5.271   1.608
80370SOL    HW243008   0.805   5.127   1.567
80371SOL     OW43009   1.151   9.640  13.637
80371SOL    HW143010   1.106   9.720  13.665
80371SOL    HW243011   1.177   9.657  13.546
80372SOL     OW43012  12.338  13.608  13.630
80372SOL    HW143013  12.357  13.523  13.668
80372SOL    HW243014  12.265  13.642  13.681
80373SOL     OW43015  10.293   2.323   7.667
80373SOL    HW143016  10.220   2.327   7.606
80373SOL    HW243017  10.371   2.337   7.613
80374SOL     OW43018  12.672   9.319   1.034
80374SOL    HW143019  12.746   9.258   1.039
80374SOL    HW243020  12.711   9.405   1.047
80375SOL     OW43021  14.814   0.593  14.533
80375SOL    HW143022  14.751   0.614  14.602
80375SOL    HW243023  14.765   0.539  14.472
80376SOL     OW43024   3.832   5.449   6.676
80376SOL    HW143025   3.744   5.434   6.642
80376SOL    HW243026   3.871   5.513   6.617
80377SOL     OW43027  13.508   2.146   0.999
80377SOL    HW143028  13.472   2.124   0.913
80377SOL    HW243029  13.540   2.063   1.034
80378SOL     OW43030   8.065   8.174   8.603
80378SOL    HW143031   8.051   8.232   8.678
80378SOL    HW243032   8.132   8.113   8.633
80379SOL     OW43033  13.114   9.678   8.257
80379SOL    HW143034  13.201   9.639   8.258
80379SOL    HW243035  13.128   9.771   8.272
80380SOL     OW43036  12.218   6.735   1.721
80380SOL    HW143037  12.235   6.787   1.800
80380SOL    HW243038  12.200   6.801   1.653
80381SOL     OW43039   2.852   4.604   7.800
80381SOL    HW143040   2.782   4.668   7.787
80381SOL    HW243041   2.836   4.538   7.732
80382SOL     OW43042   3.730   8.209   4.969
80382SOL    HW143043   3.690   8.122   4.972
80382SOL    HW243044   3.661   8.266   4.935
80383SOL     OW43045  13.989   3.833   1.481
80383SOL    HW143046  13.972   3.758   1.538
80383SOL    HW243047  14.070   3.809   1.435
80384SOL     OW43048  10.934   3.012   6.203
80384SOL    HW143049  10.995   2.946   6.238
80384SOL    HW243050  10.982   3.053   6.132
80385SOL     OW43051   4.482   0.394   7.246
80385SOL    HW143052   4.503   0.302   7.261
80385SOL    HW243053   4.465   0.400   7.152
80386SOL     OW43054   6.306  11.761   9.383
80386SOL    HW143055   6.286  11.750   9.476
80386SOL    HW243056   6.390  11.716   9.371
80387SOL     OW43057   1.488   6.105  13.322
80387SOL    HW143058   1.423   6.044  13.356
80387SOL    HW243059   1.473   6.107  13.227
80388SOL     OW43060   3.529  10.882  14.224
80388SOL    HW143061   3.573  10.839  14.150
80388SOL    HW243062   3.599  10.929  14.270
80389SOL     OW43063   6.296  12.083  10.441
80389SOL    HW143064   6.300  12.152  10.506
80389SOL    HW243065   6.362  12.107  10.376
80390SOL     OW43066   6.034  12.329   1.161
80390SOL    HW143067   5.969  12.276   1.207
80390SOL    HW243068   5.983  12.393   1.111
80391SOL     OW43069   1.898   0.713   9.303
80391SOL    HW143070   1.876   0.797   9.263
80391SOL    HW243071   1.992   0.702   9.284
80392SOL     OW43072   8.205   6.389   6.158
80392SOL    HW143073   8.298   6.400   6.141
80392SOL    HW243074   8.198   6.301   6.196
80393SOL     OW43075   1.354   9.176   9.198
80393SOL    HW143076   1.270   9.191   9.155
80393SOL    HW243077   1.394   9.263   9.203
80394SOL     OW43078   7.347  11.311   9.506
80394SOL    HW143079   7.254  11.303   9.487
80394SOL    HW243080   7.386  11.343   9.424
80395SOL     OW43081  13.253   6.804   9.099
80395SOL    HW143082  13.174   6.858   9.097
80395SOL    HW243083  13.259   6.769   9.010
80396SOL     OW43084   6.151   2.248  12.500
80396SOL    HW143085   6.204   2.202  12.566
80396SOL    HW243086   6.065   2.259  12.542
80397SOL     OW43087   1.834   0.794   4.036
80397SOL    HW143088   1.884   0.799   4.118
80397SOL    HW243089   1.855   0.707   4.001
80398SOL     OW43090   0.469   0.789  13.704
80398SOL    HW143091   0.538   0.835  13.655
80398SOL    HW243092   0.516   0.747  13.777
80399SOL     OW43093  11.768   0.103   2.149
80399SOL    HW143094  11.778   0.193   2.117
80399SOL    HW243095  11.677   0.081   2.130
80400SOL     OW43096   5.904   2.591   6.443
80400SOL    HW143097   5.836   2.588   6.375
80400SOL    HW243098   5.858   2.619   6.522
80401SOL     OW43099  14.209   2.577   3.605
80401SOL    HW143100  14.173   2.496   3.568
80401SOL    HW243101  14.159   2.647   3.563
80402SOL     OW43102   7.058   6.275   2.323
80402SOL    HW143103   7.093   6.216   2.256
80402SOL    HW243104   6.993   6.328   2.276
80403SOL     OW43105  12.522   3.805   0.539
80403SOL    HW143106  12.490   3.860   0.611
80403SOL    HW243107  12.604   3.845   0.513
80404SOL     OW43108   2.773  10.021  12.035
80404SOL    HW143109   2.842  10.000  11.972
80404SOL    HW243110   2.757  10.114  12.022
80405SOL     OW43111   8.342   3.912   1.493
80405SOL    HW143112   8.371   3.826   1.523
80405SOL    HW243113   8.269   3.934   1.551
80406SOL     OW43114   2.876  11.351   8.512
80406SOL    HW143115   2.806  11.369   8.574
80406SOL    HW243116   2.953  11.394   8.550
80407SOL     OW43117   9.213   9.496   1.762
80407SOL    HW143118   9.227   9.562   1.830
80407SOL    HW243119   9.302   9.472   1.734
80408SOL     OW43120  14.049   4.809   4.153
80408SOL    HW143121  14.073   4.856   4.233
80408SOL    HW243122  14.109   4.844   4.086
80409SOL     OW43123   0.726  13.921   5.492
80409SOL    HW143124   0.678  14.003   5.480
80409SOL    HW243125   0.694  13.887   5.576
80410SOL     OW43126   3.695  14.588   0.143
80410SOL    HW143127   3.753  14.533   0.196
80410SOL    HW243128   3.630  14.528   0.108
80411SOL     OW43129   9.952   7.366   6.801
80411SOL    HW143130   9.905   7.337   6.723
80411SOL    HW243131  10.029   7.310   6.805
80412SOL     OW43132   9.988   7.454   0.898
80412SOL    HW143133  10.074   7.497   0.897
80412SOL    HW243134   9.944   7.485   0.819
80413SOL     OW43135   4.433  11.916   0.662
80413SOL    HW143136   4.434  11.821   0.654
80413SOL    HW243137   4.522  11.943   0.636
80414SOL     OW43138   9.388   5.121  12.937
80414SOL    HW143139   9.475   5.156  12.956
80414SOL    HW243140   9.386   5.111  12.842
80415SOL     OW43141  13.205   5.733   3.645
80415SOL    HW143142  13.191   5.681   3.567
80415SOL    HW243143  13.252   5.675   3.705
80416SOL     OW43144   4.428   7.300   1.709
80416SOL    HW143145   4.369   7.271   1.639
80416SOL    HW243146   4.514   7.263   1.684
80417SOL     OW43147  10.732   7.598   1.453
80417SOL    HW143148  10.736   7.503   1.464
80417SOL    HW243149  10.704   7.610   1.362
80418SOL     OW43150   6.020   9.091   3.841
80418SOL    HW143151   5.971   9.036   3.781
80418SOL    HW243152   5.983   9.073   3.927
80419SOL     OW43153   4.346  12.792   0.658
80419SOL    HW143154   4.297  12.871   0.635
80419SOL    HW243155   4.287  12.743   0.715
80420SOL     OW43156   4.414   5.169  14.777
80420SOL    HW143157   4.494   5.184  14.728
80420SOL    HW243158   4.375   5.256  14.787
80421SOL     OW43159   8.239  10.125   9.719
80421SOL    HW143160   8.296  10.161   9.788
80421SOL    HW243161   8.169  10.189   9.710
80422SOL     OW43162   8.318  14.461  14.407
80422SOL    HW143163   8.244  14.445  14.466
80422SOL    HW243164   8.280  14.452  14.319
80423SOL     OW43165   1.090   7.393  13.702
80423SOL    HW143166   1.164   7.340  13.731
80423SOL    HW243167   1.098   7.395  13.607
80424SOL     OW43168   6.616   4.091  11.616
80424SOL    HW143169   6.540   4.148  11.623
80424SOL    HW243170   6.580   4.005  11.594
80425SOL     OW43171   2.836  11.909  10.661
80425SOL    HW143172   2.754  11.896  10.613
80425SOL    HW243173   2.834  12.001  10.688
80426SOL     OW43174  10.334  14.139   9.082
80426SOL    HW143175  10.388  14.175   9.011
80426SOL    HW243176  10.358  14.047   9.086
80427SOL     OW43177   9.270  10.403  10.818
80427SOL    HW143178   9.309  10.423  10.903
80427SOL    HW243179   9.345  10.399  10.758
80428SOL     OW43180   3.179   7.160   7.910
80428SOL    HW143181   3.255   7.168   7.852
80428SOL    HW243182   3.171   7.245   7.952
80429SOL     OW43183  11.597   6.953   5.218
80429SOL    HW143184  11.564   6.868   5.188
80429SOL    HW243185  11.687   6.936   5.246
80430SOL     OW43186   1.462   5.401  13.625
80430SOL    HW143187   1.558   5.400  13.630
80430SOL    HW243188   1.435   5.323  13.674
80431SOL     OW43189   4.598   9.589  12.144
80431SOL    HW143190   4.665   9.601  12.211
80431SOL    HW243191   4.552   9.509  12.170
80432SOL     OW43192   1.478   8.258  10.165
80432SOL    HW143193   1.421   8.326  10.131
80432SOL    HW243194   1.494   8.283  10.256
80433SOL     OW43195   4.558  12.848   2.545
80433SOL    HW143196   4.528  12.835   2.455
80433SOL    HW243197   4.625  12.782   2.558
80434SOL     OW43198   4.975  13.276   2.300
80434SOL    HW143199   4.923  13.354   2.320
80434SOL    HW243200   4.914  13.218   2.255
80435SOL     OW43201   9.201   8.771   5.480
80435SOL    HW143202   9.261   8.755   5.407
80435SOL    HW243203   9.250   8.741   5.557
80436SOL     OW43204  10.653  13.158  14.363
80436SOL    HW143205  10.561  13.178  14.382
80436SOL    HW243206  10.692  13.244  14.346
80437SOL     OW43207  13.654   2.849  13.717
80437SOL    HW143208  13.721   2.795  13.676
80437SOL    HW243209  13.689   2.868  13.804
80438SOL     OW43210  13.753   1.711  14.142
80438SOL    HW143211  13.679   1.716  14.202
80438SOL    HW243212  13.830   1.702  14.198
80439SOL     OW43213  13.994  13.493  11.766
80439SOL    HW143214  13.908  13.463  11.736
80439SOL    HW243215  13.989  13.589  11.763
80440SOL     OW43216  12.177   7.897  13.183
80440SOL    HW143217  12.253   7.838  13.184
80440SOL    HW243218  12.105   7.844  13.218
80441SOL     OW43219   0.527   1.242  14.415
80441SOL    HW143220   0.556   1.334  14.420
80441SOL    HW243221   0.443   1.241  14.460
80442SOL     OW43222   9.519  10.665   1.805
80442SOL    HW143223   9.514  10.715   1.886
80442SOL    HW243224   9.578  10.714   1.749
80443SOL     OW43225   8.519   9.745  12.556
80443SOL    HW143226   8.542   9.656  12.530
80443SOL    HW243227   8.563   9.757  12.640
80444SOL     OW43228   4.223   1.249   7.764
80444SOL    HW143229   4.169   1.265   7.687
80444SOL    HW243230   4.294   1.314   7.758
80445SOL     OW43231   1.718   8.698   9.965
80445SOL    HW143232   1.731   8.655  10.049
80445SOL    HW243233   1.790   8.760   9.957
80446SOL     OW43234   1.403   2.796  13.818
80446SOL    HW143235   1.401   2.795  13.914
80446SOL    HW243236   1.313   2.780  13.792
80447SOL     OW43237   2.878   7.736   2.143
80447SOL    HW143238   2.917   7.664   2.192
80447SOL    HW243239   2.952   7.780   2.102
80448SOL     OW43240  12.962   2.057  12.134
80448SOL    HW143241  12.932   2.085  12.220
80448SOL    HW243242  13.019   2.128  12.104
80449SOL     OW43243   5.673   0.731   6.027
80449SOL    HW143244   5.688   0.697   6.115
80449SOL    HW243245   5.588   0.774   6.033
80450SOL     OW43246   6.841   0.820   0.975
80450SOL    HW143247   6.885   0.904   0.960
80450SOL    HW243248   6.860   0.800   1.067
80451SOL     OW43249   4.527  14.623   4.820
80451SOL    HW143250   4.581  14.649   4.746
80451SOL    HW243251   4.549  14.686   4.889
80452SOL     OW43252  13.600   0.465   0.456
80452SOL    HW143253  13.572   0.454   0.365
80452SOL    HW243254  13.543   0.405   0.505
80453SOL     OW43255  13.654   7.240   5.399
80453SOL    HW143256  13.642   7.292   5.320
80453SOL    HW243257  13.725   7.284   5.446
80454SOL     OW43258   0.215   7.333  10.764
80454SOL    HW143259   0.206   7.267  10.833
80454SOL    HW243260   0.196   7.286  10.683
80455SOL     OW43261   3.001   8.833   7.427
80455SOL    HW143262   3.073   8.784   7.467
80455SOL    HW243263   3.029   8.847   7.337
80456SOL     OW43264   2.246   3.810   5.746
80456SOL    HW143265   2.241   3.876   5.815
80456SOL    HW243266   2.238   3.727   5.793
80457SOL     OW43267  13.747   0.054  10.668
80457SOL    HW143268  13.720   0.100  10.589
80457SOL    HW243269  13.775   0.123  10.728
80458SOL     OW43270   0.411   0.421   0.387
80458SOL    HW143271   0.433   0.361   0.316
80458SOL    HW243272   0.330   0.464   0.357
80459SOL     OW43273   8.339   2.887   8.464
80459SOL    HW143274   8.335   2.801   8.506
80459SOL    HW243275   8.253   2.925   8.481
80460SOL     OW43276  14.247   2.064   3.202
80460SOL    HW143277  14.233   1.988   3.147
80460SOL    HW243278  14.165   2.073   3.252
80461SOL     OW43279  10.135   2.600   4.105
80461SOL    HW143280  10.088   2.593   4.022
80461SOL    HW243281  10.089   2.541   4.164
80462SOL     OW43282  12.357   7.533  14.325
80462SOL    HW143283  12.394   7.591  14.391
80462SOL    HW243284  12.289   7.586  14.283
80463SOL     OW43285  11.126  11.323   4.657
80463SOL    HW143286  11.039  11.344   4.691
80463SOL    HW243287  11.142  11.233   4.686
80464SOL     OW43288   4.463   7.623  14.236
80464SOL    HW143289   4.476   7.530  14.254
80464SOL    HW243290   4.550   7.655  14.211
80465SOL     OW43291  12.403  10.261  13.726
80465SOL    HW143292  12.480  10.227  13.770
80465SOL    HW243293  12.372  10.333  13.783
80466SOL     OW43294   4.820   3.118  10.479
80466SOL    HW143295   4.886   3.049  10.469
80466SOL    HW243296   4.742   3.072  10.509
80467SOL     OW43297   3.609   3.313  13.229
80467SOL    HW143298   3.675   3.379  13.253
80467SOL    HW243299   3.528   3.346  13.268
80468SOL     OW43300  12.569   8.381   2.559
80468SOL    HW143301  12.628   8.307   2.575
80468SOL    HW243302  12.557   8.421   2.645
80469SOL     OW43303   7.862  11.358   0.675
80469SOL    HW143304   7.845  11.368   0.769
80469SOL    HW243305   7.931  11.291   0.671
80470SOL     OW43306   8.894   5.522  10.354
80470SOL    HW143307   8.824   5.577  10.321
80470SOL    HW243308   8.899   5.449  10.292
80471SOL     OW43309   4.469  13.024  13.758
80471SOL    HW143310   4.448  12.936  13.789
80471SOL    HW243311   4.490  13.012  13.665
80472SOL     OW43312  12.204   3.189   4.293
80472SOL    HW143313  12.115   3.156   4.307
80472SOL    HW243314  12.219   3.178   4.200
80473SOL     OW43315   3.624   4.961   3.480
80473SOL    HW143316   3.530   4.950   3.469
80473SOL    HW243317   3.652   4.884   3.529
80474SOL     OW43318   6.510   8.228   5.862
80474SOL    HW143319   6.517   8.186   5.776
80474SOL    HW243320   6.572   8.180   5.917
80475SOL     OW43321  14.838   5.483  12.780
80475SOL    HW143322  14.842   5.575  12.808
80475SOL    HW243323   0.027   5.440  12.830
80476SOL     OW43324   6.000  12.746  11.058
80476SOL    HW143325   5.974  12.720  11.146
80476SOL    HW243326   6.015  12.840  11.064
80477SOL     OW43327   9.453  12.285   5.938
80477SOL    HW143328   9.405  12.233   5.873
80477SOL    HW243329   9.544  12.279   5.911
80478SOL     OW43330   7.305  12.458   4.793
80478SOL    HW143331   7.393  12.496   4.786
80478SOL    HW243332   7.254  12.524   4.840
80479SOL     OW43333   2.308   0.210  11.594
80479SOL    HW143334   2.268   0.273  11.653
80479SOL    HW243335   2.270   0.126  11.620
80480SOL     OW43336   9.942   9.019  13.165
80480SOL    HW143337  10.005   8.955  13.132
80480SOL    HW243338   9.871   9.017  13.102
80481SOL     OW43339   0.017  14.495   2.445
80481SOL    HW143340   0.104  14.471   2.415
80481SOL    HW243341  14.865  14.557   2.380
80482SOL     OW43342   6.441   6.473   2.569
80482SOL    HW143343   6.474   6.394   2.611
80482SOL    HW243344   6.520   6.525   2.551
80483SOL     OW43345   1.655   4.008   6.137
80483SOL    HW143346   1.689   4.085   6.091
80483SOL    HW243347   1.733   3.956   6.157
80484SOL     OW43348  12.791   3.575   4.362
80484SOL    HW143349  12.840   3.653   4.338
80484SOL    HW243350  12.755   3.595   4.449
80485SOL     OW43351   0.504   5.588  12.390
80485SOL    HW143352   0.489   5.522  12.457
80485SOL    HW243353   0.537   5.539  12.314
80486SOL     OW43354  14.013  10.839   4.440
80486SOL    HW143355  14.078  10.869   4.377
80486SOL    HW243356  14.058  10.772   4.491
80487SOL     OW43357   0.103   8.350  14.672
80487SOL    HW143358   0.185   8.321  14.632
80487SOL    HW243359   0.091   8.440  14.641
80488SOL     OW43360  12.848   6.643   4.860
80488SOL    HW143361  12.753   6.657   4.868
80488SOL    HW243362  12.856   6.557   4.820
80489SOL     OW43363   1.290   0.089  14.818
80489SOL    HW143364   1.357   0.031  14.784
80489SOL    HW243365   1.338   0.162  14.857
80490SOL     OW43366   1.803   9.728   0.872
80490SOL    HW143367   1.839   9.808   0.908
80490SOL    HW243368   1.723   9.755   0.828
80491SOL     OW43369   0.747   9.083   0.981
80491SOL    HW143370   0.800   9.018   0.934
80491SOL    HW243371   0.806   9.157   0.994
80492SOL     OW43372   6.686   7.083   6.314
80492SOL    HW143373   6.718   7.169   6.338
80492SOL    HW243374   6.745   7.053   6.244
80493SOL     OW43375  11.680   0.092   7.330
80493SOL    HW143376  11.722   0.167   7.288
80493SOL    HW243377  11.636   0.129   7.406
80494SOL     OW43378   0.075   6.719   3.716
80494SOL    HW143379   0.074   6.757   3.628
80494SOL    HW243380   0.062   6.625   3.701
80495SOL     OW43381  14.508   6.865   7.495
80495SOL    HW143382  14.539   6.877   7.585
80495SOL    HW243383  14.487   6.954   7.465
80496SOL     OW43384   4.685   4.756   3.201
80496SOL    HW143385   4.613   4.700   3.173
80496SOL    HW243386   4.647   4.844   3.205
80497SOL     OW43387   8.671  13.537  10.299
80497SOL    HW143388   8.581  13.568  10.310
80497SOL    HW243389   8.667  13.480  10.222
80498SOL     OW43390   6.848  12.104   6.816
80498SOL    HW143391   6.761  12.071   6.795
80498SOL    HW243392   6.894  12.028   6.852
80499SOL     OW43393  11.808   8.334   1.242
80499SOL    HW143394  11.791   8.413   1.191
80499SOL    HW243395  11.811   8.363   1.333
80500SOL     OW43396   6.542   0.823   4.519
80500SOL    HW143397   6.614   0.792   4.574
80500SOL    HW243398   6.463   0.797   4.566
80501SOL     OW43399  11.950   1.307   2.313
80501SOL    HW143400  11.925   1.399   2.302
80501SOL    HW243401  12.030   1.310   2.365
80502SOL     OW43402   1.930   1.567   1.525
80502SOL    HW143403   1.929   1.627   1.451
80502SOL    HW243404   1.978   1.490   1.494
80503SOL     OW43405  11.700   3.652   6.211
80503SOL    HW143406  11.614   3.687   6.185
80503SOL    HW243407  11.745   3.727   6.250
80504SOL     OW43408   4.314   7.168   6.710
80504SOL    HW143409   4.298   7.184   6.803
80504SOL    HW243410   4.233   7.195   6.667
80505SOL     OW43411   5.292   9.078   0.650
80505SOL    HW143412   5.226   9.112   0.711
80505SOL    HW243413   5.245   9.012   0.599
80506SOL     OW43414  12.502   1.537   4.291
80506SOL    HW143415  12.460   1.604   4.344
80506SOL    HW243416  12.548   1.482   4.355
80507SOL     OW43417  10.876   2.438  14.219
80507SOL    HW143418  10.813   2.505  14.247
80507SOL    HW243419  10.883   2.450  14.125
80508SOL     OW43420   8.183   5.555  13.528
80508SOL    HW143421   8.173   5.568  13.434
80508SOL    HW243422   8.196   5.461  13.538
80509SOL     OW43423   9.616  14.710   3.266
80509SOL    HW143424   9.625  14.805   3.279
80509SOL    HW243425   9.522  14.695   3.270
80510SOL     OW43426  10.149   8.470   9.575
80510SOL    HW143427  10.069   8.420   9.589
80510SOL    HW243428  10.119   8.559   9.558
80511SOL     OW43429   8.733  10.059   9.483
80511SOL    HW143430   8.683  10.116   9.424
80511SOL    HW243431   8.812  10.038   9.434
80512SOL     OW43432   5.405   5.167  13.122
80512SOL    HW143433   5.382   5.160  13.030
80512SOL    HW243434   5.360   5.246  13.152
80513SOL     OW43435  14.871   6.078   2.656
80513SOL    HW143436  14.857   6.124   2.573
80513SOL    HW243437   0.085   6.061   2.657
80514SOL     OW43438   1.715  13.732  10.008
80514SOL    HW143439   1.753  13.646   9.989
80514SOL    HW243440   1.766  13.793   9.955
80515SOL     OW43441   9.186   4.156   5.893
80515SOL    HW143442   9.225   4.232   5.851
80515SOL    HW243443   9.132   4.193   5.963
80516SOL     OW43444   0.501  11.019  13.086
80516SOL    HW143445   0.465  10.938  13.052
80516SOL    HW243446   0.473  11.086  13.024
80517SOL     OW43447   0.629   7.690   4.318
80517SOL    HW143448   0.669   7.619   4.268
80517SOL    HW243449   0.592   7.748   4.251
80518SOL     OW43450   2.463  13.291  10.732
80518SOL    HW143451   2.533  13.254  10.678
80518SOL    HW243452   2.509  13.338  10.802
80519SOL     OW43453   7.104  12.916   9.138
80519SOL    HW143454   7.062  12.871   9.064
80519SOL    HW243455   7.196  12.919   9.115
80520SOL     OW43456   8.606   1.953   7.344
80520SOL    HW143457   8.560   1.927   7.424
80520SOL    HW243458   8.620   2.048   7.354
80521SOL     OW43459   5.811  11.274   6.554
80521SOL    HW143460   5.790  11.213   6.483
80521SOL    HW243461   5.763  11.240   6.629
80522SOL     OW43462  12.539   2.674   4.403
80522SOL    HW143463  12.516   2.746   4.462
80522SOL    HW243464  12.471   2.677   4.335
80523SOL     OW43465   7.497   2.017  10.722
80523SOL    HW143466   7.567   2.037  10.661
80523SOL    HW243467   7.504   1.923  10.737
80524SOL     OW43468  13.963   5.193  11.039
80524SOL    HW143469  14.031   5.188  10.972
80524SOL    HW243470  13.966   5.108  11.083
80525SOL     OW43471   6.580  12.487  10.032
80525SOL    HW143472   6.583  12.394  10.010
80525SOL    HW243473   6.489  12.502  10.058
80526SOL     OW43474  11.971   4.648   1.761
80526SOL    HW143475  11.955   4.725   1.816
80526SOL    HW243476  11.996   4.579   1.822
80527SOL     OW43477   5.099   8.657  14.719
80527SOL    HW143478   5.085   8.587  14.656
80527SOL    HW243479   5.105   8.737  14.666
80528SOL     OW43480   1.828   6.495   5.069
80528SOL    HW143481   1.894   6.564   5.068
80528SOL    HW243482   1.864   6.429   5.128
80529SOL     OW43483   5.763   3.478   3.011
80529SOL    HW143484   5.679   3.522   3.002
80529SOL    HW243485   5.743   3.385   3.002
80530SOL     OW43486  13.478  12.121  14.368
80530SOL    HW143487  13.391  12.082  14.369
80530SOL    HW243488  13.518  12.088  14.288
80531SOL     OW43489   8.485   5.061   9.222
80531SOL    HW143490   8.515   5.146   9.191
80531SOL    HW243491   8.496   5.064   9.317
80532SOL     OW43492  10.631   6.119  10.056
80532SOL    HW143493  10.588   6.043  10.016
80532SOL    HW243494  10.716   6.087  10.085
80533SOL     OW43495  10.794   4.039   4.194
80533SOL    HW143496  10.819   4.078   4.277
80533SOL    HW243497  10.700   4.055   4.187
80534SOL     OW43498   2.073   1.018  11.408
80534SOL    HW143499   2.131   1.073  11.357
80534SOL    HW243500   2.000   0.997  11.349
80535SOL     OW43501  10.395  10.090   1.523
80535SOL    HW143502  10.482  10.117   1.493
80535SOL    HW243503  10.388  10.125   1.612
80536SOL     OW43504   1.260  10.457   0.639
80536SOL    HW143505   1.255  10.510   0.719
80536SOL    HW243506   1.334  10.399   0.653
80537SOL     OW43507   7.514   9.834  13.508
80537SOL    HW143508   7.558   9.903  13.558
80537SOL    HW243509   7.526   9.860  13.417
80538SOL     OW43510   5.707   7.998   8.408
80538SOL    HW143511   5.719   8.072   8.467
80538SOL    HW243512   5.754   7.926   8.450
80539SOL     OW43513  14.351  13.315   7.078
80539SOL    HW143514  14.329  13.246   7.141
80539SOL    HW243515  14.445  13.306   7.064
80540SOL     OW43516   0.059   3.228   1.246
80540SOL    HW143517   0.089   3.257   1.160
80540SOL    HW243518   0.005   3.300   1.279
80541SOL     OW43519  10.234  13.406  11.091
80541SOL    HW143520  10.285  13.483  11.118
80541SOL    HW243521  10.148  13.419  11.131
80542SOL     OW43522   7.946   4.346   4.659
80542SOL    HW143523   8.010   4.292   4.705
80542SOL    HW243524   7.902   4.285   4.600
80543SOL     OW43525   3.924  14.836   3.335
80543SOL    HW143526   3.944   0.045   3.364
80543SOL    HW243527   3.908  14.844   3.241
80544SOL     OW43528   8.643   2.756   2.799
80544SOL    HW143529   8.619   2.678   2.849
80544SOL    HW243530   8.691   2.722   2.724
80545SOL     OW43531   1.980   6.372  14.234
80545SOL    HW143532   2.037   6.426  14.289
80545SOL    HW243533   1.929   6.320  14.296
80546SOL     OW43534  14.365   8.403  10.719
80546SOL    HW143535  14.419   8.326  10.739
80546SOL    HW243536  14.334   8.388  10.630
80547SOL     OW43537   0.712   4.010   9.718
80547SOL    HW143538   0.769   4.082   9.743
80547SOL    HW243539   0.651   4.002   9.791
80548SOL     OW43540  11.876   0.509   7.956
80548SOL    HW143541  11.894   0.547   8.042
80548SOL    HW243542  11.784   0.530   7.939
80549SOL     OW43543  10.245   7.035   0.780
80549SOL    HW143544  10.272   7.075   0.863
80549SOL    HW243545  10.296   6.955   0.774
80550SOL     OW43546  14.365   0.023   8.919
80550SOL    HW143547  14.390  14.875   9.008
80550SOL    HW243548  14.351  14.822   8.871
80551SOL     OW43549   7.943   2.770  10.389
80551SOL    HW143550   7.912   2.804  10.473
80551SOL    HW243551   7.933   2.675  10.396
80552SOL     OW43552  11.613   9.351   4.151
80552SOL    HW143553  11.555   9.291   4.198
80552SOL    HW243554  11.694   9.349   4.202
80553SOL     OW43555   1.750   9.634   7.422
80553SOL    HW143556   1.736   9.543   7.397
80553SOL    HW243557   1.793   9.674   7.347
80554SOL     OW43558   5.991   4.217   9.735
80554SOL    HW143559   5.924   4.204   9.802
80554SOL    HW243560   6.068   4.171   9.769
80555SOL     OW43561   3.132  10.743  12.303
80555SOL    HW143562   3.168  10.654  12.304
80555SOL    HW243563   3.037  10.731  12.311
80556SOL     OW43564   2.557  11.374   3.422
80556SOL    HW143565   2.489  11.378   3.490
80556SOL    HW243566   2.626  11.320   3.461
80557SOL     OW43567   6.299  13.901  10.839
80557SOL    HW143568   6.392  13.912  10.824
80557SOL    HW243569   6.288  13.807  10.857
80558SOL     OW43570   0.768   7.984   7.650
80558SOL    HW143571   0.699   8.046   7.626
80558SOL    HW243572   0.779   7.996   7.745
80559SOL     OW43573   7.131  11.069   3.298
80559SOL    HW143574   7.136  10.994   3.238
80559SOL    HW243575   7.142  11.030   3.385
80560SOL     OW43576   9.426   2.166  13.521
80560SOL    HW143577   9.364   2.214  13.576
80560SOL    HW243578   9.484   2.122  13.584
80561SOL     OW43579   1.052   9.112  14.316
80561SOL    HW143580   1.034   9.157  14.233
80561SOL    HW243581   1.007   9.166  14.382
80562SOL     OW43582   1.340   0.326   4.027
80562SOL    HW143583   1.379   0.274   3.956
80562SOL    HW243584   1.249   0.297   4.030
80563SOL     OW43585   0.182  13.888   3.202
80563SOL    HW143586   0.090  13.861   3.212
80563SOL    HW243587   0.208  13.917   3.290
80564SOL     OW43588   9.501   8.107   6.092
80564SOL    HW143589   9.550   8.093   6.173
80564SOL    HW243590   9.489   8.019   6.056
80565SOL     OW43591   4.749   4.663   6.574
80565SOL    HW143592   4.761   4.701   6.660
80565SOL    HW243593   4.800   4.718   6.515
80566SOL     OW43594   8.425   4.967   5.734
80566SOL    HW143595   8.489   4.903   5.705
80566SOL    HW243596   8.438   5.043   5.678
80567SOL     OW43597  11.267   6.517  14.316
80567SOL    HW143598  11.227   6.512  14.230
80567SOL    HW243599  11.198   6.491  14.377
80568SOL     OW43600  10.048   3.742   5.161
80568SOL    HW143601  10.087   3.829   5.175
80568SOL    HW243602  10.067   3.722   5.069
80569SOL     OW43603  12.754   4.319   0.368
80569SOL    HW143604  12.758   4.228   0.339
80569SOL    HW243605  12.667   4.328   0.408
80570SOL     OW43606   1.810  10.152   0.260
80570SOL    HW143607   1.782  10.066   0.231
80570SOL    HW243608   1.749  10.175   0.330
80571SOL     OW43609   5.141  13.280  14.659
80571SOL    HW143610   5.053  13.312  14.678
80571SOL    HW243611   5.194  13.359  14.652
80572SOL     OW43612   4.601   9.965   7.536
80572SOL    HW143613   4.567  10.052   7.556
80572SOL    HW243614   4.544   9.905   7.584
80573SOL     OW43615  12.745   9.036   8.073
80573SOL    HW143616  12.832   8.995   8.075
80573SOL    HW243617  12.737   9.078   8.159
80574SOL     OW43618   4.303  14.182   2.904
80574SOL    HW143619   4.371  14.183   2.837
80574SOL    HW243620   4.300  14.091   2.934
80575SOL     OW43621  11.733   0.053   2.438
80575SOL    HW143622  11.725   0.082   2.348
80575SOL    HW243623  11.825   0.029   2.448
80576SOL     OW43624  10.730   9.298   4.649
80576SOL    HW143625  10.717   9.349   4.729
80576SOL    HW243626  10.641   9.286   4.614
80577SOL     OW43627   3.212   9.840   1.526
80577SOL    HW143628   3.271   9.904   1.485
80577SOL    HW243629   3.136   9.837   1.468
80578SOL     OW43630   5.162   0.848  14.845
80578SOL    HW143631   5.234   0.835  14.784
80578SOL    HW243632   5.164   0.941  14.865
80579SOL     OW43633   5.606   8.165  10.677
80579SOL    HW143634   5.566   8.107  10.612
80579SOL    HW243635   5.701   8.151  10.665
80580SOL     OW43636  13.013   7.062  12.842
80580SOL    HW143637  12.979   6.973  12.846
80580SOL    HW243638  12.949   7.114  12.890
80581SOL     OW43639   1.211  13.076  10.839
80581SOL    HW143640   1.187  13.070  10.932
80581SOL    HW243641   1.281  13.012  10.828
80582SOL     OW43642   7.244   1.313   6.440
80582SOL    HW143643   7.335   1.299   6.412
80582SOL    HW243644   7.252   1.358   6.524
80583SOL     OW43645   1.620  10.351  10.093
80583SOL    HW143646   1.534  10.379  10.062
80583SOL    HW243647   1.652  10.424  10.146
80584SOL     OW43648   5.411   9.908  12.462
80584SOL    HW143649   5.418   9.977  12.396
80584SOL    HW243650   5.490   9.916  12.514
80585SOL     OW43651  14.853  11.778   5.453
80585SOL    HW143652   0.062  11.795   5.422
80585SOL    HW243653  14.841  11.684   5.439
80586SOL     OW43654  11.600   6.700   9.302
80586SOL    HW143655  11.665   6.635   9.275
80586SOL    HW243656  11.646   6.784   9.297
80587SOL     OW43657   7.911   0.318   8.011
80587SOL    HW143658   7.877   0.397   8.053
80587SOL    HW243659   7.833   0.270   7.984
80588SOL     OW43660   4.903  10.584  14.101
80588SOL    HW143661   4.928  10.493  14.088
80588SOL    HW243662   4.920  10.626  14.016
80589SOL     OW43663   2.946   1.691   4.314
80589SOL    HW143664   3.003   1.768   4.306
80589SOL    HW243665   2.861   1.727   4.340
80590SOL     OW43666   6.356   1.721   5.760
80590SOL    HW143667   6.279   1.768   5.790
80590SOL    HW243668   6.414   1.718   5.837
80591SOL     OW43669   8.388   7.938   6.590
80591SOL    HW143670   8.317   7.924   6.527
80591SOL    HW243671   8.466   7.909   6.544
80592SOL     OW43672  11.951  13.393   4.689
80592SOL    HW143673  11.923  13.483   4.677
80592SOL    HW243674  12.030  13.399   4.743
80593SOL     OW43675  10.832  13.299  12.900
80593SOL    HW143676  10.912  13.292  12.951
80593SOL    HW243677  10.827  13.217  12.850
80594SOL     OW43678  13.948   2.682  11.903
80594SOL    HW143679  13.996   2.643  11.976
80594SOL    HW243680  13.867   2.631  11.899
80595SOL     OW43681  10.562   8.762   4.597
80595SOL    HW143682  10.529   8.733   4.682
80595SOL    HW243683  10.501   8.829   4.569
80596SOL     OW43684   8.753   7.449  11.078
80596SOL    HW143685   8.729   7.540  11.058
80596SOL    HW243686   8.683   7.397  11.039
80597SOL     OW43687  13.796   5.388   0.424
80597SOL    HW143688  13.861   5.446   0.384
80597SOL    HW243689  13.714   5.439   0.421
80598SOL     OW43690  12.562   0.432   7.523
80598SOL    HW143691  12.559   0.527   7.518
80598SOL    HW243692  12.476   0.406   7.556
80599SOL     OW43693   1.164  10.591   4.682
80599SOL    HW143694   1.202  10.510   4.647
80599SOL    HW243695   1.106  10.621   4.613
80600SOL     OW43696  14.262   1.597   1.397
80600SOL    HW143697  14.193   1.552   1.446
80600SOL    HW243698  14.253   1.564   1.308
80601SOL     OW43699   7.865   7.837   4.060
80601SOL    HW143700   7.771   7.833   4.079
80601SOL    HW243701   7.885   7.930   4.056
80602SOL     OW43702   7.454   0.611  11.542
80602SOL    HW143703   7.547   0.598  11.521
80602SOL    HW243704   7.411   0.533  11.506
80603SOL     OW43705  11.372   6.788   7.160
80603SOL    HW143706  11.290   6.825   7.128
80603SOL    HW243707  11.362   6.693   7.147
80604SOL     OW43708   4.446  10.487  10.492
80604SOL    HW143709   4.429  10.398  10.522
80604SOL    HW243710   4.525  10.480  10.438
80605SOL     OW43711   0.433   3.838   8.152
80605SOL    HW143712   0.520   3.877   8.148
80605SOL    HW243713   0.393   3.858   8.067
80606SOL     OW43714   4.454  11.395   3.717
80606SOL    HW143715   4.465  11.332   3.789
80606SOL    HW243716   4.403  11.349   3.652
80607SOL     OW43717   1.451   0.934   1.027
80607SOL    HW143718   1.372   0.919   0.975
80607SOL    HW243719   1.426   1.002   1.090
80608SOL     OW43720   6.333   6.116  10.169
80608SOL    HW143721   6.323   6.024  10.192
80608SOL    HW243722   6.427   6.129  10.159
80609SOL     OW43723   6.523   6.425   5.445
80609SOL    HW143724   6.571   6.498   5.483
80609SOL    HW243725   6.462   6.466   5.383
80610SOL     OW43726  12.736   6.297   1.753
80610SOL    HW143727  12.688   6.368   1.711
80610SOL    HW243728  12.755   6.235   1.682
80611SOL     OW43729   8.572  13.542  14.239
80611SOL    HW143730   8.633  13.488  14.291
80611SOL    HW243731   8.488  13.530  14.282
80612SOL     OW43732   5.053   9.284   9.259
80612SOL    HW143733   5.137   9.276   9.305
80612SOL    HW243734   5.068   9.239   9.175
80613SOL     OW43735  10.854  14.690   2.832
80613SOL    HW143736  10.809  14.677   2.749
80613SOL    HW243737  10.945  14.663   2.815
80614SOL     OW43738  11.262  11.624   0.513
80614SOL    HW143739  11.191  11.677   0.549
80614SOL    HW243740  11.231  11.534   0.519
80615SOL     OW43741   6.217  13.196   5.641
80615SOL    HW143742   6.160  13.216   5.716
80615SOL    HW243743   6.262  13.278   5.622
80616SOL     OW43744  11.134  10.714   5.880
80616SOL    HW143745  11.225  10.703   5.910
80616SOL    HW243746  11.135  10.795   5.829
80617SOL     OW43747   4.594  11.722  11.693
80617SOL    HW143748   4.557  11.790  11.637
80617SOL    HW243749   4.542  11.644  11.675
80618SOL     OW43750  11.275   0.619   5.297
80618SOL    HW143751  11.248   0.701   5.339
80618SOL    HW243752  11.328   0.574   5.363
80619SOL     OW43753   7.843   1.208  14.595
80619SOL    HW143754   7.771   1.200  14.533
80619SOL    HW243755   7.840   1.299  14.624
80620SOL     OW43756   8.262  10.205   6.376
80620SOL    HW143757   8.229  10.128   6.423
80620SOL    HW243758   8.284  10.268   6.445
80621SOL     OW43759   0.244  13.419   2.001
80621SOL    HW143760   0.334  13.395   1.981
80621SOL    HW243761   0.252  13.485   2.069
80622SOL     OW43762   9.693  10.931   2.615
80622SOL    HW143763   9.692  11.011   2.668
80622SOL    HW243764   9.786  10.918   2.594
80623SOL     OW43765   5.181  12.693   7.271
80623SOL    HW143766   5.145  12.676   7.357
80623SOL    HW243767   5.236  12.616   7.252
80624SOL     OW43768   0.204   2.813   9.634
80624SOL    HW143769   0.177   2.862   9.712
80624SOL    HW243770   0.288   2.773   9.659
80625SOL     OW43771   8.375   9.699  14.831
80625SOL    HW143772   8.390   9.630   0.016
80625SOL    HW243773   8.379   9.780   0.001
80626SOL     OW43774  10.659   2.706   0.343
80626SOL    HW143775  10.649   2.637   0.409
80626SOL    HW243776  10.571   2.718   0.307
80627SOL     OW43777   1.601   9.200   8.423
80627SOL    HW143778   1.511   9.223   8.398
80627SOL    HW243779   1.591   9.156   8.507
80628SOL     OW43780  11.140   3.020  11.334
80628SOL    HW143781  11.116   3.067  11.254
80628SOL    HW243782  11.139   3.088  11.402
80629SOL     OW43783  10.361   5.492  13.107
80629SOL    HW143784  10.329   5.577  13.076
80629SOL    HW243785  10.304   5.428  13.065
80630SOL     OW43786  12.643   6.375   7.709
80630SOL    HW143787  12.641   6.361   7.803
80630SOL    HW243788  12.583   6.448   7.695
80631SOL     OW43789   4.264   5.829  14.497
80631SOL    HW143790   4.339   5.853  14.551
80631SOL    HW243791   4.250   5.736  14.514
80632SOL     OW43792   9.678  13.766  14.645
80632SOL    HW143793   9.646  13.842  14.694
80632SOL    HW243794   9.741  13.802  14.583
80633SOL     OW43795   7.697   3.243   6.139
80633SOL    HW143796   7.700   3.148   6.145
80633SOL    HW243797   7.786   3.269   6.115
80634SOL     OW43798   1.879   0.522   9.003
80634SOL    HW143799   1.806   0.462   8.993
80634SOL    HW243800   1.840   0.601   9.040
80635SOL     OW43801   8.509   6.617   4.084
80635SOL    HW143802   8.533   6.691   4.028
80635SOL    HW243803   8.437   6.649   4.137
80636SOL     OW43804   0.103  10.294  10.593
80636SOL    HW143805   0.165  10.221  10.590
80636SOL    HW243806   0.066  10.292  10.682
80637SOL     OW43807   9.200   0.307  13.586
80637SOL    HW143808   9.219   0.385  13.639
80637SOL    HW243809   9.284   0.262  13.579
80638SOL     OW43810   8.015   5.479  11.249
80638SOL    HW143811   8.065   5.451  11.325
80638SOL    HW243812   8.080   5.515  11.189
80639SOL     OW43813   9.615   2.650   7.196
80639SOL    HW143814   9.556   2.615   7.130
80639SOL    HW243815   9.631   2.576   7.255
80640SOL     OW43816  11.425  10.000  12.813
80640SOL    HW143817  11.429  10.075  12.754
80640SOL    HW243818  11.508  10.002  12.861
80641SOL     OW43819  10.569   4.628   5.850
80641SOL    HW143820  10.634   4.693   5.823
80641SOL    HW243821  10.546   4.582   5.769
80642SOL     OW43822   8.593  11.579   6.067
80642SOL    HW143823   8.528  11.647   6.053
80642SOL    HW243824   8.634  11.566   5.981
80643SOL     OW43825  12.094   2.180  11.411
80643SOL    HW143826  12.163   2.199  11.475
80643SOL    HW243827  12.083   2.261  11.363
80644SOL     OW43828  10.727   4.453   7.600
80644SOL    HW143829  10.705   4.496   7.682
80644SOL    HW243830  10.731   4.523   7.536
80645SOL     OW43831   9.170   4.647   1.135
80645SOL    HW143832   9.180   4.553   1.147
80645SOL    HW243833   9.088   4.668   1.181
80646SOL     OW43834   6.816   0.384   5.205
80646SOL    HW143835   6.876   0.431   5.148
80646SOL    HW243836   6.806   0.441   5.281
80647SOL     OW43837   9.995   1.137   3.732
80647SOL    HW143838  10.005   1.086   3.811
80647SOL    HW243839   9.900   1.137   3.715
80648SOL     OW43840  13.923   1.881   9.777
80648SOL    HW143841  13.996   1.823   9.798
80648SOL    HW243842  13.845   1.827   9.787
80649SOL     OW43843   8.633  12.439   7.405
80649SOL    HW143844   8.701  12.391   7.453
80649SOL    HW243845   8.581  12.371   7.363
80650SOL     OW43846   7.845  14.106   8.617
80650SOL    HW143847   7.919  14.046   8.629
80650SOL    HW243848   7.784  14.082   8.687
80651SOL     OW43849   6.274   9.596   2.447
80651SOL    HW143850   6.366   9.614   2.427
80651SOL    HW243851   6.260   9.507   2.415
80652SOL     OW43852   0.365   0.854  11.117
80652SOL    HW143853   0.409   0.796  11.180
80652SOL    HW243854   0.354   0.936  11.165
80653SOL     OW43855   0.479   3.821   4.067
80653SOL    HW143856   0.509   3.911   4.077
80653SOL    HW243857   0.417   3.808   4.138
80654SOL     OW43858   2.164  13.687  11.576
80654SOL    HW143859   2.070  13.684  11.593
80654SOL    HW243860   2.203  13.707  11.661
80655SOL     OW43861   2.197   7.158   4.951
80655SOL    HW143862   2.270   7.105   4.920
80655SOL    HW243863   2.153   7.186   4.871
80656SOL     OW43864   9.519   2.092   7.620
80656SOL    HW143865   9.518   1.997   7.629
80656SOL    HW243866   9.437   2.113   7.577
80657SOL     OW43867   3.464   5.631   4.564
80657SOL    HW143868   3.436   5.541   4.543
80657SOL    HW243869   3.425   5.685   4.496
80658SOL     OW43870  11.512   8.596  10.158
80658SOL    HW143871  11.495   8.689  10.148
80658SOL    HW243872  11.561   8.589  10.240
80659SOL     OW43873   2.866  14.753   1.355
80659SOL    HW143874   2.812  14.697   1.300
80659SOL    HW243875   2.949  14.761   1.307
80660SOL     OW43876   5.995  14.748   7.622
80660SOL    HW143877   6.030  14.662   7.646
80660SOL    HW243878   5.968  14.738   7.531
80661SOL     OW43879   7.069  10.212   2.666
80661SOL    HW143880   7.139  10.247   2.721
80661SOL    HW243881   7.005  10.177   2.729
80662SOL     OW43882  11.155  13.176   8.316
80662SOL    HW143883  11.219  13.160   8.384
80662SOL    HW243884  11.200  13.233   8.253
80663SOL     OW43885   9.909   5.977   1.011
80663SOL    HW143886   9.986   6.011   1.056
80663SOL    HW243887   9.857   6.056   0.991
80664SOL     OW43888   7.252  10.276   2.855
80664SOL    HW143889   7.336  10.239   2.882
80664SOL    HW243890   7.192  10.253   2.926
80665SOL     OW43891  11.474   8.484  12.470
80665SOL    HW143892  11.416   8.409  12.454
80665SOL    HW243893  11.560   8.445  12.487
80666SOL     OW43894   6.810   8.410   4.993
80666SOL    HW143895   6.880   8.373   5.047
80666SOL    HW243896   6.744   8.438   5.056
80667SOL     OW43897  10.097   1.049   2.405
80667SOL    HW143898  10.009   1.058   2.443
80667SOL    HW243899  10.082   1.027   2.314
80668SOL     OW43900  11.819   9.871   3.508
80668SOL    HW143901  11.769   9.840   3.432
80668SOL    HW243902  11.759   9.859   3.582
80669SOL     OW43903   9.847   7.594   9.921
80669SOL    HW143904   9.781   7.662   9.909
80669SOL    HW243905   9.796   7.514   9.939
80670SOL     OW43906   9.986  12.893  11.309
80670SOL    HW143907   9.918  12.941  11.263
80670SOL    HW243908   9.975  12.918  11.401
80671SOL     OW43909   1.942   4.968   6.834
80671SOL    HW143910   1.971   5.053   6.867
80671SOL    HW243911   2.010   4.907   6.863
80672SOL     OW43912  10.162   2.136   3.372
80672SOL    HW143913  10.231   2.106   3.432
80672SOL    HW243914  10.140   2.224   3.404
80673SOL     OW43915   7.208   7.771   8.642
80673SOL    HW143916   7.275   7.793   8.577
80673SOL    HW243917   7.244   7.801   8.725
80674SOL     OW43918   3.010   1.907   4.706
80674SOL    HW143919   3.086   1.881   4.653
80674SOL    HW243920   2.955   1.829   4.708
80675SOL     OW43921   2.270   8.343   7.061
80675SOL    HW143922   2.244   8.271   7.004
80675SOL    HW243923   2.319   8.402   7.003
80676SOL     OW43924   7.657  12.017   1.190
80676SOL    HW143925   7.745  12.040   1.221
80676SOL    HW243926   7.620  12.098   1.157
80677SOL     OW43927  10.058   2.990  13.329
80677SOL    HW143928   9.983   3.039  13.362
80677SOL    HW243929  10.061   2.911  13.383
80678SOL     OW43930   4.091   4.529   5.095
80678SOL    HW143931   4.051   4.478   5.166
80678SOL    HW243932   4.035   4.511   5.019
80679SOL     OW43933   9.632  14.563   1.006
80679SOL    HW143934   9.649  14.633   0.943
80679SOL    HW243935   9.686  14.490   0.975
80680SOL     OW43936   0.789   5.945   3.417
80680SOL    HW143937   0.807   5.923   3.508
80680SOL    HW243938   0.700   5.979   3.417
80681SOL     OW43939   2.623   0.490   4.818
80681SOL    HW143940   2.634   0.570   4.870
80681SOL    HW243941   2.710   0.474   4.780
80682SOL     OW43942   3.148   8.734  11.489
80682SOL    HW143943   3.070   8.741  11.543
80682SOL    HW243944   3.124   8.672  11.420
80683SOL     OW43945   4.226   3.914  12.505
80683SOL    HW143946   4.171   3.942  12.431
80683SOL    HW243947   4.268   3.995  12.535
80684SOL     OW43948   2.985   2.343  14.263
80684SOL    HW143949   3.002   2.354  14.356
80684SOL    HW243950   3.035   2.414  14.221
80685SOL     OW43951   8.538  14.029   6.910
80685SOL    HW143952   8.513  14.122   6.911
80685SOL    HW243953   8.579  14.015   6.995
80686SOL     OW43954  12.865   4.136   8.247
80686SOL    HW143955  12.806   4.066   8.275
80686SOL    HW243956  12.847   4.208   8.307
80687SOL     OW43957  13.627   5.279  14.527
80687SOL    HW143958  13.697   5.258  14.465
80687SOL    HW243959  13.625   5.375  14.529
80688SOL     OW43960   9.271  12.589   0.703
80688SOL    HW143961   9.353  12.606   0.750
80688SOL    HW243962   9.228  12.674   0.700
80689SOL     OW43963   9.493   3.480   4.267
80689SOL    HW143964   9.543   3.559   4.249
80689SOL    HW243965   9.431   3.473   4.194
80690SOL     OW43966   0.507   3.231   8.417
80690SOL    HW143967   0.449   3.157   8.400
80690SOL    HW243968   0.538   3.217   8.506
80691SOL     OW43969   4.718   7.261   7.441
80691SOL    HW143970   4.784   7.303   7.496
80691SOL    HW243971   4.755   7.174   7.423
80692SOL     OW43972  13.125   8.252  11.115
80692SOL    HW143973  13.134   8.158  11.132
80692SOL    HW243974  13.059   8.281  11.177
80693SOL     OW43975   9.446  12.259  10.949
80693SOL    HW143976   9.445  12.181  11.004
80693SOL    HW243977   9.459  12.225  10.860
80694SOL     OW43978  12.148  11.868   3.060
80694SOL    HW143979  12.108  11.888   3.145
80694SOL    HW243980  12.074  11.844   3.003
80695SOL     OW43981   5.975  13.270   2.705
80695SOL    HW143982   5.923  13.272   2.624
80695SOL    HW243983   6.062  13.297   2.678
80696SOL     OW43984  12.184  12.686   6.756
80696SOL    HW143985  12.200  12.780   6.768
80696SOL    HW243986  12.254  12.657   6.697
80697SOL     OW43987  14.493   1.180  13.917
80697SOL    HW143988  14.582   1.213  13.923
80697SOL    HW243989  14.457   1.222  13.839
80698SOL     OW43990  14.238  10.984   3.096
80698SOL    HW143991  14.173  10.919   3.123
80698SOL    HW243992  14.189  11.066   3.089
80699SOL     OW43993   0.013  13.948  13.537
80699SOL    HW143994  14.803  13.929  13.510
80699SOL    HW243995   0.065  13.931  13.458
80700SOL     OW43996  14.220   9.087   7.190
80700SOL    HW143997  14.258   9.081   7.102
80700SOL    HW243998  14.231   9.178   7.215
80701SOL     OW43999   8.970   4.966   6.559
80701SOL    HW144000   8.972   5.011   6.644
80701SOL    HW244001   8.944   5.033   6.497
80702SOL     OW44002   7.467   4.470  14.379
80702SOL    HW144003   7.441   4.551  14.334
80702SOL    HW244004   7.535   4.498  14.441
80703SOL     OW44005   8.394   7.548  10.098
80703SOL    HW144006   8.323   7.547  10.034
80703SOL    HW244007   8.352   7.572  10.180
80704SOL     OW44008   7.459   9.808   5.567
80704SOL    HW144009   7.468   9.717   5.596
80704SOL    HW244010   7.516   9.857   5.627
80705SOL     OW44011  13.433   1.623   1.386
80705SOL    HW144012  13.436   1.528   1.395
80705SOL    HW244013  13.430   1.655   1.476
80706SOL     OW44014   2.423  12.547   4.541
80706SOL    HW144015   2.436  12.468   4.593
80706SOL    HW244016   2.442  12.520   4.451
80707SOL     OW44017   8.897  12.898   6.007
80707SOL    HW144018   8.977  12.860   5.971
80707SOL    HW244019   8.892  12.865   6.096
80708SOL     OW44020   6.792  10.159   1.714
80708SOL    HW144021   6.733  10.083   1.720
80708SOL    HW244022   6.844  10.141   1.635
80709SOL     OW44023   7.661   5.818   6.655
80709SOL    HW144024   7.590   5.857   6.603
80709SOL    HW244025   7.652   5.723   6.641
80710SOL     OW44026   3.379   7.767  11.300
80710SOL    HW144027   3.332   7.694  11.260
80710SOL    HW244028   3.332   7.785  11.382
80711SOL     OW44029  10.121   6.267  14.322
80711SOL    HW144030  10.043   6.218  14.348
80711SOL    HW244031  10.179   6.200  14.284
80712SOL     OW44032   4.835   3.568   2.423
80712SOL    HW144033   4.903   3.507   2.395
80712SOL    HW244034   4.865   3.654   2.392
80713SOL     OW44035   8.160   1.664  10.459
80713SOL    HW144036   8.252   1.676  10.436
80713SOL    HW244037   8.157   1.580  10.505
80714SOL     OW44038   1.465   6.322   2.964
80714SOL    HW144039   1.533   6.374   3.007
80714SOL    HW244040   1.427   6.381   2.899
80715SOL     OW44041  13.616   4.907   9.155
80715SOL    HW144042  13.632   4.918   9.249
80715SOL    HW244043  13.578   4.990   9.128
80716SOL     OW44044   7.730  10.214  14.331
80716SOL    HW144045   7.756  10.293  14.283
80716SOL    HW244046   7.809  10.185  14.376
80717SOL     OW44047   9.271   5.588  11.684
80717SOL    HW144048   9.280   5.533  11.606
80717SOL    HW244049   9.238   5.529  11.751
80718SOL     OW44050  13.813   2.931   0.280
80718SOL    HW144051  13.803   2.947   0.374
80718SOL    HW244052  13.857   3.010   0.247
80719SOL     OW44053   4.041  12.505   2.767
80719SOL    HW144054   4.047  12.589   2.720
80719SOL    HW244055   4.097  12.446   2.717
80720SOL     OW44056  14.458   1.285   3.776
80720SOL    HW144057  14.391   1.234   3.822
80720SOL    HW244058  14.524   1.220   3.750
80721SOL     OW44059  11.366  14.578   6.953
80721SOL    HW144060  11.316  14.505   6.990
80721SOL    HW244061  11.404  14.543   6.873
80722SOL     OW44062   2.149   4.900   9.524
80722SOL    HW144063   2.244   4.906   9.520
80722SOL    HW244064   2.121   4.894   9.432
80723SOL     OW44065   9.845  13.206   3.536
80723SOL    HW144066   9.759  13.174   3.510
80723SOL    HW244067   9.830  13.298   3.560
80724SOL     OW44068   8.821   8.875  10.596
80724SOL    HW144069   8.737   8.829  10.598
80724SOL    HW244070   8.859   8.852  10.511
80725SOL     OW44071   8.691   2.915  12.088
80725SOL    HW144072   8.621   2.927  12.152
80725SOL    HW244073   8.699   2.820  12.079
80726SOL     OW44074  14.741   5.717  13.857
80726SOL    HW144075  14.767   5.688  13.770
80726SOL    HW244076  14.700   5.641  13.897
80727SOL     OW44077   0.338   6.382  10.375
80727SOL    HW144078   0.361   6.290  10.359
80727SOL    HW244079   0.247   6.380  10.405
80728SOL     OW44080   5.781   8.149   6.827
80728SOL    HW144081   5.703   8.190   6.790
80728SOL    HW244082   5.821   8.103   6.753
80729SOL     OW44083   0.124  13.993  14.504
80729SOL    HW144084   0.104  14.077  14.464
80729SOL    HW244085   0.039  13.958  14.532
80730SOL     OW44086  13.620  13.377  13.475
80730SOL    HW144087  13.617  13.419  13.561
80730SOL    HW244088  13.534  13.397  13.436
80731SOL     OW44089  12.847   4.113   8.726
80731SOL    HW144090  12.894   4.174   8.783
80731SOL    HW244091  12.886   4.027   8.745
80732SOL     OW44092   4.523   9.064   1.511
80732SOL    HW144093   4.596   9.121   1.488
80732SOL    HW244094   4.448   9.103   1.467
80733SOL     OW44095  13.013  12.158   5.732
80733SOL    HW144096  13.072  12.113   5.673
80733SOL    HW244097  12.925  12.135   5.700
80734SOL     OW44098   8.783   6.082   9.603
80734SOL    HW144099   8.815   6.159   9.555
80734SOL    HW244100   8.815   6.094   9.692
80735SOL     OW44101   3.528   5.353   0.089
80735SOL    HW144102   3.513   5.259   0.085
80735SOL    HW244103   3.598   5.364   0.154
80736SOL     OW44104   9.390  12.685   0.373
80736SOL    HW144105   9.422  12.705   0.285
80736SOL    HW244106   9.437  12.746   0.430
80737SOL     OW44107   7.354  12.713   5.512
80737SOL    HW144108   7.440  12.706   5.470
80737SOL    HW244109   7.308  12.781   5.461
80738SOL     OW44110   5.391   0.816   6.033
80738SOL    HW144111   5.330   0.743   6.031
80738SOL    HW244112   5.360   0.872   6.104
80739SOL     OW44113   0.486   2.858  10.068
80739SOL    HW144114   0.400   2.854  10.025
80739SOL    HW244115   0.507   2.951  10.071
80740SOL     OW44116   1.960   2.462   3.344
80740SOL    HW144117   1.932   2.480   3.254
80740SOL    HW244118   2.028   2.527   3.361
80741SOL     OW44119   7.103  10.684  12.313
80741SOL    HW144120   7.056  10.628  12.374
80741SOL    HW244121   7.092  10.773  12.347
80742SOL     OW44122   5.239   5.598  14.048
80742SOL    HW144123   5.241   5.516  14.096
80742SOL    HW244124   5.286   5.580  13.967
80743SOL     OW44125   3.520   3.685   8.728
80743SOL    HW144126   3.586   3.713   8.791
80743SOL    HW244127   3.439   3.678   8.779
80744SOL     OW44128   2.748  10.664   3.542
80744SOL    HW144129   2.801  10.660   3.462
80744SOL    HW244130   2.802  10.712   3.605
80745SOL     OW44131  11.335  11.328   1.103
80745SOL    HW144132  11.322  11.411   1.057
80745SOL    HW244133  11.258  11.319   1.159
80746SOL     OW44134   3.830   4.120   6.133
80746SOL    HW144135   3.905   4.105   6.191
80746SOL    HW244136   3.755   4.088   6.182
80747SOL     OW44137   3.014   3.483   0.078
80747SOL    HW144138   2.964   3.457   0.001
80747SOL    HW244139   2.987   3.574   0.095
80748SOL     OW44140  10.351   7.190  13.116
80748SOL    HW144141  10.420   7.127  13.134
80748SOL    HW244142  10.369   7.220  13.027
80749SOL     OW44143   4.423   5.773   4.516
80749SOL    HW144144   4.422   5.863   4.483
80749SOL    HW244145   4.515   5.753   4.530
80750SOL     OW44146   7.805   8.856   5.573
80750SOL    HW144147   7.761   8.771   5.572
80750SOL    HW244148   7.894   8.836   5.602
80751SOL     OW44149   4.210   7.713   6.949
80751SOL    HW144150   4.180   7.766   7.023
80751SOL    HW244151   4.303   7.733   6.941
80752SOL     OW44152  11.585   6.752   7.837
80752SOL    HW144153  11.503   6.702   7.838
80752SOL    HW244154  11.601   6.769   7.744
80753SOL     OW44155   4.883  10.580   1.084
80753SOL    HW144156   4.935  10.563   1.163
80753SOL    HW244157   4.843  10.665   1.100
80754SOL     OW44158   5.890   9.881   7.968
80754SOL    HW144159   5.868   9.806   8.023
80754SOL    HW244160   5.808   9.905   7.925
80755SOL     OW44161   4.618  14.091  11.538
80755SOL    HW144162   4.528  14.088  11.507
80755SOL    HW244163   4.654  14.172  11.502
80756SOL     OW44164   0.948   3.914   5.951
80756SOL    HW144165   0.880   3.943   5.890
80756SOL    HW244166   0.914   3.937   6.037
80757SOL     OW44167   9.820  14.699   2.884
80757SOL    HW144168   9.905  14.743   2.885
80757SOL    HW244169   9.810  14.669   2.793
80758SOL     OW44170  13.431   8.902   5.294
80758SOL    HW144171  13.346   8.901   5.250
80758SOL    HW244172  13.441   8.992   5.324
80759SOL     OW44173  11.901   7.719  14.034
80759SOL    HW144174  11.852   7.764  14.103
80759SOL    HW244175  11.871   7.760  13.953
80760SOL     OW44176   5.046   2.887   5.827
80760SOL    HW144177   5.089   2.855   5.906
80760SOL    HW244178   5.102   2.959   5.797
80761SOL     OW44179  12.831   5.943  10.146
80761SOL    HW144180  12.771   6.012  10.176
80761SOL    HW244181  12.776   5.866  10.136
80762SOL     OW44182   1.035   2.762   3.664
80762SOL    HW144183   1.007   2.704   3.593
80762SOL    HW244184   1.055   2.704   3.737
80763SOL     OW44185   9.360   8.247   2.666
80763SOL    HW144186   9.440   8.267   2.714
80763SOL    HW244187   9.353   8.316   2.600
80764SOL     OW44188   1.035   5.585  13.372
80764SOL    HW144189   1.045   5.646  13.299
80764SOL    HW244190   1.124   5.571  13.404
80765SOL     OW44191   8.739   6.410  11.410
80765SOL    HW144192   8.814   6.442  11.460
80765SOL    HW244193   8.743   6.315  11.418
80766SOL     OW44194   4.233   9.859   0.855
80766SOL    HW144195   4.316   9.827   0.890
80766SOL    HW244196   4.168   9.832   0.920
80767SOL     OW44197   6.717   2.435   7.205
80767SOL    HW144198   6.634   2.471   7.235
80767SOL    HW244199   6.698   2.399   7.118
80768SOL     OW44200   5.216  12.863  14.319
80768SOL    HW144201   5.293  12.825  14.278
80768SOL    HW244202   5.151  12.793  14.318
80769SOL     OW44203  13.685   2.422  14.570
80769SOL    HW144204  13.695   2.363  14.644
80769SOL    HW244205  13.742   2.384  14.502
80770SOL     OW44206   2.931   3.844   9.924
80770SOL    HW144207   2.977   3.803   9.997
80770SOL    HW244208   2.980   3.924   9.906
80771SOL     OW44209   9.496   3.366   7.088
80771SOL    HW144210   9.503   3.369   6.993
80771SOL    HW244211   9.557   3.297   7.115
80772SOL     OW44212   0.098   3.194   1.902
80772SOL    HW144213   0.019   3.214   1.853
80772SOL    HW244214   0.079   3.109   1.944
80773SOL     OW44215   9.652   3.269  10.738
80773SOL    HW144216   9.698   3.206  10.794
80773SOL    HW244217   9.572   3.224  10.713
80774SOL     OW44218   9.035   5.174  12.507
80774SOL    HW144219   9.039   5.233  12.583
80774SOL    HW244220   8.943   5.149  12.501
80775SOL     OW44221   6.416   3.108  14.795
80775SOL    HW144222   6.343   3.050  14.772
80775SOL    HW244223   6.478   3.097  14.722
80776SOL     OW44224   3.622   1.299   4.363
80776SOL    HW144225   3.698   1.340   4.405
80776SOL    HW244226   3.639   1.205   4.370
80777SOL     OW44227  12.716  12.936   9.169
80777SOL    HW144228  12.666  13.013   9.197
80777SOL    HW244229  12.717  12.941   9.073
80778SOL     OW44230   7.653   1.625   0.684
80778SOL    HW144231   7.594   1.698   0.664
80778SOL    HW244232   7.632   1.558   0.619
80779SOL     OW44233  14.432   0.072  11.867
80779SOL    HW144234  14.415  14.860  11.848
80779SOL    HW244235  14.525   0.075  11.889
80780SOL     OW44236  14.740   2.910  12.429
80780SOL    HW144237  14.771   2.822  12.410
80780SOL    HW244238  14.685   2.933  12.354
80781SOL     OW44239   3.348   9.890   7.084
80781SOL    HW144240   3.321   9.801   7.062
80781SOL    HW244241   3.272   9.944   7.062
80782SOL     OW44242  11.715  13.775   4.238
80782SOL    HW144243  11.657  13.742   4.169
80782SOL    HW244244  11.802  13.748   4.211
80783SOL     OW44245  10.119  11.194   8.866
80783SOL    HW144246  10.157  11.128   8.808
80783SOL    HW244247  10.130  11.158   8.954
80784SOL     OW44248   6.383   9.247   6.435
80784SOL    HW144249   6.434   9.295   6.500
80784SOL    HW244250   6.304   9.219   6.481
80785SOL     OW44251  10.558   0.576   8.176
80785SOL    HW144252  10.463   0.578   8.163
80785SOL    HW244253  10.590   0.514   8.110
80786SOL     OW44254   6.955   2.838   7.129
80786SOL    HW144255   6.943   2.769   7.063
80786SOL    HW244256   6.869   2.846   7.171
80787SOL     OW44257   8.735   4.454   9.255
80787SOL    HW144258   8.667   4.512   9.290
80787SOL    HW244259   8.731   4.376   9.312
80788SOL     OW44260  12.611   8.728   1.860
80788SOL    HW144261  12.582   8.677   1.784
80788SOL    HW244262  12.706   8.729   1.854
80789SOL     OW44263   0.499  14.697  11.201
80789SOL    HW144264   0.414  14.659  11.182
80789SOL    HW244265   0.524  14.658  11.285
80790SOL     OW44266   2.121  10.765   0.192
80790SOL    HW144267   2.203  10.771   0.242
80790SOL    HW244268   2.136  10.694   0.130
80791SOL     OW44269   9.612   9.644   3.727
80791SOL    HW144270   9.537   9.683   3.682
80791SOL    HW244271   9.681   9.710   3.720
80792SOL     OW44272   4.418   3.689   8.853
80792SOL    HW144273   4.440   3.645   8.936
80792SOL    HW244274   4.500   3.729   8.825
80793SOL     OW44275   6.625   1.207  12.702
80793SOL    HW144276   6.713   1.174  12.720
80793SOL    HW244277   6.569   1.161  12.764
80794SOL     OW44278   0.908   5.856   9.478
80794SOL    HW144279   0.960   5.780   9.502
80794SOL    HW244280   0.874   5.836   9.390
80795SOL     OW44281   2.313   4.913  13.125
80795SOL    HW144282   2.228   4.897  13.083
80795SOL    HW244283   2.293   4.921  13.218
80796SOL     OW44284  11.195   9.694  11.593
80796SOL    HW144285  11.283   9.686  11.629
80796SOL    HW244286  11.197   9.641  11.513
80797SOL     OW44287   7.635   9.426  13.709
80797SOL    HW144288   7.541   9.415  13.724
80797SOL    HW244289   7.677   9.372  13.775
80798SOL     OW44290  14.078   4.303   2.434
80798SOL    HW144291  14.083   4.253   2.352
80798SOL    HW244292  14.145   4.264   2.490
80799SOL     OW44293  11.337  13.132   9.370
80799SOL    HW144294  11.342  13.040   9.396
80799SOL    HW244295  11.281  13.133   9.293
80800SOL     OW44296   5.201  13.962  13.909
80800SOL    HW144297   5.107  13.945  13.901
80800SOL    HW244298   5.223  13.933  13.998
80801SOL     OW44299   1.995   0.866  10.309
80801SOL    HW144300   2.088   0.846  10.297
80801SOL    HW244301   1.992   0.917  10.390
80802SOL     OW44302   3.240   4.780   1.661
80802SOL    HW144303   3.236   4.686   1.647
80802SOL    HW244304   3.149   4.810   1.656
80803SOL     OW44305   3.946  14.237   8.979
80803SOL    HW144306   3.860  14.200   9.001
80803SOL    HW244307   3.935  14.331   8.993
80804SOL     OW44308  11.228   0.288   2.500
80804SOL    HW144309  11.184   0.253   2.423
80804SOL    HW244310  11.273   0.366   2.469
80805SOL     OW44311   8.494  13.501   7.810
80805SOL    HW144312   8.579  13.464   7.836
80805SOL    HW244313   8.490  13.585   7.856
80806SOL     OW44314   3.661   9.523  12.804
80806SOL    HW144315   3.623   9.606  12.835
80806SOL    HW244316   3.754   9.531  12.824
80807SOL     OW44317   8.873   7.741  14.572
80807SOL    HW144318   8.954   7.783  14.601
80807SOL    HW244319   8.822   7.812  14.532
80808SOL     OW44320   5.135   1.210   0.621
80808SOL    HW144321   5.178   1.125   0.616
80808SOL    HW244322   5.144   1.236   0.713
80809SOL     OW44323   9.648   8.865   8.445
80809SOL    HW144324   9.725   8.857   8.502
80809SOL    HW244325   9.615   8.953   8.463
80810SOL     OW44326  14.359   3.511   9.310
80810SOL    HW144327  14.365   3.565   9.231
80810SOL    HW244328  14.324   3.569   9.377
80811SOL     OW44329   3.797   0.037   3.081
80811SOL    HW144330   3.744   0.010   3.005
80811SOL    HW244331   3.843   0.115   3.050
80812SOL     OW44332   2.351   3.192   5.833
80812SOL    HW144333   2.355   3.274   5.881
80812SOL    HW244334   2.287   3.208   5.763
80813SOL     OW44335   3.315   0.025   7.131
80813SOL    HW144336   3.248   0.052   7.069
80813SOL    HW244337   3.362  14.835   7.086
80814SOL     OW44338   1.673   8.606  13.839
80814SOL    HW144339   1.767   8.618  13.821
80814SOL    HW244340   1.630   8.670  13.783
80815SOL     OW44341   1.500  13.652   0.947
80815SOL    HW144342   1.473  13.679   0.860
80815SOL    HW244343   1.593  13.672   0.951
80816SOL     OW44344   2.554   3.280   4.063
80816SOL    HW144345   2.520   3.363   4.095
80816SOL    HW244346   2.638   3.302   4.023
80817SOL     OW44347   5.181  13.110   1.152
80817SOL    HW144348   5.225  13.183   1.108
80817SOL    HW244349   5.116  13.152   1.209
80818SOL     OW44350   9.904   1.658  11.774
80818SOL    HW144351   9.811   1.667  11.753
80818SOL    HW244352   9.918   1.564  11.784
80819SOL     OW44353  11.162   5.339   5.377
80819SOL    HW144354  11.170   5.265   5.317
80819SOL    HW244355  11.181   5.303   5.463
80820SOL     OW44356   9.260   5.437  11.127
80820SOL    HW144357   9.280   5.365  11.186
80820SOL    HW244358   9.205   5.398  11.060
80821SOL     OW44359   8.252   4.588  12.007
80821SOL    HW144360   8.281   4.512  12.057
80821SOL    HW244361   8.305   4.587  11.928
80822SOL     OW44362   3.405   1.891   0.816
80822SOL    HW144363   3.343   1.818   0.824
80822SOL    HW244364   3.366   1.961   0.869
80823SOL     OW44365   6.005   7.909   4.858
80823SOL    HW144366   5.924   7.858   4.858
80823SOL    HW244367   6.034   7.910   4.767
80824SOL     OW44368   8.797   1.378   6.397
80824SOL    HW144369   8.773   1.340   6.313
80824SOL    HW244370   8.834   1.306   6.447
80825SOL     OW44371   0.446   1.714   7.928
80825SOL    HW144372   0.531   1.686   7.959
80825SOL    HW244373   0.453   1.809   7.920
80826SOL     OW44374   5.107   6.953  10.945
80826SOL    HW144375   5.149   6.884  10.996
80826SOL    HW244376   5.067   6.908  10.871
80827SOL     OW44377   5.492  13.852   4.474
80827SOL    HW144378   5.545  13.797   4.533
80827SOL    HW244379   5.421  13.794   4.446
80828SOL     OW44380   5.225  12.183  12.556
80828SOL    HW144381   5.167  12.174  12.481
80828SOL    HW244382   5.174  12.230  12.621
80829SOL     OW44383  12.794   4.693  14.675
80829SOL    HW144384  12.833   4.720  14.591
80829SOL    HW244385  12.865   4.650  14.721
80830SOL     OW44386   1.760  14.521   7.884
80830SOL    HW144387   1.707  14.465   7.827
80830SOL    HW244388   1.825  14.560   7.825
80831SOL     OW44389   7.618  11.942   5.163
80831SOL    HW144390   7.648  11.865   5.114
80831SOL    HW244391   7.633  12.016   5.105
80832SOL     OW44392   4.792   2.690   6.507
80832SOL    HW144393   4.835   2.604   6.506
80832SOL    HW244394   4.750   2.697   6.421
80833SOL     OW44395  14.481   0.247   4.919
80833SOL    HW144396  14.482   0.188   4.994
80833SOL    HW244397  14.499   0.191   4.843
80834SOL     OW44398   4.090  11.222  13.696
80834SOL    HW144399   4.172  11.271  13.710
80834SOL    HW244400   4.118  11.130  13.690
80835SOL     OW44401   6.258  11.707   9.656
80835SOL    HW144402   6.192  11.688   9.723
80835SOL    HW244403   6.244  11.799   9.635
80836SOL     OW44404  10.663   7.514   1.948
80836SOL    HW144405  10.705   7.459   1.882
80836SOL    HW244406  10.579   7.472   1.964
80837SOL     OW44407   8.379  13.038   7.503
80837SOL    HW144408   8.405  12.973   7.439
80837SOL    HW244409   8.368  12.989   7.585
80838SOL     OW44410  13.596   4.874  11.169
80838SOL    HW144411  13.675   4.850  11.121
80838SOL    HW244412  13.620   4.955  11.215
80839SOL     OW44413   9.390   2.771   6.357
80839SOL    HW144414   9.418   2.713   6.428
80839SOL    HW244415   9.303   2.738   6.332
80840SOL     OW44416   2.565   3.520   1.170
80840SOL    HW144417   2.521   3.508   1.086
80840SOL    HW244418   2.596   3.432   1.194
80841SOL     OW44419   8.309   7.066  12.109
80841SOL    HW144420   8.385   7.121  12.090
80841SOL    HW244421   8.281   7.032  12.024
80842SOL     OW44422   3.749  10.142   6.135
80842SOL    HW144423   3.823  10.181   6.089
80842SOL    HW244424   3.776  10.141   6.227
80843SOL     OW44425   7.243   3.210   5.953
80843SOL    HW144426   7.328   3.171   5.930
80843SOL    HW244427   7.241   3.209   6.049
80844SOL     OW44428   2.609   7.501   3.213
80844SOL    HW144429   2.631   7.594   3.224
80844SOL    HW244430   2.569   7.476   3.296
80845SOL     OW44431   1.801   4.964   9.743
80845SOL    HW144432   1.742   4.932   9.812
80845SOL    HW244433   1.743   4.993   9.673
80846SOL     OW44434   5.084  10.579  12.315
80846SOL    HW144435   5.028  10.503  12.298
80846SOL    HW244436   5.166  10.541  12.347
80847SOL     OW44437  11.994  10.527  12.028
80847SOL    HW144438  11.946  10.454  11.987
80847SOL    HW244439  12.039  10.487  12.102
80848SOL     OW44440  13.518   7.326   6.334
80848SOL    HW144441  13.424   7.347   6.330
80848SOL    HW244442  13.561   7.411   6.339
80849SOL     OW44443   6.522   5.103   3.802
80849SOL    HW144444   6.499   5.129   3.891
80849SOL    HW244445   6.580   5.028   3.813
80850SOL     OW44446   7.799   0.425  13.701
80850SOL    HW144447   7.814   0.505  13.752
80850SOL    HW244448   7.865   0.429  13.631
80851SOL     OW44449  12.274   6.495  10.445
80851SOL    HW144450  12.194   6.452  10.415
80851SOL    HW244451  12.245   6.551  10.517
80852SOL     OW44452   7.769   1.788   2.271
80852SOL    HW144453   7.772   1.703   2.316
80852SOL    HW244454   7.831   1.780   2.199
80853SOL     OW44455  12.522  12.085  12.796
80853SOL    HW144456  12.579  12.127  12.862
80853SOL    HW244457  12.574  12.013  12.762
80854SOL     OW44458   6.820   7.874   8.813
80854SOL    HW144459   6.773   7.807   8.862
80854SOL    HW244460   6.763   7.950   8.815
80855SOL     OW44461   3.354   9.762  11.139
80855SOL    HW144462   3.365   9.801  11.226
80855SOL    HW244463   3.426   9.701  11.131
80856SOL     OW44464   1.348   4.122  13.148
80856SOL    HW144465   1.400   4.173  13.210
80856SOL    HW244466   1.406   4.110  13.073
80857SOL     OW44467   1.492   8.155   8.358
80857SOL    HW144468   1.440   8.234   8.343
80857SOL    HW244469   1.563   8.160   8.293
80858SOL     OW44470   0.804  10.613   6.701
80858SOL    HW144471   0.843  10.638   6.617
80858SOL    HW244472   0.816  10.518   6.706
80859SOL     OW44473   6.420   8.292   4.586
80859SOL    HW144474   6.338   8.247   4.605
80859SOL    HW244475   6.415   8.373   4.638
80860SOL     OW44476  12.625   5.671   9.531
80860SOL    HW144477  12.579   5.686   9.449
80860SOL    HW244478  12.717   5.692   9.512
80861SOL     OW44479  12.990   3.376  11.164
80861SOL    HW144480  12.989   3.470  11.184
80861SOL    HW244481  13.081   3.356  11.144
80862SOL     OW44482  11.331  14.177   1.486
80862SOL    HW144483  11.407  14.185   1.543
80862SOL    HW244484  11.257  14.198   1.541
80863SOL     OW44485  11.466   6.390   5.542
80863SOL    HW144486  11.410   6.343   5.479
80863SOL    HW244487  11.435   6.361   5.627
80864SOL     OW44488   6.857   9.434   7.355
80864SOL    HW144489   6.889   9.496   7.421
80864SOL    HW244490   6.916   9.359   7.362
80865SOL     OW44491   7.082   8.986   4.608
80865SOL    HW144492   7.003   8.942   4.641
80865SOL    HW244493   7.084   8.964   4.515
80866SOL     OW44494  13.895   5.346   1.755
80866SOL    HW144495  13.847   5.397   1.689
80866SOL    HW244496  13.895   5.256   1.721
80867SOL     OW44497  14.836   3.014   8.557
80867SOL    HW144498  14.756   3.045   8.515
80867SOL    HW244499   0.018   3.087   8.547
80868SOL     OW44500  13.149   6.163  11.647
80868SOL    HW144501  13.181   6.084  11.689
80868SOL    HW244502  13.211   6.180  11.577
80869SOL     OW44503   6.601   3.781   9.586
80869SOL    HW144504   6.608   3.774   9.681
80869SOL    HW244505   6.667   3.846   9.561
80870SOL     OW44506  11.123  11.265  14.754
80870SOL    HW144507  11.169  11.347  14.735
80870SOL    HW244508  11.156  11.238  14.840
80871SOL     OW44509   8.631  13.988   7.196
80871SOL    HW144510   8.594  14.012   7.281
80871SOL    HW244511   8.720  14.024   7.198
80872SOL     OW44512   9.993   5.761   0.453
80872SOL    HW144513  10.006   5.668   0.437
80872SOL    HW244514  10.032   5.776   0.539
80873SOL     OW44515   3.035  14.547   5.359
80873SOL    HW144516   3.022  14.632   5.400
80873SOL    HW244517   3.093  14.565   5.285
80874SOL     OW44518   4.247   9.017  14.674
80874SOL    HW144519   4.208   9.050  14.755
80874SOL    HW244520   4.242   8.921  14.682
80875SOL     OW44521   2.271  14.831  10.851
80875SOL    HW144522   2.331  14.765  10.886
80875SOL    HW244523   2.208  14.846  10.922
80876SOL     OW44524   9.328   6.633   3.906
80876SOL    HW144525   9.242   6.638   3.947
80876SOL    HW244526   9.390   6.656   3.975
80877SOL     OW44527  10.384   1.439  14.137
80877SOL    HW144528  10.320   1.429  14.207
80877SOL    HW244529  10.460   1.388  14.165
80878SOL     OW44530   8.668  14.013  11.613
80878SOL    HW144531   8.601  13.971  11.667
80878SOL    HW244532   8.698  14.087  11.665
80879SOL     OW44533  13.181   2.903  11.807
80879SOL    HW144534  13.191   2.959  11.731
80879SOL    HW244535  13.215   2.954  11.880
80880SOL     OW44536  10.128  10.463   9.275
80880SOL    HW144537  10.102  10.544   9.230
80880SOL    HW244538  10.087  10.469   9.361
80881SOL     OW44539   1.553   2.204   1.030
80881SOL    HW144540   1.574   2.273   0.967
80881SOL    HW244541   1.496   2.246   1.094
80882SOL     OW44542   2.937  11.273  12.573
80882SOL    HW144543   3.009  11.302  12.630
80882SOL    HW244544   2.864  11.258  12.633
80883SOL     OW44545   5.803   4.291  14.757
80883SOL    HW144546   5.715   4.255  14.749
80883SOL    HW244547   5.858   4.232  14.705
80884SOL     OW44548   4.791   6.627   9.855
80884SOL    HW144549   4.832   6.654   9.773
80884SOL    HW244550   4.865   6.607   9.913
80885SOL     OW44551   9.798  11.792  10.249
80885SOL    HW144552   9.875  11.745  10.217
80885SOL    HW244553   9.821  11.821  10.337
80886SOL     OW44554   1.134   6.135   4.919
80886SOL    HW144555   1.198   6.206   4.921
80886SOL    HW244556   1.118   6.120   4.826
80887SOL     OW44557   7.984  13.006   4.889
80887SOL    HW144558   7.926  12.931   4.898
80887SOL    HW244559   8.062  12.971   4.846
80888SOL     OW44560   0.767  11.935   2.628
80888SOL    HW144561   0.740  11.869   2.564
80888SOL    HW244562   0.775  11.885   2.710
80889SOL     OW44563  13.546   2.922  13.008
80889SOL    HW144564  13.579   2.877  13.086
80889SOL    HW244565  13.452   2.930  13.023
80890SOL     OW44566   7.333   3.794   9.589
80890SOL    HW144567   7.285   3.855   9.534
80890SOL    HW244568   7.286   3.794   9.672
80891SOL     OW44569   6.432   2.422  11.378
80891SOL    HW144570   6.409   2.449  11.289
80891SOL    HW244571   6.355   2.444  11.430
80892SOL     OW44572   9.232  14.028   9.074
80892SOL    HW144573   9.212  14.054   8.984
80892SOL    HW244574   9.198  14.100   9.128
80893SOL     OW44575  13.666   2.825   0.778
80893SOL    HW144576  13.638   2.755   0.837
80893SOL    HW244577  13.705   2.891   0.836
80894SOL     OW44578   6.264   1.160   6.992
80894SOL    HW144579   6.262   1.197   6.904
80894SOL    HW244580   6.346   1.193   7.030
80895SOL     OW44581   4.789  14.132  13.429
80895SOL    HW144582   4.705  14.097  13.400
80895SOL    HW244583   4.833  14.058  13.471
80896SOL     OW44584  11.395  14.597   3.522
80896SOL    HW144585  11.308  14.614   3.560
80896SOL    HW244586  11.454  14.600   3.597
80897SOL     OW44587   2.011  10.890  13.980
80897SOL    HW144588   1.981  10.897  14.070
80897SOL    HW244589   1.934  10.858  13.932
80898SOL     OW44590   5.538  13.763   2.867
80898SOL    HW144591   5.583  13.847   2.869
80898SOL    HW244592   5.463  13.777   2.808
80899SOL     OW44593   0.713   8.430   3.429
80899SOL    HW144594   0.670   8.450   3.512
80899SOL    HW244595   0.769   8.355   3.449
80900SOL     OW44596   9.409  12.589   4.209
80900SOL    HW144597   9.369  12.516   4.163
80900SOL    HW244598   9.335  12.640   4.243
80901SOL     OW44599  14.805   0.947   9.167
80901SOL    HW144600  14.755   1.017   9.125
80901SOL    HW244601  14.739   0.882   9.192
80902SOL     OW44602  10.882   0.147   5.410
80902SOL    HW144603  10.881   0.085   5.482
80902SOL    HW244604  10.887   0.093   5.331
80903SOL     OW44605   8.440   2.368   3.886
80903SOL    HW144606   8.452   2.463   3.891
80903SOL    HW244607   8.477   2.343   3.802
80904SOL     OW44608   9.376   4.491   7.491
80904SOL    HW144609   9.303   4.540   7.529
80904SOL    HW244610   9.338   4.447   7.415
80905SOL     OW44611   8.590   9.728   2.255
80905SOL    HW144612   8.657   9.779   2.299
80905SOL    HW244613   8.516   9.726   2.315
80906SOL     OW44614   8.766   9.236   3.075
80906SOL    HW144615   8.811   9.205   3.154
80906SOL    HW244616   8.698   9.294   3.108
80907SOL     OW44617   3.420   1.087  11.417
80907SOL    HW144618   3.458   1.142  11.485
80907SOL    HW244619   3.330   1.072  11.446
80908SOL     OW44620   2.905   4.586   5.481
80908SOL    HW144621   2.858   4.523   5.426
80908SOL    HW244622   2.986   4.602   5.434
80909SOL     OW44623   1.205   9.776   1.072
80909SOL    HW144624   1.226   9.726   1.152
80909SOL    HW244625   1.115   9.804   1.085
80910SOL     OW44626   2.693  10.282   8.314
80910SOL    HW144627   2.685  10.295   8.408
80910SOL    HW244628   2.730  10.195   8.304
80911SOL     OW44629  13.391  14.523  13.604
80911SOL    HW144630  13.482  14.553  13.610
80911SOL    HW244631  13.365  14.545  13.514
80912SOL     OW44632   7.183   3.975   3.963
80912SOL    HW144633   7.249   3.905   3.969
80912SOL    HW244634   7.206   4.023   3.884
80913SOL     OW44635   2.170   3.676   3.544
80913SOL    HW144636   2.226   3.682   3.621
80913SOL    HW244637   2.205   3.740   3.483
80914SOL     OW44638  13.570   5.215   5.897
80914SOL    HW144639  13.552   5.149   5.964
80914SOL    HW244640  13.665   5.227   5.899
80915SOL     OW44641   5.877  12.818   2.785
80915SOL    HW144642   5.810  12.753   2.766
80915SOL    HW244643   5.904  12.850   2.700
80916SOL     OW44644  11.433   9.214   4.549
80916SOL    HW144645  11.467   9.208   4.638
80916SOL    HW244646  11.368   9.284   4.553
80917SOL     OW44647   9.954  14.838   3.309
80917SOL    HW144648   9.969   0.025   3.242
80917SOL    HW244649  10.024  14.774   3.293
80918SOL     OW44650   4.749   3.698  13.575
80918SOL    HW144651   4.831   3.651  13.556
80918SOL    HW244652   4.728   3.673  13.665
80919SOL     OW44653   0.295   4.956   1.916
80919SOL    HW144654   0.361   4.894   1.885
80919SOL    HW244655   0.323   5.040   1.878
80920SOL     OW44656   2.576   8.355   8.397
80920SOL    HW144657   2.567   8.384   8.306
80920SOL    HW244658   2.587   8.260   8.392
80921SOL     OW44659   1.017   0.865  10.954
80921SOL    HW144660   1.064   0.946  10.938
80921SOL    HW244661   1.084   0.796  10.947
80922SOL     OW44662  14.703   1.486  10.058
80922SOL    HW144663  14.720   1.576  10.086
80922SOL    HW244664  14.686   1.438  10.139
80923SOL     OW44665  10.581   6.607   9.494
80923SOL    HW144666  10.652   6.622   9.556
80923SOL    HW244667  10.586   6.514   9.472
80924SOL     OW44668   1.760  12.144  11.839
80924SOL    HW144669   1.727  12.230  11.864
80924SOL    HW244670   1.851  12.144  11.871
80925SOL     OW44671  12.860   0.087   1.796
80925SOL    HW144672  12.907   0.028   1.855
80925SOL    HW244673  12.903   0.172   1.807
80926SOL     OW44674   0.239   8.046   9.289
80926SOL    HW144675   0.232   7.986   9.215
80926SOL    HW244676   0.223   7.991   9.366
80927SOL     OW44677   4.661   0.244   2.737
80927SOL    HW144678   4.663   0.221   2.830
80927SOL    HW244679   4.648   0.339   2.736
80928SOL     OW44680   2.669   8.158  14.361
80928SOL    HW144681   2.652   8.091  14.295
80928SOL    HW244682   2.600   8.146  14.427
80929SOL     OW44683  11.707  12.322   8.367
80929SOL    HW144684  11.664  12.258   8.311
80929SOL    HW244685  11.653  12.325   8.446
80930SOL     OW44686   0.628  10.833   7.108
80930SOL    HW144687   0.580  10.915   7.098
80930SOL    HW244688   0.710  10.847   7.061
80931SOL     OW44689   4.447   8.013  13.550
80931SOL    HW144690   4.377   8.046  13.494
80931SOL    HW244691   4.465   7.926  13.516
80932SOL     OW44692  14.259   7.173   2.645
80932SOL    HW144693  14.345   7.132   2.639
80932SOL    HW244694  14.233   7.161   2.736
80933SOL     OW44695  11.815   5.679  12.946
80933SOL    HW144696  11.907   5.657  12.962
80933SOL    HW244697  11.818   5.741  12.874
80934SOL     OW44698   4.735   0.561   2.122
80934SOL    HW144699   4.724   0.498   2.051
80934SOL    HW244700   4.765   0.641   2.078
80935SOL     OW44701   2.158   5.312   8.909
80935SOL    HW144702   2.216   5.370   8.860
80935SOL    HW244703   2.070   5.340   8.885
80936SOL     OW44704   5.746  11.161  13.063
80936SOL    HW144705   5.795  11.215  13.001
80936SOL    HW244706   5.785  11.181  13.148
80937SOL     OW44707   9.437   5.549  12.313
80937SOL    HW144708   9.518   5.499  12.299
80937SOL    HW244709   9.380   5.523  12.240
80938SOL     OW44710   2.922   5.170   6.965
80938SOL    HW144711   3.005   5.127   6.988
80938SOL    HW244712   2.865   5.151   7.040
80939SOL     OW44713  14.250   6.221   5.491
80939SOL    HW144714  14.216   6.254   5.574
80939SOL    HW244715  14.316   6.284   5.464
80940SOL     OW44716   5.152   4.953   0.392
80940SOL    HW144717   5.217   4.914   0.450
80940SOL    HW244718   5.187   5.040   0.372
80941SOL     OW44719   0.118   0.384   0.247
80941SOL    HW144720   0.126   0.290   0.230
80941SOL    HW244721   0.066   0.389   0.327
80942SOL     OW44722  10.989   7.239  13.679
80942SOL    HW144723  10.947   7.260  13.762
80942SOL    HW244724  10.931   7.173  13.640
80943SOL     OW44725   0.793  14.554  11.874
80943SOL    HW144726   0.741  14.600  11.808
80943SOL    HW244727   0.883  14.560  11.842
80944SOL     OW44728   2.127   4.839   0.189
80944SOL    HW144729   2.177   4.913   0.224
80944SOL    HW244730   2.180   4.762   0.209
80945SOL     OW44731  12.581   3.148   2.654
80945SOL    HW144732  12.655   3.200   2.686
80945SOL    HW244733  12.603   3.126   2.564
80946SOL     OW44734   5.821  13.076  12.115
80946SOL    HW144735   5.914  13.080  12.137
80946SOL    HW244736   5.796  12.987  12.137
80947SOL     OW44737   5.813   6.292  11.331
80947SOL    HW144738   5.902   6.261  11.311
80947SOL    HW244739   5.779   6.226  11.392
80948SOL     OW44740  13.906   8.716   7.699
80948SOL    HW144741  13.954   8.672   7.630
80948SOL    HW244742  13.942   8.805   7.701
80949SOL     OW44743   0.493   0.180   5.855
80949SOL    HW144744   0.578   0.221   5.837
80949SOL    HW244745   0.437   0.252   5.884
80950SOL     OW44746   8.147  12.280  11.335
80950SOL    HW144747   8.065  12.329  11.340
80950SOL    HW244748   8.213  12.346  11.314
80951SOL     OW44749   9.539  11.796   0.590
80951SOL    HW144750   9.600  11.870   0.597
80951SOL    HW244751   9.587  11.722   0.627
80952SOL     OW44752   8.581  10.343  12.533
80952SOL    HW144753   8.570  10.432  12.566
80952SOL    HW244754   8.663  10.313  12.572
80953SOL     OW44755   4.410   2.262   0.694
80953SOL    HW144756   4.361   2.345   0.696
80953SOL    HW244757   4.479   2.277   0.629
80954SOL     OW44758   6.295   1.006  11.862
80954SOL    HW144759   6.212   0.983  11.904
80954SOL    HW244760   6.286   1.098  11.839
80955SOL     OW44761  11.236   2.468   1.147
80955SOL    HW144762  11.289   2.547   1.138
80955SOL    HW244763  11.270   2.424   1.225
80956SOL     OW44764   9.557   9.333  13.176
80956SOL    HW144765   9.640   9.365  13.142
80956SOL    HW244766   9.520   9.281  13.105
80957SOL     OW44767   0.309   5.010  12.191
80957SOL    HW144768   0.350   4.955  12.125
80957SOL    HW244769   0.266   5.079  12.141
80958SOL     OW44770   1.278   0.699  11.136
80958SOL    HW144771   1.362   0.672  11.172
80958SOL    HW244772   1.247   0.767  11.196
80959SOL     OW44773   5.036   0.644  14.357
80959SOL    HW144774   5.070   0.719  14.405
80959SOL    HW244775   5.093   0.572  14.380
80960SOL     OW44776   1.538   1.295   4.844
80960SOL    HW144777   1.458   1.286   4.792
80960SOL    HW244778   1.600   1.337   4.786
80961SOL     OW44779   1.183   7.189  13.189
80961SOL    HW144780   1.205   7.280  13.167
80961SOL    HW244781   1.260   7.139  13.164
80962SOL     OW44782   2.740   0.217  11.692
80962SOL    HW144783   2.760   0.153  11.624
80962SOL    HW244784   2.684   0.281  11.649
80963SOL     OW44785  12.420   4.932  10.314
80963SOL    HW144786  12.336   4.890  10.299
80963SOL    HW244787  12.407   5.023  10.289
80964SOL     OW44788  10.117   0.597   7.885
80964SOL    HW144789  10.171   0.526   7.920
80964SOL    HW244790  10.165   0.629   7.809
80965SOL     OW44791  14.437  12.638   2.470
80965SOL    HW144792  14.398  12.642   2.382
80965SOL    HW244793  14.513  12.581   2.460
80966SOL     OW44794   4.925   3.530  11.513
80966SOL    HW144795   5.019   3.512  11.518
80966SOL    HW244796   4.917   3.601  11.450
80967SOL     OW44797  11.204   7.900  13.018
80967SOL    HW144798  11.193   7.848  13.097
80967SOL    HW244799  11.241   7.983  13.049
80968SOL     OW44800  11.346   1.687   6.741
80968SOL    HW144801  11.350   1.668   6.834
80968SOL    HW244802  11.373   1.779   6.733
80969SOL     OW44803  12.063   9.774   6.225
80969SOL    HW144804  12.059   9.869   6.217
80969SOL    HW244805  12.069   9.758   6.319
80970SOL     OW44806   1.779   6.406   2.139
80970SOL    HW144807   1.754   6.417   2.048
80970SOL    HW244808   1.855   6.348   2.137
80971SOL     OW44809  14.748  14.157  14.705
80971SOL    HW144810  14.653  14.159  14.712
80971SOL    HW244811  14.773  14.073  14.744
80972SOL     OW44812  13.816   2.828  12.306
80972SOL    HW144813  13.779   2.752  12.262
80972SOL    HW244814  13.795   2.815  12.399
80973SOL     OW44815  12.829   4.082   7.993
80973SOL    HW144816  12.849   4.110   8.083
80973SOL    HW244817  12.849   3.988   7.993
80974SOL     OW44818   3.236  10.318   1.515
80974SOL    HW144819   3.167  10.340   1.452
80974SOL    HW244820   3.307  10.380   1.496
80975SOL     OW44821   5.608   8.516  11.924
80975SOL    HW144822   5.542   8.470  11.872
80975SOL    HW244823   5.687   8.463  11.915
80976SOL     OW44824   8.839   6.415   2.913
80976SOL    HW144825   8.744   6.422   2.926
80976SOL    HW244826   8.864   6.499   2.876
80977SOL     OW44827   1.503   6.431   0.593
80977SOL    HW144828   1.492   6.340   0.621
80977SOL    HW244829   1.589   6.432   0.549
80978SOL     OW44830  14.593   2.582  10.653
80978SOL    HW144831  14.571   2.671  10.624
80978SOL    HW244832  14.517   2.554  10.704
80979SOL     OW44833   9.094   8.158   3.909
80979SOL    HW144834   9.073   8.233   3.965
80979SOL    HW244835   9.064   8.082   3.959
80980SOL     OW44836   0.717  12.949  11.700
80980SOL    HW144837   0.655  13.022  11.701
80980SOL    HW244838   0.738  12.934  11.792
80981SOL     OW44839  12.193  14.233   4.787
80981SOL    HW144840  12.264  14.204   4.730
80981SOL    HW244841  12.181  14.326   4.764
80982SOL     OW44842  10.879   3.192  10.731
80982SOL    HW144843  10.813   3.126  10.711
80982SOL    HW244844  10.951   3.144  10.771
80983SOL     OW44845   1.288  14.419   5.834
80983SOL    HW144846   1.290  14.429   5.930
80983SOL    HW244847   1.201  14.385   5.815
80984SOL     OW44848  13.642   6.636   7.284
80984SOL    HW144849  13.680   6.567   7.229
80984SOL    HW244850  13.719   6.683   7.319
80985SOL     OW44851   5.910   3.169  12.796
80985SOL    HW144852   5.887   3.082  12.827
80985SOL    HW244853   5.904   3.163  12.700
80986SOL     OW44854  10.335  12.556   7.692
80986SOL    HW144855  10.349  12.633   7.636
80986SOL    HW244856  10.401  12.493   7.663
80987SOL     OW44857   0.414   4.609   8.379
80987SOL    HW144858   0.343   4.545   8.377
80987SOL    HW244859   0.383   4.681   8.324
80988SOL     OW44860   3.055   8.822   2.568
80988SOL    HW144861   3.059   8.856   2.658
80988SOL    HW244862   3.011   8.890   2.518
80989SOL     OW44863   9.322   3.894   5.369
80989SOL    HW144864   9.378   3.907   5.292
80989SOL    HW244865   9.339   3.804   5.397
80990SOL     OW44866   7.272  11.278   9.767
80990SOL    HW144867   7.334  11.262   9.838
80990SOL    HW244868   7.327  11.300   9.692
80991SOL     OW44869   5.145   5.459   8.381
80991SOL    HW144870   5.092   5.532   8.349
80991SOL    HW244871   5.208   5.500   8.441
80992SOL     OW44872   4.172   6.574   2.738
80992SOL    HW144873   4.172   6.649   2.678
80992SOL    HW244874   4.234   6.599   2.806
80993SOL     OW44875   3.588   8.030   1.367
80993SOL    HW144876   3.502   8.072   1.362
80993SOL    HW244877   3.644   8.097   1.408
80994SOL     OW44878   0.706   6.024   2.017
80994SOL    HW144879   0.653   6.068   2.083
80994SOL    HW244880   0.644   6.001   1.948
80995SOL     OW44881  13.547   7.722   1.438
80995SOL    HW144882  13.481   7.791   1.447
80995SOL    HW244883  13.526   7.661   1.509
80996SOL     OW44884   4.300   4.253   5.764
80996SOL    HW144885   4.334   4.334   5.726
80996SOL    HW244886   4.215   4.241   5.720
80997SOL     OW44887  13.088   4.182  10.473
80997SOL    HW144888  13.142   4.128  10.530
80997SOL    HW244889  13.020   4.217  10.530
80998SOL     OW44890   4.174  12.608   4.471
80998SOL    HW144891   4.188  12.531   4.527
80998SOL    HW244892   4.250  12.610   4.413
80999SOL     OW44893   1.011  12.989  12.318
80999SOL    HW144894   0.969  13.051  12.257
80999SOL    HW244895   1.027  12.911  12.265
81000SOL     OW44896   7.749   4.360  14.498
81000SOL    HW144897   7.796   4.411  14.432
81000SOL    HW244898   7.750   4.415  14.576
81001SOL     OW44899   0.690   6.464   0.298
81001SOL    HW144900   0.665   6.396   0.235
81001SOL    HW244901   0.639   6.443   0.376
81002SOL     OW44902   0.827  14.425  10.010
81002SOL    HW144903   0.830  14.336   9.974
81002SOL    HW244904   0.817  14.412  10.105
81003SOL     OW44905   7.885  12.333   1.828
81003SOL    HW144906   7.897  12.380   1.911
81003SOL    HW244907   7.849  12.248   1.854
81004SOL     OW44908  11.333  12.522  14.860
81004SOL    HW144909  11.372  12.436  14.879
81004SOL    HW244910  11.367  12.579   0.048
81005SOL     OW44911   1.235   2.299  13.456
81005SOL    HW144912   1.323   2.279  13.423
81005SOL    HW244913   1.177   2.245  13.402
81006SOL     OW44914   8.984   6.763   3.296
81006SOL    HW144915   9.065   6.748   3.345
81006SOL    HW244916   8.916   6.720   3.349
81007SOL     OW44917   4.514   1.843  12.974
81007SOL    HW144918   4.536   1.779  12.906
81007SOL    HW244919   4.421   1.827  12.992
81008SOL     OW44920   8.460   4.493   0.859
81008SOL    HW144921   8.487   4.430   0.926
81008SOL    HW244922   8.447   4.575   0.908
81009SOL     OW44923   4.536   5.221   2.172
81009SOL    HW144924   4.589   5.268   2.237
81009SOL    HW244925   4.456   5.273   2.165
81010SOL     OW44926  12.463   3.958  13.534
81010SOL    HW144927  12.410   3.951  13.614
81010SOL    HW244928  12.553   3.969  13.566
81011SOL     OW44929   1.301   8.507   5.005
81011SOL    HW144930   1.394   8.497   5.027
81011SOL    HW244931   1.283   8.600   5.018
81012SOL     OW44932   9.825   0.640  14.264
81012SOL    HW144933   9.858   0.564  14.312
81012SOL    HW244934   9.734   0.647  14.292
81013SOL     OW44935   8.584   6.086   2.583
81013SOL    HW144936   8.512   6.104   2.523
81013SOL    HW244937   8.544   6.084   2.670
81014SOL     OW44938   1.807  13.006   3.926
81014SOL    HW144939   1.732  12.955   3.956
81014SOL    HW244940   1.789  13.095   3.957
81015SOL     OW44941   8.444   0.847   6.961
81015SOL    HW144942   8.446   0.942   6.954
81015SOL    HW244943   8.360   0.828   7.003
81016SOL     OW44944   9.412   5.268   6.633
81016SOL    HW144945   9.357   5.287   6.557
81016SOL    HW244946   9.370   5.313   6.706
81017SOL     OW44947  13.738   9.595   0.703
81017SOL    HW144948  13.777   9.574   0.788
81017SOL    HW244949  13.778   9.679   0.678
81018SOL     OW44950  12.847   3.133   1.956
81018SOL    HW144951  12.813   3.068   2.018
81018SOL    HW244952  12.837   3.092   1.870
81019SOL     OW44953   5.777  13.227   2.121
81019SOL    HW144954   5.727  13.304   2.152
81019SOL    HW244955   5.710  13.162   2.102
81020SOL     OW44956  11.333   1.616  12.724
81020SOL    HW144957  11.358   1.531  12.761
81020SOL    HW244958  11.367   1.613  12.634
81021SOL     OW44959   9.917   2.217  11.634
81021SOL    HW144960   9.931   2.125  11.611
81021SOL    HW244961   9.955   2.225  11.721
81022SOL     OW44962  12.003   5.664   1.245
81022SOL    HW144963  11.908   5.661   1.234
81022SOL    HW244964  12.030   5.573   1.254
81023SOL     OW44965   6.186   4.230   2.907
81023SOL    HW144966   6.190   4.135   2.919
81023SOL    HW244967   6.160   4.264   2.993
81024SOL     OW44968   5.603   3.516   0.623
81024SOL    HW144969   5.642   3.539   0.707
81024SOL    HW244970   5.644   3.576   0.561
81025SOL     OW44971  14.261   2.914   3.717
81025SOL    HW144972  14.320   2.989   3.717
81025SOL    HW244973  14.282   2.867   3.637
81026SOL     OW44974  14.694  13.298  12.632
81026SOL    HW144975  14.640  13.364  12.676
81026SOL    HW244976  14.781  13.309  12.669
81027SOL     OW44977   2.432   8.848   4.033
81027SOL    HW144978   2.351   8.815   4.072
81027SOL    HW244979   2.494   8.850   4.105
81028SOL     OW44980  13.692  11.271  10.637
81028SOL    HW144981  13.770  11.318  10.666
81028SOL    HW244982  13.619  11.319  10.676
81029SOL     OW44983   6.068   4.833   6.366
81029SOL    HW144984   5.974   4.841   6.353
81029SOL    HW244985   6.079   4.829   6.461
81030SOL     OW44986   3.014  12.999  13.644
81030SOL    HW144987   3.056  13.077  13.680
81030SOL    HW244988   3.067  12.926  13.676
81031SOL     OW44989   9.482   9.883   3.250
81031SOL    HW144990   9.512   9.952   3.191
81031SOL    HW244991   9.534   9.806   3.224
81032SOL     OW44992  13.292   9.983   0.892
81032SOL    HW144993  13.266   9.901   0.848
81032SOL    HW244994  13.215  10.038   0.888
81033SOL     OW44995   3.825   0.939   9.885
81033SOL    HW144996   3.855   0.887   9.810
81033SOL    HW244997   3.900   0.940   9.945
81034SOL     OW44998  10.382   5.675  10.634
81034SOL    HW144999  10.419   5.706  10.551
81034SOL    HW245000  10.372   5.580  10.622
81035SOL     OW45001   7.273   9.563   5.099
81035SOL    HW145002   7.346   9.534   5.154
81035SOL    HW245003   7.304   9.644   5.059
81036SOL     OW45004   5.317   6.429  13.354
81036SOL    HW145005   5.297   6.504  13.299
81036SOL    HW245006   5.247   6.366  13.334
81037SOL     OW45007   3.914   5.860   2.857
81037SOL    HW145008   3.858   5.832   2.784
81037SOL    HW245009   4.002   5.863   2.821
81038SOL     OW45010  14.113   8.883  11.874
81038SOL    HW145011  14.164   8.811  11.912
81038SOL    HW245012  14.178   8.950  11.854
81039SOL     OW45013  10.763   2.497   8.033
81039SOL    HW145014  10.699   2.568   8.039
81039SOL    HW245015  10.827   2.517   8.101
81040SOL     OW45016   3.581   2.334  11.144
81040SOL    HW145017   3.498   2.287  11.154
81040SOL    HW245018   3.595   2.376  11.229
81041SOL     OW45019   7.458   9.163   3.910
81041SOL    HW145020   7.549   9.194   3.904
81041SOL    HW245021   7.436   9.136   3.821
81042SOL     OW45022  12.815   2.321  14.465
81042SOL    HW145023  12.800   2.256  14.535
81042SOL    HW245024  12.898   2.295  14.426
81043SOL     OW45025  11.246   1.133   8.332
81043SOL    HW145026  11.280   1.112   8.245
81043SOL    HW245027  11.199   1.215   8.320
81044SOL     OW45028   1.131  12.873  13.760
81044SOL    HW145029   1.064  12.940  13.772
81044SOL    HW245030   1.114  12.838  13.672
81045SOL     OW45031   1.749  10.897   9.995
81045SOL    HW145032   1.727  10.990   9.999
81045SOL    HW245033   1.811  10.884  10.067
81046SOL     OW45034   1.610   1.091  13.013
81046SOL    HW145035   1.686   1.113  13.067
81046SOL    HW245036   1.542   1.069  13.077
81047SOL     OW45037   4.098   3.444  10.809
81047SOL    HW145038   4.192   3.444  10.792
81047SOL    HW245039   4.091   3.436  10.904
81048SOL     OW45040  10.680  14.316  10.869
81048SOL    HW145041  10.659  14.403  10.836
81048SOL    HW245042  10.767  14.326  10.908
81049SOL     OW45043   5.233   9.730   8.850
81049SOL    HW145044   5.188   9.784   8.785
81049SOL    HW245045   5.326   9.750   8.837
81050SOL     OW45046   7.706   1.524  11.992
81050SOL    HW145047   7.779   1.584  12.006
81050SOL    HW245048   7.646   1.573  11.936
81051SOL     OW45049   0.734   9.278  11.543
81051SOL    HW145050   0.742   9.373  11.556
81051SOL    HW245051   0.707   9.244  11.628
81052SOL     OW45052   4.218   3.050  12.520
81052SOL    HW145053   4.246   3.111  12.452
81052SOL    HW245054   4.151   3.097  12.569
81053SOL     OW45055  12.277   0.216   0.249
81053SOL    HW145056  12.312   0.256   0.169
81053SOL    HW245057  12.185   0.197   0.227
81054SOL     OW45058   3.738  12.591   6.169
81054SOL    HW145059   3.779  12.506   6.152
81054SOL    HW245060   3.662  12.593   6.112
81055SOL     OW45061   5.537  13.341   3.654
81055SOL    HW145062   5.517  13.411   3.716
81055SOL    HW245063   5.600  13.379   3.593
81056SOL     OW45064  14.539   6.167   2.740
81056SOL    HW145065  14.516   6.078   2.711
81056SOL    HW245066  14.547   6.217   2.658
81057SOL     OW45067   8.821   6.293  14.029
81057SOL    HW145068   8.844   6.336  14.112
81057SOL    HW245069   8.734   6.327  14.008
81058SOL     OW45070  10.805  10.282   0.311
81058SOL    HW145071  10.877  10.326   0.357
81058SOL    HW245072  10.846  10.206   0.270
81059SOL     OW45073   9.082   0.230   1.053
81059SOL    HW145074   9.178   0.228   1.060
81059SOL    HW245075   9.054   0.149   1.096
81060SOL     OW45076   2.423  13.462   8.238
81060SOL    HW145077   2.368  13.432   8.165
81060SOL    HW245078   2.503  13.493   8.196
81061SOL     OW45079   2.931   0.211   9.957
81061SOL    HW145080   2.856   0.195   9.900
81061SOL    HW245081   2.940   0.306   9.959
81062SOL     OW45082  10.414  13.603   0.083
81062SOL    HW145083  10.507  13.592   0.105
81062SOL    HW245084  10.375  13.518   0.101
81063SOL     OW45085  11.319   5.325   6.018
81063SOL    HW145086  11.345   5.410   6.053
81063SOL    HW245087  11.244   5.344   5.962
81064SOL     OW45088   9.473  10.028  12.055
81064SOL    HW145089   9.478  10.098  11.990
81064SOL    HW245090   9.402   9.971  12.024
81065SOL     OW45091  14.647   4.302  12.525
81065SOL    HW145092  14.624   4.214  12.495
81065SOL    HW245093  14.643   4.357  12.447
81066SOL     OW45094   2.772   1.876   8.056
81066SOL    HW145095   2.789   1.961   8.096
81066SOL    HW245096   2.715   1.896   7.981
81067SOL     OW45097   4.606   3.564   1.745
81067SOL    HW145098   4.632   3.642   1.695
81067SOL    HW245099   4.554   3.599   1.817
81068SOL     OW45100   8.706   4.218  10.462
81068SOL    HW145101   8.734   4.286  10.524
81068SOL    HW245102   8.670   4.149  10.517
81069SOL     OW45103  14.452   9.824   3.879
81069SOL    HW145104  14.536   9.787   3.851
81069SOL    HW245105  14.471   9.866   3.962
81070SOL     OW45106   8.165   7.836  14.459
81070SOL    HW145107   8.127   7.923  14.455
81070SOL    HW245108   8.101   7.780  14.414
81071SOL     OW45109   6.857   6.528  13.925
81071SOL    HW145110   6.898   6.602  13.881
81071SOL    HW245111   6.856   6.459  13.860
81072SOL     OW45112  14.143   1.040   5.594
81072SOL    HW145113  14.097   0.957   5.607
81072SOL    HW245114  14.227   1.015   5.557
81073SOL     OW45115   6.082   0.003   4.376
81073SOL    HW145116   6.107  14.813   4.316
81073SOL    HW245117   6.053   0.074   4.319
81074SOL     OW45118   8.796  11.487   6.703
81074SOL    HW145119   8.709  11.505   6.739
81074SOL    HW245120   8.856  11.536   6.759
81075SOL     OW45121  14.629   5.575   0.884
81075SOL    HW145122  14.722   5.554   0.888
81075SOL    HW245123  14.586   5.492   0.864
81076SOL     OW45124   3.311   6.302   3.684
81076SOL    HW145125   3.401   6.323   3.660
81076SOL    HW245126   3.279   6.247   3.612
81077SOL     OW45127  12.424   4.687   2.229
81077SOL    HW145128  12.359   4.618   2.232
81077SOL    HW245129  12.411   4.736   2.310
81078SOL     OW45130  13.836   2.337   1.326
81078SOL    HW145131  13.753   2.379   1.308
81078SOL    HW245132  13.879   2.394   1.391
81079SOL     OW45133   5.707  10.824   0.355
81079SOL    HW145134   5.743  10.891   0.297
81079SOL    HW245135   5.631  10.866   0.396
81080SOL     OW45136   8.551  14.751  13.416
81080SOL    HW145137   8.583  14.709  13.495
81080SOL    HW245138   8.613  14.823  13.400
81081SOL     OW45139   8.222   0.097   4.212
81081SOL    HW145140   8.127   0.107   4.210
81081SOL    HW245141   8.256   0.180   4.180
81082SOL     OW45142   4.821  10.277   1.529
81082SOL    HW145143   4.909  10.315   1.524
81082SOL    HW245144   4.801  10.253   1.438
81083SOL     OW45145   8.471   1.253   5.401
81083SOL    HW145146   8.405   1.199   5.444
81083SOL    HW245147   8.434   1.273   5.315
81084SOL     OW45148   9.506   8.545   3.493
81084SOL    HW145149   9.569   8.577   3.557
81084SOL    HW245150   9.484   8.457   3.523
81085SOL     OW45151   1.951   6.699  12.435
81085SOL    HW145152   1.925   6.761  12.367
81085SOL    HW245153   1.990   6.626  12.387
81086SOL     OW45154  11.363  12.854   9.173
81086SOL    HW145155  11.348  12.890   9.260
81086SOL    HW245156  11.335  12.763   9.179
81087SOL     OW45157   0.949  10.716  12.744
81087SOL    HW145158   0.908  10.797  12.776
81087SOL    HW245159   0.896  10.646  12.782
81088SOL     OW45160   3.165   9.432  10.198
81088SOL    HW145161   3.127   9.345  10.208
81088SOL    HW245162   3.140   9.478  10.279
81089SOL     OW45163  14.319   1.462   3.604
81089SOL    HW145164  14.351   1.444   3.515
81089SOL    HW245165  14.332   1.380   3.651
81090SOL     OW45166   9.241   9.919   4.946
81090SOL    HW145167   9.279   9.876   4.869
81090SOL    HW245168   9.150   9.892   4.946
81091SOL     OW45169  13.668   5.718   1.982
81091SOL    HW145170  13.722   5.698   2.058
81091SOL    HW245171  13.722   5.779   1.930
81092SOL     OW45172  12.805   2.805   5.494
81092SOL    HW145173  12.770   2.757   5.418
81092SOL    HW245174  12.754   2.774   5.568
81093SOL     OW45175  13.423   8.251  14.692
81093SOL    HW145176  13.408   8.175  14.747
81093SOL    HW245177  13.336   8.288  14.677
81094SOL     OW45178  11.127   6.158   3.107
81094SOL    HW145179  11.137   6.229   3.043
81094SOL    HW245180  11.213   6.151   3.148
81095SOL     OW45181  13.333  13.720  14.123
81095SOL    HW145182  13.363  13.753  14.208
81095SOL    HW245183  13.351  13.626  14.127
81096SOL     OW45184   8.501   3.184   2.831
81096SOL    HW145185   8.450   3.229   2.763
81096SOL    HW245186   8.542   3.111   2.786
81097SOL     OW45187  14.356   2.156   7.602
81097SOL    HW145188  14.360   2.173   7.696
81097SOL    HW245189  14.274   2.197   7.574
81098SOL     OW45190   6.205   0.905   7.112
81098SOL    HW145191   6.128   0.864   7.071
81098SOL    HW245192   6.230   0.975   7.052
81099SOL     OW45193   5.546   1.052   2.847
81099SOL    HW145194   5.559   1.039   2.941
81099SOL    HW245195   5.601   0.985   2.806
81100SOL     OW45196  13.060   3.282  10.207
81100SOL    HW145197  13.135   3.341  10.201
81100SOL    HW245198  13.050   3.265  10.301
81101SOL     OW45199  10.601   3.620  11.961
81101SOL    HW145200  10.510   3.641  11.939
81101SOL    HW245201  10.631   3.562  11.891
81102SOL     OW45202   3.611   9.916   7.060
81102SOL    HW145203   3.641   9.977   6.992
81102SOL    HW245204   3.517   9.930   7.065
81103SOL     OW45205   0.605   9.255   0.360
81103SOL    HW145206   0.700   9.259   0.360
81103SOL    HW245207   0.579   9.281   0.272
81104SOL     OW45208  14.160  12.469  13.904
81104SOL    HW145209  14.194  12.558  13.896
81104SOL    HW245210  14.069  12.482  13.933
81105SOL     OW45211   8.813   5.450  13.425
81105SOL    HW145212   8.729   5.437  13.469
81105SOL    HW245213   8.804   5.534  13.381
81106SOL     OW45214   6.846  10.845  13.030
81106SOL    HW145215   6.850  10.935  12.997
81106SOL    HW245216   6.934  10.811  13.017
81107SOL     OW45217   6.873  10.186   4.875
81107SOL    HW145218   6.824  10.213   4.953
81107SOL    HW245219   6.855  10.092   4.867
81108SOL     OW45220   5.237  11.301  10.264
81108SOL    HW145221   5.198  11.364  10.203
81108SOL    HW245222   5.289  11.355  10.323
81109SOL     OW45223  13.946   9.020  13.388
81109SOL    HW145224  13.904   9.018  13.474
81109SOL    HW245225  13.923   9.106  13.352
81110SOL     OW45226  14.708   7.116   7.093
81110SOL    HW145227  14.752   7.103   7.009
81110SOL    HW245228  14.658   7.036   7.107
81111SOL     OW45229  10.149   5.988   0.118
81111SOL    HW145230  10.056   6.010   0.120
81111SOL    HW245231  10.190   6.057   0.066
81112SOL     OW45232   9.156   8.578   3.795
81112SOL    HW145233   9.103   8.507   3.758
81112SOL    HW245234   9.172   8.637   3.721
81113SOL     OW45235   1.507   3.870   5.824
81113SOL    HW145236   1.413   3.867   5.807
81113SOL    HW245237   1.523   3.959   5.856
81114SOL     OW45238   3.767   2.906   8.852
81114SOL    HW145239   3.677   2.915   8.823
81114SOL    HW245240   3.787   2.813   8.842
81115SOL     OW45241   8.764   6.325  12.595
81115SOL    HW145242   8.797   6.358  12.679
81115SOL    HW245243   8.825   6.255  12.572
81116SOL     OW45244  14.331   8.316   6.889
81116SOL    HW145245  14.260   8.275   6.839
81116SOL    HW245246  14.411   8.285   6.847
81117SOL     OW45247   4.181   9.117  10.003
81117SOL    HW145248   4.260   9.074   9.968
81117SOL    HW245249   4.113   9.099   9.938
81118SOL     OW45250  11.329   7.462   0.834
81118SOL    HW145251  11.390   7.534   0.851
81118SOL    HW245252  11.252   7.505   0.798
81119SOL     OW45253   5.538   1.368  10.862
81119SOL    HW145254   5.497   1.395  10.944
81119SOL    HW245255   5.494   1.420  10.795
81120SOL     OW45256  13.807  14.530   1.416
81120SOL    HW145257  13.765  14.519   1.501
81120SOL    HW245258  13.737  14.558   1.357
81121SOL     OW45259   0.575  12.734  10.426
81121SOL    HW145260   0.502  12.794  10.441
81121SOL    HW245261   0.652  12.783  10.456
81122SOL     OW45262   3.199  10.058   1.160
81122SOL    HW145263   3.146  10.045   1.239
81122SOL    HW245264   3.136  10.075   1.091
81123SOL     OW45265   2.501   6.374   1.377
81123SOL    HW145266   2.444   6.393   1.303
81123SOL    HW245267   2.443   6.369   1.452
81124SOL     OW45268   8.895  11.505  11.215
81124SOL    HW145269   8.982  11.508  11.255
81124SOL    HW245270   8.909  11.536  11.125
81125SOL     OW45271   5.303   2.766   2.549
81125SOL    HW145272   5.359   2.820   2.604
81125SOL    HW245273   5.216   2.773   2.590
81126SOL     OW45274   9.076   9.631   8.796
81126SOL    HW145275   9.148   9.651   8.736
81126SOL    HW245276   9.107   9.662   8.881
81127SOL     OW45277   8.665   2.425  10.542
81127SOL    HW145278   8.630   2.483  10.474
81127SOL    HW245279   8.670   2.481  10.620
81128SOL     OW45280   2.108  13.634   4.148
81128SOL    HW145281   2.027  13.633   4.199
81128SOL    HW245282   2.097  13.708   4.088
81129SOL     OW45283  10.817   4.889  14.698
81129SOL    HW145284  10.838   4.950  14.627
81129SOL    HW245285  10.762   4.823  14.656
81130SOL     OW45286  14.795  13.715  13.054
81130SOL    HW145287  14.734  13.716  12.980
81130SOL    HW245288  14.740  13.728  13.131
81131SOL     OW45289   9.459   9.475  13.526
81131SOL    HW145290   9.483   9.383  13.511
81131SOL    HW245291   9.487   9.521  13.447
81132SOL     OW45292   6.145   0.170   2.053
81132SOL    HW145293   6.232   0.189   2.088
81132SOL    HW245294   6.086   0.227   2.103
81133SOL     OW45295   6.980   0.906   5.712
81133SOL    HW145296   7.067   0.867   5.700
81133SOL    HW245297   6.934   0.845   5.769
81134SOL     OW45298   5.275   9.105  14.397
81134SOL    HW145299   5.251   9.197  14.405
81134SOL    HW245300   5.352   9.095  14.453
81135SOL     OW45301   3.892   6.693   8.893
81135SOL    HW145302   3.912   6.630   8.824
81135SOL    HW245303   3.839   6.643   8.956
81136SOL     OW45304   4.458   5.132   6.290
81136SOL    HW145305   4.459   5.204   6.227
81136SOL    HW245306   4.483   5.172   6.373
81137SOL     OW45307   1.916  10.231  12.006
81137SOL    HW145308   1.954  10.235  12.093
81137SOL    HW245309   1.828  10.195  12.020
81138SOL     OW45310  11.539   6.410   9.417
81138SOL    HW145311  11.566   6.496   9.385
81138SOL    HW245312  11.574   6.348   9.353
81139SOL     OW45313   9.371  13.361  14.431
81139SOL    HW145314   9.456  13.380  14.391
81139SOL    HW245315   9.309  13.411  14.378
81140SOL     OW45316  14.674  13.473  10.678
81140SOL    HW145317  14.594  13.460  10.728
81140SOL    HW245318  14.662  13.556  10.633
81141SOL     OW45319   5.194   9.948   2.534
81141SOL    HW145320   5.167   9.873   2.481
81141SOL    HW245321   5.268   9.916   2.586
81142SOL     OW45322   1.953   8.577   5.904
81142SOL    HW145323   1.957   8.552   5.997
81142SOL    HW245324   1.930   8.670   5.905
81143SOL     OW45325   7.827   2.932   4.090
81143SOL    HW145326   7.912   2.891   4.082
81143SOL    HW245327   7.840   3.021   4.059
81144SOL     OW45328  10.502   1.216   7.615
81144SOL    HW145329  10.551   1.157   7.672
81144SOL    HW245330  10.479   1.161   7.539
81145SOL     OW45331   9.942   1.078   0.291
81145SOL    HW145332   9.956   0.983   0.297
81145SOL    HW245333  10.029   1.114   0.272
81146SOL     OW45334  14.619   1.619   1.606
81146SOL    HW145335  14.532   1.587   1.631
81146SOL    HW245336  14.637   1.690   1.667
81147SOL     OW45337  11.383  14.301   0.921
81147SOL    HW145338  11.460  14.253   0.953
81147SOL    HW245339  11.351  14.348   0.997
81148SOL     OW45340  10.130   5.178   1.748
81148SOL    HW145341  10.043   5.210   1.727
81148SOL    HW245342  10.125   5.083   1.734
81149SOL     OW45343  12.180   3.246  14.876
81149SOL    HW145344  12.265   3.201  14.868
81149SOL    HW245345  12.179   3.281   0.084
81150SOL     OW45346   0.600  12.337  11.997
81150SOL    HW145347   0.687  12.352  12.034
81150SOL    HW245348   0.616  12.325  11.903
81151SOL     OW45349   0.094  14.629   7.512
81151SOL    HW145350   0.030  14.697   7.489
81151SOL    HW245351   0.084  14.617   7.606
81152SOL     OW45352  10.168   4.886  12.866
81152SOL    HW145353  10.094   4.923  12.915
81152SOL    HW245354  10.200   4.959  12.812
81153SOL     OW45355  14.794   9.656  10.076
81153SOL    HW145356  14.845   9.711  10.135
81153SOL    HW245357  14.781   9.574  10.124
81154SOL     OW45358   1.490   2.964   4.274
81154SOL    HW145359   1.445   2.978   4.357
81154SOL    HW245360   1.580   2.991   4.290
81155SOL     OW45361   7.546   5.183  12.953
81155SOL    HW145362   7.600   5.243  12.902
81155SOL    HW245363   7.570   5.201  13.044
81156SOL     OW45364  11.052  13.381   8.585
81156SOL    HW145365  11.007  13.465   8.571
81156SOL    HW245366  10.988  13.315   8.560
81157SOL     OW45367   8.238   9.719   0.838
81157SOL    HW145368   8.328   9.699   0.811
81157SOL    HW245369   8.212   9.791   0.780
81158SOL     OW45370   4.935  12.338  13.270
81158SOL    HW145371   4.931  12.433  13.283
81158SOL    HW245372   5.010  12.310  13.321
81159SOL     OW45373   1.876   7.304   1.183
81159SOL    HW145374   1.782   7.321   1.175
81159SOL    HW245375   1.917   7.378   1.137
81160SOL     OW45376   2.616   9.542  13.492
81160SOL    HW145377   2.539   9.599  13.484
81160SOL    HW245378   2.656   9.545  13.405
81161SOL     OW45379   8.232   7.181   9.044
81161SOL    HW145380   8.207   7.269   9.016
81161SOL    HW245381   8.243   7.132   8.962
81162SOL     OW45382   3.121  11.612   5.587
81162SOL    HW145383   3.089  11.632   5.674
81162SOL    HW245384   3.074  11.672   5.529
81163SOL     OW45385  11.842   1.555   8.929
81163SOL    HW145386  11.774   1.524   8.988
81163SOL    HW245387  11.916   1.496   8.945
81164SOL     OW45388   8.966   6.696   7.152
81164SOL    HW145389   8.909   6.620   7.151
81164SOL    HW245390   8.946   6.740   7.234
81165SOL     OW45391   1.311   1.606   9.924
81165SOL    HW145392   1.235   1.588   9.869
81165SOL    HW245393   1.367   1.662   9.870
81166SOL     OW45394   0.746  12.899  12.945
81166SOL    HW145395   0.712  12.876  12.858
81166SOL    HW245396   0.705  12.836  13.004
81167SOL     OW45397   3.348  13.832   9.345
81167SOL    HW145398   3.331  13.751   9.393
81167SOL    HW245399   3.272  13.841   9.287
81168SOL     OW45400  13.869   1.302  11.326
81168SOL    HW145401  13.882   1.229  11.266
81168SOL    HW245402  13.942   1.294  11.389
81169SOL     OW45403   4.647  13.406   1.508
81169SOL    HW145404   4.656  13.439   1.418
81169SOL    HW245405   4.579  13.461   1.547
81170SOL     OW45406  14.428   2.444  10.385
81170SOL    HW145407  14.395   2.357  10.405
81170SOL    HW245408  14.401   2.497  10.460
81171SOL     OW45409  11.347   6.304   7.302
81171SOL    HW145410  11.320   6.242   7.234
81171SOL    HW245411  11.443   6.301   7.299
81172SOL     OW45412  11.125   0.325   4.737
81172SOL    HW145413  11.103   0.239   4.701
81172SOL    HW245414  11.074   0.386   4.684
81173SOL     OW45415  13.893  14.377   3.785
81173SOL    HW145416  13.924  14.449   3.840
81173SOL    HW245417  13.865  14.420   3.703
81174SOL     OW45418   6.606  14.443   9.722
81174SOL    HW145419   6.561  14.453   9.807
81174SOL    HW245420   6.593  14.350   9.700
81175SOL     OW45421  13.599  10.364   0.823
81175SOL    HW145422  13.563  10.311   0.893
81175SOL    HW245423  13.582  10.314   0.743
81176SOL     OW45424   6.549  10.245   4.474
81176SOL    HW145425   6.582  10.155   4.473
81176SOL    HW245426   6.521  10.260   4.564
81177SOL     OW45427  10.961   5.323   3.859
81177SOL    HW145428  11.025   5.251   3.863
81177SOL    HW245429  11.013   5.402   3.874
81178SOL     OW45430  13.791  13.144   2.921
81178SOL    HW145431  13.795  13.056   2.882
81178SOL    HW245432  13.830  13.201   2.855
81179SOL     OW45433   8.740  14.025   6.679
81179SOL    HW145434   8.699  14.110   6.691
81179SOL    HW245435   8.685  13.964   6.730
81180SOL     OW45436  14.771   5.930   1.101
81180SOL    HW145437  14.829   5.924   1.177
81180SOL    HW245438  14.816   5.883   1.032
81181SOL     OW45439   9.875  14.042   8.924
81181SOL    HW145440   9.919  14.125   8.911
81181SOL    HW245441   9.793  14.065   8.969
81182SOL     OW45442   0.842   8.010   5.505
81182SOL    HW145443   0.820   8.090   5.458
81182SOL    HW245444   0.860   8.039   5.594
81183SOL     OW45445  11.510   7.769  10.361
81183SOL    HW145446  11.525   7.809  10.447
81183SOL    HW245447  11.597   7.746  10.329
81184SOL     OW45448  10.693   1.441   5.845
81184SOL    HW145449  10.607   1.482   5.855
81184SOL    HW245450  10.754   1.505   5.882
81185SOL     OW45451   5.912   3.508   5.397
81185SOL    HW145452   5.821   3.519   5.425
81185SOL    HW245453   5.942   3.430   5.444
81186SOL     OW45454  10.451   6.857   1.379
81186SOL    HW145455  10.380   6.908   1.417
81186SOL    HW245456  10.444   6.771   1.420
81187SOL     OW45457   5.447  10.071   9.794
81187SOL    HW145458   5.441  10.160   9.828
81187SOL    HW245459   5.365  10.059   9.746
81188SOL     OW45460   9.307   8.619   0.142
81188SOL    HW145461   9.231   8.674   0.161
81188SOL    HW245462   9.297   8.598   0.049
81189SOL     OW45463  14.116  13.484   0.539
81189SOL    HW145464  14.045  13.548   0.540
81189SOL    HW245465  14.184  13.523   0.594
81190SOL     OW45466   8.954  13.287  11.468
81190SOL    HW145467   8.920  13.232  11.398
81190SOL    HW245468   8.950  13.376  11.433
81191SOL     OW45469   7.028   0.513   5.062
81191SOL    HW145470   7.018   0.541   4.971
81191SOL    HW245471   7.090   0.575   5.099
81192SOL     OW45472  12.582   9.338   6.440
81192SOL    HW145473  12.582   9.425   6.402
81192SOL    HW245474  12.553   9.281   6.369
81193SOL     OW45475   3.231   7.527   6.128
81193SOL    HW145476   3.227   7.434   6.104
81193SOL    HW245477   3.226   7.527   6.224
81194SOL     OW45478  14.600   2.606   8.152
81194SOL    HW145479  14.522   2.659   8.163
81194SOL    HW245480  14.659   2.661   8.100
81195SOL     OW45481  12.612   4.642  10.918
81195SOL    HW145482  12.652   4.704  10.980
81195SOL    HW245483  12.596   4.694  10.839
81196SOL     OW45484  13.039   6.795   6.282
81196SOL    HW145485  13.133   6.807   6.267
81196SOL    HW245486  13.035   6.735   6.356
81197SOL     OW45487   9.052   6.718   8.430
81197SOL    HW145488   9.081   6.769   8.354
81197SOL    HW245489   9.110   6.641   8.430
81198SOL     OW45490  11.480  10.569   1.402
81198SOL    HW145491  11.412  10.526   1.455
81198SOL    HW245492  11.458  10.545   1.312
81199SOL     OW45493   9.860   9.139  10.878
81199SOL    HW145494   9.867   9.161  10.785
81199SOL    HW245495   9.928   9.074  10.893
81200SOL     OW45496   4.254   8.876   2.456
81200SOL    HW145497   4.256   8.843   2.546
81200SOL    HW245498   4.309   8.954   2.458
81201SOL     OW45499  14.628   1.170   8.624
81201SOL    HW145500  14.649   1.100   8.686
81201SOL    HW245501  14.554   1.135   8.574
81202SOL     OW45502   4.040   4.779   1.899
81202SOL    HW145503   3.949   4.748   1.892
81202SOL    HW245504   4.035   4.856   1.956
81203SOL     OW45505  10.852   2.586  13.030
81203SOL    HW145506  10.797   2.664  13.026
81203SOL    HW245507  10.794   2.517  13.064
81204SOL     OW45508   9.279   7.258  10.123
81204SOL    HW145509   9.372   7.253  10.102
81204SOL    HW245510   9.243   7.318  10.058
81205SOL     OW45511   8.971   4.113  14.670
81205SOL    HW145512   8.953   4.057  14.594
81205SOL    HW245513   8.937   4.063  14.745
81206SOL     OW45514   5.266   3.529  13.317
81206SOL    HW145515   5.315   3.507  13.238
81206SOL    HW245516   5.196   3.587  13.286
81207SOL     OW45517   0.867   8.041   4.334
81207SOL    HW145518   0.836   8.066   4.247
81207SOL    HW245519   0.878   8.124   4.380
81208SOL     OW45520   5.970  12.085   0.609
81208SOL    HW145521   5.877  12.067   0.600
81208SOL    HW245522   5.974  12.161   0.667
81209SOL     OW45523   8.716  10.729   5.940
81209SOL    HW145524   8.757  10.650   5.977
81209SOL    HW245525   8.643  10.696   5.888
81210SOL     OW45526   2.238  12.713  13.155
81210SOL    HW145527   2.190  12.718  13.072
81210SOL    HW245528   2.178  12.670  13.215
81211SOL     OW45529   1.911   5.050   3.332
81211SOL    HW145530   1.964   5.077   3.257
81211SOL    HW245531   1.908   5.128   3.388
81212SOL     OW45532  13.172  10.070   7.206
81212SOL    HW145533  13.081  10.099   7.201
81212SOL    HW245534  13.179  10.025   7.290
81213SOL     OW45535   3.548   2.334   6.959
81213SOL    HW145536   3.564   2.428   6.957
81213SOL    HW245537   3.461   2.323   6.921
81214SOL     OW45538   9.759   6.845   4.739
81214SOL    HW145539   9.829   6.860   4.802
81214SOL    HW245540   9.697   6.788   4.785
81215SOL     OW45541   7.239  13.033  14.544
81215SOL    HW145542   7.331  13.057  14.530
81215SOL    HW245543   7.204  13.020  14.456
81216SOL     OW45544   4.483  13.302  10.398
81216SOL    HW145545   4.556  13.355  10.428
81216SOL    HW245546   4.422  13.301  10.472
81217SOL     OW45547   1.139   8.310   5.086
81217SOL    HW145548   1.085   8.356   5.150
81217SOL    HW245549   1.196   8.378   5.049
81218SOL     OW45550   7.510   6.558   5.265
81218SOL    HW145551   7.557   6.476   5.283
81218SOL    HW245552   7.418   6.533   5.262
81219SOL     OW45553  13.750   4.674  11.806
81219SOL    HW145554  13.765   4.582  11.783
81219SOL    HW245555  13.738   4.673  11.901
81220SOL     OW45556  14.504   9.361  12.217
81220SOL    HW145557  14.416   9.393  12.234
81220SOL    HW245558  14.492   9.269  12.192
81221SOL     OW45559   3.666   9.309   4.505
81221SOL    HW145560   3.727   9.247   4.544
81221SOL    HW245561   3.698   9.320   4.415
81222SOL     OW45562   0.422   1.637  12.818
81222SOL    HW145563   0.505   1.665  12.780
81222SOL    HW245564   0.389   1.714  12.864
81223SOL     OW45565   0.345   1.241   7.056
81223SOL    HW145566   0.263   1.284   7.029
81223SOL    HW245567   0.413   1.304   7.032
81224SOL     OW45568   0.647   4.992   8.496
81224SOL    HW145569   0.660   5.072   8.547
81224SOL    HW245570   0.699   5.006   8.417
81225SOL     OW45571   2.637   3.737  13.404
81225SOL    HW145572   2.647   3.804  13.337
81225SOL    HW245573   2.695   3.666  13.376
81226SOL     OW45574  12.228   3.730   7.430
81226SOL    HW145575  12.201   3.727   7.522
81226SOL    HW245576  12.169   3.794   7.390
81227SOL     OW45577  13.174   9.734   4.760
81227SOL    HW145578  13.226   9.729   4.840
81227SOL    HW245579  13.192   9.652   4.715
81228SOL     OW45580   1.845  14.092  13.164
81228SOL    HW145581   1.918  14.031  13.171
81228SOL    HW245582   1.773  14.048  13.209
81229SOL     OW45583  10.410  10.289  13.466
81229SOL    HW145584  10.447  10.331  13.388
81229SOL    HW245585  10.378  10.361  13.519
81230SOL     OW45586   9.533   0.571  13.180
81230SOL    HW145587   9.606   0.625  13.150
81230SOL    HW245588   9.570   0.484  13.193
81231SOL     OW45589   7.804  10.246   5.677
81231SOL    HW145590   7.818  10.249   5.582
81231SOL    HW245591   7.858  10.318   5.711
81232SOL     OW45592  10.946  12.387  13.287
81232SOL    HW145593  11.006  12.345  13.226
81232SOL    HW245594  10.957  12.338  13.369
81233SOL     OW45595   7.712  13.690  14.689
81233SOL    HW145596   7.763  13.609  14.685
81233SOL    HW245597   7.630  13.665  14.730
81234SOL     OW45598  14.683  10.526  12.625
81234SOL    HW145599  14.747  10.526  12.554
81234SOL    HW245600  14.732  10.555  12.702
81235SOL     OW45601   6.700   9.555  11.903
81235SOL    HW145602   6.694   9.595  11.816
81235SOL    HW245603   6.609   9.538  11.927
81236SOL     OW45604  12.677   7.033   3.365
81236SOL    HW145605  12.612   7.011   3.298
81236SOL    HW245606  12.761   7.030   3.319
81237SOL     OW45607   1.455   4.131   7.700
81237SOL    HW145608   1.481   4.220   7.723
81237SOL    HW245609   1.463   4.127   7.605
81238SOL     OW45610  12.382   3.383  11.641
81238SOL    HW145611  12.294   3.388  11.605
81238SOL    HW245612  12.435   3.439  11.584
81239SOL     OW45613   1.997   1.988   7.397
81239SOL    HW145614   2.007   1.906   7.349
81239SOL    HW245615   1.935   2.039   7.344
81240SOL     OW45616   0.447   6.552   6.546
81240SOL    HW145617   0.445   6.561   6.451
81240SOL    HW245618   0.540   6.551   6.568
81241SOL     OW45619   3.735  14.277   5.341
81241SOL    HW145620   3.774  14.191   5.326
81241SOL    HW245621   3.641  14.263   5.331
81242SOL     OW45622   0.345   9.074   2.319
81242SOL    HW145623   0.293   9.026   2.384
81242SOL    HW245624   0.280   9.111   2.259
81243SOL     OW45625   7.895   2.407  12.489
81243SOL    HW145626   7.898   2.502  12.476
81243SOL    HW245627   7.975   2.375  12.449
81244SOL     OW45628   0.867   3.167  13.045
81244SOL    HW145629   0.810   3.244  13.042
81244SOL    HW245630   0.820   3.100  12.996
81245SOL     OW45631   9.489  10.401  10.583
81245SOL    HW145632   9.513  10.310  10.598
81245SOL    HW245633   9.537  10.426  10.504
81246SOL     OW45634  10.742   8.632   2.159
81246SOL    HW145635  10.660   8.678   2.173
81246SOL    HW245636  10.802   8.670   2.223
81247SOL     OW45637   8.017  14.053  10.768
81247SOL    HW145638   8.025  13.958  10.778
81247SOL    HW245639   7.952  14.064  10.699
81248SOL     OW45640   7.866   7.042  10.190
81248SOL    HW145641   7.899   7.121  10.147
81248SOL    HW245642   7.900   7.048  10.279
81249SOL     OW45643   8.650  13.024   6.167
81249SOL    HW145644   8.708  13.013   6.091
81249SOL    HW245645   8.668  12.949   6.222
81250SOL     OW45646  11.633   3.415   5.625
81250SOL    HW145647  11.543   3.384   5.612
81250SOL    HW245648  11.686   3.360   5.568
81251SOL     OW45649  10.196   4.942  12.231
81251SOL    HW145650  10.258   4.876  12.262
81251SOL    HW245651  10.248   4.998  12.174
81252SOL     OW45652  14.396  14.018  12.941
81252SOL    HW145653  14.304  13.990  12.938
81252SOL    HW245654  14.402  14.085  12.873
81253SOL     OW45655  11.115   8.871  12.307
81253SOL    HW145656  11.203   8.844  12.336
81253SOL    HW245657  11.057   8.803  12.340
81254SOL     OW45658   6.853   7.304   1.717
81254SOL    HW145659   6.893   7.331   1.800
81254SOL    HW245660   6.763   7.334   1.723
81255SOL     OW45661   6.129   6.731   6.371
81255SOL    HW145662   6.035   6.716   6.378
81255SOL    HW245663   6.137   6.801   6.306
81256SOL     OW45664  11.631  11.454  14.722
81256SOL    HW145665  11.714  11.451  14.769
81256SOL    HW245666  11.651  11.501  14.641
81257SOL     OW45667   0.084  13.074   1.890
81257SOL    HW145668   0.172  13.056   1.922
81257SOL    HW245669   0.089  13.061   1.796
81258SOL     OW45670   8.116   0.120  13.447
81258SOL    HW145671   8.085   0.126  13.537
81258SOL    HW245672   8.185   0.054  13.450
81259SOL     OW45673   0.327   0.854  12.307
81259SOL    HW145674   0.395   0.919  12.288
81259SOL    HW245675   0.321   0.852  12.403
81260SOL     OW45676   0.466   5.211   2.930
81260SOL    HW145677   0.543   5.234   2.879
81260SOL    HW245678   0.501   5.165   3.006
81261SOL     OW45679  14.575   5.391  13.418
81261SOL    HW145680  14.530   5.455  13.473
81261SOL    HW245681  14.640   5.350  13.475
81262SOL     OW45682   8.215  11.180   6.740
81262SOL    HW145683   8.157  11.104   6.749
81262SOL    HW245684   8.167  11.252   6.782
81263SOL     OW45685  13.277   9.598   6.142
81263SOL    HW145686  13.321   9.653   6.207
81263SOL    HW245687  13.326   9.516   6.143
81264SOL     OW45688   1.759   3.341   3.358
81264SOL    HW145689   1.664   3.346   3.372
81264SOL    HW245690   1.790   3.282   3.426
81265SOL     OW45691   1.619   4.322   7.942
81265SOL    HW145692   1.523   4.323   7.940
81265SOL    HW245693   1.645   4.405   7.902
81266SOL     OW45694  13.172  14.652   0.345
81266SOL    HW145695  13.134  14.639   0.258
81266SOL    HW245696  13.110  14.609   0.405
81267SOL     OW45697   0.052   0.085   9.790
81267SOL    HW145698   0.085   0.058   9.876
81267SOL    HW245699  14.866   0.151   9.810
81268SOL     OW45700   0.146  12.856   2.514
81268SOL    HW145701   0.127  12.850   2.420
81268SOL    HW245702   0.126  12.769   2.549
81269SOL     OW45703   3.248   0.535   8.638
81269SOL    HW145704   3.155   0.513   8.636
81269SOL    HW245705   3.289   0.470   8.582
81270SOL     OW45706   0.073   1.613   6.511
81270SOL    HW145707   0.118   1.611   6.596
81270SOL    HW245708   0.061   1.706   6.492
81271SOL     OW45709  11.486   0.960   5.050
81271SOL    HW145710  11.580   0.942   5.048
81271SOL    HW245711  11.445   0.874   5.049
81272SOL     OW45712   7.680   0.774   4.807
81272SOL    HW145713   7.771   0.760   4.782
81272SOL    HW245714   7.683   0.783   4.903
81273SOL     OW45715   4.461   3.252   8.020
81273SOL    HW145716   4.524   3.183   7.995
81273SOL    HW245717   4.516   3.328   8.040
81274SOL     OW45718   2.576   4.952   7.513
81274SOL    HW145719   2.646   5.006   7.550
81274SOL    HW245720   2.618   4.903   7.443
81275SOL     OW45721   5.194  14.233   0.096
81275SOL    HW145722   5.171  14.215   0.187
81275SOL    HW245723   5.288  14.247   0.098
81276SOL     OW45724   3.083   6.507  14.026
81276SOL    HW145725   3.002   6.459  14.010
81276SOL    HW245726   3.068   6.552  14.109
81277SOL     OW45727  11.384  10.873   4.578
81277SOL    HW145728  11.420  10.857   4.491
81277SOL    HW245729  11.315  10.938   4.564
81278SOL     OW45730   7.609  10.924  14.180
81278SOL    HW145731   7.537  10.897  14.123
81278SOL    HW245732   7.585  10.889  14.266
81279SOL     OW45733   9.864   0.924  10.370
81279SOL    HW145734   9.950   0.911  10.411
81279SOL    HW245735   9.805   0.943  10.444
81280SOL     OW45736   0.530   8.755   1.436
81280SOL    HW145737   0.486   8.707   1.506
81280SOL    HW245738   0.468   8.751   1.362
81281SOL     OW45739   4.997   7.315   4.205
81281SOL    HW145740   4.973   7.391   4.151
81281SOL    HW245741   4.977   7.342   4.294
81282SOL     OW45742  13.077  13.687  14.475
81282SOL    HW145743  13.100  13.595  14.464
81282SOL    HW245744  13.104  13.729  14.394
81283SOL     OW45745   2.572   9.884   5.225
81283SOL    HW145746   2.588   9.917   5.313
81283SOL    HW245747   2.601   9.954   5.166
81284SOL     OW45748   5.371   7.083   9.268
81284SOL    HW145749   5.310   7.155   9.282
81284SOL    HW245750   5.326   7.006   9.304
81285SOL     OW45751   5.985  10.219   1.250
81285SOL    HW145752   5.894  10.247   1.241
81285SOL    HW245753   5.981  10.145   1.310
81286SOL     OW45754   4.440   6.497   1.996
81286SOL    HW145755   4.457   6.546   2.077
81286SOL    HW245756   4.350   6.520   1.973
81287SOL     OW45757   5.213  13.103   2.355
81287SOL    HW145758   5.143  13.166   2.341
81287SOL    HW245759   5.200  13.072   2.444
81288SOL     OW45760  13.121   4.410   8.568
81288SOL    HW145761  13.151   4.329   8.609
81288SOL    HW245762  13.123   4.392   8.474
81289SOL     OW45763   9.971  10.587   3.980
81289SOL    HW145764   9.993  10.653   4.046
81289SOL    HW245765  10.051  10.577   3.928
81290SOL     OW45766   3.349  10.249   3.817
81290SOL    HW145767   3.316  10.166   3.782
81290SOL    HW245768   3.406  10.224   3.889
81291SOL     OW45769   4.099   4.457   3.938
81291SOL    HW145770   4.076   4.401   4.012
81291SOL    HW245771   4.064   4.411   3.861
81292SOL     OW45772   5.061   2.047   8.221
81292SOL    HW145773   5.136   2.106   8.213
81292SOL    HW245774   5.051   2.034   8.316
81293SOL     OW45775   1.816   6.504   7.788
81293SOL    HW145776   1.852   6.440   7.727
81293SOL    HW245777   1.883   6.572   7.795
81294SOL     OW45778   9.052  12.018   6.551
81294SOL    HW145779   9.071  11.926   6.566
81294SOL    HW245780   9.109  12.043   6.479
81295SOL     OW45781   7.388  14.601   2.431
81295SOL    HW145782   7.411  14.675   2.486
81295SOL    HW245783   7.301  14.621   2.398
81296SOL     OW45784   2.221   3.779   3.059
81296SOL    HW145785   2.209   3.732   2.976
81296SOL    HW245786   2.232   3.710   3.124
81297SOL     OW45787  13.479  12.007   5.372
81297SOL    HW145788  13.399  12.016   5.422
81297SOL    HW245789  13.459  11.941   5.305
81298SOL     OW45790  14.346  14.384   6.047
81298SOL    HW145791  14.332  14.289   6.040
81298SOL    HW245792  14.264  14.417   6.083
81299SOL     OW45793  13.579   9.756   1.746
81299SOL    HW145794  13.507   9.819   1.746
81299SOL    HW245795  13.621   9.767   1.832
81300SOL     OW45796   1.409   0.027   8.225
81300SOL    HW145797   1.422   0.119   8.248
81300SOL    HW245798   1.473  14.860   8.280
81301SOL     OW45799   1.648   3.595  12.878
81301SOL    HW145800   1.733   3.600  12.834
81301SOL    HW245801   1.652   3.662  12.946
81302SOL     OW45802  13.364   9.821  12.159
81302SOL    HW145803  13.357   9.782  12.072
81302SOL    HW245804  13.436   9.883  12.152
81303SOL     OW45805   8.163   9.357  11.298
81303SOL    HW145806   8.118   9.359  11.383
81303SOL    HW245807   8.213   9.438  11.295
81304SOL     OW45808   7.576  14.480   8.784
81304SOL    HW145809   7.622  14.558   8.752
81304SOL    HW245810   7.517  14.514   8.851
81305SOL     OW45811   0.334  13.179   2.324
81305SOL    HW145812   0.332  13.275   2.323
81305SOL    HW245813   0.361  13.157   2.413
81306SOL     OW45814   2.027   1.853   0.303
81306SOL    HW145815   2.077   1.857   0.221
81306SOL    HW245816   1.936   1.859   0.276
81307SOL     OW45817   5.600   3.654  11.086
81307SOL    HW145818   5.681   3.670  11.134
81307SOL    HW245819   5.625   3.661  10.994
81308SOL     OW45820  14.640   3.813   4.856
81308SOL    HW145821  14.556   3.844   4.890
81308SOL    HW245822  14.702   3.883   4.877
81309SOL     OW45823  13.287   5.606  12.769
81309SOL    HW145824  13.362   5.550  12.790
81309SOL    HW245825  13.217   5.575  12.826
81310SOL     OW45826  10.088   2.041  14.647
81310SOL    HW145827  10.044   2.116  14.605
81310SOL    HW245828  10.175   2.038  14.607
81311SOL     OW45829   7.470  13.018  12.136
81311SOL    HW145830   7.477  12.923  12.123
81311SOL    HW245831   7.540  13.055  12.082
81312SOL     OW45832  12.966   9.946   7.609
81312SOL    HW145833  12.871   9.942   7.622
81312SOL    HW245834  13.003   9.926   7.695
81313SOL     OW45835   0.662   9.696   7.433
81313SOL    HW145836   0.680   9.743   7.514
81313SOL    HW245837   0.717   9.618   7.438
81314SOL     OW45838   9.481   9.952   7.123
81314SOL    HW145839   9.477  10.019   7.055
81314SOL    HW245840   9.397   9.957   7.168
81315SOL     OW45841   0.350   5.885   9.695
81315SOL    HW145842   0.378   5.801   9.731
81315SOL    HW245843   0.272   5.909   9.744
81316SOL     OW45844   5.689  13.972  14.574
81316SOL    HW145845   5.623  13.902  14.578
81316SOL    HW245846   5.752  13.950  14.643
81317SOL     OW45847   1.983  10.530   7.602
81317SOL    HW145848   2.007  10.441   7.628
81317SOL    HW245849   1.896  10.543   7.639
81318SOL     OW45850   8.331  14.197   6.567
81318SOL    HW145851   8.275  14.272   6.583
81318SOL    HW245852   8.409  14.214   6.619
81319SOL     OW45853  11.076  14.623   2.073
81319SOL    HW145854  11.005  14.633   2.136
81319SOL    HW245855  11.125  14.705   2.079
81320SOL     OW45856   6.757   1.582  12.206
81320SOL    HW145857   6.666   1.553  12.201
81320SOL    HW245858   6.802   1.512  12.253
81321SOL     OW45859   8.952  13.964  14.301
81321SOL    HW145860   8.899  13.971  14.222
81321SOL    HW245861   8.902  14.013  14.367
81322SOL     OW45862  10.383   9.738   0.122
81322SOL    HW145863  10.314   9.788   0.079
81322SOL    HW245864  10.442   9.804   0.159
81323SOL     OW45865   1.155  14.750   8.902
81323SOL    HW145866   1.069  14.734   8.943
81323SOL    HW245867   1.218  14.718   8.966
81324SOL     OW45868   8.366   9.965   6.059
81324SOL    HW145869   8.353  10.058   6.041
81324SOL    HW245870   8.412   9.933   5.982
81325SOL     OW45871   2.809   1.438   7.216
81325SOL    HW145872   2.893   1.484   7.221
81325SOL    HW245873   2.798   1.400   7.303
81326SOL     OW45874   7.977   0.525   2.485
81326SOL    HW145875   7.913   0.548   2.418
81326SOL    HW245876   7.939   0.448   2.528
81327SOL     OW45877  13.546   4.000   8.209
81327SOL    HW145878  13.501   3.974   8.128
81327SOL    HW245879  13.630   3.953   8.206
81328SOL     OW45880  14.081   1.086  14.245
81328SOL    HW145881  14.087   1.093  14.150
81328SOL    HW245882  14.152   1.027  14.269
81329SOL     OW45883   7.288   0.271  14.502
81329SOL    HW145884   7.315   0.282  14.411
81329SOL    HW245885   7.365   0.295  14.553
81330SOL     OW45886   1.568  12.693   1.470
81330SOL    HW145887   1.494  12.693   1.409
81330SOL    HW245888   1.621  12.618   1.444
81331SOL     OW45889   9.230  13.401   2.183
81331SOL    HW145890   9.166  13.430   2.247
81331SOL    HW245891   9.209  13.310   2.166
81332SOL     OW45892   1.508  14.826  14.619
81332SOL    HW145893   1.458  14.824  14.538
81332SOL    HW245894   1.599  14.834  14.591
81333SOL     OW45895   3.788  10.493   6.185
81333SOL    HW145896   3.733  10.525   6.257
81333SOL    HW245897   3.855  10.561   6.174
81334SOL     OW45898   4.429   4.749  11.693
81334SOL    HW145899   4.418   4.844  11.687
81334SOL    HW245900   4.354   4.712  11.647
81335SOL     OW45901   6.253   3.643   9.602
81335SOL    HW145902   6.248   3.620   9.695
81335SOL    HW245903   6.281   3.561   9.560
81336SOL     OW45904   3.190  11.436  14.147
81336SOL    HW145905   3.140  11.517  14.155
81336SOL    HW245906   3.280  11.461  14.164
81337SOL     OW45907   9.508   1.050  14.533
81337SOL    HW145908   9.482   1.115  14.468
81337SOL    HW245909   9.572   1.096  14.588
81338SOL     OW45910  13.914   6.841   6.090
81338SOL    HW145911  13.917   6.904   6.018
81338SOL    HW245912  13.945   6.889   6.166
81339SOL     OW45913   9.190   5.765   7.946
81339SOL    HW145914   9.097   5.779   7.964
81339SOL    HW245915   9.208   5.678   7.982
81340SOL     OW45916  10.615   6.900   0.138
81340SOL    HW145917  10.629   6.877   0.229
81340SOL    HW245918  10.564   6.981   0.141
81341SOL     OW45919   9.735   6.545   6.221
81341SOL    HW145920   9.822   6.573   6.249
81341SOL    HW245921   9.695   6.508   6.300
81342SOL     OW45922  12.302   1.271   3.071
81342SOL    HW145923  12.382   1.220   3.060
81342SOL    HW245924  12.330   1.354   3.110
81343SOL     OW45925   3.520  12.367   1.430
81343SOL    HW145926   3.536  12.280   1.466
81343SOL    HW245927   3.531  12.356   1.335
81344SOL     OW45928   9.091  14.865  10.120
81344SOL    HW145929   9.004   0.010  10.153
81344SOL    HW245930   9.091  14.769  10.123
81345SOL     OW45931   4.555   9.354   9.873
81345SOL    HW145932   4.466   9.376   9.898
81345SOL    HW245933   4.607   9.431   9.897
81346SOL     OW45934   9.048  14.322   7.521
81346SOL    HW145935   9.062  14.402   7.471
81346SOL    HW245936   9.126  14.269   7.505
81347SOL     OW45937  10.377   2.139   3.567
81347SOL    HW145938  10.334   2.183   3.640
81347SOL    HW245939  10.401   2.053   3.601
81348SOL     OW45940   1.178  11.479  13.265
81348SOL    HW145941   1.251  11.446  13.213
81348SOL    HW245942   1.111  11.501  13.201
81349SOL     OW45943  11.039   8.275   8.349
81349SOL    HW145944  11.009   8.313   8.431
81349SOL    HW245945  11.039   8.180   8.365
81350SOL     OW45946   0.581  11.593  12.386
81350SOL    HW145947   0.492  11.603  12.420
81350SOL    HW245948   0.573  11.606  12.291
81351SOL     OW45949   3.810   0.748   7.479
81351SOL    HW145950   3.744   0.690   7.517
81351SOL    HW245951   3.781   0.836   7.503
81352SOL     OW45952   5.017   6.981   1.707
81352SOL    HW145953   5.111   6.998   1.705
81352SOL    HW245954   5.009   6.894   1.746
81353SOL     OW45955  12.534   5.333   5.667
81353SOL    HW145956  12.517   5.395   5.738
81353SOL    HW245957  12.571   5.387   5.597
81354SOL     OW45958   3.554  12.795   2.054
81354SOL    HW145959   3.521  12.713   2.090
81354SOL    HW245960   3.631  12.816   2.107
81355SOL     OW45961   0.428   3.568   9.781
81355SOL    HW145962   0.359   3.632   9.801
81355SOL    HW245963   0.454   3.589   9.691
81356SOL     OW45964   0.709   6.599  10.846
81356SOL    HW145965   0.720   6.653  10.767
81356SOL    HW245966   0.777   6.532  10.838
81357SOL     OW45967   9.544   2.231   8.923
81357SOL    HW145968   9.550   2.162   8.857
81357SOL    HW245969   9.632   2.268   8.928
81358SOL     OW45970   2.923  13.387  11.503
81358SOL    HW145971   2.865  13.463  11.512
81358SOL    HW245972   3.002  13.411  11.552
81359SOL     OW45973   3.479   6.973  10.417
81359SOL    HW145974   3.508   7.064  10.420
81359SOL    HW245975   3.555   6.923  10.445
81360SOL     OW45976  11.624   3.482   9.587
81360SOL    HW145977  11.682   3.415   9.624
81360SOL    HW245978  11.592   3.443   9.505
81361SOL     OW45979   7.903   6.163  10.660
81361SOL    HW145980   7.985   6.182  10.613
81361SOL    HW245981   7.848   6.119  10.595
81362SOL     OW45982  12.268   1.263  10.239
81362SOL    HW145983  12.197   1.202  10.221
81362SOL    HW245984  12.234   1.348  10.209
81363SOL     OW45985  14.744   8.881  14.005
81363SOL    HW145986  14.819   8.918  14.052
81363SOL    HW245987  14.782   8.814  13.948
81364SOL     OW45988   7.702   9.891   4.026
81364SOL    HW145989   7.699   9.929   3.939
81364SOL    HW245990   7.734   9.961   4.083
81365SOL     OW45991   5.211   0.262   6.128
81365SOL    HW145992   5.123   0.292   6.110
81365SOL    HW245993   5.259   0.274   6.046
81366SOL     OW45994   2.481   5.232   0.393
81366SOL    HW145995   2.562   5.262   0.435
81366SOL    HW245996   2.453   5.305   0.339
81367SOL     OW45997   7.192   7.882  13.313
81367SOL    HW145998   7.253   7.951  13.338
81367SOL    HW245999   7.245   7.819  13.265
81368SOL     OW46000   9.913  13.034   7.922
81368SOL    HW146001   9.998  13.079   7.931
81368SOL    HW246002   9.936  12.944   7.899
81369SOL     OW46003  10.916   0.098  10.248
81369SOL    HW146004  10.969   0.030  10.206
81369SOL    HW246005  10.936   0.177  10.199
81370SOL     OW46006   9.228   9.570  11.318
81370SOL    HW146007   9.207   9.510  11.247
81370SOL    HW246008   9.320   9.594  11.302
81371SOL     OW46009  14.552  12.686  14.348
81371SOL    HW146010  14.611  12.697  14.274
81371SOL    HW246011  14.486  12.755  14.337
81372SOL     OW46012   9.447   1.428  14.867
81372SOL    HW146013   9.416   1.518  14.875
81372SOL    HW246014   9.367   1.375  14.861
81373SOL     OW46015  13.547   1.861   9.554
81373SOL    HW146016  13.630   1.838   9.512
81373SOL    HW246017  13.572   1.886   9.643
81374SOL     OW46018  11.206  12.455   4.650
81374SOL    HW146019  11.125  12.505   4.648
81374SOL    HW246020  11.224  12.442   4.743
81375SOL     OW46021   8.367   4.443   3.849
81375SOL    HW146022   8.340   4.422   3.938
81375SOL    HW246023   8.285   4.468   3.805
81376SOL     OW46024  13.584  10.630   8.507
81376SOL    HW146025  13.566  10.597   8.595
81376SOL    HW246026  13.505  10.611   8.457
81377SOL     OW46027   6.589   2.141   5.455
81377SOL    HW146028   6.585   2.142   5.550
81377SOL    HW246029   6.608   2.049   5.433
81378SOL     OW46030   7.415   0.592   8.784
81378SOL    HW146031   7.503   0.628   8.792
81378SOL    HW246032   7.382   0.590   8.874
81379SOL     OW46033   2.985  14.078   3.777
81379SOL    HW146034   2.907  14.022   3.770
81379SOL    HW246035   3.058  14.020   3.755
81380SOL     OW46036   5.750   7.625   1.420
81380SOL    HW146037   5.704   7.611   1.503
81380SOL    HW246038   5.772   7.537   1.389
81381SOL     OW46039   2.711   1.143   8.770
81381SOL    HW146040   2.729   1.237   8.776
81381SOL    HW246041   2.645   1.127   8.837
81382SOL     OW46042   4.060   3.431   4.288
81382SOL    HW146043   4.032   3.419   4.197
81382SOL    HW246044   4.005   3.502   4.320
81383SOL     OW46045   1.683  13.163  13.651
81383SOL    HW146046   1.702  13.232  13.715
81383SOL    HW246047   1.594  13.181  13.622
81384SOL     OW46048   0.018   0.274   6.919
81384SOL    HW146049   0.093   0.283   6.978
81384SOL    HW246050   0.000   0.363   6.889
81385SOL     OW46051   0.183  14.082   3.570
81385SOL    HW146052   0.247  14.119   3.631
81385SOL    HW246053   0.234  14.020   3.518
81386SOL     OW46054   1.984   5.650   5.981
81386SOL    HW146055   1.945   5.736   5.993
81386SOL    HW246056   2.058   5.648   6.042
81387SOL     OW46057  11.859  11.559  10.293
81387SOL    HW146058  11.870  11.646  10.254
81387SOL    HW246059  11.767  11.538  10.278
81388SOL     OW46060   0.674  11.495   0.387
81388SOL    HW146061   0.620  11.484   0.308
81388SOL    HW246062   0.759  11.522   0.353
81389SOL     OW46063   0.792   9.785   3.379
81389SOL    HW146064   0.882   9.785   3.409
81389SOL    HW246065   0.784   9.706   3.325
81390SOL     OW46066   9.947  13.903   6.930
81390SOL    HW146067   9.866  13.861   6.959
81390SOL    HW246068   9.922  13.952   6.852
81391SOL     OW46069   1.092   7.198  14.232
81391SOL    HW146070   1.027   7.267  14.222
81391SOL    HW246071   1.110   7.194  14.326
81392SOL     OW46072  13.653  14.473   0.476
81392SOL    HW146073  13.607  14.513   0.402
81392SOL    HW246074  13.730  14.432   0.436
81393SOL     OW46075   9.141   8.253   2.920
81393SOL    HW146076   9.128   8.302   2.839
81393SOL    HW246077   9.232   8.223   2.915
81394SOL     OW46078   6.408  11.839  10.451
81394SOL    HW146079   6.490  11.857  10.498
81394SOL    HW246080   6.366  11.924  10.443
81395SOL     OW46081   2.239   6.496  12.466
81395SOL    HW146082   2.163   6.475  12.412
81395SOL    HW246083   2.246   6.423  12.528
81396SOL     OW46084   4.332   3.035   9.346
81396SOL    HW146085   4.283   3.105   9.304
81396SOL    HW246086   4.275   2.959   9.341
81397SOL     OW46087   3.859   7.033   9.743
81397SOL    HW146088   3.920   7.092   9.699
81397SOL    HW246089   3.914   6.964   9.780
81398SOL     OW46090   0.872   3.546  10.570
81398SOL    HW146091   0.865   3.599  10.650
81398SOL    HW246092   0.965   3.526  10.562
81399SOL     OW46093   1.200   2.504  14.212
81399SOL    HW146094   1.218   2.579  14.156
81399SOL    HW246095   1.233   2.429  14.162
81400SOL     OW46096  13.981   9.543   5.680
81400SOL    HW146097  13.901   9.491   5.673
81400SOL    HW246098  13.976   9.605   5.607
81401SOL     OW46099  14.142   9.100   3.443
81401SOL    HW146100  14.153   9.011   3.476
81401SOL    HW246101  14.048   9.114   3.444
81402SOL     OW46102   8.412   6.214   5.170
81402SOL    HW146103   8.371   6.182   5.089
81402SOL    HW246104   8.490   6.260   5.141
81403SOL     OW46105   7.947   0.504   5.071
81403SOL    HW146106   7.993   0.540   4.995
81403SOL    HW246107   8.015   0.498   5.139
81404SOL     OW46108   6.692   8.850   4.838
81404SOL    HW146109   6.624   8.917   4.832
81404SOL    HW246110   6.736   8.853   4.753
81405SOL     OW46111   5.154  14.215   6.509
81405SOL    HW146112   5.183  14.179   6.593
81405SOL    HW246113   5.096  14.287   6.532
81406SOL     OW46114   4.277  10.352   0.921
81406SOL    HW146115   4.291  10.272   0.870
81406SOL    HW246116   4.317  10.421   0.867
81407SOL     OW46117   5.465  14.043  10.814
81407SOL    HW146118   5.408  14.098  10.760
81407SOL    HW246119   5.500  14.103  10.880
81408SOL     OW46120  13.169   3.902  12.581
81408SOL    HW146121  13.123   3.830  12.538
81408SOL    HW246122  13.238   3.859  12.633
81409SOL     OW46123   8.729   1.782   2.750
81409SOL    HW146124   8.641   1.749   2.770
81409SOL    HW246125   8.767   1.801   2.836
81410SOL     OW46126   6.779  10.281   8.771
81410SOL    HW146127   6.735  10.201   8.743
81410SOL    HW246128   6.872  10.262   8.758
81411SOL     OW46129   1.053  14.167  13.095
81411SOL    HW146130   1.128  14.214  13.058
81411SOL    HW246131   1.059  14.184  13.189
81412SOL     OW46132  11.406   3.873   7.458
81412SOL    HW146133  11.390   3.966   7.443
81412SOL    HW246134  11.360   3.854   7.540
81413SOL     OW46135   9.148   7.904   4.524
81413SOL    HW146136   9.133   7.810   4.539
81413SOL    HW246137   9.088   7.947   4.585
81414SOL     OW46138   7.972   6.220   3.540
81414SOL    HW146139   7.897   6.270   3.572
81414SOL    HW246140   7.935   6.161   3.475
81415SOL     OW46141   3.967   8.271   7.112
81415SOL    HW146142   3.883   8.234   7.136
81415SOL    HW246143   3.980   8.343   7.174
81416SOL     OW46144  13.059   4.582  11.786
81416SOL    HW146145  13.084   4.666  11.824
81416SOL    HW246146  13.018   4.534  11.858
81417SOL     OW46147   8.895   9.325   2.541
81417SOL    HW146148   8.849   9.406   2.518
81417SOL    HW246149   8.876   9.266   2.469
81418SOL     OW46150   2.863   9.998   7.864
81418SOL    HW146151   2.845   9.934   7.795
81418SOL    HW246152   2.776  10.026   7.894
81419SOL     OW46153   9.291   2.279  10.851
81419SOL    HW146154   9.341   2.218  10.797
81419SOL    HW246155   9.355   2.345  10.878
81420SOL     OW46156   0.584   9.945   3.419
81420SOL    HW146157   0.570   9.941   3.514
81420SOL    HW246158   0.655   9.882   3.403
81421SOL     OW46159   9.338   0.017  13.596
81421SOL    HW146160   9.346  14.831  13.527
81421SOL    HW246161   9.429   0.032  13.624
81422SOL     OW46162  11.496  10.456  10.193
81422SOL    HW146163  11.471  10.370  10.161
81422SOL    HW246164  11.548  10.439  10.271
81423SOL     OW46165   0.589   1.403  13.310
81423SOL    HW146166   0.647   1.347  13.259
81423SOL    HW246167   0.502   1.364  13.298
81424SOL     OW46168   1.109  12.866   8.383
81424SOL    HW146169   1.016  12.843   8.389
81424SOL    HW246170   1.113  12.956   8.417
81425SOL     OW46171  13.867   0.673   3.354
81425SOL    HW146172  13.878   0.579   3.345
81425SOL    HW246173  13.896   0.692   3.443
81426SOL     OW46174   2.977   9.927   3.306
81426SOL    HW146175   2.996   9.887   3.391
81426SOL    HW246176   2.883   9.914   3.294
81427SOL     OW46177   7.510  12.550  10.836
81427SOL    HW146178   7.417  12.563  10.854
81427SOL    HW246179   7.534  12.622  10.777
81428SOL     OW46180  11.269   1.716   3.204
81428SOL    HW146181  11.305   1.805   3.203
81428SOL    HW246182  11.195   1.720   3.144
81429SOL     OW46183   4.442  13.497   7.123
81429SOL    HW146184   4.475  13.485   7.034
81429SOL    HW246185   4.495  13.438   7.177
81430SOL     OW46186  13.260   5.000  10.225
81430SOL    HW146187  13.288   5.002  10.134
81430SOL    HW246188  13.318   4.936  10.266
81431SOL     OW46189   3.712   2.750   0.792
81431SOL    HW146190   3.798   2.717   0.765
81431SOL    HW246191   3.722   2.768   0.886
81432SOL     OW46192   6.037   1.243   5.110
81432SOL    HW146193   6.133   1.241   5.107
81432SOL    HW246194   6.011   1.154   5.086
81433SOL     OW46195   1.698   3.102   2.963
81433SOL    HW146196   1.696   3.186   2.917
81433SOL    HW246197   1.791   3.081   2.969
81434SOL     OW46198   0.666   1.825   6.367
81434SOL    HW146199   0.635   1.820   6.277
81434SOL    HW246200   0.760   1.838   6.359
81435SOL     OW46201  13.371  12.294  10.261
81435SOL    HW146202  13.334  12.222  10.211
81435SOL    HW246203  13.415  12.252  10.335
81436SOL     OW46204   2.007  14.173   9.614
81436SOL    HW146205   1.912  14.162   9.621
81436SOL    HW246206   2.029  14.140   9.527
81437SOL     OW46207   5.712   4.749   0.815
81437SOL    HW146208   5.800   4.722   0.789
81437SOL    HW246209   5.661   4.742   0.735
81438SOL     OW46210   2.084   6.138   7.972
81438SOL    HW146211   2.057   6.180   8.053
81438SOL    HW246212   2.096   6.046   7.994
81439SOL     OW46213  12.742   1.166   6.528
81439SOL    HW146214  12.811   1.152   6.463
81439SOL    HW246215  12.663   1.182   6.477
81440SOL     OW46216  14.623   9.606  14.240
81440SOL    HW146217  14.632   9.617  14.145
81440SOL    HW246218  14.691   9.542  14.263
81441SOL     OW46219  11.433   0.915   6.716
81441SOL    HW146220  11.347   0.880   6.741
81441SOL    HW246221  11.421   1.010   6.718
81442SOL     OW46222   1.554  12.424  14.682
81442SOL    HW146223   1.467  12.395  14.711
81442SOL    HW246224   1.590  12.471  14.757
81443SOL     OW46225  13.387  12.906   5.470
81443SOL    HW146226  13.376  12.846   5.396
81443SOL    HW246227  13.339  12.864   5.542
81444SOL     OW46228   6.875   3.784   3.079
81444SOL    HW146229   6.881   3.815   2.989
81444SOL    HW246230   6.931   3.706   3.081
81445SOL     OW46231   4.583   8.647   7.287
81445SOL    HW146232   4.672   8.652   7.323
81445SOL    HW246233   4.590   8.585   7.215
81446SOL     OW46234   3.179   3.400   2.555
81446SOL    HW146235   3.166   3.310   2.584
81446SOL    HW246236   3.274   3.409   2.549
81447SOL     OW46237  10.916   8.807   0.997
81447SOL    HW146238  10.843   8.821   1.058
81447SOL    HW246239  10.978   8.753   1.045
81448SOL     OW46240   8.600   7.023   0.785
81448SOL    HW146241   8.564   7.108   0.760
81448SOL    HW246242   8.693   7.040   0.801
81449SOL     OW46243   9.063   7.195   9.507
81449SOL    HW146244   9.136   7.256   9.501
81449SOL    HW246245   9.019   7.202   9.422
81450SOL     OW46246   3.685   2.449  13.913
81450SOL    HW146247   3.734   2.430  13.833
81450SOL    HW246248   3.595   2.424  13.892
81451SOL     OW46249   0.021   0.723   6.656
81451SOL    HW146250  14.850   0.744   6.577
81451SOL    HW246251   0.083   0.796   6.663
81452SOL     OW46252   5.812   2.625   7.374
81452SOL    HW146253   5.740   2.682   7.402
81452SOL    HW246254   5.802   2.618   7.279
81453SOL     OW46255   3.778   6.157   6.807
81453SOL    HW146256   3.695   6.171   6.853
81453SOL    HW246257   3.845   6.168   6.875
81454SOL     OW46258   0.134  14.676   3.106
81454SOL    HW146259   0.223  14.651   3.134
81454SOL    HW246260   0.077  14.623   3.161
81455SOL     OW46261  12.318   3.467   7.957
81455SOL    HW146262  12.408   3.489   7.933
81455SOL    HW246263  12.313   3.486   8.051
81456SOL     OW46264   8.135  11.391   9.629
81456SOL    HW146265   8.076  11.413   9.702
81456SOL    HW246266   8.076  11.362   9.559
81457SOL     OW46267  14.541   7.658   4.814
81457SOL    HW146268  14.561   7.574   4.773
81457SOL    HW246269  14.473   7.697   4.759
81458SOL     OW46270   9.988  13.904   3.302
81458SOL    HW146271  10.055  13.921   3.368
81458SOL    HW246272   9.923  13.849   3.346
81459SOL     OW46273   3.664  14.333   5.604
81459SOL    HW146274   3.690  14.322   5.513
81459SOL    HW246275   3.744  14.358   5.650
81460SOL     OW46276   8.407   0.887   6.569
81460SOL    HW146277   8.419   0.975   6.605
81460SOL    HW246278   8.343   0.899   6.499
81461SOL     OW46279   7.453   9.049   6.188
81461SOL    HW146280   7.526   9.095   6.228
81461SOL    HW246281   7.454   8.962   6.228
81462SOL     OW46282   9.974   5.096  11.452
81462SOL    HW146283   9.887   5.104  11.490
81462SOL    HW246284  10.008   5.185  11.451
81463SOL     OW46285   3.542  12.492  14.105
81463SOL    HW146286   3.492  12.535  14.036
81463SOL    HW246287   3.476  12.460  14.166
81464SOL     OW46288   3.191   0.389   1.540
81464SOL    HW146289   3.240   0.313   1.509
81464SOL    HW246290   3.151   0.425   1.461
81465SOL     OW46291  13.723   0.098   7.732
81465SOL    HW146292  13.676   0.074   7.812
81465SOL    HW246293  13.662   0.076   7.661
81466SOL     OW46294   2.848   2.927   7.089
81466SOL    HW146295   2.770   2.882   7.120
81466SOL    HW246296   2.920   2.868   7.111
81467SOL     OW46297   9.509   5.949  13.271
81467SOL    HW146298   9.541   5.892  13.201
81467SOL    HW246299   9.579   5.949  13.336
81468SOL     OW46300   7.061   8.017  13.609
81468SOL    HW146301   7.039   8.074  13.536
81468SOL    HW246302   7.152   7.992  13.593
81469SOL     OW46303  11.800  12.209   0.194
81469SOL    HW146304  11.737  12.275   0.225
81469SOL    HW246305  11.883  12.235   0.234
81470SOL     OW46306  13.798   8.274   0.746
81470SOL    HW146307  13.882   8.256   0.788
81470SOL    HW246308  13.785   8.368   0.756
81471SOL     OW46309  14.397   8.579  10.940
81471SOL    HW146310  14.409   8.524  10.862
81471SOL    HW246311  14.359   8.520  11.005
81472SOL     OW46312  10.846  12.837   0.598
81472SOL    HW146313  10.893  12.754   0.593
81472SOL    HW246314  10.909  12.903   0.570
81473SOL     OW46315   2.105   3.326   2.871
81473SOL    HW146316   2.104   3.371   2.787
81473SOL    HW246317   2.050   3.380   2.928
81474SOL     OW46318   5.345   2.544   0.951
81474SOL    HW146319   5.354   2.492   0.871
81474SOL    HW246320   5.372   2.632   0.926
81475SOL     OW46321   6.677   1.200  13.031
81475SOL    HW146322   6.664   1.293  13.012
81475SOL    HW246323   6.771   1.191  13.047
81476SOL     OW46324   2.868   5.897   6.073
81476SOL    HW146325   2.779   5.932   6.077
81476SOL    HW246326   2.902   5.926   5.989
81477SOL     OW46327  12.738   6.348   3.325
81477SOL    HW146328  12.690   6.406   3.265
81477SOL    HW246329  12.762   6.273   3.271
81478SOL     OW46330  14.729   0.084   3.205
81478SOL    HW146331  14.720   0.178   3.214
81478SOL    HW246332  14.772   0.071   3.121
81479SOL     OW46333   6.782  11.054  13.631
81479SOL    HW146334   6.782  11.071  13.537
81479SOL    HW246335   6.844  10.982  13.642
81480SOL     OW46336  10.280   8.216   3.793
81480SOL    HW146337  10.244   8.140   3.746
81480SOL    HW246338  10.312   8.179   3.876
81481SOL     OW46339   7.820   5.181  12.347
81481SOL    HW146340   7.755   5.114  12.371
81481SOL    HW246341   7.886   5.175  12.416
81482SOL     OW46342   0.644  13.314   6.455
81482SOL    HW146343   0.665  13.304   6.548
81482SOL    HW246344   0.560  13.359   6.454
81483SOL     OW46345   1.749  11.628  11.217
81483SOL    HW146346   1.798  11.568  11.272
81483SOL    HW246347   1.678  11.576  11.180
81484SOL     OW46348   7.220   6.352   5.342
81484SOL    HW146349   7.141   6.312   5.379
81484SOL    HW246350   7.283   6.351   5.414
81485SOL     OW46351   2.443   8.289   5.416
81485SOL    HW146352   2.498   8.215   5.444
81485SOL    HW246353   2.474   8.309   5.328
81486SOL     OW46354  11.978   5.796  10.176
81486SOL    HW146355  11.968   5.835  10.089
81486SOL    HW246356  12.061   5.748  10.172
81487SOL     OW46357  13.113   5.128   6.963
81487SOL    HW146358  13.086   5.214   6.998
81487SOL    HW246359  13.203   5.141   6.934
81488SOL     OW46360   0.529  12.958  14.250
81488SOL    HW146361   0.535  13.044  14.208
81488SOL    HW246362   0.578  12.968  14.332
81489SOL     OW46363   8.584   6.645   8.363
81489SOL    HW146364   8.655   6.709   8.358
81489SOL    HW246365   8.513   6.691   8.408
81490SOL     OW46366   5.863   2.935   9.153
81490SOL    HW146367   5.794   2.955   9.090
81490SOL    HW246368   5.833   2.973   9.235
81491SOL     OW46369   0.064  14.299  12.870
81491SOL    HW146370   0.067  14.304  12.774
81491SOL    HW246371   0.138  14.243  12.893
81492SOL     OW46372   4.347  13.968   6.737
81492SOL    HW146373   4.366  13.875   6.723
81492SOL    HW246374   4.377  14.012   6.657
81493SOL     OW46375   2.157  12.125   4.105
81493SOL    HW146376   2.124  12.202   4.058
81493SOL    HW246377   2.187  12.065   4.037
81494SOL     OW46378   2.973  14.595  11.913
81494SOL    HW146379   3.028  14.520  11.892
81494SOL    HW246380   2.995  14.660  11.847
81495SOL     OW46381  11.266   0.152   7.635
81495SOL    HW146382  11.324   0.075   7.636
81495SOL    HW246383  11.179   0.115   7.625
81496SOL     OW46384   1.749  12.846  10.333
81496SOL    HW146385   1.748  12.797  10.415
81496SOL    HW246386   1.839  12.880  10.326
81497SOL     OW46387  11.063   9.960   5.055
81497SOL    HW146388  10.996   9.907   5.099
81497SOL    HW246389  11.052  10.048   5.091
81498SOL     OW46390  11.728   1.006   3.477
81498SOL    HW146391  11.689   1.084   3.517
81498SOL    HW246392  11.689   1.001   3.390
81499SOL     OW46393   7.764   6.236   7.247
81499SOL    HW146394   7.686   6.237   7.191
81499SOL    HW246395   7.740   6.290   7.322
81500SOL     OW46396   9.580   7.785   6.301
81500SOL    HW146397   9.573   7.694   6.329
81500SOL    HW246398   9.674   7.798   6.285
81501SOL     OW46399   2.109   1.238  10.407
81501SOL    HW146400   2.144   1.198  10.327
81501SOL    HW246401   2.112   1.332  10.391
81502SOL     OW46402   5.791   9.322  11.314
81502SOL    HW146403   5.758   9.312  11.403
81502SOL    HW246404   5.878   9.283  11.316
81503SOL     OW46405   1.686   0.878   7.306
81503SOL    HW146406   1.717   0.959   7.265
81503SOL    HW246407   1.591   0.886   7.306
81504SOL     OW46408   6.094   9.319  13.835
81504SOL    HW146409   6.048   9.284  13.911
81504SOL    HW246410   6.071   9.259  13.763
81505SOL     OW46411  11.596  12.203   5.485
81505SOL    HW146412  11.598  12.279   5.427
81505SOL    HW246413  11.657  12.141   5.445
81506SOL     OW46414   7.085   5.205   6.738
81506SOL    HW146415   7.058   5.290   6.774
81506SOL    HW246416   7.139   5.166   6.806
81507SOL     OW46417   0.321   7.807   5.175
81507SOL    HW146418   0.291   7.860   5.250
81507SOL    HW246419   0.355   7.727   5.215
81508SOL     OW46420   5.182  11.469  11.297
81508SOL    HW146421   5.150  11.391  11.342
81508SOL    HW246422   5.210  11.527  11.368
81509SOL     OW46423   3.139   5.924  12.614
81509SOL    HW146424   3.060   5.969  12.585
81509SOL    HW246425   3.189   5.910  12.534
81510SOL     OW46426   3.712   5.453   3.395
81510SOL    HW146427   3.705   5.472   3.302
81510SOL    HW246428   3.693   5.359   3.402
81511SOL     OW46429  14.621   8.873   7.931
81511SOL    HW146430  14.574   8.950   7.898
81511SOL    HW246431  14.613   8.808   7.861
81512SOL     OW46432   1.892  13.605   8.511
81512SOL    HW146433   1.959  13.565   8.456
81512SOL    HW246434   1.813  13.607   8.456
81513SOL     OW46435   2.495   4.893  12.197
81513SOL    HW146436   2.486   4.843  12.278
81513SOL    HW246437   2.493   4.985  12.225
81514SOL     OW46438   8.482   0.082  11.448
81514SOL    HW146439   8.455   0.039  11.367
81514SOL    HW246440   8.451   0.025  11.517
81515SOL     OW46441  11.251  12.024  13.246
81515SOL    HW146442  11.286  11.987  13.165
81515SOL    HW246443  11.162  11.989  13.251
81516SOL     OW46444   5.860  10.860   8.117
81516SOL    HW146445   5.794  10.908   8.166
81516SOL    HW246446   5.918  10.823   8.185
81517SOL     OW46447   0.256   6.096   0.013
81517SOL    HW146448   0.346   6.079  14.866
81517SOL    HW246449   0.203   6.064  14.821
81518SOL     OW46450   9.949  10.310  14.863
81518SOL    HW146451   9.931  10.275   0.070
81518SOL    HW246452  10.027  10.263  14.834
81519SOL     OW46453   4.545   5.708  10.838
81519SOL    HW146454   4.560   5.614  10.834
81519SOL    HW246455   4.489   5.727  10.762
81520SOL     OW46456  13.528   3.264   7.694
81520SOL    HW146457  13.543   3.342   7.642
81520SOL    HW246458  13.478   3.205   7.636
81521SOL     OW46459   7.350   9.802   9.473
81521SOL    HW146460   7.386   9.750   9.545
81521SOL    HW246461   7.306   9.875   9.516
81522SOL     OW46462  14.689  11.762   4.525
81522SOL    HW146463  14.711  11.833   4.465
81522SOL    HW246464  14.593  11.768   4.534
81523SOL     OW46465   0.498   0.341   9.463
81523SOL    HW146466   0.572   0.312   9.515
81523SOL    HW246467   0.511   0.436   9.454
81524SOL     OW46468   1.775  10.282   5.002
81524SOL    HW146469   1.846  10.316   4.946
81524SOL    HW246470   1.763  10.349   5.069
81525SOL     OW46471   9.357   4.691   9.020
81525SOL    HW146472   9.350   4.602   8.985
81525SOL    HW246473   9.450   4.713   9.012
81526SOL     OW46474  14.155  13.026   4.654
81526SOL    HW146475  14.077  13.078   4.672
81526SOL    HW246476  14.187  13.059   4.570
81527SOL     OW46477  11.552  11.741   4.797
81527SOL    HW146478  11.528  11.667   4.852
81527SOL    HW246479  11.550  11.707   4.708
81528SOL     OW46480  10.823  13.571  10.699
81528SOL    HW146481  10.827  13.493  10.645
81528SOL    HW246482  10.858  13.641  10.643
81529SOL     OW46483   6.724   5.233   5.623
81529SOL    HW146484   6.754   5.262   5.536
81529SOL    HW246485   6.645   5.181   5.605
81530SOL     OW46486   0.970   5.831   2.240
81530SOL    HW146487   0.974   5.849   2.334
81530SOL    HW246488   0.877   5.830   2.219
81531SOL     OW46489  11.003   1.891  10.847
81531SOL    HW146490  10.931   1.880  10.785
81531SOL    HW246491  10.962   1.919  10.928
81532SOL     OW46492   0.430   4.574   4.819
81532SOL    HW146493   0.462   4.484   4.827
81532SOL    HW246494   0.352   4.577   4.874
81533SOL     OW46495  10.600  14.088  14.043
81533SOL    HW146496  10.692  14.082  14.067
81533SOL    HW246497  10.591  14.173  14.000
81534SOL     OW46498   4.645   1.308  13.962
81534SOL    HW146499   4.712   1.248  13.930
81534SOL    HW246500   4.662   1.317  14.055
81535SOL     OW46501  11.903   4.014  11.138
81535SOL    HW146502  11.868   4.090  11.091
81535SOL    HW246503  11.927   4.049  11.224
81536SOL     OW46504  10.725   1.309   1.984
81536SOL    HW146505  10.640   1.317   1.942
81536SOL    HW246506  10.741   1.214   1.989
81537SOL     OW46507  13.723   4.108   0.049
81537SOL    HW146508  13.671   4.084  14.853
81537SOL    HW246509  13.659   4.124   0.118
81538SOL     OW46510   0.065   3.599   2.394
81538SOL    HW146511   0.062   3.682   2.442
81538SOL    HW246512   0.019   3.537   2.451
81539SOL     OW46513   7.772  12.788  13.492
81539SOL    HW146514   7.711  12.857  13.468
81539SOL    HW246515   7.852  12.834  13.520
81540SOL     OW46516   3.218   6.608  13.546
81540SOL    HW146517   3.288   6.568  13.599
81540SOL    HW246518   3.256   6.615  13.458
81541SOL     OW46519   3.557   4.086  10.601
81541SOL    HW146520   3.533   4.174  10.633
81541SOL    HW246521   3.636   4.101  10.548
81542SOL     OW46522   0.791   7.556   8.247
81542SOL    HW146523   0.757   7.480   8.294
81542SOL    HW246524   0.800   7.623   8.315
81543SOL     OW46525   6.819   0.891   0.499
81543SOL    HW146526   6.797   0.971   0.450
81543SOL    HW246527   6.866   0.923   0.576
81544SOL     OW46528  11.415   1.785   9.049
81544SOL    HW146529  11.399   1.719   8.982
81544SOL    HW246530  11.383   1.746   9.130
81545SOL     OW46531  10.426   6.559   7.034
81545SOL    HW146532  10.360   6.507   7.079
81545SOL    HW246533  10.502   6.501   7.029
81546SOL     OW46534   8.854  10.895   3.747
81546SOL    HW146535   8.844  10.975   3.695
81546SOL    HW246536   8.923  10.846   3.702
81547SOL     OW46537   3.329   6.409   0.585
81547SOL    HW146538   3.248   6.368   0.616
81547SOL    HW246539   3.320   6.411   0.489
81548SOL     OW46540  11.432  14.293  12.822
81548SOL    HW146541  11.394  14.223  12.876
81548SOL    HW246542  11.468  14.247  12.746
81549SOL     OW46543  10.073   7.597   3.259
81549SOL    HW146544  10.142   7.577   3.196
81549SOL    HW246545   9.995   7.612   3.205
81550SOL     OW46546   3.651   7.558  12.825
81550SOL    HW146547   3.661   7.474  12.779
81550SOL    HW246548   3.741   7.583  12.849
81551SOL     OW46549  10.693   4.668   2.562
81551SOL    HW146550  10.773   4.714   2.534
81551SOL    HW246551  10.680   4.601   2.496
81552SOL     OW46552   1.850   2.049   5.318
81552SOL    HW146553   1.852   1.964   5.274
81552SOL    HW246554   1.915   2.101   5.272
81553SOL     OW46555   0.144   3.230   0.972
81553SOL    HW146556   0.233   3.250   0.944
81553SOL    HW246557   0.089   3.286   0.917
81554SOL     OW46558  11.079   3.752   8.779
81554SOL    HW146559  11.157   3.699   8.762
81554SOL    HW246560  11.102   3.805   8.855
81555SOL     OW46561   0.859   6.255   2.052
81555SOL    HW146562   0.815   6.179   2.016
81555SOL    HW246563   0.832   6.257   2.144
81556SOL     OW46564   4.497   9.052   6.884
81556SOL    HW146565   4.589   9.034   6.904
81556SOL    HW246566   4.477   9.133   6.931
81557SOL     OW46567   2.839   0.323   3.420
81557SOL    HW146568   2.898   0.302   3.493
81557SOL    HW246569   2.898   0.351   3.350
81558SOL     OW46570   4.437  10.363   0.118
81558SOL    HW146571   4.394  10.400   0.195
81558SOL    HW246572   4.375  10.299   0.084
81559SOL     OW46573   0.627   4.075   5.219
81559SOL    HW146574   0.689   4.005   5.239
81559SOL    HW246575   0.678   4.140   5.171
81560SOL     OW46576   3.917  11.173   9.767
81560SOL    HW146577   3.849  11.181   9.700
81560SOL    HW246578   3.996  11.150   9.718
81561SOL     OW46579  11.930   4.445   3.952
81561SOL    HW146580  11.970   4.479   4.032
81561SOL    HW246581  11.981   4.367   3.931
81562SOL     OW46582  10.202   2.859  14.864
81562SOL    HW146583  10.130   2.840  14.804
81562SOL    HW246584  10.262   2.914  14.813
81563SOL     OW46585   0.634   3.782   9.971
81563SOL    HW146586   0.601   3.778   9.881
81563SOL    HW246587   0.699   3.712   9.976
81564SOL     OW46588  14.287   2.588   7.326
81564SOL    HW146589  14.325   2.583   7.414
81564SOL    HW246590  14.204   2.633   7.339
81565SOL     OW46591   1.522   5.452  14.140
81565SOL    HW146592   1.507   5.427  14.231
81565SOL    HW246593   1.450   5.512  14.119
81566SOL     OW46594   8.168  14.286   2.041
81566SOL    HW146595   8.225  14.225   1.993
81566SOL    HW246596   8.081  14.248   2.033
81567SOL     OW46597   3.313   8.091   1.447
81567SOL    HW146598   3.225   8.125   1.430
81567SOL    HW246599   3.315   8.006   1.404
81568SOL     OW46600  11.408   1.118   1.295
81568SOL    HW146601  11.496   1.123   1.334
81568SOL    HW246602  11.415   1.049   1.229
81569SOL     OW46603  12.778   0.174  13.694
81569SOL    HW146604  12.800   0.267  13.705
81569SOL    HW246605  12.816   0.131  13.771
81570SOL     OW46606   6.475  14.468   2.600
81570SOL    HW146607   6.443  14.515   2.523
81570SOL    HW246608   6.425  14.386   2.600
81571SOL     OW46609  11.202   8.631  12.088
81571SOL    HW146610  11.158   8.713  12.109
81571SOL    HW246611  11.291   8.643  12.120
81572SOL     OW46612   3.025  14.593   4.831
81572SOL    HW146613   3.013  14.625   4.742
81572SOL    HW246614   3.101  14.641   4.863
81573SOL     OW46615   1.539   4.492  11.230
81573SOL    HW146616   1.453   4.534  11.218
81573SOL    HW246617   1.519   4.406  11.267
81574SOL     OW46618   2.262   4.482  14.751
81574SOL    HW146619   2.299   4.563  14.785
81574SOL    HW246620   2.262   4.423  14.827
81575SOL     OW46621   5.698   7.031   2.489
81575SOL    HW146622   5.645   7.002   2.564
81575SOL    HW246623   5.634   7.039   2.417
81576SOL     OW46624  11.549  13.483   0.815
81576SOL    HW146625  11.594  13.440   0.888
81576SOL    HW246626  11.576  13.574   0.820
81577SOL     OW46627  14.842  14.074   2.575
81577SOL    HW146628   0.030  14.099   2.637
81577SOL    HW246629   0.002  14.004   2.522
81578SOL     OW46630   3.922  10.017  14.365
81578SOL    HW146631   3.829  10.034  14.382
81578SOL    HW246632   3.956  10.100  14.333
81579SOL     OW46633  10.815  12.557  12.525
81579SOL    HW146634  10.902  12.592  12.544
81579SOL    HW246635  10.832  12.475  12.479
81580SOL     OW46636  10.961   8.102   7.343
81580SOL    HW146637  10.993   8.042   7.410
81580SOL    HW246638  11.036   8.114   7.284
81581SOL     OW46639   2.064   4.657   9.918
81581SOL    HW146640   2.037   4.721   9.851
81581SOL    HW246641   2.156   4.676   9.934
81582SOL     OW46642   8.808   2.166   0.164
81582SOL    HW146643   8.744   2.113   0.211
81582SOL    HW246644   8.880   2.177   0.225
81583SOL     OW46645   4.734   6.012  11.176
81583SOL    HW146646   4.727   5.984  11.085
81583SOL    HW246647   4.675   6.088  11.182
81584SOL     OW46648  11.419   3.506   7.804
81584SOL    HW146649  11.498   3.459   7.775
81584SOL    HW246650  11.372   3.527   7.723
81585SOL     OW46651  14.742  10.199   7.576
81585SOL    HW146652  14.819  10.164   7.623
81585SOL    HW246653  14.708  10.267   7.634
81586SOL     OW46654  13.297   2.496   9.063
81586SOL    HW146655  13.289   2.410   9.103
81586SOL    HW246656  13.389   2.520   9.078
81587SOL     OW46657  13.253   8.646  13.408
81587SOL    HW146658  13.206   8.670  13.488
81587SOL    HW246659  13.239   8.552  13.400
81588SOL     OW46660   3.907   1.831   1.745
81588SOL    HW146661   3.979   1.850   1.686
81588SOL    HW246662   3.884   1.740   1.727
81589SOL     OW46663   1.197  13.249   8.183
81589SOL    HW146664   1.260  13.317   8.159
81589SOL    HW246665   1.218  13.176   8.125
81590SOL     OW46666  11.812   6.288   3.843
81590SOL    HW146667  11.824   6.196   3.821
81590SOL    HW246668  11.829   6.292   3.937
81591SOL     OW46669   4.223   6.068  13.300
81591SOL    HW146670   4.228   6.113  13.216
81591SOL    HW246671   4.212   5.976  13.277
81592SOL     OW46672   2.372   9.191   8.209
81592SOL    HW146673   2.375   9.116   8.150
81592SOL    HW246674   2.415   9.161   8.289
81593SOL     OW46675  14.444   5.990   9.176
81593SOL    HW146676  14.384   5.970   9.105
81593SOL    HW246677  14.418   6.077   9.205
81594SOL     OW46678  10.217  10.203  11.560
81594SOL    HW146679  10.223  10.145  11.635
81594SOL    HW246680  10.174  10.282  11.594
81595SOL     OW46681   7.544   1.631   4.260
81595SOL    HW146682   7.524   1.665   4.173
81595SOL    HW246683   7.608   1.561   4.245
81596SOL     OW46684   3.851   5.056   3.204
81596SOL    HW146685   3.857   5.115   3.129
81596SOL    HW246686   3.789   5.100   3.263
81597SOL     OW46687   0.749   0.545   2.466
81597SOL    HW146688   0.692   0.545   2.543
81597SOL    HW246689   0.784   0.456   2.462
81598SOL     OW46690   5.371   4.089  10.188
81598SOL    HW146691   5.332   4.034  10.121
81598SOL    HW246692   5.437   4.141  10.141
81599SOL     OW46693   0.920  12.415   1.058
81599SOL    HW146694   0.996  12.454   1.014
81599SOL    HW246695   0.863  12.389   0.986
81600SOL     OW46696   4.323   6.082   2.963
81600SOL    HW146697   4.289   6.017   3.024
81600SOL    HW246698   4.361   6.150   3.019
81601SOL     OW46699  12.230  11.250  13.808
81601SOL    HW146700  12.226  11.346  13.813
81601SOL    HW246701  12.174  11.219  13.878
81602SOL     OW46702   5.044  11.778  12.854
81602SOL    HW146703   5.008  11.866  12.849
81602SOL    HW246704   5.091  11.775  12.938
81603SOL     OW46705   3.945  12.888  11.699
81603SOL    HW146706   3.942  12.938  11.781
81603SOL    HW246707   4.009  12.935  11.645
81604SOL     OW46708   3.622  12.923  14.585
81604SOL    HW146709   3.657  12.852  14.532
81604SOL    HW246710   3.592  12.988  14.522
81605SOL     OW46711   6.405   9.612   4.433
81605SOL    HW146712   6.478   9.635   4.490
81605SOL    HW246713   6.443   9.610   4.345
81606SOL     OW46714  12.917  14.732  13.229
81606SOL    HW146715  12.829  14.762  13.249
81606SOL    HW246716  12.906  14.641  13.202
81607SOL     OW46717   8.740   5.731   6.694
81607SOL    HW146718   8.822   5.779   6.702
81607SOL    HW246719   8.683   5.770   6.761
81608SOL     OW46720   4.579   2.086   2.136
81608SOL    HW146721   4.603   2.152   2.071
81608SOL    HW246722   4.648   2.090   2.202
81609SOL     OW46723   7.413   1.094   1.803
81609SOL    HW146724   7.322   1.116   1.822
81609SOL    HW246725   7.464   1.164   1.843
81610SOL     OW46726   2.224   2.288   7.904
81610SOL    HW146727   2.204   2.326   7.818
81610SOL    HW246728   2.248   2.362   7.959
81611SOL     OW46729   6.242  14.707   9.069
81611SOL    HW146730   6.197  14.624   9.056
81611SOL    HW246731   6.240  14.721   9.164
81612SOL     OW46732  13.080   1.037   7.064
81612SOL    HW146733  13.072   1.133   7.060
81612SOL    HW246734  13.119   1.013   6.980
81613SOL     OW46735   8.190   8.416   5.398
81613SOL    HW146736   8.122   8.445   5.338
81613SOL    HW246737   8.176   8.467   5.477
81614SOL     OW46738  12.381   2.262   6.245
81614SOL    HW146739  12.366   2.223   6.158
81614SOL    HW246740  12.347   2.196   6.306
81615SOL     OW46741   0.685   2.450  11.514
81615SOL    HW146742   0.728   2.442  11.429
81615SOL    HW246743   0.735   2.391  11.571
81616SOL     OW46744   6.886   8.701   8.108
81616SOL    HW146745   6.928   8.778   8.145
81616SOL    HW246746   6.835   8.733   8.034
81617SOL     OW46747   1.984   5.371   0.079
81617SOL    HW146748   2.028   5.292   0.047
81617SOL    HW246749   1.973   5.426   0.001
81618SOL     OW46750   7.817  10.481   5.884
81618SOL    HW146751   7.734  10.449   5.849
81618SOL    HW246752   7.830  10.565   5.842
81619SOL     OW46753   7.883   1.977   6.975
81619SOL    HW146754   7.872   1.983   6.880
81619SOL    HW246755   7.802   2.012   7.011
81620SOL     OW46756   2.506   9.849  14.497
81620SOL    HW146757   2.457   9.931  14.503
81620SOL    HW246758   2.458   9.798  14.432
81621SOL     OW46759   7.954  12.448  12.268
81621SOL    HW146760   8.011  12.460  12.192
81621SOL    HW246761   7.979  12.518  12.329
81622SOL     OW46762   9.964   7.314   5.251
81622SOL    HW146763   9.934   7.236   5.205
81622SOL    HW246764  10.060   7.310   5.246
81623SOL     OW46765   2.604   3.436   6.883
81623SOL    HW146766   2.555   3.489   6.946
81623SOL    HW246767   2.582   3.473   6.797
81624SOL     OW46768   2.003   6.340   9.656
81624SOL    HW146769   1.961   6.401   9.595
81624SOL    HW246770   2.028   6.394   9.731
81625SOL     OW46771   3.549  14.631   4.663
81625SOL    HW146772   3.633  14.598   4.695
81625SOL    HW246773   3.510  14.673   4.739
81626SOL     OW46774   7.820  14.355  12.607
81626SOL    HW146775   7.838  14.413  12.681
81626SOL    HW246776   7.837  14.409  12.530
81627SOL     OW46777   5.045   0.719  12.607
81627SOL    HW146778   5.087   0.691  12.525
81627SOL    HW246779   4.971   0.659  12.617
81628SOL     OW46780   8.789   6.967  13.545
81628SOL    HW146781   8.810   6.990  13.455
81628SOL    HW246782   8.785   6.871  13.545
81629SOL     OW46783   8.789   3.297   5.493
81629SOL    HW146784   8.853   3.310   5.423
81629SOL    HW246785   8.768   3.385   5.523
81630SOL     OW46786  14.085   8.410  14.753
81630SOL    HW146787  14.157   8.404  14.690
81630SOL    HW246788  14.017   8.353  14.718
81631SOL     OW46789   7.504  10.574   0.885
81631SOL    HW146790   7.571  10.635   0.916
81631SOL    HW246791   7.551  10.491   0.876
81632SOL     OW46792  10.870   2.694  14.825
81632SOL    HW146793  10.896   2.688   0.037
81632SOL    HW246794  10.942   2.742  14.784
81633SOL     OW46795   6.189   2.228   3.045
81633SOL    HW146796   6.275   2.225   3.086
81633SOL    HW246797   6.148   2.307   3.082
81634SOL     OW46798   3.618  10.545  11.105
81634SOL    HW146799   3.538  10.552  11.156
81634SOL    HW246800   3.603  10.470  11.047
81635SOL     OW46801   8.961   5.550   9.960
81635SOL    HW146802   8.866   5.535   9.958
81635SOL    HW246803   8.972   5.640   9.932
81636SOL     OW46804  14.285  12.097  12.087
81636SOL    HW146805  14.230  12.163  12.129
81636SOL    HW246806  14.315  12.041  12.159
81637SOL     OW46807   1.525  13.547   0.259
81637SOL    HW146808   1.442  13.585   0.229
81637SOL    HW246809   1.523  13.457   0.226
81638SOL     OW46810   9.850   0.289   5.840
81638SOL    HW146811   9.827   0.200   5.867
81638SOL    HW246812   9.908   0.277   5.764
81639SOL     OW46813  12.170   3.656   1.858
81639SOL    HW146814  12.121   3.586   1.814
81639SOL    HW246815  12.254   3.659   1.812
81640SOL     OW46816  11.084  11.238   2.767
81640SOL    HW146817  11.035  11.206   2.691
81640SOL    HW246818  11.172  11.256   2.732
81641SOL     OW46819   6.986  12.669  13.033
81641SOL    HW146820   7.015  12.667  13.124
81641SOL    HW246821   6.894  12.641  13.036
81642SOL     OW46822   9.828   5.109  13.784
81642SOL    HW146823   9.749   5.157  13.811
81642SOL    HW246824   9.879   5.174  13.735
81643SOL     OW46825   5.513   8.696   6.185
81643SOL    HW146826   5.517   8.633   6.257
81643SOL    HW246827   5.598   8.688   6.142
81644SOL     OW46828  11.907   6.366   4.706
81644SOL    HW146829  11.944   6.280   4.686
81644SOL    HW246830  11.814   6.348   4.724
81645SOL     OW46831   8.481   0.940  13.225
81645SOL    HW146832   8.423   0.967  13.154
81645SOL    HW246833   8.562   0.915  13.181
81646SOL     OW46834   2.600   5.947   0.757
81646SOL    HW146835   2.683   5.971   0.716
81646SOL    HW246836   2.534   5.989   0.702
81647SOL     OW46837   4.084   0.417   1.004
81647SOL    HW146838   4.006   0.466   0.976
81647SOL    HW246839   4.076   0.333   0.959
81648SOL     OW46840  10.235  11.012   7.792
81648SOL    HW146841  10.160  11.036   7.738
81648SOL    HW246842  10.311  11.040   7.740
81649SOL     OW46843   1.649   2.979  14.522
81649SOL    HW146844   1.719   2.947  14.579
81649SOL    HW246845   1.622   2.903  14.471
81650SOL     OW46846  11.753   1.403  13.246
81650SOL    HW146847  11.839   1.402  13.287
81650SOL    HW246848  11.692   1.390  13.319
81651SOL     OW46849  14.629   0.212   0.600
81651SOL    HW146850  14.594   0.135   0.644
81651SOL    HW246851  14.575   0.222   0.522
81652SOL     OW46852  10.242   8.496  10.977
81652SOL    HW146853  10.272   8.451  10.898
81652SOL    HW246854  10.160   8.452  11.000
81653SOL     OW46855   7.178   6.033  13.648
81653SOL    HW146856   7.179   5.977  13.570
81653SOL    HW246857   7.186   6.122  13.613
81654SOL     OW46858  13.939   2.545  13.544
81654SOL    HW146859  13.847   2.554  13.519
81654SOL    HW246860  13.948   2.604  13.619
81655SOL     OW46861   1.517  14.114  11.745
81655SOL    HW146862   1.496  14.202  11.714
81655SOL    HW246863   1.552  14.069  11.668
81656SOL     OW46864   0.144   2.898   1.755
81656SOL    HW146865   0.146   2.805   1.733
81656SOL    HW246866   0.177   2.903   1.844
81657SOL     OW46867  13.524  13.867  12.902
81657SOL    HW146868  13.529  13.774  12.926
81657SOL    HW246869  13.615  13.892  12.889
81658SOL     OW46870   2.617   9.310   4.428
81658SOL    HW146871   2.619   9.372   4.501
81658SOL    HW246872   2.708   9.302   4.401
81659SOL     OW46873   2.619   3.663   5.937
81659SOL    HW146874   2.597   3.582   5.983
81659SOL    HW246875   2.710   3.652   5.910
81660SOL     OW46876  10.084   6.864  12.540
81660SOL    HW146877  10.162   6.918  12.551
81660SOL    HW246878  10.034   6.877  12.621
81661SOL     OW46879  10.125   4.841   5.594
81661SOL    HW146880  10.102   4.749   5.609
81661SOL    HW246881  10.044   4.880   5.561
81662SOL     OW46882   8.259   9.774   3.051
81662SOL    HW146883   8.245   9.702   3.112
81662SOL    HW246884   8.350   9.765   3.023
81663SOL     OW46885   8.588  11.180   7.594
81663SOL    HW146886   8.611  11.088   7.601
81663SOL    HW246887   8.562  11.192   7.503
81664SOL     OW46888  14.661  10.252  10.414
81664SOL    HW146889  14.652  10.171  10.364
81664SOL    HW246890  14.571  10.276  10.437
81665SOL     OW46891   6.323   0.813   4.136
81665SOL    HW146892   6.332   0.756   4.059
81665SOL    HW246893   6.399   0.870   4.133
81666SOL     OW46894  12.403   0.003   0.383
81666SOL    HW146895  12.358   0.079   0.345
81666SOL    HW246896  12.461   0.039   0.450
81667SOL     OW46897  14.108   4.262   5.852
81667SOL    HW146898  14.173   4.192   5.847
81667SOL    HW246899  14.060   4.244   5.933
81668SOL     OW46900  13.707  11.555   2.208
81668SOL    HW146901  13.724  11.607   2.286
81668SOL    HW246902  13.790  11.553   2.162
81669SOL     OW46903   3.828   4.523   9.934
81669SOL    HW146904   3.759   4.564   9.882
81669SOL    HW246905   3.819   4.561  10.021
81670SOL     OW46906  14.315   6.604   3.091
81670SOL    HW146907  14.316   6.511   3.066
81670SOL    HW246908  14.283   6.605   3.181
81671SOL     OW46909   0.278   1.207   9.990
81671SOL    HW146910   0.277   1.180  10.082
81671SOL    HW246911   0.370   1.202   9.964
81672SOL     OW46912   2.874   1.691   1.797
81672SOL    HW146913   2.965   1.713   1.777
81672SOL    HW246914   2.861   1.605   1.758
81673SOL     OW46915   8.221   0.849   0.129
81673SOL    HW146916   8.291   0.821   0.069
81673SOL    HW246917   8.206   0.772   0.185
81674SOL     OW46918  14.362   1.383   4.709
81674SOL    HW146919  14.349   1.385   4.804
81674SOL    HW246920  14.330   1.297   4.682
81675SOL     OW46921   8.123  10.283  14.294
81675SOL    HW146922   8.150  10.306  14.206
81675SOL    HW246923   8.049  10.223  14.282
81676SOL     OW46924   0.387  10.832   2.733
81676SOL    HW146925   0.351  10.860   2.649
81676SOL    HW246926   0.448  10.902   2.758
81677SOL     OW46927   2.298  12.042  11.561
81677SOL    HW146928   2.296  11.983  11.485
81677SOL    HW246929   2.363  12.002  11.620
81678SOL     OW46930  11.557   7.734  10.019
81678SOL    HW146931  11.610   7.717   9.941
81678SOL    HW246932  11.611   7.703  10.092
81679SOL     OW46933   0.088   3.189   7.554
81679SOL    HW146934   0.156   3.206   7.620
81679SOL    HW246935   0.135   3.184   7.471
81680SOL     OW46936   9.811   2.242   6.473
81680SOL    HW146937   9.759   2.290   6.408
81680SOL    HW246938   9.852   2.311   6.526
81681SOL     OW46939  10.624   8.842  14.155
81681SOL    HW146940  10.557   8.774  14.169
81681SOL    HW246941  10.644   8.837  14.062
81682SOL     OW46942   1.424  13.119   3.114
81682SOL    HW146943   1.502  13.155   3.157
81682SOL    HW246944   1.389  13.193   3.064
81683SOL     OW46945   4.076   2.842   5.336
81683SOL    HW146946   3.993   2.797   5.318
81683SOL    HW246947   4.143   2.777   5.317
81684SOL     OW46948   2.952  13.240  14.306
81684SOL    HW146949   2.858  13.223  14.305
81684SOL    HW246950   2.961  13.326  14.266
81685SOL     OW46951   4.504  11.445   1.065
81685SOL    HW146952   4.445  11.371   1.050
81685SOL    HW246953   4.471  11.514   1.008
81686SOL     OW46954   6.544   0.712   6.050
81686SOL    HW146955   6.581   0.625   6.037
81686SOL    HW246956   6.452   0.703   6.025
81687SOL     OW46957   8.773  13.007   1.323
81687SOL    HW146958   8.821  13.031   1.403
81687SOL    HW246959   8.689  12.974   1.355
81688SOL     OW46960   6.709   0.543  11.420
81688SOL    HW146961   6.780   0.549  11.356
81688SOL    HW246962   6.722   0.617  11.478
81689SOL     OW46963  10.154  11.924  14.715
81689SOL    HW146964  10.161  11.940  14.620
81689SOL    HW246965  10.175  12.008  14.755
81690SOL     OW46966   3.373  12.462   2.537
81690SOL    HW146967   3.291  12.488   2.494
81690SOL    HW246968   3.362  12.369   2.556
81691SOL     OW46969  11.732   4.402   2.297
81691SOL    HW146970  11.798   4.333   2.292
81691SOL    HW246971  11.782   4.483   2.308
81692SOL     OW46972  10.899   8.144   4.629
81692SOL    HW146973  10.880   8.162   4.721
81692SOL    HW246974  10.994   8.132   4.626
81693SOL     OW46975   6.188   6.796  12.922
81693SOL    HW146976   6.198   6.717  12.869
81693SOL    HW246977   6.262   6.794  12.982
81694SOL     OW46978   7.681  12.860  13.912
81694SOL    HW146979   7.634  12.926  13.962
81694SOL    HW246980   7.614  12.799  13.882
81695SOL     OW46981  14.549  13.111   7.765
81695SOL    HW146982  14.599  13.111   7.683
81695SOL    HW246983  14.481  13.045   7.752
81696SOL     OW46984  10.569   8.831   8.603
81696SOL    HW146985  10.524   8.757   8.562
81696SOL    HW246986  10.653   8.796   8.632
81697SOL     OW46987  14.720   0.530  11.597
81697SOL    HW146988  14.724   0.535  11.692
81697SOL    HW246989  14.810   0.549  11.568
81698SOL     OW46990   0.010   4.255   1.845
81698SOL    HW146991  14.801   4.225   1.860
81698SOL    HW246992   0.002   4.322   1.777
81699SOL     OW46993   1.775   0.238  12.853
81699SOL    HW146994   1.775   0.283  12.769
81699SOL    HW246995   1.754   0.306  12.917
81700SOL     OW46996  12.641   6.728   2.549
81700SOL    HW146997  12.708   6.676   2.504
81700SOL    HW246998  12.601   6.667   2.611
81701SOL     OW46999   8.929   2.506  10.515
81701SOL    HW147000   8.974   2.509  10.600
81701SOL    HW247001   8.843   2.469  10.535
81702SOL     OW47002  14.832   5.668   9.775
81702SOL    HW147003  14.806   5.631   9.859
81702SOL    HW247004  14.772   5.630   9.712
81703SOL     OW47005   1.888   2.416  12.962
81703SOL    HW147006   1.844   2.399  12.879
81703SOL    HW247007   1.817   2.430  13.025
81704SOL     OW47008   2.815   2.247   1.931
81704SOL    HW147009   2.756   2.289   1.994
81704SOL    HW247010   2.836   2.316   1.868
81705SOL     OW47011   2.485  11.325   7.870
81705SOL    HW147012   2.504  11.281   7.787
81705SOL    HW247013   2.454  11.412   7.844
81706SOL     OW47014  11.121  11.978   6.904
81706SOL    HW147015  11.047  11.981   6.843
81706SOL    HW247016  11.097  12.039   6.974
81707SOL     OW47017   1.382  14.222  10.622
81707SOL    HW147018   1.374  14.194  10.713
81707SOL    HW247019   1.463  14.274  10.621
81708SOL     OW47020   1.740   7.388   6.561
81708SOL    HW147021   1.719   7.321   6.626
81708SOL    HW247022   1.680   7.460   6.581
81709SOL     OW47023   1.910   2.921  13.799
81709SOL    HW147024   1.827   2.916  13.846
81709SOL    HW247025   1.896   2.988  13.731
81710SOL     OW47026   4.418  10.967  12.960
81710SOL    HW147027   4.331  11.004  12.978
81710SOL    HW247028   4.437  10.993  12.869
81711SOL     OW47029   5.340   6.602   8.628
81711SOL    HW147030   5.281   6.539   8.670
81711SOL    HW247031   5.304   6.613   8.540
81712SOL     OW47032   4.374   8.679   1.776
81712SOL    HW147033   4.312   8.695   1.847
81712SOL    HW247034   4.323   8.689   1.696
81713SOL     OW47035  11.904   5.112  12.612
81713SOL    HW147036  11.857   5.115  12.695
81713SOL    HW247037  11.899   5.020  12.585
81714SOL     OW47038   0.769   1.174  13.438
81714SOL    HW147039   0.822   1.246  13.471
81714SOL    HW247040   0.759   1.192  13.344
81715SOL     OW47041  13.640  10.114   5.897
81715SOL    HW147042  13.620  10.207   5.894
81715SOL    HW247043  13.599  10.078   5.818
81716SOL     OW47044   8.997   3.390   2.306
81716SOL    HW147045   9.030   3.468   2.261
81716SOL    HW247046   9.022   3.402   2.398
81717SOL     OW47047   9.049  11.444   6.007
81717SOL    HW147048   9.113  11.482   6.066
81717SOL    HW247049   8.968  11.442   6.057
81718SOL     OW47050   0.065   7.053   9.732
81718SOL    HW147051  14.849   7.056   9.737
81718SOL    HW247052   0.094   7.133   9.775
81719SOL     OW47053   1.950  14.039   9.022
81719SOL    HW147054   1.936  14.029   9.116
81719SOL    HW247055   1.882  13.986   8.982
81720SOL     OW47056  11.918   9.238   9.731
81720SOL    HW147057  11.990   9.189   9.692
81720SOL    HW247058  11.843   9.179   9.727
81721SOL     OW47059   6.527   7.782   0.377
81721SOL    HW147060   6.588   7.851   0.351
81721SOL    HW247061   6.440   7.817   0.355
81722SOL     OW47062  12.044   5.700  11.380
81722SOL    HW147063  11.967   5.757  11.378
81722SOL    HW247064  12.009   5.612  11.372
81723SOL     OW47065  12.286  12.591   7.105
81723SOL    HW147066  12.340  12.665   7.132
81723SOL    HW247067  12.326  12.560   7.024
81724SOL     OW47068  10.621  14.431   4.080
81724SOL    HW147069  10.621  14.448   4.174
81724SOL    HW247070  10.528  14.418   4.058
81725SOL     OW47071  13.502  11.290   1.583
81725SOL    HW147072  13.535  11.308   1.671
81725SOL    HW247073  13.581  11.273   1.531
81726SOL     OW47074  10.437  10.722   3.330
81726SOL    HW147075  10.423  10.643   3.382
81726SOL    HW247076  10.359  10.729   3.275
81727SOL     OW47077  11.517   1.302   9.985
81727SOL    HW147078  11.529   1.335  10.075
81727SOL    HW247079  11.488   1.212   9.997
81728SOL     OW47080  14.232   6.600   1.625
81728SOL    HW147081  14.151   6.590   1.576
81728SOL    HW247082  14.302   6.587   1.560
81729SOL     OW47083   6.050  11.075   4.522
81729SOL    HW147084   5.975  11.022   4.494
81729SOL    HW247085   6.016  11.164   4.524
81730SOL     OW47086  10.760   0.288   3.918
81730SOL    HW147087  10.687   0.315   3.974
81730SOL    HW247088  10.790   0.370   3.877
81731SOL     OW47089  12.907   8.280  13.153
81731SOL    HW147090  12.938   8.338  13.084
81731SOL    HW247091  12.963   8.203  13.148
81732SOL     OW47092   6.219  11.468   2.300
81732SOL    HW147093   6.267  11.389   2.276
81732SOL    HW247094   6.286  11.534   2.318
81733SOL     OW47095  12.229   5.573   9.865
81733SOL    HW147096  12.295   5.554   9.798
81733SOL    HW247097  12.200   5.486   9.894
81734SOL     OW47098   6.813   2.088   9.176
81734SOL    HW147099   6.806   2.179   9.202
81734SOL    HW247100   6.878   2.051   9.236
81735SOL     OW47101   9.597   3.865  12.210
81735SOL    HW147102   9.511   3.867  12.167
81735SOL    HW247103   9.660   3.852  12.140
81736SOL     OW47104   6.825  10.724   8.210
81736SOL    HW147105   6.887  10.741   8.139
81736SOL    HW247106   6.840  10.795   8.273
81737SOL     OW47107   2.574   7.229  12.788
81737SOL    HW147108   2.667   7.226  12.812
81737SOL    HW247109   2.554   7.140  12.758
81738SOL     OW47110  12.295  10.176   7.229
81738SOL    HW147111  12.224  10.240   7.227
81738SOL    HW247112  12.374  10.229   7.241
81739SOL     OW47113   0.378   9.477   0.520
81739SOL    HW147114   0.395   9.442   0.608
81739SOL    HW247115   0.304   9.537   0.533
81740SOL     OW47116   5.713   3.687   6.500
81740SOL    HW147117   5.682   3.654   6.584
81740SOL    HW247118   5.793   3.736   6.521
81741SOL     OW47119  14.093   9.172   9.849
81741SOL    HW147120  14.032   9.115   9.802
81741SOL    HW247121  14.056   9.260   9.837
81742SOL     OW47122  11.266  11.930   9.468
81742SOL    HW147123  11.333  11.921   9.400
81742SOL    HW247124  11.259  11.843   9.508
81743SOL     OW47125   6.199  10.552   5.989
81743SOL    HW147126   6.213  10.517   6.077
81743SOL    HW247127   6.198  10.474   5.933
81744SOL     OW47128  13.733   0.106   2.830
81744SOL    HW147129  13.682   0.100   2.749
81744SOL    HW247130  13.824   0.098   2.802
81745SOL     OW47131   5.263   3.470  14.279
81745SOL    HW147132   5.183   3.509  14.243
81745SOL    HW247133   5.305   3.429  14.204
81746SOL     OW47134   6.538  10.887   8.089
81746SOL    HW147135   6.580  10.938   8.020
81746SOL    HW247136   6.531  10.799   8.052
81747SOL     OW47137   4.561  14.768  14.695
81747SOL    HW147138   4.618  14.724  14.758
81747SOL    HW247139   4.596  14.856  14.688
81748SOL     OW47140  12.078   0.251   2.258
81748SOL    HW147141  12.091   0.298   2.176
81748SOL    HW247142  12.018   0.180   2.236
81749SOL     OW47143   3.271   1.920  10.534
81749SOL    HW147144   3.340   1.909  10.599
81749SOL    HW247145   3.241   1.831  10.515
81750SOL     OW47146  14.604  13.271  10.419
81750SOL    HW147147  14.637  13.194  10.372
81750SOL    HW247148  14.612  13.247  10.511
81751SOL     OW47149   9.487  12.462   2.895
81751SOL    HW147150   9.477  12.547   2.937
81751SOL    HW247151   9.458  12.399   2.961
81752SOL     OW47152  13.330  14.744  11.469
81752SOL    HW147153  13.333  14.838  11.490
81752SOL    HW247154  13.314  14.701  11.553
81753SOL     OW47155   4.500   3.507  13.417
81753SOL    HW147156   4.592   3.532  13.428
81753SOL    HW247157   4.478   3.532  13.327
81754SOL     OW47158  12.759   0.318   4.354
81754SOL    HW147159  12.738   0.260   4.280
81754SOL    HW247160  12.828   0.273   4.401
81755SOL     OW47161   8.473   2.209   8.201
81755SOL    HW147162   8.460   2.286   8.147
81755SOL    HW247163   8.546   2.232   8.259
81756SOL     OW47164   6.144   7.193   8.686
81756SOL    HW147165   6.061   7.162   8.722
81756SOL    HW247166   6.148   7.154   8.598
81757SOL     OW47167  14.782   9.928   1.277
81757SOL    HW147168  14.830  10.004   1.242
81757SOL    HW247169  14.848   9.859   1.282
81758SOL     OW47170   6.447   0.830   3.320
81758SOL    HW147171   6.508   0.785   3.262
81758SOL    HW247172   6.437   0.770   3.395
81759SOL     OW47173  14.448  11.199   4.277
81759SOL    HW147174  14.393  11.276   4.262
81759SOL    HW247175  14.446  11.187   4.372
81760SOL     OW47176   7.763   8.335  13.275
81760SOL    HW147177   7.724   8.421  13.263
81760SOL    HW247178   7.790   8.309  13.187
81761SOL     OW47179   5.551  11.438  11.066
81761SOL    HW147180   5.569  11.497  10.993
81761SOL    HW247181   5.561  11.493  11.144
81762SOL     OW47182   5.846   3.932  14.061
81762SOL    HW147183   5.834   3.976  13.977
81762SOL    HW247184   5.805   3.990  14.125
81763SOL     OW47185  12.434   1.866   0.341
81763SOL    HW147186  12.515   1.917   0.335
81763SOL    HW247187  12.365   1.931   0.350
81764SOL     OW47188   3.312   1.018   6.730
81764SOL    HW147189   3.392   1.047   6.774
81764SOL    HW247190   3.241   1.045   6.789
81765SOL     OW47191  11.795   9.911   6.900
81765SOL    HW147192  11.812   9.997   6.863
81765SOL    HW247193  11.784   9.926   6.994
81766SOL     OW47194  12.775   8.928   9.480
81766SOL    HW147195  12.820   8.925   9.565
81766SOL    HW247196  12.705   8.863   9.488
81767SOL     OW47197   0.320   7.787   8.813
81767SOL    HW147198   0.283   7.814   8.729
81767SOL    HW247199   0.340   7.694   8.802
81768SOL     OW47200   0.538   1.351   3.527
81768SOL    HW147201   0.559   1.283   3.591
81768SOL    HW247202   0.476   1.409   3.573
81769SOL     OW47203   7.265  12.944   5.355
81769SOL    HW147204   7.324  12.985   5.418
81769SOL    HW247205   7.179  12.981   5.376
81770SOL     OW47206  14.466   8.889   9.443
81770SOL    HW147207  14.552   8.931   9.433
81770SOL    HW247208  14.483   8.813   9.499
81771SOL     OW47209  13.481  11.568  14.729
81771SOL    HW147210  13.430  11.644  14.757
81771SOL    HW247211  13.565  11.605  14.700
81772SOL     OW47212   9.428   4.705   6.155
81772SOL    HW147213   9.506   4.737   6.110
81772SOL    HW247214   9.389   4.642   6.094
81773SOL     OW47215   4.510   2.465   8.231
81773SOL    HW147216   4.595   2.421   8.231
81773SOL    HW247217   4.474   2.446   8.318
81774SOL     OW47218   4.531  13.624  13.994
81774SOL    HW147219   4.610  13.579  14.022
81774SOL    HW247220   4.464  13.598  14.057
81775SOL     OW47221   2.720   6.970   8.337
81775SOL    HW147222   2.677   6.899   8.289
81775SOL    HW247223   2.812   6.961   8.314
81776SOL     OW47224   7.606   3.988   4.058
81776SOL    HW147225   7.610   4.058   3.993
81776SOL    HW247226   7.532   3.934   4.030
81777SOL     OW47227  12.987   5.904   2.016
81777SOL    HW147228  12.986   5.999   2.026
81777SOL    HW247229  12.895   5.878   2.026
81778SOL     OW47230   7.937  12.400   5.983
81778SOL    HW147231   8.002  12.395   6.052
81778SOL    HW247232   7.921  12.494   5.971
81779SOL     OW47233   4.887  11.532  12.780
81779SOL    HW147234   4.960  11.580  12.819
81779SOL    HW247235   4.825  11.600  12.753
81780SOL     OW47236   9.890  13.100   6.014
81780SOL    HW147237   9.903  13.184   6.059
81780SOL    HW247238   9.976  13.058   6.015
81781SOL     OW47239   8.084   8.106   0.285
81781SOL    HW147240   8.044   8.067   0.362
81781SOL    HW247241   8.144   8.039   0.253
81782SOL     OW47242  13.224   4.690   2.009
81782SOL    HW147243  13.159   4.731   1.953
81782SOL    HW247244  13.214   4.732   2.094
81783SOL     OW47245   9.488   2.586   0.332
81783SOL    HW147246   9.438   2.663   0.358
81783SOL    HW247247   9.469   2.521   0.400
81784SOL     OW47248   3.629   4.218   9.585
81784SOL    HW147249   3.670   4.188   9.504
81784SOL    HW247250   3.659   4.308   9.595
81785SOL     OW47251   4.476   8.050   4.250
81785SOL    HW147252   4.482   8.115   4.320
81785SOL    HW247253   4.568   8.030   4.230
81786SOL     OW47254  13.912   1.926   7.115
81786SOL    HW147255  13.864   1.857   7.070
81786SOL    HW247256  14.004   1.904   7.103
81787SOL     OW47257  13.410  11.611   8.646
81787SOL    HW147258  13.336  11.617   8.585
81787SOL    HW247259  13.472  11.552   8.603
81788SOL     OW47260  12.805  12.592   8.082
81788SOL    HW147261  12.835  12.542   8.006
81788SOL    HW247262  12.716  12.619   8.059
81789SOL     OW47263   4.463   2.601  11.733
81789SOL    HW147264   4.474   2.696  11.728
81789SOL    HW247265   4.456   2.573  11.642
81790SOL     OW47266   0.765   6.030  11.330
81790SOL    HW147267   0.851   6.063  11.304
81790SOL    HW247268   0.778   5.937  11.346
81791SOL     OW47269  14.489   8.585  11.644
81791SOL    HW147270  14.437   8.625  11.714
81791SOL    HW247271  14.564   8.547  11.688
81792SOL     OW47272   3.586   8.400   6.053
81792SOL    HW147273   3.523   8.471   6.053
81792SOL    HW247274   3.631   8.408   6.137
81793SOL     OW47275  14.684   2.477   3.509
81793SOL    HW147276  14.780   2.485   3.502
81793SOL    HW247277  14.651   2.512   3.426
81794SOL     OW47278  12.659   0.815   4.138
81794SOL    HW147279  12.671   0.838   4.046
81794SOL    HW247280  12.702   0.886   4.186
81795SOL     OW47281  14.773   9.243   0.943
81795SOL    HW147282  14.847   9.295   0.910
81795SOL    HW247283  14.785   9.243   1.038
81796SOL     OW47284  13.148   8.825   4.983
81796SOL    HW147285  13.055   8.803   4.992
81796SOL    HW247286  13.172   8.791   4.897
81797SOL     OW47287   1.714  10.051  13.072
81797SOL    HW147288   1.701  10.033  13.165
81797SOL    HW247289   1.688  10.142  13.062
81798SOL     OW47290   8.789   6.580   3.410
81798SOL    HW147291   8.729   6.514   3.377
81798SOL    HW247292   8.802   6.556   3.502
81799SOL     OW47293   9.668  10.358  13.956
81799SOL    HW147294   9.689  10.449  13.934
81799SOL    HW247295   9.695  10.308  13.879
81800SOL     OW47296   9.616   7.104   4.843
81800SOL    HW147297   9.542   7.105   4.783
81800SOL    HW247298   9.636   7.011   4.854
81801SOL     OW47299   7.935   6.048   0.813
81801SOL    HW147300   7.935   6.088   0.726
81801SOL    HW247301   8.002   5.980   0.808
81802SOL     OW47302  11.086   4.879   4.459
81802SOL    HW147303  11.177   4.903   4.479
81802SOL    HW247304  11.059   4.944   4.394
81803SOL     OW47305   1.135   0.988  13.977
81803SOL    HW147306   1.125   0.904  14.021
81803SOL    HW247307   1.128   1.053  14.047
81804SOL     OW47308   9.860   5.839   7.782
81804SOL    HW147309   9.832   5.802   7.866
81804SOL    HW247310   9.853   5.766   7.720
81805SOL     OW47311   0.513   1.934   2.015
81805SOL    HW147312   0.467   1.931   2.098
81805SOL    HW247313   0.510   1.844   1.982
81806SOL     OW47314   3.315  10.363   0.578
81806SOL    HW147315   3.381  10.363   0.648
81806SOL    HW247316   3.326  10.448   0.535
81807SOL     OW47317  12.937   2.884  12.124
81807SOL    HW147318  12.931   2.978  12.111
81807SOL    HW247319  12.849   2.851  12.103
81808SOL     OW47320   2.022   7.252  13.254
81808SOL    HW147321   2.072   7.321  13.211
81808SOL    HW247322   2.021   7.180  13.191
81809SOL     OW47323   7.508   9.875   5.294
81809SOL    HW147324   7.579   9.818   5.325
81809SOL    HW247325   7.461   9.900   5.374
81810SOL     OW47326   8.885  13.365   3.559
81810SOL    HW147327   8.974  13.379   3.592
81810SOL    HW247328   8.830  13.364   3.638
81811SOL     OW47329   7.780  13.853   8.364
81811SOL    HW147330   7.846  13.852   8.434
81811SOL    HW247331   7.714  13.914   8.394
81812SOL     OW47332   0.484  12.412   1.960
81812SOL    HW147333   0.457  12.392   2.050
81812SOL    HW247334   0.445  12.342   1.907
81813SOL     OW47335  12.743  14.363   6.695
81813SOL    HW147336  12.744  14.269   6.680
81813SOL    HW247337  12.771  14.401   6.612
81814SOL     OW47338  10.448  11.827   3.028
81814SOL    HW147339  10.537  11.854   3.051
81814SOL    HW247340  10.456  11.791   2.940
81815SOL     OW47341   4.917   8.514   9.302
81815SOL    HW147342   4.963   8.470   9.374
81815SOL    HW247343   4.852   8.450   9.272
81816SOL     OW47344   6.646   9.683  12.219
81816SOL    HW147345   6.700   9.727  12.154
81816SOL    HW247346   6.567   9.657  12.171
81817SOL     OW47347  12.804  11.395   9.670
81817SOL    HW147348  12.781  11.449   9.593
81817SOL    HW247349  12.727  11.401   9.727
81818SOL     OW47350   5.228   8.717   2.981
81818SOL    HW147351   5.262   8.804   3.001
81818SOL    HW247352   5.295   8.677   2.925
81819SOL     OW47353  12.064  14.572  12.911
81819SOL    HW147354  12.073  14.490  12.961
81819SOL    HW247355  12.123  14.561  12.837
81820SOL     OW47356   1.014   6.116  11.263
81820SOL    HW147357   1.060   6.073  11.191
81820SOL    HW247358   1.032   6.209  11.251
81821SOL     OW47359  13.405  10.912  11.094
81821SOL    HW147360  13.374  10.974  11.161
81821SOL    HW247361  13.437  10.837  11.143
81822SOL     OW47362   2.050   2.606   5.379
81822SOL    HW147363   2.124   2.545   5.377
81822SOL    HW247364   1.979   2.554   5.416
81823SOL     OW47365   2.803  14.431   8.860
81823SOL    HW147366   2.769  14.350   8.822
81823SOL    HW247367   2.890  14.408   8.892
81824SOL     OW47368   8.496  13.634  13.406
81824SOL    HW147369   8.505  13.561  13.468
81824SOL    HW247370   8.586  13.653  13.379
81825SOL     OW47371   6.675   8.902  11.445
81825SOL    HW147372   6.739   8.832  11.433
81825SOL    HW247373   6.628   8.878  11.525
81826SOL     OW47374   5.627   2.812   3.021
81826SOL    HW147375   5.655   2.793   2.932
81826SOL    HW247376   5.677   2.750   3.075
81827SOL     OW47377  11.891   0.745   4.653
81827SOL    HW147378  11.846   0.734   4.737
81827SOL    HW247379  11.875   0.663   4.606
81828SOL     OW47380  14.192   3.015   9.055
81828SOL    HW147381  14.124   3.083   9.050
81828SOL    HW247382  14.209   3.005   9.149
81829SOL     OW47383   5.110   2.165   6.923
81829SOL    HW147384   5.085   2.074   6.908
81829SOL    HW247385   5.178   2.160   6.990
81830SOL     OW47386   6.859   1.338   2.671
81830SOL    HW147387   6.875   1.385   2.589
81830SOL    HW247388   6.799   1.395   2.720
81831SOL     OW47389  12.639  11.249   7.479
81831SOL    HW147390  12.600  11.301   7.549
81831SOL    HW247391  12.664  11.313   7.412
81832SOL     OW47392   3.103  10.705   0.368
81832SOL    HW147393   3.194  10.693   0.395
81832SOL    HW247394   3.108  10.719   0.274
81833SOL     OW47395   9.912  13.570   8.485
81833SOL    HW147396   9.930  13.490   8.434
81833SOL    HW247397   9.831  13.604   8.447
81834SOL     OW47398   4.875   5.147   1.048
81834SOL    HW147399   4.916   5.187   1.125
81834SOL    HW247400   4.889   5.211   0.978
81835SOL     OW47401  13.862  13.779   6.691
81835SOL    HW147402  13.819  13.862   6.712
81835SOL    HW247403  13.953  13.802   6.675
81836SOL     OW47404   1.087   2.344   8.606
81836SOL    HW147405   1.059   2.262   8.647
81836SOL    HW247406   1.075   2.329   8.512
81837SOL     OW47407   7.095  13.502   8.071
81837SOL    HW147408   7.000  13.497   8.078
81837SOL    HW247409   7.111  13.534   7.982
81838SOL     OW47410   1.511   2.620   6.568
81838SOL    HW147411   1.537   2.675   6.494
81838SOL    HW247412   1.589   2.615   6.623
81839SOL     OW47413  11.647   9.973   1.947
81839SOL    HW147414  11.627  10.065   1.926
81839SOL    HW247415  11.672   9.934   1.864
81840SOL     OW47416   4.980   6.710   1.793
81840SOL    HW147417   5.053   6.662   1.833
81840SOL    HW247418   4.950   6.654   1.722
81841SOL     OW47419   7.557   2.247  14.124
81841SOL    HW147420   7.592   2.256  14.213
81841SOL    HW247421   7.633   2.226  14.070
81842SOL     OW47422   4.990  12.168  11.632
81842SOL    HW147423   5.037  12.224  11.571
81842SOL    HW247424   4.950  12.228  11.694
81843SOL     OW47425   4.624   4.235   8.194
81843SOL    HW147426   4.689   4.169   8.219
81843SOL    HW247427   4.625   4.297   8.267
81844SOL     OW47428   4.179   1.346  13.980
81844SOL    HW147429   4.220   1.367  13.896
81844SOL    HW247430   4.135   1.427  14.006
81845SOL     OW47431  10.553  12.195  12.416
81845SOL    HW147432  10.607  12.227  12.344
81845SOL    HW247433  10.467  12.234  12.399
81846SOL     OW47434   9.158  10.533   0.425
81846SOL    HW147435   9.236  10.524   0.481
81846SOL    HW247436   9.193  10.559   0.340
81847SOL     OW47437  10.884   9.439   3.932
81847SOL    HW147438  10.894   9.349   3.904
81847SOL    HW247439  10.795   9.443   3.968
81848SOL     OW47440  11.300  13.712   7.182
81848SOL    HW147441  11.382  13.677   7.216
81848SOL    HW247442  11.292  13.674   7.095
81849SOL     OW47443   5.588   6.642   0.525
81849SOL    HW147444   5.662   6.621   0.467
81849SOL    HW247445   5.514   6.657   0.466
81850SOL     OW47446   4.647  14.415   8.084
81850SOL    HW147447   4.637  14.337   8.139
81850SOL    HW247448   4.726  14.400   8.033
81851SOL     OW47449  10.663   4.788   0.361
81851SOL    HW147450  10.586   4.827   0.320
81851SOL    HW247451  10.724   4.773   0.289
81852SOL     OW47452   4.281   3.414   1.709
81852SOL    HW147453   4.290   3.327   1.747
81852SOL    HW247454   4.369   3.452   1.715
81853SOL     OW47455  11.057  10.837  11.838
81853SOL    HW147456  11.000  10.829  11.761
81853SOL    HW247457  11.109  10.757  11.838
81854SOL     OW47458   5.652   2.538  12.639
81854SOL    HW147459   5.598   2.608  12.674
81854SOL    HW247460   5.604   2.505  12.563
81855SOL     OW47461   4.194  13.036   1.798
81855SOL    HW147462   4.243  13.058   1.718
81855SOL    HW247463   4.110  13.080   1.787
81856SOL     OW47464  11.795   2.282  14.346
81856SOL    HW147465  11.710   2.323  14.336
81856SOL    HW247466  11.802   2.221  14.273
81857SOL     OW47467   6.440   0.333   7.257
81857SOL    HW147468   6.481   0.249   7.234
81857SOL    HW247469   6.346   0.317   7.246
81858SOL     OW47470   8.150   2.547   5.709
81858SOL    HW147471   8.071   2.548   5.656
81858SOL    HW247472   8.157   2.457   5.740
81859SOL     OW47473  14.050  10.803   3.134
81859SOL    HW147474  13.959  10.809   3.106
81859SOL    HW247475  14.074  10.712   3.118
81860SOL     OW47476   6.659  14.132  13.949
81860SOL    HW147477   6.719  14.149  13.876
81860SOL    HW247478   6.604  14.210  13.954
81861SOL     OW47479   2.472   5.079   7.210
81861SOL    HW147480   2.380   5.092   7.185
81861SOL    HW247481   2.468   5.052   7.301
81862SOL     OW47482   1.938  11.654  11.933
81862SOL    HW147483   1.904  11.565  11.943
81862SOL    HW247484   1.898  11.703  12.004
81863SOL     OW47485  11.359   9.149   3.562
81863SOL    HW147486  11.342   9.216   3.495
81863SOL    HW247487  11.312   9.181   3.640
81864SOL     OW47488  12.681  12.863   1.485
81864SOL    HW147489  12.660  12.801   1.555
81864SOL    HW247490  12.741  12.925   1.526
81865SOL     OW47491   3.436   1.560   4.476
81865SOL    HW147492   3.343   1.577   4.462
81865SOL    HW247493   3.450   1.470   4.446
81866SOL     OW47494   2.274   6.018   7.245
81866SOL    HW147495   2.300   6.103   7.278
81866SOL    HW247496   2.330   6.003   7.169
81867SOL     OW47497   4.768   9.767   9.276
81867SOL    HW147498   4.734   9.843   9.229
81867SOL    HW247499   4.694   9.735   9.328
81868SOL     OW47500   0.584   7.800   3.421
81868SOL    HW147501   0.520   7.836   3.483
81868SOL    HW247502   0.566   7.846   3.339
81869SOL     OW47503   3.976   8.532   6.476
81869SOL    HW147504   4.017   8.539   6.563
81869SOL    HW247505   3.978   8.439   6.456
81870SOL     OW47506   8.436   5.448   3.444
81870SOL    HW147507   8.385   5.454   3.525
81870SOL    HW247508   8.485   5.366   3.452
81871SOL     OW47509   2.142   6.879   0.408
81871SOL    HW147510   2.191   6.945   0.361
81871SOL    HW247511   2.074   6.851   0.347
81872SOL     OW47512   7.252   1.681  10.539
81872SOL    HW147513   7.257   1.662  10.633
81872SOL    HW247514   7.158   1.691  10.522
81873SOL     OW47515   0.563   4.255   6.243
81873SOL    HW147516   0.491   4.249   6.306
81873SOL    HW247517   0.581   4.164   6.219
81874SOL     OW47518   1.891   6.189   9.877
81874SOL    HW147519   1.973   6.198   9.925
81874SOL    HW247520   1.914   6.202   9.786
81875SOL     OW47521   7.580   1.171   6.133
81875SOL    HW147522   7.558   1.078   6.123
81875SOL    HW247523   7.670   1.170   6.167
81876SOL     OW47524   8.385   3.053   6.708
81876SOL    HW147525   8.390   3.011   6.622
81876SOL    HW247526   8.465   3.026   6.752
81877SOL     OW47527  10.119   6.802  10.848
81877SOL    HW147528  10.097   6.721  10.802
81877SOL    HW247529  10.061   6.805  10.923
81878SOL     OW47530  10.412   6.892  14.274
81878SOL    HW147531  10.462   6.856  14.347
81878SOL    HW247532  10.324   6.856  14.285
81879SOL     OW47533  10.077   0.562   0.688
81879SOL    HW147534  10.043   0.568   0.599
81879SOL    HW247535   9.999   0.551   0.742
81880SOL     OW47536  12.705   3.057  12.842
81880SOL    HW147537  12.745   3.002  12.775
81880SOL    HW247538  12.779   3.095  12.889
81881SOL     OW47539  12.487  14.105  10.296
81881SOL    HW147540  12.580  14.122  10.287
81881SOL    HW247541  12.451  14.119  10.209
81882SOL     OW47542   3.810  10.110   1.248
81882SOL    HW147543   3.811  10.037   1.185
81882SOL    HW247544   3.813  10.189   1.193
81883SOL     OW47545  11.607  14.282   6.524
81883SOL    HW147546  11.589  14.243   6.438
81883SOL    HW247547  11.697  14.312   6.519
81884SOL     OW47548   6.743   4.104   3.476
81884SOL    HW147549   6.754   4.195   3.445
81884SOL    HW247550   6.741   4.052   3.396
81885SOL     OW47551   4.546   3.900   4.215
81885SOL    HW147552   4.462   3.852   4.214
81885SOL    HW247553   4.588   3.871   4.296
81886SOL     OW47554   8.141   7.126   9.291
81886SOL    HW147555   8.230   7.095   9.305
81886SOL    HW247556   8.139   7.153   9.198
81887SOL     OW47557  13.516   4.185  14.014
81887SOL    HW147558  13.592   4.243  14.015
81887SOL    HW247559  13.514   4.145  14.101
81888SOL     OW47560   2.261  14.100   0.332
81888SOL    HW147561   2.302  14.187   0.335
81888SOL    HW247562   2.318  14.045   0.387
81889SOL     OW47563   9.188   7.967   7.971
81889SOL    HW147564   9.167   8.038   7.910
81889SOL    HW247565   9.283   7.971   7.981
81890SOL     OW47566   5.554  12.735   9.085
81890SOL    HW147567   5.479  12.759   9.031
81890SOL    HW247568   5.515  12.699   9.165
81891SOL     OW47569   2.693   8.048  14.091
81891SOL    HW147570   2.786   8.065  14.106
81891SOL    HW247571   2.687   7.952  14.090
81892SOL     OW47572  11.563  12.557  13.712
81892SOL    HW147573  11.475  12.593  13.703
81892SOL    HW247574  11.618  12.613  13.658
81893SOL     OW47575  11.816  10.157   0.648
81893SOL    HW147576  11.769  10.076   0.668
81893SOL    HW247577  11.820  10.160   0.552
81894SOL     OW47578  11.622  11.464   2.543
81894SOL    HW147579  11.649  11.554   2.522
81894SOL    HW247580  11.553  11.445   2.480
81895SOL     OW47581   5.556  10.246   7.926
81895SOL    HW147582   5.506  10.328   7.933
81895SOL    HW247583   5.643  10.268   7.959
81896SOL     OW47584   3.945   4.550  13.413
81896SOL    HW147585   4.011   4.528  13.347
81896SOL    HW247586   3.996   4.569  13.492
81897SOL     OW47587   1.367   4.339   3.670
81897SOL    HW147588   1.327   4.426   3.671
81897SOL    HW247589   1.352   4.305   3.759
81898SOL     OW47590  12.091   9.097   1.866
81898SOL    HW147591  12.141   9.136   1.938
81898SOL    HW247592  12.007   9.074   1.905
81899SOL     OW47593  12.703  11.763   0.147
81899SOL    HW147594  12.658  11.814   0.214
81899SOL    HW247595  12.782  11.731   0.190
81900SOL     OW47596  10.814  12.707   6.163
81900SOL    HW147597  10.739  12.765   6.158
81900SOL    HW247598  10.863  12.722   6.083
81901SOL     OW47599  14.083   7.891   9.619
81901SOL    HW147600  14.063   7.883   9.526
81901SOL    HW247601  14.057   7.980   9.642
81902SOL     OW47602  14.290   1.798   6.461
81902SOL    HW147603  14.295   1.805   6.556
81902SOL    HW247604  14.317   1.884   6.429
81903SOL     OW47605  10.961  14.293  13.538
81903SOL    HW147606  10.870  14.315  13.556
81903SOL    HW247607  10.961  14.266  13.446
81904SOL     OW47608   1.837   2.200   2.131
81904SOL    HW147609   1.795   2.220   2.048
81904SOL    HW247610   1.860   2.108   2.125
81905SOL     OW47611   4.777  13.433   9.456
81905SOL    HW147612   4.683  13.438   9.442
81905SOL    HW247613   4.814  13.422   9.368
81906SOL     OW47614   4.355  11.743   4.293
81906SOL    HW147615   4.449  11.749   4.314
81906SOL    HW247616   4.316  11.702   4.371
81907SOL     OW47617  12.911   0.899   6.778
81907SOL    HW147618  12.867   0.818   6.806
81907SOL    HW247619  13.001   0.888   6.807
81908SOL     OW47620   8.431   3.551   1.957
81908SOL    HW147621   8.474   3.510   1.882
81908SOL    HW247622   8.477   3.516   2.033
81909SOL     OW47623   8.330   5.867   1.478
81909SOL    HW147624   8.247   5.897   1.441
81909SOL    HW247625   8.376   5.947   1.502
81910SOL     OW47626   1.146   9.762  14.122
81910SOL    HW147627   1.122   9.825  14.054
81910SOL    HW247628   1.099   9.682  14.100
81911SOL     OW47629   0.866   4.450   3.660
81911SOL    HW147630   0.773   4.429   3.658
81911SOL    HW247631   0.902   4.409   3.581
81912SOL     OW47632  11.416   5.760   3.971
81912SOL    HW147633  11.443   5.730   3.884
81912SOL    HW247634  11.363   5.838   3.955
81913SOL     OW47635   4.860   5.912   5.049
81913SOL    HW147636   4.922   5.980   5.076
81913SOL    HW247637   4.916   5.838   5.025
81914SOL     OW47638   0.266   7.646   4.175
81914SOL    HW147639   0.294   7.667   4.264
81914SOL    HW247640   0.246   7.731   4.136
81915SOL     OW47641   2.845   6.480   2.306
81915SOL    HW147642   2.869   6.451   2.218
81915SOL    HW247643   2.782   6.551   2.291
81916SOL     OW47644   7.453   9.191  11.121
81916SOL    HW147645   7.479   9.162  11.034
81916SOL    HW247646   7.528   9.168  11.177
81917SOL     OW47647   7.663   1.537   5.918
81917SOL    HW147648   7.740   1.580   5.880
81917SOL    HW247649   7.611   1.509   5.842
81918SOL     OW47650  13.380   2.350  10.955
81918SOL    HW147651  13.421   2.284  11.011
81918SOL    HW247652  13.328   2.404  11.015
81919SOL     OW47653   6.060  14.726  14.647
81919SOL    HW147654   6.115  14.802  14.628
81919SOL    HW247655   5.971  14.761  14.648
81920SOL     OW47656   8.261   3.583   8.244
81920SOL    HW147657   8.295   3.672   8.250
81920SOL    HW247658   8.338   3.528   8.257
81921SOL     OW47659  14.080   3.290   9.928
81921SOL    HW147660  14.027   3.329   9.997
81921SOL    HW247661  14.170   3.314   9.950
81922SOL     OW47662   8.501   9.348   2.028
81922SOL    HW147663   8.550   9.276   1.988
81922SOL    HW247664   8.425   9.361   1.971
81923SOL     OW47665  12.445   6.592   8.769
81923SOL    HW147666  12.418   6.505   8.796
81923SOL    HW247667  12.400   6.606   8.685
81924SOL     OW47668  10.379   9.266   2.121
81924SOL    HW147669  10.376   9.349   2.073
81924SOL    HW247670  10.398   9.292   2.211
81925SOL     OW47671   6.202   6.978   9.264
81925SOL    HW147672   6.133   6.914   9.251
81925SOL    HW247673   6.165   7.042   9.324
81926SOL     OW47674   5.948   9.176   0.282
81926SOL    HW147675   6.006   9.251   0.294
81926SOL    HW247676   5.907   9.191   0.196
81927SOL     OW47677  13.374  12.167  10.969
81927SOL    HW147678  13.329  12.103  11.024
81927SOL    HW247679  13.404  12.235  11.030
81928SOL     OW47680   4.705   7.071  14.112
81928SOL    HW147681   4.671   7.112  14.033
81928SOL    HW247682   4.630   7.063  14.170
81929SOL     OW47683   0.908   8.916   9.787
81929SOL    HW147684   0.856   8.978   9.736
81929SOL    HW247685   0.974   8.970   9.831
81930SOL     OW47686   2.133  14.085  10.535
81930SOL    HW147687   2.194  14.154  10.509
81930SOL    HW247688   2.189  14.009  10.552
81931SOL     OW47689  10.124   9.645   0.992
81931SOL    HW147690  10.117   9.697   0.911
81931SOL    HW247691  10.117   9.709   1.062
81932SOL     OW47692   1.425  10.040   8.446
81932SOL    HW147693   1.337  10.005   8.436
81932SOL    HW247694   1.482   9.972   8.411
81933SOL     OW47695  13.273  10.572  12.165
81933SOL    HW147696  13.250  10.656  12.125
81933SOL    HW247697  13.192  10.521  12.161
81934SOL     OW47698   9.839   3.574   5.227
81934SOL    HW147699   9.819   3.537   5.141
81934SOL    HW247700   9.900   3.646   5.209
81935SOL     OW47701  13.458   2.124   9.565
81935SOL    HW147702  13.448   2.092   9.655
81935SOL    HW247703  13.490   2.048   9.517
81936SOL     OW47704   2.819   9.159   6.481
81936SOL    HW147705   2.850   9.226   6.542
81936SOL    HW247706   2.724   9.172   6.477
81937SOL     OW47707   1.340   9.359   6.523
81937SOL    HW147708   1.301   9.350   6.610
81937SOL    HW247709   1.326   9.274   6.482
81938SOL     OW47710   9.435   8.248   4.647
81938SOL    HW147711   9.388   8.197   4.580
81938SOL    HW247712   9.502   8.188   4.679
81939SOL     OW47713  11.278   1.363   7.009
81939SOL    HW147714  11.370   1.378   7.031
81939SOL    HW247715  11.266   1.408   6.925
81940SOL     OW47716  12.728  14.465   6.119
81940SOL    HW147717  12.669  14.512   6.178
81940SOL    HW247718  12.805  14.445   6.172
81941SOL     OW47719   9.887   4.659   3.677
81941SOL    HW147720   9.822   4.697   3.618
81941SOL    HW247721   9.888   4.717   3.753
81942SOL     OW47722   1.744   7.848  12.158
81942SOL    HW147723   1.828   7.820  12.194
81942SOL    HW247724   1.766   7.916  12.094
81943SOL     OW47725   2.521   4.358   4.531
81943SOL    HW147726   2.447   4.342   4.471
81943SOL    HW247727   2.495   4.436   4.579
81944SOL     OW47728  10.446   5.820   2.646
81944SOL    HW147729  10.444   5.760   2.572
81944SOL    HW247730  10.458   5.906   2.608
81945SOL     OW47731   6.044  12.755  13.325
81945SOL    HW147732   5.988  12.683  13.353
81945SOL    HW247733   6.126  12.743  13.373
81946SOL     OW47734  14.581  14.797  13.885
81946SOL    HW147735  14.629  14.727  13.840
81946SOL    HW247736  14.641  14.871  13.886
81947SOL     OW47737   6.419   4.966   7.462
81947SOL    HW147738   6.457   5.025   7.527
81947SOL    HW247739   6.458   4.881   7.482
81948SOL     OW47740   7.926   3.615   7.861
81948SOL    HW147741   7.945   3.642   7.771
81948SOL    HW247742   7.987   3.543   7.877
81949SOL     OW47743  13.684   8.199   6.071
81949SOL    HW147744  13.696   8.107   6.046
81949SOL    HW247745  13.716   8.204   6.161
81950SOL     OW47746  13.471   6.826   1.818
81950SOL    HW147747  13.388   6.818   1.864
81950SOL    HW247748  13.463   6.766   1.743
81951SOL     OW47749   1.644   4.441  10.202
81951SOL    HW147750   1.578   4.509  10.196
81951SOL    HW247751   1.727   4.486  10.188
81952SOL     OW47752  10.712   7.982   6.126
81952SOL    HW147753  10.702   7.958   6.034
81952SOL    HW247754  10.626   7.964   6.165
81953SOL     OW47755   1.354   5.612  11.612
81953SOL    HW147756   1.394   5.525  11.616
81953SOL    HW247757   1.358   5.636  11.520
81954SOL     OW47758   2.097   5.241   4.319
81954SOL    HW147759   2.187   5.214   4.300
81954SOL    HW247760   2.051   5.231   4.236
81955SOL     OW47761  13.972   2.124  13.135
81955SOL    HW147762  14.004   2.034  13.146
81955SOL    HW247763  13.878   2.113  13.120
81956SOL     OW47764   4.532   9.026   8.602
81956SOL    HW147765   4.508   9.042   8.693
81956SOL    HW247766   4.475   8.953   8.575
81957SOL     OW47767  13.966  12.626  12.387
81957SOL    HW147768  14.006  12.675  12.458
81957SOL    HW247769  14.015  12.651  12.309
81958SOL     OW47770   0.002  13.240   2.244
81958SOL    HW147771  14.847  13.278   2.164
81958SOL    HW247772   0.044  13.159   2.216
81959SOL     OW47773   7.337   8.491   0.147
81959SOL    HW147774   7.316   8.494   0.054
81959SOL    HW247775   7.332   8.398   0.170
81960SOL     OW47776   4.136   9.539   1.299
81960SOL    HW147777   4.084   9.596   1.355
81960SOL    HW247778   4.082   9.462   1.285
81961SOL     OW47779   8.863   0.512   0.569
81961SOL    HW147780   8.818   0.596   0.578
81961SOL    HW247781   8.797   0.446   0.593
81962SOL     OW47782   6.268   7.108   1.621
81962SOL    HW147783   6.329   7.163   1.572
81962SOL    HW247784   6.220   7.169   1.676
81963SOL     OW47785   2.800   3.593  14.376
81963SOL    HW147786   2.851   3.669  14.349
81963SOL    HW247787   2.840   3.565  14.458
81964SOL     OW47788   7.075   7.537   0.635
81964SOL    HW147789   7.111   7.514   0.549
81964SOL    HW247790   6.980   7.539   0.621
81965SOL     OW47791   6.752   3.550  10.527
81965SOL    HW147792   6.725   3.462  10.553
81965SOL    HW247793   6.805   3.537  10.448
81966SOL     OW47794   8.343   5.192  10.738
81966SOL    HW147795   8.267   5.175  10.681
81966SOL    HW247796   8.342   5.287  10.751
81967SOL     OW47797   1.700   9.630   2.003
81967SOL    HW147798   1.710   9.721   2.031
81967SOL    HW247799   1.633   9.594   2.061
81968SOL     OW47800   0.034   8.853   0.822
81968SOL    HW147801  14.827   8.889   0.801
81968SOL    HW247802   0.026   8.759   0.803
81969SOL     OW47803  11.087   9.918  11.182
81969SOL    HW147804  11.128   9.966  11.254
81969SOL    HW247805  11.077   9.983  11.112
81970SOL     OW47806   0.304   7.630   0.828
81970SOL    HW147807   0.250   7.665   0.757
81970SOL    HW247808   0.257   7.654   0.908
81971SOL     OW47809   7.724   4.021   4.311
81971SOL    HW147810   7.654   3.987   4.367
81971SOL    HW247811   7.691   4.009   4.222
81972SOL     OW47812  10.944   1.313   8.926
81972SOL    HW147813  11.039   1.317   8.940
81972SOL    HW247814  10.920   1.403   8.904
81973SOL     OW47815   6.429  12.855  10.691
81973SOL    HW147816   6.439  12.948  10.709
81973SOL    HW247817   6.486  12.812  10.755
81974SOL     OW47818   7.371   0.491   0.120
81974SOL    HW147819   7.349   0.480   0.212
81974SOL    HW247820   7.359   0.403   0.082
81975SOL     OW47821   9.318   5.719   4.792
81975SOL    HW147822   9.317   5.793   4.731
81975SOL    HW247823   9.379   5.746   4.861
81976SOL     OW47824  12.243   5.194   2.058
81976SOL    HW147825  12.316   5.149   2.101
81976SOL    HW247826  12.171   5.188   2.120
81977SOL     OW47827  10.715   6.525  10.081
81977SOL    HW147828  10.770   6.516  10.003
81977SOL    HW247829  10.767   6.487  10.152
81978SOL     OW47830  11.923  12.400   0.663
81978SOL    HW147831  11.997  12.339   0.672
81978SOL    HW247832  11.865  12.379   0.736
81979SOL     OW47833   5.274  14.190   2.952
81979SOL    HW147834   5.233  14.273   2.928
81979SOL    HW247835   5.205  14.142   2.999
81980SOL     OW47836   0.116   8.503   2.314
81980SOL    HW147837   0.082   8.492   2.403
81980SOL    HW247838   0.141   8.414   2.287
81981SOL     OW47839   9.235   2.827   1.129
81981SOL    HW147840   9.222   2.862   1.217
81981SOL    HW247841   9.242   2.905   1.073
81982SOL     OW47842   0.198  14.803   0.294
81982SOL    HW147843   0.280  14.818   0.247
81982SOL    HW247844   0.222  14.744   0.365
81983SOL     OW47845   5.692   8.116  14.841
81983SOL    HW147846   5.608   8.073  14.858
81983SOL    HW247847   5.718   8.151   0.046
81984SOL     OW47848   3.140  13.467   1.908
81984SOL    HW147849   3.129  13.557   1.877
81984SOL    HW247850   3.235  13.453   1.911
81985SOL     OW47851  11.447   4.717   0.045
81985SOL    HW147852  11.424   4.783  14.860
81985SOL    HW247853  11.511   4.760   0.101
81986SOL     OW47854  12.501   4.322   6.451
81986SOL    HW147855  12.430   4.364   6.402
81986SOL    HW247856  12.578   4.331   6.394
81987SOL     OW47857   7.947   7.938   6.280
81987SOL    HW147858   7.858   7.922   6.247
81987SOL    HW247859   7.979   8.011   6.227
81988SOL     OW47860   9.383  14.856   8.358
81988SOL    HW147861   9.403   0.068   8.368
81988SOL    HW247862   9.451  14.823   8.298
81989SOL     OW47863   3.992   5.589   7.613
81989SOL    HW147864   4.014   5.525   7.680
81989SOL    HW247865   4.027   5.672   7.645
81990SOL     OW47866  11.118  13.818  12.473
81990SOL    HW147867  11.052  13.870  12.518
81990SOL    HW247868  11.200  13.865  12.487
81991SOL     OW47869   0.296  12.557   0.371
81991SOL    HW147870   0.389  12.532   0.370
81991SOL    HW247871   0.256  12.502   0.304
81992SOL     OW47872   1.297   7.405  14.455
81992SOL    HW147873   1.240   7.450  14.393
81992SOL    HW247874   1.335   7.475  14.507
81993SOL     OW47875  14.654  13.861   2.519
81993SOL    HW147876  14.562  13.852   2.493
81993SOL    HW247877  14.664  13.954   2.540
81994SOL     OW47878   1.849   8.934  11.289
81994SOL    HW147879   1.778   8.886  11.247
81994SOL    HW247880   1.850   8.902  11.379
81995SOL     OW47881   0.494   4.473  13.632
81995SOL    HW147882   0.590   4.467  13.627
81995SOL    HW247883   0.474   4.563  13.606
81996SOL     OW47884  11.763   6.252  12.789
81996SOL    HW147885  11.830   6.269  12.722
81996SOL    HW247886  11.767   6.327  12.847
81997SOL     OW47887   5.991  11.343   4.473
81997SOL    HW147888   6.038  11.406   4.418
81997SOL    HW247889   5.927  11.397   4.521
81998SOL     OW47890   9.610   6.901   3.517
81998SOL    HW147891   9.562   6.935   3.441
81998SOL    HW247892   9.628   6.810   3.496
81999SOL     OW47893  12.510   7.028   6.311
81999SOL    HW147894  12.506   7.028   6.407
81999SOL    HW247895  12.602   7.015   6.291
82000SOL     OW47896   0.993   3.471   0.767
82000SOL    HW147897   0.900   3.454   0.776
82000SOL    HW247898   1.000   3.567   0.769
82001SOL     OW47899   4.306  10.618   9.547
82001SOL    HW147900   4.391  10.574   9.538
82001SOL    HW247901   4.298  10.637   9.641
82002SOL     OW47902   8.718   9.058  12.951
82002SOL    HW147903   8.657   8.987  12.931
82002SOL    HW247904   8.793   9.043  12.892
82003SOL     OW47905   2.872   3.661   8.495
82003SOL    HW147906   2.789   3.617   8.478
82003SOL    HW247907   2.863   3.746   8.452
82004SOL     OW47908  13.238   2.866   0.012
82004SOL    HW147909  13.209   2.904  14.809
82004SOL    HW247910  13.185   2.788   0.023
82005SOL     OW47911  10.389  12.804  14.287
82005SOL    HW147912  10.387  12.713  14.258
82005SOL    HW247913  10.475  12.837  14.260
82006SOL     OW47914   4.005  12.682  10.100
82006SOL    HW147915   4.086  12.728  10.078
82006SOL    HW247916   3.967  12.658  10.016
82007SOL     OW47917   6.081  12.781   7.641
82007SOL    HW147918   6.135  12.715   7.598
82007SOL    HW247919   6.063  12.743   7.728
82008SOL     OW47920   3.254  14.067   1.548
82008SOL    HW147921   3.301  14.104   1.473
82008SOL    HW247922   3.307  14.089   1.624
82009SOL     OW47923   9.733   1.446  14.235
82009SOL    HW147924   9.762   1.537  14.224
82009SOL    HW247925   9.780   1.398  14.167
82010SOL     OW47926   2.688   8.146  12.869
82010SOL    HW147927   2.755   8.197  12.914
82010SOL    HW247928   2.652   8.089  12.936
82011SOL     OW47929   1.657   0.683   2.283
82011SOL    HW147930   1.605   0.748   2.236
82011SOL    HW247931   1.672   0.613   2.220
82012SOL     OW47932  11.247  12.209  11.741
82012SOL    HW147933  11.282  12.184  11.827
82012SOL    HW247934  11.281  12.143  11.681
82013SOL     OW47935   1.410  13.194  14.846
82013SOL    HW147936   1.374  13.212   0.052
82013SOL    HW247937   1.351  13.128  14.809
82014SOL     OW47938   5.149   9.335  12.368
82014SOL    HW147939   5.201   9.400  12.322
82014SOL    HW247940   5.176   9.342  12.459
82015SOL     OW47941   6.200   1.187  14.297
82015SOL    HW147942   6.204   1.149  14.210
82015SOL    HW247943   6.166   1.275  14.283
82016SOL     OW47944   6.606   7.294  12.588
82016SOL    HW147945   6.668   7.366  12.581
82016SOL    HW247946   6.629   7.251  12.670
82017SOL     OW47947  13.452   2.595  14.634
82017SOL    HW147948  13.474   2.597  14.727
82017SOL    HW247949  13.511   2.529  14.598
82018SOL     OW47950   4.101   5.856   6.169
82018SOL    HW147951   4.031   5.909   6.132
82018SOL    HW247952   4.122   5.793   6.100
82019SOL     OW47953   1.740   4.264   5.020
82019SOL    HW147954   1.645   4.254   5.029
82019SOL    HW247955   1.762   4.338   5.077
82020SOL     OW47956   8.033   5.128   7.960
82020SOL    HW147957   7.963   5.075   7.921
82020SOL    HW247958   8.044   5.201   7.900
82021SOL     OW47959   0.259   1.884   5.561
82021SOL    HW147960   0.222   1.962   5.603
82021SOL    HW247961   0.193   1.816   5.575
82022SOL     OW47962   9.971  12.595   9.539
82022SOL    HW147963  10.048  12.542   9.564
82022SOL    HW247964  10.007  12.664   9.484
82023SOL     OW47965  11.067  13.766   8.106
82023SOL    HW147966  10.981  13.802   8.088
82023SOL    HW247967  11.099  13.818   8.181
82024SOL     OW47968   0.133   8.219   9.935
82024SOL    HW147969   0.190   8.254   9.866
82024SOL    HW247970   0.157   8.269  10.013
82025SOL     OW47971   9.518  10.544   5.172
82025SOL    HW147972   9.579  10.592   5.116
82025SOL    HW247973   9.455  10.505   5.111
82026SOL     OW47974  12.780   2.921   2.171
82026SOL    HW147975  12.873   2.926   2.148
82026SOL    HW247976  12.746   2.850   2.116
82027SOL     OW47977   8.518   1.170   3.979
82027SOL    HW147978   8.530   1.103   3.912
82027SOL    HW247979   8.498   1.250   3.930
82028SOL     OW47980  13.049   9.038  14.477
82028SOL    HW147981  13.000   8.967  14.518
82028SOL    HW247982  13.073   9.005  14.391
82029SOL     OW47983   9.617   1.133   6.615
82029SOL    HW147984   9.585   1.180   6.539
82029SOL    HW247985   9.632   1.043   6.584
82030SOL     OW47986   4.506   9.970  10.326
82030SOL    HW147987   4.597   9.999  10.327
82030SOL    HW247988   4.480   9.974  10.234
82031SOL     OW47989  12.170   2.194   7.394
82031SOL    HW147990  12.169   2.120   7.334
82031SOL    HW247991  12.116   2.166   7.468
82032SOL     OW47992   6.153   0.888  12.546
82032SOL    HW147993   6.130   0.960  12.605
82032SOL    HW247994   6.173   0.931  12.463
82033SOL     OW47995  10.313   8.645   1.795
82033SOL    HW147996  10.316   8.550   1.798
82033SOL    HW247997  10.308   8.672   1.887
82034SOL     OW47998   0.967   0.490   8.200
82034SOL    HW147999   1.049   0.515   8.158
82034SOL    HW248000   0.990   0.473   8.291
82035SOL     OW48001   8.933   0.279   9.623
82035SOL    HW148002   9.016   0.286   9.576
82035SOL    HW248003   8.919   0.184   9.633
82036SOL     OW48004   1.288   3.340   8.390
82036SOL    HW148005   1.373   3.354   8.347
82036SOL    HW248006   1.302   3.369   8.480
82037SOL     OW48007   5.835   4.455  11.854
82037SOL    HW148008   5.827   4.419  11.942
82037SOL    HW248009   5.828   4.550  11.867
82038SOL     OW48010  11.880   4.494   4.918
82038SOL    HW148011  11.918   4.537   4.994
82038SOL    HW248012  11.822   4.559   4.880
82039SOL     OW48013   1.409   6.705  10.012
82039SOL    HW148014   1.475   6.768  10.041
82039SOL    HW248015   1.326   6.745  10.035
82040SOL     OW48016   5.089   0.519  13.237
82040SOL    HW148017   5.038   0.540  13.315
82040SOL    HW248018   5.179   0.510  13.269
82041SOL     OW48019  10.969   0.239   2.866
82041SOL    HW148020  10.918   0.249   2.786
82041SOL    HW248021  11.057   0.267   2.842
82042SOL     OW48022   3.094  14.826  14.269
82042SOL    HW148023   3.145  14.763  14.320
82042SOL    HW248024   3.021  14.850  14.326
82043SOL     OW48025  11.844   4.961   8.855
82043SOL    HW148026  11.936   4.964   8.882
82043SOL    HW248027  11.815   4.873   8.878
82044SOL     OW48028   9.628   7.430   6.403
82044SOL    HW148029   9.582   7.370   6.461
82044SOL    HW248030   9.570   7.440   6.327
82045SOL     OW48031  10.421   0.078   5.238
82045SOL    HW148032  10.336   0.115   5.214
82045SOL    HW248033  10.410  14.864   5.231
82046SOL     OW48034  11.919  14.494   5.196
82046SOL    HW148035  11.939  14.407   5.228
82046SOL    HW248036  11.963  14.553   5.258
82047SOL     OW48037   2.747  14.098   8.314
82047SOL    HW148038   2.808  14.164   8.347
82047SOL    HW248039   2.702  14.141   8.242
82048SOL     OW48040   9.536  12.815   0.681
82048SOL    HW148041   9.441  12.830   0.680
82048SOL    HW248042   9.545  12.722   0.699
82049SOL     OW48043   0.174   5.489  12.559
82049SOL    HW148044   0.259   5.455  12.535
82049SOL    HW248045   0.155   5.449  12.644
82050SOL     OW48046   3.752  13.135   5.581
82050SOL    HW148047   3.696  13.133   5.503
82050SOL    HW248048   3.830  13.087   5.555
82051SOL     OW48049   3.226  12.207   9.737
82051SOL    HW148050   3.233  12.280   9.676
82051SOL    HW248051   3.247  12.130   9.684
82052SOL     OW48052   7.875   5.095   0.958
82052SOL    HW148053   7.936   5.060   0.892
82052SOL    HW248054   7.915   5.177   0.987
82053SOL     OW48055  14.447   3.000   2.362
82053SOL    HW148056  14.507   3.067   2.394
82053SOL    HW248057  14.375   3.000   2.425
82054SOL     OW48058   3.343  10.587   0.434
82054SOL    HW148059   3.343  10.547   0.347
82054SOL    HW248060   3.403  10.662   0.426
82055SOL     OW48061  12.818   1.142   6.814
82055SOL    HW148062  12.837   1.050   6.799
82055SOL    HW248063  12.786   1.175   6.730
82056SOL     OW48064   8.747  13.368   9.294
82056SOL    HW148065   8.709  13.455   9.305
82056SOL    HW248066   8.839  13.379   9.318
82057SOL     OW48067   3.234  11.367  13.395
82057SOL    HW148068   3.291  11.309  13.345
82057SOL    HW248069   3.146  11.349  13.361
82058SOL     OW48070   6.750   9.465   4.117
82058SOL    HW148071   6.774   9.373   4.131
82058SOL    HW248072   6.832   9.507   4.092
82059SOL     OW48073  13.511  12.034   8.846
82059SOL    HW148074  13.482  12.121   8.820
82059SOL    HW248075  13.606  12.040   8.852
82060SOL     OW48076   3.650  10.749   1.308
82060SOL    HW148077   3.660  10.659   1.275
82060SOL    HW248078   3.575  10.784   1.259
82061SOL     OW48079   0.990  10.330  13.020
82061SOL    HW148080   1.031  10.388  13.085
82061SOL    HW248081   1.040  10.345  12.940
82062SOL     OW48082   1.470   7.767   9.544
82062SOL    HW148083   1.452   7.827   9.617
82062SOL    HW248084   1.422   7.805   9.470
82063SOL     OW48085   4.802   7.892   8.625
82063SOL    HW148086   4.792   7.831   8.699
82063SOL    HW248087   4.824   7.837   8.551
82064SOL     OW48088   1.805  12.154   4.864
82064SOL    HW148089   1.870  12.084   4.855
82064SOL    HW248090   1.769  12.142   4.952
82065SOL     OW48091   8.115   4.624   7.801
82065SOL    HW148092   8.035   4.653   7.758
82065SOL    HW248093   8.095   4.629   7.895
82066SOL     OW48094  10.358   1.999   7.629
82066SOL    HW148095  10.343   2.093   7.613
82066SOL    HW248096  10.337   1.957   7.546
82067SOL     OW48097   3.598   8.000   9.629
82067SOL    HW148098   3.626   8.083   9.668
82067SOL    HW248099   3.680   7.954   9.608
82068SOL     OW48100   6.020  10.864  11.634
82068SOL    HW148101   6.052  10.816  11.557
82068SOL    HW248102   5.939  10.820  11.658
82069SOL     OW48103   0.171   9.042   5.177
82069SOL    HW148104   0.241   9.104   5.198
82069SOL    HW248105   0.180   8.973   5.242
82070SOL     OW48106  10.115   7.158  10.363
82070SOL    HW148107  10.075   7.219  10.425
82070SOL    HW248108  10.149   7.087  10.417
82071SOL     OW48109   8.289   9.325   9.815
82071SOL    HW148110   8.249   9.411   9.829
82071SOL    HW248111   8.284   9.283   9.901
82072SOL     OW48112   4.629   1.974   3.874
82072SOL    HW148113   4.629   2.070   3.875
82072SOL    HW248114   4.611   1.949   3.964
82073SOL     OW48115  10.653   6.018   6.717
82073SOL    HW148116  10.668   6.112   6.727
82073SOL    HW248117  10.692   5.979   6.795
82074SOL     OW48118   8.066  10.515   0.043
82074SOL    HW148119   8.127  10.445   0.023
82074SOL    HW248120   8.070  10.524   0.139
82075SOL     OW48121  13.381  13.974  13.885
82075SOL    HW148122  13.293  13.946  13.862
82075SOL    HW248123  13.391  14.060  13.842
82076SOL     OW48124   5.401   9.036  12.598
82076SOL    HW148125   5.453   9.055  12.676
82076SOL    HW248126   5.453   8.973  12.549
82077SOL     OW48127   3.012   2.259  11.188
82077SOL    HW148128   2.936   2.231  11.138
82077SOL    HW248129   2.997   2.352  11.204
82078SOL     OW48130  12.735   5.829   2.055
82078SOL    HW148131  12.650   5.833   2.012
82078SOL    HW248132  12.716   5.838   2.148
82079SOL     OW48133  10.561   3.209   0.701
82079SOL    HW148134  10.556   3.223   0.607
82079SOL    HW248135  10.654   3.214   0.722
82080SOL     OW48136   7.468   5.293   3.240
82080SOL    HW148137   7.489   5.201   3.259
82080SOL    HW248138   7.404   5.317   3.308
82081SOL     OW48139  14.143  14.448   7.475
82081SOL    HW148140  14.114  14.443   7.566
82081SOL    HW248141  14.086  14.514   7.435
82082SOL     OW48142   7.125  11.585   5.260
82082SOL    HW148143   7.202  11.538   5.226
82082SOL    HW248144   7.116  11.554   5.350
82083SOL     OW48145   8.127  11.395   1.089
82083SOL    HW148146   8.104  11.360   1.003
82083SOL    HW248147   8.196  11.459   1.072
82084SOL     OW48148   2.119  12.863   4.488
82084SOL    HW148149   2.145  12.794   4.548
82084SOL    HW248150   2.069  12.818   4.420
82085SOL     OW48151  12.509   4.344   2.329
82085SOL    HW148152  12.593   4.325   2.369
82085SOL    HW248153  12.522   4.330   2.235
82086SOL     OW48154   7.055  14.750   6.931
82086SOL    HW148155   6.981  14.726   6.987
82086SOL    HW248156   7.075  14.840   6.954
82087SOL     OW48157  11.205   3.734   9.346
82087SOL    HW148158  11.270   3.748   9.414
82087SOL    HW248159  11.153   3.815   9.346
82088SOL     OW48160   3.665  10.429   1.542
82088SOL    HW148161   3.655  10.473   1.627
82088SOL    HW248162   3.599  10.360   1.543
82089SOL     OW48163   0.432   6.767  10.245
82089SOL    HW148164   0.523   6.760  10.272
82089SOL    HW248165   0.410   6.679  10.212
82090SOL     OW48166   1.227  14.698   5.082
82090SOL    HW148167   1.246  14.616   5.036
82090SOL    HW248168   1.136  14.689   5.109
82091SOL     OW48169   9.313   2.673   8.819
82091SOL    HW148170   9.310   2.757   8.774
82091SOL    HW248171   9.223   2.658   8.848
82092SOL     OW48172  13.063  11.957   0.721
82092SOL    HW148173  13.036  11.989   0.808
82092SOL    HW248174  13.019  11.873   0.712
82093SOL     OW48175   7.681   4.406  10.780
82093SOL    HW148176   7.750   4.353  10.741
82093SOL    HW248177   7.600   4.367  10.749
82094SOL     OW48178   7.847  10.022   1.239
82094SOL    HW148179   7.787  10.094   1.255
82094SOL    HW248180   7.815   9.981   1.159
82095SOL     OW48181   9.194   5.296   1.844
82095SOL    HW148182   9.149   5.231   1.790
82095SOL    HW248183   9.177   5.268   1.934
82096SOL     OW48184   0.102  12.762   6.056
82096SOL    HW148185   0.106  12.683   6.003
82096SOL    HW248186   0.067  12.731   6.140
82097SOL     OW48187   7.844  12.653   3.468
82097SOL    HW148188   7.938  12.645   3.484
82097SOL    HW248189   7.836  12.658   3.373
82098SOL     OW48190   0.806   1.673  13.901
82098SOL    HW148191   0.765   1.713  13.977
82098SOL    HW248192   0.741   1.682  13.831
82099SOL     OW48193   7.375   0.069   6.727
82099SOL    HW148194   7.436   0.039   6.794
82099SOL    HW248195   7.364  14.874   6.669
82100SOL     OW48196   9.582   8.139  11.087
82100SOL    HW148197   9.603   8.058  11.040
82100SOL    HW248198   9.539   8.194  11.021
82101SOL     OW48199   8.900   6.371   5.678
82101SOL    HW148200   8.861   6.368   5.765
82101SOL    HW248201   8.897   6.280   5.648
82102SOL     OW48202  11.414   0.980   9.706
82102SOL    HW148203  11.447   0.973   9.795
82102SOL    HW248204  11.370   0.896   9.690
82103SOL     OW48205   5.972   1.589   2.988
82103SOL    HW148206   5.881   1.559   2.995
82103SOL    HW248207   5.989   1.634   3.071
82104SOL     OW48208   6.595  10.366  12.283
82104SOL    HW148209   6.585  10.378  12.189
82104SOL    HW248210   6.543  10.289  12.304
82105SOL     OW48211  12.192   3.139   7.662
82105SOL    HW148212  12.147   3.082   7.725
82105SOL    HW248213  12.177   3.097   7.577
82106SOL     OW48214  14.482   7.347   5.487
82106SOL    HW148215  14.456   7.259   5.514
82106SOL    HW248216  14.416   7.405   5.526
82107SOL     OW48217  14.509   3.256   1.679
82107SOL    HW148218  14.579   3.257   1.744
82107SOL    HW248219  14.470   3.344   1.685
82108SOL     OW48220  11.218   7.550  13.714
82108SOL    HW148221  11.123   7.567  13.718
82108SOL    HW248222  11.249   7.606  13.642
82109SOL     OW48223   4.688   8.740  12.606
82109SOL    HW148224   4.719   8.678  12.673
82109SOL    HW248225   4.598   8.713  12.588
82110SOL     OW48226   9.810   7.969  12.608
82110SOL    HW148227   9.719   8.001  12.605
82110SOL    HW248228   9.837   7.982  12.698
82111SOL     OW48229  12.069  14.363  13.687
82111SOL    HW148230  12.153  14.407  13.703
82111SOL    HW248231  12.014  14.431  13.648
82112SOL     OW48232   0.492   8.293   0.296
82112SOL    HW148233   0.451   8.207   0.303
82112SOL    HW248234   0.463   8.326   0.211
82113SOL     OW48235   0.699   2.881   6.056
82113SOL    HW148236   0.729   2.923   6.137
82113SOL    HW248237   0.742   2.795   6.057
82114SOL     OW48238   1.055  13.739  10.295
82114SOL    HW148239   1.000  13.743  10.373
82114SOL    HW248240   1.093  13.651  10.297
82115SOL     OW48241   4.357  10.785   0.885
82115SOL    HW148242   4.420  10.715   0.899
82115SOL    HW248243   4.281  10.742   0.846
82116SOL     OW48244   0.764   9.463   5.079
82116SOL    HW148245   0.835   9.423   5.129
82116SOL    HW248246   0.689   9.459   5.138
82117SOL     OW48247   6.880   6.247  14.341
82117SOL    HW148248   6.863   6.194  14.264
82117SOL    HW248249   6.919   6.328  14.306
82118SOL     OW48250   9.364   3.164  11.117
82118SOL    HW148251   9.317   3.174  11.034
82118SOL    HW248252   9.310   3.212  11.180
82119SOL     OW48253  10.133   0.049   6.404
82119SOL    HW148254  10.064   0.075   6.342
82119SOL    HW248255  10.114   0.101   6.483
82120SOL     OW48256   1.587  11.283   5.063
82120SOL    HW148257   1.607  11.228   5.139
82120SOL    HW248258   1.606  11.227   4.988
82121SOL     OW48259  14.450   3.150  13.403
82121SOL    HW148260  14.444   3.095  13.481
82121SOL    HW248261  14.387   3.111  13.342
82122SOL     OW48262   6.964   9.006   0.799
82122SOL    HW148263   7.040   8.991   0.742
82122SOL    HW248264   6.941   8.919   0.831
82123SOL     OW48265   7.997   3.125   1.840
82123SOL    HW148266   8.048   3.197   1.803
82123SOL    HW248267   8.017   3.128   1.934
82124SOL     OW48268   7.573   1.946  11.837
82124SOL    HW148269   7.499   1.961  11.895
82124SOL    HW248270   7.582   1.850  11.834
82125SOL     OW48271   6.415  10.133  12.314
82125SOL    HW148272   6.366  10.115  12.234
82125SOL    HW248273   6.431  10.047  12.352
82126SOL     OW48274   1.634   4.839  14.457
82126SOL    HW148275   1.565   4.787  14.416
82126SOL    HW248276   1.648   4.797  14.542
82127SOL     OW48277   1.137  12.246  12.673
82127SOL    HW148278   1.191  12.167  12.672
82127SOL    HW248279   1.050  12.216  12.697
82128SOL     OW48280   6.277  13.001   9.716
82128SOL    HW148281   6.340  12.934   9.690
82128SOL    HW248282   6.321  13.049   9.787
82129SOL     OW48283   7.449   5.726   4.020
82129SOL    HW148284   7.493   5.808   4.041
82129SOL    HW248285   7.493   5.661   4.075
82130SOL     OW48286   3.864  12.741   2.658
82130SOL    HW148287   3.808  12.805   2.702
82130SOL    HW248288   3.820  12.657   2.674
82131SOL     OW48289  14.217   8.406   4.663
82131SOL    HW148290  14.136   8.367   4.697
82131SOL    HW248291  14.217   8.384   4.570
82132SOL     OW48292  10.152   6.251   6.629
82132SOL    HW148293  10.200   6.306   6.691
82132SOL    HW248294  10.209   6.176   6.614
82133SOL     OW48295   1.010   8.515   3.334
82133SOL    HW148296   0.924   8.555   3.345
82133SOL    HW248297   1.034   8.530   3.243
82134SOL     OW48298   5.225  11.476   3.098
82134SOL    HW148299   5.227  11.405   3.035
82134SOL    HW248300   5.204  11.554   3.047
82135SOL     OW48301   3.405   6.848  11.794
82135SOL    HW148302   3.381   6.773  11.739
82135SOL    HW248303   3.408   6.922  11.734
82136SOL     OW48304   7.908   1.511   3.719
82136SOL    HW148305   7.879   1.430   3.761
82136SOL    HW248306   7.941   1.565   3.791
82137SOL     OW48307  11.895   3.250  13.027
82137SOL    HW148308  11.874   3.328  13.078
82137SOL    HW248309  11.932   3.284  12.945
82138SOL     OW48310   5.712   9.534  13.284
82138SOL    HW148311   5.716   9.584  13.202
82138SOL    HW248312   5.743   9.595  13.350
82139SOL     OW48313   7.074   1.640  14.873
82139SOL    HW148314   7.082   1.723  14.825
82139SOL    HW248315   7.118   1.576  14.816
82140SOL     OW48316   6.819   4.354   3.391
82140SOL    HW148317   6.758   4.386   3.458
82140SOL    HW248318   6.822   4.424   3.326
82141SOL     OW48319   9.381   6.073   6.836
82141SOL    HW148320   9.455   6.122   6.872
82141SOL    HW248321   9.407   6.052   6.747
82142SOL     OW48322   6.119  10.572  12.551
82142SOL    HW148323   6.196  10.583  12.607
82142SOL    HW248324   6.131  10.487  12.509
82143SOL     OW48325  13.659   4.367   0.642
82143SOL    HW148326  13.686   4.280   0.614
82143SOL    HW248327  13.726   4.426   0.607
82144SOL     OW48328   8.754  10.501   4.091
82144SOL    HW148329   8.663  10.474   4.082
82144SOL    HW248330   8.779  10.531   4.004
82145SOL     OW48331  10.528   1.877   8.569
82145SOL    HW148332  10.600   1.818   8.547
82145SOL    HW248333  10.545   1.955   8.517
82146SOL     OW48334   2.654   5.358   8.648
82146SOL    HW148335   2.652   5.284   8.708
82146SOL    HW248336   2.733   5.407   8.673
82147SOL     OW48337   1.310  10.767   3.913
82147SOL    HW148338   1.404  10.771   3.896
82147SOL    HW248339   1.276  10.848   3.876
82148SOL     OW48340   6.935   0.734  11.152
82148SOL    HW148341   6.934   0.827  11.176
82148SOL    HW248342   7.024   0.705  11.170
82149SOL     OW48343   6.905  13.815   3.583
82149SOL    HW148344   6.913  13.760   3.505
82149SOL    HW248345   6.938  13.760   3.654
82150SOL     OW48346  13.716   7.897   8.659
82150SOL    HW148347  13.635   7.917   8.613
82150SOL    HW248348  13.718   7.801   8.663
82151SOL     OW48349   3.764   1.620  14.775
82151SOL    HW148350   3.724   1.615  14.687
82151SOL    HW248351   3.856   1.598  14.761
82152SOL     OW48352   6.609   2.264   0.815
82152SOL    HW148353   6.532   2.318   0.792
82152SOL    HW248354   6.586   2.176   0.785
82153SOL     OW48355  12.785   8.413  11.218
82153SOL    HW148356  12.780   8.322  11.247
82153SOL    HW248357  12.695   8.437  11.198
82154SOL     OW48358  11.461  12.485   5.667
82154SOL    HW148359  11.398  12.456   5.732
82154SOL    HW248360  11.546  12.460   5.703
82155SOL     OW48361   8.425  10.566  12.381
82155SOL    HW148362   8.407  10.660  12.377
82155SOL    HW248363   8.375  10.529  12.308
82156SOL     OW48364  10.960   0.386  10.176
82156SOL    HW148365  11.012   0.450  10.224
82156SOL    HW248366  11.020   0.348  10.112
82157SOL     OW48367  10.462  11.629   8.421
82157SOL    HW148368  10.485  11.538   8.398
82157SOL    HW248369  10.461  11.631   8.516
82158SOL     OW48370  13.201  11.710  11.181
82158SOL    HW148371  13.267  11.658  11.227
82158SOL    HW248372  13.125  11.653  11.177
82159SOL     OW48373  11.423   9.110  12.255
82159SOL    HW148374  11.336   9.144  12.276
82159SOL    HW248375  11.468   9.184  12.215
82160SOL     OW48376   6.198   3.326   8.036
82160SOL    HW148377   6.269   3.308   7.975
82160SOL    HW248378   6.131   3.369   7.984
82161SOL     OW48379   7.816   4.511   2.831
82161SOL    HW148380   7.724   4.529   2.813
82161SOL    HW248381   7.861   4.593   2.809
82162SOL     OW48382  13.779   7.876   5.287
82162SOL    HW148383  13.782   7.948   5.350
82162SOL    HW248384  13.688   7.846   5.289
82163SOL     OW48385  13.748  10.091  13.338
82163SOL    HW148386  13.771  10.059  13.251
82163SOL    HW248387  13.827  10.137  13.368
82164SOL     OW48388  14.077  12.016   2.616
82164SOL    HW148389  14.087  12.040   2.708
82164SOL    HW248390  13.991  12.050   2.591
82165SOL     OW48391  12.652   0.044   4.055
82165SOL    HW148392  12.735   0.089   4.067
82165SOL    HW248393  12.587   0.114   4.055
82166SOL     OW48394   4.554   7.866   2.207
82166SOL    HW148395   4.536   7.950   2.248
82166SOL    HW248396   4.510   7.871   2.122
82167SOL     OW48397  13.290  10.352   5.526
82167SOL    HW148398  13.309  10.442   5.501
82167SOL    HW248399  13.350  10.299   5.473
82168SOL     OW48400   7.216   0.215   3.821
82168SOL    HW148401   7.227   0.184   3.911
82168SOL    HW248402   7.241   0.140   3.767
82169SOL     OW48403   9.071   4.592   2.837
82169SOL    HW148404   9.145   4.643   2.804
82169SOL    HW248405   8.996   4.651   2.830
82170SOL     OW48406   7.102   1.192  11.812
82170SOL    HW148407   7.153   1.113  11.831
82170SOL    HW248408   7.050   1.168  11.734
82171SOL     OW48409   1.787  10.881   4.298
82171SOL    HW148410   1.876  10.848   4.284
82171SOL    HW248411   1.785  10.965   4.252
82172SOL     OW48412   0.344   1.006   4.000
82172SOL    HW148413   0.381   0.981   3.915
82172SOL    HW248414   0.417   0.999   4.061
82173SOL     OW48415   8.406   6.901   0.230
82173SOL    HW148416   8.430   6.810   0.210
82173SOL    HW248417   8.488   6.942   0.257
82174SOL     OW48418   5.644   2.435   6.386
82174SOL    HW148419   5.601   2.520   6.393
82174SOL    HW248420   5.646   2.417   6.292
82175SOL     OW48421  10.529  13.303   8.808
82175SOL    HW148422  10.592  13.352   8.861
82175SOL    HW248423  10.570  13.218   8.794
82176SOL     OW48424   8.924   1.912   5.632
82176SOL    HW148425   8.956   1.827   5.600
82176SOL    HW248426   8.834   1.916   5.601
82177SOL     OW48427   3.413  10.543   1.473
82177SOL    HW148428   3.506  10.533   1.492
82177SOL    HW248429   3.382  10.605   1.539
82178SOL     OW48430   4.458   8.191  11.726
82178SOL    HW148431   4.540   8.235  11.749
82178SOL    HW248432   4.482   8.133  11.653
82179SOL     OW48433  14.264   7.863   5.708
82179SOL    HW148434  14.319   7.798   5.750
82179SOL    HW248435  14.221   7.815   5.636
82180SOL     OW48436   6.835   8.491   0.785
82180SOL    HW148437   6.765   8.465   0.725
82180SOL    HW248438   6.899   8.420   0.779
82181SOL     OW48439   0.051   7.422   3.735
82181SOL    HW148440   0.024   7.489   3.797
82181SOL    HW248441   0.143   7.404   3.757
82182SOL     OW48442  11.795  14.494  14.440
82182SOL    HW148443  11.760  14.551  14.508
82182SOL    HW248444  11.728  14.428  14.426
82183SOL     OW48445   9.153  11.787   4.716
82183SOL    HW148446   9.245  11.807   4.734
82183SOL    HW248447   9.143  11.695   4.743
82184SOL     OW48448  12.718  10.659  14.199
82184SOL    HW148449  12.771  10.648  14.120
82184SOL    HW248450  12.664  10.736  14.180
82185SOL     OW48451  11.197  13.535  13.625
82185SOL    HW148452  11.192  13.608  13.564
82185SOL    HW248453  11.218  13.459  13.570
82186SOL     OW48454  13.328   8.024   1.837
82186SOL    HW148455  13.239   8.020   1.802
82186SOL    HW248456  13.337   7.944   1.889
82187SOL     OW48457   9.136  11.855  13.889
82187SOL    HW148458   9.200  11.877  13.957
82187SOL    HW248459   9.071  11.801  13.933
82188SOL     OW48460  14.260  14.293  10.028
82188SOL    HW148461  14.215  14.265   9.948
82188SOL    HW248462  14.340  14.336   9.997
82189SOL     OW48463   6.710   5.194   7.890
82189SOL    HW148464   6.695   5.172   7.982
82189SOL    HW248465   6.729   5.110   7.848
82190SOL     OW48466   7.149  10.643   5.817
82190SOL    HW148467   7.159  10.598   5.901
82190SOL    HW248468   7.095  10.720   5.838
82191SOL     OW48469  11.387  13.131  11.215
82191SOL    HW148470  11.338  13.144  11.296
82191SOL    HW248471  11.321  13.098  11.153
82192SOL     OW48472   8.555   0.938  11.143
82192SOL    HW148473   8.534   1.013  11.088
82192SOL    HW248474   8.616   0.887  11.091
82193SOL     OW48475  12.541   9.330   9.696
82193SOL    HW148476  12.452   9.364   9.705
82193SOL    HW248477  12.535   9.239   9.727
82194SOL     OW48478   3.591   1.504   7.635
82194SOL    HW148479   3.611   1.515   7.542
82194SOL    HW248480   3.660   1.447   7.667
82195SOL     OW48481   6.497   5.599  14.660
82195SOL    HW148482   6.472   5.682  14.700
82195SOL    HW248483   6.571   5.620  14.604
82196SOL     OW48484   6.250  11.595   6.202
82196SOL    HW148485   6.182  11.541   6.161
82196SOL    HW248486   6.201  11.662   6.250
82197SOL     OW48487   7.754   6.908   0.672
82197SOL    HW148488   7.818   6.952   0.728
82197SOL    HW248489   7.764   6.815   0.694
82198SOL     OW48490  13.411   9.508  14.034
82198SOL    HW148491  13.397   9.416  14.054
82198SOL    HW248492  13.504   9.514  14.010
82199SOL     OW48493  13.426   2.199   6.047
82199SOL    HW148494  13.346   2.198   5.994
82199SOL    HW248495  13.435   2.290   6.075
82200SOL     OW48496   0.719   4.392  14.577
82200SOL    HW148497   0.632   4.395  14.538
82200SOL    HW248498   0.737   4.482  14.603
82201SOL     OW48499   9.280   3.016   7.938
82201SOL    HW148500   9.323   3.073   8.002
82201SOL    HW248501   9.250   2.941   7.989
82202SOL     OW48502   6.569   8.776   5.234
82202SOL    HW148503   6.533   8.856   5.196
82202SOL    HW248504   6.508   8.753   5.304
82203SOL     OW48505   8.889  14.757   5.642
82203SOL    HW148506   8.895  14.725   5.552
82203SOL    HW248507   8.936  14.840   5.641
82204SOL     OW48508   0.385   7.606   3.390
82204SOL    HW148509   0.402   7.523   3.433
82204SOL    HW248510   0.472   7.639   3.365
82205SOL     OW48511   3.665   2.811  10.550
82205SOL    HW148512   3.592   2.759  10.584
82205SOL    HW248513   3.628   2.899  10.539
82206SOL     OW48514   7.469  13.429   8.698
82206SOL    HW148515   7.451  13.393   8.611
82206SOL    HW248516   7.382  13.446   8.735
82207SOL     OW48517   9.405   1.179   1.996
82207SOL    HW148518   9.402   1.263   1.951
82207SOL    HW248519   9.318   1.142   1.984
82208SOL     OW48520   5.668   5.320   8.000
82208SOL    HW148521   5.600   5.377   7.961
82208SOL    HW248522   5.624   5.236   8.012
82209SOL     OW48523   4.109  12.390   0.894
82209SOL    HW148524   4.100  12.303   0.855
82209SOL    HW248525   4.200  12.393   0.925
82210SOL     OW48526   8.655   6.823   0.413
82210SOL    HW148527   8.729   6.764   0.395
82210SOL    HW248528   8.696   6.909   0.423
82211SOL     OW48529   4.633   0.337   9.920
82211SOL    HW148530   4.697   0.323   9.990
82211SOL    HW248531   4.660   0.420   9.880
82212SOL     OW48532   9.522   6.703  13.360
82212SOL    HW148533   9.590   6.705  13.427
82212SOL    HW248534   9.527   6.615  13.322
82213SOL     OW48535   0.119  10.509   8.302
82213SOL    HW148536   0.090  10.567   8.232
82213SOL    HW248537   0.198  10.467   8.267
82214SOL     OW48538   2.067   0.246  10.129
82214SOL    HW148539   2.098   0.155  10.132
82214SOL    HW248540   2.143   0.298  10.156
82215SOL     OW48541  14.860   4.943   1.462
82215SOL    HW148542  14.829   4.946   1.552
82215SOL    HW248543   0.073   4.961   1.468
82216SOL     OW48544   0.763  14.748   1.995
82216SOL    HW148545   0.737  14.820   1.938
82216SOL    HW248546   0.820  14.694   1.941
82217SOL     OW48547   0.819  10.285   5.012
82217SOL    HW148548   0.756  10.292   4.941
82217SOL    HW248549   0.803  10.361   5.067
82218SOL     OW48550  11.272  14.483  13.034
82218SOL    HW148551  11.224  14.543  12.978
82218SOL    HW248552  11.349  14.533  13.061
82219SOL     OW48553   2.958  13.862   4.156
82219SOL    HW148554   2.873  13.887   4.190
82219SOL    HW248555   2.962  13.767   4.169
82220SOL     OW48556   7.208  13.974   8.136
82220SOL    HW148557   7.276  14.041   8.133
82220SOL    HW248558   7.255  13.892   8.121
82221SOL     OW48559   2.771   3.912   6.437
82221SOL    HW148560   2.864   3.918   6.416
82221SOL    HW248561   2.738   3.842   6.381
82222SOL     OW48562  13.369  13.827  12.499
82222SOL    HW148563  13.387  13.854  12.409
82222SOL    HW248564  13.424  13.884  12.553
82223SOL     OW48565  11.895   8.512   3.949
82223SOL    HW148566  11.847   8.509   3.866
82223SOL    HW248567  11.880   8.425   3.988
82224SOL     OW48568   1.744   5.085  12.110
82224SOL    HW148569   1.821   5.089  12.055
82224SOL    HW248570   1.709   4.997  12.097
82225SOL     OW48571  13.457  11.994  10.492
82225SOL    HW148572  13.550  12.012  10.483
82225SOL    HW248573  13.439  12.005  10.586
82226SOL     OW48574   0.974   8.116   2.082
82226SOL    HW148575   0.890   8.133   2.038
82226SOL    HW248576   1.020   8.199   2.079
82227SOL     OW48577  13.262   4.347  11.054
82227SOL    HW148578  13.179   4.302  11.039
82227SOL    HW248579  13.264   4.417  10.989
82228SOL     OW48580   2.437  14.514   2.945
82228SOL    HW148581   2.403  14.427   2.965
82228SOL    HW248582   2.373  14.551   2.884
82229SOL     OW48583  13.860   8.947   7.079
82229SOL    HW148584  13.804   8.961   7.003
82229SOL    HW248585  13.824   9.004   7.147
82230SOL     OW48586   2.452  12.538   3.923
82230SOL    HW148587   2.425  12.497   3.841
82230SOL    HW248588   2.548  12.539   3.918
82231SOL     OW48589   5.126   5.275   8.182
82231SOL    HW148590   5.165   5.329   8.113
82231SOL    HW248591   5.108   5.337   8.253
82232SOL     OW48592   8.947  12.854  14.215
82232SOL    HW148593   8.884  12.867  14.144
82232SOL    HW248594   8.911  12.904  14.289
82233SOL     OW48595   7.945   3.372  11.893
82233SOL    HW148596   7.947   3.407  11.804
82233SOL    HW248597   7.902   3.287  11.884
82234SOL     OW48598   7.758   0.976  10.699
82234SOL    HW148599   7.743   0.887  10.665
82234SOL    HW248600   7.682   1.026  10.670
82235SOL     OW48601  13.182   2.224   5.882
82235SOL    HW148602  13.133   2.169   5.822
82235SOL    HW248603  13.120   2.244   5.952
82236SOL     OW48604   3.431   7.775   6.244
82236SOL    HW148605   3.336   7.775   6.258
82236SOL    HW248606   3.440   7.755   6.151
82237SOL     OW48607   5.432  10.778  11.173
82237SOL    HW148608   5.431  10.781  11.269
82237SOL    HW248609   5.340  10.764  11.149
82238SOL     OW48610   1.271   3.512  10.833
82238SOL    HW148611   1.234   3.479  10.751
82238SOL    HW248612   1.213   3.479  10.902
82239SOL     OW48613  11.571  10.329   0.632
82239SOL    HW148614  11.654  10.281   0.632
82239SOL    HW248615  11.551  10.341   0.540
82240SOL     OW48616  12.691   2.549   6.214
82240SOL    HW148617  12.782   2.569   6.195
82240SOL    HW248618  12.691   2.455   6.232
82241SOL     OW48619  11.706  12.935  14.310
82241SOL    HW148620  11.793  12.965  14.336
82241SOL    HW248621  11.652  12.950  14.387
82242SOL     OW48622   5.239   8.746  12.808
82242SOL    HW148623   5.203   8.658  12.819
82242SOL    HW248624   5.283   8.743  12.723
82243SOL     OW48625   0.247  14.027  13.631
82243SOL    HW148626   0.158  14.015  13.598
82243SOL    HW248627   0.249  14.118  13.663
82244SOL     OW48628   0.237   5.409   2.007
82244SOL    HW148629   0.310   5.419   2.068
82244SOL    HW248630   0.278   5.412   1.920
82245SOL     OW48631   7.637  11.092   2.134
82245SOL    HW148632   7.606  11.128   2.218
82245SOL    HW248633   7.564  11.039   2.102
82246SOL     OW48634   6.321   7.270  10.578
82246SOL    HW148635   6.244   7.261  10.522
82246SOL    HW248636   6.289   7.256  10.667
82247SOL     OW48637   2.570  10.924  12.415
82247SOL    HW148638   2.560  10.876  12.497
82247SOL    HW248639   2.562  11.016  12.439
82248SOL     OW48640   0.387   5.167  14.486
82248SOL    HW148641   0.339   5.100  14.534
82248SOL    HW248642   0.327   5.242  14.483
82249SOL     OW48643  10.504   3.805   3.710
82249SOL    HW148644  10.442   3.741   3.675
82249SOL    HW248645  10.564   3.753   3.764
82250SOL     OW48646   7.456  14.677   1.977
82250SOL    HW148647   7.506  14.649   1.901
82250SOL    HW248648   7.491  14.624   2.049
82251SOL     OW48649   4.953   2.188   2.761
82251SOL    HW148650   4.899   2.255   2.803
82251SOL    HW248651   5.043   2.219   2.774
82252SOL     OW48652  10.819   7.524   3.064
82252SOL    HW148653  10.788   7.559   3.147
82252SOL    HW248654  10.894   7.469   3.087
82253SOL     OW48655  10.761   2.373   1.793
82253SOL    HW148656  10.746   2.301   1.732
82253SOL    HW248657  10.677   2.384   1.838
82254SOL     OW48658   9.044   7.585   9.255
82254SOL    HW148659   9.077   7.675   9.252
82254SOL    HW248660   9.114   7.535   9.297
82255SOL     OW48661  14.639   9.261   0.146
82255SOL    HW148662  14.710   9.324   0.137
82255SOL    HW248663  14.581   9.300   0.212
82256SOL     OW48664   6.309   6.201  14.215
82256SOL    HW148665   6.354   6.144  14.278
82256SOL    HW248666   6.323   6.290  14.249
82257SOL     OW48667   6.072  14.098   7.990
82257SOL    HW148668   6.027  14.027   7.944
82257SOL    HW248669   6.123  14.142   7.922
82258SOL     OW48670  10.255   7.473  11.836
82258SOL    HW148671  10.164   7.501  11.836
82258SOL    HW248672  10.289   7.501  11.921
82259SOL     OW48673  14.747   2.318  12.759
82259SOL    HW148674  14.808   2.385  12.789
82259SOL    HW248675  14.734   2.338  12.666
82260SOL     OW48676   1.256   1.168  11.425
82260SOL    HW148677   1.233   1.109  11.497
82260SOL    HW248678   1.172   1.189  11.384
82261SOL     OW48679   2.773   6.845  13.359
82261SOL    HW148680   2.802   6.776  13.299
82261SOL    HW248681   2.690   6.875  13.321
82262SOL     OW48682   1.359   6.999  11.048
82262SOL    HW148683   1.439   6.971  11.094
82262SOL    HW248684   1.347   7.090  11.076
82263SOL     OW48685   5.783   0.031   3.009
82263SOL    HW148686   5.701   0.018   2.961
82263SOL    HW248687   5.840  14.841   2.977
82264SOL     OW48688  13.526  13.570  10.204
82264SOL    HW148689  13.450  13.529  10.247
82264SOL    HW248690  13.592  13.576  10.273
82265SOL     OW48691   1.394   1.915   8.868
82265SOL    HW148692   1.417   1.994   8.820
82265SOL    HW248693   1.474   1.890   8.915
82266SOL     OW48694   7.501   0.831  14.010
82266SOL    HW148695   7.474   0.739  14.016
82266SOL    HW248696   7.556   0.834  13.931
82267SOL     OW48697  10.303   0.898  11.479
82267SOL    HW148698  10.214   0.924  11.453
82267SOL    HW248699  10.358   0.922  11.404
82268SOL     OW48700   3.980   6.329   3.310
82268SOL    HW148701   4.003   6.259   3.371
82268SOL    HW248702   4.018   6.302   3.227
82269SOL     OW48703   8.270   4.975   7.791
82269SOL    HW148704   8.265   4.931   7.706
82269SOL    HW248705   8.181   5.007   7.806
82270SOL     OW48706   8.130   7.878  11.803
82270SOL    HW148707   8.084   7.961  11.792
82270SOL    HW248708   8.213   7.901  11.845
82271SOL     OW48709   0.470   2.773   1.943
82271SOL    HW148710   0.457   2.829   2.019
82271SOL    HW248711   0.453   2.685   1.975
82272SOL     OW48712   9.555   8.535   7.465
82272SOL    HW148713   9.520   8.563   7.550
82272SOL    HW248714   9.487   8.479   7.429
82273SOL     OW48715  10.185   0.254  14.155
82273SOL    HW148716  10.267   0.304  14.159
82273SOL    HW248717  10.142   0.286  14.075
82274SOL     OW48718   2.537   3.897  12.500
82274SOL    HW148719   2.555   3.978  12.452
82274SOL    HW248720   2.444   3.880  12.485
82275SOL     OW48721   6.720   9.215   5.576
82275SOL    HW148722   6.689   9.210   5.485
82275SOL    HW248723   6.787   9.147   5.581
82276SOL     OW48724  14.775   8.525   2.501
82276SOL    HW148725  14.683   8.523   2.527
82276SOL    HW248726  14.800   8.433   2.496
82277SOL     OW48727   8.662  14.034   9.286
82277SOL    HW148728   8.696  14.080   9.363
82277SOL    HW248729   8.715  14.066   9.213
82278SOL     OW48730  12.142   3.288   8.073
82278SOL    HW148731  12.196   3.340   8.014
82278SOL    HW248732  12.056   3.285   8.032
82279SOL     OW48733  11.020   6.833  10.832
82279SOL    HW148734  11.048   6.747  10.864
82279SOL    HW248735  10.999   6.883  10.911
82280SOL     OW48736  12.336  13.510   5.172
82280SOL    HW148737  12.248  13.531   5.142
82280SOL    HW248738  12.351  13.420   5.143
82281SOL     OW48739   5.126   6.890  11.357
82281SOL    HW148740   5.099   6.861  11.444
82281SOL    HW248741   5.082   6.975  11.345
82282SOL     OW48742   7.534  13.105   3.678
82282SOL    HW148743   7.629  13.118   3.679
82282SOL    HW248744   7.508  13.127   3.589
82283SOL     OW48745  12.652   2.544   1.538
82283SOL    HW148746  12.559   2.530   1.557
82283SOL    HW248747  12.667   2.497   1.456
82284SOL     OW48748  14.640  12.412  10.429
82284SOL    HW148749  14.728  12.442  10.455
82284SOL    HW248750  14.604  12.486  10.380
82285SOL     OW48751   7.681  11.472   3.337
82285SOL    HW148752   7.601  11.471   3.390
82285SOL    HW248753   7.708  11.564   3.336
82286SOL     OW48754   8.862  13.528   9.954
82286SOL    HW148755   8.808  13.524   9.875
82286SOL    HW248756   8.840  13.612   9.995
82287SOL     OW48757   7.466  14.150  10.670
82287SOL    HW148758   7.438  14.178  10.583
82287SOL    HW248759   7.551  14.192  10.683
82288SOL     OW48760   8.253  13.317   1.961
82288SOL    HW148761   8.271  13.383   2.028
82288SOL    HW248762   8.159  13.302   1.967
82289SOL     OW48763  10.787   6.649   1.611
82289SOL    HW148764  10.742   6.621   1.690
82289SOL    HW248765  10.880   6.644   1.632
82290SOL     OW48766  10.910   9.597   2.973
82290SOL    HW148767  10.825   9.563   2.999
82290SOL    HW248768  10.974   9.551   3.028
82291SOL     OW48769  11.518   4.120   9.197
82291SOL    HW148770  11.448   4.183   9.210
82291SOL    HW248771  11.482   4.057   9.134
82292SOL     OW48772   3.828   2.338   5.840
82292SOL    HW148773   3.765   2.392   5.888
82292SOL    HW248774   3.913   2.362   5.877
82293SOL     OW48775   2.340   8.403   7.590
82293SOL    HW148776   2.247   8.384   7.602
82293SOL    HW248777   2.369   8.338   7.527
82294SOL     OW48778   3.975   4.411   4.670
82294SOL    HW148779   3.938   4.447   4.589
82294SOL    HW248780   4.065   4.389   4.647
82295SOL     OW48781   9.788   8.977   4.785
82295SOL    HW148782   9.737   8.947   4.710
82295SOL    HW248783   9.726   8.980   4.857
82296SOL     OW48784   1.561  10.318  14.055
82296SOL    HW148785   1.504  10.392  14.035
82296SOL    HW248786   1.519  10.274  14.128
82297SOL     OW48787   6.764  11.107   6.395
82297SOL    HW148788   6.733  11.182   6.447
82297SOL    HW248789   6.755  11.135   6.304
82298SOL     OW48790   4.171   3.790   7.928
82298SOL    HW148791   4.092   3.753   7.967
82298SOL    HW248792   4.183   3.874   7.973
82299SOL     OW48793  13.046   3.732   0.520
82299SOL    HW148794  13.122   3.719   0.464
82299SOL    HW248795  13.045   3.826   0.538
82300SOL     OW48796  12.124   6.382   1.685
82300SOL    HW148797  12.083   6.328   1.618
82300SOL    HW248798  12.117   6.330   1.765
82301SOL     OW48799   6.498   9.293  13.737
82301SOL    HW148800   6.482   9.232  13.809
82301SOL    HW248801   6.451   9.372  13.761
82302SOL     OW48802   7.560   4.201   0.411
82302SOL    HW148803   7.469   4.230   0.408
82302SOL    HW248804   7.558   4.119   0.460
82303SOL     OW48805   2.397   3.755  12.227
82303SOL    HW148806   2.359   3.819  12.287
82303SOL    HW248807   2.491   3.773  12.230
82304SOL     OW48808  13.603  13.584   3.626
82304SOL    HW148809  13.542  13.575   3.553
82304SOL    HW248810  13.671  13.644   3.595
82305SOL     OW48811   8.737   9.620  10.780
82305SOL    HW148812   8.809   9.584  10.728
82305SOL    HW248813   8.779   9.682  10.839
82306SOL     OW48814   3.925   6.551   6.659
82306SOL    HW148815   3.936   6.593   6.573
82306SOL    HW248816   3.897   6.622   6.717
82307SOL     OW48817  10.119  13.169   1.566
82307SOL    HW148818  10.110  13.111   1.641
82307SOL    HW248819  10.173  13.120   1.504
82308SOL     OW48820  12.458   1.948   6.145
82308SOL    HW148821  12.470   1.872   6.087
82308SOL    HW248822  12.517   2.014   6.110
82309SOL     OW48823  11.956   9.370   7.680
82309SOL    HW148824  11.963   9.276   7.695
82309SOL    HW248825  12.040   9.405   7.709
82310SOL     OW48826   9.143   5.462  14.554
82310SOL    HW148827   9.147   5.392  14.488
82310SOL    HW248828   9.059   5.447  14.598
82311SOL     OW48829   7.117   1.382   0.654
82311SOL    HW148830   7.134   1.311   0.717
82311SOL    HW248831   7.203   1.415   0.630
82312SOL     OW48832   5.615   5.242  14.576
82312SOL    HW148833   5.625   5.201  14.490
82312SOL    HW248834   5.702   5.274  14.599
82313SOL     OW48835   9.642   7.585   7.617
82313SOL    HW148836   9.601   7.657   7.665
82313SOL    HW248837   9.573   7.551   7.560
82314SOL     OW48838  12.733   2.884  14.520
82314SOL    HW148839  12.649   2.856  14.555
82314SOL    HW248840  12.710   2.942  14.447
82315SOL     OW48841   4.515   8.706  14.394
82315SOL    HW148842   4.597   8.689  14.439
82315SOL    HW248843   4.448   8.692  14.462
82316SOL     OW48844   9.978   1.828   5.129
82316SOL    HW148845   9.996   1.759   5.193
82316SOL    HW248846   9.980   1.909   5.179
82317SOL     OW48847   2.183   0.174   7.008
82317SOL    HW148848   2.259   0.159   7.065
82317SOL    HW248849   2.108   0.173   7.068
82318SOL     OW48850  14.097   9.407   1.676
82318SOL    HW148851  14.007   9.430   1.699
82318SOL    HW248852  14.146   9.420   1.758
82319SOL     OW48853  12.735  10.621   1.901
82319SOL    HW148854  12.796  10.671   1.956
82319SOL    HW248855  12.650  10.633   1.943
82320SOL     OW48856  14.244   8.361  10.488
82320SOL    HW148857  14.161   8.389  10.527
82320SOL    HW248858  14.221   8.286  10.433
82321SOL     OW48859   2.956   9.000   8.099
82321SOL    HW148860   3.004   8.917   8.103
82321SOL    HW248861   2.969   9.031   8.009
82322SOL     OW48862  11.265  14.136  11.335
82322SOL    HW148863  11.299  14.160  11.421
82322SOL    HW248864  11.298  14.205  11.277
82323SOL     OW48865   8.172   2.624  14.399
82323SOL    HW148866   8.145   2.660  14.484
82323SOL    HW248867   8.182   2.701  14.343
82324SOL     OW48868   5.372   3.724  13.502
82324SOL    HW148869   5.341   3.649  13.452
82324SOL    HW248870   5.442   3.688  13.557
82325SOL     OW48871   1.399   3.237   3.927
82325SOL    HW148872   1.448   3.308   3.885
82325SOL    HW248873   1.462   3.165   3.933
82326SOL     OW48874  14.753   4.328  14.514
82326SOL    HW148875  14.681   4.387  14.538
82326SOL    HW248876  14.758   4.265  14.586
82327SOL     OW48877   5.661   4.844   2.874
82327SOL    HW148878   5.649   4.764   2.823
82327SOL    HW248879   5.583   4.896   2.857
82328SOL     OW48880  12.219   4.851  14.565
82328SOL    HW148881  12.256   4.767  14.540
82328SOL    HW248882  12.264   4.915  14.510
82329SOL     OW48883   3.661  10.170  10.935
82329SOL    HW148884   3.605  10.113  10.882
82329SOL    HW248885   3.749  10.155  10.902
82330SOL     OW48886  13.239   3.479  10.197
82330SOL    HW148887  13.260   3.550  10.136
82330SOL    HW248888  13.287   3.500  10.277
82331SOL     OW48889   2.720   0.449  12.218
82331SOL    HW148890   2.801   0.474  12.173
82331SOL    HW248891   2.738   0.467  12.310
82332SOL     OW48892   9.007  14.291  10.789
82332SOL    HW148893   8.943  14.348  10.831
82332SOL    HW248894   9.076  14.350  10.758
82333SOL     OW48895   4.074  10.299   8.081
82333SOL    HW148896   4.053  10.373   8.025
82333SOL    HW248897   4.136  10.247   8.029
82334SOL     OW48898   0.446   4.071   7.243
82334SOL    HW148899   0.457   4.019   7.163
82334SOL    HW248900   0.353   4.093   7.245
82335SOL     OW48901   5.953   7.192   9.774
82335SOL    HW148902   5.933   7.280   9.806
82335SOL    HW248903   5.889   7.135   9.818
82336SOL     OW48904  13.427   4.265  11.669
82336SOL    HW148905  13.371   4.342  11.675
82336SOL    HW248906  13.516   4.300  11.670
82337SOL     OW48907   2.247   7.510  11.073
82337SOL    HW148908   2.222   7.599  11.049
82337SOL    HW248909   2.196   7.454  11.015
82338SOL     OW48910  10.423   4.726   1.382
82338SOL    HW148911  10.402   4.799   1.439
82338SOL    HW248912  10.515   4.739   1.359
82339SOL     OW48913   2.922  10.806   1.870
82339SOL    HW148914   2.970  10.739   1.821
82339SOL    HW248915   2.927  10.884   1.816
82340SOL     OW48916  11.973   7.665   9.202
82340SOL    HW148917  11.971   7.681   9.107
82340SOL    HW248918  12.039   7.726   9.235
82341SOL     OW48919   7.334  14.601  13.770
82341SOL    HW148920   7.249  14.639  13.790
82341SOL    HW248921   7.318  14.544  13.695
82342SOL     OW48922  13.231   3.785   8.867
82342SOL    HW148923  13.285   3.818   8.939
82342SOL    HW248924  13.240   3.850   8.798
82343SOL     OW48925   3.912   8.565   1.861
82343SOL    HW148926   3.986   8.531   1.811
82343SOL    HW248927   3.930   8.659   1.870
82344SOL     OW48928  12.991  13.575   9.057
82344SOL    HW148929  12.960  13.630   9.129
82344SOL    HW248930  13.052  13.630   9.008
82345SOL     OW48931   4.046   7.150   0.928
82345SOL    HW148932   3.991   7.077   0.900
82345SOL    HW248933   3.998   7.191   1.000
82346SOL     OW48934   9.017  14.250   0.597
82346SOL    HW148935   9.021  14.184   0.666
82346SOL    HW248936   8.977  14.205   0.522
82347SOL     OW48937   2.519   9.122   6.486
82347SOL    HW148938   2.530   9.165   6.571
82347SOL    HW248939   2.466   9.044   6.504
82348SOL     OW48940   9.168  13.265   5.776
82348SOL    HW148941   9.220  13.232   5.702
82348SOL    HW248942   9.233  13.296   5.839
82349SOL     OW48943   8.551  12.298  13.182
82349SOL    HW148944   8.493  12.238  13.229
82349SOL    HW248945   8.623  12.314  13.243
82350SOL     OW48946   5.049   7.770   5.309
82350SOL    HW148947   5.116   7.749   5.375
82350SOL    HW248948   5.090   7.838   5.254
82351SOL     OW48949   9.589   4.041  10.047
82351SOL    HW148950   9.623   4.034  10.136
82351SOL    HW248951   9.543   3.958  10.033
82352SOL     OW48952   9.976   3.373   1.263
82352SOL    HW148953   9.998   3.321   1.340
82352SOL    HW248954   9.948   3.458   1.297
82353SOL     OW48955   3.824   6.748   4.386
82353SOL    HW148956   3.810   6.661   4.349
82353SOL    HW248957   3.909   6.775   4.353
82354SOL     OW48958  13.378  11.071   6.822
82354SOL    HW148959  13.451  11.030   6.868
82354SOL    HW248960  13.307  11.007   6.826
82355SOL     OW48961   9.735   6.196   9.679
82355SOL    HW148962   9.821   6.156   9.682
82355SOL    HW248963   9.744   6.268   9.617
82356SOL     OW48964   4.850  13.160   9.913
82356SOL    HW148965   4.845  13.140  10.007
82356SOL    HW248966   4.759  13.168   9.886
82357SOL     OW48967   3.725  12.802   4.804
82357SOL    HW148968   3.794  12.785   4.868
82357SOL    HW248969   3.708  12.717   4.764
82358SOL     OW48970   5.871  13.039  14.313
82358SOL    HW148971   5.944  13.075  14.363
82358SOL    HW248972   5.909  13.020  14.227
82359SOL     OW48973   2.285   7.255   9.758
82359SOL    HW148974   2.256   7.341   9.728
82359SOL    HW248975   2.376   7.269   9.785
82360SOL     OW48976  11.982  10.682   2.663
82360SOL    HW148977  12.007  10.627   2.738
82360SOL    HW248978  11.941  10.620   2.602
82361SOL     OW48979  10.011   7.619  11.805
82361SOL    HW148980   9.917   7.616  11.787
82361SOL    HW248981  10.021   7.692  11.867
82362SOL     OW48982   0.681   6.192   3.187
82362SOL    HW148983   0.668   6.098   3.175
82362SOL    HW248984   0.599   6.231   3.158
82363SOL     OW48985  10.841   4.567   4.899
82363SOL    HW148986  10.892   4.595   4.824
82363SOL    HW248987  10.754   4.547   4.863
82364SOL     OW48988   7.339   0.323  10.608
82364SOL    HW148989   7.326   0.336  10.514
82364SOL    HW248990   7.251   0.307  10.643
82365SOL     OW48991   3.185  11.636  13.308
82365SOL    HW148992   3.090  11.630  13.312
82365SOL    HW248993   3.216  11.552  13.343
82366SOL     OW48994   0.390   3.094   1.118
82366SOL    HW148995   0.400   3.002   1.093
82366SOL    HW248996   0.323   3.093   1.186
82367SOL     OW48997  10.658   7.561   5.679
82367SOL    HW148998  10.655   7.506   5.600
82367SOL    HW248999  10.670   7.650   5.646
82368SOL     OW49000   5.721   3.225   5.360
82368SOL    HW149001   5.745   3.179   5.440
82368SOL    HW249002   5.656   3.289   5.388
82369SOL     OW49003   8.002   4.599   0.384
82369SOL    HW149004   7.917   4.619   0.424
82369SOL    HW249005   7.980   4.552   0.303
82370SOL     OW49006   0.371   1.394   1.087
82370SOL    HW149007   0.367   1.486   1.060
82370SOL    HW249008   0.280   1.366   1.089
82371SOL     OW49009   3.128  10.761  13.663
82371SOL    HW149010   3.214  10.740  13.699
82371SOL    HW249011   3.133  10.736  13.571
82372SOL     OW49012   4.582   7.339   7.041
82372SOL    HW149013   4.654   7.389   7.078
82372SOL    HW249014   4.592   7.348   6.946
82373SOL     OW49015   9.856   6.090  14.288
82373SOL    HW149016   9.835   6.100  14.381
82373SOL    HW249017   9.798   6.021  14.258
82374SOL     OW49018  10.020   3.220   3.450
82374SOL    HW149019   9.980   3.137   3.475
82374SOL    HW249020  10.102   3.196   3.408
82375SOL     OW49021   8.309  10.482   5.882
82375SOL    HW149022   8.375  10.531   5.832
82375SOL    HW249023   8.229  10.490   5.830
82376SOL     OW49024   3.135  11.823   5.236
82376SOL    HW149025   3.100  11.734   5.243
82376SOL    HW249026   3.086  11.862   5.164
82377SOL     OW49027  11.189   6.960  12.889
82377SOL    HW149028  11.110   6.932  12.843
82377SOL    HW249029  11.174   6.932  12.980
82378SOL     OW49030   7.103   5.984   8.314
82378SOL    HW149031   7.084   5.992   8.220
82378SOL    HW249032   7.195   6.009   8.322
82379SOL     OW49033   5.864   0.108   0.246
82379SOL    HW149034   5.789   0.096   0.188
82379SOL    HW249035   5.829   0.092   0.334
82380SOL     OW49036  12.934   4.376  13.144
82380SOL    HW149037  12.943   4.403  13.235
82380SOL    HW249038  12.844   4.345  13.137
82381SOL     OW49039   4.494   9.033  14.588
82381SOL    HW149040   4.495   9.116  14.540
82381SOL    HW249041   4.402   9.020  14.610
82382SOL     OW49042   0.092  14.859  12.212
82382SOL    HW149043   0.089   0.074  12.225
82382SOL    HW249044   0.163  14.846  12.150
82383SOL     OW49045   2.732   5.632   8.880
82383SOL    HW149046   2.795   5.637   8.952
82383SOL    HW249047   2.648   5.654   8.920
82384SOL     OW49048   5.590   6.896  14.546
82384SOL    HW149049   5.668   6.941  14.515
82384SOL    HW249050   5.606   6.804  14.525
82385SOL     OW49051   2.924   7.799   5.083
82385SOL    HW149052   2.925   7.727   5.147
82385SOL    HW249053   3.016   7.820   5.069
82386SOL     OW49054   0.117   6.442   2.054
82386SOL    HW149055   0.102   6.460   1.961
82386SOL    HW249056   0.163   6.519   2.087
82387SOL     OW49057   8.289  13.909   0.630
82387SOL    HW149058   8.345  13.852   0.577
82387SOL    HW249059   8.225  13.944   0.569
82388SOL     OW49060   2.952  14.471  13.999
82388SOL    HW149061   2.990  14.410  14.062
82388SOL    HW249062   2.931  14.549  14.051
82389SOL     OW49063   7.379   1.542   8.609
82389SOL    HW149064   7.440   1.490   8.555
82389SOL    HW249065   7.375   1.495   8.692
82390SOL     OW49066   5.190  13.433   9.151
82390SOL    HW149067   5.214  13.370   9.084
82390SOL    HW249068   5.096  13.419   9.165
82391SOL     OW49069   7.105  11.185   7.507
82391SOL    HW149070   7.062  11.177   7.422
82391SOL    HW249071   7.037  11.220   7.565
82392SOL     OW49072   4.681  10.853  13.966
82392SOL    HW149073   4.701  10.827  14.056
82392SOL    HW249074   4.765  10.845  13.920
82393SOL     OW49075   9.904   5.133   2.515
82393SOL    HW149076   9.973   5.073   2.544
82393SOL    HW249077   9.951   5.199   2.464
82394SOL     OW49078   7.130  13.782   6.464
82394SOL    HW149079   7.085  13.863   6.488
82394SOL    HW249080   7.122  13.777   6.369
82395SOL     OW49081   7.304  13.907   1.447
82395SOL    HW149082   7.274  13.998   1.437
82395SOL    HW249083   7.399  13.912   1.440
82396SOL     OW49084   3.671  11.180   7.849
82396SOL    HW149085   3.620  11.141   7.778
82396SOL    HW249086   3.721  11.250   7.807
82397SOL     OW49087  10.151   2.291  10.478
82397SOL    HW149088  10.218   2.225  10.492
82397SOL    HW249089  10.069   2.242  10.467
82398SOL     OW49090   5.716  13.356   9.862
82398SOL    HW149091   5.768  13.432   9.838
82398SOL    HW249092   5.636  13.365   9.810
82399SOL     OW49093  14.614   3.615   0.908
82399SOL    HW149094  14.550   3.595   0.975
82399SOL    HW249095  14.637   3.706   0.923
82400SOL     OW49096  12.269   2.339  14.673
82400SOL    HW149097  12.278   2.386  14.590
82400SOL    HW249098  12.206   2.390  14.723
82401SOL     OW49099   8.642   2.877   1.240
82401SOL    HW149100   8.602   2.890   1.326
82401SOL    HW249101   8.735   2.894   1.254
82402SOL     OW49102  10.455   5.676  12.045
82402SOL    HW149103  10.550   5.683  12.049
82402SOL    HW249104  10.424   5.766  12.034
82403SOL     OW49105   9.987   4.272   8.766
82403SOL    HW149106  10.068   4.223   8.778
82403SOL    HW249107  10.013   4.354   8.725
82404SOL     OW49108   0.746   7.563  11.168
82404SOL    HW149109   0.665   7.613  11.160
82404SOL    HW249110   0.815   7.629  11.164
82405SOL     OW49111   2.241  13.875   7.224
82405SOL    HW149112   2.246  13.831   7.139
82405SOL    HW249113   2.182  13.820   7.276
82406SOL     OW49114   6.838   0.855   4.133
82406SOL    HW149115   6.886   0.930   4.169
82406SOL    HW249116   6.817   0.882   4.043
82407SOL     OW49117  12.282  10.616  10.885
82407SOL    HW149118  12.232  10.649  10.811
82407SOL    HW249119  12.328  10.692  10.920
82408SOL     OW49120   6.968   4.201   0.243
82408SOL    HW149121   6.880   4.182   0.275
82408SOL    HW249122   6.954   4.253   0.164
82409SOL     OW49123  10.344  10.020  13.358
82409SOL    HW149124  10.430  10.000  13.320
82409SOL    HW249125  10.348  10.113  13.377
82410SOL     OW49126  10.694   3.932  11.085
82410SOL    HW149127  10.664   3.937  10.995
82410SOL    HW249128  10.722   4.021  11.106
82411SOL     OW49129   5.468   2.975  10.374
82411SOL    HW149130   5.437   2.884  10.374
82411SOL    HW249131   5.557   2.970  10.408
82412SOL     OW49132   1.395   7.436   6.129
82412SOL    HW149133   1.375   7.523   6.093
82412SOL    HW249134   1.460   7.400   6.068
82413SOL     OW49135   9.593   9.700   5.418
82413SOL    HW149136   9.498   9.710   5.416
82413SOL    HW249137   9.615   9.658   5.335
82414SOL     OW49138   3.395  14.459   3.506
82414SOL    HW149139   3.428  14.379   3.546
82414SOL    HW249140   3.341  14.430   3.433
82415SOL     OW49141   8.824   3.382   4.828
82415SOL    HW149142   8.848   3.433   4.905
82415SOL    HW249143   8.888   3.408   4.762
82416SOL     OW49144   3.643   9.649  11.124
82416SOL    HW149145   3.612   9.565  11.159
82416SOL    HW249146   3.634   9.640  11.029
82417SOL     OW49147   3.971   2.527   4.816
82417SOL    HW149148   3.918   2.491   4.887
82417SOL    HW249149   4.019   2.599   4.857
82418SOL     OW49150   3.880   0.588   0.905
82418SOL    HW149151   3.850   0.571   0.816
82418SOL    HW249152   3.831   0.666   0.932
82419SOL     OW49153   7.073   0.476   8.419
82419SOL    HW149154   7.163   0.459   8.393
82419SOL    HW249155   7.023   0.468   8.338
82420SOL     OW49156   8.220   6.738   0.039
82420SOL    HW149157   8.255   6.806   0.097
82420SOL    HW249158   8.241   6.770  14.831
82421SOL     OW49159  11.983  14.750   3.739
82421SOL    HW149160  11.939  14.825   3.778
82421SOL    HW249161  11.943  14.741   3.652
82422SOL     OW49162   6.423  14.531   7.992
82422SOL    HW149163   6.439  14.449   8.039
82422SOL    HW249164   6.389  14.591   8.059
82423SOL     OW49165   4.310   9.903  11.641
82423SOL    HW149166   4.347   9.990  11.657
82423SOL    HW249167   4.271   9.909  11.554
82424SOL     OW49168   1.532   7.565   6.627
82424SOL    HW149169   1.491   7.650   6.643
82424SOL    HW249170   1.476   7.524   6.561
82425SOL     OW49171  12.867   1.715   0.018
82425SOL    HW149172  12.774   1.734   0.012
82425SOL    HW249173  12.879   1.635  14.846
82426SOL     OW49174   6.294  14.362   3.373
82426SOL    HW149175   6.283  14.425   3.301
82426SOL    HW249176   6.379  14.322   3.356
82427SOL     OW49177   9.319   2.142   7.431
82427SOL    HW149178   9.344   2.183   7.348
82427SOL    HW249179   9.319   2.048   7.411
82428SOL     OW49180   5.447  10.484   1.321
82428SOL    HW149181   5.530  10.530   1.332
82428SOL    HW249182   5.385  10.552   1.296
82429SOL     OW49183  13.178   1.100   0.596
82429SOL    HW149184  13.150   1.051   0.519
82429SOL    HW249185  13.272   1.113   0.584
82430SOL     OW49186   3.169  12.502  10.816
82430SOL    HW149187   3.130  12.424  10.855
82430SOL    HW249188   3.097  12.566  10.814
82431SOL     OW49189  13.189   4.349   4.337
82431SOL    HW149190  13.191   4.434   4.381
82431SOL    HW249191  13.218   4.287   4.404
82432SOL     OW49192   8.327   7.771   3.109
82432SOL    HW149193   8.299   7.799   3.196
82432SOL    HW249194   8.312   7.677   3.108
82433SOL     OW49195   1.048   7.111  12.817
82433SOL    HW149196   1.023   7.064  12.897
82433SOL    HW249197   1.075   7.198  12.848
82434SOL     OW49198   2.502   0.661   1.993
82434SOL    HW149199   2.582   0.636   2.040
82434SOL    HW249200   2.532   0.699   1.911
82435SOL     OW49201   5.196  14.043   2.037
82435SOL    HW149202   5.233  14.131   2.026
82435SOL    HW249203   5.252  13.987   1.984
82436SOL     OW49204  13.201   0.136   5.657
82436SOL    HW149205  13.253   0.187   5.595
82436SOL    HW249206  13.247   0.052   5.664
82437SOL     OW49207  11.663  10.822   1.054
82437SOL    HW149208  11.690  10.745   1.005
82437SOL    HW249209  11.739  10.846   1.106
82438SOL     OW49210   9.662  12.777  12.462
82438SOL    HW149211   9.735  12.752  12.519
82438SOL    HW249212   9.595  12.809  12.522
82439SOL     OW49213  11.350   0.113  11.619
82439SOL    HW149214  11.273   0.072  11.578
82439SOL    HW249215  11.317   0.145  11.703
82440SOL     OW49216   1.807   9.202   6.553
82440SOL    HW149217   1.766   9.270   6.499
82440SOL    HW249218   1.770   9.120   6.521
82441SOL     OW49219  13.440   0.891   4.537
82441SOL    HW149220  13.411   0.938   4.616
82441SOL    HW249221  13.362   0.846   4.506
82442SOL     OW49222   3.919   6.644   7.361
82442SOL    HW149223   4.007   6.661   7.326
82442SOL    HW249224   3.931   6.641   7.456
82443SOL     OW49225   2.217   1.057   8.572
82443SOL    HW149226   2.276   0.997   8.527
82443SOL    HW249227   2.235   1.043   8.665
82444SOL     OW49228   2.819  10.401   7.907
82444SOL    HW149229   2.862  10.427   7.988
82444SOL    HW249230   2.736  10.362   7.935
82445SOL     OW49231  11.185   6.857  12.551
82445SOL    HW149232  11.256   6.919  12.567
82445SOL    HW249233  11.182   6.848  12.456
82446SOL     OW49234   6.558   8.132   0.923
82446SOL    HW149235   6.513   8.216   0.931
82446SOL    HW249236   6.556   8.113   0.829
82447SOL     OW49237  14.341   4.833  13.154
82447SOL    HW149238  14.349   4.927  13.138
82447SOL    HW249239  14.324   4.795  13.068
82448SOL     OW49240  10.906   6.379   7.414
82448SOL    HW149241  10.820   6.385   7.372
82448SOL    HW249242  10.892   6.321   7.488
82449SOL     OW49243   6.197   1.520   0.332
82449SOL    HW149244   6.203   1.580   0.407
82449SOL    HW249245   6.210   1.433   0.371
82450SOL     OW49246  14.293  12.107   2.803
82450SOL    HW149247  14.301  12.100   2.707
82450SOL    HW249248  14.329  12.194   2.823
82451SOL     OW49249  14.381   1.755   1.912
82451SOL    HW149250  14.430   1.760   1.994
82451SOL    HW249251  14.350   1.665   1.908
82452SOL     OW49252  11.835   1.935  12.255
82452SOL    HW149253  11.919   1.933  12.210
82452SOL    HW249254  11.858   1.943  12.348
82453SOL     OW49255   9.205   0.584   2.496
82453SOL    HW149256   9.221   0.531   2.574
82453SOL    HW249257   9.263   0.659   2.507
82454SOL     OW49258   9.917   9.772   0.092
82454SOL    HW149259   9.862   9.697   0.071
82454SOL    HW249260   9.857   9.847   0.090
82455SOL     OW49261   3.409  13.098   0.271
82455SOL    HW149262   3.444  13.186   0.253
82455SOL    HW249263   3.350  13.080   0.198
82456SOL     OW49264   5.282   5.988   6.901
82456SOL    HW149265   5.298   5.981   6.995
82456SOL    HW249266   5.280   6.082   6.884
82457SOL     OW49267   5.321   8.564   8.289
82457SOL    HW149268   5.246   8.558   8.348
82457SOL    HW249269   5.370   8.484   8.304
82458SOL     OW49270   4.032   8.281   5.183
82458SOL    HW149271   4.022   8.373   5.159
82458SOL    HW249272   4.115   8.278   5.230
82459SOL     OW49273   7.970   5.763   9.062
82459SOL    HW149274   7.977   5.673   9.093
82459SOL    HW249275   7.894   5.763   9.004
82460SOL     OW49276   3.257   4.767   3.900
82460SOL    HW149277   3.244   4.799   3.989
82460SOL    HW249278   3.257   4.846   3.846
82461SOL     OW49279   0.861   1.587  12.368
82461SOL    HW149280   0.781   1.565  12.416
82461SOL    HW249281   0.911   1.643  12.428
82462SOL     OW49282  10.660   5.844   8.479
82462SOL    HW149283  10.756   5.847   8.476
82462SOL    HW249284  10.640   5.750   8.483
82463SOL     OW49285   3.357  14.821   0.982
82463SOL    HW149286   3.338  14.773   1.063
82463SOL    HW249287   3.342  14.757   0.912
82464SOL     OW49288  13.258  11.650  13.141
82464SOL    HW149289  13.240  11.626  13.232
82464SOL    HW249290  13.190  11.605  13.091
82465SOL     OW49291  11.411   5.407  14.822
82465SOL    HW149292  11.392   5.500  14.812
82465SOL    HW249293  11.413   5.393   0.036
82466SOL     OW49294  13.042  10.893   1.475
82466SOL    HW149295  13.094  10.921   1.400
82466SOL    HW249296  13.106  10.867   1.541
82467SOL     OW49297  10.046   7.750   1.149
82467SOL    HW149298  10.049   7.783   1.059
82467SOL    HW249299   9.976   7.685   1.148
82468SOL     OW49300   1.383  13.890   2.228
82468SOL    HW149301   1.379  13.799   2.197
82468SOL    HW249302   1.441  13.886   2.305
82469SOL     OW49303   4.161   0.891   1.097
82469SOL    HW149304   4.155   0.805   1.054
82469SOL    HW249305   4.119   0.951   1.036
82470SOL     OW49306   4.129   9.504   6.261
82470SOL    HW149307   4.216   9.508   6.221
82470SOL    HW249308   4.146   9.502   6.355
82471SOL     OW49309   1.840  12.994   1.243
82471SOL    HW149310   1.843  12.983   1.338
82471SOL    HW249311   1.880  13.079   1.227
82472SOL     OW49312  11.428   7.544   4.275
82472SOL    HW149313  11.511   7.589   4.286
82472SOL    HW249314  11.427   7.518   4.183
82473SOL     OW49315   9.211   4.334   1.568
82473SOL    HW149316   9.201   4.253   1.618
82473SOL    HW249317   9.122   4.363   1.552
82474SOL     OW49318   8.482  12.902  13.781
82474SOL    HW149319   8.522  12.901  13.694
82474SOL    HW249320   8.394  12.867  13.767
82475SOL     OW49321   2.257  14.797  10.562
82475SOL    HW149322   2.350  14.779  10.550
82475SOL    HW249323   2.245  14.805  10.656
82476SOL     OW49324  11.845  12.593   5.412
82476SOL    HW149325  11.802  12.630   5.334
82476SOL    HW249326  11.796  12.630   5.485
82477SOL     OW49327   1.783   6.672   8.621
82477SOL    HW149328   1.815   6.635   8.703
82477SOL    HW249329   1.854   6.657   8.558
82478SOL     OW49330   9.773  13.107  11.347
82478SOL    HW149331   9.859  13.140  11.374
82478SOL    HW249332   9.713  13.178  11.366
82479SOL     OW49333  12.563   8.086   3.643
82479SOL    HW149334  12.543   8.153   3.709
82479SOL    HW249335  12.657   8.070   3.653
82480SOL     OW49336   7.418  12.694   5.801
82480SOL    HW149337   7.496  12.640   5.796
82480SOL    HW249338   7.415  12.740   5.717
82481SOL     OW49339   3.197   7.306  12.143
82481SOL    HW149340   3.236   7.226  12.179
82481SOL    HW249341   3.221   7.306  12.050
82482SOL     OW49342   6.988   0.921   0.225
82482SOL    HW149343   7.012   0.905   0.316
82482SOL    HW249344   7.009   1.013   0.210
82483SOL     OW49345   0.579   9.458   5.604
82483SOL    HW149346   0.652   9.520   5.606
82483SOL    HW249347   0.500   9.513   5.611
82484SOL     OW49348  14.774  12.719   0.587
82484SOL    HW149349  14.705  12.726   0.654
82484SOL    HW249350  14.814  12.634   0.603
82485SOL     OW49351  11.268  11.450  12.470
82485SOL    HW149352  11.173  11.446  12.481
82485SOL    HW249353  11.303  11.436  12.558
82486SOL     OW49354   7.265   6.684   3.571
82486SOL    HW149355   7.334   6.723   3.517
82486SOL    HW249356   7.279   6.720   3.659
82487SOL     OW49357  12.343  11.126   2.382
82487SOL    HW149358  12.436  11.106   2.396
82487SOL    HW249359  12.301  11.041   2.380
82488SOL     OW49360   1.861  11.924  13.486
82488SOL    HW149361   1.935  11.985  13.486
82488SOL    HW249362   1.899  11.841  13.515
82489SOL     OW49363  11.891   4.060   2.010
82489SOL    HW149364  11.969   4.091   2.057
82489SOL    HW249365  11.918   3.976   1.972
82490SOL     OW49366   2.153   3.255   9.689
82490SOL    HW149367   2.183   3.195   9.757
82490SOL    HW249368   2.204   3.231   9.612
82491SOL     OW49369   0.324   1.724  14.463
82491SOL    HW149370   0.288   1.637  14.445
82491SOL    HW249371   0.247   1.781  14.469
82492SOL     OW49372   5.033  14.568   0.041
82492SOL    HW149373   5.054  14.494  14.864
82492SOL    HW249374   4.981  14.529   0.111
82493SOL     OW49375  10.192  14.065  14.800
82493SOL    HW149376  10.206  13.976  14.833
82493SOL    HW249377  10.281  14.100  14.791
82494SOL     OW49378   1.459  10.623   8.702
82494SOL    HW149379   1.385  10.566   8.682
82494SOL    HW249380   1.520  10.610   8.629
82495SOL     OW49381  13.824  10.186   6.781
82495SOL    HW149382  13.747  10.201   6.726
82495SOL    HW249383  13.814  10.249   6.853
82496SOL     OW49384   9.912   8.917  12.407
82496SOL    HW149385   9.953   8.886  12.326
82496SOL    HW249386   9.896   8.837  12.457
82497SOL     OW49387  12.228  10.276   2.387
82497SOL    HW149388  12.267  10.198   2.347
82497SOL    HW249389  12.294  10.308   2.448
82498SOL     OW49390   3.709   2.465  10.943
82498SOL    HW149391   3.674   2.419  11.019
82498SOL    HW249392   3.707   2.558  10.969
82499SOL     OW49393  10.689   5.915   0.522
82499SOL    HW149394  10.632   5.929   0.447
82499SOL    HW249395  10.648   5.963   0.594
82500SOL     OW49396   3.916   1.800  13.360
82500SOL    HW149397   3.896   1.817  13.452
82500SOL    HW249398   3.971   1.721  13.361
82501SOL     OW49399   1.253   1.036   7.934
82501SOL    HW149400   1.283   1.017   8.023
82501SOL    HW249401   1.163   1.003   7.933
82502SOL     OW49402   7.829   6.340   5.966
82502SOL    HW149403   7.847   6.405   6.033
82502SOL    HW249404   7.882   6.367   5.891
82503SOL     OW49405  14.054  10.227   9.742
82503SOL    HW149406  14.085  10.317   9.736
82503SOL    HW249407  13.990  10.218   9.670
82504SOL     OW49408  11.086   7.476   3.008
82504SOL    HW149409  11.055   7.398   2.962
82504SOL    HW249410  11.177   7.458   3.029
82505SOL     OW49411  12.832  10.762   5.572
82505SOL    HW149412  12.863  10.691   5.627
82505SOL    HW249413  12.867  10.841   5.612
82506SOL     OW49414  10.757  10.014   6.568
82506SOL    HW149415  10.699  10.011   6.492
82506SOL    HW249416  10.834   9.963   6.543
82507SOL     OW49417   7.902   8.830  11.099
82507SOL    HW149418   7.906   8.909  11.153
82507SOL    HW249419   7.984   8.785  11.116
82508SOL     OW49420   1.452   0.100   3.284
82508SOL    HW149421   1.509   0.148   3.344
82508SOL    HW249422   1.364   0.114   3.317
82509SOL     OW49423   1.335   3.663   8.328
82509SOL    HW149424   1.385   3.663   8.410
82509SOL    HW249425   1.396   3.625   8.264
82510SOL     OW49426   9.385   4.232   9.936
82510SOL    HW149427   9.458   4.171   9.948
82510SOL    HW249428   9.366   4.264  10.024
82511SOL     OW49429  12.038   3.013   7.291
82511SOL    HW149430  12.039   2.964   7.373
82511SOL    HW249431  12.123   2.995   7.251
82512SOL     OW49432  13.191   9.268  14.487
82512SOL    HW149433  13.134   9.192  14.476
82512SOL    HW249434  13.267   9.235  14.534
82513SOL     OW49435  11.790  11.350   6.162
82513SOL    HW149436  11.787  11.415   6.092
82513SOL    HW249437  11.700  11.343   6.193
82514SOL     OW49438   6.032  12.867   1.208
82514SOL    HW149439   6.049  12.961   1.202
82514SOL    HW249440   6.062  12.843   1.296
82515SOL     OW49441   7.902  11.751  10.381
82515SOL    HW149442   7.981  11.794  10.350
82515SOL    HW249443   7.933  11.672  10.425
82516SOL     OW49444   9.154   1.031  14.258
82516SOL    HW149445   9.115   1.001  14.177
82516SOL    HW249446   9.113   1.116  14.275
82517SOL     OW49447   7.890   6.494   8.623
82517SOL    HW149448   7.801   6.521   8.645
82517SOL    HW249449   7.909   6.539   8.540
82518SOL     OW49450   1.870   4.166   7.229
82518SOL    HW149451   1.857   4.144   7.137
82518SOL    HW249452   1.903   4.085   7.269
82519SOL     OW49453   7.648   1.650   1.272
82519SOL    HW149454   7.586   1.583   1.300
82519SOL    HW249455   7.681   1.688   1.353
82520SOL     OW49456  10.365  12.144  14.575
82520SOL    HW149457  10.358  12.070  14.514
82520SOL    HW249458  10.459  12.162  14.579
82521SOL     OW49459  10.970   4.907   0.910
82521SOL    HW149460  10.922   4.871   0.984
82521SOL    HW249461  10.909   4.969   0.870
82522SOL     OW49462   9.163   6.235   2.777
82522SOL    HW149463   9.243   6.183   2.769
82522SOL    HW249464   9.161   6.261   2.869
82523SOL     OW49465   1.907  12.952   3.686
82523SOL    HW149466   1.868  12.882   3.633
82523SOL    HW249467   1.856  12.951   3.767
82524SOL     OW49468   0.041   0.664   5.087
82524SOL    HW149469   0.127   0.671   5.044
82524SOL    HW249470   0.017   0.572   5.077
82525SOL     OW49471   8.955   9.959   1.996
82525SOL    HW149472   9.032   9.920   2.035
82525SOL    HW249473   8.882   9.902   2.022
82526SOL     OW49474   4.490   3.884  10.076
82526SOL    HW149475   4.442   3.821  10.131
82526SOL    HW249476   4.516   3.832   9.999
82527SOL     OW49477  11.062   7.102   6.573
82527SOL    HW149478  11.114   7.182   6.566
82527SOL    HW249479  11.054   7.087   6.667
82528SOL     OW49480   5.234  12.156  14.050
82528SOL    HW149481   5.177  12.153  14.127
82528SOL    HW249482   5.179  12.124  13.978
82529SOL     OW49483   4.838   5.130   7.193
82529SOL    HW149484   4.780   5.158   7.122
82529SOL    HW249485   4.922   5.170   7.172
82530SOL     OW49486   3.863   1.921   9.474
82530SOL    HW149487   3.919   1.869   9.416
82530SOL    HW249488   3.775   1.889   9.458
82531SOL     OW49489   3.461   6.594  14.538
82531SOL    HW149490   3.455   6.594  14.633
82531SOL    HW249491   3.425   6.679  14.512
82532SOL     OW49492  14.302   3.175   6.844
82532SOL    HW149493  14.237   3.110   6.871
82532SOL    HW249494  14.254   3.233   6.784
82533SOL     OW49495  13.895   8.504   7.488
82533SOL    HW149496  13.859   8.589   7.463
82533SOL    HW249497  13.868   8.445   7.417
82534SOL     OW49498  13.546   5.422   3.349
82534SOL    HW149499  13.548   5.339   3.396
82534SOL    HW249500  13.637   5.437   3.322
82535SOL     OW49501  14.186   4.249   4.516
82535SOL    HW149502  14.101   4.235   4.557
82535SOL    HW249503  14.179   4.207   4.430
82536SOL     OW49504  14.165   7.181  12.333
82536SOL    HW149505  14.126   7.234  12.403
82536SOL    HW249506  14.245   7.145  12.371
82537SOL     OW49507   8.782   9.940  10.189
82537SOL    HW149508   8.764   9.979  10.103
82537SOL    HW249509   8.777   9.846  10.174
82538SOL     OW49510   1.839   8.831   5.455
82538SOL    HW149511   1.818   8.739   5.473
82538SOL    HW249512   1.878   8.830   5.368
82539SOL     OW49513   5.828  14.835   0.645
82539SOL    HW149514   5.856   0.029   0.698
82539SOL    HW249515   5.783  14.777   0.706
82540SOL     OW49516   7.843  14.818   4.621
82540SOL    HW149517   7.884  14.795   4.538
82540SOL    HW249518   7.783  14.747   4.639
82541SOL     OW49519   9.857   7.172   6.272
82541SOL    HW149520   9.823   7.205   6.189
82541SOL    HW249521   9.932   7.118   6.248
82542SOL     OW49522   0.941   1.801  11.986
82542SOL    HW149523   0.990   1.849  11.919
82542SOL    HW249524   0.980   1.713  11.986
82543SOL     OW49525   3.645   6.866   3.535
82543SOL    HW149526   3.722   6.809   3.537
82543SOL    HW249527   3.577   6.813   3.492
82544SOL     OW49528   3.589   2.570   9.993
82544SOL    HW149529   3.650   2.560   9.919
82544SOL    HW249530   3.531   2.494   9.986
82545SOL     OW49531   4.274   2.670  12.437
82545SOL    HW149532   4.218   2.609  12.390
82545SOL    HW249533   4.342   2.695  12.374
82546SOL     OW49534  13.584   3.636   2.461
82546SOL    HW149535  13.568   3.545   2.485
82546SOL    HW249536  13.597   3.681   2.545
82547SOL     OW49537  11.212   7.315   4.124
82547SOL    HW149538  11.186   7.391   4.175
82547SOL    HW249539  11.292   7.341   4.080
82548SOL     OW49540   6.188   9.768   9.147
82548SOL    HW149541   6.283   9.770   9.156
82548SOL    HW249542   6.156   9.811   9.226
82549SOL     OW49543  13.528   2.695   3.971
82549SOL    HW149544  13.593   2.753   3.932
82549SOL    HW249545  13.570   2.661   4.050
82550SOL     OW49546   9.780   0.037  11.559
82550SOL    HW149547   9.796   0.129  11.535
82550SOL    HW249548   9.863   0.007  11.594
82551SOL     OW49549   8.828  10.798  10.806
82551SOL    HW149550   8.839  10.870  10.744
82551SOL    HW249551   8.747  10.818  10.853
82552SOL     OW49552   4.839  11.060   8.666
82552SOL    HW149553   4.785  11.006   8.724
82552SOL    HW249554   4.796  11.146   8.665
82553SOL     OW49555  10.889  10.217   1.361
82553SOL    HW149556  10.906  10.310   1.377
82553SOL    HW249557  10.963  10.172   1.402
82554SOL     OW49558  10.965  11.509   3.277
82554SOL    HW149559  11.021  11.583   3.255
82554SOL    HW249560  11.022  11.432   3.268
82555SOL     OW49561   2.098   1.848   0.899
82555SOL    HW149562   2.031   1.913   0.920
82555SOL    HW249563   2.164   1.858   0.967
82556SOL     OW49564  13.439  13.493   3.110
82556SOL    HW149565  13.502  13.431   3.147
82556SOL    HW249566  13.363  13.439   3.087
82557SOL     OW49567   7.631   5.247   4.394
82557SOL    HW149568   7.658   5.224   4.482
82557SOL    HW249569   7.678   5.329   4.375
82558SOL     OW49570   1.122   9.201  10.787
82558SOL    HW149571   1.149   9.243  10.705
82558SOL    HW249572   1.049   9.144  10.761
82559SOL     OW49573   8.193   9.521  10.651
82559SOL    HW149574   8.106   9.547  10.681
82559SOL    HW249575   8.182   9.432  10.618
82560SOL     OW49576   5.141   7.840  14.104
82560SOL    HW149577   5.058   7.807  14.071
82560SOL    HW249578   5.135   7.935  14.095
82561SOL     OW49579   6.432   1.279   7.219
82561SOL    HW149580   6.429   1.185   7.237
82561SOL    HW249581   6.515   1.292   7.173
82562SOL     OW49582   8.299   0.228   7.151
82562SOL    HW149583   8.369   0.294   7.144
82562SOL    HW249584   8.322   0.162   7.085
82563SOL     OW49585  10.950   1.133  10.996
82563SOL    HW149586  10.893   1.094  11.063
82563SOL    HW249587  11.022   1.171  11.045
82564SOL     OW49588   6.774  10.843   9.737
82564SOL    HW149589   6.731  10.911   9.789
82564SOL    HW249590   6.861  10.834   9.777
82565SOL     OW49591  14.666   8.078   6.636
82565SOL    HW149592  14.646   8.172   6.627
82565SOL    HW249593  14.716   8.057   6.557
82566SOL     OW49594   3.929   1.588  10.602
82566SOL    HW149595   3.896   1.585  10.513
82566SOL    HW249596   3.852   1.571  10.657
82567SOL     OW49597   2.219   1.558   2.198
82567SOL    HW149598   2.269   1.584   2.275
82567SOL    HW249599   2.257   1.609   2.126
82568SOL     OW49600   2.778   8.694  10.324
82568SOL    HW149601   2.780   8.640  10.403
82568SOL    HW249602   2.773   8.784  10.357
82569SOL     OW49603  12.490   8.887   4.985
82569SOL    HW149604  12.580   8.899   4.952
82569SOL    HW249605  12.445   8.842   4.914
82570SOL     OW49606   0.461   6.666  13.154
82570SOL    HW149607   0.385   6.608  13.165
82570SOL    HW249608   0.426   6.742  13.108
82571SOL     OW49609   6.235   2.525  12.449
82571SOL    HW149610   6.167   2.576  12.494
82571SOL    HW249611   6.222   2.436  12.481
82572SOL     OW49612   5.565   8.561  12.784
82572SOL    HW149613   5.517   8.482  12.812
82572SOL    HW249614   5.614   8.533  12.707
82573SOL     OW49615   4.400   0.689  12.767
82573SOL    HW149616   4.480   0.689  12.714
82573SOL    HW249617   4.413   0.758  12.831
82574SOL     OW49618   3.822   2.127   7.544
82574SOL    HW149619   3.874   2.199   7.581
82574SOL    HW249620   3.854   2.119   7.454
82575SOL     OW49621   0.241   7.419   7.302
82575SOL    HW149622   0.206   7.497   7.344
82575SOL    HW249623   0.318   7.449   7.254
82576SOL     OW49624   9.362  11.058   2.794
82576SOL    HW149625   9.270  11.033   2.786
82576SOL    HW249626   9.362  11.153   2.789
82577SOL     OW49627   6.554   5.385  12.264
82577SOL    HW149628   6.521   5.319  12.203
82577SOL    HW249629   6.597   5.450  12.209
82578SOL     OW49630   5.094   3.845  12.540
82578SOL    HW149631   5.120   3.896  12.463
82578SOL    HW249632   4.999   3.844  12.537
82579SOL     OW49633   4.748  12.848  11.277
82579SOL    HW149634   4.760  12.792  11.200
82579SOL    HW249635   4.725  12.787  11.347
82580SOL     OW49636   0.004   9.353   9.982
82580SOL    HW149637  14.795   9.386   9.971
82580SOL    HW249638   0.021   9.359  10.076
82581SOL     OW49639  10.070   9.306   3.574
82581SOL    HW149640  10.164   9.303   3.592
82581SOL    HW249641  10.033   9.235   3.627
82582SOL     OW49642  11.982   0.014   0.786
82582SOL    HW149643  11.904  14.838   0.785
82582SOL    HW249644  11.998   0.030   0.879
82583SOL     OW49645   4.377  10.913   3.547
82583SOL    HW149646   4.421  10.878   3.624
82583SOL    HW249647   4.353  10.836   3.495
82584SOL     OW49648   8.332  12.041  12.954
82584SOL    HW149649   8.422  12.074  12.955
82584SOL    HW249650   8.322  11.999  12.869
82585SOL     OW49651   6.986   1.770   2.666
82585SOL    HW149652   6.996   1.822   2.587
82585SOL    HW249653   6.891   1.767   2.682
82586SOL     OW49654   8.985   8.589   5.424
82586SOL    HW149655   8.990   8.572   5.330
82586SOL    HW249656   9.069   8.632   5.444
82587SOL     OW49657  14.578   9.098   7.369
82587SOL    HW149658  14.669   9.114   7.395
82587SOL    HW249659  14.549   9.182   7.332
82588SOL     OW49660   0.175   1.692   7.115
82588SOL    HW149661   0.126   1.754   7.060
82588SOL    HW249662   0.246   1.743   7.152
82589SOL     OW49663   0.140  14.447   5.950
82589SOL    HW149664   0.145  14.541   5.932
82589SOL    HW249665   0.177  14.437   6.038
82590SOL     OW49666   4.246  13.857   7.891
82590SOL    HW149667   4.290  13.778   7.922
82590SOL    HW249668   4.171  13.824   7.841
82591SOL     OW49669   7.448   2.462   7.416
82591SOL    HW149670   7.355   2.441   7.408
82591SOL    HW249671   7.490   2.414   7.345
82592SOL     OW49672  12.713   7.634   8.309
82592SOL    HW149673  12.648   7.565   8.320
82592SOL    HW249674  12.797   7.589   8.319
82593SOL     OW49675   7.029  11.895   0.511
82593SOL    HW149676   6.970  11.852   0.448
82593SOL    HW249677   7.116  11.878   0.477
82594SOL     OW49678  14.404  13.315  13.103
82594SOL    HW149679  14.484  13.275  13.068
82594SOL    HW249680  14.398  13.283  13.193
82595SOL     OW49681  10.665   2.025   0.012
82595SOL    HW149682  10.735   2.079   0.048
82595SOL    HW249683  10.601   2.087  14.858
82596SOL     OW49684   8.648   5.214   5.149
82596SOL    HW149685   8.657   5.170   5.065
82596SOL    HW249686   8.619   5.302   5.126
82597SOL     OW49687   0.035   2.571   7.479
82597SOL    HW149688   0.010   2.499   7.537
82597SOL    HW249689  14.874   2.648   7.517
82598SOL     OW49690   3.318  11.768   2.478
82598SOL    HW149691   3.276  11.853   2.467
82598SOL    HW249692   3.341  11.765   2.571
82599SOL     OW49693   3.719   0.264   7.455
82599SOL    HW149694   3.782   0.204   7.415
82599SOL    HW249695   3.635   0.240   7.417
82600SOL     OW49696   3.030  14.819   1.806
82600SOL    HW149697   2.976  14.866   1.742
82600SOL    HW249698   3.050  14.736   1.763
82601SOL     OW49699   4.141  13.510   7.550
82601SOL    HW149700   4.061  13.561   7.561
82601SOL    HW249701   4.166  13.523   7.459
82602SOL     OW49702  11.017   5.375   2.219
82602SOL    HW149703  10.947   5.402   2.159
82602SOL    HW249704  11.050   5.457   2.255
82603SOL     OW49705   2.818   8.545   8.154
82603SOL    HW149706   2.734   8.546   8.109
82603SOL    HW249707   2.883   8.543   8.083
82604SOL     OW49708   0.101   3.495  13.042
82604SOL    HW149709   0.032   3.529  12.986
82604SOL    HW249710   0.076   3.524  13.130
82605SOL     OW49711  13.563  12.973  13.975
82605SOL    HW149712  13.650  13.007  13.999
82605SOL    HW249713  13.518  12.963  14.059
82606SOL     OW49714   9.031   7.105  11.321
82606SOL    HW149715   8.989   7.105  11.235
82606SOL    HW249716   9.081   7.023  11.323
82607SOL     OW49717  12.201  12.613   5.268
82607SOL    HW149718  12.167  12.574   5.187
82607SOL    HW249719  12.195  12.542   5.332
82608SOL     OW49720   6.206  13.695   1.891
82608SOL    HW149721   6.255  13.755   1.947
82608SOL    HW249722   6.139  13.750   1.850
82609SOL     OW49723   1.281   0.139   6.843
82609SOL    HW149724   1.258   0.210   6.783
82609SOL    HW249725   1.201   0.088   6.850
82610SOL     OW49726  13.937  11.789   4.150
82610SOL    HW149727  13.888  11.716   4.112
82610SOL    HW249728  14.022  11.751   4.172
82611SOL     OW49729   1.666   9.531   9.302
82611SOL    HW149730   1.725   9.573   9.240
82611SOL    HW249731   1.648   9.598   9.368
82612SOL     OW49732   4.174   8.609  12.219
82612SOL    HW149733   4.160   8.697  12.253
82612SOL    HW249734   4.124   8.605  12.138
82613SOL     OW49735   2.009   8.183   4.113
82613SOL    HW149736   2.028   8.226   4.029
82613SOL    HW249737   2.005   8.090   4.091
82614SOL     OW49738  10.483   9.792   0.621
82614SOL    HW149739  10.411   9.741   0.583
82614SOL    HW249740  10.562   9.748   0.591
82615SOL     OW49741   3.955   3.433  13.607
82615SOL    HW149742   3.920   3.512  13.647
82615SOL    HW249743   4.006   3.464  13.532
82616SOL     OW49744  11.181  10.088   1.833
82616SOL    HW149745  11.248  10.024   1.809
82616SOL    HW249746  11.151  10.061   1.920
82617SOL     OW49747  13.841   2.464   8.434
82617SOL    HW149748  13.779   2.524   8.394
82617SOL    HW249749  13.801   2.378   8.424
82618SOL     OW49750   3.255  12.271  11.597
82618SOL    HW149751   3.258  12.365  11.612
82618SOL    HW249752   3.214  12.234  11.675
82619SOL     OW49753   7.188  10.572   9.478
82619SOL    HW149754   7.155  10.539   9.394
82619SOL    HW249755   7.274  10.609   9.456
82620SOL     OW49756   7.082   8.104  11.731
82620SOL    HW149757   7.034   8.175  11.774
82620SOL    HW249758   7.013   8.048  11.695
82621SOL     OW49759  12.978   1.423  13.009
82621SOL    HW149760  12.957   1.469  12.928
82621SOL    HW249761  12.921   1.462  13.075
82622SOL     OW49762   1.955   0.513  11.713
82622SOL    HW149763   1.996   0.441  11.761
82622SOL    HW249764   1.861   0.499  11.724
82623SOL     OW49765   4.375  14.575   3.338
82623SOL    HW149766   4.330  14.659   3.351
82623SOL    HW249767   4.307  14.516   3.306
82624SOL     OW49768   7.513   7.842   5.480
82624SOL    HW149769   7.474   7.755   5.471
82624SOL    HW249770   7.449   7.902   5.444
82625SOL     OW49771   6.292   4.698   6.004
82625SOL    HW149772   6.215   4.740   6.043
82625SOL    HW249773   6.324   4.639   6.071
82626SOL     OW49774  14.384   5.777   3.233
82626SOL    HW149775  14.362   5.838   3.163
82626SOL    HW249776  14.335   5.810   3.309
82627SOL     OW49777   4.369   6.265  14.095
82627SOL    HW149778   4.436   6.334  14.104
82627SOL    HW249779   4.335   6.253  14.184
82628SOL     OW49780   1.879   3.910   2.076
82628SOL    HW149781   1.831   3.992   2.087
82628SOL    HW249782   1.813   3.841   2.087
82629SOL     OW49783  12.408  10.935   9.940
82629SOL    HW149784  12.364  10.852   9.923
82629SOL    HW249785  12.393  10.951  10.033
82630SOL     OW49786   9.889   2.585  13.351
82630SOL    HW149787   9.946   2.643  13.301
82630SOL    HW249788   9.949   2.532  13.403
82631SOL     OW49789  11.486   1.957  12.143
82631SOL    HW149790  11.413   1.898  12.163
82631SOL    HW249791  11.555   1.899  12.111
82632SOL     OW49792   9.753   4.327   9.074
82632SOL    HW149793   9.768   4.404   9.019
82632SOL    HW249794   9.839   4.306   9.110
82633SOL     OW49795   2.651   7.026  14.010
82633SOL    HW149796   2.740   7.029  13.973
82633SOL    HW249797   2.594   7.011  13.935
82634SOL     OW49798  13.409  13.788   9.050
82634SOL    HW149799  13.330  13.748   9.014
82634SOL    HW249800  13.397  13.882   9.035
82635SOL     OW49801  14.129  13.840   5.205
82635SOL    HW149802  14.177  13.873   5.281
82635SOL    HW249803  14.107  13.918   5.155
82636SOL     OW49804  11.400   5.284   9.934
82636SOL    HW149805  11.434   5.363   9.892
82636SOL    HW249806  11.324   5.314   9.984
82637SOL     OW49807   7.533   0.398   4.676
82637SOL    HW149808   7.548   0.303   4.676
82637SOL    HW249809   7.620   0.437   4.670
82638SOL     OW49810   7.620   2.957  10.798
82638SOL    HW149811   7.568   3.029  10.764
82638SOL    HW249812   7.669   2.994  10.872
82639SOL     OW49813   1.313   4.747  12.468
82639SOL    HW149814   1.303   4.834  12.506
82639SOL    HW249815   1.312   4.688  12.543
82640SOL     OW49816   9.252   7.491  14.162
82640SOL    HW149817   9.276   7.526  14.076
82640SOL    HW249818   9.226   7.567  14.213
82641SOL     OW49819   9.674   2.827  12.655
82641SOL    HW149820   9.691   2.803  12.746
82641SOL    HW249821   9.587   2.791  12.636
82642SOL     OW49822   5.291   6.765  11.082
82642SOL    HW149823   5.322   6.826  11.149
82642SOL    HW249824   5.370   6.722  11.049
82643SOL     OW49825  14.494   9.532   0.234
82643SOL    HW149826  14.580   9.548   0.196
82643SOL    HW249827  14.511   9.469   0.304
82644SOL     OW49828   1.797  10.563   6.258
82644SOL    HW149829   1.742  10.524   6.189
82644SOL    HW249830   1.749  10.641   6.286
82645SOL     OW49831   5.387   9.644  12.551
82645SOL    HW149832   5.390   9.727  12.503
82645SOL    HW249833   5.425   9.580  12.491
82646SOL     OW49834   0.685   3.563  12.849
82646SOL    HW149835   0.780   3.554  12.854
82646SOL    HW249836   0.658   3.590  12.936
82647SOL     OW49837  10.946   2.673   4.420
82647SOL    HW149838  10.945   2.727   4.340
82647SOL    HW249839  10.942   2.737   4.491
82648SOL     OW49840   1.042  12.383   7.572
82648SOL    HW149841   1.005  12.330   7.501
82648SOL    HW249842   1.131  12.351   7.582
82649SOL     OW49843   5.477   1.774   6.122
82649SOL    HW149844   5.403   1.802   6.176
82649SOL    HW249845   5.481   1.679   6.134
82650SOL     OW49846  14.577   8.367   2.656
82650SOL    HW149847  14.504   8.421   2.627
82650SOL    HW249848  14.563   8.356   2.750
82651SOL     OW49849   1.215  13.021  14.758
82651SOL    HW149850   1.143  12.961  14.738
82651SOL    HW249851   1.191  13.102  14.713
82652SOL     OW49852   6.891   5.100   3.362
82652SOL    HW149853   6.871   5.063   3.448
82652SOL    HW249854   6.917   5.190   3.380
82653SOL     OW49855  13.900   0.288   9.269
82653SOL    HW149856  13.986   0.250   9.250
82653SOL    HW249857  13.838   0.224   9.235
82654SOL     OW49858   5.484   6.758   8.835
82654SOL    HW149859   5.404   6.809   8.823
82654SOL    HW249860   5.468   6.676   8.787
82655SOL     OW49861   7.628   5.361  14.356
82655SOL    HW149862   7.557   5.312  14.396
82655SOL    HW249863   7.610   5.357  14.262
82656SOL     OW49864   4.639   8.840   9.400
82656SOL    HW149865   4.580   8.913   9.381
82656SOL    HW249866   4.681   8.864   9.482
82657SOL     OW49867   9.876   7.720  10.928
82657SOL    HW149868   9.885   7.695  11.020
82657SOL    HW249869   9.786   7.696  10.905
82658SOL     OW49870   4.130   5.823   6.457
82658SOL    HW149871   4.108   5.845   6.367
82658SOL    HW249872   4.218   5.859   6.470
82659SOL     OW49873  11.323   4.011   0.958
82659SOL    HW149874  11.417   4.025   0.946
82659SOL    HW249875  11.302   3.937   0.901
82660SOL     OW49876   1.968   9.318  14.853
82660SOL    HW149877   2.010   9.255  14.795
82660SOL    HW249878   2.024   9.396  14.849
82661SOL     OW49879  11.839  10.532  13.985
82661SOL    HW149880  11.860  10.533  13.892
82661SOL    HW249881  11.748  10.561  13.990
82662SOL     OW49882   2.727   0.991   6.265
82662SOL    HW149883   2.717   1.078   6.226
82662SOL    HW249884   2.675   0.995   6.345
82663SOL     OW49885   2.275   2.026  13.083
82663SOL    HW149886   2.333   2.070  13.021
82663SOL    HW249887   2.300   2.062  13.168
82664SOL     OW49888   5.804  12.782   0.684
82664SOL    HW149889   5.831  12.691   0.686
82664SOL    HW249890   5.767  12.795   0.597
82665SOL     OW49891   4.208  13.131   9.678
82665SOL    HW149892   4.165  13.069   9.738
82665SOL    HW249893   4.191  13.095   9.591
82666SOL     OW49894   2.969   0.763  11.040
82666SOL    HW149895   2.991   0.670  11.031
82666SOL    HW249896   3.053   0.808  11.034
82667SOL     OW49897   1.287   7.431   4.474
82667SOL    HW149898   1.283   7.457   4.566
82667SOL    HW249899   1.229   7.492   4.428
82668SOL     OW49900   3.972  10.445   2.015
82668SOL    HW149901   3.942  10.521   2.064
82668SOL    HW249902   4.001  10.480   1.931
82669SOL     OW49903  12.397  11.302   1.063
82669SOL    HW149904  12.461  11.368   1.089
82669SOL    HW249905  12.444  11.245   1.002
82670SOL     OW49906   6.104   9.046   8.679
82670SOL    HW149907   6.172   8.999   8.727
82670SOL    HW249908   6.061   8.978   8.627
82671SOL     OW49909  10.878  11.962   2.765
82671SOL    HW149910  10.873  11.891   2.829
82671SOL    HW249911  10.795  11.958   2.718
82672SOL     OW49912  14.494   4.110  10.029
82672SOL    HW149913  14.529   4.147   9.948
82672SOL    HW249914  14.513   4.016  10.023
82673SOL     OW49915   2.556   3.460   6.610
82673SOL    HW149916   2.573   3.506   6.528
82673SOL    HW249917   2.471   3.418   6.597
82674SOL     OW49918   9.023  11.246   2.929
82674SOL    HW149919   8.960  11.318   2.939
82674SOL    HW249920   8.994  11.180   2.992
82675SOL     OW49921   8.013   5.285   6.777
82675SOL    HW149922   7.931   5.298   6.824
82675SOL    HW249923   8.035   5.193   6.792
82676SOL     OW49924  10.910   7.707   0.843
82676SOL    HW149925  10.899   7.798   0.871
82676SOL    HW249926  10.947   7.713   0.755
82677SOL     OW49927   8.223   8.169   7.091
82677SOL    HW149928   8.277   8.129   7.023
82677SOL    HW249929   8.285   8.192   7.161
82678SOL     OW49930   6.136   3.905  11.124
82678SOL    HW149931   6.055   3.883  11.077
82678SOL    HW249932   6.111   3.975  11.183
82679SOL     OW49933  12.314   9.502   0.705
82679SOL    HW149934  12.223   9.502   0.678
82679SOL    HW249935  12.312   9.489   0.799
82680SOL     OW49936   1.542   3.242   1.807
82680SOL    HW149937   1.461   3.284   1.838
82680SOL    HW249938   1.555   3.168   1.866
82681SOL     OW49939   7.846   3.511   2.325
82681SOL    HW149940   7.826   3.605   2.327
82681SOL    HW249941   7.923   3.502   2.380
82682SOL     OW49942  11.982   2.630  13.925
82682SOL    HW149943  11.963   2.660  13.836
82682SOL    HW249944  11.940   2.695  13.982
82683SOL     OW49945   3.248  12.401   9.519
82683SOL    HW149946   3.343  12.408   9.515
82683SOL    HW249947   3.217  12.492   9.517
82684SOL     OW49948  10.439  13.296   4.906
82684SOL    HW149949  10.416  13.312   4.998
82684SOL    HW249950  10.510  13.232   4.911
82685SOL     OW49951   7.785   6.689   3.128
82685SOL    HW149952   7.861   6.650   3.170
82685SOL    HW249953   7.726   6.711   3.201
82686SOL     OW49954   2.207   4.037   8.168
82686SOL    HW149955   2.227   3.961   8.222
82686SOL    HW249956   2.148   4.004   8.100
82687SOL     OW49957  11.711  13.398   9.248
82687SOL    HW149958  11.653  13.362   9.315
82687SOL    HW249959  11.731  13.324   9.191
82688SOL     OW49960   5.808   1.329   3.358
82688SOL    HW149961   5.834   1.330   3.450
82688SOL    HW249962   5.721   1.289   3.358
82689SOL     OW49963   8.221   8.643   5.588
82689SOL    HW149964   8.159   8.686   5.647
82689SOL    HW249965   8.236   8.557   5.627
82690SOL     OW49966   5.130   7.586   1.496
82690SOL    HW149967   5.111   7.679   1.486
82690SOL    HW249968   5.047   7.543   1.477
82691SOL     OW49969   8.212   2.053  12.863
82691SOL    HW149970   8.159   1.995  12.918
82691SOL    HW249971   8.204   2.139  12.904
82692SOL     OW49972   4.907   9.924  10.054
82692SOL    HW149973   4.820   9.947  10.022
82692SOL    HW249974   4.891   9.856  10.119
82693SOL     OW49975   9.907   5.556   5.518
82693SOL    HW149976   9.840   5.614   5.483
82693SOL    HW249977   9.858   5.478   5.546
82694SOL     OW49978   0.794   1.589   4.716
82694SOL    HW149979   0.836   1.663   4.759
82694SOL    HW249980   0.744   1.627   4.644
82695SOL     OW49981   8.296   7.571  12.286
82695SOL    HW149982   8.339   7.636  12.342
82695SOL    HW249983   8.236   7.525  12.344
82696SOL     OW49984   7.258   9.123   9.134
82696SOL    HW149985   7.351   9.116   9.156
82696SOL    HW249986   7.213   9.070   9.200
82697SOL     OW49987   1.892   2.283   5.507
82697SOL    HW149988   1.865   2.213   5.449
82697SOL    HW249989   1.927   2.238   5.584
82698SOL     OW49990   9.415  12.543   8.988
82698SOL    HW149991   9.358  12.539   9.065
82698SOL    HW249992   9.371  12.606   8.930
82699SOL     OW49993   3.930   3.364   8.085
82699SOL    HW149994   3.981   3.300   8.036
82699SOL    HW249995   3.844   3.324   8.095
82700SOL     OW49996   5.521   2.935   7.666
82700SOL    HW149997   5.447   2.991   7.643
82700SOL    HW249998   5.497   2.896   7.750
82701SOL     OW49999  14.237   9.700  10.481
82701SOL    HW150000  14.200   9.711  10.568
82701SOL    HW250001  14.177   9.640  10.437
82702SOL     OW50002   7.715  10.010   4.397
82702SOL    HW150003   7.710  10.093   4.444
82702SOL    HW250004   7.773  10.028   4.323
82703SOL     OW50005  11.461  13.219   3.845
82703SOL    HW150006  11.379  13.192   3.887
82703SOL    HW250007  11.530  13.180   3.899
82704SOL     OW50008  12.275   0.357   6.475
82704SOL    HW150009  12.328   0.288   6.435
82704SOL    HW250010  12.194   0.313   6.500
82705SOL     OW50011  11.845   1.281   9.114
82705SOL    HW150012  11.836   1.371   9.144
82705SOL    HW250013  11.755   1.251   9.101
82706SOL     OW50014   8.616   2.390   9.737
82706SOL    HW150015   8.648   2.440   9.662
82706SOL    HW250016   8.659   2.431   9.812
82707SOL     OW50017   1.296   4.957  13.249
82707SOL    HW150018   1.354   5.007  13.192
82707SOL    HW250019   1.210   4.962  13.206
82708SOL     OW50020   8.123   9.912   9.082
82708SOL    HW150021   8.117   9.987   9.141
82708SOL    HW250022   8.049   9.856   9.107
82709SOL     OW50023   1.370   6.252   8.218
82709SOL    HW150024   1.301   6.316   8.199
82709SOL    HW250025   1.323   6.172   8.239
82710SOL     OW50026  14.662   0.605  10.884
82710SOL    HW150027  14.696   0.607  10.795
82710SOL    HW250028  14.720   0.665  10.933
82711SOL     OW50029  14.238  12.828   3.768
82711SOL    HW150030  14.152  12.802   3.802
82711SOL    HW250031  14.220  12.871   3.685
82712SOL     OW50032   9.369   1.255   8.358
82712SOL    HW150033   9.447   1.289   8.314
82712SOL    HW250034   9.402   1.200   8.429
82713SOL     OW50035   8.602   4.581   4.114
82713SOL    HW150036   8.597   4.631   4.196
82713SOL    HW250037   8.571   4.642   4.047
82714SOL     OW50038   6.094  11.891   7.524
82714SOL    HW150039   6.129  11.921   7.608
82714SOL    HW250040   6.155  11.925   7.459
82715SOL     OW50041  14.727   8.494   6.760
82715SOL    HW150042  14.731   8.457   6.848
82715SOL    HW250043  14.633   8.501   6.741
82716SOL     OW50044  10.631  14.093   2.491
82716SOL    HW150045  10.726  14.090   2.484
82716SOL    HW250046  10.611  14.184   2.514
82717SOL     OW50047   6.140   8.630  11.425
82717SOL    HW150048   6.144   8.649  11.331
82717SOL    HW250049   6.202   8.558  11.437
82718SOL     OW50050  11.730  12.549  11.313
82718SOL    HW150051  11.642  12.537  11.349
82718SOL    HW250052  11.789  12.534  11.387
82719SOL     OW50053   7.960   3.281  13.251
82719SOL    HW150054   7.946   3.188  13.237
82719SOL    HW250055   7.945   3.294  13.344
82720SOL     OW50056  12.754  11.532   8.513
82720SOL    HW150057  12.789  11.479   8.584
82720SOL    HW250058  12.827  11.587   8.485
82721SOL     OW50059   4.780   8.548  12.816
82721SOL    HW150060   4.866   8.507  12.821
82721SOL    HW250061   4.720   8.476  12.800
82722SOL     OW50062   1.967   5.547   3.433
82722SOL    HW150063   2.015   5.557   3.350
82722SOL    HW250064   1.980   5.630   3.479
82723SOL     OW50065   7.339   2.320  14.782
82723SOL    HW150066   7.387   2.241  14.757
82723SOL    HW250067   7.344   2.377  14.705
82724SOL     OW50068   3.100   9.265  14.152
82724SOL    HW150069   3.170   9.323  14.182
82724SOL    HW250070   3.140   9.178  14.150
82725SOL     OW50071   1.933   2.284  11.634
82725SOL    HW150072   1.863   2.350  11.641
82725SOL    HW250073   1.888   2.200  11.644
82726SOL     OW50074   4.576   7.535   5.366
82726SOL    HW150075   4.579   7.610   5.425
82726SOL    HW250076   4.653   7.546   5.309
82727SOL     OW50077   7.654  13.597   3.883
82727SOL    HW150078   7.720  13.643   3.830
82727SOL    HW250079   7.600  13.551   3.818
82728SOL     OW50080   2.101   0.947  12.803
82728SOL    HW150081   2.187   0.925  12.766
82728SOL    HW250082   2.047   0.969  12.727
82729SOL     OW50083   7.489  10.370   4.582
82729SOL    HW150084   7.569  10.368   4.634
82729SOL    HW250085   7.422  10.400   4.644
82730SOL     OW50086  11.615   4.897   0.170
82730SOL    HW150087  11.681   4.862   0.230
82730SOL    HW250088  11.666   4.924   0.093
82731SOL     OW50089  14.634   2.366   8.246
82731SOL    HW150090  14.629   2.456   8.213
82731SOL    HW250091  14.590   2.313   8.179
82732SOL     OW50092   2.695   5.741   3.830
82732SOL    HW150093   2.677   5.649   3.813
82732SOL    HW250094   2.775   5.759   3.781
82733SOL     OW50095  12.679   1.814   9.788
82733SOL    HW150096  12.722   1.810   9.873
82733SOL    HW250097  12.708   1.896   9.750
82734SOL     OW50098   5.914   6.447  10.525
82734SOL    HW150099   5.840   6.398  10.489
82734SOL    HW250100   5.921   6.524  10.468
82735SOL     OW50101  10.528   2.600  13.004
82735SOL    HW150102  10.564   2.688  13.015
82735SOL    HW250103  10.557   2.553  13.082
82736SOL     OW50104  14.535   5.207   6.029
82736SOL    HW150105  14.602   5.269   6.058
82736SOL    HW250106  14.454   5.240   6.068
82737SOL     OW50107  11.560   9.193   0.783
82737SOL    HW150108  11.488   9.129   0.781
82737SOL    HW250109  11.573   9.211   0.876
82738SOL     OW50110   9.919  10.340   7.540
82738SOL    HW150111   9.923  10.247   7.517
82738SOL    HW250112   9.889  10.383   7.460
82739SOL     OW50113   7.919  11.582   1.645
82739SOL    HW150114   7.979  11.618   1.710
82739SOL    HW250115   7.892  11.498   1.681
82740SOL     OW50116  13.966   5.725  10.876
82740SOL    HW150117  13.994   5.733  10.967
82740SOL    HW250118  14.000   5.803  10.833
82741SOL     OW50119   4.677   5.313  11.670
82741SOL    HW150120   4.762   5.298  11.712
82741SOL    HW250121   4.623   5.351  11.739
82742SOL     OW50122  11.128  11.679   2.191
82742SOL    HW150123  11.200  11.712   2.138
82742SOL    HW250124  11.121  11.740   2.264
82743SOL     OW50125  13.076   1.497   2.733
82743SOL    HW150126  13.102   1.433   2.799
82743SOL    HW250127  13.147   1.497   2.669
82744SOL     OW50128   1.414   3.954  10.763
82744SOL    HW150129   1.425   3.980  10.672
82744SOL    HW250130   1.499   3.973  10.804
82745SOL     OW50131   6.794   5.820  14.669
82745SOL    HW150132   6.870   5.868  14.702
82745SOL    HW250133   6.722   5.882  14.675
82746SOL     OW50134   7.357   9.037  13.635
82746SOL    HW150135   7.287   9.096  13.608
82746SOL    HW250136   7.312   8.955  13.657
82747SOL     OW50137   8.249  14.368   3.898
82747SOL    HW150138   8.245  14.454   3.941
82747SOL    HW250139   8.334  14.332   3.924
82748SOL     OW50140  11.479   4.454   7.304
82748SOL    HW150141  11.492   4.381   7.243
82748SOL    HW250142  11.511   4.421   7.388
82749SOL     OW50143   7.440   6.418  11.531
82749SOL    HW150144   7.424   6.364  11.608
82749SOL    HW250145   7.498   6.365  11.476
82750SOL     OW50146  11.433   0.374   6.667
82750SOL    HW150147  11.464   0.452   6.623
82750SOL    HW250148  11.503   0.351   6.728
82751SOL     OW50149   6.969   4.693  11.898
82751SOL    HW150150   7.045   4.747  11.923
82751SOL    HW250151   6.940   4.653  11.979
82752SOL     OW50152   2.298  12.735   8.020
82752SOL    HW150153   2.239  12.693   7.958
82752SOL    HW250154   2.306  12.672   8.092
82753SOL     OW50155   4.682   8.757  10.286
82753SOL    HW150156   4.744   8.792  10.350
82753SOL    HW250157   4.602   8.740  10.336
82754SOL     OW50158   5.676   0.220   7.836
82754SOL    HW150159   5.586   0.250   7.849
82754SOL    HW250160   5.668   0.136   7.791
82755SOL     OW50161   5.086   4.350  12.646
82755SOL    HW150162   5.084   4.395  12.562
82755SOL    HW250163   5.081   4.419  12.712
82756SOL     OW50164   4.510   9.826  12.056
82756SOL    HW150165   4.558   9.745  12.043
82756SOL    HW250166   4.453   9.833  11.979
82757SOL     OW50167   8.678   7.276   6.962
82757SOL    HW150168   8.629   7.344   7.007
82757SOL    HW250169   8.733   7.237   7.031
82758SOL     OW50170  10.262   2.108   2.266
82758SOL    HW150171  10.207   2.184   2.287
82758SOL    HW250172  10.252   2.098   2.172
82759SOL     OW50173   4.816   3.810   0.872
82759SOL    HW150174   4.805   3.780   0.963
82759SOL    HW250175   4.729   3.838   0.845
82760SOL     OW50176   2.182   3.434   6.931
82760SOL    HW150177   2.260   3.489   6.938
82760SOL    HW250178   2.198   3.360   6.990
82761SOL     OW50179   6.938   4.417   6.122
82761SOL    HW150180   6.971   4.492   6.171
82761SOL    HW250181   6.868   4.381   6.177
82762SOL     OW50182  12.909   5.074  14.383
82762SOL    HW150183  12.894   4.985  14.352
82762SOL    HW250184  13.003   5.088  14.370
82763SOL     OW50185   1.051   2.302   6.473
82763SOL    HW150186   1.080   2.287   6.563
82763SOL    HW250187   1.129   2.286   6.420
82764SOL     OW50188   8.469   5.357   9.251
82764SOL    HW150189   8.462   5.368   9.156
82764SOL    HW250190   8.546   5.409   9.276
82765SOL     OW50191   5.854   0.971   5.073
82765SOL    HW150192   5.886   0.973   5.163
82765SOL    HW250193   5.769   0.927   5.079
82766SOL     OW50194   2.126   6.755   8.302
82766SOL    HW150195   2.164   6.721   8.221
82766SOL    HW250196   2.039   6.786   8.276
82767SOL     OW50197   1.219   0.738   6.799
82767SOL    HW150198   1.150   0.771   6.857
82767SOL    HW250199   1.175   0.676   6.742
82768SOL     OW50200   1.766  14.124   0.119
82768SOL    HW150201   1.734  14.178   0.191
82768SOL    HW250202   1.769  14.183   0.044
82769SOL     OW50203   0.084  14.784  13.992
82769SOL    HW150204   0.066  14.877  14.002
82769SOL    HW250205   0.040  14.760  13.910
82770SOL     OW50206   2.032   1.463  12.820
82770SOL    HW150207   1.971   1.536  12.809
82770SOL    HW250208   1.976   1.387  12.835
82771SOL     OW50209   2.355   5.011  14.825
82771SOL    HW150210   2.302   4.956  14.768
82771SOL    HW250211   2.391   4.951   0.010
82772SOL     OW50212   1.561  13.450   3.459
82772SOL    HW150213   1.619  13.375   3.474
82772SOL    HW250214   1.601  13.497   3.386
82773SOL     OW50215   7.929   5.802  11.976
82773SOL    HW150216   7.937   5.796  12.072
82773SOL    HW250217   7.891   5.718  11.951
82774SOL     OW50218  12.977   7.969   6.413
82774SOL    HW150219  13.019   8.017   6.484
82774SOL    HW250220  12.883   7.980   6.429
82775SOL     OW50221   4.738   3.532  11.010
82775SOL    HW150222   4.827   3.510  10.982
82775SOL    HW250223   4.703   3.583  10.937
82776SOL     OW50224   2.024   7.584   8.382
82776SOL    HW150225   2.014   7.498   8.341
82776SOL    HW250226   2.000   7.570   8.474
82777SOL     OW50227   5.315   2.493  11.258
82777SOL    HW150228   5.338   2.534  11.175
82777SOL    HW250229   5.344   2.402  11.249
82778SOL     OW50230  11.130   8.953  12.942
82778SOL    HW150231  11.192   9.013  12.899
82778SOL    HW250232  11.058   9.009  12.970
82779SOL     OW50233   4.789   8.985   4.744
82779SOL    HW150234   4.773   9.051   4.812
82779SOL    HW250235   4.712   8.990   4.687
82780SOL     OW50236   5.745  11.524   7.754
82780SOL    HW150237   5.731  11.618   7.743
82780SOL    HW250238   5.682  11.483   7.694
82781SOL     OW50239  11.806  10.482  10.933
82781SOL    HW150240  11.757  10.406  10.964
82781SOL    HW250241  11.896  10.465  10.960
82782SOL     OW50242  14.599   4.368   5.032
82782SOL    HW150243  14.653   4.311   5.087
82782SOL    HW250244  14.540   4.411   5.094
82783SOL     OW50245  10.253   4.449   7.451
82783SOL    HW150246  10.341   4.449   7.487
82783SOL    HW250247  10.203   4.390   7.509
82784SOL     OW50248  14.751   8.756   6.073
82784SOL    HW150249  14.766   8.739   5.980
82784SOL    HW250250  14.693   8.686   6.101
82785SOL     OW50251   8.419   9.595  11.060
82785SOL    HW150252   8.500   9.545  11.066
82785SOL    HW250253   8.424   9.658  11.133
82786SOL     OW50254   0.349  13.350  12.788
82786SOL    HW150255   0.420  13.407  12.816
82786SOL    HW250256   0.382  13.261  12.805
82787SOL     OW50257  10.791   8.220   3.964
82787SOL    HW150258  10.783   8.305   4.008
82787SOL    HW250259  10.793   8.241   3.871
82788SOL     OW50260   1.377   8.842   0.804
82788SOL    HW150261   1.383   8.755   0.763
82788SOL    HW250262   1.362   8.824   0.897
82789SOL     OW50263   9.615  12.930   4.401
82789SOL    HW150264   9.658  12.983   4.468
82789SOL    HW250265   9.531  12.975   4.386
82790SOL     OW50266  14.389   1.428  13.236
82790SOL    HW150267  14.451   1.450  13.305
82790SOL    HW250268  14.309   1.402  13.283
82791SOL     OW50269   1.025   4.383  10.413
82791SOL    HW150270   1.024   4.290  10.391
82791SOL    HW250271   1.057   4.386  10.503
82792SOL     OW50272   8.550  13.410  13.528
82792SOL    HW150273   8.586  13.380  13.445
82792SOL    HW250274   8.459  13.382  13.526
82793SOL     OW50275   2.097   2.270   4.597
82793SOL    HW150276   2.112   2.178   4.576
82793SOL    HW250277   2.164   2.317   4.547
82794SOL     OW50278  14.599   6.702  10.805
82794SOL    HW150279  14.596   6.700  10.901
82794SOL    HW250280  14.508   6.685  10.779
82795SOL     OW50281   0.610  10.314   9.776
82795SOL    HW150282   0.663  10.340   9.851
82795SOL    HW250283   0.528  10.283   9.814
82796SOL     OW50284   6.963  11.121   9.125
82796SOL    HW150285   6.978  11.033   9.160
82796SOL    HW250286   7.043  11.169   9.144
82797SOL     OW50287   2.833   9.877  13.506
82797SOL    HW150288   2.876   9.953  13.546
82797SOL    HW250289   2.809   9.821  13.580
82798SOL     OW50290  13.453   6.878   5.478
82798SOL    HW150291  13.438   6.806   5.539
82798SOL    HW250292  13.518   6.844   5.416
82799SOL     OW50293   6.077  10.688   2.062
82799SOL    HW150294   6.146  10.754   2.076
82799SOL    HW250295   6.085  10.629   2.136
82800SOL     OW50296   6.881   1.409   7.435
82800SOL    HW150297   6.860   1.389   7.526
82800SOL    HW250298   6.836   1.491   7.417
82801SOL     OW50299  13.688   7.399   7.040
82801SOL    HW150300  13.767   7.451   7.057
82801SOL    HW250301  13.617   7.449   7.081
82802SOL     OW50302  10.986  14.537  12.760
82802SOL    HW150303  11.078  14.509  12.765
82802SOL    HW250304  10.982  14.616  12.814
82803SOL     OW50305   5.216  13.021  12.547
82803SOL    HW150306   5.208  13.043  12.454
82803SOL    HW250307   5.274  12.944  12.548
82804SOL     OW50308   4.224   7.997  11.740
82804SOL    HW150309   4.177   7.957  11.814
82804SOL    HW250310   4.274   8.068  11.779
82805SOL     OW50311  13.786   3.623  11.161
82805SOL    HW150312  13.732   3.635  11.083
82805SOL    HW250313  13.863   3.576  11.129
82806SOL     OW50314  14.250   2.801  12.840
82806SOL    HW150315  14.194   2.819  12.915
82806SOL    HW250316  14.202   2.735  12.790
82807SOL     OW50317  11.759   8.474  14.278
82807SOL    HW150318  11.679   8.492  14.228
82807SOL    HW250319  11.733   8.409  14.343
82808SOL     OW50320   2.380   0.216   9.954
82808SOL    HW150321   2.326   0.274   9.900
82808SOL    HW250322   2.428   0.164   9.890
82809SOL     OW50323   8.587   7.479   2.967
82809SOL    HW150324   8.633   7.551   3.011
82809SOL    HW250325   8.613   7.401   3.017
82810SOL     OW50326   6.586  13.643  10.859
82810SOL    HW150327   6.497  13.622  10.887
82810SOL    HW250328   6.600  13.733  10.887
82811SOL     OW50329   9.684   8.264   5.432
82811SOL    HW150330   9.766   8.223   5.459
82811SOL    HW250331   9.642   8.292   5.514
82812SOL     OW50332   5.063   9.237   1.709
82812SOL    HW150333   5.063   9.156   1.658
82812SOL    HW250334   5.146   9.280   1.686
82813SOL     OW50335  11.873   4.270   1.157
82813SOL    HW150336  11.935   4.236   1.093
82813SOL    HW250337  11.798   4.211   1.150
82814SOL     OW50338   3.238  14.699   3.555
82814SOL    HW150339   3.282  14.615   3.545
82814SOL    HW250340   3.291  14.761   3.505
82815SOL     OW50341   5.262  14.287   2.141
82815SOL    HW150342   5.275  14.295   2.235
82815SOL    HW250343   5.172  14.254   2.132
82816SOL     OW50344  13.981   2.482  12.682
82816SOL    HW150345  14.018   2.503  12.768
82816SOL    HW250346  14.037   2.411  12.650
82817SOL     OW50347  13.064   1.678  14.534
82817SOL    HW150348  13.129   1.720  14.589
82817SOL    HW250349  13.057   1.735  14.457
82818SOL     OW50350   2.993   5.020   4.507
82818SOL    HW150351   3.059   5.015   4.576
82818SOL    HW250352   3.040   5.058   4.432
82819SOL     OW50353  11.195   4.770   0.275
82819SOL    HW150354  11.262   4.820   0.321
82819SOL    HW250355  11.237   4.686   0.255
82820SOL     OW50356  13.766  13.063  14.269
82820SOL    HW150357  13.679  13.091  14.295
82820SOL    HW250358  13.820  13.076  14.347
82821SOL     OW50359   3.263  12.789   4.223
82821SOL    HW150360   3.227  12.825   4.304
82821SOL    HW250361   3.201  12.721   4.197
82822SOL     OW50362  10.354  10.540   5.925
82822SOL    HW150363  10.346  10.635   5.931
82822SOL    HW250364  10.367  10.523   5.832
82823SOL     OW50365   6.066  12.338   7.525
82823SOL    HW150366   6.153  12.302   7.507
82823SOL    HW250367   6.031  12.361   7.439
82824SOL     OW50368   8.926   2.240   6.087
82824SOL    HW150369   8.930   2.204   5.998
82824SOL    HW250370   8.930   2.164   6.144
82825SOL     OW50371   4.443   3.757   1.133
82825SOL    HW150372   4.426   3.797   1.219
82825SOL    HW250373   4.539   3.758   1.125
82826SOL     OW50374  14.439   5.623  12.167
82826SOL    HW150375  14.344   5.624  12.183
82826SOL    HW250376  14.456   5.536  12.131
82827SOL     OW50377  11.310   3.757  11.306
82827SOL    HW150378  11.301   3.770  11.401
82827SOL    HW250379  11.225   3.785  11.271
82828SOL     OW50380   1.014   6.543   7.627
82828SOL    HW150381   0.994   6.637   7.635
82828SOL    HW250382   1.081   6.539   7.558
82829SOL     OW50383  13.136   9.030   8.664
82829SOL    HW150384  13.171   9.103   8.613
82829SOL    HW250385  13.200   9.016   8.734
82830SOL     OW50386   0.748   2.026   9.287
82830SOL    HW150387   0.668   1.979   9.264
82830SOL    HW250388   0.747   2.030   9.382
82831SOL     OW50389   2.206  10.093   4.096
82831SOL    HW150390   2.161  10.172   4.067
82831SOL    HW250391   2.145  10.051   4.157
82832SOL     OW50392  12.955   4.342   1.903
82832SOL    HW150393  12.874   4.303   1.937
82832SOL    HW250394  12.966   4.422   1.954
82833SOL     OW50395   5.574   9.056   3.268
82833SOL    HW150396   5.608   8.972   3.239
82833SOL    HW250397   5.495   9.034   3.319
82834SOL     OW50398  13.006   7.659   0.988
82834SOL    HW150399  12.940   7.686   1.052
82834SOL    HW250400  13.057   7.592   1.033
82835SOL     OW50401  12.688   9.195   2.353
82835SOL    HW150402  12.648   9.264   2.407
82835SOL    HW250403  12.779   9.223   2.342
82836SOL     OW50404   1.952   6.893  14.262
82836SOL    HW150405   1.909   6.840  14.195
82836SOL    HW250406   1.903   6.975  14.263
82837SOL     OW50407   0.103   6.206  11.780
82837SOL    HW150408   0.086   6.238  11.691
82837SOL    HW250409   0.042   6.256  11.835
82838SOL     OW50410   9.376  13.844   7.235
82838SOL    HW150411   9.431  13.825   7.311
82838SOL    HW250412   9.331  13.761   7.217
82839SOL     OW50413   7.219   3.261   2.180
82839SOL    HW150414   7.298   3.250   2.232
82839SOL    HW250415   7.163   3.319   2.232
82840SOL     OW50416   8.815   3.565   1.854
82840SOL    HW150417   8.798   3.568   1.948
82840SOL    HW250418   8.873   3.639   1.838
82841SOL     OW50419   5.261   8.115   3.813
82841SOL    HW150420   5.200   8.188   3.815
82841SOL    HW250421   5.344   8.154   3.786
82842SOL     OW50422   1.593   1.126   2.412
82842SOL    HW150423   1.570   1.048   2.463
82842SOL    HW250424   1.667   1.164   2.458
82843SOL     OW50425  11.079   6.348  10.337
82843SOL    HW150426  11.094   6.407  10.411
82843SOL    HW250427  10.986   6.357  10.316
82844SOL     OW50428   0.114   3.962  13.023
82844SOL    HW150429   0.109   3.924  12.936
82844SOL    HW250430   0.060   4.041  13.018
82845SOL     OW50431   6.718   3.588  12.851
82845SOL    HW150432   6.782   3.635  12.797
82845SOL    HW250433   6.763   3.509  12.879
82846SOL     OW50434  14.186  13.828   8.205
82846SOL    HW150435  14.153  13.917   8.191
82846SOL    HW250436  14.112  13.781   8.245
82847SOL     OW50437   4.368  11.390  14.496
82847SOL    HW150438   4.409  11.360  14.577
82847SOL    HW250439   4.391  11.483  14.490
82848SOL     OW50440  12.614  10.938   2.179
82848SOL    HW150441  12.607  10.916   2.087
82848SOL    HW250442  12.606  11.034   2.182
82849SOL     OW50443   3.623  12.966  11.284
82849SOL    HW150444   3.710  12.928  11.275
82849SOL    HW250445   3.638  13.053  11.322
82850SOL     OW50446  14.751   4.356  10.829
82850SOL    HW150447  14.662   4.323  10.817
82850SOL    HW250448  14.742   4.451  10.835
82851SOL     OW50449  13.114   5.598   4.079
82851SOL    HW150450  13.108   5.683   4.123
82851SOL    HW250451  13.034   5.593   4.026
82852SOL     OW50452  10.362   2.499   3.800
82852SOL    HW150453  10.381   2.454   3.882
82852SOL    HW250454  10.386   2.590   3.817
82853SOL     OW50455   7.539   7.087   6.298
82853SOL    HW150456   7.488   7.107   6.377
82853SOL    HW250457   7.631   7.092   6.327
82854SOL     OW50458   0.885   1.606   8.351
82854SOL    HW150459   0.894   1.639   8.440
82854SOL    HW250460   0.957   1.543   8.341
82855SOL     OW50461   3.153  14.244   3.336
82855SOL    HW150462   3.123  14.242   3.427
82855SOL    HW250463   3.248  14.237   3.342
82856SOL     OW50464   8.150   5.639   5.343
82856SOL    HW150465   8.112   5.637   5.431
82856SOL    HW250466   8.164   5.732   5.326
82857SOL     OW50467   5.116   8.360   0.996
82857SOL    HW150468   5.176   8.312   0.940
82857SOL    HW250469   5.053   8.400   0.936
82858SOL     OW50470  10.546   2.940   7.161
82858SOL    HW150471  10.525   3.023   7.118
82858SOL    HW250472  10.466   2.888   7.152
82859SOL     OW50473   2.671   2.165   4.530
82859SOL    HW150474   2.579   2.145   4.512
82859SOL    HW250475   2.687   2.128   4.617
82860SOL     OW50476   6.678   5.639   0.696
82860SOL    HW150477   6.629   5.570   0.740
82860SOL    HW250478   6.740   5.671   0.762
82861SOL     OW50479   0.631   6.872   7.842
82861SOL    HW150480   0.664   6.919   7.765
82861SOL    HW250481   0.550   6.830   7.811
82862SOL     OW50482   3.776   9.978   0.084
82862SOL    HW150483   3.703   9.963   0.024
82862SOL    HW250484   3.850   9.999   0.028
82863SOL     OW50485   5.732  14.489  11.354
82863SOL    HW150486   5.778  14.410  11.325
82863SOL    HW250487   5.759  14.500  11.445
82864SOL     OW50488   3.466   8.418   4.297
82864SOL    HW150489   3.481   8.389   4.387
82864SOL    HW250490   3.541   8.384   4.248
82865SOL     OW50491  12.694  11.598   2.427
82865SOL    HW150492  12.768  11.649   2.460
82865SOL    HW250493  12.681  11.530   2.494
82866SOL     OW50494  14.412  13.795  10.031
82866SOL    HW150495  14.351  13.851   9.982
82866SOL    HW250496  14.374  13.789  10.118
82867SOL     OW50497   6.630   6.297   1.483
82867SOL    HW150498   6.539   6.325   1.495
82867SOL    HW250499   6.669   6.366   1.428
82868SOL     OW50500   9.262   2.900  14.368
82868SOL    HW150501   9.193   2.893  14.434
82868SOL    HW250502   9.219   2.877  14.286
82869SOL     OW50503   2.769   9.899  11.159
82869SOL    HW150504   2.803   9.810  11.174
82869SOL    HW250505   2.689   9.902  11.210
82870SOL     OW50506  11.821   4.125   9.721
82870SOL    HW150507  11.731   4.104   9.696
82870SOL    HW250508  11.874   4.089   9.651
82871SOL     OW50509   1.480   4.132   0.652
82871SOL    HW150510   1.553   4.071   0.645
82871SOL    HW250511   1.521   4.218   0.656
82872SOL     OW50512   7.804  10.325  12.672
82872SOL    HW150513   7.717  10.287  12.656
82872SOL    HW250514   7.788  10.397  12.733
82873SOL     OW50515   2.891   5.160  10.353
82873SOL    HW150516   2.849   5.075  10.347
82873SOL    HW250517   2.956   5.160  10.283
82874SOL     OW50518   5.179   2.121   6.284
82874SOL    HW150519   5.268   2.141   6.254
82874SOL    HW250520   5.187   2.112   6.379
82875SOL     OW50521   5.865   9.660  11.890
82875SOL    HW150522   5.802   9.725  11.921
82875SOL    HW250523   5.950   9.703  11.896
82876SOL     OW50524   3.121   8.699   5.013
82876SOL    HW150525   3.173   8.641   5.068
82876SOL    HW250526   3.109   8.650   4.931
82877SOL     OW50527  11.864   0.531   9.952
82877SOL    HW150528  11.894   0.591   9.884
82877SOL    HW250529  11.850   0.587  10.029
82878SOL     OW50530   7.353   7.985  12.886
82878SOL    HW150531   7.277   7.938  12.920
82878SOL    HW250532   7.360   7.956  12.795
82879SOL     OW50533   7.547   1.114  12.267
82879SOL    HW150534   7.503   1.185  12.219
82879SOL    HW250535   7.577   1.054  12.199
82880SOL     OW50536   3.756   3.532  10.475
82880SOL    HW150537   3.789   3.500  10.559
82880SOL    HW250538   3.758   3.627  10.483
82881SOL     OW50539   3.397  12.454  13.021
82881SOL    HW150540   3.481  12.446  12.975
82881SOL    HW250541   3.331  12.443  12.952
82882SOL     OW50542   9.265   3.228  10.877
82882SOL    HW150543   9.330   3.180  10.826
82882SOL    HW250544   9.299   3.317  10.881
82883SOL     OW50545   0.223   0.606   0.774
82883SOL    HW150546   0.290   0.551   0.734
82883SOL    HW250547   0.257   0.626   0.861
82884SOL     OW50548   8.598   9.082  12.051
82884SOL    HW150549   8.623   9.062  12.141
82884SOL    HW250550   8.594   9.178  12.048
82885SOL     OW50551   0.313   7.427   8.542
82885SOL    HW150552   0.309   7.413   8.637
82885SOL    HW250553   0.317   7.338   8.505
82886SOL     OW50554   6.445   1.686   3.941
82886SOL    HW150555   6.448   1.755   4.007
82886SOL    HW250556   6.417   1.608   3.988
82887SOL     OW50557   0.961   4.250   5.507
82887SOL    HW150558   0.965   4.155   5.515
82887SOL    HW250559   0.891   4.277   5.566
82888SOL     OW50560   9.420  10.766  12.046
82888SOL    HW150561   9.389  10.680  12.017
82888SOL    HW250562   9.403  10.824  11.971
82889SOL     OW50563  10.152   6.439  14.862
82889SOL    HW150564  10.111   6.452  14.776
82889SOL    HW250565  10.080   6.420   0.041
82890SOL     OW50566   3.665   7.648   2.948
82890SOL    HW150567   3.725   7.722   2.958
82890SOL    HW250568   3.696   7.582   3.011
82891SOL     OW50569  13.114   7.921   4.264
82891SOL    HW150570  13.187   7.887   4.316
82891SOL    HW250571  13.148   8.003   4.226
82892SOL     OW50572   8.567   7.526   5.891
82892SOL    HW150573   8.547   7.616   5.862
82892SOL    HW250574   8.495   7.474   5.855
82893SOL     OW50575   1.304   5.452   1.906
82893SOL    HW150576   1.354   5.510   1.848
82893SOL    HW250577   1.285   5.506   1.983
82894SOL     OW50578   9.750  12.855   9.021
82894SOL    HW150579   9.801  12.776   9.039
82894SOL    HW250580   9.659  12.828   9.030
82895SOL     OW50581   7.902   7.906   4.829
82895SOL    HW150582   7.854   7.851   4.767
82895SOL    HW250583   7.982   7.857   4.848
82896SOL     OW50584   9.360   2.707  11.383
82896SOL    HW150585   9.378   2.757  11.303
82896SOL    HW250586   9.286   2.752  11.423
82897SOL     OW50587   2.418  14.352   0.382
82897SOL    HW150588   2.410  14.352   0.477
82897SOL    HW250589   2.512  14.343   0.366
82898SOL     OW50590   7.510  13.387   2.044
82898SOL    HW150591   7.530  13.365   2.135
82898SOL    HW250592   7.493  13.481   2.046
82899SOL     OW50593   9.555   7.859   9.565
82899SOL    HW150594   9.546   7.777   9.516
82899SOL    HW250595   9.567   7.831   9.655
82900SOL     OW50596   0.346   9.611   5.607
82900SOL    HW150597   0.332   9.697   5.647
82900SOL    HW250598   0.270   9.559   5.633
82901SOL     OW50599  14.011  10.794   8.230
82901SOL    HW150600  13.937  10.735   8.216
82901SOL    HW250601  13.973  10.871   8.272
82902SOL     OW50602  11.264  13.792  10.614
82902SOL    HW150603  11.334  13.726  10.610
82902SOL    HW250604  11.252  13.809  10.707
82903SOL     OW50605   8.328  12.740   4.121
82903SOL    HW150606   8.271  12.664   4.129
82903SOL    HW250607   8.322  12.784   4.205
82904SOL     OW50608  12.102   4.095  10.597
82904SOL    HW150609  12.015   4.089  10.637
82904SOL    HW250610  12.146   4.165  10.645
82905SOL     OW50611   3.611  13.681   5.047
82905SOL    HW150612   3.689  13.704   4.997
82905SOL    HW250613   3.577  13.765   5.077
82906SOL     OW50614   8.985  11.142  14.806
82906SOL    HW150615   8.935  11.135   0.006
82906SOL    HW250616   9.019  11.053  14.791
82907SOL     OW50617   2.759   4.504   9.695
82907SOL    HW150618   2.735   4.532   9.784
82907SOL    HW250619   2.678   4.512   9.645
82908SOL     OW50620   6.745  14.865   0.055
82908SOL    HW150621   6.705   0.052  14.880
82908SOL    HW250622   6.686  14.791   0.051
82909SOL     OW50623   4.613  11.754  11.268
82909SOL    HW150624   4.606  11.721  11.179
82909SOL    HW250625   4.692  11.808  11.267
82910SOL     OW50626  13.029   0.144   2.979
82910SOL    HW150627  12.973   0.115   2.907
82910SOL    HW250628  13.046   0.237   2.960
82911SOL     OW50629   4.982   4.588   9.637
82911SOL    HW150630   4.906   4.643   9.654
82911SOL    HW250631   5.043   4.609   9.707
82912SOL     OW50632  14.366   2.195   5.602
82912SOL    HW150633  14.301   2.254   5.639
82912SOL    HW250634  14.407   2.154   5.678
82913SOL     OW50635   0.167   5.347   7.607
82913SOL    HW150636   0.239   5.390   7.560
82913SOL    HW250637   0.195   5.257   7.617
82914SOL     OW50638   7.093   2.469   0.063
82914SOL    HW150639   7.053   2.543   0.109
82914SOL    HW250640   7.134   2.509  14.866
82915SOL     OW50641   5.730   0.493   7.945
82915SOL    HW150642   5.656   0.458   7.896
82915SOL    HW250643   5.800   0.502   7.880
82916SOL     OW50644   0.604   2.989   6.441
82916SOL    HW150645   0.634   2.948   6.359
82916SOL    HW250646   0.679   2.980   6.500
82917SOL     OW50647  13.956   3.077  10.332
82917SOL    HW150648  13.956   3.111  10.422
82917SOL    HW250649  13.872   3.106  10.296
82918SOL     OW50650  10.715   6.685   5.014
82918SOL    HW150651  10.729   6.591   5.001
82918SOL    HW250652  10.785   6.711   5.075
82919SOL     OW50653   9.019   0.540   9.983
82919SOL    HW150654   9.061   0.463  10.021
82919SOL    HW250655   9.016   0.522   9.889
82920SOL     OW50656  13.385   8.741  12.086
82920SOL    HW150657  13.446   8.814  12.096
82920SOL    HW250658  13.387   8.722  11.992
82921SOL     OW50659  12.370   5.344   2.620
82921SOL    HW150660  12.433   5.282   2.658
82921SOL    HW250661  12.421   5.396   2.559
82922SOL     OW50662   0.488   7.764   2.900
82922SOL    HW150663   0.463   7.857   2.895
82922SOL    HW250664   0.579   7.765   2.928
82923SOL     OW50665   3.508   0.388   8.562
82923SOL    HW150666   3.573   0.407   8.629
82923SOL    HW250667   3.541   0.309   8.519
82924SOL     OW50668   2.944   4.108  13.030
82924SOL    HW150669   2.914   4.030  12.984
82924SOL    HW250670   3.002   4.153  12.968
82925SOL     OW50671   3.874   0.503   5.715
82925SOL    HW150672   3.918   0.440   5.658
82925SOL    HW250673   3.861   0.455   5.797
82926SOL     OW50674   1.108  12.848   7.079
82926SOL    HW150675   1.103  12.815   7.168
82926SOL    HW250676   1.040  12.916   7.075
82927SOL     OW50677   2.119   4.399   2.921
82927SOL    HW150678   2.090   4.485   2.949
82927SOL    HW250679   2.162   4.414   2.836
82928SOL     OW50680   7.318   5.245  14.268
82928SOL    HW150681   7.316   5.333  14.233
82928SOL    HW250682   7.258   5.246  14.342
82929SOL     OW50683   6.574   6.600   8.195
82929SOL    HW150684   6.485   6.587   8.226
82929SOL    HW250685   6.588   6.529   8.132
82930SOL     OW50686   3.377  13.812   0.281
82930SOL    HW150687   3.300  13.802   0.225
82930SOL    HW250688   3.352  13.879   0.344
82931SOL     OW50689   5.849   0.049  13.337
82931SOL    HW150690   5.769   0.026  13.289
82931SOL    HW250691   5.850   0.144  13.338
82932SOL     OW50692  12.929   4.478  12.697
82932SOL    HW150693  12.862   4.430  12.650
82932SOL    HW250694  12.888   4.561  12.720
82933SOL     OW50695   6.697   9.646   2.591
82933SOL    HW150696   6.643   9.643   2.512
82933SOL    HW250697   6.674   9.729   2.632
82934SOL     OW50698  11.786   5.435   2.816
82934SOL    HW150699  11.838   5.484   2.880
82934SOL    HW250700  11.722   5.499   2.783
82935SOL     OW50701   6.704  12.875   9.876
82935SOL    HW150702   6.719  12.886   9.970
82935SOL    HW250703   6.611  12.856   9.869
82936SOL     OW50704   9.218   4.208  10.463
82936SOL    HW150705   9.250   4.259  10.388
82936SOL    HW250706   9.233   4.265  10.538
82937SOL     OW50707  10.007   0.718   7.244
82937SOL    HW150708  10.014   0.655   7.317
82937SOL    HW250709  10.082   0.777   7.257
82938SOL     OW50710   8.608   8.591   0.605
82938SOL    HW150711   8.661   8.552   0.535
82938SOL    HW250712   8.623   8.535   0.681
82939SOL     OW50713  12.980   8.856   0.042
82939SOL    HW150714  13.066   8.826   0.072
82939SOL    HW250715  12.996   8.944   0.008
82940SOL     OW50716   0.608   7.880  10.746
82940SOL    HW150717   0.524   7.883  10.700
82940SOL    HW250718   0.591   7.925  10.829
82941SOL     OW50719   0.022   4.542   9.451
82941SOL    HW150720   0.039   4.573   9.362
82941SOL    HW250721  14.809   4.518   9.451
82942SOL     OW50722   1.148  10.014   0.557
82942SOL    HW150723   1.063  10.058   0.566
82942SOL    HW250724   1.179  10.040   0.470
82943SOL     OW50725  11.459   5.891   7.493
82943SOL    HW150726  11.377   5.938   7.476
82943SOL    HW250727  11.521   5.925   7.429
82944SOL     OW50728   8.944  14.658   5.011
82944SOL    HW150729   8.894  14.688   4.934
82944SOL    HW250730   8.895  14.582   5.042
82945SOL     OW50731   5.851  12.983   8.068
82945SOL    HW150732   5.806  13.014   8.146
82945SOL    HW250733   5.796  12.913   8.034
82946SOL     OW50734  12.719   1.297   4.704
82946SOL    HW150735  12.798   1.306   4.756
82946SOL    HW250736  12.693   1.205   4.716
82947SOL     OW50737  11.634   0.271   4.481
82947SOL    HW150738  11.549   0.244   4.449
82947SOL    HW250739  11.625   0.274   4.577
82948SOL     OW50740   3.051  14.468   7.639
82948SOL    HW150741   3.001  14.469   7.557
82948SOL    HW250742   3.109  14.544   7.632
82949SOL     OW50743  10.483   0.213   3.434
82949SOL    HW150744  10.535   0.290   3.460
82949SOL    HW250745  10.545   0.140   3.437
82950SOL     OW50746  12.963   6.958   1.321
82950SOL    HW150747  12.884   6.986   1.367
82950SOL    HW250748  12.948   6.866   1.300
82951SOL     OW50749   2.023  10.671   3.905
82951SOL    HW150750   2.020  10.760   3.941
82951SOL    HW250751   2.102  10.670   3.851
82952SOL     OW50752   4.929   0.842  13.070
82952SOL    HW150753   5.002   0.789  13.037
82952SOL    HW250754   4.885   0.875  12.992
82953SOL     OW50755   7.239   3.402   3.896
82953SOL    HW150756   7.282   3.366   3.818
82953SOL    HW250757   7.211   3.325   3.946
82954SOL     OW50758   9.680   1.020   5.657
82954SOL    HW150759   9.760   0.983   5.620
82954SOL    HW250760   9.664   0.969   5.736
82955SOL     OW50761   1.138   7.861  14.342
82955SOL    HW150762   1.098   7.824  14.420
82955SOL    HW250763   1.090   7.942  14.326
82956SOL     OW50764   3.652  13.464   2.080
82956SOL    HW150765   3.672  13.556   2.094
82956SOL    HW250766   3.610  13.436   2.161
82957SOL     OW50767   0.342  10.968   9.441
82957SOL    HW150768   0.336  10.986   9.535
82957SOL    HW250769   0.381  10.880   9.437
82958SOL     OW50770   5.589   0.859   7.165
82958SOL    HW150771   5.657   0.918   7.197
82958SOL    HW250772   5.598   0.780   7.218
82959SOL     OW50773   8.892   5.205   7.695
82959SOL    HW150774   8.882   5.112   7.714
82959SOL    HW250775   8.908   5.246   7.780
82960SOL     OW50776   5.034   0.545  12.967
82960SOL    HW150777   5.061   0.544  13.059
82960SOL    HW250778   5.008   0.454  12.950
82961SOL     OW50779   8.844   5.099  13.998
82961SOL    HW150780   8.842   5.036  14.069
82961SOL    HW250781   8.914   5.161  14.022
82962SOL     OW50782  11.395   8.166  12.830
82962SOL    HW150783  11.404   8.154  12.735
82962SOL    HW250784  11.470   8.221  12.853
82963SOL     OW50785   5.632  10.923   0.773
82963SOL    HW150786   5.721  10.940   0.742
82963SOL    HW250787   5.635  10.939   0.867
82964SOL     OW50788   5.682   0.184   2.384
82964SOL    HW150789   5.676   0.157   2.476
82964SOL    HW250790   5.759   0.139   2.350
82965SOL     OW50791   7.855   3.786   0.400
82965SOL    HW150792   7.949   3.800   0.396
82965SOL    HW250793   7.845   3.704   0.449
82966SOL     OW50794   6.463   4.630   4.499
82966SOL    HW150795   6.555   4.604   4.492
82966SOL    HW250796   6.419   4.582   4.428
82967SOL     OW50797  14.097  11.890  14.769
82967SOL    HW150798  14.149  11.810  14.765
82967SOL    HW250799  14.043  11.879  14.846
82968SOL     OW50800   1.505  13.571  11.141
82968SOL    HW150801   1.460  13.634  11.198
82968SOL    HW250802   1.554  13.625  11.080
82969SOL     OW50803   0.715   5.491   0.255
82969SOL    HW150804   0.778   5.457   0.320
82969SOL    HW250805   0.713   5.423   0.187
82970SOL     OW50806   8.703   2.312   5.904
82970SOL    HW150807   8.735   2.232   5.861
82970SOL    HW250808   8.777   2.372   5.900
82971SOL     OW50809   9.857   8.975   3.376
82971SOL    HW150810   9.844   9.067   3.400
82971SOL    HW250811   9.782   8.929   3.414
82972SOL     OW50812  11.909   8.401   3.101
82972SOL    HW150813  11.884   8.491   3.082
82972SOL    HW250814  11.826   8.353   3.101
82973SOL     OW50815   0.444   4.210  12.246
82973SOL    HW150816   0.464   4.133  12.193
82973SOL    HW250817   0.359   4.240  12.214
82974SOL     OW50818  11.933   4.813  11.973
82974SOL    HW150819  11.936   4.781  11.882
82974SOL    HW250820  12.017   4.856  11.986
82975SOL     OW50821  13.301   4.898   3.423
82975SOL    HW150822  13.258   4.907   3.508
82975SOL    HW250823  13.384   4.856   3.443
82976SOL     OW50824   4.605  13.314   2.656
82976SOL    HW150825   4.683  13.260   2.641
82976SOL    HW250826   4.532  13.258   2.631
82977SOL     OW50827  12.493   5.031  14.750
82977SOL    HW150828  12.490   4.937  14.770
82977SOL    HW250829  12.564   5.039  14.686
82978SOL     OW50830   2.187   4.179  11.153
82978SOL    HW150831   2.134   4.099  11.161
82978SOL    HW250832   2.205   4.205  11.243
82979SOL     OW50833   1.694   8.856   8.661
82979SOL    HW150834   1.734   8.797   8.724
82979SOL    HW250835   1.748   8.849   8.583
82980SOL     OW50836   2.081   7.416   5.844
82980SOL    HW150837   2.016   7.391   5.780
82980SOL    HW250838   2.060   7.508   5.865
82981SOL     OW50839  10.373   5.533   3.011
82981SOL    HW150840  10.373   5.541   3.107
82981SOL    HW250841  10.410   5.615   2.980
82982SOL     OW50842  10.329   0.690   4.964
82982SOL    HW150843  10.245   0.655   4.995
82982SOL    HW250844  10.387   0.685   5.040
82983SOL     OW50845   9.094   0.594  13.512
82983SOL    HW150846   9.056   0.548  13.436
82983SOL    HW250847   9.187   0.600  13.492
82984SOL     OW50848   9.845   9.244   5.436
82984SOL    HW150849   9.891   9.305   5.378
82984SOL    HW250850   9.796   9.300   5.496
82985SOL     OW50851   8.129   2.451   3.457
82985SOL    HW150852   8.091   2.365   3.473
82985SOL    HW250853   8.222   2.434   3.444
82986SOL     OW50854   5.031   0.695   6.597
82986SOL    HW150855   5.056   0.604   6.614
82986SOL    HW250856   5.060   0.712   6.507
82987SOL     OW50857   7.921   0.750   5.829
82987SOL    HW150858   7.894   0.709   5.912
82987SOL    HW250859   7.853   0.815   5.811
82988SOL     OW50860   7.039   8.466   9.027
82988SOL    HW150861   7.076   8.531   8.968
82988SOL    HW250862   6.955   8.503   9.054
82989SOL     OW50863   6.336   5.217   6.141
82989SOL    HW150864   6.276   5.253   6.075
82989SOL    HW250865   6.303   5.250   6.224
82990SOL     OW50866   2.508   0.147  12.871
82990SOL    HW150867   2.493   0.063  12.826
82990SOL    HW250868   2.589   0.180  12.832
82991SOL     OW50869   1.287   7.866   3.624
82991SOL    HW150870   1.376   7.893   3.647
82991SOL    HW250871   1.238   7.870   3.705
82992SOL     OW50872  13.322  13.101   7.664
82992SOL    HW150873  13.264  13.127   7.736
82992SOL    HW250874  13.410  13.124   7.694
82993SOL     OW50875   6.157   7.109  12.517
82993SOL    HW150876   6.180   7.176  12.581
82993SOL    HW250877   6.173   7.026  12.562
82994SOL     OW50878   3.374   3.423   7.606
82994SOL    HW150879   3.386   3.330   7.589
82994SOL    HW250880   3.444   3.446   7.667
82995SOL     OW50881   7.063  10.518  13.330
82995SOL    HW150882   7.008  10.595  13.344
82995SOL    HW250883   7.013  10.462  13.271
82996SOL     OW50884   9.347   5.525   3.731
82996SOL    HW150885   9.382   5.504   3.644
82996SOL    HW250886   9.332   5.619   3.728
82997SOL     OW50887   9.434   9.058   6.797
82997SOL    HW150888   9.445   9.085   6.888
82997SOL    HW250889   9.405   9.138   6.752
82998SOL     OW50890   6.611   6.251  14.418
82998SOL    HW150891   6.577   6.337  14.396
82998SOL    HW250892   6.704   6.255  14.395
82999SOL     OW50893   9.388  10.797  14.130
82999SOL    HW150894   9.423  10.886  14.132
82999SOL    HW250895   9.308  10.804  14.078
83000SOL     OW50896   8.115   4.829   9.325
83000SOL    HW150897   8.173   4.882   9.381
83000SOL    HW250898   8.174   4.777   9.272
83001SOL     OW50899   0.589   4.748   8.570
83001SOL    HW150900   0.606   4.839   8.547
83001SOL    HW250901   0.536   4.715   8.497
83002SOL     OW50902   8.539   1.588   0.895
83002SOL    HW150903   8.472   1.530   0.933
83002SOL    HW250904   8.593   1.529   0.842
83003SOL     OW50905  12.846   0.507   6.686
83003SOL    HW150906  12.873   0.423   6.724
83003SOL    HW250907  12.908   0.522   6.614
83004SOL     OW50908  10.431   7.127   0.130
83004SOL    HW150909  10.440   7.216   0.164
83004SOL    HW250910  10.355   7.131   0.072
83005SOL     OW50911  14.038   0.405   2.225
83005SOL    HW150912  14.069   0.462   2.296
83005SOL    HW250913  14.076   0.441   2.146
83006SOL     OW50914   4.206   3.406   0.625
83006SOL    HW150915   4.257   3.414   0.545
83006SOL    HW250916   4.219   3.490   0.670
83007SOL     OW50917   3.433   9.714  10.596
83007SOL    HW150918   3.433   9.634  10.543
83007SOL    HW250919   3.506   9.765  10.562
83008SOL     OW50920  11.240  10.796  13.662
83008SOL    HW150921  11.319  10.744  13.677
83008SOL    HW250922  11.189  10.785  13.743
83009SOL     OW50923   4.092   1.411  10.240
83009SOL    HW150924   4.176   1.428  10.199
83009SOL    HW250925   4.035   1.383  10.168
83010SOL     OW50926   5.069  13.439   6.206
83010SOL    HW150927   5.033  13.375   6.268
83010SOL    HW250928   5.152  13.401   6.178
83011SOL     OW50929  12.156   5.636  14.561
83011SOL    HW150930  12.164   5.715  14.507
83011SOL    HW250931  12.156   5.669  14.651
83012SOL     OW50932  14.555   1.614   6.415
83012SOL    HW150933  14.485   1.679   6.421
83012SOL    HW250934  14.608   1.628   6.494
83013SOL     OW50935  13.923  10.655  12.232
83013SOL    HW150936  13.972  10.572  12.232
83013SOL    HW250937  13.990  10.723  12.241
83014SOL     OW50938   8.704   5.243   7.289
83014SOL    HW150939   8.610   5.259   7.289
83014SOL    HW250940   8.714   5.149   7.305
83015SOL     OW50941   9.470  10.522  12.661
83015SOL    HW150942   9.505  10.530  12.572
83015SOL    HW250943   9.429  10.606  12.679
83016SOL     OW50944   9.904  11.765   0.488
83016SOL    HW150945   9.851  11.780   0.567
83016SOL    HW250946   9.987  11.731   0.521
83017SOL     OW50947  12.980  12.008   6.777
83017SOL    HW150948  13.016  12.086   6.734
83017SOL    HW250949  12.994  12.024   6.870
83018SOL     OW50950   5.781  14.354   5.228
83018SOL    HW150951   5.856  14.394   5.185
83018SOL    HW250952   5.815  14.272   5.264
83019SOL     OW50953  11.792   9.011  13.795
83019SOL    HW150954  11.865   9.073  13.805
83019SOL    HW250955  11.762   8.995  13.884
83020SOL     OW50956   7.801   2.485   2.399
83020SOL    HW150957   7.735   2.512   2.334
83020SOL    HW250958   7.767   2.402   2.434
83021SOL     OW50959   5.957   8.519   6.709
83021SOL    HW150960   6.027   8.570   6.749
83021SOL    HW250961   5.951   8.553   6.619
83022SOL     OW50962   1.314   0.521   9.949
83022SOL    HW150963   1.353   0.592   9.898
83022SOL    HW250964   1.389   0.470   9.980
83023SOL     OW50965   5.772  10.635   8.854
83023SOL    HW150966   5.802  10.561   8.801
83023SOL    HW250967   5.697  10.601   8.903
83024SOL     OW50968   7.166   1.125   3.175
83024SOL    HW150969   7.248   1.166   3.200
83024SOL    HW250970   7.101   1.164   3.233
83025SOL     OW50971   6.759  11.245  11.963
83025SOL    HW150972   6.789  11.278  11.878
83025SOL    HW250973   6.785  11.153  11.963
83026SOL     OW50974   5.594   9.796   3.929
83026SOL    HW150975   5.587   9.740   3.852
83026SOL    HW250976   5.685   9.789   3.957
83027SOL     OW50977  11.541   5.815  10.119
83027SOL    HW150978  11.473   5.877  10.142
83027SOL    HW250979  11.552   5.825  10.024
83028SOL     OW50980   1.854   7.757   3.271
83028SOL    HW150981   1.853   7.841   3.226
83028SOL    HW250982   1.946   7.742   3.293
83029SOL     OW50983  14.032   2.296   2.543
83029SOL    HW150984  14.084   2.227   2.502
83029SOL    HW250985  14.096   2.356   2.581
83030SOL     OW50986   4.780   1.056   0.296
83030SOL    HW150987   4.759   0.970   0.259
83030SOL    HW250988   4.815   1.106   0.222
83031SOL     OW50989   1.690   8.774  14.736
83031SOL    HW150990   1.721   8.863  14.750
83031SOL    HW250991   1.766   8.727  14.702
83032SOL     OW50992   2.114   6.056  10.234
83032SOL    HW150993   2.022   6.029  10.233
83032SOL    HW250994   2.114   6.139  10.281
83033SOL     OW50995  12.302   8.556   8.864
83033SOL    HW150996  12.307   8.651   8.877
83033SOL    HW250997  12.361   8.538   8.791
83034SOL     OW50998  14.222   9.097   3.043
83034SOL    HW150999  14.129   9.083   3.057
83034SOL    HW251000  14.227   9.175   2.987
83035SOL     OW51001  12.534  12.107  10.201
83035SOL    HW151002  12.498  12.162  10.270
83035SOL    HW251003  12.464  12.100  10.136
83036SOL     OW51004   2.368   7.668  10.755
83036SOL    HW151005   2.304   7.701  10.817
83036SOL    HW251006   2.325   7.594  10.713
83037SOL     OW51007   9.904   0.657  13.627
83037SOL    HW151008   9.961   0.580  13.620
83037SOL    HW251009   9.948   0.725  13.576
83038SOL     OW51010  12.310   5.615   6.077
83038SOL    HW151011  12.287   5.687   6.137
83038SOL    HW251012  12.227   5.591   6.037
83039SOL     OW51013   1.662  14.876   1.187
83039SOL    HW151014   1.716  14.817   1.239
83039SOL    HW251015   1.579   0.001   1.235
83040SOL     OW51016  12.008  13.241   4.022
83040SOL    HW151017  12.054  13.298   3.961
83040SOL    HW251018  11.917  13.273   4.020
83041SOL     OW51019   2.285  13.014   8.083
83041SOL    HW151020   2.247  12.927   8.094
83041SOL    HW251021   2.277  13.033   7.989
83042SOL     OW51022  10.295   0.567   8.701
83042SOL    HW151023  10.285   0.504   8.629
83042SOL    HW251024  10.208   0.571   8.741
83043SOL     OW51025   5.573   0.485  12.501
83043SOL    HW151026   5.652   0.532  12.528
83043SOL    HW251027   5.538   0.538  12.429
83044SOL     OW51028   0.072   6.468   2.524
83044SOL    HW151029   0.003   6.522   2.486
83044SOL    HW251030   0.062   6.383   2.481
83045SOL     OW51031   1.347   1.798  11.815
83045SOL    HW151032   1.351   1.813  11.720
83045SOL    HW251033   1.261   1.757  11.829
83046SOL     OW51034   1.503  13.679  10.542
83046SOL    HW151035   1.412  13.655  10.561
83046SOL    HW251036   1.513  13.660  10.448
83047SOL     OW51037  10.785   8.353   1.671
83047SOL    HW151038  10.809   8.260   1.670
83047SOL    HW251039  10.851   8.395   1.725
83048SOL     OW51040   7.243   1.559   1.038
83048SOL    HW151041   7.307   1.551   0.967
83048SOL    HW251042   7.193   1.478   1.035
83049SOL     OW51043   2.627  11.813  13.813
83049SOL    HW151044   2.679  11.772  13.743
83049SOL    HW251045   2.568  11.744  13.842
83050SOL     OW51046  13.943  14.653  14.725
83050SOL    HW151047  13.855  14.627  14.753
83050SOL    HW251048  13.981  14.572  14.690
83051SOL     OW51049  10.881   7.247   7.898
83051SOL    HW151050  10.823   7.313   7.859
83051SOL    HW251051  10.963   7.294   7.914
83052SOL     OW51052   6.303   2.001   9.548
83052SOL    HW151053   6.284   2.074   9.607
83052SOL    HW251054   6.255   2.022   9.468
83053SOL     OW51055   5.721   3.755   4.451
83053SOL    HW151056   5.722   3.836   4.400
83053SOL    HW251057   5.651   3.768   4.515
83054SOL     OW51058   9.323   6.274   8.000
83054SOL    HW151059   9.361   6.361   7.984
83054SOL    HW251060   9.350   6.222   7.925
83055SOL     OW51061   1.341   0.041   6.298
83055SOL    HW151062   1.389   0.106   6.349
83055SOL    HW251063   1.396   0.027   6.221
83056SOL     OW51064   8.636  11.327   7.819
83056SOL    HW151065   8.652  11.258   7.883
83056SOL    HW251066   8.629  11.281   7.735
83057SOL     OW51067  13.759  14.410   8.172
83057SOL    HW151068  13.677  14.361   8.169
83057SOL    HW251069  13.739  14.486   8.227
83058SOL     OW51070   4.567   1.365  12.050
83058SOL    HW151071   4.609   1.441  12.011
83058SOL    HW251072   4.546   1.308  11.976
83059SOL     OW51073   3.395  14.035   7.674
83059SOL    HW151074   3.334  14.061   7.605
83059SOL    HW251075   3.464  13.988   7.628
83060SOL     OW51076  10.945   9.479  14.370
83060SOL    HW151077  11.001   9.530  14.310
83060SOL    HW251078  10.892   9.545  14.414
83061SOL     OW51079   9.384  11.567   7.989
83061SOL    HW151080   9.354  11.592   8.077
83061SOL    HW251081   9.443  11.638   7.963
83062SOL     OW51082  12.068  12.996  13.189
83062SOL    HW151083  12.114  13.038  13.116
83062SOL    HW251084  12.000  12.943  13.147
83063SOL     OW51085   9.950   5.286  13.624
83063SOL    HW151086   9.909   5.368  13.596
83063SOL    HW251087  10.017   5.269  13.558
83064SOL     OW51088   4.173   1.213  12.407
83064SOL    HW151089   4.247   1.167  12.448
83064SOL    HW251090   4.214   1.269  12.341
83065SOL     OW51091   6.032  10.337   3.706
83065SOL    HW151092   5.988  10.337   3.621
83065SOL    HW251093   6.071  10.250   3.713
83066SOL     OW51094   1.842  14.722   2.471
83066SOL    HW151095   1.873  14.769   2.394
83066SOL    HW251096   1.793  14.787   2.521
83067SOL     OW51097   4.025   2.228   4.920
83067SOL    HW151098   3.931   2.239   4.937
83067SOL    HW251099   4.061   2.206   5.006
83068SOL     OW51100   2.097   2.565  12.682
83068SOL    HW151101   2.104   2.578  12.776
83068SOL    HW251102   2.171   2.613  12.645
83069SOL     OW51103   2.148   9.845  10.657
83069SOL    HW151104   2.174   9.897  10.582
83069SOL    HW251105   2.226   9.795  10.681
83070SOL     OW51106   2.954  12.566   2.624
83070SOL    HW151107   2.978  12.512   2.700
83070SOL    HW251108   2.865  12.538   2.603
83071SOL     OW51109   4.154   2.170  10.689
83071SOL    HW151110   4.238   2.129  10.669
83071SOL    HW251111   4.170   2.222  10.768
83072SOL     OW51112   5.165  11.883   4.995
83072SOL    HW151113   5.224  11.915   5.063
83072SOL    HW251114   5.180  11.788   4.993
83073SOL     OW51115  11.556   0.430   1.685
83073SOL    HW151116  11.514   0.497   1.739
83073SOL    HW251117  11.593   0.368   1.747
83074SOL     OW51118   5.600   8.651   8.046
83074SOL    HW151119   5.507   8.672   8.048
83074SOL    HW251120   5.641   8.727   8.006
83075SOL     OW51121   8.183   0.707   7.001
83075SOL    HW151122   8.158   0.623   7.039
83075SOL    HW251123   8.119   0.770   7.035
83076SOL     OW51124   9.919   5.297   0.011
83076SOL    HW151125  10.003   5.300  14.846
83076SOL    HW251126   9.941   5.271   0.100
83077SOL     OW51127   9.550   3.336   0.215
83077SOL    HW151128   9.489   3.408   0.232
83077SOL    HW251129   9.632   3.379   0.190
83078SOL     OW51130  14.799  11.267   5.306
83078SOL    HW151131   0.013  11.252   5.302
83078SOL    HW251132  14.761  11.179   5.301
83079SOL     OW51133  14.208   9.266   2.427
83079SOL    HW151134  14.132   9.323   2.430
83079SOL    HW251135  14.217   9.233   2.517
83080SOL     OW51136  10.065   9.362   1.810
83080SOL    HW151137  10.020   9.288   1.851
83080SOL    HW251138  10.061   9.342   1.716
83081SOL     OW51139   3.184   6.435   5.460
83081SOL    HW151140   3.092   6.420   5.438
83081SOL    HW251141   3.183   6.515   5.513
83082SOL     OW51142  14.849  10.046   0.574
83082SOL    HW151143  14.832  10.050   0.668
83082SOL    HW251144  14.847  10.138   0.545
83083SOL     OW51145  12.614   4.743  12.148
83083SOL    HW151146  12.578   4.831  12.159
83083SOL    HW251147  12.702   4.757  12.113
83084SOL     OW51148   8.899  14.700   8.500
83084SOL    HW151149   8.905  14.691   8.405
83084SOL    HW251150   8.861  14.786   8.514
83085SOL     OW51151  10.893   4.131   6.330
83085SOL    HW151152  10.824   4.169   6.276
83085SOL    HW251153  10.885   4.175   6.415
83086SOL     OW51154  12.339  10.868   2.103
83086SOL    HW151155  12.295  10.844   2.184
83086SOL    HW251156  12.335  10.964   2.101
83087SOL     OW51157   3.751  10.798  10.632
83087SOL    HW151158   3.744  10.759  10.545
83087SOL    HW251159   3.688  10.748  10.685
83088SOL     OW51160   6.905   6.722   8.046
83088SOL    HW151161   6.936   6.661   8.114
83088SOL    HW251162   6.811   6.729   8.061
83089SOL     OW51163   9.382  12.480  13.140
83089SOL    HW151164   9.375  12.526  13.223
83089SOL    HW251165   9.476  12.481  13.121
83090SOL     OW51166   6.454   4.973   8.474
83090SOL    HW151167   6.365   4.953   8.443
83090SOL    HW251168   6.450   4.959   8.568
83091SOL     OW51169  10.048   7.974   7.648
83091SOL    HW151170   9.959   7.986   7.682
83091SOL    HW251171  10.071   7.884   7.673
83092SOL     OW51172   2.253  11.568   3.264
83092SOL    HW151173   2.194  11.494   3.249
83092SOL    HW251174   2.301  11.577   3.182
83093SOL     OW51175  14.699   1.254  12.026
83093SOL    HW151176  14.656   1.169  12.023
83093SOL    HW251177  14.678   1.289  12.112
83094SOL     OW51178  14.208  10.333   9.070
83094SOL    HW151179  14.269  10.269   9.033
83094SOL    HW251180  14.152  10.359   8.997
83095SOL     OW51181  12.744   4.289  12.904
83095SOL    HW151182  12.672   4.230  12.882
83095SOL    HW251183  12.816   4.231  12.930
83096SOL     OW51184   1.376   0.715   0.408
83096SOL    HW151185   1.432   0.790   0.426
83096SOL    HW251186   1.304   0.751   0.357
83097SOL     OW51187  14.557   2.536  12.141
83097SOL    HW151188  14.554   2.442  12.160
83097SOL    HW251189  14.500   2.546  12.064
83098SOL     OW51190   4.133  10.934   1.827
83098SOL    HW151191   4.058  10.983   1.860
83098SOL    HW251192   4.207  10.968   1.876
83099SOL     OW51193   0.257  10.283   7.725
83099SOL    HW151194   0.348  10.307   7.709
83099SOL    HW251195   0.222  10.262   7.638
83100SOL     OW51196   4.534   2.987  12.730
83100SOL    HW151197   4.557   3.041  12.806
83100SOL    HW251198   4.457   2.937  12.758
83101SOL     OW51199  11.950  12.871   7.289
83101SOL    HW151200  11.955  12.850   7.382
83101SOL    HW251201  11.964  12.787   7.244
83102SOL     OW51202  14.335  10.811   7.198
83102SOL    HW151203  14.359  10.718   7.207
83102SOL    HW251204  14.376  10.854   7.273
83103SOL     OW51205   9.254  12.713   7.875
83103SOL    HW151206   9.311  12.652   7.828
83103SOL    HW251207   9.169  12.705   7.831
83104SOL     OW51208   4.897   6.904  14.025
83104SOL    HW151209   4.859   6.921  13.938
83104SOL    HW251210   4.843   6.954  14.085
83105SOL     OW51211   8.009   3.200   5.916
83105SOL    HW151212   7.948   3.154   5.858
83105SOL    HW251213   8.084   3.220   5.861
83106SOL     OW51214   1.066   5.583  11.625
83106SOL    HW151215   1.155   5.617  11.612
83106SOL    HW251216   1.043   5.612  11.713
83107SOL     OW51217   4.676  10.487  13.018
83107SOL    HW151218   4.735  10.556  12.987
83107SOL    HW251219   4.600  10.535  13.052
83108SOL     OW51220  12.596   9.948  10.270
83108SOL    HW151221  12.521   9.996  10.234
83108SOL    HW251222  12.614   9.880  10.205
83109SOL     OW51223   3.393  13.773   3.919
83109SOL    HW151224   3.356  13.686   3.906
83109SOL    HW251225   3.347  13.808   3.995
83110SOL     OW51226   0.395   7.973   7.285
83110SOL    HW151227   0.403   8.005   7.375
83110SOL    HW251228   0.303   7.984   7.264
83111SOL     OW51229   2.103  11.546  12.347
83111SOL    HW151230   2.030  11.607  12.360
83111SOL    HW251231   2.067  11.460  12.368
83112SOL     OW51232  13.858  13.198   2.637
83112SOL    HW151233  13.951  13.218   2.650
83112SOL    HW251234  13.857  13.130   2.570
83113SOL     OW51235   1.612   7.207   2.325
83113SOL    HW151236   1.668   7.285   2.317
83113SOL    HW251237   1.559   7.224   2.403
83114SOL     OW51238  12.538   7.795  12.922
83114SOL    HW151239  12.484   7.852  12.867
83114SOL    HW251240  12.477   7.729  12.956
83115SOL     OW51241   9.239  10.123  12.304
83115SOL    HW151242   9.281  10.209  12.310
83115SOL    HW251243   9.245  10.087  12.392
83116SOL     OW51244  14.538   4.183   3.176
83116SOL    HW151245  14.513   4.156   3.088
83116SOL    HW251246  14.616   4.236   3.163
83117SOL     OW51247   8.283   2.974   2.125
83117SOL    HW151248   8.212   3.038   2.118
83117SOL    HW251249   8.246   2.893   2.090
83118SOL     OW51250   5.195  12.563  13.833
83118SOL    HW151251   5.230  12.545  13.746
83118SOL    HW251252   5.263  12.532  13.893
83119SOL     OW51253   8.203  12.496   4.707
83119SOL    HW151254   8.192  12.510   4.613
83119SOL    HW251255   8.297  12.508   4.722
83120SOL     OW51256   1.436   0.107   2.967
83120SOL    HW151257   1.527   0.077   2.956
83120SOL    HW251258   1.425   0.114   3.061
83121SOL     OW51259   5.486   8.309   8.393
83121SOL    HW151260   5.538   8.237   8.357
83121SOL    HW251261   5.551   8.373   8.422
83122SOL     OW51262  11.234   4.718   9.576
83122SOL    HW151263  11.185   4.692   9.498
83122SOL    HW251264  11.325   4.719   9.549
83123SOL     OW51265   1.885   3.879   7.436
83123SOL    HW151266   1.814   3.829   7.396
83123SOL    HW251267   1.874   3.864   7.530
83124SOL     OW51268   9.634  11.958  14.704
83124SOL    HW151269   9.573  11.918  14.766
83124SOL    HW251270   9.721  11.937  14.739
83125SOL     OW51271   9.669   0.372   4.274
83125SOL    HW151272   9.608   0.346   4.342
83125SOL    HW251273   9.629   0.343   4.192
83126SOL     OW51274  10.425   5.301   0.478
83126SOL    HW151275  10.497   5.239   0.468
83126SOL    HW251276  10.369   5.264   0.546
83127SOL     OW51277   1.855   9.641  11.055
83127SOL    HW151278   1.908   9.630  11.134
83127SOL    HW251279   1.911   9.691  10.996
83128SOL     OW51280   2.161  14.499   8.383
83128SOL    HW151281   2.215  14.442   8.438
83128SOL    HW251282   2.172  14.466   8.294
83129SOL     OW51283   3.329   1.713  14.336
83129SOL    HW151284   3.317   1.619  14.329
83129SOL    HW251285   3.399   1.724  14.400
83130SOL     OW51286   2.322   5.299  10.422
83130SOL    HW151287   2.240   5.286  10.470
83130SOL    HW251288   2.358   5.380  10.457
83131SOL     OW51289   6.589   5.969  10.760
83131SOL    HW151290   6.527   6.004  10.697
83131SOL    HW251291   6.647   6.043  10.782
83132SOL     OW51292  12.346   2.190   8.337
83132SOL    HW151293  12.372   2.279   8.311
83132SOL    HW251294  12.377   2.180   8.427
83133SOL     OW51295   4.776   8.321   1.083
83133SOL    HW151296   4.766   8.364   0.999
83133SOL    HW251297   4.867   8.337   1.108
83134SOL     OW51298  12.952   3.375  12.456
83134SOL    HW151299  12.972   3.395  12.365
83134SOL    HW251300  12.997   3.293  12.473
83135SOL     OW51301   7.639   1.448  10.651
83135SOL    HW151302   7.696   1.422  10.723
83135SOL    HW251303   7.576   1.508  10.690
83136SOL     OW51304   1.211   8.982   8.114
83136SOL    HW151305   1.173   8.982   8.027
83136SOL    HW251306   1.259   9.065   8.120
83137SOL     OW51307   9.111   7.389   4.992
83137SOL    HW151308   9.040   7.375   5.055
83137SOL    HW251309   9.095   7.477   4.957
83138SOL     OW51310  10.953  12.159   6.754
83138SOL    HW151311  10.895  12.221   6.798
83138SOL    HW251312  11.041  12.193   6.771
83139SOL     OW51313   7.147  14.168  10.790
83139SOL    HW151314   7.188  14.219  10.720
83139SOL    HW251315   7.205  14.093  10.802
83140SOL     OW51316  13.030   9.841   6.672
83140SOL    HW151317  13.004   9.888   6.752
83140SOL    HW251318  12.968   9.769   6.666
83141SOL     OW51319   9.189  11.197   6.171
83141SOL    HW151320   9.112  11.152   6.137
83141SOL    HW251321   9.243  11.129   6.210
83142SOL     OW51322   6.604   7.196   2.361
83142SOL    HW151323   6.588   7.208   2.455
83142SOL    HW251324   6.694   7.163   2.357
83143SOL     OW51325  13.552   7.806   3.230
83143SOL    HW151326  13.460   7.799   3.254
83143SOL    HW251327  13.551   7.837   3.139
83144SOL     OW51328   8.662   0.378   6.492
83144SOL    HW151329   8.613   0.442   6.441
83144SOL    HW251330   8.751   0.383   6.456
83145SOL     OW51331   7.523   6.394   3.652
83145SOL    HW151332   7.429   6.384   3.633
83145SOL    HW251333   7.532   6.483   3.684
83146SOL     OW51334  14.846   6.171   1.775
83146SOL    HW151335   0.040   6.124   1.813
83146SOL    HW251336  14.776   6.162   1.839
83147SOL     OW51337   2.808  13.242   2.221
83147SOL    HW151338   2.781  13.150   2.217
83147SOL    HW251339   2.803  13.264   2.314
83148SOL     OW51340   6.878  14.531   7.314
83148SOL    HW151341   6.871  14.531   7.409
83148SOL    HW251342   6.945  14.596   7.294
83149SOL     OW51343  11.379   5.267  11.636
83149SOL    HW151344  11.380   5.173  11.618
83149SOL    HW251345  11.464   5.284  11.676
83150SOL     OW51346   9.999   8.682   8.846
83150SOL    HW151347  10.069   8.624   8.878
83150SOL    HW251348   9.972   8.731   8.923
83151SOL     OW51349  10.118   9.644  14.135
83151SOL    HW151350  10.145   9.728  14.097
83151SOL    HW251351  10.098   9.665  14.226
83152SOL     OW51352   4.219   8.307   6.476
83152SOL    HW151353   4.291   8.260   6.435
83152SOL    HW251354   4.207   8.263   6.561
83153SOL     OW51355   3.956   4.120  14.693
83153SOL    HW151356   3.959   4.034  14.735
83153SOL    HW251357   3.864   4.133  14.670
83154SOL     OW51358   2.725  10.879  11.402
83154SOL    HW151359   2.668  10.954  11.387
83154SOL    HW251360   2.696  10.814  11.338
83155SOL     OW51361   5.049   5.793  12.723
83155SOL    HW151362   5.138   5.821  12.745
83155SOL    HW251363   5.002   5.875  12.706
83156SOL     OW51364   1.883  10.665   6.863
83156SOL    HW151365   1.893  10.570   6.852
83156SOL    HW251366   1.806  10.674   6.919
83157SOL     OW51367  11.650   3.250   4.414
83157SOL    HW151368  11.633   3.324   4.357
83157SOL    HW251369  11.579   3.253   4.479
83158SOL     OW51370  13.158   0.728  13.536
83158SOL    HW151371  13.159   0.822  13.551
83158SOL    HW251372  13.242   0.709  13.493
83159SOL     OW51373  11.692   5.422   7.788
83159SOL    HW151374  11.610   5.439   7.833
83159SOL    HW251375  11.698   5.327   7.782
83160SOL     OW51376  11.251   6.812   1.493
83160SOL    HW151377  11.310   6.784   1.563
83160SOL    HW251378  11.307   6.820   1.416
83161SOL     OW51379   0.980   3.697   5.401
83161SOL    HW151380   0.948   3.610   5.425
83161SOL    HW251381   1.075   3.687   5.396
83162SOL     OW51382   7.273   6.610   2.781
83162SOL    HW151383   7.352   6.664   2.788
83162SOL    HW251384   7.207   6.657   2.831
83163SOL     OW51385  14.709   6.881   6.696
83163SOL    HW151386  14.759   6.872   6.615
83163SOL    HW251387  14.619   6.899   6.667
83164SOL     OW51388   1.939  13.718   5.213
83164SOL    HW151389   2.017  13.747   5.259
83164SOL    HW251390   1.905  13.646   5.266
83165SOL     OW51391  12.707   1.165  13.265
83165SOL    HW151392  12.797   1.187  13.242
83165SOL    HW251393  12.709   1.070  13.282
83166SOL     OW51394   4.514   0.082   9.486
83166SOL    HW151395   4.534   0.160   9.434
83166SOL    HW251396   4.421   0.065   9.469
83167SOL     OW51397   2.884   0.130   4.342
83167SOL    HW151398   2.830   0.150   4.418
83167SOL    HW251399   2.973   0.149   4.370
83168SOL     OW51400   2.348   7.389   0.090
83168SOL    HW151401   2.422   7.338   0.124
83168SOL    HW251402   2.345   7.367  14.877
83169SOL     OW51403  11.811  10.591   8.378
83169SOL    HW151404  11.758  10.651   8.432
83169SOL    HW251405  11.819  10.635   8.294
83170SOL     OW51406   9.370   8.100  13.148
83170SOL    HW151407   9.315   8.156  13.093
83170SOL    HW251408   9.340   8.011  13.131
83171SOL     OW51409   4.218   2.981   6.257
83171SOL    HW151410   4.257   3.001   6.342
83171SOL    HW251411   4.160   2.907   6.274
83172SOL     OW51412   0.409   8.887   6.808
83172SOL    HW151413   0.487   8.933   6.774
83172SOL    HW251414   0.393   8.928   6.893
83173SOL     OW51415   9.530  13.242  11.231
83173SOL    HW151416   9.583  13.296  11.172
83173SOL    HW251417   9.488  13.178  11.174
83174SOL     OW51418   6.520   3.817   6.335
83174SOL    HW151419   6.550   3.883   6.399
83174SOL    HW251420   6.542   3.855   6.250
83175SOL     OW51421   9.197  10.407   1.841
83175SOL    HW151422   9.239  10.411   1.927
83175SOL    HW251423   9.214  10.492   1.801
83176SOL     OW51424  13.225  13.434  11.395
83176SOL    HW151425  13.298  13.467  11.342
83176SOL    HW251426  13.175  13.378  11.336
83177SOL     OW51427  11.503   3.745   5.723
83177SOL    HW151428  11.504   3.651   5.706
83177SOL    HW251429  11.579   3.779   5.675
83178SOL     OW51430   1.352  10.371  11.825
83178SOL    HW151431   1.428  10.314  11.838
83178SOL    HW251432   1.324  10.352  11.735
83179SOL     OW51433  14.520   2.282   4.010
83179SOL    HW151434  14.581   2.210   4.026
83179SOL    HW251435  14.543   2.315   3.923
83180SOL     OW51436  13.778  12.124  10.836
83180SOL    HW151437  13.867  12.154  10.852
83180SOL    HW251438  13.742  12.186  10.773
83181SOL     OW51439   1.847  13.123  14.310
83181SOL    HW151440   1.889  13.049  14.266
83181SOL    HW251441   1.887  13.201  14.270
83182SOL     OW51442   6.848   5.934   0.348
83182SOL    HW151443   6.797   5.856   0.369
83182SOL    HW251444   6.935   5.915   0.382
83183SOL     OW51445   0.297   9.432  11.811
83183SOL    HW151446   0.366   9.444  11.745
83183SOL    HW251447   0.240   9.508  11.800
83184SOL     OW51448  12.029   7.706   7.203
83184SOL    HW151449  12.093   7.725   7.134
83184SOL    HW251450  12.007   7.614   7.190
83185SOL     OW51451   5.694  11.265   4.099
83185SOL    HW151452   5.605  11.290   4.126
83185SOL    HW251453   5.681  11.184   4.049
83186SOL     OW51454  13.591  12.010   0.626
83186SOL    HW151455  13.597  12.103   0.647
83186SOL    HW251456  13.667  11.993   0.570
83187SOL     OW51457  11.644  13.003  14.772
83187SOL    HW151458  11.630  12.909  14.782
83187SOL    HW251459  11.614  13.041  14.856
83188SOL     OW51460   2.056   1.416   1.978
83188SOL    HW151461   1.984   1.357   1.998
83188SOL    HW251462   2.100   1.430   2.063
83189SOL     OW51463   1.299   6.207   3.394
83189SOL    HW151464   1.266   6.249   3.473
83189SOL    HW251465   1.356   6.273   3.353
83190SOL     OW51466   5.697   1.945  12.544
83190SOL    HW151467   5.695   2.032  12.505
83190SOL    HW251468   5.726   1.960  12.634
83191SOL     OW51469  12.347  11.449   8.172
83191SOL    HW151470  12.418  11.450   8.235
83191SOL    HW251471  12.320  11.357   8.168
83192SOL     OW51472  12.656  13.231  10.705
83192SOL    HW151473  12.616  13.147  10.685
83192SOL    HW251474  12.710  13.251  10.629
83193SOL     OW51475   2.395  12.153   8.599
83193SOL    HW151476   2.474  12.106   8.627
83193SOL    HW251477   2.362  12.193   8.679
83194SOL     OW51478   5.791  11.503   2.447
83194SOL    HW151479   5.773  11.424   2.498
83194SOL    HW251480   5.707  11.549   2.443
83195SOL     OW51481  10.347  14.542   8.369
83195SOL    HW151482  10.407  14.603   8.326
83195SOL    HW251483  10.353  14.462   8.316
83196SOL     OW51484  10.606  13.404  14.040
83196SOL    HW151485  10.690  13.403  14.088
83196SOL    HW251486  10.626  13.362  13.957
83197SOL     OW51487  11.590   3.405   3.329
83197SOL    HW151488  11.680   3.439   3.324
83197SOL    HW251489  11.598   3.324   3.380
83198SOL     OW51490   1.619   1.679  14.062
83198SOL    HW151491   1.660   1.744  14.004
83198SOL    HW251492   1.608   1.726  14.145
83199SOL     OW51493   9.480  13.705   2.994
83199SOL    HW151494   9.425  13.747   3.060
83199SOL    HW251495   9.457  13.612   2.999
83200SOL     OW51496   5.355   3.683  11.461
83200SOL    HW151497   5.342   3.768  11.419
83200SOL    HW251498   5.409   3.703  11.538
83201SOL     OW51499   0.371   0.334   4.768
83201SOL    HW151500   0.383   0.415   4.718
83201SOL    HW251501   0.450   0.283   4.749
83202SOL     OW51502  12.982   1.898  13.231
83202SOL    HW151503  12.970   1.891  13.326
83202SOL    HW251504  13.071   1.867  13.216
83203SOL     OW51505   0.837  14.518   8.029
83203SOL    HW151506   0.818  14.523   7.935
83203SOL    HW251507   0.933  14.515   8.034
83204SOL     OW51508   3.081   5.830  14.392
83204SOL    HW151509   3.040   5.894  14.333
83204SOL    HW251510   3.156   5.797  14.342
83205SOL     OW51511   8.347   3.143   1.730
83205SOL    HW151512   8.400   3.158   1.808
83205SOL    HW251513   8.341   3.048   1.723
83206SOL     OW51514  12.263   1.215   7.214
83206SOL    HW151515  12.329   1.168   7.265
83206SOL    HW251516  12.263   1.172   7.129
83207SOL     OW51517   0.002   2.424   0.488
83207SOL    HW151518  14.819   2.444   0.557
83207SOL    HW251519  14.835   2.367   0.427
83208SOL     OW51520  12.738   5.895  11.457
83208SOL    HW151521  12.768   5.930  11.374
83208SOL    HW251522  12.741   5.969  11.518
83209SOL     OW51523   6.698  10.440  12.549
83209SOL    HW151524   6.669  10.412  12.462
83209SOL    HW251525   6.696  10.359  12.601
83210SOL     OW51526  11.669   8.843   3.941
83210SOL    HW151527  11.651   8.910   3.874
83210SOL    HW251528  11.598   8.780   3.932
83211SOL     OW51529   6.261  13.288   7.458
83211SOL    HW151530   6.236  13.316   7.547
83211SOL    HW251531   6.238  13.195   7.455
83212SOL     OW51532   2.777   0.875   0.437
83212SOL    HW151533   2.827   0.924   0.502
83212SOL    HW251534   2.705   0.934   0.413
83213SOL     OW51535   4.236   2.314  14.666
83213SOL    HW151536   4.304   2.306  14.733
83213SOL    HW251537   4.272   2.267  14.591
83214SOL     OW51538   7.420   0.242   5.756
83214SOL    HW151539   7.474   0.192   5.818
83214SOL    HW251540   7.458   0.329   5.756
83215SOL     OW51541   0.181   9.209   6.564
83215SOL    HW151542   0.274   9.191   6.580
83215SOL    HW251543   0.175   9.305   6.567
83216SOL     OW51544  14.431   9.792  10.300
83216SOL    HW151545  14.430   9.761  10.210
83216SOL    HW251546  14.349   9.760  10.338
83217SOL     OW51547   6.704   7.352   9.311
83217SOL    HW151548   6.674   7.278   9.365
83217SOL    HW251549   6.731   7.418   9.374
83218SOL     OW51550   1.523   0.638   0.813
83218SOL    HW151551   1.550   0.547   0.802
83218SOL    HW251552   1.487   0.641   0.902
83219SOL     OW51553   7.862   2.921  10.653
83219SOL    HW151554   7.943   2.972  10.655
83219SOL    HW251555   7.808   2.959  10.722
83220SOL     OW51556   5.374   9.758  14.875
83220SOL    HW151557   5.328   9.713  14.804
83220SOL    HW251558   5.309   9.765   0.064
83221SOL     OW51559   9.926   7.100  10.819
83221SOL    HW151560   9.852   7.125  10.875
83221SOL    HW251561   9.918   7.005  10.811
83222SOL     OW51562   5.766   4.177   2.929
83222SOL    HW151563   5.805   4.108   2.875
83222SOL    HW251564   5.713   4.129   2.993
83223SOL     OW51565   1.206  14.754  13.911
83223SOL    HW151566   1.241  14.842  13.924
83223SOL    HW251567   1.219  14.709  13.994
83224SOL     OW51568   2.481  13.787   7.869
83224SOL    HW151569   2.453  13.854   7.930
83224SOL    HW251570   2.492  13.833   7.786
83225SOL     OW51571   8.114   7.491   8.430
83225SOL    HW151572   8.209   7.497   8.437
83225SOL    HW251573   8.094   7.531   8.345
83226SOL     OW51574   2.768   1.454   9.170
83226SOL    HW151575   2.810   1.534   9.199
83226SOL    HW251576   2.814   1.430   9.089
83227SOL     OW51577  10.188   2.569   6.336
83227SOL    HW151578  10.122   2.513   6.378
83227SOL    HW251579  10.146   2.655   6.332
83228SOL     OW51580   9.497   2.712   3.995
83228SOL    HW151581   9.441   2.788   3.980
83228SOL    HW251582   9.586   2.745   3.983
83229SOL     OW51583   0.852  14.706   6.461
83229SOL    HW151584   0.786  14.689   6.394
83229SOL    HW251585   0.861  14.623   6.508
83230SOL     OW51586   2.119   7.953   1.719
83230SOL    HW151587   2.114   7.877   1.661
83230SOL    HW251588   2.099   8.028   1.663
83231SOL     OW51589   4.372  11.444   4.550
83231SOL    HW151590   4.314  11.396   4.609
83231SOL    HW251591   4.315  11.505   4.503
83232SOL     OW51592   0.256  11.968   1.110
83232SOL    HW151593   0.215  11.994   1.027
83232SOL    HW251594   0.322  11.903   1.085
83233SOL     OW51595  10.113   5.887  12.930
83233SOL    HW151596  10.200   5.915  12.959
83233SOL    HW251597  10.118   5.792  12.926
83234SOL     OW51598   5.282  13.847   9.661
83234SOL    HW151599   5.215  13.812   9.720
83234SOL    HW251600   5.333  13.907   9.715
83235SOL     OW51601   7.879   9.339   8.476
83235SOL    HW151602   7.875   9.429   8.445
83235SOL    HW251603   7.853   9.343   8.568
83236SOL     OW51604  14.150  12.682   3.203
83236SOL    HW151605  14.101  12.757   3.170
83236SOL    HW251606  14.223  12.720   3.253
83237SOL     OW51607  13.316  14.252  10.291
83237SOL    HW151608  13.263  14.185  10.247
83237SOL    HW251609  13.407  14.225  10.275
83238SOL     OW51610   7.158   5.540   9.424
83238SOL    HW151611   7.148   5.453   9.461
83238SOL    HW251612   7.198   5.592   9.493
83239SOL     OW51613   1.918  11.782   4.530
83239SOL    HW151614   1.866  11.841   4.474
83239SOL    HW251615   1.915  11.823   4.616
83240SOL     OW51616   7.986   9.448   4.509
83240SOL    HW151617   7.998   9.516   4.442
83240SOL    HW251618   8.022   9.369   4.469
83241SOL     OW51619   7.139   2.199   8.579
83241SOL    HW151620   7.096   2.279   8.609
83241SOL    HW251621   7.124   2.137   8.650
83242SOL     OW51622  13.864  14.515   1.029
83242SOL    HW151623  13.775  14.549   1.022
83242SOL    HW251624  13.919  14.585   0.993
83243SOL     OW51625   6.904   2.975  10.784
83243SOL    HW151626   6.902   3.058  10.738
83243SOL    HW251627   6.995   2.946  10.780
83244SOL     OW51628  14.027   8.657   2.085
83244SOL    HW151629  13.967   8.623   2.152
83244SOL    HW251630  14.112   8.617   2.107
83245SOL     OW51631   7.152  12.195   7.637
83245SOL    HW151632   7.235  12.195   7.684
83245SOL    HW251633   7.105  12.119   7.671
83246SOL     OW51634   1.981  12.702   7.960
83246SOL    HW151635   1.973  12.740   7.873
83246SOL    HW251636   1.995  12.777   8.018
83247SOL     OW51637   6.902   7.926  14.083
83247SOL    HW151638   6.913   7.930  13.988
83247SOL    HW251639   6.838   7.994  14.103
83248SOL     OW51640   7.488   5.330   9.683
83248SOL    HW151641   7.440   5.400   9.728
83248SOL    HW251642   7.561   5.375   9.641
83249SOL     OW51643   0.437  13.590  14.574
83249SOL    HW151644   0.373  13.658  14.551
83249SOL    HW251645   0.384  13.512  14.589
83250SOL     OW51646  10.753   7.268  10.066
83250SOL    HW151647  10.762   7.279   9.971
83250SOL    HW251648  10.664   7.234  10.077
83251SOL     OW51649   3.333   1.048   8.613
83251SOL    HW151650   3.426   1.031   8.594
83251SOL    HW251651   3.310   1.120   8.555
83252SOL     OW51652   8.120   1.792   7.296
83252SOL    HW151653   8.054   1.766   7.360
83252SOL    HW251654   8.077   1.780   7.211
83253SOL     OW51655   6.856   5.319   6.298
83253SOL    HW151656   6.808   5.297   6.218
83253SOL    HW251657   6.821   5.258   6.364
83254SOL     OW51658   9.605   8.736   5.060
83254SOL    HW151659   9.589   8.648   5.093
83254SOL    HW251660   9.673   8.772   5.117
83255SOL     OW51661   8.142   4.689   4.847
83255SOL    HW151662   8.059   4.694   4.800
83255SOL    HW251663   8.158   4.595   4.858
83256SOL     OW51664   1.128   3.053   6.291
83256SOL    HW151665   1.116   3.066   6.385
83256SOL    HW251666   1.152   2.961   6.282
83257SOL     OW51667  14.077   2.135   4.018
83257SOL    HW151668  14.147   2.187   4.057
83257SOL    HW251669  14.046   2.187   3.944
83258SOL     OW51670  13.155   4.267   5.636
83258SOL    HW151671  13.166   4.253   5.542
83258SOL    HW251672  13.186   4.356   5.651
83259SOL     OW51673   0.944   5.339   2.593
83259SOL    HW151674   0.896   5.406   2.641
83259SOL    HW251675   1.035   5.368   2.596
83260SOL     OW51676   8.096   1.049   1.130
83260SOL    HW151677   8.029   0.986   1.156
83260SOL    HW251678   8.053   1.107   1.067
83261SOL     OW51679   1.602  13.102  14.185
83261SOL    HW151680   1.661  13.141  14.250
83261SOL    HW251681   1.660  13.077  14.113
83262SOL     OW51682   6.807   3.172  11.069
83262SOL    HW151683   6.837   3.182  10.978
83262SOL    HW251684   6.826   3.080  11.090
83263SOL     OW51685   7.794  13.931   8.818
83263SOL    HW151686   7.785  13.913   8.911
83263SOL    HW251687   7.884  13.904   8.797
83264SOL     OW51688   0.779   1.454   3.267
83264SOL    HW151689   0.841   1.411   3.209
83264SOL    HW251690   0.708   1.482   3.210
83265SOL     OW51691   7.427  10.719   1.718
83265SOL    HW151692   7.386  10.666   1.649
83265SOL    HW251693   7.427  10.662   1.795
83266SOL     OW51694   2.219   8.732  13.339
83266SOL    HW151695   2.196   8.663  13.401
83266SOL    HW251696   2.312   8.749  13.355
83267SOL     OW51697  14.514   9.481   8.638
83267SOL    HW151698  14.588   9.492   8.698
83267SOL    HW251699  14.540   9.409   8.581
83268SOL     OW51700   1.876  12.631  14.620
83268SOL    HW151701   1.931  12.564  14.661
83268SOL    HW251702   1.902  12.631  14.528
83269SOL     OW51703   8.333  13.056  11.436
83269SOL    HW151704   8.241  13.066  11.412
83269SOL    HW251705   8.374  13.138  11.409
83270SOL     OW51706  11.577   6.656   3.557
83270SOL    HW151707  11.529   6.642   3.638
83270SOL    HW251708  11.537   6.734   3.518
83271SOL     OW51709  12.318  10.537   6.592
83271SOL    HW151710  12.345  10.541   6.501
83271SOL    HW251711  12.281  10.623   6.610
83272SOL     OW51712   2.399  13.143  11.346
83272SOL    HW151713   2.340  13.097  11.406
83272SOL    HW251714   2.482  13.097  11.355
83273SOL     OW51715  13.692  14.570  14.776
83273SOL    HW151716  13.619  14.623  14.742
83273SOL    HW251717  13.651  14.489  14.805
83274SOL     OW51718   7.271  12.880  10.318
83274SOL    HW151719   7.291  12.964  10.361
83274SOL    HW251720   7.186  12.893  10.278
83275SOL     OW51721   1.898  12.265   9.043
83275SOL    HW151722   1.813  12.226   9.062
83275SOL    HW251723   1.879  12.358   9.028
83276SOL     OW51724   4.566  11.195   8.893
83276SOL    HW151725   4.642  11.208   8.837
83276SOL    HW251726   4.534  11.108   8.872
83277SOL     OW51727   4.320   7.893   2.526
83277SOL    HW151728   4.290   7.932   2.608
83277SOL    HW251729   4.366   7.813   2.554
83278SOL     OW51730  14.222  13.614   1.187
83278SOL    HW151731  14.221  13.701   1.147
83278SOL    HW251732  14.250  13.556   1.116
83279SOL     OW51733  12.407  13.701   4.405
83279SOL    HW151734  12.420  13.609   4.384
83279SOL    HW251735  12.496  13.736   4.416
83280SOL     OW51736  11.096  13.619   1.300
83280SOL    HW151737  11.084  13.653   1.389
83280SOL    HW251738  11.128  13.694   1.250
83281SOL     OW51739  10.197   3.310   8.327
83281SOL    HW151740  10.210   3.272   8.240
83281SOL    HW251741  10.278   3.356   8.346
83282SOL     OW51742  11.387   5.280  11.974
83282SOL    HW151743  11.420   5.321  12.054
83282SOL    HW251744  11.437   5.321  11.903
83283SOL     OW51745  14.005   3.022  12.306
83283SOL    HW151746  14.078   2.994  12.250
83283SOL    HW251747  13.941   2.951  12.301
83284SOL     OW51748  12.140  10.729  12.906
83284SOL    HW151749  12.199  10.657  12.883
83284SOL    HW251750  12.067  10.686  12.952
83285SOL     OW51751   8.851  11.058   5.388
83285SOL    HW151752   8.917  11.051   5.319
83285SOL    HW251753   8.845  10.971   5.425
83286SOL     OW51754  11.022   0.688   1.488
83286SOL    HW151755  10.981   0.758   1.438
83286SOL    HW251756  11.096   0.730   1.532
83287SOL     OW51757  14.125   6.712   2.909
83287SOL    HW151758  14.182   6.677   2.976
83287SOL    HW251759  14.127   6.647   2.839
83288SOL     OW51760   2.792   7.370   6.193
83288SOL    HW151761   2.854   7.411   6.253
83288SOL    HW251762   2.769   7.439   6.131
83289SOL     OW51763  12.494   0.088   3.152
83289SOL    HW151764  12.405   0.112   3.123
83289SOL    HW251765  12.493  14.873   3.155
83290SOL     OW51766   4.373   0.316   8.098
83290SOL    HW151767   4.392   0.255   8.168
83290SOL    HW251768   4.399   0.271   8.018
83291SOL     OW51769  12.898  14.069  13.039
83291SOL    HW151770  12.937  14.108  12.961
83291SOL    HW251771  12.865  13.984  13.009
83292SOL     OW51772   6.024  13.367  12.327
83292SOL    HW151773   6.033  13.454  12.364
83292SOL    HW251774   6.014  13.382  12.233
83293SOL     OW51775  11.726   0.569   3.805
83293SOL    HW151776  11.698   0.518   3.729
83293SOL    HW251777  11.820   0.582   3.791
83294SOL     OW51778   0.658   9.249  11.810
83294SOL    HW151779   0.616   9.298  11.880
83294SOL    HW251780   0.627   9.159  11.822
83295SOL     OW51781   7.158  13.072  12.646
83295SOL    HW151782   7.085  13.015  12.672
83295SOL    HW251783   7.234  13.035  12.691
83296SOL     OW51784  13.617   2.931  11.359
83296SOL    HW151785  13.637   2.926  11.452
83296SOL    HW251786  13.538   2.986  11.354
83297SOL     OW51787  10.057   8.377  11.284
83297SOL    HW151788  10.151   8.357  11.280
83297SOL    HW251789  10.034   8.399  11.193
83298SOL     OW51790   1.259   2.385   1.418
83298SOL    HW151791   1.296   2.454   1.364
83298SOL    HW251792   1.323   2.314   1.414
83299SOL     OW51793   3.225   6.811   5.915
83299SOL    HW151794   3.186   6.815   6.002
83299SOL    HW251795   3.189   6.887   5.869
83300SOL     OW51796  10.744   0.214   1.290
83300SOL    HW151797  10.719   0.122   1.303
83300SOL    HW251798  10.675   0.251   1.235
83301SOL     OW51799   2.356   2.477   3.533
83301SOL    HW151800   2.357   2.432   3.449
83301SOL    HW251801   2.265   2.503   3.546
83302SOL     OW51802  13.983   1.716  12.235
83302SOL    HW151803  14.029   1.633  12.222
83302SOL    HW251804  13.976   1.753  12.146
83303SOL     OW51805   7.039   1.991  13.577
83303SOL    HW151806   6.976   1.926  13.546
83303SOL    HW251807   7.064   1.961  13.664
83304SOL     OW51808   8.698   7.986   5.652
83304SOL    HW151809   8.727   7.945   5.571
83304SOL    HW251810   8.725   7.925   5.721
83305SOL     OW51811  14.073  11.223   6.052
83305SOL    HW151812  14.014  11.294   6.078
83305SOL    HW251813  14.061  11.156   6.120
83306SOL     OW51814   2.226   9.541  12.374
83306SOL    HW151815   2.187   9.529  12.461
83306SOL    HW251816   2.151   9.545  12.314
83307SOL     OW51817  12.742  10.454   8.682
83307SOL    HW151818  12.678  10.508   8.634
83307SOL    HW251819  12.799  10.517   8.726
83308SOL     OW51820   8.343   6.238   7.749
83308SOL    HW151821   8.408   6.227   7.819
83308SOL    HW251822   8.365   6.169   7.686
83309SOL     OW51823  12.680  10.803  12.201
83309SOL    HW151824  12.720  10.780  12.285
83309SOL    HW251825  12.588  10.777  12.210
83310SOL     OW51826  13.499   1.398   8.634
83310SOL    HW151827  13.563   1.341   8.590
83310SOL    HW251828  13.549   1.442   8.703
83311SOL     OW51829   7.450  12.479   5.251
83311SOL    HW151830   7.492  12.478   5.165
83311SOL    HW251831   7.500  12.544   5.301
83312SOL     OW51832   4.110   7.314   3.564
83312SOL    HW151833   4.100   7.243   3.627
83312SOL    HW251834   4.200   7.307   3.534
83313SOL     OW51835   2.202   3.891   7.460
83313SOL    HW151836   2.200   3.946   7.382
83313SOL    HW251837   2.111   3.889   7.491
83314SOL     OW51838   1.661   8.263   1.608
83314SOL    HW151839   1.606   8.313   1.548
83314SOL    HW251840   1.677   8.323   1.680
83315SOL     OW51841   2.368  10.685   0.754
83315SOL    HW151842   2.335  10.767   0.718
83315SOL    HW251843   2.437  10.659   0.694
83316SOL     OW51844   9.748  10.466  13.599
83316SOL    HW151845   9.818  10.434  13.542
83316SOL    HW251846   9.780  10.551  13.629
83317SOL     OW51847   0.088   5.471   0.025
83317SOL    HW151848   0.165   5.437   0.070
83317SOL    HW251849   0.024   5.486   0.095
83318SOL     OW51850   2.146   2.893  12.552
83318SOL    HW151851   2.168   2.838  12.477
83318SOL    HW251852   2.050   2.897  12.551
83319SOL     OW51853   1.710  13.555   6.727
83319SOL    HW151854   1.677  13.474   6.690
83319SOL    HW251855   1.797  13.565   6.689
83320SOL     OW51856  13.412  12.770   5.897
83320SOL    HW151857  13.507  12.767   5.899
83320SOL    HW251858  13.390  12.856   5.933
83321SOL     OW51859   8.868   6.554   1.989
83321SOL    HW151860   8.823   6.611   1.927
83321SOL    HW251861   8.952   6.535   1.946
83322SOL     OW51862   0.778  12.156   6.885
83322SOL    HW151863   0.799  12.165   6.978
83322SOL    HW251864   0.727  12.076   6.879
83323SOL     OW51865   2.240  13.620   7.681
83323SOL    HW151866   2.280  13.619   7.594
83323SOL    HW251867   2.146  13.623   7.664
83324SOL     OW51868  12.912  14.737   4.177
83324SOL    HW151869  12.992  14.776   4.211
83324SOL    HW251870  12.843  14.770   4.234
83325SOL     OW51871   2.890  13.588  12.337
83325SOL    HW151872   2.915  13.646  12.409
83325SOL    HW251873   2.882  13.645  12.261
83326SOL     OW51874   4.053  13.144   3.048
83326SOL    HW151875   3.979  13.172   2.994
83326SOL    HW251876   4.069  13.053   3.021
83327SOL     OW51877   4.853   3.089   3.106
83327SOL    HW151878   4.859   3.008   3.157
83327SOL    HW251879   4.812   3.152   3.166
83328SOL     OW51880   2.782  14.632  14.140
83328SOL    HW151881   2.724  14.677  14.202
83328SOL    HW251882   2.750  14.658  14.054
83329SOL     OW51883   7.026  12.251  13.423
83329SOL    HW151884   7.031  12.164  13.383
83329SOL    HW251885   7.105  12.296  13.392
83330SOL     OW51886  14.862   8.791   2.621
83330SOL    HW151887  14.845   8.728   2.551
83330SOL    HW251888  14.783   8.845   2.624
83331SOL     OW51889   8.621   9.990  13.467
83331SOL    HW151890   8.589  10.072  13.429
83331SOL    HW251891   8.685   9.958  13.403
83332SOL     OW51892   3.512   9.799  13.587
83332SOL    HW151893   3.432   9.846  13.563
83332SOL    HW251894   3.575   9.823  13.519
83333SOL     OW51895  13.314   9.986  13.069
83333SOL    HW151896  13.401   9.958  13.097
83333SOL    HW251897  13.291  10.056  13.130
83334SOL     OW51898  12.832   4.509   8.232
83334SOL    HW151899  12.868   4.588   8.192
83334SOL    HW251900  12.907   4.451   8.243
83335SOL     OW51901  13.998  14.333   0.185
83335SOL    HW151902  14.019  14.415   0.141
83335SOL    HW251903  14.076  14.278   0.173
83336SOL     OW51904   8.926  14.774   0.072
83336SOL    HW151905   9.009  14.771   0.119
83336SOL    HW251906   8.951  14.791  14.861
83337SOL     OW51907   8.788   3.986   0.452
83337SOL    HW151908   8.854   4.012   0.516
83337SOL    HW251909   8.775   3.892   0.469
83338SOL     OW51910   9.824   4.739   0.130
83338SOL    HW151911   9.885   4.784   0.189
83338SOL    HW251912   9.848   4.770   0.043
83339SOL     OW51913  11.451   3.031  12.321
83339SOL    HW151914  11.448   2.939  12.297
83339SOL    HW251915  11.507   3.035  12.398
83340SOL     OW51916  12.077   9.160   5.779
83340SOL    HW151917  12.103   9.246   5.814
83340SOL    HW251918  12.068   9.105   5.856
83341SOL     OW51919   6.784  12.410   7.994
83341SOL    HW151920   6.721  12.432   8.063
83341SOL    HW251921   6.865  12.392   8.041
83342SOL     OW51922   7.651   2.347   6.705
83342SOL    HW151923   7.729   2.336   6.758
83342SOL    HW251924   7.661   2.433   6.665
83343SOL     OW51925  11.670   9.685   8.621
83343SOL    HW151926  11.742   9.739   8.652
83343SOL    HW251927  11.711   9.624   8.559
83344SOL     OW51928  12.191   5.694  12.737
83344SOL    HW151929  12.167   5.601  12.740
83344SOL    HW251930  12.198   5.720  12.829
83345SOL     OW51931  11.132  14.463   7.615
83345SOL    HW151932  11.108  14.490   7.527
83345SOL    HW251933  11.204  14.401   7.603
83346SOL     OW51934   2.252   9.836   0.913
83346SOL    HW151935   2.303   9.839   0.994
83346SOL    HW251936   2.174   9.888   0.932
83347SOL     OW51937  13.239   5.824   5.527
83347SOL    HW151938  13.279   5.813   5.440
83347SOL    HW251939  13.311   5.809   5.588
83348SOL     OW51940   7.521   9.214   4.889
83348SOL    HW151941   7.474   9.185   4.811
83348SOL    HW251942   7.472   9.178   4.962
83349SOL     OW51943   3.298  12.819  12.429
83349SOL    HW151944   3.337  12.766  12.498
83349SOL    HW251945   3.359  12.812  12.356
83350SOL     OW51946   1.697   7.479   5.023
83350SOL    HW151947   1.690   7.383   5.026
83350SOL    HW251948   1.660   7.508   5.106
83351SOL     OW51949  12.496   3.641   5.946
83351SOL    HW151950  12.557   3.712   5.924
83351SOL    HW251951  12.546   3.561   5.929
83352SOL     OW51952   2.046   2.209   9.616
83352SOL    HW151953   1.967   2.263   9.616
83352SOL    HW251954   2.048   2.168   9.530
83353SOL     OW51955  10.291   8.590   3.764
83353SOL    HW151956  10.285   8.546   3.680
83353SOL    HW251957  10.228   8.661   3.759
83354SOL     OW51958  13.445   7.872   6.036
83354SOL    HW151959  13.428   7.939   5.969
83354SOL    HW251960  13.387   7.800   6.014
83355SOL     OW51961   1.859   3.049   5.924
83355SOL    HW151962   1.894   3.008   5.845
83355SOL    HW251963   1.847   3.140   5.900
83356SOL     OW51964   1.580   7.782   8.803
83356SOL    HW151965   1.528   7.729   8.742
83356SOL    HW251966   1.650   7.818   8.748
83357SOL     OW51967  11.154   9.059   6.961
83357SOL    HW151968  11.089   9.077   6.894
83357SOL    HW251969  11.162   8.964   6.962
83358SOL     OW51970   8.670   7.505   3.342
83358SOL    HW151971   8.663   7.566   3.269
83358SOL    HW251972   8.761   7.511   3.370
83359SOL     OW51973   1.733  14.310   9.440
83359SOL    HW151974   1.676  14.381   9.411
83359SOL    HW251975   1.804  14.354   9.486
83360SOL     OW51976   2.232   0.126   5.984
83360SOL    HW151977   2.320   0.157   5.966
83360SOL    HW251978   2.217   0.149   6.076
83361SOL     OW51979   0.054   0.334  11.063
83361SOL    HW151980   0.114   0.396  11.106
83361SOL    HW251981   0.102   0.306  10.985
83362SOL     OW51982  11.133   0.388   0.777
83362SOL    HW151983  11.107   0.310   0.729
83362SOL    HW251984  11.085   0.460   0.734
83363SOL     OW51985   8.320   5.176   0.517
83363SOL    HW151986   8.235   5.135   0.498
83363SOL    HW251987   8.350   5.133   0.597
83364SOL     OW51988  13.285  13.470   4.401
83364SOL    HW151989  13.347  13.513   4.341
83364SOL    HW251990  13.235  13.410   4.345
83365SOL     OW51991   3.911   6.871   1.373
83365SOL    HW151992   3.863   6.791   1.392
83365SOL    HW251993   3.924   6.870   1.278
83366SOL     OW51994   2.121  11.161   0.827
83366SOL    HW151995   2.175  11.145   0.904
83366SOL    HW251996   2.183  11.165   0.754
83367SOL     OW51997   1.175   1.120   2.171
83367SOL    HW151998   1.231   1.096   2.245
83367SOL    HW251999   1.090   1.137   2.209
83368SOL     OW52000   0.124   7.269  14.459
83368SOL    HW152001   0.171   7.306  14.385
83368SOL    HW252002   0.188   7.214  14.504
83369SOL     OW52003   4.843   5.412   8.409
83369SOL    HW152004   4.865   5.476   8.341
83369SOL    HW252005   4.928   5.376   8.436
83370SOL     OW52006   4.123  14.326   3.619
83370SOL    HW152007   4.204  14.277   3.602
83370SOL    HW252008   4.090  14.349   3.532
83371SOL     OW52009  13.040  11.343  11.647
83371SOL    HW152010  12.948  11.354  11.627
83371SOL    HW252011  13.052  11.249  11.660
83372SOL     OW52012   7.046   2.470   8.560
83372SOL    HW152013   7.087   2.556   8.547
83372SOL    HW252014   7.023   2.468   8.653
83373SOL     OW52015   2.236  10.776   3.220
83373SOL    HW152016   2.195  10.756   3.136
83373SOL    HW252017   2.249  10.690   3.261
83374SOL     OW52018   7.218  11.699   9.325
83374SOL    HW152019   7.165  11.703   9.246
83374SOL    HW252020   7.162  11.658   9.390
83375SOL     OW52021  10.219   4.466   7.140
83375SOL    HW152022  10.304   4.426   7.122
83375SOL    HW252023  10.209   4.458   7.235
83376SOL     OW52024  14.525  14.108   5.736
83376SOL    HW152025  14.558  14.051   5.805
83376SOL    HW252026  14.589  14.101   5.666
83377SOL     OW52027   5.667   2.549   3.126
83377SOL    HW152028   5.667   2.531   3.032
83377SOL    HW252029   5.618   2.476   3.164
83378SOL     OW52030   2.782   2.940  10.381
83378SOL    HW152031   2.855   2.879  10.396
83378SOL    HW252032   2.802   3.016  10.436
83379SOL     OW52033  14.208  11.709   2.607
83379SOL    HW152034  14.181  11.756   2.686
83379SOL    HW252035  14.151  11.632   2.604
83380SOL     OW52036   6.585   0.978  13.271
83380SOL    HW152037   6.616   1.006  13.358
83380SOL    HW252038   6.526   1.048  13.243
83381SOL     OW52039  13.606  14.739   5.444
83381SOL    HW152040  13.517  14.723   5.413
83381SOL    HW252041  13.650  14.781   5.370
83382SOL     OW52042   5.396  14.743  13.392
83382SOL    HW152043   5.366  14.676  13.454
83382SOL    HW252044   5.437  14.809  13.448
83383SOL     OW52045   1.540  13.127   7.180
83383SOL    HW152046   1.473  13.087   7.235
83383SOL    HW252047   1.496  13.143   7.096
83384SOL     OW52048  14.324   5.400   4.055
83384SOL    HW152049  14.405   5.409   4.005
83384SOL    HW252050  14.257   5.437   3.997
83385SOL     OW52051  13.230  14.251   9.475
83385SOL    HW152052  13.220  14.280   9.384
83385SOL    HW252053  13.192  14.323   9.527
83386SOL     OW52054   9.138  11.906  10.499
83386SOL    HW152055   9.103  11.993  10.480
83386SOL    HW252056   9.154  11.868  10.413
83387SOL     OW52057   8.081   7.683   5.880
83387SOL    HW152058   8.058   7.598   5.918
83387SOL    HW252059   8.101   7.665   5.789
83388SOL     OW52060   8.220   8.430   5.747
83388SOL    HW152061   8.236   8.482   5.826
83388SOL    HW252062   8.229   8.339   5.776
83389SOL     OW52063  11.927  11.648   6.487
83389SOL    HW152064  11.986  11.636   6.561
83389SOL    HW252065  11.854  11.698   6.523
83390SOL     OW52066  11.564   9.003   3.750
83390SOL    HW152067  11.492   9.048   3.707
83390SOL    HW252068  11.610   9.071   3.799
83391SOL     OW52069  12.173   3.998   5.955
83391SOL    HW152070  12.083   3.967   5.965
83391SOL    HW252071  12.227   3.922   5.976
83392SOL     OW52072   1.640  12.151   7.427
83392SOL    HW152073   1.618  12.107   7.510
83392SOL    HW252074   1.635  12.245   7.449
83393SOL     OW52075  12.222  12.157   1.407
83393SOL    HW152076  12.287  12.187   1.343
83393SOL    HW252077  12.261  12.079   1.445
83394SOL     OW52078   7.829  12.301   2.367
83394SOL    HW152079   7.862  12.212   2.381
83394SOL    HW252080   7.811  12.334   2.455
83395SOL     OW52081  11.058   7.552   8.173
83395SOL    HW152082  11.117   7.612   8.219
83395SOL    HW252083  11.115   7.481   8.142
83396SOL     OW52084   5.105   4.150   3.800
83396SOL    HW152085   5.114   4.055   3.789
83396SOL    HW252086   5.053   4.178   3.725
83397SOL     OW52087   8.962   8.382  13.865
83397SOL    HW152088   8.930   8.426  13.785
83397SOL    HW252089   8.988   8.453  13.923
83398SOL     OW52090  11.312  11.667   9.566
83398SOL    HW152091  11.360  11.600   9.518
83398SOL    HW252092  11.379  11.730   9.594
83399SOL     OW52093  11.334   3.130   8.052
83399SOL    HW152094  11.283   3.160   8.127
83399SOL    HW252095  11.319   3.197   7.985
83400SOL     OW52096   3.959   1.937   2.595
83400SOL    HW152097   4.042   1.968   2.631
83400SOL    HW252098   3.907   1.912   2.672
83401SOL     OW52099   3.204   5.704   9.095
83401SOL    HW152100   3.166   5.690   9.182
83401SOL    HW252101   3.296   5.680   9.105
83402SOL     OW52102   9.798   3.950  10.986
83402SOL    HW152103   9.864   3.978  11.049
83402SOL    HW252104   9.719   3.935  11.039
83403SOL     OW52105   4.464   8.003  13.214
83403SOL    HW152106   4.536   7.996  13.276
83403SOL    HW252107   4.390   8.035  13.267
83404SOL     OW52108   1.350  13.145   6.295
83404SOL    HW152109   1.356  13.163   6.201
83404SOL    HW252110   1.440  13.157   6.327
83405SOL     OW52111   7.122  12.094  11.819
83405SOL    HW152112   7.087  12.006  11.810
83405SOL    HW252113   7.112  12.133  11.732
83406SOL     OW52114   2.976   3.165   5.809
83406SOL    HW152115   2.914   3.111   5.759
83406SOL    HW252116   2.939   3.168   5.897
83407SOL     OW52117  11.180   6.240   2.076
83407SOL    HW152118  11.094   6.223   2.115
83407SOL    HW252119  11.242   6.204   2.138
83408SOL     OW52120   8.200   1.961  10.507
83408SOL    HW152121   8.238   1.875  10.523
83408SOL    HW252122   8.166   1.957  10.418
83409SOL     OW52123   2.454  11.933   2.640
83409SOL    HW152124   2.360  11.949   2.643
83409SOL    HW252125   2.463  11.839   2.627
83410SOL     OW52126   8.822   2.953   3.132
83410SOL    HW152127   8.745   2.976   3.081
83410SOL    HW252128   8.793   2.958   3.223
83411SOL     OW52129   5.125  10.046  10.234
83411SOL    HW152130   5.030  10.053  10.221
83411SOL    HW252131   5.158  10.018  10.149
83412SOL     OW52132   2.926  10.953  13.680
83412SOL    HW152133   2.870  10.928  13.754
83412SOL    HW252134   2.987  10.879  13.671
83413SOL     OW52135  11.849   3.052   5.097
83413SOL    HW152136  11.859   2.974   5.042
83413SOL    HW252137  11.868   3.125   5.039
83414SOL     OW52138   0.240   1.982  12.131
83414SOL    HW152139   0.324   1.937  12.132
83414SOL    HW252140   0.249   2.049  12.064
83415SOL     OW52141  14.654   6.812   0.603
83415SOL    HW152142  14.618   6.898   0.581
83415SOL    HW252143  14.738   6.810   0.559
83416SOL     OW52144  14.615   9.133  11.902
83416SOL    HW152145  14.600   9.071  11.831
83416SOL    HW252146  14.575   9.215  11.871
83417SOL     OW52147   9.201   1.636  12.634
83417SOL    HW152148   9.188   1.549  12.596
83417SOL    HW252149   9.114   1.663  12.663
83418SOL     OW52150   3.173  11.807  12.323
83418SOL    HW152151   3.143  11.757  12.248
83418SOL    HW252152   3.248  11.758  12.357
83419SOL     OW52153   3.259   0.046   5.445
83419SOL    HW152154   3.186   0.026   5.387
83419SOL    HW252155   3.294  14.840   5.469
83420SOL     OW52156   3.635  12.446  10.575
83420SOL    HW152157   3.548  12.439  10.614
83420SOL    HW252158   3.679  12.514  10.625
83421SOL     OW52159   3.862   4.332   9.266
83421SOL    HW152160   3.929   4.377   9.214
83421SOL    HW252161   3.788   4.394   9.267
83422SOL     OW52162   1.187  10.821   6.060
83422SOL    HW152163   1.135  10.894   6.093
83422SOL    HW252164   1.126  10.769   6.008
83423SOL     OW52165   5.490  12.561  10.825
83423SOL    HW152166   5.581  12.545  10.799
83423SOL    HW252167   5.442  12.487  10.789
83424SOL     OW52168   8.963   1.764   2.184
83424SOL    HW152169   8.892   1.823   2.212
83424SOL    HW252170   9.039   1.821   2.172
83425SOL     OW52171   2.154  14.415   8.118
83425SOL    HW152172   2.061  14.418   8.095
83425SOL    HW252173   2.191  14.491   8.073
83426SOL     OW52174   6.803   2.518  14.762
83426SOL    HW152175   6.708   2.522  14.750
83426SOL    HW252176   6.838   2.520  14.673
83427SOL     OW52177  12.673   1.327   0.714
83427SOL    HW152178  12.699   1.238   0.740
83427SOL    HW252179  12.754   1.377   0.718
83428SOL     OW52180   5.481  11.677  14.080
83428SOL    HW152181   5.486  11.716  14.167
83428SOL    HW252182   5.552  11.720  14.031
83429SOL     OW52183   8.816   5.158  14.344
83429SOL    HW152184   8.742   5.125  14.394
83429SOL    HW252185   8.793   5.248  14.321
83430SOL     OW52186   7.374  10.974   9.629
83430SOL    HW152187   7.448  10.914   9.629
83430SOL    HW252188   7.400  11.046   9.572
83431SOL     OW52189  11.018  14.815  14.208
83431SOL    HW152190  11.003  14.756  14.283
83431SOL    HW252191  10.939  14.868  14.203
83432SOL     OW52192  10.479  11.896   9.118
83432SOL    HW152193  10.422  11.942   9.180
83432SOL    HW252194  10.539  11.846   9.174
83433SOL     OW52195  10.394   5.659   5.665
83433SOL    HW152196  10.466   5.656   5.728
83433SOL    HW252197  10.434   5.686   5.583
83434SOL     OW52198   9.707   1.765  10.170
83434SOL    HW152199   9.772   1.819  10.124
83434SOL    HW252200   9.760   1.697  10.212
83435SOL     OW52201   3.257   6.746   6.356
83435SOL    HW152202   3.321   6.758   6.426
83435SOL    HW252203   3.179   6.713   6.400
83436SOL     OW52204  10.177   2.836   3.569
83436SOL    HW152205  10.189   2.931   3.559
83436SOL    HW252206  10.096   2.829   3.620
83437SOL     OW52207   4.537   9.802   3.961
83437SOL    HW152208   4.624   9.840   3.949
83437SOL    HW252209   4.538   9.768   4.051
83438SOL     OW52210   7.240  10.381  13.036
83438SOL    HW152211   7.270  10.373  12.945
83438SOL    HW252212   7.153  10.420  13.030
83439SOL     OW52213  14.252   7.218   3.597
83439SOL    HW152214  14.254   7.297   3.651
83439SOL    HW252215  14.222   7.149   3.656
83440SOL     OW52216  14.849   1.949   6.731
83440SOL    HW152217  14.808   1.995   6.803
83440SOL    HW252218   0.063   1.965   6.743
83441SOL     OW52219  11.534  10.671   9.089
83441SOL    HW152220  11.499  10.644   9.174
83441SOL    HW252221  11.609  10.727   9.110
83442SOL     OW52222  11.250  13.985   0.510
83442SOL    HW152223  11.167  13.940   0.491
83442SOL    HW252224  11.291  13.995   0.424
83443SOL     OW52225  13.060   3.274   4.682
83443SOL    HW152226  13.058   3.178   4.675
83443SOL    HW252227  13.045   3.305   4.593
83444SOL     OW52228   4.197   1.305   7.471
83444SOL    HW152229   4.240   1.390   7.476
83444SOL    HW252230   4.245   1.257   7.403
83445SOL     OW52231   6.195   6.847   1.465
83445SOL    HW152232   6.221   6.800   1.544
83445SOL    HW252233   6.223   6.938   1.481
83446SOL     OW52234  13.998   8.146   8.655
83446SOL    HW152235  13.968   8.100   8.577
83446SOL    HW252236  14.088   8.171   8.635
83447SOL     OW52237   8.550  12.466  12.956
83447SOL    HW152238   8.640  12.471  12.925
83447SOL    HW252239   8.553  12.408  13.032
83448SOL     OW52240   0.205   5.638  14.022
83448SOL    HW152241   0.165   5.720  14.051
83448SOL    HW252242   0.258   5.609  14.096
83449SOL     OW52243  12.468  13.605  10.301
83449SOL    HW152244  12.404  13.669  10.331
83449SOL    HW252245  12.540  13.657  10.266
83450SOL     OW52246   1.734   3.493   8.399
83450SOL    HW152247   1.737   3.411   8.449
83450SOL    HW252248   1.709   3.465   8.310
83451SOL     OW52249   6.411   1.432   9.295
83451SOL    HW152250   6.408   1.525   9.319
83451SOL    HW252251   6.502   1.407   9.306
83452SOL     OW52252  13.558  12.791  14.174
83452SOL    HW152253  13.478  12.745  14.148
83452SOL    HW252254  13.527  12.868  14.222
83453SOL     OW52255   0.663   5.773   0.386
83453SOL    HW152256   0.758   5.785   0.399
83453SOL    HW252257   0.657   5.702   0.322
83454SOL     OW52258  12.671   1.611   7.595
83454SOL    HW152259  12.580   1.606   7.626
83454SOL    HW252260  12.669   1.572   7.508
83455SOL     OW52261   0.914   3.322   2.038
83455SOL    HW152262   0.956   3.268   2.104
83455SOL    HW252263   0.969   3.400   2.031
83456SOL     OW52264   7.445   0.582   0.579
83456SOL    HW152265   7.508   0.514   0.556
83456SOL    HW252266   7.472   0.612   0.666
83457SOL     OW52267  14.287  13.227  10.134
83457SOL    HW152268  14.210  13.201  10.184
83457SOL    HW252269  14.257  13.301  10.081
83458SOL     OW52270   5.345   4.921   3.222
83458SOL    HW152271   5.421   4.882   3.179
83458SOL    HW252272   5.347   5.013   3.194
83459SOL     OW52273  14.596   3.896  13.280
83459SOL    HW152274  14.613   3.869  13.370
83459SOL    HW252275  14.675   3.870  13.232
83460SOL     OW52276   3.692  11.893   0.074
83460SOL    HW152277   3.630  11.966   0.077
83460SOL    HW252278   3.669  11.845  14.874
83461SOL     OW52279  11.194  10.411   4.758
83461SOL    HW152280  11.281  10.450   4.768
83461SOL    HW252281  11.153  10.460   4.687
83462SOL     OW52282   5.943   5.583  14.187
83462SOL    HW152283   5.892   5.517  14.233
83462SOL    HW252284   6.033   5.551  14.190
83463SOL     OW52285   9.305  14.175  13.160
83463SOL    HW152286   9.366  14.188  13.233
83463SOL    HW252287   9.242  14.247  13.169
83464SOL     OW52288   7.496   2.965   8.577
83464SOL    HW152289   7.548   3.043   8.594
83464SOL    HW252290   7.427   2.966   8.643
83465SOL     OW52291  10.985   8.870   5.125
83465SOL    HW152292  10.957   8.864   5.216
83465SOL    HW252293  10.987   8.965   5.107
83466SOL     OW52294   4.142   4.656   1.516
83466SOL    HW152295   4.090   4.658   1.435
83466SOL    HW252296   4.184   4.571   1.516
83467SOL     OW52297  12.163  12.079   5.518
83467SOL    HW152298  12.146  12.006   5.458
83467SOL    HW252299  12.257  12.094   5.512
83468SOL     OW52300  12.252   4.032   7.037
83468SOL    HW152301  12.178   4.061   6.984
83468SOL    HW252302  12.263   3.940   7.013
83469SOL     OW52303   5.849  13.104  10.911
83469SOL    HW152304   5.932  13.149  10.926
83469SOL    HW252305   5.825  13.068  10.996
83470SOL     OW52306  13.564   1.535   0.505
83470SOL    HW152307  13.480   1.489   0.503
83470SOL    HW252308  13.592   1.538   0.414
83471SOL     OW52309   3.908   4.235   2.891
83471SOL    HW152310   3.873   4.253   2.803
83471SOL    HW252311   4.002   4.249   2.882
83472SOL     OW52312   1.129   7.545  14.277
83472SOL    HW152313   1.141   7.640  14.274
83472SOL    HW252314   1.041   7.533  14.312
83473SOL     OW52315  10.568   4.106   9.794
83473SOL    HW152316  10.614   4.022   9.787
83473SOL    HW252317  10.502   4.090   9.862
83474SOL     OW52318   6.219   0.690   9.474
83474SOL    HW152319   6.299   0.697   9.526
83474SOL    HW252320   6.201   0.596   9.469
83475SOL     OW52321  14.607  12.958   3.507
83475SOL    HW152322  14.692  13.001   3.518
83475SOL    HW252323  14.615  12.876   3.556
83476SOL     OW52324  10.166  13.141   7.893
83476SOL    HW152325  10.174  13.233   7.917
83476SOL    HW252326  10.195  13.137   7.802
83477SOL     OW52327  11.017   8.450   7.660
83477SOL    HW152328  10.957   8.384   7.625
83477SOL    HW252329  10.995   8.530   7.612
83478SOL     OW52330   7.861   0.499   1.324
83478SOL    HW152331   7.932   0.513   1.387
83478SOL    HW252332   7.897   0.526   1.240
83479SOL     OW52333   6.286  13.749   4.726
83479SOL    HW152334   6.191  13.738   4.714
83479SOL    HW252335   6.294  13.827   4.780
83480SOL     OW52336   9.832   2.897   8.900
83480SOL    HW152337   9.873   2.968   8.851
83480SOL    HW252338   9.902   2.861   8.954
83481SOL     OW52339  13.710   4.437   2.156
83481SOL    HW152340  13.626   4.401   2.128
83481SOL    HW252341  13.709   4.426   2.251
83482SOL     OW52342   8.699   7.731   3.974
83482SOL    HW152343   8.776   7.676   3.987
83482SOL    HW252344   8.729   7.819   4.000
83483SOL     OW52345   4.006   2.346   3.594
83483SOL    HW152346   4.078   2.282   3.590
83483SOL    HW252347   4.044   2.421   3.639
83484SOL     OW52348   0.125   7.877  14.338
83484SOL    HW152349   0.144   7.792  14.379
83484SOL    HW252350   0.195   7.934  14.368
83485SOL     OW52351   9.367  14.492   7.002
83485SOL    HW152352   9.397  14.464   7.088
83485SOL    HW252353   9.311  14.567   7.019
83486SOL     OW52354  11.244  14.716  13.817
83486SOL    HW152355  11.287  14.675  13.892
83486SOL    HW252356  11.171  14.657  13.797
83487SOL     OW52357   3.660   8.257   7.853
83487SOL    HW152358   3.624   8.256   7.942
83487SOL    HW252359   3.717   8.333   7.850
83488SOL     OW52360  10.339  11.297   0.128
83488SOL    HW152361  10.434  11.301   0.138
83488SOL    HW252362  10.308  11.385   0.149
83489SOL     OW52363   9.140  11.814  10.020
83489SOL    HW152364   9.110  11.816  10.111
83489SOL    HW252365   9.186  11.897  10.009
83490SOL     OW52366  12.615   4.361  10.948
83490SOL    HW152367  12.626   4.394  11.038
83490SOL    HW252368  12.600   4.439  10.895
83491SOL     OW52369  12.053  11.931  14.742
83491SOL    HW152370  11.984  11.994  14.761
83491SOL    HW252371  12.075  11.947  14.650
83492SOL     OW52372   1.529   3.329   7.946
83492SOL    HW152373   1.621   3.338   7.920
83492SOL    HW252374   1.487   3.409   7.916
83493SOL     OW52375   1.155   4.931   2.582
83493SOL    HW152376   1.071   4.965   2.613
83493SOL    HW252377   1.189   4.880   2.656
83494SOL     OW52378   7.278   9.177   5.435
83494SOL    HW152379   7.253   9.204   5.524
83494SOL    HW252380   7.344   9.242   5.408
83495SOL     OW52381   8.283   8.695   7.769
83495SOL    HW152382   8.190   8.681   7.786
83495SOL    HW252383   8.296   8.789   7.780
83496SOL     OW52384   8.552   6.727   6.202
83496SOL    HW152385   8.570   6.811   6.160
83496SOL    HW252386   8.566   6.744   6.295
83497SOL     OW52387   0.801   3.256  10.846
83497SOL    HW152388   0.740   3.320  10.812
83497SOL    HW252389   0.872   3.308  10.884
83498SOL     OW52390   9.999   2.853   1.503
83498SOL    HW152391   9.944   2.775   1.504
83498SOL    HW252392  10.050   2.845   1.422
83499SOL     OW52393   3.886   3.100   8.639
83499SOL    HW152394   3.829   3.029   8.668
83499SOL    HW252395   3.890   3.090   8.544
83500SOL     OW52396   5.411   4.976   2.136
83500SOL    HW152397   5.397   4.949   2.045
83500SOL    HW252398   5.470   5.051   2.130
83501SOL     OW52399  10.503   7.735   8.863
83501SOL    HW152400  10.484   7.643   8.845
83501SOL    HW252401  10.596   7.736   8.883
83502SOL     OW52402  10.872   8.779   9.300
83502SOL    HW152403  10.900   8.746   9.386
83502SOL    HW252404  10.953   8.784   9.249
83503SOL     OW52405   6.134   0.552   2.974
83503SOL    HW152406   6.063   0.489   2.962
83503SOL    HW252407   6.178   0.523   3.054
83504SOL     OW52408   9.255   5.882   4.007
83504SOL    HW152409   9.296   5.969   4.012
83504SOL    HW252410   9.326   5.823   3.984
83505SOL     OW52411  11.625   5.263  12.742
83505SOL    HW152412  11.703   5.267  12.797
83505SOL    HW252413  11.597   5.355  12.732
83506SOL     OW52414   1.425   5.255   7.494
83506SOL    HW152415   1.405   5.204   7.416
83506SOL    HW252416   1.489   5.202   7.542
83507SOL     OW52417  14.638   9.754  13.613
83507SOL    HW152418  14.682   9.760  13.527
83507SOL    HW252419  14.588   9.672  13.608
83508SOL     OW52420   9.695   4.106  10.415
83508SOL    HW152421   9.631   4.065  10.473
83508SOL    HW252422   9.779   4.065  10.439
83509SOL     OW52423  13.126   6.618  11.449
83509SOL    HW152424  13.050   6.625  11.392
83509SOL    HW252425  13.194   6.579  11.393
83510SOL     OW52426   9.197   3.843  13.231
83510SOL    HW152427   9.178   3.916  13.290
83510SOL    HW252428   9.200   3.882  13.144
83511SOL     OW52429   8.467   8.625   6.332
83511SOL    HW152430   8.446   8.597   6.421
83511SOL    HW252431   8.512   8.709   6.342
83512SOL     OW52432   2.660   5.331   0.686
83512SOL    HW152433   2.743   5.298   0.721
83512SOL    HW252434   2.605   5.345   0.764
83513SOL     OW52435   8.467   9.912  11.689
83513SOL    HW152436   8.423   9.989  11.653
83513SOL    HW252437   8.484   9.857  11.613
83514SOL     OW52438  11.408   9.322   3.844
83514SOL    HW152439  11.484   9.280   3.883
83514SOL    HW252440  11.426   9.416   3.850
83515SOL     OW52441   8.157   0.618  12.363
83515SOL    HW152442   8.126   0.529  12.344
83515SOL    HW252443   8.145   0.665  12.281
83516SOL     OW52444   2.572   7.143   8.486
83516SOL    HW152445   2.492   7.096   8.463
83516SOL    HW252446   2.643   7.089   8.451
83517SOL     OW52447   7.475   4.585  14.000
83517SOL    HW152448   7.411   4.513  14.004
83517SOL    HW252449   7.434   4.650  13.943
83518SOL     OW52450   4.151   7.037   7.793
83518SOL    HW152451   4.101   7.102   7.843
83518SOL    HW252452   4.087   7.001   7.731
83519SOL     OW52453   5.094   2.578   6.563
83519SOL    HW152454   5.121   2.539   6.480
83519SOL    HW252455   5.001   2.556   6.571
83520SOL     OW52456   1.485  13.612   9.133
83520SOL    HW152457   1.396  13.578   9.138
83520SOL    HW252458   1.506  13.634   9.224
83521SOL     OW52459   1.644  12.439   7.456
83521SOL    HW152460   1.737  12.445   7.480
83521SOL    HW252461   1.643  12.451   7.361
83522SOL     OW52462  12.048   4.710   9.081
83522SOL    HW152463  11.987   4.781   9.063
83522SOL    HW252464  12.001   4.651   9.139
83523SOL     OW52465   0.022   3.069   6.528
83523SOL    HW152466  14.863   3.150   6.561
83523SOL    HW252467   0.080   3.098   6.458
83524SOL     OW52468   0.723   2.154   4.907
83524SOL    HW152469   0.639   2.193   4.884
83524SOL    HW252470   0.705   2.062   4.922
83525SOL     OW52471   1.398   4.429   9.472
83525SOL    HW152472   1.332   4.498   9.472
83525SOL    HW252473   1.358   4.357   9.422
83526SOL     OW52474   3.548   2.647   1.297
83526SOL    HW152475   3.470   2.640   1.353
83526SOL    HW252476   3.621   2.651   1.359
83527SOL     OW52477   2.315  12.111   4.989
83527SOL    HW152478   2.349  12.070   5.069
83527SOL    HW252479   2.363  12.194   4.983
83528SOL     OW52480   8.498  12.963   3.346
83528SOL    HW152481   8.428  13.019   3.313
83528SOL    HW252482   8.522  13.001   3.431
83529SOL     OW52483  10.872   4.360   7.310
83529SOL    HW152484  10.887   4.396   7.223
83529SOL    HW252485  10.797   4.409   7.344
83530SOL     OW52486  13.334  11.838  14.552
83530SOL    HW152487  13.267  11.777  14.583
83530SOL    HW252488  13.390  11.786  14.494
83531SOL     OW52489  14.746  11.985   0.073
83531SOL    HW152490  14.684  11.956   0.007
83531SOL    HW252491  14.696  12.045   0.129
83532SOL     OW52492   8.154  14.448  13.498
83532SOL    HW152493   8.185  14.504  13.427
83532SOL    HW252494   8.059  14.455  13.494
83533SOL     OW52495  13.460   5.238   0.974
83533SOL    HW152496  13.537   5.232   1.031
83533SOL    HW252497  13.482   5.184   0.898
83534SOL     OW52498  11.062   1.952   7.373
83534SOL    HW152499  10.985   1.897   7.360
83534SOL    HW252500  11.027   2.037   7.400
83535SOL     OW52501   8.985   0.540  13.187
83535SOL    HW152502   9.023   0.469  13.239
83535SOL    HW252503   8.908   0.501  13.146
83536SOL     OW52504  11.766   1.385  14.729
83536SOL    HW152505  11.821   1.420  14.798
83536SOL    HW252506  11.826   1.337  14.671
83537SOL     OW52507   8.920  12.957   5.352
83537SOL    HW152508   9.012  12.951   5.326
83537SOL    HW252509   8.916  12.909   5.435
83538SOL     OW52510   3.992   4.206   8.290
83538SOL    HW152511   4.067   4.158   8.325
83538SOL    HW252512   3.917   4.149   8.306
83539SOL     OW52513   3.694   5.248   1.409
83539SOL    HW152514   3.633   5.298   1.464
83539SOL    HW252515   3.693   5.295   1.325
83540SOL     OW52516   4.781   9.586   7.974
83540SOL    HW152517   4.827   9.510   8.011
83540SOL    HW252518   4.798   9.581   7.880
83541SOL     OW52519   4.870  12.199  12.631
83541SOL    HW152520   4.938  12.264  12.649
83541SOL    HW252521   4.878  12.135  12.701
83542SOL     OW52522   5.746   0.061   2.029
83542SOL    HW152523   5.812  14.876   2.051
83542SOL    HW252524   5.693   0.020   1.961
83543SOL     OW52525   6.731   9.075   7.471
83543SOL    HW152526   6.790   9.087   7.545
83543SOL    HW252527   6.656   9.027   7.507
83544SOL     OW52528  10.784   6.164   7.111
83544SOL    HW152529  10.802   6.078   7.072
83544SOL    HW252530  10.740   6.144   7.193
83545SOL     OW52531   2.849   6.793  10.029
83545SOL    HW152532   2.871   6.705   9.999
83545SOL    HW252533   2.928   6.824  10.073
83546SOL     OW52534   1.572   5.812   4.457
83546SOL    HW152535   1.525   5.853   4.529
83546SOL    HW252536   1.656   5.858   4.454
83547SOL     OW52537  12.071   0.774   3.542
83547SOL    HW152538  11.976   0.766   3.554
83547SOL    HW252539  12.082   0.855   3.493
83548SOL     OW52540  11.202   3.906   4.964
83548SOL    HW152541  11.111   3.922   4.990
83548SOL    HW252542  11.254   3.941   5.036
83549SOL     OW52543  11.418   5.073   0.096
83549SOL    HW152544  11.474   4.997   0.085
83549SOL    HW252545  11.405   5.080   0.190
83550SOL     OW52546   5.971   7.028   5.442
83550SOL    HW152547   6.044   7.050   5.385
83550SOL    HW252548   5.948   7.111   5.484
83551SOL     OW52549  11.415  12.305  11.056
83551SOL    HW152550  11.346  12.346  11.109
83551SOL    HW252551  11.372  12.285  10.972
83552SOL     OW52552   4.665   1.290   6.282
83552SOL    HW152553   4.646   1.331   6.366
83552SOL    HW252554   4.654   1.361   6.218
83553SOL     OW52555   1.384   3.507   9.582
83553SOL    HW152556   1.398   3.584   9.637
83553SOL    HW252557   1.307   3.465   9.621
83554SOL     OW52558   7.944   5.756   1.813
83554SOL    HW152559   7.863   5.704   1.818
83554SOL    HW252560   7.957   5.788   1.902
83555SOL     OW52561   6.286   0.508  11.206
83555SOL    HW152562   6.267   0.442  11.273
83555SOL    HW252563   6.315   0.457  11.130
83556SOL     OW52564  11.544  14.353   3.198
83556SOL    HW152565  11.481  14.280   3.203
83556SOL    HW252566  11.629  14.310   3.198
83557SOL     OW52567  14.299   2.450  10.660
83557SOL    HW152568  14.280   2.426  10.751
83557SOL    HW252569  14.213   2.463  10.620
83558SOL     OW52570   2.782  12.739   7.355
83558SOL    HW152571   2.690  12.743   7.330
83558SOL    HW252572   2.812  12.830   7.352
83559SOL     OW52573   1.041  11.798  12.006
83559SOL    HW152574   1.053  11.886  11.969
83559SOL    HW252575   0.973  11.758  11.952
83560SOL     OW52576   0.189  12.017   0.421
83560SOL    HW152577   0.179  11.947   0.486
83560SOL    HW252578   0.262  11.990   0.367
83561SOL     OW52579  11.058   4.247  13.898
83561SOL    HW152580  11.142   4.242  13.852
83561SOL    HW252581  10.997   4.203  13.839
83562SOL     OW52582   6.203   3.102   8.685
83562SOL    HW152583   6.203   3.023   8.631
83562SOL    HW252584   6.126   3.151   8.656
83563SOL     OW52585  12.588   1.205   6.325
83563SOL    HW152586  12.539   1.140   6.276
83563SOL    HW252587  12.558   1.289   6.290
83564SOL     OW52588   8.258   9.133   7.645
83564SOL    HW152589   8.350   9.117   7.621
83564SOL    HW252590   8.250   9.228   7.649
83565SOL     OW52591  12.357   0.741   4.618
83565SOL    HW152592  12.370   0.820   4.671
83565SOL    HW252593  12.419   0.678   4.654
83566SOL     OW52594   7.948   0.354   5.479
83566SOL    HW152595   7.976   0.274   5.435
83566SOL    HW252596   8.027   0.387   5.521
83567SOL     OW52597   8.003   0.126   6.485
83567SOL    HW152598   8.099   0.129   6.495
83567SOL    HW252599   7.970   0.153   6.571
83568SOL     OW52600   9.191  12.817   5.262
83568SOL    HW152601   9.210  12.908   5.286
83568SOL    HW252602   9.192  12.817   5.166
83569SOL     OW52603   5.791   0.876   3.115
83569SOL    HW152604   5.807   0.924   3.033
83569SOL    HW252605   5.870   0.823   3.127
83570SOL     OW52606   6.741   2.426  10.113
83570SOL    HW152607   6.786   2.344  10.094
83570SOL    HW252608   6.794   2.493  10.071
83571SOL     OW52609  13.096  12.724   8.090
83571SOL    HW152610  13.035  12.654   8.112
83571SOL    HW252611  13.097  12.726   7.994
83572SOL     OW52612  12.091   1.688   7.024
83572SOL    HW152613  12.032   1.761   7.005
83572SOL    HW252614  12.104   1.645   6.939
83573SOL     OW52615   4.075  13.371   9.756
83573SOL    HW152616   4.124  13.290   9.743
83573SOL    HW252617   4.135  13.427   9.805
83574SOL     OW52618   1.523  13.149   4.257
83574SOL    HW152619   1.427  13.150   4.257
83574SOL    HW252620   1.547  13.213   4.324
83575SOL     OW52621  12.475   6.810   4.821
83575SOL    HW152622  12.386   6.827   4.790
83575SOL    HW252623  12.503   6.734   4.770
83576SOL     OW52624   7.733  12.895   4.483
83576SOL    HW152625   7.698  12.978   4.451
83576SOL    HW252626   7.818  12.886   4.442
83577SOL     OW52627  11.824   8.867  11.597
83577SOL    HW152628  11.788   8.880  11.509
83577SOL    HW252629  11.750   8.882  11.656
83578SOL     OW52630  10.298  11.893  12.957
83578SOL    HW152631  10.309  11.862  13.047
83578SOL    HW252632  10.203  11.905  12.948
83579SOL     OW52633   5.698   4.755   3.914
83579SOL    HW152634   5.774   4.732   3.968
83579SOL    HW252635   5.631   4.691   3.940
83580SOL     OW52636   7.976  14.717   1.235
83580SOL    HW152637   8.031  14.639   1.230
83580SOL    HW252638   8.035  14.786   1.264
83581SOL     OW52639   1.173   1.665   9.642
83581SOL    HW152640   1.091   1.676   9.690
83581SOL    HW252641   1.213   1.752   9.645
83582SOL     OW52642   9.449   7.863   2.297
83582SOL    HW152643   9.369   7.845   2.247
83582SOL    HW252644   9.431   7.827   2.384
83583SOL     OW52645   7.977   8.310   6.494
83583SOL    HW152646   7.932   8.286   6.575
83583SOL    HW252647   8.069   8.315   6.519
83584SOL     OW52648   7.158  13.802  13.836
83584SOL    HW152649   7.253  13.814  13.832
83584SOL    HW252650   7.132  13.793  13.744
83585SOL     OW52651  12.385  11.821   9.538
83585SOL    HW152652  12.469  11.865   9.551
83585SOL    HW252653  12.326  11.862   9.601
83586SOL     OW52654   4.557   4.105   6.958
83586SOL    HW152655   4.469   4.140   6.970
83586SOL    HW252656   4.551   4.050   6.880
83587SOL     OW52657  11.535  11.224  13.768
83587SOL    HW152658  11.543  11.147  13.712
83587SOL    HW252659  11.453  11.211  13.815
83588SOL     OW52660   1.481  14.301   8.486
83588SOL    HW152661   1.393  14.279   8.517
83588SOL    HW252662   1.488  14.258   8.400
83589SOL     OW52663  13.137  10.084  11.426
83589SOL    HW152664  13.162  10.159  11.372
83589SOL    HW252665  13.161  10.110  11.515
83590SOL     OW52666   3.813  13.263  13.075
83590SOL    HW152667   3.788  13.172  13.064
83590SOL    HW252668   3.909  13.262  13.074
83591SOL     OW52669  11.425   6.333   7.991
83591SOL    HW152670  11.429   6.428   8.002
83591SOL    HW252671  11.517   6.306   7.986
83592SOL     OW52672   9.923   8.153   6.147
83592SOL    HW152673  10.005   8.122   6.184
83592SOL    HW252674   9.947   8.196   6.066
83593SOL     OW52675   8.665   1.562  12.026
83593SOL    HW152676   8.650   1.620  12.100
83593SOL    HW252677   8.721   1.612  11.967
83594SOL     OW52678  14.450  10.991  10.576
83594SOL    HW152679  14.539  10.977  10.543
83594SOL    HW252680  14.456  10.972  10.670
83595SOL     OW52681   6.012   4.374   7.461
83595SOL    HW152682   5.994   4.450   7.405
83595SOL    HW252683   5.952   4.306   7.430
83596SOL     OW52684  10.789   3.513   6.835
83596SOL    HW152685  10.825   3.589   6.788
83596SOL    HW252686  10.813   3.528   6.926
83597SOL     OW52687   4.452   8.469  10.271
83597SOL    HW152688   4.398   8.414  10.328
83597SOL    HW252689   4.473   8.546  10.325
83598SOL     OW52690   4.171   6.782   2.550
83598SOL    HW152691   4.111   6.854   2.532
83598SOL    HW252692   4.257   6.824   2.560
83599SOL     OW52693   9.711  10.495  11.009
83599SOL    HW152694   9.795  10.487  11.054
83599SOL    HW252695   9.727  10.561  10.941
83600SOL     OW52696   8.151   7.426   0.038
83600SOL    HW152697   8.185   7.470   0.116
83600SOL    HW252698   8.196   7.341   0.038
83601SOL     OW52699   5.686   5.181   4.273
83601SOL    HW152700   5.626   5.158   4.344
83601SOL    HW252701   5.693   5.100   4.222
83602SOL     OW52702   1.155   7.623   6.472
83602SOL    HW152703   1.148   7.628   6.567
83602SOL    HW252704   1.072   7.585   6.443
83603SOL     OW52705  14.477  14.176  13.156
83603SOL    HW152706  14.407  14.241  13.151
83603SOL    HW252707  14.470  14.128  13.074
83604SOL     OW52708   5.977   8.994   1.645
83604SOL    HW152709   6.059   8.944   1.650
83604SOL    HW252710   5.986   9.060   1.713
83605SOL     OW52711   1.251  14.609  10.235
83605SOL    HW152712   1.214  14.635  10.151
83605SOL    HW252713   1.207  14.664  10.300
83606SOL     OW52714   5.506   8.905   2.931
83606SOL    HW152715   5.535   8.819   2.960
83606SOL    HW252716   5.582   8.943   2.888
83607SOL     OW52717   4.715   5.941   5.780
83607SOL    HW152718   4.700   6.021   5.831
83607SOL    HW252719   4.682   5.962   5.692
83608SOL     OW52720   1.617  14.705  13.177
83608SOL    HW152721   1.683  14.771  13.198
83608SOL    HW252722   1.545  14.754  13.137
83609SOL     OW52723   4.325   6.401   1.099
83609SOL    HW152724   4.232   6.425   1.099
83609SOL    HW252725   4.368   6.472   1.146
83610SOL     OW52726   1.452   9.755   8.154
83610SOL    HW152727   1.485   9.820   8.091
83610SOL    HW252728   1.480   9.671   8.118
83611SOL     OW52729   2.460  10.427  11.831
83611SOL    HW152730   2.549  10.425  11.796
83611SOL    HW252731   2.430  10.336  11.826
83612SOL     OW52732   9.933   6.430   0.899
83612SOL    HW152733  10.015   6.440   0.946
83612SOL    HW252734   9.957   6.435   0.806
83613SOL     OW52735   9.623  11.815   3.069
83613SOL    HW152736   9.710  11.776   3.058
83613SOL    HW252737   9.593  11.783   3.154
83614SOL     OW52738  10.917   0.787   4.440
83614SOL    HW152739  10.870   0.728   4.499
83614SOL    HW252740  10.870   0.780   4.357
83615SOL     OW52741   3.777   4.765  12.534
83615SOL    HW152742   3.772   4.855  12.566
83615SOL    HW252743   3.846   4.767  12.468
83616SOL     OW52744  14.167   9.459   4.216
83616SOL    HW152745  14.170   9.484   4.123
83616SOL    HW252746  14.244   9.501   4.254
83617SOL     OW52747  10.669  10.344   1.953
83617SOL    HW152748  10.584  10.358   1.994
83617SOL    HW252749  10.651  10.288   1.878
83618SOL     OW52750   6.856   3.780  14.220
83618SOL    HW152751   6.834   3.732  14.300
83618SOL    HW252752   6.776   3.777  14.167
83619SOL     OW52753   4.857   3.852  11.095
83619SOL    HW152754   4.774   3.893  11.121
83619SOL    HW252755   4.842   3.821  11.006
83620SOL     OW52756   8.004   5.145   8.867
83620SOL    HW152757   8.083   5.192   8.841
83620SOL    HW252758   8.001   5.068   8.809
83621SOL     OW52759   6.509   6.302   0.525
83621SOL    HW152760   6.418   6.287   0.550
83621SOL    HW252761   6.557   6.227   0.560
83622SOL     OW52762  14.839  13.272   7.005
83622SOL    HW152763  14.792  13.242   7.083
83622SOL    HW252764  14.791  13.233   6.931
83623SOL     OW52765   6.728   4.660   5.059
83623SOL    HW152766   6.668   4.640   5.131
83623SOL    HW252767   6.803   4.602   5.073
83624SOL     OW52768   0.115  12.391   9.453
83624SOL    HW152769   0.204  12.422   9.436
83624SOL    HW252770   0.062  12.433   9.385
83625SOL     OW52771  14.756  10.523  12.921
83625SOL    HW152772  14.702  10.449  12.946
83625SOL    HW252773  14.840  10.508  12.966
83626SOL     OW52774   8.327   0.413   9.661
83626SOL    HW152775   8.268   0.364   9.604
83626SOL    HW252776   8.295   0.503   9.657
83627SOL     OW52777   6.432   9.353  12.926
83627SOL    HW152778   6.527   9.348  12.912
83627SOL    HW252779   6.398   9.399  12.849
83628SOL     OW52780   3.278   9.416   2.958
83628SOL    HW152781   3.262   9.510   2.966
83628SOL    HW252782   3.357   9.409   2.905
83629SOL     OW52783   1.259   0.987   0.520
83629SOL    HW152784   1.183   0.937   0.551
83629SOL    HW252785   1.315   0.996   0.598
83630SOL     OW52786   3.306   0.996  13.309
83630SOL    HW152787   3.304   1.039  13.223
83630SOL    HW252788   3.238   1.040  13.359
83631SOL     OW52789   2.293   4.439  13.665
83631SOL    HW152790   2.365   4.446  13.603
83631SOL    HW252791   2.326   4.483  13.744
83632SOL     OW52792   0.071  13.005   8.593
83632SOL    HW152793   0.115  13.080   8.551
83632SOL    HW252794   0.105  12.929   8.546
83633SOL     OW52795  12.441  10.388   7.487
83633SOL    HW152796  12.445  10.293   7.473
83633SOL    HW252797  12.378  10.399   7.558
83634SOL     OW52798   0.697   8.230   0.641
83634SOL    HW152799   0.742   8.204   0.722
83634SOL    HW252800   0.655   8.151   0.610
83635SOL     OW52801   2.784  12.495  13.023
83635SOL    HW152802   2.797  12.401  13.036
83635SOL    HW252803   2.873  12.530  13.018
83636SOL     OW52804   8.192   4.462   6.305
83636SOL    HW152805   8.114   4.420   6.268
83636SOL    HW252806   8.260   4.395   6.299
83637SOL     OW52807   9.215   1.022   1.054
83637SOL    HW152808   9.174   1.106   1.075
83637SOL    HW252809   9.287   1.014   1.115
83638SOL     OW52810   4.284   7.580   4.438
83638SOL    HW152811   4.194   7.574   4.468
83638SOL    HW252812   4.277   7.580   4.342
83639SOL     OW52813   9.552  11.420  14.366
83639SOL    HW152814   9.568  11.473  14.288
83639SOL    HW252815   9.482  11.467  14.412
83640SOL     OW52816   5.898   8.878  12.746
83640SOL    HW152817   5.803   8.884  12.751
83640SOL    HW252818   5.916   8.784  12.746
83641SOL     OW52819   5.785  14.001   9.782
83641SOL    HW152820   5.834  14.034   9.857
83641SOL    HW252821   5.748  13.918   9.813
83642SOL     OW52822  13.730   2.771   5.915
83642SOL    HW152823  13.686   2.806   5.838
83642SOL    HW252824  13.718   2.838   5.982
83643SOL     OW52825   1.971   2.988   1.578
83643SOL    HW152826   1.919   3.058   1.539
83643SOL    HW252827   2.060   3.024   1.582
83644SOL     OW52828   9.355  13.963   1.728
83644SOL    HW152829   9.427  13.970   1.791
83644SOL    HW252830   9.311  14.048   1.732
83645SOL     OW52831   1.326   7.685  11.915
83645SOL    HW152832   1.383   7.750  11.955
83645SOL    HW252833   1.312   7.620  11.984
83646SOL     OW52834   3.429  12.871  11.910
83646SOL    HW152835   3.358  12.827  11.956
83646SOL    HW252836   3.436  12.826  11.826
83647SOL     OW52837   0.477   4.097  14.633
83647SOL    HW152838   0.458   4.177  14.584
83647SOL    HW252839   0.481   4.028  14.567
83648SOL     OW52840   7.519   2.418   3.363
83648SOL    HW152841   7.524   2.364   3.442
83648SOL    HW252842   7.474   2.363   3.299
83649SOL     OW52843   3.165   1.052   3.831
83649SOL    HW152844   3.121   1.002   3.763
83649SOL    HW252845   3.120   1.137   3.832
83650SOL     OW52846   2.366   1.293  11.761
83650SOL    HW152847   2.331   1.309  11.673
83650SOL    HW252848   2.310   1.345  11.818
83651SOL     OW52849   3.602  13.219  12.334
83651SOL    HW152850   3.543  13.185  12.266
83651SOL    HW252851   3.677  13.253  12.285
83652SOL     OW52852   0.787  12.777   3.609
83652SOL    HW152853   0.717  12.831   3.647
83652SOL    HW252854   0.741  12.702   3.571
83653SOL     OW52855   3.530   7.876   7.078
83653SOL    HW152856   3.443   7.910   7.057
83653SOL    HW252857   3.543   7.899   7.170
83654SOL     OW52858   7.522   3.252   8.700
83654SOL    HW152859   7.441   3.257   8.649
83654SOL    HW252860   7.524   3.334   8.749
83655SOL     OW52861   4.890   2.330  10.102
83655SOL    HW152862   4.859   2.399  10.043
83655SOL    HW252863   4.851   2.350  10.186
83656SOL     OW52864  13.736   8.420   2.783
83656SOL    HW152865  13.644   8.443   2.798
83656SOL    HW252866  13.733   8.360   2.708
83657SOL     OW52867   3.325   3.911   4.319
83657SOL    HW152868   3.275   3.944   4.393
83657SOL    HW252869   3.408   3.882   4.357
83658SOL     OW52870  13.786   7.803   9.334
83658SOL    HW152871  13.796   7.898   9.335
83658SOL    HW252872  13.725   7.784   9.406
83659SOL     OW52873   6.294  14.660   5.325
83659SOL    HW152874   6.302  14.676   5.231
83659SOL    HW252875   6.254  14.740   5.360
83660SOL     OW52876   8.057   8.038   9.898
83660SOL    HW152877   8.075   8.088   9.818
83660SOL    HW252878   7.964   8.015   9.890
83661SOL     OW52879  13.333  12.292  14.155
83661SOL    HW152880  13.272  12.296  14.229
83661SOL    HW252881  13.381  12.210  14.167
83662SOL     OW52882   8.308   9.370   0.746
83662SOL    HW152883   8.388   9.357   0.797
83662SOL    HW252884   8.332   9.431   0.677
83663SOL     OW52885  14.812   9.845   5.242
83663SOL    HW152886   0.021   9.877   5.230
83663SOL    HW252887  14.761   9.924   5.261
83664SOL     OW52888   7.826  10.961   2.283
83664SOL    HW152889   7.760  10.909   2.328
83664SOL    HW252890   7.779  11.002   2.210
83665SOL     OW52891   7.338   4.257  11.035
83665SOL    HW152892   7.325   4.324  10.969
83665SOL    HW252893   7.282   4.283  11.107
83666SOL     OW52894   1.109   8.428  10.271
83666SOL    HW152895   1.133   8.414  10.179
83666SOL    HW252896   1.016   8.408  10.275
83667SOL     OW52897   8.094   2.724   9.675
83667SOL    HW152898   8.021   2.765   9.628
83667SOL    HW252899   8.172   2.750   9.627
83668SOL     OW52900   1.846  14.829   3.387
83668SOL    HW152901   1.827  14.804   3.297
83668SOL    HW252902   1.780   0.015   3.408
83669SOL     OW52903  12.683  12.996  12.391
83669SOL    HW152904  12.650  13.066  12.448
83669SOL    HW252905  12.771  13.025  12.366
83670SOL     OW52906   7.726   2.780  11.145
83670SOL    HW152907   7.705   2.712  11.080
83670SOL    HW252908   7.664   2.851  11.126
83671SOL     OW52909   1.372  13.979   0.926
83671SOL    HW152910   1.406  13.896   0.895
83671SOL    HW252911   1.306  14.005   0.861
83672SOL     OW52912   2.930  13.060   0.322
83672SOL    HW152913   2.884  13.044   0.404
83672SOL    HW252914   2.938  13.155   0.317
83673SOL     OW52915   6.535   1.534   1.559
83673SOL    HW152916   6.601   1.481   1.515
83673SOL    HW252917   6.570   1.548   1.647
83674SOL     OW52918   2.346   2.288   6.504
83674SOL    HW152919   2.425   2.281   6.557
83674SOL    HW252920   2.357   2.370   6.456
83675SOL     OW52921  11.466   3.961   3.260
83675SOL    HW152922  11.485   3.884   3.314
83675SOL    HW252923  11.462   3.927   3.171
83676SOL     OW52924   7.007   4.780  10.918
83676SOL    HW152925   7.021   4.703  10.974
83676SOL    HW252926   6.977   4.744  10.835
83677SOL     OW52927  10.116  12.227   2.236
83677SOL    HW152928  10.030  12.223   2.193
83677SOL    HW252929  10.141  12.319   2.229
83678SOL     OW52930   0.586   3.183   9.282
83678SOL    HW152931   0.626   3.098   9.263
83678SOL    HW252932   0.529   3.167   9.357
83679SOL     OW52933   7.483   5.528  13.024
83679SOL    HW152934   7.551   5.465  13.050
83679SOL    HW252935   7.418   5.474  12.979
83680SOL     OW52936   7.816   7.124  13.835
83680SOL    HW152937   7.821   7.179  13.756
83680SOL    HW252938   7.882   7.161  13.893
83681SOL     OW52939   5.977   6.200  13.632
83681SOL    HW152940   6.053   6.186  13.689
83681SOL    HW252941   6.002   6.163  13.548
83682SOL     OW52942  10.734   2.010   4.870
83682SOL    HW152943  10.721   2.044   4.959
83682SOL    HW252944  10.645   1.990   4.839
83683SOL     OW52945   4.652   8.388   2.042
83683SOL    HW152946   4.614   8.363   2.126
83683SOL    HW252947   4.609   8.471   2.020
83684SOL     OW52948   7.656   1.666  12.767
83684SOL    HW152949   7.736   1.615  12.757
83684SOL    HW252950   7.684   1.748  12.807
83685SOL     OW52951   3.165   5.738   2.582
83685SOL    HW152952   3.145   5.765   2.672
83685SOL    HW252953   3.086   5.693   2.553
83686SOL     OW52954  12.476   3.708   3.579
83686SOL    HW152955  12.501   3.789   3.536
83686SOL    HW252956  12.503   3.719   3.670
83687SOL     OW52957   7.885   5.024  10.468
83687SOL    HW152958   7.846   5.023  10.555
83687SOL    HW252959   7.848   4.947  10.425
83688SOL     OW52960   9.480   7.182   5.062
83688SOL    HW152961   9.387   7.173   5.044
83688SOL    HW252962   9.523   7.162   4.979
83689SOL     OW52963  14.166  11.690  10.683
83689SOL    HW152964  14.155  11.781  10.712
83689SOL    HW252965  14.139  11.690  10.592
83690SOL     OW52966   7.332   9.814   5.025
83690SOL    HW152967   7.400   9.808   5.092
83690SOL    HW252968   7.254   9.844   5.072
83691SOL     OW52969   1.090   3.384  12.290
83691SOL    HW152970   1.097   3.473  12.327
83691SOL    HW252971   1.087   3.327  12.367
83692SOL     OW52972  12.453   1.293   4.835
83692SOL    HW152973  12.422   1.373   4.793
83692SOL    HW252974  12.549   1.300   4.831
83693SOL     OW52975  12.595   4.658   8.076
83693SOL    HW152976  12.602   4.578   8.128
83693SOL    HW252977  12.684   4.675   8.046
83694SOL     OW52978   6.245   6.462   6.319
83694SOL    HW152979   6.210   6.550   6.302
83694SOL    HW252980   6.196   6.432   6.395
83695SOL     OW52981   2.013   7.177   3.252
83695SOL    HW152982   1.968   7.094   3.268
83695SOL    HW252983   2.077   7.156   3.183
83696SOL     OW52984   4.546   4.158  10.529
83696SOL    HW152985   4.627   4.114  10.552
83696SOL    HW252986   4.515   4.111  10.451
83697SOL     OW52987  12.866   8.096  10.206
83697SOL    HW152988  12.862   8.105  10.301
83697SOL    HW252989  12.776   8.077  10.179
83698SOL     OW52990   3.198   8.263   0.433
83698SOL    HW152991   3.241   8.346   0.451
83698SOL    HW252992   3.196   8.218   0.517
83699SOL     OW52993  12.631  13.983   3.587
83699SOL    HW152994  12.555  13.930   3.564
83699SOL    HW252995  12.703  13.943   3.539
83700SOL     OW52996   2.126   2.606   8.729
83700SOL    HW152997   2.175   2.575   8.805
83700SOL    HW252998   2.155   2.550   8.658
83701SOL     OW52999   0.510   7.417   7.226
83701SOL    HW153000   0.566   7.346   7.257
83701SOL    HW253001   0.558   7.497   7.250
83702SOL     OW53002   5.693   0.561   4.029
83702SOL    HW153003   5.767   0.528   3.979
83702SOL    HW253004   5.730   0.629   4.086
83703SOL     OW53005  11.994   4.389  12.354
83703SOL    HW153006  11.964   4.465  12.305
83703SOL    HW253007  12.083   4.411  12.381
83704SOL     OW53008  10.823  12.242   4.188
83704SOL    HW153009  10.856  12.153   4.173
83704SOL    HW253010  10.902  12.294   4.201
83705SOL     OW53011   8.356   4.802   9.178
83705SOL    HW153012   8.403   4.883   9.163
83705SOL    HW253013   8.395   4.739   9.117
83706SOL     OW53014   8.846  12.302   1.696
83706SOL    HW153015   8.866  12.291   1.789
83706SOL    HW253016   8.896  12.379   1.670
83707SOL     OW53017  13.804   9.083   4.316
83707SOL    HW153018  13.886   9.129   4.297
83707SOL    HW253019  13.767   9.132   4.389
83708SOL     OW53020  13.635  14.819   1.772
83708SOL    HW153021  13.584  14.856   1.700
83708SOL    HW253022  13.655   0.014   1.828
83709SOL     OW53023  12.394   1.236   1.640
83709SOL    HW153024  12.332   1.308   1.651
83709SOL    HW253025  12.409   1.231   1.546
83710SOL     OW53026   7.704  13.513   6.243
83710SOL    HW153027   7.668  13.596   6.212
83710SOL    HW253028   7.646  13.486   6.313
83711SOL     OW53029  14.526   4.793  11.396
83711SOL    HW153030  14.496   4.789  11.305
83711SOL    HW253031  14.453   4.759  11.447
83712SOL     OW53032  12.351  12.494  10.679
83712SOL    HW153033  12.433  12.473  10.635
83712SOL    HW253034  12.325  12.414  10.724
83713SOL     OW53035   0.253  11.264  14.060
83713SOL    HW153036   0.172  11.228  14.094
83713SOL    HW253037   0.286  11.196  14.000
83714SOL     OW53038   9.009   0.203  12.919
83714SOL    HW153039   8.938   0.170  12.863
83714SOL    HW253040   8.965   0.261  12.982
83715SOL     OW53041   5.144   7.555   0.328
83715SOL    HW153042   5.126   7.593   0.414
83715SOL    HW253043   5.235   7.528   0.332
83716SOL     OW53044  13.103   7.519   0.331
83716SOL    HW153045  13.086   7.568   0.251
83716SOL    HW253046  13.199   7.513   0.335
83717SOL     OW53047   6.919   3.766   2.810
83717SOL    HW153048   6.959   3.840   2.764
83717SOL    HW253049   6.829   3.764   2.777
83718SOL     OW53050   5.496  14.679   7.136
83718SOL    HW153051   5.469  14.657   7.225
83718SOL    HW253052   5.521  14.595   7.097
83719SOL     OW53053   4.645  10.792   8.549
83719SOL    HW153054   4.615  10.808   8.460
83719SOL    HW253055   4.716  10.728   8.539
83720SOL     OW53056  13.954  12.192   6.289
83720SOL    HW153057  13.979  12.105   6.256
83720SOL    HW253058  13.895  12.173   6.362
83721SOL     OW53059   0.287   5.965   1.148
83721SOL    HW153060   0.216   5.962   1.212
83721SOL    HW253061   0.286   5.880   1.106
83722SOL     OW53062  13.399   5.156  11.301
83722SOL    HW153063  13.320   5.206  11.321
83722SOL    HW253064  13.410   5.165  11.206
83723SOL     OW53065   8.341   2.327  13.495
83723SOL    HW153066   8.426   2.309  13.455
83723SOL    HW253067   8.299   2.241  13.504
83724SOL     OW53068  10.978  12.120  12.668
83724SOL    HW153069  11.016  12.079  12.590
83724SOL    HW253070  11.015  12.208  12.669
83725SOL     OW53071   2.730   1.162  11.348
83725SOL    HW153072   2.682   1.126  11.274
83725SOL    HW253073   2.766   1.244  11.315
83726SOL     OW53074   0.853   2.983  10.840
83726SOL    HW153075   0.842   2.982  10.935
83726SOL    HW253076   0.897   3.066  10.822
83727SOL     OW53077   7.682   1.042   4.405
83727SOL    HW153078   7.705   0.952   4.380
83727SOL    HW253079   7.609   1.065   4.348
83728SOL     OW53080  13.121  11.877  13.408
83728SOL    HW153081  13.196  11.899  13.353
83728SOL    HW253082  13.077  11.960  13.424
83729SOL     OW53083   2.385   3.630   3.343
83729SOL    HW153084   2.431   3.598   3.265
83729SOL    HW253085   2.292   3.624   3.320
83730SOL     OW53086   2.101  12.223  14.610
83730SOL    HW153087   2.047  12.216  14.531
83730SOL    HW253088   2.191  12.222  14.579
83731SOL     OW53089   5.079   7.288   4.999
83731SOL    HW153090   5.118   7.372   4.975
83731SOL    HW253091   5.115   7.269   5.085
83732SOL     OW53092   3.846   4.950  10.983
83732SOL    HW153093   3.839   4.939  11.077
83732SOL    HW253094   3.799   4.875  10.946
83733SOL     OW53095   6.287   3.364  10.664
83733SOL    HW153096   6.315   3.435  10.606
83733SOL    HW253097   6.212   3.324  10.619
83734SOL     OW53098   2.829   0.882   9.967
83734SOL    HW153099   2.842   0.827  10.044
83734SOL    HW253100   2.904   0.942   9.968
83735SOL     OW53101  10.129   5.957  12.481
83735SOL    HW153102  10.112   5.881  12.536
83735SOL    HW253103  10.042   5.987  12.454
83736SOL     OW53104   5.663   5.188   2.102
83736SOL    HW153105   5.705   5.102   2.101
83736SOL    HW253106   5.710   5.238   2.036
83737SOL     OW53107  12.531  12.991   8.699
83737SOL    HW153108  12.478  12.951   8.769
83737SOL    HW253109  12.594  12.922   8.675
83738SOL     OW53110  13.604   9.607  10.025
83738SOL    HW153111  13.530   9.551  10.050
83738SOL    HW253112  13.613   9.669  10.098
83739SOL     OW53113   0.914   1.839   4.757
83739SOL    HW153114   0.929   1.904   4.688
83739SOL    HW253115   0.833   1.869   4.800
83740SOL     OW53116   7.730   9.735   4.456
83740SOL    HW153117   7.702   9.826   4.453
83740SOL    HW253118   7.812   9.733   4.407
83741SOL     OW53119  12.894   2.437   3.846
83741SOL    HW153120  12.968   2.403   3.796
83741SOL    HW253121  12.932   2.463   3.930
83742SOL     OW53122   5.529   0.327  10.647
83742SOL    HW153123   5.459   0.322  10.712
83742SOL    HW253124   5.484   0.317  10.563
83743SOL     OW53125  10.718   6.433   8.668
83743SOL    HW153126  10.783   6.456   8.603
83743SOL    HW253127  10.634   6.457   8.628
83744SOL     OW53128   9.510   9.450   2.878
83744SOL    HW153129   9.511   9.397   2.958
83744SOL    HW253130   9.595   9.434   2.837
83745SOL     OW53131   7.032   1.033   7.974
83745SOL    HW153132   7.013   0.949   7.931
83745SOL    HW253133   6.978   1.096   7.925
83746SOL     OW53134   0.426   9.464   7.308
83746SOL    HW153135   0.410   9.371   7.321
83746SOL    HW253136   0.346   9.507   7.337
83747SOL     OW53137   7.105  11.271   8.461
83747SOL    HW153138   7.127  11.353   8.418
83747SOL    HW253139   7.035  11.234   8.408
83748SOL     OW53140  11.504   0.596  11.376
83748SOL    HW153141  11.502   0.503  11.400
83748SOL    HW253142  11.417   0.628  11.400
83749SOL     OW53143  11.807  12.016   7.442
83749SOL    HW153144  11.807  12.008   7.537
83749SOL    HW253145  11.777  11.931   7.410
83750SOL     OW53146   8.737   3.009   9.703
83750SOL    HW153147   8.752   3.094   9.745
83750SOL    HW253148   8.671   3.026   9.636
83751SOL     OW53149   0.310   3.669   8.334
83751SOL    HW153150   0.249   3.725   8.384
83751SOL    HW253151   0.330   3.720   8.256
83752SOL     OW53152   6.375   4.809   4.039
83752SOL    HW153153   6.456   4.763   4.018
83752SOL    HW253154   6.381   4.825   4.133
83753SOL     OW53155   9.052   9.286   5.986
83753SOL    HW153156   9.060   9.299   5.892
83753SOL    HW253157   9.140   9.259   6.014
83754SOL     OW53158   3.562   3.226   8.899
83754SOL    HW153159   3.478   3.260   8.930
83754SOL    HW253160   3.606   3.301   8.860
83755SOL     OW53161  11.191   3.030   5.995
83755SOL    HW153162  11.218   3.041   6.085
83755SOL    HW253163  11.271   3.041   5.944
83756SOL     OW53164  13.785   2.760   1.075
83756SOL    HW153165  13.699   2.722   1.061
83756SOL    HW253166  13.779   2.849   1.040
83757SOL     OW53167   4.186   6.639  11.165
83757SOL    HW153168   4.150   6.703  11.104
83757SOL    HW253169   4.181   6.556  11.117
83758SOL     OW53170  12.706  13.432   9.135
83758SOL    HW153171  12.720  13.392   9.049
83758SOL    HW253172  12.781  13.403   9.188
83759SOL     OW53173  11.936   3.420   3.128
83759SOL    HW153174  11.925   3.506   3.090
83759SOL    HW253175  11.881   3.363   3.075
83760SOL     OW53176  11.890  14.363   4.929
83760SOL    HW153177  11.979  14.371   4.964
83760SOL    HW253178  11.847  14.445   4.953
83761SOL     OW53179   3.190  12.480   7.536
83761SOL    HW153180   3.161  12.558   7.582
83761SOL    HW253181   3.127  12.412   7.562
83762SOL     OW53182  14.830   2.300   8.438
83762SOL    HW153183  14.767   2.329   8.371
83762SOL    HW253184  14.800   2.212   8.462
83763SOL     OW53185   5.131   1.407   8.364
83763SOL    HW153186   5.051   1.456   8.348
83763SOL    HW253187   5.157   1.432   8.453
83764SOL     OW53188   1.017  13.782   5.906
83764SOL    HW153189   1.099  13.743   5.936
83764SOL    HW253190   1.043  13.867   5.869
83765SOL     OW53191   7.854  10.855  10.456
83765SOL    HW153192   7.839  10.761  10.462
83765SOL    HW253193   7.949  10.864  10.451
83766SOL     OW53194   2.521  11.861   7.819
83766SOL    HW153195   2.554  11.865   7.909
83766SOL    HW253196   2.427  11.881   7.827
83767SOL     OW53197   2.289  12.839  14.068
83767SOL    HW153198   2.370  12.889  14.058
83767SOL    HW253199   2.317  12.748  14.068
83768SOL     OW53200   0.712  14.531  10.815
83768SOL    HW153201   0.724  14.614  10.861
83768SOL    HW253202   0.662  14.477  10.876
83769SOL     OW53203  14.248  10.790   3.396
83769SOL    HW153204  14.279  10.710   3.354
83769SOL    HW253205  14.213  10.843   3.325
83770SOL     OW53206   7.202   9.992   9.575
83770SOL    HW153207   7.229  10.063   9.516
83770SOL    HW253208   7.149  10.036   9.642
83771SOL     OW53209   3.289   5.911   6.077
83771SOL    HW153210   3.230   5.977   6.112
83771SOL    HW253211   3.343   5.958   6.013
83772SOL     OW53212   2.766   7.139   9.914
83772SOL    HW153213   2.732   7.156  10.002
83772SOL    HW253214   2.841   7.081   9.928
83773SOL     OW53215  12.705  12.462  11.016
83773SOL    HW153216  12.666  12.390  10.966
83773SOL    HW253217  12.728  12.422  11.100
83774SOL     OW53218   9.897   1.503   5.204
83774SOL    HW153219   9.812   1.547   5.206
83774SOL    HW253220   9.954   1.559   5.258
83775SOL     OW53221  12.404   0.612   2.625
83775SOL    HW153222  12.480   0.654   2.584
83775SOL    HW253223  12.354   0.685   2.663
83776SOL     OW53224  14.092   0.054   8.211
83776SOL    HW153225  14.018   0.058   8.272
83776SOL    HW253226  14.054   0.023   8.129
83777SOL     OW53227  10.342   1.832  14.806
83777SOL    HW153228  10.301   1.812   0.010
83777SOL    HW253229  10.286   1.788  14.741
83778SOL     OW53230   6.793   2.611  11.218
83778SOL    HW153231   6.763   2.680  11.160
83778SOL    HW253232   6.867   2.571  11.172
83779SOL     OW53233   9.964  11.675  13.772
83779SOL    HW153234   9.897  11.702  13.835
83779SOL    HW253235   9.944  11.583  13.753
83780SOL     OW53236   2.955   2.481   7.579
83780SOL    HW153237   2.861   2.466   7.580
83780SOL    HW253238   2.978   2.501   7.670
83781SOL     OW53239   2.302  10.735  13.604
83781SOL    HW153240   2.319  10.669  13.538
83781SOL    HW253241   2.237  10.696  13.662
83782SOL     OW53242  12.711   3.958  13.327
83782SOL    HW153243  12.649   4.008  13.274
83782SOL    HW253244  12.780   4.021  13.350
83783SOL     OW53245   4.382   8.017   1.593
83783SOL    HW153246   4.389   7.923   1.577
83783SOL    HW253247   4.423   8.058   1.517
83784SOL     OW53248   4.921   8.499   0.524
83784SOL    HW153249   4.828   8.490   0.502
83784SOL    HW253250   4.948   8.580   0.482
83785SOL     OW53251  12.215  10.684   5.089
83785SOL    HW153252  12.287  10.680   5.026
83785SOL    HW253253  12.202  10.594   5.117
83786SOL     OW53254   5.218  11.146   0.338
83786SOL    HW153255   5.222  11.056   0.372
83786SOL    HW253256   5.279  11.195   0.393
83787SOL     OW53257   1.002  10.023   4.513
83787SOL    HW153258   1.066   9.990   4.576
83787SOL    HW253259   1.011  10.118   4.517
83788SOL     OW53260   3.979   2.891   7.675
83788SOL    HW153261   4.013   2.977   7.650
83788SOL    HW253262   4.055   2.834   7.672
83789SOL     OW53263   5.556  14.335   4.794
83789SOL    HW153264   5.622  14.267   4.805
83789SOL    HW253265   5.592  14.393   4.727
83790SOL     OW53266   6.633   0.131  13.014
83790SOL    HW153267   6.623   0.084  12.932
83790SOL    HW253268   6.578   0.084  13.076
83791SOL     OW53269   5.014  12.812  10.328
83791SOL    HW153270   5.031  12.900  10.361
83791SOL    HW253271   5.055  12.754  10.392
83792SOL     OW53272  11.078   9.379  13.662
83792SOL    HW153273  11.032   9.331  13.593
83792SOL    HW253274  11.170   9.352  13.652
83793SOL     OW53275  10.291   2.571  14.600
83793SOL    HW153276  10.380   2.593  14.627
83793SOL    HW253277  10.245   2.549  14.681
83794SOL     OW53278   8.903  11.666  10.378
83794SOL    HW153279   8.872  11.632  10.462
83794SOL    HW253280   8.844  11.740  10.359
83795SOL     OW53281   2.860   3.575   4.722
83795SOL    HW153282   2.859   3.615   4.808
83795SOL    HW253283   2.952   3.556   4.705
83796SOL     OW53284   4.498  12.834   9.891
83796SOL    HW153285   4.489  12.870   9.979
83796SOL    HW253286   4.471  12.905   9.833
83797SOL     OW53287   7.228   1.159   4.376
83797SOL    HW153288   7.177   1.079   4.362
83797SOL    HW253289   7.217   1.179   4.470
83798SOL     OW53290  12.524  14.865   7.120
83798SOL    HW153291  12.525  14.806   7.045
83798SOL    HW253292  12.607  14.849   7.164
83799SOL     OW53293   8.857   4.065   7.135
83799SOL    HW153294   8.828   4.001   7.201
83799SOL    HW253295   8.857   4.016   7.053
83800SOL     OW53296   3.712   2.421   9.407
83800SOL    HW153297   3.663   2.371   9.342
83800SOL    HW253298   3.679   2.511   9.398
83801SOL     OW53299   1.331   2.468   2.067
83801SOL    HW153300   1.304   2.544   2.016
83801SOL    HW253301   1.390   2.420   2.009
83802SOL     OW53302   9.903  13.136  11.749
83802SOL    HW153303   9.820  13.184  11.757
83802SOL    HW253304   9.971  13.202  11.759
83803SOL     OW53305   8.132   7.862  13.949
83803SOL    HW153306   8.170   7.949  13.959
83803SOL    HW253307   8.051   7.864  14.001
83804SOL     OW53308   0.340   8.230   1.689
83804SOL    HW153309   0.247   8.216   1.676
83804SOL    HW253310   0.349   8.325   1.704
83805SOL     OW53311   3.144  12.765   9.997
83805SOL    HW153312   3.224  12.717   9.975
83805SOL    HW253313   3.176  12.846  10.038
83806SOL     OW53314   9.725  13.325  14.048
83806SOL    HW153315   9.736  13.297  14.139
83806SOL    HW253316   9.752  13.417  14.048
83807SOL     OW53317  11.807   3.236   0.267
83807SOL    HW153318  11.766   3.286   0.197
83807SOL    HW253319  11.792   3.289   0.346
83808SOL     OW53320   9.020   9.706   6.907
83808SOL    HW153321   8.935   9.682   6.943
83808SOL    HW253322   9.019   9.672   6.818
83809SOL     OW53323  12.170   8.641   7.559
83809SOL    HW153324  12.248   8.622   7.508
83809SOL    HW253325  12.202   8.692   7.634
83810SOL     OW53326   1.900   8.435   5.170
83810SOL    HW153327   1.954   8.478   5.104
83810SOL    HW253328   1.953   8.361   5.199
83811SOL     OW53329  13.840  13.726   5.225
83811SOL    HW153330  13.859  13.636   5.251
83811SOL    HW253331  13.925  13.768   5.219
83812SOL     OW53332  12.277  13.277   5.406
83812SOL    HW153333  12.261  13.204   5.345
83812SOL    HW253334  12.248  13.244   5.491
83813SOL     OW53335   3.652  11.493   0.423
83813SOL    HW153336   3.732  11.517   0.375
83813SOL    HW253337   3.583  11.543   0.381
83814SOL     OW53338  11.898  13.951   9.965
83814SOL    HW153339  11.953  14.000   9.904
83814SOL    HW253340  11.951  13.874   9.988
83815SOL     OW53341   0.678  10.241   2.510
83815SOL    HW153342   0.707  10.201   2.428
83815SOL    HW253343   0.613  10.306   2.484
83816SOL     OW53344   4.989   3.561   1.413
83816SOL    HW153345   5.051   3.489   1.399
83816SOL    HW253346   4.959   3.551   1.503
83817SOL     OW53347   9.245   1.925   3.123
83817SOL    HW153348   9.292   1.880   3.193
83817SOL    HW253349   9.308   1.932   3.052
83818SOL     OW53350  13.902   3.861  13.987
83818SOL    HW153351  13.957   3.866  13.909
83818SOL    HW253352  13.816   3.891  13.957
83819SOL     OW53353   1.044  12.645   0.791
83819SOL    HW153354   1.048  12.653   0.886
83819SOL    HW253355   1.134  12.664   0.762
83820SOL     OW53356   1.251  12.777  14.368
83820SOL    HW153357   1.278  12.745  14.454
83820SOL    HW253358   1.333  12.804  14.326
83821SOL     OW53359  11.928   1.783   5.223
83821SOL    HW153360  11.995   1.851   5.232
83821SOL    HW253361  11.893   1.773   5.311
83822SOL     OW53362   1.456   2.531  13.725
83822SOL    HW153363   1.418   2.598  13.783
83822SOL    HW253364   1.440   2.564  13.637
83823SOL     OW53365  13.184   2.716  12.082
83823SOL    HW153366  13.139   2.798  12.104
83823SOL    HW253367  13.200   2.722  11.988
83824SOL     OW53368   3.740   9.141   9.756
83824SOL    HW153369   3.656   9.162   9.716
83824SOL    HW253370   3.735   9.047   9.775
83825SOL     OW53371   3.131   6.937   8.644
83825SOL    HW153372   3.225   6.953   8.643
83825SOL    HW253373   3.120   6.862   8.702
83826SOL     OW53374  10.144   4.973   0.590
83826SOL    HW153375  10.064   4.979   0.643
83826SOL    HW253376  10.193   4.901   0.629
83827SOL     OW53377   4.429   9.171  13.369
83827SOL    HW153378   4.394   9.260  13.379
83827SOL    HW253379   4.502   9.167  13.431
83828SOL     OW53380   7.345   9.533   2.778
83828SOL    HW153381   7.385   9.551   2.693
83828SOL    HW253382   7.388   9.594   2.838
83829SOL     OW53383   4.024   9.260   7.171
83829SOL    HW153384   3.989   9.326   7.232
83829SOL    HW253385   4.005   9.296   7.084
83830SOL     OW53386  13.782   1.931   0.920
83830SOL    HW153387  13.858   1.919   0.977
83830SOL    HW253388  13.765   1.844   0.885
83831SOL     OW53389   0.798   1.868  13.558
83831SOL    HW153390   0.881   1.828  13.585
83831SOL    HW253391   0.758   1.804  13.499
83832SOL     OW53392   8.536  11.248  11.919
83832SOL    HW153393   8.596  11.189  11.872
83832SOL    HW253394   8.493  11.298  11.849
83833SOL     OW53395  11.741  10.002   5.384
83833SOL    HW153396  11.745  10.030   5.475
83833SOL    HW253397  11.745   9.907   5.388
83834SOL     OW53398   6.076  12.016  11.728
83834SOL    HW153399   6.146  11.974  11.677
83834SOL    HW253400   6.060  11.955  11.800
83835SOL     OW53401   2.572   6.009   8.352
83835SOL    HW153402   2.611   6.097   8.347
83835SOL    HW253403   2.639   5.956   8.396
83836SOL     OW53404  11.872  12.475  14.869
83836SOL    HW153405  11.790  12.449  14.826
83836SOL    HW253406  11.935  12.483  14.798
83837SOL     OW53407   9.128  11.957   7.910
83837SOL    HW153408   9.173  11.907   7.977
83837SOL    HW253409   9.191  12.023   7.881
83838SOL     OW53410   5.665  10.622   2.533
83838SOL    HW153411   5.681  10.613   2.439
83838SOL    HW253412   5.570  10.631   2.541
83839SOL     OW53413   7.103  11.393   4.495
83839SOL    HW153414   7.046  11.441   4.556
83839SOL    HW253415   7.101  11.303   4.526
83840SOL     OW53416  10.457   3.576  10.634
83840SOL    HW153417  10.543   3.614  10.647
83840SOL    HW253418  10.456   3.498  10.689
83841SOL     OW53419   3.335   1.349  13.176
83841SOL    HW153420   3.382   1.428  13.151
83841SOL    HW253421   3.264   1.379  13.234
83842SOL     OW53422   9.916   0.316   9.841
83842SOL    HW153423  10.005   0.305   9.809
83842SOL    HW253424   9.924   0.320   9.936
83843SOL     OW53425  14.137   3.072  12.673
83843SOL    HW153426  14.171   2.988  12.703
83843SOL    HW253427  14.117   3.120  12.753
83844SOL     OW53428   8.330  13.072   4.258
83844SOL    HW153429   8.359  13.047   4.170
83844SOL    HW253430   8.270  13.145   4.245
83845SOL     OW53431  12.159  12.697   4.192
83845SOL    HW153432  12.091  12.643   4.153
83845SOL    HW253433  12.124  12.786   4.188
83846SOL     OW53434   6.543   1.525   9.989
83846SOL    HW153435   6.452   1.543  10.009
83846SOL    HW253436   6.564   1.581   9.914
83847SOL     OW53437  13.438  13.684   5.774
83847SOL    HW153438  13.495  13.755   5.745
83847SOL    HW253439  13.431  13.696   5.869
83848SOL     OW53440   2.931  11.646   0.357
83848SOL    HW153441   2.930  11.582   0.429
83848SOL    HW253442   3.024  11.664   0.342
83849SOL     OW53443  10.387   9.297   9.576
83849SOL    HW153444  10.313   9.308   9.516
83849SOL    HW253445  10.364   9.350   9.653
83850SOL     OW53446   9.184  14.483   1.277
83850SOL    HW153447   9.235  14.446   1.205
83850SOL    HW253448   9.137  14.408   1.314
83851SOL     OW53449   0.340  10.838   9.698
83851SOL    HW153450   0.364  10.853   9.790
83851SOL    HW253451   0.423  10.817   9.655
83852SOL     OW53452  11.782  10.171   8.404
83852SOL    HW153453  11.696  10.212   8.403
83852SOL    HW253454  11.843  10.244   8.404
83853SOL     OW53455   4.562   2.966   3.789
83853SOL    HW153456   4.573   3.050   3.744
83853SOL    HW253457   4.470   2.965   3.814
83854SOL     OW53458  12.361   5.264   6.226
83854SOL    HW153459  12.359   5.347   6.178
83854SOL    HW253460  12.433   5.276   6.289
83855SOL     OW53461   9.666   9.343   6.282
83855SOL    HW153462   9.584   9.371   6.240
83855SOL    HW253463   9.730   9.342   6.211
83856SOL     OW53464   3.938  11.235   1.346
83856SOL    HW153465   3.971  11.315   1.306
83856SOL    HW253466   3.994  11.166   1.311
83857SOL     OW53467   7.773  11.853   4.297
83857SOL    HW153468   7.828  11.797   4.352
83857SOL    HW253469   7.716  11.791   4.251
83858SOL     OW53470   9.808   0.084   4.740
83858SOL    HW153471   9.722   0.054   4.770
83858SOL    HW253472   9.852   0.005   4.709
83859SOL     OW53473   1.588   7.869   5.167
83859SOL    HW153474   1.637   7.946   5.196
83859SOL    HW253475   1.647   7.825   5.106
83860SOL     OW53476  12.461   7.521   6.882
83860SOL    HW153477  12.455   7.570   6.964
83860SOL    HW253478  12.371   7.512   6.852
83861SOL     OW53479  14.844   3.254  13.155
83861SOL    HW153480   0.038   3.315  13.150
83861SOL    HW253481  14.842   3.226  13.247
83862SOL     OW53482   9.263  11.622  12.837
83862SOL    HW153483   9.335  11.684  12.848
83862SOL    HW253484   9.196  11.671  12.789
83863SOL     OW53485   1.526   3.658   8.647
83863SOL    HW153486   1.469   3.734   8.653
83863SOL    HW253487   1.573   3.669   8.565
83864SOL     OW53488   7.996   4.928   5.228
83864SOL    HW153489   7.908   4.931   5.191
83864SOL    HW253490   8.054   4.939   5.153
83865SOL     OW53491   0.811  11.968   5.303
83865SOL    HW153492   0.779  11.965   5.213
83865SOL    HW253493   0.896  12.011   5.297
83866SOL     OW53494   2.821  10.822   4.847
83866SOL    HW153495   2.747  10.857   4.896
83866SOL    HW253496   2.870  10.772   4.911
83867SOL     OW53497   4.584  13.900   6.294
83867SOL    HW153498   4.647  13.863   6.232
83867SOL    HW253499   4.628  13.976   6.332
83868SOL     OW53500  10.600   1.053  12.645
83868SOL    HW153501  10.536   1.013  12.586
83868SOL    HW253502  10.601   1.145  12.620
83869SOL     OW53503   3.453   6.492  13.639
83869SOL    HW153504   3.510   6.552  13.687
83869SOL    HW253505   3.500   6.475  13.557
83870SOL     OW53506   0.453   6.389   4.198
83870SOL    HW153507   0.528   6.369   4.253
83870SOL    HW253508   0.377   6.369   4.253
83871SOL     OW53509   6.404   8.428  14.849
83871SOL    HW153510   6.373   8.390   0.051
83871SOL    HW253511   6.326   8.432  14.794
83872SOL     OW53512   5.249   4.610  14.841
83872SOL    HW153513   5.257   4.674   0.031
83872SOL    HW253514   5.155   4.596  14.832
83873SOL     OW53515   6.068   2.726  10.154
83873SOL    HW153516   5.976   2.698  10.148
83873SOL    HW253517   6.110   2.685  10.078
83874SOL     OW53518   9.290   8.625  11.389
83874SOL    HW153519   9.248   8.706  11.360
83874SOL    HW253520   9.345   8.652  11.463
83875SOL     OW53521   4.783  14.636  14.388
83875SOL    HW153522   4.865  14.672  14.422
83875SOL    HW253523   4.805  14.608  14.299
83876SOL     OW53524   2.708   3.214   3.545
83876SOL    HW153525   2.695   3.199   3.639
83876SOL    HW253526   2.797   3.184   3.528
83877SOL     OW53527   5.013  10.823  10.278
83877SOL    HW153528   5.053  10.752  10.328
83877SOL    HW253529   5.065  10.900  10.300
83878SOL     OW53530   3.677  11.873   8.666
83878SOL    HW153531   3.768  11.901   8.682
83878SOL    HW253532   3.635  11.951   8.630
83879SOL     OW53533   6.846   0.160  14.105
83879SOL    HW153534   6.916   0.204  14.057
83879SOL    HW253535   6.889   0.086  14.147
83880SOL     OW53536   8.423  11.602   7.308
83880SOL    HW153537   8.375  11.664   7.253
83880SOL    HW253538   8.479  11.555   7.246
83881SOL     OW53539   8.237   0.431  10.693
83881SOL    HW153540   8.168   0.420  10.628
83881SOL    HW253541   8.206   0.380  10.769
83882SOL     OW53542   0.454  10.488   7.741
83882SOL    HW153543   0.405  10.542   7.678
83882SOL    HW253544   0.475  10.548   7.813
83883SOL     OW53545   5.859   9.652   8.210
83883SOL    HW153546   5.880   9.594   8.283
83883SOL    HW253547   5.902   9.613   8.134
83884SOL     OW53548   9.245  12.251   0.803
83884SOL    HW153549   9.169  12.293   0.765
83884SOL    HW253550   9.291  12.212   0.729
83885SOL     OW53551   3.846   0.405  12.615
83885SOL    HW153552   3.895   0.449  12.546
83885SOL    HW253553   3.773   0.465  12.635
83886SOL     OW53554   2.478   7.644   8.729
83886SOL    HW153555   2.560   7.669   8.771
83886SOL    HW253556   2.497   7.561   8.686
83887SOL     OW53557  11.495   6.514   2.833
83887SOL    HW153558  11.559   6.537   2.766
83887SOL    HW253559  11.472   6.598   2.874
83888SOL     OW53560   7.416   1.154   7.774
83888SOL    HW153561   7.487   1.116   7.825
83888SOL    HW253562   7.416   1.104   7.692
83889SOL     OW53563   6.034  13.676   2.967
83889SOL    HW153564   5.941  13.653   2.958
83889SOL    HW253565   6.037  13.729   3.047
83890SOL     OW53566   7.952   3.338   2.732
83890SOL    HW153567   7.941   3.248   2.763
83890SOL    HW253568   7.881   3.386   2.775
83891SOL     OW53569   5.514   9.037  14.560
83891SOL    HW153570   5.535   8.984  14.637
83891SOL    HW253571   5.597   9.049  14.515
83892SOL     OW53572  14.728   3.475  11.801
83892SOL    HW153573  14.687   3.560  11.786
83892SOL    HW253574  14.818   3.486  11.769
83893SOL     OW53575   1.412  11.892   9.055
83893SOL    HW153576   1.412  11.877   8.961
83893SOL    HW253577   1.399  11.986   9.064
83894SOL     OW53578  13.730   2.592   0.338
83894SOL    HW153579  13.706   2.684   0.328
83894SOL    HW253580  13.790   2.591   0.413
83895SOL     OW53581   4.249  11.100   5.811
83895SOL    HW153582   4.189  11.031   5.784
83895SOL    HW253583   4.314  11.056   5.865
83896SOL     OW53584  11.311   2.943  10.882
83896SOL    HW153585  11.225   2.904  10.866
83896SOL    HW253586  11.335   2.914  10.970
83897SOL     OW53587   9.826   3.725   7.865
83897SOL    HW153588   9.796   3.816   7.863
83897SOL    HW253589   9.794   3.691   7.949
83898SOL     OW53590  14.040   5.767  12.439
83898SOL    HW153591  14.036   5.794  12.347
83898SOL    HW253592  13.981   5.828  12.484
83899SOL     OW53593  12.192   7.791   8.655
83899SOL    HW153594  12.208   7.731   8.582
83899SOL    HW253595  12.226   7.745   8.732
83900SOL     OW53596   5.334   2.665   3.188
83900SOL    HW153597   5.406   2.711   3.232
83900SOL    HW253598   5.268   2.655   3.256
83901SOL     OW53599   9.541   0.217   5.592
83901SOL    HW153600   9.573   0.126   5.595
83901SOL    HW253601   9.601   0.262   5.533
83902SOL     OW53602   1.116   1.306   9.157
83902SOL    HW153603   1.032   1.262   9.171
83902SOL    HW253604   1.140   1.284   9.067
83903SOL     OW53605  12.087   4.990   4.190
83903SOL    HW153606  12.135   4.971   4.271
83903SOL    HW253607  12.126   5.070   4.156
83904SOL     OW53608   6.676   4.711   2.239
83904SOL    HW153609   6.716   4.746   2.159
83904SOL    HW253610   6.718   4.761   2.309
83905SOL     OW53611  10.386   2.424   5.905
83905SOL    HW153612  10.291   2.426   5.894
83905SOL    HW253613  10.400   2.386   5.991
83906SOL     OW53614  12.811  12.489   2.739
83906SOL    HW153615  12.763  12.433   2.678
83906SOL    HW253616  12.874  12.536   2.684
83907SOL     OW53617   3.660   5.840  11.597
83907SOL    HW153618   3.750   5.866  11.577
83907SOL    HW253619   3.625   5.810  11.513
83908SOL     OW53620   2.403   7.596   6.239
83908SOL    HW153621   2.315   7.625   6.264
83908SOL    HW253622   2.404   7.503   6.259
83909SOL     OW53623   2.737  14.804   3.957
83909SOL    HW153624   2.662  14.858   3.983
83909SOL    HW253625   2.737  14.731   4.019
83910SOL     OW53626  13.444  11.833   0.772
83910SOL    HW153627  13.498  11.907   0.741
83910SOL    HW253628  13.385  11.815   0.698
83911SOL     OW53629   2.469   3.525  13.492
83911SOL    HW153630   2.534   3.580  13.449
83911SOL    HW253631   2.505   3.509  13.579
83912SOL     OW53632   2.153  14.163   0.101
83912SOL    HW153633   2.197  14.139   0.183
83912SOL    HW253634   2.119  14.251   0.118
83913SOL     OW53635   5.515   4.467   4.728
83913SOL    HW153636   5.528   4.498   4.817
83913SOL    HW253637   5.470   4.539   4.684
83914SOL     OW53638  10.701   0.398  12.049
83914SOL    HW153639  10.707   0.404  11.954
83914SOL    HW253640  10.627   0.454  12.072
83915SOL     OW53641  13.963  10.652  12.901
83915SOL    HW153642  13.906  10.585  12.863
83915SOL    HW253643  14.051  10.619  12.886
83916SOL     OW53644   6.873  12.458   1.086
83916SOL    HW153645   6.826  12.531   1.126
83916SOL    HW253646   6.823  12.381   1.110
83917SOL     OW53647   5.916   9.575   6.552
83917SOL    HW153648   5.990   9.537   6.601
83917SOL    HW253649   5.924   9.536   6.465
83918SOL     OW53650   1.947  11.097  14.381
83918SOL    HW153651   1.918  11.176  14.428
83918SOL    HW253652   1.978  11.038  14.449
83919SOL     OW53653  10.864   6.189  10.552
83919SOL    HW153654  10.809   6.134  10.609
83919SOL    HW253655  10.939   6.134  10.531
83920SOL     OW53656   6.222  13.187  10.723
83920SOL    HW153657   6.195  13.208  10.634
83920SOL    HW253658   6.176  13.251  10.777
83921SOL     OW53659  14.721   9.704  10.830
83921SOL    HW153660  14.661   9.655  10.887
83921SOL    HW253661  14.670   9.720  10.750
83922SOL     OW53662   4.915   2.288   7.099
83922SOL    HW153663   4.967   2.263   7.023
83922SOL    HW253664   4.941   2.379   7.116
83923SOL     OW53665  12.216  10.535  11.871
83923SOL    HW153666  12.276  10.573  11.935
83923SOL    HW253667  12.130  10.537  11.913
83924SOL     OW53668  14.230   4.366  10.927
83924SOL    HW153669  14.147   4.366  10.879
83924SOL    HW253670  14.295   4.342  10.861
83925SOL     OW53671  11.759  11.449   7.828
83925SOL    HW153672  11.855  11.457   7.825
83925SOL    HW253673  11.737  11.472   7.918
83926SOL     OW53674   2.647   4.268   2.398
83926SOL    HW153675   2.595   4.202   2.353
83926SOL    HW253676   2.677   4.224   2.478
83927SOL     OW53677   9.311   2.429   5.110
83927SOL    HW153678   9.376   2.360   5.094
83927SOL    HW253679   9.252   2.391   5.176
83928SOL     OW53680  13.042  12.768  14.464
83928SOL    HW153681  13.103  12.694  14.457
83928SOL    HW253682  12.968  12.733  14.514
83929SOL     OW53683   2.309  14.442  12.456
83929SOL    HW153684   2.369  14.400  12.517
83929SOL    HW253685   2.233  14.467  12.509
83930SOL     OW53686   3.614  11.841   4.930
83930SOL    HW153687   3.606  11.924   4.977
83930SOL    HW253688   3.525  11.807   4.927
83931SOL     OW53689   2.318  10.909   1.254
83931SOL    HW153690   2.398  10.881   1.209
83931SOL    HW253691   2.280  10.975   1.195
83932SOL     OW53692   0.455   9.763   0.736
83932SOL    HW153693   0.536   9.814   0.740
83932SOL    HW253694   0.400   9.810   0.673
83933SOL     OW53695   4.039   5.556  13.483
83933SOL    HW153696   4.023   5.478  13.537
83933SOL    HW253697   4.051   5.627  13.546
83934SOL     OW53698   8.600   5.314   9.553
83934SOL    HW153699   8.637   5.284   9.470
83934SOL    HW253700   8.647   5.395   9.572
83935SOL     OW53701   5.506   3.050   0.793
83935SOL    HW153702   5.533   3.113   0.726
83935SOL    HW253703   5.443   3.097   0.848
83936SOL     OW53704   4.049   8.822   1.810
83936SOL    HW153705   4.076   8.767   1.736
83936SOL    HW253706   4.117   8.889   1.816
83937SOL     OW53707   7.625  11.665   5.097
83937SOL    HW153708   7.555  11.697   5.041
83937SOL    HW253709   7.659  11.587   5.053
83938SOL     OW53710   0.458   3.594   5.999
83938SOL    HW153711   0.500   3.650   6.065
83938SOL    HW253712   0.490   3.629   5.915
83939SOL     OW53713   7.897   3.954   0.128
83939SOL    HW153714   7.921   4.002   0.207
83939SOL    HW253715   7.806   3.978   0.111
83940SOL     OW53716   3.077   5.150  12.774
83940SOL    HW153717   3.012   5.155  12.704
83940SOL    HW253718   3.092   5.241  12.799
83941SOL     OW53719  10.508   8.821   0.230
83941SOL    HW153720  10.506   8.915   0.214
83941SOL    HW253721  10.425   8.802   0.272
83942SOL     OW53722  12.684  14.508   9.002
83942SOL    HW153723  12.717  14.578   9.058
83942SOL    HW253724  12.608  14.547   8.957
83943SOL     OW53725  14.228   4.622   8.393
83943SOL    HW153726  14.212   4.554   8.327
83943SOL    HW253727  14.199   4.703   8.352
83944SOL     OW53728   6.328   1.786   7.265
83944SOL    HW153729   6.246   1.751   7.297
83944SOL    HW253730   6.318   1.881   7.271
83945SOL     OW53731   2.253   1.545   5.014
83945SOL    HW153732   2.324   1.555   4.950
83945SOL    HW253733   2.214   1.460   4.994
83946SOL     OW53734   4.763   6.583   5.504
83946SOL    HW153735   4.780   6.677   5.496
83946SOL    HW253736   4.797   6.560   5.590
83947SOL     OW53737  13.447   4.965   5.732
83947SOL    HW153738  13.511   4.896   5.749
83947SOL    HW253739  13.382   4.956   5.802
83948SOL     OW53740  13.789   8.214  11.686
83948SOL    HW153741  13.839   8.161  11.748
83948SOL    HW253742  13.698   8.189  11.701
83949SOL     OW53743   8.878  14.186  13.643
83949SOL    HW153744   8.909  14.275  13.656
83949SOL    HW253745   8.921  14.157  13.562
83950SOL     OW53746   2.946  12.287   9.722
83950SOL    HW153747   2.858  12.316   9.747
83950SOL    HW253748   2.999  12.301   9.800
83951SOL     OW53749  14.846   0.358   2.908
83951SOL    HW153750  14.755   0.334   2.925
83951SOL    HW253751  14.852   0.449   2.940
83952SOL     OW53752   8.452  14.594   0.074
83952SOL    HW153753   8.541  14.560   0.065
83952SOL    HW253754   8.396  14.518   0.058
83953SOL     OW53755   0.266   9.075   5.881
83953SOL    HW153756   0.250   9.091   5.974
83953SOL    HW253757   0.304   8.988   5.878
83954SOL     OW53758   2.849   1.940   1.423
83954SOL    HW153759   2.898   1.945   1.505
83954SOL    HW253760   2.875   1.856   1.385
83955SOL     OW53761   7.403   5.557   9.874
83955SOL    HW153762   7.466   5.629   9.868
83955SOL    HW253763   7.338   5.576   9.807
83956SOL     OW53764   1.021   2.168   9.223
83956SOL    HW153765   0.946   2.109   9.225
83956SOL    HW253766   1.022   2.204   9.135
83957SOL     OW53767  13.977  12.750   7.907
83957SOL    HW153768  13.937  12.751   7.994
83957SOL    HW253769  13.904  12.763   7.847
83958SOL     OW53770   3.817   0.098  14.623
83958SOL    HW153771   3.748   0.066  14.681
83958SOL    HW253772   3.894   0.108  14.680
83959SOL     OW53773   8.028   0.729   4.305
83959SOL    HW153774   8.050   0.699   4.393
83959SOL    HW253775   8.039   0.652   4.249
83960SOL     OW53776   7.902   8.125   4.030
83960SOL    HW153777   7.838   8.124   4.101
83960SOL    HW253778   7.901   8.215   3.997
83961SOL     OW53779   8.317   9.654   8.504
83961SOL    HW153780   8.283   9.573   8.467
83961SOL    HW253781   8.387   9.627   8.564
83962SOL     OW53782   8.502   1.446  10.139
83962SOL    HW153783   8.417   1.403  10.128
83962SOL    HW253784   8.495   1.526  10.087
83963SOL     OW53785   2.644   2.850  11.552
83963SOL    HW153786   2.693   2.783  11.504
83963SOL    HW253787   2.712   2.905  11.591
83964SOL     OW53788   0.853   2.808   3.297
83964SOL    HW153789   0.893   2.811   3.210
83964SOL    HW253790   0.909   2.748   3.347
83965SOL     OW53791   0.575  13.143   3.225
83965SOL    HW153792   0.588  13.234   3.197
83965SOL    HW253793   0.491  13.143   3.269
83966SOL     OW53794   9.384   7.713   2.515
83966SOL    HW153795   9.403   7.674   2.600
83966SOL    HW253796   9.381   7.639   2.454
83967SOL     OW53797   8.282   9.122  13.183
83967SOL    HW153798   8.267   9.198  13.238
83967SOL    HW253799   8.373   9.097  13.201
83968SOL     OW53800   0.380  10.286   2.640
83968SOL    HW153801   0.330  10.280   2.558
83968SOL    HW253802   0.407  10.196   2.658
83969SOL     OW53803   1.738   4.708  14.664
83969SOL    HW153804   1.711   4.744  14.749
83969SOL    HW253805   1.827   4.676  14.679
83970SOL     OW53806   3.358   0.443  10.901
83970SOL    HW153807   3.298   0.394  10.845
83970SOL    HW253808   3.404   0.502  10.841
83971SOL     OW53809   5.698  10.174   9.411
83971SOL    HW153810   5.614  10.182   9.457
83971SOL    HW253811   5.676  10.186   9.318
83972SOL     OW53812   4.936   8.683   1.258
83972SOL    HW153813   4.895   8.702   1.174
83972SOL    HW253814   5.025   8.656   1.235
83973SOL     OW53815   8.192   6.726  12.169
83973SOL    HW153816   8.246   6.794  12.210
83973SOL    HW253817   8.207   6.648  12.223
83974SOL     OW53818  12.683   5.883   1.456
83974SOL    HW153819  12.756   5.823   1.439
83974SOL    HW253820  12.643   5.896   1.370
83975SOL     OW53821   2.276  14.593   6.312
83975SOL    HW153822   2.342  14.571   6.246
83975SOL    HW253823   2.290  14.686   6.330
83976SOL     OW53824   8.553  10.395   1.147
83976SOL    HW153825   8.488  10.348   1.096
83976SOL    HW253826   8.599  10.326   1.196
83977SOL     OW53827  11.140   0.926  14.210
83977SOL    HW153828  11.083   0.945  14.136
83977SOL    HW253829  11.206   0.866  14.174
83978SOL     OW53830   2.903   3.034   2.593
83978SOL    HW153831   2.814   3.068   2.585
83978SOL    HW253832   2.932   3.063   2.679
83979SOL     OW53833  14.795  13.193   9.321
83979SOL    HW153834  14.840  13.204   9.405
83979SOL    HW253835  14.768  13.282   9.297
83980SOL     OW53836   5.586  14.684  12.683
83980SOL    HW153837   5.556  14.610  12.631
83980SOL    HW253838   5.536  14.679  12.764
83981SOL     OW53839   2.271   1.434  12.963
83981SOL    HW153840   2.244   1.440  13.055
83981SOL    HW253841   2.190   1.447  12.914
83982SOL     OW53842   2.438  12.386  10.215
83982SOL    HW153843   2.421  12.292  10.213
83982SOL    HW253844   2.362  12.424  10.172
83983SOL     OW53845  12.920  13.761  13.189
83983SOL    HW153846  12.998  13.812  13.212
83983SOL    HW253847  12.889  13.726  13.272
83984SOL     OW53848   1.183  14.328   3.489
83984SOL    HW153849   1.100  14.370   3.515
83984SOL    HW253850   1.245  14.401   3.484
83985SOL     OW53851   3.975   0.831   6.269
83985SOL    HW153852   3.972   0.926   6.266
83985SOL    HW253853   3.942   0.808   6.356
83986SOL     OW53854  13.051   6.737  14.501
83986SOL    HW153855  13.009   6.759  14.584
83986SOL    HW253856  13.048   6.641  14.498
83987SOL     OW53857   4.242   8.632   7.258
83987SOL    HW153858   4.214   8.609   7.346
83987SOL    HW253859   4.330   8.595   7.250
83988SOL     OW53860   9.791   9.247   5.074
83988SOL    HW153861   9.760   9.306   5.006
83988SOL    HW253862   9.772   9.293   5.156
83989SOL     OW53863   4.928   3.841   0.129
83989SOL    HW153864   4.950   3.927   0.093
83989SOL    HW253865   4.981   3.834   0.209
83990SOL     OW53866   4.994   7.843  13.321
83990SOL    HW153867   5.055   7.787  13.273
83990SOL    HW253868   5.046   7.921  13.343
83991SOL     OW53869  11.012   2.204  10.211
83991SOL    HW153870  10.962   2.158  10.144
83991SOL    HW253871  11.092   2.152  10.223
83992SOL     OW53872   3.336   0.701  13.439
83992SOL    HW153873   3.324   0.622  13.385
83992SOL    HW253874   3.269   0.762  13.408
83993SOL     OW53875   7.053  12.221   4.400
83993SOL    HW153876   7.106  12.279   4.345
83993SOL    HW253877   6.963  12.241   4.377
83994SOL     OW53878   7.910  13.944   2.208
83994SOL    HW153879   7.954  13.943   2.123
83994SOL    HW253880   7.887  13.852   2.224
83995SOL     OW53881  10.573   3.569  14.672
83995SOL    HW153882  10.532   3.525  14.746
83995SOL    HW253883  10.506   3.565  14.603
83996SOL     OW53884  12.245  14.754  13.028
83996SOL    HW153885  12.184  14.790  13.093
83996SOL    HW253886  12.190  14.703  12.969
83997SOL     OW53887   2.318   4.142   4.134
83997SOL    HW153888   2.391   4.103   4.182
83997SOL    HW253889   2.355   4.162   4.047
83998SOL     OW53890  10.510   1.190   8.844
83998SOL    HW153891  10.444   1.218   8.908
83998SOL    HW253892  10.491   1.243   8.767
83999SOL     OW53893   3.442   9.816   0.310
83999SOL    HW153894   3.416   9.853   0.394
83999SOL    HW253895   3.443   9.890   0.249
84000SOL     OW53896  11.677  14.298   2.331
84000SOL    HW153897  11.640  14.247   2.403
84000SOL    HW253898  11.749  14.245   2.298
84001SOL     OW53899   5.174  13.634   9.494
84001SOL    HW153900   5.241  13.686   9.538
84001SOL    HW253901   5.219  13.553   9.468
84002SOL     OW53902   7.416   9.157   7.898
84002SOL    HW153903   7.340   9.114   7.937
84002SOL    HW253904   7.480   9.163   7.969
84003SOL     OW53905  10.811  13.537   0.479
84003SOL    HW153906  10.834  13.476   0.409
84003SOL    HW253907  10.881  13.526   0.544
84004SOL     OW53908  11.605  13.299  14.451
84004SOL    HW153909  11.592  13.344  14.534
84004SOL    HW253910  11.538  13.231  14.450
84005SOL     OW53911   7.966   2.210   0.878
84005SOL    HW153912   7.972   2.305   0.869
84005SOL    HW253913   7.872   2.193   0.889
84006SOL     OW53914  14.203  13.224   5.884
84006SOL    HW153915  14.110  13.201   5.884
84006SOL    HW253916  14.248  13.141   5.870
84007SOL     OW53917   3.563   8.926  14.373
84007SOL    HW153918   3.482   8.964  14.408
84007SOL    HW253919   3.628   8.941  14.442
84008SOL     OW53920  11.876  13.582   1.059
84008SOL    HW153921  11.908  13.530   0.985
84008SOL    HW253922  11.955  13.619   1.099
84009SOL     OW53923   0.983  12.945   3.272
84009SOL    HW153924   0.972  12.984   3.358
84009SOL    HW253925   0.893  12.935   3.239
84010SOL     OW53926   5.002  12.204   1.005
84010SOL    HW153927   4.973  12.118   0.975
84010SOL    HW253928   5.073  12.186   1.066
84011SOL     OW53929   7.309  13.471  14.008
84011SOL    HW153930   7.388  13.524  13.995
84011SOL    HW253931   7.240  13.535  14.024
84012SOL     OW53932   5.320   2.827   0.144
84012SOL    HW153933   5.404   2.870   0.164
84012SOL    HW253934   5.254   2.891   0.172
84013SOL     OW53935   8.468   9.093  14.879
84013SOL    HW153936   8.487   9.039  14.802
84013SOL    HW253937   8.456   9.030   0.070
84014SOL     OW53938  11.952  12.823  11.863
84014SOL    HW153939  11.932  12.904  11.817
84014SOL    HW253940  11.894  12.823  11.940
84015SOL     OW53941   1.414   2.334  11.601
84015SOL    HW153942   1.459   2.299  11.678
84015SOL    HW253943   1.339   2.382  11.637
84016SOL     OW53944   1.525   5.452   1.357
84016SOL    HW153945   1.537   5.372   1.306
84016SOL    HW253946   1.431   5.470   1.352
84017SOL     OW53947  11.659   7.472   1.212
84017SOL    HW153948  11.693   7.487   1.124
84017SOL    HW253949  11.565   7.488   1.204
84018SOL     OW53950   1.377  13.052  12.059
84018SOL    HW153951   1.468  13.047  12.030
84018SOL    HW253952   1.331  12.984  12.009
84019SOL     OW53953   8.973   5.211  10.509
84019SOL    HW153954   9.028   5.152  10.562
84019SOL    HW253955   9.008   5.298  10.527
84020SOL     OW53956   2.477   9.839   7.922
84020SOL    HW153957   2.534   9.913   7.904
84020SOL    HW253958   2.410   9.873   7.982
84021SOL     OW53959   5.915  10.368   7.519
84021SOL    HW153960   6.003  10.388   7.549
84021SOL    HW253961   5.922  10.284   7.475
84022SOL     OW53962   5.956  10.204   9.908
84022SOL    HW153963   5.882  10.189   9.849
84022SOL    HW253964   5.925  10.272   9.968
84023SOL     OW53965  10.859  11.186   0.969
84023SOL    HW153966  10.807  11.230   1.036
84023SOL    HW253967  10.797  11.127   0.927
84024SOL     OW53968   8.092  12.877   3.712
84024SOL    HW153969   8.053  12.802   3.758
84024SOL    HW253970   8.104  12.846   3.622
84025SOL     OW53971   5.921  13.653  14.499
84025SOL    HW153972   5.934  13.709  14.575
84025SOL    HW253973   5.847  13.596  14.522
84026SOL     OW53974  13.907   0.140   4.364
84026SOL    HW153975  13.846   0.206   4.395
84026SOL    HW253976  13.979   0.190   4.325
84027SOL     OW53977   1.589  14.592   0.275
84027SOL    HW153978   1.683  14.598   0.292
84027SOL    HW253979   1.558  14.682   0.275
84028SOL     OW53980   9.315   9.240   6.053
84028SOL    HW153981   9.397   9.268   6.012
84028SOL    HW253982   9.341   9.173   6.115
84029SOL     OW53983   6.646   8.125   3.961
84029SOL    HW153984   6.612   8.072   4.032
84029SOL    HW253985   6.598   8.096   3.884
84030SOL     OW53986   9.738  12.875   2.776
84030SOL    HW153987   9.755  12.790   2.817
84030SOL    HW253988   9.825  12.907   2.752
84031SOL     OW53989   0.451  13.772  10.197
84031SOL    HW153990   0.467  13.686  10.236
84031SOL    HW253991   0.525  13.826  10.226
84032SOL     OW53992   8.661  13.176  11.525
84032SOL    HW153993   8.709  13.188  11.608
84032SOL    HW253994   8.661  13.263  11.485
84033SOL     OW53995  14.873   2.055   4.613
84033SOL    HW153996   0.005   2.131   4.556
84033SOL    HW253997   0.052   2.071   4.687
84034SOL     OW53998  11.049   5.700  12.597
84034SOL    HW153999  10.990   5.682  12.524
84034SOL    HW254000  11.061   5.615  12.640
84035SOL     OW54001   3.038   7.617  11.402
84035SOL    HW154002   3.011   7.622  11.493
84035SOL    HW254003   3.028   7.525  11.378
84036SOL     OW54004   9.726   9.518   4.341
84036SOL    HW154005   9.651   9.463   4.318
84036SOL    HW254006   9.791   9.501   4.273
84037SOL     OW54007   9.970   0.273   8.217
84037SOL    HW154008   9.958   0.368   8.217
84037SOL    HW254009   9.889   0.239   8.178
84038SOL     OW54010   8.278  11.326   9.984
84038SOL    HW154011   8.216  11.253   9.986
84038SOL    HW254012   8.262  11.373  10.066
84039SOL     OW54013   4.964  13.067  14.598
84039SOL    HW154014   5.035  13.111  14.645
84039SOL    HW254015   4.910  13.028  14.666
84040SOL     OW54016  11.444   7.997   7.688
84040SOL    HW154017  11.528   7.955   7.672
84040SOL    HW254018  11.467   8.084   7.723
84041SOL     OW54019   3.201   0.089  11.638
84041SOL    HW154020   3.208   0.049  11.551
84041SOL    HW254021   3.291   0.100  11.667
84042SOL     OW54022   2.344  11.909   7.000
84042SOL    HW154023   2.407  11.975   7.027
84042SOL    HW254024   2.262  11.936   7.040
84043SOL     OW54025   0.069   6.925  12.819
84043SOL    HW154026   0.087   6.957  12.730
84043SOL    HW254027   0.137   6.964  12.873
84044SOL     OW54028   6.908  12.607  11.254
84044SOL    HW154029   6.915  12.701  11.272
84044SOL    HW254030   6.827  12.598  11.204
84045SOL     OW54031  13.291  12.587   9.617
84045SOL    HW154032  13.332  12.673   9.627
84045SOL    HW254033  13.222  12.585   9.684
84046SOL     OW54034  14.451  11.959   0.720
84046SOL    HW154035  14.505  12.037   0.733
84046SOL    HW254036  14.362  11.988   0.738
84047SOL     OW54037   6.125  12.898   6.421
84047SOL    HW154038   6.119  12.803   6.405
84047SOL    HW254039   6.113  12.938   6.335
84048SOL     OW54040  11.344   6.306  14.807
84048SOL    HW154041  11.375   6.396  14.823
84048SOL    HW254042  11.421   6.251  14.820
84049SOL     OW54043   6.682   9.872   9.404
84049SOL    HW154044   6.740   9.901   9.333
84049SOL    HW254045   6.605   9.929   9.396
84050SOL     OW54046   5.189   5.134  11.522
84050SOL    HW154047   5.267   5.169  11.564
84050SOL    HW254048   5.116   5.169  11.574
84051SOL     OW54049   1.488  14.238   5.488
84051SOL    HW154050   1.393  14.238   5.477
84051SOL    HW254051   1.501  14.247   5.583
84052SOL     OW54052   6.580   2.901   2.125
84052SOL    HW154053   6.538   2.901   2.211
84052SOL    HW254054   6.674   2.899   2.144
84053SOL     OW54055  14.347  13.809   5.424
84053SOL    HW154056  14.332  13.818   5.518
84053SOL    HW254057  14.403  13.884   5.402
84054SOL     OW54058   3.278  14.352  13.864
84054SOL    HW154059   3.236  14.376  13.781
84054SOL    HW254060   3.367  14.388  13.856
84055SOL     OW54061  12.671   3.403   5.899
84055SOL    HW154062  12.650   3.372   5.987
84055SOL    HW254063  12.671   3.324   5.845
84056SOL     OW54064   6.120   2.569   1.398
84056SOL    HW154065   6.096   2.476   1.395
84056SOL    HW254066   6.132   2.587   1.491
84057SOL     OW54067   8.941   9.308  13.315
84057SOL    HW154068   9.037   9.306  13.321
84057SOL    HW254069   8.911   9.322  13.405
84058SOL     OW54070   3.651   7.033   1.149
84058SOL    HW154071   3.622   6.960   1.095
84058SOL    HW254072   3.619   7.014   1.237
84059SOL     OW54073   3.621  11.578   5.364
84059SOL    HW154074   3.660  11.491   5.358
84059SOL    HW254075   3.542  11.565   5.416
84060SOL     OW54076   0.476   9.324   9.742
84060SOL    HW154077   0.381   9.331   9.731
84060SOL    HW254078   0.489   9.249   9.799
84061SOL     OW54079   3.047  11.601   4.255
84061SOL    HW154080   3.079  11.645   4.176
84061SOL    HW254081   3.119  11.609   4.317
84062SOL     OW54082   0.464   6.812   8.873
84062SOL    HW154083   0.482   6.888   8.817
84062SOL    HW254084   0.432   6.745   8.814
84063SOL     OW54085   8.688   2.039   6.732
84063SOL    HW154086   8.762   2.038   6.672
84063SOL    HW254087   8.720   2.085   6.809
84064SOL     OW54088  14.606   1.748  12.410
84064SOL    HW154089  14.579   1.803  12.483
84064SOL    HW254090  14.702   1.753  12.409
84065SOL     OW54091   3.433  11.343   9.478
84065SOL    HW154092   3.348  11.353   9.520
84065SOL    HW254093   3.439  11.415   9.416
84066SOL     OW54094   6.667  13.025  12.687
84066SOL    HW154095   6.733  13.030  12.756
84066SOL    HW254096   6.677  13.107  12.638
84067SOL     OW54097  13.247   0.084   0.988
84067SOL    HW154098  13.164   0.047   0.958
84067SOL    HW254099  13.303   0.007   1.005
84068SOL     OW54100  13.704   9.173   0.285
84068SOL    HW154101  13.680   9.191   0.194
84068SOL    HW254102  13.621   9.148   0.326
84069SOL     OW54103  11.973  12.663  14.206
84069SOL    HW154104  11.896  12.631  14.252
84069SOL    HW254105  12.019  12.583  14.178
84070SOL     OW54106   5.598   3.800  14.094
84070SOL    HW154107   5.655   3.877  14.099
84070SOL    HW254108   5.631   3.750  14.019
84071SOL     OW54109  10.236  12.286  12.456
84071SOL    HW154110  10.260  12.319  12.543
84071SOL    HW254111  10.167  12.222  12.473
84072SOL     OW54112  14.535  11.956   4.347
84072SOL    HW154113  14.507  12.045   4.327
84072SOL    HW254114  14.471  11.925   4.411
84073SOL     OW54115   7.980  10.305  14.700
84073SOL    HW154116   7.906  10.362  14.720
84073SOL    HW254117   8.010  10.275  14.785
84074SOL     OW54118   6.375   6.599   5.685
84074SOL    HW154119   6.353   6.507   5.702
84074SOL    HW254120   6.471   6.599   5.680
84075SOL     OW54121  10.318   8.403   8.714
84075SOL    HW154122  10.392   8.376   8.769
84075SOL    HW254123  10.352   8.477   8.662
84076SOL     OW54124   4.102   6.610  11.997
84076SOL    HW154125   4.043   6.535  12.008
84076SOL    HW254126   4.133   6.604  11.907
84077SOL     OW54127   6.602   1.630  10.837
84077SOL    HW154128   6.558   1.560  10.885
84077SOL    HW254129   6.614   1.595  10.749
84078SOL     OW54130  14.394  11.112   4.514
84078SOL    HW154131  14.417  11.019   4.509
84078SOL    HW254132  14.324  11.116   4.579
84079SOL     OW54133   7.405  14.741   5.375
84079SOL    HW154134   7.437  14.766   5.289
84079SOL    HW254135   7.310  14.750   5.368
84080SOL     OW54136  13.435   9.149   2.009
84080SOL    HW154137  13.498   9.104   1.953
84080SOL    HW254138  13.362   9.088   2.017
84081SOL     OW54139   9.607  14.576   1.598
84081SOL    HW154140   9.602  14.579   1.503
84081SOL    HW254141   9.684  14.522   1.617
84082SOL     OW54142  12.755   7.028   5.638
84082SOL    HW154143  12.819   6.958   5.628
84082SOL    HW254144  12.800   7.107   5.609
84083SOL     OW54145   1.275   6.677   1.084
84083SOL    HW154146   1.361   6.660   1.122
84083SOL    HW254147   1.261   6.603   1.024
84084SOL     OW54148  14.488   5.312   0.094
84084SOL    HW154149  14.488   5.317  14.879
84084SOL    HW254150  14.451   5.225   0.114
84085SOL     OW54151  11.188  11.337  10.388
84085SOL    HW154152  11.103  11.361  10.350
84085SOL    HW254153  11.221  11.418  10.425
84086SOL     OW54154   3.910   8.090   1.410
84086SOL    HW154155   3.895   7.997   1.391
84086SOL    HW254156   3.961   8.090   1.491
84087SOL     OW54157   7.174   6.724   6.187
84087SOL    HW154158   7.138   6.654   6.132
84087SOL    HW254159   7.118   6.723   6.265
84088SOL     OW54160   6.029   3.896   0.828
84088SOL    HW154161   5.943   3.936   0.833
84088SOL    HW254162   6.033   3.858   0.740
84089SOL     OW54163  10.683  12.993   6.237
84089SOL    HW154164  10.686  12.997   6.333
84089SOL    HW254165  10.762  13.038   6.209
84090SOL     OW54166  12.975  12.724   2.887
84090SOL    HW154167  13.032  12.713   2.811
84090SOL    HW254168  13.035  12.748   2.958
84091SOL     OW54169   8.718   3.267   5.791
84091SOL    HW154170   8.792   3.281   5.732
84091SOL    HW254171   8.718   3.173   5.808
84092SOL     OW54172   1.806   4.731   1.682
84092SOL    HW154173   1.833   4.823   1.678
84092SOL    HW254174   1.888   4.682   1.685
84093SOL     OW54175  13.003  12.994  11.333
84093SOL    HW154176  13.038  12.989  11.244
84093SOL    HW254177  13.058  12.934  11.384
84094SOL     OW54178   7.708   1.568   3.929
84094SOL    HW154179   7.688   1.530   3.844
84094SOL    HW254180   7.693   1.662   3.918
84095SOL     OW54181   4.409  12.110  10.596
84095SOL    HW154182   4.481  12.167  10.623
84095SOL    HW254183   4.380  12.067  10.676
84096SOL     OW54184   6.519   3.115  14.309
84096SOL    HW154185   6.608   3.143  14.289
84096SOL    HW254186   6.485   3.083  14.225
84097SOL     OW54187   7.619  14.558   1.507
84097SOL    HW154188   7.629  14.601   1.422
84097SOL    HW254189   7.707  14.527   1.529
84098SOL     OW54190  14.011   5.456   9.754
84098SOL    HW154191  13.953   5.400   9.807
84098SOL    HW254192  13.961   5.473   9.674
84099SOL     OW54193  14.308  12.772   7.076
84099SOL    HW154194  14.372  12.711   7.113
84099SOL    HW254195  14.292  12.740   6.987
84100SOL     OW54196   1.723   0.870   1.099
84100SOL    HW154197   1.718   0.790   1.150
84100SOL    HW254198   1.634   0.886   1.069
84101SOL     OW54199  14.585  11.482  10.135
84101SOL    HW154200  14.613  11.566  10.171
84101SOL    HW254201  14.661  11.451  10.085
84102SOL     OW54202  12.707   9.238   1.548
84102SOL    HW154203  12.702   9.143   1.559
84102SOL    HW254204  12.698   9.273   1.637
84103SOL     OW54205   5.096   7.563   4.027
84103SOL    HW154206   5.173   7.536   3.977
84103SOL    HW254207   5.132   7.619   4.097
84104SOL     OW54208   9.617   2.279   7.036
84104SOL    HW154209   9.591   2.319   6.953
84104SOL    HW254210   9.693   2.225   7.015
84105SOL     OW54211   4.964   1.496  14.261
84105SOL    HW154212   5.037   1.483  14.201
84105SOL    HW254213   4.887   1.505  14.204
84106SOL     OW54214  14.464  11.408  10.879
84106SOL    HW154215  14.517  11.376  10.805
84106SOL    HW254216  14.385  11.355  10.877
84107SOL     OW54217   5.911   1.850   3.563
84107SOL    HW154218   5.937   1.874   3.474
84107SOL    HW254219   5.993   1.849   3.612
84108SOL     OW54220  14.110  12.976   2.905
84108SOL    HW154221  14.204  12.963   2.920
84108SOL    HW254222  14.070  12.964   2.991
84109SOL     OW54223   4.234   5.424   1.483
84109SOL    HW154224   4.289   5.469   1.548
84109SOL    HW254225   4.294   5.403   1.412
84110SOL     OW54226  10.458   6.192   6.986
84110SOL    HW154227  10.552   6.195   6.998
84110SOL    HW254228  10.444   6.230   6.899
84111SOL     OW54229   3.090  10.544   3.601
84111SOL    HW154230   3.018  10.552   3.538
84111SOL    HW254231   3.151  10.483   3.560
84112SOL     OW54232   8.295  10.491   2.198
84112SOL    HW154233   8.349  10.564   2.229
84112SOL    HW254234   8.334  10.466   2.115
84113SOL     OW54235   7.394   3.870   9.238
84113SOL    HW154236   7.351   3.851   9.154
84113SOL    HW254237   7.321   3.888   9.298
84114SOL     OW54238  14.040   9.121   6.330
84114SOL    HW154239  14.093   9.128   6.250
84114SOL    HW254240  14.054   9.031   6.361
84115SOL     OW54241   1.402   5.514  10.266
84115SOL    HW154242   1.375   5.529  10.175
84115SOL    HW254243   1.445   5.595  10.292
84116SOL     OW54244   0.503   3.600   0.390
84116SOL    HW154245   0.521   3.692   0.410
84116SOL    HW254246   0.578   3.571   0.339
84117SOL     OW54247   3.406   0.676   8.308
84117SOL    HW154248   3.395   0.582   8.295
84117SOL    HW254249   3.382   0.690   8.399
84118SOL     OW54250  11.143  10.682  13.894
84118SOL    HW154251  11.161  10.612  13.957
84118SOL    HW254252  11.123  10.758  13.949
84119SOL     OW54253   9.202  10.212   7.436
84119SOL    HW154254   9.220  10.190   7.528
84119SOL    HW254255   9.285  10.246   7.402
84120SOL     OW54256  12.289   6.132  13.594
84120SOL    HW154257  12.273   6.215  13.548
84120SOL    HW254258  12.267   6.151  13.685
84121SOL     OW54259  12.614  12.485   7.541
84121SOL    HW154260  12.632  12.577   7.559
84121SOL    HW254261  12.693  12.439   7.572
84122SOL     OW54262  14.205   8.205   7.132
84122SOL    HW154263  14.127   8.261   7.123
84122SOL    HW254264  14.268   8.243   7.071
84123SOL     OW54265  12.643  13.025  12.701
84123SOL    HW154266  12.727  13.010  12.657
84123SOL    HW254267  12.599  13.091  12.648
84124SOL     OW54268   6.628   4.534   5.502
84124SOL    HW154269   6.611   4.606   5.563
84124SOL    HW254270   6.595   4.456   5.546
84125SOL     OW54271  10.607   0.032   4.773
84125SOL    HW154272  10.589   0.071   4.858
84125SOL    HW254273  10.682   0.081   4.739
84126SOL     OW54274   3.017   6.815  10.254
84126SOL    HW154275   3.102   6.848  10.223
84126SOL    HW254276   2.984   6.883  10.312
84127SOL     OW54277   6.629   6.031   1.329
84127SOL    HW154278   6.575   6.014   1.407
84127SOL    HW254279   6.716   5.997   1.352
84128SOL     OW54280   5.427   5.802  12.597
84128SOL    HW154281   5.424   5.890  12.558
84128SOL    HW254282   5.357   5.754  12.553
84129SOL     OW54283   0.636   8.786   6.299
84129SOL    HW154284   0.559   8.793   6.357
84129SOL    HW254285   0.686   8.713   6.335
84130SOL     OW54286   5.980   0.774  11.520
84130SOL    HW154287   5.924   0.698  11.507
84130SOL    HW254288   6.055   0.760  11.462
84131SOL     OW54289   8.086  12.777   2.775
84131SOL    HW154290   8.018  12.802   2.712
84131SOL    HW254291   8.113  12.859   2.816
84132SOL     OW54292  14.168  11.653   0.210
84132SOL    HW154293  14.184  11.735   0.162
84132SOL    HW254294  14.253  11.610   0.213
84133SOL     OW54295   8.778   6.922   3.642
84133SOL    HW154296   8.867   6.909   3.610
84133SOL    HW254297   8.734   6.969   3.571
84134SOL     OW54298   1.526   4.538  11.770
84134SOL    HW154299   1.482   4.558  11.853
84134SOL    HW254300   1.464   4.566  11.703
84135SOL     OW54301  12.005   0.817   6.712
84135SOL    HW154302  12.077   0.763   6.682
84135SOL    HW254303  11.965   0.767   6.784
84136SOL     OW54304   2.388  12.008   5.233
84136SOL    HW154305   2.347  11.922   5.222
84136SOL    HW254306   2.482  11.990   5.231
84137SOL     OW54307   5.209   1.025   1.531
84137SOL    HW154308   5.195   0.948   1.477
84137SOL    HW254309   5.123   1.067   1.536
84138SOL     OW54310   0.698   5.335   7.078
84138SOL    HW154311   0.624   5.316   7.136
84138SOL    HW254312   0.701   5.261   7.018
84139SOL     OW54313   5.272  11.310   8.819
84139SOL    HW154314   5.271  11.270   8.906
84139SOL    HW254315   5.278  11.404   8.837
84140SOL     OW54316  14.043   8.575  10.022
84140SOL    HW154317  13.949   8.586  10.010
84140SOL    HW254318  14.081   8.595   9.936
84141SOL     OW54319   9.679  10.173   1.931
84141SOL    HW154320   9.632  10.256   1.937
84141SOL    HW254321   9.739  10.185   1.858
84142SOL     OW54322   4.445   1.900   1.980
84142SOL    HW154323   4.502   1.959   2.028
84142SOL    HW254324   4.373   1.883   2.041
84143SOL     OW54325  12.922  11.645   4.087
84143SOL    HW154326  12.890  11.556   4.069
84143SOL    HW254327  12.915  11.690   4.002
84144SOL     OW54328   3.241   1.723   0.972
84144SOL    HW154329   3.312   1.704   1.033
84144SOL    HW254330   3.187   1.787   1.017
84145SOL     OW54331   5.005  12.039  12.829
84145SOL    HW154332   5.100  12.033  12.823
84145SOL    HW254333   4.989  12.103  12.898
84146SOL     OW54334   7.039   9.361   3.878
84146SOL    HW154335   7.100   9.414   3.930
84146SOL    HW254336   6.995   9.305   3.941
84147SOL     OW54337   2.076   4.012   0.189
84147SOL    HW154338   2.089   3.950   0.261
84147SOL    HW254339   1.990   3.988   0.153
84148SOL     OW54340   5.102  12.278   1.517
84148SOL    HW154341   5.011  12.248   1.521
84148SOL    HW254342   5.095  12.373   1.513
84149SOL     OW54343  11.123   7.016  11.823
84149SOL    HW154344  11.090   6.927  11.811
84149SOL    HW254345  11.148   7.044  11.735
84150SOL     OW54346  11.897  13.800   7.835
84150SOL    HW154347  11.909  13.856   7.759
84150SOL    HW254348  11.940  13.847   7.907
84151SOL     OW54349  13.435   1.280  14.651
84151SOL    HW154350  13.452   1.351  14.590
84151SOL    HW254351  13.364   1.313  14.707
84152SOL     OW54352   4.407   5.428   7.881
84152SOL    HW154353   4.321   5.469   7.864
84152SOL    HW254354   4.431   5.459   7.968
84153SOL     OW54355   5.216   2.985  12.708
84153SOL    HW154356   5.245   2.987  12.799
84153SOL    HW254357   5.136   3.038  12.708
84154SOL     OW54358   0.025   1.609  13.363
84154SOL    HW154359  14.868   1.622  13.277
84154SOL    HW254360   0.024   1.696  13.404
84155SOL     OW54361   9.637   0.933   6.178
84155SOL    HW154362   9.712   0.878   6.199
84155SOL    HW254363   9.565   0.899   6.232
84156SOL     OW54364   0.779   9.135  10.970
84156SOL    HW154365   0.819   9.088  11.043
84156SOL    HW254366   0.688   9.106  10.969
84157SOL     OW54367  12.490  10.329   2.109
84157SOL    HW154368  12.526  10.251   2.152
84157SOL    HW254369  12.476  10.302   2.019
84158SOL     OW54370   8.160  13.861   9.752
84158SOL    HW154371   8.252  13.841   9.733
84158SOL    HW254372   8.142  13.941   9.704
84159SOL     OW54373   6.745   6.653   9.862
84159SOL    HW154374   6.830   6.644   9.906
84159SOL    HW254375   6.756   6.608   9.778
84160SOL     OW54376  14.344   4.671   9.270
84160SOL    HW154377  14.425   4.623   9.254
84160SOL    HW254378  14.343   4.739   9.202
84161SOL     OW54379   2.685  10.325   1.636
84161SOL    HW154380   2.692  10.244   1.686
84161SOL    HW254381   2.598  10.322   1.597
84162SOL     OW54382   2.813   3.215   6.726
84162SOL    HW154383   2.799   3.281   6.793
84162SOL    HW254384   2.856   3.143   6.771
84163SOL     OW54385   5.535   7.140  13.982
84163SOL    HW154386   5.545   7.142  14.077
84163SOL    HW254387   5.441   7.128  13.968
84164SOL     OW54388   7.455   8.577  14.654
84164SOL    HW154389   7.535   8.530  14.629
84164SOL    HW254390   7.486   8.651  14.705
84165SOL     OW54391  10.717   9.453  11.964
84165SOL    HW154392  10.628   9.437  11.933
84165SOL    HW254393  10.770   9.452  11.884
84166SOL     OW54394   3.694  12.702  14.014
84166SOL    HW154395   3.777  12.710  14.061
84166SOL    HW254396   3.652  12.624  14.053
84167SOL     OW54397   8.288   4.319   5.728
84167SOL    HW154398   8.264   4.287   5.815
84167SOL    HW254399   8.333   4.245   5.687
84168SOL     OW54400   8.712  10.311   3.463
84168SOL    HW154401   8.707  10.355   3.378
84168SOL    HW254402   8.623  10.316   3.497
84169SOL     OW54403   6.854   5.611   6.124
84169SOL    HW154404   6.844   5.679   6.190
84169SOL    HW254405   6.918   5.647   6.062
84170SOL     OW54406  13.799  14.250   4.629
84170SOL    HW154407  13.764  14.235   4.716
84170SOL    HW254408  13.877  14.194   4.624
84171SOL     OW54409   8.524   4.032   0.317
84171SOL    HW154410   8.614   4.048   0.347
84171SOL    HW254411   8.478   4.005   0.396
84172SOL     OW54412   2.860   5.004   7.590
84172SOL    HW154413   2.949   4.980   7.564
84172SOL    HW254414   2.871   5.043   7.677
84173SOL     OW54415   8.579  13.731  12.631
84173SOL    HW154416   8.597  13.811  12.680
84173SOL    HW254417   8.582  13.662  12.696
84174SOL     OW54418  13.895   3.772   8.093
84174SOL    HW154419  13.986   3.756   8.070
84174SOL    HW254420  13.897   3.813   8.179
84175SOL     OW54421  11.948   5.504   3.608
84175SOL    HW154422  11.927   5.519   3.700
84175SOL    HW254423  12.035   5.543   3.596
84176SOL     OW54424  13.924   8.485   8.466
84176SOL    HW154425  13.867   8.558   8.488
84176SOL    HW254426  13.904   8.418   8.532
84177SOL     OW54427  13.383   0.730   2.632
84177SOL    HW154428  13.369   0.690   2.546
84177SOL    HW254429  13.379   0.657   2.694
84178SOL     OW54430   0.296  11.472   8.776
84178SOL    HW154431   0.377  11.471   8.725
84178SOL    HW254432   0.267  11.381   8.777
84179SOL     OW54433   4.256   7.899  10.008
84179SOL    HW154434   4.276   7.845   9.932
84179SOL    HW254435   4.335   7.894  10.062
84180SOL     OW54436   5.398   3.447  13.950
84180SOL    HW154437   5.430   3.364  13.914
84180SOL    HW254438   5.307   3.453  13.920
84181SOL     OW54439  14.678   6.578   6.831
84181SOL    HW154440  14.623   6.627   6.892
84181SOL    HW254441  14.717   6.645   6.775
84182SOL     OW54442   6.243   9.472   2.867
84182SOL    HW154443   6.284   9.508   2.946
84182SOL    HW254444   6.154   9.451   2.893
84183SOL     OW54445   7.963   1.198   5.190
84183SOL    HW154446   7.884   1.153   5.218
84183SOL    HW254447   7.941   1.236   5.106
84184SOL     OW54448   9.190   7.246  12.340
84184SOL    HW154449   9.139   7.307  12.286
84184SOL    HW254450   9.147   7.248  12.426
84185SOL     OW54451  14.025  12.277   3.479
84185SOL    HW154452  14.073  12.349   3.438
84185SOL    HW254453  14.094  12.219   3.512
84186SOL     OW54454   5.187   3.611   6.858
84186SOL    HW154455   5.175   3.516   6.855
84186SOL    HW254456   5.209   3.630   6.949
84187SOL     OW54457  13.677   5.612   5.496
84187SOL    HW154458  13.730   5.587   5.571
84187SOL    HW254459  13.628   5.532   5.473
84188SOL     OW54460   1.375   4.097   4.052
84188SOL    HW154461   1.317   4.103   4.127
84188SOL    HW254462   1.318   4.103   3.976
84189SOL     OW54463   2.200   2.700  14.060
84189SOL    HW154464   2.242   2.624  14.101
84189SOL    HW254465   2.112   2.668  14.037
84190SOL     OW54466   4.235   9.705   5.199
84190SOL    HW154467   4.140   9.718   5.203
84190SOL    HW254468   4.257   9.660   5.280
84191SOL     OW54469   0.285   3.093   3.747
84191SOL    HW154470   0.278   3.160   3.679
84191SOL    HW254471   0.200   3.050   3.747
84192SOL     OW54472   6.935   4.178  12.404
84192SOL    HW154473   6.878   4.118  12.356
84192SOL    HW254474   6.991   4.121  12.457
84193SOL     OW54475  14.001  12.455   9.244
84193SOL    HW154476  13.983  12.548   9.232
84193SOL    HW254477  13.986  12.440   9.337
84194SOL     OW54478  11.450  14.847  13.154
84194SOL    HW154479  11.538  14.844  13.192
84194SOL    HW254480  11.434  14.758  13.124
84195SOL     OW54481   3.697  13.416   5.594
84195SOL    HW154482   3.757  13.344   5.615
84195SOL    HW254483   3.616  13.372   5.566
84196SOL     OW54484   7.164   1.178   5.395
84196SOL    HW154485   7.137   1.092   5.363
84196SOL    HW254486   7.194   1.162   5.484
84197SOL     OW54487  14.807   1.046   2.062
84197SOL    HW154488  14.837   0.960   2.091
84197SOL    HW254489  14.712   1.037   2.057
84198SOL     OW54490   0.609  13.813   7.478
84198SOL    HW154491   0.593  13.745   7.544
84198SOL    HW254492   0.704  13.814   7.468
84199SOL     OW54493  14.232  12.228   1.079
84199SOL    HW154494  14.310  12.194   1.036
84199SOL    HW254495  14.251  12.223   1.172
84200SOL     OW54496   3.074  13.776  11.245
84200SOL    HW154497   2.988  13.797  11.281
84200SOL    HW254498   3.113  13.716  11.308
84201SOL     OW54499   7.038  10.130  10.141
84201SOL    HW154500   7.117  10.180  10.120
84201SOL    HW254501   7.053  10.043  10.105
84202SOL     OW54502   9.930  13.129   3.086
84202SOL    HW154503   9.929  13.197   3.154
84202SOL    HW254504   9.883  13.168   3.012
84203SOL     OW54505   9.180   1.489  12.267
84203SOL    HW154506   9.164   1.461  12.357
84203SOL    HW254507   9.102   1.540  12.244
84204SOL     OW54508   0.586   2.836  11.251
84204SOL    HW154509   0.679   2.846  11.275
84204SOL    HW254510   0.571   2.904  11.185
84205SOL     OW54511   3.352   3.212  12.541
84205SOL    HW154512   3.273   3.225  12.592
84205SOL    HW254513   3.366   3.118  12.541
84206SOL     OW54514  10.366  12.518   4.678
84206SOL    HW154515  10.366  12.563   4.594
84206SOL    HW254516  10.290  12.554   4.724
84207SOL     OW54517   6.666  10.125   8.482
84207SOL    HW154518   6.720  10.061   8.529
84207SOL    HW254519   6.585  10.130   8.533
84208SOL     OW54520  14.352   5.535   7.046
84208SOL    HW154521  14.420   5.601   7.029
84208SOL    HW254522  14.362   5.471   6.976
84209SOL     OW54523  10.657   1.022   4.476
84209SOL    HW154524  10.668   1.016   4.381
84209SOL    HW254525  10.564   1.043   4.489
84210SOL     OW54526  11.611   5.643   2.713
84210SOL    HW154527  11.642   5.724   2.672
84210SOL    HW254528  11.530   5.622   2.668
84211SOL     OW54529   7.208  10.685  10.034
84211SOL    HW154530   7.200  10.699   9.939
84211SOL    HW254531   7.191  10.771  10.072
84212SOL     OW54532   6.839   5.142   1.746
84212SOL    HW154533   6.756   5.186   1.766
84212SOL    HW254534   6.864   5.100   1.828
84213SOL     OW54535  11.041   5.551  10.958
84213SOL    HW154536  10.973   5.550  11.026
84213SOL    HW254537  11.121   5.577  11.004
84214SOL     OW54538  10.665   5.545  13.470
84214SOL    HW154539  10.729   5.518  13.535
84214SOL    HW254540  10.655   5.470  13.412
84215SOL     OW54541   0.172   9.014   8.622
84215SOL    HW154542   0.145   8.923   8.620
84215SOL    HW254543   0.258   9.013   8.664
84216SOL     OW54544   8.586  10.595   8.249
84216SOL    HW154545   8.518  10.649   8.290
84216SOL    HW254546   8.643  10.568   8.321
84217SOL     OW54547   2.821   8.650   8.776
84217SOL    HW154548   2.836   8.736   8.736
84217SOL    HW254549   2.762   8.606   8.715
84218SOL     OW54550   3.573  12.036   6.430
84218SOL    HW154551   3.536  11.952   6.403
84218SOL    HW254552   3.516  12.066   6.501
84219SOL     OW54553   3.531  11.177   7.209
84219SOL    HW154554   3.443  11.178   7.171
84219SOL    HW254555   3.537  11.094   7.256
84220SOL     OW54556   1.145   3.433   3.129
84220SOL    HW154557   1.214   3.471   3.183
84220SOL    HW254558   1.191   3.384   3.061
84221SOL     OW54559  10.602   1.591  10.256
84221SOL    HW154560  10.627   1.499  10.266
84221SOL    HW254561  10.678   1.631  10.213
84222SOL     OW54562   7.857  10.465   9.401
84222SOL    HW154563   7.866  10.382   9.354
84222SOL    HW254564   7.895  10.530   9.341
84223SOL     OW54565   2.308  12.517  10.464
84223SOL    HW154566   2.379  12.492  10.404
84223SOL    HW254567   2.249  12.570  10.410
84224SOL     OW54568   8.819  10.855   2.812
84224SOL    HW154569   8.726  10.856   2.790
84224SOL    HW254570   8.835  10.767   2.847
84225SOL     OW54571  10.949   0.305   8.707
84225SOL    HW154572  10.855   0.322   8.697
84225SOL    HW254573  10.962   0.300   8.802
84226SOL     OW54574   8.053   1.257   7.417
84226SOL    HW154575   8.004   1.176   7.399
84226SOL    HW254576   8.113   1.266   7.343
84227SOL     OW54577   0.543  11.456  14.499
84227SOL    HW154578   0.562  11.455  14.405
84227SOL    HW254579   0.467  11.398  14.509
84228SOL     OW54580   9.474  10.066  10.931
84228SOL    HW154581   9.450  10.055  10.839
84228SOL    HW254582   9.527  10.146  10.933
84229SOL     OW54583   8.043   4.976  13.283
84229SOL    HW154584   8.048   5.055  13.337
84229SOL    HW254585   7.994   5.003  13.206
84230SOL     OW54586  11.397   3.408  14.600
84230SOL    HW154587  11.490   3.392  14.615
84230SOL    HW254588  11.385   3.500  14.623
84231SOL     OW54589   4.629   2.082  13.361
84231SOL    HW154590   4.712   2.108  13.401
84231SOL    HW254591   4.614   1.993  13.393
84232SOL     OW54592  13.910  13.510   0.025
84232SOL    HW154593  13.917  13.477  14.816
84232SOL    HW254594  13.969  13.585   0.027
84233SOL     OW54595  14.309   0.236   9.796
84233SOL    HW154596  14.255   0.277   9.863
84233SOL    HW254597  14.247   0.203   9.732
84234SOL     OW54598  13.155  13.598  12.228
84234SOL    HW154599  13.139  13.673  12.171
84234SOL    HW254600  13.157  13.636  12.316
84235SOL     OW54601  11.201   4.262  12.947
84235SOL    HW154602  11.136   4.240  13.013
84235SOL    HW254603  11.280   4.284  12.997
84236SOL     OW54604   8.349   8.250  10.368
84236SOL    HW154605   8.325   8.199  10.291
84236SOL    HW254606   8.444   8.240  10.376
84237SOL     OW54607  13.675  14.672  14.398
84237SOL    HW154608  13.668  14.576  14.401
84237SOL    HW254609  13.617  14.702  14.469
84238SOL     OW54610   1.110   3.373  13.027
84238SOL    HW154611   1.059   3.426  13.088
84238SOL    HW254612   1.105   3.284  13.062
84239SOL     OW54613  12.930   8.922   4.226
84239SOL    HW154614  12.945   8.875   4.308
84239SOL    HW254615  12.939   9.014   4.249
84240SOL     OW54616  14.191  14.580   1.732
84240SOL    HW154617  14.124  14.534   1.682
84240SOL    HW254618  14.142  14.641   1.788
84241SOL     OW54619  14.061   7.797   8.903
84241SOL    HW154620  13.992   7.760   8.958
84241SOL    HW254621  14.038   7.890   8.895
84242SOL     OW54622   8.492  12.769   9.005
84242SOL    HW154623   8.501  12.692   9.060
84242SOL    HW254624   8.409  12.757   8.959
84243SOL     OW54625   9.367  14.111  13.632
84243SOL    HW154626   9.294  14.051  13.617
84243SOL    HW254627   9.407  14.082  13.714
84244SOL     OW54628  11.556   1.255  10.756
84244SOL    HW154629  11.643   1.219  10.770
84244SOL    HW254630  11.534   1.230  10.666
84245SOL     OW54631  14.254   5.145   0.379
84245SOL    HW154632  14.192   5.102   0.437
84245SOL    HW254633  14.330   5.087   0.377
84246SOL     OW54634  12.321   5.073  13.882
84246SOL    HW154635  12.230   5.100  13.893
84246SOL    HW254636  12.351   5.122  13.805
84247SOL     OW54637   9.517   4.343   9.352
84247SOL    HW154638   9.544   4.428   9.317
84247SOL    HW254639   9.424   4.354   9.372
84248SOL     OW54640   4.091   8.885  14.203
84248SOL    HW154641   4.153   8.909  14.272
84248SOL    HW254642   4.089   8.789  14.205
84249SOL     OW54643  11.272   4.838  10.969
84249SOL    HW154644  11.315   4.753  10.977
84249SOL    HW254645  11.341   4.895  10.933
84250SOL     OW54646   3.976   9.363   4.948
84250SOL    HW154647   3.986   9.385   4.855
84250SOL    HW254648   3.963   9.447   4.992
84251SOL     OW54649   3.127  13.055   5.867
84251SOL    HW154650   3.133  12.980   5.808
84251SOL    HW254651   3.068  13.116   5.822
84252SOL     OW54652   2.240   8.590   5.053
84252SOL    HW154653   2.250   8.679   5.088
84252SOL    HW254654   2.149   8.586   5.023
84253SOL     OW54655   8.571  11.110   8.545
84253SOL    HW154656   8.502  11.144   8.602
84253SOL    HW254657   8.547  11.143   8.458
84254SOL     OW54658   2.193   0.490   6.937
84254SOL    HW154659   2.156   0.461   7.021
84254SOL    HW254660   2.180   0.415   6.878
84255SOL     OW54661  12.342   4.240  13.280
84255SOL    HW154662  12.327   4.335  13.277
84255SOL    HW254663  12.345   4.220  13.374
84256SOL     OW54664   2.628  13.799  12.397
84256SOL    HW154665   2.698  13.765  12.454
84256SOL    HW254666   2.578  13.857  12.454
84257SOL     OW54667   5.693   9.884   7.052
84257SOL    HW154668   5.729   9.830   7.123
84257SOL    HW254669   5.725   9.972   7.071
84258SOL     OW54670   0.769   9.869   9.729
84258SOL    HW154671   0.723   9.937   9.679
84258SOL    HW254672   0.761   9.896   9.820
84259SOL     OW54673   6.395  10.183   9.595
84259SOL    HW154674   6.303  10.202   9.612
84259SOL    HW254675   6.419  10.121   9.663
84260SOL     OW54676   2.353   9.170   0.380
84260SOL    HW154677   2.284   9.135   0.435
84260SOL    HW254678   2.320   9.159   0.290
84261SOL     OW54679   9.672   6.114   4.758
84261SOL    HW154680   9.589   6.117   4.710
84261SOL    HW254681   9.646   6.113   4.850
84262SOL     OW54682   1.359   5.302   6.169
84262SOL    HW154683   1.434   5.244   6.161
84262SOL    HW254684   1.313   5.271   6.247
84263SOL     OW54685   2.129  10.195  13.014
84263SOL    HW154686   2.162  10.275  12.972
84263SOL    HW254687   2.085  10.226  13.093
84264SOL     OW54688   5.300   9.124  13.064
84264SOL    HW154689   5.338   9.096  12.980
84264SOL    HW254690   5.269   9.042  13.104
84265SOL     OW54691   4.835   5.749  11.177
84265SOL    HW154692   4.796   5.828  11.213
84265SOL    HW254693   4.844   5.767  11.084
84266SOL     OW54694  13.172  10.663   6.496
84266SOL    HW154695  13.106  10.596   6.511
84266SOL    HW254696  13.123  10.744   6.484
84267SOL     OW54697  10.217   6.530   6.508
84267SOL    HW154698  10.165   6.493   6.437
84267SOL    HW254699  10.303   6.544   6.470
84268SOL     OW54700   8.742   6.039  13.599
84268SOL    HW154701   8.730   5.971  13.533
84268SOL    HW254702   8.737   5.993  13.683
84269SOL     OW54703   9.078   3.261   6.197
84269SOL    HW154704   9.066   3.173   6.161
84269SOL    HW254705   8.994   3.282   6.238
84270SOL     OW54706   4.011  14.375  12.621
84270SOL    HW154707   4.080  14.363  12.556
84270SOL    HW254708   3.978  14.287  12.637
84271SOL     OW54709   7.845  10.961   9.341
84271SOL    HW154710   7.885  11.041   9.308
84271SOL    HW254711   7.885  10.947   9.427
84272SOL     OW54712  13.414   5.415   3.836
84272SOL    HW154713  13.433   5.451   3.749
84272SOL    HW254714  13.484   5.352   3.851
84273SOL     OW54715   7.252   7.247   3.892
84273SOL    HW154716   7.238   7.302   3.969
84273SOL    HW254717   7.222   7.301   3.819
84274SOL     OW54718  14.235   4.249   2.702
84274SOL    HW154719  14.306   4.188   2.686
84274SOL    HW254720  14.236   4.264   2.796
84275SOL     OW54721   2.958  12.829  14.728
84275SOL    HW154722   3.026  12.893  14.707
84275SOL    HW254723   3.001  12.769  14.789
84276SOL     OW54724   4.514   2.661  14.382
84276SOL    HW154725   4.569   2.650  14.304
84276SOL    HW254726   4.486   2.753  14.379
84277SOL     OW54727   4.392  11.638   5.545
84277SOL    HW154728   4.390  11.732   5.524
84277SOL    HW254729   4.478  11.609   5.515
84278SOL     OW54730  13.570   8.126   1.364
84278SOL    HW154731  13.504   8.101   1.300
84278SOL    HW254732  13.535   8.096   1.448
84279SOL     OW54733   6.751   1.925   4.677
84279SOL    HW154734   6.764   2.011   4.717
84279SOL    HW254735   6.831   1.876   4.699
84280SOL     OW54736  13.398   6.205  14.323
84280SOL    HW154737  13.369   6.115  14.305
84280SOL    HW254738  13.397   6.212  14.419
84281SOL     OW54739   7.105  14.398   6.090
84281SOL    HW154740   7.134  14.376   6.179
84281SOL    HW254741   7.014  14.427   6.102
84282SOL     OW54742   3.306   9.595   7.412
84282SOL    HW154743   3.224   9.565   7.450
84282SOL    HW254744   3.363   9.518   7.413
84283SOL     OW54745  13.174   0.535   5.571
84283SOL    HW154746  13.095   0.493   5.535
84283SOL    HW254747  13.172   0.515   5.664
84284SOL     OW54748   2.995  13.360   9.673
84284SOL    HW154749   3.077  13.370   9.625
84284SOL    HW254750   2.980  13.446   9.713
84285SOL     OW54751   0.666  10.221   6.241
84285SOL    HW154752   0.580  10.228   6.201
84285SOL    HW254753   0.727  10.232   6.169
84286SOL     OW54754   2.697   1.221  10.890
84286SOL    HW154755   2.692   1.179  10.976
84286SOL    HW254756   2.606   1.234  10.864
84287SOL     OW54757  14.807  14.779   0.339
84287SOL    HW154758  14.766  14.762   0.255
84287SOL    HW254759   0.017  14.800   0.318
84288SOL     OW54760   1.334   0.450   0.270
84288SOL    HW154761   1.362   0.524   0.323
84288SOL    HW254762   1.310   0.383   0.333
84289SOL     OW54763  10.184  14.298  10.064
84289SOL    HW154764  10.162  14.205  10.053
84289SOL    HW254765  10.129  14.343  10.000
84290SOL     OW54766   8.080  10.164   2.427
84290SOL    HW154767   7.990  10.162   2.395
84290SOL    HW254768   8.076  10.213   2.509
84291SOL     OW54769   7.064   4.769   9.572
84291SOL    HW154770   7.130   4.825   9.531
84291SOL    HW254771   7.115   4.703   9.620
84292SOL     OW54772  10.984  12.611   4.657
84292SOL    HW154773  11.022  12.684   4.609
84292SOL    HW254774  10.906  12.648   4.699
84293SOL     OW54775   9.107   7.063  12.827
84293SOL    HW154776   9.125   7.119  12.753
84293SOL    HW254777   9.190   7.058  12.875
84294SOL     OW54778   4.972   9.093   9.949
84294SOL    HW154779   4.903   9.104   9.885
84294SOL    HW254780   4.984   8.998   9.956
84295SOL     OW54781  10.060  10.541  14.117
84295SOL    HW154782  10.122  10.600  14.161
84295SOL    HW254783  10.006  10.506  14.189
84296SOL     OW54784  13.452  13.077  14.226
84296SOL    HW154785  13.465  13.170  14.242
84296SOL    HW254786  13.380  13.052  14.284
84297SOL     OW54787  14.361   6.989   3.374
84297SOL    HW154788  14.295   7.039   3.422
84297SOL    HW254789  14.443   7.005   3.422
84298SOL     OW54790   1.599   8.308   8.054
84298SOL    HW154791   1.675   8.350   8.093
84298SOL    HW254792   1.618   8.303   7.961
84299SOL     OW54793   1.475  14.473   0.648
84299SOL    HW154794   1.428  14.397   0.683
84299SOL    HW254795   1.560  14.438   0.621
84300SOL     OW54796   2.399   6.577  13.633
84300SOL    HW154797   2.474   6.629  13.605
84300SOL    HW254798   2.328   6.641  13.642
84301SOL     OW54799   9.046   1.037  13.979
84301SOL    HW154800   8.971   1.054  14.036
84301SOL    HW254801   9.010   1.038  13.890
84302SOL     OW54802  11.792   9.167  11.939
84302SOL    HW154803  11.851   9.140  12.010
84302SOL    HW254804  11.764   9.085  11.899
84303SOL     OW54805   7.534   7.462  14.538
84303SOL    HW154806   7.505   7.377  14.571
84303SOL    HW254807   7.505   7.464  14.447
84304SOL     OW54808   7.867   3.139  12.456
84304SOL    HW154809   7.795   3.201  12.464
84304SOL    HW254810   7.861   3.105  12.367
84305SOL     OW54811  14.475  11.417  11.339
84305SOL    HW154812  14.421  11.495  11.354
84305SOL    HW254813  14.554  11.450  11.298
84306SOL     OW54814   1.619   5.640  10.680
84306SOL    HW154815   1.631   5.570  10.616
84306SOL    HW254816   1.637   5.598  10.764
84307SOL     OW54817   7.880  12.407   2.101
84307SOL    HW154818   7.962  12.445   2.132
84307SOL    HW254819   7.843  12.365   2.179
84308SOL     OW54820   7.303   1.905  14.199
84308SOL    HW154821   7.283   1.846  14.127
84308SOL    HW254822   7.328   1.987  14.157
84309SOL     OW54823   2.143   8.871  13.103
84309SOL    HW154824   2.224   8.859  13.053
84309SOL    HW254825   2.152   8.813  13.178
84310SOL     OW54826  14.009  12.866   0.231
84310SOL    HW154827  13.981  12.945   0.277
84310SOL    HW254828  14.092  12.891   0.190
84311SOL     OW54829   6.816   2.050  10.350
84311SOL    HW154830   6.798   1.985  10.419
84311SOL    HW254831   6.732   2.093  10.336
84312SOL     OW54832  13.597  10.907  14.815
84312SOL    HW154833  13.668  10.960  14.852
84312SOL    HW254834  13.597  10.828  14.868
84313SOL     OW54835   3.122   0.461   1.960
84313SOL    HW154836   3.065   0.525   1.919
84313SOL    HW254837   3.085   0.376   1.936
84314SOL     OW54838   1.711   3.761  10.056
84314SOL    HW154839   1.707   3.832   9.992
84314SOL    HW254840   1.620   3.736  10.072
84315SOL     OW54841   4.653   6.135   8.221
84315SOL    HW154842   4.655   6.229   8.243
84315SOL    HW254843   4.561   6.118   8.201
84316SOL     OW54844   8.532   8.756  10.490
84316SOL    HW154845   8.549   8.721  10.402
84316SOL    HW254846   8.471   8.828  10.475
84317SOL     OW54847   3.010   5.110  13.079
84317SOL    HW154848   3.052   5.064  13.006
84317SOL    HW254849   2.918   5.082  13.075
84318SOL     OW54850   1.710  11.344   4.120
84318SOL    HW154851   1.794  11.337   4.075
84318SOL    HW254852   1.690  11.438   4.121
84319SOL     OW54853   6.270   4.521   6.710
84319SOL    HW154854   6.299   4.606   6.676
84319SOL    HW254855   6.245   4.471   6.633
84320SOL     OW54856   7.355  13.368   6.516
84320SOL    HW154857   7.270  13.327   6.498
84320SOL    HW254858   7.390  13.318   6.590
84321SOL     OW54859   0.701  12.007  13.335
84321SOL    HW154860   0.768  11.938  13.338
84321SOL    HW254861   0.645  11.989  13.410
84322SOL     OW54862   9.367   0.976   6.671
84322SOL    HW154863   9.300   1.012   6.613
84322SOL    HW254864   9.433   1.045   6.676
84323SOL     OW54865   2.678   7.476   0.151
84323SOL    HW154866   2.767   7.455   0.181
84323SOL    HW254867   2.664   7.416   0.077
84324SOL     OW54868  11.780   7.134   1.866
84324SOL    HW154869  11.841   7.205   1.885
84324SOL    HW254870  11.833   7.054   1.876
84325SOL     OW54871   8.490  11.898  10.592
84325SOL    HW154872   8.446  11.849  10.661
84325SOL    HW254873   8.560  11.945  10.637
84326SOL     OW54874   1.912  10.274   7.724
84326SOL    HW154875   1.983  10.210   7.728
84326SOL    HW254876   1.861  10.258   7.803
84327SOL     OW54877   0.687  13.346  14.748
84327SOL    HW154878   0.748  13.380  14.682
84327SOL    HW254879   0.677  13.253  14.725
84328SOL     OW54880  14.503   4.315  14.812
84328SOL    HW154881  14.472   4.258   0.002
84328SOL    HW254882  14.583   4.355  14.846
84329SOL     OW54883   3.753  10.756   8.850
84329SOL    HW154884   3.690  10.687   8.869
84329SOL    HW254885   3.824  10.713   8.803
84330SOL     OW54886  11.455  11.375  14.018
84330SOL    HW154887  11.521  11.384  13.949
84330SOL    HW254888  11.494  11.315  14.081
84331SOL     OW54889  10.262   6.740  10.302
84331SOL    HW154890  10.254   6.776  10.390
84331SOL    HW254891  10.342   6.686  10.305
84332SOL     OW54892   9.538   3.530  10.761
84332SOL    HW154893   9.608   3.592  10.780
84332SOL    HW254894   9.579   3.444  10.769
84333SOL     OW54895  14.663  13.324   6.048
84333SOL    HW154896  14.600  13.314   5.977
84333SOL    HW254897  14.628  13.395   6.101
84334SOL     OW54898   1.273  11.489  12.751
84334SOL    HW154899   1.281  11.445  12.666
84334SOL    HW254900   1.360  11.523  12.769
84335SOL     OW54901   2.670   3.059  14.468
84335SOL    HW154902   2.637   2.971  14.487
84335SOL    HW254903   2.765   3.051  14.479
84336SOL     OW54904  14.647   6.015   8.645
84336SOL    HW154905  14.628   6.093   8.593
84336SOL    HW254906  14.588   5.948   8.609
84337SOL     OW54907  13.632   7.881  14.072
84337SOL    HW154908  13.570   7.948  14.044
84337SOL    HW254909  13.716   7.925  14.075
84338SOL     OW54910   3.437   4.492   5.307
84338SOL    HW154911   3.363   4.529   5.356
84338SOL    HW254912   3.490   4.569   5.284
84339SOL     OW54913  13.473  11.347   8.878
84339SOL    HW154914  13.499  11.439   8.867
84339SOL    HW254915  13.385  11.351   8.916
84340SOL     OW54916   6.041   6.470  13.811
84340SOL    HW154917   6.036   6.413  13.734
84340SOL    HW254918   6.105   6.428  13.868
84341SOL     OW54919   7.773   0.317  14.572
84341SOL    HW154920   7.831   0.341  14.644
84341SOL    HW254921   7.824   0.336  14.493
84342SOL     OW54922   2.396   2.489  10.048
84342SOL    HW154923   2.410   2.507  10.141
84342SOL    HW254924   2.318   2.539  10.024
84343SOL     OW54925  14.373  14.219   9.478
84343SOL    HW154926  14.372  14.293   9.539
84343SOL    HW254927  14.455  14.174   9.497
84344SOL     OW54928  12.949  11.753  11.970
84344SOL    HW154929  12.954  11.679  11.910
84344SOL    HW254930  12.925  11.715  12.054
84345SOL     OW54931  10.586  12.371   7.097
84345SOL    HW154932  10.499  12.402   7.120
84345SOL    HW254933  10.623  12.441   7.043
84346SOL     OW54934  11.834   1.249   5.565
84346SOL    HW154935  11.740   1.258   5.553
84346SOL    HW254936  11.844   1.168   5.615
84347SOL     OW54937  13.463   0.197   9.998
84347SOL    HW154938  13.384   0.230  10.040
84347SOL    HW254939  13.530   0.261  10.021
84348SOL     OW54940   4.765   3.474   5.213
84348SOL    HW154941   4.840   3.532   5.229
84348SOL    HW254942   4.711   3.483   5.291
84349SOL     OW54943   7.725   8.123  14.178
84349SOL    HW154944   7.678   8.138  14.261
84349SOL    HW254945   7.664   8.154  14.111
84350SOL     OW54946  12.583   5.318   0.435
84350SOL    HW154947  12.535   5.400   0.422
84350SOL    HW254948  12.656   5.323   0.374
84351SOL     OW54949  14.762  14.437   1.290
84351SOL    HW154950  14.742  14.483   1.209
84351SOL    HW254951  14.676  14.413   1.326
84352SOL     OW54952  13.820   8.897   9.880
84352SOL    HW154953  13.885   8.939   9.825
84352SOL    HW254954  13.738   8.943   9.859
84353SOL     OW54955   3.948   4.293  13.965
84353SOL    HW154956   3.929   4.206  13.999
84353SOL    HW254957   3.909   4.352  14.030
84354SOL     OW54958   1.458  12.511   0.439
84354SOL    HW154959   1.488  12.442   0.499
84354SOL    HW254960   1.505  12.589   0.468
84355SOL     OW54961  11.196   1.684  13.752
84355SOL    HW154962  11.174   1.777  13.757
84355SOL    HW254963  11.184   1.661  13.660
84356SOL     OW54964   6.503   9.003   9.997
84356SOL    HW154965   6.483   9.030  10.086
84356SOL    HW254966   6.433   9.040   9.944
84357SOL     OW54967   0.527   5.459   6.719
84357SOL    HW154968   0.494   5.369   6.716
84357SOL    HW254969   0.504   5.496   6.633
84358SOL     OW54970  13.974  11.924   6.195
84358SOL    HW154971  13.895  11.885   6.156
84358SOL    HW254972  13.987  11.874   6.275
84359SOL     OW54973  12.596   8.668   4.018
84359SOL    HW154974  12.646   8.593   3.986
84359SOL    HW254975  12.657   8.712   4.078
84360SOL     OW54976  11.796  14.007   8.789
84360SOL    HW154977  11.840  14.077   8.740
84360SOL    HW254978  11.723  13.981   8.732
84361SOL     OW54979   1.273   0.753   1.339
84361SOL    HW154980   1.315   0.690   1.398
84361SOL    HW254981   1.309   0.838   1.365
84362SOL     OW54982   8.879   4.829   1.812
84362SOL    HW154983   8.926   4.785   1.741
84362SOL    HW254984   8.926   4.802   1.892
84363SOL     OW54985   5.879   6.148   3.499
84363SOL    HW154986   5.969   6.169   3.522
84363SOL    HW254987   5.880   6.138   3.404
84364SOL     OW54988   3.669   0.276   6.557
84364SOL    HW154989   3.725   0.309   6.628
84364SOL    HW254990   3.586   0.254   6.600
84365SOL     OW54991   1.539  13.007  12.967
84365SOL    HW154992   1.507  12.956  13.042
84365SOL    HW254993   1.545  12.943  12.896
84366SOL     OW54994   3.361  14.567   0.835
84366SOL    HW154995   3.296  14.498   0.826
84366SOL    HW254996   3.437  14.523   0.873
84367SOL     OW54997   5.221   2.487   7.886
84367SOL    HW154998   5.170   2.555   7.929
84367SOL    HW254999   5.171   2.406   7.899
84368SOL     OW55000  10.252  11.122   2.204
84368SOL    HW155001  10.208  11.172   2.273
84368SOL    HW255002  10.251  11.032   2.235
84369SOL     OW55003   2.655  14.617   0.035
84369SOL    HW155004   2.613  14.551  14.860
84369SOL    HW255005   2.682  14.569   0.113
84370SOL     OW55006   3.272  11.772   9.377
84370SOL    HW155007   3.290  11.684   9.343
84370SOL    HW255008   3.281  11.829   9.301
84371SOL     OW55009   7.694   8.434  14.543
84371SOL    HW155010   7.710   8.346  14.508
84371SOL    HW255011   7.782   8.470  14.557
84372SOL     OW55012   9.846   2.748   4.463
84372SOL    HW155013   9.796   2.830   4.469
84372SOL    HW255014   9.807   2.701   4.390
84373SOL     OW55015   9.397  14.264   8.296
84373SOL    HW155016   9.471  14.252   8.236
84373SOL    HW255017   9.438  14.271   8.382
84374SOL     OW55018  14.506   4.239  10.307
84374SOL    HW155019  14.451   4.164  10.284
84374SOL    HW255020  14.578   4.201  10.358
84375SOL     OW55021   5.367  12.131   8.766
84375SOL    HW155022   5.403  12.103   8.682
84375SOL    HW255023   5.274  12.143   8.750
84376SOL     OW55024   2.198   2.456   2.624
84376SOL    HW155025   2.284   2.488   2.651
84376SOL    HW255026   2.202   2.362   2.636
84377SOL     OW55027   7.116   9.175   4.149
84377SOL    HW155028   7.106   9.111   4.078
84377SOL    HW255029   7.154   9.252   4.106
84378SOL     OW55030   7.248   5.887   5.236
84378SOL    HW155031   7.182   5.879   5.305
84378SOL    HW255032   7.331   5.863   5.278
84379SOL     OW55033  14.540  12.867   8.807
84379SOL    HW155034  14.531  12.848   8.713
84379SOL    HW255035  14.579  12.787   8.843
84380SOL     OW55036  12.008   6.916   3.419
84380SOL    HW155037  12.003   7.009   3.438
84380SOL    HW255038  11.981   6.908   3.328
84381SOL     OW55039   8.828  11.376   4.303
84381SOL    HW155040   8.782  11.292   4.299
84381SOL    HW255041   8.816  11.406   4.392
84382SOL     OW55042   0.167   7.749   3.452
84382SOL    HW155043   0.226   7.675   3.437
84382SOL    HW255044   0.082   7.708   3.470
84383SOL     OW55045  13.859  10.926   4.653
84383SOL    HW155046  13.916  10.943   4.578
84383SOL    HW255047  13.900  10.852   4.699
84384SOL     OW55048  10.450  11.618  10.021
84384SOL    HW155049  10.545  11.633  10.023
84384SOL    HW255050  10.421  11.638  10.110
84385SOL     OW55051   0.119  10.964   2.944
84385SOL    HW155052   0.113  10.880   2.989
84385SOL    HW255053   0.213  10.983   2.940
84386SOL     OW55054  14.080  13.972   9.607
84386SOL    HW155055  14.095  13.881   9.633
84386SOL    HW255056  14.110  13.976   9.516
84387SOL     OW55057  11.702  11.849   6.566
84387SOL    HW155058  11.749  11.913   6.621
84387SOL    HW255059  11.610  11.873   6.576
84388SOL     OW55060  10.758  10.100   7.119
84388SOL    HW155061  10.805  10.068   7.041
84388SOL    HW255062  10.713  10.179   7.088
84389SOL     OW55063   6.813   4.771   4.113
84389SOL    HW155064   6.747   4.838   4.129
84389SOL    HW255065   6.840   4.744   4.201
84390SOL     OW55066  11.735  11.507  12.623
84390SOL    HW155067  11.768  11.530  12.536
84390SOL    HW255068  11.805  11.530  12.683
84391SOL     OW55069   8.934   4.294   1.378
84391SOL    HW155070   8.892   4.310   1.293
84391SOL    HW255071   8.881   4.225   1.417
84392SOL     OW55072  12.470   7.048  14.823
84392SOL    HW155073  12.547   7.052  14.767
84392SOL    HW255074  12.495   7.094   0.022
84393SOL     OW55075   2.122   0.193   0.524
84393SOL    HW155076   2.194   0.159   0.471
84393SOL    HW255077   2.105   0.280   0.489
84394SOL     OW55078   4.416  13.943   5.705
84394SOL    HW155079   4.378  14.030   5.717
84394SOL    HW255080   4.345  13.891   5.667
84395SOL     OW55081  11.850  13.850   4.632
84395SOL    HW155082  11.888  13.888   4.711
84395SOL    HW255083  11.914  13.869   4.563
84396SOL     OW55084   2.544   6.404   1.977
84396SOL    HW155085   2.576   6.329   2.026
84396SOL    HW255086   2.495   6.366   1.904
84397SOL     OW55087   7.289   5.311   3.433
84397SOL    HW155088   7.229   5.382   3.455
84397SOL    HW255089   7.335   5.292   3.514
84398SOL     OW55090   8.978   2.566  14.256
84398SOL    HW155091   9.068   2.555  14.227
84398SOL    HW255092   8.979   2.645  14.309
84399SOL     OW55093  12.202   7.724   6.502
84399SOL    HW155094  12.167   7.786   6.438
84399SOL    HW255095  12.235   7.779   6.573
84400SOL     OW55096   2.597  13.013  12.440
84400SOL    HW155097   2.674  13.062  12.469
84400SOL    HW255098   2.604  12.929  12.483
84401SOL     OW55099  14.840   5.318   4.746
84401SOL    HW155100  14.802   5.268   4.673
84401SOL    HW255101  14.831   5.409   4.720
84402SOL     OW55102   0.566   3.894   0.443
84402SOL    HW155103   0.579   3.946   0.364
84402SOL    HW255104   0.650   3.849   0.457
84403SOL     OW55105   0.702  11.450  14.743
84403SOL    HW155106   0.653  11.491  14.671
84403SOL    HW255107   0.677  11.358  14.740
84404SOL     OW55108  13.353   4.020   3.703
84404SOL    HW155109  13.278   4.070   3.735
84404SOL    HW255110  13.429   4.070   3.732
84405SOL     OW55111   8.097   8.272  11.386
84405SOL    HW155112   8.123   8.216  11.459
84405SOL    HW255113   8.039   8.217  11.333
84406SOL     OW55114   9.251   4.738  13.045
84406SOL    HW155115   9.302   4.729  13.125
84406SOL    HW255116   9.211   4.825  13.052
84407SOL     OW55117   6.920  13.837  14.132
84407SOL    HW155118   6.957  13.895  14.199
84407SOL    HW255119   6.862  13.779  14.180
84408SOL     OW55120  12.221   2.329   2.977
84408SOL    HW155121  12.219   2.422   2.954
84408SOL    HW255122  12.219   2.329   3.073
84409SOL     OW55123  12.128   8.125   6.912
84409SOL    HW155124  12.168   8.125   6.999
84409SOL    HW255125  12.116   8.218   6.892
84410SOL     OW55126   3.599   4.373   5.030
84410SOL    HW155127   3.512   4.399   5.001
84410SOL    HW255128   3.634   4.320   4.959
84411SOL     OW55129   1.948   6.715  13.610
84411SOL    HW155130   1.885   6.704  13.682
84411SOL    HW255131   1.906   6.777  13.551
84412SOL     OW55132  10.377  12.105   2.947
84412SOL    HW155133  10.287  12.111   2.916
84412SOL    HW255134  10.382  12.019   2.989
84413SOL     OW55135   9.352   2.388   1.063
84413SOL    HW155136   9.358   2.428   1.150
84413SOL    HW255137   9.392   2.452   1.004
84414SOL     OW55138   1.787   3.299  13.415
84414SOL    HW155139   1.799   3.393  13.400
84414SOL    HW255140   1.723   3.273  13.349
84415SOL     OW55141  14.795   2.390  14.397
84415SOL    HW155142  14.738   2.454  14.355
84415SOL    HW255143  14.867   2.377  14.335
84416SOL     OW55144  14.016  13.916  12.246
84416SOL    HW155145  13.995  13.835  12.198
84416SOL    HW255146  13.932  13.962  12.254
84417SOL     OW55147   3.351  11.409   2.148
84417SOL    HW155148   3.379  11.494   2.115
84417SOL    HW255149   3.267  11.392   2.104
84418SOL     OW55150   7.949  14.740  11.271
84418SOL    HW155151   7.943  14.649  11.300
84418SOL    HW255152   7.867  14.756  11.225
84419SOL     OW55153  12.307   6.145  12.016
84419SOL    HW155154  12.335   6.143  12.108
84419SOL    HW255155  12.383   6.178  11.968
84420SOL     OW55156   6.448   9.858   7.360
84420SOL    HW155157   6.453   9.833   7.452
84420SOL    HW255158   6.354   9.875   7.345
84421SOL     OW55159  10.813   3.091  13.951
84421SOL    HW155160  10.813   3.093  13.856
84421SOL    HW255161  10.778   3.177  13.977
84422SOL     OW55162   5.127  10.370   5.163
84422SOL    HW155163   5.107  10.278   5.178
84422SOL    HW255164   5.215  10.382   5.198
84423SOL     OW55165   3.183   4.971   5.934
84423SOL    HW155166   3.275   4.973   5.906
84423SOL    HW255167   3.154   4.883   5.913
84424SOL     OW55168   8.894   0.236   6.383
84424SOL    HW155169   8.888   0.143   6.360
84424SOL    HW255170   8.983   0.246   6.417
84425SOL     OW55171   0.241  11.346   9.062
84425SOL    HW155172   0.246  11.310   9.151
84425SOL    HW255173   0.295  11.287   9.010
84426SOL     OW55174   6.777   7.468   8.050
84426SOL    HW155175   6.806   7.389   8.095
84426SOL    HW255176   6.848   7.489   7.990
84427SOL     OW55177   0.107  14.042  10.451
84427SOL    HW155178   0.196  14.068  10.470
84427SOL    HW255179   0.081  13.988  10.526
84428SOL     OW55180  14.182  13.753  11.026
84428SOL    HW155181  14.194  13.846  11.006
84428SOL    HW255182  14.150  13.715  10.944
84429SOL     OW55183   1.639   6.178   8.875
84429SOL    HW155184   1.661   6.164   8.967
84429SOL    HW255185   1.706   6.129   8.827
84430SOL     OW55186   0.364  11.592   5.121
84430SOL    HW155187   0.416  11.600   5.041
84430SOL    HW255188   0.307  11.669   5.121
84431SOL     OW55189   7.952  10.963   3.763
84431SOL    HW155190   7.864  11.002   3.759
84431SOL    HW255191   7.941  10.886   3.819
84432SOL     OW55192  10.161   1.332   2.518
84432SOL    HW155193  10.130   1.341   2.608
84432SOL    HW255194  10.123   1.250   2.488
84433SOL     OW55195   2.000  13.630   9.224
84433SOL    HW155196   1.914  13.641   9.265
84433SOL    HW255197   2.062  13.663   9.289
84434SOL     OW55198   6.536   9.756  13.405
84434SOL    HW155199   6.508   9.846  13.386
84434SOL    HW255200   6.502   9.705  13.332
84435SOL     OW55201  12.181  11.552   5.342
84435SOL    HW155202  12.133  11.469   5.341
84435SOL    HW255203  12.225  11.555   5.257
84436SOL     OW55204  12.948   5.537   2.001
84436SOL    HW155205  13.007   5.581   2.062
84436SOL    HW255206  12.978   5.565   1.914
84437SOL     OW55207   5.930   7.925  12.260
84437SOL    HW155208   5.892   7.840  12.236
84437SOL    HW255209   6.018   7.923  12.222
84438SOL     OW55210   9.006   5.951   0.243
84438SOL    HW155211   9.076   5.998   0.198
84438SOL    HW255212   9.050   5.879   0.286
84439SOL     OW55213  11.320   5.450   4.362
84439SOL    HW155214  11.257   5.391   4.402
84439SOL    HW255215  11.331   5.520   4.426
84440SOL     OW55216  14.371  13.283   0.773
84440SOL    HW155217  14.292  13.243   0.810
84440SOL    HW255218  14.443  13.229   0.805
84441SOL     OW55219   0.540   8.455   1.242
84441SOL    HW155220   0.609   8.416   1.188
84441SOL    HW255221   0.582   8.471   1.327
84442SOL     OW55222   3.392  11.406   5.729
84442SOL    HW155223   3.424  11.316   5.736
84442SOL    HW255224   3.303  11.403   5.765
84443SOL     OW55225   7.838   5.923   3.696
84443SOL    HW155226   7.799   6.007   3.719
84443SOL    HW255227   7.810   5.907   3.606
84444SOL     OW55228   7.295   2.628   8.306
84444SOL    HW155229   7.311   2.535   8.292
84444SOL    HW255230   7.382   2.667   8.306
84445SOL     OW55231   7.297  11.370   2.897
84445SOL    HW155232   7.314  11.315   2.973
84445SOL    HW255233   7.353  11.447   2.909
84446SOL     OW55234  13.291   4.281   4.091
84446SOL    HW155235  13.265   4.190   4.077
84446SOL    HW255236  13.248   4.305   4.173
84447SOL     OW55237   4.291   8.051   9.071
84447SOL    HW155238   4.363   8.008   9.118
84447SOL    HW255239   4.212   8.017   9.113
84448SOL     OW55240   0.966   1.237   8.056
84448SOL    HW155241   0.886   1.252   8.005
84448SOL    HW255242   0.970   1.142   8.067
84449SOL     OW55243  11.978  12.937   2.380
84449SOL    HW155244  12.036  12.988   2.324
84449SOL    HW255245  11.974  12.850   2.341
84450SOL     OW55246  13.518   3.828   1.401
84450SOL    HW155247  13.601   3.872   1.384
84450SOL    HW255248  13.541   3.735   1.405
84451SOL     OW55249   9.696   2.035   0.360
84451SOL    HW155250   9.750   1.992   0.294
84451SOL    HW255251   9.757   2.054   0.432
84452SOL     OW55252   9.530  12.775   7.122
84452SOL    HW155253   9.529  12.811   7.034
84452SOL    HW255254   9.454  12.717   7.126
84453SOL     OW55255   6.680  13.511   9.363
84453SOL    HW155256   6.721  13.442   9.415
84453SOL    HW255257   6.589  13.484   9.355
84454SOL     OW55258   0.173   4.482  13.738
84454SOL    HW155259   0.096   4.426  13.732
84454SOL    HW255260   0.170   4.535  13.659
84455SOL     OW55261   6.930   3.493   5.660
84455SOL    HW155262   6.869   3.426   5.689
84455SOL    HW255263   6.995   3.499   5.730
84456SOL     OW55264   4.404   5.335   1.285
84456SOL    HW155265   4.489   5.315   1.247
84456SOL    HW255266   4.368   5.250   1.311
84457SOL     OW55267  13.326   7.193   2.102
84457SOL    HW155268  13.234   7.181   2.076
84457SOL    HW255269  13.372   7.210   2.020
84458SOL     OW55270   4.857   3.845   5.261
84458SOL    HW155271   4.772   3.872   5.294
84458SOL    HW255272   4.852   3.862   5.167
84459SOL     OW55273   3.038   8.195  11.895
84459SOL    HW155274   3.060   8.209  11.803
84459SOL    HW255275   3.054   8.280  11.936
84460SOL     OW55276   2.097   9.458   2.854
84460SOL    HW155277   2.025   9.508   2.893
84460SOL    HW255278   2.173   9.481   2.908
84461SOL     OW55279  13.651   6.778   8.064
84461SOL    HW155280  13.656   6.873   8.075
84461SOL    HW255281  13.738   6.752   8.034
84462SOL     OW55282  11.068   6.547  13.489
84462SOL    HW155283  11.046   6.520  13.578
84462SOL    HW255284  10.983   6.563  13.448
84463SOL     OW55285  13.737   2.344  14.285
84463SOL    HW155286  13.796   2.268  14.288
84463SOL    HW255287  13.655   2.311  14.322
84464SOL     OW55288   6.402   2.264   4.013
84464SOL    HW155289   6.495   2.271   3.995
84464SOL    HW255290   6.377   2.350   4.046
84465SOL     OW55291  13.356   6.299   9.816
84465SOL    HW155292  13.446   6.296   9.848
84465SOL    HW255293  13.318   6.376   9.858
84466SOL     OW55294   7.783   7.127   6.412
84466SOL    HW155295   7.769   7.207   6.463
84466SOL    HW255296   7.862   7.146   6.361
84467SOL     OW55297   0.187   3.575   9.278
84467SOL    HW155298   0.213   3.490   9.244
84467SOL    HW255299   0.216   3.637   9.211
84468SOL     OW55300  14.357  13.986  10.611
84468SOL    HW155301  14.438  14.034  10.626
84468SOL    HW255302  14.288  14.049  10.635
84469SOL     OW55303  11.738   6.367  14.791
84469SOL    HW155304  11.671   6.427  14.761
84469SOL    HW255305  11.692   6.284  14.803
84470SOL     OW55306  10.516   5.790  11.101
84470SOL    HW155307  10.536   5.737  11.179
84470SOL    HW255308  10.451   5.739  11.053
84471SOL     OW55309   4.298   5.501  12.022
84471SOL    HW155310   4.261   5.440  11.958
84471SOL    HW255311   4.237   5.498  12.096
84472SOL     OW55312  12.711   6.665  12.940
84472SOL    HW155313  12.803   6.685  12.922
84472SOL    HW255314  12.706   6.569  12.933
84473SOL     OW55315   5.451  12.129   3.954
84473SOL    HW155316   5.370  12.085   3.982
84473SOL    HW255317   5.422  12.212   3.917
84474SOL     OW55318   3.797   1.671  11.297
84474SOL    HW155319   3.738   1.741  11.326
84474SOL    HW255320   3.757   1.591  11.330
84475SOL     OW55321  14.626   0.050   2.290
84475SOL    HW155322  14.547   0.084   2.332
84475SOL    HW255323  14.598   0.025   2.203
84476SOL     OW55324   7.496   1.810   0.514
84476SOL    HW155325   7.405   1.836   0.501
84476SOL    HW255326   7.533   1.807   0.425
84477SOL     OW55327   5.971   5.994  12.516
84477SOL    HW155328   5.967   6.050  12.594
84477SOL    HW255329   5.888   5.947  12.517
84478SOL     OW55330   9.911   1.937  11.565
84478SOL    HW155331   9.877   1.853  11.594
84478SOL    HW255332   9.969   1.916  11.492
84479SOL     OW55333   8.619  12.862   7.648
84479SOL    HW155334   8.640  12.770   7.637
84479SOL    HW255335   8.529  12.863   7.681
84480SOL     OW55336   5.719   4.902   4.152
84480SOL    HW155337   5.689   4.821   4.193
84480SOL    HW255338   5.709   4.887   4.058
84481SOL     OW55339  13.006   4.198   8.968
84481SOL    HW155340  13.065   4.247   9.025
84481SOL    HW255341  13.015   4.107   8.995
84482SOL     OW55342   1.224  10.599  13.287
84482SOL    HW155343   1.142  10.643  13.262
84482SOL    HW255344   1.198  10.511  13.314
84483SOL     OW55345  10.754   7.760   9.661
84483SOL    HW155346  10.805   7.790   9.586
84483SOL    HW255347  10.685   7.706   9.623
84484SOL     OW55348  12.219  11.141   9.610
84484SOL    HW155349  12.218  11.046   9.615
84484SOL    HW255350  12.251  11.169   9.696
84485SOL     OW55351   5.370  11.391   6.400
84485SOL    HW155352   5.413  11.306   6.408
84485SOL    HW255353   5.299  11.387   6.465
84486SOL     OW55354  10.658   5.114   0.281
84486SOL    HW155355  10.690   5.197   0.244
84486SOL    HW255356  10.737   5.061   0.292
84487SOL     OW55357   3.709   4.365   3.369
84487SOL    HW155358   3.654   4.286   3.368
84487SOL    HW255359   3.646   4.437   3.368
84488SOL     OW55360   7.949   1.187   0.943
84488SOL    HW155361   7.957   1.176   0.848
84488SOL    HW255362   7.868   1.141   0.966
84489SOL     OW55363  14.060  12.952  10.551
84489SOL    HW155364  14.035  13.022  10.612
84489SOL    HW255365  13.976  12.922  10.515
84490SOL     OW55366   3.299  10.790   2.484
84490SOL    HW155367   3.317  10.748   2.400
84490SOL    HW255368   3.204  10.780   2.496
84491SOL     OW55369   4.538   2.236   9.714
84491SOL    HW155370   4.558   2.192   9.631
84491SOL    HW255371   4.463   2.292   9.693
84492SOL     OW55372   9.948   0.818   8.812
84492SOL    HW155373   9.879   0.834   8.747
84492SOL    HW255374   9.905   0.837   8.896
84493SOL     OW55375  12.430   4.387   5.015
84493SOL    HW155376  12.419   4.379   5.109
84493SOL    HW255377  12.464   4.302   4.988
84494SOL     OW55378  12.049   7.231  12.264
84494SOL    HW155379  12.009   7.248  12.178
84494SOL    HW255380  12.074   7.318  12.297
84495SOL     OW55381   3.988   0.175  12.653
84495SOL    HW155382   3.925   0.245  12.639
84495SOL    HW255383   3.954   0.127  12.728
84496SOL     OW55384  13.003  12.293  10.423
84496SOL    HW155385  13.075  12.230  10.438
84496SOL    HW255386  13.048  12.375  10.405
84497SOL     OW55387   6.026   9.767   0.622
84497SOL    HW155388   6.092   9.730   0.680
84497SOL    HW255389   6.031   9.862   0.636
84498SOL     OW55390   3.500   8.683  14.866
84498SOL    HW155391   3.555   8.634  14.806
84498SOL    HW255392   3.557   8.702   0.061
84499SOL     OW55393  13.908   4.116   0.871
84499SOL    HW155394  13.868   4.042   0.825
84499SOL    HW255395  13.835   4.174   0.892
84500SOL     OW55396  12.215   5.884  11.855
84500SOL    HW155397  12.174   5.831  11.924
84500SOL    HW255398  12.227   5.970  11.894
84501SOL     OW55399   4.215  12.088   4.410
84501SOL    HW155400   4.255  12.067   4.326
84501SOL    HW255401   4.160  12.165   4.393
84502SOL     OW55402   7.396  10.990   4.422
84502SOL    HW155403   7.489  10.987   4.401
84502SOL    HW255404   7.383  10.919   4.486
84503SOL     OW55405   9.351   4.784  13.954
84503SOL    HW155406   9.443   4.807  13.960
84503SOL    HW255407   9.305   4.859  13.993
84504SOL     OW55408   4.526  12.947   2.025
84504SOL    HW155409   4.439  12.962   2.061
84504SOL    HW255410   4.511  12.917   1.936
84505SOL     OW55411  13.506  14.721   5.035
84505SOL    HW155412  13.559  14.765   5.101
84505SOL    HW255413  13.459  14.791   4.992
84506SOL     OW55414   4.219   4.080   1.254
84506SOL    HW155415   4.147   4.018   1.242
84506SOL    HW255416   4.176   4.165   1.263
84507SOL     OW55417  14.244   5.551   0.462
84507SOL    HW155418  14.332   5.567   0.428
84507SOL    HW255419  14.217   5.635   0.499
84508SOL     OW55420  14.365   0.848   3.935
84508SOL    HW155421  14.385   0.757   3.910
84508SOL    HW255422  14.353   0.893   3.852
84509SOL     OW55423  11.951  10.305   6.561
84509SOL    HW155424  12.026  10.332   6.507
84509SOL    HW255425  11.892  10.381   6.559
84510SOL     OW55426   6.238  13.849   1.268
84510SOL    HW155427   6.252  13.874   1.177
84510SOL    HW255428   6.315  13.797   1.291
84511SOL     OW55429  10.706   4.872  10.616
84511SOL    HW155430  10.783   4.816  10.621
84511SOL    HW255431  10.711   4.912  10.529
84512SOL     OW55432   7.881  14.547  10.047
84512SOL    HW155433   7.789  14.525  10.028
84512SOL    HW255434   7.929  14.514   9.972
84513SOL     OW55435   8.496  10.111   4.313
84513SOL    HW155436   8.487  10.118   4.218
84513SOL    HW255437   8.445  10.032   4.335
84514SOL     OW55438   3.776   4.080   9.367
84514SOL    HW155439   3.762   4.010   9.303
84514SOL    HW255440   3.783   4.159   9.314
84515SOL     OW55441   2.774   5.636   6.565
84515SOL    HW155442   2.801   5.544   6.561
84515SOL    HW255443   2.836   5.681   6.508
84516SOL     OW55444   4.304   1.533   4.729
84516SOL    HW155445   4.359   1.463   4.695
84516SOL    HW255446   4.364   1.605   4.747
84517SOL     OW55447   8.539   6.913  13.327
84517SOL    HW155448   8.527   6.864  13.246
84517SOL    HW255449   8.523   6.848  13.396
84518SOL     OW55450   7.136  12.198   5.551
84518SOL    HW155451   7.201  12.269   5.554
84518SOL    HW255452   7.113  12.192   5.458
84519SOL     OW55453   8.014   7.035   3.973
84519SOL    HW155454   8.023   7.109   3.914
84519SOL    HW255455   8.003   7.074   4.060
84520SOL     OW55456   5.646  13.747   9.787
84520SOL    HW155457   5.717  13.684   9.776
84520SOL    HW255458   5.582  13.724   9.720
84521SOL     OW55459  12.168  12.598  11.345
84521SOL    HW155460  12.134  12.564  11.262
84521SOL    HW255461  12.130  12.686  11.352
84522SOL     OW55462   2.221  12.481   8.221
84522SOL    HW155463   2.278  12.474   8.297
84522SOL    HW255464   2.181  12.395   8.212
84523SOL     OW55465  12.323  11.536   9.665
84523SOL    HW155466  12.356  11.495   9.585
84523SOL    HW255467  12.385  11.607   9.683
84524SOL     OW55468   9.164  10.937  12.614
84524SOL    HW155469   9.111  10.975  12.544
84524SOL    HW255470   9.254  10.966  12.595
84525SOL     OW55471   5.677   5.117   6.273
84525SOL    HW155472   5.674   5.198   6.325
84525SOL    HW255473   5.633   5.139   6.191
84526SOL     OW55474   4.572  12.683   5.835
84526SOL    HW155475   4.488  12.687   5.791
84526SOL    HW255476   4.558  12.728   5.918
84527SOL     OW55477   3.087   6.225   2.046
84527SOL    HW155478   3.102   6.163   1.974
84527SOL    HW255479   3.175   6.253   2.072
84528SOL     OW55480  10.664  14.082   0.305
84528SOL    HW155481  10.737  14.075   0.243
84528SOL    HW255482  10.672  14.003   0.359
84529SOL     OW55483   2.389   1.394  14.421
84529SOL    HW155484   2.431   1.413  14.504
84529SOL    HW255485   2.297   1.414  14.435
84530SOL     OW55486  14.798   5.946  11.228
84530SOL    HW155487   0.008   5.957  11.257
84530SOL    HW255488  14.745   5.970  11.304
84531SOL     OW55489   8.070   6.937   5.764
84531SOL    HW155490   8.120   6.878   5.708
84531SOL    HW255491   8.023   6.994   5.703
84532SOL     OW55492   8.314  12.205   4.029
84532SOL    HW155493   8.357  12.163   4.103
84532SOL    HW255494   8.247  12.143   4.001
84533SOL     OW55495   8.472  11.606   4.241
84533SOL    HW155496   8.420  11.643   4.170
84533SOL    HW255497   8.509  11.525   4.204
84534SOL     OW55498   0.279   3.568   5.745
84534SOL    HW155499   0.232   3.613   5.815
84534SOL    HW255500   0.364   3.612   5.741
84535SOL     OW55501   8.470   9.592   0.197
84535SOL    HW155502   8.542   9.559   0.250
84535SOL    HW255503   8.396   9.536   0.219
84536SOL     OW55504  13.818   4.169   0.519
84536SOL    HW155505  13.745   4.111   0.497
84536SOL    HW255506  13.889   4.109   0.543
84537SOL     OW55507   3.208   2.142  11.686
84537SOL    HW155508   3.202   2.236  11.706
84537SOL    HW255509   3.267   2.137  11.612
84538SOL     OW55510   2.368   3.278   2.261
84538SOL    HW155511   2.442   3.222   2.284
84538SOL    HW255512   2.296   3.247   2.316
84539SOL     OW55513   7.091  13.261   2.704
84539SOL    HW155514   7.023  13.279   2.639
84539SOL    HW255515   7.102  13.344   2.751
84540SOL     OW55516   4.945  10.822   1.694
84540SOL    HW155517   4.925  10.730   1.676
84540SOL    HW255518   4.965  10.859   1.608
84541SOL     OW55519  14.776  12.531   0.827
84541SOL    HW155520  14.711  12.599   0.843
84541SOL    HW255521  14.733  12.471   0.766
84542SOL     OW55522   8.620   2.533  14.795
84542SOL    HW155523   8.633   2.475  14.870
84542SOL    HW255524   8.668   2.491  14.724
84543SOL     OW55525  11.762   2.336   0.428
84543SOL    HW155526  11.667   2.343   0.418
84543SOL    HW255527  11.792   2.294   0.347
84544SOL     OW55528   6.354   3.925  10.507
84544SOL    HW155529   6.360   3.841  10.554
84544SOL    HW255530   6.439   3.966  10.521
84545SOL     OW55531   5.274   5.124   5.635
84545SOL    HW155532   5.180   5.140   5.647
84545SOL    HW255533   5.281   5.029   5.629
84546SOL     OW55534   4.301  13.273   7.494
84546SOL    HW155535   4.293  13.178   7.485
84546SOL    HW255536   4.227  13.308   7.443
84547SOL     OW55537   1.817  14.481  11.044
84547SOL    HW155538   1.825  14.395  11.087
84547SOL    HW255539   1.723  14.499  11.044
84548SOL     OW55540   1.837  12.931   9.870
84548SOL    HW155541   1.856  12.957   9.960
84548SOL    HW255542   1.749  12.892   9.875
84549SOL     OW55543  14.204   4.817   3.410
84549SOL    HW155544  14.167   4.779   3.489
84549SOL    HW255545  14.299   4.802   3.418
84550SOL     OW55546   1.910   4.449   8.327
84550SOL    HW155547   1.955   4.510   8.385
84550SOL    HW255548   1.978   4.386   8.301
84551SOL     OW55549   1.293   1.402   0.096
84551SOL    HW155550   1.355   1.437   0.160
84551SOL    HW255551   1.253   1.480   0.057
84552SOL     OW55552   9.098   0.688   0.097
84552SOL    HW155553   9.101   0.601   0.137
84552SOL    HW255554   9.188   0.704   0.070
84553SOL     OW55555   8.838   9.191   0.797
84553SOL    HW155556   8.810   9.150   0.715
84553SOL    HW255557   8.828   9.285   0.782
84554SOL     OW55558  11.452   4.092  14.592
84554SOL    HW155559  11.517   4.022  14.587
84554SOL    HW255560  11.414   4.082  14.679
84555SOL     OW55561  12.958   9.090   1.406
84555SOL    HW155562  12.927   9.006   1.440
84555SOL    HW255563  12.881   9.147   1.411
84556SOL     OW55564   2.056   7.740   1.539
84556SOL    HW155565   1.964   7.715   1.545
84556SOL    HW255566   2.068   7.764   1.447
84557SOL     OW55567   3.129   1.241  11.255
84557SOL    HW155568   3.113   1.149  11.276
84557SOL    HW255569   3.103   1.288  11.334
84558SOL     OW55570   3.528   6.465   3.569
84558SOL    HW155571   3.516   6.444   3.476
84558SOL    HW255572   3.614   6.428   3.590
84559SOL     OW55573   7.389   0.611   7.836
84559SOL    HW155574   7.438   0.645   7.762
84559SOL    HW255575   7.336   0.540   7.799
84560SOL     OW55576   4.249   1.258   9.797
84560SOL    HW155577   4.181   1.195   9.770
84560SOL    HW255578   4.327   1.230   9.750
84561SOL     OW55579   7.181  10.352   5.535
84561SOL    HW155580   7.154  10.444   5.542
84561SOL    HW255581   7.266  10.355   5.493
84562SOL     OW55582   7.041   0.583  11.618
84562SOL    HW155583   7.089   0.570  11.700
84562SOL    HW255584   6.949   0.578  11.643
84563SOL     OW55585   2.130   8.414   6.354
84563SOL    HW155586   2.207   8.471   6.355
84563SOL    HW255587   2.166   8.326   6.341
84564SOL     OW55588   3.221   6.254   1.428
84564SOL    HW155589   3.303   6.272   1.473
84564SOL    HW255590   3.224   6.160   1.409
84565SOL     OW55591  12.991  13.826   7.037
84565SOL    HW155592  13.058  13.772   7.080
84565SOL    HW255593  12.911  13.807   7.085
84566SOL     OW55594  12.028   2.939  14.544
84566SOL    HW155595  12.064   3.026  14.561
84566SOL    HW255596  11.950   2.933  14.600
84567SOL     OW55597   4.371  11.312   8.110
84567SOL    HW155598   4.280  11.289   8.130
84567SOL    HW255599   4.413  11.321   8.195
84568SOL     OW55600  11.042  11.938   5.457
84568SOL    HW155601  10.995  11.924   5.539
84568SOL    HW255602  11.117  11.878   5.463
84569SOL     OW55603   7.543  14.748   4.478
84569SOL    HW155604   7.518  14.840   4.482
84569SOL    HW255605   7.459  14.701   4.476
84570SOL     OW55606   6.162   1.926   1.047
84570SOL    HW155607   6.215   1.965   0.977
84570SOL    HW255608   6.159   1.833   1.025
84571SOL     OW55609   2.791  14.178   9.064
84571SOL    HW155610   2.730  14.249   9.080
84571SOL    HW255611   2.738  14.107   9.029
84572SOL     OW55612  14.598   7.078   0.305
84572SOL    HW155613  14.520   7.024   0.292
84572SOL    HW255614  14.577   7.133   0.380
84573SOL     OW55615   2.187  11.221   3.122
84573SOL    HW155616   2.279  11.248   3.129
84573SOL    HW255617   2.177  11.156   3.191
84574SOL     OW55618  10.149  11.750  13.576
84574SOL    HW155619  10.076  11.725  13.633
84574SOL    HW255620  10.201  11.670  13.566
84575SOL     OW55621   7.108   9.819  12.167
84575SOL    HW155622   7.136   9.730  12.147
84575SOL    HW255623   7.082   9.856  12.083
84576SOL     OW55624  10.107   7.367  12.127
84576SOL    HW155625  10.175   7.433  12.111
84576SOL    HW255626  10.124   7.335  12.215
84577SOL     OW55627   3.730   7.464  13.117
84577SOL    HW155628   3.637   7.469  13.098
84577SOL    HW255629   3.765   7.406  13.050
84578SOL     OW55630   5.028   4.765   7.451
84578SOL    HW155631   5.093   4.714   7.500
84578SOL    HW255632   4.945   4.720   7.468
84579SOL     OW55633   7.683  14.618   3.161
84579SOL    HW155634   7.594  14.652   3.173
84579SOL    HW255635   7.732  14.692   3.126
84580SOL     OW55636  11.364   3.247   2.190
84580SOL    HW155637  11.337   3.170   2.239
84580SOL    HW255638  11.319   3.320   2.232
84581SOL     OW55639   6.565  11.394   7.225
84581SOL    HW155640   6.564  11.461   7.156
84581SOL    HW255641   6.522  11.318   7.186
84582SOL     OW55642  10.809   4.537   1.814
84582SOL    HW155643  10.722   4.573   1.797
84582SOL    HW255644  10.815   4.462   1.754
84583SOL     OW55645  12.000   6.156   8.645
84583SOL    HW155646  11.996   6.084   8.707
84583SOL    HW255647  11.939   6.131   8.575
84584SOL     OW55648   3.639   4.485   4.274
84584SOL    HW155649   3.558   4.435   4.258
84584SOL    HW255650   3.627   4.522   4.362
84585SOL     OW55651   4.719   6.812  14.641
84585SOL    HW155652   4.719   6.872  14.567
84585SOL    HW255653   4.683   6.731  14.606
84586SOL     OW55654   5.320   8.533  11.857
84586SOL    HW155655   5.367   8.616  11.858
84586SOL    HW255656   5.289   8.523  11.767
84587SOL     OW55657   3.549  13.277   0.882
84587SOL    HW155658   3.602  13.216   0.831
84587SOL    HW255659   3.604  13.354   0.894
84588SOL     OW55660  14.633   7.727   0.182
84588SOL    HW155661  14.613   7.659   0.247
84588SOL    HW255662  14.550   7.743   0.138
84589SOL     OW55663   4.871   4.460   6.726
84589SOL    HW155664   4.923   4.528   6.769
84589SOL    HW255665   4.820   4.507   6.660
84590SOL     OW55666   6.481   0.456   4.194
84590SOL    HW155667   6.541   0.531   4.197
84590SOL    HW255668   6.532   0.386   4.155
84591SOL     OW55669   2.920   4.397   0.406
84591SOL    HW155670   2.835   4.440   0.391
84591SOL    HW255671   2.901   4.304   0.397
84592SOL     OW55672   2.343   3.225   9.511
84592SOL    HW155673   2.337   3.135   9.479
84592SOL    HW255674   2.423   3.225   9.564
84593SOL     OW55675  13.518   1.939   4.412
84593SOL    HW155676  13.584   1.994   4.370
84593SOL    HW255677  13.544   1.849   4.389
84594SOL     OW55678   4.605  11.722   9.888
84594SOL    HW155679   4.542  11.689   9.824
84594SOL    HW255680   4.552  11.746   9.964
84595SOL     OW55681   2.120   7.667  14.420
84595SOL    HW155682   2.196   7.630  14.466
84595SOL    HW255683   2.137   7.650  14.328
84596SOL     OW55684   0.662   7.292   2.717
84596SOL    HW155685   0.646   7.379   2.755
84596SOL    HW255686   0.583   7.242   2.737
84597SOL     OW55687  10.892  12.623   8.766
84597SOL    HW155688  10.846  12.617   8.682
84597SOL    HW255689  10.833  12.581   8.828
84598SOL     OW55690  11.742   3.315  10.098
84598SOL    HW155691  11.781   3.387  10.048
84598SOL    HW255692  11.805   3.298  10.168
84599SOL     OW55693  12.395  10.872  10.966
84599SOL    HW155694  12.473  10.899  10.917
84599SOL    HW255695  12.425  10.867  11.057
84600SOL     OW55696   7.227  12.794   3.095
84600SOL    HW155697   7.185  12.753   3.019
84600SOL    HW255698   7.258  12.721   3.148
84601SOL     OW55699  12.265   4.315   3.598
84601SOL    HW155700  12.306   4.231   3.617
84601SOL    HW255701  12.333   4.366   3.555
84602SOL     OW55702  10.987   0.917  13.923
84602SOL    HW155703  11.002   0.939  13.831
84602SOL    HW255704  10.990   1.001  13.969
84603SOL     OW55705   7.237   0.226  12.098
84603SOL    HW155706   7.309   0.290  12.096
84603SOL    HW255707   7.171   0.267  12.154
84604SOL     OW55708  13.752  14.538   9.159
84604SOL    HW155709  13.729  14.453   9.121
84604SOL    HW255710  13.821  14.517   9.222
84605SOL     OW55711   0.129  11.087   4.758
84605SOL    HW155712   0.114  11.141   4.835
84605SOL    HW255713   0.049  11.037   4.747
84606SOL     OW55714  13.671  11.246   0.190
84606SOL    HW155715  13.734  11.205   0.131
84606SOL    HW255716  13.588  11.203   0.171
84607SOL     OW55717  10.929  14.087   2.461
84607SOL    HW155718  10.956  14.009   2.413
84607SOL    HW255719  10.933  14.061   2.553
84608SOL     OW55720   0.793   2.224  13.019
84608SOL    HW155721   0.833   2.149  13.064
84608SOL    HW255722   0.829   2.301  13.064
84609SOL     OW55723   5.346   2.117   8.873
84609SOL    HW155724   5.441   2.105   8.867
84609SOL    HW255725   5.319   2.145   8.785
84610SOL     OW55726   5.968   7.832   3.295
84610SOL    HW155727   5.877   7.854   3.277
84610SOL    HW255728   6.004   7.909   3.339
84611SOL     OW55729   4.920  14.708  13.359
84611SOL    HW155730   4.833  14.668  13.351
84611SOL    HW255731   4.981  14.633  13.359
84612SOL     OW55732   1.449  12.891  13.214
84612SOL    HW155733   1.372  12.874  13.268
84612SOL    HW255734   1.509  12.939  13.271
84613SOL     OW55735   1.976   1.101  13.742
84613SOL    HW155736   1.947   1.069  13.827
84613SOL    HW255737   1.928   1.183  13.729
84614SOL     OW55738   0.931   9.160  13.444
84614SOL    HW155739   0.973   9.244  13.425
84614SOL    HW255740   0.847   9.164  13.399
84615SOL     OW55741   5.541  12.989   1.067
84615SOL    HW155742   5.609  13.051   1.094
84615SOL    HW255743   5.488  12.977   1.146
84616SOL     OW55744  11.274   8.727   8.434
84616SOL    HW155745  11.253   8.732   8.528
84616SOL    HW255746  11.356   8.678   8.431
84617SOL     OW55747   1.727   2.534   2.742
84617SOL    HW155748   1.794   2.492   2.689
84617SOL    HW255749   1.648   2.482   2.727
84618SOL     OW55750   8.191   4.802  14.126
84618SOL    HW155751   8.175   4.807  14.031
84618SOL    HW255752   8.140   4.873  14.163
84619SOL     OW55753  14.031   5.597   1.144
84619SOL    HW155754  14.110   5.630   1.188
84619SOL    HW255755  13.971   5.671   1.145
84620SOL     OW55756  12.602  12.688   1.665
84620SOL    HW155757  12.538  12.634   1.619
84620SOL    HW255758  12.573  12.687   1.757
84621SOL     OW55759   0.767   9.155   1.285
84621SOL    HW155760   0.713   9.114   1.353
84621SOL    HW255761   0.781   9.085   1.221
84622SOL     OW55762   1.419   4.548  14.374
84622SOL    HW155763   1.451   4.460  14.388
84622SOL    HW255764   1.361   4.541  14.297
84623SOL     OW55765  13.129   5.545   9.345
84623SOL    HW155766  13.195   5.609   9.319
84623SOL    HW255767  13.045   5.587   9.327
84624SOL     OW55768   8.631   4.961   6.935
84624SOL    HW155769   8.591   5.047   6.923
84624SOL    HW255770   8.723   4.979   6.951
84625SOL     OW55771  12.753   0.401  11.742
84625SOL    HW155772  12.772   0.449  11.822
84625SOL    HW255773  12.839   0.385  11.703
84626SOL     OW55774   2.291   4.591   3.932
84626SOL    HW155775   2.275   4.532   4.005
84626SOL    HW255776   2.259   4.544   3.855
84627SOL     OW55777   7.660   6.369   5.414
84627SOL    HW155778   7.605   6.291   5.416
84627SOL    HW255779   7.700   6.373   5.501
84628SOL     OW55780  10.154   1.285   6.850
84628SOL    HW155781  10.192   1.208   6.892
84628SOL    HW255782  10.100   1.326   6.918
84629SOL     OW55783   2.740   8.369  14.544
84629SOL    HW155784   2.717   8.290  14.495
84629SOL    HW255785   2.828   8.352  14.577
84630SOL     OW55786   1.189  14.215  14.522
84630SOL    HW155787   1.210  14.121  14.518
84630SOL    HW255788   1.262  14.257  14.478
84631SOL     OW55789   5.461   1.047   3.966
84631SOL    HW155790   5.543   1.095   3.969
84631SOL    HW255791   5.426   1.054   4.055
84632SOL     OW55792   2.399   2.335   3.281
84632SOL    HW155793   2.351   2.375   3.208
84632SOL    HW255794   2.458   2.273   3.238
84633SOL     OW55795   3.259   8.643   3.490
84633SOL    HW155796   3.341   8.635   3.539
84633SOL    HW255797   3.286   8.646   3.398
84634SOL     OW55798   0.494  12.343  13.354
84634SOL    HW155799   0.432  12.324  13.284
84634SOL    HW255800   0.466  12.428  13.388
84635SOL     OW55801   3.977   5.186  11.237
84635SOL    HW155802   4.014   5.225  11.316
84635SOL    HW255803   3.891   5.153  11.265
84636SOL     OW55804   6.208  13.234  14.681
84636SOL    HW155805   6.272  13.212  14.614
84636SOL    HW255806   6.191  13.328  14.669
84637SOL     OW55807  14.083  14.148   4.656
84637SOL    HW155808  14.073  14.115   4.567
84637SOL    HW255809  14.154  14.096   4.693
84638SOL     OW55810   5.107   6.164   2.664
84638SOL    HW155811   5.145   6.107   2.731
84638SOL    HW255812   5.108   6.112   2.584
84639SOL     OW55813   3.637   7.021   0.827
84639SOL    HW155814   3.575   6.957   0.863
84639SOL    HW255815   3.582   7.091   0.793
84640SOL     OW55816   7.212   8.915  14.115
84640SOL    HW155817   7.274   8.962  14.171
84640SOL    HW255818   7.131   8.967  14.120
84641SOL     OW55819   8.479   6.487  13.401
84641SOL    HW155820   8.550   6.522  13.347
84641SOL    HW255821   8.519   6.416  13.451
84642SOL     OW55822  12.807   8.274   4.478
84642SOL    HW155823  12.861   8.297   4.402
84642SOL    HW255824  12.866   8.284   4.553
84643SOL     OW55825   9.433  10.426   4.716
84643SOL    HW155826   9.425  10.377   4.635
84643SOL    HW255827   9.495  10.376   4.769
84644SOL     OW55828  13.351   0.117   0.124
84644SOL    HW155829  13.278   0.172   0.151
84644SOL    HW255830  13.393   0.091   0.206
84645SOL     OW55831   7.796   4.512   2.294
84645SOL    HW155832   7.839   4.496   2.377
84645SOL    HW255833   7.748   4.594   2.307
84646SOL     OW55834   9.582   8.675   6.081
84646SOL    HW155835   9.517   8.728   6.035
84646SOL    HW255836   9.556   8.680   6.173
84647SOL     OW55837   1.692  13.121   4.880
84647SOL    HW155838   1.705  13.051   4.816
84647SOL    HW255839   1.598  13.140   4.874
84648SOL     OW55840  11.949   2.521  14.315
84648SOL    HW155841  11.909   2.434  14.311
84648SOL    HW255842  11.875   2.581  14.327
84649SOL     OW55843  13.106  12.371   0.593
84649SOL    HW155844  13.074  12.284   0.570
84649SOL    HW255845  13.082  12.426   0.519
84650SOL     OW55846   2.474   5.979   1.017
84650SOL    HW155847   2.511   5.968   0.929
84650SOL    HW255848   2.410   6.049   1.008
84651SOL     OW55849   7.596  12.909   0.372
84651SOL    HW155850   7.659  12.863   0.427
84651SOL    HW255851   7.510  12.886   0.409
84652SOL     OW55852  12.299  11.141   2.096
84652SOL    HW155853  12.285  11.216   2.038
84652SOL    HW255854  12.367  11.170   2.156
84653SOL     OW55855  13.314   4.371   6.676
84653SOL    HW155856  13.279   4.291   6.638
84653SOL    HW255857  13.260   4.441   6.639
84654SOL     OW55858  14.471   2.235   1.723
84654SOL    HW155859  14.542   2.188   1.768
84654SOL    HW255860  14.502   2.243   1.633
84655SOL     OW55861  11.277  12.854  12.027
84655SOL    HW155862  11.226  12.787  11.982
84655SOL    HW255863  11.307  12.913  11.958
84656SOL     OW55864  13.758   2.771  12.558
84656SOL    HW155865  13.768   2.700  12.623
84656SOL    HW255866  13.689   2.827  12.594
84657SOL     OW55867   5.889   9.253  14.029
84657SOL    HW155868   5.809   9.212  14.062
84657SOL    HW255869   5.907   9.323  14.091
84658SOL     OW55870  10.906   0.975   1.570
84658SOL    HW155871  10.837   1.026   1.612
84658SOL    HW255872  10.974   0.967   1.638
84659SOL     OW55873   0.179   4.574   1.534
84659SOL    HW155874   0.233   4.632   1.480
84659SOL    HW255875   0.189   4.488   1.494
84660SOL     OW55876  11.121   5.200  11.198
84660SOL    HW155877  11.104   5.242  11.114
84660SOL    HW255878  11.188   5.253  11.240
84661SOL     OW55879   8.634   5.476   1.212
84661SOL    HW155880   8.700   5.542   1.191
84661SOL    HW255881   8.553   5.525   1.224
84662SOL     OW55882   1.928   4.210  13.118
84662SOL    HW155883   1.859   4.144  13.128
84662SOL    HW255884   1.882   4.289  13.091
84663SOL     OW55885   0.619   0.141   6.880
84663SOL    HW155886   0.557   0.204   6.844
84663SOL    HW255887   0.578   0.055   6.866
84664SOL     OW55888   9.816   8.529   6.050
84664SOL    HW155889   9.736   8.573   6.076
84664SOL    HW255890   9.856   8.500   6.133
84665SOL     OW55891   0.684   9.819   1.428
84665SOL    HW155892   0.667   9.748   1.367
84665SOL    HW255893   0.719   9.889   1.373
84666SOL     OW55894  12.965  12.515   4.016
84666SOL    HW155895  12.942  12.477   4.101
84666SOL    HW255896  12.881  12.525   3.971
84667SOL     OW55897  10.256   8.838   2.908
84667SOL    HW155898  10.207   8.826   2.989
84667SOL    HW255899  10.274   8.932   2.905
84668SOL     OW55900  14.190   2.540   2.906
84668SOL    HW155901  14.146   2.557   2.989
84668SOL    HW255902  14.188   2.625   2.861
84669SOL     OW55903   9.097   2.461   6.176
84669SOL    HW155904   9.143   2.443   6.094
84669SOL    HW255905   9.021   2.402   6.174
84670SOL     OW55906   9.610   1.212  11.161
84670SOL    HW155907   9.673   1.142  11.174
84670SOL    HW255908   9.552   1.180  11.091
84671SOL     OW55909  12.579   7.450   5.444
84671SOL    HW155910  12.658   7.449   5.390
84671SOL    HW255911  12.511   7.486   5.388
84672SOL     OW55912   0.870   2.650   6.094
84672SOL    HW155913   0.930   2.720   6.067
84672SOL    HW255914   0.840   2.611   6.012
84673SOL     OW55915  12.201   1.126   4.203
84673SOL    HW155916  12.276   1.123   4.144
84673SOL    HW255917  12.127   1.099   4.149
84674SOL     OW55918  12.785   5.776   8.052
84674SOL    HW155919  12.863   5.777   7.997
84674SOL    HW255920  12.752   5.686   8.046
84675SOL     OW55921  11.542   8.409   7.827
84675SOL    HW155922  11.562   8.345   7.895
84675SOL    HW255923  11.448   8.427   7.838
84676SOL     OW55924   6.288   1.108   2.481
84676SOL    HW155925   6.223   1.153   2.428
84676SOL    HW255926   6.344   1.178   2.515
84677SOL     OW55927   4.606   4.396   6.987
84677SOL    HW155928   4.610   4.301   6.995
84677SOL    HW255929   4.568   4.411   6.900
84678SOL     OW55930  13.862   6.704   3.381
84678SOL    HW155931  13.826   6.619   3.357
84678SOL    HW255932  13.933   6.719   3.318
84679SOL     OW55933  11.972  12.185   1.345
84679SOL    HW155934  12.057  12.169   1.385
84679SOL    HW255935  11.924  12.103   1.355
84680SOL     OW55936   8.132   1.036   4.947
84680SOL    HW155937   8.204   1.088   4.981
84680SOL    HW255938   8.061   1.049   5.009
84681SOL     OW55939   8.608   5.877   0.492
84681SOL    HW155940   8.604   5.809   0.425
84681SOL    HW255941   8.588   5.831   0.574
84682SOL     OW55942  11.584  13.552   1.676
84682SOL    HW155943  11.521  13.612   1.718
84682SOL    HW255944  11.567  13.467   1.716
84683SOL     OW55945   2.704   5.303   9.067
84683SOL    HW155946   2.787   5.324   9.109
84683SOL    HW255947   2.728   5.251   8.990
84684SOL     OW55948  12.285   9.002   1.116
84684SOL    HW155949  12.361   8.956   1.083
84684SOL    HW255950  12.265   8.959   1.200
84685SOL     OW55951  10.513  13.374  13.460
84685SOL    HW155952  10.498  13.432  13.535
84685SOL    HW255953  10.447  13.306  13.469
84686SOL     OW55954   2.448   5.872  10.109
84686SOL    HW155955   2.494   5.950  10.141
84686SOL    HW255956   2.463   5.806  10.177
84687SOL     OW55957   7.092  14.032  11.219
84687SOL    HW155958   7.124  13.953  11.176
84687SOL    HW255959   7.064  14.004  11.306
84688SOL     OW55960   7.652   9.028  12.514
84688SOL    HW155961   7.676   8.937  12.529
84688SOL    HW255962   7.724   9.079  12.553
84689SOL     OW55963   2.185   8.188   9.428
84689SOL    HW155964   2.255   8.254   9.425
84689SOL    HW255965   2.130   8.215   9.501
84690SOL     OW55966   8.118  10.715   5.293
84690SOL    HW155967   8.136  10.626   5.324
84690SOL    HW255968   8.063  10.754   5.362
84691SOL     OW55969  10.621  13.200   7.638
84691SOL    HW155970  10.560  13.193   7.565
84691SOL    HW255971  10.695  13.250   7.602
84692SOL     OW55972  11.155  11.240   5.836
84692SOL    HW155973  11.174  11.264   5.927
84692SOL    HW255974  11.086  11.300   5.809
84693SOL     OW55975  13.919  14.444  11.890
84693SOL    HW155976  13.905  14.498  11.967
84693SOL    HW255977  13.935  14.357  11.924
84694SOL     OW55978   6.858   3.097   1.371
84694SOL    HW155979   6.798   3.044   1.423
84694SOL    HW255980   6.802   3.149   1.314
84695SOL     OW55981   5.967   7.688  10.577
84695SOL    HW155982   5.883   7.656  10.545
84695SOL    HW255983   5.950   7.712  10.668
84696SOL     OW55984   5.144  13.452   0.769
84696SOL    HW155985   5.169  13.361   0.787
84696SOL    HW255986   5.227  13.499   0.767
84697SOL     OW55987   7.983   8.805   7.569
84697SOL    HW155988   7.897   8.770   7.547
84697SOL    HW255989   7.985   8.804   7.665
84698SOL     OW55990  13.038  14.372   3.964
84698SOL    HW155991  13.014  14.461   3.938
84698SOL    HW255992  13.073  14.332   3.885
84699SOL     OW55993   5.775   7.472   9.795
84699SOL    HW155994   5.762   7.469   9.890
84699SOL    HW255995   5.687   7.481   9.759
84700SOL     OW55996  12.458  14.718   9.030
84700SOL    HW155997  12.521  14.772   8.982
84700SOL    HW255998  12.489  14.718   9.120
84701SOL     OW55999  14.109   3.471   4.134
84701SOL    HW156000  14.133   3.532   4.204
84701SOL    HW256001  14.068   3.397   4.180
84702SOL     OW56002   2.787   8.966   5.179
84702SOL    HW156003   2.832   8.941   5.260
84702SOL    HW256004   2.777   8.884   5.131
84703SOL     OW56005   4.024   2.929  11.907
84703SOL    HW156006   4.084   2.948  11.979
84703SOL    HW256007   3.937   2.928  11.949
84704SOL     OW56008   8.450   6.346   8.669
84704SOL    HW156009   8.492   6.323   8.586
84704SOL    HW256010   8.373   6.289   8.674
84705SOL     OW56011   8.707   9.822   6.074
84705SOL    HW156012   8.699   9.915   6.052
84705SOL    HW256013   8.688   9.818   6.168
84706SOL     OW56014   6.754  10.837   3.630
84706SOL    HW156015   6.693  10.791   3.687
84706SOL    HW256016   6.699  10.885   3.569
84707SOL     OW56017  11.129   6.827   6.580
84707SOL    HW156018  11.105   6.914   6.545
84707SOL    HW256019  11.178   6.846   6.659
84708SOL     OW56020   9.194  14.672   5.753
84708SOL    HW156021   9.141  14.600   5.721
84708SOL    HW256022   9.272  14.672   5.698
84709SOL     OW56023   1.783   5.383   9.463
84709SOL    HW156024   1.699   5.426   9.483
84709SOL    HW256025   1.815   5.354   9.549
84710SOL     OW56026   4.408  13.750   7.633
84710SOL    HW156027   4.397  13.685   7.702
84710SOL    HW256028   4.463  13.818   7.671
84711SOL     OW56029  10.685   3.045  10.150
84711SOL    HW156030  10.682   3.138  10.125
84711SOL    HW256031  10.778   3.023  10.149
84712SOL     OW56032  13.025   9.326   6.587
84712SOL    HW156033  12.976   9.367   6.658
84712SOL    HW256034  13.091   9.391   6.563
84713SOL     OW56035   9.789  10.923   7.607
84713SOL    HW156036   9.762  10.913   7.516
84713SOL    HW256037   9.815  10.834   7.634
84714SOL     OW56038   0.836   3.783  13.584
84714SOL    HW156039   0.768   3.823  13.637
84714SOL    HW256040   0.863   3.852  13.522
84715SOL     OW56041  11.620   6.791   8.625
84715SOL    HW156042  11.668   6.843   8.561
84715SOL    HW256043  11.536   6.773   8.583
84716SOL     OW56044   0.122   9.608  13.710
84716SOL    HW156045   0.049   9.559  13.671
84716SOL    HW256046   0.185   9.619  13.639
84717SOL     OW56047   7.559   3.334   7.734
84717SOL    HW156048   7.582   3.407   7.791
84717SOL    HW256049   7.477   3.301   7.769
84718SOL     OW56050  14.513   4.925   5.247
84718SOL    HW156051  14.590   4.964   5.287
84718SOL    HW256052  14.470   4.877   5.318
84719SOL     OW56053   1.360  11.609   1.271
84719SOL    HW156054   1.308  11.674   1.222
84719SOL    HW256055   1.369  11.536   1.210
84720SOL     OW56056   2.458  12.667   5.072
84720SOL    HW156057   2.440  12.676   4.978
84720SOL    HW256058   2.546  12.702   5.082
84721SOL     OW56059  13.012   5.433  13.661
84721SOL    HW156060  12.943   5.497  13.676
84721SOL    HW256061  13.070   5.442  13.736
84722SOL     OW56062   2.815   0.053   5.591
84722SOL    HW156063   2.871   0.130   5.597
84722SOL    HW256064   2.755   0.061   5.665
84723SOL     OW56065   2.296  13.862  12.690
84723SOL    HW156066   2.299  13.888  12.782
84723SOL    HW256067   2.218  13.905  12.656
84724SOL     OW56068  10.889   2.264   0.442
84724SOL    HW156069  10.883   2.186   0.387
84724SOL    HW256070  10.982   2.272   0.462
84725SOL     OW56071   2.747   3.791   0.619
84725SOL    HW156072   2.751   3.769   0.712
84725SOL    HW256073   2.770   3.883   0.615
84726SOL     OW56074   0.584   3.773   1.438
84726SOL    HW156075   0.535   3.853   1.457
84726SOL    HW256076   0.569   3.717   1.514
84727SOL     OW56077   7.184  13.272   3.837
84727SOL    HW156078   7.088  13.269   3.843
84727SOL    HW256079   7.211  13.330   3.908
84728SOL     OW56080  11.033   4.309   5.619
84728SOL    HW156081  10.969   4.339   5.555
84728SOL    HW256082  10.981   4.293   5.698
84729SOL     OW56083   6.502   4.137   7.725
84729SOL    HW156084   6.542   4.166   7.808
84729SOL    HW256085   6.409   4.159   7.735
84730SOL     OW56086   7.024  13.872   4.225
84730SOL    HW156087   7.075  13.871   4.144
84730SOL    HW256088   7.082  13.831   4.290
84731SOL     OW56089  14.579   7.724   9.194
84731SOL    HW156090  14.498   7.755   9.152
84731SOL    HW256091  14.566   7.742   9.287
84732SOL     OW56092   8.643   5.382   3.781
84732SOL    HW156093   8.667   5.330   3.704
84732SOL    HW256094   8.619   5.468   3.746
84733SOL     OW56095   6.510   9.866   5.364
84733SOL    HW156096   6.422   9.896   5.340
84733SOL    HW256097   6.561   9.947   5.372
84734SOL     OW56098   8.039   5.167   2.338
84734SOL    HW156099   8.127   5.183   2.372
84734SOL    HW256100   7.993   5.250   2.351
84735SOL     OW56101   2.878  13.047   8.450
84735SOL    HW156102   2.855  13.037   8.357
84735SOL    HW256103   2.828  13.123   8.479
84736SOL     OW56104   5.033   9.556   7.183
84736SOL    HW156105   5.041   9.467   7.219
84736SOL    HW256106   5.118   9.597   7.201
84737SOL     OW56107   6.004  10.363   3.215
84737SOL    HW156108   6.018  10.443   3.164
84737SOL    HW256109   6.092  10.332   3.235
84738SOL     OW56110   7.048   6.132   6.035
84738SOL    HW156111   7.083   6.176   5.958
84738SOL    HW256112   7.115   6.145   6.102
84739SOL     OW56113   7.461  11.393   7.747
84739SOL    HW156114   7.547  11.361   7.773
84739SOL    HW256115   7.426  11.324   7.690
84740SOL     OW56116   0.336   1.697   2.954
84740SOL    HW156117   0.318   1.603   2.962
84740SOL    HW256118   0.366   1.708   2.864
84741SOL     OW56119   1.843  13.394   8.802
84741SOL    HW156120   1.787  13.442   8.863
84741SOL    HW256121   1.861  13.456   8.732
84742SOL     OW56122  12.086  12.470   5.052
84742SOL    HW156123  11.995  12.451   5.026
84742SOL    HW256124  12.139  12.429   4.983
84743SOL     OW56125   9.028   9.548  10.682
84743SOL    HW156126   9.114   9.584  10.705
84743SOL    HW256127   9.047   9.462  10.644
84744SOL     OW56128  13.414   7.992  11.179
84744SOL    HW156129  13.470   8.064  11.148
84744SOL    HW256130  13.471   7.915  11.178
84745SOL     OW56131   9.507  10.161  11.806
84745SOL    HW156132   9.444  10.130  11.742
84745SOL    HW256133   9.515  10.255  11.789
84746SOL     OW56134   8.452   7.790   5.933
84746SOL    HW156135   8.426   7.767   5.843
84746SOL    HW256136   8.395   7.863   5.956
84747SOL     OW56137  10.380   2.175  14.550
84747SOL    HW156138  10.426   2.259  14.552
84747SOL    HW256139  10.313   2.185  14.483
84748SOL     OW56140  14.445  14.258   9.017
84748SOL    HW156141  14.452  14.177   8.966
84748SOL    HW256142  14.530  14.300   9.005
84749SOL     OW56143  13.960   4.338   1.749
84749SOL    HW156144  13.979   4.337   1.843
84749SOL    HW256145  13.996   4.420   1.718
84750SOL     OW56146   1.417  14.173   4.096
84750SOL    HW156147   1.354  14.231   4.139
84750SOL    HW256148   1.399  14.184   4.002
84751SOL     OW56149   3.284  14.663  14.392
84751SOL    HW156150   3.357  14.718  14.362
84751SOL    HW256151   3.291  14.584  14.338
84752SOL     OW56152   0.138   0.518  10.131
84752SOL    HW156153   0.046   0.494  10.139
84752SOL    HW256154   0.138   0.599  10.080
84753SOL     OW56155   8.992  11.772  10.701
84753SOL    HW156156   9.025  11.766  10.791
84753SOL    HW256157   9.070  11.780  10.647
84754SOL     OW56158  11.052   0.362   8.120
84754SOL    HW156159  11.076   0.281   8.164
84754SOL    HW256160  11.112   0.367   8.045
84755SOL     OW56161   5.388   1.046   8.187
84755SOL    HW156162   5.332   1.078   8.258
84755SOL    HW256163   5.461   1.107   8.184
84756SOL     OW56164   8.175  12.464  14.563
84756SOL    HW156165   8.230  12.391  14.591
84756SOL    HW256166   8.085  12.430  14.566
84757SOL     OW56167   1.110   0.708   2.525
84757SOL    HW156168   1.175   0.642   2.500
84757SOL    HW256169   1.100   0.698   2.620
84758SOL     OW56170  10.467   6.593   1.480
84758SOL    HW156171  10.376   6.576   1.504
84758SOL    HW256172  10.518   6.544   1.544
84759SOL     OW56173   8.953   9.159   7.789
84759SOL    HW156174   8.979   9.122   7.705
84759SOL    HW256175   8.954   9.084   7.849
84760SOL     OW56176  12.832   3.774   0.351
84760SOL    HW156177  12.900   3.740   0.409
84760SOL    HW256178  12.802   3.698   0.301
84761SOL     OW56179  12.755  13.587   5.905
84761SOL    HW156180  12.785  13.627   5.823
84761SOL    HW256181  12.762  13.657   5.970
84762SOL     OW56182  11.684   1.844   1.404
84762SOL    HW156183  11.708   1.930   1.438
84762SOL    HW256184  11.612   1.861   1.344
84763SOL     OW56185  12.813   8.122  11.248
84763SOL    HW156186  12.887   8.099  11.304
84763SOL    HW256187  12.810   8.053  11.182
84764SOL     OW56188   3.037   5.874   0.299
84764SOL    HW156189   3.050   5.865   0.393
84764SOL    HW256190   3.037   5.968   0.283
84765SOL     OW56191   6.189   3.908  10.841
84765SOL    HW156192   6.279   3.907  10.811
84765SOL    HW256193   6.194   3.894  10.935
84766SOL     OW56194   2.485   2.361   0.273
84766SOL    HW156195   2.518   2.448   0.294
84766SOL    HW256196   2.395   2.376   0.245
84767SOL     OW56197   9.952  14.756   1.351
84767SOL    HW156198   9.969  14.689   1.285
84767SOL    HW256199   9.863  14.786   1.334
84768SOL     OW56200   2.083   3.018  11.847
84768SOL    HW156201   2.087   2.941  11.904
84768SOL    HW256202   2.082   3.093  11.906
84769SOL     OW56203   6.243   4.195   4.394
84769SOL    HW156204   6.256   4.289   4.379
84769SOL    HW256205   6.322   4.154   4.358
84770SOL     OW56206  13.527  10.649   8.081
84770SOL    HW156207  13.448  10.649   8.135
84770SOL    HW256208  13.533  10.560   8.047
84771SOL     OW56209  13.444  10.073   7.868
84771SOL    HW156210  13.370  10.133   7.859
84771SOL    HW256211  13.426  10.024   7.948
84772SOL     OW56212   2.698   8.469   5.078
84772SOL    HW156213   2.691   8.471   5.173
84772SOL    HW256214   2.608   8.471   5.047
84773SOL     OW56215  13.221  10.472  12.507
84773SOL    HW156216  13.274  10.409  12.458
84773SOL    HW256217  13.131  10.456  12.477
84774SOL     OW56218   4.351   0.869   1.500
84774SOL    HW156219   4.278   0.830   1.453
84774SOL    HW256220   4.428   0.821   1.471
84775SOL     OW56221   8.567   7.878   6.294
84775SOL    HW156222   8.547   7.786   6.279
84775SOL    HW256223   8.546   7.921   6.211
84776SOL     OW56224   9.756   7.488   3.064
84776SOL    HW156225   9.693   7.556   3.041
84776SOL    HW256226   9.720   7.408   3.025
84777SOL     OW56227   7.901   1.314   4.936
84777SOL    HW156228   7.833   1.249   4.918
84777SOL    HW256229   7.968   1.298   4.870
84778SOL     OW56230   6.783   0.329   8.373
84778SOL    HW156231   6.832   0.302   8.451
84778SOL    HW256232   6.762   0.246   8.329
84779SOL     OW56233  10.355   2.628  12.208
84779SOL    HW156234  10.403   2.562  12.158
84779SOL    HW256235  10.263   2.614  12.184
84780SOL     OW56236  13.473   6.291   1.025
84780SOL    HW156237  13.383   6.258   1.037
84780SOL    HW256238  13.510   6.235   0.957
84781SOL     OW56239   9.805   0.728   6.259
84781SOL    HW156240   9.888   0.709   6.216
84781SOL    HW256241   9.761   0.643   6.266
84782SOL     OW56242   5.681   1.737   0.717
84782SOL    HW156243   5.711   1.805   0.778
84782SOL    HW256244   5.595   1.767   0.688
84783SOL     OW56245   6.613   6.805  14.067
84783SOL    HW156246   6.547   6.800  14.136
84783SOL    HW256247   6.660   6.721  14.073
84784SOL     OW56248  14.355  13.856   5.681
84784SOL    HW156249  14.355  13.782   5.741
84784SOL    HW256250  14.417  13.918   5.718
84785SOL     OW56251   4.510   8.023   9.765
84785SOL    HW156252   4.523   8.107   9.808
84785SOL    HW256253   4.519   7.958   9.835
84786SOL     OW56254   8.514   9.388   5.365
84786SOL    HW156255   8.421   9.405   5.379
84786SOL    HW256256   8.554   9.475   5.368
84787SOL     OW56257  10.199   9.515   5.575
84787SOL    HW156258  10.285   9.485   5.603
84787SOL    HW256259  10.155   9.437   5.542
84788SOL     OW56260   6.755   1.401  13.418
84788SOL    HW156261   6.809   1.336  13.462
84788SOL    HW256262   6.665   1.373  13.435
84789SOL     OW56263  12.890   0.885   9.214
84789SOL    HW156264  12.984   0.865   9.218
84789SOL    HW256265  12.848   0.811   9.258
84790SOL     OW56266   6.393   9.178   0.794
84790SOL    HW156267   6.319   9.121   0.814
84790SOL    HW256268   6.441   9.132   0.725
84791SOL     OW56269   6.114  12.107   6.201
84791SOL    HW156270   6.057  12.123   6.125
84791SOL    HW256271   6.178  12.043   6.169
84792SOL     OW56272   2.269   5.114   2.665
84792SOL    HW156273   2.208   5.040   2.660
84792SOL    HW256274   2.292   5.132   2.574
84793SOL     OW56275   5.158   1.323  11.006
84793SOL    HW156276   5.123   1.363  10.927
84793SOL    HW256277   5.106   1.361  11.077
84794SOL     OW56278   7.234   4.999   3.301
84794SOL    HW156279   7.295   5.067   3.331
84794SOL    HW256280   7.155   5.047   3.275
84795SOL     OW56281  12.399  12.998  13.141
84795SOL    HW156282  12.342  12.931  13.177
84795SOL    HW256283  12.469  12.950  13.098
84796SOL     OW56284  12.034   4.910  13.551
84796SOL    HW156285  12.104   4.957  13.505
84796SOL    HW256286  11.997   4.851  13.485
84797SOL     OW56287   9.211   9.233  13.378
84797SOL    HW156288   9.237   9.164  13.317
84797SOL    HW256289   9.164   9.188  13.447
84798SOL     OW56290   6.532  13.161   6.947
84798SOL    HW156291   6.617  13.142   6.907
84798SOL    HW256292   6.481  13.081   6.934
84799SOL     OW56293  14.329   4.775   3.113
84799SOL    HW156294  14.277   4.695   3.106
84799SOL    HW256295  14.296   4.832   3.044
84800SOL     OW56296   5.420  11.991  14.327
84800SOL    HW156297   5.396  11.932  14.399
84800SOL    HW256298   5.353  11.975  14.260
84801SOL     OW56299   6.410   8.253   7.226
84801SOL    HW156300   6.435   8.217   7.311
84801SOL    HW256301   6.453   8.197   7.162
84802SOL     OW56302   3.363   8.922   9.845
84802SOL    HW156303   3.432   8.964   9.896
84802SOL    HW256304   3.333   8.849   9.899
84803SOL     OW56305   3.029   0.331   4.480
84803SOL    HW156306   2.972   0.369   4.548
84803SOL    HW256307   3.113   0.318   4.524
84804SOL     OW56308   2.307   4.830   4.219
84804SOL    HW156309   2.289   4.824   4.313
84804SOL    HW256310   2.270   4.749   4.182
84805SOL     OW56311  10.925  14.391  14.164
84805SOL    HW156312  10.878  14.372  14.244
84805SOL    HW256313  10.934  14.307  14.120
84806SOL     OW56314   6.268   1.633  14.022
84806SOL    HW156315   6.248   1.561  13.962
84806SOL    HW256316   6.343   1.601  14.073
84807SOL     OW56317  12.353  10.882  11.454
84807SOL    HW156318  12.388  10.968  11.478
84807SOL    HW256319  12.349  10.834  11.536
84808SOL     OW56320   7.310   6.896  14.491
84808SOL    HW156321   7.351   6.906  14.405
84808SOL    HW256322   7.282   6.984  14.515
84809SOL     OW56323   5.263  14.829  10.864
84809SOL    HW156324   5.212  14.749  10.851
84809SOL    HW256325   5.354  14.800  10.867
84810SOL     OW56326   0.955  13.079  13.822
84810SOL    HW156327   0.879  13.128  13.791
84810SOL    HW256328   0.971  13.112  13.910
84811SOL     OW56329  13.606   7.852  14.381
84811SOL    HW156330  13.577   7.783  14.322
84811SOL    HW256331  13.565   7.932  14.348
84812SOL     OW56332   2.063   2.950   1.985
84812SOL    HW156333   2.154   2.972   2.006
84812SOL    HW256334   2.032   3.026   1.934
84813SOL     OW56335  12.274   6.748   7.731
84813SOL    HW156336  12.231   6.816   7.679
84813SOL    HW256337  12.249   6.767   7.822
84814SOL     OW56338   6.681  10.757  10.178
84814SOL    HW156339   6.612  10.744  10.114
84814SOL    HW256340   6.756  10.709  10.143
84815SOL     OW56341  11.360   0.797   6.446
84815SOL    HW156342  11.278   0.748   6.451
84815SOL    HW256343  11.346   0.872   6.505
84816SOL     OW56344  10.833  12.235   5.243
84816SOL    HW156345  10.840  12.311   5.185
84816SOL    HW256346  10.758  12.254   5.299
84817SOL     OW56347  14.402  11.748  14.282
84817SOL    HW156348  14.394  11.674  14.222
84817SOL    HW256349  14.456  11.811  14.235
84818SOL     OW56350   4.832   0.226   4.593
84818SOL    HW156351   4.796   0.279   4.664
84818SOL    HW256352   4.917   0.267   4.574
84819SOL     OW56353   3.193  12.783   3.117
84819SOL    HW156354   3.148  12.809   3.198
84819SOL    HW256355   3.245  12.706   3.143
84820SOL     OW56356   7.631   6.460   0.589
84820SOL    HW156357   7.576   6.486   0.515
84820SOL    HW256358   7.593   6.378   0.620
84821SOL     OW56359   8.917   7.739   5.803
84821SOL    HW156360   8.973   7.809   5.771
84821SOL    HW256361   8.890   7.767   5.890
84822SOL     OW56362   3.250   7.570  11.179
84822SOL    HW156363   3.179   7.539  11.234
84822SOL    HW256364   3.287   7.491  11.139
84823SOL     OW56365   2.013   2.040  14.083
84823SOL    HW156366   2.042   1.975  14.020
84823SOL    HW256367   2.013   1.994  14.167
84824SOL     OW56368   6.554   8.213  14.492
84824SOL    HW156369   6.525   8.185  14.404
84824SOL    HW256370   6.623   8.151  14.515
84825SOL     OW56371  13.643  14.763   8.673
84825SOL    HW156372  13.707  14.693   8.660
84825SOL    HW256373  13.597  14.739   8.753
84826SOL     OW56374   0.291   8.634   6.914
84826SOL    HW156375   0.307   8.710   6.857
84826SOL    HW256376   0.374   8.588   6.916
84827SOL     OW56377   1.238   2.951   1.197
84827SOL    HW156378   1.251   3.045   1.206
84827SOL    HW256379   1.247   2.933   1.104
84828SOL     OW56380   4.484   4.783  10.347
84828SOL    HW156381   4.562   4.833  10.370
84828SOL    HW256382   4.511   4.692  10.350
84829SOL     OW56383   1.382   6.482   7.364
84829SOL    HW156384   1.355   6.465   7.455
84829SOL    HW256385   1.398   6.395   7.328
84830SOL     OW56386  11.176   0.080   5.269
84830SOL    HW156387  11.164   0.172   5.244
84830SOL    HW256388  11.159   0.031   5.189
84831SOL     OW56389   6.784   5.934   1.937
84831SOL    HW156390   6.738   6.011   1.904
84831SOL    HW256391   6.861   5.926   1.882
84832SOL     OW56392   3.850   4.995  11.570
84832SOL    HW156393   3.835   5.032  11.483
84832SOL    HW256394   3.767   4.954  11.593
84833SOL     OW56395   2.304   8.762   7.910
84833SOL    HW156396   2.267   8.836   7.861
84833SOL    HW256397   2.369   8.724   7.851
84834SOL     OW56398   0.851  11.797   5.916
84834SOL    HW156399   0.871  11.729   5.981
84834SOL    HW256400   0.933  11.845   5.906
84835SOL     OW56401   1.694   0.448  14.880
84835SOL    HW156402   1.719   0.356   0.011
84835SOL    HW256403   1.767   0.486  14.831
84836SOL     OW56404   9.612   8.312   5.675
84836SOL    HW156405   9.575   8.393   5.710
84836SOL    HW256406   9.630   8.259   5.753
84837SOL     OW56407  10.880   6.051  10.127
84837SOL    HW156408  10.945   6.004  10.179
84837SOL    HW256409  10.931   6.098  10.061
84838SOL     OW56410  10.904  12.970   8.977
84838SOL    HW156411  10.932  12.928   9.058
84838SOL    HW256412  10.945  12.918   8.908
84839SOL     OW56413   7.639  10.919  11.654
84839SOL    HW156414   7.559  10.948  11.611
84839SOL    HW256415   7.609  10.858  11.721
84840SOL     OW56416   9.715   4.212   0.740
84840SOL    HW156417   9.659   4.257   0.803
84840SOL    HW256418   9.714   4.268   0.662
84841SOL     OW56419   8.222   8.222  12.101
84841SOL    HW156420   8.260   8.305  12.131
84841SOL    HW256421   8.262   8.206  12.016
84842SOL     OW56422  13.512  14.627   5.957
84842SOL    HW156423  13.568  14.550   5.964
84842SOL    HW256424  13.566  14.693   5.913
84843SOL     OW56425  12.089  10.633  14.028
84843SOL    HW156426  12.076  10.682  13.947
84843SOL    HW256427  12.002  10.598  14.050
84844SOL     OW56428   2.118   2.819  14.276
84844SOL    HW156429   2.175   2.812  14.199
84844SOL    HW256430   2.031   2.832  14.239
84845SOL     OW56431  12.201   0.624   8.509
84845SOL    HW156432  12.260   0.649   8.581
84845SOL    HW256433  12.116   0.660   8.534
84846SOL     OW56434   0.463  11.789   3.422
84846SOL    HW156435   0.510  11.821   3.499
84846SOL    HW256436   0.423  11.867   3.384
84847SOL     OW56437  13.123   7.718   6.951
84847SOL    HW156438  13.034   7.729   6.918
84847SOL    HW256439  13.173   7.788   6.908
84848SOL     OW56440   7.971   6.464   4.224
84848SOL    HW156441   7.931   6.494   4.305
84848SOL    HW256442   8.028   6.536   4.197
84849SOL     OW56443   9.889   6.137  10.043
84849SOL    HW156444   9.921   6.048  10.026
84849SOL    HW256445   9.891   6.146  10.138
84850SOL     OW56446  11.561   4.014   0.186
84850SOL    HW156447  11.589   4.104   0.204
84850SOL    HW256448  11.592   3.998   0.096
84851SOL     OW56449   3.206  12.993   7.389
84851SOL    HW156450   3.195  12.972   7.482
84851SOL    HW256451   3.181  12.913   7.343
84852SOL     OW56452   5.119   8.167  10.242
84852SOL    HW156453   5.096   8.247  10.289
84852SOL    HW256454   5.099   8.096  10.303
84853SOL     OW56455   2.978   8.491  13.815
84853SOL    HW156456   2.959   8.399  13.797
84853SOL    HW256457   3.043   8.488  13.885
84854SOL     OW56458   7.060  14.091  14.033
84854SOL    HW156459   7.009  14.010  14.030
84854SOL    HW256460   7.118  14.079  14.109
84855SOL     OW56461   3.122  11.675  11.754
84855SOL    HW156462   3.047  11.647  11.701
84855SOL    HW256463   3.109  11.632  11.838
84856SOL     OW56464   9.371   0.571   5.233
84856SOL    HW156465   9.355   0.658   5.197
84856SOL    HW256466   9.465   0.556   5.220
84857SOL     OW56467   2.323  12.600   8.610
84857SOL    HW156468   2.373  12.572   8.533
84857SOL    HW256469   2.362  12.685   8.633
84858SOL     OW56470   1.714  13.879  11.844
84858SOL    HW156471   1.671  13.957  11.877
84858SOL    HW256472   1.643  13.816  11.833
84859SOL     OW56473  11.694   3.205   3.724
84859SOL    HW156474  11.612   3.208   3.773
84859SOL    HW256475  11.691   3.281   3.667
84860SOL     OW56476   1.333  11.213   0.346
84860SOL    HW156477   1.267  11.227   0.414
84860SOL    HW256478   1.302  11.135   0.299
84861SOL     OW56479   8.558  14.361  11.183
84861SOL    HW156480   8.651  14.381  11.197
84861SOL    HW256481   8.543  14.283  11.236
84862SOL     OW56482  14.237   4.619   0.548
84862SOL    HW156483  14.229   4.594   0.456
84862SOL    HW256484  14.300   4.691   0.548
84863SOL     OW56485   3.520  13.322   9.633
84863SOL    HW156486   3.449  13.353   9.689
84863SOL    HW256487   3.494  13.349   9.544
84864SOL     OW56488  12.247   8.953  13.582
84864SOL    HW156489  12.271   8.967  13.674
84864SOL    HW256490  12.312   8.889  13.550
84865SOL     OW56491   6.438   9.061  12.792
84865SOL    HW156492   6.431   9.155  12.779
84865SOL    HW256493   6.378   9.042  12.864
84866SOL     OW56494   0.902  14.455   5.778
84866SOL    HW156495   0.869  14.399   5.708
84866SOL    HW256496   0.825  14.500   5.811
84867SOL     OW56497   7.932  14.847  10.852
84867SOL    HW156498   7.870   0.001  10.788
84867SOL    HW256499   8.017   0.001  10.824
84868SOL     OW56500  10.346   0.834  11.057
84868SOL    HW156501  10.378   0.745  11.042
84868SOL    HW256502  10.312   0.862  10.972
84869SOL     OW56503   6.148   4.746   4.731
84869SOL    HW156504   6.244   4.743   4.732
84869SOL    HW256505   6.124   4.778   4.818
84870SOL     OW56506   6.224   4.404   6.970
84870SOL    HW156507   6.234   4.448   6.885
84870SOL    HW256508   6.138   4.362   6.965
84871SOL     OW56509  13.191   9.693   9.191
84871SOL    HW156510  13.238   9.776   9.195
84871SOL    HW256511  13.104   9.712   9.227
84872SOL     OW56512   3.346   3.432   6.916
84872SOL    HW156513   3.345   3.526   6.932
84872SOL    HW256514   3.255   3.409   6.901
84873SOL     OW56515   8.111  13.080  10.687
84873SOL    HW156516   8.143  13.021  10.755
84873SOL    HW256517   8.127  13.168  10.723
84874SOL     OW56518   6.374   8.413   5.054
84874SOL    HW156519   6.353   8.419   5.148
84874SOL    HW256520   6.466   8.439   5.049
84875SOL     OW56521   8.205   0.131   1.084
84875SOL    HW156522   8.125   0.178   1.108
84875SOL    HW256523   8.182   0.084   1.004
84876SOL     OW56524   3.879   6.945   5.791
84876SOL    HW156525   3.845   6.864   5.828
84876SOL    HW256526   3.801   6.994   5.765
84877SOL     OW56527  12.252   4.333  12.121
84877SOL    HW156528  12.205   4.403  12.075
84877SOL    HW256529  12.279   4.372  12.204
84878SOL     OW56530   0.533   8.126   4.929
84878SOL    HW156531   0.553   8.032   4.928
84878SOL    HW256532   0.459   8.134   4.990
84879SOL     OW56533   4.420   9.853  12.651
84879SOL    HW156534   4.362   9.922  12.683
84879SOL    HW256535   4.417   9.786  12.719
84880SOL     OW56536  14.583   0.596   2.316
84880SOL    HW156537  14.668   0.553   2.318
84880SOL    HW256538  14.553   0.586   2.226
84881SOL     OW56539  12.080  11.895   3.327
84881SOL    HW156540  12.008  11.839   3.356
84881SOL    HW256541  12.067  11.977   3.375
84882SOL     OW56542   4.207  12.660   1.496
84882SOL    HW156543   4.297  12.643   1.467
84882SOL    HW256544   4.152  12.625   1.426
84883SOL     OW56545  11.226   8.635  10.767
84883SOL    HW156546  11.173   8.704  10.727
84883SOL    HW256547  11.233   8.661  10.859
84884SOL     OW56548  11.237   5.612   5.355
84884SOL    HW156549  11.183   5.653   5.423
84884SOL    HW256550  11.206   5.521   5.352
84885SOL     OW56551  12.583   5.341   8.887
84885SOL    HW156552  12.608   5.278   8.818
84885SOL    HW256553  12.642   5.321   8.959
84886SOL     OW56554   7.283   3.692   2.455
84886SOL    HW156555   7.205   3.711   2.404
84886SOL    HW256556   7.293   3.597   2.451
84887SOL     OW56557   5.376  10.807  10.860
84887SOL    HW156558   5.407  10.880  10.807
84887SOL    HW256559   5.283  10.824  10.874
84888SOL     OW56560   0.641   4.027   0.213
84888SOL    HW156561   0.583   4.102   0.229
84888SOL    HW256562   0.621   4.000   0.123
84889SOL     OW56563   4.119   0.812  14.607
84889SOL    HW156564   4.187   0.878  14.594
84889SOL    HW256565   4.060   0.824  14.533
84890SOL     OW56566  10.950   3.045   4.674
84890SOL    HW156567  10.915   2.956   4.679
84890SOL    HW256568  10.877   3.101   4.699
84891SOL     OW56569   7.024   3.517  12.723
84891SOL    HW156570   7.097   3.534  12.782
84891SOL    HW256571   7.065   3.483  12.643
84892SOL     OW56572   1.935  11.344   6.940
84892SOL    HW156573   2.005  11.382   6.993
84892SOL    HW256574   1.944  11.387   6.855
84893SOL     OW56575   6.790  14.276   3.957
84893SOL    HW156576   6.707  14.236   3.983
84893SOL    HW256577   6.778  14.298   3.865
84894SOL     OW56578   9.946   0.211  13.279
84894SOL    HW156579  10.030   0.176  13.251
84894SOL    HW256580   9.885   0.138  13.273
84895SOL     OW56581   8.601   4.766   4.350
84895SOL    HW156582   8.545   4.803   4.419
84895SOL    HW256583   8.663   4.836   4.330
84896SOL     OW56584   5.173   9.885  11.436
84896SOL    HW156585   5.117   9.893  11.513
84896SOL    HW256586   5.133   9.815  11.384
84897SOL     OW56587   9.891   6.389   5.361
84897SOL    HW156588   9.804   6.388   5.400
84897SOL    HW256589   9.911   6.482   5.349
84898SOL     OW56590  14.366   1.262   0.667
84898SOL    HW156591  14.406   1.295   0.586
84898SOL    HW256592  14.340   1.172   0.646
84899SOL     OW56593   3.297  14.661   1.264
84899SOL    HW156594   3.300  14.728   1.333
84899SOL    HW256595   3.388  14.640   1.246
84900SOL     OW56596   5.677  12.269   9.267
84900SOL    HW156597   5.597  12.286   9.317
84900SOL    HW256598   5.647  12.246   9.180
84901SOL     OW56599   0.370  14.748   3.849
84901SOL    HW156600   0.429  14.807   3.803
84901SOL    HW256601   0.304  14.725   3.784
84902SOL     OW56602   6.332   0.425   3.711
84902SOL    HW156603   6.398   0.477   3.755
84902SOL    HW256604   6.251   0.475   3.723
84903SOL     OW56605   6.998  10.060   1.966
84903SOL    HW156606   7.013  10.117   1.891
84903SOL    HW256607   7.016  10.115   2.042
84904SOL     OW56608  11.812   1.322   1.832
84904SOL    HW156609  11.820   1.349   1.740
84904SOL    HW256610  11.731   1.363   1.862
84905SOL     OW56611   1.981   5.725  10.490
84905SOL    HW156612   2.054   5.721  10.428
84905SOL    HW256613   2.023   5.728  10.576
84906SOL     OW56614   3.374   9.250   7.787
84906SOL    HW156615   3.340   9.164   7.760
84906SOL    HW256616   3.461   9.231   7.821
84907SOL     OW56617   9.076   1.826   9.010
84907SOL    HW156618   9.006   1.767   9.037
84907SOL    HW256619   9.157   1.777   9.024
84908SOL     OW56620  14.233   2.629  14.472
84908SOL    HW156621  14.236   2.655  14.564
84908SOL    HW256622  14.254   2.536  14.472
84909SOL     OW56623   6.250   1.241   9.419
84909SOL    HW156624   6.307   1.303   9.372
84909SOL    HW256625   6.231   1.173   9.355
84910SOL     OW56626  14.074   8.887   0.891
84910SOL    HW156627  14.085   8.953   0.959
84910SOL    HW256628  14.163   8.867   0.863
84911SOL     OW56629   8.936   3.934  14.455
84911SOL    HW156630   8.859   3.915  14.401
84911SOL    HW256631   9.001   3.967  14.393
84912SOL     OW56632   6.051  11.577   0.874
84912SOL    HW156633   6.029  11.665   0.845
84912SOL    HW256634   6.144  11.582   0.898
84913SOL     OW56635   3.037   2.060   7.674
84913SOL    HW156636   3.022   1.975   7.717
84913SOL    HW256637   3.127   2.055   7.641
84914SOL     OW56638   7.493   4.152  10.329
84914SOL    HW156639   7.422   4.111  10.279
84914SOL    HW256640   7.548   4.079  10.356
84915SOL     OW56641  11.628   6.149  14.366
84915SOL    HW156642  11.536   6.174  14.353
84915SOL    HW256643  11.674   6.232  14.375
84916SOL     OW56644   8.861   9.486   2.028
84916SOL    HW156645   8.827   9.423   1.964
84916SOL    HW256646   8.800   9.480   2.102
84917SOL     OW56647   5.243   6.087   4.907
84917SOL    HW156648   5.220   6.173   4.942
84917SOL    HW256649   5.337   6.095   4.886
84918SOL     OW56650   0.804   3.253   2.831
84918SOL    HW156651   0.796   3.279   2.740
84918SOL    HW256652   0.786   3.159   2.831
84919SOL     OW56653  12.253   8.772   5.394
84919SOL    HW156654  12.181   8.834   5.398
84919SOL    HW256655  12.327   8.822   5.359
84920SOL     OW56656   4.123   7.790   6.089
84920SOL    HW156657   4.107   7.848   6.015
84920SOL    HW256658   4.139   7.849   6.163
84921SOL     OW56659  12.656  12.956   3.935
84921SOL    HW156660  12.626  12.974   3.846
84921SOL    HW256661  12.579  12.925   3.982
84922SOL     OW56662  10.506   2.027   4.518
84922SOL    HW156663  10.464   2.112   4.533
84922SOL    HW256664  10.480   2.003   4.429
84923SOL     OW56665   7.171   3.209   0.722
84923SOL    HW156666   7.097   3.152   0.743
84923SOL    HW256667   7.179   3.204   0.627
84924SOL     OW56668   6.025   1.006  10.654
84924SOL    HW156669   6.007   1.100  10.658
84924SOL    HW256670   5.966   0.967  10.719
84925SOL     OW56671   5.207   5.060  14.054
84925SOL    HW156672   5.261   5.083  14.129
84925SOL    HW256673   5.211   4.965  14.049
84926SOL     OW56674   3.763  11.557   2.327
84926SOL    HW156675   3.675  11.590   2.309
84926SOL    HW256676   3.785  11.593   2.414
84927SOL     OW56677   9.245   5.014   2.442
84927SOL    HW156678   9.261   4.994   2.534
84927SOL    HW256679   9.318   4.973   2.396
84928SOL     OW56680   5.768  11.040  13.535
84928SOL    HW156681   5.854  11.082  13.546
84928SOL    HW256682   5.788  10.954  13.499
84929SOL     OW56683  12.527   0.642   5.030
84929SOL    HW156684  12.439   0.677   5.047
84929SOL    HW256685  12.584   0.718   5.027
84930SOL     OW56686   0.899   1.857   5.913
84930SOL    HW156687   0.940   1.889   5.834
84930SOL    HW256688   0.926   1.765   5.919
84931SOL     OW56689   2.863  12.508  14.572
84931SOL    HW156690   2.915  12.517  14.652
84931SOL    HW256691   2.778  12.544  14.594
84932SOL     OW56692   6.118  12.489  12.173
84932SOL    HW156693   6.111  12.408  12.224
84932SOL    HW256694   6.197  12.531  12.207
84933SOL     OW56695   4.158   4.858   5.682
84933SOL    HW156696   4.196   4.808   5.609
84933SOL    HW256697   4.231   4.869   5.743
84934SOL     OW56698  10.442   2.129   9.357
84934SOL    HW156699  10.358   2.161   9.391
84934SOL    HW256700  10.467   2.059   9.417
84935SOL     OW56701   0.273   0.525   1.910
84935SOL    HW156702   0.310   0.517   1.998
84935SOL    HW256703   0.189   0.480   1.915
84936SOL     OW56704   6.367   2.921   2.298
84936SOL    HW156705   6.341   2.938   2.388
84936SOL    HW256706   6.306   2.854   2.266
84937SOL     OW56707   7.642   2.263  14.373
84937SOL    HW156708   7.594   2.341  14.401
84937SOL    HW256709   7.734   2.285  14.390
84938SOL     OW56710   4.149  13.415  10.719
84938SOL    HW156711   4.069  13.372  10.748
84938SOL    HW256712   4.181  13.462  10.796
84939SOL     OW56713  11.748  10.625  11.169
84939SOL    HW156714  11.766  10.569  11.094
84939SOL    HW256715  11.743  10.713  11.133
84940SOL     OW56716   6.828   5.849  11.924
84940SOL    HW156717   6.791   5.812  11.844
84940SOL    HW256718   6.755   5.851  11.986
84941SOL     OW56719  10.850   5.934  12.062
84941SOL    HW156720  10.780   5.907  12.002
84941SOL    HW256721  10.831   5.888  12.143
84942SOL     OW56722   6.200   7.364   7.523
84942SOL    HW156723   6.135   7.432   7.507
84942SOL    HW256724   6.276   7.391   7.472
84943SOL     OW56725   1.784  14.763  14.107
84943SOL    HW156726   1.689  14.772  14.107
84943SOL    HW256727   1.800  14.674  14.138
84944SOL     OW56728   3.213   9.562   4.149
84944SOL    HW156729   3.261   9.525   4.223
84944SOL    HW256730   3.162   9.489   4.114
84945SOL     OW56731  13.170   2.721  13.860
84945SOL    HW156732  13.262   2.749  13.865
84945SOL    HW256733  13.119   2.801  13.871
84946SOL     OW56734   3.728   2.198  10.844
84946SOL    HW156735   3.662   2.266  10.844
84946SOL    HW256736   3.792   2.225  10.778
84947SOL     OW56737   5.189   7.771  12.878
84947SOL    HW156738   5.281   7.790  12.862
84947SOL    HW256739   5.186   7.747  12.971
84948SOL     OW56740  12.618  14.252   2.582
84948SOL    HW156741  12.658  14.334   2.556
84948SOL    HW256742  12.597  14.264   2.675
84949SOL     OW56743   4.785   2.432   3.483
84949SOL    HW156744   4.709   2.479   3.518
84949SOL    HW256745   4.841   2.418   3.559
84950SOL     OW56746   8.541  13.396   7.201
84950SOL    HW156747   8.494  13.420   7.280
84950SOL    HW256748   8.594  13.473   7.180
84951SOL     OW56749   2.196  10.414   8.950
84951SOL    HW156750   2.103  10.398   8.964
84951SOL    HW256751   2.237  10.398   9.035
84952SOL     OW56752   3.336  10.453   7.458
84952SOL    HW156753   3.409  10.503   7.494
84952SOL    HW256754   3.352  10.451   7.364
84953SOL     OW56755   8.758  12.734  10.834
84953SOL    HW156756   8.769  12.779  10.917
84953SOL    HW256757   8.742  12.643  10.858
84954SOL     OW56758   9.105   4.887   4.042
84954SOL    HW156759   9.155   4.968   4.048
84954SOL    HW256760   9.014   4.915   4.032
84955SOL     OW56761   0.126   9.445   4.137
84955SOL    HW156762   0.053   9.436   4.198
84955SOL    HW256763   0.140   9.540   4.130
84956SOL     OW56764  11.156   5.200   3.102
84956SOL    HW156765  11.191   5.249   3.176
84956SOL    HW256766  11.183   5.109   3.119
84957SOL     OW56767   5.783   9.887  12.325
84957SOL    HW156768   5.690   9.867  12.319
84957SOL    HW256769   5.788   9.963  12.383
84958SOL     OW56770   8.607   5.261   6.907
84958SOL    HW156771   8.659   5.267   6.827
84958SOL    HW256772   8.663   5.298   6.975
84959SOL     OW56773   9.343  10.547   7.812
84959SOL    HW156774   9.292  10.611   7.762
84959SOL    HW256775   9.422  10.533   7.761
84960SOL     OW56776  14.783  14.516   5.508
84960SOL    HW156777  14.773  14.434   5.460
84960SOL    HW256778  14.758  14.494   5.598
84961SOL     OW56779  11.593  12.846   3.492
84961SOL    HW156780  11.607  12.868   3.400
84961SOL    HW256781  11.511  12.889   3.515
84962SOL     OW56782   2.563  12.646   2.309
84962SOL    HW156783   2.557  12.731   2.352
84962SOL    HW256784   2.642  12.652   2.255
84963SOL     OW56785  13.075   8.738  11.657
84963SOL    HW156786  13.052   8.811  11.600
84963SOL    HW256787  13.079   8.777  11.744
84964SOL     OW56788  13.209   7.139   8.559
84964SOL    HW156789  13.147   7.212   8.552
84964SOL    HW256790  13.160   7.069   8.601
84965SOL     OW56791   0.339   5.458   1.745
84965SOL    HW156792   0.289   5.457   1.663
84965SOL    HW256793   0.380   5.545   1.746
84966SOL     OW56794   5.833  12.296   2.718
84966SOL    HW156795   5.873  12.216   2.752
84966SOL    HW256796   5.831  12.284   2.623
84967SOL     OW56797   2.825   0.922  14.560
84967SOL    HW156798   2.888   0.917  14.632
84967SOL    HW256799   2.739   0.924  14.603
84968SOL     OW56800  10.844   4.112  11.979
84968SOL    HW156801  10.869   4.071  11.896
84968SOL    HW256802  10.750   4.100  11.985
84969SOL     OW56803  10.748   9.597   0.788
84969SOL    HW156804  10.695   9.519   0.802
84969SOL    HW256805  10.823   9.586   0.847
84970SOL     OW56806   5.356   6.943   2.020
84970SOL    HW156807   5.425   7.004   2.045
84970SOL    HW256808   5.362   6.936   1.925
84971SOL     OW56809   6.032   7.286  12.329
84971SOL    HW156810   5.994   7.239  12.403
84971SOL    HW256811   5.983   7.256  12.253
84972SOL     OW56812  14.152  10.534   3.054
84972SOL    HW156813  14.183  10.483   2.979
84972SOL    HW256814  14.231  10.568   3.094
84973SOL     OW56815   9.075   0.544   8.143
84973SOL    HW156816   9.128   0.623   8.152
84973SOL    HW256817   9.116   0.480   8.202
84974SOL     OW56818   7.739   3.762  10.782
84974SOL    HW156819   7.801   3.727  10.846
84974SOL    HW256820   7.788   3.829  10.735
84975SOL     OW56821   2.078   5.925   6.682
84975SOL    HW156822   2.172   5.918   6.662
84975SOL    HW256823   2.065   6.017   6.706
84976SOL     OW56824  14.842   3.818  10.237
84976SOL    HW156825  14.795   3.786  10.313
84976SOL    HW256826   0.054   3.812  10.261
84977SOL     OW56827  11.485   0.754   5.632
84977SOL    HW156828  11.446   0.841   5.642
84977SOL    HW256829  11.426   0.708   5.573
84978SOL     OW56830   2.569   6.851   4.979
84978SOL    HW156831   2.660   6.821   4.977
84978SOL    HW256832   2.572   6.937   4.937
84979SOL     OW56833   3.095  13.897   1.961
84979SOL    HW156834   3.178  13.888   1.914
84979SOL    HW256835   3.055  13.976   1.925
84980SOL     OW56836   1.847  11.008   1.737
84980SOL    HW156837   1.922  11.001   1.796
84980SOL    HW256838   1.792  10.933   1.758
84981SOL     OW56839  14.239   5.743   9.621
84981SOL    HW156840  14.163   5.701   9.580
84981SOL    HW256841  14.313   5.715   9.566
84982SOL     OW56842   1.254   4.793   0.657
84982SOL    HW156843   1.228   4.701   0.648
84982SOL    HW256844   1.302   4.811   0.576
84983SOL     OW56845  10.423  10.624  11.112
84983SOL    HW156846  10.384  10.701  11.071
84983SOL    HW256847  10.352  10.587  11.165
84984SOL     OW56848   9.902  13.238  11.000
84984SOL    HW156849   9.939  13.274  11.080
84984SOL    HW256850   9.978  13.210  10.948
84985SOL     OW56851   6.433   2.878   9.371
84985SOL    HW156852   6.390   2.964   9.376
84985SOL    HW256853   6.371   2.822   9.325
84986SOL     OW56854  10.743  13.044   2.040
84986SOL    HW156855  10.818  13.089   2.001
84986SOL    HW256856  10.715  13.100   2.111
84987SOL     OW56857   8.968   6.621  13.106
84987SOL    HW156858   9.014   6.559  13.163
84987SOL    HW256859   9.037   6.681  13.076
84988SOL     OW56860   9.150   6.103   4.231
84988SOL    HW156861   9.162   6.105   4.326
84988SOL    HW256862   9.086   6.034   4.216
84989SOL     OW56863   1.814   5.787  12.520
84989SOL    HW156864   1.784   5.878  12.518
84989SOL    HW256865   1.901   5.792  12.560
84990SOL     OW56866  13.035  10.121   6.239
84990SOL    HW156867  13.119  10.089   6.272
84990SOL    HW256868  12.975  10.111   6.313
84991SOL     OW56869   7.988   3.960   1.169
84991SOL    HW156870   8.072   4.002   1.191
84991SOL    HW256871   7.964   3.913   1.249
84992SOL     OW56872   0.403   8.011   6.626
84992SOL    HW156873   0.309   8.026   6.638
84992SOL    HW256874   0.410   7.917   6.606
84993SOL     OW56875   1.836   8.260   3.752
84993SOL    HW156876   1.774   8.264   3.679
84993SOL    HW256877   1.845   8.167   3.772
84994SOL     OW56878  12.225  10.490   7.001
84994SOL    HW156879  12.193  10.475   7.089
84994SOL    HW256880  12.162  10.551   6.962
84995SOL     OW56881  10.587   1.712   7.468
84995SOL    HW156882  10.589   1.616   7.467
84995SOL    HW256883  10.494   1.734   7.459
84996SOL     OW56884   9.357   6.662  14.535
84996SOL    HW156885   9.447   6.643  14.559
84996SOL    HW256886   9.356   6.661  14.439
84997SOL     OW56887   7.871   3.685  13.534
84997SOL    HW156888   7.948   3.644  13.496
84997SOL    HW256889   7.836   3.740  13.465
84998SOL     OW56890  14.127   3.641   8.331
84998SOL    HW156891  14.163   3.607   8.413
84998SOL    HW256892  14.131   3.567   8.271
84999SOL     OW56893   2.217   2.693  10.117
84999SOL    HW156894   2.246   2.780  10.143
84999SOL    HW256895   2.122   2.694  10.133
85000SOL     OW56896  12.501  12.833   5.698
85000SOL    HW156897  12.544  12.770   5.641
85000SOL    HW256898  12.552  12.830   5.779
85001SOL     OW56899   4.952  12.078   8.976
85001SOL    HW156900   4.901  12.128   9.039
85001SOL    HW256901   4.993  12.009   9.029
85002SOL     OW56902   7.624   3.539   7.911
85002SOL    HW156903   7.556   3.601   7.883
85002SOL    HW256904   7.706   3.587   7.899
85003SOL     OW56905   8.833  10.654   7.871
85003SOL    HW156906   8.740  10.663   7.849
85003SOL    HW256907   8.834  10.588   7.941
85004SOL     OW56908   1.408   1.537  13.167
85004SOL    HW156909   1.482   1.597  13.172
85004SOL    HW256910   1.350   1.576  13.101
85005SOL     OW56911  10.205  14.515   1.933
85005SOL    HW156912  10.251  14.579   1.987
85005SOL    HW256913  10.259  14.436   1.938
85006SOL     OW56914  14.229   7.778   0.379
85006SOL    HW156915  14.258   7.848   0.437
85006SOL    HW256916  14.135   7.791   0.370
85007SOL     OW56917   2.812   0.118  11.433
85007SOL    HW156918   2.849   0.188  11.379
85007SOL    HW256919   2.717   0.125  11.420
85008SOL     OW56920  10.912   1.757   5.229
85008SOL    HW156921  10.942   1.841   5.193
85008SOL    HW256922  10.831   1.739   5.182
85009SOL     OW56923   4.471  12.436   1.547
85009SOL    HW156924   4.526  12.389   1.610
85009SOL    HW256925   4.388  12.389   1.548
85010SOL     OW56926   4.316  11.993  11.889
85010SOL    HW156927   4.326  12.035  11.804
85010SOL    HW256928   4.365  12.050  11.949
85011SOL     OW56929   0.324   1.469   8.553
85011SOL    HW156930   0.315   1.468   8.458
85011SOL    HW256931   0.352   1.380   8.575
85012SOL     OW56932   0.601   3.160   1.648
85012SOL    HW156933   0.578   3.095   1.581
85012SOL    HW256934   0.557   3.130   1.727
85013SOL     OW56935   4.176   3.687   0.698
85013SOL    HW156936   4.146   3.718   0.613
85013SOL    HW256937   4.202   3.767   0.744
85014SOL     OW56938  11.651   7.372  13.267
85014SOL    HW156939  11.704   7.451  13.282
85014SOL    HW256940  11.615   7.351  13.353
85015SOL     OW56941   2.720  12.777   3.504
85015SOL    HW156942   2.643  12.833   3.516
85015SOL    HW256943   2.791  12.822   3.550
85016SOL     OW56944   1.611   3.720   6.260
85016SOL    HW156945   1.609   3.803   6.211
85016SOL    HW256946   1.559   3.736   6.338
85017SOL     OW56947  10.365   2.531   8.166
85017SOL    HW156948  10.438   2.563   8.218
85017SOL    HW256949  10.367   2.436   8.177
85018SOL     OW56950   6.992   6.850   0.544
85018SOL    HW156951   6.928   6.779   0.539
85018SOL    HW256952   7.019   6.864   0.453
85019SOL     OW56953   6.192  14.097   5.654
85019SOL    HW156954   6.268  14.130   5.701
85019SOL    HW256955   6.190  14.003   5.676
85020SOL     OW56956   2.949  11.805  13.946
85020SOL    HW156957   2.904  11.888  13.962
85020SOL    HW256958   3.020  11.827  13.886
85021SOL     OW56959  11.521   1.911  14.431
85021SOL    HW156960  11.524   1.816  14.440
85021SOL    HW256961  11.563   1.944  14.510
85022SOL     OW56962   6.992  12.353  12.277
85022SOL    HW156963   6.898  12.372  12.270
85022SOL    HW256964   7.006  12.277  12.220
85023SOL     OW56965   0.019  12.668  13.456
85023SOL    HW156966   0.010  12.595  13.518
85023SOL    HW256967   0.038  12.626  13.372
85024SOL     OW56968   5.574   6.295   9.484
85024SOL    HW156969   5.518   6.368   9.458
85024SOL    HW256970   5.590   6.247   9.403
85025SOL     OW56971   8.774   3.932   7.710
85025SOL    HW156972   8.694   3.895   7.672
85025SOL    HW256973   8.752   4.024   7.725
85026SOL     OW56974  13.693   6.188   3.614
85026SOL    HW156975  13.677   6.115   3.673
85026SOL    HW256976  13.735   6.255   3.668
85027SOL     OW56977   7.318   8.633   1.332
85027SOL    HW156978   7.247   8.572   1.316
85027SOL    HW256979   7.388   8.580   1.369
85028SOL     OW56980   7.362   2.717   5.363
85028SOL    HW156981   7.275   2.686   5.339
85028SOL    HW256982   7.370   2.696   5.456
85029SOL     OW56983   0.598   6.804   9.115
85029SOL    HW156984   0.525   6.821   9.175
85029SOL    HW256985   0.560   6.811   9.028
85030SOL     OW56986   9.587  12.074   3.072
85030SOL    HW156987   9.672  12.092   3.032
85030SOL    HW256988   9.583  11.978   3.077
85031SOL     OW56989   0.801   2.145   0.964
85031SOL    HW156990   0.708   2.131   0.978
85031SOL    HW256991   0.806   2.215   0.898
85032SOL     OW56992  10.696   0.762   3.285
85032SOL    HW156993  10.702   0.848   3.328
85032SOL    HW256994  10.634   0.776   3.214
85033SOL     OW56995  13.093   2.641   0.001
85033SOL    HW156996  13.104   2.558   0.048
85033SOL    HW256997  12.999   2.650  14.868
85034SOL     OW56998  13.610   4.877   4.538
85034SOL    HW156999  13.704   4.895   4.532
85034SOL    HW257000  13.575   4.905   4.453
85035SOL     OW57001  11.198  11.776   2.833
85035SOL    HW157002  11.190  11.687   2.868
85035SOL    HW257003  11.171  11.833   2.905
85036SOL     OW57004  10.083   3.439   9.739
85036SOL    HW157005  10.175   3.427   9.714
85036SOL    HW257006  10.046   3.491   9.667
85037SOL     OW57007   4.741  13.705   2.968
85037SOL    HW157008   4.811  13.654   3.007
85037SOL    HW257009   4.704  13.648   2.901
85038SOL     OW57010   3.002   7.056   3.674
85038SOL    HW157011   3.085   7.069   3.628
85038SOL    HW257012   2.995   6.961   3.684
85039SOL     OW57013   3.022   0.914   2.217
85039SOL    HW157014   3.095   0.972   2.238
85039SOL    HW257015   3.038   0.886   2.127
85040SOL     OW57016   9.662   8.838   1.413
85040SOL    HW157017   9.592   8.854   1.349
85040SOL    HW257018   9.733   8.896   1.385
85041SOL     OW57019   4.197   2.404   5.214
85041SOL    HW157020   4.167   2.350   5.287
85041SOL    HW257021   4.285   2.372   5.194
85042SOL     OW57022  12.270  13.100   4.523
85042SOL    HW157023  12.276  13.010   4.490
85042SOL    HW257024  12.180  13.108   4.555
85043SOL     OW57025   1.192   5.354   0.946
85043SOL    HW157026   1.236   5.386   0.867
85043SOL    HW257027   1.144   5.429   0.980
85044SOL     OW57028   6.175   6.550  11.193
85044SOL    HW157029   6.097   6.528  11.142
85044SOL    HW257030   6.232   6.594  11.130
85045SOL     OW57031   8.686  12.007   1.073
85045SOL    HW157032   8.636  12.087   1.055
85045SOL    HW257033   8.771  12.022   1.032
85046SOL     OW57034  12.733   6.819  10.026
85046SOL    HW157035  12.646   6.801  10.061
85046SOL    HW257036  12.783   6.739  10.043
85047SOL     OW57037   3.774   3.168   0.359
85047SOL    HW157038   3.834   3.230   0.317
85047SOL    HW257039   3.828   3.093   0.382
85048SOL     OW57040   3.018   1.337   4.959
85048SOL    HW157041   2.985   1.307   5.044
85048SOL    HW257042   2.996   1.430   4.956
85049SOL     OW57043  13.134   9.375   7.178
85049SOL    HW157044  13.093   9.327   7.106
85049SOL    HW257045  13.177   9.449   7.136
85050SOL     OW57046   7.610  13.304  14.820
85050SOL    HW157047   7.535  13.286  14.877
85050SOL    HW257048   7.686  13.292  14.876
85051SOL     OW57049   7.622   5.899  14.464
85051SOL    HW157050   7.605   5.817  14.419
85051SOL    HW257051   7.700   5.934  14.421
85052SOL     OW57052  10.995   4.396   3.308
85052SOL    HW157053  10.928   4.382   3.240
85052SOL    HW257054  10.952   4.453   3.372
85053SOL     OW57055   2.504   2.926   1.260
85053SOL    HW157056   2.580   2.871   1.279
85053SOL    HW257057   2.541   3.011   1.237
85054SOL     OW57058   5.169   4.398   2.493
85054SOL    HW157059   5.085   4.431   2.463
85054SOL    HW257060   5.217   4.476   2.521
85055SOL     OW57061   8.973  13.552  12.861
85055SOL    HW157062   9.036  13.497  12.814
85055SOL    HW257063   8.893  13.499  12.864
85056SOL     OW57064   6.165   5.253  10.921
85056SOL    HW157065   6.230   5.248  10.992
85056SOL    HW257066   6.116   5.334  10.939
85057SOL     OW57067   7.317   7.638   7.685
85057SOL    HW157068   7.339   7.728   7.709
85057SOL    HW257069   7.392   7.586   7.716
85058SOL     OW57070   9.588   5.708   1.881
85058SOL    HW157071   9.611   5.637   1.941
85058SOL    HW257072   9.656   5.774   1.896
85059SOL     OW57073  11.690  11.553   5.612
85059SOL    HW157074  11.706  11.504   5.531
85059SOL    HW257075  11.603  11.524   5.641
85060SOL     OW57076   6.584   0.848   2.377
85060SOL    HW157077   6.519   0.807   2.434
85060SOL    HW257078   6.668   0.812   2.406
85061SOL     OW57079   4.056  12.491  14.286
85061SOL    HW157080   4.025  12.503  14.376
85061SOL    HW257081   4.095  12.404  14.285
85062SOL     OW57082   1.757   9.938   5.502
85062SOL    HW157083   1.793   9.869   5.559
85062SOL    HW257084   1.763  10.017   5.555
85063SOL     OW57085  12.833   7.233   2.197
85063SOL    HW157086  12.837   7.329   2.204
85063SOL    HW257087  12.798   7.204   2.280
85064SOL     OW57088   6.341  14.215   2.621
85064SOL    HW157089   6.354  14.169   2.538
85064SOL    HW257090   6.272  14.166   2.665
85065SOL     OW57091   7.050   8.083  10.119
85065SOL    HW157092   7.072   8.130  10.199
85065SOL    HW257093   7.011   8.149  10.062
85066SOL     OW57094   4.384  14.375  13.790
85066SOL    HW157095   4.395  14.281  13.780
85066SOL    HW257096   4.296  14.393  13.757
85067SOL     OW57097   6.260  12.326  11.543
85067SOL    HW157098   6.341  12.310  11.496
85067SOL    HW257099   6.272  12.412  11.584
85068SOL     OW57100  10.616  12.202   6.001
85068SOL    HW157101  10.533  12.228   5.961
85068SOL    HW257102  10.673  12.277   5.989
85069SOL     OW57103   9.836   2.716  10.975
85069SOL    HW157104   9.804   2.671  10.897
85069SOL    HW257105   9.850   2.646  11.039
85070SOL     OW57106   9.623   2.436   4.167
85070SOL    HW157107   9.676   2.379   4.222
85070SOL    HW257108   9.670   2.520   4.167
85071SOL     OW57109   7.659   1.888   5.353
85071SOL    HW157110   7.590   1.841   5.307
85071SOL    HW257111   7.736   1.832   5.344
85072SOL     OW57112   5.611   5.768   4.734
85072SOL    HW157113   5.617   5.807   4.647
85072SOL    HW257114   5.518   5.752   4.747
85073SOL     OW57115   2.076  13.144   6.536
85073SOL    HW157116   2.166  13.116   6.549
85073SOL    HW257117   2.027  13.099   6.606
85074SOL     OW57118   1.744  13.243  10.669
85074SOL    HW157119   1.718  13.335  10.660
85074SOL    HW257120   1.671  13.202  10.715
85075SOL     OW57121   6.304   6.376  14.456
85075SOL    HW157122   6.353   6.458  14.456
85075SOL    HW257123   6.274   6.366  14.546
85076SOL     OW57124   3.719   4.465  10.402
85076SOL    HW157125   3.653   4.420  10.454
85076SOL    HW257126   3.749   4.537  10.458
85077SOL     OW57127   2.314   8.038   1.900
85077SOL    HW157128   2.305   8.120   1.851
85077SOL    HW257129   2.246   7.981   1.864
85078SOL     OW57130  11.312   5.743  10.893
85078SOL    HW157131  11.333   5.666  10.946
85078SOL    HW257132  11.249   5.792  10.946
85079SOL     OW57133   0.977   4.731   2.356
85079SOL    HW157134   1.011   4.642   2.363
85079SOL    HW257135   1.026   4.781   2.421
85080SOL     OW57136   2.558   0.686  12.960
85080SOL    HW157137   2.618   0.751  12.997
85080SOL    HW257138   2.471   0.723  12.974
85081SOL     OW57139  11.310   1.436  10.213
85081SOL    HW157140  11.291   1.436  10.307
85081SOL    HW257141  11.274   1.353  10.181
85082SOL     OW57142  13.503   0.753  13.596
85082SOL    HW157143  13.507   0.836  13.547
85082SOL    HW257144  13.416   0.754  13.637
85083SOL     OW57145   2.549   3.430   9.222
85083SOL    HW157146   2.580   3.499   9.163
85083SOL    HW257147   2.568   3.463   9.310
85084SOL     OW57148   0.916   6.599   9.416
85084SOL    HW157149   0.898   6.669   9.355
85084SOL    HW257150   0.853   6.530   9.394
85085SOL     OW57151   7.215   5.981  11.526
85085SOL    HW157152   7.247   5.985  11.616
85085SOL    HW257153   7.216   6.072  11.495
85086SOL     OW57154   9.009   2.507  10.191
85086SOL    HW157155   9.035   2.459  10.112
85086SOL    HW257156   9.016   2.442  10.262
85087SOL     OW57157   3.903   2.647   3.499
85087SOL    HW157158   3.993   2.628   3.526
85087SOL    HW257159   3.900   2.624   3.407
85088SOL     OW57160   9.738   6.273  10.676
85088SOL    HW157161   9.755   6.213  10.749
85088SOL    HW257162   9.762   6.223  10.598
85089SOL     OW57163  13.243   6.118   7.809
85089SOL    HW157164  13.231   6.212   7.806
85089SOL    HW257165  13.263   6.099   7.901
85090SOL     OW57166  11.316   5.373   2.599
85090SOL    HW157167  11.344   5.329   2.679
85090SOL    HW257168  11.345   5.463   2.609
85091SOL     OW57169  11.826  10.404   5.648
85091SOL    HW157170  11.734  10.380   5.649
85091SOL    HW257171  11.829  10.491   5.687
85092SOL     OW57172   7.640   9.367   6.088
85092SOL    HW157173   7.634   9.457   6.057
85092SOL    HW257174   7.667   9.317   6.011
85093SOL     OW57175  14.763  14.331   6.865
85093SOL    HW157176  14.747  14.302   6.955
85093SOL    HW257177  14.812  14.413   6.875
85094SOL     OW57178   7.368   4.385   4.100
85094SOL    HW157179   7.426   4.460   4.084
85094SOL    HW257180   7.300   4.392   4.033
85095SOL     OW57181  11.103   8.625   8.110
85095SOL    HW157182  11.114   8.531   8.095
85095SOL    HW257183  11.011   8.635   8.133
85096SOL     OW57184   7.299   1.516  12.167
85096SOL    HW157185   7.372   1.454  12.162
85096SOL    HW257186   7.256   1.509  12.081
85097SOL     OW57187  12.447   2.349   8.732
85097SOL    HW157188  12.430   2.388   8.646
85097SOL    HW257189  12.362   2.314   8.760
85098SOL     OW57190   0.083   5.262  14.665
85098SOL    HW157191   0.101   5.341  14.716
85098SOL    HW257192   0.028   5.209  14.722
85099SOL     OW57193   0.147   9.244   2.525
85099SOL    HW157194   0.078   9.195   2.571
85099SOL    HW257195   0.226   9.225   2.575
85100SOL     OW57196  12.591  12.523   5.053
85100SOL    HW157197  12.563  12.575   5.128
85100SOL    HW257198  12.626  12.587   4.990
85101SOL     OW57199  11.050   5.467  12.754
85101SOL    HW157200  11.069   5.385  12.709
85101SOL    HW257201  11.130   5.487  12.803
85102SOL     OW57202   6.585  13.301  13.892
85102SOL    HW157203   6.580  13.313  13.987
85102SOL    HW257204   6.494  13.306  13.863
85103SOL     OW57205  13.971  12.602  14.042
85103SOL    HW157206  13.899  12.621  14.102
85103SOL    HW257207  13.974  12.677  13.984
85104SOL     OW57208  12.157   4.748   1.572
85104SOL    HW157209  12.236   4.706   1.607
85104SOL    HW257210  12.086   4.712   1.625
85105SOL     OW57211   2.430   3.795   0.807
85105SOL    HW157212   2.448   3.860   0.875
85105SOL    HW257213   2.392   3.721   0.855
85106SOL     OW57214   3.085   0.165   8.170
85106SOL    HW157215   3.085   0.202   8.258
85106SOL    HW257216   2.999   0.186   8.135
85107SOL     OW57217   1.414   4.858   1.523
85107SOL    HW157218   1.353   4.888   1.455
85107SOL    HW257219   1.384   4.770   1.545
85108SOL     OW57220   0.079   4.299  12.963
85108SOL    HW157221   0.069   4.333  12.874
85108SOL    HW257222   0.161   4.336  12.994
85109SOL     OW57223   7.516   1.862  14.588
85109SOL    HW157224   7.586   1.912  14.546
85109SOL    HW257225   7.469   1.821  14.515
85110SOL     OW57226   3.719   0.506  11.250
85110SOL    HW157227   3.626   0.521  11.234
85110SOL    HW257228   3.753   0.591  11.276
85111SOL     OW57229   4.961   6.966   3.879
85111SOL    HW157230   4.956   7.028   3.806
85111SOL    HW257231   5.030   7.002   3.936
85112SOL     OW57232   7.913   8.556   2.125
85112SOL    HW157233   7.888   8.649   2.123
85112SOL    HW257234   7.832   8.509   2.107
85113SOL     OW57235   1.569   5.555   9.533
85113SOL    HW157236   1.587   5.624   9.470
85113SOL    HW257237   1.605   5.588   9.616
85114SOL     OW57238  14.105  10.246   1.901
85114SOL    HW157239  14.042  10.234   1.829
85114SOL    HW257240  14.109  10.160   1.943
85115SOL     OW57241   0.576   1.968  14.789
85115SOL    HW157242   0.547   2.010  14.870
85115SOL    HW257243   0.518   1.892  14.779
85116SOL     OW57244   6.972  11.009   2.838
85116SOL    HW157245   7.005  11.052   2.760
85116SOL    HW257246   6.980  11.074   2.908
85117SOL     OW57247  11.912   2.070   5.628
85117SOL    HW157248  11.976   2.135   5.601
85117SOL    HW257249  11.924   1.997   5.567
85118SOL     OW57250  11.302  13.303   8.677
85118SOL    HW157251  11.218  13.347   8.663
85118SOL    HW257252  11.278  13.211   8.692
85119SOL     OW57253   8.834   5.017   9.528
85119SOL    HW157254   8.880   4.934   9.538
85119SOL    HW257255   8.836   5.055   9.616
85120SOL     OW57256   7.826  12.507   8.422
85120SOL    HW157257   7.831  12.556   8.339
85120SOL    HW257258   7.915  12.510   8.457
85121SOL     OW57259   4.627   6.335   3.259
85121SOL    HW157260   4.717   6.349   3.231
85121SOL    HW257261   4.635   6.293   3.345
85122SOL     OW57262   2.869   3.495   9.321
85122SOL    HW157263   2.942   3.517   9.379
85122SOL    HW257264   2.805   3.452   9.377
85123SOL     OW57265   0.911   6.439   0.561
85123SOL    HW157266   0.910   6.510   0.497
85123SOL    HW257267   0.822   6.404   0.558
85124SOL     OW57268   0.611   9.282   3.867
85124SOL    HW157269   0.587   9.271   3.775
85124SOL    HW257270   0.681   9.219   3.882
85125SOL     OW57271  14.487   3.510   6.833
85125SOL    HW157272  14.425   3.441   6.855
85125SOL    HW257273  14.439   3.566   6.772
85126SOL     OW57274   3.713  10.921  10.958
85126SOL    HW157275   3.771  10.976  10.905
85126SOL    HW257276   3.700  10.842  10.904
85127SOL     OW57277   7.085   1.595   4.233
85127SOL    HW157278   7.077   1.557   4.145
85127SOL    HW257279   7.093   1.520   4.291
85128SOL     OW57280  10.281   4.602   0.140
85128SOL    HW157281  10.371   4.571   0.131
85128SOL    HW257282  10.256   4.629   0.052
85129SOL     OW57283   6.229   3.962  13.228
85129SOL    HW157284   6.188   3.876  13.217
85129SOL    HW257285   6.206   4.010  13.148
85130SOL     OW57286   0.433  11.170  11.919
85130SOL    HW157287   0.514  11.157  11.969
85130SOL    HW257288   0.375  11.218  11.978
85131SOL     OW57289   7.352   3.898   4.921
85131SOL    HW157290   7.319   3.877   4.834
85131SOL    HW257291   7.290   3.857   4.981
85132SOL     OW57292  12.404   4.243   3.111
85132SOL    HW157293  12.362   4.212   3.192
85132SOL    HW257294  12.408   4.338   3.121
85133SOL     OW57295   3.948  14.549  11.720
85133SOL    HW157296   3.857  14.578  11.706
85133SOL    HW257297   3.964  14.485  11.652
85134SOL     OW57298   7.111   9.198   4.971
85134SOL    HW157299   7.132   9.270   4.912
85134SOL    HW257300   7.196   9.159   4.992
85135SOL     OW57301   1.585   3.063  13.239
85135SOL    HW157302   1.654   2.998  13.227
85135SOL    HW257303   1.586   3.115  13.158
85136SOL     OW57304   1.588   3.063   1.093
85136SOL    HW157305   1.506   3.064   1.044
85136SOL    HW257306   1.605   3.155   1.114
85137SOL     OW57307  13.541   9.031  12.106
85137SOL    HW157308  13.480   9.087  12.155
85137SOL    HW257309  13.582   9.090  12.042
85138SOL     OW57310   7.707  11.991   0.360
85138SOL    HW157311   7.790  12.013   0.318
85138SOL    HW257312   7.725  11.911   0.408
85139SOL     OW57313   6.264   7.356  13.433
85139SOL    HW157314   6.276   7.265  13.461
85139SOL    HW257315   6.257   7.350  13.337
85140SOL     OW57316   7.117  10.032   0.828
85140SOL    HW157317   7.201  10.072   0.849
85140SOL    HW257318   7.134   9.938   0.832
85141SOL     OW57319   2.775   9.716  12.502
85141SOL    HW157320   2.853   9.661  12.507
85141SOL    HW257321   2.791   9.786  12.566
85142SOL     OW57322   5.827   8.326  14.402
85142SOL    HW157323   5.819   8.240  14.443
85142SOL    HW257324   5.915   8.327  14.364
85143SOL     OW57325   7.280   3.758  13.495
85143SOL    HW157326   7.247   3.681  13.541
85143SOL    HW257327   7.362   3.729  13.455
85144SOL     OW57328   6.098  13.092   8.809
85144SOL    HW157329   6.075  13.177   8.771
85144SOL    HW257330   6.055  13.091   8.894
85145SOL     OW57331   4.247  13.125   5.065
85145SOL    HW157332   4.156  13.153   5.059
85145SOL    HW257333   4.289  13.189   5.123
85146SOL     OW57334   4.183   6.260   8.081
85146SOL    HW157335   4.221   6.340   8.044
85146SOL    HW257336   4.104   6.290   8.126
85147SOL     OW57337  13.228   7.261   0.552
85147SOL    HW157338  13.282   7.207   0.610
85147SOL    HW257339  13.279   7.269   0.472
85148SOL     OW57340   8.680  13.601   3.564
85148SOL    HW157341   8.756  13.575   3.615
85148SOL    HW257342   8.704  13.582   3.473
85149SOL     OW57343  14.493   0.547  10.282
85149SOL    HW157344  14.540   0.506  10.355
85149SOL    HW257345  14.421   0.487  10.264
85150SOL     OW57346  10.107   2.299  11.420
85150SOL    HW157347  10.035   2.319  11.480
85150SOL    HW257348  10.136   2.384  11.388
85151SOL     OW57349  11.486   9.561   3.863
85151SOL    HW157350  11.575   9.579   3.832
85151SOL    HW257351  11.485   9.593   3.953
85152SOL     OW57352   2.303   2.795   8.019
85152SOL    HW157353   2.362   2.755   7.955
85152SOL    HW257354   2.360   2.817   8.093
85153SOL     OW57355   0.340   7.032   7.120
85153SOL    HW157356   0.391   6.951   7.115
85153SOL    HW257357   0.254   7.004   7.152
85154SOL     OW57358  11.535  14.594   3.757
85154SOL    HW157359  11.613  14.647   3.739
85154SOL    HW257360  11.519  14.606   3.851
85155SOL     OW57361   9.761  12.836   8.417
85155SOL    HW157362   9.784  12.898   8.349
85155SOL    HW257363   9.732  12.890   8.491
85156SOL     OW57364   0.711   5.123   9.441
85156SOL    HW157365   0.659   5.191   9.484
85156SOL    HW257366   0.784   5.170   9.401
85157SOL     OW57367   7.080  13.042   3.526
85157SOL    HW157368   7.008  13.024   3.587
85157SOL    HW257369   7.155  13.060   3.582
85158SOL     OW57370   1.820  11.459   3.712
85158SOL    HW157371   1.777  11.530   3.760
85158SOL    HW257372   1.882  11.502   3.654
85159SOL     OW57373  10.709  10.849  13.448
85159SOL    HW157374  10.650  10.782  13.412
85159SOL    HW257375  10.654  10.927  13.455
85160SOL     OW57376   0.114   1.190   1.643
85160SOL    HW157377   0.149   1.193   1.554
85160SOL    HW257378   0.035   1.244   1.638
85161SOL     OW57379   7.392   5.979   7.797
85161SOL    HW157380   7.473   5.976   7.847
85161SOL    HW257381   7.361   6.069   7.807
85162SOL     OW57382   2.528   8.588   5.981
85162SOL    HW157383   2.561   8.677   5.972
85162SOL    HW257384   2.512   8.559   5.891
85163SOL     OW57385  10.676   9.306  11.474
85163SOL    HW157386  10.673   9.267  11.387
85163SOL    HW257387  10.590   9.347  11.484
85164SOL     OW57388   4.285  13.517  12.038
85164SOL    HW157389   4.319  13.470  11.962
85164SOL    HW257390   4.267  13.449  12.103
85165SOL     OW57391   8.250  11.619   2.117
85165SOL    HW157392   8.290  11.533   2.130
85165SOL    HW257393   8.172  11.600   2.065
85166SOL     OW57394   0.533   5.051   3.134
85166SOL    HW157395   0.514   4.957   3.142
85166SOL    HW257396   0.609   5.065   3.191
85167SOL     OW57397  13.977  11.673   0.794
85167SOL    HW157398  14.045  11.665   0.861
85167SOL    HW257399  13.919  11.599   0.809
85168SOL     OW57400  11.348   5.225   2.837
85168SOL    HW157401  11.283   5.253   2.902
85168SOL    HW257402  11.303   5.160   2.784
85169SOL     OW57403   3.818   8.718   6.921
85169SOL    HW157404   3.876   8.726   6.845
85169SOL    HW257405   3.808   8.624   6.934
85170SOL     OW57406  11.371   6.632   9.747
85170SOL    HW157407  11.277   6.620   9.741
85170SOL    HW257408  11.397   6.662   9.659
85171SOL     OW57409  14.451   0.796   8.485
85171SOL    HW157410  14.411   0.750   8.411
85171SOL    HW257411  14.545   0.792   8.468
85172SOL     OW57412   3.428  12.525   3.047
85172SOL    HW157413   3.402  12.586   2.978
85172SOL    HW257414   3.522  12.539   3.056
85173SOL     OW57415   9.510  12.179   3.443
85173SOL    HW157416   9.464  12.109   3.396
85173SOL    HW257417   9.478  12.260   3.404
85174SOL     OW57418   3.389   7.027   8.405
85174SOL    HW157419   3.445   6.981   8.342
85174SOL    HW257420   3.404   6.982   8.488
85175SOL     OW57421   0.817   7.980   7.379
85175SOL    HW157422   0.728   7.998   7.347
85175SOL    HW257423   0.809   7.981   7.474
85176SOL     OW57424  14.360  12.621   5.024
85176SOL    HW157425  14.352  12.696   5.083
85176SOL    HW257426  14.287  12.632   4.962
85177SOL     OW57427   4.549   0.999  12.683
85177SOL    HW157428   4.566   0.912  12.718
85177SOL    HW257429   4.468   1.027  12.725
85178SOL     OW57430   3.667  13.829   0.245
85178SOL    HW157431   3.695  13.752   0.294
85178SOL    HW257432   3.572  13.831   0.257
85179SOL     OW57433  10.399   4.395   5.959
85179SOL    HW157434  10.349   4.365   5.882
85179SOL    HW257435  10.454   4.465   5.925
85180SOL     OW57436   4.635   1.946  14.192
85180SOL    HW157437   4.711   1.887  14.195
85180SOL    HW257438   4.593   1.927  14.108
85181SOL     OW57439  10.390   4.473  11.556
85181SOL    HW157440  10.437   4.448  11.476
85181SOL    HW257441  10.405   4.400  11.616
85182SOL     OW57442   2.313   4.250  10.152
85182SOL    HW157443   2.264   4.280  10.228
85182SOL    HW257444   2.247   4.219  10.091
85183SOL     OW57445   4.625  14.112   5.944
85183SOL    HW157446   4.601  14.163   5.867
85183SOL    HW257447   4.690  14.165   5.989
85184SOL     OW57448   8.197  14.787  12.836
85184SOL    HW157449   8.238  14.710  12.796
85184SOL    HW257450   8.179  14.845  12.762
85185SOL     OW57451   0.231   1.795   4.642
85185SOL    HW157452   0.178   1.820   4.718
85185SOL    HW257453   0.182   1.726   4.600
85186SOL     OW57454  10.123   1.762   3.632
85186SOL    HW157455  10.175   1.763   3.551
85186SOL    HW257456  10.079   1.678   3.631
85187SOL     OW57457   9.326   4.791   8.691
85187SOL    HW157458   9.283   4.876   8.679
85187SOL    HW257459   9.254   4.727   8.688
85188SOL     OW57460   6.491  14.593   1.604
85188SOL    HW157461   6.541  14.551   1.675
85188SOL    HW257462   6.557  14.612   1.537
85189SOL     OW57463   2.591   7.495   0.862
85189SOL    HW157464   2.644   7.420   0.891
85189SOL    HW257465   2.516   7.495   0.922
85190SOL     OW57466  14.130   4.622   2.486
85190SOL    HW157467  14.206   4.589   2.535
85190SOL    HW257468  14.135   4.579   2.401
85191SOL     OW57469   0.317  14.780  13.305
85191SOL    HW157470   0.399  14.829  13.299
85191SOL    HW257471   0.307  14.739  13.219
85192SOL     OW57472   4.127  12.637   9.674
85192SOL    HW157473   4.078  12.693   9.736
85192SOL    HW257474   4.113  12.678   9.589
85193SOL     OW57475   9.077   2.497   8.171
85193SOL    HW157476   8.999   2.535   8.131
85193SOL    HW257477   9.044   2.448   8.246
85194SOL     OW57478  12.514   6.830  11.591
85194SOL    HW157479  12.532   6.836  11.498
85194SOL    HW257480  12.450   6.759  11.599
85195SOL     OW57481  14.126  12.811  11.332
85195SOL    HW157482  14.144  12.882  11.270
85195SOL    HW257483  14.196  12.818  11.398
85196SOL     OW57484   5.760   1.044  12.831
85196SOL    HW157485   5.827   1.088  12.780
85196SOL    HW257486   5.681   1.050  12.778
85197SOL     OW57487  14.199   0.707   7.662
85197SOL    HW157488  14.264   0.690   7.730
85197SOL    HW257489  14.115   0.695   7.706
85198SOL     OW57490   4.603   2.095   2.802
85198SOL    HW157491   4.673   2.044   2.842
85198SOL    HW257492   4.523   2.060   2.841
85199SOL     OW57493   0.947  10.665  13.246
85199SOL    HW157494   0.936  10.758  13.260
85199SOL    HW257495   0.885  10.643  13.176
85200SOL     OW57496  13.223  13.741   3.096
85200SOL    HW157497  13.288  13.671   3.085
85200SOL    HW257498  13.143  13.695   3.123
85201SOL     OW57499   1.528   4.173   1.251
85201SOL    HW157500   1.623   4.167   1.252
85201SOL    HW257501   1.510   4.245   1.190
85202SOL     OW57502  12.689  11.588   6.265
85202SOL    HW157503  12.705  11.682   6.270
85202SOL    HW257504  12.609  11.579   6.214
85203SOL     OW57505   7.059   6.372   0.106
85203SOL    HW157506   7.138   6.384   0.159
85203SOL    HW257507   6.988   6.405   0.160
85204SOL     OW57508   2.325   0.753   9.852
85204SOL    HW157509   2.287   0.727   9.768
85204SOL    HW257510   2.249   0.778   9.905
85205SOL     OW57511  12.400  14.304   1.890
85205SOL    HW157512  12.373  14.335   1.976
85205SOL    HW257513  12.333  14.336   1.830
85206SOL     OW57514   6.567  11.754   4.525
85206SOL    HW157515   6.492  11.801   4.491
85206SOL    HW257516   6.535  11.665   4.540
85207SOL     OW57517   1.114   1.878   2.082
85207SOL    HW157518   1.127   1.783   2.077
85207SOL    HW257519   1.187   1.915   2.032
85208SOL     OW57520  13.757  13.383  12.159
85208SOL    HW157521  13.795  13.422  12.238
85208SOL    HW257522  13.804  13.300  12.148
85209SOL     OW57523   2.779  13.909   5.870
85209SOL    HW157524   2.849  13.845   5.879
85209SOL    HW257525   2.777  13.929   5.776
85210SOL     OW57526   8.977   7.832   0.602
85210SOL    HW157527   8.955   7.791   0.685
85210SOL    HW257528   9.034   7.769   0.558
85211SOL     OW57529   2.143  11.677   1.877
85211SOL    HW157530   2.064  11.628   1.900
85211SOL    HW257531   2.211  11.611   1.867
85212SOL     OW57532   8.869   1.469   5.603
85212SOL    HW157533   8.822   1.414   5.540
85212SOL    HW257534   8.818   1.462   5.683
85213SOL     OW57535   6.907   6.054   0.983
85213SOL    HW157536   6.903   6.094   1.070
85213SOL    HW257537   6.982   6.096   0.942
85214SOL     OW57538   6.042   6.243   0.082
85214SOL    HW157539   5.973   6.278   0.139
85214SOL    HW257540   5.995   6.210   0.005
85215SOL     OW57541  12.108   3.573  11.736
85215SOL    HW157542  12.117   3.500  11.675
85215SOL    HW257543  12.153   3.544  11.815
85216SOL     OW57544  11.078   2.250   3.667
85216SOL    HW157545  11.118   2.181   3.615
85216SOL    HW257546  10.988   2.221   3.681
85217SOL     OW57547  11.872   0.656   7.584
85217SOL    HW157548  11.863   0.562   7.596
85217SOL    HW257549  11.903   0.667   7.494
85218SOL     OW57550   8.153  13.778  11.053
85218SOL    HW157551   8.205  13.724  11.112
85218SOL    HW257552   8.217  13.823  10.999
85219SOL     OW57553   9.870   4.112  13.656
85219SOL    HW157554   9.933   4.059  13.608
85219SOL    HW257555   9.829   4.051  13.717
85220SOL     OW57556   4.453  10.970  10.960
85220SOL    HW157557   4.465  11.063  10.939
85220SOL    HW257558   4.425  10.931  10.878
85221SOL     OW57559   6.721  10.119  10.621
85221SOL    HW157560   6.712  10.195  10.678
85221SOL    HW257561   6.685  10.046  10.671
85222SOL     OW57562   7.452  13.122   5.495
85222SOL    HW157563   7.416  13.080   5.574
85222SOL    HW257564   7.546  13.119   5.508
85223SOL     OW57565   4.449   2.173   5.175
85223SOL    HW157566   4.518   2.196   5.238
85223SOL    HW257567   4.495   2.162   5.092
85224SOL     OW57568  14.762   1.919   9.352
85224SOL    HW157569  14.842   1.972   9.349
85224SOL    HW257570  14.754   1.882   9.264
85225SOL     OW57571   2.908   9.319   2.833
85225SOL    HW157572   2.861   9.362   2.762
85225SOL    HW257573   2.927   9.389   2.895
85226SOL     OW57574   4.403   7.260   3.844
85226SOL    HW157575   4.331   7.323   3.849
85226SOL    HW257576   4.418   7.232   3.934
85227SOL     OW57577  14.243   4.616  10.585
85227SOL    HW157578  14.151   4.597  10.569
85227SOL    HW257579  14.291   4.554  10.530
85228SOL     OW57580   5.483   6.305   2.311
85228SOL    HW157581   5.550   6.249   2.352
85228SOL    HW257582   5.531   6.361   2.252
85229SOL     OW57583  10.496  11.702  12.562
85229SOL    HW157584  10.400  11.696  12.571
85229SOL    HW257585  10.517  11.792  12.586
85230SOL     OW57586   0.189  13.902  11.477
85230SOL    HW157587   0.117  13.842  11.498
85230SOL    HW257588   0.244  13.902  11.555
85231SOL     OW57589  14.187   9.935  10.934
85231SOL    HW157590  14.094   9.933  10.955
85231SOL    HW257591  14.229   9.969  11.014
85232SOL     OW57592   4.931   4.716  11.726
85232SOL    HW157593   4.940   4.658  11.801
85232SOL    HW257594   4.841   4.703  11.696
85233SOL     OW57595   8.103  14.812   3.287
85233SOL    HW157596   8.107  14.848   3.375
85233SOL    HW257597   8.187  14.834   3.247
85234SOL     OW57598  12.386   7.616  14.050
85234SOL    HW157599  12.348   7.567  13.978
85234SOL    HW257600  12.454   7.558  14.085
85235SOL     OW57601  14.528   0.341   6.866
85235SOL    HW157602  14.570   0.320   6.949
85235SOL    HW257603  14.477   0.263   6.845
85236SOL     OW57604   1.643  13.023   0.270
85236SOL    HW157605   1.711  12.959   0.246
85236SOL    HW257606   1.672  13.058   0.354
85237SOL     OW57607  11.313   7.163   0.767
85237SOL    HW157608  11.247   7.232   0.772
85237SOL    HW257609  11.336   7.159   0.674
85238SOL     OW57610   7.326  10.143  11.511
85238SOL    HW157611   7.340  10.222  11.460
85238SOL    HW257612   7.392  10.081  11.479
85239SOL     OW57613   7.160  10.131   7.309
85239SOL    HW157614   7.189  10.057   7.255
85239SOL    HW257615   7.067  10.113   7.326
85240SOL     OW57616  10.458   8.403   0.829
85240SOL    HW157617  10.442   8.309   0.823
85240SOL    HW257618  10.528   8.419   0.766
85241SOL     OW57619   5.023   1.605   9.158
85241SOL    HW157620   5.051   1.642   9.241
85241SOL    HW257621   4.938   1.564   9.176
85242SOL     OW57622  10.328  12.104   7.193
85242SOL    HW157623  10.239  12.133   7.171
85242SOL    HW257624  10.361  12.171   7.253
85243SOL     OW57625   2.202   2.611   3.331
85243SOL    HW157626   2.296   2.599   3.339
85243SOL    HW257627   2.192   2.702   3.302
85244SOL     OW57628  13.269   1.206   6.429
85244SOL    HW157629  13.218   1.133   6.393
85244SOL    HW257630  13.203   1.264   6.467
85245SOL     OW57631   3.085  13.769  11.951
85245SOL    HW157632   3.073  13.795  12.042
85245SOL    HW257633   3.100  13.674  11.955
85246SOL     OW57634  11.783  10.504   6.671
85246SOL    HW157635  11.755  10.457   6.749
85246SOL    HW257636  11.752  10.593   6.684
85247SOL     OW57637   1.668  10.955   8.533
85247SOL    HW157638   1.762  10.969   8.547
85247SOL    HW257639   1.660  10.943   8.438
85248SOL     OW57640  11.784   1.771   6.638
85248SOL    HW157641  11.769   1.764   6.543
85248SOL    HW257642  11.743   1.853   6.664
85249SOL     OW57643  14.535   2.779  14.048
85249SOL    HW157644  14.451   2.746  14.079
85249SOL    HW257645  14.565   2.838  14.117
85250SOL     OW57646   3.787  11.676   0.255
85250SOL    HW157647   3.761  11.752   0.203
85250SOL    HW257648   3.850  11.629   0.200
85251SOL     OW57649  10.677   8.845   1.933
85251SOL    HW157650  10.706   8.815   2.020
85251SOL    HW257651  10.653   8.765   1.887
85252SOL     OW57652   1.827   3.674   3.118
85252SOL    HW157653   1.879   3.752   3.099
85252SOL    HW257654   1.856   3.648   3.206
85253SOL     OW57655  10.453   1.971   3.362
85253SOL    HW157656  10.542   1.973   3.398
85253SOL    HW257657  10.426   2.062   3.358
85254SOL     OW57658   7.588  11.668  11.466
85254SOL    HW157659   7.572  11.629  11.552
85254SOL    HW257660   7.641  11.603  11.420
85255SOL     OW57661   9.838   8.757   4.030
85255SOL    HW157662   9.827   8.759   4.125
85255SOL    HW257663   9.877   8.672   4.012
85256SOL     OW57664   6.504   9.209   4.170
85256SOL    HW157665   6.580   9.232   4.223
85256SOL    HW257666   6.505   9.113   4.167
85257SOL     OW57667   4.533   0.214   1.818
85257SOL    HW157668   4.626   0.229   1.835
85257SOL    HW257669   4.504   0.293   1.772
85258SOL     OW57670  14.506  12.000  11.725
85258SOL    HW157671  14.452  11.921  11.726
85258SOL    HW257672  14.526  12.017  11.817
85259SOL     OW57673   1.202   5.368   7.646
85259SOL    HW157674   1.282   5.393   7.600
85259SOL    HW257675   1.232   5.311   7.717
85260SOL     OW57676   7.727   2.845   2.240
85260SOL    HW157677   7.753   2.935   2.224
85260SOL    HW257678   7.741   2.832   2.334
85261SOL     OW57679  11.432   3.040   0.216
85261SOL    HW157680  11.498   3.073   0.278
85261SOL    HW257681  11.453   3.083   0.133
85262SOL     OW57682   0.401   1.669   0.991
85262SOL    HW157683   0.314   1.707   1.006
85262SOL    HW257684   0.461   1.744   0.999
85263SOL     OW57685   1.649   9.008   5.524
85263SOL    HW157686   1.705   8.941   5.484
85263SOL    HW257687   1.584   9.027   5.457
85264SOL     OW57688   7.731   1.994   9.572
85264SOL    HW157689   7.672   2.070   9.572
85264SOL    HW257690   7.814   2.028   9.540
85265SOL     OW57691   7.965  12.168   9.471
85265SOL    HW157692   7.939  12.207   9.554
85265SOL    HW257693   8.036  12.108   9.493
85266SOL     OW57694   5.946  13.367  12.764
85266SOL    HW157695   6.011  13.433  12.788
85266SOL    HW257696   5.882  13.369  12.836
85267SOL     OW57697   5.428   9.082   1.764
85267SOL    HW157698   5.395   9.160   1.720
85267SOL    HW257699   5.446   9.020   1.692
85268SOL     OW57700   7.557   4.601   1.298
85268SOL    HW157701   7.575   4.509   1.278
85268SOL    HW257702   7.636   4.648   1.271
85269SOL     OW57703   9.142   5.313   0.539
85269SOL    HW157704   9.099   5.391   0.506
85269SOL    HW257705   9.227   5.344   0.572
85270SOL     OW57706   2.444   4.564   7.917
85270SOL    HW157707   2.497   4.644   7.918
85270SOL    HW257708   2.473   4.515   7.994
85271SOL     OW57709  10.334   5.580   8.333
85271SOL    HW157710  10.347   5.605   8.425
85271SOL    HW257711  10.272   5.645   8.300
85272SOL     OW57712   6.651  10.528  13.238
85272SOL    HW157713   6.627  10.604  13.185
85272SOL    HW257714   6.706  10.475  13.180
85273SOL     OW57715   4.072  10.155   2.039
85273SOL    HW157716   4.088  10.138   2.132
85273SOL    HW257717   4.029  10.240   2.037
85274SOL     OW57718   9.287   9.299   5.673
85274SOL    HW157719   9.358   9.363   5.667
85274SOL    HW257720   9.210   9.352   5.695
85275SOL     OW57721   3.191   6.978  11.954
85275SOL    HW157722   3.127   6.908  11.946
85275SOL    HW257723   3.259   6.957  11.890
85276SOL     OW57724  14.247   2.924  11.574
85276SOL    HW157725  14.247   3.005  11.626
85276SOL    HW257726  14.274   2.952  11.487
85277SOL     OW57727   0.679  10.602  13.806
85277SOL    HW157728   0.639  10.593  13.892
85277SOL    HW257729   0.651  10.524  13.758
85278SOL     OW57730   2.894  12.496   8.043
85278SOL    HW157731   2.923  12.405   8.053
85278SOL    HW257732   2.879  12.505   7.949
85279SOL     OW57733  13.580   0.595   2.354
85279SOL    HW157734  13.488   0.576   2.336
85279SOL    HW257735  13.628   0.531   2.301
85280SOL     OW57736   9.655   1.506   6.098
85280SOL    HW157737   9.581   1.481   6.042
85280SOL    HW257738   9.642   1.456   6.178
85281SOL     OW57739   1.516   4.457  14.021
85281SOL    HW157740   1.468   4.384  14.060
85281SOL    HW257741   1.608   4.440  14.043
85282SOL     OW57742   5.415   4.109  13.730
85282SOL    HW157743   5.445   4.145  13.813
85282SOL    HW257744   5.376   4.184  13.684
85283SOL     OW57745   2.038   8.934   8.464
85283SOL    HW157746   2.075   8.925   8.552
85283SOL    HW257747   1.992   9.018   8.467
85284SOL     OW57748  13.983   5.841   0.095
85284SOL    HW157749  13.925   5.769   0.072
85284SOL    HW257750  13.928   5.919   0.092
85285SOL     OW57751   8.002   4.853   7.304
85285SOL    HW157752   7.997   4.808   7.220
85285SOL    HW257753   7.913   4.888   7.318
85286SOL     OW57754   9.767  13.239  14.307
85286SOL    HW157755   9.732  13.150  14.302
85286SOL    HW257756   9.781  13.254  14.401
85287SOL     OW57757  11.561   3.635  12.591
85287SOL    HW157758  11.477   3.666  12.625
85287SOL    HW257759  11.582   3.560  12.645
85288SOL     OW57760  13.026   2.865   5.170
85288SOL    HW157761  13.077   2.784   5.167
85288SOL    HW257762  12.946   2.845   5.121
85289SOL     OW57763  12.938   4.529  10.617
85289SOL    HW157764  12.929   4.499  10.708
85289SOL    HW257765  13.031   4.521  10.599
85290SOL     OW57766  12.308  10.847   4.749
85290SOL    HW157767  12.355  10.780   4.798
85290SOL    HW257768  12.365  10.867   4.674
85291SOL     OW57769   3.808  12.638  12.010
85291SOL    HW157770   3.819  12.607  12.100
85291SOL    HW257771   3.893  12.620  11.969
85292SOL     OW57772   3.878  10.727   2.576
85292SOL    HW157773   3.810  10.794   2.568
85292SOL    HW257774   3.857  10.663   2.508
85293SOL     OW57775  13.368   4.609   8.754
85293SOL    HW157776  13.426   4.538   8.781
85293SOL    HW257777  13.425   4.671   8.708
85294SOL     OW57778  13.384   9.852   6.067
85294SOL    HW157779  13.479   9.842   6.061
85294SOL    HW257780  13.350   9.763   6.070
85295SOL     OW57781   6.583  10.509  14.710
85295SOL    HW157782   6.599  10.434  14.767
85295SOL    HW257783   6.546  10.576  14.768
85296SOL     OW57784   2.420   3.190  10.800
85296SOL    HW157785   2.471   3.113  10.772
85296SOL    HW257786   2.374   3.161  10.879
85297SOL     OW57787   9.627   0.898   0.075
85297SOL    HW157788   9.669   0.879  14.872
85297SOL    HW257789   9.585   0.983   0.062
85298SOL     OW57790   6.039   6.778   9.269
85298SOL    HW157791   5.952   6.779   9.308
85298SOL    HW257792   6.071   6.689   9.285
85299SOL     OW57793   7.316  11.679   8.976
85299SOL    HW157794   7.220  11.687   8.981
85299SOL    HW257795   7.333  11.660   8.884
85300SOL     OW57796  14.445   2.027   4.359
85300SOL    HW157797  14.423   1.941   4.324
85300SOL    HW257798  14.492   2.009   4.441
85301SOL     OW57799   6.283  10.454   6.233
85301SOL    HW157800   6.376  10.474   6.249
85301SOL    HW257801   6.269  10.372   6.281
85302SOL     OW57802  11.587  13.142   7.577
85302SOL    HW157803  11.604  13.100   7.494
85302SOL    HW257804  11.528  13.082   7.623
85303SOL     OW57805   6.941   6.475   2.538
85303SOL    HW157806   6.938   6.404   2.474
85303SOL    HW257807   7.028   6.470   2.576
85304SOL     OW57808   4.635   3.130   5.872
85304SOL    HW157809   4.706   3.132   5.808
85304SOL    HW257810   4.603   3.220   5.875
85305SOL     OW57811   9.802   6.798   2.346
85305SOL    HW157812   9.731   6.738   2.321
85305SOL    HW257813   9.844   6.756   2.421
85306SOL     OW57814   2.356   3.959  11.841
85306SOL    HW157815   2.361   3.997  11.753
85306SOL    HW257816   2.436   3.990  11.885
85307SOL     OW57817   6.910  14.248  11.157
85307SOL    HW157818   6.935  14.168  11.111
85307SOL    HW257819   6.918  14.226  11.250
85308SOL     OW57820   6.156   4.718   9.116
85308SOL    HW157821   6.113   4.747   9.196
85308SOL    HW257822   6.100   4.751   9.045
85309SOL     OW57823  11.509   8.156   8.017
85309SOL    HW157824  11.537   8.118   8.101
85309SOL    HW257825  11.416   8.177   8.031
85310SOL     OW57826  10.642   9.403   7.612
85310SOL    HW157827  10.725   9.388   7.658
85310SOL    HW257828  10.632   9.326   7.556
85311SOL     OW57829   1.298   9.670   0.843
85311SOL    HW157830   1.267   9.696   0.930
85311SOL    HW257831   1.225   9.622   0.805
85312SOL     OW57832  12.368   1.065   9.320
85312SOL    HW157833  12.278   1.057   9.289
85312SOL    HW257834  12.362   1.118   9.399
85313SOL     OW57835   0.857  10.311   1.938
85313SOL    HW157836   0.934  10.279   1.985
85313SOL    HW257837   0.864  10.407   1.943
85314SOL     OW57838   3.506   8.945  13.781
85314SOL    HW157839   3.471   8.980  13.699
85314SOL    HW257840   3.570   8.879  13.754
85315SOL     OW57841   5.035   2.356  13.255
85315SOL    HW157842   5.039   2.450  13.242
85315SOL    HW257843   5.033   2.319  13.166
85316SOL     OW57844   2.476   6.790   2.947
85316SOL    HW157845   2.512   6.786   3.035
85316SOL    HW257846   2.537   6.846   2.898
85317SOL     OW57847   7.437   5.855   6.270
85317SOL    HW157848   7.398   5.941   6.252
85317SOL    HW257849   7.397   5.796   6.205
85318SOL     OW57850   5.833  14.240  12.971
85318SOL    HW157851   5.840  14.235  13.067
85318SOL    HW257852   5.816  14.333  12.953
85319SOL     OW57853   6.288   9.171  13.372
85319SOL    HW157854   6.243   9.095  13.336
85319SOL    HW257855   6.228   9.244  13.357
85320SOL     OW57856   8.990   8.249   0.729
85320SOL    HW157857   9.022   8.337   0.749
85320SOL    HW257858   9.042   8.220   0.655
85321SOL     OW57859   9.114  13.029   3.051
85321SOL    HW157860   9.044  13.032   2.986
85321SOL    HW257861   9.072  12.995   3.130
85322SOL     OW57862   1.849   2.990   3.346
85322SOL    HW157863   1.937   3.021   3.368
85322SOL    HW257864   1.860   2.941   3.265
85323SOL     OW57865   7.884   6.827  11.676
85323SOL    HW157866   7.944   6.901  11.676
85323SOL    HW257867   7.816   6.850  11.612
85324SOL     OW57868   7.801   7.090   7.607
85324SOL    HW157869   7.781   7.014   7.661
85324SOL    HW257870   7.721   7.143   7.608
85325SOL     OW57871   5.659  13.739   1.449
85325SOL    HW157872   5.666  13.705   1.360
85325SOL    HW257873   5.681  13.832   1.441
85326SOL     OW57874   1.208   4.952   1.352
85326SOL    HW157875   1.152   4.914   1.420
85326SOL    HW257876   1.166   5.034   1.329
85327SOL     OW57877   8.840   5.730  11.357
85327SOL    HW157878   8.934   5.745  11.347
85327SOL    HW257879   8.824   5.650  11.307
85328SOL     OW57880   7.491  11.937  13.624
85328SOL    HW157881   7.421  11.872  13.615
85328SOL    HW257882   7.567  11.897  13.583
85329SOL     OW57883   3.181  13.203   2.665
85329SOL    HW157884   3.090  13.225   2.643
85329SOL    HW257885   3.181  13.108   2.676
85330SOL     OW57886  10.275   1.872  10.532
85330SOL    HW157887  10.246   1.886  10.622
85330SOL    HW257888  10.223   1.798  10.501
85331SOL     OW57889   8.790   2.399   8.001
85331SOL    HW157890   8.718   2.361   7.950
85331SOL    HW257891   8.867   2.387   7.946
85332SOL     OW57892  10.867   3.562   0.711
85332SOL    HW157893  10.932   3.513   0.661
85332SOL    HW257894  10.824   3.618   0.646
85333SOL     OW57895   3.154  11.994   2.987
85333SOL    HW157896   3.165  12.069   2.928
85333SOL    HW257897   3.129  11.922   2.929
85334SOL     OW57898   6.682  12.765   7.716
85334SOL    HW157899   6.600  12.807   7.692
85334SOL    HW257900   6.671  12.740   7.807
85335SOL     OW57901   4.858  10.526  13.311
85335SOL    HW157902   4.929  10.481  13.265
85335SOL    HW257903   4.799  10.456  13.338
85336SOL     OW57904  14.124   1.631   5.979
85336SOL    HW157905  14.065   1.627   5.904
85336SOL    HW257906  14.189   1.697   5.955
85337SOL     OW57907  11.200  13.116   9.151
85337SOL    HW157908  11.128  13.178   9.161
85337SOL    HW257909  11.158  13.034   9.127
85338SOL     OW57910   5.681   4.908  12.469
85338SOL    HW157911   5.765   4.865  12.482
85338SOL    HW257912   5.615   4.841  12.490
85339SOL     OW57913   7.077   5.339   8.082
85339SOL    HW157914   7.049   5.424   8.047
85339SOL    HW257915   6.996   5.288   8.086
85340SOL     OW57916   7.696   2.631   9.571
85340SOL    HW157917   7.678   2.684   9.493
85340SOL    HW257918   7.775   2.582   9.548
85341SOL     OW57919   4.637   7.550   2.820
85341SOL    HW157920   4.626   7.570   2.913
85341SOL    HW257921   4.641   7.454   2.816
85342SOL     OW57922  11.896  10.031  14.383
85342SOL    HW157923  11.913   9.957  14.443
85342SOL    HW257924  11.971  10.030  14.324
85343SOL     OW57925   0.680   0.438  13.247
85343SOL    HW157926   0.640   0.481  13.171
85343SOL    HW257927   0.691   0.347  13.220
85344SOL     OW57928   8.081   7.861  13.682
85344SOL    HW157929   8.000   7.892  13.641
85344SOL    HW257930   8.057   7.847  13.773
85345SOL     OW57931  14.120   8.742   9.103
85345SOL    HW157932  14.096   8.670   9.162
85345SOL    HW257933  14.183   8.703   9.042
85346SOL     OW57934   0.806   0.062  10.676
85346SOL    HW157935   0.801   0.006  10.754
85346SOL    HW257936   0.854   0.139  10.706
85347SOL     OW57937   4.700  11.177   3.287
85347SOL    HW157938   4.647  11.199   3.364
85347SOL    HW257939   4.643  11.120   3.234
85348SOL     OW57940   2.867   1.844  14.629
85348SOL    HW157941   2.911   1.929  14.628
85348SOL    HW257942   2.934   1.783  14.660
85349SOL     OW57943  11.051   4.076  11.184
85349SOL    HW157944  11.107   4.095  11.259
85349SOL    HW257945  11.073   3.987  11.158
85350SOL     OW57946   5.309   7.415   8.233
85350SOL    HW157947   5.337   7.360   8.306
85350SOL    HW257948   5.363   7.386   8.159
85351SOL     OW57949   0.949  12.167  14.410
85351SOL    HW157950   0.906  12.245  14.446
85351SOL    HW257951   1.017  12.201  14.352
85352SOL     OW57952   5.460   1.427   3.661
85352SOL    HW157953   5.366   1.424   3.644
85352SOL    HW257954   5.500   1.439   3.574
85353SOL     OW57955  10.544   8.253   5.263
85353SOL    HW157956  10.577   8.241   5.174
85353SOL    HW257957  10.589   8.186   5.315
85354SOL     OW57958   1.816   1.444   8.910
85354SOL    HW157959   1.725   1.471   8.896
85354SOL    HW257960   1.849   1.505   8.975
85355SOL     OW57961   5.222   9.176  10.157
85355SOL    HW157962   5.153   9.149  10.097
85355SOL    HW257963   5.228   9.271  10.146
85356SOL     OW57964  11.084   3.990   9.375
85356SOL    HW157965  11.015   4.019   9.316
85356SOL    HW257966  11.043   3.990   9.461
85357SOL     OW57967   1.598   9.442  11.448
85357SOL    HW157968   1.579   9.479  11.362
85357SOL    HW257969   1.679   9.487  11.475
85358SOL     OW57970  12.955   4.044   6.709
85358SOL    HW157971  13.003   4.083   6.782
85358SOL    HW257972  12.864   4.068   6.724
85359SOL     OW57973  11.987   6.177  12.232
85359SOL    HW157974  11.920   6.171  12.299
85359SOL    HW257975  12.037   6.096  12.240
85360SOL     OW57976  11.897   1.956   3.716
85360SOL    HW157977  11.879   2.050   3.726
85360SOL    HW257978  11.905   1.944   3.622
85361SOL     OW57979   6.451  11.326  11.314
85361SOL    HW157980   6.430  11.275  11.392
85361SOL    HW257981   6.453  11.417  11.345
85362SOL     OW57982   3.153   7.712   1.441
85362SOL    HW157983   3.197   7.631   1.467
85362SOL    HW257984   3.222   7.777   1.439
85363SOL     OW57985   0.368   3.217   0.663
85363SOL    HW157986   0.403   3.224   0.752
85363SOL    HW257987   0.361   3.307   0.632
85364SOL     OW57988  11.249   8.999   8.834
85364SOL    HW157989  11.334   9.016   8.793
85364SOL    HW257990  11.187   9.047   8.780
85365SOL     OW57991   4.940  12.045  12.424
85365SOL    HW157992   4.923  11.962  12.469
85365SOL    HW257993   4.920  12.112  12.489
85366SOL     OW57994   0.752   6.843   6.559
85366SOL    HW157995   0.760   6.901   6.634
85366SOL    HW257996   0.837   6.846   6.516
85367SOL     OW57997   2.327  13.992   5.944
85367SOL    HW157998   2.266  14.065   5.953
85367SOL    HW257999   2.414  14.031   5.953
85368SOL     OW58000   3.124   8.064  12.367
85368SOL    HW158001   3.041   8.020  12.351
85368SOL    HW258002   3.182   8.034  12.297
85369SOL     OW58003  10.835  13.014   0.102
85369SOL    HW158004  10.915  12.965   0.079
85369SOL    HW258005  10.774  12.996   0.031
85370SOL     OW58006   7.949   1.009   9.806
85370SOL    HW158007   8.031   0.973   9.839
85370SOL    HW258008   7.959   1.008   9.711
85371SOL     OW58009  12.037  11.869   6.342
85371SOL    HW158010  11.994  11.795   6.385
85371SOL    HW258011  12.065  11.925   6.414
85372SOL     OW58012   8.160   2.435  14.820
85372SOL    HW158013   8.161   2.366   0.006
85372SOL    HW258014   8.105   2.503  14.857
85373SOL     OW58015  10.878   1.721   7.393
85373SOL    HW158016  10.830   1.681   7.466
85373SOL    HW258017  10.969   1.697   7.409
85374SOL     OW58018   5.416   2.551   2.908
85374SOL    HW158019   5.429   2.573   3.000
85374SOL    HW258020   5.504   2.533   2.875
85375SOL     OW58021   0.393  13.041   8.915
85375SOL    HW158022   0.413  12.955   8.877
85375SOL    HW258023   0.305  13.061   8.884
85376SOL     OW58024  13.541  14.854   7.576
85376SOL    HW158025  13.617  14.855   7.517
85376SOL    HW258026  13.522  14.761   7.590
85377SOL     OW58027   8.983   7.840   3.618
85377SOL    HW158028   9.005   7.931   3.597
85377SOL    HW258029   8.891   7.843   3.644
85378SOL     OW58030   7.232   1.253  12.677
85378SOL    HW158031   7.277   1.337  12.675
85378SOL    HW258032   7.143   1.272  12.646
85379SOL     OW58033   7.793   9.719   7.787
85379SOL    HW158034   7.884   9.705   7.814
85379SOL    HW258035   7.791   9.689   7.696
85380SOL     OW58036   5.075   4.759   8.074
85380SOL    HW158037   4.985   4.739   8.048
85380SOL    HW258038   5.094   4.842   8.031
85381SOL     OW58039   4.779  14.266   2.074
85381SOL    HW158040   4.729  14.345   2.095
85381SOL    HW258041   4.825  14.245   2.155
85382SOL     OW58042   6.146   2.559   5.339
85382SOL    HW158043   6.194   2.570   5.421
85382SOL    HW258044   6.084   2.632   5.337
85383SOL     OW58045   5.334   4.257  14.083
85383SOL    HW158046   5.263   4.319  14.069
85383SOL    HW258047   5.337   4.245  14.178
85384SOL     OW58048  10.577   1.975  10.278
85384SOL    HW158049  10.669   1.954  10.292
85384SOL    HW258050  10.552   1.925  10.200
85385SOL     OW58051  12.226  13.276  14.710
85385SOL    HW158052  12.209  13.341  14.642
85385SOL    HW258053  12.305  13.307  14.754
85386SOL     OW58054  13.643   6.582   6.992
85386SOL    HW158055  13.692   6.546   6.917
85386SOL    HW258056  13.690   6.661   7.016
85387SOL     OW58057  10.797   6.599  13.992
85387SOL    HW158058  10.755   6.666  13.938
85387SOL    HW258059  10.734   6.582  14.062
85388SOL     OW58060   9.334   0.846   2.505
85388SOL    HW158061   9.408   0.823   2.449
85388SOL    HW258062   9.305   0.931   2.474
85389SOL     OW58063   1.121   1.050  12.071
85389SOL    HW158064   1.118   1.138  12.034
85389SOL    HW258065   1.091   1.062  12.162
85390SOL     OW58066  11.101  12.428  10.886
85390SOL    HW158067  11.172  12.372  10.855
85390SOL    HW258068  11.067  12.384  10.964
85391SOL     OW58069  12.164  14.347   8.018
85391SOL    HW158070  12.169  14.378   8.109
85391SOL    HW258071  12.175  14.252   8.024
85392SOL     OW58072  13.720   8.366   8.877
85392SOL    HW158073  13.718   8.309   8.799
85392SOL    HW258074  13.634   8.354   8.917
85393SOL     OW58075  12.841  12.435  10.631
85393SOL    HW158076  12.894  12.500  10.676
85393SOL    HW258077  12.870  12.440  10.539
85394SOL     OW58078  10.925  14.375   1.342
85394SOL    HW158079  10.915  14.468   1.323
85394SOL    HW258080  10.836  14.343   1.357
85395SOL     OW58081   4.967   2.089   1.472
85395SOL    HW158082   5.013   2.146   1.533
85395SOL    HW258083   4.990   2.001   1.500
85396SOL     OW58084   5.722  10.132   4.573
85396SOL    HW158085   5.706  10.053   4.624
85396SOL    HW258086   5.816  10.128   4.553
85397SOL     OW58087  11.936   8.149   5.210
85397SOL    HW158088  11.888   8.105   5.280
85397SOL    HW258089  11.924   8.242   5.226
85398SOL     OW58090   8.320  14.452   5.611
85398SOL    HW158091   8.226  14.445   5.596
85398SOL    HW258092   8.336  14.397   5.688
85399SOL     OW58093   8.346  10.161  14.665
85399SOL    HW158094   8.367  10.249  14.633
85399SOL    HW258095   8.294  10.122  14.594
85400SOL     OW58096   3.837   7.757   8.660
85400SOL    HW158097   3.897   7.696   8.616
85400SOL    HW258098   3.790   7.703   8.724
85401SOL     OW58099   0.014   6.858   1.289
85401SOL    HW158100   0.096   6.894   1.254
85401SOL    HW258101  14.828   6.921   1.264
85402SOL     OW58102   9.995  10.042   6.268
85402SOL    HW158103  10.055  10.116   6.257
85402SOL    HW258104   9.950  10.061   6.351
85403SOL     OW58105  10.491   2.677   7.429
85403SOL    HW158106  10.553   2.617   7.387
85403SOL    HW258107  10.433   2.705   7.358
85404SOL     OW58108   0.718   8.188   2.840
85404SOL    HW158109   0.813   8.187   2.831
85404SOL    HW258110   0.689   8.258   2.781
85405SOL     OW58111   0.830  12.624   3.096
85405SOL    HW158112   0.771  12.673   3.153
85405SOL    HW258113   0.772  12.578   3.035
85406SOL     OW58114   1.489   8.676   6.894
85406SOL    HW158115   1.423   8.615   6.927
85406SOL    HW258116   1.512   8.730   6.970
85407SOL     OW58117  10.823   0.107  14.389
85407SOL    HW158118  10.770   0.183  14.415
85407SOL    HW258119  10.853   0.127  14.301
85408SOL     OW58120  13.451  11.417  13.293
85408SOL    HW158121  13.468  11.510  13.308
85408SOL    HW258122  13.529  11.373  13.327
85409SOL     OW58123   3.844   6.445   1.941
85409SOL    HW158124   3.797   6.507   1.997
85409SOL    HW258125   3.916   6.413   1.996
85410SOL     OW58126  13.540   4.156   5.820
85410SOL    HW158127  13.526   4.250   5.806
85410SOL    HW258128  13.614   4.151   5.880
85411SOL     OW58129  11.059  13.257   0.891
85411SOL    HW158130  11.152  13.278   0.897
85411SOL    HW258131  11.036  13.222   0.977
85412SOL     OW58132  12.199   2.288   1.660
85412SOL    HW158133  12.171   2.349   1.729
85412SOL    HW258134  12.233   2.213   1.707
85413SOL     OW58135   5.013   3.897   3.835
85413SOL    HW158136   5.061   3.856   3.763
85413SOL    HW258137   4.932   3.846   3.842
85414SOL     OW58138   3.085  14.199   4.491
85414SOL    HW158139   3.105  14.275   4.545
85414SOL    HW258140   3.084  14.232   4.401
85415SOL     OW58141   4.031   6.395   7.165
85415SOL    HW158142   4.073   6.363   7.085
85415SOL    HW258143   4.098   6.385   7.233
85416SOL     OW58144  12.164  11.849   8.189
85416SOL    HW158145  12.255  11.839   8.215
85416SOL    HW258146  12.160  11.934   8.145
85417SOL     OW58147   4.644  13.147   4.103
85417SOL    HW158148   4.703  13.158   4.028
85417SOL    HW258149   4.664  13.222   4.160
85418SOL     OW58150   8.992  14.755  11.865
85418SOL    HW158151   9.021  14.796  11.946
85418SOL    HW258152   8.897  14.753  11.871
85419SOL     OW58153   7.086   3.861  13.329
85419SOL    HW158154   7.049   3.935  13.378
85419SOL    HW258155   7.158   3.831  13.384
85420SOL     OW58156   2.881   2.062   6.327
85420SOL    HW158157   2.860   1.968   6.326
85420SOL    HW258158   2.975   2.065   6.344
85421SOL     OW58159  10.637   9.598   8.577
85421SOL    HW158160  10.543   9.595   8.559
85421SOL    HW258161  10.648   9.551   8.659
85422SOL     OW58162   6.049  14.856  13.527
85422SOL    HW158163   5.973  14.866  13.585
85422SOL    HW258164   6.014  14.874  13.440
85423SOL     OW58165  11.755   8.887   2.968
85423SOL    HW158166  11.754   8.964   3.024
85423SOL    HW258167  11.664   8.859   2.963
85424SOL     OW58168  11.889   7.619   1.799
85424SOL    HW158169  11.969   7.639   1.847
85424SOL    HW258170  11.820   7.620   1.866
85425SOL     OW58171   4.978   1.882  11.975
85425SOL    HW158172   4.927   1.963  11.980
85425SOL    HW258173   4.953   1.833  12.054
85426SOL     OW58174  13.910   5.019  12.966
85426SOL    HW158175  13.967   5.075  12.914
85426SOL    HW258176  13.916   4.933  12.924
85427SOL     OW58177   8.494  13.130   8.376
85427SOL    HW158178   8.463  13.040   8.375
85427SOL    HW258179   8.485  13.160   8.286
85428SOL     OW58180  12.892   5.356   0.419
85428SOL    HW158181  12.899   5.334   0.326
85428SOL    HW258182  12.854   5.278   0.460
85429SOL     OW58183   0.142   2.942   6.217
85429SOL    HW158184   0.216   2.991   6.182
85429SOL    HW258185   0.158   2.937   6.311
85430SOL     OW58186   1.821   5.479   4.137
85430SOL    HW158187   1.760   5.463   4.209
85430SOL    HW258188   1.863   5.562   4.158
85431SOL     OW58189  10.963   9.899   4.591
85431SOL    HW158190  10.925   9.912   4.678
85431SOL    HW258191  10.915   9.824   4.555
85432SOL     OW58192  14.609   0.238  14.784
85432SOL    HW158193  14.622   0.208  14.694
85432SOL    HW258194  14.617   0.158  14.837
85433SOL     OW58195   9.632   1.167  14.068
85433SOL    HW158196   9.707   1.157  14.125
85433SOL    HW258197   9.561   1.121  14.113
85434SOL     OW58198   1.716   5.892  10.697
85434SOL    HW158199   1.695   5.799  10.693
85434SOL    HW258200   1.769   5.902  10.775
85435SOL     OW58201   9.116   3.601   8.884
85435SOL    HW158202   9.029   3.562   8.887
85435SOL    HW258203   9.120   3.657   8.962
85436SOL     OW58204  12.136  11.877   5.339
85436SOL    HW158205  12.116  11.900   5.248
85436SOL    HW258206  12.161  11.785   5.337
85437SOL     OW58207  13.891   8.451  13.038
85437SOL    HW158208  13.827   8.456  12.967
85437SOL    HW258209  13.933   8.365  13.027
85438SOL     OW58210  12.958   6.723   3.738
85438SOL    HW158211  12.891   6.726   3.670
85438SOL    HW258212  13.038   6.749   3.693
85439SOL     OW58213  10.949   1.949   3.288
85439SOL    HW158214  10.949   1.971   3.195
85439SOL    HW258215  10.895   2.017   3.328
85440SOL     OW58216  10.172  10.711   3.222
85440SOL    HW158217  10.115  10.673   3.289
85440SOL    HW258218  10.143  10.671   3.140
85441SOL     OW58219   8.142   0.538   4.530
85441SOL    HW158220   8.223   0.543   4.580
85441SOL    HW258221   8.145   0.452   4.488
85442SOL     OW58222  12.682   0.021  10.256
85442SOL    HW158223  12.629   0.054  10.328
85442SOL    HW258224  12.676   0.088  10.188
85443SOL     OW58225   9.957  14.281   1.434
85443SOL    HW158226  10.006  14.297   1.354
85443SOL    HW258227   9.867  14.308   1.413
85444SOL     OW58228  13.575   6.873   3.842
85444SOL    HW158229  13.566   6.869   3.937
85444SOL    HW258230  13.542   6.961   3.819
85445SOL     OW58231   7.733  14.800  13.333
85445SOL    HW158232   7.642  14.818  13.308
85445SOL    HW258233   7.782  14.875  13.300
85446SOL     OW58234   3.722   8.679   5.302
85446SOL    HW158235   3.712   8.592   5.341
85446SOL    HW258236   3.760   8.732   5.373
85447SOL     OW58237   4.402   0.641  11.141
85447SOL    HW158238   4.346   0.586  11.087
85447SOL    HW258239   4.391   0.608  11.230
85448SOL     OW58240   8.378   1.662  14.597
85448SOL    HW158241   8.336   1.703  14.673
85448SOL    HW258242   8.466   1.699  14.594
85449SOL     OW58243   3.248   7.814   4.557
85449SOL    HW158244   3.261   7.745   4.623
85449SOL    HW258245   3.154   7.826   4.553
85450SOL     OW58246   5.180   6.118   3.708
85450SOL    HW158247   5.138   6.077   3.784
85450SOL    HW258248   5.259   6.159   3.742
85451SOL     OW58249   7.939  11.195   5.275
85451SOL    HW158250   7.903  11.225   5.359
85451SOL    HW258251   7.901  11.108   5.262
85452SOL     OW58252   9.870  13.249  12.811
85452SOL    HW158253   9.917  13.308  12.752
85452SOL    HW258254   9.790  13.227  12.764
85453SOL     OW58255  12.612  13.204   6.355
85453SOL    HW158256  12.668  13.175   6.282
85453SOL    HW258257  12.581  13.290   6.329
85454SOL     OW58258  13.469   8.375   6.058
85454SOL    HW158259  13.396   8.362   6.118
85454SOL    HW258260  13.543   8.331   6.101
85455SOL     OW58261   7.735   2.924   2.823
85455SOL    HW158262   7.642   2.927   2.801
85455SOL    HW258263   7.742   2.854   2.888
85456SOL     OW58264   9.731  13.766   4.640
85456SOL    HW158265   9.717  13.803   4.553
85456SOL    HW258266   9.801  13.818   4.678
85457SOL     OW58267   3.396   8.136   1.735
85457SOL    HW158268   3.468   8.195   1.712
85457SOL    HW258269   3.329   8.155   1.670
85458SOL     OW58270   0.785   3.839   5.272
85458SOL    HW158271   0.865   3.803   5.312
85458SOL    HW258272   0.787   3.807   5.182
85459SOL     OW58273  12.317  11.243  14.167
85459SOL    HW158274  12.255  11.256  14.238
85459SOL    HW258275  12.401  11.228  14.211
85460SOL     OW58276   7.954   5.933   4.898
85460SOL    HW158277   7.971   5.889   4.981
85460SOL    HW258278   7.991   5.875   4.832
85461SOL     OW58279   2.656   4.580  12.973
85461SOL    HW158280   2.627   4.491  12.994
85461SOL    HW258281   2.631   4.593  12.882
85462SOL     OW58282   0.797   7.106  12.387
85462SOL    HW158283   0.865   7.064  12.438
85462SOL    HW258284   0.838   7.186  12.354
85463SOL     OW58285  14.507  11.889   2.910
85463SOL    HW158286  14.437  11.953   2.900
85463SOL    HW258287  14.545  11.880   2.822
85464SOL     OW58288  10.777   3.227   4.937
85464SOL    HW158289  10.847   3.163   4.943
85464SOL    HW258290  10.794   3.289   5.007
85465SOL     OW58291  13.691   6.460   3.414
85465SOL    HW158292  13.642   6.436   3.336
85465SOL    HW258293  13.673   6.391   3.477
85466SOL     OW58294   5.031   8.168   4.557
85466SOL    HW158295   5.115   8.207   4.533
85466SOL    HW258296   4.967   8.215   4.503
85467SOL     OW58297   1.244  12.802   6.833
85467SOL    HW158298   1.237  12.706   6.839
85467SOL    HW258299   1.196  12.834   6.909
85468SOL     OW58300  13.712  14.870   3.063
85468SOL    HW158301  13.800  14.880   3.100
85468SOL    HW258302  13.720   0.028   2.975
85469SOL     OW58303   7.904   7.878   0.066
85469SOL    HW158304   7.946   7.812   0.011
85469SOL    HW258305   7.849   7.828   0.126
85470SOL     OW58306   2.315   7.175  11.453
85470SOL    HW158307   2.250   7.190  11.522
85470SOL    HW258308   2.388   7.132  11.498
85471SOL     OW58309   1.634   1.545  14.455
85471SOL    HW158310   1.600   1.460  14.484
85471SOL    HW258311   1.566   1.608  14.479
85472SOL     OW58312  10.819   4.163  11.290
85472SOL    HW158313  10.889   4.134  11.231
85472SOL    HW258314  10.852   4.245  11.326
85473SOL     OW58315   1.419  12.099  12.017
85473SOL    HW158316   1.499  12.135  12.055
85473SOL    HW258317   1.355  12.103  12.089
85474SOL     OW58318   4.578   5.561   1.888
85474SOL    HW158319   4.622   5.594   1.966
85474SOL    HW258320   4.644   5.505   1.846
85475SOL     OW58321   3.823  14.792   7.762
85475SOL    HW158322   3.862  14.761   7.844
85475SOL    HW258323   3.774  14.871   7.788
85476SOL     OW58324   8.835   0.685  14.338
85476SOL    HW158325   8.795   0.646  14.416
85476SOL    HW258326   8.879   0.764  14.371
85477SOL     OW58327  13.520   0.756   1.318
85477SOL    HW158328  13.453   0.737   1.384
85477SOL    HW258329  13.543   0.671   1.282
85478SOL     OW58330  13.387   3.622   2.704
85478SOL    HW158331  13.470   3.614   2.751
85478SOL    HW258332  13.329   3.558   2.745
85479SOL     OW58333  11.200   1.748   7.741
85479SOL    HW158334  11.117   1.762   7.786
85479SOL    HW258335  11.247   1.831   7.750
85480SOL     OW58336  12.590   6.194  11.905
85480SOL    HW158337  12.676   6.219  11.869
85480SOL    HW258338  12.564   6.268  11.959
85481SOL     OW58339   9.467   0.543   0.792
85481SOL    HW158340   9.426   0.593   0.862
85481SOL    HW258341   9.410   0.468   0.778
85482SOL     OW58342  13.948   6.842   9.867
85482SOL    HW158343  13.952   6.916   9.807
85482SOL    HW258344  13.962   6.879   9.954
85483SOL     OW58345   5.040  10.412  13.119
85483SOL    HW158346   5.104  10.446  13.056
85483SOL    HW258347   4.986  10.351  13.068
85484SOL     OW58348  12.892  12.355   4.645
85484SOL    HW158349  12.853  12.436   4.613
85484SOL    HW258350  12.874  12.355   4.739
85485SOL     OW58351  13.872  11.843  13.395
85485SOL    HW158352  13.791  11.882  13.365
85485SOL    HW258353  13.941  11.887  13.345
85486SOL     OW58354   6.844   3.213   2.515
85486SOL    HW158355   6.875   3.295   2.554
85486SOL    HW258356   6.750   3.213   2.532
85487SOL     OW58357   5.029   1.227   6.040
85487SOL    HW158358   5.098   1.259   5.981
85487SOL    HW258359   4.949   1.267   6.006
85488SOL     OW58360   7.052   6.088  11.221
85488SOL    HW158361   6.992   6.055  11.289
85488SOL    HW258362   6.995   6.128  11.156
85489SOL     OW58363   6.829   6.935   9.837
85489SOL    HW158364   6.776   7.011   9.813
85489SOL    HW258365   6.765   6.866   9.856
85490SOL     OW58366   0.249   4.179   6.102
85490SOL    HW158367   0.202   4.175   6.018
85490SOL    HW258368   0.330   4.130   6.085
85491SOL     OW58369   4.925  11.504   3.642
85491SOL    HW158370   4.830  11.495   3.637
85491SOL    HW258371   4.946  11.580   3.588
85492SOL     OW58372   5.819   6.167   8.204
85492SOL    HW158373   5.829   6.114   8.282
85492SOL    HW258374   5.741   6.220   8.220
85493SOL     OW58375  11.368   7.500  12.622
85493SOL    HW158376  11.333   7.412  12.626
85493SOL    HW258377  11.463   7.489  12.625
85494SOL     OW58378  14.622  14.391   3.349
85494SOL    HW158379  14.551  14.451   3.324
85494SOL    HW258380  14.596  14.357   3.434
85495SOL     OW58381   6.401   2.434  12.705
85495SOL    HW158382   6.431   2.346  12.681
85495SOL    HW258383   6.410   2.485  12.624
85496SOL     OW58384   8.463   5.326   0.987
85496SOL    HW158385   8.412   5.313   0.907
85496SOL    HW258386   8.494   5.417   0.981
85497SOL     OW58387   7.954   5.748  10.762
85497SOL    HW158388   8.046   5.736  10.783
85497SOL    HW258389   7.934   5.837  10.791
85498SOL     OW58390   7.791   6.347  10.798
85498SOL    HW158391   7.703   6.361  10.762
85498SOL    HW258392   7.828   6.277  10.743
85499SOL     OW58393   0.088   8.369  12.543
85499SOL    HW158394   0.072   8.396  12.453
85499SOL    HW258395   0.040   8.433  12.596
85500SOL     OW58396   3.662  10.174   8.269
85500SOL    HW158397   3.590  10.129   8.313
85500SOL    HW258398   3.737  10.115   8.282
85501SOL     OW58399  12.702   6.382   2.454
85501SOL    HW158400  12.665   6.296   2.433
85501SOL    HW258401  12.626   6.440   2.455
85502SOL     OW58402   8.692   8.130   6.711
85502SOL    HW158403   8.681   8.036   6.697
85502SOL    HW258404   8.687   8.141   6.806
85503SOL     OW58405   8.343   8.186   9.712
85503SOL    HW158406   8.352   8.224   9.800
85503SOL    HW258407   8.276   8.239   9.670
85504SOL     OW58408   9.281  13.388  11.593
85504SOL    HW158409   9.310  13.476  11.617
85504SOL    HW258410   9.207  13.370  11.652
85505SOL     OW58411  14.263   5.201   1.435
85505SOL    HW158412  14.306   5.230   1.356
85505SOL    HW258413  14.199   5.136   1.405
85506SOL     OW58414  10.149   7.572   8.323
85506SOL    HW158415  10.129   7.617   8.241
85506SOL    HW258416  10.107   7.625   8.390
85507SOL     OW58417  11.922  14.148  14.297
85507SOL    HW158418  11.839  14.191  14.315
85507SOL    HW258419  11.982  14.182  14.364
85508SOL     OW58420   1.717  14.831  10.008
85508SOL    HW158421   1.661  14.860  10.080
85508SOL    HW258422   1.778  14.770  10.048
85509SOL     OW58423   4.078  10.464  12.579
85509SOL    HW158424   4.077  10.516  12.660
85509SOL    HW258425   4.170  10.458  12.556
85510SOL     OW58426   9.760   8.025   6.534
85510SOL    HW158427   9.837   7.968   6.528
85510SOL    HW258428   9.701   7.980   6.594
85511SOL     OW58429   4.523  12.163   2.237
85511SOL    HW158430   4.543  12.096   2.171
85511SOL    HW258431   4.586  12.233   2.219
85512SOL     OW58432   9.980   5.240   9.213
85512SOL    HW158433  10.034   5.163   9.232
85512SOL    HW258434   9.961   5.278   9.299
85513SOL     OW58435   3.157   1.066  13.599
85513SOL    HW158436   3.148   1.133  13.667
85513SOL    HW258437   3.117   0.988  13.638
85514SOL     OW58438  11.943   9.245   3.565
85514SOL    HW158439  11.934   9.181   3.636
85514SOL    HW258440  12.038   9.258   3.556
85515SOL     OW58441   7.835   0.848  10.270
85515SOL    HW158442   7.909   0.889  10.314
85515SOL    HW258443   7.871   0.818  10.186
85516SOL     OW58444   2.311   1.458   8.041
85516SOL    HW158445   2.395   1.411   8.046
85516SOL    HW258446   2.265   1.432   8.121
85517SOL     OW58447   9.302   7.284   8.204
85517SOL    HW158448   9.365   7.224   8.243
85517SOL    HW258449   9.332   7.296   8.114
85518SOL     OW58450   9.201   3.984   5.028
85518SOL    HW158451   9.202   4.057   5.090
85518SOL    HW258452   9.292   3.952   5.027
85519SOL     OW58453  13.311  13.228   2.496
85519SOL    HW158454  13.365  13.269   2.429
85519SOL    HW258455  13.224  13.219   2.455
85520SOL     OW58456   7.755   3.152   5.470
85520SOL    HW158457   7.744   3.148   5.375
85520SOL    HW258458   7.668   3.173   5.503
85521SOL     OW58459   6.837   9.487   0.339
85521SOL    HW158460   6.853   9.393   0.326
85521SOL    HW258461   6.920   9.529   0.315
85522SOL     OW58462   5.245   5.791  13.068
85522SOL    HW158463   5.289   5.833  12.994
85522SOL    HW258464   5.270   5.843  13.144
85523SOL     OW58465  13.579  13.560   5.552
85523SOL    HW158466  13.567  13.623   5.623
85523SOL    HW258467  13.534  13.598   5.477
85524SOL     OW58468  13.816   4.022   1.752
85524SOL    HW158469  13.799   4.099   1.697
85524SOL    HW258470  13.747   3.960   1.726
85525SOL     OW58471   5.516   8.543   6.665
85525SOL    HW158472   5.464   8.494   6.602
85525SOL    HW258473   5.465   8.622   6.682
85526SOL     OW58474  10.839   5.684   1.357
85526SOL    HW158475  10.809   5.596   1.335
85526SOL    HW258476  10.909   5.702   1.295
85527SOL     OW58477   6.497  11.230   8.061
85527SOL    HW158478   6.548  11.184   8.128
85527SOL    HW258479   6.550  11.224   7.982
85528SOL     OW58480   6.386  14.182  10.400
85528SOL    HW158481   6.330  14.246  10.357
85528SOL    HW258482   6.329  14.105  10.412
85529SOL     OW58483   0.280  14.727   5.449
85529SOL    HW158484   0.217  14.750   5.517
85529SOL    HW258485   0.355  14.785   5.464
85530SOL     OW58486  11.607   0.463   8.437
85530SOL    HW158487  11.530   0.476   8.493
85530SOL    HW258488  11.596   0.527   8.367
85531SOL     OW58489   3.436   9.948  11.353
85531SOL    HW158490   3.510  10.001  11.325
85531SOL    HW258491   3.459   9.921  11.442
85532SOL     OW58492   4.461  13.529   0.411
85532SOL    HW158493   4.419  13.615   0.413
85532SOL    HW258494   4.523  13.531   0.483
85533SOL     OW58495   1.559   8.942   3.509
85533SOL    HW158496   1.544   8.847   3.513
85533SOL    HW258497   1.599   8.963   3.594
85534SOL     OW58498   1.742   8.746   2.670
85534SOL    HW158499   1.815   8.712   2.722
85534SOL    HW258500   1.784   8.798   2.601
85535SOL     OW58501   3.355   0.604  10.333
85535SOL    HW158502   3.411   0.536  10.371
85535SOL    HW258503   3.389   0.617  10.245
85536SOL     OW58504   0.116  11.303   7.464
85536SOL    HW158505   0.171  11.238   7.508
85536SOL    HW258506   0.170  11.335   7.392
85537SOL     OW58507   2.038   3.214   1.319
85537SOL    HW158508   1.953   3.177   1.342
85537SOL    HW258509   2.034   3.304   1.349
85538SOL     OW58510   7.038   2.874   8.727
85538SOL    HW158511   6.997   2.803   8.777
85538SOL    HW258512   7.044   2.841   8.638
85539SOL     OW58513  13.469   0.494   3.278
85539SOL    HW158514  13.499   0.412   3.317
85539SOL    HW258515  13.450   0.550   3.354
85540SOL     OW58516  10.336   0.455  14.649
85540SOL    HW158517  10.332   0.524  14.583
85540SOL    HW258518  10.410   0.479  14.704
85541SOL     OW58519   4.317   9.671  13.937
85541SOL    HW158520   4.380   9.736  13.905
85541SOL    HW258521   4.336   9.593  13.885
85542SOL     OW58522  10.890   6.981   6.269
85542SOL    HW158523  10.918   7.060   6.316
85542SOL    HW258524  10.963   6.959   6.212
85543SOL     OW58525  10.076   6.462   8.091
85543SOL    HW158526  10.061   6.555   8.080
85543SOL    HW258527   9.990   6.425   8.109
85544SOL     OW58528   0.175   8.229   2.378
85544SOL    HW158529   0.153   8.178   2.300
85544SOL    HW258530   0.105   8.209   2.440
85545SOL     OW58531   1.750   3.034  11.096
85545SOL    HW158532   1.806   3.038  11.174
85545SOL    HW258533   1.811   3.049  11.023
85546SOL     OW58534  12.678   5.439   3.618
85546SOL    HW158535  12.641   5.424   3.531
85546SOL    HW258536  12.767   5.471   3.601
85547SOL     OW58537  11.790   2.976  14.334
85547SOL    HW158538  11.885   2.992  14.332
85547SOL    HW258539  11.780   2.904  14.396
85548SOL     OW58540   0.694   5.639  12.802
85548SOL    HW158541   0.607   5.679  12.801
85548SOL    HW258542   0.726   5.653  12.891
85549SOL     OW58543  10.423   3.800   2.556
85549SOL    HW158544  10.426   3.895   2.554
85549SOL    HW258545  10.361   3.779   2.627
85550SOL     OW58546   1.991   8.829  13.608
85550SOL    HW158547   1.967   8.884  13.533
85550SOL    HW258548   1.972   8.883  13.685
85551SOL     OW58549   4.052   2.654  13.157
85551SOL    HW158550   3.961   2.658  13.186
85551SOL    HW258551   4.050   2.683  13.066
85552SOL     OW58552   5.934  11.483   9.962
85552SOL    HW158553   5.976  11.457  10.044
85552SOL    HW258554   6.003  11.475   9.896
85553SOL     OW58555  11.047  11.163   7.614
85553SOL    HW158556  11.044  11.253   7.648
85553SOL    HW258557  11.034  11.108   7.691
85554SOL     OW58558   1.433  12.384  12.979
85554SOL    HW158559   1.338  12.375  12.976
85554SOL    HW258560   1.449  12.478  12.982
85555SOL     OW58561   5.656  12.744   7.057
85555SOL    HW158562   5.712  12.806   7.011
85555SOL    HW258563   5.708  12.718   7.134
85556SOL     OW58564  12.924   0.532  10.982
85556SOL    HW158565  12.846   0.548  11.035
85556SOL    HW258566  12.989   0.594  11.017
85557SOL     OW58567   6.492   3.574   0.955
85557SOL    HW158568   6.403   3.598   0.983
85557SOL    HW258569   6.546   3.589   1.033
85558SOL     OW58570   0.152   8.059  10.799
85558SOL    HW158571   0.100   8.138  10.812
85558SOL    HW258572   0.090   7.994  10.766
85559SOL     OW58573  14.623   0.960   5.227
85559SOL    HW158574  14.630   1.032   5.291
85559SOL    HW258575  14.537   0.972   5.187
85560SOL     OW58576   3.603   7.819  10.960
85560SOL    HW158577   3.638   7.730  10.955
85560SOL    HW258578   3.674   7.872  10.996
85561SOL     OW58579   3.092  11.184  10.986
85561SOL    HW158580   3.126  11.148  11.068
85561SOL    HW258581   2.998  11.167  10.989
85562SOL     OW58582   4.717  10.715   9.435
85562SOL    HW158583   4.719  10.720   9.339
85562SOL    HW258584   4.626  10.695   9.455
85563SOL     OW58585  11.214   2.915  10.085
85563SOL    HW158586  11.227   2.841  10.026
85563SOL    HW258587  11.245   2.883  10.170
85564SOL     OW58588  11.720   0.113   8.171
85564SOL    HW158589  11.792   0.166   8.205
85564SOL    HW258590  11.748   0.022   8.187
85565SOL     OW58591   0.811   6.896   8.035
85565SOL    HW158592   0.768   6.910   7.951
85565SOL    HW258593   0.830   6.984   8.067
85566SOL     OW58594   4.308   6.877   2.802
85566SOL    HW158595   4.310   6.789   2.840
85566SOL    HW258596   4.393   6.886   2.759
85567SOL     OW58597  11.727   0.258  10.704
85567SOL    HW158598  11.661   0.326  10.717
85567SOL    HW258599  11.792   0.275  10.772
85568SOL     OW58600   9.943  13.751  11.237
85568SOL    HW158601  10.001  13.767  11.163
85568SOL    HW258602  10.002  13.723  11.307
85569SOL     OW58603   5.512   4.607   4.325
85569SOL    HW158604   5.543   4.523   4.358
85569SOL    HW258605   5.577   4.670   4.356
85570SOL     OW58606   1.855  10.798  13.732
85570SOL    HW158607   1.890  10.866  13.674
85570SOL    HW258608   1.785  10.757  13.681
85571SOL     OW58609   0.649  14.080  12.653
85571SOL    HW158610   0.741  14.062  12.670
85571SOL    HW258611   0.604  14.000  12.680
85572SOL     OW58612   3.426   8.084   9.238
85572SOL    HW158613   3.454   8.175   9.223
85572SOL    HW258614   3.508   8.035   9.246
85573SOL     OW58615  10.085   8.249   0.268
85573SOL    HW158616  10.057   8.253   0.176
85573SOL    HW258617  10.026   8.184   0.308
85574SOL     OW58618   3.698   3.164   4.914
85574SOL    HW158619   3.707   3.259   4.913
85574SOL    HW258620   3.781   3.131   4.880
85575SOL     OW58621   4.644  14.640   2.843
85575SOL    HW158622   4.680  14.727   2.823
85575SOL    HW258623   4.690  14.614   2.923
85576SOL     OW58624   1.554   6.432   1.052
85576SOL    HW158625   1.477   6.390   1.089
85576SOL    HW258626   1.523   6.473   0.971
85577SOL     OW58627   7.277  13.568   5.326
85577SOL    HW158628   7.237  13.495   5.279
85577SOL    HW258629   7.345  13.528   5.380
85578SOL     OW58630   3.489  14.232   2.224
85578SOL    HW158631   3.462  14.184   2.302
85578SOL    HW258632   3.411  14.280   2.197
85579SOL     OW58633  12.412   4.980   0.854
85579SOL    HW158634  12.390   4.956   0.944
85579SOL    HW258635  12.449   5.069   0.862
85580SOL     OW58636   9.404   0.332   7.604
85580SOL    HW158637   9.346   0.286   7.543
85580SOL    HW258638   9.347   0.396   7.647
85581SOL     OW58639   7.626   0.643  12.534
85581SOL    HW158640   7.600   0.734  12.525
85581SOL    HW258641   7.544   0.595  12.547
85582SOL     OW58642   5.997  10.091  13.353
85582SOL    HW158643   6.008   9.997  13.361
85582SOL    HW258644   6.013  10.126  13.441
85583SOL     OW58645   1.621  11.783   7.249
85583SOL    HW158646   1.589  11.804   7.336
85583SOL    HW258647   1.652  11.867   7.214
85584SOL     OW58648  10.316   3.775  12.958
85584SOL    HW158649  10.276   3.693  12.988
85584SOL    HW258650  10.337   3.822  13.039
85585SOL     OW58651  11.196   8.706   9.178
85585SOL    HW158652  11.152   8.763   9.115
85585SOL    HW258653  11.286   8.738   9.181
85586SOL     OW58654   3.878   3.257   1.676
85586SOL    HW158655   3.827   3.318   1.623
85586SOL    HW258656   3.817   3.228   1.744
85587SOL     OW58657  13.041  11.757   6.757
85587SOL    HW158658  13.032  11.852   6.766
85587SOL    HW258659  13.068  11.727   6.844
85588SOL     OW58660  11.019   1.875  12.500
85588SOL    HW158661  10.999   1.788  12.535
85588SOL    HW258662  11.107   1.867  12.463
85589SOL     OW58663  12.216   5.809  10.788
85589SOL    HW158664  12.132   5.837  10.825
85589SOL    HW258665  12.241   5.734  10.842
85590SOL     OW58666   0.554   2.098  12.884
85590SOL    HW158667   0.611   2.170  12.911
85590SOL    HW258668   0.510   2.130  12.805
85591SOL     OW58669   3.734   9.395   0.604
85591SOL    HW158670   3.664   9.344   0.563
85591SOL    HW258671   3.699   9.484   0.608
85592SOL     OW58672   2.160   5.997   9.773
85592SOL    HW158673   2.170   6.052   9.696
85592SOL    HW258674   2.143   6.058   9.844
85593SOL     OW58675   2.948   0.824   0.185
85593SOL    HW158676   2.870   0.838   0.237
85593SOL    HW258677   3.021   0.841   0.245
85594SOL     OW58678  11.594   8.609  10.649
85594SOL    HW158679  11.674   8.565  10.676
85594SOL    HW258680  11.571   8.567  10.566
85595SOL     OW58681  13.945   1.453   4.826
85595SOL    HW158682  13.957   1.534   4.876
85595SOL    HW258683  13.850   1.445   4.815
85596SOL     OW58684  11.743   7.244   9.130
85596SOL    HW158685  11.812   7.263   9.066
85596SOL    HW258686  11.761   7.303   9.203
85597SOL     OW58687   0.528   0.356   8.962
85597SOL    HW158688   0.474   0.416   9.015
85597SOL    HW258689   0.491   0.269   8.979
85598SOL     OW58690   3.310  10.193  11.580
85598SOL    HW158691   3.257  10.128  11.626
85598SOL    HW258692   3.281  10.189  11.489
85599SOL     OW58693   1.236   6.802  13.960
85599SOL    HW158694   1.228   6.875  14.022
85599SOL    HW258695   1.265   6.844  13.878
85600SOL     OW58696   2.412   8.111  10.701
85600SOL    HW158697   2.469   8.044  10.663
85600SOL    HW258698   2.458   8.193  10.685
85601SOL     OW58699   4.443   4.379  11.633
85601SOL    HW158700   4.389   4.300  11.635
85601SOL    HW258701   4.531   4.348  11.611
85602SOL     OW58702  11.492   0.544   7.626
85602SOL    HW158703  11.566   0.565   7.569
85602SOL    HW258704  11.450   0.469   7.583
85603SOL     OW58705   6.155  11.880  13.282
85603SOL    HW158706   6.149  11.959  13.336
85603SOL    HW258707   6.221  11.826  13.326
85604SOL     OW58708  13.966   3.744   3.622
85604SOL    HW158709  13.970   3.829   3.578
85604SOL    HW258710  14.053   3.706   3.609
85605SOL     OW58711   6.518   6.388   8.032
85605SOL    HW158712   6.441   6.363   7.980
85605SOL    HW258713   6.524   6.321   8.100
85606SOL     OW58714  14.685  14.398   9.551
85606SOL    HW158715  14.708  14.326   9.610
85606SOL    HW258716  14.661  14.355   9.469
85607SOL     OW58717   1.410   0.131   4.418
85607SOL    HW158718   1.395   0.085   4.334
85607SOL    HW258719   1.388   0.066   4.484
85608SOL     OW58720  13.883   6.370   2.209
85608SOL    HW158721  13.934   6.308   2.261
85608SOL    HW258722  13.818   6.405   2.271
85609SOL     OW58723   9.871   7.945  13.425
85609SOL    HW158724   9.799   8.002  13.449
85609SOL    HW258725   9.861   7.933  13.330
85610SOL     OW58726   8.338  13.295  14.549
85610SOL    HW158727   8.388  13.298  14.631
85610SOL    HW258728   8.261  13.243  14.570
85611SOL     OW58729  10.050   4.395   2.477
85611SOL    HW158730  10.001   4.327   2.523
85611SOL    HW258731   9.984   4.461   2.454
85612SOL     OW58732   5.326  13.979  11.659
85612SOL    HW158733   5.349  14.069  11.633
85612SOL    HW258734   5.352  13.974  11.751
85613SOL     OW58735   3.219   8.506   5.197
85613SOL    HW158736   3.142   8.487   5.250
85613SOL    HW258737   3.289   8.522   5.260
85614SOL     OW58738  13.374  13.931   9.882
85614SOL    HW158739  13.307  13.998   9.895
85614SOL    HW258740  13.371  13.912   9.788
85615SOL     OW58741   0.404   5.697  12.142
85615SOL    HW158742   0.442   5.673  12.226
85615SOL    HW258743   0.313   5.718  12.163
85616SOL     OW58744  14.115  11.818   1.535
85616SOL    HW158745  14.097  11.809   1.628
85616SOL    HW258746  14.084  11.736   1.496
85617SOL     OW58747   4.134  13.034  14.348
85617SOL    HW158748   4.096  13.067  14.267
85617SOL    HW258749   4.158  12.943  14.328
85618SOL     OW58750  14.308   6.080   1.291
85618SOL    HW158751  14.273   6.165   1.318
85618SOL    HW258752  14.393   6.100   1.253
85619SOL     OW58753   0.858   5.178   9.718
85619SOL    HW158754   0.919   5.205   9.649
85619SOL    HW258755   0.889   5.092   9.746
85620SOL     OW58756   2.706  14.421  11.699
85620SOL    HW158757   2.801  14.426  11.683
85620SOL    HW258758   2.697  14.433  11.794
85621SOL     OW58759   0.905  13.932  13.040
85621SOL    HW158760   0.966  14.006  13.048
85621SOL    HW258761   0.829  13.959  13.092
85622SOL     OW58762   8.163   5.050   6.440
85622SOL    HW158763   8.072   5.024   6.451
85622SOL    HW258764   8.162   5.145   6.451
85623SOL     OW58765  12.917   9.589  11.343
85623SOL    HW158766  12.904   9.677  11.379
85623SOL    HW258767  13.012   9.578  11.340
85624SOL     OW58768   8.968   4.092   0.663
85624SOL    HW158769   8.959   4.056   0.751
85624SOL    HW258770   8.991   4.184   0.677
85625SOL     OW58771  12.917   0.245   8.700
85625SOL    HW158772  13.003   0.230   8.741
85625SOL    HW258773  12.887   0.157   8.676
85626SOL     OW58774   8.467   0.101   4.460
85626SOL    HW158775   8.455   0.188   4.422
85626SOL    HW258776   8.380   0.075   4.492
85627SOL     OW58777   3.363  14.257   3.692
85627SOL    HW158778   3.295  14.322   3.709
85627SOL    HW258779   3.340  14.184   3.750
85628SOL     OW58780   2.999   2.041  10.228
85628SOL    HW158781   3.042   1.956  10.219
85628SOL    HW258782   3.035   2.078  10.309
85629SOL     OW58783  13.739   9.209   4.562
85629SOL    HW158784  13.654   9.221   4.604
85629SOL    HW258785  13.763   9.296   4.532
85630SOL     OW58786   6.294  10.628   7.481
85630SOL    HW158787   6.214  10.679   7.493
85630SOL    HW258788   6.276  10.574   7.404
85631SOL     OW58789  14.441   8.253   4.647
85631SOL    HW158790  14.364   8.308   4.662
85631SOL    HW258791  14.414   8.193   4.577
85632SOL     OW58792  13.573   4.955   4.270
85632SOL    HW158793  13.572   4.940   4.176
85632SOL    HW258794  13.557   5.049   4.279
85633SOL     OW58795   1.009   6.336  14.323
85633SOL    HW158796   1.013   6.430  14.302
85633SOL    HW258797   1.019   6.333  14.418
85634SOL     OW58798   8.790  10.659  11.696
85634SOL    HW158799   8.794  10.578  11.747
85634SOL    HW258800   8.697  10.669  11.675
85635SOL     OW58801   3.319   9.030   3.597
85635SOL    HW158802   3.345   8.957   3.654
85635SOL    HW258803   3.223   9.025   3.594
85636SOL     OW58804   8.702   8.667  12.384
85636SOL    HW158805   8.701   8.729  12.311
85636SOL    HW258806   8.609   8.654  12.404
85637SOL     OW58807  14.300   0.892   9.953
85637SOL    HW158808  14.305   0.858   9.864
85637SOL    HW258809  14.324   0.818  10.009
85638SOL     OW58810   5.127   8.094   6.904
85638SOL    HW158811   5.171   8.143   6.834
85638SOL    HW258812   5.137   8.002   6.879
85639SOL     OW58813   4.378   6.027   1.513
85639SOL    HW158814   4.436   5.950   1.513
85639SOL    HW258815   4.397   6.070   1.429
85640SOL     OW58816  12.339   6.967  12.417
85640SOL    HW158817  12.250   6.935  12.405
85640SOL    HW258818  12.390   6.925  12.348
85641SOL     OW58819   6.131  14.478   9.970
85641SOL    HW158820   6.048  14.456  10.014
85641SOL    HW258821   6.190  14.406   9.994
85642SOL     OW58822   1.672   7.403   4.322
85642SOL    HW158823   1.740   7.431   4.260
85642SOL    HW258824   1.693   7.449   4.403
85643SOL     OW58825   4.005   4.056  11.528
85643SOL    HW158826   3.914   4.050  11.556
85643SOL    HW258827   4.013   3.993  11.457
85644SOL     OW58828   8.818   4.105   0.199
85644SOL    HW158829   8.807   4.083   0.291
85644SOL    HW258830   8.908   4.136   0.192
85645SOL     OW58831   6.711   5.080   9.000
85645SOL    HW158832   6.793   5.126   9.018
85645SOL    HW258833   6.663   5.081   9.083
85646SOL     OW58834   1.097  10.467   4.929
85646SOL    HW158835   1.083  10.508   4.844
85646SOL    HW258836   1.031  10.398   4.934
85647SOL     OW58837   7.691  11.399   7.341
85647SOL    HW158838   7.604  11.369   7.312
85647SOL    HW258839   7.723  11.329   7.398
85648SOL     OW58840  14.023   5.144   2.079
85648SOL    HW158841  13.978   5.060   2.073
85648SOL    HW258842  14.092   5.138   2.012
85649SOL     OW58843  14.750  11.403   8.307
85649SOL    HW158844  14.823  11.454   8.343
85649SOL    HW258845  14.748  11.324   8.360
85650SOL     OW58846   1.167   0.517   8.722
85650SOL    HW158847   1.223   0.453   8.766
85650SOL    HW258848   1.176   0.597   8.773
85651SOL     OW58849   8.170   5.183   8.532
85651SOL    HW158850   8.200   5.153   8.446
85651SOL    HW258851   8.115   5.259   8.513
85652SOL     OW58852   1.201  10.892   6.438
85652SOL    HW158853   1.177  10.951   6.367
85652SOL    HW258854   1.289  10.919   6.465
85653SOL     OW58855  14.519  11.663   3.774
85653SOL    HW158856  14.424  11.665   3.785
85653SOL    HW258857  14.537  11.730   3.708
85654SOL     OW58858   3.707  13.368   3.672
85654SOL    HW158859   3.639  13.315   3.631
85654SOL    HW258860   3.760  13.400   3.599
85655SOL     OW58861   8.299  12.732  13.666
85655SOL    HW158862   8.259  12.734  13.753
85655SOL    HW258863   8.378  12.680  13.678
85656SOL     OW58864  12.940  11.026   1.938
85656SOL    HW158865  12.888  10.971   1.996
85656SOL    HW258866  12.989  10.964   1.884
85657SOL     OW58867   9.001   2.101   6.955
85657SOL    HW158868   9.033   2.185   6.922
85657SOL    HW258869   8.921   2.123   7.004
85658SOL     OW58870   8.016  14.393   9.545
85658SOL    HW158871   7.976  14.438   9.470
85658SOL    HW258872   7.954  14.323   9.567
85659SOL     OW58873   0.676  11.867   4.233
85659SOL    HW158874   0.699  11.826   4.316
85659SOL    HW258875   0.662  11.959   4.254
85660SOL     OW58876  14.711   3.190   3.626
85660SOL    HW158877  14.748   3.182   3.538
85660SOL    HW258878  14.747   3.114   3.674
85661SOL     OW58879  14.265   5.833  10.281
85661SOL    HW158880  14.215   5.782  10.345
85661SOL    HW258881  14.215   5.827  10.200
85662SOL     OW58882   6.692   8.506   7.521
85662SOL    HW158883   6.747   8.509   7.443
85662SOL    HW258884   6.692   8.596   7.554
85663SOL     OW58885   2.296   0.352  11.330
85663SOL    HW158886   2.276   0.439  11.364
85663SOL    HW258887   2.344   0.309  11.401
85664SOL     OW58888  12.406   2.641  10.164
85664SOL    HW158889  12.442   2.611  10.247
85664SOL    HW258890  12.393   2.561  10.113
85665SOL     OW58891   5.159   2.454   4.570
85665SOL    HW158892   5.068   2.482   4.584
85665SOL    HW258893   5.171   2.381   4.630
85666SOL     OW58894  12.079   3.977  10.297
85666SOL    HW158895  12.069   4.072  10.303
85666SOL    HW258896  12.140   3.955  10.367
85667SOL     OW58897   8.302   4.248   7.637
85667SOL    HW158898   8.322   4.328   7.685
85667SOL    HW258899   8.236   4.274   7.573
85668SOL     OW58900   4.588   7.799  11.181
85668SOL    HW158901   4.550   7.867  11.125
85668SOL    HW258902   4.574   7.717  11.132
85669SOL     OW58903  13.315   0.786  14.144
85669SOL    HW158904  13.315   0.722  14.215
85669SOL    HW258905  13.381   0.753  14.083
85670SOL     OW58906   6.878   3.740   8.835
85670SOL    HW158907   6.911   3.691   8.910
85670SOL    HW258908   6.910   3.692   8.759
85671SOL     OW58909   0.893   5.730  10.535
85671SOL    HW158910   0.911   5.708  10.626
85671SOL    HW258911   0.973   5.703  10.488
85672SOL     OW58912   3.232  13.799  14.677
85672SOL    HW158913   3.144  13.836  14.687
85672SOL    HW258914   3.234  13.765  14.588
85673SOL     OW58915   0.479   2.807   8.052
85673SOL    HW158916   0.523   2.879   8.097
85673SOL    HW258917   0.416   2.850   7.994
85674SOL     OW58918   1.733  10.565  13.851
85674SOL    HW158919   1.827  10.548  13.853
85674SOL    HW258920   1.718  10.626  13.923
85675SOL     OW58921  12.175   9.875  11.696
85675SOL    HW158922  12.223   9.862  11.614
85675SOL    HW258923  12.086   9.894  11.668
85676SOL     OW58924  10.922   4.388  11.416
85676SOL    HW158925  10.998   4.423  11.369
85676SOL    HW258926  10.954   4.375  11.506
85677SOL     OW58927   9.447   8.231   5.265
85677SOL    HW158928   9.512   8.204   5.330
85677SOL    HW258929   9.459   8.326   5.258
85678SOL     OW58930   2.059   6.465   1.906
85678SOL    HW158931   2.013   6.413   1.972
85678SOL    HW258932   2.076   6.549   1.949
85679SOL     OW58933   0.092  12.671   5.655
85679SOL    HW158934   0.170  12.699   5.606
85679SOL    HW258935   0.044  12.752   5.672
85680SOL     OW58936   9.352  12.737  10.544
85680SOL    HW158937   9.353  12.658  10.599
85680SOL    HW258938   9.263  12.772  10.554
85681SOL     OW58939  13.860   7.212   7.266
85681SOL    HW158940  13.847   7.143   7.332
85681SOL    HW258941  13.804   7.284   7.296
85682SOL     OW58942   2.095   2.351   0.546
85682SOL    HW158943   2.118   2.259   0.548
85682SOL    HW258944   2.050   2.363   0.462
85683SOL     OW58945   2.981   3.227   8.678
85683SOL    HW158946   2.900   3.277   8.681
85683SOL    HW258947   2.957   3.140   8.707
85684SOL     OW58948  12.513   9.994  11.985
85684SOL    HW158949  12.458  10.045  11.925
85684SOL    HW258950  12.463   9.990  12.066
85685SOL     OW58951  13.978   6.760  13.203
85685SOL    HW158952  13.931   6.838  13.234
85685SOL    HW258953  14.017   6.787  13.120
85686SOL     OW58954   7.539   7.764  13.533
85686SOL    HW158955   7.507   7.706  13.464
85686SOL    HW258956   7.593   7.828  13.487
85687SOL     OW58957   1.587  11.130  12.589
85687SOL    HW158958   1.605  11.124  12.683
85687SOL    HW258959   1.494  11.108  12.581
85688SOL     OW58960   1.793  10.263   6.743
85688SOL    HW158961   1.758  10.303   6.663
85688SOL    HW258962   1.829  10.337   6.792
85689SOL     OW58963  11.498  10.328   3.926
85689SOL    HW158964  11.491  10.322   4.021
85689SOL    HW258965  11.431  10.391   3.901
85690SOL     OW58966  11.580   9.285   5.101
85690SOL    HW158967  11.542   9.253   5.183
85690SOL    HW258968  11.647   9.220   5.078
85691SOL     OW58969   9.484   0.626   5.480
85691SOL    HW158970   9.444   0.573   5.411
85691SOL    HW258971   9.576   0.596   5.483
85692SOL     OW58972   3.746  10.651  11.488
85692SOL    HW158973   3.820  10.613  11.534
85692SOL    HW258974   3.704  10.577  11.444
85693SOL     OW58975   5.721  10.391   5.141
85693SOL    HW158976   5.737  10.456   5.210
85693SOL    HW258977   5.647  10.427   5.092
85694SOL     OW58978   8.597   3.825  11.753
85694SOL    HW158979   8.599   3.755  11.688
85694SOL    HW258980   8.508   3.858  11.751
85695SOL     OW58981   9.421   3.529  10.123
85695SOL    HW158982   9.507   3.488  10.118
85695SOL    HW258983   9.437   3.621  10.102
85696SOL     OW58984   6.857   5.805   0.879
85696SOL    HW158985   6.884   5.882   0.930
85696SOL    HW258986   6.864   5.834   0.788
85697SOL     OW58987   5.156   7.407  10.587
85697SOL    HW158988   5.079   7.415  10.644
85697SOL    HW258989   5.122   7.419  10.499
85698SOL     OW58990   4.585   8.416   3.314
85698SOL    HW158991   4.653   8.388   3.252
85698SOL    HW258992   4.589   8.352   3.385
85699SOL     OW58993   5.842   9.112  13.426
85699SOL    HW158994   5.891   9.174  13.479
85699SOL    HW258995   5.757   9.154  13.413
85700SOL     OW58996  14.408  10.345   4.059
85700SOL    HW158997  14.338  10.352   3.994
85700SOL    HW258998  14.386  10.411   4.125
85701SOL     OW58999  10.965   2.530  14.484
85701SOL    HW159000  10.940   2.487  14.402
85701SOL    HW259001  10.957   2.624  14.465
85702SOL     OW59002   8.191  10.772  12.607
85702SOL    HW159003   8.117  10.820  12.646
85702SOL    HW259004   8.268  10.805  12.655
85703SOL     OW59005  12.702   9.918   5.063
85703SOL    HW159006  12.654  10.000   5.075
85703SOL    HW259007  12.783   9.930   5.113
85704SOL     OW59008   4.732   4.431   1.795
85704SOL    HW159009   4.786   4.402   1.868
85704SOL    HW259010   4.643   4.429   1.830
85705SOL     OW59011  12.561   5.142   8.661
85705SOL    HW159012  12.535   5.226   8.623
85705SOL    HW259013  12.590   5.090   8.587
85706SOL     OW59014  12.303   9.856  10.554
85706SOL    HW159015  12.371   9.815  10.607
85706SOL    HW259016  12.320   9.825  10.465
85707SOL     OW59017   7.470   0.288   1.274
85707SOL    HW159018   7.563   0.267   1.266
85707SOL    HW259019   7.458   0.306   1.368
85708SOL     OW59020  14.499   1.896   3.775
85708SOL    HW159021  14.474   1.979   3.735
85708SOL    HW259022  14.503   1.834   3.703
85709SOL     OW59023   5.269   2.311   9.744
85709SOL    HW159024   5.244   2.335   9.834
85709SOL    HW259025   5.364   2.297   9.750
85710SOL     OW59026   9.293   2.588   5.502
85710SOL    HW159027   9.287   2.493   5.498
85710SOL    HW259028   9.217   2.615   5.554
85711SOL     OW59029   8.701  14.464   6.221
85711SOL    HW159030   8.656  14.542   6.253
85711SOL    HW259031   8.750  14.494   6.145
85712SOL     OW59032  11.087   6.951  13.758
85712SOL    HW159033  11.055   6.929  13.846
85712SOL    HW259034  11.026   7.018  13.727
85713SOL     OW59035  13.207   7.416  13.875
85713SOL    HW159036  13.257   7.356  13.931
85713SOL    HW259037  13.116   7.387  13.885
85714SOL     OW59038  11.567   1.923   7.263
85714SOL    HW159039  11.568   1.863   7.337
85714SOL    HW259040  11.588   1.868   7.187
85715SOL     OW59041   5.971   2.110   4.080
85715SOL    HW159042   5.932   2.104   4.167
85715SOL    HW259043   6.003   2.022   4.062
85716SOL     OW59044   0.180   7.923  11.554
85716SOL    HW159045   0.188   7.906  11.648
85716SOL    HW259046   0.133   7.847  11.519
85717SOL     OW59047   0.470  10.019   1.519
85717SOL    HW159048   0.489   9.928   1.496
85717SOL    HW259049   0.421  10.053   1.444
85718SOL     OW59050   7.431  12.274   8.078
85718SOL    HW159051   7.439  12.344   8.142
85718SOL    HW259052   7.398  12.199   8.128
85719SOL     OW59053   7.011  10.334  10.303
85719SOL    HW159054   7.009  10.246  10.264
85719SOL    HW259055   6.921  10.367  10.293
85720SOL     OW59056   1.558   0.892   3.217
85720SOL    HW159057   1.630   0.852   3.169
85720SOL    HW259058   1.598   0.928   3.296
85721SOL     OW59059   1.247   8.501  13.271
85721SOL    HW159060   1.269   8.588  13.236
85721SOL    HW259061   1.320   8.446  13.246
85722SOL     OW59062   1.225   9.827   1.531
85722SOL    HW159063   1.158   9.887   1.500
85722SOL    HW259064   1.186   9.784   1.607
85723SOL     OW59065   0.957  13.738   0.820
85723SOL    HW159066   0.966  13.646   0.843
85723SOL    HW259067   0.863  13.755   0.827
85724SOL     OW59068   4.261  12.902   4.912
85724SOL    HW159069   4.318  12.908   4.835
85724SOL    HW259070   4.260  12.990   4.949
85725SOL     OW59071   1.359  13.151   8.832
85725SOL    HW159072   1.325  13.206   8.902
85725SOL    HW259073   1.324  13.063   8.851
85726SOL     OW59074  14.366   7.483   1.570
85726SOL    HW159075  14.413   7.545   1.626
85726SOL    HW259076  14.275   7.487   1.599
85727SOL     OW59077   6.905  14.738   1.236
85727SOL    HW159078   6.929  14.650   1.209
85727SOL    HW259079   6.871  14.727   1.325
85728SOL     OW59080   1.910   0.668  11.159
85728SOL    HW159081   1.840   0.675  11.094
85728SOL    HW259082   1.973   0.736  11.134
85729SOL     OW59083   1.097   0.640   4.427
85729SOL    HW159084   1.126   0.559   4.468
85729SOL    HW259085   1.005   0.648   4.452
85730SOL     OW59086   9.728   4.182   3.985
85730SOL    HW159087   9.806   4.208   3.936
85730SOL    HW259088   9.655   4.220   3.935
85731SOL     OW59089   0.262   9.956   8.094
85731SOL    HW159090   0.262  10.046   8.063
85731SOL    HW259091   0.169   9.936   8.108
85732SOL     OW59092  13.781   2.080  11.991
85732SOL    HW159093  13.731   2.134  12.052
85732SOL    HW259094  13.772   1.991  12.025
85733SOL     OW59095  14.628   8.095   7.532
85733SOL    HW159096  14.592   8.181   7.553
85733SOL    HW259097  14.679   8.109   7.452
85734SOL     OW59098   9.840   9.460   0.324
85734SOL    HW159099   9.799   9.505   0.250
85734SOL    HW259100   9.849   9.369   0.295
85735SOL     OW59101  12.936   4.061  11.586
85735SOL    HW159102  13.003   4.066  11.654
85735SOL    HW259103  12.962   3.986  11.532
85736SOL     OW59104   7.643   6.730  14.837
85736SOL    HW159105   7.645   6.729   0.052
85736SOL    HW259106   7.732   6.754  14.811
85737SOL     OW59107   4.875   9.056  10.591
85737SOL    HW159108   4.798   9.109  10.610
85737SOL    HW259109   4.894   9.073  10.499
85738SOL     OW59110   2.443  14.623   0.322
85738SOL    HW159111   2.445  14.529   0.335
85738SOL    HW259112   2.352  14.648   0.342
85739SOL     OW59113   5.621   1.905   4.380
85739SOL    HW159114   5.556   1.908   4.310
85739SOL    HW259115   5.678   1.831   4.357
85740SOL     OW59116   5.087   1.916  13.467
85740SOL    HW159117   5.053   1.850  13.527
85740SOL    HW259118   5.182   1.913  13.479
85741SOL     OW59119  11.526   7.825  13.070
85741SOL    HW159120  11.565   7.803  13.155
85741SOL    HW259121  11.478   7.907  13.086
85742SOL     OW59122   1.270  11.203   1.455
85742SOL    HW159123   1.326  11.173   1.384
85742SOL    HW259124   1.262  11.127   1.513
85743SOL     OW59125   2.563   7.599   6.009
85743SOL    HW159126   2.539   7.557   5.926
85743SOL    HW259127   2.496   7.568   6.071
85744SOL     OW59128   7.571   4.266   8.549
85744SOL    HW159129   7.607   4.233   8.632
85744SOL    HW259130   7.482   4.294   8.570
85745SOL     OW59131   0.535   4.460   3.275
85745SOL    HW159132   0.629   4.476   3.262
85745SOL    HW259133   0.496   4.547   3.276
85746SOL     OW59134   6.996  14.507   8.065
85746SOL    HW159135   6.985  14.418   8.031
85746SOL    HW259136   6.910  14.530   8.098
85747SOL     OW59137   8.437   3.842   7.584
85747SOL    HW159138   8.346   3.814   7.585
85747SOL    HW259139   8.440   3.918   7.643
85748SOL     OW59140   3.852  10.942   1.608
85748SOL    HW159141   3.801  10.898   1.676
85748SOL    HW259142   3.865  11.031   1.641
85749SOL     OW59143   9.222  13.856   2.316
85749SOL    HW159144   9.208  13.863   2.410
85749SOL    HW259145   9.287  13.786   2.306
85750SOL     OW59146   4.409   7.309  12.341
85750SOL    HW159147   4.503   7.301  12.357
85750SOL    HW259148   4.381   7.219  12.320
85751SOL     OW59149  10.123   6.946  12.853
85751SOL    HW159150  10.116   6.908  12.941
85751SOL    HW259151  10.166   7.031  12.867
85752SOL     OW59152  10.333   7.472   5.072
85752SOL    HW159153  10.282   7.421   5.009
85752SOL    HW259154  10.352   7.555   5.027
85753SOL     OW59155   7.282  12.331   4.295
85753SOL    HW159156   7.283  12.292   4.208
85753SOL    HW259157   7.371  12.363   4.309
85754SOL     OW59158   9.281   8.111   9.197
85754SOL    HW159159   9.332   8.079   9.123
85754SOL    HW259160   9.346   8.143   9.260
85755SOL     OW59161  11.628  10.490  12.088
85755SOL    HW159162  11.551  10.482  12.144
85755SOL    HW259163  11.676  10.564  12.123
85756SOL     OW59164   9.556   2.944   2.039
85756SOL    HW159165   9.621   2.931   1.970
85756SOL    HW259166   9.521   2.857   2.055
85757SOL     OW59167   2.638   3.825  10.963
85757SOL    HW159168   2.594   3.776  10.893
85757SOL    HW259169   2.715   3.773  10.985
85758SOL     OW59170  10.517   2.433  10.866
85758SOL    HW159171  10.591   2.374  10.853
85758SOL    HW259172  10.553   2.520  10.854
85759SOL     OW59173   8.849   7.203   7.149
85759SOL    HW159174   8.889   7.258   7.216
85759SOL    HW259175   8.849   7.115   7.188
85760SOL     OW59176   1.434  14.405  14.731
85760SOL    HW159177   1.482  14.330  14.697
85760SOL    HW259178   1.351  14.368  14.763
85761SOL     OW59179  12.509  12.144   2.685
85761SOL    HW159180  12.543  12.233   2.695
85761SOL    HW259181  12.524  12.103   2.770
85762SOL     OW59182   1.421  14.072   8.685
85762SOL    HW159183   1.487  14.020   8.731
85762SOL    HW259184   1.406  14.024   8.603
85763SOL     OW59185   1.227  12.867   4.549
85763SOL    HW159186   1.267  12.816   4.478
85763SOL    HW259187   1.279  12.844   4.627
85764SOL     OW59188   3.742   0.598   9.158
85764SOL    HW159189   3.677   0.528   9.166
85764SOL    HW259190   3.708   0.655   9.089
85765SOL     OW59191   3.389   0.407   8.964
85765SOL    HW159192   3.472   0.363   8.947
85765SOL    HW259193   3.367   0.382   9.054
85766SOL     OW59194   5.694   6.253   3.167
85766SOL    HW159195   5.622   6.217   3.219
85766SOL    HW259196   5.650   6.296   3.093
85767SOL     OW59197  14.053   0.142  10.501
85767SOL    HW159198  14.024   0.061  10.543
85767SOL    HW259199  14.062   0.204  10.574
85768SOL     OW59200   0.486  11.421  14.103
85768SOL    HW159201   0.399  11.380  14.101
85768SOL    HW259202   0.469  11.515  14.101
85769SOL     OW59203   5.314   7.134   9.637
85769SOL    HW159204   5.325   7.107   9.728
85769SOL    HW259205   5.240   7.082   9.606
85770SOL     OW59206  14.696  10.303   1.429
85770SOL    HW159207  14.656  10.262   1.505
85770SOL    HW259208  14.786  10.322   1.456
85771SOL     OW59209   7.835   7.209  14.235
85771SOL    HW159210   7.858   7.298  14.207
85771SOL    HW259211   7.840   7.212  14.330
85772SOL     OW59212   8.229   0.250   1.831
85772SOL    HW159213   8.292   0.302   1.881
85772SOL    HW259214   8.167   0.218   1.896
85773SOL     OW59215   2.092  14.742   5.733
85773SOL    HW159216   2.134  14.803   5.793
85773SOL    HW259217   2.001  14.738   5.762
85774SOL     OW59218   8.203   5.996   5.905
85774SOL    HW159219   8.187   5.991   5.999
85774SOL    HW259220   8.227   6.088   5.889
85775SOL     OW59221   9.177   2.605   8.516
85775SOL    HW159222   9.236   2.595   8.591
85775SOL    HW259223   9.217   2.552   8.447
85776SOL     OW59224   0.918   8.623   0.755
85776SOL    HW159225   0.874   8.567   0.691
85776SOL    HW259226   1.011   8.614   0.734
85777SOL     OW59227  10.087   8.916   1.985
85777SOL    HW159228  10.058   8.841   1.933
85777SOL    HW259229  10.012   8.976   1.986
85778SOL     OW59230  10.539   5.004   2.663
85778SOL    HW159231  10.506   5.053   2.739
85778SOL    HW259232  10.464   4.999   2.604
85779SOL     OW59233   2.622  14.806   3.612
85779SOL    HW159234   2.703  14.845   3.580
85779SOL    HW259235   2.559  14.820   3.541
85780SOL     OW59236   6.185  11.453   7.601
85780SOL    HW159237   6.140  11.370   7.591
85780SOL    HW259238   6.136  11.514   7.546
85781SOL     OW59239   5.014   9.578   8.510
85781SOL    HW159240   4.961   9.656   8.521
85781SOL    HW259241   4.974   9.532   8.436
85782SOL     OW59242  11.793   2.761   3.736
85782SOL    HW159243  11.710   2.780   3.779
85782SOL    HW259244  11.823   2.846   3.704
85783SOL     OW59245  14.491   9.686   4.151
85783SOL    HW159246  14.494   9.629   4.075
85783SOL    HW259247  14.580   9.720   4.159
85784SOL     OW59248   0.929   7.664  13.946
85784SOL    HW159249   1.017   7.700  13.940
85784SOL    HW259250   0.872   7.741  13.951
85785SOL     OW59251   6.271  11.942  14.703
85785SOL    HW159252   6.211  11.933  14.777
85785SOL    HW259253   6.214  11.947  14.626
85786SOL     OW59254   7.607   3.535  11.599
85786SOL    HW159255   7.532   3.571  11.648
85786SOL    HW259256   7.567   3.475  11.536
85787SOL     OW59257  12.668   8.611   7.345
85787SOL    HW159258  12.683   8.695   7.388
85787SOL    HW259259  12.573   8.599   7.351
85788SOL     OW59260  14.004   1.910   2.830
85788SOL    HW159261  13.940   1.845   2.858
85788SOL    HW259262  13.985   1.987   2.884
85789SOL     OW59263   4.120  11.485   2.853
85789SOL    HW159264   4.029  11.455   2.850
85789SOL    HW259265   4.117  11.563   2.909
85790SOL     OW59266   3.898   4.466  12.941
85790SOL    HW159267   3.961   4.528  12.905
85790SOL    HW259268   3.832   4.520  12.983
85791SOL     OW59269   0.465  13.665  11.085
85791SOL    HW159270   0.524  13.716  11.140
85791SOL    HW259271   0.462  13.714  11.002
85792SOL     OW59272  11.116   0.074   1.217
85792SOL    HW159273  11.072   0.140   1.163
85792SOL    HW259274  11.053   0.054   1.286
85793SOL     OW59275   3.865   5.987  14.299
85793SOL    HW159276   3.783   5.964  14.341
85793SOL    HW259277   3.929   5.988  14.370
85794SOL     OW59278   0.817   0.713  11.813
85794SOL    HW159279   0.900   0.755  11.834
85794SOL    HW259280   0.768   0.713  11.895
85795SOL     OW59281   4.740  13.504   4.479
85795SOL    HW159282   4.726  13.570   4.411
85795SOL    HW259283   4.831  13.514   4.505
85796SOL     OW59284   3.428   7.723   7.918
85796SOL    HW159285   3.436   7.636   7.958
85796SOL    HW259286   3.444   7.784   7.990
85797SOL     OW59287   1.215   5.298  14.555
85797SOL    HW159288   1.300   5.284  14.596
85797SOL    HW259289   1.186   5.210  14.531
85798SOL     OW59290   0.175   7.564   1.755
85798SOL    HW159291   0.231   7.488   1.738
85798SOL    HW259292   0.232   7.627   1.800
85799SOL     OW59293   7.269  14.649  10.840
85799SOL    HW159294   7.247  14.654  10.933
85799SOL    HW259295   7.340  14.585  10.835
85800SOL     OW59296  12.982  11.226   2.964
85800SOL    HW159297  12.989  11.321   2.954
85800SOL    HW259298  13.071  11.196   2.982
85801SOL     OW59299  10.127  13.373   8.618
85801SOL    HW159300  10.130  13.467   8.597
85801SOL    HW259301  10.059  13.366   8.685
85802SOL     OW59302   5.017   2.027   5.124
85802SOL    HW159303   4.923   2.018   5.109
85802SOL    HW259304   5.045   2.095   5.064
85803SOL     OW59305   2.904   6.975  13.589
85803SOL    HW159306   2.876   6.921  13.515
85803SOL    HW259307   2.854   7.057  13.579
85804SOL     OW59308  13.885   9.594   8.469
85804SOL    HW159309  13.887   9.517   8.526
85804SOL    HW259310  13.957   9.580   8.408
85805SOL     OW59311  13.356  14.725  13.123
85805SOL    HW159312  13.291  14.661  13.094
85805SOL    HW259313  13.305  14.804  13.143
85806SOL     OW59314   8.097   2.683  11.190
85806SOL    HW159315   8.112   2.704  11.098
85806SOL    HW259316   8.039   2.607  11.188
85807SOL     OW59317   0.785  14.701   3.278
85807SOL    HW159318   0.836  14.749   3.344
85807SOL    HW259319   0.786  14.758   3.201
85808SOL     OW59320   6.263  10.285   8.102
85808SOL    HW159321   6.297  10.264   8.189
85808SOL    HW259322   6.308  10.366   8.078
85809SOL     OW59323  14.384   8.792   0.327
85809SOL    HW159324  14.353   8.718   0.274
85809SOL    HW259325  14.367   8.765   0.417
85810SOL     OW59326   4.592   8.758   4.205
85810SOL    HW159327   4.578   8.815   4.129
85810SOL    HW259328   4.539   8.797   4.275
85811SOL     OW59329  12.249  13.854   9.582
85811SOL    HW159330  12.326  13.851   9.638
85811SOL    HW259331  12.278  13.817   9.498
85812SOL     OW59332   2.472   8.934   1.888
85812SOL    HW159333   2.398   8.950   1.946
85812SOL    HW259334   2.478   8.838   1.882
85813SOL     OW59335   0.746  12.076  11.246
85813SOL    HW159336   0.675  12.085  11.310
85813SOL    HW259337   0.825  12.063  11.298
85814SOL     OW59338  12.187   9.898  13.792
85814SOL    HW159339  12.135   9.976  13.812
85814SOL    HW259340  12.194   9.852  13.876
85815SOL     OW59341  14.515  14.518  12.852
85815SOL    HW159342  14.532  14.424  12.855
85815SOL    HW259343  14.602  14.558  12.845
85816SOL     OW59344  12.494   1.871   1.825
85816SOL    HW159345  12.565   1.869   1.761
85816SOL    HW259346  12.536   1.900   1.906
85817SOL     OW59347  13.994   2.306  14.485
85817SOL    HW159348  14.060   2.365  14.449
85817SOL    HW259349  14.031   2.274  14.567
85818SOL     OW59350  11.472  14.191   8.644
85818SOL    HW159351  11.535  14.263   8.649
85818SOL    HW259352  11.484  14.144   8.727
85819SOL     OW59353   0.343   9.883  11.626
85819SOL    HW159354   0.417   9.909  11.572
85819SOL    HW259355   0.382   9.854  11.709
85820SOL     OW59356  13.930  14.828  14.027
85820SOL    HW159357  14.018  14.863  14.035
85820SOL    HW259358  13.879  14.874  14.094
85821SOL     OW59359   1.811  14.195  11.160
85821SOL    HW159360   1.903  14.173  11.149
85821SOL    HW259361   1.769  14.114  11.188
85822SOL     OW59362  12.933   6.865  14.082
85822SOL    HW159363  12.989   6.810  14.029
85822SOL    HW259364  12.983   6.881  14.162
85823SOL     OW59365   5.645   7.913  13.012
85823SOL    HW159366   5.609   7.933  12.926
85823SOL    HW259367   5.720   7.971  13.021
85824SOL     OW59368   5.050   8.537  10.808
85824SOL    HW159369   5.121   8.477  10.832
85824SOL    HW259370   5.095   8.619  10.787
85825SOL     OW59371   6.148   5.566   4.763
85825SOL    HW159372   6.177   5.651   4.730
85825SOL    HW259373   6.066   5.549   4.715
85826SOL     OW59374   0.772   5.632   8.485
85826SOL    HW159375   0.792   5.567   8.551
85826SOL    HW259376   0.722   5.700   8.532
85827SOL     OW59377   7.308   5.818  14.780
85827SOL    HW159378   7.402   5.805  14.767
85827SOL    HW259379   7.269   5.732  14.763
85828SOL     OW59380  11.747   3.303   8.983
85828SOL    HW159381  11.767   3.365   9.053
85828SOL    HW259382  11.784   3.343   8.904
85829SOL     OW59383  14.037   1.213   5.812
85829SOL    HW159384  14.073   1.168   5.735
85829SOL    HW259385  13.945   1.184   5.815
85830SOL     OW59386  13.734   8.199   4.998
85830SOL    HW159387  13.764   8.224   4.911
85830SOL    HW259388  13.640   8.184   4.988
85831SOL     OW59389   7.200   8.381  10.801
85831SOL    HW159390   7.153   8.338  10.872
85831SOL    HW259391   7.136   8.439  10.761
85832SOL     OW59392   0.821  12.748   9.489
85832SOL    HW159393   0.752  12.770   9.553
85832SOL    HW259394   0.776  12.750   9.404
85833SOL     OW59395  13.320   4.073  10.653
85833SOL    HW159396  13.412   4.095  10.666
85833SOL    HW259397  13.304   3.999  10.711
85834SOL     OW59398   5.215   6.308  10.391
85834SOL    HW159399   5.141   6.270  10.344
85834SOL    HW259400   5.221   6.397  10.357
85835SOL     OW59401   8.515   9.294   2.559
85835SOL    HW159402   8.516   9.357   2.486
85835SOL    HW259403   8.553   9.214   2.522
85836SOL     OW59404  10.899   1.654   2.184
85836SOL    HW159405  10.991   1.628   2.185
85836SOL    HW259406  10.890   1.715   2.257
85837SOL     OW59407  12.608  10.566   7.621
85837SOL    HW159408  12.545  10.513   7.571
85837SOL    HW259409  12.674  10.503   7.650
85838SOL     OW59410  10.118  10.578  10.943
85838SOL    HW159411  10.101  10.672  10.945
85838SOL    HW259412  10.202  10.570  10.897
85839SOL     OW59413  11.109   5.573   3.387
85839SOL    HW159414  11.141   5.663   3.380
85839SOL    HW259415  11.017   5.578   3.360
85840SOL     OW59416   8.223   9.220   3.804
85840SOL    HW159417   8.162   9.289   3.779
85840SOL    HW259418   8.251   9.181   3.721
85841SOL     OW59419   5.610   0.364   8.409
85841SOL    HW159420   5.673   0.435   8.424
85841SOL    HW259421   5.658   0.300   8.357
85842SOL     OW59422   4.969   6.954   1.452
85842SOL    HW159423   4.983   6.987   1.541
85842SOL    HW259424   5.017   6.871   1.450
85843SOL     OW59425  10.612   8.386   4.219
85843SOL    HW159426  10.528   8.405   4.260
85843SOL    HW259427  10.635   8.298   4.248
85844SOL     OW59428   9.462   7.626  10.996
85844SOL    HW159429   9.511   7.700  11.033
85844SOL    HW259430   9.410   7.664  10.925
85845SOL     OW59431   4.358   3.360   9.875
85845SOL    HW159432   4.415   3.304   9.928
85845SOL    HW259433   4.415   3.395   9.807
85846SOL     OW59434  10.373   7.948  11.177
85846SOL    HW159435  10.368   8.030  11.128
85846SOL    HW259436  10.282   7.918  11.182
85847SOL     OW59437  13.423  10.850   5.176
85847SOL    HW159438  13.462  10.914   5.234
85847SOL    HW259439  13.484  10.843   5.103
85848SOL     OW59440   5.444  10.641  10.575
85848SOL    HW159441   5.370  10.632  10.636
85848SOL    HW259442   5.406  10.620  10.489
85849SOL     OW59443  13.420   3.594  14.767
85849SOL    HW159444  13.423   3.505  14.804
85849SOL    HW259445  13.380   3.582  14.680
85850SOL     OW59446  11.629   9.874   3.741
85850SOL    HW159447  11.625   9.945   3.676
85850SOL    HW259448  11.586   9.911   3.818
85851SOL     OW59449  10.488  11.015  14.805
85851SOL    HW159450  10.534  11.081  14.753
85851SOL    HW259451  10.557  10.954  14.833
85852SOL     OW59452  12.522   5.826  13.761
85852SOL    HW159453  12.583   5.826  13.687
85852SOL    HW259454  12.445   5.779  13.729
85853SOL     OW59455  13.386   3.634   2.276
85853SOL    HW159456  13.331   3.568   2.318
85853SOL    HW259457  13.456   3.650   2.339
85854SOL     OW59458   9.980   5.805  14.424
85854SOL    HW159459   9.954   5.729  14.373
85854SOL    HW259460   9.900   5.857  14.433
85855SOL     OW59461   1.266  10.656   0.960
85855SOL    HW159462   1.285  10.564   0.980
85855SOL    HW259463   1.336  10.683   0.901
85856SOL     OW59464  11.357   5.715  13.933
85856SOL    HW159465  11.419   5.684  13.866
85856SOL    HW259466  11.412   5.756  13.999
85857SOL     OW59467   8.104  10.624  10.257
85857SOL    HW159468   8.199  10.623  10.243
85857SOL    HW259469   8.087  10.709  10.299
85858SOL     OW59470   1.264  10.460   2.990
85858SOL    HW159471   1.356  10.486   2.997
85858SOL    HW259472   1.222  10.500   3.066
85859SOL     OW59473   8.247  11.154   4.490
85859SOL    HW159474   8.271  11.199   4.571
85859SOL    HW259475   8.161  11.115   4.510
85860SOL     OW59476   2.113   7.876   7.053
85860SOL    HW159477   2.154   7.853   6.970
85860SOL    HW259478   2.020   7.887   7.032
85861SOL     OW59479   3.455   9.355   0.481
85861SOL    HW159480   3.455   9.448   0.501
85861SOL    HW259481   3.363   9.330   0.477
85862SOL     OW59482  11.804   3.080   1.479
85862SOL    HW159483  11.768   3.137   1.546
85862SOL    HW259484  11.745   3.004   1.477
85863SOL     OW59485   2.697   5.236  12.619
85863SOL    HW159486   2.638   5.294  12.571
85863SOL    HW259487   2.731   5.291  12.691
85864SOL     OW59488   0.487   7.249   9.477
85864SOL    HW159489   0.503   7.337   9.443
85864SOL    HW259490   0.401   7.255   9.520
85865SOL     OW59491   2.888  11.447  11.354
85865SOL    HW159492   2.872  11.364  11.400
85865SOL    HW259493   2.970  11.433  11.308
85866SOL     OW59494   2.957   0.835  12.048
85866SOL    HW159495   2.880   0.779  12.038
85866SOL    HW259496   2.927   0.922  12.022
85867SOL     OW59497   2.392  11.618   6.980
85867SOL    HW159498   2.387  11.711   7.002
85867SOL    HW259499   2.377  11.572   7.063
85868SOL     OW59500  10.908   6.905   4.122
85868SOL    HW159501  10.869   6.992   4.118
85868SOL    HW259502  10.840   6.846   4.088
85869SOL     OW59503   9.300  14.049   3.218
85869SOL    HW159504   9.365  14.108   3.179
85869SOL    HW259505   9.319  14.053   3.312
85870SOL     OW59506   1.334   6.496   2.784
85870SOL    HW159507   1.325   6.486   2.690
85870SOL    HW259508   1.263   6.555   2.809
85871SOL     OW59509   0.896  10.614   0.007
85871SOL    HW159510   0.824  10.585   0.062
85871SOL    HW259511   0.906  10.707   0.026
85872SOL     OW59512   8.050   0.052   3.593
85872SOL    HW159513   8.143   0.033   3.582
85872SOL    HW259514   8.017  14.863   3.650
85873SOL     OW59515   0.676  13.422   9.387
85873SOL    HW159516   0.650  13.505   9.346
85873SOL    HW259517   0.764  13.439   9.420
85874SOL     OW59518   4.016   4.845   0.196
85874SOL    HW159519   4.031   4.758   0.158
85874SOL    HW259520   4.003   4.902   0.120
85875SOL     OW59521   2.593   0.286  14.878
85875SOL    HW159522   2.540   0.264   0.074
85875SOL    HW259523   2.567   0.223  14.811
85876SOL     OW59524   6.085   9.584   1.377
85876SOL    HW159525   5.998   9.556   1.403
85876SOL    HW259526   6.071   9.646   1.305
85877SOL     OW59527  11.169   2.356  12.200
85877SOL    HW159528  11.119   2.428  12.239
85877SOL    HW259529  11.117   2.331  12.124
85878SOL     OW59530  12.469   5.545   7.116
85878SOL    HW159531  12.459   5.637   7.137
85878SOL    HW259532  12.390   5.524   7.065
85879SOL     OW59533   6.791   5.445   0.481
85879SOL    HW159534   6.709   5.425   0.526
85879SOL    HW259535   6.829   5.360   0.461
85880SOL     OW59536  14.340  12.199   9.750
85880SOL    HW159537  14.305  12.245   9.674
85880SOL    HW259538  14.264  12.184   9.806
85881SOL     OW59539  12.350   0.067  14.162
85881SOL    HW159540  12.377  14.879  14.101
85881SOL    HW259541  12.297   0.021  14.228
85882SOL     OW59542  12.844   0.502   8.727
85882SOL    HW159543  12.879   0.414   8.740
85882SOL    HW259544  12.893   0.556   8.789
85883SOL     OW59545   7.892   3.474  11.641
85883SOL    HW159546   7.899   3.454  11.547
85883SOL    HW259547   7.798   3.469  11.660
85884SOL     OW59548   7.207  11.492  13.666
85884SOL    HW159549   7.281  11.437  13.691
85884SOL    HW259550   7.204  11.560  13.733
85885SOL     OW59551  12.691   3.741   6.180
85885SOL    HW159552  12.694   3.708   6.090
85885SOL    HW259553  12.654   3.829   6.172
85886SOL     OW59554   6.989   4.625   4.793
85886SOL    HW159555   7.047   4.549   4.799
85886SOL    HW259556   7.000   4.656   4.703
85887SOL     OW59557  12.869   8.799  11.342
85887SOL    HW159558  12.922   8.847  11.406
85887SOL    HW259559  12.879   8.849  11.261
85888SOL     OW59560   3.683  14.634  11.668
85888SOL    HW159561   3.666  14.728  11.672
85888SOL    HW259562   3.638  14.597  11.744
85889SOL     OW59563  10.629   5.872  11.918
85889SOL    HW159564  10.590   5.886  11.832
85889SOL    HW259565  10.566   5.909  11.980
85890SOL     OW59566   7.501   1.015   3.695
85890SOL    HW159567   7.473   1.020   3.786
85890SOL    HW259568   7.483   1.102   3.659
85891SOL     OW59569  14.300  13.645  11.247
85891SOL    HW159570  14.390  13.645  11.215
85891SOL    HW259571  14.249  13.684  11.176
85892SOL     OW59572  13.823   9.735   5.056
85892SOL    HW159573  13.835   9.801   4.988
85892SOL    HW259574  13.906   9.732   5.103
85893SOL     OW59575   5.604  12.849  10.909
85893SOL    HW159576   5.646  12.775  10.866
85893SOL    HW259577   5.659  12.868  10.985
85894SOL     OW59578   2.915   8.079   7.223
85894SOL    HW159579   2.990   8.127   7.259
85894SOL    HW259580   2.855   8.147   7.193
85895SOL     OW59581   0.293   8.393   2.918
85895SOL    HW159582   0.375   8.409   2.872
85895SOL    HW259583   0.245   8.476   2.911
85896SOL     OW59584   5.382  12.596   7.988
85896SOL    HW159585   5.366  12.675   7.936
85896SOL    HW259586   5.341  12.525   7.938
85897SOL     OW59587   5.639   8.203  11.480
85897SOL    HW159588   5.726   8.242  11.492
85897SOL    HW259589   5.656   8.114  11.448
85898SOL     OW59590   7.440   6.583   5.920
85898SOL    HW159591   7.418   6.627   5.838
85898SOL    HW259592   7.470   6.653   5.978
85899SOL     OW59593  14.168   0.805   6.445
85899SOL    HW159594  14.154   0.883   6.499
85899SOL    HW259595  14.230   0.833   6.377
85900SOL     OW59596   6.931  10.141   2.905
85900SOL    HW159597   6.864  10.090   2.950
85900SOL    HW259598   6.981  10.182   2.976
85901SOL     OW59599   0.409   5.019  10.514
85901SOL    HW159600   0.502   5.037  10.498
85901SOL    HW259601   0.388   4.949  10.452
85902SOL     OW59602  14.825  13.026  13.268
85902SOL    HW159603  14.790  12.970  13.337
85902SOL    HW259604   0.034  12.994  13.255
85903SOL     OW59605   1.572   3.690   4.811
85903SOL    HW159606   1.664   3.699   4.834
85903SOL    HW259607   1.564   3.599   4.782
85904SOL     OW59608  13.686   1.315   1.748
85904SOL    HW159609  13.733   1.240   1.784
85904SOL    HW259610  13.681   1.298   1.654
85905SOL     OW59611   7.042  10.030   3.586
85905SOL    HW159612   7.048  10.059   3.495
85905SOL    HW259613   6.973   9.963   3.585
85906SOL     OW59614  11.062   1.616  11.800
85906SOL    HW159615  11.049   1.571  11.717
85906SOL    HW259616  10.977   1.657  11.819
85907SOL     OW59617  11.576   3.486   5.872
85907SOL    HW159618  11.587   3.446   5.785
85907SOL    HW259619  11.638   3.559   5.872
85908SOL     OW59620   3.979   8.813   3.205
85908SOL    HW159621   3.907   8.771   3.157
85908SOL    HW259622   4.058   8.773   3.169
85909SOL     OW59623   0.670   8.210   4.705
85909SOL    HW159624   0.661   8.163   4.788
85909SOL    HW259625   0.764   8.206   4.685
85910SOL     OW59626   7.078   7.598   7.184
85910SOL    HW159627   7.096   7.555   7.268
85910SOL    HW259628   6.998   7.648   7.199
85911SOL     OW59629   7.301   7.882  10.362
85911SOL    HW159630   7.390   7.867  10.392
85911SOL    HW259631   7.286   7.976  10.374
85912SOL     OW59632   8.452   6.790   5.843
85912SOL    HW159633   8.378   6.731   5.857
85912SOL    HW259634   8.426   6.871   5.887
85913SOL     OW59635   2.551  14.875   4.176
85913SOL    HW159636   2.465  14.877   4.218
85913SOL    HW259637   2.584   0.084   4.185
85914SOL     OW59638  10.868   5.102   1.139
85914SOL    HW159639  10.887   5.008   1.144
85914SOL    HW259640  10.953   5.144   1.147
85915SOL     OW59641  13.912   3.611   6.172
85915SOL    HW159642  13.987   3.566   6.211
85915SOL    HW259643  13.918   3.590   6.079
85916SOL     OW59644   4.200   0.776   8.529
85916SOL    HW159645   4.138   0.739   8.592
85916SOL    HW259646   4.258   0.703   8.507
85917SOL     OW59647   2.290   9.495   3.011
85917SOL    HW159648   2.362   9.451   3.055
85917SOL    HW259649   2.313   9.588   3.013
85918SOL     OW59650   3.047   7.575  14.652
85918SOL    HW159651   2.953   7.561  14.657
85918SOL    HW259652   3.079   7.550  14.739
85919SOL     OW59653   6.555   5.796  14.316
85919SOL    HW159654   6.544   5.701  14.311
85919SOL    HW259655   6.642   5.808  14.355
85920SOL     OW59656   0.118   8.474   6.677
85920SOL    HW159657   0.161   8.501   6.758
85920SOL    HW259658   0.030   8.451   6.703
85921SOL     OW59659   3.086   2.838   7.156
85921SOL    HW159660   3.168   2.826   7.109
85921SOL    HW259661   3.071   2.755   7.202
85922SOL     OW59662  13.889   6.958  13.721
85922SOL    HW159663  13.881   7.017  13.645
85922SOL    HW259664  13.918   6.875  13.684
85923SOL     OW59665   4.297   6.228  12.333
85923SOL    HW159666   4.388   6.227  12.302
85923SOL    HW259667   4.246   6.196  12.259
85924SOL     OW59668  12.605   1.699   4.860
85924SOL    HW159669  12.518   1.713   4.822
85924SOL    HW259670  12.587   1.660   4.946
85925SOL     OW59671  12.237  14.371   5.671
85925SOL    HW159672  12.307  14.404   5.615
85925SOL    HW259673  12.273  14.293   5.712
85926SOL     OW59674  13.029   9.610  11.887
85926SOL    HW159675  12.959   9.629  11.824
85926SOL    HW259676  13.062   9.524  11.861
85927SOL     OW59677   1.112  14.364  13.295
85927SOL    HW159678   1.140  14.382  13.384
85927SOL    HW259679   1.072  14.446  13.266
85928SOL     OW59680  13.719   3.253   1.031
85928SOL    HW159681  13.664   3.331   1.020
85928SOL    HW259682  13.769   3.270   1.110
85929SOL     OW59683   7.699  10.985   1.414
85929SOL    HW159684   7.752  10.963   1.337
85929SOL    HW259685   7.660  10.901   1.440
85930SOL     OW59686   9.141   6.281  12.978
85930SOL    HW159687   9.201   6.210  13.003
85930SOL    HW259688   9.107   6.255  12.892
85931SOL     OW59689   7.566   7.872   7.389
85931SOL    HW159690   7.620   7.795   7.370
85931SOL    HW259691   7.629   7.940   7.414
85932SOL     OW59692  13.544  10.126   9.955
85932SOL    HW159693  13.466  10.071   9.963
85932SOL    HW259694  13.580  10.104   9.868
85933SOL     OW59695   9.849  13.103   9.104
85933SOL    HW159696   9.944  13.094   9.095
85933SOL    HW259697   9.813  13.040   9.041
85934SOL     OW59698   9.520  11.210   9.756
85934SOL    HW159699   9.436  11.178   9.789
85934SOL    HW259700   9.515  11.305   9.766
85935SOL     OW59701   4.111   4.574   9.386
85935SOL    HW159702   4.070   4.615   9.310
85935SOL    HW259703   4.063   4.608   9.461
85936SOL     OW59704   9.970   1.209   9.573
85936SOL    HW159705   9.957   1.214   9.478
85936SOL    HW259706   9.907   1.142   9.602
85937SOL     OW59707  11.008   1.494   6.617
85937SOL    HW159708  10.983   1.556   6.686
85937SOL    HW259709  10.945   1.422   6.626
85938SOL     OW59710  13.355   2.317   7.646
85938SOL    HW159711  13.286   2.290   7.707
85938SOL    HW259712  13.320   2.296   7.560
85939SOL     OW59713  12.406  10.635   9.538
85939SOL    HW159714  12.478  10.697   9.522
85939SOL    HW259715  12.382  10.604   9.451
85940SOL     OW59716   2.542   8.393   1.857
85940SOL    HW159717   2.486   8.334   1.807
85940SOL    HW259718   2.569   8.342   1.933
85941SOL     OW59719  10.349   4.286   0.749
85941SOL    HW159720  10.332   4.208   0.697
85941SOL    HW259721  10.409   4.257   0.818
85942SOL     OW59722  12.359  13.658  10.558
85942SOL    HW159723  12.291  13.599  10.592
85942SOL    HW259724  12.312  13.718  10.500
85943SOL     OW59725  14.327   9.640   8.543
85943SOL    HW159726  14.405   9.588   8.563
85943SOL    HW259727  14.317   9.698   8.618
85944SOL     OW59728  10.642   3.011   5.663
85944SOL    HW159729  10.726   3.056   5.670
85944SOL    HW259730  10.594   3.037   5.742
85945SOL     OW59731   9.124  12.473  11.752
85945SOL    HW159732   9.079  12.501  11.672
85945SOL    HW259733   9.059  12.420  11.798
85946SOL     OW59734   7.783  12.360  14.098
85946SOL    HW159735   7.839  12.283  14.085
85946SOL    HW259736   7.816  12.424  14.034
85947SOL     OW59737   1.406  14.508   6.969
85947SOL    HW159738   1.368  14.594   6.984
85947SOL    HW259739   1.455  14.517   6.887
85948SOL     OW59740   1.001  13.253  12.930
85948SOL    HW159741   1.091  13.234  12.904
85948SOL    HW259742   1.010  13.320  12.998
85949SOL     OW59743  12.261   4.573   7.089
85949SOL    HW159744  12.232   4.661   7.113
85949SOL    HW259745  12.235   4.518   7.163
85950SOL     OW59746   1.029   5.523   4.378
85950SOL    HW159747   1.041   5.617   4.394
85950SOL    HW259748   0.948   5.519   4.326
85951SOL     OW59749   9.940  13.076   5.508
85951SOL    HW159750   9.989  13.001   5.541
85951SOL    HW259751  10.002  13.123   5.452
85952SOL     OW59752  13.240   4.315   5.356
85952SOL    HW159753  13.320   4.363   5.373
85952SOL    HW259754  13.188   4.374   5.301
85953SOL     OW59755   3.391   8.119   5.228
85953SOL    HW159756   3.376   8.186   5.162
85953SOL    HW259757   3.481   8.133   5.257
85954SOL     OW59758  12.222   7.034   2.723
85954SOL    HW159759  12.204   7.124   2.750
85954SOL    HW259760  12.316   7.023   2.734
85955SOL     OW59761  11.774   8.791   3.322
85955SOL    HW159762  11.693   8.840   3.305
85955SOL    HW259763  11.817   8.840   3.392
85956SOL     OW59764  14.537   0.289   3.873
85956SOL    HW159765  14.602   0.246   3.928
85956SOL    HW259766  14.466   0.225   3.865
85957SOL     OW59767   9.303  13.228   9.631
85957SOL    HW159768   9.362  13.210   9.704
85957SOL    HW259769   9.274  13.318   9.645
85958SOL     OW59770   8.294   1.671  13.888
85958SOL    HW159771   8.228   1.609  13.920
85958SOL    HW259772   8.291   1.663  13.793
85959SOL     OW59773   5.037  12.615  11.456
85959SOL    HW159774   5.037  12.524  11.427
85959SOL    HW259775   5.112  12.655  11.411
85960SOL     OW59776  11.811   8.823  11.063
85960SOL    HW159777  11.886   8.794  11.012
85960SOL    HW259778  11.773   8.894  11.011
85961SOL     OW59779  13.092  14.104  14.594
85961SOL    HW159780  13.109  14.086  14.501
85961SOL    HW259781  13.095  14.018  14.636
85962SOL     OW59782   2.658   8.742   3.504
85962SOL    HW159783   2.612   8.809   3.454
85962SOL    HW259784   2.591   8.676   3.522
85963SOL     OW59785   7.261   2.659   7.753
85963SOL    HW159786   7.274   2.565   7.742
85963SOL    HW259787   7.266   2.672   7.848
85964SOL     OW59788  12.439   3.661   1.691
85964SOL    HW159789  12.399   3.713   1.622
85964SOL    HW259790  12.496   3.599   1.645
85965SOL     OW59791   7.402   1.020  13.590
85965SOL    HW159792   7.390   0.946  13.530
85965SOL    HW259793   7.363   0.991  13.672
85966SOL     OW59794   7.675   5.085   5.725
85966SOL    HW159795   7.598   5.029   5.717
85966SOL    HW259796   7.647   5.157   5.782
85967SOL     OW59797   7.115   6.843  11.479
85967SOL    HW159798   7.031   6.888  11.472
85967SOL    HW259799   7.170   6.901  11.532
85968SOL     OW59800   6.192  13.077   4.241
85968SOL    HW159801   6.235  13.015   4.182
85968SOL    HW259802   6.135  13.022   4.296
85969SOL     OW59803  12.623   7.357  11.258
85969SOL    HW159804  12.634   7.449  11.279
85969SOL    HW259805  12.528   7.344  11.254
85970SOL     OW59806   5.169   2.122   4.167
85970SOL    HW159807   5.088   2.115   4.217
85970SOL    HW259808   5.235   2.151   4.231
85971SOL     OW59809   2.437   3.409   8.480
85971SOL    HW159810   2.427   3.441   8.391
85971SOL    HW259811   2.427   3.314   8.473
85972SOL     OW59812   4.039   1.946   3.630
85972SOL    HW159813   3.984   1.966   3.706
85972SOL    HW259814   4.024   1.853   3.613
85973SOL     OW59815   3.492   9.122  11.352
85973SOL    HW159816   3.416   9.163  11.394
85973SOL    HW259817   3.471   9.123  11.259
85974SOL     OW59818   2.581  11.735   4.216
85974SOL    HW159819   2.657  11.773   4.261
85974SOL    HW259820   2.600  11.748   4.123
85975SOL     OW59821  14.524  10.449  13.428
85975SOL    HW159822  14.582  10.521  13.454
85975SOL    HW259823  14.493  10.413  13.511
85976SOL     OW59824   0.912  11.152   4.518
85976SOL    HW159825   0.970  11.084   4.485
85976SOL    HW259826   0.962  11.195   4.587
85977SOL     OW59827  14.610   1.127   1.025
85977SOL    HW159828  14.630   1.034   1.012
85977SOL    HW259829  14.618   1.166   0.938
85978SOL     OW59830   9.058  12.599   1.913
85978SOL    HW159831   9.053  12.687   1.875
85978SOL    HW259832   8.989  12.597   1.979
85979SOL     OW59833   1.246  14.425   4.100
85979SOL    HW159834   1.299  14.503   4.116
85979SOL    HW259835   1.235  14.423   4.005
85980SOL     OW59836  11.955   0.260  13.159
85980SOL    HW159837  11.886   0.215  13.112
85980SOL    HW259838  12.031   0.255  13.101
85981SOL     OW59839  11.409   3.547   1.217
85981SOL    HW159840  11.333   3.491   1.203
85981SOL    HW259841  11.481   3.486   1.236
85982SOL     OW59842  11.559   2.083   2.882
85982SOL    HW159843  11.617   2.097   2.807
85982SOL    HW259844  11.539   2.171   2.913
85983SOL     OW59845   5.691   9.946   8.280
85983SOL    HW159846   5.769   9.998   8.263
85983SOL    HW259847   5.707   9.904   8.364
85984SOL     OW59848   0.649   7.983   1.264
85984SOL    HW159849   0.590   8.034   1.210
85984SOL    HW259850   0.716   7.950   1.204
85985SOL     OW59851   1.009   0.826   2.870
85985SOL    HW159852   1.031   0.919   2.867
85985SOL    HW259853   1.090   0.781   2.847
85986SOL     OW59854  11.528  13.184  12.341
85986SOL    HW159855  11.595  13.252  12.341
85986SOL    HW259856  11.468  13.210  12.410
85987SOL     OW59857   2.335   9.930  13.185
85987SOL    HW159858   2.414   9.921  13.131
85987SOL    HW259859   2.365   9.910  13.274
85988SOL     OW59860   9.365   0.590  13.390
85988SOL    HW159861   9.390   0.562  13.302
85988SOL    HW259862   9.441   0.570  13.444
85989SOL     OW59863  14.104   4.313   0.443
85989SOL    HW159864  14.032   4.270   0.488
85989SOL    HW259865  14.182   4.268   0.475
85990SOL     OW59866   4.478   7.376  11.657
85990SOL    HW159867   4.404   7.319  11.633
85990SOL    HW259868   4.437   7.453  11.697
85991SOL     OW59869   0.354   3.098   5.371
85991SOL    HW159870   0.276   3.076   5.421
85991SOL    HW259871   0.385   3.014   5.336
85992SOL     OW59872  14.793   9.893   6.013
85992SOL    HW159873  14.845   9.833   6.067
85992SOL    HW259874  14.721   9.840   5.980
85993SOL     OW59875  10.929  12.122   0.586
85993SOL    HW159876  10.885  12.040   0.563
85993SOL    HW259877  10.864  12.170   0.638
85994SOL     OW59878  12.047   8.741   8.716
85994SOL    HW159879  12.040   8.744   8.812
85994SOL    HW259880  11.998   8.663   8.690
85995SOL     OW59881   0.900  13.839   8.965
85995SOL    HW159882   0.981  13.842   8.915
85995SOL    HW259883   0.924  13.869   9.052
85996SOL     OW59884   6.794   2.764   8.528
85996SOL    HW159885   6.700   2.745   8.527
85996SOL    HW259886   6.821   2.751   8.619
85997SOL     OW59887   7.672  10.993   6.400
85997SOL    HW159888   7.664  10.986   6.305
85997SOL    HW259889   7.691  11.086   6.416
85998SOL     OW59890  11.542  10.869   6.975
85998SOL    HW159891  11.614  10.893   7.034
85998SOL    HW259892  11.565  10.907   6.891
85999SOL     OW59893  14.383  12.310  14.002
85999SOL    HW159894  14.307  12.347  13.956
85999SOL    HW259895  14.376  12.216  13.987
86000SOL     OW59896   4.872  11.166  10.950
86000SOL    HW159897   4.876  11.094  11.013
86000SOL    HW259898   4.794  11.216  10.975
86001SOL     OW59899   0.609  13.019   7.431
86001SOL    HW159900   0.634  13.073   7.357
86001SOL    HW259901   0.529  13.059   7.465
86002SOL     OW59902   7.378   6.266  12.120
86002SOL    HW159903   7.324   6.214  12.060
86002SOL    HW259904   7.324   6.341  12.142
86003SOL     OW59905   0.869  14.862   1.176
86003SOL    HW159906   0.786  14.842   1.134
86003SOL    HW259907   0.912   0.043   1.117
86004SOL     OW59908   5.835   8.879   6.644
86004SOL    HW159909   5.746   8.842   6.641
86004SOL    HW259910   5.866   8.875   6.554
86005SOL     OW59911   4.411   2.736  10.811
86005SOL    HW159912   4.433   2.827  10.830
86005SOL    HW259913   4.445   2.721  10.723
86006SOL     OW59914   5.479   0.960   3.131
86006SOL    HW159915   5.566   0.932   3.159
86006SOL    HW259916   5.424   0.951   3.209
86007SOL     OW59917   8.968   6.401  10.940
86007SOL    HW159918   9.034   6.410  11.009
86007SOL    HW259919   8.996   6.324  10.891
86008SOL     OW59920   3.650  12.055  10.177
86008SOL    HW159921   3.674  12.132  10.127
86008SOL    HW259922   3.733  12.017  10.205
86009SOL     OW59923  14.814  12.707  10.675
86009SOL    HW159924  14.762  12.672  10.748
86009SOL    HW259925  14.872  12.772  10.716
86010SOL     OW59926  14.270  14.528   1.318
86010SOL    HW159927  14.266  14.435   1.298
86010SOL    HW259928  14.308  14.568   1.240
86011SOL     OW59929  10.576  13.685   2.877
86011SOL    HW159930  10.617  13.599   2.888
86011SOL    HW259931  10.527  13.678   2.795
86012SOL     OW59932   4.086   9.418   3.167
86012SOL    HW159933   4.149   9.486   3.146
86012SOL    HW259934   4.047   9.446   3.250
86013SOL     OW59935   6.989  10.649   0.098
86013SOL    HW159936   6.987  10.560   0.063
86013SOL    HW259937   6.951  10.640   0.186
86014SOL     OW59938  13.958  11.278  11.952
86014SOL    HW159939  13.886  11.233  11.995
86014SOL    HW259940  13.916  11.347  11.900
86015SOL     OW59941   1.907   6.683   0.422
86015SOL    HW159942   1.994   6.647   0.440
86015SOL    HW259943   1.917   6.732   0.341
86016SOL     OW59944   5.219  13.899   0.964
86016SOL    HW159945   5.295  13.944   1.000
86016SOL    HW259946   5.245  13.807   0.961
86017SOL     OW59947   4.442   0.396   6.931
86017SOL    HW159948   4.417   0.488   6.943
86017SOL    HW259949   4.535   0.399   6.911
86018SOL     OW59950   7.019   3.399   3.738
86018SOL    HW159951   6.937   3.372   3.779
86018SOL    HW259952   7.079   3.413   3.812
86019SOL     OW59953  12.137  10.766   1.913
86019SOL    HW159954  12.084  10.845   1.901
86019SOL    HW259955  12.205  10.791   1.976
86020SOL     OW59956  14.658   4.644  12.705
86020SOL    HW159957  14.591   4.702  12.669
86020SOL    HW259958  14.663   4.572  12.643
86021SOL     OW59959   0.742   0.800   7.540
86021SOL    HW159960   0.802   0.726   7.553
86021SOL    HW259961   0.724   0.832   7.629
86022SOL     OW59962   5.173  10.797   2.956
86022SOL    HW159963   5.153  10.874   2.902
86022SOL    HW259964   5.180  10.831   3.045
86023SOL     OW59965  13.005   8.533   8.373
86023SOL    HW159966  12.962   8.498   8.295
86023SOL    HW259967  13.086   8.573   8.340
86024SOL     OW59968  13.619   6.985   1.090
86024SOL    HW159969  13.616   7.071   1.130
86024SOL    HW259970  13.711   6.971   1.068
86025SOL     OW59971  13.566   2.766  14.850
86025SOL    HW159972  13.659   2.744  14.858
86025SOL    HW259973  13.549   2.824   0.044
86026SOL     OW59974   3.581   2.520   8.104
86026SOL    HW159975   3.522   2.453   8.138
86026SOL    HW259976   3.525   2.596   8.090
86027SOL     OW59977  12.941   9.743   9.934
86027SOL    HW159978  12.969   9.806  10.000
86027SOL    HW259979  12.942   9.659   9.979
86028SOL     OW59980  10.259   4.332   0.313
86028SOL    HW159981  10.326   4.311   0.378
86028SOL    HW259982  10.270   4.426   0.297
86029SOL     OW59983  11.436  14.593  10.271
86029SOL    HW159984  11.501  14.621  10.336
86029SOL    HW259985  11.427  14.499  10.284
86030SOL     OW59986  12.517  11.786  12.984
86030SOL    HW159987  12.600  11.819  12.950
86030SOL    HW259988  12.508  11.826  13.071
86031SOL     OW59989  14.318   2.670  12.556
86031SOL    HW159990  14.408   2.684  12.528
86031SOL    HW259991  14.271   2.747  12.526
86032SOL     OW59992  13.646   8.357   9.410
86032SOL    HW159993  13.671   8.307   9.487
86032SOL    HW259994  13.700   8.437   9.415
86033SOL     OW59995   8.665  12.885   3.147
86033SOL    HW159996   8.598  12.904   3.211
86033SOL    HW259997   8.709  12.968   3.131
86034SOL     OW59998  14.446   9.451   3.323
86034SOL    HW159999  14.466   9.363   3.356
86034SOL    HW260000  14.358   9.469   3.356
86035SOL     OW60001  10.755  13.702  14.717
86035SOL    HW160002  10.785  13.718  14.628
86035SOL    HW260003  10.659  13.704  14.711
86036SOL     OW60004  13.919  10.474   9.377
86036SOL    HW160005  14.005  10.497   9.411
86036SOL    HW260006  13.886  10.407   9.437
86037SOL     OW60007  14.466  11.223   6.217
86037SOL    HW160008  14.482  11.134   6.186
86037SOL    HW260009  14.553  11.261   6.227
86038SOL     OW60010   7.326   4.549   7.659
86038SOL    HW160011   7.261   4.583   7.720
86038SOL    HW260012   7.291   4.463   7.633
86039SOL     OW60013   8.921  13.014   3.475
86039SOL    HW160014   8.900  12.924   3.449
86039SOL    HW260015   8.843  13.045   3.520
86040SOL     OW60016   5.216  11.039   9.615
86040SOL    HW160017   5.306  11.006   9.616
86040SOL    HW260018   5.206  11.081   9.530
86041SOL     OW60019   7.371   7.471   1.310
86041SOL    HW160020   7.431   7.396   1.312
86041SOL    HW260021   7.319   7.457   1.231
86042SOL     OW60022   3.164   2.654   0.322
86042SOL    HW160023   3.184   2.634   0.414
86042SOL    HW260024   3.070   2.669   0.320
86043SOL     OW60025   8.066  11.689  10.831
86043SOL    HW160026   7.998  11.670  10.895
86043SOL    HW260027   8.084  11.606  10.788
86044SOL     OW60028  13.337   2.859   3.824
86044SOL    HW160029  13.375   2.832   3.908
86044SOL    HW260030  13.286   2.938   3.845
86045SOL     OW60031   6.549  12.555   3.443
86045SOL    HW160032   6.495  12.486   3.481
86045SOL    HW260033   6.617  12.509   3.395
86046SOL     OW60034  10.045   8.936  14.123
86046SOL    HW160035   9.991   8.945  14.202
86046SOL    HW260036   9.991   8.971  14.053
86047SOL     OW60037  11.898   8.680   3.106
86047SOL    HW160038  11.860   8.703   3.191
86047SOL    HW260039  11.850   8.733   3.043
86048SOL     OW60040  10.784   0.966   7.421
86048SOL    HW160041  10.753   1.014   7.344
86048SOL    HW260042  10.762   0.875   7.403
86049SOL     OW60043  14.135   4.237  13.926
86049SOL    HW160044  14.172   4.158  13.886
86049SOL    HW260045  14.055   4.254  13.876
86050SOL     OW60046   3.057   3.170   9.161
86050SOL    HW160047   2.985   3.142   9.105
86050SOL    HW260048   3.057   3.265   9.155
86051SOL     OW60049   0.848   5.823   9.882
86051SOL    HW160050   0.934   5.783   9.868
86051SOL    HW260051   0.866   5.898   9.938
86052SOL     OW60052  12.487  12.417   7.887
86052SOL    HW160053  12.529  12.357   7.826
86052SOL    HW260054  12.405  12.441   7.844
86053SOL     OW60055   5.996  13.684   5.417
86053SOL    HW160056   6.083  13.643   5.410
86053SOL    HW260057   5.949  13.630   5.479
86054SOL     OW60058   5.387   9.577   3.691
86054SOL    HW160059   5.474   9.566   3.731
86054SOL    HW260060   5.333   9.509   3.732
86055SOL     OW60061   9.084   5.015   2.715
86055SOL    HW160062   9.023   5.081   2.679
86055SOL    HW260063   9.073   5.021   2.810
86056SOL     OW60064   3.786  11.063  14.700
86056SOL    HW160065   3.855  11.129  14.710
86056SOL    HW260066   3.813  10.992  14.759
86057SOL     OW60067   3.685   6.323   0.976
86057SOL    HW160068   3.718   6.244   0.935
86057SOL    HW260069   3.600   6.338   0.935
86058SOL     OW60070   4.625  13.174   6.108
86058SOL    HW160071   4.589  13.145   6.192
86058SOL    HW260072   4.645  13.267   6.122
86059SOL     OW60073   0.284  13.270  11.797
86059SOL    HW160074   0.337  13.282  11.876
86059SOL    HW260075   0.293  13.177  11.776
86060SOL     OW60076   7.326   4.381   6.966
86060SOL    HW160077   7.241   4.350   6.995
86060SOL    HW260078   7.379   4.302   6.956
86061SOL     OW60079  13.811   7.321   6.086
86061SOL    HW160080  13.752   7.388   6.051
86061SOL    HW260081  13.752   7.254   6.122
86062SOL     OW60082  12.613   2.526   3.781
86062SOL    HW160083  12.661   2.491   3.856
86062SOL    HW260084  12.610   2.453   3.718
86063SOL     OW60085   0.624   4.847  10.827
86063SOL    HW160086   0.627   4.826  10.733
86063SOL    HW260087   0.531   4.861  10.844
86064SOL     OW60088   4.012   7.570   3.661
86064SOL    HW160089   4.039   7.483   3.631
86064SOL    HW260090   4.006   7.623   3.582
86065SOL     OW60091   3.828   5.543   7.895
86065SOL    HW160092   3.919   5.554   7.922
86065SOL    HW260093   3.829   5.468   7.835
86066SOL     OW60094   7.114   2.963   9.071
86066SOL    HW160095   7.025   2.964   9.108
86066SOL    HW260096   7.113   3.034   9.007
86067SOL     OW60097   2.869  13.268   1.097
86067SOL    HW160098   2.939  13.304   1.042
86067SOL    HW260099   2.824  13.345   1.132
86068SOL     OW60100   9.072   2.701   5.759
86068SOL    HW160101   8.993   2.649   5.751
86068SOL    HW260102   9.062   2.771   5.695
86069SOL     OW60103   6.746  13.549  11.793
86069SOL    HW160104   6.787  13.630  11.762
86069SOL    HW260105   6.652  13.566  11.788
86070SOL     OW60106   3.424   9.946  12.199
86070SOL    HW160107   3.429   9.853  12.178
86070SOL    HW260108   3.363   9.951  12.273
86071SOL     OW60109  12.638  10.907  10.867
86071SOL    HW160110  12.710  10.895  10.805
86071SOL    HW260111  12.680  10.907  10.953
86072SOL     OW60112  13.508  11.741  13.966
86072SOL    HW160113  13.481  11.651  13.946
86072SOL    HW260114  13.441  11.796  13.925
86073SOL     OW60115   1.852   7.507  11.178
86073SOL    HW160116   1.793   7.514  11.103
86073SOL    HW260117   1.836   7.418  11.211
86074SOL     OW60118  12.433  11.844   4.210
86074SOL    HW160119  12.436  11.933   4.245
86074SOL    HW260120  12.516  11.834   4.163
86075SOL     OW60121  14.305   5.912   2.054
86075SOL    HW160122  14.356   5.834   2.073
86075SOL    HW260123  14.226   5.880   2.011
86076SOL     OW60124   1.699   3.802   2.576
86076SOL    HW160125   1.722   3.739   2.508
86076SOL    HW260126   1.712   3.755   2.658
86077SOL     OW60127   4.677   7.292  12.356
86077SOL    HW160128   4.745   7.225  12.353
86077SOL    HW260129   4.689   7.341  12.275
86078SOL     OW60130   2.482   9.018   3.824
86078SOL    HW160131   2.436   8.979   3.750
86078SOL    HW260132   2.459   8.964   3.899
86079SOL     OW60133  10.122   2.247   5.686
86079SOL    HW160134  10.048   2.305   5.670
86079SOL    HW260135  10.197   2.293   5.647
86080SOL     OW60136   5.449   0.602   1.563
86080SOL    HW160137   5.398   0.524   1.543
86080SOL    HW260138   5.532   0.588   1.519
86081SOL     OW60139  13.447  11.464   7.548
86081SOL    HW160140  13.380  11.412   7.505
86081SOL    HW260141  13.497  11.503   7.476
86082SOL     OW60142   8.315   3.759  11.041
86082SOL    HW160143   8.384   3.774  10.977
86082SOL    HW260144   8.240   3.728  10.990
86083SOL     OW60145  13.426   2.482   8.465
86083SOL    HW160146  13.452   2.492   8.373
86083SOL    HW260147  13.453   2.393   8.487
86084SOL     OW60148   6.050   0.666   1.724
86084SOL    HW160149   6.080   0.712   1.803
86084SOL    HW260150   6.131   0.641   1.679
86085SOL     OW60151   8.310   3.083   3.070
86085SOL    HW160152   8.299   3.103   2.977
86085SOL    HW260153   8.335   2.991   3.072
86086SOL     OW60154   6.740   5.423   4.767
86086SOL    HW160155   6.788   5.344   4.742
86086SOL    HW260156   6.667   5.391   4.820
86087SOL     OW60157   3.126   6.592   6.155
86087SOL    HW160158   3.203   6.639   6.187
86087SOL    HW260159   3.090   6.550   6.233
86088SOL     OW60160   5.865   9.545   7.487
86088SOL    HW160161   5.825   9.459   7.501
86088SOL    HW260162   5.840   9.596   7.564
86089SOL     OW60163  13.169   1.913   7.229
86089SOL    HW160164  13.254   1.899   7.187
86089SOL    HW260165  13.186   1.903   7.323
86090SOL     OW60166   7.605  12.482   5.014
86090SOL    HW160167   7.577  12.491   4.922
86090SOL    HW260168   7.699  12.500   5.012
86091SOL     OW60169   1.365  12.495   8.250
86091SOL    HW160170   1.303  12.547   8.301
86091SOL    HW260171   1.446  12.498   8.301
86092SOL     OW60172   4.432   5.052   9.076
86092SOL    HW160173   4.354   5.086   9.120
86092SOL    HW260174   4.467   4.987   9.137
86093SOL     OW60175  11.615  14.160   0.958
86093SOL    HW160176  11.657  14.190   1.039
86093SOL    HW260177  11.582  14.073   0.979
86094SOL     OW60178  11.740  12.590   7.976
86094SOL    HW160179  11.736  12.631   7.890
86094SOL    HW260180  11.672  12.634   8.027
86095SOL     OW60181  14.131   2.632   3.862
86095SOL    HW160182  14.150   2.616   3.770
86095SOL    HW260183  14.201   2.587   3.909
86096SOL     OW60184  11.658  13.683   7.753
86096SOL    HW160185  11.678  13.637   7.672
86096SOL    HW260186  11.741  13.722   7.780
86097SOL     OW60187   3.745   6.809   2.589
86097SOL    HW160188   3.793   6.732   2.618
86097SOL    HW260189   3.788   6.882   2.634
86098SOL     OW60190   0.981   5.188   0.582
86098SOL    HW160191   0.968   5.122   0.514
86098SOL    HW260192   1.038   5.146   0.646
86099SOL     OW60193   4.990  14.637   0.629
86099SOL    HW160194   4.932  14.581   0.579
86099SOL    HW260195   5.078  14.604   0.610
86100SOL     OW60196   4.481   5.132   7.086
86100SOL    HW160197   4.486   5.157   7.179
86100SOL    HW260198   4.409   5.069   7.082
86101SOL     OW60199   0.882   5.199  11.505
86101SOL    HW160200   0.971   5.198  11.540
86101SOL    HW260201   0.869   5.289  11.473
86102SOL     OW60202   1.206   8.653  10.407
86102SOL    HW160203   1.151   8.730  10.394
86102SOL    HW260204   1.157   8.582  10.364
86103SOL     OW60205   0.412  10.014  12.539
86103SOL    HW160206   0.492   9.963  12.547
86103SOL    HW260207   0.372   9.984  12.457
86104SOL     OW60208   8.652   9.705   2.607
86104SOL    HW160209   8.613   9.767   2.668
86104SOL    HW260210   8.728   9.670   2.653
86105SOL     OW60211   6.756  12.989  14.063
86105SOL    HW160212   6.763  13.007  13.969
86105SOL    HW260213   6.833  12.935  14.082
86106SOL     OW60214  14.033   3.216   0.419
86106SOL    HW160215  14.061   3.141   0.471
86106SOL    HW260216  14.110   3.272   0.413
86107SOL     OW60217  13.421   8.747  14.591
86107SOL    HW160218  13.446   8.825  14.542
86107SOL    HW260219  13.483   8.744  14.664
86108SOL     OW60220  11.242   3.431   2.356
86108SOL    HW160221  11.189   3.510   2.366
86108SOL    HW260222  11.183   3.359   2.380
86109SOL     OW60223   5.180  10.827   9.997
86109SOL    HW160224   5.259  10.843   9.946
86109SOL    HW260225   5.190  10.737  10.029
86110SOL     OW60226   0.494   9.134   1.127
86110SOL    HW160227   0.569   9.141   1.067
86110SOL    HW260228   0.450   9.054   1.100
86111SOL     OW60229   4.416   2.438   4.745
86111SOL    HW160230   4.344   2.376   4.732
86111SOL    HW260231   4.394   2.482   4.827
86112SOL     OW60232  14.194   1.418  13.517
86112SOL    HW160233  14.165   1.422  13.426
86112SOL    HW260234  14.118   1.388  13.566
86113SOL     OW60235   0.150   7.279   3.379
86113SOL    HW160236   0.095   7.216   3.426
86113SOL    HW260237   0.203   7.320   3.447
86114SOL     OW60238   3.965  14.514   8.992
86114SOL    HW160239   3.993  14.588   8.939
86114SOL    HW260240   3.872  14.531   9.010
86115SOL     OW60241   2.373   6.147   3.523
86115SOL    HW160242   2.359   6.227   3.573
86115SOL    HW260243   2.441   6.100   3.570
86116SOL     OW60244   6.496   0.267   8.661
86116SOL    HW160245   6.561   0.209   8.622
86116SOL    HW260246   6.513   0.262   8.755
86117SOL     OW60247   4.035   8.074   0.629
86117SOL    HW160248   4.049   7.984   0.659
86117SOL    HW260249   3.967   8.108   0.687
86118SOL     OW60250   0.202  13.866   9.420
86118SOL    HW160251   0.119  13.910   9.440
86118SOL    HW260252   0.252  13.929   9.368
86119SOL     OW60253   4.471  10.330  13.229
86119SOL    HW160254   4.383  10.321  13.266
86119SOL    HW260255   4.468  10.279  13.148
86120SOL     OW60256   1.718  11.491   5.206
86120SOL    HW160257   1.685  11.444   5.129
86120SOL    HW260258   1.685  11.440   5.281
86121SOL     OW60259   1.333   5.271  12.308
86121SOL    HW160260   1.360   5.279  12.399
86121SOL    HW260261   1.398   5.320  12.259
86122SOL     OW60262   2.836   6.365  13.403
86122SOL    HW160263   2.892   6.291  13.382
86122SOL    HW260264   2.849   6.378  13.497
86123SOL     OW60265  10.007   6.663   3.522
86123SOL    HW160266   9.979   6.636   3.434
86123SOL    HW260267  10.017   6.581   3.570
86124SOL     OW60268   5.424   9.805   5.254
86124SOL    HW160269   5.365   9.861   5.304
86124SOL    HW260270   5.367   9.762   5.190
86125SOL     OW60271   1.646  11.779   6.885
86125SOL    HW160272   1.639  11.868   6.850
86125SOL    HW260273   1.575  11.773   6.949
86126SOL     OW60274   6.269   8.335   6.837
86126SOL    HW160275   6.350   8.322   6.787
86126SOL    HW260276   6.213   8.262   6.811
86127SOL     OW60277   9.177   0.551   2.058
86127SOL    HW160278   9.105   0.515   2.006
86127SOL    HW260279   9.147   0.638   2.083
86128SOL     OW60280   7.322  11.979   2.013
86128SOL    HW160281   7.395  11.932   2.053
86128SOL    HW260282   7.358  12.063   1.987
86129SOL     OW60283   7.533  11.375   9.688
86129SOL    HW160284   7.598  11.307   9.707
86129SOL    HW260285   7.493  11.348   9.606
86130SOL     OW60286   4.084  10.341   6.471
86130SOL    HW160287   4.172  10.304   6.464
86130SOL    HW260288   4.027  10.274   6.433
86131SOL     OW60289   0.278   4.011  10.168
86131SOL    HW160290   0.277   3.923  10.205
86131SOL    HW260291   0.300   4.067  10.243
86132SOL     OW60292   8.594  10.454   6.456
86132SOL    HW160293   8.503  10.454   6.485
86132SOL    HW260294   8.603  10.536   6.407
86133SOL     OW60295   1.067   9.144   4.462
86133SOL    HW160296   1.157   9.139   4.431
86133SOL    HW260297   1.045   9.054   4.488
86134SOL     OW60298   7.413   3.049   7.388
86134SOL    HW160299   7.418   3.030   7.482
86134SOL    HW260300   7.422   3.144   7.383
86135SOL     OW60301  14.401   5.224   7.343
86135SOL    HW160302  14.466   5.161   7.311
86135SOL    HW260303  14.451   5.302   7.364
86136SOL     OW60304   2.712   9.705   4.983
86136SOL    HW160305   2.668   9.701   5.067
86136SOL    HW260306   2.778   9.636   4.987
86137SOL     OW60307   7.019   9.618  13.409
86137SOL    HW160308   7.074   9.548  13.376
86137SOL    HW260309   7.080   9.686  13.437
86138SOL     OW60310  11.148  13.612   1.595
86138SOL    HW160311  11.163  13.702   1.627
86138SOL    HW260312  11.133  13.561   1.674
86139SOL     OW60313  11.518   2.553  12.361
86139SOL    HW160314  11.578   2.576  12.432
86139SOL    HW260315  11.467   2.480  12.396
86140SOL     OW60316  13.339  11.458   0.210
86140SOL    HW160317  13.297  11.519   0.149
86140SOL    HW260318  13.417  11.504   0.241
86141SOL     OW60319   3.377   7.745   5.353
86141SOL    HW160320   3.472   7.732   5.353
86141SOL    HW260321   3.359   7.795   5.432
86142SOL     OW60322  11.809   8.403   5.259
86142SOL    HW160323  11.853   8.430   5.339
86142SOL    HW260324  11.716   8.407   5.280
86143SOL     OW60325  12.069   6.176  11.243
86143SOL    HW160326  12.148   6.135  11.278
86143SOL    HW260327  12.022   6.207  11.320
86144SOL     OW60328   1.138  11.996   0.438
86144SOL    HW160329   1.104  12.053   0.370
86144SOL    HW260330   1.138  11.908   0.399
86145SOL     OW60331  10.946   6.161   8.049
86145SOL    HW160332  11.020   6.222   8.054
86145SOL    HW260333  10.978   6.091   7.992
86146SOL     OW60334   2.336   8.286  11.475
86146SOL    HW160335   2.339   8.230  11.553
86146SOL    HW260336   2.266   8.248  11.422
86147SOL     OW60337   7.303  13.118  13.100
86147SOL    HW160338   7.265  13.195  13.143
86147SOL    HW260339   7.301  13.050  13.167
86148SOL     OW60340   9.511   0.637   9.565
86148SOL    HW160341   9.560   0.555   9.568
86148SOL    HW260342   9.540   0.685   9.643
86149SOL     OW60343   8.359   2.515   2.304
86149SOL    HW160344   8.402   2.563   2.233
86149SOL    HW260345   8.265   2.521   2.283
86150SOL     OW60346   8.212  14.537   3.179
86150SOL    HW160347   8.179  14.618   3.216
86150SOL    HW260348   8.260  14.495   3.251
86151SOL     OW60349   5.034  12.189   2.265
86151SOL    HW160350   5.009  12.260   2.207
86151SOL    HW260351   5.129  12.183   2.256
86152SOL     OW60352   8.347  10.558   5.448
86152SOL    HW160353   8.433  10.533   5.483
86152SOL    HW260354   8.340  10.652   5.467
86153SOL     OW60355   3.639  12.621   3.333
86153SOL    HW160356   3.587  12.552   3.374
86153SOL    HW260357   3.696  12.653   3.403
86154SOL     OW60358   0.213   0.959   7.276
86154SOL    HW160359   0.138   0.954   7.335
86154SOL    HW260360   0.266   1.031   7.312
86155SOL     OW60361   7.635   5.498   3.264
86155SOL    HW160362   7.563   5.436   3.251
86155SOL    HW260363   7.615   5.541   3.347
86156SOL     OW60364   1.101   6.163   5.423
86156SOL    HW160365   1.044   6.173   5.347
86156SOL    HW260366   1.133   6.251   5.441
86157SOL     OW60367   1.784   9.901   0.542
86157SOL    HW160368   1.809   9.824   0.492
86157SOL    HW260369   1.696   9.922   0.513
86158SOL     OW60370   1.384  12.315   4.793
86158SOL    HW160371   1.476  12.337   4.780
86158SOL    HW260372   1.348  12.312   4.704
86159SOL     OW60373   2.137   9.602   7.792
86159SOL    HW160374   2.115   9.692   7.768
86159SOL    HW260375   2.088   9.548   7.730
86160SOL     OW60376  13.203  10.293  11.267
86160SOL    HW160377  13.261  10.330  11.201
86160SOL    HW260378  13.179  10.367  11.323
86161SOL     OW60379  14.211   3.188   2.895
86161SOL    HW160380  14.128   3.178   2.849
86161SOL    HW260381  14.275   3.205   2.826
86162SOL     OW60382  13.185  14.113   2.425
86162SOL    HW160383  13.101  14.087   2.462
86162SOL    HW260384  13.163  14.159   2.344
86163SOL     OW60385   7.937   2.435  11.075
86163SOL    HW160386   7.852   2.392  11.075
86163SOL    HW260387   7.970   2.423  10.985
86164SOL     OW60388   0.767   0.458   8.873
86164SOL    HW160389   0.818   0.377   8.862
86164SOL    HW260390   0.694   0.433   8.929
86165SOL     OW60391   1.069   2.002   2.824
86165SOL    HW160392   1.136   2.037   2.765
86165SOL    HW260393   1.084   2.048   2.907
86166SOL     OW60394   9.357   8.014   1.229
86166SOL    HW160395   9.354   8.015   1.133
86166SOL    HW260396   9.419   7.944   1.250
86167SOL     OW60397  14.053  12.011   9.905
86167SOL    HW160398  14.013  11.971   9.827
86167SOL    HW260399  14.092  11.938   9.952
86168SOL     OW60400   9.310   8.293   9.681
86168SOL    HW160401   9.313   8.199   9.702
86168SOL    HW260402   9.217   8.315   9.681
86169SOL     OW60403   6.433   4.974   8.737
86169SOL    HW160404   6.505   5.038   8.735
86169SOL    HW260405   6.438   4.935   8.824
86170SOL     OW60406  11.954   1.455   8.391
86170SOL    HW160407  11.865   1.465   8.426
86170SOL    HW260408  11.983   1.370   8.423
86171SOL     OW60409   1.427  10.476  12.719
86171SOL    HW160410   1.428  10.384  12.749
86171SOL    HW260411   1.402  10.526  12.797
86172SOL     OW60412   0.155   9.344   0.840
86172SOL    HW160413   0.164   9.285   0.915
86172SOL    HW260414   0.119   9.424   0.878
86173SOL     OW60415  10.904   5.245   5.129
86173SOL    HW160416  10.851   5.322   5.146
86173SOL    HW260417  10.965   5.272   5.060
86174SOL     OW60418   9.046  12.131   7.141
86174SOL    HW160419   9.123  12.092   7.184
86174SOL    HW260420   9.079  12.163   7.057
86175SOL     OW60421  14.480  10.203  13.298
86175SOL    HW160422  14.529  10.270  13.346
86175SOL    HW260423  14.546  10.138  13.275
86176SOL     OW60424   0.285   9.211   7.108
86176SOL    HW160425   0.219   9.229   7.174
86176SOL    HW260426   0.343   9.287   7.110
86177SOL     OW60427   3.475  14.643   6.450
86177SOL    HW160428   3.445  14.705   6.516
86177SOL    HW260429   3.426  14.563   6.469
86178SOL     OW60430   3.956   3.050   4.105
86178SOL    HW160431   3.910   3.132   4.089
86178SOL    HW260432   3.893   2.997   4.154
86179SOL     OW60433   0.759   9.018   7.557
86179SOL    HW160434   0.744   9.089   7.495
86179SOL    HW260435   0.693   9.032   7.625
86180SOL     OW60436  13.304   6.481  13.904
86180SOL    HW160437  13.301   6.409  13.967
86180SOL    HW260438  13.380   6.532  13.929
86181SOL     OW60439  10.388   0.853  10.510
86181SOL    HW160440  10.455   0.889  10.567
86181SOL    HW260441  10.309   0.903  10.532
86182SOL     OW60442   4.471   1.893  11.887
86182SOL    HW160443   4.481   1.873  11.981
86182SOL    HW260444   4.376   1.899  11.875
86183SOL     OW60445   8.657   6.929   1.041
86183SOL    HW160446   8.743   6.950   1.005
86183SOL    HW260447   8.598   6.934   0.966
86184SOL     OW60448  11.705   2.069  10.791
86184SOL    HW160449  11.729   2.158  10.818
86184SOL    HW260450  11.788   2.023  10.784
86185SOL     OW60451  11.988   7.039  11.889
86185SOL    HW160452  12.043   7.097  11.942
86185SOL    HW260453  11.924   7.097  11.847
86186SOL     OW60454   2.656   1.901  14.076
86186SOL    HW160455   2.725   1.872  14.136
86186SOL    HW260456   2.698   1.904  13.990
86187SOL     OW60457   6.715   6.809   4.095
86187SOL    HW160458   6.809   6.826   4.103
86187SOL    HW260459   6.685   6.791   4.184
86188SOL     OW60460   6.313   9.683  11.475
86188SOL    HW160461   6.296   9.611  11.536
86188SOL    HW260462   6.263   9.756  11.511
86189SOL     OW60463   9.188   9.491  13.442
86189SOL    HW160464   9.271   9.503  13.488
86189SOL    HW260465   9.209   9.506  13.350
86190SOL     OW60466   2.651   1.717  11.064
86190SOL    HW160467   2.733   1.730  11.111
86190SOL    HW260468   2.659   1.772  10.986
86191SOL     OW60469   8.557  14.682  14.139
86191SOL    HW160470   8.530  14.760  14.090
86191SOL    HW260471   8.591  14.623  14.072
86192SOL     OW60472   1.418   4.491   3.354
86192SOL    HW160473   1.457   4.466   3.438
86192SOL    HW260474   1.392   4.583   3.366
86193SOL     OW60475   6.033   1.192  14.537
86193SOL    HW160476   6.027   1.104  14.500
86193SOL    HW260477   6.058   1.247  14.463
86194SOL     OW60478  13.717   6.471  13.574
86194SOL    HW160479  13.762   6.474  13.658
86194SOL    HW260480  13.688   6.380  13.564
86195SOL     OW60481   2.717  11.841  14.869
86195SOL    HW160482   2.669  11.761  14.847
86195SOL    HW260483   2.698  11.855   0.081
86196SOL     OW60484   8.831   2.832   8.744
86196SOL    HW160485   8.752   2.845   8.691
86196SOL    HW260486   8.903   2.840   8.682
86197SOL     OW60487   5.199   2.823   8.412
86197SOL    HW160488   5.205   2.764   8.488
86197SOL    HW260489   5.121   2.793   8.365
86198SOL     OW60490  14.502  11.962  14.827
86198SOL    HW160491  14.472  11.896   0.009
86198SOL    HW260492  14.422  12.001  14.793
86199SOL     OW60493  14.334  10.721   4.156
86199SOL    HW160494  14.287  10.679   4.084
86199SOL    HW260495  14.417  10.673   4.161
86200SOL     OW60496   7.611  11.799   3.365
86200SOL    HW160497   7.540  11.862   3.383
86200SOL    HW260498   7.690  11.852   3.365
86201SOL     OW60499  14.177  13.319   0.330
86201SOL    HW160500  14.215  13.376   0.264
86201SOL    HW260501  14.149  13.378   0.400
86202SOL     OW60502  11.266   6.649   6.828
86202SOL    HW160503  11.288   6.605   6.910
86202SOL    HW260504  11.217   6.583   6.778
86203SOL     OW60505   0.833   1.800   9.378
86203SOL    HW160506   0.817   1.725   9.322
86203SOL    HW260507   0.837   1.875   9.318
86204SOL     OW60508   9.276   9.719   1.911
86204SOL    HW160509   9.253   9.778   1.983
86204SOL    HW260510   9.371   9.725   1.905
86205SOL     OW60511   3.849  13.314  12.226
86205SOL    HW160512   3.832  13.400  12.188
86205SOL    HW260513   3.887  13.334  12.312
86206SOL     OW60514  11.647   3.993   7.414
86206SOL    HW160515  11.585   3.921   7.422
86206SOL    HW260516  11.648   4.034   7.500
86207SOL     OW60517   8.913   6.570   6.601
86207SOL    HW160518   8.892   6.617   6.521
86207SOL    HW260519   8.832   6.524   6.624
86208SOL     OW60520   0.601   4.804   1.379
86208SOL    HW160521   0.554   4.802   1.295
86208SOL    HW260522   0.684   4.760   1.360
86209SOL     OW60523  11.386   2.421   4.544
86209SOL    HW160524  11.313   2.479   4.522
86209SOL    HW260525  11.386   2.356   4.473
86210SOL     OW60526   1.720  11.327  11.784
86210SOL    HW160527   1.771  11.354  11.860
86210SOL    HW260528   1.647  11.389  11.781
86211SOL     OW60529   6.890   8.255  14.478
86211SOL    HW160530   6.851   8.177  14.519
86211SOL    HW260531   6.947   8.220  14.410
86212SOL     OW60532   6.540  10.595  10.354
86212SOL    HW160533   6.581  10.667  10.306
86212SOL    HW260534   6.490  10.547  10.288
86213SOL     OW60535  14.066   9.497  10.334
86213SOL    HW160536  14.032   9.575  10.289
86213SOL    HW260537  14.063   9.429  10.267
86214SOL     OW60538   7.411   2.276   5.465
86214SOL    HW160539   7.488   2.220   5.464
86214SOL    HW260540   7.346   2.227   5.517
86215SOL     OW60541   8.158   4.628   5.501
86215SOL    HW160542   8.254   4.635   5.500
86215SOL    HW260543   8.141   4.545   5.546
86216SOL     OW60544   0.255   7.234   2.453
86216SOL    HW160545   0.166   7.263   2.431
86216SOL    HW260546   0.292   7.307   2.503
86217SOL     OW60547   0.775  12.296   5.504
86217SOL    HW160548   0.698  12.349   5.484
86217SOL    HW260549   0.739  12.215   5.542
86218SOL     OW60550   6.653   6.472   7.549
86218SOL    HW160551   6.669   6.514   7.634
86218SOL    HW260552   6.600   6.395   7.570
86219SOL     OW60553   4.662   6.114   6.363
86219SOL    HW160554   4.733   6.150   6.310
86219SOL    HW260555   4.703   6.043   6.412
86220SOL     OW60556  10.017   2.703   6.026
86220SOL    HW160557   9.987   2.719   6.116
86220SOL    HW260558   9.943   2.731   5.972
86221SOL     OW60559   4.128   4.033   2.200
86221SOL    HW160560   4.062   4.051   2.267
86221SOL    HW260561   4.163   3.947   2.223
86222SOL     OW60562  12.255   7.683   2.732
86222SOL    HW160563  12.190   7.672   2.663
86222SOL    HW260564  12.317   7.747   2.697
86223SOL     OW60565   0.833   2.779  13.033
86223SOL    HW160566   0.769   2.823  12.977
86223SOL    HW260567   0.823   2.820  13.119
86224SOL     OW60568   1.518  11.483  11.733
86224SOL    HW160569   1.441  11.457  11.683
86224SOL    HW260570   1.487  11.549  11.794
86225SOL     OW60571   1.112   6.571  10.095
86225SOL    HW160572   1.048   6.539  10.032
86225SOL    HW260573   1.122   6.500  10.158
86226SOL     OW60574   0.972  11.499   3.107
86226SOL    HW160575   0.943  11.459   3.189
86226SOL    HW260576   1.066  11.485   3.105
86227SOL     OW60577  10.639   5.168  14.617
86227SOL    HW160578  10.672   5.082  14.590
86227SOL    HW260579  10.706   5.230  14.587
86228SOL     OW60580  14.205   5.681  13.220
86228SOL    HW160581  14.250   5.694  13.137
86228SOL    HW260582  14.117   5.655  13.196
86229SOL     OW60583  13.712  12.558  12.443
86229SOL    HW160584  13.805  12.580  12.443
86229SOL    HW260585  13.707  12.468  12.473
86230SOL     OW60586   5.294   0.114   0.747
86230SOL    HW160587   5.276   0.156   0.663
86230SOL    HW260588   5.218   0.135   0.801
86231SOL     OW60589   0.020   9.736   9.574
86231SOL    HW160590   0.060   9.816   9.543
86231SOL    HW260591   0.082   9.701   9.638
86232SOL     OW60592   8.754   3.142   3.802
86232SOL    HW160593   8.680   3.154   3.861
86232SOL    HW260594   8.725   3.179   3.719
86233SOL     OW60595  12.387   3.536  14.493
86233SOL    HW160596  12.292   3.549  14.500
86233SOL    HW260597  12.421   3.561  14.579
86234SOL     OW60598   1.917   9.673   6.034
86234SOL    HW160599   1.884   9.741   5.975
86234SOL    HW260600   1.840   9.643   6.081
86235SOL     OW60601  11.466   8.779   9.241
86235SOL    HW160602  11.549   8.771   9.195
86235SOL    HW260603  11.485   8.833   9.317
86236SOL     OW60604  12.613   7.868   4.258
86236SOL    HW160605  12.702   7.883   4.290
86236SOL    HW260606  12.624   7.806   4.185
86237SOL     OW60607  12.500   1.259   3.371
86237SOL    HW160608  12.502   1.182   3.314
86237SOL    HW260609  12.424   1.309   3.341
86238SOL     OW60610   9.198   6.405  12.704
86238SOL    HW160611   9.157   6.491  12.696
86238SOL    HW260612   9.233   6.404  12.794
86239SOL     OW60613  11.351   5.157  10.546
86239SOL    HW160614  11.284   5.089  10.538
86239SOL    HW260615  11.394   5.159  10.461
86240SOL     OW60616  11.098   7.973   3.198
86240SOL    HW160617  11.161   7.915   3.240
86240SOL    HW260618  11.013   7.933   3.216
86241SOL     OW60619   8.752  10.740   5.311
86241SOL    HW160620   8.692  10.719   5.240
86241SOL    HW260621   8.840  10.727   5.274
86242SOL     OW60622   3.727   6.853  10.491
86242SOL    HW160623   3.748   6.760  10.501
86242SOL    HW260624   3.762   6.876  10.405
86243SOL     OW60625   1.793   9.543   2.464
86243SOL    HW160626   1.746   9.570   2.543
86243SOL    HW260627   1.885   9.560   2.484
86244SOL     OW60628   4.706  11.853  14.791
86244SOL    HW160629   4.756  11.864  14.872
86244SOL    HW260630   4.618  11.830  14.819
86245SOL     OW60631   2.063  12.413   2.716
86245SOL    HW160632   2.008  12.481   2.755
86245SOL    HW260633   2.007  12.336   2.711
86246SOL     OW60634  10.580   1.710   1.650
86246SOL    HW160635  10.588   1.759   1.568
86246SOL    HW260636  10.614   1.623   1.629
86247SOL     OW60637   8.752   3.551   0.012
86247SOL    HW160638   8.664   3.513   0.019
86247SOL    HW260639   8.810   3.487   0.054
86248SOL     OW60640  10.675   7.765  10.505
86248SOL    HW160641  10.749   7.754  10.564
86248SOL    HW260642  10.683   7.854  10.472
86249SOL     OW60643  13.755  14.879   1.483
86249SOL    HW160644  13.663  14.861   1.463
86249SOL    HW260645  13.773  14.829   1.562
86250SOL     OW60646   4.220   0.328  12.554
86250SOL    HW160647   4.166   0.251  12.570
86250SOL    HW260648   4.292   0.297  12.499
86251SOL     OW60649  13.433   7.458   2.081
86251SOL    HW160650  13.340   7.456   2.105
86251SOL    HW260651  13.460   7.367   2.086
86252SOL     OW60652   5.057   5.430  13.676
86252SOL    HW160653   5.059   5.364  13.746
86252SOL    HW260654   4.993   5.396  13.613
86253SOL     OW60655  10.299   5.703   1.286
86253SOL    HW160656  10.223   5.754   1.259
86253SOL    HW260657  10.359   5.768   1.323
86254SOL     OW60658   8.481  12.639   3.737
86254SOL    HW160659   8.538  12.635   3.813
86254SOL    HW260660   8.397  12.605   3.767
86255SOL     OW60661   2.061  12.656   5.831
86255SOL    HW160662   2.134  12.653   5.769
86255SOL    HW260663   1.988  12.694   5.781
86256SOL     OW60664  12.401  11.838   7.031
86256SOL    HW160665  12.373  11.897   6.962
86256SOL    HW260666  12.372  11.751   7.002
86257SOL     OW60667  11.238  13.477   0.304
86257SOL    HW160668  11.331  13.491   0.322
86257SOL    HW260669  11.197  13.560   0.327
86258SOL     OW60670  11.635   9.213   3.922
86258SOL    HW160671  11.682   9.284   3.879
86258SOL    HW260672  11.633   9.237   4.015
86259SOL     OW60673   5.129   1.274  11.454
86259SOL    HW160674   5.044   1.305  11.424
86259SOL    HW260675   5.142   1.191  11.407
86260SOL     OW60676   7.306   4.105   6.141
86260SOL    HW160677   7.314   4.187   6.191
86260SOL    HW260678   7.396   4.075   6.130
86261SOL     OW60679   5.056   2.919   9.484
86261SOL    HW160680   5.055   3.012   9.464
86261SOL    HW260681   4.968   2.901   9.518
86262SOL     OW60682   1.314   7.011   6.248
86262SOL    HW160683   1.336   6.983   6.337
86262SOL    HW260684   1.244   7.075   6.260
86263SOL     OW60685   0.622   3.435  10.685
86263SOL    HW160686   0.563   3.415  10.613
86263SOL    HW260687   0.709   3.436  10.646
86264SOL     OW60688  10.318  10.208  10.151
86264SOL    HW160689  10.235  10.166  10.127
86264SOL    HW260690  10.293  10.278  10.211
86265SOL     OW60691   7.476   3.571   6.553
86265SOL    HW160692   7.444   3.655   6.587
86265SOL    HW260693   7.486   3.586   6.459
86266SOL     OW60694   3.774  13.068   3.279
86266SOL    HW160695   3.766  13.164   3.276
86266SOL    HW260696   3.867  13.053   3.293
86267SOL     OW60697  11.996  10.946   8.673
86267SOL    HW160698  12.045  10.865   8.659
86267SOL    HW260699  11.969  10.973   8.586
86268SOL     OW60700   6.944   3.944  13.687
86268SOL    HW160701   6.866   4.001  13.683
86268SOL    HW260702   6.960   3.933  13.781
86269SOL     OW60703  13.737   0.022   7.395
86269SOL    HW160704  13.757   0.115   7.401
86269SOL    HW260705  13.820  14.858   7.415
86270SOL     OW60706   5.443   0.078   1.881
86270SOL    HW160707   5.362   0.032   1.861
86270SOL    HW260708   5.419   0.170   1.883
86271SOL     OW60709   2.931  10.698   5.062
86271SOL    HW160710   2.921  10.653   5.146
86271SOL    HW260711   3.021  10.679   5.035
86272SOL     OW60712   0.030   1.108   2.932
86272SOL    HW160713  14.854   1.030   2.933
86272SOL    HW260714   0.056   1.117   2.841
86273SOL     OW60715   5.622  13.738  13.861
86273SOL    HW160716   5.559  13.803  13.831
86273SOL    HW260717   5.582  13.654  13.838
86274SOL     OW60718   0.161   6.459   9.053
86274SOL    HW160719   0.099   6.493   8.988
86274SOL    HW260720   0.239   6.436   9.003
86275SOL     OW60721   9.248  11.088  10.938
86275SOL    HW160722   9.240  11.134  10.855
86275SOL    HW260723   9.340  11.101  10.964
86276SOL     OW60724  14.741   3.489   1.770
86276SOL    HW160725  14.701   3.519   1.688
86276SOL    HW260726  14.812   3.550   1.787
86277SOL     OW60727  10.339  10.111  12.163
86277SOL    HW160728  10.370  10.059  12.237
86277SOL    HW260729  10.360  10.059  12.086
86278SOL     OW60730   4.139   8.184   7.626
86278SOL    HW160731   4.098   8.268   7.642
86278SOL    HW260732   4.135   8.139   7.711
86279SOL     OW60733  12.154  14.773  10.557
86279SOL    HW160734  12.206  14.694  10.571
86279SOL    HW260735  12.187  14.808  10.474
86280SOL     OW60736   7.913   6.017   7.303
86280SOL    HW160737   7.844   6.076   7.272
86280SOL    HW260738   7.919   5.949   7.236
86281SOL     OW60739   5.598  11.041   2.383
86281SOL    HW160740   5.633  10.979   2.446
86281SOL    HW260741   5.586  10.990   2.303
86282SOL     OW60742  10.135  11.978   1.878
86282SOL    HW160743  10.165  12.020   1.958
86282SOL    HW260744  10.184  11.896   1.873
86283SOL     OW60745   0.357   0.159   4.402
86283SOL    HW160746   0.380   0.073   4.436
86283SOL    HW260747   0.287   0.142   4.338
86284SOL     OW60748   8.541   9.465  10.695
86284SOL    HW160749   8.530   9.399  10.764
86284SOL    HW260750   8.611   9.522  10.727
86285SOL     OW60751   3.626  13.984  11.769
86285SOL    HW160752   3.576  13.936  11.703
86285SOL    HW260753   3.709  14.004  11.726
86286SOL     OW60754   6.144   6.997  12.254
86286SOL    HW160755   6.122   7.076  12.205
86286SOL    HW260756   6.155   7.027  12.344
86287SOL     OW60757  11.180   1.736   6.198
86287SOL    HW160758  11.207   1.646   6.217
86287SOL    HW260759  11.143   1.732   6.110
86288SOL     OW60760   5.958  14.344   9.717
86288SOL    HW160761   5.969  14.368   9.809
86288SOL    HW260762   6.046  14.329   9.685
86289SOL     OW60763   4.191   7.622   2.769
86289SOL    HW160764   4.231   7.563   2.706
86289SOL    HW260765   4.252   7.623   2.843
86290SOL     OW60766   0.040   9.693   6.162
86290SOL    HW160767   0.006   9.610   6.127
86290SOL    HW260768   0.018   9.690   6.255
86291SOL     OW60769  11.714   8.357   8.985
86291SOL    HW160770  11.651   8.339   9.055
86291SOL    HW260771  11.704   8.283   8.925
86292SOL     OW60772  13.448   8.567   6.914
86292SOL    HW160773  13.501   8.528   6.984
86292SOL    HW260774  13.390   8.628   6.959
86293SOL     OW60775   9.430   1.593  13.956
86293SOL    HW160776   9.487   1.562  13.886
86293SOL    HW260777   9.370   1.521  13.971
86294SOL     OW60778   1.884  13.331  14.542
86294SOL    HW160779   1.829  13.272  14.490
86294SOL    HW260780   1.902  13.284  14.623
86295SOL     OW60781   3.129   3.490   2.121
86295SOL    HW160782   3.074   3.431   2.173
86295SOL    HW260783   3.091   3.577   2.136
86296SOL     OW60784   4.916   8.174   4.852
86296SOL    HW160785   4.986   8.125   4.809
86296SOL    HW260786   4.874   8.223   4.782
86297SOL     OW60787  10.693   3.013   1.248
86297SOL    HW160788  10.697   2.939   1.187
86297SOL    HW260789  10.746   2.986   1.323
86298SOL     OW60790  10.396   8.771   9.397
86298SOL    HW160791  10.483   8.809   9.383
86298SOL    HW260792  10.359   8.822   9.468
86299SOL     OW60793   4.692   3.350  10.318
86299SOL    HW160794   4.732   3.265  10.332
86299SOL    HW260795   4.655   3.374  10.403
86300SOL     OW60796  14.045   1.469   7.579
86300SOL    HW160797  14.104   1.475   7.654
86300SOL    HW260798  14.016   1.378   7.579
86301SOL     OW60799  14.646  12.076   7.213
86301SOL    HW160800  14.584  12.109   7.278
86301SOL    HW260801  14.647  11.981   7.227
86302SOL     OW60802  12.432   6.279   5.527
86302SOL    HW160803  12.358   6.276   5.588
86302SOL    HW260804  12.396   6.319   5.448
86303SOL     OW60805   1.126   5.934   4.178
86303SOL    HW160806   1.082   6.017   4.161
86303SOL    HW260807   1.219   5.956   4.177
86304SOL     OW60808   9.588  13.263   0.290
86304SOL    HW160809   9.595  13.305   0.204
86304SOL    HW260810   9.678  13.259   0.322
86305SOL     OW60811  10.396   8.264   9.908
86305SOL    HW160812  10.345   8.313   9.972
86305SOL    HW260813  10.366   8.173   9.918
86306SOL     OW60814  13.235   3.516   9.148
86306SOL    HW160815  13.295   3.450   9.112
86306SOL    HW260816  13.291   3.591   9.166
86307SOL     OW60817   4.294   1.198   6.099
86307SOL    HW160818   4.220   1.137   6.096
86307SOL    HW260819   4.371   1.143   6.081
86308SOL     OW60820  12.060  12.643   8.556
86308SOL    HW160821  11.998  12.570   8.551
86308SOL    HW260822  12.146  12.602   8.549
86309SOL     OW60823   7.451   5.838   1.317
86309SOL    HW160824   7.413   5.775   1.256
86309SOL    HW260825   7.443   5.922   1.272
86310SOL     OW60826   7.614   1.759  14.826
86310SOL    HW160827   7.578   1.671  14.841
86310SOL    HW260828   7.571   1.789  14.746
86311SOL     OW60829   4.970   1.225   7.989
86311SOL    HW160830   5.009   1.231   7.902
86311SOL    HW260831   4.971   1.132   8.009
86312SOL     OW60832   5.976  14.053  12.798
86312SOL    HW160833   6.035  14.008  12.858
86312SOL    HW260834   5.940  14.125  12.850
86313SOL     OW60835   4.269   3.053   4.118
86313SOL    HW160836   4.174   3.066   4.120
86313SOL    HW260837   4.302   3.104   4.193
86314SOL     OW60838   3.579  12.384   2.358
86314SOL    HW160839   3.536  12.441   2.421
86314SOL    HW260840   3.620  12.316   2.411
86315SOL     OW60841   5.150   4.825  10.435
86315SOL    HW160842   5.067   4.777  10.443
86315SOL    HW260843   5.192   4.788  10.358
86316SOL     OW60844  10.502  13.620   5.505
86316SOL    HW160845  10.436  13.552   5.492
86316SOL    HW260846  10.561  13.583   5.572
86317SOL     OW60847  10.346  14.773   8.880
86317SOL    HW160848  10.395  14.837   8.931
86317SOL    HW260849  10.284  14.735   8.942
86318SOL     OW60850   9.716  14.131  13.211
86318SOL    HW160851   9.752  14.175  13.133
86318SOL    HW260852   9.667  14.057  13.176
86319SOL     OW60853   1.670   9.449   6.488
86319SOL    HW160854   1.625   9.407   6.414
86319SOL    HW260855   1.718   9.522   6.449
86320SOL     OW60856  12.629   4.036   7.120
86320SOL    HW160857  12.568   3.974   7.159
86320SOL    HW260858  12.589   4.061   7.037
86321SOL     OW60859  12.640   0.327   7.901
86321SOL    HW160860  12.649   0.247   7.850
86321SOL    HW260861  12.684   0.308   7.984
86322SOL     OW60862   9.238   9.016   1.936
86322SOL    HW160863   9.280   8.973   2.011
86322SOL    HW260864   9.222   8.945   1.874
86323SOL     OW60865   8.623   7.083   3.474
86323SOL    HW160866   8.593   7.059   3.386
86323SOL    HW260867   8.587   7.170   3.490
86324SOL     OW60868   8.841  12.404  10.865
86324SOL    HW160869   8.801  12.363  10.942
86324SOL    HW260870   8.908  12.342  10.837
86325SOL     OW60871  12.968   7.504  13.564
86325SOL    HW160872  12.972   7.578  13.502
86325SOL    HW260873  12.876   7.477  13.562
86326SOL     OW60874   6.330  10.923   1.414
86326SOL    HW160875   6.317  10.905   1.508
86326SOL    HW260876   6.394  10.858   1.386
86327SOL     OW60877   9.362   9.214   8.268
86327SOL    HW160878   9.315   9.204   8.351
86327SOL    HW260879   9.301   9.261   8.211
86328SOL     OW60880   7.423   4.527   6.572
86328SOL    HW160881   7.428   4.577   6.490
86328SOL    HW260882   7.497   4.558   6.624
86329SOL     OW60883   7.614   1.376  14.137
86329SOL    HW160884   7.600   1.282  14.145
86329SOL    HW260885   7.657   1.386  14.052
86330SOL     OW60886   3.948   3.784  11.397
86330SOL    HW160887   3.933   3.834  11.317
86330SOL    HW260888   3.869   3.731  11.407
86331SOL     OW60889   9.146   3.151   7.739
86331SOL    HW160890   9.194   3.114   7.813
86331SOL    HW260891   9.210   3.154   7.668
86332SOL     OW60892  12.787   8.146   7.246
86332SOL    HW160893  12.804   8.236   7.272
86332SOL    HW260894  12.865   8.098   7.276
86333SOL     OW60895   7.166   4.120  14.221
86333SOL    HW160896   7.141   4.082  14.306
86333SOL    HW260897   7.253   4.158  14.237
86334SOL     OW60898  12.242  13.209  12.268
86334SOL    HW160899  12.256  13.199  12.174
86334SOL    HW260900  12.176  13.143  12.290
86335SOL     OW60901   3.326   8.932   1.172
86335SOL    HW160902   3.401   8.992   1.164
86335SOL    HW260903   3.281   8.960   1.252
86336SOL     OW60904   5.530   8.040   5.157
86336SOL    HW160905   5.517   7.949   5.183
86336SOL    HW260906   5.514   8.040   5.062
86337SOL     OW60907   9.254   4.455   9.485
86337SOL    HW160908   9.172   4.487   9.446
86337SOL    HW260909   9.269   4.514   9.559
86338SOL     OW60910  13.473   7.738   8.796
86338SOL    HW160911  13.436   7.713   8.880
86338SOL    HW260912  13.482   7.656   8.748
86339SOL     OW60913  12.373   6.271   7.281
86339SOL    HW160914  12.454   6.248   7.327
86339SOL    HW260915  12.370   6.211   7.206
86340SOL     OW60916  14.588   7.445  10.971
86340SOL    HW160917  14.564   7.369  10.918
86340SOL    HW260918  14.676   7.469  10.941
86341SOL     OW60919   8.629   0.895  10.428
86341SOL    HW160920   8.715   0.933  10.411
86341SOL    HW260921   8.613   0.909  10.521
86342SOL     OW60922   3.862  10.101   0.724
86342SOL    HW160923   3.939  10.111   0.779
86342SOL    HW260924   3.799  10.164   0.759
86343SOL     OW60925   3.419  12.744   4.940
86343SOL    HW160926   3.426  12.817   4.878
86343SOL    HW260927   3.388  12.785   5.021
86344SOL     OW60928  11.865   9.782  11.854
86344SOL    HW160929  11.770   9.789  11.864
86344SOL    HW260930  11.877   9.700  11.805
86345SOL     OW60931   2.288   0.811  10.304
86345SOL    HW160932   2.353   0.859  10.253
86345SOL    HW260933   2.313   0.828  10.395
86346SOL     OW60934  11.510   9.657   6.496
86346SOL    HW160935  11.522   9.672   6.402
86346SOL    HW260936  11.514   9.744   6.535
86347SOL     OW60937   2.146   6.189   2.902
86347SOL    HW160938   2.061   6.169   2.864
86347SOL    HW260939   2.206   6.195   2.827
86348SOL     OW60940   7.040   7.639  12.203
86348SOL    HW160941   6.963   7.654  12.257
86348SOL    HW260942   7.096   7.581  12.255
86349SOL     OW60943  13.690   3.666   9.947
86349SOL    HW160944  13.675   3.628   9.861
86349SOL    HW260945  13.668   3.596  10.008
86350SOL     OW60946  14.708   9.999  12.772
86350SOL    HW160947  14.724  10.030  12.683
86350SOL    HW260948  14.668   9.912  12.760
86351SOL     OW60949   5.500   1.989   9.754
86351SOL    HW160950   5.478   1.940   9.675
86351SOL    HW260951   5.563   1.933   9.800
86352SOL     OW60952  11.786   3.963  11.776
86352SOL    HW160953  11.740   3.949  11.859
86352SOL    HW260954  11.843   3.887  11.767
86353SOL     OW60955  12.692  14.653   1.233
86353SOL    HW160956  12.659  14.668   1.321
86353SOL    HW260957  12.747  14.729   1.215
86354SOL     OW60958   5.805   5.088  11.168
86354SOL    HW160959   5.847   5.032  11.103
86354SOL    HW260960   5.713   5.088  11.145
86355SOL     OW60961   6.616   8.364  13.010
86355SOL    HW160962   6.576   8.437  12.963
86355SOL    HW260963   6.566   8.357  13.091
86356SOL     OW60964   9.563   4.256  11.225
86356SOL    HW160965   9.635   4.202  11.258
86356SOL    HW260966   9.590   4.278  11.136
86357SOL     OW60967   5.238   2.810   6.028
86357SOL    HW160968   5.305   2.742   6.028
86357SOL    HW260969   5.195   2.802   6.113
86358SOL     OW60970   3.011   7.566   4.595
86358SOL    HW160971   2.980   7.612   4.672
86358SOL    HW260972   2.935   7.515   4.565
86359SOL     OW60973   4.566   7.034   3.481
86359SOL    HW160974   4.636   7.094   3.456
86359SOL    HW260975   4.605   6.980   3.550
86360SOL     OW60976   4.043   5.125   5.743
86360SOL    HW160977   4.102   5.051   5.729
86360SOL    HW260978   4.099   5.195   5.777
86361SOL     OW60979   2.033   8.848   7.866
86361SOL    HW160980   2.096   8.860   7.794
86361SOL    HW260981   2.013   8.936   7.896
86362SOL     OW60982   2.919   1.637   6.792
86362SOL    HW160983   2.850   1.572   6.781
86362SOL    HW260984   2.995   1.600   6.746
86363SOL     OW60985   2.751  13.935  14.622
86363SOL    HW160986   2.815  13.864  14.617
86363SOL    HW260987   2.768  13.988  14.544
86364SOL     OW60988   1.683  14.208   7.090
86364SOL    HW160989   1.652  14.271   7.155
86364SOL    HW260990   1.688  14.125   7.137
86365SOL     OW60991   9.602  12.477  12.745
86365SOL    HW160992   9.613  12.387  12.776
86365SOL    HW260993   9.572  12.468  12.655
86366SOL     OW60994  14.349  14.276   5.077
86366SOL    HW160995  14.303  14.313   5.153
86366SOL    HW260996  14.442  14.286   5.098
86367SOL     OW60997   3.160   3.650   5.859
86367SOL    HW160998   3.159   3.722   5.922
86367SOL    HW260999   3.204   3.685   5.782
86368SOL     OW61000   4.594   7.691   3.766
86368SOL    HW161001   4.664   7.666   3.826
86368SOL    HW261002   4.638   7.711   3.684
86369SOL     OW61003   3.376   0.846  12.910
86369SOL    HW161004   3.291   0.810  12.886
86369SOL    HW261005   3.406   0.892  12.831
86370SOL     OW61006  13.375  10.441   0.601
86370SOL    HW161007  13.312  10.491   0.549
86370SOL    HW261008  13.402  10.501   0.671
86371SOL     OW61009  13.881   1.511   0.343
86371SOL    HW161010  13.886   1.557   0.259
86371SOL    HW261011  13.844   1.425   0.321
86372SOL     OW61012   7.708   4.979   4.622
86372SOL    HW161013   7.677   5.052   4.676
86372SOL    HW261014   7.630   4.927   4.605
86373SOL     OW61015   4.628   2.039  11.020
86373SOL    HW161016   4.711   2.077  10.991
86373SOL    HW261017   4.653   1.977  11.088
86374SOL     OW61018   7.466  12.881   0.113
86374SOL    HW161019   7.490  12.931   0.035
86374SOL    HW261020   7.535  12.900   0.176
86375SOL     OW61021   0.322   7.089  14.637
86375SOL    HW161022   0.367   7.066  14.556
86375SOL    HW261023   0.343   7.018  14.698
86376SOL     OW61024   5.372   3.361  10.048
86376SOL    HW161025   5.298   3.370   9.988
86376SOL    HW261026   5.337   3.308  10.120
86377SOL     OW61027  12.939  10.087   2.432
86377SOL    HW161028  13.008  10.041   2.383
86377SOL    HW261029  12.981  10.112   2.514
86378SOL     OW61030   8.226   1.519  14.221
86378SOL    HW161031   8.263   1.439  14.183
86378SOL    HW261032   8.301   1.575  14.238
86379SOL     OW61033  13.403  10.481   7.851
86379SOL    HW161034  13.357  10.410   7.896
86379SOL    HW261035  13.334  10.545   7.831
86380SOL     OW61036   7.462   9.379   6.950
86380SOL    HW161037   7.552   9.389   6.980
86380SOL    HW261038   7.410   9.372   7.030
86381SOL     OW61039   9.693   0.388   9.638
86381SOL    HW161040   9.658   0.417   9.722
86381SOL    HW261041   9.751   0.458   9.610
86382SOL     OW61042   9.423   0.663   4.308
86382SOL    HW161043   9.458   0.693   4.392
86382SOL    HW261044   9.478   0.705   4.243
86383SOL     OW61045   9.275   6.135   6.553
86383SOL    HW161046   9.259   6.229   6.542
86383SOL    HW261047   9.192   6.100   6.583
86384SOL     OW61048  13.141   8.141  10.179
86384SOL    HW161049  13.166   8.199  10.107
86384SOL    HW261050  13.045   8.142  10.179
86385SOL     OW61051  10.588   8.181  12.127
86385SOL    HW161052  10.667   8.225  12.094
86385SOL    HW261053  10.616   8.140  12.209
86386SOL     OW61054  10.835   5.154  13.154
86386SOL    HW161055  10.863   5.125  13.067
86386SOL    HW261056  10.869   5.243  13.162
86387SOL     OW61057   7.245   2.612   6.501
86387SOL    HW161058   7.159   2.645   6.528
86387SOL    HW261059   7.226   2.552   6.429
86388SOL     OW61060  11.678   6.308  12.036
86388SOL    HW161061  11.676   6.234  12.097
86388SOL    HW261062  11.609   6.290  11.974
86389SOL     OW61063   1.583   2.818  10.985
86389SOL    HW161064   1.643   2.872  11.037
86389SOL    HW261065   1.636   2.786  10.912
86390SOL     OW61066   1.245   2.280   5.849
86390SOL    HW161067   1.195   2.261   5.769
86390SOL    HW261068   1.336   2.277   5.822
86391SOL     OW61069   4.777   6.699   7.944
86391SOL    HW161070   4.840   6.704   7.872
86391SOL    HW261071   4.825   6.730   8.021
86392SOL     OW61072   3.264  13.446   9.244
86392SOL    HW161073   3.197  13.514   9.252
86392SOL    HW261074   3.251  13.409   9.157
86393SOL     OW61075   2.230   1.980  12.328
86393SOL    HW161076   2.161   2.045  12.312
86393SOL    HW261077   2.198   1.900  12.287
86394SOL     OW61078   2.300   3.446  10.077
86394SOL    HW161079   2.232   3.485  10.021
86394SOL    HW261080   2.327   3.518  10.135
86395SOL     OW61081   8.133   6.111   2.054
86395SOL    HW161082   8.084   6.112   1.971
86395SOL    HW261083   8.153   6.018   2.068
86396SOL     OW61084   3.154  13.897   9.875
86396SOL    HW161085   3.079  13.953   9.892
86396SOL    HW261086   3.193  13.882   9.962
86397SOL     OW61087   4.211   2.076   6.592
86397SOL    HW161088   4.229   1.982   6.585
86397SOL    HW261089   4.203   2.092   6.686
86398SOL     OW61090  10.384   3.586   5.145
86398SOL    HW161091  10.435   3.664   5.122
86398SOL    HW261092  10.428   3.515   5.098
86399SOL     OW61093  12.397   6.071   8.265
86399SOL    HW161094  12.314   6.023   8.260
86399SOL    HW261095  12.461   6.011   8.226
86400SOL     OW61096   2.469   5.871   9.537
86400SOL    HW161097   2.491   5.938   9.601
86400SOL    HW261098   2.442   5.920   9.459
86401SOL     OW61099   7.359   6.999  12.561
86401SOL    HW161100   7.448   6.965  12.573
86401SOL    HW261101   7.335   6.972  12.473
86402SOL     OW61102   3.621   8.006   4.564
86402SOL    HW161103   3.598   7.932   4.507
86402SOL    HW261104   3.678   8.061   4.510
86403SOL     OW61105   0.272   2.183   0.866
86403SOL    HW161106   0.265   2.094   0.833
86403SOL    HW261107   0.211   2.233   0.813
86404SOL     OW61108   7.010   6.084   4.750
86404SOL    HW161109   6.937   6.145   4.757
86404SOL    HW261110   6.970   6.000   4.730
86405SOL     OW61111  13.650  11.849   3.540
86405SOL    HW161112  13.680  11.924   3.592
86405SOL    HW261113  13.614  11.888   3.461
86406SOL     OW61114   6.913   8.119   3.865
86406SOL    HW161115   6.831   8.140   3.910
86406SOL    HW261116   6.979   8.115   3.935
86407SOL     OW61117   1.935  13.003   2.817
86407SOL    HW161118   2.020  13.040   2.841
86407SOL    HW261119   1.948  12.970   2.727
86408SOL     OW61120   0.706   5.922   8.119
86408SOL    HW161121   0.795   5.894   8.139
86408SOL    HW261122   0.670   5.951   8.203
86409SOL     OW61123   1.467   5.146   3.364
86409SOL    HW161124   1.507   5.228   3.334
86409SOL    HW261125   1.471   5.151   3.460
86410SOL     OW61126  13.580  13.874   9.273
86410SOL    HW161127  13.502  13.835   9.235
86410SOL    HW261128  13.653  13.824   9.236
86411SOL     OW61129   2.991   2.708   1.724
86411SOL    HW161130   2.955   2.771   1.786
86411SOL    HW261131   2.928   2.636   1.723
86412SOL     OW61132   3.322   9.863   1.993
86412SOL    HW161133   3.279   9.795   1.941
86412SOL    HW261134   3.402   9.822   2.026
86413SOL     OW61135   1.891   7.075   2.698
86413SOL    HW161136   1.874   7.120   2.616
86413SOL    HW261137   1.908   7.144   2.761
86414SOL     OW61138   6.331   3.149   1.431
86414SOL    HW161139   6.235   3.150   1.423
86414SOL    HW261140   6.350   3.072   1.484
86415SOL     OW61141   3.811   2.389   0.039
86415SOL    HW161142   3.843   2.446   0.108
86415SOL    HW261143   3.890   2.345   0.006
86416SOL     OW61144   3.152   7.611  13.077
86416SOL    HW161145   3.092   7.676  13.039
86416SOL    HW261146   3.237   7.632  13.038
86417SOL     OW61147  11.169  11.982  10.866
86417SOL    HW161148  11.209  11.897  10.845
86417SOL    HW261149  11.174  11.987  10.961
86418SOL     OW61150   4.048   8.442   2.957
86418SOL    HW161151   3.982   8.402   2.900
86418SOL    HW261152   4.044   8.391   3.038
86419SOL     OW61153   0.738  11.667   9.114
86419SOL    HW161154   0.731  11.572   9.105
86419SOL    HW261155   0.681  11.701   9.045
86420SOL     OW61156   5.009   7.321  13.623
86420SOL    HW161157   5.009   7.227  13.640
86420SOL    HW261158   5.090   7.353  13.663
86421SOL     OW61159   0.436  10.401   6.461
86421SOL    HW161160   0.529  10.417   6.445
86421SOL    HW261161   0.433  10.313   6.498
86422SOL     OW61162  12.971   1.009  11.034
86422SOL    HW161163  13.038   1.071  11.004
86422SOL    HW261164  12.935   0.971  10.954
86423SOL     OW61165   3.759   5.548  14.759
86423SOL    HW161166   3.714   5.532  14.842
86423SOL    HW261167   3.700   5.606  14.710
86424SOL     OW61168   9.907  14.022  10.317
86424SOL    HW161169   9.981  14.000  10.261
86424SOL    HW261170   9.926  14.111  10.348
86425SOL     OW61171   0.454  11.048   1.827
86425SOL    HW161172   0.437  11.058   1.734
86425SOL    HW261173   0.550  11.051   1.834
86426SOL     OW61174  14.152   1.759  14.402
86426SOL    HW161175  14.134   1.850  14.377
86426SOL    HW261176  14.237   1.763  14.446
86427SOL     OW61177   9.408   1.796  13.652
86427SOL    HW161178   9.354   1.871  13.626
86427SOL    HW261179   9.358   1.753  13.721
86428SOL     OW61180   5.755   1.485   2.782
86428SOL    HW161181   5.748   1.569   2.736
86428SOL    HW261182   5.717   1.502   2.868
86429SOL     OW61183   9.683   2.165  11.161
86429SOL    HW161184   9.601   2.212  11.151
86429SOL    HW261185   9.659   2.073  11.159
86430SOL     OW61186   7.758  13.135   2.063
86430SOL    HW161187   7.666  13.163   2.065
86430SOL    HW261188   7.760  13.064   2.000
86431SOL     OW61189   3.545   8.879  13.019
86431SOL    HW161190   3.592   8.958  12.992
86431SOL    HW261191   3.555   8.876  13.114
86432SOL     OW61192  13.980   2.611  14.652
86432SOL    HW161193  13.960   2.553  14.725
86432SOL    HW261194  14.066   2.582  14.622
86433SOL     OW61195  10.530  12.324   8.015
86433SOL    HW161196  10.457  12.369   8.058
86433SOL    HW261197  10.569  12.271   8.084
86434SOL     OW61198  12.207   5.681   7.746
86434SOL    HW161199  12.127   5.629   7.753
86434SOL    HW261200  12.186   5.750   7.684
86435SOL     OW61201   4.761   2.334   7.977
86435SOL    HW161202   4.679   2.381   7.961
86435SOL    HW261203   4.764   2.322   8.071
86436SOL     OW61204   2.616   4.994   2.137
86436SOL    HW161205   2.576   5.071   2.095
86436SOL    HW261206   2.597   5.006   2.230
86437SOL     OW61207  13.108  11.002   8.893
86437SOL    HW161208  13.065  10.922   8.925
86437SOL    HW261209  13.131  11.051   8.972
86438SOL     OW61210  11.046   4.314   8.862
86438SOL    HW161211  11.079   4.235   8.819
86438SOL    HW261212  11.055   4.296   8.956
86439SOL     OW61213   3.818   4.516   8.374
86439SOL    HW161214   3.912   4.517   8.355
86439SOL    HW261215   3.777   4.537   8.290
86440SOL     OW61216   3.494  13.451   3.054
86440SOL    HW161217   3.548  13.412   3.122
86440SOL    HW261218   3.450  13.376   3.012
86441SOL     OW61219   7.480   8.977   0.593
86441SOL    HW161220   7.549   9.008   0.533
86441SOL    HW261221   7.524   8.913   0.648
86442SOL     OW61222   6.662   6.070   4.983
86442SOL    HW161223   6.666   6.146   5.041
86442SOL    HW261224   6.610   6.099   4.908
86443SOL     OW61225  11.273   8.414   8.403
86443SOL    HW161226  11.193   8.365   8.423
86443SOL    HW261227  11.249   8.505   8.418
86444SOL     OW61228   7.074   1.062   7.278
86444SOL    HW161229   6.993   1.111   7.266
86444SOL    HW261230   7.093   1.025   7.192
86445SOL     OW61231   2.840  11.916   3.784
86445SOL    HW161232   2.887  11.836   3.759
86445SOL    HW261233   2.910  11.980   3.801
86446SOL     OW61234   1.328   5.498   7.201
86446SOL    HW161235   1.381   5.516   7.279
86446SOL    HW261236   1.255   5.446   7.233
86447SOL     OW61237   2.921   3.889   1.124
86447SOL    HW161238   3.008   3.889   1.164
86447SOL    HW261239   2.870   3.827   1.176
86448SOL     OW61240   7.969   1.445   4.260
86448SOL    HW161241   8.021   1.384   4.208
86448SOL    HW261242   7.983   1.418   4.351
86449SOL     OW61243   0.397   2.597   8.216
86449SOL    HW161244   0.427   2.671   8.163
86449SOL    HW261245   0.311   2.626   8.250
86450SOL     OW61246   6.295   9.440   1.215
86450SOL    HW161247   6.209   9.411   1.246
86450SOL    HW261248   6.291   9.429   1.120
86451SOL     OW61249  13.074  14.638   1.764
86451SOL    HW161250  13.083  14.652   1.858
86451SOL    HW261251  13.108  14.718   1.724
86452SOL     OW61252   7.140   4.293   3.165
86452SOL    HW161253   7.187   4.215   3.196
86452SOL    HW261254   7.153   4.293   3.070
86453SOL     OW61255   8.036  14.325   7.925
86453SOL    HW161256   7.942  14.307   7.929
86453SOL    HW261257   8.057  14.357   8.012
86454SOL     OW61258  14.541   3.025   6.753
86454SOL    HW161259  14.560   2.979   6.835
86454SOL    HW261260  14.470   3.085   6.776
86455SOL     OW61261   0.504   9.989   8.968
86455SOL    HW161262   0.546  10.063   8.924
86455SOL    HW261263   0.530   9.913   8.916
86456SOL     OW61264   7.110   9.692   4.669
86456SOL    HW161265   7.094   9.624   4.734
86456SOL    HW261266   7.179   9.747   4.707
86457SOL     OW61267  12.454  10.370   2.545
86457SOL    HW161268  12.523  10.329   2.598
86457SOL    HW261269  12.383  10.388   2.608
86458SOL     OW61270   1.547   1.142  11.497
86458SOL    HW161271   1.482   1.168  11.432
86458SOL    HW261272   1.524   1.051  11.518
86459SOL     OW61273   0.864  13.553   6.908
86459SOL    HW161274   0.922  13.506   6.849
86459SOL    HW261275   0.778  13.549   6.866
86460SOL     OW61276   5.794   4.252   4.732
86460SOL    HW161277   5.797   4.254   4.828
86460SOL    HW261278   5.828   4.337   4.705
86461SOL     OW61279   5.978   7.301   3.348
86461SOL    HW161280   6.012   7.390   3.349
86461SOL    HW261281   5.890   7.310   3.312
86462SOL     OW61282   6.173   3.715   2.988
86462SOL    HW161283   6.135   3.638   3.030
86462SOL    HW261284   6.133   3.717   2.901
86463SOL     OW61285  13.798   6.322  10.352
86463SOL    HW161286  13.839   6.345  10.435
86463SOL    HW261287  13.853   6.252  10.317
86464SOL     OW61288   8.382  12.648   0.194
86464SOL    HW161289   8.401  12.598   0.115
86464SOL    HW261290   8.458  12.633   0.251
86465SOL     OW61291   2.393  11.862   4.882
86465SOL    HW161292   2.385  11.946   4.927
86465SOL    HW261293   2.334  11.870   4.807
86466SOL     OW61294  11.094   3.275  14.091
86466SOL    HW161295  11.143   3.249  14.013
86466SOL    HW261296  11.045   3.196  14.114
86467SOL     OW61297   6.957  13.133   9.227
86467SOL    HW161298   7.027  13.067   9.225
86467SOL    HW261299   6.974  13.188   9.150
86468SOL     OW61300   8.915  10.250  14.827
86468SOL    HW161301   8.952  10.230  14.742
86468SOL    HW261302   8.835  10.197  14.832
86469SOL     OW61303  10.359  11.906   0.038
86469SOL    HW161304  10.374  11.998   0.059
86469SOL    HW261305  10.266  11.892   0.058
86470SOL     OW61306   5.862   2.110   3.447
86470SOL    HW161307   5.933   2.137   3.506
86470SOL    HW261308   5.905   2.051   3.384
86471SOL     OW61309   1.784   2.172   3.382
86471SOL    HW161310   1.852   2.234   3.358
86471SOL    HW261311   1.753   2.203   3.467
86472SOL     OW61312   4.736   3.068   2.143
86472SOL    HW161313   4.730   2.977   2.113
86472SOL    HW261314   4.687   3.118   2.078
86473SOL     OW61315   7.614  13.767   7.161
86473SOL    HW161316   7.551  13.748   7.230
86473SOL    HW261317   7.566  13.821   7.098
86474SOL     OW61318   8.796   1.414   9.899
86474SOL    HW161319   8.792   1.490   9.956
86474SOL    HW261320   8.876   1.427   9.847
86475SOL     OW61321   3.377   4.060  11.793
86475SOL    HW161322   3.331   3.981  11.765
86475SOL    HW261323   3.324   4.095  11.864
86476SOL     OW61324   1.782   6.982  11.001
86476SOL    HW161325   1.827   7.064  10.976
86476SOL    HW261326   1.737   7.003  11.083
86477SOL     OW61327  11.217   9.760   5.125
86477SOL    HW161328  11.164   9.840   5.126
86477SOL    HW261329  11.305   9.789   5.145
86478SOL     OW61330  11.669   0.713   1.005
86478SOL    HW161331  11.644   0.765   0.929
86478SOL    HW261332  11.641   0.624   0.983
86479SOL     OW61333   0.637   5.863  10.842
86479SOL    HW161334   0.706   5.828  10.785
86479SOL    HW261335   0.603   5.939  10.795
86480SOL     OW61336   0.938   5.037   1.149
86480SOL    HW161337   1.024   5.031   1.107
86480SOL    HW261338   0.888   4.965   1.111
86481SOL     OW61339   1.579   4.674   7.183
86481SOL    HW161340   1.627   4.757   7.182
86481SOL    HW261341   1.556   4.661   7.275
86482SOL     OW61342   1.504   3.497   0.910
86482SOL    HW161343   1.468   3.495   0.821
86482SOL    HW261344   1.431   3.529   0.963
86483SOL     OW61345   6.815   7.348   6.370
86483SOL    HW161346   6.884   7.334   6.436
86483SOL    HW261347   6.860   7.341   6.286
86484SOL     OW61348   3.773   5.271   3.070
86484SOL    HW161349   3.768   5.362   3.099
86484SOL    HW261350   3.716   5.267   2.993
86485SOL     OW61351   4.040   5.499  12.885
86485SOL    HW161352   3.969   5.506  12.948
86485SOL    HW261353   3.999   5.460  12.808
86486SOL     OW61354   8.310   1.486   2.418
86486SOL    HW161355   8.230   1.505   2.368
86486SOL    HW261356   8.336   1.398   2.388
86487SOL     OW61357   6.878   3.162  11.654
86487SOL    HW161358   6.949   3.105  11.683
86487SOL    HW261359   6.920   3.247  11.640
86488SOL     OW61360   4.637   7.118   0.304
86488SOL    HW161361   4.568   7.172   0.343
86488SOL    HW261362   4.700   7.105   0.375
86489SOL     OW61363   4.511   1.209   3.605
86489SOL    HW161364   4.445   1.237   3.669
86489SOL    HW261365   4.535   1.121   3.632
86490SOL     OW61366   7.359   8.762  10.707
86490SOL    HW161367   7.270   8.792  10.687
86490SOL    HW261368   7.360   8.671  10.677
86491SOL     OW61369   1.114   4.503   3.078
86491SOL    HW161370   1.160   4.456   3.148
86491SOL    HW261371   1.171   4.495   3.002
86492SOL     OW61372  10.656  11.556  12.893
86492SOL    HW161373  10.583  11.584  12.948
86492SOL    HW261374  10.616  11.506  12.823
86493SOL     OW61375   6.198   5.059   8.866
86493SOL    HW161376   6.158   5.139   8.831
86493SOL    HW261377   6.240   5.018   8.791
86494SOL     OW61378   8.250  10.805   4.423
86494SOL    HW161379   8.186  10.734   4.433
86494SOL    HW261380   8.197  10.884   4.425
86495SOL     OW61381  11.462   3.858   9.070
86495SOL    HW161382  11.442   3.773   9.031
86495SOL    HW261383  11.525   3.839   9.140
86496SOL     OW61384   3.272   6.914   9.803
86496SOL    HW161385   3.240   6.925   9.713
86496SOL    HW261386   3.326   6.991   9.818
86497SOL     OW61387   2.998   4.768   8.435
86497SOL    HW161388   2.981   4.754   8.342
86497SOL    HW261389   3.041   4.687   8.464
86498SOL     OW61390   5.199  11.641  14.686
86498SOL    HW161391   5.133  11.636  14.755
86498SOL    HW261392   5.175  11.572  14.624
86499SOL     OW61393   7.378  12.445   9.584
86499SOL    HW161394   7.471  12.436   9.604
86499SOL    HW261395   7.343  12.356   9.594
86500SOL     OW61396   7.394   0.636   1.572
86500SOL    HW161397   7.362   0.705   1.631
86500SOL    HW261398   7.408   0.681   1.489
86501SOL     OW61399   7.674   7.021   9.422
86501SOL    HW161400   7.672   6.974   9.505
86501SOL    HW261401   7.610   6.976   9.367
86502SOL     OW61402   3.187   9.989   8.715
86502SOL    HW161403   3.253  10.058   8.714
86502SOL    HW261404   3.229   9.914   8.674
86503SOL     OW61405   6.781  13.591  11.401
86503SOL    HW161406   6.706  13.606  11.458
86503SOL    HW261407   6.810  13.679  11.376
86504SOL     OW61408   1.155  10.181   1.318
86504SOL    HW161409   1.154  10.239   1.241
86504SOL    HW261410   1.226  10.215   1.372
86505SOL     OW61411  13.795  10.732   2.357
86505SOL    HW161412  13.823  10.757   2.269
86505SOL    HW261413  13.828  10.800   2.414
86506SOL     OW61414   5.042   4.737   6.613
86506SOL    HW161415   5.094   4.718   6.535
86506SOL    HW261416   4.976   4.799   6.584
86507SOL     OW61417   3.574   0.888   9.599
86507SOL    HW161418   3.568   0.939   9.519
86507SOL    HW261419   3.668   0.884   9.618
86508SOL     OW61420   5.290   9.915   1.857
86508SOL    HW161421   5.382   9.924   1.883
86508SOL    HW261422   5.270   9.822   1.871
86509SOL     OW61423   4.356   6.423   4.342
86509SOL    HW161424   4.272   6.469   4.333
86509SOL    HW261425   4.367   6.411   4.436
86510SOL     OW61426   3.702   4.241   6.771
86510SOL    HW161427   3.786   4.220   6.811
86510SOL    HW261428   3.639   4.229   6.843
86511SOL     OW61429   9.225  13.428  13.722
86511SOL    HW161430   9.256  13.415  13.812
86511SOL    HW261431   9.295  13.477  13.680
86512SOL     OW61432  12.786  11.398  11.886
86512SOL    HW161433  12.786  11.302  11.893
86512SOL    HW261434  12.877  11.423  11.898
86513SOL     OW61435  10.778   5.747  11.336
86513SOL    HW161436  10.684   5.730  11.330
86513SOL    HW261437  10.796   5.811  11.267
86514SOL     OW61438  12.188  12.294  11.389
86514SOL    HW161439  12.135  12.215  11.374
86514SOL    HW261440  12.129  12.367  11.370
86515SOL     OW61441   8.646   2.611   6.044
86515SOL    HW161442   8.709   2.670   6.004
86515SOL    HW261443   8.561   2.645   6.016
86516SOL     OW61444   0.310   0.593   2.606
86516SOL    HW161445   0.258   0.544   2.669
86516SOL    HW261446   0.395   0.604   2.649
86517SOL     OW61447  11.444  10.704   2.149
86517SOL    HW161448  11.463  10.764   2.222
86517SOL    HW261449  11.394  10.633   2.189
86518SOL     OW61450  11.312   2.954  11.883
86518SOL    HW161451  11.233   2.929  11.931
86518SOL    HW261452  11.294   3.042  11.851
86519SOL     OW61453   0.092   2.695  11.492
86519SOL    HW161454   0.059   2.785  11.484
86519SOL    HW261455   0.113   2.686  11.585
86520SOL     OW61456  13.564   4.988   8.490
86520SOL    HW161457  13.489   4.975   8.432
86520SOL    HW261458  13.635   4.939   8.448
86521SOL     OW61459  12.990   1.449   3.836
86521SOL    HW161460  13.047   1.460   3.912
86521SOL    HW261461  12.913   1.403   3.871
86522SOL     OW61462   2.956   4.619   5.117
86522SOL    HW161463   3.015   4.647   5.187
86522SOL    HW261464   2.881   4.678   5.124
86523SOL     OW61465  13.863   9.969  13.100
86523SOL    HW161466  13.907   9.910  13.039
86523SOL    HW261467  13.875  10.056  13.062
86524SOL     OW61468   1.943  12.301   4.373
86524SOL    HW161469   1.963  12.268   4.461
86524SOL    HW261470   1.997  12.380   4.365
86525SOL     OW61471  10.690  12.971  11.166
86525SOL    HW161472  10.619  12.912  11.140
86525SOL    HW261473  10.770  12.922  11.145
86526SOL     OW61474   4.632   9.588  13.477
86526SOL    HW161475   4.675   9.506  13.502
86526SOL    HW261476   4.704   9.650  13.468
86527SOL     OW61477   0.478   2.966   2.171
86527SOL    HW161478   0.569   2.995   2.169
86527SOL    HW261479   0.438   3.015   2.243
86528SOL     OW61480  14.879  11.478   1.886
86528SOL    HW161481  14.823  11.403   1.865
86528SOL    HW261482   0.084  11.440   1.905
86529SOL     OW61483   1.971   2.044   7.852
86529SOL    HW161484   2.059   2.066   7.822
86529SOL    HW261485   1.921   2.029   7.772
86530SOL     OW61486   9.976   2.807  14.722
86530SOL    HW161487   9.919   2.863  14.775
86530SOL    HW261488   9.917   2.746  14.679
86531SOL     OW61489  12.162  12.193   9.990
86531SOL    HW161490  12.124  12.242   9.917
86531SOL    HW261491  12.088  12.174  10.047
86532SOL     OW61492   6.268  14.092  13.153
86532SOL    HW161493   6.185  14.111  13.196
86532SOL    HW261494   6.326  14.163  13.181
86533SOL     OW61495   9.961  13.840   4.323
86533SOL    HW161496   9.972  13.885   4.239
86533SOL    HW261497  10.009  13.895   4.386
86534SOL     OW61498   5.788   1.666  13.502
86534SOL    HW161499   5.712   1.704  13.456
86534SOL    HW261500   5.781   1.572  13.485
86535SOL     OW61501   7.596   5.090  10.911
86535SOL    HW161502   7.503   5.071  10.906
86535SOL    HW261503   7.614   5.094  11.005
86536SOL     OW61504  12.175   1.169   0.897
86536SOL    HW161505  12.140   1.095   0.848
86536SOL    HW261506  12.256   1.191   0.852
86537SOL     OW61507   2.814  10.648   2.289
86537SOL    HW161508   2.867  10.597   2.227
86537SOL    HW261509   2.752  10.695   2.234
86538SOL     OW61510   8.859  13.122  12.855
86538SOL    HW161511   8.819  13.120  12.768
86538SOL    HW261512   8.953  13.126  12.838
86539SOL     OW61513  11.892   0.325   1.958
86539SOL    HW161514  11.855   0.354   1.874
86539SOL    HW261515  11.983   0.354   1.955
86540SOL     OW61516   6.755   8.719   5.493
86540SOL    HW161517   6.702   8.684   5.422
86540SOL    HW261518   6.839   8.676   5.485
86541SOL     OW61519   8.501   7.931   4.202
86541SOL    HW161520   8.461   7.933   4.289
86541SOL    HW261521   8.550   7.848   4.200
86542SOL     OW61522   8.597  11.794   5.795
86542SOL    HW161523   8.539  11.868   5.809
86542SOL    HW261524   8.685  11.832   5.793
86543SOL     OW61525   8.627   5.909  11.410
86543SOL    HW161526   8.696   5.853  11.374
86543SOL    HW261527   8.662   5.940  11.493
86544SOL     OW61528   3.215  12.074   1.411
86544SOL    HW161529   3.273  12.100   1.339
86544SOL    HW261530   3.166  12.000   1.376
86545SOL     OW61531   3.090   2.196   4.593
86545SOL    HW161532   3.033   2.123   4.570
86545SOL    HW261533   3.164   2.155   4.637
86546SOL     OW61534  14.132  12.342   2.618
86546SOL    HW161535  14.226  12.359   2.627
86546SOL    HW261536  14.091  12.397   2.685
86547SOL     OW61537   1.999   2.171   5.078
86547SOL    HW161538   2.042   2.198   4.996
86547SOL    HW261539   2.071   2.156   5.139
86548SOL     OW61540   5.234  10.284  12.188
86548SOL    HW161541   5.206  10.345  12.119
86548SOL    HW261542   5.159  10.225  12.199
86549SOL     OW61543   5.084  13.157   1.970
86549SOL    HW161544   5.058  13.082   1.916
86549SOL    HW261545   5.109  13.225   1.906
86550SOL     OW61546   4.783   0.884   4.653
86550SOL    HW161547   4.780   0.978   4.671
86550SOL    HW261548   4.706   0.868   4.599
86551SOL     OW61549   2.574   1.546  14.281
86551SOL    HW161550   2.509   1.491  14.326
86551SOL    HW261551   2.597   1.613  14.345
86552SOL     OW61552   0.497   1.990   9.996
86552SOL    HW161553   0.563   2.045  10.039
86552SOL    HW261554   0.426   2.049   9.973
86553SOL     OW61555  11.941   7.528  12.570
86553SOL    HW161556  11.849   7.554  12.567
86553SOL    HW261557  11.961   7.521  12.663
86554SOL     OW61558   4.179  12.258  14.239
86554SOL    HW161559   4.150  12.171  14.209
86554SOL    HW261560   4.266  12.242  14.276
86555SOL     OW61561   0.909   0.963   4.297
86555SOL    HW161562   0.878   1.031   4.236
86555SOL    HW261563   1.004   0.961   4.284
86556SOL     OW61564   4.994  13.122  13.930
86556SOL    HW161565   4.986  13.028  13.917
86556SOL    HW261566   5.033  13.131  14.017
86557SOL     OW61567   3.205   9.683   7.761
86557SOL    HW161568   3.133   9.670   7.699
86557SOL    HW261569   3.209   9.778   7.774
86558SOL     OW61570   4.698   8.241  14.551
86558SOL    HW161571   4.693   8.316  14.609
86558SOL    HW261572   4.767   8.186  14.588
86559SOL     OW61573   4.980   6.146  13.147
86559SOL    HW161574   5.052   6.162  13.208
86559SOL    HW261575   4.905   6.128  13.203
86560SOL     OW61576   7.058   1.766   9.366
86560SOL    HW161577   7.145   1.731   9.384
86560SOL    HW261578   7.073   1.853   9.330
86561SOL     OW61579   0.633  13.505  10.271
86561SOL    HW161580   0.702  13.500  10.337
86561SOL    HW261581   0.551  13.505  10.320
86562SOL     OW61582  12.204  12.858   1.997
86562SOL    HW161583  12.214  12.899   1.910
86562SOL    HW261584  12.127  12.803   1.989
86563SOL     OW61585  10.831   4.530   1.016
86563SOL    HW161586  10.746   4.489   1.034
86563SOL    HW261587  10.830   4.547   0.922
86564SOL     OW61588  10.470   6.057   4.926
86564SOL    HW161589  10.475   6.013   4.841
86564SOL    HW261590  10.508   6.143   4.911
86565SOL     OW61591  12.854   4.019  12.850
86565SOL    HW161592  12.801   3.943  12.876
86565SOL    HW261593  12.943   3.996  12.876
86566SOL     OW61594   7.584   7.962   4.743
86566SOL    HW161595   7.503   7.915   4.721
86566SOL    HW261596   7.604   7.935   4.833
86567SOL     OW61597   2.005   9.959   0.941
86567SOL    HW161598   1.962   9.994   0.863
86567SOL    HW261599   1.996  10.028   1.007
86568SOL     OW61600  13.523  12.012  11.652
86568SOL    HW161601  13.496  12.027  11.561
86568SOL    HW261602  13.616  11.993  11.647
86569SOL     OW61603   1.856   9.650   0.416
86569SOL    HW161604   1.801   9.573   0.397
86569SOL    HW261605   1.930   9.641   0.356
86570SOL     OW61606  14.208   2.558  10.214
86570SOL    HW161607  14.203   2.631  10.153
86570SOL    HW261608  14.272   2.585  10.279
86571SOL     OW61609   1.995   3.021   4.758
86571SOL    HW161610   1.943   2.947   4.730
86571SOL    HW261611   1.939   3.068   4.820
86572SOL     OW61612  14.735  10.413  11.155
86572SOL    HW161613  14.813  10.364  11.180
86572SOL    HW261614  14.721  10.474  11.228
86573SOL     OW61615   0.287  13.246   9.142
86573SOL    HW161616   0.231  13.204   9.076
86573SOL    HW261617   0.258  13.337   9.143
86574SOL     OW61618   2.836   4.103   4.045
86574SOL    HW161619   2.749   4.142   4.037
86574SOL    HW261620   2.896   4.172   4.018
86575SOL     OW61621  13.290   0.413   3.607
86575SOL    HW161622  13.266   0.486   3.550
86575SOL    HW261623  13.233   0.341   3.579
86576SOL     OW61624   5.010   1.533  11.666
86576SOL    HW161625   5.037   1.455  11.715
86576SOL    HW261626   4.951   1.580  11.726
86577SOL     OW61627  14.784   3.485  10.255
86577SOL    HW161628  14.863   3.539  10.246
86577SOL    HW261629  14.803   3.427  10.329
86578SOL     OW61630  14.651   0.927   5.545
86578SOL    HW161631  14.692   0.939   5.631
86578SOL    HW261632  14.723   0.930   5.483
86579SOL     OW61633  12.382   0.935  13.013
86579SOL    HW161634  12.287   0.919  13.018
86579SOL    HW261635  12.420   0.879  13.081
86580SOL     OW61636   5.513  11.106  12.326
86580SOL    HW161637   5.517  11.194  12.288
86580SOL    HW261638   5.540  11.048  12.255
86581SOL     OW61639   3.830  12.530   6.673
86581SOL    HW161640   3.753  12.555   6.723
86581SOL    HW261641   3.810  12.557   6.583
86582SOL     OW61642   1.321  14.482   9.797
86582SOL    HW161643   1.245  14.528   9.832
86582SOL    HW261644   1.396  14.521   9.841
86583SOL     OW61645   2.826   7.237   9.092
86583SOL    HW161646   2.888   7.300   9.054
86583SOL    HW261647   2.882   7.172   9.134
86584SOL     OW61648   4.412   9.210  12.718
86584SOL    HW161649   4.472   9.283  12.730
86584SOL    HW261650   4.468   9.133  12.707
86585SOL     OW61651   1.103   1.135  10.902
86585SOL    HW161652   1.135   1.154  10.814
86585SOL    HW261653   1.177   1.154  10.960
86586SOL     OW61654   2.511  13.411   8.956
86586SOL    HW161655   2.556  13.328   8.973
86586SOL    HW261656   2.475  13.436   9.041
86587SOL     OW61657  10.541   5.739  13.050
86587SOL    HW161658  10.513   5.790  12.973
86587SOL    HW261659  10.614   5.789  13.087
86588SOL     OW61660   2.672   7.130  12.069
86588SOL    HW161661   2.731   7.126  12.145
86588SOL    HW261662   2.664   7.039  12.040
86589SOL     OW61663   6.261   8.817  10.516
86589SOL    HW161664   6.220   8.903  10.509
86589SOL    HW261665   6.217   8.764  10.450
86590SOL     OW61666   6.085  12.641   3.204
86590SOL    HW161667   6.178  12.657   3.221
86590SOL    HW261668   6.045  12.728   3.202
86591SOL     OW61669  11.887   7.768   3.547
86591SOL    HW161670  11.935   7.771   3.629
86591SOL    HW261671  11.805   7.724   3.569
86592SOL     OW61672   7.578  13.210   7.233
86592SOL    HW161673   7.524  13.135   7.257
86592SOL    HW261674   7.567  13.273   7.305
86593SOL     OW61675  12.441  11.470   9.125
86593SOL    HW161676  12.426  11.512   9.041
86593SOL    HW261677  12.406  11.532   9.190
86594SOL     OW61678  10.190   4.082   8.710
86594SOL    HW161679  10.260   4.018   8.694
86594SOL    HW261680  10.132   4.074   8.635
86595SOL     OW61681   8.965   9.100  13.566
86595SOL    HW161682   8.963   9.195  13.567
86595SOL    HW261683   9.052   9.077  13.599
86596SOL     OW61684   2.051  10.635   3.516
86596SOL    HW161685   1.968  10.628   3.563
86596SOL    HW261686   2.048  10.565   3.450
86597SOL     OW61687   8.142   4.005  12.064
86597SOL    HW161688   8.125   3.933  12.124
86597SOL    HW261689   8.234   4.028  12.081
86598SOL     OW61690   4.572   8.903  14.187
86598SOL    HW161691   4.501   8.952  14.145
86598SOL    HW261692   4.535   8.873  14.270
86599SOL     OW61693   4.293  13.415   9.949
86599SOL    HW161694   4.337  13.481  10.002
86599SOL    HW261695   4.360  13.384   9.888
86600SOL     OW61696   8.889  13.762   6.945
86600SOL    HW161697   8.819  13.827   6.944
86600SOL    HW261698   8.965  13.810   6.980
86601SOL     OW61699   6.551  14.878   7.979
86601SOL    HW161700   6.545   0.021   8.071
86601SOL    HW261701   6.461  14.872   7.949
86602SOL     OW61702   8.677   8.267   1.716
86602SOL    HW161703   8.613   8.328   1.752
86602SOL    HW261704   8.742   8.323   1.673
86603SOL     OW61705   6.405   5.731   0.308
86603SOL    HW161706   6.371   5.820   0.318
86603SOL    HW261707   6.492   5.735   0.347
86604SOL     OW61708   8.072  13.014  11.636
86604SOL    HW161709   7.976  13.011  11.643
86604SOL    HW261710   8.098  13.080  11.700
86605SOL     OW61711   4.181   8.544   7.511
86605SOL    HW161712   4.277   8.547   7.517
86605SOL    HW261713   4.153   8.506   7.594
86606SOL     OW61714  12.339   3.034   4.882
86606SOL    HW161715  12.310   3.125   4.876
86606SOL    HW261716  12.429   3.035   4.848
86607SOL     OW61717   5.293   4.173   1.488
86607SOL    HW161718   5.226   4.116   1.450
86607SOL    HW261719   5.339   4.209   1.412
86608SOL     OW61720   7.452  13.986   0.622
86608SOL    HW161721   7.543  13.995   0.592
86608SOL    HW261722   7.449  14.034   0.705
86609SOL     OW61723   5.124   4.370  11.731
86609SOL    HW161724   5.035   4.339  11.749
86609SOL    HW261725   5.135   4.445  11.788
86610SOL     OW61726   5.291  11.914   4.175
86610SOL    HW161727   5.280  11.840   4.235
86610SOL    HW261728   5.369  11.892   4.125
86611SOL     OW61729  12.975  12.865   8.398
86611SOL    HW161730  12.895  12.870   8.345
86611SOL    HW261731  13.025  12.794   8.360
86612SOL     OW61732   5.347  13.481   3.420
86612SOL    HW161733   5.399  13.559   3.401
86612SOL    HW261734   5.298  13.503   3.499
86613SOL     OW61735  12.912  13.044  11.686
86613SOL    HW161736  13.007  13.035  11.677
86613SOL    HW261737  12.894  13.133  11.655
86614SOL     OW61738   4.571  12.566   2.841
86614SOL    HW161739   4.480  12.538   2.845
86614SOL    HW261740   4.588  12.578   2.747
86615SOL     OW61741  13.307  11.839   6.569
86615SOL    HW161742  13.400  11.820   6.557
86615SOL    HW261743  13.262  11.769   6.522
86616SOL     OW61744   9.060  11.381   7.063
86616SOL    HW161745   9.048  11.470   7.029
86616SOL    HW261746   9.043  11.389   7.157
86617SOL     OW61747   5.981  11.224   1.596
86617SOL    HW161748   5.974  11.225   1.692
86617SOL    HW261749   5.979  11.131   1.573
86618SOL     OW61750   4.958   3.738  12.829
86618SOL    HW161751   5.016   3.802  12.787
86618SOL    HW261752   4.871   3.757  12.794
86619SOL     OW61753  10.409   5.761   4.686
86619SOL    HW161754  10.331   5.793   4.640
86619SOL    HW261755  10.424   5.674   4.651
86620SOL     OW61756   7.761  13.668   5.290
86620SOL    HW161757   7.743  13.740   5.230
86620SOL    HW261758   7.785  13.595   5.234
86621SOL     OW61759  11.500   8.842   4.501
86621SOL    HW161760  11.465   8.792   4.427
86621SOL    HW261761  11.422   8.879   4.543
86622SOL     OW61762   7.215   5.881  12.821
86622SOL    HW161763   7.137   5.895  12.768
86622SOL    HW261764   7.200   5.798  12.865
86623SOL     OW61765  13.360  10.470  11.531
86623SOL    HW161766  13.290  10.431  11.584
86623SOL    HW261767  13.316  10.538  11.480
86624SOL     OW61768   7.092   4.370   5.900
86624SOL    HW161769   7.123   4.279   5.906
86624SOL    HW261770   7.038   4.382   5.978
86625SOL     OW61771   9.163  14.682   6.993
86625SOL    HW161772   9.096  14.674   7.061
86625SOL    HW261773   9.117  14.723   6.919
86626SOL     OW61774   6.257  10.907   2.125
86626SOL    HW161775   6.345  10.939   2.105
86626SOL    HW261776   6.198  10.968   2.080
86627SOL     OW61777  11.044   7.379   8.468
86627SOL    HW161778  11.127   7.333   8.453
86627SOL    HW261779  11.058   7.426   8.550
86628SOL     OW61780   4.405   1.600  11.612
86628SOL    HW161781   4.335   1.535  11.604
86628SOL    HW261782   4.360   1.684  11.610
86629SOL     OW61783   5.971  14.542   2.762
86629SOL    HW161784   6.012  14.459   2.736
86629SOL    HW261785   5.880  14.533   2.732
86630SOL     OW61786  14.388   4.982  10.013
86630SOL    HW161787  14.300   4.995   9.978
86630SOL    HW261788  14.375   4.926  10.090
86631SOL     OW61789  13.672   7.340  10.084
86631SOL    HW161790  13.727   7.418  10.079
86631SOL    HW261791  13.671   7.317  10.177
86632SOL     OW61792  12.657   1.955   0.861
86632SOL    HW161793  12.563   1.953   0.843
86632SOL    HW261794  12.676   1.868   0.897
86633SOL     OW61795  11.340   7.589   0.488
86633SOL    HW161796  11.310   7.602   0.578
86633SOL    HW261797  11.272   7.534   0.448
86634SOL     OW61798  12.978  14.816   1.995
86634SOL    HW161799  12.942  14.729   2.013
86634SOL    HW261800  13.072  14.805   2.003
86635SOL     OW61801   5.787   2.687   4.177
86635SOL    HW161802   5.701   2.647   4.188
86635SOL    HW261803   5.812   2.715   4.265
86636SOL     OW61804   2.266   1.156  10.179
86636SOL    HW161805   2.250   1.152  10.084
86636SOL    HW261806   2.309   1.073  10.199
86637SOL     OW61807  14.261   5.586   8.670
86637SOL    HW161808  14.188   5.564   8.613
86637SOL    HW261809  14.302   5.502   8.691
86638SOL     OW61810   1.909   2.051   3.955
86638SOL    HW161811   1.973   2.016   3.894
86638SOL    HW261812   1.961   2.095   4.023
86639SOL     OW61813  12.913   4.347   9.286
86639SOL    HW161814  12.832   4.341   9.235
86639SOL    HW261815  12.970   4.403   9.234
86640SOL     OW61816   5.404  14.588   7.390
86640SOL    HW161817   5.317  14.565   7.423
86640SOL    HW261818   5.408  14.684   7.397
86641SOL     OW61819  13.579  10.985   3.541
86641SOL    HW161820  13.487  11.013   3.538
86641SOL    HW261821  13.627  11.055   3.496
86642SOL     OW61822   7.732   2.197   3.144
86642SOL    HW161823   7.804   2.246   3.184
86642SOL    HW261824   7.696   2.145   3.216
86643SOL     OW61825   5.809  13.289   3.081
86643SOL    HW161826   5.724  13.251   3.100
86643SOL    HW261827   5.845  13.233   3.012
86644SOL     OW61828   7.728   9.250   4.208
86644SOL    HW161829   7.740   9.279   4.118
86644SOL    HW261830   7.634   9.259   4.224
86645SOL     OW61831  11.430  14.777  11.373
86645SOL    HW161832  11.511  14.731  11.350
86645SOL    HW261833  11.452  14.870  11.367
86646SOL     OW61834  14.056  10.820   3.761
86646SOL    HW161835  14.121  10.858   3.820
86646SOL    HW261836  14.092  10.736   3.736
86647SOL     OW61837  14.451   4.544   6.176
86647SOL    HW161838  14.533   4.519   6.133
86647SOL    HW261839  14.383   4.493   6.130
86648SOL     OW61840   4.310   5.092   1.352
86648SOL    HW161841   4.260   5.081   1.433
86648SOL    HW261842   4.398   5.060   1.373
86649SOL     OW61843  13.287   9.420   3.487
86649SOL    HW161844  13.320   9.366   3.559
86649SOL    HW261845  13.336   9.502   3.495
86650SOL     OW61846  11.222   3.346   6.802
86650SOL    HW161847  11.251   3.258   6.776
86650SOL    HW261848  11.303   3.395   6.817
86651SOL     OW61849   9.304  11.941   1.868
86651SOL    HW161850   9.277  11.910   1.955
86651SOL    HW261851   9.350  11.867   1.829
86652SOL     OW61852  13.311  13.579   1.900
86652SOL    HW161853  13.246  13.519   1.936
86652SOL    HW261854  13.379  13.584   1.967
86653SOL     OW61855   7.866  14.589   8.161
86653SOL    HW161856   7.914  14.669   8.183
86653SOL    HW261857   7.775  14.609   8.182
86654SOL     OW61858  13.929   4.161   5.317
86654SOL    HW161859  13.972   4.175   5.233
86654SOL    HW261860  13.865   4.232   5.324
86655SOL     OW61861   1.369   7.790   7.454
86655SOL    HW161862   1.429   7.715   7.451
86655SOL    HW261863   1.305   7.767   7.521
86656SOL     OW61864   9.917  11.550   4.889
86656SOL    HW161865   9.882  11.592   4.968
86656SOL    HW261866   9.859  11.579   4.819
86657SOL     OW61867  12.257  11.927   5.900
86657SOL    HW161868  12.269  11.846   5.850
86657SOL    HW261869  12.345  11.958   5.919
86658SOL     OW61870  13.021   3.109   4.330
86658SOL    HW161871  12.975   3.070   4.255
86658SOL    HW261872  13.076   3.038   4.363
86659SOL     OW61873   3.847   8.958  12.092
86659SOL    HW161874   3.770   8.979  12.038
86659SOL    HW261875   3.915   9.016  12.060
86660SOL     OW61876  12.252  12.866  10.289
86660SOL    HW161877  12.275  12.774  10.272
86660SOL    HW261878  12.238  12.870  10.384
86661SOL     OW61879  13.408   6.215   9.399
86661SOL    HW161880  13.341   6.271   9.437
86661SOL    HW261881  13.400   6.229   9.304
86662SOL     OW61882   4.520   0.627  14.406
86662SOL    HW161883   4.510   0.719  14.431
86662SOL    HW261884   4.609   0.621  14.371
86663SOL     OW61885  12.248  13.114   2.536
86663SOL    HW161886  12.293  13.056   2.476
86663SOL    HW261887  12.290  13.098   2.621
86664SOL     OW61888   6.708   0.882   1.619
86664SOL    HW161889   6.679   0.796   1.587
86664SOL    HW261890   6.628   0.927   1.643
86665SOL     OW61891   7.676  10.829  12.132
86665SOL    HW161892   7.674  10.752  12.189
86665SOL    HW261893   7.768  10.839  12.107
86666SOL     OW61894   7.580  14.499  14.136
86666SOL    HW161895   7.656  14.454  14.099
86666SOL    HW261896   7.558  14.566  14.071
86667SOL     OW61897   6.665   3.823  13.340
86667SOL    HW161898   6.710   3.752  13.385
86667SOL    HW261899   6.713   3.834  13.258
86668SOL     OW61900  11.646   7.068  14.866
86668SOL    HW161901  11.616   7.065   0.077
86668SOL    HW261902  11.617   7.154  14.834
86669SOL     OW61903   9.289   2.514  13.551
86669SOL    HW161904   9.237   2.593  13.565
86669SOL    HW261905   9.372   2.546  13.515
86670SOL     OW61906  14.447   7.472  12.942
86670SOL    HW161907  14.439   7.411  13.015
86670SOL    HW261908  14.532   7.452  12.902
86671SOL     OW61909   3.058   3.016  11.063
86671SOL    HW161910   3.109   3.048  10.989
86671SOL    HW261911   3.010   2.940  11.028
86672SOL     OW61912   6.081  10.667  14.019
86672SOL    HW161913   6.101  10.731  13.951
86672SOL    HW261914   6.166  10.645  14.057
86673SOL     OW61915   5.731  12.249   7.223
86673SOL    HW161916   5.775  12.202   7.152
86673SOL    HW261917   5.799  12.306   7.259
86674SOL     OW61918   0.547   7.627   9.607
86674SOL    HW161919   0.510   7.591   9.527
86674SOL    HW261920   0.640   7.602   9.604
86675SOL     OW61921   2.397   8.304   7.854
86675SOL    HW161922   2.326   8.343   7.905
86675SOL    HW261923   2.382   8.335   7.765
86676SOL     OW61924   8.927  10.584   8.282
86676SOL    HW161925   8.841  10.566   8.320
86676SOL    HW261926   8.988  10.575   8.355
86677SOL     OW61927   6.552  10.296   1.629
86677SOL    HW161928   6.606  10.219   1.647
86677SOL    HW261929   6.569  10.315   1.536
86678SOL     OW61930   1.544   0.994   7.930
86678SOL    HW161931   1.452   1.023   7.926
86678SOL    HW261932   1.579   1.015   7.844
86679SOL     OW61933  13.587   3.038  14.855
86679SOL    HW161934  13.532   3.013   0.049
86679SOL    HW261935  13.590   2.959  14.800
86680SOL     OW61936   5.288  13.238   7.113
86680SOL    HW161937   5.336  13.157   7.098
86680SOL    HW261938   5.346  13.290   7.169
86681SOL     OW61939  13.349   4.624  13.240
86681SOL    HW161940  13.324   4.602  13.150
86681SOL    HW261941  13.437   4.661  13.231
86682SOL     OW61942   4.161   0.381   4.796
86682SOL    HW161943   4.123   0.294   4.780
86682SOL    HW261944   4.126   0.436   4.726
86683SOL     OW61945   4.847  10.455   4.922
86683SOL    HW161946   4.827  10.482   4.832
86683SOL    HW261947   4.891  10.531   4.960
86684SOL     OW61948  13.664   6.827  12.987
86684SOL    HW161949  13.639   6.756  13.047
86684SOL    HW261950  13.622   6.904  13.025
86685SOL     OW61951  12.479   8.077  11.791
86685SOL    HW161952  12.510   8.112  11.708
86685SOL    HW261953  12.556   8.041  11.833
86686SOL     OW61954  12.141   4.755   6.593
86686SOL    HW161955  12.100   4.749   6.506
86686SOL    HW261956  12.068   4.765   6.653
86687SOL     OW61957  12.548   8.519   4.569
86687SOL    HW161958  12.637   8.508   4.601
86687SOL    HW261959  12.542   8.612   4.546
86688SOL     OW61960   2.702   4.946   4.048
86688SOL    HW161961   2.613   4.949   4.013
86688SOL    HW261962   2.754   4.901   3.981
86689SOL     OW61963  14.453   0.689  11.687
86689SOL    HW161964  14.435   0.710  11.596
86689SOL    HW261965  14.372   0.710  11.734
86690SOL     OW61966   3.311  12.569   5.327
86690SOL    HW161967   3.287  12.516   5.402
86690SOL    HW261968   3.252  12.645   5.331
86691SOL     OW61969   9.230   7.779   3.775
86691SOL    HW161970   9.290   7.706   3.757
86691SOL    HW261971   9.144   7.743   3.754
86692SOL     OW61972   4.209   1.998  14.597
86692SOL    HW161973   4.175   1.948  14.523
86692SOL    HW261974   4.293   2.033  14.566
86693SOL     OW61975   2.690  12.249   7.266
86693SOL    HW161976   2.667  12.192   7.339
86693SOL    HW261977   2.786  12.254   7.269
86694SOL     OW61978   2.816  12.575   8.773
86694SOL    HW161979   2.742  12.514   8.771
86694SOL    HW261980   2.887  12.528   8.729
86695SOL     OW61981  10.423   9.727   0.877
86695SOL    HW161982  10.440   9.634   0.894
86695SOL    HW261983  10.438   9.738   0.784
86696SOL     OW61984   7.118  11.304   0.594
86696SOL    HW161985   7.130  11.393   0.562
86696SOL    HW261986   7.164  11.302   0.678
86697SOL     OW61987  13.654   6.339   4.410
86697SOL    HW161988  13.643   6.418   4.463
86697SOL    HW261989  13.739   6.304   4.436
86698SOL     OW61990   9.802  14.211   3.544
86698SOL    HW161991   9.862  14.267   3.494
86698SOL    HW261992   9.726  14.200   3.487
86699SOL     OW61993   4.200   8.653   6.979
86699SOL    HW161994   4.173   8.645   7.070
86699SOL    HW261995   4.224   8.745   6.968
86700SOL     OW61996   7.199   6.930  10.918
86700SOL    HW161997   7.149   7.003  10.955
86700SOL    HW261998   7.213   6.870  10.991
86701SOL     OW61999   1.882   4.652   1.393
86701SOL    HW162000   1.908   4.561   1.379
86701SOL    HW262001   1.924   4.677   1.474
86702SOL     OW62002  13.838   2.193   0.370
86702SOL    HW162003  13.769   2.132   0.396
86702SOL    HW262004  13.881   2.150   0.296
86703SOL     OW62005   9.067   1.180   3.712
86703SOL    HW162006   9.102   1.175   3.623
86703SOL    HW262007   9.043   1.272   3.723
86704SOL     OW62008  13.874   7.677   3.089
86704SOL    HW162009  13.895   7.697   3.180
86704SOL    HW262010  13.779   7.687   3.084
86705SOL     OW62011   0.535   6.018  12.748
86705SOL    HW162012   0.575   5.955  12.689
86705SOL    HW262013   0.517   6.094  12.693
86706SOL     OW62014   1.259   8.623  14.070
86706SOL    HW162015   1.324   8.581  14.125
86706SOL    HW262016   1.261   8.715  14.097
86707SOL     OW62017   6.956  13.847   2.128
86707SOL    HW162018   6.920  13.907   2.194
86707SOL    HW262019   7.051  13.850   2.143
86708SOL     OW62020  10.507   1.672  11.411
86708SOL    HW162021  10.594   1.649  11.444
86708SOL    HW262022  10.515   1.664  11.316
86709SOL     OW62023   0.784  11.316  13.107
86709SOL    HW162024   0.706  11.282  13.062
86709SOL    HW262025   0.772  11.288  13.198
86710SOL     OW62026   6.189   9.734   5.236
86710SOL    HW162027   6.215   9.706   5.149
86710SOL    HW262028   6.201   9.657   5.291
86711SOL     OW62029   3.795   6.505   2.254
86711SOL    HW162030   3.703   6.489   2.272
86711SOL    HW262031   3.840   6.474   2.333
86712SOL     OW62032   8.108   6.007   1.409
86712SOL    HW162033   8.103   6.102   1.408
86712SOL    HW262034   8.018   5.978   1.399
86713SOL     OW62035   3.016   0.490  10.104
86713SOL    HW162036   3.044   0.581  10.094
86713SOL    HW262037   2.963   0.490  10.184
86714SOL     OW62038   8.225   1.507   9.376
86714SOL    HW162039   8.251   1.584   9.327
86714SOL    HW262040   8.151   1.536   9.430
86715SOL     OW62041   2.092  11.881   2.498
86715SOL    HW162042   2.073  11.974   2.487
86715SOL    HW262043   2.011  11.836   2.475
86716SOL     OW62044  10.138   8.776  11.478
86716SOL    HW162045  10.064   8.836  11.483
86716SOL    HW262046  10.120   8.709  11.544
86717SOL     OW62047   1.265   4.926   3.099
86717SOL    HW162048   1.196   4.876   3.144
86717SOL    HW262049   1.346   4.900   3.143
86718SOL     OW62050   5.342  11.900   9.834
86718SOL    HW162051   5.363  11.989   9.806
86718SOL    HW262052   5.349  11.902   9.929
86719SOL     OW62053   4.462   9.378   9.188
86719SOL    HW162054   4.470   9.389   9.283
86719SOL    HW262055   4.506   9.295   9.170
86720SOL     OW62056  10.502   3.476   4.809
86720SOL    HW162057  10.576   3.429   4.771
86720SOL    HW262058  10.443   3.407   4.839
86721SOL     OW62059   4.957   9.866   7.989
86721SOL    HW162060   4.971   9.960   7.998
86721SOL    HW262061   4.862   9.857   7.982
86722SOL     OW62062   0.138   9.060   7.597
86722SOL    HW162063   0.233   9.061   7.610
86722SOL    HW262064   0.103   9.026   7.679
86723SOL     OW62065  12.535   9.256  14.086
86723SOL    HW162066  12.609   9.251  14.026
86723SOL    HW262067  12.561   9.320  14.152
86724SOL     OW62068   1.485   0.350   5.665
86724SOL    HW162069   1.452   0.268   5.629
86724SOL    HW262070   1.551   0.380   5.603
86725SOL     OW62071   1.147   2.729  13.755
86725SOL    HW162072   1.130   2.656  13.694
86725SOL    HW262073   1.095   2.708  13.832
86726SOL     OW62074  10.444   4.507   2.826
86726SOL    HW162075  10.513   4.458   2.872
86726SOL    HW262076  10.453   4.597   2.858
86727SOL     OW62077  13.362  10.901  12.309
86727SOL    HW162078  13.351  10.957  12.387
86727SOL    HW262079  13.285  10.845  12.309
86728SOL     OW62080   6.436   9.400   6.205
86728SOL    HW162081   6.475   9.485   6.223
86728SOL    HW262082   6.423   9.361   6.291
86729SOL     OW62083   0.596   1.853  10.938
86729SOL    HW162084   0.658   1.888  10.874
86729SOL    HW262085   0.620   1.896  11.020
86730SOL     OW62086   4.599  11.077   1.489
86730SOL    HW162087   4.635  11.135   1.556
86730SOL    HW262088   4.628  10.989   1.515
86731SOL     OW62089  13.212  13.841   1.841
86731SOL    HW162090  13.190  13.788   1.764
86731SOL    HW262091  13.239  13.777   1.907
86732SOL     OW62092   0.778  13.406   7.273
86732SOL    HW162093   0.712  13.420   7.341
86732SOL    HW262094   0.856  13.377   7.320
86733SOL     OW62095   6.365  11.218  14.355
86733SOL    HW162096   6.332  11.129  14.371
86733SOL    HW262097   6.407  11.213  14.270
86734SOL     OW62098   4.985   1.707   1.237
86734SOL    HW162099   5.012   1.790   1.276
86734SOL    HW262100   5.047   1.643   1.272
86735SOL     OW62101  11.579   3.441  12.777
86735SOL    HW162102  11.613   3.502  12.842
86735SOL    HW262103  11.492   3.418  12.809
86736SOL     OW62104   5.847  10.809  13.393
86736SOL    HW162105   5.841  10.714  13.407
86736SOL    HW262106   5.842  10.819  13.298
86737SOL     OW62107   2.879   4.025  13.339
86737SOL    HW162108   2.812   4.065  13.395
86737SOL    HW262109   2.835   4.012  13.255
86738SOL     OW62110   2.820  13.902   0.748
86738SOL    HW162111   2.851  13.986   0.782
86738SOL    HW262112   2.829  13.842   0.822
86739SOL     OW62113   3.455   8.363   4.584
86739SOL    HW162114   3.457   8.269   4.604
86739SOL    HW262115   3.510   8.403   4.651
86740SOL     OW62116   5.984  10.277   6.296
86740SOL    HW162117   6.059  10.223   6.321
86740SOL    HW262118   5.910  10.238   6.341
86741SOL     OW62119   4.770   2.173   3.127
86741SOL    HW162120   4.757   2.254   3.177
86741SOL    HW262121   4.795   2.108   3.193
86742SOL     OW62122   1.933   0.210   6.228
86742SOL    HW162123   1.877   0.259   6.167
86742SOL    HW262124   1.930   0.120   6.196
86743SOL     OW62125   8.890   9.908   9.240
86743SOL    HW162126   8.901   9.829   9.293
86743SOL    HW262127   8.795   9.923   9.237
86744SOL     OW62128  10.839   5.843   4.884
86744SOL    HW162129  10.778   5.773   4.906
86744SOL    HW262130  10.792   5.924   4.906
86745SOL     OW62131   8.471  11.019   4.476
86745SOL    HW162132   8.388  11.063   4.457
86745SOL    HW262133   8.458  10.929   4.445
86746SOL     OW62134  12.500   9.691   7.153
86746SOL    HW162135  12.523   9.651   7.237
86746SOL    HW262136  12.507   9.785   7.168
86747SOL     OW62137   2.126  13.420   3.077
86747SOL    HW162138   2.137  13.356   3.147
86747SOL    HW262139   2.150  13.372   2.997
86748SOL     OW62140   2.104   6.013   4.697
86748SOL    HW162141   2.174   6.076   4.679
86748SOL    HW262142   2.053   6.054   4.767
86749SOL     OW62143   0.892   3.029   9.174
86749SOL    HW162144   0.882   3.117   9.210
86749SOL    HW262145   0.805   2.990   9.182
86750SOL     OW62146  12.043   8.409  10.526
86750SOL    HW162147  12.056   8.363  10.610
86750SOL    HW262148  11.958   8.377  10.494
86751SOL     OW62149   6.711   8.642   9.750
86751SOL    HW162150   6.764   8.657   9.829
86751SOL    HW262151   6.771   8.660   9.677
86752SOL     OW62152   8.022   7.849   2.003
86752SOL    HW162153   8.068   7.770   1.975
86752SOL    HW262154   8.092   7.908   2.033
86753SOL     OW62155   2.604   0.467  10.903
86753SOL    HW162156   2.699   0.460  10.918
86753SOL    HW262157   2.595   0.464  10.808
86754SOL     OW62158   7.523   5.797   9.941
86754SOL    HW162159   7.526   5.836   9.854
86754SOL    HW262160   7.598   5.835   9.987
86755SOL     OW62161   3.634   0.989  11.215
86755SOL    HW162162   3.694   1.062  11.198
86755SOL    HW262163   3.595   1.009  11.300
86756SOL     OW62164   7.163   6.565   8.446
86756SOL    HW162165   7.257   6.543   8.448
86756SOL    HW262166   7.159   6.653   8.484
86757SOL     OW62167   2.985   4.800   0.458
86757SOL    HW162168   3.017   4.726   0.509
86757SOL    HW262169   3.032   4.876   0.493
86758SOL     OW62170   7.248   0.086  14.032
86758SOL    HW162171   7.215   0.147  13.965
86758SOL    HW262172   7.241  14.880  13.992
86759SOL     OW62173   4.785   1.214   2.973
86759SOL    HW162174   4.751   1.135   2.930
86759SOL    HW262175   4.783   1.281   2.905
86760SOL     OW62176   0.753  11.439  12.842
86760SOL    HW162177   0.729  11.491  12.765
86760SOL    HW262178   0.687  11.463  12.907
86761SOL     OW62179   1.117   0.080   9.732
86761SOL    HW162180   1.135   0.122   9.816
86761SOL    HW262181   1.171   0.127   9.669
86762SOL     OW62182   1.995   5.776   5.172
86762SOL    HW162183   1.912   5.729   5.181
86762SOL    HW262184   2.005   5.789   5.078
86763SOL     OW62185  13.797   0.902  10.774
86763SOL    HW162186  13.858   0.867  10.839
86763SOL    HW262187  13.724   0.937  10.825
86764SOL     OW62188   6.368  12.989   6.501
86764SOL    HW162189   6.315  12.938   6.440
86764SOL    HW262190   6.304  13.035   6.556
86765SOL     OW62191   5.505   2.220   9.933
86765SOL    HW162192   5.541   2.132   9.917
86765SOL    HW262193   5.443   2.208  10.005
86766SOL     OW62194  14.338   6.014   0.985
86766SOL    HW162195  14.415   6.011   1.042
86766SOL    HW262196  14.269   6.048   1.042
86767SOL     OW62197   3.000  12.179   2.571
86767SOL    HW162198   3.017  12.202   2.480
86767SOL    HW262199   2.912  12.213   2.588
86768SOL     OW62200   4.679   8.299  10.795
86768SOL    HW162201   4.770   8.286  10.821
86768SOL    HW262202   4.628   8.267  10.869
86769SOL     OW62203  14.701   8.833   7.251
86769SOL    HW162204  14.781   8.847   7.200
86769SOL    HW262205  14.677   8.920   7.283
86770SOL     OW62206  12.003  12.380   2.322
86770SOL    HW162207  11.996  12.288   2.348
86770SOL    HW262208  12.062  12.380   2.247
86771SOL     OW62209   5.763   5.464  10.744
86771SOL    HW162210   5.823   5.411  10.692
86771SOL    HW262211   5.780   5.439  10.835
86772SOL     OW62212  14.351   4.433  13.290
86772SOL    HW162213  14.311   4.517  13.310
86772SOL    HW262214  14.439   4.454  13.259
86773SOL     OW62215  14.415  12.246  11.748
86773SOL    HW162216  14.413  12.152  11.734
86773SOL    HW262217  14.368  12.283  11.673
86774SOL     OW62218   1.557   6.944  10.096
86774SOL    HW162219   1.643   6.924  10.133
86774SOL    HW262220   1.574   6.961  10.003
86775SOL     OW62221  12.683  13.784   1.880
86775SOL    HW162222  12.666  13.879   1.884
86775SOL    HW262223  12.678  13.755   1.971
86776SOL     OW62224  13.370   1.807  12.230
86776SOL    HW162225  13.329   1.762  12.303
86776SOL    HW262226  13.447   1.850  12.269
86777SOL     OW62227  11.039  14.750  10.995
86777SOL    HW162228  11.061  14.680  10.935
86777SOL    HW262229  10.952  14.727  11.028
86778SOL     OW62230   9.339   8.907   8.352
86778SOL    HW162231   9.373   8.993   8.327
86778SOL    HW262232   9.298   8.921   8.437
86779SOL     OW62233   3.935  13.936  12.988
86779SOL    HW162234   3.884  13.855  12.988
86779SOL    HW262235   3.903  13.984  13.064
86780SOL     OW62236   5.930   1.994  14.291
86780SOL    HW162237   5.871   1.982  14.366
86780SOL    HW262238   5.936   1.907  14.252
86781SOL     OW62239   3.983  12.382   8.225
86781SOL    HW162240   3.925  12.378   8.301
86781SOL    HW262241   4.069  12.360   8.259
86782SOL     OW62242   6.693   6.171  12.119
86782SOL    HW162243   6.760   6.203  12.179
86782SOL    HW262244   6.741   6.131  12.047
86783SOL     OW62245  14.336   9.923  12.568
86783SOL    HW162246  14.373   9.991  12.512
86783SOL    HW262247  14.376   9.842  12.535
86784SOL     OW62248  13.075  11.908  13.998
86784SOL    HW162249  13.060  11.976  14.064
86784SOL    HW262250  12.991  11.898  13.954
86785SOL     OW62251   2.148   6.886   9.842
86785SOL    HW162252   2.165   6.959   9.902
86785SOL    HW262253   2.176   6.919   9.756
86786SOL     OW62254   3.019  14.266   7.943
86786SOL    HW162255   2.951  14.265   7.875
86786SOL    HW262256   3.101  14.252   7.896
86787SOL     OW62257   5.026   5.827   2.992
86787SOL    HW162258   5.038   5.752   3.049
86787SOL    HW262259   4.931   5.835   2.982
86788SOL     OW62260  12.243  14.311   9.879
86788SOL    HW162261  12.213  14.402   9.870
86788SOL    HW262262  12.322  14.306   9.825
86789SOL     OW62263  12.713   0.188   0.347
86789SOL    HW162264  12.755   0.257   0.397
86789SOL    HW262265  12.715   0.111   0.405
86790SOL     OW62266  14.515   1.934   4.875
86790SOL    HW162267  14.513   1.891   4.960
86790SOL    HW262268  14.424   1.958   4.857
86791SOL     OW62269   4.350   2.173  10.056
86791SOL    HW162270   4.311   2.100  10.103
86791SOL    HW262271   4.369   2.139   9.969
86792SOL     OW62272  11.163   8.908  14.521
86792SOL    HW162273  11.257   8.887  14.526
86792SOL    HW262274  11.152   8.983  14.579
86793SOL     OW62275   8.628   9.796   4.191
86793SOL    HW162276   8.655   9.718   4.240
86793SOL    HW262277   8.602   9.859   4.257
86794SOL     OW62278   1.758  10.697  14.390
86794SOL    HW162279   1.804  10.680  14.473
86794SOL    HW262280   1.670  10.663  14.404
86795SOL     OW62281   6.881   5.230   2.419
86795SOL    HW162282   6.798   5.267   2.390
86795SOL    HW262283   6.938   5.235   2.342
86796SOL     OW62284   5.088   1.739   9.409
86796SOL    HW162285   5.094   1.669   9.474
86796SOL    HW262286   5.178   1.749   9.377
86797SOL     OW62287   0.877   1.645  11.702
86797SOL    HW162288   0.857   1.738  11.691
86797SOL    HW262289   0.972   1.641  11.699
86798SOL     OW62290   8.798   8.088   6.095
86798SOL    HW162291   8.864   8.061   6.159
86798SOL    HW262292   8.848   8.113   6.017
86799SOL     OW62293  10.432   3.446   6.902
86799SOL    HW162294  10.421   3.463   6.808
86799SOL    HW262295  10.526   3.435   6.913
86800SOL     OW62296  13.161   0.380  10.906
86800SOL    HW162297  13.083   0.426  10.937
86800SOL    HW262298  13.129   0.327  10.833
86801SOL     OW62299   2.886   7.160   2.852
86801SOL    HW162300   2.843   7.166   2.938
86801SOL    HW262301   2.832   7.213   2.794
86802SOL     OW62302   1.410   5.005   0.442
86802SOL    HW162303   1.488   4.954   0.420
86802SOL    HW262304   1.443   5.086   0.480
86803SOL     OW62305   3.582  10.084   7.751
86803SOL    HW162306   3.519  10.053   7.816
86803SOL    HW262307   3.614  10.167   7.785
86804SOL     OW62308   6.687   2.630  10.629
86804SOL    HW162309   6.729   2.609  10.546
86804SOL    HW262310   6.618   2.563  10.638
86805SOL     OW62311   6.577  10.338   5.533
86805SOL    HW162312   6.498  10.391   5.522
86805SOL    HW262313   6.649  10.402   5.533
86806SOL     OW62314  12.901   2.768   9.513
86806SOL    HW162315  12.903   2.719   9.430
86806SOL    HW262316  12.812   2.755   9.547
86807SOL     OW62317   0.775   1.942   7.685
86807SOL    HW162318   0.808   2.032   7.682
86807SOL    HW262319   0.741   1.932   7.774
86808SOL     OW62320   7.274  13.035   3.718
86808SOL    HW162321   7.252  13.112   3.770
86808SOL    HW262322   7.369  13.041   3.706
86809SOL     OW62323   3.100   7.468   5.418
86809SOL    HW162324   3.151   7.386   5.415
86809SOL    HW262325   3.163   7.536   5.393
86810SOL     OW62326   1.032  10.169  10.796
86810SOL    HW162327   0.997  10.084  10.825
86810SOL    HW262328   1.093  10.147  10.726
86811SOL     OW62329   4.325  11.022   8.624
86811SOL    HW162330   4.315  10.995   8.533
86811SOL    HW262331   4.384  11.098   8.621
86812SOL     OW62332  11.625  13.977   9.991
86812SOL    HW162333  11.613  14.021   9.907
86812SOL    HW262334  11.718  13.953   9.992
86813SOL     OW62335   7.886  13.393   6.878
86813SOL    HW162336   7.816  13.344   6.921
86813SOL    HW262337   7.967  13.351   6.909
86814SOL     OW62338   0.480   7.153  10.316
86814SOL    HW162339   0.443   7.144  10.404
86814SOL    HW262340   0.464   7.244  10.292
86815SOL     OW62341  13.003  12.042   3.104
86815SOL    HW162342  12.922  12.043   3.053
86815SOL    HW262343  12.987  11.978   3.174
86816SOL     OW62344   2.973  10.613   8.118
86816SOL    HW162345   3.032  10.557   8.067
86816SOL    HW262346   2.973  10.574   8.206
86817SOL     OW62347   9.557  12.633   5.640
86817SOL    HW162348   9.485  12.576   5.612
86817SOL    HW262349   9.634  12.577   5.638
86818SOL     OW62350   4.281   6.566   3.203
86818SOL    HW162351   4.316   6.477   3.210
86818SOL    HW262352   4.341   6.619   3.255
86819SOL     OW62353  12.741   6.770   7.088
86819SOL    HW162354  12.688   6.753   7.011
86819SOL    HW262355  12.678   6.781   7.160
86820SOL     OW62356  10.732  14.668   2.254
86820SOL    HW162357  10.821  14.702   2.243
86820SOL    HW262358  10.728  14.593   2.195
86821SOL     OW62359  11.909   9.151   6.698
86821SOL    HW162360  11.940   9.119   6.783
86821SOL    HW262361  11.861   9.231   6.718
86822SOL     OW62362   8.121   1.521   7.197
86822SOL    HW162363   8.192   1.572   7.236
86822SOL    HW262364   8.065   1.587   7.154
86823SOL     OW62365   4.210  10.626   1.912
86823SOL    HW162366   4.224  10.567   1.837
86823SOL    HW262367   4.172  10.705   1.873
86824SOL     OW62368   8.178  14.119   8.955
86824SOL    HW162369   8.131  14.180   9.011
86824SOL    HW262370   8.244  14.079   9.013
86825SOL     OW62371   8.614   0.324  11.962
86825SOL    HW162372   8.610   0.252  11.899
86825SOL    HW262373   8.529   0.322  12.006
86826SOL     OW62374   3.803   5.363   6.279
86826SOL    HW162375   3.869   5.359   6.348
86826SOL    HW262376   3.721   5.380   6.324
86827SOL     OW62377   1.403   2.740  11.355
86827SOL    HW162378   1.461   2.806  11.395
86827SOL    HW262379   1.343   2.716  11.425
86828SOL     OW62380   5.852  13.366   3.931
86828SOL    HW162381   5.853  13.408   3.845
86828SOL    HW262382   5.838  13.273   3.912
86829SOL     OW62383   8.896   2.438  14.679
86829SOL    HW162384   8.976   2.482  14.650
86829SOL    HW262385   8.836   2.446  14.605
86830SOL     OW62386  10.127   8.954  13.433
86830SOL    HW162387  10.148   9.047  13.427
86830SOL    HW262388  10.135   8.934  13.526
86831SOL     OW62389   8.944  10.751   0.215
86831SOL    HW162390   8.852  10.778   0.209
86831SOL    HW262391   8.940  10.659   0.242
86832SOL     OW62392  10.052  14.223   9.109
86832SOL    HW162393  10.126  14.167   9.084
86832SOL    HW262394   9.988  14.162   9.146
86833SOL     OW62395   8.469  14.476   6.441
86833SOL    HW162396   8.559  14.470   6.472
86833SOL    HW262397   8.452  14.570   6.433
86834SOL     OW62398   1.435  11.648  10.317
86834SOL    HW162399   1.446  11.627  10.410
86834SOL    HW262400   1.463  11.568  10.271
86835SOL     OW62401  12.559   7.799   8.458
86835SOL    HW162402  12.627   7.751   8.409
86835SOL    HW262403  12.478   7.781   8.410
86836SOL     OW62404  12.926   0.153   0.962
86836SOL    HW162405  12.915   0.235   1.010
86836SOL    HW262406  12.839   0.130   0.932
86837SOL     OW62407  12.306  12.971   5.880
86837SOL    HW162408  12.325  12.913   5.953
86837SOL    HW262409  12.212  12.986   5.884
86838SOL     OW62410   0.353  10.159  10.584
86838SOL    HW162411   0.297  10.100  10.635
86838SOL    HW262412   0.358  10.119  10.498
86839SOL     OW62413   7.243  10.822  11.230
86839SOL    HW162414   7.290  10.789  11.154
86839SOL    HW262415   7.201  10.902  11.200
86840SOL     OW62416   4.877  13.492   8.847
86840SOL    HW162417   4.934  13.554   8.802
86840SOL    HW262418   4.935  13.418   8.868
86841SOL     OW62419   7.234  13.762   4.367
86841SOL    HW162420   7.274  13.675   4.371
86841SOL    HW262421   7.205  13.779   4.457
86842SOL     OW62422   1.925  10.473   2.102
86842SOL    HW162423   1.916  10.492   2.009
86842SOL    HW262424   1.971  10.390   2.105
86843SOL     OW62425   3.979   0.465  11.016
86843SOL    HW162426   3.937   0.550  11.003
86843SOL    HW262427   3.907   0.405  11.035
86844SOL     OW62428   6.718   6.552  14.159
86844SOL    HW162429   6.774   6.612  14.209
86844SOL    HW262430   6.771   6.530  14.082
86845SOL     OW62431   9.951   0.901   8.013
86845SOL    HW162432   9.947   0.875   8.105
86845SOL    HW262433   9.940   0.819   7.965
86846SOL     OW62434   7.506   1.470   8.338
86846SOL    HW162435   7.521   1.453   8.245
86846SOL    HW262436   7.476   1.561   8.341
86847SOL     OW62437  11.365   8.958   8.327
86847SOL    HW162438  11.348   8.876   8.372
86847SOL    HW262439  11.327   8.946   8.239
86848SOL     OW62440   0.765   2.404   7.776
86848SOL    HW162441   0.709   2.377   7.848
86848SOL    HW262442   0.809   2.483   7.807
86849SOL     OW62443   6.388   0.570   7.039
86849SOL    HW162444   6.464   0.619   7.007
86849SOL    HW262445   6.419   0.527   7.118
86850SOL     OW62446   2.347  14.729   7.262
86850SOL    HW162447   2.258  14.753   7.286
86850SOL    HW262448   2.352  14.742   7.167
86851SOL     OW62449   5.706   7.475  11.473
86851SOL    HW162450   5.675   7.479  11.383
86851SOL    HW262451   5.723   7.566  11.497
86852SOL     OW62452   6.424  11.602   1.341
86852SOL    HW162453   6.445  11.680   1.391
86852SOL    HW262454   6.507  11.556   1.330
86853SOL     OW62455   1.366  14.190   7.794
86853SOL    HW162456   1.342  14.282   7.778
86853SOL    HW262457   1.336  14.144   7.716
86854SOL     OW62458   9.454   5.386   1.297
86854SOL    HW162459   9.426   5.398   1.207
86854SOL    HW262460   9.400   5.446   1.348
86855SOL     OW62461   1.708  14.566  12.489
86855SOL    HW162462   1.728  14.497  12.425
86855SOL    HW262463   1.694  14.519  12.571
86856SOL     OW62464   7.648   2.070   6.058
86856SOL    HW162465   7.706   2.138   6.095
86856SOL    HW262466   7.698   2.032   5.986
86857SOL     OW62467  12.602   8.560   5.028
86857SOL    HW162468  12.539   8.632   5.027
86857SOL    HW262469  12.574   8.502   4.958
86858SOL     OW62470   8.747  11.277   2.545
86858SOL    HW162471   8.795  11.196   2.564
86858SOL    HW262472   8.667  11.270   2.598
86859SOL     OW62473   8.510   2.079   8.610
86859SOL    HW162474   8.510   2.166   8.650
86859SOL    HW262475   8.568   2.086   8.535
86860SOL     OW62476   4.984   8.025  11.921
86860SOL    HW162477   4.926   8.075  11.979
86860SOL    HW262478   5.072   8.043  11.954
86861SOL     OW62479  13.551   2.971   3.664
86861SOL    HW162480  13.457   2.975   3.679
86861SOL    HW262481  13.589   2.956   3.751
86862SOL     OW62482   7.153   5.300   1.928
86862SOL    HW162483   7.068   5.303   1.971
86862SOL    HW262484   7.154   5.216   1.881
86863SOL     OW62485   6.953   2.303  14.317
86863SOL    HW162486   7.009   2.225  14.309
86863SOL    HW262487   6.959   2.326  14.410
86864SOL     OW62488   6.028  10.733   6.460
86864SOL    HW162489   6.021  10.641   6.437
86864SOL    HW262490   5.992  10.739   6.549
86865SOL     OW62491  10.352  11.880   8.861
86865SOL    HW162492  10.270  11.830   8.865
86865SOL    HW262493  10.390  11.871   8.948
86866SOL     OW62494   3.345   1.393   9.783
86866SOL    HW162495   3.374   1.403   9.693
86866SOL    HW262496   3.277   1.326   9.779
86867SOL     OW62497  10.018   0.526   3.278
86867SOL    HW162498  10.110   0.552   3.274
86867SOL    HW262499  10.014   0.446   3.226
86868SOL     OW62500   8.362  13.223  14.128
86868SOL    HW162501   8.396  13.196  14.042
86868SOL    HW262502   8.436  13.212  14.188
86869SOL     OW62503   0.937   2.766   9.745
86869SOL    HW162504   0.976   2.704   9.683
86869SOL    HW262505   0.930   2.848   9.696
86870SOL     OW62506   7.738   1.864   9.280
86870SOL    HW162507   7.662   1.897   9.327
86870SOL    HW262508   7.708   1.853   9.190
86871SOL     OW62509   0.653   1.520   6.752
86871SOL    HW162510   0.596   1.597   6.756
86871SOL    HW262511   0.719   1.536   6.819
86872SOL     OW62512  14.273   6.950   7.868
86872SOL    HW162513  14.299   7.038   7.896
86872SOL    HW262514  14.342   6.893   7.902
86873SOL     OW62515   3.930   2.826   9.863
86873SOL    HW162516   3.936   2.825   9.767
86873SOL    HW262517   4.015   2.858   9.892
86874SOL     OW62518   2.919   2.820  12.794
86874SOL    HW162519   2.969   2.744  12.766
86874SOL    HW262520   2.872   2.790  12.872
86875SOL     OW62521   5.765  11.823   2.186
86875SOL    HW162522   5.672  11.823   2.164
86875SOL    HW262523   5.781  11.737   2.225
86876SOL     OW62524   9.504  11.230  13.862
86876SOL    HW162525   9.419  11.227  13.906
86876SOL    HW262526   9.511  11.320  13.829
86877SOL     OW62527   6.005   0.167  12.085
86877SOL    HW162528   6.061   0.096  12.114
86877SOL    HW262529   6.055   0.211  12.016
86878SOL     OW62530  11.799   3.506   0.884
86878SOL    HW162531  11.763   3.584   0.841
86878SOL    HW262532  11.820   3.535   0.973
86879SOL     OW62533   0.698   5.502  10.164
86879SOL    HW162534   0.605   5.522  10.148
86879SOL    HW262535   0.703   5.488  10.258
86880SOL     OW62536   6.459  10.953   4.150
86880SOL    HW162537   6.425  10.874   4.193
86880SOL    HW262538   6.386  11.015   4.151
86881SOL     OW62539   0.267  10.508  10.163
86881SOL    HW162540   0.287  10.415  10.154
86881SOL    HW262541   0.269  10.541  10.073
86882SOL     OW62542   2.472   6.751   2.393
86882SOL    HW162543   2.453   6.671   2.344
86882SOL    HW262544   2.562   6.773   2.370
86883SOL     OW62545  14.783   6.199   3.773
86883SOL    HW162546  14.805   6.200   3.866
86883SOL    HW262547  14.688   6.210   3.770
86884SOL     OW62548   3.308   3.926  13.594
86884SOL    HW162549   3.296   3.921  13.689
86884SOL    HW262550   3.220   3.914  13.558
86885SOL     OW62551   1.881  11.975   6.683
86885SOL    HW162552   1.953  12.021   6.639
86885SOL    HW262553   1.836  12.044   6.732
86886SOL     OW62554   3.617  11.714  14.407
86886SOL    HW162555   3.560  11.767  14.462
86886SOL    HW262556   3.557  11.667  14.349
86887SOL     OW62557   7.923   8.269  12.461
86887SOL    HW162558   7.904   8.250  12.369
86887SOL    HW262559   7.986   8.201  12.487
86888SOL     OW62560  12.297   3.616  13.877
86888SOL    HW162561  12.383   3.584  13.903
86888SOL    HW262562  12.258   3.543  13.829
86889SOL     OW62563   4.732   7.063  13.500
86889SOL    HW162564   4.797   7.113  13.450
86889SOL    HW262565   4.758   6.972  13.488
86890SOL     OW62566   6.344  11.026   9.744
86890SOL    HW162567   6.388  10.942   9.728
86890SOL    HW262568   6.356  11.042   9.837
86891SOL     OW62569  10.483   3.400   2.301
86891SOL    HW162570  10.547   3.455   2.256
86891SOL    HW262571  10.451   3.340   2.234
86892SOL     OW62572  10.749   8.099   2.599
86892SOL    HW162573  10.675   8.159   2.598
86892SOL    HW262574  10.751   8.065   2.689
86893SOL     OW62575  10.141   3.146  11.292
86893SOL    HW162576  10.137   3.137  11.197
86893SOL    HW262577  10.147   3.240  11.307
86894SOL     OW62578  13.704   8.951   9.156
86894SOL    HW162579  13.699   8.860   9.186
86894SOL    HW262580  13.793   8.962   9.125
86895SOL     OW62581  14.269   5.277   2.196
86895SOL    HW162582  14.180   5.272   2.163
86895SOL    HW262583  14.322   5.302   2.119
86896SOL     OW62584  10.691  12.112  13.755
86896SOL    HW162585  10.695  12.026  13.713
86896SOL    HW262586  10.641  12.166  13.693
86897SOL     OW62587  12.530   0.029  10.779
86897SOL    HW162588  12.505   0.023  10.871
86897SOL    HW262589  12.601  14.845  10.769
86898SOL     OW62590  13.687   9.040   7.472
86898SOL    HW162591  13.620   9.106   7.491
86898SOL    HW262592  13.737   9.032   7.553
86899SOL     OW62593   3.101   6.968   9.532
86899SOL    HW162594   3.011   6.945   9.511
86899SOL    HW262595   3.149   6.952   9.450
86900SOL     OW62596   4.932  10.164   7.863
86900SOL    HW162597   4.903  10.122   7.782
86900SOL    HW262598   5.028  10.162   7.858
86901SOL     OW62599  11.691   7.939   4.498
86901SOL    HW162600  11.659   8.027   4.520
86901SOL    HW262601  11.783   7.940   4.523
86902SOL     OW62602   6.448  13.334   8.290
86902SOL    HW162603   6.483  13.247   8.305
86902SOL    HW262604   6.424  13.366   8.378
86903SOL     OW62605   9.024   7.490   5.744
86903SOL    HW162606   8.969   7.566   5.766
86903SOL    HW262607   9.113   7.520   5.758
86904SOL     OW62608  14.286   0.616   3.634
86904SOL    HW162609  14.348   0.576   3.695
86904SOL    HW262610  14.328   0.699   3.608
86905SOL     OW62611  14.774  11.923   5.101
86905SOL    HW162612  14.733  12.003   5.070
86905SOL    HW262613  14.725  11.899   5.179
86906SOL     OW62614   8.773   2.242  13.869
86906SOL    HW162615   8.703   2.268  13.928
86906SOL    HW262616   8.754   2.151  13.847
86907SOL     OW62617   8.393   4.713  14.458
86907SOL    HW162618   8.409   4.653  14.531
86907SOL    HW262619   8.317   4.677  14.413
86908SOL     OW62620   0.785   2.453  14.648
86908SOL    HW162621   0.864   2.491  14.687
86908SOL    HW262622   0.795   2.358  14.660
86909SOL     OW62623   7.981  11.303  14.213
86909SOL    HW162624   7.902  11.251  14.225
86909SOL    HW262625   8.002  11.294  14.120
86910SOL     OW62626  11.227   9.426   4.289
86910SOL    HW162627  11.193   9.347   4.247
86910SOL    HW262628  11.274   9.472   4.220
86911SOL     OW62629   9.200   4.419  12.448
86911SOL    HW162630   9.118   4.381  12.418
86911SOL    HW262631   9.267   4.376  12.394
86912SOL     OW62632   6.293  14.810   0.009
86912SOL    HW162633   6.242  14.801  14.808
86912SOL    HW262634   6.250   0.001   0.056
86913SOL     OW62635  13.724   0.419   1.708
86913SOL    HW162636  13.772   0.366   1.644
86913SOL    HW262637  13.652   0.363   1.737
86914SOL     OW62638  14.829   5.166  12.682
86914SOL    HW162639  14.756   5.130  12.630
86914SOL    HW262640  14.845   5.252  12.643
86915SOL     OW62641   9.499   0.187  14.558
86915SOL    HW162642   9.570   0.138  14.516
86915SOL    HW262643   9.509   0.277  14.525
86916SOL     OW62644   8.511   7.592  14.739
86916SOL    HW162645   8.452   7.567  14.667
86916SOL    HW262646   8.527   7.685  14.726
86917SOL     OW62647   5.475   1.277   0.844
86917SOL    HW162648   5.474   1.181   0.837
86917SOL    HW262649   5.473   1.294   0.938
86918SOL     OW62650  11.105   9.176   1.454
86918SOL    HW162651  11.033   9.152   1.395
86918SOL    HW262652  11.096   9.270   1.466
86919SOL     OW62653   8.316  11.261   3.540
86919SOL    HW162654   8.260  11.193   3.577
86919SOL    HW262655   8.323  11.327   3.608
86920SOL     OW62656   2.064   5.235   1.143
86920SOL    HW162657   1.993   5.204   1.088
86920SOL    HW262658   2.023   5.297   1.203
86921SOL     OW62659  13.709  11.390  11.345
86921SOL    HW162660  13.674  11.479  11.334
86921SOL    HW262661  13.652  11.336  11.290
86922SOL     OW62662   3.283   4.809   8.758
86922SOL    HW162663   3.357   4.750   8.773
86922SOL    HW262664   3.208   4.761   8.792
86923SOL     OW62665  13.466   6.957   7.285
86923SOL    HW162666  13.529   7.001   7.228
86923SOL    HW262667  13.456   6.870   7.247
86924SOL     OW62668  11.995   4.842   6.811
86924SOL    HW162669  12.013   4.796   6.892
86924SOL    HW262670  11.954   4.924   6.838
86925SOL     OW62671   2.550   0.067  11.992
86925SOL    HW162672   2.591   0.137  11.941
86925SOL    HW262673   2.528   0.000  11.928
86926SOL     OW62674   3.375   2.086   3.930
86926SOL    HW162675   3.439   2.115   3.865
86926SOL    HW262676   3.308   2.154   3.930
86927SOL     OW62677  13.845   4.362  10.490
86927SOL    HW162678  13.814   4.452  10.488
86927SOL    HW262679  13.930   4.366  10.534
86928SOL     OW62680   1.789   4.194   2.036
86928SOL    HW162681   1.813   4.246   2.112
86928SOL    HW262682   1.872   4.179   1.990
86929SOL     OW62683  12.596   6.478   0.400
86929SOL    HW162684  12.539   6.502   0.327
86929SOL    HW262685  12.644   6.559   0.421
86930SOL     OW62686  12.135   0.901   9.246
86930SOL    HW162687  12.160   0.840   9.177
86930SOL    HW262688  12.107   0.846   9.318
86931SOL     OW62689  10.342  14.239   8.297
86931SOL    HW162690  10.405  14.207   8.362
86931SOL    HW262691  10.386  14.226   8.213
86932SOL     OW62692   3.364  10.208  13.644
86932SOL    HW162693   3.394  10.265  13.574
86932SOL    HW262694   3.442  10.194  13.698
86933SOL     OW62695   7.801   1.661  10.514
86933SOL    HW162696   7.713   1.636  10.539
86933SOL    HW262697   7.791   1.708  10.432
86934SOL     OW62698  10.917   4.574   9.574
86934SOL    HW162699  10.983   4.576   9.504
86934SOL    HW262700  10.955   4.517   9.641
86935SOL     OW62701   3.775   7.357  10.166
86935SOL    HW162702   3.752   7.370  10.074
86935SOL    HW262703   3.864   7.390  10.173
86936SOL     OW62704  10.819  11.230  14.327
86936SOL    HW162705  10.740  11.285  14.328
86936SOL    HW262706  10.884  11.281  14.375
86937SOL     OW62707   9.526  13.336   7.889
86937SOL    HW162708   9.472  13.415   7.889
86937SOL    HW262709   9.584  13.347   7.814
86938SOL     OW62710   1.026   7.759   2.949
86938SOL    HW162711   1.050   7.851   2.957
86938SOL    HW262712   1.109   7.712   2.960
86939SOL     OW62713  14.767   9.572   5.608
86939SOL    HW162714  14.793   9.559   5.517
86939SOL    HW262715  14.848   9.558   5.658
86940SOL     OW62716   3.047   9.917   7.011
86940SOL    HW162717   3.001   9.970   6.946
86940SOL    HW262718   3.111   9.866   6.960
86941SOL     OW62719   9.982   0.792   2.481
86941SOL    HW162720   9.935   0.717   2.445
86941SOL    HW262721  10.028   0.830   2.406
86942SOL     OW62722   9.648   1.630   1.678
86942SOL    HW162723   9.685   1.560   1.624
86942SOL    HW262724   9.604   1.688   1.615
86943SOL     OW62725  11.965  14.321  12.609
86943SOL    HW162726  11.895  14.359  12.663
86943SOL    HW262727  12.035  14.386  12.612
86944SOL     OW62728   5.824   3.417   8.249
86944SOL    HW162729   5.864   3.378   8.327
86944SOL    HW262730   5.734   3.438   8.277
86945SOL     OW62731   1.654  10.287   1.265
86945SOL    HW162732   1.641  10.347   1.340
86945SOL    HW262733   1.670  10.345   1.191
86946SOL     OW62734  14.699   3.411   5.448
86946SOL    HW162735  14.620   3.459   5.423
86946SOL    HW262736  14.695   3.406   5.543
86947SOL     OW62737  13.311   9.472   3.059
86947SOL    HW162738  13.367   9.481   2.981
86947SOL    HW262739  13.237   9.418   3.029
86948SOL     OW62740   7.263   6.198   3.292
86948SOL    HW162741   7.317   6.121   3.307
86948SOL    HW262742   7.174   6.168   3.309
86949SOL     OW62743   1.580   4.242   3.896
86949SOL    HW162744   1.522   4.170   3.922
86949SOL    HW262745   1.647   4.200   3.842
86950SOL     OW62746   7.349   3.525   8.466
86950SOL    HW162747   7.302   3.471   8.529
86950SOL    HW262748   7.282   3.551   8.402
86951SOL     OW62749   1.700   1.730  11.419
86951SOL    HW162750   1.743   1.784  11.485
86951SOL    HW262751   1.621   1.779  11.396
86952SOL     OW62752  10.946  13.698   3.155
86952SOL    HW162753  11.031  13.673   3.118
86952SOL    HW262754  10.958  13.788   3.185
86953SOL     OW62755  11.249   0.065  12.717
86953SOL    HW162756  11.283   0.153  12.731
86953SOL    HW262757  11.175   0.077  12.658
86954SOL     OW62758  13.631  13.847   1.223
86954SOL    HW162759  13.644  13.755   1.201
86954SOL    HW262760  13.692  13.894   1.166
86955SOL     OW62761   7.143  14.418   1.683
86955SOL    HW162762   7.227  14.462   1.676
86955SOL    HW262763   7.147  14.346   1.619
86956SOL     OW62764  10.638  12.856  11.942
86956SOL    HW162765  10.731  12.871  11.961
86956SOL    HW262766  10.591  12.914  12.002
86957SOL     OW62767   0.211  11.763  13.400
86957SOL    HW162768   0.259  11.722  13.472
86957SOL    HW262769   0.184  11.690  13.345
86958SOL     OW62770   6.925   3.187   4.803
86958SOL    HW162771   6.874   3.110   4.829
86958SOL    HW262772   6.896   3.205   4.713
86959SOL     OW62773   7.183  11.361   0.923
86959SOL    HW162774   7.243  11.428   0.956
86959SOL    HW262775   7.127  11.407   0.861
86960SOL     OW62776   2.112  12.882  14.374
86960SOL    HW162777   2.074  12.892  14.287
86960SOL    HW262778   2.084  12.795  14.403
86961SOL     OW62779   1.334  12.362   8.815
86961SOL    HW162780   1.317  12.326   8.728
86961SOL    HW262781   1.253  12.409   8.837
86962SOL     OW62782  12.386  12.918  13.483
86962SOL    HW162783  12.392  12.856  13.410
86962SOL    HW262784  12.473  12.956  13.490
86963SOL     OW62785   4.938   9.574  14.804
86963SOL    HW162786   4.865   9.519  14.833
86963SOL    HW262787   4.895   9.651  14.767
86964SOL     OW62788   2.907   4.020   5.598
86964SOL    HW162789   2.976   4.001   5.535
86964SOL    HW262790   2.857   4.092   5.559
86965SOL     OW62791   4.304   7.455   2.605
86965SOL    HW162792   4.393   7.435   2.634
86965SOL    HW262793   4.290   7.400   2.529
86966SOL     OW62794  11.576   4.303   4.312
86966SOL    HW162795  11.549   4.257   4.232
86966SOL    HW262796  11.638   4.369   4.282
86967SOL     OW62797   6.215  10.742  11.099
86967SOL    HW162798   6.275  10.748  11.173
86967SOL    HW262799   6.176  10.829  11.092
86968SOL     OW62800  12.494  12.513   1.159
86968SOL    HW162801  12.455  12.544   1.240
86968SOL    HW262802  12.582  12.552   1.158
86969SOL     OW62803  11.568  14.636  10.027
86969SOL    HW162804  11.508  14.622  10.101
86969SOL    HW262805  11.578  14.549   9.988
86970SOL     OW62806   1.554   8.150   3.647
86970SOL    HW162807   1.599   8.130   3.565
86970SOL    HW262808   1.546   8.066   3.692
86971SOL     OW62809   0.684   5.977   2.835
86971SOL    HW162810   0.684   5.956   2.929
86971SOL    HW262811   0.591   5.990   2.814
86972SOL     OW62812  13.195  14.879  12.862
86972SOL    HW162813  13.166   0.018  12.951
86972SOL    HW262814  13.142  14.805  12.834
86973SOL     OW62815  13.469  10.996   6.018
86973SOL    HW162816  13.516  11.003   6.101
86973SOL    HW262817  13.534  11.017   5.951
86974SOL     OW62818   1.621  11.600  14.529
86974SOL    HW162819   1.542  11.569  14.572
86974SOL    HW262820   1.636  11.688  14.565
86975SOL     OW62821   3.584   0.912  10.027
86975SOL    HW162822   3.537   0.901   9.944
86975SOL    HW262823   3.670   0.944  10.002
86976SOL     OW62824   1.311  10.910  13.874
86976SOL    HW162825   1.361  10.956  13.941
86976SOL    HW262826   1.325  10.961  13.794
86977SOL     OW62827   4.457   5.024   0.130
86977SOL    HW162828   4.434   4.938   0.095
86977SOL    HW262829   4.435   5.085   0.059
86978SOL     OW62830   7.163  13.605   1.973
86978SOL    HW162831   7.192  13.685   2.017
86978SOL    HW262832   7.177  13.536   2.038
86979SOL     OW62833  12.709  10.928   3.871
86979SOL    HW162834  12.743  10.863   3.809
86979SOL    HW262835  12.617  10.905   3.882
86980SOL     OW62836  14.097   7.476   1.637
86980SOL    HW162837  14.029   7.421   1.675
86980SOL    HW262838  14.084   7.562   1.678
86981SOL     OW62839  10.471   9.544  11.413
86981SOL    HW162840  10.536   9.499  11.360
86981SOL    HW262841  10.489   9.637  11.399
86982SOL     OW62842   6.097  12.919   8.615
86982SOL    HW162843   6.010  12.894   8.584
86982SOL    HW262844   6.081  12.975   8.691
86983SOL     OW62845   5.468  11.707   5.482
86983SOL    HW162846   5.429  11.661   5.408
86983SOL    HW262847   5.451  11.650   5.557
86984SOL     OW62848   1.317  12.733   9.603
86984SOL    HW162849   1.241  12.771   9.558
86984SOL    HW262850   1.344  12.799   9.666
86985SOL     OW62851   9.429  11.819  13.813
86985SOL    HW162852   9.422  11.841  13.720
86985SOL    HW262853   9.413  11.725  13.816
86986SOL     OW62854   5.881   7.326   1.564
86986SOL    HW162855   5.940   7.262   1.602
86986SOL    HW262856   5.853   7.380   1.637
86987SOL     OW62857   4.170   6.879   7.102
86987SOL    HW162858   4.202   6.966   7.127
86987SOL    HW262859   4.234   6.819   7.141
86988SOL     OW62860   2.986   9.621  12.798
86988SOL    HW162861   3.054   9.564  12.835
86988SOL    HW262862   2.980   9.694  12.859
86989SOL     OW62863   4.694   3.433   6.723
86989SOL    HW162864   4.639   3.494   6.772
86989SOL    HW262865   4.765   3.487   6.688
86990SOL     OW62866   0.308   8.351  11.601
86990SOL    HW162867   0.229   8.302  11.621
86990SOL    HW262868   0.309   8.357  11.505
86991SOL     OW62869  14.416   2.518   1.173
86991SOL    HW162870  14.426   2.578   1.099
86991SOL    HW262871  14.495   2.464   1.172
86992SOL     OW62872   0.978   4.194   3.932
86992SOL    HW162873   0.948   4.168   4.020
86992SOL    HW262874   0.898   4.202   3.881
86993SOL     OW62875   1.841   9.967   3.975
86993SOL    HW162876   1.932   9.938   3.965
86993SOL    HW262877   1.792   9.887   3.990
86994SOL     OW62878  11.557  13.867   6.110
86994SOL    HW162879  11.524  13.791   6.061
86994SOL    HW262880  11.488  13.932   6.102
86995SOL     OW62881  13.290   2.157   1.714
86995SOL    HW162882  13.273   2.226   1.650
86995SOL    HW262883  13.272   2.197   1.799
86996SOL     OW62884  13.396   6.673  10.138
86996SOL    HW162885  13.418   6.667  10.231
86996SOL    HW262886  13.343   6.752  10.131
86997SOL     OW62887  10.547  13.592   0.554
86997SOL    HW162888  10.538  13.604   0.649
86997SOL    HW262889  10.635  13.555   0.544
86998SOL     OW62890   6.062  11.409   2.576
86998SOL    HW162891   6.143  11.434   2.531
86998SOL    HW262892   5.993  11.426   2.512
86999SOL     OW62893   0.140   9.302   3.175
86999SOL    HW162894   0.080   9.326   3.246
86999SOL    HW262895   0.117   9.211   3.154
87000SOL     OW62896  11.588  13.230   5.740
87000SOL    HW162897  11.599  13.287   5.817
87000SOL    HW262898  11.580  13.142   5.777
87001SOL     OW62899   2.444  11.666   2.549
87001SOL    HW162900   2.372  11.610   2.521
87001SOL    HW262901   2.494  11.683   2.468
87002SOL     OW62902  14.190   1.837   1.508
87002SOL    HW162903  14.254   1.847   1.578
87002SOL    HW262904  14.207   1.751   1.471
87003SOL     OW62905  13.472  10.799   2.817
87003SOL    HW162906  13.527  10.788   2.895
87003SOL    HW262907  13.533  10.827   2.748
87004SOL     OW62908   6.307  10.127   9.190
87004SOL    HW162909   6.291  10.221   9.186
87004SOL    HW262910   6.221  10.087   9.180
87005SOL     OW62911   0.723   0.940  13.940
87005SOL    HW162912   0.654   1.001  13.966
87005SOL    HW262913   0.770   0.985  13.870
87006SOL     OW62914  11.954   2.909   9.998
87006SOL    HW162915  11.993   2.966   9.931
87006SOL    HW262916  12.019   2.907  10.068
87007SOL     OW62917  12.493   6.196   3.733
87007SOL    HW162918  12.567   6.136   3.722
87007SOL    HW262919  12.512   6.269   3.675
87008SOL     OW62920  12.358  11.683   1.483
87008SOL    HW162921  12.333  11.602   1.527
87008SOL    HW262922  12.448  11.668   1.454
87009SOL     OW62923   5.583   0.099   8.529
87009SOL    HW162924   5.490   0.099   8.552
87009SOL    HW262925   5.594   0.174   8.470
87010SOL     OW62926   4.992  14.849  13.670
87010SOL    HW162927   5.012   0.057  13.640
87010SOL    HW262928   5.009  14.793  13.594
87011SOL     OW62929  13.080   6.010   7.313
87011SOL    HW162930  13.056   6.098   7.285
87011SOL    HW262931  13.114   5.969   7.233
87012SOL     OW62932  14.717   8.485  11.787
87012SOL    HW162933  14.782   8.548  11.818
87012SOL    HW262934  14.726   8.410  11.845
87013SOL     OW62935  12.225   7.862  12.312
87013SOL    HW162936  12.292   7.800  12.339
87013SOL    HW262937  12.156   7.855  12.378
87014SOL     OW62938   6.098  10.782   2.347
87014SOL    HW162939   6.157  10.850   2.315
87014SOL    HW262940   6.014  10.827   2.360
87015SOL     OW62941   3.727  13.320   3.214
87015SOL    HW162942   3.753  13.384   3.279
87015SOL    HW262943   3.754  13.358   3.130
87016SOL     OW62944   8.363   1.178   2.415
87016SOL    HW162945   8.400   1.212   2.496
87016SOL    HW262946   8.430   1.120   2.380
87017SOL     OW62947   5.594   5.429   8.607
87017SOL    HW162948   5.556   5.517   8.603
87017SOL    HW262949   5.688   5.443   8.593
87018SOL     OW62950   0.492  14.245  10.734
87018SOL    HW162951   0.499  14.281  10.822
87018SOL    HW262952   0.563  14.180  10.729
87019SOL     OW62953   9.779   7.160  13.474
87019SOL    HW162954   9.808   7.251  13.474
87019SOL    HW262955   9.832   7.117  13.541
87020SOL     OW62956  12.277   6.147   7.576
87020SOL    HW162957  12.273   6.196   7.658
87020SOL    HW262958  12.367   6.159   7.545
87021SOL     OW62959   0.545   9.383   7.753
87021SOL    HW162960   0.574   9.292   7.747
87021SOL    HW262961   0.623   9.435   7.733
87022SOL     OW62962  12.474   5.890  14.291
87022SOL    HW162963  12.472   5.900  14.196
87022SOL    HW262964  12.514   5.971  14.323
87023SOL     OW62965   7.410   9.211  14.413
87023SOL    HW162966   7.421   9.261  14.332
87023SOL    HW262967   7.423   9.120  14.387
87024SOL     OW62968   8.772  12.789  11.785
87024SOL    HW162969   8.764  12.846  11.709
87024SOL    HW262970   8.778  12.700  11.749
87025SOL     OW62971   3.993   2.730   1.497
87025SOL    HW162972   3.906   2.689   1.496
87025SOL    HW262973   3.980   2.811   1.547
87026SOL     OW62974   1.863   6.029   0.407
87026SOL    HW162975   1.793   5.983   0.454
87026SOL    HW262976   1.941   5.976   0.422
87027SOL     OW62977  14.115  14.493   3.506
87027SOL    HW162978  14.024  14.467   3.512
87027SOL    HW262979  14.125  14.528   3.418
87028SOL     OW62980   0.291   8.765  14.104
87028SOL    HW162981   0.385   8.751  14.097
87028SOL    HW262982   0.262   8.703  14.172
87029SOL     OW62983  13.889   6.679  11.421
87029SOL    HW162984  13.865   6.632  11.341
87029SOL    HW262985  13.806   6.712  11.456
87030SOL     OW62986  13.510   2.716  14.326
87030SOL    HW162987  13.562   2.729  14.405
87030SOL    HW262988  13.513   2.622  14.310
87031SOL     OW62989  10.782   1.046   9.775
87031SOL    HW162990  10.843   0.985   9.733
87031SOL    HW262991  10.792   1.028   9.868
87032SOL     OW62992   2.428   7.741   1.602
87032SOL    HW162993   2.500   7.778   1.654
87032SOL    HW262994   2.355   7.734   1.664
87033SOL     OW62995   3.731   1.427  12.935
87033SOL    HW162996   3.715   1.335  12.916
87033SOL    HW262997   3.687   1.474  12.864
87034SOL     OW62998   2.328   5.621  14.513
87034SOL    HW162999   2.388   5.656  14.578
87034SOL    HW263000   2.335   5.526  14.523
87035SOL     OW63001   1.805  13.405   4.545
87035SOL    HW163002   1.771  13.316   4.534
87035SOL    HW263003   1.780  13.429   4.634
87036SOL     OW63004   2.228   8.488   4.763
87036SOL    HW163005   2.256   8.469   4.853
87036SOL    HW263006   2.309   8.510   4.717
87037SOL     OW63007   7.549  13.981   4.446
87037SOL    HW163008   7.566  13.957   4.355
87037SOL    HW263009   7.471  14.036   4.442
87038SOL     OW63010   1.859   3.360  11.654
87038SOL    HW163011   1.899   3.383  11.738
87038SOL    HW263012   1.922   3.392  11.589
87039SOL     OW63013  11.503  12.887   2.807
87039SOL    HW163014  11.498  12.821   2.738
87039SOL    HW263015  11.515  12.970   2.761
87040SOL     OW63016   1.717  10.500   4.267
87040SOL    HW163017   1.797  10.535   4.229
87040SOL    HW263018   1.663  10.577   4.284
87041SOL     OW63019   9.937  11.144   4.818
87041SOL    HW163020   9.995  11.068   4.818
87041SOL    HW263021   9.989  11.214   4.780
87042SOL     OW63022   2.551  11.388   4.724
87042SOL    HW163023   2.632  11.367   4.676
87042SOL    HW263024   2.582  11.428   4.806
87043SOL     OW63025  14.224   4.477   8.640
87043SOL    HW163026  14.212   4.551   8.699
87043SOL    HW263027  14.223   4.516   8.553
87044SOL     OW63028   9.241   1.606   8.787
87044SOL    HW163029   9.164   1.575   8.739
87044SOL    HW263030   9.250   1.545   8.860
87045SOL     OW63031  10.917  11.244   4.087
87045SOL    HW163032  10.928  11.225   4.180
87045SOL    HW263033  10.853  11.315   4.084
87046SOL     OW63034   7.321  12.657   8.173
87046SOL    HW163035   7.379  12.596   8.218
87046SOL    HW263036   7.307  12.619   8.086
87047SOL     OW63037  13.382  13.837  10.141
87047SOL    HW163038  13.383  13.741  10.146
87047SOL    HW263039  13.363  13.856  10.049
87048SOL     OW63040   5.372   7.563   4.774
87048SOL    HW163041   5.468   7.557   4.778
87048SOL    HW263042   5.341   7.516   4.851
87049SOL     OW63043   0.676  12.440   7.746
87049SOL    HW163044   0.687  12.384   7.669
87049SOL    HW263045   0.645  12.380   7.814
87050SOL     OW63046   4.512   3.668  13.162
87050SOL    HW163047   4.536   3.704  13.076
87050SOL    HW263048   4.424   3.632  13.149
87051SOL     OW63049  14.669   8.526   1.643
87051SOL    HW163050  14.683   8.536   1.737
87051SOL    HW263051  14.700   8.438   1.623
87052SOL     OW63052   0.893   3.595   9.646
87052SOL    HW163053   0.901   3.680   9.602
87052SOL    HW263054   0.901   3.615   9.739
87053SOL     OW63055  12.809   5.179   1.544
87053SOL    HW163056  12.820   5.227   1.626
87053SOL    HW263057  12.747   5.231   1.494
87054SOL     OW63058   3.402   3.139  10.855
87054SOL    HW163059   3.417   3.164  10.947
87054SOL    HW263060   3.461   3.194  10.805
87055SOL     OW63061   9.660   5.782   6.674
87055SOL    HW163062   9.618   5.868   6.669
87055SOL    HW263063   9.736   5.790   6.617
87056SOL     OW63064   7.795   6.233   3.201
87056SOL    HW163065   7.781   6.279   3.284
87056SOL    HW263066   7.795   6.303   3.135
87057SOL     OW63067   7.879  14.209   2.045
87057SOL    HW163068   7.839  14.170   1.967
87057SOL    HW263069   7.818  14.188   2.115
87058SOL     OW63070   1.289  13.663   7.256
87058SOL    HW163071   1.231  13.649   7.181
87058SOL    HW263072   1.363  13.712   7.221
87059SOL     OW63073  14.243   6.125   6.916
87059SOL    HW163074  14.179   6.077   6.863
87059SOL    HW263075  14.254   6.071   6.994
87060SOL     OW63076  12.259  14.085   8.107
87060SOL    HW163077  12.345  14.062   8.142
87060SOL    HW263078  12.199  14.073   8.181
87061SOL     OW63079   2.173   7.960   4.364
87061SOL    HW163080   2.235   7.909   4.415
87061SOL    HW263081   2.221   7.986   4.285
87062SOL     OW63082  12.644   0.420   5.427
87062SOL    HW163083  12.726   0.442   5.384
87062SOL    HW263084  12.576   0.462   5.374
87063SOL     OW63085   2.588   6.393   4.968
87063SOL    HW163086   2.663   6.412   5.024
87063SOL    HW263087   2.521   6.456   4.996
87064SOL     OW63088   2.172   5.806   9.290
87064SOL    HW163089   2.259   5.769   9.294
87064SOL    HW263090   2.120   5.753   9.351
87065SOL     OW63091   3.199   1.396   8.985
87065SOL    HW163092   3.283   1.429   9.016
87065SOL    HW263093   3.220   1.345   8.907
87066SOL     OW63094   2.562   7.399   8.632
87066SOL    HW163095   2.478   7.385   8.587
87066SOL    HW263096   2.623   7.342   8.585
87067SOL     OW63097   5.419  10.388   8.294
87067SOL    HW163098   5.327  10.410   8.281
87067SOL    HW263099   5.417  10.298   8.328
87068SOL     OW63100   4.948   9.060  14.636
87068SOL    HW163101   4.903   9.119  14.696
87068SOL    HW263102   4.893   8.981  14.636
87069SOL     OW63103   4.498   7.709   6.928
87069SOL    HW163104   4.473   7.704   6.836
87069SOL    HW263105   4.588   7.676   6.930
87070SOL     OW63106  12.795   3.701  13.323
87070SOL    HW163107  12.789   3.794  13.303
87070SOL    HW263108  12.868   3.694  13.385
87071SOL     OW63109   0.672   0.627   4.993
87071SOL    HW163110   0.715   0.610   5.076
87071SOL    HW263111   0.586   0.660   5.017
87072SOL     OW63112   2.388   1.615   2.411
87072SOL    HW163113   2.404   1.704   2.443
87072SOL    HW263114   2.474   1.584   2.382
87073SOL     OW63115   7.346  10.190  13.705
87073SOL    HW163116   7.336  10.095  13.709
87073SOL    HW263117   7.325  10.220  13.793
87074SOL     OW63118  14.199   8.210   7.557
87074SOL    HW163119  14.254   8.161   7.495
87074SOL    HW263120  14.248   8.290   7.575
87075SOL     OW63121   9.297  12.197   1.267
87075SOL    HW163122   9.323  12.287   1.246
87075SOL    HW263123   9.234  12.175   1.198
87076SOL     OW63124  13.587   5.714  10.732
87076SOL    HW163125  13.596   5.680  10.821
87076SOL    HW263126  13.649   5.663  10.680
87077SOL     OW63127  12.670   3.509  10.027
87077SOL    HW163128  12.607   3.439  10.009
87077SOL    HW263129  12.637   3.584   9.978
87078SOL     OW63130  13.161   0.756   5.402
87078SOL    HW163131  13.193   0.692   5.466
87078SOL    HW263132  13.130   0.829   5.456
87079SOL     OW63133   7.361   0.023  10.775
87079SOL    HW163134   7.348   0.007  10.682
87079SOL    HW263135   7.301  14.842  10.819
87080SOL     OW63136   8.060   1.425   0.536
87080SOL    HW163137   8.065   1.418   0.441
87080SOL    HW263138   8.088   1.514   0.555
87081SOL     OW63139   5.632   8.097   7.335
87081SOL    HW163140   5.566   8.166   7.330
87081SOL    HW263141   5.684   8.109   7.255
87082SOL     OW63142  12.714  14.867   9.314
87082SOL    HW163143  12.786   0.047   9.330
87082SOL    HW263144  12.745  14.811   9.243
87083SOL     OW63145   2.939   0.977  11.508
87083SOL    HW163146   2.915   0.914  11.575
87083SOL    HW263147   2.858   0.992  11.459
87084SOL     OW63148   5.057   0.416   2.235
87084SOL    HW163149   5.116   0.356   2.189
87084SOL    HW263150   4.970   0.377   2.224
87085SOL     OW63151  12.863   0.119   7.927
87085SOL    HW163152  12.871   0.106   8.022
87085SOL    HW263153  12.778   0.081   7.905
87086SOL     OW63154   9.024  12.521   2.838
87086SOL    HW163155   8.951  12.485   2.788
87086SOL    HW263156   9.102  12.481   2.798
87087SOL     OW63157   5.214   6.833   4.263
87087SOL    HW163158   5.206   6.783   4.181
87087SOL    HW263159   5.277   6.902   4.243
87088SOL     OW63160  12.206   9.230  14.323
87088SOL    HW163161  12.296   9.245  14.353
87088SOL    HW263162  12.152   9.286  14.378
87089SOL     OW63163   5.167  12.294   9.032
87089SOL    HW163164   5.083  12.283   9.075
87089SOL    HW263165   5.195  12.205   9.010
87090SOL     OW63166   4.580   3.800   5.371
87090SOL    HW163167   4.563   3.800   5.465
87090SOL    HW263168   4.512   3.745   5.333
87091SOL     OW63169   6.618  14.588   9.248
87091SOL    HW163170   6.582  14.573   9.161
87091SOL    HW263171   6.619  14.501   9.289
87092SOL     OW63172   1.796   2.038  11.619
87092SOL    HW163173   1.716   2.013  11.573
87092SOL    HW263174   1.789   1.996  11.705
87093SOL     OW63175  12.110   6.533  13.896
87093SOL    HW163176  12.099   6.627  13.882
87093SOL    HW263177  12.059   6.514  13.975
87094SOL     OW63178  12.341   3.410   2.422
87094SOL    HW163179  12.399   3.486   2.414
87094SOL    HW263180  12.259   3.446   2.455
87095SOL     OW63181   8.998   5.271   8.217
87095SOL    HW163182   9.025   5.261   8.126
87095SOL    HW263183   9.078   5.300   8.262
87096SOL     OW63184   3.961   7.345  12.999
87096SOL    HW163185   3.918   7.267  12.965
87096SOL    HW263186   4.054   7.332  12.980
87097SOL     OW63187   4.709   3.586   6.342
87097SOL    HW163188   4.674   3.522   6.405
87097SOL    HW263189   4.675   3.670   6.372
87098SOL     OW63190   3.427   5.797   4.987
87098SOL    HW163191   3.507   5.754   5.018
87098SOL    HW263192   3.356   5.750   5.030
87099SOL     OW63193   5.443   4.992   8.517
87099SOL    HW163194   5.523   4.943   8.539
87099SOL    HW263195   5.373   4.946   8.563
87100SOL     OW63196   0.400   3.130  12.767
87100SOL    HW163197   0.381   3.175  12.685
87100SOL    HW263198   0.415   3.200  12.830
87101SOL     OW63199   0.230  13.415   4.562
87101SOL    HW163200   0.199  13.460   4.483
87101SOL    HW263201   0.275  13.483   4.612
87102SOL     OW63202   3.788   7.413  14.540
87102SOL    HW163203   3.832   7.488  14.499
87102SOL    HW263204   3.699   7.444  14.554
87103SOL     OW63205   7.849   1.450  14.733
87103SOL    HW163206   7.759   1.467  14.759
87103SOL    HW263207   7.901   1.468  14.812
87104SOL     OW63208   8.151   8.707   4.682
87104SOL    HW163209   8.170   8.712   4.776
87104SOL    HW263210   8.233   8.675   4.643
87105SOL     OW63211   8.102   0.736   0.822
87105SOL    HW163212   8.139   0.803   0.880
87105SOL    HW263213   8.152   0.657   0.843
87106SOL     OW63214  14.756   4.780   2.892
87106SOL    HW163215  14.718   4.863   2.862
87106SOL    HW263216  14.825   4.807   2.953
87107SOL     OW63217   2.824   0.065   8.595
87107SOL    HW163218   2.806   0.005   8.522
87107SOL    HW263219   2.809   0.013   8.674
87108SOL     OW63220   4.805   9.903  11.970
87108SOL    HW163221   4.752   9.935  11.897
87108SOL    HW263222   4.745   9.902  12.045
87109SOL     OW63223   6.402   6.865   6.216
87109SOL    HW163224   6.379   6.830   6.130
87109SOL    HW263225   6.440   6.951   6.198
87110SOL     OW63226   7.388  14.485   8.991
87110SOL    HW163227   7.387  14.405   9.043
87110SOL    HW263228   7.346  14.551   9.046
87111SOL     OW63229   2.445   7.774   2.777
87111SOL    HW163230   2.507   7.754   2.848
87111SOL    HW263231   2.410   7.689   2.751
87112SOL     OW63232   1.040   7.485   3.878
87112SOL    HW163233   1.057   7.470   3.971
87112SOL    HW263234   0.993   7.568   3.875
87113SOL     OW63235   2.656  12.037  10.487
87113SOL    HW163236   2.606  12.116  10.465
87113SOL    HW263237   2.738  12.047  10.439
87114SOL     OW63238   1.928   8.722   7.005
87114SOL    HW163239   2.014   8.761   6.991
87114SOL    HW263240   1.867   8.783   6.963
87115SOL     OW63241   1.540   0.410   1.489
87115SOL    HW163242   1.448   0.386   1.499
87115SOL    HW263243   1.545   0.499   1.522
87116SOL     OW63244  13.940  11.767   5.492
87116SOL    HW163245  14.019  11.724   5.526
87116SOL    HW263246  13.916  11.713   5.416
87117SOL     OW63247   7.800   9.440  12.398
87117SOL    HW163248   7.856   9.368  12.370
87117SOL    HW263249   7.725   9.437  12.339
87118SOL     OW63250   7.119   4.908  13.776
87118SOL    HW163251   7.039   4.856  13.788
87118SOL    HW263252   7.091   4.985  13.728
87119SOL     OW63253   1.894   0.175   3.687
87119SOL    HW163254   1.955   0.103   3.706
87119SOL    HW263255   1.888   0.223   3.770
87120SOL     OW63256   9.066  13.607   5.445
87120SOL    HW163257   9.080  13.586   5.537
87120SOL    HW263258   9.064  13.703   5.442
87121SOL     OW63259  12.854  11.545   3.500
87121SOL    HW163260  12.900  11.487   3.440
87121SOL    HW263261  12.805  11.604   3.444
87122SOL     OW63262   9.491   6.130   4.277
87122SOL    HW163263   9.559   6.078   4.320
87122SOL    HW263264   9.506   6.219   4.308
87123SOL     OW63265   0.920   5.295  12.749
87123SOL    HW163266   0.988   5.339  12.697
87123SOL    HW263267   0.897   5.359  12.816
87124SOL     OW63268  13.705   6.667   9.669
87124SOL    HW163269  13.786   6.623   9.640
87124SOL    HW263270  13.701   6.651   9.763
87125SOL     OW63271   3.084   9.292   5.833
87125SOL    HW163272   3.142   9.237   5.779
87125SOL    HW263273   3.002   9.294   5.784
87126SOL     OW63274   0.292   9.832   5.800
87126SOL    HW163275   0.291   9.833   5.895
87126SOL    HW263276   0.380   9.862   5.776
87127SOL     OW63277  13.870  11.950   1.397
87127SOL    HW163278  13.813  11.878   1.371
87127SOL    HW263279  13.819  11.999   1.461
87128SOL     OW63280   9.023   1.038   8.167
87128SOL    HW163281   8.956   1.016   8.231
87128SOL    HW263282   8.975   1.067   8.090
87129SOL     OW63283  14.635   5.792   0.716
87129SOL    HW163284  14.581   5.871   0.719
87129SOL    HW263285  14.594   5.733   0.779
87130SOL     OW63286  13.189  14.490  10.187
87130SOL    HW163287  13.205  14.422  10.253
87130SOL    HW263288  13.224  14.452  10.106
87131SOL     OW63289   4.507  12.721   0.404
87131SOL    HW163290   4.489  12.700   0.496
87131SOL    HW263291   4.447  12.792   0.383
87132SOL     OW63292  12.477   8.930   0.096
87132SOL    HW163293  12.553   8.907   0.150
87132SOL    HW263294  12.448   8.846   0.059
87133SOL     OW63295   0.409  12.176  12.071
87133SOL    HW163296   0.383  12.228  12.147
87133SOL    HW263297   0.489  12.218  12.039
87134SOL     OW63298  13.873   8.354   1.941
87134SOL    HW163299  13.835   8.315   1.863
87134SOL    HW263300  13.967   8.343   1.931
87135SOL     OW63301   8.314  13.912   1.380
87135SOL    HW163302   8.284  13.944   1.295
87135SOL    HW263303   8.364  13.833   1.360
87136SOL     OW63304   5.684   9.013   5.616
87136SOL    HW163305   5.644   9.095   5.644
87136SOL    HW263306   5.610   8.956   5.596
87137SOL     OW63307   9.393  11.980   2.516
87137SOL    HW163308   9.411  11.897   2.560
87137SOL    HW263309   9.435  11.970   2.430
87138SOL     OW63310   8.646   2.356   7.572
87138SOL    HW163311   8.603   2.366   7.657
87138SOL    HW263312   8.670   2.445   7.545
87139SOL     OW63313   1.115  13.562  10.045
87139SOL    HW163314   1.112  13.653  10.075
87139SOL    HW263315   1.028  13.527  10.067
87140SOL     OW63316   7.137   7.026   1.541
87140SOL    HW163317   7.122   7.091   1.473
87140SOL    HW263318   7.233   7.016   1.544
87141SOL     OW63319  10.527   6.613   1.806
87141SOL    HW163320  10.472   6.690   1.815
87141SOL    HW263321  10.599   6.628   1.867
87142SOL     OW63322  13.545   9.917   0.813
87142SOL    HW163323  13.545   9.822   0.820
87142SOL    HW263324  13.461   9.944   0.850
87143SOL     OW63325   0.913   0.613  10.213
87143SOL    HW163326   0.925   0.555  10.137
87143SOL    HW263327   0.909   0.553  10.288
87144SOL     OW63328   4.679  10.865   1.618
87144SOL    HW163329   4.670  10.792   1.557
87144SOL    HW263330   4.771  10.863   1.645
87145SOL     OW63331  12.952  14.032   2.533
87145SOL    HW163332  12.941  14.094   2.606
87145SOL    HW263333  12.936  13.946   2.573
87146SOL     OW63334   2.093  12.749  12.902
87146SOL    HW163335   2.119  12.684  12.837
87146SOL    HW263336   2.149  12.824  12.884
87147SOL     OW63337   1.170   2.483   7.461
87147SOL    HW163338   1.170   2.396   7.419
87147SOL    HW263339   1.221   2.472   7.540
87148SOL     OW63340   7.302  10.774  13.367
87148SOL    HW163341   7.264  10.746  13.284
87148SOL    HW263342   7.331  10.693  13.410
87149SOL     OW63343  14.745  12.881   8.109
87149SOL    HW163344  14.661  12.876   8.064
87149SOL    HW263345  14.750  12.970   8.142
87150SOL     OW63346   3.608   1.520   3.656
87150SOL    HW163347   3.693   1.485   3.684
87150SOL    HW263348   3.576   1.567   3.734
87151SOL     OW63349   2.971  14.604   4.553
87151SOL    HW163350   3.042  14.552   4.514
87151SOL    HW263351   2.908  14.617   4.481
87152SOL     OW63352  13.478   5.564   9.503
87152SOL    HW163353  13.486   5.493   9.567
87152SOL    HW263354  13.405   5.617   9.535
87153SOL     OW63355  13.672   3.907  10.221
87153SOL    HW163356  13.668   3.933  10.313
87153SOL    HW263357  13.613   3.968  10.177
87154SOL     OW63358  12.655   5.341  13.795
87154SOL    HW163359  12.696   5.372  13.714
87154SOL    HW263360  12.562   5.356  13.782
87155SOL     OW63361  13.361  12.850   2.994
87155SOL    HW163362  13.270  12.819   2.991
87155SOL    HW263363  13.402  12.810   2.917
87156SOL     OW63364   3.287  10.171   8.144
87156SOL    HW163365   3.309  10.080   8.165
87156SOL    HW263366   3.198  10.166   8.109
87157SOL     OW63367   3.456   0.194   7.291
87157SOL    HW163368   3.438   0.151   7.207
87157SOL    HW263369   3.410   0.141   7.355
87158SOL     OW63370   1.602   9.571   2.662
87158SOL    HW163371   1.628   9.487   2.699
87158SOL    HW263372   1.512   9.557   2.631
87159SOL     OW63373  10.294  11.142   3.328
87159SOL    HW163374  10.370  11.084   3.324
87159SOL    HW263375  10.271  11.144   3.421
87160SOL     OW63376   3.748   6.545   0.534
87160SOL    HW163377   3.714   6.634   0.546
87160SOL    HW263378   3.816   6.554   0.467
87161SOL     OW63379  11.993   9.615   8.813
87161SOL    HW163380  11.928   9.662   8.761
87161SOL    HW263381  12.039   9.560   8.750
87162SOL     OW63382   7.366   3.632   0.176
87162SOL    HW163383   7.357   3.564   0.244
87162SOL    HW263384   7.343   3.713   0.220
87163SOL     OW63385  13.967   7.258   1.708
87163SOL    HW163386  13.988   7.217   1.624
87163SOL    HW263387  13.981   7.189   1.772
87164SOL     OW63388  14.018  14.637   0.678
87164SOL    HW163389  13.984  14.699   0.742
87164SOL    HW263390  13.982  14.666   0.595
87165SOL     OW63391  11.251   5.849   7.163
87165SOL    HW163392  11.329   5.893   7.129
87165SOL    HW263393  11.254   5.863   7.257
87166SOL     OW63394   6.737  11.362  13.431
87166SOL    HW163395   6.658  11.400  13.469
87166SOL    HW263396   6.805  11.427  13.447
87167SOL     OW63397  12.797   6.627   6.203
87167SOL    HW163398  12.878   6.677   6.213
87167SOL    HW263399  12.810   6.577   6.122
87168SOL     OW63400   2.583   5.643   4.534
87168SOL    HW163401   2.530   5.596   4.469
87168SOL    HW263402   2.662   5.591   4.543
87169SOL     OW63403   7.052  11.187   4.148
87169SOL    HW163404   7.091  11.142   4.074
87169SOL    HW263405   7.078  11.136   4.224
87170SOL     OW63406  12.278  13.560  12.959
87170SOL    HW163407  12.206  13.541  13.020
87170SOL    HW263408  12.237  13.611  12.889
87171SOL     OW63409   7.203  13.990   6.171
87171SOL    HW163410   7.271  14.036   6.122
87171SOL    HW263411   7.183  14.047   6.245
87172SOL     OW63412   2.896   6.978   7.680
87172SOL    HW163413   2.807   7.004   7.656
87172SOL    HW263414   2.896   6.974   7.775
87173SOL     OW63415   5.729   9.877   5.610
87173SOL    HW163416   5.703   9.793   5.572
87173SOL    HW263417   5.666   9.891   5.681
87174SOL     OW63418  10.139   3.148   9.793
87174SOL    HW163419  10.085   3.124   9.868
87174SOL    HW263420  10.107   3.234   9.766
87175SOL     OW63421   7.111   2.004   1.217
87175SOL    HW163422   7.060   2.053   1.282
87175SOL    HW263423   7.156   2.072   1.166
87176SOL     OW63424  11.722   7.950   6.356
87176SOL    HW163425  11.801   7.925   6.308
87176SOL    HW263426  11.712   7.883   6.423
87177SOL     OW63427  12.588  11.973   8.390
87177SOL    HW163428  12.682  11.983   8.403
87177SOL    HW263429  12.569  11.883   8.415
87178SOL     OW63430   9.824   7.449  10.427
87178SOL    HW163431   9.742   7.416  10.465
87178SOL    HW263432   9.809   7.446  10.333
87179SOL     OW63433  10.209   3.716  11.297
87179SOL    HW163434  10.162   3.793  11.267
87179SOL    HW263435  10.300   3.732  11.271
87180SOL     OW63436  10.107   9.387  14.695
87180SOL    HW163437  10.013   9.391  14.678
87180SOL    HW263438  10.147   9.383  14.608
87181SOL     OW63439   6.289   4.025   8.654
87181SOL    HW163440   6.267   4.028   8.561
87181SOL    HW263441   6.311   4.115   8.677
87182SOL     OW63442   7.592   0.252   7.502
87182SOL    HW163443   7.628   0.187   7.441
87182SOL    HW263444   7.572   0.328   7.447
87183SOL     OW63445   9.231   8.304   0.950
87183SOL    HW163446   9.298   8.314   1.018
87183SOL    HW263447   9.247   8.218   0.912
87184SOL     OW63448   7.671   2.544   4.868
87184SOL    HW163449   7.639   2.589   4.947
87184SOL    HW263450   7.597   2.491   4.840
87185SOL     OW63451  14.091  12.930   4.940
87185SOL    HW163452  14.097  12.857   4.879
87185SOL    HW263453  14.166  12.986   4.919
87186SOL     OW63454   1.777   5.453   0.746
87186SOL    HW163455   1.756   5.529   0.801
87186SOL    HW263456   1.793   5.382   0.808
87187SOL     OW63457  12.249   9.888   0.472
87187SOL    HW163458  12.310   9.949   0.513
87187SOL    HW263459  12.203   9.846   0.545
87188SOL     OW63460  14.305   7.400   8.414
87188SOL    HW163461  14.342   7.348   8.342
87188SOL    HW263462  14.352   7.370   8.492
87189SOL     OW63463   9.819   2.925   1.862
87189SOL    HW163464   9.802   3.019   1.859
87189SOL    HW263465   9.906   2.918   1.901
87190SOL     OW63466  13.620   0.903   1.727
87190SOL    HW163467  13.546   0.961   1.745
87190SOL    HW263468  13.580   0.822   1.695
87191SOL     OW63469   6.476  10.829  13.622
87191SOL    HW163470   6.550  10.784  13.662
87191SOL    HW263471   6.440  10.765  13.561
87192SOL     OW63472   6.078   3.661   9.020
87192SOL    HW163473   6.014   3.726   9.049
87192SOL    HW263474   6.128   3.705   8.950
87193SOL     OW63475   7.273  11.769   5.833
87193SOL    HW163476   7.290  11.745   5.742
87193SOL    HW263477   7.276  11.864   5.834
87194SOL     OW63478  14.185   1.418   9.366
87194SOL    HW163479  14.113   1.356   9.379
87194SOL    HW263480  14.236   1.412   9.447
87195SOL     OW63481  10.063  10.380   8.509
87195SOL    HW163482  10.031  10.327   8.582
87195SOL    HW263483  10.154  10.354   8.500
87196SOL     OW63484   5.636   5.495   3.845
87196SOL    HW163485   5.685   5.439   3.905
87196SOL    HW263486   5.701   5.525   3.781
87197SOL     OW63487   3.759   7.457   0.077
87197SOL    HW163488   3.824   7.459   0.148
87197SOL    HW263489   3.694   7.394   0.105
87198SOL     OW63490  11.562   8.011   5.659
87198SOL    HW163491  11.578   8.049   5.746
87198SOL    HW263492  11.469   8.027   5.642
87199SOL     OW63493  13.238   0.716   4.463
87199SOL    HW163494  13.179   0.700   4.537
87199SOL    HW263495  13.181   0.716   4.386
87200SOL     OW63496  14.700  14.570   8.437
87200SOL    HW163497  14.633  14.546   8.374
87200SOL    HW263498  14.769  14.504   8.425
87201SOL     OW63499   7.486   7.340   9.561
87201SOL    HW163500   7.434   7.395   9.620
87201SOL    HW263501   7.567   7.323   9.609
87202SOL     OW63502   7.297  11.726   5.564
87202SOL    HW163503   7.328  11.767   5.483
87202SOL    HW263504   7.359  11.655   5.579
87203SOL     OW63505  12.866   1.638   2.843
87203SOL    HW163506  12.893   1.646   2.934
87203SOL    HW263507  12.932   1.580   2.804
87204SOL     OW63508  13.202   9.994   9.667
87204SOL    HW163509  13.137   9.926   9.647
87204SOL    HW263510  13.150  10.073   9.680
87205SOL     OW63511  13.588   2.767   3.109
87205SOL    HW163512  13.495   2.745   3.114
87205SOL    HW263513  13.617   2.768   3.201
87206SOL     OW63514   5.697  12.795   4.501
87206SOL    HW163515   5.758  12.868   4.492
87206SOL    HW263516   5.631  12.809   4.433
87207SOL     OW63517   6.585  12.410  14.209
87207SOL    HW163518   6.545  12.495  14.229
87207SOL    HW263519   6.577  12.359  14.290
87208SOL     OW63520   1.421   8.615   2.902
87208SOL    HW163521   1.419   8.696   2.953
87208SOL    HW263522   1.487   8.631   2.835
87209SOL     OW63523   1.056   3.347   8.560
87209SOL    HW163524   0.995   3.333   8.488
87209SOL    HW263525   1.143   3.341   8.519
87210SOL     OW63526   3.623   4.710   6.942
87210SOL    HW163527   3.561   4.704   6.869
87210SOL    HW263528   3.709   4.708   6.900
87211SOL     OW63529   9.618   0.008  12.748
87211SOL    HW163530   9.599   0.077  12.811
87211SOL    HW263531   9.712  14.874  12.756
87212SOL     OW63532  12.406   7.484   3.426
87212SOL    HW163533  12.328   7.431   3.442
87212SOL    HW263534  12.479   7.424   3.441
87213SOL     OW63535   6.492   6.134   5.800
87213SOL    HW163536   6.464   6.068   5.863
87213SOL    HW263537   6.581   6.157   5.826
87214SOL     OW63538  11.573   4.018  10.458
87214SOL    HW163539  11.529   3.940  10.424
87214SOL    HW263540  11.654   3.984  10.497
87215SOL     OW63541   3.728   7.110  10.977
87215SOL    HW163542   3.788   7.045  11.013
87215SOL    HW263543   3.644   7.065  10.970
87216SOL     OW63544   8.528   8.999   6.470
87216SOL    HW163545   8.454   8.938   6.475
87216SOL    HW263546   8.496   9.079   6.510
87217SOL     OW63547   2.663   3.597  10.279
87217SOL    HW163548   2.656   3.616  10.185
87217SOL    HW263549   2.682   3.682  10.319
87218SOL     OW63550   0.379  14.077  10.541
87218SOL    HW163551   0.436  14.001  10.552
87218SOL    HW263552   0.411  14.141  10.604
87219SOL     OW63553  12.326   7.553   4.001
87219SOL    HW163554  12.259   7.503   4.047
87219SOL    HW263555  12.309   7.535   3.908
87220SOL     OW63556  14.396   7.879  11.638
87220SOL    HW163557  14.378   7.788  11.614
87220SOL    HW263558  14.404   7.877  11.734
87221SOL     OW63559   8.762  12.159   7.220
87221SOL    HW163560   8.755  12.250   7.192
87221SOL    HW263561   8.855  12.140   7.220
87222SOL     OW63562   2.145   0.816   8.995
87222SOL    HW163563   2.149   0.910   9.012
87222SOL    HW263564   2.217   0.779   9.047
87223SOL     OW63565  13.051   3.785   5.671
87223SOL    HW163566  13.003   3.718   5.720
87223SOL    HW263567  13.057   3.859   5.731
87224SOL     OW63568  11.494   2.337  11.780
87224SOL    HW163569  11.473   2.259  11.831
87224SOL    HW263570  11.588   2.351  11.795
87225SOL     OW63571   0.392   8.882   3.623
87225SOL    HW163572   0.404   8.896   3.529
87225SOL    HW263573   0.477   8.904   3.661
87226SOL     OW63574  10.403   9.306  13.222
87226SOL    HW163575  10.357   9.258  13.291
87226SOL    HW263576  10.343   9.375  13.197
87227SOL     OW63577  13.420   4.196   5.135
87227SOL    HW163578  13.497   4.217   5.082
87227SOL    HW263579  13.417   4.264   5.202
87228SOL     OW63580  11.283   9.642  12.852
87228SOL    HW163581  11.307   9.555  12.883
87228SOL    HW263582  11.211   9.669  12.910
87229SOL     OW63583   8.917   4.451  13.935
87229SOL    HW163584   8.937   4.544  13.936
87229SOL    HW263585   8.939   4.421  14.023
87230SOL     OW63586   4.632   5.666  11.712
87230SOL    HW163587   4.609   5.595  11.772
87230SOL    HW263588   4.547   5.696  11.677
87231SOL     OW63589  11.038   9.982   2.039
87231SOL    HW163590  10.994  10.064   2.059
87231SOL    HW263591  11.029   9.930   2.119
87232SOL     OW63592   2.383  10.457   7.068
87232SOL    HW163593   2.388  10.552   7.080
87232SOL    HW263594   2.338  10.446   6.984
87233SOL     OW63595   5.044   6.190  10.206
87233SOL    HW163596   5.107   6.217  10.139
87233SOL    HW263597   4.959   6.216  10.170
87234SOL     OW63598   9.938  13.809  12.298
87234SOL    HW163599   9.847  13.779  12.294
87234SOL    HW263600   9.951  13.834  12.389
87235SOL     OW63601  11.345   7.010   7.330
87235SOL    HW163602  11.350   6.921   7.295
87235SOL    HW263603  11.436   7.031   7.352
87236SOL     OW63604  10.170   3.408   0.815
87236SOL    HW163605  10.148   3.461   0.738
87236SOL    HW263606  10.093   3.414   0.872
87237SOL     OW63607   9.398   4.511  14.275
87237SOL    HW163608   9.346   4.456  14.333
87237SOL    HW263609   9.335   4.543  14.210
87238SOL     OW63610   8.308   1.900   0.693
87238SOL    HW163611   8.235   1.957   0.672
87238SOL    HW263612   8.368   1.954   0.745
87239SOL     OW63613  10.141  12.882   5.682
87239SOL    HW163614  10.204  12.895   5.611
87239SOL    HW263615  10.174  12.806   5.730
87240SOL     OW63616  13.126   7.587   5.384
87240SOL    HW163617  13.118   7.677   5.414
87240SOL    HW263618  13.110   7.534   5.462
87241SOL     OW63619   3.432   3.540   9.254
87241SOL    HW163620   3.361   3.520   9.315
87241SOL    HW263621   3.485   3.460   9.252
87242SOL     OW63622  10.709   7.995   9.795
87242SOL    HW163623  10.692   7.909   9.758
87242SOL    HW263624  10.677   7.990   9.885
87243SOL     OW63625  11.867  11.444   9.839
87243SOL    HW163626  11.892  11.442   9.931
87243SOL    HW263627  11.942  11.406   9.793
87244SOL     OW63628   7.487   2.054   8.010
87244SOL    HW163629   7.449   2.015   8.088
87244SOL    HW263630   7.545   2.123   8.043
87245SOL     OW63631   0.310   4.358  10.758
87245SOL    HW163632   0.235   4.344  10.699
87245SOL    HW263633   0.319   4.453  10.762
87246SOL     OW63634  13.430  12.146   7.787
87246SOL    HW163635  13.359  12.087   7.761
87246SOL    HW263636  13.442  12.204   7.713
87247SOL     OW63637   0.630  14.452  13.526
87247SOL    HW163638   0.558  14.395  13.553
87247SOL    HW263639   0.656  14.418  13.439
87248SOL     OW63640  11.344   7.331   9.622
87248SOL    HW163641  11.259   7.324   9.666
87248SOL    HW263642  11.340   7.414   9.575
87249SOL     OW63643  11.645   1.243   1.363
87249SOL    HW163644  11.596   1.322   1.340
87249SOL    HW263645  11.679   1.260   1.451
87250SOL     OW63646   0.751   3.628   8.894
87250SOL    HW163647   0.742   3.714   8.935
87250SOL    HW263648   0.818   3.640   8.827
87251SOL     OW63649   5.120  10.630  11.588
87251SOL    HW163650   5.214  10.647  11.598
87251SOL    HW263651   5.100  10.654  11.498
87252SOL     OW63652  12.259  12.036   7.982
87252SOL    HW163653  12.257  12.125   8.017
87252SOL    HW263654  12.183  12.031   7.924
87253SOL     OW63655   3.519   8.440  10.729
87253SOL    HW163656   3.430   8.425  10.697
87253SOL    HW263657   3.558   8.352  10.731
87254SOL     OW63658  11.280  10.315   9.558
87254SOL    HW163659  11.231  10.241   9.523
87254SOL    HW263660  11.362  10.278   9.590
87255SOL     OW63661   9.232   1.800  13.363
87255SOL    HW163662   9.253   1.893  13.354
87255SOL    HW263663   9.253   1.763  13.277
87256SOL     OW63664  12.332  13.576   6.602
87256SOL    HW163665  12.303  13.485   6.605
87256SOL    HW263666  12.352  13.598   6.693
87257SOL     OW63667  14.359  10.301   0.021
87257SOL    HW163668  14.273  10.292   0.062
87257SOL    HW263669  14.414  10.237   0.066
87258SOL     OW63670   7.941   3.725  14.641
87258SOL    HW163671   7.979   3.732  14.729
87258SOL    HW263672   7.861   3.674  14.652
87259SOL     OW63673   3.210   6.855   5.220
87259SOL    HW163674   3.206   6.904   5.302
87259SOL    HW263675   3.290   6.804   5.227
87260SOL     OW63676  13.353   7.274  14.073
87260SOL    HW163677  13.382   7.234  14.156
87260SOL    HW263678  13.434   7.285  14.023
87261SOL     OW63679  14.217   1.865   3.020
87261SOL    HW163680  14.134   1.860   2.974
87261SOL    HW263681  14.227   1.779   3.060
87262SOL     OW63682   1.021   3.717   2.854
87262SOL    HW163683   1.060   3.690   2.771
87262SOL    HW263684   0.983   3.636   2.890
87263SOL     OW63685   0.841   9.519   7.026
87263SOL    HW163686   0.745   9.520   7.027
87263SOL    HW263687   0.865   9.605   6.992
87264SOL     OW63688  14.586   5.125   8.541
87264SOL    HW163689  14.638   5.066   8.596
87264SOL    HW263690  14.612   5.213   8.571
87265SOL     OW63691  10.415  13.949   0.857
87265SOL    HW163692  10.484  13.908   0.805
87265SOL    HW263693  10.354  13.877   0.876
87266SOL     OW63694  10.378   4.728  11.660
87266SOL    HW163695  10.384   4.641  11.621
87266SOL    HW263696  10.443   4.728  11.730
87267SOL     OW63697  10.308   4.272   3.860
87267SOL    HW163698  10.248   4.236   3.795
87267SOL    HW263699  10.395   4.254   3.824
87268SOL     OW63700   2.798  12.738  13.635
87268SOL    HW163701   2.834  12.689  13.562
87268SOL    HW263702   2.874  12.780  13.676
87269SOL     OW63703   5.339  14.573   8.819
87269SOL    HW163704   5.421  14.569   8.770
87269SOL    HW263705   5.309  14.663   8.810
87270SOL     OW63706   1.235  11.561  11.899
87270SOL    HW163707   1.188  11.587  11.820
87270SOL    HW263708   1.301  11.629  11.911
87271SOL     OW63709  11.584  12.902   0.886
87271SOL    HW163710  11.533  12.904   0.966
87271SOL    HW263711  11.562  12.818   0.846
87272SOL     OW63712   4.808  12.823   5.277
87272SOL    HW163713   4.744  12.752   5.290
87272SOL    HW263714   4.780  12.867   5.197
87273SOL     OW63715   4.404   2.243  13.408
87273SOL    HW163716   4.468   2.191  13.359
87273SOL    HW263717   4.433   2.237  13.499
87274SOL     OW63718  12.030   1.935  12.038
87274SOL    HW163719  12.050   1.846  12.008
87274SOL    HW263720  12.101   1.989  12.001
87275SOL     OW63721   3.175   0.196   8.533
87275SOL    HW163722   3.161   0.102   8.524
87275SOL    HW263723   3.177   0.211   8.628
87276SOL     OW63724   0.911   4.452   8.265
87276SOL    HW163725   0.978   4.513   8.234
87276SOL    HW263726   0.831   4.479   8.221
87277SOL     OW63727   0.556  14.439   0.555
87277SOL    HW163728   0.644  14.429   0.518
87277SOL    HW263729   0.570  14.480   0.640
87278SOL     OW63730  13.078  11.543   7.413
87278SOL    HW163731  13.166  11.507   7.403
87278SOL    HW263732  13.024  11.493   7.351
87279SOL     OW63733   6.812   9.787  13.314
87279SOL    HW163734   6.878   9.732  13.356
87279SOL    HW263735   6.730   9.739  13.326
87280SOL     OW63736  13.751   2.579  12.756
87280SOL    HW163737  13.688   2.526  12.708
87280SOL    HW263738  13.836   2.538  12.739
87281SOL     OW63739   7.051   5.346  10.847
87281SOL    HW163740   7.020   5.259  10.873
87281SOL    HW263741   7.126   5.328  10.790
87282SOL     OW63742   4.252   9.771   7.963
87282SOL    HW163743   4.219   9.798   7.877
87282SOL    HW263744   4.277   9.679   7.951
87283SOL     OW63745   7.297   6.213   2.112
87283SOL    HW163746   7.336   6.291   2.152
87283SOL    HW263747   7.318   6.142   2.173
87284SOL     OW63748   3.430  12.109  11.408
87284SOL    HW163749   3.351  12.151  11.441
87284SOL    HW263750   3.488  12.105  11.484
87285SOL     OW63751   6.258   9.230   1.571
87285SOL    HW163752   6.279   9.187   1.654
87285SOL    HW263753   6.259   9.324   1.592
87286SOL     OW63754   3.604   0.241   2.612
87286SOL    HW163755   3.680   0.183   2.613
87286SOL    HW263756   3.557   0.221   2.693
87287SOL     OW63757   6.862   5.227   4.561
87287SOL    HW163758   6.854   5.229   4.465
87287SOL    HW263759   6.782   5.184   4.591
87288SOL     OW63760  14.245   3.990  12.166
87288SOL    HW163761  14.268   4.080  12.187
87288SOL    HW263762  14.201   3.996  12.081
87289SOL     OW63763  10.400   1.867   8.211
87289SOL    HW163764  10.403   1.943   8.269
87289SOL    HW263765  10.492   1.844   8.198
87290SOL     OW63766   7.707   0.611   9.951
87290SOL    HW163767   7.718   0.705   9.939
87290SOL    HW263768   7.794   0.580   9.977
87291SOL     OW63769   8.520   9.888   5.656
87291SOL    HW163770   8.555   9.974   5.679
87291SOL    HW263771   8.499   9.847   5.741
87292SOL     OW63772  12.291  11.772  12.272
87292SOL    HW163773  12.292  11.816  12.357
87292SOL    HW263774  12.216  11.810  12.226
87293SOL     OW63775   3.589   5.242   7.624
87293SOL    HW163776   3.530   5.304   7.667
87293SOL    HW263777   3.673   5.254   7.668
87294SOL     OW63778  12.153   8.854  14.652
87294SOL    HW163779  12.131   8.773  14.699
87294SOL    HW263780  12.185   8.824  14.567
87295SOL     OW63781  13.774   8.479   0.299
87295SOL    HW163782  13.705   8.515   0.244
87295SOL    HW263783  13.832   8.432   0.239
87296SOL     OW63784  14.698   7.929   0.780
87296SOL    HW163785  14.769   7.867   0.797
87296SOL    HW263786  14.638   7.882   0.722
87297SOL     OW63787   6.670   8.210  12.021
87297SOL    HW163788   6.632   8.274  12.082
87297SOL    HW263789   6.594   8.167  11.981
87298SOL     OW63790   9.525   9.204  13.448
87298SOL    HW163791   9.555   9.119  13.416
87298SOL    HW263792   9.513   9.256  13.368
87299SOL     OW63793   7.012   0.480   6.766
87299SOL    HW163794   7.079   0.477   6.698
87299SOL    HW263795   6.972   0.393   6.765
87300SOL     OW63796  11.606   6.317   0.795
87300SOL    HW163797  11.520   6.297   0.833
87300SOL    HW263798  11.635   6.234   0.758
87301SOL     OW63799  13.461   2.282  12.595
87301SOL    HW163800  13.436   2.263  12.505
87301SOL    HW263801  13.554   2.306  12.590
87302SOL     OW63802   9.237   4.179   5.517
87302SOL    HW163803   9.187   4.218   5.445
87302SOL    HW263804   9.182   4.192   5.594
87303SOL     OW63805   1.779  12.277  10.467
87303SOL    HW163806   1.735  12.347  10.514
87303SOL    HW263807   1.813  12.219  10.536
87304SOL     OW63808   7.763   8.550   8.985
87304SOL    HW163809   7.719   8.542   9.070
87304SOL    HW263810   7.780   8.460   8.958
87305SOL     OW63811   9.497  12.671   6.161
87305SOL    HW163812   9.545  12.732   6.216
87305SOL    HW263813   9.499  12.710   6.074
87306SOL     OW63814  11.410  13.454   7.402
87306SOL    HW163815  11.348  13.399   7.450
87306SOL    HW263816  11.395  13.431   7.310
87307SOL     OW63817  14.641   7.266   9.153
87307SOL    HW163818  14.688   7.339   9.112
87307SOL    HW263819  14.566   7.307   9.196
87308SOL     OW63820   0.209   7.911  14.632
87308SOL    HW163821   0.208   7.951  14.545
87308SOL    HW263822   0.160   7.972  14.687
87309SOL     OW63823  10.843   4.580   4.202
87309SOL    HW163824  10.906   4.647   4.175
87309SOL    HW263825  10.892   4.498   4.196
87310SOL     OW63826   2.598  10.401   0.361
87310SOL    HW163827   2.531  10.356   0.311
87310SOL    HW263828   2.676  10.346   0.353
87311SOL     OW63829   8.383   8.746   4.469
87311SOL    HW163830   8.437   8.811   4.515
87311SOL    HW263831   8.416   8.748   4.379
87312SOL     OW63832   9.409   0.895  12.628
87312SOL    HW163833   9.333   0.899  12.570
87312SOL    HW263834   9.379   0.845  12.703
87313SOL     OW63835   1.310   5.639  10.026
87313SOL    HW163836   1.218   5.618  10.044
87313SOL    HW263837   1.307   5.727   9.988
87314SOL     OW63838  14.427   9.325   0.474
87314SOL    HW163839  14.370   9.291   0.405
87314SOL    HW263840  14.369   9.338   0.549
87315SOL     OW63841   4.378   4.562   4.246
87315SOL    HW163842   4.337   4.599   4.168
87315SOL    HW263843   4.439   4.497   4.212
87316SOL     OW63844   1.686  10.404  11.069
87316SOL    HW163845   1.593  10.411  11.046
87316SOL    HW263846   1.695  10.315  11.103
87317SOL     OW63847  13.180   3.076   3.827
87317SOL    HW163848  13.086   3.075   3.842
87317SOL    HW263849  13.191   3.124   3.745
87318SOL     OW63850  14.625  13.004  14.422
87318SOL    HW163851  14.673  13.063  14.480
87318SOL    HW263852  14.541  12.990  14.467
87319SOL     OW63853   6.464   3.906  10.828
87319SOL    HW163854   6.512   3.989  10.836
87319SOL    HW263855   6.516   3.844  10.878
87320SOL     OW63856   9.890  13.181   8.570
87320SOL    HW163857   9.799  13.177   8.542
87320SOL    HW263858   9.936  13.223   8.498
87321SOL     OW63859  11.814   3.451   3.960
87321SOL    HW163860  11.728   3.433   3.923
87321SOL    HW263861  11.795   3.504   4.038
87322SOL     OW63862   4.393   4.936   9.830
87322SOL    HW163863   4.324   4.870   9.822
87322SOL    HW263864   4.347   5.019   9.820
87323SOL     OW63865  11.369   6.760   8.507
87323SOL    HW163866  11.347   6.703   8.434
87323SOL    HW263867  11.300   6.743   8.572
87324SOL     OW63868  13.758   5.802   8.503
87324SOL    HW163869  13.835   5.860   8.501
87324SOL    HW263870  13.725   5.809   8.592
87325SOL     OW63871   3.717   3.850   9.635
87325SOL    HW163872   3.673   3.909   9.573
87325SOL    HW263873   3.646   3.806   9.681
87326SOL     OW63874   5.627  10.748   3.189
87326SOL    HW163875   5.585  10.770   3.272
87326SOL    HW263876   5.656  10.832   3.154
87327SOL     OW63877   8.994  10.014   0.303
87327SOL    HW163878   8.922  10.076   0.290
87327SOL    HW263879   8.974   9.972   0.387
87328SOL     OW63880  13.167  13.711   4.486
87328SOL    HW163881  13.075  13.693   4.465
87328SOL    HW263882  13.213  13.631   4.464
87329SOL     OW63883   7.898  13.225   8.447
87329SOL    HW163884   7.876  13.317   8.460
87329SOL    HW263885   7.883  13.210   8.353
87330SOL     OW63886   9.360   8.469   6.486
87330SOL    HW163887   9.430   8.419   6.443
87330SOL    HW263888   9.348   8.425   6.570
87331SOL     OW63889   3.726  13.865  14.354
87331SOL    HW163890   3.690  13.830  14.436
87331SOL    HW263891   3.664  13.834  14.287
87332SOL     OW63892   5.680   9.108   3.532
87332SOL    HW163893   5.695   9.021   3.496
87332SOL    HW263894   5.623   9.152   3.469
87333SOL     OW63895   3.795   4.486  14.850
87333SOL    HW163896   3.835   4.457  14.768
87333SOL    HW263897   3.726   4.421  14.867
87334SOL     OW63898  11.190   0.569   4.135
87334SOL    HW163899  11.222   0.593   4.221
87334SOL    HW263900  11.172   0.653   4.092
87335SOL     OW63901   7.682   6.790   1.209
87335SOL    HW163902   7.715   6.844   1.137
87335SOL    HW263903   7.747   6.720   1.218
87336SOL     OW63904  12.924  13.566   0.195
87336SOL    HW163905  12.835  13.601   0.199
87336SOL    HW263906  12.915  13.483   0.148
87337SOL     OW63907   0.621  14.835   5.909
87337SOL    HW163908   0.544  14.808   5.959
87337SOL    HW263909   0.600   0.044   5.880
87338SOL     OW63910  11.512   6.761  11.350
87338SOL    HW163911  11.447   6.765  11.280
87338SOL    HW263912  11.514   6.850  11.385
87339SOL     OW63913  13.478   1.755   9.148
87339SOL    HW163914  13.518   1.672   9.174
87339SOL    HW263915  13.549   1.819   9.153
87340SOL     OW63916   1.791   4.507   1.031
87340SOL    HW163917   1.882   4.520   1.057
87340SOL    HW263918   1.794   4.491   0.937
87341SOL     OW63919  14.258   7.681  11.256
87341SOL    HW163920  14.332   7.713  11.205
87341SOL    HW263921  14.212   7.761  11.284
87342SOL     OW63922  13.010   9.030   7.777
87342SOL    HW163923  13.010   9.108   7.832
87342SOL    HW263924  13.091   9.036   7.726
87343SOL     OW63925   2.776   6.731  13.793
87343SOL    HW163926   2.870   6.744  13.783
87343SOL    HW263927   2.761   6.727  13.887
87344SOL     OW63928   7.068   4.466  14.491
87344SOL    HW163929   6.985   4.420  14.477
87344SOL    HW263930   7.123   4.438  14.418
87345SOL     OW63931  12.640   0.877   5.288
87345SOL    HW163932  12.722   0.829   5.296
87345SOL    HW263933  12.664   0.968   5.306
87346SOL     OW63934   4.288   7.177   6.998
87346SOL    HW163935   4.380   7.156   7.014
87346SOL    HW263936   4.244   7.154   7.079
87347SOL     OW63937  11.637  12.944   4.722
87347SOL    HW163938  11.556  12.979   4.760
87347SOL    HW263939  11.681  13.021   4.684
87348SOL     OW63940   7.674  11.924   7.853
87348SOL    HW163941   7.727  11.847   7.876
87348SOL    HW263942   7.585  11.891   7.850
87349SOL     OW63943   0.271   3.029  11.737
87349SOL    HW163944   0.201   2.968  11.709
87349SOL    HW263945   0.347   2.973  11.751
87350SOL     OW63946  13.407  10.573  14.169
87350SOL    HW163947  13.395  10.533  14.083
87350SOL    HW263948  13.323  10.561  14.213
87351SOL     OW63949  14.067  11.698   9.945
87351SOL    HW163950  13.999  11.635   9.970
87351SOL    HW263951  14.138  11.683  10.008
87352SOL     OW63952   7.002   6.426   6.672
87352SOL    HW163953   6.984   6.451   6.762
87352SOL    HW263954   6.916   6.423   6.630
87353SOL     OW63955   6.503   4.132   8.420
87353SOL    HW163956   6.594   4.126   8.447
87353SOL    HW263957   6.478   4.223   8.436
87354SOL     OW63958   5.292   4.542   5.975
87354SOL    HW163959   5.310   4.554   6.069
87354SOL    HW263960   5.378   4.542   5.934
87355SOL     OW63961   4.802   5.290  13.573
87355SOL    HW163962   4.762   5.362  13.524
87355SOL    HW263963   4.742   5.275  13.647
87356SOL     OW63964   2.655   8.502   5.345
87356SOL    HW163965   2.575   8.553   5.358
87356SOL    HW263966   2.694   8.495   5.432
87357SOL     OW63967   8.656   8.916   9.239
87357SOL    HW163968   8.742   8.874   9.247
87357SOL    HW263969   8.672   8.992   9.183
87358SOL     OW63970   9.629   5.516   1.651
87358SOL    HW163971   9.562   5.508   1.719
87358SOL    HW263972   9.642   5.426   1.620
87359SOL     OW63973   0.716   2.624   9.225
87359SOL    HW163974   0.713   2.531   9.249
87359SOL    HW263975   0.729   2.624   9.130
87360SOL     OW63976  13.761   9.339   6.033
87360SOL    HW163977  13.782   9.399   6.105
87360SOL    HW263978  13.844   9.328   5.986
87361SOL     OW63979  11.574   4.601   0.936
87361SOL    HW163980  11.482   4.577   0.950
87361SOL    HW263981  11.614   4.596   1.023
87362SOL     OW63982  14.814  10.251   2.659
87362SOL    HW163983   0.023  10.219   2.649
87362SOL    HW263984  14.796  10.246   2.753
87363SOL     OW63985  12.791   5.921  10.657
87363SOL    HW163986  12.847   5.998  10.663
87363SOL    HW263987  12.826   5.872  10.582
87364SOL     OW63988   4.551   1.412  10.265
87364SOL    HW163989   4.558   1.336  10.324
87364SOL    HW263990   4.625   1.403  10.206
87365SOL     OW63991  14.677   9.957  13.250
87365SOL    HW163992  14.654   9.974  13.159
87365SOL    HW263993  14.600   9.914  13.287
87366SOL     OW63994  11.829  13.588   7.516
87366SOL    HW163995  11.764  13.518   7.520
87366SOL    HW263996  11.904  13.550   7.471
87367SOL     OW63997   1.227   5.582   4.680
87367SOL    HW163998   1.186   5.498   4.657
87367SOL    HW263999   1.153   5.641   4.697
87368SOL     OW64000   9.321   1.660   8.417
87368SOL    HW164001   9.367   1.613   8.487
87368SOL    HW264002   9.235   1.680   8.454
87369SOL     OW64003   6.179   3.370   9.971
87369SOL    HW164004   6.231   3.290   9.964
87369SOL    HW264005   6.098   3.350   9.925
87370SOL     OW64006   2.662   8.219   6.397
87370SOL    HW164007   2.735   8.163   6.425
87370SOL    HW264008   2.699   8.272   6.327
87371SOL     OW64009   4.150  12.837  12.074
87371SOL    HW164010   4.099  12.895  12.130
87371SOL    HW264011   4.223  12.890  12.043
87372SOL     OW64012   1.211   2.649   1.031
87372SOL    HW164013   1.200   2.743   1.021
87372SOL    HW264014   1.122   2.615   1.035
87373SOL     OW64015   5.341   7.234  14.461
87373SOL    HW164016   5.262   7.183  14.442
87373SOL    HW264017   5.343   7.241  14.557
87374SOL     OW64018   3.048   8.977   5.823
87374SOL    HW164019   2.966   9.019   5.852
87374SOL    HW264020   3.053   8.996   5.730
87375SOL     OW64021   2.182  12.806  13.805
87375SOL    HW164022   2.227  12.863  13.743
87375SOL    HW264023   2.219  12.829  13.890
87376SOL     OW64024   2.244  11.749   5.569
87376SOL    HW164025   2.206  11.812   5.630
87376SOL    HW264026   2.199  11.767   5.486
87377SOL     OW64027   7.540  13.172  12.976
87377SOL    HW164028   7.598  13.215  13.039
87377SOL    HW264029   7.473  13.130  13.030
87378SOL     OW64030   8.653  10.662  10.197
87378SOL    HW164031   8.694  10.732  10.248
87378SOL    HW264032   8.696  10.582  10.227
87379SOL     OW64033  14.793  14.038   3.533
87379SOL    HW164034  14.815  13.952   3.497
87379SOL    HW264035  14.876  14.085   3.537
87380SOL     OW64036  12.801   7.639  10.565
87380SOL    HW164037  12.720   7.621  10.613
87380SOL    HW264038  12.867   7.655  10.632
87381SOL     OW64039   0.433  10.637   7.201
87381SOL    HW164040   0.397  10.578   7.134
87381SOL    HW264041   0.497  10.690   7.153
87382SOL     OW64042   1.679   2.646  12.851
87382SOL    HW164043   1.594   2.661  12.810
87382SOL    HW264044   1.734   2.718  12.821
87383SOL     OW64045  13.288  13.687  11.726
87383SOL    HW164046  13.361  13.631  11.751
87383SOL    HW264047  13.210  13.641  11.758
87384SOL     OW64048  14.042   1.130  12.203
87384SOL    HW164049  14.098   1.142  12.126
87384SOL    HW264050  14.012   1.040  12.197
87385SOL     OW64051   5.625   3.541   7.938
87385SOL    HW164052   5.570   3.587   7.875
87385SOL    HW264053   5.593   3.570   8.024
87386SOL     OW64054   6.873  12.463   1.869
87386SOL    HW164055   6.834  12.380   1.841
87386SOL    HW264056   6.838  12.477   1.957
87387SOL     OW64057   5.421  13.309   6.855
87387SOL    HW164058   5.368  13.243   6.809
87387SOL    HW264059   5.385  13.309   6.944
87388SOL     OW64060  12.929   8.879   9.703
87388SOL    HW164061  13.016   8.880   9.744
87388SOL    HW264062  12.870   8.855   9.774
87389SOL     OW64063   8.838  13.922   1.391
87389SOL    HW164064   8.814  14.012   1.412
87389SOL    HW264065   8.789  13.868   1.453
87390SOL     OW64066   6.395   7.120   0.710
87390SOL    HW164067   6.333   7.047   0.705
87390SOL    HW264068   6.479   7.083   0.683
87391SOL     OW64069   2.368   1.954   6.581
87391SOL    HW164070   2.411   2.018   6.523
87391SOL    HW264071   2.432   1.883   6.589
87392SOL     OW64072  10.568   1.010  10.890
87392SOL    HW164073  10.538   1.082  10.835
87392SOL    HW264074  10.493   0.988  10.945
87393SOL     OW64075   7.268   5.810  13.940
87393SOL    HW164076   7.301   5.773  14.021
87393SOL    HW264077   7.300   5.900  13.939
87394SOL     OW64078   2.657  12.449   5.683
87394SOL    HW164079   2.621  12.538   5.688
87394SOL    HW264080   2.659  12.420   5.774
87395SOL     OW64081  14.360  14.160   0.883
87395SOL    HW164082  14.267  14.147   0.866
87395SOL    HW264083  14.404  14.096   0.827
87396SOL     OW64084  12.236   9.478   2.930
87396SOL    HW164085  12.214   9.411   2.865
87396SOL    HW264086  12.152   9.520   2.951
87397SOL     OW64087  11.967   0.363   4.020
87397SOL    HW164088  12.005   0.451   4.015
87397SOL    HW264089  11.916   0.363   4.101
87398SOL     OW64090   8.247  14.501   1.248
87398SOL    HW164091   8.289  14.538   1.171
87398SOL    HW264092   8.310  14.515   1.319
87399SOL     OW64093  11.230   3.315   3.005
87399SOL    HW164094  11.197   3.234   3.044
87399SOL    HW264095  11.325   3.304   3.002
87400SOL     OW64096  14.379   8.137   7.332
87400SOL    HW164097  14.457   8.187   7.309
87400SOL    HW264098  14.320   8.150   7.258
87401SOL     OW64099   4.679  10.162   9.331
87401SOL    HW164100   4.672  10.205   9.245
87401SOL    HW264101   4.602  10.106   9.336
87402SOL     OW64102   8.876   8.894  14.032
87402SOL    HW164103   8.897   8.969  13.976
87402SOL    HW264104   8.960   8.852  14.050
87403SOL     OW64105   1.311  14.260  13.923
87403SOL    HW164106   1.328  14.167  13.938
87403SOL    HW264107   1.222  14.262  13.887
87404SOL     OW64108  11.751   2.348   8.682
87404SOL    HW164109  11.804   2.271   8.701
87404SOL    HW264110  11.662   2.315   8.674
87405SOL     OW64111   0.826   2.400  10.788
87405SOL    HW164112   0.913   2.427  10.816
87405SOL    HW264113   0.787   2.362  10.867
87406SOL     OW64114   2.855   1.053  13.684
87406SOL    HW164115   2.902   0.994  13.743
87406SOL    HW264116   2.901   1.137  13.691
87407SOL     OW64117  10.248   7.522   0.906
87407SOL    HW164118  10.308   7.596   0.911
87407SOL    HW264119  10.296   7.449   0.947
87408SOL     OW64120  14.230   4.809   7.969
87408SOL    HW164121  14.171   4.787   7.897
87408SOL    HW264122  14.258   4.725   8.005
87409SOL     OW64123   4.952  11.827   6.855
87409SOL    HW164124   4.931  11.743   6.815
87409SOL    HW264125   4.951  11.889   6.782
87410SOL     OW64126   3.601  10.677  12.792
87410SOL    HW164127   3.555  10.670  12.709
87410SOL    HW264128   3.684  10.630  12.778
87411SOL     OW64129  13.306   0.267   7.094
87411SOL    HW164130  13.254   0.317   7.157
87411SOL    HW264131  13.317   0.181   7.135
87412SOL     OW64132   8.938  11.419   4.055
87412SOL    HW164133   8.892  11.385   4.132
87412SOL    HW264134   8.873  11.415   3.984
87413SOL     OW64135   5.618  11.405   5.594
87413SOL    HW164136   5.605  11.313   5.570
87413SOL    HW264137   5.695  11.432   5.543
87414SOL     OW64138   4.562   6.007   1.246
87414SOL    HW164139   4.636   6.068   1.238
87414SOL    HW264140   4.485   6.063   1.250
87415SOL     OW64141   9.838   2.464  11.534
87415SOL    HW164142   9.805   2.522  11.602
87415SOL    HW264143   9.857   2.382  11.580
87416SOL     OW64144   3.216   5.069   7.541
87416SOL    HW164145   3.162   5.073   7.462
87416SOL    HW264146   3.169   5.122   7.606
87417SOL     OW64147   1.911   0.167   2.531
87417SOL    HW164148   1.960   0.120   2.464
87417SOL    HW264149   1.945   0.256   2.528
87418SOL     OW64150   7.605   3.450   5.169
87418SOL    HW164151   7.535   3.513   5.187
87418SOL    HW264152   7.672   3.469   5.234
87419SOL     OW64153   0.195   4.925  12.456
87419SOL    HW164154   0.259   4.867  12.497
87419SOL    HW264155   0.231   4.943  12.370
87420SOL     OW64156   1.287   8.721  12.384
87420SOL    HW164157   1.353   8.658  12.355
87420SOL    HW264158   1.313   8.744  12.473
87421SOL     OW64159  10.041   8.636   4.440
87421SOL    HW164160  10.068   8.625   4.531
87421SOL    HW264161  10.032   8.547   4.407
87422SOL     OW64162  10.910   7.123  13.095
87422SOL    HW164163  10.849   7.189  13.128
87422SOL    HW264164  10.859   7.072  13.032
87423SOL     OW64165   7.677  11.728   7.099
87423SOL    HW164166   7.702  11.757   7.186
87423SOL    HW264167   7.581  11.729   7.099
87424SOL     OW64168  13.127   4.014  13.499
87424SOL    HW164169  13.085   4.011  13.413
87424SOL    HW264170  13.189   3.941  13.498
87425SOL     OW64171   2.095  13.210   0.377
87425SOL    HW164172   2.047  13.149   0.322
87425SOL    HW264173   2.085  13.295   0.334
87426SOL     OW64174   1.667   8.716  12.954
87426SOL    HW164175   1.671   8.792  12.897
87426SOL    HW264176   1.630   8.647  12.899
87427SOL     OW64177   4.277   9.534   7.308
87427SOL    HW164178   4.320   9.611   7.344
87427SOL    HW264179   4.329   9.512   7.231
87428SOL     OW64180   8.053  11.719   9.822
87428SOL    HW164181   8.006  11.784   9.770
87428SOL    HW264182   8.061  11.759   9.909
87429SOL     OW64183  12.480  10.863   1.472
87429SOL    HW164184  12.502  10.861   1.379
87429SOL    HW264185  12.561  10.838   1.517
87430SOL     OW64186   0.542  14.472   4.924
87430SOL    HW164187   0.448  14.489   4.924
87430SOL    HW264188   0.551  14.382   4.955
87431SOL     OW64189   8.044  11.338   0.243
87431SOL    HW164190   7.956  11.306   0.261
87431SOL    HW264191   8.066  11.302   0.157
87432SOL     OW64192   9.649   8.176   7.049
87432SOL    HW164193   9.674   8.206   6.961
87432SOL    HW264194   9.728   8.188   7.102
87433SOL     OW64195   1.236   1.835   1.108
87433SOL    HW164196   1.194   1.803   1.029
87433SOL    HW264197   1.165   1.840   1.173
87434SOL     OW64198  12.567  13.292   4.995
87434SOL    HW164199  12.598  13.314   5.083
87434SOL    HW264200  12.600  13.362   4.939
87435SOL     OW64201   2.116   8.607   0.097
87435SOL    HW164202   2.195   8.566   0.061
87435SOL    HW264203   2.093   8.674   0.033
87436SOL     OW64204  12.964   1.292   7.006
87436SOL    HW164205  12.901   1.241   6.956
87436SOL    HW264206  13.024   1.327   6.940
87437SOL     OW64207  10.488   0.602  12.143
87437SOL    HW164208  10.488   0.694  12.169
87437SOL    HW264209  10.413   0.564  12.189
87438SOL     OW64210  13.026   8.923   2.844
87438SOL    HW164211  13.045   8.846   2.791
87438SOL    HW264212  13.009   8.993   2.780
87439SOL     OW64213   9.907   4.201  13.380
87439SOL    HW164214   9.886   4.165  13.466
87439SOL    HW264215   9.879   4.292  13.385
87440SOL     OW64216   6.991  13.281  12.677
87440SOL    HW164217   7.044  13.205  12.650
87440SOL    HW264218   7.028  13.308  12.760
87441SOL     OW64219  13.552   8.878  14.046
87441SOL    HW164220  13.457   8.871  14.061
87441SOL    HW264221  13.577   8.792  14.012
87442SOL     OW64222   6.459   4.275   0.801
87442SOL    HW164223   6.505   4.312   0.875
87442SOL    HW264224   6.507   4.194   0.781
87443SOL     OW64225  14.668  12.527   8.304
87443SOL    HW164226  14.705  12.611   8.276
87443SOL    HW264227  14.691  12.466   8.234
87444SOL     OW64228  13.878   0.338   8.188
87444SOL    HW164229  13.856   0.275   8.257
87444SOL    HW264230  13.796   0.384   8.170
87445SOL     OW64231   8.471  13.364   9.855
87445SOL    HW164232   8.408  13.299   9.824
87445SOL    HW264233   8.509  13.400   9.774
87446SOL     OW64234   7.506  14.180   9.786
87446SOL    HW164235   7.430  14.125   9.809
87446SOL    HW264236   7.536  14.215   9.870
87447SOL     OW64237  13.930   9.106  11.055
87447SOL    HW164238  13.993   9.105  11.127
87447SOL    HW264239  13.982   9.083  10.978
87448SOL     OW64240   3.439  12.433   3.500
87448SOL    HW164241   3.369  12.487   3.537
87448SOL    HW264242   3.491  12.406   3.576
87449SOL     OW64243   4.427  10.127   8.991
87449SOL    HW164244   4.395  10.058   9.049
87449SOL    HW264245   4.351  10.183   8.976
87450SOL     OW64246   4.044   3.695  10.660
87450SOL    HW164247   4.030   3.627  10.726
87450SOL    HW264248   4.123   3.667  10.614
87451SOL     OW64249   2.452   1.398   9.703
87451SOL    HW164250   2.445   1.383   9.609
87451SOL    HW264251   2.544   1.418   9.718
87452SOL     OW64252   4.270   7.959   8.259
87452SOL    HW164253   4.202   7.983   8.196
87452SOL    HW264254   4.239   7.877   8.298
87453SOL     OW64255   9.997   6.016  13.402
87453SOL    HW164256   9.997   6.017  13.497
87453SOL    HW264257  10.071   5.960  13.378
87454SOL     OW64258   9.462  12.849   5.516
87454SOL    HW164259   9.511  12.838   5.435
87454SOL    HW264260   9.493  12.779   5.573
87455SOL     OW64261   0.091   4.355   7.523
87455SOL    HW164262   0.179   4.317   7.518
87455SOL    HW264263   0.070   4.356   7.616
87456SOL     OW64264  11.132   8.412  13.064
87456SOL    HW164265  11.121   8.345  12.996
87456SOL    HW264266  11.219   8.449  13.046
87457SOL     OW64267  10.008   2.406   9.894
87457SOL    HW164268  10.062   2.341   9.849
87457SOL    HW264269  10.063   2.485   9.899
87458SOL     OW64270   2.765  14.494   5.769
87458SOL    HW164271   2.751  14.415   5.717
87458SOL    HW264272   2.780  14.563   5.704
87459SOL     OW64273  13.220   9.115   6.738
87459SOL    HW164274  13.143   9.079   6.695
87459SOL    HW264275  13.288   9.050   6.724
87460SOL     OW64276   0.668   5.654   6.201
87460SOL    HW164277   0.710   5.659   6.115
87460SOL    HW264278   0.736   5.683   6.263
87461SOL     OW64279   9.238   1.396  13.624
87461SOL    HW164280   9.260   1.334  13.692
87461SOL    HW264281   9.303   1.380  13.555
87462SOL     OW64282   4.379   8.248   9.920
87462SOL    HW164283   4.441   8.231   9.990
87462SOL    HW264284   4.400   8.337   9.891
87463SOL     OW64285   1.595  14.477  10.682
87463SOL    HW164286   1.687  14.485  10.708
87463SOL    HW264287   1.595  14.497  10.588
87464SOL     OW64288   9.687   4.689  13.607
87464SOL    HW164289   9.767   4.738  13.625
87464SOL    HW264290   9.621   4.756  13.589
87465SOL     OW64291  14.723   3.998   7.894
87465SOL    HW164292  14.752   4.023   7.982
87465SOL    HW264293  14.801   4.007   7.840
87466SOL     OW64294   6.237   6.667   2.248
87466SOL    HW164295   6.193   6.667   2.333
87466SOL    HW264296   6.306   6.733   2.256
87467SOL     OW64297   0.574   7.545  14.645
87467SOL    HW164298   0.540   7.624  14.687
87467SOL    HW264299   0.661   7.533  14.683
87468SOL     OW64300  10.983   8.845  11.156
87468SOL    HW164301  10.959   8.868  11.066
87468SOL    HW264302  10.950   8.918  11.209
87469SOL     OW64303   4.389  10.480  11.150
87469SOL    HW164304   4.346  10.459  11.068
87469SOL    HW264305   4.325  10.459  11.218
87470SOL     OW64306  13.730  10.960   0.709
87470SOL    HW164307  13.743  10.920   0.795
87470SOL    HW264308  13.691  10.890   0.657
87471SOL     OW64309  13.048   0.779   7.259
87471SOL    HW164310  13.084   0.865   7.236
87471SOL    HW264311  13.077   0.722   7.189
87472SOL     OW64312  12.421   8.592  12.495
87472SOL    HW164313  12.435   8.511  12.447
87472SOL    HW264314  12.329   8.615  12.477
87473SOL     OW64315   2.172   1.287   5.057
87473SOL    HW164316   2.145   1.302   5.147
87473SOL    HW264317   2.247   1.228   5.065
87474SOL     OW64318   6.950  13.811  12.531
87474SOL    HW164319   7.017  13.869  12.494
87474SOL    HW264320   6.872  13.866  12.537
87475SOL     OW64321   7.724  14.588  11.678
87475SOL    HW164322   7.794  14.638  11.718
87475SOL    HW264323   7.672  14.654  11.631
87476SOL     OW64324   4.967  10.634   2.835
87476SOL    HW164325   4.922  10.682   2.905
87476SOL    HW264326   5.058  10.663   2.840
87477SOL     OW64327  11.021   5.528   9.896
87477SOL    HW164328  11.032   5.470   9.971
87477SOL    HW264329  11.087   5.501   9.834
87478SOL     OW64330   3.392   8.594   2.070
87478SOL    HW164331   3.411   8.584   2.163
87478SOL    HW264332   3.345   8.514   2.046
87479SOL     OW64333   8.667   2.804   4.427
87479SOL    HW164334   8.610   2.729   4.407
87479SOL    HW264335   8.664   2.810   4.523
87480SOL     OW64336   1.439  11.289   6.185
87480SOL    HW164337   1.462  11.209   6.138
87480SOL    HW264338   1.405  11.348   6.117
87481SOL     OW64339   3.635  10.877  13.748
87481SOL    HW164340   3.638  10.785  13.723
87481SOL    HW264341   3.609  10.876  13.840
87482SOL     OW64342  14.354  10.013   6.118
87482SOL    HW164343  14.449  10.009   6.114
87482SOL    HW264344  14.335  10.053   6.202
87483SOL     OW64345   2.488  13.511   6.849
87483SOL    HW164346   2.417  13.560   6.806
87483SOL    HW264347   2.526  13.458   6.779
87484SOL     OW64348  12.210   2.620   6.545
87484SOL    HW164349  12.244   2.555   6.483
87484SOL    HW264350  12.159   2.569   6.608
87485SOL     OW64351   3.227   0.933  11.995
87485SOL    HW164352   3.142   0.889  12.004
87485SOL    HW264353   3.285   0.866  11.960
87486SOL     OW64354   5.553  10.360  14.861
87486SOL    HW164355   5.533  10.275  14.824
87486SOL    HW264356   5.518  10.357   0.070
87487SOL     OW64357   6.144   8.478  10.818
87487SOL    HW164358   6.128   8.429  10.899
87487SOL    HW264359   6.062   8.526  10.803
87488SOL     OW64360   1.610  11.617   3.860
87488SOL    HW164361   1.578  11.702   3.829
87488SOL    HW264362   1.660  11.638   3.939
87489SOL     OW64363   4.445   5.575   0.086
87489SOL    HW164364   4.453   5.668   0.063
87489SOL    HW264365   4.406   5.575   0.173
87490SOL     OW64366  14.648  10.498   5.020
87490SOL    HW164367  14.734  10.539   5.025
87490SOL    HW264368  14.649  10.451   4.936
87491SOL     OW64369  11.658  13.900   0.440
87491SOL    HW164370  11.647  13.973   0.502
87491SOL    HW264371  11.587  13.839   0.462
87492SOL     OW64372   2.546  11.806   9.359
87492SOL    HW164373   2.502  11.758   9.429
87492SOL    HW264374   2.517  11.896   9.370
87493SOL     OW64375   4.903  14.815   0.286
87493SOL    HW164376   4.915   0.004   0.221
87493SOL    HW264377   4.992  14.792   0.313
87494SOL     OW64378   0.726   7.862   2.183
87494SOL    HW164379   0.652   7.839   2.239
87494SOL    HW264380   0.704   7.948   2.147
87495SOL     OW64381  14.768   6.221   6.786
87495SOL    HW164382  14.785   6.226   6.880
87495SOL    HW264383  14.756   6.311   6.758
87496SOL     OW64384  11.872  14.437   7.695
87496SOL    HW164385  11.815  14.476   7.762
87496SOL    HW264386  11.894  14.509   7.636
87497SOL     OW64387   4.981   9.114  12.985
87497SOL    HW164388   4.997   9.106  13.079
87497SOL    HW264389   5.069   9.119  12.946
87498SOL     OW64390   5.993  13.900   7.265
87498SOL    HW164391   5.988  13.995   7.252
87498SOL    HW264392   6.034  13.867   7.185
87499SOL     OW64393   1.255   3.824   9.803
87499SOL    HW164394   1.171   3.869   9.797
87499SOL    HW264395   1.283   3.814   9.712
87500SOL     OW64396   4.236  11.418   0.254
87500SOL    HW164397   4.196  11.477   0.318
87500SOL    HW264398   4.283  11.475   0.194
87501SOL     OW64399   4.498   6.031  13.349
87501SOL    HW164400   4.443   6.108  13.339
87501SOL    HW264401   4.443   5.966  13.393
87502SOL     OW64402  12.609   7.021   8.702
87502SOL    HW164403  12.598   7.106   8.744
87502SOL    HW264404  12.639   6.964   8.773
87503SOL     OW64405  12.532   9.493  11.656
87503SOL    HW164406  12.537   9.584  11.685
87503SOL    HW264407  12.597   9.447  11.709
87504SOL     OW64408   8.656   1.182   9.789
87504SOL    HW164409   8.679   1.272   9.810
87504SOL    HW264410   8.728   1.129   9.825
87505SOL     OW64411   8.058   9.593   8.206
87505SOL    HW164412   8.142   9.593   8.162
87505SOL    HW264413   8.066   9.526   8.274
87506SOL     OW64414  13.066  13.052   8.568
87506SOL    HW164415  13.040  12.967   8.531
87506SOL    HW264416  13.117  13.029   8.645
87507SOL     OW64417   4.494   2.842   6.810
87507SOL    HW164418   4.498   2.781   6.736
87507SOL    HW264419   4.569   2.819   6.865
87508SOL     OW64420   8.860   2.213   3.506
87508SOL    HW164421   8.786   2.153   3.517
87508SOL    HW264422   8.895   2.224   3.595
87509SOL     OW64423   7.487  10.902   8.817
87509SOL    HW164424   7.564  10.864   8.859
87509SOL    HW264425   7.516  10.925   8.729
87510SOL     OW64426  13.303  13.947   7.054
87510SOL    HW164427  13.358  14.000   6.996
87510SOL    HW264428  13.362  13.916   7.123
87511SOL     OW64429   7.428   8.415  12.656
87511SOL    HW164430   7.397   8.504  12.670
87511SOL    HW264431   7.482   8.421  12.577
87512SOL     OW64432  12.418   6.300  12.773
87512SOL    HW164433  12.442   6.366  12.838
87512SOL    HW264434  12.424   6.217  12.819
87513SOL     OW64435  10.349  10.799   6.564
87513SOL    HW164436  10.316  10.808   6.474
87513SOL    HW264437  10.353  10.889   6.597
87514SOL     OW64438   2.222   0.586   7.366
87514SOL    HW164439   2.279   0.521   7.409
87514SOL    HW264440   2.182   0.538   7.294
87515SOL     OW64441   8.163   0.770  13.464
87515SOL    HW164442   8.077   0.790  13.501
87515SOL    HW264443   8.143   0.717  13.386
87516SOL     OW64444   2.250   9.703  11.109
87516SOL    HW164445   2.343   9.692  11.090
87516SOL    HW264446   2.218   9.762  11.041
87517SOL     OW64447   9.555  10.672   0.984
87517SOL    HW164448   9.645  10.645   1.004
87517SOL    HW264449   9.564  10.740   0.917
87518SOL     OW64450   3.205  14.299   7.763
87518SOL    HW164451   3.291  14.336   7.745
87518SOL    HW264452   3.144  14.355   7.714
87519SOL     OW64453   1.796   8.206  14.179
87519SOL    HW164454   1.808   8.300  14.171
87519SOL    HW264455   1.777   8.176  14.090
87520SOL     OW64456   6.777   9.973   2.081
87520SOL    HW164457   6.739   9.913   2.017
87520SOL    HW264458   6.861   9.999   2.043
87521SOL     OW64459   6.939   4.336   7.674
87521SOL    HW164460   6.916   4.321   7.766
87521SOL    HW264461   6.963   4.429   7.670
87522SOL     OW64462   7.329   4.988  12.635
87522SOL    HW164463   7.242   4.991  12.595
87522SOL    HW264464   7.316   5.026  12.722
87523SOL     OW64465   2.782   5.926   3.399
87523SOL    HW164466   2.770   5.839   3.438
87523SOL    HW264467   2.851   5.966   3.450
87524SOL     OW64468   8.227   6.371   5.407
87524SOL    HW164469   8.296   6.438   5.401
87524SOL    HW264470   8.148   6.415   5.375
87525SOL     OW64471   1.983  10.122  11.658
87525SOL    HW164472   2.021  10.144  11.573
87525SOL    HW264473   2.052  10.075  11.704
87526SOL     OW64474   7.177   1.749   0.648
87526SOL    HW164475   7.269   1.732   0.666
87526SOL    HW264476   7.177   1.805   0.570
87527SOL     OW64477   9.604  11.009  14.072
87527SOL    HW164478   9.563  11.077  14.018
87527SOL    HW264479   9.662  11.057  14.131
87528SOL     OW64480   2.388   9.001   1.538
87528SOL    HW164481   2.339   8.929   1.499
87528SOL    HW264482   2.453   8.958   1.594
87529SOL     OW64483  12.886   5.611   3.881
87529SOL    HW164484  12.853   5.568   3.802
87529SOL    HW264485  12.911   5.698   3.852
87530SOL     OW64486   7.370  12.222   5.278
87530SOL    HW164487   7.388  12.315   5.292
87530SOL    HW264488   7.394  12.207   5.187
87531SOL     OW64489  11.378  11.142   0.900
87531SOL    HW164490  11.288  11.110   0.895
87531SOL    HW264491  11.373  11.218   0.958
87532SOL     OW64492   3.556   4.330   5.520
87532SOL    HW164493   3.491   4.264   5.542
87532SOL    HW264494   3.535   4.356   5.430
87533SOL     OW64495   0.027   9.086  10.022
87533SOL    HW164496   0.027   9.181  10.010
87533SOL    HW264497   0.083   9.053   9.952
87534SOL     OW64498   9.702   9.342   2.382
87534SOL    HW164499   9.644   9.398   2.330
87534SOL    HW264500   9.678   9.253   2.357
87535SOL     OW64501  10.998   9.484   0.851
87535SOL    HW164502  11.016   9.401   0.895
87535SOL    HW264503  11.067   9.492   0.785
87536SOL     OW64504  12.608  13.497   7.474
87536SOL    HW164505  12.631  13.406   7.457
87536SOL    HW264506  12.673  13.548   7.425
87537SOL     OW64507   9.441   6.732   4.579
87537SOL    HW164508   9.465   6.796   4.645
87537SOL    HW264509   9.504   6.744   4.508
87538SOL     OW64510  10.776   5.711   3.562
87538SOL    HW164511  10.852   5.695   3.618
87538SOL    HW264512  10.702   5.708   3.622
87539SOL     OW64513   8.991   7.181   2.616
87539SOL    HW164514   8.955   7.265   2.643
87539SOL    HW264515   8.965   7.172   2.524
87540SOL     OW64516   7.647  14.074   3.527
87540SOL    HW164517   7.615  13.985   3.515
87540SOL    HW264518   7.630  14.118   3.444
87541SOL     OW64519   3.584   2.946   4.462
87541SOL    HW164520   3.559   3.027   4.418
87541SOL    HW264521   3.536   2.949   4.545
87542SOL     OW64522   2.059   3.080   7.847
87542SOL    HW164523   2.045   3.061   7.940
87542SOL    HW264524   1.976   3.117   7.817
87543SOL     OW64525   5.660  14.278  10.637
87543SOL    HW164526   5.632  14.340  10.570
87543SOL    HW264527   5.604  14.297  10.713
87544SOL     OW64528  14.593  13.208  11.276
87544SOL    HW164529  14.512  13.193  11.226
87544SOL    HW264530  14.663  13.189  11.214
87545SOL     OW64531  11.576   9.461   7.769
87545SOL    HW164532  11.494   9.508   7.754
87545SOL    HW264533  11.593   9.472   7.862
87546SOL     OW64534   8.343   7.454   5.519
87546SOL    HW164535   8.424   7.454   5.468
87546SOL    HW264536   8.292   7.526   5.483
87547SOL     OW64537  10.782   7.775  10.947
87547SOL    HW164538  10.698   7.814  10.968
87547SOL    HW264539  10.818   7.830  10.877
87548SOL     OW64540   8.105   0.559  11.138
87548SOL    HW164541   8.144   0.610  11.067
87548SOL    HW264542   8.175   0.551  11.203
87549SOL     OW64543   7.733   2.175  11.840
87549SOL    HW164544   7.668   2.123  11.887
87549SOL    HW264545   7.701   2.265  11.847
87550SOL     OW64546   7.006   9.072   6.817
87550SOL    HW164547   7.019   9.120   6.735
87550SOL    HW264548   6.955   8.995   6.792
87551SOL     OW64549   7.393   2.640   7.102
87551SOL    HW164550   7.338   2.638   7.181
87551SOL    HW264551   7.338   2.680   7.035
87552SOL     OW64552  11.722   7.541   8.916
87552SOL    HW164553  11.776   7.462   8.913
87552SOL    HW264554  11.784   7.613   8.911
87553SOL     OW64555   2.912  11.066   7.197
87553SOL    HW164556   2.930  11.133   7.131
87553SOL    HW264557   2.819  11.048   7.188
87554SOL     OW64558   1.465   3.609   7.000
87554SOL    HW164559   1.455   3.683   6.940
87554SOL    HW264560   1.559   3.590   7.000
87555SOL     OW64561   5.978  11.272   5.836
87555SOL    HW164562   6.011  11.187   5.866
87555SOL    HW264563   6.026  11.289   5.755
87556SOL     OW64564  13.305   3.870   2.908
87556SOL    HW164565  13.271   3.781   2.901
87556SOL    HW264566  13.399   3.862   2.895
87557SOL     OW64567   6.591   8.076   9.271
87557SOL    HW164568   6.519   8.131   9.304
87557SOL    HW264569   6.640   8.052   9.349
87558SOL     OW64570   5.879   4.289   6.739
87558SOL    HW164571   5.936   4.212   6.744
87558SOL    HW264572   5.906   4.343   6.813
87559SOL     OW64573   5.936  11.891  12.365
87559SOL    HW164574   5.884  11.813  12.388
87559SOL    HW264575   5.933  11.946  12.443
87560SOL     OW64576   5.335   5.943  13.282
87560SOL    HW164577   5.269   5.918  13.347
87560SOL    HW264578   5.419   5.931  13.327
87561SOL     OW64579   1.661   3.653  11.038
87561SOL    HW164580   1.625   3.641  11.126
87561SOL    HW264581   1.593   3.701  10.991
87562SOL     OW64582   5.110  10.170   4.301
87562SOL    HW164583   5.166  10.179   4.224
87562SOL    HW264584   5.168  10.186   4.376
87563SOL     OW64585   2.430  14.382   9.315
87563SOL    HW164586   2.450  14.476   9.309
87563SOL    HW264587   2.411  14.356   9.225
87564SOL     OW64588   6.278  13.443   4.745
87564SOL    HW164589   6.333  13.400   4.811
87564SOL    HW264590   6.305  13.535   4.749
87565SOL     OW64591   2.559  11.379  10.855
87565SOL    HW164592   2.628  11.383  10.922
87565SOL    HW264593   2.479  11.363  10.905
87566SOL     OW64594   5.778   7.484  12.424
87566SOL    HW164595   5.696   7.451  12.460
87566SOL    HW264596   5.786   7.442  12.338
87567SOL     OW64597  12.288  11.614   2.098
87567SOL    HW164598  12.306  11.617   2.004
87567SOL    HW264599  12.372  11.593   2.139
87568SOL     OW64600  10.996   3.767   0.891
87568SOL    HW164601  10.966   3.676   0.883
87568SOL    HW264602  11.081   3.768   0.848
87569SOL     OW64603  10.318  11.122   5.898
87569SOL    HW164604  10.364  11.202   5.871
87569SOL    HW264605  10.225  11.145   5.894
87570SOL     OW64606   2.343   1.665   9.565
87570SOL    HW164607   2.410   1.661   9.634
87570SOL    HW264608   2.286   1.737   9.591
87571SOL     OW64609   8.711   5.861   0.806
87571SOL    HW164610   8.626   5.905   0.800
87571SOL    HW264611   8.769   5.928   0.842
87572SOL     OW64612  13.885   4.564  14.095
87572SOL    HW164613  13.940   4.572  14.017
87572SOL    HW264614  13.945   4.540  14.165
87573SOL     OW64615  13.108   8.150   8.465
87573SOL    HW164616  13.098   8.228   8.519
87573SOL    HW264617  13.197   8.156   8.431
87574SOL     OW64618   0.423   7.422  11.261
87574SOL    HW164619   0.394   7.489  11.200
87574SOL    HW264620   0.467   7.469  11.331
87575SOL     OW64621  13.481   5.058   6.724
87575SOL    HW164622  13.514   4.981   6.678
87575SOL    HW264623  13.423   5.101   6.662
87576SOL     OW64624  11.655   7.888   5.307
87576SOL    HW164625  11.619   7.871   5.220
87576SOL    HW264626  11.617   7.820   5.362
87577SOL     OW64627   4.712   9.887  12.549
87577SOL    HW164628   4.624   9.874  12.584
87577SOL    HW264629   4.756   9.941  12.614
87578SOL     OW64630  13.362  11.689   4.061
87578SOL    HW164631  13.343  11.595   4.057
87578SOL    HW264632  13.288  11.726   4.110
87579SOL     OW64633   3.800   1.825  10.819
87579SOL    HW164634   3.847   1.777  10.887
87579SOL    HW264635   3.867   1.855  10.759
87580SOL     OW64636   2.593   6.071   4.666
87580SOL    HW164637   2.629   6.047   4.580
87580SOL    HW264638   2.645   6.146   4.693
87581SOL     OW64639   9.376   9.234  10.742
87581SOL    HW164640   9.323   9.167  10.784
87581SOL    HW264641   9.314   9.285  10.689
87582SOL     OW64642   1.024  14.470   7.522
87582SOL    HW164643   1.010  14.551   7.473
87582SOL    HW264644   1.048  14.405   7.455
87583SOL     OW64645   4.984   8.279   2.110
87583SOL    HW164646   4.895   8.262   2.143
87583SOL    HW264647   5.018   8.192   2.086
87584SOL     OW64648   0.591  14.150   4.132
87584SOL    HW164649   0.612  14.090   4.203
87584SOL    HW264650   0.635  14.231   4.154
87585SOL     OW64651   2.042   5.005   2.389
87585SOL    HW164652   2.122   5.053   2.368
87585SOL    HW264653   2.054   4.975   2.479
87586SOL     OW64654  13.624   7.289  14.839
87586SOL    HW164655  13.689   7.225  14.868
87586SOL    HW264656  13.670   7.372  14.838
87587SOL     OW64657   9.063  11.474   0.203
87587SOL    HW164658   9.133  11.412   0.227
87587SOL    HW264659   9.034  11.444   0.117
87588SOL     OW64660   3.186  11.999   2.396
87588SOL    HW164661   3.217  12.081   2.358
87588SOL    HW264662   3.102  11.983   2.353
87589SOL     OW64663   5.249   4.556  13.694
87589SOL    HW164664   5.216   4.515  13.614
87589SOL    HW264665   5.300   4.487  13.737
87590SOL     OW64666  13.226   1.772  11.137
87590SOL    HW164667  13.219   1.866  11.124
87590SOL    HW264668  13.199   1.733  11.054
87591SOL     OW64669   4.222   9.036   5.308
87591SOL    HW164670   4.235   9.100   5.238
87591SOL    HW264671   4.127   9.039   5.325
87592SOL     OW64672   2.962  10.617   3.381
87592SOL    HW164673   3.029  10.675   3.345
87592SOL    HW264674   2.917  10.582   3.305
87593SOL     OW64675   7.140  13.199   6.480
87593SOL    HW164676   7.124  13.125   6.421
87593SOL    HW264677   7.105  13.170   6.564
87594SOL     OW64678  12.035   5.328   7.173
87594SOL    HW164679  12.027   5.351   7.081
87594SOL    HW264680  12.085   5.401   7.211
87595SOL     OW64681   1.352   7.139   9.114
87595SOL    HW164682   1.320   7.055   9.081
87595SOL    HW264683   1.433   7.155   9.064
87596SOL     OW64684   8.813   4.328  13.202
87596SOL    HW164685   8.833   4.417  13.229
87596SOL    HW264686   8.736   4.336  13.146
87597SOL     OW64687   0.204   2.210  10.976
87597SOL    HW164688   0.173   2.292  11.014
87597SOL    HW264689   0.173   2.213  10.885
87598SOL     OW64690  12.469   7.407   2.652
87598SOL    HW164691  12.470   7.494   2.692
87598SOL    HW264692  12.555   7.398   2.612
87599SOL     OW64693  13.030   0.827  12.630
87599SOL    HW164694  13.076   0.744  12.641
87599SOL    HW264695  13.063   0.883  12.700
87600SOL     OW64696   5.220   9.583  10.694
87600SOL    HW164697   5.222   9.583  10.599
87600SOL    HW264698   5.143   9.531  10.717
87601SOL     OW64699   3.142  12.556  14.590
87601SOL    HW164700   3.172  12.479  14.637
87601SOL    HW264701   3.072  12.525  14.533
87602SOL     OW64702  13.890   6.416  10.843
87602SOL    HW164703  13.916   6.328  10.871
87602SOL    HW264704  13.912   6.472  10.917
87603SOL     OW64705   7.257   6.341   1.059
87603SOL    HW164706   7.346   6.314   1.081
87603SOL    HW264707   7.223   6.379   1.141
87604SOL     OW64708   0.080   7.560  11.180
87604SOL    HW164709   0.132   7.491  11.222
87604SOL    HW264710  14.870   7.533  11.191
87605SOL     OW64711   0.268  12.430  10.983
87605SOL    HW164712   0.178  12.446  10.953
87605SOL    HW264713   0.272  12.336  10.998
87606SOL     OW64714  14.840  14.354   5.782
87606SOL    HW164715   0.005  14.380   5.862
87606SOL    HW264716  14.747  14.356   5.804
87607SOL     OW64717   1.437   5.155   7.246
87607SOL    HW164718   1.445   5.100   7.168
87607SOL    HW264719   1.459   5.243   7.215
87608SOL     OW64720   9.492  11.149  11.047
87608SOL    HW164721   9.556  11.206  11.005
87608SOL    HW264722   9.486  11.181  11.137
87609SOL     OW64723  14.572  13.809   9.811
87609SOL    HW164724  14.531  13.835   9.893
87609SOL    HW264725  14.655  13.858   9.809
87610SOL     OW64726   3.144   2.034   2.551
87610SOL    HW164727   3.166   2.049   2.642
87610SOL    HW264728   3.081   1.961   2.553
87611SOL     OW64729   6.003   5.747  13.966
87611SOL    HW164730   5.984   5.703  14.049
87611SOL    HW264731   6.079   5.700  13.931
87612SOL     OW64732   1.660  12.912   4.377
87612SOL    HW164733   1.686  12.978   4.442
87612SOL    HW264734   1.603  12.959   4.317
87613SOL     OW64735  14.600  12.205   3.421
87613SOL    HW164736  14.507  12.204   3.400
87613SOL    HW264737  14.610  12.144   3.494
87614SOL     OW64738   0.411   0.696   6.992
87614SOL    HW164739   0.409   0.773   6.934
87614SOL    HW264740   0.462   0.631   6.943
87615SOL     OW64741   9.847  11.325  13.985
87615SOL    HW164742   9.788  11.400  13.992
87615SOL    HW264743   9.872  11.322  13.893
87616SOL     OW64744   2.383   0.772  12.212
87616SOL    HW164745   2.359   0.804  12.299
87616SOL    HW264746   2.325   0.820  12.153
87617SOL     OW64747   0.384   3.102   1.798
87617SOL    HW164748   0.293   3.117   1.822
87617SOL    HW264749   0.380   3.038   1.727
87618SOL     OW64750   6.345   0.196  14.081
87618SOL    HW164751   6.293   0.130  14.128
87618SOL    HW264752   6.433   0.159  14.078
87619SOL     OW64753  10.243   5.690   2.427
87619SOL    HW164754  10.227   5.753   2.358
87619SOL    HW264755  10.309   5.630   2.392
87620SOL     OW64756  10.036   8.967  14.770
87620SOL    HW164757   9.946   8.959  14.800
87620SOL    HW264758  10.078   9.025  14.833
87621SOL     OW64759   2.938  14.400   0.923
87621SOL    HW164760   2.917  14.333   0.988
87621SOL    HW264761   2.974  14.473   0.974
87622SOL     OW64762   4.035   9.846  14.196
87622SOL    HW164763   3.997   9.896  14.268
87622SOL    HW264764   3.964   9.790  14.165
87623SOL     OW64765   0.927   9.108   6.642
87623SOL    HW164766   0.980   9.039   6.680
87623SOL    HW264767   0.886   9.152   6.716
87624SOL     OW64768  12.033  12.549   6.425
87624SOL    HW164769  11.986  12.633   6.428
87624SOL    HW264770  11.981  12.496   6.364
87625SOL     OW64771   9.479   0.581   7.402
87625SOL    HW164772   9.444   0.527   7.472
87625SOL    HW264773   9.403   0.609   7.351
87626SOL     OW64774   6.190   3.278   4.671
87626SOL    HW164775   6.249   3.284   4.746
87626SOL    HW264776   6.123   3.344   4.687
87627SOL     OW64777  13.845  12.586  10.899
87627SOL    HW164778  13.908  12.514  10.893
87627SOL    HW264779  13.894  12.663  10.869
87628SOL     OW64780   2.395  13.712   3.534
87628SOL    HW164781   2.428  13.685   3.619
87628SOL    HW264782   2.444  13.658   3.471
87629SOL     OW64783   5.345   7.904   1.537
87629SOL    HW164784   5.337   7.856   1.455
87629SOL    HW264785   5.326   7.840   1.605
87630SOL     OW64786   1.117  11.298   0.983
87630SOL    HW164787   1.093  11.314   1.074
87630SOL    HW264788   1.098  11.205   0.969
87631SOL     OW64789   0.315   6.867   0.457
87631SOL    HW164790   0.296   6.935   0.391
87631SOL    HW264791   0.406   6.883   0.482
87632SOL     OW64792   6.538   2.309   9.917
87632SOL    HW164793   6.542   2.323  10.012
87632SOL    HW264794   6.610   2.249   9.899
87633SOL     OW64795  11.305  10.173   6.798
87633SOL    HW164796  11.216  10.138   6.807
87633SOL    HW264797  11.330  10.199   6.886
87634SOL     OW64798  11.334  12.657   8.792
87634SOL    HW164799  11.393  12.719   8.835
87634SOL    HW264800  11.247  12.698   8.797
87635SOL     OW64801  11.539  14.107   6.288
87635SOL    HW164802  11.596  14.162   6.234
87635SOL    HW264803  11.591  14.029   6.307
87636SOL     OW64804   8.373   0.001   6.958
87636SOL    HW164805   8.360   0.062   6.885
87636SOL    HW264806   8.341  14.798   6.924
87637SOL     OW64807   0.041  13.173   0.201
87637SOL    HW164808   0.114  13.183   0.262
87637SOL    HW264809   0.019  13.080   0.205
87638SOL     OW64810   2.454   6.475   9.196
87638SOL    HW164811   2.474   6.393   9.242
87638SOL    HW264812   2.372   6.457   9.151
87639SOL     OW64813  10.593  14.862   1.173
87639SOL    HW164814  10.544  14.814   1.106
87639SOL    HW264815  10.530  14.871   1.245
87640SOL     OW64816   6.718  14.487   2.950
87640SOL    HW164817   6.699  14.571   2.993
87640SOL    HW264818   6.753  14.432   3.021
87641SOL     OW64819   0.268  11.640   2.136
87641SOL    HW164820   0.350  11.608   2.100
87641SOL    HW264821   0.243  11.713   2.079
87642SOL     OW64822   1.800   2.866   7.105
87642SOL    HW164823   1.793   2.921   7.027
87642SOL    HW264824   1.823   2.926   7.176
87643SOL     OW64825   5.636   0.451   4.525
87643SOL    HW164826   5.591   0.477   4.445
87643SOL    HW264827   5.649   0.532   4.573
87644SOL     OW64828  11.842   0.487   6.063
87644SOL    HW164829  11.896   0.565   6.076
87644SOL    HW264830  11.759   0.509   6.106
87645SOL     OW64831  12.464  11.277   8.810
87645SOL    HW164832  12.455  11.364   8.847
87645SOL    HW264833  12.375  11.248   8.792
87646SOL     OW64834   3.151   2.634   5.109
87646SOL    HW164835   3.173   2.710   5.054
87646SOL    HW264836   3.068   2.603   5.073
87647SOL     OW64837  11.991   2.226   8.572
87647SOL    HW164838  11.915   2.171   8.555
87647SOL    HW264839  12.055   2.167   8.611
87648SOL     OW64840   1.716  11.323  11.507
87648SOL    HW164841   1.689  11.330  11.599
87648SOL    HW264842   1.634  11.315  11.458
87649SOL     OW64843   1.560  14.402   7.636
87649SOL    HW164844   1.583  14.418   7.545
87649SOL    HW264845   1.509  14.479   7.662
87650SOL     OW64846   2.282   7.992   3.531
87650SOL    HW164847   2.341   7.917   3.538
87650SOL    HW264848   2.267   8.018   3.622
87651SOL     OW64849  11.619   5.212  13.281
87651SOL    HW164850  11.600   5.222  13.188
87651SOL    HW264851  11.598   5.120  13.301
87652SOL     OW64852   9.054   3.190  12.768
87652SOL    HW164853   9.129   3.145  12.727
87652SOL    HW264854   8.977   3.149  12.728
87653SOL     OW64855   9.052   2.271   7.225
87653SOL    HW164856   9.003   2.342   7.185
87653SOL    HW264857   9.142   2.283   7.193
87654SOL     OW64858   5.844   8.640   8.935
87654SOL    HW164859   5.869   8.584   9.008
87654SOL    HW264860   5.847   8.729   8.970
87655SOL     OW64861   4.504   0.010  13.927
87655SOL    HW164862   4.599   0.014  13.932
87655SOL    HW264863   4.478  14.844  14.007
87656SOL     OW64864   3.112   6.646   8.284
87656SOL    HW164865   3.056   6.582   8.327
87656SOL    HW264866   3.123   6.716   8.349
87657SOL     OW64867   7.724   1.167   7.336
87657SOL    HW164868   7.638   1.125   7.335
87657SOL    HW264869   7.750   1.166   7.429
87658SOL     OW64870   4.436   6.697   4.240
87658SOL    HW164871   4.393   6.661   4.317
87658SOL    HW264872   4.368   6.698   4.173
87659SOL     OW64873   7.730   0.261   6.739
87659SOL    HW164874   7.780   0.197   6.790
87659SOL    HW264875   7.770   0.345   6.760
87660SOL     OW64876   2.401   7.966   1.402
87660SOL    HW164877   2.441   8.040   1.447
87660SOL    HW264878   2.410   7.893   1.463
87661SOL     OW64879  11.487   3.503   3.907
87661SOL    HW164880  11.439   3.583   3.932
87661SOL    HW264881  11.469   3.492   3.814
87662SOL     OW64882   1.337   9.100   7.197
87662SOL    HW164883   1.277   9.031   7.168
87662SOL    HW264884   1.379   9.131   7.117
87663SOL     OW64885   0.037  10.252  13.094
87663SOL    HW164886   0.047  10.179  13.154
87663SOL    HW264887  14.863  10.315  13.141
87664SOL     OW64888   1.449  13.634   7.559
87664SOL    HW164889   1.525  13.612   7.505
87664SOL    HW264890   1.379  13.579   7.525
87665SOL     OW64891   3.774   1.289  10.022
87665SOL    HW164892   3.865   1.312  10.003
87665SOL    HW264893   3.779   1.232  10.099
87666SOL     OW64894  10.951  10.076   6.273
87666SOL    HW164895  10.881  10.012   6.258
87666SOL    HW264896  10.980  10.060   6.363
87667SOL     OW64897   3.723   4.095   7.639
87667SOL    HW164898   3.693   4.070   7.551
87667SOL    HW264899   3.812   4.061   7.644
87668SOL     OW64900  10.236   6.855   5.216
87668SOL    HW164901  10.192   6.791   5.272
87668SOL    HW264902  10.320   6.814   5.194
87669SOL     OW64903  10.896  11.889   6.738
87669SOL    HW164904  10.902  11.984   6.727
87669SOL    HW264905  10.932  11.853   6.657
87670SOL     OW64906   9.694  11.453   3.036
87670SOL    HW164907   9.753  11.523   3.007
87670SOL    HW264908   9.751  11.392   3.082
87671SOL     OW64909  10.422   0.350   3.709
87671SOL    HW164910  10.442   0.283   3.775
87671SOL    HW264911  10.391   0.300   3.634
87672SOL     OW64912   8.305   8.946   6.884
87672SOL    HW164913   8.276   9.012   6.821
87672SOL    HW264914   8.232   8.936   6.944
87673SOL     OW64915   4.608   0.885   0.726
87673SOL    HW164916   4.538   0.872   0.663
87673SOL    HW264917   4.676   0.932   0.677
87674SOL     OW64918  14.357  10.356   6.168
87674SOL    HW164919  14.321  10.375   6.255
87674SOL    HW264920  14.420  10.286   6.184
87675SOL     OW64921   0.128   1.557   4.532
87675SOL    HW164922   0.087   1.487   4.582
87675SOL    HW264923   0.163   1.513   4.454
87676SOL     OW64924  11.157  13.470   6.335
87676SOL    HW164925  11.219  13.403   6.363
87676SOL    HW264926  11.211  13.545   6.311
87677SOL     OW64927  11.848   5.041   5.627
87677SOL    HW164928  11.789   5.116   5.630
87677SOL    HW264929  11.878   5.030   5.717
87678SOL     OW64930   1.338   8.429   8.024
87678SOL    HW164931   1.424   8.387   8.027
87678SOL    HW264932   1.355   8.521   8.045
87679SOL     OW64933   5.802   3.266   1.854
87679SOL    HW164934   5.839   3.351   1.878
87679SOL    HW264935   5.782   3.275   1.761
87680SOL     OW64936   4.091   0.753   7.467
87680SOL    HW164937   4.086   0.845   7.494
87680SOL    HW264938   4.003   0.719   7.481
87681SOL     OW64939   8.790   6.620   9.463
87681SOL    HW164940   8.757   6.655   9.381
87681SOL    HW264941   8.719   6.635   9.526
87682SOL     OW64942  11.527   3.134   0.788
87682SOL    HW164943  11.518   3.223   0.756
87682SOL    HW264944  11.505   3.139   0.881
87683SOL     OW64945   4.848   5.184   4.448
87683SOL    HW164946   4.889   5.252   4.394
87683SOL    HW264947   4.765   5.222   4.475
87684SOL     OW64948   3.072   7.963   4.344
87684SOL    HW164949   3.027   7.880   4.361
87684SOL    HW264950   3.105   7.955   4.254
87685SOL     OW64951   2.728   5.844   5.213
87685SOL    HW164952   2.715   5.882   5.126
87685SOL    HW264953   2.754   5.753   5.196
87686SOL     OW64954   0.243   3.335  13.438
87686SOL    HW164955   0.229   3.250  13.480
87686SOL    HW264956   0.312   3.319  13.373
87687SOL     OW64957   3.501   8.040   2.802
87687SOL    HW164958   3.595   8.047   2.819
87687SOL    HW264959   3.473   7.963   2.852
87688SOL     OW64960  12.622  10.089   3.898
87688SOL    HW164961  12.713  10.121   3.901
87688SOL    HW264962  12.583  10.137   3.825
87689SOL     OW64963   3.882   2.571   9.831
87689SOL    HW164964   3.898   2.665   9.834
87689SOL    HW264965   3.968   2.532   9.814
87690SOL     OW64966  13.020   9.279   2.017
87690SOL    HW164967  13.111   9.309   2.010
87690SOL    HW264968  13.009   9.217   1.945
87691SOL     OW64969   3.816  13.586  14.843
87691SOL    HW164970   3.827  13.661   0.021
87691SOL    HW264971   3.905  13.554  14.828
87692SOL     OW64972   4.715   0.648   6.140
87692SOL    HW164973   4.787   0.681   6.087
87692SOL    HW264974   4.755   0.625   6.224
87693SOL     OW64975   0.826   6.809   3.705
87693SOL    HW164976   0.764   6.824   3.634
87693SOL    HW264977   0.885   6.884   3.701
87694SOL     OW64978   6.802   6.352  10.228
87694SOL    HW164979   6.737   6.411  10.190
87694SOL    HW264980   6.884   6.402  10.225
87695SOL     OW64981   3.927  12.954   3.800
87695SOL    HW164982   3.948  13.044   3.826
87695SOL    HW264983   3.945  12.902   3.878
87696SOL     OW64984  10.066   1.549   9.549
87696SOL    HW164985  10.019   1.610   9.606
87696SOL    HW264986  10.147   1.529   9.597
87697SOL     OW64987   1.521   2.821  12.576
87697SOL    HW164988   1.474   2.763  12.635
87697SOL    HW264989   1.485   2.802  12.490
87698SOL     OW64990   7.597   2.154  10.257
87698SOL    HW164991   7.509   2.137  10.223
87698SOL    HW264992   7.651   2.084  10.219
87699SOL     OW64993   5.411   1.586   8.728
87699SOL    HW164994   5.484   1.593   8.666
87699SOL    HW264995   5.383   1.677   8.742
87700SOL     OW64996  13.597   1.418   2.808
87700SOL    HW164997  13.545   1.483   2.857
87700SOL    HW264998  13.654   1.471   2.751
87701SOL     OW64999  13.249  12.686  11.685
87701SOL    HW165000  13.282  12.604  11.722
87701SOL    HW265001  13.187  12.718  11.751
87702SOL     OW65002   6.015  11.868   8.398
87702SOL    HW165003   6.050  11.952   8.369
87702SOL    HW265004   6.010  11.876   8.493
87703SOL     OW65005   3.526   3.998   1.562
87703SOL    HW165006   3.607   4.044   1.542
87703SOL    HW265007   3.528   3.985   1.657
87704SOL     OW65008   9.625   0.710   1.609
87704SOL    HW165009   9.657   0.624   1.582
87704SOL    HW265010   9.673   0.772   1.555
87705SOL     OW65011   8.461   5.522   8.071
87705SOL    HW165012   8.535   5.480   8.027
87705SOL    HW265013   8.438   5.462   8.142
87706SOL     OW65014   9.332   0.124   4.186
87706SOL    HW165015   9.376   0.040   4.178
87706SOL    HW265016   9.315   0.134   4.280
87707SOL     OW65017   4.600  14.519   2.393
87707SOL    HW165018   4.545  14.482   2.462
87707SOL    HW265019   4.546  14.585   2.351
87708SOL     OW65020   6.504  13.029   3.815
87708SOL    HW165021   6.588  12.998   3.780
87708SOL    HW265022   6.443  13.021   3.742
87709SOL     OW65023   8.309   3.768   4.686
87709SOL    HW165024   8.371   3.737   4.620
87709SOL    HW265025   8.360   3.768   4.767
87710SOL     OW65026   5.892   2.190   1.622
87710SOL    HW165027   5.878   2.268   1.568
87710SOL    HW265028   5.965   2.145   1.579
87711SOL     OW65029   9.850  12.601   5.358
87711SOL    HW165030   9.809  12.515   5.362
87711SOL    HW265031   9.796  12.652   5.297
87712SOL     OW65032   6.615   3.926   1.999
87712SOL    HW165033   6.634   3.855   2.060
87712SOL    HW265034   6.522   3.917   1.979
87713SOL     OW65035   6.963   6.632  12.197
87713SOL    HW165036   6.893   6.680  12.154
87713SOL    HW265037   6.934   6.623  12.288
87714SOL     OW65038  13.645  12.244   6.139
87714SOL    HW165039  13.677  12.285   6.219
87714SOL    HW265040  13.692  12.161   6.134
87715SOL     OW65041  12.382   7.707   4.353
87715SOL    HW165042  12.289   7.706   4.327
87715SOL    HW265043  12.395   7.793   4.393
87716SOL     OW65044  12.525   8.546   8.706
87716SOL    HW165045  12.614   8.512   8.698
87716SOL    HW265046  12.532   8.639   8.686
87717SOL     OW65047  13.914   6.806   4.906
87717SOL    HW165048  14.001   6.814   4.945
87717SOL    HW265049  13.854   6.843   4.971
87718SOL     OW65050  12.351   3.533   7.248
87718SOL    HW165051  12.424   3.476   7.272
87718SOL    HW265052  12.317   3.564   7.333
87719SOL     OW65053   9.763   8.959  14.346
87719SOL    HW165054   9.721   9.015  14.280
87719SOL    HW265055   9.694   8.900  14.375
87720SOL     OW65056   6.933   2.883   1.009
87720SOL    HW165057   6.969   2.935   1.082
87720SOL    HW265058   6.878   2.818   1.052
87721SOL     OW65059   1.954   9.592   9.474
87721SOL    HW165060   1.891   9.618   9.541
87721SOL    HW265061   1.985   9.675   9.436
87722SOL     OW65062   2.776  13.268   9.346
87722SOL    HW165063   2.754  13.190   9.397
87722SOL    HW265064   2.837  13.237   9.279
87723SOL     OW65065   0.930   3.757  10.252
87723SOL    HW165066   0.960   3.667  10.263
87723SOL    HW265067   0.878   3.775  10.331
87724SOL     OW65068   7.750   6.459   8.127
87724SOL    HW165069   7.777   6.379   8.171
87724SOL    HW265070   7.672   6.487   8.175
87725SOL     OW65071   7.435  12.171  12.750
87725SOL    HW165072   7.477  12.178  12.836
87725SOL    HW265073   7.457  12.254  12.706
87726SOL     OW65074  11.328  11.937  10.602
87726SOL    HW165075  11.338  11.928  10.507
87726SOL    HW265076  11.287  11.855  10.629
87727SOL     OW65077   3.686  12.888   3.987
87727SOL    HW165078   3.669  12.953   3.918
87727SOL    HW265079   3.779  12.869   3.980
87728SOL     OW65080   2.493   0.373  10.191
87728SOL    HW165081   2.445   0.454  10.173
87728SOL    HW265082   2.479   0.320  10.113
87729SOL     OW65083  14.085  14.598  12.736
87729SOL    HW165084  14.012  14.556  12.689
87729SOL    HW265085  14.149  14.618  12.667
87730SOL     OW65086   4.461   3.432  14.759
87730SOL    HW165087   4.416   3.399  14.837
87730SOL    HW265088   4.397   3.419  14.689
87731SOL     OW65089   8.256  14.180   4.447
87731SOL    HW165090   8.245  14.212   4.357
87731SOL    HW265091   8.172  14.141   4.469
87732SOL     OW65092   6.356   2.287   1.051
87732SOL    HW165093   6.386   2.201   1.081
87732SOL    HW265094   6.358   2.281   0.956
87733SOL     OW65095  10.233   6.764   3.148
87733SOL    HW165096  10.310   6.821   3.149
87733SOL    HW265097  10.180   6.796   3.074
87734SOL     OW65098   5.917   1.666   0.149
87734SOL    HW165099   5.858   1.696   0.218
87734SOL    HW265100   5.997   1.717   0.161
87735SOL     OW65101   1.525  14.762  12.012
87735SOL    HW165102   1.474  14.760  11.931
87735SOL    HW265103   1.461  14.742  12.081
87736SOL     OW65104  12.139   5.958  12.270
87736SOL    HW165105  12.061   5.905  12.285
87736SOL    HW265106  12.190   5.908  12.206
87737SOL     OW65107   5.591   0.307  10.261
87737SOL    HW165108   5.556   0.229  10.305
87737SOL    HW265109   5.633   0.273  10.182
87738SOL     OW65110   9.986   6.582   6.313
87738SOL    HW165111   9.975   6.618   6.401
87738SOL    HW265112  10.077   6.601   6.291
87739SOL     OW65113   4.293   8.226   6.058
87739SOL    HW165114   4.247   8.244   6.139
87739SOL    HW265115   4.243   8.272   5.990
87740SOL     OW65116   3.015  10.114   0.949
87740SOL    HW165117   2.934  10.069   0.924
87740SOL    HW265118   3.013  10.197   0.901
87741SOL     OW65119  14.743   6.753   9.553
87741SOL    HW165120  14.792   6.690   9.501
87741SOL    HW265121  14.753   6.836   9.507
87742SOL     OW65122  13.373   7.242   7.211
87742SOL    HW165123  13.449   7.190   7.186
87742SOL    HW265124  13.298   7.190   7.182
87743SOL     OW65125   4.711   7.680  14.143
87743SOL    HW165126   4.753   7.736  14.209
87743SOL    HW265127   4.784   7.636  14.099
87744SOL     OW65128  12.749   2.498   5.451
87744SOL    HW165129  12.665   2.455   5.467
87744SOL    HW265130  12.767   2.483   5.358
87745SOL     OW65131   2.306  13.386  11.973
87745SOL    HW165132   2.379  13.323  11.974
87745SOL    HW265133   2.347  13.469  11.948
87746SOL     OW65134  13.955  14.753  10.623
87746SOL    HW165135  13.926  14.733  10.534
87746SOL    HW265136  13.880  14.796  10.664
87747SOL     OW65137   1.730  10.626   7.862
87747SOL    HW165138   1.695  10.549   7.906
87747SOL    HW265139   1.750  10.597   7.773
87748SOL     OW65140   3.207   4.451   5.925
87748SOL    HW165141   3.160   4.466   6.007
87748SOL    HW265142   3.146   4.477   5.857
87749SOL     OW65143  11.121   4.140  13.454
87749SOL    HW165144  11.042   4.182  13.419
87749SOL    HW265145  11.192   4.201  13.434
87750SOL     OW65146   1.709  11.108   2.810
87750SOL    HW165147   1.672  11.131   2.725
87750SOL    HW265148   1.680  11.177   2.869
87751SOL     OW65149   5.210  11.006  11.537
87751SOL    HW165150   5.188  11.055  11.616
87751SOL    HW265151   5.278  11.057  11.494
87752SOL     OW65152   4.852  11.571   6.806
87752SOL    HW165153   4.789  11.536   6.869
87752SOL    HW265154   4.821  11.541   6.721
87753SOL     OW65155   6.178   5.658   7.256
87753SOL    HW165156   6.237   5.583   7.259
87753SOL    HW265157   6.110   5.633   7.193
87754SOL     OW65158   9.251   3.061   9.124
87754SOL    HW165159   9.305   3.092   9.051
87754SOL    HW265160   9.257   2.965   9.118
87755SOL     OW65161  13.635  14.372   5.950
87755SOL    HW165162  13.693  14.393   5.878
87755SOL    HW265163  13.693  14.357   6.025
87756SOL     OW65164  12.420  10.300  12.224
87756SOL    HW165165  12.415  10.295  12.129
87756SOL    HW265166  12.493  10.360  12.241
87757SOL     OW65167  13.437   9.126   1.148
87757SOL    HW165168  13.364   9.119   1.209
87757SOL    HW265169  13.435   9.045   1.098
87758SOL     OW65170   3.443   3.471  13.414
87758SOL    HW165171   3.437   3.566  13.416
87758SOL    HW265172   3.534   3.452  13.436
87759SOL     OW65173  13.307   4.292  10.105
87759SOL    HW165174  13.299   4.371  10.051
87759SOL    HW265175  13.219   4.253  10.104
87760SOL     OW65176   7.824   7.975  11.698
87760SOL    HW165177   7.841   7.881  11.694
87760SOL    HW265178   7.794   7.998  11.610
87761SOL     OW65179  14.838   0.258  11.311
87761SOL    HW165180  14.796   0.183  11.270
87761SOL    HW265181   0.013   0.296  11.243
87762SOL     OW65182  13.890  10.255  13.063
87762SOL    HW165183  13.805  10.300  13.054
87762SOL    HW265184  13.938  10.307  13.127
87763SOL     OW65185  10.907   9.797   7.269
87763SOL    HW165186  10.819   9.788   7.306
87763SOL    HW265187  10.900   9.758   7.182
87764SOL     OW65188  14.069  14.661   9.020
87764SOL    HW165189  14.077  14.667   9.115
87764SOL    HW265190  14.120  14.585   8.996
87765SOL     OW65191   2.338   8.072  13.957
87765SOL    HW165192   2.354   8.025  13.875
87765SOL    HW265193   2.395   8.149  13.951
87766SOL     OW65194  11.287  14.041  12.939
87766SOL    HW165195  11.203  14.013  12.903
87766SOL    HW265196  11.334  13.959  12.958
87767SOL     OW65197  13.950   6.498   3.616
87767SOL    HW165198  13.896   6.549   3.677
87767SOL    HW265199  13.936   6.540   3.531
87768SOL     OW65200  10.725   3.138   6.979
87768SOL    HW165201  10.680   3.194   6.916
87768SOL    HW265202  10.678   3.153   7.061
87769SOL     OW65203   1.326  11.126  11.407
87769SOL    HW165204   1.322  11.038  11.445
87769SOL    HW265205   1.240  11.139  11.367
87770SOL     OW65206  11.943   5.844  11.697
87770SOL    HW165207  11.960   5.750  11.697
87770SOL    HW265208  11.965   5.871  11.786
87771SOL     OW65209   6.179   8.300   6.106
87771SOL    HW165210   6.177   8.320   6.013
87771SOL    HW265211   6.169   8.205   6.110
87772SOL     OW65212  14.543  13.829  13.181
87772SOL    HW165213  14.481  13.758  13.163
87772SOL    HW265214  14.542  13.881  13.101
87773SOL     OW65215   2.976  11.266   6.986
87773SOL    HW165216   2.921  11.342   7.004
87773SOL    HW265217   2.971  11.255   6.891
87774SOL     OW65218   1.613  14.145   9.607
87774SOL    HW165219   1.529  14.189   9.597
87774SOL    HW265220   1.671  14.192   9.547
87775SOL     OW65221   9.219   0.969   2.796
87775SOL    HW165222   9.234   0.923   2.714
87775SOL    HW265223   9.275   1.046   2.791
87776SOL     OW65224   5.294   5.113   0.185
87776SOL    HW165225   5.302   5.018   0.181
87776SOL    HW265226   5.372   5.142   0.233
87777SOL     OW65227   7.327   5.604  11.858
87777SOL    HW165228   7.362   5.627  11.772
87777SOL    HW265229   7.253   5.663  11.870
87778SOL     OW65230   9.629   1.471  11.452
87778SOL    HW165231   9.668   1.537  11.394
87778SOL    HW265232   9.553   1.440  11.404
87779SOL     OW65233   0.105   7.514  13.141
87779SOL    HW165234   0.194   7.505  13.107
87779SOL    HW265235   0.098   7.445  13.208
87780SOL     OW65236   9.862   7.565   9.035
87780SOL    HW165237   9.808   7.501   8.988
87780SOL    HW265238   9.892   7.625   8.967
87781SOL     OW65239   8.377   6.806  13.112
87781SOL    HW165240   8.307   6.857  13.154
87781SOL    HW265241   8.335   6.722  13.091
87782SOL     OW65242   3.896   0.198   6.482
87782SOL    HW165243   3.817   0.245   6.508
87782SOL    HW265244   3.963   0.265   6.472
87783SOL     OW65245   5.207   7.666  12.534
87783SOL    HW165246   5.158   7.653  12.453
87783SOL    HW265247   5.290   7.705  12.507
87784SOL     OW65248   6.495  14.243  12.835
87784SOL    HW165249   6.573  14.291  12.862
87784SOL    HW265250   6.425  14.279  12.888
87785SOL     OW65251   0.591   3.391   1.488
87785SOL    HW165252   0.605   3.319   1.550
87785SOL    HW265253   0.680   3.420   1.466
87786SOL     OW65254   8.698   8.965  14.261
87786SOL    HW165255   8.719   8.876  14.287
87786SOL    HW265256   8.770   8.992  14.204
87787SOL     OW65257   9.476   0.507   3.163
87787SOL    HW165258   9.500   0.578   3.104
87787SOL    HW265259   9.507   0.427   3.120
87788SOL     OW65260   1.905  14.597   3.521
87788SOL    HW165261   1.875  14.686   3.499
87788SOL    HW265262   1.988  14.589   3.474
87789SOL     OW65263  13.753  10.988   0.994
87789SOL    HW165264  13.705  10.992   1.076
87789SOL    HW265265  13.754  10.895   0.971
87790SOL     OW65266   8.406  14.679   4.617
87790SOL    HW165267   8.381  14.685   4.709
87790SOL    HW265268   8.354  14.746   4.573
87791SOL     OW65269   6.119   1.050   2.037
87791SOL    HW165270   6.164   1.084   2.115
87791SOL    HW265271   6.078   1.127   1.998
87792SOL     OW65272   2.739   8.539   8.550
87792SOL    HW165273   2.822   8.576   8.518
87792SOL    HW265274   2.706   8.488   8.476
87793SOL     OW65275   1.313   4.044  13.733
87793SOL    HW165276   1.353   3.977  13.677
87793SOL    HW265277   1.221   4.046  13.706
87794SOL     OW65278   8.254  14.516   8.350
87794SOL    HW165279   8.336  14.473   8.376
87794SOL    HW265280   8.282  14.589   8.294
87795SOL     OW65281   0.795   9.575   3.206
87795SOL    HW165282   0.835   9.496   3.241
87795SOL    HW265283   0.861   9.611   3.146
87796SOL     OW65284   7.305   5.360   5.413
87796SOL    HW165285   7.210   5.374   5.423
87796SOL    HW265286   7.345   5.437   5.453
87797SOL     OW65287   9.929  13.331   8.321
87797SOL    HW165288   9.876  13.343   8.242
87797SOL    HW265289  10.003  13.277   8.292
87798SOL     OW65290   1.397  14.803   9.225
87798SOL    HW165291   1.398   0.014   9.196
87798SOL    HW265292   1.396  14.808   9.321
87799SOL     OW65293   0.053   7.641   8.512
87799SOL    HW165294   0.019   7.561   8.552
87799SOL    HW265295   0.112   7.611   8.443
87800SOL     OW65296   4.365  12.429   5.734
87800SOL    HW165297   4.460  12.428   5.746
87800SOL    HW265298   4.352  12.457   5.643
87801SOL     OW65299  12.116  14.187   1.975
87801SOL    HW165300  12.046  14.244   1.944
87801SOL    HW265301  12.176  14.245   2.021
87802SOL     OW65302  11.875   4.450   8.079
87802SOL    HW165303  11.962   4.482   8.102
87802SOL    HW265304  11.843   4.407   8.158
87803SOL     OW65305  14.116   8.737   5.306
87803SOL    HW165306  14.116   8.642   5.319
87803SOL    HW265307  14.151   8.773   5.387
87804SOL     OW65308  14.023   8.436  10.640
87804SOL    HW165309  13.938   8.457  10.601
87804SOL    HW265310  14.038   8.507  10.702
87805SOL     OW65311  10.016   3.604   5.988
87805SOL    HW165312  10.047   3.527   5.939
87805SOL    HW265313   9.934   3.628   5.945
87806SOL     OW65314  11.270  11.745   8.989
87806SOL    HW165315  11.237  11.691   8.917
87806SOL    HW265316  11.218  11.717   9.065
87807SOL     OW65317   6.246   5.060  12.930
87807SOL    HW165318   6.303   5.088  12.859
87807SOL    HW265319   6.267   4.967  12.944
87808SOL     OW65320  13.700  14.343  10.319
87808SOL    HW165321  13.652  14.412  10.275
87808SOL    HW265322  13.716  14.377  10.407
87809SOL     OW65323  11.816   5.732   6.378
87809SOL    HW165324  11.814   5.683   6.460
87809SOL    HW265325  11.874   5.682   6.321
87810SOL     OW65326  13.977  14.850   3.107
87810SOL    HW165327  14.023  14.835   3.190
87810SOL    HW265328  14.047  14.866   3.044
87811SOL     OW65329   1.639  10.865  12.173
87811SOL    HW165330   1.588  10.817  12.239
87811SOL    HW265331   1.581  10.869  12.096
87812SOL     OW65332  14.382   2.429   8.991
87812SOL    HW165333  14.354   2.432   8.900
87812SOL    HW265334  14.374   2.519   9.022
87813SOL     OW65335   2.291   4.867   6.407
87813SOL    HW165336   2.369   4.837   6.452
87813SOL    HW265337   2.259   4.940   6.460
87814SOL     OW65338  14.393   7.436   3.705
87814SOL    HW165339  14.365   7.466   3.791
87814SOL    HW265340  14.465   7.376   3.723
87815SOL     OW65341  12.016  11.780   4.158
87815SOL    HW165342  12.083  11.712   4.162
87815SOL    HW265343  12.021  11.824   4.244
87816SOL     OW65344  13.823  10.402  10.623
87816SOL    HW165345  13.741  10.413  10.575
87816SOL    HW265346  13.876  10.346  10.567
87817SOL     OW65347   1.749  11.093   7.566
87817SOL    HW165348   1.776  11.158   7.502
87817SOL    HW265349   1.831  11.048   7.590
87818SOL     OW65350   4.715  11.767   5.039
87818SOL    HW165351   4.789  11.799   4.987
87818SOL    HW265352   4.645  11.753   4.976
87819SOL     OW65353   2.291   5.400   4.033
87819SOL    HW165354   2.237   5.464   4.079
87819SOL    HW265355   2.294   5.431   3.943
87820SOL     OW65356  11.281   6.802   8.800
87820SOL    HW165357  11.341   6.863   8.843
87820SOL    HW265358  11.194   6.838   8.817
87821SOL     OW65359  14.289   0.467   2.352
87821SOL    HW165360  14.376   0.505   2.337
87821SOL    HW265361  14.231   0.543   2.361
87822SOL     OW65362   3.354   5.755   8.792
87822SOL    HW165363   3.333   5.731   8.702
87822SOL    HW265364   3.347   5.674   8.841
87823SOL     OW65365  14.450   1.255   4.233
87823SOL    HW165366  14.521   1.308   4.268
87823SOL    HW265367  14.493   1.189   4.180
87824SOL     OW65368   2.926   7.078  11.919
87824SOL    HW165369   2.940   6.993  11.961
87824SOL    HW265370   2.982   7.076  11.842
87825SOL     OW65371   4.386  12.281   5.177
87825SOL    HW165372   4.299  12.267   5.216
87825SOL    HW265373   4.420  12.192   5.164
87826SOL     OW65374   4.733   6.679   5.897
87826SOL    HW165375   4.728   6.753   5.957
87826SOL    HW265376   4.794   6.618   5.938
87827SOL     OW65377  11.845  12.846  13.111
87827SOL    HW165378  11.795  12.772  13.145
87827SOL    HW265379  11.851  12.829  13.017
87828SOL     OW65380  14.294   9.911  12.227
87828SOL    HW165381  14.370   9.968  12.239
87828SOL    HW265382  14.319   9.829  12.269
87829SOL     OW65383  10.362   0.130  13.321
87829SOL    HW165384  10.303   0.101  13.251
87829SOL    HW265385  10.443   0.081  13.306
87830SOL     OW65386   5.921   4.440   4.332
87830SOL    HW165387   5.848   4.468   4.387
87830SOL    HW265388   5.993   4.498   4.358
87831SOL     OW65389   7.303   8.861   7.160
87831SOL    HW165390   7.274   8.851   7.250
87831SOL    HW265391   7.231   8.907   7.116
87832SOL     OW65392   0.930   9.317  14.477
87832SOL    HW165393   0.846   9.360  14.495
87832SOL    HW265394   0.993   9.365  14.531
87833SOL     OW65395  10.858  10.984   8.599
87833SOL    HW165396  10.932  10.950   8.550
87833SOL    HW265397  10.836  10.916   8.662
87834SOL     OW65398   2.418   3.086  12.928
87834SOL    HW165399   2.390   3.088  12.836
87834SOL    HW265400   2.510   3.111  12.926
87835SOL     OW65401  12.910   1.841   9.971
87835SOL    HW165402  12.947   1.818  10.056
87835SOL    HW265403  12.977   1.813   9.908
87836SOL     OW65404  10.143  12.386  10.562
87836SOL    HW165405  10.055  12.374  10.528
87836SOL    HW265406  10.131  12.417  10.651
87837SOL     OW65407   7.193   6.215  11.742
87837SOL    HW165408   7.288   6.220  11.754
87837SOL    HW265409   7.156   6.243  11.826
87838SOL     OW65410   5.152   4.714   7.090
87838SOL    HW165411   5.080   4.777   7.088
87838SOL    HW265412   5.229   4.766   7.116
87839SOL     OW65413  13.663   9.253   3.211
87839SOL    HW165414  13.568   9.250   3.222
87839SOL    HW265415  13.683   9.346   3.203
87840SOL     OW65416   5.464   7.551   0.392
87840SOL    HW165417   5.539   7.588   0.439
87840SOL    HW265418   5.435   7.622   0.334
87841SOL     OW65419   5.314  11.404   1.904
87841SOL    HW165420   5.373  11.467   1.864
87841SOL    HW265421   5.251  11.457   1.952
87842SOL     OW65422   1.074   8.524   5.582
87842SOL    HW165423   1.053   8.585   5.512
87842SOL    HW265424   1.012   8.546   5.652
87843SOL     OW65425   8.060   5.288   4.479
87843SOL    HW165426   8.090   5.280   4.570
87843SOL    HW265427   8.057   5.198   4.447
87844SOL     OW65428   4.455   2.496   4.491
87844SOL    HW165429   4.446   2.461   4.580
87844SOL    HW265430   4.518   2.568   4.499
87845SOL     OW65431   2.029   2.712   7.165
87845SOL    HW165432   1.963   2.779   7.149
87845SOL    HW265433   2.059   2.729   7.255
87846SOL     OW65434   4.958  13.348   4.930
87846SOL    HW165435   4.974  13.258   4.903
87846SOL    HW265436   4.889  13.378   4.871
87847SOL     OW65437  10.846   5.576   8.734
87847SOL    HW165438  10.850   5.484   8.759
87847SOL    HW265439  10.934   5.596   8.704
87848SOL     OW65440  10.804   4.966   4.437
87848SOL    HW165441  10.812   5.061   4.447
87848SOL    HW265442  10.878   4.930   4.486
87849SOL     OW65443  10.507   6.265  10.251
87849SOL    HW165444  10.522   6.205  10.323
87849SOL    HW265445  10.547   6.223  10.175
87850SOL     OW65446   1.929  10.361  10.857
87850SOL    HW165447   2.020  10.388  10.870
87850SOL    HW265448   1.891  10.363  10.944
87851SOL     OW65449  13.359  10.845   9.646
87851SOL    HW165450  13.420  10.859   9.574
87851SOL    HW265451  13.275  10.827   9.604
87852SOL     OW65452   5.274   3.490   2.050
87852SOL    HW165453   5.323   3.560   2.008
87852SOL    HW265454   5.220   3.453   1.980
87853SOL     OW65455   8.574   4.187   9.643
87853SOL    HW165456   8.495   4.179   9.589
87853SOL    HW265457   8.557   4.130   9.719
87854SOL     OW65458   3.520   3.105   7.260
87854SOL    HW165459   3.609   3.125   7.230
87854SOL    HW265460   3.463   3.151   7.199
87855SOL     OW65461   1.123   1.737   0.887
87855SOL    HW165462   1.074   1.804   0.840
87855SOL    HW265463   1.112   1.658   0.834
87856SOL     OW65464   2.480   1.110  10.666
87856SOL    HW165465   2.459   1.195  10.626
87856SOL    HW265466   2.413   1.051  10.633
87857SOL     OW65467  13.943   1.367   0.901
87857SOL    HW165468  13.885   1.394   0.830
87857SOL    HW265469  14.021   1.421   0.889
87858SOL     OW65470   3.770   8.425  13.463
87858SOL    HW165471   3.793   8.353  13.522
87858SOL    HW265472   3.776   8.387  13.376
87859SOL     OW65473  10.593   0.920   9.266
87859SOL    HW165474  10.655   0.969   9.212
87859SOL    HW265475  10.649   0.866   9.322
87860SOL     OW65476   5.236  11.966   4.482
87860SOL    HW165477   5.278  12.047   4.453
87860SOL    HW265478   5.303  11.898   4.467
87861SOL     OW65479   0.652  14.765  10.995
87861SOL    HW165480   0.598  14.740  11.069
87861SOL    HW265481   0.616  14.848  10.965
87862SOL     OW65482   5.326   7.063   6.147
87862SOL    HW165483   5.396   7.026   6.093
87862SOL    HW265484   5.311   6.996   6.214
87863SOL     OW65485  12.884  11.864   5.431
87863SOL    HW165486  12.866  11.930   5.498
87863SOL    HW265487  12.883  11.913   5.349
87864SOL     OW65488   4.964   4.585   0.502
87864SOL    HW165489   4.905   4.510   0.492
87864SOL    HW265490   4.917   4.657   0.459
87865SOL     OW65491   4.284   6.031  12.538
87865SOL    HW165492   4.304   6.101  12.475
87865SOL    HW265493   4.275   5.952  12.484
87866SOL     OW65494   9.318  10.267   2.909
87866SOL    HW165495   9.228  10.298   2.897
87866SOL    HW265496   9.312  10.172   2.901
87867SOL     OW65497  10.335   3.112  13.431
87867SOL    HW165498  10.261   3.056  13.407
87867SOL    HW265499  10.354   3.162  13.352
87868SOL     OW65500  14.657  11.692  13.805
87868SOL    HW165501  14.605  11.727  13.732
87868SOL    HW265502  14.647  11.757  13.875
87869SOL     OW65503   7.212  11.446   5.494
87869SOL    HW165504   7.290  11.488   5.532
87869SOL    HW265505   7.210  11.359   5.535
87870SOL     OW65506   5.137  13.189   4.650
87870SOL    HW165507   5.195  13.182   4.574
87870SOL    HW265508   5.169  13.265   4.698
87871SOL     OW65509   9.991  14.609   0.873
87871SOL    HW165510   9.988  14.630   0.779
87871SOL    HW265511  10.078  14.570   0.886
87872SOL     OW65512   8.811  13.091  10.379
87872SOL    HW165513   8.831  13.184  10.368
87872SOL    HW265514   8.866  13.063  10.452
87873SOL     OW65515   5.185  12.061   2.720
87873SOL    HW165516   5.255  12.086   2.660
87873SOL    HW265517   5.195  11.966   2.730
87874SOL     OW65518   5.211   3.884   9.667
87874SOL    HW165519   5.196   3.966   9.620
87874SOL    HW265520   5.262   3.909   9.744
87875SOL     OW65521  12.328  14.413   8.305
87875SOL    HW165522  12.374  14.356   8.243
87875SOL    HW265523  12.340  14.501   8.270
87876SOL     OW65524   4.389   2.324   8.970
87876SOL    HW165525   4.368   2.285   8.886
87876SOL    HW265526   4.460   2.270   9.005
87877SOL     OW65527   8.545   2.674   6.896
87877SOL    HW165528   8.554   2.607   6.827
87877SOL    HW265529   8.614   2.653   6.958
87878SOL     OW65530  13.360   3.981   1.241
87878SOL    HW165531  13.293   3.940   1.186
87878SOL    HW265532  13.389   3.912   1.300
87879SOL     OW65533   0.169   5.583  11.194
87879SOL    HW165534   0.148   5.591  11.287
87879SOL    HW265535   0.227   5.657  11.175
87880SOL     OW65536   9.936   7.564  13.609
87880SOL    HW165537   9.938   7.533  13.699
87880SOL    HW265538   9.939   7.484  13.556
87881SOL     OW65539  14.452  12.499   1.739
87881SOL    HW165540  14.532  12.500   1.791
87881SOL    HW265541  14.423  12.408   1.742
87882SOL     OW65542   9.888   6.638   7.736
87882SOL    HW165543   9.795   6.620   7.751
87882SOL    HW265544   9.924   6.553   7.710
87883SOL     OW65545   3.362   2.417  12.320
87883SOL    HW165546   3.288   2.432  12.379
87883SOL    HW265547   3.326   2.367  12.247
87884SOL     OW65548   5.547   9.130   2.460
87884SOL    HW165549   5.511   9.141   2.548
87884SOL    HW265550   5.476   9.158   2.402
87885SOL     OW65551   6.120   4.529   3.825
87885SOL    HW165552   6.042   4.531   3.771
87885SOL    HW265553   6.152   4.619   3.825
87886SOL     OW65554   0.423   2.859   3.660
87886SOL    HW165555   0.508   2.855   3.615
87886SOL    HW265556   0.416   2.949   3.690
87887SOL     OW65557  10.064   7.325  14.243
87887SOL    HW165558  10.013   7.403  14.263
87887SOL    HW265559  10.096   7.295  14.328
87888SOL     OW65560  10.864   4.494   5.166
87888SOL    HW165561  10.782   4.530   5.201
87888SOL    HW265562  10.858   4.507   5.071
87889SOL     OW65563  10.726   2.231   2.175
87889SOL    HW165564  10.761   2.311   2.214
87889SOL    HW265565  10.648   2.211   2.226
87890SOL     OW65566  10.617   8.290  11.441
87890SOL    HW165567  10.666   8.211  11.464
87890SOL    HW265568  10.554   8.301  11.512
87891SOL     OW65569   1.633   8.819   0.411
87891SOL    HW165570   1.648   8.867   0.492
87891SOL    HW265571   1.622   8.728   0.439
87892SOL     OW65572   2.278   2.378   4.188
87892SOL    HW165573   2.349   2.441   4.204
87892SOL    HW265574   2.199   2.431   4.187
87893SOL     OW65575  10.117   5.710  12.161
87893SOL    HW165576  10.101   5.804  12.169
87893SOL    HW265577  10.135   5.697  12.068
87894SOL     OW65578   8.057  11.247  13.966
87894SOL    HW165579   8.068  11.286  13.879
87894SOL    HW265580   8.119  11.175  13.968
87895SOL     OW65581  14.341   3.241  14.766
87895SOL    HW165582  14.260   3.212  14.809
87895SOL    HW265583  14.400   3.167  14.773
87896SOL     OW65584  10.551  11.637  12.263
87896SOL    HW165585  10.524  11.651  12.354
87896SOL    HW265586  10.632  11.687  12.254
87897SOL     OW65587  11.107  13.223   7.875
87897SOL    HW165588  11.168  13.290   7.903
87897SOL    HW265589  11.161  13.145   7.862
87898SOL     OW65590   7.484  12.687  13.810
87898SOL    HW165591   7.449  12.748  13.745
87898SOL    HW265592   7.413  12.625  13.825
87899SOL     OW65593  10.264   9.048   5.894
87899SOL    HW165594  10.205   9.096   5.836
87899SOL    HW265595  10.254   9.091   5.979
87900SOL     OW65596  10.391  14.163   8.031
87900SOL    HW165597  10.407  14.207   7.948
87900SOL    HW265598  10.336  14.088   8.008
87901SOL     OW65599  13.105   1.618   9.531
87901SOL    HW165600  13.197   1.646   9.535
87901SOL    HW265601  13.084   1.615   9.437
87902SOL     OW65602   0.650   6.458   8.995
87902SOL    HW165603   0.718   6.517   8.964
87902SOL    HW265604   0.579   6.515   9.023
87903SOL     OW65605  10.857  11.444   5.559
87903SOL    HW165606  10.807  11.524   5.577
87903SOL    HW265607  10.795  11.386   5.515
87904SOL     OW65608   8.456   6.758   9.262
87904SOL    HW165609   8.409   6.814   9.323
87904SOL    HW265610   8.393   6.691   9.236
87905SOL     OW65611   1.420  10.250  10.744
87905SOL    HW165612   1.487  10.222  10.806
87905SOL    HW265613   1.468  10.269  10.663
87906SOL     OW65614   7.002   5.842   2.435
87906SOL    HW165615   7.039   5.930   2.436
87906SOL    HW265616   6.908   5.856   2.429
87907SOL     OW65617  13.250   4.023   3.999
87907SOL    HW165618  13.155   4.022   4.012
87907SOL    HW265619  13.265   3.963   3.926
87908SOL     OW65620   6.432   8.260  10.120
87908SOL    HW165621   6.491   8.271  10.045
87908SOL    HW265622   6.417   8.166  10.124
87909SOL     OW65623   2.795  13.159  12.518
87909SOL    HW165624   2.795  13.254  12.514
87909SOL    HW265625   2.839  13.131  12.438
87910SOL     OW65626  10.402   8.975  10.539
87910SOL    HW165627  10.490   9.010  10.546
87910SOL    HW265628  10.414   8.880  10.531
87911SOL     OW65629   4.649   0.364   8.043
87911SOL    HW165630   4.575   0.376   8.102
87911SOL    HW265631   4.608   0.342   7.959
87912SOL     OW65632   1.751   8.863   4.424
87912SOL    HW165633   1.827   8.917   4.402
87912SOL    HW265634   1.769   8.779   4.382
87913SOL     OW65635   2.808   4.521   3.532
87913SOL    HW165636   2.858   4.439   3.534
87913SOL    HW265637   2.754   4.518   3.611
87914SOL     OW65638   8.026   4.023  13.673
87914SOL    HW165639   8.120   4.021  13.656
87914SOL    HW265640   8.016   3.974  13.755
87915SOL     OW65641   1.638   5.824   4.158
87915SOL    HW165642   1.593   5.815   4.242
87915SOL    HW265643   1.594   5.762   4.100
87916SOL     OW65644   4.420  12.992   6.530
87916SOL    HW165645   4.357  12.920   6.521
87916SOL    HW265646   4.365  13.069   6.547
87917SOL     OW65647  14.028   5.573  14.408
87917SOL    HW165648  14.013   5.520  14.486
87917SOL    HW265649  13.941   5.602  14.381
87918SOL     OW65650  10.933   8.054   1.318
87918SOL    HW165651  10.847   8.024   1.288
87918SOL    HW265652  10.995   8.000   1.269
87919SOL     OW65653   6.821   2.246   5.968
87919SOL    HW165654   6.800   2.331   6.005
87919SOL    HW265655   6.915   2.237   5.982
87920SOL     OW65656   3.237   4.545  13.925
87920SOL    HW165657   3.166   4.610  13.929
87920SOL    HW265658   3.193   4.462  13.905
87921SOL     OW65659   9.897   2.500   7.429
87921SOL    HW165660   9.832   2.437   7.399
87921SOL    HW265661   9.852   2.585   7.427
87922SOL     OW65662  10.495   5.652   3.431
87922SOL    HW165663  10.419   5.639   3.373
87922SOL    HW265664  10.550   5.575   3.416
87923SOL     OW65665   5.743   5.723   1.227
87923SOL    HW165666   5.812   5.783   1.255
87923SOL    HW265667   5.771   5.694   1.140
87924SOL     OW65668  10.023   3.235   9.429
87924SOL    HW165669  10.106   3.269   9.394
87924SOL    HW265670  10.048   3.155   9.475
87925SOL     OW65671  13.678   0.722   0.471
87925SOL    HW165672  13.603   0.770   0.507
87925SOL    HW265673  13.640   0.641   0.436
87926SOL     OW65674   2.204   6.158   2.636
87926SOL    HW165675   2.283   6.103   2.629
87926SOL    HW265676   2.140   6.115   2.579
87927SOL     OW65677  14.832  10.391   4.435
87927SOL    HW165678   0.002  10.338   4.372
87927SOL    HW265679   0.010  10.463   4.457
87928SOL     OW65680   5.478  12.926   7.353
87928SOL    HW165681   5.519  12.867   7.290
87928SOL    HW265682   5.522  13.010   7.341
87929SOL     OW65683   8.954   3.390  12.564
87929SOL    HW165684   8.914   3.446  12.497
87929SOL    HW265685   8.880   3.358  12.615
87930SOL     OW65686  14.021   1.454  13.807
87930SOL    HW165687  14.018   1.458  13.902
87930SOL    HW265688  13.998   1.363  13.786
87931SOL     OW65689   1.703  13.572   1.165
87931SOL    HW165690   1.779  13.563   1.222
87931SOL    HW265691   1.734  13.625   1.092
87932SOL     OW65692   7.780  11.330   2.056
87932SOL    HW165693   7.705  11.329   2.115
87932SOL    HW265694   7.816  11.241   2.061
87933SOL     OW65695  12.087  13.882  13.071
87933SOL    HW165696  12.175  13.908  13.042
87933SOL    HW265697  12.030  13.951  13.040
87934SOL     OW65698  13.770   1.317   7.657
87934SOL    HW165699  13.675   1.316   7.668
87934SOL    HW265700  13.795   1.224   7.658
87935SOL     OW65701  10.349   9.566   8.563
87935SOL    HW165702  10.338   9.587   8.471
87935SOL    HW265703  10.329   9.647   8.609
87936SOL     OW65704   6.536   8.391  11.329
87936SOL    HW165705   6.590   8.385  11.249
87936SOL    HW265706   6.587   8.343  11.395
87937SOL     OW65707  14.338  10.946   6.495
87937SOL    HW165708  14.288  10.880   6.447
87937SOL    HW265709  14.274  10.984   6.556
87938SOL     OW65710  10.944  10.027   2.502
87938SOL    HW165711  10.888  10.069   2.567
87938SOL    HW265712  10.997  10.098   2.466
87939SOL     OW65713   3.154   5.537  12.311
87939SOL    HW165714   3.199   5.514  12.230
87939SOL    HW265715   3.212   5.601  12.354
87940SOL     OW65716   0.787   7.660   3.614
87940SOL    HW165717   0.870   7.706   3.599
87940SOL    HW265718   0.721   7.730   3.618
87941SOL     OW65719  11.958  13.548  11.733
87941SOL    HW165720  11.961  13.494  11.812
87941SOL    HW265721  11.896  13.504  11.675
87942SOL     OW65722   4.130   0.452  13.110
87942SOL    HW165723   4.116   0.480  13.201
87942SOL    HW265724   4.104   0.528  13.058
87943SOL     OW65725   9.759   8.523   3.740
87943SOL    HW165726   9.845   8.511   3.782
87943SOL    HW265727   9.748   8.618   3.735
87944SOL     OW65728   3.050  13.590   7.229
87944SOL    HW165729   3.128  13.557   7.185
87944SOL    HW265730   2.983  13.593   7.161
87945SOL     OW65731  13.185   0.327   4.570
87945SOL    HW165732  13.191   0.421   4.585
87945SOL    HW265733  13.224   0.288   4.648
87946SOL     OW65734  13.502   5.537  14.396
87946SOL    HW165735  13.455   5.606  14.444
87946SOL    HW265736  13.438   5.505  14.333
87947SOL     OW65737  12.088   4.306   8.556
87947SOL    HW165738  12.087   4.219   8.516
87947SOL    HW265739  12.156   4.301   8.623
87948SOL     OW65740   8.062   5.645   0.009
87948SOL    HW165741   8.002   5.577   0.040
87948SOL    HW265742   8.060   5.712   0.078
87949SOL     OW65743   5.917  14.296   9.155
87949SOL    HW165744   5.855  14.229   9.126
87949SOL    HW265745   5.928  14.279   9.249
87950SOL     OW65746  14.551   7.869   2.304
87950SOL    HW165747  14.464   7.904   2.323
87950SOL    HW265748  14.557   7.790   2.358
87951SOL     OW65749   6.529  10.898   2.611
87951SOL    HW165750   6.549  10.948   2.531
87951SOL    HW265751   6.435  10.881   2.605
87952SOL     OW65752  12.612   2.000   6.416
87952SOL    HW165753  12.559   1.981   6.338
87952SOL    HW265754  12.569   1.952   6.487
87953SOL     OW65755  11.954   1.138  14.808
87953SOL    HW165756  11.861   1.116  14.803
87953SOL    HW265757  11.965   1.182   0.012
87954SOL     OW65758   2.990   6.458   6.377
87954SOL    HW165759   2.939   6.504   6.443
87954SOL    HW265760   2.927   6.399   6.334
87955SOL     OW65761   0.003   9.177  13.030
87955SOL    HW165762  14.839   9.152  13.111
87955SOL    HW265763   0.086   9.214  13.059
87956SOL     OW65764   9.277   1.348   5.308
87956SOL    HW165765   9.220   1.425   5.314
87956SOL    HW265766   9.306   1.332   5.398
87957SOL     OW65767   0.898  13.320   1.221
87957SOL    HW165768   0.842  13.262   1.272
87957SOL    HW265769   0.858  13.323   1.134
87958SOL     OW65770  12.963  14.254   8.461
87958SOL    HW165771  12.875  14.261   8.497
87958SOL    HW265772  12.994  14.168   8.490
87959SOL     OW65773   1.608   3.494  11.740
87959SOL    HW165774   1.700   3.474  11.723
87959SOL    HW265775   1.584   3.439  11.815
87960SOL     OW65776   7.924   1.123   9.308
87960SOL    HW165777   7.942   1.210   9.273
87960SOL    HW265778   7.841   1.132   9.354
87961SOL     OW65779  10.707   7.057  12.936
87961SOL    HW165780  10.632   6.999  12.926
87961SOL    HW265781  10.726   7.088  12.848
87962SOL     OW65782   6.410   1.276   6.773
87962SOL    HW165783   6.472   1.307   6.707
87962SOL    HW265784   6.464   1.236   6.841
87963SOL     OW65785   8.535  10.750   4.151
87963SOL    HW165786   8.473  10.721   4.218
87963SOL    HW265787   8.593  10.811   4.198
87964SOL     OW65788   7.619  13.644   0.402
87964SOL    HW165789   7.636  13.554   0.432
87964SOL    HW265790   7.616  13.696   0.483
87965SOL     OW65791  11.552   2.402  14.286
87965SOL    HW165792  11.479   2.417  14.346
87965SOL    HW265793  11.561   2.484  14.238
87966SOL     OW65794   9.711   0.083   3.035
87966SOL    HW165795   9.697   0.096   3.129
87966SOL    HW265796   9.746  14.874   3.029
87967SOL     OW65797   0.613   0.136   7.909
87967SOL    HW165798   0.635   0.070   7.975
87967SOL    HW265799   0.527   0.109   7.877
87968SOL     OW65800  14.698  12.078   8.604
87968SOL    HW165801  14.746  11.996   8.600
87968SOL    HW265802  14.686  12.104   8.513
87969SOL     OW65803   2.180  12.271  13.645
87969SOL    HW165804   2.203  12.220  13.723
87969SOL    HW265805   2.212  12.359  13.663
87970SOL     OW65806   6.891  12.478   7.729
87970SOL    HW165807   6.871  12.462   7.821
87970SOL    HW265808   6.980  12.512   7.728
87971SOL     OW65809  11.701   8.483  13.698
87971SOL    HW165810  11.769   8.497  13.632
87971SOL    HW265811  11.621   8.469  13.648
87972SOL     OW65812   1.512   4.131   8.440
87972SOL    HW165813   1.517   4.113   8.346
87972SOL    HW265814   1.516   4.226   8.447
87973SOL     OW65815  10.658  13.490   2.642
87973SOL    HW165816  10.658  13.400   2.609
87973SOL    HW265817  10.572  13.524   2.620
87974SOL     OW65818   9.867   2.710   3.390
87974SOL    HW165819   9.776   2.702   3.361
87974SOL    HW265820   9.918   2.661   3.325
87975SOL     OW65821   1.431  13.354   7.382
87975SOL    HW165822   1.494  13.410   7.337
87975SOL    HW265823   1.348  13.372   7.338
87976SOL     OW65824   8.034   5.107  12.506
87976SOL    HW165825   8.034   5.013  12.524
87976SOL    HW265826   8.125   5.127  12.485
87977SOL     OW65827   1.940   6.917   1.603
87977SOL    HW165828   1.859   6.867   1.613
87977SOL    HW265829   1.965   6.938   1.693
87978SOL     OW65830  10.567  13.303  12.634
87978SOL    HW165831  10.657  13.333  12.641
87978SOL    HW265832  10.568  13.240  12.562
87979SOL     OW65833   9.403   6.694  12.886
87979SOL    HW165834   9.495   6.708  12.906
87979SOL    HW265835   9.386   6.604  12.912
87980SOL     OW65836   8.937  12.849   5.667
87980SOL    HW165837   8.922  12.761   5.634
87980SOL    HW265838   9.032  12.858   5.671
87981SOL     OW65839  11.429   1.226   9.567
87981SOL    HW165840  11.505   1.241   9.511
87981SOL    HW265841  11.442   1.139   9.603
87982SOL     OW65842  11.246   7.225  12.006
87982SOL    HW165843  11.227   7.132  11.998
87982SOL    HW265844  11.319   7.241  11.946
87983SOL     OW65845   5.183   1.216   5.802
87983SOL    HW165846   5.189   1.120   5.802
87983SOL    HW265847   5.274   1.245   5.798
87984SOL     OW65848  13.190   4.953   5.256
87984SOL    HW165849  13.139   4.994   5.326
87984SOL    HW265850  13.281   4.968   5.282
87985SOL     OW65851  10.407   0.966  11.727
87985SOL    HW165852  10.358   0.934  11.651
87985SOL    HW265853  10.421   1.059  11.710
87986SOL     OW65854   3.414   1.669   9.539
87986SOL    HW165855   3.477   1.685   9.610
87986SOL    HW265856   3.329   1.694   9.577
87987SOL     OW65857   7.477  12.707  13.247
87987SOL    HW165858   7.400  12.713  13.191
87987SOL    HW265859   7.549  12.739  13.192
87988SOL     OW65860  11.258   5.175   2.027
87988SOL    HW165861  11.288   5.197   2.115
87988SOL    HW265862  11.289   5.085   2.013
87989SOL     OW65863   3.934   8.883  11.694
87989SOL    HW165864   3.921   8.804  11.747
87989SOL    HW265865   3.859   8.885  11.635
87990SOL     OW65866  12.748   8.837  14.787
87990SOL    HW165867  12.759   8.792  14.703
87990SOL    HW265868  12.822   8.808  14.840
87991SOL     OW65869  12.003  12.858   0.545
87991SOL    HW165870  12.030  12.945   0.574
87991SOL    HW265871  12.056  12.798   0.598
87992SOL     OW65872   5.284   0.857   8.889
87992SOL    HW165873   5.272   0.779   8.835
87992SOL    HW265874   5.244   0.928   8.838
87993SOL     OW65875   0.762   4.989  11.825
87993SOL    HW165876   0.837   5.049  11.836
87993SOL    HW265877   0.750   4.984  11.730
87994SOL     OW65878   1.586   8.521   2.614
87994SOL    HW165879   1.630   8.598   2.650
87994SOL    HW265880   1.656   8.473   2.569
87995SOL     OW65881   0.594   5.086   2.141
87995SOL    HW165882   0.657   5.040   2.196
87995SOL    HW265883   0.527   5.118   2.201
87996SOL     OW65884   0.988   4.559   7.506
87996SOL    HW165885   1.039   4.478   7.517
87996SOL    HW265886   1.024   4.618   7.572
87997SOL     OW65887   0.592  10.214   1.980
87997SOL    HW165888   0.591  10.148   2.050
87997SOL    HW265889   0.685  10.234   1.968
87998SOL     OW65890  11.699   5.073  10.633
87998SOL    HW165891  11.682   5.038  10.546
87998SOL    HW265892  11.728   4.997  10.684
87999SOL     OW65893  11.891  13.789   1.851
87999SOL    HW165894  11.963  13.744   1.806
87999SOL    HW265895  11.844  13.719   1.897
88000SOL     OW65896   2.176   0.256   0.133
88000SOL    HW165897   2.180   0.305   0.215
88000SOL    HW265898   2.245   0.293   0.079
88001SOL     OW65899   6.844   1.756   1.692
88001SOL    HW165900   6.914   1.698   1.662
88001SOL    HW265901   6.879   1.796   1.772
88002SOL     OW65902   0.710  10.018  11.655
88002SOL    HW165903   0.639  10.070  11.692
88002SOL    HW265904   0.708  10.037  11.562
88003SOL     OW65905  10.735  11.155   8.030
88003SOL    HW165906  10.667  11.122   7.971
88003SOL    HW265907  10.721  11.108   8.112
88004SOL     OW65908   4.035   0.238   6.097
88004SOL    HW165909   3.972   0.257   6.167
88004SOL    HW265910   4.116   0.280   6.127
88005SOL     OW65911   8.279  14.648   3.906
88005SOL    HW165912   8.315  14.653   3.817
88005SOL    HW265913   8.322  14.718   3.954
88006SOL     OW65914   7.994   5.207  11.180
88006SOL    HW165915   7.982   5.296  11.213
88006SOL    HW265916   8.040   5.218  11.097
88007SOL     OW65917  13.459   6.963  10.550
88007SOL    HW165918  13.534   7.019  10.570
88007SOL    HW265919  13.444   6.977  10.456
88008SOL     OW65920   4.787  14.105   4.469
88008SOL    HW165921   4.828  14.040   4.525
88008SOL    HW265922   4.812  14.190   4.506
88009SOL     OW65923   5.116   2.137   3.141
88009SOL    HW165924   5.100   2.129   3.235
88009SOL    HW265925   5.073   2.219   3.116
88010SOL     OW65926   0.476   1.792  11.524
88010SOL    HW165927   0.490   1.705  11.487
88010SOL    HW265928   0.381   1.805  11.519
88011SOL     OW65929   1.174   2.032   3.097
88011SOL    HW165930   1.188   1.938   3.084
88011SOL    HW265931   1.132   2.038   3.183
88012SOL     OW65932   6.280  12.264   6.460
88012SOL    HW165933   6.348  12.325   6.433
88012SOL    HW265934   6.215  12.319   6.504
88013SOL     OW65935   0.239  10.044  11.812
88013SOL    HW165936   0.148  10.072  11.812
88013SOL    HW265937   0.242   9.969  11.753
88014SOL     OW65938   4.175   2.122   5.117
88014SOL    HW165939   4.265   2.152   5.111
88014SOL    HW265940   4.171   2.072   5.199
88015SOL     OW65941   9.227   5.788  14.778
88015SOL    HW165942   9.188   5.730  14.843
88015SOL    HW265943   9.315   5.805  14.811
88016SOL     OW65944   5.412   0.715  13.750
88016SOL    HW165945   5.421   0.723  13.655
88016SOL    HW265946   5.325   0.677  13.763
88017SOL     OW65947  10.952   0.263  14.195
88017SOL    HW165948  11.031   0.229  14.237
88017SOL    HW265949  10.980   0.291  14.108
88018SOL     OW65950   4.410   9.402  12.379
88018SOL    HW165951   4.318   9.386  12.402
88018SOL    HW265952   4.412   9.392  12.284
88019SOL     OW65953   5.421  12.279  10.742
88019SOL    HW165954   5.352  12.265  10.807
88019SOL    HW265955   5.382  12.250  10.660
88020SOL     OW65956  12.066   1.592   5.026
88020SOL    HW165957  12.066   1.622   4.935
88020SOL    HW265958  11.976   1.568   5.043
88021SOL     OW65959   8.982   5.577   4.919
88021SOL    HW165960   9.006   5.520   4.992
88021SOL    HW265961   8.915   5.527   4.871
88022SOL     OW65962   2.786  10.068   1.747
88022SOL    HW165963   2.840  10.044   1.673
88022SOL    HW265964   2.833  10.034   1.823
88023SOL     OW65965   1.999   0.587   7.681
88023SOL    HW165966   2.048   0.508   7.705
88023SOL    HW265967   1.946   0.560   7.605
88024SOL     OW65968   2.355   7.109  12.420
88024SOL    HW165969   2.274   7.119  12.468
88024SOL    HW265970   2.346   7.025  12.374
88025SOL     OW65971   5.082  14.601  11.030
88025SOL    HW165972   5.070  14.622  10.937
88025SOL    HW265973   5.113  14.683  11.069
88026SOL     OW65974   0.268  14.482  14.465
88026SOL    HW165975   0.322  14.509  14.539
88026SOL    HW265976   0.329  14.479  14.391
88027SOL     OW65977  12.585   7.370   0.512
88027SOL    HW165978  12.676   7.396   0.522
88027SOL    HW265979  12.579   7.285   0.556
88028SOL     OW65980   0.856   6.153   9.310
88028SOL    HW165981   0.886   6.143   9.400
88028SOL    HW265982   0.924   6.203   9.267
88029SOL     OW65983  12.595   3.189   1.679
88029SOL    HW165984  12.574   3.245   1.754
88029SOL    HW265985  12.548   3.107   1.696
88030SOL     OW65986   3.329  12.456   3.918
88030SOL    HW165987   3.235  12.466   3.931
88030SOL    HW265988   3.353  12.379   3.970
88031SOL     OW65989  12.569   5.964  11.220
88031SOL    HW165990  12.637   5.997  11.279
88031SOL    HW265991  12.617   5.937  11.141
88032SOL     OW65992   2.861  13.814   2.337
88032SOL    HW165993   2.814  13.878   2.283
88032SOL    HW265994   2.926  13.776   2.277
88033SOL     OW65995   4.463  12.741   6.723
88033SOL    HW165996   4.388  12.736   6.663
88033SOL    HW265997   4.509  12.821   6.696
88034SOL     OW65998   6.109   3.557  14.711
88034SOL    HW165999   6.074   3.487  14.767
88034SOL    HW266000   6.197   3.527  14.687
88035SOL     OW66001  14.171   7.476   6.999
88035SOL    HW166002  14.211   7.404   6.950
88035SOL    HW266003  14.233   7.494   7.070
88036SOL     OW66004   6.539   0.979   4.128
88036SOL    HW166005   6.586   1.006   4.207
88036SOL    HW266006   6.562   1.044   4.062
88037SOL     OW66007   8.453  13.836  12.068
88037SOL    HW166008   8.357  13.835  12.065
88037SOL    HW266009   8.476  13.756  12.115
88038SOL     OW66010   2.111   1.386   1.031
88038SOL    HW166011   2.183   1.387   0.967
88038SOL    HW266012   2.045   1.444   0.993
88039SOL     OW66013  11.235  11.133   7.401
88039SOL    HW166014  11.199  11.148   7.488
88039SOL    HW266015  11.167  11.165   7.342
88040SOL     OW66016   3.190   0.893  10.992
88040SOL    HW166017   3.282   0.889  11.017
88040SOL    HW266018   3.179   0.980  10.953
88041SOL     OW66019  11.061   7.836   8.411
88041SOL    HW166020  10.977   7.802   8.380
88041SOL    HW266021  11.038   7.912   8.464
88042SOL     OW66022   0.859   0.267   1.915
88042SOL    HW166023   0.899   0.353   1.903
88042SOL    HW266024   0.932   0.205   1.908
88043SOL     OW66025   2.914   1.505  14.468
88043SOL    HW166026   2.853   1.570  14.433
88043SOL    HW266027   2.858   1.444  14.517
88044SOL     OW66028   7.603  11.041  12.802
88044SOL    HW166029   7.659  11.038  12.879
88044SOL    HW266030   7.523  10.996  12.828
88045SOL     OW66031   5.961   3.016   4.031
88045SOL    HW166032   6.042   3.019   4.082
88045SOL    HW266033   5.977   3.075   3.957
88046SOL     OW66034   9.453  11.305   6.097
88046SOL    HW166035   9.368  11.261   6.105
88046SOL    HW266036   9.499  11.283   6.178
88047SOL     OW66037   4.056   3.888   4.893
88047SOL    HW166038   4.099   3.848   4.968
88047SOL    HW266039   4.108   3.861   4.817
88048SOL     OW66040   2.559   8.867   5.976
88048SOL    HW166041   2.572   8.904   6.063
88048SOL    HW266042   2.484   8.914   5.940
88049SOL     OW66043   5.384   3.533   8.796
88049SOL    HW166044   5.396   3.448   8.755
88049SOL    HW266045   5.463   3.582   8.772
88050SOL     OW66046   0.851   3.559   7.981
88050SOL    HW166047   0.903   3.636   7.957
88050SOL    HW266048   0.760   3.590   7.979
88051SOL     OW66049  14.777   8.750   8.315
88051SOL    HW166050  14.774   8.680   8.381
88051SOL    HW266051  14.690   8.790   8.319
88052SOL     OW66052  13.965  11.746   2.471
88052SOL    HW166053  13.933  11.678   2.531
88052SOL    HW266054  14.051  11.770   2.506
88053SOL     OW66055  13.999   9.308   7.237
88053SOL    HW166056  13.924   9.249   7.233
88053SOL    HW266057  14.011   9.337   7.147
88054SOL     OW66058  12.323   2.653   4.247
88054SOL    HW166059  12.301   2.631   4.157
88054SOL    HW266060  12.290   2.742   4.259
88055SOL     OW66061  12.127  11.130   7.894
88055SOL    HW166062  12.162  11.217   7.876
88055SOL    HW266063  12.200  11.071   7.880
88056SOL     OW66064   0.321   4.451   0.552
88056SOL    HW166065   0.311   4.433   0.645
88056SOL    HW266066   0.321   4.547   0.545
88057SOL     OW66067   2.056  11.797   3.009
88057SOL    HW166068   1.990  11.865   3.000
88057SOL    HW266069   2.090  11.785   2.920
88058SOL     OW66070   8.000  12.168   5.197
88058SOL    HW166071   8.036  12.112   5.266
88058SOL    HW266072   7.991  12.254   5.239
88059SOL     OW66073   0.192  12.899  11.482
88059SOL    HW166074   0.224  12.842  11.412
88059SOL    HW266075   0.107  12.862  11.507
88060SOL     OW66076   5.355   2.672  12.040
88060SOL    HW166077   5.409   2.617  11.982
88060SOL    HW266078   5.316   2.610  12.102
88061SOL     OW66079   8.560  14.533  13.006
88061SOL    HW166080   8.644  14.578  13.001
88061SOL    HW266081   8.516  14.555  12.924
88062SOL     OW66082  14.666  11.811   7.291
88062SOL    HW166083  14.583  11.807   7.338
88062SOL    HW266084  14.725  11.858   7.350
88063SOL     OW66085   4.910  13.402  14.619
88063SOL    HW166086   4.846  13.409  14.690
88063SOL    HW266087   4.868  13.345  14.554
88064SOL     OW66088  10.918   4.813   5.381
88064SOL    HW166089  10.948   4.869   5.309
88064SOL    HW266090  10.823   4.818   5.376
88065SOL     OW66091   2.836   9.285   4.655
88065SOL    HW166092   2.821   9.302   4.562
88065SOL    HW266093   2.928   9.262   4.661
88066SOL     OW66094   7.982   9.130   6.623
88066SOL    HW166095   8.002   9.052   6.673
88066SOL    HW266096   7.887   9.135   6.622
88067SOL     OW66097  11.046   9.942  14.845
88067SOL    HW166098  11.010   9.864  14.804
88067SOL    HW266099  11.102   9.981  14.778
88068SOL     OW66100   7.476   9.404  11.923
88068SOL    HW166101   7.409   9.357  11.973
88068SOL    HW266102   7.447   9.397  11.832
88069SOL     OW66103  13.248   0.159   0.641
88069SOL    HW166104  13.163   0.116   0.629
88069SOL    HW266105  13.311   0.087   0.641
88070SOL     OW66106  12.719   8.578   9.719
88070SOL    HW166107  12.686   8.491   9.740
88070SOL    HW266108  12.807   8.580   9.757
88071SOL     OW66109   9.350   4.760   7.955
88071SOL    HW166110   9.374   4.851   7.936
88071SOL    HW266111   9.375   4.748   8.047
88072SOL     OW66112   2.825   0.477  12.462
88072SOL    HW166113   2.841   0.524  12.543
88072SOL    HW266114   2.910   0.440  12.438
88073SOL     OW66115   2.784  10.654   6.544
88073SOL    HW166116   2.828  10.570   6.536
88073SOL    HW266117   2.851  10.713   6.580
88074SOL     OW66118   8.880   6.702   4.920
88074SOL    HW166119   8.788   6.692   4.897
88074SOL    HW266120   8.894   6.640   4.991
88075SOL     OW66121   8.253   2.824   8.084
88075SOL    HW166122   8.242   2.878   8.006
88075SOL    HW266123   8.310   2.876   8.141
88076SOL     OW66124   5.646  11.840   2.650
88076SOL    HW166125   5.726  11.890   2.634
88076SOL    HW266126   5.674  11.765   2.701
88077SOL     OW66127  12.185   4.512  12.923
88077SOL    HW166128  12.118   4.538  12.859
88077SOL    HW266129  12.258   4.481  12.869
88078SOL     OW66130   2.064   9.006   1.753
88078SOL    HW166131   2.148   8.967   1.775
88078SOL    HW266132   2.003   8.967   1.816
88079SOL     OW66133   9.510   9.351   3.134
88079SOL    HW166134   9.514   9.404   3.213
88079SOL    HW266135   9.600   9.320   3.121
88080SOL     OW66136   1.487   6.121  13.035
88080SOL    HW166137   1.545   6.177  12.983
88080SOL    HW266138   1.414   6.102  12.977
88081SOL     OW66139   3.368   9.874   9.822
88081SOL    HW166140   3.408   9.810   9.764
88081SOL    HW266141   3.274   9.854   9.818
88082SOL     OW66142   9.606   9.322   6.753
88082SOL    HW166143   9.597   9.369   6.836
88082SOL    HW266144   9.678   9.261   6.767
88083SOL     OW66145   8.238   4.670   4.158
88083SOL    HW166146   8.200   4.678   4.246
88083SOL    HW266147   8.247   4.576   4.144
88084SOL     OW66148   9.094   1.392   4.748
88084SOL    HW166149   9.062   1.361   4.663
88084SOL    HW266150   9.133   1.314   4.789
88085SOL     OW66151   3.276   6.907  14.258
88085SOL    HW166152   3.348   6.847  14.241
88085SOL    HW266153   3.313   6.994  14.244
88086SOL     OW66154  12.725  13.132   6.096
88086SOL    HW166155  12.726  13.089   6.010
88086SOL    HW266156  12.784  13.207   6.087
88087SOL     OW66157   9.629   0.477   7.831
88087SOL    HW166158   9.695   0.540   7.860
88087SOL    HW266159   9.666   0.437   7.753
88088SOL     OW66160   5.439   6.748   0.333
88088SOL    HW166161   5.476   6.731   0.246
88088SOL    HW266162   5.451   6.842   0.346
88089SOL     OW66163  10.086   2.344   8.633
88089SOL    HW166164  10.095   2.439   8.636
88089SOL    HW266165   9.997   2.327   8.663
88090SOL     OW66166   2.451  13.020   4.163
88090SOL    HW166167   2.500  13.027   4.245
88090SOL    HW266168   2.369  12.976   4.188
88091SOL     OW66169   5.867   1.378  11.922
88091SOL    HW166170   5.803   1.448  11.940
88091SOL    HW266171   5.951   1.424  11.916
88092SOL     OW66172   8.635   6.347   0.197
88092SOL    HW166173   8.700   6.345   0.127
88092SOL    HW266174   8.596   6.260   0.197
88093SOL     OW66175  11.500  14.449   4.846
88093SOL    HW166176  11.565  14.512   4.815
88093SOL    HW266177  11.473  14.401   4.768
88094SOL     OW66178   0.421   1.572  10.495
88094SOL    HW166179   0.356   1.573  10.425
88094SOL    HW266180   0.474   1.651  10.479
88095SOL     OW66181  13.629   8.092   7.809
88095SOL    HW166182  13.685   8.140   7.869
88095SOL    HW266183  13.634   8.001   7.837
88096SOL     OW66184   1.690   0.425   5.145
88096SOL    HW166185   1.638   0.427   5.226
88096SOL    HW266186   1.746   0.503   5.151
88097SOL     OW66187  14.663   6.126   3.286
88097SOL    HW166188  14.718   6.204   3.295
88097SOL    HW266189  14.724   6.057   3.260
88098SOL     OW66190   1.531   8.772  13.625
88098SOL    HW166191   1.531   8.830  13.702
88098SOL    HW266192   1.473   8.815  13.562
88099SOL     OW66193   3.755  13.596   1.705
88099SOL    HW166194   3.828  13.551   1.662
88099SOL    HW266195   3.708  13.528   1.752
88100SOL     OW66196   8.207   9.185  10.746
88100SOL    HW166197   8.237   9.097  10.770
88100SOL    HW266198   8.196   9.230  10.829
88101SOL     OW66199   4.981  13.382   3.811
88101SOL    HW166200   4.963  13.344   3.897
88101SOL    HW266201   4.894  13.400   3.774
88102SOL     OW66202   9.044   1.648   6.954
88102SOL    HW166203   9.136   1.674   6.964
88102SOL    HW266204   9.007   1.715   6.897
88103SOL     OW66205   0.849  12.379   8.901
88103SOL    HW166206   0.824  12.440   8.971
88103SOL    HW266207   0.803  12.298   8.922
88104SOL     OW66208   4.322   5.387   5.127
88104SOL    HW166209   4.254   5.321   5.127
88104SOL    HW266210   4.372   5.372   5.047
88105SOL     OW66211  11.077   3.128  11.973
88105SOL    HW166212  11.142   3.127  12.042
88105SOL    HW266213  11.015   3.059  11.997
88106SOL     OW66214  10.040   9.248   4.190
88106SOL    HW166215  10.088   9.177   4.146
88106SOL    HW266216  10.080   9.254   4.277
88107SOL     OW66217   4.390  14.259   0.575
88107SOL    HW166218   4.473  14.281   0.617
88107SOL    HW266219   4.365  14.176   0.615
88108SOL     OW66220   6.084   6.276   4.729
88108SOL    HW166221   5.999   6.236   4.745
88108SOL    HW266222   6.078   6.364   4.766
88109SOL     OW66223  13.843   9.055   2.730
88109SOL    HW166224  13.889   9.030   2.650
88109SOL    HW266225  13.911   9.090   2.787
88110SOL     OW66226   5.125   3.786   6.656
88110SOL    HW166227   5.141   3.739   6.738
88110SOL    HW266228   5.056   3.849   6.678
88111SOL     OW66229   6.375   9.168   0.125
88111SOL    HW166230   6.369   9.264   0.121
88111SOL    HW266231   6.396   9.142   0.035
88112SOL     OW66232  13.781   3.547   4.637
88112SOL    HW166233  13.751   3.465   4.677
88112SOL    HW266234  13.773   3.533   4.543
88113SOL     OW66235   3.128  12.670   8.641
88113SOL    HW166236   3.131  12.699   8.550
88113SOL    HW266237   3.109  12.577   8.636
88114SOL     OW66238  14.743  14.451  11.935
88114SOL    HW166239  14.748  14.540  11.972
88114SOL    HW266240  14.770  14.461  11.844
88115SOL     OW66241   1.978   0.296   3.949
88115SOL    HW166242   2.069   0.269   3.960
88115SOL    HW266243   1.939   0.288   4.036
88116SOL     OW66244   5.206   3.691  10.851
88116SOL    HW166245   5.182   3.682  10.943
88116SOL    HW266246   5.153   3.763  10.819
88117SOL     OW66247   3.228  13.486  13.496
88117SOL    HW166248   3.299  13.452  13.552
88117SOL    HW266249   3.217  13.577  13.524
88118SOL     OW66250   8.475   5.725   8.242
88118SOL    HW166251   8.545   5.703   8.304
88118SOL    HW266252   8.481   5.658   8.174
88119SOL     OW66253  11.369  12.143  12.599
88119SOL    HW166254  11.359  12.228  12.557
88119SOL    HW266255  11.442  12.102  12.552
88120SOL     OW66256   2.372   1.442   0.887
88120SOL    HW166257   2.401   1.365   0.839
88120SOL    HW266258   2.452   1.490   0.907
88121SOL     OW66259   6.152   9.770  10.122
88121SOL    HW166260   6.229   9.777  10.066
88121SOL    HW266261   6.133   9.860  10.149
88122SOL     OW66262  12.311   1.456   2.599
88122SOL    HW166263  12.318   1.480   2.691
88122SOL    HW266264  12.326   1.537   2.551
88123SOL     OW66265   5.241   6.068   0.653
88123SOL    HW166266   5.155   6.026   0.649
88123SOL    HW266267   5.290   6.030   0.579
88124SOL     OW66268   0.708  10.431  10.050
88124SOL    HW166269   0.794  10.448  10.088
88124SOL    HW266270   0.684  10.344  10.083
88125SOL     OW66271  13.713   6.174   4.709
88125SOL    HW166272  13.737   6.242   4.645
88125SOL    HW266273  13.791   6.165   4.764
88126SOL     OW66274   4.019   7.756   9.081
88126SOL    HW166275   4.019   7.794   8.993
88126SOL    HW266276   3.929   7.727   9.094
88127SOL     OW66277  11.720   2.241   5.750
88127SOL    HW166278  11.650   2.204   5.802
88127SOL    HW266279  11.755   2.167   5.700
88128SOL     OW66280   0.016  14.837   9.431
88128SOL    HW166281   0.102  14.858   9.467
88128SOL    HW266282   0.019  14.743   9.414
88129SOL     OW66283   0.982   9.541  12.021
88129SOL    HW166284   1.017   9.452  12.019
88129SOL    HW266285   0.928   9.547  11.941
88130SOL     OW66286   2.534   1.353  11.462
88130SOL    HW166287   2.565   1.291  11.397
88130SOL    HW266288   2.597   1.348  11.533
88131SOL     OW66289   4.799   1.031   2.140
88131SOL    HW166290   4.765   0.970   2.204
88131SOL    HW266291   4.820   0.977   2.063
88132SOL     OW66292   2.352  11.843   6.338
88132SOL    HW166293   2.435  11.807   6.305
88132SOL    HW266294   2.379  11.906   6.405
88133SOL     OW66295   3.949   9.956   1.911
88133SOL    HW166296   4.019   9.911   1.863
88133SOL    HW266297   3.994  10.030   1.953
88134SOL     OW66298   1.966  14.347   3.248
88134SOL    HW166299   2.004  14.296   3.176
88134SOL    HW266300   1.873  14.352   3.227
88135SOL     OW66301  11.286   6.427   5.983
88135SOL    HW166302  11.324   6.397   6.066
88135SOL    HW266303  11.221   6.493   6.009
88136SOL     OW66304   9.073  10.896   8.737
88136SOL    HW166305   9.159  10.923   8.703
88136SOL    HW266306   9.038  10.975   8.777
88137SOL     OW66307  14.349   5.505   3.196
88137SOL    HW166308  14.378   5.466   3.278
88137SOL    HW266309  14.335   5.597   3.218
88138SOL     OW66310   9.827   7.429   5.548
88138SOL    HW166311   9.908   7.386   5.519
88138SOL    HW266312   9.786   7.459   5.467
88139SOL     OW66313   8.093   6.484   7.698
88139SOL    HW166314   8.074   6.443   7.782
88139SOL    HW266315   8.075   6.577   7.711
88140SOL     OW66316  12.107  14.077  12.511
88140SOL    HW166317  12.194  14.115  12.521
88140SOL    HW266318  12.049  14.138  12.557
88141SOL     OW66319   3.298  10.562   6.003
88141SOL    HW166320   3.238  10.576   6.076
88141SOL    HW266321   3.340  10.478   6.023
88142SOL     OW66322   0.056  10.917  13.797
88142SOL    HW166323  14.867  10.881  13.742
88142SOL    HW266324   0.023  10.909  13.886
88143SOL     OW66325   0.751  13.754  13.257
88143SOL    HW166326   0.698  13.687  13.215
88143SOL    HW266327   0.714  13.765  13.344
88144SOL     OW66328  14.295   0.935  14.306
88144SOL    HW166329  14.295   0.852  14.259
88144SOL    HW266330  14.388   0.958  14.313
88145SOL     OW66331   1.198  11.208   5.810
88145SOL    HW166332   1.287  11.239   5.796
88145SOL    HW266333   1.144  11.261   5.753
88146SOL     OW66334   0.690  12.483   9.126
88146SOL    HW166335   0.687  12.547   9.197
88146SOL    HW266336   0.634  12.411   9.156
88147SOL     OW66337   0.048  14.173   8.463
88147SOL    HW166338   0.099  14.095   8.441
88147SOL    HW266339   0.107  14.227   8.515
88148SOL     OW66340  14.621  12.576   5.342
88148SOL    HW166341  14.686  12.635   5.305
88148SOL    HW266342  14.576  12.628   5.408
88149SOL     OW66343  13.233   6.661   7.514
88149SOL    HW166344  13.262   6.737   7.564
88149SOL    HW266345  13.314   6.622   7.481
88150SOL     OW66346   1.203   1.198   4.324
88150SOL    HW166347   1.235   1.162   4.242
88150SOL    HW266348   1.282   1.210   4.377
88151SOL     OW66349  10.075   9.402   3.329
88151SOL    HW166350  10.085   9.365   3.416
88151SOL    HW266351  10.137   9.353   3.275
88152SOL     OW66352   8.865  13.010  14.437
88152SOL    HW166353   8.804  13.049  14.498
88152SOL    HW266354   8.936  12.977  14.491
88153SOL     OW66355  10.680   3.022   3.089
88153SOL    HW166356  10.747   3.089   3.104
88153SOL    HW266357  10.695   2.995   2.998
88154SOL     OW66358   6.691   4.156   7.046
88154SOL    HW166359   6.648   4.175   6.963
88154SOL    HW266360   6.629   4.101   7.093
88155SOL     OW66361   4.564  14.868   5.760
88155SOL    HW166362   4.639   0.047   5.763
88155SOL    HW266363   4.588  14.802   5.695
88156SOL     OW66364   3.583   1.722   1.470
88156SOL    HW166365   3.554   1.798   1.420
88156SOL    HW266366   3.633   1.670   1.407
88157SOL     OW66367   2.448   9.909   0.018
88157SOL    HW166368   2.359   9.947   0.015
88157SOL    HW266369   2.439   9.832   0.075
88158SOL     OW66370   6.076   6.909  10.091
88158SOL    HW166371   6.156   6.928  10.139
88158SOL    HW266372   6.100   6.918   9.999
88159SOL     OW66373  11.414   8.360   8.637
88159SOL    HW166374  11.371   8.332   8.556
88159SOL    HW266375  11.493   8.405   8.608
88160SOL     OW66376   8.009   9.052   2.719
88160SOL    HW166377   8.095   9.055   2.761
88160SOL    HW266378   7.978   9.143   2.721
88161SOL     OW66379   8.124   8.581  13.443
88161SOL    HW166380   8.103   8.639  13.370
88161SOL    HW266381   8.127   8.493  13.404
88162SOL     OW66382   0.706  10.475  11.525
88162SOL    HW166383   0.707  10.463  11.620
88162SOL    HW266384   0.614  10.488  11.503
88163SOL     OW66385   1.571  12.141  10.353
88163SOL    HW166386   1.512  12.189  10.411
88163SOL    HW266387   1.658  12.175  10.374
88164SOL     OW66388  10.218   8.122   1.528
88164SOL    HW166389  10.231   8.106   1.621
88164SOL    HW266390  10.181   8.041   1.494
88165SOL     OW66391  11.073   2.458   4.683
88165SOL    HW166392  11.018   2.503   4.618
88165SOL    HW266393  11.121   2.529   4.727
88166SOL     OW66394   5.406   5.372   5.674
88166SOL    HW166395   5.337   5.306   5.673
88166SOL    HW266396   5.423   5.388   5.766
88167SOL     OW66397   1.422   0.382  14.327
88167SOL    HW166398   1.389   0.410  14.412
88167SOL    HW266399   1.420   0.286  14.331
88168SOL     OW66400   7.988  12.912   7.250
88168SOL    HW166401   7.939  12.985   7.212
88168SOL    HW266402   7.957  12.907   7.340
88169SOL     OW66403   5.431   1.642   1.462
88169SOL    HW166404   5.441   1.584   1.538
88169SOL    HW266405   5.517   1.639   1.419
88170SOL     OW66406   9.804   3.844  14.303
88170SOL    HW166407   9.824   3.793  14.225
88170SOL    HW266408   9.877   3.906  14.311
88171SOL     OW66409   9.526   6.630   2.902
88171SOL    HW166410   9.536   6.723   2.918
88171SOL    HW266411   9.604   6.590   2.939
88172SOL     OW66412   2.493  13.132   5.473
88172SOL    HW166413   2.472  13.207   5.530
88172SOL    HW266414   2.410  13.111   5.431
88173SOL     OW66415   4.666  14.068  14.648
88173SOL    HW166416   4.574  14.089  14.629
88173SOL    HW266417   4.699  14.032  14.566
88174SOL     OW66418  14.188   3.648  12.536
88174SOL    HW166419  14.258   3.620  12.595
88174SOL    HW266420  14.230   3.657  12.450
88175SOL     OW66421  11.275  10.147  14.753
88175SOL    HW166422  11.319  10.072  14.793
88175SOL    HW266423  11.269  10.126  14.660
88176SOL     OW66424  11.485   3.779   3.057
88176SOL    HW166425  11.422   3.710   3.079
88176SOL    HW266426  11.540   3.740   2.989
88177SOL     OW66427  11.176  10.732   1.568
88177SOL    HW166428  11.163  10.710   1.476
88177SOL    HW266429  11.242  10.801   1.567
88178SOL     OW66430   0.011  10.589   5.071
88178SOL    HW166431   0.054  10.657   5.019
88178SOL    HW266432   0.071  10.514   5.066
88179SOL     OW66433   7.090   1.457   5.695
88179SOL    HW166434   7.168   1.437   5.747
88179SOL    HW266435   7.124   1.474   5.607
88180SOL     OW66436   3.990   3.982   7.677
88180SOL    HW166437   4.058   3.966   7.742
88180SOL    HW266438   4.032   4.033   7.608
88181SOL     OW66439  12.508  10.411  10.811
88181SOL    HW166440  12.568  10.422  10.885
88181SOL    HW266441  12.426  10.452  10.841
88182SOL     OW66442   7.707  14.317   5.835
88182SOL    HW166443   7.638  14.338   5.898
88182SOL    HW266444   7.787  14.347   5.876
88183SOL     OW66445   6.604   4.713   7.645
88183SOL    HW166446   6.599   4.630   7.693
88183SOL    HW266447   6.562   4.694   7.561
88184SOL     OW66448  12.169   5.618   3.577
88184SOL    HW166449  12.211   5.703   3.571
88184SOL    HW266450  12.232   5.562   3.622
88185SOL     OW66451   6.788  12.647   9.769
88185SOL    HW166452   6.760  12.722   9.821
88185SOL    HW266453   6.710  12.594   9.760
88186SOL     OW66454   0.154   3.224   7.863
88186SOL    HW166455   0.161   3.156   7.930
88186SOL    HW266456   0.217   3.291   7.891
88187SOL     OW66457   7.685   9.085   0.418
88187SOL    HW166458   7.687   9.172   0.378
88187SOL    HW266459   7.741   9.031   0.362
88188SOL     OW66460   1.308  13.139   6.973
88188SOL    HW166461   1.218  13.118   6.994
88188SOL    HW266462   1.302  13.219   6.920
88189SOL     OW66463   1.520   2.128   7.997
88189SOL    HW166464   1.568   2.049   7.971
88189SOL    HW266465   1.449   2.135   7.934
88190SOL     OW66466   9.114   4.567  11.294
88190SOL    HW166467   9.114   4.498  11.228
88190SOL    HW266468   9.199   4.610  11.284
88191SOL     OW66469  14.717   8.172   1.871
88191SOL    HW166470  14.721   8.154   1.777
88191SOL    HW266471  14.788   8.119   1.909
88192SOL     OW66472  13.391  13.336   3.875
88192SOL    HW166473  13.394  13.245   3.843
88192SOL    HW266474  13.455  13.339   3.946
88193SOL     OW66475   1.550   5.372   9.047
88193SOL    HW166476   1.499   5.433   9.101
88193SOL    HW266477   1.631   5.419   9.027
88194SOL     OW66478  14.018   7.711   6.274
88194SOL    HW166479  13.931   7.672   6.274
88194SOL    HW266480  14.008   7.794   6.320
88195SOL     OW66481   3.438   7.848   3.242
88195SOL    HW166482   3.430   7.832   3.148
88195SOL    HW266483   3.510   7.791   3.269
88196SOL     OW66484   2.929  10.123   6.867
88196SOL    HW166485   2.842  10.157   6.885
88196SOL    HW266486   2.984  10.201   6.856
88197SOL     OW66487  11.977   2.712   4.346
88197SOL    HW166488  11.931   2.634   4.377
88197SOL    HW266489  12.040   2.731   4.416
88198SOL     OW66490   3.967  12.315   5.587
88198SOL    HW166491   4.022  12.236   5.590
88198SOL    HW266492   3.882  12.284   5.558
88199SOL     OW66493   9.765   6.725  11.057
88199SOL    HW166494   9.684   6.773  11.036
88199SOL    HW266495   9.734   6.639  11.086
88200SOL     OW66496   2.978   9.793   0.607
88200SOL    HW166497   2.913   9.817   0.673
88200SOL    HW266498   3.036   9.869   0.603
88201SOL     OW66499   6.710  13.644  12.322
88201SOL    HW166500   6.692  13.607  12.235
88201SOL    HW266501   6.805  13.636  12.332
88202SOL     OW66502   4.658   1.383   9.395
88202SOL    HW166503   4.669   1.469   9.434
88202SOL    HW266504   4.710   1.386   9.315
88203SOL     OW66505   1.258  12.449  10.822
88203SOL    HW166506   1.337  12.404  10.794
88203SOL    HW266507   1.289  12.519  10.879
88204SOL     OW66508   5.066  14.113   7.921
88204SOL    HW166509   4.982  14.091   7.880
88204SOL    HW266510   5.128  14.113   7.848
88205SOL     OW66511  11.384   9.158  10.027
88205SOL    HW166512  11.320   9.089  10.014
88205SOL    HW266513  11.466   9.122   9.995
88206SOL     OW66514   4.910   0.957  12.699
88206SOL    HW166515   4.964   0.903  12.641
88206SOL    HW266516   4.870   1.021  12.641
88207SOL     OW66517   5.852   2.363   3.330
88207SOL    HW166518   5.892   2.428   3.388
88207SOL    HW266519   5.848   2.283   3.382
88208SOL     OW66520   6.068   4.958   4.461
88208SOL    HW166521   6.078   5.048   4.431
88208SOL    HW266522   6.054   4.965   4.555
88209SOL     OW66523  13.360   4.297   2.478
88209SOL    HW166524  13.377   4.203   2.478
88209SOL    HW266525  13.290   4.309   2.414
88210SOL     OW66526   8.386  11.584   2.426
88210SOL    HW166527   8.387  11.679   2.408
88210SOL    HW266528   8.368  11.544   2.340
88211SOL     OW66529  13.529   7.616   1.186
88211SOL    HW166530  13.602   7.554   1.187
88211SOL    HW266531  13.558   7.689   1.242
88212SOL     OW66532   5.996   3.232   9.473
88212SOL    HW166533   6.059   3.160   9.479
88212SOL    HW266534   6.040   3.298   9.420
88213SOL     OW66535   7.253   6.933   1.811
88213SOL    HW166536   7.167   6.904   1.782
88213SOL    HW266537   7.242   7.026   1.830
88214SOL     OW66538   3.596   9.217   0.254
88214SOL    HW166539   3.567   9.239   0.166
88214SOL    HW266540   3.543   9.272   0.312
88215SOL     OW66541  11.418   7.046  12.390
88215SOL    HW166542  11.391   7.130  12.353
88215SOL    HW266543  11.338   6.994  12.393
88216SOL     OW66544   7.457  12.612  12.368
88216SOL    HW166545   7.384  12.552  12.384
88216SOL    HW266546   7.448  12.679  12.436
88217SOL     OW66547  13.205   3.892  10.012
88217SOL    HW166548  13.208   3.955  10.084
88217SOL    HW266549  13.267   3.824  10.037
88218SOL     OW66550  12.426   1.969   2.177
88218SOL    HW166551  12.486   1.896   2.161
88218SOL    HW266552  12.454   2.037   2.116
88219SOL     OW66553   4.282   8.692   0.531
88219SOL    HW166554   4.207   8.751   0.542
88219SOL    HW266555   4.279   8.667   0.438
88220SOL     OW66556   8.372  13.308   1.449
88220SOL    HW166557   8.456  13.336   1.487
88220SOL    HW266558   8.394  13.276   1.362
88221SOL     OW66559   2.352  12.402   3.710
88221SOL    HW166560   2.432  12.353   3.693
88221SOL    HW266561   2.317  12.422   3.624
88222SOL     OW66562   7.898  14.318  13.232
88222SOL    HW166563   7.904  14.412  13.219
88222SOL    HW266564   7.894  14.281  13.144
88223SOL     OW66565  13.487   8.552  11.571
88223SOL    HW166566  13.407   8.500  11.579
88223SOL    HW266567  13.481   8.617  11.640
88224SOL     OW66568   2.394   2.116  12.853
88224SOL    HW166569   2.481   2.105  12.814
88224SOL    HW266570   2.337   2.061  12.800
88225SOL     OW66571  10.182   5.264   6.476
88225SOL    HW166572  10.264   5.276   6.429
88225SOL    HW266573  10.117   5.248   6.407
88226SOL     OW66574   9.647  11.995   5.121
88226SOL    HW166575   9.601  11.916   5.151
88226SOL    HW266576   9.576  12.055   5.097
88227SOL     OW66577   9.115   0.381   2.979
88227SOL    HW166578   9.188   0.329   3.011
88227SOL    HW266579   9.063   0.400   3.057
88228SOL     OW66580   2.430   3.748   6.767
88228SOL    HW166581   2.457   3.695   6.842
88228SOL    HW266582   2.352   3.704   6.734
88229SOL     OW66583   1.671  11.151  10.035
88229SOL    HW166584   1.709  11.239  10.025
88229SOL    HW266585   1.627  11.154  10.120
88230SOL     OW66586   8.020   3.208   1.420
88230SOL    HW166587   8.035   3.149   1.346
88230SOL    HW266588   8.051   3.160   1.496
88231SOL     OW66589   1.122   5.377   2.317
88231SOL    HW166590   1.151   5.287   2.326
88231SOL    HW266591   1.139   5.416   2.403
88232SOL     OW66592  13.371   0.009   7.177
88232SOL    HW166593  13.348  14.798   7.190
88232SOL    HW266594  13.460   0.007   7.143
88233SOL     OW66595   4.210   0.449   6.053
88233SOL    HW166596   4.287   0.504   6.035
88233SOL    HW266597   4.163   0.496   6.122
88234SOL     OW66598   5.644   9.885   0.381
88234SOL    HW166599   5.585   9.889   0.306
88234SOL    HW266600   5.723   9.931   0.351
88235SOL     OW66601  10.871   3.164   5.634
88235SOL    HW166602  10.854   3.258   5.638
88235SOL    HW266603  10.858   3.141   5.542
88236SOL     OW66604   4.003  13.023   0.832
88236SOL    HW166605   4.072  13.005   0.769
88236SOL    HW266606   3.976  13.113   0.813
88237SOL     OW66607  10.512   8.570   6.116
88237SOL    HW166608  10.601   8.582   6.082
88237SOL    HW266609  10.456   8.615   6.053
88238SOL     OW66610  11.258  13.872   6.119
88238SOL    HW166611  11.270  13.863   6.025
88238SOL    HW266612  11.197  13.946   6.129
88239SOL     OW66613   1.474  10.620   8.364
88239SOL    HW166614   1.450  10.713   8.356
88239SOL    HW266615   1.566  10.617   8.338
88240SOL     OW66616   7.318  10.443   4.796
88240SOL    HW166617   7.236  10.477   4.830
88240SOL    HW266618   7.321  10.352   4.825
88241SOL     OW66619   1.700   7.352  12.608
88241SOL    HW166620   1.727   7.262  12.624
88241SOL    HW266621   1.653   7.378  12.688
88242SOL     OW66622   7.821   1.487  12.278
88242SOL    HW166623   7.813   1.392  12.276
88242SOL    HW266624   7.736   1.518  12.245
88243SOL     OW66625   4.757   8.120   2.264
88243SOL    HW166626   4.775   8.089   2.175
88243SOL    HW266627   4.687   8.185   2.253
88244SOL     OW66628  14.003   1.295   3.612
88244SOL    HW166629  14.082   1.253   3.577
88244SOL    HW266630  13.959   1.332   3.535
88245SOL     OW66631  11.822   6.829  12.367
88245SOL    HW166632  11.752   6.768  12.347
88245SOL    HW266633  11.784   6.916  12.351
88246SOL     OW66634   0.032  13.860  11.254
88246SOL    HW166635   0.073  13.896  11.333
88246SOL    HW266636   0.015  13.768  11.275
88247SOL     OW66637  10.795  10.163   3.241
88247SOL    HW166638  10.710  10.181   3.200
88247SOL    HW266639  10.848  10.126   3.171
88248SOL     OW66640  12.486  11.905   9.826
88248SOL    HW166641  12.534  11.965   9.769
88248SOL    HW266642  12.439  11.962   9.887
88249SOL     OW66643   7.845  14.581  13.135
88249SOL    HW166644   7.886  14.661  13.102
88249SOL    HW266645   7.778  14.613  13.196
88250SOL     OW66646   9.760   3.850  11.916
88250SOL    HW166647   9.813   3.800  11.853
88250SOL    HW266648   9.685   3.794  11.933
88251SOL     OW66649   8.360   3.024   7.089
88251SOL    HW166650   8.434   3.018   7.029
88251SOL    HW266651   8.292   2.971   7.047
88252SOL     OW66652   4.810   5.679   9.874
88252SOL    HW166653   4.729   5.648   9.832
88252SOL    HW266654   4.798   5.657   9.967
88253SOL     OW66655   4.574  11.959   5.824
88253SOL    HW166656   4.506  12.016   5.862
88253SOL    HW266657   4.656  12.004   5.841
88254SOL     OW66658   6.651   3.516  13.637
88254SOL    HW166659   6.644   3.511  13.733
88254SOL    HW266660   6.596   3.590  13.613
88255SOL     OW66661   5.052   5.159   1.573
88255SOL    HW166662   4.966   5.180   1.536
88255SOL    HW266663   5.069   5.069   1.545
88256SOL     OW66664   4.449  12.424  11.420
88256SOL    HW166665   4.475  12.349  11.366
88256SOL    HW266666   4.372  12.460  11.375
88257SOL     OW66667  14.803  10.648  12.123
88257SOL    HW166668  14.790  10.692  12.039
88257SOL    HW266669   0.017  10.629  12.126
88258SOL     OW66670  10.287   5.713  14.239
88258SOL    HW166671  10.245   5.633  14.208
88258SOL    HW266672  10.310   5.761  14.160
88259SOL     OW66673   1.443   5.392  11.314
88259SOL    HW166674   1.448   5.313  11.367
88259SOL    HW266675   1.517   5.386  11.254
88260SOL     OW66676   3.969   6.322   7.739
88260SOL    HW166677   3.995   6.277   7.819
88260SOL    HW266678   3.949   6.412   7.766
88261SOL     OW66679   4.574  14.860   6.021
88261SOL    HW166680   4.571  14.878   5.927
88261SOL    HW266681   4.542   0.061   6.061
88262SOL     OW66682   9.104  11.388   5.255
88262SOL    HW166683   9.137  11.315   5.202
88262SOL    HW266684   9.053  11.441   5.194
88263SOL     OW66685   7.115  10.878   9.562
88263SOL    HW166686   7.202  10.915   9.579
88263SOL    HW266687   7.130  10.811   9.496
88264SOL     OW66688   1.217   9.063   9.645
88264SOL    HW166689   1.299   9.103   9.618
88264SOL    HW266690   1.172   9.131   9.694
88265SOL     OW66691   5.508  11.711   2.071
88265SOL    HW166692   5.505  11.741   1.981
88265SOL    HW266693   5.433  11.753   2.114
88266SOL     OW66694   5.363   4.879   8.850
88266SOL    HW166695   5.384   4.824   8.774
88266SOL    HW266696   5.310   4.950   8.814
88267SOL     OW66697   9.914   2.308   1.759
88267SOL    HW166698   9.979   2.302   1.689
88267SOL    HW266699   9.964   2.303   1.840
88268SOL     OW66700  10.312   9.122   2.870
88268SOL    HW166701  10.271   9.206   2.886
88268SOL    HW266702  10.406   9.141   2.870
88269SOL     OW66703   7.250   3.290  13.954
88269SOL    HW166704   7.306   3.253  13.885
88269SOL    HW266705   7.229   3.378  13.923
88270SOL     OW66706  12.519  14.374   5.047
88270SOL    HW166707  12.589  14.361   5.111
88270SOL    HW266708  12.439  14.363   5.098
88271SOL     OW66709   3.296   1.968   7.945
88271SOL    HW166710   3.204   1.942   7.946
88271SOL    HW266711   3.335   1.917   7.874
88272SOL     OW66712  11.969   9.074   1.102
88272SOL    HW166713  12.058   9.082   1.138
88272SOL    HW266714  11.977   9.110   1.014
88273SOL     OW66715   8.753   9.179  14.874
88273SOL    HW166716   8.763   9.274  14.865
88273SOL    HW266717   8.659   9.165  14.880
88274SOL     OW66718   5.427  12.636  14.494
88274SOL    HW166719   5.403  12.612  14.583
88274SOL    HW266720   5.418  12.732  14.492
88275SOL     OW66721   1.408   5.529   1.079
88275SOL    HW166722   1.463   5.535   1.002
88275SOL    HW266723   1.351   5.454   1.063
88276SOL     OW66724   7.450   2.727   9.366
88276SOL    HW166725   7.478   2.647   9.321
88276SOL    HW266726   7.391   2.770   9.304
88277SOL     OW66727   1.292   7.505   5.448
88277SOL    HW166728   1.256   7.589   5.477
88277SOL    HW266729   1.230   7.440   5.483
88278SOL     OW66730   5.260  13.684  11.809
88278SOL    HW166731   5.223  13.746  11.870
88278SOL    HW266732   5.288  13.737  11.734
88279SOL     OW66733   9.043   2.862   2.547
88279SOL    HW166734   9.091   2.930   2.594
88279SOL    HW266735   8.980   2.910   2.492
88280SOL     OW66736   9.316   7.276   9.509
88280SOL    HW166737   9.370   7.319   9.442
88280SOL    HW266738   9.362   7.194   9.528
88281SOL     OW66739  10.598  13.893   6.292
88281SOL    HW166740  10.557  13.874   6.208
88281SOL    HW266741  10.667  13.827   6.301
88282SOL     OW66742  13.958   8.128  13.272
88282SOL    HW166743  13.902   8.052  13.289
88282SOL    HW266744  13.938   8.152  13.181
88283SOL     OW66745   9.032  10.429   4.642
88283SOL    HW166746   9.078  10.496   4.592
88283SOL    HW266747   9.069  10.346   4.609
88284SOL     OW66748  10.054   1.348   9.800
88284SOL    HW166749  10.023   1.321   9.714
88284SOL    HW266750  10.084   1.267   9.841
88285SOL     OW66751   3.142   9.070   6.378
88285SOL    HW166752   3.231   9.097   6.401
88285SOL    HW266753   3.101   9.047   6.461
88286SOL     OW66754  12.570   6.036   2.820
88286SOL    HW166755  12.538   5.982   2.892
88286SOL    HW266756  12.606   6.114   2.862
88287SOL     OW66757   5.332   9.826  10.722
88287SOL    HW166758   5.414   9.822  10.772
88287SOL    HW266759   5.298   9.736  10.726
88288SOL     OW66760   3.535  13.236   4.324
88288SOL    HW166761   3.598  13.305   4.301
88288SOL    HW266762   3.575  13.155   4.292
88289SOL     OW66763   1.812   3.707   0.697
88289SOL    HW166764   1.792   3.795   0.730
88289SOL    HW266765   1.753   3.694   0.623
88290SOL     OW66766  10.646   4.632   3.333
88290SOL    HW166767  10.552   4.644   3.350
88290SOL    HW266768  10.677   4.720   3.311
88291SOL     OW66769   8.769   6.962   0.108
88291SOL    HW166770   8.780   7.044   0.061
88291SOL    HW266771   8.830   6.968   0.181
88292SOL     OW66772  14.014  11.298  12.445
88292SOL    HW166773  13.982  11.365  12.504
88292SOL    HW266774  13.935  11.260  12.406
88293SOL     OW66775   9.085  10.206   1.634
88293SOL    HW166776   9.060  10.285   1.586
88293SOL    HW266777   9.093  10.235   1.725
88294SOL     OW66778   4.875   2.890   8.818
88294SOL    HW166779   4.954   2.924   8.776
88294SOL    HW266780   4.907   2.825   8.880
88295SOL     OW66781   9.792   7.395   2.042
88295SOL    HW166782   9.809   7.450   2.119
88295SOL    HW266783   9.811   7.453   1.968
88296SOL     OW66784  11.023   9.198   5.969
88296SOL    HW166785  11.105   9.245   5.984
88296SOL    HW266786  11.039   9.110   6.002
88297SOL     OW66787   5.034   4.211   5.025
88297SOL    HW166788   4.983   4.293   5.028
88297SOL    HW266789   5.110   4.228   5.080
88298SOL     OW66790   9.026  10.928  14.404
88298SOL    HW166791   8.979  10.855  14.365
88298SOL    HW266792   8.996  10.930  14.495
88299SOL     OW66793   4.945  14.145   5.073
88299SOL    HW166794   4.976  14.149   5.164
88299SOL    HW266795   4.946  14.052   5.051
88300SOL     OW66796   4.492   5.683   2.723
88300SOL    HW166797   4.477   5.768   2.682
88300SOL    HW266798   4.412   5.665   2.772
88301SOL     OW66799   1.791   6.331   6.696
88301SOL    HW166800   1.785   6.420   6.660
88301SOL    HW266801   1.706   6.318   6.740
88302SOL     OW66802   1.757  13.371   6.106
88302SOL    HW166803   1.779  13.334   6.021
88302SOL    HW266804   1.840  13.369   6.155
88303SOL     OW66805   4.608  10.928  10.547
88303SOL    HW166806   4.670  10.985  10.592
88303SOL    HW266807   4.651  10.905  10.465
88304SOL     OW66808   1.494   6.757   9.310
88304SOL    HW166809   1.461   6.677   9.351
88304SOL    HW266810   1.442   6.827   9.348
88305SOL     OW66811   9.510   2.808  10.005
88305SOL    HW166812   9.439   2.825  10.067
88305SOL    HW266813   9.545   2.723  10.033
88306SOL     OW66814   6.531  10.962   3.403
88306SOL    HW166815   6.542  10.924   3.316
88306SOL    HW266816   6.452  10.920   3.438
88307SOL     OW66817   1.024  10.192   6.929
88307SOL    HW166818   0.935  10.166   6.950
88307SOL    HW266819   1.034  10.279   6.968
88308SOL     OW66820   9.940  12.119   0.550
88308SOL    HW166821   9.992  12.039   0.552
88308SOL    HW266822   9.958  12.162   0.633
88309SOL     OW66823   5.588   8.415   4.471
88309SOL    HW166824   5.630   8.355   4.409
88309SOL    HW266825   5.628   8.395   4.555
88310SOL     OW66826  12.640   3.808  10.499
88310SOL    HW166827  12.557   3.838  10.463
88310SOL    HW266828  12.617   3.734  10.555
88311SOL     OW66829   8.356   1.124  14.671
88311SOL    HW166830   8.379   1.074  14.749
88311SOL    HW266831   8.402   1.080  14.600
88312SOL     OW66832  13.348  13.239  12.200
88312SOL    HW166833  13.354  13.149  12.231
88312SOL    HW266834  13.302  13.286  12.270
88313SOL     OW66835   4.793   7.253  10.793
88313SOL    HW166836   4.807   7.194  10.719
88313SOL    HW266837   4.880   7.287  10.814
88314SOL     OW66838  13.125  13.522   6.599
88314SOL    HW166839  13.159  13.444   6.643
88314SOL    HW266840  13.039  13.495   6.565
88315SOL     OW66841   4.472   6.300   6.043
88315SOL    HW166842   4.475   6.361   5.970
88315SOL    HW266843   4.560   6.262   6.047
88316SOL     OW66844   0.977   3.030  12.254
88316SOL    HW166845   0.985   2.935  12.259
88316SOL    HW266846   1.021   3.062  12.333
88317SOL     OW66847   1.093   1.270  14.584
88317SOL    HW166848   1.130   1.326  14.515
88317SOL    HW266849   1.079   1.185  14.542
88318SOL     OW66850   2.998  11.056   2.159
88318SOL    HW166851   2.940  11.102   2.219
88318SOL    HW266852   2.940  11.022   2.090
88319SOL     OW66853  11.059   0.043   6.958
88319SOL    HW166854  11.100   0.080   6.880
88319SOL    HW266855  11.130  14.880   7.005
88320SOL     OW66856  13.796   0.068  11.062
88320SOL    HW166857  13.808   0.114  10.979
88320SOL    HW266858  13.828  14.860  11.045
88321SOL     OW66859  11.142   1.331   5.002
88321SOL    HW166860  11.112   1.243   4.982
88321SOL    HW266861  11.237   1.326   4.993
88322SOL     OW66862  10.445   8.974  14.635
88322SOL    HW166863  10.418   8.926  14.713
88322SOL    HW266864  10.405   9.061  14.645
88323SOL     OW66865   8.558   9.577   1.399
88323SOL    HW166866   8.465   9.559   1.413
88323SOL    HW266867   8.566   9.672   1.407
88324SOL     OW66868   8.938   6.190   3.824
88324SOL    HW166869   8.965   6.104   3.857
88324SOL    HW266870   8.843   6.191   3.838
88325SOL     OW66871  10.869   6.503   4.205
88325SOL    HW166872  10.903   6.531   4.290
88325SOL    HW266873  10.845   6.411   4.219
88326SOL     OW66874  11.412   7.931   0.208
88326SOL    HW166875  11.348   8.003   0.206
88326SOL    HW266876  11.493   7.970   0.173
88327SOL     OW66877   2.417   5.988   2.431
88327SOL    HW166878   2.423   6.083   2.419
88327SOL    HW266879   2.467   5.951   2.359
88328SOL     OW66880  10.102  14.615  13.506
88328SOL    HW166881  10.163  14.688  13.514
88328SOL    HW266882  10.018  14.658  13.488
88329SOL     OW66883   6.991   1.909   2.385
88329SOL    HW166884   7.086   1.921   2.391
88329SOL    HW266885   6.977   1.876   2.296
88330SOL     OW66886  10.068   4.435  12.670
88330SOL    HW166887  10.084   4.431  12.576
88330SOL    HW266888   9.986   4.484  12.678
88331SOL     OW66889   2.459  12.309  14.872
88331SOL    HW166890   2.521  12.379   0.014
88331SOL    HW266891   2.498  12.229   0.028
88332SOL     OW66892  11.132  11.973   8.336
88332SOL    HW166893  11.227  11.978   8.322
88332SOL    HW266894  11.123  11.941   8.426
88333SOL     OW66895  13.755   5.110   0.770
88333SOL    HW166896  13.780   5.133   0.680
88333SOL    HW266897  13.659   5.115   0.770
88334SOL     OW66898   5.376   2.710   4.854
88334SOL    HW166899   5.445   2.644   4.854
88334SOL    HW266900   5.342   2.711   4.765
88335SOL     OW66901  10.200   2.173   0.682
88335SOL    HW166902  10.227   2.253   0.728
88335SOL    HW266903  10.176   2.202   0.595
88336SOL     OW66904   3.452   3.816   2.108
88336SOL    HW166905   3.365   3.843   2.136
88336SOL    HW266906   3.440   3.729   2.069
88337SOL     OW66907   7.574  13.518   7.034
88337SOL    HW166908   7.507  13.555   6.978
88337SOL    HW266909   7.580  13.580   7.108
88338SOL     OW66910   4.765   7.978   2.001
88338SOL    HW166911   4.724   8.022   1.926
88338SOL    HW266912   4.759   7.885   1.981
88339SOL     OW66913   7.052  10.605  11.288
88339SOL    HW166914   7.085  10.604  11.198
88339SOL    HW266915   7.078  10.690  11.323
88340SOL     OW66916   9.516  10.494   7.474
88340SOL    HW166917   9.581  10.560   7.450
88340SOL    HW266918   9.432  10.539   7.463
88341SOL     OW66919   7.347  13.971  10.858
88341SOL    HW166920   7.414  13.950  10.924
88341SOL    HW266921   7.396  14.014  10.788
88342SOL     OW66922  11.508  10.132   3.621
88342SOL    HW166923  11.458  10.113   3.700
88342SOL    HW266924  11.482  10.221   3.597
88343SOL     OW66925   7.144   9.152   0.236
88343SOL    HW166926   7.176   9.153   0.145
88343SOL    HW266927   7.150   9.060   0.262
88344SOL     OW66928  13.710   4.029  11.491
88344SOL    HW166929  13.740   3.958  11.435
88344SOL    HW266930  13.656   4.084  11.434
88345SOL     OW66931   1.890  12.045  10.088
88345SOL    HW166932   1.854  12.134  10.083
88345SOL    HW266933   1.877  12.019  10.180
88346SOL     OW66934  13.370   7.991   3.053
88346SOL    HW166935  13.307   7.987   3.125
88346SOL    HW266936  13.324   7.954   2.978
88347SOL     OW66937  10.536   4.207   0.927
88347SOL    HW166938  10.571   4.265   0.995
88347SOL    HW266939  10.511   4.128   0.975
88348SOL     OW66940   6.273   5.906  13.971
88348SOL    HW166941   6.193   5.959  13.970
88348SOL    HW266942   6.272   5.863  14.056
88349SOL     OW66943  12.022   6.713   6.925
88349SOL    HW166944  12.069   6.687   6.845
88349SOL    HW266945  12.013   6.808   6.917
88350SOL     OW66946   9.758   0.780  10.991
88350SOL    HW166947   9.825   0.719  11.020
88350SOL    HW266948   9.676   0.730  10.994
88351SOL     OW66949   2.508   5.633   0.162
88351SOL    HW166950   2.582   5.577   0.138
88351SOL    HW266951   2.540   5.722   0.146
88352SOL     OW66952   0.609   4.989   0.320
88352SOL    HW166953   0.628   4.924   0.252
88352SOL    HW266954   0.603   4.938   0.401
88353SOL     OW66955   3.458   9.604   0.590
88353SOL    HW166956   3.513   9.624   0.666
88353SOL    HW266957   3.392   9.673   0.590
88354SOL     OW66958   0.485   4.347  14.439
88354SOL    HW166959   0.505   4.301  14.357
88354SOL    HW266960   0.443   4.428  14.411
88355SOL     OW66961  10.085   8.066   6.643
88355SOL    HW166962  10.045   7.980   6.633
88355SOL    HW266963  10.170   8.048   6.683
88356SOL     OW66964  10.461   1.287   4.528
88356SOL    HW166965  10.447   1.194   4.511
88356SOL    HW266966  10.443   1.330   4.444
88357SOL     OW66967  12.600  11.515   5.551
88357SOL    HW166968  12.640  11.489   5.468
88357SOL    HW266969  12.563  11.602   5.534
88358SOL     OW66970   8.414  12.401   8.932
88358SOL    HW166971   8.497  12.413   8.887
88358SOL    HW266972   8.434  12.416   9.024
88359SOL     OW66973   9.265  11.797   7.595
88359SOL    HW166974   9.253  11.770   7.686
88359SOL    HW266975   9.214  11.734   7.545
88360SOL     OW66976   8.716   7.469   4.773
88360SOL    HW166977   8.674   7.433   4.852
88360SOL    HW266978   8.644   7.485   4.713
88361SOL     OW66979  11.913  14.633   4.009
88361SOL    HW166980  11.959  14.641   3.925
88361SOL    HW266981  11.860  14.553   4.000
88362SOL     OW66982   5.362  13.062   1.589
88362SOL    HW166983   5.346  13.143   1.638
88362SOL    HW266984   5.300  12.999   1.627
88363SOL     OW66985  10.375   7.781   1.424
88363SOL    HW166986  10.364   7.707   1.364
88363SOL    HW266987  10.391   7.856   1.366
88364SOL     OW66988   9.949   4.743   8.175
88364SOL    HW166989   9.930   4.684   8.102
88364SOL    HW266990  10.018   4.699   8.224
88365SOL     OW66991  10.614   9.408   1.186
88365SOL    HW166992  10.708   9.390   1.185
88365SOL    HW266993  10.588   9.390   1.277
88366SOL     OW66994   7.290   4.644  11.374
88366SOL    HW166995   7.259   4.560  11.407
88366SOL    HW266996   7.361   4.622  11.314
88367SOL     OW66997   8.498   0.511   1.545
88367SOL    HW166998   8.534   0.449   1.482
88367SOL    HW266999   8.537   0.486   1.629
88368SOL     OW67000   2.050   6.538  11.805
88368SOL    HW167001   2.106   6.471  11.764
88368SOL    HW267002   2.051   6.515  11.898
88369SOL     OW67003  10.984  11.515   0.087
88369SOL    HW167004  11.001  11.461   0.164
88369SOL    HW267005  10.914  11.468   0.041
88370SOL     OW67006   2.129  11.565   6.914
88370SOL    HW167007   2.214  11.604   6.937
88370SOL    HW267008   2.065  11.631   6.939
88371SOL     OW67009   3.308  12.855   9.051
88371SOL    HW167010   3.310  12.799   8.973
88371SOL    HW267011   3.258  12.804   9.115
88372SOL     OW67012   2.034  10.186   1.097
88372SOL    HW167013   2.025  10.264   1.043
88372SOL    HW267014   2.120  10.194   1.138
88373SOL     OW67015   5.652   7.292   2.330
88373SOL    HW167016   5.689   7.289   2.242
88373SOL    HW267017   5.726   7.274   2.388
88374SOL     OW67018  10.023   4.980   9.596
88374SOL    HW167019  10.015   4.956   9.688
88374SOL    HW267020   9.940   5.022   9.574
88375SOL     OW67021   3.286   1.845   6.070
88375SOL    HW167022   3.234   1.919   6.104
88375SOL    HW267023   3.375   1.862   6.101
88376SOL     OW67024   0.257  10.314  12.960
88376SOL    HW167025   0.272  10.257  12.885
88376SOL    HW267026   0.169  10.291  12.990
88377SOL     OW67027   2.542   1.653   9.380
88377SOL    HW167028   2.461   1.659   9.429
88377SOL    HW267029   2.601   1.714   9.424
88378SOL     OW67030   2.421   4.988   1.355
88378SOL    HW167031   2.435   5.077   1.324
88378SOL    HW267032   2.326   4.979   1.362
88379SOL     OW67033   4.343   6.318  13.123
88379SOL    HW167034   4.277   6.383  13.146
88379SOL    HW267035   4.426   6.358  13.151
88380SOL     OW67036  11.296   8.535   5.419
88380SOL    HW167037  11.264   8.613   5.375
88380SOL    HW267038  11.228   8.469   5.404
88381SOL     OW67039   4.952  10.503   7.673
88381SOL    HW167040   4.937  10.422   7.623
88381SOL    HW267041   4.888  10.565   7.639
88382SOL     OW67042  11.162   1.171   7.162
88382SOL    HW167043  11.116   1.246   7.197
88382SOL    HW267044  11.231   1.208   7.108
88383SOL     OW67045   6.474   3.442  12.705
88383SOL    HW167046   6.464   3.347  12.716
88383SOL    HW267047   6.452   3.478  12.791
88384SOL     OW67048   1.047   4.122   6.493
88384SOL    HW167049   1.036   4.031   6.521
88384SOL    HW267050   0.961   4.148   6.461
88385SOL     OW67051   4.833   4.954  11.529
88385SOL    HW167052   4.886   4.904  11.591
88385SOL    HW267053   4.746   4.913  11.533
88386SOL     OW67054  13.762   3.789   3.810
88386SOL    HW167055  13.828   3.793   3.741
88386SOL    HW267056  13.730   3.879   3.817
88387SOL     OW67057  12.083   0.417   7.800
88387SOL    HW167058  12.025   0.456   7.866
88387SOL    HW267059  12.024   0.379   7.736
88388SOL     OW67060   8.094  13.861   9.159
88388SOL    HW167061   8.117  13.817   9.240
88388SOL    HW267062   8.174  13.907   9.133
88389SOL     OW67063  13.995  13.947   9.227
88389SOL    HW167064  14.020  13.859   9.201
88389SOL    HW267065  14.049  13.967   9.303
88390SOL     OW67066   3.065   5.639   1.284
88390SOL    HW167067   3.117   5.699   1.231
88390SOL    HW267068   3.053   5.685   1.367
88391SOL     OW67069   4.849   4.666   9.085
88391SOL    HW167070   4.894   4.750   9.075
88391SOL    HW267071   4.843   4.632   8.995
88392SOL     OW67072   6.854   0.815   1.270
88392SOL    HW167073   6.843   0.880   1.339
88392SOL    HW267074   6.774   0.763   1.274
88393SOL     OW67075   4.051   5.018   4.075
88393SOL    HW167076   4.095   4.990   4.156
88393SOL    HW267077   4.077   4.952   4.010
88394SOL     OW67078   1.882   4.323   2.301
88394SOL    HW167079   1.789   4.301   2.307
88394SOL    HW267080   1.910   4.332   2.392
88395SOL     OW67081  14.037   7.280  12.551
88395SOL    HW167082  14.109   7.276  12.614
88395SOL    HW267083  14.004   7.370  12.559
88396SOL     OW67084  13.400   9.302   3.265
88396SOL    HW167085  13.376   9.363   3.195
88396SOL    HW267086  13.344   9.327   3.338
88397SOL     OW67087  10.412   1.120   9.295
88397SOL    HW167088  10.475   1.049   9.285
88397SOL    HW267089  10.342   1.083   9.349
88398SOL     OW67090   6.699   4.597   6.063
88398SOL    HW167091   6.702   4.655   5.987
88398SOL    HW267092   6.779   4.617   6.112
88399SOL     OW67093  11.336  13.678  10.251
88399SOL    HW167094  11.326  13.752  10.311
88399SOL    HW267095  11.394  13.711  10.183
88400SOL     OW67096   0.199  14.106   7.330
88400SOL    HW167097   0.173  14.194   7.356
88400SOL    HW267098   0.289  14.097   7.360
88401SOL     OW67099   4.349   1.794   6.989
88401SOL    HW167100   4.354   1.761   7.078
88401SOL    HW267101   4.406   1.871   6.989
88402SOL     OW67102  12.489   0.776   5.475
88402SOL    HW167103  12.445   0.699   5.440
88402SOL    HW267104  12.552   0.800   5.406
88403SOL     OW67105   9.355   4.505  10.910
88403SOL    HW167106   9.282   4.543  10.959
88403SOL    HW267107   9.337   4.411  10.911
88404SOL     OW67108   1.770   5.053   3.926
88404SOL    HW167109   1.739   5.056   3.836
88404SOL    HW267110   1.791   4.961   3.942
88405SOL     OW67111   7.616   2.563   8.488
88405SOL    HW167112   7.571   2.634   8.441
88405SOL    HW267113   7.616   2.592   8.579
88406SOL     OW67114  11.372   7.060   9.681
88406SOL    HW167115  11.454   7.050   9.633
88406SOL    HW267116  11.348   7.152   9.668
88407SOL     OW67117   4.056   0.564  13.363
88407SOL    HW167118   4.077   0.524  13.448
88407SOL    HW267119   3.961   0.566  13.360
88408SOL     OW67120   4.535   3.417   5.879
88408SOL    HW167121   4.463   3.478   5.865
88408SOL    HW267122   4.569   3.440   5.965
88409SOL     OW67123   3.570   0.692   3.372
88409SOL    HW167124   3.661   0.717   3.355
88409SOL    HW267125   3.530   0.686   3.285
88410SOL     OW67126   7.958   6.543  14.053
88410SOL    HW167127   7.926   6.626  14.090
88410SOL    HW267128   7.995   6.497  14.128
88411SOL     OW67129   0.724   2.032  10.437
88411SOL    HW167130   0.668   2.107  10.454
88411SOL    HW267131   0.760   2.048  10.350
88412SOL     OW67132  10.937   7.252   0.300
88412SOL    HW167133  10.896   7.213   0.377
88412SOL    HW267134  11.019   7.204   0.289
88413SOL     OW67135   4.190  11.284   7.238
88413SOL    HW167136   4.237  11.367   7.245
88413SOL    HW267137   4.253  11.224   7.199
88414SOL     OW67138   1.327   8.294   0.114
88414SOL    HW167139   1.389   8.232   0.076
88414SOL    HW267140   1.284   8.246   0.185
88415SOL     OW67141   9.062  12.018   3.412
88415SOL    HW167142   9.013  12.066   3.479
88415SOL    HW267143   9.116  12.085   3.370
88416SOL     OW67144   6.830   6.465   8.546
88416SOL    HW167145   6.815   6.431   8.458
88416SOL    HW267146   6.840   6.560   8.533
88417SOL     OW67147   1.414   8.166  13.468
88417SOL    HW167148   1.471   8.215  13.409
88417SOL    HW267149   1.355   8.117  13.410
88418SOL     OW67150   4.090  13.404   1.137
88418SOL    HW167151   4.086  13.458   1.215
88418SOL    HW267152   4.062  13.317   1.166
88419SOL     OW67153   1.591  11.963  13.528
88419SOL    HW167154   1.686  11.967  13.518
88419SOL    HW267155   1.574  12.002  13.613
88420SOL     OW67156   6.607   2.558  12.512
88420SOL    HW167157   6.567   2.517  12.436
88420SOL    HW267158   6.690   2.512  12.525
88421SOL     OW67159   4.109  12.260  10.266
88421SOL    HW167160   4.134  12.218  10.184
88421SOL    HW267161   4.132  12.352  10.254
88422SOL     OW67162  13.828   3.109   8.108
88422SOL    HW167163  13.849   3.129   8.199
88422SOL    HW267164  13.906   3.135   8.059
88423SOL     OW67165   5.309   1.851   1.630
88423SOL    HW167166   5.387   1.874   1.680
88423SOL    HW267167   5.342   1.800   1.556
88424SOL     OW67168  10.276   3.147   0.707
88424SOL    HW167169  10.234   3.227   0.737
88424SOL    HW267170  10.369   3.168   0.706
88425SOL     OW67171  12.021   0.233   1.043
88425SOL    HW167172  11.941   0.279   1.018
88425SOL    HW267173  12.084   0.303   1.061
88426SOL     OW67174   3.250   0.413   3.707
88426SOL    HW167175   3.318   0.438   3.644
88426SOL    HW267176   3.298   0.390   3.787
88427SOL     OW67177  14.001   6.541   0.429
88427SOL    HW167178  13.975   6.451   0.451
88427SOL    HW267179  14.076   6.530   0.370
88428SOL     OW67180   2.908   2.221   8.582
88428SOL    HW167181   2.860   2.173   8.514
88428SOL    HW267182   2.999   2.217   8.555
88429SOL     OW67183  13.445   5.882   3.628
88429SOL    HW167184  13.482   5.860   3.713
88429SOL    HW267185  13.357   5.844   3.630
88430SOL     OW67186  12.028  12.732   0.287
88430SOL    HW167187  12.009  12.753   0.378
88430SOL    HW267188  11.991  12.806   0.238
88431SOL     OW67189  14.687  12.828   1.226
88431SOL    HW167190  14.680  12.817   1.131
88431SOL    HW267191  14.774  12.866   1.239
88432SOL     OW67192   9.470   5.650   8.006
88432SOL    HW167193   9.403   5.711   8.035
88432SOL    HW267194   9.484   5.591   8.080
88433SOL     OW67195  11.170  14.103  12.659
88433SOL    HW167196  11.203  14.152  12.584
88433SOL    HW267197  11.245  14.051  12.688
88434SOL     OW67198   1.626   6.949   3.911
88434SOL    HW167199   1.590   6.967   3.824
88434SOL    HW267200   1.677   6.869   3.899
88435SOL     OW67201  14.446   0.771   4.935
88435SOL    HW167202  14.527   0.776   4.985
88435SOL    HW267203  14.448   0.683   4.895
88436SOL     OW67204  11.053   9.140   8.694
88436SOL    HW167205  11.030   9.200   8.624
88436SOL    HW267206  10.976   9.085   8.705
88437SOL     OW67207   2.028  13.271   4.127
88437SOL    HW167208   1.989  13.334   4.187
88437SOL    HW267209   1.957  13.244   4.070
88438SOL     OW67210   1.915   1.924   8.753
88438SOL    HW167211   1.916   1.992   8.686
88438SOL    HW267212   1.911   1.842   8.703
88439SOL     OW67213   0.475  13.047   4.274
88439SOL    HW167214   0.382  13.047   4.299
88439SOL    HW267215   0.519  13.007   4.349
88440SOL     OW67216   0.185  13.729   0.958
88440SOL    HW167217   0.139  13.747   0.875
88440SOL    HW267218   0.159  13.801   1.015
88441SOL     OW67219  14.283  13.986   3.341
88441SOL    HW167220  14.377  13.983   3.362
88441SOL    HW267221  14.266  14.077   3.317
88442SOL     OW67222   2.101   8.726   9.620
88442SOL    HW167223   2.175   8.719   9.559
88442SOL    HW267224   2.140   8.761   9.700
88443SOL     OW67225  14.823   7.352   7.908
88443SOL    HW167226  14.830   7.296   7.985
88443SOL    HW267227   0.031   7.353   7.870
88444SOL     OW67228   4.353   3.598  10.034
88444SOL    HW167229   4.447   3.615  10.035
88444SOL    HW267230   4.345   3.515   9.986
88445SOL     OW67231   4.226  12.402  14.552
88445SOL    HW167232   4.154  12.343  14.531
88445SOL    HW267233   4.305  12.352  14.529
88446SOL     OW67234  14.445   7.872   7.590
88446SOL    HW167235  14.518   7.892   7.531
88446SOL    HW267236  14.419   7.958   7.625
88447SOL     OW67237   3.625   9.223  14.219
88447SOL    HW167238   3.673   9.294  14.175
88447SOL    HW267239   3.651   9.144  14.172
88448SOL     OW67240   5.384   0.601   2.929
88448SOL    HW167241   5.479   0.603   2.935
88448SOL    HW267242   5.360   0.513   2.959
88449SOL     OW67243  10.977  13.235   3.035
88449SOL    HW167244  10.987  13.161   3.095
88449SOL    HW267245  10.981  13.196   2.948
88450SOL     OW67246  10.741   2.740  11.918
88450SOL    HW167247  10.649   2.717  11.912
88450SOL    HW267248  10.747   2.826  11.876
88451SOL     OW67249   2.458  11.013  10.941
88451SOL    HW167250   2.389  11.067  10.980
88451SOL    HW267251   2.539  11.058  10.965
88452SOL     OW67252   2.287  14.243   2.259
88452SOL    HW167253   2.267  14.323   2.307
88452SOL    HW267254   2.318  14.273   2.173
88453SOL     OW67255   4.886   5.941   6.081
88453SOL    HW167256   4.914   6.027   6.051
88453SOL    HW267257   4.876   5.950   6.175
88454SOL     OW67258   4.256   2.674  14.645
88454SOL    HW167259   4.193   2.608  14.618
88454SOL    HW267260   4.339   2.645  14.607
88455SOL     OW67261   0.752   2.487   6.778
88455SOL    HW167262   0.821   2.504   6.714
88455SOL    HW267263   0.694   2.563   6.771
88456SOL     OW67264  11.034   0.551   7.551
88456SOL    HW167265  11.067   0.582   7.636
88456SOL    HW267266  11.094   0.590   7.487
88457SOL     OW67267   0.913   1.707   9.781
88457SOL    HW167268   0.875   1.794   9.767
88457SOL    HW267269   0.902   1.663   9.697
88458SOL     OW67270  12.977   5.238  10.662
88458SOL    HW167271  12.937   5.186  10.593
88458SOL    HW267272  12.903   5.267  10.716
88459SOL     OW67273   9.037   9.317   1.417
88459SOL    HW167274   9.003   9.293   1.331
88459SOL    HW267275   8.964   9.362   1.460
88460SOL     OW67276  13.484   7.285   4.273
88460SOL    HW167277  13.516   7.345   4.340
88460SOL    HW267278  13.399   7.256   4.306
88461SOL     OW67279   1.755   5.434  12.697
88461SOL    HW167280   1.804   5.469  12.772
88461SOL    HW267281   1.809   5.363  12.663
88462SOL     OW67282   7.789  10.584   7.212
88462SOL    HW167283   7.699  10.613   7.201
88462SOL    HW267284   7.805  10.528   7.136
88463SOL     OW67285   9.675   4.804  14.413
88463SOL    HW167286   9.720   4.752  14.347
88463SOL    HW267287   9.685   4.754  14.494
88464SOL     OW67288  10.184   2.188  13.999
88464SOL    HW167289  10.272   2.184  13.963
88464SOL    HW267290  10.148   2.101  13.984
88465SOL     OW67291  14.237   3.068  13.184
88465SOL    HW167292  14.308   3.093  13.125
88465SOL    HW267293  14.176   3.019  13.130
88466SOL     OW67294  11.869   9.624  12.972
88466SOL    HW167295  11.776   9.620  12.951
88466SOL    HW267296  11.898   9.533  12.972
88467SOL     OW67297   8.492   4.663   2.034
88467SOL    HW167298   8.562   4.629   2.089
88467SOL    HW267299   8.537   4.710   1.963
88468SOL     OW67300  13.053   5.993   3.531
88468SOL    HW167301  13.066   5.903   3.561
88468SOL    HW267302  13.051   6.045   3.612
88469SOL     OW67303   5.943   0.043   5.281
88469SOL    HW167304   5.879   0.073   5.216
88469SOL    HW267305   6.015   0.008   5.229
88470SOL     OW67306   7.069  11.810  11.782
88470SOL    HW167307   6.990  11.764  11.755
88470SOL    HW267308   7.069  11.803  11.878
88471SOL     OW67309  10.851  10.267  13.941
88471SOL    HW167310  10.915  10.197  13.944
88471SOL    HW267311  10.833  10.280  13.847
88472SOL     OW67312   9.179   8.178   5.286
88472SOL    HW167313   9.161   8.233   5.210
88472SOL    HW267314   9.270   8.196   5.308
88473SOL     OW67315  13.917   9.577  11.566
88473SOL    HW167316  13.834   9.583  11.613
88473SOL    HW267317  13.926   9.484  11.545
88474SOL     OW67318   7.986  13.776   9.919
88474SOL    HW167319   7.918  13.763   9.853
88474SOL    HW267320   8.060  13.813   9.871
88475SOL     OW67321   9.180   3.873   8.226
88475SOL    HW167322   9.209   3.900   8.313
88475SOL    HW267323   9.087   3.854   8.237
88476SOL     OW67324  13.006  11.262  14.701
88476SOL    HW167325  12.978  11.270  14.792
88476SOL    HW267326  12.949  11.195  14.664
88477SOL     OW67327   8.492  10.000  14.435
88477SOL    HW167328   8.427  10.056  14.477
88477SOL    HW267329   8.477  10.012  14.342
88478SOL     OW67330   1.639   7.933   7.376
88478SOL    HW167331   1.636   8.018   7.333
88478SOL    HW267332   1.548   7.918   7.405
88479SOL     OW67333  11.739   9.439   1.762
88479SOL    HW167334  11.753   9.412   1.853
88479SOL    HW267335  11.651   9.407   1.741
88480SOL     OW67336   3.702   0.121   0.615
88480SOL    HW167337   3.757   0.086   0.545
88480SOL    HW267338   3.627   0.160   0.569
88481SOL     OW67339   8.661   7.635  12.281
88481SOL    HW167340   8.658   7.560  12.221
88481SOL    HW267341   8.638   7.710  12.226
88482SOL     OW67342  14.810   6.056   0.083
88482SOL    HW167343  14.796   6.073   0.176
88482SOL    HW267344  14.817   5.961   0.076
88483SOL     OW67345   0.209   0.149   0.162
88483SOL    HW167346   0.185   0.061   0.189
88483SOL    HW267347   0.305   0.146   0.154
88484SOL     OW67348   1.762   9.951   7.247
88484SOL    HW167349   1.746   9.923   7.157
88484SOL    HW267350   1.856   9.963   7.253
88485SOL     OW67351  11.304  11.592   8.315
88485SOL    HW167352  11.233  11.578   8.377
88485SOL    HW267353  11.262  11.587   8.229
88486SOL     OW67354  11.482   9.673  13.878
88486SOL    HW167355  11.463   9.580  13.864
88486SOL    HW267356  11.563   9.674  13.928
88487SOL     OW67357   5.196   1.545   5.414
88487SOL    HW167358   5.119   1.498   5.382
88487SOL    HW267359   5.161   1.624   5.455
88488SOL     OW67360   1.422   8.525   5.831
88488SOL    HW167361   1.504   8.565   5.804
88488SOL    HW267362   1.425   8.525   5.927
88489SOL     OW67363   3.036   0.083   5.302
88489SOL    HW167364   2.986   0.022   5.249
88489SOL    HW267365   2.983   0.163   5.302
88490SOL     OW67366   1.864  12.590   2.581
88490SOL    HW167367   1.834  12.674   2.547
88490SOL    HW267368   1.831  12.587   2.671
88491SOL     OW67369   0.521   5.038   5.194
88491SOL    HW167370   0.485   5.060   5.280
88491SOL    HW267371   0.461   5.078   5.132
88492SOL     OW67372   3.409  13.565   4.458
88492SOL    HW167373   3.349  13.547   4.531
88492SOL    HW267374   3.495  13.536   4.490
88493SOL     OW67375   8.091   6.423   5.907
88493SOL    HW167376   8.085   6.517   5.926
88493SOL    HW267377   8.116   6.383   5.990
88494SOL     OW67378   7.809   7.300   5.786
88494SOL    HW167379   7.846   7.249   5.858
88494SOL    HW267380   7.761   7.236   5.733
88495SOL     OW67381   7.404   8.327   8.401
88495SOL    HW167382   7.338   8.295   8.340
88495SOL    HW267383   7.466   8.255   8.409
88496SOL     OW67384   1.749  14.359  12.957
88496SOL    HW167385   1.746  14.307  12.877
88496SOL    HW267386   1.831  14.334  13.000
88497SOL     OW67387   9.420   1.432  11.726
88497SOL    HW167388   9.351   1.470  11.781
88497SOL    HW267389   9.480   1.391  11.788
88498SOL     OW67390   7.059   2.914   5.417
88498SOL    HW167391   7.131   2.971   5.443
88498SOL    HW267392   7.065   2.909   5.321
88499SOL     OW67393   5.518  11.846   4.018
88499SOL    HW167394   5.583  11.912   3.996
88499SOL    HW267395   5.537  11.773   3.960
88500SOL     OW67396   7.418   4.001   3.471
88500SOL    HW167397   7.343   3.952   3.505
88500SOL    HW267398   7.383   4.051   3.398
88501SOL     OW67399  11.015   0.812  11.598
88501SOL    HW167400  11.072   0.870  11.548
88501SOL    HW267401  10.978   0.869  11.666
88502SOL     OW67402   7.948   7.949   0.468
88502SOL    HW167403   7.864   7.925   0.428
88502SOL    HW267404   7.988   7.866   0.491
88503SOL     OW67405   0.464   3.280  13.245
88503SOL    HW167406   0.537   3.311  13.191
88503SOL    HW267407   0.426   3.209  13.193
88504SOL     OW67408   7.329   5.224   0.010
88504SOL    HW167409   7.305   5.153  14.831
88504SOL    HW267410   7.274   5.210   0.088
88505SOL     OW67411  11.821  11.876   5.487
88505SOL    HW167412  11.896  11.820   5.506
88505SOL    HW267413  11.785  11.899   5.572
88506SOL     OW67414   2.961  12.643   5.256
88506SOL    HW167415   2.967  12.548   5.244
88506SOL    HW267416   2.881  12.667   5.210
88507SOL     OW67417  12.778  10.986   6.199
88507SOL    HW167418  12.773  11.019   6.109
88507SOL    HW267419  12.812  10.897   6.190
88508SOL     OW67420   5.775  14.159  14.793
88508SOL    HW167421   5.682  14.179  14.781
88508SOL    HW267422   5.821  14.227  14.746
88509SOL     OW67423   8.566  12.450  10.802
88509SOL    HW167424   8.496  12.391  10.829
88509SOL    HW267425   8.645  12.413  10.840
88510SOL     OW67426   5.606   9.098   1.343
88510SOL    HW167427   5.690   9.121   1.381
88510SOL    HW267428   5.556   9.060   1.415
88511SOL     OW67429   0.241   9.842   6.076
88511SOL    HW167430   0.206   9.919   6.119
88511SOL    HW267431   0.181   9.771   6.100
88512SOL     OW67432  12.510   4.139  12.834
88512SOL    HW167433  12.424   4.135  12.876
88512SOL    HW267434  12.539   4.048  12.829
88513SOL     OW67435   7.372   9.944   9.015
88513SOL    HW167436   7.316   9.920   8.941
88513SOL    HW267437   7.386  10.038   9.004
88514SOL     OW67438  14.677   7.400   1.457
88514SOL    HW167439  14.722   7.428   1.536
88514SOL    HW267440  14.602   7.349   1.488
88515SOL     OW67441  13.392   4.758   7.824
88515SOL    HW167442  13.419   4.809   7.747
88515SOL    HW267443  13.297   4.774   7.830
88516SOL     OW67444  11.412   4.165  12.118
88516SOL    HW167445  11.473   4.199  12.183
88516SOL    HW267446  11.338   4.132  12.169
88517SOL     OW67447  10.234  11.401   7.654
88517SOL    HW167448  10.208  11.351   7.577
88517SOL    HW267449  10.160  11.390   7.715
88518SOL     OW67450   6.476   0.555   8.042
88518SOL    HW167451   6.464   0.470   7.999
88518SOL    HW267452   6.536   0.537   8.115
88519SOL     OW67453  12.899   4.536  11.519
88519SOL    HW167454  12.874   4.620  11.479
88519SOL    HW267455  12.972   4.558  11.577
88520SOL     OW67456   4.840  10.897   9.021
88520SOL    HW167457   4.919  10.948   9.005
88520SOL    HW267458   4.784  10.915   8.946
88521SOL     OW67459   9.767  10.719  12.958
88521SOL    HW167460   9.840  10.708  12.896
88521SOL    HW267461   9.729  10.632  12.967
88522SOL     OW67462  10.225  12.495  12.033
88522SOL    HW167463  10.210  12.490  11.938
88522SOL    HW267464  10.296  12.558  12.043
88523SOL     OW67465   7.843   4.100   1.911
88523SOL    HW167466   7.924   4.058   1.939
88523SOL    HW267467   7.864   4.136   1.825
88524SOL     OW67468  10.177   2.259   9.742
88524SOL    HW167469  10.193   2.169   9.715
88524SOL    HW267470  10.178   2.309   9.660
88525SOL     OW67471   3.150   0.301  13.539
88525SOL    HW167472   3.215   0.278  13.604
88525SOL    HW267473   3.066   0.280  13.579
88526SOL     OW67474   8.735  12.171   2.747
88526SOL    HW167475   8.753  12.265   2.756
88526SOL    HW267476   8.652  12.167   2.701
88527SOL     OW67477   5.733  14.342   3.432
88527SOL    HW167478   5.818  14.382   3.414
88527SOL    HW267479   5.712  14.371   3.521
88528SOL     OW67480   2.684  14.741   1.562
88528SOL    HW167481   2.705  14.832   1.582
88528SOL    HW267482   2.727  14.724   1.478
88529SOL     OW67483   9.539  13.293   2.647
88529SOL    HW167484   9.574  13.380   2.627
88529SOL    HW267485   9.549  13.243   2.566
88530SOL     OW67486   0.795   8.480   0.015
88530SOL    HW167487   0.851   8.547   0.055
88530SOL    HW267488   0.764   8.428   0.088
88531SOL     OW67489   5.695   8.171   8.208
88531SOL    HW167490   5.685   8.102   8.273
88531SOL    HW267491   5.731   8.127   8.131
88532SOL     OW67492   6.584  12.591   9.440
88532SOL    HW167493   6.659  12.536   9.459
88532SOL    HW267494   6.617  12.655   9.377
88533SOL     OW67495  14.659   8.754  10.476
88533SOL    HW167496  14.669   8.775  10.383
88533SOL    HW267497  14.574   8.790  10.499
88534SOL     OW67498  11.779  14.665   2.198
88534SOL    HW167499  11.814  14.752   2.177
88534SOL    HW267500  11.857  14.611   2.211
88535SOL     OW67501   4.053   3.984   6.278
88535SOL    HW167502   3.995   3.908   6.289
88535SOL    HW267503   4.082   4.005   6.367
88536SOL     OW67504   9.701   6.887  11.704
88536SOL    HW167505   9.623   6.856  11.658
88536SOL    HW267506   9.681   6.871  11.797
88537SOL     OW67507  14.130  14.725   9.583
88537SOL    HW167508  14.141  14.645   9.635
88537SOL    HW267509  14.156  14.796   9.642
88538SOL     OW67510   4.265   6.559   0.406
88538SOL    HW167511   4.228   6.528   0.488
88538SOL    HW267512   4.195   6.610   0.365
88539SOL     OW67513  13.238   0.557  10.001
88539SOL    HW167514  13.278   0.526  10.082
88539SOL    HW267515  13.293   0.631   9.974
88540SOL     OW67516   4.361   6.859  11.453
88540SOL    HW167517   4.299   6.908  11.399
88540SOL    HW267518   4.325   6.770  11.455
88541SOL     OW67519  10.030  13.432   7.130
88541SOL    HW167520  10.062  13.406   7.216
88541SOL    HW267521  10.096  13.493   7.097
88542SOL     OW67522   5.690   7.188   7.449
88542SOL    HW167523   5.596   7.194   7.432
88542SOL    HW267524   5.697   7.159   7.540
88543SOL     OW67525   6.582   9.814   3.849
88543SOL    HW167526   6.665   9.788   3.809
88543SOL    HW267527   6.518   9.752   3.813
88544SOL     OW67528  13.721   8.533   6.330
88544SOL    HW167529  13.721   8.441   6.305
88544SOL    HW267530  13.637   8.567   6.297
88545SOL     OW67531   6.474  13.077  12.266
88545SOL    HW167532   6.436  13.147  12.318
88545SOL    HW267533   6.406  13.053  12.204
88546SOL     OW67534  11.908   5.236  11.057
88546SOL    HW167535  11.939   5.260  10.969
88546SOL    HW267536  11.939   5.306  11.113
88547SOL     OW67537   3.839  11.548  14.348
88547SOL    HW167538   3.772  11.616  14.360
88547SOL    HW267539   3.813  11.479  14.409
88548SOL     OW67540  12.255  10.860   0.798
88548SOL    HW167541  12.319  10.811   0.746
88548SOL    HW267542  12.210  10.794   0.850
88549SOL     OW67543  11.132   6.429  11.880
88549SOL    HW167544  11.104   6.487  11.809
88549SOL    HW267545  11.054   6.377  11.900
88550SOL     OW67546   5.589   0.354   0.273
88550SOL    HW167547   5.559   0.304   0.197
88550SOL    HW267548   5.626   0.288   0.332
88551SOL     OW67549   2.607   3.455   7.548
88551SOL    HW167550   2.611   3.537   7.597
88551SOL    HW267551   2.516   3.426   7.556
88552SOL     OW67552   9.949   6.620   2.492
88552SOL    HW167553   9.979   6.564   2.420
88552SOL    HW267554  10.029   6.655   2.531
88553SOL     OW67555  11.506  12.314   4.630
88553SOL    HW167556  11.491  12.248   4.699
88553SOL    HW267557  11.449  12.387   4.654
88554SOL     OW67558   1.303   3.244   7.127
88554SOL    HW167559   1.281   3.337   7.130
88554SOL    HW267560   1.220   3.199   7.141
88555SOL     OW67561   9.181   6.946  14.178
88555SOL    HW167562   9.119   6.910  14.115
88555SOL    HW267563   9.126   6.985  14.246
88556SOL     OW67564   4.754   0.299   4.285
88556SOL    HW167565   4.780   0.386   4.316
88556SOL    HW267566   4.772   0.241   4.359
88557SOL     OW67567   1.877   2.172   6.245
88557SOL    HW167568   1.945   2.108   6.223
88557SOL    HW267569   1.918   2.257   6.232
88558SOL     OW67570  10.718   8.939   2.700
88558SOL    HW167571  10.708   8.957   2.606
88558SOL    HW267572  10.631   8.911   2.728
88559SOL     OW67573  12.236  11.308   6.819
88559SOL    HW167574  12.264  11.307   6.910
88559SOL    HW267575  12.304  11.358   6.773
88560SOL     OW67576  13.084  13.540   7.680
88560SOL    HW167577  13.147  13.542   7.752
88560SOL    HW267578  13.137  13.519   7.603
88561SOL     OW67579  12.469   5.040  13.216
88561SOL    HW167580  12.549   4.988  13.226
88561SOL    HW267581  12.435   5.014  13.130
88562SOL     OW67582   5.404  13.981   4.711
88562SOL    HW167583   5.321  13.954   4.672
88562SOL    HW267584   5.471  13.947   4.652
88563SOL     OW67585   8.802  13.601   0.517
88563SOL    HW167586   8.741  13.583   0.589
88563SOL    HW267587   8.826  13.693   0.527
88564SOL     OW67588  11.103   0.609  14.823
88564SOL    HW167589  11.056   0.615   0.026
88564SOL    HW267590  11.111   0.515  14.807
88565SOL     OW67591   0.672   1.294   0.259
88565SOL    HW167592   0.602   1.329   0.315
88565SOL    HW267593   0.719   1.233   0.316
88566SOL     OW67594   6.216   3.175   1.827
88566SOL    HW167595   6.219   3.243   1.761
88566SOL    HW267596   6.302   3.179   1.870
88567SOL     OW67597   3.086  12.624   1.911
88567SOL    HW167598   3.127  12.710   1.918
88567SOL    HW267599   3.049  12.622   1.823
88568SOL     OW67600   9.077   5.137   7.475
88568SOL    HW167601   9.002   5.187   7.506
88568SOL    HW267602   9.057   5.046   7.497
88569SOL     OW67603  13.645   4.015   2.184
88569SOL    HW167604  13.563   3.967   2.182
88569SOL    HW267605  13.640   4.074   2.109
88570SOL     OW67606   5.007  10.105  12.273
88570SOL    HW167607   5.064  10.072  12.343
88570SOL    HW267608   4.932  10.046  12.273
88571SOL     OW67609   5.762   3.780   6.862
88571SOL    HW167610   5.691   3.726   6.896
88571SOL    HW267611   5.771   3.850   6.927
88572SOL     OW67612   4.133   4.628   2.276
88572SOL    HW167613   4.152   4.704   2.220
88572SOL    HW267614   4.054   4.653   2.323
88573SOL     OW67615  10.803   3.417   2.356
88573SOL    HW167616  10.794   3.344   2.295
88573SOL    HW267617  10.767   3.492   2.309
88574SOL     OW67618  12.665  11.727  10.501
88574SOL    HW167619  12.585  11.778  10.489
88574SOL    HW267620  12.639  11.636  10.486
88575SOL     OW67621  13.340   8.502  10.012
88575SOL    HW167622  13.398   8.433  10.045
88575SOL    HW267623  13.394   8.550   9.949
88576SOL     OW67624  11.936  10.896  12.983
88576SOL    HW167625  11.975  10.851  13.058
88576SOL    HW267626  11.996  10.881  12.911
88577SOL     OW67627   2.242  11.480   5.623
88577SOL    HW167628   2.226  11.572   5.647
88577SOL    HW267629   2.197  11.469   5.539
88578SOL     OW67630  14.060  13.138   8.327
88578SOL    HW167631  14.050  13.056   8.375
88578SOL    HW267632  14.028  13.205   8.388
88579SOL     OW67633   1.824   8.849   1.561
88579SOL    HW167634   1.834   8.836   1.655
88579SOL    HW267635   1.877   8.781   1.521
88580SOL     OW67636   7.748   7.793   9.026
88580SOL    HW167637   7.757   7.844   9.106
88580SOL    HW267638   7.824   7.818   8.973
88581SOL     OW67639   0.603   6.126   3.486
88581SOL    HW167640   0.569   6.093   3.568
88581SOL    HW267641   0.697   6.139   3.503
88582SOL     OW67642   5.041   6.842  12.032
88582SOL    HW167643   4.983   6.771  12.003
88582SOL    HW267644   5.031   6.909  11.965
88583SOL     OW67645  10.659   6.066   1.661
88583SOL    HW167646  10.567   6.064   1.635
88583SOL    HW267647  10.706   6.024   1.589
88584SOL     OW67648   3.693   3.207   1.898
88584SOL    HW167649   3.753   3.214   1.972
88584SOL    HW267650   3.623   3.269   1.919
88585SOL     OW67651  14.860   2.977  13.147
88585SOL    HW167652  14.813   2.953  13.067
88585SOL    HW267653  14.864   3.073  13.143
88586SOL     OW67654   7.658   8.890  13.427
88586SOL    HW167655   7.636   8.825  13.494
88586SOL    HW267656   7.753   8.900  13.434
88587SOL     OW67657  10.360   8.400   6.264
88587SOL    HW167658  10.380   8.408   6.358
88587SOL    HW267659  10.407   8.473   6.224
88588SOL     OW67660   6.885  13.026   4.876
88588SOL    HW167661   6.878  12.931   4.876
88588SOL    HW267662   6.796  13.057   4.860
88589SOL     OW67663   6.965  14.093   0.260
88589SOL    HW167664   7.059  14.073   0.253
88589SOL    HW267665   6.939  14.117   0.171
88590SOL     OW67666   1.635   0.831  11.903
88590SOL    HW167667   1.699   0.794  11.843
88590SOL    HW267668   1.552   0.828  11.855
88591SOL     OW67669   2.144  14.092   7.973
88591SOL    HW167670   2.195  14.127   7.900
88591SOL    HW267671   2.197  14.112   8.050
88592SOL     OW67672   3.164   9.458   7.924
88592SOL    HW167673   3.072   9.462   7.949
88592SOL    HW267674   3.179   9.539   7.875
88593SOL     OW67675  13.772   8.644   9.963
88593SOL    HW167676  13.725   8.664  10.043
88593SOL    HW267677  13.794   8.729   9.925
88594SOL     OW67678   1.759   6.021  13.357
88594SOL    HW167679   1.674   6.066  13.354
88594SOL    HW267680   1.802   6.058  13.434
88595SOL     OW67681  11.813   4.207  11.651
88595SOL    HW167682  11.799   4.116  11.678
88595SOL    HW267683  11.725   4.241  11.635
88596SOL     OW67684   0.887   7.132   1.923
88596SOL    HW167685   0.939   7.212   1.931
88596SOL    HW267686   0.797   7.160   1.943
88597SOL     OW67687   4.484   9.134   1.119
88597SOL    HW167688   4.462   9.050   1.080
88597SOL    HW267689   4.515   9.188   1.046
88598SOL     OW67690   4.247  11.004  13.809
88598SOL    HW167691   4.266  11.068  13.877
88598SOL    HW267692   4.273  10.920  13.847
88599SOL     OW67693   1.492  12.539   6.567
88599SOL    HW167694   1.495  12.446   6.544
88599SOL    HW267695   1.490  12.539   6.663
88600SOL     OW67696  13.982  14.790   6.898
88600SOL    HW167697  13.910  14.741   6.937
88600SOL    HW267698  13.952   0.001   6.898
88601SOL     OW67699  13.707  13.951   5.444
88601SOL    HW167700  13.743  14.039   5.455
88601SOL    HW267701  13.773  13.894   5.483
88602SOL     OW67702   3.622   5.631   5.144
88602SOL    HW167703   3.535   5.592   5.147
88602SOL    HW267704   3.673   5.573   5.088
88603SOL     OW67705  10.925   6.734  14.600
88603SOL    HW167706  10.870   6.661  14.574
88603SOL    HW267707  11.011   6.695  14.615
88604SOL     OW67708  14.292   8.011   1.796
88604SOL    HW167709  14.343   7.972   1.725
88604SOL    HW267710  14.343   7.992   1.875
88605SOL     OW67711  10.804   5.874   2.610
88605SOL    HW167712  10.859   5.798   2.590
88605SOL    HW267713  10.782   5.910   2.524
88606SOL     OW67714   4.718  11.256  11.255
88606SOL    HW167715   4.633  11.212  11.248
88606SOL    HW267716   4.723  11.309  11.176
88607SOL     OW67717  11.152   0.701  10.483
88607SOL    HW167718  11.100   0.782  10.482
88607SOL    HW267719  11.243   0.731  10.482
88608SOL     OW67720   4.911   0.205   1.508
88608SOL    HW167721   4.956   0.287   1.491
88608SOL    HW267722   4.851   0.195   1.434
88609SOL     OW67723  13.157  13.272   8.086
88609SOL    HW167724  13.132  13.213   8.157
88609SOL    HW267725  13.252  13.280   8.093
88610SOL     OW67726   9.680   8.253  14.207
88610SOL    HW167727   9.757   8.303  14.234
88610SOL    HW267728   9.632   8.312  14.150
88611SOL     OW67729  13.914   9.661   6.345
88611SOL    HW167730  13.902   9.638   6.437
88611SOL    HW267731  13.915   9.757   6.344
88612SOL     OW67732  13.188   9.196  10.568
88612SOL    HW167733  13.120   9.141  10.530
88612SOL    HW267734  13.220   9.145  10.643
88613SOL     OW67735   4.751   1.690   9.278
88613SOL    HW167736   4.694   1.764   9.299
88613SOL    HW267737   4.779   1.656   9.363
88614SOL     OW67738  14.587   4.868   1.075
88614SOL    HW167739  14.661   4.809   1.069
88614SOL    HW267740  14.588   4.898   1.166
88615SOL     OW67741  10.643   6.928   4.865
88615SOL    HW167742  10.636   6.972   4.949
88615SOL    HW267743  10.656   6.836   4.887
88616SOL     OW67744  12.134  12.696  12.386
88616SOL    HW167745  12.065  12.738  12.334
88616SOL    HW267746  12.203  12.677  12.324
88617SOL     OW67747  14.564  12.537   7.411
88617SOL    HW167748  14.561  12.537   7.506
88617SOL    HW267749  14.476  12.566   7.385
88618SOL     OW67750   5.565   7.141   8.198
88618SOL    HW167751   5.524   7.163   8.281
88618SOL    HW267752   5.658   7.157   8.212
88619SOL     OW67753   4.378  14.706  13.458
88619SOL    HW167754   4.314  14.689  13.389
88619SOL    HW267755   4.375  14.800  13.472
88620SOL     OW67756  12.774   0.057   4.687
88620SOL    HW167757  12.848   0.096   4.641
88620SOL    HW267758  12.808   0.036   4.774
88621SOL     OW67759  12.732  11.746  14.072
88621SOL    HW167760  12.767  11.835  14.070
88621SOL    HW267761  12.714  11.726  13.980
88622SOL     OW67762   0.831  10.703  12.482
88622SOL    HW167763   0.895  10.711  12.553
88622SOL    HW267764   0.852  10.620  12.439
88623SOL     OW67765   6.472   9.437   8.458
88623SOL    HW167766   6.386   9.396   8.461
88623SOL    HW267767   6.455   9.526   8.427
88624SOL     OW67768  11.847  13.805  13.973
88624SOL    HW167769  11.800  13.793  14.056
88624SOL    HW267770  11.799  13.752  13.910
88625SOL     OW67771  11.151  13.627   9.943
88625SOL    HW167772  11.136  13.636   9.849
88625SOL    HW267773  11.104  13.701   9.982
88626SOL     OW67774  12.346  13.205   7.197
88626SOL    HW167775  12.290  13.262   7.143
88626SOL    HW267776  12.432  13.247   7.194
88627SOL     OW67777   4.096   3.905   4.496
88627SOL    HW167778   4.017   3.958   4.510
88627SOL    HW267779   4.169   3.965   4.515
88628SOL     OW67780   6.163  11.474   9.800
88628SOL    HW167781   6.156  11.385   9.834
88628SOL    HW267782   6.189  11.463   9.708
88629SOL     OW67783   3.625   3.574   2.349
88629SOL    HW167784   3.716   3.574   2.318
88629SOL    HW267785   3.617   3.655   2.399
88630SOL     OW67786  12.225  10.727  13.436
88630SOL    HW167787  12.261  10.647  13.398
88630SOL    HW267788  12.211  10.706  13.528
88631SOL     OW67789   8.925   2.005   6.500
88631SOL    HW167790   8.933   2.095   6.469
88631SOL    HW267791   8.967   1.952   6.432
88632SOL     OW67792  11.377   1.421  11.314
88632SOL    HW167793  11.463   1.438  11.351
88632SOL    HW267794  11.323   1.399  11.390
88633SOL     OW67795  12.617   1.337  12.087
88633SOL    HW167796  12.685   1.391  12.047
88633SOL    HW267797  12.614   1.258  12.033
88634SOL     OW67798  13.985   7.090  10.367
88634SOL    HW167799  13.890   7.080  10.370
88634SOL    HW267800  13.999   7.168  10.314
88635SOL     OW67801  14.475   0.380  11.468
88635SOL    HW167802  14.431   0.427  11.398
88635SOL    HW267803  14.551   0.433  11.490
88636SOL     OW67804   4.447   7.711  13.811
88636SOL    HW167805   4.471   7.620  13.826
88636SOL    HW267806   4.414   7.742  13.895
88637SOL     OW67807  11.421   8.782  11.832
88637SOL    HW167808  11.376   8.849  11.780
88637SOL    HW267809  11.404   8.700  11.785
88638SOL     OW67810   4.774   6.118   0.702
88638SOL    HW167811   4.702   6.129   0.640
88638SOL    HW267812   4.736   6.072   0.776
88639SOL     OW67813   6.304   2.920   8.218
88639SOL    HW167814   6.349   2.906   8.301
88639SOL    HW267815   6.373   2.914   8.152
88640SOL     OW67816   6.317   0.771  14.025
88640SOL    HW167817   6.354   0.859  14.032
88640SOL    HW267818   6.229   0.779  14.063
88641SOL     OW67819   8.449   7.848  10.665
88641SOL    HW167820   8.502   7.918  10.628
88641SOL    HW267821   8.373   7.891  10.702
88642SOL     OW67822   2.472   4.020  11.331
88642SOL    HW167823   2.491   3.980  11.415
88642SOL    HW267824   2.430   4.103  11.353
88643SOL     OW67825   3.882  12.594   5.180
88643SOL    HW167826   3.902  12.673   5.130
88643SOL    HW267827   3.885  12.622   5.272
88644SOL     OW67828   3.668   0.242  10.188
88644SOL    HW167829   3.700   0.153  10.176
88644SOL    HW267830   3.582   0.242  10.147
88645SOL     OW67831   9.510   0.312   8.074
88645SOL    HW167832   9.515   0.360   7.991
88645SOL    HW267833   9.456   0.236   8.055
88646SOL     OW67834   2.685   4.508   9.972
88646SOL    HW167835   2.646   4.594   9.985
88646SOL    HW267836   2.628   4.448  10.019
88647SOL     OW67837   0.198   3.343  10.968
88647SOL    HW167838   0.288   3.336  11.002
88647SOL    HW267839   0.149   3.383  11.040
88648SOL     OW67840   8.713  11.586  12.117
88648SOL    HW167841   8.623  11.555  12.125
88648SOL    HW267842   8.757  11.554  12.196
88649SOL     OW67843   5.618   7.908   1.202
88649SOL    HW167844   5.697   7.866   1.236
88649SOL    HW267845   5.651   7.976   1.143
88650SOL     OW67846  12.390  10.899   1.728
88650SOL    HW167847  12.427  10.902   1.640
88650SOL    HW267848  12.309  10.949   1.721
88651SOL     OW67849  11.244   9.732  12.400
88651SOL    HW167850  11.244   9.707  12.492
88651SOL    HW267851  11.152   9.747  12.379
88652SOL     OW67852  11.188  12.990   7.346
88652SOL    HW167853  11.202  13.017   7.437
88652SOL    HW267854  11.275  12.995   7.306
88653SOL     OW67855   7.255  12.356  13.229
88653SOL    HW167856   7.179  12.389  13.180
88653SOL    HW267857   7.300  12.299  13.167
88654SOL     OW67858  10.940   1.393  10.703
88654SOL    HW167859  10.857   1.436  10.681
88654SOL    HW267860  10.975   1.444  10.776
88655SOL     OW67861   7.874  10.243   1.990
88655SOL    HW167862   7.922  10.309   2.040
88655SOL    HW267863   7.826  10.293   1.924
88656SOL     OW67864   0.929   5.335   3.191
88656SOL    HW167865   0.908   5.386   3.113
88656SOL    HW267866   0.997   5.274   3.163
88657SOL     OW67867   6.129   5.457   2.731
88657SOL    HW167868   6.207   5.451   2.676
88657SOL    HW267869   6.112   5.368   2.759
88658SOL     OW67870   6.390  11.578   3.158
88658SOL    HW167871   6.319  11.594   3.220
88658SOL    HW267872   6.470  11.596   3.209
88659SOL     OW67873  10.562   0.699  13.642
88659SOL    HW167874  10.482   0.679  13.690
88659SOL    HW267875  10.632   0.692  13.706
88660SOL     OW67876   8.842  12.497   2.099
88660SOL    HW167877   8.749  12.481   2.084
88660SOL    HW267878   8.848  12.522   2.192
88661SOL     OW67879   9.829   6.241  11.536
88661SOL    HW167880   9.894   6.228  11.604
88661SOL    HW267881   9.880   6.243  11.454
88662SOL     OW67882   3.645   6.695  13.768
88662SOL    HW167883   3.699   6.680  13.690
88662SOL    HW267884   3.665   6.785  13.793
88663SOL     OW67885  14.064   2.031  12.117
88663SOL    HW167886  14.069   1.967  12.046
88663SOL    HW267887  14.043   2.113  12.072
88664SOL     OW67888  12.327   0.343   0.008
88664SOL    HW167889  12.246   0.393   0.009
88664SOL    HW267890  12.396   0.410   0.016
88665SOL     OW67891  14.260   2.162   2.904
88665SOL    HW167892  14.199   2.220   2.950
88665SOL    HW267893  14.238   2.074   2.935
88666SOL     OW67894   8.034  11.316   2.311
88666SOL    HW167895   8.061  11.279   2.227
88666SOL    HW267896   8.116  11.328   2.359
88667SOL     OW67897  10.832   7.059   4.420
88667SOL    HW167898  10.799   7.052   4.330
88667SOL    HW267899  10.771   7.117   4.465
88668SOL     OW67900   6.612  11.808   1.319
88668SOL    HW167901   6.598  11.808   1.413
88668SOL    HW267902   6.635  11.899   1.298
88669SOL     OW67903   1.391   2.133   6.051
88669SOL    HW167904   1.361   2.224   6.045
88669SOL    HW267905   1.324   2.082   6.006
88670SOL     OW67906  12.104   5.654   6.477
88670SOL    HW167907  12.174   5.595   6.503
88670SOL    HW267908  12.024   5.613   6.511
88671SOL     OW67909  14.488   3.687   7.326
88671SOL    HW167910  14.547   3.618   7.358
88671SOL    HW267911  14.530   3.769   7.353
88672SOL     OW67912   4.096   6.949   5.058
88672SOL    HW167913   4.166   7.013   5.052
88672SOL    HW267914   4.106   6.894   4.981
88673SOL     OW67915   1.019   4.864   5.388
88673SOL    HW167916   1.069   4.861   5.470
88673SOL    HW267917   0.932   4.894   5.414
88674SOL     OW67918   2.351  10.213  11.029
88674SOL    HW167919   2.431  10.206  11.081
88674SOL    HW267920   2.358  10.142  10.965
88675SOL     OW67921   3.664  10.391   3.158
88675SOL    HW167922   3.595  10.325   3.169
88675SOL    HW267923   3.629  10.450   3.090
88676SOL     OW67924  11.861  13.414  11.944
88676SOL    HW167925  11.772  13.445  11.963
88676SOL    HW267926  11.882  13.354  12.016
88677SOL     OW67927   4.507  12.278   4.387
88677SOL    HW167928   4.520  12.347   4.452
88677SOL    HW267929   4.572  12.297   4.320
88678SOL     OW67930   7.436  11.511   3.459
88678SOL    HW167931   7.376  11.464   3.401
88678SOL    HW267932   7.404  11.602   3.457
88679SOL     OW67933   0.147   4.555   9.715
88679SOL    HW167934   0.072   4.600   9.755
88679SOL    HW267935   0.128   4.557   9.621
88680SOL     OW67936  14.606   5.168   4.886
88680SOL    HW167937  14.629   5.075   4.877
88680SOL    HW267938  14.654   5.211   4.816
88681SOL     OW67939   2.353  12.634   1.659
88681SOL    HW167940   2.292  12.596   1.722
88681SOL    HW267941   2.323  12.724   1.647
88682SOL     OW67942   6.420   5.494   7.197
88682SOL    HW167943   6.401   5.572   7.145
88682SOL    HW267944   6.361   5.427   7.161
88683SOL     OW67945  14.767   7.575   9.610
88683SOL    HW167946  14.767   7.521   9.531
88683SOL    HW267947  14.680   7.562   9.648
88684SOL     OW67948   6.354  10.549   8.194
88684SOL    HW167949   6.412  10.572   8.121
88684SOL    HW267950   6.389  10.598   8.269
88685SOL     OW67951   8.379   4.941   8.543
88685SOL    HW167952   8.449   4.914   8.483
88685SOL    HW267953   8.299   4.937   8.490
88686SOL     OW67954   3.610   2.378  14.715
88686SOL    HW167955   3.670   2.383  14.789
88686SOL    HW267956   3.635   2.451  14.658
88687SOL     OW67957   8.001   7.890   8.896
88687SOL    HW167958   8.026   7.810   8.942
88687SOL    HW267959   8.010   7.868   8.803
88688SOL     OW67960   2.924  10.681  11.662
88688SOL    HW167961   2.846  10.634  11.633
88688SOL    HW267962   2.954  10.729  11.585
88689SOL     OW67963  10.840   0.084  10.660
88689SOL    HW167964  10.893   0.011  10.629
88689SOL    HW267965  10.864   0.157  10.604
88690SOL     OW67966  10.648   5.642   3.864
88690SOL    HW167967  10.690   5.726   3.880
88690SOL    HW267968  10.599   5.624   3.944
88691SOL     OW67969  13.489   7.870   4.796
88691SOL    HW167970  13.496   7.845   4.888
88691SOL    HW267971  13.413   7.928   4.793
88692SOL     OW67972  10.958  10.186   9.711
88692SOL    HW167973  10.903  10.175   9.634
88692SOL    HW267974  11.002  10.102   9.722
88693SOL     OW67975  11.876   8.521   5.513
88693SOL    HW167976  11.811   8.577   5.471
88693SOL    HW267977  11.832   8.486   5.591
88694SOL     OW67978  14.312   4.742   2.793
88694SOL    HW167979  14.246   4.791   2.843
88694SOL    HW267980  14.352   4.807   2.735
88695SOL     OW67981   6.822   6.065   7.423
88695SOL    HW167982   6.906   6.077   7.468
88695SOL    HW267983   6.805   6.149   7.382
88696SOL     OW67984   2.205  10.035   8.714
88696SOL    HW167985   2.264   9.973   8.672
88696SOL    HW267986   2.150  10.068   8.642
88697SOL     OW67987   3.021  14.377  10.707
88697SOL    HW167988   2.976  14.317  10.647
88697SOL    HW267989   3.071  14.321  10.765
88698SOL     OW67990  12.179   0.552  13.007
88698SOL    HW167991  12.269   0.571  12.980
88698SOL    HW267992  12.188   0.502  13.088
88699SOL     OW67993   8.677   5.279   6.632
88699SOL    HW167994   8.630   5.362   6.630
88699SOL    HW267995   8.624   5.220   6.577
88700SOL     OW67996   1.844   5.415  10.664
88700SOL    HW167997   1.769   5.371  10.704
88700SOL    HW267998   1.863   5.488  10.723
88701SOL     OW67999  10.575   3.133   9.246
88701SOL    HW168000  10.609   3.208   9.196
88701SOL    HW268001  10.556   3.067   9.179
88702SOL     OW68002   1.224   3.270   4.462
88702SOL    HW168003   1.237   3.335   4.531
88702SOL    HW268004   1.176   3.318   4.394
88703SOL     OW68005   2.863   4.783   3.868
88703SOL    HW168006   2.941   4.833   3.846
88703SOL    HW268007   2.807   4.791   3.791
88704SOL     OW68008   4.814   6.123   1.084
88704SOL    HW168009   4.882   6.186   1.060
88704SOL    HW268010   4.862   6.049   1.122
88705SOL     OW68011  14.628  11.167   8.698
88705SOL    HW168012  14.637  11.244   8.754
88705SOL    HW268013  14.596  11.202   8.615
88706SOL     OW68014   0.177   3.620   8.982
88706SOL    HW168015   0.191   3.596   8.890
88706SOL    HW268016   0.251   3.677   9.004
88707SOL     OW68017  14.174  10.403   0.994
88707SOL    HW168018  14.116  10.340   1.036
88707SOL    HW268019  14.208  10.357   0.918
88708SOL     OW68020  14.458  12.661   9.335
88708SOL    HW168021  14.385  12.651   9.396
88708SOL    HW268022  14.486  12.571   9.317
88709SOL     OW68023   7.003  12.089   9.885
88709SOL    HW168024   6.920  12.051   9.857
88709SOL    HW268025   6.983  12.181   9.905
88710SOL     OW68026  11.517   5.270   4.314
88710SOL    HW168027  11.519   5.274   4.218
88710SOL    HW268028  11.463   5.344   4.340
88711SOL     OW68029  14.636  14.679  10.949
88711SOL    HW168030  14.610  14.681  11.041
88711SOL    HW268031  14.581  14.611  10.910
88712SOL     OW68032   9.313   3.615  11.155
88712SOL    HW168033   9.274   3.632  11.240
88712SOL    HW268034   9.326   3.701  11.116
88713SOL     OW68035   4.175   3.942  11.935
88713SOL    HW168036   4.186   4.030  11.901
88713SOL    HW268037   4.264   3.908  11.947
88714SOL     OW68038  14.723   0.841   0.207
88714SOL    HW168039  14.713   0.926   0.250
88714SOL    HW268040  14.811   0.842   0.171
88715SOL     OW68041   1.931   4.347   1.445
88715SOL    HW168042   1.905   4.337   1.537
88715SOL    HW268043   1.875   4.286   1.397
88716SOL     OW68044  13.115   9.464   0.917
88716SOL    HW168045  13.058   9.414   0.860
88716SOL    HW268046  13.191   9.407   0.931
88717SOL     OW68047   8.330  14.169   1.507
88717SOL    HW168048   8.239  14.163   1.535
88717SOL    HW268049   8.343  14.092   1.451
88718SOL     OW68050  13.102   5.446   6.322
88718SOL    HW168051  13.043   5.409   6.256
88718SOL    HW268052  13.055   5.523   6.356
88719SOL     OW68053  10.155   7.990  13.427
88719SOL    HW168054  10.060   8.000  13.427
88719SOL    HW268055  10.170   7.897  13.443
88720SOL     OW68056   5.839  12.753   5.635
88720SOL    HW168057   5.843  12.848   5.630
88720SOL    HW268058   5.838  12.723   5.544
88721SOL     OW68059   6.813  10.366  10.709
88721SOL    HW168060   6.797  10.340  10.800
88721SOL    HW268061   6.733  10.412  10.683
88722SOL     OW68062  14.874   6.930   5.485
88722SOL    HW168063  14.808   6.998   5.476
88722SOL    HW268064  14.836   6.868   5.547
88723SOL     OW68065  10.199   1.852   8.962
88723SOL    HW168066  10.211   1.944   8.987
88723SOL    HW268067  10.231   1.849   8.871
88724SOL     OW68068   5.862   5.053   9.438
88724SOL    HW168069   5.796   5.050   9.369
88724SOL    HW268070   5.813   5.076   9.517
88725SOL     OW68071   3.244   2.899   4.209
88725SOL    HW168072   3.306   2.971   4.220
88725SOL    HW268073   3.272   2.833   4.271
88726SOL     OW68074   0.174   4.124  11.217
88726SOL    HW168075   0.127   4.142  11.298
88726SOL    HW268076   0.118   4.160  11.148
88727SOL     OW68077   2.059  13.391  11.467
88727SOL    HW168078   2.124  13.458  11.486
88727SOL    HW268079   1.991  13.437  11.418
88728SOL     OW68080   9.436   9.473   4.247
88728SOL    HW168081   9.436   9.428   4.332
88728SOL    HW268082   9.344   9.497   4.234
88729SOL     OW68083   4.522  14.439  10.050
88729SOL    HW168084   4.568  14.517  10.018
88729SOL    HW268085   4.541  14.371   9.984
88730SOL     OW68086  11.311  14.276   6.144
88730SOL    HW168087  11.394  14.235   6.120
88730SOL    HW268088  11.255  14.263   6.068
88731SOL     OW68089   8.241   5.601   4.124
88731SOL    HW168090   8.230   5.682   4.173
88731SOL    HW268091   8.315   5.617   4.066
88732SOL     OW68092  14.571   6.739  10.250
88732SOL    HW168093  14.501   6.803  10.267
88732SOL    HW268094  14.545   6.697  10.169
88733SOL     OW68095  12.324  13.772   5.797
88733SOL    HW168096  12.307  13.684   5.763
88733SOL    HW268097  12.402  13.762   5.852
88734SOL     OW68098  13.808   6.110  12.130
88734SOL    HW168099  13.756   6.094  12.209
88734SOL    HW268100  13.898   6.121  12.162
88735SOL     OW68101  11.996   7.569  10.162
88735SOL    HW168102  11.939   7.503  10.125
88735SOL    HW268103  12.030   7.530  10.243
88736SOL     OW68104  12.688  12.367   1.974
88736SOL    HW168105  12.736  12.416   1.907
88736SOL    HW268106  12.658  12.288   1.929
88737SOL     OW68107   3.673  12.527   3.833
88737SOL    HW168108   3.763  12.497   3.825
88737SOL    HW268109   3.663  12.548   3.925
88738SOL     OW68110   6.616  10.199  10.112
88738SOL    HW168111   6.595  10.290  10.134
88738SOL    HW268112   6.625  10.156  10.197
88739SOL     OW68113  12.956  11.597   5.048
88739SOL    HW168114  12.895  11.647   4.993
88739SOL    HW268115  12.900  11.557   5.114
88740SOL     OW68116   2.506  11.173   1.493
88740SOL    HW168117   2.537  11.185   1.403
88740SOL    HW268118   2.521  11.081   1.512
88741SOL     OW68119  13.457   4.656   0.209
88741SOL    HW168120  13.389   4.628   0.270
88741SOL    HW268121  13.525   4.588   0.216
88742SOL     OW68122   6.235  13.806  14.355
88742SOL    HW168123   6.168  13.874  14.364
88742SOL    HW268124   6.312  13.853  14.322
88743SOL     OW68125   1.676  10.786   5.994
88743SOL    HW168126   1.603  10.795   5.933
88743SOL    HW268127   1.635  10.783   6.080
88744SOL     OW68128   5.182  12.686   1.750
88744SOL    HW168129   5.145  12.673   1.663
88744SOL    HW268130   5.228  12.604   1.769
88745SOL     OW68131   7.526  14.558  13.040
88745SOL    HW168132   7.466  14.514  12.979
88745SOL    HW268133   7.547  14.641  12.997
88746SOL     OW68134  10.801   7.863   9.350
88746SOL    HW168135  10.816   7.855   9.256
88746SOL    HW268136  10.708   7.845   9.362
88747SOL     OW68137   0.279  13.240   5.979
88747SOL    HW168138   0.337  13.164   5.972
88747SOL    HW268139   0.271  13.256   6.073
88748SOL     OW68140   6.358   7.696  13.839
88748SOL    HW168141   6.374   7.612  13.881
88748SOL    HW268142   6.360   7.677  13.745
88749SOL     OW68143  14.383   6.923   8.967
88749SOL    HW168144  14.392   6.828   8.960
88749SOL    HW268145  14.343   6.937   9.053
88750SOL     OW68146  10.912  12.630   6.802
88750SOL    HW168147  10.835  12.632   6.858
88750SOL    HW268148  10.878  12.608   6.715
88751SOL     OW68149  10.654   1.116   5.988
88751SOL    HW168150  10.575   1.081   5.948
88751SOL    HW268151  10.683   1.185   5.928
88752SOL     OW68152   0.915   5.267   5.266
88752SOL    HW168153   0.954   5.233   5.347
88752SOL    HW268154   0.989   5.288   5.210
88753SOL     OW68155  14.536   7.431   7.297
88753SOL    HW168156  14.631   7.418   7.302
88753SOL    HW268157  14.499   7.359   7.348
88754SOL     OW68158   5.239  13.214   0.487
88754SOL    HW168159   5.230  13.158   0.564
88754SOL    HW268160   5.169  13.185   0.428
88755SOL     OW68161   3.048  11.110   5.004
88755SOL    HW168162   2.967  11.074   5.040
88755SOL    HW268163   3.117  11.055   5.041
88756SOL     OW68164   5.295  11.495   3.837
88756SOL    HW168165   5.262  11.572   3.790
88756SOL    HW268166   5.364  11.460   3.781
88757SOL     OW68167   3.502   6.953   0.422
88757SOL    HW168168   3.457   7.029   0.387
88757SOL    HW268169   3.593   6.965   0.395
88758SOL     OW68170   0.602  11.209  14.752
88758SOL    HW168171   0.534  11.150  14.720
88758SOL    HW268172   0.591  11.210  14.847
88759SOL     OW68173   5.648   1.751   8.357
88759SOL    HW168174   5.659   1.699   8.278
88759SOL    HW268175   5.578   1.812   8.336
88760SOL     OW68176   7.498  11.093   5.412
88760SOL    HW168177   7.469  11.118   5.500
88760SOL    HW268178   7.524  11.001   5.421
88761SOL     OW68179   7.492   6.356   3.016
88761SOL    HW168180   7.417   6.351   2.957
88761SOL    HW268181   7.458   6.399   3.094
88762SOL     OW68182   0.951   0.442  14.852
88762SOL    HW168183   0.869   0.411  14.813
88762SOL    HW268184   0.975   0.518  14.800
88763SOL     OW68185  11.199   6.881  12.268
88763SOL    HW168186  11.252   6.893  12.189
88763SOL    HW268187  11.122   6.833  12.237
88764SOL     OW68188  10.162   7.399   0.296
88764SOL    HW168189  10.204   7.347   0.227
88764SOL    HW268190  10.223   7.472   0.311
88765SOL     OW68191   6.663   6.008   8.880
88765SOL    HW168192   6.738   5.952   8.902
88765SOL    HW268193   6.697   6.097   8.886
88766SOL     OW68194  14.463  10.850   0.826
88766SOL    HW168195  14.441  10.766   0.785
88766SOL    HW268196  14.554  10.839   0.855
88767SOL     OW68197   5.575  11.780   0.853
88767SOL    HW168198   5.544  11.746   0.769
88767SOL    HW268199   5.515  11.742   0.918
88768SOL     OW68200   5.631   0.044  13.179
88768SOL    HW168201   5.666   0.112  13.121
88768SOL    HW268202   5.550   0.016  13.137
88769SOL     OW68203   1.511   4.841  11.765
88769SOL    HW168204   1.569   4.915  11.776
88769SOL    HW268205   1.443   4.872  11.705
88770SOL     OW68206  13.220  13.831   0.330
88770SOL    HW168207  13.210  13.796   0.418
88770SOL    HW268208  13.130  13.844   0.299
88771SOL     OW68209   4.630   2.343   1.559
88771SOL    HW168210   4.632   2.436   1.538
88771SOL    HW268211   4.580   2.338   1.641
88772SOL     OW68212   6.378  10.348   9.345
88772SOL    HW168213   6.369  10.327   9.438
88772SOL    HW268214   6.458  10.302   9.318
88773SOL     OW68215   0.019   3.458   4.599
88773SOL    HW168216   0.063   3.427   4.678
88773SOL    HW268217  14.856   3.539   4.626
88774SOL     OW68218   1.986  10.138   8.896
88774SOL    HW168219   2.076  10.125   8.864
88774SOL    HW268220   1.931  10.129   8.818
88775SOL     OW68221   7.771  10.951   5.886
88775SOL    HW168222   7.810  11.020   5.833
88775SOL    HW268223   7.752  10.881   5.824
88776SOL     OW68224   7.306  13.013  13.379
88776SOL    HW168225   7.232  13.035  13.436
88776SOL    HW268226   7.306  12.917  13.378
88777SOL     OW68227   3.765   5.421   0.814
88777SOL    HW168228   3.804   5.384   0.735
88777SOL    HW268229   3.821   5.495   0.835
88778SOL     OW68230  14.793   8.966   6.470
88778SOL    HW168231  14.759   9.034   6.529
88778SOL    HW268232  14.783   8.884   6.520
88779SOL     OW68233  14.769   0.590   9.305
88779SOL    HW168234  14.854   0.550   9.289
88779SOL    HW268235  14.764   0.600   9.400
88780SOL     OW68236   7.500  11.543   2.911
88780SOL    HW168237   7.562  11.476   2.938
88780SOL    HW268238   7.554  11.618   2.886
88781SOL     OW68239   1.651   6.799   5.415
88781SOL    HW168240   1.710   6.864   5.455
88781SOL    HW268241   1.691   6.715   5.436
88782SOL     OW68242  13.135   1.821  12.078
88782SOL    HW168243  13.104   1.896  12.128
88782SOL    HW268244  13.223   1.803  12.112
88783SOL     OW68245  12.319  11.704   6.779
88783SOL    HW168246  12.349  11.720   6.689
88783SOL    HW268247  12.363  11.623   6.805
88784SOL     OW68248  13.272  10.725   1.635
88784SOL    HW168249  13.344  10.684   1.684
88784SOL    HW268250  13.299  10.719   1.543
88785SOL     OW68251  11.904   6.996  11.186
88785SOL    HW168252  11.865   6.946  11.259
88785SOL    HW268253  11.923   6.929  11.120
88786SOL     OW68254  11.441  12.949   8.096
88786SOL    HW168255  11.418  13.030   8.141
88786SOL    HW268256  11.519  12.970   8.045
88787SOL     OW68257   3.662   9.864   6.589
88787SOL    HW168258   3.741   9.832   6.547
88787SOL    HW268259   3.648   9.951   6.552
88788SOL     OW68260   7.862   2.112   9.330
88788SOL    HW168261   7.819   2.185   9.286
88788SOL    HW268262   7.808   2.036   9.308
88789SOL     OW68263   2.057   7.750   2.923
88789SOL    HW168264   2.077   7.671   2.974
88789SOL    HW268265   2.143   7.786   2.901
88790SOL     OW68266   6.558   7.364   9.019
88790SOL    HW168267   6.584   7.311   8.944
88790SOL    HW268268   6.625   7.347   9.085
88791SOL     OW68269   2.661   5.119   9.584
88791SOL    HW168270   2.711   5.154   9.509
88791SOL    HW268271   2.672   5.185   9.653
88792SOL     OW68272  14.292   3.025   4.591
88792SOL    HW168273  14.275   3.115   4.619
88792SOL    HW268274  14.246   3.017   4.508
88793SOL     OW68275   2.283  13.054  10.846
88793SOL    HW168276   2.222  13.126  10.860
88793SOL    HW268277   2.347  13.062  10.917
88794SOL     OW68278  14.441  11.983   7.024
88794SOL    HW168279  14.400  12.005   7.107
88794SOL    HW268280  14.422  12.059   6.968
88795SOL     OW68281   5.615   9.269  13.351
88795SOL    HW168282   5.555   9.270  13.277
88795SOL    HW268283   5.654   9.356  13.352
88796SOL     OW68284  14.362   6.116   9.635
88796SOL    HW168285  14.307   6.117   9.557
88796SOL    HW268286  14.363   6.025   9.663
88797SOL     OW68287   9.189   6.679   2.694
88797SOL    HW168288   9.158   6.680   2.604
88797SOL    HW268289   9.109   6.685   2.747
88798SOL     OW68290   8.430  14.508   9.771
88798SOL    HW168291   8.413  14.472   9.684
88798SOL    HW268292   8.388  14.593   9.771
88799SOL     OW68293   0.897  14.743   4.671
88799SOL    HW168294   0.864  14.825   4.709
88799SOL    HW268295   0.899  14.682   4.744
88800SOL     OW68296   8.470   1.677  12.733
88800SOL    HW168297   8.392   1.728  12.710
88800SOL    HW268298   8.528   1.739  12.776
88801SOL     OW68299  12.076   9.951   1.816
88801SOL    HW168300  12.092  10.035   1.773
88801SOL    HW268301  12.132   9.953   1.893
88802SOL     OW68302   0.412   3.941   5.794
88802SOL    HW168303   0.440   4.012   5.737
88802SOL    HW268304   0.321   3.925   5.771
88803SOL     OW68305  12.260  12.213   3.401
88803SOL    HW168306  12.229  12.200   3.490
88803SOL    HW268307  12.180  12.230   3.350
88804SOL     OW68308   5.691   7.720   0.491
88804SOL    HW168309   5.765   7.681   0.444
88804SOL    HW268310   5.730   7.753   0.573
88805SOL     OW68311   6.424   2.683   9.590
88805SOL    HW168312   6.336   2.710   9.562
88805SOL    HW268313   6.409   2.606   9.644
88806SOL     OW68314   6.435   9.835   0.834
88806SOL    HW168315   6.382   9.757   0.852
88806SOL    HW268316   6.428   9.887   0.915
88807SOL     OW68317   6.519   0.071   3.479
88807SOL    HW168318   6.426   0.054   3.492
88807SOL    HW268319   6.522   0.129   3.402
88808SOL     OW68320   5.725   6.355   4.105
88808SOL    HW168321   5.697   6.313   4.023
88808SOL    HW268322   5.694   6.445   4.098
88809SOL     OW68323   3.535  10.902   7.241
88809SOL    HW168324   3.442  10.892   7.222
88809SOL    HW268325   3.580  10.855   7.171
88810SOL     OW68326   1.588   9.225   4.518
88810SOL    HW168327   1.512   9.189   4.471
88810SOL    HW268328   1.577   9.193   4.608
88811SOL     OW68329   1.424   2.175   1.463
88811SOL    HW168330   1.408   2.117   1.389
88811SOL    HW268331   1.419   2.117   1.540
88812SOL     OW68332   2.995   9.794   0.940
88812SOL    HW168333   3.080   9.753   0.955
88812SOL    HW268334   2.937   9.721   0.919
88813SOL     OW68335  11.870   8.743   9.640
88813SOL    HW168336  11.781   8.749   9.676
88813SOL    HW268337  11.927   8.739   9.716
88814SOL     OW68338  11.930   5.898   0.662
88814SOL    HW168339  11.933   5.887   0.757
88814SOL    HW268340  12.022   5.907   0.636
88815SOL     OW68341   7.332   7.763   3.249
88815SOL    HW168342   7.244   7.726   3.257
88815SOL    HW268343   7.389   7.697   3.287
88816SOL     OW68344   1.756   7.024   6.563
88816SOL    HW168345   1.835   7.011   6.615
88816SOL    HW268346   1.696   6.956   6.592
88817SOL     OW68347  13.765   8.472  11.243
88817SOL    HW168348  13.781   8.427  11.325
88817SOL    HW268349  13.681   8.515  11.255
88818SOL     OW68350  12.988  11.259   9.491
88818SOL    HW168351  13.044  11.299   9.424
88818SOL    HW268352  12.954  11.180   9.450
88819SOL     OW68353   4.071   4.238   0.747
88819SOL    HW168354   4.130   4.274   0.813
88819SOL    HW268355   4.110   4.266   0.663
88820SOL     OW68356   1.012   2.637  14.382
88820SOL    HW168357   1.038   2.604  14.468
88820SOL    HW268358   1.067   2.588  14.321
88821SOL     OW68359   6.901   3.190   0.225
88821SOL    HW168360   6.948   3.233   0.154
88821SOL    HW268361   6.907   3.097   0.205
88822SOL     OW68362   5.416   0.469  10.395
88822SOL    HW168363   5.381   0.532  10.333
88822SOL    HW268364   5.480   0.418  10.345
88823SOL     OW68365   4.261   1.702   2.944
88823SOL    HW168366   4.304   1.787   2.947
88823SOL    HW268367   4.328   1.642   2.912
88824SOL     OW68368  10.096  13.024   2.523
88824SOL    HW168369  10.187  13.018   2.495
88824SOL    HW268370  10.047  13.038   2.442
88825SOL     OW68371  11.491  12.688   6.900
88825SOL    HW168372  11.408  12.671   6.857
88825SOL    HW268373  11.470  12.745   6.974
88826SOL     OW68374   1.631   5.768   8.894
88826SOL    HW168375   1.690   5.841   8.871
88826SOL    HW268376   1.572   5.805   8.960
88827SOL     OW68377   4.538   8.675   0.345
88827SOL    HW168378   4.476   8.625   0.292
88827SOL    HW268379   4.574   8.740   0.284
88828SOL     OW68380   2.623  12.012   3.560
88828SOL    HW168381   2.600  11.919   3.561
88828SOL    HW268382   2.691  12.020   3.627
88829SOL     OW68383   7.891  14.158  14.230
88829SOL    HW168384   7.954  14.090  14.208
88829SOL    HW268385   7.877  14.206  14.148
88830SOL     OW68386   3.757  10.579  10.464
88830SOL    HW168387   3.744  10.597  10.370
88830SOL    HW268388   3.843  10.537  10.468
88831SOL     OW68389  13.596  14.460   4.638
88831SOL    HW168390  13.629  14.540   4.598
88831SOL    HW268391  13.674  14.409   4.660
88832SOL     OW68392   4.856   9.381   5.739
88832SOL    HW168393   4.858   9.289   5.762
88832SOL    HW268394   4.788   9.388   5.672
88833SOL     OW68395   4.461  11.145   6.562
88833SOL    HW168396   4.493  11.167   6.650
88833SOL    HW268397   4.502  11.209   6.505
88834SOL     OW68398  11.502  14.201   5.611
88834SOL    HW168399  11.465  14.265   5.550
88834SOL    HW268400  11.581  14.169   5.568
88835SOL     OW68401   1.813   6.589   6.609
88835SOL    HW168402   1.747   6.647   6.570
88835SOL    HW268403   1.866   6.648   6.663
88836SOL     OW68404   9.677   1.662   0.940
88836SOL    HW168405   9.685   1.744   0.891
88836SOL    HW268406   9.665   1.690   1.031
88837SOL     OW68407   4.998   3.588   5.264
88837SOL    HW168408   5.073   3.628   5.219
88837SOL    HW268409   4.951   3.662   5.301
88838SOL     OW68410   1.082   6.841   9.995
88838SOL    HW168411   1.104   6.822   9.904
88838SOL    HW268412   1.069   6.755  10.035
88839SOL     OW68413   1.971   7.540   6.379
88839SOL    HW168414   1.930   7.589   6.450
88839SOL    HW268415   1.940   7.450   6.391
88840SOL     OW68416  13.284  14.243   2.906
88840SOL    HW168417  13.260  14.249   2.999
88840SOL    HW268418  13.347  14.171   2.902
88841SOL     OW68419  10.168   6.062   4.792
88841SOL    HW168420  10.126   6.052   4.706
88841SOL    HW268421  10.095   6.081   4.852
88842SOL     OW68422   3.909   3.013   5.665
88842SOL    HW168423   3.820   3.022   5.698
88842SOL    HW268424   3.915   3.076   5.593
88843SOL     OW68425   1.091  13.121   1.505
88843SOL    HW168426   1.010  13.172   1.505
88843SOL    HW268427   1.137  13.150   1.583
88844SOL     OW68428   2.988  10.406  11.421
88844SOL    HW168429   3.025  10.320  11.404
88844SOL    HW268430   2.900  10.388  11.454
88845SOL     OW68431   2.196   5.152   7.149
88845SOL    HW168432   2.179   5.163   7.243
88845SOL    HW268433   2.113   5.121   7.113
88846SOL     OW68434  12.261  11.366   6.186
88846SOL    HW168435  12.222  11.345   6.101
88846SOL    HW268436  12.336  11.421   6.165
88847SOL     OW68437   8.678   6.981   6.109
88847SOL    HW168438   8.653   7.063   6.068
88847SOL    HW268439   8.772   6.989   6.123
88848SOL     OW68440   1.561   7.504  10.744
88848SOL    HW168441   1.481   7.547  10.714
88848SOL    HW268442   1.625   7.518  10.674
88849SOL     OW68443   0.252   9.446   6.190
88849SOL    HW168444   0.172   9.394   6.178
88849SOL    HW268445   0.222   9.530   6.222
88850SOL     OW68446   5.781   4.816   4.670
88850SOL    HW168447   5.838   4.893   4.671
88850SOL    HW268448   5.790   4.778   4.758
88851SOL     OW68449  10.358  13.767  10.186
88851SOL    HW168450  10.392  13.691  10.232
88851SOL    HW268451  10.369  13.746  10.094
88852SOL     OW68452   1.621  13.388   7.718
88852SOL    HW168453   1.607  13.434   7.800
88852SOL    HW268454   1.606  13.296   7.739
88853SOL     OW68455   2.553   3.066   5.650
88853SOL    HW168456   2.495   3.092   5.721
88853SOL    HW268457   2.519   2.981   5.621
88854SOL     OW68458  12.475  12.064   5.983
88854SOL    HW168459  12.471  12.159   5.977
88854SOL    HW268460  12.568  12.043   5.975
88855SOL     OW68461   4.874   3.824   2.348
88855SOL    HW168462   4.927   3.878   2.289
88855SOL    HW268463   4.926   3.820   2.429
88856SOL     OW68464   1.939   1.065   8.611
88856SOL    HW168465   2.033   1.080   8.600
88856SOL    HW268466   1.917   1.000   8.544
88857SOL     OW68467   4.756   3.672  14.106
88857SOL    HW168468   4.712   3.598  14.149
88857SOL    HW268469   4.734   3.748  14.160
88858SOL     OW68470   0.276   0.153  13.938
88858SOL    HW168471   0.207   0.206  13.899
88858SOL    HW268472   0.245   0.135  14.027
88859SOL     OW68473  13.263   5.135   8.214
88859SOL    HW168474  13.305   5.050   8.195
88859SOL    HW268475  13.192   5.141   8.151
88860SOL     OW68476   7.063   5.317   3.917
88860SOL    HW168477   7.120   5.383   3.958
88860SOL    HW268478   7.006   5.288   3.988
88861SOL     OW68479  12.816   7.137   7.683
88861SOL    HW168480  12.798   7.062   7.740
88861SOL    HW268481  12.862   7.199   7.740
88862SOL     OW68482  13.982   1.615   4.237
88862SOL    HW168483  14.021   1.690   4.193
88862SOL    HW268484  13.912   1.652   4.290
88863SOL     OW68485  11.103   4.919   1.341
88863SOL    HW168486  11.191   4.904   1.375
88863SOL    HW268487  11.117   4.968   1.259
88864SOL     OW68488   3.242   3.404   3.053
88864SOL    HW168489   3.196   3.357   2.983
88864SOL    HW268490   3.229   3.350   3.131
88865SOL     OW68491  11.645  10.339  11.207
88865SOL    HW168492  11.730  10.298  11.219
88865SOL    HW268493  11.601  10.327  11.292
88866SOL     OW68494   9.507  14.810   8.054
88866SOL    HW168495   9.594  14.801   8.015
88866SOL    HW268496   9.477  14.719   8.066
88867SOL     OW68497   1.500   7.322   0.708
88867SOL    HW168498   1.438   7.364   0.648
88867SOL    HW268499   1.534   7.394   0.762
88868SOL     OW68500   7.111   5.124   4.291
88868SOL    HW168501   7.197   5.161   4.310
88868SOL    HW268502   7.112   5.037   4.332
88869SOL     OW68503   4.222   5.222   3.763
88869SOL    HW168504   4.179   5.143   3.795
88869SOL    HW268505   4.168   5.251   3.690
88870SOL     OW68506  11.222   0.787  13.803
88870SOL    HW168507  11.133   0.768  13.831
88870SOL    HW268508  11.273   0.711  13.830
88871SOL     OW68509   3.433   0.490   4.274
88871SOL    HW168510   3.348   0.516   4.237
88871SOL    HW268511   3.428   0.394   4.279
88872SOL     OW68512  14.760  12.845   7.564
88872SOL    HW168513  14.712  12.873   7.486
88872SOL    HW268514  14.829  12.789   7.532
88873SOL     OW68515   7.453  10.538   3.508
88873SOL    HW168516   7.544  10.521   3.483
88873SOL    HW268517   7.406  10.459   3.482
88874SOL     OW68518  12.716  10.006   8.634
88874SOL    HW168519  12.776   9.935   8.611
88874SOL    HW268520  12.769  10.085   8.627
88875SOL     OW68521   2.740   7.007   4.737
88875SOL    HW168522   2.701   6.934   4.687
88875SOL    HW268523   2.831   6.982   4.748
88876SOL     OW68524   3.299  13.265   7.749
88876SOL    HW168525   3.298  13.328   7.822
88876SOL    HW268526   3.221  13.286   7.698
88877SOL     OW68527   1.222   8.709  14.677
88877SOL    HW168528   1.215   8.715  14.582
88877SOL    HW268529   1.229   8.800  14.706
88878SOL     OW68530  10.877   3.778  13.753
88878SOL    HW168531  10.787   3.784  13.785
88878SOL    HW268532  10.930   3.804  13.828
88879SOL     OW68533   1.803   5.718   3.858
88879SOL    HW168534   1.852   5.792   3.894
88879SOL    HW268535   1.728   5.758   3.814
88880SOL     OW68536  10.990   5.622   9.297
88880SOL    HW168537  10.987   5.703   9.347
88880SOL    HW268538  11.028   5.647   9.213
88881SOL     OW68539   1.789   4.745   9.160
88881SOL    HW168540   1.826   4.778   9.243
88881SOL    HW268541   1.699   4.721   9.182
88882SOL     OW68542  11.232  11.887  11.797
88882SOL    HW168543  11.172  11.828  11.750
88882SOL    HW268544  11.318  11.845  11.788
88883SOL     OW68545   1.693  13.739  11.428
88883SOL    HW168546   1.775  13.691  11.420
88883SOL    HW268547   1.645  13.692  11.497
88884SOL     OW68548  12.997   3.923   1.339
88884SOL    HW168549  12.918   3.874   1.320
88884SOL    HW268550  12.995   3.936   1.434
88885SOL     OW68551   5.879   9.041   7.295
88885SOL    HW168552   5.838   9.111   7.244
88885SOL    HW268553   5.962   9.024   7.251
88886SOL     OW68554  14.143  11.954  11.892
88886SOL    HW168555  14.201  11.880  11.878
88886SOL    HW268556  14.175  11.995  11.973
88887SOL     OW68557   7.623  12.767  13.030
88887SOL    HW168558   7.667  12.709  12.968
88887SOL    HW268559   7.541  12.791  12.987
88888SOL     OW68560  11.733   1.126  10.415
88888SOL    HW168561  11.720   1.220  10.427
88888SOL    HW268562  11.821   1.109  10.447
88889SOL     OW68563  14.831  12.581   3.110
88889SOL    HW168564  14.736  12.589   3.114
88889SOL    HW268565  14.864  12.661   3.149
88890SOL     OW68566  10.454   9.284   4.551
88890SOL    HW168567  10.394   9.352   4.582
88890SOL    HW268568  10.446   9.214   4.616
88891SOL     OW68569   0.103   0.902   4.217
88891SOL    HW168570   0.033   0.905   4.151
88891SOL    HW268571   0.146   0.987   4.210
88892SOL     OW68572   9.487  11.259  11.948
88892SOL    HW168573   9.401  11.233  11.979
88892SOL    HW268574   9.548  11.199  11.990
88893SOL     OW68575   8.349   3.952  13.348
88893SOL    HW168576   8.362   3.929  13.439
88893SOL    HW268577   8.262   3.919  13.326
88894SOL     OW68578  13.344   8.749  11.792
88894SOL    HW168579  13.362   8.834  11.751
88894SOL    HW268580  13.249   8.740  11.788
88895SOL     OW68581  13.233   0.789   5.745
88895SOL    HW168582  13.292   0.717   5.771
88895SOL    HW268583  13.199   0.822   5.828
88896SOL     OW68584   6.491   2.823   3.218
88896SOL    HW168585   6.411   2.782   3.185
88896SOL    HW268586   6.560   2.788   3.162
88897SOL     OW68587  10.919   9.379   4.478
88897SOL    HW168588  10.883   9.353   4.393
88897SOL    HW268589  10.845   9.374   4.538
88898SOL     OW68590   1.280   8.702   4.268
88898SOL    HW168591   1.361   8.740   4.234
88898SOL    HW268592   1.289   8.608   4.254
88899SOL     OW68593   8.268  11.731  13.516
88899SOL    HW168594   8.191  11.676  13.531
88899SOL    HW268595   8.334  11.672  13.480
88900SOL     OW68596   1.181   1.593   4.286
88900SOL    HW168597   1.135   1.535   4.347
88900SOL    HW268598   1.114   1.621   4.224
88901SOL     OW68599   8.769  12.494   8.812
88901SOL    HW168600   8.833  12.554   8.774
88901SOL    HW268601   8.691  12.505   8.758
88902SOL     OW68602   1.874   8.683  11.494
88902SOL    HW168603   1.940   8.688  11.563
88902SOL    HW268604   1.896   8.604  11.445
88903SOL     OW68605  14.680   2.548   8.731
88903SOL    HW168606  14.632   2.600   8.796
88903SOL    HW268607  14.676   2.459   8.765
88904SOL     OW68608   8.181   0.915   6.424
88904SOL    HW168609   8.109   0.922   6.486
88904SOL    HW268610   8.170   0.828   6.384
88905SOL     OW68611   4.662   4.599  12.628
88905SOL    HW168612   4.733   4.564  12.682
88905SOL    HW268613   4.606   4.647  12.690
88906SOL     OW68614   8.472  10.926   7.766
88906SOL    HW168615   8.504  10.873   7.839
88906SOL    HW268616   8.539  10.917   7.698
88907SOL     OW68617   6.255   8.178   1.090
88907SOL    HW168618   6.240   8.086   1.116
88907SOL    HW268619   6.295   8.218   1.167
88908SOL     OW68620   0.405  14.260  14.703
88908SOL    HW168621   0.423  14.319  14.629
88908SOL    HW268622   0.429  14.173  14.671
88909SOL     OW68623   1.727   6.780   1.670
88909SOL    HW168624   1.665   6.810   1.737
88909SOL    HW268625   1.730   6.685   1.682
88910SOL     OW68626   3.426  10.976   5.155
88910SOL    HW168627   3.422  10.919   5.078
88910SOL    HW268628   3.493  10.936   5.211
88911SOL     OW68629  12.576   8.693   5.773
88911SOL    HW168630  12.551   8.652   5.855
88911SOL    HW268631  12.494   8.700   5.723
88912SOL     OW68632   8.609   6.657   7.297
88912SOL    HW168633   8.642   6.667   7.208
88912SOL    HW268634   8.519   6.625   7.285
88913SOL     OW68635   3.347   1.881   9.823
88913SOL    HW168636   3.328   1.973   9.843
88913SOL    HW268637   3.431   1.864   9.864
88914SOL     OW68638   5.479  14.662   2.422
88914SOL    HW168639   5.454  14.754   2.416
88914SOL    HW268640   5.486  14.633   2.331
88915SOL     OW68641   3.313  11.702  11.452
88915SOL    HW168642   3.386  11.711  11.514
88915SOL    HW268643   3.261  11.629  11.486
88916SOL     OW68644  14.012  14.584   3.271
88916SOL    HW168645  13.923  14.552   3.257
88916SOL    HW268646  14.059  14.562   3.191
88917SOL     OW68647   9.130   8.977  14.389
88917SOL    HW168648   9.223   8.978  14.368
88917SOL    HW268649   9.092   8.918  14.323
88918SOL     OW68650   1.130   3.498   3.569
88918SOL    HW168651   1.075   3.443   3.626
88918SOL    HW268652   1.190   3.542   3.629
88919SOL     OW68653  12.810  12.511  11.837
88919SOL    HW168654  12.747  12.507  11.764
88919SOL    HW268655  12.758  12.486  11.914
88920SOL     OW68656   0.460  14.051  11.918
88920SOL    HW168657   0.419  14.120  11.970
88920SOL    HW268658   0.554  14.070  11.923
88921SOL     OW68659  14.661   4.469   3.730
88921SOL    HW168660  14.624   4.387   3.765
88921SOL    HW268661  14.718   4.441   3.659
88922SOL     OW68662   5.165   5.504   3.038
88922SOL    HW168663   5.212   5.505   3.121
88922SOL    HW268664   5.161   5.412   3.014
88923SOL     OW68665  11.520   8.896  10.575
88923SOL    HW168666  11.571   8.816  10.587
88923SOL    HW268667  11.501   8.926  10.664
88924SOL     OW68668  11.060   1.722   9.174
88924SOL    HW168669  10.992   1.763   9.120
88924SOL    HW268670  11.116   1.795   9.201
88925SOL     OW68671  10.908   3.092  14.206
88925SOL    HW168672  10.872   3.025  14.264
88925SOL    HW268673  10.864   3.077  14.122
88926SOL     OW68674   4.955   8.891   6.059
88926SOL    HW168675   4.860   8.895   6.054
88926SOL    HW268676   4.973   8.815   6.115
88927SOL     OW68677  13.620  14.014   7.404
88927SOL    HW168678  13.648  13.962   7.480
88927SOL    HW268679  13.581  14.092   7.443
88928SOL     OW68680  11.737   0.446  12.305
88928SOL    HW168681  11.778   0.408  12.383
88928SOL    HW268682  11.709   0.371  12.254
88929SOL     OW68683  11.397  13.600   8.187
88929SOL    HW168684  11.392  13.512   8.225
88929SOL    HW268685  11.331  13.650   8.235
88930SOL     OW68686  11.282   6.951   4.573
88930SOL    HW168687  11.293   6.880   4.510
88930SOL    HW268688  11.217   7.009   4.534
88931SOL     OW68689   1.795   4.203   0.142
88931SOL    HW168690   1.875   4.231   0.096
88931SOL    HW268691   1.794   4.256   0.222
88932SOL     OW68692  14.074  13.166   9.857
88932SOL    HW168693  14.028  13.249   9.844
88932SOL    HW268694  14.033  13.128   9.935
88933SOL     OW68695  12.606   6.166   1.993
88933SOL    HW168696  12.659   6.198   1.920
88933SOL    HW268697  12.570   6.083   1.961
88934SOL     OW68698  10.700   7.242   0.843
88934SOL    HW168699  10.658   7.189   0.775
88934SOL    HW268700  10.780   7.194   0.865
88935SOL     OW68701   6.043   3.111   0.539
88935SOL    HW168702   6.006   3.049   0.476
88935SOL    HW268703   5.975   3.178   0.549
88936SOL     OW68704   0.973   8.655   9.774
88936SOL    HW168705   0.932   8.741   9.761
88936SOL    HW268706   0.930   8.619   9.852
88937SOL     OW68707   2.039   9.295   4.992
88937SOL    HW168708   2.049   9.200   4.982
88937SOL    HW268709   1.999   9.306   5.078
88938SOL     OW68710   8.253   5.378   6.051
88938SOL    HW168711   8.186   5.434   6.091
88938SOL    HW268712   8.204   5.307   6.010
88939SOL     OW68713   9.478  13.737   4.137
88939SOL    HW168714   9.468  13.660   4.192
88939SOL    HW268715   9.474  13.703   4.047
88940SOL     OW68716   3.146   2.130   6.387
88940SOL    HW168717   3.199   2.189   6.334
88940SOL    HW268718   3.210   2.075   6.433
88941SOL     OW68719   1.875   8.013  12.454
88941SOL    HW168720   1.881   8.107  12.439
88941SOL    HW268721   1.853   7.976  12.369
88942SOL     OW68722   2.187  11.230   4.965
88942SOL    HW168723   2.253  11.297   4.984
88942SOL    HW268724   2.193  11.168   5.038
88943SOL     OW68725   9.342   0.326   1.711
88943SOL    HW168726   9.372   0.358   1.626
88943SOL    HW268727   9.422   0.316   1.762
88944SOL     OW68728   9.963   1.151  12.575
88944SOL    HW168729  10.044   1.170  12.623
88944SOL    HW268730   9.934   1.067  12.610
88945SOL     OW68731   6.292   0.632   2.320
88945SOL    HW168732   6.313   0.725   2.323
88945SOL    HW268733   6.372   0.590   2.288
88946SOL     OW68734   8.062  12.923   5.830
88946SOL    HW168735   7.994  12.989   5.842
88946SOL    HW268736   8.107  12.949   5.750
88947SOL     OW68737  12.897  10.192  13.857
88947SOL    HW168738  12.902  10.273  13.909
88947SOL    HW268739  12.978  10.145  13.880
88948SOL     OW68740   2.696   3.428   0.877
88948SOL    HW168741   2.780   3.469   0.859
88948SOL    HW268742   2.718   3.346   0.921
88949SOL     OW68743  13.027  10.858  12.283
88949SOL    HW168744  13.052  10.839  12.373
88949SOL    HW268745  13.020  10.954  12.281
88950SOL     OW68746   6.107   8.184   4.325
88950SOL    HW168747   6.158   8.111   4.361
88950SOL    HW268748   6.127   8.183   4.231
88951SOL     OW68749  12.653  13.289  13.394
88951SOL    HW168750  12.651  13.322  13.304
88951SOL    HW268751  12.567  13.311  13.429
88952SOL     OW68752   3.813  11.521   7.084
88952SOL    HW168753   3.780  11.438   7.119
88952SOL    HW268754   3.906  11.505   7.068
88953SOL     OW68755   2.923   3.467  10.928
88953SOL    HW168756   2.836   3.452  10.892
88953SOL    HW268757   2.912   3.460  11.023
88954SOL     OW68758   3.900   3.746   3.537
88954SOL    HW168759   3.896   3.701   3.453
88954SOL    HW268760   3.978   3.709   3.580
88955SOL     OW68761   3.198  14.410  14.869
88955SOL    HW168762   3.208  14.452  14.784
88955SOL    HW268763   3.177  14.481   0.049
88956SOL     OW68764   7.431   2.891   0.585
88956SOL    HW168765   7.516   2.892   0.541
88956SOL    HW268766   7.442   2.952   0.658
88957SOL     OW68767   7.822   9.503   8.126
88957SOL    HW168768   7.866   9.464   8.051
88957SOL    HW268769   7.891   9.549   8.173
88958SOL     OW68770  13.949  10.006   8.284
88958SOL    HW168771  14.023   9.993   8.344
88958SOL    HW268772  13.986  10.054   8.210
88959SOL     OW68773   3.193   2.921   5.658
88959SOL    HW168774   3.146   2.954   5.581
88959SOL    HW268775   3.145   2.842   5.683
88960SOL     OW68776   7.658   6.630  13.636
88960SOL    HW168777   7.715   6.555  13.650
88960SOL    HW268778   7.616   6.613  13.552
88961SOL     OW68779  13.953  13.668   1.827
88961SOL    HW168780  13.938  13.586   1.780
88961SOL    HW268781  13.993  13.725   1.761
88962SOL     OW68782  11.425  12.570  11.734
88962SOL    HW168783  11.427  12.567  11.638
88962SOL    HW268784  11.512  12.599  11.760
88963SOL     OW68785   4.370   5.386  11.228
88963SOL    HW168786   4.385   5.480  11.226
88963SOL    HW268787   4.447   5.350  11.272
88964SOL     OW68788   7.535  12.446  12.626
88964SOL    HW168789   7.592  12.518  12.601
88964SOL    HW268790   7.518  12.461  12.719
88965SOL     OW68791   4.979   6.860   7.311
88965SOL    HW168792   4.922   6.854   7.388
88965SOL    HW268793   4.976   6.772   7.272
88966SOL     OW68794  10.610  11.991   7.977
88966SOL    HW168795  10.641  12.032   8.058
88966SOL    HW268796  10.611  11.897   7.996
88967SOL     OW68797   0.852   5.527   7.724
88967SOL    HW168798   0.833   5.621   7.732
88967SOL    HW268799   0.896   5.505   7.806
88968SOL     OW68800   4.303  13.902  13.196
88968SOL    HW168801   4.220  13.925  13.237
88968SOL    HW268802   4.285  13.903  13.102
88969SOL     OW68803   1.048   1.369  12.297
88969SOL    HW168804   1.008   1.373  12.210
88969SOL    HW268805   1.004   1.438  12.346
88970SOL     OW68806   5.652  12.220  10.868
88970SOL    HW168807   5.564  12.215  10.830
88970SOL    HW268808   5.709  12.239  10.794
88971SOL     OW68809  14.408   4.827   0.542
88971SOL    HW168810  14.467   4.837   0.617
88971SOL    HW268811  14.458   4.858   0.467
88972SOL     OW68812   5.773   8.100   7.562
88972SOL    HW168813   5.724   8.098   7.480
88972SOL    HW268814   5.712   8.067   7.628
88973SOL     OW68815   3.064   7.241  12.599
88973SOL    HW168816   3.012   7.305  12.551
88973SOL    HW268817   3.147   7.284  12.616
88974SOL     OW68818   8.996   6.295  12.175
88974SOL    HW168819   8.939   6.351  12.228
88974SOL    HW268820   9.031   6.354  12.108
88975SOL     OW68821   6.375   3.049   0.715
88975SOL    HW168822   6.346   3.128   0.760
88975SOL    HW268823   6.440   3.010   0.774
88976SOL     OW68824   9.514   9.572  12.053
88976SOL    HW168825   9.546   9.622  12.128
88976SOL    HW268826   9.419   9.570  12.064
88977SOL     OW68827  11.862   6.602  13.757
88977SOL    HW168828  11.826   6.613  13.845
88977SOL    HW268829  11.787   6.574  13.704
88978SOL     OW68830   8.531   2.284   6.745
88978SOL    HW168831   8.548   2.220   6.676
88978SOL    HW268832   8.584   2.254   6.819
88979SOL     OW68833   6.429  11.711   0.250
88979SOL    HW168834   6.370  11.752   0.315
88979SOL    HW268835   6.471  11.640   0.298
88980SOL     OW68836   8.201   4.336   0.864
88980SOL    HW168837   8.113   4.372   0.854
88980SOL    HW268838   8.238   4.385   0.937
88981SOL     OW68839   6.705   2.090  14.235
88981SOL    HW168840   6.708   2.182  14.211
88981SOL    HW268841   6.746   2.086  14.321
88982SOL     OW68842   2.761  12.315  13.272
88982SOL    HW168843   2.694  12.369  13.230
88982SOL    HW268844   2.811  12.279  13.198
88983SOL     OW68845   5.027   6.017   5.248
88983SOL    HW168846   5.074   6.086   5.295
88983SOL    HW268847   4.979   5.970   5.316
88984SOL     OW68848   6.461  14.025   8.911
88984SOL    HW168849   6.474  13.933   8.934
88984SOL    HW268850   6.472  14.028   8.816
88985SOL     OW68851   9.208  11.205  10.684
88985SOL    HW168852   9.117  11.223  10.707
88985SOL    HW268853   9.203  11.142  10.613
88986SOL     OW68854  13.895   9.698  14.510
88986SOL    HW168855  13.902   9.679  14.604
88986SOL    HW268856  13.964   9.761  14.493
88987SOL     OW68857   5.148   8.025   4.196
88987SOL    HW168858   5.136   7.973   4.117
88987SOL    HW268859   5.228   7.990   4.236
88988SOL     OW68860  10.721  12.273   2.560
88988SOL    HW168861  10.651  12.212   2.583
88988SOL    HW268862  10.683  12.360   2.572
88989SOL     OW68863  10.685   7.073   7.352
88989SOL    HW168864  10.696   6.998   7.410
88989SOL    HW268865  10.598   7.107   7.374
88990SOL     OW68866   9.705   6.379   6.417
88990SOL    HW168867   9.757   6.356   6.495
88990SOL    HW268868   9.733   6.316   6.351
88991SOL     OW68869   1.105   2.739   2.183
88991SOL    HW168870   1.159   2.674   2.228
88991SOL    HW268871   1.049   2.777   2.251
88992SOL     OW68872  14.521   0.619  11.236
88992SOL    HW168873  14.551   0.696  11.187
88992SOL    HW268874  14.572   0.546  11.200
88993SOL     OW68875  10.832   5.842   7.303
88993SOL    HW168876  10.902   5.878   7.357
88993SOL    HW268877  10.802   5.764   7.350
88994SOL     OW68878  14.655   9.687   7.910
88994SOL    HW168879  14.729   9.703   7.968
88994SOL    HW268880  14.588   9.749   7.940
88995SOL     OW68881   5.167   0.370  11.959
88995SOL    HW168882   5.231   0.433  11.994
88995SOL    HW268883   5.101   0.363  12.028
88996SOL     OW68884   8.921  10.030   1.302
88996SOL    HW168885   8.970   9.979   1.366
88996SOL    HW268886   8.988  10.080   1.255
88997SOL     OW68887   8.087   3.074  10.663
88997SOL    HW168888   8.168   3.089  10.712
88997SOL    HW268889   8.116   3.036  10.580
88998SOL     OW68890   7.692  10.732  10.690
88998SOL    HW168891   7.599  10.715  10.671
88998SOL    HW268892   7.740  10.676  10.629
88999SOL     OW68893   2.853   3.354   2.913
88999SOL    HW168894   2.898   3.425   2.866
88999SOL    HW268895   2.819   3.396   2.992
89000SOL     OW68896  10.939   7.787   6.773
89000SOL    HW168897  10.881   7.809   6.700
89000SOL    HW268898  10.925   7.694   6.789
89001SOL     OW68899   0.469  12.064   3.027
89001SOL    HW168900   0.436  12.151   3.052
89001SOL    HW268901   0.510  12.078   2.941
89002SOL     OW68902  13.725   0.348   4.433
89002SOL    HW168903  13.694   0.422   4.379
89002SOL    HW268904  13.667   0.349   4.509
89003SOL     OW68905  12.645   5.462  10.614
89003SOL    HW168906  12.566   5.492  10.660
89003SOL    HW268907  12.684   5.397  10.673
89004SOL     OW68908   5.995  13.561   7.707
89004SOL    HW168909   6.065  13.621   7.734
89004SOL    HW268910   6.011  13.545   7.614
89005SOL     OW68911  13.813  13.569   0.284
89005SOL    HW168912  13.765  13.647   0.257
89005SOL    HW268913  13.858  13.541   0.204
89006SOL     OW68914   6.898  14.026  13.468
89006SOL    HW168915   6.994  14.021  13.473
89006SOL    HW268916   6.878  14.004  13.377
89007SOL     OW68917   0.025   5.148  13.782
89007SOL    HW168918   0.118   5.132  13.763
89007SOL    HW268919   0.022   5.161  13.877
89008SOL     OW68920   7.470  13.497   3.398
89008SOL    HW168921   7.449  13.580   3.441
89008SOL    HW268922   7.565  13.500   3.385
89009SOL     OW68923   0.214   5.622   1.260
89009SOL    HW168924   0.195   5.547   1.204
89009SOL    HW268925   0.301   5.651   1.232
89010SOL     OW68926   5.414  12.626   0.396
89010SOL    HW168927   5.402  12.681   0.474
89010SOL    HW268928   5.441  12.686   0.327
89011SOL     OW68929  11.870  10.757  12.085
89011SOL    HW168930  11.864  10.781  11.993
89011SOL    HW268931  11.907  10.669  12.085
89012SOL     OW68932  13.613   2.232  14.748
89012SOL    HW168933  13.695   2.195  14.783
89012SOL    HW268934  13.574   2.161  14.698
89013SOL     OW68935   8.750  10.897  14.132
89013SOL    HW168936   8.666  10.907  14.176
89013SOL    HW268937   8.786  10.985  14.125
89014SOL     OW68938   3.128  14.402  11.805
89014SOL    HW168939   3.209  14.369  11.844
89014SOL    HW268940   3.157  14.446  11.724
89015SOL     OW68941   6.023   5.027  13.796
89015SOL    HW168942   6.037   5.087  13.870
89015SOL    HW268943   6.010   4.941  13.836
89016SOL     OW68944   1.425   0.127   8.614
89016SOL    HW168945   1.393   0.189   8.549
89016SOL    HW268946   1.430   0.177   8.695
89017SOL     OW68947   4.049   2.528  10.617
89017SOL    HW168948   4.065   2.464  10.687
89017SOL    HW268949   3.976   2.581  10.650
89018SOL     OW68950  11.391   4.936   2.991
89018SOL    HW168951  11.437   5.019   3.001
89018SOL    HW268952  11.355   4.917   3.078
89019SOL     OW68953   5.131  11.307   1.180
89019SOL    HW168954   5.114  11.400   1.198
89019SOL    HW268955   5.221  11.293   1.209
89020SOL     OW68956   7.794  13.461  10.637
89020SOL    HW168957   7.864  13.395  10.642
89020SOL    HW268958   7.808  13.517  10.714
89021SOL     OW68959  10.234  10.012   7.153
89021SOL    HW168960  10.204  10.087   7.206
89021SOL    HW268961  10.271  10.052   7.075
89022SOL     OW68962   4.247   9.309  10.652
89022SOL    HW168963   4.156   9.280  10.644
89022SOL    HW268964   4.268   9.346  10.566
89023SOL     OW68965  14.336  13.523  12.892
89023SOL    HW168966  14.362  13.456  12.955
89023SOL    HW268967  14.256  13.560  12.929
89024SOL     OW68968  12.713  12.990   0.533
89024SOL    HW168969  12.633  13.031   0.565
89024SOL    HW268970  12.761  13.062   0.492
89025SOL     OW68971  10.559  11.801  11.830
89025SOL    HW168972  10.480  11.818  11.880
89025SOL    HW268973  10.528  11.761  11.749
89026SOL     OW68974  10.652   5.479   1.286
89026SOL    HW168975  10.564   5.478   1.323
89026SOL    HW268976  10.649   5.416   1.214
89027SOL     OW68977   0.425   6.690  11.448
89027SOL    HW168978   0.434   6.666  11.356
89027SOL    HW268979   0.345   6.743  11.451
89028SOL     OW68980   7.101   1.407  11.976
89028SOL    HW168981   7.093   1.345  11.903
89028SOL    HW268982   7.049   1.368  12.046
89029SOL     OW68983  10.959   4.414  11.767
89029SOL    HW168984  10.926   4.328  11.742
89029SOL    HW268985  10.901   4.476  11.722
89030SOL     OW68986   9.870  13.458  12.260
89030SOL    HW168987   9.780  13.435  12.282
89030SOL    HW268988   9.862  13.521  12.189
89031SOL     OW68989   6.634  13.407   0.196
89031SOL    HW168990   6.709  13.352   0.173
89031SOL    HW268991   6.600  13.368   0.277
89032SOL     OW68992   8.391  11.217  10.442
89032SOL    HW168993   8.394  11.164  10.521
89032SOL    HW268994   8.396  11.308  10.473
89033SOL     OW68995  14.789  14.695   7.769
89033SOL    HW168996  14.710  14.726   7.724
89033SOL    HW268997  14.757  14.627   7.829
89034SOL     OW68998  10.907  10.522   8.279
89034SOL    HW168999  10.907  10.480   8.193
89034SOL    HW269000  10.988  10.493   8.321
89035SOL     OW69001  12.498  13.639  14.860
89035SOL    HW169002  12.504  13.569   0.044
89035SOL    HW269003  12.550  13.609  14.786
89036SOL     OW69004  11.768  14.701   8.234
89036SOL    HW169005  11.840  14.649   8.271
89036SOL    HW269006  11.694  14.641   8.231
89037SOL     OW69007   8.261   0.900   1.904
89037SOL    HW169008   8.300   0.813   1.889
89037SOL    HW269009   8.272   0.946   1.821
89038SOL     OW69010   5.988   2.008   4.688
89038SOL    HW169011   5.952   1.984   4.774
89038SOL    HW269012   5.915   2.052   4.644
89039SOL     OW69013   4.472   2.655   7.424
89039SOL    HW169014   4.408   2.586   7.406
89039SOL    HW269015   4.554   2.608   7.443
89040SOL     OW69016  14.642   8.900  12.269
89040SOL    HW169017  14.645   8.839  12.343
89040SOL    HW269018  14.593   8.975  12.302
89041SOL     OW69019  14.591  13.304  12.152
89041SOL    HW169020  14.614  13.337  12.065
89041SOL    HW269021  14.674  13.274  12.189
89042SOL     OW69022  12.229  11.427  11.514
89042SOL    HW169023  12.179  11.504  11.542
89042SOL    HW269024  12.249  11.444  11.422
89043SOL     OW69025   5.169  14.327  12.807
89043SOL    HW169026   5.093  14.320  12.865
89043SOL    HW269027   5.190  14.420  12.806
89044SOL     OW69028   1.341   7.119   1.462
89044SOL    HW169029   1.362   7.190   1.402
89044SOL    HW269030   1.377   7.041   1.421
89045SOL     OW69031   3.109   9.080  11.622
89045SOL    HW169032   3.171   9.007  11.613
89045SOL    HW269033   3.060   9.059  11.701
89046SOL     OW69034   3.705  12.322   4.859
89046SOL    HW169035   3.700  12.339   4.953
89046SOL    HW269036   3.627  12.268   4.841
89047SOL     OW69037  12.533   9.685   0.127
89047SOL    HW169038  12.470   9.614   0.116
89047SOL    HW269039  12.530   9.705   0.221
89048SOL     OW69040   9.565   2.326   2.512
89048SOL    HW169041   9.562   2.315   2.607
89048SOL    HW269042   9.620   2.254   2.481
89049SOL     OW69043  14.143  13.990  11.852
89049SOL    HW169044  14.207  14.060  11.861
89049SOL    HW269045  14.193  13.910  11.864
89050SOL     OW69046   8.560   1.967   7.674
89050SOL    HW169047   8.640   1.985   7.624
89050SOL    HW269048   8.565   1.873   7.694
89051SOL     OW69049   1.306  11.714   4.253
89051SOL    HW169050   1.309  11.619   4.252
89051SOL    HW269051   1.333  11.738   4.342
89052SOL     OW69052   4.471   8.805  12.944
89052SOL    HW169053   4.466   8.723  12.895
89052SOL    HW269054   4.559   8.807  12.979
89053SOL     OW69055   6.113  13.962   3.585
89053SOL    HW169056   6.033  13.912   3.565
89053SOL    HW269057   6.083  14.053   3.590
89054SOL     OW69058  14.166   3.576   7.984
89054SOL    HW169059  14.132   3.501   7.936
89054SOL    HW269060  14.225   3.620   7.923
89055SOL     OW69061   5.482  12.243   1.134
89055SOL    HW169062   5.509  12.154   1.111
89055SOL    HW269063   5.466  12.286   1.050
89056SOL     OW69064  12.431   6.700  12.032
89056SOL    HW169065  12.431   6.782  11.983
89056SOL    HW269066  12.342   6.691  12.065
89057SOL     OW69067  10.494  13.163   4.124
89057SOL    HW169068  10.572  13.118   4.092
89057SOL    HW269069  10.478  13.233   4.060
89058SOL     OW69070   2.010   1.137   6.325
89058SOL    HW169071   2.079   1.119   6.261
89058SOL    HW269072   2.016   1.232   6.341
89059SOL     OW69073   8.054   9.708   3.387
89059SOL    HW169074   8.088   9.619   3.396
89059SOL    HW269075   8.054   9.724   3.293
89060SOL     OW69076   6.410   3.415  14.686
89060SOL    HW169077   6.395   3.368  14.604
89060SOL    HW269078   6.492   3.379  14.720
89061SOL     OW69079  14.653   7.697  10.680
89061SOL    HW169080  14.721   7.645  10.723
89061SOL    HW269081  14.678   7.788  10.697
89062SOL     OW69082  13.981   8.721   9.591
89062SOL    HW169083  14.026   8.665   9.654
89062SOL    HW269084  14.049   8.750   9.531
89063SOL     OW69085   3.888   9.459   4.693
89063SOL    HW169086   3.801   9.469   4.732
89063SOL    HW269087   3.915   9.549   4.673
89064SOL     OW69088   3.046  11.047   8.031
89064SOL    HW169089   3.111  11.045   7.960
89064SOL    HW269090   3.004  10.961   8.027
89065SOL     OW69091   6.852  11.563   7.484
89065SOL    HW169092   6.763  11.592   7.503
89065SOL    HW269093   6.842  11.503   7.410
89066SOL     OW69094  13.555  13.010  10.438
89066SOL    HW169095  13.586  12.922  10.421
89066SOL    HW269096  13.516  13.039  10.356
89067SOL     OW69097   2.844   1.807   6.409
89067SOL    HW169098   2.933   1.775   6.426
89067SOL    HW269099   2.808   1.825   6.495
89068SOL     OW69100  10.281   1.833   8.702
89068SOL    HW169101  10.350   1.870   8.647
89068SOL    HW269102  10.200   1.866   8.664
89069SOL     OW69103  10.409   5.313   9.611
89069SOL    HW169104  10.502   5.300   9.628
89069SOL    HW269105  10.367   5.232   9.642
89070SOL     OW69106   7.413  12.791  12.855
89070SOL    HW169107   7.366  12.738  12.791
89070SOL    HW269108   7.442  12.868  12.806
89071SOL     OW69109  11.289   6.034  13.254
89071SOL    HW169110  11.331   6.120  13.247
89071SOL    HW269111  11.203   6.052  13.292
89072SOL     OW69112  12.439   9.343   4.309
89072SOL    HW169113  12.362   9.297   4.277
89072SOL    HW269114  12.407   9.393   4.384
89073SOL     OW69115   2.654   8.988   7.746
89073SOL    HW169116   2.611   8.911   7.710
89073SOL    HW269117   2.699   9.028   7.671
89074SOL     OW69118   5.311   9.131   6.443
89074SOL    HW169119   5.276   9.052   6.402
89074SOL    HW269120   5.361   9.173   6.373
89075SOL     OW69121  10.251   6.223   5.176
89075SOL    HW169122  10.281   6.195   5.090
89075SOL    HW269123  10.210   6.146   5.214
89076SOL     OW69124   7.083   0.049   9.314
89076SOL    HW169125   7.047   0.051   9.402
89076SOL    HW269126   7.177   0.055   9.326
89077SOL     OW69127  10.171   6.509   9.398
89077SOL    HW169128  10.236   6.579   9.406
89077SOL    HW269129  10.139   6.497   9.488
89078SOL     OW69130   3.591   9.749   3.965
89078SOL    HW169131   3.663   9.715   4.019
89078SOL    HW269132   3.594   9.695   3.886
89079SOL     OW69133   0.665  10.587  14.081
89079SOL    HW169134   0.606  10.584  14.156
89079SOL    HW269135   0.753  10.596  14.120
89080SOL     OW69136   3.457   5.399  14.338
89080SOL    HW169137   3.415   5.432  14.417
89080SOL    HW269138   3.551   5.402  14.357
89081SOL     OW69139  10.954   6.883   9.330
89081SOL    HW169140  10.955   6.792   9.300
89081SOL    HW269141  10.891   6.884   9.402
89082SOL     OW69142   4.177  11.624   4.468
89082SOL    HW169143   4.132  11.690   4.520
89082SOL    HW269144   4.108  11.582   4.416
89083SOL     OW69145   1.948  10.670   5.135
89083SOL    HW169146   1.992  10.642   5.055
89083SOL    HW269147   1.856  10.649   5.120
89084SOL     OW69148   1.050   9.612   5.259
89084SOL    HW169149   1.084   9.523   5.274
89084SOL    HW269150   0.956   9.600   5.245
89085SOL     OW69151   3.683   3.309   0.617
89085SOL    HW169152   3.707   3.396   0.586
89085SOL    HW269153   3.665   3.259   0.537
89086SOL     OW69154   7.141   8.819   2.820
89086SOL    HW169155   7.163   8.911   2.835
89086SOL    HW269156   7.064   8.804   2.874
89087SOL     OW69157   5.245   4.544   8.470
89087SOL    HW169158   5.196   4.465   8.449
89087SOL    HW269159   5.288   4.568   8.388
89088SOL     OW69160  12.614   8.146  12.238
89088SOL    HW169161  12.703   8.123  12.210
89088SOL    HW269162  12.559   8.076  12.203
89089SOL     OW69163   3.203  11.014   5.317
89089SOL    HW169164   3.239  10.947   5.375
89089SOL    HW269165   3.275  11.040   5.261
89090SOL     OW69166   8.060  14.806  10.042
89090SOL    HW169167   7.997  14.736  10.061
89090SOL    HW269168   8.030   0.001  10.094
89091SOL     OW69169  14.458   2.016   0.420
89091SOL    HW169170  14.511   2.086   0.459
89091SOL    HW269171  14.380   2.011   0.475
89092SOL     OW69172  10.217  10.906   8.915
89092SOL    HW169173  10.271  10.840   8.873
89092SOL    HW269174  10.128  10.888   8.884
89093SOL     OW69175  10.781   0.975  10.723
89093SOL    HW169176  10.758   1.011  10.637
89093SOL    HW269177  10.700   0.981  10.774
89094SOL     OW69178   2.362   9.732   5.176
89094SOL    HW169179   2.432   9.795   5.194
89094SOL    HW269180   2.400   9.647   5.202
89095SOL     OW69181  12.088   0.354  10.565
89095SOL    HW169182  11.992   0.359  10.570
89095SOL    HW269183  12.108   0.264  10.591
89096SOL     OW69184  11.022   4.923   8.363
89096SOL    HW169185  11.006   4.831   8.339
89096SOL    HW269186  11.089   4.952   8.301
89097SOL     OW69187   8.203  11.226   5.675
89097SOL    HW169188   8.195  11.226   5.771
89097SOL    HW269189   8.189  11.317   5.650
89098SOL     OW69190   1.434   7.803   0.239
89098SOL    HW169191   1.352   7.762   0.268
89098SOL    HW269192   1.500   7.734   0.247
89099SOL     OW69193  12.316   4.764   9.031
89099SOL    HW169194  12.224   4.739   9.042
89099SOL    HW269195  12.349   4.705   8.964
89100SOL     OW69196  14.718   7.991   9.064
89100SOL    HW169197  14.690   7.905   9.032
89100SOL    HW269198  14.751   7.974   9.152
89101SOL     OW69199   6.432   4.397   9.278
89101SOL    HW169200   6.340   4.423   9.278
89101SOL    HW269201   6.464   4.422   9.191
89102SOL     OW69202   6.605   1.852   8.744
89102SOL    HW169203   6.597   1.897   8.660
89102SOL    HW269204   6.580   1.761   8.726
89103SOL     OW69205  12.498  13.451  10.835
89103SOL    HW169206  12.532  13.364  10.813
89103SOL    HW269207  12.404  13.437  10.847
89104SOL     OW69208   7.366   5.154   9.329
89104SOL    HW169209   7.444   5.187   9.285
89104SOL    HW269210   7.293   5.176   9.271
89105SOL     OW69211   4.834   0.248   7.722
89105SOL    HW169212   4.911   0.292   7.758
89105SOL    HW269213   4.811   0.182   7.788
89106SOL     OW69214   6.276   7.410   3.490
89106SOL    HW169215   6.324   7.410   3.408
89106SOL    HW269216   6.318   7.480   3.541
89107SOL     OW69217   6.384   5.174  11.252
89107SOL    HW169218   6.459   5.211  11.204
89107SOL    HW269219   6.321   5.245  11.255
89108SOL     OW69220   4.562   7.702   7.630
89108SOL    HW169221   4.578   7.709   7.536
89108SOL    HW269222   4.548   7.608   7.645
89109SOL     OW69223   5.690  12.362  12.873
89109SOL    HW169224   5.640  12.421  12.929
89109SOL    HW269225   5.735  12.419  12.811
89110SOL     OW69226   3.940   5.393   6.059
89110SOL    HW169227   3.912   5.368   6.147
89110SOL    HW269228   3.871   5.451   6.027
89111SOL     OW69229   5.076   4.423   5.863
89111SOL    HW169230   5.070   4.329   5.882
89111SOL    HW269231   5.169   4.443   5.874
89112SOL     OW69232  13.027  14.649  12.458
89112SOL    HW169233  13.053  14.560  12.478
89112SOL    HW269234  12.964  14.641  12.386
89113SOL     OW69235   6.639  11.827  10.659
89113SOL    HW169236   6.729  11.859  10.653
89113SOL    HW269237   6.647  11.732  10.653
89114SOL     OW69238   4.912   9.924  13.755
89114SOL    HW169239   4.826   9.966  13.765
89114SOL    HW269240   4.947   9.921  13.844
89115SOL     OW69241   3.506   4.286   1.308
89115SOL    HW169242   3.518   4.313   1.399
89115SOL    HW269243   3.529   4.364   1.258
89116SOL     OW69244   3.943   7.578  12.377
89116SOL    HW169245   3.928   7.627  12.458
89116SOL    HW269246   3.856   7.554  12.347
89117SOL     OW69247   7.309  14.007   2.314
89117SOL    HW169248   7.270  14.094   2.310
89117SOL    HW269249   7.280  13.971   2.398
89118SOL     OW69250  12.838  14.871   0.085
89118SOL    HW169251  12.765  14.833   0.134
89118SOL    HW269252  12.797   0.046   0.019
89119SOL     OW69253  14.512  11.386   9.212
89119SOL    HW169254  14.592  11.359   9.165
89119SOL    HW269255  14.516  11.481   9.213
89120SOL     OW69256   9.028   6.223  12.553
89120SOL    HW169257   9.043   6.274  12.632
89120SOL    HW269258   9.039   6.132  12.580
89121SOL     OW69259  11.979   8.767   2.529
89121SOL    HW169260  12.022   8.689   2.564
89121SOL    HW269261  11.940   8.739   2.447
89122SOL     OW69262   1.186   3.936  10.624
89122SOL    HW169263   1.103   3.957  10.667
89122SOL    HW269264   1.253   3.959  10.689
89123SOL     OW69265   2.035   2.258   1.243
89123SOL    HW169266   1.996   2.345   1.239
89123SOL    HW269267   2.121   2.269   1.202
89124SOL     OW69268  12.081   4.368  13.131
89124SOL    HW169269  12.145   4.368  13.203
89124SOL    HW269270  12.127   4.411  13.059
89125SOL     OW69271  14.279  14.199   0.153
89125SOL    HW169272  14.342  14.134   0.121
89125SOL    HW269273  14.326  14.249   0.219
89126SOL     OW69274   0.464  13.778   4.989
89126SOL    HW169275   0.448  13.694   5.032
89126SOL    HW269276   0.399  13.837   5.026
89127SOL     OW69277   8.143  13.476   9.262
89127SOL    HW169278   8.099  13.543   9.314
89127SOL    HW269279   8.143  13.398   9.317
89128SOL     OW69280   5.102   2.665   8.881
89128SOL    HW169281   5.178   2.714   8.913
89128SOL    HW269282   5.063   2.628   8.960
89129SOL     OW69283   2.190   5.696   2.525
89129SOL    HW169284   2.145   5.618   2.494
89129SOL    HW269285   2.222   5.739   2.446
89130SOL     OW69286  10.508   6.805  14.507
89130SOL    HW169287  10.517   6.720  14.464
89130SOL    HW269288  10.532   6.789  14.598
89131SOL     OW69289   8.119  14.654  13.284
89131SOL    HW169290   8.155  14.591  13.222
89131SOL    HW269291   8.075  14.719  13.230
89132SOL     OW69292   4.446  13.516   3.547
89132SOL    HW169293   4.473  13.522   3.456
89132SOL    HW269294   4.356  13.483   3.543
89133SOL     OW69295  13.048   2.065   2.617
89133SOL    HW169296  13.073   1.986   2.569
89133SOL    HW269297  12.990   2.035   2.686
89134SOL     OW69298  13.209   8.912   8.147
89134SOL    HW169299  13.178   8.982   8.204
89134SOL    HW269300  13.304   8.909   8.162
89135SOL     OW69301   6.646   0.674   7.836
89135SOL    HW169302   6.637   0.768   7.853
89135SOL    HW269303   6.598   0.632   7.908
89136SOL     OW69304   7.426   9.558   2.232
89136SOL    HW169305   7.423   9.510   2.149
89136SOL    HW269306   7.470   9.640   2.209
89137SOL     OW69307   2.416   9.461  14.327
89137SOL    HW169308   2.471   9.395  14.284
89137SOL    HW269309   2.333   9.416  14.344
89138SOL     OW69310   9.414  10.308   2.568
89138SOL    HW169311   9.431  10.377   2.632
89138SOL    HW269312   9.320  10.313   2.552
89139SOL     OW69313   1.308  11.633  10.006
89139SOL    HW169314   1.291  11.704   9.944
89139SOL    HW269315   1.390  11.594   9.975
89140SOL     OW69316   1.023   7.360   8.189
89140SOL    HW169317   1.063   7.330   8.271
89140SOL    HW269318   1.011   7.454   8.201
89141SOL     OW69319  11.226  14.511   0.057
89141SOL    HW169320  11.156  14.564   0.096
89141SOL    HW269321  11.218  14.427   0.102
89142SOL     OW69322  13.809   8.773  11.328
89142SOL    HW169323  13.752   8.698  11.316
89142SOL    HW269324  13.876   8.743  11.389
89143SOL     OW69325   0.816   1.959  14.637
89143SOL    HW169326   0.807   1.891  14.570
89143SOL    HW269327   0.744   1.942  14.697
89144SOL     OW69328   6.049  12.735   8.165
89144SOL    HW169329   6.031  12.829   8.158
89144SOL    HW269330   6.123  12.721   8.106
89145SOL     OW69331   2.116   1.027  13.525
89145SOL    HW169332   2.090   1.047  13.615
89145SOL    HW269333   2.189   0.966  13.533
89146SOL     OW69334   0.491  14.437   7.774
89146SOL    HW169335   0.498  14.417   7.868
89146SOL    HW269336   0.469  14.530   7.770
89147SOL     OW69337  13.150  11.998   1.011
89147SOL    HW169338  13.156  11.903   1.005
89147SOL    HW269339  13.240  12.029   1.000
89148SOL     OW69340   8.199   0.568  12.905
89148SOL    HW169341   8.143   0.544  12.832
89148SOL    HW269342   8.269   0.503  12.905
89149SOL     OW69343   9.013   2.503   0.154
89149SOL    HW169344   8.937   2.496   0.095
89149SOL    HW269345   8.993   2.443   0.226
89150SOL     OW69346   0.901   7.743   6.768
89150SOL    HW169347   0.838   7.708   6.831
89150SOL    HW269348   0.849   7.759   6.689
89151SOL     OW69349   6.717   3.120   1.132
89151SOL    HW169350   6.792   3.153   1.083
89151SOL    HW269351   6.667   3.069   1.068
89152SOL     OW69352   4.089   0.519  11.345
89152SOL    HW169353   4.070   0.437  11.301
89152SOL    HW269354   4.184   0.520  11.355
89153SOL     OW69355   1.722  11.860   8.794
89153SOL    HW169356   1.758  11.944   8.822
89153SOL    HW269357   1.732  11.859   8.699
89154SOL     OW69358   7.131  11.329  13.895
89154SOL    HW169359   7.099  11.299  13.810
89154SOL    HW269360   7.059  11.314  13.956
89155SOL     OW69361   8.891  13.559  11.691
89155SOL    HW169362   8.894  13.633  11.751
89155SOL    HW269363   8.882  13.598  11.605
89156SOL     OW69364  12.249   8.852   3.653
89156SOL    HW169365  12.267   8.934   3.607
89156SOL    HW269366  12.299   8.859   3.734
89157SOL     OW69367   2.807  10.700   1.205
89157SOL    HW169368   2.820  10.611   1.173
89157SOL    HW269369   2.876  10.751   1.162
89158SOL     OW69370   5.279   7.957  11.400
89158SOL    HW169371   5.278   7.927  11.309
89158SOL    HW269372   5.225   7.894  11.447
89159SOL     OW69373   3.415   1.244   9.142
89159SOL    HW169374   3.327   1.208   9.135
89159SOL    HW269375   3.437   1.235   9.234
89160SOL     OW69376   8.417   1.902  14.200
89160SOL    HW169377   8.486   1.957  14.238
89160SOL    HW269378   8.353   1.891  14.271
89161SOL     OW69379   3.319   8.036   9.866
89161SOL    HW169380   3.290   8.119   9.827
89161SOL    HW269381   3.350   7.984   9.792
89162SOL     OW69382   7.850   9.602   3.749
89162SOL    HW169383   7.833   9.590   3.656
89162SOL    HW269384   7.786   9.545   3.792
89163SOL     OW69385  13.204  14.857   2.409
89163SOL    HW169386  13.147   0.045   2.373
89163SOL    HW269387  13.147  14.806   2.466
89164SOL     OW69388   2.747   1.937   7.006
89164SOL    HW169389   2.669   1.928   6.951
89164SOL    HW269390   2.785   2.022   6.981
89165SOL     OW69391  12.825   4.621   0.948
89165SOL    HW169392  12.800   4.618   0.855
89165SOL    HW269393  12.760   4.679   0.988
89166SOL     OW69394  14.491   8.341   2.256
89166SOL    HW169395  14.484   8.421   2.309
89166SOL    HW269396  14.478   8.371   2.166
89167SOL     OW69397   0.933   7.984  13.686
89167SOL    HW169398   0.981   7.906  13.657
89167SOL    HW269399   0.972   8.056  13.636
89168SOL     OW69400   6.440  13.375   3.651
89168SOL    HW169401   6.380  13.440   3.687
89168SOL    HW269402   6.395  13.339   3.575
89169SOL     OW69403   9.391  10.995  12.900
89169SOL    HW169404   9.431  11.052  12.965
89169SOL    HW269405   9.326  10.945  12.948
89170SOL     OW69406   6.585  14.681  13.469
89170SOL    HW169407   6.631  14.745  13.524
89170SOL    HW269408   6.650  14.614  13.451
89171SOL     OW69409   1.404   1.387  12.104
89171SOL    HW169410   1.331   1.394  12.043
89171SOL    HW269411   1.435   1.297  12.095
89172SOL     OW69412   8.802   6.793   8.302
89172SOL    HW169413   8.837   6.877   8.271
89172SOL    HW269414   8.869   6.760   8.362
89173SOL     OW69415  13.274  12.916  10.634
89173SOL    HW169416  13.189  12.935  10.673
89173SOL    HW269417  13.263  12.937  10.541
89174SOL     OW69418   3.009   4.009   3.490
89174SOL    HW169419   2.926   3.979   3.453
89174SOL    HW269420   3.018   3.962   3.572
89175SOL     OW69421   4.208   1.095   1.490
89175SOL    HW169422   4.201   1.117   1.397
89175SOL    HW269423   4.278   1.029   1.493
89176SOL     OW69424   0.877  11.233   0.484
89176SOL    HW169425   0.901  11.157   0.538
89176SOL    HW269426   0.845  11.298   0.546
89177SOL     OW69427   0.827   3.291   9.993
89177SOL    HW169428   0.842   3.225   9.925
89177SOL    HW269429   0.790   3.365   9.946
89178SOL     OW69430  12.422   5.368  14.743
89178SOL    HW169431  12.375   5.285  14.739
89178SOL    HW269432  12.438   5.383  14.836
89179SOL     OW69433   2.477  11.788  14.471
89179SOL    HW169434   2.517  11.813  14.555
89179SOL    HW269435   2.479  11.867  14.419
89180SOL     OW69436  14.848  10.571   6.800
89180SOL    HW169437  14.797  10.495   6.830
89180SOL    HW269438  14.800  10.604   6.724
89181SOL     OW69439   2.051  13.156  10.071
89181SOL    HW169440   2.078  13.234  10.121
89181SOL    HW269441   2.132  13.106  10.060
89182SOL     OW69442  10.726   0.573   1.200
89182SOL    HW169443  10.681   0.628   1.137
89182SOL    HW269444  10.701   0.483   1.176
89183SOL     OW69445  13.158   9.429   4.489
89183SOL    HW169446  13.156   9.432   4.394
89183SOL    HW269447  13.237   9.477   4.513
89184SOL     OW69448   4.345   2.412   9.303
89184SOL    HW169449   4.372   2.491   9.349
89184SOL    HW269450   4.400   2.343   9.339
89185SOL     OW69451   4.286   5.631  14.282
89185SOL    HW169452   4.372   5.672  14.281
89185SOL    HW269453   4.277   5.597  14.370
89186SOL     OW69454   0.985  14.080   0.629
89186SOL    HW169455   0.908  14.134   0.610
89186SOL    HW269456   0.986  14.015   0.560
89187SOL     OW69457   9.438   3.568   0.301
89187SOL    HW169458   9.446   3.569   0.396
89187SOL    HW269459   9.375   3.637   0.281
89188SOL     OW69460   3.532   5.911   9.552
89188SOL    HW169461   3.615   5.871   9.577
89188SOL    HW269462   3.495   5.945   9.634
89189SOL     OW69463   8.752   9.367   3.463
89189SOL    HW169464   8.820   9.416   3.511
89189SOL    HW269465   8.723   9.299   3.524
89190SOL     OW69466   2.782   6.292  13.060
89190SOL    HW169467   2.804   6.206  13.097
89190SOL    HW269468   2.847   6.352  13.098
89191SOL     OW69469  10.532   6.878  10.464
89191SOL    HW169470  10.438   6.893  10.479
89191SOL    HW269471  10.571   6.882  10.551
89192SOL     OW69472  14.425   7.147   4.612
89192SOL    HW169473  14.348   7.197   4.639
89192SOL    HW269474  14.468   7.123   4.694
89193SOL     OW69475   3.059   4.819   9.884
89193SOL    HW169476   3.016   4.852   9.805
89193SOL    HW269477   3.091   4.898   9.929
89194SOL     OW69478  10.275   3.896   4.234
89194SOL    HW169479  10.353   3.928   4.280
89194SOL    HW269480  10.309   3.849   4.158
89195SOL     OW69481   0.724   0.383   9.682
89195SOL    HW169482   0.743   0.463   9.632
89195SOL    HW269483   0.773   0.315   9.637
89196SOL     OW69484   1.776   7.893   9.246
89196SOL    HW169485   1.724   7.916   9.168
89196SOL    HW269486   1.775   7.972   9.300
89197SOL     OW69487  12.445   1.061   7.376
89197SOL    HW169488  12.513   1.129   7.383
89197SOL    HW269489  12.487   0.992   7.324
89198SOL     OW69490   8.116  12.282   4.855
89198SOL    HW169491   8.138  12.340   4.782
89198SOL    HW269492   8.175  12.207   4.844
89199SOL     OW69493   5.912   4.155   9.145
89199SOL    HW169494   5.888   4.202   9.066
89199SOL    HW269495   6.008   4.154   9.144
89200SOL     OW69496  14.867   2.132  13.171
89200SOL    HW169497   0.021   2.044  13.158
89200SOL    HW269498  14.783   2.119  13.216
89201SOL     OW69499  13.158   9.542   6.511
89201SOL    HW169500  13.071   9.551   6.471
89201SOL    HW269501  13.219   9.558   6.439
89202SOL     OW69502   8.709   2.410   6.208
89202SOL    HW169503   8.763   2.351   6.155
89202SOL    HW269504   8.696   2.486   6.151
89203SOL     OW69505   8.260   7.860  14.852
89203SOL    HW169506   8.230   7.780  14.809
89203SOL    HW269507   8.240   7.930  14.790
89204SOL     OW69508   2.765   5.512   7.925
89204SOL    HW169509   2.685   5.544   7.884
89204SOL    HW269510   2.811   5.591   7.954
89205SOL     OW69511   2.673   0.939   9.511
89205SOL    HW169512   2.638   0.899   9.591
89205SOL    HW269513   2.768   0.944   9.526
89206SOL     OW69514   8.822   0.755  12.161
89206SOL    HW169515   8.756   0.696  12.198
89206SOL    HW269516   8.772   0.829  12.126
89207SOL     OW69517   8.933   8.915   2.184
89207SOL    HW169518   8.910   8.941   2.095
89207SOL    HW269519   8.929   8.996   2.235
89208SOL     OW69520  11.743  14.049   8.515
89208SOL    HW169521  11.725  14.140   8.495
89208SOL    HW269522  11.656  14.010   8.528
89209SOL     OW69523  14.785   2.749   2.373
89209SOL    HW169524  14.745   2.818   2.425
89209SOL    HW269525  14.742   2.669   2.401
89210SOL     OW69526   2.906  13.837  14.314
89210SOL    HW169527   2.816  13.810  14.327
89210SOL    HW269528   2.923  13.821  14.221
89211SOL     OW69529   2.395   9.567   1.570
89211SOL    HW169530   2.437   9.530   1.647
89211SOL    HW269531   2.304   9.539   1.577
89212SOL     OW69532   5.126  14.013   3.102
89212SOL    HW169533   5.050  13.962   3.071
89212SOL    HW269534   5.184  13.948   3.141
89213SOL     OW69535   1.952  12.501  11.125
89213SOL    HW169536   2.023  12.551  11.084
89213SOL    HW269537   1.974  12.499  11.218
89214SOL     OW69538   1.346  10.344   0.268
89214SOL    HW169539   1.342  10.438   0.289
89214SOL    HW269540   1.344  10.342   0.172
89215SOL     OW69541  13.598   2.721  11.695
89215SOL    HW169542  13.601   2.628  11.671
89215SOL    HW269543  13.558   2.722  11.782
89216SOL     OW69544  12.378   0.985   1.418
89216SOL    HW169545  12.294   0.967   1.460
89216SOL    HW269546  12.355   1.004   1.327
89217SOL     OW69547   2.562  10.026   1.240
89217SOL    HW169548   2.653  10.002   1.255
89217SOL    HW269549   2.519   9.944   1.215
89218SOL     OW69550  12.290   6.114   4.947
89218SOL    HW169551  12.254   6.116   5.036
89218SOL    HW269552  12.218   6.145   4.892
89219SOL     OW69553   6.094   2.625   1.657
89219SOL    HW169554   6.013   2.616   1.707
89219SOL    HW269555   6.164   2.611   1.721
89220SOL     OW69556  11.382   4.031   1.249
89220SOL    HW169557  11.356   3.947   1.286
89220SOL    HW269558  11.371   4.020   1.155
89221SOL     OW69559   8.053   0.505   9.685
89221SOL    HW169560   8.058   0.412   9.664
89221SOL    HW269561   8.034   0.547   9.601
89222SOL     OW69562   2.678  13.586   7.352
89222SOL    HW169563   2.590  13.550   7.364
89222SOL    HW269564   2.698  13.629   7.435
89223SOL     OW69565  10.016   3.348   3.165
89223SOL    HW169566  10.036   3.266   3.209
89223SOL    HW269567  10.086   3.359   3.101
89224SOL     OW69568  14.226   8.946   0.566
89224SOL    HW169569  14.278   8.911   0.639
89224SOL    HW269570  14.164   9.006   0.608
89225SOL     OW69571   3.395   8.173   6.972
89225SOL    HW169572   3.385   8.245   6.910
89225SOL    HW269573   3.307   8.138   6.983
89226SOL     OW69574   3.678   9.263   8.188
89226SOL    HW169575   3.654   9.244   8.097
89226SOL    HW269576   3.670   9.358   8.195
89227SOL     OW69577  11.665   6.518   6.200
89227SOL    HW169578  11.649   6.490   6.110
89227SOL    HW269579  11.713   6.445   6.239
89228SOL     OW69580   9.479  13.043  12.334
89228SOL    HW169581   9.400  12.994  12.355
89228SOL    HW269582   9.493  13.029  12.240
89229SOL     OW69583   3.219   6.695  11.971
89229SOL    HW169584   3.282   6.728  11.907
89229SOL    HW269585   3.266   6.697  12.055
89230SOL     OW69586   9.887   9.299  11.687
89230SOL    HW169587   9.961   9.243  11.714
89230SOL    HW269588   9.911   9.328  11.599
89231SOL     OW69589   4.557  14.180   9.931
89231SOL    HW169590   4.639  14.195   9.884
89231SOL    HW269591   4.550  14.084   9.935
89232SOL     OW69592   3.779  14.047   4.525
89232SOL    HW169593   3.729  13.984   4.473
89232SOL    HW269594   3.855  13.998   4.557
89233SOL     OW69595  13.077   2.837   1.238
89233SOL    HW169596  13.091   2.814   1.146
89233SOL    HW269597  12.984   2.820   1.253
89234SOL     OW69598  11.036   0.147   0.624
89234SOL    HW169599  11.042   0.057   0.657
89234SOL    HW269600  11.095   0.149   0.548
89235SOL     OW69601  12.363  12.994  10.554
89235SOL    HW169602  12.290  12.941  10.586
89235SOL    HW269603  12.434  12.931  10.543
89236SOL     OW69604   3.448   0.844   4.304
89236SOL    HW169605   3.383   0.903   4.266
89236SOL    HW269606   3.463   0.777   4.238
89237SOL     OW69607  14.471  13.244   5.162
89237SOL    HW169608  14.500  13.163   5.205
89237SOL    HW269609  14.530  13.311   5.196
89238SOL     OW69610  10.147  12.168   8.508
89238SOL    HW169611  10.130  12.103   8.575
89238SOL    HW269612  10.243  12.173   8.503
89239SOL     OW69613   8.725   8.577   5.941
89239SOL    HW169614   8.768   8.514   5.883
89239SOL    HW269615   8.670   8.523   5.997
89240SOL     OW69616   2.709   4.452  10.349
89240SOL    HW169617   2.692   4.458  10.255
89240SOL    HW269618   2.804   4.443  10.356
89241SOL     OW69619   8.967  13.006   8.444
89241SOL    HW169620   8.911  12.965   8.379
89241SOL    HW269621   8.907  13.029   8.516
89242SOL     OW69622   3.541   2.025   8.356
89242SOL    HW169623   3.612   1.961   8.349
89242SOL    HW269624   3.557   2.069   8.440
89243SOL     OW69625   8.227   5.696  10.829
89243SOL    HW169626   8.234   5.694  10.924
89243SOL    HW269627   8.256   5.784  10.804
89244SOL     OW69628  12.231   5.127   7.277
89244SOL    HW169629  12.169   5.162   7.213
89244SOL    HW269630  12.304   5.189   7.275
89245SOL     OW69631   3.203   6.417   7.256
89245SOL    HW169632   3.260   6.492   7.238
89245SOL    HW269633   3.231   6.350   7.195
89246SOL     OW69634   2.871   7.997   8.707
89246SOL    HW169635   2.786   7.957   8.724
89246SOL    HW269636   2.850   8.085   8.675
89247SOL     OW69637   8.137   5.001  14.306
89247SOL    HW169638   8.232   4.992  14.312
89247SOL    HW269639   8.116   5.071  14.368
89248SOL     OW69640   7.618  11.040  10.704
89248SOL    HW169641   7.606  10.945  10.709
89248SOL    HW269642   7.710  11.054  10.723
89249SOL     OW69643   1.998  12.257   5.704
89249SOL    HW169644   1.993  12.326   5.638
89249SOL    HW269645   2.090  12.255   5.730
89250SOL     OW69646   7.648  10.220   1.714
89250SOL    HW169647   7.565  10.176   1.692
89250SOL    HW269648   7.712  10.179   1.656
89251SOL     OW69649  14.057  11.551   3.288
89251SOL    HW169650  14.015  11.470   3.318
89251SOL    HW269651  14.054  11.609   3.363
89252SOL     OW69652   3.062   8.588   0.939
89252SOL    HW169653   3.131   8.655   0.938
89252SOL    HW269654   2.987   8.630   0.981
89253SOL     OW69655  14.836   1.602  13.788
89253SOL    HW169656  14.864   1.694  13.788
89253SOL    HW269657   0.033   1.553  13.815
89254SOL     OW69658   5.763  13.769   0.212
89254SOL    HW169659   5.800  13.816   0.286
89254SOL    HW269660   5.703  13.832   0.172
89255SOL     OW69661  13.995   3.803   5.268
89255SOL    HW169662  13.970   3.772   5.181
89255SOL    HW269663  13.914   3.798   5.319
89256SOL     OW69664   7.494  10.020   8.190
89256SOL    HW169665   7.504  10.006   8.284
89256SOL    HW269666   7.548   9.953   8.149
89257SOL     OW69667   1.773  13.027   0.858
89257SOL    HW169668   1.727  13.049   0.777
89257SOL    HW269669   1.781  13.110   0.905
89258SOL     OW69670   9.410   2.891  11.174
89258SOL    HW169671   9.406   2.985  11.160
89258SOL    HW269672   9.503   2.872  11.184
89259SOL     OW69673   8.434   4.450   3.031
89259SOL    HW169674   8.451   4.474   2.940
89259SOL    HW269675   8.447   4.355   3.033
89260SOL     OW69676   4.683  13.705   9.689
89260SOL    HW169677   4.622  13.779   9.688
89260SOL    HW269678   4.719  13.703   9.600
89261SOL     OW69679  13.385   4.504  13.773
89261SOL    HW169680  13.397   4.504  13.678
89261SOL    HW269681  13.290   4.506  13.785
89262SOL     OW69682  11.552  12.550  11.036
89262SOL    HW169683  11.622  12.513  10.982
89262SOL    HW269684  11.507  12.473  11.072
89263SOL     OW69685   8.054   7.698   7.802
89263SOL    HW169686   8.048   7.774   7.860
89263SOL    HW269687   7.963   7.679   7.778
89264SOL     OW69688  13.200   7.900  12.364
89264SOL    HW169689  13.231   7.822  12.409
89264SOL    HW269690  13.221   7.972  12.424
89265SOL     OW69691   1.125   2.889   5.017
89265SOL    HW169692   1.030   2.889   5.001
89265SOL    HW269693   1.134   2.916   5.108
89266SOL     OW69694   4.519   3.454   3.041
89266SOL    HW169695   4.572   3.523   3.002
89266SOL    HW269696   4.530   3.465   3.135
89267SOL     OW69697  10.877  10.137  10.502
89267SOL    HW169698  10.932  10.215  10.497
89267SOL    HW269699  10.867  10.121  10.596
89268SOL     OW69700  13.048   3.626  11.201
89268SOL    HW169701  13.122   3.681  11.228
89268SOL    HW269702  13.006   3.675  11.130
89269SOL     OW69703   0.960   1.488  14.277
89269SOL    HW169704   0.960   1.500  14.182
89269SOL    HW269705   0.867   1.491  14.301
89270SOL     OW69706   9.254   9.031  10.883
89270SOL    HW169707   9.160   9.021  10.900
89270SOL    HW269708   9.296   8.989  10.958
89271SOL     OW69709   9.042   7.790  13.172
89271SOL    HW169710   8.984   7.865  13.183
89271SOL    HW269711   9.102   7.795  13.247
89272SOL     OW69712   4.569   4.693   5.723
89272SOL    HW169713   4.586   4.654   5.810
89272SOL    HW269714   4.628   4.768   5.719
89273SOL     OW69715  13.747   5.082   0.205
89273SOL    HW169716  13.770   4.991   0.223
89273SOL    HW269717  13.831   5.128   0.204
89274SOL     OW69718   9.920   4.622   1.553
89274SOL    HW169719   9.961   4.689   1.608
89274SOL    HW269720   9.970   4.624   1.471
89275SOL     OW69721   4.264  10.734   7.748
89275SOL    HW169722   4.183  10.740   7.799
89275SOL    HW269723   4.321  10.801   7.786
89276SOL     OW69724   9.595   4.021   5.856
89276SOL    HW169725   9.565   4.100   5.901
89276SOL    HW269726   9.528   4.002   5.791
89277SOL     OW69727  12.531  14.693   1.685
89277SOL    HW169728  12.585  14.712   1.609
89277SOL    HW269729  12.569  14.614   1.723
89278SOL     OW69730   4.287   9.728  14.209
89278SOL    HW169731   4.325   9.685  14.132
89278SOL    HW269732   4.207   9.769  14.176
89279SOL     OW69733   5.817   9.522   8.439
89279SOL    HW169734   5.853   9.516   8.528
89279SOL    HW269735   5.725   9.498   8.449
89280SOL     OW69736   8.884   6.143   0.460
89280SOL    HW169737   8.912   6.217   0.407
89280SOL    HW269738   8.884   6.069   0.400
89281SOL     OW69739   8.436  13.262  10.914
89281SOL    HW169740   8.450  13.213  10.833
89281SOL    HW269741   8.341  13.272  10.921
89282SOL     OW69742  11.516   6.880  10.974
89282SOL    HW169743  11.490   6.909  10.886
89282SOL    HW269744  11.515   6.960  11.027
89283SOL     OW69745  13.958  14.475   5.377
89283SOL    HW169746  13.911  14.489   5.295
89283SOL    HW269747  13.935  14.387   5.404
89284SOL     OW69748  14.341   6.356   7.682
89284SOL    HW169749  14.316   6.292   7.748
89284SOL    HW269750  14.357   6.305   7.603
89285SOL     OW69751   9.861   7.902   7.870
89285SOL    HW169752   9.853   7.998   7.876
89285SOL    HW269753   9.951   7.883   7.893
89286SOL     OW69754   0.452   5.327   8.973
89286SOL    HW169755   0.466   5.398   8.910
89286SOL    HW269756   0.525   5.336   9.035
89287SOL     OW69757   7.982   4.564   6.619
89287SOL    HW169758   7.899   4.534   6.581
89287SOL    HW269759   8.003   4.644   6.571
89288SOL     OW69760  12.010   0.932   9.532
89288SOL    HW169761  12.001   0.847   9.489
89288SOL    HW269762  11.952   0.990   9.482
89289SOL     OW69763   0.910   8.328  12.645
89289SOL    HW169764   0.949   8.308  12.560
89289SOL    HW269765   0.877   8.244  12.677
89290SOL     OW69766  11.425   3.528   6.445
89290SOL    HW169767  11.394   3.609   6.403
89290SOL    HW269768  11.509   3.552   6.484
89291SOL     OW69769   5.884   4.101   0.659
89291SOL    HW169770   5.949   4.154   0.705
89291SOL    HW269771   5.894   4.125   0.567
89292SOL     OW69772   5.620   4.028  12.875
89292SOL    HW169773   5.548   4.091  12.877
89292SOL    HW269774   5.583   3.950  12.834
89293SOL     OW69775   5.212   1.835   5.029
89293SOL    HW169776   5.290   1.854   5.081
89293SOL    HW269777   5.149   1.901   5.056
89294SOL     OW69778  12.247   5.748   1.896
89294SOL    HW169779  12.242   5.765   1.802
89294SOL    HW269780  12.213   5.659   1.905
89295SOL     OW69781  13.390   7.224   8.330
89295SOL    HW169782  13.342   7.267   8.258
89295SOL    HW269783  13.329   7.223   8.403
89296SOL     OW69784   7.372   0.495   4.862
89296SOL    HW169785   7.418   0.448   4.792
89296SOL    HW269786   7.322   0.427   4.907
89297SOL     OW69787   1.396  12.186  11.753
89297SOL    HW169788   1.376  12.280  11.750
89297SOL    HW269789   1.429  12.171  11.842
89298SOL     OW69790   6.725  12.391  12.202
89298SOL    HW169791   6.694  12.403  12.112
89298SOL    HW269792   6.700  12.302  12.224
89299SOL     OW69793   8.937   0.541   9.684
89299SOL    HW169794   8.919   0.452   9.655
89299SOL    HW269795   8.946   0.591   9.602
89300SOL     OW69796  10.214   7.637   7.051
89300SOL    HW169797  10.219   7.661   7.143
89300SOL    HW269798  10.267   7.557   7.044
89301SOL     OW69799  12.011   8.411   2.262
89301SOL    HW169800  12.101   8.438   2.281
89301SOL    HW269801  11.974   8.484   2.213
89302SOL     OW69802   8.916  14.819   6.278
89302SOL    HW169803   8.913  14.848   6.187
89302SOL    HW269804   9.004  14.785   6.290
89303SOL     OW69805   4.687   5.726   5.488
89303SOL    HW169806   4.665   5.727   5.395
89303SOL    HW269807   4.688   5.818   5.514
89304SOL     OW69808   8.939  11.433   1.663
89304SOL    HW169809   8.914  11.388   1.744
89304SOL    HW269810   9.016  11.386   1.632
89305SOL     OW69811   4.197   8.088   9.837
89305SOL    HW169812   4.271   8.146   9.856
89305SOL    HW269813   4.201   8.022   9.906
89306SOL     OW69814   6.016   8.875   6.082
89306SOL    HW169815   6.055   8.815   6.144
89306SOL    HW269816   6.038   8.840   5.996
89307SOL     OW69817   6.407   4.522   6.172
89307SOL    HW169818   6.345   4.506   6.244
89307SOL    HW269819   6.481   4.566   6.214
89308SOL     OW69820   3.331   9.967   2.622
89308SOL    HW169821   3.387   9.891   2.607
89308SOL    HW269822   3.388  10.030   2.666
89309SOL     OW69823   6.895   9.268   8.530
89309SOL    HW169824   6.889   9.173   8.543
89309SOL    HW269825   6.914   9.303   8.617
89310SOL     OW69826   0.336  12.080   7.524
89310SOL    HW169827   0.334  12.067   7.619
89310SOL    HW269828   0.426  12.105   7.505
89311SOL     OW69829  14.239   8.707  14.872
89311SOL    HW169830  14.164   8.761   0.014
89311SOL    HW269831  14.263   8.736  14.783
89312SOL     OW69832   8.410  13.296   8.168
89312SOL    HW169833   8.323  13.325   8.139
89312SOL    HW269834   8.453  13.266   8.089
89313SOL     OW69835   0.761   2.176   5.195
89313SOL    HW169836   0.848   2.138   5.189
89313SOL    HW269837   0.732   2.185   5.104
89314SOL     OW69838   1.487  12.924   3.712
89314SOL    HW169839   1.510  12.938   3.804
89314SOL    HW269840   1.458  12.833   3.709
89315SOL     OW69841   6.554  12.533   8.634
89315SOL    HW169842   6.473  12.552   8.587
89315SOL    HW269843   6.579  12.445   8.605
89316SOL     OW69844  10.780   8.534   5.815
89316SOL    HW169845  10.728   8.603   5.775
89316SOL    HW269846  10.767   8.545   5.909
89317SOL     OW69847  13.389   4.169   9.239
89317SOL    HW169848  13.422   4.244   9.189
89317SOL    HW269849  13.468   4.124   9.269
89318SOL     OW69850   1.504  10.611  10.580
89318SOL    HW169851   1.410  10.591  10.583
89318SOL    HW269852   1.514  10.671  10.507
89319SOL     OW69853   6.068   4.088   3.570
89319SOL    HW169854   6.058   4.143   3.648
89319SOL    HW269855   6.154   4.047   3.581
89320SOL     OW69856   9.372   2.456  12.488
89320SOL    HW169857   9.302   2.403  12.450
89320SOL    HW269858   9.442   2.393  12.507
89321SOL     OW69859   4.678   5.915   4.068
89321SOL    HW169860   4.702   5.882   4.155
89321SOL    HW269861   4.748   5.884   4.011
89322SOL     OW69862  12.473   7.893   7.268
89322SOL    HW169863  12.471   7.842   7.349
89322SOL    HW269864  12.564   7.888   7.238
89323SOL     OW69865   1.252   9.211   3.753
89323SOL    HW169866   1.292   9.259   3.826
89323SOL    HW269867   1.288   9.122   3.760
89324SOL     OW69868   6.459   8.519   7.235
89324SOL    HW169869   6.442   8.425   7.240
89324SOL    HW269870   6.550   8.526   7.208
89325SOL     OW69871   9.984  11.663   4.342
89325SOL    HW169872   9.979  11.699   4.253
89325SOL    HW269873  10.063  11.609   4.341
89326SOL     OW69874   1.067   7.161   9.597
89326SOL    HW169875   1.152   7.205   9.588
89326SOL    HW269876   1.003   7.225   9.565
89327SOL     OW69877   8.687  12.417  13.938
89327SOL    HW169878   8.773  12.452  13.914
89327SOL    HW269879   8.625  12.467  13.886
89328SOL     OW69880  13.380   5.295   7.640
89328SOL    HW169881  13.337   5.214   7.666
89328SOL    HW269882  13.315   5.363   7.655
89329SOL     OW69883   1.017   4.101  12.940
89329SOL    HW169884   1.083   4.170  12.942
89329SOL    HW269885   1.039   4.045  13.014
89330SOL     OW69886  12.286   7.699   9.145
89330SOL    HW169887  12.322   7.624   9.192
89330SOL    HW269888  12.235   7.746   9.211
89331SOL     OW69889   0.514  13.184  13.595
89331SOL    HW169890   0.569  13.106  13.588
89331SOL    HW269891   0.432  13.153  13.634
89332SOL     OW69892   7.668   2.870  12.155
89332SOL    HW169893   7.624   2.923  12.088
89332SOL    HW269894   7.660   2.921  12.235
89333SOL     OW69895   3.027   1.200   1.037
89333SOL    HW169896   3.102   1.250   1.003
89333SOL    HW269897   3.027   1.119   0.987
89334SOL     OW69898   4.032  12.973  14.015
89334SOL    HW169899   3.970  13.007  13.951
89334SOL    HW269900   4.096  12.924  13.963
89335SOL     OW69901   4.809   5.867   8.283
89335SOL    HW169902   4.772   5.838   8.367
89335SOL    HW269903   4.747   5.933   8.252
89336SOL     OW69904   4.852  14.516  12.442
89336SOL    HW169905   4.835  14.463  12.520
89336SOL    HW269906   4.947  14.527  12.440
89337SOL     OW69907  12.883  12.694   7.101
89337SOL    HW169908  12.836  12.651   7.172
89337SOL    HW269909  12.959  12.733   7.142
89338SOL     OW69910   2.989   4.548   9.546
89338SOL    HW169911   3.075   4.544   9.587
89338SOL    HW269912   2.927   4.549   9.619
89339SOL     OW69913   8.118   3.108  11.348
89339SOL    HW169914   8.187   3.042  11.361
89339SOL    HW269915   8.043   3.057  11.315
89340SOL     OW69916  11.425   4.499   2.767
89340SOL    HW169917  11.463   4.583   2.794
89340SOL    HW269918  11.491   4.462   2.708
89341SOL     OW69919   6.075   9.531   6.250
89341SOL    HW169920   6.102   9.446   6.215
89341SOL    HW269921   6.046   9.580   6.174
89342SOL     OW69922   0.194   2.390   8.562
89342SOL    HW169923   0.159   2.372   8.649
89342SOL    HW269924   0.118   2.384   8.504
89343SOL     OW69925   7.018  10.385  14.843
89343SOL    HW169926   7.028  10.313  14.781
89343SOL    HW269927   6.929  10.376  14.876
89344SOL     OW69928   1.842   0.394   6.409
89344SOL    HW169929   1.817   0.325   6.471
89344SOL    HW269930   1.885   0.349   6.337
89345SOL     OW69931   5.105   3.395   4.559
89345SOL    HW169932   5.103   3.461   4.627
89345SOL    HW269933   5.174   3.334   4.586
89346SOL     OW69934   3.001   7.954   2.745
89346SOL    HW169935   2.926   8.005   2.775
89346SOL    HW269936   3.030   7.907   2.823
89347SOL     OW69937   8.205   0.375  14.880
89347SOL    HW169938   8.252   0.445  14.834
89347SOL    HW269939   8.261   0.298  14.871
89348SOL     OW69940   1.421   6.304   5.916
89348SOL    HW169941   1.427   6.316   5.822
89348SOL    HW269942   1.334   6.267   5.930
89349SOL     OW69943   0.630   9.603   6.616
89349SOL    HW169944   0.711   9.566   6.580
89349SOL    HW269945   0.572   9.528   6.626
89350SOL     OW69946  10.836   8.526   8.090
89350SOL    HW169947  10.771   8.518   8.020
89350SOL    HW269948  10.801   8.594   8.148
89351SOL     OW69949  12.794   5.346   4.827
89351SOL    HW169950  12.719   5.331   4.770
89351SOL    HW269951  12.771   5.425   4.876
89352SOL     OW69952   2.910  14.307   6.790
89352SOL    HW169953   2.877  14.371   6.726
89352SOL    HW269954   2.911  14.224   6.742
89353SOL     OW69955   0.773  10.607  11.831
89353SOL    HW169956   0.737  10.518  11.826
89353SOL    HW269957   0.868  10.596  11.821
89354SOL     OW69958   8.908   2.629   9.313
89354SOL    HW169959   8.893   2.722   9.331
89354SOL    HW269960   8.855   2.583   9.378
89355SOL     OW69961   6.918   0.898   6.892
89355SOL    HW169962   6.998   0.943   6.918
89355SOL    HW269963   6.937   0.805   6.906
89356SOL     OW69964   1.668   9.435   7.771
89356SOL    HW169965   1.675   9.476   7.857
89356SOL    HW269966   1.758   9.431   7.738
89357SOL     OW69967   6.062  14.471   7.858
89357SOL    HW169968   6.114  14.499   7.782
89357SOL    HW269969   6.124  14.425   7.914
89358SOL     OW69970   7.925   7.459   6.343
89358SOL    HW169971   8.003   7.514   6.335
89358SOL    HW269972   7.853   7.514   6.310
89359SOL     OW69973  11.782   3.841   3.523
89359SOL    HW169974  11.698   3.820   3.484
89359SOL    HW269975  11.800   3.931   3.495
89360SOL     OW69976   3.629   1.467   2.510
89360SOL    HW169977   3.677   1.445   2.430
89360SOL    HW269978   3.653   1.398   2.572
89361SOL     OW69979  14.492   9.349   6.734
89361SOL    HW169980  14.415   9.292   6.731
89361SOL    HW269981  14.556   9.304   6.679
89362SOL     OW69982   9.683  13.391  13.350
89362SOL    HW169983   9.728  13.445  13.415
89362SOL    HW269984   9.725  13.414  13.267
89363SOL     OW69985   3.039   9.430   1.662
89363SOL    HW169986   2.952   9.465   1.640
89363SOL    HW269987   3.046   9.442   1.757
89364SOL     OW69988   5.251   9.993   0.580
89364SOL    HW169989   5.258  10.065   0.641
89364SOL    HW269990   5.334   9.946   0.588
89365SOL     OW69991  10.786   2.017   5.474
89365SOL    HW169992  10.782   1.921   5.475
89365SOL    HW269993  10.872   2.037   5.437
89366SOL     OW69994   1.429  11.234  13.310
89366SOL    HW169995   1.385  11.175  13.249
89366SOL    HW269996   1.502  11.181  13.344
89367SOL     OW69997   0.316   4.676   7.521
89367SOL    HW169998   0.285   4.649   7.434
89367SOL    HW269999   0.394   4.622   7.536
89368SOL     OW70000   7.762   0.525   4.246
89368SOL    HW170001   7.749   0.499   4.155
89368SOL    HW270002   7.746   0.445   4.297
89369SOL     OW70003   9.337   0.898   9.311
89369SOL    HW170004   9.246   0.926   9.303
89369SOL    HW270005   9.337   0.807   9.281
89370SOL     OW70006  14.770   7.471   1.714
89370SOL    HW170007  14.863   7.488   1.728
89370SOL    HW270008  14.749   7.397   1.771
89371SOL     OW70009   6.048  12.042  10.627
89371SOL    HW170010   5.989  11.968  10.641
89371SOL    HW270011   6.072  12.037  10.535
89372SOL     OW70012   6.465  14.670  13.208
89372SOL    HW170013   6.514  14.677  13.290
89372SOL    HW270014   6.387  14.724  13.223
89373SOL     OW70015   3.311  12.523   4.825
89373SOL    HW170016   3.366  12.590   4.867
89373SOL    HW270017   3.241  12.573   4.784
89374SOL     OW70018  14.061  13.933   0.344
89374SOL    HW170019  14.136  13.888   0.305
89374SOL    HW270020  14.008  13.961   0.269
89375SOL     OW70021   5.123  10.630   5.252
89375SOL    HW170022   5.094  10.541   5.233
89375SOL    HW270023   5.200  10.618   5.308
89376SOL     OW70024  14.505  10.369   4.581
89376SOL    HW170025  14.429  10.339   4.532
89376SOL    HW270026  14.561  10.410   4.515
89377SOL     OW70027   2.646   3.602   2.832
89377SOL    HW170028   2.686   3.686   2.809
89377SOL    HW270029   2.662   3.547   2.756
89378SOL     OW70030   8.158   7.601   8.768
89378SOL    HW170031   8.087   7.652   8.728
89378SOL    HW270032   8.226   7.600   8.701
89379SOL     OW70033   3.102   6.837  13.246
89379SOL    HW170034   3.130   6.923  13.276
89379SOL    HW270035   3.139   6.776  13.310
89380SOL     OW70036  12.000  11.201   7.200
89380SOL    HW170037  12.027  11.110   7.183
89380SOL    HW270038  11.911  11.194   7.234
89381SOL     OW70039   7.438   2.949   3.580
89381SOL    HW170040   7.344   2.933   3.592
89381SOL    HW270041   7.477   2.862   3.585
89382SOL     OW70042   2.854   9.276   5.708
89382SOL    HW170043   2.801   9.297   5.785
89382SOL    HW270044   2.793   9.282   5.635
89383SOL     OW70045  10.548   0.377   8.435
89383SOL    HW170046  10.470   0.350   8.483
89383SOL    HW270047  10.518   0.447   8.378
89384SOL     OW70048  12.907   9.187   1.047
89384SOL    HW170049  12.941   9.230   0.968
89384SOL    HW270050  12.952   9.231   1.119
89385SOL     OW70051   7.021  13.679   3.774
89385SOL    HW170052   7.089  13.718   3.828
89385SOL    HW270053   7.037  13.585   3.777
89386SOL     OW70054   5.120   7.430   7.977
89386SOL    HW170055   5.073   7.372   8.037
89386SOL    HW270056   5.199   7.382   7.953
89387SOL     OW70057   7.184   7.653   9.847
89387SOL    HW170058   7.151   7.582   9.902
89387SOL    HW270059   7.179   7.731   9.901
89388SOL     OW70060   6.379  10.428  13.052
89388SOL    HW170061   6.364  10.520  13.030
89388SOL    HW270062   6.469  10.410  13.023
89389SOL     OW70063   8.811  13.847  13.812
89389SOL    HW170064   8.789  13.873  13.723
89389SOL    HW270065   8.889  13.792  13.803
89390SOL     OW70066  12.263  11.735   0.523
89390SOL    HW170067  12.218  11.670   0.577
89390SOL    HW270068  12.193  11.783   0.479
89391SOL     OW70069  14.609   1.329   0.784
89391SOL    HW170070  14.661   1.401   0.747
89391SOL    HW270071  14.519   1.352   0.765
89392SOL     OW70072  10.074  14.337   0.675
89392SOL    HW170073  10.140  14.402   0.653
89392SOL    HW270074  10.124  14.257   0.693
89393SOL     OW70075   6.421  14.434   1.036
89393SOL    HW170076   6.460  14.483   0.964
89393SOL    HW270077   6.447  14.481   1.115
89394SOL     OW70078  13.545   4.467   3.228
89394SOL    HW170079  13.507   4.545   3.190
89394SOL    HW270080  13.470   4.415   3.258
89395SOL     OW70081   4.102  14.150   7.656
89395SOL    HW170082   4.158  14.080   7.622
89395SOL    HW270083   4.053  14.110   7.728
89396SOL     OW70084   8.114  12.154  13.614
89396SOL    HW170085   8.122  12.156  13.710
89396SOL    HW270086   8.134  12.243  13.586
89397SOL     OW70087   1.172  12.518   6.818
89397SOL    HW170088   1.094  12.484   6.861
89397SOL    HW270089   1.245  12.483   6.869
89398SOL     OW70090   6.833   3.529  10.248
89398SOL    HW170091   6.813   3.621  10.235
89398SOL    HW270092   6.895   3.507  10.178
89399SOL     OW70093  12.700   3.347  10.321
89399SOL    HW170094  12.685   3.289  10.247
89399SOL    HW270095  12.740   3.426  10.283
89400SOL     OW70096   0.708   7.884  13.994
89400SOL    HW170097   0.655   7.830  14.053
89400SOL    HW270098   0.760   7.940  14.052
89401SOL     OW70099   0.735   6.410  10.197
89401SOL    HW170100   0.735   6.350  10.123
89401SOL    HW270101   0.743   6.353  10.274
89402SOL     OW70102   3.743  13.653  14.092
89402SOL    HW170103   3.681  13.724  14.110
89402SOL    HW270104   3.715  13.582  14.149
89403SOL     OW70105   8.124  13.754  10.355
89403SOL    HW170106   8.088  13.817  10.417
89403SOL    HW270107   8.129  13.802  10.272
89404SOL     OW70108   2.568   1.364   8.027
89404SOL    HW170109   2.564   1.367   8.123
89404SOL    HW270110   2.590   1.273   8.007
89405SOL     OW70111   1.306   5.214   3.657
89405SOL    HW170112   1.329   5.122   3.642
89405SOL    HW270113   1.387   5.262   3.636
89406SOL     OW70114   4.555   3.785  12.915
89406SOL    HW170115   4.619   3.785  12.843
89406SOL    HW270116   4.471   3.767  12.872
89407SOL     OW70117   8.366   4.272   4.345
89407SOL    HW170118   8.287   4.225   4.370
89407SOL    HW270119   8.432   4.204   4.333
89408SOL     OW70120   7.865  12.341  12.736
89408SOL    HW170121   7.791  12.318  12.680
89408SOL    HW270122   7.885  12.262  12.784
89409SOL     OW70123   4.030   0.465   1.590
89409SOL    HW170124   4.008   0.375   1.615
89409SOL    HW270125   4.067   0.456   1.502
89410SOL     OW70126   3.533  10.037  12.796
89410SOL    HW170127   3.575   9.966  12.748
89410SOL    HW270128   3.593  10.111  12.787
89411SOL     OW70129   5.181   2.195  11.233
89411SOL    HW170130   5.096   2.151  11.231
89411SOL    HW270131   5.215   2.177  11.321
89412SOL     OW70132   7.642   0.091  14.672
89412SOL    HW170133   7.696   0.028  14.625
89412SOL    HW270134   7.682   0.176  14.653
89413SOL     OW70135  12.589   8.185  14.607
89413SOL    HW170136  12.526   8.182  14.680
89413SOL    HW270137  12.675   8.182  14.650
89414SOL     OW70138   6.171   7.646   6.858
89414SOL    HW170139   6.105   7.708   6.827
89414SOL    HW270140   6.254   7.680   6.824
89415SOL     OW70141  13.959  11.525   0.084
89415SOL    HW170142  14.044  11.542   0.126
89415SOL    HW270143  13.922  11.612   0.071
89416SOL     OW70144  10.348   1.093   5.154
89416SOL    HW170145  10.354   1.176   5.201
89416SOL    HW270146  10.254   1.077   5.145
89417SOL     OW70147   1.086   6.524   7.336
89417SOL    HW170148   1.177   6.502   7.315
89417SOL    HW270149   1.057   6.578   7.263
89418SOL     OW70150  11.407   2.332   4.796
89418SOL    HW170151  11.444   2.399   4.853
89418SOL    HW270152  11.390   2.378   4.713
89419SOL     OW70153  13.505  14.363  11.819
89419SOL    HW170154  13.454  14.348  11.739
89419SOL    HW270155  13.442  14.350  11.890
89420SOL     OW70156   6.464   5.654   7.622
89420SOL    HW170157   6.537   5.698   7.578
89420SOL    HW270158   6.493   5.643   7.712
89421SOL     OW70159  14.181  10.549  13.530
89421SOL    HW170160  14.196  10.562  13.436
89421SOL    HW270161  14.097  10.505  13.535
89422SOL     OW70162   5.121   6.362   5.590
89422SOL    HW170163   5.099   6.368   5.683
89422SOL    HW270164   5.181   6.435   5.574
89423SOL     OW70165  10.368   5.256   3.278
89423SOL    HW170166  10.375   5.203   3.358
89423SOL    HW270167  10.424   5.211   3.215
89424SOL     OW70168  13.655  12.631   4.167
89424SOL    HW170169  13.599  12.674   4.102
89424SOL    HW270170  13.609  12.644   4.250
89425SOL     OW70171   5.854   1.852  13.232
89425SOL    HW170172   5.936   1.838  13.279
89425SOL    HW270173   5.786   1.836  13.297
89426SOL     OW70174   4.861   9.073   1.920
89426SOL    HW170175   4.945   9.099   1.959
89426SOL    HW270176   4.875   8.982   1.894
89427SOL     OW70177   9.548   9.636   6.380
89427SOL    HW170178   9.552   9.599   6.468
89427SOL    HW270179   9.487   9.579   6.333
89428SOL     OW70180  12.562   3.690  11.612
89428SOL    HW170181  12.539   3.746  11.538
89428SOL    HW270182  12.488   3.697  11.672
89429SOL     OW70183  12.592   8.641  12.736
89429SOL    HW170184  12.534   8.569  12.760
89429SOL    HW270185  12.647   8.606  12.666
89430SOL     OW70186   0.414  13.872   7.308
89430SOL    HW170187   0.412  13.967   7.318
89430SOL    HW270188   0.493  13.844   7.353
89431SOL     OW70189   0.347  14.137   9.284
89431SOL    HW170190   0.280  14.173   9.341
89431SOL    HW270191   0.344  14.192   9.205
89432SOL     OW70192  11.664   1.593   8.709
89432SOL    HW170193  11.715   1.608   8.788
89432SOL    HW270194  11.615   1.512   8.727
89433SOL     OW70195   2.258  12.796   5.211
89433SOL    HW170196   2.323  12.745   5.162
89433SOL    HW270197   2.175  12.776   5.167
89434SOL     OW70198   4.064  10.108  13.076
89434SOL    HW170199   4.001  10.178  13.056
89434SOL    HW270200   4.116  10.099  12.996
89435SOL     OW70201   0.390   0.014   5.650
89435SOL    HW170202   0.410   0.074   5.722
89435SOL    HW270203   0.427  14.810   5.679
89436SOL     OW70204  10.459  12.058   6.556
89436SOL    HW170205  10.536  12.008   6.527
89436SOL    HW270206  10.467  12.058   6.652
89437SOL     OW70207   8.699  12.977   1.057
89437SOL    HW170208   8.704  12.984   1.152
89437SOL    HW270209   8.660  12.890   1.042
89438SOL     OW70210   6.439  14.179   0.951
89438SOL    HW170211   6.424  14.267   0.984
89438SOL    HW270212   6.533  14.163   0.966
89439SOL     OW70213  12.785  10.048   2.958
89439SOL    HW170214  12.777   9.954   2.942
89439SOL    HW270215  12.704  10.071   3.004
89440SOL     OW70216   4.804   0.143   9.841
89440SOL    HW170217   4.867   0.216   9.840
89440SOL    HW270218   4.718   0.186   9.838
89441SOL     OW70219   9.302   4.498   2.093
89441SOL    HW170220   9.351   4.417   2.084
89441SOL    HW270221   9.210   4.471   2.098
89442SOL     OW70222  14.618   1.722  10.730
89442SOL    HW170223  14.577   1.798  10.772
89442SOL    HW270224  14.610   1.652  10.794
89443SOL     OW70225  12.015   6.584  13.517
89443SOL    HW170226  12.034   6.674  13.492
89443SOL    HW270227  11.975   6.591  13.604
89444SOL     OW70228  10.636   1.547  13.065
89444SOL    HW170229  10.602   1.506  12.986
89444SOL    HW270230  10.559   1.574  13.114
89445SOL     OW70231  14.588   5.169   7.964
89445SOL    HW170232  14.499   5.138   7.947
89445SOL    HW270233  14.591   5.182   8.059
89446SOL     OW70234   0.933   2.578   6.574
89446SOL    HW170235   0.885   2.650   6.532
89446SOL    HW270236   1.019   2.579   6.532
89447SOL     OW70237   7.492   5.298  12.639
89447SOL    HW170238   7.563   5.307  12.702
89447SOL    HW270239   7.516   5.221  12.587
89448SOL     OW70240  11.863  13.882   1.209
89448SOL    HW170241  11.796  13.842   1.266
89448SOL    HW270242  11.945  13.847   1.243
89449SOL     OW70243   9.708   5.169   7.007
89449SOL    HW170244   9.659   5.219   7.072
89449SOL    HW270245   9.641   5.134   6.948
89450SOL     OW70246   6.022  11.852   1.876
89450SOL    HW170247   6.065  11.894   1.802
89450SOL    HW270248   6.092  11.806   1.923
89451SOL     OW70249   7.709   8.598  12.938
89451SOL    HW170250   7.704   8.649  12.857
89451SOL    HW270251   7.710   8.664  13.007
89452SOL     OW70252   9.905   6.447  11.124
89452SOL    HW170253   9.930   6.368  11.171
89452SOL    HW270254   9.809   6.442  11.118
89453SOL     OW70255  14.404  10.755  14.486
89453SOL    HW170256  14.318  10.793  14.470
89453SOL    HW270257  14.398  10.665  14.455
89454SOL     OW70258  11.609   4.278  12.291
89454SOL    HW170259  11.680   4.300  12.230
89454SOL    HW270260  11.637   4.196  12.332
89455SOL     OW70261   6.346   7.871  11.753
89455SOL    HW170262   6.307   7.788  11.781
89455SOL    HW270263   6.284   7.907  11.690
89456SOL     OW70264   7.794   2.751   3.031
89456SOL    HW170265   7.884   2.722   3.045
89456SOL    HW270266   7.743   2.700   3.094
89457SOL     OW70267   9.605   0.043  13.650
89457SOL    HW170268   9.614   0.091  13.733
89457SOL    HW270269   9.633  14.834  13.671
89458SOL     OW70270   1.697   2.818   6.828
89458SOL    HW170271   1.613   2.781   6.857
89458SOL    HW270272   1.680   2.911   6.819
89459SOL     OW70273  12.347   9.115  14.671
89459SOL    HW170274  12.302   9.181  14.723
89459SOL    HW270275  12.289   9.039  14.674
89460SOL     OW70276   7.545   2.299   7.199
89460SOL    HW170277   7.625   2.257   7.231
89460SOL    HW270278   7.507   2.236   7.137
89461SOL     OW70279   2.236  11.955  10.376
89461SOL    HW170280   2.284  11.888  10.424
89461SOL    HW270281   2.149  11.956  10.416
89462SOL     OW70282  14.303  12.069   7.245
89462SOL    HW170283  14.349  12.127   7.305
89462SOL    HW270284  14.296  11.986   7.293
89463SOL     OW70285   7.054   6.383   5.146
89463SOL    HW170286   7.129   6.371   5.205
89463SOL    HW270287   7.000   6.449   5.190
89464SOL     OW70288   6.197   7.661   1.727
89464SOL    HW170289   6.241   7.734   1.771
89464SOL    HW270290   6.120   7.700   1.686
89465SOL     OW70291   4.349   0.253   5.533
89465SOL    HW170292   4.391   0.168   5.543
89465SOL    HW270293   4.259   0.239   5.563
89466SOL     OW70294  14.597   8.267   7.203
89466SOL    HW170295  14.677   8.281   7.254
89466SOL    HW270296  14.611   8.318   7.123
89467SOL     OW70297   1.702  12.603   6.375
89467SOL    HW170298   1.725  12.542   6.305
89467SOL    HW270299   1.610  12.582   6.395
89468SOL     OW70300   7.550  13.859  13.696
89468SOL    HW170301   7.582  13.802  13.766
89468SOL    HW270302   7.628  13.905  13.665
89469SOL     OW70303   4.756   8.652  14.533
89469SOL    HW170304   4.818   8.715  14.496
89469SOL    HW270305   4.811   8.584  14.572
89470SOL     OW70306   3.586  14.156   3.157
89470SOL    HW170307   3.662  14.103   3.179
89470SOL    HW270308   3.613  14.207   3.080
89471SOL     OW70309   1.121   2.386   9.361
89471SOL    HW170310   1.073   2.307   9.335
89471SOL    HW270311   1.083   2.456   9.308
89472SOL     OW70312  12.928   2.497  11.386
89472SOL    HW170313  12.997   2.432  11.397
89472SOL    HW270314  12.974   2.581  11.389
89473SOL     OW70315   2.276   7.225   5.853
89473SOL    HW170316   2.210   7.289   5.879
89473SOL    HW270317   2.309   7.189   5.936
89474SOL     OW70318   2.445   9.846   8.507
89474SOL    HW170319   2.459   9.790   8.583
89474SOL    HW270320   2.524   9.899   8.501
89475SOL     OW70321   1.894  13.379  14.190
89475SOL    HW170322   1.867  13.350  14.103
89475SOL    HW270323   1.818  13.426  14.224
89476SOL     OW70324  10.074  12.496  11.433
89476SOL    HW170325  10.007  12.530  11.493
89476SOL    HW270326  10.025  12.462  11.359
89477SOL     OW70327  14.854   3.695   0.585
89477SOL    HW170328   0.034   3.623   0.567
89477SOL    HW270329  14.878   3.763   0.522
89478SOL     OW70330   2.269   5.980   0.659
89478SOL    HW170331   2.195   6.018   0.707
89478SOL    HW270332   2.306   6.054   0.610
89479SOL     OW70333   1.758   8.335  12.664
89479SOL    HW170334   1.809   8.302  12.590
89479SOL    HW270335   1.672   8.355  12.626
89480SOL     OW70336   0.227   6.001   7.882
89480SOL    HW170337   0.202   5.908   7.875
89480SOL    HW270338   0.302   6.001   7.941
89481SOL     OW70339  12.849  10.229   8.077
89481SOL    HW170340  12.837  10.222   8.172
89481SOL    HW270341  12.839  10.323   8.059
89482SOL     OW70342   6.252   1.764   4.920
89482SOL    HW170343   6.290   1.851   4.927
89482SOL    HW270344   6.239   1.735   5.010
89483SOL     OW70345  11.840  11.496   0.044
89483SOL    HW170346  11.898  11.572   0.036
89483SOL    HW270347  11.863  11.456   0.128
89484SOL     OW70348   0.652   8.587   1.767
89484SOL    HW170349   0.678   8.527   1.837
89484SOL    HW270350   0.729   8.643   1.754
89485SOL     OW70351   9.354   3.723   6.771
89485SOL    HW170352   9.376   3.771   6.691
89485SOL    HW270353   9.297   3.653   6.742
89486SOL     OW70354   7.237  12.781   6.829
89486SOL    HW170355   7.227  12.822   6.915
89486SOL    HW270356   7.148  12.779   6.793
89487SOL     OW70357   6.441   2.215  14.543
89487SOL    HW170358   6.530   2.182  14.539
89487SOL    HW270359   6.388   2.147  14.502
89488SOL     OW70360   3.616  12.448   0.145
89488SOL    HW170361   3.695  12.400   0.169
89488SOL    HW270362   3.646  12.536   0.125
89489SOL     OW70363   1.972   9.593   1.998
89489SOL    HW170364   1.879   9.608   1.979
89489SOL    HW270365   2.017   9.611   1.915
89490SOL     OW70366  12.110  10.919   6.041
89490SOL    HW170367  12.161  10.940   6.119
89490SOL    HW270368  12.036  10.979   6.044
89491SOL     OW70369   8.429   7.554   4.848
89491SOL    HW170370   8.359   7.576   4.787
89491SOL    HW270371   8.503   7.606   4.820
89492SOL     OW70372  10.122   1.420   9.082
89492SOL    HW170373  10.124   1.508   9.120
89492SOL    HW270374  10.059   1.428   9.009
89493SOL     OW70375   7.290  11.968   4.368
89493SOL    HW170376   7.246  11.986   4.451
89493SOL    HW270377   7.250  11.886   4.337
89494SOL     OW70378  12.514  11.865  14.373
89494SOL    HW170379  12.567  11.794  14.339
89494SOL    HW270380  12.556  11.889  14.456
89495SOL     OW70381   2.583   0.793  12.628
89495SOL    HW170382   2.534   0.724  12.673
89495SOL    HW270383   2.520   0.832  12.567
89496SOL     OW70384   9.009   4.345   2.906
89496SOL    HW170385   9.029   4.437   2.885
89496SOL    HW270386   8.915   4.338   2.893
89497SOL     OW70387  12.267  10.470  12.377
89497SOL    HW170388  12.322  10.402  12.337
89497SOL    HW270389  12.178  10.449  12.348
89498SOL     OW70390   1.949  14.666   5.249
89498SOL    HW170391   1.926  14.719   5.325
89498SOL    HW270392   2.016  14.605   5.281
89499SOL     OW70393   9.147   4.345   8.081
89499SOL    HW170394   9.178   4.368   7.994
89499SOL    HW270395   9.079   4.409   8.101
89500SOL     OW70396   5.233   3.120   8.471
89500SOL    HW170397   5.228   3.180   8.397
89500SOL    HW270398   5.289   3.048   8.440
89501SOL     OW70399  12.942   3.402   9.971
89501SOL    HW170400  12.986   3.350  10.039
89501SOL    HW270401  12.852   3.411  10.002
89502SOL     OW70402  10.091   6.228  13.939
89502SOL    HW170403  10.177   6.215  13.978
89502SOL    HW270404  10.077   6.323  13.944
89503SOL     OW70405   0.595   2.635   0.226
89503SOL    HW170406   0.568   2.548   0.196
89503SOL    HW270407   0.589   2.631   0.322
89504SOL     OW70408  13.216   0.885   6.321
89504SOL    HW170409  13.189   0.926   6.403
89504SOL    HW270410  13.136   0.884   6.268
89505SOL     OW70411   9.314  14.352  14.120
89505SOL    HW170412   9.231  14.331  14.077
89505SOL    HW270413   9.366  14.272  14.115
89506SOL     OW70414   2.727   4.047   6.077
89506SOL    HW170415   2.781   4.016   6.005
89506SOL    HW270416   2.779   4.117   6.118
89507SOL     OW70417   4.029   4.371  10.920
89507SOL    HW170418   3.994   4.425  10.849
89507SOL    HW270419   3.969   4.386  10.993
89508SOL     OW70420  12.779   0.318   9.625
89508SOL    HW170421  12.739   0.281   9.704
89508SOL    HW270422  12.845   0.378   9.658
89509SOL     OW70423   2.720  11.938   4.865
89509SOL    HW170424   2.739  11.846   4.883
89509SOL    HW270425   2.628  11.939   4.836
89510SOL     OW70426   9.200  13.281   1.598
89510SOL    HW170427   9.149  13.290   1.518
89510SOL    HW270428   9.148  13.326   1.665
89511SOL     OW70429   1.062  10.268   1.053
89511SOL    HW170430   0.969  10.292   1.048
89511SOL    HW270431   1.063  10.174   1.035
89512SOL     OW70432   8.097  12.626   1.731
89512SOL    HW170433   8.027  12.682   1.696
89512SOL    HW270434   8.099  12.551   1.671
89513SOL     OW70435   1.567  14.784   0.055
89513SOL    HW170436   1.482  14.756   0.089
89513SOL    HW270437   1.561  14.769  14.841
89514SOL     OW70438  12.684   7.019  11.004
89514SOL    HW170439  12.760   7.046  10.952
89514SOL    HW270440  12.677   6.925  10.989
89515SOL     OW70441   6.719   2.522   9.178
89515SOL    HW170442   6.745   2.461   9.247
89515SOL    HW270443   6.645   2.570   9.216
89516SOL     OW70444  12.471   7.651   9.898
89516SOL    HW170445  12.481   7.723   9.961
89516SOL    HW270446  12.377   7.637   9.893
89517SOL     OW70447   0.490   3.050  11.107
89517SOL    HW170448   0.466   3.078  11.018
89517SOL    HW270449   0.423   3.090  11.163
89518SOL     OW70450  12.095   5.211   9.589
89518SOL    HW170451  12.153   5.174   9.656
89518SOL    HW270452  12.024   5.146   9.581
89519SOL     OW70453   6.785   1.646  13.200
89519SOL    HW170454   6.766   1.573  13.259
89519SOL    HW270455   6.867   1.622  13.157
89520SOL     OW70456   0.734   5.081   8.849
89520SOL    HW170457   0.730   5.153   8.785
89520SOL    HW270458   0.800   5.021   8.813
89521SOL     OW70459  11.954   0.266   7.060
89521SOL    HW170460  12.015   0.232   7.126
89521SOL    HW270461  11.871   0.276   7.107
89522SOL     OW70462   9.358   0.795  14.056
89522SOL    HW170463   9.420   0.732  14.022
89522SOL    HW270464   9.273   0.751  14.052
89523SOL     OW70465  10.553   9.134   9.191
89523SOL    HW170466  10.490   9.103   9.255
89523SOL    HW270467  10.582   9.055   9.145
89524SOL     OW70468   4.291   8.707   9.027
89524SOL    HW170469   4.283   8.721   8.933
89524SOL    HW270470   4.385   8.717   9.045
89525SOL     OW70471   5.048   1.878   6.538
89525SOL    HW170472   4.994   1.955   6.551
89525SOL    HW270473   5.039   1.828   6.620
89526SOL     OW70474   6.653  11.035   0.083
89526SOL    HW170475   6.711  10.973   0.040
89526SOL    HW270476   6.582  11.050   0.021
89527SOL     OW70477  13.293  10.436   4.138
89527SOL    HW170478  13.351  10.439   4.214
89527SOL    HW270479  13.252  10.350   4.142
89528SOL     OW70480  11.995   3.283  12.588
89528SOL    HW170481  12.079   3.312  12.553
89528SOL    HW270482  11.993   3.189  12.571
89529SOL     OW70483   1.475   3.756   4.535
89529SOL    HW170484   1.400   3.700   4.516
89529SOL    HW270485   1.485   3.752   4.630
89530SOL     OW70486   7.376   6.658   8.851
89530SOL    HW170487   7.297   6.616   8.815
89530SOL    HW270488   7.442   6.648   8.782
89531SOL     OW70489  11.227  14.805  12.205
89531SOL    HW170490  11.196  14.798  12.115
89531SOL    HW270491  11.147  14.809  12.257
89532SOL     OW70492   7.309  14.313  10.012
89532SOL    HW170493   7.303  14.261  10.092
89532SOL    HW270494   7.286  14.252   9.942
89533SOL     OW70495  13.978  11.364   6.942
89533SOL    HW170496  14.039  11.314   6.996
89533SOL    HW270497  13.989  11.455   6.971
89534SOL     OW70498   0.132   6.717  10.183
89534SOL    HW170499   0.194   6.663  10.134
89534SOL    HW270500   0.101   6.782  10.120
89535SOL     OW70501   3.325  14.066  14.753
89535SOL    HW170502   3.322  13.975  14.722
89535SOL    HW270503   3.393  14.107  14.701
89536SOL     OW70504   4.410   2.563   5.755
89536SOL    HW170505   4.345   2.564   5.825
89536SOL    HW270506   4.465   2.640   5.772
89537SOL     OW70507  12.879  13.068   6.486
89537SOL    HW170508  12.792  13.080   6.448
89537SOL    HW270509  12.920  13.155   6.480
89538SOL     OW70510   3.430  10.114   0.827
89538SOL    HW170511   3.360  10.054   0.798
89538SOL    HW270512   3.453  10.082   0.915
89539SOL     OW70513   3.152   7.894   8.594
89539SOL    HW170514   3.160   7.960   8.525
89539SOL    HW270515   3.073   7.919   8.642
89540SOL     OW70516   8.749   1.082   2.128
89540SOL    HW170517   8.820   1.146   2.132
89540SOL    HW270518   8.737   1.065   2.035
89541SOL     OW70519   4.635  11.192   5.893
89541SOL    HW170520   4.603  11.237   5.814
89541SOL    HW270521   4.679  11.114   5.859
89542SOL     OW70522   5.673   8.903   2.566
89542SOL    HW170523   5.704   8.946   2.645
89542SOL    HW270524   5.634   8.974   2.514
89543SOL     OW70525   5.109   1.739  11.477
89543SOL    HW170526   5.107   1.658  11.528
89543SOL    HW270527   5.176   1.792  11.520
89544SOL     OW70528   4.775  14.723  12.784
89544SOL    HW170529   4.683  14.705  12.799
89544SOL    HW270530   4.777  14.781  12.708
89545SOL     OW70531  10.689   0.455  12.858
89545SOL    HW170532  10.706   0.438  12.765
89545SOL    HW270533  10.685   0.550  12.864
89546SOL     OW70534   4.336   1.797   0.063
89546SOL    HW170535   4.420   1.827   0.030
89546SOL    HW270536   4.353   1.772   0.154
89547SOL     OW70537  14.594   9.462  12.975
89547SOL    HW170538  14.623   9.509  13.052
89547SOL    HW270539  14.564   9.377  13.008
89548SOL     OW70540  10.437   1.027   3.767
89548SOL    HW170541  10.467   1.026   3.858
89548SOL    HW270542  10.446   0.937   3.738
89549SOL     OW70543   1.157   1.135   5.961
89549SOL    HW170544   1.218   1.187   5.909
89549SOL    HW270545   1.128   1.065   5.903
89550SOL     OW70546   3.170  12.829   6.436
89550SOL    HW170547   3.142  12.920   6.439
89550SOL    HW270548   3.178  12.804   6.529
89551SOL     OW70549  12.441   0.568   7.218
89551SOL    HW170550  12.452   0.478   7.249
89551SOL    HW270551  12.524   0.590   7.176
89552SOL     OW70552   5.681   2.184   2.638
89552SOL    HW170553   5.733   2.200   2.717
89552SOL    HW270554   5.590   2.180   2.670
89553SOL     OW70555   5.875   3.494   8.942
89553SOL    HW170556   5.945   3.539   8.989
89553SOL    HW270557   5.859   3.549   8.864
89554SOL     OW70558  11.653   6.529  12.918
89554SOL    HW170559  11.742   6.553  12.891
89554SOL    HW270560  11.612   6.611  12.943
89555SOL     OW70561  14.051   3.810   6.615
89555SOL    HW170562  14.109   3.875   6.575
89555SOL    HW270563  13.968   3.856   6.626
89556SOL     OW70564  10.296  10.201   3.560
89556SOL    HW170565  10.316  10.166   3.647
89556SOL    HW270566  10.380  10.232   3.527
89557SOL     OW70567   9.371   4.757  14.496
89557SOL    HW170568   9.328   4.680  14.532
89557SOL    HW270569   9.450   4.723  14.453
89558SOL     OW70570   4.591   5.112   4.181
89558SOL    HW170571   4.520   5.175   4.171
89558SOL    HW270572   4.595   5.095   4.275
89559SOL     OW70573   5.861   7.857   1.326
89559SOL    HW170574   5.927   7.829   1.263
89559SOL    HW270575   5.846   7.780   1.381
89560SOL     OW70576   0.770   2.335   6.425
89560SOL    HW170577   0.801   2.307   6.339
89560SOL    HW270578   0.843   2.382   6.463
89561SOL     OW70579   4.805   6.538   1.016
89561SOL    HW170580   4.871   6.490   0.966
89561SOL    HW270581   4.724   6.526   0.967
89562SOL     OW70582   4.576   1.485   2.122
89562SOL    HW170583   4.597   1.397   2.155
89562SOL    HW270584   4.638   1.542   2.168
89563SOL     OW70585   8.691   3.218   1.848
89563SOL    HW170586   8.686   3.128   1.815
89563SOL    HW270587   8.645   3.216   1.932
89564SOL     OW70588  12.484   7.303   0.200
89564SOL    HW170589  12.529   7.317   0.117
89564SOL    HW270590  12.511   7.377   0.255
89565SOL     OW70591   8.608   1.291   8.870
89565SOL    HW170592   8.553   1.222   8.833
89565SOL    HW270593   8.576   1.301   8.960
89566SOL     OW70594   4.663   5.293   7.756
89566SOL    HW170595   4.739   5.321   7.808
89566SOL    HW270596   4.588   5.318   7.809
89567SOL     OW70597  14.463  13.465   9.962
89567SOL    HW170598  14.514  13.528  10.014
89567SOL    HW270599  14.372  13.489   9.981
89568SOL     OW70600  10.932  10.057   0.184
89568SOL    HW170601  10.995  10.021   0.246
89568SOL    HW270602  10.962  10.026   0.098
89569SOL     OW70603  13.348  13.581   8.184
89569SOL    HW170604  13.292  13.555   8.257
89569SOL    HW270605  13.381  13.498   8.149
89570SOL     OW70606   0.578   3.779   2.833
89570SOL    HW170607   0.543   3.705   2.785
89570SOL    HW270608   0.672   3.779   2.813
89571SOL     OW70609  14.747   0.290  12.970
89571SOL    HW170610  14.740   0.348  13.046
89571SOL    HW270611  14.816   0.229  12.992
89572SOL     OW70612   6.998  11.357  12.117
89572SOL    HW170613   6.926  11.327  12.062
89572SOL    HW270614   7.039  11.427  12.067
89573SOL     OW70615   6.504   8.609  11.858
89573SOL    HW170616   6.519   8.525  11.902
89573SOL    HW270617   6.587   8.656  11.867
89574SOL     OW70618   4.645   2.830  13.865
89574SOL    HW170619   4.562   2.872  13.844
89574SOL    HW270620   4.699   2.900  13.903
89575SOL     OW70621   5.086   4.204   9.000
89575SOL    HW170622   5.117   4.271   9.061
89575SOL    HW270623   5.006   4.171   9.039
89576SOL     OW70624  12.287  10.851  10.469
89576SOL    HW170625  12.224  10.854  10.541
89576SOL    HW270626  12.347  10.923  10.486
89577SOL     OW70627   0.799   7.644  10.186
89577SOL    HW170628   0.879   7.634  10.238
89577SOL    HW270629   0.735   7.678  10.248
89578SOL     OW70630  13.047  12.858   4.222
89578SOL    HW170631  13.085  12.770   4.233
89578SOL    HW270632  13.099  12.914   4.279
89579SOL     OW70633   1.758  13.910   4.058
89579SOL    HW170634   1.706  13.846   4.008
89579SOL    HW270635   1.798  13.965   3.991
89580SOL     OW70636  11.673   7.590  12.296
89580SOL    HW170637  11.636   7.672  12.328
89580SOL    HW270638  11.659   7.527  12.367
89581SOL     OW70639   9.357   8.193  10.018
89581SOL    HW170640   9.321   8.160   9.936
89581SOL    HW270641   9.434   8.243   9.992
89582SOL     OW70642   7.982  11.092   2.432
89582SOL    HW170643   7.933  11.037   2.371
89582SOL    HW270644   7.983  11.179   2.390
89583SOL     OW70645   3.550  12.304   1.160
89583SOL    HW170646   3.516  12.319   1.072
89583SOL    HW270647   3.506  12.224   1.189
89584SOL     OW70648   7.127   9.399  12.813
89584SOL    HW170649   7.192   9.340  12.852
89584SOL    HW270650   7.175   9.447  12.746
89585SOL     OW70651  11.645   4.704   6.784
89585SOL    HW170652  11.568   4.685   6.730
89585SOL    HW270653  11.664   4.796   6.767
89586SOL     OW70654   5.421   0.819  11.721
89586SOL    HW170655   5.363   0.776  11.784
89586SOL    HW270656   5.503   0.832  11.769
89587SOL     OW70657   4.579   9.567   3.667
89587SOL    HW170658   4.654   9.519   3.700
89587SOL    HW270659   4.508   9.549   3.729
89588SOL     OW70660   5.088  11.789   3.904
89588SOL    HW170661   5.153  11.783   3.973
89588SOL    HW270662   5.030  11.860   3.932
89589SOL     OW70663   0.973   2.503   8.845
89589SOL    HW170664   0.996   2.573   8.785
89589SOL    HW270665   1.045   2.441   8.840
89590SOL     OW70666   4.132   9.859  10.668
89590SOL    HW170667   4.151   9.874  10.575
89590SOL    HW270668   4.192   9.788  10.693
89591SOL     OW70669   7.985   5.043   4.360
89591SOL    HW170670   7.904   5.037   4.310
89591SOL    HW270671   7.959   5.024   4.450
89592SOL     OW70672   9.574   3.994   0.563
89592SOL    HW170673   9.607   4.072   0.608
89592SOL    HW270674   9.588   4.011   0.470
89593SOL     OW70675  12.408  10.675   8.374
89593SOL    HW170676  12.381  10.758   8.334
89593SOL    HW270677  12.332  10.618   8.363
89594SOL     OW70678   6.189   7.071   9.885
89594SOL    HW170679   6.224   7.092   9.798
89594SOL    HW270680   6.099   7.104   9.883
89595SOL     OW70681   6.735   4.454   9.796
89595SOL    HW170682   6.761   4.546   9.791
89595SOL    HW270683   6.640   4.456   9.798
89596SOL     OW70684   3.238  10.799   3.577
89596SOL    HW170685   3.184  10.721   3.587
89596SOL    HW270686   3.303  10.775   3.511
89597SOL     OW70687   4.486   3.524   4.232
89597SOL    HW170688   4.575   3.545   4.263
89597SOL    HW270689   4.488   3.548   4.139
89598SOL     OW70690   7.439   3.761  11.858
89598SOL    HW170691   7.398   3.707  11.926
89598SOL    HW270692   7.396   3.735  11.777
89599SOL     OW70693   3.217  13.282  14.866
89599SOL    HW170694   3.206  13.209   0.046
89599SOL    HW270695   3.275  13.248  14.797
89600SOL     OW70696  14.255   1.367   2.990
89600SOL    HW170697  14.349   1.353   2.999
89600SOL    HW270698  14.234   1.332   2.903
89601SOL     OW70699   6.371   3.782   8.079
89601SOL    HW170700   6.423   3.755   8.155
89601SOL    HW270701   6.392   3.718   8.011
89602SOL     OW70702  14.877   2.232   3.817
89602SOL    HW170703   0.067   2.295   3.802
89602SOL    HW270704  14.800   2.272   3.775
89603SOL     OW70705  12.361   8.359   3.956
89603SOL    HW170706  12.303   8.421   3.911
89603SOL    HW270707  12.302   8.302   4.005
89604SOL     OW70708  12.179   0.744   6.007
89604SOL    HW170709  12.221   0.659   6.020
89604SOL    HW270710  12.223   0.781   5.931
89605SOL     OW70711   2.517  13.953   7.000
89605SOL    HW170712   2.476  13.891   7.060
89605SOL    HW270713   2.458  13.957   6.925
89606SOL     OW70714  14.762   4.177   7.478
89606SOL    HW170715  14.821   4.246   7.508
89606SOL    HW270716  14.786   4.164   7.386
89607SOL     OW70717   8.900   8.860  12.082
89607SOL    HW170718   8.912   8.947  12.045
89607SOL    HW270719   8.973   8.808  12.048
89608SOL     OW70720   4.920   2.145  13.407
89608SOL    HW170721   4.954   2.219  13.357
89608SOL    HW270722   4.990   2.080  13.404
89609SOL     OW70723  14.276   9.328  11.534
89609SOL    HW170724  14.345   9.385  11.568
89609SOL    HW270725  14.276   9.252  11.593
89610SOL     OW70726   4.269   5.463   7.118
89610SOL    HW170727   4.227   5.497   7.198
89610SOL    HW270728   4.351   5.424   7.149
89611SOL     OW70729   1.350   0.925   6.646
89611SOL    HW170730   1.295   0.992   6.605
89611SOL    HW270731   1.287   0.864   6.685
89612SOL     OW70732   0.402   4.741  12.560
89612SOL    HW170733   0.362   4.689  12.630
89612SOL    HW270734   0.495   4.721  12.565
89613SOL     OW70735   0.380  12.598  11.701
89613SOL    HW170736   0.378  12.669  11.764
89613SOL    HW270737   0.339  12.524  11.747
89614SOL     OW70738  10.203   4.235  13.621
89614SOL    HW170739  10.286   4.204  13.584
89614SOL    HW270740  10.140   4.167  13.599
89615SOL     OW70741   2.866  11.626  10.046
89615SOL    HW170742   2.900  11.569   9.978
89615SOL    HW270743   2.772  11.609  10.047
89616SOL     OW70744   4.508  13.345  14.659
89616SOL    HW170745   4.416  13.328  14.678
89616SOL    HW270746   4.556  13.310  14.734
89617SOL     OW70747   8.662   8.569   5.573
89617SOL    HW170748   8.749   8.540   5.548
89617SOL    HW270749   8.655   8.545   5.666
89618SOL     OW70750   8.464   4.050   7.242
89618SOL    HW170751   8.449   4.114   7.312
89618SOL    HW270752   8.378   4.038   7.202
89619SOL     OW70753  10.157   5.424  10.230
89619SOL    HW170754  10.175   5.346  10.283
89619SOL    HW270755  10.191   5.402  10.143
89620SOL     OW70756   2.526  12.755  13.569
89620SOL    HW170757   2.610  12.761  13.615
89620SOL    HW270758   2.549  12.734  13.479
89621SOL     OW70759  12.684  10.641   8.350
89621SOL    HW170760  12.717  10.655   8.439
89621SOL    HW270761  12.589  10.651   8.357
89622SOL     OW70762  14.850  11.271  11.594
89622SOL    HW170763   0.028  11.306  11.527
89622SOL    HW270764   0.013  11.190  11.622
89623SOL     OW70765   9.589   1.366   1.133
89623SOL    HW170766   9.619   1.423   1.204
89623SOL    HW270767   9.645   1.389   1.059
89624SOL     OW70768  13.229   0.731   0.366
89624SOL    HW170769  13.293   0.739   0.294
89624SOL    HW270770  13.169   0.663   0.337
89625SOL     OW70771   5.961  11.471   9.277
89625SOL    HW170772   5.924  11.505   9.196
89625SOL    HW270773   6.053  11.456   9.257
89626SOL     OW70774   2.346   8.411  13.578
89626SOL    HW170775   2.308   8.421  13.491
89626SOL    HW270776   2.439   8.427  13.566
89627SOL     OW70777   4.800   3.900   9.309
89627SOL    HW170778   4.751   3.872   9.386
89627SOL    HW270779   4.857   3.826   9.288
89628SOL     OW70780   1.751   1.073   1.472
89628SOL    HW170781   1.728   1.159   1.508
89628SOL    HW270782   1.790   1.092   1.387
89629SOL     OW70783   0.470   9.771  11.823
89629SOL    HW170784   0.552   9.783  11.870
89629SOL    HW270785   0.411   9.732  11.887
89630SOL     OW70786   8.854   0.153  10.469
89630SOL    HW170787   8.944   0.143  10.500
89630SOL    HW270788   8.811   0.071  10.494
89631SOL     OW70789   7.280   5.312   6.005
89631SOL    HW170790   7.251   5.315   5.913
89631SOL    HW270791   7.221   5.372   6.050
89632SOL     OW70792   0.052   9.869  11.986
89632SOL    HW170793   0.047   9.869  12.081
89632SOL    HW270794  14.870   9.935  11.957
89633SOL     OW70795   1.665  13.562   7.177
89633SOL    HW170796   1.664  13.554   7.272
89633SOL    HW270797   1.745  13.611   7.157
89634SOL     OW70798   4.635  11.583  13.900
89634SOL    HW170799   4.730  11.594  13.908
89634SOL    HW270800   4.608  11.552  13.986
89635SOL     OW70801   3.677  10.409  11.427
89635SOL    HW170802   3.639  10.363  11.352
89635SOL    HW270803   3.716  10.341  11.481
89636SOL     OW70804   8.176   9.952   3.788
89636SOL    HW170805   8.214   9.910   3.711
89636SOL    HW270806   8.104   9.894   3.812
89637SOL     OW70807   7.409   8.712   6.974
89637SOL    HW170808   7.347   8.643   6.950
89637SOL    HW270809   7.370   8.754   7.050
89638SOL     OW70810   3.369  11.565   1.004
89638SOL    HW170811   3.423  11.518   0.941
89638SOL    HW270812   3.297  11.601   0.952
89639SOL     OW70813   2.978   6.119   3.917
89639SOL    HW170814   2.897   6.165   3.893
89639SOL    HW270815   3.021   6.177   3.980
89640SOL     OW70816   0.597  12.285   0.317
89640SOL    HW170817   0.595  12.311   0.409
89640SOL    HW270818   0.679  12.321   0.283
89641SOL     OW70819   2.717   9.173   3.163
89641SOL    HW170820   2.699   9.144   3.073
89641SOL    HW270821   2.801   9.133   3.184
89642SOL     OW70822   3.008   7.370   0.876
89642SOL    HW170823   3.023   7.279   0.899
89642SOL    HW270824   2.966   7.409   0.953
89643SOL     OW70825  10.684  14.569   5.726
89643SOL    HW170826  10.706  14.646   5.674
89643SOL    HW270827  10.696  14.495   5.667
89644SOL     OW70828   6.503   5.389   5.198
89644SOL    HW170829   6.484   5.396   5.104
89644SOL    HW270830   6.542   5.474   5.220
89645SOL     OW70831   8.969  13.488   7.051
89645SOL    HW170832   8.936  13.424   6.988
89645SOL    HW270833   8.947  13.573   7.013
89646SOL     OW70834   3.596   8.322  11.430
89646SOL    HW170835   3.556   8.251  11.480
89646SOL    HW270836   3.690   8.312  11.445
89647SOL     OW70837  14.546  11.893   7.779
89647SOL    HW170838  14.621  11.880   7.838
89647SOL    HW270839  14.474  11.847   7.822
89648SOL     OW70840  12.535  12.561  10.350
89648SOL    HW170841  12.578  12.646  10.339
89648SOL    HW270842  12.443  12.577  10.328
89649SOL     OW70843  10.127  11.109  10.060
89649SOL    HW170844  10.169  11.106   9.974
89649SOL    HW270845  10.124  11.018  10.089
89650SOL     OW70846   5.769   4.649   6.856
89650SOL    HW170847   5.726   4.678   6.776
89650SOL    HW270848   5.822   4.723   6.884
89651SOL     OW70849   5.770   5.592   7.375
89651SOL    HW170850   5.820   5.561   7.451
89651SOL    HW270851   5.708   5.522   7.357
89652SOL     OW70852   9.819  14.367  11.905
89652SOL    HW170853   9.905  14.408  11.905
89652SOL    HW270854   9.823  14.303  11.976
89653SOL     OW70855   6.049   8.349   9.329
89653SOL    HW170856   5.997   8.302   9.394
89653SOL    HW270857   6.054   8.438   9.362
89654SOL     OW70858   8.206   7.063   2.007
89654SOL    HW170859   8.149   7.088   2.080
89654SOL    HW270860   8.183   7.123   1.937
89655SOL     OW70861   1.170  13.925   3.885
89655SOL    HW170862   1.253  13.888   3.917
89655SOL    HW270863   1.169  13.904   3.791
89656SOL     OW70864   3.586  13.482  11.297
89656SOL    HW170865   3.652  13.424  11.337
89656SOL    HW270866   3.615  13.570  11.318
89657SOL     OW70867  13.410   3.770   9.246
89657SOL    HW170868  13.481   3.758   9.310
89657SOL    HW270869  13.341   3.814   9.296
89658SOL     OW70870   4.390  12.729   5.644
89658SOL    HW170871   4.363  12.660   5.583
89658SOL    HW270872   4.433  12.794   5.589
89659SOL     OW70873   5.814   9.567   9.735
89659SOL    HW170874   5.852   9.622   9.804
89659SOL    HW270875   5.720   9.586   9.739
89660SOL     OW70876  13.161  14.044   5.408
89660SOL    HW170877  13.210  13.964   5.427
89660SOL    HW270878  13.166  14.095   5.489
89661SOL     OW70879   7.341  12.159   6.427
89661SOL    HW170880   7.367  12.214   6.501
89661SOL    HW270881   7.255  12.124   6.452
89662SOL     OW70882   0.192   7.869   6.202
89662SOL    HW170883   0.286   7.862   6.214
89662SOL    HW270884   0.181   7.913   6.118
89663SOL     OW70885   7.151   7.394   0.402
89663SOL    HW170886   7.220   7.339   0.364
89663SOL    HW270887   7.125   7.453   0.331
89664SOL     OW70888  10.757  13.639   7.052
89664SOL    HW170889  10.850  13.662   7.043
89664SOL    HW270890  10.711  13.705   7.001
89665SOL     OW70891  13.982  12.036  10.524
89665SOL    HW170892  14.051  12.030  10.590
89665SOL    HW270893  14.021  12.086  10.453
89666SOL     OW70894   8.919   3.546   5.017
89666SOL    HW170895   8.959   3.612   5.074
89666SOL    HW270896   8.900   3.593   4.936
89667SOL     OW70897   4.591   7.122   1.082
89667SOL    HW170898   4.585   7.210   1.043
89667SOL    HW270899   4.685   7.108   1.095
89668SOL     OW70900   3.003  13.518   6.215
89668SOL    HW170901   3.091  13.546   6.188
89668SOL    HW270902   2.977  13.583   6.281
89669SOL     OW70903   1.293   0.651  11.878
89669SOL    HW170904   1.268   0.574  11.827
89669SOL    HW270905   1.226   0.717  11.857
89670SOL     OW70906   7.271   6.243  14.439
89670SOL    HW170907   7.194   6.188  14.455
89670SOL    HW270908   7.235   6.329  14.417
89671SOL     OW70909  12.102   6.350   3.157
89671SOL    HW170910  12.182   6.390   3.192
89671SOL    HW270911  12.062   6.307   3.233
89672SOL     OW70912  10.804   2.062  10.510
89672SOL    HW170913  10.823   1.992  10.448
89672SOL    HW270914  10.754   2.019  10.580
89673SOL     OW70915  13.948   6.270  13.479
89673SOL    HW170916  14.027   6.232  13.441
89673SOL    HW270917  13.960   6.259  13.574
89674SOL     OW70918  11.896   9.768  12.492
89674SOL    HW170919  11.929   9.739  12.577
89674SOL    HW270920  11.831   9.835  12.514
89675SOL     OW70921   8.249   9.728   1.869
89675SOL    HW170922   8.228   9.749   1.960
89675SOL    HW270923   8.344   9.744   1.862
89676SOL     OW70924   4.796   4.777   0.654
89676SOL    HW170925   4.872   4.724   0.628
89676SOL    HW270926   4.804   4.857   0.603
89677SOL     OW70927   7.041   8.933   6.299
89677SOL    HW170928   7.080   8.969   6.219
89677SOL    HW270929   6.949   8.958   6.295
89678SOL     OW70930  11.853  11.696  12.349
89678SOL    HW170931  11.924  11.756  12.369
89678SOL    HW270932  11.893  11.629  12.294
89679SOL     OW70933  13.284   3.205   4.457
89679SOL    HW170934  13.279   3.110   4.462
89679SOL    HW270935  13.290   3.234   4.548
89680SOL     OW70936   3.383  14.440   5.841
89680SOL    HW170937   3.472  14.477   5.847
89680SOL    HW270938   3.325  14.516   5.853
89681SOL     OW70939   5.723  14.055   3.370
89681SOL    HW170940   5.669  14.072   3.293
89681SOL    HW270941   5.717  14.135   3.422
89682SOL     OW70942   6.452   9.390   8.151
89682SOL    HW170943   6.424   9.441   8.227
89682SOL    HW270944   6.516   9.446   8.107
89683SOL     OW70945   8.772   3.678   2.660
89683SOL    HW170946   8.858   3.685   2.700
89683SOL    HW270947   8.746   3.769   2.643
89684SOL     OW70948   6.038   0.145   2.681
89684SOL    HW170949   6.121   0.166   2.723
89684SOL    HW270950   6.051   0.059   2.642
89685SOL     OW70951   7.563   6.239   5.962
89685SOL    HW170952   7.651   6.278   5.969
89685SOL    HW270953   7.509   6.290   6.023
89686SOL     OW70954   7.864   3.536  12.768
89686SOL    HW170955   7.869   3.441  12.764
89686SOL    HW270956   7.842   3.563  12.679
89687SOL     OW70957  12.625   5.034  10.949
89687SOL    HW170958  12.680   5.016  11.025
89687SOL    HW270959  12.618   4.949  10.904
89688SOL     OW70960   8.157  13.797   2.433
89688SOL    HW170961   8.142  13.845   2.514
89688SOL    HW270962   8.244  13.824   2.405
89689SOL     OW70963   3.175   0.963   9.528
89689SOL    HW170964   3.230   0.941   9.453
89689SOL    HW270965   3.223   1.032   9.574
89690SOL     OW70966   5.303   7.964  12.678
89690SOL    HW170967   5.216   7.925  12.671
89690SOL    HW270968   5.361   7.889  12.693
89691SOL     OW70969  13.271   0.631  11.074
89691SOL    HW170970  13.268   0.548  11.123
89691SOL    HW270971  13.194   0.679  11.105
89692SOL     OW70972  10.736   4.949   9.438
89692SOL    HW170973  10.741   4.934   9.533
89692SOL    HW270974  10.646   4.978   9.424
89693SOL     OW70975   3.791  10.418   4.546
89693SOL    HW170976   3.788  10.392   4.454
89693SOL    HW270977   3.819  10.339   4.592
89694SOL     OW70978   6.597  10.000   1.702
89694SOL    HW170979   6.537   9.968   1.635
89694SOL    HW270980   6.553   9.978   1.785
89695SOL     OW70981   0.774   5.537   2.718
89695SOL    HW170982   0.707   5.490   2.669
89695SOL    HW270983   0.735   5.553   2.804
89696SOL     OW70984  12.638  14.442   1.746
89696SOL    HW170985  12.727  14.436   1.779
89696SOL    HW270986  12.630  14.369   1.684
89697SOL     OW70987   3.147   0.076   6.923
89697SOL    HW170988   3.052   0.066   6.932
89697SOL    HW270989   3.158   0.155   6.871
89698SOL     OW70990   6.892  11.179   8.293
89698SOL    HW170991   6.806  11.163   8.253
89698SOL    HW270992   6.918  11.265   8.260
89699SOL     OW70993   0.945  13.810   9.450
89699SOL    HW170994   0.925  13.849   9.535
89699SOL    HW270995   0.867  13.825   9.397
89700SOL     OW70996   9.892   7.752   3.063
89700SOL    HW170997   9.937   7.792   2.989
89700SOL    HW270998   9.844   7.678   3.025
89701SOL     OW70999   2.150  10.916   3.546
89701SOL    HW171000   2.125  10.934   3.636
89701SOL    HW271001   2.103  10.836   3.524
89702SOL     OW71002   2.846   9.650  11.185
89702SOL    HW171003   2.796   9.594  11.125
89702SOL    HW271004   2.875   9.591  11.254
89703SOL     OW71005   4.773   1.309  13.304
89703SOL    HW171006   4.768   1.230  13.358
89703SOL    HW271007   4.855   1.299  13.254
89704SOL     OW71008   0.318   3.206  11.268
89704SOL    HW171009   0.295   3.297  11.252
89704SOL    HW271010   0.243   3.171  11.316
89705SOL     OW71011   7.222   4.605   9.285
89705SOL    HW171012   7.239   4.521   9.327
89705SOL    HW271013   7.308   4.647   9.279
89706SOL     OW71014  10.973   9.802  13.962
89706SOL    HW171015  11.007   9.731  13.908
89706SOL    HW271016  11.020   9.792  14.045
89707SOL     OW71017  10.110   9.738   3.511
89707SOL    HW171018  10.179   9.694   3.561
89707SOL    HW271019  10.157   9.793   3.448
89708SOL     OW71020   0.643  13.435   3.196
89708SOL    HW171021   0.575  13.455   3.260
89708SOL    HW271022   0.616  13.482   3.117
89709SOL     OW71023   2.041   4.533   0.462
89709SOL    HW171024   2.049   4.594   0.535
89709SOL    HW271025   2.131   4.515   0.436
89710SOL     OW71026   8.754   0.876  11.524
89710SOL    HW171027   8.695   0.910  11.590
89710SOL    HW271028   8.817   0.823  11.573
89711SOL     OW71029   6.957  11.415  10.262
89711SOL    HW171030   6.880  11.469  10.281
89711SOL    HW271031   6.981  11.378  10.347
89712SOL     OW71032   5.795   0.757   5.799
89712SOL    HW171033   5.751   0.752   5.884
89712SOL    HW271034   5.889   0.758   5.821
89713SOL     OW71035   6.382  12.072  11.262
89713SOL    HW171036   6.315  12.140  11.257
89713SOL    HW271037   6.449  12.099  11.199
89714SOL     OW71038  11.804   3.617   1.773
89714SOL    HW171039  11.869   3.641   1.839
89714SOL    HW271040  11.720   3.626   1.818
89715SOL     OW71041   3.591  14.593   5.683
89715SOL    HW171042   3.597  14.515   5.628
89715SOL    HW271043   3.678  14.603   5.721
89716SOL     OW71044   0.861   1.274   6.955
89716SOL    HW171045   0.792   1.266   7.022
89716SOL    HW271046   0.883   1.367   6.955
89717SOL     OW71047   6.938   7.870   5.867
89717SOL    HW171048   6.857   7.886   5.820
89717SOL    HW271049   6.996   7.828   5.802
89718SOL     OW71050  14.025   2.128   1.281
89718SOL    HW171051  14.081   2.168   1.347
89718SOL    HW271052  13.960   2.196   1.261
89719SOL     OW71053   7.608   6.021   2.173
89719SOL    HW171054   7.693   5.996   2.209
89719SOL    HW271055   7.556   6.047   2.249
89720SOL     OW71056  10.791   0.187   3.589
89720SOL    HW171057  10.771   0.195   3.495
89720SOL    HW271058  10.880   0.152   3.591
89721SOL     OW71059   2.422   6.331   8.832
89721SOL    HW171060   2.464   6.248   8.808
89721SOL    HW271061   2.487   6.375   8.886
89722SOL     OW71062   8.485  12.795   0.487
89722SOL    HW171063   8.540  12.739   0.432
89722SOL    HW271064   8.403  12.746   0.495
89723SOL     OW71065   2.685   3.382   2.684
89723SOL    HW171066   2.753   3.349   2.743
89723SOL    HW271067   2.667   3.310   2.624
89724SOL     OW71068   0.846  10.572   6.038
89724SOL    HW171069   0.862  10.520   5.959
89724SOL    HW271070   0.865  10.662   6.012
89725SOL     OW71071  10.493   5.844   8.199
89725SOL    HW171072  10.508   5.754   8.170
89725SOL    HW271073  10.557   5.858   8.269
89726SOL     OW71074  11.163   1.164   0.874
89726SOL    HW171075  11.163   1.254   0.841
89726SOL    HW271076  11.200   1.171   0.962
89727SOL     OW71077   1.030   9.626   7.342
89727SOL    HW171078   1.053   9.686   7.413
89727SOL    HW271079   0.953   9.578   7.374
89728SOL     OW71080   6.138   5.574   6.786
89728SOL    HW171081   6.092   5.499   6.821
89728SOL    HW271082   6.088   5.598   6.708
89729SOL     OW71083   3.260   0.237  13.796
89729SOL    HW171084   3.307   0.295  13.857
89729SOL    HW271085   3.172   0.229  13.833
89730SOL     OW71086  13.574   3.346   3.926
89730SOL    HW171087  13.661   3.370   3.959
89730SOL    HW271088  13.533   3.430   3.903
89731SOL     OW71089   0.146   0.792  13.465
89731SOL    HW171090   0.065   0.805  13.417
89731SOL    HW271091   0.214   0.831  13.408
89732SOL     OW71092   1.983  14.363   4.478
89732SOL    HW171093   1.988  14.277   4.438
89732SOL    HW271094   1.931  14.350   4.557
89733SOL     OW71095  14.619   0.460   2.565
89733SOL    HW171096  14.541   0.405   2.568
89733SOL    HW271097  14.635   0.474   2.472
89734SOL     OW71098  10.207   0.711   5.321
89734SOL    HW171099  10.270   0.640   5.332
89734SOL    HW271100  10.254   0.790   5.349
89735SOL     OW71101  12.253  12.912   1.035
89735SOL    HW171102  12.334  12.947   1.072
89735SOL    HW271103  12.279  12.833   0.989
89736SOL     OW71104   2.770  12.609  10.713
89736SOL    HW171105   2.754  12.636  10.623
89736SOL    HW271106   2.857  12.644  10.734
89737SOL     OW71107  11.582   8.616   6.611
89737SOL    HW171108  11.514   8.552   6.635
89737SOL    HW271109  11.565   8.690   6.669
89738SOL     OW71110   8.987   4.252  11.632
89738SOL    HW171111   8.899   4.268  11.598
89738SOL    HW271112   8.973   4.199  11.710
89739SOL     OW71113   1.865   0.208  11.249
89739SOL    HW171114   1.930   0.172  11.310
89739SOL    HW271115   1.903   0.290  11.219
89740SOL     OW71116   0.209  11.266   1.184
89740SOL    HW171117   0.249  11.284   1.099
89740SOL    HW271118   0.188  11.353   1.218
89741SOL     OW71119  10.099   0.377   4.260
89741SOL    HW171120  10.124   0.469   4.269
89741SOL    HW271121  10.073   0.368   4.169
89742SOL     OW71122   2.851   6.641  13.206
89742SOL    HW171123   2.764   6.605  13.189
89742SOL    HW271124   2.902   6.566  13.237
89743SOL     OW71125   3.434   6.879   2.365
89743SOL    HW171126   3.453   6.836   2.448
89743SOL    HW271127   3.486   6.830   2.301
89744SOL     OW71128  10.617  13.883  10.564
89744SOL    HW171129  10.592  13.970  10.534
89744SOL    HW271130  10.653  13.840  10.486
89745SOL     OW71131   0.001   8.801  14.496
89745SOL    HW171132  14.825   8.860  14.546
89745SOL    HW271133   0.012   8.845  14.412
89746SOL     OW71134   7.060  13.780   8.313
89746SOL    HW171135   7.085  13.855   8.259
89746SOL    HW271136   7.104  13.705   8.273
89747SOL     OW71137  12.649   3.582  14.342
89747SOL    HW171138  12.627   3.630  14.262
89747SOL    HW271139  12.564   3.550  14.375
89748SOL     OW71140   1.320   4.943   4.494
89748SOL    HW171141   1.262   4.951   4.570
89748SOL    HW271142   1.278   4.995   4.426
89749SOL     OW71143   8.464  14.762   0.426
89749SOL    HW171144   8.409  14.817   0.369
89749SOL    HW271145   8.410  14.746   0.503
89750SOL     OW71146  12.098   8.140   9.261
89750SOL    HW171147  12.091   8.179   9.348
89750SOL    HW271148  12.040   8.192   9.206
89751SOL     OW71149  11.282   4.758  13.281
89751SOL    HW171150  11.244   4.701  13.214
89751SOL    HW271151  11.352   4.706  13.320
89752SOL     OW71152  13.119   2.882   5.805
89752SOL    HW171153  13.184   2.951   5.792
89752SOL    HW271154  13.115   2.836   5.721
89753SOL     OW71155  10.958   2.820   2.970
89753SOL    HW171156  10.905   2.785   3.042
89753SOL    HW271157  10.896   2.870   2.917
89754SOL     OW71158  10.747   0.524  12.314
89754SOL    HW171159  10.732   0.614  12.283
89754SOL    HW271160  10.809   0.488  12.251
89755SOL     OW71161   5.249   6.688   4.015
89755SOL    HW171162   5.327   6.633   4.014
89755SOL    HW271163   5.242   6.722   3.925
89756SOL     OW71164  14.663  13.961   4.072
89756SOL    HW171165  14.636  13.995   3.986
89756SOL    HW271166  14.742  14.010   4.094
89757SOL     OW71167   1.313  10.356   0.924
89757SOL    HW171168   1.231  10.321   0.960
89757SOL    HW271169   1.337  10.295   0.855
89758SOL     OW71170   6.059   7.577   7.114
89758SOL    HW171171   6.149   7.595   7.088
89758SOL    HW271172   6.007   7.596   7.035
89759SOL     OW71173   9.503   2.158  12.569
89759SOL    HW171174   9.507   2.091  12.638
89759SOL    HW271175   9.545   2.117  12.494
89760SOL     OW71176   5.942   4.065   7.545
89760SOL    HW171177   5.949   4.108   7.630
89760SOL    HW271178   5.848   4.061   7.528
89761SOL     OW71179   8.959   7.083  11.018
89761SOL    HW171180   9.021   7.142  10.976
89761SOL    HW271181   8.874   7.127  11.010
89762SOL     OW71182   8.103   4.400   8.638
89762SOL    HW171183   8.072   4.324   8.687
89762SOL    HW271184   8.063   4.390   8.551
89763SOL     OW71185   7.563   6.304   4.323
89763SOL    HW171186   7.564   6.280   4.416
89763SOL    HW271187   7.599   6.227   4.278
89764SOL     OW71188   5.959   9.772  14.041
89764SOL    HW171189   5.918   9.721  13.971
89764SOL    HW271190   5.968   9.710  14.113
89765SOL     OW71191   1.873   6.355   1.404
89765SOL    HW171192   1.914   6.328   1.486
89765SOL    HW271193   1.900   6.446   1.393
89766SOL     OW71194   1.127  10.388  13.442
89766SOL    HW171195   1.051  10.436  13.475
89766SOL    HW271196   1.140  10.318  13.506
89767SOL     OW71197   4.129   7.596   1.820
89767SOL    HW171198   4.092   7.543   1.891
89767SOL    HW271199   4.222   7.571   1.817
89768SOL     OW71200  11.502  12.113  14.642
89768SOL    HW171201  11.493  12.157  14.726
89768SOL    HW271202  11.578  12.156  14.601
89769SOL     OW71203  14.033   1.849  13.747
89769SOL    HW171204  14.118   1.848  13.703
89769SOL    HW271205  13.971   1.872  13.678
89770SOL     OW71206  13.867   0.808   5.924
89770SOL    HW171207  13.920   0.779   5.850
89770SOL    HW271208  13.837   0.895   5.900
89771SOL     OW71209  11.862   8.581  14.746
89771SOL    HW171210  11.850   8.662  14.795
89771SOL    HW271211  11.779   8.568  14.700
89772SOL     OW71212  10.532  14.121  11.277
89772SOL    HW171213  10.516  14.211  11.247
89772SOL    HW271214  10.611  14.094  11.231
89773SOL     OW71215   0.187   7.679   7.392
89773SOL    HW171216   0.234   7.697   7.473
89773SOL    HW271217   0.110   7.735   7.395
89774SOL     OW71218   3.387   8.604   0.252
89774SOL    HW171219   3.466   8.656   0.267
89774SOL    HW271220   3.390   8.581   0.159
89775SOL     OW71221   4.401  12.222  14.413
89775SOL    HW171222   4.489  12.258  14.401
89775SOL    HW271223   4.415  12.128  14.425
89776SOL     OW71224   9.617   8.898   2.681
89776SOL    HW171225   9.690   8.842   2.655
89776SOL    HW271226   9.608   8.883   2.776
89777SOL     OW71227   0.242  10.424   4.246
89777SOL    HW171228   0.264  10.408   4.338
89777SOL    HW271229   0.305  10.489   4.217
89778SOL     OW71230   6.034   0.800  14.138
89778SOL    HW171231   5.988   0.747  14.073
89778SOL    HW271232   6.065   0.736  14.203
89779SOL     OW71233   1.371   2.782  13.223
89779SOL    HW171234   1.309   2.788  13.150
89779SOL    HW271235   1.436   2.850  13.206
89780SOL     OW71236   2.885   2.468   0.179
89780SOL    HW171237   2.864   2.381   0.145
89780SOL    HW271238   2.928   2.513   0.106
89781SOL     OW71239  13.734  12.489   9.727
89781SOL    HW171240  13.757  12.459   9.639
89781SOL    HW271241  13.706  12.580   9.715
89782SOL     OW71242   2.734   1.413   8.800
89782SOL    HW171243   2.798   1.466   8.847
89782SOL    HW271244   2.651   1.433   8.841
89783SOL     OW71245  13.540  12.458  14.878
89783SOL    HW171246  13.613  12.513   0.027
89783SOL    HW271247  13.571  12.415  14.799
89784SOL     OW71248   2.272  13.086  13.092
89784SOL    HW171249   2.190  13.039  13.104
89784SOL    HW271250   2.327  13.058  13.165
89785SOL     OW71251  11.201   3.112  12.218
89785SOL    HW171252  11.148   3.074  12.288
89785SOL    HW271253  11.292   3.100  12.246
89786SOL     OW71254   9.443   6.348  12.585
89786SOL    HW171255   9.363   6.344  12.636
89786SOL    HW271256   9.413   6.354  12.494
89787SOL     OW71257  10.846  12.351   2.150
89787SOL    HW171258  10.903  12.404   2.206
89787SOL    HW271259  10.900  12.332   2.073
89788SOL     OW71260  14.678  12.146  12.431
89788SOL    HW171261  14.606  12.205  12.410
89788SOL    HW271262  14.673  12.133  12.525
89789SOL     OW71263   9.644  14.018   8.729
89789SOL    HW171264   9.601  13.938   8.698
89789SOL    HW271265   9.699  13.989   8.802
89790SOL     OW71266   8.335   3.497   6.289
89790SOL    HW171267   8.246   3.515   6.258
89790SOL    HW271268   8.332   3.512   6.383
89791SOL     OW71269   9.310  10.820  12.275
89791SOL    HW171270   9.354  10.895  12.315
89791SOL    HW271271   9.365  10.797  12.200
89792SOL     OW71272   0.666   6.624   2.938
89792SOL    HW171273   0.699   6.656   2.854
89792SOL    HW271274   0.718   6.546   2.956
89793SOL     OW71275  14.332  13.616   6.470
89793SOL    HW171276  14.417  13.573   6.460
89793SOL    HW271277  14.287  13.564   6.536
89794SOL     OW71278   4.412   1.856   8.215
89794SOL    HW171279   4.379   1.766   8.212
89794SOL    HW271280   4.416   1.877   8.309
89795SOL     OW71281   5.351   5.180  10.864
89795SOL    HW171282   5.278   5.118  10.862
89795SOL    HW271283   5.321   5.255  10.813
89796SOL     OW71284  14.095   0.028   1.576
89796SOL    HW171285  14.138  14.848   1.515
89796SOL    HW271286  14.057  14.851   1.643
89797SOL     OW71287  13.239   6.271   2.898
89797SOL    HW171288  13.239   6.355   2.851
89797SOL    HW271289  13.224   6.295   2.989
89798SOL     OW71290  14.364   5.167  11.393
89798SOL    HW171291  14.447   5.173  11.439
89798SOL    HW271292  14.357   5.074  11.369
89799SOL     OW71293   6.258   3.831  13.683
89799SOL    HW171294   6.179   3.789  13.649
89799SOL    HW271295   6.240   3.925  13.676
89800SOL     OW71296  14.686  11.027   5.257
89800SOL    HW171297  14.753  10.998   5.319
89800SOL    HW271298  14.615  10.963   5.268
89801SOL     OW71299   9.409  11.703   9.852
89801SOL    HW171300   9.387  11.732   9.941
89801SOL    HW271301   9.496  11.741   9.837
89802SOL     OW71302   7.610  11.649   0.077
89802SOL    HW171303   7.701  11.674   0.066
89802SOL    HW271304   7.567  11.679  14.876
89803SOL     OW71305   5.363  11.644  10.905
89803SOL    HW171306   5.442  11.601  10.872
89803SOL    HW271307   5.299  11.574  10.915
89804SOL     OW71308   9.925  11.104   2.582
89804SOL    HW171309   9.851  11.130   2.527
89804SOL    HW271310   9.904  11.141   2.668
89805SOL     OW71311   3.711   5.267   1.923
89805SOL    HW171312   3.729   5.184   1.966
89805SOL    HW271313   3.758   5.261   1.839
89806SOL     OW71314   2.154  11.164  14.569
89806SOL    HW171315   2.100  11.216  14.510
89806SOL    HW271316   2.231  11.140  14.516
89807SOL     OW71317  10.778   5.264  12.848
89807SOL    HW171318  10.714   5.215  12.796
89807SOL    HW271319  10.729   5.339  12.881
89808SOL     OW71320  10.709  10.005  11.219
89808SOL    HW171321  10.768  10.074  11.189
89808SOL    HW271322  10.654   9.986  11.143
89809SOL     OW71323  11.045  10.574  10.780
89809SOL    HW171324  11.079  10.520  10.852
89809SOL    HW271325  10.987  10.515  10.732
89810SOL     OW71326   4.061   9.928   7.213
89810SOL    HW171327   4.046   9.954   7.304
89810SOL    HW271328   4.027  10.002   7.162
89811SOL     OW71329   1.148   3.058  10.854
89811SOL    HW171330   1.127   3.107  10.774
89811SOL    HW271331   1.243   3.052  10.854
89812SOL     OW71332  11.726   6.514   1.997
89812SOL    HW171333  11.685   6.490   2.080
89812SOL    HW271334  11.706   6.607   1.986
89813SOL     OW71335   6.701   8.738   0.119
89813SOL    HW171336   6.750   8.731   0.037
89813SOL    HW271337   6.728   8.823   0.155
89814SOL     OW71338   5.132  13.208   7.825
89814SOL    HW171339   5.094  13.227   7.739
89814SOL    HW271340   5.227  13.208   7.810
89815SOL     OW71341  13.900  11.577   9.627
89815SOL    HW171342  13.933  11.519   9.696
89815SOL    HW271343  13.805  11.576   9.639
89816SOL     OW71344   7.315   3.233   6.209
89816SOL    HW171345   7.318   3.285   6.289
89816SOL    HW271346   7.406   3.231   6.178
89817SOL     OW71347   7.811   3.515  14.386
89817SOL    HW171348   7.771   3.552  14.307
89817SOL    HW271349   7.889   3.568  14.401
89818SOL     OW71350   6.423   7.621  14.264
89818SOL    HW171351   6.350   7.682  14.273
89818SOL    HW271352   6.501   7.676  14.259
89819SOL     OW71353   1.739   0.913  14.043
89819SOL    HW171354   1.741   0.819  14.064
89819SOL    HW271355   1.646   0.932  14.029
89820SOL     OW71356   4.170  12.008   9.712
89820SOL    HW171357   4.226  11.943   9.753
89820SOL    HW271358   4.083  11.990   9.745
89821SOL     OW71359  11.402   4.954  12.986
89821SOL    HW171360  11.457   4.878  13.003
89821SOL    HW271361  11.314   4.918  12.975
89822SOL     OW71362  10.984   7.939  12.059
89822SOL    HW171363  11.011   7.858  12.017
89822SOL    HW271364  11.038   7.944  12.138
89823SOL     OW71365   1.565   5.044  12.716
89823SOL    HW171366   1.487   4.997  12.686
89823SOL    HW271367   1.618   5.054  12.637
89824SOL     OW71368   2.973   2.564   3.399
89824SOL    HW171369   2.888   2.529   3.424
89824SOL    HW271370   2.958   2.609   3.316
89825SOL     OW71371   1.631  14.101  12.472
89825SOL    HW171372   1.546  14.057  12.472
89825SOL    HW271373   1.695  14.031  12.480
89826SOL     OW71374  14.181   8.469   8.468
89826SOL    HW171375  14.219   8.545   8.425
89826SOL    HW271376  14.088   8.472   8.446
89827SOL     OW71377   6.553   0.092   0.507
89827SOL    HW171378   6.517   0.173   0.471
89827SOL    HW271379   6.518   0.022   0.452
89828SOL     OW71380  10.447   5.437   7.620
89828SOL    HW171381  10.496   5.357   7.600
89828SOL    HW271382  10.376   5.438   7.555
89829SOL     OW71383   3.819   5.512  13.048
89829SOL    HW171384   3.774   5.428  13.036
89829SOL    HW271385   3.814   5.528  13.142
89830SOL     OW71386   8.005  11.544  14.323
89830SOL    HW171387   8.015  11.452  14.299
89830SOL    HW271388   8.091  11.569  14.359
89831SOL     OW71389  11.133  10.266   4.443
89831SOL    HW171390  11.180  10.183   4.456
89831SOL    HW271391  11.076  10.248   4.368
89832SOL     OW71392   7.281   8.154   4.681
89832SOL    HW171393   7.256   8.064   4.662
89832SOL    HW271394   7.247   8.171   4.768
89833SOL     OW71395   6.470   7.724  10.074
89833SOL    HW171396   6.559   7.701  10.102
89833SOL    HW271397   6.424   7.745  10.155
89834SOL     OW71398   7.990   4.446  14.140
89834SOL    HW171399   7.953   4.378  14.197
89834SOL    HW271400   7.917   4.506  14.126
89835SOL     OW71401   8.822   4.987   3.733
89835SOL    HW171402   8.880   4.980   3.809
89835SOL    HW271403   8.735   4.968   3.766
89836SOL     OW71404   3.362  13.339   5.882
89836SOL    HW171405   3.444  13.357   5.928
89836SOL    HW271406   3.297  13.327   5.952
89837SOL     OW71407   7.725   8.774   7.474
89837SOL    HW171408   7.658   8.709   7.496
89837SOL    HW271409   7.677   8.855   7.461
89838SOL     OW71410  14.218   3.947   5.171
89838SOL    HW171411  14.171   3.876   5.216
89838SOL    HW271412  14.151   4.014   5.157
89839SOL     OW71413  13.437  11.924   8.137
89839SOL    HW171414  13.373  11.989   8.106
89839SOL    HW271415  13.393  11.881   8.210
89840SOL     OW71416  13.585   3.154   8.920
89840SOL    HW171417  13.622   3.087   8.862
89840SOL    HW271418  13.506   3.184   8.875
89841SOL     OW71419   4.585   2.534   2.694
89841SOL    HW171420   4.532   2.516   2.616
89841SOL    HW271421   4.667   2.486   2.679
89842SOL     OW71422   8.302  14.268   5.164
89842SOL    HW171423   8.292  14.193   5.105
89842SOL    HW271424   8.216  14.279   5.204
89843SOL     OW71425   7.418  13.619   9.284
89843SOL    HW171426   7.391  13.541   9.236
89843SOL    HW271427   7.488  13.589   9.342
89844SOL     OW71428  11.380   2.231   5.669
89844SOL    HW171429  11.296   2.240   5.624
89844SOL    HW271430  11.439   2.288   5.619
89845SOL     OW71431   7.511  10.713  13.578
89845SOL    HW171432   7.557  10.655  13.517
89845SOL    HW271433   7.455  10.655  13.629
89846SOL     OW71434  10.183   1.100   6.621
89846SOL    HW171435  10.125   1.089   6.546
89846SOL    HW271436  10.152   1.180   6.663
89847SOL     OW71437  13.563   0.617   3.876
89847SOL    HW171438  13.534   0.667   3.800
89847SOL    HW271439  13.493   0.554   3.892
89848SOL     OW71440  14.407   4.322   7.925
89848SOL    HW171441  14.501   4.339   7.937
89848SOL    HW271442  14.398   4.229   7.942
89849SOL     OW71443   8.626   3.995  14.308
89849SOL    HW171444   8.550   4.022  14.360
89849SOL    HW271445   8.589   3.951  14.232
89850SOL     OW71446   7.605  12.900  11.338
89850SOL    HW171447   7.628  12.870  11.426
89850SOL    HW271448   7.515  12.930  11.345
89851SOL     OW71449   8.648   2.675   6.514
89851SOL    HW171450   8.613   2.703   6.429
89851SOL    HW271451   8.587   2.608   6.543
89852SOL     OW71452   0.723   9.630   0.948
89852SOL    HW171453   0.791   9.576   0.909
89852SOL    HW271454   0.657   9.640   0.879
89853SOL     OW71455   4.683  11.372   4.122
89853SOL    HW171456   4.725  11.382   4.207
89853SOL    HW271457   4.737  11.307   4.076
89854SOL     OW71458   2.749   5.846  12.476
89854SOL    HW171459   2.679   5.807  12.423
89854SOL    HW271460   2.829   5.833  12.423
89855SOL     OW71461   2.179   9.636  12.847
89855SOL    HW171462   2.144   9.691  12.917
89855SOL    HW271463   2.232   9.694  12.793
89856SOL     OW71464  11.847   9.909   0.399
89856SOL    HW171465  11.785   9.853   0.353
89856SOL    HW271466  11.883   9.854   0.468
89857SOL     OW71467   0.173   7.141   0.616
89857SOL    HW171468   0.180   7.232   0.648
89857SOL    HW271469   0.262   7.107   0.624
89858SOL     OW71470   0.289   8.183   3.612
89858SOL    HW171471   0.276   8.239   3.536
89858SOL    HW271472   0.201   8.171   3.648
89859SOL     OW71473  10.289  10.334   7.620
89859SOL    HW171474  10.311  10.247   7.587
89859SOL    HW271475  10.204  10.322   7.663
89860SOL     OW71476   2.748  11.300   9.243
89860SOL    HW171477   2.805  11.318   9.318
89860SOL    HW271478   2.664  11.277   9.282
89861SOL     OW71479   4.424   3.192   0.605
89861SOL    HW171480   4.405   3.120   0.666
89861SOL    HW271481   4.353   3.255   0.619
89862SOL     OW71482   9.370  11.927  13.180
89862SOL    HW171483   9.377  12.022  13.172
89862SOL    HW271484   9.276  11.909  13.177
89863SOL     OW71485   1.351   7.273   8.761
89863SOL    HW171486   1.434   7.264   8.807
89863SOL    HW271487   1.298   7.330   8.816
89864SOL     OW71488   6.066  11.998  10.346
89864SOL    HW171489   6.029  12.042  10.269
89864SOL    HW271490   6.143  12.049  10.368
89865SOL     OW71491  13.824  12.272  12.443
89865SOL    HW171492  13.894  12.271  12.379
89865SOL    HW271493  13.764  12.203  12.415
89866SOL     OW71494  14.874   1.943   8.747
89866SOL    HW171495   0.006   1.859   8.704
89866SOL    HW271496   0.082   1.980   8.752
89867SOL     OW71497   0.585   0.611   2.702
89867SOL    HW171498   0.614   0.537   2.756
89867SOL    HW271499   0.613   0.688   2.751
89868SOL     OW71500   4.071   0.371   0.575
89868SOL    HW171501   3.992   0.419   0.602
89868SOL    HW271502   4.048   0.334   0.490
89869SOL     OW71503  14.075   3.998  11.940
89869SOL    HW171504  14.005   4.020  12.002
89869SOL    HW271505  14.054   3.910  11.909
89870SOL     OW71506  11.677   5.132   7.768
89870SOL    HW171507  11.757   5.089   7.798
89870SOL    HW271508  11.610   5.102   7.829
89871SOL     OW71509   7.494   1.867   7.128
89871SOL    HW171510   7.554   1.810   7.176
89871SOL    HW271511   7.426   1.808   7.094
89872SOL     OW71512   9.104   8.612   6.390
89872SOL    HW171513   9.053   8.549   6.441
89872SOL    HW271514   9.189   8.570   6.379
89873SOL     OW71515  12.712   9.438  14.240
89873SOL    HW171516  12.803   9.446  14.266
89873SOL    HW271517  12.710   9.466  14.148
89874SOL     OW71518  10.872   3.214   3.731
89874SOL    HW171519  10.815   3.195   3.656
89874SOL    HW271520  10.890   3.129   3.770
89875SOL     OW71521  12.669   5.001  14.534
89875SOL    HW171522  12.638   4.928  14.480
89875SOL    HW271523  12.762   5.008  14.513
89876SOL     OW71524  13.703   8.092  12.855
89876SOL    HW171525  13.711   8.145  12.776
89876SOL    HW271526  13.790   8.055  12.868
89877SOL     OW71527  12.637  11.011   0.431
89877SOL    HW171528  12.592  11.052   0.506
89877SOL    HW271529  12.726  11.047   0.434
89878SOL     OW71530   2.639  10.442   2.700
89878SOL    HW171531   2.658  10.422   2.608
89878SOL    HW271532   2.549  10.412   2.713
89879SOL     OW71533   0.117   0.339  13.815
89879SOL    HW171534   0.065   0.399  13.869
89879SOL    HW271535   0.163   0.396  13.754
89880SOL     OW71536   4.012  11.556   8.007
89880SOL    HW171537   4.008  11.508   8.090
89880SOL    HW271538   3.997  11.647   8.032
89881SOL     OW71539   8.973   1.137   0.756
89881SOL    HW171540   8.897   1.084   0.729
89881SOL    HW271541   9.004   1.095   0.836
89882SOL     OW71542   7.534   2.690   6.172
89882SOL    HW171543   7.492   2.612   6.134
89882SOL    HW271544   7.586   2.656   6.245
89883SOL     OW71545   5.187   4.208  13.093
89883SOL    HW171546   5.093   4.212  13.112
89883SOL    HW271547   5.229   4.231  13.176
89884SOL     OW71548   4.068   3.355   9.628
89884SOL    HW171549   4.069   3.382   9.536
89884SOL    HW271550   4.160   3.346   9.652
89885SOL     OW71551   3.022   2.883   1.499
89885SOL    HW171552   3.000   2.799   1.538
89885SOL    HW271553   3.026   2.944   1.572
89886SOL     OW71554   6.814  13.489   8.702
89886SOL    HW171555   6.790  13.397   8.711
89886SOL    HW271556   6.889  13.488   8.642
89887SOL     OW71557   1.136   5.054   7.324
89887SOL    HW171558   1.109   5.146   7.318
89887SOL    HW271559   1.181   5.037   7.242
89888SOL     OW71560   5.402  13.873   7.597
89888SOL    HW171561   5.442  13.951   7.635
89888SOL    HW271562   5.452  13.800   7.633
89889SOL     OW71563   1.780   2.487   6.240
89889SOL    HW171564   1.787   2.481   6.335
89889SOL    HW271565   1.870   2.488   6.209
89890SOL     OW71566  12.485  14.210   1.203
89890SOL    HW171567  12.485  14.287   1.260
89890SOL    HW271568  12.472  14.136   1.263
89891SOL     OW71569   0.743  11.767   2.830
89891SOL    HW171570   0.791  11.686   2.810
89891SOL    HW271571   0.713  11.755   2.920
89892SOL     OW71572   6.977   8.601   6.908
89892SOL    HW171573   6.923   8.522   6.908
89892SOL    HW271574   6.965   8.638   6.995
89893SOL     OW71575   2.298   8.286   1.767
89893SOL    HW171576   2.275   8.336   1.845
89893SOL    HW271577   2.215   8.273   1.721
89894SOL     OW71578  10.590   1.750   1.952
89894SOL    HW171579  10.674   1.766   1.910
89894SOL    HW271580  10.534   1.715   1.883
89895SOL     OW71581   1.816   8.294   6.540
89895SOL    HW171582   1.868   8.375   6.548
89895SOL    HW271583   1.765   8.306   6.460
89896SOL     OW71584   7.118  14.311   8.810
89896SOL    HW171585   7.178  14.347   8.876
89896SOL    HW271586   7.052  14.380   8.798
89897SOL     OW71587  12.348   6.865   4.261
89897SOL    HW171588  12.438   6.846   4.236
89897SOL    HW271589  12.339   6.959   4.246
89898SOL     OW71590   7.502  13.043   8.461
89898SOL    HW171591   7.486  13.039   8.555
89898SOL    HW271592   7.548  12.961   8.441
89899SOL     OW71593  11.198  11.147   3.697
89899SOL    HW171594  11.112  11.138   3.738
89899SOL    HW271595  11.244  11.065   3.718
89900SOL     OW71596   2.910   2.654   5.334
89900SOL    HW171597   2.916   2.667   5.240
89900SOL    HW271598   2.820   2.677   5.356
89901SOL     OW71599   6.088  12.852   6.005
89901SOL    HW171600   6.079  12.942   6.036
89901SOL    HW271601   6.030  12.801   6.061
89902SOL     OW71602   1.247   1.824   7.066
89902SOL    HW171603   1.298   1.842   7.146
89902SOL    HW271604   1.305   1.851   6.995
89903SOL     OW71605   9.194   1.956  14.742
89903SOL    HW171606   9.195   2.034  14.797
89903SOL    HW271607   9.238   1.889  14.795
89904SOL     OW71608  10.398   9.417   3.393
89904SOL    HW171609  10.362   9.372   3.316
89904SOL    HW271610  10.375   9.361   3.467
89905SOL     OW71611   0.972   5.276  13.687
89905SOL    HW171612   0.947   5.359  13.727
89905SOL    HW271613   1.026   5.301  13.612
89906SOL     OW71614  12.927  13.618   1.410
89906SOL    HW171615  12.947  13.525   1.402
89906SOL    HW271616  12.955  13.656   1.327
89907SOL     OW71617  10.957  12.871  11.948
89907SOL    HW171618  10.945  12.798  12.009
89907SOL    HW271619  10.975  12.946  12.004
89908SOL     OW71620  10.176  13.901   3.528
89908SOL    HW171621  10.147  13.844   3.601
89908SOL    HW271622  10.247  13.852   3.487
89909SOL     OW71623   8.487   9.830   9.427
89909SOL    HW171624   8.525   9.873   9.350
89909SOL    HW271625   8.459   9.902   9.483
89910SOL     OW71626  13.963   9.873  11.058
89910SOL    HW171627  13.923   9.824  10.987
89910SOL    HW271628  13.888   9.909  11.107
89911SOL     OW71629   2.398  12.754  12.761
89911SOL    HW171630   2.330  12.817  12.736
89911SOL    HW271631   2.448  12.798  12.830
89912SOL     OW71632  10.447  12.777   4.973
89912SOL    HW171633  10.499  12.714   5.023
89912SOL    HW271634  10.360  12.738   4.968
89913SOL     OW71635   8.227  13.839  14.705
89913SOL    HW171636   8.152  13.795  14.666
89913SOL    HW271637   8.302  13.810  14.653
89914SOL     OW71638   6.875   2.607   4.017
89914SOL    HW171639   6.789   2.575   4.044
89914SOL    HW271640   6.887   2.571   3.929
89915SOL     OW71641  12.744  10.319  13.268
89915SOL    HW171642  12.824  10.297  13.316
89915SOL    HW271643  12.689  10.364  13.332
89916SOL     OW71644  12.250   1.482   0.861
89916SOL    HW171645  12.294   1.511   0.782
89916SOL    HW271646  12.160   1.464   0.833
89917SOL     OW71647   2.852   2.503   8.539
89917SOL    HW171648   2.805   2.536   8.615
89917SOL    HW271649   2.887   2.418   8.567
89918SOL     OW71650   7.057   2.428   1.046
89918SOL    HW171651   7.005   2.487   1.099
89918SOL    HW271652   6.999   2.400   0.975
89919SOL     OW71653  14.015  11.171   3.685
89919SOL    HW171654  14.036  11.089   3.641
89919SOL    HW271655  13.942  11.149   3.743
89920SOL     OW71656  13.155   4.339   7.803
89920SOL    HW171657  13.199   4.348   7.719
89920SOL    HW271658  13.072   4.297   7.782
89921SOL     OW71659   4.873   8.499  14.817
89921SOL    HW171660   4.943   8.549  14.774
89921SOL    HW271661   4.896   8.501   0.029
89922SOL     OW71662  13.998   9.904   5.750
89922SOL    HW171663  14.074   9.893   5.807
89922SOL    HW271664  13.923   9.899   5.809
89923SOL     OW71665  13.713  11.796   9.090
89923SOL    HW171666  13.776  11.868   9.092
89923SOL    HW271667  13.762  11.723   9.050
89924SOL     OW71668  10.995   3.094  10.997
89924SOL    HW171669  10.929   3.081  11.064
89924SOL    HW271670  11.025   3.006  10.976
89925SOL     OW71671   1.829  14.076   3.850
89925SOL    HW171672   1.791  14.162   3.833
89925SOL    HW271673   1.881  14.057   3.772
89926SOL     OW71674   5.789   1.307   0.729
89926SOL    HW171675   5.726   1.245   0.691
89926SOL    HW271676   5.737   1.361   0.789
89927SOL     OW71677  11.095  10.792  14.658
89927SOL    HW171678  11.159  10.836  14.603
89927SOL    HW271679  11.106  10.832  14.745
89928SOL     OW71680   6.069  10.113  12.421
89928SOL    HW171681   6.150  10.147  12.382
89928SOL    HW271682   6.098  10.041  12.477
89929SOL     OW71683   4.430  14.667  10.344
89929SOL    HW171684   4.343  14.699  10.370
89929SOL    HW271685   4.467  14.738  10.293
89930SOL     OW71686  11.950  13.561  11.195
89930SOL    HW171687  11.867  13.524  11.226
89930SOL    HW271688  11.959  13.528  11.105
89931SOL     OW71689   9.293   4.933   5.352
89931SOL    HW171690   9.379   4.941   5.310
89931SOL    HW271691   9.293   4.843   5.387
89932SOL     OW71692   8.393  14.216   1.189
89932SOL    HW171693   8.342  14.288   1.226
89932SOL    HW271694   8.476  14.218   1.237
89933SOL     OW71695  13.622  12.060  12.954
89933SOL    HW171696  13.599  11.968  12.961
89933SOL    HW271697  13.543  12.107  12.983
89934SOL     OW71698   2.909   6.431   5.443
89934SOL    HW171699   2.861   6.438   5.525
89934SOL    HW271700   2.907   6.338   5.422
89935SOL     OW71701  14.732   0.309   9.662
89935SOL    HW171702  14.687   0.265   9.734
89935SOL    HW271703  14.824   0.311   9.688
89936SOL     OW71704   4.561  11.397   2.893
89936SOL    HW171705   4.480  11.362   2.857
89936SOL    HW271706   4.630  11.342   2.855
89937SOL     OW71707   3.722   5.307  10.095
89937SOL    HW171708   3.675   5.384  10.065
89937SOL    HW271709   3.770   5.336  10.172
89938SOL     OW71710   8.771   8.045   8.393
89938SOL    HW171711   8.744   8.135   8.375
89938SOL    HW271712   8.727   8.022   8.475
89939SOL     OW71713  11.049   9.204  13.042
89939SOL    HW171714  11.127   9.178  13.091
89939SOL    HW271715  10.988   9.236  13.109
89940SOL     OW71716   5.444  13.507   2.988
89940SOL    HW171717   5.499  13.575   2.948
89940SOL    HW271718   5.401  13.465   2.913
89941SOL     OW71719   7.082   8.754   8.641
89941SOL    HW171720   7.024   8.805   8.698
89941SOL    HW271721   7.170   8.786   8.662
89942SOL     OW71722   9.249  14.614   9.567
89942SOL    HW171723   9.308  14.628   9.641
89942SOL    HW271724   9.161  14.620   9.605
89943SOL     OW71725   2.171  12.027  12.967
89943SOL    HW171726   2.162  12.011  12.874
89943SOL    HW271727   2.082  12.045  12.997
89944SOL     OW71728   1.004  14.520   7.143
89944SOL    HW171729   1.038  14.437   7.176
89944SOL    HW271730   1.017  14.515   7.048
89945SOL     OW71731  11.109  13.828   9.726
89945SOL    HW171732  11.162  13.880   9.666
89945SOL    HW271733  11.019  13.858   9.710
89946SOL     OW71734   0.850  10.383  12.625
89946SOL    HW171735   0.904  10.427  12.559
89946SOL    HW271736   0.843  10.447  12.695
89947SOL     OW71737  14.212   3.679  13.750
89947SOL    HW171738  14.289   3.626  13.767
89947SOL    HW271739  14.160   3.628  13.688
89948SOL     OW71740   1.868  13.700   2.420
89948SOL    HW171741   1.932  13.714   2.490
89948SOL    HW271742   1.917  13.718   2.339
89949SOL     OW71743   5.970   4.971   3.954
89949SOL    HW171744   5.892   5.025   3.965
89949SOL    HW271745   5.987   4.972   3.860
89950SOL     OW71746   7.461  12.248   7.010
89950SOL    HW171747   7.375  12.206   7.016
89950SOL    HW271748   7.442  12.341   6.996
89951SOL     OW71749  13.269  12.738   0.790
89951SOL    HW171750  13.279  12.736   0.694
89951SOL    HW271751  13.183  12.699   0.805
89952SOL     OW71752   8.372   7.193   0.972
89952SOL    HW171753   8.458   7.233   0.959
89952SOL    HW271754   8.329   7.248   1.038
89953SOL     OW71755   8.771   4.974   8.102
89953SOL    HW171756   8.737   4.884   8.106
89953SOL    HW271757   8.833   4.979   8.174
89954SOL     OW71758  13.932  12.021   0.876
89954SOL    HW171759  13.925  11.992   0.967
89954SOL    HW271760  13.946  12.115   0.881
89955SOL     OW71761   0.996   4.255   4.451
89955SOL    HW171762   1.059   4.307   4.501
89955SOL    HW271763   0.912   4.272   4.495
89956SOL     OW71764   9.788   8.011   9.231
89956SOL    HW171765   9.751   8.092   9.196
89956SOL    HW271766   9.742   7.941   9.183
89957SOL     OW71767   1.029  12.829  12.951
89957SOL    HW171768   1.004  12.741  12.925
89957SOL    HW271769   0.948  12.879  12.947
89958SOL     OW71770   4.900   3.424   1.085
89958SOL    HW171771   4.874   3.399   1.173
89958SOL    HW271772   4.945   3.346   1.051
89959SOL     OW71773   6.535  14.437   6.899
89959SOL    HW171774   6.519  14.347   6.930
89959SOL    HW271775   6.595  14.426   6.824
89960SOL     OW71776  14.683   1.565   3.095
89960SOL    HW171777  14.717   1.477   3.076
89960SOL    HW271778  14.735   1.595   3.170
89961SOL     OW71779   7.803   2.862  14.783
89961SOL    HW171780   7.848   2.943  14.759
89961SOL    HW271781   7.718   2.891  14.817
89962SOL     OW71782  12.903   2.405   9.264
89962SOL    HW171783  12.942   2.323   9.234
89962SOL    HW271784  12.851   2.436   9.189
89963SOL     OW71785   4.614  14.738   4.585
89963SOL    HW171786   4.689  14.761   4.531
89963SOL    HW271787   4.541  14.787   4.547
89964SOL     OW71788   8.672  14.732   3.749
89964SOL    HW171789   8.758  14.744   3.789
89964SOL    HW271790   8.644  14.645   3.777
89965SOL     OW71791   8.513   4.337   6.594
89965SOL    HW171792   8.487   4.307   6.507
89965SOL    HW271793   8.552   4.423   6.578
89966SOL     OW71794  10.344  10.069   5.991
89966SOL    HW171795  10.319  10.017   6.067
89966SOL    HW271796  10.264  10.077   5.940
89967SOL     OW71797   2.821  14.848  10.254
89967SOL    HW171798   2.779   0.044  10.293
89967SOL    HW271799   2.754  14.810  10.198
89968SOL     OW71800   2.020   6.957   5.063
89968SOL    HW171801   2.078   7.033   5.049
89968SOL    HW271802   1.940   6.994   5.099
89969SOL     OW71803  10.231  12.096   1.497
89969SOL    HW171804  10.214  12.140   1.580
89969SOL    HW271805  10.314  12.132   1.466
89970SOL     OW71806   9.837   4.250   7.353
89970SOL    HW171807   9.764   4.309   7.331
89970SOL    HW271808   9.845   4.193   7.277
89971SOL     OW71809  11.750  10.220   4.612
89971SOL    HW171810  11.789  10.154   4.555
89971SOL    HW271811  11.744  10.298   4.557
89972SOL     OW71812   1.712   1.062   9.938
89972SOL    HW171813   1.799   1.100   9.950
89972SOL    HW271814   1.728   0.967   9.934
89973SOL     OW71815   0.404   8.893   4.005
89973SOL    HW171816   0.386   8.904   4.098
89973SOL    HW271817   0.323   8.858   3.968
89974SOL     OW71818   1.055   1.905   0.597
89974SOL    HW171819   1.134   1.956   0.577
89974SOL    HW271820   0.991   1.934   0.532
89975SOL     OW71821  10.367   5.949   8.887
89975SOL    HW171822  10.341   6.019   8.948
89975SOL    HW271823  10.463   5.945   8.895
89976SOL     OW71824  13.312  11.639   5.779
89976SOL    HW171825  13.299  11.715   5.722
89976SOL    HW271826  13.223  11.611   5.802
89977SOL     OW71827   1.683  11.758  12.712
89977SOL    HW171828   1.705  11.846  12.741
89977SOL    HW271829   1.752  11.735  12.650
89978SOL     OW71830  14.695   3.733   7.954
89978SOL    HW171831  14.783   3.708   7.983
89978SOL    HW271832  14.709   3.816   7.907
89979SOL     OW71833   5.050  14.382  11.349
89979SOL    HW171834   5.107  14.425  11.286
89979SOL    HW271835   5.070  14.424  11.433
89980SOL     OW71836   3.919   1.837  11.733
89980SOL    HW171837   3.836   1.798  11.707
89980SOL    HW271838   3.894   1.917  11.781
89981SOL     OW71839   6.741   5.183   6.552
89981SOL    HW171840   6.773   5.140   6.631
89981SOL    HW271841   6.657   5.220   6.577
89982SOL     OW71842   6.868   4.382   5.034
89982SOL    HW171843   6.887   4.387   5.127
89982SOL    HW271844   6.844   4.290   5.019
89983SOL     OW71845  12.143   8.662  13.520
89983SOL    HW171846  12.216   8.708  13.561
89983SOL    HW271847  12.176   8.638  13.433
89984SOL     OW71848   4.859   7.032   1.953
89984SOL    HW171849   4.888   7.058   1.866
89984SOL    HW271850   4.937   7.043   2.008
89985SOL     OW71851  13.790   1.122   1.280
89985SOL    HW171852  13.836   1.191   1.232
89985SOL    HW271853  13.844   1.043   1.265
89986SOL     OW71854   4.720  14.298  14.315
89986SOL    HW171855   4.692  14.233  14.381
89986SOL    HW271856   4.661  14.372  14.328
89987SOL     OW71857   0.607   9.497   9.017
89987SOL    HW171858   0.615   9.535   9.105
89987SOL    HW271859   0.541   9.551   8.973
89988SOL     OW71860   5.817   6.572  11.439
89988SOL    HW171861   5.797   6.550  11.530
89988SOL    HW271862   5.822   6.488  11.394
89989SOL     OW71863   2.312   3.699  11.770
89989SOL    HW171864   2.303   3.705  11.675
89989SOL    HW271865   2.319   3.790  11.799
89990SOL     OW71866   1.967   4.926   4.672
89990SOL    HW171867   1.950   5.013   4.638
89990SOL    HW271868   1.933   4.928   4.762
89991SOL     OW71869   2.709   8.951  14.769
89991SOL    HW171870   2.796   8.986  14.749
89991SOL    HW271871   2.722   8.857  14.775
89992SOL     OW71872   6.201   1.476  13.500
89992SOL    HW171873   6.230   1.513  13.584
89992SOL    HW271874   6.148   1.545  13.461
89993SOL     OW71875   0.122  12.196   5.572
89993SOL    HW171876   0.070  12.156   5.502
89993SOL    HW271877   0.073  12.275   5.596
89994SOL     OW71878   8.367   8.178  11.893
89994SOL    HW171879   8.431   8.249  11.904
89994SOL    HW271880   8.417   8.108  11.851
89995SOL     OW71881   6.148   7.641  14.319
89995SOL    HW171882   6.161   7.548  14.298
89995SOL    HW271883   6.063   7.662  14.281
89996SOL     OW71884   8.711   1.491  13.671
89996SOL    HW171885   8.643   1.477  13.738
89996SOL    HW271886   8.700   1.583  13.645
89997SOL     OW71887   9.862  11.540   3.620
89997SOL    HW171888   9.933  11.494   3.576
89997SOL    HW271889   9.905  11.607   3.673
89998SOL     OW71890   0.906   9.076  11.440
89998SOL    HW171891   0.965   9.101  11.368
89998SOL    HW271892   0.854   9.154  11.457
89999SOL     OW71893   9.601   5.605  14.792
89999SOL    HW171894   9.567   5.694  14.798
89999SOL    HW271895   9.524   5.551  14.776
90000SOL     OW71896   7.438   5.919  13.492
90000SOL    HW171897   7.473   5.980  13.428
90000SOL    HW271898   7.352   5.894  13.457
90001SOL     OW71899  13.424   2.152   4.675
90001SOL    HW171900  13.392   2.151   4.585
90001SOL    HW271901  13.500   2.094   4.674
90002SOL     OW71902   3.699   6.524   9.045
90002SOL    HW171903   3.708   6.542   9.138
90002SOL    HW271904   3.606   6.537   9.027
90003SOL     OW71905  11.685   1.834   5.859
90003SOL    HW171906  11.637   1.899   5.807
90003SOL    HW271907  11.651   1.845   5.948
90004SOL     OW71908   5.793   2.773   8.455
90004SOL    HW171909   5.782   2.847   8.394
90004SOL    HW271910   5.886   2.751   8.448
90005SOL     OW71911   9.847   9.689   6.895
90005SOL    HW171912   9.760   9.653   6.914
90005SOL    HW271913   9.846   9.776   6.933
90006SOL     OW71914   0.075  12.737  14.746
90006SOL    HW171915   0.026  12.678  14.802
90006SOL    HW271916   0.122  12.795  14.807
90007SOL     OW71917   9.325   4.707  13.306
90007SOL    HW171918   9.395   4.671  13.360
90007SOL    HW271919   9.263   4.636  13.296
90008SOL     OW71920   9.539   9.807   1.745
90008SOL    HW171921   9.604   9.826   1.677
90008SOL    HW271922   9.513   9.717   1.728
90009SOL     OW71923   4.454   3.106   6.910
90009SOL    HW171924   4.433   3.015   6.889
90009SOL    HW271925   4.549   3.107   6.918
90010SOL     OW71926  14.457  13.856   4.557
90010SOL    HW171927  14.528  13.868   4.620
90010SOL    HW271928  14.473  13.925   4.491
90011SOL     OW71929   8.078  10.044   1.458
90011SOL    HW171930   8.111   9.977   1.398
90011SOL    HW271931   8.111  10.017   1.543
90012SOL     OW71932  10.554   5.286   7.984
90012SOL    HW171933  10.487   5.219   7.965
90012SOL    HW271934  10.529   5.322   8.069
90013SOL     OW71935   8.511  10.635  11.589
90013SOL    HW171936   8.552  10.556  11.552
90013SOL    HW271937   8.431  10.603  11.631
90014SOL     OW71938   3.700  14.340   9.479
90014SOL    HW171939   3.738  14.261   9.518
90014SOL    HW271940   3.605  14.329   9.490
90015SOL     OW71941  12.083   1.277   6.949
90015SOL    HW171942  12.177   1.261   6.941
90015SOL    HW271943  12.051   1.282   6.859
90016SOL     OW71944  10.655  12.264   6.448
90016SOL    HW171945  10.733  12.209   6.448
90016SOL    HW271946  10.602  12.231   6.521
90017SOL     OW71947  12.952   4.399   3.527
90017SOL    HW171948  12.904   4.349   3.593
90017SOL    HW271949  13.015   4.337   3.491
90018SOL     OW71950   0.578   9.909   7.069
90018SOL    HW171951   0.527   9.990   7.075
90018SOL    HW271952   0.526   9.844   7.115
90019SOL     OW71953  11.074   9.170  11.235
90019SOL    HW171954  11.080   9.165  11.139
90019SOL    HW271955  11.076   9.264  11.254
90020SOL     OW71956   8.123   2.474   1.194
90020SOL    HW171957   8.125   2.386   1.157
90020SOL    HW271958   8.030   2.497   1.196
90021SOL     OW71959  12.069  14.852  13.196
90021SOL    HW171960  12.046   0.065  13.192
90021SOL    HW271961  12.040  14.824  13.282
90022SOL     OW71962   0.198   6.986  14.165
90022SOL    HW171963   0.238   6.947  14.087
90022SOL    HW271964   0.114   7.021  14.134
90023SOL     OW71965   9.883   1.765  13.487
90023SOL    HW171966   9.871   1.849  13.443
90023SOL    HW271967   9.796   1.741  13.518
90024SOL     OW71968   1.774   6.340   4.844
90024SOL    HW171969   1.776   6.406   4.914
90024SOL    HW271970   1.765   6.391   4.763
90025SOL     OW71971   8.869  12.991   0.150
90025SOL    HW171972   8.858  12.993   0.245
90025SOL    HW271973   8.845  13.079   0.121
90026SOL     OW71974   8.123   3.043  12.623
90026SOL    HW171975   8.203   2.993  12.609
90026SOL    HW271976   8.149   3.114  12.682
90027SOL     OW71977   7.492   0.186   3.272
90027SOL    HW171978   7.563   0.239   3.308
90027SOL    HW271979   7.435   0.248   3.228
90028SOL     OW71980  14.318  12.205   6.871
90028SOL    HW171981  14.251  12.137   6.870
90028SOL    HW271982  14.270  12.286   6.887
90029SOL     OW71983   9.096   2.635   3.935
90029SOL    HW171984   9.025   2.608   3.876
90029SOL    HW271985   9.118   2.724   3.907
90030SOL     OW71986  10.274   6.557   0.410
90030SOL    HW171987  10.245   6.477   0.366
90030SOL    HW271988  10.339   6.595   0.350
90031SOL     OW71989   7.171  11.317   6.701
90031SOL    HW171990   7.116  11.239   6.705
90031SOL    HW271991   7.260  11.283   6.694
90032SOL     OW71992   2.430   3.043   2.455
90032SOL    HW171993   2.477   2.962   2.438
90032SOL    HW271994   2.474   3.081   2.531
90033SOL     OW71995   5.801   7.594  11.219
90033SOL    HW171996   5.796   7.514  11.166
90033SOL    HW271997   5.894   7.616  11.221
90034SOL     OW71998   2.959   9.083   7.840
90034SOL    HW171999   2.911   9.056   7.762
90034SOL    HW272000   3.049   9.095   7.810
90035SOL     OW72001   7.579   8.610   0.224
90035SOL    HW172002   7.512   8.550   0.255
90035SOL    HW272003   7.572   8.606   0.128
90036SOL     OW72004   7.341   7.648   0.578
90036SOL    HW172005   7.415   7.607   0.622
90036SOL    HW272006   7.264   7.610   0.621
90037SOL     OW72007  14.453  12.784   1.572
90037SOL    HW172008  14.481  12.710   1.518
90037SOL    HW272009  14.373  12.816   1.530
90038SOL     OW72010  13.256   3.953   9.365
90038SOL    HW172011  13.163   3.960   9.386
90038SOL    HW272012  13.271   4.021   9.299
90039SOL     OW72013  13.361   5.183   2.527
90039SOL    HW172014  13.351   5.144   2.440
90039SOL    HW272015  13.384   5.109   2.584
90040SOL     OW72016   6.478   6.625   3.955
90040SOL    HW172017   6.513   6.622   4.044
90040SOL    HW272018   6.427   6.545   3.946
90041SOL     OW72019   7.607  12.187  14.224
90041SOL    HW172020   7.632  12.133  14.150
90041SOL    HW272021   7.657  12.268  14.214
90042SOL     OW72022  12.253   4.819  11.289
90042SOL    HW172023  12.325   4.759  11.270
90042SOL    HW272024  12.266   4.893  11.230
90043SOL     OW72025   1.260   1.686   4.641
90043SOL    HW172026   1.267   1.731   4.725
90043SOL    HW272027   1.231   1.754   4.580
90044SOL     OW72028   2.876   2.196  10.502
90044SOL    HW172029   2.839   2.116  10.538
90044SOL    HW272030   2.968   2.174  10.483
90045SOL     OW72031  11.238  14.853   2.044
90045SOL    HW172032  11.265   0.064   2.034
90045SOL    HW272033  11.298  14.817   2.109
90046SOL     OW72034  13.574   5.010   1.282
90046SOL    HW172035  13.536   4.933   1.325
90046SOL    HW272036  13.612   4.975   1.201
90047SOL     OW72037  12.072  11.111   2.802
90047SOL    HW172038  12.030  11.063   2.730
90047SOL    HW272039  12.061  11.203   2.780
90048SOL     OW72040  14.153  11.949  10.742
90048SOL    HW172041  14.242  11.986  10.746
90048SOL    HW272042  14.110  11.979  10.822
90049SOL     OW72043   5.921  11.215   9.357
90049SOL    HW172044   5.934  11.310   9.346
90049SOL    HW272045   5.886  11.206   9.446
90050SOL     OW72046  12.796   4.297  10.481
90050SOL    HW172047  12.849   4.365  10.523
90050SOL    HW272048  12.755   4.249  10.553
90051SOL     OW72049  10.336   3.201   8.897
90051SOL    HW172050  10.275   3.232   8.963
90051SOL    HW272051  10.303   3.236   8.815
90052SOL     OW72052   2.641   1.399   5.218
90052SOL    HW172053   2.631   1.491   5.194
90052SOL    HW272054   2.618   1.396   5.310
90053SOL     OW72055  11.619  10.723   8.556
90053SOL    HW172056  11.564  10.669   8.613
90053SOL    HW272057  11.556  10.773   8.504
90054SOL     OW72058  11.421  11.391   0.022
90054SOL    HW172059  11.357  11.448  14.858
90054SOL    HW272060  11.491  11.380  14.839
90055SOL     OW72061  13.945   0.515   9.401
90055SOL    HW172062  14.002   0.569   9.346
90055SOL    HW272063  13.925   0.439   9.347
90056SOL     OW72064   9.215  13.742   8.989
90056SOL    HW172065   9.229  13.827   9.032
90056SOL    HW272066   9.184  13.685   9.060
90057SOL     OW72067   0.655  11.783   9.354
90057SOL    HW172068   0.677  11.737   9.273
90057SOL    HW272069   0.727  11.761   9.414
90058SOL     OW72070   2.487  14.643   9.319
90058SOL    HW172071   2.436  14.724   9.314
90058SOL    HW272072   2.556  14.662   9.382
90059SOL     OW72073  14.223   5.277   7.766
90059SOL    HW172074  14.296   5.338   7.761
90059SOL    HW272075  14.200   5.257   7.675
90060SOL     OW72076   1.955  14.791   9.499
90060SOL    HW172077   2.006  14.710   9.509
90060SOL    HW272078   1.925  14.811   9.587
90061SOL     OW72079   5.106   2.173  12.402
90061SOL    HW172080   5.180   2.233  12.417
90061SOL    HW272081   5.043   2.226  12.354
90062SOL     OW72082   0.583   8.940   2.224
90062SOL    HW172083   0.498   8.981   2.239
90062SOL    HW272084   0.647   9.009   2.243
90063SOL     OW72085   4.975  10.615   0.804
90063SOL    HW172086   4.959  10.580   0.892
90063SOL    HW272087   5.071  10.611   0.795
90064SOL     OW72088   3.563   8.887  11.651
90064SOL    HW172089   3.529   8.850  11.570
90064SOL    HW272090   3.524   8.975  11.656
90065SOL     OW72091   6.907   1.904   1.906
90065SOL    HW172092   6.819   1.901   1.942
90065SOL    HW272093   6.937   1.994   1.921
90066SOL     OW72094  12.736   8.568   0.036
90066SOL    HW172095  12.750   8.607   0.122
90066SOL    HW272096  12.687   8.635  14.868
90067SOL     OW72097  11.875  12.716   3.860
90067SOL    HW172098  11.794  12.759   3.831
90067SOL    HW272099  11.940  12.787   3.862
90068SOL     OW72100  13.793   2.959   9.172
90068SOL    HW172101  13.846   2.896   9.220
90068SOL    HW272102  13.717   2.974   9.228
90069SOL     OW72103  10.737   9.098  12.546
90069SOL    HW172104  10.761   9.099  12.638
90069SOL    HW272105  10.815   9.128  12.500
90070SOL     OW72106   1.852   4.025  11.402
90070SOL    HW172107   1.877   3.976  11.480
90070SOL    HW272108   1.863   4.117  11.426
90071SOL     OW72109   3.135   5.703   9.342
90071SOL    HW172110   3.070   5.662   9.399
90071SOL    HW272111   3.160   5.783   9.387
90072SOL     OW72112   0.676  12.714   8.915
90072SOL    HW172113   0.714  12.653   8.979
90072SOL    HW272114   0.729  12.793   8.923
90073SOL     OW72115   6.905   1.873  11.590
90073SOL    HW172116   6.899   1.785  11.554
90073SOL    HW272117   6.816   1.892  11.621
90074SOL     OW72118   8.913   4.928   0.899
90074SOL    HW172119   8.934   4.934   0.806
90074SOL    HW272120   8.942   5.012   0.935
90075SOL     OW72121   9.239  13.973   5.888
90075SOL    HW172122   9.212  14.053   5.933
90075SOL    HW272123   9.206  13.902   5.943
90076SOL     OW72124   2.752  11.094   1.934
90076SOL    HW172125   2.671  11.082   1.885
90076SOL    HW272126   2.821  11.089   1.867
90077SOL     OW72127   1.901   7.101   5.934
90077SOL    HW172128   1.875   7.192   5.917
90077SOL    HW272129   1.904   7.095   6.029
90078SOL     OW72130   3.057  12.727   3.894
90078SOL    HW172131   3.098  12.813   3.898
90078SOL    HW272132   3.068  12.699   3.803
90079SOL     OW72133   0.685   1.318   1.313
90079SOL    HW172134   0.688   1.256   1.386
90079SOL    HW272135   0.627   1.388   1.343
90080SOL     OW72136   4.124   5.661  12.493
90080SOL    HW172137   4.031   5.680  12.485
90080SOL    HW272138   4.167   5.727  12.439
90081SOL     OW72139  10.720   1.891  12.521
90081SOL    HW172140  10.813   1.908  12.505
90081SOL    HW272141  10.714   1.883  12.616
90082SOL     OW72142   0.398   3.291  14.056
90082SOL    HW172143   0.435   3.317  13.972
90082SOL    HW272144   0.451   3.216  14.083
90083SOL     OW72145   6.604   5.450   6.435
90083SOL    HW172146   6.692   5.487   6.423
90083SOL    HW272147   6.568   5.499   6.509
90084SOL     OW72148  11.732   4.896   8.370
90084SOL    HW172149  11.791   4.909   8.444
90084SOL    HW272150  11.789   4.877   8.296
90085SOL     OW72151   0.079  10.487  10.967
90085SOL    HW172152   0.103  10.397  10.946
90085SOL    HW272153   0.029  10.481  11.049
90086SOL     OW72154   3.084  13.292   2.940
90086SOL    HW172155   3.053  13.210   2.902
90086SOL    HW272156   3.012  13.353   2.927
90087SOL     OW72157   6.277  10.182   0.917
90087SOL    HW172158   6.254  10.145   0.831
90087SOL    HW272159   6.364  10.220   0.904
90088SOL     OW72160  14.185   3.202   3.984
90088SOL    HW172161  14.210   3.293   4.003
90088SOL    HW272162  14.268   3.154   3.986
90089SOL     OW72163   2.958  13.141   0.642
90089SOL    HW172164   3.019  13.167   0.573
90089SOL    HW272165   3.014  13.126   0.718
90090SOL     OW72166   1.557   1.591   0.571
90090SOL    HW172167   1.599   1.661   0.621
90090SOL    HW272168   1.624   1.561   0.511
90091SOL     OW72169   8.196  13.698   6.548
90091SOL    HW172170   8.107  13.679   6.519
90091SOL    HW272171   8.252  13.674   6.474
90092SOL     OW72172   2.527   5.340   4.316
90092SOL    HW172173   2.481   5.411   4.360
90092SOL    HW272174   2.470   5.315   4.244
90093SOL     OW72175   8.240   3.611   7.174
90093SOL    HW172176   8.216   3.523   7.147
90093SOL    HW272177   8.158   3.659   7.177
90094SOL     OW72178  11.672   0.388  11.079
90094SOL    HW172179  11.606   0.457  11.069
90094SOL    HW272180  11.626   0.307  11.059
90095SOL     OW72181  13.541   9.465   6.825
90095SOL    HW172182  13.511   9.438   6.738
90095SOL    HW272183  13.637   9.465   6.819
90096SOL     OW72184   9.708   5.271   4.351
90096SOL    HW172185   9.743   5.206   4.413
90096SOL    HW272186   9.646   5.322   4.403
90097SOL     OW72187   2.397  12.525   5.280
90097SOL    HW172188   2.410  12.556   5.190
90097SOL    HW272189   2.309  12.487   5.280
90098SOL     OW72190   3.044   0.769  11.734
90098SOL    HW172191   3.097   0.757  11.813
90098SOL    HW272192   2.963   0.808  11.766
90099SOL     OW72193   3.626   2.709   7.809
90099SOL    HW172194   3.587   2.781   7.759
90099SOL    HW272195   3.581   2.712   7.893
90100SOL     OW72196   2.319  10.231  12.078
90100SOL    HW172197   2.404  10.260  12.111
90100SOL    HW272198   2.261  10.305  12.094
90101SOL     OW72199   9.549   6.454  11.661
90101SOL    HW172200   9.580   6.499  11.583
90101SOL    HW272201   9.630   6.430  11.708
90102SOL     OW72202   3.884  14.757   7.500
90102SOL    HW172203   3.868  14.783   7.591
90102SOL    HW272204   3.973  14.723   7.500
90103SOL     OW72205  13.533  12.685   3.172
90103SOL    HW172206  13.521  12.760   3.113
90103SOL    HW272207  13.454  12.633   3.161
90104SOL     OW72208   3.781   5.968   4.318
90104SOL    HW172209   3.726   6.026   4.266
90104SOL    HW272210   3.796   5.892   4.262
90105SOL     OW72211   8.279   5.390   6.906
90105SOL    HW172212   8.230   5.347   6.836
90105SOL    HW272213   8.340   5.447   6.861
90106SOL     OW72214   9.779   4.495   6.954
90106SOL    HW172215   9.862   4.449   6.940
90106SOL    HW272216   9.752   4.524   6.867
90107SOL     OW72217   9.605   0.165   1.514
90107SOL    HW172218   9.650   0.140   1.433
90107SOL    HW272219   9.609   0.087   1.569
90108SOL     OW72220   8.648   8.689   4.984
90108SOL    HW172221   8.685   8.725   4.903
90108SOL    HW272222   8.597   8.613   4.955
90109SOL     OW72223   9.516   4.529   4.025
90109SOL    HW172224   9.466   4.600   4.063
90109SOL    HW272225   9.604   4.538   4.062
90110SOL     OW72226  12.721  10.288  12.546
90110SOL    HW172227  12.661  10.361  12.562
90110SOL    HW272228  12.693  10.251  12.462
90111SOL     OW72229   7.441  11.288   6.751
90111SOL    HW172230   7.402  11.287   6.838
90111SOL    HW272231   7.506  11.217   6.753
90112SOL     OW72232  10.259   4.316   7.803
90112SOL    HW172233  10.252   4.327   7.898
90112SOL    HW272234  10.289   4.227   7.790
90113SOL     OW72235   2.617   2.709  10.318
90113SOL    HW172236   2.651   2.707  10.229
90113SOL    HW272237   2.677   2.766  10.366
90114SOL     OW72238   8.947   6.799  10.976
90114SOL    HW172239   8.924   6.803  11.069
90114SOL    HW272240   9.004   6.875  10.963
90115SOL     OW72241  12.232   4.287   2.888
90115SOL    HW172242  12.160   4.307   2.949
90115SOL    HW272243  12.299   4.247   2.944
90116SOL     OW72244   5.876   5.481   8.449
90116SOL    HW172245   5.887   5.540   8.523
90116SOL    HW272246   5.891   5.536   8.372
90117SOL     OW72247   3.427   1.458   7.947
90117SOL    HW172248   3.453   1.367   7.955
90117SOL    HW272249   3.505   1.508   7.971
90118SOL     OW72250   8.796   6.475   8.422
90118SOL    HW172251   8.733   6.520   8.366
90118SOL    HW272252   8.750   6.398   8.454
90119SOL     OW72253   1.093   3.759   6.827
90119SOL    HW172254   1.112   3.665   6.820
90119SOL    HW272255   1.084   3.789   6.737
90120SOL     OW72256   7.509   6.142   5.409
90120SOL    HW172257   7.428   6.189   5.429
90120SOL    HW272258   7.505   6.064   5.464
90121SOL     OW72259   1.395  10.423   4.605
90121SOL    HW172260   1.357  10.367   4.672
90121SOL    HW272261   1.479  10.451   4.641
90122SOL     OW72262   2.546  10.245   4.741
90122SOL    HW172263   2.470  10.212   4.789
90122SOL    HW272264   2.510  10.305   4.676
90123SOL     OW72265   8.582   2.455   1.292
90123SOL    HW172266   8.592   2.455   1.197
90123SOL    HW272267   8.619   2.539   1.319
90124SOL     OW72268   1.993   4.337  12.152
90124SOL    HW172269   1.966   4.247  12.135
90124SOL    HW272270   2.076   4.328  12.199
90125SOL     OW72271   3.870   2.245  11.156
90125SOL    HW172272   3.776   2.258  11.145
90125SOL    HW272273   3.900   2.323  11.202
90126SOL     OW72274   0.137   0.709  10.694
90126SOL    HW172275   0.166   0.704  10.785
90126SOL    HW272276   0.112   0.619  10.672
90127SOL     OW72277  10.389  10.106   4.190
90127SOL    HW172278  10.436  10.048   4.130
90127SOL    HW272279  10.309  10.059   4.211
90128SOL     OW72280   2.068   9.597   0.240
90128SOL    HW172281   2.075   9.585   0.145
90128SOL    HW272282   2.149   9.560   0.275
90129SOL     OW72283   5.372   5.752   6.794
90129SOL    HW172284   5.341   5.837   6.825
90129SOL    HW272285   5.436   5.724   6.859
90130SOL     OW72286   3.430  14.840   2.285
90130SOL    HW172287   3.387   0.037   2.322
90130SOL    HW272288   3.386  14.765   2.326
90131SOL     OW72289  10.098   1.046   4.003
90131SOL    HW172290  10.017   1.012   4.042
90131SOL    HW272291  10.168   0.999   4.048
90132SOL     OW72292  10.975   9.458   0.016
90132SOL    HW172293  11.002   9.462  14.805
90132SOL    HW272294  10.881   9.442   0.012
90133SOL     OW72295   1.167  11.238  14.568
90133SOL    HW172296   1.073  11.256  14.578
90133SOL    HW272297   1.175  11.199  14.482
90134SOL     OW72298   4.749   0.198   6.909
90134SOL    HW172299   4.760   0.293   6.917
90134SOL    HW272300   4.794   0.176   6.828
90135SOL     OW72301  11.652  11.004  10.606
90135SOL    HW172302  11.642  11.095  10.578
90135SOL    HW272303  11.566  10.979  10.638
90136SOL     OW72304  14.081   6.277   3.010
90136SOL    HW172305  14.103   6.205   3.069
90136SOL    HW272306  14.133   6.261   2.932
90137SOL     OW72307  13.889   9.543  13.513
90137SOL    HW172308  13.799   9.512  13.523
90137SOL    HW272309  13.937   9.468  13.478
90138SOL     OW72310   5.115  11.878   0.258
90138SOL    HW172311   5.059  11.850   0.185
90138SOL    HW272312   5.102  11.972   0.263
90139SOL     OW72313  13.231  13.097  12.597
90139SOL    HW172314  13.314  13.127  12.560
90139SOL    HW272315  13.207  13.166  12.659
90140SOL     OW72316   2.065   0.372  13.547
90140SOL    HW172317   2.041   0.288  13.510
90140SOL    HW272318   2.158   0.363  13.568
90141SOL     OW72319   7.156   9.491  10.233
90141SOL    HW172320   7.170   9.474  10.326
90141SOL    HW272321   7.161   9.405  10.191
90142SOL     OW72322   6.118  12.598  14.255
90142SOL    HW172323   6.078  12.642  14.180
90142SOL    HW272324   6.163  12.668  14.303
90143SOL     OW72325  10.199  10.233   9.138
90143SOL    HW172326  10.129  10.169   9.150
90143SOL    HW272327  10.166  10.312   9.182
90144SOL     OW72328  14.811   6.534  12.126
90144SOL    HW172329  14.789   6.519  12.218
90144SOL    HW272330  14.755   6.606  12.098
90145SOL     OW72331   5.627   4.079   3.355
90145SOL    HW172332   5.623   4.135   3.433
90145SOL    HW272333   5.633   3.990   3.389
90146SOL     OW72334   5.819  14.673   3.864
90146SOL    HW172335   5.826  14.685   3.958
90146SOL    HW272336   5.906  14.642   3.837
90147SOL     OW72337  12.118   2.381   1.973
90147SOL    HW172338  12.137   2.297   2.015
90147SOL    HW272339  12.096   2.440   2.045
90148SOL     OW72340  14.694   5.580   8.301
90148SOL    HW172341  14.774   5.589   8.249
90148SOL    HW272342  14.689   5.661   8.351
90149SOL     OW72343  13.721   0.749   2.746
90149SOL    HW172344  13.743   0.720   2.835
90149SOL    HW272345  13.628   0.772   2.751
90150SOL     OW72346   7.884   0.165   7.106
90150SOL    HW172347   7.940   0.185   7.182
90150SOL    HW272348   7.909   0.077   7.080
90151SOL     OW72349  13.768   3.946  13.549
90151SOL    HW172350  13.690   3.912  13.593
90151SOL    HW272351  13.754   3.927  13.456
90152SOL     OW72352   8.423  12.914  10.906
90152SOL    HW172353   8.484  12.905  10.832
90152SOL    HW272354   8.478  12.947  10.978
90153SOL     OW72355   1.507   1.533   8.854
90153SOL    HW172356   1.546   1.611   8.814
90153SOL    HW272357   1.506   1.468   8.785
90154SOL     OW72358  10.336   1.286  11.181
90154SOL    HW172359  10.392   1.212  11.156
90154SOL    HW272360  10.321   1.273  11.275
90155SOL     OW72361   2.179   5.114   7.675
90155SOL    HW172362   2.167   5.169   7.753
90155SOL    HW272363   2.104   5.055   7.676
90156SOL     OW72364   9.100   0.914   3.569
90156SOL    HW172365   9.162   0.985   3.552
90156SOL    HW272366   9.046   0.947   3.641
90157SOL     OW72367  12.398   2.520   3.375
90157SOL    HW172368  12.318   2.561   3.411
90157SOL    HW272369  12.415   2.446   3.433
90158SOL     OW72370  11.281   3.824  12.579
90158SOL    HW172371  11.271   3.733  12.553
90158SOL    HW272372  11.351   3.857  12.523
90159SOL     OW72373   0.617  11.960   0.972
90159SOL    HW172374   0.550  11.908   1.015
90159SOL    HW272375   0.631  12.035   1.030
90160SOL     OW72376   6.860   5.150  11.097
90160SOL    HW172377   6.792   5.088  11.073
90160SOL    HW272378   6.874   5.135  11.191
90161SOL     OW72379  10.659  11.383   4.064
90161SOL    HW172380  10.681  11.290   4.070
90161SOL    HW272381  10.588  11.386   4.000
90162SOL     OW72382   4.448   5.999  10.292
90162SOL    HW172383   4.428   5.996  10.386
90162SOL    HW272384   4.376   6.049  10.254
90163SOL     OW72385   1.266   8.787   3.145
90163SOL    HW172386   1.357   8.761   3.161
90163SOL    HW272387   1.237   8.824   3.229
90164SOL     OW72388  11.411   1.469   6.310
90164SOL    HW172389  11.408   1.374   6.298
90164SOL    HW272390  11.372   1.484   6.396
90165SOL     OW72391   1.408  10.015   1.548
90165SOL    HW172392   1.432  10.014   1.641
90165SOL    HW272393   1.334   9.954   1.542
90166SOL     OW72394  12.668   7.201   1.757
90166SOL    HW172395  12.674   7.275   1.818
90166SOL    HW272396  12.668   7.124   1.814
90167SOL     OW72397   0.777   0.024   8.337
90167SOL    HW172398   0.745   0.113   8.323
90167SOL    HW272399   0.697  14.851   8.345
90168SOL     OW72400  13.376  14.594   1.692
90168SOL    HW172401  13.347  14.685   1.695
90168SOL    HW272402  13.337  14.554   1.770
90169SOL     OW72403   6.548  13.105   5.403
90169SOL    HW172404   6.641  13.096   5.387
90169SOL    HW272405   6.532  13.199   5.405
90170SOL     OW72406  12.067   7.603   3.390
90170SOL    HW172407  12.139   7.654   3.428
90170SOL    HW272408  11.996   7.613   3.454
90171SOL     OW72409  11.285   8.170   0.168
90171SOL    HW172410  11.346   8.218   0.224
90171SOL    HW272411  11.235   8.238   0.124
90172SOL     OW72412   1.997   6.796  11.792
90172SOL    HW172413   2.026   6.705  11.794
90172SOL    HW272414   2.070   6.843  11.751
90173SOL     OW72415   7.588  13.972   2.227
90173SOL    HW172416   7.621  13.887   2.255
90173SOL    HW272417   7.495  13.971   2.251
90174SOL     OW72418  10.638   3.252   0.132
90174SOL    HW172419  10.573   3.210   0.188
90174SOL    HW272420  10.716   3.259   0.187
90175SOL     OW72421   6.180   2.455   9.526
90175SOL    HW172422   6.145   2.367   9.514
90175SOL    HW272423   6.233   2.449   9.605
90176SOL     OW72424   6.018   4.701   3.326
90176SOL    HW172425   5.942   4.652   3.294
90176SOL    HW272426   6.025   4.776   3.267
90177SOL     OW72427   4.219   1.791   7.689
90177SOL    HW172428   4.272   1.869   7.704
90177SOL    HW272429   4.194   1.761   7.776
90178SOL     OW72430   4.840   7.712  12.974
90178SOL    HW172431   4.880   7.704  12.887
90178SOL    HW272432   4.756   7.667  12.966
90179SOL     OW72433   4.918   3.479   7.036
90179SOL    HW172434   4.918   3.385   7.017
90179SOL    HW272435   5.002   3.510   7.000
90180SOL     OW72436   4.399  14.090   6.124
90180SOL    HW172437   4.464  14.111   6.057
90180SOL    HW272438   4.425  14.004   6.157
90181SOL     OW72439   5.795   0.291  11.220
90181SOL    HW172440   5.848   0.311  11.297
90181SOL    HW272441   5.771   0.377  11.185
90182SOL     OW72442   9.680  14.395  12.489
90182SOL    HW172443   9.641  14.409  12.402
90182SOL    HW272444   9.772  14.377  12.471
90183SOL     OW72445  11.429   2.508  10.988
90183SOL    HW172446  11.457   2.585  11.039
90183SOL    HW272447  11.453   2.530  10.898
90184SOL     OW72448   0.515  11.536  10.578
90184SOL    HW172449   0.516  11.628  10.550
90184SOL    HW272450   0.591  11.497  10.535
90185SOL     OW72451   5.220   9.655  14.360
90185SOL    HW172452   5.140   9.707  14.357
90185SOL    HW272453   5.289   9.719  14.380
90186SOL     OW72454   2.213   1.177   9.500
90186SOL    HW172455   2.183   1.267   9.486
90186SOL    HW272456   2.234   1.173   9.594
90187SOL     OW72457   2.786  10.640   7.322
90187SOL    HW172458   2.794  10.546   7.335
90187SOL    HW272459   2.705  10.665   7.367
90188SOL     OW72460   0.529  14.771   7.163
90188SOL    HW172461   0.481  14.690   7.149
90188SOL    HW272462   0.620  14.748   7.147
90189SOL     OW72463   0.175   9.229   2.140
90189SOL    HW172464   0.102   9.275   2.100
90189SOL    HW272465   0.175   9.143   2.099
90190SOL     OW72466  12.349  10.117   8.948
90190SOL    HW172467  12.438  10.092   8.973
90190SOL    HW272468  12.298  10.037   8.955
90191SOL     OW72469   8.397   6.985   9.390
90191SOL    HW172470   8.465   7.029   9.338
90191SOL    HW272471   8.436   6.975   9.477
90192SOL     OW72472   8.313   6.308   4.842
90192SOL    HW172473   8.396   6.351   4.820
90192SOL    HW272474   8.261   6.313   4.762
90193SOL     OW72475   6.596   7.822  14.239
90193SOL    HW172476   6.626   7.836  14.149
90193SOL    HW272477   6.521   7.881  14.249
90194SOL     OW72478  12.112  10.956   5.401
90194SOL    HW172479  12.116  11.003   5.484
90194SOL    HW272480  12.203  10.934   5.382
90195SOL     OW72481   9.534   8.469   9.692
90195SOL    HW172482   9.494   8.537   9.639
90195SOL    HW272483   9.476   8.393   9.683
90196SOL     OW72484   6.313  13.605  10.865
90196SOL    HW172485   6.300  13.523  10.818
90196SOL    HW272486   6.275  13.590  10.952
90197SOL     OW72487   7.655   2.570   1.950
90197SOL    HW172488   7.632   2.655   1.913
90197SOL    HW272489   7.572   2.523   1.956
90198SOL     OW72490   9.234  14.329  10.352
90198SOL    HW172491   9.278  14.398  10.402
90198SOL    HW272492   9.148  14.365  10.332
90199SOL     OW72493   5.113   4.958   6.875
90199SOL    HW172494   5.035   4.944   6.928
90199SOL    HW272495   5.082   5.003   6.797
90200SOL     OW72496  10.864  10.542   5.291
90200SOL    HW172497  10.954  10.568   5.314
90200SOL    HW272498  10.809  10.598   5.345
90201SOL     OW72499   8.262   5.633  13.776
90201SOL    HW172500   8.240   5.613  13.685
90201SOL    HW272501   8.314   5.714  13.771
90202SOL     OW72502  10.881   2.973   9.128
90202SOL    HW172503  10.854   3.042   9.067
90202SOL    HW272504  10.895   2.896   9.072
90203SOL     OW72505   7.986   1.722   7.030
90203SOL    HW172506   7.905   1.672   7.033
90203SOL    HW272507   7.959   1.811   7.007
90204SOL     OW72508   4.169  14.013   3.923
90204SOL    HW172509   4.090  14.066   3.912
90204SOL    HW272510   4.178  14.001   4.017
90205SOL     OW72511   7.788   4.336   8.183
90205SOL    HW172512   7.716   4.399   8.181
90205SOL    HW272513   7.759   4.265   8.124
90206SOL     OW72514   6.372  12.950   6.895
90206SOL    HW172515   6.320  12.898   6.957
90206SOL    HW272516   6.310  12.975   6.827
90207SOL     OW72517   4.333   7.653   9.158
90207SOL    HW172518   4.331   7.701   9.075
90207SOL    HW272519   4.372   7.569   9.136
90208SOL     OW72520   4.734   6.438   5.765
90208SOL    HW172521   4.813   6.411   5.812
90208SOL    HW272522   4.698   6.510   5.817
90209SOL     OW72523  13.967   6.862  12.136
90209SOL    HW172524  13.889   6.807  12.136
90209SOL    HW272525  14.040   6.800  12.144
90210SOL     OW72526   6.780   7.883  12.347
90210SOL    HW172527   6.758   7.848  12.433
90210SOL    HW272528   6.737   7.823  12.285
90211SOL     OW72529   3.771   7.359   9.634
90211SOL    HW172530   3.813   7.441   9.658
90211SOL    HW272531   3.808   7.336   9.549
90212SOL     OW72532   5.847  10.927   1.865
90212SOL    HW172533   5.808  10.884   1.941
90212SOL    HW272534   5.905  10.994   1.901
90213SOL     OW72535  14.017  12.727  12.122
90213SOL    HW172536  13.930  12.743  12.084
90213SOL    HW272537  14.044  12.643  12.084
90214SOL     OW72538  12.603  10.916   8.718
90214SOL    HW172539  12.526  10.916   8.662
90214SOL    HW272540  12.653  10.993   8.688
90215SOL     OW72541   1.713  13.046   5.874
90215SOL    HW172542   1.760  13.130   5.872
90215SOL    HW272543   1.637  13.059   5.819
90216SOL     OW72544  13.197  12.059   5.430
90216SOL    HW172545  13.198  12.155   5.437
90216SOL    HW272546  13.139  12.041   5.356
90217SOL     OW72547   0.321   4.919  13.655
90217SOL    HW172548   0.268   4.996  13.633
90217SOL    HW272549   0.311   4.909  13.750
90218SOL     OW72550   6.291   7.049  11.138
90218SOL    HW172551   6.274   7.024  11.047
90218SOL    HW272552   6.277   7.143  11.139
90219SOL     OW72553   2.493   5.799  13.859
90219SOL    HW172554   2.546   5.875  13.884
90219SOL    HW272555   2.403   5.825  13.881
90220SOL     OW72556   8.124   4.873  10.603
90220SOL    HW172557   8.078   4.949  10.567
90220SOL    HW272558   8.151   4.823  10.527
90221SOL     OW72559   4.439   3.337  13.642
90221SOL    HW172560   4.481   3.407  13.592
90221SOL    HW272561   4.361   3.378  13.680
90222SOL     OW72562   9.201  10.221  13.431
90222SOL    HW172563   9.198  10.233  13.526
90222SOL    HW272564   9.199  10.127  13.419
90223SOL     OW72565  12.181  14.503   4.725
90223SOL    HW172566  12.093  14.507   4.688
90223SOL    HW272567  12.181  14.568   4.795
90224SOL     OW72568   0.017   6.288  11.542
90224SOL    HW172569  14.811   6.275  11.582
90224SOL    HW272570   0.030   6.210  11.488
90225SOL     OW72571  12.692   8.830   0.226
90225SOL    HW172572  12.780   8.840   0.189
90225SOL    HW272573  12.707   8.817   0.320
90226SOL     OW72574   6.221  14.403  14.185
90226SOL    HW172575   6.241  14.417  14.277
90226SOL    HW272576   6.125  14.398  14.181
90227SOL     OW72577   8.928   2.498   7.092
90227SOL    HW172578   9.004   2.539   7.132
90227SOL    HW272579   8.853   2.544   7.130
90228SOL     OW72580   8.102   3.820  12.278
90228SOL    HW172581   8.056   3.876  12.341
90228SOL    HW272582   8.049   3.740  12.274
90229SOL     OW72583   3.050   9.832   2.999
90229SOL    HW172584   2.982   9.849   2.934
90229SOL    HW272585   3.093   9.916   3.011
90230SOL     OW72586   5.489   7.161   3.344
90230SOL    HW172587   5.449   7.206   3.418
90230SOL    HW272588   5.534   7.229   3.295
90231SOL     OW72589   0.688   7.101   4.260
90231SOL    HW172590   0.778   7.074   4.277
90231SOL    HW272591   0.681   7.103   4.164
90232SOL     OW72592   8.414   0.408   8.108
90232SOL    HW172593   8.366   0.368   8.180
90232SOL    HW272594   8.399   0.502   8.117
90233SOL     OW72595   1.239  11.919   6.994
90233SOL    HW172596   1.197  12.002   6.971
90233SOL    HW272597   1.257  11.877   6.910
90234SOL     OW72598   6.700   4.574   1.465
90234SOL    HW172599   6.707   4.480   1.449
90234SOL    HW272600   6.786   4.609   1.438
90235SOL     OW72601   8.282   5.866   5.685
90235SOL    HW172602   8.260   5.918   5.763
90235SOL    HW272603   8.282   5.928   5.613
90236SOL     OW72604  11.867   0.237   7.906
90236SOL    HW172605  11.785   0.212   7.862
90236SOL    HW272606  11.862   0.332   7.914
90237SOL     OW72607   7.604   5.358   0.520
90237SOL    HW172608   7.614   5.333   0.612
90237SOL    HW272609   7.541   5.430   0.520
90238SOL     OW72610   2.498  14.027  13.741
90238SOL    HW172611   2.432  14.056  13.804
90238SOL    HW272612   2.553  14.103  13.727
90239SOL     OW72613  11.978   6.106  13.484
90239SOL    HW172614  11.911   6.156  13.437
90239SOL    HW272615  12.027   6.172  13.534
90240SOL     OW72616   5.448  10.625  13.557
90240SOL    HW172617   5.445  10.577  13.640
90240SOL    HW272618   5.500  10.569  13.499
90241SOL     OW72619   4.749   0.984  10.493
90241SOL    HW172620   4.812   0.978  10.420
90241SOL    HW272621   4.798   1.025  10.563
90242SOL     OW72622   0.876  13.636   1.184
90242SOL    HW172623   0.942  13.704   1.194
90242SOL    HW272624   0.923  13.554   1.200
90243SOL     OW72625  10.002  14.265   6.776
90243SOL    HW172626  10.054  14.191   6.745
90243SOL    HW272627  10.066  14.327   6.812
90244SOL     OW72628  10.574   9.623   6.609
90244SOL    HW172629  10.657   9.624   6.562
90244SOL    HW272630  10.517   9.566   6.558
90245SOL     OW72631   1.543   9.864  10.550
90245SOL    HW172632   1.628   9.894  10.583
90245SOL    HW272633   1.564   9.784  10.501
90246SOL     OW72634   2.460   3.603   7.013
90246SOL    HW172635   2.380   3.650   7.037
90246SOL    HW272636   2.504   3.588   7.097
90247SOL     OW72637  12.149  14.693   1.468
90247SOL    HW172638  12.055  14.708   1.457
90247SOL    HW272639  12.179  14.668   1.380
90248SOL     OW72640  11.297   7.270   6.395
90248SOL    HW172641  11.301   7.245   6.487
90248SOL    HW272642  11.389   7.286   6.371
90249SOL     OW72643   6.625   4.078   7.451
90249SOL    HW172644   6.602   3.991   7.420
90249SOL    HW272645   6.569   4.093   7.527
90250SOL     OW72646   8.029  12.317   1.602
90250SOL    HW172647   7.974  12.302   1.680
90250SOL    HW272648   8.098  12.251   1.608
90251SOL     OW72649   2.250   3.383  13.384
90251SOL    HW172650   2.332   3.431  13.378
90251SOL    HW272651   2.200   3.427  13.453
90252SOL     OW72652  14.749   5.860  13.079
90252SOL    HW172653  14.733   5.821  12.993
90252SOL    HW272654  14.837   5.897  13.073
90253SOL     OW72655  14.683   1.689   6.174
90253SOL    HW172656  14.775   1.680   6.199
90253SOL    HW272657  14.635   1.658   6.250
90254SOL     OW72658   9.689   9.688   4.060
90254SOL    HW172659   9.748   9.714   3.989
90254SOL    HW272660   9.675   9.594   4.046
90255SOL     OW72661  11.379   1.382  12.881
90255SOL    HW172662  11.469   1.390  12.851
90255SOL    HW272663  11.368   1.454  12.943
90256SOL     OW72664  13.577  14.458   5.037
90256SOL    HW172665  13.493  14.436   5.076
90256SOL    HW272666  13.567  14.549   5.007
90257SOL     OW72667   0.197   4.859   4.954
90257SOL    HW172668   0.150   4.931   4.995
90257SOL    HW272669   0.222   4.892   4.868
90258SOL     OW72670   7.493   9.653   0.237
90258SOL    HW172671   7.540   9.724   0.194
90258SOL    HW272672   7.401   9.681   0.236
90259SOL     OW72673   5.684   1.854   4.066
90259SOL    HW172674   5.711   1.769   4.099
90259SOL    HW272675   5.675   1.842   3.972
90260SOL     OW72676  10.685  14.494  13.281
90260SOL    HW172677  10.638  14.488  13.198
90260SOL    HW272678  10.750  14.563  13.266
90261SOL     OW72679   1.607   1.427   2.855
90261SOL    HW172680   1.592   1.374   2.934
90261SOL    HW272681   1.610   1.517   2.887
90262SOL     OW72682  13.677   7.264   0.564
90262SOL    HW172683  13.723   7.241   0.484
90262SOL    HW272684  13.592   7.221   0.556
90263SOL     OW72685  13.455  14.389  11.259
90263SOL    HW172686  13.467  14.483  11.267
90263SOL    HW272687  13.417  14.376  11.172
90264SOL     OW72688   5.378   0.015   6.075
90264SOL    HW172689   5.313   0.082   6.099
90264SOL    HW272690   5.353  14.869   5.986
90265SOL     OW72691   3.980   0.276  10.534
90265SOL    HW172692   4.072   0.270  10.507
90265SOL    HW272693   3.931   0.229  10.467
90266SOL     OW72694   7.206   2.472  11.882
90266SOL    HW172695   7.143   2.541  11.860
90266SOL    HW272696   7.263   2.466  11.806
90267SOL     OW72697   1.451   4.948   6.479
90267SOL    HW172698   1.424   4.934   6.389
90267SOL    HW272699   1.480   5.040   6.482
90268SOL     OW72700  13.418  12.126   9.131
90268SOL    HW172701  13.452  12.075   9.058
90268SOL    HW272702  13.332  12.088   9.150
90269SOL     OW72703  10.944  10.276  14.423
90269SOL    HW172704  10.862  10.325  14.411
90269SOL    HW272705  10.983  10.312  14.502
90270SOL     OW72706   4.084   2.546  11.718
90270SOL    HW172707   4.071   2.486  11.645
90270SOL    HW272708   4.035   2.625  11.693
90271SOL     OW72709   3.363  14.694   8.754
90271SOL    HW172710   3.383  14.785   8.777
90271SOL    HW272711   3.419  14.674   8.680
90272SOL     OW72712   7.613  11.604  10.728
90272SOL    HW172713   7.561  11.676  10.691
90272SOL    HW272714   7.555  11.563  10.792
90273SOL     OW72715   3.398  13.794  12.727
90273SOL    HW172716   3.333  13.734  12.692
90273SOL    HW272717   3.476  13.740  12.739
90274SOL     OW72718  12.921   2.486   8.715
90274SOL    HW172719  12.947   2.535   8.793
90274SOL    HW272720  12.850   2.538   8.677
90275SOL     OW72721  12.648  12.863  13.739
90275SOL    HW172722  12.698  12.785  13.712
90275SOL    HW272723  12.635  12.912  13.658
90276SOL     OW72724   1.077   1.322  10.039
90276SOL    HW172725   1.010   1.267   9.999
90276SOL    HW272726   1.031   1.403  10.062
90277SOL     OW72727   9.961   2.605  10.482
90277SOL    HW172728   9.930   2.529  10.531
90277SOL    HW272729  10.013   2.568  10.411
90278SOL     OW72730   2.439   1.686   7.688
90278SOL    HW172731   2.501   1.684   7.615
90278SOL    HW272732   2.401   1.598   7.690
90279SOL     OW72733   7.919   4.413   0.196
90279SOL    HW172734   7.962   4.335   0.231
90279SOL    HW272735   7.825   4.393   0.203
90280SOL     OW72736  12.200   6.551   3.519
90280SOL    HW172737  12.256   6.481   3.552
90280SOL    HW272738  12.117   6.508   3.500
90281SOL     OW72739   5.282  13.233   3.565
90281SOL    HW172740   5.320  13.264   3.482
90281SOL    HW272741   5.310  13.297   3.630
90282SOL     OW72742   5.484   2.527  10.617
90282SOL    HW172743   5.534   2.445  10.620
90282SOL    HW272744   5.489   2.561  10.706
90283SOL     OW72745   1.898   2.856   3.911
90283SOL    HW172746   1.896   2.935   3.965
90283SOL    HW272747   1.911   2.889   3.822
90284SOL     OW72748  13.079   6.914  12.181
90284SOL    HW172749  13.162   6.882  12.216
90284SOL    HW272750  13.099   6.937  12.090
90285SOL     OW72751   2.381   9.472   1.983
90285SOL    HW172752   2.471   9.506   1.989
90285SOL    HW272753   2.327   9.543   2.017
90286SOL     OW72754   0.735   9.942  10.706
90286SOL    HW172755   0.688   9.894  10.774
90286SOL    HW272756   0.692  10.028  10.704
90287SOL     OW72757   9.536   6.668   3.673
90287SOL    HW172758   9.594   6.592   3.664
90287SOL    HW272759   9.476   6.644   3.743
90288SOL     OW72760   5.284   4.980   5.936
90288SOL    HW172761   5.231   4.922   5.991
90288SOL    HW272762   5.274   4.946   5.848
90289SOL     OW72763   7.616  11.579   7.952
90289SOL    HW172764   7.577  11.516   7.891
90289SOL    HW272765   7.705  11.591   7.921
90290SOL     OW72766   6.721  12.408   5.826
90290SOL    HW172767   6.792  12.428   5.887
90290SOL    HW272768   6.761  12.411   5.740
90291SOL     OW72769   8.654   8.487   9.207
90291SOL    HW172770   8.733   8.539   9.191
90291SOL    HW272771   8.614   8.528   9.284
90292SOL     OW72772   4.231   8.545  11.890
90292SOL    HW172773   4.280   8.607  11.944
90292SOL    HW272774   4.204   8.596  11.813
90293SOL     OW72775  12.176   9.296   1.484
90293SOL    HW172776  12.242   9.240   1.525
90293SOL    HW272777  12.107   9.305   1.550
90294SOL     OW72778  12.487   0.724   2.913
90294SOL    HW172779  12.469   0.631   2.926
90294SOL    HW272780  12.425   0.750   2.844
90295SOL     OW72781  13.216   4.592   0.379
90295SOL    HW172782  13.241   4.515   0.431
90295SOL    HW272783  13.264   4.665   0.419
90296SOL     OW72784   8.836   9.427   6.374
90296SOL    HW172785   8.870   9.390   6.455
90296SOL    HW272786   8.893   9.392   6.306
90297SOL     OW72787   5.815  11.829  10.701
90297SOL    HW172788   5.746  11.850  10.639
90297SOL    HW272789   5.830  11.735  10.691
90298SOL     OW72790  14.812   4.243   6.934
90298SOL    HW172791   0.024   4.267   6.935
90298SOL    HW272792  14.780   4.273   6.850
90299SOL     OW72793   9.769   4.478   2.999
90299SOL    HW172794   9.798   4.395   3.035
90299SOL    HW272795   9.829   4.496   2.927
90300SOL     OW72796  14.856   0.504   0.755
90300SOL    HW172797  14.797   0.580   0.757
90300SOL    HW272798   0.063   0.541   0.767
90301SOL     OW72799   0.687  13.903  10.254
90301SOL    HW172800   0.688  13.972  10.187
90301SOL    HW272801   0.722  13.945  10.332
90302SOL     OW72802   6.196   9.396   0.924
90302SOL    HW172803   6.270   9.336   0.934
90302SOL    HW272804   6.162   9.378   0.837
90303SOL     OW72805   3.382   6.603   4.618
90303SOL    HW172806   3.353   6.540   4.685
90303SOL    HW272807   3.436   6.551   4.558
90304SOL     OW72808  13.143   7.561   1.438
90304SOL    HW172809  13.065   7.507   1.422
90304SOL    HW272810  13.124   7.643   1.392
90305SOL     OW72811   9.436   5.337   4.941
90305SOL    HW172812   9.400   5.249   4.951
90305SOL    HW272813   9.421   5.379   5.026
90306SOL     OW72814  10.522  13.369   9.980
90306SOL    HW172815  10.431  13.344   9.962
90306SOL    HW272816  10.532  13.355  10.074
90307SOL     OW72817  10.368  13.975   8.422
90307SOL    HW172818  10.455  13.942   8.398
90307SOL    HW272819  10.320  13.978   8.340
90308SOL     OW72820   3.027  11.420   6.682
90308SOL    HW172821   2.989  11.505   6.702
90308SOL    HW272822   3.068  11.431   6.597
90309SOL     OW72823   3.993  10.766  10.192
90309SOL    HW172824   4.055  10.821  10.241
90309SOL    HW272825   4.028  10.765  10.103
90310SOL     OW72826  13.363   2.132   0.471
90310SOL    HW172827  13.419   2.167   0.540
90310SOL    HW272828  13.355   2.039   0.491
90311SOL     OW72829   4.129  12.432   7.781
90311SOL    HW172830   4.045  12.425   7.827
90311SOL    HW272831   4.164  12.516   7.810
90312SOL     OW72832   4.945  10.165   8.243
90312SOL    HW172833   4.890  10.183   8.319
90312SOL    HW272834   4.901  10.211   8.171
90313SOL     OW72835  14.757  12.886  12.844
90313SOL    HW172836  14.837  12.835  12.827
90313SOL    HW272837  14.759  12.956  12.779
90314SOL     OW72838  10.935  11.795   1.222
90314SOL    HW172839  10.841  11.790   1.242
90314SOL    HW272840  10.948  11.886   1.194
90315SOL     OW72841   3.071   7.183   2.470
90315SOL    HW172842   3.059   7.171   2.564
90315SOL    HW272843   3.116   7.103   2.442
90316SOL     OW72844  13.569   8.158  14.004
90316SOL    HW172845  13.588   8.164  13.910
90316SOL    HW272846  13.592   8.245  14.038
90317SOL     OW72847   0.409   6.890   7.675
90317SOL    HW172848   0.388   6.848   7.591
90317SOL    HW272849   0.381   6.827   7.741
90318SOL     OW72850   3.113  11.694  10.145
90318SOL    HW172851   3.034  11.659  10.105
90318SOL    HW272852   3.179  11.690  10.075
90319SOL     OW72853  12.985  14.434  11.817
90319SOL    HW172854  12.955  14.512  11.863
90319SOL    HW272855  12.985  14.365  11.884
90320SOL     OW72856  11.471  12.758   0.433
90320SOL    HW172857  11.551  12.756   0.486
90320SOL    HW272858  11.410  12.701   0.480
90321SOL     OW72859  12.355   4.396   8.294
90321SOL    HW172860  12.321   4.306   8.297
90321SOL    HW272861  12.440   4.388   8.250
90322SOL     OW72862   7.664  13.568  11.958
90322SOL    HW172863   7.728  13.551  12.028
90322SOL    HW272864   7.605  13.494  11.960
90323SOL     OW72865   3.437   1.129   3.172
90323SOL    HW172866   3.387   1.053   3.202
90323SOL    HW272867   3.380   1.171   3.107
90324SOL     OW72868   3.822   6.012  11.300
90324SOL    HW172869   3.856   6.076  11.237
90324SOL    HW272870   3.780   5.945  11.247
90325SOL     OW72871   5.837  12.350   4.638
90325SOL    HW172872   5.795  12.392   4.562
90325SOL    HW272873   5.814  12.406   4.712
90326SOL     OW72874  14.748   4.099   2.596
90326SOL    HW172875  14.790   4.183   2.615
90326SOL    HW272876  14.811   4.033   2.626
90327SOL     OW72877  10.996   7.784   7.931
90327SOL    HW172878  10.970   7.862   7.979
90327SOL    HW272879  11.081   7.760   7.968
90328SOL     OW72880   7.053   8.604   4.454
90328SOL    HW172881   7.051   8.512   4.480
90328SOL    HW272882   6.991   8.611   4.382
90329SOL     OW72883   5.488   2.844   2.174
90329SOL    HW172884   5.444   2.907   2.232
90329SOL    HW272885   5.562   2.891   2.138
90330SOL     OW72886  11.371   6.760  13.547
90330SOL    HW172887  11.450   6.767  13.493
90330SOL    HW272888  11.402   6.770  13.637
90331SOL     OW72889   4.299   5.316  10.967
90331SOL    HW172890   4.335   5.334  11.054
90331SOL    HW272891   4.373   5.328  10.907
90332SOL     OW72892   7.566  10.420   5.798
90332SOL    HW172893   7.560  10.344   5.855
90332SOL    HW272894   7.524  10.392   5.716
90333SOL     OW72895   8.785   7.580   5.588
90333SOL    HW172896   8.825   7.666   5.577
90333SOL    HW272897   8.741   7.584   5.673
90334SOL     OW72898  12.963   7.398   3.157
90334SOL    HW172899  13.034   7.410   3.220
90334SOL    HW272900  12.885   7.432   3.201
90335SOL     OW72901  10.004  10.533  11.188
90335SOL    HW172902  10.073  10.565  11.247
90335SOL    HW272903  10.051  10.498  11.113
90336SOL     OW72904   0.502  11.563   1.378
90336SOL    HW172905   0.415  11.526   1.394
90336SOL    HW272906   0.497  11.597   1.289
90337SOL     OW72907   8.686  14.295  10.833
90337SOL    HW172908   8.630  14.269  10.906
90337SOL    HW272909   8.726  14.378  10.862
90338SOL     OW72910   3.896   1.418  11.360
90338SOL    HW172911   3.918   1.329  11.330
90338SOL    HW272912   3.913   1.474  11.284
90339SOL     OW72913  14.534   2.365  13.665
90339SOL    HW172914  14.590   2.287  13.666
90339SOL    HW272915  14.513   2.381  13.757
90340SOL     OW72916   5.482   7.119  11.102
90340SOL    HW172917   5.400   7.149  11.064
90340SOL    HW272918   5.457   7.044  11.156
90341SOL     OW72919   3.984  10.493  10.077
90341SOL    HW172920   3.955  10.428  10.140
90341SOL    HW272921   3.961  10.577  10.116
90342SOL     OW72922   2.218  11.128  13.317
90342SOL    HW172923   2.214  11.060  13.384
90342SOL    HW272924   2.134  11.122  13.272
90343SOL     OW72925   8.045   9.054   3.054
90343SOL    HW172926   8.024   8.961   3.048
90343SOL    HW272927   8.103   9.070   2.980
90344SOL     OW72928   3.995   8.221   4.260
90344SOL    HW172929   4.069   8.229   4.319
90344SOL    HW272930   3.940   8.297   4.279
90345SOL     OW72931   2.043  12.299   5.085
90345SOL    HW172932   1.980  12.250   5.138
90345SOL    HW272933   2.095  12.232   5.041
90346SOL     OW72934   9.888   7.962   9.475
90346SOL    HW172935   9.830   7.893   9.508
90346SOL    HW272936   9.839   8.003   9.404
90347SOL     OW72937   6.867  10.501   9.046
90347SOL    HW172938   6.898  10.485   8.956
90347SOL    HW272939   6.786  10.550   9.034
90348SOL     OW72940  12.842   7.908  12.436
90348SOL    HW172941  12.907   7.837  12.434
90348SOL    HW272942  12.772   7.878  12.377
90349SOL     OW72943   5.878   5.251   9.123
90349SOL    HW172944   5.842   5.164   9.141
90349SOL    HW272945   5.827   5.310   9.178
90350SOL     OW72946  14.107   7.025   8.516
90350SOL    HW172947  14.072   7.100   8.565
90350SOL    HW272948  14.036   6.961   8.517
90351SOL     OW72949  13.812   0.769  13.050
90351SOL    HW172950  13.874   0.827  13.005
90351SOL    HW272951  13.854   0.683  13.050
90352SOL     OW72952   1.369   4.678   0.368
90352SOL    HW172953   1.404   4.641   0.287
90352SOL    HW272954   1.440   4.731   0.404
90353SOL     OW72955  12.512   6.387  13.028
90353SOL    HW172956  12.601   6.400  12.996
90353SOL    HW272957  12.522   6.328  13.103
90354SOL     OW72958   5.255   2.165  10.543
90354SOL    HW172959   5.192   2.149  10.473
90354SOL    HW272960   5.318   2.093  10.537
90355SOL     OW72961   1.219   5.068   8.967
90355SOL    HW172962   1.305   5.091   8.932
90355SOL    HW272963   1.180   5.151   8.992
90356SOL     OW72964   0.345   0.915   2.359
90356SOL    HW172965   0.424   0.966   2.344
90356SOL    HW272966   0.371   0.825   2.338
90357SOL     OW72967   8.761   9.498  12.742
90357SOL    HW172968   8.795   9.467  12.658
90357SOL    HW272969   8.793   9.435  12.806
90358SOL     OW72970   2.467   4.223  14.867
90358SOL    HW172971   2.550   4.194  14.828
90358SOL    HW272972   2.437   4.148   0.038
90359SOL     OW72973   4.967   6.160   4.982
90359SOL    HW172974   4.986   6.240   4.931
90359SOL    HW272975   5.007   6.176   5.067
90360SOL     OW72976  13.874  13.577  11.450
90360SOL    HW172977  13.850  13.667  11.468
90360SOL    HW272978  13.831  13.526  11.518
90361SOL     OW72979  10.335   8.573  14.412
90361SOL    HW172980  10.401   8.637  14.440
90361SOL    HW272981  10.275   8.567  14.486
90362SOL     OW72982   6.226   6.022   4.002
90362SOL    HW172983   6.303   6.077   3.988
90362SOL    HW272984   6.225   6.006   4.096
90363SOL     OW72985  11.119   9.738   6.688
90363SOL    HW172986  11.171   9.765   6.764
90363SOL    HW272987  11.071   9.661   6.719
90364SOL     OW72988  12.524   0.338  12.167
90364SOL    HW172989  12.444   0.389  12.163
90364SOL    HW272990  12.529   0.309  12.259
90365SOL     OW72991   2.328   4.799   5.156
90365SOL    HW172992   2.286   4.719   5.188
90365SOL    HW272993   2.390   4.769   5.090
90366SOL     OW72994  12.777  10.810   7.668
90366SOL    HW172995  12.780  10.873   7.597
90366SOL    HW272996  12.746  10.729   7.628
90367SOL     OW72997   7.624   7.133  14.451
90367SOL    HW172998   7.709   7.168  14.476
90367SOL    HW272999   7.641   7.042  14.427
90368SOL     OW73000   9.661  13.911  10.369
90368SOL    HW173001   9.700  13.824  10.363
90368SOL    HW273002   9.736  13.971  10.367
90369SOL     OW73003   6.825  12.488   0.138
90369SOL    HW173004   6.894  12.425   0.117
90369SOL    HW273005   6.792  12.460   0.224
90370SOL     OW73006   8.495   2.335  12.178
90370SOL    HW173007   8.487   2.410  12.237
90370SOL    HW273008   8.426   2.347  12.114
90371SOL     OW73009   6.970   3.092   7.574
90371SOL    HW173010   7.033   3.021   7.559
90371SOL    HW273011   6.991   3.158   7.508
90372SOL     OW73012  13.519   0.116   6.901
90372SOL    HW173013  13.562   0.087   6.981
90372SOL    HW273014  13.437   0.068   6.898
90373SOL     OW73015  13.700   2.145  13.102
90373SOL    HW173016  13.706   2.200  13.180
90373SOL    HW273017  13.638   2.191  13.045
90374SOL     OW73018   4.462   9.498  10.931
90374SOL    HW173019   4.506   9.508  11.016
90374SOL    HW273020   4.442   9.404  10.926
90375SOL     OW73021   7.788  10.264   4.925
90375SOL    HW173022   7.786  10.213   5.007
90375SOL    HW273023   7.878  10.259   4.896
90376SOL     OW73024  13.414   1.530   6.471
90376SOL    HW173025  13.501   1.491   6.466
90376SOL    HW273026  13.371   1.484   6.543
90377SOL     OW73027  14.259   4.667  10.115
90377SOL    HW173028  14.349   4.634  10.104
90377SOL    HW273029  14.269   4.744  10.170
90378SOL     OW73030  11.566   0.080   3.606
90378SOL    HW173031  11.647   0.072   3.557
90378SOL    HW273032  11.593   0.089   3.697
90379SOL     OW73033   4.095   0.372   6.405
90379SOL    HW173034   4.181   0.377   6.448
90379SOL    HW273035   4.093   0.449   6.348
90380SOL     OW73036  10.874   1.817   8.992
90380SOL    HW173037  10.881   1.731   8.952
90380SOL    HW273038  10.839   1.873   8.923
90381SOL     OW73039   6.624   5.945  11.560
90381SOL    HW173040   6.551   5.893  11.592
90381SOL    HW273041   6.701   5.892  11.578
90382SOL     OW73042   1.733   8.424   7.518
90382SOL    HW173043   1.790   8.348   7.530
90382SOL    HW273044   1.772   8.472   7.445
90383SOL     OW73045   2.475  14.030   7.699
90383SOL    HW173046   2.406  14.060   7.639
90383SOL    HW273047   2.476  14.096   7.769
90384SOL     OW73048   3.985   5.850   3.303
90384SOL    HW173049   4.025   5.809   3.380
90384SOL    HW273050   3.905   5.891   3.337
90385SOL     OW73051  11.408  14.373  11.269
90385SOL    HW173052  11.437  14.347  11.182
90385SOL    HW273053  11.358  14.453  11.255
90386SOL     OW73054   0.983  10.646   3.599
90386SOL    HW173055   0.948  10.585   3.663
90386SOL    HW273056   0.911  10.661   3.538
90387SOL     OW73057  11.514   9.225   5.359
90387SOL    HW173058  11.607   9.212   5.376
90387SOL    HW273059  11.480   9.262   5.440
90388SOL     OW73060  14.252   6.802   4.607
90388SOL    HW173061  14.220   6.880   4.562
90388SOL    HW273062  14.346   6.801   4.591
90389SOL     OW73063  10.300   1.453  12.679
90389SOL    HW173064  10.220   1.495  12.647
90389SOL    HW273065  10.355   1.526  12.708
90390SOL     OW73066   1.476   2.506   7.945
90390SOL    HW173067   1.483   2.454   8.025
90390SOL    HW273068   1.560   2.492   7.900
90391SOL     OW73069  13.863   4.186   8.369
90391SOL    HW173070  13.871   4.267   8.318
90391SOL    HW273071  13.943   4.183   8.422
90392SOL     OW73072   6.276   5.392  13.106
90392SOL    HW173073   6.209   5.390  13.037
90392SOL    HW273074   6.249   5.324  13.168
90393SOL     OW73075   8.360  11.072   5.538
90393SOL    HW173076   8.297  11.119   5.593
90393SOL    HW273077   8.431  11.049   5.598
90394SOL     OW73078   7.353   1.818   1.513
90394SOL    HW173079   7.401   1.746   1.472
90394SOL    HW273080   7.421   1.878   1.543
90395SOL     OW73081  14.540   6.605  14.713
90395SOL    HW173082  14.506   6.603  14.624
90395SOL    HW273083  14.563   6.515  14.732
90396SOL     OW73084   3.841   5.293   1.689
90396SOL    HW173085   3.929   5.283   1.725
90396SOL    HW273086   3.853   5.349   1.612
90397SOL     OW73087   1.115  12.145   6.918
90397SOL    HW173088   1.161  12.193   6.986
90397SOL    HW273089   1.022  12.160   6.938
90398SOL     OW73090   8.561  12.391  11.537
90398SOL    HW173091   8.517  12.335  11.600
90398SOL    HW273092   8.518  12.476  11.546
90399SOL     OW73093  11.744  12.627   2.664
90399SOL    HW173094  11.806  12.697   2.642
90399SOL    HW273095  11.735  12.577   2.582
90400SOL     OW73096  13.094  13.950   3.637
90400SOL    HW173097  13.180  13.989   3.630
90400SOL    HW273098  13.080  13.907   3.552
90401SOL     OW73099   5.677   3.737  13.612
90401SOL    HW173100   5.701   3.828  13.594
90401SOL    HW273101   5.680   3.694  13.526
90402SOL     OW73102   3.316   7.070  11.129
90402SOL    HW173103   3.338   7.057  11.221
90402SOL    HW273104   3.400   7.058  11.083
90403SOL     OW73105   9.532   3.563   8.764
90403SOL    HW173106   9.477   3.505   8.712
90403SOL    HW273107   9.510   3.651   8.733
90404SOL     OW73108  14.874  11.836  14.563
90404SOL    HW173109   0.030  11.917  14.526
90404SOL    HW273110  14.781  11.854  14.575
90405SOL     OW73111  10.021  14.878  11.667
90405SOL    HW173112  10.112  14.854  11.649
90405SOL    HW273113  10.021   0.026  11.758
90406SOL     OW73114   8.264   0.537   9.999
90406SOL    HW173115   8.334   0.602  10.000
90406SOL    HW273116   8.301   0.462   9.953
90407SOL     OW73117   5.873  13.277  14.744
90407SOL    HW173118   5.950  13.314  14.788
90407SOL    HW273119   5.907  13.200  14.697
90408SOL     OW73120  11.300   9.642   5.665
90408SOL    HW173121  11.350   9.653   5.584
90408SOL    HW273122  11.361   9.599   5.725
90409SOL     OW73123  14.638   5.687   6.534
90409SOL    HW173124  14.583   5.618   6.570
90409SOL    HW273125  14.702   5.641   6.479
90410SOL     OW73126   8.814  13.846  10.861
90410SOL    HW173127   8.800  13.920  10.803
90410SOL    HW273128   8.863  13.882  10.935
90411SOL     OW73129   9.670   0.564   1.296
90411SOL    HW173130   9.747   0.613   1.325
90411SOL    HW273131   9.661   0.493   1.360
90412SOL     OW73132  10.610   4.515   4.081
90412SOL    HW173133  10.686   4.530   4.137
90412SOL    HW273134  10.544   4.479   4.140
90413SOL     OW73135  11.248  10.935   5.319
90413SOL    HW173136  11.238  10.859   5.262
90413SOL    HW273137  11.332  10.922   5.363
90414SOL     OW73138  10.846  10.165   8.128
90414SOL    HW173139  10.833  10.110   8.205
90414SOL    HW273140  10.798  10.120   8.058
90415SOL     OW73141   2.573  13.401   2.134
90415SOL    HW173142   2.654  13.363   2.169
90415SOL    HW273143   2.586  13.495   2.140
90416SOL     OW73144  12.904  14.406   1.775
90416SOL    HW173145  12.972  14.474   1.776
90416SOL    HW273146  12.945  14.331   1.733
90417SOL     OW73147   1.829  11.946   2.927
90417SOL    HW173148   1.807  11.981   2.841
90417SOL    HW273149   1.747  11.952   2.977
90418SOL     OW73150   2.527  14.018   1.400
90418SOL    HW173151   2.437  14.042   1.381
90418SOL    HW273152   2.574  14.101   1.402
90419SOL     OW73153   8.463   4.492   7.114
90419SOL    HW173154   8.482   4.494   7.020
90419SOL    HW273155   8.505   4.570   7.149
90420SOL     OW73156   3.142  12.444  11.871
90420SOL    HW173157   3.141  12.353  11.840
90420SOL    HW273158   3.140  12.497  11.791
90421SOL     OW73159  11.548   0.231   6.407
90421SOL    HW173160  11.455   0.252   6.404
90421SOL    HW273161  11.574   0.222   6.315
90422SOL     OW73162   3.589   5.276   2.864
90422SOL    HW173163   3.646   5.259   2.789
90422SOL    HW273164   3.576   5.371   2.864
90423SOL     OW73165   4.325  10.153   0.739
90423SOL    HW173166   4.338  10.111   0.654
90423SOL    HW273167   4.412  10.152   0.780
90424SOL     OW73168   7.780   8.124   8.612
90424SOL    HW173169   7.754   8.097   8.700
90424SOL    HW273170   7.871   8.154   8.622
90425SOL     OW73171   1.079  10.387   0.059
90425SOL    HW173172   1.155  10.436   0.029
90425SOL    HW273173   1.007  10.450   0.055
90426SOL     OW73174   6.500   2.295   8.297
90426SOL    HW173175   6.533   2.385   8.300
90426SOL    HW273176   6.507   2.264   8.388
90427SOL     OW73177  14.091   0.709   8.059
90427SOL    HW173178  14.175   0.677   8.092
90427SOL    HW273179  14.028   0.686   8.127
90428SOL     OW73180  14.494   5.820   9.717
90428SOL    HW173181  14.527   5.763   9.648
90428SOL    HW273182  14.408   5.783   9.740
90429SOL     OW73183  13.021   3.343  13.136
90429SOL    HW173184  13.031   3.281  13.064
90429SOL    HW273185  13.003   3.288  13.212
90430SOL     OW73186   1.837   3.351   9.789
90430SOL    HW173187   1.930   3.370   9.772
90430SOL    HW273188   1.791   3.392   9.715
90431SOL     OW73189   5.290  13.013  10.557
90431SOL    HW173190   5.302  13.072  10.632
90431SOL    HW273191   5.350  12.941  10.574
90432SOL     OW73192   3.362  13.578   8.328
90432SOL    HW173193   3.367  13.565   8.233
90432SOL    HW273194   3.275  13.616   8.342
90433SOL     OW73195   0.263   6.288  10.969
90433SOL    HW173196   0.283   6.315  11.059
90433SOL    HW273197   0.324   6.337  10.915
90434SOL     OW73198  11.370  12.452   8.005
90434SOL    HW173199  11.298  12.435   8.065
90434SOL    HW273200  11.412  12.530   8.041
90435SOL     OW73201   2.764  13.040  13.767
90435SOL    HW173202   2.799  13.090  13.841
90435SOL    HW273203   2.840  12.999  13.726
90436SOL     OW73204   5.024   5.721   4.470
90436SOL    HW173205   4.951   5.744   4.413
90436SOL    HW273206   4.986   5.721   4.558
90437SOL     OW73207  13.973   7.075   0.438
90437SOL    HW173208  13.973   7.145   0.373
90437SOL    HW273209  13.882   7.047   0.444
90438SOL     OW73210  13.738  13.812  11.314
90438SOL    HW173211  13.784  13.761  11.247
90438SOL    HW273212  13.754  13.903  11.289
90439SOL     OW73213   9.252  13.686  12.185
90439SOL    HW173214   9.199  13.764  12.164
90439SOL    HW273215   9.290  13.706  12.271
90440SOL     OW73216  10.095  10.771  10.596
90440SOL    HW173217  10.176  10.822  10.589
90440SOL    HW273218  10.121  10.681  10.576
90441SOL     OW73219   9.713  11.448   9.853
90441SOL    HW173220   9.777  11.518   9.854
90441SOL    HW273221   9.704  11.423   9.761
90442SOL     OW73222  14.690  14.777   1.735
90442SOL    HW173223  14.613  14.722   1.717
90442SOL    HW273224  14.699  14.832   1.657
90443SOL     OW73225   7.955   4.169  13.410
90443SOL    HW173226   7.979   4.244  13.465
90443SOL    HW273227   7.865   4.148  13.435
90444SOL     OW73228  11.279  14.266   1.205
90444SOL    HW173229  11.295  14.355   1.239
90444SOL    HW273230  11.303  14.208   1.277
90445SOL     OW73231  13.788   6.556  10.113
90445SOL    HW173232  13.868   6.506  10.096
90445SOL    HW273233  13.737   6.501  10.172
90446SOL     OW73234   7.638   6.386   8.792
90446SOL    HW173235   7.700   6.363   8.861
90446SOL    HW273236   7.658   6.478   8.773
90447SOL     OW73237   7.210  11.920   6.778
90447SOL    HW173238   7.137  11.928   6.839
90447SOL    HW273239   7.225  12.009   6.746
90448SOL     OW73240   4.598   6.015   3.680
90448SOL    HW173241   4.509   6.039   3.704
90448SOL    HW273242   4.594   5.920   3.666
90449SOL     OW73243   1.622   0.097   1.809
90449SOL    HW173244   1.597   0.005   1.806
90449SOL    HW273245   1.638   0.115   1.902
90450SOL     OW73246  14.255  12.368   9.182
90450SOL    HW173247  14.239  12.282   9.142
90450SOL    HW273248  14.169  12.394   9.215
90451SOL     OW73249   5.506   0.556   3.848
90451SOL    HW173250   5.581   0.543   3.906
90451SOL    HW273251   5.453   0.623   3.892
90452SOL     OW73252   5.096  12.658  10.970
90452SOL    HW173253   5.113  12.566  10.952
90452SOL    HW273254   5.183  12.698  10.973
90453SOL     OW73255  11.920  10.732   7.689
90453SOL    HW173256  12.001  10.688   7.666
90453SOL    HW273257  11.931  10.757   7.781
90454SOL     OW73258   8.816  14.420   5.064
90454SOL    HW173259   8.863  14.398   5.144
90454SOL    HW273260   8.794  14.335   5.025
90455SOL     OW73261   7.577   7.258   7.632
90455SOL    HW173262   7.573   7.317   7.708
90455SOL    HW273263   7.501   7.283   7.578
90456SOL     OW73264   1.314   9.601  13.861
90456SOL    HW173265   1.240   9.591  13.802
90456SOL    HW273266   1.359   9.679  13.830
90457SOL     OW73267  14.558   0.683   6.591
90457SOL    HW173268  14.606   0.733   6.526
90457SOL    HW273269  14.480   0.652   6.544
90458SOL     OW73270   4.534  13.604   4.241
90458SOL    HW173271   4.567  13.584   4.154
90458SOL    HW273272   4.462  13.665   4.227
90459SOL     OW73273   2.407   6.376   6.720
90459SOL    HW173274   2.411   6.311   6.791
90459SOL    HW273275   2.319   6.413   6.727
90460SOL     OW73276  12.545   3.369   7.326
90460SOL    HW173277  12.544   3.299   7.260
90460SOL    HW273278  12.500   3.332   7.401
90461SOL     OW73279  13.395   0.530   1.993
90461SOL    HW173280  13.480   0.571   2.009
90461SOL    HW273281  13.418   0.443   1.959
90462SOL     OW73282   1.368  10.568   5.225
90462SOL    HW173283   1.327  10.648   5.258
90462SOL    HW273284   1.447  10.558   5.278
90463SOL     OW73285  12.695   0.357   7.299
90463SOL    HW173286  12.667   0.273   7.262
90463SOL    HW273287  12.649   0.362   7.383
90464SOL     OW73288   8.914   8.878   4.707
90464SOL    HW173289   8.961   8.847   4.785
90464SOL    HW273290   8.976   8.935   4.662
90465SOL     OW73291   7.975   2.547   6.191
90465SOL    HW173292   8.065   2.545   6.224
90465SOL    HW273293   7.978   2.606   6.117
90466SOL     OW73294   5.854   5.336   4.456
90466SOL    HW173295   5.786   5.296   4.402
90466SOL    HW273296   5.857   5.427   4.426
90467SOL     OW73297   7.590   2.345  13.290
90467SOL    HW173298   7.631   2.374  13.372
90467SOL    HW273299   7.562   2.255  13.308
90468SOL     OW73300   2.890  11.179   6.626
90468SOL    HW173301   2.959  11.127   6.667
90468SOL    HW273302   2.917  11.269   6.638
90469SOL     OW73303   9.208   0.459  13.895
90469SOL    HW173304   9.189   0.365  13.894
90469SOL    HW273305   9.122   0.501  13.888
90470SOL     OW73306   3.759   7.507   8.273
90470SOL    HW173307   3.677   7.459   8.261
90470SOL    HW273308   3.793   7.476   8.357
90471SOL     OW73309   2.698  13.431   0.833
90471SOL    HW173310   2.781  13.460   0.796
90471SOL    HW273311   2.656  13.381   0.763
90472SOL     OW73312  10.015  10.111   0.481
90472SOL    HW173313  10.007  10.114   0.576
90472SOL    HW273314  10.098  10.066   0.465
90473SOL     OW73315   0.784   3.447  12.543
90473SOL    HW173316   0.752   3.526  12.587
90473SOL    HW273317   0.795   3.383  12.613
90474SOL     OW73318   8.361   5.346   3.011
90474SOL    HW173319   8.363   5.261   3.055
90474SOL    HW273320   8.340   5.408   3.081
90475SOL     OW73321   7.188  11.891   8.718
90475SOL    HW173322   7.128  11.949   8.764
90475SOL    HW273323   7.131  11.825   8.677
90476SOL     OW73324   9.049   8.173  13.697
90476SOL    HW173325   9.116   8.125  13.746
90476SOL    HW273326   9.039   8.255  13.745
90477SOL     OW73327   8.343   3.757  12.439
90477SOL    HW173328   8.271   3.751  12.376
90477SOL    HW273329   8.382   3.669  12.438
90478SOL     OW73330  14.857   5.244   6.139
90478SOL    HW173331  14.808   5.184   6.196
90478SOL    HW273332  14.793   5.310   6.113
90479SOL     OW73333  13.250   6.567  14.303
90479SOL    HW173334  13.329   6.607  14.340
90479SOL    HW273335  13.249   6.479  14.340
90480SOL     OW73336   4.136  12.010  12.673
90480SOL    HW173337   4.138  12.104  12.655
90480SOL    HW273338   4.228  11.983  12.671
90481SOL     OW73339   4.731   4.281  13.239
90481SOL    HW173340   4.767   4.355  13.191
90481SOL    HW273341   4.748   4.300  13.331
90482SOL     OW73342   3.946   9.466   8.008
90482SOL    HW173343   3.958   9.438   7.917
90482SOL    HW273344   4.034   9.470   8.043
90483SOL     OW73345   6.384  14.273   3.640
90483SOL    HW173346   6.479  14.262   3.651
90483SOL    HW273347   6.375  14.320   3.557
90484SOL     OW73348   2.207  11.322   4.549
90484SOL    HW173349   2.256  11.365   4.480
90484SOL    HW273350   2.260  11.246   4.573
90485SOL     OW73351   7.933   2.854  14.175
90485SOL    HW173352   7.921   2.939  14.217
90485SOL    HW273353   7.845   2.817  14.170
90486SOL     OW73354   7.436   7.971   7.161
90486SOL    HW173355   7.346   7.938   7.165
90486SOL    HW273356   7.470   7.958   7.250
90487SOL     OW73357   2.988   7.948  10.765
90487SOL    HW173358   3.043   7.871  10.779
90487SOL    HW273359   2.899   7.917  10.781
90488SOL     OW73360   8.942   1.631   6.577
90488SOL    HW173361   8.869   1.681   6.613
90488SOL    HW273362   8.914   1.540   6.579
90489SOL     OW73363  10.823   8.759   4.669
90489SOL    HW173364  10.837   8.851   4.690
90489SOL    HW273365  10.732   8.755   4.639
90490SOL     OW73366   3.156   1.835  12.740
90490SOL    HW173367   3.180   1.841  12.833
90490SOL    HW273368   3.126   1.745  12.729
90491SOL     OW73369  11.686  11.107   0.507
90491SOL    HW173370  11.726  11.023   0.484
90491SOL    HW273371  11.592  11.092   0.499
90492SOL     OW73372   4.910   9.483  11.686
90492SOL    HW173373   4.958   9.467  11.768
90492SOL    HW273374   4.837   9.421  11.689
90493SOL     OW73375   8.644   4.546  11.896
90493SOL    HW173376   8.552   4.519  11.891
90493SOL    HW273377   8.641   4.632  11.938
90494SOL     OW73378   0.100   4.479   8.062
90494SOL    HW173379   0.034   4.538   8.025
90494SOL    HW273380   0.183   4.515   8.033
90495SOL     OW73381   6.273   7.365   2.406
90495SOL    HW173382   6.348   7.425   2.411
90495SOL    HW273383   6.260   7.337   2.497
90496SOL     OW73384   2.150  11.878   0.719
90496SOL    HW173385   2.139  11.945   0.651
90496SOL    HW273386   2.186  11.802   0.673
90497SOL     OW73387   5.372   0.293   1.340
90497SOL    HW173388   5.429   0.253   1.406
90497SOL    HW273389   5.406   0.261   1.256
90498SOL     OW73390  13.268   5.221  12.923
90498SOL    HW173391  13.359   5.204  12.947
90498SOL    HW273392  13.266   5.210  12.828
90499SOL     OW73393   8.706   6.715   7.054
90499SOL    HW173394   8.698   6.621   7.037
90499SOL    HW273395   8.739   6.751   6.971
90500SOL     OW73396   9.538   3.176   2.181
90500SOL    HW173397   9.458   3.225   2.166
90500SOL    HW273398   9.523   3.092   2.138
90501SOL     OW73399   6.351  10.686   6.620
90501SOL    HW173400   6.277  10.652   6.569
90501SOL    HW273401   6.410  10.722   6.554
90502SOL     OW73402   2.889   0.720   1.400
90502SOL    HW173403   2.930   0.776   1.335
90502SOL    HW273404   2.924   0.632   1.383
90503SOL     OW73405  10.078  11.853  11.761
90503SOL    HW173406  10.018  11.784  11.734
90503SOL    HW273407  10.106  11.827  11.849
90504SOL     OW73408  10.195  11.520   9.931
90504SOL    HW173409  10.201  11.500   9.837
90504SOL    HW273410  10.280  11.559   9.953
90505SOL     OW73411   2.393   8.101   4.561
90505SOL    HW173412   2.475   8.150   4.552
90505SOL    HW273413   2.324   8.165   4.544
90506SOL     OW73414   6.633   1.438   0.644
90506SOL    HW173415   6.627   1.441   0.548
90506SOL    HW273416   6.551   1.398   0.671
90507SOL     OW73417   3.580   3.461   7.283
90507SOL    HW173418   3.526   3.385   7.259
90507SOL    HW273419   3.666   3.423   7.303
90508SOL     OW73420  11.194   8.033   9.523
90508SOL    HW173421  11.143   8.114   9.515
90508SOL    HW273422  11.236   8.040   9.609
90509SOL     OW73423  13.891  11.262   2.746
90509SOL    HW173424  13.891  11.175   2.784
90509SOL    HW273425  13.946  11.314   2.804
90510SOL     OW73426  12.548  10.027   3.136
90510SOL    HW173427  12.494  10.104   3.154
90510SOL    HW273428  12.486   9.954   3.136
90511SOL     OW73429   8.041  11.251   3.673
90511SOL    HW173430   7.995  11.316   3.727
90511SOL    HW273431   8.006  11.167   3.701
90512SOL     OW73432   0.708  12.699  14.330
90512SOL    HW173433   0.700  12.779  14.277
90512SOL    HW273434   0.645  12.638  14.291
90513SOL     OW73435   2.199   7.396  13.098
90513SOL    HW173436   2.261   7.421  13.029
90513SOL    HW273437   2.254   7.369  13.171
90514SOL     OW73438  11.127   1.280  13.759
90514SOL    HW173439  11.159   1.337  13.828
90514SOL    HW273440  11.129   1.334  13.680
90515SOL     OW73441   8.095   5.061  13.913
90515SOL    HW173442   8.176   5.101  13.880
90515SOL    HW273443   8.083   4.983  13.859
90516SOL     OW73444   0.483  13.357   5.572
90516SOL    HW173445   0.390  13.379   5.566
90516SOL    HW273446   0.496  13.292   5.503
90517SOL     OW73447   1.392  12.665   1.766
90517SOL    HW173448   1.334  12.667   1.690
90517SOL    HW273449   1.464  12.724   1.743
90518SOL     OW73450  10.924  10.521   3.149
90518SOL    HW173451  10.901  10.518   3.242
90518SOL    HW273452  10.959  10.434   3.130
90519SOL     OW73453   1.821   8.730   6.617
90519SOL    HW173454   1.857   8.645   6.590
90519SOL    HW273455   1.796   8.772   6.535
90520SOL     OW73456   4.995   7.517   4.463
90520SOL    HW173457   4.936   7.574   4.413
90520SOL    HW273458   5.082   7.553   4.446
90521SOL     OW73459   3.410  12.000  14.310
90521SOL    HW173460   3.458  11.943  14.370
90521SOL    HW273461   3.381  12.073  14.364
90522SOL     OW73462  13.289   7.275  11.429
90522SOL    HW173463  13.211   7.220  11.422
90522SOL    HW273464  13.275   7.344  11.364
90523SOL     OW73465   5.800   8.049   2.347
90523SOL    HW173466   5.735   8.079   2.283
90523SOL    HW273467   5.755   8.054   2.431
90524SOL     OW73468   7.222  13.610   6.672
90524SOL    HW173469   7.214  13.682   6.609
90524SOL    HW273470   7.240  13.533   6.617
90525SOL     OW73471  14.822  11.197  11.986
90525SOL    HW173472  14.767  11.168  12.058
90525SOL    HW273473  14.874  11.120  11.963
90526SOL     OW73474  13.971   0.879  11.899
90526SOL    HW173475  13.922   0.943  11.950
90526SOL    HW273476  13.922   0.797  11.909
90527SOL     OW73477   6.318  14.471   1.437
90527SOL    HW173478   6.373  14.520   1.498
90527SOL    HW273479   6.377  14.405   1.400
90528SOL     OW73480   3.971   9.844   3.131
90528SOL    HW173481   3.896   9.826   3.188
90528SOL    HW273482   3.962   9.937   3.109
90529SOL     OW73483   5.369  14.523   2.690
90529SOL    HW173484   5.296  14.467   2.662
90529SOL    HW273485   5.445  14.488   2.644
90530SOL     OW73486   4.842  11.913   4.250
90530SOL    HW173487   4.782  11.863   4.195
90530SOL    HW273488   4.787  11.979   4.292
90531SOL     OW73489   4.277   1.008  10.655
90531SOL    HW173490   4.307   1.025  10.566
90531SOL    HW273491   4.296   0.915  10.669
90532SOL     OW73492  14.547  11.684  14.511
90532SOL    HW173493  14.519  11.683  14.419
90532SOL    HW273494  14.570  11.776  14.527
90533SOL     OW73495  13.197  14.013   1.343
90533SOL    HW173496  13.257  14.075   1.384
90533SOL    HW273497  13.111  14.035   1.379
90534SOL     OW73498   2.685   2.712   8.115
90534SOL    HW173499   2.699   2.703   8.020
90534SOL    HW273500   2.711   2.628   8.151
90535SOL     OW73501  12.085   4.136   0.979
90535SOL    HW173502  12.148   4.190   0.933
90535SOL    HW273503  12.112   4.046   0.960
90536SOL     OW73504   2.508  10.263   9.184
90536SOL    HW173505   2.441  10.199   9.208
90536SOL    HW273506   2.582  10.211   9.154
90537SOL     OW73507  10.123   4.781   3.016
90537SOL    HW173508  10.168   4.791   2.932
90537SOL    HW273509  10.100   4.688   3.020
90538SOL     OW73510  13.459   9.833   7.050
90538SOL    HW173511  13.462   9.849   7.144
90538SOL    HW273512  13.550   9.835   7.022
90539SOL     OW73513  12.269  14.509   7.036
90539SOL    HW173514  12.341  14.487   7.095
90539SOL    HW273515  12.199  14.448   7.061
90540SOL     OW73516   9.105   9.788  13.925
90540SOL    HW173517   9.128   9.761  14.014
90540SOL    HW273518   9.186   9.780  13.876
90541SOL     OW73519  11.634   0.468   2.606
90541SOL    HW173520  11.599   0.384   2.636
90541SOL    HW273521  11.584   0.534   2.655
90542SOL     OW73522  11.529  10.711   3.094
90542SOL    HW173523  11.466  10.644   3.123
90542SOL    HW273524  11.478  10.768   3.036
90543SOL     OW73525   0.856  10.006   9.133
90543SOL    HW173526   0.863   9.947   9.058
90543SOL    HW273527   0.817   9.954   9.202
90544SOL     OW73528  10.545   5.043   0.503
90544SOL    HW173529  10.607   4.981   0.541
90544SOL    HW273530  10.586   5.070   0.420
90545SOL     OW73531  14.879   7.200  11.131
90545SOL    HW173532   0.067   7.184  11.066
90545SOL    HW273533  14.813   7.132  11.114
90546SOL     OW73534   8.423   1.834   7.125
90546SOL    HW173535   8.461   1.822   7.212
90546SOL    HW273536   8.384   1.749   7.103
90547SOL     OW73537  11.538  11.846  11.460
90547SOL    HW173538  11.488  11.922  11.487
90547SOL    HW273539  11.629  11.874  11.465
90548SOL     OW73540  12.117   0.588  10.874
90548SOL    HW173541  12.141   0.641  10.798
90548SOL    HW273542  12.201   0.567  10.915
90549SOL     OW73543  14.197  11.151   2.663
90549SOL    HW173544  14.122  11.109   2.705
90549SOL    HW273545  14.273  11.115   2.709
90550SOL     OW73546   8.394   1.323   0.103
90550SOL    HW173547   8.463   1.295   0.044
90550SOL    HW273548   8.367   1.243   0.148
90551SOL     OW73549   3.738   7.265   7.804
90551SOL    HW173550   3.687   7.184   7.801
90551SOL    HW273551   3.758   7.277   7.897
90552SOL     OW73552  11.487   3.679  13.449
90552SOL    HW173553  11.545   3.655  13.521
90552SOL    HW273554  11.437   3.754  13.482
90553SOL     OW73555   0.510   8.363   4.527
90553SOL    HW173556   0.556   8.324   4.601
90553SOL    HW273557   0.580   8.384   4.464
90554SOL     OW73558  14.511  11.434   1.675
90554SOL    HW173559  14.572  11.425   1.748
90554SOL    HW273560  14.562  11.478   1.607
90555SOL     OW73561   5.750   8.922   4.673
90555SOL    HW173562   5.800   8.840   4.665
90555SOL    HW273563   5.802   8.976   4.733
90556SOL     OW73564   8.522  10.752   9.983
90556SOL    HW173565   8.545  10.718  10.069
90556SOL    HW273566   8.601  10.798   9.953
90557SOL     OW73567   7.026   0.360   0.740
90557SOL    HW173568   7.055   0.334   0.827
90557SOL    HW273569   7.009   0.454   0.748
90558SOL     OW73570   7.558   9.781   9.750
90558SOL    HW173571   7.601   9.837   9.686
90558SOL    HW273572   7.554   9.695   9.709
90559SOL     OW73573   4.807  12.242   1.435
90559SOL    HW173574   4.807  12.157   1.390
90559SOL    HW273575   4.776  12.304   1.370
90560SOL     OW73576   5.576   5.674   9.470
90560SOL    HW173577   5.646   5.682   9.405
90560SOL    HW273578   5.614   5.621   9.540
90561SOL     OW73579   3.828   8.677  13.879
90561SOL    HW173580   3.787   8.709  13.960
90561SOL    HW273581   3.758   8.628  13.836
90562SOL     OW73582  10.015   5.424   5.140
90562SOL    HW173583  10.013   5.450   5.048
90562SOL    HW273584   9.927   5.390   5.156
90563SOL     OW73585   3.677   4.160  14.660
90563SOL    HW173586   3.593   4.147  14.617
90563SOL    HW273587   3.655   4.180  14.751
90564SOL     OW73588   7.883   6.758   1.445
90564SOL    HW173589   7.888   6.734   1.537
90564SOL    HW273590   7.922   6.684   1.399
90565SOL     OW73591   3.280   3.722   8.900
90565SOL    HW173592   3.254   3.798   8.848
90565SOL    HW273593   3.209   3.659   8.887
90566SOL     OW73594   7.889   7.955  12.607
90566SOL    HW173595   7.841   7.894  12.662
90566SOL    HW273596   7.904   7.908  12.525
90567SOL     OW73597   6.461   4.329  12.927
90567SOL    HW173598   6.380   4.319  12.878
90567SOL    HW273599   6.459   4.420  12.958
90568SOL     OW73600   4.363  13.072  11.363
90568SOL    HW173601   4.376  13.010  11.435
90568SOL    HW273602   4.408  13.031  11.288
90569SOL     OW73603   3.247   0.695   3.439
90569SOL    HW173604   3.253   0.604   3.411
90569SOL    HW273605   3.162   0.702   3.483
90570SOL     OW73606   2.366   0.600  14.224
90570SOL    HW173607   2.376   0.531  14.290
90570SOL    HW273608   2.399   0.560  14.143
90571SOL     OW73609   8.081  14.742   8.791
90571SOL    HW173610   8.008  14.687   8.762
90571SOL    HW273611   8.071  14.823   8.742
90572SOL     OW73612  13.536   5.770  12.527
90572SOL    HW173613  13.487   5.827  12.585
90572SOL    HW273614  13.486   5.688  12.526
90573SOL     OW73615  10.842  11.793   7.208
90573SOL    HW173616  10.934  11.818   7.217
90573SOL    HW273617  10.833  11.768   7.116
90574SOL     OW73618   5.090   3.919  11.525
90574SOL    HW173619   5.157   3.911  11.593
90574SOL    HW273620   5.022   3.974  11.564
90575SOL     OW73621   2.254   5.557   8.570
90575SOL    HW173622   2.228   5.517   8.487
90575SOL    HW273623   2.173   5.591   8.607
90576SOL     OW73624   6.178   8.546   4.610
90576SOL    HW173625   6.110   8.488   4.643
90576SOL    HW273626   6.255   8.526   4.663
90577SOL     OW73627   9.054  14.841  11.382
90577SOL    HW173628   8.966  14.842  11.343
90577SOL    HW273629   9.113  14.831  11.308
90578SOL     OW73630   8.536   7.250  12.819
90578SOL    HW173631   8.452   7.288  12.794
90578SOL    HW273632   8.522   7.155  12.811
90579SOL     OW73633  13.427   4.179  13.011
90579SOL    HW173634  13.474   4.146  12.934
90579SOL    HW273635  13.415   4.273  12.993
90580SOL     OW73636   5.652   5.087   5.411
90580SOL    HW173637   5.618   5.101   5.499
90580SOL    HW273638   5.747   5.093   5.420
90581SOL     OW73639  12.656   4.122   9.835
90581SOL    HW173640  12.565   4.110   9.865
90581SOL    HW273641  12.692   4.034   9.833
90582SOL     OW73642   3.341   7.149   3.827
90582SOL    HW173643   3.322   7.123   3.737
90582SOL    HW273644   3.296   7.085   3.881
90583SOL     OW73645  14.110   5.048  12.770
90583SOL    HW173646  14.108   5.133  12.814
90583SOL    HW273647  14.112   5.069  12.677
90584SOL     OW73648  12.582  11.787  10.181
90584SOL    HW173649  12.522  11.841  10.232
90584SOL    HW273650  12.645  11.850  10.145
90585SOL     OW73651   6.724  11.053   7.797
90585SOL    HW173652   6.634  11.062   7.828
90585SOL    HW273653   6.742  10.959   7.801
90586SOL     OW73654   0.062   3.856   5.807
90586SOL    HW173655  14.870   3.804   5.774
90586SOL    HW273656   0.099   3.804   5.878
90587SOL     OW73657  14.130   2.064   0.093
90587SOL    HW173658  14.038   2.053   0.115
90587SOL    HW273659  14.163   1.974   0.082
90588SOL     OW73660   0.879  10.078   7.839
90588SOL    HW173661   0.850  10.041   7.922
90588SOL    HW273662   0.799  10.090   7.788
90589SOL     OW73663  11.592   1.501   9.063
90589SOL    HW173664  11.508   1.532   9.029
90589SOL    HW273665  11.577   1.408   9.082
90590SOL     OW73666   2.420   4.123   5.530
90590SOL    HW173667   2.335   4.079   5.520
90590SOL    HW273668   2.482   4.052   5.547
90591SOL     OW73669  13.362   1.418   9.989
90591SOL    HW173670  13.425   1.401  10.059
90591SOL    HW273671  13.416   1.439   9.913
90592SOL     OW73672   2.469  10.494   2.195
90592SOL    HW173673   2.397  10.434   2.213
90592SOL    HW273674   2.510  10.458   2.116
90593SOL     OW73675   4.380   8.080   4.925
90593SOL    HW173676   4.335   8.005   4.965
90593SOL    HW273677   4.446   8.105   4.990
90594SOL     OW73678   3.661  12.701   2.913
90594SOL    HW173679   3.684  12.620   2.958
90594SOL    HW273680   3.702  12.770   2.965
90595SOL     OW73681   2.919  10.194  10.624
90595SOL    HW173682   2.893  10.167  10.712
90595SOL    HW273683   3.014  10.200  10.627
90596SOL     OW73684   5.437   7.962   0.084
90596SOL    HW173685   5.414   7.970  14.872
90596SOL    HW273686   5.420   7.870   0.105
90597SOL     OW73687  12.836   8.540   4.654
90597SOL    HW173688  12.890   8.461   4.658
90597SOL    HW273689  12.898   8.612   4.667
90598SOL     OW73690   5.686   4.212   0.970
90598SOL    HW173691   5.653   4.290   1.016
90598SOL    HW273692   5.731   4.161   1.038
90599SOL     OW73693   4.720   1.116   8.854
90599SOL    HW173694   4.812   1.143   8.863
90599SOL    HW273695   4.708   1.107   8.760
90600SOL     OW73696  10.896  14.022  13.797
90600SOL    HW173697  10.878  13.931  13.774
90600SOL    HW273698  10.821  14.049  13.850
90601SOL     OW73699   9.169   6.478   5.821
90601SOL    HW173700   9.224   6.401   5.833
90601SOL    HW273701   9.083   6.443   5.799
90602SOL     OW73702   7.699   1.102  13.940
90602SOL    HW173703   7.671   1.109  13.849
90602SOL    HW273704   7.791   1.073  13.935
90603SOL     OW73705   3.897   6.214  12.499
90603SOL    HW173706   3.885   6.173  12.413
90603SOL    HW273707   3.916   6.306  12.479
90604SOL     OW73708  12.571   4.345   2.047
90604SOL    HW173709  12.612   4.312   1.967
90604SOL    HW273710  12.477   4.342   2.029
90605SOL     OW73711  11.316   9.350   0.964
90605SOL    HW173712  11.282   9.284   0.904
90605SOL    HW273713  11.407   9.325   0.978
90606SOL     OW73714   0.755   9.560  11.597
90606SOL    HW173715   0.781   9.626  11.660
90606SOL    HW273716   0.813   9.573  11.522
90607SOL     OW73717  10.263   4.380   1.000
90607SOL    HW173718  10.304   4.334   0.926
90607SOL    HW273719  10.203   4.442   0.958
90608SOL     OW73720   8.282   1.478   9.709
90608SOL    HW173721   8.250   1.414   9.773
90608SOL    HW273722   8.240   1.452   9.626
90609SOL     OW73723  11.528   0.311   2.071
90609SOL    HW173724  11.562   0.297   1.983
90609SOL    HW273725  11.600   0.351   2.120
90610SOL     OW73726   1.516   4.127   5.277
90610SOL    HW173727   1.523   4.187   5.203
90610SOL    HW273728   1.604   4.090   5.287
90611SOL     OW73729   2.431   1.125   2.733
90611SOL    HW173730   2.484   1.069   2.677
90611SOL    HW273731   2.376   1.175   2.673
90612SOL     OW73732   8.338  10.948   0.665
90612SOL    HW173733   8.339  10.956   0.761
90612SOL    HW273734   8.417  10.897   0.645
90613SOL     OW73735  11.886  12.648  10.757
90613SOL    HW173736  11.966  12.604  10.726
90613SOL    HW273737  11.917  12.732  10.791
90614SOL     OW73738   9.987   2.350  10.805
90614SOL    HW173739  10.031   2.265  10.806
90614SOL    HW273740   9.961   2.366  10.895
90615SOL     OW73741   2.316   4.824   9.871
90615SOL    HW173742   2.312   4.854   9.962
90615SOL    HW273743   2.273   4.893   9.821
90616SOL     OW73744   6.670  10.466   6.509
90616SOL    HW173745   6.670  10.382   6.462
90616SOL    HW273746   6.682  10.442   6.601
90617SOL     OW73747   5.904   4.919   5.224
90617SOL    HW173748   5.959   4.847   5.194
90617SOL    HW273749   5.839   4.931   5.155
90618SOL     OW73750   5.668   2.610   1.598
90618SOL    HW173751   5.663   2.705   1.609
90618SOL    HW273752   5.581   2.578   1.620
90619SOL     OW73753   9.334   4.002   2.940
90619SOL    HW173754   9.382   4.025   3.019
90619SOL    HW273755   9.252   4.051   2.946
90620SOL     OW73756   6.951   0.287   9.120
90620SOL    HW173757   6.974   0.200   9.089
90620SOL    HW273758   6.856   0.283   9.133
90621SOL     OW73759   6.078  14.759   2.580
90621SOL    HW173760   6.050  14.738   2.491
90621SOL    HW273761   6.051  14.683   2.632
90622SOL     OW73762   8.270   4.224   8.855
90622SOL    HW173763   8.316   4.295   8.811
90622SOL    HW273764   8.335   4.154   8.863
90623SOL     OW73765   1.762   7.676  10.031
90623SOL    HW173766   1.768   7.620  10.109
90623SOL    HW273767   1.675   7.657   9.996
90624SOL     OW73768   8.702  13.712   4.749
90624SOL    HW173769   8.795  13.714   4.727
90624SOL    HW273770   8.697  13.742   4.839
90625SOL     OW73771   9.092   5.645  10.186
90625SOL    HW173772   9.042   5.723  10.209
90625SOL    HW273773   9.038   5.599  10.122
90626SOL     OW73774  12.711   1.759  14.616
90626SOL    HW173775  12.762   1.687  14.655
90626SOL    HW273776  12.754   1.838  14.648
90627SOL     OW73777  12.509   0.324   8.569
90627SOL    HW173778  12.428   0.364   8.601
90627SOL    HW273779  12.510   0.344   8.475
90628SOL     OW73780  10.782   9.201   0.181
90628SOL    HW173781  10.798   9.274   0.121
90628SOL    HW273782  10.709   9.153   0.141
90629SOL     OW73783   5.970   1.474   8.392
90629SOL    HW173784   6.053   1.508   8.360
90629SOL    HW273785   5.910   1.480   8.318
90630SOL     OW73786  14.805   4.680   7.221
90630SOL    HW173787  14.767   4.616   7.161
90630SOL    HW273788  14.777   4.651   7.308
90631SOL     OW73789  12.778   7.121   8.178
90631SOL    HW173790  12.817   7.047   8.131
90631SOL    HW273791  12.765   7.090   8.267
90632SOL     OW73792   4.949   4.221  10.905
90632SOL    HW173793   4.970   4.207  10.813
90632SOL    HW273794   4.875   4.162  10.922
90633SOL     OW73795  14.016  13.800  11.704
90633SOL    HW173796  13.981  13.840  11.624
90633SOL    HW273797  14.060  13.871  11.749
90634SOL     OW73798  13.560   3.450  12.276
90634SOL    HW173799  13.506   3.520  12.314
90634SOL    HW273800  13.633   3.495  12.234
90635SOL     OW73801   8.403   6.232   1.274
90635SOL    HW173802   8.330   6.291   1.255
90635SOL    HW273803   8.433   6.203   1.188
90636SOL     OW73804   9.655   3.319   5.147
90636SOL    HW173805   9.707   3.248   5.186
90636SOL    HW273806   9.709   3.353   5.076
90637SOL     OW73807  12.574  12.070   5.455
90637SOL    HW173808  12.493  12.062   5.405
90637SOL    HW273809  12.628  12.130   5.403
90638SOL     OW73810  14.440   8.938  10.560
90638SOL    HW173811  14.452   8.999  10.487
90638SOL    HW273812  14.350   8.908  10.552
90639SOL     OW73813   0.845   9.442   0.790
90639SOL    HW173814   0.876   9.376   0.851
90639SOL    HW273815   0.775   9.399   0.741
90640SOL     OW73816   1.443  12.424   7.689
90640SOL    HW173817   1.414  12.416   7.780
90640SOL    HW273818   1.498  12.347   7.675
90641SOL     OW73819  10.802  11.425  11.470
90641SOL    HW173820  10.730  11.479  11.438
90641SOL    HW273821  10.797  11.433  11.565
90642SOL     OW73822   6.687   9.657   0.740
90642SOL    HW173823   6.619   9.643   0.674
90642SOL    HW273824   6.696   9.752   0.745
90643SOL     OW73825  14.783  10.086   4.985
90643SOL    HW173826  14.758  10.147   4.916
90643SOL    HW273827  14.795  10.002   4.940
90644SOL     OW73828   2.934   8.461   2.449
90644SOL    HW173829   2.930   8.456   2.544
90644SOL    HW273830   2.992   8.389   2.424
90645SOL     OW73831  11.173  10.606   1.267
90645SOL    HW173832  11.258  10.620   1.227
90645SOL    HW273833  11.127  10.548   1.206
90646SOL     OW73834   7.737  10.758   1.943
90646SOL    HW173835   7.746  10.845   1.903
90646SOL    HW273836   7.733  10.698   1.868
90647SOL     OW73837   9.492  12.619   6.859
90647SOL    HW173838   9.455  12.543   6.815
90647SOL    HW273839   9.424  12.686   6.850
90648SOL     OW73840  11.931   9.975   0.153
90648SOL    HW173841  12.006  10.035   0.154
90648SOL    HW273842  11.915   9.956   0.246
90649SOL     OW73843   7.203   1.660  10.110
90649SOL    HW173844   7.147   1.721  10.160
90649SOL    HW273845   7.190   1.576  10.153
90650SOL     OW73846   1.772   9.498  12.061
90650SOL    HW173847   1.719   9.567  12.101
90650SOL    HW273848   1.713   9.423  12.055
90651SOL     OW73849  12.794  10.081   1.920
90651SOL    HW173850  12.782  10.160   1.973
90651SOL    HW273851  12.733  10.091   1.847
90652SOL     OW73852   5.450   5.721   5.301
90652SOL    HW173853   5.525   5.683   5.254
90652SOL    HW273854   5.449   5.676   5.385
90653SOL     OW73855  14.853   5.046   2.626
90653SOL    HW173856  14.797   5.097   2.685
90653SOL    HW273857   0.053   5.099   2.618
90654SOL     OW73858   0.560   5.814   0.926
90654SOL    HW173859   0.612   5.774   0.856
90654SOL    HW273860   0.558   5.907   0.903
90655SOL     OW73861  11.339   4.381  14.225
90655SOL    HW173862  11.268   4.431  14.266
90655SOL    HW273863  11.349   4.420  14.138
90656SOL     OW73864  12.341   0.359   3.483
90656SOL    HW173865  12.311   0.440   3.443
90656SOL    HW273866  12.268   0.298   3.470
90657SOL     OW73867   9.995   6.080  13.670
90657SOL    HW173868  10.034   6.167  13.680
90657SOL    HW273869   9.968   6.055  13.758
90658SOL     OW73870   6.916  10.593  12.510
90658SOL    HW173871   6.846  10.532  12.533
90658SOL    HW273872   6.897  10.672  12.560
90659SOL     OW73873   1.218  14.217  11.408
90659SOL    HW173874   1.180  14.135  11.441
90659SOL    HW273875   1.290  14.188  11.352
90660SOL     OW73876   0.910   8.804   7.720
90660SOL    HW173877   0.826   8.797   7.676
90660SOL    HW273878   0.954   8.721   7.701
90661SOL     OW73879   7.770   1.581   7.073
90661SOL    HW173880   7.700   1.612   7.131
90661SOL    HW273881   7.793   1.495   7.107
90662SOL     OW73882  12.084  10.535   1.683
90662SOL    HW173883  12.045  10.510   1.767
90662SOL    HW273884  12.161  10.588   1.707
90663SOL     OW73885   2.319   8.219  14.360
90663SOL    HW173886   2.322   8.287  14.292
90663SOL    HW273887   2.305   8.138  14.312
90664SOL     OW73888   4.904  10.206   9.853
90664SOL    HW173889   4.878  10.207   9.761
90664SOL    HW273890   4.839  10.151   9.896
90665SOL     OW73891  11.291   7.295   8.397
90665SOL    HW173892  11.354   7.333   8.335
90665SOL    HW273893  11.330   7.212   8.423
90666SOL     OW73894   9.925   9.513   8.418
90666SOL    HW173895   9.955   9.505   8.328
90666SOL    HW273896   9.945   9.604   8.442
90667SOL     OW73897   2.251   5.410  13.684
90667SOL    HW173898   2.174   5.454  13.650
90667SOL    HW273899   2.305   5.393  13.607
90668SOL     OW73900   3.327  13.144   1.521
90668SOL    HW173901   3.337  13.050   1.537
90668SOL    HW273902   3.300  13.180   1.606
90669SOL     OW73903   1.533  11.275   3.624
90669SOL    HW173904   1.558  11.365   3.605
90669SOL    HW273905   1.547  11.228   3.541
90670SOL     OW73906  11.547   3.304   6.093
90670SOL    HW173907  11.549   3.360   6.015
90670SOL    HW273908  11.466   3.329   6.138
90671SOL     OW73909   7.199  10.401  14.108
90671SOL    HW173910   7.179  10.334  14.174
90671SOL    HW273911   7.245  10.355  14.039
90672SOL     OW73912   1.047   5.771   9.056
90672SOL    HW173913   0.969   5.810   9.095
90672SOL    HW273914   1.116   5.784   9.121
90673SOL     OW73915  13.837  10.029   1.783
90673SOL    HW173916  13.864   9.957   1.727
90673SOL    HW273917  13.870  10.108   1.740
90674SOL     OW73918   9.082   6.903  10.394
90674SOL    HW173919   9.108   6.852  10.470
90674SOL    HW273920   8.989   6.884  10.383
90675SOL     OW73921   2.366   9.931  11.724
90675SOL    HW173922   2.409   9.872  11.785
90675SOL    HW273923   2.363  10.015  11.771
90676SOL     OW73924  11.344  13.145  12.814
90676SOL    HW173925  11.382  13.113  12.896
90676SOL    HW273926  11.268  13.090  12.799
90677SOL     OW73927  11.989   7.798   8.940
90677SOL    HW173928  12.041   7.780   8.862
90677SOL    HW273929  12.015   7.887   8.966
90678SOL     OW73930   2.977  10.026   1.936
90678SOL    HW173931   3.022   9.949   1.902
90678SOL    HW273932   2.926   9.993   2.010
90679SOL     OW73933  14.215   5.304   8.555
90679SOL    HW173934  14.138   5.247   8.549
90679SOL    HW273935  14.213   5.356   8.474
90680SOL     OW73936  14.154  10.503  14.735
90680SOL    HW173937  14.079  10.454  14.702
90680SOL    HW273938  14.224  10.439  14.741
90681SOL     OW73939  10.824  13.255  12.510
90681SOL    HW173940  10.860  13.192  12.572
90681SOL    HW273941  10.811  13.205  12.429
90682SOL     OW73942   7.558   5.194  13.535
90682SOL    HW173943   7.509   5.112  13.544
90682SOL    HW273944   7.641   5.168  13.494
90683SOL     OW73945   7.722  12.018   4.077
90683SOL    HW173946   7.628  12.029   4.091
90683SOL    HW273947   7.744  11.937   4.124
90684SOL     OW73948   8.781   2.491   0.386
90684SOL    HW173949   8.775   2.567   0.328
90684SOL    HW273950   8.848   2.514   0.449
90685SOL     OW73951  11.179  10.136   3.963
90685SOL    HW173952  11.106  10.111   4.020
90685SOL    HW273953  11.209  10.220   3.996
90686SOL     OW73954   0.424   8.878   8.285
90686SOL    HW173955   0.514   8.866   8.257
90686SOL    HW273956   0.425   8.958   8.338
90687SOL     OW73957  12.618   2.768   7.133
90687SOL    HW173958  12.632   2.685   7.088
90687SOL    HW273959  12.688   2.825   7.102
90688SOL     OW73960  13.297   9.240  14.822
90688SOL    HW173961  13.211   9.282  14.822
90688SOL    HW273962  13.328   9.250  14.732
90689SOL     OW73963   4.426   2.541   2.455
90689SOL    HW173964   4.351   2.549   2.514
90689SOL    HW273965   4.395   2.575   2.371
90690SOL     OW73966  11.938  13.021  11.172
90690SOL    HW173967  11.881  13.049  11.101
90690SOL    HW273968  12.026  13.027  11.136
90691SOL     OW73969   0.731   2.690   1.826
90691SOL    HW173970   0.640   2.719   1.837
90691SOL    HW273971   0.728   2.632   1.750
90692SOL     OW73972   1.287  14.869  10.932
90692SOL    HW173973   1.244  14.833  10.855
90692SOL    HW273974   1.340  14.797  10.967
90693SOL     OW73975   5.470  14.687  12.952
90693SOL    HW173976   5.402  14.643  12.901
90693SOL    HW273977   5.422  14.749  13.007
90694SOL     OW73978  13.747   4.094  11.747
90694SOL    HW173979  13.715   4.056  11.665
90694SOL    HW273980  13.815   4.155  11.721
90695SOL     OW73981   3.324   7.658   1.837
90695SOL    HW173982   3.363   7.607   1.765
90695SOL    HW273983   3.383   7.733   1.847
90696SOL     OW73984   0.141  14.341   3.473
90696SOL    HW173985   0.157  14.260   3.521
90696SOL    HW273986   0.196  14.335   3.395
90697SOL     OW73987  13.986   3.402  10.179
90697SOL    HW173988  13.998   3.376  10.271
90697SOL    HW273989  13.976   3.498  10.183
90698SOL     OW73990  13.240   0.996  14.380
90698SOL    HW173991  13.330   1.014  14.408
90698SOL    HW273992  13.249   0.925  14.316
90699SOL     OW73993   4.114  14.669   6.687
90699SOL    HW173994   4.040  14.613   6.712
90699SOL    HW273995   4.079  14.727   6.619
90700SOL     OW73996  14.606  13.315   3.974
90700SOL    HW173997  14.554  13.235   3.962
90700SOL    HW273998  14.583  13.346   4.062
90701SOL     OW73999   0.727  14.752   6.882
90701SOL    HW174000   0.806  14.737   6.831
90701SOL    HW274001   0.758  14.775   6.970
90702SOL     OW74002   4.626  12.209   3.194
90702SOL    HW174003   4.558  12.203   3.127
90702SOL    HW274004   4.701  12.164   3.155
90703SOL     OW74005   4.770  12.047  11.056
90703SOL    HW174006   4.804  11.974  11.109
90703SOL    HW274007   4.710  12.092  11.115
90704SOL     OW74008  14.255   9.900   0.680
90704SOL    HW174009  14.234   9.821   0.630
90704SOL    HW274010  14.346   9.886   0.709
90705SOL     OW74011   3.468   9.892   3.665
90705SOL    HW174012   3.380   9.878   3.630
90705SOL    HW274013   3.456   9.887   3.760
90706SOL     OW74014   6.811   1.965  14.001
90706SOL    HW174015   6.737   1.939  13.945
90706SOL    HW274016   6.774   2.028  14.062
90707SOL     OW74017   8.374  10.070   9.510
90707SOL    HW174018   8.313  10.094   9.578
90707SOL    HW274019   8.413  10.153   9.481
90708SOL     OW74020   6.494  10.541  11.641
90708SOL    HW174021   6.494  10.624  11.687
90708SOL    HW274022   6.580  10.538  11.597
90709SOL     OW74023  14.681  11.439   7.679
90709SOL    HW174024  14.689  11.396   7.594
90709SOL    HW274025  14.714  11.528   7.664
90710SOL     OW74026   0.134   3.776   6.401
90710SOL    HW174027   0.107   3.797   6.491
90710SOL    HW274028   0.167   3.686   6.407
90711SOL     OW74029   9.778  10.566   1.034
90711SOL    HW174030   9.806  10.582   1.125
90711SOL    HW274031   9.850  10.516   0.996
90712SOL     OW74032   9.074   6.621   3.722
90712SOL    HW174033   9.130   6.557   3.766
90712SOL    HW274034   9.133   6.668   3.663
90713SOL     OW74035   7.945   9.685   6.881
90713SOL    HW174036   8.019   9.711   6.825
90713SOL    HW274037   7.894   9.766   6.892
90714SOL     OW74038   1.471  10.518   4.958
90714SOL    HW174039   1.440  10.526   5.049
90714SOL    HW274040   1.420  10.446   4.922
90715SOL     OW74041   9.763  11.772  13.922
90715SOL    HW174042   9.724  11.855  13.893
90715SOL    HW274043   9.796  11.791  14.009
90716SOL     OW74044   3.046   1.233  12.162
90716SOL    HW174045   2.987   1.288  12.213
90716SOL    HW274046   3.053   1.152  12.211
90717SOL     OW74047  10.703   3.824   7.133
90717SOL    HW174048  10.751   3.889   7.082
90717SOL    HW274049  10.622   3.810   7.083
90718SOL     OW74050   5.413   3.093   8.236
90718SOL    HW174051   5.322   3.124   8.230
90718SOL    HW274052   5.462   3.151   8.178
90719SOL     OW74053  14.751   1.073  12.391
90719SOL    HW174054  14.702   0.990  12.382
90719SOL    HW274055  14.826   1.063  12.333
90720SOL     OW74056   4.668   8.214   2.999
90720SOL    HW174057   4.618   8.231   2.919
90720SOL    HW274058   4.643   8.126   3.025
90721SOL     OW74059   7.093  11.818   3.048
90721SOL    HW174060   7.006  11.817   3.007
90721SOL    HW274061   7.150  11.773   2.985
90722SOL     OW74062   3.982   8.986   5.564
90722SOL    HW174063   4.021   9.023   5.643
90722SOL    HW274064   3.954   9.062   5.513
90723SOL     OW74065   0.660   2.051   4.657
90723SOL    HW174066   0.617   1.966   4.665
90723SOL    HW274067   0.591   2.109   4.626
90724SOL     OW74068   9.896   3.485   7.727
90724SOL    HW174069   9.871   3.555   7.787
90724SOL    HW274070   9.917   3.531   7.645
90725SOL     OW74071  11.839  10.848   4.952
90725SOL    HW174072  11.917  10.849   5.007
90725SOL    HW274073  11.866  10.891   4.871
90726SOL     OW74074  13.045  14.088  11.016
90726SOL    HW174075  13.095  14.130  11.086
90726SOL    HW274076  12.985  14.029  11.061
90727SOL     OW74077  14.750  11.592   9.304
90727SOL    HW174078  14.771  11.662   9.243
90727SOL    HW274079  14.784  11.622   9.388
90728SOL     OW74080   5.092   7.119   2.908
90728SOL    HW174081   5.056   7.199   2.869
90728SOL    HW274082   5.159   7.090   2.845
90729SOL     OW74083   1.909  12.523   0.251
90729SOL    HW174084   1.944  12.560   0.170
90729SOL    HW274085   1.822  12.562   0.260
90730SOL     OW74086  11.637  11.733   8.572
90730SOL    HW174087  11.615  11.813   8.524
90730SOL    HW274088  11.602  11.662   8.518
90731SOL     OW74089   9.680  12.173  10.327
90731SOL    HW174090   9.643  12.096  10.283
90731SOL    HW274091   9.609  12.238  10.326
90732SOL     OW74092  10.694  12.024   1.330
90732SOL    HW174093  10.780  12.058   1.357
90732SOL    HW274094  10.690  11.936   1.368
90733SOL     OW74095   1.454   6.772   5.805
90733SOL    HW174096   1.426   6.864   5.808
90733SOL    HW274097   1.546   6.776   5.779
90734SOL     OW74098   1.651  13.235   3.257
90734SOL    HW174099   1.711  13.304   3.231
90734SOL    HW274100   1.707  13.170   3.300
90735SOL     OW74101   8.431   3.810  11.317
90735SOL    HW174102   8.486   3.736  11.292
90735SOL    HW274103   8.392   3.840  11.234
90736SOL     OW74104   2.172  13.362   7.274
90736SOL    HW174105   2.202  13.273   7.293
90736SOL    HW274106   2.235  13.418   7.319
90737SOL     OW74107   7.555  12.514  11.599
90737SOL    HW174108   7.464  12.543  11.601
90737SOL    HW274109   7.559  12.441  11.661
90738SOL     OW74110   7.337   7.951  13.603
90738SOL    HW174111   7.412   7.893  13.590
90738SOL    HW274112   7.334   8.005  13.524
90739SOL     OW74113   7.390  12.629   9.389
90739SOL    HW174114   7.429  12.707   9.429
90739SOL    HW274115   7.417  12.557   9.446
90740SOL     OW74116   5.069  13.492   1.215
90740SOL    HW174117   5.099  13.541   1.292
90740SOL    HW274118   5.144  13.440   1.188
90741SOL     OW74119   1.789   3.088  10.493
90741SOL    HW174120   1.856   3.020  10.479
90741SOL    HW274121   1.736   3.086  10.414
90742SOL     OW74122   5.274   3.221   4.646
90742SOL    HW174123   5.285   3.161   4.719
90742SOL    HW274124   5.268   3.165   4.569
90743SOL     OW74125   5.476   6.295  11.931
90743SOL    HW174126   5.517   6.213  11.905
90743SOL    HW274127   5.533   6.331  11.999
90744SOL     OW74128   4.879   3.946  13.723
90744SOL    HW174129   4.964   3.946  13.767
90744SOL    HW274130   4.880   3.867  13.669
90745SOL     OW74131   3.115  10.785   0.639
90745SOL    HW174132   3.083  10.871   0.665
90745SOL    HW274133   3.100  10.781   0.545
90746SOL     OW74134   0.474   6.804   7.086
90746SOL    HW174135   0.529   6.826   7.162
90746SOL    HW274136   0.507   6.719   7.057
90747SOL     OW74137   8.173  10.490   6.901
90747SOL    HW174138   8.185  10.395   6.900
90747SOL    HW274139   8.103  10.505   6.964
90748SOL     OW74140   7.852  11.789  13.005
90748SOL    HW174141   7.879  11.874  13.041
90748SOL    HW274142   7.899  11.725  13.058
90749SOL     OW74143   5.930   1.032  13.120
90749SOL    HW174144   5.853   1.036  13.176
90749SOL    HW274145   6.002   1.062  13.176
90750SOL     OW74146   2.311  12.913  13.579
90750SOL    HW174147   2.321  12.984  13.516
90750SOL    HW274148   2.399  12.874  13.586
90751SOL     OW74149   6.236  13.027  12.077
90751SOL    HW174150   6.268  12.953  12.024
90751SOL    HW274151   6.256  13.104  12.024
90752SOL     OW74152  11.017   1.698   3.374
90752SOL    HW174153  11.103   1.719   3.336
90752SOL    HW274154  10.961   1.771   3.348
90753SOL     OW74155   5.601  14.160  13.893
90753SOL    HW174156   5.566  14.182  13.807
90753SOL    HW274157   5.694  14.141  13.877
90754SOL     OW74158   0.321   8.985  13.471
90754SOL    HW174159   0.266   8.979  13.549
90754SOL    HW274160   0.382   8.912  13.479
90755SOL     OW74161   6.268   2.028   5.448
90755SOL    HW174162   6.297   2.114   5.415
90755SOL    HW274163   6.217   1.991   5.376
90756SOL     OW74164   5.425   8.663  10.238
90756SOL    HW174165   5.474   8.646  10.158
90756SOL    HW274166   5.482   8.722  10.289
90757SOL     OW74167  11.611  11.687   2.127
90757SOL    HW174168  11.532  11.710   2.176
90757SOL    HW274169  11.605  11.592   2.116
90758SOL     OW74170   4.264   5.277   4.401
90758SOL    HW174171   4.237   5.365   4.427
90758SOL    HW274172   4.311   5.289   4.319
90759SOL     OW74173   4.753  14.318   3.960
90759SOL    HW174174   4.696  14.302   3.885
90759SOL    HW274175   4.721  14.259   4.028
90760SOL     OW74176  12.886   6.317  11.353
90760SOL    HW174177  12.964   6.279  11.314
90760SOL    HW274178  12.907   6.324  11.446
90761SOL     OW74179   7.601  14.489  10.099
90761SOL    HW174180   7.526  14.436  10.127
90761SOL    HW274181   7.573  14.531  10.018
90762SOL     OW74182   0.710   3.387   9.542
90762SOL    HW174183   0.626   3.434   9.547
90762SOL    HW274184   0.773   3.448   9.580
90763SOL     OW74185  13.932  13.631  12.774
90763SOL    HW174186  14.015  13.664  12.808
90763SOL    HW274187  13.924  13.543  12.809
90764SOL     OW74188  14.595   7.313   8.412
90764SOL    HW174189  14.588   7.408   8.405
90764SOL    HW274190  14.597   7.296   8.506
90765SOL     OW74191   7.365   7.244  11.916
90765SOL    HW174192   7.457   7.267  11.911
90765SOL    HW274193   7.348   7.233  12.009
90766SOL     OW74194  10.093  11.696  10.976
90766SOL    HW174195  10.098  11.785  11.010
90766SOL    HW274196  10.143  11.697  10.895
90767SOL     OW74197   2.003   8.010   6.426
90767SOL    HW174198   1.988   8.099   6.396
90767SOL    HW274199   1.971   7.955   6.355
90768SOL     OW74200   4.639   0.767  14.669
90768SOL    HW174201   4.617   0.800  14.582
90768SOL    HW274202   4.714   0.821  14.696
90769SOL     OW74203  12.960  12.859  14.206
90769SOL    HW174204  12.991  12.839  14.294
90769SOL    HW274205  12.882  12.804  14.195
90770SOL     OW74206   8.122   3.595   3.046
90770SOL    HW174207   8.201   3.607   3.100
90770SOL    HW274208   8.071   3.528   3.091
90771SOL     OW74209  11.280  13.795   5.869
90771SOL    HW174210  11.339  13.858   5.828
90771SOL    HW274211  11.192  13.825   5.845
90772SOL     OW74212   1.509  11.070  14.018
90772SOL    HW174213   1.491  11.120  14.098
90772SOL    HW274214   1.582  11.116  13.976
90773SOL     OW74215   2.121  12.197  10.584
90773SOL    HW174216   2.097  12.136  10.654
90773SOL    HW274217   2.147  12.277  10.630
90774SOL     OW74218  12.283   6.130   3.014
90774SOL    HW174219  12.247   6.199   3.069
90774SOL    HW274220  12.213   6.110   2.951
90775SOL     OW74221  14.430   3.052   5.230
90775SOL    HW174222  14.372   3.085   5.161
90775SOL    HW274223  14.508   3.106   5.223
90776SOL     OW74224   2.289   4.277   3.138
90776SOL    HW174225   2.212   4.264   3.084
90776SOL    HW274226   2.352   4.211   3.108
90777SOL     OW74227  10.630   4.771   2.794
90777SOL    HW174228  10.627   4.856   2.750
90777SOL    HW274229  10.668   4.712   2.730
90778SOL     OW74230   0.466  14.140   7.356
90778SOL    HW174231   0.532  14.158   7.289
90778SOL    HW274232   0.496  14.189   7.433
90779SOL     OW74233  10.282  12.102   3.874
90779SOL    HW174234  10.334  12.151   3.811
90779SOL    HW274235  10.261  12.166   3.942
90780SOL     OW74236   9.542   8.660   1.202
90780SOL    HW174237   9.628   8.667   1.162
90780SOL    HW274238   9.512   8.750   1.212
90781SOL     OW74239  13.078   1.843   9.226
90781SOL    HW174240  13.064   1.748   9.230
90781SOL    HW274241  13.156   1.858   9.279
90782SOL     OW74242   3.377   4.413   0.665
90782SOL    HW174243   3.317   4.361   0.719
90782SOL    HW274244   3.457   4.419   0.718
90783SOL     OW74245  14.800   5.928  12.546
90783SOL    HW174246  14.829   5.998  12.488
90783SOL    HW274247  14.840   5.849  12.511
90784SOL     OW74248   4.571   5.906   9.613
90784SOL    HW174249   4.588   5.937   9.701
90784SOL    HW274250   4.475   5.903   9.606
90785SOL     OW74251  13.589   7.230   1.181
90785SOL    HW174252  13.613   7.304   1.125
90785SOL    HW274253  13.618   7.255   1.268
90786SOL     OW74254   7.901   5.182  12.896
90786SOL    HW174255   7.967   5.244  12.924
90786SOL    HW274256   7.949   5.119  12.842
90787SOL     OW74257  10.742   9.247   7.383
90787SOL    HW174258  10.718   9.323   7.329
90787SOL    HW274259  10.662   9.224   7.429
90788SOL     OW74260   2.188   5.464   8.270
90788SOL    HW174261   2.243   5.387   8.255
90788SOL    HW274262   2.227   5.532   8.214
90789SOL     OW74263   8.351  14.031   9.123
90789SOL    HW174264   8.446  14.025   9.111
90789SOL    HW274265   8.337  14.119   9.158
90790SOL     OW74266   5.923   0.819  11.151
90790SOL    HW174267   5.853   0.808  11.215
90790SOL    HW274268   5.925   0.737  11.103
90791SOL     OW74269  11.045   4.960  11.004
90791SOL    HW174270  11.084   5.036  11.046
90791SOL    HW274271  11.119   4.910  10.971
90792SOL     OW74272   8.644  10.754  14.622
90792SOL    HW174273   8.657  10.683  14.558
90792SOL    HW274274   8.558  10.737  14.659
90793SOL     OW74275   0.887   6.640   0.360
90793SOL    HW174276   0.837   6.716   0.390
90793SOL    HW274277   0.822   6.582   0.322
90794SOL     OW74278   0.501   5.263   9.572
90794SOL    HW174279   0.459   5.183   9.604
90794SOL    HW274280   0.443   5.295   9.503
90795SOL     OW74281  12.542   8.797   9.873
90795SOL    HW174282  12.528   8.824   9.783
90795SOL    HW274283  12.627   8.833   9.897
90796SOL     OW74284   5.520   2.347   3.240
90796SOL    HW174285   5.548   2.303   3.320
90796SOL    HW274286   5.430   2.374   3.257
90797SOL     OW74287  13.008  10.220   4.644
90797SOL    HW174288  13.076  10.155   4.626
90797SOL    HW274289  13.051  10.284   4.701
90798SOL     OW74290   1.246   1.829  12.699
90798SOL    HW174291   1.270   1.777  12.623
90798SOL    HW274292   1.273   1.776  12.774
90799SOL     OW74293   1.576  12.031   0.488
90799SOL    HW174294   1.545  11.950   0.529
90799SOL    HW274295   1.644  12.063   0.548
90800SOL     OW74296   2.297  14.803   0.577
90800SOL    HW174297   2.244  14.848   0.642
90800SOL    HW274298   2.382  14.790   0.619
90801SOL     OW74299   2.688  10.960   7.001
90801SOL    HW174300   2.686  10.993   6.911
90801SOL    HW274301   2.630  11.019   7.050
90802SOL     OW74302   3.201   3.236   3.288
90802SOL    HW174303   3.204   3.142   3.304
90802SOL    HW274304   3.245   3.274   3.365
90803SOL     OW74305   2.522   6.984   9.206
90803SOL    HW174306   2.552   6.894   9.194
90803SOL    HW274307   2.474   6.982   9.289
90804SOL     OW74308   4.332   0.643   7.028
90804SOL    HW174309   4.242   0.658   7.059
90804SOL    HW274310   4.350   0.715   6.969
90805SOL     OW74311   7.782   2.585  13.731
90805SOL    HW174312   7.875   2.598  13.750
90805SOL    HW274313   7.737   2.603  13.813
90806SOL     OW74314   7.104  10.830  12.870
90806SOL    HW174315   7.128  10.778  12.793
90806SOL    HW274316   7.184  10.875  12.896
90807SOL     OW74317   4.464   1.826   0.323
90807SOL    HW174318   4.449   1.919   0.303
90807SOL    HW274319   4.559   1.817   0.326
90808SOL     OW74320   8.012   5.456   3.987
90808SOL    HW174321   8.074   5.518   4.027
90808SOL    HW274322   7.935   5.509   3.968
90809SOL     OW74323   5.339   0.339  13.683
90809SOL    HW174324   5.287   0.293  13.750
90809SOL    HW274325   5.279   0.402  13.646
90810SOL     OW74326  13.137  13.008   4.519
90810SOL    HW174327  13.186  13.036   4.597
90810SOL    HW274328  13.120  13.088   4.471
90811SOL     OW74329   8.689   6.420   6.693
90811SOL    HW174330   8.756   6.361   6.727
90811SOL    HW274331   8.614   6.407   6.751
90812SOL     OW74332   8.882   3.031  14.586
90812SOL    HW174333   8.876   3.121  14.554
90812SOL    HW274334   8.810   3.023  14.649
90813SOL     OW74335  10.438   1.143  10.681
90813SOL    HW174336  10.506   1.147  10.615
90813SOL    HW274337  10.450   1.222  10.734
90814SOL     OW74338   6.585   0.852   8.191
90814SOL    HW174339   6.500   0.817   8.166
90814SOL    HW274340   6.613   0.798   8.265
90815SOL     OW74341  14.770   3.616  11.429
90815SOL    HW174342  14.704   3.635  11.496
90815SOL    HW274343  14.852   3.648  11.466
90816SOL     OW74344   9.122   6.072   4.536
90816SOL    HW174345   9.208   6.040   4.564
90816SOL    HW274346   9.063   6.045   4.606
90817SOL     OW74347   0.900  11.627  10.389
90817SOL    HW174348   0.995  11.629  10.404
90817SOL    HW274349   0.863  11.672  10.465
90818SOL     OW74350  10.384   9.343   1.639
90818SOL    HW174351  10.305   9.288   1.642
90818SOL    HW274352  10.382   9.391   1.722
90819SOL     OW74353   5.770  13.277   7.615
90819SOL    HW174354   5.689  13.226   7.625
90819SOL    HW274355   5.770  13.339   7.688
90820SOL     OW74356   1.845  12.924   5.084
90820SOL    HW174357   1.895  12.941   5.004
90820SOL    HW274358   1.889  12.976   5.151
90821SOL     OW74359   8.013  11.849   3.182
90821SOL    HW174360   8.027  11.775   3.241
90821SOL    HW274361   8.040  11.818   3.096
90822SOL     OW74362  13.492   7.638   7.746
90822SOL    HW174363  13.504   7.545   7.767
90822SOL    HW274364  13.439   7.638   7.667
90823SOL     OW74365   4.427   0.302  10.942
90823SOL    HW174366   4.381   0.386  10.946
90823SOL    HW274367   4.443   0.289  10.848
90824SOL     OW74368  14.379   2.117  14.214
90824SOL    HW174369  14.470   2.122  14.187
90824SOL    HW274370  14.336   2.189  14.168
90825SOL     OW74371   4.833  11.443   7.123
90825SOL    HW174372   4.783  11.478   7.197
90825SOL    HW274373   4.908  11.501   7.115
90826SOL     OW74374  10.422   0.049   6.316
90826SOL    HW174375  10.473   0.087   6.388
90826SOL    HW274376  10.337   0.030   6.355
90827SOL     OW74377   4.446  10.172  13.841
90827SOL    HW174378   4.407  10.193  13.926
90827SOL    HW274379   4.393  10.220  13.778
90828SOL     OW74380   4.045   8.383  11.670
90828SOL    HW174381   4.023   8.322  11.600
90828SOL    HW274382   4.140   8.375  11.681
90829SOL     OW74383   4.434   5.250   8.249
90829SOL    HW174384   4.371   5.304   8.296
90829SOL    HW274385   4.396   5.162   8.250
90830SOL     OW74386   7.744   4.588   5.930
90830SOL    HW174387   7.829   4.625   5.904
90830SOL    HW274388   7.679   4.649   5.896
90831SOL     OW74389   1.935   6.119   2.343
90831SOL    HW174390   1.860   6.080   2.298
90831SOL    HW274391   1.952   6.060   2.416
90832SOL     OW74392   9.329  10.767   1.465
90832SOL    HW174393   9.279  10.846   1.443
90832SOL    HW274394   9.373  10.742   1.383
90833SOL     OW74395   1.283  11.358   4.622
90833SOL    HW174396   1.353  11.308   4.581
90833SOL    HW274397   1.312  11.369   4.713
90834SOL     OW74398  10.175   1.996   6.261
90834SOL    HW174399  10.094   1.971   6.305
90834SOL    HW274400  10.243   1.980   6.326
90835SOL     OW74401   0.104   3.158   9.481
90835SOL    HW174402   0.057   3.125   9.557
90835SOL    HW274403   0.112   3.252   9.497
90836SOL     OW74404   9.907   3.719   9.285
90836SOL    HW174405   9.813   3.737   9.289
90836SOL    HW274406   9.913   3.626   9.265
90837SOL     OW74407  11.527   7.161   8.741
90837SOL    HW174408  11.508   7.255   8.735
90837SOL    HW274409  11.477   7.122   8.670
90838SOL     OW74410   1.853  11.249  13.179
90838SOL    HW174411   1.905  11.210  13.109
90838SOL    HW274412   1.828  11.335  13.144
90839SOL     OW74413  13.557  13.291   8.777
90839SOL    HW174414  13.547  13.346   8.699
90839SOL    HW274415  13.501  13.332   8.843
90840SOL     OW74416  12.327   4.506  11.029
90840SOL    HW174417  12.295   4.416  11.024
90840SOL    HW274418  12.250   4.560  11.010
90841SOL     OW74419   9.655  12.801   6.352
90841SOL    HW174420   9.721  12.851   6.305
90841SOL    HW274421   9.600  12.867   6.395
90842SOL     OW74422   4.170   3.924  10.850
90842SOL    HW174423   4.239   3.919  10.783
90842SOL    HW274424   4.193   3.855  10.913
90843SOL     OW74425   4.639   6.561  10.635
90843SOL    HW174426   4.674   6.518  10.557
90843SOL    HW274427   4.642   6.493  10.703
90844SOL     OW74428   9.808  14.276  10.778
90844SOL    HW174429   9.878  14.289  10.842
90844SOL    HW274430   9.853  14.271  10.694
90845SOL     OW74431   9.222   9.171   4.857
90845SOL    HW174432   9.126   9.174   4.860
90845SOL    HW274433   9.243   9.200   4.768
90846SOL     OW74434  14.669   5.255   0.321
90846SOL    HW174435  14.752   5.301   0.309
90846SOL    HW274436  14.614   5.284   0.248
90847SOL     OW74437   8.571  11.504  14.046
90847SOL    HW174438   8.558  11.419  14.087
90847SOL    HW274439   8.665  11.518  14.048
90848SOL     OW74440   0.583   2.696  14.271
90848SOL    HW174441   0.563   2.786  14.244
90848SOL    HW274442   0.629   2.705  14.354
90849SOL     OW74443   6.051  12.322   0.787
90849SOL    HW174444   6.107  12.399   0.795
90849SOL    HW274445   6.053  12.280   0.873
90850SOL     OW74446   0.446  12.395   1.623
90850SOL    HW174447   0.367  12.369   1.670
90850SOL    HW274448   0.459  12.327   1.558
90851SOL     OW74449   3.906   8.557   5.119
90851SOL    HW174450   3.928   8.641   5.158
90851SOL    HW274451   3.835   8.523   5.174
90852SOL     OW74452   7.299   8.924   2.497
90852SOL    HW174453   7.222   8.975   2.521
90852SOL    HW274454   7.291   8.843   2.548
90853SOL     OW74455   1.711  14.567   6.904
90853SOL    HW174456   1.644  14.600   6.844
90853SOL    HW274457   1.777  14.636   6.906
90854SOL     OW74458   2.608   2.333   2.100
90854SOL    HW174459   2.634   2.424   2.087
90854SOL    HW274460   2.572   2.331   2.189
90855SOL     OW74461   0.101   4.336   5.394
90855SOL    HW174462   0.006   4.322   5.393
90855SOL    HW274463   0.112   4.422   5.436
90856SOL     OW74464   3.961  13.565   6.465
90856SOL    HW174465   3.939  13.584   6.374
90856SOL    HW274466   3.921  13.479   6.481
90857SOL     OW74467  11.466   5.148   7.214
90857SOL    HW174468  11.444   5.062   7.249
90857SOL    HW274469  11.404   5.162   7.142
90858SOL     OW74470   7.541   5.881   8.354
90858SOL    HW174471   7.635   5.870   8.342
90858SOL    HW274472   7.531   5.900   8.448
90859SOL     OW74473   1.301   8.651   7.545
90859SOL    HW174474   1.309   8.649   7.641
90859SOL    HW274475   1.363   8.718   7.517
90860SOL     OW74476  10.875   2.669  11.553
90860SOL    HW174477  10.883   2.575  11.567
90860SOL    HW274478  10.934   2.708  11.618
90861SOL     OW74479   5.648   8.156  12.169
90861SOL    HW174480   5.679   8.226  12.111
90861SOL    HW274481   5.618   8.087  12.109
90862SOL     OW74482  12.549   4.224   5.723
90862SOL    HW174483  12.496   4.288   5.770
90862SOL    HW274484  12.502   4.142   5.731
90863SOL     OW74485   4.156  14.836   3.655
90863SOL    HW174486   4.186  14.823   3.565
90863SOL    HW274487   4.181   0.046   3.676
90864SOL     OW74488   4.422   0.630   7.595
90864SOL    HW174489   4.365   0.554   7.581
90864SOL    HW274490   4.498   0.614   7.539
90865SOL     OW74491  14.814  10.833   4.479
90865SOL    HW174492  14.837  10.772   4.549
90865SOL    HW274493   0.005  10.825   4.416
90866SOL     OW74494   9.406  14.834  12.234
90866SOL    HW174495   9.490  14.878  12.250
90866SOL    HW274496   9.407  14.813  12.141
90867SOL     OW74497   6.387   8.832   1.041
90867SOL    HW174498   6.376   8.845   1.136
90867SOL    HW274499   6.324   8.764   1.019
90868SOL     OW74500  10.138  14.115   7.092
90868SOL    HW174501  10.094  14.197   7.069
90868SOL    HW274502  10.224  14.121   7.050
90869SOL     OW74503   4.583  11.268  10.219
90869SOL    HW174504   4.506  11.319  10.194
90869SOL    HW274505   4.563  11.179  10.191
90870SOL     OW74506  12.587   0.729   0.409
90870SOL    HW174507  12.612   0.661   0.346
90870SOL    HW274508  12.560   0.803   0.355
90871SOL     OW74509   0.545   4.616   9.203
90871SOL    HW174510   0.566   4.567   9.124
90871SOL    HW274511   0.622   4.672   9.218
90872SOL     OW74512  10.632  12.588   7.378
90872SOL    HW174513  10.548  12.624   7.407
90872SOL    HW274514  10.615  12.493   7.372
90873SOL     OW74515   5.166   4.585   8.961
90873SOL    HW174516   5.132   4.567   8.873
90873SOL    HW274517   5.102   4.644   9.000
90874SOL     OW74518  10.077   0.364  13.892
90874SOL    HW174519  10.038   0.434  13.943
90874SOL    HW274520  10.032   0.367  13.808
90875SOL     OW74521  14.228   6.488   3.615
90875SOL    HW174522  14.248   6.438   3.694
90875SOL    HW274523  14.133   6.499   3.616
90876SOL     OW74524   6.183   6.488   4.193
90876SOL    HW174525   6.221   6.410   4.235
90876SOL    HW274526   6.234   6.560   4.230
90877SOL     OW74527   3.883   1.848  13.615
90877SOL    HW174528   3.798   1.807  13.625
90877SOL    HW274529   3.871   1.937  13.649
90878SOL     OW74530   5.116   3.783  11.133
90878SOL    HW174531   5.165   3.846  11.186
90878SOL    HW274532   5.025   3.811  11.141
90879SOL     OW74533   9.425   3.228   3.334
90879SOL    HW174534   9.344   3.223   3.283
90879SOL    HW274535   9.400   3.277   3.412
90880SOL     OW74536  12.688   1.197  14.060
90880SOL    HW174537  12.645   1.282  14.071
90880SOL    HW274538  12.618   1.133  14.068
90881SOL     OW74539   2.134   0.030   0.795
90881SOL    HW174540   2.109   0.106   0.848
90881SOL    HW274541   2.119  14.835   0.852
90882SOL     OW74542   7.443   0.109   8.576
90882SOL    HW174543   7.437   0.075   8.665
90882SOL    HW274544   7.490   0.192   8.585
90883SOL     OW74545   4.411  12.579   7.623
90883SOL    HW174546   4.348  12.571   7.551
90883SOL    HW274547   4.495  12.556   7.583
90884SOL     OW74548   1.141   7.741  11.685
90884SOL    HW174549   1.164   7.712  11.596
90884SOL    HW274550   1.208   7.702  11.741
90885SOL     OW74551   9.203   8.046   2.586
90885SOL    HW174552   9.245   8.123   2.624
90885SOL    HW274553   9.238   7.972   2.634
90886SOL     OW74554   4.569   2.819   0.905
90886SOL    HW174555   4.609   2.859   0.982
90886SOL    HW274556   4.639   2.820   0.839
90887SOL     OW74557   1.122   2.998  13.693
90887SOL    HW174558   1.123   2.902  13.699
90887SOL    HW274559   1.130   3.027  13.784
90888SOL     OW74560  14.873  11.258  12.427
90888SOL    HW174561   0.038  11.324  12.375
90888SOL    HW274562   0.036  11.262  12.513
90889SOL     OW74563  12.697  10.741   0.573
90889SOL    HW174564  12.730  10.784   0.495
90889SOL    HW274565  12.670  10.654   0.543
90890SOL     OW74566   0.486  11.476   2.641
90890SOL    HW174567   0.428  11.517   2.705
90890SOL    HW274568   0.428  11.447   2.571
90891SOL     OW74569   9.052   9.355   8.829
90891SOL    HW174570   9.060   9.447   8.804
90891SOL    HW274571   9.142   9.327   8.847
90892SOL     OW74572   6.238  10.187   7.706
90892SOL    HW174573   6.181  10.112   7.722
90892SOL    HW274574   6.327  10.152   7.719
90893SOL     OW74575   7.760   3.791  13.277
90893SOL    HW174576   7.790   3.790  13.187
90893SOL    HW274577   7.693   3.859  13.280
90894SOL     OW74578  12.753  14.145   6.985
90894SOL    HW174579  12.814  14.214   7.012
90894SOL    HW274580  12.798  14.098   6.915
90895SOL     OW74581   9.240  14.357   5.410
90895SOL    HW174582   9.228  14.424   5.342
90895SOL    HW274583   9.259  14.277   5.361
90896SOL     OW74584   2.454   6.064   5.155
90896SOL    HW174585   2.403   6.025   5.226
90896SOL    HW274586   2.525   6.111   5.199
90897SOL     OW74587  13.449   1.581  11.442
90897SOL    HW174588  13.384   1.645  11.412
90897SOL    HW274589  13.463   1.525  11.366
90898SOL     OW74590   6.086   5.225   9.492
90898SOL    HW174591   6.010   5.188   9.446
90898SOL    HW274592   6.160   5.175   9.460
90899SOL     OW74593   2.916   3.493  11.195
90899SOL    HW174594   2.983   3.477  11.262
90899SOL    HW274595   2.834   3.499  11.244
90900SOL     OW74596  11.924   9.244   0.555
90900SOL    HW174597  11.834   9.237   0.521
90900SOL    HW274598  11.969   9.168   0.517
90901SOL     OW74599  11.419  11.476  12.896
90901SOL    HW174600  11.389  11.434  12.977
90901SOL    HW274601  11.508  11.444  12.884
90902SOL     OW74602   4.666  11.512   7.356
90902SOL    HW174603   4.666  11.606   7.377
90902SOL    HW274604   4.589  11.478   7.401
90903SOL     OW74605  11.356   9.009   0.754
90903SOL    HW174606  11.291   9.035   0.688
90903SOL    HW274607  11.312   9.023   0.838
90904SOL     OW74608   1.884  10.371   3.821
90904SOL    HW174609   1.919  10.325   3.745
90904SOL    HW274610   1.822  10.310   3.860
90905SOL     OW74611   7.060  14.311   6.980
90905SOL    HW174612   7.109  14.247   7.032
90905SOL    HW274613   6.972  14.310   7.016
90906SOL     OW74614  13.283   5.798   6.441
90906SOL    HW174615  13.299   5.749   6.360
90906SOL    HW274616  13.345   5.760   6.504
90907SOL     OW74617   1.229  13.185  13.796
90907SOL    HW174618   1.243  13.194  13.890
90907SOL    HW274619   1.218  13.091  13.782
90908SOL     OW74620   9.212  14.388  14.368
90908SOL    HW174621   9.127  14.352  14.344
90908SOL    HW274622   9.257  14.400  14.284
90909SOL     OW74623  10.494  14.507  14.102
90909SOL    HW174624  10.504  14.433  14.042
90909SOL    HW274625  10.416  14.485  14.154
90910SOL     OW74626   1.154  12.643   9.222
90910SOL    HW174627   1.116  12.639   9.135
90910SOL    HW274628   1.247  12.621   9.208
90911SOL     OW74629   4.008   5.349   2.287
90911SOL    HW174630   3.977   5.429   2.245
90911SOL    HW274631   4.099   5.339   2.257
90912SOL     OW74632  14.362   8.421   9.652
90912SOL    HW174633  14.411   8.339   9.652
90912SOL    HW274634  14.378   8.458   9.739
90913SOL     OW74635   1.132   6.667   3.689
90913SOL    HW174636   1.155   6.702   3.775
90913SOL    HW274637   1.105   6.744   3.639
90914SOL     OW74638   4.822   8.083   6.304
90914SOL    HW174639   4.846   7.994   6.332
90914SOL    HW274640   4.815   8.132   6.386
90915SOL     OW74641  13.249   8.794   8.508
90915SOL    HW174642  13.264   8.887   8.524
90915SOL    HW274643  13.186   8.792   8.436
90916SOL     OW74644   3.634   3.141   6.460
90916SOL    HW174645   3.582   3.110   6.385
90916SOL    HW274646   3.651   3.062   6.511
90917SOL     OW74647   5.613   8.116   2.559
90917SOL    HW174648   5.525   8.100   2.594
90917SOL    HW274649   5.672   8.094   2.631
90918SOL     OW74650   1.216   2.107  14.330
90918SOL    HW174651   1.124   2.096  14.305
90918SOL    HW274652   1.246   2.181  14.278
90919SOL     OW74653  12.097   1.873  11.478
90919SOL    HW174654  12.183   1.916  11.475
90919SOL    HW274655  12.096   1.828  11.562
90920SOL     OW74656  14.040  10.481  13.154
90920SOL    HW174657  14.064  10.477  13.062
90920SOL    HW274658  14.114  10.524  13.197
90921SOL     OW74659  12.979   3.795   6.328
90921SOL    HW174660  13.068   3.814   6.298
90921SOL    HW274661  12.956   3.713   6.284
90922SOL     OW74662   2.097   6.604   9.563
90922SOL    HW174663   2.151   6.600   9.484
90922SOL    HW274664   2.159   6.607   9.636
90923SOL     OW74665   9.100   0.180   2.518
90923SOL    HW174666   9.053   0.236   2.457
90923SOL    HW274667   9.151   0.240   2.572
90924SOL     OW74668   3.352   4.023   3.932
90924SOL    HW174669   3.307   3.992   4.011
90924SOL    HW274670   3.316   4.111   3.917
90925SOL     OW74671   2.431   1.234   0.246
90925SOL    HW174672   2.433   1.222   0.152
90925SOL    HW274673   2.500   1.178   0.280
90926SOL     OW74674  10.768  10.724   3.054
90926SOL    HW174675  10.745  10.722   2.961
90926SOL    HW274676  10.833  10.655   3.065
90927SOL     OW74677  12.539   1.249   0.461
90927SOL    HW174678  12.580   1.267   0.546
90927SOL    HW274679  12.613   1.238   0.401
90928SOL     OW74680   3.347   3.079  14.866
90928SOL    HW174681   3.408   3.063   0.057
90928SOL    HW274682   3.306   3.163   0.007
90929SOL     OW74683   2.876   1.813  14.286
90929SOL    HW174684   2.940   1.861  14.339
90929SOL    HW274685   2.930   1.756  14.231
90930SOL     OW74686   2.417  14.290   0.660
90930SOL    HW174687   2.373  14.342   0.727
90930SOL    HW274688   2.503  14.271   0.697
90931SOL     OW74689  12.031   2.757   1.327
90931SOL    HW174690  12.072   2.737   1.244
90931SOL    HW274691  11.983   2.678   1.351
90932SOL     OW74692  10.818  10.079  10.251
90932SOL    HW174693  10.861  10.106  10.332
90932SOL    HW274694  10.789  10.161  10.211
90933SOL     OW74695  10.351   5.312   0.166
90933SOL    HW174696  10.336   5.229   0.210
90933SOL    HW274697  10.312   5.301   0.079
90934SOL     OW74698   8.383   4.945   6.610
90934SOL    HW174699   8.300   4.934   6.563
90934SOL    HW274700   8.431   5.009   6.558
90935SOL     OW74701  13.722  11.880   8.063
90935SOL    HW174702  13.638  11.885   8.107
90935SOL    HW274703  13.758  11.794   8.087
90936SOL     OW74704  12.246   8.368   1.647
90936SOL    HW174705  12.263   8.323   1.564
90936SOL    HW274706  12.215   8.455   1.621
90937SOL     OW74707  13.595   9.808   1.180
90937SOL    HW174708  13.540   9.757   1.121
90937SOL    HW274709  13.564   9.785   1.268
90938SOL     OW74710   2.336   0.086   5.129
90938SOL    HW174711   2.242   0.079   5.116
90938SOL    HW274712   2.354   0.181   5.127
90939SOL     OW74713   8.612   6.226  10.233
90939SOL    HW174714   8.651   6.191  10.314
90939SOL    HW274715   8.631   6.159  10.168
90940SOL     OW74716   0.037  10.851  13.393
90940SOL    HW174717   0.091  10.919  13.432
90940SOL    HW274718   0.064  10.848  13.302
90941SOL     OW74719  11.181   2.459  11.903
90941SOL    HW174720  11.248   2.405  11.944
90941SOL    HW274721  11.219   2.486  11.820
90942SOL     OW74722   5.567   4.127  12.568
90942SOL    HW174723   5.519   4.045  12.562
90942SOL    HW274724   5.617   4.132  12.486
90943SOL     OW74725   0.870   4.378   2.043
90943SOL    HW174726   0.939   4.351   2.103
90943SOL    HW274727   0.867   4.473   2.050
90944SOL     OW74728   6.391   8.709   5.444
90944SOL    HW174729   6.428   8.669   5.523
90944SOL    HW274730   6.348   8.637   5.399
90945SOL     OW74731   0.072  12.947  12.501
90945SOL    HW174732   0.038  12.894  12.428
90945SOL    HW274733  14.874  12.972  12.550
90946SOL     OW74734   8.016   9.520   7.090
90946SOL    HW174735   7.993   9.590   7.029
90946SOL    HW274736   7.996   9.439   7.043
90947SOL     OW74737  11.635  14.410   9.701
90947SOL    HW174738  11.649  14.358   9.622
90947SOL    HW274739  11.581  14.355   9.757
90948SOL     OW74740  12.320   1.855   7.416
90948SOL    HW174741  12.382   1.890   7.352
90948SOL    HW274742  12.270   1.931   7.444
90949SOL     OW74743   9.913   7.178   7.738
90949SOL    HW174744   9.989   7.194   7.681
90949SOL    HW274745   9.951   7.159   7.823
90950SOL     OW74746   3.779   9.664  14.724
90950SOL    HW174747   3.711   9.617  14.677
90950SOL    HW274748   3.753   9.659  14.816
90951SOL     OW74749   5.965   6.849   2.147
90951SOL    HW174750   5.974   6.841   2.242
90951SOL    HW274751   6.055   6.847   2.114
90952SOL     OW74752  12.512   0.113   6.134
90952SOL    HW174753  12.539   0.163   6.057
90952SOL    HW274754  12.456   0.044   6.099
90953SOL     OW74755   6.842   4.082   6.584
90953SOL    HW174756   6.922   4.035   6.559
90953SOL    HW274757   6.866   4.130   6.664
90954SOL     OW74758  12.320  11.704   2.979
90954SOL    HW174759  12.366  11.747   2.907
90954SOL    HW274760  12.265  11.773   3.017
90955SOL     OW74761   5.753   7.706   8.839
90955SOL    HW174762   5.806   7.692   8.918
90955SOL    HW274763   5.716   7.620   8.819
90956SOL     OW74764  11.942   9.344   1.321
90956SOL    HW174765  11.914   9.254   1.335
90956SOL    HW274766  12.024   9.352   1.370
90957SOL     OW74767   8.082  11.512   1.366
90957SOL    HW174768   8.040  11.437   1.407
90957SOL    HW274769   8.119  11.478   1.284
90958SOL     OW74770  14.019   4.568   1.607
90958SOL    HW174771  13.930   4.597   1.589
90958SOL    HW274772  14.063   4.570   1.522
90959SOL     OW74773   7.590  14.712  10.662
90959SOL    HW174774   7.646  14.785  10.637
90959SOL    HW274775   7.513  14.752  10.701
90960SOL     OW74776   7.547  11.926   3.103
90960SOL    HW174777   7.572  12.006   3.148
90960SOL    HW274778   7.561  11.857   3.168
90961SOL     OW74779  12.816   2.334  10.478
90961SOL    HW174780  12.817   2.331  10.383
90961SOL    HW274781  12.725   2.317  10.502
90962SOL     OW74782  12.085   7.112   5.109
90962SOL    HW174783  12.055   7.203   5.112
90962SOL    HW274784  12.091   7.086   5.200
90963SOL     OW74785  14.331  11.371   3.086
90963SOL    HW174786  14.418  11.394   3.118
90963SOL    HW274787  14.294  11.315   3.155
90964SOL     OW74788  12.505   6.569   8.231
90964SOL    HW174789  12.454   6.622   8.292
90964SOL    HW274790  12.472   6.591   8.144
90965SOL     OW74791  13.910   0.480   1.320
90965SOL    HW174792  13.956   0.548   1.368
90965SOL    HW274793  13.843   0.527   1.270
90966SOL     OW74794  12.368   1.622   5.453
90966SOL    HW174795  12.346   1.632   5.360
90966SOL    HW274796  12.298   1.668   5.500
90967SOL     OW74797  11.122  10.966   6.201
90967SOL    HW174798  11.188  10.993   6.265
90967SOL    HW274799  11.166  10.975   6.116
90968SOL     OW74800   3.398   1.326   6.538
90968SOL    HW174801   3.491   1.343   6.555
90968SOL    HW274802   3.393   1.230   6.530
90969SOL     OW74803  11.034   0.955  10.477
90969SOL    HW174804  10.964   1.021  10.468
90969SOL    HW274805  11.080   0.981  10.558
90970SOL     OW74806  13.819  12.782  12.667
90970SOL    HW174807  13.801  12.705  12.721
90970SOL    HW274808  13.914  12.780  12.654
90971SOL     OW74809   5.100   3.991  13.440
90971SOL    HW174810   5.191   3.971  13.418
90971SOL    HW274811   5.066   4.037  13.362
90972SOL     OW74812   4.599   8.069   9.014
90972SOL    HW174813   4.583   7.975   9.007
90972SOL    HW274814   4.582   8.090   9.105
90973SOL     OW74815  13.172   2.609   4.199
90973SOL    HW174816  13.181   2.685   4.142
90973SOL    HW274817  13.088   2.571   4.176
90974SOL     OW74818  14.276   8.146  13.024
90974SOL    HW174819  14.321   8.066  13.052
90974SOL    HW274820  14.348   8.206  13.003
90975SOL     OW74821   1.822  13.038   3.356
90975SOL    HW174822   1.888  13.076   3.414
90975SOL    HW274823   1.867  13.029   3.272
90976SOL     OW74824   8.274  10.737   0.064
90976SOL    HW174825   8.251  10.820   0.105
90976SOL    HW274826   8.197  10.682   0.077
90977SOL     OW74827   3.913  14.842  11.180
90977SOL    HW174828   3.961  14.773  11.226
90977SOL    HW274829   3.926   0.040  11.234
90978SOL     OW74830   0.627   9.782   5.838
90978SOL    HW174831   0.603   9.875   5.838
90978SOL    HW274832   0.554   9.738   5.881
90979SOL     OW74833  10.587   9.596   8.128
90979SOL    HW174834  10.519   9.592   8.061
90979SOL    HW274835  10.589   9.688   8.154
90980SOL     OW74836   5.591  11.770  11.144
90980SOL    HW174837   5.564  11.838  11.206
90980SOL    HW274838   5.629  11.818  11.070
90981SOL     OW74839  10.123   3.418   0.189
90981SOL    HW174840  10.048   3.364   0.165
90981SOL    HW274841  10.091   3.508   0.183
90982SOL     OW74842   5.778   1.363   9.491
90982SOL    HW174843   5.808   1.320   9.572
90982SOL    HW274844   5.822   1.315   9.421
90983SOL     OW74845  14.351   6.727   5.133
90983SOL    HW174846  14.294   6.756   5.205
90983SOL    HW274847  14.301   6.748   5.054
90984SOL     OW74848   3.572  13.541  14.335
90984SOL    HW174849   3.593  13.582  14.419
90984SOL    HW274850   3.480  13.515  14.342
90985SOL     OW74851   5.903   5.301   6.602
90985SOL    HW174852   5.995   5.327   6.615
90985SOL    HW274853   5.861   5.319   6.687
90986SOL     OW74854   5.928   7.793  13.233
90986SOL    HW174855   5.934   7.889  13.242
90986SOL    HW274856   6.010   7.768  13.189
90987SOL     OW74857  14.831   5.351  10.798
90987SOL    HW174858  14.865   5.263  10.812
90987SOL    HW274859  14.830   5.391  10.885
90988SOL     OW74860   3.699   5.747   7.758
90988SOL    HW174861   3.646   5.753   7.837
90988SOL    HW274862   3.761   5.676   7.776
90989SOL     OW74863   4.145   2.508   9.059
90989SOL    HW174864   4.085   2.435   9.073
90989SOL    HW274865   4.225   2.482   9.104
90990SOL     OW74866   1.749   3.233   1.618
90990SOL    HW174867   1.659   3.247   1.648
90990SOL    HW274868   1.788   3.320   1.618
90991SOL     OW74869  12.068   4.253   5.179
90991SOL    HW174870  12.083   4.181   5.118
90991SOL    HW274871  12.091   4.331   5.128
90992SOL     OW74872   9.401   5.640   6.273
90992SOL    HW174873   9.380   5.690   6.194
90992SOL    HW274874   9.491   5.664   6.294
90993SOL     OW74875  10.054   3.984   2.211
90993SOL    HW174876  10.096   3.902   2.237
90993SOL    HW274877   9.978   3.992   2.268
90994SOL     OW74878  13.206   1.913  13.931
90994SOL    HW174879  13.192   1.820  13.949
90994SOL    HW274880  13.158   1.958  13.999
90995SOL     OW74881   2.739   4.707  10.493
90995SOL    HW174882   2.653   4.689  10.531
90995SOL    HW274883   2.800   4.656  10.546
90996SOL     OW74884   4.327   6.840   0.511
90996SOL    HW174885   4.394   6.906   0.530
90996SOL    HW274886   4.376   6.765   0.478
90997SOL     OW74887   7.819  11.026   3.343
90997SOL    HW174888   7.822  10.939   3.383
90997SOL    HW274889   7.896  11.071   3.379
90998SOL     OW74890   0.547  14.302   4.564
90998SOL    HW174891   0.593  14.243   4.623
90998SOL    HW274892   0.590  14.387   4.578
90999SOL     OW74893   0.354  11.867   2.648
90999SOL    HW174894   0.389  11.825   2.727
90999SOL    HW274895   0.273  11.818   2.629
91000SOL     OW74896   4.615   2.886   8.742
91000SOL    HW174897   4.607   2.810   8.684
91000SOL    HW274898   4.701   2.876   8.782
91001SOL     OW74899   2.063  14.617  13.576
91001SOL    HW174900   2.081  14.523  13.578
91001SOL    HW274901   1.984  14.625  13.522
91002SOL     OW74902   8.564   3.172  12.292
91002SOL    HW174903   8.585   3.218  12.211
91002SOL    HW274904   8.648   3.135  12.322
91003SOL     OW74905   4.954   3.355   2.278
91003SOL    HW174906   4.885   3.381   2.217
91003SOL    HW274907   4.959   3.260   2.269
91004SOL     OW74908   8.013  12.705  12.758
91004SOL    HW174909   8.011  12.790  12.802
91004SOL    HW274910   8.100  12.671  12.776
91005SOL     OW74911   7.752   6.051   0.084
91005SOL    HW174912   7.733   5.961   0.057
91005SOL    HW274913   7.778   6.043   0.176
91006SOL     OW74914   1.586   4.727  13.977
91006SOL    HW174915   1.635   4.700  13.899
91006SOL    HW274916   1.550   4.645  14.011
91007SOL     OW74917   0.922  14.449   2.538
91007SOL    HW174918   1.015  14.465   2.521
91007SOL    HW274919   0.877  14.525   2.500
91008SOL     OW74920   7.435   7.793   2.999
91008SOL    HW174921   7.507   7.730   3.002
91008SOL    HW274922   7.384   7.775   3.077
91009SOL     OW74923  11.570   9.083   8.022
91009SOL    HW174924  11.503   9.110   7.960
91009SOL    HW274925  11.553   9.134   8.101
91010SOL     OW74926  12.169   1.683  12.031
91010SOL    HW174927  12.127   1.667  12.116
91010SOL    HW274928  12.238   1.618  12.026
91011SOL     OW74929  11.192  10.713   0.395
91011SOL    HW174930  11.160  10.797   0.428
91011SOL    HW274931  11.245  10.677   0.466
91012SOL     OW74932  14.074   6.451  11.070
91012SOL    HW174933  14.095   6.425  11.159
91012SOL    HW274934  14.141   6.408  11.016
91013SOL     OW74935   0.761   2.642   3.552
91013SOL    HW174936   0.771   2.696   3.631
91013SOL    HW274937   0.821   2.569   3.566
91014SOL     OW74938  11.095   5.817  10.004
91014SOL    HW174939  11.074   5.735   9.959
91014SOL    HW274940  11.065   5.803  10.094
91015SOL     OW74941   6.336   2.714   7.157
91015SOL    HW174942   6.264   2.653   7.141
91015SOL    HW274943   6.295   2.800   7.156
91016SOL     OW74944   4.863   8.764   4.898
91016SOL    HW174945   4.785   8.757   4.953
91016SOL    HW274946   4.853   8.848   4.852
91017SOL     OW74947  13.324   3.185   9.175
91017SOL    HW174948  13.359   3.176   9.264
91017SOL    HW274949  13.376   3.254   9.135
91018SOL     OW74950   5.381   0.841  14.692
91018SOL    HW174951   5.415   0.930  14.696
91018SOL    HW274952   5.453   0.786  14.725
91019SOL     OW74953  11.158  11.190  10.033
91019SOL    HW174954  11.168  11.179   9.939
91019SOL    HW274955  11.166  11.102  10.070
91020SOL     OW74956  11.183   5.465   8.199
91020SOL    HW174957  11.174   5.450   8.293
91020SOL    HW274958  11.237   5.393   8.167
91021SOL     OW74959  10.812  11.236  13.342
91021SOL    HW174960  10.836  11.223  13.250
91021SOL    HW274961  10.868  11.308  13.372
91022SOL     OW74962   1.996   9.165  11.209
91022SOL    HW174963   1.979   9.193  11.119
91022SOL    HW274964   1.953   9.080  11.217
91023SOL     OW74965  14.207   4.568   1.409
91023SOL    HW174966  14.290   4.613   1.420
91023SOL    HW274967  14.211   4.531   1.320
91024SOL     OW74968   7.619  13.713   9.935
91024SOL    HW174969   7.566  13.778   9.980
91024SOL    HW274970   7.592  13.629   9.973
91025SOL     OW74971   8.400   6.843  12.670
91025SOL    HW174972   8.444   6.854  12.586
91025SOL    HW274973   8.472   6.838  12.734
91026SOL     OW74974   7.210   5.631   0.376
91026SOL    HW174975   7.125   5.595   0.351
91026SOL    HW274976   7.194   5.725   0.384
91027SOL     OW74977  14.135   0.607  12.417
91027SOL    HW174978  14.133   0.558  12.334
91027SOL    HW274979  14.166   0.543  12.481
91028SOL     OW74980   6.482   6.589   9.606
91028SOL    HW174981   6.417   6.519   9.595
91028SOL    HW274982   6.435   6.658   9.653
91029SOL     OW74983   8.503  12.439   8.354
91029SOL    HW174984   8.413  12.471   8.346
91029SOL    HW274985   8.530  12.421   8.264
91030SOL     OW74986   3.916   7.462   9.039
91030SOL    HW174987   3.829   7.501   9.041
91030SOL    HW274988   3.976   7.537   9.047
91031SOL     OW74989  14.630   4.158   2.092
91031SOL    HW174990  14.591   4.241   2.119
91031SOL    HW274991  14.620   4.157   1.997
91032SOL     OW74992  10.153   7.850  12.602
91032SOL    HW174993  10.149   7.877  12.694
91032SOL    HW274994  10.147   7.932  12.553
91033SOL     OW74995  11.183   4.043   4.521
91033SOL    HW174996  11.228   4.118   4.482
91033SOL    HW274997  11.232   4.025   4.601
91034SOL     OW74998  13.305   6.743  14.727
91034SOL    HW174999  13.320   6.770  14.818
91034SOL    HW275000  13.210   6.747  14.716
91035SOL     OW75001   0.359   9.396  13.863
91035SOL    HW175002   0.313   9.474  13.894
91035SOL    HW275003   0.301   9.357  13.798
91036SOL     OW75004   6.966  11.528   0.798
91036SOL    HW175005   6.881  11.572   0.810
91036SOL    HW275006   7.001  11.566   0.717
91037SOL     OW75007  11.551   7.243   5.182
91037SOL    HW175008  11.580   7.299   5.254
91037SOL    HW275009  11.573   7.154   5.209
91038SOL     OW75010  11.658  13.680  13.795
91038SOL    HW175011  11.661  13.685  13.699
91038SOL    HW275012  11.606  13.603  13.813
91039SOL     OW75013   5.341   1.812  11.641
91039SOL    HW175014   5.332   1.834  11.734
91039SOL    HW275015   5.334   1.717  11.638
91040SOL     OW75016  10.964   4.133  14.143
91040SOL    HW175017  10.980   4.162  14.054
91040SOL    HW275018  10.902   4.198  14.178
91041SOL     OW75019  10.662   3.806   2.334
91041SOL    HW175020  10.630   3.893   2.312
91041SOL    HW275021  10.587   3.763   2.376
91042SOL     OW75022   5.886  13.714   8.420
91042SOL    HW175023   5.915  13.789   8.368
91042SOL    HW275024   5.964  13.660   8.430
91043SOL     OW75025  12.761   9.038   0.799
91043SOL    HW175026  12.832   9.055   0.737
91043SOL    HW275027  12.806   9.001   0.876
91044SOL     OW75028  11.915   3.404  13.945
91044SOL    HW175029  11.876   3.378  13.862
91044SOL    HW275030  11.889   3.495  13.957
91045SOL     OW75031   8.798   6.835   5.655
91045SOL    HW175032   8.821   6.793   5.738
91045SOL    HW275033   8.703   6.827   5.650
91046SOL     OW75034   4.864   2.173  11.527
91046SOL    HW175035   4.801   2.123  11.475
91046SOL    HW275036   4.888   2.115  11.599
91047SOL     OW75037   1.264   7.125   2.105
91047SOL    HW175038   1.223   7.140   2.020
91047SOL    HW275039   1.271   7.029   2.111
91048SOL     OW75040   4.016   9.128  12.960
91048SOL    HW175041   4.085   9.195  12.952
91048SOL    HW275042   4.058   9.047  12.931
91049SOL     OW75043   5.330   5.296   8.671
91049SOL    HW175044   5.324   5.377   8.620
91049SOL    HW275045   5.348   5.326   8.761
91050SOL     OW75046   9.377   8.886  11.761
91050SOL    HW175047   9.434   8.899  11.837
91050SOL    HW275048   9.312   8.956  11.768
91051SOL     OW75049   5.817   6.053   7.273
91051SOL    HW175050   5.854   5.969   7.300
91051SOL    HW275051   5.886   6.095   7.221
91052SOL     OW75052   0.633   0.525  14.270
91052SOL    HW175053   0.597   0.609  14.241
91052SOL    HW275054   0.604   0.517  14.361
91053SOL     OW75055   6.254  12.591   5.015
91053SOL    HW175056   6.337  12.566   5.057
91053SOL    HW275057   6.205  12.510   5.009
91054SOL     OW75058  10.410   5.365   4.236
91054SOL    HW175059  10.381   5.278   4.210
91054SOL    HW275060  10.330   5.418   4.240
91055SOL     OW75061   0.864   4.503  12.252
91055SOL    HW175062   0.918   4.424  12.242
91055SOL    HW275063   0.778   4.477  12.220
91056SOL     OW75064   6.460   7.376   8.207
91056SOL    HW175065   6.534   7.370   8.146
91056SOL    HW275066   6.465   7.465   8.241
91057SOL     OW75067   9.250  11.331   7.916
91057SOL    HW175068   9.171  11.304   7.963
91057SOL    HW275069   9.270  11.418   7.952
91058SOL     OW75070   7.351   3.336  13.262
91058SOL    HW175071   7.438   3.316  13.298
91058SOL    HW275072   7.347   3.287  13.180
91059SOL     OW75073   8.586   9.361   9.932
91059SOL    HW175074   8.515   9.384   9.991
91059SOL    HW275075   8.567   9.407   9.851
91060SOL     OW75076  10.478   3.777   6.024
91060SOL    HW175077  10.434   3.761   5.940
91060SOL    HW275078  10.441   3.711   6.083
91061SOL     OW75079   7.146  11.500  13.381
91061SOL    HW175080   7.154  11.465  13.469
91061SOL    HW275081   7.198  11.580  13.382
91062SOL     OW75082   9.379  13.166  11.023
91062SOL    HW175083   9.342  13.116  10.950
91062SOL    HW275084   9.327  13.139  11.099
91063SOL     OW75085   8.654  12.693   1.933
91063SOL    HW175086   8.679  12.735   2.015
91063SOL    HW275087   8.633  12.603   1.959
91064SOL     OW75088   7.048   4.799   2.057
91064SOL    HW175089   7.003   4.715   2.070
91064SOL    HW275090   7.067   4.802   1.964
91065SOL     OW75091  13.112   0.019  13.137
91065SOL    HW175092  13.058   0.092  13.107
91065SOL    HW275093  13.053  14.844  13.188
91066SOL     OW75094  12.299  14.616   2.923
91066SOL    HW175095  12.208  14.636   2.901
91066SOL    HW275096  12.297  14.592   3.015
91067SOL     OW75097   5.503   0.041  13.575
91067SOL    HW175098   5.475   0.021  13.664
91067SOL    HW275099   5.511   0.136  13.572
91068SOL     OW75100   6.353   5.723   8.615
91068SOL    HW175101   6.382   5.788   8.679
91068SOL    HW275102   6.304   5.773   8.550
91069SOL     OW75103   1.987   3.280   7.162
91069SOL    HW175104   2.014   3.217   7.228
91069SOL    HW275105   1.897   3.256   7.140
91070SOL     OW75106  14.733   9.052  13.559
91070SOL    HW175107  14.703   9.007  13.480
91070SOL    HW275108  14.653   9.078  13.604
91071SOL     OW75109   9.524  10.134  14.066
91071SOL    HW175110   9.609  10.090  14.070
91071SOL    HW275111   9.544  10.224  14.042
91072SOL     OW75112  11.704  12.804   7.121
91072SOL    HW175113  11.650  12.742   7.171
91072SOL    HW275114  11.747  12.750   7.055
91073SOL     OW75115   1.528   1.663   7.415
91073SOL    HW175116   1.598   1.672   7.479
91073SOL    HW275117   1.456   1.623   7.464
91074SOL     OW75118   2.476   9.523   5.309
91074SOL    HW175119   2.417   9.452   5.282
91074SOL    HW275120   2.563   9.490   5.288
91075SOL     OW75121  11.782   6.207  13.295
91075SOL    HW175122  11.746   6.162  13.372
91075SOL    HW275123  11.735   6.290  13.292
91076SOL     OW75124  11.921   0.743  11.287
91076SOL    HW175125  11.973   0.823  11.283
91076SOL    HW275126  11.898   0.734  11.379
91077SOL     OW75127   0.068   9.667   3.423
91077SOL    HW175128   0.040   9.751   3.387
91077SOL    HW275129   0.161   9.661   3.404
91078SOL     OW75130  10.358   0.340   9.085
91078SOL    HW175131  10.289   0.348   9.019
91078SOL    HW275132  10.347   0.252   9.121
91079SOL     OW75133  13.727  10.735   7.428
91079SOL    HW175134  13.813  10.762   7.459
91079SOL    HW275135  13.741  10.646   7.396
91080SOL     OW75136  12.320   4.746   2.771
91080SOL    HW175137  12.364   4.805   2.832
91080SOL    HW275138  12.248   4.708   2.822
91081SOL     OW75139   9.909   9.186   0.274
91081SOL    HW175140   9.922   9.109   0.218
91081SOL    HW275141   9.827   9.169   0.320
91082SOL     OW75142   5.052  11.673   0.041
91082SOL    HW175143   4.967  11.634   0.064
91082SOL    HW275144   5.113  11.635   0.104
91083SOL     OW75145  10.112   9.980   2.296
91083SOL    HW175146  10.079   9.996   2.208
91083SOL    HW275147  10.088  10.058   2.345
91084SOL     OW75148   5.936   5.242  10.625
91084SOL    HW175149   5.976   5.298  10.559
91084SOL    HW275150   5.961   5.153  10.600
91085SOL     OW75151  10.073   7.711   2.436
91085SOL    HW175152  10.151   7.746   2.392
91085SOL    HW275153  10.086   7.731   2.529
91086SOL     OW75154  11.388   3.610   4.448
91086SOL    HW175155  11.325   3.673   4.414
91086SOL    HW275156  11.347   3.525   4.436
91087SOL     OW75157   1.067  12.440  12.274
91087SOL    HW175158   1.134  12.408  12.214
91087SOL    HW275159   1.106  12.433  12.361
91088SOL     OW75160   8.013  11.003   2.088
91088SOL    HW175161   7.967  10.993   2.004
91088SOL    HW275162   7.961  10.952   2.150
91089SOL     OW75163   7.583   2.889   9.063
91089SOL    HW175164   7.579   2.943   9.142
91089SOL    HW275165   7.626   2.946   8.998
91090SOL     OW75166  12.506  10.042   0.474
91090SOL    HW175167  12.470  10.074   0.557
91090SOL    HW275168  12.600  10.037   0.489
91091SOL     OW75169  14.056   6.102  10.534
91091SOL    HW175170  14.048   6.106  10.439
91091SOL    HW275171  14.027   6.188  10.564
91092SOL     OW75172  14.871  13.414   4.767
91092SOL    HW175173   0.052  13.346   4.798
91092SOL    HW275174   0.044  13.493   4.763
91093SOL     OW75175  10.799  12.408  13.632
91093SOL    HW175176  10.720  12.363  13.603
91093SOL    HW275177  10.775  12.501  13.631
91094SOL     OW75178   0.208  13.849   7.804
91094SOL    HW175179   0.261  13.900   7.742
91094SOL    HW275180   0.197  13.764   7.762
91095SOL     OW75181   5.686   7.859  12.575
91095SOL    HW175182   5.742   7.810  12.635
91095SOL    HW275183   5.741   7.931  12.545
91096SOL     OW75184   1.465   1.689  12.833
91096SOL    HW175185   1.397   1.623  12.850
91096SOL    HW275186   1.423   1.772  12.857
91097SOL     OW75187   4.667  13.171   2.980
91097SOL    HW175188   4.694  13.118   2.905
91097SOL    HW275189   4.573  13.184   2.968
91098SOL     OW75190   3.110   3.269   1.156
91098SOL    HW175191   3.170   3.215   1.207
91098SOL    HW275192   3.124   3.240   1.065
91099SOL     OW75193   8.033   9.822  11.286
91099SOL    HW175194   7.994   9.740  11.316
91099SOL    HW275195   7.998   9.835  11.198
91100SOL     OW75196   2.495   5.828   4.704
91100SOL    HW175197   2.505   5.764   4.633
91100SOL    HW275198   2.539   5.907   4.671
91101SOL     OW75199   4.877  14.273  10.162
91101SOL    HW175200   4.839  14.282  10.075
91101SOL    HW275201   4.971  14.289  10.149
91102SOL     OW75202   2.859   9.783   5.820
91102SOL    HW175203   2.903   9.789   5.736
91102SOL    HW275204   2.893   9.704   5.861
91103SOL     OW75205   2.189   4.625   9.212
91103SOL    HW175206   2.260   4.679   9.249
91103SOL    HW275207   2.210   4.620   9.118
91104SOL     OW75208   9.730   8.110   4.298
91104SOL    HW175209   9.705   8.193   4.338
91104SOL    HW275210   9.675   8.103   4.220
91105SOL     OW75211  12.923   5.255   6.447
91105SOL    HW175212  12.955   5.330   6.397
91105SOL    HW275213  12.977   5.254   6.527
91106SOL     OW75214  14.268   5.870  11.124
91106SOL    HW175215  14.340   5.847  11.064
91106SOL    HW275216  14.252   5.963  11.107
91107SOL     OW75217  13.023   7.697   2.410
91107SOL    HW175218  13.081   7.632   2.370
91107SOL    HW275219  12.937   7.681   2.370
91108SOL     OW75220   5.597  12.197   6.772
91108SOL    HW175221   5.611  12.280   6.818
91108SOL    HW275222   5.684  12.170   6.745
91109SOL     OW75223   6.240   6.305  13.234
91109SOL    HW175224   6.254   6.268  13.321
91109SOL    HW275225   6.148   6.331  13.233
91110SOL     OW75226   5.446  11.034  10.728
91110SOL    HW175227   5.495  11.090  10.788
91110SOL    HW275228   5.514  10.988  10.678
91111SOL     OW75229   8.316  13.653   1.977
91111SOL    HW175230   8.339  13.576   2.030
91111SOL    HW275231   8.345  13.728   2.029
91112SOL     OW75232   5.933   6.082  10.164
91112SOL    HW175233   5.894   6.088  10.252
91112SOL    HW275234   6.012   6.134  10.169
91113SOL     OW75235   6.059  10.473   1.554
91113SOL    HW175236   6.136  10.439   1.599
91113SOL    HW275237   6.048  10.562   1.588
91114SOL     OW75238  10.708   7.066  10.410
91114SOL    HW175239  10.632   7.008  10.416
91114SOL    HW275240  10.672   7.154  10.426
91115SOL     OW75241  14.335  10.301  14.639
91115SOL    HW175242  14.278  10.228  14.614
91115SOL    HW275243  14.357  10.284  14.730
91116SOL     OW75244  13.735   3.063   2.927
91116SOL    HW175245  13.756   3.042   3.018
91116SOL    HW275246  13.674   2.995   2.900
91117SOL     OW75247   2.247   9.133  14.174
91117SOL    HW175248   2.202   9.198  14.228
91117SOL    HW275249   2.277   9.183  14.098
91118SOL     OW75250   2.618  10.611   2.941
91118SOL    HW175251   2.619  10.561   2.859
91118SOL    HW275252   2.598  10.700   2.914
91119SOL     OW75253   5.621  13.190   5.314
91119SOL    HW175254   5.544  13.170   5.260
91119SOL    HW275255   5.650  13.276   5.282
91120SOL     OW75256   6.393   3.826  13.933
91120SOL    HW175257   6.323   3.786  13.985
91120SOL    HW275258   6.358   3.832  13.845
91121SOL     OW75259  13.777   8.488  11.544
91121SOL    HW175260  13.694   8.528  11.570
91121SOL    HW275261  13.771   8.398  11.577
91122SOL     OW75262   0.741  14.679   0.963
91122SOL    HW175263   0.729  14.660   0.870
91122SOL    HW275264   0.676  14.747   0.982
91123SOL     OW75265   5.077   2.071   7.301
91123SOL    HW175266   5.139   2.114   7.242
91123SOL    HW275267   5.014   2.139   7.323
91124SOL     OW75268  10.118  11.028   3.980
91124SOL    HW175269  10.028  11.060   3.981
91124SOL    HW275270  10.110  10.934   3.997
91125SOL     OW75271   9.043   7.868   2.294
91125SOL    HW175272   8.978   7.879   2.224
91125SOL    HW275273   9.114   7.819   2.253
91126SOL     OW75274   1.133   8.692   5.315
91126SOL    HW175275   1.105   8.775   5.352
91126SOL    HW275276   1.145   8.709   5.221
91127SOL     OW75277   4.866   9.554   2.892
91127SOL    HW175278   4.910   9.514   2.817
91127SOL    HW275279   4.848   9.644   2.864
91128SOL     OW75280  11.344  12.168   7.006
91128SOL    HW175281  11.410  12.223   6.964
91128SOL    HW275282  11.264  12.184   6.955
91129SOL     OW75283   5.972   5.746  13.329
91129SOL    HW175284   6.064   5.747  13.304
91129SOL    HW275285   5.973   5.725  13.422
91130SOL     OW75286   0.477   2.987   8.795
91130SOL    HW175287   0.418   2.987   8.870
91130SOL    HW275288   0.468   2.899   8.758
91131SOL     OW75289  10.272  11.124  12.509
91131SOL    HW175290  10.227  11.175  12.576
91131SOL    HW275291  10.244  11.162  12.426
91132SOL     OW75292   6.633   0.295   6.581
91132SOL    HW175293   6.597   0.383   6.587
91132SOL    HW275294   6.689   0.286   6.658
91133SOL     OW75295   5.799  11.864   6.523
91133SOL    HW175296   5.799  11.820   6.438
91133SOL    HW275297   5.883  11.842   6.562
91134SOL     OW75298   9.901   0.664   1.440
91134SOL    HW175299   9.895   0.710   1.523
91134SOL    HW275300   9.955   0.721   1.385
91135SOL     OW75301  12.720   8.175   1.288
91135SOL    HW175302  12.650   8.162   1.224
91135SOL    HW275303  12.746   8.267   1.277
91136SOL     OW75304   8.649  14.510   5.790
91136SOL    HW175305   8.645  14.441   5.856
91136SOL    HW275306   8.601  14.475   5.715
91137SOL     OW75307   3.624   8.532   1.176
91137SOL    HW175308   3.656   8.619   1.152
91137SOL    HW275309   3.702   8.483   1.201
91138SOL     OW75310   9.985   4.004  10.011
91138SOL    HW175311   9.937   3.922  10.029
91138SOL    HW275312   9.919   4.062   9.973
91139SOL     OW75313  12.528   3.282   6.860
91139SOL    HW175314  12.444   3.323   6.837
91139SOL    HW275315  12.556   3.238   6.780
91140SOL     OW75316   9.672  10.939   5.182
91140SOL    HW175317   9.678  11.008   5.248
91140SOL    HW275318   9.601  10.968   5.124
91141SOL     OW75319  14.489   8.104   9.286
91141SOL    HW175320  14.576   8.136   9.309
91141SOL    HW275321  14.505   8.038   9.219
91142SOL     OW75322  14.553   1.331   6.839
91142SOL    HW175323  14.624   1.395   6.843
91142SOL    HW275324  14.517   1.329   6.927
91143SOL     OW75325  12.617   9.783  10.485
91143SOL    HW175326  12.688   9.721  10.470
91143SOL    HW275327  12.621   9.841  10.409
91144SOL     OW75328  13.021   6.794   0.391
91144SOL    HW175329  12.995   6.869   0.445
91144SOL    HW275330  12.953   6.729   0.408
91145SOL     OW75331   9.514  10.777  12.547
91145SOL    HW175332   9.519  10.717  12.473
91145SOL    HW275333   9.604  10.809  12.558
91146SOL     OW75334  10.005   2.564   4.539
91146SOL    HW175335   9.950   2.637   4.509
91146SOL    HW275336   9.976   2.548   4.629
91147SOL     OW75337   9.699  11.337  12.597
91147SOL    HW175338   9.658  11.424  12.595
91147SOL    HW275339   9.729  11.323  12.507
91148SOL     OW75340   3.373   5.068   6.257
91148SOL    HW175341   3.342   5.081   6.167
91148SOL    HW275342   3.329   4.989   6.286
91149SOL     OW75343  12.015  13.447   8.367
91149SOL    HW175344  11.971  13.488   8.293
91149SOL    HW275345  12.010  13.512   8.437
91150SOL     OW75346   2.299  14.688   1.183
91150SOL    HW175347   2.374  14.686   1.243
91150SOL    HW275348   2.263  14.776   1.192
91151SOL     OW75349   0.709  12.564   2.039
91151SOL    HW175350   0.635  12.507   2.017
91151SOL    HW275351   0.673  12.653   2.034
91152SOL     OW75352   1.458  10.486   6.439
91152SOL    HW175353   1.486  10.529   6.358
91152SOL    HW275354   1.401  10.549   6.482
91153SOL     OW75355   8.508   9.403   4.648
91153SOL    HW175356   8.466   9.414   4.563
91153SOL    HW275357   8.436   9.387   4.709
91154SOL     OW75358   6.056   6.079  13.384
91154SOL    HW175359   6.135   6.032  13.412
91154SOL    HW275360   6.055   6.071  13.289
91155SOL     OW75361  14.566   6.141  11.854
91155SOL    HW175362  14.513   6.206  11.807
91155SOL    HW275363  14.511   6.063  11.854
91156SOL     OW75364  13.021   8.402   8.607
91156SOL    HW175365  13.014   8.462   8.533
91156SOL    HW275366  12.962   8.437   8.673
91157SOL     OW75367   4.024   7.085  10.116
91157SOL    HW175368   4.047   7.134  10.195
91157SOL    HW275369   3.932   7.109  10.099
91158SOL     OW75370  11.971   1.056  12.565
91158SOL    HW175371  12.036   1.061  12.635
91158SOL    HW275372  11.887   1.069  12.608
91159SOL     OW75373   7.454  13.682  13.466
91159SOL    HW175374   7.365  13.716  13.482
91159SOL    HW275375   7.510  13.738  13.520
91160SOL     OW75376   2.819  14.467  12.897
91160SOL    HW175377   2.904  14.509  12.914
91160SOL    HW275378   2.772  14.474  12.980
91161SOL     OW75379  11.055  14.386   7.358
91161SOL    HW175380  11.084  14.295   7.362
91161SOL    HW275381  10.959  14.380   7.355
91162SOL     OW75382   6.223   9.615   4.986
91162SOL    HW175383   6.287   9.575   4.927
91162SOL    HW275384   6.157   9.652   4.928
91163SOL     OW75385  10.594   2.222   5.780
91163SOL    HW175386  10.584   2.176   5.697
91163SOL    HW275387  10.529   2.292   5.776
91164SOL     OW75388   9.664   6.139   7.526
91164SOL    HW175389   9.728   6.094   7.470
91164SOL    HW275390   9.632   6.071   7.585
91165SOL     OW75391  12.103   4.637   8.553
91165SOL    HW175392  12.096   4.542   8.564
91165SOL    HW275393  12.194   4.650   8.525
91166SOL     OW75394  12.458   2.663   6.104
91166SOL    HW175395  12.536   2.663   6.159
91166SOL    HW275396  12.387   2.688   6.162
91167SOL     OW75397  11.469   0.616   1.207
91167SOL    HW175398  11.438   0.707   1.200
91167SOL    HW275399  11.473   0.586   1.116
91168SOL     OW75400   2.888  13.651   9.692
91168SOL    HW175401   2.834  13.624   9.618
91168SOL    HW275402   2.937  13.727   9.659
91169SOL     OW75403   7.668  12.348   6.027
91169SOL    HW175404   7.662  12.306   5.941
91169SOL    HW275405   7.762  12.362   6.040
91170SOL     OW75406  12.597   1.970   3.092
91170SOL    HW175407  12.547   1.946   3.014
91170SOL    HW275408  12.639   2.053   3.070
91171SOL     OW75409   0.526   0.045   8.824
91171SOL    HW175410   0.572  14.841   8.832
91171SOL    HW275411   0.506   0.069   8.914
91172SOL     OW75412   4.873   9.420  14.047
91172SOL    HW175413   4.840   9.382  13.966
91172SOL    HW275414   4.827   9.504  14.055
91173SOL     OW75415   4.506  10.306  13.530
91173SOL    HW175416   4.557  10.248  13.473
91173SOL    HW275417   4.567  10.376  13.553
91174SOL     OW75418   1.634   3.561   3.607
91174SOL    HW175419   1.618   3.541   3.699
91174SOL    HW275420   1.587   3.493   3.559
91175SOL     OW75421   4.822   1.111   5.461
91175SOL    HW175422   4.869   1.174   5.516
91175SOL    HW275423   4.889   1.073   5.405
91176SOL     OW75424   5.131   3.042   6.824
91176SOL    HW175425   5.215   3.086   6.812
91176SOL    HW275426   5.140   2.960   6.775
91177SOL     OW75427   9.799  12.639   2.915
91177SOL    HW175428   9.760  12.563   2.958
91177SOL    HW275429   9.860  12.675   2.979
91178SOL     OW75430   1.326   5.782  10.592
91178SOL    HW175431   1.403   5.754  10.641
91178SOL    HW275432   1.339   5.876  10.580
91179SOL     OW75433  11.430  11.730   5.600
91179SOL    HW175434  11.408  11.700   5.512
91179SOL    HW275435  11.514  11.774   5.591
91180SOL     OW75436   6.919   7.761  10.661
91180SOL    HW175437   6.890   7.827  10.598
91180SOL    HW275438   6.996   7.721  10.620
91181SOL     OW75439   4.965  14.551  10.319
91181SOL    HW175440   5.022  14.626  10.302
91181SOL    HW275441   4.877  14.585  10.305
91182SOL     OW75442  13.127   4.907  11.797
91182SOL    HW175443  13.157   4.983  11.848
91182SOL    HW275444  13.203   4.882  11.744
91183SOL     OW75445   4.438   8.104   6.890
91183SOL    HW175446   4.436   8.096   6.795
91183SOL    HW275447   4.395   8.187   6.909
91184SOL     OW75448   1.971   6.593   4.398
91184SOL    HW175449   2.022   6.581   4.478
91184SOL    HW275450   1.887   6.550   4.416
91185SOL     OW75451   8.049   7.586   8.143
91185SOL    HW175452   7.955   7.567   8.140
91185SOL    HW275453   8.069   7.620   8.056
91186SOL     OW75454   6.616   8.790   0.925
91186SOL    HW175455   6.689   8.793   0.987
91186SOL    HW275456   6.541   8.823   0.974
91187SOL     OW75457   6.307   0.957  13.716
91187SOL    HW175458   6.392   0.921  13.693
91187SOL    HW275459   6.248   0.881  13.714
91188SOL     OW75460   6.950   2.763   2.923
91188SOL    HW175461   6.993   2.844   2.951
91188SOL    HW275462   6.968   2.757   2.829
91189SOL     OW75463  10.951   7.819   2.062
91189SOL    HW175464  10.931   7.769   2.140
91189SOL    HW275465  11.046   7.831   2.064
91190SOL     OW75466  14.340   0.964   7.330
91190SOL    HW175467  14.357   0.877   7.367
91190SOL    HW275468  14.401   0.971   7.256
91191SOL     OW75469   2.904   4.558   7.402
91191SOL    HW175470   2.953   4.637   7.424
91191SOL    HW275471   2.904   4.506   7.482
91192SOL     OW75472   3.362   2.374   8.235
91192SOL    HW175473   3.362   2.353   8.328
91192SOL    HW275474   3.378   2.290   8.191
91193SOL     OW75475   1.529   9.279  12.869
91193SOL    HW175476   1.559   9.370  12.866
91193SOL    HW275477   1.607   9.227  12.853
91194SOL     OW75478  12.535   3.683  10.704
91194SOL    HW175479  12.548   3.763  10.756
91194SOL    HW275480  12.473   3.631  10.755
91195SOL     OW75481   8.665  10.269  10.598
91195SOL    HW175482   8.729  10.252  10.528
91195SOL    HW275483   8.598  10.202  10.585
91196SOL     OW75484   8.303   3.394   9.854
91196SOL    HW175485   8.327   3.327   9.789
91196SOL    HW275486   8.254   3.346   9.921
91197SOL     OW75487   2.274   0.050  12.530
91197SOL    HW175488   2.332   0.082  12.462
91197SOL    HW275489   2.333   0.020  12.600
91198SOL     OW75490  11.525   1.814   8.644
91198SOL    HW175491  11.558   1.725   8.658
91198SOL    HW275492  11.560   1.839   8.558
91199SOL     OW75493   3.123   6.754   4.602
91199SOL    HW175494   3.078   6.689   4.655
91199SOL    HW275495   3.214   6.723   4.596
91200SOL     OW75496   5.235  14.250  12.519
91200SOL    HW175497   5.208  14.295  12.598
91200SOL    HW275498   5.318  14.207  12.542
91201SOL     OW75499  12.933   4.342   2.718
91201SOL    HW175500  13.012   4.358   2.666
91201SOL    HW275501  12.957   4.271   2.777
91202SOL     OW75502   4.036   8.777   2.138
91202SOL    HW175503   3.963   8.840   2.135
91202SOL    HW275504   4.036   8.736   2.051
91203SOL     OW75505   9.081   1.887   1.724
91203SOL    HW175506   9.176   1.892   1.731
91203SOL    HW275507   9.063   1.889   1.630
91204SOL     OW75508   9.428  11.458  13.251
91204SOL    HW175509   9.489  11.469  13.178
91204SOL    HW275510   9.394  11.369  13.240
91205SOL     OW75511   8.963   8.508   7.957
91205SOL    HW175512   9.021   8.514   8.032
91205SOL    HW275513   8.875   8.508   7.994
91206SOL     OW75514   5.432  14.483   7.729
91206SOL    HW175515   5.524  14.507   7.728
91206SOL    HW275516   5.414  14.461   7.820
91207SOL     OW75517  11.091   2.452   2.784
91207SOL    HW175518  11.010   2.401   2.792
91207SOL    HW275519  11.123   2.458   2.874
91208SOL     OW75520   5.182   6.648  13.510
91208SOL    HW175521   5.168   6.702  13.432
91208SOL    HW275522   5.220   6.566  13.476
91209SOL     OW75523   7.679   7.359   2.683
91209SOL    HW175524   7.646   7.357   2.593
91209SOL    HW275525   7.757   7.414   2.678
91210SOL     OW75526   8.205   0.109  14.098
91210SOL    HW175527   8.186   0.199  14.070
91210SOL    HW275528   8.123   0.078  14.136
91211SOL     OW75529   6.587  14.857   5.468
91211SOL    HW175530   6.630   0.033   5.404
91211SOL    HW275531   6.505   0.022   5.488
91212SOL     OW75532  12.423   8.333   9.931
91212SOL    HW175533  12.402   8.346   9.839
91212SOL    HW275534  12.468   8.413   9.957
91213SOL     OW75535  10.319   6.615   3.717
91213SOL    HW175536  10.412   6.634   3.732
91213SOL    HW275537  10.318   6.523   3.692
91214SOL     OW75538   1.072   4.606   5.021
91214SOL    HW175539   1.019   4.685   5.031
91214SOL    HW275540   1.009   4.535   5.008
91215SOL     OW75541  11.804   7.100  12.346
91215SOL    HW175542  11.898   7.101  12.363
91215SOL    HW275543  11.794   7.150  12.265
91216SOL     OW75544  10.643   6.645  13.145
91216SOL    HW175545  10.599   6.585  13.085
91216SOL    HW275546  10.736   6.633  13.127
91217SOL     OW75547  14.159  11.735   8.580
91217SOL    HW175548  14.214  11.723   8.657
91217SOL    HW275549  14.181  11.662   8.522
91218SOL     OW75550  10.114   4.586   8.357
91218SOL    HW175551  10.121   4.499   8.395
91218SOL    HW275552  10.090   4.643   8.430
91219SOL     OW75553   7.910   6.761  14.600
91219SOL    HW175554   7.946   6.765  14.688
91219SOL    HW275555   7.892   6.668  14.586
91220SOL     OW75556   7.899   2.101   5.781
91220SOL    HW175557   7.861   2.170   5.726
91220SOL    HW275558   7.978   2.074   5.735
91221SOL     OW75559  10.807   3.344  11.630
91221SOL    HW175560  10.874   3.408  11.653
91221SOL    HW275561  10.797   3.354  11.535
91222SOL     OW75562   5.862   7.899   2.923
91222SOL    HW175563   5.947   7.857   2.940
91222SOL    HW275564   5.819   7.901   3.008
91223SOL     OW75565  13.678  14.059   3.879
91223SOL    HW175566  13.767  14.027   3.894
91223SOL    HW275567  13.662  14.045   3.786
91224SOL     OW75568  11.077   8.912   7.391
91224SOL    HW175569  11.064   8.852   7.318
91224SOL    HW275570  11.043   8.996   7.359
91225SOL     OW75571  13.266   0.789  13.173
91225SOL    HW175572  13.297   0.878  13.158
91225SOL    HW275573  13.171   0.798  13.186
91226SOL     OW75574  13.521   2.680   8.086
91226SOL    HW175575  13.531   2.776   8.090
91226SOL    HW275576  13.593   2.651   8.031
91227SOL     OW75577  13.739   3.554  12.067
91227SOL    HW175578  13.826   3.520  12.088
91227SOL    HW275579  13.707   3.496  11.998
91228SOL     OW75580   7.067  14.220  14.518
91228SOL    HW175581   7.126  14.288  14.552
91228SOL    HW275582   7.123  14.167  14.462
91229SOL     OW75583  11.686   7.994  14.017
91229SOL    HW175584  11.675   8.088  14.029
91229SOL    HW275585  11.600   7.957  14.037
91230SOL     OW75586   7.429   8.909  11.741
91230SOL    HW175587   7.437   8.818  11.767
91230SOL    HW275588   7.444   8.959  11.821
91231SOL     OW75589  10.166   1.872   9.449
91231SOL    HW175590  10.220   1.848   9.374
91231SOL    HW275591  10.096   1.926   9.412
91232SOL     OW75592  13.217   7.818   8.701
91232SOL    HW175593  13.311   7.801   8.705
91232SOL    HW275594  13.210   7.913   8.689
91233SOL     OW75595   6.162   1.207   4.045
91233SOL    HW175596   6.147   1.125   4.093
91233SOL    HW275597   6.253   1.229   4.064
91234SOL     OW75598   8.635   8.635   9.850
91234SOL    HW175599   8.565   8.675   9.902
91234SOL    HW275600   8.691   8.708   9.824
91235SOL     OW75601  12.483   1.759  13.340
91235SOL    HW175602  12.551   1.780  13.404
91235SOL    HW275603  12.514   1.799  13.259
91236SOL     OW75604   3.320   2.412   5.161
91236SOL    HW175605   3.293   2.492   5.116
91236SOL    HW275606   3.306   2.431   5.254
91237SOL     OW75607  14.014  12.525   8.385
91237SOL    HW175608  13.939  12.477   8.421
91237SOL    HW275609  14.082  12.459   8.376
91238SOL     OW75610   7.985   0.361  13.503
91238SOL    HW175611   8.042   0.290  13.473
91238SOL    HW275612   7.983   0.422  13.430
91239SOL     OW75613  10.454   5.561   8.902
91239SOL    HW175614  10.439   5.606   8.819
91239SOL    HW275615  10.488   5.629   8.960
91240SOL     OW75616   7.361   4.691  13.602
91240SOL    HW175617   7.296   4.653  13.542
91240SOL    HW275618   7.432   4.627  13.603
91241SOL     OW75619  12.588   4.399  11.893
91241SOL    HW175620  12.592   4.329  11.958
91241SOL    HW275621  12.495   4.404  11.869
91242SOL     OW75622   6.795   7.774   1.497
91242SOL    HW175623   6.824   7.857   1.535
91242SOL    HW275624   6.869   7.715   1.508
91243SOL     OW75625   3.797   4.187   0.617
91243SOL    HW175626   3.744   4.251   0.664
91243SOL    HW275627   3.882   4.188   0.661
91244SOL     OW75628   6.973  12.573  10.576
91244SOL    HW175629   7.068  12.580  10.578
91244SOL    HW275630   6.943  12.653  10.533
91245SOL     OW75631  13.124   0.182   7.409
91245SOL    HW175632  13.193   0.158   7.471
91245SOL    HW275633  13.093   0.267   7.441
91246SOL     OW75634  13.363   3.493  11.283
91246SOL    HW175635  13.421   3.540  11.343
91246SOL    HW275636  13.303   3.445  11.340
91247SOL     OW75637   8.463   8.764   1.583
91247SOL    HW175638   8.374   8.730   1.578
91247SOL    HW275639   8.463   8.821   1.660
91248SOL     OW75640   3.795  12.266  14.818
91248SOL    HW175641   3.774  12.257   0.031
91248SOL    HW275642   3.837  12.351  14.812
91249SOL     OW75643   4.909   0.219   3.978
91249SOL    HW175644   5.000   0.250   3.976
91249SOL    HW275645   4.870   0.262   4.054
91250SOL     OW75646  10.525   0.838   2.802
91250SOL    HW175647  10.478   0.840   2.719
91250SOL    HW275648  10.606   0.791   2.782
91251SOL     OW75649   0.318   8.557   6.507
91251SOL    HW175650   0.242   8.539   6.563
91251SOL    HW275651   0.297   8.515   6.424
91252SOL     OW75652   5.691   9.286  13.768
91252SOL    HW175653   5.760   9.222  13.748
91252SOL    HW275654   5.680   9.280  13.862
91253SOL     OW75655   5.117   9.473   5.684
91253SOL    HW175656   5.161   9.486   5.769
91253SOL    HW275657   5.029   9.443   5.707
91254SOL     OW75658   8.046   7.392   9.509
91254SOL    HW175659   7.991   7.348   9.445
91254SOL    HW275660   8.099   7.453   9.457
91255SOL     OW75661   0.397   5.394  14.013
91255SOL    HW175662   0.377   5.428  13.926
91255SOL    HW275663   0.487   5.361  14.006
91256SOL     OW75664  13.869   8.917   8.322
91256SOL    HW175665  13.797   8.949   8.268
91256SOL    HW275666  13.920   8.860   8.264
91257SOL     OW75667   1.586   5.075   9.592
91257SOL    HW175668   1.538   5.157   9.608
91257SOL    HW275669   1.545   5.038   9.514
91258SOL     OW75670   1.300   7.906  14.122
91258SOL    HW175671   1.375   7.961  14.147
91258SOL    HW275672   1.245   7.905  14.200
91259SOL     OW75673   4.230   3.293   3.715
91259SOL    HW175674   4.148   3.253   3.684
91259SOL    HW275675   4.287   3.292   3.638
91260SOL     OW75676   2.540   2.132   8.051
91260SOL    HW175677   2.495   2.093   7.976
91260SOL    HW275678   2.496   2.094   8.128
91261SOL     OW75679   1.131   0.136   5.722
91261SOL    HW175680   1.060   0.073   5.718
91261SOL    HW275681   1.111   0.190   5.798
91262SOL     OW75682  10.786   6.244   2.917
91262SOL    HW175683  10.709   6.214   2.869
91262SOL    HW275684  10.856   6.185   2.889
91263SOL     OW75685  13.545   6.101  14.568
91263SOL    HW175686  13.517   6.018  14.608
91263SOL    HW275687  13.630   6.082  14.530
91264SOL     OW75688   8.477   1.722   8.947
91264SOL    HW175689   8.554   1.780   8.943
91264SOL    HW275690   8.438   1.727   8.860
91265SOL     OW75691  10.217   6.897  10.513
91265SOL    HW175692  10.238   6.941  10.596
91265SOL    HW275693  10.127   6.866  10.525
91266SOL     OW75694  12.866   5.421   6.102
91266SOL    HW175695  12.887   5.333   6.072
91266SOL    HW275696  12.881   5.477   6.025
91267SOL     OW75697  13.709   8.707   1.182
91267SOL    HW175698  13.717   8.753   1.098
91267SOL    HW275699  13.748   8.768   1.245
91268SOL     OW75700  14.377  14.630   7.217
91268SOL    HW175701  14.410  14.579   7.291
91268SOL    HW275702  14.296  14.670   7.250
91269SOL     OW75703   2.352   1.748  13.036
91269SOL    HW175704   2.346   1.843  13.044
91269SOL    HW275705   2.261   1.719  13.025
91270SOL     OW75706   9.900   6.052  13.927
91270SOL    HW175707   9.954   6.127  13.952
91270SOL    HW275708   9.906   5.992  14.001
91271SOL     OW75709  11.661  10.836   5.914
91271SOL    HW175710  11.652  10.831   6.009
91271SOL    HW275711  11.641  10.928   5.893
91272SOL     OW75712   3.420   5.380   6.778
91272SOL    HW175713   3.366   5.361   6.702
91272SOL    HW275714   3.435   5.295   6.819
91273SOL     OW75715   6.524  12.237   6.622
91273SOL    HW175716   6.571  12.172   6.570
91273SOL    HW275717   6.448  12.259   6.569
91274SOL     OW75718   7.120   3.305  11.388
91274SOL    HW175719   7.080   3.330  11.305
91274SOL    HW275720   7.131   3.210  11.382
91275SOL     OW75721   6.051   6.687  14.814
91275SOL    HW175722   6.126   6.643  14.852
91275SOL    HW275723   5.975   6.638  14.846
91276SOL     OW75724  13.897   2.134  14.277
91276SOL    HW175725  13.944   2.185  14.343
91276SOL    HW275726  13.957   2.063  14.254
91277SOL     OW75727   4.624  13.500   8.968
91277SOL    HW175728   4.668  13.555   9.033
91277SOL    HW275729   4.689  13.490   8.898
91278SOL     OW75730  13.173   1.674   0.353
91278SOL    HW175731  13.214   1.760   0.347
91278SOL    HW275732  13.236   1.621   0.402
91279SOL     OW75733  12.911  14.681   9.642
91279SOL    HW175734  12.960  14.722   9.571
91279SOL    HW275735  12.825  14.722   9.639
91280SOL     OW75736  12.928   5.356   9.388
91280SOL    HW175737  13.001   5.415   9.371
91280SOL    HW275738  12.886   5.390   9.467
91281SOL     OW75739   2.275  14.153   8.508
91281SOL    HW175740   2.286  14.234   8.559
91281SOL    HW275741   2.180  14.138   8.509
91282SOL     OW75742   8.766   5.219   4.031
91282SOL    HW175743   8.769   5.280   4.105
91282SOL    HW275744   8.769   5.275   3.953
91283SOL     OW75745  14.778  11.828   3.358
91283SOL    HW175746  14.830  11.905   3.379
91283SOL    HW275747  14.762  11.835   3.264
91284SOL     OW75748  11.791   3.262   5.458
91284SOL    HW175749  11.829   3.185   5.417
91284SOL    HW275750  11.866   3.315   5.485
91285SOL     OW75751  11.502   2.364   5.431
91285SOL    HW175752  11.441   2.438   5.426
91285SOL    HW275753  11.560   2.386   5.504
91286SOL     OW75754  14.161   5.648  12.117
91286SOL    HW175755  14.126   5.736  12.106
91286SOL    HW275756  14.147   5.605  12.032
91287SOL     OW75757   9.469   0.925   2.956
91287SOL    HW175758   9.413   0.968   3.020
91287SOL    HW275759   9.460   0.977   2.876
91288SOL     OW75760   7.472  13.388   1.340
91288SOL    HW175761   7.532  13.382   1.415
91288SOL    HW275762   7.509  13.329   1.275
91289SOL     OW75763  11.637   7.337   6.739
91289SOL    HW175764  11.559   7.285   6.725
91289SOL    HW275765  11.605   7.419   6.777
91290SOL     OW75766   1.740   7.240  11.750
91290SOL    HW175767   1.822   7.224  11.797
91290SOL    HW275768   1.740   7.334  11.733
91291SOL     OW75769   5.739   8.499   9.400
91291SOL    HW175770   5.806   8.536   9.343
91291SOL    HW275771   5.702   8.427   9.350
91292SOL     OW75772   6.271  13.351  11.076
91292SOL    HW175773   6.245  13.439  11.103
91292SOL    HW275774   6.188  13.303  11.071
91293SOL     OW75775   2.278  14.175   8.195
91293SOL    HW175776   2.230  14.254   8.171
91293SOL    HW275777   2.302  14.187   8.286
91294SOL     OW75778   8.222   7.737   9.864
91294SOL    HW175779   8.215   7.793   9.942
91294SOL    HW275780   8.303   7.764   9.822
91295SOL     OW75781   9.186  14.116   6.974
91295SOL    HW175782   9.211  14.094   6.885
91295SOL    HW275783   9.095  14.146   6.967
91296SOL     OW75784  10.037   2.307   6.325
91296SOL    HW175785   9.976   2.263   6.384
91296SOL    HW275786   9.980   2.352   6.262
91297SOL     OW75787   2.754   6.723  12.205
91297SOL    HW175788   2.843   6.710  12.239
91297SOL    HW275789   2.718   6.635  12.197
91298SOL     OW75790   9.012   7.916   6.548
91298SOL    HW175791   8.934   7.943   6.500
91298SOL    HW275792   8.984   7.840   6.599
91299SOL     OW75793   4.474  13.081   7.065
91299SOL    HW175794   4.533  13.009   7.046
91299SOL    HW275795   4.409  13.079   6.995
91300SOL     OW75796  11.361  13.770  13.150
91300SOL    HW175797  11.366  13.783  13.055
91300SOL    HW275798  11.296  13.701  13.161
91301SOL     OW75799  14.676   2.986  10.691
91301SOL    HW175800  14.771   2.982  10.707
91301SOL    HW275801  14.647   3.061  10.743
91302SOL     OW75802   5.812   8.366   2.503
91302SOL    HW175803   5.817   8.402   2.415
91302SOL    HW275804   5.761   8.286   2.494
91303SOL     OW75805   1.008   1.622   7.641
91303SOL    HW175806   1.017   1.594   7.732
91303SOL    HW275807   1.088   1.671   7.623
91304SOL     OW75808   6.314  11.269  11.658
91304SOL    HW175809   6.266  11.285  11.577
91304SOL    HW275810   6.352  11.354  11.680
91305SOL     OW75811   9.184   6.372   4.212
91305SOL    HW175812   9.277   6.380   4.192
91305SOL    HW275813   9.166   6.278   4.205
91306SOL     OW75814  13.753   7.154  11.079
91306SOL    HW175815  13.831   7.193  11.038
91306SOL    HW275816  13.682   7.174  11.018
91307SOL     OW75817   0.881   5.777  14.655
91307SOL    HW175818   0.903   5.869  14.642
91307SOL    HW275819   0.850   5.772  14.746
91308SOL     OW75820  10.711   7.566   0.995
91308SOL    HW175821  10.753   7.505   1.056
91308SOL    HW275822  10.784   7.605   0.946
91309SOL     OW75823  13.782   3.183   5.388
91309SOL    HW175824  13.825   3.127   5.454
91309SOL    HW275825  13.839   3.259   5.381
91310SOL     OW75826   7.605   9.769   8.173
91310SOL    HW175827   7.595   9.722   8.256
91310SOL    HW275828   7.666   9.715   8.122
91311SOL     OW75829  10.934   3.455  11.052
91311SOL    HW175830  10.936   3.550  11.038
91311SOL    HW275831  10.990   3.419  10.984
91312SOL     OW75832   3.423   0.890  12.642
91312SOL    HW175833   3.502   0.934  12.612
91312SOL    HW275834   3.400   0.830  12.571
91313SOL     OW75835   8.725  14.415   6.513
91313SOL    HW175836   8.723  14.376   6.426
91313SOL    HW275837   8.806  14.383   6.552
91314SOL     OW75838   3.498  12.053  14.074
91314SOL    HW175839   3.452  12.026  14.153
91314SOL    HW275840   3.584  12.012  14.081
91315SOL     OW75841  12.125   1.161  14.562
91315SOL    HW175842  12.101   1.138  14.472
91315SOL    HW275843  12.042   1.182  14.604
91316SOL     OW75844   8.157   1.971   9.156
91316SOL    HW175845   8.183   2.054   9.117
91316SOL    HW275846   8.151   1.910   9.083
91317SOL     OW75847   1.105  13.693  11.054
91317SOL    HW175848   1.078  13.698  11.145
91317SOL    HW275849   1.137  13.603  11.044
91318SOL     OW75850   3.050   9.218   9.538
91318SOL    HW175851   2.980   9.216   9.603
91318SOL    HW275852   3.045   9.306   9.500
91319SOL     OW75853  10.034   9.660   2.041
91319SOL    HW175854   9.944   9.653   2.075
91319SOL    HW275855  10.028   9.727   1.973
91320SOL     OW75856   4.592   9.386   9.424
91320SOL    HW175857   4.623   9.299   9.448
91320SOL    HW275858   4.665   9.445   9.445
91321SOL     OW75859   8.175   6.614  14.459
91321SOL    HW175860   8.137   6.654  14.538
91321SOL    HW275861   8.269   6.611  14.478
91322SOL     OW75862  11.669   8.036   2.339
91322SOL    HW175863  11.716   8.060   2.420
91322SOL    HW275864  11.642   8.119   2.301
91323SOL     OW75865   5.847  12.474  10.204
91323SOL    HW175866   5.854  12.566  10.229
91323SOL    HW275867   5.879  12.472  10.114
91324SOL     OW75868  14.129  12.492   7.641
91324SOL    HW175869  14.080  12.452   7.713
91324SOL    HW275870  14.092  12.452   7.562
91325SOL     OW75871  11.897  11.097   8.472
91325SOL    HW175872  11.833  11.166   8.490
91325SOL    HW275873  11.851  11.037   8.412
91326SOL     OW75874   9.588   1.130   0.879
91326SOL    HW175875   9.513   1.086   0.839
91326SOL    HW275876   9.548   1.191   0.942
91327SOL     OW75877  11.968   0.172  14.327
91327SOL    HW175878  12.007   0.258  14.315
91327SOL    HW275879  11.903   0.164  14.257
91328SOL     OW75880   6.800   8.032   4.360
91328SOL    HW175881   6.754   7.974   4.421
91328SOL    HW275882   6.891   8.030   4.389
91329SOL     OW75883   8.085   2.835   4.527
91329SOL    HW175884   8.004   2.821   4.577
91329SOL    HW275885   8.103   2.750   4.487
91330SOL     OW75886  11.844   1.561   0.388
91330SOL    HW175887  11.920   1.617   0.401
91330SOL    HW275888  11.854   1.492   0.453
91331SOL     OW75889   7.109   9.971  11.337
91331SOL    HW175890   7.039   9.959  11.273
91331SOL    HW275891   7.190   9.966  11.286
91332SOL     OW75892   5.438  11.562   2.614
91332SOL    HW175893   5.466  11.632   2.554
91332SOL    HW275894   5.367  11.518   2.568
91333SOL     OW75895  12.513   4.910   5.982
91333SOL    HW175896  12.508   4.977   5.914
91333SOL    HW275897  12.482   4.830   5.939
91334SOL     OW75898  12.828   1.576   1.351
91334SOL    HW175899  12.821   1.486   1.318
91334SOL    HW275900  12.862   1.626   1.277
91335SOL     OW75901   0.339   0.105  13.059
91335SOL    HW175902   0.419   0.136  13.103
91335SOL    HW275903   0.365   0.025  13.015
91336SOL     OW75904   6.264   9.261  11.101
91336SOL    HW175905   6.303   9.347  11.112
91336SOL    HW275906   6.232   9.260  11.011
91337SOL     OW75907   8.175   7.275   8.603
91337SOL    HW175908   8.248   7.306   8.656
91337SOL    HW275909   8.155   7.348   8.543
91338SOL     OW75910   1.717  13.819   6.564
91338SOL    HW175911   1.660  13.745   6.583
91338SOL    HW275912   1.656  13.890   6.541
91339SOL     OW75913   1.660  10.953   1.409
91339SOL    HW175914   1.604  11.026   1.383
91339SOL    HW275915   1.622  10.877   1.365
91340SOL     OW75916  13.800  11.621   3.189
91340SOL    HW175917  13.889  11.587   3.195
91340SOL    HW275918  13.771  11.628   3.280
91341SOL     OW75919   5.517   0.545   5.843
91341SOL    HW175920   5.575   0.619   5.862
91341SOL    HW275921   5.433   0.585   5.821
91342SOL     OW75922  10.487  11.422  11.447
91342SOL    HW175923  10.397  11.446  11.426
91342SOL    HW275924  10.494  11.434  11.542
91343SOL     OW75925   9.577   9.458   6.978
91343SOL    HW175926   9.509   9.418   7.033
91343SOL    HW275927   9.657   9.453   7.031
91344SOL     OW75928  14.563   4.744   3.604
91344SOL    HW175929  14.540   4.791   3.524
91344SOL    HW275930  14.588   4.656   3.575
91345SOL     OW75931  12.776  11.509   2.089
91345SOL    HW175932  12.816  11.461   2.016
91345SOL    HW275933  12.711  11.565   2.047
91346SOL     OW75934   9.586  12.471  10.564
91346SOL    HW175935   9.636  12.545  10.599
91346SOL    HW275936   9.575  12.491  10.471
91347SOL     OW75937   2.691  10.943   7.539
91347SOL    HW175938   2.677  10.860   7.494
91347SOL    HW275939   2.638  10.936   7.619
91348SOL     OW75940  14.431   6.256   8.697
91348SOL    HW175941  14.511   6.306   8.714
91348SOL    HW275942  14.366   6.293   8.756
91349SOL     OW75943   6.376  12.740   4.451
91349SOL    HW175944   6.327  12.664   4.420
91349SOL    HW275945   6.461  12.705   4.477
91350SOL     OW75946   2.498   4.197   7.055
91350SOL    HW175947   2.563   4.236   7.114
91350SOL    HW275948   2.530   4.108   7.041
91351SOL     OW75949   0.942   6.511   9.901
91351SOL    HW175950   0.991   6.511   9.819
91351SOL    HW275951   0.853   6.486   9.876
91352SOL     OW75952   7.463   9.863   7.763
91352SOL    HW175953   7.401   9.808   7.810
91352SOL    HW275954   7.483   9.933   7.825
91353SOL     OW75955   4.771   9.008   6.909
91353SOL    HW175956   4.795   9.078   6.848
91353SOL    HW275957   4.824   8.933   6.880
91354SOL     OW75958  12.461  13.754   6.093
91354SOL    HW175959  12.467  13.674   6.041
91354SOL    HW275960  12.462  13.724   6.184
91355SOL     OW75961  12.033  14.595  14.345
91355SOL    HW175962  11.953  14.571  14.392
91355SOL    HW275963  12.038  14.534  14.272
91356SOL     OW75964   7.528   1.787   8.784
91356SOL    HW175965   7.537   1.809   8.692
91356SOL    HW275966   7.467   1.714   8.786
91357SOL     OW75967  13.144  12.989  11.096
91357SOL    HW175968  13.224  12.939  11.082
91357SOL    HW275969  13.112  13.011  11.008
91358SOL     OW75970   7.919   5.048   1.244
91358SOL    HW175971   7.857   5.046   1.171
91358SOL    HW275972   7.874   5.003   1.315
91359SOL     OW75973  12.523   8.153   4.517
91359SOL    HW175974  12.601   8.201   4.489
91359SOL    HW275975  12.518   8.170   4.612
91360SOL     OW75976   2.623  11.487   4.957
91360SOL    HW175977   2.558  11.527   5.014
91360SOL    HW275978   2.665  11.421   5.012
91361SOL     OW75979   2.514   1.448   8.942
91361SOL    HW175980   2.460   1.397   8.881
91361SOL    HW275981   2.483   1.423   9.029
91362SOL     OW75982   6.868   3.364   6.767
91362SOL    HW175983   6.947   3.396   6.722
91362SOL    HW275984   6.895   3.356   6.859
91363SOL     OW75985  12.919  10.882   4.867
91363SOL    HW175986  12.971  10.845   4.939
91363SOL    HW275987  12.975  10.950   4.830
91364SOL     OW75988  13.625   2.492   2.627
91364SOL    HW175989  13.546   2.529   2.588
91364SOL    HW275990  13.647   2.552   2.698
91365SOL     OW75991   1.610  13.044   5.461
91365SOL    HW175992   1.662  13.120   5.485
91365SOL    HW275993   1.612  13.042   5.366
91366SOL     OW75994  13.883  10.188  12.672
91366SOL    HW175995  13.961  10.133  12.672
91366SOL    HW275996  13.819  10.139  12.723
91367SOL     OW75997  11.277   8.966  11.681
91367SOL    HW175998  11.314   9.038  11.631
91367SOL    HW275999  11.187   8.991  11.698
91368SOL     OW76000   6.896  13.971  13.210
91368SOL    HW176001   6.833  13.921  13.159
91368SOL    HW276002   6.981  13.940  13.180
91369SOL     OW76003  14.192   1.527   3.823
91369SOL    HW176004  14.261   1.581   3.861
91369SOL    HW276005  14.221   1.509   3.734
91370SOL     OW76006  11.435   9.744   3.084
91370SOL    HW176007  11.513   9.778   3.039
91370SOL    HW276008  11.428   9.654   3.055
91371SOL     OW76009   4.321   8.892   7.085
91371SOL    HW176010   4.312   8.811   7.136
91371SOL    HW276011   4.414   8.913   7.089
91372SOL     OW76012  12.489   4.295   0.513
91372SOL    HW176013  12.455   4.369   0.464
91372SOL    HW276014  12.458   4.218   0.465
91373SOL     OW76015   5.834   4.318   8.921
91373SOL    HW176016   5.742   4.319   8.894
91373SOL    HW276017   5.877   4.261   8.856
91374SOL     OW76018   6.218   0.859   1.878
91374SOL    HW176019   6.294   0.846   1.933
91374SOL    HW276020   6.167   0.927   1.922
91375SOL     OW76021   7.658  12.275  10.310
91375SOL    HW176022   7.739  12.246  10.268
91375SOL    HW276023   7.594  12.276  10.240
91376SOL     OW76024   3.205   0.271   8.788
91376SOL    HW176025   3.283   0.318   8.817
91376SOL    HW276026   3.134   0.304   8.843
91377SOL     OW76027   8.520   0.421   7.655
91377SOL    HW176028   8.523   0.387   7.745
91377SOL    HW276029   8.454   0.366   7.611
91378SOL     OW76030   7.762   6.734  12.684
91378SOL    HW176031   7.853   6.714  12.706
91378SOL    HW276032   7.720   6.648  12.673
91379SOL     OW76033  12.923   5.851   3.753
91379SOL    HW176034  12.866   5.928   3.756
91379SOL    HW276035  12.988   5.867   3.822
91380SOL     OW76036  14.869   3.526  12.172
91380SOL    HW176037   0.080   3.502  12.155
91380SOL    HW276038  14.841   3.571  12.092
91381SOL     OW76039   1.877   8.297  12.424
91381SOL    HW176040   1.831   8.377  12.400
91381SOL    HW276041   1.914   8.265  12.342
91382SOL     OW76042  12.570   2.803   9.584
91382SOL    HW176043  12.496   2.810   9.645
91382SOL    HW276044  12.549   2.727   9.530
91383SOL     OW76045   9.384   4.506   6.957
91383SOL    HW176046   9.408   4.549   6.875
91383SOL    HW276047   9.462   4.515   7.012
91384SOL     OW76048  10.692  13.426  14.307
91384SOL    HW176049  10.770  13.415  14.362
91384SOL    HW276050  10.624  13.457  14.366
91385SOL     OW76051  11.889   7.854   7.373
91385SOL    HW176052  11.857   7.922   7.314
91385SOL    HW276053  11.929   7.789   7.315
91386SOL     OW76054   7.002   0.018   9.059
91386SOL    HW176055   7.035   0.020   9.149
91386SOL    HW276056   6.916  14.857   9.066
91387SOL     OW76057   4.789   2.800   0.724
91387SOL    HW176058   4.854   2.729   0.719
91387SOL    HW276059   4.818   2.862   0.657
91388SOL     OW76060  11.991   1.659  10.866
91388SOL    HW176061  12.079   1.645  10.831
91388SOL    HW276062  11.998   1.638  10.959
91389SOL     OW76063  10.462  12.139   7.800
91389SOL    HW176064  10.503  12.071   7.854
91389SOL    HW276065  10.501  12.221   7.831
91390SOL     OW76066  11.185   5.903  12.702
91390SOL    HW176067  11.108   5.848  12.686
91390SOL    HW276068  11.235   5.898  12.621
91391SOL     OW76069  14.486  10.782  11.341
91391SOL    HW176070  14.401  10.773  11.383
91391SOL    HW276071  14.531  10.850  11.391
91392SOL     OW76072   6.717  14.367   9.411
91392SOL    HW176073   6.655  14.305   9.450
91392SOL    HW276074   6.774  14.313   9.356
91393SOL     OW76075   5.942  11.360  13.873
91393SOL    HW176076   5.994  11.423  13.923
91393SOL    HW276077   5.897  11.308  13.939
91394SOL     OW76078  10.592   6.398  11.475
91394SOL    HW176079  10.497   6.392  11.459
91394SOL    HW276080  10.607   6.343  11.552
91395SOL     OW76081   6.060  14.703  10.800
91395SOL    HW176082   6.144  14.659  10.812
91395SOL    HW276083   6.083  14.790  10.766
91396SOL     OW76084   5.912   2.976   4.558
91396SOL    HW176085   5.881   3.066   4.567
91396SOL    HW276086   5.852   2.936   4.495
91397SOL     OW76087   6.510   2.415   0.581
91397SOL    HW176088   6.568   2.484   0.613
91397SOL    HW276089   6.495   2.437   0.489
91398SOL     OW76090   8.246  12.539   8.282
91398SOL    HW176091   8.239  12.450   8.248
91398SOL    HW276092   8.286  12.589   8.210
91399SOL     OW76093   1.344   5.540   3.782
91399SOL    HW176094   1.378   5.549   3.693
91399SOL    HW276095   1.299   5.455   3.782
91400SOL     OW76096   6.665   0.361  13.130
91400SOL    HW176097   6.643   0.295  13.064
91400SOL    HW276098   6.582   0.381  13.172
91401SOL     OW76099   2.291   6.021   5.366
91401SOL    HW176100   2.342   6.053   5.440
91401SOL    HW276101   2.204   6.058   5.379
91402SOL     OW76102  14.513   4.669   7.491
91402SOL    HW176103  14.497   4.700   7.580
91402SOL    HW276104  14.606   4.648   7.489
91403SOL     OW76105  12.894   0.992   3.251
91403SOL    HW176106  12.909   0.994   3.345
91403SOL    HW276107  12.826   0.925   3.239
91404SOL     OW76108  10.222  12.990  10.962
91404SOL    HW176109  10.231  12.966  10.870
91404SOL    HW276110  10.210  12.907  11.008
91405SOL     OW76111   1.416  13.166   6.030
91405SOL    HW176112   1.493  13.124   6.068
91405SOL    HW276113   1.411  13.130   5.941
91406SOL     OW76114  12.174   6.467   4.249
91406SOL    HW176115  12.263   6.500   4.262
91406SOL    HW276116  12.186   6.385   4.202
91407SOL     OW76117   2.653  13.498  11.802
91407SOL    HW176118   2.607  13.582  11.798
91407SOL    HW276119   2.645  13.463  11.714
91408SOL     OW76120  10.944   7.461  13.283
91408SOL    HW176121  10.908   7.454  13.371
91408SOL    HW276122  10.874   7.430  13.226
91409SOL     OW76123   7.791  13.739  11.568
91409SOL    HW176124   7.824  13.667  11.515
91409SOL    HW276125   7.765  13.806  11.504
91410SOL     OW76126   7.499   9.594   8.670
91410SOL    HW176127   7.491   9.645   8.750
91410SOL    HW276128   7.476   9.505   8.696
91411SOL     OW76129  12.280   6.758   9.501
91411SOL    HW176130  12.237   6.777   9.584
91411SOL    HW276131  12.352   6.820   9.496
91412SOL     OW76132   0.796   8.074   9.178
91412SOL    HW176133   0.701   8.062   9.175
91412SOL    HW276134   0.828   8.002   9.233
91413SOL     OW76135   7.584   9.743   2.682
91413SOL    HW176136   7.550   9.758   2.771
91413SOL    HW276137   7.663   9.691   2.695
91414SOL     OW76138   6.966   4.692   3.899
91414SOL    HW176139   7.052   4.706   3.940
91414SOL    HW276140   6.903   4.706   3.970
91415SOL     OW76141   4.837   3.618   9.323
91415SOL    HW176142   4.911   3.570   9.360
91415SOL    HW276143   4.764   3.598   9.382
91416SOL     OW76144   8.183   1.948  12.232
91416SOL    HW176145   8.122   1.978  12.165
91416SOL    HW276146   8.232   2.027  12.256
91417SOL     OW76147   9.104   4.118   9.876
91417SOL    HW176148   9.048   4.064   9.932
91417SOL    HW276149   9.186   4.125   9.924
91418SOL     OW76150  13.523   4.795   2.233
91418SOL    HW176151  13.584   4.799   2.159
91418SOL    HW276152  13.493   4.704   2.235
91419SOL     OW76153  11.113   9.483   8.539
91419SOL    HW176154  11.061   9.409   8.511
91419SOL    HW276155  11.188   9.484   8.480
91420SOL     OW76156   6.585  10.035   4.038
91420SOL    HW176157   6.499  10.036   4.081
91420SOL    HW276158   6.581   9.960   3.978
91421SOL     OW76159   1.930   1.899   4.548
91421SOL    HW176160   1.874   1.958   4.598
91421SOL    HW276161   1.874   1.824   4.528
91422SOL     OW76162  10.117  14.576   5.991
91422SOL    HW176163  10.161  14.604   5.911
91422SOL    HW276164  10.071  14.496   5.967
91423SOL     OW76165  12.954   4.899   8.983
91423SOL    HW176166  12.876   4.889   8.930
91423SOL    HW276167  13.021   4.846   8.939
91424SOL     OW76168   8.035   4.468   9.187
91424SOL    HW176169   8.044   4.402   9.255
91424SOL    HW276170   7.950   4.508   9.203
91425SOL     OW76171   3.374   9.779   9.324
91425SOL    HW176172   3.299   9.808   9.272
91425SOL    HW276173   3.336   9.715   9.385
91426SOL     OW76174  13.406   4.898  12.792
91426SOL    HW176175  13.398   4.926  12.701
91426SOL    HW276176  13.320   4.863  12.814
91427SOL     OW76177   4.760   4.948  12.124
91427SOL    HW176178   4.747   4.981  12.035
91427SOL    HW276179   4.686   4.982  12.173
91428SOL     OW76180  10.598  14.549   9.064
91428SOL    HW176181  10.590  14.479   9.129
91428SOL    HW276182  10.526  14.532   9.003
91429SOL     OW76183   5.831  11.983  14.510
91429SOL    HW176184   5.758  12.024  14.463
91429SOL    HW276185   5.814  12.001  14.602
91430SOL     OW76186   5.250   7.625  10.932
91430SOL    HW176187   5.331   7.575  10.918
91430SOL    HW276188   5.224   7.653  10.844
91431SOL     OW76189  14.851   3.427   7.670
91431SOL    HW176190  14.817   3.482   7.599
91431SOL    HW276191   0.007   3.351   7.626
91432SOL     OW76192   9.203   5.806  14.518
91432SOL    HW176193   9.115   5.838  14.498
91432SOL    HW276194   9.204   5.798  14.613
91433SOL     OW76195   9.244  10.863   8.449
91433SOL    HW176196   9.287  10.891   8.529
91433SOL    HW276197   9.185  10.935   8.427
91434SOL     OW76198   6.051   6.809   3.602
91434SOL    HW176199   6.102   6.752   3.660
91434SOL    HW276200   6.013   6.875   3.661
91435SOL     OW76201  12.821   8.728  10.404
91435SOL    HW176202  12.776   8.761  10.326
91435SOL    HW276203  12.854   8.642  10.378
91436SOL     OW76204   6.608   8.820   2.051
91436SOL    HW176205   6.629   8.890   2.114
91436SOL    HW276206   6.681   8.758   2.059
91437SOL     OW76207  13.354  11.224   0.918
91437SOL    HW176208  13.337  11.286   0.848
91437SOL    HW276209  13.386  11.277   0.991
91438SOL     OW76210  12.718  11.450   3.036
91438SOL    HW176211  12.807  11.436   3.003
91438SOL    HW276212  12.713  11.544   3.053
91439SOL     OW76213   2.398  12.658   3.133
91439SOL    HW176214   2.411  12.634   3.041
91439SOL    HW276215   2.314  12.619   3.157
91440SOL     OW76216  10.472   6.911  12.948
91440SOL    HW176217  10.378   6.925  12.955
91440SOL    HW276218  10.481   6.816  12.938
91441SOL     OW76219   0.752  14.656   2.477
91441SOL    HW176220   0.753  14.713   2.554
91441SOL    HW276221   0.732  14.714   2.404
91442SOL     OW76222  10.355   3.635  12.713
91442SOL    HW176223  10.277   3.667  12.668
91442SOL    HW276224  10.348   3.671  12.802
91443SOL     OW76225   7.666   4.808   3.148
91443SOL    HW176226   7.584   4.762   3.131
91443SOL    HW276227   7.729   4.739   3.169
91444SOL     OW76228  13.707   7.647   2.286
91444SOL    HW176229  13.795   7.629   2.321
91444SOL    HW276230  13.715   7.629   2.192
91445SOL     OW76231   1.600   9.917   1.116
91445SOL    HW176232   1.590   9.971   1.194
91445SOL    HW276233   1.521   9.935   1.064
91446SOL     OW76234   7.213   1.647   9.806
91446SOL    HW176235   7.278   1.582   9.780
91446SOL    HW276236   7.223   1.655   9.901
91447SOL     OW76237   0.049   9.653  12.988
91447SOL    HW176238   0.026   9.611  13.071
91447SOL    HW276239   0.081   9.739  13.013
91448SOL     OW76240  14.098  11.923   0.424
91448SOL    HW176241  14.032  11.909   0.492
91448SOL    HW276242  14.147  11.841   0.421
91449SOL     OW76243   2.250  13.262   9.569
91449SOL    HW176244   2.267  13.195   9.635
91449SOL    HW276245   2.336  13.298   9.549
91450SOL     OW76246   4.431   9.384   1.603
91450SOL    HW176247   4.378   9.306   1.617
91450SOL    HW276248   4.489   9.362   1.531
91451SOL     OW76249   1.793   0.795   3.449
91451SOL    HW176250   1.767   0.842   3.529
91451SOL    HW276251   1.745   0.712   3.454
91452SOL     OW76252   8.155   5.303  10.995
91452SOL    HW176253   8.219   5.366  10.964
91452SOL    HW276254   8.126   5.257  10.916
91453SOL     OW76255   1.433   2.917   0.713
91453SOL    HW176256   1.519   2.955   0.697
91453SOL    HW276257   1.376   2.960   0.649
91454SOL     OW76258  10.434   4.952  14.133
91454SOL    HW176259  10.377   4.879  14.107
91454SOL    HW276260  10.423   5.016  14.063
91455SOL     OW76261   5.014   1.408   4.173
91455SOL    HW176262   5.062   1.372   4.099
91455SOL    HW276263   5.008   1.335   4.235
91456SOL     OW76264   8.404   8.265  12.744
91456SOL    HW176265   8.350   8.312  12.680
91456SOL    HW276266   8.352   8.188  12.767
91457SOL     OW76267  12.503   5.076   6.672
91457SOL    HW176268  12.569   5.011   6.693
91457SOL    HW276269  12.421   5.027   6.664
91458SOL     OW76270   1.765  12.797  14.228
91458SOL    HW176271   1.783  12.812  14.136
91458SOL    HW276272   1.825  12.727  14.254
91459SOL     OW76273   1.398   5.477   4.499
91459SOL    HW176274   1.458   5.416   4.542
91459SOL    HW276275   1.344   5.512   4.571
91460SOL     OW76276   1.004  11.005   5.263
91460SOL    HW176277   0.972  11.027   5.176
91460SOL    HW276278   0.934  11.031   5.322
91461SOL     OW76279   1.119   3.963  13.206
91461SOL    HW176280   1.153   3.885  13.248
91461SOL    HW276281   1.195   4.005  13.167
91462SOL     OW76282   6.468   1.437   4.388
91462SOL    HW176283   6.412   1.513   4.404
91462SOL    HW276284   6.472   1.391   4.472
91463SOL     OW76285   8.226  10.892   1.145
91463SOL    HW176286   8.264  10.859   1.226
91463SOL    HW276287   8.170  10.965   1.172
91464SOL     OW76288   8.088   2.194   2.262
91464SOL    HW176289   8.182   2.193   2.281
91464SOL    HW276290   8.053   2.118   2.307
91465SOL     OW76291  10.155   3.324   6.841
91465SOL    HW176292  10.248   3.349   6.837
91465SOL    HW276293  10.113   3.399   6.883
91466SOL     OW76294   6.279  11.952  13.803
91466SOL    HW176295   6.198  11.954  13.752
91466SOL    HW276296   6.290  11.860  13.826
91467SOL     OW76297   4.931   2.022   2.529
91467SOL    HW176298   4.950   2.060   2.615
91467SOL    HW276299   4.928   1.928   2.545
91468SOL     OW76300   5.206   9.553   5.433
91468SOL    HW176301   5.270   9.498   5.389
91468SOL    HW276302   5.194   9.514   5.519
91469SOL     OW76303  11.609   5.137   1.936
91469SOL    HW176304  11.634   5.145   2.028
91469SOL    HW276305  11.515   5.154   1.935
91470SOL     OW76306  10.548   5.266  10.592
91470SOL    HW176307  10.533   5.177  10.625
91470SOL    HW276308  10.561   5.254  10.498
91471SOL     OW76309  12.583   4.390   8.173
91471SOL    HW176310  12.578   4.324   8.103
91471SOL    HW276311  12.676   4.394   8.195
91472SOL     OW76312  14.254   3.516   8.533
91472SOL    HW176313  14.276   3.453   8.602
91472SOL    HW276314  14.310   3.591   8.551
91473SOL     OW76315  13.166   4.822  12.478
91473SOL    HW176316  13.091   4.795  12.532
91473SOL    HW276317  13.226   4.748  12.481
91474SOL     OW76318   3.787   7.244   6.430
91474SOL    HW176319   3.719   7.183   6.400
91474SOL    HW276320   3.765   7.327   6.388
91475SOL     OW76321   9.207   2.289  13.675
91475SOL    HW176322   9.196   2.278  13.769
91475SOL    HW276323   9.247   2.376  13.666
91476SOL     OW76324   6.176   9.785  14.817
91476SOL    HW176325   6.112   9.724  14.779
91476SOL    HW276326   6.190   9.851  14.749
91477SOL     OW76327   9.575   8.518   5.829
91477SOL    HW176328   9.589   8.529   5.923
91477SOL    HW276329   9.654   8.556   5.789
91478SOL     OW76330   9.120   4.743  11.672
91478SOL    HW176331   9.091   4.652  11.664
91478SOL    HW276332   9.053   4.794  11.627
91479SOL     OW76333   3.861  12.582   4.896
91479SOL    HW176334   3.825  12.514   4.839
91479SOL    HW276335   3.868  12.541   4.982
91480SOL     OW76336   3.622   6.959   9.873
91480SOL    HW176337   3.634   6.869   9.901
91480SOL    HW276338   3.694   6.976   9.813
91481SOL     OW76339  11.224   7.773   3.294
91481SOL    HW176340  11.158   7.715   3.332
91481SOL    HW276341  11.283   7.715   3.246
91482SOL     OW76342   4.786   2.250  12.787
91482SOL    HW176343   4.813   2.285  12.702
91482SOL    HW276344   4.783   2.156  12.774
91483SOL     OW76345  13.891   6.699  14.728
91483SOL    HW176346  13.887   6.620  14.674
91483SOL    HW276347  13.810   6.698  14.779
91484SOL     OW76348   0.969   2.514   4.266
91484SOL    HW176349   0.925   2.452   4.208
91484SOL    HW276350   0.967   2.472   4.352
91485SOL     OW76351  12.065   2.528  14.709
91485SOL    HW176352  12.085   2.574  14.628
91485SOL    HW276353  12.094   2.588  14.778
91486SOL     OW76354  11.621  11.120  10.144
91486SOL    HW176355  11.692  11.141  10.205
91486SOL    HW276356  11.576  11.045  10.184
91487SOL     OW76357  14.485   4.926  10.483
91487SOL    HW176358  14.552   4.917  10.414
91487SOL    HW276359  14.483   5.019  10.503
91488SOL     OW76360   3.748   2.403  11.705
91488SOL    HW176361   3.759   2.482  11.758
91488SOL    HW276362   3.662   2.369  11.730
91489SOL     OW76363  10.004  13.203   4.722
91489SOL    HW176364  10.008  13.241   4.809
91489SOL    HW276365  10.082  13.237   4.677
91490SOL     OW76366   5.108   8.576   5.440
91490SOL    HW176367   5.034   8.547   5.388
91490SOL    HW276368   5.112   8.513   5.513
91491SOL     OW76369   2.890  11.045   1.045
91491SOL    HW176370   2.940  10.967   1.069
91491SOL    HW276371   2.943  11.119   1.076
91492SOL     OW76372   4.306   7.144   2.718
91492SOL    HW176373   4.284   7.069   2.774
91492SOL    HW276374   4.222   7.178   2.689
91493SOL     OW76375  10.194   0.451   6.926
91493SOL    HW176376  10.114   0.410   6.958
91493SOL    HW276377  10.251   0.454   7.003
91494SOL     OW76378   9.159   4.000   1.505
91494SOL    HW176379   9.249   4.007   1.473
91494SOL    HW276380   9.105   4.030   1.432
91495SOL     OW76381   8.258   8.093  14.678
91495SOL    HW176382   8.328   8.064  14.620
91495SOL    HW276383   8.207   8.155  14.625
91496SOL     OW76384  11.992   8.173   9.759
91496SOL    HW176385  12.068   8.184   9.817
91496SOL    HW276386  12.025   8.194   9.672
91497SOL     OW76387  12.166  14.826  14.322
91497SOL    HW176388  12.101   0.015  14.330
91497SOL    HW276389  12.117  14.751  14.288
91498SOL     OW76390   8.522  13.178  12.629
91498SOL    HW176391   8.602  13.129  12.616
91498SOL    HW276392   8.459  13.139  12.568
91499SOL     OW76393   5.483  14.721   6.258
91499SOL    HW176394   5.570  14.725   6.218
91499SOL    HW276395   5.430  14.782   6.206
91500SOL     OW76396   7.336   9.724  14.265
91500SOL    HW176397   7.280   9.647  14.272
91500SOL    HW276398   7.424   9.691  14.284
91501SOL     OW76399   2.655   2.735   7.159
91501SOL    HW176400   2.564   2.761   7.146
91501SOL    HW276401   2.657   2.642   7.135
91502SOL     OW76402   1.066   0.999   3.374
91502SOL    HW176403   1.082   1.093   3.375
91502SOL    HW276404   1.015   0.984   3.294
91503SOL     OW76405   2.781   2.888   5.725
91503SOL    HW176406   2.702   2.943   5.729
91503SOL    HW276407   2.759   2.821   5.660
91504SOL     OW76408  14.600  10.065  13.002
91504SOL    HW176409  14.523  10.049  12.948
91504SOL    HW276410  14.674  10.046  12.944
91505SOL     OW76411   3.110   6.574  13.057
91505SOL    HW176412   3.202   6.586  13.032
91505SOL    HW276413   3.104   6.483  13.083
91506SOL     OW76414  10.022   1.333   0.052
91506SOL    HW176415   9.936   1.302   0.023
91506SOL    HW276416  10.064   1.366  14.853
91507SOL     OW76417   4.652  12.030   2.822
91507SOL    HW176418   4.683  12.065   2.738
91507SOL    HW276419   4.650  11.935   2.809
91508SOL     OW76420   1.588   5.059   5.001
91508SOL    HW176421   1.544   4.985   5.044
91508SOL    HW276422   1.526   5.090   4.936
91509SOL     OW76423  14.183   7.444  14.517
91509SOL    HW176424  14.174   7.488  14.433
91509SOL    HW276425  14.135   7.362  14.507
91510SOL     OW76426   4.166  12.879   4.629
91510SOL    HW176427   4.240  12.923   4.586
91510SOL    HW276428   4.128  12.824   4.561
91511SOL     OW76429   0.437   1.698   3.886
91511SOL    HW176430   0.385   1.655   3.818
91511SOL    HW276431   0.409   1.790   3.882
91512SOL     OW76432  13.763   4.427  10.954
91512SOL    HW176433  13.807   4.417  11.038
91512SOL    HW276434  13.681   4.378  10.964
91513SOL     OW76435  10.086  12.219   5.411
91513SOL    HW176436  10.172  12.253   5.385
91513SOL    HW276437  10.073  12.142   5.355
91514SOL     OW76438  14.631   2.552   4.031
91514SOL    HW176439  14.656   2.465   4.063
91514SOL    HW276440  14.571   2.586   4.097
91515SOL     OW76441   3.101   4.457   6.980
91515SOL    HW176442   3.040   4.445   6.907
91515SOL    HW276443   3.177   4.499   6.940
91516SOL     OW76444   2.738   5.862  13.547
91516SOL    HW176445   2.820   5.847  13.594
91516SOL    HW276446   2.704   5.944  13.584
91517SOL     OW76447   2.523   2.248  13.507
91517SOL    HW176448   2.546   2.340  13.491
91517SOL    HW276449   2.607   2.202  13.506
91518SOL     OW76450  11.972  10.306  10.060
91518SOL    HW176451  11.984  10.387  10.110
91518SOL    HW276452  11.994  10.330   9.970
91519SOL     OW76453   5.653   3.250   0.688
91519SOL    HW176454   5.629   3.342   0.684
91519SOL    HW276455   5.728   3.248   0.748
91520SOL     OW76456   2.918  14.523   7.856
91520SOL    HW176457   2.965  14.495   7.777
91520SOL    HW276458   2.880  14.442   7.891
91521SOL     OW76459   0.585   0.199  10.606
91521SOL    HW176460   0.650   0.129  10.594
91521SOL    HW276461   0.631   0.279  10.580
91522SOL     OW76462   1.986   7.175  10.209
91522SOL    HW176463   2.043   7.215  10.275
91522SOL    HW276464   1.910   7.144  10.259
91523SOL     OW76465  13.722  12.268   1.189
91523SOL    HW176466  13.745  12.273   1.281
91523SOL    HW276467  13.803  12.242   1.145
91524SOL     OW76468   4.000  11.789   0.549
91524SOL    HW176469   3.910  11.816   0.534
91524SOL    HW276470   4.047  11.871   0.563
91525SOL     OW76471   8.986   1.446   8.322
91525SOL    HW176472   9.031   1.481   8.246
91525SOL    HW276473   9.028   1.362   8.339
91526SOL     OW76474   5.048  12.110  14.289
91526SOL    HW176475   4.999  12.125  14.209
91526SOL    HW276476   5.017  12.025  14.321
91527SOL     OW76477   8.907  11.181   0.210
91527SOL    HW176478   8.965  11.242   0.255
91527SOL    HW276479   8.902  11.105   0.268
91528SOL     OW76480  14.868  14.520  11.325
91528SOL    HW176481  14.774  14.514  11.306
91528SOL    HW276482   0.019  14.591  11.269
91529SOL     OW76483   1.611   1.095   4.036
91529SOL    HW176484   1.532   1.076   3.986
91529SOL    HW276485   1.580   1.145   4.112
91530SOL     OW76486  11.514   4.869   1.292
91530SOL    HW176487  11.607   4.865   1.272
91530SOL    HW276488  11.481   4.941   1.239
91531SOL     OW76489  13.639   9.865   2.577
91531SOL    HW176490  13.693   9.929   2.530
91531SOL    HW276491  13.554   9.870   2.535
91532SOL     OW76492   2.347   6.874  11.864
91532SOL    HW176493   2.425   6.864  11.919
91532SOL    HW276494   2.345   6.794  11.811
91533SOL     OW76495   6.534   2.403  10.849
91533SOL    HW176496   6.590   2.479  10.833
91533SOL    HW276497   6.478   2.398  10.771
91534SOL     OW76498   7.324  11.169   7.660
91534SOL    HW176499   7.337  11.075   7.650
91534SOL    HW276500   7.248  11.190   7.607
91535SOL     OW76501  11.188  14.350   0.448
91535SOL    HW176502  11.279  14.379   0.433
91535SOL    HW276503  11.163  14.391   0.530
91536SOL     OW76504   5.296   5.417   1.985
91536SOL    HW176505   5.361   5.436   2.053
91536SOL    HW276506   5.289   5.499   1.936
91537SOL     OW76507   5.566   3.223   4.359
91537SOL    HW176508   5.501   3.242   4.291
91537SOL    HW276509   5.648   3.211   4.311
91538SOL     OW76510  10.259   6.930  12.286
91538SOL    HW176511  10.241   7.008  12.339
91538SOL    HW276512  10.221   6.858  12.336
91539SOL     OW76513   1.555   9.487   5.884
91539SOL    HW176514   1.474   9.445   5.911
91539SOL    HW276515   1.529   9.546   5.813
91540SOL     OW76516   4.472   8.746   4.631
91540SOL    HW176517   4.449   8.766   4.722
91540SOL    HW276518   4.509   8.658   4.635
91541SOL     OW76519   9.940  10.710   1.999
91541SOL    HW176520   9.871  10.721   1.934
91541SOL    HW276521   9.908  10.643   2.058
91542SOL     OW76522   9.814   7.850   0.266
91542SOL    HW176523   9.789   7.885   0.352
91542SOL    HW276524   9.734   7.813   0.230
91543SOL     OW76525   0.633   5.182   8.121
91543SOL    HW176526   0.542   5.210   8.128
91543SOL    HW276527   0.680   5.239   8.182
91544SOL     OW76528   8.275  12.522   5.936
91544SOL    HW176529   8.240  12.598   5.983
91544SOL    HW276530   8.367  12.520   5.960
91545SOL     OW76531  13.889  11.223   9.977
91545SOL    HW176532  13.809  11.204  10.027
91545SOL    HW276533  13.885  11.316   9.959
91546SOL     OW76534  13.968  14.853   7.668
91546SOL    HW176535  13.971   0.019   7.752
91546SOL    HW276536  13.877  14.824   7.660
91547SOL     OW76537   1.746  13.796  14.575
91547SOL    HW176538   1.670  13.796  14.633
91547SOL    HW276539   1.713  13.833  14.493
91548SOL     OW76540  12.959   2.872  10.836
91548SOL    HW176541  12.980   2.833  10.921
91548SOL    HW276542  12.965   2.800  10.775
91549SOL     OW76543  10.984   4.107   4.838
91549SOL    HW176544  10.973   4.173   4.769
91549SOL    HW276545  11.062   4.136   4.887
91550SOL     OW76546   9.007   3.100   5.241
91550SOL    HW176547   8.951   3.051   5.181
91550SOL    HW276548   9.025   3.182   5.196
91551SOL     OW76549   4.805  12.343   0.193
91551SOL    HW176550   4.728  12.319   0.246
91551SOL    HW276551   4.800  12.438   0.184
91552SOL     OW76552  12.430   0.663   4.156
91552SOL    HW176553  12.509   0.716   4.166
91552SOL    HW276554  12.373   0.691   4.227
91553SOL     OW76555  11.201   5.395   1.042
91553SOL    HW176556  11.207   5.447   0.961
91553SOL    HW276557  11.148   5.449   1.101
91554SOL     OW76558   9.367  10.824   5.185
91554SOL    HW176559   9.431  10.854   5.120
91554SOL    HW276560   9.365  10.729   5.173
91555SOL     OW76561   2.353   0.890  13.592
91555SOL    HW176562   2.411   0.953  13.549
91555SOL    HW276563   2.391   0.878  13.679
91556SOL     OW76564  13.102  11.041  10.117
91556SOL    HW176565  13.058  11.123  10.093
91556SOL    HW276566  13.143  11.060  10.201
91557SOL     OW76567   3.203  12.877  10.680
91557SOL    HW176568   3.233  12.960  10.717
91557SOL    HW276569   3.279  12.820  10.682
91558SOL     OW76570   5.864  14.140  10.820
91558SOL    HW176571   5.800  14.169  10.754
91558SOL    HW276572   5.888  14.052  10.793
91559SOL     OW76573  13.822   0.586   6.755
91559SOL    HW176574  13.875   0.515   6.719
91559SOL    HW276575  13.813   0.563   6.848
91560SOL     OW76576   7.513  12.177   4.761
91560SOL    HW176577   7.589  12.119   4.765
91560SOL    HW276578   7.540  12.248   4.703
91561SOL     OW76579   5.461   2.207  14.744
91561SOL    HW176580   5.504   2.292  14.737
91561SOL    HW276581   5.406   2.201  14.666
91562SOL     OW76582   4.712  14.126   4.818
91562SOL    HW176583   4.661  14.109   4.739
91562SOL    HW276584   4.798  14.155   4.785
91563SOL     OW76585   4.615   1.758   9.717
91563SOL    HW176586   4.524   1.736   9.695
91563SOL    HW276587   4.614   1.773   9.811
91564SOL     OW76588  14.227  10.697   2.463
91564SOL    HW176589  14.295  10.660   2.407
91564SOL    HW276590  14.235  10.792   2.450
91565SOL     OW76591   5.271  14.611   2.033
91565SOL    HW176592   5.239  14.602   1.943
91565SOL    HW276593   5.220  14.684   2.069
91566SOL     OW76594  14.596  13.154   0.922
91566SOL    HW176595  14.667  13.208   0.957
91566SOL    HW276596  14.637  13.071   0.900
91567SOL     OW76597  11.058  10.002  13.085
91567SOL    HW176598  11.016  10.088  13.083
91567SOL    HW276599  11.084   9.986  12.994
91568SOL     OW76600  10.193   0.565  12.140
91568SOL    HW176601  10.186   0.603  12.052
91568SOL    HW276602  10.108   0.583  12.180
91569SOL     OW76603  13.601  12.009   1.120
91569SOL    HW176604  13.514  12.046   1.103
91569SOL    HW276605  13.632  12.056   1.197
91570SOL     OW76606   0.986   3.910   8.810
91570SOL    HW176607   1.029   3.886   8.728
91570SOL    HW276608   1.009   3.839   8.871
91571SOL     OW76609   7.483   1.755  10.045
91571SOL    HW176610   7.401   1.724  10.083
91571SOL    HW276611   7.519   1.679  10.000
91572SOL     OW76612   6.204   7.952   7.222
91572SOL    HW176613   6.241   7.980   7.139
91572SOL    HW276614   6.140   8.019   7.244
91573SOL     OW76615   0.679  10.142   2.221
91573SOL    HW176616   0.706  10.050   2.218
91573SOL    HW276617   0.761  10.191   2.219
91574SOL     OW76618   7.762   4.482   6.502
91574SOL    HW176619   7.712   4.531   6.567
91574SOL    HW276620   7.735   4.519   6.418
91575SOL     OW76621   3.333  11.317   3.753
91575SOL    HW176622   3.296  11.294   3.838
91575SOL    HW276623   3.416  11.360   3.773
91576SOL     OW76624   5.186  10.607  11.896
91576SOL    HW176625   5.103  10.650  11.919
91576SOL    HW276626   5.185  10.603  11.800
91577SOL     OW76627   4.393  14.041   8.523
91577SOL    HW176628   4.329  13.980   8.487
91577SOL    HW276629   4.345  14.124   8.529
91578SOL     OW76630  14.199   4.506   5.834
91578SOL    HW176631  14.115   4.551   5.821
91578SOL    HW276632  14.175   4.421   5.869
91579SOL     OW76633   3.822   0.794   0.103
91579SOL    HW176634   3.901   0.760   0.061
91579SOL    HW276635   3.752   0.734   0.077
91580SOL     OW76636  11.883  10.582  10.278
91580SOL    HW176637  11.971  10.544  10.280
91580SOL    HW276638  11.896  10.669  10.239
91581SOL     OW76639   4.818   0.981   3.953
91581SOL    HW176640   4.744   0.959   4.011
91581SOL    HW276641   4.867   0.899   3.947
91582SOL     OW76642   2.360   3.576  12.508
91582SOL    HW176643   2.353   3.669  12.485
91582SOL    HW276644   2.295   3.532  12.453
91583SOL     OW76645  12.813  11.462  10.649
91583SOL    HW176646  12.778  11.424  10.569
91583SOL    HW276647  12.736  11.481  10.703
91584SOL     OW76648   8.494   5.378  13.049
91584SOL    HW176649   8.526   5.314  12.986
91584SOL    HW276650   8.536   5.354  13.131
91585SOL     OW76651  12.014   6.896   9.063
91585SOL    HW176652  11.950   6.852   9.006
91585SOL    HW276653  12.094   6.845   9.052
91586SOL     OW76654   4.982   8.391   5.248
91586SOL    HW176655   4.949   8.319   5.302
91586SOL    HW276656   5.065   8.359   5.214
91587SOL     OW76657   9.717   9.527   9.569
91587SOL    HW176658   9.767   9.609   9.569
91587SOL    HW276659   9.648   9.540   9.633
91588SOL     OW76660   3.807   0.227  11.165
91588SOL    HW176661   3.762   0.290  11.221
91588SOL    HW276662   3.740   0.199  11.102
91589SOL     OW76663   9.745   3.284   1.118
91589SOL    HW176664   9.817   3.268   1.179
91589SOL    HW276665   9.671   3.309   1.173
91590SOL     OW76666   2.818  11.501   5.514
91590SOL    HW176667   2.754  11.433   5.533
91590SOL    HW276668   2.784  11.580   5.555
91591SOL     OW76669   8.607  13.565   8.470
91591SOL    HW176670   8.565  13.512   8.537
91591SOL    HW276671   8.677  13.611   8.516
91592SOL     OW76672   9.319   1.257   0.704
91592SOL    HW176673   9.409   1.283   0.680
91592SOL    HW276674   9.319   1.254   0.799
91593SOL     OW76675   3.367   3.499  11.369
91593SOL    HW176676   3.426   3.424  11.369
91593SOL    HW276677   3.366   3.530  11.279
91594SOL     OW76678   7.593   0.042   9.021
91594SOL    HW176679   7.608  14.828   9.019
91594SOL    HW276680   7.581   0.064   9.113
91595SOL     OW76681  11.567   5.700   5.878
91595SOL    HW176682  11.525   5.660   5.954
91595SOL    HW276683  11.495   5.740   5.830
91596SOL     OW76684   3.304   1.435   6.781
91596SOL    HW176685   3.319   1.417   6.688
91596SOL    HW276686   3.238   1.504   6.781
91597SOL     OW76687   1.916  13.965  14.294
91597SOL    HW176688   1.985  13.953  14.359
91597SOL    HW276689   1.918  13.885  14.241
91598SOL     OW76690   3.241  14.737   4.890
91598SOL    HW176691   3.318  14.737   4.947
91598SOL    HW276692   3.189  14.811   4.920
91599SOL     OW76693   8.737  12.163   3.125
91599SOL    HW176694   8.737  12.128   3.214
91599SOL    HW276695   8.768  12.253   3.136
91600SOL     OW76696  12.633   9.988  14.616
91600SOL    HW176697  12.688  10.063  14.594
91600SOL    HW276698  12.637   9.984  14.712
91601SOL     OW76699   0.975  11.611   1.097
91601SOL    HW176700   0.924  11.534   1.119
91601SOL    HW276701   0.942  11.679   1.156
91602SOL     OW76702   3.520   7.709   5.790
91602SOL    HW176703   3.583   7.780   5.778
91602SOL    HW276704   3.458   7.742   5.854
91603SOL     OW76705  14.242  13.434  11.869
91603SOL    HW176706  14.170  13.449  11.808
91603SOL    HW276707  14.210  13.467  11.953
91604SOL     OW76708  11.120   5.107   9.204
91604SOL    HW176709  11.048   5.071   9.152
91604SOL    HW276710  11.124   5.199   9.178
91605SOL     OW76711  13.265   0.293   5.192
91605SOL    HW176712  13.238   0.365   5.136
91605SOL    HW276713  13.330   0.245   5.141
91606SOL     OW76714   8.328  11.350   7.837
91606SOL    HW176715   8.253  11.406   7.818
91606SOL    HW276716   8.400  11.388   7.787
91607SOL     OW76717   5.192  11.258   2.650
91607SOL    HW176718   5.226  11.265   2.560
91607SOL    HW276719   5.177  11.164   2.662
91608SOL     OW76720   2.473   4.264  13.981
91608SOL    HW176721   2.543   4.253  14.045
91608SOL    HW276722   2.438   4.352  13.998
91609SOL     OW76723  11.512   3.804  13.158
91609SOL    HW176724  11.597   3.834  13.191
91609SOL    HW276725  11.462   3.782  13.237
91610SOL     OW76726   2.239   3.997   7.215
91610SOL    HW176727   2.325   4.028   7.241
91610SOL    HW276728   2.211   4.058   7.147
91611SOL     OW76729  11.529   3.450   2.790
91611SOL    HW176730  11.473   3.420   2.718
91611SOL    HW276731  11.543   3.543   2.771
91612SOL     OW76732  10.417   7.747  11.476
91612SOL    HW176733  10.478   7.719  11.408
91612SOL    HW276734  10.332   7.749  11.433
91613SOL     OW76735  13.571  11.851   4.621
91613SOL    HW176736  13.607  11.940   4.619
91613SOL    HW276737  13.477  11.863   4.611
91614SOL     OW76738  10.356   3.818   6.944
91614SOL    HW176739  10.270   3.832   6.906
91614SOL    HW276740  10.413   3.801   6.869
91615SOL     OW76741  11.942   5.922   9.668
91615SOL    HW176742  11.921   5.967   9.586
91615SOL    HW276743  12.031   5.889   9.656
91616SOL     OW76744   5.720   5.808  10.564
91616SOL    HW176745   5.804   5.787  10.604
91616SOL    HW276746   5.656   5.760  10.616
91617SOL     OW76747   7.189   7.475  12.369
91617SOL    HW176748   7.252   7.417  12.326
91617SOL    HW276749   7.219   7.480  12.460
91618SOL     OW76750  10.697   9.516  11.244
91618SOL    HW176751  10.787   9.547  11.240
91618SOL    HW276752  10.673   9.500  11.153
91619SOL     OW76753   4.675   4.180   8.727
91619SOL    HW176754   4.621   4.143   8.657
91619SOL    HW276755   4.614   4.231   8.780
91620SOL     OW76756   4.317  14.000  12.900
91620SOL    HW176757   4.319  14.094  12.882
91620SOL    HW276758   4.403  13.968  12.871
91621SOL     OW76759   8.968  10.318   4.185
91621SOL    HW176760   8.976  10.235   4.139
91621SOL    HW276761   8.889  10.358   4.149
91622SOL     OW76762  12.376   2.918   5.222
91622SOL    HW176763  12.328   2.855   5.169
91622SOL    HW276764  12.316   2.991   5.234
91623SOL     OW76765   6.531   3.967   2.777
91623SOL    HW176766   6.444   4.003   2.758
91623SOL    HW276767   6.560   4.013   2.855
91624SOL     OW76768   4.662   4.127   9.668
91624SOL    HW176769   4.685   4.177   9.747
91624SOL    HW276770   4.685   4.185   9.595
91625SOL     OW76771  10.813   0.262   5.911
91625SOL    HW176772  10.789   0.233   5.823
91625SOL    HW276773  10.901   0.228   5.924
91626SOL     OW76774  13.195   3.775   6.974
91626SOL    HW176775  13.247   3.855   6.978
91626SOL    HW276776  13.104   3.806   6.982
91627SOL     OW76777  10.879   1.383   8.570
91627SOL    HW176778  10.862   1.417   8.483
91627SOL    HW276779  10.852   1.291   8.565
91628SOL     OW76780   4.185  12.307  13.445
91628SOL    HW176781   4.267  12.269  13.478
91628SOL    HW276782   4.140  12.234  13.404
91629SOL     OW76783   1.924  13.605   5.561
91629SOL    HW176784   1.985  13.531   5.551
91629SOL    HW276785   1.846  13.578   5.512
91630SOL     OW76786   7.555   0.916  12.096
91630SOL    HW176787   7.469   0.954  12.113
91630SOL    HW276788   7.550   0.889  12.004
91631SOL     OW76789   8.130   7.096   5.222
91631SOL    HW176790   8.082   7.108   5.140
91631SOL    HW276791   8.155   7.185   5.247
91632SOL     OW76792   4.864  12.212  14.804
91632SOL    HW176793   4.856  12.264   0.005
91632SOL    HW276794   4.896  12.127  14.833
91633SOL     OW76795   0.937   2.355  11.601
91633SOL    HW176796   0.906   2.413  11.670
91633SOL    HW276797   1.002   2.407  11.554
91634SOL     OW76798   0.108   0.630   0.146
91634SOL    HW176799   0.102   0.535   0.159
91634SOL    HW276800   0.114   0.640   0.051
91635SOL     OW76801   1.623   6.551  14.389
91635SOL    HW176802   1.698   6.608  14.404
91635SOL    HW276803   1.636   6.518  14.300
91636SOL     OW76804  11.993  14.501   5.934
91636SOL    HW176805  11.995  14.413   5.972
91636SOL    HW276806  12.040  14.555   5.997
91637SOL     OW76807  14.383  12.871   3.285
91637SOL    HW176808  14.322  12.944   3.298
91637SOL    HW276809  14.453  12.886   3.348
91638SOL     OW76810  11.623   6.251  11.025
91638SOL    HW176811  11.543   6.257  10.972
91638SOL    HW276812  11.597   6.285  11.111
91639SOL     OW76813  10.832   7.374   3.352
91639SOL    HW176814  10.779   7.337   3.422
91639SOL    HW276815  10.916   7.397   3.394
91640SOL     OW76816  13.365   1.387   3.398
91640SOL    HW176817  13.377   1.427   3.311
91640SOL    HW276818  13.359   1.462   3.457
91641SOL     OW76819  11.991   7.544   2.611
91641SOL    HW176820  12.067   7.486   2.616
91641SOL    HW276821  11.921   7.487   2.578
91642SOL     OW76822   1.724   1.192  11.718
91642SOL    HW176823   1.660   1.191  11.646
91642SOL    HW276824   1.809   1.188  11.674
91643SOL     OW76825   4.396  14.116  11.394
91643SOL    HW176826   4.356  14.201  11.415
91643SOL    HW276827   4.341  14.082  11.323
91644SOL     OW76828  13.741   5.876  14.417
91644SOL    HW176829  13.699   5.919  14.342
91644SOL    HW276830  13.746   5.784  14.391
91645SOL     OW76831  13.301   4.519  12.967
91645SOL    HW176832  13.266   4.577  12.900
91645SOL    HW276833  13.236   4.450  12.976
91646SOL     OW76834   1.970   2.882   8.533
91646SOL    HW176835   2.000   2.942   8.465
91646SOL    HW276836   2.040   2.883   8.598
91647SOL     OW76837  12.289   5.508   6.882
91647SOL    HW176838  12.225   5.465   6.824
91647SOL    HW276839  12.356   5.541   6.823
91648SOL     OW76840   5.740  12.551   7.485
91648SOL    HW176841   5.695  12.468   7.471
91648SOL    HW276842   5.709  12.581   7.570
91649SOL     OW76843   6.546   7.679   0.622
91649SOL    HW176844   6.510   7.590   0.620
91649SOL    HW276845   6.536   7.710   0.532
91650SOL     OW76846   8.511   2.560  11.848
91650SOL    HW176847   8.461   2.495  11.898
91650SOL    HW276848   8.561   2.508  11.785
91651SOL     OW76849   4.634  11.421   6.959
91651SOL    HW176850   4.709  11.415   7.018
91651SOL    HW276851   4.579  11.489   6.996
91652SOL     OW76852  11.468  10.313   4.212
91652SOL    HW176853  11.432  10.304   4.300
91652SOL    HW276854  11.458  10.406   4.191
91653SOL     OW76855   8.624   7.804   9.176
91653SOL    HW176856   8.672   7.862   9.234
91653SOL    HW276857   8.691   7.762   9.122
91654SOL     OW76858   8.528  13.320   4.142
91654SOL    HW176859   8.609  13.277   4.169
91654SOL    HW276860   8.535  13.409   4.176
91655SOL     OW76861   2.248  13.469  12.916
91655SOL    HW176862   2.272  13.476  12.823
91655SOL    HW276863   2.247  13.375  12.933
91656SOL     OW76864  13.854   4.866  12.638
91656SOL    HW176865  13.855   4.955  12.671
91656SOL    HW276866  13.889   4.813  12.710
91657SOL     OW76867   9.681   5.240   8.781
91657SOL    HW176868   9.686   5.335   8.795
91657SOL    HW276869   9.594   5.226   8.743
91658SOL     OW76870   4.873  11.447   2.899
91658SOL    HW176871   4.821  11.400   2.833
91658SOL    HW276872   4.879  11.385   2.972
91659SOL     OW76873   6.590   4.530   3.856
91659SOL    HW176874   6.608   4.517   3.949
91659SOL    HW276875   6.496   4.516   3.847
91660SOL     OW76876   9.795  12.653   0.231
91660SOL    HW176877   9.849  12.728   0.257
91660SOL    HW276878   9.705  12.688   0.230
91661SOL     OW76879   2.760  13.023  11.711
91661SOL    HW176880   2.855  13.015  11.702
91661SOL    HW276881   2.741  12.979  11.794
91662SOL     OW76882   8.056   4.419   1.458
91662SOL    HW176883   8.138   4.391   1.417
91662SOL    HW276884   8.044   4.509   1.427
91663SOL     OW76885   7.160   5.317   1.189
91663SOL    HW176886   7.114   5.390   1.148
91663SOL    HW276887   7.102   5.242   1.177
91664SOL     OW76888   4.988   3.274   8.041
91664SOL    HW176889   4.980   3.252   7.948
91664SOL    HW276890   4.913   3.330   8.059
91665SOL     OW76891   4.486  10.725  11.167
91665SOL    HW176892   4.440  10.642  11.156
91665SOL    HW276893   4.418  10.787  11.196
91666SOL     OW76894   5.423   4.241   4.893
91666SOL    HW176895   5.469   4.261   4.974
91666SOL    HW276896   5.455   4.305   4.830
91667SOL     OW76897  10.205  12.574   5.207
91667SOL    HW176898  10.221  12.484   5.180
91667SOL    HW276899  10.189  12.621   5.125
91668SOL     OW76900   9.153   9.937  10.347
91668SOL    HW176901   9.112   9.970  10.267
91668SOL    HW276902   9.085   9.884  10.389
91669SOL     OW76903  14.865   1.095  13.447
91669SOL    HW176904  14.838   1.167  13.505
91669SOL    HW276905  14.784   1.048  13.429
91670SOL     OW76906   7.823  13.938   7.437
91670SOL    HW176907   7.916  13.960   7.444
91670SOL    HW276908   7.821  13.845   7.415
91671SOL     OW76909  12.817  13.568   1.802
91671SOL    HW176910  12.887  13.563   1.868
91671SOL    HW276911  12.762  13.641   1.831
91672SOL     OW76912  13.286   1.474  14.207
91672SOL    HW176913  13.260   1.401  14.151
91672SOL    HW276914  13.265   1.445  14.296
91673SOL     OW76915  14.356   7.415   3.384
91673SOL    HW176916  14.333   7.429   3.292
91673SOL    HW276917  14.300   7.343   3.412
91674SOL     OW76918   1.046   9.713  10.580
91674SOL    HW176919   1.125   9.714  10.633
91674SOL    HW276920   1.076   9.691  10.492
91675SOL     OW76921   4.627   3.115  12.940
91675SOL    HW176922   4.710   3.138  12.981
91675SOL    HW276923   4.570   3.190  12.958
91676SOL     OW76924  11.042   0.972  10.758
91676SOL    HW176925  10.950   0.959  10.738
91676SOL    HW276926  11.042   1.025  10.838
91677SOL     OW76927  10.779   8.945   9.071
91677SOL    HW176928  10.845   9.002   9.111
91677SOL    HW276929  10.770   8.873   9.133
91678SOL     OW76930   7.062   0.240   5.055
91678SOL    HW176931   7.047   0.335   5.058
91678SOL    HW276932   7.155   0.230   5.073
91679SOL     OW76933   7.514  12.518   4.349
91679SOL    HW176934   7.490  12.599   4.393
91679SOL    HW276935   7.555  12.546   4.267
91680SOL     OW76936   9.420  11.501   8.972
91680SOL    HW176937   9.448  11.412   8.993
91680SOL    HW276938   9.327  11.503   8.995
91681SOL     OW76939  13.071   7.595   9.131
91681SOL    HW176940  12.982   7.593   9.094
91681SOL    HW276941  13.089   7.504   9.154
91682SOL     OW76942  13.397   5.718   1.894
91682SOL    HW176943  13.377   5.626   1.876
91682SOL    HW276944  13.489   5.717   1.922
91683SOL     OW76945   1.866   7.915   0.037
91683SOL    HW176946   1.935   7.941   0.098
91683SOL    HW276947   1.789   7.965   0.066
91684SOL     OW76948  10.141  12.633  14.713
91684SOL    HW176949  10.225  12.640  14.667
91684SOL    HW276950  10.116  12.541  14.703
91685SOL     OW76951   6.401   3.569   1.818
91685SOL    HW176952   6.454   3.643   1.788
91685SOL    HW276953   6.453   3.491   1.795
91686SOL     OW76954  11.752   2.506   4.419
91686SOL    HW176955  11.668   2.550   4.434
91686SOL    HW276956  11.747   2.427   4.473
91687SOL     OW76957  11.948  14.230   4.267
91687SOL    HW176958  12.024  14.190   4.225
91687SOL    HW276959  11.877  14.167   4.254
91688SOL     OW76960   9.300  11.265  11.697
91688SOL    HW176961   9.226  11.217  11.660
91688SOL    HW276962   9.292  11.252  11.792
91689SOL     OW76963  12.748   4.119  11.953
91689SOL    HW176964  12.683   4.107  12.022
91689SOL    HW276965  12.713   4.072  11.878
91690SOL     OW76966  13.346   7.457   5.263
91690SOL    HW176967  13.324   7.385   5.322
91690SOL    HW276968  13.269   7.515   5.265
91691SOL     OW76969   8.967   1.115  11.356
91691SOL    HW176970   9.030   1.047  11.381
91691SOL    HW276971   8.892   1.100  11.413
91692SOL     OW76972   3.324   2.043   6.582
91692SOL    HW176973   3.250   2.034   6.643
91692SOL    HW276974   3.387   1.977   6.612
91693SOL     OW76975  11.945   8.222   4.889
91693SOL    HW176976  11.992   8.271   4.957
91693SOL    HW276977  11.932   8.285   4.819
91694SOL     OW76978   9.441   5.128   8.689
91694SOL    HW176979   9.421   5.084   8.607
91694SOL    HW276980   9.364   5.181   8.708
91695SOL     OW76981   4.818   5.464  12.507
91695SOL    HW176982   4.829   5.522  12.582
91695SOL    HW276983   4.775   5.386  12.542
91696SOL     OW76984   7.091  11.815  11.168
91696SOL    HW176985   7.054  11.834  11.255
91696SOL    HW276986   7.177  11.856  11.169
91697SOL     OW76987  10.231   9.698   7.785
91697SOL    HW176988  10.150   9.718   7.832
91697SOL    HW276989  10.203   9.668   7.699
91698SOL     OW76990   5.625   2.519  14.281
91698SOL    HW176991   5.654   2.582  14.215
91698SOL    HW276992   5.700   2.461  14.294
91699SOL     OW76993   5.194   2.808   6.676
91699SOL    HW176994   5.226   2.864   6.605
91699SOL    HW276995   5.157   2.732   6.632
91700SOL     OW76996  12.371  13.102   8.063
91700SOL    HW176997  12.289  13.053   8.068
91700SOL    HW276998  12.344  13.191   8.041
91701SOL     OW76999  12.207   7.861  13.673
91701SOL    HW177000  12.174   7.837  13.760
91701SOL    HW277001  12.135   7.910  13.633
91702SOL     OW77002  14.527  13.833   6.131
91702SOL    HW177003  14.622  13.843   6.124
91702SOL    HW277004  14.499  13.910   6.180
91703SOL     OW77005   8.278  13.679   0.779
91703SOL    HW177006   8.267  13.764   0.737
91703SOL    HW277007   8.206  13.625   0.745
91704SOL     OW77008  10.763   3.290  14.378
91704SOL    HW177009  10.694   3.233  14.413
91704SOL    HW277010  10.795   3.244  14.300
91705SOL     OW77011   7.121   9.716   1.232
91705SOL    HW177012   7.100   9.786   1.293
91705SOL    HW277013   7.042   9.707   1.178
91706SOL     OW77014  10.611   3.920   1.955
91706SOL    HW177015  10.676   3.858   1.921
91706SOL    HW277016  10.664   3.984   2.003
91707SOL     OW77017   7.022  12.838  13.985
91707SOL    HW177018   7.082  12.765  14.002
91707SOL    HW277019   6.953  12.799  13.931
91708SOL     OW77020   1.817  14.175   6.423
91708SOL    HW177021   1.766  14.127   6.358
91708SOL    HW277022   1.758  14.184   6.498
91709SOL     OW77023   2.427   1.056  12.440
91709SOL    HW177024   2.382   1.138  12.422
91709SOL    HW277025   2.501   1.081  12.495
91710SOL     OW77026   1.157  11.081  10.903
91710SOL    HW177027   1.154  10.997  10.950
91710SOL    HW277028   1.197  11.059  10.819
91711SOL     OW77029   6.326   3.771   5.743
91711SOL    HW177030   6.295   3.771   5.834
91711SOL    HW277031   6.275   3.840   5.701
91712SOL     OW77032   2.099  14.652   6.648
91712SOL    HW177033   2.193  14.660   6.662
91712SOL    HW277034   2.061  14.723   6.700
91713SOL     OW77035   0.611   9.140   7.832
91713SOL    HW177036   0.666   9.076   7.877
91713SOL    HW277037   0.566   9.187   7.902
91714SOL     OW77038  11.508   5.676  13.705
91714SOL    HW177039  11.584   5.639  13.660
91714SOL    HW277040  11.495   5.761  13.663
91715SOL     OW77041  12.674   3.886   1.591
91715SOL    HW177042  12.683   3.980   1.574
91715SOL    HW277043  12.638   3.850   1.510
91716SOL     OW77044   0.840   7.520   9.293
91716SOL    HW177045   0.857   7.614   9.289
91716SOL    HW277046   0.922   7.481   9.323
91717SOL     OW77047  12.089   6.189   6.619
91717SOL    HW177048  12.175   6.230   6.606
91717SOL    HW277049  12.096   6.106   6.571
91718SOL     OW77050  11.625  14.092  11.971
91718SOL    HW177051  11.562  14.135  12.028
91718SOL    HW277052  11.702  14.077  12.027
91719SOL     OW77053   4.343   3.240  12.375
91719SOL    HW177054   4.375   3.299  12.444
91719SOL    HW277055   4.340   3.294  12.296
91720SOL     OW77056  12.307   5.242   1.406
91720SOL    HW177057  12.351   5.243   1.491
91720SOL    HW277058  12.269   5.154   1.399
91721SOL     OW77059  14.409   6.192   7.469
91721SOL    HW177060  14.443   6.215   7.383
91721SOL    HW277061  14.487   6.172   7.521
91722SOL     OW77062  13.195   4.268  14.384
91722SOL    HW177063  13.210   4.310  14.299
91722SOL    HW277064  13.263   4.305  14.441
91723SOL     OW77065   5.018   4.475  12.403
91723SOL    HW177066   4.922   4.470  12.405
91723SOL    HW277067   5.041   4.453  12.313
91724SOL     OW77068  12.903   1.681   4.393
91724SOL    HW177069  12.871   1.616   4.455
91724SOL    HW277070  12.912   1.634   4.310
91725SOL     OW77071   5.184   6.982   7.626
91725SOL    HW177072   5.149   7.041   7.559
91725SOL    HW277073   5.267   7.022   7.653
91726SOL     OW77074  12.156   0.115  11.283
91726SOL    HW177075  12.101   0.138  11.208
91726SOL    HW277076  12.199   0.033  11.257
91727SOL     OW77077  14.689  11.260   1.881
91727SOL    HW177078  14.600  11.269   1.913
91727SOL    HW277079  14.713  11.169   1.901
91728SOL     OW77080   1.676  13.514   7.467
91728SOL    HW177081   1.669  13.459   7.545
91728SOL    HW277082   1.762  13.495   7.431
91729SOL     OW77083   5.416  13.017   8.446
91729SOL    HW177084   5.471  13.095   8.453
91729SOL    HW277085   5.372  13.026   8.362
91730SOL     OW77086   7.683   7.907   1.175
91730SOL    HW177087   7.701   7.830   1.120
91730SOL    HW277088   7.738   7.894   1.252
91731SOL     OW77089  11.108  14.685   8.214
91731SOL    HW177090  11.024  14.731   8.217
91731SOL    HW277091  11.124  14.672   8.120
91732SOL     OW77092  14.867   0.280   9.983
91732SOL    HW177093   0.020   0.350   9.927
91732SOL    HW277094  14.794   0.320  10.030
91733SOL     OW77095   6.003  13.764   4.969
91733SOL    HW177096   5.975  13.828   4.904
91733SOL    HW277097   6.002  13.681   4.922
91734SOL     OW77098   6.891   6.956   9.104
91734SOL    HW177099   6.916   7.047   9.092
91734SOL    HW277100   6.797   6.959   9.123
91735SOL     OW77101   3.901   0.843   7.857
91735SOL    HW177102   3.989   0.813   7.833
91735SOL    HW277103   3.908   0.939   7.858
91736SOL     OW77104   4.229   7.300  10.243
91736SOL    HW177105   4.293   7.288  10.313
91736SOL    HW277106   4.263   7.248  10.170
91737SOL     OW77107   4.260   0.990   2.442
91737SOL    HW177108   4.295   1.021   2.359
91737SOL    HW277109   4.324   1.020   2.508
91738SOL     OW77110   6.745   1.326  12.479
91738SOL    HW177111   6.698   1.270  12.541
91738SOL    HW277112   6.678   1.358  12.419
91739SOL     OW77113   5.947  11.629  11.043
91739SOL    HW177114   5.910  11.619  10.955
91739SOL    HW277115   6.021  11.569  11.045
91740SOL     OW77116  14.051   7.737   9.339
91740SOL    HW177117  13.958   7.758   9.341
91740SOL    HW277118  14.085   7.788   9.265
91741SOL     OW77119   0.974  10.192   3.166
91741SOL    HW177120   0.946  10.284   3.168
91741SOL    HW277121   1.046  10.188   3.228
91742SOL     OW77122   8.732   1.158  13.084
91742SOL    HW177123   8.821   1.174  13.116
91742SOL    HW277124   8.729   1.063  13.070
91743SOL     OW77125   3.118   9.841   9.669
91743SOL    HW177126   3.043   9.791   9.701
91743SOL    HW277127   3.092   9.932   9.678
91744SOL     OW77128   3.322   7.534  11.728
91744SOL    HW177129   3.267   7.599  11.773
91744SOL    HW277130   3.409   7.572  11.728
91745SOL     OW77131   8.628   0.551  12.265
91745SOL    HW177132   8.587   0.490  12.326
91745SOL    HW277133   8.555   0.601  12.229
91746SOL     OW77134  10.348   0.805   3.556
91746SOL    HW177135  10.253   0.821   3.557
91746SOL    HW277136  10.385   0.886   3.522
91747SOL     OW77137   4.355   2.332  12.092
91747SOL    HW177138   4.289   2.381  12.044
91747SOL    HW277139   4.387   2.267  12.030
91748SOL     OW77140  12.445  14.486   8.684
91748SOL    HW177141  12.488  14.542   8.620
91748SOL    HW277142  12.386  14.545   8.731
91749SOL     OW77143  11.472   5.545   6.442
91749SOL    HW177144  11.389   5.589   6.421
91749SOL    HW277145  11.515   5.604   6.504
91750SOL     OW77146  12.546   6.160   8.917
91750SOL    HW177147  12.641   6.150   8.914
91750SOL    HW277148  12.513   6.089   8.861
91751SOL     OW77149   5.990   9.709   0.344
91751SOL    HW177150   5.965   9.702   0.436
91751SOL    HW277151   5.979   9.801   0.322
91752SOL     OW77152  13.238   0.150  14.625
91752SOL    HW177153  13.241   0.083  14.693
91752SOL    HW277154  13.192   0.107  14.552
91753SOL     OW77155   3.709  13.700   2.179
91753SOL    HW177156   3.764  13.738   2.111
91753SOL    HW277157   3.763  13.703   2.258
91754SOL     OW77158  13.462  12.127  12.656
91754SOL    HW177159  13.369  12.143  12.638
91754SOL    HW277160  13.485  12.052  12.601
91755SOL     OW77161   8.552   1.730  11.116
91755SOL    HW177162   8.625   1.676  11.147
91755SOL    HW277163   8.501   1.749  11.195
91756SOL     OW77164   8.732   1.484   5.849
91756SOL    HW177165   8.695   1.568   5.822
91756SOL    HW277166   8.665   1.446   5.907
91757SOL     OW77167  11.339   7.726   6.681
91757SOL    HW177168  11.295   7.675   6.749
91757SOL    HW277169  11.303   7.691   6.599
91758SOL     OW77170   3.048  11.008  12.468
91758SOL    HW177171   3.030  11.089  12.517
91758SOL    HW277172   2.962  10.976  12.442
91759SOL     OW77173  14.407  12.706  10.334
91759SOL    HW177174  14.382  12.792  10.298
91759SOL    HW277175  14.482  12.725  10.390
91760SOL     OW77176   2.241   5.925   8.339
91760SOL    HW177177   2.326   5.882   8.345
91760SOL    HW277178   2.223   5.954   8.429
91761SOL     OW77179  10.927   7.795   1.212
91761SOL    HW177180  10.943   7.798   1.306
91761SOL    HW277181  10.967   7.713   1.183
91762SOL     OW77182  14.281  14.642   0.132
91762SOL    HW177183  14.364  14.600   0.111
91762SOL    HW277184  14.217  14.570   0.131
91763SOL     OW77185   3.490   6.984  10.914
91763SOL    HW177186   3.496   6.890  10.934
91763SOL    HW277187   3.408   6.992  10.864
91764SOL     OW77188   6.338  12.498   2.103
91764SOL    HW177189   6.403  12.517   2.170
91764SOL    HW277190   6.378  12.527   2.021
91765SOL     OW77191   2.955   9.207   6.226
91765SOL    HW177192   3.021   9.161   6.278
91765SOL    HW277193   2.886   9.228   6.289
91766SOL     OW77194  13.992   2.997   6.491
91766SOL    HW177195  13.930   3.070   6.498
91766SOL    HW277196  13.938   2.922   6.467
91767SOL     OW77197   2.404   4.009   6.722
91767SOL    HW177198   2.465   4.036   6.653
91767SOL    HW277199   2.393   3.915   6.709
91768SOL     OW77200  11.880   3.708   8.810
91768SOL    HW177201  11.890   3.716   8.904
91768SOL    HW277202  11.836   3.623   8.798
91769SOL     OW77203   8.330  10.046   8.584
91769SOL    HW177204   8.247  10.061   8.539
91769SOL    HW277205   8.306   9.993   8.660
91770SOL     OW77206  13.909   8.131  10.554
91770SOL    HW177207  13.842   8.166  10.613
91770SOL    HW277208  13.987   8.123  10.609
91771SOL     OW77209  12.329  14.298   5.232
91771SOL    HW177210  12.304  14.248   5.310
91771SOL    HW277211  12.246  14.323   5.192
91772SOL     OW77212   1.436  14.404  13.728
91772SOL    HW177213   1.373  14.373  13.793
91772SOL    HW277214   1.514  14.427  13.778
91773SOL     OW77215   2.071  10.085  12.670
91773SOL    HW177216   2.000  10.100  12.732
91773SOL    HW277217   2.150  10.082  12.724
91774SOL     OW77218   1.404   5.598   6.095
91774SOL    HW177219   1.460   5.615   6.020
91774SOL    HW277220   1.385   5.504   6.092
91775SOL     OW77221   6.803  10.353   2.001
91775SOL    HW177222   6.777  10.262   2.015
91775SOL    HW277223   6.766  10.400   2.075
91776SOL     OW77224   7.696   3.880   3.742
91776SOL    HW177225   7.654   3.868   3.657
91776SOL    HW277226   7.724   3.972   3.743
91777SOL     OW77227   7.003  11.388   1.212
91777SOL    HW177228   7.063  11.423   1.147
91777SOL    HW277229   6.984  11.299   1.182
91778SOL     OW77230   4.726  14.249  12.355
91778SOL    HW177231   4.645  14.271  12.310
91778SOL    HW277232   4.735  14.317  12.422
91779SOL     OW77233   8.038  11.427   6.448
91779SOL    HW177234   8.017  11.387   6.363
91779SOL    HW277235   8.043  11.353   6.508
91780SOL     OW77236   6.670   1.964   0.034
91780SOL    HW177237   6.764   1.984   0.033
91780SOL    HW277238   6.629   2.046   0.063
91781SOL     OW77239  13.116  14.096   9.659
91781SOL    HW177240  13.146  14.147   9.584
91781SOL    HW277241  13.127  14.005   9.632
91782SOL     OW77242  13.411   3.732  10.120
91782SOL    HW177243  13.493   3.780  10.124
91782SOL    HW277244  13.419   3.664  10.187
91783SOL     OW77245   5.361   5.620   0.746
91783SOL    HW177246   5.401   5.563   0.812
91783SOL    HW277247   5.407   5.600   0.665
91784SOL     OW77248   8.176   3.866  11.444
91784SOL    HW177249   8.217   3.948  11.473
91784SOL    HW277250   8.203   3.858  11.352
91785SOL     OW77251  12.691   0.467   4.069
91785SOL    HW177252  12.715   0.413   4.145
91785SOL    HW277253  12.610   0.510   4.095
91786SOL     OW77254   3.006  14.298   6.408
91786SOL    HW177255   3.009  14.272   6.499
91786SOL    HW277256   3.082  14.256   6.368
91787SOL     OW77257   9.363  10.137   8.137
91787SOL    HW177258   9.284  10.191   8.145
91787SOL    HW277259   9.406  10.168   8.057
91788SOL     OW77260   2.153   6.962  11.624
91788SOL    HW177261   2.236   6.945  11.580
91788SOL    HW277262   2.139   7.057  11.614
91789SOL     OW77263   7.173   0.511   9.830
91789SOL    HW177264   7.266   0.520   9.849
91789SOL    HW277265   7.151   0.590   9.780
91790SOL     OW77266   7.198   7.287   0.093
91790SOL    HW177267   7.121   7.313   0.042
91790SOL    HW277268   7.267   7.347   0.064
91791SOL     OW77269  12.403   2.632   7.001
91791SOL    HW177270  12.417   2.669   7.088
91791SOL    HW277271  12.345   2.694   6.957
91792SOL     OW77272   5.722   9.407  11.079
91792SOL    HW177273   5.803   9.457  11.075
91792SOL    HW277274   5.724   9.365  11.165
91793SOL     OW77275  12.230   5.016   6.688
91793SOL    HW177276  12.168   4.942   6.683
91793SOL    HW277277  12.193   5.073   6.756
91794SOL     OW77278   8.372   1.424   4.218
91794SOL    HW177279   8.316   1.457   4.288
91794SOL    HW277280   8.328   1.345   4.187
91795SOL     OW77281   4.557   3.183  14.438
91795SOL    HW177282   4.508   3.151  14.362
91795SOL    HW277283   4.527   3.272  14.451
91796SOL     OW77284   2.672   4.580  11.848
91796SOL    HW177285   2.696   4.673  11.846
91796SOL    HW277286   2.731   4.538  11.785
91797SOL     OW77287   3.978   5.481   4.697
91797SOL    HW177288   3.929   5.420   4.752
91797SOL    HW277289   3.912   5.536   4.657
91798SOL     OW77290  14.141  11.962   3.806
91798SOL    HW177291  14.145  12.013   3.725
91798SOL    HW277292  14.231  11.936   3.823
91799SOL     OW77293   7.133   6.337   5.866
91799SOL    HW177294   7.071   6.382   5.808
91799SOL    HW277295   7.189   6.286   5.807
91800SOL     OW77296  13.608   7.890   2.956
91800SOL    HW177297  13.546   7.963   2.957
91800SOL    HW277298  13.680   7.920   2.900
91801SOL     OW77299   0.005   5.999  12.797
91801SOL    HW177300   0.004   5.955  12.712
91801SOL    HW277301  14.799   6.039  12.805
91802SOL     OW77302  13.270   2.833  14.342
91802SOL    HW177303  13.348   2.784  14.316
91802SOL    HW277304  13.304   2.902  14.401
91803SOL     OW77305   3.670   8.121   3.149
91803SOL    HW177306   3.657   8.055   3.218
91803SOL    HW277307   3.675   8.204   3.196
91804SOL     OW77308   3.354   9.148   4.276
91804SOL    HW177309   3.340   9.107   4.191
91804SOL    HW277310   3.393   9.233   4.255
91805SOL     OW77311   4.036   3.920   1.136
91805SOL    HW177312   4.059   3.829   1.117
91805SOL    HW277313   4.005   3.955   1.053
91806SOL     OW77314   5.911   6.040   3.185
91806SOL    HW177315   6.004   6.056   3.166
91806SOL    HW277316   5.867   6.120   3.154
91807SOL     OW77317   4.831   0.950   3.195
91807SOL    HW177318   4.746   0.979   3.229
91807SOL    HW277319   4.880   0.925   3.273
91808SOL     OW77320   7.095   4.737   0.130
91808SOL    HW177321   7.036   4.724   0.056
91808SOL    HW277322   7.183   4.735   0.092
91809SOL     OW77323   4.369  10.888   0.162
91809SOL    HW177324   4.420  10.807   0.159
91809SOL    HW277325   4.391  10.933   0.080
91810SOL     OW77326   9.599   1.732  11.733
91810SOL    HW177327   9.561   1.656  11.690
91810SOL    HW277328   9.582   1.717  11.826
91811SOL     OW77329   9.316   8.253   7.986
91811SOL    HW177330   9.270   8.223   8.064
91811SOL    HW277331   9.249   8.255   7.918
91812SOL     OW77332  12.521   7.863  13.880
91812SOL    HW177333  12.540   7.926  13.811
91812SOL    HW277334  12.425   7.857  13.882
91813SOL     OW77335  13.673  11.235   1.370
91813SOL    HW177336  13.668  11.326   1.341
91813SOL    HW277337  13.750  11.200   1.325
91814SOL     OW77338  11.302   8.157   5.779
91814SOL    HW177339  11.288   8.216   5.853
91814SOL    HW277340  11.356   8.208   5.718
91815SOL     OW77341   5.640  11.471  13.944
91815SOL    HW177342   5.682  11.491  13.860
91815SOL    HW277343   5.549  11.499  13.932
91816SOL     OW77344   6.182   9.008   0.879
91816SOL    HW177345   6.178   8.974   0.969
91816SOL    HW277346   6.094   9.039   0.861
91817SOL     OW77347   2.430   5.327   5.090
91817SOL    HW177348   2.476   5.405   5.123
91817SOL    HW277349   2.360   5.313   5.153
91818SOL     OW77350   8.662   4.608   8.731
91818SOL    HW177351   8.670   4.600   8.826
91818SOL    HW277352   8.580   4.656   8.718
91819SOL     OW77353   9.370   7.845  13.102
91819SOL    HW177354   9.305   7.776  13.088
91819SOL    HW277355   9.439   7.826  13.039
91820SOL     OW77356   6.720   6.986   8.277
91820SOL    HW177357   6.808   6.948   8.280
91820SOL    HW277358   6.725   7.052   8.208
91821SOL     OW77359   7.983   5.690   5.608
91821SOL    HW177360   7.940   5.626   5.666
91821SOL    HW277361   7.987   5.770   5.661
91822SOL     OW77362   5.551  10.362  12.533
91822SOL    HW177363   5.527  10.365  12.626
91822SOL    HW277364   5.644  10.386  12.532
91823SOL     OW77365  14.486  13.550   3.217
91823SOL    HW177366  14.525  13.467   3.189
91823SOL    HW277367  14.400  13.551   3.176
91824SOL     OW77368   8.796  14.790  14.245
91824SOL    HW177369   8.731  14.835  14.191
91824SOL    HW277370   8.768  14.804  14.335
91825SOL     OW77371   7.685   9.549   6.572
91825SOL    HW177372   7.717   9.504   6.650
91825SOL    HW277373   7.733   9.508   6.499
91826SOL     OW77374   5.719   9.840  10.687
91826SOL    HW177375   5.768   9.919  10.709
91826SOL    HW277376   5.653   9.832  10.755
91827SOL     OW77377  14.209   5.693  14.243
91827SOL    HW177378  14.292   5.708  14.288
91827SOL    HW277379  14.159   5.637  14.303
91828SOL     OW77380  14.583   9.269   4.093
91828SOL    HW177381  14.560   9.349   4.046
91828SOL    HW277382  14.501   9.242   4.134
91829SOL     OW77383   2.504  12.883  12.965
91829SOL    HW177384   2.448  12.902  13.040
91829SOL    HW277385   2.588  12.923  12.987
91830SOL     OW77386   6.038   5.231   2.071
91830SOL    HW177387   6.120   5.183   2.065
91830SOL    HW277388   6.003   5.209   2.157
91831SOL     OW77389   4.080  12.906   1.542
91831SOL    HW177390   4.081  12.943   1.454
91831SOL    HW277391   4.132  12.825   1.536
91832SOL     OW77392   5.316   1.915   7.935
91832SOL    HW177393   5.384   1.977   7.907
91832SOL    HW277394   5.332   1.837   7.882
91833SOL     OW77395   5.612  13.026   7.595
91833SOL    HW177396   5.664  12.965   7.647
91833SOL    HW277397   5.623  12.995   7.504
91834SOL     OW77398  13.510   4.743  13.898
91834SOL    HW177399  13.473   4.658  13.877
91834SOL    HW277400  13.449   4.806  13.859
91835SOL     OW77401  12.936   9.501   5.877
91835SOL    HW177402  13.030   9.510   5.863
91835SOL    HW277403  12.909   9.585   5.914
91836SOL     OW77404   4.067   6.200   6.686
91836SOL    HW177405   4.153   6.166   6.710
91836SOL    HW277406   4.005   6.136   6.721
91837SOL     OW77407   0.895  11.919   0.958
91837SOL    HW177408   0.926  11.925   0.868
91837SOL    HW277409   0.811  11.965   0.958
91838SOL     OW77410   8.682   9.181   4.716
91838SOL    HW177411   8.613   9.246   4.732
91838SOL    HW277412   8.690   9.178   4.621
91839SOL     OW77413   3.895  14.805  13.629
91839SOL    HW177414   3.886  14.742  13.557
91839SOL    HW277415   3.941  14.879  13.589
91840SOL     OW77416   1.384  14.223   0.748
91840SOL    HW177417   1.334  14.153   0.705
91840SOL    HW277418   1.414  14.184   0.830
91841SOL     OW77419  13.026   2.263   9.782
91841SOL    HW177420  13.081   2.252   9.704
91841SOL    HW277421  13.088   2.283   9.852
91842SOL     OW77422   2.087   2.578   2.874
91842SOL    HW177423   2.113   2.567   2.783
91842SOL    HW277424   2.026   2.652   2.873
91843SOL     OW77425  11.381   7.582  13.021
91843SOL    HW177426  11.460   7.576  12.966
91843SOL    HW277427  11.385   7.669  13.059
91844SOL     OW77428   2.927   8.112   4.112
91844SOL    HW177429   2.957   8.187   4.164
91844SOL    HW277430   3.007   8.064   4.093
91845SOL     OW77431   1.359  11.347   4.887
91845SOL    HW177432   1.299  11.330   4.960
91845SOL    HW277433   1.446  11.348   4.927
91846SOL     OW77434  10.751   7.454   5.412
91846SOL    HW177435  10.697   7.377   5.427
91846SOL    HW277436  10.841   7.421   5.414
91847SOL     OW77437  10.870   7.264   8.883
91847SOL    HW177438  10.894   7.324   8.812
91847SOL    HW277439  10.954   7.234   8.919
91848SOL     OW77440   0.078   4.430   5.728
91848SOL    HW177441   0.081   4.337   5.751
91848SOL    HW277442   0.168   4.452   5.706
91849SOL     OW77443  12.083   6.707  10.080
91849SOL    HW177444  12.133   6.676  10.004
91849SOL    HW277445  12.017   6.639  10.095
91850SOL     OW77446   9.637   4.627   2.784
91850SOL    HW177447   9.667   4.582   2.863
91850SOL    HW277448   9.546   4.649   2.802
91851SOL     OW77449   7.381   0.663  12.047
91851SOL    HW177450   7.431   0.623  11.976
91851SOL    HW277451   7.443   0.720  12.092
91852SOL     OW77452   9.886  12.642   4.021
91852SOL    HW177453   9.834  12.562   4.030
91852SOL    HW277454   9.841  12.705   4.077
91853SOL     OW77455   8.293   1.351  13.690
91853SOL    HW177456   8.363   1.395  13.739
91853SOL    HW277457   8.334   1.324  13.608
91854SOL     OW77458  11.448   2.967  14.687
91854SOL    HW177459  11.366   2.928  14.657
91854SOL    HW277460  11.492   2.995  14.608
91855SOL     OW77461  11.314  10.658   2.597
91855SOL    HW177462  11.268  10.608   2.530
91855SOL    HW277463  11.276  10.746   2.592
91856SOL     OW77464   4.046  11.797   5.583
91856SOL    HW177465   4.102  11.828   5.654
91856SOL    HW277466   4.022  11.707   5.609
91857SOL     OW77467  14.808   9.393  10.616
91857SOL    HW177468  14.792   9.328  10.685
91857SOL    HW277469  14.738   9.378  10.552
91858SOL     OW77470  12.330  13.709   9.336
91858SOL    HW177471  12.365  13.636   9.284
91858SOL    HW277472  12.354  13.787   9.287
91859SOL     OW77473   3.281  13.613   7.474
91859SOL    HW177474   3.193  13.597   7.439
91859SOL    HW277475   3.309  13.695   7.433
91860SOL     OW77476   5.386   1.025   0.798
91860SOL    HW177477   5.327   1.002   0.726
91860SOL    HW277478   5.331   1.021   0.876
91861SOL     OW77479  12.272   5.872   6.844
91861SOL    HW177480  12.352   5.834   6.879
91861SOL    HW277481  12.291   5.887   6.751
91862SOL     OW77482   2.806   2.288  10.139
91862SOL    HW177483   2.865   2.219  10.171
91862SOL    HW277484   2.857   2.369  10.148
91863SOL     OW77485   3.896  11.768   9.497
91863SOL    HW177486   3.923  11.782   9.588
91863SOL    HW277487   3.809  11.808   9.492
91864SOL     OW77488   7.701   8.396  11.074
91864SOL    HW177489   7.628   8.375  11.015
91864SOL    HW277490   7.737   8.477  11.038
91865SOL     OW77491   5.459   6.839   9.581
91865SOL    HW177492   5.404   6.867   9.508
91865SOL    HW277493   5.510   6.917   9.603
91866SOL     OW77494  11.831   5.244   3.159
91866SOL    HW177495  11.750   5.292   3.147
91866SOL    HW277496  11.829   5.214   3.250
91867SOL     OW77497  14.643  14.704   3.245
91867SOL    HW177498  14.715  14.647   3.272
91867SOL    HW277499  14.675  14.793   3.259
91868SOL     OW77500   4.398   1.964   1.729
91868SOL    HW177501   4.339   1.892   1.706
91868SOL    HW277502   4.409   1.957   1.824
91869SOL     OW77503   4.473   9.541   8.943
91869SOL    HW177504   4.411   9.481   8.902
91869SOL    HW277505   4.447   9.544   9.035
91870SOL     OW77506  13.745   7.375   3.860
91870SOL    HW177507  13.705   7.385   3.773
91870SOL    HW277508  13.676   7.399   3.921
91871SOL     OW77509  11.986  12.478   6.129
91871SOL    HW177510  11.993  12.404   6.069
91871SOL    HW277511  11.899  12.470   6.168
91872SOL     OW77512  12.093  10.016  12.893
91872SOL    HW177513  12.077   9.929  12.856
91872SOL    HW277514  12.026  10.027  12.960
91873SOL     OW77515  14.071   3.658   0.202
91873SOL    HW177516  14.050   3.582   0.148
91873SOL    HW277517  14.082   3.623   0.290
91874SOL     OW77518  12.475   4.363   9.668
91874SOL    HW177519  12.546   4.301   9.685
91874SOL    HW277520  12.435   4.332   9.586
91875SOL     OW77521   9.082  13.517   7.720
91875SOL    HW177522   9.102  13.553   7.634
91875SOL    HW277523   8.986  13.515   7.724
91876SOL     OW77524  11.070  12.330   0.218
91876SOL    HW177525  10.979  12.351   0.197
91876SOL    HW277526  11.109  12.414   0.243
91877SOL     OW77527   3.219  10.911   6.183
91877SOL    HW177528   3.298  10.903   6.130
91877SOL    HW277529   3.147  10.892   6.123
91878SOL     OW77530   7.730   4.594  13.609
91878SOL    HW177531   7.688   4.528  13.664
91878SOL    HW277532   7.815   4.556  13.586
91879SOL     OW77533   5.398  13.826   0.474
91879SOL    HW177534   5.454  13.903   0.460
91879SOL    HW277535   5.445  13.755   0.429
91880SOL     OW77536  11.916   5.201   4.413
91880SOL    HW177537  11.996   5.187   4.465
91880SOL    HW277538  11.847   5.212   4.479
91881SOL     OW77539  11.775  14.294   0.452
91881SOL    HW177540  11.751  14.342   0.373
91881SOL    HW277541  11.870  14.291   0.450
91882SOL     OW77542   1.211   5.190   6.409
91882SOL    HW177543   1.178   5.209   6.497
91882SOL    HW277544   1.144   5.133   6.370
91883SOL     OW77545  13.533   4.609  14.619
91883SOL    HW177546  13.479   4.649  14.687
91883SOL    HW277547  13.532   4.673  14.547
91884SOL     OW77548   4.060   9.744  13.876
91884SOL    HW177549   4.037   9.747  13.968
91884SOL    HW277550   4.152   9.716  13.875
91885SOL     OW77551   4.241   4.542   7.643
91885SOL    HW177552   4.170   4.481   7.665
91885SOL    HW277553   4.265   4.519   7.553
91886SOL     OW77554   1.093   8.586   6.399
91886SOL    HW177555   1.161   8.535   6.443
91886SOL    HW277556   1.134   8.672   6.383
91887SOL     OW77557  11.129   1.854   0.386
91887SOL    HW177558  11.223   1.860   0.370
91887SOL    HW277559  11.090   1.842   0.299
91888SOL     OW77560  11.509  13.181  13.885
91888SOL    HW177561  11.446  13.148  13.949
91888SOL    HW277562  11.547  13.102  13.847
91889SOL     OW77563   5.898   6.493   4.355
91889SOL    HW177564   5.937   6.564   4.406
91889SOL    HW277565   5.887   6.422   4.418
91890SOL     OW77566   4.145   9.731   1.828
91890SOL    HW177567   4.239   9.726   1.810
91890SOL    HW277568   4.122   9.644   1.860
91891SOL     OW77569  14.220   6.139   5.103
91891SOL    HW177570  14.182   6.095   5.179
91891SOL    HW277571  14.276   6.207   5.140
91892SOL     OW77572  13.546   9.200   7.915
91892SOL    HW177573  13.501   9.147   7.849
91892SOL    HW277574  13.603   9.258   7.863
91893SOL     OW77575   1.105  12.493   8.874
91893SOL    HW177576   1.085  12.564   8.813
91893SOL    HW277577   1.027  12.437   8.871
91894SOL     OW77578   3.661   2.055   0.220
91894SOL    HW177579   3.697   1.998   0.153
91894SOL    HW277580   3.574   2.078   0.189
91895SOL     OW77581   1.615  10.240  11.821
91895SOL    HW177582   1.660  10.180  11.761
91895SOL    HW277583   1.676  10.313  11.831
91896SOL     OW77584  10.807   8.051  11.759
91896SOL    HW177585  10.856   8.126  11.793
91896SOL    HW277586  10.715   8.074  11.772
91897SOL     OW77587  10.676  11.248   5.499
91897SOL    HW177588  10.694  11.199   5.419
91897SOL    HW277589  10.703  11.190   5.570
91898SOL     OW77590   0.021   5.090  11.830
91898SOL    HW177591   0.021   5.031  11.905
91898SOL    HW277592   0.047   5.035  11.756
91899SOL     OW77593   0.284  13.777  14.445
91899SOL    HW177594   0.254  13.868  14.443
91899SOL    HW277595   0.205  13.726  14.461
91900SOL     OW77596   0.876   9.529  13.654
91900SOL    HW177597   0.872   9.584  13.575
91900SOL    HW277598   0.968   9.507  13.664
91901SOL     OW77599  12.211   8.265  14.742
91901SOL    HW177600  12.197   8.360  14.751
91901SOL    HW277601  12.302   8.252  14.767
91902SOL     OW77602   6.875  11.863   6.167
91902SOL    HW177603   6.810  11.815   6.116
91902SOL    HW277604   6.826  11.935   6.207
91903SOL     OW77605   7.860   5.759  12.664
91903SOL    HW177606   7.831   5.763  12.573
91903SOL    HW277607   7.949   5.794  12.662
91904SOL     OW77608   9.577   6.045   3.122
91904SOL    HW177609   9.668   6.064   3.099
91904SOL    HW277610   9.577   6.040   3.217
91905SOL     OW77611   6.792  11.517   5.336
91905SOL    HW177612   6.770  11.558   5.252
91905SOL    HW277613   6.803  11.590   5.396
91906SOL     OW77614   6.455   8.141   6.404
91906SOL    HW177615   6.500   8.059   6.427
91906SOL    HW277616   6.375   8.113   6.361
91907SOL     OW77617   3.576   4.581   4.519
91907SOL    HW177618   3.625   4.562   4.598
91907SOL    HW277619   3.502   4.634   4.548
91908SOL     OW77620  11.069   2.977   9.862
91908SOL    HW177621  11.033   2.889   9.878
91908SOL    HW277622  11.120   2.996   9.940
91909SOL     OW77623  11.887   3.264   6.349
91909SOL    HW177624  11.972   3.245   6.389
91909SOL    HW277625  11.830   3.195   6.381
91910SOL     OW77626   2.871   2.513   3.722
91910SOL    HW177627   2.910   2.432   3.690
91910SOL    HW277628   2.799   2.529   3.661
91911SOL     OW77629   5.096   3.612   6.420
91911SOL    HW177630   5.113   3.701   6.453
91911SOL    HW277631   5.162   3.599   6.352
91912SOL     OW77632   4.066   8.747   5.301
91912SOL    HW177633   4.118   8.674   5.268
91912SOL    HW277634   4.089   8.752   5.394
91913SOL     OW77635   6.088   9.835  13.355
91913SOL    HW177636   6.156   9.777  13.389
91913SOL    HW277637   6.117   9.857  13.266
91914SOL     OW77638   8.579   6.256  13.481
91914SOL    HW177639   8.539   6.222  13.401
91914SOL    HW277640   8.646   6.191  13.504
91915SOL     OW77641  11.555  14.223  14.747
91915SOL    HW177642  11.622  14.184  14.690
91915SOL    HW277643  11.552  14.165  14.823
91916SOL     OW77644  11.234   4.731  13.730
91916SOL    HW177645  11.200   4.648  13.696
91916SOL    HW277646  11.223   4.724  13.825
91917SOL     OW77647   2.173   4.002  10.274
91917SOL    HW177648   2.220   4.039  10.348
91917SOL    HW277649   2.230   4.017  10.199
91918SOL     OW77650   4.787   2.246   1.344
91918SOL    HW177651   4.861   2.192   1.374
91918SOL    HW277652   4.744   2.273   1.425
91919SOL     OW77653  13.570   6.560  13.991
91919SOL    HW177654  13.646   6.609  13.959
91919SOL    HW277655  13.570   6.574  14.086
91920SOL     OW77656   9.403  14.476   2.544
91920SOL    HW177657   9.438  14.420   2.474
91920SOL    HW277658   9.468  14.546   2.553
91921SOL     OW77659  12.170   2.886   6.831
91921SOL    HW177660  12.114   2.808   6.828
91921SOL    HW277661  12.114   2.958   6.804
91922SOL     OW77662   7.418  13.636  11.528
91922SOL    HW177663   7.473  13.646  11.605
91922SOL    HW277664   7.328  13.639  11.562
91923SOL     OW77665   1.934   6.760   9.788
91923SOL    HW177666   2.015   6.805   9.813
91923SOL    HW277667   1.961   6.700   9.718
91924SOL     OW77668   1.168  14.170   4.806
91924SOL    HW177669   1.214  14.121   4.874
91924SOL    HW277670   1.096  14.113   4.779
91925SOL     OW77671  14.473  12.986   5.416
91925SOL    HW177672  14.409  13.029   5.473
91925SOL    HW277673  14.543  12.958   5.475
91926SOL     OW77674  11.025   3.223  13.402
91926SOL    HW177675  11.044   3.240  13.309
91926SOL    HW277676  11.109   3.235  13.446
91927SOL     OW77677  12.881  13.564  13.382
91927SOL    HW177678  12.889  13.502  13.454
91927SOL    HW277679  12.819  13.523  13.322
91928SOL     OW77680   0.368   9.631   6.398
91928SOL    HW177681   0.404   9.544   6.415
91928SOL    HW277682   0.441   9.679   6.358
91929SOL     OW77683  12.414   9.519   1.001
91929SOL    HW177684  12.503   9.484   1.000
91929SOL    HW277685  12.369   9.466   1.067
91930SOL     OW77686   0.451   3.545   1.306
91930SOL    HW177687   0.515   3.615   1.320
91930SOL    HW277688   0.467   3.483   1.377
91931SOL     OW77689   5.550  10.652   1.735
91931SOL    HW177690   5.524  10.568   1.696
91931SOL    HW277691   5.584  10.629   1.821
91932SOL     OW77692  14.607  13.396   7.360
91932SOL    HW177693  14.526  13.406   7.409
91932SOL    HW277694  14.590  13.438   7.275
91933SOL     OW77695  12.130   1.946   0.111
91933SOL    HW177696  12.045   1.981   0.084
91933SOL    HW277697  12.188   1.967   0.037
91934SOL     OW77698   5.838  12.443   5.998
91934SOL    HW177699   5.831  12.430   5.903
91934SOL    HW277700   5.932  12.449   6.015
91935SOL     OW77701  13.101   9.780   1.446
91935SOL    HW177702  13.092   9.741   1.359
91935SOL    HW277703  13.067   9.869   1.437
91936SOL     OW77704   9.374  13.908  14.304
91936SOL    HW177705   9.303  13.847  14.283
91936SOL    HW277706   9.404  13.881  14.390
91937SOL     OW77707   0.917   6.105  10.895
91937SOL    HW177708   0.975   6.179  10.915
91937SOL    HW277709   0.844   6.115  10.956
91938SOL     OW77710   4.294  13.578   4.911
91938SOL    HW177711   4.384  13.601   4.934
91938SOL    HW277712   4.246  13.661   4.916
91939SOL     OW77713  10.203   7.504   1.608
91939SOL    HW177714  10.153   7.426   1.632
91939SOL    HW277715  10.165   7.531   1.524
91940SOL     OW77716  13.450   3.111   0.950
91940SOL    HW177717  13.439   3.144   0.860
91940SOL    HW277718  13.442   3.016   0.942
91941SOL     OW77719   2.345   5.976   6.626
91941SOL    HW177720   2.425   5.925   6.637
91941SOL    HW277721   2.359   6.025   6.545
91942SOL     OW77722   7.153  12.362  11.402
91942SOL    HW177723   7.248  12.350  11.397
91942SOL    HW277724   7.141  12.455  11.424
91943SOL     OW77725   7.812   9.119   4.809
91943SOL    HW177726   7.833   9.031   4.839
91943SOL    HW277727   7.733   9.142   4.857
91944SOL     OW77728  14.842   6.299   7.810
91944SOL    HW177729   0.029   6.323   7.746
91944SOL    HW277730   0.002   6.230   7.862
91945SOL     OW77731   1.766   8.311  11.269
91945SOL    HW177732   1.724   8.377  11.325
91945SOL    HW277733   1.697   8.247  11.251
91946SOL     OW77734  11.766   8.846   7.274
91946SOL    HW177735  11.694   8.803   7.318
91946SOL    HW277736  11.839   8.841   7.335
91947SOL     OW77737   6.630   5.916   8.086
91947SOL    HW177738   6.646   5.864   8.008
91947SOL    HW277739   6.682   5.873   8.155
91948SOL     OW77740   0.445  13.491   0.697
91948SOL    HW177741   0.357  13.459   0.679
91948SOL    HW277742   0.446  13.581   0.665
91949SOL     OW77743   8.222   9.680   2.649
91949SOL    HW177744   8.181   9.599   2.620
91949SOL    HW277745   8.161   9.749   2.625
91950SOL     OW77746   4.851  10.946  11.099
91950SOL    HW177747   4.803  10.880  11.048
91950SOL    HW277748   4.814  10.939  11.187
91951SOL     OW77749  13.786   6.291  13.267
91951SOL    HW177750  13.842   6.266  13.340
91951SOL    HW277751  13.800   6.385  13.258
91952SOL     OW77752   9.729   5.612  12.482
91952SOL    HW177753   9.725   5.707  12.484
91952SOL    HW277754   9.792   5.592  12.413
91953SOL     OW77755   4.593   0.187   4.106
91953SOL    HW177756   4.581   0.101   4.146
91953SOL    HW277757   4.642   0.237   4.172
91954SOL     OW77758   3.854   6.122   0.483
91954SOL    HW177759   3.888   6.116   0.572
91954SOL    HW277760   3.809   6.207   0.480
91955SOL     OW77761   3.711   3.749  12.436
91955SOL    HW177762   3.661   3.720  12.360
91955SOL    HW277763   3.795   3.778  12.400
91956SOL     OW77764   6.754  14.586   3.281
91956SOL    HW177765   6.809  14.508   3.292
91956SOL    HW277766   6.813  14.659   3.299
91957SOL     OW77767  11.543  10.756  10.890
91957SOL    HW177768  11.550  10.730  10.798
91957SOL    HW277769  11.480  10.694  10.927
91958SOL     OW77770  10.104   8.504   7.528
91958SOL    HW177771  10.173   8.553   7.573
91958SOL    HW277772  10.061   8.568   7.472
91959SOL     OW77773   0.213   4.941   4.692
91959SOL    HW177774   0.142   4.878   4.677
91959SOL    HW277775   0.202   5.005   4.622
91960SOL     OW77776   6.515   6.431   6.443
91960SOL    HW177777   6.439   6.447   6.387
91960SOL    HW277778   6.480   6.386   6.519
91961SOL     OW77779   4.318  10.415  14.385
91961SOL    HW177780   4.371  10.460  14.451
91961SOL    HW277781   4.230  10.450  14.397
91962SOL     OW77782  11.609   2.120   3.486
91962SOL    HW177783  11.560   2.165   3.416
91962SOL    HW277784  11.598   2.176   3.562
91963SOL     OW77785  14.110   7.408   1.941
91963SOL    HW177786  14.091   7.501   1.953
91963SOL    HW277787  14.035   7.363   1.980
91964SOL     OW77788   0.220   6.908  11.387
91964SOL    HW177789   0.243   6.922  11.296
91964SOL    HW277790   0.208   6.996  11.424
91965SOL     OW77791   0.557  13.508   4.897
91965SOL    HW177792   0.597  13.424   4.873
91965SOL    HW277793   0.465  13.486   4.915
91966SOL     OW77794   2.377   4.575   7.250
91966SOL    HW177795   2.331   4.491   7.257
91966SOL    HW277796   2.347   4.625   7.325
91967SOL     OW77797   3.198   1.748   9.220
91967SOL    HW177798   3.240   1.825   9.257
91967SOL    HW277799   3.164   1.701   9.297
91968SOL     OW77800  11.441   4.333  11.074
91968SOL    HW177801  11.486   4.314  10.992
91968SOL    HW277802  11.505   4.312  11.142
91969SOL     OW77803   6.920   0.670   7.307
91969SOL    HW177804   6.845   0.684   7.366
91969SOL    HW277805   6.981   0.740   7.329
91970SOL     OW77806   4.654   6.609  14.474
91970SOL    HW177807   4.701   6.639  14.396
91970SOL    HW277808   4.565   6.591  14.442
91971SOL     OW77809   8.002  10.233   6.341
91971SOL    HW177810   8.098  10.227   6.342
91971SOL    HW277811   7.983  10.295   6.271
91972SOL     OW77812  11.016   6.861   5.299
91972SOL    HW177813  11.049   6.868   5.389
91972SOL    HW277814  11.072   6.920   5.249
91973SOL     OW77815   1.242  12.999  11.705
91973SOL    HW177816   1.185  12.959  11.771
91973SOL    HW277817   1.189  13.002  11.626
91974SOL     OW77818   7.520  11.311   4.529
91974SOL    HW177819   7.475  11.278   4.451
91974SOL    HW277820   7.519  11.237   4.590
91975SOL     OW77821  11.741   4.214   8.617
91975SOL    HW177822  11.662   4.167   8.644
91975SOL    HW277823  11.812   4.152   8.630
91976SOL     OW77824  13.256   4.081   0.382
91976SOL    HW177825  13.260   4.019   0.455
91976SOL    HW277826  13.240   4.026   0.306
91977SOL     OW77827  12.310   0.125   1.445
91977SOL    HW177828  12.283   0.033   1.433
91977SOL    HW277829  12.232   0.175   1.421
91978SOL     OW77830  10.021   7.965   1.354
91978SOL    HW177831   9.942   8.006   1.321
91978SOL    HW277832  10.060   7.922   1.278
91979SOL     OW77833   2.038   0.841   4.340
91979SOL    HW177834   2.029   0.749   4.364
91979SOL    HW277835   1.994   0.888   4.411
91980SOL     OW77836   3.800   8.027   7.772
91980SOL    HW177837   3.813   8.051   7.681
91980SOL    HW277838   3.728   8.083   7.801
91981SOL     OW77839   7.054  14.355   0.108
91981SOL    HW177840   7.063  14.324   0.199
91981SOL    HW277841   6.976  14.410   0.109
91982SOL     OW77842   8.743   4.898   8.982
91982SOL    HW177843   8.717   4.990   8.987
91982SOL    HW277844   8.772   4.877   9.071
91983SOL     OW77845   4.746   7.344   2.165
91983SOL    HW177846   4.817   7.364   2.105
91983SOL    HW277847   4.783   7.360   2.252
91984SOL     OW77848   6.341   5.020  13.385
91984SOL    HW177849   6.289   5.070  13.322
91984SOL    HW277850   6.430   5.023  13.351
91985SOL     OW77851   0.139   2.478  11.326
91985SOL    HW177852   0.103   2.488  11.238
91985SOL    HW277853   0.101   2.550  11.376
91986SOL     OW77854   5.352   5.152  10.454
91986SOL    HW177855   5.259   5.168  10.475
91986SOL    HW277856   5.352   5.129  10.361
91987SOL     OW77857   4.064   3.650   2.949
91987SOL    HW177858   3.973   3.624   2.965
91987SOL    HW277859   4.101   3.661   3.037
91988SOL     OW77860   0.261  14.811   1.698
91988SOL    HW177861   0.303  14.759   1.630
91988SOL    HW277862   0.206  14.749   1.746
91989SOL     OW77863   2.014  13.650   9.687
91989SOL    HW177864   2.044  13.584   9.750
91989SOL    HW277865   1.944  13.607   9.638
91990SOL     OW77866  10.672   2.277  13.571
91990SOL    HW177867  10.627   2.359  13.548
91990SOL    HW277868  10.711   2.296  13.657
91991SOL     OW77869  10.355  11.639  14.357
91991SOL    HW177870  10.370  11.569  14.421
91991SOL    HW277871  10.285  11.606  14.301
91992SOL     OW77872   7.822   8.323  10.085
91992SOL    HW177873   7.918   8.320  10.087
91992SOL    HW277874   7.801   8.362  10.000
91993SOL     OW77875   2.077   2.866  12.076
91993SOL    HW177876   2.045   2.778  12.096
91993SOL    HW277877   2.151   2.879  12.135
91994SOL     OW77878  14.787   1.852   4.070
91994SOL    HW177879  14.710   1.797   4.087
91994SOL    HW277880  14.751   1.938   4.051
91995SOL     OW77881   2.807  11.743   4.388
91995SOL    HW177882   2.826  11.665   4.336
91995SOL    HW277883   2.860  11.732   4.467
91996SOL     OW77884  11.362  13.366   7.168
91996SOL    HW177885  11.384  13.344   7.078
91996SOL    HW277886  11.277  13.324   7.183
91997SOL     OW77887   5.148   5.428   1.600
91997SOL    HW177888   5.134   5.337   1.574
91997SOL    HW277889   5.133   5.479   1.520
91998SOL     OW77890   2.845   3.154   4.206
91998SOL    HW177891   2.881   3.067   4.192
91998SOL    HW277892   2.845   3.194   4.119
91999SOL     OW77893   5.065   3.226   1.011
91999SOL    HW177894   5.036   3.159   1.073
91999SOL    HW277895   5.113   3.177   0.944
92000SOL     OW77896  13.258  11.774  10.219
92000SOL    HW177897  13.270  11.744  10.309
92000SOL    HW277898  13.324  11.726  10.169
92001SOL     OW77899   8.842   3.519   8.757
92001SOL    HW177900   8.849   3.485   8.668
92001SOL    HW277901   8.769   3.581   8.753
92002SOL     OW77902   6.487  11.607   1.898
92002SOL    HW177903   6.547  11.546   1.856
92002SOL    HW277904   6.429  11.636   1.827
92003SOL     OW77905   5.909   9.449   4.597
92003SOL    HW177906   5.986   9.442   4.654
92003SOL    HW277907   5.898   9.543   4.583
92004SOL     OW77908   6.472   5.079   0.100
92004SOL    HW177909   6.518   5.013   0.048
92004SOL    HW277910   6.492   5.162   0.057
92005SOL     OW77911   9.544   9.804   2.749
92005SOL    HW177912   9.595   9.770   2.823
92005SOL    HW277913   9.529   9.896   2.771
92006SOL     OW77914   1.900  12.132   5.927
92006SOL    HW177915   1.939  12.185   5.996
92006SOL    HW277916   1.898  12.191   5.851
92007SOL     OW77917   3.900   4.091   4.535
92007SOL    HW177918   3.914   4.182   4.509
92007SOL    HW277919   3.804   4.082   4.538
92008SOL     OW77920  10.739  13.115   8.791
92008SOL    HW177921  10.797  13.120   8.716
92008SOL    HW277922  10.789  13.066   8.857
92009SOL     OW77923   4.730   1.603   9.538
92009SOL    HW177924   4.685   1.657   9.603
92009SOL    HW277925   4.816   1.586   9.577
92010SOL     OW77926  11.041   0.189   3.961
92010SOL    HW177927  10.969   0.252   3.954
92010SOL    HW277928  11.108   0.223   3.902
92011SOL     OW77929  13.911  13.497   5.926
92011SOL    HW177930  13.992  13.546   5.943
92011SOL    HW277931  13.922  13.462   5.838
92012SOL     OW77932   6.446  12.769   8.891
92012SOL    HW177933   6.442  12.746   8.798
92012SOL    HW277934   6.419  12.861   8.893
92013SOL     OW77935   5.872  14.621   4.133
92013SOL    HW177936   5.941  14.591   4.192
92013SOL    HW277937   5.812  14.547   4.126
92014SOL     OW77938  13.342   7.713  12.884
92014SOL    HW177939  13.253   7.733  12.856
92014SOL    HW277940  13.393   7.791  12.859
92015SOL     OW77941   6.468   1.537  11.239
92015SOL    HW177942   6.506   1.611  11.191
92015SOL    HW277943   6.426   1.483  11.172
92016SOL     OW77944  12.955   3.041   3.362
92016SOL    HW177945  13.007   3.013   3.437
92016SOL    HW277946  12.870   3.066   3.399
92017SOL     OW77947   7.084   5.736   8.791
92017SOL    HW177948   7.086   5.694   8.877
92017SOL    HW277949   7.036   5.818   8.806
92018SOL     OW77950   1.536  12.759   0.559
92018SOL    HW177951   1.611  12.750   0.619
92018SOL    HW277952   1.544  12.847   0.524
92019SOL     OW77953   4.192  13.628   8.126
92019SOL    HW177954   4.205  13.533   8.127
92019SOL    HW277955   4.114  13.642   8.180
92020SOL     OW77956   8.451   1.020   7.320
92020SOL    HW177957   8.489   0.941   7.282
92020SOL    HW277958   8.468   1.012   7.414
92021SOL     OW77959   0.461   7.658  11.768
92021SOL    HW177960   0.420   7.583  11.725
92021SOL    HW277961   0.555   7.638  11.766
92022SOL     OW77962  10.754   3.529   6.538
92022SOL    HW177963  10.746   3.467   6.610
92022SOL    HW277964  10.845   3.520   6.508
92023SOL     OW77965  13.822   4.725   9.123
92023SOL    HW177966  13.879   4.766   9.188
92023SOL    HW277967  13.734   4.736   9.157
92024SOL     OW77968   4.072   8.710  12.983
92024SOL    HW177969   3.995   8.722  13.038
92024SOL    HW277970   4.047   8.642  12.921
92025SOL     OW77971   0.289   8.875   9.492
92025SOL    HW177972   0.261   8.959   9.527
92025SOL    HW277973   0.269   8.880   9.398
92026SOL     OW77974   8.852   0.844   1.057
92026SOL    HW177975   8.895   0.784   1.118
92026SOL    HW277976   8.874   0.931   1.090
92027SOL     OW77977   5.132   9.466  10.143
92027SOL    HW177978   5.076   9.518  10.199
92027SOL    HW277979   5.126   9.508  10.057
92028SOL     OW77980  10.616   8.640   9.161
92028SOL    HW177981  10.650   8.712   9.215
92028SOL    HW277982  10.597   8.570   9.223
92029SOL     OW77983   3.205   5.781   1.113
92029SOL    HW177984   3.255   5.710   1.073
92029SOL    HW277985   3.147   5.811   1.043
92030SOL     OW77986   5.100   5.657   4.988
92030SOL    HW177987   5.117   5.715   5.062
92030SOL    HW277988   5.117   5.569   5.021
92031SOL     OW77989   7.304   4.465  10.865
92031SOL    HW177990   7.300   4.555  10.830
92031SOL    HW277991   7.325   4.411  10.788
92032SOL     OW77992   1.664   1.653   6.258
92032SOL    HW177993   1.599   1.583   6.243
92032SOL    HW277994   1.620   1.714   6.317
92033SOL     OW77995   3.486  10.125   9.041
92033SOL    HW177996   3.443  10.132   8.956
92033SOL    HW277997   3.510  10.032   9.048
92034SOL     OW77998   9.034  14.435   9.389
92034SOL    HW177999   9.027  14.501   9.459
92034SOL    HW278000   8.993  14.476   9.313
92035SOL     OW78001   4.981  13.440   2.713
92035SOL    HW178002   4.994  13.346   2.722
92035SOL    HW278003   4.918  13.462   2.781
92036SOL     OW78004   5.788  13.529   4.478
92036SOL    HW178005   5.821  13.507   4.390
92036SOL    HW278006   5.840  13.474   4.537
92037SOL     OW78007   8.938   8.836   5.832
92037SOL    HW178008   8.848   8.869   5.837
92037SOL    HW278009   8.966   8.857   5.743
92038SOL     OW78010   2.867   5.423   7.107
92038SOL    HW178011   2.872   5.330   7.082
92038SOL    HW278012   2.956   5.455   7.098
92039SOL     OW78013  13.311   7.319   1.004
92039SOL    HW178014  13.335   7.306   0.913
92039SOL    HW278015  13.342   7.240   1.049
92040SOL     OW78016   6.530   7.603   8.008
92040SOL    HW178017   6.616   7.562   8.010
92040SOL    HW278018   6.480   7.552   7.945
92041SOL     OW78019   8.254   6.822  11.648
92041SOL    HW178020   8.175   6.770  11.629
92041SOL    HW278021   8.249   6.895  11.587
92042SOL     OW78022  10.021  11.654  10.162
92042SOL    HW178023  10.065  11.571  10.183
92042SOL    HW278024  10.051  11.675  10.074
92043SOL     OW78025  12.157  12.943   8.133
92043SOL    HW178026  12.102  13.005   8.181
92043SOL    HW278027  12.148  12.861   8.181
92044SOL     OW78028   9.312   8.130   8.535
92044SOL    HW178029   9.328   8.224   8.545
92044SOL    HW278030   9.293   8.119   8.442
92045SOL     OW78031  10.243   9.657   0.553
92045SOL    HW178032  10.167   9.672   0.608
92045SOL    HW278033  10.208   9.616   0.474
92046SOL     OW78034  14.463  12.483   9.933
92046SOL    HW178035  14.430  12.527   9.855
92046SOL    HW278036  14.542  12.533   9.956
92047SOL     OW78037  10.285   7.906   9.479
92047SOL    HW178038  10.366   7.911   9.428
92047SOL    HW278039  10.217   7.898   9.412
92048SOL     OW78040   2.543   9.728   2.299
92048SOL    HW178041   2.521   9.781   2.222
92048SOL    HW278042   2.488   9.650   2.290
92049SOL     OW78043  12.674  10.118   7.913
92049SOL    HW178044  12.588  10.087   7.944
92049SOL    HW278045  12.726  10.128   7.993
92050SOL     OW78046   7.605   2.477   8.228
92050SOL    HW178047   7.687   2.525   8.237
92050SOL    HW278048   7.578   2.456   8.318
92051SOL     OW78049   4.686  10.743  10.989
92051SOL    HW178050   4.654  10.730  10.899
92051SOL    HW278051   4.607  10.746  11.042
92052SOL     OW78052   5.838   8.540  10.584
92052SOL    HW178053   5.835   8.628  10.547
92052SOL    HW278054   5.858   8.553  10.677
92053SOL     OW78055   7.090   8.377   0.375
92053SOL    HW178056   7.022   8.310   0.383
92053SOL    HW278057   7.164   8.331   0.335
92054SOL     OW78058   3.056  10.127  10.038
92054SOL    HW178059   3.140  10.150  10.000
92054SOL    HW278060   2.996  10.195  10.006
92055SOL     OW78061   3.409  10.330   6.039
92055SOL    HW178062   3.409  10.244   5.999
92055SOL    HW278063   3.449  10.317   6.125
92056SOL     OW78064  13.072   6.756  12.561
92056SOL    HW178065  13.140   6.804  12.515
92056SOL    HW278066  13.033   6.698  12.495
92057SOL     OW78067   6.818  14.351   8.514
92057SOL    HW178068   6.805  14.284   8.581
92057SOL    HW278069   6.784  14.432   8.553
92058SOL     OW78070   9.869  10.008  13.610
92058SOL    HW178071   9.873   9.955  13.531
92058SOL    HW278072   9.961  10.016  13.638
92059SOL     OW78073   0.697  11.087  14.294
92059SOL    HW178074   0.790  11.106  14.302
92059SOL    HW278075   0.676  11.033  14.371
92060SOL     OW78076   1.529   6.600   3.473
92060SOL    HW178077   1.525   6.513   3.432
92060SOL    HW278078   1.567   6.585   3.559
92061SOL     OW78079   9.121  10.784  13.503
92061SOL    HW178080   9.141  10.735  13.423
92061SOL    HW278081   9.026  10.794  13.502
92062SOL     OW78082  12.736   4.047  11.191
92062SOL    HW178083  12.697   4.039  11.277
92062SOL    HW278084  12.701   4.130  11.156
92063SOL     OW78085  13.758   1.293   8.803
92063SOL    HW178086  13.821   1.363   8.822
92063SOL    HW278087  13.786   1.257   8.719
92064SOL     OW78088   0.870   1.796   6.624
92064SOL    HW178089   0.919   1.875   6.601
92064SOL    HW278090   0.931   1.744   6.675
92065SOL     OW78091  14.573   2.616   2.006
92065SOL    HW178092  14.504   2.604   2.071
92065SOL    HW278093  14.651   2.636   2.058
92066SOL     OW78094  14.870   6.862   9.342
92066SOL    HW178095  14.832   6.803   9.276
92066SOL    HW278096   0.064   6.813   9.377
92067SOL     OW78097   8.757   9.441  13.171
92067SOL    HW178098   8.702   9.449  13.249
92067SOL    HW278099   8.842   9.412  13.204
92068SOL     OW78100  14.845  13.273  13.179
92068SOL    HW178101  14.861  13.185  13.215
92068SOL    HW278102   0.044  13.293  13.130
92069SOL     OW78103   2.252   3.295  11.514
92069SOL    HW178104   2.321   3.354  11.544
92069SOL    HW278105   2.245   3.229  11.583
92070SOL     OW78106  14.835   9.682  10.550
92070SOL    HW178107  14.801   9.599  10.585
92070SOL    HW278108  14.765   9.716  10.495
92071SOL     OW78109  12.545   7.279  11.614
92071SOL    HW178110  12.535   7.208  11.551
92071SOL    HW278111  12.638   7.277  11.637
92072SOL     OW78112  10.066  12.079  10.461
92072SOL    HW178113  10.036  12.167  10.438
92072SOL    HW278114  10.119  12.052  10.387
92073SOL     OW78115   8.798   9.244   1.861
92073SOL    HW178116   8.760   9.157   1.874
92073SOL    HW278117   8.852   9.234   1.782
92074SOL     OW78118   8.725   2.346  12.360
92074SOL    HW178119   8.649   2.338  12.416
92074SOL    HW278120   8.761   2.257  12.355
92075SOL     OW78121   5.879   1.468   8.131
92075SOL    HW178122   5.846   1.382   8.107
92075SOL    HW278123   5.936   1.493   8.059
92076SOL     OW78124   0.630  14.770   4.321
92076SOL    HW178125   0.592  14.792   4.236
92076SOL    HW278126   0.557  14.779   4.383
92077SOL     OW78127   1.604   2.316  14.815
92077SOL    HW178128   1.671   2.253  14.786
92077SOL    HW278129   1.570   2.353  14.734
92078SOL     OW78130   8.024  14.517   1.868
92078SOL    HW178131   7.948  14.463   1.846
92078SOL    HW278132   8.051  14.486   1.955
92079SOL     OW78133   3.161   6.208   8.261
92079SOL    HW178134   3.208   6.241   8.184
92079SOL    HW278135   3.084   6.265   8.268
92080SOL     OW78136   6.508  11.192  11.089
92080SOL    HW178137   6.593  11.213  11.052
92080SOL    HW278138   6.498  11.251  11.163
92081SOL     OW78139   7.406   4.962   1.978
92081SOL    HW178140   7.438   4.897   2.040
92081SOL    HW278141   7.399   5.043   2.029
92082SOL     OW78142   5.808   9.592   5.047
92082SOL    HW178143   5.885   9.554   5.089
92082SOL    HW278144   5.750   9.616   5.120
92083SOL     OW78145   5.061  13.653   8.738
92083SOL    HW178146   5.052  13.676   8.646
92083SOL    HW278147   5.148  13.684   8.763
92084SOL     OW78148   0.829   0.025   3.077
92084SOL    HW178149   0.797   0.113   3.097
92084SOL    HW278150   0.924   0.030   3.086
92085SOL     OW78151   5.328  13.236   0.840
92085SOL    HW178152   5.398  13.240   0.774
92085SOL    HW278153   5.307  13.143   0.846
92086SOL     OW78154   0.454  12.528  14.643
92086SOL    HW178155   0.423  12.483  14.720
92086SOL    HW278156   0.524  12.472  14.609
92087SOL     OW78157   5.033   6.090  14.361
92087SOL    HW178158   5.115   6.064  14.320
92087SOL    HW278159   4.965   6.063  14.299
92088SOL     OW78160  10.164   3.066   7.834
92088SOL    HW178161  10.218   2.992   7.807
92088SOL    HW278162  10.188   3.137   7.774
92089SOL     OW78163   3.134   3.709  13.241
92089SOL    HW178164   3.113   3.679  13.153
92089SOL    HW278165   3.119   3.632  13.296
92090SOL     OW78166   8.468   2.685   3.587
92090SOL    HW178167   8.522   2.691   3.508
92090SOL    HW278168   8.508   2.615   3.638
92091SOL     OW78169   2.566  13.625   3.310
92091SOL    HW178170   2.619  13.546   3.301
92091SOL    HW278171   2.616  13.681   3.369
92092SOL     OW78172  13.158   5.163   4.938
92092SOL    HW178173  13.225   5.100   4.965
92092SOL    HW278174  13.112   5.119   4.866
92093SOL     OW78175   9.872  13.656  10.299
92093SOL    HW178176   9.929  13.582  10.276
92093SOL    HW278177   9.851  13.643  10.391
92094SOL     OW78178   5.490   8.286  11.663
92094SOL    HW178179   5.409   8.303  11.615
92094SOL    HW278180   5.551   8.252  11.597
92095SOL     OW78181   2.235   5.734   4.784
92095SOL    HW178182   2.298   5.803   4.767
92095SOL    HW278183   2.239   5.719   4.878
92096SOL     OW78184   1.500   1.074   2.706
92096SOL    HW178185   1.476   0.984   2.683
92096SOL    HW278186   1.433   1.128   2.663
92097SOL     OW78187  14.730   0.912   2.940
92097SOL    HW178188  14.659   0.920   2.876
92097SOL    HW278189  14.686   0.913   3.025
92098SOL     OW78190   2.777  10.588  13.591
92098SOL    HW178191   2.714  10.518  13.608
92098SOL    HW278192   2.724  10.668  13.597
92099SOL     OW78193   4.754   4.464  12.416
92099SOL    HW178194   4.728   4.509  12.496
92099SOL    HW278195   4.676   4.413  12.391
92100SOL     OW78196   7.165   5.162  11.881
92100SOL    HW178197   7.187   5.237  11.936
92100SOL    HW278198   7.141   5.093  11.944
92101SOL     OW78199  12.469   5.020   2.148
92101SOL    HW178200  12.467   5.009   2.243
92101SOL    HW278201  12.541   5.080   2.132
92102SOL     OW78202   1.405   1.915  10.450
92102SOL    HW178203   1.311   1.910  10.434
92102SOL    HW278204   1.417   1.871  10.535
92103SOL     OW78205  11.544   4.774  13.854
92103SOL    HW178206  11.613   4.722  13.895
92103SOL    HW278207  11.506   4.825  13.926
92104SOL     OW78208   6.461   3.154   1.188
92104SOL    HW178209   6.557   3.143   1.191
92104SOL    HW278210   6.434   3.150   1.280
92105SOL     OW78211   7.715   4.617   6.231
92105SOL    HW178212   7.624   4.621   6.263
92105SOL    HW278213   7.706   4.607   6.136
92106SOL     OW78214  10.750   1.414   3.087
92106SOL    HW178215  10.799   1.466   3.023
92106SOL    HW278216  10.686   1.366   3.034
92107SOL     OW78217  11.742  14.592   3.084
92107SOL    HW178218  11.679  14.531   3.044
92107SOL    HW278219  11.709  14.679   3.063
92108SOL     OW78220   2.794   1.996   2.458
92108SOL    HW178221   2.811   2.088   2.478
92108SOL    HW278222   2.780   1.956   2.544
92109SOL     OW78223  13.436   0.036   3.110
92109SOL    HW178224  13.527   0.013   3.095
92109SOL    HW278225  13.416   0.101   3.043
92110SOL     OW78226   7.859  12.966   8.584
92110SOL    HW178227   7.904  12.950   8.667
92110SOL    HW278228   7.892  13.052   8.556
92111SOL     OW78229  10.945  11.621   1.735
92111SOL    HW178230  10.944  11.526   1.743
92111SOL    HW278231  11.033  11.642   1.705
92112SOL     OW78232  11.926  13.960   0.729
92112SOL    HW178233  11.924  14.045   0.686
92112SOL    HW278234  11.891  13.976   0.817
92113SOL     OW78235  11.152   5.192   0.049
92113SOL    HW178236  11.079   5.138   0.017
92113SOL    HW278237  11.231   5.146   0.019
92114SOL     OW78238   5.114   8.019   3.376
92114SOL    HW178239   5.182   8.077   3.412
92114SOL    HW278240   5.100   8.052   3.287
92115SOL     OW78241   5.236   5.763  11.237
92115SOL    HW178242   5.214   5.760  11.144
92115SOL    HW278243   5.324   5.801  11.239
92116SOL     OW78244  12.502  13.083   7.776
92116SOL    HW178245  12.544  13.147   7.834
92116SOL    HW278246  12.496  13.128   7.692
92117SOL     OW78247   4.060  10.311  12.184
92117SOL    HW178248   4.075  10.228  12.229
92117SOL    HW278249   4.073  10.291  12.091
92118SOL     OW78250  14.786   6.274  14.090
92118SOL    HW178251  14.824   6.356  14.060
92118SOL    HW278252  14.713   6.258  14.030
92119SOL     OW78253   6.679  14.444   5.612
92119SOL    HW178254   6.599  14.409   5.572
92119SOL    HW278255   6.717  14.370   5.658
92120SOL     OW78256   7.555  12.331  10.023
92120SOL    HW178257   7.465  12.353   9.997
92120SOL    HW278258   7.608  12.403   9.990
92121SOL     OW78259   0.035   2.861   4.682
92121SOL    HW178260   0.111   2.823   4.638
92121SOL    HW278261   0.002   2.927   4.620
92122SOL     OW78262   4.874  14.870  11.291
92122SOL    HW178263   4.784   0.012  11.316
92122SOL    HW278264   4.913  14.835  11.371
92123SOL     OW78265   6.960   9.117   2.221
92123SOL    HW178266   6.990   9.114   2.131
92123SOL    HW278267   6.924   9.030   2.238
92124SOL     OW78268   1.706   6.676   0.163
92124SOL    HW178269   1.801   6.684   0.151
92124SOL    HW278270   1.693   6.590   0.203
92125SOL     OW78271  13.217  11.912  14.831
92125SOL    HW178272  13.294  11.855  14.836
92125SOL    HW278273  13.175  11.889  14.747
92126SOL     OW78274   9.505  14.865   4.610
92126SOL    HW178275   9.522   0.048   4.541
92126SOL    HW278276   9.551  14.785   4.582
92127SOL     OW78277  11.290   5.946   9.830
92127SOL    HW178278  11.364   5.990   9.871
92127SOL    HW278279  11.236   5.916   9.903
92128SOL     OW78280  11.695  14.294   6.135
92128SOL    HW178281  11.702  14.384   6.105
92128SOL    HW278282  11.770  14.250   6.095
92129SOL     OW78283   7.025  10.133   1.482
92129SOL    HW178284   7.077  10.195   1.533
92129SOL    HW278285   6.993  10.184   1.407
92130SOL     OW78286  11.599   4.475   8.375
92130SOL    HW178287  11.665   4.415   8.339
92130SOL    HW278288  11.540   4.494   8.302
92131SOL     OW78289   6.127   0.824   1.001
92131SOL    HW178290   6.107   0.914   0.975
92131SOL    HW278291   6.209   0.804   0.957
92132SOL     OW78292  13.246   8.571  14.202
92132SOL    HW178293  13.206   8.511  14.139
92132SOL    HW278294  13.255   8.519  14.282
92133SOL     OW78295   3.051   0.315  11.617
92133SOL    HW178296   3.059   0.221  11.629
92133SOL    HW278297   3.130   0.352  11.658
92134SOL     OW78298   8.622   5.126  12.297
92134SOL    HW178299   8.632   5.037  12.331
92134SOL    HW278300   8.579   5.115  12.212
92135SOL     OW78301  14.076   9.458   9.888
92135SOL    HW178302  14.131   9.526   9.851
92135SOL    HW278303  13.987   9.494   9.884
92136SOL     OW78304  13.222  10.037   0.286
92136SOL    HW178305  13.311  10.072   0.294
92136SOL    HW278306  13.234   9.942   0.282
92137SOL     OW78307  14.051   8.501   7.172
92137SOL    HW178308  14.073   8.592   7.153
92137SOL    HW278309  13.962   8.490   7.141
92138SOL     OW78310   3.172  10.819  12.039
92138SOL    HW178311   3.080  10.842  12.050
92138SOL    HW278312   3.186  10.746  12.100
92139SOL     OW78313   9.181   0.023  13.826
92139SOL    HW178314   9.111   0.087  13.816
92139SOL    HW278315   9.209   0.004  13.737
92140SOL     OW78316   6.707  10.241   2.410
92140SOL    HW178317   6.753  10.288   2.480
92140SOL    HW278318   6.674  10.310   2.353
92141SOL     OW78319   5.135  14.492   5.084
92141SOL    HW178320   5.201  14.428   5.111
92141SOL    HW278321   5.080  14.445   5.021
92142SOL     OW78322  12.288   3.242   5.182
92142SOL    HW178323  12.274   3.267   5.091
92142SOL    HW278324  12.216   3.182   5.202
92143SOL     OW78325   1.758   7.114  12.905
92143SOL    HW178326   1.852   7.129  12.912
92143SOL    HW278327   1.744   7.086  12.815
92144SOL     OW78328  14.589   0.886   0.907
92144SOL    HW178329  14.615   0.955   0.846
92144SOL    HW278330  14.619   0.805   0.866
92145SOL     OW78331  10.236  12.419  10.105
92145SOL    HW178332  10.216  12.508  10.133
92145SOL    HW278333  10.246  12.425  10.010
92146SOL     OW78334   9.308  11.187   5.812
92146SOL    HW178335   9.273  11.275   5.799
92146SOL    HW278336   9.235  11.128   5.790
92147SOL     OW78337   5.443   4.911   4.844
92147SOL    HW178338   5.397   4.934   4.925
92147SOL    HW278339   5.431   4.988   4.788
92148SOL     OW78340  12.024   5.980   5.168
92148SOL    HW178341  12.115   6.008   5.174
92148SOL    HW278342  11.974   6.061   5.165
92149SOL     OW78343   0.687   0.533   0.113
92149SOL    HW178344   0.692   0.438   0.103
92149SOL    HW278345   0.710   0.550   0.204
92150SOL     OW78346  11.444  12.651  14.403
92150SOL    HW178347  11.420  12.733  14.445
92150SOL    HW278348  11.492  12.677  14.325
92151SOL     OW78349  13.148   1.183   1.328
92151SOL    HW178350  13.097   1.112   1.289
92151SOL    HW278351  13.221   1.197   1.267
92152SOL     OW78352   8.527   1.679   2.364
92152SOL    HW178353   8.465   1.714   2.301
92152SOL    HW278354   8.521   1.584   2.354
92153SOL     OW78355   8.352   5.228   6.262
92153SOL    HW178356   8.287   5.289   6.298
92153SOL    HW278357   8.330   5.222   6.169
92154SOL     OW78358   3.913  14.360   2.236
92154SOL    HW178359   3.999  14.371   2.194
92154SOL    HW278360   3.911  14.269   2.263
92155SOL     OW78361   3.123   2.097   9.593
92155SOL    HW178362   3.186   2.099   9.666
92155SOL    HW278363   3.154   2.165   9.533
92156SOL     OW78364  10.341   7.490  12.928
92156SOL    HW178365  10.276   7.465  12.993
92156SOL    HW278366  10.291   7.501  12.847
92157SOL     OW78367   2.317  11.960  14.758
92157SOL    HW178368   2.344  11.918  14.840
92157SOL    HW278369   2.399  11.986  14.716
92158SOL     OW78370   1.041   5.216   5.499
92158SOL    HW178371   1.058   5.290   5.557
92158SOL    HW278372   0.997   5.151   5.555
92159SOL     OW78373   0.768   7.467   7.716
92159SOL    HW178374   0.699   7.462   7.783
92159SOL    HW278375   0.753   7.389   7.661
92160SOL     OW78376   0.398   6.052  11.785
92160SOL    HW178377   0.338   5.990  11.826
92160SOL    HW278378   0.485   6.016  11.803
92161SOL     OW78379  13.507   9.860   8.632
92161SOL    HW178380  13.509   9.783   8.576
92161SOL    HW278381  13.582   9.848   8.691
92162SOL     OW78382  13.282  11.062   9.920
92162SOL    HW178383  13.243  11.043   9.835
92162SOL    HW278384  13.245  10.996   9.978
92163SOL     OW78385  10.057  10.378  12.998
92163SOL    HW178386  10.086  10.397  13.087
92163SOL    HW278387   9.965  10.354  13.007
92164SOL     OW78388   9.990  13.719  13.946
92164SOL    HW178389  10.073  13.743  13.988
92164SOL    HW278390   9.940  13.801  13.944
92165SOL     OW78391  13.738  13.966  12.309
92165SOL    HW178392  13.716  13.946  12.400
92165SOL    HW278393  13.658  13.944  12.261
92166SOL     OW78394  13.706  10.264   2.163
92166SOL    HW178395  13.760  10.209   2.106
92166SOL    HW278396  13.621  10.269   2.118
92167SOL     OW78397   7.996   9.394   6.693
92167SOL    HW178398   8.007   9.304   6.662
92167SOL    HW278399   7.961   9.385   6.781
92168SOL     OW78400   6.081   4.767   5.653
92168SOL    HW178401   6.057   4.692   5.708
92168SOL    HW278402   6.013   4.832   5.672
92169SOL     OW78403  10.334   3.119   2.744
92169SOL    HW178404  10.387   3.094   2.668
92169SOL    HW278405  10.268   3.179   2.709
92170SOL     OW78406   5.173  13.608  11.334
92170SOL    HW178407   5.267  13.619  11.315
92170SOL    HW278408   5.157  13.668  11.406
92171SOL     OW78409   1.539  13.056   0.621
92171SOL    HW178410   1.494  13.029   0.701
92171SOL    HW278411   1.515  13.148   0.609
92172SOL     OW78412  14.509   9.896   0.285
92172SOL    HW178413  14.433   9.839   0.278
92172SOL    HW278414  14.519   9.912   0.379
92173SOL     OW78415  12.812  11.875   3.594
92173SOL    HW178416  12.875  11.917   3.535
92173SOL    HW278417  12.735  11.859   3.540
92174SOL     OW78418  12.882  11.476   2.709
92174SOL    HW178419  12.851  11.390   2.740
92174SOL    HW278420  12.957  11.456   2.654
92175SOL     OW78421   0.099   5.503   3.466
92175SOL    HW178422   0.042   5.428   3.481
92175SOL    HW278423   0.164   5.472   3.403
92176SOL     OW78424   1.145   0.993   4.743
92176SOL    HW178425   1.170   0.969   4.654
92176SOL    HW278426   1.061   0.949   4.758
92177SOL     OW78427   0.950   8.694   3.861
92177SOL    HW178428   1.022   8.696   3.798
92177SOL    HW278429   0.987   8.731   3.941
92178SOL     OW78430   1.284   3.641   3.829
92178SOL    HW178431   1.375   3.621   3.852
92178SOL    HW278432   1.291   3.713   3.767
92179SOL     OW78433   0.130   7.350   9.846
92179SOL    HW178434   0.175   7.321   9.926
92179SOL    HW278435   0.093   7.435   9.869
92180SOL     OW78436   0.347   7.527   8.838
92180SOL    HW178437   0.341   7.489   8.926
92180SOL    HW278438   0.418   7.480   8.796
92181SOL     OW78439   7.338   0.234  13.325
92181SOL    HW178440   7.245   0.214  13.328
92181SOL    HW278441   7.381   0.150  13.338
92182SOL     OW78442   0.813   4.492  12.974
92182SOL    HW178443   0.759   4.424  12.933
92182SOL    HW278444   0.869   4.524  12.903
92183SOL     OW78445   4.303  12.645  14.636
92183SOL    HW178446   4.351  12.681  14.561
92183SOL    HW278447   4.290  12.553  14.615
92184SOL     OW78448   5.539   6.428   0.699
92184SOL    HW178449   5.446   6.452   0.693
92184SOL    HW278450   5.585   6.504   0.663
92185SOL     OW78451  13.765  11.453  14.303
92185SOL    HW178452  13.851  11.413  14.291
92185SOL    HW278453  13.755  11.511  14.228
92186SOL     OW78454   3.998  12.734   3.636
92186SOL    HW178455   3.976  12.657   3.690
92186SOL    HW278456   3.990  12.808   3.696
92187SOL     OW78457   8.769   7.737   4.510
92187SOL    HW178458   8.777   7.832   4.519
92187SOL    HW278459   8.693   7.714   4.565
92188SOL     OW78460  12.958   0.979  13.036
92188SOL    HW178461  13.024   0.985  12.967
92188SOL    HW278462  12.968   0.891  13.072
92189SOL     OW78463  12.566  11.854  12.257
92189SOL    HW178464  12.575  11.905  12.177
92189SOL    HW278465  12.474  11.828  12.258
92190SOL     OW78466  10.842   6.763   6.413
92190SOL    HW178467  10.853   6.850   6.373
92190SOL    HW278468  10.932   6.731   6.423
92191SOL     OW78469   6.874  13.702  13.072
92191SOL    HW178470   6.793  13.753  13.076
92191SOL    HW278471   6.892  13.693  12.979
92192SOL     OW78472  11.197  10.196   5.139
92192SOL    HW178473  11.261  10.197   5.067
92192SOL    HW278474  11.242  10.150   5.209
92193SOL     OW78475   7.762  13.322   1.245
92193SOL    HW178476   7.834  13.309   1.183
92193SOL    HW278477   7.805  13.329   1.330
92194SOL     OW78478   4.205   4.104  14.580
92194SOL    HW178479   4.115   4.104  14.614
92194SOL    HW278480   4.227   4.197  14.571
92195SOL     OW78481   3.998  10.696   1.387
92195SOL    HW178482   4.041  10.737   1.462
92195SOL    HW278483   3.947  10.767   1.347
92196SOL     OW78484  12.017   5.180   2.233
92196SOL    HW178485  12.080   5.148   2.298
92196SOL    HW278486  11.959   5.105   2.217
92197SOL     OW78487   2.942   9.558   2.992
92197SOL    HW178488   2.904   9.632   2.944
92197SOL    HW278489   3.024   9.593   3.028
92198SOL     OW78490   7.122   7.029   7.298
92198SOL    HW178491   7.055   6.965   7.325
92198SOL    HW278492   7.141   7.006   7.207
92199SOL     OW78493   8.205  13.343   1.671
92199SOL    HW178494   8.283  13.323   1.618
92199SOL    HW278495   8.223  13.303   1.756
92200SOL     OW78496   4.917   4.855  11.264
92200SOL    HW178497   4.909   4.947  11.237
92200SOL    HW278498   4.911   4.858  11.360
92201SOL     OW78499  14.612   9.226   5.871
92201SOL    HW178500  14.539   9.278   5.904
92201SOL    HW278501  14.611   9.241   5.776
92202SOL     OW78502   7.450   2.952   4.370
92202SOL    HW178503   7.414   2.869   4.339
92202SOL    HW278504   7.405   3.019   4.318
92203SOL     OW78505   3.556   6.768   5.187
92203SOL    HW178506   3.581   6.804   5.102
92203SOL    HW278507   3.624   6.800   5.247
92204SOL     OW78508   0.043  10.132   4.320
92204SOL    HW178509   0.125  10.161   4.362
92204SOL    HW278510   0.028  10.045   4.356
92205SOL     OW78511   9.149  10.953   0.250
92205SOL    HW178512   9.203  10.875   0.266
92205SOL    HW278513   9.066  10.918   0.219
92206SOL     OW78514  12.089   5.689   2.734
92206SOL    HW178515  12.115   5.601   2.762
92206SOL    HW278516  12.035   5.722   2.806
92207SOL     OW78517   0.644   0.354   3.498
92207SOL    HW178518   0.684   0.339   3.412
92207SOL    HW278519   0.718   0.367   3.556
92208SOL     OW78520  10.481   9.683  13.607
92208SOL    HW178521  10.556   9.644  13.564
92208SOL    HW278522  10.488   9.655  13.699
92209SOL     OW78523  11.689   3.742   2.839
92209SOL    HW178524  11.754   3.769   2.903
92209SOL    HW278525  11.739   3.706   2.766
92210SOL     OW78526  10.163   2.977   4.507
92210SOL    HW178527  10.092   2.993   4.568
92210SOL    HW278528  10.122   2.934   4.431
92211SOL     OW78529  14.084   1.234  12.801
92211SOL    HW178530  13.995   1.269  12.809
92211SOL    HW278531  14.096   1.220  12.708
92212SOL     OW78532  10.771   7.095   6.622
92212SOL    HW178533  10.747   7.153   6.695
92212SOL    HW278534  10.857   7.126   6.594
92213SOL     OW78535   9.786  10.507   8.806
92213SOL    HW178536   9.743  10.462   8.879
92213SOL    HW278537   9.879  10.508   8.830
92214SOL     OW78538   9.062   8.854   2.584
92214SOL    HW178539   8.971   8.884   2.578
92214SOL    HW278540   9.114   8.934   2.581
92215SOL     OW78541  13.266   3.283   9.959
92215SOL    HW178542  13.221   3.280   9.875
92215SOL    HW278543  13.246   3.370   9.993
92216SOL     OW78544   9.309   0.185   6.252
92216SOL    HW178545   9.232   0.200   6.198
92216SOL    HW278546   9.275   0.146   6.333
92217SOL     OW78547   5.939   4.001  11.435
92217SOL    HW178548   5.944   4.007  11.530
92217SOL    HW278549   5.977   4.083  11.404
92218SOL     OW78550   6.189   4.895  10.733
92218SOL    HW178551   6.188   4.991  10.737
92218SOL    HW278552   6.204   4.875  10.640
92219SOL     OW78553   8.072   0.417   7.595
92219SOL    HW178554   7.983   0.433   7.563
92219SOL    HW278555   8.120   0.495   7.571
92220SOL     OW78556   5.662  10.600   4.879
92220SOL    HW178557   5.586  10.552   4.845
92220SOL    HW278558   5.735  10.540   4.869
92221SOL     OW78559   6.890   5.772   1.255
92221SOL    HW178560   6.828   5.795   1.325
92221SOL    HW278561   6.975   5.799   1.289
92222SOL     OW78562  11.466   7.734   1.762
92222SOL    HW178563  11.373   7.741   1.741
92222SOL    HW278564  11.497   7.825   1.768
92223SOL     OW78565   8.119   4.094   3.881
92223SOL    HW178566   8.092   4.028   3.817
92223SOL    HW278567   8.049   4.159   3.880
92224SOL     OW78568   3.671   5.300  13.040
92224SOL    HW178569   3.578   5.322  13.050
92224SOL    HW278570   3.674   5.241  12.965
92225SOL     OW78571  14.589   8.117  11.662
92225SOL    HW178572  14.676   8.109  11.624
92225SOL    HW278573  14.535   8.056  11.612
92226SOL     OW78574   2.977   8.138   6.470
92226SOL    HW178575   3.008   8.229   6.461
92226SOL    HW278576   3.052   8.091   6.507
92227SOL     OW78577   8.900   8.101   8.116
92227SOL    HW178578   8.891   8.006   8.130
92227SOL    HW278579   8.863   8.115   8.029
92228SOL     OW78580   7.233   4.630  12.653
92228SOL    HW178581   7.220   4.590  12.739
92228SOL    HW278582   7.234   4.724  12.671
92229SOL     OW78583  10.457   8.389   8.282
92229SOL    HW178584  10.413   8.305   8.298
92229SOL    HW278585  10.544   8.365   8.251
92230SOL     OW78586  11.779  12.796   6.299
92230SOL    HW178587  11.772  12.891   6.285
92230SOL    HW278588  11.824  12.788   6.384
92231SOL     OW78589  12.677   9.530   8.241
92231SOL    HW178590  12.762   9.567   8.218
92231SOL    HW278591  12.673   9.536   8.336
92232SOL     OW78592   8.118   2.139   9.363
92232SOL    HW178593   8.134   2.059   9.313
92232SOL    HW278594   8.023   2.142   9.375
92233SOL     OW78595   3.879   4.264   1.909
92233SOL    HW178596   3.971   4.242   1.899
92233SOL    HW278597   3.872   4.302   1.997
92234SOL     OW78598   4.735   6.357  12.818
92234SOL    HW178599   4.783   6.431  12.781
92234SOL    HW278600   4.657   6.395  12.857
92235SOL     OW78601   1.808  10.975   3.395
92235SOL    HW178602   1.865  10.902   3.370
92235SOL    HW278603   1.867  11.051   3.394
92236SOL     OW78604   2.224   3.003   0.935
92236SOL    HW178605   2.183   2.999   1.022
92236SOL    HW278606   2.300   2.946   0.942
92237SOL     OW78607   9.471   2.537  14.151
92237SOL    HW178608   9.548   2.550  14.206
92237SOL    HW278609   9.506   2.502  14.069
92238SOL     OW78610   5.338   7.623  10.048
92238SOL    HW178611   5.348   7.658   9.959
92238SOL    HW278612   5.314   7.698  10.101
92239SOL     OW78613   4.765   7.370   9.266
92239SOL    HW178614   4.701   7.301   9.249
92239SOL    HW278615   4.835   7.354   9.202
92240SOL     OW78616   3.990   7.072   6.336
92240SOL    HW178617   4.034   7.058   6.420
92240SOL    HW278618   3.913   7.125   6.357
92241SOL     OW78619   8.810   5.465   3.210
92241SOL    HW178620   8.744   5.396   3.205
92241SOL    HW278621   8.877   5.430   3.269
92242SOL     OW78622  14.645   9.019   4.709
92242SOL    HW178623  14.683   8.987   4.627
92242SOL    HW278624  14.577   8.955   4.731
92243SOL     OW78625   4.748  11.320  10.576
92243SOL    HW178626   4.748  11.225  10.591
92243SOL    HW278627   4.775  11.329  10.485
92244SOL     OW78628  13.532   2.986  13.340
92244SOL    HW178629  13.622   3.014  13.323
92244SOL    HW278630  13.528   2.976  13.435
92245SOL     OW78631   9.552   0.839  12.915
92245SOL    HW178632   9.464   0.804  12.925
92245SOL    HW278633   9.590   0.833  13.003
92246SOL     OW78634   4.077   7.088  12.502
92246SOL    HW178635   4.164   7.093  12.462
92246SOL    HW278636   4.025   7.153  12.454
92247SOL     OW78637   8.561  11.502  10.744
92247SOL    HW178638   8.619  11.556  10.689
92247SOL    HW278639   8.585  11.525  10.833
92248SOL     OW78640  14.100   8.667   0.271
92248SOL    HW178641  14.097   8.588   0.217
92248SOL    HW278642  14.062   8.735   0.215
92249SOL     OW78643  12.984  14.127   2.781
92249SOL    HW178644  12.950  14.195   2.839
92249SOL    HW278645  13.036  14.070   2.839
92250SOL     OW78646   9.436  10.448   3.492
92250SOL    HW178647   9.463  10.359   3.467
92250SOL    HW278648   9.518  10.489   3.521
92251SOL     OW78649   9.670   0.798   7.461
92251SOL    HW178650   9.593   0.741   7.453
92251SOL    HW278651   9.743   0.738   7.477
92252SOL     OW78652   3.322  10.857   5.499
92252SOL    HW178653   3.327  10.765   5.474
92252SOL    HW278654   3.261  10.859   5.572
92253SOL     OW78655   1.788   5.293   2.587
92253SOL    HW178656   1.835   5.332   2.660
92253SOL    HW278657   1.706   5.343   2.581
92254SOL     OW78658  12.156  12.048   6.535
92254SOL    HW178659  12.143  12.066   6.628
92254SOL    HW278660  12.197  12.128   6.501
92255SOL     OW78661   4.869  12.654   9.326
92255SOL    HW178662   4.934  12.655   9.257
92255SOL    HW278663   4.901  12.718   9.390
92256SOL     OW78664  11.938   4.331   7.261
92256SOL    HW178665  11.963   4.286   7.342
92256SOL    HW278666  11.842   4.335   7.265
92257SOL     OW78667   3.223   5.639  13.296
92257SOL    HW178668   3.273   5.658  13.217
92257SOL    HW278669   3.288   5.606  13.358
92258SOL     OW78670   8.911   7.072  13.035
92258SOL    HW178671   8.976   7.069  12.964
92258SOL    HW278672   8.855   7.146  13.012
92259SOL     OW78673   2.283   1.461   1.233
92259SOL    HW178674   2.204   1.450   1.180
92259SOL    HW278675   2.305   1.554   1.225
92260SOL     OW78676   6.923  12.003   1.326
92260SOL    HW178677   6.829  12.006   1.311
92260SOL    HW278678   6.946  11.910   1.319
92261SOL     OW78679   7.219   5.353   0.581
92261SOL    HW178680   7.287   5.420   0.587
92261SOL    HW278681   7.267   5.271   0.573
92262SOL     OW78682   9.235   5.747   7.401
92262SOL    HW178683   9.179   5.759   7.478
92262SOL    HW278684   9.301   5.683   7.428
92263SOL     OW78685  11.244   6.632   4.593
92263SOL    HW178686  11.150   6.634   4.576
92263SOL    HW278687  11.283   6.654   4.508
92264SOL     OW78688  10.516   9.380  10.696
92264SOL    HW178689  10.597   9.430  10.705
92264SOL    HW278690  10.539   9.292  10.727
92265SOL     OW78691   0.786   1.781   4.167
92265SOL    HW178692   0.742   1.865   4.154
92265SOL    HW278693   0.847   1.796   4.240
92266SOL     OW78694   5.782   8.689   8.673
92266SOL    HW178695   5.806   8.668   8.764
92266SOL    HW278696   5.719   8.621   8.649
92267SOL     OW78697   3.540   5.713   0.625
92267SOL    HW178698   3.613   5.713   0.688
92267SOL    HW278699   3.537   5.803   0.593
92268SOL     OW78700  10.923   9.692   0.591
92268SOL    HW178701  11.003   9.658   0.633
92268SOL    HW278702  10.853   9.638   0.627
92269SOL     OW78703  10.765  13.916  12.911
92269SOL    HW178704  10.716  13.880  12.837
92269SOL    HW278705  10.740  13.861  12.985
92270SOL     OW78706  14.009   0.265   0.651
92270SOL    HW178707  14.026   0.249   0.558
92270SOL    HW278708  13.949   0.340   0.651
92271SOL     OW78709   5.581   2.203   0.959
92271SOL    HW178710   5.668   2.241   0.974
92271SOL    HW278711   5.520   2.269   0.992
92272SOL     OW78712  14.352  12.317   2.319
92272SOL    HW178713  14.332  12.246   2.380
92272SOL    HW278714  14.432  12.357   2.354
92273SOL     OW78715   9.374  11.270   8.272
92273SOL    HW178716   9.295  11.256   8.324
92273SOL    HW278717   9.378  11.364   8.259
92274SOL     OW78718   2.725  10.167   0.311
92274SOL    HW178719   2.725  10.076   0.340
92274SOL    HW278720   2.769  10.165   0.225
92275SOL     OW78721  11.646   0.969   0.849
92275SOL    HW178722  11.557   0.984   0.818
92275SOL    HW278723  11.671   1.051   0.892
92276SOL     OW78724  14.163   9.271  13.434
92276SOL    HW178725  14.070   9.286  13.420
92276SOL    HW278726  14.167   9.196  13.493
92277SOL     OW78727   5.674   5.591   7.735
92277SOL    HW178728   5.603   5.545   7.780
92277SOL    HW278729   5.702   5.658   7.797
92278SOL     OW78730   7.627   1.711  12.221
92278SOL    HW178731   7.541   1.749  12.202
92278SOL    HW278732   7.689   1.770  12.180
92279SOL     OW78733   4.913  12.291   5.410
92279SOL    HW178734   4.843  12.319   5.351
92279SOL    HW278735   4.933  12.201   5.382
92280SOL     OW78736  10.705  13.425  11.035
92280SOL    HW178737  10.645  13.500  11.036
92280SOL    HW278738  10.654  13.353  11.072
92281SOL     OW78739   7.986  12.565   7.665
92281SOL    HW178740   7.944  12.485   7.697
92281SOL    HW278741   8.062  12.534   7.616
92282SOL     OW78742   8.121   0.456   3.345
92282SOL    HW178743   8.172   0.422   3.418
92282SOL    HW278744   8.186   0.485   3.281
92283SOL     OW78745   8.502   7.448   7.043
92283SOL    HW178746   8.486   7.496   7.124
92283SOL    HW278747   8.423   7.396   7.030
92284SOL     OW78748   8.760   4.794   9.238
92284SOL    HW178749   8.796   4.820   9.323
92284SOL    HW278750   8.687   4.736   9.259
92285SOL     OW78751  13.299   9.630  10.298
92285SOL    HW178752  13.299   9.726  10.299
92285SOL    HW278753  13.248   9.605  10.376
92286SOL     OW78754   3.701  12.960   1.777
92286SOL    HW178755   3.627  12.911   1.741
92286SOL    HW278756   3.685  12.962   1.871
92287SOL     OW78757   0.372   7.540  14.148
92287SOL    HW178758   0.350   7.472  14.212
92287SOL    HW278759   0.334   7.620  14.184
92288SOL     OW78760   4.706   0.796   5.892
92288SOL    HW178761   4.638   0.755   5.947
92288SOL    HW278762   4.659   0.862   5.842
92289SOL     OW78763  12.871   2.392  12.643
92289SOL    HW178764  12.899   2.433  12.561
92289SOL    HW278765  12.791   2.440  12.667
92290SOL     OW78766   2.409   2.558   1.526
92290SOL    HW178767   2.491   2.607   1.528
92290SOL    HW278768   2.424   2.482   1.582
92291SOL     OW78769   0.428   2.519   8.507
92291SOL    HW178770   0.352   2.469   8.537
92291SOL    HW278771   0.419   2.521   8.412
92292SOL     OW78772   4.706   7.693  11.624
92292SOL    HW178773   4.751   7.737  11.552
92292SOL    HW278774   4.688   7.605  11.591
92293SOL     OW78775   6.908  13.526   7.298
92293SOL    HW178776   6.925  13.591   7.366
92293SOL    HW278777   6.814  13.510   7.303
92294SOL     OW78778   1.409   3.093  12.662
92294SOL    HW178779   1.345   3.083  12.732
92294SOL    HW278780   1.467   3.017  12.672
92295SOL     OW78781   9.808  11.595   6.875
92295SOL    HW178782   9.855  11.611   6.793
92295SOL    HW278783   9.734  11.656   6.873
92296SOL     OW78784   1.275   6.649   8.042
92296SOL    HW178785   1.341   6.691   8.097
92296SOL    HW278786   1.255   6.714   7.975
92297SOL     OW78787  11.089  14.246  12.352
92297SOL    HW178788  11.087  14.168  12.297
92297SOL    HW278789  11.029  14.307  12.308
92298SOL     OW78790  13.837   7.275  12.005
92298SOL    HW178791  13.914   7.222  12.026
92298SOL    HW278792  13.841   7.349  12.066
92299SOL     OW78793   5.253   0.051   9.867
92299SOL    HW178794   5.191  14.868   9.903
92299SOL    HW278795   5.292   0.006   9.793
92300SOL     OW78796   7.916   6.099  11.419
92300SOL    HW178797   7.867   6.017  11.420
92300SOL    HW278798   7.935   6.115  11.326
92301SOL     OW78799  14.076  14.186  14.206
92301SOL    HW178800  14.060  14.198  14.299
92301SOL    HW278801  14.039  14.263  14.164
92302SOL     OW78802   5.329  13.266  10.099
92302SOL    HW178803   5.364  13.224  10.177
92302SOL    HW278804   5.319  13.195  10.036
92303SOL     OW78805  13.675   4.728   3.802
92303SOL    HW178806  13.720   4.679   3.733
92303SOL    HW278807  13.717   4.701   3.883
92304SOL     OW78808   9.265   3.701  12.216
92304SOL    HW178809   9.187   3.706  12.160
92304SOL    HW278810   9.306   3.618  12.192
92305SOL     OW78811  10.179   6.266   8.229
92305SOL    HW178812  10.145   6.325   8.161
92305SOL    HW278813  10.272   6.259   8.210
92306SOL     OW78814  10.540   8.550  11.884
92306SOL    HW178815  10.595   8.578  11.811
92306SOL    HW278816  10.505   8.465  11.857
92307SOL     OW78817   2.325  13.491   4.240
92307SOL    HW178818   2.253  13.539   4.200
92307SOL    HW278819   2.310  13.400   4.215
92308SOL     OW78820   0.754  13.295   4.909
92308SOL    HW178821   0.724  13.294   5.000
92308SOL    HW278822   0.835  13.347   4.912
92309SOL     OW78823  13.727  11.279   7.029
92309SOL    HW178824  13.754  11.263   7.120
92309SOL    HW278825  13.800  11.330   6.992
92310SOL     OW78826   2.229   7.784   6.818
92310SOL    HW178827   2.203   7.693   6.802
92310SOL    HW278828   2.234   7.823   6.732
92311SOL     OW78829   7.940  11.374   3.142
92311SOL    HW178830   7.907  11.320   3.214
92311SOL    HW278831   7.997  11.316   3.093
92312SOL     OW78832   3.197  14.703   7.641
92312SOL    HW178833   3.246  14.734   7.565
92312SOL    HW278834   3.113  14.749   7.638
92313SOL     OW78835   6.048   8.858  11.680
92313SOL    HW178836   6.115   8.856  11.748
92313SOL    HW278837   5.972   8.818  11.721
92314SOL     OW78838  14.010  13.375   5.635
92314SOL    HW178839  13.918  13.350   5.640
92314SOL    HW278840  14.009  13.470   5.647
92315SOL     OW78841   9.017   9.015   5.604
92315SOL    HW178842   8.959   8.963   5.550
92315SOL    HW278843   9.094   9.031   5.549
92316SOL     OW78844   2.677   6.837  14.462
92316SOL    HW178845   2.624   6.892  14.404
92316SOL    HW278846   2.728   6.899  14.514
92317SOL     OW78847  13.231   2.278   1.957
92317SOL    HW178848  13.234   2.344   2.026
92317SOL    HW278849  13.166   2.215   1.987
92318SOL     OW78850   2.523   2.585   9.846
92318SOL    HW178851   2.485   2.534   9.917
92318SOL    HW278852   2.582   2.524   9.801
92319SOL     OW78853  12.100   9.840   0.760
92319SOL    HW178854  12.044   9.766   0.737
92319SOL    HW278855  12.134   9.819   0.847
92320SOL     OW78856  12.444   4.781  12.698
92320SOL    HW178857  12.360   4.774  12.743
92320SOL    HW278858  12.498   4.711  12.735
92321SOL     OW78859   1.333   0.531   2.057
92321SOL    HW178860   1.374   0.455   2.100
92321SOL    HW278861   1.312   0.500   1.969
92322SOL     OW78862   7.735   4.801   1.508
92322SOL    HW178863   7.695   4.876   1.463
92322SOL    HW278864   7.663   4.762   1.558
92323SOL     OW78865   5.980   8.978   5.696
92323SOL    HW178866   6.002   8.942   5.610
92323SOL    HW278867   5.884   8.983   5.696
92324SOL     OW78868   7.714   1.059  12.942
92324SOL    HW178869   7.686   1.060  12.851
92324SOL    HW278870   7.635   1.039  12.992
92325SOL     OW78871   3.734   3.380  11.066
92325SOL    HW178872   3.683   3.454  11.032
92325SOL    HW278873   3.784   3.417  11.139
92326SOL     OW78874   7.940   2.581  14.869
92326SOL    HW178875   7.941   2.675   0.001
92326SOL    HW278876   7.925   2.569  14.775
92327SOL     OW78877  10.722   2.104   8.292
92327SOL    HW178878  10.632   2.128   8.312
92327SOL    HW278879  10.739   2.144   8.207
92328SOL     OW78880   6.071  13.999   2.651
92328SOL    HW178881   6.046  13.908   2.634
92328SOL    HW278882   6.075  14.005   2.746
92329SOL     OW78883   2.609  13.038   9.470
92329SOL    HW178884   2.549  12.980   9.422
92329SOL    HW278885   2.682  12.981   9.495
92330SOL     OW78886   0.184   9.078   5.607
92330SOL    HW178887   0.170   9.110   5.695
92330SOL    HW278888   0.250   9.137   5.570
92331SOL     OW78889  11.462  12.816  13.327
92331SOL    HW178890  11.371  12.837  13.344
92331SOL    HW278891  11.459  12.732  13.282
92332SOL     OW78892  12.262   1.518   0.485
92332SOL    HW178893  12.347   1.522   0.530
92332SOL    HW278894  12.275   1.570   0.405
92333SOL     OW78895  11.714   6.473  14.365
92333SOL    HW178896  11.809   6.469  14.359
92333SOL    HW278897  11.696   6.535  14.435
92334SOL     OW78898   8.702   9.245  14.393
92334SOL    HW178899   8.765   9.219  14.460
92334SOL    HW278900   8.685   9.164  14.344
92335SOL     OW78901   7.537  10.963   8.519
92335SOL    HW178902   7.450  10.982   8.484
92335SOL    HW278903   7.546  10.868   8.511
92336SOL     OW78904  11.125   9.067   9.302
92336SOL    HW178905  11.052   9.093   9.246
92336SOL    HW278906  11.201   9.063   9.244
92337SOL     OW78907   8.457   3.352   7.352
92337SOL    HW178908   8.411   3.427   7.388
92337SOL    HW278909   8.433   3.351   7.259
92338SOL     OW78910   2.906   0.647   7.507
92338SOL    HW178911   2.860   0.689   7.580
92338SOL    HW278912   2.961   0.717   7.470
92339SOL     OW78913   5.875  14.663  10.456
92339SOL    HW178914   5.965  14.638  10.477
92339SOL    HW278915   5.880  14.757  10.438
92340SOL     OW78916   4.044   8.421  14.786
92340SOL    HW178917   4.020   8.374  14.866
92340SOL    HW278918   4.007   8.509  14.798
92341SOL     OW78919   0.002   7.192   4.767
92341SOL    HW178920   0.044   7.153   4.843
92341SOL    HW278921   0.065   7.257   4.735
92342SOL     OW78922  13.292   1.508  13.140
92342SOL    HW178923  13.245   1.564  13.202
92342SOL    HW278924  13.264   1.538  13.054
92343SOL     OW78925  13.308   9.292   0.225
92343SOL    HW178926  13.360   9.229   0.175
92343SOL    HW278927  13.218   9.278   0.195
92344SOL     OW78928   0.324  11.507  12.496
92344SOL    HW178929   0.255  11.497  12.562
92344SOL    HW278930   0.281  11.483  12.413
92345SOL     OW78931   1.563   8.514   2.118
92345SOL    HW178932   1.570   8.438   2.061
92345SOL    HW278933   1.615   8.492   2.195
92346SOL     OW78934   2.638   4.381   1.262
92346SOL    HW178935   2.722   4.348   1.231
92346SOL    HW278936   2.581   4.304   1.264
92347SOL     OW78937   2.304   2.393  12.126
92347SOL    HW178938   2.322   2.482  12.094
92347SOL    HW278939   2.365   2.381  12.198
92348SOL     OW78940   4.424  14.739  11.304
92348SOL    HW178941   4.347  14.733  11.248
92348SOL    HW278942   4.472  14.658  11.288
92349SOL     OW78943  11.406   9.523  12.275
92349SOL    HW178944  11.346   9.597  12.281
92349SOL    HW278945  11.433   9.506  12.366
92350SOL     OW78946   5.380  12.692   4.829
92350SOL    HW178947   5.430  12.644   4.763
92350SOL    HW278948   5.389  12.784   4.804
92351SOL     OW78949  11.015   0.747   2.745
92351SOL    HW178950  11.071   0.716   2.674
92351SOL    HW278951  11.070   0.808   2.794
92352SOL     OW78952   5.563   6.068  11.825
92352SOL    HW178953   5.596   6.024  11.903
92352SOL    HW278954   5.639   6.079  11.769
92353SOL     OW78955   0.989   4.902  14.332
92353SOL    HW178956   0.939   4.983  14.326
92353SOL    HW278957   1.080   4.930  14.326
92354SOL     OW78958   3.855  13.297   6.485
92354SOL    HW178959   3.853  13.289   6.580
92354SOL    HW278960   3.855  13.206   6.454
92355SOL     OW78961   6.937   6.765  11.150
92355SOL    HW178962   6.887   6.845  11.165
92355SOL    HW278963   6.903   6.730  11.067
92356SOL     OW78964   8.210   4.289   7.017
92356SOL    HW178965   8.210   4.338   6.935
92356SOL    HW278966   8.155   4.341   7.076
92357SOL     OW78967   9.210   6.187  11.703
92357SOL    HW178968   9.232   6.140  11.622
92357SOL    HW278969   9.272   6.153  11.768
92358SOL     OW78970  12.356   5.318  12.570
92358SOL    HW178971  12.435   5.333  12.622
92358SOL    HW278972  12.341   5.223  12.574
92359SOL     OW78973  14.394  12.365   7.923
92359SOL    HW178974  14.363  12.278   7.899
92359SOL    HW278975  14.463  12.349   7.988
92360SOL     OW78976   2.016   7.384   0.500
92360SOL    HW178977   1.974   7.470   0.496
92360SOL    HW278978   2.065   7.377   0.418
92361SOL     OW78979  10.355   9.256  14.596
92361SOL    HW178980  10.415   9.292  14.531
92361SOL    HW278981  10.360   9.317  14.669
92362SOL     OW78982   9.517   4.301   3.884
92362SOL    HW178983   9.487   4.307   3.793
92362SOL    HW278984   9.499   4.387   3.922
92363SOL     OW78985   1.221  11.754   8.398
92363SOL    HW178986   1.210  11.848   8.407
92363SOL    HW278987   1.148  11.717   8.448
92364SOL     OW78988  10.715   9.450   9.878
92364SOL    HW178989  10.767   9.419   9.953
92364SOL    HW278990  10.626   9.458   9.912
92365SOL     OW78991   0.539   5.391   2.682
92365SOL    HW178992   0.463   5.387   2.623
92365SOL    HW278993   0.592   5.315   2.657
92366SOL     OW78994   6.193   8.848   7.699
92366SOL    HW178995   6.105   8.812   7.709
92366SOL    HW278996   6.181   8.925   7.642
92367SOL     OW78997   7.575   4.533   5.226
92367SOL    HW178998   7.526   4.507   5.148
92367SOL    HW278999   7.648   4.471   5.230
92368SOL     OW79000   7.670   2.276   6.398
92368SOL    HW179001   7.702   2.268   6.488
92368SOL    HW279002   7.662   2.370   6.383
92369SOL     OW79003  11.880  14.177   5.905
92369SOL    HW179004  11.898  14.178   5.811
92369SOL    HW279005  11.799  14.127   5.914
92370SOL     OW79006   8.879  10.345   3.832
92370SOL    HW179007   8.822  10.271   3.853
92370SOL    HW279008   8.965  10.306   3.816
92371SOL     OW79009   0.956  11.848   9.469
92371SOL    HW179010   0.944  11.770   9.524
92371SOL    HW279011   1.044  11.879   9.490
92372SOL     OW79012  11.366   3.683  10.615
92372SOL    HW179013  11.350   3.667  10.708
92372SOL    HW279014  11.461   3.695  10.610
92373SOL     OW79015   5.284   9.697   9.399
92373SOL    HW179016   5.283   9.616   9.449
92373SOL    HW279017   5.345   9.681   9.328
92374SOL     OW79018   6.142   5.263  11.609
92374SOL    HW179019   6.107   5.276  11.521
92374SOL    HW279020   6.068   5.225  11.658
92375SOL     OW79021  12.219   9.510  13.823
92375SOL    HW179022  12.255   9.435  13.775
92375SOL    HW279023  12.232   9.487  13.915
92376SOL     OW79024  12.689   4.190   3.389
92376SOL    HW179025  12.682   4.285   3.384
92376SOL    HW279026  12.776   4.170   3.353
92377SOL     OW79027  10.403   9.629  10.503
92377SOL    HW179028  10.483   9.591  10.542
92377SOL    HW279029  10.357   9.667  10.577
92378SOL     OW79030   7.127  12.100   1.162
92378SOL    HW179031   7.065  12.045   1.210
92378SOL    HW279032   7.104  12.087   1.070
92379SOL     OW79033  13.371  12.165   1.133
92379SOL    HW179034  13.305  12.233   1.118
92379SOL    HW279035  13.404  12.182   1.221
92380SOL     OW79036   9.339  11.242   5.164
92380SOL    HW179037   9.370  11.207   5.247
92380SOL    HW279038   9.416  11.282   5.124
92381SOL     OW79039   4.050  14.621  13.044
92381SOL    HW179040   4.115  14.652  13.107
92381SOL    HW279041   3.991  14.564  13.095
92382SOL     OW79042  11.674   2.028  13.735
92382SOL    HW179043  11.648   2.015  13.644
92382SOL    HW279044  11.617   1.969  13.786
92383SOL     OW79045  12.319   0.301   0.871
92383SOL    HW179046  12.362   0.233   0.923
92383SOL    HW279047  12.298   0.370   0.934
92384SOL     OW79048   4.484  11.809  10.136
92384SOL    HW179049   4.530  11.879  10.183
92384SOL    HW279050   4.524  11.728  10.169
92385SOL     OW79051  11.510  11.484   5.088
92385SOL    HW179052  11.452  11.408   5.095
92385SOL    HW279053  11.587  11.451   5.040
92386SOL     OW79054   9.340   9.876  11.818
92386SOL    HW179055   9.315   9.953  11.766
92386SOL    HW279056   9.303   9.802  11.771
92387SOL     OW79057   9.727  11.208  13.709
92387SOL    HW179058   9.680  11.152  13.647
92387SOL    HW279059   9.686  11.191  13.794
92388SOL     OW79060   2.984  14.292  11.001
92388SOL    HW179061   2.913  14.296  10.937
92388SOL    HW279062   3.005  14.199  11.008
92389SOL     OW79063   1.756   7.768   4.993
92389SOL    HW179064   1.728   7.678   4.979
92389SOL    HW279065   1.810   7.788   4.917
92390SOL     OW79066  14.518  11.461   5.843
92390SOL    HW179067  14.437  11.511   5.831
92390SOL    HW279068  14.560  11.502   5.919
92391SOL     OW79069   8.687  11.058   9.670
92391SOL    HW179070   8.639  10.977   9.655
92391SOL    HW279071   8.635  11.105   9.734
92392SOL     OW79072   3.261  13.185   6.228
92392SOL    HW179073   3.212  13.152   6.303
92392SOL    HW279074   3.291  13.106   6.182
92393SOL     OW79075   6.698  14.056   5.951
92393SOL    HW179076   6.786  14.025   5.975
92393SOL    HW279077   6.639  13.986   5.980
92394SOL     OW79078  10.878  12.811  10.693
92394SOL    HW179079  10.968  12.825  10.724
92394SOL    HW279080  10.881  12.726  10.649
92395SOL     OW79081  14.866   5.551   4.602
92395SOL    HW179082  14.773   5.565   4.587
92395SOL    HW279083   0.025   5.556   4.515
92396SOL     OW79084   5.433   2.843   7.905
92396SOL    HW179085   5.442   2.748   7.894
92396SOL    HW279086   5.437   2.857   8.000
92397SOL     OW79087   6.256   0.452   9.986
92397SOL    HW179088   6.224   0.379  10.038
92397SOL    HW279089   6.197   0.456   9.911
92398SOL     OW79090  11.101  14.534  10.824
92398SOL    HW179091  11.162  14.550  10.752
92398SOL    HW279092  11.072  14.444  10.812
92399SOL     OW79093   6.176   5.206   1.507
92399SOL    HW179094   6.254   5.199   1.451
92399SOL    HW279095   6.109   5.154   1.462
92400SOL     OW79096   3.834   0.850  12.699
92400SOL    HW179097   3.824   0.921  12.635
92400SOL    HW279098   3.816   0.770  12.648
92401SOL     OW79099   7.931   7.082   8.383
92401SOL    HW179100   8.017   7.100   8.345
92401SOL    HW279101   7.939   7.110   8.474
92402SOL     OW79102   2.427   2.852  11.797
92402SOL    HW179103   2.366   2.781  11.816
92402SOL    HW279104   2.463   2.832  11.711
92403SOL     OW79105   0.084   3.855   1.479
92403SOL    HW179106   0.147   3.784   1.495
92403SOL    HW279107   0.124   3.932   1.520
92404SOL     OW79108  14.604  11.997  13.837
92404SOL    HW179109  14.522  12.024  13.878
92404SOL    HW279110  14.585  11.998  13.743
92405SOL     OW79111   2.711  11.354   1.991
92405SOL    HW179112   2.743  11.264   1.993
92405SOL    HW279113   2.674  11.365   1.903
92406SOL     OW79114   5.006   5.588  14.768
92406SOL    HW179115   5.066   5.653  14.804
92406SOL    HW279116   4.934   5.584  14.832
92407SOL     OW79117   3.279   6.656  11.646
92407SOL    HW179118   3.189   6.685  11.631
92407SOL    HW279119   3.286   6.573  11.600
92408SOL     OW79120   0.845  10.842   6.942
92408SOL    HW179121   0.860  10.935   6.963
92408SOL    HW279122   0.887  10.830   6.857
92409SOL     OW79123   8.930   1.997  14.617
92409SOL    HW179124   9.007   1.968  14.665
92409SOL    HW279125   8.893   2.068  14.670
92410SOL     OW79126   2.950   4.853  14.678
92410SOL    HW179127   2.867   4.851  14.726
92410SOL    HW279128   2.924   4.859  14.586
92411SOL     OW79129   7.841  11.495  13.964
92411SOL    HW179130   7.766  11.529  13.915
92411SOL    HW279131   7.808  11.482  14.053
92412SOL     OW79132   5.121   5.328   0.246
92412SOL    HW179133   5.029   5.318   0.219
92412SOL    HW279134   5.166   5.257   0.201
92413SOL     OW79135  10.275   5.918   4.478
92413SOL    HW179136  10.248   5.952   4.393
92413SOL    HW279137  10.194   5.889   4.519
92414SOL     OW79138   9.219   7.017  10.639
92414SOL    HW179139   9.273   6.959  10.587
92414SOL    HW279140   9.263   7.102  10.634
92415SOL     OW79141   8.303   2.260   2.420
92415SOL    HW179142   8.355   2.323   2.371
92415SOL    HW279143   8.231   2.313   2.456
92416SOL     OW79144   8.281   6.175   7.145
92416SOL    HW179145   8.228   6.227   7.205
92416SOL    HW279146   8.294   6.092   7.191
92417SOL     OW79147  10.430  12.963   4.776
92417SOL    HW179148  10.522  12.967   4.747
92417SOL    HW279149  10.432  12.905   4.852
92418SOL     OW79150   8.940   7.829  10.940
92418SOL    HW179151   8.921   7.866  10.854
92418SOL    HW279152   8.871   7.863  10.997
92419SOL     OW79153   1.645   2.800   1.088
92419SOL    HW179154   1.613   2.749   1.014
92419SOL    HW279155   1.642   2.891   1.058
92420SOL     OW79156  12.823   4.971   4.411
92420SOL    HW179157  12.890   4.926   4.464
92420SOL    HW279158  12.868   5.047   4.375
92421SOL     OW79159   5.536   2.637   3.713
92421SOL    HW179160   5.547   2.610   3.622
92421SOL    HW279161   5.592   2.713   3.723
92422SOL     OW79162   9.593   8.539   4.029
92422SOL    HW179163   9.652   8.605   3.995
92422SOL    HW279164   9.622   8.457   3.988
92423SOL     OW79165   2.761  10.712  14.667
92423SOL    HW179166   2.751  10.760  14.585
92423SOL    HW279167   2.687  10.652  14.669
92424SOL     OW79168   5.067   8.517   7.375
92424SOL    HW179169   4.995   8.501   7.314
92424SOL    HW279170   5.030   8.498   7.461
92425SOL     OW79171  14.378   1.891  12.558
92425SOL    HW179172  14.367   1.877  12.652
92425SOL    HW279173  14.304   1.846  12.518
92426SOL     OW79174   5.732   0.573   5.359
92426SOL    HW179175   5.718   0.627   5.281
92426SOL    HW279176   5.719   0.483   5.329
92427SOL     OW79177   7.714   0.799   5.344
92427SOL    HW179178   7.723   0.725   5.283
92427SOL    HW279179   7.793   0.794   5.399
92428SOL     OW79180   8.754  11.311   7.136
92428SOL    HW179181   8.713  11.242   7.188
92428SOL    HW279182   8.846  11.309   7.161
92429SOL     OW79183   5.445   7.035   2.304
92429SOL    HW179184   5.498   7.073   2.234
92429SOL    HW279185   5.434   6.943   2.279
92430SOL     OW79186   3.726   6.469   3.090
92430SOL    HW179187   3.809   6.450   3.135
92430SOL    HW279188   3.659   6.459   3.158
92431SOL     OW79189   0.792   6.535   6.904
92431SOL    HW179190   0.740   6.589   6.843
92431SOL    HW279191   0.881   6.568   6.895
92432SOL     OW79192   0.697   0.168   3.947
92432SOL    HW179193   0.745   0.107   4.003
92432SOL    HW279194   0.636   0.212   4.005
92433SOL     OW79195   2.546   9.108  12.875
92433SOL    HW179196   2.515   9.179  12.819
92433SOL    HW279197   2.621   9.144  12.922
92434SOL     OW79198   6.526   1.437  12.257
92434SOL    HW179199   6.486   1.351  12.270
92434SOL    HW279200   6.451   1.496  12.246
92435SOL     OW79201   7.369  10.399   6.377
92435SOL    HW179202   7.374  10.304   6.388
92435SOL    HW279203   7.275  10.417   6.372
92436SOL     OW79204   5.701  11.803  10.267
92436SOL    HW179205   5.758  11.808  10.190
92436SOL    HW279206   5.658  11.717  10.260
92437SOL     OW79207   7.015   2.984   9.784
92437SOL    HW179208   7.100   3.019   9.760
92437SOL    HW279209   7.035   2.906   9.836
92438SOL     OW79210   1.856  12.298  12.269
92438SOL    HW179211   1.908  12.221  12.293
92438SOL    HW279212   1.874  12.362  12.338
92439SOL     OW79213   1.824   1.728   9.853
92439SOL    HW179214   1.884   1.800   9.834
92439SOL    HW279215   1.738   1.761   9.825
92440SOL     OW79216   6.397   2.926   9.802
92440SOL    HW179217   6.467   2.864   9.826
92440SOL    HW279218   6.373   2.900   9.713
92441SOL     OW79219  11.742  10.684   0.136
92441SOL    HW179220  11.791  10.703   0.057
92441SOL    HW279221  11.792  10.726   0.206
92442SOL     OW79222   0.808  11.948   6.643
92442SOL    HW179223   0.852  11.864   6.627
92442SOL    HW279224   0.762  11.936   6.726
92443SOL     OW79225  11.490   8.300   2.577
92443SOL    HW179226  11.492   8.372   2.640
92443SOL    HW279227  11.552   8.236   2.611
92444SOL     OW79228   1.009   8.931  11.069
92444SOL    HW179229   0.958   8.932  11.150
92444SOL    HW279230   1.099   8.945  11.097
92445SOL     OW79231   3.260  10.326  12.445
92445SOL    HW179232   3.351  10.301  12.431
92445SOL    HW279233   3.239  10.382  12.370
92446SOL     OW79234  12.840   7.232   6.321
92446SOL    HW179235  12.844   7.212   6.414
92446SOL    HW279236  12.812   7.151   6.279
92447SOL     OW79237  13.781   0.297   3.670
92447SOL    HW179238  13.838   0.228   3.636
92447SOL    HW279239  13.700   0.253   3.693
92448SOL     OW79240   1.507   1.091  10.419
92448SOL    HW179241   1.562   1.042  10.357
92448SOL    HW279242   1.420   1.089  10.380
92449SOL     OW79243   3.163  10.422   9.036
92449SOL    HW179244   3.209  10.361   9.094
92449SOL    HW279245   3.152  10.502   9.089
92450SOL     OW79246  13.582  13.015   4.776
92450SOL    HW179247  13.654  12.952   4.766
92450SOL    HW279248  13.609  13.092   4.726
92451SOL     OW79249  10.906  12.834   6.418
92451SOL    HW179250  10.907  12.789   6.333
92451SOL    HW279251  10.849  12.780   6.473
92452SOL     OW79252  11.877   7.537   5.332
92452SOL    HW179253  11.894   7.631   5.343
92452SOL    HW279254  11.782   7.532   5.317
92453SOL     OW79255  12.563  10.267   7.223
92453SOL    HW179256  12.631  10.277   7.156
92453SOL    HW279257  12.611  10.276   7.306
92454SOL     OW79258  12.825   0.922  10.819
92454SOL    HW179259  12.889   0.902  10.751
92454SOL    HW279260  12.741   0.906  10.778
92455SOL     OW79261   8.128   9.205   4.403
92455SOL    HW179262   8.218   9.205   4.371
92455SOL    HW279263   8.118   9.122   4.450
92456SOL     OW79264  11.988   3.406  12.836
92456SOL    HW179265  12.003   3.497  12.810
92456SOL    HW279266  11.983   3.358  12.754
92457SOL     OW79267   9.256  13.861   7.712
92457SOL    HW179268   9.256  13.831   7.803
92457SOL    HW279269   9.256  13.781   7.660
92458SOL     OW79270   6.729   2.891   1.524
92458SOL    HW179271   6.674   2.841   1.464
92458SOL    HW279272   6.805   2.835   1.540
92459SOL     OW79273   9.360  10.665   5.484
92459SOL    HW179274   9.342  10.690   5.393
92459SOL    HW279275   9.274  10.670   5.527
92460SOL     OW79276   7.255   7.104   7.627
92460SOL    HW179277   7.193   7.151   7.570
92460SOL    HW279278   7.318   7.065   7.567
92461SOL     OW79279  14.078   8.226   9.943
92461SOL    HW179280  14.129   8.267  10.013
92461SOL    HW279281  14.030   8.155   9.987
92462SOL     OW79282   1.656   6.561  12.971
92462SOL    HW179283   1.742   6.568  13.013
92462SOL    HW279284   1.644   6.645  12.926
92463SOL     OW79285   5.160   9.809  12.646
92463SOL    HW179286   5.122   9.767  12.724
92463SOL    HW279287   5.236   9.754  12.625
92464SOL     OW79288   5.828  13.900   3.595
92464SOL    HW179289   5.796  13.931   3.510
92464SOL    HW279290   5.750  13.900   3.651
92465SOL     OW79291   3.489   9.442  11.179
92465SOL    HW179292   3.404   9.397  11.181
92465SOL    HW279293   3.544   9.386  11.124
92466SOL     OW79294   8.478   3.828  14.092
92466SOL    HW179295   8.480   3.893  14.021
92466SOL    HW279296   8.413   3.765  14.064
92467SOL     OW79297   4.230  12.853   9.210
92467SOL    HW179298   4.170  12.779   9.209
92467SOL    HW279299   4.287  12.839   9.134
92468SOL     OW79300   5.289   9.606  10.446
92468SOL    HW179301   5.321   9.530  10.396
92468SOL    HW279302   5.369   9.655  10.468
92469SOL     OW79303   4.486   5.068  13.736
92469SOL    HW179304   4.515   5.156  13.761
92469SOL    HW279305   4.462   5.026  13.819
92470SOL     OW79306  14.495   3.012   9.157
92470SOL    HW179307  14.464   2.922   9.172
92470SOL    HW279308  14.511   3.016   9.063
92471SOL     OW79309   7.721   0.780   0.499
92471SOL    HW179310   7.743   0.687   0.492
92471SOL    HW279311   7.777   0.822   0.434
92472SOL     OW79312   2.893   4.887  12.427
92472SOL    HW179313   2.851   4.883  12.341
92472SOL    HW279314   2.820   4.886  12.489
92473SOL     OW79315   7.807  12.551  14.291
92473SOL    HW179316   7.783  12.482  14.229
92473SOL    HW279317   7.724  12.580  14.328
92474SOL     OW79318   6.602   7.188  14.730
92474SOL    HW179319   6.522   7.233  14.702
92474SOL    HW279320   6.572   7.103  14.761
92475SOL     OW79321   2.366   1.159   6.804
92475SOL    HW179322   2.337   1.068   6.811
92475SOL    HW279323   2.308   1.208   6.862
92476SOL     OW79324   4.706   6.451  14.671
92476SOL    HW179325   4.703   6.518  14.604
92476SOL    HW279326   4.654   6.378  14.635
92477SOL     OW79327   1.217  10.001   0.217
92477SOL    HW179328   1.134  10.028   0.255
92477SOL    HW279329   1.201   9.996   0.123
92478SOL     OW79330   4.256   1.435   2.523
92478SOL    HW179331   4.291   1.519   2.494
92478SOL    HW279332   4.215   1.398   2.445
92479SOL     OW79333  11.748  11.426   4.959
92479SOL    HW179334  11.760  11.352   5.019
92479SOL    HW279335  11.782  11.501   5.008
92480SOL     OW79336  10.869   3.199   3.060
92480SOL    HW179337  10.886   3.229   3.149
92480SOL    HW279338  10.933   3.247   3.007
92481SOL     OW79339   3.552   9.456   2.856
92481SOL    HW179340   3.591   9.428   2.773
92481SOL    HW279341   3.576   9.548   2.864
92482SOL     OW79342   5.605   5.395  10.277
92482SOL    HW179343   5.626   5.484  10.303
92482SOL    HW279344   5.624   5.342  10.354
92483SOL     OW79345  14.794   1.689   3.300
92483SOL    HW179346  14.772   1.753   3.367
92483SOL    HW279347   0.000   1.715   3.269
92484SOL     OW79348   5.141   4.557   3.146
92484SOL    HW179349   5.137   4.462   3.135
92484SOL    HW279350   5.232   4.575   3.171
92485SOL     OW79351   7.357  13.690  14.693
92485SOL    HW179352   7.349  13.613  14.637
92485SOL    HW279353   7.433  13.671  14.749
92486SOL     OW79354  14.353   4.113   1.763
92486SOL    HW179355  14.283   4.062   1.805
92486SOL    HW279356  14.309   4.156   1.690
92487SOL     OW79357   7.911   4.683  11.763
92487SOL    HW179358   8.000   4.718  11.759
92487SOL    HW279359   7.923   4.588  11.764
92488SOL     OW79360  12.312  11.235   3.889
92488SOL    HW179361  12.396  11.222   3.933
92488SOL    HW279362  12.265  11.297   3.946
92489SOL     OW79363   4.971   5.425  10.607
92489SOL    HW179364   4.987   5.514  10.573
92489SOL    HW279365   4.875   5.418  10.611
92490SOL     OW79366   6.741   6.990  13.101
92490SOL    HW179367   6.649   6.976  13.123
92490SOL    HW279368   6.787   6.916  13.142
92491SOL     OW79369   0.070  13.836  12.737
92491SOL    HW179370   0.034  13.827  12.826
92491SOL    HW279371   0.144  13.896  12.748
92492SOL     OW79372   5.085  12.175  11.189
92492SOL    HW179373   5.079  12.085  11.221
92492SOL    HW279374   5.069  12.168  11.095
92493SOL     OW79375   4.170   9.418   8.441
92493SOL    HW179376   4.221   9.499   8.441
92493SOL    HW279377   4.108   9.429   8.513
92494SOL     OW79378  13.495   5.805  11.317
92494SOL    HW179379  13.419   5.795  11.260
92494SOL    HW279380  13.512   5.899  11.320
92495SOL     OW79381   5.445  11.583   6.638
92495SOL    HW179382   5.443  11.511   6.701
92495SOL    HW279383   5.443  11.539   6.552
92496SOL     OW79384   9.652   8.719  12.849
92496SOL    HW179385   9.670   8.779  12.777
92496SOL    HW279386   9.729   8.726  12.906
92497SOL     OW79387   1.809   6.809   2.993
92497SOL    HW179388   1.737   6.867   2.967
92497SOL    HW279389   1.771   6.754   3.062
92498SOL     OW79390  13.221  11.284   3.149
92498SOL    HW179391  13.251  11.321   3.231
92498SOL    HW279392  13.155  11.345   3.117
92499SOL     OW79393   7.634  14.694   1.733
92499SOL    HW179394   7.609  14.776   1.690
92499SOL    HW279395   7.621  14.627   1.667
92500SOL     OW79396  14.772   2.821   6.127
92500SOL    HW179397  14.810   2.763   6.061
92500SOL    HW279398  14.838   2.889   6.141
92501SOL     OW79399  14.137   4.802   4.440
92501SOL    HW179400  14.207   4.844   4.391
92501SOL    HW279401  14.143   4.840   4.527
92502SOL     OW79402   1.961   1.536  12.165
92502SOL    HW179403   1.866   1.532  12.166
92502SOL    HW279404   1.987   1.519  12.256
92503SOL     OW79405  13.443  13.177  13.042
92503SOL    HW179406  13.442  13.097  12.990
92503SOL    HW279407  13.512  13.230  13.002
92504SOL     OW79408  13.041   5.352   4.700
92504SOL    HW179409  12.961   5.331   4.748
92504SOL    HW279410  13.015   5.424   4.641
92505SOL     OW79411   7.701  10.722  12.679
92505SOL    HW179412   7.610  10.753  12.678
92505SOL    HW279413   7.748  10.785  12.624
92506SOL     OW79414   6.078   6.108   9.848
92506SOL    HW179415   6.083   6.048   9.923
92506SOL    HW279416   6.134   6.067   9.781
92507SOL     OW79417   3.294   6.489  14.339
92507SOL    HW179418   3.228   6.557  14.326
92507SOL    HW279419   3.360   6.530  14.394
92508SOL     OW79420   2.790   6.431   4.533
92508SOL    HW179421   2.864   6.491   4.528
92508SOL    HW279422   2.802   6.371   4.459
92509SOL     OW79423   6.421   1.142   2.181
92509SOL    HW179424   6.354   1.193   2.137
92509SOL    HW279425   6.503   1.186   2.161
92510SOL     OW79426  10.360   8.871   6.254
92510SOL    HW179427  10.431   8.886   6.317
92510SOL    HW279428  10.311   8.797   6.291
92511SOL     OW79429  12.811   6.224   5.754
92511SOL    HW179430  12.818   6.274   5.836
92511SOL    HW279431  12.720   6.195   5.751
92512SOL     OW79432  11.690   1.538  11.959
92512SOL    HW179433  11.616   1.497  11.914
92512SOL    HW279434  11.765   1.484  11.937
92513SOL     OW79435   7.274   8.031  11.567
92513SOL    HW179436   7.225   7.950  11.552
92513SOL    HW279437   7.220   8.081  11.628
92514SOL     OW79438  14.265   3.594  10.673
92514SOL    HW179439  14.170   3.592  10.658
92514SOL    HW279440  14.303   3.593  10.585
92515SOL     OW79441   2.105   1.952   9.281
92515SOL    HW179442   2.013   1.927   9.292
92515SOL    HW279443   2.151   1.908   9.352
92516SOL     OW79444   2.796  12.880   0.871
92516SOL    HW179445   2.865  12.924   0.820
92516SOL    HW279446   2.776  12.941   0.942
92517SOL     OW79447   5.708   2.907   4.397
92517SOL    HW179448   5.701   2.950   4.312
92517SOL    HW279449   5.648   2.956   4.453
92518SOL     OW79450   8.819  10.890  13.782
92518SOL    HW179451   8.731  10.925  13.797
92518SOL    HW279452   8.875  10.940  13.842
92519SOL     OW79453   5.936   7.642   3.512
92519SOL    HW179454   5.938   7.670   3.420
92519SOL    HW279455   5.949   7.723   3.562
92520SOL     OW79456   2.100   0.139  11.380
92520SOL    HW179457   2.134   0.052  11.359
92520SOL    HW279458   2.169   0.199  11.353
92521SOL     OW79459  13.837   6.783   3.767
92521SOL    HW179460  13.745   6.798   3.749
92521SOL    HW279461  13.843   6.783   3.863
92522SOL     OW79462   5.339   3.272  12.200
92522SOL    HW179463   5.340   3.180  12.225
92522SOL    HW279464   5.370   3.273  12.110
92523SOL     OW79465   9.548  14.040   7.032
92523SOL    HW179466   9.622  14.099   7.045
92523SOL    HW279467   9.486  14.065   7.101
92524SOL     OW79468   1.828  11.009  12.293
92524SOL    HW179469   1.751  10.976  12.247
92524SOL    HW279470   1.805  11.098  12.319
92525SOL     OW79471   3.087   9.968   9.431
92525SOL    HW179472   3.107   9.923   9.349
92525SOL    HW279473   3.074   9.898   9.494
92526SOL     OW79474   2.034  11.292  11.731
92526SOL    HW179475   1.942  11.269  11.739
92526SOL    HW279476   2.044  11.321  11.641
92527SOL     OW79477  10.367  14.487   6.432
92527SOL    HW179478  10.447  14.481   6.484
92527SOL    HW279479  10.387  14.552   6.365
92528SOL     OW79480   4.814   8.235  12.675
92528SOL    HW179481   4.885   8.177  12.650
92528SOL    HW279482   4.772   8.260  12.593
92529SOL     OW79483  14.365  12.920   7.769
92529SOL    HW179484  14.332  12.831   7.771
92529SOL    HW279485  14.290  12.974   7.793
92530SOL     OW79486   5.740   8.992   1.914
92530SOL    HW179487   5.762   8.953   1.998
92530SOL    HW279488   5.815   8.971   1.857
92531SOL     OW79489   6.988   3.877   1.036
92531SOL    HW179490   7.066   3.842   0.993
92531SOL    HW279491   7.021   3.947   1.092
92532SOL     OW79492   3.127  13.757  13.596
92532SOL    HW179493   3.116  13.820  13.667
92532SOL    HW279494   3.038  13.735  13.569
92533SOL     OW79495   0.717   3.571  13.136
92533SOL    HW179496   0.667   3.535  13.210
92533SOL    HW279497   0.808   3.568  13.164
92534SOL     OW79498   5.548   0.925   4.962
92534SOL    HW179499   5.575   1.014   4.939
92534SOL    HW279500   5.488   0.901   4.892
92535SOL     OW79501   2.066   5.976   9.116
92535SOL    HW179502   2.114   5.915   9.173
92535SOL    HW279503   2.010   6.025   9.176
92536SOL     OW79504   2.724  10.984   3.225
92536SOL    HW179505   2.765  10.927   3.159
92536SOL    HW279506   2.704  11.064   3.177
92537SOL     OW79507   9.739   2.648   3.648
92537SOL    HW179508   9.736   2.552   3.651
92537SOL    HW279509   9.746   2.668   3.555
92538SOL     OW79510   3.373  12.097  13.493
92538SOL    HW179511   3.350  12.022  13.437
92538SOL    HW279512   3.364  12.173  13.436
92539SOL     OW79513   9.445  13.967  11.660
92539SOL    HW179514   9.365  13.936  11.616
92539SOL    HW279515   9.508  13.977  11.589
92540SOL     OW79516  13.361  11.430   1.101
92540SOL    HW179517  13.384  11.491   1.171
92540SOL    HW279518  13.400  11.468   1.023
92541SOL     OW79519   4.903  13.855   3.691
92541SOL    HW179520   4.862  13.924   3.744
92541SOL    HW279521   4.914  13.894   3.605
92542SOL     OW79522   5.572   6.773   2.823
92542SOL    HW179523   5.645   6.730   2.777
92542SOL    HW279524   5.498   6.712   2.812
92543SOL     OW79525   3.251   1.636   6.443
92543SOL    HW179526   3.288   1.549   6.430
92543SOL    HW279527   3.239   1.643   6.538
92544SOL     OW79528   3.739   1.027   2.789
92544SOL    HW179529   3.682   0.951   2.780
92544SOL    HW279530   3.742   1.045   2.883
92545SOL     OW79531   9.071   5.291   9.988
92545SOL    HW179532   9.034   5.247  10.064
92545SOL    HW279533   9.014   5.367   9.973
92546SOL     OW79534  14.805  10.749   8.846
92546SOL    HW179535  14.772  10.809   8.779
92546SOL    HW279536   0.020  10.760   8.843
92547SOL     OW79537   8.125   7.003  10.687
92547SOL    HW179538   8.153   7.092  10.709
92547SOL    HW279539   8.033   7.013  10.661
92548SOL     OW79540   2.147  10.070  11.941
92548SOL    HW179541   2.219  10.129  11.965
92548SOL    HW279542   2.068  10.122  11.953
92549SOL     OW79543   0.677  10.226   5.369
92549SOL    HW179544   0.714  10.307   5.403
92549SOL    HW279545   0.709  10.221   5.279
92550SOL     OW79546   2.959  14.339   2.667
92550SOL    HW179547   2.973  14.248   2.639
92550SOL    HW279548   3.034  14.387   2.632
92551SOL     OW79549   9.319  10.557   3.228
92551SOL    HW179550   9.358  10.530   3.311
92551SOL    HW279551   9.393  10.572   3.170
92552SOL     OW79552   9.744   6.619   3.055
92552SOL    HW179553   9.811   6.635   2.989
92552SOL    HW279554   9.793   6.595   3.134
92553SOL     OW79555   6.744  13.040  13.781
92553SOL    HW179556   6.797  13.069  13.706
92553SOL    HW279557   6.696  13.118  13.807
92554SOL     OW79558   3.119   6.299   2.410
92554SOL    HW179559   3.193   6.284   2.351
92554SOL    HW279560   3.158   6.336   2.489
92555SOL     OW79561   8.265  12.818   4.407
92555SOL    HW179562   8.345  12.785   4.447
92555SOL    HW279563   8.268  12.912   4.422
92556SOL     OW79564  10.151   2.098   2.000
92556SOL    HW179565  10.110   2.067   1.919
92556SOL    HW279566  10.133   2.192   2.001
92557SOL     OW79567   1.347  12.890   0.781
92557SOL    HW179568   1.367  12.848   0.865
92557SOL    HW279569   1.395  12.839   0.716
92558SOL     OW79570   2.952   0.983  14.202
92558SOL    HW179571   2.929   0.894  14.226
92558SOL    HW279572   2.913   1.038  14.271
92559SOL     OW79573   6.641  14.285   9.029
92559SOL    HW179574   6.584  14.210   9.016
92559SOL    HW279575   6.583  14.361   9.019
92560SOL     OW79576   8.309   5.233   2.381
92560SOL    HW179577   8.323   5.287   2.303
92560SOL    HW279578   8.354   5.279   2.451
92561SOL     OW79579  12.888  10.849  12.900
92561SOL    HW179580  12.914  10.761  12.873
92561SOL    HW279581  12.809  10.867  12.848
92562SOL     OW79582  10.371   0.304   1.934
92562SOL    HW179583  10.397   0.367   1.867
92562SOL    HW279584  10.316   0.241   1.888
92563SOL     OW79585  10.887  12.699   3.122
92563SOL    HW179586  10.862  12.670   3.210
92563SOL    HW279587  10.865  12.625   3.065
92564SOL     OW79588   8.702  13.195   5.447
92564SOL    HW179589   8.640  13.261   5.479
92564SOL    HW279590   8.724  13.143   5.524
92565SOL     OW79591   6.826   9.130   6.555
92565SOL    HW179592   6.910   9.174   6.569
92565SOL    HW279593   6.793   9.167   6.474
92566SOL     OW79594   6.548   5.395   0.303
92566SOL    HW179595   6.527   5.441   0.222
92566SOL    HW279596   6.472   5.340   0.321
92567SOL     OW79597   3.938   1.036   6.773
92567SOL    HW179598   3.863   0.977   6.764
92567SOL    HW279599   4.000   1.007   6.706
92568SOL     OW79600   8.403  14.292  10.058
92568SOL    HW179601   8.429  14.327   9.973
92568SOL    HW279602   8.324  14.341  10.081
92569SOL     OW79603   4.127   9.545   6.584
92569SOL    HW179604   4.185   9.480   6.624
92569SOL    HW279605   4.086   9.590   6.657
92570SOL     OW79606  13.254   4.107   5.834
92570SOL    HW179607  13.206   4.174   5.786
92570SOL    HW279608  13.346   4.135   5.829
92571SOL     OW79609   4.061   3.834   5.933
92571SOL    HW179610   4.011   3.753   5.948
92571SOL    HW279611   3.995   3.900   5.915
92572SOL     OW79612   0.913  10.580   7.538
92572SOL    HW179613   0.858  10.558   7.463
92572SOL    HW279614   0.867  10.542   7.613
92573SOL     OW79615   3.370   3.313   7.168
92573SOL    HW179616   3.310   3.377   7.207
92573SOL    HW279617   3.390   3.349   7.082
92574SOL     OW79618  11.978   9.297   3.277
92574SOL    HW179619  11.947   9.284   3.367
92574SOL    HW279620  12.068   9.327   3.287
92575SOL     OW79621   5.618  14.547   5.882
92575SOL    HW179622   5.600  14.463   5.840
92575SOL    HW279623   5.607  14.530   5.976
92576SOL     OW79624   8.922  12.563   0.521
92576SOL    HW179625   8.858  12.633   0.532
92576SOL    HW279626   8.964  12.581   0.437
92577SOL     OW79627   1.049   9.093   9.980
92577SOL    HW179628   1.033   9.158   9.911
92577SOL    HW279629   1.144   9.095   9.991
92578SOL     OW79630   9.375  12.423   6.712
92578SOL    HW179631   9.304  12.359   6.717
92578SOL    HW279632   9.372  12.454   6.622
92579SOL     OW79633   1.269   3.679   5.371
92579SOL    HW179634   1.330   3.743   5.407
92579SOL    HW279635   1.300   3.664   5.281
92580SOL     OW79636   7.036  12.358   0.478
92580SOL    HW179637   7.076  12.278   0.514
92580SOL    HW279638   7.082  12.429   0.522
92581SOL     OW79639   3.180   8.500   4.533
92581SOL    HW179640   3.268   8.465   4.524
92581SOL    HW279641   3.126   8.444   4.477
92582SOL     OW79642  11.895  13.242   9.690
92582SOL    HW179643  11.803  13.268   9.683
92582SOL    HW279644  11.937  13.315   9.735
92583SOL     OW79645   9.838  14.611   3.697
92583SOL    HW179646   9.780  14.574   3.631
92583SOL    HW279647   9.921  14.624   3.652
92584SOL     OW79648   4.306   5.422  11.549
92584SOL    HW179649   4.291   5.346  11.604
92584SOL    HW279650   4.392   5.407  11.511
92585SOL     OW79651  11.071  12.772   1.483
92585SOL    HW179652  11.160  12.805   1.492
92585SOL    HW279653  11.081  12.687   1.441
92586SOL     OW79654   1.003  13.714   5.120
92586SOL    HW179655   0.941  13.683   5.187
92586SOL    HW279656   1.084  13.729   5.169
92587SOL     OW79657  13.231   5.521   5.369
92587SOL    HW179658  13.246   5.602   5.320
92587SOL    HW279659  13.316   5.498   5.405
92588SOL     OW79660   7.424  10.082   7.947
92588SOL    HW179661   7.446  10.063   8.038
92588SOL    HW279662   7.356  10.149   7.953
92589SOL     OW79663   1.668  13.258   9.515
92589SOL    HW179664   1.627  13.291   9.435
92589SOL    HW279665   1.724  13.187   9.485
92590SOL     OW79666   7.871  11.667   8.312
92590SOL    HW179667   7.808  11.713   8.257
92590SOL    HW279668   7.842  11.685   8.401
92591SOL     OW79669  11.526  10.993  12.630
92591SOL    HW179670  11.513  11.088  12.622
92591SOL    HW279671  11.621  10.982  12.623
92592SOL     OW79672   0.356   5.674   8.269
92592SOL    HW179673   0.355   5.688   8.175
92592SOL    HW279674   0.438   5.628   8.286
92593SOL     OW79675   9.806   7.488  14.116
92593SOL    HW179676   9.772   7.490  14.206
92593SOL    HW279677   9.728   7.495  14.061
92594SOL     OW79678   0.441  10.618  14.683
92594SOL    HW179679   0.431  10.542  14.741
92594SOL    HW279680   0.451  10.692  14.741
92595SOL     OW79681   5.732   5.028   9.189
92595SOL    HW179682   5.679   5.057   9.114
92595SOL    HW279683   5.748   4.935   9.173
92596SOL     OW79684  11.782   2.695   5.245
92596SOL    HW179685  11.775   2.659   5.333
92596SOL    HW279686  11.859   2.652   5.208
92597SOL     OW79687   5.209   4.967   9.071
92597SOL    HW179688   5.232   5.058   9.053
92597SOL    HW279689   5.264   4.916   9.012
92598SOL     OW79690   2.942   3.953  14.778
92598SOL    HW179691   2.924   3.964  14.872
92598SOL    HW279692   2.909   4.032  14.737
92599SOL     OW79693  12.765  10.164  10.908
92599SOL    HW179694  12.859  10.145  10.898
92599SOL    HW279695  12.726  10.132  10.827
92600SOL     OW79696  14.609  10.165   3.743
92600SOL    HW179697  14.688  10.111   3.746
92600SOL    HW279698  14.547  10.120   3.800
92601SOL     OW79699   8.920   9.434   7.571
92601SOL    HW179700   8.908   9.441   7.666
92601SOL    HW279701   8.972   9.511   7.548
92602SOL     OW79702   8.813   5.207  11.715
92602SOL    HW179703   8.882   5.217  11.650
92602SOL    HW279704   8.858   5.210  11.799
92603SOL     OW79705   9.029   4.291  13.468
92603SOL    HW179706   8.992   4.217  13.420
92603SOL    HW279707   9.026   4.364  13.405
92604SOL     OW79708  11.867  11.492   6.779
92604SOL    HW179709  11.929  11.557   6.811
92604SOL    HW279710  11.797  11.543   6.739
92605SOL     OW79711   9.822  11.774   7.191
92605SOL    HW179712   9.740  11.750   7.233
92605SOL    HW279713   9.819  11.728   7.107
92606SOL     OW79714   0.713   0.300   1.097
92606SOL    HW179715   0.756   0.227   1.052
92606SOL    HW279716   0.766   0.315   1.176
92607SOL     OW79717  11.294   1.336  12.301
92607SOL    HW179718  11.365   1.393  12.274
92607SOL    HW279719  11.332   1.248  12.299
92608SOL     OW79720  13.536   9.735  11.498
92608SOL    HW179721  13.535   9.692  11.584
92608SOL    HW279722  13.443   9.750  11.478
92609SOL     OW79723   7.206   9.814  13.500
92609SOL    HW179724   7.186   9.886  13.440
92609SOL    HW279725   7.300   9.819  13.514
92610SOL     OW79726  12.338   0.890  11.466
92610SOL    HW179727  12.371   0.810  11.426
92610SOL    HW279728  12.325   0.868  11.558
92611SOL     OW79729   3.725  13.621   0.417
92611SOL    HW179730   3.734  13.639   0.510
92611SOL    HW279731   3.813  13.592   0.390
92612SOL     OW79732   0.914  10.972  11.043
92612SOL    HW179733   0.852  10.949  10.974
92612SOL    HW279734   0.970  10.895  11.052
92613SOL     OW79735  12.096   8.408   7.416
92613SOL    HW179736  12.107   8.480   7.478
92613SOL    HW279737  12.180   8.364   7.414
92614SOL     OW79738   1.915  10.065   1.563
92614SOL    HW179739   1.993  10.085   1.511
92614SOL    HW279740   1.843  10.069   1.499
92615SOL     OW79741  11.253   0.249  14.303
92615SOL    HW179742  11.314   0.318  14.327
92615SOL    HW279743  11.302   0.168  14.316
92616SOL     OW79744   6.742  11.353  11.313
92616SOL    HW179745   6.683  11.279  11.330
92616SOL    HW279746   6.828  11.312  11.301
92617SOL     OW79747   2.485   1.673   8.182
92617SOL    HW179748   2.468   1.763   8.209
92617SOL    HW279749   2.429   1.619   8.239
92618SOL     OW79750  14.781   8.590   8.529
92618SOL    HW179751  14.803   8.503   8.562
92618SOL    HW279752  14.833   8.649   8.584
92619SOL     OW79753  10.112   1.075  12.337
92619SOL    HW179754  10.093   0.981  12.340
92619SOL    HW279755  10.071   1.110  12.417
92620SOL     OW79756  10.906   6.074  12.715
92620SOL    HW179757  10.874   6.007  12.655
92620SOL    HW279758  10.976   6.031  12.764
92621SOL     OW79759   3.303   0.347   5.229
92621SOL    HW179760   3.231   0.380   5.283
92621SOL    HW279761   3.262   0.329   5.144
92622SOL     OW79762   4.661   7.691   4.673
92622SOL    HW179763   4.659   7.759   4.606
92622SOL    HW279764   4.581   7.706   4.724
92623SOL     OW79765   1.026   1.584  13.277
92623SOL    HW179766   1.021   1.506  13.222
92623SOL    HW279767   0.936   1.618  13.278
92624SOL     OW79768  12.362  12.904   0.664
92624SOL    HW179769  12.381  12.865   0.579
92624SOL    HW279770  12.404  12.846   0.728
92625SOL     OW79771   8.132   0.260   9.535
92625SOL    HW179772   8.108   0.320   9.465
92625SOL    HW279773   8.112   0.173   9.501
92626SOL     OW79774  10.082   4.920   5.033
92626SOL    HW179775  10.151   4.873   5.081
92626SOL    HW279776  10.068   4.868   4.954
92627SOL     OW79777   6.607   5.408   3.945
92627SOL    HW179778   6.524   5.441   3.912
92627SOL    HW279779   6.583   5.337   4.004
92628SOL     OW79780  11.982  10.369   8.434
92628SOL    HW179781  12.061  10.408   8.398
92628SOL    HW279782  11.912  10.429   8.410
92629SOL     OW79783   6.782   6.274   3.737
92629SOL    HW179784   6.810   6.186   3.760
92629SOL    HW279785   6.730   6.303   3.812
92630SOL     OW79786   4.346   4.346  14.524
92630SOL    HW179787   4.428   4.302  14.504
92630SOL    HW279788   4.370   4.438  14.536
92631SOL     OW79789  14.786   1.967   6.051
92631SOL    HW179790  14.727   1.894   6.072
92631SOL    HW279791  14.746   2.009   5.975
92632SOL     OW79792  12.275  12.568  10.288
92632SOL    HW179793  12.269  12.534  10.198
92632SOL    HW279794  12.196  12.535  10.331
92633SOL     OW79795  13.940  14.491  10.836
92633SOL    HW179796  13.907  14.437  10.764
92633SOL    HW279797  14.008  14.438  10.876
92634SOL     OW79798   0.812   3.836  10.499
92634SOL    HW179799   0.824   3.749  10.537
92634SOL    HW279800   0.850   3.896  10.563
92635SOL     OW79801   6.298   2.989   5.980
92635SOL    HW179802   6.368   2.943   5.934
92635SOL    HW279803   6.255   2.922   6.032
92636SOL     OW79804   9.416  10.630   7.100
92636SOL    HW179805   9.465  10.617   7.019
92636SOL    HW279806   9.365  10.549   7.110
92637SOL     OW79807   8.721   8.489   9.654
92637SOL    HW179808   8.690   8.543   9.581
92637SOL    HW279809   8.678   8.527   9.731
92638SOL     OW79810   3.556  11.610   2.886
92638SOL    HW179811   3.601  11.526   2.875
92638SOL    HW279812   3.615  11.662   2.941
92639SOL     OW79813   2.836   3.540   7.356
92639SOL    HW179814   2.894   3.605   7.316
92639SOL    HW279815   2.851   3.548   7.450
92640SOL     OW79816   1.700   8.694   8.191
92640SOL    HW179817   1.786   8.658   8.208
92640SOL    HW279818   1.699   8.778   8.236
92641SOL     OW79819   3.578  11.321   4.391
92641SOL    HW179820   3.510  11.284   4.334
92641SOL    HW279821   3.654  11.264   4.377
92642SOL     OW79822  11.449   7.173  11.851
92642SOL    HW179823  11.448   7.210  11.763
92642SOL    HW279824  11.504   7.095  11.843
92643SOL     OW79825   1.741   0.788   9.925
92643SOL    HW179826   1.687   0.757   9.997
92643SOL    HW279827   1.803   0.716   9.909
92644SOL     OW79828   9.582  11.658   6.252
92644SOL    HW179829   9.552  11.686   6.339
92644SOL    HW279830   9.502  11.650   6.200
92645SOL     OW79831  12.434  11.836  10.466
92645SOL    HW179832  12.376  11.825  10.391
92645SOL    HW279833  12.452  11.930  10.468
92646SOL     OW79834   3.631  14.279   8.837
92646SOL    HW179835   3.669  14.350   8.888
92646SOL    HW279836   3.654  14.299   8.746
92647SOL     OW79837   7.876  14.787   7.517
92647SOL    HW179838   7.943  14.825   7.574
92647SOL    HW279839   7.905  14.698   7.501
92648SOL     OW79840   8.596   3.013   7.665
92648SOL    HW179841   8.615   3.072   7.592
92648SOL    HW279842   8.615   3.064   7.743
92649SOL     OW79843   2.959   0.547   4.935
92649SOL    HW179844   2.909   0.536   5.016
92649SOL    HW279845   2.972   0.641   4.927
92650SOL     OW79846   3.514   6.407   3.287
92650SOL    HW179847   3.433   6.459   3.288
92650SOL    HW279848   3.485   6.316   3.284
92651SOL     OW79849   8.905   4.306   5.541
92651SOL    HW179850   8.823   4.263   5.567
92651SOL    HW279851   8.926   4.364   5.615
92652SOL     OW79852  14.734  13.705   0.654
92652SOL    HW179853  14.798  13.654   0.605
92652SOL    HW279854  14.786  13.774   0.697
92653SOL     OW79855   1.559   0.323   9.782
92653SOL    HW179856   1.570   0.383   9.856
92653SOL    HW279857   1.504   0.253   9.816
92654SOL     OW79858  12.362   3.064  11.993
92654SOL    HW179859  12.333   2.989  11.941
92654SOL    HW279860  12.309   3.137  11.961
92655SOL     OW79861   3.906   3.827   0.593
92655SOL    HW179862   3.893   3.832   0.688
92655SOL    HW279863   3.826   3.866   0.556
92656SOL     OW79864  11.127   7.305   9.006
92656SOL    HW179865  11.178   7.363   8.950
92656SOL    HW279866  11.101   7.358   9.081
92657SOL     OW79867   5.942  14.601   4.904
92657SOL    HW179868   5.863  14.555   4.876
92657SOL    HW279869   5.911  14.665   4.968
92658SOL     OW79870  12.301   4.058   5.334
92658SOL    HW179871  12.303   4.045   5.240
92658SOL    HW279872  12.367   3.998   5.369
92659SOL     OW79873   4.071   4.679   2.750
92659SOL    HW179874   4.064   4.769   2.784
92659SOL    HW279875   4.057   4.624   2.827
92660SOL     OW79876  11.285   3.575   7.581
92660SOL    HW179877  11.199   3.536   7.570
92660SOL    HW279878  11.278   3.662   7.540
92661SOL     OW79879   2.791   1.870   6.660
92661SOL    HW179880   2.843   1.805   6.707
92661SOL    HW279881   2.715   1.886   6.717
92662SOL     OW79882  13.952   4.087  10.016
92662SOL    HW179883  13.882   4.042   9.968
92662SOL    HW279884  13.922   4.090  10.106
92663SOL     OW79885   0.626   3.510   4.364
92663SOL    HW179886   0.636   3.460   4.445
92663SOL    HW279887   0.683   3.586   4.374
92664SOL     OW79888   7.967   6.555   5.555
92664SOL    HW179889   7.886   6.594   5.590
92664SOL    HW279890   8.030   6.626   5.556
92665SOL     OW79891   7.940   0.582   7.219
92665SOL    HW179892   7.869   0.534   7.177
92665SOL    HW279893   8.020   0.538   7.189
92666SOL     OW79894   8.263   0.234   6.485
92666SOL    HW179895   8.272   0.330   6.488
92666SOL    HW279896   8.338   0.201   6.533
92667SOL     OW79897   7.931   9.573  14.563
92667SOL    HW179898   7.979   9.577  14.646
92667SOL    HW279899   7.980   9.511  14.510
92668SOL     OW79900  12.931   1.643  13.588
92668SOL    HW179901  12.861   1.607  13.534
92668SOL    HW279902  12.933   1.588  13.666
92669SOL     OW79903   0.883  11.613  12.303
92669SOL    HW179904   0.861  11.609  12.210
92669SOL    HW279905   0.806  11.578  12.347
92670SOL     OW79906   7.694   4.902  14.575
92670SOL    HW179907   7.641   4.961  14.521
92670SOL    HW279908   7.782   4.940  14.572
92671SOL     OW79909  12.364   2.190   8.036
92671SOL    HW179910  12.339   2.099   8.016
92671SOL    HW279911  12.398   2.186   8.125
92672SOL     OW79912  13.561   3.189  14.613
92672SOL    HW179913  13.576   3.176  14.707
92672SOL    HW279914  13.637   3.147  14.571
92673SOL     OW79915   1.810  14.016  13.513
92673SOL    HW179916   1.824  13.940  13.570
92673SOL    HW279917   1.720  14.043  13.531
92674SOL     OW79918   7.121  12.122   5.288
92674SOL    HW179919   7.140  12.040   5.243
92674SOL    HW279920   7.192  12.181   5.261
92675SOL     OW79921  10.701   4.127   3.544
92675SOL    HW179922  10.693   4.221   3.525
92675SOL    HW279923  10.691   4.085   3.459
92676SOL     OW79924   4.298   5.934   4.769
92676SOL    HW179925   4.325   5.937   4.677
92676SOL    HW279926   4.360   5.991   4.814
92677SOL     OW79927   5.095  10.535   0.272
92677SOL    HW179928   5.135  10.544   0.358
92677SOL    HW279929   5.169  10.534   0.211
92678SOL     OW79930   8.338   9.146   3.560
92678SOL    HW179931   8.322   9.192   3.477
92678SOL    HW279932   8.410   9.087   3.540
92679SOL     OW79933   9.970   6.365   9.249
92679SOL    HW179934  10.039   6.422   9.282
92679SOL    HW279935   9.902   6.426   9.219
92680SOL     OW79936   3.394   8.675   8.352
92680SOL    HW179937   3.408   8.725   8.433
92680SOL    HW279938   3.443   8.724   8.286
92681SOL     OW79939  13.391  12.782   1.917
92681SOL    HW179940  13.457  12.806   1.981
92681SOL    HW279941  13.417  12.695   1.886
92682SOL     OW79942   1.715   2.004   9.810
92682SOL    HW179943   1.793   1.997   9.865
92682SOL    HW279944   1.648   2.041   9.867
92683SOL     OW79945  11.282   0.281   3.807
92683SOL    HW179946  11.251   0.371   3.808
92683SOL    HW279947  11.373   0.287   3.839
92684SOL     OW79948   3.756  12.198   5.509
92684SOL    HW179949   3.663  12.175   5.515
92684SOL    HW279950   3.793  12.133   5.449
92685SOL     OW79951  14.696   8.642   3.645
92685SOL    HW179952  14.770   8.631   3.586
92685SOL    HW279953  14.711   8.727   3.687
92686SOL     OW79954  10.700   9.660  12.341
92686SOL    HW179955  10.673   9.675  12.251
92686SOL    HW279956  10.692   9.566  12.354
92687SOL     OW79957   3.929   1.404   1.560
92687SOL    HW179958   3.954   1.402   1.468
92687SOL    HW279959   3.884   1.488   1.571
92688SOL     OW79960   8.031  13.313   2.251
92688SOL    HW179961   8.012  13.305   2.158
92688SOL    HW279962   8.080  13.394   2.259
92689SOL     OW79963  12.857  12.527  10.376
92689SOL    HW179964  12.776  12.521  10.324
92689SOL    HW279965  12.908  12.451  10.348
92690SOL     OW79966  11.960   9.696   7.187
92690SOL    HW179967  11.906   9.775   7.192
92690SOL    HW279968  11.949   9.654   7.272
92691SOL     OW79969   3.282   2.550   3.318
92691SOL    HW179970   3.229   2.571   3.395
92691SOL    HW279971   3.220   2.513   3.256
92692SOL     OW79972   6.981  12.568   3.779
92692SOL    HW179973   7.033  12.630   3.728
92692SOL    HW279974   7.042  12.497   3.799
92693SOL     OW79975  11.115   0.775  13.520
92693SOL    HW179976  11.055   0.847  13.537
92693SOL    HW279977  11.148   0.750  13.606
92694SOL     OW79978  13.150  12.008   9.104
92694SOL    HW179979  13.159  11.921   9.065
92694SOL    HW279980  13.158  12.069   9.030
92695SOL     OW79981  10.846   7.165   0.009
92695SOL    HW179982  10.855   7.078  14.849
92695SOL    HW279983  10.875   7.152   0.099
92696SOL     OW79984   8.099   4.164   2.692
92696SOL    HW179985   8.135   4.176   2.604
92696SOL    HW279986   8.123   4.245   2.738
92697SOL     OW79987  12.252   1.344  12.492
92697SOL    HW179988  12.312   1.369  12.563
92697SOL    HW279989  12.307   1.294  12.431
92698SOL     OW79990   6.216   7.119   7.919
92698SOL    HW179991   6.163   7.068   7.858
92698SOL    HW279992   6.173   7.107   8.004
92699SOL     OW79993   9.199   2.962   0.649
92699SOL    HW179994   9.217   2.871   0.674
92699SOL    HW279995   9.235   2.970   0.560
92700SOL     OW79996   7.423  10.689  10.640
92700SOL    HW179997   7.379  10.725  10.563
92700SOL    HW279998   7.366  10.618  10.668
92701SOL     OW79999   2.951  12.314   4.421
92701SOL    HW180000   3.032  12.363   4.411
92701SOL    HW280001   2.976  12.234   4.467
92702SOL     OW80002  11.120   9.930   8.287
92702SOL    HW180003  11.082   9.850   8.251
92702SOL    HW280004  11.137   9.909   8.379
92703SOL     OW80005   3.103   5.809   2.838
92703SOL    HW180006   3.117   5.720   2.871
92703SOL    HW280007   3.013   5.829   2.862
92704SOL     OW80008   3.931  10.204  13.978
92704SOL    HW180009   4.000  10.162  13.926
92704SOL    HW280010   3.970  10.287  14.007
92705SOL     OW80011   8.259   0.099  11.680
92705SOL    HW180012   8.276   0.006  11.693
92705SOL    HW280013   8.177   0.102  11.631
92706SOL     OW80014   3.241   5.238   3.428
92706SOL    HW180015   3.239   5.160   3.372
92706SOL    HW280016   3.179   5.299   3.387
92707SOL     OW80017  11.157  11.064  11.940
92707SOL    HW180018  11.211  11.078  11.862
92707SOL    HW280019  11.116  10.979  11.926
92708SOL     OW80020   5.413  13.603  14.454
92708SOL    HW180021   5.412  13.630  14.362
92708SOL    HW280022   5.476  13.532  14.458
92709SOL     OW80023  14.629  10.351   6.570
92709SOL    HW180024  14.664  10.286   6.509
92709SOL    HW280025  14.668  10.433   6.541
92710SOL     OW80026   2.145   4.548  10.249
92710SOL    HW180027   2.124   4.464  10.289
92710SOL    HW280028   2.061   4.593  10.242
92711SOL     OW80029   1.505  13.624  11.883
92711SOL    HW180030   1.505  13.529  11.880
92711SOL    HW280031   1.530  13.646  11.973
92712SOL     OW80032   9.267   4.317   6.160
92712SOL    HW180033   9.185   4.339   6.116
92712SOL    HW280034   9.264   4.221   6.170
92713SOL     OW80035   9.920  14.845   4.036
92713SOL    HW180036   9.882   0.034   4.091
92713SOL    HW280037   9.899  14.871   3.947
92714SOL     OW80038   4.619   0.976   4.231
92714SOL    HW180039   4.605   0.955   4.323
92714SOL    HW280040   4.563   0.915   4.184
92715SOL     OW80041   3.967   4.343  11.208
92715SOL    HW180042   3.890   4.382  11.248
92715SOL    HW280043   4.018   4.308  11.281
92716SOL     OW80044  11.712   2.615  10.361
92716SOL    HW180045  11.735   2.625  10.268
92716SOL    HW280046  11.794   2.632  10.407
92717SOL     OW80047   9.833   7.557  11.572
92717SOL    HW180048   9.787   7.601  11.645
92717SOL    HW280049   9.835   7.465  11.598
92718SOL     OW80050   7.100  14.162  12.726
92718SOL    HW180051   7.117  14.119  12.643
92718SOL    HW280052   7.161  14.122  12.788
92719SOL     OW80053  13.813  11.479   5.707
92719SOL    HW180054  13.760  11.558   5.700
92719SOL    HW280055  13.752  11.407   5.691
92720SOL     OW80056   5.466  14.255   2.364
92720SOL    HW180057   5.446  14.177   2.415
92720SOL    HW280058   5.407  14.322   2.398
92721SOL     OW80059   4.427   1.243   4.934
92721SOL    HW180060   4.499   1.306   4.929
92721SOL    HW280061   4.454   1.181   5.002
92722SOL     OW80062   6.391  13.164   6.053
92722SOL    HW180063   6.375  13.257   6.042
92722SOL    HW280064   6.472  13.159   6.105
92723SOL     OW80065   1.087   9.848  11.494
92723SOL    HW180066   1.064   9.939  11.474
92723SOL    HW280067   1.134   9.853  11.577
92724SOL     OW80068  10.065   9.125   9.840
92724SOL    HW180069  10.145   9.173   9.861
92724SOL    HW280070  10.051   9.068   9.916
92725SOL     OW80071   4.367   2.909   3.072
92725SOL    HW180072   4.272   2.909   3.084
92725SOL    HW280073   4.391   2.816   3.071
92726SOL     OW80074  14.012   7.213   2.500
92726SOL    HW180075  14.098   7.226   2.541
92726SOL    HW280076  13.965   7.157   2.561
92727SOL     OW80077   8.808   2.087  12.336
92727SOL    HW180078   8.754   2.011  12.356
92727SOL    HW280079   8.884   2.052  12.290
92728SOL     OW80080   0.414   3.715  13.074
92728SOL    HW180081   0.424   3.623  13.050
92728SOL    HW280082   0.430   3.763  12.993
92729SOL     OW80083   0.420  12.015   9.135
92729SOL    HW180084   0.379  11.940   9.177
92729SOL    HW280085   0.476  12.053   9.202
92730SOL     OW80086   0.527  11.509  12.124
92730SOL    HW180087   0.434  11.516  12.104
92730SOL    HW280088   0.539  11.419  12.154
92731SOL     OW80089   3.556   9.441   6.713
92731SOL    HW180090   3.620   9.454   6.644
92731SOL    HW280091   3.583   9.360   6.756
92732SOL     OW80092   7.077   9.000   8.419
92732SOL    HW180093   7.092   8.970   8.329
92732SOL    HW280094   7.078   8.919   8.471
92733SOL     OW80095   3.454   9.290  11.614
92733SOL    HW180096   3.497   9.369  11.645
92733SOL    HW280097   3.513   9.255  11.547
92734SOL     OW80098   7.397   4.315  11.705
92734SOL    HW180099   7.350   4.344  11.627
92734SOL    HW280100   7.432   4.229  11.681
92735SOL     OW80101   8.081  10.581   0.303
92735SOL    HW180102   8.009  10.638   0.329
92735SOL    HW280103   8.122  10.555   0.385
92736SOL     OW80104   5.271   7.976   7.215
92736SOL    HW180105   5.267   8.042   7.146
92736SOL    HW280106   5.184   7.937   7.216
92737SOL     OW80107  13.876  13.111  12.235
92737SOL    HW180108  13.790  13.071  12.245
92737SOL    HW280109  13.901  13.136  12.324
92738SOL     OW80110  13.699   1.143   0.678
92738SOL    HW180111  13.697   1.113   0.769
92738SOL    HW280112  13.711   1.237   0.683
92739SOL     OW80113   2.463   2.720   3.490
92739SOL    HW180114   2.435   2.638   3.530
92739SOL    HW280115   2.391   2.780   3.506
92740SOL     OW80116  12.811   6.336   3.814
92740SOL    HW180117  12.844   6.425   3.832
92740SOL    HW280118  12.761   6.345   3.733
92741SOL     OW80119   5.707  10.848  14.159
92741SOL    HW180120   5.759  10.888  14.228
92741SOL    HW280121   5.742  10.885  14.078
92742SOL     OW80122   6.453   5.109  13.942
92742SOL    HW180123   6.493   5.075  13.862
92742SOL    HW280124   6.450   5.033  14.001
92743SOL     OW80125   8.062   5.997   4.008
92743SOL    HW180126   7.981   5.978   4.055
92743SOL    HW280127   8.045   6.080   3.963
92744SOL     OW80128  13.478   9.035   0.343
92744SOL    HW180129  13.425   9.075   0.411
92744SOL    HW280130  13.529   8.968   0.388
92745SOL     OW80131   3.103  12.396   9.941
92745SOL    HW180132   3.198  12.400   9.926
92745SOL    HW280133   3.094  12.339  10.017
92746SOL     OW80134   8.376  13.827   2.175
92746SOL    HW180135   8.399  13.776   2.253
92746SOL    HW280136   8.356  13.915   2.209
92747SOL     OW80137   8.015   0.419   1.671
92747SOL    HW180138   8.041   0.476   1.600
92747SOL    HW280139   8.095   0.405   1.722
92748SOL     OW80140  12.177   8.639   4.706
92748SOL    HW180141  12.205   8.728   4.684
92748SOL    HW280142  12.190   8.589   4.625
92749SOL     OW80143   8.801   0.939   7.427
92749SOL    HW180144   8.712   0.914   7.451
92749SOL    HW280145   8.836   0.979   7.507
92750SOL     OW80146  13.708   1.165  10.919
92750SOL    HW180147  13.655   1.127  10.849
92750SOL    HW280148  13.645   1.183  10.989
92751SOL     OW80149   3.698   9.802   1.346
92751SOL    HW180150   3.668   9.727   1.396
92751SOL    HW280151   3.655   9.877   1.387
92752SOL     OW80152  13.538   4.834   8.774
92752SOL    HW180153  13.453   4.873   8.753
92752SOL    HW280154  13.602   4.899   8.746
92753SOL     OW80155  13.353   4.697   0.743
92753SOL    HW180156  13.388   4.612   0.772
92753SOL    HW280157  13.379   4.758   0.811
92754SOL     OW80158   8.499  13.141  13.915
92754SOL    HW180159   8.486  13.055  13.876
92754SOL    HW280160   8.591  13.161  13.899
92755SOL     OW80161   8.410  11.176   1.080
92755SOL    HW180162   8.392  11.255   1.131
92755SOL    HW280163   8.362  11.107   1.125
92756SOL     OW80164   0.528   5.644   0.129
92756SOL    HW180165   0.565   5.575   0.184
92756SOL    HW280166   0.533   5.609   0.040
92757SOL     OW80167  12.526   8.649   7.675
92757SOL    HW180168  12.514   8.573   7.618
92757SOL    HW280169  12.580   8.617   7.747
92758SOL     OW80170   4.141   2.182   2.384
92758SOL    HW180171   4.099   2.136   2.312
92758SOL    HW280172   4.226   2.210   2.349
92759SOL     OW80173  12.162   3.676   0.296
92759SOL    HW180174  12.129   3.626   0.371
92759SOL    HW280175  12.184   3.610   0.230
92760SOL     OW80176  13.813   6.528   8.669
92760SOL    HW180177  13.814   6.593   8.739
92760SOL    HW280178  13.885   6.553   8.611
92761SOL     OW80179   8.448  10.169   3.996
92761SOL    HW180180   8.382  10.180   3.927
92761SOL    HW280181   8.486  10.083   3.979
92762SOL     OW80182  12.099  11.813   8.975
92762SOL    HW180183  12.164  11.853   8.918
92762SOL    HW280184  12.102  11.719   8.953
92763SOL     OW80185   8.051   7.730   4.579
92763SOL    HW180186   8.108   7.749   4.653
92763SOL    HW280187   7.963   7.747   4.612
92764SOL     OW80188   0.015  12.059   5.366
92764SOL    HW180189   0.045  12.090   5.281
92764SOL    HW280190  14.849  11.977   5.346
92765SOL     OW80191  11.189  13.933   3.105
92765SOL    HW180192  11.214  13.961   3.017
92765SOL    HW280193  11.230  13.998   3.163
92766SOL     OW80194   3.763  13.365   4.057
92766SOL    HW180195   3.693  13.423   4.089
92766SOL    HW280196   3.716  13.299   4.006
92767SOL     OW80197   4.432  12.798   1.797
92767SOL    HW180198   4.463  12.712   1.824
92767SOL    HW280199   4.337  12.790   1.795
92768SOL     OW80200   4.962  12.045   5.314
92768SOL    HW180201   4.930  11.956   5.303
92768SOL    HW280202   5.044  12.036   5.363
92769SOL     OW80203   1.048  12.093   5.302
92769SOL    HW180204   1.074  12.087   5.394
92769SOL    HW280205   1.129  12.114   5.256
92770SOL     OW80206   2.904   0.164  10.880
92770SOL    HW180207   2.916   0.113  10.960
92770SOL    HW280208   2.979   0.141  10.825
92771SOL     OW80209   3.797  12.557   9.413
92771SOL    HW180210   3.737  12.553   9.339
92771SOL    HW280211   3.820  12.466   9.430
92772SOL     OW80212  13.507  14.758   8.438
92772SOL    HW180213  13.422  14.713   8.440
92772SOL    HW280214  13.533  14.764   8.530
92773SOL     OW80215   7.499  13.031  14.454
92773SOL    HW180216   7.496  13.114  14.407
92773SOL    HW280217   7.513  12.966  14.385
92774SOL     OW80218  13.697   1.535   5.720
92774SOL    HW180219  13.625   1.562   5.663
92774SOL    HW280220  13.716   1.612   5.773
92775SOL     OW80221  12.423   0.569   0.586
92775SOL    HW180222  12.336   0.595   0.557
92775SOL    HW280223  12.483   0.629   0.541
92776SOL     OW80224   5.133  14.567   7.280
92776SOL    HW180225   5.158  14.475   7.280
92776SOL    HW280226   5.165  14.601   7.196
92777SOL     OW80227  10.837   2.225   9.415
92777SOL    HW180228  10.870   2.221   9.326
92777SOL    HW280229  10.909   2.193   9.469
92778SOL     OW80230   0.654  11.924   6.877
92778SOL    HW180231   0.661  11.831   6.897
92778SOL    HW280232   0.564  11.935   6.846
92779SOL     OW80233   8.076   1.744   9.662
92779SOL    HW180234   8.062   1.672   9.600
92779SOL    HW280235   8.136   1.708   9.728
92780SOL     OW80236   4.681  10.481   0.489
92780SOL    HW180237   4.632  10.405   0.457
92780SOL    HW280238   4.772  10.451   0.493
92781SOL     OW80239   5.085  13.307   9.828
92781SOL    HW180240   5.009  13.260   9.862
92781SOL    HW280241   5.054  13.351   9.749
92782SOL     OW80242  10.457   7.495   8.742
92782SOL    HW180243  10.495   7.429   8.684
92782SOL    HW280244  10.365   7.498   8.718
92783SOL     OW80245   7.896   1.920   0.498
92783SOL    HW180246   7.965   1.950   0.557
92783SOL    HW280247   7.901   1.824   0.502
92784SOL     OW80248   0.631   0.868   8.770
92784SOL    HW180249   0.576   0.906   8.701
92784SOL    HW280250   0.650   0.780   8.739
92785SOL     OW80251   4.718  14.644  10.272
92785SOL    HW180252   4.635  14.613  10.308
92785SOL    HW280253   4.693  14.711  10.208
92786SOL     OW80254  10.488   3.730   7.976
92786SOL    HW180255  10.398   3.755   7.955
92786SOL    HW280256  10.530   3.716   7.891
92787SOL     OW80257  14.032   5.384   7.313
92787SOL    HW180258  14.093   5.362   7.384
92787SOL    HW280259  13.946   5.373   7.352
92788SOL     OW80260   8.224   8.474   5.003
92788SOL    HW180261   8.284   8.523   4.947
92788SOL    HW280262   8.281   8.418   5.056
92789SOL     OW80263   1.815   1.266   3.581
92789SOL    HW180264   1.879   1.337   3.584
92789SOL    HW280265   1.824   1.222   3.666
92790SOL     OW80266   7.232   3.179   4.660
92790SOL    HW180267   7.322   3.209   4.643
92790SOL    HW280268   7.189   3.254   4.701
92791SOL     OW80269  11.968   0.319   1.588
92791SOL    HW180270  12.046   0.324   1.644
92791SOL    HW280271  11.963   0.406   1.548
92792SOL     OW80272   4.600   2.336   2.428
92792SOL    HW180273   4.671   2.371   2.481
92792SOL    HW280274   4.531   2.403   2.433
92793SOL     OW80275  14.474   9.794   1.972
92793SOL    HW180276  14.392   9.754   2.001
92793SOL    HW280277  14.525   9.804   2.052
92794SOL     OW80278  13.614   5.223   3.838
92794SOL    HW180279  13.600   5.165   3.763
92794SOL    HW280280  13.641   5.165   3.909
92795SOL     OW80281   0.603  12.198  12.581
92795SOL    HW180282   0.620  12.206  12.487
92795SOL    HW280283   0.534  12.133  12.588
92796SOL     OW80284   3.579   8.229   8.794
92796SOL    HW180285   3.489   8.201   8.807
92796SOL    HW280286   3.630   8.183   8.860
92797SOL     OW80287  11.330   6.432   4.292
92797SOL    HW180288  11.361   6.378   4.219
92797SOL    HW280289  11.236   6.442   4.276
92798SOL     OW80290   0.348   3.225   0.380
92798SOL    HW180291   0.253   3.224   0.384
92798SOL    HW280292   0.376   3.228   0.472
92799SOL     OW80293  12.474   6.453  10.159
92799SOL    HW180294  12.558   6.498  10.159
92799SOL    HW280295  12.456   6.436  10.251
92800SOL     OW80296  12.490  12.064   3.984
92800SOL    HW180297  12.508  12.126   3.914
92800SOL    HW280298  12.551  11.992   3.969
92801SOL     OW80299   1.386   8.849   6.714
92801SOL    HW180300   1.452   8.917   6.700
92801SOL    HW280301   1.431   8.782   6.765
92802SOL     OW80302   6.371  13.520   4.361
92802SOL    HW180303   6.355  13.523   4.267
92802SOL    HW280304   6.297  13.471   4.397
92803SOL     OW80305  12.216   0.931   7.033
92803SOL    HW180306  12.311   0.942   7.026
92803SOL    HW280307  12.206   0.854   7.089
92804SOL     OW80308  11.524  13.465  13.848
92804SOL    HW180309  11.510  13.380  13.889
92804SOL    HW280310  11.438  13.507  13.849
92805SOL     OW80311   0.992   6.611   5.796
92805SOL    HW180312   0.949   6.549   5.737
92805SOL    HW280313   0.920   6.662   5.833
92806SOL     OW80314   4.229  14.309   1.404
92806SOL    HW180315   4.298  14.245   1.420
92806SOL    HW280316   4.160  14.286   1.466
92807SOL     OW80317   0.944   3.877   7.440
92807SOL    HW180318   1.003   3.921   7.502
92807SOL    HW280319   0.931   3.941   7.370
92808SOL     OW80320   3.694   5.716   6.873
92808SOL    HW180321   3.774   5.695   6.922
92808SOL    HW280322   3.686   5.811   6.880
92809SOL     OW80323   6.178   3.614   2.013
92809SOL    HW180324   6.229   3.570   1.945
92809SOL    HW280325   6.194   3.707   1.998
92810SOL     OW80326   8.436  12.832   7.331
92810SOL    HW180327   8.507  12.771   7.309
92810SOL    HW280328   8.433  12.893   7.258
92811SOL     OW80329   0.982   7.025   3.717
92811SOL    HW180330   1.076   7.042   3.718
92811SOL    HW280331   0.947   7.075   3.790
92812SOL     OW80332  14.150  14.260  11.629
92812SOL    HW180333  14.177  14.191  11.568
92812SOL    HW280334  14.185  14.232  11.714
92813SOL     OW80335   8.650   3.669  13.276
92813SOL    HW180336   8.713   3.740  13.270
92813SOL    HW280337   8.577   3.697  13.220
92814SOL     OW80338   1.783   5.242   8.164
92814SOL    HW180339   1.834   5.321   8.143
92814SOL    HW280340   1.824   5.209   8.244
92815SOL     OW80341   4.214   4.062   5.440
92815SOL    HW180342   4.207   3.977   5.482
92815SOL    HW280343   4.175   4.123   5.502
92816SOL     OW80344   6.416   0.359  12.254
92816SOL    HW180345   6.328   0.371  12.289
92816SOL    HW280346   6.412   0.278  12.204
92817SOL     OW80347   3.567  14.415   4.453
92817SOL    HW180348   3.527  14.485   4.504
92817SOL    HW280349   3.511  14.406   4.376
92818SOL     OW80350  12.710   1.864   7.437
92818SOL    HW180351  12.668   1.778   7.446
92818SOL    HW280352  12.804   1.845   7.433
92819SOL     OW80353   5.778   3.590  10.024
92819SOL    HW180354   5.694   3.591  10.069
92819SOL    HW280355   5.779   3.671   9.972
92820SOL     OW80356  10.135  12.994   1.792
92820SOL    HW180357  10.223  12.962   1.775
92820SOL    HW280358  10.086  12.917   1.818
92821SOL     OW80359   5.478  10.885   9.620
92821SOL    HW180360   5.452  10.848   9.535
92821SOL    HW280361   5.555  10.938   9.600
92822SOL     OW80362  12.402   6.366  14.657
92822SOL    HW180363  12.467   6.348  14.589
92822SOL    HW280364  12.419   6.456  14.683
92823SOL     OW80365   2.424   9.749  11.894
92823SOL    HW180366   2.462   9.672  11.937
92823SOL    HW280367   2.373   9.792  11.963
92824SOL     OW80368  13.609   7.474  14.575
92824SOL    HW180369  13.581   7.403  14.633
92824SOL    HW280370  13.529   7.498  14.528
92825SOL     OW80371   3.328   6.061  13.058
92825SOL    HW180372   3.256   6.043  12.997
92825SOL    HW280373   3.407   6.044  13.008
92826SOL     OW80374   0.729   5.928  13.880
92826SOL    HW180375   0.667   5.878  13.826
92826SOL    HW280376   0.734   6.014  13.837
92827SOL     OW80377  13.717   4.505  13.327
92827SOL    HW180378  13.647   4.459  13.374
92827SOL    HW280379  13.783   4.524  13.393
92828SOL     OW80380  11.619  11.936  12.863
92828SOL    HW180381  11.682  11.904  12.798
92828SOL    HW280382  11.539  11.952  12.813
92829SOL     OW80383   3.463   9.337   5.057
92829SOL    HW180384   3.558   9.343   5.062
92829SOL    HW280385   3.433   9.376   5.140
92830SOL     OW80386   7.579   1.640   7.293
92830SOL    HW180387   7.493   1.598   7.299
92830SOL    HW280388   7.609   1.646   7.383
92831SOL     OW80389   0.530  10.882   6.367
92831SOL    HW180390   0.576  10.963   6.346
92831SOL    HW280391   0.579  10.814   6.320
92832SOL     OW80392   2.846   1.615   6.196
92832SOL    HW180393   2.941   1.628   6.189
92832SOL    HW280394   2.823   1.653   6.280
92833SOL     OW80395   6.670   2.820   0.780
92833SOL    HW180396   6.740   2.838   0.842
92833SOL    HW280397   6.597   2.875   0.810
92834SOL     OW80398   9.267   1.297   9.422
92834SOL    HW180399   9.245   1.354   9.496
92834SOL    HW280400   9.191   1.303   9.364
92835SOL     OW80401   1.989   5.449   9.727
92835SOL    HW180402   1.940   5.368   9.739
92835SOL    HW280403   2.015   5.474   9.816
92836SOL     OW80404  14.005  10.402   4.276
92836SOL    HW180405  13.931  10.448   4.235
92836SOL    HW280406  13.976  10.312   4.283
92837SOL     OW80407   7.535   6.914   3.546
92837SOL    HW180408   7.596   6.861   3.494
92837SOL    HW280409   7.505   6.982   3.485
92838SOL     OW80410   4.126  13.283   4.368
92838SOL    HW180411   4.111  13.239   4.451
92838SOL    HW280412   4.218  13.310   4.370
92839SOL     OW80413   0.652   7.266   9.812
92839SOL    HW180414   0.667   7.352   9.851
92839SOL    HW280415   0.592   7.222   9.872
92840SOL     OW80416   1.741   6.931   5.794
92840SOL    HW180417   1.778   7.006   5.841
92840SOL    HW280418   1.767   6.944   5.703
92841SOL     OW80419   7.483  13.974  11.905
92841SOL    HW180420   7.405  13.921  11.921
92841SOL    HW280421   7.490  13.979  11.810
92842SOL     OW80422  11.294  12.867   4.276
92842SOL    HW180423  11.301  12.773   4.290
92842SOL    HW280424  11.215  12.878   4.224
92843SOL     OW80425   1.815   6.509  11.646
92843SOL    HW180426   1.901   6.547  11.660
92843SOL    HW280427   1.796   6.462  11.727
92844SOL     OW80428   2.867   3.163   3.824
92844SOL    HW180429   2.944   3.181   3.772
92844SOL    HW280430   2.846   3.071   3.806
92845SOL     OW80431   5.732  12.827  12.097
92845SOL    HW180432   5.779  12.745  12.078
92845SOL    HW280433   5.664  12.831  12.030
92846SOL     OW80434  10.863  12.181   8.949
92846SOL    HW180435  10.775  12.147   8.934
92846SOL    HW280436  10.903  12.183   8.862
92847SOL     OW80437   9.506  10.040   6.589
92847SOL    HW180438   9.516  10.105   6.519
92847SOL    HW280439   9.420  10.002   6.575
92848SOL     OW80440   4.983  14.292   4.293
92848SOL    HW180441   4.952  14.365   4.240
92848SOL    HW280442   5.051  14.330   4.349
92849SOL     OW80443  11.456   0.608   1.919
92849SOL    HW180444  11.491   0.575   2.002
92849SOL    HW280445  11.374   0.560   1.907
92850SOL     OW80446   9.597   1.688  13.020
92850SOL    HW180447   9.655   1.760  13.043
92850SOL    HW280448   9.510   1.717  13.049
92851SOL     OW80449   0.645  12.737   7.452
92851SOL    HW180450   0.628  12.830   7.466
92851SOL    HW280451   0.561  12.695   7.470
92852SOL     OW80452   7.340  14.414   5.925
92852SOL    HW180453   7.264  14.420   5.982
92852SOL    HW280454   7.305  14.425   5.837
92853SOL     OW80455  10.480   4.556   9.979
92853SOL    HW180456  10.410   4.574   9.916
92853SOL    HW280457  10.435   4.514  10.053
92854SOL     OW80458   7.407   7.246   4.719
92854SOL    HW180459   7.428   7.223   4.628
92854SOL    HW280460   7.319   7.210   4.733
92855SOL     OW80461   9.729   1.166   3.690
92855SOL    HW180462   9.658   1.197   3.634
92855SOL    HW280463   9.757   1.243   3.740
92856SOL     OW80464   3.404  13.162   9.925
92856SOL    HW180465   3.419  13.133   9.835
92856SOL    HW280466   3.359  13.246   9.917
92857SOL     OW80467   7.977  14.370   4.184
92857SOL    HW180468   7.988  14.377   4.279
92857SOL    HW280469   8.052  14.417   4.147
92858SOL     OW80470   4.731   1.300   9.654
92858SOL    HW180471   4.812   1.252   9.637
92858SOL    HW280472   4.708   1.337   9.569
92859SOL     OW80473   6.325   8.855   1.305
92859SOL    HW180474   6.306   8.774   1.353
92859SOL    HW280475   6.355   8.916   1.373
92860SOL     OW80476   5.504   6.840  13.591
92860SOL    HW180477   5.569   6.895  13.635
92860SOL    HW280478   5.552   6.762  13.566
92861SOL     OW80479   3.348   6.235   1.939
92861SOL    HW180480   3.422   6.288   1.908
92861SOL    HW280481   3.294   6.221   1.861
92862SOL     OW80482   5.615   4.971   8.948
92862SOL    HW180483   5.658   4.907   8.892
92862SOL    HW280484   5.522   4.965   8.925
92863SOL     OW80485   7.026   7.661   6.252
92863SOL    HW180486   7.036   7.589   6.190
92863SOL    HW280487   7.074   7.734   6.213
92864SOL     OW80488   9.729   6.417  14.491
92864SOL    HW180489   9.687   6.356  14.552
92864SOL    HW280490   9.822   6.414  14.514
92865SOL     OW80491   2.579   2.458   6.108
92865SOL    HW180492   2.551   2.368   6.121
92865SOL    HW280493   2.670   2.459   6.139
92866SOL     OW80494  10.946  13.655  14.234
92866SOL    HW180495  11.014  13.722  14.242
92866SOL    HW280496  10.990  13.581  14.192
92867SOL     OW80497  11.077  12.408  10.039
92867SOL    HW180498  11.156  12.355  10.039
92867SOL    HW280499  11.013  12.356  10.088
92868SOL     OW80500   3.055   5.695  13.505
92868SOL    HW180501   3.043   5.790  13.493
92868SOL    HW280502   3.084   5.664  13.419
92869SOL     OW80503  11.799   3.610   5.977
92869SOL    HW180504  11.751   3.617   6.060
92869SOL    HW280505  11.844   3.525   5.983
92870SOL     OW80506   3.001  10.939   0.159
92870SOL    HW180507   3.030  10.870   0.100
92870SOL    HW280508   2.912  10.914   0.183
92871SOL     OW80509   2.517   0.875   9.309
92871SOL    HW180510   2.596   0.878   9.363
92871SOL    HW280511   2.544   0.913   9.225
92872SOL     OW80512   2.748   3.574   4.323
92872SOL    HW180513   2.756   3.513   4.396
92872SOL    HW280514   2.723   3.657   4.363
92873SOL     OW80515   0.715   8.042   1.666
92873SOL    HW180516   0.770   8.103   1.715
92873SOL    HW280517   0.712   8.078   1.578
92874SOL     OW80518   4.709   8.078   1.205
92874SOL    HW180519   4.728   8.166   1.171
92874SOL    HW280520   4.711   8.022   1.128
92875SOL     OW80521  12.300  13.381  11.863
92875SOL    HW180522  12.279  13.461  11.911
92875SOL    HW280523  12.321  13.316  11.930
92876SOL     OW80524  13.207   6.315   1.819
92876SOL    HW180525  13.121   6.317   1.861
92876SOL    HW280526  13.192   6.271   1.736
92877SOL     OW80527   9.795   3.874   2.834
92877SOL    HW180528   9.807   3.945   2.771
92877SOL    HW280529   9.863   3.889   2.901
92878SOL     OW80530   3.240   9.662   3.852
92878SOL    HW180531   3.172   9.620   3.904
92878SOL    HW280532   3.242   9.752   3.881
92879SOL     OW80533   7.449   1.209   8.230
92879SOL    HW180534   7.491   1.284   8.272
92879SOL    HW280535   7.356   1.231   8.227
92880SOL     OW80536  10.546  12.780  10.555
92880SOL    HW180537  10.616  12.823  10.604
92880SOL    HW280538  10.496  12.733  10.622
92881SOL     OW80539   3.021  12.782   7.965
92881SOL    HW180540   3.004  12.732   8.045
92881SOL    HW280541   3.097  12.836   7.985
92882SOL     OW80542   5.771   5.630   5.901
92882SOL    HW180543   5.805   5.720   5.902
92882SOL    HW280544   5.838   5.579   5.946
92883SOL     OW80545   1.321  12.683  10.651
92883SOL    HW180546   1.276  12.743  10.591
92883SOL    HW280547   1.280  12.598  10.634
92884SOL     OW80548   3.037   7.225   2.165
92884SOL    HW180549   3.125   7.188   2.158
92884SOL    HW280550   2.998   7.211   2.079
92885SOL     OW80551   5.013   2.647   0.711
92885SOL    HW180552   5.011   2.564   0.759
92885SOL    HW280553   5.034   2.713   0.778
92886SOL     OW80554   9.111   8.815  14.170
92886SOL    HW180555   9.174   8.750  14.198
92886SOL    HW280556   9.159   8.871  14.110
92887SOL     OW80557   2.199   8.425   5.805
92887SOL    HW180558   2.222   8.409   5.897
92887SOL    HW280559   2.131   8.491   5.808
92888SOL     OW80560   6.696  11.005   7.164
92888SOL    HW180561   6.697  10.935   7.230
92888SOL    HW280562   6.608  11.041   7.168
92889SOL     OW80563   3.583  10.701  10.836
92889SOL    HW180564   3.565  10.636  10.905
92889SOL    HW280565   3.502  10.752  10.830
92890SOL     OW80566   4.355   3.238   0.902
92890SOL    HW180567   4.433   3.235   0.957
92890SOL    HW280568   4.344   3.148   0.870
92891SOL     OW80569   1.857   5.971   3.004
92891SOL    HW180570   1.882   6.044   2.948
92891SOL    HW280571   1.860   6.007   3.093
92892SOL     OW80572   2.877   6.364   5.902
92892SOL    HW180573   2.972   6.363   5.910
92892SOL    HW280574   2.845   6.344   5.990
92893SOL     OW80575  14.146   1.787  12.481
92893SOL    HW180576  14.095   1.835  12.416
92893SOL    HW280577  14.089   1.783  12.558
92894SOL     OW80578   4.640   1.596  11.048
92894SOL    HW180579   4.552   1.631  11.063
92894SOL    HW280580   4.628   1.530  10.980
92895SOL     OW80581  12.056  12.430   9.318
92895SOL    HW180582  12.095  12.471   9.395
92895SOL    HW280583  12.033  12.504   9.261
92896SOL     OW80584   8.889  13.300   1.685
92896SOL    HW180585   8.916  13.343   1.767
92896SOL    HW280586   8.859  13.372   1.629
92897SOL     OW80587  10.953   4.166   4.401
92897SOL    HW180588  11.004   4.091   4.431
92897SOL    HW280589  10.949   4.224   4.478
92898SOL     OW80590   9.844  14.031  10.872
92898SOL    HW180591   9.809  14.116  10.845
92898SOL    HW280592   9.846  14.036  10.968
92899SOL     OW80593   6.045   8.727   9.156
92899SOL    HW180594   6.061   8.697   9.245
92899SOL    HW280595   6.081   8.816   9.153
92900SOL     OW80596   0.600   5.479   4.066
92900SOL    HW180597   0.644   5.523   3.993
92900SOL    HW280598   0.606   5.386   4.045
92901SOL     OW80599   2.268   6.208   6.111
92901SOL    HW180600   2.327   6.263   6.162
92901SOL    HW280601   2.205   6.269   6.073
92902SOL     OW80602  14.028   2.208  14.758
92902SOL    HW180603  14.001   2.116  14.758
92902SOL    HW280604  14.107   2.210  14.812
92903SOL     OW80605  10.666  13.522  11.676
92903SOL    HW180606  10.743  13.517  11.620
92903SOL    HW280607  10.601  13.569  11.623
92904SOL     OW80608  10.443  10.392   7.003
92904SOL    HW180609  10.501  10.418   7.075
92904SOL    HW280610  10.502  10.362   6.934
92905SOL     OW80611  11.327   1.533   0.337
92905SOL    HW180612  11.389   1.567   0.273
92905SOL    HW280613  11.382   1.504   0.410
92906SOL     OW80614   0.697   8.877   3.088
92906SOL    HW180615   0.629   8.819   3.054
92906SOL    HW280616   0.665   8.965   3.069
92907SOL     OW80617   5.392   1.097  10.790
92907SOL    HW180618   5.329   1.158  10.828
92907SOL    HW280619   5.389   1.115  10.696
92908SOL     OW80620  12.826   7.440   1.632
92908SOL    HW180621  12.865   7.353   1.634
92908SOL    HW280622  12.755   7.433   1.569
92909SOL     OW80623   3.819   4.379   1.427
92909SOL    HW180624   3.865   4.389   1.511
92909SOL    HW280625   3.806   4.468   1.395
92910SOL     OW80626   3.227   7.613  10.504
92910SOL    HW180627   3.259   7.531  10.541
92910SOL    HW280628   3.287   7.679  10.538
92911SOL     OW80629   5.613   2.562   3.467
92911SOL    HW180630   5.653   2.604   3.391
92911SOL    HW280631   5.621   2.468   3.450
92912SOL     OW80632   7.436   9.194   0.240
92912SOL    HW180633   7.366   9.179   0.303
92912SOL    HW280634   7.468   9.107   0.218
92913SOL     OW80635   5.966  13.256   5.344
92913SOL    HW180636   5.924  13.281   5.261
92913SOL    HW280637   6.026  13.328   5.363
92914SOL     OW80638   1.576   1.372   3.637
92914SOL    HW180639   1.659   1.331   3.614
92914SOL    HW280640   1.567   1.356   3.731
92915SOL     OW80641   9.152   2.157   9.587
92915SOL    HW180642   9.208   2.102   9.532
92915SOL    HW280643   9.124   2.099   9.658
92916SOL     OW80644   8.337   9.579   7.170
92916SOL    HW180645   8.333   9.562   7.076
92916SOL    HW280646   8.430   9.593   7.189
92917SOL     OW80647  12.873   5.226  11.631
92917SOL    HW180648  12.890   5.193  11.543
92917SOL    HW280649  12.845   5.149  11.681
92918SOL     OW80650   3.279   7.754   7.313
92918SOL    HW180651   3.258   7.792   7.228
92918SOL    HW280652   3.347   7.811   7.349
92919SOL     OW80653   3.063  12.391   8.619
92919SOL    HW180654   2.986  12.333   8.623
92919SOL    HW280655   3.130  12.343   8.668
92920SOL     OW80656  11.107  11.950   2.649
92920SOL    HW180657  11.027  11.944   2.700
92920SOL    HW280658  11.167  11.889   2.691
92921SOL     OW80659   6.284   5.364  11.829
92921SOL    HW180660   6.222   5.315  11.775
92921SOL    HW280661   6.322   5.300  11.888
92922SOL     OW80662   1.974   1.777   7.617
92922SOL    HW180663   2.055   1.807   7.659
92922SOL    HW280664   1.937   1.856   7.578
92923SOL     OW80665   4.855   3.273   1.535
92923SOL    HW180666   4.813   3.331   1.471
92923SOL    HW280667   4.811   3.189   1.524
92924SOL     OW80668   5.685  14.019   5.492
92924SOL    HW180669   5.648  14.032   5.405
92924SOL    HW280670   5.747  14.091   5.504
92925SOL     OW80671  10.025   5.887  11.099
92925SOL    HW180672  10.034   5.846  11.185
92925SOL    HW280673   9.996   5.817  11.042
92926SOL     OW80674   4.306   4.140   2.480
92926SOL    HW180675   4.219   4.110   2.454
92926SOL    HW280676   4.362   4.119   2.405
92927SOL     OW80677   5.461  10.704   2.236
92927SOL    HW180678   5.465  10.741   2.148
92927SOL    HW280679   5.517  10.626   2.232
92928SOL     OW80680   0.866   0.533  11.117
92928SOL    HW180681   0.881   0.626  11.102
92928SOL    HW280682   0.951   0.500  11.147
92929SOL     OW80683   2.044   5.872  12.683
92929SOL    HW180684   2.117   5.879  12.744
92929SOL    HW280685   2.029   5.961  12.653
92930SOL     OW80686   8.965   8.447  11.488
92930SOL    HW180687   8.873   8.471  11.494
92930SOL    HW280688   8.995   8.439  11.578
92931SOL     OW80689   2.223   4.022   3.724
92931SOL    HW180690   2.299   4.049   3.776
92931SOL    HW280691   2.198   3.937   3.761
92932SOL     OW80692   8.333  14.395  12.159
92932SOL    HW180693   8.418  14.388  12.116
92932SOL    HW280694   8.294  14.308  12.151
92933SOL     OW80695  13.878   4.500   0.592
92933SOL    HW180696  13.929   4.496   0.672
92933SOL    HW280697  13.884   4.591   0.563
92934SOL     OW80698   5.392   3.533  11.230
92934SOL    HW180699   5.476   3.555  11.190
92934SOL    HW280700   5.400   3.562  11.321
92935SOL     OW80701   0.863   3.883   3.011
92935SOL    HW180702   0.921   3.824   2.963
92935SOL    HW280703   0.826   3.940   2.944
92936SOL     OW80704  11.694   9.085   2.144
92936SOL    HW180705  11.639   9.162   2.151
92936SOL    HW280706  11.668   9.029   2.217
92937SOL     OW80707   9.304  12.996  13.561
92937SOL    HW180708   9.253  13.062  13.609
92937SOL    HW280709   9.385  12.987  13.612
92938SOL     OW80710   8.412   2.826   2.989
92938SOL    HW180711   8.505   2.832   2.968
92938SOL    HW280712   8.367   2.841   2.906
92939SOL     OW80713   8.715   7.432  13.912
92939SOL    HW180714   8.789   7.467  13.863
92939SOL    HW280715   8.725   7.337  13.908
92940SOL     OW80716   6.873   4.706  10.676
92940SOL    HW180717   6.875   4.682  10.584
92940SOL    HW280718   6.827   4.790  10.678
92941SOL     OW80719   1.366  12.255   0.200
92941SOL    HW180720   1.326  12.284   0.282
92941SOL    HW280721   1.310  12.292   0.131
92942SOL     OW80722   0.116   4.163   4.814
92942SOL    HW180723   0.100   4.242   4.865
92942SOL    HW280724   0.157   4.102   4.876
92943SOL     OW80725   2.532   5.228   7.775
92943SOL    HW180726   2.500   5.240   7.686
92943SOL    HW280727   2.615   5.275   7.778
92944SOL     OW80728   9.207   6.796   9.790
92944SOL    HW180729   9.209   6.891   9.780
92944SOL    HW280730   9.179   6.782   9.881
92945SOL     OW80731   1.653   4.164   2.901
92945SOL    HW180732   1.562   4.146   2.877
92945SOL    HW280733   1.650   4.188   2.994
92946SOL     OW80734   6.588   7.830  13.937
92946SOL    HW180735   6.652   7.760  13.926
92946SOL    HW280736   6.504   7.784  13.943
92947SOL     OW80737   6.068   5.769   6.021
92947SOL    HW180738   6.111   5.804   5.943
92947SOL    HW280739   5.979   5.803   6.017
92948SOL     OW80740   1.161   9.227  13.104
92948SOL    HW180741   1.242   9.179  13.123
92948SOL    HW280742   1.132   9.259  13.190
92949SOL     OW80743   4.456   9.237   5.083
92949SOL    HW180744   4.419   9.305   5.027
92949SOL    HW280745   4.381   9.183   5.108
92950SOL     OW80746   9.656   4.784   6.049
92950SOL    HW180747   9.668   4.861   5.994
92950SOL    HW280748   9.743   4.768   6.087
92951SOL     OW80749   6.255   6.311   0.636
92951SOL    HW180750   6.201   6.234   0.652
92951SOL    HW280751   6.195   6.385   0.641
92952SOL     OW80752   5.417  10.489   7.851
92952SOL    HW180753   5.322  10.480   7.851
92952SOL    HW280754   5.433  10.573   7.809
92953SOL     OW80755   8.359   5.690   0.211
92953SOL    HW180756   8.423   5.658   0.275
92953SOL    HW280757   8.412   5.719   0.137
92954SOL     OW80758   0.026   1.249   7.843
92954SOL    HW180759  14.846   1.213   7.907
92954SOL    HW280760   0.001   1.209   7.760
92955SOL     OW80761  13.129   2.274  11.413
92955SOL    HW180762  13.224   2.267  11.406
92955SOL    HW280763  13.102   2.194  11.457
92956SOL     OW80764  13.146   6.814   4.543
92956SOL    HW180765  13.102   6.872   4.605
92956SOL    HW280766  13.075   6.766   4.500
92957SOL     OW80767  14.200   0.294  13.232
92957SOL    HW180768  14.268   0.233  13.205
92957SOL    HW280769  14.119   0.259  13.194
92958SOL     OW80770   9.808  13.058   9.709
92958SOL    HW180771   9.817  13.139   9.659
92958SOL    HW280772   9.872  12.998   9.670
92959SOL     OW80773   0.171   1.581   7.823
92959SOL    HW180774   0.086   1.579   7.867
92959SOL    HW280775   0.151   1.595   7.731
92960SOL     OW80776   7.314  11.211   2.371
92960SOL    HW180777   7.283  11.139   2.315
92960SOL    HW280778   7.409  11.207   2.365
92961SOL     OW80779   3.807   8.243  12.709
92961SOL    HW180780   3.872   8.178  12.682
92961SOL    HW280781   3.770   8.275  12.627
92962SOL     OW80782  13.930   1.466   2.874
92962SOL    HW180783  13.899   1.378   2.893
92962SOL    HW280784  13.937   1.508   2.960
92963SOL     OW80785  10.635   7.180   6.160
92963SOL    HW180786  10.614   7.267   6.194
92963SOL    HW280787  10.669   7.197   6.072
92964SOL     OW80788   1.043  11.260  13.383
92964SOL    HW180789   0.976  11.314  13.425
92964SOL    HW280790   1.102  11.323  13.342
92965SOL     OW80791   1.119  14.763   7.173
92965SOL    HW180792   1.086  14.673   7.172
92965SOL    HW280793   1.197  14.761   7.118
92966SOL     OW80794   9.504   4.529  13.452
92966SOL    HW180795   9.579   4.482  13.415
92966SOL    HW280796   9.534   4.558  13.538
92967SOL     OW80797   1.591   7.482   4.664
92967SOL    HW180798   1.654   7.537   4.618
92967SOL    HW280799   1.642   7.437   4.731
92968SOL     OW80800  13.098   5.083   2.260
92968SOL    HW180801  13.190   5.108   2.260
92968SOL    HW280802  13.099   4.988   2.249
92969SOL     OW80803  14.489   0.640   3.375
92969SOL    HW180804  14.481   0.735   3.382
92969SOL    HW280805  14.555   0.616   3.440
92970SOL     OW80806  14.620  11.942  14.566
92970SOL    HW180807  14.615  12.020  14.511
92970SOL    HW280808  14.591  11.972  14.652
92971SOL     OW80809   1.043   1.770  14.196
92971SOL    HW180810   0.959   1.726  14.179
92971SOL    HW280811   1.071   1.736  14.280
92972SOL     OW80812   3.666   7.614   7.758
92972SOL    HW180813   3.622   7.686   7.804
92972SOL    HW280814   3.750   7.604   7.803
92973SOL     OW80815  11.118   3.977   6.620
92973SOL    HW180816  11.130   4.020   6.705
92973SOL    HW280817  11.041   4.019   6.582
92974SOL     OW80818   6.073   1.930   3.314
92974SOL    HW180819   6.103   1.852   3.268
92974SOL    HW280820   6.152   1.973   3.346
92975SOL     OW80821  11.117   3.360  12.418
92975SOL    HW180822  11.034   3.314  12.419
92975SOL    HW280823  11.168   3.319  12.488
92976SOL     OW80824   9.234  12.740   6.568
92976SOL    HW180825   9.176  12.815   6.579
92976SOL    HW280826   9.201  12.694   6.491
92977SOL     OW80827   5.329   9.830   3.568
92977SOL    HW180828   5.388   9.841   3.494
92977SOL    HW280829   5.360   9.751   3.612
92978SOL     OW80830  12.552   3.185   3.104
92978SOL    HW180831  12.490   3.239   3.056
92978SOL    HW280832  12.615   3.247   3.141
92979SOL     OW80833   4.586  11.946  13.960
92979SOL    HW180834   4.570  12.038  13.983
92979SOL    HW280835   4.499  11.905  13.967
92980SOL     OW80836  14.701   0.813  11.523
92980SOL    HW180837  14.718   0.719  11.534
92980SOL    HW280838  14.632   0.816  11.456
92981SOL     OW80839   1.759   9.144  12.809
92981SOL    HW180840   1.791   9.084  12.742
92981SOL    HW280841   1.796   9.111  12.891
92982SOL     OW80842   3.930   9.574  12.824
92982SOL    HW180843   3.993   9.533  12.764
92982SOL    HW280844   3.937   9.667  12.805
92983SOL     OW80845   5.121   9.855   6.040
92983SOL    HW180846   5.203   9.832   6.083
92983SOL    HW280847   5.127   9.950   6.026
92984SOL     OW80848   8.217   3.029   7.857
92984SOL    HW180849   8.233   3.032   7.762
92984SOL    HW280850   8.298   3.063   7.895
92985SOL     OW80851   5.497  14.450   8.536
92985SOL    HW180852   5.431  14.411   8.479
92985SOL    HW280853   5.466  14.539   8.552
92986SOL     OW80854   2.285  13.885   6.539
92986SOL    HW180855   2.208  13.940   6.527
92986SOL    HW280856   2.347  13.915   6.473
92987SOL     OW80857  13.574  13.313   8.358
92987SOL    HW180858  13.584  13.219   8.374
92987SOL    HW280859  13.664  13.346   8.349
92988SOL     OW80860   1.814   9.553  10.527
92988SOL    HW180861   1.719   9.550  10.534
92988SOL    HW280862   1.839   9.636  10.566
92989SOL     OW80863  14.341  14.437  13.885
92989SOL    HW180864  14.329  14.381  13.808
92989SOL    HW280865  14.254  14.445  13.922
92990SOL     OW80866  11.800   6.811   4.963
92990SOL    HW180867  11.748   6.853   4.894
92990SOL    HW280868  11.860   6.753   4.916
92991SOL     OW80869   7.016   3.921  12.086
92991SOL    HW180870   7.099   3.931  12.132
92991SOL    HW280871   6.982   4.011  12.079
92992SOL     OW80872  12.675  10.464   5.172
92992SOL    HW180873  12.755  10.427   5.134
92992SOL    HW280874  12.706  10.531   5.232
92993SOL     OW80875   8.067   6.782   4.553
92993SOL    HW180876   8.046   6.847   4.486
92993SOL    HW280877   8.150   6.744   4.523
92994SOL     OW80878   2.639   8.722  11.607
92994SOL    HW180879   2.606   8.706  11.519
92994SOL    HW280880   2.596   8.803  11.635
92995SOL     OW80881   9.535   6.281   2.493
92995SOL    HW180882   9.445   6.312   2.495
92995SOL    HW280883   9.530   6.194   2.453
92996SOL     OW80884   0.533   7.734   7.976
92996SOL    HW180885   0.624   7.727   7.946
92996SOL    HW280886   0.499   7.811   7.931
92997SOL     OW80887   5.465   7.433   9.817
92997SOL    HW180888   5.412   7.506   9.786
92997SOL    HW280889   5.449   7.431   9.912
92998SOL     OW80890   4.161  14.804   0.576
92998SOL    HW180891   4.158  14.790   0.481
92998SOL    HW280892   4.253  14.820   0.595
92999SOL     OW80893   2.150   1.311   5.329
92999SOL    HW180894   2.243   1.292   5.313
92999SOL    HW280895   2.150   1.361   5.411
93000SOL     OW80896  14.089   1.790  14.055
93000SOL    HW180897  14.077   1.765  13.964
93000SOL    HW280898  14.052   1.717  14.105
93001SOL     OW80899  13.618   3.443   8.846
93001SOL    HW180900  13.591   3.432   8.755
93001SOL    HW280901  13.709   3.415   8.849
93002SOL     OW80902  13.753   5.323  10.800
93002SOL    HW180903  13.842   5.315  10.835
93002SOL    HW280904  13.717   5.235  10.804
93003SOL     OW80905   8.926   6.062  13.288
93003SOL    HW180906   8.981   5.996  13.247
93003SOL    HW280907   8.946   6.056  13.381
93004SOL     OW80908   1.041   0.871  10.291
93004SOL    HW180909   0.983   0.801  10.322
93004SOL    HW280910   1.097   0.829  10.226
93005SOL     OW80911  11.016   5.959  10.713
93005SOL    HW180912  11.027   6.038  10.765
93005SOL    HW280913  11.104   5.931  10.690
93006SOL     OW80914   9.658  13.937  11.443
93006SOL    HW180915   9.701  13.879  11.505
93006SOL    HW280916   9.718  14.010  11.432
93007SOL     OW80917   7.694   3.823   7.894
93007SOL    HW180918   7.788   3.808   7.903
93007SOL    HW280919   7.681   3.840   7.800
93008SOL     OW80920   3.605   4.169  11.103
93008SOL    HW180921   3.639   4.158  11.014
93008SOL    HW280922   3.550   4.247  11.099
93009SOL     OW80923   2.511   7.179  13.103
93009SOL    HW180924   2.495   7.086  13.120
93009SOL    HW280925   2.513   7.186  13.007
93010SOL     OW80926   0.334  10.519  11.656
93010SOL    HW180927   0.361  10.561  11.737
93010SOL    HW280928   0.398  10.547  11.591
93011SOL     OW80929   0.888   5.255  14.004
93011SOL    HW180930   0.947   5.201  14.056
93011SOL    HW280931   0.945   5.319  13.961
93012SOL     OW80932  11.378  13.737  14.404
93012SOL    HW180933  11.425  13.720  14.322
93012SOL    HW280934  11.441  13.716  14.473
93013SOL     OW80935   6.238   5.061  14.556
93013SOL    HW180936   6.304   5.021  14.500
93013SOL    HW280937   6.186   5.115  14.497
93014SOL     OW80938  13.751  12.519   6.867
93014SOL    HW180939  13.797  12.443   6.832
93014SOL    HW280940  13.688  12.482   6.930
93015SOL     OW80941  11.204   4.033   2.343
93015SOL    HW180942  11.205   3.956   2.400
93015SOL    HW280943  11.118   4.073   2.359
93016SOL     OW80944   1.281   9.242   2.880
93016SOL    HW180945   1.223   9.168   2.862
93016SOL    HW280946   1.350   9.205   2.936
93017SOL     OW80947   6.189  14.209   1.241
93017SOL    HW180948   6.107  14.222   1.288
93017SOL    HW280949   6.226  14.297   1.232
93018SOL     OW80950  12.573   7.903  14.670
93018SOL    HW180951  12.606   7.990  14.647
93018SOL    HW280952  12.527   7.917  14.753
93019SOL     OW80953   5.837  11.600   1.381
93019SOL    HW180954   5.887  11.524   1.410
93019SOL    HW280955   5.902  11.670   1.373
93020SOL     OW80956   3.193   3.286   5.159
93020SOL    HW180957   3.272   3.337   5.169
93020SOL    HW280958   3.168   3.262   5.248
93021SOL     OW80959   3.075  11.123   9.054
93021SOL    HW180960   2.993  11.092   9.091
93021SOL    HW280961   3.132  11.137   9.129
93022SOL     OW80962   8.217   9.496   1.435
93022SOL    HW180963   8.127   9.513   1.463
93022SOL    HW280964   8.264   9.577   1.456
93023SOL     OW80965   7.944   3.044  14.616
93023SOL    HW180966   7.984   3.080  14.695
93023SOL    HW280967   7.917   3.121  14.565
93024SOL     OW80968   6.016   1.242   5.479
93024SOL    HW180969   6.094   1.297   5.470
93024SOL    HW280970   6.044   1.156   5.448
93025SOL     OW80971  11.007  13.137  14.695
93025SOL    HW180972  10.945  13.157  14.624
93025SOL    HW280973  11.010  13.042  14.697
93026SOL     OW80974  12.214  10.914   3.149
93026SOL    HW180975  12.171  10.985   3.197
93026SOL    HW280976  12.298  10.903   3.193
93027SOL     OW80977   5.108  11.008   2.737
93027SOL    HW180978   5.043  10.975   2.674
93027SOL    HW280979   5.067  10.995   2.822
93028SOL     OW80980  12.961  11.071   6.855
93028SOL    HW180981  12.932  11.000   6.798
93028SOL    HW280982  13.050  11.046   6.881
93029SOL     OW80983   0.774   8.585  11.303
93029SOL    HW180984   0.825   8.551  11.230
93029SOL    HW280985   0.793   8.679  11.304
93030SOL     OW80986   7.391  14.450   7.114
93030SOL    HW180987   7.349  14.369   7.144
93030SOL    HW280988   7.323  14.494   7.062
93031SOL     OW80989   3.140   1.768  11.182
93031SOL    HW180990   3.162   1.857  11.211
93031SOL    HW280991   3.145   1.715  11.262
93032SOL     OW80992  10.176   6.202  12.289
93032SOL    HW180993  10.132   6.158  12.361
93032SOL    HW280994  10.229   6.270  12.331
93033SOL     OW80995   0.762   6.245   7.664
93033SOL    HW180996   0.676   6.203   7.675
93033SOL    HW280997   0.825   6.178   7.691
93034SOL     OW80998  13.821   7.438   7.930
93034SOL    HW180999  13.876   7.465   7.857
93034SOL    HW281000  13.805   7.345   7.916
93035SOL     OW81001   3.001   7.214   5.592
93035SOL    HW181002   2.975   7.269   5.666
93035SOL    HW281003   3.096   7.208   5.600
93036SOL     OW81004   1.932   8.951  14.020
93036SOL    HW181005   2.012   8.990  13.986
93036SOL    HW281006   1.907   9.007  14.094
93037SOL     OW81007  12.599   0.819  11.689
93037SOL    HW181008  12.503   0.816  11.681
93037SOL    HW281009  12.630   0.757  11.624
93038SOL     OW81010  10.541   6.314  13.842
93038SOL    HW181011  10.577   6.239  13.794
93038SOL    HW281012  10.555   6.388  13.783
93039SOL     OW81013   8.647   7.412   5.026
93039SOL    HW181014   8.718   7.449   5.077
93039SOL    HW281015   8.567   7.443   5.069
93040SOL     OW81016   5.823   3.061   8.284
93040SOL    HW181017   5.790   3.077   8.196
93040SOL    HW281018   5.902   3.010   8.271
93041SOL     OW81019   2.642   2.166   6.550
93041SOL    HW181020   2.691   2.228   6.495
93041SOL    HW281021   2.700   2.091   6.559
93042SOL     OW81022   2.383   8.237   9.889
93042SOL    HW181023   2.476   8.244   9.869
93042SOL    HW281024   2.341   8.221   9.804
93043SOL     OW81025   4.292  12.769   2.675
93043SOL    HW181026   4.283  12.673   2.676
93043SOL    HW281027   4.372  12.785   2.625
93044SOL     OW81028  12.633   5.755   4.836
93044SOL    HW181029  12.627   5.827   4.899
93044SOL    HW281030  12.696   5.694   4.874
93045SOL     OW81031   3.711  12.498   3.078
93045SOL    HW181032   3.694  12.512   3.171
93045SOL    HW281033   3.740  12.406   3.072
93046SOL     OW81034   1.837  10.094   1.276
93046SOL    HW181035   1.909  10.125   1.222
93046SOL    HW281036   1.767  10.159   1.263
93047SOL     OW81037   0.859   3.684   0.087
93047SOL    HW181038   0.936   3.676   0.031
93047SOL    HW281039   0.883   3.752   0.151
93048SOL     OW81040  12.432   0.992  14.344
93048SOL    HW181041  12.366   1.044  14.299
93048SOL    HW281042  12.452   1.042  14.423
93049SOL     OW81043   0.039  10.561   1.108
93049SOL    HW181044   0.108  10.497   1.091
93049SOL    HW281045  14.852  10.512   1.157
93050SOL     OW81046  11.095  14.545   2.835
93050SOL    HW181047  11.020  14.486   2.845
93050SOL    HW281048  11.168  14.496   2.872
93051SOL     OW81049   1.320   4.990   9.847
93051SOL    HW181050   1.311   5.083   9.865
93051SOL    HW281051   1.413   4.978   9.827
93052SOL     OW81052   4.426  11.738  11.892
93052SOL    HW181053   4.500  11.746  11.832
93052SOL    HW281054   4.384  11.824  11.890
93053SOL     OW81055  11.460   0.426   2.386
93053SOL    HW181056  11.537   0.417   2.441
93053SOL    HW281057  11.491   0.469   2.306
93054SOL     OW81058  11.994  10.457  14.257
93054SOL    HW181059  11.968  10.378  14.210
93054SOL    HW281060  12.053  10.425  14.326
93055SOL     OW81061  11.562   8.086   6.157
93055SOL    HW181062  11.565   8.172   6.201
93055SOL    HW281063  11.620   8.031   6.208
93056SOL     OW81064   0.251   3.279  12.366
93056SOL    HW181065   0.263   3.360  12.317
93056SOL    HW281066   0.305   3.215  12.321
93057SOL     OW81067   4.611  11.710   4.348
93057SOL    HW181068   4.639  11.772   4.416
93057SOL    HW281069   4.659  11.630   4.369
93058SOL     OW81070  10.140   3.959   6.843
93058SOL    HW181071  10.085   3.965   6.764
93058SOL    HW281072  10.170   4.049   6.858
93059SOL     OW81073  10.148  11.562   8.023
93059SOL    HW181074  10.225  11.608   7.990
93059SOL    HW281075  10.129  11.495   7.957
93060SOL     OW81076   5.794   3.854   8.054
93060SOL    HW181077   5.743   3.774   8.062
93060SOL    HW281078   5.860   3.834   7.987
93061SOL     OW81079   2.580  13.282   4.341
93061SOL    HW181080   2.605  13.189   4.341
93061SOL    HW281081   2.502  13.286   4.397
93062SOL     OW81082   5.581  13.462   5.644
93062SOL    HW181083   5.522  13.441   5.572
93062SOL    HW281084   5.591  13.380   5.692
93063SOL     OW81085  12.404   2.834   0.126
93063SOL    HW181086  12.348   2.762   0.156
93063SOL    HW281087  12.438   2.873   0.207
93064SOL     OW81088   4.113   2.880  11.627
93064SOL    HW181089   4.058   2.873  11.705
93064SOL    HW281090   4.192   2.923  11.657
93065SOL     OW81091  14.093   6.989   7.015
93065SOL    HW181092  14.175   6.959   6.975
93065SOL    HW281093  14.122   7.037   7.093
93066SOL     OW81094   5.805   9.903   4.923
93066SOL    HW181095   5.763   9.916   4.838
93066SOL    HW281096   5.861   9.979   4.935
93067SOL     OW81097   6.800  12.582   0.568
93067SOL    HW181098   6.839  12.571   0.655
93067SOL    HW281099   6.839  12.514   0.514
93068SOL     OW81100   1.742   7.001   9.842
93068SOL    HW181101   1.821   6.946   9.850
93068SOL    HW281102   1.710   6.983   9.754
93069SOL     OW81103  11.126   1.953  10.296
93069SOL    HW181104  11.128   1.857  10.296
93069SOL    HW281105  11.169   1.977  10.379
93070SOL     OW81106   1.040   9.536   1.376
93070SOL    HW181107   0.953   9.509   1.347
93070SOL    HW281108   1.035   9.536   1.472
93071SOL     OW81109   3.220   4.862   1.981
93071SOL    HW181110   3.252   4.813   2.057
93071SOL    HW281111   3.239   4.805   1.907
93072SOL     OW81112   2.290   2.975  13.556
93072SOL    HW181113   2.347   2.898  13.556
93072SOL    HW281114   2.224   2.956  13.622
93073SOL     OW81115   1.149   0.938  11.246
93073SOL    HW181116   1.099   0.943  11.328
93073SOL    HW281117   1.128   1.020  11.201
93074SOL     OW81118   5.213   6.291   4.087
93074SOL    HW181119   5.174   6.370   4.050
93074SOL    HW281120   5.257   6.321   4.167
93075SOL     OW81121   3.891   8.585  11.751
93075SOL    HW181122   3.811   8.571  11.701
93075SOL    HW281123   3.955   8.525  11.713
93076SOL     OW81124   1.318   2.283  14.072
93076SOL    HW181125   1.410   2.262  14.053
93076SOL    HW281126   1.271   2.257  13.993
93077SOL     OW81127   7.282   1.899   6.140
93077SOL    HW181128   7.343   1.828   6.122
93077SOL    HW281129   7.199   1.856   6.161
93078SOL     OW81130  11.089  12.891   9.848
93078SOL    HW181131  11.014  12.925   9.898
93078SOL    HW281132  11.125  12.821   9.903
93079SOL     OW81133   0.255   7.985  10.421
93079SOL    HW181134   0.267   7.900  10.379
93079SOL    HW281135   0.339   8.030  10.408
93080SOL     OW81136   0.325   7.338   5.281
93080SOL    HW181137   0.285   7.258   5.316
93080SOL    HW281138   0.319   7.329   5.186
93081SOL     OW81139  14.456   8.814   7.691
93081SOL    HW181140  14.423   8.898   7.721
93081SOL    HW281141  14.514   8.835   7.617
93082SOL     OW81142   9.635   5.930   5.072
93082SOL    HW181143   9.641   5.940   5.167
93082SOL    HW281144   9.541   5.926   5.054
93083SOL     OW81145  10.817   7.070   1.435
93083SOL    HW181146  10.908   7.052   1.460
93083SOL    HW281147  10.777   6.983   1.426
93084SOL     OW81148  11.670   4.245   7.279
93084SOL    HW181149  11.716   4.198   7.210
93084SOL    HW281150  11.642   4.176   7.340
93085SOL     OW81151  12.435   7.292   1.379
93085SOL    HW181152  12.436   7.257   1.468
93085SOL    HW281153  12.416   7.217   1.323
93086SOL     OW81154   4.543   3.785   7.548
93086SOL    HW181155   4.513   3.784   7.457
93086SOL    HW281156   4.623   3.839   7.546
93087SOL     OW81157   7.843   0.371   2.660
93087SOL    HW181158   7.748   0.367   2.666
93087SOL    HW281159   7.874   0.321   2.736
93088SOL     OW81160   8.011  11.690   3.975
93088SOL    HW181161   7.954  11.766   3.961
93088SOL    HW281162   7.971  11.643   4.048
93089SOL     OW81163   7.583   0.605   1.306
93089SOL    HW181164   7.658   0.547   1.315
93089SOL    HW281165   7.517   0.551   1.262
93090SOL     OW81166  14.385  10.725   0.473
93090SOL    HW181167  14.418  10.707   0.385
93090SOL    HW281168  14.356  10.816   0.469
93091SOL     OW81169   8.205   9.865   1.270
93091SOL    HW181170   8.208   9.917   1.190
93091SOL    HW281171   8.295   9.871   1.304
93092SOL     OW81172   6.878  14.144  13.767
93092SOL    HW181173   6.895  14.051  13.779
93092SOL    HW281174   6.961  14.187  13.790
93093SOL     OW81175  13.491   3.912   9.522
93093SOL    HW181176  13.456   3.940   9.438
93093SOL    HW281177  13.581   3.945   9.523
93094SOL     OW81178   9.656   3.041  13.770
93094SOL    HW181179   9.623   3.068  13.856
93094SOL    HW281180   9.712   2.966  13.788
93095SOL     OW81181  14.288   0.616   1.357
93095SOL    HW181182  14.214   0.665   1.394
93095SOL    HW281183  14.252   0.572   1.281
93096SOL     OW81184   9.836   3.268  13.196
93096SOL    HW181185   9.767   3.331  13.216
93096SOL    HW281186   9.860   3.231  13.281
93097SOL     OW81187  13.357   2.512   3.848
93097SOL    HW181188  13.408   2.566   3.908
93097SOL    HW281189  13.359   2.424   3.887
93098SOL     OW81190   6.943   7.448   8.544
93098SOL    HW181191   6.910   7.496   8.469
93098SOL    HW281192   7.012   7.504   8.579
93099SOL     OW81193  11.396   6.755   3.992
93099SOL    HW181194  11.441   6.733   4.074
93099SOL    HW281195  11.308   6.782   4.020
93100SOL     OW81196  14.416   9.115  14.155
93100SOL    HW181197  14.389   9.187  14.211
93100SOL    HW281198  14.360   9.042  14.182
93101SOL     OW81199   6.355   2.012   2.454
93101SOL    HW181200   6.393   2.040   2.537
93101SOL    HW281201   6.304   1.934   2.475
93102SOL     OW81202  13.991   9.377   8.872
93102SOL    HW181203  14.059   9.386   8.805
93102SOL    HW281204  14.039   9.377   8.955
93103SOL     OW81205   6.357  11.717   5.161
93103SOL    HW181206   6.318  11.647   5.108
93103SOL    HW281207   6.398  11.671   5.234
93104SOL     OW81208   4.617   5.732   5.207
93104SOL    HW181209   4.695   5.786   5.215
93104SOL    HW281210   4.554   5.788   5.162
93105SOL     OW81211  13.385   5.046  14.776
93105SOL    HW181212  13.462   4.999  14.808
93105SOL    HW281213  13.336   5.067  14.856
93106SOL     OW81214   1.893   6.304  13.306
93106SOL    HW181215   1.824   6.248  13.271
93106SOL    HW281216   1.971   6.248  13.308
93107SOL     OW81217   1.335   7.148  12.724
93107SOL    HW181218   1.390   7.123  12.798
93107SOL    HW281219   1.294   7.230  12.752
93108SOL     OW81220  14.127  11.091   9.586
93108SOL    HW181221  14.198  11.122   9.642
93108SOL    HW281222  14.135  11.142   9.505
93109SOL     OW81223   9.254   3.720   4.873
93109SOL    HW181224   9.248   3.775   4.795
93109SOL    HW281225   9.342   3.735   4.907
93110SOL     OW81226   9.496  12.829   8.736
93110SOL    HW181227   9.525  12.738   8.732
93110SOL    HW281228   9.460  12.847   8.648
93111SOL     OW81229   6.736  14.397   2.010
93111SOL    HW181230   6.714  14.471   2.066
93111SOL    HW281231   6.781  14.335   2.068
93112SOL     OW81232   4.744   5.475   5.200
93112SOL    HW181233   4.675   5.416   5.230
93112SOL    HW281234   4.697   5.548   5.159
93113SOL     OW81235   9.241  13.808  10.891
93113SOL    HW181236   9.145  13.807  10.884
93113SOL    HW281237   9.260  13.884  10.946
93114SOL     OW81238   0.239   0.496  13.635
93114SOL    HW181239   0.254   0.584  13.671
93114SOL    HW281240   0.323   0.471  13.596
93115SOL     OW81241   4.840   2.864   7.962
93115SOL    HW181242   4.818   2.771   7.962
93115SOL    HW281243   4.886   2.877   7.879
93116SOL     OW81244   6.981  13.272   1.613
93116SOL    HW181245   7.058  13.315   1.576
93116SOL    HW281246   6.924  13.343   1.640
93117SOL     OW81247  11.384   9.915   0.011
93117SOL    HW181248  11.380   9.962   0.094
93117SOL    HW281249  11.477   9.909  14.872
93118SOL     OW81250   8.014   4.284  13.804
93118SOL    HW181251   7.925   4.299  13.837
93118SOL    HW281252   8.004   4.213  13.742
93119SOL     OW81253   0.167   0.824   3.634
93119SOL    HW181254   0.154   0.786   3.721
93119SOL    HW281255   0.239   0.774   3.596
93120SOL     OW81256   2.493   1.644  11.527
93120SOL    HW181257   2.575   1.640  11.578
93120SOL    HW281258   2.506   1.581  11.457
93121SOL     OW81259   5.544   4.814  13.712
93121SOL    HW181260   5.625   4.772  13.742
93121SOL    HW281261   5.475   4.751  13.733
93122SOL     OW81262   0.306   5.839   0.200
93122SOL    HW181263   0.340   5.750   0.193
93122SOL    HW281264   0.383   5.895   0.189
93123SOL     OW81265   5.521  12.155   0.504
93123SOL    HW181266   5.428  12.177   0.504
93123SOL    HW281267   5.556  12.196   0.425
93124SOL     OW81268  11.906  10.091   9.209
93124SOL    HW181269  11.935  10.168   9.258
93124SOL    HW281270  11.891  10.024   9.276
93125SOL     OW81271   3.458  12.813   3.518
93125SOL    HW181272   3.451  12.747   3.587
93125SOL    HW281273   3.552  12.831   3.511
93126SOL     OW81274  11.585   0.928   3.230
93126SOL    HW181275  11.652   0.975   3.181
93126SOL    HW281276  11.573   0.847   3.181
93127SOL     OW81277   7.127   0.710   5.916
93127SOL    HW181278   7.151   0.705   5.823
93127SOL    HW281279   7.039   0.748   5.916
93128SOL     OW81280  11.190   2.585   1.896
93128SOL    HW181281  11.118   2.526   1.874
93128SOL    HW281282  11.253   2.573   1.825
93129SOL     OW81283  14.550   3.206  11.613
93129SOL    HW181284  14.497   3.143  11.564
93129SOL    HW281285  14.575   3.159  11.693
93130SOL     OW81286   5.160   9.853   5.443
93130SOL    HW181287   5.169   9.760   5.425
93130SOL    HW281288   5.065   9.869   5.437
93131SOL     OW81289   5.653   8.817   9.584
93131SOL    HW181290   5.686   8.858   9.504
93131SOL    HW281291   5.576   8.768   9.555
93132SOL     OW81292   9.563  11.559  13.474
93132SOL    HW181293   9.530  11.649  13.461
93132SOL    HW281294   9.529  11.511  13.399
93133SOL     OW81295  11.596  13.747  12.729
93133SOL    HW181296  11.676  13.740  12.781
93133SOL    HW281297  11.616  13.702  12.647
93134SOL     OW81298   7.316  14.577  10.442
93134SOL    HW181299   7.393  14.635  10.439
93134SOL    HW281300   7.260  14.609  10.372
93135SOL     OW81301   0.509   8.660   8.718
93135SOL    HW181302   0.589   8.696   8.756
93135SOL    HW281303   0.442   8.727   8.734
93136SOL     OW81304  13.775   0.240   9.557
93136SOL    HW181305  13.697   0.291   9.536
93136SOL    HW281306  13.840   0.267   9.492
93137SOL     OW81307  11.721   1.297   6.241
93137SOL    HW181308  11.808   1.273   6.210
93137SOL    HW281309  11.669   1.306   6.161
93138SOL     OW81310  11.240   6.919   2.243
93138SOL    HW181311  11.202   6.945   2.159
93138SOL    HW281312  11.296   6.993   2.267
93139SOL     OW81313   7.328  11.424  12.324
93139SOL    HW181314   7.289  11.503  12.287
93139SOL    HW281315   7.378  11.454  12.399
93140SOL     OW81316   5.435   0.166   3.243
93140SOL    HW181317   5.438   0.071   3.237
93140SOL    HW281318   5.478   0.186   3.326
93141SOL     OW81319   2.327   8.057  12.876
93141SOL    HW181320   2.374   8.139  12.862
93141SOL    HW281321   2.339   8.039  12.969
93142SOL     OW81322   9.626  14.592  10.987
93142SOL    HW181323   9.701  14.622  11.038
93142SOL    HW281324   9.552  14.642  11.022
93143SOL     OW81325   9.794   7.861   5.404
93143SOL    HW181326   9.779   7.953   5.426
93143SOL    HW281327   9.816   7.862   5.311
93144SOL     OW81328  13.966   2.170  11.580
93144SOL    HW181329  13.894   2.118  11.545
93144SOL    HW281330  13.990   2.229  11.508
93145SOL     OW81331   5.710   9.871  11.438
93145SOL    HW181332   5.689   9.885  11.531
93145SOL    HW281333   5.716   9.776  11.429
93146SOL     OW81334  11.053   4.153  14.774
93146SOL    HW181335  11.058   4.073  14.722
93146SOL    HW281336  11.139   4.160  14.816
93147SOL     OW81337   4.047   6.777   0.541
93147SOL    HW181338   4.023   6.746   0.454
93147SOL    HW281339   4.140   6.798   0.534
93148SOL     OW81340   2.852   6.421  14.865
93148SOL    HW181341   2.801   6.341  14.874
93148SOL    HW281342   2.869   6.429  14.771
93149SOL     OW81343   5.853   9.347   6.121
93149SOL    HW181344   5.838   9.410   6.051
93149SOL    HW281345   5.885   9.269   6.077
93150SOL     OW81346  10.376  13.204   1.729
93150SOL    HW181347  10.369  13.201   1.824
93150SOL    HW281348  10.286  13.213   1.698
93151SOL     OW81349   2.121   5.158  14.856
93151SOL    HW181350   2.122   5.154  14.761
93151SOL    HW281351   2.201   5.112   0.003
93152SOL     OW81352   4.224   9.797  14.576
93152SOL    HW181353   4.242   9.758  14.661
93152SOL    HW281354   4.129   9.810  14.575
93153SOL     OW81355  13.913   5.884   3.228
93153SOL    HW181356  13.890   5.959   3.283
93153SOL    HW281357  13.985   5.915   3.174
93154SOL     OW81358   8.465   8.557  13.708
93154SOL    HW181359   8.499   8.589  13.624
93154SOL    HW281360   8.423   8.474  13.686
93155SOL     OW81361  14.280   1.815   7.751
93155SOL    HW181362  14.300   1.757   7.825
93155SOL    HW281363  14.344   1.791   7.684
93156SOL     OW81364   4.804   8.106   6.601
93156SOL    HW181365   4.894   8.137   6.594
93156SOL    HW281366   4.807   8.040   6.671
93157SOL     OW81367   3.270   5.748  14.604
93157SOL    HW181368   3.259   5.653  14.593
93157SOL    HW281369   3.185   5.784  14.580
93158SOL     OW81370   7.603  12.285   0.129
93158SOL    HW181371   7.589  12.193   0.108
93158SOL    HW281372   7.516  12.317   0.155
93159SOL     OW81373   3.523   4.090  13.574
93159SOL    HW181374   3.504   4.151  13.502
93159SOL    HW281375   3.448   4.031  13.575
93160SOL     OW81376  12.622   8.168   3.387
93160SOL    HW181377  12.590   8.116   3.461
93160SOL    HW281378  12.710   8.195   3.413
93161SOL     OW81379   0.109  14.464   4.007
93161SOL    HW181380   0.198  14.438   4.031
93161SOL    HW281381   0.090  14.415   3.928
93162SOL     OW81382  13.189  14.255   1.062
93162SOL    HW181383  13.252  14.182   1.058
93162SOL    HW281384  13.117  14.221   1.116
93163SOL     OW81385   8.922   2.235   3.786
93163SOL    HW181386   8.981   2.229   3.861
93163SOL    HW281387   8.837   2.209   3.820
93164SOL     OW81388   0.696   9.846   7.661
93164SOL    HW181389   0.782   9.884   7.678
93164SOL    HW281390   0.636   9.920   7.662
93165SOL     OW81391  12.692  13.919  11.962
93165SOL    HW181392  12.713  13.833  11.925
93165SOL    HW281393  12.597  13.919  11.971
93166SOL     OW81394   6.028   4.690  11.736
93166SOL    HW181395   6.076   4.753  11.790
93166SOL    HW281396   5.937   4.703  11.760
93167SOL     OW81397  10.004   8.124  12.256
93167SOL    HW181398   9.984   8.195  12.196
93167SOL    HW281399   9.919   8.089  12.283
93168SOL     OW81400   2.656   2.586   0.328
93168SOL    HW181401   2.683   2.659   0.385
93168SOL    HW281402   2.733   2.531   0.322
93169SOL     OW81403  11.137   3.448   3.925
93169SOL    HW181404  11.153   3.472   3.834
93169SOL    HW281405  11.096   3.525   3.964
93170SOL     OW81406   1.322   8.154   3.359
93170SOL    HW181407   1.319   8.152   3.264
93170SOL    HW281408   1.352   8.066   3.384
93171SOL     OW81409   9.337   2.283  11.612
93171SOL    HW181410   9.407   2.271  11.548
93171SOL    HW281411   9.367   2.238  11.691
93172SOL     OW81412  13.606  10.631   5.434
93172SOL    HW181413  13.691  10.589   5.429
93172SOL    HW281414  13.598  10.680   5.352
93173SOL     OW81415   9.950  12.505  10.107
93173SOL    HW181416   9.981  12.416  10.088
93173SOL    HW281417   9.996  12.529  10.188
93174SOL     OW81418   8.995   8.024   5.116
93174SOL    HW181419   9.057   8.050   5.184
93174SOL    HW281420   8.962   8.106   5.080
93175SOL     OW81421  13.674   8.202   7.545
93175SOL    HW181422  13.644   8.169   7.630
93175SOL    HW281423  13.769   8.191   7.547
93176SOL     OW81424   3.815  12.035   1.358
93176SOL    HW181425   3.858  11.984   1.426
93176SOL    HW281426   3.724  12.041   1.386
93177SOL     OW81427   2.531  12.733   9.053
93177SOL    HW181428   2.454  12.742   8.996
93177SOL    HW281429   2.540  12.818   9.095
93178SOL     OW81430   8.642   8.006   1.619
93178SOL    HW181431   8.554   7.997   1.584
93178SOL    HW281432   8.650   8.098   1.643
93179SOL     OW81433   6.917   3.169  10.594
93179SOL    HW181434   6.846   3.232  10.586
93179SOL    HW281435   6.974   3.187  10.520
93180SOL     OW81436  13.168   5.503  13.895
93180SOL    HW181437  13.131   5.468  13.976
93180SOL    HW281438  13.254   5.463  13.889
93181SOL     OW81439   9.658   0.422   1.531
93181SOL    HW181440   9.638   0.425   1.625
93181SOL    HW281441   9.660   0.329   1.509
93182SOL     OW81442   6.545   1.102   3.812
93182SOL    HW181443   6.563   1.167   3.880
93182SOL    HW281444   6.518   1.155   3.736
93183SOL     OW81445   9.393   5.641   5.145
93183SOL    HW181446   9.384   5.549   5.173
93183SOL    HW281447   9.433   5.685   5.220
93184SOL     OW81448   2.130  13.526   2.315
93184SOL    HW181449   2.196  13.460   2.292
93184SOL    HW281450   2.147  13.599   2.256
93185SOL     OW81451  14.607   5.039   3.417
93185SOL    HW181452  14.570   5.098   3.482
93185SOL    HW281453  14.659   4.976   3.468
93186SOL     OW81454   1.548   6.407  10.346
93186SOL    HW181455   1.560   6.424  10.253
93186SOL    HW281456   1.568   6.313  10.356
93187SOL     OW81457   3.640   1.826   1.920
93187SOL    HW181458   3.680   1.739   1.912
93187SOL    HW281459   3.711   1.883   1.950
93188SOL     OW81460  11.221   8.557   4.574
93188SOL    HW181461  11.143   8.504   4.555
93188SOL    HW281462  11.233   8.549   4.669
93189SOL     OW81463  12.072   3.349   0.850
93189SOL    HW181464  11.993   3.297   0.840
93189SOL    HW281465  12.063   3.390   0.936
93190SOL     OW81466   0.977   8.054   3.899
93190SOL    HW181467   1.053   7.997   3.898
93190SOL    HW281468   0.937   8.044   3.813
93191SOL     OW81469   5.608  14.283  12.314
93191SOL    HW181470   5.667  14.274  12.390
93191SOL    HW281471   5.628  14.370  12.279
93192SOL     OW81472   4.922   0.772  10.757
93192SOL    HW181473   5.015   0.785  10.777
93192SOL    HW281474   4.885   0.860  10.758
93193SOL     OW81475   4.051   7.722   5.545
93193SOL    HW181476   4.038   7.628   5.561
93193SOL    HW281477   4.057   7.730   5.450
93194SOL     OW81478   3.411   1.222   6.967
93194SOL    HW181479   3.367   1.267   6.895
93194SOL    HW281480   3.490   1.184   6.926
93195SOL     OW81481   3.859   5.203  13.265
93195SOL    HW181482   3.807   5.268  13.217
93195SOL    HW281483   3.839   5.120  13.222
93196SOL     OW81484   5.696   1.066  14.340
93196SOL    HW181485   5.683   1.115  14.422
93196SOL    HW281486   5.608   1.037  14.316
93197SOL     OW81487  14.297  10.763   8.880
93197SOL    HW181488  14.302  10.824   8.806
93197SOL    HW281489  14.204  10.740   8.887
93198SOL     OW81490   0.226  12.951   3.097
93198SOL    HW181491   0.288  13.001   3.043
93198SOL    HW281492   0.154  12.931   3.038
93199SOL     OW81493   7.924  11.422  10.246
93199SOL    HW181494   7.917  11.330  10.270
93199SOL    HW281495   8.000  11.454  10.294
93200SOL     OW81496   3.709   6.363   6.633
93200SOL    HW181497   3.721   6.284   6.686
93200SOL    HW281498   3.780   6.421   6.660
93201SOL     OW81499   6.019   1.119   7.993
93201SOL    HW181500   6.008   1.059   7.919
93201SOL    HW281501   6.079   1.073   8.052
93202SOL     OW81502   4.800   4.692  13.735
93202SOL    HW181503   4.823   4.736  13.653
93202SOL    HW281504   4.752   4.758  13.785
93203SOL     OW81505  10.261  12.600   7.047
93203SOL    HW181506  10.175  12.611   7.005
93203SOL    HW281507  10.243  12.612   7.141
93204SOL     OW81508   1.608   8.677   7.932
93204SOL    HW181509   1.691   8.645   7.897
93204SOL    HW281510   1.616   8.663   8.027
93205SOL     OW81511   6.237  12.794  10.504
93205SOL    HW181512   6.296  12.826  10.572
93205SOL    HW281513   6.267  12.837  10.424
93206SOL     OW81514  12.535   4.798   7.156
93206SOL    HW181515  12.565   4.819   7.068
93206SOL    HW281516  12.541   4.703   7.162
93207SOL     OW81517   3.227   9.216   1.944
93207SOL    HW181518   3.133   9.200   1.936
93207SOL    HW281519   3.239   9.247   2.033
93208SOL     OW81520  13.439   1.694  14.254
93208SOL    HW181521  13.377   1.663  14.187
93208SOL    HW281522  13.440   1.624  14.319
93209SOL     OW81523  12.118  13.497  14.532
93209SOL    HW181524  12.069  13.552  14.470
93209SOL    HW281525  12.207  13.532  14.529
93210SOL     OW81526   3.954  13.990  10.716
93210SOL    HW181527   3.863  13.969  10.735
93210SOL    HW281528   3.967  14.077  10.755
93211SOL     OW81529   4.598   0.687  10.933
93211SOL    HW181530   4.684   0.721  10.958
93211SOL    HW281531   4.558   0.659  11.016
93212SOL     OW81532   9.581   0.173   6.127
93212SOL    HW181533   9.535   0.180   6.043
93212SOL    HW281534   9.512   0.149   6.189
93213SOL     OW81535  11.727   6.709  10.799
93213SOL    HW181536  11.698   6.632  10.848
93213SOL    HW281537  11.679   6.705  10.717
93214SOL     OW81538   1.628   2.834   0.195
93214SOL    HW181539   1.567   2.765   0.171
93214SOL    HW281540   1.600   2.861   0.283
93215SOL     OW81541   0.660  12.966  13.923
93215SOL    HW181542   0.721  12.961  13.997
93215SOL    HW281543   0.615  13.049  13.934
93216SOL     OW81544   2.789   5.740  12.742
93216SOL    HW181545   2.804   5.768  12.651
93216SOL    HW281546   2.694   5.730  12.748
93217SOL     OW81547  10.012   3.792   9.709
93217SOL    HW181548   9.940   3.730   9.698
93217SOL    HW281549  10.018   3.837   9.625
93218SOL     OW81550   3.303   1.616   0.488
93218SOL    HW181551   3.328   1.609   0.580
93218SOL    HW281552   3.311   1.710   0.468
93219SOL     OW81553   2.091  11.613  13.373
93219SOL    HW181554   2.021  11.599  13.437
93219SOL    HW281555   2.045  11.639  13.293
93220SOL     OW81556   9.039   5.503  11.972
93220SOL    HW181557   9.034   5.486  11.878
93220SOL    HW281558   8.947   5.505  12.000
93221SOL     OW81559  11.370   2.208   2.295
93221SOL    HW181560  11.291   2.195   2.243
93221SOL    HW281561  11.350   2.284   2.349
93222SOL     OW81562  13.196  13.494   8.402
93222SOL    HW181563  13.217  13.444   8.481
93222SOL    HW281564  13.130  13.442   8.356
93223SOL     OW81565   8.079  13.414  12.013
93223SOL    HW181566   7.992  13.382  12.036
93223SOL    HW281567   8.126  13.419  12.097
93224SOL     OW81568   2.875   7.126   1.036
93224SOL    HW181569   2.918   7.182   1.101
93224SOL    HW281570   2.935   7.127   0.961
93225SOL     OW81571  13.144   2.858   6.893
93225SOL    HW181572  13.118   2.798   6.823
93225SOL    HW281573  13.170   2.801   6.965
93226SOL     OW81574   9.164  14.345   2.896
93226SOL    HW181575   9.143  14.413   2.833
93226SOL    HW281576   9.092  14.346   2.959
93227SOL     OW81577   4.107   4.343   9.694
93227SOL    HW181578   4.094   4.267   9.750
93227SOL    HW281579   4.053   4.326   9.617
93228SOL     OW81580   0.826  13.499   7.793
93228SOL    HW181581   0.767  13.425   7.806
93228SOL    HW281582   0.782  13.572   7.835
93229SOL     OW81583   8.166   1.696   0.337
93229SOL    HW181584   8.258   1.707   0.313
93229SOL    HW281585   8.168   1.672   0.429
93230SOL     OW81586  10.129   7.124   2.526
93230SOL    HW181587  10.095   7.208   2.494
93230SOL    HW281588  10.213   7.147   2.567
93231SOL     OW81589  10.360   1.082   0.769
93231SOL    HW181590  10.289   1.113   0.712
93231SOL    HW281591  10.342   0.989   0.782
93232SOL     OW81592  14.390   7.827  10.640
93232SOL    HW181593  14.319   7.765  10.621
93232SOL    HW281594  14.468   7.771  10.650
93233SOL     OW81595   7.943  11.025   9.585
93233SOL    HW181596   7.921  11.104   9.634
93233SOL    HW281597   7.992  10.971   9.647
93234SOL     OW81598   9.401   7.708   9.939
93234SOL    HW181599   9.336   7.715   9.869
93234SOL    HW281600   9.395   7.617   9.969
93235SOL     OW81601   0.722   7.602  11.737
93235SOL    HW181602   0.757   7.558  11.660
93235SOL    HW281603   0.713   7.533  11.803
93236SOL     OW81604   3.737  12.520   5.846
93236SOL    HW181605   3.735  12.435   5.892
93236SOL    HW281606   3.684  12.506   5.768
93237SOL     OW81607  12.668  10.087   1.684
93237SOL    HW181608  12.668   9.992   1.674
93237SOL    HW281609  12.613  10.119   1.612
93238SOL     OW81610  10.328   3.784   1.139
93238SOL    HW181611  10.265   3.804   1.208
93238SOL    HW281612  10.274   3.752   1.066
93239SOL     OW81613   8.247   5.615   0.849
93239SOL    HW181614   8.330   5.643   0.811
93239SOL    HW281615   8.263   5.616   0.944
93240SOL     OW81616   6.714   5.027  13.620
93240SOL    HW181617   6.647   5.096  13.618
93240SOL    HW281618   6.677   4.957  13.566
93241SOL     OW81619  10.403   7.836   1.918
93241SOL    HW181620  10.498   7.821   1.921
93241SOL    HW281621  10.383   7.875   2.003
93242SOL     OW81622   2.452   9.216  12.280
93242SOL    HW181623   2.373   9.228  12.227
93242SOL    HW281624   2.493   9.302  12.282
93243SOL     OW81625   9.582   9.812   0.411
93243SOL    HW181626   9.593   9.864   0.491
93243SOL    HW281627   9.671   9.807   0.374
93244SOL     OW81628  13.976   4.214   6.596
93244SOL    HW181629  13.961   4.297   6.640
93244SOL    HW281630  14.029   4.163   6.657
93245SOL     OW81631   2.583   2.637   2.454
93245SOL    HW181632   2.622   2.704   2.397
93245SOL    HW281633   2.511   2.682   2.498
93246SOL     OW81634   4.243   7.471   0.431
93246SOL    HW181635   4.308   7.456   0.362
93246SOL    HW281636   4.245   7.390   0.483
93247SOL     OW81637   1.986   6.801  10.435
93247SOL    HW181638   2.081   6.809  10.439
93247SOL    HW281639   1.971   6.732  10.370
93248SOL     OW81640   4.656   7.004  12.861
93248SOL    HW181641   4.686   7.050  12.783
93248SOL    HW281642   4.643   6.914  12.833
93249SOL     OW81643   5.102   0.700   5.613
93249SOL    HW181644   5.053   0.623   5.585
93249SOL    HW281645   5.051   0.735   5.686
93250SOL     OW81646   2.829  12.470   1.318
93250SOL    HW181647   2.829  12.527   1.395
93250SOL    HW281648   2.901  12.408   1.334
93251SOL     OW81649   3.206   7.108  10.595
93251SOL    HW181650   3.284   7.163  10.589
93251SOL    HW281651   3.176   7.120  10.685
93252SOL     OW81652  10.433   2.746   2.095
93252SOL    HW181653  10.421   2.652   2.111
93252SOL    HW281654  10.404   2.759   2.005
93253SOL     OW81655   3.077   9.021  13.669
93253SOL    HW181656   3.171   9.012  13.681
93253SOL    HW281657   3.052   8.941  13.621
93254SOL     OW81658   1.204   1.012  11.666
93254SOL    HW181659   1.128   1.060  11.701
93254SOL    HW281660   1.173   0.922  11.657
93255SOL     OW81661  12.183   2.489  14.036
93255SOL    HW181662  12.112   2.553  14.038
93255SOL    HW281663  12.258   2.537  14.001
93256SOL     OW81664   2.732   9.532  12.261
93256SOL    HW181665   2.647   9.501  12.294
93256SOL    HW281666   2.729   9.627  12.275
93257SOL     OW81667   0.903   1.229  13.948
93257SOL    HW181668   0.924   1.193  14.034
93257SOL    HW281669   0.939   1.166  13.886
93258SOL     OW81670   8.104   9.608   7.386
93258SOL    HW181671   8.024   9.620   7.437
93258SOL    HW281672   8.103   9.680   7.323
93259SOL     OW81673   1.079   4.788  11.887
93259SOL    HW181674   1.120   4.855  11.941
93259SOL    HW281675   1.096   4.816  11.796
93260SOL     OW81676   1.287  12.216  14.416
93260SOL    HW181677   1.213  12.256  14.369
93260SOL    HW281678   1.363  12.237  14.362
93261SOL     OW81679  10.026   4.567   9.623
93261SOL    HW181680  10.058   4.628   9.557
93261SOL    HW281681  10.012   4.485   9.575
93262SOL     OW81682  13.055   6.852   8.394
93262SOL    HW181683  13.070   6.869   8.487
93262SOL    HW281684  13.132   6.888   8.350
93263SOL     OW81685  14.242   3.520   4.869
93263SOL    HW181686  14.290   3.447   4.829
93263SOL    HW281687  14.219   3.577   4.795
93264SOL     OW81688  12.768  10.798  11.561
93264SOL    HW181689  12.747  10.729  11.498
93264SOL    HW281690  12.854  10.774  11.595
93265SOL     OW81691  12.995   1.056  14.358
93265SOL    HW181692  12.944   0.984  14.321
93265SOL    HW281693  13.081   1.016  14.377
93266SOL     OW81694   3.292  12.067   5.257
93266SOL    HW181695   3.254  11.979   5.256
93266SOL    HW281696   3.244  12.114   5.324
93267SOL     OW81697   0.115   0.662   4.675
93267SOL    HW181698   0.107   0.662   4.579
93267SOL    HW281699   0.174   0.589   4.694
93268SOL     OW81700   1.926   4.056   9.613
93268SOL    HW181701   2.014   4.091   9.600
93268SOL    HW281702   1.937   3.961   9.605
93269SOL     OW81703   4.766   0.796   0.250
93269SOL    HW181704   4.842   0.740   0.266
93269SOL    HW281705   4.690   0.739   0.262
93270SOL     OW81706   3.312  11.691   2.754
93270SOL    HW181707   3.374  11.670   2.824
93270SOL    HW281708   3.242  11.740   2.798
93271SOL     OW81709   6.988  12.011  13.268
93271SOL    HW181710   6.947  12.045  13.189
93271SOL    HW281711   7.078  12.041  13.264
93272SOL     OW81712  12.705  12.231   8.734
93272SOL    HW181713  12.665  12.305   8.779
93272SOL    HW281714  12.633  12.190   8.686
93273SOL     OW81715  14.282   8.395   6.400
93273SOL    HW181716  14.296   8.474   6.452
93273SOL    HW281717  14.220   8.423   6.332
93274SOL     OW81718   3.940  11.076   4.146
93274SOL    HW181719   4.027  11.044   4.124
93274SOL    HW281720   3.882  11.003   4.125
93275SOL     OW81721   0.480   4.246   4.545
93275SOL    HW181722   0.405   4.304   4.531
93275SOL    HW281723   0.555   4.305   4.553
93276SOL     OW81724  11.660  14.659  14.619
93276SOL    HW181725  11.583  14.674  14.674
93276SOL    HW281726  11.731  14.643  14.681
93277SOL     OW81727  12.099   8.892   0.103
93277SOL    HW181728  12.161   8.958   0.136
93277SOL    HW281729  12.152   8.814   0.089
93278SOL     OW81730   7.382  14.536   1.633
93278SOL    HW181731   7.348  14.623   1.656
93278SOL    HW281732   7.445  14.553   1.563
93279SOL     OW81733   4.719   2.034   9.538
93279SOL    HW181734   4.807   2.048   9.502
93279SOL    HW281735   4.729   1.959   9.597
93280SOL     OW81736   5.947   1.026   6.484
93280SOL    HW181737   5.877   1.076   6.442
93280SOL    HW281738   5.906   0.943   6.508
93281SOL     OW81739  12.076   5.164  12.204
93281SOL    HW181740  12.038   5.183  12.118
93281SOL    HW281741  12.031   5.224  12.264
93282SOL     OW81742   1.507   8.890   4.543
93282SOL    HW181743   1.587   8.905   4.493
93282SOL    HW281744   1.437   8.891   4.476
93283SOL     OW81745  11.430   6.735   4.773
93283SOL    HW181746  11.459   6.826   4.772
93283SOL    HW281747  11.362   6.730   4.706
93284SOL     OW81748   2.347   3.335   0.396
93284SOL    HW181749   2.325   3.382   0.477
93284SOL    HW281750   2.292   3.374   0.329
93285SOL     OW81751   9.997   6.516  14.352
93285SOL    HW181752   9.973   6.565  14.274
93285SOL    HW281753  10.022   6.429  14.321
93286SOL     OW81754  11.490   8.873   5.441
93286SOL    HW181755  11.405   8.858   5.398
93286SOL    HW281756  11.543   8.916   5.374
93287SOL     OW81757   7.099   2.533   4.169
93287SOL    HW181758   7.160   2.471   4.129
93287SOL    HW281759   7.028   2.542   4.105
93288SOL     OW81760  10.400   1.988   1.148
93288SOL    HW181761  10.383   1.965   1.239
93288SOL    HW281762  10.493   2.010   1.146
93289SOL     OW81763   0.518   0.761  12.644
93289SOL    HW181764   0.476   0.678  12.666
93289SOL    HW281765   0.575   0.739  12.570
93290SOL     OW81766   9.851   0.324   9.285
93290SOL    HW181767   9.932   0.284   9.254
93290SOL    HW281768   9.847   0.300   9.378
93291SOL     OW81769   4.237  14.860   5.994
93291SOL    HW181770   4.276   0.065   5.974
93291SOL    HW281771   4.144  14.870   5.974
93292SOL     OW81772  10.955   3.823  11.790
93292SOL    HW181773  10.980   3.743  11.837
93292SOL    HW281774  10.863   3.809  11.767
93293SOL     OW81775   8.404   0.519  11.065
93293SOL    HW181776   8.498   0.533  11.070
93293SOL    HW281777   8.370   0.599  11.025
93294SOL     OW81778   0.403   9.721  10.931
93294SOL    HW181779   0.321   9.754  10.895
93294SOL    HW281780   0.387   9.627  10.945
93295SOL     OW81781   0.487   3.594  12.674
93295SOL    HW181782   0.557   3.577  12.736
93295SOL    HW281783   0.507   3.681  12.638
93296SOL     OW81784  12.083   8.530  12.063
93296SOL    HW181785  12.064   8.557  11.973
93296SOL    HW281786  12.050   8.441  12.068
93297SOL     OW81787  11.241   0.672   1.021
93297SOL    HW181788  11.169   0.692   1.081
93297SOL    HW281789  11.284   0.595   1.059
93298SOL     OW81790   0.699   2.437   7.497
93298SOL    HW181791   0.759   2.507   7.474
93298SOL    HW281792   0.701   2.433   7.592
93299SOL     OW81793  11.023   0.379   5.438
93299SOL    HW181794  10.957   0.429   5.486
93299SOL    HW281795  10.981   0.294   5.422
93300SOL     OW81796   9.978   1.755  14.842
93300SOL    HW181797  10.071   1.731  14.841
93300SOL    HW281798   9.955   1.764  14.750
93301SOL     OW81799   1.335   4.251  12.428
93301SOL    HW181800   1.384   4.169  12.427
93301SOL    HW281801   1.387   4.310  12.373
93302SOL     OW81802   9.122   8.808   6.176
93302SOL    HW181803   9.099   8.758   6.098
93302SOL    HW281804   9.105   8.749   6.249
93303SOL     OW81805   9.586  12.243   7.956
93303SOL    HW181806   9.639  12.266   7.879
93303SOL    HW281807   9.641  12.183   8.006
93304SOL     OW81808  12.920   8.847   0.401
93304SOL    HW181809  12.990   8.905   0.369
93304SOL    HW281810  12.939   8.763   0.359
93305SOL     OW81811   9.224   6.122   0.524
93305SOL    HW181812   9.294   6.098   0.463
93305SOL    HW281813   9.173   6.041   0.535
93306SOL     OW81814  11.681   8.835   0.288
93306SOL    HW181815  11.599   8.883   0.281
93306SOL    HW281816  11.656   8.747   0.315
93307SOL     OW81817   4.913   0.120  14.389
93307SOL    HW181818   4.984   0.137  14.328
93307SOL    HW281819   4.845   0.078  14.336
93308SOL     OW81820   5.282  10.857   4.813
93308SOL    HW181821   5.223  10.932   4.819
93308SOL    HW281822   5.311  10.843   4.903
93309SOL     OW81823   4.431   5.297   9.298
93309SOL    HW181824   4.518   5.261   9.317
93309SOL    HW281825   4.444   5.392   9.300
93310SOL     OW81826  12.185   1.649   3.745
93310SOL    HW181827  12.199   1.729   3.695
93310SOL    HW281828  12.107   1.609   3.706
93311SOL     OW81829   8.448  12.919   1.899
93311SOL    HW181830   8.500  12.839   1.903
93311SOL    HW281831   8.472  12.960   1.816
93312SOL     OW81832   2.990  10.539   2.083
93312SOL    HW181833   3.061  10.603   2.077
93312SOL    HW281834   3.030  10.456   2.058
93313SOL     OW81835  13.598   4.009   1.128
93313SOL    HW181836  13.514   4.000   1.174
93313SOL    HW281837  13.619   4.102   1.136
93314SOL     OW81838  10.265  14.311  10.663
93314SOL    HW181839  10.281  14.354  10.580
93314SOL    HW281840  10.170  14.316  10.675
93315SOL     OW81841  12.432   5.044   4.064
93315SOL    HW181842  12.454   4.951   4.073
93315SOL    HW281843  12.503   5.090   4.107
93316SOL     OW81844  13.051   2.579   4.498
93316SOL    HW181845  13.146   2.585   4.488
93316SOL    HW281846  13.020   2.546   4.414
93317SOL     OW81847  14.166   5.948   2.852
93317SOL    HW181848  14.121   5.939   2.768
93317SOL    HW281849  14.127   5.882   2.909
93318SOL     OW81850   2.316   4.055   0.744
93318SOL    HW181851   2.404   4.083   0.768
93318SOL    HW281852   2.308   3.968   0.784
93319SOL     OW81853   7.683  10.256   7.212
93319SOL    HW181854   7.702  10.341   7.250
93319SOL    HW281855   7.612  10.272   7.150
93320SOL     OW81856  13.702  12.123   0.012
93320SOL    HW181857  13.686  12.062   0.083
93320SOL    HW281858  13.659  12.084  14.816
93321SOL     OW81859  12.023   5.165   1.613
93321SOL    HW181860  12.113   5.147   1.641
93321SOL    HW281861  11.969   5.141   1.689
93322SOL     OW81862  12.830  14.748  13.957
93322SOL    HW181863  12.827  14.843  13.942
93322SOL    HW281864  12.800  14.710  13.874
93323SOL     OW81865   4.768   0.158   8.479
93323SOL    HW181866   4.729   0.233   8.523
93323SOL    HW281867   4.723   0.152   8.395
93324SOL     OW81868   9.711  14.563   7.287
93324SOL    HW181869   9.703  14.540   7.195
93324SOL    HW281870   9.805  14.567   7.303
93325SOL     OW81871  11.219   3.901   0.518
93325SOL    HW181872  11.186   3.935   0.435
93325SOL    HW281873  11.212   3.806   0.510
93326SOL     OW81874  11.134   2.037  11.390
93326SOL    HW181875  11.099   2.079  11.311
93326SOL    HW281876  11.211   2.089  11.412
93327SOL     OW81877  10.850   9.970   6.861
93327SOL    HW181878  10.795   9.975   6.784
93327SOL    HW281879  10.826   9.887   6.903
93328SOL     OW81880  14.358  12.076   6.327
93328SOL    HW181881  14.331  12.077   6.419
93328SOL    HW281882  14.309  12.148   6.288
93329SOL     OW81883   1.400   2.901   7.437
93329SOL    HW181884   1.475   2.957   7.456
93329SOL    HW281885   1.326   2.944   7.480
93330SOL     OW81886  11.038   5.798   9.005
93330SOL    HW181887  11.061   5.878   9.053
93330SOL    HW281888  11.122   5.765   8.972
93331SOL     OW81889   1.100   3.981   5.519
93331SOL    HW181890   1.147   3.992   5.436
93331SOL    HW281891   1.039   3.909   5.502
93332SOL     OW81892   3.317   9.066  12.251
93332SOL    HW181893   3.291   9.077  12.342
93332SOL    HW281894   3.262   8.995  12.218
93333SOL     OW81895   6.727   8.748   4.403
93333SOL    HW181896   6.633   8.738   4.420
93333SOL    HW281897   6.755   8.661   4.374
93334SOL     OW81898   0.930   0.735   5.594
93334SOL    HW181899   1.010   0.682   5.587
93334SOL    HW281900   0.932   0.792   5.517
93335SOL     OW81901  14.351   9.552   9.141
93335SOL    HW181902  14.293   9.540   9.065
93335SOL    HW281903  14.435   9.518   9.111
93336SOL     OW81904  14.491   1.102   7.008
93336SOL    HW181905  14.408   1.137   7.042
93336SOL    HW281906  14.479   1.100   6.913
93337SOL     OW81907  10.952   5.805   8.269
93337SOL    HW181908  11.017   5.806   8.198
93337SOL    HW281909  10.885   5.743   8.239
93338SOL     OW81910   0.255  11.993  11.434
93338SOL    HW181911   0.245  11.935  11.509
93338SOL    HW281912   0.172  12.040  11.428
93339SOL     OW81913  12.127   6.614   7.190
93339SOL    HW181914  12.089   6.668   7.120
93339SOL    HW281915  12.077   6.639   7.268
93340SOL     OW81916  13.283  13.779   1.239
93340SOL    HW181917  13.197  13.737   1.242
93340SOL    HW281918  13.266  13.870   1.263
93341SOL     OW81919   7.858   4.845  11.056
93341SOL    HW181920   7.772   4.808  11.038
93341SOL    HW281921   7.919   4.773  11.040
93342SOL     OW81922   0.091   2.637   5.616
93342SOL    HW181923   0.109   2.713   5.672
93342SOL    HW281924   0.171   2.585   5.620
93343SOL     OW81925   3.211  12.195   6.402
93343SOL    HW181926   3.278  12.217   6.467
93343SOL    HW281927   3.136  12.249   6.427
93344SOL     OW81928   0.721  14.826  14.795
93344SOL    HW181929   0.784   0.017  14.808
93344SOL    HW281930   0.776  14.749  14.781
93345SOL     OW81931  11.352   9.816   4.677
93345SOL    HW181932  11.446   9.828   4.663
93345SOL    HW281933  11.327   9.888   4.735
93346SOL     OW81934  11.985  10.288  10.588
93346SOL    HW181935  11.961  10.203  10.625
93346SOL    HW281936  11.972  10.278  10.494
93347SOL     OW81937  13.895   7.839  13.496
93347SOL    HW181938  13.984   7.806  13.506
93347SOL    HW281939  13.881   7.845  13.401
93348SOL     OW81940   1.200   6.720   2.559
93348SOL    HW181941   1.280   6.771   2.570
93348SOL    HW281942   1.151   6.768   2.492
93349SOL     OW81943  12.543   5.568   0.805
93349SOL    HW181944  12.523   5.519   0.885
93349SOL    HW281945  12.616   5.520   0.766
93350SOL     OW81946  14.282  11.975   1.896
93350SOL    HW181947  14.350  11.909   1.897
93350SOL    HW281948  14.284  12.014   1.983
93351SOL     OW81949  14.843   8.013   8.799
93351SOL    HW181950  14.873   7.951   8.865
93351SOL    HW281951  14.837   8.097   8.846
93352SOL     OW81952   6.429   5.955   8.738
93352SOL    HW181953   6.503   5.974   8.794
93352SOL    HW281954   6.384   6.039   8.728
93353SOL     OW81955   8.620  12.380   8.122
93353SOL    HW181956   8.566  12.335   8.057
93353SOL    HW281957   8.687  12.424   8.070
93354SOL     OW81958  14.539  13.270   6.592
93354SOL    HW181959  14.486  13.343   6.560
93354SOL    HW281960  14.493  13.240   6.671
93355SOL     OW81961   8.008   3.746   2.579
93355SOL    HW181962   7.922   3.777   2.552
93355SOL    HW281963   8.030   3.798   2.656
93356SOL     OW81964  13.168   9.380  11.715
93356SOL    HW181965  13.165   9.292  11.753
93356SOL    HW281966  13.261   9.403  11.719
93357SOL     OW81967   4.937  10.330   6.067
93357SOL    HW181968   4.936  10.264   5.998
93357SOL    HW281969   4.859  10.383   6.051
93358SOL     OW81970   9.688   1.804   3.137
93358SOL    HW181971   9.692   1.867   3.209
93358SOL    HW281972   9.654   1.724   3.178
93359SOL     OW81973  13.672   0.026   1.173
93359SOL    HW181974  13.766   0.021   1.186
93359SOL    HW281975  13.642  14.815   1.178
93360SOL     OW81976   0.931   0.505  14.060
93360SOL    HW181977   0.868   0.525  14.129
93360SOL    HW281978   0.917   0.412  14.041
93361SOL     OW81979  13.769   3.250  11.622
93361SOL    HW181980  13.776   3.170  11.673
93361SOL    HW281981  13.820   3.233  11.543
93362SOL     OW81982  14.287   6.507   4.139
93362SOL    HW181983  14.219   6.499   4.206
93362SOL    HW281984  14.359   6.453   4.172
93363SOL     OW81985  10.449   4.855  13.348
93363SOL    HW181986  10.457   4.766  13.382
93363SOL    HW281987  10.538   4.877  13.318
93364SOL     OW81988  12.849  11.420   9.023
93364SOL    HW181989  12.795  11.484   9.071
93364SOL    HW281990  12.939  11.451   9.036
93365SOL     OW81991   3.524   1.428   6.232
93365SOL    HW181992   3.524   1.333   6.241
93365SOL    HW281993   3.441   1.448   6.189
93366SOL     OW81994  10.762   6.792  13.492
93366SOL    HW181995  10.795   6.703  13.503
93366SOL    HW281996  10.673   6.780  13.458
93367SOL     OW81997   5.382  11.404  12.557
93367SOL    HW181998   5.313  11.414  12.623
93367SOL    HW281999   5.353  11.458  12.484
93368SOL     OW82000  14.690  13.031  14.146
93368SOL    HW182001  14.695  13.004  14.238
93368SOL    HW282002  14.640  12.962  14.104
93369SOL     OW82003   1.900  11.954   1.474
93369SOL    HW182004   1.884  12.035   1.425
93369SOL    HW282005   1.894  11.885   1.408
93370SOL     OW82006   4.313   2.149   8.593
93370SOL    HW182007   4.305   2.226   8.536
93370SOL    HW282008   4.319   2.075   8.533
93371SOL     OW82009  11.971   7.913   6.900
93371SOL    HW182010  12.032   7.986   6.894
93371SOL    HW282011  12.027   7.835   6.899
93372SOL     OW82012   0.971   0.112  10.965
93372SOL    HW182013   1.032   0.117  11.039
93372SOL    HW282014   0.947   0.020  10.959
93373SOL     OW82015   1.413  13.977   4.671
93373SOL    HW182016   1.349  14.012   4.609
93373SOL    HW282017   1.483  14.041   4.672
93374SOL     OW82018   9.594   6.023   8.597
93374SOL    HW182019   9.586   6.078   8.676
93374SOL    HW282020   9.687   6.027   8.576
93375SOL     OW82021  14.789   3.024   1.266
93375SOL    HW182022  14.741   3.057   1.342
93375SOL    HW282023  14.848   3.096   1.242
93376SOL     OW82024  14.389   0.674   9.426
93376SOL    HW182025  14.368   0.594   9.376
93376SOL    HW282026  14.471   0.654   9.470
93377SOL     OW82027   2.302  14.869   6.358
93377SOL    HW182028   2.243   0.056   6.323
93377SOL    HW282029   2.385   0.006   6.314
93378SOL     OW82030  11.149   5.514   9.673
93378SOL    HW182031  11.207   5.458   9.621
93378SOL    HW282032  11.064   5.508   9.628
93379SOL     OW82033   7.485   2.259   1.671
93379SOL    HW182034   7.529   2.294   1.594
93379SOL    HW282035   7.408   2.315   1.682
93380SOL     OW82036   9.739   6.303   8.720
93380SOL    HW182037   9.812   6.364   8.712
93380SOL    HW282038   9.758   6.254   8.800
93381SOL     OW82039   6.085  12.747   0.424
93381SOL    HW182040   6.131  12.821   0.386
93381SOL    HW282041   6.101  12.755   0.518
93382SOL     OW82042   4.946   1.421   0.083
93382SOL    HW182043   4.957   1.509   0.118
93382SOL    HW282044   4.971   1.363   0.155
93383SOL     OW82045   0.744   0.301   9.159
93383SOL    HW182046   0.732   0.210   9.188
93383SOL    HW282047   0.685   0.309   9.083
93384SOL     OW82048   9.899   9.778  10.432
93384SOL    HW182049   9.846   9.803  10.508
93384SOL    HW282050   9.988   9.803  10.455
93385SOL     OW82051   8.473   9.354  10.395
93385SOL    HW182052   8.413   9.346  10.468
93385SOL    HW282053   8.545   9.407  10.429
93386SOL     OW82054   8.503   0.465   0.195
93386SOL    HW182055   8.531   0.375   0.180
93386SOL    HW282056   8.419   0.458   0.240
93387SOL     OW82057   3.601   5.470   9.773
93387SOL    HW182058   3.554   5.391   9.795
93387SOL    HW282059   3.612   5.516   9.856
93388SOL     OW82060   5.348   2.411  13.433
93388SOL    HW182061   5.320   2.498  13.460
93388SOL    HW282062   5.419   2.389  13.493
93389SOL     OW82063   4.036  10.523   0.547
93389SOL    HW182064   3.969  10.456   0.561
93389SOL    HW282065   4.103  10.478   0.496
93390SOL     OW82066   6.807   4.878   4.929
93390SOL    HW182067   6.896   4.843   4.922
93390SOL    HW282068   6.759   4.812   4.980
93391SOL     OW82069   6.925   1.880  11.869
93391SOL    HW182070   6.945   1.873  11.775
93391SOL    HW282071   6.989   1.823  11.911
93392SOL     OW82072  12.717   3.683   7.037
93392SOL    HW182073  12.693   3.697   7.129
93392SOL    HW282074  12.702   3.590   7.022
93393SOL     OW82075  10.520  13.449   1.682
93393SOL    HW182076  10.546  13.435   1.773
93393SOL    HW282077  10.490  13.363   1.652
93394SOL     OW82078  10.260   3.939   2.915
93394SOL    HW182079  10.226   3.945   3.005
93394SOL    HW282080  10.212   4.005   2.866
93395SOL     OW82081  14.848   7.820  12.343
93395SOL    HW182082  14.789   7.831  12.418
93395SOL    HW282083   0.053   7.801  12.382
93396SOL     OW82084   4.448  10.583   2.042
93396SOL    HW182085   4.440  10.677   2.028
93396SOL    HW282086   4.382  10.544   1.984
93397SOL     OW82087   3.533   7.498  14.628
93397SOL    HW182088   3.538   7.463  14.717
93397SOL    HW282089   3.446   7.474  14.597
93398SOL     OW82090   0.714   9.684   4.212
93398SOL    HW182091   0.724   9.589   4.204
93398SOL    HW282092   0.747   9.704   4.299
93399SOL     OW82093  12.743   9.155   6.986
93399SOL    HW182094  12.714   9.166   7.077
93399SOL    HW282095  12.774   9.242   6.960
93400SOL     OW82096   3.708   9.327   1.980
93400SOL    HW182097   3.711   9.317   1.885
93400SOL    HW282098   3.653   9.254   2.010
93401SOL     OW82099   7.003  12.991  13.015
93401SOL    HW182100   7.068  13.061  13.023
93401SOL    HW282101   6.998  12.953  13.102
93402SOL     OW82102  12.433   0.520   7.848
93402SOL    HW182103  12.471   0.581   7.785
93402SOL    HW282104  12.502   0.456   7.864
93403SOL     OW82105   4.065   7.815  10.553
93403SOL    HW182106   4.156   7.788  10.538
93403SOL    HW282107   4.020   7.794  10.471
93404SOL     OW82108   8.116  11.147   7.674
93404SOL    HW182109   8.129  11.230   7.718
93404SOL    HW282110   8.093  11.171   7.584
93405SOL     OW82111   5.009   5.284  12.831
93405SOL    HW182112   5.082   5.323  12.879
93405SOL    HW282113   4.931   5.308  12.880
93406SOL     OW82114   0.751   5.520  14.240
93406SOL    HW182115   0.700   5.461  14.296
93406SOL    HW282116   0.818   5.465  14.201
93407SOL     OW82117   4.006   8.003   7.353
93407SOL    HW182118   4.081   7.978   7.407
93407SOL    HW282119   3.931   7.999   7.413
93408SOL     OW82120  11.104  14.785   5.066
93408SOL    HW182121  11.182  14.739   5.034
93408SOL    HW282122  11.062  14.820   4.987
93409SOL     OW82123  14.348   6.030  10.462
93409SOL    HW182124  14.268   6.079  10.480
93409SOL    HW282125  14.325   5.972  10.389
93410SOL     OW82126  11.172   0.668   7.299
93410SOL    HW182127  11.148   0.616   7.222
93410SOL    HW282128  11.157   0.758   7.273
93411SOL     OW82129   0.244   8.120   8.752
93411SOL    HW182130   0.183   8.136   8.824
93411SOL    HW282131   0.207   8.046   8.705
93412SOL     OW82132   8.955  12.301   1.351
93412SOL    HW182133   8.989  12.272   1.267
93412SOL    HW282134   8.873  12.253   1.361
93413SOL     OW82135   8.408   3.580  13.996
93413SOL    HW182136   8.495   3.544  13.981
93413SOL    HW282137   8.359   3.561  13.916
93414SOL     OW82138   9.585  13.335   6.680
93414SOL    HW182139   9.510  13.301   6.631
93414SOL    HW282140   9.655  13.341   6.615
93415SOL     OW82141   8.692   5.001   4.793
93415SOL    HW182142   8.761   5.053   4.751
93415SOL    HW282143   8.740   4.934   4.843
93416SOL     OW82144  13.091  11.971  10.663
93416SOL    HW182145  13.004  11.933  10.650
93416SOL    HW282146  13.129  11.921  10.736
93417SOL     OW82147  12.396   1.586   7.714
93417SOL    HW182148  12.420   1.494   7.731
93417SOL    HW282149  12.388   1.591   7.619
93418SOL     OW82150   1.977   0.468  10.772
93418SOL    HW182151   2.001   0.424  10.853
93418SOL    HW282152   1.986   0.561  10.791
93419SOL     OW82153  11.739   5.139   6.433
93419SOL    HW182154  11.704   5.058   6.394
93419SOL    HW282155  11.812   5.110   6.487
93420SOL     OW82156   1.699   4.490   3.811
93420SOL    HW182157   1.666   4.534   3.732
93420SOL    HW282158   1.627   4.433   3.839
93421SOL     OW82159   5.356  12.547   3.418
93421SOL    HW182160   5.332  12.639   3.405
93421SOL    HW282161   5.406  12.524   3.339
93422SOL     OW82162   0.834   5.872   9.233
93422SOL    HW182163   0.759   5.856   9.176
93422SOL    HW282164   0.845   5.968   9.233
93423SOL     OW82165  13.237  10.485   6.765
93423SOL    HW182166  13.174  10.414   6.758
93423SOL    HW282167  13.318  10.443   6.794
93424SOL     OW82168   5.270   5.482  11.266
93424SOL    HW182169   5.353   5.442  11.292
93424SOL    HW282170   5.290   5.575  11.256
93425SOL     OW82171  13.302   1.495  12.092
93425SOL    HW182172  13.307   1.547  12.172
93425SOL    HW282173  13.356   1.419  12.109
93426SOL     OW82174  11.727   7.021   3.658
93426SOL    HW182175  11.661   7.065   3.605
93426SOL    HW282176  11.677   6.957   3.709
93427SOL     OW82177   8.035   3.450   8.156
93427SOL    HW182178   8.104   3.504   8.192
93427SOL    HW282179   7.982   3.425   8.231
93428SOL     OW82180   5.770   8.995   0.413
93428SOL    HW182181   5.708   8.993   0.341
93428SOL    HW282182   5.846   9.042   0.378
93429SOL     OW82183   9.229   3.626   7.062
93429SOL    HW182184   9.221   3.712   7.103
93429SOL    HW282185   9.304   3.634   7.003
93430SOL     OW82186   4.226  12.185   7.941
93430SOL    HW182187   4.135  12.173   7.914
93430SOL    HW282188   4.220  12.213   8.033
93431SOL     OW82189  11.038   4.160  10.016
93431SOL    HW182190  11.109   4.097  10.016
93431SOL    HW282191  10.969   4.120  10.070
93432SOL     OW82192  11.870   2.099  10.439
93432SOL    HW182193  11.804   2.153  10.483
93432SOL    HW282194  11.945   2.101  10.498
93433SOL     OW82195   2.674   6.930   1.503
93433SOL    HW182196   2.636   7.012   1.536
93433SOL    HW282197   2.662   6.935   1.408
93434SOL     OW82198   6.611  13.613   1.868
93434SOL    HW182199   6.572  13.698   1.849
93434SOL    HW282200   6.688  13.634   1.922
93435SOL     OW82201   8.795   1.471   2.778
93435SOL    HW182202   8.724   1.512   2.828
93435SOL    HW282203   8.817   1.535   2.711
93436SOL     OW82204  11.369   4.408  13.922
93436SOL    HW182205  11.297   4.407  13.860
93436SOL    HW282206  11.370   4.321  13.960
93437SOL     OW82207   8.042   4.209   5.308
93437SOL    HW182208   8.133   4.190   5.288
93437SOL    HW282209   7.998   4.123   5.304
93438SOL     OW82210   5.854  13.962  13.601
93438SOL    HW182211   5.943  13.979  13.571
93438SOL    HW282212   5.803  14.035  13.567
93439SOL     OW82213   8.416   4.925  14.280
93439SOL    HW182214   8.348   4.881  14.229
93439SOL    HW282215   8.455   4.855  14.332
93440SOL     OW82216  13.819   8.976  13.640
93440SOL    HW182217  13.734   8.971  13.682
93440SOL    HW282218  13.841   8.886  13.618
93441SOL     OW82219  10.980   6.935   3.260
93441SOL    HW182220  10.918   6.901   3.195
93441SOL    HW282221  11.030   7.001   3.212
93442SOL     OW82222  12.127   2.237   5.616
93442SOL    HW182223  12.198   2.285   5.660
93442SOL    HW282224  12.163   2.214   5.531
93443SOL     OW82225  12.637   3.050   9.489
93443SOL    HW182226  12.610   2.964   9.522
93443SOL    HW282227  12.708   3.031   9.428
93444SOL     OW82228   4.770   2.020  10.432
93444SOL    HW182229   4.766   2.116  10.431
93444SOL    HW282230   4.697   1.994  10.488
93445SOL     OW82231   2.447  11.077   7.366
93445SOL    HW182232   2.533  11.118   7.357
93445SOL    HW282233   2.432  11.072   7.460
93446SOL     OW82234   9.854  11.648   2.920
93446SOL    HW182235   9.941  11.609   2.915
93446SOL    HW282236   9.857  11.721   2.858
93447SOL     OW82237  13.127  14.856   1.331
93447SOL    HW182238  13.178  14.780   1.362
93447SOL    HW282239  13.083  14.824   1.253
93448SOL     OW82240  10.616   2.598   1.200
93448SOL    HW182241  10.711   2.605   1.210
93448SOL    HW282242  10.593   2.671   1.142
93449SOL     OW82243   3.362   4.439   4.227
93449SOL    HW182244   3.300   4.439   4.300
93449SOL    HW282245   3.310   4.465   4.151
93450SOL     OW82246   2.432   5.576   1.319
93450SOL    HW182247   2.357   5.550   1.373
93450SOL    HW282248   2.458   5.661   1.354
93451SOL     OW82249   9.704   5.775   1.611
93451SOL    HW182250   9.653   5.729   1.678
93451SOL    HW282251   9.671   5.740   1.528
93452SOL     OW82252  14.605   3.316   2.293
93452SOL    HW182253  14.544   3.380   2.256
93452SOL    HW282254  14.632   3.354   2.377
93453SOL     OW82255  13.606   7.060   8.349
93453SOL    HW182256  13.561   6.987   8.391
93453SOL    HW282257  13.540   7.128   8.341
93454SOL     OW82258  14.141  10.844  10.121
93454SOL    HW182259  14.170  10.922  10.073
93454SOL    HW282260  14.173  10.857  10.210
93455SOL     OW82261   0.057   0.824   2.136
93455SOL    HW182262   0.000   0.748   2.126
93455SOL    HW282263   0.051   0.846   2.229
93456SOL     OW82264   7.983  10.542   3.437
93456SOL    HW182265   8.065  10.553   3.484
93456SOL    HW282266   8.007  10.552   3.344
93457SOL     OW82267   3.469   1.069  10.839
93457SOL    HW182268   3.376   1.075  10.819
93457SOL    HW282269   3.475   0.997  10.903
93458SOL     OW82270   1.212  10.610  10.853
93458SOL    HW182271   1.276  10.545  10.882
93458SOL    HW282272   1.158  10.565  10.789
93459SOL     OW82273   1.073  12.827   9.421
93459SOL    HW182274   0.982  12.809   9.447
93459SOL    HW282275   1.087  12.770   9.345
93460SOL     OW82276   7.436   0.407  12.142
93460SOL    HW182277   7.400   0.494  12.123
93460SOL    HW282278   7.526   0.423  12.170
93461SOL     OW82279   1.273   8.951  14.338
93461SOL    HW182280   1.321   8.995  14.268
93461SOL    HW282281   1.186   8.993  14.337
93462SOL     OW82282   9.230   9.972   7.257
93462SOL    HW182283   9.160   9.970   7.192
93462SOL    HW282284   9.207  10.045   7.314
93463SOL     OW82285  13.267   0.070   6.646
93463SOL    HW182286  13.172   0.082   6.651
93463SOL    HW282287  13.289   0.020   6.725
93464SOL     OW82288   7.094   8.315  12.390
93464SOL    HW182289   7.174   8.270  12.362
93464SOL    HW282290   7.025   8.248  12.381
93465SOL     OW82291   1.480  10.516  12.453
93465SOL    HW182292   1.463  10.519  12.548
93465SOL    HW282293   1.398  10.548  12.414
93466SOL     OW82294  13.385   4.512   2.862
93466SOL    HW182295  13.474   4.482   2.878
93466SOL    HW282296  13.360   4.557   2.943
93467SOL     OW82297   4.992  13.693   6.292
93467SOL    HW182298   5.002  13.600   6.269
93467SOL    HW282299   4.912  13.696   6.344
93468SOL     OW82300   2.170  13.385  14.202
93468SOL    HW182301   2.196  13.319  14.137
93468SOL    HW282302   2.075  13.391  14.194
93469SOL     OW82303  13.882   3.413  10.833
93469SOL    HW182304  13.945   3.415  10.761
93469SOL    HW282305  13.816   3.350  10.805
93470SOL     OW82306   5.288  13.176   5.814
93470SOL    HW182307   5.330  13.220   5.741
93470SOL    HW282308   5.286  13.083   5.788
93471SOL     OW82309  11.579   1.317   5.991
93471SOL    HW182310  11.531   1.397   6.013
93471SOL    HW282311  11.534   1.282   5.914
93472SOL     OW82312   4.365   4.298   7.525
93472SOL    HW182313   4.364   4.289   7.621
93472SOL    HW282314   4.457   4.286   7.501
93473SOL     OW82315   0.934   0.364  13.609
93473SOL    HW182316   1.010   0.422  13.605
93473SOL    HW282317   0.859   0.423  13.612
93474SOL     OW82318  11.317   6.767   9.511
93474SOL    HW182319  11.284   6.846   9.554
93474SOL    HW282320  11.351   6.797   9.427
93475SOL     OW82321  11.368   1.446  14.601
93475SOL    HW182322  11.311   1.485  14.534
93475SOL    HW282323  11.359   1.505  14.676
93476SOL     OW82324   5.770  10.242   0.298
93476SOL    HW182325   5.770  10.296   0.219
93476SOL    HW282326   5.792  10.303   0.369
93477SOL     OW82327  14.002  13.249  11.531
93477SOL    HW182328  13.944  13.320  11.557
93477SOL    HW282329  14.026  13.205  11.613
93478SOL     OW82330  10.328   7.801  13.890
93478SOL    HW182331  10.360   7.718  13.925
93478SOL    HW282332  10.405   7.841  13.849
93479SOL     OW82333   7.134  12.551   1.091
93479SOL    HW182334   7.160  12.622   1.033
93479SOL    HW282335   7.040  12.540   1.075
93480SOL     OW82336  11.363   3.928   6.138
93480SOL    HW182337  11.423   3.880   6.081
93480SOL    HW282338  11.307   3.978   6.079
93481SOL     OW82339  10.822   1.700   3.601
93481SOL    HW182340  10.790   1.611   3.589
93481SOL    HW282341  10.913   1.696   3.572
93482SOL     OW82342  10.509   9.967   3.148
93482SOL    HW182343  10.476   9.904   3.085
93482SOL    HW282344  10.603   9.948   3.155
93483SOL     OW82345   3.666   8.424   9.291
93483SOL    HW182346   3.608   8.386   9.225
93483SOL    HW282347   3.667   8.517   9.272
93484SOL     OW82348  13.795  10.177  14.399
93484SOL    HW182349  13.836  10.103  14.353
93484SOL    HW282350  13.722  10.202  14.342
93485SOL     OW82351   0.405  10.023   8.651
93485SOL    HW182352   0.384  10.091   8.714
93485SOL    HW282353   0.490  10.048   8.616
93486SOL     OW82354   5.423   8.732  11.387
93486SOL    HW182355   5.328   8.742  11.372
93486SOL    HW282356   5.461   8.814  11.354
93487SOL     OW82357  10.494  13.534  14.449
93487SOL    HW182358  10.412  13.524  14.401
93487SOL    HW282359  10.486  13.473  14.522
93488SOL     OW82360   1.285   7.702   6.066
93488SOL    HW182361   1.201   7.662   6.088
93488SOL    HW282362   1.276   7.727   5.974
93489SOL     OW82363  11.792   9.402   3.809
93489SOL    HW182364  11.880   9.381   3.777
93489SOL    HW282365  11.806   9.475   3.870
93490SOL     OW82366  14.216   0.258   9.135
93490SOL    HW182367  14.266   0.209   9.070
93490SOL    HW282368  14.205   0.197   9.208
93491SOL     OW82369   4.827  14.576  13.044
93491SOL    HW182370   4.870  14.656  13.015
93491SOL    HW282371   4.800  14.532  12.963
93492SOL     OW82372  12.876  10.742   3.723
93492SOL    HW182373  12.816  10.687   3.672
93492SOL    HW282374  12.945  10.766   3.661
93493SOL     OW82375   1.890   0.713  10.609
93493SOL    HW182376   1.916   0.651  10.541
93493SOL    HW282377   1.924   0.797  10.579
93494SOL     OW82378  14.427   9.641   3.022
93494SOL    HW182379  14.373   9.564   3.003
93494SOL    HW282380  14.512   9.604   3.046
93495SOL     OW82381   5.884   5.371  10.979
93495SOL    HW182382   5.863   5.290  10.935
93495SOL    HW282383   5.877   5.350  11.073
93496SOL     OW82384   3.336   4.811   8.429
93496SOL    HW182385   3.256   4.857   8.401
93496SOL    HW282386   3.401   4.881   8.439
93497SOL     OW82387   1.799   8.452  10.176
93497SOL    HW182388   1.889   8.440  10.205
93497SOL    HW282389   1.794   8.406  10.092
93498SOL     OW82390  10.383   4.017   0.306
93498SOL    HW182391  10.468   3.980   0.283
93498SOL    HW282392  10.343   4.042   0.222
93499SOL     OW82393  10.977   7.670  14.277
93499SOL    HW182394  10.881   7.670  14.286
93499SOL    HW282395  10.997   7.589  14.230
93500SOL     OW82396  11.648  13.472   2.578
93500SOL    HW182397  11.628  13.469   2.671
93500SOL    HW282398  11.569  13.508   2.537
93501SOL     OW82399   2.522  12.498   9.479
93501SOL    HW182400   2.603  12.447   9.478
93501SOL    HW282401   2.455  12.435   9.507
93502SOL     OW82402   6.820  12.355   5.570
93502SOL    HW182403   6.894  12.297   5.590
93502SOL    HW282404   6.855  12.415   5.504
93503SOL     OW82405   2.293   6.711   6.615
93503SOL    HW182406   2.379   6.671   6.628
93503SOL    HW282407   2.239   6.639   6.581
93504SOL     OW82408  13.135   6.764  10.269
93504SOL    HW182409  13.067   6.746  10.205
93504SOL    HW282410  13.117   6.853  10.299
93505SOL     OW82411  10.790   2.959  14.433
93505SOL    HW182412  10.759   2.886  14.381
93505SOL    HW282413  10.759   2.941  14.522
93506SOL     OW82414  14.120  13.034   9.608
93506SOL    HW182415  14.112  13.071   9.696
93506SOL    HW282416  14.078  13.098   9.551
93507SOL     OW82417   7.505   6.434   9.757
93507SOL    HW182418   7.580   6.416   9.701
93507SOL    HW282419   7.529   6.400   9.843
93508SOL     OW82420   5.425   4.929  10.571
93508SOL    HW182421   5.343   4.879  10.577
93508SOL    HW282422   5.403   5.004  10.515
93509SOL     OW82423  13.684   9.758   5.270
93509SOL    HW182424  13.718   9.739   5.182
93509SOL    HW282425  13.715   9.846   5.289
93510SOL     OW82426   4.951  11.883   6.575
93510SOL    HW182427   4.938  11.816   6.508
93510SOL    HW282428   4.871  11.935   6.575
93511SOL     OW82429   7.502   7.726   8.989
93511SOL    HW182430   7.481   7.799   9.047
93511SOL    HW282431   7.597   7.718   8.993
93512SOL     OW82432  12.388   3.940   0.759
93512SOL    HW182433  12.434   4.024   0.761
93512SOL    HW282434  12.413   3.897   0.841
93513SOL     OW82435  12.958   5.181  13.585
93513SOL    HW182436  12.982   5.193  13.493
93513SOL    HW282437  12.983   5.262  13.628
93514SOL     OW82438   9.339  13.714  12.450
93514SOL    HW182439   9.340  13.682  12.540
93514SOL    HW282440   9.349  13.809  12.458
93515SOL     OW82441   9.198   4.600   7.169
93515SOL    HW182442   9.225   4.544   7.242
93515SOL    HW282443   9.223   4.552   7.091
93516SOL     OW82444   5.493   8.783  14.730
93516SOL    HW182445   5.457   8.832  14.657
93516SOL    HW282446   5.464   8.693  14.716
93517SOL     OW82447   8.822  13.534   7.790
93517SOL    HW182448   8.819  13.452   7.839
93517SOL    HW282449   8.763  13.592   7.838
93518SOL     OW82450   3.957   5.055   1.026
93518SOL    HW182451   3.954   5.094   1.114
93518SOL    HW282452   4.045   5.019   1.019
93519SOL     OW82453  12.314   5.832   4.912
93519SOL    HW182454  12.246   5.877   4.861
93519SOL    HW282455  12.392   5.886   4.899
93520SOL     OW82456   8.154   1.108   8.767
93520SOL    HW182457   8.101   1.095   8.689
93520SOL    HW282458   8.091   1.109   8.839
93521SOL     OW82459  13.402  12.091   4.804
93521SOL    HW182460  13.383  12.179   4.835
93521SOL    HW282461  13.472  12.102   4.740
93522SOL     OW82462   5.484  12.292   7.056
93522SOL    HW182463   5.537  12.261   7.129
93522SOL    HW282464   5.544  12.343   7.002
93523SOL     OW82465   0.222   5.530  10.742
93523SOL    HW182466   0.233   5.536  10.837
93523SOL    HW282467   0.146   5.474  10.730
93524SOL     OW82468   4.635  11.864  10.552
93524SOL    HW182469   4.546  11.882  10.522
93524SOL    HW282470   4.652  11.932  10.617
93525SOL     OW82471   8.404  13.883   9.397
93525SOL    HW182472   8.442  13.928   9.322
93525SOL    HW282473   8.424  13.939   9.471
93526SOL     OW82474   3.070   5.346   5.827
93526SOL    HW182475   3.095   5.438   5.818
93526SOL    HW282476   3.102   5.305   5.746
93527SOL     OW82477   7.072   2.084   6.266
93527SOL    HW182478   7.167   2.090   6.277
93527SOL    HW282479   7.042   2.035   6.342
93528SOL     OW82480  13.463   5.981   6.755
93528SOL    HW182481  13.397   5.977   6.686
93528SOL    HW282482  13.455   6.070   6.790
93529SOL     OW82483  12.198   1.089   6.249
93529SOL    HW182484  12.176   1.017   6.309
93529SOL    HW282485  12.274   1.130   6.287
93530SOL     OW82486  11.998  14.749  10.821
93530SOL    HW182487  12.044  14.745  10.737
93530SOL    HW282488  12.066  14.736  10.887
93531SOL     OW82489   4.318   0.276   2.441
93531SOL    HW182490   4.296   0.186   2.465
93531SOL    HW282491   4.233   0.319   2.431
93532SOL     OW82492  11.397   7.513  11.703
93532SOL    HW182493  11.302   7.517  11.698
93532SOL    HW282494  11.418   7.420  11.709
93533SOL     OW82495   8.943   3.324   7.332
93533SOL    HW182496   8.854   3.323   7.367
93533SOL    HW282497   8.999   3.341   7.408
93534SOL     OW82498   0.535   9.433  12.753
93534SOL    HW182499   0.514   9.360  12.696
93534SOL    HW282500   0.620   9.411  12.791
93535SOL     OW82501  10.736  13.579   1.544
93535SOL    HW182502  10.713  13.625   1.464
93535SOL    HW282503  10.653  13.560   1.586
93536SOL     OW82504   1.062   7.537   6.117
93536SOL    HW182505   0.971   7.513   6.131
93536SOL    HW282506   1.101   7.460   6.075
93537SOL     OW82507   4.797  13.519   9.840
93537SOL    HW182508   4.886  13.516   9.804
93537SOL    HW282509   4.762  13.604   9.813
93538SOL     OW82510   9.268   4.881   7.498
93538SOL    HW182511   9.200   4.826   7.457
93538SOL    HW282512   9.245   4.881   7.591
93539SOL     OW82513  10.304   9.896  13.633
93539SOL    HW182514  10.287   9.904  13.539
93539SOL    HW282515  10.363   9.820  13.640
93540SOL     OW82516   8.025   7.854   2.859
93540SOL    HW182517   7.978   7.792   2.915
93540SOL    HW282518   7.971   7.932   2.860
93541SOL     OW82519   9.070   0.485   5.545
93541SOL    HW182520   9.101   0.542   5.615
93541SOL    HW282521   9.131   0.411   5.546
93542SOL     OW82522   1.239  13.954   8.075
93542SOL    HW182523   1.293  13.903   8.134
93542SOL    HW282524   1.288  14.035   8.061
93543SOL     OW82525   7.622   7.035   8.427
93543SOL    HW182526   7.528   7.016   8.424
93543SOL    HW282527   7.664   6.950   8.416
93544SOL     OW82528   7.933   1.707   0.726
93544SOL    HW182529   7.954   1.647   0.798
93544SOL    HW282530   7.839   1.699   0.714
93545SOL     OW82531   3.716   6.504   7.610
93545SOL    HW182532   3.728   6.494   7.515
93545SOL    HW282533   3.713   6.415   7.644
93546SOL     OW82534   0.012  11.383  13.370
93546SOL    HW182535   0.055  11.452  13.320
93546SOL    HW282536  14.844  11.430  13.438
93547SOL     OW82537   9.820   5.088   4.499
93547SOL    HW182538   9.808   5.051   4.587
93547SOL    HW282539   9.909   5.064   4.475
93548SOL     OW82540  10.760   0.825   5.780
93548SOL    HW182541  10.774   0.755   5.844
93548SOL    HW282542  10.792   0.904   5.825
93549SOL     OW82543  10.770   4.864  13.779
93549SOL    HW182544  10.849   4.888  13.730
93549SOL    HW282545  10.775   4.917  13.859
93550SOL     OW82546  14.563   8.829   4.091
93550SOL    HW182547  14.519   8.793   4.014
93550SOL    HW282548  14.494   8.878   4.136
93551SOL     OW82549  10.572   5.428   2.600
93551SOL    HW182550  10.634   5.491   2.639
93551SOL    HW282551  10.608   5.342   2.622
93552SOL     OW82552   4.507   1.134  12.952
93552SOL    HW182553   4.470   1.206  13.003
93552SOL    HW282554   4.602   1.143  12.962
93553SOL     OW82555   9.305  13.907  10.058
93553SOL    HW182556   9.271  13.945  10.139
93553SOL    HW282557   9.367  13.972  10.025
93554SOL     OW82558   0.554   1.075  12.930
93554SOL    HW182559   0.483   1.052  12.990
93554SOL    HW282560   0.574   1.166  12.950
93555SOL     OW82561  14.029   0.715   5.401
93555SOL    HW182562  14.117   0.695   5.432
93555SOL    HW282563  14.032   0.808   5.377
93556SOL     OW82564  11.390  10.894   1.965
93556SOL    HW182565  11.390  10.854   2.052
93556SOL    HW282566  11.406  10.821   1.906
93557SOL     OW82567   5.916  12.537   0.068
93557SOL    HW182568   5.914  12.605   0.135
93557SOL    HW282569   5.868  12.464   0.107
93558SOL     OW82570   2.077   3.272   4.193
93558SOL    HW182571   2.102   3.364   4.193
93558SOL    HW282572   2.044   3.256   4.281
93559SOL     OW82573   4.682   0.401  12.852
93559SOL    HW182574   4.598   0.415  12.895
93559SOL    HW282575   4.671   0.319  12.804
93560SOL     OW82576   3.449  10.058   0.145
93560SOL    HW182577   3.445  10.041   0.051
93560SOL    HW282578   3.362  10.090   0.168
93561SOL     OW82579  11.937  11.823  13.216
93561SOL    HW182580  11.866  11.888  13.215
93561SOL    HW282581  11.931  11.783  13.303
93562SOL     OW82582  10.700  10.683   5.455
93562SOL    HW182583  10.650  10.723   5.525
93562SOL    HW282584  10.692  10.589   5.470
93563SOL     OW82585   0.426   9.016  12.129
93563SOL    HW182586   0.400   8.928  12.157
93563SOL    HW282587   0.481   9.049  12.200
93564SOL     OW82588  13.678   3.017  11.822
93564SOL    HW182589  13.770   2.992  11.818
93564SOL    HW282590  13.652   3.000  11.912
93565SOL     OW82591   0.666   5.931   3.099
93565SOL    HW182592   0.643   5.841   3.122
93565SOL    HW282593   0.759   5.939   3.123
93566SOL     OW82594   1.723  10.682   2.619
93566SOL    HW182595   1.802  10.703   2.568
93566SOL    HW282596   1.684  10.767   2.639
93567SOL     OW82597  12.875   3.375   9.192
93567SOL    HW182598  12.907   3.459   9.224
93567SOL    HW282599  12.951   3.318   9.192
93568SOL     OW82600   5.366  11.433  12.917
93568SOL    HW182601   5.330  11.372  12.852
93568SOL    HW282602   5.368  11.383  12.998
93569SOL     OW82603   0.594  10.353  13.679
93569SOL    HW182604   0.499  10.364  13.671
93569SOL    HW282605   0.625  10.353  13.588
93570SOL     OW82606  14.134  13.474   6.969
93570SOL    HW182607  14.165  13.560   6.939
93570SOL    HW282608  14.214  13.427   6.992
93571SOL     OW82609  12.464   9.418  13.489
93571SOL    HW182610  12.437   9.399  13.399
93571SOL    HW282611  12.484   9.332  13.527
93572SOL     OW82612  13.415   7.194  14.321
93572SOL    HW182613  13.351   7.251  14.365
93572SOL    HW282614  13.476   7.169  14.390
93573SOL     OW82615  10.505  11.883   0.726
93573SOL    HW182616  10.482  11.855   0.814
93573SOL    HW282617  10.599  11.871   0.720
93574SOL     OW82618   1.525  10.922  11.909
93574SOL    HW182619   1.608  10.960  11.880
93574SOL    HW282620   1.517  10.841  11.859
93575SOL     OW82621  14.216   0.096   9.348
93575SOL    HW182622  14.291   0.097   9.407
93575SOL    HW282623  14.201   0.003   9.330
93576SOL     OW82624   0.045   1.135   5.980
93576SOL    HW182625  14.848   1.155   6.032
93576SOL    HW282626   0.052   1.039   5.983
93577SOL     OW82627  12.541  14.560  11.594
93577SOL    HW182628  12.549  14.466  11.576
93577SOL    HW282629  12.631  14.592  11.593
93578SOL     OW82630  13.809   7.070   1.317
93578SOL    HW182631  13.871   7.042   1.384
93578SOL    HW282632  13.857   7.060   1.234
93579SOL     OW82633  10.159   5.322  13.006
93579SOL    HW182634  10.174   5.285  12.919
93579SOL    HW282635  10.077   5.371  12.997
93580SOL     OW82636   1.625   2.021   7.310
93580SOL    HW182637   1.695   2.085   7.292
93580SOL    HW282638   1.669   1.936   7.308
93581SOL     OW82639   4.152   4.119   7.477
93581SOL    HW182640   4.199   4.064   7.414
93581SOL    HW282641   4.206   4.196   7.487
93582SOL     OW82642   0.085  13.379  10.288
93582SOL    HW182643   0.127  13.351  10.370
93582SOL    HW282644   0.047  13.299  10.253
93583SOL     OW82645   9.729  12.880  14.803
93583SOL    HW182646   9.723  12.943  14.875
93583SOL    HW282647   9.817  12.891  14.768
93584SOL     OW82648   1.542   4.860   2.753
93584SOL    HW182649   1.601   4.926   2.717
93584SOL    HW282650   1.594   4.814   2.818
93585SOL     OW82651   7.477   9.291   1.155
93585SOL    HW182652   7.398   9.281   1.101
93585SOL    HW282653   7.448   9.342   1.230
93586SOL     OW82654   9.508   1.883  14.009
93586SOL    HW182655   9.432   1.873  14.067
93586SOL    HW282656   9.492   1.823  13.937
93587SOL     OW82657  11.829   8.234   0.842
93587SOL    HW182658  11.913   8.228   0.795
93587SOL    HW282659  11.805   8.326   0.836
93588SOL     OW82660   6.616   0.747  12.000
93588SOL    HW182661   6.557   0.755  11.926
93588SOL    HW282662   6.559   0.752  12.077
93589SOL     OW82663   5.108   7.018   0.138
93589SOL    HW182664   5.141   7.062   0.216
93589SOL    HW282665   5.128   6.925   0.153
93590SOL     OW82666  11.538   7.593   6.800
93590SOL    HW182667  11.629   7.620   6.790
93590SOL    HW282668  11.487   7.671   6.775
93591SOL     OW82669  13.121   8.286   0.870
93591SOL    HW182670  13.147   8.363   0.921
93591SOL    HW282671  13.132   8.312   0.779
93592SOL     OW82672   6.945  11.007   0.804
93592SOL    HW182673   6.920  11.088   0.760
93592SOL    HW282674   7.003  10.963   0.743
93593SOL     OW82675   4.193   1.168  11.993
93593SOL    HW182676   4.135   1.213  12.054
93593SOL    HW282677   4.134   1.137  11.923
93594SOL     OW82678  10.061   4.913   2.611
93594SOL    HW182679  10.014   4.839   2.649
93594SOL    HW282680  10.129   4.934   2.675
93595SOL     OW82681   5.018  13.141   8.160
93595SOL    HW182682   4.947  13.093   8.117
93595SOL    HW282683   5.023  13.102   8.247
93596SOL     OW82684   9.379  13.589  13.602
93596SOL    HW182685   9.430  13.623  13.675
93596SOL    HW282686   9.421  13.625  13.524
93597SOL     OW82687   5.568  10.533   4.451
93597SOL    HW182688   5.528  10.449   4.473
93597SOL    HW282689   5.661  10.522   4.473
93598SOL     OW82690  11.737   8.061  10.250
93598SOL    HW182691  11.662   8.040  10.196
93598SOL    HW282692  11.801   7.993  10.231
93599SOL     OW82693   9.020  11.501   3.229
93599SOL    HW182694   9.105  11.546   3.226
93599SOL    HW282695   8.974  11.541   3.302
93600SOL     OW82696   0.806  10.435  11.046
93600SOL    HW182697   0.851  10.404  10.967
93600SOL    HW282698   0.867  10.495  11.087
93601SOL     OW82699   3.288   6.432  12.208
93601SOL    HW182700   3.235   6.445  12.286
93601SOL    HW282701   3.340   6.512  12.201
93602SOL     OW82702   6.753  14.640   6.573
93602SOL    HW182703   6.685  14.675   6.630
93602SOL    HW282704   6.835  14.663   6.617
93603SOL     OW82705   4.795   1.602  13.057
93603SOL    HW182706   4.831   1.534  12.999
93603SOL    HW282707   4.809   1.567  13.145
93604SOL     OW82708  10.411  13.239   4.425
93604SOL    HW182709  10.346  13.304   4.397
93604SOL    HW282710  10.457  13.215   4.345
93605SOL     OW82711   4.878   9.676   5.646
93605SOL    HW182712   4.822   9.735   5.696
93605SOL    HW282713   4.910   9.613   5.711
93606SOL     OW82714  14.328  11.762  12.649
93606SOL    HW182715  14.360  11.766  12.739
93606SOL    HW282716  14.406  11.779  12.595
93607SOL     OW82717   7.791   5.562  10.125
93607SOL    HW182718   7.868   5.602  10.166
93607SOL    HW282719   7.821   5.536  10.038
93608SOL     OW82720   5.606  10.038   7.301
93608SOL    HW182721   5.650   9.953   7.296
93608SOL    HW282722   5.669  10.099   7.262
93609SOL     OW82723   1.777  12.152  13.723
93609SOL    HW182724   1.709  12.093  13.755
93609SOL    HW282725   1.857  12.100  13.725
93610SOL     OW82726   7.501  14.714   4.824
93610SOL    HW182727   7.418  14.701   4.779
93610SOL    HW282728   7.547  14.631   4.815
93611SOL     OW82729  10.438   7.778   6.741
93611SOL    HW182730  10.484   7.714   6.795
93611SOL    HW282731  10.377   7.725   6.689
93612SOL     OW82732   0.364  13.565  12.240
93612SOL    HW182733   0.350  13.636  12.303
93612SOL    HW282734   0.368  13.609  12.155
93613SOL     OW82735   9.899   7.249   9.344
93613SOL    HW182736   9.864   7.310   9.408
93613SOL    HW282737   9.934   7.177   9.396
93614SOL     OW82738   7.497  13.786   5.108
93614SOL    HW182739   7.430  13.809   5.043
93614SOL    HW282740   7.455  13.799   5.192
93615SOL     OW82741   2.672   6.427   4.098
93615SOL    HW182742   2.727   6.380   4.161
93615SOL    HW282743   2.586   6.388   4.108
93616SOL     OW82744   2.463  13.198   1.953
93616SOL    HW182745   2.487  13.257   2.025
93616SOL    HW282746   2.547  13.167   1.919
93617SOL     OW82747   9.359   4.479   4.258
93617SOL    HW182748   9.343   4.564   4.218
93617SOL    HW282749   9.288   4.423   4.228
93618SOL     OW82750   0.653   9.557  13.075
93618SOL    HW182751   0.579   9.598  13.029
93618SOL    HW282752   0.695   9.503  13.009
93619SOL     OW82753  12.231   6.768   8.002
93619SOL    HW182754  12.185   6.684   8.006
93619SOL    HW282755  12.179   6.827   8.056
93620SOL     OW82756   2.667   6.985   7.098
93620SOL    HW182757   2.714   6.902   7.086
93620SOL    HW282758   2.575   6.961   7.087
93621SOL     OW82759  12.599   7.843   5.084
93621SOL    HW182760  12.522   7.827   5.028
93621SOL    HW282761  12.674   7.820   5.028
93622SOL     OW82762   8.291   5.909  10.469
93622SOL    HW182763   8.211   5.940  10.426
93622SOL    HW282764   8.280   5.934  10.560
93623SOL     OW82765   1.301   9.838   4.145
93623SOL    HW182766   1.221   9.885   4.168
93623SOL    HW282767   1.352   9.835   4.226
93624SOL     OW82768   4.171  12.413   3.503
93624SOL    HW182769   4.194  12.394   3.594
93624SOL    HW282770   4.237  12.367   3.451
93625SOL     OW82771   3.403  10.592  10.247
93625SOL    HW182772   3.454  10.672  10.239
93625SOL    HW282773   3.468  10.525  10.269
93626SOL     OW82774  12.572  10.531  12.232
93626SOL    HW182775  12.649  10.560  12.282
93626SOL    HW282776  12.503  10.593  12.256
93627SOL     OW82777   3.236  12.266   2.238
93627SOL    HW182778   3.291  12.341   2.215
93627SOL    HW282779   3.209  12.229   2.154
93628SOL     OW82780  11.500  10.334   7.380
93628SOL    HW182781  11.431  10.307   7.441
93628SOL    HW282782  11.497  10.270   7.309
93629SOL     OW82783  14.161   4.495  13.703
93629SOL    HW182784  14.183   4.450  13.784
93629SOL    HW282785  14.244   4.504  13.657
93630SOL     OW82786   9.187   9.371   9.932
93630SOL    HW182787   9.243   9.333  10.000
93630SOL    HW282788   9.112   9.407   9.980
93631SOL     OW82789   8.965  13.227   9.874
93631SOL    HW182790   8.936  13.167   9.805
93631SOL    HW282791   8.917  13.199   9.951
93632SOL     OW82792   9.814  14.386   0.899
93632SOL    HW182793   9.871  14.451   0.857
93632SOL    HW282794   9.752  14.361   0.831
93633SOL     OW82795   0.638   8.341   6.248
93633SOL    HW182796   0.579   8.400   6.294
93633SOL    HW282797   0.687   8.297   6.317
93634SOL     OW82798   3.322   7.559   3.447
93634SOL    HW182799   3.268   7.523   3.377
93634SOL    HW282800   3.404   7.584   3.403
93635SOL     OW82801  13.201  10.683  13.751
93635SOL    HW182802  13.149  10.740  13.695
93635SOL    HW282803  13.292  10.706  13.730
93636SOL     OW82804   0.848   7.775   9.927
93636SOL    HW182805   0.876   7.742  10.012
93636SOL    HW282806   0.827   7.867   9.944
93637SOL     OW82807  10.817   8.155  13.902
93637SOL    HW182808  10.796   8.218  13.832
93637SOL    HW282809  10.753   8.173  13.970
93638SOL     OW82810  10.067   1.613  13.378
93638SOL    HW182811  10.002   1.683  13.377
93638SOL    HW282812  10.075   1.586  13.286
93639SOL     OW82813   3.290   0.941   5.644
93639SOL    HW182814   3.332   0.955   5.559
93639SOL    HW282815   3.318   0.853   5.669
93640SOL     OW82816  14.653   5.811  12.121
93640SOL    HW182817  14.568   5.768  12.116
93640SOL    HW282818  14.698   5.783  12.041
93641SOL     OW82819   9.204   3.873  10.700
93641SOL    HW182820   9.198   3.782  10.671
93641SOL    HW282821   9.295   3.884  10.729
93642SOL     OW82822  10.348  10.178   8.901
93642SOL    HW182823  10.298  10.205   8.978
93642SOL    HW282824  10.282  10.148   8.838
93643SOL     OW82825  11.552   3.357  11.657
93643SOL    HW182826  11.515   3.401  11.733
93643SOL    HW282827  11.568   3.427  11.594
93644SOL     OW82828   7.314   5.629  11.288
93644SOL    HW182829   7.384   5.594  11.233
93644SOL    HW282830   7.278   5.701  11.236
93645SOL     OW82831   9.022   9.787   5.235
93645SOL    HW182832   9.004   9.770   5.328
93645SOL    HW282833   9.053   9.878   5.233
93646SOL     OW82834   8.466   4.903  13.746
93646SOL    HW182835   8.512   4.936  13.823
93646SOL    HW282836   8.374   4.899  13.773
93647SOL     OW82837  11.201   0.820   3.917
93647SOL    HW182838  11.261   0.809   3.842
93647SOL    HW282839  11.184   0.914   3.920
93648SOL     OW82840  14.174   4.799  12.678
93648SOL    HW182841  14.099   4.774  12.625
93648SOL    HW282842  14.151   4.886  12.712
93649SOL     OW82843   6.043  10.786   4.821
93649SOL    HW182844   5.991  10.739   4.885
93649SOL    HW282845   5.997  10.773   4.738
93650SOL     OW82846   9.887   8.858  11.552
93650SOL    HW182847   9.821   8.851  11.620
93650SOL    HW282848   9.885   8.950  11.525
93651SOL     OW82849  11.784   6.738   9.953
93651SOL    HW182850  11.838   6.816   9.944
93651SOL    HW282851  11.753   6.741  10.044
93652SOL     OW82852   9.227   8.674   0.924
93652SOL    HW182853   9.151   8.721   0.889
93652SOL    HW282854   9.266   8.735   0.987
93653SOL     OW82855   0.396   8.867   2.995
93653SOL    HW182856   0.328   8.900   2.937
93653SOL    HW282857   0.418   8.941   3.052
93654SOL     OW82858   0.055   3.024   2.265
93654SOL    HW182859   0.030   3.073   2.344
93654SOL    HW282860   0.084   2.938   2.299
93655SOL     OW82861   5.679  13.939   7.345
93655SOL    HW182862   5.767  13.942   7.306
93655SOL    HW282863   5.674  14.018   7.399
93656SOL     OW82864   3.197   2.140   0.525
93656SOL    HW182865   3.198   2.105   0.436
93656SOL    HW282866   3.131   2.209   0.523
93657SOL     OW82867  11.408   6.396  12.864
93657SOL    HW182868  11.490   6.433  12.896
93657SOL    HW282869  11.342   6.427  12.925
93658SOL     OW82870   7.856  14.624   9.079
93658SOL    HW182871   7.784  14.659   9.131
93658SOL    HW282872   7.820  14.544   9.040
93659SOL     OW82873   1.030   1.403   4.410
93659SOL    HW182874   1.065   1.400   4.499
93659SOL    HW282875   1.052   1.318   4.372
93660SOL     OW82876  12.214   2.685  12.342
93660SOL    HW182877  12.163   2.744  12.286
93660SOL    HW282878  12.261   2.743  12.402
93661SOL     OW82879  12.259   9.387   5.105
93661SOL    HW182880  12.309   9.450   5.157
93661SOL    HW282881  12.235   9.436   5.026
93662SOL     OW82882   9.775  11.653  11.363
93662SOL    HW182883   9.684  11.632  11.383
93662SOL    HW282884   9.798  11.722  11.426
93663SOL     OW82885  10.706   2.691   2.012
93663SOL    HW182886  10.747   2.637   2.080
93663SOL    HW282887  10.612   2.675   2.023
93664SOL     OW82888   2.809   5.710  14.446
93664SOL    HW182889   2.819   5.632  14.501
93664SOL    HW282890   2.895   5.751  14.447
93665SOL     OW82891   9.924  10.169  12.752
93665SOL    HW182892   9.893  10.227  12.822
93665SOL    HW282893  10.013  10.146  12.778
93666SOL     OW82894  12.266  10.022   9.688
93666SOL    HW182895  12.269  10.048   9.596
93666SOL    HW282896  12.355  10.041   9.721
93667SOL     OW82897  12.715  12.719  13.131
93667SOL    HW182898  12.795  12.720  13.079
93667SOL    HW282899  12.657  12.782  13.088
93668SOL     OW82900   4.360   0.650  14.029
93668SOL    HW182901   4.318   0.732  14.002
93668SOL    HW282902   4.310   0.621  14.105
93669SOL     OW82903  12.899   4.709   0.437
93669SOL    HW182904  12.973   4.672   0.484
93669SOL    HW282905  12.828   4.712   0.501
93670SOL     OW82906   8.082   9.559   6.360
93670SOL    HW182907   8.089   9.470   6.393
93670SOL    HW282908   8.172   9.588   6.347
93671SOL     OW82909  11.389   5.141   6.227
93671SOL    HW182910  11.338   5.173   6.301
93671SOL    HW282911  11.348   5.180   6.151
93672SOL     OW82912  14.621   7.019   1.536
93672SOL    HW182913  14.590   7.097   1.583
93672SOL    HW282914  14.542   6.977   1.504
93673SOL     OW82915   4.129   3.526  12.013
93673SOL    HW182916   4.142   3.576  12.093
93673SOL    HW282917   4.061   3.573  11.965
93674SOL     OW82918   2.189  13.292  10.760
93674SOL    HW182919   2.280  13.289  10.731
93674SOL    HW282920   2.143  13.231  10.702
93675SOL     OW82921   0.277   0.676   1.677
93675SOL    HW182922   0.271   0.632   1.763
93675SOL    HW282923   0.271   0.769   1.697
93676SOL     OW82924  10.114  13.376   9.686
93676SOL    HW182925  10.099  13.470   9.680
93676SOL    HW282926  10.027  13.337   9.681
93677SOL     OW82927   1.344   1.538   7.562
93677SOL    HW182928   1.283   1.470   7.533
93677SOL    HW282929   1.377   1.506   7.646
93678SOL     OW82930  10.349   3.576   7.137
93678SOL    HW182931  10.311   3.654   7.096
93678SOL    HW282932  10.398   3.534   7.066
93679SOL     OW82933   6.670   4.677   6.838
93679SOL    HW182934   6.650   4.671   6.745
93679SOL    HW282935   6.744   4.739   6.843
93680SOL     OW82936  12.568   1.355   8.195
93680SOL    HW182937  12.562   1.415   8.121
93680SOL    HW282938  12.483   1.312   8.198
93681SOL     OW82939  14.090   6.174   0.125
93681SOL    HW182940  14.114   6.213   0.210
93681SOL    HW282941  14.140   6.093   0.121
93682SOL     OW82942  11.005   6.065   3.341
93682SOL    HW182943  10.912   6.071   3.363
93682SOL    HW282944  11.014   6.119   3.262
93683SOL     OW82945   8.225   6.325   6.570
93683SOL    HW182946   8.215   6.418   6.550
93683SOL    HW282947   8.203   6.319   6.663
93684SOL     OW82948  12.616  10.656  11.183
93684SOL    HW182949  12.523  10.635  11.187
93684SOL    HW282950  12.653  10.591  11.123
93685SOL     OW82951   6.138  13.607   9.034
93685SOL    HW182952   6.079  13.537   9.008
93685SOL    HW282953   6.114  13.681   8.978
93686SOL     OW82954   6.509   5.928   7.002
93686SOL    HW182955   6.449   6.002   7.014
93686SOL    HW282956   6.539   5.908   7.091
93687SOL     OW82957   7.552   9.975   8.453
93687SOL    HW182958   7.534   9.881   8.451
93687SOL    HW282959   7.529  10.002   8.542
93688SOL     OW82960  10.256   2.250   1.023
93688SOL    HW182961  10.258   2.200   1.104
93688SOL    HW282962  10.170   2.293   1.023
93689SOL     OW82963   9.259   2.142   0.438
93689SOL    HW182964   9.324   2.097   0.384
93689SOL    HW282965   9.301   2.224   0.462
93690SOL     OW82966   4.901   2.932   4.545
93690SOL    HW182967   4.886   3.026   4.558
93690SOL    HW282968   4.936   2.901   4.628
93691SOL     OW82969   9.366  12.473   9.358
93691SOL    HW182970   9.283  12.512   9.332
93691SOL    HW282971   9.433  12.534   9.327
93692SOL     OW82972   9.895  10.228   9.110
93692SOL    HW182973   9.966  10.276   9.067
93692SOL    HW282974   9.837  10.203   9.038
93693SOL     OW82975   8.316  12.575  12.783
93693SOL    HW182976   8.342  12.641  12.847
93693SOL    HW282977   8.304  12.495  12.833
93694SOL     OW82978   7.266  12.238  10.097
93694SOL    HW182979   7.272  12.217  10.004
93694SOL    HW282980   7.194  12.301  10.102
93695SOL     OW82981   5.463   0.380   7.903
93695SOL    HW182982   5.405   0.450   7.873
93695SOL    HW282983   5.423   0.349   7.984
93696SOL     OW82984  12.334   8.758  12.919
93696SOL    HW182985  12.370   8.748  12.831
93696SOL    HW282986  12.303   8.848  12.923
93697SOL     OW82987  11.079  11.607   9.157
93697SOL    HW182988  11.011  11.590   9.223
93697SOL    HW282989  11.098  11.521   9.120
93698SOL     OW82990  11.953   7.880  10.246
93698SOL    HW182991  11.991   7.892  10.333
93698SOL    HW282992  12.002   7.808  10.208
93699SOL     OW82993   2.546  14.790  10.500
93699SOL    HW182994   2.550  14.826  10.411
93699SOL    HW282995   2.589  14.857  10.555
93700SOL     OW82996  11.463  13.208   2.768
93700SOL    HW182997  11.526  13.197   2.697
93700SOL    HW282998  11.483  13.294   2.805
93701SOL     OW82999   0.744  10.778   5.317
93701SOL    HW183000   0.826  10.768   5.269
93701SOL    HW283001   0.755  10.857   5.369
93702SOL     OW83002   2.462   7.357   2.762
93702SOL    HW183003   2.433   7.269   2.787
93702SOL    HW283004   2.513   7.344   2.682
93703SOL     OW83005  10.821   9.066   3.794
93703SOL    HW183006  10.818   9.077   3.889
93703SOL    HW283007  10.814   8.972   3.780
93704SOL     OW83008  13.469   2.560  10.308
93704SOL    HW183009  13.548   2.601  10.343
93704SOL    HW283010  13.397   2.608  10.348
93705SOL     OW83011   7.087   6.241   2.747
93705SOL    HW183012   7.164   6.287   2.713
93705SOL    HW283013   7.103   6.234   2.841
93706SOL     OW83014   6.924   7.872   3.462
93706SOL    HW183015   6.979   7.947   3.440
93706SOL    HW283016   6.937   7.860   3.557
93707SOL     OW83017  12.049   4.383   3.073
93707SOL    HW183018  11.970   4.433   3.050
93707SOL    HW283019  12.051   4.384   3.169
93708SOL     OW83020   4.403  13.452  11.211
93708SOL    HW183021   4.382  13.462  11.304
93708SOL    HW283022   4.388  13.359  11.192
93709SOL     OW83023  13.410   9.693   6.366
93709SOL    HW183024  13.447   9.615   6.409
93709SOL    HW283025  13.481   9.757   6.367
93710SOL     OW83026   0.002   0.148   6.404
93710SOL    HW183027  14.819   0.148   6.476
93710SOL    HW283028  14.876   0.236   6.366
93711SOL     OW83029   0.735  14.572   5.544
93711SOL    HW183030   0.751  14.478   5.548
93711SOL    HW283031   0.669  14.588   5.612
93712SOL     OW83032  14.306   3.385   2.429
93712SOL    HW183033  14.279   3.472   2.399
93712SOL    HW283034  14.223   3.339   2.444
93713SOL     OW83035  10.020   2.112   4.122
93713SOL    HW183036   9.993   2.142   4.035
93713SOL    HW283037  10.102   2.159   4.139
93714SOL     OW83038   6.534  10.001   9.033
93714SOL    HW183039   6.488  10.043   9.106
93714SOL    HW283040   6.604   9.951   9.076
93715SOL     OW83041  11.526   8.698   8.035
93715SOL    HW183042  11.585   8.727   8.104
93715SOL    HW283043  11.575   8.713   7.954
93716SOL     OW83044   7.646  13.423  14.259
93716SOL    HW183045   7.681  13.406  14.347
93716SOL    HW283046   7.583  13.353  14.244
93717SOL     OW83047   4.332  11.339   4.920
93717SOL    HW183048   4.269  11.292   4.865
93717SOL    HW283049   4.393  11.378   4.858
93718SOL     OW83050  13.895   5.422  14.181
93718SOL    HW183051  13.853   5.370  14.113
93718SOL    HW283052  13.950   5.484  14.134
93719SOL     OW83053  11.177  12.277   7.280
93719SOL    HW183054  11.206  12.210   7.342
93719SOL    HW283055  11.254  12.295   7.226
93720SOL     OW83056   8.747   1.690   1.489
93720SOL    HW183057   8.718   1.764   1.435
93720SOL    HW283058   8.774   1.731   1.572
93721SOL     OW83059   6.198  11.239   1.924
93721SOL    HW183060   6.245  11.203   1.849
93721SOL    HW283061   6.249  11.316   1.949
93722SOL     OW83062  11.930   3.284   7.649
93722SOL    HW183063  11.899   3.305   7.561
93722SOL    HW283064  12.025   3.296   7.645
93723SOL     OW83065   1.622  10.827   3.889
93723SOL    HW183066   1.603  10.896   3.953
93723SOL    HW283067   1.651  10.874   3.811
93724SOL     OW83068  11.472   7.980   8.230
93724SOL    HW183069  11.532   7.952   8.299
93724SOL    HW283070  11.443   7.898   8.189
93725SOL     OW83071   5.579  14.110   8.367
93725SOL    HW183072   5.508  14.070   8.316
93725SOL    HW283073   5.572  14.070   8.453
93726SOL     OW83074   6.393   0.706  12.608
93726SOL    HW183075   6.327   0.773  12.589
93726SOL    HW283076   6.430   0.684  12.523
93727SOL     OW83077  11.732  14.694  14.126
93727SOL    HW183078  11.727  14.734  14.212
93727SOL    HW283079  11.783  14.755  14.073
93728SOL     OW83080   4.382   9.538   6.203
93728SOL    HW183081   4.383   9.624   6.160
93728SOL    HW283082   4.398   9.558   6.296
93729SOL     OW83083   4.144  14.170   4.776
93729SOL    HW183084   4.132  14.265   4.782
93729SOL    HW283085   4.230  14.154   4.816
93730SOL     OW83086   8.868  14.491  10.906
93730SOL    HW183087   8.816  14.570  10.893
93730SOL    HW283088   8.917  14.507  10.986
93731SOL     OW83089  10.445  11.042  13.923
93731SOL    HW183090  10.386  11.050  13.998
93731SOL    HW283091  10.526  11.008  13.960
93732SOL     OW83092   1.326   6.144   8.923
93732SOL    HW183093   1.321   6.169   9.015
93732SOL    HW283094   1.414   6.169   8.896
93733SOL     OW83095  12.813  11.437  13.382
93733SOL    HW183096  12.828  11.413  13.474
93733SOL    HW283097  12.839  11.528  13.376
93734SOL     OW83098   0.465   6.457   5.103
93734SOL    HW183099   0.491   6.403   5.177
93734SOL    HW283100   0.420   6.532   5.142
93735SOL     OW83101   8.973   8.630   6.016
93735SOL    HW183102   8.878   8.621   6.020
93735SOL    HW283103   8.988   8.698   5.950
93736SOL     OW83104   3.782  11.500   3.923
93736SOL    HW183105   3.802  11.456   4.006
93736SOL    HW283106   3.779  11.593   3.946
93737SOL     OW83107   9.466   2.122   3.986
93737SOL    HW183108   9.455   2.106   3.893
93737SOL    HW283109   9.559   2.139   3.998
93738SOL     OW83110   1.828  11.514   6.552
93738SOL    HW183111   1.890  11.465   6.605
93738SOL    HW283112   1.842  11.606   6.576
93739SOL     OW83113   6.188  12.782  13.822
93739SOL    HW183114   6.134  12.794  13.744
93739SOL    HW283115   6.269  12.830  13.803
93740SOL     OW83116  12.974  13.991   8.549
93740SOL    HW183117  12.992  13.897   8.557
93740SOL    HW283118  12.893  14.004   8.599
93741SOL     OW83119   9.345   1.208   6.992
93741SOL    HW183120   9.387   1.138   6.942
93741SOL    HW283121   9.261   1.172   7.019
93742SOL     OW83122  11.217   3.406  13.070
93742SOL    HW183123  11.170   3.482  13.036
93742SOL    HW283124  11.287   3.444  13.124
93743SOL     OW83125  12.689   2.225   4.324
93743SOL    HW183126  12.610   2.242   4.272
93743SOL    HW283127  12.759   2.219   4.260
93744SOL     OW83128   2.428   5.746   5.403
93744SOL    HW183129   2.405   5.751   5.310
93744SOL    HW283130   2.347   5.767   5.449
93745SOL     OW83131  14.640  12.638  11.935
93745SOL    HW183132  14.567  12.641  11.872
93745SOL    HW283133  14.610  12.692  12.008
93746SOL     OW83134  12.849  10.834   2.776
93746SOL    HW183135  12.843  10.891   2.853
93746SOL    HW283136  12.939  10.802   2.778
93747SOL     OW83137  13.128   9.814   3.928
93747SOL    HW183138  13.217   9.783   3.913
93747SOL    HW283139  13.109   9.790   4.018
93748SOL     OW83140   6.131  12.710   4.755
93748SOL    HW183141   6.117  12.619   4.729
93748SOL    HW283142   6.210  12.707   4.809
93749SOL     OW83143   2.085   8.737   5.563
93749SOL    HW183144   2.047   8.658   5.523
93749SOL    HW283145   2.014   8.801   5.561
93750SOL     OW83146  13.445  13.292  14.661
93750SOL    HW183147  13.371  13.337  14.703
93750SOL    HW283148  13.520  13.313  14.717
93751SOL     OW83149  13.181   4.349   2.257
93751SOL    HW183150  13.136   4.275   2.217
93751SOL    HW283151  13.126   4.425   2.234
93752SOL     OW83152  11.055   6.791   4.785
93752SOL    HW183153  11.127   6.854   4.778
93752SOL    HW283154  10.983   6.831   4.737
93753SOL     OW83155   4.648   1.111   4.754
93753SOL    HW183156   4.593   1.183   4.784
93753SOL    HW283157   4.720   1.108   4.818
93754SOL     OW83158  14.310   9.661  10.095
93754SOL    HW183159  14.250   9.599  10.135
93754SOL    HW283160  14.295   9.653  10.001
93755SOL     OW83161  14.103   0.911   8.396
93755SOL    HW183162  14.051   0.857   8.336
93755SOL    HW283163  14.094   0.867   8.481
93756SOL     OW83164  13.121   3.998   8.261
93756SOL    HW183165  13.147   3.907   8.274
93756SOL    HW283166  13.025   3.996   8.264
93757SOL     OW83167   8.063  14.414   2.331
93757SOL    HW183168   8.082  14.330   2.291
93757SOL    HW283169   8.118  14.417   2.410
93758SOL     OW83170   3.646  13.291  13.821
93758SOL    HW183171   3.701  13.242  13.760
93758SOL    HW283172   3.698  13.368  13.843
93759SOL     OW83173   4.442  12.960  10.117
93759SOL    HW183174   4.453  12.904  10.194
93759SOL    HW283175   4.470  13.047  10.146
93760SOL     OW83176  11.449   2.353   1.995
93760SOL    HW183177  11.438   2.435   2.044
93760SOL    HW283178  11.508   2.301   2.049
93761SOL     OW83179   8.271   6.465   3.478
93761SOL    HW183180   8.198   6.513   3.441
93761SOL    HW283181   8.345   6.526   3.474
93762SOL     OW83182   4.407  11.385  10.039
93762SOL    HW183183   4.320  11.373  10.002
93762SOL    HW283184   4.465  11.384   9.963
93763SOL     OW83185   0.311   9.417   8.100
93763SOL    HW183186   0.231   9.369   8.121
93763SOL    HW283187   0.327   9.473   8.176
93764SOL     OW83188  14.805   0.421   6.444
93764SOL    HW183189  14.746   0.424   6.520
93764SOL    HW283190  14.843   0.508   6.440
93765SOL     OW83191   7.963   3.123   7.305
93765SOL    HW183192   7.872   3.103   7.281
93765SOL    HW283193   7.994   3.044   7.348
93766SOL     OW83194   2.423   9.617   7.783
93766SOL    HW183195   2.444   9.707   7.810
93766SOL    HW283196   2.329   9.609   7.795
93767SOL     OW83197   3.351   9.580  11.870
93767SOL    HW183198   3.440   9.587  11.835
93767SOL    HW283199   3.316   9.500  11.830
93768SOL     OW83200  14.440   4.432   9.742
93768SOL    HW183201  14.396   4.372   9.681
93768SOL    HW283202  14.394   4.419   9.825
93769SOL     OW83203   7.074   2.517  13.707
93769SOL    HW183204   7.051   2.428  13.733
93769SOL    HW283205   6.991   2.566  13.713
93770SOL     OW83206   8.560   3.579  12.408
93770SOL    HW183207   8.583   3.567  12.500
93770SOL    HW283208   8.632   3.538  12.360
93771SOL     OW83209   8.908  12.322  10.030
93771SOL    HW183210   8.849  12.373  10.086
93771SOL    HW283211   8.988  12.313  10.081
93772SOL     OW83212   7.557  12.541   4.757
93772SOL    HW183213   7.553  12.488   4.677
93772SOL    HW283214   7.599  12.623   4.729
93773SOL     OW83215   5.068   7.767   3.277
93773SOL    HW183216   5.153   7.723   3.280
93773SOL    HW283217   5.083   7.850   3.323
93774SOL     OW83218  14.347  13.918  13.832
93774SOL    HW183219  14.430  13.947  13.870
93774SOL    HW283220  14.289  13.993  13.842
93775SOL     OW83221  12.359  13.553   2.193
93775SOL    HW183222  12.277  13.570   2.239
93775SOL    HW283223  12.425  13.550   2.261
93776SOL     OW83224  11.327   2.921  14.093
93776SOL    HW183225  11.350   2.941  14.003
93776SOL    HW283226  11.406   2.940  14.143
93777SOL     OW83227  10.297  14.239  14.331
93777SOL    HW183228  10.215  14.194  14.351
93777SOL    HW283229  10.348  14.175  14.282
93778SOL     OW83230   7.795   5.569   6.884
93778SOL    HW183231   7.777   5.492   6.938
93778SOL    HW283232   7.740   5.638   6.922
93779SOL     OW83233   4.954  10.224   5.609
93779SOL    HW183234   4.921  10.201   5.523
93779SOL    HW283235   5.039  10.266   5.592
93780SOL     OW83236   9.872  13.726   0.253
93780SOL    HW183237   9.849  13.816   0.275
93780SOL    HW283238   9.822  13.672   0.314
93781SOL     OW83239   7.414   4.077   8.844
93781SOL    HW183240   7.374   4.146   8.791
93781SOL    HW283241   7.417   4.113   8.933
93782SOL     OW83242   8.972  10.934   4.164
93782SOL    HW183243   8.877  10.922   4.160
93782SOL    HW283244   8.986  11.001   4.231
93783SOL     OW83245  14.232   3.563   7.212
93783SOL    HW183246  14.161   3.581   7.273
93783SOL    HW283247  14.310   3.600   7.255
93784SOL     OW83248   2.224  12.105  12.316
93784SOL    HW183249   2.176  12.067  12.243
93784SOL    HW283250   2.301  12.049  12.326
93785SOL     OW83251   2.756   0.501   6.495
93785SOL    HW183252   2.668   0.465   6.490
93785SOL    HW283253   2.752   0.566   6.565
93786SOL     OW83254   1.957  14.023   0.325
93786SOL    HW183255   2.051  14.027   0.307
93786SOL    HW283256   1.916  14.038   0.240
93787SOL     OW83257   7.929   2.923   5.412
93787SOL    HW183258   7.864   2.990   5.431
93787SOL    HW283259   7.881   2.855   5.366
93788SOL     OW83260   8.655  12.899   5.720
93788SOL    HW183261   8.750  12.889   5.718
93788SOL    HW283262   8.627  12.847   5.795
93789SOL     OW83263   1.820   0.251  12.257
93789SOL    HW183264   1.873   0.237  12.335
93789SOL    HW283265   1.748   0.189  12.265
93790SOL     OW83266   1.950  12.616   1.589
93790SOL    HW183267   1.912  12.696   1.627
93790SOL    HW283268   1.980  12.566   1.665
93791SOL     OW83269   4.491   9.798   7.762
93791SOL    HW183270   4.397   9.807   7.744
93791SOL    HW283271   4.503   9.706   7.784
93792SOL     OW83272  13.649   2.346  14.013
93792SOL    HW183273  13.740   2.325  14.031
93792SOL    HW283274  13.614   2.378  14.096
93793SOL     OW83275  11.412  10.994  10.388
93793SOL    HW183276  11.402  11.019  10.480
93793SOL    HW283277  11.471  10.919  10.389
93794SOL     OW83278   8.481  12.907  12.879
93794SOL    HW183279   8.418  12.846  12.917
93794SOL    HW283280   8.566  12.865  12.891
93795SOL     OW83281   0.061   6.071   6.602
93795SOL    HW183282  14.852   6.041   6.620
93795SOL    HW283283   0.070   6.152   6.653
93796SOL     OW83284  13.203   0.711  10.524
93796SOL    HW183285  13.224   0.624  10.558
93796SOL    HW283286  13.191   0.765  10.603
93797SOL     OW83287   3.638   7.021   7.865
93797SOL    HW183288   3.714   7.012   7.921
93797SOL    HW283289   3.625   6.934   7.828
93798SOL     OW83290  13.858   0.794   2.133
93798SOL    HW183291  13.882   0.799   2.226
93798SOL    HW283292  13.928   0.840   2.088
93799SOL     OW83293   7.953  14.763  11.742
93799SOL    HW183294   7.916  14.832  11.686
93799SOL    HW283295   7.947  14.798  11.831
93800SOL     OW83296  13.202  11.616   8.486
93800SOL    HW183297  13.145  11.545   8.458
93800SOL    HW283298  13.147  11.672   8.541
93801SOL     OW83299   1.672  11.694   0.266
93801SOL    HW183300   1.683  11.777   0.220
93801SOL    HW283301   1.761  11.667   0.289
93802SOL     OW83302   2.344   7.264  12.158
93802SOL    HW183303   2.291   7.332  12.200
93802SOL    HW283304   2.368   7.205  12.229
93803SOL     OW83305   5.337  14.365   8.963
93803SOL    HW183306   5.359  14.445   8.916
93803SOL    HW283307   5.321  14.394   9.053
93804SOL     OW83308   8.902   2.815   9.628
93804SOL    HW183309   8.844   2.886   9.654
93804SOL    HW283310   8.934   2.840   9.541
93805SOL     OW83311   6.496   6.029   8.463
93805SOL    HW183312   6.437   6.007   8.535
93805SOL    HW283313   6.541   6.108   8.492
93806SOL     OW83314   1.582   9.645   2.977
93806SOL    HW183315   1.548   9.730   3.005
93806SOL    HW283316   1.612   9.658   2.887
93807SOL     OW83317   6.710   6.208   1.782
93807SOL    HW183318   6.638   6.266   1.807
93807SOL    HW283319   6.715   6.215   1.687
93808SOL     OW83320  12.831  11.044  11.481
93808SOL    HW183321  12.749  11.094  11.488
93808SOL    HW283322  12.808  10.957  11.514
93809SOL     OW83323  10.084   3.569  13.331
93809SOL    HW183324  10.168   3.524  13.320
93809SOL    HW283325  10.094   3.619  13.412
93810SOL     OW83326   1.819   6.756   7.555
93810SOL    HW183327   1.850   6.687   7.496
93810SOL    HW283328   1.876   6.750   7.632
93811SOL     OW83329   0.556   3.592   3.600
93811SOL    HW183330   0.590   3.635   3.522
93811SOL    HW283331   0.557   3.661   3.667
93812SOL     OW83332   0.131  14.136   2.795
93812SOL    HW183333   0.179  14.131   2.878
93812SOL    HW283334   0.135  14.228   2.770
93813SOL     OW83335   0.705   0.774   5.747
93813SOL    HW183336   0.706   0.716   5.823
93813SOL    HW283337   0.789   0.758   5.703
93814SOL     OW83338   3.096   2.798  10.642
93814SOL    HW183339   3.174   2.759  10.683
93814SOL    HW283340   3.056   2.726  10.594
93815SOL     OW83341  10.650   1.613   0.183
93815SOL    HW183342  10.566   1.575   0.207
93815SOL    HW283343  10.637   1.646   0.094
93816SOL     OW83344   6.256  13.723   6.982
93816SOL    HW183345   6.265  13.628   6.992
93816SOL    HW283346   6.163  13.740   6.998
93817SOL     OW83347   2.692   1.556   5.541
93817SOL    HW183348   2.751   1.543   5.467
93817SOL    HW283349   2.750   1.561   5.617
93818SOL     OW83350  11.833  14.076   7.031
93818SOL    HW183351  11.752  14.069   6.981
93818SOL    HW283352  11.828  14.162   7.074
93819SOL     OW83353  10.751   5.610   2.312
93819SOL    HW183354  10.723   5.592   2.222
93819SOL    HW283355  10.673   5.595   2.365
93820SOL     OW83356   6.770   9.140   2.507
93820SOL    HW183357   6.780   9.221   2.558
93820SOL    HW283358   6.689   9.153   2.457
93821SOL     OW83359  10.551   7.975  14.741
93821SOL    HW183360  10.511   7.942  14.661
93821SOL    HW283361  10.499   7.935  14.811
93822SOL     OW83362  11.387  10.995  14.145
93822SOL    HW183363  11.442  10.978  14.221
93822SOL    HW283364  11.448  11.003  14.072
93823SOL     OW83365   9.719  12.098   8.156
93823SOL    HW183366   9.789  12.111   8.220
93823SOL    HW283367   9.661  12.034   8.197
93824SOL     OW83368   2.226   0.248   7.678
93824SOL    HW183369   2.231   0.214   7.768
93824SOL    HW283370   2.236   0.343   7.688
93825SOL     OW83371  14.415   5.094  12.812
93825SOL    HW183372  14.320   5.084  12.824
93825SOL    HW283373  14.424   5.168  12.752
93826SOL     OW83374   2.557   6.485  12.560
93826SOL    HW183375   2.600   6.569  12.545
93826SOL    HW283376   2.593   6.427  12.493
93827SOL     OW83377  13.580   8.403   5.406
93827SOL    HW183378  13.583   8.411   5.311
93827SOL    HW283379  13.588   8.492   5.439
93828SOL     OW83380  14.769  13.644   7.381
93828SOL    HW183381  14.851  13.672   7.340
93828SOL    HW283382  14.729  13.584   7.318
93829SOL     OW83383  11.900  11.112   9.710
93829SOL    HW183384  11.841  11.159   9.768
93829SOL    HW283385  11.945  11.181   9.660
93830SOL     OW83386   7.512  13.822   4.011
93830SOL    HW183387   7.562  13.756   3.963
93830SOL    HW283388   7.547  13.905   3.979
93831SOL     OW83389  11.527  12.149  10.659
93831SOL    HW183390  11.494  12.062  10.638
93831SOL    HW283391  11.505  12.202  10.582
93832SOL     OW83392  14.284  12.932   8.160
93832SOL    HW183393  14.189  12.933   8.152
93832SOL    HW283394  14.301  12.874   8.235
93833SOL     OW83395   0.844  14.866   6.102
93833SOL    HW183396   0.863  14.774   6.120
93833SOL    HW283397   0.773  14.864   6.037
93834SOL     OW83398   5.299  14.215  13.283
93834SOL    HW183399   5.324  14.302  13.252
93834SOL    HW283400   5.206  14.208  13.261
93835SOL     OW83401   5.036  12.975   9.780
93835SOL    HW183402   5.055  12.900   9.836
93835SOL    HW283403   4.966  13.022   9.825
93836SOL     OW83404   4.434   8.231   7.216
93836SOL    HW183405   4.384   8.272   7.145
93836SOL    HW283406   4.368   8.206   7.281
93837SOL     OW83407  10.449   9.841   4.622
93837SOL    HW183408  10.372   9.797   4.587
93837SOL    HW283409  10.473   9.790   4.700
93838SOL     OW83410   3.324   3.211  13.737
93838SOL    HW183411   3.309   3.117  13.735
93838SOL    HW283412   3.417   3.220  13.759
93839SOL     OW83413   0.943   7.022  11.567
93839SOL    HW183414   0.869   7.075  11.536
93839SOL    HW283415   0.928   7.012  11.661
93840SOL     OW83416  10.424   5.880   5.147
93840SOL    HW183417  10.442   5.952   5.087
93840SOL    HW283418  10.445   5.801   5.098
93841SOL     OW83419  14.247   8.366   4.009
93841SOL    HW183420  14.271   8.288   4.058
93841SOL    HW283421  14.210   8.332   3.927
93842SOL     OW83422   2.559   1.652   4.885
93842SOL    HW183423   2.501   1.598   4.831
93842SOL    HW283424   2.499   1.703   4.941
93843SOL     OW83425   9.507   9.431  14.753
93843SOL    HW183426   9.447   9.482  14.806
93843SOL    HW283427   9.580   9.411  14.811
93844SOL     OW83428  10.728   7.359  14.748
93844SOL    HW183429  10.793   7.310  14.799
93844SOL    HW283430  10.735   7.449  14.781
93845SOL     OW83431   8.596  11.756   1.103
93845SOL    HW183432   8.576  11.726   1.014
93845SOL    HW283433   8.649  11.835   1.090
93846SOL     OW83434   6.881   5.453  10.097
93846SOL    HW183435   6.863   5.406  10.015
93846SOL    HW283436   6.941   5.395  10.145
93847SOL     OW83437   4.828  12.759   6.350
93847SOL    HW183438   4.885  12.836   6.355
93847SOL    HW283439   4.822  12.741   6.256
93848SOL     OW83440  10.191   1.074   7.084
93848SOL    HW183441  10.207   1.000   7.026
93848SOL    HW283442  10.231   1.049   7.167
93849SOL     OW83443   0.955   1.717   7.247
93849SOL    HW183444   0.895   1.749   7.314
93849SOL    HW283445   0.959   1.789   7.183
93850SOL     OW83446  12.200  13.335   2.132
93850SOL    HW183447  12.212  13.300   2.043
93850SOL    HW283448  12.262  13.408   2.137
93851SOL     OW83449   5.864   6.696   3.985
93851SOL    HW183450   5.779   6.691   3.942
93851SOL    HW283451   5.852   6.756   4.058
93852SOL     OW83452   9.284  13.056   6.397
93852SOL    HW183453   9.239  12.999   6.336
93852SOL    HW283454   9.214  13.105   6.440
93853SOL     OW83455  13.765   8.918   1.368
93853SOL    HW183456  13.777   8.864   1.445
93853SOL    HW283457  13.853   8.943   1.341
93854SOL     OW83458   6.696   1.822   3.371
93854SOL    HW183459   6.613   1.776   3.380
93854SOL    HW283460   6.760   1.766   3.415
93855SOL     OW83461   3.360  13.660   2.955
93855SOL    HW183462   3.409  13.593   3.002
93855SOL    HW283463   3.311  13.611   2.889
93856SOL     OW83464  11.491   5.472   7.160
93856SOL    HW183465  11.494   5.538   7.229
93856SOL    HW283466  11.516   5.391   7.203
93857SOL     OW83467   8.138  10.106   7.076
93857SOL    HW183468   8.183  10.176   7.123
93857SOL    HW283469   8.089  10.150   7.007
93858SOL     OW83470   7.719   5.276  10.571
93858SOL    HW183471   7.781   5.346  10.548
93858SOL    HW283472   7.769   5.219  10.629
93859SOL     OW83473   2.740   1.851   4.384
93859SOL    HW183474   2.774   1.938   4.365
93859SOL    HW283475   2.718   1.854   4.477
93860SOL     OW83476   3.638   1.961   2.936
93860SOL    HW183477   3.545   1.964   2.960
93860SOL    HW283478   3.637   1.962   2.840
93861SOL     OW83479   4.707   7.834  10.284
93861SOL    HW183480   4.727   7.843  10.377
93861SOL    HW283481   4.782   7.874  10.239
93862SOL     OW83482  11.171  11.095  14.551
93862SOL    HW183483  11.103  11.074  14.487
93862SOL    HW283484  11.134  11.167  14.603
93863SOL     OW83485   5.594   8.189   1.320
93863SOL    HW183486   5.553   8.245   1.254
93863SOL    HW283487   5.522   8.140   1.359
93864SOL     OW83488  11.623  12.142  13.047
93864SOL    HW183489  11.614  12.068  12.986
93864SOL    HW283490  11.717  12.153  13.058
93865SOL     OW83491  13.010   3.989  13.760
93865SOL    HW183492  12.929   3.946  13.733
93865SOL    HW283493  13.057   4.006  13.678
93866SOL     OW83494  14.592  11.494   4.534
93866SOL    HW183495  14.510  11.494   4.484
93866SOL    HW283496  14.625  11.583   4.526
93867SOL     OW83497   7.622   4.926   6.981
93867SOL    HW183498   7.579   4.909   6.897
93867SOL    HW283499   7.550   4.933   7.044
93868SOL     OW83500   1.575   5.245   0.520
93868SOL    HW183501   1.548   5.333   0.493
93868SOL    HW283502   1.668   5.240   0.497
93869SOL     OW83503   3.512  11.069  14.694
93869SOL    HW183504   3.608  11.073  14.701
93869SOL    HW283505   3.495  11.051  14.602
93870SOL     OW83506   3.071   1.412   9.364
93870SOL    HW183507   3.044   1.331   9.407
93870SOL    HW283508   3.030   1.481   9.417
93871SOL     OW83509  14.090   2.338  13.598
93871SOL    HW183510  14.025   2.399  13.565
93871SOL    HW283511  14.169   2.391  13.610
93872SOL     OW83512  13.353   3.468   5.831
93872SOL    HW183513  13.289   3.415   5.878
93872SOL    HW283514  13.316   3.556   5.832
93873SOL     OW83515   0.111   5.644  11.457
93873SOL    HW183516   0.137   5.602  11.540
93873SOL    HW283517   0.097   5.736  11.480
93874SOL     OW83518   6.698  14.846  11.372
93874SOL    HW183519   6.632   0.016  11.324
93874SOL    HW283520   6.649  14.803  11.442
93875SOL     OW83521   2.153  10.948  12.792
93875SOL    HW183522   2.131  10.855  12.801
93875SOL    HW283523   2.130  10.969  12.701
93876SOL     OW83524  13.698   8.526  14.302
93876SOL    HW183525  13.624   8.523  14.363
93876SOL    HW283526  13.736   8.613  14.314
93877SOL     OW83527   6.935   0.957   0.723
93877SOL    HW183528   7.020   0.953   0.768
93877SOL    HW283529   6.899   1.042   0.749
93878SOL     OW83530   5.717   1.548  14.854
93878SOL    HW183531   5.756   1.617   0.027
93878SOL    HW283532   5.702   1.476   0.034
93879SOL     OW83533   2.888  13.781   1.807
93879SOL    HW183534   2.938  13.718   1.755
93879SOL    HW283535   2.955  13.835   1.850
93880SOL     OW83536   0.193   5.257   5.989
93880SOL    HW183537   0.252   5.208   6.046
93880SOL    HW283538   0.106   5.243   6.026
93881SOL     OW83539  12.227  12.985   7.358
93881SOL    HW183540  12.132  12.996   7.361
93881SOL    HW283541  12.257  13.046   7.291
93882SOL     OW83542   3.189   0.658   6.074
93882SOL    HW183543   3.263   0.601   6.094
93882SOL    HW283544   3.228   0.737   6.038
93883SOL     OW83545   3.762  14.183   6.682
93883SOL    HW183546   3.832  14.244   6.659
93883SOL    HW283547   3.784  14.102   6.636
93884SOL     OW83548   0.736  11.468   7.332
93884SOL    HW183549   0.824  11.483   7.298
93884SOL    HW283550   0.737  11.508   7.419
93885SOL     OW83551   4.360   2.174   1.339
93885SOL    HW183552   4.420   2.119   1.288
93885SOL    HW283553   4.416   2.220   1.401
93886SOL     OW83554   7.634   6.224   8.333
93886SOL    HW183555   7.565   6.283   8.364
93886SOL    HW283556   7.643   6.159   8.402
93887SOL     OW83557  11.839  11.975   9.815
93887SOL    HW183558  11.825  11.959   9.721
93887SOL    HW283559  11.819  12.067   9.827
93888SOL     OW83560   7.865  12.819  14.589
93888SOL    HW183561   7.851  12.728  14.614
93888SOL    HW283562   7.850  12.869  14.669
93889SOL     OW83563  10.761   6.414   0.511
93889SOL    HW183564  10.805   6.471   0.575
93889SOL    HW283565  10.757   6.329   0.554
93890SOL     OW83566  12.817   4.598  12.915
93890SOL    HW183567  12.744   4.560  12.865
93890SOL    HW283568  12.869   4.523  12.942
93891SOL     OW83569  10.742  11.923   0.488
93891SOL    HW183570  10.752  11.875   0.406
93891SOL    HW283571  10.781  11.866   0.554
93892SOL     OW83572   9.347  12.817   5.034
93892SOL    HW183573   9.421  12.770   5.072
93892SOL    HW283574   9.297  12.749   4.988
93893SOL     OW83575  11.605   2.923   9.623
93893SOL    HW183576  11.662   2.966   9.559
93893SOL    HW283577  11.519   2.963   9.609
93894SOL     OW83578  13.040   7.324   4.130
93894SOL    HW183579  13.086   7.407   4.135
93894SOL    HW283580  12.947   7.348   4.126
93895SOL     OW83581   7.649   9.204   8.413
93895SOL    HW183582   7.684   9.142   8.349
93895SOL    HW283583   7.718   9.270   8.423
93896SOL     OW83584   8.223   7.663  14.653
93896SOL    HW183585   8.188   7.585  14.609
93896SOL    HW283586   8.212   7.733  14.589
93897SOL     OW83587  10.377   8.890  10.021
93897SOL    HW183588  10.291   8.932  10.029
93897SOL    HW283589  10.372   8.842   9.939
93898SOL     OW83590  14.261  10.280   0.742
93898SOL    HW183591  14.178  10.233   0.747
93898SOL    HW283592  14.236  10.368   0.712
93899SOL     OW83593   1.872  13.887   2.711
93899SOL    HW183594   1.797  13.920   2.761
93899SOL    HW283595   1.861  13.792   2.711
93900SOL     OW83596  12.202   8.085  14.065
93900SOL    HW183597  12.217   7.991  14.077
93900SOL    HW283598  12.246   8.126  14.139
93901SOL     OW83599   4.460   4.262   1.736
93901SOL    HW183600   4.392   4.301   1.682
93901SOL    HW283601   4.446   4.300   1.823
93902SOL     OW83602   9.976  10.146   0.196
93902SOL    HW183603  10.068  10.163   0.177
93902SOL    HW283604   9.973  10.135   0.291
93903SOL     OW83605   5.095  10.160  13.656
93903SOL    HW183606   5.082  10.068  13.633
93903SOL    HW283607   5.176  10.185  13.611
93904SOL     OW83608   7.615   4.928   2.749
93904SOL    HW183609   7.637   5.007   2.700
93904SOL    HW283610   7.658   4.940   2.834
93905SOL     OW83611   4.384   8.616   1.002
93905SOL    HW183612   4.383   8.521   1.015
93905SOL    HW283613   4.472   8.643   1.028
93906SOL     OW83614  14.176   0.209   7.645
93906SOL    HW183615  14.187   0.229   7.552
93906SOL    HW283616  14.081   0.209   7.659
93907SOL     OW83617  12.006   7.182   3.438
93907SOL    HW183618  12.099   7.203   3.436
93907SOL    HW283619  11.968   7.231   3.365
93908SOL     OW83620   8.387   9.645  10.533
93908SOL    HW183621   8.457   9.611  10.589
93908SOL    HW283622   8.307   9.608  10.570
93909SOL     OW83623   8.279   9.310   3.328
93909SOL    HW183624   8.333   9.325   3.250
93909SOL    HW283625   8.252   9.218   3.321
93910SOL     OW83626   0.411  12.469   5.471
93910SOL    HW183627   0.325  12.450   5.436
93910SOL    HW283628   0.425  12.402   5.538
93911SOL     OW83629   2.507  12.778  12.006
93911SOL    HW183630   2.519  12.718  12.080
93911SOL    HW283631   2.421  12.817  12.020
93912SOL     OW83632   2.930  10.237   2.271
93912SOL    HW183633   3.020  10.238   2.304
93912SOL    HW283634   2.882  10.295   2.330
93913SOL     OW83635   0.334   8.803  12.277
93913SOL    HW183636   0.255   8.749  12.276
93913SOL    HW283637   0.320   8.865  12.348
93914SOL     OW83638   9.713  11.001   5.654
93914SOL    HW183639   9.659  10.945   5.598
93914SOL    HW283640   9.800  10.999   5.613
93915SOL     OW83641   5.300  10.977   7.944
93915SOL    HW183642   5.253  11.054   7.974
93915SOL    HW283643   5.310  10.922   8.021
93916SOL     OW83644   4.766   1.536  12.431
93916SOL    HW183645   4.726   1.480  12.365
93916SOL    HW283646   4.691   1.573  12.479
93917SOL     OW83647   5.422   6.459  11.122
93917SOL    HW183648   5.346   6.425  11.075
93917SOL    HW283649   5.454   6.531  11.068
93918SOL     OW83650   6.280   7.821  11.263
93918SOL    HW183651   6.375   7.817  11.274
93918SOL    HW283652   6.268   7.866  11.179
93919SOL     OW83653   3.086   6.288   0.596
93919SOL    HW183654   2.992   6.286   0.609
93919SOL    HW283655   3.114   6.197   0.604
93920SOL     OW83656   0.924   7.065  10.345
93920SOL    HW183657   0.934   7.160  10.345
93920SOL    HW283658   0.985   7.035  10.413
93921SOL     OW83659   2.422  13.965   4.838
93921SOL    HW183660   2.346  13.941   4.787
93921SOL    HW283661   2.469  14.030   4.784
93922SOL     OW83662  10.249   6.627   6.241
93922SOL    HW183663  10.322   6.597   6.186
93922SOL    HW283664  10.196   6.681   6.183
93923SOL     OW83665   3.811   4.955  13.075
93923SOL    HW183666   3.823   5.017  13.003
93923SOL    HW283667   3.722   4.922  13.064
93924SOL     OW83668   1.568   9.119   3.309
93924SOL    HW183669   1.567   9.047   3.371
93924SOL    HW283670   1.650   9.108   3.261
93925SOL     OW83671   6.723   9.104   1.549
93925SOL    HW183672   6.704   9.195   1.525
93925SOL    HW283673   6.778   9.110   1.627
93926SOL     OW83674   0.977   2.029   1.568
93926SOL    HW183675   0.890   2.004   1.599
93926SOL    HW283676   1.036   2.006   1.640
93927SOL     OW83677   4.476  10.226   1.106
93927SOL    HW183678   4.556  10.245   1.057
93927SOL    HW283679   4.405  10.261   1.050
93928SOL     OW83680  10.640  10.571   9.011
93928SOL    HW183681  10.550  10.546   9.031
93928SOL    HW283682  10.638  10.592   8.917
93929SOL     OW83683   5.236   0.993  12.969
93929SOL    HW183684   5.325   0.994  12.934
93929SOL    HW283685   5.206   0.903  12.957
93930SOL     OW83686   8.941  12.442   3.439
93930SOL    HW183687   9.015  12.383   3.454
93930SOL    HW283688   8.948  12.468   3.347
93931SOL     OW83689  13.509   3.734   5.492
93931SOL    HW183690  13.486   3.649   5.529
93931SOL    HW283691  13.427   3.768   5.457
93932SOL     OW83692   3.745   3.769   8.854
93932SOL    HW183693   3.808   3.726   8.796
93932SOL    HW283694   3.795   3.840   8.894
93933SOL     OW83695   1.268   2.491   4.427
93933SOL    HW183696   1.238   2.555   4.362
93933SOL    HW283697   1.359   2.516   4.445
93934SOL     OW83698   3.364  12.117   1.187
93934SOL    HW183699   3.276  12.125   1.150
93934SOL    HW283700   3.407  12.052   1.131
93935SOL     OW83701   8.041   4.008   4.154
93935SOL    HW183702   7.978   3.936   4.163
93935SOL    HW283703   8.039   4.031   4.061
93936SOL     OW83704  11.576   7.329   1.582
93936SOL    HW183705  11.583   7.242   1.622
93936SOL    HW283706  11.657   7.338   1.531
93937SOL     OW83707  11.532  11.910   8.085
93937SOL    HW183708  11.528  11.912   7.990
93937SOL    HW283709  11.615  11.952   8.106
93938SOL     OW83710   5.227   1.495   6.682
93938SOL    HW183711   5.225   1.510   6.588
93938SOL    HW283712   5.262   1.576   6.719
93939SOL     OW83713   5.260  11.719  12.621
93939SOL    HW183714   5.231  11.757  12.704
93939SOL    HW283715   5.234  11.783  12.554
93940SOL     OW83716  14.838   4.643   2.651
93940SOL    HW183717  14.821   4.686   2.735
93940SOL    HW283718  14.755   4.648   2.604
93941SOL     OW83719   5.366   4.372   2.287
93941SOL    HW183720   5.327   4.370   2.199
93941SOL    HW283721   5.293   4.398   2.344
93942SOL     OW83722  13.135  11.765  10.858
93942SOL    HW183723  13.151  11.792  10.948
93942SOL    HW283724  13.064  11.701  10.864
93943SOL     OW83725  11.128   5.764   6.848
93943SOL    HW183726  11.178   5.686   6.873
93943SOL    HW283727  11.045   5.730   6.816
93944SOL     OW83728   5.021   8.824  13.241
93944SOL    HW183729   5.036   8.757  13.308
93944SOL    HW283730   4.934   8.806  13.208
93945SOL     OW83731  10.737  12.776  10.945
93945SOL    HW183732  10.783  12.729  10.876
93945SOL    HW283733  10.785  12.755  11.025
93946SOL     OW83734   8.689   4.302   2.846
93946SOL    HW183735   8.621   4.320   2.781
93946SOL    HW283736   8.642   4.265   2.921
93947SOL     OW83737  11.107  14.725   7.203
93947SOL    HW183738  11.062  14.802   7.238
93947SOL    HW283739  11.182  14.760   7.155
93948SOL     OW83740  13.017   5.520   1.137
93948SOL    HW183741  13.000   5.463   1.212
93948SOL    HW283742  13.096   5.484   1.096
93949SOL     OW83743  11.567  11.457   1.935
93949SOL    HW183744  11.510  11.427   2.006
93949SOL    HW283745  11.507  11.485   1.866
93950SOL     OW83746  10.108   8.402   1.546
93950SOL    HW183747  10.135   8.318   1.510
93950SOL    HW283748  10.056   8.380   1.623
93951SOL     OW83749   7.674  12.399  12.195
93951SOL    HW183750   7.659  12.373  12.286
93951SOL    HW283751   7.767  12.418  12.190
93952SOL     OW83752   1.069   4.501   5.653
93952SOL    HW183753   1.055   4.406   5.647
93952SOL    HW283754   1.125   4.512   5.729
93953SOL     OW83755   6.843  11.183  14.628
93953SOL    HW183756   6.869  11.232  14.549
93953SOL    HW283757   6.799  11.105  14.595
93954SOL     OW83758   5.179   3.682  12.027
93954SOL    HW183759   5.157   3.770  11.997
93954SOL    HW283760   5.256   3.657  11.975
93955SOL     OW83761   2.782   5.871   6.709
93955SOL    HW183762   2.872   5.904   6.715
93955SOL    HW283763   2.792   5.782   6.675
93956SOL     OW83764   7.956   0.793   8.189
93956SOL    HW183765   8.015   0.719   8.175
93956SOL    HW283766   7.978   0.825   8.276
93957SOL     OW83767  14.638   2.570   3.254
93957SOL    HW183768  14.715   2.528   3.217
93957SOL    HW283769  14.568   2.552   3.192
93958SOL     OW83770   5.850   7.421   0.874
93958SOL    HW183771   5.788   7.483   0.913
93958SOL    HW283772   5.918   7.412   0.941
93959SOL     OW83773   1.166  11.769   8.124
93959SOL    HW183774   1.241  11.818   8.158
93959SOL    HW283775   1.163  11.690   8.178
93960SOL     OW83776   4.005   0.251  11.365
93960SOL    HW183777   3.944   0.279  11.433
93960SOL    HW283778   3.951   0.244  11.286
93961SOL     OW83779   9.050   9.652   4.647
93961SOL    HW183780   9.030   9.569   4.690
93961SOL    HW283781   8.992   9.655   4.571
93962SOL     OW83782   6.904  14.684   0.760
93962SOL    HW183783   6.952  14.643   0.688
93962SOL    HW283784   6.970  14.727   0.813
93963SOL     OW83785   7.056  12.015   9.134
93963SOL    HW183786   6.963  12.019   9.159
93963SOL    HW283787   7.077  11.922   9.139
93964SOL     OW83788   2.118  14.299  11.913
93964SOL    HW183789   2.148  14.379  11.868
93964SOL    HW283790   2.098  14.328  12.002
93965SOL     OW83791   1.000   7.593   7.802
93965SOL    HW183792   0.928   7.555   7.751
93965SOL    HW283793   0.957   7.655   7.861
93966SOL     OW83794  12.648   2.462  12.861
93966SOL    HW183795  12.657   2.371  12.835
93966SOL    HW283796  12.662   2.461  12.956
93967SOL     OW83797  14.097  14.033   8.777
93967SOL    HW183798  14.098  14.125   8.801
93967SOL    HW283799  14.168  13.994   8.828
93968SOL     OW83800  10.599   4.759  14.567
93968SOL    HW183801  10.541   4.770  14.642
93968SOL    HW283802  10.541   4.749  14.492
93969SOL     OW83803   6.955   2.925   0.520
93969SOL    HW183804   6.963   2.988   0.592
93969SOL    HW283805   7.024   2.861   0.535
93970SOL     OW83806  10.816  14.628   2.550
93970SOL    HW183807  10.820  14.721   2.527
93970SOL    HW283808  10.776  14.586   2.474
93971SOL     OW83809  10.808  14.816   5.787
93971SOL    HW183810  10.712  14.819   5.782
93971SOL    HW283811  10.827  14.803   5.879
93972SOL     OW83812   6.618  14.556   2.212
93972SOL    HW183813   6.657  14.567   2.299
93972SOL    HW283814   6.524  14.549   2.228
93973SOL     OW83815   2.252  10.345   3.671
93973SOL    HW183816   2.260  10.441   3.675
93973SOL    HW283817   2.317  10.313   3.734
93974SOL     OW83818   5.204   3.546   7.113
93974SOL    HW183819   5.221   3.454   7.134
93974SOL    HW283820   5.256   3.595   7.177
93975SOL     OW83821  12.025   1.426  10.679
93975SOL    HW183822  11.944   1.455  10.720
93975SOL    HW283823  12.046   1.344  10.725
93976SOL     OW83824   6.470   8.616   6.334
93976SOL    HW183825   6.444   8.592   6.423
93976SOL    HW283826   6.489   8.533   6.291
93977SOL     OW83827   8.708  13.348   0.765
93977SOL    HW183828   8.715  13.254   0.748
93977SOL    HW283829   8.614  13.363   0.777
93978SOL     OW83830  11.981   2.580   9.383
93978SOL    HW183831  11.953   2.490   9.367
93978SOL    HW283832  11.972   2.623   9.298
93979SOL     OW83833   7.192   3.074  10.566
93979SOL    HW183834   7.263   3.129  10.602
93979SOL    HW283835   7.216   3.061  10.474
93980SOL     OW83836   1.629   4.882   8.290
93980SOL    HW183837   1.709   4.874   8.238
93980SOL    HW283838   1.652   4.849   8.376
93981SOL     OW83839  11.146   0.365   9.731
93981SOL    HW183840  11.174   0.439   9.785
93981SOL    HW283841  11.118   0.299   9.795
93982SOL     OW83842  11.637   9.801  14.784
93982SOL    HW183843  11.648   9.832  14.695
93982SOL    HW283844  11.680   9.866  14.839
93983SOL     OW83845  12.333  13.272   8.368
93983SOL    HW183846  12.251  13.269   8.319
93983SOL    HW283847  12.401  13.262   8.301
93984SOL     OW83848   0.885   1.128   9.957
93984SOL    HW183849   0.872   1.048  10.008
93984SOL    HW283850   0.894   1.097   9.867
93985SOL     OW83851   2.668  11.380   3.930
93985SOL    HW183852   2.665  11.422   3.844
93985SOL    HW283853   2.730  11.434   3.980
93986SOL     OW83854   3.541  11.933   8.141
93986SOL    HW183855   3.505  11.854   8.180
93986SOL    HW283856   3.468  11.996   8.143
93987SOL     OW83857   9.993   7.616  10.588
93987SOL    HW183858  10.081   7.654  10.582
93987SOL    HW283859   9.994   7.544  10.524
93988SOL     OW83860   3.485  13.821   4.663
93988SOL    HW183861   3.552  13.826   4.594
93988SOL    HW283862   3.469  13.727   4.674
93989SOL     OW83863  14.269   7.648   7.443
93989SOL    HW183864  14.264   7.744   7.438
93989SOL    HW283865  14.279   7.630   7.537
93990SOL     OW83866  14.804  11.088   3.813
93990SOL    HW183867  14.712  11.104   3.792
93990SOL    HW283868  14.802  11.050   3.902
93991SOL     OW83869   1.739   6.666   9.232
93991SOL    HW183870   1.672   6.729   9.260
93991SOL    HW283871   1.787   6.644   9.312
93992SOL     OW83872   4.383   2.051  10.565
93992SOL    HW183873   4.403   2.109  10.492
93992SOL    HW283874   4.466   2.043  10.613
93993SOL     OW83875   8.035  14.729   5.849
93993SOL    HW183876   8.112  14.784   5.863
93993SOL    HW283877   7.961  14.782   5.879
93994SOL     OW83878   3.600   9.912   4.577
93994SOL    HW183879   3.619   9.917   4.671
93994SOL    HW283880   3.611   9.820   4.555
93995SOL     OW83881   7.614   3.032   9.326
93995SOL    HW183882   7.619   3.112   9.379
93995SOL    HW283883   7.584   2.965   9.387
93996SOL     OW83884  11.200   4.073   5.602
93996SOL    HW183885  11.229   3.982   5.608
93996SOL    HW283886  11.155   4.089   5.685
93997SOL     OW83887   4.583   1.748   3.724
93997SOL    HW183888   4.562   1.672   3.778
93997SOL    HW283889   4.583   1.822   3.786
93998SOL     OW83890  10.370   5.052  13.890
93998SOL    HW183891  10.346   5.106  13.815
93998SOL    HW283892  10.302   4.985  13.894
93999SOL     OW83893   9.110   9.376   0.773
93999SOL    HW183894   9.088   9.304   0.713
93999SOL    HW283895   9.026   9.414   0.797
94000SOL     OW83896  13.170   4.906   1.307
94000SOL    HW183897  13.228   4.977   1.277
94000SOL    HW283898  13.201   4.829   1.260
94001SOL     OW83899  13.081   5.488  11.977
94001SOL    HW183900  13.152   5.466  11.916
94001SOL    HW283901  13.121   5.483  12.064
94002SOL     OW83902   9.436   2.121   2.036
94002SOL    HW183903   9.379   2.185   2.079
94002SOL    HW283904   9.487   2.173   1.974
94003SOL     OW83905  12.252   8.325  12.588
94003SOL    HW183906  12.224   8.333  12.497
94003SOL    HW283907  12.222   8.238  12.615
94004SOL     OW83908   6.392   1.312  10.758
94004SOL    HW183909   6.420   1.238  10.811
94004SOL    HW283910   6.389   1.279  10.669
94005SOL     OW83911   1.289  14.560   1.885
94005SOL    HW183912   1.268  14.512   1.805
94005SOL    HW283913   1.370  14.606   1.866
94006SOL     OW83914   3.377   4.057   2.343
94006SOL    HW183915   3.446   4.053   2.277
94006SOL    HW283916   3.304   4.009   2.303
94007SOL     OW83917   7.492   3.479   4.080
94007SOL    HW183918   7.425   3.428   4.034
94007SOL    HW283919   7.568   3.476   4.022
94008SOL     OW83920  14.520   5.589  13.589
94008SOL    HW183921  14.604   5.633  13.602
94008SOL    HW283922  14.470   5.650  13.534
94009SOL     OW83923   1.920   4.701  12.918
94009SOL    HW183924   1.840   4.648  12.913
94009SOL    HW283925   1.991   4.637  12.910
94010SOL     OW83926   5.219   2.976   7.842
94010SOL    HW183927   5.245   2.945   7.928
94010SOL    HW283928   5.297   3.019   7.808
94011SOL     OW83929  13.444   8.415   6.442
94011SOL    HW183930  13.514   8.354   6.463
94011SOL    HW283931  13.430   8.465   6.522
94012SOL     OW83932  10.440   5.357  11.790
94012SOL    HW183933  10.493   5.392  11.718
94012SOL    HW283934  10.451   5.262  11.783
94013SOL     OW83935   0.472   7.840  12.514
94013SOL    HW183936   0.468   7.934  12.533
94013SOL    HW283937   0.549   7.809  12.563
94014SOL     OW83938   7.146  10.190   0.497
94014SOL    HW183939   7.149  10.098   0.472
94014SOL    HW283940   7.213  10.232   0.442
94015SOL     OW83941  10.058  11.885   9.181
94015SOL    HW183942   9.967  11.865   9.202
94015SOL    HW283943  10.057  11.909   9.088
94016SOL     OW83944   8.842   3.568   7.970
94016SOL    HW183945   8.892   3.497   8.011
94016SOL    HW283946   8.908   3.630   7.940
94017SOL     OW83947   1.671   2.450   9.212
94017SOL    HW183948   1.634   2.469   9.127
94017SOL    HW283949   1.596   2.436   9.269
94018SOL     OW83950  10.257   5.861   3.103
94018SOL    HW183951  10.228   5.868   3.012
94018SOL    HW283952  10.346   5.895   3.102
94019SOL     OW83953  10.430   4.052  10.235
94019SOL    HW183954  10.500   4.105  10.195
94019SOL    HW283955  10.403   3.992  10.166
94020SOL     OW83956   7.481   3.022   5.651
94020SOL    HW183957   7.404   2.971   5.677
94020SOL    HW283958   7.477   3.025   5.556
94021SOL     OW83959   4.739   9.978  14.478
94021SOL    HW183960   4.659  10.028  14.494
94021SOL    HW283961   4.717   9.921  14.405
94022SOL     OW83962  12.754  10.337   2.009
94022SOL    HW183963  12.755  10.427   1.978
94022SOL    HW283964  12.755  10.344   2.104
94023SOL     OW83965   8.665  13.038   0.791
94023SOL    HW183966   8.703  13.018   0.877
94023SOL    HW283967   8.574  13.060   0.810
94024SOL     OW83968  11.320   0.307  12.829
94024SOL    HW183969  11.320   0.351  12.744
94024SOL    HW283970  11.293   0.375  12.891
94025SOL     OW83971   2.244   3.776   1.658
94025SOL    HW183972   2.253   3.722   1.737
94025SOL    HW283973   2.297   3.853   1.677
94026SOL     OW83974   0.996   3.749   2.351
94026SOL    HW183975   0.916   3.731   2.400
94026SOL    HW283976   1.061   3.770   2.418
94027SOL     OW83977  11.257   5.835   3.331
94027SOL    HW183978  11.212   5.851   3.248
94027SOL    HW283979  11.237   5.913   3.384
94028SOL     OW83980   0.280  11.255  10.684
94028SOL    HW183981   0.252  11.229  10.772
94028SOL    HW283982   0.375  11.244  10.685
94029SOL     OW83983   7.227   5.692  10.716
94029SOL    HW183984   7.200   5.622  10.657
94029SOL    HW283985   7.322   5.697  10.704
94030SOL     OW83986  10.426   1.401   7.240
94030SOL    HW183987  10.369   1.338   7.284
94030SOL    HW283988  10.373   1.481   7.235
94031SOL     OW83989   7.713   4.525   3.143
94031SOL    HW183990   7.768   4.500   3.069
94031SOL    HW283991   7.774   4.541   3.214
94032SOL     OW83992   8.391   6.308   3.864
94032SOL    HW183993   8.329   6.283   3.797
94032SOL    HW283994   8.427   6.391   3.834
94033SOL     OW83995  14.305   7.522  10.654
94033SOL    HW183996  14.249   7.587  10.611
94033SOL    HW283997  14.263   7.505  10.738
94034SOL     OW83998   4.277   6.333   9.762
94034SOL    HW183999   4.347   6.312   9.700
94034SOL    HW284000   4.208   6.371   9.707
94035SOL     OW84001   7.856   8.542   8.387
94035SOL    HW184002   7.768   8.504   8.387
94035SOL    HW284003   7.849   8.618   8.330
94036SOL     OW84004  12.530   3.953   3.418
94036SOL    HW184005  12.576   4.038   3.415
94036SOL    HW284006  12.451   3.966   3.366
94037SOL     OW84007   1.341   3.540   6.434
94037SOL    HW184008   1.310   3.606   6.372
94037SOL    HW284009   1.428   3.569   6.459
94038SOL     OW84010   6.834   9.924   1.533
94038SOL    HW184011   6.748   9.910   1.494
94038SOL    HW284012   6.877   9.988   1.475
94039SOL     OW84013   1.888   5.562   2.396
94039SOL    HW184014   1.898   5.624   2.323
94039SOL    HW284015   1.893   5.476   2.355
94040SOL     OW84016   5.037   7.900   9.717
94040SOL    HW184017   5.096   7.974   9.728
94040SOL    HW284018   4.960   7.922   9.768
94041SOL     OW84019  10.537  11.092   7.862
94041SOL    HW184020  10.569  11.048   7.783
94041SOL    HW284021  10.508  11.177   7.831
94042SOL     OW84022  13.401   0.544   4.636
94042SOL    HW184023  13.361   0.618   4.590
94042SOL    HW284024  13.385   0.562   4.728
94043SOL     OW84025  13.623  11.128  10.053
94043SOL    HW184026  13.601  11.038  10.076
94043SOL    HW284027  13.551  11.180  10.088
94044SOL     OW84028  12.482   2.467   6.384
94044SOL    HW184029  12.554   2.514   6.341
94044SOL    HW284030  12.461   2.396   6.324
94045SOL     OW84031  10.597   5.886  13.946
94045SOL    HW184032  10.616   5.796  13.918
94045SOL    HW284033  10.562   5.877  14.035
94046SOL     OW84034  12.515   4.501  11.506
94046SOL    HW184035  12.426   4.495  11.538
94046SOL    HW284036  12.569   4.508  11.585
94047SOL     OW84037   4.506  11.093   2.712
94047SOL    HW184038   4.463  11.089   2.798
94047SOL    HW284039   4.450  11.151   2.660
94048SOL     OW84040   6.360  10.630   9.492
94048SOL    HW184041   6.430  10.566   9.481
94048SOL    HW284042   6.302  10.591   9.557
94049SOL     OW84043  10.893  13.558  13.221
94049SOL    HW184044  10.831  13.501  13.176
94049SOL    HW284045  10.841  13.602  13.288
94050SOL     OW84046   7.172   1.195  13.573
94050SOL    HW184047   7.182   1.148  13.490
94050SOL    HW284048   7.247   1.169  13.626
94051SOL     OW84049  14.615   2.841   3.724
94051SOL    HW184050  14.524   2.839   3.696
94051SOL    HW284051  14.666   2.848   3.643
94052SOL     OW84052  10.482   9.599   9.314
94052SOL    HW184053  10.554   9.602   9.251
94052SOL    HW284054  10.475   9.690   9.345
94053SOL     OW84055   8.997   0.925   8.665
94053SOL    HW184056   9.085   0.892   8.680
94053SOL    HW284057   8.966   0.881   8.586
94054SOL     OW84058   6.450   2.688   5.970
94054SOL    HW184059   6.446   2.595   5.991
94054SOL    HW284060   6.501   2.726   6.042
94055SOL     OW84061  13.642   6.830   6.184
94055SOL    HW184062  13.730   6.793   6.184
94055SOL    HW284063  13.598   6.786   6.111
94056SOL     OW84064   3.244   0.988  14.760
94056SOL    HW184065   3.308   1.043  14.805
94056SOL    HW284066   3.210   1.043  14.690
94057SOL     OW84067   1.808  14.121  14.066
94057SOL    HW184068   1.858  14.081  14.137
94057SOL    HW284069   1.752  14.185  14.109
94058SOL     OW84070   7.819   3.832  13.005
94058SOL    HW184071   7.892   3.778  12.975
94058SOL    HW284072   7.825   3.912  12.952
94059SOL     OW84073   6.105   2.589   8.195
94059SOL    HW184074   6.165   2.652   8.237
94059SOL    HW284075   6.117   2.604   8.101
94060SOL     OW84076   8.437  14.858   3.888
94060SOL    HW184077   8.478  14.818   3.811
94060SOL    HW284078   8.494   0.050   3.912
94061SOL     OW84079   6.646   5.564  12.089
94061SOL    HW184080   6.649   5.660  12.092
94061SOL    HW284081   6.734   5.539  12.060
94062SOL     OW84082   4.259  10.414   3.433
94062SOL    HW184083   4.255  10.414   3.529
94062SOL    HW284084   4.317  10.342   3.411
94063SOL     OW84085  13.314   9.066   3.838
94063SOL    HW184086  13.246   9.000   3.831
94063SOL    HW284087  13.267   9.149   3.848
94064SOL     OW84088   5.896   4.339  12.967
94064SOL    HW184089   5.858   4.287  12.897
94064SOL    HW284090   5.861   4.299  13.047
94065SOL     OW84091   3.793  10.102   8.968
94065SOL    HW184092   3.700  10.122   8.984
94065SOL    HW284093   3.806  10.016   9.008
94066SOL     OW84094   4.082  14.028   5.030
94066SOL    HW184095   4.053  14.051   5.118
94066SOL    HW284096   4.148  14.094   5.008
94067SOL     OW84097   5.601   4.414   1.126
94067SOL    HW184098   5.521   4.459   1.096
94067SOL    HW284099   5.657   4.485   1.158
94068SOL     OW84100   4.350  11.350   6.009
94068SOL    HW184101   4.354  11.313   5.920
94068SOL    HW284102   4.301  11.285   6.059
94069SOL     OW84103   0.377   4.420  13.376
94069SOL    HW184104   0.348   4.467  13.454
94069SOL    HW284105   0.472   4.420  13.383
94070SOL     OW84106   1.698   0.507   2.032
94070SOL    HW184107   1.766   0.443   2.011
94070SOL    HW284108   1.707   0.576   1.966
94071SOL     OW84109   1.641   4.250   7.408
94071SOL    HW184110   1.697   4.284   7.478
94071SOL    HW284111   1.699   4.244   7.331
94072SOL     OW84112   8.116  13.856   2.001
94072SOL    HW184113   8.149  13.926   1.944
94072SOL    HW284114   8.188  13.792   2.004
94073SOL     OW84115  14.028   1.065   9.281
94073SOL    HW184116  14.037   1.026   9.193
94073SOL    HW284117  13.978   1.145   9.266
94074SOL     OW84118   9.922   2.091   9.290
94074SOL    HW184119   9.859   2.115   9.358
94074SOL    HW284120   9.969   2.173   9.272
94075SOL     OW84121   4.812   7.689   3.329
94075SOL    HW184122   4.879   7.743   3.287
94075SOL    HW284123   4.861   7.625   3.381
94076SOL     OW84124   4.556   9.146   7.210
94076SOL    HW184125   4.628   9.177   7.265
94076SOL    HW284126   4.578   9.054   7.192
94077SOL     OW84127  11.652   1.553   9.478
94077SOL    HW184128  11.565   1.592   9.485
94077SOL    HW284129  11.692   1.568   9.563
94078SOL     OW84130  13.002  12.785  10.635
94078SOL    HW184131  13.021  12.696  10.664
94078SOL    HW284132  13.016  12.839  10.712
94079SOL     OW84133   4.271  12.474  11.210
94079SOL    HW184134   4.305  12.418  11.141
94079SOL    HW284135   4.205  12.528  11.166
94080SOL     OW84136   0.548  13.978   3.914
94080SOL    HW184137   0.525  14.018   3.998
94080SOL    HW284138   0.643  13.988   3.908
94081SOL     OW84139   0.877   1.998   1.974
94081SOL    HW184140   0.900   2.081   1.934
94081SOL    HW284141   0.960   1.963   2.006
94082SOL     OW84142   7.085  13.843   7.763
94082SOL    HW184143   7.025  13.867   7.693
94082SOL    HW284144   7.032  13.845   7.843
94083SOL     OW84145  11.841   8.849   9.929
94083SOL    HW184146  11.784   8.792   9.877
94083SOL    HW284147  11.882   8.791   9.993
94084SOL     OW84148   1.834   4.817   9.417
94084SOL    HW184149   1.743   4.812   9.448
94084SOL    HW284150   1.852   4.911   9.412
94085SOL     OW84151  10.009  14.353  10.983
94085SOL    HW184152  10.069  14.287  11.019
94085SOL    HW284153  10.053  14.437  11.001
94086SOL     OW84154  13.910   8.460   6.078
94086SOL    HW184155  13.960   8.398   6.025
94086SOL    HW284156  13.859   8.511   6.015
94087SOL     OW84157  14.233   0.766  11.840
94087SOL    HW184158  14.258   0.759  11.932
94087SOL    HW284159  14.137   0.764  11.841
94088SOL     OW84160   9.563   2.036   2.577
94088SOL    HW184161   9.476   2.002   2.595
94088SOL    HW284162   9.589   2.081   2.658
94089SOL     OW84163   4.717   5.291   6.923
94089SOL    HW184164   4.709   5.386   6.931
94089SOL    HW284165   4.627   5.259   6.930
94090SOL     OW84166   4.718   3.529   2.654
94090SOL    HW184167   4.743   3.618   2.679
94090SOL    HW284168   4.738   3.524   2.561
94091SOL     OW84169  11.966   7.452   7.145
94091SOL    HW184170  11.996   7.372   7.189
94091SOL    HW284171  11.897   7.422   7.086
94092SOL     OW84172   5.637   1.937  13.617
94092SOL    HW184173   5.701   1.997  13.654
94092SOL    HW284174   5.685   1.887  13.551
94093SOL     OW84175  12.161   9.258   4.748
94093SOL    HW184176  12.200   9.318   4.811
94093SOL    HW284177  12.080   9.301   4.720
94094SOL     OW84178   0.348   2.673   2.473
94094SOL    HW184179   0.294   2.748   2.495
94094SOL    HW284180   0.407   2.662   2.548
94095SOL     OW84181   3.892  10.716   7.548
94095SOL    HW184182   3.984  10.736   7.532
94095SOL    HW284183   3.846  10.797   7.523
94096SOL     OW84184   2.172   2.939   2.699
94096SOL    HW184185   2.092   2.897   2.668
94096SOL    HW284186   2.157   2.952   2.793
94097SOL     OW84187   5.490   9.027   2.013
94097SOL    HW184188   5.454   9.071   1.936
94097SOL    HW284189   5.580   9.005   1.987
94098SOL     OW84190   7.112   8.686   2.491
94098SOL    HW184191   7.174   8.648   2.553
94098SOL    HW284192   7.026   8.671   2.531
94099SOL     OW84193  10.251   6.529   8.798
94099SOL    HW184194  10.300   6.532   8.880
94099SOL    HW284195  10.187   6.600   8.805
94100SOL     OW84196   1.405  14.567   2.630
94100SOL    HW184197   1.420  14.473   2.631
94100SOL    HW284198   1.488  14.605   2.659
94101SOL     OW84199   8.700  13.769  10.043
94101SOL    HW184200   8.684  13.814  10.126
94101SOL    HW284201   8.619  13.722  10.025
94102SOL     OW84202  12.610  12.611  14.819
94102SOL    HW184203  12.528  12.563  14.813
94102SOL    HW284204  12.585  12.703  14.819
94103SOL     OW84205   8.911   3.400   9.528
94103SOL    HW184206   8.916   3.465   9.597
94103SOL    HW284207   9.000   3.365   9.522
94104SOL     OW84208   4.786   9.650  12.426
94104SOL    HW184209   4.728   9.587  12.467
94104SOL    HW284210   4.759   9.734  12.463
94105SOL     OW84211  13.489   6.460  12.602
94105SOL    HW184212  13.562   6.521  12.593
94105SOL    HW284213  13.500   6.398  12.530
94106SOL     OW84214  13.110   9.002   0.295
94106SOL    HW184215  13.067   9.076   0.252
94106SOL    HW284216  13.183   8.980   0.237
94107SOL     OW84217   7.837   4.165   6.601
94107SOL    HW184218   7.764   4.109   6.627
94107SOL    HW284219   7.802   4.254   6.607
94108SOL     OW84220  11.657   3.263   5.019
94108SOL    HW184221  11.570   3.295   4.997
94108SOL    HW284222  11.658   3.173   4.987
94109SOL     OW84223   1.856   3.727   4.893
94109SOL    HW184224   1.912   3.786   4.842
94109SOL    HW284225   1.893   3.729   4.981
94110SOL     OW84226  12.996   1.024   0.361
94110SOL    HW184227  12.922   0.965   0.352
94110SOL    HW284228  13.046   1.013   0.280
94111SOL     OW84229  10.949   9.718   8.609
94111SOL    HW184230  10.912   9.687   8.526
94111SOL    HW284231  11.027   9.664   8.621
94112SOL     OW84232   8.608   9.270   9.311
94112SOL    HW184233   8.605   9.308   9.399
94112SOL    HW284234   8.693   9.225   9.308
94113SOL     OW84235  11.145   9.342   6.977
94113SOL    HW184236  11.050   9.351   6.965
94113SOL    HW284237  11.157   9.249   6.995
94114SOL     OW84238   2.272   2.229   8.342
94114SOL    HW184239   2.336   2.277   8.289
94114SOL    HW284240   2.216   2.185   8.277
94115SOL     OW84241   2.395  10.302   0.205
94115SOL    HW184242   2.441  10.259   0.133
94115SOL    HW284243   2.344  10.232   0.247
94116SOL     OW84244   9.435   3.757   9.763
94116SOL    HW184245   9.496   3.763   9.689
94116SOL    HW284246   9.354   3.795   9.730
94117SOL     OW84247  14.568   3.522   8.370
94117SOL    HW184248  14.549   3.492   8.280
94117SOL    HW284249  14.661   3.543   8.369
94118SOL     OW84250  14.468  14.631   0.568
94118SOL    HW184251  14.421  14.602   0.646
94118SOL    HW284252  14.491  14.723   0.587
94119SOL     OW84253  12.200  13.186  14.239
94119SOL    HW184254  12.117  13.234  14.239
94119SOL    HW284255  12.215  13.165  14.147
94120SOL     OW84256   8.999  12.559   3.203
94120SOL    HW184257   8.955  12.532   3.122
94120SOL    HW284258   9.071  12.615   3.174
94121SOL     OW84259   7.947  10.797  14.259
94121SOL    HW184260   7.950  10.875  14.315
94121SOL    HW284261   8.025  10.748  14.283
94122SOL     OW84262  12.936   2.039   0.267
94122SOL    HW184263  12.852   1.998   0.285
94122SOL    HW284264  12.983   2.036   0.350
94123SOL     OW84265  14.432   9.724   5.434
94123SOL    HW184266  14.495   9.786   5.400
94123SOL    HW284267  14.452   9.641   5.390
94124SOL     OW84268  14.059   0.675   2.457
94124SOL    HW184269  14.047   0.615   2.531
94124SOL    HW284270  13.973   0.717   2.446
94125SOL     OW84271   8.861   9.833   3.995
94125SOL    HW184272   8.802   9.797   4.061
94125SOL    HW284273   8.917   9.759   3.970
94126SOL     OW84274  10.947  10.726  14.310
94126SOL    HW184275  11.001  10.678  14.247
94126SOL    HW284276  10.918  10.659  14.372
94127SOL     OW84277   9.477   1.649  12.536
94127SOL    HW184278   9.549   1.613  12.588
94127SOL    HW284279   9.398   1.620  12.582
94128SOL     OW84280   6.048   5.972  10.551
94128SOL    HW184281   5.988   5.988  10.624
94128SOL    HW284282   6.061   6.057  10.511
94129SOL     OW84283   9.344  10.304   4.446
94129SOL    HW184284   9.257  10.266   4.438
94129SOL    HW284285   9.399  10.233   4.478
94130SOL     OW84286   8.183   1.762   6.369
94130SOL    HW184287   8.148   1.788   6.454
94130SOL    HW284288   8.181   1.666   6.370
94131SOL     OW84289   8.870  14.119   0.397
94131SOL    HW184290   8.896  14.065   0.322
94131SOL    HW284291   8.822  14.192   0.359
94132SOL     OW84292  13.606   8.479   2.240
94132SOL    HW184293  13.543   8.536   2.284
94132SOL    HW284294  13.559   8.396   2.229
94133SOL     OW84295   9.033   0.667   5.287
94133SOL    HW184296   9.042   0.618   5.369
94133SOL    HW284297   9.042   0.600   5.218
94134SOL     OW84298   3.113  14.596  12.657
94134SOL    HW184299   3.083  14.685  12.676
94134SOL    HW284300   3.184  14.581  12.721
94135SOL     OW84301   5.774   6.571  12.564
94135SOL    HW184302   5.844   6.629  12.535
94135SOL    HW284303   5.702   6.588  12.503
94136SOL     OW84304  10.220   7.120   9.829
94136SOL    HW184305  10.264   7.204   9.819
94136SOL    HW284306  10.195   7.116   9.921
94137SOL     OW84307  10.861  12.530  10.819
94137SOL    HW184308  10.859  12.490  10.732
94137SOL    HW284309  10.952  12.522  10.847
94138SOL     OW84310   5.519  14.338  13.630
94138SOL    HW184311   5.569  14.419  13.639
94138SOL    HW284312   5.441  14.363  13.580
94139SOL     OW84313  13.440   0.268  13.435
94139SOL    HW184314  13.517   0.211  13.437
94139SOL    HW284315  13.471   0.348  13.391
94140SOL     OW84316   8.981   0.645   4.440
94140SOL    HW184317   9.020   0.730   4.420
94140SOL    HW284318   9.005   0.590   4.366
94141SOL     OW84319  12.610  10.899   3.507
94141SOL    HW184320  12.694  10.919   3.465
94141SOL    HW284321  12.565  10.983   3.511
94142SOL     OW84322   5.911   6.367   9.333
94142SOL    HW184323   5.840   6.399   9.278
94142SOL    HW284324   5.904   6.271   9.328
94143SOL     OW84325  13.178  14.837   3.099
94143SOL    HW184326  13.125   0.028   3.063
94143SOL    HW284327  13.268  14.862   3.082
94144SOL     OW84328   2.337   7.336   8.201
94144SOL    HW184329   2.384   7.415   8.172
94144SOL    HW284330   2.268   7.325   8.136
94145SOL     OW84331  11.917   5.661   5.749
94145SOL    HW184332  11.877   5.747   5.739
94145SOL    HW284333  11.845   5.599   5.737
94146SOL     OW84334   1.660  12.069   6.215
94146SOL    HW184335   1.684  12.054   6.123
94146SOL    HW284336   1.591  12.006   6.232
94147SOL     OW84337   5.156  12.261   4.992
94147SOL    HW184338   5.218  12.304   4.932
94147SOL    HW284339   5.190  12.281   5.080
94148SOL     OW84340  12.579  12.387  14.060
94148SOL    HW184341  12.656  12.391  14.117
94148SOL    HW284342  12.595  12.453  13.993
94149SOL     OW84343   2.658   3.114   0.629
94149SOL    HW184344   2.704   3.189   0.590
94149SOL    HW284345   2.728   3.054   0.655
94150SOL     OW84346   4.906   1.604   8.279
94150SOL    HW184347   4.894   1.550   8.200
94150SOL    HW284348   4.875   1.691   8.253
94151SOL     OW84349   7.737   5.844  10.091
94151SOL    HW184350   7.818   5.891  10.110
94151SOL    HW284351   7.765   5.762  10.050
94152SOL     OW84352  11.800  14.336  13.818
94152SOL    HW184353  11.827  14.245  13.813
94152SOL    HW284354  11.882  14.386  13.812
94153SOL     OW84355   6.234   4.076   8.051
94153SOL    HW184356   6.326   4.080   8.076
94153SOL    HW284357   6.213   3.982   8.052
94154SOL     OW84358   5.648   4.332   9.613
94154SOL    HW184359   5.708   4.376   9.674
94154SOL    HW284360   5.693   4.335   9.529
94155SOL     OW84361   6.716  14.418  11.054
94155SOL    HW184362   6.746  14.504  11.083
94155SOL    HW284363   6.777  14.356  11.094
94156SOL     OW84364   6.989   4.764  10.186
94156SOL    HW184365   7.024   4.847  10.220
94156SOL    HW284366   7.017   4.762  10.095
94157SOL     OW84367   3.946   7.850   7.134
94157SOL    HW184368   3.991   7.890   7.209
94157SOL    HW284369   3.891   7.782   7.173
94158SOL     OW84370   3.868   5.020  12.565
94158SOL    HW184371   3.817   5.083  12.513
94158SOL    HW284372   3.954   5.061  12.574
94159SOL     OW84373   1.768   0.273   6.021
94159SOL    HW184374   1.727   0.353   5.991
94159SOL    HW284375   1.835   0.254   5.956
94160SOL     OW84376  13.335   4.275  12.272
94160SOL    HW184377  13.316   4.220  12.196
94160SOL    HW284378  13.257   4.268  12.327
94161SOL     OW84379   9.460  10.055   8.371
94161SOL    HW184380   9.505  10.130   8.410
94161SOL    HW284381   9.439  10.084   8.282
94162SOL     OW84382  11.366   3.123   1.291
94162SOL    HW184383  11.303   3.092   1.226
94162SOL    HW284384  11.359   3.060   1.363
94163SOL     OW84385   5.633  13.109   2.939
94163SOL    HW184386   5.605  13.021   2.964
94163SOL    HW284387   5.726  13.100   2.919
94164SOL     OW84388   2.718   9.263   9.764
94164SOL    HW184389   2.769   9.187   9.738
94164SOL    HW284390   2.741   9.277   9.856
94165SOL     OW84391   3.911   7.727  10.052
94165SOL    HW184392   3.922   7.645  10.003
94165SOL    HW284393   3.928   7.704  10.143
94166SOL     OW84394   4.574   6.253  12.292
94166SOL    HW184395   4.618   6.228  12.373
94166SOL    HW284396   4.635   6.230  12.223
94167SOL     OW84397  14.060  13.125   1.170
94167SOL    HW184398  14.039  13.035   1.146
94167SOL    HW284399  14.014  13.139   1.253
94168SOL     OW84400   6.504  12.952   1.778
94168SOL    HW184401   6.534  12.862   1.791
94168SOL    HW284402   6.475  12.980   1.864
94169SOL     OW84403   5.929  11.536   5.058
94169SOL    HW184404   6.002  11.562   5.002
94169SOL    HW284405   5.851  11.563   5.009
94170SOL     OW84406  14.796  12.882   0.939
94170SOL    HW184407  14.837  12.865   0.854
94170SOL    HW284408  14.868  12.875   1.002
94171SOL     OW84409   0.355  14.219   3.740
94171SOL    HW184410   0.399  14.292   3.784
94171SOL    HW284411   0.427  14.165   3.706
94172SOL     OW84412   2.986   6.110   3.200
94172SOL    HW184413   3.062   6.079   3.150
94172SOL    HW284414   2.923   6.037   3.195
94173SOL     OW84415  13.709   9.713   6.677
94173SOL    HW184416  13.679   9.796   6.640
94173SOL    HW284417  13.783   9.688   6.621
94174SOL     OW84418   6.836   5.895   9.067
94174SOL    HW184419   6.880   5.812   9.053
94174SOL    HW284420   6.772   5.878   9.136
94175SOL     OW84421   3.441   3.117   9.488
94175SOL    HW184422   3.509   3.162   9.537
94175SOL    HW284423   3.487   3.069   9.419
94176SOL     OW84424  13.245   5.445   0.957
94176SOL    HW184425  13.254   5.477   0.867
94176SOL    HW284426  13.313   5.378   0.966
94177SOL     OW84427  13.086   8.565   4.416
94177SOL    HW184428  13.137   8.484   4.423
94177SOL    HW284429  13.005   8.540   4.371
94178SOL     OW84430  11.836   2.040  14.222
94178SOL    HW184431  11.752   2.006  14.191
94178SOL    HW284432  11.901   2.002  14.164
94179SOL     OW84433  12.754   9.365   7.935
94179SOL    HW184434  12.819   9.378   8.004
94179SOL    HW284435  12.789   9.295   7.882
94180SOL     OW84436   7.093   6.597   9.671
94180SOL    HW184437   7.093   6.503   9.651
94180SOL    HW284438   7.032   6.635   9.608
94181SOL     OW84439   4.118   8.005   9.602
94181SOL    HW184440   4.146   8.044   9.685
94181SOL    HW284441   4.074   7.924   9.627
94182SOL     OW84442   7.030   0.809   1.643
94182SOL    HW184443   6.941   0.782   1.619
94182SOL    HW284444   7.048   0.883   1.585
94183SOL     OW84445   7.139   3.975  11.133
94183SOL    HW184446   7.150   4.054  11.080
94183SOL    HW284447   7.176   3.997  11.218
94184SOL     OW84448  10.900  12.709  13.975
94184SOL    HW184449  10.852  12.777  13.927
94184SOL    HW284450  10.850  12.629  13.962
94185SOL     OW84451   0.215   3.711   9.979
94185SOL    HW184452   0.236   3.717  10.072
94185SOL    HW284453   0.281   3.766   9.937
94186SOL     OW84454   7.338  11.210   6.981
94186SOL    HW184455   7.286  11.130   6.994
94186SOL    HW284456   7.421  11.191   7.026
94187SOL     OW84457   0.878   5.486   8.698
94187SOL    HW184458   0.853   5.500   8.790
94187SOL    HW284459   0.964   5.443   8.704
94188SOL     OW84460   3.016   9.729   3.592
94188SOL    HW184461   2.945   9.678   3.554
94188SOL    HW284462   2.988   9.746   3.682
94189SOL     OW84463   7.564   8.768   4.773
94189SOL    HW184464   7.595   8.771   4.864
94189SOL    HW284465   7.474   8.802   4.777
94190SOL     OW84466  14.372   8.616  12.516
94190SOL    HW184467  14.318   8.617  12.437
94190SOL    HW284468  14.454   8.574  12.489
94191SOL     OW84469  12.936   3.357   2.466
94191SOL    HW184470  12.879   3.355   2.543
94191SOL    HW284471  12.877   3.374   2.392
94192SOL     OW84472   8.127   3.894  14.014
94192SOL    HW184473   8.122   3.814  14.067
94192SOL    HW284474   8.153   3.962  14.076
94193SOL     OW84475   0.814  13.607   5.833
94193SOL    HW184476   0.740  13.666   5.822
94193SOL    HW284477   0.883  13.661   5.871
94194SOL     OW84478  14.873   0.765  10.981
94194SOL    HW184479   0.040   0.682  10.980
94194SOL    HW284480   0.018   0.806  11.064
94195SOL     OW84481   1.176  14.106   1.528
94195SOL    HW184482   1.265  14.092   1.495
94195SOL    HW284483   1.160  14.199   1.513
94196SOL     OW84484  14.531  14.594   9.454
94196SOL    HW184485  14.605  14.535   9.471
94196SOL    HW284486  14.476  14.546   9.393
94197SOL     OW84487   7.535   7.117  11.600
94197SOL    HW184488   7.546   7.212  11.596
94197SOL    HW284489   7.585   7.084  11.525
94198SOL     OW84490   5.426   1.723   4.798
94198SOL    HW184491   5.431   1.745   4.704
94198SOL    HW284492   5.339   1.684   4.809
94199SOL     OW84493   5.617  11.880   9.634
94199SOL    HW184494   5.560  11.951   9.663
94199SOL    HW284495   5.659  11.913   9.555
94200SOL     OW84496  14.376   4.755   5.573
94200SOL    HW184497  14.325   4.783   5.649
94200SOL    HW284498  14.312   4.751   5.502
94201SOL     OW84499   7.986   8.214   5.236
94201SOL    HW184500   7.932   8.210   5.157
94201SOL    HW284501   7.923   8.218   5.308
94202SOL     OW84502   2.543  10.861   1.834
94202SOL    HW184503   2.580  10.893   1.751
94202SOL    HW284504   2.533  10.767   1.821
94203SOL     OW84505  13.961   1.309   4.326
94203SOL    HW184506  14.000   1.393   4.301
94203SOL    HW284507  13.973   1.305   4.421
94204SOL     OW84508  11.512  11.653   5.344
94204SOL    HW184509  11.548  11.733   5.306
94204SOL    HW284510  11.514  11.589   5.273
94205SOL     OW84511   1.680   6.371  10.963
94205SOL    HW184512   1.685   6.280  10.990
94205SOL    HW284513   1.749   6.380  10.897
94206SOL     OW84514   9.977   7.080   5.636
94206SOL    HW184515  10.015   7.162   5.667
94206SOL    HW284516  10.005   7.073   5.545
94207SOL     OW84517   4.801  14.271   1.330
94207SOL    HW184518   4.817  14.268   1.236
94207SOL    HW284519   4.708  14.250   1.339
94208SOL     OW84520  10.618   7.410   6.528
94208SOL    HW184521  10.538   7.459   6.509
94208SOL    HW284522  10.603   7.323   6.492
94209SOL     OW84523   6.157   3.204   5.805
94209SOL    HW184524   6.194   3.122   5.837
94209SOL    HW284525   6.230   3.246   5.760
94210SOL     OW84526   7.441   0.704   4.700
94210SOL    HW184527   7.420   0.625   4.750
94210SOL    HW284528   7.528   0.729   4.731
94211SOL     OW84529  14.336   8.286   8.085
94211SOL    HW184530  14.374   8.204   8.114
94211SOL    HW284531  14.242   8.277   8.102
94212SOL     OW84532   9.623  10.847   5.467
94212SOL    HW184533   9.547  10.795   5.443
94212SOL    HW284534   9.673  10.856   5.385
94213SOL     OW84535   1.752  14.631   2.110
94213SOL    HW184536   1.831  14.588   2.142
94213SOL    HW284537   1.750  14.611   2.016
94214SOL     OW84538  14.089   5.781  10.070
94214SOL    HW184539  14.121   5.727   9.999
94214SOL    HW284540  14.112   5.871  10.045
94215SOL     OW84541   8.144   6.819   5.254
94215SOL    HW184542   8.056   6.802   5.222
94215SOL    HW284543   8.160   6.912   5.233
94216SOL     OW84544   0.734  14.509   4.583
94216SOL    HW184545   0.800  14.577   4.597
94216SOL    HW284546   0.783  14.427   4.580
94217SOL     OW84547   8.413   6.397   0.954
94217SOL    HW184548   8.426   6.454   0.879
94217SOL    HW284549   8.321   6.408   0.978
94218SOL     OW84550   9.472   2.181   9.252
94218SOL    HW184551   9.460   2.187   9.158
94218SOL    HW284552   9.515   2.097   9.266
94219SOL     OW84553   0.502   3.177   7.943
94219SOL    HW184554   0.585   3.146   7.905
94219SOL    HW284555   0.506   3.149   8.034
94220SOL     OW84556   3.784   0.925  10.641
94220SOL    HW184557   3.740   1.009  10.631
94220SOL    HW284558   3.871   0.947  10.673
94221SOL     OW84559   1.752  13.569   9.341
94221SOL    HW184560   1.721  13.486   9.305
94221SOL    HW284561   1.688  13.592   9.408
94222SOL     OW84562   4.704   8.446  10.561
94222SOL    HW184563   4.788   8.489  10.544
94222SOL    HW284564   4.723   8.384  10.631
94223SOL     OW84565  12.554   2.156   2.013
94223SOL    HW184566  12.644   2.130   2.031
94223SOL    HW284567  12.561   2.220   1.942
94224SOL     OW84568   7.945   7.833   0.874
94224SOL    HW184569   7.942   7.795   0.787
94224SOL    HW284570   8.031   7.874   0.879
94225SOL     OW84571  11.293  11.923   7.139
94225SOL    HW184572  11.335  12.000   7.101
94225SOL    HW284573  11.203  11.926   7.107
94226SOL     OW84574   9.347   2.380   9.569
94226SOL    HW184575   9.282   2.313   9.591
94226SOL    HW284576   9.368   2.421   9.653
94227SOL     OW84577   0.648  12.936   6.893
94227SOL    HW184578   0.633  12.873   6.963
94227SOL    HW284579   0.720  12.899   6.841
94228SOL     OW84580  11.511  10.134  13.627
94228SOL    HW184581  11.533  10.057  13.679
94228SOL    HW284582  11.438  10.174  13.674
94229SOL     OW84583   7.193   5.349   2.223
94229SOL    HW184584   7.115   5.330   2.172
94229SOL    HW284585   7.168   5.422   2.279
94230SOL     OW84586   2.520  12.446   4.312
94230SOL    HW184587   2.455  12.376   4.321
94230SOL    HW284588   2.581  12.414   4.246
94231SOL     OW84589   9.700  10.564   0.433
94231SOL    HW184590   9.671  10.497   0.370
94231SOL    HW284591   9.619  10.598   0.470
94232SOL     OW84592   8.122   6.370  12.147
94232SOL    HW184593   8.145   6.361  12.239
94232SOL    HW284594   8.206   6.380  12.102
94233SOL     OW84595  11.265  12.266   5.173
94233SOL    HW184596  11.329  12.195   5.176
94233SOL    HW284597  11.196  12.239   5.233
94234SOL     OW84598  14.071   4.068   9.178
94234SOL    HW184599  13.983   4.101   9.159
94234SOL    HW284600  14.063   3.973   9.169
94235SOL     OW84601   1.610  10.613   1.741
94235SOL    HW184602   1.538  10.631   1.680
94235SOL    HW284603   1.623  10.518   1.736
94236SOL     OW84604   8.436  11.606   7.731
94236SOL    HW184605   8.388  11.640   7.807
94236SOL    HW284606   8.471  11.684   7.688
94237SOL     OW84607   0.269   1.981   2.528
94237SOL    HW184608   0.212   1.933   2.589
94237SOL    HW284609   0.248   2.073   2.543
94238SOL     OW84610   5.730   7.171   7.731
94238SOL    HW184611   5.766   7.086   7.758
94238SOL    HW284612   5.661   7.189   7.795
94239SOL     OW84613  13.797  13.998   2.298
94239SOL    HW184614  13.851  14.035   2.228
94239SOL    HW284615  13.854  13.933   2.340
94240SOL     OW84616  13.301   4.357   0.554
94240SOL    HW184617  13.372   4.307   0.595
94240SOL    HW284618  13.226   4.344   0.612
94241SOL     OW84619   2.195   6.549   0.085
94241SOL    HW184620   2.212   6.484   0.154
94241SOL    HW284621   2.202   6.500   0.003
94242SOL     OW84622  12.904   4.216   7.775
94242SOL    HW184623  12.899   4.146   7.710
94242SOL    HW284624  12.878   4.175   7.857
94243SOL     OW84625  13.412   8.480   5.819
94243SOL    HW184626  13.438   8.432   5.897
94243SOL    HW284627  13.454   8.434   5.746
94244SOL     OW84628   3.054   4.770   6.800
94244SOL    HW184629   3.055   4.852   6.752
94244SOL    HW284630   3.039   4.796   6.891
94245SOL     OW84631   1.687  14.574   1.803
94245SOL    HW184632   1.720  14.493   1.766
94245SOL    HW284633   1.713  14.642   1.740
94246SOL     OW84634   2.050  13.756  13.984
94246SOL    HW184635   2.101  13.705  13.922
94246SOL    HW284636   2.090  13.843  13.983
94247SOL     OW84637  12.354   0.090   7.593
94247SOL    HW184638  12.437   0.116   7.553
94247SOL    HW284639  12.312   0.034   7.528
94248SOL     OW84640   7.883   3.100  14.302
94248SOL    HW184641   7.796   3.134  14.323
94248SOL    HW284642   7.910   3.147  14.224
94249SOL     OW84643  14.829   6.713   0.086
94249SOL    HW184644  14.743   6.732   0.049
94249SOL    HW284645  14.851   6.791   0.138
94250SOL     OW84646   7.188   5.176   8.847
94250SOL    HW184647   7.094   5.180   8.830
94250SOL    HW284648   7.224   5.253   8.803
94251SOL     OW84649   4.129   1.578   5.121
94251SOL    HW184650   4.080   1.568   5.040
94251SOL    HW284651   4.075   1.635   5.175
94252SOL     OW84652   1.342  14.763  11.783
94252SOL    HW184653   1.321  14.845  11.828
94252SOL    HW284654   1.281  14.699  11.818
94253SOL     OW84655   4.217   1.138   1.220
94253SOL    HW184656   4.219   1.054   1.175
94253SOL    HW284657   4.306   1.173   1.212
94254SOL     OW84658   7.484  12.096   1.737
94254SOL    HW184659   7.397  12.132   1.753
94254SOL    HW284660   7.537  12.127   1.811
94255SOL     OW84661   8.785   6.816   6.400
94255SOL    HW184662   8.868   6.863   6.387
94255SOL    HW284663   8.729   6.879   6.444
94256SOL     OW84664   2.290  10.430   8.243
94256SOL    HW184665   2.310  10.524   8.238
94256SOL    HW284666   2.222  10.417   8.177
94257SOL     OW84667  13.489  12.112   4.004
94257SOL    HW184668  13.537  12.182   4.048
94257SOL    HW284669  13.449  12.155   3.928
94258SOL     OW84670   5.337  13.072   6.430
94258SOL    HW184671   5.279  12.995   6.432
94258SOL    HW284672   5.283  13.144   6.461
94259SOL     OW84673  14.777   8.924  11.551
94259SOL    HW184674  14.726   8.924  11.632
94259SOL    HW284675  14.790   8.832  11.530
94260SOL     OW84676   2.242   9.800  14.681
94260SOL    HW184677   2.154   9.815  14.717
94260SOL    HW284678   2.279   9.888  14.672
94261SOL     OW84679   5.936   2.079   0.993
94261SOL    HW184680   5.867   2.028   0.950
94261SOL    HW284681   6.012   2.022   0.991
94262SOL     OW84682   2.030   5.744   9.968
94262SOL    HW184683   2.118   5.749   9.931
94262SOL    HW284684   2.016   5.651   9.984
94263SOL     OW84685   1.228   8.533  13.797
94263SOL    HW184686   1.308   8.487  13.775
94263SOL    HW284687   1.247   8.576  13.881
94264SOL     OW84688  14.306   8.578  14.398
94264SOL    HW184689  14.240   8.532  14.346
94264SOL    HW284690  14.385   8.574  14.344
94265SOL     OW84691  10.643  11.796  10.891
94265SOL    HW184692  10.591  11.865  10.850
94265SOL    HW284693  10.666  11.830  10.977
94266SOL     OW84694   3.817   0.531  11.734
94266SOL    HW184695   3.893   0.489  11.694
94266SOL    HW284696   3.852   0.611  11.774
94267SOL     OW84697  10.422   1.575  13.653
94267SOL    HW184698  10.450   1.666  13.654
94267SOL    HW284699  10.369   1.565  13.732
94268SOL     OW84700  14.659   1.193   9.049
94268SOL    HW184701  14.612   1.237   9.120
94268SOL    HW284702  14.730   1.253   9.027
94269SOL     OW84703  12.800   4.826   6.222
94269SOL    HW184704  12.807   4.785   6.136
94269SOL    HW284705  12.719   4.878   6.216
94270SOL     OW84706   5.742   4.547   2.481
94270SOL    HW184707   5.823   4.540   2.532
94270SOL    HW284708   5.677   4.578   2.544
94271SOL     OW84709   4.171  14.373   6.951
94271SOL    HW184710   4.111  14.331   7.013
94271SOL    HW284711   4.160  14.324   6.870
94272SOL     OW84712   0.232  10.721   4.804
94272SOL    HW184713   0.151  10.710   4.754
94272SOL    HW284714   0.205  10.767   4.884
94273SOL     OW84715   9.223   9.255   6.375
94273SOL    HW184716   9.258   9.170   6.347
94273SOL    HW284717   9.145   9.267   6.321
94274SOL     OW84718   7.180   1.310   1.054
94274SOL    HW184719   7.114   1.262   1.105
94274SOL    HW284720   7.264   1.280   1.089
94275SOL     OW84721   2.998   3.574   3.825
94275SOL    HW184722   2.924   3.591   3.767
94275SOL    HW284723   2.968   3.601   3.912
94276SOL     OW84724   8.074   6.790   3.175
94276SOL    HW184725   8.105   6.706   3.143
94276SOL    HW284726   8.053   6.775   3.267
94277SOL     OW84727   2.895   2.583   1.389
94277SOL    HW184728   2.849   2.508   1.352
94277SOL    HW284729   2.984   2.551   1.407
94278SOL     OW84730  13.418   6.043   1.541
94278SOL    HW184731  13.512   6.043   1.527
94278SOL    HW284732  13.385   5.971   1.487
94279SOL     OW84733   4.058  12.089   6.964
94279SOL    HW184734   4.011  12.140   7.030
94279SOL    HW284735   4.149  12.088   6.994
94280SOL     OW84736   3.490   4.420   1.561
94280SOL    HW184737   3.529   4.378   1.638
94280SOL    HW284738   3.525   4.509   1.561
94281SOL     OW84739  10.591   1.773  14.831
94281SOL    HW184740  10.643   1.853  14.838
94281SOL    HW284741  10.502   1.804  14.818
94282SOL     OW84742   5.034   3.960   8.740
94282SOL    HW184743   4.977   3.978   8.815
94282SOL    HW284744   5.112   4.013   8.757
94283SOL     OW84745  12.267   5.574   2.171
94283SOL    HW184746  12.221   5.549   2.091
94283SOL    HW284747  12.222   5.525   2.240
94284SOL     OW84748  11.035   1.512   2.681
94284SOL    HW184749  11.024   1.518   2.775
94284SOL    HW284750  11.097   1.440   2.669
94285SOL     OW84751  11.225   3.290   8.702
94285SOL    HW184752  11.258   3.361   8.647
94285SOL    HW284753  11.167   3.333   8.764
94286SOL     OW84754   7.857   8.422   4.258
94286SOL    HW184755   7.873   8.463   4.343
94286SOL    HW284756   7.769   8.451   4.233
94287SOL     OW84757  11.785  12.915   4.246
94287SOL    HW184758  11.819  12.899   4.334
94287SOL    HW284759  11.863  12.922   4.191
94288SOL     OW84760   9.100   0.260   9.076
94288SOL    HW184761   9.048   0.185   9.048
94288SOL    HW284762   9.188   0.240   9.044
94289SOL     OW84763   0.286  12.262   6.340
94289SOL    HW184764   0.327  12.299   6.418
94289SOL    HW284765   0.201  12.306   6.335
94290SOL     OW84766   0.009   0.480   2.655
94290SOL    HW184767  14.870   0.411   2.719
94290SOL    HW284768  14.806   0.494   2.609
94291SOL     OW84769   1.767   5.633   7.399
94291SOL    HW184770   1.726   5.653   7.314
94291SOL    HW284771   1.730   5.548   7.424
94292SOL     OW84772   9.641   6.546   7.393
94292SOL    HW184773   9.603   6.491   7.461
94292SOL    HW284774   9.580   6.620   7.385
94293SOL     OW84775  13.426   7.875   8.127
94293SOL    HW184776  13.332   7.857   8.121
94293SOL    HW284777  13.431   7.967   8.152
94294SOL     OW84778   2.528  14.000   5.529
94294SOL    HW184779   2.452  14.028   5.580
94294SOL    HW284780   2.491  13.976   5.444
94295SOL     OW84781   5.297   5.166   9.484
94295SOL    HW184782   5.293   5.071   9.472
94295SOL    HW284783   5.390   5.187   9.473
94296SOL     OW84784   0.414   1.746  14.749
94296SOL    HW184785   0.343   1.790  14.797
94296SOL    HW284786   0.373   1.717  14.667
94297SOL     OW84787   1.319   6.836   2.988
94297SOL    HW184788   1.280   6.749   2.998
94297SOL    HW284789   1.299   6.861   2.897
94298SOL     OW84790   5.045   0.125   8.534
94298SOL    HW184791   4.979   0.180   8.493
94298SOL    HW284792   5.033   0.039   8.494
94299SOL     OW84793  10.772   1.045   1.969
94299SOL    HW184794  10.862   1.025   1.997
94299SOL    HW284795  10.718   0.989   2.025
94300SOL     OW84796   7.264  14.757  11.341
94300SOL    HW184797   7.296  14.797  11.261
94300SOL    HW284798   7.333  14.695  11.366
94301SOL     OW84799  10.722   4.790   7.123
94301SOL    HW184800  10.737   4.747   7.039
94301SOL    HW284801  10.788   4.860   7.126
94302SOL     OW84802   1.298  14.494  13.509
94302SOL    HW184803   1.331  14.460  13.592
94302SOL    HW284804   1.343  14.442  13.442
94303SOL     OW84805   2.874  14.086   5.350
94303SOL    HW184806   2.946  14.146   5.367
94303SOL    HW284807   2.841  14.112   5.265
94304SOL     OW84808   4.181  10.171   1.431
94304SOL    HW184809   4.114  10.215   1.482
94304SOL    HW284810   4.183  10.218   1.348
94305SOL     OW84811  11.168   2.677   8.341
94305SOL    HW184812  11.206   2.749   8.291
94305SOL    HW284813  11.241   2.644   8.395
94306SOL     OW84814   6.525  10.007   9.888
94306SOL    HW184815   6.577   9.995   9.808
94306SOL    HW284816   6.589  10.002   9.959
94307SOL     OW84817  14.596  10.827   2.869
94307SOL    HW184818  14.622  10.913   2.901
94307SOL    HW284819  14.628  10.765   2.935
94308SOL     OW84820  14.378  12.851   5.179
94308SOL    HW184821  14.412  12.871   5.266
94308SOL    HW284822  14.283  12.844   5.191
94309SOL     OW84823   1.779  12.175   1.639
94309SOL    HW184824   1.835  12.174   1.562
94309SOL    HW284825   1.836  12.203   1.710
94310SOL     OW84826   2.196  10.498   6.474
94310SOL    HW184827   2.180  10.556   6.399
94310SOL    HW284828   2.171  10.411   6.443
94311SOL     OW84829  10.643  14.327  13.885
94311SOL    HW184830  10.728  14.368  13.900
94311SOL    HW284831  10.629  14.336  13.790
94312SOL     OW84832   1.218   1.872  11.548
94312SOL    HW184833   1.159   1.923  11.604
94312SOL    HW284834   1.192   1.895  11.458
94313SOL     OW84835   1.044   6.055   4.644
94313SOL    HW184836   0.965   6.096   4.678
94313SOL    HW284837   1.019   6.019   4.560
94314SOL     OW84838   1.354   4.788  14.464
94314SOL    HW184839   1.331   4.856  14.401
94314SOL    HW284840   1.363   4.708  14.411
94315SOL     OW84841  12.559   0.009  10.504
94315SOL    HW184842  12.495  14.822  10.482
94315SOL    HW284843  12.557   0.015  10.599
94316SOL     OW84844  11.991  13.903   4.144
94316SOL    HW184845  11.999  13.814   4.108
94316SOL    HW284846  12.060  13.953   4.100
94317SOL     OW84847  10.657   2.224   1.580
94317SOL    HW184848  10.564   2.242   1.594
94317SOL    HW284849  10.659   2.135   1.545
94318SOL     OW84850   3.447   4.745   9.293
94318SOL    HW184851   3.491   4.721   9.211
94318SOL    HW284852   3.484   4.831   9.315
94319SOL     OW84853   6.181   3.052   4.503
94319SOL    HW184854   6.210   3.137   4.537
94319SOL    HW284855   6.099   3.035   4.548
94320SOL     OW84856   4.290  10.922  11.283
94320SOL    HW184857   4.245  10.840  11.302
94320SOL    HW284858   4.286  10.971  11.364
94321SOL     OW84859   2.479   9.414   3.489
94321SOL    HW184860   2.491   9.463   3.570
94321SOL    HW284861   2.492   9.322   3.514
94322SOL     OW84862   0.916   4.779  12.617
94322SOL    HW184863   0.896   4.872  12.623
94322SOL    HW284864   0.950   4.767  12.528
94323SOL     OW84865   8.566   7.527   2.237
94323SOL    HW184866   8.487   7.517   2.290
94323SOL    HW284867   8.626   7.578   2.292
94324SOL     OW84868  14.184   7.534  14.234
94324SOL    HW184869  14.272   7.499  14.223
94324SOL    HW284870  14.169   7.587  14.156
94325SOL     OW84871  13.986   6.463   7.048
94325SOL    HW184872  13.912   6.413   7.082
94325SOL    HW284873  13.975   6.551   7.085
94326SOL     OW84874   2.202  13.655  13.127
94326SOL    HW184875   2.224  13.589  13.061
94326SOL    HW284876   2.266  13.725  13.114
94327SOL     OW84877   1.006   2.493   1.943
94327SOL    HW184878   1.048   2.559   1.998
94327SOL    HW284879   1.070   2.474   1.874
94328SOL     OW84880   1.559   0.792   9.575
94328SOL    HW184881   1.600   0.879   9.575
94328SOL    HW284882   1.629   0.733   9.546
94329SOL     OW84883   9.089   3.536   0.202
94329SOL    HW184884   9.126   3.618   0.169
94329SOL    HW284885   9.085   3.479   0.125
94330SOL     OW84886   2.937  11.085   6.347
94330SOL    HW184887   2.920  11.133   6.429
94330SOL    HW284888   2.850  11.059   6.317
94331SOL     OW84889   5.270   8.583   6.185
94331SOL    HW184890   5.267   8.519   6.114
94331SOL    HW284891   5.357   8.623   6.177
94332SOL     OW84892   2.272  12.343   6.919
94332SOL    HW184893   2.198  12.358   6.977
94332SOL    HW284894   2.275  12.421   6.863
94333SOL     OW84895  12.396   3.051   2.407
94333SOL    HW184896  12.480   3.063   2.362
94333SOL    HW284897  12.402   3.108   2.484
94334SOL     OW84898  11.775   0.526   4.571
94334SOL    HW184899  11.769   0.465   4.498
94334SOL    HW284900  11.695   0.510   4.622
94335SOL     OW84901   3.059  10.209   0.361
94335SOL    HW184902   3.049  10.274   0.431
94335SOL    HW284903   3.005  10.135   0.390
94336SOL     OW84904   8.366   3.849   5.534
94336SOL    HW184905   8.342   3.827   5.444
94336SOL    HW284906   8.445   3.798   5.551
94337SOL     OW84907   9.548   5.927   8.344
94337SOL    HW184908   9.573   5.929   8.436
94337SOL    HW284909   9.494   6.005   8.332
94338SOL     OW84910   9.146  11.747  10.928
94338SOL    HW184911   9.218  11.695  10.893
94338SOL    HW284912   9.182  11.836  10.932
94339SOL     OW84913  11.872  14.633  10.071
94339SOL    HW184914  11.850  14.724  10.051
94339SOL    HW284915  11.800  14.583  10.031
94340SOL     OW84916   7.625  14.023   3.034
94340SOL    HW184917   7.711  14.060   3.052
94340SOL    HW284918   7.621  14.018   2.938
94341SOL     OW84919  12.521   0.661  12.364
94341SOL    HW184920  12.587   0.637  12.298
94341SOL    HW284921  12.560   0.734  12.412
94342SOL     OW84922  14.464   4.888   2.606
94342SOL    HW184923  14.455   4.943   2.529
94342SOL    HW284924  14.482   4.800   2.572
94343SOL     OW84925   2.627   0.470   7.976
94343SOL    HW184926   2.637   0.533   8.047
94343SOL    HW284927   2.680   0.506   7.905
94344SOL     OW84928   2.907   2.795   5.950
94344SOL    HW184929   2.865   2.834   5.874
94344SOL    HW284930   2.836   2.757   6.001
94345SOL     OW84931   4.762   8.867   9.656
94345SOL    HW184932   4.856   8.866   9.640
94345SOL    HW284933   4.742   8.960   9.669
94346SOL     OW84934   3.757   1.104   8.860
94346SOL    HW184935   3.729   1.179   8.911
94346SOL    HW284936   3.691   1.095   8.792
94347SOL     OW84937   9.708  11.837   9.503
94347SOL    HW184938   9.667  11.913   9.543
94347SOL    HW284939   9.701  11.768   9.568
94348SOL     OW84940   8.444   2.576  12.299
94348SOL    HW184941   8.374   2.629  12.336
94348SOL    HW284942   8.524   2.625  12.318
94349SOL     OW84943  14.059   1.333   6.725
94349SOL    HW184944  14.016   1.269   6.668
94349SOL    HW284945  14.029   1.311   6.813
94350SOL     OW84946   7.021   5.787   5.995
94350SOL    HW184947   7.101   5.762   6.042
94350SOL    HW284948   7.015   5.882   6.006
94351SOL     OW84949   5.809   5.787   3.179
94351SOL    HW184950   5.862   5.867   3.181
94351SOL    HW284951   5.720   5.817   3.198
94352SOL     OW84952  14.309   3.781   0.013
94352SOL    HW184953  14.241   3.755   0.075
94352SOL    HW284954  14.348   3.699  14.864
94353SOL     OW84955   5.400   7.246   4.548
94353SOL    HW184956   5.320   7.244   4.601
94353SOL    HW284957   5.448   7.168   4.574
94354SOL     OW84958   4.302   3.500   0.884
94354SOL    HW184959   4.374   3.506   0.822
94354SOL    HW284960   4.297   3.407   0.907
94355SOL     OW84961   0.843   0.690   8.436
94355SOL    HW184962   0.778   0.686   8.507
94355SOL    HW284963   0.809   0.628   8.371
94356SOL     OW84964   2.804   3.456  14.779
94356SOL    HW184965   2.735   3.424  14.837
94356SOL    HW284966   2.824   3.382  14.722
94357SOL     OW84967  13.727  12.746   8.448
94357SOL    HW184968  13.746  12.704   8.533
94357SOL    HW284969  13.634  12.731   8.434
94358SOL     OW84970   4.857  13.068   5.546
94358SOL    HW184971   4.763  13.087   5.542
94358SOL    HW284972   4.862  12.974   5.565
94359SOL     OW84973  14.669  10.167   2.073
94359SOL    HW184974  14.760  10.191   2.090
94359SOL    HW284975  14.640  10.126   2.155
94360SOL     OW84976   1.138   1.433   2.606
94360SOL    HW184977   1.096   1.500   2.660
94360SOL    HW284978   1.076   1.359   2.608
94361SOL     OW84979  10.548   7.588   4.554
94361SOL    HW184980  10.508   7.524   4.495
94361SOL    HW284981  10.585   7.655   4.497
94362SOL     OW84982   6.435   7.801  10.578
94362SOL    HW184983   6.403   7.880  10.620
94362SOL    HW284984   6.515   7.829  10.532
94363SOL     OW84985   1.527   0.552  11.166
94363SOL    HW184986   1.601   0.518  11.215
94363SOL    HW284987   1.563   0.576  11.080
94364SOL     OW84988   9.058   7.735  11.780
94364SOL    HW184989   9.035   7.672  11.848
94364SOL    HW284990   9.060   7.683  11.700
94365SOL     OW84991   4.389  11.930  12.666
94365SOL    HW184992   4.396  11.966  12.577
94365SOL    HW284993   4.456  11.862  12.669
94366SOL     OW84994   7.896  12.341   7.407
94366SOL    HW184995   7.990  12.360   7.406
94366SOL    HW284996   7.857  12.410   7.354
94367SOL     OW84997  11.078   4.012   7.562
94367SOL    HW184998  11.036   3.976   7.484
94367SOL    HW284999  11.095   4.104   7.540
94368SOL     OW85000  12.910   1.168   1.489
94368SOL    HW185001  12.904   1.225   1.566
94368SOL    HW285002  12.819   1.153   1.464
94369SOL     OW85003  14.697   1.063   0.738
94369SOL    HW185004  14.791   1.054   0.751
94369SOL    HW285005  14.682   1.158   0.738
94370SOL     OW85006   4.800  12.833   7.766
94370SOL    HW185007   4.755  12.803   7.845
94370SOL    HW285008   4.877  12.878   7.799
94371SOL     OW85009   4.473   3.377  10.485
94371SOL    HW185010   4.402   3.398  10.425
94371SOL    HW285011   4.432   3.318  10.549
94372SOL     OW85012   2.978   8.739   3.305
94372SOL    HW185013   2.909   8.677   3.325
94372SOL    HW285014   3.034   8.739   3.383
94373SOL     OW85015   0.707   8.904  13.185
94373SOL    HW185016   0.791   8.856  13.183
94373SOL    HW285017   0.697   8.931  13.276
94374SOL     OW85018   9.377   7.000   6.669
94374SOL    HW185019   9.364   6.924   6.725
94374SOL    HW285020   9.453   7.045   6.706
94375SOL     OW85021   2.646  13.515   0.274
94375SOL    HW185022   2.671  13.534   0.364
94375SOL    HW285023   2.570  13.457   0.282
94376SOL     OW85024   8.326  10.500  11.759
94376SOL    HW185025   8.282  10.416  11.755
94376SOL    HW285026   8.373  10.500  11.842
94377SOL     OW85027  13.945  12.151   1.135
94377SOL    HW185028  14.037  12.176   1.132
94377SOL    HW285029  13.940  12.089   1.208
94378SOL     OW85030   7.810  11.698  10.951
94378SOL    HW185031   7.763  11.762  11.005
94378SOL    HW285032   7.750  11.678  10.880
94379SOL     OW85033   2.525   2.294  10.525
94379SOL    HW185034   2.535   2.230  10.596
94379SOL    HW285035   2.547   2.246  10.446
94380SOL     OW85036   2.307  12.549  14.152
94380SOL    HW185037   2.299  12.560  14.247
94380SOL    HW285038   2.402  12.544  14.137
94381SOL     OW85039  13.576   8.262   6.606
94381SOL    HW185040  13.495   8.220   6.634
94381SOL    HW285041  13.628   8.190   6.570
94382SOL     OW85042  13.803  10.836  12.432
94382SOL    HW185043  13.886  10.838  12.384
94382SOL    HW285044  13.826  10.800  12.517
94383SOL     OW85045  11.447   6.735   5.144
94383SOL    HW185046  11.446   6.655   5.196
94383SOL    HW285047  11.387   6.718   5.072
94384SOL     OW85048   7.162   1.451   1.802
94384SOL    HW185049   7.249   1.480   1.772
94384SOL    HW285050   7.108   1.455   1.723
94385SOL     OW85051  13.258  12.429   6.676
94385SOL    HW185052  13.230  12.515   6.644
94385SOL    HW285053  13.322  12.399   6.612
94386SOL     OW85054  12.015   6.392  14.755
94386SOL    HW185055  11.922   6.386  14.776
94386SOL    HW285056  12.049   6.461  14.811
94387SOL     OW85057   7.767   1.095   7.603
94387SOL    HW185058   7.742   1.072   7.692
94387SOL    HW285059   7.834   1.031   7.579
94388SOL     OW85060   2.345  11.049  14.147
94388SOL    HW185061   2.420  11.100  14.176
94388SOL    HW285062   2.269  11.101  14.172
94389SOL     OW85063   7.500  14.419   4.452
94389SOL    HW185064   7.463  14.437   4.366
94389SOL    HW285065   7.583  14.376   4.434
94390SOL     OW85066   0.788  11.839  12.449
94390SOL    HW185067   0.831  11.758  12.421
94390SOL    HW285068   0.858  11.905  12.448
94391SOL     OW85069   5.638  12.480  11.463
94391SOL    HW185070   5.667  12.438  11.543
94391SOL    HW285071   5.702  12.453  11.397
94392SOL     OW85072   3.328  12.397  14.264
94392SOL    HW185073   3.324  12.489  14.292
94392SOL    HW285074   3.250  12.357  14.303
94393SOL     OW85075   0.956   5.462   2.945
94393SOL    HW185076   1.035   5.516   2.936
94393SOL    HW285077   0.884   5.521   2.920
94394SOL     OW85078  14.608   7.073   4.422
94394SOL    HW185079  14.538   7.100   4.481
94394SOL    HW285080  14.617   7.146   4.360
94395SOL     OW85081   8.567  13.703   2.679
94395SOL    HW185082   8.526  13.657   2.753
94395SOL    HW285083   8.598  13.786   2.716
94396SOL     OW85084   8.044   6.729   7.510
94396SOL    HW185085   7.950   6.724   7.497
94396SOL    HW285086   8.059   6.817   7.545
94397SOL     OW85087  13.954  10.186   8.607
94397SOL    HW185088  13.881  10.135   8.642
94397SOL    HW285089  14.032  10.134   8.627
94398SOL     OW85090   0.036   5.369  12.076
94398SOL    HW185091   0.020   5.295  12.135
94398SOL    HW285092   0.099   5.335  12.012
94399SOL     OW85093   2.050   3.761   0.311
94399SOL    HW185094   2.146   3.754   0.311
94399SOL    HW285095   2.020   3.672   0.329
94400SOL     OW85096   3.785   1.532  13.900
94400SOL    HW185097   3.740   1.448  13.896
94400SOL    HW285098   3.804   1.553  13.808
94401SOL     OW85099  12.579  12.711   9.205
94401SOL    HW185100  12.548  12.719   9.295
94401SOL    HW285101  12.635  12.787   9.191
94402SOL     OW85102   3.435   2.510   3.921
94402SOL    HW185103   3.479   2.442   3.971
94402SOL    HW285104   3.478   2.592   3.948
94403SOL     OW85105   6.652   5.628   4.620
94403SOL    HW185106   6.589   5.668   4.679
94403SOL    HW285107   6.697   5.562   4.672
94404SOL     OW85108   8.842   0.788   8.483
94404SOL    HW185109   8.778   0.732   8.528
94404SOL    HW285110   8.909   0.727   8.451
94405SOL     OW85111   3.066  14.175   2.380
94405SOL    HW185112   3.100  14.108   2.322
94405SOL    HW285113   3.110  14.159   2.464
94406SOL     OW85114   7.765   2.700   8.167
94406SOL    HW185115   7.715   2.782   8.167
94406SOL    HW285116   7.799   2.694   8.077
94407SOL     OW85117  10.875  14.324   9.447
94407SOL    HW185118  10.876  14.419   9.439
94407SOL    HW285119  10.782  14.301   9.440
94408SOL     OW85120  14.658   1.137   3.679
94408SOL    HW185121  14.705   1.055   3.664
94408SOL    HW285122  14.726   1.205   3.672
94409SOL     OW85123  11.492  12.847  14.164
94409SOL    HW185124  11.520  12.789  14.093
94409SOL    HW285125  11.573  12.880  14.202
94410SOL     OW85126  11.019  12.132   7.092
94410SOL    HW185127  10.925  12.138   7.104
94410SOL    HW285128  11.056  12.176   7.169
94411SOL     OW85129   3.436   5.974   6.334
94411SOL    HW185130   3.371   6.023   6.284
94411SOL    HW285131   3.519   6.020   6.317
94412SOL     OW85132   3.681  13.457  12.966
94412SOL    HW185133   3.731  13.385  13.004
94412SOL    HW285134   3.599  13.417  12.938
94413SOL     OW85135   1.355   1.106   1.487
94413SOL    HW185136   1.387   1.195   1.499
94413SOL    HW285137   1.275   1.103   1.539
94414SOL     OW85138   0.219   3.902  11.016
94414SOL    HW185139   0.229   3.957  10.938
94414SOL    HW285140   0.171   3.957  11.078
94415SOL     OW85141  12.223   0.669   7.961
94415SOL    HW185142  12.214   0.747   7.906
94415SOL    HW285143  12.284   0.614   7.913
94416SOL     OW85144   2.738   9.459   2.666
94416SOL    HW185145   2.657   9.458   2.615
94416SOL    HW285146   2.786   9.534   2.633
94417SOL     OW85147  10.000   8.188  14.875
94417SOL    HW185148   9.912   8.225   0.004
94417SOL    HW285149   9.987   8.093  14.873
94418SOL     OW85150   0.866   0.540   7.464
94418SOL    HW185151   0.955   0.539   7.429
94418SOL    HW285152   0.832   0.452   7.448
94419SOL     OW85153  11.803   7.371  10.059
94419SOL    HW185154  11.732   7.358   9.997
94419SOL    HW285155  11.768   7.340  10.143
94420SOL     OW85156   4.858   7.730   0.518
94420SOL    HW185157   4.830   7.770   0.436
94420SOL    HW285158   4.816   7.783   0.586
94421SOL     OW85159  14.503   9.604   4.967
94421SOL    HW185160  14.459   9.520   4.974
94421SOL    HW285161  14.595   9.582   4.956
94422SOL     OW85162  13.957  14.264  14.468
94422SOL    HW185163  13.899  14.316  14.412
94422SOL    HW285164  13.898  14.211  14.522
94423SOL     OW85165   8.190  14.704   2.444
94423SOL    HW185166   8.175  14.611   2.424
94423SOL    HW285167   8.116  14.749   2.402
94424SOL     OW85168  11.542   6.664   4.245
94424SOL    HW185169  11.618   6.677   4.302
94424SOL    HW285170  11.557   6.578   4.205
94425SOL     OW85171   9.913   7.026   8.067
94425SOL    HW185172  10.001   7.064   8.075
94425SOL    HW285173   9.919   6.944   8.115
94426SOL     OW85174  12.986   5.990  13.332
94426SOL    HW185175  12.927   5.940  13.275
94426SOL    HW285176  13.039   6.042  13.271
94427SOL     OW85177  10.356   4.466   2.391
94427SOL    HW185178  10.312   4.409   2.454
94427SOL    HW285179  10.297   4.468   2.315
94428SOL     OW85180   6.575   3.325  11.741
94428SOL    HW185181   6.647   3.295  11.797
94428SOL    HW285182   6.615   3.337  11.656
94429SOL     OW85183   5.960   1.388   1.557
94429SOL    HW185184   5.935   1.314   1.612
94429SOL    HW285185   6.007   1.348   1.484
94430SOL     OW85186   6.559   9.499   9.860
94430SOL    HW185187   6.604   9.444   9.924
94430SOL    HW285188   6.621   9.569   9.840
94431SOL     OW85189   1.544   7.323   9.880
94431SOL    HW185190   1.618   7.315   9.820
94431SOL    HW285191   1.584   7.342   9.965
94432SOL     OW85192  14.786   2.448  10.380
94432SOL    HW185193  14.722   2.440  10.309
94432SOL    HW285194  14.733   2.466  10.458
94433SOL     OW85195   4.382  10.969   4.320
94433SOL    HW185196   4.412  10.943   4.407
94433SOL    HW285197   4.369  11.064   4.327
94434SOL     OW85198  12.926  12.931  12.963
94434SOL    HW185199  13.013  12.966  12.979
94434SOL    HW285200  12.936  12.878  12.884
94435SOL     OW85201   3.877   0.784   4.095
94435SOL    HW185202   3.950   0.727   4.070
94435SOL    HW285203   3.815   0.724   4.138
94436SOL     OW85204  11.864  11.228   1.973
94436SOL    HW185205  11.899  11.187   1.894
94436SOL    HW285206  11.850  11.320   1.947
94437SOL     OW85207   4.766   7.462   0.143
94437SOL    HW185208   4.794   7.396   0.207
94437SOL    HW285209   4.696   7.418   0.093
94438SOL     OW85210  12.622  14.484   4.082
94438SOL    HW185211  12.613  14.404   4.031
94438SOL    HW285212  12.700  14.469   4.136
94439SOL     OW85213   9.343   3.957  11.687
94439SOL    HW185214   9.390   3.877  11.665
94439SOL    HW285215   9.259   3.927  11.722
94440SOL     OW85216  11.136  14.681   5.943
94440SOL    HW185217  11.218  14.632   5.939
94440SOL    HW285218  11.115  14.699   5.852
94441SOL     OW85219   6.680  12.111   8.575
94441SOL    HW185220   6.643  12.148   8.495
94441SOL    HW285221   6.770  12.144   8.577
94442SOL     OW85222   7.981   0.815   8.828
94442SOL    HW185223   7.989   0.765   8.747
94442SOL    HW285224   8.067   0.809   8.869
94443SOL     OW85225   8.873   4.869  12.815
94443SOL    HW185226   8.897   4.961  12.803
94443SOL    HW285227   8.905   4.847  12.902
94444SOL     OW85228   7.362   6.643   0.570
94444SOL    HW185229   7.338   6.729   0.602
94444SOL    HW285230   7.364   6.587   0.647
94445SOL     OW85231  13.547  10.578  10.020
94445SOL    HW185232  13.490  10.646   9.984
94445SOL    HW285233  13.488  10.504  10.038
94446SOL     OW85234   4.267   0.132  11.098
94446SOL    HW185235   4.297   0.210  11.051
94446SOL    HW285236   4.260   0.161  11.189
94447SOL     OW85237   9.810  14.679   6.116
94447SOL    HW185238   9.771  14.752   6.068
94447SOL    HW285239   9.896  14.712   6.142
94448SOL     OW85240  11.972   2.319   3.377
94448SOL    HW185241  11.921   2.265   3.316
94448SOL    HW285242  11.955   2.280   3.463
94449SOL     OW85243   6.845   0.349  10.850
94449SOL    HW185244   6.773   0.331  10.790
94449SOL    HW285245   6.806   0.396  10.923
94450SOL     OW85246  10.941  12.279   4.491
94450SOL    HW185247  10.874  12.240   4.546
94450SOL    HW285248  10.984  12.203   4.450
94451SOL     OW85249   8.320   7.975   0.214
94451SOL    HW185250   8.298   7.940   0.127
94451SOL    HW285251   8.403   8.021   0.200
94452SOL     OW85252   6.624   7.504  11.098
94452SOL    HW185253   6.535   7.505  11.134
94452SOL    HW285254   6.614   7.536  11.008
94453SOL     OW85255   9.192   9.019   7.200
94453SOL    HW185256   9.255   8.979   7.260
94453SOL    HW285257   9.130   8.949   7.180
94454SOL     OW85258   0.177   3.743  11.379
94454SOL    HW185259   0.161   3.809  11.311
94454SOL    HW285260   0.249   3.779  11.431
94455SOL     OW85261  12.196  12.172   9.277
94455SOL    HW185262  12.157  12.255   9.304
94455SOL    HW285263  12.133  12.135   9.215
94456SOL     OW85264   6.566  13.149  14.743
94456SOL    HW185265   6.551  13.175  14.652
94456SOL    HW285266   6.540  13.225  14.795
94457SOL     OW85267   0.199  10.528   2.719
94457SOL    HW185268   0.248  10.449   2.696
94457SOL    HW285269   0.227  10.593   2.654
94458SOL     OW85270  12.041   7.220   7.239
94458SOL    HW185271  12.081   7.134   7.246
94458SOL    HW285272  11.977   7.222   7.311
94459SOL     OW85273   7.465  11.525   5.562
94459SOL    HW185274   7.538  11.494   5.508
94459SOL    HW285275   7.504  11.538   5.649
94460SOL     OW85276  11.433   8.363   4.321
94460SOL    HW185277  11.433   8.410   4.237
94460SOL    HW285278  11.492   8.414   4.377
94461SOL     OW85279   9.054   8.951   3.965
94461SOL    HW185280   9.144   8.922   3.956
94461SOL    HW285281   9.057   9.046   3.951
94462SOL     OW85282   5.979  11.126   2.026
94462SOL    HW185283   6.061  11.166   1.997
94462SOL    HW285284   5.989  11.114   2.120
94463SOL     OW85285  12.325   7.897   9.582
94463SOL    HW185286  12.315   7.908   9.677
94463SOL    HW285287  12.240   7.863   9.553
94464SOL     OW85288   0.593   8.841   0.980
94464SOL    HW185289   0.503   8.873   0.969
94464SOL    HW285290   0.643   8.919   1.005
94465SOL     OW85291  12.804   6.013   6.630
94465SOL    HW185292  12.740   6.079   6.603
94465SOL    HW285293  12.880   6.029   6.573
94466SOL     OW85294   5.477   8.755   0.830
94466SOL    HW185295   5.533   8.831   0.817
94466SOL    HW285296   5.444   8.734   0.742
94467SOL     OW85297  10.309   1.371   6.013
94467SOL    HW185298  10.289   1.352   6.104
94467SOL    HW285299  10.367   1.448   6.017
94468SOL     OW85300   2.171  13.065   8.487
94468SOL    HW185301   2.171  13.161   8.492
94468SOL    HW285302   2.079  13.040   8.493
94469SOL     OW85303   6.165   2.712  14.844
94469SOL    HW185304   6.253   2.694  14.879
94469SOL    HW285305   6.128   2.626  14.825
94470SOL     OW85306   4.384   6.610  11.371
94470SOL    HW185307   4.387   6.526  11.417
94470SOL    HW285308   4.306   6.605  11.316
94471SOL     OW85309   7.248  12.496   8.783
94471SOL    HW185310   7.210  12.584   8.782
94471SOL    HW285311   7.342  12.511   8.789
94472SOL     OW85312   2.030   6.772  10.758
94472SOL    HW185313   1.985   6.807  10.681
94472SOL    HW285314   1.976   6.698  10.786
94473SOL     OW85315   3.393   3.979   6.809
94473SOL    HW185316   3.454   4.033   6.859
94473SOL    HW285317   3.313   3.977   6.862
94474SOL     OW85318  11.324   4.083   7.908
94474SOL    HW185319  11.235   4.117   7.907
94474SOL    HW285320  11.325   4.018   7.837
94475SOL     OW85321   8.012  10.520  14.493
94475SOL    HW185322   8.012  10.486  14.582
94475SOL    HW285323   7.979  10.449  14.439
94476SOL     OW85324  11.484   4.975   8.437
94476SOL    HW185325  11.568   4.950   8.399
94476SOL    HW285326  11.507   5.012   8.522
94477SOL     OW85327   6.825  11.062  14.078
94477SOL    HW185328   6.907  11.017  14.097
94477SOL    HW285329   6.852  11.140  14.028
94478SOL     OW85330   4.581  10.672  10.741
94478SOL    HW185331   4.555  10.619  10.666
94478SOL    HW285332   4.591  10.761  10.705
94479SOL     OW85333   6.840   5.607  14.114
94479SOL    HW185334   6.907   5.540  14.129
94479SOL    HW285335   6.875   5.659  14.041
94480SOL     OW85336  10.182  11.607   5.340
94480SOL    HW185337  10.168  11.555   5.419
94480SOL    HW285338  10.184  11.544   5.269
94481SOL     OW85339   8.870   1.238   3.922
94481SOL    HW185340   8.841   1.207   4.008
94481SOL    HW285341   8.901   1.159   3.877
94482SOL     OW85342   0.784   7.484   2.490
94482SOL    HW185343   0.856   7.451   2.544
94482SOL    HW285344   0.803   7.454   2.402
94483SOL     OW85345  13.166   5.124  11.940
94483SOL    HW185346  13.187   5.165  12.024
94483SOL    HW285347  13.086   5.168  11.911
94484SOL     OW85348   8.661   2.009   3.174
94484SOL    HW185349   8.678   2.103   3.181
94484SOL    HW285350   8.565   2.001   3.175
94485SOL     OW85351  11.570   6.109  13.053
94485SOL    HW185352  11.552   6.165  12.978
94485SOL    HW285353  11.646   6.149  13.096
94486SOL     OW85354   3.792   8.555   7.676
94486SOL    HW185355   3.729   8.600   7.620
94486SOL    HW285356   3.784   8.599   7.761
94487SOL     OW85357  11.846   4.551  12.963
94487SOL    HW185358  11.920   4.510  13.007
94487SOL    HW285359  11.869   4.549  12.870
94488SOL     OW85360   3.495   1.293  10.002
94488SOL    HW185361   3.486   1.329   9.914
94488SOL    HW285362   3.589   1.288  10.017
94489SOL     OW85363  11.604  10.789  10.354
94489SOL    HW185364  11.569  10.758  10.270
94489SOL    HW285365  11.697  10.767  10.351
94490SOL     OW85366   4.864  11.722  10.120
94490SOL    HW185367   4.798  11.787  10.144
94490SOL    HW285368   4.826  11.639  10.148
94491SOL     OW85369  10.991  12.110  11.856
94491SOL    HW185370  11.068  12.056  11.842
94491SOL    HW285371  10.925  12.073  11.797
94492SOL     OW85372   9.229   3.867   5.919
94492SOL    HW185373   9.292   3.861   5.991
94492SOL    HW285374   9.233   3.958   5.891
94493SOL     OW85375  13.859  12.586   1.210
94493SOL    HW185376  13.930  12.547   1.262
94493SOL    HW285377  13.803  12.629   1.274
94494SOL     OW85378  11.097  13.889  14.331
94494SOL    HW185379  11.053  13.924  14.409
94494SOL    HW285380  11.183  13.860  14.364
94495SOL     OW85381  10.394   7.570   7.704
94495SOL    HW185382  10.421   7.478   7.708
94495SOL    HW285383  10.468   7.615   7.662
94496SOL     OW85384   4.131   6.031   7.915
94496SOL    HW185385   4.174   6.110   7.948
94496SOL    HW285386   4.069   6.007   7.984
94497SOL     OW85387   3.110   7.785   9.822
94497SOL    HW185388   3.043   7.831   9.771
94497SOL    HW285389   3.193   7.816   9.785
94498SOL     OW85390   9.931   2.308   5.501
94498SOL    HW185391   9.906   2.273   5.416
94498SOL    HW285392   9.905   2.400   5.498
94499SOL     OW85393  13.430   5.668  14.802
94499SOL    HW185394  13.437   5.573  14.792
94499SOL    HW285395  13.346   5.691  14.762
94500SOL     OW85396   6.263   0.913  14.734
94500SOL    HW185397   6.225   0.966  14.663
94500SOL    HW285398   6.281   0.976  14.804
94501SOL     OW85399  11.007   2.351   1.675
94501SOL    HW185400  11.034   2.273   1.722
94501SOL    HW285401  10.933   2.386   1.725
94502SOL     OW85402  13.051   6.926  11.585
94502SOL    HW185403  13.007   6.846  11.613
94502SOL    HW285404  13.002   6.997  11.627
94503SOL     OW85405  14.530  12.103  12.707
94503SOL    HW185406  14.574  12.169  12.760
94503SOL    HW285407  14.440  12.103  12.740
94504SOL     OW85408   4.640   2.387   0.223
94504SOL    HW185409   4.609   2.429   0.143
94504SOL    HW285410   4.734   2.374   0.208
94505SOL     OW85411  13.601   3.470  12.916
94505SOL    HW185412  13.538   3.539  12.936
94505SOL    HW285413  13.682   3.497  12.960
94506SOL     OW85414   2.364   3.024   6.096
94506SOL    HW185415   2.383   2.949   6.039
94506SOL    HW285416   2.450   3.053   6.127
94507SOL     OW85417  14.381  12.642  10.794
94507SOL    HW185418  14.349  12.685  10.714
94507SOL    HW285419  14.381  12.710  10.861
94508SOL     OW85420  14.263  10.962   4.289
94508SOL    HW185421  14.341  11.014   4.306
94508SOL    HW285422  14.296  10.886   4.241
94509SOL     OW85423   0.160   7.566  12.586
94509SOL    HW185424   0.172   7.526  12.672
94509SOL    HW285425   0.078   7.530  12.553
94510SOL     OW85426  11.249  12.316  13.480
94510SOL    HW185427  11.203  12.292  13.400
94510SOL    HW285428  11.340  12.293  13.463
94511SOL     OW85429  12.184  11.843   8.590
94511SOL    HW185430  12.105  11.796   8.619
94511SOL    HW285431  12.151  11.926   8.557
94512SOL     OW85432   6.856   6.795   0.292
94512SOL    HW185433   6.766   6.819   0.269
94512SOL    HW285434   6.908   6.873   0.269
94513SOL     OW85435  11.727   6.950   8.425
94513SOL    HW185436  11.798   6.886   8.416
94513SOL    HW285437  11.768   7.024   8.470
94514SOL     OW85438   9.369   2.978  13.958
94514SOL    HW185439   9.429   2.994  14.031
94514SOL    HW285440   9.319   3.059  13.949
94515SOL     OW85441  11.150   3.600   5.998
94515SOL    HW185442  11.181   3.543   5.928
94515SOL    HW285443  11.150   3.688   5.960
94516SOL     OW85444   7.903   5.085  14.539
94516SOL    HW185445   7.955   5.144  14.484
94516SOL    HW285446   7.966   5.045  14.598
94517SOL     OW85447  11.210   5.794   0.766
94517SOL    HW185448  11.303   5.797   0.741
94517SOL    HW285449  11.211   5.792   0.862
94518SOL     OW85450   7.900   3.221   8.852
94518SOL    HW185451   7.904   3.268   8.769
94518SOL    HW285452   7.986   3.181   8.861
94519SOL     OW85453   3.378   6.518  13.057
94519SOL    HW185454   3.409   6.561  12.977
94519SOL    HW285455   3.424   6.434  13.058
94520SOL     OW85456   6.465   8.153  14.242
94520SOL    HW185457   6.440   8.210  14.169
94520SOL    HW285458   6.408   8.077  14.234
94521SOL     OW85459   5.904   9.693  10.487
94521SOL    HW185460   5.893   9.781  10.452
94521SOL    HW285461   5.918   9.638  10.410
94522SOL     OW85462  10.973  13.311   6.889
94522SOL    HW185463  11.064  13.326   6.916
94522SOL    HW285464  10.980  13.254   6.812
94523SOL     OW85465   8.940   3.501  11.908
94523SOL    HW185466   8.971   3.521  11.820
94523SOL    HW285467   8.902   3.413  11.901
94524SOL     OW85468  10.626   7.560   2.870
94524SOL    HW185469  10.622   7.648   2.908
94524SOL    HW285470  10.705   7.521   2.908
94525SOL     OW85471   3.030  11.084   5.555
94525SOL    HW185472   3.042  11.174   5.584
94525SOL    HW285473   3.108  11.064   5.504
94526SOL     OW85474   5.350   1.151   1.308
94526SOL    HW185475   5.330   1.198   1.390
94526SOL    HW285476   5.403   1.077   1.336
94527SOL     OW85477  13.777   6.042  11.084
94527SOL    HW185478  13.716   6.115  11.096
94527SOL    HW285479  13.840   6.074  11.019
94528SOL     OW85480   8.734   7.412   1.343
94528SOL    HW185481   8.811   7.416   1.286
94528SOL    HW285482   8.728   7.321   1.371
94529SOL     OW85483   9.272  11.789   9.165
94529SOL    HW185484   9.190  11.769   9.120
94529SOL    HW285485   9.244  11.825   9.249
94530SOL     OW85486   9.655  13.838  13.168
94530SOL    HW185487   9.709  13.828  13.247
94530SOL    HW285488   9.718  13.836  13.096
94531SOL     OW85489   6.622  13.472   7.384
94531SOL    HW185490   6.666  13.462   7.468
94531SOL    HW285491   6.618  13.384   7.348
94532SOL     OW85492   4.888   1.172  13.869
94532SOL    HW185493   4.926   1.136  13.949
94532SOL    HW285494   4.856   1.096  13.821
94533SOL     OW85495   3.449  11.482  14.287
94533SOL    HW185496   3.428  11.566  14.244
94533SOL    HW285497   3.537  11.462  14.256
94534SOL     OW85498   2.578   1.986  14.307
94534SOL    HW185499   2.667   2.014  14.326
94534SOL    HW285500   2.574   1.982  14.212
94535SOL     OW85501  10.109   0.252   8.858
94535SOL    HW185502  10.061   0.173   8.833
94535SOL    HW285503  10.086   0.316   8.792
94536SOL     OW85504  13.050   3.628  13.582
94536SOL    HW185505  13.022   3.649  13.671
94536SOL    HW285506  13.012   3.542  13.564
94537SOL     OW85507   7.049   1.559   1.580
94537SOL    HW185508   7.088   1.612   1.510
94537SOL    HW285509   6.995   1.494   1.533
94538SOL     OW85510   5.151   6.256  12.229
94538SOL    HW185511   5.127   6.305  12.151
94538SOL    HW285512   5.170   6.167  12.198
94539SOL     OW85513   9.568  14.453  14.217
94539SOL    HW185514   9.612  14.387  14.271
94539SOL    HW285515   9.492  14.408  14.182
94540SOL     OW85516   6.283   1.487   3.371
94540SOL    HW185517   6.285   1.392   3.386
94540SOL    HW285518   6.288   1.496   3.276
94541SOL     OW85519  12.042   0.284   5.076
94541SOL    HW185520  12.079   0.199   5.098
94541SOL    HW285521  11.992   0.309   5.154
94542SOL     OW85522  12.248  14.680  10.896
94542SOL    HW185523  12.327  14.733  10.883
94542SOL    HW285524  12.277  14.608  10.952
94543SOL     OW85525  14.322  10.237   8.423
94543SOL    HW185526  14.369  10.235   8.506
94543SOL    HW285527  14.260  10.309   8.432
94544SOL     OW85528  13.832   9.559   9.588
94544SOL    HW185529  13.910   9.514   9.555
94544SOL    HW285530  13.844   9.650   9.560
94545SOL     OW85531   9.921   7.656   3.865
94545SOL    HW185532   9.902   7.710   3.941
94545SOL    HW285533   9.962   7.578   3.901
94546SOL     OW85534   6.761   1.846   5.734
94546SOL    HW185535   6.734   1.770   5.683
94546SOL    HW285536   6.698   1.850   5.806
94547SOL     OW85537  12.212   1.399   9.397
94547SOL    HW185538  12.152   1.473   9.387
94547SOL    HW285539  12.157   1.322   9.388
94548SOL     OW85540   9.237  14.125   4.829
94548SOL    HW185541   9.150  14.086   4.833
94548SOL    HW285542   9.220  14.218   4.812
94549SOL     OW85543   9.863   9.690  14.292
94549SOL    HW185544   9.803   9.715  14.362
94549SOL    HW285545   9.898   9.773  14.259
94550SOL     OW85546  13.484   9.236  12.688
94550SOL    HW185547  13.517   9.187  12.612
94550SOL    HW285548  13.496   9.177  12.762
94551SOL     OW85549  11.822  10.596   8.104
94551SOL    HW185550  11.729  10.576   8.105
94551SOL    HW285551  11.863  10.517   8.068
94552SOL     OW85552   6.828   7.614  12.824
94552SOL    HW185553   6.909   7.601  12.874
94552SOL    HW285554   6.838   7.559  12.747
94553SOL     OW85555   9.043   4.002   4.798
94553SOL    HW185556   9.074   4.006   4.889
94553SOL    HW285557   9.095   3.933   4.758
94554SOL     OW85558   0.511   0.450   7.699
94554SOL    HW185559   0.490   0.543   7.697
94554SOL    HW285560   0.489   0.418   7.611
94555SOL     OW85561   3.324  11.290  12.321
94555SOL    HW185562   3.398  11.230  12.310
94555SOL    HW285563   3.275  11.281  12.239
94556SOL     OW85564   3.566  12.186  11.204
94556SOL    HW185565   3.504  12.162  11.272
94556SOL    HW285566   3.630  12.114  11.204
94557SOL     OW85567   8.648  13.510   3.285
94557SOL    HW185568   8.621  13.599   3.262
94557SOL    HW285569   8.604  13.454   3.221
94558SOL     OW85570   0.643   8.942  11.143
94558SOL    HW185571   0.608   8.857  11.118
94558SOL    HW285572   0.566   8.992  11.172
94559SOL     OW85573   3.653   4.287  11.384
94559SOL    HW185574   3.702   4.353  11.432
94559SOL    HW285575   3.643   4.322  11.296
94560SOL     OW85576   4.621   3.475   6.110
94560SOL    HW185577   4.657   3.533   6.178
94560SOL    HW285578   4.578   3.405   6.158
94561SOL     OW85579   3.907  11.530   9.628
94561SOL    HW185580   3.923  11.598   9.564
94561SOL    HW285581   3.812  11.532   9.642
94562SOL     OW85582  14.664  11.755  11.518
94562SOL    HW185583  14.626  11.703  11.589
94562SOL    HW285584  14.737  11.702  11.486
94563SOL     OW85585  10.351   4.745   7.081
94563SOL    HW185586  10.267   4.764   7.039
94563SOL    HW285587  10.382   4.665   7.038
94564SOL     OW85588  13.390   7.899   3.758
94564SOL    HW185589  13.411   7.816   3.801
94564SOL    HW285590  13.464   7.915   3.700
94565SOL     OW85591   9.936   8.738  14.416
94565SOL    HW185592   9.892   8.816  14.383
94565SOL    HW285593  10.014   8.772  14.460
94566SOL     OW85594   6.486   0.851   7.520
94566SOL    HW185595   6.396   0.821   7.510
94566SOL    HW285596   6.493   0.877   7.612
94567SOL     OW85597   3.403   4.401  13.752
94567SOL    HW185598   3.355   4.447  13.821
94567SOL    HW285599   3.424   4.469  13.688
94568SOL     OW85600   8.151  12.096  13.181
94568SOL    HW185601   8.219  12.081  13.115
94568SOL    HW285602   8.170  12.033  13.250
94569SOL     OW85603  11.566   5.489  14.530
94569SOL    HW185604  11.506   5.542  14.582
94569SOL    HW285605  11.632   5.459  14.592
94570SOL     OW85606  12.567   0.897  14.704
94570SOL    HW185607  12.500   0.890  14.772
94570SOL    HW285608  12.591   0.990  14.703
94571SOL     OW85609   1.395   2.643  10.256
94571SOL    HW185610   1.307   2.658  10.289
94571SOL    HW285611   1.439   2.728  10.264
94572SOL     OW85612   8.311  12.233   5.148
94572SOL    HW185613   8.301  12.178   5.071
94572SOL    HW285614   8.343  12.173   5.216
94573SOL     OW85615  10.626   9.179  14.792
94573SOL    HW185616  10.612   9.258  14.740
94573SOL    HW285617  10.689   9.128  14.742
94574SOL     OW85618   1.662  14.096   0.963
94574SOL    HW185619   1.638  14.070   0.874
94574SOL    HW285620   1.610  14.039   1.020
94575SOL     OW85621   0.368  10.274  10.044
94575SOL    HW185622   0.404  10.187  10.025
94575SOL    HW285623   0.280  10.272  10.007
94576SOL     OW85624   2.832   4.540  14.824
94576SOL    HW185625   2.873   4.516   0.027
94576SOL    HW285626   2.830   4.458  14.774
94577SOL     OW85627  11.104   1.025   3.231
94577SOL    HW185628  11.181   1.074   3.262
94577SOL    HW285629  11.029   1.078   3.257
94578SOL     OW85630   5.149  12.857   7.045
94578SOL    HW185631   5.114  12.806   7.118
94578SOL    HW285632   5.147  12.948   7.075
94579SOL     OW85633   4.550   4.613   0.469
94579SOL    HW185634   4.461   4.594   0.438
94579SOL    HW285635   4.603   4.612   0.389
94580SOL     OW85636   3.543   2.671   1.752
94580SOL    HW185637   3.448   2.670   1.753
94580SOL    HW285638   3.566   2.761   1.777
94581SOL     OW85639  11.990   4.406   6.974
94581SOL    HW185640  11.974   4.384   7.065
94581SOL    HW285641  12.035   4.491   6.977
94582SOL     OW85642   1.090   1.823  13.708
94582SOL    HW185643   1.039   1.871  13.773
94582SOL    HW285644   1.178   1.817  13.745
94583SOL     OW85645   2.126   4.655   3.346
94583SOL    HW185646   2.130   4.559   3.346
94583SOL    HW285647   2.115   4.678   3.438
94584SOL     OW85648   7.689   4.275   2.215
94584SOL    HW185649   7.595   4.274   2.230
94584SOL    HW285650   7.716   4.363   2.241
94585SOL     OW85651   4.271   7.048  12.926
94585SOL    HW185652   4.182   7.036  12.957
94585SOL    HW285653   4.262   7.102  12.847
94586SOL     OW85654   8.898   5.432  12.929
94586SOL    HW185655   8.804   5.441  12.911
94586SOL    HW285656   8.905   5.439  13.024
94587SOL     OW85657   9.594   5.788   7.322
94587SOL    HW185658   9.599   5.883   7.319
94587SOL    HW285659   9.567   5.769   7.412
94588SOL     OW85660   0.854   9.593   5.888
94588SOL    HW185661   0.792   9.521   5.894
94588SOL    HW285662   0.799   9.672   5.888
94589SOL     OW85663   7.280  12.032   5.739
94589SOL    HW185664   7.312  12.055   5.652
94589SOL    HW285665   7.209  12.095   5.756
94590SOL     OW85666  13.321  12.158   8.333
94590SOL    HW185667  13.341  12.086   8.394
94590SOL    HW285668  13.227  12.149   8.316
94591SOL     OW85669   4.008   1.891   1.376
94591SOL    HW185670   4.045   1.970   1.416
94591SOL    HW285671   4.085   1.841   1.348
94592SOL     OW85672  10.115   8.380  10.547
94592SOL    HW185673  10.071   8.305  10.507
94592SOL    HW285674  10.100   8.452  10.486
94593SOL     OW85675   5.212  13.776   5.545
94593SOL    HW185676   5.256  13.703   5.589
94593SOL    HW285677   5.167  13.822   5.616
94594SOL     OW85678  14.016   7.381  11.809
94594SOL    HW185679  13.980   7.355  11.724
94594SOL    HW285680  13.955   7.346  11.873
94595SOL     OW85681   4.288   3.058  14.009
94595SOL    HW185682   4.224   3.129  14.015
94595SOL    HW285683   4.340   3.079  13.931
94596SOL     OW85684  10.644  12.414  10.640
94596SOL    HW185685  10.693  12.481  10.594
94596SOL    HW285686  10.688  12.332  10.617
94597SOL     OW85687   7.581   9.571  11.339
94597SOL    HW185688   7.616   9.484  11.356
94597SOL    HW285689   7.488   9.557  11.323
94598SOL     OW85690   4.340   0.644  11.620
94598SOL    HW185691   4.302   0.600  11.696
94598SOL    HW285692   4.318   0.737  11.634
94599SOL     OW85693  14.168   2.258   5.298
94599SOL    HW185694  14.202   2.169   5.285
94599SOL    HW285695  14.085   2.245   5.343
94600SOL     OW85696  11.527   6.159   8.690
94600SOL    HW185697  11.476   6.078   8.679
94600SOL    HW285698  11.463   6.224   8.719
94601SOL     OW85699   4.687   8.726   2.199
94601SOL    HW185700   4.610   8.677   2.172
94601SOL    HW285701   4.680   8.810   2.153
94602SOL     OW85702   6.705   3.660   3.785
94602SOL    HW185703   6.784   3.697   3.745
94602SOL    HW285704   6.714   3.679   3.878
94603SOL     OW85705  13.880  10.338   0.054
94603SOL    HW185706  13.826  10.335  14.855
94603SOL    HW285707  13.887  10.431   0.074
94604SOL     OW85708   9.588   9.788  11.907
94604SOL    HW185709   9.564   9.706  11.949
94604SOL    HW285710   9.507   9.838  11.903
94605SOL     OW85711  14.688   3.137  10.341
94605SOL    HW185712  14.755   3.193  10.380
94605SOL    HW285713  14.641   3.101  10.416
94606SOL     OW85714  11.295   0.735   9.613
94606SOL    HW185715  11.219   0.741   9.554
94606SOL    HW285716  11.266   0.677   9.683
94607SOL     OW85717   6.064   0.557   7.055
94607SOL    HW185718   6.156   0.575   7.035
94607SOL    HW285719   6.037   0.493   6.989
94608SOL     OW85720  13.411  10.272   8.499
94608SOL    HW185721  13.502  10.248   8.516
94608SOL    HW285722  13.397  10.250   8.407
94609SOL     OW85723  10.121   6.120   1.143
94609SOL    HW185724  10.198   6.178   1.140
94609SOL    HW285725  10.061   6.162   1.204
94610SOL     OW85726   3.706  14.304  13.080
94610SOL    HW185727   3.645  14.232  13.066
94610SOL    HW285728   3.750  14.316  12.996
94611SOL     OW85729  10.218   0.761   5.806
94611SOL    HW185730  10.226   0.844   5.760
94611SOL    HW285731  10.210   0.696   5.736
94612SOL     OW85732  13.295  10.648  13.115
94612SOL    HW185733  13.328  10.625  13.028
94612SOL    HW285734  13.200  10.655  13.103
94613SOL     OW85735   6.113   2.360   2.553
94613SOL    HW185736   6.046   2.292   2.566
94613SOL    HW285737   6.094   2.396   2.466
94614SOL     OW85738   1.487   8.346  13.278
94614SOL    HW185739   1.533   8.410  13.333
94614SOL    HW285740   1.548   8.330  13.205
94615SOL     OW85741   9.118  14.853   0.319
94615SOL    HW185742   9.210  14.880   0.328
94615SOL    HW285743   9.118  14.761   0.345
94616SOL     OW85744   5.288  14.056  11.314
94616SOL    HW185745   5.231  14.066  11.238
94616SOL    HW285746   5.260  14.126  11.374
94617SOL     OW85747   8.612   6.598   2.343
94617SOL    HW185748   8.701   6.563   2.353
94617SOL    HW285749   8.571   6.541   2.279
94618SOL     OW85750  10.455  11.476   1.107
94618SOL    HW185751  10.435  11.385   1.085
94618SOL    HW285752  10.473  11.475   1.201
94619SOL     OW85753   0.959   4.873  10.859
94619SOL    HW185754   0.919   4.893  10.774
94619SOL    HW285755   0.946   4.952  10.911
94620SOL     OW85756   3.278  14.459   3.129
94620SOL    HW185757   3.284  14.369   3.161
94620SOL    HW285758   3.209  14.456   3.063
94621SOL     OW85759   1.461   1.666  10.267
94621SOL    HW185760   1.460   1.741  10.208
94621SOL    HW285761   1.376   1.668  10.311
94622SOL     OW85762   1.894  13.075   8.580
94622SOL    HW185763   1.841  13.150   8.551
94622SOL    HW285764   1.882  13.074   8.675
94623SOL     OW85765   0.372   4.452   2.610
94623SOL    HW185766   0.382   4.390   2.683
94623SOL    HW285767   0.312   4.408   2.550
94624SOL     OW85768   7.706  11.836  13.478
94624SOL    HW185769   7.773  11.878  13.533
94624SOL    HW285770   7.755  11.785  13.414
94625SOL     OW85771  11.045  13.764   0.739
94625SOL    HW185772  11.013  13.676   0.723
94625SOL    HW285773  11.120  13.753   0.799
94626SOL     OW85774   5.703  10.282   2.974
94626SOL    HW185775   5.661  10.354   3.022
94626SOL    HW285776   5.706  10.313   2.883
94627SOL     OW85777  14.239   5.937   1.674
94627SOL    HW185778  14.196   5.890   1.746
94627SOL    HW285779  14.181   6.010   1.654
94628SOL     OW85780   6.906  13.006   4.223
94628SOL    HW185781   6.987  13.024   4.175
94628SOL    HW285782   6.850  13.082   4.206
94629SOL     OW85783  14.643   8.356   4.790
94629SOL    HW185784  14.722   8.310   4.763
94629SOL    HW285785  14.574   8.323   4.733
94630SOL     OW85786   9.204  12.818   5.674
94630SOL    HW185787   9.255  12.830   5.594
94630SOL    HW285788   9.262  12.851   5.743
94631SOL     OW85789   4.949  12.643  12.617
94631SOL    HW185790   4.870  12.663  12.567
94631SOL    HW285791   4.967  12.723  12.666
94632SOL     OW85792  10.446   0.145   0.562
94632SOL    HW185793  10.411   0.082   0.499
94632SOL    HW285794  10.369   0.193   0.593
94633SOL     OW85795   5.302   9.510   0.750
94633SOL    HW185796   5.208   9.500   0.762
94633SOL    HW285797   5.322   9.597   0.787
94634SOL     OW85798  14.660  11.615  13.050
94634SOL    HW185799  14.663  11.665  13.131
94634SOL    HW285800  14.676  11.524  13.077
94635SOL     OW85801   1.253   1.410   2.149
94635SOL    HW185802   1.226   1.331   2.103
94635SOL    HW285803   1.181   1.428   2.210
94636SOL     OW85804   7.456  12.477  14.286
94636SOL    HW185805   7.408  12.395  14.278
94636SOL    HW285806   7.491  12.476  14.376
94637SOL     OW85807   3.940  13.980   2.947
94637SOL    HW185808   3.995  13.912   2.908
94637SOL    HW285809   3.872  13.997   2.882
94638SOL     OW85810   3.481   9.251   3.597
94638SOL    HW185811   3.419   9.323   3.588
94638SOL    HW285812   3.426   9.172   3.598
94639SOL     OW85813  14.717   8.192   9.451
94639SOL    HW185814  14.747   8.270   9.404
94639SOL    HW285815  14.764   8.195   9.534
94640SOL     OW85816  10.260   0.004   4.080
94640SOL    HW185817  10.186   0.048   4.037
94640SOL    HW285818  10.281   0.059   4.155
94641SOL     OW85819   3.559   0.951   2.471
94641SOL    HW185820   3.526   1.033   2.435
94641SOL    HW285821   3.549   0.961   2.566
94642SOL     OW85822   0.930   4.560   0.534
94642SOL    HW185823   0.846   4.531   0.569
94642SOL    HW285824   0.990   4.553   0.608
94643SOL     OW85825  13.095   5.866   0.318
94643SOL    HW185826  13.067   5.849   0.228
94643SOL    HW285827  13.188   5.843   0.319
94644SOL     OW85828  14.053   1.952   5.896
94644SOL    HW185829  13.973   2.003   5.880
94644SOL    HW285830  14.072   1.912   5.812
94645SOL     OW85831   7.171   7.912   7.466
94645SOL    HW185832   7.164   7.940   7.374
94645SOL    HW285833   7.153   7.818   7.463
94646SOL     OW85834   7.113   2.869  11.994
94646SOL    HW185835   7.096   2.806  11.924
94646SOL    HW285836   7.193   2.838  12.035
94647SOL     OW85837   8.742   2.050   5.799
94647SOL    HW185838   8.745   1.982   5.866
94647SOL    HW285839   8.811   2.025   5.737
94648SOL     OW85840  10.424   7.166  13.885
94648SOL    HW185841  10.352   7.143  13.945
94648SOL    HW285842  10.385   7.232  13.827
94649SOL     OW85843  14.858  14.492   0.793
94649SOL    HW185844  14.847  14.404   0.758
94649SOL    HW285845  14.820  14.550   0.727
94650SOL     OW85846  11.058   2.858   1.722
94650SOL    HW185847  11.102   2.785   1.679
94650SOL    HW285848  10.978   2.820   1.758
94651SOL     OW85849   8.881   5.830   6.958
94651SOL    HW185850   8.969   5.857   6.929
94651SOL    HW285851   8.897   5.760   7.021
94652SOL     OW85852   6.899  10.905  11.370
94652SOL    HW185853   6.905  10.936  11.280
94652SOL    HW285854   6.871  10.981  11.420
94653SOL     OW85855   0.906   2.299   0.574
94653SOL    HW185856   0.947   2.375   0.533
94653SOL    HW285857   0.888   2.327   0.663
94654SOL     OW85858   3.928  14.348   6.544
94654SOL    HW185859   3.912  14.346   6.450
94654SOL    HW285860   3.922  14.441   6.568
94655SOL     OW85861   7.058   6.733  13.429
94655SOL    HW185862   6.999   6.686  13.489
94655SOL    HW285863   7.000   6.780  13.370
94656SOL     OW85864  11.300   5.475   4.100
94656SOL    HW185865  11.302   5.475   4.195
94656SOL    HW285866  11.359   5.545   4.074
94657SOL     OW85867   6.795  10.196   3.264
94657SOL    HW185868   6.774  10.266   3.327
94657SOL    HW285869   6.760  10.117   3.305
94658SOL     OW85870  11.988   0.598   3.775
94658SOL    HW185871  12.016   0.648   3.698
94658SOL    HW285872  12.057   0.533   3.788
94659SOL     OW85873  13.634   8.108  13.317
94659SOL    HW185874  13.620   8.014  13.310
94659SOL    HW285875  13.634   8.139  13.226
94660SOL     OW85876   0.014   6.385   7.318
94660SOL    HW185877   0.003   6.290   7.322
94660SOL    HW285878  14.843   6.418   7.391
94661SOL     OW85879   7.795   0.458   1.875
94661SOL    HW185880   7.852   0.474   1.800
94661SOL    HW285881   7.716   0.510   1.856
94662SOL     OW85882  11.062   1.399  14.716
94662SOL    HW185883  11.007   1.467  14.678
94662SOL    HW285884  11.012   1.365  14.790
94663SOL     OW85885  10.134  14.518  10.247
94663SOL    HW185886  10.145  14.446  10.185
94663SOL    HW285887  10.040  14.518  10.268
94664SOL     OW85888  12.518   3.729  13.158
94664SOL    HW185889  12.467   3.692  13.086
94664SOL    HW285890  12.509   3.664  13.228
94665SOL     OW85891   8.434   7.599  13.502
94665SOL    HW185892   8.451   7.656  13.577
94665SOL    HW285893   8.339   7.599  13.493
94666SOL     OW85894   1.797   6.760   2.232
94666SOL    HW185895   1.810   6.819   2.158
94666SOL    HW285896   1.761   6.680   2.194
94667SOL     OW85897   4.899  11.012   2.951
94667SOL    HW185898   4.872  11.076   3.017
94667SOL    HW285899   4.824  10.955   2.941
94668SOL     OW85900  12.293   0.773   6.796
94668SOL    HW185901  12.277   0.857   6.840
94668SOL    HW285902  12.305   0.710   6.868
94669SOL     OW85903  13.852   9.399  11.245
94669SOL    HW185904  13.798   9.474  11.268
94669SOL    HW285905  13.881   9.363  11.329
94670SOL     OW85906   2.300   1.722   3.691
94670SOL    HW185907   2.243   1.776   3.635
94670SOL    HW285908   2.299   1.635   3.650
94671SOL     OW85909   7.469  11.222   9.985
94671SOL    HW185910   7.556  11.196   9.953
94671SOL    HW285911   7.455  11.167  10.062
94672SOL     OW85912   7.894   6.830  12.351
94672SOL    HW185913   7.965   6.825  12.416
94672SOL    HW285914   7.822   6.780  12.391
94673SOL     OW85915   0.859   7.387  14.067
94673SOL    HW185916   0.838   7.389  14.160
94673SOL    HW285917   0.849   7.478  14.038
94674SOL     OW85918  10.472   8.047   5.705
94674SOL    HW185919  10.454   7.955   5.682
94674SOL    HW285920  10.564   8.060   5.682
94675SOL     OW85921   8.341   6.889  12.319
94675SOL    HW185922   8.302   6.966  12.277
94675SOL    HW285923   8.421   6.922  12.360
94676SOL     OW85924   6.321   2.441  14.460
94676SOL    HW185925   6.341   2.453  14.367
94676SOL    HW285926   6.328   2.347  14.474
94677SOL     OW85927   1.107   8.338  11.890
94677SOL    HW185928   1.051   8.289  11.831
94677SOL    HW285929   1.123   8.421  11.845
94678SOL     OW85930   6.232   0.836   8.483
94678SOL    HW185931   6.322   0.806   8.470
94678SOL    HW285932   6.186   0.807   8.405
94679SOL     OW85933   1.427   8.558  14.502
94679SOL    HW185934   1.435   8.470  14.540
94679SOL    HW285935   1.427   8.617  14.578
94680SOL     OW85936   7.976  10.890   9.876
94680SOL    HW185937   7.933  10.873   9.960
94680SOL    HW285938   8.054  10.940   9.900
94681SOL     OW85939   3.251   5.440   1.293
94681SOL    HW185940   3.170   5.486   1.311
94681SOL    HW285941   3.283   5.476   1.211
94682SOL     OW85942   3.217   2.496   8.971
94682SOL    HW185943   3.216   2.463   8.881
94682SOL    HW285944   3.183   2.585   8.964
94683SOL     OW85945   1.822   1.709  14.361
94683SOL    HW185946   1.861   1.747  14.440
94683SOL    HW285947   1.759   1.645  14.394
94684SOL     OW85948   2.181   6.162   9.979
94684SOL    HW185949   2.272   6.182   9.959
94684SOL    HW285950   2.185   6.109  10.058
94685SOL     OW85951   0.296   7.222   9.662
94685SOL    HW185952   0.347   7.174   9.728
94685SOL    HW285953   0.244   7.284   9.713
94686SOL     OW85954   7.180   2.855   6.107
94686SOL    HW185955   7.163   2.932   6.161
94686SOL    HW285956   7.266   2.824   6.136
94687SOL     OW85957   8.770   3.301  10.375
94687SOL    HW185958   8.840   3.236  10.370
94687SOL    HW285959   8.740   3.310  10.285
94688SOL     OW85960  10.376   1.071   2.336
94688SOL    HW185961  10.383   1.126   2.258
94688SOL    HW285962  10.282   1.064   2.351
94689SOL     OW85963   8.561  11.571  12.440
94689SOL    HW185964   8.628  11.520  12.483
94689SOL    HW285965   8.490  11.578  12.504
94690SOL     OW85966   1.939   5.333  13.084
94690SOL    HW185967   1.934   5.398  13.014
94690SOL    HW285968   1.971   5.254  13.041
94691SOL     OW85969  13.360  10.621   5.540
94691SOL    HW185970  13.361  10.618   5.636
94691SOL    HW285971  13.452  10.619   5.515
94692SOL     OW85972   6.874   4.270   6.354
94692SOL    HW185973   6.888   4.214   6.431
94692SOL    HW285974   6.943   4.336   6.360
94693SOL     OW85975   8.843  13.816   9.836
94693SOL    HW185976   8.794  13.796   9.915
94693SOL    HW285977   8.785  13.791   9.764
94694SOL     OW85978  11.275   4.140  14.420
94694SOL    HW185979  11.244   4.229  14.433
94694SOL    HW285980  11.340   4.126  14.489
94695SOL     OW85981   8.770   3.117  13.378
94695SOL    HW185982   8.799   3.156  13.460
94695SOL    HW285983   8.676   3.103  13.390
94696SOL     OW85984   6.637   4.519  13.464
94696SOL    HW185985   6.660   4.551  13.377
94696SOL    HW285986   6.579   4.445  13.449
94697SOL     OW85987   0.653  12.232  11.013
94697SOL    HW185988   0.634  12.146  10.976
94697SOL    HW285989   0.681  12.212  11.103
94698SOL     OW85990   9.011   4.644   1.682
94698SOL    HW185991   9.100   4.612   1.667
94698SOL    HW285992   8.964   4.568   1.716
94699SOL     OW85993  11.346   2.655   7.911
94699SOL    HW185994  11.440   2.671   7.908
94699SOL    HW285995  11.334   2.573   7.864
94700SOL     OW85996   3.629  12.974   0.868
94700SOL    HW185997   3.600  12.898   0.918
94700SOL    HW285998   3.666  12.938   0.787
94701SOL     OW85999  11.427   9.916  13.741
94701SOL    HW186000  11.442   9.852  13.810
94701SOL    HW286001  11.384   9.866  13.671
94702SOL     OW86002  12.093  11.932  14.450
94702SOL    HW186003  12.147  11.854  14.461
94702SOL    HW286004  12.151  11.995  14.407
94703SOL     OW86005   3.206  10.291   3.494
94703SOL    HW186006   3.219  10.242   3.413
94703SOL    HW286007   3.173  10.226   3.556
94704SOL     OW86008  13.536   8.016   4.428
94704SOL    HW186009  13.614   7.973   4.464
94704SOL    HW286010  13.560   8.036   4.337
94705SOL     OW86011   8.100   4.757   8.823
94705SOL    HW186012   8.053   4.818   8.764
94705SOL    HW286013   8.183   4.800   8.840
94706SOL     OW86014   3.620   3.416  11.742
94706SOL    HW186015   3.611   3.478  11.670
94706SOL    HW286016   3.655   3.469  11.815
94707SOL     OW86017  12.968   6.518   1.893
94707SOL    HW186018  12.972   6.600   1.943
94707SOL    HW286019  12.939   6.545   1.806
94708SOL     OW86020   1.728  12.616  10.691
94708SOL    HW186021   1.692  12.627  10.779
94708SOL    HW286022   1.821  12.634  10.701
94709SOL     OW86023   6.122  14.478   5.690
94709SOL    HW186024   6.145  14.561   5.733
94709SOL    HW286025   6.196  14.460   5.632
94710SOL     OW86026   7.581   4.678  12.388
94710SOL    HW186027   7.551   4.681  12.479
94710SOL    HW286028   7.559   4.590  12.359
94711SOL     OW86029   4.191   3.691   3.552
94711SOL    HW186030   4.179   3.781   3.525
94711SOL    HW286031   4.137   3.640   3.492
94712SOL     OW86032   9.867  12.920  13.768
94712SOL    HW186033   9.804  12.992  13.766
94712SOL    HW286034   9.912  12.929  13.852
94713SOL     OW86035   1.059  12.464   6.578
94713SOL    HW186036   1.116  12.493   6.650
94713SOL    HW286037   1.063  12.368   6.581
94714SOL     OW86038   3.735   0.140   9.543
94714SOL    HW186039   3.738   0.133   9.638
94714SOL    HW286040   3.665   0.203   9.526
94715SOL     OW86041   2.979  12.300   7.313
94715SOL    HW186042   2.978  12.393   7.291
94715SOL    HW286043   3.057  12.266   7.268
94716SOL     OW86044   1.258  11.438   0.215
94716SOL    HW186045   1.177  11.438   0.266
94716SOL    HW286046   1.321  11.391   0.270
94717SOL     OW86047   9.963   4.479  13.651
94717SOL    HW186048   9.986   4.387  13.635
94717SOL    HW286049   9.871   4.485  13.626
94718SOL     OW86050   1.457   8.015  12.444
94718SOL    HW186051   1.510   7.950  12.489
94718SOL    HW286052   1.390   7.964  12.398
94719SOL     OW86053  11.627  11.782   2.534
94719SOL    HW186054  11.690  11.760   2.602
94719SOL    HW286055  11.561  11.836   2.578
94720SOL     OW86056   9.451  12.316  14.457
94720SOL    HW186057   9.497  12.399  14.445
94720SOL    HW286058   9.418  12.320  14.547
94721SOL     OW86059   3.859  10.832   4.059
94721SOL    HW186060   3.888  10.740   4.058
94721SOL    HW286061   3.766  10.827   4.079
94722SOL     OW86062   3.206   6.678   9.952
94722SOL    HW186063   3.258   6.655  10.029
94722SOL    HW286064   3.242   6.762   9.924
94723SOL     OW86065  13.901   7.476   5.322
94723SOL    HW186066  13.951   7.478   5.404
94723SOL    HW286067  13.912   7.564   5.286
94724SOL     OW86068   8.934  10.616  14.722
94724SOL    HW186069   8.987  10.563  14.781
94724SOL    HW286070   8.861  10.647  14.775
94725SOL     OW86071   7.199   8.532   0.593
94725SOL    HW186072   7.130   8.489   0.644
94725SOL    HW286073   7.206   8.480   0.513
94726SOL     OW86074   2.469   8.913  11.676
94726SOL    HW186075   2.393   8.871  11.636
94726SOL    HW286076   2.433   8.969  11.744
94727SOL     OW86077   9.727   5.106  10.793
94727SOL    HW186078   9.761   5.027  10.753
94727SOL    HW286079   9.732   5.172  10.725
94728SOL     OW86080  14.078   9.425  10.601
94728SOL    HW186081  14.070   9.429  10.506
94728SOL    HW286082  14.034   9.504  10.633
94729SOL     OW86083   4.903   4.126  14.396
94729SOL    HW186084   4.955   4.206  14.403
94729SOL    HW286085   4.854   4.136  14.315
94730SOL     OW86086   8.025   7.047   5.501
94730SOL    HW186087   7.971   7.126   5.495
94730SOL    HW286088   8.115   7.079   5.489
94731SOL     OW86089  12.681  12.657  10.704
94731SOL    HW186090  12.745  12.668  10.774
94731SOL    HW286091  12.706  12.574  10.662
94732SOL     OW86092   3.286   6.899   3.350
94732SOL    HW186093   3.346   6.825   3.342
94732SOL    HW286094   3.208   6.871   3.300
94733SOL     OW86095   8.085   5.811  13.592
94733SOL    HW186096   8.015   5.813  13.659
94733SOL    HW286097   8.112   5.719  13.589
94734SOL     OW86098   7.749  13.148  14.172
94734SOL    HW186099   7.794  13.070  14.204
94734SOL    HW286100   7.670  13.115  14.129
94735SOL     OW86101   7.480  12.551   1.814
94735SOL    HW186102   7.423  12.506   1.877
94735SOL    HW286103   7.532  12.481   1.775
94736SOL     OW86104  14.822  13.586   1.192
94736SOL    HW186105  14.860  13.668   1.159
94736SOL    HW286106  14.729  13.606   1.203
94737SOL     OW86107   4.052   8.302  13.059
94737SOL    HW186108   4.066   8.346  12.975
94737SOL    HW286109   4.133   8.318  13.108
94738SOL     OW86110   5.024   4.608   5.329
94738SOL    HW186111   5.002   4.692   5.369
94738SOL    HW286112   5.047   4.552   5.403
94739SOL     OW86113   5.084   5.355  13.338
94739SOL    HW186114   5.020   5.346  13.267
94739SOL    HW286115   5.083   5.448  13.360
94740SOL     OW86116   5.691   4.705  12.982
94740SOL    HW186117   5.775   4.751  12.975
94740SOL    HW286118   5.685   4.677  13.073
94741SOL     OW86119   5.318  14.493   6.623
94741SOL    HW186120   5.333  14.405   6.657
94741SOL    HW286121   5.370  14.497   6.542
94742SOL     OW86122  14.179  13.966  12.765
94742SOL    HW186123  14.122  14.029  12.721
94742SOL    HW286124  14.251  13.951  12.703
94743SOL     OW86125  10.205   4.934   7.227
94743SOL    HW186126  10.115   4.911   7.204
94743SOL    HW286127  10.259   4.891   7.160
94744SOL     OW86128  11.043  13.086   0.677
94744SOL    HW186129  11.041  13.128   0.763
94744SOL    HW286130  11.135  13.087   0.651
94745SOL     OW86131  10.454   0.792   0.382
94745SOL    HW186132  10.478   0.848   0.308
94745SOL    HW286133  10.522   0.809   0.448
94746SOL     OW86134   6.697  11.853   0.580
94746SOL    HW186135   6.620  11.910   0.573
94746SOL    HW286136   6.728  11.843   0.490
94747SOL     OW86137   3.677  11.906  11.941
94747SOL    HW186138   3.762  11.868  11.922
94747SOL    HW286139   3.662  11.968  11.870
94748SOL     OW86140   3.457  13.064  14.809
94748SOL    HW186141   3.404  12.991  14.841
94748SOL    HW286142   3.543  13.026  14.792
94749SOL     OW86143   6.268   5.402  12.103
94749SOL    HW186144   6.235   5.407  12.193
94749SOL    HW286145   6.290   5.309  12.091
94750SOL     OW86146   4.433  14.724   7.805
94750SOL    HW186147   4.510  14.672   7.826
94750SOL    HW286148   4.364  14.689   7.861
94751SOL     OW86149   2.942   8.135  13.077
94751SOL    HW186150   2.936   8.091  12.992
94751SOL    HW286151   3.034   8.160  13.084
94752SOL     OW86152  12.580  10.308   3.427
94752SOL    HW186153  12.524  10.279   3.499
94752SOL    HW286154  12.559  10.400   3.415
94753SOL     OW86155   8.781   9.625  10.400
94753SOL    HW186156   8.685   9.632  10.401
94753SOL    HW286157   8.798   9.532  10.413
94754SOL     OW86158   8.949   9.969  12.299
94754SOL    HW186159   8.967  10.036  12.365
94754SOL    HW286160   8.923  10.017  12.221
94755SOL     OW86161  14.266   2.691   9.425
94755SOL    HW186162  14.229   2.674   9.511
94755SOL    HW286163  14.263   2.607   9.380
94756SOL     OW86164   2.339   2.776   0.049
94756SOL    HW186165   2.324   2.862   0.088
94756SOL    HW286166   2.426   2.751   0.079
94757SOL     OW86167  13.730   3.394   5.176
94757SOL    HW186168  13.671   3.416   5.104
94757SOL    HW286169  13.789   3.328   5.138
94758SOL     OW86170   2.421  11.394   8.138
94758SOL    HW186171   2.442  11.485   8.157
94758SOL    HW286172   2.440  11.383   8.045
94759SOL     OW86173  14.110   2.792   9.731
94759SOL    HW186174  14.071   2.870   9.770
94759SOL    HW286175  14.204   2.804   9.742
94760SOL     OW86176   7.667   9.057   7.814
94760SOL    HW186177   7.692   9.122   7.748
94760SOL    HW286178   7.578   9.082   7.839
94761SOL     OW86179  11.809  10.715  12.516
94761SOL    HW186180  11.894  10.718  12.473
94761SOL    HW286181  11.812  10.785  12.581
94762SOL     OW86182   8.155   5.432   2.844
94762SOL    HW186183   8.170   5.525   2.862
94762SOL    HW286184   8.226   5.387   2.890
94763SOL     OW86185  14.431   9.579   1.761
94763SOL    HW186186  14.472   9.649   1.811
94763SOL    HW286187  14.406   9.514   1.826
94764SOL     OW86188  13.923  13.931  13.087
94764SOL    HW186189  14.002  13.980  13.109
94764SOL    HW286190  13.932  13.848  13.132
94765SOL     OW86191   4.939  13.092   4.501
94765SOL    HW186192   5.015  13.140   4.531
94765SOL    HW286193   4.972  13.005   4.479
94766SOL     OW86194  14.199  11.387   9.076
94766SOL    HW186195  14.267  11.363   9.138
94766SOL    HW286196  14.222  11.476   9.048
94767SOL     OW86197  13.468   9.262  14.579
94767SOL    HW186198  13.495   9.275  14.488
94767SOL    HW286199  13.528   9.317  14.630
94768SOL     OW86200   4.363   5.398  10.549
94768SOL    HW186201   4.275   5.379  10.582
94768SOL    HW286202   4.366   5.494  10.543
94769SOL     OW86203  11.020   6.554  13.828
94769SOL    HW186204  10.957   6.610  13.874
94769SOL    HW286205  10.975   6.470  13.817
94770SOL     OW86206   5.629   3.415  13.542
94770SOL    HW186207   5.646   3.437  13.633
94770SOL    HW286208   5.551   3.359  13.544
94771SOL     OW86209   7.335   2.386   2.733
94771SOL    HW186210   7.417   2.414   2.692
94771SOL    HW286211   7.358   2.306   2.780
94772SOL     OW86212   0.652   6.665  11.097
94772SOL    HW186213   0.609   6.580  11.111
94772SOL    HW286214   0.692   6.658  11.010
94773SOL     OW86215  12.587  13.584   5.624
94773SOL    HW186216  12.546  13.544   5.548
94773SOL    HW286217  12.655  13.521   5.650
94774SOL     OW86218  14.369  13.921  11.674
94774SOL    HW186219  14.333  13.835  11.650
94774SOL    HW286220  14.346  13.978  11.600
94775SOL     OW86221   9.605   1.885   0.813
94775SOL    HW186222   9.538   1.945   0.781
94775SOL    HW286223   9.670   1.941   0.855
94776SOL     OW86224   1.801   3.242   5.550
94776SOL    HW186225   1.719   3.271   5.511
94776SOL    HW286226   1.790   3.259   5.644
94777SOL     OW86227   4.810   4.742   6.843
94777SOL    HW186228   4.808   4.730   6.938
94777SOL    HW286229   4.833   4.834   6.831
94778SOL     OW86230   1.998   0.470  11.466
94778SOL    HW186231   2.016   0.475  11.560
94778SOL    HW286232   2.067   0.523  11.425
94779SOL     OW86233   5.959  12.474   3.524
94779SOL    HW186234   6.011  12.453   3.447
94779SOL    HW286235   5.877  12.508   3.488
94780SOL     OW86236  11.213   2.058   6.274
94780SOL    HW186237  11.297   2.078   6.317
94780SOL    HW286238  11.177   1.986   6.325
94781SOL     OW86239   9.602   4.611   4.540
94781SOL    HW186240   9.631   4.575   4.456
94781SOL    HW286241   9.508   4.593   4.543
94782SOL     OW86242  13.612  11.099  10.461
94782SOL    HW186243  13.640  11.152  10.536
94782SOL    HW286244  13.667  11.131  10.389
94783SOL     OW86245  11.447   0.249  13.063
94783SOL    HW186246  11.464   0.159  13.093
94783SOL    HW286247  11.401   0.238  12.979
94784SOL     OW86248   4.650   9.156   2.783
94784SOL    HW186249   4.745   9.160   2.794
94784SOL    HW286250   4.622   9.247   2.788
94785SOL     OW86251   0.394  11.293   5.635
94785SOL    HW186252   0.312  11.253   5.608
94785SOL    HW286253   0.414  11.357   5.567
94786SOL     OW86254  11.938   1.184   7.992
94786SOL    HW186255  12.023   1.163   8.033
94786SOL    HW286256  11.899   1.098   7.975
94787SOL     OW86257   8.986   0.351   1.550
94787SOL    HW186258   9.055   0.404   1.510
94787SOL    HW286259   8.994   0.368   1.644
94788SOL     OW86260  12.584   4.388   4.073
94788SOL    HW186261  12.538   4.306   4.053
94788SOL    HW286262  12.639   4.404   3.996
94789SOL     OW86263  12.811   8.830   7.805
94789SOL    HW186264  12.743   8.834   7.871
94789SOL    HW286265  12.846   8.919   7.800
94790SOL     OW86266   6.852   6.798   6.341
94790SOL    HW186267   6.760   6.773   6.341
94790SOL    HW286268   6.868   6.833   6.253
94791SOL     OW86269  14.306   4.539   3.477
94791SOL    HW186270  14.311   4.592   3.397
94791SOL    HW286271  14.367   4.467   3.462
94792SOL     OW86272   3.547  11.886  12.829
94792SOL    HW186273   3.469  11.843  12.796
94792SOL    HW286274   3.611  11.815  12.839
94793SOL     OW86275   1.578   0.669   7.671
94793SOL    HW186276   1.658   0.721   7.659
94793SOL    HW286277   1.508   0.722   7.635
94794SOL     OW86278   8.413  14.867  11.202
94794SOL    HW186279   8.396   0.060  11.144
94794SOL    HW286280   8.331  14.818  11.204
94795SOL     OW86281  13.713   8.332   1.487
94795SOL    HW186282  13.722   8.393   1.413
94795SOL    HW286283  13.652   8.266   1.455
94796SOL     OW86284  11.122  10.834   3.358
94796SOL    HW186285  11.084  10.815   3.272
94796SOL    HW286286  11.047  10.854   3.414
94797SOL     OW86287  12.133  14.586  11.697
94797SOL    HW186288  12.122  14.497  11.663
94797SOL    HW286289  12.141  14.574  11.791
94798SOL     OW86290   2.098   0.236   9.720
94798SOL    HW186291   2.036   0.210   9.789
94798SOL    HW286292   2.046   0.291   9.661
94799SOL     OW86293   7.935   8.568   1.299
94799SOL    HW186294   7.952   8.488   1.349
94799SOL    HW286295   8.006   8.572   1.235
94800SOL     OW86296  12.408  12.845  11.507
94800SOL    HW186297  12.374  12.872  11.422
94800SOL    HW286298  12.332  12.848  11.565
94801SOL     OW86299   9.378  12.525  11.766
94801SOL    HW186300   9.393  12.555  11.856
94801SOL    HW286301   9.283  12.532  11.754
94802SOL     OW86302   7.499   9.730   9.222
94802SOL    HW186303   7.571   9.790   9.201
94802SOL    HW286304   7.444   9.780   9.283
94803SOL     OW86305  12.641   5.168  11.928
94803SOL    HW186306  12.705   5.117  11.878
94803SOL    HW286307  12.575   5.105  11.956
94804SOL     OW86308   9.735  11.281   5.982
94804SOL    HW186309   9.751  11.319   6.069
94804SOL    HW286310   9.645  11.247   5.987
94805SOL     OW86311   6.913   1.492  14.417
94805SOL    HW186312   6.827   1.472  14.379
94805SOL    HW286313   6.907   1.464  14.508
94806SOL     OW86314   4.678   9.115   3.712
94806SOL    HW186315   4.749   9.051   3.707
94806SOL    HW286316   4.654   9.132   3.621
94807SOL     OW86317   2.134   7.396   7.343
94807SOL    HW186318   2.141   7.470   7.282
94807SOL    HW286319   2.136   7.436   7.430
94808SOL     OW86320   1.331   1.502  13.984
94808SOL    HW186321   1.352   1.592  13.957
94808SOL    HW286322   1.240   1.507  14.013
94809SOL     OW86323  12.295  12.486   9.162
94809SOL    HW186324  12.329  12.561   9.112
94809SOL    HW286325  12.254  12.525   9.239
94810SOL     OW86326   9.090   9.336   7.085
94810SOL    HW186327   9.080   9.251   7.129
94810SOL    HW286328   9.167   9.375   7.127
94811SOL     OW86329  13.623  14.071   8.177
94811SOL    HW186330  13.710  14.032   8.181
94811SOL    HW286331  13.564  13.997   8.168
94812SOL     OW86332  11.431   8.928   7.178
94812SOL    HW186333  11.430   8.849   7.124
94812SOL    HW286334  11.477   8.902   7.258
94813SOL     OW86335   6.715   0.358   5.462
94813SOL    HW186336   6.645   0.412   5.425
94813SOL    HW286337   6.750   0.309   5.387
94814SOL     OW86338  13.182  13.720   8.920
94814SOL    HW186339  13.106  13.749   8.870
94814SOL    HW286340  13.238  13.676   8.856
94815SOL     OW86341  13.732   1.336   4.170
94815SOL    HW186342  13.695   1.363   4.254
94815SOL    HW286343  13.824   1.320   4.188
94816SOL     OW86344   5.375   9.025   3.449
94816SOL    HW186345   5.347   9.028   3.540
94816SOL    HW286346   5.323   8.955   3.410
94817SOL     OW86347  11.105  12.925   8.136
94817SOL    HW186348  11.015  12.898   8.155
94817SOL    HW286349  11.130  12.979   8.211
94818SOL     OW86350   6.639   1.875   9.206
94818SOL    HW186351   6.671   1.962   9.181
94818SOL    HW286352   6.605   1.887   9.295
94819SOL     OW86353   1.559   5.005   7.918
94819SOL    HW186354   1.465   5.013   7.934
94819SOL    HW286355   1.599   5.026   8.003
94820SOL     OW86356  14.703  10.759   5.564
94820SOL    HW186357  14.722  10.683   5.508
94820SOL    HW286358  14.770  10.823   5.540
94821SOL     OW86359   5.652   4.133  10.983
94821SOL    HW186360   5.583   4.072  11.009
94821SOL    HW286361   5.674   4.179  11.064
94822SOL     OW86362   8.756  14.548   4.012
94822SOL    HW186363   8.766  14.549   4.107
94822SOL    HW286364   8.794  14.631   3.983
94823SOL     OW86365  10.682   8.912  10.680
94823SOL    HW186366  10.718   8.909  10.592
94823SOL    HW286367  10.705   8.828  10.719
94824SOL     OW86368   6.946   5.020   2.610
94824SOL    HW186369   7.024   4.977   2.575
94824SOL    HW286370   6.950   5.109   2.576
94825SOL     OW86371   8.295   5.389   3.678
94825SOL    HW186372   8.218   5.337   3.655
94825SOL    HW286373   8.331   5.345   3.755
94826SOL     OW86374   8.034  11.078  11.816
94826SOL    HW186375   8.001  11.115  11.734
94826SOL    HW286376   8.072  10.994  11.792
94827SOL     OW86377   8.080   9.616   0.179
94827SOL    HW186378   8.156   9.569   0.212
94827SOL    HW286379   8.024   9.629   0.256
94828SOL     OW86380  14.098   4.432  12.656
94828SOL    HW186381  14.114   4.470  12.569
94828SOL    HW286382  14.182   4.392  12.679
94829SOL     OW86383   8.421   7.760  13.127
94829SOL    HW186384   8.350   7.799  13.179
94829SOL    HW286385   8.492   7.746  13.189
94830SOL     OW86386   1.334   5.392  10.756
94830SOL    HW186387   1.379   5.430  10.681
94830SOL    HW286388   1.367   5.441  10.832
94831SOL     OW86389  13.076  10.085   2.707
94831SOL    HW186390  13.161  10.050   2.676
94831SOL    HW286391  13.040  10.014   2.760
94832SOL     OW86392  10.576   0.378   7.960
94832SOL    HW186393  10.598   0.423   7.879
94832SOL    HW286394  10.554   0.289   7.932
94833SOL     OW86395  10.642   9.996   7.996
94833SOL    HW186396  10.567  10.032   7.949
94833SOL    HW286397  10.606   9.969   8.081
94834SOL     OW86398   5.712   1.932   0.911
94834SOL    HW186399   5.636   1.991   0.914
94834SOL    HW286400   5.714   1.891   0.997
94835SOL     OW86401   1.734  13.547  10.638
94835SOL    HW186402   1.769  13.618  10.584
94835SOL    HW286403   1.642  13.540  10.613
94836SOL     OW86404   7.803   8.219  12.760
94836SOL    HW186405   7.763   8.136  12.786
94836SOL    HW286406   7.821   8.208  12.666
94837SOL     OW86407   1.435   3.317  14.786
94837SOL    HW186408   1.372   3.307  14.715
94837SOL    HW286409   1.463   3.227  14.805
94838SOL     OW86410  14.447   9.574   9.564
94838SOL    HW186411  14.407   9.661   9.576
94838SOL    HW286412  14.541   9.591   9.561
94839SOL     OW86413   7.106   4.290  13.168
94839SOL    HW186414   7.023   4.296  13.120
94839SOL    HW286415   7.082   4.305  13.259
94840SOL     OW86416  13.947   2.009  12.380
94840SOL    HW186417  14.024   2.058  12.411
94840SOL    HW286418  13.971   1.979  12.293
94841SOL     OW86419   3.499   8.090   6.040
94841SOL    HW186420   3.483   8.184   6.047
94841SOL    HW286421   3.499   8.072   5.946
94842SOL     OW86422  12.370   7.876   1.542
94842SOL    HW186423  12.275   7.870   1.551
94842SOL    HW286424  12.404   7.799   1.588
94843SOL     OW86425  14.748   1.016   4.328
94843SOL    HW186426  14.683   0.957   4.368
94843SOL    HW286427  14.831   0.989   4.368
94844SOL     OW86428   7.041   7.375   2.365
94844SOL    HW186429   7.116   7.316   2.366
94844SOL    HW286430   7.002   7.366   2.452
94845SOL     OW86431   0.065   6.677   0.763
94845SOL    HW186432   0.112   6.596   0.741
94845SOL    HW286433   0.006   6.692   0.690
94846SOL     OW86434   1.507   0.102   9.474
94846SOL    HW186435   1.548   0.189   9.481
94846SOL    HW286436   1.550   0.049   9.540
94847SOL     OW86437   5.586   6.328   0.361
94847SOL    HW186438   5.577   6.352   0.454
94847SOL    HW286439   5.528   6.252   0.351
94848SOL     OW86440   1.470   5.744   6.833
94848SOL    HW186441   1.474   5.718   6.741
94848SOL    HW286442   1.395   5.696   6.868
94849SOL     OW86443   6.667   4.574  14.636
94849SOL    HW186444   6.710   4.493  14.665
94849SOL    HW286445   6.589   4.581  14.692
94850SOL     OW86446   0.213  12.206   2.309
94850SOL    HW186447   0.220  12.149   2.386
94850SOL    HW286448   0.160  12.156   2.247
94851SOL     OW86449   7.502   2.111  14.668
94851SOL    HW186450   7.495   2.021  14.636
94851SOL    HW286451   7.595   2.131  14.663
94852SOL     OW86452   0.364   8.223  14.636
94852SOL    HW186453   0.388   8.131  14.652
94852SOL    HW286454   0.423   8.252  14.567
94853SOL     OW86455   9.180  14.369   5.676
94853SOL    HW186456   9.269  14.353   5.706
94853SOL    HW286457   9.183  14.354   5.581
94854SOL     OW86458   7.953  12.354   3.272
94854SOL    HW186459   7.873  12.337   3.321
94854SOL    HW286460   7.930  12.332   3.181
94855SOL     OW86461  11.348  12.996   6.880
94855SOL    HW186462  11.341  12.966   6.789
94855SOL    HW286463  11.315  12.922   6.932
94856SOL     OW86464  14.533   8.002  12.936
94856SOL    HW186465  14.495   8.049  12.862
94856SOL    HW286466  14.479   7.923  12.944
94857SOL     OW86467  10.510   9.615   5.056
94857SOL    HW186468  10.516   9.548   4.988
94857SOL    HW286469  10.586   9.600   5.111
94858SOL     OW86470  10.756   3.643   5.077
94858SOL    HW186471  10.714   3.672   5.159
94858SOL    HW286472  10.695   3.671   5.008
94859SOL     OW86473  12.658   3.008   8.036
94859SOL    HW186474  12.693   2.929   7.994
94859SOL    HW286475  12.618   2.976   8.117
94860SOL     OW86476   8.701   3.471   3.107
94860SOL    HW186477   8.621   3.517   3.083
94860SOL    HW286478   8.690   3.448   3.199
94861SOL     OW86479  10.472   2.970   1.609
94861SOL    HW186480  10.510   3.041   1.558
94861SOL    HW286481  10.467   2.896   1.549
94862SOL     OW86482  12.126  10.330  13.598
94862SOL    HW186483  12.104  10.338  13.505
94862SOL    HW286484  12.221  10.320  13.599
94863SOL     OW86485   8.917  14.614  13.773
94863SOL    HW186486   8.867  14.586  13.849
94863SOL    HW286487   8.962  14.694  13.802
94864SOL     OW86488  10.383   2.898   2.484
94864SOL    HW186489  10.332   2.881   2.563
94864SOL    HW286490  10.417   2.812   2.459
94865SOL     OW86491   6.686  14.407   5.127
94865SOL    HW186492   6.641  14.463   5.190
94865SOL    HW286493   6.778  14.411   5.154
94866SOL     OW86494  13.278   8.776   4.401
94866SOL    HW186495  13.320   8.699   4.364
94866SOL    HW286496  13.185   8.753   4.404
94867SOL     OW86497   2.854   4.908   9.691
94867SOL    HW186498   2.780   4.893   9.749
94867SOL    HW286499   2.844   4.999   9.662
94868SOL     OW86500   6.607   1.474   0.366
94868SOL    HW186501   6.525   1.497   0.408
94868SOL    HW286502   6.586   1.470   0.273
94869SOL     OW86503  12.300  14.274   4.416
94869SOL    HW186504  12.378  14.233   4.454
94869SOL    HW286505  12.228  14.243   4.471
94870SOL     OW86506   9.502   7.058  14.731
94870SOL    HW186507   9.528   7.013  14.651
94870SOL    HW286508   9.410   7.080  14.718
94871SOL     OW86509  11.463   2.730  11.587
94871SOL    HW186510  11.374   2.748  11.558
94871SOL    HW286511  11.452   2.687  11.672
94872SOL     OW86512   6.121   9.502  11.622
94872SOL    HW186513   6.147   9.566  11.688
94872SOL    HW286514   6.099   9.423  11.672
94873SOL     OW86515   4.294  14.805   4.637
94873SOL    HW186516   4.312  14.775   4.547
94873SOL    HW286517   4.291  14.724   4.688
94874SOL     OW86518  11.797   4.497   0.789
94874SOL    HW186519  11.732   4.549   0.837
94874SOL    HW286520  11.745   4.451   0.723
94875SOL     OW86521   2.912   2.376   8.805
94875SOL    HW186522   2.881   2.338   8.887
94875SOL    HW286523   2.892   2.308   8.739
94876SOL     OW86524  10.771  10.317   7.333
94876SOL    HW186525  10.832  10.244   7.320
94876SOL    HW286526  10.812  10.391   7.287
94877SOL     OW86527  13.154  14.063  10.723
94877SOL    HW186528  13.143  14.069  10.818
94877SOL    HW286529  13.094  14.129  10.687
94878SOL     OW86530   5.938   8.981  13.019
94878SOL    HW186531   5.849   9.017  13.018
94878SOL    HW286532   5.968   8.988  12.929
94879SOL     OW86533   1.878  10.725   4.630
94879SOL    HW186534   1.946  10.737   4.563
94879SOL    HW286535   1.814  10.793   4.611
94880SOL     OW86536   7.665   1.533   0.958
94880SOL    HW186537   7.588   1.585   0.978
94880SOL    HW286538   7.670   1.531   0.863
94881SOL     OW86539   9.046   3.391   0.901
94881SOL    HW186540   8.963   3.375   0.856
94881SOL    HW286541   9.096   3.310   0.891
94882SOL     OW86542   5.606  10.541  11.177
94882SOL    HW186543   5.561  10.619  11.208
94882SOL    HW286544   5.549  10.506  11.109
94883SOL     OW86545  12.650  12.634   3.698
94883SOL    HW186546  12.574  12.629   3.639
94883SOL    HW286547  12.646  12.723   3.733
94884SOL     OW86548   0.620   9.433  11.096
94884SOL    HW186549   0.662   9.379  11.162
94884SOL    HW286550   0.579   9.504  11.145
94885SOL     OW86551   6.577   8.337   2.368
94885SOL    HW186552   6.554   8.277   2.439
94885SOL    HW286553   6.492   8.366   2.335
94886SOL     OW86554   8.133   2.618   4.714
94886SOL    HW186555   8.186   2.547   4.749
94886SOL    HW286556   8.138   2.608   4.619
94887SOL     OW86557  13.381   8.246  12.100
94887SOL    HW186558  13.334   8.328  12.117
94887SOL    HW286559  13.387   8.241  12.005
94888SOL     OW86560  14.605  10.654   4.127
94888SOL    HW186561  14.611  10.714   4.052
94888SOL    HW286562  14.635  10.570   4.092
94889SOL     OW86563   9.317   3.540   3.065
94889SOL    HW186564   9.394   3.494   3.032
94889SOL    HW286565   9.305   3.613   3.003
94890SOL     OW86566   4.315   4.501   4.940
94890SOL    HW186567   4.222   4.483   4.949
94890SOL    HW286568   4.351   4.491   5.028
94891SOL     OW86569  10.089   5.973  10.591
94891SOL    HW186570  10.115   6.062  10.615
94891SOL    HW286571  10.002   5.983  10.552
94892SOL     OW86572   4.186  10.356  14.136
94892SOL    HW186573   4.211  10.377  14.226
94892SOL    HW286574   4.236  10.277  14.115
94893SOL     OW86575  10.040   1.985  12.728
94893SOL    HW186576  10.032   2.059  12.789
94893SOL    HW286577  10.134   1.970  12.721
94894SOL     OW86578  10.605  14.843   1.846
94894SOL    HW186579  10.617   0.052   1.879
94894SOL    HW286580  10.653  14.841   1.763
94895SOL     OW86581   5.971   7.791   7.249
94895SOL    HW186582   5.988   7.718   7.189
94895SOL    HW286583   6.018   7.865   7.212
94896SOL     OW86584   3.399   9.214   6.357
94896SOL    HW186585   3.358   9.202   6.271
94896SOL    HW286586   3.471   9.151   6.357
94897SOL     OW86587   8.764  10.903  12.406
94897SOL    HW186588   8.836  10.850  12.370
94897SOL    HW286589   8.782  10.908  12.500
94898SOL     OW86590   9.757  13.188   7.310
94898SOL    HW186591   9.747  13.120   7.377
94898SOL    HW286592   9.850  13.185   7.287
94899SOL     OW86593  13.959   1.132   0.356
94899SOL    HW186594  13.919   1.054   0.395
94899SOL    HW286595  13.940   1.202   0.418
94900SOL     OW86596  11.382   1.456  10.805
94900SOL    HW186597  11.435   1.379  10.783
94900SOL    HW286598  11.439   1.507  10.863
94901SOL     OW86599   6.500   5.981   1.807
94901SOL    HW186600   6.484   5.889   1.827
94901SOL    HW286601   6.523   5.982   1.714
94902SOL     OW86602  13.630  10.793   1.484
94902SOL    HW186603  13.558  10.856   1.487
94902SOL    HW286604  13.706  10.842   1.513
94903SOL     OW86605  11.009  12.370   9.094
94903SOL    HW186606  11.092  12.334   9.065
94903SOL    HW286607  10.943  12.325   9.040
94904SOL     OW86608   3.453   4.909   3.204
94904SOL    HW186609   3.518   4.839   3.216
94904SOL    HW286610   3.482   4.956   3.126
94905SOL     OW86611   8.173   7.057  14.525
94905SOL    HW186612   8.260   7.078  14.493
94905SOL    HW286613   8.117   7.056  14.447
94906SOL     OW86614   3.340   9.438   6.543
94906SOL    HW186615   3.341   9.367   6.478
94906SOL    HW286616   3.409   9.498   6.514
94907SOL     OW86617   8.438   0.566  13.742
94907SOL    HW186618   8.356   0.518  13.752
94907SOL    HW286619   8.450   0.574  13.647
94908SOL     OW86620   0.705   9.296   3.333
94908SOL    HW186621   0.765   9.231   3.297
94908SOL    HW286622   0.653   9.325   3.258
94909SOL     OW86623  12.015  13.554   7.301
94909SOL    HW186624  12.107  13.532   7.289
94909SOL    HW286625  12.002  13.632   7.247
94910SOL     OW86626   9.900   5.931   1.400
94910SOL    HW186627   9.922   5.913   1.491
94910SOL    HW286628   9.813   5.972   1.404
94911SOL     OW86629   1.992   4.415   7.259
94911SOL    HW186630   1.936   4.464   7.199
94911SOL    HW286631   1.954   4.327   7.261
94912SOL     OW86632   5.416   7.971  10.849
94912SOL    HW186633   5.466   7.930  10.779
94912SOL    HW286634   5.330   7.988  10.810
94913SOL     OW86635   7.002   3.659   9.779
94913SOL    HW186636   6.947   3.731   9.810
94913SOL    HW286637   7.088   3.676   9.817
94914SOL     OW86638  13.223  10.324  14.402
94914SOL    HW186639  13.150  10.279  14.445
94914SOL    HW286640  13.293  10.260  14.400
94915SOL     OW86641  10.712   8.320   6.380
94915SOL    HW186642  10.723   8.315   6.285
94915SOL    HW286643  10.685   8.410   6.397
94916SOL     OW86644   9.288  10.159   4.832
94916SOL    HW186645   9.317  10.225   4.895
94916SOL    HW286646   9.269  10.082   4.886
94917SOL     OW86647  13.292   8.609   5.258
94917SOL    HW186648  13.347   8.606   5.337
94917SOL    HW286649  13.212   8.653   5.286
94918SOL     OW86650   5.503   0.684   0.021
94918SOL    HW186651   5.587   0.651   0.054
94918SOL    HW286652   5.484   0.761   0.075
94919SOL     OW86653   4.287  10.054   7.534
94919SOL    HW186654   4.349  10.118   7.568
94919SOL    HW286655   4.287  10.068   7.439
94920SOL     OW86656   6.338   3.539  10.474
94920SOL    HW186657   6.343   3.588  10.392
94920SOL    HW286658   6.404   3.579  10.530
94921SOL     OW86659   0.499   1.027  12.201
94921SOL    HW186660   0.573   0.966  12.202
94921SOL    HW286661   0.533   1.105  12.159
94922SOL     OW86662  11.386  10.866   6.655
94922SOL    HW186663  11.317  10.847   6.719
94922SOL    HW286664  11.392  10.787   6.603
94923SOL     OW86665   3.667  14.332   4.982
94923SOL    HW186666   3.679  14.240   4.958
94923SOL    HW286667   3.725  14.345   5.057
94924SOL     OW86668   3.592   0.840  13.461
94924SOL    HW186669   3.573   0.933  13.467
94924SOL    HW286670   3.507   0.799  13.445
94925SOL     OW86671   0.055   8.574   4.366
94925SOL    HW186672   0.092   8.489   4.392
94925SOL    HW286673   0.131   8.628   4.346
94926SOL     OW86674  12.529  14.376   0.491
94926SOL    HW186675  12.468  14.413   0.427
94926SOL    HW286676  12.579  14.450   0.522
94927SOL     OW86677   3.777  14.126   5.935
94927SOL    HW186678   3.861  14.162   5.964
94927SOL    HW286679   3.800  14.059   5.870
94928SOL     OW86680   6.883   4.426  14.853
94928SOL    HW186681   6.810   4.381  14.812
94928SOL    HW286682   6.917   4.485  14.785
94929SOL     OW86683   6.563  11.958   9.893
94929SOL    HW186684   6.475  11.963   9.856
94929SOL    HW286685   6.594  11.870   9.871
94930SOL     OW86686  11.567   7.674   9.236
94930SOL    HW186687  11.639   7.736   9.255
94930SOL    HW286688  11.488   7.725   9.252
94931SOL     OW86689   2.576  10.581   1.754
94931SOL    HW186690   2.623  10.551   1.832
94931SOL    HW286691   2.602  10.520   1.685
94932SOL     OW86692   1.110   0.170  14.638
94932SOL    HW186693   1.123   0.262  14.617
94932SOL    HW286694   1.190   0.144  14.683
94933SOL     OW86695  11.607   0.031   6.788
94933SOL    HW186696  11.540   0.057   6.852
94933SOL    HW286697  11.577  14.826   6.756
94934SOL     OW86698   2.117   0.300   6.738
94934SOL    HW186699   2.031   0.314   6.698
94934SOL    HW286700   2.111   0.215   6.781
94935SOL     OW86701   0.084  11.705  12.880
94935SOL    HW186702   0.055  11.614  12.871
94935SOL    HW286703   0.141  11.719  12.804
94936SOL     OW86704  14.309   4.461   0.806
94936SOL    HW186705  14.315   4.480   0.713
94936SOL    HW286706  14.379   4.398   0.822
94937SOL     OW86707   8.593  14.367   4.349
94937SOL    HW186708   8.636  14.452   4.355
94937SOL    HW286709   8.588  14.349   4.255
94938SOL     OW86710  10.725   5.330   6.292
94938SOL    HW186711  10.704   5.252   6.343
94938SOL    HW286712  10.818   5.345   6.309
94939SOL     OW86713   5.608   3.676  13.872
94939SOL    HW186714   5.518   3.652  13.893
94939SOL    HW286715   5.602   3.722  13.788
94940SOL     OW86716   6.356  13.463   7.275
94940SOL    HW186717   6.447  13.476   7.299
94940SOL    HW286718   6.322  13.401   7.340
94941SOL     OW86719   7.580   6.668   7.107
94941SOL    HW186720   7.584   6.756   7.145
94941SOL    HW286721   7.509   6.673   7.044
94942SOL     OW86722   0.576  11.750  13.243
94942SOL    HW186723   0.636  11.816  13.209
94942SOL    HW286724   0.496  11.798  13.263
94943SOL     OW86725   7.718   5.682  11.211
94943SOL    HW186726   7.704   5.619  11.140
94943SOL    HW286727   7.800   5.726  11.188
94944SOL     OW86728   7.374  10.518  11.353
94944SOL    HW186729   7.429  10.577  11.405
94944SOL    HW286730   7.308  10.575  11.314
94945SOL     OW86731   0.407  12.403   2.548
94945SOL    HW186732   0.398  12.418   2.642
94945SOL    HW286733   0.351  12.328   2.530
94946SOL     OW86734  12.115   6.046   2.371
94946SOL    HW186735  12.159   5.989   2.434
94946SOL    HW286736  12.135   6.006   2.286
94947SOL     OW86737   8.251   6.418   9.021
94947SOL    HW186738   8.327   6.458   8.980
94947SOL    HW286739   8.179   6.434   8.960
94948SOL     OW86740   1.882   2.766   2.850
94948SOL    HW186741   1.829   2.696   2.812
94948SOL    HW286742   1.873   2.839   2.788
94949SOL     OW86743   4.115   6.772  11.656
94949SOL    HW186744   4.061   6.752  11.579
94949SOL    HW286745   4.147   6.686  11.685
94950SOL     OW86746  13.971   4.907   0.700
94950SOL    HW186747  13.953   4.829   0.752
94950SOL    HW286748  13.925   4.978   0.746
94951SOL     OW86749   3.167   2.938  13.685
94951SOL    HW186750   3.090   2.956  13.739
94951SOL    HW286751   3.227   2.893  13.744
94952SOL     OW86752  13.266  10.692   4.056
94952SOL    HW186753  13.287  10.724   4.144
94952SOL    HW286754  13.221  10.609   4.072
94953SOL     OW86755  10.257   9.819   9.264
94953SOL    HW186756  10.185   9.835   9.203
94953SOL    HW286757  10.325   9.779   9.210
94954SOL     OW86758   8.978   3.712   7.418
94954SOL    HW186759   8.883   3.705   7.422
94954SOL    HW286760   9.010   3.630   7.456
94955SOL     OW86761   3.413   7.346   0.840
94955SOL    HW186762   3.406   7.368   0.748
94955SOL    HW286763   3.375   7.420   0.886
94956SOL     OW86764   5.525   6.641  10.950
94956SOL    HW186765   5.534   6.563  10.895
94956SOL    HW286766   5.612   6.654  10.988
94957SOL     OW86767   7.667   8.492   4.548
94957SOL    HW186768   7.600   8.560   4.536
94957SOL    HW286769   7.618   8.414   4.572
94958SOL     OW86770  12.590  14.352   5.925
94958SOL    HW186771  12.586  14.413   5.851
94958SOL    HW286772  12.625  14.405   5.997
94959SOL     OW86773  13.368   6.178   6.072
94959SOL    HW186774  13.327   6.138   5.995
94959SOL    HW286775  13.405   6.105   6.121
94960SOL     OW86776  13.052   8.552   5.812
94960SOL    HW186777  13.028   8.589   5.727
94960SOL    HW286778  12.969   8.539   5.857
94961SOL     OW86779   7.512   0.403  14.604
94961SOL    HW186780   7.503   0.492  14.638
94961SOL    HW286781   7.605   0.393  14.586
94962SOL     OW86782  10.531  13.045   2.735
94962SOL    HW186783  10.564  12.961   2.767
94962SOL    HW286784  10.451  13.060   2.786
94963SOL     OW86785  10.453  10.676   0.041
94963SOL    HW186786  10.459  10.731  14.843
94963SOL    HW286787  10.467  10.587   0.009
94964SOL     OW86788   1.079   2.475  13.629
94964SOL    HW186789   1.059   2.441  13.716
94964SOL    HW286790   1.125   2.404  13.585
94965SOL     OW86791  14.275   9.670   6.045
94965SOL    HW186792  14.211   9.623   6.099
94965SOL    HW286793  14.226   9.746   6.012
94966SOL     OW86794   6.493   0.927   1.963
94966SOL    HW186795   6.484   1.006   2.016
94966SOL    HW286796   6.584   0.926   1.936
94967SOL     OW86797  10.672   1.309  10.042
94967SOL    HW186798  10.591   1.311   9.991
94967SOL    HW286799  10.655   1.245  10.111
94968SOL     OW86800   5.793   8.364   0.519
94968SOL    HW186801   5.755   8.285   0.481
94968SOL    HW286802   5.731   8.434   0.495
94969SOL     OW86803   9.844  10.411   3.025
94969SOL    HW186804   9.852  10.322   2.992
94969SOL    HW286805   9.855  10.402   3.120
94970SOL     OW86806   2.500  14.601   5.931
94970SOL    HW186807   2.594  14.583   5.939
94970SOL    HW286808   2.466  14.525   5.883
94971SOL     OW86809   3.841  12.236  10.923
94971SOL    HW186810   3.895  12.244  10.844
94971SOL    HW286811   3.768  12.180  10.896
94972SOL     OW86812   8.162  12.914   0.507
94972SOL    HW186813   8.091  12.867   0.551
94972SOL    HW286814   8.151  12.893   0.414
94973SOL     OW86815   3.131   3.188   4.209
94973SOL    HW186816   3.045   3.145   4.215
94973SOL    HW286817   3.131   3.252   4.280
94974SOL     OW86818   1.865   5.248  14.474
94974SOL    HW186819   1.888   5.339  14.488
94974SOL    HW286820   1.770   5.247  14.470
94975SOL     OW86821  10.864  10.229  11.076
94975SOL    HW186822  10.822  10.314  11.068
94975SOL    HW286823  10.958  10.248  11.070
94976SOL     OW86824   2.616  11.751   5.857
94976SOL    HW186825   2.566  11.832   5.854
94976SOL    HW286826   2.656  11.743   5.771
94977SOL     OW86827   2.023   2.012   1.358
94977SOL    HW186828   2.025   2.101   1.322
94977SOL    HW286829   1.950   2.013   1.419
94978SOL     OW86830   5.382   7.095  12.954
94978SOL    HW186831   5.334   7.148  12.889
94978SOL    HW286832   5.465   7.076  12.912
94979SOL     OW86833  10.518   3.726   4.937
94979SOL    HW186834  10.486   3.652   4.886
94979SOL    HW286835  10.567   3.779   4.874
94980SOL     OW86836   5.828   2.152  10.285
94980SOL    HW186837   5.877   2.160  10.204
94980SOL    HW286838   5.848   2.231  10.334
94981SOL     OW86839   0.353   2.485   4.303
94981SOL    HW186840   0.449   2.492   4.303
94981SOL    HW286841   0.329   2.481   4.211
94982SOL     OW86842   9.092   0.431   1.802
94982SOL    HW186843   9.186   0.430   1.781
94982SOL    HW286844   9.074   0.342   1.835
94983SOL     OW86845   8.912   0.132  12.279
94983SOL    HW186846   8.974   0.168  12.341
94983SOL    HW286847   8.938   0.168  12.194
94984SOL     OW86848   9.585   5.651  11.395
94984SOL    HW186849   9.522   5.632  11.464
94984SOL    HW286850   9.531   5.677  11.320
94985SOL     OW86851   8.212   8.638   1.644
94985SOL    HW186852   8.172   8.725   1.650
94985SOL    HW286853   8.181   8.592   1.721
94986SOL     OW86854   2.753   4.795   2.977
94986SOL    HW186855   2.842   4.828   2.961
94986SOL    HW286856   2.697   4.851   2.923
94987SOL     OW86857   3.965   3.107   8.923
94987SOL    HW186858   3.979   3.142   8.835
94987SOL    HW286859   3.914   3.027   8.909
94988SOL     OW86860   2.393  12.654   7.097
94988SOL    HW186861   2.348  12.627   7.018
94988SOL    HW286862   2.437  12.575   7.129
94989SOL     OW86863   7.080   2.247   9.631
94989SOL    HW186864   7.106   2.258   9.722
94989SOL    HW286865   6.984   2.247   9.633
94990SOL     OW86866  10.833   6.581   0.764
94990SOL    HW186867  10.892   6.655   0.765
94990SOL    HW286868  10.812   6.565   0.857
94991SOL     OW86869   6.146   0.899   0.368
94991SOL    HW186870   6.196   0.976   0.396
94991SOL    HW286871   6.065   0.902   0.419
94992SOL     OW86872   1.773  13.116   4.536
94992SOL    HW186873   1.847  13.129   4.476
94992SOL    HW286874   1.810  13.130   4.623
94993SOL     OW86875   1.479   8.348   2.975
94993SOL    HW186876   1.435   8.432   2.964
94993SOL    HW286877   1.510   8.324   2.888
94994SOL     OW86878   3.901   1.521   6.108
94994SOL    HW186879   3.989   1.500   6.076
94994SOL    HW286880   3.915   1.594   6.169
94995SOL     OW86881  14.446   7.899  12.410
94995SOL    HW186882  14.481   7.850  12.336
94995SOL    HW286883  14.411   7.979  12.372
94996SOL     OW86884   1.327   9.781   3.690
94996SOL    HW186885   1.349   9.745   3.605
94996SOL    HW286886   1.394   9.748   3.749
94997SOL     OW86887  11.622  10.928  11.656
94997SOL    HW186888  11.629  10.994  11.724
94997SOL    HW286889  11.547  10.874  11.682
94998SOL     OW86890  11.732  10.714   5.483
94998SOL    HW186891  11.818  10.732   5.522
94998SOL    HW286892  11.752  10.673   5.399
94999SOL     OW86893   7.293   1.548  11.766
94999SOL    HW186894   7.209   1.538  11.812
94999SOL    HW286895   7.270   1.585  11.681
95000SOL     OW86896  12.223   8.284   3.442
95000SOL    HW186897  12.274   8.306   3.364
95000SOL    HW286898  12.256   8.343   3.509
95001SOL     OW86899   8.558   6.470   6.440
95001SOL    HW186900   8.605   6.431   6.514
95001SOL    HW286901   8.492   6.525   6.481
95002SOL     OW86902  11.709   8.800   6.459
95002SOL    HW186903  11.652   8.876   6.448
95002SOL    HW286904  11.654   8.735   6.503
95003SOL     OW86905   3.573   8.481   9.554
95003SOL    HW186906   3.606   8.466   9.465
95003SOL    HW286907   3.632   8.430   9.610
95004SOL     OW86908  11.512  10.430   8.965
95004SOL    HW186909  11.586  10.386   9.008
95004SOL    HW286910  11.502  10.511   9.015
95005SOL     OW86911   0.284  13.739  13.213
95005SOL    HW186912   0.314  13.746  13.303
95005SOL    HW286913   0.227  13.662  13.213
95006SOL     OW86914  14.537   2.389   7.409
95006SOL    HW186915  14.544   2.295   7.393
95006SOL    HW286916  14.498   2.396   7.496
95007SOL     OW86917   4.206  10.833  11.638
95007SOL    HW186918   4.242  10.840  11.726
95007SOL    HW286919   4.148  10.908  11.629
95008SOL     OW86920   6.440   0.473  13.250
95008SOL    HW186921   6.406   0.448  13.164
95008SOL    HW286922   6.503   0.543  13.232
95009SOL     OW86923   9.499  11.972   8.262
95009SOL    HW186924   9.430  12.030   8.229
95009SOL    HW286925   9.505  11.902   8.196
95010SOL     OW86926   1.619  14.052   6.268
95010SOL    HW186927   1.620  13.957   6.278
95010SOL    HW286928   1.526  14.075   6.263
95011SOL     OW86929  14.632   2.616  11.576
95011SOL    HW186930  14.663   2.673  11.646
95011SOL    HW286931  14.713   2.582  11.537
95012SOL     OW86932  11.254   7.781   3.008
95012SOL    HW186933  11.246   7.715   2.938
95012SOL    HW286934  11.323   7.746   3.065
95013SOL     OW86935   4.443   2.776   8.046
95013SOL    HW186936   4.379   2.804   7.980
95013SOL    HW286937   4.468   2.858   8.090
95014SOL     OW86938   5.775   0.825   2.439
95014SOL    HW186939   5.784   0.785   2.352
95014SOL    HW286940   5.862   0.862   2.456
95015SOL     OW86941  10.371   9.908  11.612
95015SOL    HW186942  10.288   9.901  11.660
95015SOL    HW286943  10.345   9.909  11.520
95016SOL     OW86944   8.019  10.355   9.043
95016SOL    HW186945   8.114  10.356   9.045
95016SOL    HW286946   7.996  10.365   8.951
95017SOL     OW86947   4.831   9.325   8.510
95017SOL    HW186948   4.819   9.404   8.456
95017SOL    HW286949   4.798   9.349   8.596
95018SOL     OW86950   2.554   1.920   6.813
95018SOL    HW186951   2.527   1.831   6.788
95018SOL    HW286952   2.501   1.978   6.758
95019SOL     OW86953   4.793   5.968  11.566
95019SOL    HW186954   4.863   6.031  11.553
95019SOL    HW286955   4.825   5.887  11.526
95020SOL     OW86956   2.640   5.889   5.456
95020SOL    HW186957   2.670   5.874   5.366
95020SOL    HW286958   2.565   5.830   5.466
95021SOL     OW86959  10.808   0.499  14.220
95021SOL    HW186960  10.854   0.415  14.214
95021SOL    HW286961  10.851   0.555  14.156
95022SOL     OW86962   4.147   9.208   9.304
95022SOL    HW186963   4.054   9.231   9.293
95022SOL    HW286964   4.147   9.137   9.367
95023SOL     OW86965   0.922   3.970  13.402
95023SOL    HW186966   0.844   4.022  13.384
95023SOL    HW286967   0.972   3.974  13.320
95024SOL     OW86968   3.949  13.496  13.243
95024SOL    HW186969   3.886  13.425  13.258
95024SOL    HW286970   4.030  13.464  13.282
95025SOL     OW86971   6.569  11.130   2.791
95025SOL    HW186972   6.596  11.044   2.760
95025SOL    HW286973   6.513  11.164   2.722
95026SOL     OW86974   1.036   7.800  12.449
95026SOL    HW186975   1.116   7.849  12.472
95026SOL    HW286976   1.058   7.709  12.470
95027SOL     OW86977   7.950   0.252   5.773
95027SOL    HW186978   7.959   0.200   5.853
95027SOL    HW286979   8.019   0.219   5.715
95028SOL     OW86980  13.261   0.464  12.756
95028SOL    HW186981  13.291   0.537  12.810
95028SOL    HW286982  13.318   0.391  12.780
95029SOL     OW86983   0.177   5.509   4.350
95029SOL    HW186984   0.240   5.539   4.284
95029SOL    HW286985   0.145   5.425   4.315
95030SOL     OW86986   9.676   1.716  12.166
95030SOL    HW186987   9.598   1.699  12.218
95030SOL    HW286988   9.666   1.662  12.088
95031SOL     OW86989   5.724   2.669   6.647
95031SOL    HW186990   5.745   2.761   6.663
95031SOL    HW286991   5.631   2.669   6.626
95032SOL     OW86992  12.494  12.732   9.473
95032SOL    HW186993  12.563  12.700   9.530
95032SOL    HW286994  12.434  12.779   9.532
95033SOL     OW86995   3.538  10.407  10.869
95033SOL    HW186996   3.575  10.320  10.884
95033SOL    HW286997   3.539  10.417  10.774
95034SOL     OW86998  12.866   1.492   4.579
95034SOL    HW186999  12.914   1.542   4.645
95034SOL    HW287000  12.782   1.474   4.620
95035SOL     OW87001   7.606   4.656   9.605
95035SOL    HW187002   7.634   4.747   9.601
95035SOL    HW287003   7.551   4.651   9.683
95036SOL     OW87004   6.376   7.450  14.067
95036SOL    HW187005   6.413   7.511  14.131
95036SOL    HW287006   6.283   7.446  14.089
95037SOL     OW87007  11.990   0.454   1.323
95037SOL    HW187008  11.941   0.530   1.293
95037SOL    HW287009  12.073   0.458   1.275
95038SOL     OW87010   9.983   7.796   6.584
95038SOL    HW187011  10.013   7.752   6.664
95038SOL    HW287012   9.938   7.728   6.534
95039SOL     OW87013  10.891  11.500   7.129
95039SOL    HW187014  10.829  11.479   7.059
95039SOL    HW287015  10.888  11.596   7.135
95040SOL     OW87016  12.574   5.539   1.519
95040SOL    HW187017  12.594   5.466   1.460
95040SOL    HW287018  12.658   5.579   1.537
95041SOL     OW87019   5.143  13.805   0.432
95041SOL    HW187020   5.154  13.798   0.337
95041SOL    HW287021   5.229  13.833   0.464
95042SOL     OW87022  12.001   7.548  13.262
95042SOL    HW187023  12.042   7.519  13.344
95042SOL    HW287024  11.977   7.639  13.278
95043SOL     OW87025   8.776   8.290  14.046
95043SOL    HW187026   8.688   8.315  14.019
95043SOL    HW287027   8.832   8.323  13.975
95044SOL     OW87028   0.128  10.261   6.538
95044SOL    HW187029   0.195  10.245   6.604
95044SOL    HW287030   0.119  10.357   6.535
95045SOL     OW87031   3.178   7.783   9.035
95045SOL    HW187032   3.128   7.860   9.009
95045SOL    HW287033   3.257   7.786   8.981
95046SOL     OW87034   3.873   0.427   4.284
95046SOL    HW187035   3.806   0.495   4.284
95046SOL    HW287036   3.889   0.408   4.192
95047SOL     OW87037   3.000  11.991  12.681
95047SOL    HW187038   2.929  11.974  12.619
95047SOL    HW287039   3.004  11.913  12.736
95048SOL     OW87040   4.372   7.129  10.079
95048SOL    HW187041   4.455   7.086  10.099
95048SOL    HW287042   4.345   7.091   9.995
95049SOL     OW87043   8.741   3.863   3.666
95049SOL    HW187044   8.708   3.930   3.726
95049SOL    HW287045   8.833   3.887   3.652
95050SOL     OW87046   5.797   2.787   7.804
95050SOL    HW187047   5.876   2.822   7.762
95050SOL    HW287048   5.747   2.865   7.827
95051SOL     OW87049  10.222   5.975  14.369
95051SOL    HW187050  10.194   5.969  14.460
95051SOL    HW287051  10.171   5.908  14.323
95052SOL     OW87052   6.378   4.677   8.436
95052SOL    HW187053   6.385   4.680   8.341
95052SOL    HW287054   6.315   4.746   8.459
95053SOL     OW87055  13.202   0.032  12.192
95053SOL    HW187056  13.185  14.835  12.139
95053SOL    HW287057  13.240  14.877  12.273
95054SOL     OW87058   4.185   7.535   7.581
95054SOL    HW187059   4.194   7.500   7.670
95054SOL    HW287060   4.211   7.626   7.589
95055SOL     OW87061  10.952   0.673   0.188
95055SOL    HW187062  11.021   0.636   0.244
95055SOL    HW287063  10.886   0.604   0.184
95056SOL     OW87064   5.482  13.731   2.375
95056SOL    HW187065   5.463  13.728   2.281
95056SOL    HW287066   5.572  13.762   2.380
95057SOL     OW87067   4.038   8.152  14.274
95057SOL    HW187068   4.002   8.213  14.339
95057SOL    HW287069   4.095   8.206  14.220
95058SOL     OW87070   4.891   5.395   4.289
95058SOL    HW187071   4.817   5.454   4.273
95058SOL    HW287072   4.938   5.393   4.205
95059SOL     OW87073   6.827   1.955   0.366
95059SOL    HW187074   6.819   1.877   0.312
95059SOL    HW287075   6.827   1.923   0.456
95060SOL     OW87076  11.526   7.865  13.566
95060SOL    HW187077  11.494   7.887  13.654
95060SOL    HW287078  11.618   7.889  13.567
95061SOL     OW87079   4.644   7.110   2.193
95061SOL    HW187080   4.677   7.065   2.116
95061SOL    HW287081   4.668   7.201   2.180
95062SOL     OW87082   5.066   9.689   4.319
95062SOL    HW187083   4.970   9.689   4.314
95062SOL    HW287084   5.088   9.603   4.355
95063SOL     OW87085   1.768   9.721  14.604
95063SOL    HW187086   1.755   9.742  14.697
95063SOL    HW287087   1.682   9.736  14.565
95064SOL     OW87088  10.663   6.607   2.623
95064SOL    HW187089  10.707   6.561   2.695
95064SOL    HW287090  10.629   6.687   2.663
95065SOL     OW87091  10.159   1.306   4.106
95065SOL    HW187092  10.154   1.213   4.085
95065SOL    HW287093  10.253   1.326   4.102
95066SOL     OW87094  12.727   8.171   0.898
95066SOL    HW187095  12.648   8.153   0.948
95066SOL    HW287096  12.695   8.196   0.811
95067SOL     OW87097  12.218   1.366  13.550
95067SOL    HW187098  12.218   1.399  13.460
95067SOL    HW287099  12.246   1.440  13.603
95068SOL     OW87100   4.336  12.017   4.177
95068SOL    HW187101   4.343  11.922   4.183
95068SOL    HW287102   4.384  12.040   4.098
95069SOL     OW87103   0.249   7.306  10.099
95069SOL    HW187104   0.217   7.231  10.149
95069SOL    HW287105   0.333   7.327  10.139
95070SOL     OW87106  11.039   6.341   4.425
95070SOL    HW187107  11.073   6.429   4.439
95070SOL    HW287108  11.068   6.291   4.502
95071SOL     OW87109   8.497   6.582   0.233
95071SOL    HW187110   8.559   6.508   0.233
95071SOL    HW287111   8.542   6.650   0.182
95072SOL     OW87112   3.075   2.103   3.500
95072SOL    HW187113   3.138   2.042   3.538
95072SOL    HW287114   2.990   2.063   3.518
95073SOL     OW87115  11.333   0.795   7.724
95073SOL    HW187116  11.373   0.711   7.746
95073SOL    HW287117  11.359   0.810   7.633
95074SOL     OW87118   5.381   2.346   1.903
95074SOL    HW187119   5.346   2.266   1.864
95074SOL    HW287120   5.473   2.345   1.880
95075SOL     OW87121   7.087   4.256  14.014
95075SOL    HW187122   7.016   4.309  14.052
95075SOL    HW287123   7.118   4.203  14.088
95076SOL     OW87124   7.544  10.506   8.686
95076SOL    HW187125   7.636  10.530   8.697
95076SOL    HW287126   7.502  10.533   8.767
95077SOL     OW87127   6.799   3.155  10.232
95077SOL    HW187128   6.874   3.212  10.248
95077SOL    HW287129   6.723   3.209  10.253
95078SOL     OW87130  12.724   0.683   5.691
95078SOL    HW187131  12.782   0.709   5.620
95078SOL    HW287132  12.642   0.660   5.647
95079SOL     OW87133   7.710   7.288   9.731
95079SOL    HW187134   7.796   7.328   9.715
95079SOL    HW287135   7.683   7.323   9.816
95080SOL     OW87136  10.099  11.257  12.354
95080SOL    HW187137  10.004  11.265  12.364
95080SOL    HW287138  10.126  11.341  12.315
95081SOL     OW87139  14.368   4.198   0.164
95081SOL    HW187140  14.382   4.290   0.189
95081SOL    HW287141  14.282   4.176   0.199
95082SOL     OW87142  14.203   4.907   3.916
95082SOL    HW187143  14.233   4.849   3.845
95082SOL    HW287144  14.279   4.917   3.972
95083SOL     OW87145   0.484   7.309   1.449
95083SOL    HW187146   0.537   7.312   1.529
95083SOL    HW287147   0.456   7.218   1.442
95084SOL     OW87148   9.342   4.729   4.139
95084SOL    HW187149   9.274   4.776   4.091
95084SOL    HW287150   9.417   4.789   4.138
95085SOL     OW87151   8.459  13.334   8.559
95085SOL    HW187152   8.367  13.311   8.567
95085SOL    HW287153   8.489  13.287   8.481
95086SOL     OW87154   5.682   5.962   2.833
95086SOL    HW187155   5.601   5.941   2.878
95086SOL    HW287156   5.718   5.877   2.806
95087SOL     OW87157   0.329   5.547   6.228
95087SOL    HW187158   0.374   5.465   6.244
95087SOL    HW287159   0.237   5.528   6.246
95088SOL     OW87160   5.502   9.846  13.762
95088SOL    HW187161   5.586   9.883  13.738
95088SOL    HW287162   5.514   9.815  13.852
95089SOL     OW87163  10.532   7.291   5.332
95089SOL    HW187164  10.528   7.200   5.361
95089SOL    HW287165  10.440   7.316   5.318
95090SOL     OW87166   1.826  14.082   6.700
95090SOL    HW187167   1.795  14.019   6.765
95090SOL    HW287168   1.808  14.167   6.740
95091SOL     OW87169   6.768   5.717   8.240
95091SOL    HW187170   6.862   5.701   8.237
95091SOL    HW287171   6.729   5.633   8.265
95092SOL     OW87172  10.391   4.159  10.901
95092SOL    HW187173  10.369   4.238  10.852
95092SOL    HW287174  10.475   4.180  10.943
95093SOL     OW87175  12.344   8.553  10.983
95093SOL    HW187176  12.415   8.579  10.925
95093SOL    HW287177  12.387   8.515  11.059
95094SOL     OW87178  10.911   9.532   3.333
95094SOL    HW187179  10.826   9.574   3.322
95094SOL    HW287180  10.916   9.513   3.427
95095SOL     OW87181   5.948   3.211  10.230
95095SOL    HW187182   5.988   3.135  10.187
95095SOL    HW287183   6.022   3.270  10.247
95096SOL     OW87184   4.180  14.597  13.954
95096SOL    HW187185   4.238  14.633  13.887
95096SOL    HW287186   4.238  14.554  14.016
95097SOL     OW87187  11.659   5.809   3.712
95097SOL    HW187188  11.585   5.843   3.663
95097SOL    HW287189  11.733   5.865   3.688
95098SOL     OW87190  12.007  12.492  12.220
95098SOL    HW187191  12.062  12.535  12.154
95098SOL    HW287192  11.971  12.416  12.175
95099SOL     OW87193  14.302  13.717   1.867
95099SOL    HW187194  14.381  13.754   1.828
95099SOL    HW287195  14.232  13.742   1.806
95100SOL     OW87196  10.009   9.586   6.375
95100SOL    HW187197   9.950   9.617   6.444
95100SOL    HW287198   9.955   9.584   6.296
95101SOL     OW87199   8.680   8.011  13.906
95101SOL    HW187200   8.693   8.076  13.975
95101SOL    HW287201   8.622   8.054  13.844
95102SOL     OW87202   5.052  12.286   7.632
95102SOL    HW187203   5.027  12.279   7.540
95102SOL    HW287204   5.003  12.215   7.675
95103SOL     OW87205   9.127   7.696   5.184
95103SOL    HW187206   9.127   7.659   5.096
95103SOL    HW287207   9.212   7.740   5.192
95104SOL     OW87208   3.308  11.765   8.755
95104SOL    HW187209   3.384  11.708   8.743
95104SOL    HW287210   3.269  11.736   8.837
95105SOL     OW87211   5.599   8.413  10.914
95105SOL    HW187212   5.550   8.331  10.911
95105SOL    HW287213   5.531   8.481  10.906
95106SOL     OW87214   7.465   2.606  13.612
95106SOL    HW187215   7.529   2.634  13.546
95106SOL    HW287216   7.479   2.511  13.620
95107SOL     OW87217   4.130   9.874   4.236
95107SOL    HW187218   4.195   9.913   4.177
95107SOL    HW287219   4.125   9.782   4.208
95108SOL     OW87220  10.537   6.113   8.481
95108SOL    HW187221  10.450   6.094   8.515
95108SOL    HW287222  10.589   6.036   8.503
95109SOL     OW87223   1.405   6.483   3.863
95109SOL    HW187224   1.403   6.501   3.957
95109SOL    HW287225   1.323   6.519   3.830
95110SOL     OW87226   9.248   5.297   7.968
95110SOL    HW187227   9.274   5.258   7.885
95110SOL    HW287228   9.323   5.280   8.026
95111SOL     OW87229   3.106  13.849   2.535
95111SOL    HW187230   3.104  13.941   2.508
95111SOL    HW287231   3.020  13.815   2.512
95112SOL     OW87232   4.393  12.330  11.017
95112SOL    HW187233   4.358  12.295  10.935
95112SOL    HW287234   4.462  12.390  10.990
95113SOL     OW87235   8.749   1.778   7.160
95113SOL    HW187236   8.837   1.817   7.163
95113SOL    HW287237   8.697   1.834   7.217
95114SOL     OW87238   5.901  11.825  13.311
95114SOL    HW187239   5.891  11.916  13.338
95114SOL    HW287240   5.995  11.814  13.298
95115SOL     OW87241  11.700   2.621  13.775
95115SOL    HW187242  11.734   2.551  13.720
95115SOL    HW287243  11.617   2.586  13.810
95116SOL     OW87244  10.556   7.685  12.884
95116SOL    HW187245  10.587   7.730  12.963
95116SOL    HW287246  10.499   7.615  12.916
95117SOL     OW87247  10.994   7.219   3.992
95117SOL    HW187248  11.059   7.236   4.060
95117SOL    HW287249  11.040   7.162   3.930
95118SOL     OW87250   8.425   0.035   7.806
95118SOL    HW187251   8.371   0.053   7.729
95118SOL    HW287252   8.514   0.051   7.776
95119SOL     OW87253   4.025  11.944   1.228
95119SOL    HW187254   4.059  11.963   1.141
95119SOL    HW287255   3.960  12.013   1.244
95120SOL     OW87256   3.527  13.996   2.738
95120SOL    HW187257   3.489  13.940   2.670
95120SOL    HW287258   3.480  13.974   2.818
95121SOL     OW87259   8.413  10.063   3.271
95121SOL    HW187260   8.328  10.064   3.227
95121SOL    HW287261   8.443   9.972   3.263
95122SOL     OW87262   2.038   6.043   5.814
95122SOL    HW187263   2.023   6.103   5.741
95122SOL    HW287264   2.089   6.095   5.877
95123SOL     OW87265   4.116  11.206   8.225
95123SOL    HW187266   4.108  11.299   8.249
95123SOL    HW287267   4.026  11.174   8.225
95124SOL     OW87268   3.995  13.687   8.295
95124SOL    HW187269   3.924  13.659   8.237
95124SOL    HW287270   3.966  13.661   8.383
95125SOL     OW87271   3.746  11.682   7.301
95125SOL    HW187272   3.777  11.653   7.215
95125SOL    HW287273   3.762  11.776   7.301
95126SOL     OW87274  12.709   0.376   0.781
95126SOL    HW187275  12.626   0.388   0.735
95126SOL    HW287276  12.776   0.390   0.713
95127SOL     OW87277  11.231   2.051   6.005
95127SOL    HW187278  11.247   2.037   6.099
95127SOL    HW287279  11.174   2.128   6.002
95128SOL     OW87280  14.139   6.353  12.378
95128SOL    HW187281  14.225   6.314  12.392
95128SOL    HW287282  14.133   6.423  12.443
95129SOL     OW87283   6.266  12.319   4.713
95129SOL    HW187284   6.350  12.276   4.699
95129SOL    HW287285   6.237  12.343   4.625
95130SOL     OW87286   5.174  12.655  11.758
95130SOL    HW187287   5.227  12.719  11.711
95130SOL    HW287288   5.234  12.582  11.774
95131SOL     OW87289   0.177   0.416  14.562
95131SOL    HW187290   0.113   0.485  14.579
95131SOL    HW287291   0.215   0.396  14.648
95132SOL     OW87292   1.980   1.301  14.222
95132SOL    HW187293   1.989   1.229  14.160
95132SOL    HW287294   1.898   1.283  14.268
95133SOL     OW87295   0.318   6.577   5.799
95133SOL    HW187296   0.378   6.545   5.866
95133SOL    HW287297   0.335   6.671   5.794
95134SOL     OW87298  12.736  12.875   8.239
95134SOL    HW187299  12.663  12.820   8.265
95134SOL    HW287300  12.735  12.875   8.143
95135SOL     OW87301  12.819   7.338  10.422
95135SOL    HW187302  12.791   7.321  10.512
95135SOL    HW287303  12.764   7.412  10.394
95136SOL     OW87304   3.517  12.226   7.655
95136SOL    HW187305   3.517  12.262   7.567
95136SOL    HW287306   3.425  12.223   7.680
95137SOL     OW87307   8.412   5.959   0.917
95137SOL    HW187308   8.460   5.985   0.996
95137SOL    HW287309   8.414   5.864   0.918
95138SOL     OW87310  10.342  12.307   9.416
95138SOL    HW187311  10.393  12.325   9.337
95138SOL    HW287312  10.405  12.314   9.487
95139SOL     OW87313   5.169  12.651   0.614
95139SOL    HW187314   5.102  12.654   0.683
95139SOL    HW287315   5.208  12.738   0.615
95140SOL     OW87316   9.183   4.390  14.856
95140SOL    HW187317   9.186   4.476   0.018
95140SOL    HW287318   9.092   4.362  14.865
95141SOL     OW87319  11.730   0.717   2.766
95141SOL    HW187320  11.647   0.757   2.739
95141SOL    HW287321  11.783   0.716   2.687
95142SOL     OW87322   5.507   1.400  12.583
95142SOL    HW187323   5.426   1.410  12.634
95142SOL    HW287324   5.563   1.471  12.613
95143SOL     OW87325  11.576   5.197   4.898
95143SOL    HW187326  11.513   5.158   4.958
95143SOL    HW287327  11.635   5.126   4.875
95144SOL     OW87328   7.902   1.074   2.977
95144SOL    HW187329   7.817   1.115   2.960
95144SOL    HW287330   7.916   1.015   2.903
95145SOL     OW87331  12.030  13.541   8.077
95145SOL    HW187332  12.055  13.632   8.094
95145SOL    HW287333  12.010  13.539   7.983
95146SOL     OW87334   8.178  14.322   4.666
95146SOL    HW187335   8.212  14.258   4.604
95146SOL    HW287336   8.256  14.353   4.713
95147SOL     OW87337   0.529  11.925   7.156
95147SOL    HW187338   0.478  11.988   7.106
95147SOL    HW287339   0.614  11.923   7.112
95148SOL     OW87340  12.842  13.432   7.798
95148SOL    HW187341  12.871  13.500   7.858
95148SOL    HW287342  12.913  13.423   7.735
95149SOL     OW87343   1.878  11.183   4.290
95149SOL    HW187344   1.806  11.196   4.228
95149SOL    HW287345   1.858  11.240   4.364
95150SOL     OW87346   3.014   5.155   3.049
95150SOL    HW187347   2.970   5.206   2.981
95150SOL    HW287348   3.040   5.074   3.005
95151SOL     OW87349  14.221   9.525   6.488
95151SOL    HW187350  14.146   9.551   6.541
95151SOL    HW287351  14.293   9.579   6.520
95152SOL     OW87352  10.305  11.767  10.295
95152SOL    HW187353  10.265  11.844  10.255
95152SOL    HW287354  10.243  11.739  10.362
95153SOL     OW87355   3.993  13.048   6.957
95153SOL    HW187356   3.983  13.134   6.999
95153SOL    HW287357   3.942  12.988   7.012
95154SOL     OW87358   0.856   0.645   2.021
95154SOL    HW187359   0.774   0.674   2.061
95154SOL    HW287360   0.888   0.721   1.972
95155SOL     OW87361   2.271  13.338   6.292
95155SOL    HW187362   2.288  13.416   6.238
95155SOL    HW287363   2.311  13.266   6.243
95156SOL     OW87364  13.614   5.553   7.769
95156SOL    HW187365  13.622   5.467   7.809
95156SOL    HW287366  13.593   5.535   7.677
95157SOL     OW87367  11.611   8.883   4.983
95157SOL    HW187368  11.705   8.893   4.999
95157SOL    HW287369  11.596   8.929   4.900
95158SOL     OW87370  11.154   4.390   5.147
95158SOL    HW187371  11.095   4.460   5.120
95158SOL    HW287372  11.110   4.350   5.222
95159SOL     OW87373  14.765  10.099   3.499
95159SOL    HW187374  14.790  10.191   3.489
95159SOL    HW287375  14.848  10.053   3.508
95160SOL     OW87376   4.361  10.306   8.305
95160SOL    HW187377   4.328  10.393   8.283
95160SOL    HW287378   4.340  10.252   8.229
95161SOL     OW87379  11.303   8.388   0.644
95161SOL    HW187380  11.302   8.424   0.733
95161SOL    HW287381  11.219   8.343   0.635
95162SOL     OW87382   3.254  11.882   4.240
95162SOL    HW187383   3.343  11.895   4.210
95162SOL    HW287384   3.263  11.836   4.324
95163SOL     OW87385   9.300   0.568   1.029
95163SOL    HW187386   9.372   0.524   1.074
95163SOL    HW287387   9.242   0.497   1.002
95164SOL     OW87388   2.866   1.465   8.564
95164SOL    HW187389   2.819   1.452   8.646
95164SOL    HW287390   2.958   1.454   8.588
95165SOL     OW87391  11.895  10.630   3.194
95165SOL    HW187392  11.965  10.583   3.238
95165SOL    HW287393  11.914  10.622   3.101
95166SOL     OW87394   8.296   4.059  10.332
95166SOL    HW187395   8.322   3.969  10.351
95166SOL    HW287396   8.264   4.056  10.242
95167SOL     OW87397   2.470   6.099  12.600
95167SOL    HW187398   2.521   6.102  12.681
95167SOL    HW287399   2.527   6.136  12.533
95168SOL     OW87400   5.985   2.668   9.493
95168SOL    HW187401   6.048   2.598   9.473
95168SOL    HW287402   6.037   2.734   9.539
95169SOL     OW87403   8.070   0.753   8.554
95169SOL    HW187404   8.101   0.704   8.478
95169SOL    HW287405   8.077   0.845   8.528
95170SOL     OW87406   9.108   4.344   4.153
95170SOL    HW187407   9.097   4.311   4.242
95170SOL    HW287408   9.048   4.419   4.147
95171SOL     OW87409   1.923   9.775   3.662
95171SOL    HW187410   1.930   9.790   3.757
95171SOL    HW287411   1.891   9.857   3.627
95172SOL     OW87412  14.710  10.849   3.250
95172SOL    HW187413  14.692  10.756   3.237
95172SOL    HW287414  14.631  10.893   3.220
95173SOL     OW87415  10.517  12.472   6.686
95173SOL    HW187416  10.498  12.452   6.594
95173SOL    HW287417  10.443  12.434   6.734
95174SOL     OW87418   1.260  13.172  12.768
95174SOL    HW187419   1.235  13.082  12.747
95174SOL    HW287420   1.279  13.211  12.683
95175SOL     OW87421  14.787  12.407   8.522
95175SOL    HW187422  14.725  12.340   8.553
95175SOL    HW287423  14.743  12.447   8.447
95176SOL     OW87424   3.070  12.612   3.643
95176SOL    HW187425   3.078  12.684   3.580
95176SOL    HW287426   3.083  12.533   3.590
95177SOL     OW87427   7.371  10.418   7.142
95177SOL    HW187428   7.305  10.424   7.211
95177SOL    HW287429   7.360  10.329   7.107
95178SOL     OW87430  10.246   1.285   6.272
95178SOL    HW187431  10.290   1.202   6.294
95178SOL    HW287432  10.243   1.332   6.355
95179SOL     OW87433   7.931   2.623   8.604
95179SOL    HW187434   7.849   2.573   8.602
95179SOL    HW287435   7.940   2.649   8.696
95180SOL     OW87436   6.252   9.642   4.660
95180SOL    HW187437   6.299   9.653   4.578
95180SOL    HW287438   6.214   9.554   4.655
95181SOL     OW87439  12.511   4.310  10.598
95181SOL    HW187440  12.533   4.400  10.573
95181SOL    HW287441  12.543   4.256  10.526
95182SOL     OW87442   5.091   1.814   3.517
95182SOL    HW187443   5.019   1.817   3.580
95182SOL    HW287444   5.138   1.896   3.531
95183SOL     OW87445   5.040  11.799  13.732
95183SOL    HW187446   5.014  11.765  13.647
95183SOL    HW287447   4.958  11.823  13.775
95184SOL     OW87448  12.265   8.032   6.081
95184SOL    HW187449  12.313   8.111   6.059
95184SOL    HW287450  12.255   7.986   5.998
95185SOL     OW87451   2.677   0.293   6.884
95185SOL    HW187452   2.690   0.233   6.958
95185SOL    HW287453   2.614   0.358   6.917
95186SOL     OW87454   5.612  10.183  10.945
95186SOL    HW187455   5.663  10.252  10.901
95186SOL    HW287456   5.558  10.230  11.008
95187SOL     OW87457  13.077   7.533  12.272
95187SOL    HW187458  13.128   7.576  12.341
95187SOL    HW287459  13.109   7.443  12.270
95188SOL     OW87460   9.479   1.674   2.170
95188SOL    HW187461   9.543   1.657   2.101
95188SOL    HW287462   9.492   1.602   2.232
95189SOL     OW87463   4.742  14.133   7.828
95189SOL    HW187464   4.691  14.111   7.906
95189SOL    HW287465   4.721  14.064   7.765
95190SOL     OW87466   2.148   4.900  13.694
95190SOL    HW187467   2.078   4.951  13.654
95190SOL    HW287468   2.114   4.876  13.780
95191SOL     OW87469   8.354  10.036   2.529
95191SOL    HW187470   8.303   9.966   2.488
95191SOL    HW287471   8.322  10.039   2.619
95192SOL     OW87472  13.347  10.936  11.627
95192SOL    HW187473  13.262  10.979  11.627
95192SOL    HW287474  13.349  10.886  11.708
95193SOL     OW87475   4.999   9.170  10.365
95193SOL    HW187476   4.919   9.188  10.316
95193SOL    HW287477   5.067   9.161  10.299
95194SOL     OW87478   4.010   1.404   1.278
95194SOL    HW187479   4.067   1.471   1.240
95194SOL    HW287480   4.064   1.325   1.278
95195SOL     OW87481  11.233   3.446   4.735
95195SOL    HW187482  11.146   3.430   4.699
95195SOL    HW287483  11.223   3.436   4.830
95196SOL     OW87484  14.136   5.631   4.749
95196SOL    HW187485  14.172   5.677   4.673
95196SOL    HW287486  14.138   5.697   4.819
95197SOL     OW87487   3.613   0.769  10.248
95197SOL    HW187488   3.623   0.678  10.221
95197SOL    HW287489   3.592   0.816  10.167
95198SOL     OW87490   6.314   1.468   6.001
95198SOL    HW187491   6.401   1.451   6.037
95198SOL    HW287492   6.290   1.554   6.036
95199SOL     OW87493  14.230  10.673  10.519
95199SOL    HW187494  14.276  10.754  10.537
95199SOL    HW287495  14.292  10.604  10.542
95200SOL     OW87496   7.369   5.892   1.784
95200SOL    HW187497   7.325   5.873   1.700
95200SOL    HW287498   7.300   5.880   1.850
95201SOL     OW87499   1.305   3.350  14.054
95201SOL    HW187500   1.262   3.341  13.969
95201SOL    HW287501   1.240   3.319  14.117
95202SOL     OW87502   4.976  12.320   3.087
95202SOL    HW187503   5.013  12.392   3.036
95202SOL    HW287504   4.955  12.253   3.021
95203SOL     OW87505  10.319  13.998  11.680
95203SOL    HW187506  10.256  14.030  11.745
95203SOL    HW287507  10.275  13.923  11.639
95204SOL     OW87508   2.248   9.145   6.134
95204SOL    HW187509   2.161   9.171   6.165
95204SOL    HW287510   2.303   9.222   6.149
95205SOL     OW87511   0.340  11.977   0.175
95205SOL    HW187512   0.303  11.901   0.131
95205SOL    HW287513   0.414  12.003   0.119
95206SOL     OW87514   5.438   4.750   8.316
95206SOL    HW187515   5.489   4.829   8.332
95206SOL    HW287516   5.347   4.779   8.318
95207SOL     OW87517  13.095  10.814   7.093
95207SOL    HW187518  13.074  10.729   7.131
95207SOL    HW287519  13.070  10.877   7.160
95208SOL     OW87520   6.694   5.111   8.417
95208SOL    HW187521   6.617   5.059   8.393
95208SOL    HW287522   6.687   5.120   8.512
95209SOL     OW87523   3.201   8.528   6.616
95209SOL    HW187524   3.155   8.600   6.659
95209SOL    HW287525   3.264   8.571   6.558
95210SOL     OW87526   0.589  11.741  10.896
95210SOL    HW187527   0.495  11.745  10.881
95210SOL    HW287528   0.610  11.648  10.897
95211SOL     OW87529   2.320   0.388  14.777
95211SOL    HW187530   2.414   0.373  14.773
95211SOL    HW287531   2.309   0.450  14.849
95212SOL     OW87532   3.280  14.681   9.676
95212SOL    HW187533   3.311  14.673   9.586
95212SOL    HW287534   3.351  14.645   9.729
95213SOL     OW87535   7.253   1.894   5.839
95213SOL    HW187536   7.313   1.850   5.899
95213SOL    HW287537   7.302   1.971   5.808
95214SOL     OW87538   2.867   5.021  13.417
95214SOL    HW187539   2.778   4.993  13.441
95214SOL    HW287540   2.883   5.098  13.471
95215SOL     OW87541  14.580  13.129   9.635
95215SOL    HW187542  14.566  13.058   9.574
95215SOL    HW287543  14.641  13.094   9.700
95216SOL     OW87544   5.415   6.217   3.759
95216SOL    HW187545   5.498   6.262   3.746
95216SOL    HW287546   5.411   6.200   3.853
95217SOL     OW87547   5.676   7.204   0.783
95217SOL    HW187548   5.615   7.166   0.846
95217SOL    HW287549   5.741   7.250   0.836
95218SOL     OW87550   5.018   6.617   6.479
95218SOL    HW187551   5.065   6.687   6.434
95218SOL    HW287552   5.075   6.592   6.551
95219SOL     OW87553   7.242  11.001   8.887
95219SOL    HW187554   7.265  11.073   8.829
95219SOL    HW287555   7.304  10.932   8.866
95220SOL     OW87556   1.913   1.535  10.340
95220SOL    HW187557   1.892   1.540  10.247
95220SOL    HW287558   2.008   1.531  10.344
95221SOL     OW87559   2.914   0.625   8.330
95221SOL    HW187560   2.957   0.539   8.329
95221SOL    HW287561   2.820   0.605   8.331
95222SOL     OW87562   3.690   2.939   2.672
95222SOL    HW187563   3.757   2.900   2.616
95222SOL    HW287564   3.608   2.905   2.638
95223SOL     OW87565  14.718   2.592  14.861
95223SOL    HW187566  14.765   2.581  14.779
95223SOL    HW287567  14.786   2.621   0.043
95224SOL     OW87568   8.675  11.654   6.338
95224SOL    HW187569   8.671  11.602   6.258
95224SOL    HW287570   8.608  11.616   6.395
95225SOL     OW87571  12.808   6.576   4.193
95225SOL    HW187572  12.764   6.574   4.277
95225SOL    HW287573  12.880   6.638   4.204
95226SOL     OW87574  13.288   1.972   1.297
95226SOL    HW187575  13.282   1.935   1.386
95226SOL    HW287576  13.360   2.035   1.302
95227SOL     OW87577  14.155   1.212   1.138
95227SOL    HW187578  14.086   1.151   1.110
95227SOL    HW287579  14.225   1.156   1.170
95228SOL     OW87580   0.577   3.140   2.462
95228SOL    HW187581   0.482   3.156   2.467
95228SOL    HW287582   0.617   3.218   2.500
95229SOL     OW87583   2.143  13.640   1.407
95229SOL    HW187584   2.202  13.600   1.343
95229SOL    HW287585   2.140  13.577   1.479
95230SOL     OW87586   6.781  13.804  13.799
95230SOL    HW187587   6.743  13.729  13.846
95230SOL    HW287588   6.718  13.875  13.811
95231SOL     OW87589  12.480  14.200   7.747
95231SOL    HW187590  12.499  14.115   7.786
95231SOL    HW287591  12.565  14.241   7.735
95232SOL     OW87592  13.867   3.933   7.189
95232SOL    HW187593  13.953   3.974   7.192
95232SOL    HW287594  13.819   3.972   7.263
95233SOL     OW87595   3.924  10.753  14.126
95233SOL    HW187596   3.953  10.740  14.216
95233SOL    HW287597   3.928  10.848  14.113
95234SOL     OW87598  12.798  10.296   2.249
95234SOL    HW187599  12.752  10.352   2.312
95234SOL    HW287600  12.874  10.264   2.298
95235SOL     OW87601  12.493   3.219   8.010
95235SOL    HW187602  12.475   3.212   7.916
95235SOL    HW287603  12.575   3.171   8.022
95236SOL     OW87604   6.853  13.864  10.700
95236SOL    HW187605   6.914  13.868  10.627
95236SOL    HW287606   6.859  13.950  10.741
95237SOL     OW87607   1.244  12.125   2.393
95237SOL    HW187608   1.277  12.196   2.449
95237SOL    HW287609   1.178  12.081   2.447
95238SOL     OW87610   5.264  10.238   4.897
95238SOL    HW187611   5.248  10.240   4.991
95238SOL    HW287612   5.177  10.235   4.857
95239SOL     OW87613  13.820   2.766   2.074
95239SOL    HW187614  13.840   2.684   2.029
95239SOL    HW287615  13.790   2.825   2.005
95240SOL     OW87616   1.566  11.888   3.798
95240SOL    HW187617   1.488  11.942   3.792
95240SOL    HW287618   1.637  11.946   3.770
95241SOL     OW87619   5.594   1.421   6.270
95241SOL    HW187620   5.672   1.463   6.234
95241SOL    HW287621   5.587   1.338   6.224
95242SOL     OW87622   9.441  14.079   5.529
95242SOL    HW187623   9.379  14.069   5.458
95242SOL    HW287624   9.515  14.126   5.490
95243SOL     OW87625   1.937   5.078  13.561
95243SOL    HW187626   1.891   5.155  13.592
95243SOL    HW287627   1.868   5.018  13.534
95244SOL     OW87628  11.084   2.141  11.145
95244SOL    HW187629  11.003   2.103  11.112
95244SOL    HW287630  11.096   2.221  11.095
95245SOL     OW87631   9.621   7.738  10.787
95245SOL    HW187632   9.561   7.807  10.815
95245SOL    HW287633   9.670   7.776  10.714
95246SOL     OW87634  11.615  12.710   3.023
95246SOL    HW187635  11.562  12.631   3.014
95246SOL    HW287636  11.570  12.776   2.971
95247SOL     OW87637   0.168   6.544   6.350
95247SOL    HW187638   0.080   6.520   6.320
95247SOL    HW287639   0.186   6.484   6.423
95248SOL     OW87640   1.155   5.612   5.442
95248SOL    HW187641   1.129   5.546   5.377
95248SOL    HW287642   1.178   5.560   5.519
95249SOL     OW87643   3.003   0.440   3.213
95249SOL    HW187644   3.003   0.534   3.197
95249SOL    HW287645   3.092   0.420   3.241
95250SOL     OW87646  13.336   0.920  11.137
95250SOL    HW187647  13.339   0.825  11.127
95250SOL    HW287648  13.249   0.938  11.173
95251SOL     OW87649   5.962   2.065  13.111
95251SOL    HW187650   5.900   2.113  13.056
95251SOL    HW287651   5.913   1.990  13.143
95252SOL     OW87652  14.232  10.943   3.948
95252SOL    HW187653  14.320  10.971   3.926
95252SOL    HW287654  14.216  10.978   4.036
95253SOL     OW87655   5.500   0.659  11.508
95253SOL    HW187656   5.494   0.737  11.563
95253SOL    HW287657   5.500   0.586  11.570
95254SOL     OW87658   6.850   0.998   4.732
95254SOL    HW187659   6.848   0.951   4.648
95254SOL    HW287660   6.829   1.089   4.709
95255SOL     OW87661   8.341   5.688   7.899
95255SOL    HW187662   8.332   5.632   7.822
95255SOL    HW287663   8.387   5.633   7.963
95256SOL     OW87664   7.397   5.967  11.763
95256SOL    HW187665   7.463   5.901  11.742
95256SOL    HW287666   7.340   5.925  11.827
95257SOL     OW87667   7.605   9.449   1.594
95257SOL    HW187668   7.627   9.475   1.683
95257SOL    HW287669   7.669   9.493   1.539
95258SOL     OW87670  13.799  13.125  14.563
95258SOL    HW187671  13.844  13.044  14.588
95258SOL    HW287672  13.710  13.113  14.595
95259SOL     OW87673   0.031   2.545  12.153
95259SOL    HW187674   0.026   2.460  12.110
95259SOL    HW287675   0.053   2.524  12.244
95260SOL     OW87676   0.833   9.721   4.470
95260SOL    HW187677   0.818   9.644   4.525
95260SOL    HW287678   0.923   9.748   4.490
95261SOL     OW87679   3.387   5.021  12.087
95261SOL    HW187680   3.295   5.049  12.091
95261SOL    HW287681   3.426   5.076  12.020
95262SOL     OW87682   9.011   4.690  12.111
95262SOL    HW187683   9.102   4.703  12.087
95262SOL    HW287684   9.009   4.701  12.206
95263SOL     OW87685  10.872   6.577   1.063
95263SOL    HW187686  10.914   6.663   1.066
95263SOL    HW287687  10.838   6.563   1.151
95264SOL     OW87688   5.978   5.199   8.741
95264SOL    HW187689   5.977   5.200   8.645
95264SOL    HW287690   5.908   5.259   8.767
95265SOL     OW87691   2.112   8.020   4.696
95265SOL    HW187692   2.068   8.085   4.751
95265SOL    HW287693   2.158   8.072   4.630
95266SOL     OW87694   9.880   5.570   2.825
95266SOL    HW187695   9.857   5.607   2.910
95266SOL    HW287696   9.915   5.643   2.775
95267SOL     OW87697  10.965  13.793   3.582
95267SOL    HW187698  11.060  13.798   3.571
95267SOL    HW287699  10.950  13.711   3.628
95268SOL     OW87700   5.007   8.487   5.874
95268SOL    HW187701   4.926   8.443   5.846
95268SOL    HW287702   5.021   8.456   5.964
95269SOL     OW87703  13.600   3.437   0.722
95269SOL    HW187704  13.601   3.466   0.814
95269SOL    HW287705  13.686   3.396   0.710
95270SOL     OW87706  10.513   2.088  13.469
95270SOL    HW187707  10.583   2.149  13.494
95270SOL    HW287708  10.435   2.124  13.511
95271SOL     OW87709   3.797   7.184   6.963
95271SOL    HW187710   3.707   7.195   6.994
95271SOL    HW287711   3.829   7.107   7.009
95272SOL     OW87712   0.162   9.498   6.566
95272SOL    HW187713   0.155   9.581   6.519
95272SOL    HW287714   0.072   9.474   6.587
95273SOL     OW87715  12.192   7.520   9.484
95273SOL    HW187716  12.279   7.514   9.525
95273SOL    HW287717  12.183   7.439   9.435
95274SOL     OW87718   1.895   3.859   6.138
95274SOL    HW187719   1.952   3.934   6.122
95274SOL    HW287720   1.945   3.802   6.196
95275SOL     OW87721   1.125  12.353  11.044
95275SOL    HW187722   1.185  12.293  11.089
95275SOL    HW287723   1.175  12.382  10.967
95276SOL     OW87724   6.906   1.277  13.653
95276SOL    HW187725   6.901   1.333  13.730
95276SOL    HW287726   6.997   1.246  13.652
95277SOL     OW87727  10.816   3.517  14.500
95277SOL    HW187728  10.795   3.443  14.442
95277SOL    HW287729  10.814   3.479  14.588
95278SOL     OW87730   0.922   5.305  10.399
95278SOL    HW187731   0.975   5.314  10.478
95278SOL    HW287732   0.854   5.371  10.408
95279SOL     OW87733   4.218   3.802   6.679
95279SOL    HW187734   4.211   3.868   6.748
95279SOL    HW287735   4.190   3.847   6.599
95280SOL     OW87736  14.863   2.521   7.169
95280SOL    HW187737  14.777   2.547   7.202
95280SOL    HW287738   0.015   2.599   7.123
95281SOL     OW87739   0.680   4.418   6.722
95281SOL    HW187740   0.724   4.365   6.788
95281SOL    HW287741   0.705   4.508   6.743
95282SOL     OW87742   0.237   3.117   0.050
95282SOL    HW187743   0.211   3.207   0.071
95282SOL    HW287744   0.332   3.121   0.040
95283SOL     OW87745   5.328   1.086   4.213
95283SOL    HW187746   5.401   1.146   4.226
95283SOL    HW287747   5.257   1.123   4.265
95284SOL     OW87748  13.289  10.130  14.076
95284SOL    HW187749  13.363  10.075  14.103
95284SOL    HW287750  13.230  10.069  14.031
95285SOL     OW87751   1.201   3.231   0.128
95285SOL    HW187752   1.200   3.309   0.185
95285SOL    HW287753   1.152   3.258   0.051
95286SOL     OW87754   7.486   2.191   8.830
95286SOL    HW187755   7.547   2.217   8.898
95286SOL    HW287756   7.433   2.122   8.869
95287SOL     OW87757   2.016   8.672  10.392
95287SOL    HW187758   2.013   8.640  10.482
95287SOL    HW287759   2.110   8.683  10.374
95288SOL     OW87760   5.769   2.236   3.117
95288SOL    HW187761   5.682   2.272   3.103
95288SOL    HW287762   5.805   2.285   3.191
95289SOL     OW87763   9.021   6.498   0.177
95289SOL    HW187764   9.106   6.473   0.143
95289SOL    HW287765   9.013   6.453   0.261
95290SOL     OW87766   2.820   1.531  10.388
95290SOL    HW187767   2.879   1.593  10.344
95290SOL    HW287768   2.873   1.453  10.402
95291SOL     OW87769   2.580   8.967  14.054
95291SOL    HW187770   2.609   9.011  13.975
95291SOL    HW287771   2.526   9.032  14.099
95292SOL     OW87772   1.449   5.524  14.754
95292SOL    HW187773   1.436   5.619  14.754
95292SOL    HW287774   1.541   5.512  14.774
95293SOL     OW87775   1.835  12.326   7.239
95293SOL    HW187776   1.745  12.355   7.230
95293SOL    HW287777   1.882  12.369   7.168
95294SOL     OW87778   8.474   0.301  10.569
95294SOL    HW187779   8.443   0.235  10.631
95294SOL    HW287780   8.432   0.382  10.599
95295SOL     OW87781  12.233  13.899   6.524
95295SOL    HW187782  12.307  13.944   6.484
95295SOL    HW287783  12.260  13.887   6.616
95296SOL     OW87784  14.018   8.932   2.542
95296SOL    HW187785  13.971   8.947   2.460
95296SOL    HW287786  14.025   8.837   2.548
95297SOL     OW87787   8.638  10.553   0.052
95297SOL    HW187788   8.674  10.517   0.134
95297SOL    HW287789   8.625  10.477  14.876
95298SOL     OW87790  11.337   7.427   2.971
95298SOL    HW187791  11.355   7.491   2.901
95298SOL    HW287792  11.368   7.344   2.936
95299SOL     OW87793   9.911   5.436   5.795
95299SOL    HW187794   9.999   5.466   5.772
95299SOL    HW287795   9.897   5.470   5.884
95300SOL     OW87796  13.841  14.158   1.612
95300SOL    HW187797  13.894  14.142   1.533
95300SOL    HW287798  13.792  14.077   1.624
95301SOL     OW87799   0.466   3.594  14.220
95301SOL    HW187800   0.401   3.654  14.256
95301SOL    HW287801   0.460   3.605  14.125
95302SOL     OW87802   7.858   7.978  13.561
95302SOL    HW187803   7.798   8.035  13.609
95302SOL    HW287804   7.802   7.917  13.514
95303SOL     OW87805   5.051   0.163   9.308
95303SOL    HW187806   4.966   0.175   9.267
95303SOL    HW287807   5.033   0.111   9.386
95304SOL     OW87808  12.366  14.770   5.429
95304SOL    HW187809  12.394  14.859   5.453
95304SOL    HW287810  12.321  14.781   5.345
95305SOL     OW87811  10.951   4.293   6.740
95305SOL    HW187812  10.983   4.236   6.809
95305SOL    HW287813  10.934   4.377   6.783
95306SOL     OW87814  11.871   2.599   3.194
95306SOL    HW187815  11.861   2.674   3.136
95306SOL    HW287816  11.965   2.583   3.197
95307SOL     OW87817   3.947   0.427  12.858
95307SOL    HW187818   3.891   0.426  12.781
95307SOL    HW287819   4.030   0.464  12.828
95308SOL     OW87820   2.013   7.953   9.420
95308SOL    HW187821   2.081   8.020   9.421
95308SOL    HW287822   1.930   8.002   9.417
95309SOL     OW87823   6.234  12.828  14.344
95309SOL    HW187824   6.218  12.911  14.300
95309SOL    HW287825   6.215  12.846  14.436
95310SOL     OW87826   0.936  10.453  10.259
95310SOL    HW187827   0.997  10.404  10.313
95310SOL    HW287828   0.945  10.415  10.171
95311SOL     OW87829   7.326  12.012  12.343
95311SOL    HW187830   7.308  12.035  12.252
95311SOL    HW287831   7.387  12.080  12.373
95312SOL     OW87832   4.406   4.333   6.010
95312SOL    HW187833   4.372   4.286   6.086
95312SOL    HW287834   4.356   4.298   5.936
95313SOL     OW87835   0.242  11.598   8.224
95313SOL    HW187836   0.329  11.602   8.264
95313SOL    HW287837   0.191  11.542   8.282
95314SOL     OW87838   5.006  11.661   7.562
95314SOL    HW187839   5.001  11.754   7.584
95314SOL    HW287840   4.942  11.620   7.620
95315SOL     OW87841   9.497   5.358  13.134
95315SOL    HW187842   9.456   5.425  13.080
95315SOL    HW287843   9.452   5.364  13.218
95316SOL     OW87844  12.716   1.043   0.703
95316SOL    HW187845  12.748   0.966   0.655
95316SOL    HW287846  12.690   1.008   0.789
95317SOL     OW87847   1.835   8.199   2.181
95317SOL    HW187848   1.788   8.161   2.107
95317SOL    HW287849   1.883   8.126   2.219
95318SOL     OW87850   8.092  13.947   7.467
95318SOL    HW187851   8.141  14.027   7.450
95318SOL    HW287852   8.157  13.877   7.461
95319SOL     OW87853   6.669  13.230  14.462
95319SOL    HW187854   6.719  13.218  14.381
95319SOL    HW287855   6.723  13.288  14.515
95320SOL     OW87856  12.890   2.711   9.253
95320SOL    HW187857  12.844   2.660   9.186
95320SOL    HW287858  12.983   2.694   9.237
95321SOL     OW87859   4.081  10.830   9.106
95321SOL    HW187860   4.005  10.874   9.067
95321SOL    HW287861   4.093  10.752   9.052
95322SOL     OW87862   1.620   1.200   0.062
95322SOL    HW187863   1.606   1.283   0.107
95322SOL    HW287864   1.541   1.186   0.011
95323SOL     OW87865  10.933   2.982   3.863
95323SOL    HW187866  11.018   3.025   3.876
95323SOL    HW287867  10.955   2.889   3.851
95324SOL     OW87868   7.238  10.073   0.167
95324SOL    HW187869   7.143  10.081   0.164
95324SOL    HW287870   7.270  10.161   0.189
95325SOL     OW87871  10.484  12.430   2.843
95325SOL    HW187872  10.488  12.356   2.904
95325SOL    HW287873  10.573  12.437   2.808
95326SOL     OW87874   7.742   1.085   4.984
95326SOL    HW187875   7.745   1.018   4.916
95326SOL    HW287876   7.726   1.037   5.065
95327SOL     OW87877   6.983   2.325   4.577
95327SOL    HW187878   6.923   2.398   4.561
95327SOL    HW287879   7.069   2.358   4.551
95328SOL     OW87880   8.241   0.383  13.206
95328SOL    HW187881   8.267   0.291  13.204
95328SOL    HW287882   8.323   0.432  13.200
95329SOL     OW87883  12.353  12.202   0.157
95329SOL    HW187884  12.345  12.177   0.065
95329SOL    HW287885  12.264  12.198   0.191
95330SOL     OW87886   5.110  13.755  10.135
95330SOL    HW187887   5.046  13.823  10.156
95330SOL    HW287888   5.057  13.682  10.103
95331SOL     OW87889   4.574   1.949   5.347
95331SOL    HW187890   4.544   1.863   5.378
95331SOL    HW287891   4.506   2.010   5.376
95332SOL     OW87892  14.867   6.475   9.719
95332SOL    HW187893  14.873   6.380   9.713
95332SOL    HW287894  14.868   6.505   9.628
95333SOL     OW87895   8.936   8.796  10.370
95333SOL    HW187896   8.912   8.710  10.335
95333SOL    HW287897   9.010   8.823  10.316
95334SOL     OW87898   4.114  11.526  14.202
95334SOL    HW187899   4.072  11.602  14.242
95334SOL    HW287900   4.044  11.478  14.159
95335SOL     OW87901  14.655   9.698   3.232
95335SOL    HW187902  14.633   9.790   3.223
95335SOL    HW287903  14.593   9.664   3.296
95336SOL     OW87904   6.464   4.680   8.116
95336SOL    HW187905   6.557   4.660   8.126
95336SOL    HW287906   6.458   4.775   8.128
95337SOL     OW87907   2.310   0.973   7.088
95337SOL    HW187908   2.342   0.883   7.096
95337SOL    HW287909   2.280   0.979   6.997
95338SOL     OW87910   2.267   8.611   8.371
95338SOL    HW187911   2.285   8.705   8.375
95338SOL    HW287912   2.351   8.571   8.350
95339SOL     OW87913  12.564   7.278   6.755
95339SOL    HW187914  12.536   7.353   6.807
95339SOL    HW287915  12.497   7.270   6.687
95340SOL     OW87916  12.626  11.777   7.793
95340SOL    HW187917  12.593  11.707   7.849
95340SOL    HW287918  12.696  11.818   7.843
95341SOL     OW87919   7.741   8.515   6.573
95341SOL    HW187920   7.661   8.534   6.623
95341SOL    HW287921   7.796   8.466   6.634
95342SOL     OW87922   0.772   5.763  11.319
95342SOL    HW187923   0.861   5.726  11.312
95342SOL    HW287924   0.728   5.733  11.239
95343SOL     OW87925  13.391   6.068   0.239
95343SOL    HW187926  13.438   6.081   0.322
95343SOL    HW287927  13.358   5.978   0.244
95344SOL     OW87928   0.911   7.210   7.587
95344SOL    HW187929   0.984   7.247   7.637
95344SOL    HW287930   0.890   7.277   7.522
95345SOL     OW87931  14.747   5.862   2.266
95345SOL    HW187932  14.701   5.867   2.182
95345SOL    HW287933  14.827   5.912   2.252
95346SOL     OW87934  14.032   8.274   4.810
95346SOL    HW187935  14.069   8.226   4.885
95346SOL    HW287936  13.956   8.319   4.846
95347SOL     OW87937  12.701   7.524  14.013
95347SOL    HW187938  12.714   7.608  14.058
95347SOL    HW287939  12.654   7.470  14.076
95348SOL     OW87940  12.639   0.331  11.021
95348SOL    HW187941  12.559   0.317  11.072
95348SOL    HW287942  12.608   0.371  10.940
95349SOL     OW87943   6.864  11.721   1.819
95349SOL    HW187944   6.878  11.643   1.872
95349SOL    HW287945   6.952  11.755   1.802
95350SOL     OW87946   2.730  11.360  13.138
95350SOL    HW187947   2.751  11.273  13.171
95350SOL    HW287948   2.660  11.391  13.194
95351SOL     OW87949  10.947  10.247  12.647
95351SOL    HW187950  10.883  10.215  12.711
95351SOL    HW287951  11.013  10.178  12.644
95352SOL     OW87952   6.834  14.447  14.596
95352SOL    HW187953   6.918  14.492  14.609
95352SOL    HW287954   6.857  14.362  14.558
95353SOL     OW87955  13.845   3.443   7.731
95353SOL    HW187956  13.891   3.381   7.674
95353SOL    HW287957  13.817   3.390   7.806
95354SOL     OW87958  10.039   9.302  14.060
95354SOL    HW187959  10.037   9.371  13.994
95354SOL    HW287960  10.119   9.253  14.042
95355SOL     OW87961   8.889   6.040   3.123
95355SOL    HW187962   8.860   6.037   3.214
95355SOL    HW287963   8.984   6.055   3.129
95356SOL     OW87964   0.208   3.838   1.147
95356SOL    HW187965   0.148   3.912   1.146
95356SOL    HW287966   0.155   3.765   1.179
95357SOL     OW87967  13.771   6.841   7.036
95357SOL    HW187968  13.816   6.845   6.951
95357SOL    HW287969  13.842   6.835   7.100
95358SOL     OW87970   5.540  13.265   6.468
95358SOL    HW187971   5.493  13.193   6.427
95358SOL    HW287972   5.503  13.272   6.556
95359SOL     OW87973   7.381  10.730   0.153
95359SOL    HW187974   7.384  10.667   0.225
95359SOL    HW287975   7.360  10.813   0.194
95360SOL     OW87976   7.455  11.547   2.108
95360SOL    HW187977   7.419  11.622   2.156
95360SOL    HW287978   7.526  11.583   2.056
95361SOL     OW87979  12.618   6.493   1.606
95361SOL    HW187980  12.524   6.474   1.603
95361SOL    HW287981  12.645   6.488   1.514
95362SOL     OW87982   7.585   8.995  13.731
95362SOL    HW187983   7.621   8.930  13.670
95362SOL    HW287984   7.491   8.996  13.712
95363SOL     OW87985   2.435   3.343   6.285
95363SOL    HW187986   2.448   3.426   6.331
95363SOL    HW287987   2.340   3.330   6.286
95364SOL     OW87988   3.272  13.301  10.377
95364SOL    HW187989   3.206  13.311  10.309
95364SOL    HW287990   3.222  13.306  10.459
95365SOL     OW87991   4.165  14.548   9.179
95365SOL    HW187992   4.150  14.484   9.249
95365SOL    HW287993   4.101  14.525   9.112
95366SOL     OW87994  12.064   6.762   0.974
95366SOL    HW187995  12.116   6.779   0.895
95366SOL    HW287996  11.980   6.806   0.957
95367SOL     OW87997  13.728  10.348  14.656
95367SOL    HW187998  13.666  10.356  14.583
95367SOL    HW287999  13.706  10.420  14.714
95368SOL     OW88000   4.127  10.967  10.789
95368SOL    HW188001   4.188  10.967  10.716
95368SOL    HW288002   4.083  10.882  10.783
95369SOL     OW88003   0.589   3.634   8.007
95369SOL    HW188004   0.556   3.698   8.071
95369SOL    HW288005   0.514   3.576   7.990
95370SOL     OW88006   8.280   6.776   8.801
95370SOL    HW188007   8.356   6.724   8.827
95370SOL    HW288008   8.218   6.765   8.873
95371SOL     OW88009   8.695  13.608  14.537
95371SOL    HW188010   8.768  13.638  14.590
95371SOL    HW288011   8.731  13.536  14.484
95372SOL     OW88012   5.381   2.130   5.062
95372SOL    HW188013   5.411   2.160   4.977
95372SOL    HW288014   5.340   2.207   5.102
95373SOL     OW88015   2.324  13.837   6.195
95373SOL    HW188016   2.332  13.868   6.105
95373SOL    HW288017   2.250  13.887   6.231
95374SOL     OW88018   9.594  13.631  12.546
95374SOL    HW188019   9.587  13.633  12.641
95374SOL    HW288020   9.512  13.670  12.515
95375SOL     OW88021  12.675   5.130   3.520
95375SOL    HW188022  12.624   5.208   3.497
95375SOL    HW288023  12.767   5.157   3.508
95376SOL     OW88024  11.365   7.355   4.639
95376SOL    HW188025  11.414   7.279   4.608
95376SOL    HW288026  11.321   7.389   4.560
95377SOL     OW88027  13.252   8.474   7.955
95377SOL    HW188028  13.198   8.519   7.890
95377SOL    HW288029  13.336   8.460   7.911
95378SOL     OW88030   6.311   8.144   9.103
95378SOL    HW188031   6.237   8.126   9.161
95378SOL    HW288032   6.335   8.235   9.124
95379SOL     OW88033   7.093   4.614  11.153
95379SOL    HW188034   7.084   4.642  11.244
95379SOL    HW288035   7.127   4.525  11.159
95380SOL     OW88036   0.724  10.688   6.279
95380SOL    HW188037   0.782  10.685   6.203
95380SOL    HW288038   0.698  10.597   6.293
95381SOL     OW88039  13.151   5.453   7.663
95381SOL    HW188040  13.167   5.541   7.630
95381SOL    HW288041  13.056   5.449   7.676
95382SOL     OW88042   6.187  13.457  13.308
95382SOL    HW188043   6.129  13.403  13.362
95382SOL    HW288044   6.156  13.442  13.218
95383SOL     OW88045   3.064   2.354  14.542
95383SOL    HW188046   3.073   2.302  14.621
95383SOL    HW288047   3.149   2.395  14.529
95384SOL     OW88048  14.848   7.359   2.353
95384SOL    HW188049  14.808   7.441   2.322
95384SOL    HW288050  14.878   7.315   2.273
95385SOL     OW88051   1.006   3.655   6.116
95385SOL    HW188052   1.077   3.714   6.139
95385SOL    HW288053   1.049   3.580   6.074
95386SOL     OW88054  11.269  14.137   3.634
95386SOL    HW188055  11.277  14.114   3.726
95386SOL    HW288056  11.179  14.114   3.611
95387SOL     OW88057   7.479  13.373   8.136
95387SOL    HW188058   7.424  13.420   8.199
95387SOL    HW288059   7.453  13.409   8.051
95388SOL     OW88060   1.416  13.944  12.509
95388SOL    HW188061   1.455  13.857  12.515
95388SOL    HW288062   1.420  13.978  12.599
95389SOL     OW88063  10.015   4.409   5.358
95389SOL    HW188064   9.976   4.374   5.278
95389SOL    HW288065  10.023   4.503   5.341
95390SOL     OW88066   8.822   1.927   2.981
95390SOL    HW188067   8.867   2.005   2.948
95390SOL    HW288068   8.777   1.957   3.060
95391SOL     OW88069  11.626  11.254   8.534
95391SOL    HW188070  11.549  11.295   8.574
95391SOL    HW288071  11.637  11.299   8.451
95392SOL     OW88072   4.650   8.720   3.584
95392SOL    HW188073   4.559   8.706   3.609
95392SOL    HW288074   4.644   8.765   3.499
95393SOL     OW88075   2.206   4.356  12.338
95393SOL    HW188076   2.264   4.418  12.381
95393SOL    HW288077   2.262   4.281  12.318
95394SOL     OW88078   3.423   0.326   1.120
95394SOL    HW188079   3.385   0.244   1.153
95394SOL    HW288080   3.367   0.351   1.047
95395SOL     OW88081   9.025   9.239  14.829
95395SOL    HW188082   9.075   9.173  14.780
95395SOL    HW288083   8.960   9.189  14.877
95396SOL     OW88084  11.474  11.133   0.118
95396SOL    HW188085  11.476  11.219   0.076
95396SOL    HW288086  11.556  11.091   0.092
95397SOL     OW88087  11.750  14.792   5.158
95397SOL    HW188088  11.674  14.839   5.192
95397SOL    HW288089  11.736  14.701   5.186
95398SOL     OW88090  14.756  13.611  13.508
95398SOL    HW188091  14.691  13.557  13.463
95398SOL    HW288092  14.729  13.701  13.489
95399SOL     OW88093   6.927   5.829   6.949
95399SOL    HW188094   6.873   5.869   6.881
95399SOL    HW288095   6.880   5.848   7.030
95400SOL     OW88096  14.421   4.774   5.963
95400SOL    HW188097  14.459   4.688   5.947
95400SOL    HW288098  14.496   4.829   5.986
95401SOL     OW88099   3.260  14.810   1.498
95401SOL    HW188100   3.298  14.767   1.575
95401SOL    HW288101   3.166  14.811   1.515
95402SOL     OW88102   8.565   8.936  11.189
95402SOL    HW188103   8.564   8.914  11.096
95402SOL    HW288104   8.503   9.009  11.198
95403SOL     OW88105   9.012   7.478   1.928
95403SOL    HW188106   8.994   7.570   1.947
95403SOL    HW288107   8.981   7.431   2.006
95404SOL     OW88108   6.787   3.326  14.839
95404SOL    HW188109   6.767   3.233  14.846
95404SOL    HW288110   6.742   3.366   0.033
95405SOL     OW88111  11.539   7.973   1.801
95405SOL    HW188112  11.494   8.042   1.851
95405SOL    HW288113  11.624   8.013   1.778
95406SOL     OW88114   2.402  11.206   2.811
95406SOL    HW188115   2.467  11.173   2.748
95406SOL    HW288116   2.419  11.300   2.816
95407SOL     OW88117   7.533   3.680   4.754
95407SOL    HW188118   7.527   3.628   4.674
95407SOL    HW288119   7.452   3.662   4.801
95408SOL     OW88120   3.538   6.053  11.730
95408SOL    HW188121   3.554   5.963  11.702
95408SOL    HW288122   3.580   6.107  11.663
95409SOL     OW88123   2.777  14.742   4.260
95409SOL    HW188124   2.831  14.819   4.281
95409SOL    HW288125   2.704  14.778   4.208
95410SOL     OW88126   3.704  12.989  12.991
95410SOL    HW188127   3.694  12.968  12.898
95410SOL    HW288128   3.685  12.906  13.036
95411SOL     OW88129  13.338  13.672   0.911
95411SOL    HW188130  13.318  13.759   0.946
95411SOL    HW288131  13.399  13.687   0.840
95412SOL     OW88132   3.758   9.499   2.374
95412SOL    HW188133   3.839   9.467   2.335
95412SOL    HW288134   3.780   9.517   2.465
95413SOL     OW88135   3.808   9.286  12.392
95413SOL    HW188136   3.722   9.283  12.350
95413SOL    HW288137   3.827   9.380  12.400
95414SOL     OW88138  11.695  13.063   9.931
95414SOL    HW188139  11.648  13.070   9.849
95414SOL    HW288140  11.781  13.028   9.907
95415SOL     OW88141  12.035  11.107  10.402
95415SOL    HW188142  12.057  11.032  10.457
95415SOL    HW288143  12.082  11.091  10.320
95416SOL     OW88144   2.315  11.704   8.259
95416SOL    HW188145   2.261  11.721   8.337
95416SOL    HW288146   2.400  11.677   8.294
95417SOL     OW88147   3.257   5.911   1.971
95417SOL    HW188148   3.211   5.836   1.932
95417SOL    HW288149   3.349   5.894   1.954
95418SOL     OW88150   9.940   0.566  11.109
95418SOL    HW188151  10.020   0.531  11.071
95418SOL    HW288152   9.933   0.524  11.194
95419SOL     OW88153   6.789  10.201   7.631
95419SOL    HW188154   6.750  10.226   7.715
95419SOL    HW288155   6.849  10.273   7.610
95420SOL     OW88156   9.123  11.216   3.257
95420SOL    HW188157   9.216  11.225   3.277
95420SOL    HW288158   9.090  11.305   3.255
95421SOL     OW88159  13.212  10.618   7.738
95421SOL    HW188160  13.238  10.705   7.709
95421SOL    HW288161  13.228  10.562   7.662
95422SOL     OW88162  12.625  11.491  12.290
95422SOL    HW188163  12.566  11.524  12.223
95422SOL    HW288164  12.570  11.480  12.368
95423SOL     OW88165   4.955   5.511  13.992
95423SOL    HW188166   4.953   5.416  13.976
95423SOL    HW288167   5.047   5.536  13.978
95424SOL     OW88168   6.525   9.755   8.536
95424SOL    HW188169   6.550   9.711   8.617
95424SOL    HW288170   6.431   9.770   8.545
95425SOL     OW88171   8.969   1.791  10.797
95425SOL    HW188172   8.929   1.726  10.854
95425SOL    HW288173   9.000   1.741  10.721
95426SOL     OW88174   8.972   7.575  12.016
95426SOL    HW188175   9.010   7.489  11.997
95426SOL    HW288176   8.895   7.556  12.069
95427SOL     OW88177   1.331   6.892  11.461
95427SOL    HW188178   1.259   6.851  11.414
95427SOL    HW288179   1.381   6.819  11.499
95428SOL     OW88180   4.357  13.250  10.658
95428SOL    HW188181   4.302  13.319  10.694
95428SOL    HW288182   4.366  13.187  10.729
95429SOL     OW88183   4.711  11.445   7.944
95429SOL    HW188184   4.637  11.390   7.918
95429SOL    HW288185   4.759  11.392   8.007
95430SOL     OW88186  11.729  10.296   9.667
95430SOL    HW188187  11.699  10.274   9.756
95430SOL    HW288188  11.796  10.363   9.681
95431SOL     OW88189   8.928   3.597   3.006
95431SOL    HW188190   8.848   3.564   3.046
95431SOL    HW288191   8.973   3.642   3.077
95432SOL     OW88192   0.569  11.699   1.128
95432SOL    HW188193   0.628  11.630   1.100
95432SOL    HW288194   0.504  11.705   1.058
95433SOL     OW88195  13.861   6.125   0.914
95433SOL    HW188196  13.769   6.103   0.930
95433SOL    HW288197  13.858   6.216   0.885
95434SOL     OW88198   9.840  13.567   2.380
95434SOL    HW188199   9.905  13.636   2.372
95434SOL    HW288200   9.831  13.531   2.292
95435SOL     OW88201  13.202   0.511   4.880
95435SOL    HW188202  13.112   0.519   4.912
95435SOL    HW288203  13.235   0.601   4.881
95436SOL     OW88204  13.166   4.902  12.206
95436SOL    HW188205  13.137   4.869  12.291
95436SOL    HW288206  13.134   4.992  12.203
95437SOL     OW88207   4.159   4.115  10.386
95437SOL    HW188208   4.110   4.067  10.453
95437SOL    HW288209   4.197   4.189  10.433
95438SOL     OW88210   5.351  12.365   3.825
95438SOL    HW188211   5.281  12.421   3.858
95438SOL    HW288212   5.308  12.308   3.761
95439SOL     OW88213   1.315   0.267   8.368
95439SOL    HW188214   1.300   0.359   8.389
95439SOL    HW288215   1.256   0.249   8.294
95440SOL     OW88216  13.185   7.325   7.663
95440SOL    HW188217  13.257   7.383   7.637
95440SOL    HW288218  13.147   7.296   7.580
95441SOL     OW88219   3.792   9.691   3.639
95441SOL    HW188220   3.822   9.775   3.673
95441SOL    HW288221   3.861   9.629   3.665
95442SOL     OW88222  11.400   3.777   3.643
95442SOL    HW188223  11.378   3.870   3.632
95442SOL    HW288224  11.374   3.757   3.733
95443SOL     OW88225   9.436  10.526   2.711
95443SOL    HW188226   9.486  10.485   2.783
95443SOL    HW288227   9.497  10.589   2.673
95444SOL     OW88228   0.467   2.421   7.991
95444SOL    HW188229   0.443   2.482   8.060
95444SOL    HW288230   0.386   2.407   7.942
95445SOL     OW88231   0.463   8.663  12.732
95445SOL    HW188232   0.531   8.730  12.726
95445SOL    HW288233   0.472   8.613  12.651
95446SOL     OW88234   5.668  13.338  11.179
95446SOL    HW188235   5.699  13.346  11.269
95446SOL    HW288236   5.729  13.391  11.127
95447SOL     OW88237  10.020   8.288   1.177
95447SOL    HW188238  10.099   8.327   1.141
95447SOL    HW288239   9.980   8.241   1.104
95448SOL     OW88240   5.664   9.658   0.128
95448SOL    HW188241   5.740   9.715   0.110
95448SOL    HW288242   5.598   9.687   0.065
95449SOL     OW88243   7.598   9.937  14.197
95449SOL    HW188244   7.590  10.001  14.268
95449SOL    HW288245   7.685   9.898  14.210
95450SOL     OW88246  13.595   0.903   7.724
95450SOL    HW188247  13.532   0.893   7.653
95450SOL    HW288248  13.578   0.828   7.781
95451SOL     OW88249  11.952   8.335   1.519
95451SOL    HW188250  12.018   8.304   1.457
95451SOL    HW288251  11.952   8.430   1.510
95452SOL     OW88252  11.490   0.270   7.493
95452SOL    HW188253  11.445   0.326   7.430
95452SOL    HW288254  11.420   0.231   7.545
95453SOL     OW88255  11.410  14.718   9.132
95453SOL    HW188256  11.419  14.800   9.181
95453SOL    HW288257  11.500  14.687   9.120
95454SOL     OW88258  10.794   2.328   5.908
95454SOL    HW188259  10.725   2.286   5.856
95454SOL    HW288260  10.778   2.298   5.998
95455SOL     OW88261   7.482   3.924   8.007
95455SOL    HW188262   7.509   3.898   8.095
95455SOL    HW288263   7.554   3.896   7.950
95456SOL     OW88264   2.327   9.642   9.165
95456SOL    HW188265   2.404   9.667   9.115
95456SOL    HW288266   2.344   9.673   9.253
95457SOL     OW88267   2.415   7.899  13.749
95457SOL    HW188268   2.425   7.861  13.661
95457SOL    HW288269   2.504   7.918  13.778
95458SOL     OW88270   9.128   8.512  14.325
95458SOL    HW188271   9.120   8.497  14.230
95458SOL    HW288272   9.150   8.425  14.360
95459SOL     OW88273  11.819  13.016   0.733
95459SOL    HW188274  11.825  12.953   0.661
95459SOL    HW288275  11.779  12.967   0.805
95460SOL     OW88276  13.132   9.923   2.294
95460SOL    HW188277  13.201   9.858   2.284
95460SOL    HW288278  13.120   9.960   2.206
95461SOL     OW88279  10.591   0.688  10.705
95461SOL    HW188280  10.683   0.672  10.723
95461SOL    HW288281  10.581   0.675  10.611
95462SOL     OW88282   3.474   4.443   7.631
95462SOL    HW188283   3.500   4.356   7.660
95462SOL    HW288284   3.551   4.498   7.647
95463SOL     OW88285   9.509   7.012   6.161
95463SOL    HW188286   9.517   6.918   6.145
95463SOL    HW288287   9.538   7.053   6.080
95464SOL     OW88288   7.274   0.550   5.522
95464SOL    HW188289   7.363   0.524   5.544
95464SOL    HW288290   7.255   0.502   5.441
95465SOL     OW88291  13.757  10.345   7.658
95465SOL    HW188292  13.710  10.426   7.680
95465SOL    HW288293  13.688  10.286   7.627
95466SOL     OW88294  10.469   8.205   6.748
95466SOL    HW188295  10.416   8.132   6.780
95466SOL    HW288296  10.500   8.177   6.662
95467SOL     OW88297  12.722   2.078   9.293
95467SOL    HW188298  12.665   2.134   9.346
95467SOL    HW288299  12.663   2.021   9.245
95468SOL     OW88300   7.586   9.930   3.139
95468SOL    HW188301   7.566   9.873   3.065
95468SOL    HW288302   7.674   9.963   3.121
95469SOL     OW88303   3.161   9.201   8.440
95469SOL    HW188304   3.067   9.215   8.430
95469SOL    HW288305   3.186   9.154   8.360
95470SOL     OW88306   9.401   2.197  14.255
95470SOL    HW188307   9.338   2.140  14.298
95470SOL    HW288308   9.366   2.285  14.268
95471SOL     OW88309  10.711   2.074   7.534
95471SOL    HW188310  10.659   2.005   7.493
95471SOL    HW288311  10.772   2.028   7.591
95472SOL     OW88312   1.846  13.587  14.429
95472SOL    HW188313   1.819  13.653  14.494
95472SOL    HW288314   1.852  13.505  14.479
95473SOL     OW88315   6.433  10.611  13.420
95473SOL    HW188316   6.433  10.695  13.375
95473SOL    HW288317   6.478  10.552  13.360
95474SOL     OW88318   2.751  10.078   6.518
95474SOL    HW188319   2.766  10.010   6.583
95474SOL    HW288320   2.816  10.061   6.450
95475SOL     OW88321  12.253  10.451   8.267
95475SOL    HW188322  12.310  10.451   8.190
95475SOL    HW288323  12.261  10.362   8.303
95476SOL     OW88324   1.443   9.328   7.633
95476SOL    HW188325   1.519   9.345   7.689
95476SOL    HW288326   1.373   9.380   7.671
95477SOL     OW88327   0.975   5.856   0.860
95477SOL    HW188328   0.962   5.872   0.767
95477SOL    HW288329   0.938   5.933   0.903
95478SOL     OW88330  12.477   0.115   9.249
95478SOL    HW188331  12.426   0.120   9.330
95478SOL    HW288332  12.551   0.058   9.271
95479SOL     OW88333  14.737   4.618  10.859
95479SOL    HW188334  14.792   4.674  10.913
95479SOL    HW288335  14.711   4.673  10.785
95480SOL     OW88336   5.326   0.908   4.737
95480SOL    HW188337   5.364   0.969   4.675
95480SOL    HW288338   5.247   0.952   4.770
95481SOL     OW88339   1.517   6.378   3.312
95481SOL    HW188340   1.559   6.420   3.236
95481SOL    HW288341   1.548   6.287   3.308
95482SOL     OW88342  13.892   8.786   5.784
95482SOL    HW188343  13.855   8.701   5.807
95482SOL    HW288344  13.819   8.847   5.790
95483SOL     OW88345   4.427  11.170   1.085
95483SOL    HW188346   4.501  11.124   1.127
95483SOL    HW288347   4.443  11.160   0.991
95484SOL     OW88348  11.059   9.178  10.960
95484SOL    HW188349  10.993   9.111  10.942
95484SOL    HW288350  11.137   9.148  10.913
95485SOL     OW88351   1.448   7.894  11.270
95485SOL    HW188352   1.503   7.815  11.269
95485SOL    HW288353   1.497   7.956  11.324
95486SOL     OW88354   3.021   9.343   9.781
95486SOL    HW188355   3.107   9.363   9.817
95486SOL    HW288356   2.983   9.281   9.843
95487SOL     OW88357   1.668  12.263  12.955
95487SOL    HW188358   1.584  12.309  12.964
95487SOL    HW288359   1.644  12.175  12.925
95488SOL     OW88360  14.807   8.721   6.598
95488SOL    HW188361  14.784   8.641   6.644
95488SOL    HW288362   0.008   8.750   6.639
95489SOL     OW88363   1.608   0.650  13.683
95489SOL    HW188364   1.557   0.702  13.622
95489SOL    HW288365   1.680   0.614  13.631
95490SOL     OW88366  14.322   2.887   7.354
95490SOL    HW188367  14.309   2.873   7.448
95490SOL    HW288368  14.355   2.804   7.322
95491SOL     OW88369   7.261  10.416   0.095
95491SOL    HW188370   7.258  10.435   0.001
95491SOL    HW288371   7.169  10.411   0.121
95492SOL     OW88372  13.278   0.927   3.570
95492SOL    HW188373  13.268   0.928   3.665
95492SOL    HW288374  13.338   0.999   3.551
95493SOL     OW88375  10.958   1.787   8.641
95493SOL    HW188376  11.047   1.817   8.661
95493SOL    HW288377  10.935   1.831   8.559
95494SOL     OW88378   8.943  12.590   5.579
95494SOL    HW188379   9.019  12.558   5.531
95494SOL    HW288380   8.870  12.579   5.518
95495SOL     OW88381  13.422   4.968   2.664
95495SOL    HW188382  13.352   4.957   2.729
95495SOL    HW288383  13.424   4.884   2.618
95496SOL     OW88384   5.670   7.397   2.801
95496SOL    HW188385   5.634   7.335   2.737
95496SOL    HW288386   5.603   7.465   2.809
95497SOL     OW88387   4.044  13.959   9.989
95497SOL    HW188388   4.038  14.004   9.906
95497SOL    HW288389   4.063  13.868   9.966
95498SOL     OW88390   1.693  10.133  12.131
95498SOL    HW188391   1.622  10.171  12.079
95498SOL    HW288392   1.683  10.173  12.217
95499SOL     OW88393   5.056   1.171   6.641
95499SOL    HW188394   5.029   1.247   6.691
95499SOL    HW288395   5.020   1.096   6.689
95500SOL     OW88396  12.765   4.197   9.569
95500SOL    HW188397  12.727   4.141   9.500
95500SOL    HW288398  12.713   4.178   9.647
95501SOL     OW88399   4.576   7.378   6.091
95501SOL    HW188400   4.634   7.330   6.150
95501SOL    HW288401   4.504   7.408   6.147
95502SOL     OW88402   5.485   4.569   6.474
95502SOL    HW188403   5.499   4.481   6.507
95502SOL    HW288404   5.456   4.620   6.549
95503SOL     OW88405  13.852  12.923   6.204
95503SOL    HW188406  13.766  12.891   6.174
95503SOL    HW288407  13.848  13.017   6.191
95504SOL     OW88408   2.709   5.887  10.581
95504SOL    HW188409   2.700   5.866  10.674
95504SOL    HW288410   2.774   5.825  10.549
95505SOL     OW88411  10.096   1.858   2.542
95505SOL    HW188412  10.166   1.863   2.477
95505SOL    HW288413  10.019   1.890   2.496
95506SOL     OW88414   9.177  14.341   6.686
95506SOL    HW188415   9.251  14.383   6.729
95506SOL    HW288416   9.197  14.248   6.689
95507SOL     OW88417   8.151  11.927   4.356
95507SOL    HW188418   8.142  11.917   4.451
95507SOL    HW288419   8.241  11.901   4.338
95508SOL     OW88420  11.304   8.507   6.623
95508SOL    HW188421  11.216   8.535   6.648
95508SOL    HW288422  11.330   8.446   6.692
95509SOL     OW88423   9.783   7.387   9.567
95509SOL    HW188424   9.851   7.374   9.634
95509SOL    HW288425   9.733   7.462   9.598
95510SOL     OW88426  13.839   5.116  13.436
95510SOL    HW188427  13.817   5.032  13.395
95510SOL    HW288428  13.930   5.132  13.409
95511SOL     OW88429   3.032   2.467  10.093
95511SOL    HW188430   3.050   2.478  10.000
95511SOL    HW288431   3.027   2.556  10.128
95512SOL     OW88432   2.397   6.466  10.587
95512SOL    HW188433   2.383   6.372  10.599
95512SOL    HW288434   2.436   6.495  10.669
95513SOL     OW88435   4.909   2.220   0.028
95513SOL    HW188436   4.953   2.241  14.826
95513SOL    HW288437   4.905   2.303   0.075
95514SOL     OW88438   6.305   1.566  14.848
95514SOL    HW188439   6.316   1.530  14.760
95514SOL    HW288440   6.210   1.570  14.861
95515SOL     OW88441  10.797   4.644  11.724
95515SOL    HW188442  10.716   4.677  11.685
95515SOL    HW288443  10.866   4.697  11.685
95516SOL     OW88444  10.253  13.552   6.977
95516SOL    HW188445  10.338  13.588   6.951
95516SOL    HW288446  10.193  13.580   6.908
95517SOL     OW88447  13.678   1.559   9.433
95517SOL    HW188448  13.728   1.620   9.379
95517SOL    HW288449  13.744   1.499   9.468
95518SOL     OW88450  14.697   3.964   0.309
95518SOL    HW188451  14.729   4.048   0.277
95518SOL    HW288452  14.629   3.939   0.247
95519SOL     OW88453   2.858  13.621   8.810
95519SOL    HW188454   2.904  13.658   8.735
95519SOL    HW288455   2.902  13.659   8.886
95520SOL     OW88456  12.533   2.409   2.847
95520SOL    HW188457  12.477   2.331   2.840
95520SOL    HW288458  12.484   2.469   2.904
95521SOL     OW88459  10.358   1.253   0.461
95521SOL    HW188460  10.386   1.344   0.475
95521SOL    HW288461  10.440   1.205   0.446
95522SOL     OW88462  14.385  10.688   2.776
95522SOL    HW188463  14.462  10.744   2.784
95522SOL    HW288464  14.317  10.734   2.825
95523SOL     OW88465   7.366   0.351  13.071
95523SOL    HW188466   7.360   0.301  13.153
95523SOL    HW288467   7.280   0.393  13.063
95524SOL     OW88468  12.603   1.963   6.901
95524SOL    HW188469  12.658   2.005   6.834
95524SOL    HW288470  12.613   2.018   6.978
95525SOL     OW88471   0.501  14.250  11.269
95525SOL    HW188472   0.406  14.235  11.270
95525SOL    HW288473   0.533  14.204  11.346
95526SOL     OW88474   3.975   5.874   5.498
95526SOL    HW188475   3.952   5.943   5.559
95526SOL    HW288476   3.892   5.843   5.463
95527SOL     OW88477   0.000  11.739   2.882
95527SOL    HW188478  14.833  11.664   2.918
95527SOL    HW288479   0.057  11.701   2.815
95528SOL     OW88480   7.940   2.458   2.876
95528SOL    HW188481   7.961   2.471   2.968
95528SOL    HW288482   8.019   2.420   2.838
95529SOL     OW88483   1.212   9.927   9.848
95529SOL    HW188484   1.206   9.834   9.870
95529SOL    HW288485   1.285   9.933   9.786
95530SOL     OW88486  12.752   0.077   1.299
95530SOL    HW188487  12.669   0.123   1.302
95530SOL    HW288488  12.817   0.145   1.279
95531SOL     OW88489   3.449   6.405   0.862
95531SOL    HW188490   3.422   6.408   0.770
95531SOL    HW288491   3.373   6.369   0.908
95532SOL     OW88492   0.206  12.731   0.679
95532SOL    HW188493   0.241  12.668   0.742
95532SOL    HW288494   0.114  12.707   0.669
95533SOL     OW88495  10.194   8.473   9.309
95533SOL    HW188496  10.135   8.549   9.302
95533SOL    HW288497  10.216   8.469   9.402
95534SOL     OW88498   2.647   2.796   1.803
95534SOL    HW188499   2.646   2.761   1.714
95534SOL    HW288500   2.566   2.846   1.810
95535SOL     OW88501   5.598  11.423   7.547
95535SOL    HW188502   5.566  11.334   7.560
95535SOL    HW288503   5.519  11.478   7.554
95536SOL     OW88504  10.763   4.236   6.553
95536SOL    HW188505  10.840   4.262   6.604
95536SOL    HW288506  10.701   4.203   6.618
95537SOL     OW88507   4.857   1.489   8.047
95537SOL    HW188508   4.896   1.403   8.028
95537SOL    HW288509   4.872   1.539   7.966
95538SOL     OW88510   3.796  14.477   0.701
95538SOL    HW188511   3.799  14.547   0.636
95538SOL    HW288512   3.839  14.514   0.778
95539SOL     OW88513   4.903   6.624  11.906
95539SOL    HW188514   4.847   6.561  11.951
95539SOL    HW288515   4.841   6.686  11.866
95540SOL     OW88516   8.279   7.926  11.426
95540SOL    HW188517   8.362   7.895  11.463
95540SOL    HW288518   8.305   7.992  11.362
95541SOL     OW88519   4.354   3.364   6.872
95541SOL    HW188520   4.432   3.417   6.891
95541SOL    HW288521   4.387   3.275   6.865
95542SOL     OW88522  12.397   0.618   0.040
95542SOL    HW188523  12.448   0.697   0.059
95542SOL    HW288524  12.314   0.631   0.086
95543SOL     OW88525   4.722   0.106   2.454
95543SOL    HW188526   4.719   0.053   2.533
95543SOL    HW288527   4.709   0.044   2.383
95544SOL     OW88528   9.128  13.775   6.048
95544SOL    HW188529   9.059  13.750   5.987
95544SOL    HW288530   9.081  13.795   6.130
95545SOL     OW88531  11.816   1.563   8.175
95545SOL    HW188532  11.853   1.644   8.141
95545SOL    HW288533  11.809   1.578   8.270
95546SOL     OW88534  10.524   4.987   9.962
95546SOL    HW188535  10.493   4.968   9.873
95546SOL    HW288536  10.602   4.932   9.973
95547SOL     OW88537  14.459  12.701   1.983
95547SOL    HW188538  14.384  12.690   1.925
95547SOL    HW288539  14.513  12.623   1.969
95548SOL     OW88540  13.869   5.198   9.851
95548SOL    HW188541  13.791   5.173   9.901
95548SOL    HW288542  13.914   5.115   9.834
95549SOL     OW88543   7.833   4.092   4.582
95549SOL    HW188544   7.784   4.052   4.653
95549SOL    HW288545   7.799   4.050   4.503
95550SOL     OW88546   5.689  12.712   3.184
95550SOL    HW188547   5.602  12.743   3.210
95550SOL    HW288548   5.698  12.738   3.092
95551SOL     OW88549   3.916   6.400   5.128
95551SOL    HW188550   3.931   6.483   5.173
95551SOL    HW288551   3.996   6.350   5.141
95552SOL     OW88552   9.984   9.098   1.028
95552SOL    HW188553   9.987   9.036   1.102
95552SOL    HW288554  10.074   9.101   0.996
95553SOL     OW88555  11.867   0.980   2.549
95553SOL    HW188556  11.905   0.892   2.547
95553SOL    HW288557  11.831   0.992   2.461
95554SOL     OW88558   1.706  10.482   0.796
95554SOL    HW188559   1.676  10.482   0.705
95554SOL    HW288560   1.724  10.390   0.815
95555SOL     OW88561   0.799   8.141   4.087
95555SOL    HW188562   0.888   8.128   4.055
95555SOL    HW288563   0.743   8.113   4.015
95556SOL     OW88564  10.494   0.788   6.554
95556SOL    HW188565  10.536   0.859   6.506
95556SOL    HW288566  10.400   0.807   6.546
95557SOL     OW88567   7.066   2.128   6.007
95557SOL    HW188568   7.079   2.113   6.100
95557SOL    HW288569   7.042   2.042   5.972
95558SOL     OW88570   5.318   2.151  11.457
95558SOL    HW188571   5.275   2.109  11.532
95558SOL    HW288572   5.411   2.133  11.469
95559SOL     OW88573   8.790   8.516   3.609
95559SOL    HW188574   8.774   8.562   3.692
95559SOL    HW288575   8.724   8.446   3.607
95560SOL     OW88576   8.474  12.095   4.263
95560SOL    HW188577   8.558  12.079   4.219
95560SOL    HW288578   8.435  12.008   4.273
95561SOL     OW88579  10.964   2.971   6.556
95561SOL    HW188580  10.969   2.881   6.590
95561SOL    HW288581  10.889   2.970   6.496
95562SOL     OW88582  12.160  14.777   9.172
95562SOL    HW188583  12.227  14.768   9.104
95562SOL    HW288584  12.134  14.687   9.192
95563SOL     OW88585   5.249  12.060   9.539
95563SOL    HW188586   5.193  12.101   9.473
95563SOL    HW288587   5.206  12.081   9.622
95564SOL     OW88588   1.756   5.386   1.047
95564SOL    HW188589   1.808   5.405   1.126
95564SOL    HW288590   1.720   5.299   1.062
95565SOL     OW88591   2.669   4.818   3.434
95565SOL    HW188592   2.582   4.815   3.396
95565SOL    HW288593   2.704   4.730   3.419
95566SOL     OW88594   6.944   2.938  12.626
95566SOL    HW188595   7.020   2.979  12.585
95566SOL    HW288596   6.870   2.965  12.572
95567SOL     OW88597   4.628   4.594   2.903
95567SOL    HW188598   4.675   4.518   2.868
95567SOL    HW288599   4.697   4.657   2.923
95568SOL     OW88600   7.922  14.761   4.352
95568SOL    HW188601   7.978  14.687   4.374
95568SOL    HW288602   7.843  14.721   4.315
95569SOL     OW88603  14.379   1.830  10.502
95569SOL    HW188604  14.435   1.904  10.481
95569SOL    HW288605  14.439   1.756  10.512
95570SOL     OW88606   2.317  13.167   1.725
95570SOL    HW188607   2.374  13.179   1.801
95570SOL    HW288608   2.279  13.080   1.738
95571SOL     OW88609   6.576  11.186   3.534
95571SOL    HW188610   6.495  11.183   3.586
95571SOL    HW288611   6.570  11.110   3.476
95572SOL     OW88612   8.676   1.121   7.789
95572SOL    HW188613   8.770   1.125   7.807
95572SOL    HW288614   8.638   1.191   7.842
95573SOL     OW88615   0.846   1.153   4.113
95573SOL    HW188616   0.848   1.121   4.023
95573SOL    HW288617   0.910   1.224   4.116
95574SOL     OW88618  11.758   0.622   1.627
95574SOL    HW188619  11.753   0.640   1.533
95574SOL    HW288620  11.676   0.575   1.646
95575SOL     OW88621   6.515  11.116  13.619
95575SOL    HW188622   6.610  11.103  13.619
95575SOL    HW288623   6.479  11.028  13.629
95576SOL     OW88624  10.089   5.567   4.625
95576SOL    HW188625  10.149   5.589   4.554
95576SOL    HW288626  10.008   5.614   4.604
95577SOL     OW88627   0.758   0.048   1.787
95577SOL    HW188628   0.670   0.044   1.752
95577SOL    HW288629   0.763   0.135   1.828
95578SOL     OW88630  12.209  11.547  11.853
95578SOL    HW188631  12.135  11.542  11.914
95578SOL    HW288632  12.169  11.569  11.769
95579SOL     OW88633   6.820  11.645  14.307
95579SOL    HW188634   6.908  11.618  14.282
95579SOL    HW288635   6.813  11.620  14.399
95580SOL     OW88636   4.528   1.721  12.378
95580SOL    HW188637   4.443   1.741  12.417
95580SOL    HW288638   4.509   1.665  12.304
95581SOL     OW88639   7.563  10.587  13.337
95581SOL    HW188640   7.503  10.515  13.317
95581SOL    HW288641   7.649  10.554  13.311
95582SOL     OW88642   6.368  14.511  11.198
95582SOL    HW188643   6.356  14.593  11.149
95582SOL    HW288644   6.300  14.514  11.265
95583SOL     OW88645  12.767  11.383  11.571
95583SOL    HW188646  12.757  11.362  11.478
95583SOL    HW288647  12.687  11.349  11.612
95584SOL     OW88648   4.704  12.054  10.743
95584SOL    HW188649   4.740  12.030  10.829
95584SOL    HW288650   4.728  12.147  10.732
95585SOL     OW88651  12.509  10.436   1.293
95585SOL    HW188652  12.457  10.503   1.336
95585SOL    HW288653  12.452  10.401   1.224
95586SOL     OW88654   3.803  12.335  14.009
95586SOL    HW188655   3.737  12.377  14.063
95586SOL    HW288656   3.842  12.268  14.066
95587SOL     OW88657   6.377   6.682  13.829
95587SOL    HW188658   6.404   6.632  13.906
95587SOL    HW288659   6.457   6.693  13.778
95588SOL     OW88660   2.071  10.092  14.614
95588SOL    HW188661   1.976  10.092  14.623
95588SOL    HW288662   2.086  10.099  14.519
95589SOL     OW88663   1.729  14.183  12.719
95589SOL    HW188664   1.677  14.144  12.789
95589SOL    HW288665   1.674  14.175  12.641
95590SOL     OW88666   8.135   1.384  13.005
95590SOL    HW188667   8.178   1.331  13.072
95590SOL    HW288668   8.080   1.323  12.956
95591SOL     OW88669   0.688   4.283  12.850
95591SOL    HW188670   0.738   4.206  12.876
95591SOL    HW288671   0.675   4.273  12.756
95592SOL     OW88672   9.003  14.529  13.354
95592SOL    HW188673   8.941  14.596  13.383
95592SOL    HW288674   9.029  14.483  13.434
95593SOL     OW88675   8.061   2.949   6.686
95593SOL    HW188676   7.987   3.008   6.680
95593SOL    HW288677   8.106   2.974   6.767
95594SOL     OW88678   9.921   0.451  13.070
95594SOL    HW188679   9.897   0.445  13.163
95594SOL    HW288680  10.005   0.406  13.063
95595SOL     OW88681   8.944  14.332   1.322
95595SOL    HW188682   8.942  14.279   1.242
95595SOL    HW288683   9.005  14.285   1.379
95596SOL     OW88684   2.260   7.040   7.931
95596SOL    HW188685   2.332   7.102   7.947
95596SOL    HW288686   2.287   6.992   7.852
95597SOL     OW88687  11.113   2.892   0.917
95597SOL    HW188688  11.066   2.823   0.870
95597SOL    HW288689  11.200   2.893   0.878
95598SOL     OW88690   4.045  10.227   5.311
95598SOL    HW188691   4.093  10.234   5.229
95598SOL    HW288692   3.955  10.207   5.285
95599SOL     OW88693   0.526   4.255  10.972
95599SOL    HW188694   0.550   4.331  10.920
95599SOL    HW288695   0.430   4.256  10.974
95600SOL     OW88696   7.525  11.025   2.420
95600SOL    HW188697   7.563  11.053   2.503
95600SOL    HW288698   7.547  10.932   2.413
95601SOL     OW88699   2.203   0.370  13.871
95601SOL    HW188700   2.205   0.285  13.915
95601SOL    HW288701   2.110   0.391  13.864
95602SOL     OW88702   9.697   3.148   6.367
95602SOL    HW188703   9.730   3.205   6.436
95602SOL    HW288704   9.602   3.147   6.379
95603SOL     OW88705  10.968   9.379   1.906
95603SOL    HW188706  11.062   9.381   1.891
95603SOL    HW288707  10.930   9.375   1.818
95604SOL     OW88708   3.434   6.848   4.763
95604SOL    HW188709   3.465   6.822   4.676
95604SOL    HW288710   3.384   6.773   4.794
95605SOL     OW88711  10.819   8.627   2.832
95605SOL    HW188712  10.824   8.581   2.916
95605SOL    HW288713  10.815   8.720   2.855
95606SOL     OW88714   9.837   3.871   4.004
95606SOL    HW188715   9.846   3.873   4.099
95606SOL    HW288716   9.818   3.961   3.980
95607SOL     OW88717  14.502   2.894   7.030
95607SOL    HW188718  14.426   2.935   6.987
95607SOL    HW288719  14.463   2.835   7.095
95608SOL     OW88720   1.184   2.101  10.067
95608SOL    HW188721   1.249   2.170  10.048
95608SOL    HW288722   1.236   2.027  10.098
95609SOL     OW88723   9.219  12.789   4.296
95609SOL    HW188724   9.285  12.844   4.253
95609SOL    HW288725   9.147  12.784   4.233
95610SOL     OW88726  12.180   1.024   9.885
95610SOL    HW188727  12.249   1.089   9.880
95610SOL    HW288728  12.159   1.003   9.794
95611SOL     OW88729  13.841  12.133   2.503
95611SOL    HW188730  13.869  12.194   2.436
95611SOL    HW288731  13.780  12.074   2.459
95612SOL     OW88732  13.084   7.080  11.361
95612SOL    HW188733  13.008   7.070  11.304
95612SOL    HW288734  13.068   7.020  11.434
95613SOL     OW88735   4.590   8.288  14.263
95613SOL    HW188736   4.540   8.212  14.232
95613SOL    HW288737   4.645   8.253  14.333
95614SOL     OW88738   6.660  10.195  14.599
95614SOL    HW188739   6.602  10.186  14.675
95614SOL    HW288740   6.748  10.184  14.634
95615SOL     OW88741  13.401   7.458   0.362
95615SOL    HW188742  13.409   7.365   0.341
95615SOL    HW288743  13.397   7.502   0.277
95616SOL     OW88744   3.204   5.807   3.249
95616SOL    HW188745   3.128   5.767   3.206
95616SOL    HW288746   3.190   5.901   3.239
95617SOL     OW88747  12.256   5.303  11.141
95617SOL    HW188748  12.287   5.237  11.078
95617SOL    HW288749  12.329   5.365  11.147
95618SOL     OW88750   0.819   6.815   4.169
95618SOL    HW188751   0.754   6.749   4.194
95618SOL    HW288752   0.806   6.827   4.075
95619SOL     OW88753  13.112   4.220  11.261
95619SOL    HW188754  13.025   4.224  11.301
95619SOL    HW288755  13.149   4.307  11.276
95620SOL     OW88756   2.469  11.708  11.748
95620SOL    HW188757   2.468  11.612  11.747
95620SOL    HW288758   2.508  11.730  11.832
95621SOL     OW88759   6.904   4.838   5.445
95621SOL    HW188760   6.830   4.870   5.393
95621SOL    HW288761   6.915   4.904   5.513
95622SOL     OW88762   1.338   2.170   7.766
95622SOL    HW188763   1.374   2.094   7.720
95622SOL    HW288764   1.248   2.146   7.786
95623SOL     OW88765  12.560   8.801   8.639
95623SOL    HW188766  12.508   8.867   8.593
95623SOL    HW288767  12.625   8.772   8.576
95624SOL     OW88768  12.460   9.617   1.625
95624SOL    HW188769  12.529   9.620   1.691
95624SOL    HW288770  12.408   9.540   1.648
95625SOL     OW88771   6.410   5.880   3.118
95625SOL    HW188772   6.421   5.817   3.047
95625SOL    HW288773   6.461   5.956   3.090
95626SOL     OW88774   0.300   9.053  13.188
95626SOL    HW188775   0.302   8.965  13.149
95626SOL    HW288776   0.262   9.040  13.274
95627SOL     OW88777  13.994   8.322   4.089
95627SOL    HW188778  14.054   8.255   4.055
95627SOL    HW288779  14.009   8.398   4.033
95628SOL     OW88780  12.583   9.466  13.161
95628SOL    HW188781  12.608   9.555  13.188
95628SOL    HW288782  12.497   9.453  13.200
95629SOL     OW88783   8.982   4.521  11.673
95629SOL    HW188784   8.989   4.426  11.663
95629SOL    HW288785   8.890   4.541  11.657
95630SOL     OW88786   6.332   4.649   0.182
95630SOL    HW188787   6.418   4.672   0.216
95630SOL    HW288788   6.301   4.579   0.239
95631SOL     OW88789   2.066   2.331   8.907
95631SOL    HW188790   2.055   2.274   8.983
95631SOL    HW288791   1.979   2.335   8.867
95632SOL     OW88792   8.678   2.674   5.250
95632SOL    HW188793   8.677   2.764   5.282
95632SOL    HW288794   8.592   2.640   5.272
95633SOL     OW88795  13.581   9.741   7.908
95633SOL    HW188796  13.511   9.794   7.945
95633SOL    HW288797  13.662   9.785   7.933
95634SOL     OW88798   7.602   9.060   6.553
95634SOL    HW188799   7.591   8.965   6.543
95634SOL    HW288800   7.595   9.075   6.647
95635SOL     OW88801   0.221   5.978  13.372
95635SOL    HW188802   0.176   6.000  13.453
95635SOL    HW288803   0.285   5.911  13.397
95636SOL     OW88804   9.813   3.856  12.605
95636SOL    HW188805   9.855   3.879  12.523
95636SOL    HW288806   9.864   3.902  12.672
95637SOL     OW88807   6.889   3.204   1.903
95637SOL    HW188808   6.820   3.171   1.845
95637SOL    HW288809   6.965   3.150   1.881
95638SOL     OW88810   8.861  10.566  10.667
95638SOL    HW188811   8.875  10.642  10.725
95638SOL    HW288812   8.929  10.573  10.601
95639SOL     OW88813  10.818  12.008  14.532
95639SOL    HW188814  10.823  11.953  14.610
95639SOL    HW288815  10.905  12.002  14.493
95640SOL     OW88816  14.205   8.777   1.690
95640SOL    HW188817  14.163   8.692   1.704
95640SOL    HW288818  14.239   8.772   1.600
95641SOL     OW88819  13.931   2.562  10.244
95641SOL    HW188820  13.935   2.654  10.269
95641SOL    HW288821  14.016   2.543  10.205
95642SOL     OW88822   2.473   1.968   1.956
95642SOL    HW188823   2.560   1.978   1.917
95642SOL    HW288824   2.414   1.963   1.881
95643SOL     OW88825  11.893   6.533  13.262
95643SOL    HW188826  11.946   6.606  13.229
95643SOL    HW288827  11.920   6.525  13.354
95644SOL     OW88828  14.321   9.128   1.771
95644SOL    HW188829  14.295   9.042   1.803
95644SOL    HW288830  14.326   9.118   1.676
95645SOL     OW88831   9.288  13.079  11.930
95645SOL    HW188832   9.306  13.019  11.857
95645SOL    HW288833   9.371  13.082  11.978
95646SOL     OW88834   5.218   0.620  10.670
95646SOL    HW188835   5.167   0.621  10.751
95646SOL    HW288836   5.299   0.576  10.692
95647SOL     OW88837   6.848   0.425   7.150
95647SOL    HW188838   6.903   0.365   7.201
95647SOL    HW288839   6.857   0.509   7.195
95648SOL     OW88840  10.632   1.539  12.548
95648SOL    HW188841  10.697   1.471  12.538
95648SOL    HW288842  10.607   1.563  12.459
95649SOL     OW88843   8.924   0.758   3.248
95649SOL    HW188844   8.861   0.733   3.180
95649SOL    HW288845   8.990   0.809   3.202
95650SOL     OW88846  12.200   9.034   5.571
95650SOL    HW188847  12.243   9.082   5.500
95650SOL    HW288848  12.168   9.102   5.630
95651SOL     OW88849   6.942   3.974   6.944
95651SOL    HW188850   6.869   3.932   6.990
95651SOL    HW288851   6.901   4.026   6.875
95652SOL     OW88852   0.795   1.270  13.179
95652SOL    HW188853   0.841   1.342  13.134
95652SOL    HW288854   0.804   1.195  13.120
95653SOL     OW88855   3.655  10.612  12.221
95653SOL    HW188856   3.600  10.690  12.213
95653SOL    HW288857   3.630  10.557  12.147
95654SOL     OW88858  14.855   4.796   4.674
95654SOL    HW188859  14.803   4.717   4.658
95654SOL    HW288860  14.806   4.844   4.740
95655SOL     OW88861  14.142  14.533   2.720
95655SOL    HW188862  14.107  14.484   2.646
95655SOL    HW288863  14.141  14.470   2.792
95656SOL     OW88864   9.865   6.308   6.633
95656SOL    HW188865   9.959   6.290   6.630
95656SOL    HW288866   9.853   6.357   6.714
95657SOL     OW88867   5.533   6.453  10.659
95657SOL    HW188868   5.465   6.386  10.666
95657SOL    HW288869   5.614   6.403  10.645
95658SOL     OW88870  11.455  11.930   7.354
95658SOL    HW188871  11.537  11.944   7.306
95658SOL    HW288872  11.390  11.913   7.285
95659SOL     OW88873   9.416   2.495   7.781
95659SOL    HW188874   9.376   2.482   7.867
95659SOL    HW288875   9.392   2.585   7.757
95660SOL     OW88876   8.536  10.747  10.821
95660SOL    HW188877   8.477  10.707  10.886
95660SOL    HW288878   8.576  10.673  10.776
95661SOL     OW88879  12.526   1.117   2.964
95661SOL    HW188880  12.618   1.093   2.950
95661SOL    HW288881  12.485   1.107   2.879
95662SOL     OW88882   7.372   4.981  13.535
95662SOL    HW188883   7.284   4.961  13.503
95662SOL    HW288884   7.400   4.901  13.580
95663SOL     OW88885  12.105   4.978   8.965
95663SOL    HW188886  12.122   4.916   9.035
95663SOL    HW288887  12.186   5.028   8.956
95664SOL     OW88888   0.073  11.104   9.965
95664SOL    HW188889   0.092  11.051   9.887
95664SOL    HW288890   0.116  11.057  10.036
95665SOL     OW88891   0.433  14.419   5.368
95665SOL    HW188892   0.340  14.398   5.373
95665SOL    HW288893   0.435  14.512   5.345
95666SOL     OW88894   6.657  10.027   8.800
95666SOL    HW188895   6.697   9.941   8.791
95666SOL    HW288896   6.597  10.018   8.874
95667SOL     OW88897  11.800   9.591  14.323
95667SOL    HW188898  11.793   9.678  14.285
95667SOL    HW288899  11.865   9.546  14.268
95668SOL     OW88900  11.753   3.688   3.740
95668SOL    HW188901  11.715   3.729   3.817
95668SOL    HW288902  11.729   3.745   3.667
95669SOL     OW88903   8.433   4.508  13.874
95669SOL    HW188904   8.346   4.527  13.909
95669SOL    HW288905   8.493   4.535  13.942
95670SOL     OW88906   3.377  11.321   8.580
95670SOL    HW188907   3.284  11.310   8.601
95670SOL    HW288908   3.393  11.259   8.508
95671SOL     OW88909  13.741  11.605   3.442
95671SOL    HW188910  13.702  11.682   3.484
95671SOL    HW288911  13.733  11.536   3.507
95672SOL     OW88912   9.710   9.515  14.153
95672SOL    HW188913   9.712   9.434  14.204
95672SOL    HW288914   9.777   9.571  14.192
95673SOL     OW88915   2.646   0.813   3.356
95673SOL    HW188916   2.658   0.772   3.270
95673SOL    HW288917   2.552   0.809   3.372
95674SOL     OW88918   8.626   1.737   5.781
95674SOL    HW188919   8.554   1.790   5.815
95674SOL    HW288920   8.605   1.724   5.688
95675SOL     OW88921   4.870   0.530   4.368
95675SOL    HW188922   4.851   0.619   4.398
95675SOL    HW288923   4.965   0.529   4.354
95676SOL     OW88924  10.630   0.932  14.457
95676SOL    HW188925  10.561   0.989  14.422
95676SOL    HW288926  10.678   0.902  14.380
95677SOL     OW88927   9.014   7.594   3.007
95677SOL    HW188928   9.071   7.593   3.084
95677SOL    HW288929   9.063   7.644   2.942
95678SOL     OW88930   1.531   0.566   8.074
95678SOL    HW188931   1.597   0.631   8.050
95678SOL    HW288932   1.560   0.533   8.159
95679SOL     OW88933  13.263   1.382   9.412
95679SOL    HW188934  13.298   1.439   9.480
95679SOL    HW288935  13.169   1.376   9.432
95680SOL     OW88936   5.819  11.714  10.018
95680SOL    HW188937   5.741  11.713   9.963
95680SOL    HW288938   5.849  11.623  10.018
95681SOL     OW88939   0.386   2.426   9.159
95681SOL    HW188940   0.427   2.511   9.177
95681SOL    HW288941   0.403   2.410   9.066
95682SOL     OW88942   6.164   1.350   2.799
95682SOL    HW188943   6.103   1.341   2.873
95682SOL    HW288944   6.130   1.424   2.749
95683SOL     OW88945   5.871   6.108   3.771
95683SOL    HW188946   5.879   6.025   3.817
95683SOL    HW288947   5.912   6.093   3.686
95684SOL     OW88948   5.605   1.279   9.828
95684SOL    HW188949   5.685   1.332   9.829
95684SOL    HW288950   5.567   1.291   9.915
95685SOL     OW88951  13.764  10.000   0.296
95685SOL    HW188952  13.805   9.919   0.266
95685SOL    HW288953  13.740  10.046   0.216
95686SOL     OW88954  14.788   2.833   7.066
95686SOL    HW188955  14.694   2.841   7.080
95686SOL    HW288956  14.797   2.821   6.971
95687SOL     OW88957   4.150   7.612   8.801
95687SOL    HW188958   4.101   7.601   8.719
95687SOL    HW288959   4.149   7.525   8.841
95688SOL     OW88960   4.361   1.790   3.900
95688SOL    HW188961   4.315   1.741   3.831
95688SOL    HW288962   4.328   1.879   3.892
95689SOL     OW88963   5.858   8.697   2.540
95689SOL    HW188964   5.811   8.626   2.496
95689SOL    HW288965   5.796   8.769   2.543
95690SOL     OW88966   7.868   7.884  14.114
95690SOL    HW188967   7.825   7.868  14.029
95690SOL    HW288968   7.855   7.978  14.130
95691SOL     OW88969   7.899   3.104   3.638
95691SOL    HW188970   7.828   3.051   3.601
95691SOL    HW288971   7.939   3.047   3.703
95692SOL     OW88972   3.889   9.022  14.833
95692SOL    HW188973   3.888   9.118  14.842
95692SOL    HW288974   3.842   9.006  14.751
95693SOL     OW88975   0.594  13.532   2.860
95693SOL    HW188976   0.645  13.479   2.799
95693SOL    HW288977   0.559  13.603   2.806
95694SOL     OW88978   9.875   7.894   0.941
95694SOL    HW188979   9.830   7.815   0.911
95694SOL    HW288980   9.843   7.964   0.884
95695SOL     OW88981   4.614  12.462   8.230
95695SOL    HW188982   4.647  12.384   8.185
95695SOL    HW288983   4.537  12.488   8.180
95696SOL     OW88984  14.215   7.625   9.989
95696SOL    HW188985  14.157   7.652   9.918
95696SOL    HW288986  14.299   7.665   9.968
95697SOL     OW88987   9.478   8.246   6.683
95697SOL    HW188988   9.435   8.194   6.615
95697SOL    HW288989   9.412   8.256   6.751
95698SOL     OW88990  13.282   1.655   5.059
95698SOL    HW188991  13.221   1.612   5.119
95698SOL    HW288992  13.259   1.748   5.063
95699SOL     OW88993   1.774  13.890   0.486
95699SOL    HW188994   1.827  13.941   0.425
95699SOL    HW288995   1.774  13.802   0.449
95700SOL     OW88996   4.069   2.164   7.914
95700SOL    HW188997   3.992   2.180   7.860
95700SOL    HW288998   4.141   2.155   7.851
95701SOL     OW88999   7.173   9.270   9.849
95701SOL    HW189000   7.109   9.336   9.824
95701SOL    HW289001   7.193   9.224   9.768
95702SOL     OW89002  14.259   2.539   5.848
95702SOL    HW189003  14.259   2.445   5.865
95702SOL    HW289004  14.311   2.550   5.768
95703SOL     OW89005   9.725  14.283   5.500
95703SOL    HW189006   9.805  14.301   5.550
95703SOL    HW289007   9.732  14.192   5.475
95704SOL     OW89008   4.805   1.703  14.735
95704SOL    HW189009   4.847   1.682  14.652
95704SOL    HW289010   4.854   1.779  14.768
95705SOL     OW89011  11.068   3.600   1.848
95705SOL    HW189012  11.028   3.591   1.935
95705SOL    HW289013  11.054   3.514   1.807
95706SOL     OW89014   3.645   7.778  10.112
95706SOL    HW189015   3.721   7.797  10.057
95706SOL    HW289016   3.675   7.711  10.173
95707SOL     OW89017  10.903  10.953  14.468
95707SOL    HW189018  10.939  10.874  14.428
95707SOL    HW289019  10.876  11.008  14.393
95708SOL     OW89020  12.515  10.071   2.252
95708SOL    HW189021  12.576  10.060   2.325
95708SOL    HW289022  12.433  10.035   2.283
95709SOL     OW89023   2.104  14.545  12.624
95709SOL    HW189024   2.100  14.641  12.620
95709SOL    HW289025   2.092  14.524  12.716
95710SOL     OW89026   0.336  11.647   9.041
95710SOL    HW189027   0.308  11.558   9.063
95710SOL    HW289028   0.328  11.696   9.122
95711SOL     OW89029   2.948   0.818   3.329
95711SOL    HW189030   2.937   0.774   3.244
95711SOL    HW289031   2.859   0.826   3.363
95712SOL     OW89032   1.575   4.712   9.535
95712SOL    HW189033   1.555   4.752   9.619
95712SOL    HW289034   1.562   4.618   9.549
95713SOL     OW89035   8.990  13.283  13.278
95713SOL    HW189036   9.061  13.290  13.343
95713SOL    HW289037   8.937  13.209  13.309
95714SOL     OW89038   8.041   2.069   6.068
95714SOL    HW189039   8.027   2.048   5.976
95714SOL    HW289040   7.961   2.114   6.095
95715SOL     OW89041   5.525   2.956  12.633
95715SOL    HW189042   5.565   3.043  12.630
95715SOL    HW289043   5.431   2.973  12.634
95716SOL     OW89044   6.179  12.222  14.400
95716SOL    HW189045   6.219  12.248  14.483
95716SOL    HW289046   6.196  12.128  14.394
95717SOL     OW89047   7.711   5.517   9.018
95717SOL    HW189048   7.745   5.467   8.944
95717SOL    HW289049   7.768   5.493   9.091
95718SOL     OW89050  12.291   6.080   6.093
95718SOL    HW189051  12.232   6.012   6.127
95718SOL    HW289052  12.252   6.162   6.123
95719SOL     OW89053   6.565  12.826  13.007
95719SOL    HW189054   6.579  12.912  13.045
95719SOL    HW289055   6.501  12.783  13.064
95720SOL     OW89056   7.149   9.940  11.616
95720SOL    HW189057   7.193  10.022  11.638
95720SOL    HW289058   7.149   9.938  11.520
95721SOL     OW89059  13.539   9.070  13.504
95721SOL    HW189060  13.558   9.066  13.598
95721SOL    HW289061  13.520   8.979  13.480
95722SOL     OW89062   1.565   9.393   7.142
95722SOL    HW189063   1.570   9.487   7.123
95722SOL    HW289064   1.507   9.386   7.217
95723SOL     OW89065  10.837   1.193   2.703
95723SOL    HW189066  10.776   1.265   2.688
95723SOL    HW289067  10.920   1.223   2.665
95724SOL     OW89068  11.401   7.477   4.014
95724SOL    HW189069  11.347   7.522   3.949
95724SOL    HW289070  11.472   7.437   3.964
95725SOL     OW89071   2.237   1.096   3.657
95725SOL    HW189072   2.188   1.024   3.616
95725SOL    HW289073   2.314   1.055   3.695
95726SOL     OW89074   7.890   0.599   2.198
95726SOL    HW189075   7.838   0.650   2.135
95726SOL    HW289076   7.836   0.522   2.216
95727SOL     OW89077  11.578   4.575   0.447
95727SOL    HW189078  11.562   4.500   0.504
95727SOL    HW289079  11.674   4.586   0.449
95728SOL     OW89080   8.563  14.383   0.994
95728SOL    HW189081   8.516  14.300   0.990
95728SOL    HW289082   8.640  14.369   0.940
95729SOL     OW89083   9.866   9.996   4.001
95729SOL    HW189084   9.925  10.063   3.966
95729SOL    HW289085   9.806   9.976   3.929
95730SOL     OW89086   5.921   7.474  12.779
95730SOL    HW189087   5.957   7.456  12.692
95730SOL    HW289088   5.891   7.565  12.773
95731SOL     OW89089   6.883  10.132  13.859
95731SOL    HW189090   6.903  10.099  13.772
95731SOL    HW289091   6.877  10.054  13.914
95732SOL     OW89092  13.204   7.898   2.860
95732SOL    HW189093  13.217   7.903   2.766
95732SOL    HW289094  13.203   7.804   2.879
95733SOL     OW89095   8.904  14.584  14.676
95733SOL    HW189096   8.933  14.665  14.634
95733SOL    HW289097   8.848  14.541  14.611
95734SOL     OW89098   6.160   8.996  14.667
95734SOL    HW189099   6.208   9.031  14.742
95734SOL    HW289100   6.068   8.998  14.694
95735SOL     OW89101   9.886  11.908   9.779
95735SOL    HW189102   9.980  11.906   9.799
95735SOL    HW289103   9.875  11.987   9.725
95736SOL     OW89104   7.109   9.329   7.340
95736SOL    HW189105   7.190   9.360   7.380
95736SOL    HW289106   7.136   9.286   7.259
95737SOL     OW89107   9.674  10.041   3.120
95737SOL    HW189108   9.681  10.116   3.062
95737SOL    HW289109   9.646   9.969   3.064
95738SOL     OW89110  10.721   0.834   3.562
95738SOL    HW189111  10.699   0.744   3.536
95738SOL    HW289112  10.815   0.831   3.579
95739SOL     OW89113   5.747   5.655   8.948
95739SOL    HW189114   5.744   5.717   8.875
95739SOL    HW289115   5.703   5.700   9.020
95740SOL     OW89116   1.000   5.219   4.171
95740SOL    HW189117   1.005   5.167   4.091
95740SOL    HW289118   0.997   5.310   4.142
95741SOL     OW89119   5.742  12.590  13.189
95741SOL    HW189120   5.751  12.630  13.102
95741SOL    HW289121   5.670  12.527  13.179
95742SOL     OW89122   4.522   3.544   7.845
95742SOL    HW189123   4.555   3.510   7.927
95742SOL    HW289124   4.452   3.605   7.870
95743SOL     OW89125   6.552   2.033  13.462
95743SOL    HW189126   6.585   2.017  13.550
95743SOL    HW289127   6.630   2.054  13.410
95744SOL     OW89128  14.298   4.316   3.807
95744SOL    HW189129  14.369   4.265   3.847
95744SOL    HW289130  14.339   4.398   3.782
95745SOL     OW89131   1.661   5.685  10.024
95745SOL    HW189132   1.698   5.762   9.982
95745SOL    HW289133   1.627   5.716  10.108
95746SOL     OW89134  12.639  11.356   2.542
95746SOL    HW189135  12.654  11.285   2.604
95746SOL    HW289136  12.708  11.346   2.476
95747SOL     OW89137  10.484   7.339   9.729
95747SOL    HW189138  10.507   7.428   9.756
95747SOL    HW289139  10.564   7.288   9.744
95748SOL     OW89140   2.434  10.231  10.676
95748SOL    HW189141   2.355  10.284  10.671
95748SOL    HW289142   2.449  10.203  10.585
95749SOL     OW89143  13.892   8.756   1.558
95749SOL    HW189144  13.921   8.702   1.632
95749SOL    HW289145  13.948   8.834   1.561
95750SOL     OW89146  12.612  13.568  11.333
95750SOL    HW189147  12.547  13.537  11.396
95750SOL    HW289148  12.671  13.623  11.384
95751SOL     OW89149   3.503   0.645   0.515
95751SOL    HW189150   3.502   0.563   0.466
95751SOL    HW289151   3.472   0.711   0.454
95752SOL     OW89152   3.840   9.368   5.947
95752SOL    HW189153   3.868   9.285   5.986
95752SOL    HW289154   3.806   9.343   5.861
95753SOL     OW89155   9.537   1.017   6.928
95753SOL    HW189156   9.610   1.001   6.988
95753SOL    HW289157   9.553   0.958   6.854
95754SOL     OW89158   9.385  11.636   1.213
95754SOL    HW189159   9.336  11.614   1.134
95754SOL    HW289160   9.371  11.730   1.225
95755SOL     OW89161  12.114  11.188   3.109
95755SOL    HW189162  12.042  11.133   3.140
95755SOL    HW289163  12.113  11.177   3.014
95756SOL     OW89164   4.796  14.878   4.447
95756SOL    HW189165   4.809   0.071   4.508
95756SOL    HW289166   4.868  14.818   4.466
95757SOL     OW89167   9.569   3.529   2.590
95757SOL    HW189168   9.634   3.517   2.520
95757SOL    HW289169   9.548   3.623   2.587
95758SOL     OW89170   6.279   6.032   6.466
95758SOL    HW189171   6.200   6.084   6.479
95758SOL    HW289172   6.248   5.942   6.458
95759SOL     OW89173   1.269  12.986   1.160
95759SOL    HW189174   1.338  13.052   1.162
95759SOL    HW289175   1.297  12.920   1.223
95760SOL     OW89176  12.316   2.051  12.026
95760SOL    HW189177  12.284   2.024  12.112
95760SOL    HW289178  12.304   2.146  12.024
95761SOL     OW89179   9.330   0.879   0.355
95761SOL    HW189180   9.234   0.883   0.358
95761SOL    HW289181   9.356   0.855   0.444
95762SOL     OW89182   2.902   5.970   7.066
95762SOL    HW189183   2.822   5.918   7.064
95762SOL    HW289184   2.973   5.906   7.063
95763SOL     OW89185   7.614  12.841   7.808
95763SOL    HW189186   7.651  12.880   7.887
95763SOL    HW289187   7.598  12.749   7.831
95764SOL     OW89188  10.460  14.160   3.939
95764SOL    HW189189  10.547  14.174   3.903
95764SOL    HW289190  10.407  14.129   3.865
95765SOL     OW89191   8.084   5.198  11.541
95765SOL    HW189192   8.086   5.121  11.484
95765SOL    HW289193   8.170   5.200  11.582
95766SOL     OW89194   5.322   7.441   3.039
95766SOL    HW189195   5.227   7.454   3.031
95766SOL    HW289196   5.333   7.346   3.033
95767SOL     OW89197   1.496  13.124   1.244
95767SOL    HW189198   1.498  13.119   1.340
95767SOL    HW289199   1.570  13.179   1.222
95768SOL     OW89200   2.405  12.503   6.526
95768SOL    HW189201   2.330  12.510   6.585
95768SOL    HW289202   2.473  12.558   6.566
95769SOL     OW89203  14.144  11.586   3.024
95769SOL    HW189204  14.229  11.546   3.004
95769SOL    HW289205  14.137  11.581   3.119
95770SOL     OW89206   5.285  13.828   3.240
95770SOL    HW189207   5.222  13.808   3.308
95770SOL    HW289208   5.351  13.758   3.246
95771SOL     OW89209   0.671  11.687   4.007
95771SOL    HW189210   0.678  11.777   4.039
95771SOL    HW289211   0.601  11.648   4.058
95772SOL     OW89212  14.779   1.328   4.276
95772SOL    HW189213  14.748   1.411   4.312
95772SOL    HW289214  14.804   1.276   4.352
95773SOL     OW89215   7.461   4.109   7.034
95773SOL    HW189216   7.422   4.036   7.082
95773SOL    HW289217   7.506   4.161   7.101
95774SOL     OW89218   6.848   9.747   3.121
95774SOL    HW189219   6.893   9.804   3.059
95774SOL    HW289220   6.760   9.783   3.128
95775SOL     OW89221   1.769   7.616   4.495
95775SOL    HW189222   1.745   7.696   4.447
95775SOL    HW289223   1.861   7.630   4.519
95776SOL     OW89224   4.923   8.129  10.556
95776SOL    HW189225   4.988   8.062  10.534
95776SOL    HW289226   4.972   8.211  10.560
95777SOL     OW89227   4.964   0.452   8.720
95777SOL    HW189228   4.936   0.469   8.810
95777SOL    HW289229   4.970   0.539   8.681
95778SOL     OW89230  12.564  11.251   2.185
95778SOL    HW189231  12.611  11.242   2.102
95778SOL    HW289232  12.631  11.275   2.249
95779SOL     OW89233   5.240   4.496  13.148
95779SOL    HW189234   5.215   4.564  13.086
95779SOL    HW289235   5.241   4.415  13.097
95780SOL     OW89236  13.354   3.723   7.802
95780SOL    HW189237  13.409   3.649   7.825
95780SOL    HW289238  13.352   3.778   7.881
95781SOL     OW89239  14.308   6.257  10.317
95781SOL    HW189240  14.363   6.287  10.245
95781SOL    HW289241  14.350   6.177  10.348
95782SOL     OW89242   0.424   2.247   4.844
95782SOL    HW189243   0.405   2.179   4.909
95782SOL    HW289244   0.414   2.203   4.760
95783SOL     OW89245  11.746   1.606   9.739
95783SOL    HW189246  11.698   1.643   9.814
95783SOL    HW289247  11.761   1.515   9.762
95784SOL     OW89248  13.621  12.498  12.195
95784SOL    HW189249  13.634  12.536  12.282
95784SOL    HW289250  13.625  12.404  12.209
95785SOL     OW89251  14.371   9.129   8.073
95785SOL    HW189252  14.387   9.096   7.984
95785SOL    HW289253  14.322   9.211   8.059
95786SOL     OW89254  12.607   1.181  14.757
95786SOL    HW189255  12.591   1.268  14.793
95786SOL    HW289256  12.687   1.191  14.705
95787SOL     OW89257   8.941   7.420   7.307
95787SOL    HW189258   8.981   7.455   7.228
95787SOL    HW289259   8.983   7.468   7.378
95788SOL     OW89260  11.313   2.375   8.737
95788SOL    HW189261  11.295   2.419   8.820
95788SOL    HW289262  11.387   2.423   8.700
95789SOL     OW89263   7.285   3.488  13.737
95789SOL    HW189264   7.263   3.505  13.646
95789SOL    HW289265   7.211   3.522  13.787
95790SOL     OW89266   4.160   8.096  10.329
95790SOL    HW189267   4.177   8.003  10.344
95790SOL    HW289268   4.077   8.097  10.281
95791SOL     OW89269   7.399   3.074  11.617
95791SOL    HW189270   7.381   3.158  11.574
95791SOL    HW289271   7.386   3.092  11.710
95792SOL     OW89272   6.352  11.488   7.993
95792SOL    HW189273   6.427  11.430   8.008
95792SOL    HW289274   6.387  11.559   7.939
95793SOL     OW89275   4.601  14.232  11.237
95793SOL    HW189276   4.673  14.281  11.277
95793SOL    HW289277   4.544  14.209  11.310
95794SOL     OW89278   3.905   3.387   7.255
95794SOL    HW189279   3.886   3.476   7.225
95794SOL    HW289280   3.969   3.399   7.325
95795SOL     OW89281   5.063   3.448  12.768
95795SOL    HW189282   5.137   3.410  12.814
95795SOL    HW289283   5.003   3.475  12.837
95796SOL     OW89284   0.353   6.330  11.227
95796SOL    HW189285   0.410   6.307  11.301
95796SOL    HW289286   0.284   6.264  11.229
95797SOL     OW89287  12.263  13.859   6.889
95797SOL    HW189288  12.170  13.851   6.909
95797SOL    HW289289  12.298  13.916   6.958
95798SOL     OW89290  13.365   8.348  13.902
95798SOL    HW189291  13.422   8.330  13.977
95798SOL    HW289292  13.423   8.351  13.827
95799SOL     OW89293   4.091   7.636  11.252
95799SOL    HW189294   4.007   7.618  11.210
95799SOL    HW289295   4.071   7.637  11.346
95800SOL     OW89296   0.028  13.037   5.385
95800SOL    HW189297   0.121  13.016   5.379
95800SOL    HW289298  14.879  13.041   5.295
95801SOL     OW89299   2.958   0.631  13.989
95801SOL    HW189300   2.977   0.716  13.950
95801SOL    HW289301   2.932   0.651  14.080
95802SOL     OW89302  10.869   6.236   7.633
95802SOL    HW189303  10.923   6.247   7.712
95802SOL    HW289304  10.780   6.253   7.662
95803SOL     OW89305  11.199   2.977  14.519
95803SOL    HW189306  11.150   2.951  14.597
95803SOL    HW289307  11.141   3.038  14.474
95804SOL     OW89308  14.672   0.389  11.083
95804SOL    HW189309  14.762   0.369  11.055
95804SOL    HW289310  14.638   0.447  11.014
95805SOL     OW89311  14.479   0.341  13.084
95805SOL    HW189312  14.415   0.347  13.013
95805SOL    HW289313  14.550   0.288  13.047
95806SOL     OW89314   4.412   4.636   8.281
95806SOL    HW189315   4.379   4.607   8.196
95806SOL    HW289316   4.477   4.703   8.260
95807SOL     OW89317   9.542  13.662   0.716
95807SOL    HW189318   9.491  13.585   0.693
95807SOL    HW289319   9.633  13.637   0.698
95808SOL     OW89320  14.773   3.725   4.616
95808SOL    HW189321  14.842   3.791   4.610
95808SOL    HW289322  14.715   3.756   4.685
95809SOL     OW89323   4.785   6.497   2.104
95809SOL    HW189324   4.777   6.545   2.186
95809SOL    HW289325   4.823   6.561   2.042
95810SOL     OW89326  10.407   0.149   6.069
95810SOL    HW189327  10.424   0.093   6.145
95810SOL    HW289328  10.312   0.153   6.063
95811SOL     OW89329   0.040   0.263   3.799
95811SOL    HW189330   0.059   0.178   3.760
95811SOL    HW289331  14.864   0.243   3.874
95812SOL     OW89332   8.591  11.257   3.495
95812SOL    HW189333   8.495  11.258   3.491
95812SOL    HW289334   8.614  11.164   3.505
95813SOL     OW89335  14.790  14.009   4.979
95813SOL    HW189336  14.752  14.079   4.927
95813SOL    HW289337  14.721  13.941   4.982
95814SOL     OW89338   3.311   5.315   8.561
95814SOL    HW189339   3.251   5.330   8.488
95814SOL    HW289340   3.377   5.384   8.552
95815SOL     OW89341   5.831   0.313   2.628
95815SOL    HW189342   5.913   0.271   2.653
95815SOL    HW289343   5.848   0.350   2.541
95816SOL     OW89344   4.516   5.830   9.324
95816SOL    HW189345   4.541   5.861   9.412
95816SOL    HW289346   4.593   5.847   9.270
95817SOL     OW89347   8.751   4.222   9.448
95817SOL    HW189348   8.719   4.205   9.537
95817SOL    HW289349   8.820   4.157   9.434
95818SOL     OW89350  14.627  11.142   2.191
95818SOL    HW189351  14.715  11.173   2.171
95818SOL    HW289352  14.634  11.046   2.189
95819SOL     OW89353  12.944   3.394   9.703
95819SOL    HW189354  12.947   3.383   9.798
95819SOL    HW289355  12.853   3.373   9.680
95820SOL     OW89356   2.065  14.710   8.588
95820SOL    HW189357   2.152  14.721   8.549
95820SOL    HW289358   2.077  14.639   8.652
95821SOL     OW89359   9.235   0.634   3.269
95821SOL    HW189360   9.304   0.572   3.247
95821SOL    HW289361   9.210   0.673   3.185
95822SOL     OW89362   2.744  12.122  11.025
95822SOL    HW189363   2.707  12.180  11.091
95822SOL    HW289364   2.724  12.034  11.056
95823SOL     OW89365   8.719  11.646   8.850
95823SOL    HW189366   8.646  11.604   8.804
95823SOL    HW289367   8.753  11.709   8.787
95824SOL     OW89368   4.763  12.702  10.377
95824SOL    HW189369   4.850  12.736  10.354
95824SOL    HW289370   4.710  12.718  10.300
95825SOL     OW89371   4.518  10.136  14.477
95825SOL    HW189372   4.498  10.203  14.411
95825SOL    HW289373   4.446  10.073  14.470
95826SOL     OW89374   1.162  14.436  12.301
95826SOL    HW189375   1.251  14.422  12.267
95826SOL    HW289376   1.138  14.523  12.270
95827SOL     OW89377   3.497  11.241  10.966
95827SOL    HW189378   3.423  11.234  10.905
95827SOL    HW289379   3.561  11.295  10.920
95828SOL     OW89380   9.527   1.668   8.688
95828SOL    HW189381   9.547   1.736   8.623
95828SOL    HW289382   9.449   1.701   8.733
95829SOL     OW89383   7.782  11.070   8.556
95829SOL    HW189384   7.806  11.111   8.473
95829SOL    HW289385   7.697  11.029   8.539
95830SOL     OW89386   4.143   0.264   5.694
95830SOL    HW189387   4.189   0.297   5.771
95830SOL    HW289388   4.071   0.211   5.729
95831SOL     OW89389  11.126  14.206  14.769
95831SOL    HW189390  11.179  14.142  14.722
95831SOL    HW289391  11.175  14.223  14.850
95832SOL     OW89392   8.378   0.142   5.221
95832SOL    HW189393   8.409   0.079   5.286
95832SOL    HW289394   8.438   0.131   5.147
95833SOL     OW89395  10.014  11.385   3.916
95833SOL    HW189396   9.980  11.469   3.947
95833SOL    HW289397   9.935  11.332   3.902
95834SOL     OW89398   3.773   6.488   4.347
95834SOL    HW189399   3.845   6.429   4.329
95834SOL    HW289400   3.694   6.437   4.326
95835SOL     OW89401   4.796   0.307   0.813
95835SOL    HW189402   4.737   0.330   0.885
95835SOL    HW289403   4.832   0.222   0.838
95836SOL     OW89404  10.148   3.049   2.423
95836SOL    HW189405  10.227   3.005   2.393
95836SOL    HW289406  10.089   2.978   2.449
95837SOL     OW89407   6.449   5.728   9.717
95837SOL    HW189408   6.463   5.816   9.753
95837SOL    HW289409   6.356   5.711   9.730
95838SOL     OW89410   8.058   3.593  13.353
95838SOL    HW189411   8.024   3.505  13.342
95838SOL    HW289412   8.132   3.597  13.293
95839SOL     OW89413  10.485   5.739   5.395
95839SOL    HW189414  10.546   5.667   5.377
95839SOL    HW289415  10.477   5.786   5.311
95840SOL     OW89416   4.153   5.272   9.248
95840SOL    HW189417   4.245   5.278   9.273
95840SOL    HW289418   4.105   5.294   9.328
95841SOL     OW89419   8.549  13.201   0.248
95841SOL    HW189420   8.633  13.220   0.208
95841SOL    HW289421   8.511  13.131   0.194
95842SOL     OW89422   2.973   8.075   3.066
95842SOL    HW189423   3.063   8.060   3.040
95842SOL    HW289424   2.959   8.018   3.141
95843SOL     OW89425   7.905  14.299   7.033
95843SOL    HW189426   7.939  14.219   7.073
95843SOL    HW289427   7.811  14.295   7.048
95844SOL     OW89428  13.583   8.895  11.195
95844SOL    HW189429  13.647   8.842  11.242
95844SOL    HW289430  13.592   8.983  11.232
95845SOL     OW89431   2.977  13.890   8.773
95845SOL    HW189432   3.030  13.811   8.759
95845SOL    HW289433   2.944  13.912   8.685
95846SOL     OW89434   6.122   1.651   1.750
95846SOL    HW189435   6.169   1.577   1.712
95846SOL    HW289436   6.190   1.717   1.767
95847SOL     OW89437   6.774   1.277   3.872
95847SOL    HW189438   6.804   1.304   3.785
95847SOL    HW289439   6.854   1.267   3.924
95848SOL     OW89440   1.448  10.389  11.364
95848SOL    HW189441   1.493  10.305  11.371
95848SOL    HW289442   1.371  10.381  11.421
95849SOL     OW89443  13.417  10.955   0.590
95849SOL    HW189444  13.353  11.026   0.595
95849SOL    HW289445  13.365  10.877   0.566
95850SOL     OW89446   2.617   4.874   4.337
95850SOL    HW189447   2.627   4.779   4.346
95850SOL    HW289448   2.639   4.891   4.245
95851SOL     OW89449  11.693   8.136   5.423
95851SOL    HW189450  11.671   8.065   5.363
95851SOL    HW289451  11.638   8.121   5.500
95852SOL     OW89452   5.423   9.007   5.969
95852SOL    HW189453   5.485   8.951   5.921
95852SOL    HW289454   5.399   9.075   5.906
95853SOL     OW89455  13.832  14.731   9.692
95853SOL    HW189456  13.750  14.775   9.716
95853SOL    HW289457  13.838  14.742   9.597
95854SOL     OW89458  10.267   4.540   0.618
95854SOL    HW189459  10.334   4.603   0.645
95854SOL    HW289460  10.292   4.459   0.662
95855SOL     OW89461   0.466  14.365  10.476
95855SOL    HW189462   0.441  14.282  10.436
95855SOL    HW289463   0.455  14.351  10.570
95856SOL     OW89464   3.664  10.577   5.119
95856SOL    HW189465   3.627  10.637   5.183
95856SOL    HW289466   3.734  10.532   5.165
95857SOL     OW89467   4.917  12.162   5.067
95857SOL    HW189468   5.000  12.205   5.046
95857SOL    HW289469   4.934  12.117   5.150
95858SOL     OW89470   4.331  14.238   5.298
95858SOL    HW189471   4.399  14.295   5.263
95858SOL    HW289472   4.329  14.163   5.238
95859SOL     OW89473   2.331   8.445   0.269
95859SOL    HW189474   2.313   8.404   0.354
95859SOL    HW289475   2.266   8.515   0.262
95860SOL     OW89476  14.677  11.805   7.014
95860SOL    HW189477  14.682  11.800   7.109
95860SOL    HW289478  14.605  11.865   6.996
95861SOL     OW89479   0.020   6.579   0.293
95861SOL    HW189480  14.861   6.627   0.220
95861SOL    HW289481   0.007   6.636   0.369
95862SOL     OW89482   0.527   0.723  10.480
95862SOL    HW189483   0.577   0.662  10.535
95862SOL    HW289484   0.565   0.808  10.499
95863SOL     OW89485  13.456  10.230   5.355
95863SOL    HW189486  13.475  10.300   5.292
95863SOL    HW289487  13.391  10.175   5.311
95864SOL     OW89488   1.671   3.904  14.711
95864SOL    HW189489   1.750   3.853  14.728
95864SOL    HW289490   1.677   3.927  14.618
95865SOL     OW89491  10.058   7.736  13.856
95865SOL    HW189492  10.023   7.806  13.801
95865SOL    HW289493  10.149   7.763  13.874
95866SOL     OW89494   1.474   4.123   5.561
95866SOL    HW189495   1.395   4.105   5.510
95866SOL    HW289496   1.544   4.124   5.496
95867SOL     OW89497  14.544  13.454   4.302
95867SOL    HW189498  14.581  13.543   4.308
95867SOL    HW289499  14.575  13.410   4.381
95868SOL     OW89500   8.993   7.450   2.712
95868SOL    HW189501   9.036   7.533   2.691
95868SOL    HW289502   8.905   7.476   2.741
95869SOL     OW89503  12.290   8.395  13.584
95869SOL    HW189504  12.373   8.374  13.542
95869SOL    HW289505  12.246   8.454  13.523
95870SOL     OW89506   6.419  10.651   0.316
95870SOL    HW189507   6.437  10.571   0.266
95870SOL    HW289508   6.500  10.701   0.313
95871SOL     OW89509  11.069   9.798   2.263
95871SOL    HW189510  11.136   9.732   2.247
95871SOL    HW289511  10.987   9.753   2.244
95872SOL     OW89512   5.107   3.943  13.908
95872SOL    HW189513   5.165   3.960  13.982
95872SOL    HW289514   5.164   3.902  13.842
95873SOL     OW89515  14.041   5.082   2.371
95873SOL    HW189516  14.029   4.988   2.387
95873SOL    HW289517  14.044   5.089   2.276
95874SOL     OW89518   5.198   0.374  11.689
95874SOL    HW189519   5.215   0.368  11.783
95874SOL    HW289520   5.119   0.428  11.683
95875SOL     OW89521   4.919   7.264   7.053
95875SOL    HW189522   4.896   7.281   6.962
95875SOL    HW289523   4.847   7.210   7.086
95876SOL     OW89524   1.063   1.454   2.350
95876SOL    HW189525   1.032   1.543   2.334
95876SOL    HW289526   1.111   1.459   2.433
95877SOL     OW89527   4.213   1.626   3.721
95877SOL    HW189528   4.260   1.565   3.663
95877SOL    HW289529   4.173   1.689   3.661
95878SOL     OW89530  10.828  10.551  13.164
95878SOL    HW189531  10.750  10.600  13.193
95878SOL    HW289532  10.844  10.583  13.075
95879SOL     OW89533   6.176   2.492   7.157
95879SOL    HW189534   6.162   2.426   7.089
95879SOL    HW289535   6.212   2.443   7.231
95880SOL     OW89536   9.569  11.678   3.982
95880SOL    HW189537   9.632  11.700   3.914
95880SOL    HW289538   9.544  11.587   3.963
95881SOL     OW89539  10.392   2.225  10.710
95881SOL    HW189540  10.431   2.305  10.746
95881SOL    HW289541  10.326   2.199  10.775
95882SOL     OW89542  12.186   0.826  14.060
95882SOL    HW189543  12.102   0.867  14.041
95882SOL    HW289544  12.206   0.852  14.150
95883SOL     OW89545   7.449   4.069   5.321
95883SOL    HW189546   7.382   4.002   5.337
95883SOL    HW289547   7.400   4.151   5.318
95884SOL     OW89548   4.952   8.537   4.799
95884SOL    HW189549   4.924   8.542   4.708
95884SOL    HW289550   4.917   8.616   4.839
95885SOL     OW89551   2.442   7.107   0.890
95885SOL    HW189552   2.444   7.021   0.933
95885SOL    HW289553   2.493   7.164   0.947
95886SOL     OW89554  12.830  11.414  13.639
95886SOL    HW189555  12.852  11.321  13.642
95886SOL    HW289556  12.888  11.455  13.704
95887SOL     OW89557  11.409   7.938  12.609
95887SOL    HW189558  11.424   7.858  12.559
95887SOL    HW289559  11.410   8.007  12.542
95888SOL     OW89560  14.588  12.712  13.773
95888SOL    HW189561  14.514  12.745  13.721
95888SOL    HW289562  14.557  12.630  13.810
95889SOL     OW89563   3.726  11.937  11.302
95889SOL    HW189564   3.670  11.899  11.370
95889SOL    HW289565   3.801  11.972  11.349
95890SOL     OW89566   7.859   7.761  10.139
95890SOL    HW189567   7.834   7.674  10.171
95890SOL    HW289568   7.954   7.762  10.145
95891SOL     OW89569  13.957   1.123   9.870
95891SOL    HW189570  13.959   1.154   9.960
95891SOL    HW289571  13.878   1.162   9.833
95892SOL     OW89572   1.516  10.036   5.275
95892SOL    HW189573   1.499   9.993   5.359
95892SOL    HW289574   1.489   9.972   5.209
95893SOL     OW89575   6.401  10.319   4.208
95893SOL    HW189576   6.433  10.277   4.288
95893SOL    HW289577   6.385  10.247   4.147
95894SOL     OW89578   7.940  13.293  13.836
95894SOL    HW189579   8.014  13.328  13.786
95894SOL    HW289580   7.936  13.201  13.812
95895SOL     OW89581   2.773   5.409  12.808
95895SOL    HW189582   2.689   5.373  12.837
95895SOL    HW289583   2.791   5.481  12.868
95896SOL     OW89584  11.579   2.305  10.414
95896SOL    HW189585  11.531   2.388  10.421
95896SOL    HW289586  11.629   2.314  10.333
95897SOL     OW89587   6.342  10.411   3.465
95897SOL    HW189588   6.309  10.326   3.434
95897SOL    HW289589   6.322  10.411   3.559
95898SOL     OW89590  11.055  11.548   1.335
95898SOL    HW189591  10.980  11.587   1.380
95898SOL    HW289592  11.030  11.549   1.243
95899SOL     OW89593  13.687   2.213  11.165
95899SOL    HW189594  13.631   2.135  11.167
95899SOL    HW289595  13.705   2.228  11.072
95900SOL     OW89596  12.412   2.123   4.154
95900SOL    HW189597  12.335   2.082   4.192
95900SOL    HW289598  12.397   2.217   4.162
95901SOL     OW89599   9.648   7.065   2.891
95901SOL    HW189600   9.583   6.999   2.914
95901SOL    HW289601   9.652   7.123   2.967
95902SOL     OW89602  11.505  10.804   0.126
95902SOL    HW189603  11.476  10.832   0.212
95902SOL    HW289604  11.590  10.761   0.141
95903SOL     OW89605   4.425  14.581   8.282
95903SOL    HW189606   4.331  14.598   8.291
95903SOL    HW289607   4.431  14.515   8.214
95904SOL     OW89608   3.952   7.431   2.722
95904SOL    HW189609   3.996   7.351   2.749
95904SOL    HW289610   4.023   7.489   2.691
95905SOL     OW89611  10.711  11.856   5.984
95905SOL    HW189612  10.726  11.950   5.974
95905SOL    HW289613  10.799  11.819   5.994
95906SOL     OW89614  11.291   1.608   9.279
95906SOL    HW189615  11.204   1.649   9.279
95906SOL    HW289616  11.274   1.517   9.301
95907SOL     OW89617   1.337  10.613   9.089
95907SOL    HW189618   1.385  10.556   9.029
95907SOL    HW289619   1.405  10.651   9.144
95908SOL     OW89620  12.703   2.964  10.770
95908SOL    HW189621  12.624   2.933  10.814
95908SOL    HW289622  12.775   2.925  10.820
95909SOL     OW89623  14.242   2.348  10.912
95909SOL    HW189624  14.149   2.324  10.917
95909SOL    HW289625  14.286   2.268  10.886
95910SOL     OW89626   3.053   6.222  12.506
95910SOL    HW189627   3.116   6.194  12.439
95910SOL    HW289628   2.974   6.172  12.487
95911SOL     OW89629   5.881   0.800  12.947
95911SOL    HW189630   5.820   0.845  12.888
95911SOL    HW289631   5.904   0.866  13.012
95912SOL     OW89632   2.276   1.646   9.129
95912SOL    HW189633   2.306   1.734   9.151
95912SOL    HW289634   2.303   1.633   9.038
95913SOL     OW89635  13.301   5.374   2.259
95913SOL    HW189636  13.292   5.353   2.167
95913SOL    HW289637  13.395   5.368   2.276
95914SOL     OW89638   8.936   5.485   3.880
95914SOL    HW189639   8.910   5.406   3.832
95914SOL    HW289640   8.983   5.538   3.815
95915SOL     OW89641   9.332   9.112   5.408
95915SOL    HW189642   9.257   9.171   5.421
95915SOL    HW289643   9.364   9.094   5.496
95916SOL     OW89644  11.295  10.062   0.237
95916SOL    HW189645  11.355  10.031   0.305
95916SOL    HW289646  11.210  10.028   0.263
95917SOL     OW89647  14.411   0.415  13.670
95917SOL    HW189648  14.331   0.402  13.620
95917SOL    HW289649  14.474   0.447  13.606
95918SOL     OW89650   2.155  10.332   3.267
95918SOL    HW189651   2.062  10.332   3.293
95918SOL    HW289652   2.156  10.285   3.184
95919SOL     OW89653  12.625  13.731   2.132
95919SOL    HW189654  12.656  13.780   2.209
95919SOL    HW289655  12.555  13.675   2.166
95920SOL     OW89656   1.627  11.658   2.533
95920SOL    HW189657   1.710  11.703   2.517
95920SOL    HW289658   1.560  11.724   2.514
95921SOL     OW89659   6.954   1.118   9.749
95921SOL    HW189660   7.018   1.170   9.701
95921SOL    HW289661   6.870   1.135   9.705
95922SOL     OW89662  12.084   2.359  11.200
95922SOL    HW189663  12.033   2.413  11.139
95922SOL    HW289664  12.174   2.366  11.168
95923SOL     OW89665   6.789   0.144   4.592
95923SOL    HW189666   6.864   0.149   4.651
95923SOL    HW289667   6.819   0.090   4.519
95924SOL     OW89668  10.222   8.775   9.169
95924SOL    HW189669  10.273   8.771   9.250
95924SOL    HW289670  10.283   8.750   9.100
95925SOL     OW89671   4.144   7.990   2.749
95925SOL    HW189672   4.081   7.917   2.748
95925SOL    HW289673   4.166   8.001   2.841
95926SOL     OW89674   1.392   8.511   3.451
95926SOL    HW189675   1.447   8.483   3.378
95926SOL    HW289676   1.309   8.464   3.438
95927SOL     OW89677   0.395   4.465   0.853
95927SOL    HW189678   0.451   4.390   0.833
95927SOL    HW289679   0.308   4.427   0.863
95928SOL     OW89680   2.434   1.662   5.491
95928SOL    HW189681   2.475   1.742   5.522
95928SOL    HW289682   2.507   1.602   5.475
95929SOL     OW89683  13.821  12.444   5.377
95929SOL    HW189684  13.798  12.388   5.303
95929SOL    HW289685  13.907  12.481   5.354
95930SOL     OW89686   5.684   7.003   0.577
95930SOL    HW189687   5.683   7.069   0.646
95930SOL    HW289688   5.729   6.928   0.615
95931SOL     OW89689   9.941  13.262  13.448
95931SOL    HW189690   9.969  13.265  13.356
95931SOL    HW289691   9.912  13.351  13.467
95932SOL     OW89692   0.363   1.755  14.024
95932SOL    HW189693   0.425   1.708  13.969
95932SOL    HW289694   0.349   1.838  13.979
95933SOL     OW89695   2.290   4.475  14.462
95933SOL    HW189696   2.287   4.380  14.450
95933SOL    HW289697   2.257   4.489  14.551
95934SOL     OW89698   5.310   8.177  12.854
95934SOL    HW189699   5.294   8.136  12.939
95934SOL    HW289700   5.288   8.108  12.790
95935SOL     OW89701   6.562   8.475  13.536
95935SOL    HW189702   6.480   8.523  13.529
95935SOL    HW289703   6.611   8.521  13.605
95936SOL     OW89704   4.156   2.870   7.316
95936SOL    HW189705   4.137   2.963   7.327
95936SOL    HW289706   4.240   2.868   7.271
95937SOL     OW89707   6.914  13.873  10.210
95937SOL    HW189708   6.954  13.929  10.144
95937SOL    HW289709   6.884  13.796  10.162
95938SOL     OW89710   5.763   9.198  12.549
95938SOL    HW189711   5.686   9.239  12.588
95938SOL    HW289712   5.808   9.155  12.622
95939SOL     OW89713  10.708   2.236  11.155
95939SOL    HW189714  10.640   2.175  11.183
95939SOL    HW289715  10.707   2.231  11.060
95940SOL     OW89716   3.984   6.641   4.888
95940SOL    HW189717   3.947   6.715   4.840
95940SOL    HW289718   3.933   6.566   4.858
95941SOL     OW89719   9.092   2.696  12.461
95941SOL    HW189720   9.099   2.626  12.526
95941SOL    HW289721   9.005   2.683  12.421
95942SOL     OW89722  14.187   3.182  10.713
95942SOL    HW189723  14.121   3.168  10.780
95942SOL    HW289724  14.269   3.193  10.762
95943SOL     OW89725   9.044  13.812   0.941
95943SOL    HW189726   9.134  13.811   0.975
95943SOL    HW289727   9.007  13.728   0.970
95944SOL     OW89728   7.423   9.932  11.265
95944SOL    HW189729   7.426   9.871  11.338
95944SOL    HW289730   7.467  10.010  11.297
95945SOL     OW89731   3.841  11.555  10.555
95945SOL    HW189732   3.853  11.507  10.637
95945SOL    HW289733   3.928  11.591  10.535
95946SOL     OW89734   4.724  12.618   8.986
95946SOL    HW189735   4.665  12.639   9.059
95946SOL    HW289736   4.776  12.545   9.017
95947SOL     OW89737  14.026   8.277   6.734
95947SOL    HW189738  14.010   8.194   6.780
95947SOL    HW289739  13.941   8.301   6.697
95948SOL     OW89740   9.797   4.232  14.164
95948SOL    HW189741   9.767   4.310  14.211
95948SOL    HW289742   9.730   4.166  14.182
95949SOL     OW89743   0.686  14.824   2.261
95949SOL    HW189744   0.687   0.038   2.245
95949SOL    HW289745   0.719  14.786   2.179
95950SOL     OW89746  10.513   4.301   8.529
95950SOL    HW189747  10.590   4.355   8.516
95950SOL    HW289748  10.533   4.247   8.606
95951SOL     OW89749   4.798   4.440   3.510
95951SOL    HW189750   4.766   4.382   3.441
95951SOL    HW289751   4.832   4.517   3.463
95952SOL     OW89752  11.790   5.585  14.172
95952SOL    HW189753  11.852   5.577  14.245
95952SOL    HW289754  11.704   5.585  14.214
95953SOL     OW89755   9.467   1.153  13.071
95953SOL    HW189756   9.517   1.087  13.119
95953SOL    HW289757   9.533   1.204  13.024
95954SOL     OW89758   2.730   5.441  10.861
95954SOL    HW189759   2.787   5.467  10.934
95954SOL    HW289760   2.790   5.417  10.791
95955SOL     OW89761  11.038   0.354  13.955
95955SOL    HW189762  10.986   0.278  13.930
95955SOL    HW289763  11.073   0.388  13.873
95956SOL     OW89764   3.439   8.370  10.190
95956SOL    HW189765   3.424   8.438  10.255
95956SOL    HW289766   3.467   8.293  10.240
95957SOL     OW89767  11.747   9.438  13.913
95957SOL    HW189768  11.692   9.469  13.985
95957SOL    HW289769  11.832   9.422  13.955
95958SOL     OW89770  10.932   2.821   4.154
95958SOL    HW189771  11.016   2.824   4.109
95958SOL    HW289772  10.907   2.912   4.165
95959SOL     OW89773   2.367   5.970   5.722
95959SOL    HW189774   2.351   6.064   5.711
95959SOL    HW289775   2.309   5.928   5.658
95960SOL     OW89776   5.253   2.148   4.569
95960SOL    HW189777   5.176   2.091   4.560
95960SOL    HW289778   5.239   2.195   4.651
95961SOL     OW89779  12.879   1.994   6.344
95961SOL    HW189780  12.866   1.901   6.329
95961SOL    HW289781  12.798   2.023   6.387
95962SOL     OW89782   3.233   0.824   0.732
95962SOL    HW189783   3.205   0.864   0.814
95962SOL    HW289784   3.312   0.775   0.756
95963SOL     OW89785  11.580   9.543   4.654
95963SOL    HW189786  11.505   9.560   4.597
95963SOL    HW289787  11.546   9.554   4.743
95964SOL     OW89788   8.312  14.059   2.285
95964SOL    HW189789   8.352  14.132   2.332
95964SOL    HW289790   8.218  14.074   2.292
95965SOL     OW89791  12.658  11.648   8.208
95965SOL    HW189792  12.613  11.680   8.287
95965SOL    HW289793  12.588  11.617   8.151
95966SOL     OW89794   5.650   5.084   7.722
95966SOL    HW189795   5.605   5.040   7.794
95966SOL    HW289796   5.626   5.176   7.731
95967SOL     OW89797   7.803   5.747   3.384
95967SOL    HW189798   7.747   5.701   3.446
95967SOL    HW289799   7.767   5.725   3.298
95968SOL     OW89800  12.772   9.591   6.556
95968SOL    HW189801  12.797   9.510   6.601
95968SOL    HW289802  12.697   9.624   6.606
95969SOL     OW89803   5.124   0.449  10.454
95969SOL    HW189804   5.218   0.439  10.470
95969SOL    HW289805   5.103   0.537  10.484
95970SOL     OW89806  10.501   1.337  14.544
95970SOL    HW189807  10.485   1.426  14.574
95970SOL    HW289808  10.558   1.300  14.612
95971SOL     OW89809   6.785   1.789   1.105
95971SOL    HW189810   6.880   1.787   1.091
95971SOL    HW289811   6.758   1.698   1.094
95972SOL     OW89812   7.301  14.330   2.685
95972SOL    HW189813   7.207  14.336   2.704
95972SOL    HW289814   7.342  14.387   2.749
95973SOL     OW89815   9.798   3.799   8.324
95973SOL    HW189816   9.886   3.767   8.342
95973SOL    HW289817   9.810   3.886   8.287
95974SOL     OW89818   5.672   4.977   0.924
95974SOL    HW189819   5.615   5.016   0.857
95974SOL    HW289820   5.690   4.889   0.892
95975SOL     OW89821  12.383   9.563   9.565
95975SOL    HW189822  12.437   9.532   9.638
95975SOL    HW289823  12.434   9.544   9.487
95976SOL     OW89824   8.652   5.313  11.041
95976SOL    HW189825   8.666   5.240  11.102
95976SOL    HW289826   8.623   5.271  10.960
95977SOL     OW89827  10.817  11.275   8.398
95977SOL    HW189828  10.792  11.187   8.369
95977SOL    HW289829  10.768  11.288   8.479
95978SOL     OW89830   9.481  13.268  13.457
95978SOL    HW189831   9.499  13.174  13.452
95978SOL    HW289832   9.564  13.310  13.433
95979SOL     OW89833   9.405  10.255   9.527
95979SOL    HW189834   9.470  10.209   9.580
95979SOL    HW289835   9.418  10.348   9.549
95980SOL     OW89836   5.251  10.874  11.767
95980SOL    HW189837   5.243  10.901  11.676
95980SOL    HW289838   5.173  10.911  11.810
95981SOL     OW89839   4.847   2.003   0.942
95981SOL    HW189840   4.910   1.973   0.877
95981SOL    HW289841   4.898   2.060   1.000
95982SOL     OW89842   8.878   9.323   0.244
95982SOL    HW189843   8.827   9.333   0.163
95982SOL    HW289844   8.965   9.356   0.221
95983SOL     OW89845   6.606   5.894   2.764
95983SOL    HW189846   6.540   5.857   2.823
95983SOL    HW289847   6.663   5.946   2.821
95984SOL     OW89848   5.409   6.876   5.366
95984SOL    HW189849   5.448   6.962   5.348
95984SOL    HW289850   5.325   6.896   5.407
95985SOL     OW89851  13.862   8.316   3.642
95985SOL    HW189852  13.782   8.293   3.689
95985SOL    HW289853  13.877   8.408   3.664
95986SOL     OW89854   1.758  14.329  13.720
95986SOL    HW189855   1.702  14.256  13.696
95986SOL    HW289856   1.847  14.295  13.711
95987SOL     OW89857   0.485  12.402  13.960
95987SOL    HW189858   0.532  12.482  13.937
95987SOL    HW289859   0.514  12.338  13.895
95988SOL     OW89860  12.022   1.023   3.471
95988SOL    HW189861  12.072   1.029   3.390
95988SOL    HW289862  11.950   1.085   3.460
95989SOL     OW89863   4.861   9.028   6.559
95989SOL    HW189864   4.788   9.014   6.498
95989SOL    HW289865   4.939   9.014   6.506
95990SOL     OW89866  14.424  14.355   7.101
95990SOL    HW189867  14.397  14.440   7.136
95990SOL    HW289868  14.518  14.351   7.116
95991SOL     OW89869   1.984  11.730   8.170
95991SOL    HW189870   1.936  11.807   8.199
95991SOL    HW289871   1.925  11.656   8.188
95992SOL     OW89872   0.386  10.835   6.805
95992SOL    HW189873   0.347  10.749   6.791
95992SOL    HW289874   0.477  10.825   6.775
95993SOL     OW89875   9.848   3.152  14.261
95993SOL    HW189876   9.764   3.164  14.307
95993SOL    HW289877   9.914   3.178  14.325
95994SOL     OW89878   2.218   2.887   4.672
95994SOL    HW189879   2.242   2.968   4.627
95994SOL    HW289880   2.147   2.913   4.731
95995SOL     OW89881   4.909   6.516  10.437
95995SOL    HW189882   5.003   6.536  10.435
95995SOL    HW289883   4.867   6.599  10.460
95996SOL     OW89884   1.989  12.623  14.359
95996SOL    HW189885   1.949  12.567  14.293
95996SOL    HW289886   2.072  12.581  14.379
95997SOL     OW89887   2.703   8.233   7.158
95997SOL    HW189888   2.692   8.206   7.067
95997SOL    HW289889   2.634   8.187   7.205
95998SOL     OW89890   8.967   4.951   7.887
95998SOL    HW189891   8.884   4.946   7.936
95998SOL    HW289892   9.027   4.995   7.946
95999SOL     OW89893   2.648   0.388   4.340
95999SOL    HW189894   2.694   0.384   4.257
95999SOL    HW289895   2.648   0.481   4.364
96000SOL     OW89896  10.206   9.282   9.156
96000SOL    HW189897  10.201   9.211   9.220
96000SOL    HW289898  10.218   9.361   9.208
96001SOL     OW89899   8.576  11.355   0.170
96001SOL    HW189900   8.571  11.381   0.262
96001SOL    HW289901   8.660  11.310   0.163
96002SOL     OW89902  14.601  10.674   4.718
96002SOL    HW189903  14.524  10.618   4.705
96002SOL    HW289904  14.564  10.757   4.749
96003SOL     OW89905   5.232  11.613  11.883
96003SOL    HW189906   5.189  11.587  11.801
96003SOL    HW289907   5.166  11.664  11.930
96004SOL     OW89908   3.562  10.699  13.948
96004SOL    HW189909   3.617  10.623  13.928
96004SOL    HW289910   3.475  10.662  13.964
96005SOL     OW89911   5.359  12.084   8.151
96005SOL    HW189912   5.287  12.062   8.210
96005SOL    HW289913   5.437  12.051   8.194
96006SOL     OW89914  13.841  14.572   8.690
96006SOL    HW189915  13.923  14.602   8.651
96006SOL    HW289916  13.861  14.563   8.784
96007SOL     OW89917   8.174   9.032   0.938
96007SOL    HW189918   8.118   9.007   1.012
96007SOL    HW289919   8.176   8.954   0.882
96008SOL     OW89920  13.919   8.288  12.317
96008SOL    HW189921  13.910   8.193  12.326
96008SOL    HW289922  13.836   8.323  12.350
96009SOL     OW89923  14.334  10.380   7.901
96009SOL    HW189924  14.390  10.447   7.939
96009SOL    HW289925  14.319  10.318   7.973
96010SOL     OW89926  10.770  13.339  10.123
96010SOL    HW189927  10.714  13.269  10.156
96010SOL    HW289928  10.801  13.385  10.201
96011SOL     OW89929   7.482   0.653   5.056
96011SOL    HW189930   7.470   0.578   4.998
96011SOL    HW289931   7.569   0.640   5.095
96012SOL     OW89932   3.379   0.869   0.410
96012SOL    HW189933   3.428   0.951   0.399
96012SOL    HW289934   3.304   0.893   0.464
96013SOL     OW89935  14.736   9.840   5.590
96013SOL    HW189936  14.813   9.871   5.639
96013SOL    HW289937  14.730   9.747   5.612
96014SOL     OW89938   6.448   6.978  10.481
96014SOL    HW189939   6.374   6.952  10.535
96014SOL    HW289940   6.513   7.010  10.543
96015SOL     OW89941  10.097  12.351   0.303
96015SOL    HW189942  10.018  12.298   0.307
96015SOL    HW289943  10.066  12.440   0.291
96016SOL     OW89944  10.613   3.628   8.231
96016SOL    HW189945  10.554   3.634   8.156
96016SOL    HW289946  10.692   3.587   8.197
96017SOL     OW89947   4.149   4.399   4.437
96017SOL    HW189948   4.159   4.361   4.349
96017SOL    HW289949   4.199   4.340   4.494
96018SOL     OW89950   4.305   7.913  12.484
96018SOL    HW189951   4.352   7.871  12.556
96018SOL    HW289952   4.338   7.870  12.405
96019SOL     OW89953   3.130   8.859  14.299
96019SOL    HW189954   3.069   8.816  14.239
96019SOL    HW289955   3.097   8.837  14.386
96020SOL     OW89956   9.701   0.465   6.314
96020SOL    HW189957   9.751   0.386   6.334
96020SOL    HW289958   9.613   0.434   6.297
96021SOL     OW89959  13.794  14.055  11.165
96021SOL    HW189960  13.834  14.112  11.230
96021SOL    HW289961  13.725  14.109  11.126
96022SOL     OW89962   1.538  12.792  12.555
96022SOL    HW189963   1.603  12.731  12.591
96022SOL    HW289964   1.466  12.735  12.526
96023SOL     OW89965  13.203  11.583  14.274
96023SOL    HW189966  13.129  11.603  14.216
96023SOL    HW289967  13.186  11.494  14.306
96024SOL     OW89968   2.564   9.636   0.605
96024SOL    HW189969   2.559   9.586   0.686
96024SOL    HW289970   2.594   9.573   0.540
96025SOL     OW89971   3.196  11.534  14.747
96025SOL    HW189972   3.234  11.500  14.666
96025SOL    HW289973   3.198  11.459  14.808
96026SOL     OW89974   5.636   2.448  14.713
96026SOL    HW189975   5.670   2.523  14.665
96026SOL    HW289976   5.711   2.415  14.762
96027SOL     OW89977  13.312   9.043   3.294
96027SOL    HW189978  13.376   8.985   3.253
96027SOL    HW289979  13.352   9.130   3.291
96028SOL     OW89980  12.772   7.999   9.411
96028SOL    HW189981  12.689   7.953   9.396
96028SOL    HW289982  12.782   8.001   9.506
96029SOL     OW89983   0.787   3.761   0.506
96029SOL    HW189984   0.820   3.747   0.595
96029SOL    HW289985   0.820   3.685   0.457
96030SOL     OW89986   7.867   5.269  13.889
96030SOL    HW189987   7.901   5.322  13.961
96030SOL    HW289988   7.936   5.206  13.870
96031SOL     OW89989   7.860  13.482   4.323
96031SOL    HW189990   7.826  13.447   4.405
96031SOL    HW289991   7.903  13.564   4.348
96032SOL     OW89992   5.837   6.085   9.324
96032SOL    HW189993   5.774   6.111   9.256
96032SOL    HW289994   5.790   6.021   9.377
96033SOL     OW89995   0.700  13.237  13.799
96033SOL    HW189996   0.643  13.239  13.722
96033SOL    HW289997   0.703  13.327  13.830
96034SOL     OW89998  11.258   8.084  11.786
96034SOL    HW189999  11.191   8.050  11.726
96034SOL    HW290000  11.300   8.006  11.821
96035SOL     OW90001  10.266  13.852  12.695
96035SOL    HW190002  10.344  13.866  12.640
96035SOL    HW290003  10.301  13.839  12.783
96036SOL     OW90004   6.085   0.479   9.767
96036SOL    HW190005   6.012   0.540   9.756
96036SOL    HW290006   6.099   0.442   9.680
96037SOL     OW90007   1.709  12.571   8.020
96037SOL    HW190008   1.799  12.600   8.000
96037SOL    HW290009   1.662  12.583   7.938
96038SOL     OW90010   6.934   2.604   6.401
96038SOL    HW190011   6.917   2.690   6.363
96038SOL    HW290012   6.893   2.608   6.487
96039SOL     OW90013   9.375  10.753   2.464
96039SOL    HW190014   9.421  10.738   2.381
96039SOL    HW290015   9.430  10.817   2.510
96040SOL     OW90016  11.267   1.267   1.127
96040SOL    HW190017  11.203   1.322   1.174
96040SOL    HW290018  11.308   1.215   1.195
96041SOL     OW90019   6.050  10.657  13.178
96041SOL    HW190020   6.045  10.600  13.255
96041SOL    HW290021   6.110  10.727  13.205
96042SOL     OW90022  12.381   9.785   3.115
96042SOL    HW190023  12.384   9.774   3.210
96042SOL    HW290024  12.406   9.700   3.080
96043SOL     OW90025  13.077   0.681   9.501
96043SOL    HW190026  13.145   0.717   9.558
96043SOL    HW290027  13.091   0.726   9.417
96044SOL     OW90028   4.610   5.586   3.844
96044SOL    HW190029   4.612   5.496   3.810
96044SOL    HW290030   4.681   5.590   3.907
96045SOL     OW90031  11.946  12.414   8.826
96045SOL    HW190032  11.881  12.484   8.832
96045SOL    HW290033  12.022  12.448   8.874
96046SOL     OW90034   2.846  10.755   7.089
96046SOL    HW190035   2.800  10.836   7.069
96046SOL    HW290036   2.802  10.722   7.168
96047SOL     OW90037  11.374   0.801   3.708
96047SOL    HW190038  11.365   0.836   3.619
96047SOL    HW290039  11.460   0.833   3.737
96048SOL     OW90040  12.045   4.626   7.348
96048SOL    HW190041  11.952   4.648   7.357
96048SOL    HW290042  12.046   4.530   7.344
96049SOL     OW90043   9.578  13.568   7.676
96049SOL    HW190044   9.608  13.477   7.676
96049SOL    HW290045   9.487  13.564   7.707
96050SOL     OW90046   0.519   4.822   1.078
96050SOL    HW190047   0.529   4.913   1.049
96050SOL    HW290048   0.425   4.805   1.074
96051SOL     OW90049   4.143  11.199  12.461
96051SOL    HW190050   4.150  11.251  12.540
96051SOL    HW290051   4.049  11.185  12.448
96052SOL     OW90052  10.000   6.911   2.565
96052SOL    HW190053   9.967   6.897   2.476
96052SOL    HW290054  10.043   6.996   2.562
96053SOL     OW90055   2.151   5.135   7.410
96053SOL    HW190056   2.060   5.161   7.420
96053SOL    HW290057   2.179   5.109   7.498
96054SOL     OW90058   3.490  11.393   1.480
96054SOL    HW190059   3.413  11.337   1.469
96054SOL    HW290060   3.485  11.456   1.409
96055SOL     OW90061  11.891   6.347   2.902
96055SOL    HW190062  11.803   6.343   2.940
96055SOL    HW290063  11.947   6.376   2.974
96056SOL     OW90064  12.213  12.067   4.059
96056SOL    HW190065  12.185  12.022   3.980
96056SOL    HW290066  12.308  12.059   4.059
96057SOL     OW90067  10.515  11.745   7.245
96057SOL    HW190068  10.423  11.743   7.269
96057SOL    HW290069  10.561  11.723   7.326
96058SOL     OW90070   3.585  12.657   4.102
96058SOL    HW190071   3.495  12.639   4.076
96058SOL    HW290072   3.613  12.727   4.043
96059SOL     OW90073   3.855   2.653   4.606
96059SOL    HW190074   3.907   2.608   4.673
96059SOL    HW290075   3.907   2.643   4.526
96060SOL     OW90076   8.962  13.724  14.699
96060SOL    HW190077   8.970  13.816  14.727
96060SOL    HW290078   9.052  13.696  14.683
96061SOL     OW90079   8.144   6.877   9.589
96061SOL    HW190080   8.188   6.792   9.576
96061SOL    HW290081   8.083   6.883   9.516
96062SOL     OW90082   7.925   7.099   5.955
96062SOL    HW190083   7.861   7.039   5.992
96062SOL    HW290084   7.982   7.044   5.901
96063SOL     OW90085   2.809  11.482   2.221
96063SOL    HW190086   2.770  11.430   2.151
96063SOL    HW290087   2.824  11.419   2.292
96064SOL     OW90088   0.573  11.533   0.123
96064SOL    HW190089   0.588  11.627   0.120
96064SOL    HW290090   0.608  11.501   0.040
96065SOL     OW90091   7.766   3.534   5.414
96065SOL    HW190092   7.718   3.466   5.462
96065SOL    HW290093   7.750   3.614   5.463
96066SOL     OW90094   3.702   1.557   8.387
96066SOL    HW190095   3.684   1.578   8.296
96066SOL    HW290096   3.634   1.604   8.436
96067SOL     OW90097   0.429   1.536  14.197
96067SOL    HW190098   0.395   1.521  14.285
96067SOL    HW290099   0.378   1.610  14.164
96068SOL     OW90100   6.350  14.432  13.004
96068SOL    HW190101   6.383  14.486  13.076
96068SOL    HW290102   6.280  14.380  13.044
96069SOL     OW90103   2.412   9.805   4.610
96069SOL    HW190104   2.399   9.899   4.605
96069SOL    HW290105   2.345   9.774   4.671
96070SOL     OW90106   3.750   2.221   3.586
96070SOL    HW190107   3.843   2.237   3.600
96070SOL    HW290108   3.734   2.247   3.495
96071SOL     OW90109   4.603   9.991  11.705
96071SOL    HW190110   4.688  10.024  11.734
96071SOL    HW290111   4.604  10.000  11.610
96072SOL     OW90112   1.072   6.786  13.243
96072SOL    HW190113   1.166   6.797  13.232
96072SOL    HW290114   1.062   6.762  13.336
96073SOL     OW90115   8.651   9.567   4.329
96073SOL    HW190116   8.704   9.558   4.409
96073SOL    HW290117   8.567   9.528   4.352
96074SOL     OW90118  14.152   2.062   8.077
96074SOL    HW190119  14.140   2.089   7.987
96074SOL    HW290120  14.117   2.134   8.129
96075SOL     OW90121   1.015   2.651   5.397
96075SOL    HW190122   1.082   2.624   5.460
96075SOL    HW290123   0.932   2.634   5.441
96076SOL     OW90124  10.308   6.779  13.618
96076SOL    HW190125  10.371   6.851  13.616
96076SOL    HW290126  10.296   6.755  13.526
96077SOL     OW90127   0.157   4.179  13.461
96077SOL    HW190128   0.228   4.224  13.507
96077SOL    HW290129   0.109   4.250  13.417
96078SOL     OW90130   1.959  12.168   1.854
96078SOL    HW190131   1.939  12.126   1.938
96078SOL    HW290132   2.024  12.111   1.813
96079SOL     OW90133   1.194   4.044   2.692
96079SOL    HW190134   1.144   4.085   2.763
96079SOL    HW290135   1.241   4.116   2.651
96080SOL     OW90136   0.650   5.095  10.435
96080SOL    HW190137   0.632   5.104  10.341
96080SOL    HW290138   0.705   5.170  10.456
96081SOL     OW90139   0.658   5.388   7.584
96081SOL    HW190140   0.727   5.450   7.608
96081SOL    HW290141   0.702   5.303   7.582
96082SOL     OW90142  13.259   6.035   8.083
96082SOL    HW190143  13.198   6.101   8.115
96082SOL    HW290144  13.346   6.074   8.096
96083SOL     OW90145  13.509   6.202  12.741
96083SOL    HW190146  13.497   6.296  12.733
96083SOL    HW290147  13.446   6.164  12.680
96084SOL     OW90148  14.499  14.029   6.971
96084SOL    HW190149  14.586  14.012   7.007
96084SOL    HW290150  14.443  14.041   7.048
96085SOL     OW90151   4.290  13.654   0.837
96085SOL    HW190152   4.281  13.706   0.916
96085SOL    HW290153   4.290  13.564   0.867
96086SOL     OW90154   1.669  13.558   2.296
96086SOL    HW190155   1.728  13.602   2.358
96086SOL    HW290156   1.671  13.613   2.218
96087SOL     OW90157   3.875  12.589   9.865
96087SOL    HW190158   3.890  12.558   9.776
96087SOL    HW290159   3.805  12.533   9.899
96088SOL     OW90160   2.899   6.512  12.437
96088SOL    HW190161   2.815   6.499  12.393
96088SOL    HW290162   2.901   6.445  12.505
96089SOL     OW90163   6.238   4.275  12.781
96089SOL    HW190164   6.166   4.318  12.735
96089SOL    HW290165   6.257   4.198  12.727
96090SOL     OW90166   3.014   5.198   9.652
96090SOL    HW190167   3.081   5.143   9.693
96090SOL    HW290168   3.045   5.209   9.562
96091SOL     OW90169   3.430   7.202   9.804
96091SOL    HW190170   3.419   7.280   9.749
96091SOL    HW290171   3.502   7.154   9.762
96092SOL     OW90172   0.658   1.368   8.925
96092SOL    HW190173   0.632   1.331   8.840
96092SOL    HW290174   0.693   1.454   8.903
96093SOL     OW90175   2.495  14.187   6.856
96093SOL    HW190176   2.507  14.158   6.946
96093SOL    HW290177   2.450  14.114   6.812
96094SOL     OW90178  14.030   7.971   5.798
96094SOL    HW190179  14.119   7.945   5.776
96094SOL    HW290180  13.996   7.898   5.850
96095SOL     OW90181   0.522  12.558  12.810
96095SOL    HW190182   0.504  12.507  12.889
96095SOL    HW290183   0.457  12.628  12.811
96096SOL     OW90184  11.317   5.955  10.216
96096SOL    HW190185  11.286   6.045  10.228
96096SOL    HW290186  11.238   5.901  10.219
96097SOL     OW90187   6.425   2.510  14.225
96097SOL    HW190188   6.482   2.576  14.185
96097SOL    HW290189   6.415   2.443  14.157
96098SOL     OW90190   6.991   7.629   1.272
96098SOL    HW190191   6.994   7.584   1.356
96098SOL    HW290192   6.900   7.656   1.263
96099SOL     OW90193  10.692   4.101   2.133
96099SOL    HW190194  10.629   4.071   2.198
96099SOL    HW290195  10.657   4.185   2.102
96100SOL     OW90196   8.769   0.367   5.149
96100SOL    HW190197   8.846   0.361   5.205
96100SOL    HW290198   8.697   0.339   5.206
96101SOL     OW90199  11.006  13.604  12.341
96101SOL    HW190200  11.045  13.682  12.379
96101SOL    HW290201  10.923  13.593  12.388
96102SOL     OW90202   6.369   0.731   0.149
96102SOL    HW190203   6.450   0.775   0.174
96102SOL    HW290204   6.313   0.800   0.114
96103SOL     OW90205   7.365   6.402   6.115
96103SOL    HW190206   7.279   6.434   6.140
96103SOL    HW290207   7.390   6.456   6.039
96104SOL     OW90208   5.979   0.792  13.700
96104SOL    HW190209   6.029   0.747  13.768
96104SOL    HW290210   5.994   0.741  13.620
96105SOL     OW90211  13.602  12.328   9.201
96105SOL    HW190212  13.574  12.420   9.197
96105SOL    HW290213  13.522  12.278   9.191
96106SOL     OW90214   7.262   8.282   1.226
96106SOL    HW190215   7.291   8.281   1.135
96106SOL    HW290216   7.207   8.205   1.235
96107SOL     OW90217  10.588  10.273   3.525
96107SOL    HW190218  10.642  10.212   3.576
96107SOL    HW290219  10.611  10.254   3.434
96108SOL     OW90220   6.823  13.606  14.335
96108SOL    HW190221   6.774  13.525  14.320
96108SOL    HW290222   6.783  13.643  14.414
96109SOL     OW90223   6.725  10.615   6.823
96109SOL    HW190224   6.700  10.635   6.913
96109SOL    HW290225   6.765  10.528   6.829
96110SOL     OW90226   0.212   7.938   5.385
96110SOL    HW190227   0.183   8.030   5.378
96110SOL    HW290228   0.133   7.890   5.407
96111SOL     OW90229   9.840  14.851  14.187
96111SOL    HW190230   9.928  14.822  14.210
96111SOL    HW290231   9.782  14.790  14.233
96112SOL     OW90232  14.395   0.640   2.086
96112SOL    HW190233  14.332   0.693   2.136
96112SOL    HW290234  14.341   0.571   2.046
96113SOL     OW90235  13.434  10.010   1.736
96113SOL    HW190236  13.367   9.945   1.716
96113SOL    HW290237  13.390  10.073   1.794
96114SOL     OW90238   1.542  10.976  13.320
96114SOL    HW190239   1.617  11.008  13.270
96114SOL    HW290240   1.575  10.968  13.410
96115SOL     OW90241   9.294   7.482   0.747
96115SOL    HW190242   9.334   7.413   0.694
96115SOL    HW290243   9.260   7.436   0.824
96116SOL     OW90244   2.463   5.375   6.346
96116SOL    HW190245   2.483   5.448   6.287
96116SOL    HW290246   2.507   5.399   6.428
96117SOL     OW90247   0.771   6.453  14.774
96117SOL    HW190248   0.821   6.515  14.722
96117SOL    HW290249   0.685   6.449  14.731
96118SOL     OW90250   5.801  14.337   3.084
96118SOL    HW190251   5.775  14.361   3.173
96118SOL    HW290252   5.802  14.421   3.037
96119SOL     OW90253   9.326  14.701  11.981
96119SOL    HW190254   9.355  14.754  11.906
96119SOL    HW290255   9.244  14.741  12.009
96120SOL     OW90256  11.657   9.956   3.108
96120SOL    HW190257  11.677   9.974   3.016
96120SOL    HW290258  11.619  10.037   3.141
96121SOL     OW90259   9.020   5.196  13.554
96121SOL    HW190260   9.085   5.151  13.606
96121SOL    HW290261   8.936   5.171  13.592
96122SOL     OW90262   0.815   1.908   8.821
96122SOL    HW190263   0.750   1.978   8.813
96122SOL    HW290264   0.886   1.934   8.763
96123SOL     OW90265  13.593  10.863  10.124
96123SOL    HW190266  13.544  10.816  10.057
96123SOL    HW290267  13.639  10.794  10.172
96124SOL     OW90268   9.006  10.741   4.964
96124SOL    HW190269   9.094  10.744   4.926
96124SOL    HW290270   8.963  10.668   4.919
96125SOL     OW90271   8.061   7.700   6.302
96125SOL    HW190272   8.072   7.696   6.397
96125SOL    HW290273   7.997   7.771   6.289
96126SOL     OW90274   6.758  13.454   5.246
96126SOL    HW190275   6.810  13.449   5.166
96126SOL    HW290276   6.811  13.506   5.306
96127SOL     OW90277   5.654   0.015  12.878
96127SOL    HW190278   5.635  14.807  12.910
96127SOL    HW290279   5.748   0.013  12.858
96128SOL     OW90280   7.684   0.190  10.300
96128SOL    HW190281   7.623   0.156  10.235
96128SOL    HW290282   7.658   0.281  10.313
96129SOL     OW90283   8.695   4.906  14.166
96129SOL    HW190284   8.765   4.881  14.226
96129SOL    HW290285   8.616   4.906  14.220
96130SOL     OW90286   4.106   3.948   0.067
96130SOL    HW190287   4.118   3.875   0.007
96130SOL    HW290288   4.027   3.927   0.116
96131SOL     OW90289  10.335   0.476   0.687
96131SOL    HW190290  10.348   0.494   0.594
96131SOL    HW290291  10.247   0.509   0.707
96132SOL     OW90292  13.492   3.348  13.712
96132SOL    HW190293  13.430   3.330  13.641
96132SOL    HW290294  13.441   3.333  13.792
96133SOL     OW90295  11.304   7.945  14.719
96133SOL    HW190296  11.241   7.936  14.790
96133SOL    HW290297  11.344   8.031  14.734
96134SOL     OW90298  13.603   4.689  13.161
96134SOL    HW190299  13.663   4.630  13.205
96134SOL    HW290300  13.635   4.693  13.071
96135SOL     OW90301   6.905   6.105  11.642
96135SOL    HW190302   6.948   6.173  11.591
96135SOL    HW290303   6.915   6.026  11.589
96136SOL     OW90304  14.872  11.731  10.586
96136SOL    HW190305   0.033  11.669  10.526
96136SOL    HW290306   0.030  11.815  10.562
96137SOL     OW90307   5.684   6.532  13.216
96137SOL    HW190308   5.667   6.452  13.267
96137SOL    HW290309   5.779   6.531  13.202
96138SOL     OW90310  10.502   5.674  11.346
96138SOL    HW190311  10.508   5.579  11.343
96138SOL    HW290312  10.435   5.692  11.412
96139SOL     OW90313   2.504  13.340   7.920
96139SOL    HW190314   2.424  13.340   7.973
96139SOL    HW290315   2.532  13.248   7.918
96140SOL     OW90316   8.838  13.526   5.869
96140SOL    HW190317   8.877  13.524   5.956
96140SOL    HW290318   8.913  13.538   5.810
96141SOL     OW90319   1.862  11.657   1.982
96141SOL    HW190320   1.804  11.621   2.049
96141SOL    HW290321   1.849  11.599   1.906
96142SOL     OW90322   2.583  13.492   3.573
96142SOL    HW190323   2.583  13.399   3.553
96142SOL    HW290324   2.670  13.522   3.547
96143SOL     OW90325  11.342   5.008  11.941
96143SOL    HW190326  11.336   4.964  12.026
96143SOL    HW290327  11.356   5.100  11.963
96144SOL     OW90328  14.010   4.200   1.242
96144SOL    HW190329  14.076   4.260   1.207
96144SOL    HW290330  14.031   4.115   1.202
96145SOL     OW90331   3.564   8.176   5.596
96145SOL    HW190332   3.603   8.234   5.661
96145SOL    HW290333   3.516   8.112   5.648
96146SOL     OW90334   2.367   9.550  11.729
96146SOL    HW190335   2.447   9.521  11.684
96146SOL    HW290336   2.396   9.624  11.782
96147SOL     OW90337   3.854   1.691   5.828
96147SOL    HW190338   3.878   1.780   5.855
96147SOL    HW290339   3.907   1.634   5.885
96148SOL     OW90340  10.072   0.765  10.776
96148SOL    HW190341  10.129   0.703  10.730
96148SOL    HW290342  10.128   0.841  10.793
96149SOL     OW90343  10.284   7.585  14.183
96149SOL    HW190344  10.280   7.518  14.252
96149SOL    HW290345  10.196   7.623  14.181
96150SOL     OW90346   3.081   0.195   7.626
96150SOL    HW190347   3.172   0.171   7.609
96150SOL    HW290348   3.055   0.246   7.549
96151SOL     OW90349   1.775   1.797   7.239
96151SOL    HW190350   1.807   1.719   7.284
96151SOL    HW290351   1.744   1.765   7.154
96152SOL     OW90352  12.865   9.405   6.795
96152SOL    HW190353  12.862   9.491   6.838
96152SOL    HW290354  12.915   9.350   6.855
96153SOL     OW90355  13.401  13.020   3.850
96153SOL    HW190356  13.350  12.965   3.910
96153SOL    HW290357  13.350  13.021   3.769
96154SOL     OW90358   9.600   1.829   9.646
96154SOL    HW190359   9.597   1.824   9.742
96154SOL    HW290360   9.538   1.763   9.617
96155SOL     OW90361   1.170  13.778  13.714
96155SOL    HW190362   1.208  13.858  13.679
96155SOL    HW290363   1.242  13.737  13.763
96156SOL     OW90364   8.247  10.563   0.541
96156SOL    HW190365   8.231  10.566   0.636
96156SOL    HW290366   8.278  10.474   0.525
96157SOL     OW90367  12.157   5.032   3.862
96157SOL    HW190368  12.177   5.077   3.944
96157SOL    HW290369  12.184   4.941   3.877
96158SOL     OW90370   9.019   3.801  14.071
96158SOL    HW190371   8.983   3.876  14.024
96158SOL    HW290372   9.107   3.790  14.034
96159SOL     OW90373   0.539   2.393   0.141
96159SOL    HW190374   0.607   2.326   0.141
96159SOL    HW290375   0.475   2.364   0.077
96160SOL     OW90376   3.356  11.187   3.125
96160SOL    HW190377   3.269  11.206   3.090
96160SOL    HW290378   3.373  11.258   3.187
96161SOL     OW90379  10.602   6.884   5.970
96161SOL    HW190380  10.647   6.929   6.042
96161SOL    HW290381  10.653   6.905   5.892
96162SOL     OW90382   6.000   3.953  13.389
96162SOL    HW190383   5.938   3.916  13.326
96162SOL    HW290384   6.084   3.954  13.342
96163SOL     OW90385   9.117   4.520  12.950
96163SOL    HW190386   9.131   4.615  12.954
96163SOL    HW290387   9.186   4.488  12.892
96164SOL     OW90388  10.671   9.632  13.823
96164SOL    HW190389  10.686   9.552  13.872
96164SOL    HW290390  10.690   9.609  13.732
96165SOL     OW90391  13.343   1.099   0.891
96165SOL    HW190392  13.354   1.162   0.819
96165SOL    HW290393  13.327   1.153   0.968
96166SOL     OW90394   0.489   4.431  10.497
96166SOL    HW190395   0.510   4.388  10.414
96166SOL    HW290396   0.395   4.416  10.508
96167SOL     OW90397   8.638   8.700  14.640
96167SOL    HW190398   8.605   8.641  14.573
96167SOL    HW290399   8.668   8.642  14.711
96168SOL     OW90400   4.397  13.069   4.721
96168SOL    HW190401   4.464  13.008   4.692
96168SOL    HW290402   4.386  13.129   4.647
96169SOL     OW90403   4.342   3.633   5.268
96169SOL    HW190404   4.360   3.609   5.177
96169SOL    HW290405   4.264   3.688   5.264
96170SOL     OW90406   7.906  12.529   6.735
96170SOL    HW190407   7.911  12.532   6.830
96170SOL    HW290408   7.997  12.526   6.706
96171SOL     OW90409  12.419  10.539  13.314
96171SOL    HW190410  12.446  10.462  13.363
96171SOL    HW290411  12.409  10.508  13.224
96172SOL     OW90412  13.019   0.941   9.594
96172SOL    HW190413  12.927   0.959   9.576
96172SOL    HW290414  13.035   0.855   9.554
96173SOL     OW90415   5.656   3.381   3.368
96173SOL    HW190416   5.724   3.322   3.336
96173SOL    HW290417   5.594   3.325   3.414
96174SOL     OW90418   5.254   3.068   0.497
96174SOL    HW190419   5.212   3.057   0.412
96174SOL    HW290420   5.253   3.163   0.511
96175SOL     OW90421   1.923  12.025   9.620
96175SOL    HW190422   1.851  12.073   9.662
96175SOL    HW290423   1.896  12.020   9.528
96176SOL     OW90424   9.050   6.105  10.419
96176SOL    HW190425   9.128   6.142  10.378
96176SOL    HW290426   9.064   6.119  10.513
96177SOL     OW90427   4.304   3.826   1.366
96177SOL    HW190428   4.286   3.919   1.370
96177SOL    HW290429   4.218   3.785   1.353
96178SOL     OW90430   8.160  14.282   8.591
96178SOL    HW190431   8.202  14.228   8.524
96178SOL    HW290432   8.201  14.368   8.582
96179SOL     OW90433  12.104   9.407   5.912
96179SOL    HW190434  12.063   9.492   5.930
96179SOL    HW290435  12.136   9.377   5.997
96180SOL     OW90436   8.939  14.025   4.841
96180SOL    HW190437   8.914  13.955   4.900
96180SOL    HW290438   8.880  14.097   4.862
96181SOL     OW90439  13.659   2.614   8.635
96181SOL    HW190440  13.748   2.647   8.648
96181SOL    HW290441  13.660   2.576   8.547
96182SOL     OW90442  14.683  14.565   4.852
96182SOL    HW190443  14.602  14.593   4.897
96182SOL    HW290444  14.752  14.579   4.917
96183SOL     OW90445   3.189  10.841   8.342
96183SOL    HW190446   3.102  10.869   8.371
96183SOL    HW290447   3.196  10.750   8.370
96184SOL     OW90448   2.181   4.252  13.235
96184SOL    HW190449   2.181   4.294  13.320
96184SOL    HW290450   2.089   4.228  13.220
96185SOL     OW90451  10.039   1.099   1.366
96185SOL    HW190452  10.094   1.043   1.421
96185SOL    HW290453  10.077   1.092   1.278
96186SOL     OW90454  12.027   3.176  11.834
96186SOL    HW190455  11.970   3.251  11.813
96186SOL    HW290456  12.114   3.214  11.843
96187SOL     OW90457   9.002   9.715   7.627
96187SOL    HW190458   9.089   9.695   7.662
96187SOL    HW290459   8.946   9.721   7.704
96188SOL     OW90460   6.370   5.139  12.693
96188SOL    HW190461   6.405   5.090  12.618
96188SOL    HW290462   6.286   5.173  12.662
96189SOL     OW90463  10.581  10.308   6.734
96189SOL    HW190464  10.567  10.373   6.665
96189SOL    HW290465  10.667  10.330   6.770
96190SOL     OW90466   7.250   5.754   4.216
96190SOL    HW190467   7.321   5.759   4.152
96190SOL    HW290468   7.247   5.661   4.240
96191SOL     OW90469   3.535  14.306   6.564
96191SOL    HW190470   3.562  14.273   6.478
96191SOL    HW290471   3.611  14.291   6.620
96192SOL     OW90472  11.715   3.322   7.097
96192SOL    HW190473  11.788   3.379   7.077
96192SOL    HW290474  11.640   3.381   7.109
96193SOL     OW90475   1.924   3.101  14.474
96193SOL    HW190476   1.888   3.094  14.386
96193SOL    HW290477   1.866   3.048  14.529
96194SOL     OW90478   0.131   3.288   2.922
96194SOL    HW190479   0.053   3.269   2.871
96194SOL    HW290480   0.194   3.222   2.894
96195SOL     OW90481  13.984   6.253   8.807
96195SOL    HW190482  14.029   6.204   8.875
96195SOL    HW290483  14.054   6.299   8.760
96196SOL     OW90484   2.603   4.660   6.327
96196SOL    HW190485   2.593   4.739   6.275
96196SOL    HW290486   2.573   4.684   6.414
96197SOL     OW90487   8.859  13.048   2.836
96197SOL    HW190488   8.890  12.957   2.838
96197SOL    HW290489   8.832  13.066   2.926
96198SOL     OW90490   0.419  11.879   8.193
96198SOL    HW190491   0.487  11.924   8.244
96198SOL    HW290492   0.370  11.829   8.258
96199SOL     OW90493   0.193   6.386   2.788
96199SOL    HW190494   0.276   6.363   2.746
96199SOL    HW290495   0.138   6.419   2.716
96200SOL     OW90496  14.441   4.742   7.745
96200SOL    HW190497  14.400   4.675   7.799
96200SOL    HW290498  14.373   4.808   7.731
96201SOL     OW90499   7.433   2.347   8.008
96201SOL    HW190500   7.388   2.269   8.040
96201SOL    HW290501   7.492   2.372   8.078
96202SOL     OW90502   2.361  13.358   3.368
96202SOL    HW190503   2.348  13.437   3.316
96202SOL    HW290504   2.383  13.390   3.456
96203SOL     OW90505   1.837  12.084   0.924
96203SOL    HW190506   1.756  12.055   0.880
96203SOL    HW290507   1.858  12.013   0.984
96204SOL     OW90508   4.656  13.450  10.074
96204SOL    HW190509   4.696  13.482   9.994
96204SOL    HW290510   4.566  13.483  10.071
96205SOL     OW90511  13.221   4.815   8.140
96205SOL    HW190512  13.138   4.848   8.106
96205SOL    HW290513  13.230   4.728   8.102
96206SOL     OW90514   0.964   6.681  12.111
96206SOL    HW190515   0.989   6.717  12.196
96206SOL    HW290516   0.874   6.651  12.124
96207SOL     OW90517   0.864  12.605   7.645
96207SOL    HW190518   0.923  12.548   7.596
96207SOL    HW290519   0.809  12.545   7.694
96208SOL     OW90520   9.738   1.317   8.800
96208SOL    HW190521   9.643   1.315   8.815
96208SOL    HW290522   9.763   1.408   8.817
96209SOL     OW90523  14.031   2.264   6.544
96209SOL    HW190524  14.031   2.326   6.471
96209SOL    HW290525  13.940   2.233   6.549
96210SOL     OW90526   1.287   8.024   9.108
96210SOL    HW190527   1.228   8.081   9.157
96210SOL    HW290528   1.271   8.047   9.016
96211SOL     OW90529  12.589   4.990   1.434
96211SOL    HW190530  12.598   5.078   1.471
96211SOL    HW290531  12.515   4.951   1.481
96212SOL     OW90532  12.452   6.314   2.603
96212SOL    HW190533  12.388   6.259   2.647
96212SOL    HW290534  12.531   6.260   2.600
96213SOL     OW90535  12.998   8.704  12.884
96213SOL    HW190536  12.918   8.754  12.865
96213SOL    HW290537  12.969   8.613  12.887
96214SOL     OW90538  10.143   6.440   7.626
96214SOL    HW190539  10.174   6.405   7.709
96214SOL    HW290540  10.070   6.384   7.601
96215SOL     OW90541  12.658   8.967  13.121
96215SOL    HW190542  12.674   8.887  13.071
96215SOL    HW290543  12.725   9.028  13.089
96216SOL     OW90544   7.031   9.517   6.778
96216SOL    HW190545   7.027   9.488   6.687
96216SOL    HW290546   7.122   9.506   6.803
96217SOL     OW90547   8.804   2.977   2.428
96217SOL    HW190548   8.758   2.993   2.345
96217SOL    HW290549   8.740   3.001   2.495
96218SOL     OW90550   1.910   7.351  13.497
96218SOL    HW190551   1.925   7.445  13.502
96218SOL    HW290552   1.962   7.323  13.422
96219SOL     OW90553   1.875   4.298  11.394
96219SOL    HW190554   1.924   4.327  11.471
96219SOL    HW290555   1.859   4.377  11.344
96220SOL     OW90556   9.789   2.329  14.656
96220SOL    HW190557   9.754   2.243  14.680
96220SOL    HW290558   9.854   2.347  14.724
96221SOL     OW90559   0.253   5.782   1.999
96221SOL    HW190560   0.192   5.708   2.007
96221SOL    HW290561   0.340   5.743   2.005
96222SOL     OW90562   7.981   1.682   2.948
96222SOL    HW190563   8.026   1.677   2.863
96222SOL    HW290564   7.993   1.773   2.975
96223SOL     OW90565  12.514   5.636   2.082
96223SOL    HW190566  12.425   5.609   2.106
96223SOL    HW290567  12.509   5.652   1.987
96224SOL     OW90568   5.577   7.990  14.421
96224SOL    HW190569   5.643   7.996  14.490
96224SOL    HW290570   5.498   8.027  14.461
96225SOL     OW90571  10.955   0.678   5.147
96225SOL    HW190572  11.047   0.655   5.163
96225SOL    HW290573  10.911   0.594   5.136
96226SOL     OW90574   6.997  14.048   3.278
96226SOL    HW190575   6.984  14.054   3.183
96226SOL    HW290576   7.075  13.995   3.288
96227SOL     OW90577   9.420  10.185  13.666
96227SOL    HW190578   9.363  10.148  13.733
96227SOL    HW290579   9.494  10.221  13.714
96228SOL     OW90580  10.437   6.168   9.682
96228SOL    HW190581  10.424   6.134   9.594
96228SOL    HW290582  10.353   6.205   9.707
96229SOL     OW90583   6.821   0.195   9.947
96229SOL    HW190584   6.838   0.110   9.987
96229SOL    HW290585   6.879   0.255   9.993
96230SOL     OW90586  10.667  13.263   2.879
96230SOL    HW190587  10.695  13.258   2.788
96230SOL    HW290588  10.738  13.224   2.929
96231SOL     OW90589  12.392  12.496  12.238
96231SOL    HW190590  12.383  12.408  12.202
96231SOL    HW290591  12.414  12.483  12.330
96232SOL     OW90592  13.914   8.768  10.680
96232SOL    HW190593  13.890   8.688  10.633
96232SOL    HW290594  13.873   8.758  10.766
96233SOL     OW90595   8.615   0.484  12.914
96233SOL    HW190596   8.533   0.436  12.901
96233SOL    HW290597   8.640   0.512  12.826
96234SOL     OW90598   4.017   3.030   4.519
96234SOL    HW190599   4.080   3.099   4.502
96234SOL    HW290600   4.067   2.949   4.511
96235SOL     OW90601   5.327  11.437  14.122
96235SOL    HW190602   5.349  11.530  14.129
96235SOL    HW290603   5.347  11.414  14.031
96236SOL     OW90604  10.611   8.406  12.579
96236SOL    HW190605  10.519   8.398  12.554
96236SOL    HW290606  10.657   8.423  12.497
96237SOL     OW90607   8.260   6.894   7.522
96237SOL    HW190608   8.247   6.814   7.471
96237SOL    HW290609   8.307   6.865   7.600
96238SOL     OW90610  12.663  14.347   2.072
96238SOL    HW190611  12.637  14.424   2.122
96238SOL    HW290612  12.622  14.358   1.987
96239SOL     OW90613   7.169   7.071   6.148
96239SOL    HW190614   7.123   7.137   6.201
96239SOL    HW290615   7.216   7.018   6.213
96240SOL     OW90616   1.387   8.622  10.840
96240SOL    HW190617   1.305   8.663  10.812
96240SOL    HW290618   1.447   8.696  10.852
96241SOL     OW90619   2.563  10.127  12.985
96241SOL    HW190620   2.605  10.114  13.070
96241SOL    HW290621   2.599  10.059  12.929
96242SOL     OW90622   6.698   8.344  11.123
96242SOL    HW190623   6.792   8.330  11.121
96242SOL    HW290624   6.678   8.394  11.044
96243SOL     OW90625   6.539   9.600   2.365
96243SOL    HW190626   6.571   9.520   2.323
96243SOL    HW290627   6.573   9.671   2.310
96244SOL     OW90628  10.108   4.695   1.349
96244SOL    HW190629  10.089   4.760   1.282
96244SOL    HW290630  10.183   4.730   1.397
96245SOL     OW90631  10.810   9.365   9.652
96245SOL    HW190632  10.780   9.415   9.728
96245SOL    HW290633  10.766   9.406   9.578
96246SOL     OW90634   0.735  12.656  11.140
96246SOL    HW190635   0.643  12.628  11.137
96246SOL    HW290636   0.784  12.574  11.131
96247SOL     OW90637   5.167  11.772   2.730
96247SOL    HW190638   5.141  11.794   2.640
96247SOL    HW290639   5.168  11.677   2.732
96248SOL     OW90640   4.033   5.195   2.930
96248SOL    HW190641   3.951   5.237   2.957
96248SOL    HW290642   4.093   5.210   3.004
96249SOL     OW90643   1.200   6.394  10.735
96249SOL    HW190644   1.259   6.327  10.701
96249SOL    HW290645   1.112   6.361  10.713
96250SOL     OW90646   2.184  10.486   6.086
96250SOL    HW190647   2.150  10.556   6.141
96250SOL    HW290648   2.268  10.520   6.052
96251SOL     OW90649   9.871  14.847   0.932
96251SOL    HW190650   9.904  14.757   0.925
96251SOL    HW290651   9.939   0.014   0.979
96252SOL     OW90652   3.329   8.329   8.059
96252SOL    HW190653   3.278   8.358   8.135
96252SOL    HW290654   3.412   8.299   8.096
96253SOL     OW90655  12.022  11.453  11.014
96253SOL    HW190656  12.069  11.428  11.094
96253SOL    HW290657  12.081  11.428  10.943
96254SOL     OW90658   8.280  14.688   7.469
96254SOL    HW190659   8.354  14.719   7.417
96254SOL    HW290660   8.319  14.628   7.533
96255SOL     OW90661   9.773   6.952  14.344
96255SOL    HW190662   9.762   6.917  14.256
96255SOL    HW290663   9.764   7.046  14.334
96256SOL     OW90664   1.761   8.920   4.092
96256SOL    HW190665   1.815   8.938   4.169
96256SOL    HW290666   1.812   8.954   4.019
96257SOL     OW90667   9.064   0.215   6.727
96257SOL    HW190668   8.976   0.225   6.763
96257SOL    HW290669   9.122   0.242   6.798
96258SOL     OW90670   0.615   9.563   2.940
96258SOL    HW190671   0.679   9.551   3.010
96258SOL    HW290672   0.640   9.499   2.873
96259SOL     OW90673   7.279   7.732   1.356
96259SOL    HW190674   7.193   7.705   1.323
96259SOL    HW290675   7.325   7.649   1.371
96260SOL     OW90676  12.834   9.752   3.982
96260SOL    HW190677  12.826   9.814   4.054
96260SOL    HW290678  12.919   9.772   3.942
96261SOL     OW90679   6.227  13.113  13.439
96261SOL    HW190680   6.297  13.094  13.501
96261SOL    HW290681   6.267  13.097  13.353
96262SOL     OW90682   7.676  11.801   8.161
96262SOL    HW190683   7.661  11.896   8.170
96262SOL    HW290684   7.589  11.762   8.175
96263SOL     OW90685  13.371  10.133  14.867
96263SOL    HW190686  13.464  10.112  14.873
96263SOL    HW290687  13.368  10.213  14.815
96264SOL     OW90688   3.089   2.717   6.650
96264SOL    HW190689   3.096   2.653   6.580
96264SOL    HW290690   3.025   2.781   6.618
96265SOL     OW90691  12.519   4.093   4.928
96265SOL    HW190692  12.438   4.100   4.877
96265SOL    HW290693  12.522   4.002   4.958
96266SOL     OW90694  12.608   7.798   7.589
96266SOL    HW190695  12.576   7.795   7.679
96266SOL    HW290696  12.528   7.790   7.535
96267SOL     OW90697  13.297  12.112   6.460
96267SOL    HW190698  13.299  12.023   6.495
96267SOL    HW290699  13.204  12.131   6.448
96268SOL     OW90700  12.043   6.870   0.331
96268SOL    HW190701  12.048   6.942   0.268
96268SOL    HW290702  11.950   6.847   0.334
96269SOL     OW90703   7.899   8.855  11.703
96269SOL    HW190704   7.839   8.782  11.689
96269SOL    HW290705   7.879   8.887  11.791
96270SOL     OW90706  12.267   0.543  14.006
96270SOL    HW190707  12.243   0.626  14.047
96270SOL    HW290708  12.223   0.544  13.921
96271SOL     OW90709  11.923   5.989  13.742
96271SOL    HW190710  11.925   6.004  13.648
96271SOL    HW290711  11.946   5.896  13.752
96272SOL     OW90712   8.059  14.023   0.493
96272SOL    HW190713   8.023  14.105   0.525
96272SOL    HW290714   7.985  13.980   0.450
96273SOL     OW90715  11.640  11.871  13.784
96273SOL    HW190716  11.661  11.790  13.738
96273SOL    HW290717  11.553  11.856  13.820
96274SOL     OW90718   8.802  10.272   7.267
96274SOL    HW190719   8.788  10.302   7.357
96274SOL    HW290720   8.884  10.313   7.241
96275SOL     OW90721   8.649   1.284  12.131
96275SOL    HW190722   8.570   1.234  12.113
96275SOL    HW290723   8.621   1.376  12.125
96276SOL     OW90724   8.237   9.481  11.814
96276SOL    HW190725   8.226   9.543  11.885
96276SOL    HW290726   8.331   9.486  11.792
96277SOL     OW90727  13.087  13.046  11.941
96277SOL    HW190728  13.132  13.015  11.863
96277SOL    HW290729  13.114  12.985  12.010
96278SOL     OW90730   1.342  11.673   5.549
96278SOL    HW190731   1.351  11.669   5.645
96278SOL    HW290732   1.344  11.581   5.522
96279SOL     OW90733   8.848   5.569   0.157
96279SOL    HW190734   8.833   5.632   0.086
96279SOL    HW290735   8.760   5.540   0.181
96280SOL     OW90736   9.695  12.520   3.161
96280SOL    HW190737   9.725  12.486   3.245
96280SOL    HW290738   9.648  12.600   3.182
96281SOL     OW90739   8.722   0.393  11.630
96281SOL    HW190740   8.780   0.416  11.558
96281SOL    HW290741   8.775   0.336  11.686
96282SOL     OW90742  10.189   9.886   0.015
96282SOL    HW190743  10.185   9.980   0.027
96282SOL    HW290744  10.107   9.854   0.052
96283SOL     OW90745   8.528   6.003   3.969
96283SOL    HW190746   8.480   6.012   3.887
96283SOL    HW290747   8.497   6.075   4.024
96284SOL     OW90748   2.777  14.589   4.951
96284SOL    HW190749   2.780  14.640   5.032
96284SOL    HW290750   2.866  14.596   4.916
96285SOL     OW90751   7.932   5.318   3.040
96285SOL    HW190752   7.943   5.389   3.104
96285SOL    HW290753   7.988   5.344   2.966
96286SOL     OW90754  12.766   6.344   9.556
96286SOL    HW190755  12.822   6.324   9.631
96286SOL    HW290756  12.781   6.271   9.495
96287SOL     OW90757   4.690  11.721  12.204
96287SOL    HW190758   4.740  11.708  12.123
96287SOL    HW290759   4.660  11.812  12.199
96288SOL     OW90760   9.593   5.169   1.317
96288SOL    HW190761   9.683   5.203   1.323
96288SOL    HW290762   9.539   5.247   1.309
96289SOL     OW90763  12.293  12.609   0.251
96289SOL    HW190764  12.267  12.536   0.307
96289SOL    HW290765  12.213  12.661   0.242
96290SOL     OW90766  11.684   5.216  14.852
96290SOL    HW190767  11.731   5.272  14.790
96290SOL    HW290768  11.594   5.249  14.849
96291SOL     OW90769   3.292   4.057   7.588
96291SOL    HW190770   3.365   4.101   7.632
96291SOL    HW290771   3.251   4.125   7.535
96292SOL     OW90772   9.267   9.462   1.424
96292SOL    HW190773   9.180   9.427   1.442
96292SOL    HW290774   9.322   9.424   1.493
96293SOL     OW90775   5.950  11.953   8.896
96293SOL    HW190776   6.031  11.948   8.845
96293SOL    HW290777   5.975  11.926   8.984
96294SOL     OW90778  12.342  11.587   8.590
96294SOL    HW190779  12.287  11.525   8.543
96294SOL    HW290780  12.294  11.670   8.585
96295SOL     OW90781  11.054  14.523   3.312
96295SOL    HW190782  10.960  14.508   3.298
96295SOL    HW290783  11.070  14.495   3.402
96296SOL     OW90784   7.671  12.145   8.045
96296SOL    HW190785   7.654  12.090   7.968
96296SOL    HW290786   7.585  12.181   8.067
96297SOL     OW90787  11.126  10.726   0.127
96297SOL    HW190788  11.169  10.708   0.210
96297SOL    HW290789  11.188  10.783   0.080
96298SOL     OW90790  10.682   2.486   9.451
96298SOL    HW190791  10.748   2.418   9.465
96298SOL    HW290792  10.613   2.466   9.515
96299SOL     OW90793   1.016   4.654   1.106
96299SOL    HW190794   1.014   4.717   1.034
96299SOL    HW290795   1.106   4.656   1.138
96300SOL     OW90796   4.950   1.997   2.958
96300SOL    HW190797   4.904   2.058   3.016
96300SOL    HW290798   4.990   2.053   2.891
96301SOL     OW90799   3.101   5.502   5.213
96301SOL    HW190800   3.092   5.597   5.202
96301SOL    HW290801   3.030   5.478   5.273
96302SOL     OW90802  13.281   2.629  11.496
96302SOL    HW190803  13.274   2.653  11.589
96302SOL    HW290804  13.343   2.556  11.495
96303SOL     OW90805   2.180  12.623  10.003
96303SOL    HW190806   2.216  12.537   9.980
96303SOL    HW290807   2.236  12.686   9.956
96304SOL     OW90808   3.334   6.012   4.171
96304SOL    HW190809   3.342   5.946   4.240
96304SOL    HW290810   3.248   6.051   4.186
96305SOL     OW90811   2.201   5.346  12.697
96305SOL    HW190812   2.133   5.404  12.732
96305SOL    HW290813   2.244   5.397  12.629
96306SOL     OW90814   0.071  12.350  13.876
96306SOL    HW190815   0.109  12.263  13.862
96306SOL    HW290816   0.118  12.386  13.951
96307SOL     OW90817   4.654   0.792  11.708
96307SOL    HW190818   4.691   0.822  11.791
96307SOL    HW290819   4.707   0.836  11.641
96308SOL     OW90820  12.668   4.347   8.870
96308SOL    HW190821  12.652   4.348   8.965
96308SOL    HW290822  12.737   4.411   8.857
96309SOL     OW90823  13.105   4.017   7.816
96309SOL    HW190824  13.158   4.069   7.877
96309SOL    HW290825  13.166   3.993   7.746
96310SOL     OW90826   2.913   5.955  14.240
96310SOL    HW190827   2.817   5.948  14.238
96310SOL    HW290828   2.930   6.050  14.245
96311SOL     OW90829   7.253   7.174   3.168
96311SOL    HW190830   7.298   7.098   3.132
96311SOL    HW290831   7.160   7.156   3.153
96312SOL     OW90832   6.034  12.649  10.564
96312SOL    HW190833   5.994  12.672  10.648
96312SOL    HW290834   6.120  12.692  10.566
96313SOL     OW90835  12.129  13.113   5.257
96313SOL    HW190836  12.079  13.135   5.178
96313SOL    HW290837  12.102  13.023   5.277
96314SOL     OW90838   0.941  12.882  12.574
96314SOL    HW190839   0.930  12.965  12.621
96314SOL    HW290840   0.960  12.909  12.484
96315SOL     OW90841   2.742   4.982   6.429
96315SOL    HW190842   2.739   5.023   6.516
96315SOL    HW290843   2.690   5.039   6.373
96316SOL     OW90844   2.598   3.114  10.225
96316SOL    HW190845   2.682   3.075  10.248
96316SOL    HW290846   2.562   3.146  10.307
96317SOL     OW90847  11.727   0.500   2.222
96317SOL    HW190848  11.808   0.485   2.272
96317SOL    HW290849  11.733   0.591   2.194
96318SOL     OW90850   8.545  11.715   9.876
96318SOL    HW190851   8.567  11.752   9.962
96318SOL    HW290852   8.455  11.683   9.886
96319SOL     OW90853   4.123   6.939  14.859
96319SOL    HW190854   4.157   6.851  14.876
96319SOL    HW290855   4.036   6.939   0.020
96320SOL     OW90856   3.274   0.374   7.768
96320SOL    HW190857   3.323   0.305   7.723
96320SOL    HW290858   3.231   0.422   7.698
96321SOL     OW90859   0.978  10.920   3.631
96321SOL    HW190860   1.031  10.933   3.710
96321SOL    HW290861   0.992  10.828   3.608
96322SOL     OW90862   6.607   3.635   4.565
96322SOL    HW190863   6.528   3.611   4.613
96322SOL    HW290864   6.651   3.552   4.548
96323SOL     OW90865   8.134  14.224   3.466
96323SOL    HW190866   8.127  14.247   3.559
96323SOL    HW290867   8.046  14.197   3.441
96324SOL     OW90868  12.948   4.096   0.140
96324SOL    HW190869  12.867   4.090   0.191
96324SOL    HW290870  12.920   4.098   0.049
96325SOL     OW90871  12.666  12.188   7.798
96325SOL    HW190872  12.725  12.139   7.855
96325SOL    HW290873  12.718  12.262   7.767
96326SOL     OW90874   7.467   4.103   6.724
96326SOL    HW190875   7.398   4.087   6.788
96326SOL    HW290876   7.542   4.052   6.755
96327SOL     OW90877   3.086   3.088   2.352
96327SOL    HW190878   3.151   3.020   2.336
96327SOL    HW290879   3.033   3.053   2.424
96328SOL     OW90880  13.472  10.747   1.030
96328SOL    HW190881  13.527  10.784   1.099
96328SOL    HW290882  13.456  10.820   0.970
96329SOL     OW90883   2.937   7.946   3.294
96329SOL    HW190884   3.032   7.937   3.299
96329SOL    HW290885   2.907   7.920   3.381
96330SOL     OW90886   4.733   9.320   7.398
96330SOL    HW190887   4.785   9.400   7.410
96330SOL    HW290888   4.673   9.320   7.473
96331SOL     OW90889   0.811  14.141   1.916
96331SOL    HW190890   0.816  14.234   1.897
96331SOL    HW290891   0.720  14.127   1.943
96332SOL     OW90892  14.540   6.532   2.702
96332SOL    HW190893  14.487   6.507   2.778
96332SOL    HW290894  14.492   6.605   2.663
96333SOL     OW90895   5.121  12.871   5.285
96333SOL    HW190896   5.043  12.867   5.340
96333SOL    HW290897   5.093  12.920   5.207
96334SOL     OW90898   8.280   1.541   5.473
96334SOL    HW190899   8.250   1.450   5.468
96334SOL    HW290900   8.207   1.592   5.438
96335SOL     OW90901   4.258  14.829   0.906
96335SOL    HW190902   4.264  14.734   0.918
96335SOL    HW290903   4.170  14.843   0.872
96336SOL     OW90904   8.553  11.975  11.856
96336SOL    HW190905   8.638  12.006  11.823
96336SOL    HW290906   8.523  12.046  11.912
96337SOL     OW90907   6.084   6.932   7.775
96337SOL    HW190908   6.055   6.986   7.702
96337SOL    HW290909   6.127   6.857   7.734
96338SOL     OW90910   8.884  12.094   7.986
96338SOL    HW190911   8.894  12.186   8.008
96338SOL    HW290912   8.971  12.067   7.955
96339SOL     OW90913  11.526   3.628   2.528
96339SOL    HW190914  11.541   3.710   2.482
96339SOL    HW290915  11.439   3.637   2.567
96340SOL     OW90916   1.948   5.098   9.013
96340SOL    HW190917   1.951   5.118   8.920
96340SOL    HW290918   1.941   5.183   9.056
96341SOL     OW90919  12.796   4.810  12.714
96341SOL    HW190920  12.802   4.837  12.806
96341SOL    HW290921  12.768   4.888  12.667
96342SOL     OW90922   2.471   4.109   6.025
96342SOL    HW190923   2.566   4.101   6.028
96342SOL    HW290924   2.446   4.133   6.114
96343SOL     OW90925  12.563   2.524   9.868
96343SOL    HW190926  12.649   2.484   9.881
96343SOL    HW290927  12.501   2.454   9.885
96344SOL     OW90928   9.927  11.759   5.389
96344SOL    HW190929   9.905  11.734   5.479
96344SOL    HW290930   9.998  11.701   5.364
96345SOL     OW90931   0.642  12.876  11.445
96345SOL    HW190932   0.682  12.878  11.532
96345SOL    HW290933   0.697  12.934  11.392
96346SOL     OW90934   9.868   4.817  10.081
96346SOL    HW190935   9.776   4.799  10.098
96346SOL    HW290936   9.889   4.765  10.002
96347SOL     OW90937   5.078  13.303   7.299
96347SOL    HW190938   5.051  13.218   7.264
96347SOL    HW290939   5.173  13.304   7.290
96348SOL     OW90940  13.543   4.998   6.097
96348SOL    HW190941  13.448   5.001   6.097
96348SOL    HW290942  13.568   5.021   6.186
96349SOL     OW90943   7.158   0.273   4.345
96349SOL    HW190944   7.223   0.300   4.410
96349SOL    HW290945   7.122   0.354   4.312
96350SOL     OW90946   4.207  13.498   1.610
96350SOL    HW190947   4.241  13.587   1.596
96350SOL    HW290948   4.262  13.443   1.554
96351SOL     OW90949  13.644   0.351  11.124
96351SOL    HW190950  13.693   0.272  11.147
96351SOL    HW290951  13.560   0.319  11.093
96352SOL     OW90952   8.943   1.419   1.945
96352SOL    HW190953   8.880   1.457   2.006
96352SOL    HW290954   8.890   1.397   1.868
96353SOL     OW90955   9.782   4.259   1.215
96353SOL    HW190956   9.873   4.272   1.189
96353SOL    HW290957   9.780   4.283   1.308
96354SOL     OW90958   4.998  13.578  14.431
96354SOL    HW190959   4.974  13.496  14.475
96354SOL    HW290960   5.051  13.624  14.495
96355SOL     OW90961   7.694  10.034   2.288
96355SOL    HW190962   7.719  10.125   2.271
96355SOL    HW290963   7.676  10.031   2.382
96356SOL     OW90964   9.269   3.299  10.028
96356SOL    HW190965   9.332   3.358  10.070
96356SOL    HW290966   9.311   3.272   9.947
96357SOL     OW90967   9.477   9.816   2.478
96357SOL    HW190968   9.494   9.725   2.454
96357SOL    HW290969   9.482   9.817   2.574
96358SOL     OW90970  10.602   1.370  10.466
96358SOL    HW190971  10.652   1.450  10.482
96358SOL    HW290972  10.607   1.322  10.548
96359SOL     OW90973   9.691   4.608  14.578
96359SOL    HW190974   9.761   4.547  14.602
96359SOL    HW290975   9.657   4.640  14.662
96360SOL     OW90976   3.206   0.932   0.996
96360SOL    HW190977   3.281   0.993   0.995
96360SOL    HW290978   3.244   0.848   1.022
96361SOL     OW90979   8.697   5.777   6.118
96361SOL    HW190980   8.651   5.700   6.085
96361SOL    HW290981   8.650   5.851   6.079
96362SOL     OW90982  13.494   0.686   5.355
96362SOL    HW190983  13.581   0.652   5.333
96362SOL    HW290984  13.454   0.618   5.409
96363SOL     OW90985   6.445  14.080  10.097
96363SOL    HW190986   6.451  14.001  10.151
96363SOL    HW290987   6.485  14.056  10.014
96364SOL     OW90988   3.252   2.401   7.283
96364SOL    HW190989   3.343   2.408   7.311
96364SOL    HW290990   3.208   2.354   7.354
96365SOL     OW90991   8.462   9.025  13.907
96365SOL    HW190992   8.514   8.949  13.934
96365SOL    HW290993   8.425   8.999  13.822
96366SOL     OW90994  13.429  11.143  13.797
96366SOL    HW190995  13.452  11.103  13.881
96366SOL    HW290996  13.514  11.169  13.760
96367SOL     OW90997   6.206   0.490   3.230
96367SOL    HW190998   6.173   0.514   3.316
96367SOL    HW290999   6.290   0.448   3.247
96368SOL     OW91000   5.747   2.963  10.383
96368SOL    HW191001   5.781   3.052  10.396
96368SOL    HW291002   5.761   2.945  10.290
96369SOL     OW91003   8.398   8.597  10.185
96369SOL    HW191004   8.327   8.574  10.245
96369SOL    HW291005   8.398   8.527  10.120
96370SOL     OW91006   3.924   2.230  11.596
96370SOL    HW191007   3.880   2.279  11.665
96370SOL    HW291008   3.941   2.294  11.527
96371SOL     OW91009  14.269  11.596   5.890
96371SOL    HW191010  14.240  11.550   5.969
96371SOL    HW291011  14.293  11.683   5.920
96372SOL     OW91012  11.672   3.079  12.914
96372SOL    HW191013  11.698   3.137  12.842
96372SOL    HW291014  11.729   3.104  12.987
96373SOL     OW91015   9.789   6.624  13.017
96373SOL    HW191016   9.731   6.698  12.998
96373SOL    HW291017   9.759   6.555  12.957
96374SOL     OW91018   9.330   8.571   8.133
96374SOL    HW191019   9.357   8.659   8.109
96374SOL    HW291020   9.411   8.521   8.136
96375SOL     OW91021   7.325   6.696  13.449
96375SOL    HW191022   7.230   6.705  13.445
96375SOL    HW291023   7.352   6.756  13.519
96376SOL     OW91024   6.453   8.108  13.239
96376SOL    HW191025   6.526   8.065  13.284
96376SOL    HW291026   6.474   8.201  13.243
96377SOL     OW91027  11.147   4.482  11.274
96377SOL    HW191028  11.132   4.500  11.181
96377SOL    HW291029  11.241   4.463  11.279
96378SOL     OW91030   9.717   6.721   3.356
96378SOL    HW191031   9.730   6.773   3.276
96378SOL    HW291032   9.800   6.675   3.368
96379SOL     OW91033   3.246  14.465   7.210
96379SOL    HW191034   3.216  14.374   7.212
96379SOL    HW291035   3.341  14.459   7.219
96380SOL     OW91036  14.101  12.464   4.329
96380SOL    HW191037  14.100  12.397   4.260
96380SOL    HW291038  14.017  12.455   4.373
96381SOL     OW91039  13.830  14.533   3.558
96381SOL    HW191040  13.760  14.520   3.494
96381SOL    HW291041  13.802  14.607   3.610
96382SOL     OW91042  10.874   4.815   6.623
96382SOL    HW191043  10.793   4.782   6.583
96382SOL    HW291044  10.848   4.897   6.665
96383SOL     OW91045   6.295   4.068  11.456
96383SOL    HW191046   6.230   4.096  11.392
96383SOL    HW291047   6.321   4.149  11.501
96384SOL     OW91048   0.562   0.028   3.764
96384SOL    HW191049   0.524   0.090   3.701
96384SOL    HW291050   0.616   0.082   3.822
96385SOL     OW91051  11.555   9.883   7.860
96385SOL    HW191052  11.608   9.809   7.890
96385SOL    HW291053  11.476   9.844   7.824
96386SOL     OW91054   1.185   0.857   4.969
96386SOL    HW191055   1.177   0.911   4.890
96386SOL    HW291056   1.157   0.770   4.941
96387SOL     OW91057   6.778  13.911   5.614
96387SOL    HW191058   6.717  13.976   5.649
96387SOL    HW291059   6.787  13.847   5.684
96388SOL     OW91060   2.048   5.836   1.879
96388SOL    HW191061   2.109   5.784   1.827
96388SOL    HW291062   2.101   5.872   1.950
96389SOL     OW91063   3.940  12.382   7.963
96389SOL    HW191064   3.927  12.289   7.947
96389SOL    HW291065   3.970  12.386   8.054
96390SOL     OW91066   7.984   8.042   8.380
96390SOL    HW191067   7.991   8.079   8.468
96390SOL    HW291068   7.956   8.115   8.325
96391SOL     OW91069   3.495  10.567  12.489
96391SOL    HW191070   3.437  10.550  12.563
96391SOL    HW291071   3.480  10.492  12.430
96392SOL     OW91072  12.006   5.233   8.909
96392SOL    HW191073  12.071   5.164   8.925
96392SOL    HW291074  12.054   5.300   8.860
96393SOL     OW91075   2.337   6.701   8.914
96393SOL    HW191076   2.431   6.706   8.899
96393SOL    HW291077   2.322   6.761   8.987
96394SOL     OW91078  11.976   8.627   4.195
96394SOL    HW191079  11.924   8.704   4.218
96394SOL    HW291080  11.955   8.611   4.103
96395SOL     OW91081  10.645  10.668   7.318
96395SOL    HW191082  10.638  10.654   7.413
96395SOL    HW291083  10.731  10.634   7.295
96396SOL     OW91084  12.598  14.489  13.201
96396SOL    HW191085  12.527  14.554  13.200
96396SOL    HW291086  12.566  14.421  13.261
96397SOL     OW91087   5.750   0.950  12.197
96397SOL    HW191088   5.750   1.033  12.245
96397SOL    HW291089   5.774   0.973  12.108
96398SOL     OW91090   8.240   7.292  13.572
96398SOL    HW191091   8.201   7.300  13.659
96398SOL    HW291092   8.327   7.332  13.580
96399SOL     OW91093   5.644   3.248   5.672
96399SOL    HW191094   5.614   3.219   5.758
96399SOL    HW291095   5.680   3.335   5.687
96400SOL     OW91096   2.157   2.720  11.103
96400SOL    HW191097   2.150   2.790  11.037
96400SOL    HW291098   2.086   2.660  11.082
96401SOL     OW91099   1.657   5.375   0.145
96401SOL    HW191100   1.743   5.353   0.108
96401SOL    HW291101   1.609   5.292   0.146
96402SOL     OW91102   7.649   0.365   3.412
96402SOL    HW191103   7.672   0.355   3.505
96402SOL    HW291104   7.732   0.380   3.368
96403SOL     OW91105   7.583  12.349   4.562
96403SOL    HW191106   7.641  12.289   4.516
96403SOL    HW291107   7.562  12.417   4.499
96404SOL     OW91108   1.904   7.148  13.903
96404SOL    HW191109   1.814   7.120  13.917
96404SOL    HW291110   1.896   7.234  13.861
96405SOL     OW91111  14.139  11.606   0.998
96405SOL    HW191112  14.218  11.567   0.961
96405SOL    HW291113  14.169  11.689   1.036
96406SOL     OW91114  10.586  11.108   4.078
96406SOL    HW191115  10.505  11.112   4.027
96406SOL    HW291116  10.558  11.116   4.169
96407SOL     OW91117   3.928   0.876   2.280
96407SOL    HW191118   3.982   0.929   2.338
96407SOL    HW291119   3.990   0.820   2.233
96408SOL     OW91120   9.254  14.416  10.720
96408SOL    HW191121   9.311  14.414  10.644
96408SOL    HW291122   9.313  14.401  10.794
96409SOL     OW91123   2.577   9.915   2.943
96409SOL    HW191124   2.551  10.004   2.916
96409SOL    HW291125   2.615   9.927   3.030
96410SOL     OW91126   8.778   2.353   2.329
96410SOL    HW191127   8.737   2.310   2.404
96410SOL    HW291128   8.726   2.325   2.254
96411SOL     OW91129  12.502  12.030   2.944
96411SOL    HW191130  12.422  11.987   2.914
96411SOL    HW291131  12.478  12.069   3.028
96412SOL     OW91132   6.985   0.640  10.812
96412SOL    HW191133   6.947   0.575  10.754
96412SOL    HW291134   6.917   0.707  10.821
96413SOL     OW91135  10.095   7.114   8.625
96413SOL    HW191136  10.169   7.058   8.601
96413SOL    HW291137  10.127   7.165   8.699
96414SOL     OW91138  10.942  11.978   4.132
96414SOL    HW191139  11.004  11.987   4.059
96414SOL    HW291140  10.882  11.909   4.104
96415SOL     OW91141   8.527  11.301   5.808
96415SOL    HW191142   8.436  11.300   5.836
96415SOL    HW291143   8.533  11.378   5.750
96416SOL     OW91144   6.478   6.650   3.214
96416SOL    HW191145   6.389   6.671   3.243
96416SOL    HW291146   6.487   6.694   3.129
96417SOL     OW91147  14.489   1.054  11.565
96417SOL    HW191148  14.575   1.059  11.608
96417SOL    HW291149  14.476   0.961  11.548
96418SOL     OW91150  14.709   5.320   6.842
96418SOL    HW191151  14.633   5.337   6.899
96418SOL    HW291152  14.774   5.281   6.900
96419SOL     OW91153   8.457  13.592  12.189
96419SOL    HW191154   8.380  13.535  12.190
96419SOL    HW291155   8.509  13.563  12.265
96420SOL     OW91156  11.873   9.876   5.711
96420SOL    HW191157  11.909   9.940   5.773
96420SOL    HW291158  11.934   9.879   5.637
96421SOL     OW91159   5.236  13.515  13.225
96421SOL    HW191160   5.300  13.563  13.172
96421SOL    HW291161   5.205  13.445  13.169
96422SOL     OW91162   0.967  12.176   1.201
96422SOL    HW191163   1.015  12.193   1.282
96422SOL    HW291164   0.966  12.260   1.155
96423SOL     OW91165   3.982  12.370   6.103
96423SOL    HW191166   4.001  12.417   6.022
96423SOL    HW291167   3.995  12.435   6.172
96424SOL     OW91168   5.767   9.245   7.133
96424SOL    HW191169   5.767   9.337   7.157
96424SOL    HW291170   5.681   9.213   7.163
96425SOL     OW91171   8.262   8.513   8.734
96425SOL    HW191172   8.255   8.601   8.770
96425SOL    HW291173   8.308   8.524   8.651
96426SOL     OW91174   2.101  13.245  11.171
96426SOL    HW191175   2.156  13.256  11.248
96426SOL    HW291176   2.041  13.174  11.195
96427SOL     OW91177   4.532  11.591  14.746
96427SOL    HW191178   4.534  11.496  14.741
96427SOL    HW291179   4.485  11.619  14.668
96428SOL     OW91180  13.302  11.409   7.769
96428SOL    HW191181  13.346  11.359   7.838
96428SOL    HW291182  13.372  11.436   7.710
96429SOL     OW91183   5.521   3.644  13.002
96429SOL    HW191184   5.598   3.641  13.058
96429SOL    HW291185   5.459   3.583  13.042
96430SOL     OW91186  13.654   8.638  14.016
96430SOL    HW191187  13.634   8.586  14.093
96430SOL    HW291188  13.675   8.574  13.948
96431SOL     OW91189   6.388   8.705   7.597
96431SOL    HW191190   6.316   8.754   7.637
96431SOL    HW291191   6.460   8.714   7.658
96432SOL     OW91192   1.062   0.729   7.806
96432SOL    HW191193   1.153   0.705   7.793
96432SOL    HW291194   1.018   0.647   7.828
96433SOL     OW91195   5.707   6.022  10.385
96433SOL    HW191196   5.723   5.940  10.433
96433SOL    HW291197   5.715   5.997  10.293
96434SOL     OW91198   0.269   6.498   3.257
96434SOL    HW191199   0.268   6.497   3.162
96434SOL    HW291200   0.296   6.409   3.282
96435SOL     OW91201   8.713   3.535  10.489
96435SOL    HW191202   8.668   3.584  10.421
96435SOL    HW291203   8.749   3.459  10.444
96436SOL     OW91204   6.013   6.332   9.710
96436SOL    HW191205   6.018   6.259   9.773
96436SOL    HW291206   5.920   6.338   9.688
96437SOL     OW91207  13.439   1.124   0.579
96437SOL    HW191208  13.429   1.029   0.574
96437SOL    HW291209  13.523   1.137   0.624
96438SOL     OW91210   5.188   4.216   8.741
96438SOL    HW191211   5.133   4.200   8.818
96438SOL    HW291212   5.214   4.308   8.749
96439SOL     OW91213  11.102   3.286   0.718
96439SOL    HW191214  11.107   3.217   0.652
96439SOL    HW291215  11.115   3.240   0.801
96440SOL     OW91216  13.628   7.622   2.004
96440SOL    HW191217  13.680   7.572   1.941
96440SOL    HW291218  13.557   7.563   2.028
96441SOL     OW91219   1.913   6.082   1.840
96441SOL    HW191220   1.866   6.079   1.923
96441SOL    HW291221   1.964   6.002   1.838
96442SOL     OW91222  13.078   7.909  11.924
96442SOL    HW191223  13.056   7.844  11.992
96442SOL    HW291224  13.001   7.966  11.921
96443SOL     OW91225   9.423   4.745   0.422
96443SOL    HW191226   9.469   4.828   0.437
96443SOL    HW291227   9.469   4.682   0.478
96444SOL     OW91228  13.769  13.750   3.495
96444SOL    HW191229  13.860  13.752   3.525
96444SOL    HW291230  13.771  13.693   3.417
96445SOL     OW91231  12.364  12.979   1.598
96445SOL    HW191232  12.340  13.064   1.634
96445SOL    HW291233  12.328  12.980   1.509
96446SOL     OW91234  12.678  10.077   2.484
96446SOL    HW191235  12.682  10.131   2.563
96446SOL    HW291236  12.764  10.087   2.444
96447SOL     OW91237   5.766  12.658   3.880
96447SOL    HW191238   5.777  12.741   3.833
96447SOL    HW291239   5.693  12.615   3.836
96448SOL     OW91240   6.575   7.912   2.279
96448SOL    HW191241   6.579   7.817   2.266
96448SOL    HW291242   6.490   7.937   2.245
96449SOL     OW91243  14.708   5.027   6.777
96449SOL    HW191244  14.706   5.007   6.871
96449SOL    HW291245  14.681   5.118   6.771
96450SOL     OW91246   7.946  11.701  13.655
96450SOL    HW191247   7.959  11.690  13.561
96450SOL    HW291248   7.864  11.655  13.673
96451SOL     OW91249   9.584   4.902  14.023
96451SOL    HW191250   9.604   4.850  14.101
96451SOL    HW291251   9.668   4.937  13.995
96452SOL     OW91252   9.105   8.836   1.211
96452SOL    HW191253   9.091   8.893   1.287
96452SOL    HW291254   9.070   8.885   1.137
96453SOL     OW91255   6.447   7.664  12.344
96453SOL    HW191256   6.459   7.706  12.429
96453SOL    HW291257   6.400   7.583  12.363
96454SOL     OW91258   1.607   7.950   6.738
96454SOL    HW191259   1.528   7.900   6.716
96454SOL    HW291260   1.651   7.963   6.654
96455SOL     OW91261   7.062  14.188   7.391
96455SOL    HW191262   6.999  14.194   7.463
96455SOL    HW291263   7.017  14.139   7.323
96456SOL     OW91264   6.294   1.464  12.908
96456SOL    HW191265   6.229   1.534  12.914
96456SOL    HW291266   6.245   1.390  12.871
96457SOL     OW91267  14.455   2.022   2.433
96457SOL    HW191268  14.369   2.057   2.411
96457SOL    HW291269  14.440   1.967   2.510
96458SOL     OW91270   3.498   0.301  13.986
96458SOL    HW191271   3.448   0.367  14.033
96458SOL    HW291272   3.467   0.218  14.022
96459SOL     OW91273   8.216   7.238   3.300
96459SOL    HW191274   8.239   7.181   3.374
96459SOL    HW291275   8.212   7.179   3.225
96460SOL     OW91276   0.386  11.547   7.705
96460SOL    HW191277   0.292  11.558   7.690
96460SOL    HW291278   0.416  11.495   7.631
96461SOL     OW91279   5.137  13.528  12.791
96461SOL    HW191280   5.149  13.445  12.745
96461SOL    HW291281   5.062  13.513  12.849
96462SOL     OW91282  13.851   2.750   6.459
96462SOL    HW191283  13.848   2.699   6.540
96462SOL    HW291284  13.809   2.694   6.394
96463SOL     OW91285   4.449   9.514   2.262
96463SOL    HW191286   4.384   9.533   2.331
96463SOL    HW291287   4.477   9.600   2.231
96464SOL     OW91288   9.501   7.490  11.845
96464SOL    HW191289   9.453   7.558  11.797
96464SOL    HW291290   9.558   7.450  11.779
96465SOL     OW91291   3.792   9.868   1.093
96465SOL    HW191292   3.794   9.855   1.188
96465SOL    HW291293   3.748   9.790   1.060
96466SOL     OW91294  14.627   6.053  14.536
96466SOL    HW191295  14.561   6.118  14.515
96466SOL    HW291296  14.585   5.996  14.600
96467SOL     OW91297  13.818   5.700   4.947
96467SOL    HW191298  13.803   5.687   5.040
96467SOL    HW291299  13.913   5.705   4.938
96468SOL     OW91300  14.166   3.833   8.151
96468SOL    HW191301  14.108   3.901   8.184
96468SOL    HW291302  14.156   3.760   8.212
96469SOL     OW91303   1.882   3.126   5.291
96469SOL    HW191304   1.907   3.042   5.329
96469SOL    HW291305   1.876   3.185   5.365
96470SOL     OW91306   3.100   8.448  12.458
96470SOL    HW191307   3.104   8.431  12.552
96470SOL    HW291308   3.107   8.544  12.451
96471SOL     OW91309   3.719   5.945  12.784
96471SOL    HW191310   3.772   5.871  12.815
96471SOL    HW291311   3.702   5.925  12.692
96472SOL     OW91312   5.830  13.437   3.675
96472SOL    HW191313   5.855  13.529   3.673
96472SOL    HW291314   5.808  13.416   3.584
96473SOL     OW91315   8.611  11.116  11.127
96473SOL    HW191316   8.553  11.043  11.102
96473SOL    HW291317   8.644  11.091  11.213
96474SOL     OW91318   4.335   7.128   7.497
96474SOL    HW191319   4.338   7.190   7.570
96474SOL    HW291320   4.369   7.178   7.422
96475SOL     OW91321   7.299   3.320  12.661
96475SOL    HW191322   7.216   3.292  12.698
96475SOL    HW291323   7.365   3.270  12.709
96476SOL     OW91324  12.606   4.464  13.880
96476SOL    HW191325  12.678   4.442  13.938
96476SOL    HW291326  12.550   4.386  13.881
96477SOL     OW91327  11.618   7.294   2.004
96477SOL    HW191328  11.679   7.237   1.956
96477SOL    HW291329  11.579   7.349   1.937
96478SOL     OW91330   9.720  13.304   1.420
96478SOL    HW191331   9.658  13.376   1.429
96478SOL    HW291332   9.802  13.347   1.396
96479SOL     OW91333   4.846  12.321   5.674
96479SOL    HW191334   4.866  12.305   5.582
96479SOL    HW291335   4.916  12.277   5.722
96480SOL     OW91336  10.222   7.037  10.772
96480SOL    HW191337  10.214   6.956  10.821
96480SOL    HW291338  10.132   7.068  10.761
96481SOL     OW91339   5.672   1.274  13.260
96481SOL    HW191340   5.676   1.306  13.170
96481SOL    HW291341   5.726   1.335  13.310
96482SOL     OW91342   8.915   8.969  14.791
96482SOL    HW191343   8.863   8.902  14.837
96482SOL    HW291344   8.865   9.050  14.802
96483SOL     OW91345   1.346   1.371  10.056
96483SOL    HW191346   1.252   1.353  10.057
96483SOL    HW291347   1.352   1.463  10.033
96484SOL     OW91348  12.079   6.268   1.928
96484SOL    HW191349  12.126   6.287   2.010
96484SOL    HW291350  11.993   6.237   1.957
96485SOL     OW91351   8.500  14.618  11.383
96485SOL    HW191352   8.501  14.677  11.458
96485SOL    HW291353   8.490  14.530  11.421
96486SOL     OW91354  12.030  12.454   6.891
96486SOL    HW191355  12.125  12.445   6.890
96486SOL    HW291356  12.013  12.535   6.841
96487SOL     OW91357   1.722   2.922   6.121
96487SOL    HW191358   1.777   2.959   6.051
96487SOL    HW291359   1.728   2.986   6.192
96488SOL     OW91360   8.260  12.045   8.458
96488SOL    HW191361   8.326  12.082   8.517
96488SOL    HW291362   8.235  11.962   8.499
96489SOL     OW91363   4.337   2.606  13.085
96489SOL    HW191364   4.320   2.686  13.036
96489SOL    HW291365   4.258   2.593  13.138
96490SOL     OW91366  11.734   5.546   7.523
96490SOL    HW191367  11.794   5.616   7.548
96490SOL    HW291368  11.706   5.507   7.606
96491SOL     OW91369  11.935   5.302  12.408
96491SOL    HW191370  12.009   5.358  12.432
96491SOL    HW291371  11.921   5.247  12.485
96492SOL     OW91372   2.121   5.901   0.453
96492SOL    HW191373   2.170   5.904   0.535
96492SOL    HW291374   2.071   5.820   0.457
96493SOL     OW91375   0.197  11.987   5.081
96493SOL    HW191376   0.103  11.993   5.093
96493SOL    HW291377   0.234  12.046   5.147
96494SOL     OW91378   9.080   0.433  14.390
96494SOL    HW191379   9.122   0.501  14.338
96494SOL    HW291380   9.150   0.372  14.412
96495SOL     OW91381   4.276  14.675  12.422
96495SOL    HW191382   4.366  14.641  12.423
96495SOL    HW291383   4.226  14.609  12.375
96496SOL     OW91384   6.623   2.752   1.301
96496SOL    HW191385   6.698   2.703   1.268
96496SOL    HW291386   6.558   2.748   1.231
96497SOL     OW91387   5.755   6.652  11.083
96497SOL    HW191388   5.811   6.588  11.127
96497SOL    HW291389   5.784   6.737  11.118
96498SOL     OW91390  11.767   2.421   7.895
96498SOL    HW191391  11.789   2.328   7.891
96498SOL    HW291392  11.821   2.456   7.965
96499SOL     OW91393   0.624  12.298   6.659
96499SOL    HW191394   0.705  12.263   6.695
96499SOL    HW291395   0.585  12.224   6.612
96500SOL     OW91396   7.312   1.920   3.107
96500SOL    HW191397   7.219   1.900   3.095
96500SOL    HW291398   7.338   1.867   3.183
96501SOL     OW91399  13.885   2.935   7.410
96501SOL    HW191400  13.871   2.962   7.501
96501SOL    HW291401  13.911   3.015   7.365
96502SOL     OW91402   4.492  10.282   3.790
96502SOL    HW191403   4.539  10.350   3.742
96502SOL    HW291404   4.554  10.208   3.793
96503SOL     OW91405   0.231  12.042   1.642
96503SOL    HW191406   0.226  12.001   1.556
96503SOL    HW291407   0.312  12.008   1.680
96504SOL     OW91408   3.903   9.222  12.656
96504SOL    HW191409   3.915   9.246  12.564
96504SOL    HW291410   3.962   9.279  12.704
96505SOL     OW91411  13.863  14.470  12.674
96505SOL    HW191412  13.780  14.431  12.646
96505SOL    HW291413  13.839  14.524  12.749
96506SOL     OW91414  10.913   5.312  11.524
96506SOL    HW191415  10.905   5.406  11.509
96506SOL    HW291416  10.942   5.305  11.615
96507SOL     OW91417   3.311   7.424   3.164
96507SOL    HW191418   3.260   7.362   3.216
96507SOL    HW291419   3.392   7.376   3.143
96508SOL     OW91420  10.274   9.127  10.344
96508SOL    HW191421  10.211   9.065  10.307
96508SOL    HW291422  10.329   9.073  10.401
96509SOL     OW91423  13.446   0.674   8.150
96509SOL    HW191424  13.368   0.623   8.167
96509SOL    HW291425  13.481   0.695   8.237
96510SOL     OW91426   0.383  10.464  13.982
96510SOL    HW191427   0.357  10.492  14.070
96510SOL    HW291428   0.456  10.403  13.997
96511SOL     OW91429   9.098  13.776   0.651
96511SOL    HW191430   9.128  13.778   0.741
96511SOL    HW291431   9.003  13.788   0.657
96512SOL     OW91432   1.529  14.678   1.541
96512SOL    HW191433   1.593  14.648   1.606
96512SOL    HW291434   1.487  14.598   1.510
96513SOL     OW91435  11.894   1.362   7.147
96513SOL    HW191436  11.976   1.346   7.100
96513SOL    HW291437  11.829   1.310   7.100
96514SOL     OW91438   2.831   3.208   7.147
96514SOL    HW191439   2.842   3.119   7.112
96514SOL    HW291440   2.746   3.205   7.191
96515SOL     OW91441  13.342  13.835   8.467
96515SOL    HW191442  13.257  13.792   8.466
96515SOL    HW291443  13.326  13.920   8.508
96516SOL     OW91444   9.522   3.665  11.863
96516SOL    HW191445   9.588   3.601  11.891
96516SOL    HW291446   9.479   3.623  11.789
96517SOL     OW91447   0.485   3.742   8.651
96517SOL    HW191448   0.548   3.678   8.618
96517SOL    HW291449   0.408   3.690   8.674
96518SOL     OW91450  10.714   5.905  10.400
96518SOL    HW191451  10.758   5.924  10.317
96518SOL    HW291452  10.784   5.877  10.459
96519SOL     OW91453   6.047   1.081   8.473
96519SOL    HW191454   6.093   1.138   8.411
96519SOL    HW291455   6.061   0.993   8.438
96520SOL     OW91456   1.976   5.745   2.853
96520SOL    HW191457   1.952   5.831   2.886
96520SOL    HW291458   1.941   5.743   2.764
96521SOL     OW91459   7.166   8.795  12.472
96521SOL    HW191460   7.138   8.883  12.496
96521SOL    HW291461   7.236   8.774  12.533
96522SOL     OW91462   0.797  14.379   6.896
96522SOL    HW191463   0.720  14.363   6.950
96522SOL    HW291464   0.862  14.315   6.925
96523SOL     OW91465  11.761   8.694   4.461
96523SOL    HW191466  11.675   8.707   4.420
96523SOL    HW291467  11.745   8.704   4.555
96524SOL     OW91468   1.045   2.825   1.314
96524SOL    HW191469   1.004   2.780   1.240
96524SOL    HW291470   1.136   2.838   1.287
96525SOL     OW91471   8.245   7.318  11.123
96525SOL    HW191472   8.232   7.290  11.213
96525SOL    HW291473   8.231   7.412  11.124
96526SOL     OW91474   9.516   1.237   9.333
96526SOL    HW191475   9.426   1.244   9.367
96526SOL    HW291476   9.553   1.161   9.379
96527SOL     OW91477   7.121  11.725  10.182
96527SOL    HW191478   7.197  11.745  10.126
96527SOL    HW291479   7.102  11.633  10.165
96528SOL     OW91480  11.942  10.949   2.635
96528SOL    HW191481  11.940  10.955   2.539
96528SOL    HW291482  11.963  10.857   2.653
96529SOL     OW91483  12.729   9.081  12.239
96529SOL    HW191484  12.709   9.115  12.326
96529SOL    HW291485  12.646   9.045  12.207
96530SOL     OW91486   5.384  11.208   1.188
96530SOL    HW191487   5.367  11.119   1.218
96530SOL    HW291488   5.479  11.218   1.194
96531SOL     OW91489   2.976  10.159  14.142
96531SOL    HW191490   2.979  10.213  14.221
96531SOL    HW291491   2.988  10.069  14.174
96532SOL     OW91492  11.118   7.581   0.682
96532SOL    HW191493  11.069   7.633   0.618
96532SOL    HW291494  11.078   7.494   0.679
96533SOL     OW91495   5.599   7.737  10.855
96533SOL    HW191496   5.678   7.780  10.821
96533SOL    HW291497   5.614   7.644  10.839
96534SOL     OW91498   4.787  10.908   1.985
96534SOL    HW191499   4.783  10.815   2.006
96534SOL    HW291500   4.854  10.915   1.917
96535SOL     OW91501   1.966   2.536   0.701
96535SOL    HW191502   1.999   2.623   0.678
96535SOL    HW291503   2.019   2.475   0.649
96536SOL     OW91504  12.556   3.846   1.824
96536SOL    HW191505  12.608   3.860   1.745
96536SOL    HW291506  12.512   3.762   1.810
96537SOL     OW91507   0.473  13.468   8.792
96537SOL    HW191508   0.457  13.443   8.883
96537SOL    HW291509   0.468  13.564   8.792
96538SOL     OW91510   2.419   6.199   4.402
96538SOL    HW191511   2.436   6.109   4.375
96538SOL    HW291512   2.372   6.192   4.485
96539SOL     OW91513  11.324   8.352  12.261
96539SOL    HW191514  11.357   8.442  12.258
96539SOL    HW291515  11.247   8.353  12.204
96540SOL     OW91516   1.849   9.824   7.920
96540SOL    HW191517   1.943   9.810   7.909
96540SOL    HW291518   1.827   9.779   8.001
96541SOL     OW91519   1.601  14.585   8.104
96541SOL    HW191520   1.614  14.680   8.110
96541SOL    HW291521   1.618  14.565   8.012
96542SOL     OW91522  12.890  14.196   1.132
96542SOL    HW191523  12.843  14.276   1.157
96542SOL    HW291524  12.822  14.132   1.115
96543SOL     OW91525   6.806   8.363  12.696
96543SOL    HW191526   6.765   8.355  12.610
96543SOL    HW291527   6.884   8.417  12.680
96544SOL     OW91528  11.634   6.434   6.942
96544SOL    HW191529  11.696   6.507   6.946
96544SOL    HW291530  11.570   6.460   6.876
96545SOL     OW91531   4.692   3.224   9.357
96545SOL    HW191532   4.742   3.202   9.278
96545SOL    HW291533   4.743   3.294   9.398
96546SOL     OW91534   5.112   1.779  10.272
96546SOL    HW191535   5.029   1.763  10.316
96546SOL    HW291536   5.112   1.721  10.196
96547SOL     OW91537   8.103   8.738  13.213
96547SOL    HW191538   8.112   8.824  13.171
96547SOL    HW291539   8.113   8.675  13.142
96548SOL     OW91540  11.129   3.641   9.105
96548SOL    HW191541  11.145   3.702   9.033
96548SOL    HW291542  11.160   3.688   9.183
96549SOL     OW91543  10.516  10.262  14.482
96549SOL    HW191544  10.495  10.217  14.400
96549SOL    HW291545  10.609  10.242  14.497
96550SOL     OW91546   5.683  13.486   5.267
96550SOL    HW191547   5.760  13.539   5.282
96550SOL    HW291548   5.630  13.497   5.346
96551SOL     OW91549   8.543  12.187   7.707
96551SOL    HW191550   8.615  12.207   7.647
96551SOL    HW291551   8.530  12.092   7.697
96552SOL     OW91552  12.376  13.196   0.409
96552SOL    HW191553  12.286  13.165   0.402
96552SOL    HW291554  12.428  13.129   0.363
96553SOL     OW91555   8.134  11.932   5.626
96553SOL    HW191556   8.123  11.934   5.531
96553SOL    HW291557   8.154  11.841   5.646
96554SOL     OW91558  13.748   7.257   3.326
96554SOL    HW191559  13.801   7.190   3.369
96554SOL    HW291560  13.736   7.325   3.393
96555SOL     OW91561  12.683  13.918   3.857
96555SOL    HW191562  12.768  13.876   3.870
96555SOL    HW291563  12.676  13.928   3.762
96556SOL     OW91564   0.556   4.881  11.104
96556SOL    HW191565   0.540   4.958  11.049
96556SOL    HW291566   0.600   4.819  11.045
96557SOL     OW91567  10.895   4.779  13.127
96557SOL    HW191568  10.898   4.689  13.160
96557SOL    HW291569  10.905   4.770  13.032
96558SOL     OW91570   4.269  10.654   4.354
96558SOL    HW191571   4.248  10.742   4.386
96558SOL    HW291572   4.339  10.623   4.411
96559SOL     OW91573   2.481   9.347   7.720
96559SOL    HW191574   2.401   9.296   7.733
96559SOL    HW291575   2.463   9.432   7.761
96560SOL     OW91576   6.179   5.287  14.355
96560SOL    HW191577   6.091   5.250  14.351
96560SOL    HW291578   6.173   5.369  14.306
96561SOL     OW91579   3.504  10.438  12.035
96561SOL    HW191580   3.477  10.355  12.075
96561SOL    HW291581   3.515  10.417  11.942
96562SOL     OW91582   2.201  11.404  13.133
96562SOL    HW191583   2.148  11.410  13.213
96562SOL    HW291584   2.204  11.493  13.099
96563SOL     OW91585   7.873  11.245   4.499
96563SOL    HW191586   7.814  11.297   4.445
96563SOL    HW291587   7.915  11.184   4.439
96564SOL     OW91588   4.090   6.365   4.758
96564SOL    HW191589   4.110   6.374   4.851
96564SOL    HW291590   4.039   6.284   4.753
96565SOL     OW91591  11.717   2.972   5.845
96565SOL    HW191592  11.624   2.970   5.868
96565SOL    HW291593  11.743   3.063   5.861
96566SOL     OW91594   3.914   7.612  12.916
96566SOL    HW191595   3.933   7.672  12.988
96566SOL    HW291596   3.935   7.525  12.951
96567SOL     OW91597  13.162  12.663   5.113
96567SOL    HW191598  13.251  12.646   5.085
96567SOL    HW291599  13.107  12.630   5.042
96568SOL     OW91600  10.182   4.702   7.466
96568SOL    HW191601  10.188   4.607   7.480
96568SOL    HW291602  10.229   4.718   7.384
96569SOL     OW91603   7.061   4.179   4.382
96569SOL    HW191604   7.048   4.249   4.318
96569SOL    HW291605   6.990   4.116   4.363
96570SOL     OW91606   7.071   9.089  11.396
96570SOL    HW191607   7.027   9.131  11.471
96570SOL    HW291608   7.162   9.117  11.403
96571SOL     OW91609  10.321   4.668  12.712
96571SOL    HW191610  10.275   4.591  12.745
96571SOL    HW291611  10.254   4.716  12.663
96572SOL     OW91612   5.018   2.543  11.186
96572SOL    HW191613   5.003   2.618  11.243
96572SOL    HW291614   5.099   2.504  11.218
96573SOL     OW91615   2.433   7.127  10.840
96573SOL    HW191616   2.492   7.053  10.857
96573SOL    HW291617   2.424   7.171  10.924
96574SOL     OW91618   3.941   2.002   4.732
96574SOL    HW191619   3.925   2.022   4.640
96574SOL    HW291620   3.945   2.087   4.775
96575SOL     OW91621  12.909  12.692  10.097
96575SOL    HW191622  12.876  12.607  10.128
96575SOL    HW291623  13.002  12.676  10.080
96576SOL     OW91624   0.861   0.024   8.959
96576SOL    HW191625   0.784   0.049   9.010
96576SOL    HW291626   0.921   0.098   8.969
96577SOL     OW91627  13.637   1.010  12.165
96577SOL    HW191628  13.651   1.032  12.257
96577SOL    HW291629  13.715   1.044  12.121
96578SOL     OW91630   3.136  12.762   7.271
96578SOL    HW191631   3.132  12.749   7.176
96578SOL    HW291632   3.104  12.679   7.308
96579SOL     OW91633  10.015  13.805  10.902
96579SOL    HW191634   9.954  13.872  10.872
96579SOL    HW291635  10.042  13.759  10.823
96580SOL     OW91636  11.320   5.518  11.068
96580SOL    HW191637  11.362   5.432  11.081
96580SOL    HW291638  11.287   5.541  11.155
96581SOL     OW91639  13.903  11.685   6.348
96581SOL    HW191640  13.961  11.664   6.421
96581SOL    HW291641  13.827  11.628   6.360
96582SOL     OW91642   8.259   2.323   4.343
96582SOL    HW191643   8.280   2.232   4.365
96582SOL    HW291644   8.318   2.344   4.271
96583SOL     OW91645   9.380  13.662  11.093
96583SOL    HW191646   9.369  13.691  11.002
96583SOL    HW291647   9.392  13.743  11.143
96584SOL     OW91648   8.374   2.513  10.624
96584SOL    HW191649   8.344   2.493  10.713
96584SOL    HW291650   8.469   2.513  10.630
96585SOL     OW91651   4.691  14.836   2.201
96585SOL    HW191652   4.753  14.766   2.184
96585SOL    HW291653   4.607  14.792   2.211
96586SOL     OW91654   3.065   7.257  13.591
96586SOL    HW191655   2.975   7.222  13.590
96586SOL    HW291656   3.118   7.186  13.555
96587SOL     OW91657   9.956  12.246   6.729
96587SOL    HW191658   9.917  12.248   6.641
96587SOL    HW291659   9.995  12.159   6.736
96588SOL     OW91660   8.058   8.902  11.469
96588SOL    HW191661   8.139   8.913  11.518
96588SOL    HW291662   7.989   8.905  11.535
96589SOL     OW91663   0.433  10.428   4.452
96589SOL    HW191664   0.472  10.357   4.401
96589SOL    HW291665   0.493  10.502   4.440
96590SOL     OW91666   0.873   6.245  11.543
96590SOL    HW191667   0.894   6.164  11.497
96590SOL    HW291668   0.859   6.309  11.473
96591SOL     OW91669  11.378   4.858   6.966
96591SOL    HW191670  11.446   4.925   6.975
96591SOL    HW291671  11.396   4.797   7.038
96592SOL     OW91672   6.214  12.921  11.492
96592SOL    HW191673   6.305  12.945  11.476
96592SOL    HW291674   6.214  12.882  11.580
96593SOL     OW91675  13.877   0.418  10.599
96593SOL    HW191676  13.922   0.425  10.515
96593SOL    HW291677  13.789   0.452  10.582
96594SOL     OW91678   3.877  10.553   4.064
96594SOL    HW191679   3.845  10.551   4.154
96594SOL    HW291680   3.933  10.476   4.056
96595SOL     OW91681   3.346   4.389   0.168
96595SOL    HW191682   3.317   4.359   0.254
96595SOL    HW291683   3.418   4.449   0.187
96596SOL     OW91684   1.618   4.246   1.613
96596SOL    HW191685   1.568   4.216   1.689
96596SOL    HW291686   1.709   4.227   1.635
96597SOL     OW91687   9.412   9.614   0.338
96597SOL    HW191688   9.416   9.539   0.396
96597SOL    HW291689   9.458   9.684   0.385
96598SOL     OW91690   6.609   5.419  11.529
96598SOL    HW191691   6.683   5.391  11.582
96598SOL    HW291692   6.648   5.466  11.455
96599SOL     OW91693   4.191   4.524   1.929
96599SOL    HW191694   4.139   4.604   1.916
96599SOL    HW291695   4.267   4.553   1.979
96600SOL     OW91696  11.709   7.498  10.418
96600SOL    HW191697  11.621   7.520  10.447
96600SOL    HW291698  11.703   7.409  10.385
96601SOL     OW91699   6.896  13.658   5.350
96601SOL    HW191700   6.964  13.708   5.306
96601SOL    HW291701   6.926  13.652   5.441
96602SOL     OW91702   6.056   8.349  13.227
96602SOL    HW191703   6.075   8.422  13.168
96602SOL    HW291704   6.091   8.377  13.312
96603SOL     OW91705  13.798  11.957  11.276
96603SOL    HW191706  13.789  12.051  11.258
96603SOL    HW291707  13.735  11.915  11.218
96604SOL     OW91708   4.449   8.634   0.730
96604SOL    HW191709   4.376   8.636   0.668
96604SOL    HW291710   4.408   8.632   0.816
96605SOL     OW91711   3.729   4.889   9.809
96605SOL    HW191712   3.670   4.816   9.827
96605SOL    HW291713   3.704   4.955   9.874
96606SOL     OW91714   5.320   7.897   1.031
96606SOL    HW191715   5.386   7.944   1.082
96606SOL    HW291716   5.241   7.900   1.085
96607SOL     OW91717   6.277   7.339  13.146
96607SOL    HW191718   6.203   7.380  13.102
96607SOL    HW291719   6.351   7.349  13.085
96608SOL     OW91720  12.892   5.442   8.168
96608SOL    HW191721  12.868   5.380   8.238
96608SOL    HW291722  12.962   5.495   8.205
96609SOL     OW91723   1.991  10.188   2.118
96609SOL    HW191724   1.962  10.142   2.196
96609SOL    HW291725   2.013  10.119   2.055
96610SOL     OW91726   0.741  14.057   2.535
96610SOL    HW191727   0.752  13.966   2.563
96610SOL    HW291728   0.663  14.087   2.581
96611SOL     OW91729  12.822   5.609   1.572
96611SOL    HW191730  12.883   5.621   1.645
96611SOL    HW291731  12.876   5.572   1.502
96612SOL     OW91732   5.368  13.069  14.750
96612SOL    HW191733   5.295  13.129  14.737
96612SOL    HW291734   5.357  13.036  14.839
96613SOL     OW91735   1.305   9.721   8.379
96613SOL    HW191736   1.386   9.741   8.332
96613SOL    HW291737   1.251   9.676   8.314
96614SOL     OW91738  11.068   4.645   8.335
96614SOL    HW191739  11.153   4.664   8.376
96614SOL    HW291740  11.022   4.592   8.400
96615SOL     OW91741   3.465   1.693   5.261
96615SOL    HW191742   3.409   1.629   5.304
96615SOL    HW291743   3.406   1.764   5.234
96616SOL     OW91744   1.492   5.497   9.860
96616SOL    HW191745   1.584   5.517   9.878
96616SOL    HW291746   1.443   5.550   9.923
96617SOL     OW91747  11.791   6.342  10.501
96617SOL    HW191748  11.814   6.255  10.532
96617SOL    HW291749  11.856   6.361  10.433
96618SOL     OW91750   4.396   3.456  10.898
96618SOL    HW191751   4.458   3.501  10.841
96618SOL    HW291752   4.447   3.388  10.941
96619SOL     OW91753   1.065   1.215   8.450
96619SOL    HW191754   1.080   1.252   8.537
96619SOL    HW291755   1.131   1.146   8.442
96620SOL     OW91756   9.358   5.691   0.660
96620SOL    HW191757   9.419   5.621   0.638
96620SOL    HW291758   9.272   5.651   0.656
96621SOL     OW91759  13.611  12.755   1.009
96621SOL    HW191760  13.604  12.664   1.036
96621SOL    HW291761  13.653  12.751   0.923
96622SOL     OW91762   8.745   5.801   9.631
96622SOL    HW191763   8.765   5.881   9.583
96622SOL    HW291764   8.830   5.763   9.651
96623SOL     OW91765  13.807  10.586   1.944
96623SOL    HW191766  13.823  10.671   1.986
96623SOL    HW291767  13.860  10.587   1.865
96624SOL     OW91768   8.006  14.576   0.806
96624SOL    HW191769   8.008  14.493   0.759
96624SOL    HW291770   8.095  14.610   0.800
96625SOL     OW91771  14.705   4.923   2.072
96625SOL    HW191772  14.794   4.949   2.096
96625SOL    HW291773  14.660   4.914   2.155
96626SOL     OW91774   5.558  11.947  12.649
96626SOL    HW191775   5.475  11.994  12.651
96626SOL    HW291776   5.535  11.856  12.633
96627SOL     OW91777  10.359   1.664   3.516
96627SOL    HW191778  10.373   1.572   3.540
96627SOL    HW291779  10.438   1.687   3.466
96628SOL     OW91780  10.207   0.681   9.832
96628SOL    HW191781  10.176   0.620   9.897
96628SOL    HW291782  10.217   0.629   9.752
96629SOL     OW91783   9.767  14.366   1.691
96629SOL    HW191784   9.836  14.424   1.723
96629SOL    HW291785   9.783  14.282   1.735
96630SOL     OW91786   4.707   9.315  11.751
96630SOL    HW191787   4.645   9.387  11.766
96630SOL    HW291788   4.671   9.241  11.800
96631SOL     OW91789  14.356   2.125  10.799
96631SOL    HW191790  14.439   2.156  10.762
96631SOL    HW291791  14.297   2.120  10.724
96632SOL     OW91792   1.377   4.803   2.141
96632SOL    HW191793   1.343   4.751   2.067
96632SOL    HW291794   1.340   4.761   2.218
96633SOL     OW91795  10.379   0.645   6.766
96633SOL    HW191796  10.286   0.635   6.784
96633SOL    HW291797  10.383   0.692   6.683
96634SOL     OW91798  11.690  13.036   7.360
96634SOL    HW191799  11.682  13.119   7.315
96634SOL    HW291800  11.745  12.982   7.303
96635SOL     OW91801   4.504   9.713  10.554
96635SOL    HW191802   4.487   9.765  10.475
96635SOL    HW291803   4.489   9.773  10.627
96636SOL     OW91804   4.032   9.998  14.789
96636SOL    HW191805   4.000   9.926  14.735
96636SOL    HW291806   3.992  10.077  14.750
96637SOL     OW91807   3.072   4.327   9.867
96637SOL    HW191808   3.100   4.252   9.919
96637SOL    HW291809   3.126   4.399   9.898
96638SOL     OW91810   9.774  11.833   6.144
96638SOL    HW191811   9.865  11.822   6.171
96638SOL    HW291812   9.727  11.761   6.188
96639SOL     OW91813   5.497   8.974   1.123
96639SOL    HW191814   5.564   8.991   1.057
96639SOL    HW291815   5.537   9.001   1.205
96640SOL     OW91816   8.375   7.505  10.871
96640SOL    HW191817   8.375   7.587  10.920
96640SOL    HW291818   8.319   7.522  10.795
96641SOL     OW91819   7.413   4.600   7.995
96641SOL    HW191820   7.398   4.575   7.904
96641SOL    HW291821   7.338   4.656   8.016
96642SOL     OW91822   2.528   6.210  11.805
96642SOL    HW191823   2.541   6.122  11.768
96642SOL    HW291824   2.456   6.200  11.866
96643SOL     OW91825   8.919  11.273   9.350
96643SOL    HW191826   8.852  11.288   9.416
96643SOL    HW291827   8.959  11.359   9.337
96644SOL     OW91828  13.182   6.014   5.142
96644SOL    HW191829  13.143   5.997   5.056
96644SOL    HW291830  13.157   6.104   5.162
96645SOL     OW91831   8.799   0.004   2.600
96645SOL    HW191832   8.846  14.825   2.541
96645SOL    HW291833   8.795   0.087   2.553
96646SOL     OW91834  13.514  14.540  10.240
96646SOL    HW191835  13.487  14.615  10.186
96646SOL    HW291836  13.479  14.560  10.327
96647SOL     OW91837  13.158   1.387   6.840
96647SOL    HW191838  13.137   1.454   6.776
96647SOL    HW291839  13.205   1.433   6.910
96648SOL     OW91840  13.044   2.352   8.128
96648SOL    HW191841  13.089   2.268   8.121
96648SOL    HW291842  13.114   2.417   8.124
96649SOL     OW91843  10.749   7.053  11.117
96649SOL    HW191844  10.756   6.982  11.054
96649SOL    HW291845  10.705   7.123  11.070
96650SOL     OW91846  10.388  13.006   8.675
96650SOL    HW191847  10.293  13.018   8.674
96650SOL    HW291848  10.402  12.921   8.634
96651SOL     OW91849  12.666  12.828  14.428
96651SOL    HW191850  12.676  12.768  14.354
96651SOL    HW291851  12.733  12.801  14.490
96652SOL     OW91852   2.922   6.728   5.997
96652SOL    HW191853   2.889   6.793   6.059
96652SOL    HW291854   2.961   6.660   6.052
96653SOL     OW91855  11.089   2.461   5.295
96653SOL    HW191856  11.090   2.416   5.211
96653SOL    HW291857  11.117   2.550   5.275
96654SOL     OW91858   7.333   6.228   0.023
96654SOL    HW191859   7.267   6.166  14.873
96654SOL    HW291860   7.362   6.274  14.825
96655SOL     OW91861   9.831   7.416  11.278
96655SOL    HW191862   9.887   7.346  11.310
96655SOL    HW291863   9.764   7.426  11.346
96656SOL     OW91864  11.103   6.693  12.085
96656SOL    HW191865  11.094   6.709  11.991
96656SOL    HW291866  11.110   6.598  12.093
96657SOL     OW91867   8.808   1.204   6.772
96657SOL    HW191868   8.865   1.262   6.824
96657SOL    HW291869   8.719   1.228   6.799
96658SOL     OW91870   7.952   3.772  11.559
96658SOL    HW191871   7.957   3.689  11.607
96658SOL    HW291872   8.043   3.795  11.542
96659SOL     OW91873   0.353  12.354  12.571
96659SOL    HW191874   0.333  12.328  12.481
96659SOL    HW291875   0.414  12.288  12.603
96660SOL     OW91876   3.296   3.646   0.780
96660SOL    HW191877   3.261   3.558   0.767
96660SOL    HW291878   3.248   3.680   0.856
96661SOL     OW91879   3.147   1.328   3.822
96661SOL    HW191880   3.191   1.412   3.808
96661SOL    HW291881   3.121   1.301   3.734
96662SOL     OW91882  10.043  12.556   8.285
96662SOL    HW191883  10.068  12.469   8.255
96662SOL    HW291884   9.982  12.588   8.219
96663SOL     OW91885  10.558   7.833   2.709
96663SOL    HW191886  10.596   7.749   2.685
96663SOL    HW291887  10.568   7.838   2.804
96664SOL     OW91888  12.442   7.000  13.752
96664SOL    HW191889  12.450   6.908  13.731
96664SOL    HW291890  12.523   7.021  13.798
96665SOL     OW91891   5.699  12.514   6.587
96665SOL    HW191892   5.741  12.479   6.508
96665SOL    HW291893   5.609  12.479   6.583
96666SOL     OW91894   9.899   9.456  13.732
96666SOL    HW191895   9.973   9.511  13.758
96666SOL    HW291896   9.829   9.478  13.794
96667SOL     OW91897  14.405  12.673   4.034
96667SOL    HW191898  14.412  12.765   4.007
96667SOL    HW291899  14.316  12.666   4.070
96668SOL     OW91900   0.530   2.056   2.520
96668SOL    HW191901   0.436   2.042   2.516
96668SOL    HW291902   0.553   2.033   2.610
96669SOL     OW91903   6.132   5.973   9.313
96669SOL    HW191904   6.154   5.916   9.239
96669SOL    HW291905   6.061   6.029   9.280
96670SOL     OW91906   9.061  13.535   5.152
96670SOL    HW191907   9.141  13.563   5.196
96670SOL    HW291908   8.993  13.546   5.217
96671SOL     OW91909   2.971   0.505   8.623
96671SOL    HW191910   2.952   0.502   8.717
96671SOL    HW291911   2.900   0.454   8.583
96672SOL     OW91912   7.032   3.797  13.955
96672SOL    HW191913   7.001   3.825  14.041
96672SOL    HW291914   7.076   3.713  13.971
96673SOL     OW91915   5.244  14.843   8.766
96673SOL    HW191916   5.229   0.029   8.698
96673SOL    HW291917   5.228   0.010   8.848
96674SOL     OW91918   8.700   7.181  14.291
96674SOL    HW191919   8.654   7.149  14.213
96674SOL    HW291920   8.631   7.223  14.343
96675SOL     OW91921   9.471   6.350  10.772
96675SOL    HW191922   9.469   6.321  10.863
96675SOL    HW291923   9.548   6.307  10.735
96676SOL     OW91924   8.668   1.884  12.443
96676SOL    HW191925   8.600   1.913  12.504
96676SOL    HW291926   8.630   1.807  12.399
96677SOL     OW91927   2.795   5.239   8.052
96677SOL    HW191928   2.778   5.325   8.013
96677SOL    HW291929   2.801   5.257   8.146
96678SOL     OW91930   4.720  10.820   4.096
96678SOL    HW191931   4.808  10.831   4.061
96678SOL    HW291932   4.721  10.735   4.139
96679SOL     OW91933   7.292   4.603  10.096
96679SOL    HW191934   7.323   4.680  10.145
96679SOL    HW291935   7.334   4.529  10.140
96680SOL     OW91936   7.049   8.760   1.601
96680SOL    HW191937   7.113   8.789   1.666
96680SOL    HW291938   7.057   8.665   1.599
96681SOL     OW91939   9.701   2.602   2.590
96681SOL    HW191940   9.715   2.696   2.602
96681SOL    HW291941   9.628   2.596   2.528
96682SOL     OW91942   2.283   9.473   0.579
96682SOL    HW191943   2.278   9.537   0.649
96682SOL    HW291944   2.315   9.393   0.621
96683SOL     OW91945  13.023  14.057  11.706
96683SOL    HW191946  13.001  14.139  11.661
96683SOL    HW291947  13.085  14.014  11.648
96684SOL     OW91948   5.523   8.015   7.671
96684SOL    HW191949   5.509   8.104   7.641
96684SOL    HW291950   5.485   7.960   7.603
96685SOL     OW91951   1.580  10.755   6.943
96685SOL    HW191952   1.588  10.826   6.878
96685SOL    HW291953   1.580  10.800   7.027
96686SOL     OW91954   4.725   4.894   5.772
96686SOL    HW191955   4.678   4.977   5.784
96686SOL    HW291956   4.772   4.881   5.854
96687SOL     OW91957   2.067   5.567   7.458
96687SOL    HW191958   2.130   5.496   7.444
96687SOL    HW291959   1.982   5.525   7.457
96688SOL     OW91960   3.538   8.681   7.224
96688SOL    HW191961   3.490   8.603   7.195
96688SOL    HW291962   3.556   8.730   7.143
96689SOL     OW91963   9.808   8.332  11.406
96689SOL    HW191964   9.754   8.360  11.332
96689SOL    HW291965   9.894   8.370  11.388
96690SOL     OW91966   5.014   9.637   1.263
96690SOL    HW191967   4.939   9.691   1.286
96690SOL    HW291968   5.008   9.560   1.319
96691SOL     OW91969   3.138  12.332   4.668
96691SOL    HW191970   3.217  12.361   4.713
96691SOL    HW291971   3.078  12.307   4.738
96692SOL     OW91972  12.211  10.140   2.825
96692SOL    HW191973  12.293  10.101   2.856
96692SOL    HW291974  12.239  10.209   2.764
96693SOL     OW91975   7.863   5.548  13.084
96693SOL    HW191976   7.885   5.538  12.992
96693SOL    HW291977   7.881   5.640  13.103
96694SOL     OW91978   0.288   7.477   5.598
96694SOL    HW191979   0.250   7.399   5.638
96694SOL    HW291980   0.236   7.491   5.519
96695SOL     OW91981  14.491   3.601   8.954
96695SOL    HW191982  14.460   3.663   9.020
96695SOL    HW291983  14.556   3.649   8.904
96696SOL     OW91984   7.390   1.298  13.010
96696SOL    HW191985   7.318   1.350  12.973
96696SOL    HW291986   7.466   1.321  12.957
96697SOL     OW91987   1.838   6.134   0.819
96697SOL    HW191988   1.917   6.090   0.849
96697SOL    HW291989   1.866   6.190   0.747
96698SOL     OW91990  14.027   3.186   4.574
96698SOL    HW191991  13.942   3.208   4.613
96698SOL    HW291992  14.034   3.091   4.584
96699SOL     OW91993   9.904  10.490  14.339
96699SOL    HW191994   9.810  10.498  14.324
96699SOL    HW291995   9.916  10.510  14.431
96700SOL     OW91996   7.055   4.291   8.655
96700SOL    HW191997   7.010   4.312   8.573
96700SOL    HW291998   6.984   4.284   8.719
96701SOL     OW91999   6.152   1.379   9.143
96701SOL    HW192000   6.232   1.424   9.172
96701SOL    HW292001   6.182   1.293   9.115
96702SOL     OW92002   1.068   5.711   6.737
96702SOL    HW192003   1.104   5.800   6.745
96702SOL    HW292004   0.999   5.708   6.803
96703SOL     OW92005  12.924  13.572   8.744
96703SOL    HW192006  12.908  13.542   8.833
96703SOL    HW292007  12.900  13.497   8.689
96704SOL     OW92008  11.515   6.515  13.730
96704SOL    HW192009  11.521   6.420  13.740
96704SOL    HW292010  11.433   6.538  13.774
96705SOL     OW92011  10.027  11.710   6.200
96705SOL    HW192012  10.043  11.696   6.107
96705SOL    HW292013  10.081  11.785   6.224
96706SOL     OW92014   7.352   5.704   7.932
96706SOL    HW192015   7.418   5.732   7.868
96706SOL    HW292016   7.384   5.619   7.964
96707SOL     OW92017   2.740   5.065   4.814
96707SOL    HW192018   2.656   5.105   4.790
96707SOL    HW292019   2.754   4.998   4.748
96708SOL     OW92020   5.685   9.250   1.834
96708SOL    HW192021   5.720   9.168   1.867
96708SOL    HW292022   5.602   9.227   1.793
96709SOL     OW92023  13.751   1.759   1.533
96709SOL    HW192024  13.799   1.813   1.470
96709SOL    HW292025  13.788   1.782   1.618
96710SOL     OW92026  12.563   6.936   5.836
96710SOL    HW192027  12.626   6.974   5.775
96710SOL    HW292028  12.496   7.004   5.845
96711SOL     OW92029   1.222  13.584   8.193
96711SOL    HW192030   1.302  13.539   8.219
96711SOL    HW292031   1.238  13.676   8.214
96712SOL     OW92032   5.260  11.706   4.332
96712SOL    HW192033   5.282  11.620   4.296
96712SOL    HW292034   5.195  11.688   4.400
96713SOL     OW92035   1.860  12.694   4.392
96713SOL    HW192036   1.794  12.756   4.359
96713SOL    HW292037   1.826  12.665   4.477
96714SOL     OW92038   2.982   2.481   7.857
96714SOL    HW192039   3.015   2.392   7.847
96714SOL    HW292040   3.055   2.530   7.895
96715SOL     OW92041  11.222   6.410   4.861
96715SOL    HW192042  11.137   6.445   4.835
96715SOL    HW292043  11.214   6.315   4.851
96716SOL     OW92044  10.378  11.467   0.389
96716SOL    HW192045  10.464  11.448   0.353
96716SOL    HW292046  10.385  11.446   0.482
96717SOL     OW92047   5.555   4.170   3.592
96717SOL    HW192048   5.496   4.244   3.606
96717SOL    HW292049   5.508   4.095   3.628
96718SOL     OW92050   2.344   6.902   7.391
96718SOL    HW192051   2.296   6.826   7.358
96718SOL    HW292052   2.310   6.975   7.339
96719SOL     OW92053   5.437   3.179   5.038
96719SOL    HW192054   5.485   3.098   5.051
96719SOL    HW292055   5.368   3.157   4.975
96720SOL     OW92056   2.613   2.929   3.303
96720SOL    HW192057   2.644   2.914   3.393
96720SOL    HW292058   2.527   2.886   3.300
96721SOL     OW92059   5.084   9.651   7.883
96721SOL    HW192060   5.071   9.745   7.880
96721SOL    HW292061   5.092   9.631   7.976
96722SOL     OW92062   4.234   8.462   9.306
96722SOL    HW192063   4.184   8.480   9.226
96722SOL    HW292064   4.297   8.534   9.312
96723SOL     OW92065  13.266   1.843  12.739
96723SOL    HW192066  13.331   1.895  12.693
96723SOL    HW292067  13.222   1.905  12.797
96724SOL     OW92068  11.861   3.839   7.491
96724SOL    HW192069  11.940   3.877   7.452
96724SOL    HW292070  11.788   3.879   7.443
96725SOL     OW92071  12.146  13.547   7.570
96725SOL    HW192072  12.198  13.626   7.587
96725SOL    HW292073  12.184  13.509   7.491
96726SOL     OW92074   6.860   3.655  13.447
96726SOL    HW192075   6.839   3.610  13.529
96726SOL    HW292076   6.927   3.719  13.471
96727SOL     OW92077   0.126  12.725   8.493
96727SOL    HW192078   0.060  12.706   8.427
96727SOL    HW292079   0.092  12.687   8.574
96728SOL     OW92080   5.620   4.030  10.716
96728SOL    HW192081   5.679   3.955  10.721
96728SOL    HW292082   5.631   4.074  10.800
96729SOL     OW92083  11.111   5.892   2.381
96729SOL    HW192084  11.042   5.827   2.391
96729SOL    HW292085  11.157   5.892   2.465
96730SOL     OW92086  11.498   2.605  12.111
96730SOL    HW192087  11.516   2.515  12.083
96730SOL    HW292088  11.501   2.601  12.207
96731SOL     OW92089  11.781  11.247   2.600
96731SOL    HW192090  11.848  11.283   2.658
96731SOL    HW292091  11.729  11.323   2.573
96732SOL     OW92092   6.991   9.547  10.801
96732SOL    HW192093   7.007   9.516  10.712
96732SOL    HW292094   7.028   9.635  10.803
96733SOL     OW92095   8.293   2.579   8.583
96733SOL    HW192096   8.234   2.513   8.549
96733SOL    HW292097   8.379   2.537   8.583
96734SOL     OW92098   6.224   6.101   5.169
96734SOL    HW192099   6.169   6.165   5.214
96734SOL    HW292100   6.290   6.155   5.125
96735SOL     OW92101  14.402   9.095   6.341
96735SOL    HW192102  14.349   9.110   6.419
96735SOL    HW292103  14.338   9.079   6.271
96736SOL     OW92104   7.498   8.513   5.651
96736SOL    HW192105   7.575   8.517   5.708
96736SOL    HW292106   7.438   8.454   5.696
96737SOL     OW92107  11.025   9.742  12.715
96737SOL    HW192108  11.040   9.737  12.620
96737SOL    HW292109  11.097   9.796  12.747
96738SOL     OW92110   8.151   1.118   7.649
96738SOL    HW192111   8.095   1.041   7.655
96738SOL    HW292112   8.118   1.165   7.573
96739SOL     OW92113   2.056  14.626   9.839
96739SOL    HW192114   1.974  14.667   9.867
96739SOL    HW292115   2.052  14.537   9.872
96740SOL     OW92116   8.101   2.776   2.077
96740SOL    HW192117   8.009   2.754   2.093
96740SOL    HW292118   8.126   2.723   2.001
96741SOL     OW92119   5.262   8.244   6.725
96741SOL    HW192120   5.354   8.265   6.706
96741SOL    HW292121   5.231   8.319   6.776
96742SOL     OW92122  11.108  12.025   5.080
96742SOL    HW192123  11.125  12.107   5.033
96742SOL    HW292124  11.189  11.975   5.071
96743SOL     OW92125   1.466   6.964  14.272
96743SOL    HW192126   1.540   6.938  14.217
96743SOL    HW292127   1.411   7.017  14.216
96744SOL     OW92128   0.002   1.324   3.646
96744SOL    HW192129   0.005   1.409   3.689
96744SOL    HW292130   0.055   1.334   3.567
96745SOL     OW92131   4.227  13.328  12.204
96745SOL    HW192132   4.277  13.253  12.237
96745SOL    HW292133   4.176  13.358  12.279
96746SOL     OW92134  10.664   1.641   5.122
96746SOL    HW192135  10.719   1.563   5.122
96746SOL    HW292136  10.628   1.645   5.034
96747SOL     OW92137  12.381   4.384  12.770
96747SOL    HW192138  12.439   4.460  12.775
96747SOL    HW292139  12.439   4.308  12.783
96748SOL     OW92140  13.092  12.971   6.175
96748SOL    HW192141  13.057  13.060   6.166
96748SOL    HW292142  13.107  12.961   6.269
96749SOL     OW92143  11.965  11.410   6.377
96749SOL    HW192144  11.904  11.407   6.303
96749SOL    HW292145  11.947  11.493   6.420
96750SOL     OW92146   8.578   4.991   9.534
96750SOL    HW192147   8.672   5.008   9.529
96750SOL    HW292148   8.547   5.046   9.605
96751SOL     OW92149  14.550   2.281   4.298
96751SOL    HW192150  14.535   2.273   4.204
96751SOL    HW292151  14.510   2.202   4.335
96752SOL     OW92152   5.168   0.885  10.880
96752SOL    HW192153   5.134   0.966  10.842
96752SOL    HW292154   5.258   0.879  10.846
96753SOL     OW92155  13.497   3.512   5.011
96753SOL    HW192156  13.501   3.597   4.967
96753SOL    HW292157  13.438   3.526   5.085
96754SOL     OW92158  14.542   8.388   7.565
96754SOL    HW192159  14.464   8.443   7.563
96754SOL    HW292160  14.609   8.438   7.519
96755SOL     OW92161   7.992  13.515  13.517
96755SOL    HW192162   7.998  13.605  13.485
96755SOL    HW292163   7.898  13.499  13.527
96756SOL     OW92164   0.663   1.979   6.815
96756SOL    HW192165   0.637   1.912   6.752
96756SOL    HW292166   0.654   2.061   6.767
96757SOL     OW92167   1.260   2.675  11.588
96757SOL    HW192168   1.204   2.744  11.623
96757SOL    HW292169   1.205   2.628  11.526
96758SOL     OW92170   5.320  13.078  10.830
96758SOL    HW192171   5.392  13.115  10.881
96758SOL    HW292172   5.242  13.125  10.861
96759SOL     OW92173  12.887  14.255   9.711
96759SOL    HW192174  12.963  14.197   9.714
96759SOL    HW292175  12.870  14.275   9.803
96760SOL     OW92176   5.153  14.227  12.025
96760SOL    HW192177   5.203  14.261  12.099
96760SOL    HW292178   5.071  14.196  12.064
96761SOL     OW92179  13.083   3.530   5.964
96761SOL    HW192180  13.145   3.590   6.005
96761SOL    HW292181  13.020   3.511   6.033
96762SOL     OW92182   3.890   0.048   8.222
96762SOL    HW192183   3.873   0.129   8.270
96762SOL    HW292184   3.934   0.077   8.142
96763SOL     OW92185   5.139   0.215  14.827
96763SOL    HW192186   5.201   0.154  14.787
96763SOL    HW292187   5.057   0.200  14.779
96764SOL     OW92188  13.035   9.560   0.076
96764SOL    HW192189  12.953   9.579   0.031
96764SOL    HW292190  13.025   9.599   0.163
96765SOL     OW92191   1.195  10.609   9.495
96765SOL    HW192192   1.277  10.599   9.544
96765SOL    HW292193   1.173  10.701   9.503
96766SOL     OW92194   4.798   1.117  12.460
96766SOL    HW192195   4.835   1.187  12.406
96766SOL    HW292196   4.714   1.097  12.419
96767SOL     OW92197  13.161  11.203   4.160
96767SOL    HW192198  13.077  11.190   4.117
96767SOL    HW292199  13.182  11.117   4.197
96768SOL     OW92200   2.638  12.697   0.750
96768SOL    HW192201   2.655  12.716   0.658
96768SOL    HW292202   2.700  12.752   0.798
96769SOL     OW92203   6.423  13.502   2.327
96769SOL    HW192204   6.329  13.494   2.339
96769SOL    HW292205   6.436  13.589   2.290
96770SOL     OW92206   8.678   2.653   1.430
96770SOL    HW192207   8.643   2.741   1.445
96770SOL    HW292208   8.704   2.622   1.517
96771SOL     OW92209   4.203   1.982   7.268
96771SOL    HW192210   4.214   1.894   7.231
96771SOL    HW292211   4.128   2.018   7.220
96772SOL     OW92212   0.390  13.574   3.650
96772SOL    HW192213   0.308  13.550   3.693
96772SOL    HW292214   0.404  13.666   3.673
96773SOL     OW92215  11.058  14.750   0.149
96773SOL    HW192216  11.116  14.826   0.151
96773SOL    HW292217  11.085  14.697   0.224
96774SOL     OW92218   5.866   8.623   7.360
96774SOL    HW192219   5.889   8.565   7.287
96774SOL    HW292220   5.798   8.680   7.323
96775SOL     OW92221   2.405   0.164   7.453
96775SOL    HW192222   2.335   0.208   7.501
96775SOL    HW292223   2.428   0.089   7.508
96776SOL     OW92224   1.634   3.820   3.533
96776SOL    HW192225   1.620   3.731   3.564
96776SOL    HW292226   1.722   3.843   3.562
96777SOL     OW92227   4.131   0.405   4.371
96777SOL    HW192228   4.041   0.383   4.348
96777SOL    HW292229   4.124   0.442   4.460
96778SOL     OW92230   7.143   0.762   9.213
96778SOL    HW192231   7.112   0.826   9.277
96778SOL    HW292232   7.065   0.711   9.191
96779SOL     OW92233   4.245  13.458   2.366
96779SOL    HW192234   4.254  13.480   2.273
96779SOL    HW292235   4.163  13.409   2.371
96780SOL     OW92236  12.115   0.798  10.426
96780SOL    HW192237  12.021   0.798  10.445
96780SOL    HW292238  12.148   0.719  10.468
96781SOL     OW92239  12.372   3.053  11.015
96781SOL    HW192240  12.442   3.001  11.055
96781SOL    HW292241  12.419   3.120  10.964
96782SOL     OW92242   2.261   9.915   3.703
96782SOL    HW192243   2.172   9.913   3.738
96782SOL    HW292244   2.250   9.931   3.610
96783SOL     OW92245   5.456   9.256   0.498
96783SOL    HW192246   5.419   9.197   0.563
96783SOL    HW292247   5.394   9.329   0.493
96784SOL     OW92248  13.466   9.832  11.149
96784SOL    HW192249  13.544   9.884  11.167
96784SOL    HW292250  13.405   9.853  11.220
96785SOL     OW92251  13.304   6.444  10.038
96785SOL    HW192252  13.389   6.406  10.020
96785SOL    HW292253  13.323   6.535  10.063
96786SOL     OW92254   7.389   0.421   4.427
96786SOL    HW192255   7.384   0.513   4.402
96786SOL    HW292256   7.450   0.420   4.502
96787SOL     OW92257   1.087   9.526   4.118
96787SOL    HW192258   1.040   9.609   4.119
96787SOL    HW292259   1.096   9.504   4.025
96788SOL     OW92260   6.280  11.859   8.695
96788SOL    HW192261   6.210  11.896   8.642
96788SOL    HW292262   6.352  11.922   8.687
96789SOL     OW92263   3.895   6.543   2.618
96789SOL    HW192264   3.976   6.533   2.668
96789SOL    HW292265   3.914   6.503   2.533
96790SOL     OW92266   0.712   1.226   0.710
96790SOL    HW192267   0.807   1.230   0.719
96790SOL    HW292268   0.679   1.281   0.781
96791SOL     OW92269   8.573   0.813   7.205
96791SOL    HW192270   8.556   0.792   7.113
96791SOL    HW292271   8.661   0.851   7.205
96792SOL     OW92272   9.178  10.447   5.172
96792SOL    HW192273   9.222  10.490   5.098
96792SOL    HW292274   9.146  10.365   5.136
96793SOL     OW92275  11.277   3.789   0.797
96793SOL    HW192276  11.329   3.711   0.776
96793SOL    HW292277  11.250   3.824   0.713
96794SOL     OW92278   6.355   6.828   6.517
96794SOL    HW192279   6.282   6.786   6.471
96794SOL    HW292280   6.413   6.858   6.448
96795SOL     OW92281   4.763   4.846   1.225
96795SOL    HW192282   4.797   4.852   1.136
96795SOL    HW292283   4.794   4.760   1.256
96796SOL     OW92284  11.448  13.379   2.206
96796SOL    HW192285  11.454  13.464   2.162
96796SOL    HW292286  11.458  13.315   2.136
96797SOL     OW92287  10.495  10.026  12.370
96797SOL    HW192288  10.518   9.945  12.417
96797SOL    HW292289  10.577  10.053  12.329
96798SOL     OW92290   9.052   3.179  13.042
96798SOL    HW192291   9.121   3.229  13.085
96798SOL    HW292292   9.054   3.209  12.951
96799SOL     OW92293   4.932  13.477  11.951
96799SOL    HW192294   4.881  13.545  11.907
96799SOL    HW292295   5.020  13.486  11.916
96800SOL     OW92296   7.436   7.827   2.659
96800SOL    HW192297   7.375   7.862   2.595
96800SOL    HW292298   7.392   7.840   2.743
96801SOL     OW92299   7.223   8.895   5.052
96801SOL    HW192300   7.139   8.849   5.061
96801SOL    HW292301   7.231   8.912   4.959
96802SOL     OW92302   8.722  12.385   7.080
96802SOL    HW192303   8.627  12.398   7.079
96802SOL    HW292304   8.747  12.388   6.988
96803SOL     OW92305   9.310  14.083   8.825
96803SOL    HW192306   9.347  14.171   8.836
96803SOL    HW292307   9.259  14.088   8.745
96804SOL     OW92308   9.396   0.948   2.176
96804SOL    HW192309   9.303   0.970   2.190
96804SOL    HW292310   9.426   1.010   2.111
96805SOL     OW92311   7.383   2.483   9.942
96805SOL    HW192312   7.421   2.529   9.868
96805SOL    HW292313   7.363   2.552  10.006
96806SOL     OW92314   9.756  11.146   4.567
96806SOL    HW192315   9.815  11.136   4.641
96806SOL    HW292316   9.813  11.166   4.493
96807SOL     OW92317  11.166   9.013   6.096
96807SOL    HW192318  11.161   8.918   6.107
96807SOL    HW292319  11.202   9.044   6.179
96808SOL     OW92320   7.059   3.670   5.499
96808SOL    HW192321   7.004   3.669   5.421
96808SOL    HW292322   7.015   3.611   5.561
96809SOL     OW92323   9.902   4.204   5.969
96809SOL    HW192324   9.948   4.164   6.043
96809SOL    HW292325   9.919   4.145   5.896
96810SOL     OW92326  14.126   3.159   0.063
96810SOL    HW192327  14.210   3.113   0.064
96810SOL    HW292328  14.067   3.103   0.114
96811SOL     OW92329   3.640  11.368   3.344
96811SOL    HW192330   3.716  11.415   3.311
96811SOL    HW292331   3.567  11.430   3.333
96812SOL     OW92332   9.489   7.016   3.277
96812SOL    HW192333   9.473   6.999   3.184
96812SOL    HW292334   9.527   7.104   3.279
96813SOL     OW92335   8.835   2.970   5.063
96813SOL    HW192336   8.904   2.969   4.997
96813SOL    HW292337   8.771   2.907   5.031
96814SOL     OW92338   6.889   6.798   4.832
96814SOL    HW192339   6.956   6.827   4.894
96814SOL    HW292340   6.819   6.762   4.886
96815SOL     OW92341  13.707   6.385   5.870
96815SOL    HW192342  13.724   6.294   5.844
96815SOL    HW292343  13.676   6.427   5.790
96816SOL     OW92344   2.580   7.659  10.367
96816SOL    HW192345   2.487   7.664  10.346
96816SOL    HW292346   2.624   7.656  10.282
96817SOL     OW92347  14.809   2.739   1.207
96817SOL    HW192348  14.803   2.834   1.218
96817SOL    HW292349  14.869   2.710   1.275
96818SOL     OW92350  14.641   2.183  14.062
96818SOL    HW192351  14.688   2.101  14.049
96818SOL    HW292352  14.707   2.251  14.048
96819SOL     OW92353   4.394   2.882  14.418
96819SOL    HW192354   4.380   2.962  14.367
96819SOL    HW292355   4.314   2.831  14.407
96820SOL     OW92356   4.826  11.423   1.160
96820SOL    HW192357   4.731  11.430   1.147
96820SOL    HW292358   4.843  11.475   1.238
96821SOL     OW92359  14.773   4.358   3.489
96821SOL    HW192360  14.713   4.283   3.494
96821SOL    HW292361  14.838   4.333   3.424
96822SOL     OW92362   1.218   1.226   9.818
96822SOL    HW192363   1.186   1.240   9.907
96822SOL    HW292364   1.309   1.255   9.819
96823SOL     OW92365   0.555  14.153   3.580
96823SOL    HW192366   0.601  14.211   3.520
96823SOL    HW292367   0.604  14.071   3.577
96824SOL     OW92368  11.450   0.026  14.184
96824SOL    HW192369  11.423  14.820  14.215
96824SOL    HW292370  11.521   0.052  14.242
96825SOL     OW92371  12.936  14.442   3.610
96825SOL    HW192372  12.853  14.420   3.653
96825SOL    HW292373  12.991  14.365   3.624
96826SOL     OW92374   4.522   0.920  14.471
96826SOL    HW192375   4.452   0.955  14.416
96826SOL    HW292376   4.549   0.994  14.525
96827SOL     OW92377   7.907   9.337   9.799
96827SOL    HW192378   7.815   9.313   9.789
96827SOL    HW292379   7.916   9.416   9.746
96828SOL     OW92380   8.422   5.726  13.259
96828SOL    HW192381   8.421   5.777  13.340
96828SOL    HW292382   8.448   5.789  13.191
96829SOL     OW92383   0.869   8.978   5.159
96829SOL    HW192384   0.789   8.932   5.181
96829SOL    HW292385   0.929   8.959   5.231
96830SOL     OW92386   8.166  13.335   2.723
96830SOL    HW192387   8.206  13.364   2.805
96830SOL    HW292388   8.074  13.359   2.732
96831SOL     OW92389  11.814   4.610  14.791
96831SOL    HW192390  11.808   4.695  14.747
96831SOL    HW292391  11.899   4.575  14.764
96832SOL     OW92392  14.606   1.010  10.823
96832SOL    HW192393  14.578   0.950  10.891
96832SOL    HW292394  14.676   0.964  10.777
96833SOL     OW92395  11.862   7.584  12.057
96833SOL    HW192396  11.795   7.576  12.125
96833SOL    HW292397  11.888   7.676  12.059
96834SOL     OW92398   8.064  14.226   5.975
96834SOL    HW192399   7.992  14.173   5.941
96834SOL    HW292400   8.083  14.188   6.061
96835SOL     OW92401  10.350   8.867  11.777
96835SOL    HW192402  10.365   8.789  11.830
96835SOL    HW292403  10.411   8.857  11.703
96836SOL     OW92404   8.350   3.625   8.662
96836SOL    HW192405   8.313   3.703   8.622
96836SOL    HW292406   8.315   3.552   8.610
96837SOL     OW92407   8.982   6.384   3.278
96837SOL    HW192408   8.993   6.330   3.356
96837SOL    HW292409   8.957   6.470   3.312
96838SOL     OW92410   9.645   9.634   3.256
96838SOL    HW192411   9.739   9.642   3.275
96838SOL    HW292412   9.613   9.571   3.321
96839SOL     OW92413  11.013   2.658   8.121
96839SOL    HW192414  11.044   2.727   8.062
96839SOL    HW292415  11.050   2.681   8.206
96840SOL     OW92416   9.329   9.393   0.975
96840SOL    HW192417   9.327   9.453   1.050
96840SOL    HW292418   9.255   9.419   0.922
96841SOL     OW92419  11.795   2.868   6.171
96841SOL    HW192420  11.718   2.916   6.202
96841SOL    HW292421  11.823   2.916   6.093
96842SOL     OW92422   9.016   3.641  11.062
96842SOL    HW192423   8.983   3.730  11.073
96842SOL    HW292424   9.021   3.606  11.151
96843SOL     OW92425   8.447   6.854   6.491
96843SOL    HW192426   8.427   6.785   6.554
96843SOL    HW292427   8.506   6.913   6.537
96844SOL     OW92428  12.704   2.520  13.198
96844SOL    HW192429  12.749   2.585  13.144
96844SOL    HW292430  12.774   2.471  13.240
96845SOL     OW92431   9.556  12.941   6.909
96845SOL    HW192432   9.531  12.916   6.820
96845SOL    HW292433   9.592  13.029   6.901
96846SOL     OW92434  13.659   3.822   0.234
96846SOL    HW192435  13.712   3.766   0.290
96846SOL    HW292436  13.707   3.827   0.152
96847SOL     OW92437   0.809   4.363  10.773
96847SOL    HW192438   0.893   4.407  10.783
96847SOL    HW292439   0.745   4.433  10.766
96848SOL     OW92440  13.361   0.328   6.729
96848SOL    HW192441  13.277   0.375   6.729
96848SOL    HW292442  13.339   0.239   6.704
96849SOL     OW92443   7.508  12.833   6.023
96849SOL    HW192444   7.465  12.793   5.947
96849SOL    HW292445   7.459  12.801   6.098
96850SOL     OW92446   9.303   5.789  10.924
96850SOL    HW192447   9.214   5.788  10.890
96850SOL    HW292448   9.350   5.726  10.870
96851SOL     OW92449  13.594   9.580   3.693
96851SOL    HW192450  13.577   9.488   3.671
96851SOL    HW292451  13.662   9.607   3.632
96852SOL     OW92452   4.956   9.122   3.883
96852SOL    HW192453   4.955   9.044   3.828
96852SOL    HW292454   4.938   9.089   3.971
96853SOL     OW92455  12.989   1.504  11.367
96853SOL    HW192456  12.921   1.479  11.305
96853SOL    HW292457  13.058   1.440  11.355
96854SOL     OW92458  13.526   6.578   0.262
96854SOL    HW192459  13.469   6.573   0.185
96854SOL    HW292460  13.494   6.654   0.311
96855SOL     OW92461   9.647  10.294   6.921
96855SOL    HW192462   9.609  10.209   6.903
96855SOL    HW292463   9.579  10.357   6.898
96856SOL     OW92464   6.495   4.033   1.287
96856SOL    HW192465   6.418   4.023   1.343
96856SOL    HW292466   6.466   4.089   1.215
96857SOL     OW92467  11.548  13.321  11.076
96857SOL    HW192468  11.501  13.264  11.138
96857SOL    HW292469  11.489  13.328  11.001
96858SOL     OW92470   6.504   5.922  10.370
96858SOL    HW192471   6.429   5.875  10.336
96858SOL    HW292472   6.577   5.861  10.361
96859SOL     OW92473  10.903  14.117  13.066
96859SOL    HW192474  10.835  14.053  13.046
96859SOL    HW292475  10.911  14.169  12.986
96860SOL     OW92476   9.370   4.743  11.617
96860SOL    HW192477   9.286   4.784  11.641
96860SOL    HW292478   9.356   4.650  11.633
96861SOL     OW92479  14.143  10.127  12.346
96861SOL    HW192480  14.068  10.068  12.358
96861SOL    HW292481  14.193  10.119  12.427
96862SOL     OW92482   5.246   1.777   1.972
96862SOL    HW192483   5.261   1.769   2.066
96862SOL    HW292484   5.301   1.851   1.945
96863SOL     OW92485   4.223   7.807   3.001
96863SOL    HW192486   4.273   7.732   3.033
96863SOL    HW292487   4.134   7.793   3.035
96864SOL     OW92488  14.014   7.016   1.874
96864SOL    HW192489  13.943   7.002   1.936
96864SOL    HW292490  14.032   6.929   1.838
96865SOL     OW92491   0.623   3.300  14.467
96865SOL    HW192492   0.592   3.345  14.545
96865SOL    HW292493   0.543   3.270  14.423
96866SOL     OW92494  11.033  10.687  13.492
96866SOL    HW192495  11.115  10.722  13.525
96866SOL    HW292496  10.985  10.660  13.570
96867SOL     OW92497   6.571  13.500   8.598
96867SOL    HW192498   6.647  13.540   8.639
96867SOL    HW292499   6.496  13.543   8.639
96868SOL     OW92500  14.326   8.412  11.950
96868SOL    HW192501  14.274   8.394  11.872
96868SOL    HW292502  14.273   8.376  12.022
96869SOL     OW92503   0.575   9.393   8.627
96869SOL    HW192504   0.621   9.341   8.694
96869SOL    HW292505   0.484   9.391   8.654
96870SOL     OW92506   5.271  14.483  11.197
96870SOL    HW192507   5.354  14.531  11.199
96870SOL    HW292508   5.217  14.531  11.134
96871SOL     OW92509   8.773   0.101   1.275
96871SOL    HW192510   8.814   0.058   1.200
96871SOL    HW292511   8.766   0.032   1.341
96872SOL     OW92512  13.002   2.649   8.908
96872SOL    HW192513  13.065   2.672   8.839
96872SOL    HW292514  13.056   2.626   8.983
96873SOL     OW92515   7.597   2.771   9.803
96873SOL    HW192516   7.636   2.708   9.864
96873SOL    HW292517   7.632   2.748   9.718
96874SOL     OW92518  12.677   7.269   3.921
96874SOL    HW192519  12.592   7.270   3.963
96874SOL    HW292520  12.728   7.203   3.969
96875SOL     OW92521   7.791   4.152   9.097
96875SOL    HW192522   7.787   4.072   9.149
96875SOL    HW292523   7.883   4.158   9.070
96876SOL     OW92524  10.218   6.320   4.435
96876SOL    HW192525  10.241   6.263   4.361
96876SOL    HW292526  10.131   6.291   4.462
96877SOL     OW92527  11.110   8.001   6.343
96877SOL    HW192528  11.019   8.031   6.341
96877SOL    HW292529  11.104   7.906   6.338
96878SOL     OW92530   3.511   5.779   7.955
96878SOL    HW192531   3.440   5.823   7.907
96878SOL    HW292532   3.466   5.733   8.026
96879SOL     OW92533  10.526   1.371   3.302
96879SOL    HW192534  10.501   1.397   3.214
96879SOL    HW292535  10.569   1.286   3.291
96880SOL     OW92536   8.266  11.373   4.299
96880SOL    HW192537   8.251  11.459   4.340
96880SOL    HW292538   8.232  11.310   4.363
96881SOL     OW92539   4.168   9.318   7.439
96881SOL    HW192540   4.217   9.388   7.397
96881SOL    HW292541   4.143   9.259   7.367
96882SOL     OW92542  12.776   7.828   5.753
96882SOL    HW192543  12.770   7.853   5.661
96882SOL    HW292544  12.691   7.850   5.790
96883SOL     OW92545   6.871  13.199   4.570
96883SOL    HW192546   6.884  13.266   4.637
96883SOL    HW292547   6.776  13.190   4.562
96884SOL     OW92548  11.320   2.273   3.762
96884SOL    HW192549  11.329   2.192   3.811
96884SOL    HW292550  11.226   2.290   3.761
96885SOL     OW92551   3.733   4.219   3.713
96885SOL    HW192552   3.706   4.128   3.726
96885SOL    HW292553   3.663   4.271   3.753
96886SOL     OW92554   1.593  10.625  10.833
96886SOL    HW192555   1.686  10.649  10.833
96886SOL    HW292556   1.568  10.626  10.741
96887SOL     OW92557   2.295   7.361  14.029
96887SOL    HW192558   2.343   7.424  13.976
96887SOL    HW292559   2.357   7.335  14.097
96888SOL     OW92560   3.705   7.323   8.774
96888SOL    HW192561   3.779   7.267   8.751
96888SOL    HW292562   3.628   7.266   8.769
96889SOL     OW92563  10.498  12.887   3.366
96889SOL    HW192564  10.538  12.916   3.284
96889SOL    HW292565  10.572  12.853   3.417
96890SOL     OW92566   4.586   2.778   7.072
96890SOL    HW192567   4.607   2.810   7.160
96890SOL    HW292568   4.491   2.769   7.071
96891SOL     OW92569  13.416  12.602   5.029
96891SOL    HW192570  13.384  12.675   4.976
96891SOL    HW292571  13.505  12.627   5.053
96892SOL     OW92572   3.127  12.145  11.825
96892SOL    HW192573   3.067  12.107  11.761
96892SOL    HW292574   3.176  12.070  11.859
96893SOL     OW92575   6.564  10.247   0.840
96893SOL    HW192576   6.573  10.280   0.751
96893SOL    HW292577   6.619  10.169   0.842
96894SOL     OW92578   6.378   8.033   0.401
96894SOL    HW192579   6.377   8.129   0.395
96894SOL    HW292580   6.289   8.010   0.430
96895SOL     OW92581   1.170   9.304  10.510
96895SOL    HW192582   1.078   9.326  10.525
96895SOL    HW292583   1.196   9.355  10.434
96896SOL     OW92584   6.436   1.704   2.167
96896SOL    HW192585   6.464   1.765   2.236
96896SOL    HW292586   6.516   1.658   2.142
96897SOL     OW92587  12.325   6.416   5.325
96897SOL    HW192588  12.379   6.465   5.263
96897SOL    HW292589  12.244   6.467   5.332
96898SOL     OW92590  13.121   1.089  13.769
96898SOL    HW192591  13.074   1.144  13.706
96898SOL    HW292592  13.054   1.060  13.830
96899SOL     OW92593   0.175  13.662   8.466
96899SOL    HW192594   0.143  13.664   8.556
96899SOL    HW292595   0.156  13.750   8.432
96900SOL     OW92596   2.517  11.371   9.401
96900SOL    HW192597   2.491  11.302   9.462
96900SOL    HW292598   2.435  11.415   9.379
96901SOL     OW92599   5.542  14.753   4.927
96901SOL    HW192600   5.502  14.808   4.994
96901SOL    HW292601   5.545  14.666   4.966
96902SOL     OW92602   5.613  14.687   0.071
96902SOL    HW192603   5.518  14.681   0.075
96902SOL    HW292604   5.631  14.781   0.076
96903SOL     OW92605  11.371   9.768   0.968
96903SOL    HW192606  11.427   9.721   1.029
96903SOL    HW292607  11.388   9.861   0.984
96904SOL     OW92608  14.363   0.029   3.510
96904SOL    HW192609  14.404  14.862   3.582
96904SOL    HW292610  14.337   0.114   3.548
96905SOL     OW92611   1.433  12.538   5.912
96905SOL    HW192612   1.358  12.488   5.882
96905SOL    HW292613   1.396  12.622   5.940
96906SOL     OW92614   7.957   5.683   9.558
96906SOL    HW192615   7.872   5.723   9.540
96906SOL    HW292616   8.011   5.708   9.483
96907SOL     OW92617  13.216   0.501  14.519
96907SOL    HW192618  13.228   0.595  14.533
96907SOL    HW292619  13.139   0.478  14.572
96908SOL     OW92620   3.451   0.725   8.658
96908SOL    HW192621   3.430   0.748   8.749
96908SOL    HW292622   3.394   0.650   8.639
96909SOL     OW92623   7.842   0.728   6.140
96909SOL    HW192624   7.878   0.721   6.229
96909SOL    HW292625   7.856   0.641   6.102
96910SOL     OW92626   8.311  11.503   5.382
96910SOL    HW192627   8.362  11.433   5.421
96910SOL    HW292628   8.356  11.524   5.300
96911SOL     OW92629   8.355   0.331   3.999
96911SOL    HW192630   8.301   0.278   3.940
96911SOL    HW292631   8.349   0.420   3.964
96912SOL     OW92632  10.588   8.681   6.603
96912SOL    HW192633  10.540   8.616   6.653
96912SOL    HW292634  10.612   8.636   6.521
96913SOL     OW92635   8.231   4.262   0.435
96913SOL    HW192636   8.256   4.341   0.483
96913SOL    HW292637   8.255   4.190   0.493
96914SOL     OW92638   6.563  11.952  12.097
96914SOL    HW192639   6.563  11.862  12.129
96914SOL    HW292640   6.631  11.953  12.029
96915SOL     OW92641   3.249   9.452   6.817
96915SOL    HW192642   3.286   9.391   6.881
96915SOL    HW292643   3.303   9.441   6.739
96916SOL     OW92644  14.847  13.325   1.982
96916SOL    HW192645   0.058  13.346   2.001
96916SOL    HW292646  14.852  13.245   1.929
96917SOL     OW92647  10.709  12.313   9.185
96917SOL    HW192648  10.788  12.368   9.194
96917SOL    HW292649  10.742  12.229   9.152
96918SOL     OW92650  12.219   1.882  10.731
96918SOL    HW192651  12.223   1.788  10.712
96918SOL    HW292652  12.152   1.916  10.672
96919SOL     OW92653   7.382   3.085  12.842
96919SOL    HW192654   7.294   3.047  12.845
96919SOL    HW292655   7.441   3.010  12.839
96920SOL     OW92656   4.038   4.668   3.037
96920SOL    HW192657   4.048   4.633   3.125
96920SOL    HW292658   4.115   4.725   3.025
96921SOL     OW92659  12.094   5.572  14.857
96921SOL    HW192660  12.076   5.510   0.047
96921SOL    HW292661  12.164   5.628   0.012
96922SOL     OW92662  13.562  10.193  10.629
96922SOL    HW192663  13.574  10.275  10.581
96922SOL    HW292664  13.562  10.218  10.721
96923SOL     OW92665   9.766   1.936   5.765
96923SOL    HW192666   9.820   1.950   5.843
96923SOL    HW292667   9.820   1.966   5.692
96924SOL     OW92668   9.386   1.409   3.035
96924SOL    HW192669   9.381   1.499   3.005
96924SOL    HW292670   9.472   1.378   3.005
96925SOL     OW92671   0.143   2.583  10.155
96925SOL    HW192672   0.161   2.492  10.136
96925SOL    HW292673   0.134   2.587  10.250
96926SOL     OW92674  12.434   2.937   6.651
96926SOL    HW192675  12.453   2.852   6.692
96926SOL    HW292676  12.348   2.961   6.684
96927SOL     OW92677   1.256   1.184   2.631
96927SOL    HW192678   1.227   1.274   2.619
96927SOL    HW292679   1.249   1.144   2.544
96928SOL     OW92680   7.839   4.239   2.947
96928SOL    HW192681   7.849   4.327   2.911
96928SOL    HW292682   7.832   4.182   2.871
96929SOL     OW92683  14.177  11.082  10.898
96929SOL    HW192684  14.124  11.079  10.978
96929SOL    HW292685  14.114  11.086  10.827
96930SOL     OW92686   4.651  13.839   0.124
96930SOL    HW192687   4.590  13.907   0.152
96930SOL    HW292688   4.720  13.887   0.078
96931SOL     OW92689   2.139  11.802   1.180
96931SOL    HW192690   2.211  11.807   1.117
96931SOL    HW292691   2.175  11.837   1.261
96932SOL     OW92692  14.609  10.037   6.414
96932SOL    HW192693  14.592   9.993   6.497
96932SOL    HW292694  14.522  10.058   6.380
96933SOL     OW92695  14.178  12.677   4.176
96933SOL    HW192696  14.086  12.695   4.156
96933SOL    HW292697  14.174  12.607   4.241
96934SOL     OW92698   8.995   0.178   5.673
96934SOL    HW192699   8.946   0.249   5.631
96934SOL    HW292700   9.073   0.220   5.709
96935SOL     OW92701   9.223  11.860   6.174
96935SOL    HW192702   9.244  11.768   6.195
96935SOL    HW292703   9.289  11.886   6.110
96936SOL     OW92704  11.486   6.499  12.136
96936SOL    HW192705  11.561   6.455  12.096
96936SOL    HW292706  11.516   6.523  12.223
96937SOL     OW92707   1.417   6.584   6.046
96937SOL    HW192708   1.401   6.505   5.994
96937SOL    HW292709   1.396   6.657   5.987
96938SOL     OW92710  12.071  11.000   6.832
96938SOL    HW192711  11.980  10.987   6.856
96938SOL    HW292712  12.068  11.065   6.761
96939SOL     OW92713   6.600   2.649  11.016
96939SOL    HW192714   6.530   2.682  11.071
96939SOL    HW292715   6.625   2.723  10.961
96940SOL     OW92716  10.529   9.141   5.654
96940SOL    HW192717  10.552   9.063   5.704
96940SOL    HW292718  10.551   9.214   5.711
96941SOL     OW92719   0.061  12.751  10.374
96941SOL    HW192720   0.109  12.754  10.292
96941SOL    HW292721   0.085  12.833  10.418
96942SOL     OW92722  11.642  10.035   8.903
96942SOL    HW192723  11.559  10.003   8.869
96942SOL    HW292724  11.699  10.039   8.827
96943SOL     OW92725   3.325   7.706   0.406
96943SOL    HW192726   3.251   7.763   0.426
96943SOL    HW292727   3.391   7.763   0.368
96944SOL     OW92728   0.574   1.840   5.834
96944SOL    HW192729   0.581   1.876   5.745
96944SOL    HW292730   0.546   1.750   5.821
96945SOL     OW92731  14.182  10.521   0.675
96945SOL    HW192732  14.170  10.616   0.671
96945SOL    HW292733  14.101  10.485   0.638
96946SOL     OW92734   7.629   7.311   0.543
96946SOL    HW192735   7.719   7.281   0.555
96946SOL    HW292736   7.601   7.272   0.461
96947SOL     OW92737  12.607   5.869   0.396
96947SOL    HW192738  12.643   5.830   0.475
96947SOL    HW292739  12.681   5.912   0.354
96948SOL     OW92740  12.981   2.738   7.251
96948SOL    HW192741  13.060   2.687   7.234
96948SOL    HW292742  12.924   2.679   7.301
96949SOL     OW92743   9.991   9.177   9.015
96949SOL    HW192744  10.055   9.137   8.956
96949SOL    HW292745  10.043   9.215   9.085
96950SOL     OW92746  13.535   0.078   8.258
96950SOL    HW192747  13.516   0.007   8.320
96950SOL    HW292748  13.598   0.133   8.304
96951SOL     OW92749  14.580  10.720  12.843
96951SOL    HW192750  14.640  10.764  12.783
96951SOL    HW292751  14.634  10.656  12.889
96952SOL     OW92752  10.858  11.601  12.585
96952SOL    HW192753  10.829  11.674  12.529
96952SOL    HW292754  10.787  11.591  12.648
96953SOL     OW92755   2.803  11.438   7.754
96953SOL    HW192756   2.807  11.514   7.812
96953SOL    HW292757   2.821  11.363   7.810
96954SOL     OW92758   4.447   3.733   9.283
96954SOL    HW192759   4.422   3.817   9.246
96954SOL    HW292760   4.473   3.680   9.208
96955SOL     OW92761   2.777  11.685   2.024
96955SOL    HW192762   2.802  11.630   1.949
96955SOL    HW292763   2.768  11.624   2.097
96956SOL     OW92764  10.638  12.251  11.708
96956SOL    HW192765  10.593  12.202  11.639
96956SOL    HW292766  10.610  12.210  11.789
96957SOL     OW92767  12.356   9.570   6.938
96957SOL    HW192768  12.389   9.617   7.014
96957SOL    HW292769  12.407   9.489   6.936
96958SOL     OW92770   0.490  11.553   6.018
96958SOL    HW192771   0.491  11.642   5.981
96958SOL    HW292772   0.416  11.510   5.975
96959SOL     OW92773   5.350  10.043   2.842
96959SOL    HW192774   5.385  10.089   2.918
96959SOL    HW292775   5.255  10.043   2.856
96960SOL     OW92776   9.418  14.843   7.053
96960SOL    HW192777   9.457  14.788   7.121
96960SOL    HW292778   9.327  14.816   7.050
96961SOL     OW92779   4.814   4.458  14.241
96961SOL    HW192780   4.902   4.492  14.226
96961SOL    HW292781   4.786   4.425  14.156
96962SOL     OW92782   1.744   0.493   5.604
96962SOL    HW192783   1.812   0.525   5.663
96962SOL    HW292784   1.770   0.403   5.584
96963SOL     OW92785   0.833  10.592   9.086
96963SOL    HW192786   0.928  10.579   9.087
96963SOL    HW292787   0.797  10.503   9.088
96964SOL     OW92788   8.468  12.916   2.605
96964SOL    HW192789   8.546  12.959   2.571
96964SOL    HW292790   8.402  12.929   2.537
96965SOL     OW92791  14.542  10.018  12.134
96965SOL    HW192792  14.623  10.069  12.128
96965SOL    HW292793  14.507  10.018  12.045
96966SOL     OW92794   4.637   1.905   5.936
96966SOL    HW192795   4.662   1.817   5.963
96966SOL    HW292796   4.682   1.963   5.997
96967SOL     OW92797   3.890   6.879  11.809
96967SOL    HW192798   3.825   6.817  11.776
96967SOL    HW292799   3.966   6.867  11.752
96968SOL     OW92800   8.154  12.913   8.175
96968SOL    HW192801   8.119  12.974   8.111
96968SOL    HW292802   8.158  12.829   8.129
96969SOL     OW92803   3.239   7.616   7.741
96969SOL    HW192804   3.323   7.589   7.778
96969SOL    HW292805   3.231   7.709   7.764
96970SOL     OW92806   3.941   6.351   1.700
96970SOL    HW192807   3.861   6.356   1.752
96970SOL    HW292808   4.012   6.373   1.761
96971SOL     OW92809  13.353   6.361   9.171
96971SOL    HW192810  13.404   6.379   9.092
96971SOL    HW292811  13.339   6.447   9.210
96972SOL     OW92812   5.887   4.938   0.073
96972SOL    HW192813   5.916   5.018   0.029
96972SOL    HW292814   5.885   4.872   0.003
96973SOL     OW92815  12.086  11.099  14.514
96973SOL    HW192816  12.066  11.150  14.436
96973SOL    HW292817  12.180  11.114  14.529
96974SOL     OW92818   0.786  12.809   4.256
96974SOL    HW192819   0.734  12.829   4.333
96974SOL    HW292820   0.835  12.889   4.239
96975SOL     OW92821   8.420   9.698  14.100
96975SOL    HW192822   8.458   9.613  14.122
96975SOL    HW292823   8.451   9.715  14.011
96976SOL     OW92824   5.598   7.109   4.729
96976SOL    HW192825   5.594   7.164   4.807
96976SOL    HW292826   5.573   7.022   4.760
96977SOL     OW92827   5.139   4.996   4.257
96977SOL    HW192828   5.161   5.005   4.165
96977SOL    HW292829   5.171   4.909   4.281
96978SOL     OW92830   5.500   4.522  14.402
96978SOL    HW192831   5.576   4.472  14.432
96978SOL    HW292832   5.435   4.455  14.378
96979SOL     OW92833  13.188   6.271  11.928
96979SOL    HW192834  13.268   6.235  11.967
96979SOL    HW292835  13.200   6.261  11.834
96980SOL     OW92836   2.700   8.742  11.099
96980SOL    HW192837   2.651   8.722  11.178
96980SOL    HW292838   2.749   8.662  11.080
96981SOL     OW92839   4.268  12.842   3.593
96981SOL    HW192840   4.258  12.794   3.511
96981SOL    HW292841   4.183  12.833   3.637
96982SOL     OW92842  14.233   9.261   6.538
96982SOL    HW192843  14.257   9.353   6.527
96982SOL    HW292844  14.178   9.242   6.463
96983SOL     OW92845  11.323   2.617   3.716
96983SOL    HW192846  11.297   2.536   3.761
96983SOL    HW292847  11.242   2.667   3.708
96984SOL     OW92848   2.710   6.061  10.054
96984SOL    HW192849   2.725   6.139  10.000
96984SOL    HW292850   2.701   6.096  10.143
96985SOL     OW92851   8.305   8.357   1.599
96985SOL    HW192852   8.282   8.449   1.586
96985SOL    HW292853   8.235   8.308   1.556
96986SOL     OW92854  14.218   7.104   6.673
96986SOL    HW192855  14.201   7.128   6.583
96986SOL    HW292856  14.133   7.112   6.717
96987SOL     OW92857  13.243  13.340   6.918
96987SOL    HW192858  13.329  13.382   6.907
96987SOL    HW292859  13.219  13.314   6.829
96988SOL     OW92860  12.839   3.124   0.927
96988SOL    HW192861  12.819   3.186   0.997
96988SOL    HW292862  12.931   3.137   0.908
96989SOL     OW92863   2.866   4.360  12.817
96989SOL    HW192864   2.850   4.374  12.910
96989SOL    HW292865   2.959   4.342  12.810
96990SOL     OW92866  11.187   5.786  13.671
96990SOL    HW192867  11.207   5.711  13.615
96990SOL    HW292868  11.249   5.779  13.744
96991SOL     OW92869  14.589  10.122   2.822
96991SOL    HW192870  14.567  10.193   2.762
96991SOL    HW292871  14.508  10.107   2.871
96992SOL     OW92872   1.263   7.361   1.713
96992SOL    HW192873   1.353   7.333   1.694
96992SOL    HW292874   1.273   7.445   1.757
96993SOL     OW92875   7.752   7.978   5.567
96993SOL    HW192876   7.765   8.067   5.533
96993SOL    HW292877   7.676   7.945   5.518
96994SOL     OW92878   0.538   9.522   1.769
96994SOL    HW192879   0.491   9.496   1.690
96994SOL    HW292880   0.613   9.573   1.736
96995SOL     OW92881   8.993  14.557   0.499
96995SOL    HW192882   8.941  14.636   0.513
96995SOL    HW292883   8.948  14.489   0.548
96996SOL     OW92884   6.651  12.169   2.190
96996SOL    HW192885   6.588  12.124   2.246
96996SOL    HW292886   6.625  12.261   2.194
96997SOL     OW92887   5.127  11.214  10.851
96997SOL    HW192888   5.177  11.250  10.923
96997SOL    HW292889   5.039  11.201  10.887
96998SOL     OW92890   5.664   3.739   9.045
96998SOL    HW192891   5.658   3.643   9.047
96998SOL    HW292892   5.580   3.769   9.078
96999SOL     OW92893  13.054  12.534   5.529
96999SOL    HW192894  13.100  12.550   5.611
96999SOL    HW292895  12.962  12.530   5.553
97000SOL     OW92896  14.381   0.805   1.113
97000SOL    HW192897  14.452   0.783   1.053
97000SOL    HW292898  14.318   0.732   1.104
97001SOL     OW92899   8.995   6.787   8.031
97001SOL    HW192900   9.003   6.871   8.076
97001SOL    HW292901   8.970   6.725   8.100
97002SOL     OW92902   9.609   1.199   2.219
97002SOL    HW192903   9.547   1.162   2.155
97002SOL    HW292904   9.615   1.132   2.287
97003SOL     OW92905   7.390   3.321  11.508
97003SOL    HW192906   7.310   3.336  11.458
97003SOL    HW292907   7.458   3.309  11.441
97004SOL     OW92908   5.606  13.949   8.951
97004SOL    HW192909   5.569  13.869   8.987
97004SOL    HW292910   5.531  13.994   8.912
97005SOL     OW92911  14.606   9.752  14.000
97005SOL    HW192912  14.588   9.782  13.911
97005SOL    HW292913  14.569   9.664  14.004
97006SOL     OW92914   9.033   0.876  11.063
97006SOL    HW192915   9.088   0.951  11.086
97006SOL    HW292916   8.991   0.851  11.146
97007SOL     OW92917  11.894   5.191  14.507
97007SOL    HW192918  11.951   5.235  14.570
97007SOL    HW292919  11.952   5.172  14.433
97008SOL     OW92920   8.953   8.118   0.269
97008SOL    HW192921   8.953   8.204   0.312
97008SOL    HW292922   8.897   8.064   0.325
97009SOL     OW92923  12.213   0.919   5.752
97009SOL    HW192924  12.159   0.853   5.709
97009SOL    HW292925  12.151   0.969   5.805
97010SOL     OW92926  13.942   6.367   9.251
97010SOL    HW192927  13.937   6.413   9.167
97010SOL    HW292928  13.895   6.285   9.236
97011SOL     OW92929   3.828  12.746   7.387
97011SOL    HW192930   3.834  12.667   7.440
97011SOL    HW292931   3.735  12.753   7.365
97012SOL     OW92932   0.604  14.589  10.428
97012SOL    HW192933   0.559  14.506  10.446
97012SOL    HW292934   0.550  14.632  10.363
97013SOL     OW92935   1.131  12.242   0.807
97013SOL    HW192936   1.176  12.177   0.862
97013SOL    HW292937   1.145  12.325   0.852
97014SOL     OW92938   5.002   1.732   4.911
97014SOL    HW192939   4.938   1.734   4.983
97014SOL    HW292940   5.086   1.745   4.955
97015SOL     OW92941   9.580   7.154  11.251
97015SOL    HW192942   9.574   7.103  11.332
97015SOL    HW292943   9.620   7.236  11.277
97016SOL     OW92944   6.950   9.822  13.084
97016SOL    HW192945   6.890   9.805  13.157
97016SOL    HW292946   7.006   9.893  13.115
97017SOL     OW92947  12.822  10.244  11.372
97017SOL    HW192948  12.843  10.184  11.301
97017SOL    HW292949  12.746  10.293  11.341
97018SOL     OW92950   6.891  14.848  10.092
97018SOL    HW192951   6.827  14.780  10.072
97018SOL    HW292952   6.873  14.872  10.183
97019SOL     OW92953  13.226   3.027   8.318
97019SOL    HW192954  13.292   3.090   8.289
97019SOL    HW292955  13.189   2.992   8.237
97020SOL     OW92956  11.245  11.137   1.304
97020SOL    HW192957  11.255  11.067   1.240
97020SOL    HW292958  11.334  11.165   1.323
97021SOL     OW92959   6.563  14.794  13.834
97021SOL    HW192960   6.507  14.733  13.786
97021SOL    HW292961   6.584  14.748  13.915
97022SOL     OW92962   0.474  14.099   2.595
97022SOL    HW192963   0.419  14.044   2.540
97022SOL    HW292964   0.413  14.161   2.636
97023SOL     OW92965   7.281   7.542  14.689
97023SOL    HW192966   7.275   7.536  14.785
97023SOL    HW292967   7.374   7.528  14.670
97024SOL     OW92968  13.878   4.674   8.201
97024SOL    HW192969  13.828   4.698   8.279
97024SOL    HW292970  13.939   4.606   8.230
97025SOL     OW92971   6.321   5.865   5.295
97025SOL    HW192972   6.314   5.952   5.256
97025SOL    HW292973   6.247   5.816   5.260
97026SOL     OW92974   9.418   6.528   1.863
97026SOL    HW192975   9.447   6.471   1.934
97026SOL    HW292976   9.440   6.616   1.892
97027SOL     OW92977   5.461   6.087  10.978
97027SOL    HW192978   5.549   6.121  10.995
97027SOL    HW292979   5.420   6.154  10.923
97028SOL     OW92980  14.599   0.394   6.242
97028SOL    HW192981  14.613   0.475   6.192
97028SOL    HW292982  14.675   0.389   6.301
97029SOL     OW92983   0.705   3.603  14.731
97029SOL    HW192984   0.746   3.569  14.810
97029SOL    HW292985   0.744   3.690  14.719
97030SOL     OW92986   8.299   4.995   0.749
97030SOL    HW192987   8.343   4.913   0.770
97030SOL    HW292988   8.343   5.061   0.803
97031SOL     OW92989   0.933   6.612  14.617
97031SOL    HW192990   1.014   6.649  14.653
97031SOL    HW292991   0.943   6.619  14.522
97032SOL     OW92992   6.301   4.419  12.263
97032SOL    HW192993   6.326   4.471  12.187
97032SOL    HW292994   6.271   4.336  12.226
97033SOL     OW92995  12.436   0.522   9.772
97033SOL    HW192996  12.379   0.578   9.826
97033SOL    HW292997  12.520   0.569   9.770
97034SOL     OW92998   1.442   3.898  12.672
97034SOL    HW192999   1.516   3.852  12.633
97034SOL    HW293000   1.390   3.928  12.598
97035SOL     OW93001  13.103   5.146  13.976
97035SOL    HW193002  13.008   5.146  13.988
97035SOL    HW293003  13.129   5.236  13.998
97036SOL     OW93004   5.149   7.318   1.243
97036SOL    HW193005   5.073   7.285   1.194
97036SOL    HW293006   5.168   7.402   1.203
97037SOL     OW93007   9.876   3.605   4.418
97037SOL    HW193008   9.950   3.666   4.409
97037SOL    HW293009   9.913   3.529   4.464
97038SOL     OW93010  13.047  12.234   3.316
97038SOL    HW193011  13.002  12.192   3.242
97038SOL    HW293012  13.091  12.309   3.277
97039SOL     OW93013   6.043   6.608  11.895
97039SOL    HW193014   6.114   6.640  11.838
97039SOL    HW293015   6.055   6.656  11.977
97040SOL     OW93016  10.277   4.140   0.077
97040SOL    HW193017  10.182   4.146   0.066
97040SOL    HW293018  10.299   4.218   0.128
97041SOL     OW93019   6.861   9.522   5.889
97041SOL    HW193020   6.935   9.569   5.929
97041SOL    HW293021   6.891   9.502   5.800
97042SOL     OW93022   0.063   0.349  10.588
97042SOL    HW193023   0.155   0.345  10.614
97042SOL    HW293024   0.065   0.377  10.497
97043SOL     OW93025   0.408  13.326  12.020
97043SOL    HW193026   0.326  13.368  12.045
97043SOL    HW293027   0.443  13.291  12.102
97044SOL     OW93028   3.283  14.090  12.730
97044SOL    HW193029   3.190  14.072  12.744
97044SOL    HW293030   3.326  14.005  12.739
97045SOL     OW93031  10.284   3.023   5.702
97045SOL    HW193032  10.349   2.964   5.740
97045SOL    HW293033  10.242   2.971   5.634
97046SOL     OW93034   8.236   4.405   4.108
97046SOL    HW193035   8.299   4.352   4.157
97046SOL    HW293036   8.152   4.384   4.148
97047SOL     OW93037   4.814   7.816   2.347
97047SOL    HW193038   4.752   7.862   2.289
97047SOL    HW293039   4.767   7.737   2.374
97048SOL     OW93040  11.687   5.358   9.517
97048SOL    HW193041  11.767   5.361   9.464
97048SOL    HW293042  11.718   5.367   9.607
97049SOL     OW93043   0.840   9.268   5.731
97049SOL    HW193044   0.816   9.299   5.818
97049SOL    HW293045   0.806   9.179   5.726
97050SOL     OW93046  12.945   1.328   1.945
97050SOL    HW193047  12.886   1.273   1.995
97050SOL    HW293048  13.021   1.340   2.003
97051SOL     OW93049  10.941  14.028   2.732
97051SOL    HW193050  10.975  13.978   2.806
97051SOL    HW293051  10.856  14.060   2.761
97052SOL     OW93052  13.117   8.921   2.324
97052SOL    HW193053  13.045   8.858   2.330
97052SOL    HW293054  13.177   8.895   2.395
97053SOL     OW93055   2.514   4.538   9.564
97053SOL    HW193056   2.478   4.524   9.652
97053SOL    HW293057   2.439   4.528   9.506
97054SOL     OW93058   0.812   6.195   3.948
97054SOL    HW193059   0.784   6.287   3.942
97054SOL    HW293060   0.824   6.168   3.857
97055SOL     OW93061  11.472   6.853   1.327
97055SOL    HW193062  11.539   6.917   1.303
97055SOL    HW293063  11.479   6.785   1.260
97056SOL     OW93064  11.529   2.718   7.121
97056SOL    HW193065  11.554   2.762   7.040
97056SOL    HW293066  11.590   2.752   7.187
97057SOL     OW93067   2.348   8.003   2.450
97057SOL    HW193068   2.360   8.024   2.357
97057SOL    HW293069   2.377   7.912   2.458
97058SOL     OW93070   3.577   7.485  11.566
97058SOL    HW193071   3.600   7.421  11.633
97058SOL    HW293072   3.588   7.439  11.483
97059SOL     OW93073   9.802   9.014   2.240
97059SOL    HW193074   9.798   8.920   2.258
97059SOL    HW293075   9.713   9.045   2.256
97060SOL     OW93076  10.849   7.960   0.845
97060SOL    HW193077  10.790   7.977   0.919
97060SOL    HW293078  10.896   8.042   0.831
97061SOL     OW93079   3.447   0.547  11.169
97061SOL    HW193080   3.412   0.495  11.097
97061SOL    HW293081   3.370   0.592  11.205
97062SOL     OW93082   8.078   4.590   5.234
97062SOL    HW193083   8.084   4.629   5.321
97062SOL    HW293084   8.076   4.665   5.174
97063SOL     OW93085  14.573  11.200   1.146
97063SOL    HW193086  14.583  11.283   1.192
97063SOL    HW293087  14.639  11.143   1.183
97064SOL     OW93088   5.102  14.827   3.823
97064SOL    HW193089   5.026  14.864   3.779
97064SOL    HW293090   5.068  14.792   3.906
97065SOL     OW93091   8.972   1.966  14.356
97065SOL    HW193092   9.007   2.055  14.356
97065SOL    HW293093   8.950   1.949  14.448
97066SOL     OW93094   1.546   3.223   5.484
97066SOL    HW193095   1.543   3.127   5.483
97066SOL    HW293096   1.456   3.250   5.466
97067SOL     OW93097   5.915   4.710   1.292
97067SOL    HW193098   5.865   4.791   1.301
97067SOL    HW293099   6.003   4.733   1.321
97068SOL     OW93100   5.849   0.593  13.997
97068SOL    HW193101   5.764   0.594  13.953
97068SOL    HW293102   5.878   0.502  13.990
97069SOL     OW93103   5.499   8.535  14.214
97069SOL    HW193104   5.573   8.483  14.181
97069SOL    HW293105   5.451   8.560  14.135
97070SOL     OW93106  10.888   9.474   5.719
97070SOL    HW193107  10.859   9.425   5.796
97070SOL    HW293108  10.863   9.565   5.737
97071SOL     OW93109   8.143  13.377  10.176
97071SOL    HW193110   8.120  13.417  10.259
97071SOL    HW293111   8.161  13.452  10.118
97072SOL     OW93112   7.460  12.969   3.121
97072SOL    HW193113   7.399  12.989   3.193
97072SOL    HW293114   7.410  12.911   3.064
97073SOL     OW93115   6.889   7.810   7.145
97073SOL    HW193116   6.800   7.833   7.172
97073SOL    HW293117   6.878   7.762   7.063
97074SOL     OW93118   7.529   4.634   8.955
97074SOL    HW193119   7.535   4.692   9.031
97074SOL    HW293120   7.435   4.620   8.943
97075SOL     OW93121   7.232   3.571  13.144
97075SOL    HW193122   7.141   3.541  13.142
97075SOL    HW293123   7.282   3.493  13.169
97076SOL     OW93124   1.250   0.118  11.871
97076SOL    HW193125   1.216   0.195  11.826
97076SOL    HW293126   1.269   0.149  11.960
97077SOL     OW93127   1.098   1.449   1.267
97077SOL    HW193128   1.029   1.435   1.202
97077SOL    HW293129   1.080   1.536   1.302
97078SOL     OW93130   5.947   2.262   7.730
97078SOL    HW193131   5.963   2.172   7.700
97078SOL    HW293132   5.853   2.275   7.719
97079SOL     OW93133   7.287  11.426  10.066
97079SOL    HW193134   7.361  11.370  10.043
97079SOL    HW293135   7.328  11.506  10.099
97080SOL     OW93136   8.797   9.150   0.511
97080SOL    HW193137   8.805   9.186   0.422
97080SOL    HW293138   8.717   9.097   0.508
97081SOL     OW93139   8.216  12.988   1.740
97081SOL    HW193140   8.293  12.953   1.785
97081SOL    HW293141   8.142  12.958   1.792
97082SOL     OW93142   8.125   9.575  13.360
97082SOL    HW193143   8.043   9.611  13.325
97082SOL    HW293144   8.110   9.570  13.454
97083SOL     OW93145  12.242  12.909  11.308
97083SOL    HW193146  12.234  12.969  11.235
97083SOL    HW293147  12.153  12.880  11.326
97084SOL     OW93148   9.290  10.383  12.389
97084SOL    HW193149   9.259  10.473  12.389
97084SOL    HW293150   9.336  10.374  12.473
97085SOL     OW93151   0.239   1.997  13.847
97085SOL    HW193152   0.233   2.088  13.876
97085SOL    HW293153   0.321   1.992  13.798
97086SOL     OW93154   2.897  12.543  14.845
97086SOL    HW193155   2.823  12.587   0.006
97086SOL    HW293156   2.973  12.571   0.017
97087SOL     OW93157   9.252  13.521   8.590
97087SOL    HW193158   9.222  13.612   8.586
97087SOL    HW293159   9.172  13.469   8.582
97088SOL     OW93160   4.254   5.414   3.436
97088SOL    HW193161   4.302   5.488   3.473
97088SOL    HW293162   4.164   5.426   3.466
97089SOL     OW93163  10.391   7.006   2.149
97089SOL    HW193164  10.453   7.033   2.217
97089SOL    HW293165  10.338   6.938   2.191
97090SOL     OW93166   0.833   8.881   2.791
97090SOL    HW193167   0.771   8.812   2.813
97090SOL    HW293168   0.919   8.838   2.792
97091SOL     OW93169   0.331   1.403   2.667
97091SOL    HW193170   0.371   1.326   2.626
97091SOL    HW293171   0.260   1.428   2.608
97092SOL     OW93172  13.268  12.480   9.372
97092SOL    HW193173  13.189  12.533   9.359
97092SOL    HW293174  13.303  12.510   9.456
97093SOL     OW93175  10.235   8.860   0.636
97093SOL    HW193176  10.168   8.806   0.679
97093SOL    HW293177  10.276   8.908   0.707
97094SOL     OW93178  14.306   3.736   3.255
97094SOL    HW193179  14.281   3.752   3.346
97094SOL    HW293180  14.344   3.819   3.226
97095SOL     OW93181   7.935  12.966   9.951
97095SOL    HW193182   8.003  12.917   9.904
97095SOL    HW293183   7.938  13.054   9.914
97096SOL     OW93184   8.116   4.628   2.612
97096SOL    HW193185   8.181   4.677   2.560
97096SOL    HW293186   8.051   4.694   2.636
97097SOL     OW93187   2.010   2.324   5.900
97097SOL    HW193188   1.932   2.379   5.894
97097SOL    HW293189   1.998   2.259   5.831
97098SOL     OW93190   3.180   4.228  10.900
97098SOL    HW193191   3.187   4.271  10.814
97098SOL    HW293192   3.086   4.222  10.916
97099SOL     OW93193   6.185  13.305   9.474
97099SOL    HW193194   6.234  13.322   9.393
97099SOL    HW293195   6.167  13.211   9.471
97100SOL     OW93196   4.215  10.525   8.268
97100SOL    HW193197   4.222  10.605   8.216
97100SOL    HW293198   4.144  10.542   8.330
97101SOL     OW93199   8.228  11.337   8.783
97101SOL    HW193200   8.191  11.396   8.717
97101SOL    HW293201   8.283  11.393   8.838
97102SOL     OW93202  13.522  10.029   3.516
97102SOL    HW193203  13.429  10.044   3.529
97102SOL    HW293204  13.563  10.061   3.596
97103SOL     OW93205   8.740   8.371  13.305
97103SOL    HW193206   8.827   8.341  13.280
97103SOL    HW293207   8.734   8.460  13.269
97104SOL     OW93208   7.476   7.886   6.052
97104SOL    HW193209   7.526   7.874   5.971
97104SOL    HW293210   7.436   7.972   6.042
97105SOL     OW93211  10.768   8.301  12.816
97105SOL    HW193212  10.828   8.356  12.765
97105SOL    HW293213  10.808   8.294  12.902
97106SOL     OW93214   8.193   9.023   1.396
97106SOL    HW193215   8.133   9.019   1.470
97106SOL    HW293216   8.253   9.095   1.417
97107SOL     OW93217  12.028  11.579   3.879
97107SOL    HW193218  12.009  11.512   3.945
97107SOL    HW293219  12.119  11.564   3.855
97108SOL     OW93220   4.494   7.234   4.860
97108SOL    HW193221   4.498   7.207   4.768
97108SOL    HW293222   4.521   7.156   4.909
97109SOL     OW93223  12.144  12.053   6.128
97109SOL    HW193224  12.194  12.011   6.058
97109SOL    HW293225  12.157  11.996   6.204
97110SOL     OW93226   7.485   5.680  10.685
97110SOL    HW193227   7.504   5.623  10.759
97110SOL    HW293228   7.523   5.636  10.610
97111SOL     OW93229  12.563   7.666   1.654
97111SOL    HW193230  12.635   7.723   1.682
97111SOL    HW293231  12.536   7.621   1.734
97112SOL     OW93232   1.742   0.225   2.250
97112SOL    HW193233   1.732   0.297   2.312
97112SOL    HW293234   1.802   0.259   2.184
97113SOL     OW93235  13.842   2.546   3.641
97113SOL    HW193236  13.768   2.487   3.628
97113SOL    HW293237  13.884   2.550   3.555
97114SOL     OW93238   1.318  11.356  14.171
97114SOL    HW193239   1.262  11.422  14.210
97114SOL    HW293240   1.407  11.385  14.192
97115SOL     OW93241  11.539  11.057   4.356
97115SOL    HW193242  11.491  10.976   4.338
97115SOL    HW293243  11.471  11.119   4.383
97116SOL     OW93244  10.380   3.789  10.473
97116SOL    HW193245  10.406   3.779  10.382
97116SOL    HW293246  10.380   3.699  10.508
97117SOL     OW93247   0.085   4.124   7.805
97117SOL    HW193248   0.168   4.145   7.847
97117SOL    HW293249   0.031   4.202   7.817
97118SOL     OW93250  10.569  13.196   3.487
97118SOL    HW193251  10.521  13.249   3.552
97118SOL    HW293252  10.546  13.106   3.508
97119SOL     OW93253  14.595   1.345   1.218
97119SOL    HW193254  14.596   1.322   1.125
97119SOL    HW293255  14.518   1.400   1.229
97120SOL     OW93256   3.756  12.785   1.265
97120SOL    HW193257   3.679  12.841   1.260
97120SOL    HW293258   3.815  12.820   1.197
97121SOL     OW93259  10.750   7.562  10.789
97121SOL    HW193260  10.656   7.579  10.792
97121SOL    HW293261  10.789   7.633  10.840
97122SOL     OW93262  13.137   7.696   1.823
97122SOL    HW193263  13.202   7.668   1.758
97122SOL    HW293264  13.101   7.614   1.857
97123SOL     OW93265   5.654   6.989  13.789
97123SOL    HW193266   5.613   6.904  13.804
97123SOL    HW293267   5.607   7.049  13.846
97124SOL     OW93268   7.766  10.870  14.702
97124SOL    HW193269   7.733  10.798  14.649
97124SOL    HW293270   7.696  10.889  14.763
97125SOL     OW93271  11.402  10.278  14.308
97125SOL    HW193272  11.359  10.208  14.356
97125SOL    HW293273  11.494  10.252  14.303
97126SOL     OW93274   9.920  13.041   5.092
97126SOL    HW193275   9.962  12.990   5.161
97126SOL    HW293276   9.955  13.129   5.103
97127SOL     OW93277   0.560   9.566   2.045
97127SOL    HW193278   0.556   9.545   1.952
97127SOL    HW293279   0.470   9.560   2.075
97128SOL     OW93280   6.779   2.102  13.289
97128SOL    HW193281   6.808   2.193  13.289
97128SOL    HW293282   6.860   2.051  13.302
97129SOL     OW93283   7.145   0.497   1.732
97129SOL    HW193284   7.160   0.461   1.819
97129SOL    HW293285   7.232   0.505   1.693
97130SOL     OW93286   1.738  11.810   9.827
97130SOL    HW193287   1.828  11.831   9.802
97130SOL    HW293288   1.721  11.725   9.785
97131SOL     OW93289   0.248   0.757  11.871
97131SOL    HW193290   0.233   0.740  11.778
97131SOL    HW293291   0.178   0.817  11.896
97132SOL     OW93292   9.001  12.585  14.164
97132SOL    HW193293   8.955  12.668  14.174
97132SOL    HW293294   9.002  12.570  14.069
97133SOL     OW93295  11.153   2.982  12.960
97133SOL    HW193296  11.207   2.948  12.888
97133SOL    HW293297  11.213   2.988  13.034
97134SOL     OW93298  11.303   9.089  10.833
97134SOL    HW193299  11.337   9.002  10.850
97134SOL    HW293300  11.332   9.110  10.744
97135SOL     OW93301   0.830   5.032   1.388
97135SOL    HW193302   0.838   4.937   1.400
97135SOL    HW293303   0.879   5.051   1.308
97136SOL     OW93304   0.534   0.644   5.577
97136SOL    HW193305   0.610   0.701   5.592
97136SOL    HW293306   0.571   0.556   5.569
97137SOL     OW93307  14.659  12.462   1.909
97137SOL    HW193308  14.703  12.525   1.966
97137SOL    HW293309  14.689  12.377   1.939
97138SOL     OW93310   4.498   2.321  12.843
97138SOL    HW193311   4.590   2.328  12.820
97138SOL    HW293312   4.495   2.256  12.912
97139SOL     OW93313   0.656   8.890   0.441
97139SOL    HW193314   0.627   8.812   0.393
97139SOL    HW293315   0.620   8.878   0.529
97140SOL     OW93316   5.198  11.416   1.546
97140SOL    HW193317   5.194  11.395   1.639
97140SOL    HW293318   5.290  11.402   1.522
97141SOL     OW93319   6.924  10.788   5.304
97141SOL    HW193320   6.895  10.811   5.216
97141SOL    HW293321   7.000  10.731   5.290
97142SOL     OW93322  12.437   9.709   4.307
97142SOL    HW193323  12.497   9.735   4.377
97142SOL    HW293324  12.495   9.674   4.238
97143SOL     OW93325   9.223   2.187   1.659
97143SOL    HW193326   9.283   2.129   1.705
97143SOL    HW293327   9.280   2.257   1.625
97144SOL     OW93328   7.048   3.995   1.631
97144SOL    HW193329   6.954   3.997   1.610
97144SOL    HW293330   7.057   3.922   1.692
97145SOL     OW93331   6.086  11.673  14.471
97145SOL    HW193332   6.017  11.607  14.470
97145SOL    HW293333   6.168  11.624  14.460
97146SOL     OW93334   9.701   5.560   2.077
97146SOL    HW193335   9.681   5.466   2.071
97146SOL    HW293336   9.649   5.591   2.151
97147SOL     OW93337   3.688  14.484   9.023
97147SOL    HW193338   3.652  14.447   9.104
97147SOL    HW293339   3.673  14.578   9.031
97148SOL     OW93340  13.102   0.760   8.373
97148SOL    HW193341  13.079   0.737   8.283
97148SOL    HW293342  13.019   0.754   8.421
97149SOL     OW93343   8.597  12.854   9.666
97149SOL    HW193344   8.672  12.804   9.699
97149SOL    HW293345   8.523  12.795   9.676
97150SOL     OW93346   3.143   7.224   1.490
97150SOL    HW193347   3.056   7.184   1.486
97150SOL    HW293348   3.171   7.215   1.581
97151SOL     OW93349  14.252   0.234  10.694
97151SOL    HW193350  14.243   0.275  10.608
97151SOL    HW293351  14.337   0.264  10.726
97152SOL     OW93352   4.022  13.278   2.566
97152SOL    HW193353   4.037  13.266   2.473
97152SOL    HW293354   4.029  13.190   2.604
97153SOL     OW93355  14.788  14.084   4.411
97153SOL    HW193356  14.705  14.036   4.411
97153SOL    HW293357  14.818  14.081   4.320
97154SOL     OW93358   1.315  14.014   5.360
97154SOL    HW193359   1.313  13.982   5.450
97154SOL    HW293360   1.368  14.093   5.363
97155SOL     OW93361  11.649  12.504   8.930
97155SOL    HW193362  11.692  12.574   8.881
97155SOL    HW293363  11.587  12.466   8.868
97156SOL     OW93364  10.563   9.175   2.938
97156SOL    HW193365  10.531   9.129   3.015
97156SOL    HW293366  10.656   9.155   2.935
97157SOL     OW93367   7.578   7.502   3.091
97157SOL    HW193368   7.652   7.548   3.132
97157SOL    HW293369   7.508   7.507   3.155
97158SOL     OW93370   6.241  11.434  13.596
97158SOL    HW193371   6.249  11.507  13.658
97158SOL    HW293372   6.158  11.451  13.551
97159SOL     OW93373   7.877   8.560   7.729
97159SOL    HW193374   7.800   8.580   7.782
97159SOL    HW293375   7.949   8.606   7.773
97160SOL     OW93376   9.791   3.331   8.870
97160SOL    HW193377   9.780   3.367   8.782
97160SOL    HW293378   9.702   3.308   8.897
97161SOL     OW93379   3.586   2.668  14.018
97161SOL    HW193380   3.639   2.745  14.000
97161SOL    HW293381   3.647   2.594  14.011
97162SOL     OW93382   5.264  10.265   8.736
97162SOL    HW193383   5.217  10.203   8.680
97162SOL    HW293384   5.353  10.266   8.702
97163SOL     OW93385  14.217   5.781   2.446
97163SOL    HW193386  14.211   5.692   2.483
97163SOL    HW293387  14.279   5.826   2.503
97164SOL     OW93388   5.513   9.698   2.260
97164SOL    HW193389   5.600   9.677   2.227
97164SOL    HW293390   5.469   9.614   2.267
97165SOL     OW93391   3.255  14.311  12.259
97165SOL    HW193392   3.290  14.240  12.312
97165SOL    HW293393   3.193  14.356  12.316
97166SOL     OW93394  11.285   3.833  11.968
97166SOL    HW193395  11.232   3.755  11.953
97166SOL    HW293396  11.276   3.850  12.062
97167SOL     OW93397   1.070   3.015   8.621
97167SOL    HW193398   1.010   3.058   8.560
97167SOL    HW293399   1.016   2.996   8.698
97168SOL     OW93400  13.178  12.500  10.396
97168SOL    HW193401  13.239  12.452  10.340
97168SOL    HW293402  13.186  12.591  10.366
97169SOL     OW93403   7.909   6.800   0.016
97169SOL    HW193404   7.950   6.885   0.002
97169SOL    HW293405   7.871   6.806   0.103
97170SOL     OW93406  13.387   9.877   8.063
97170SOL    HW193407  13.437   9.883   8.144
97170SOL    HW293408  13.301   9.912   8.085
97171SOL     OW93409   4.608   3.901  13.800
97171SOL    HW193410   4.613   3.807  13.818
97171SOL    HW293411   4.694   3.923  13.764
97172SOL     OW93412   7.473   8.038   4.327
97172SOL    HW193413   7.379   8.022   4.339
97172SOL    HW293414   7.499   8.088   4.405
97173SOL     OW93415   6.231  13.466   7.011
97173SOL    HW193416   6.252  13.442   7.101
97173SOL    HW293417   6.161  13.405   6.986
97174SOL     OW93418   1.778   9.624  11.543
97174SOL    HW193419   1.762   9.595  11.632
97174SOL    HW293420   1.874   9.626  11.536
97175SOL     OW93421   6.201   3.753   7.099
97175SOL    HW193422   6.198   3.810   7.176
97175SOL    HW293423   6.273   3.693   7.117
97176SOL     OW93424  12.227   5.146  14.720
97176SOL    HW193425  12.273   5.065  14.699
97176SOL    HW293426  12.174   5.125  14.796
97177SOL     OW93427  13.325   0.766   4.859
97177SOL    HW193428  13.298   0.846   4.815
97177SOL    HW293429  13.418   0.756   4.837
97178SOL     OW93430  14.462   2.140   5.870
97178SOL    HW193431  14.457   2.045   5.882
97178SOL    HW293432  14.543   2.165   5.914
97179SOL     OW93433   3.893   0.835  12.422
97179SOL    HW193434   3.986   0.814  12.419
97179SOL    HW293435   3.890   0.926  12.452
97180SOL     OW93436   2.950   8.739   0.355
97180SOL    HW193437   2.955   8.690   0.437
97180SOL    HW293438   2.867   8.711   0.315
97181SOL     OW93439   0.466   6.659   8.145
97181SOL    HW193440   0.475   6.723   8.215
97181SOL    HW293441   0.552   6.656   8.103
97182SOL     OW93442   4.315   5.614  13.613
97182SOL    HW193443   4.222   5.632  13.601
97182SOL    HW293444   4.323   5.519  13.601
97183SOL     OW93445   7.676  13.270   6.992
97183SOL    HW193446   7.622  13.219   7.053
97183SOL    HW293447   7.644  13.359   7.001
97184SOL     OW93448   6.167  13.037   4.775
97184SOL    HW193449   6.208  12.983   4.843
97184SOL    HW293450   6.103  13.090   4.822
97185SOL     OW93451  13.731   4.404   4.729
97185SOL    HW193452  13.685   4.475   4.683
97185SOL    HW293453  13.703   4.412   4.820
97186SOL     OW93454  10.031   3.199   5.746
97186SOL    HW193455  10.061   3.113   5.717
97186SOL    HW293456   9.980   3.181   5.825
97187SOL     OW93457   0.392  10.578   0.527
97187SOL    HW193458   0.393  10.642   0.456
97187SOL    HW293459   0.300  10.550   0.532
97188SOL     OW93460  14.316   5.369   0.657
97188SOL    HW193461  14.267   5.420   0.593
97188SOL    HW293462  14.277   5.281   0.654
97189SOL     OW93463   0.123   0.337  11.866
97189SOL    HW193464   0.091   0.418  11.905
97189SOL    HW293465   0.207   0.321  11.909
97190SOL     OW93466  12.041   2.841  12.193
97190SOL    HW193467  11.976   2.890  12.142
97190SOL    HW293468  11.998   2.757  12.212
97191SOL     OW93469  12.059   1.797  10.487
97191SOL    HW193470  12.049   1.858  10.414
97191SOL    HW293471  12.136   1.745  10.465
97192SOL     OW93472  14.703   8.204  12.595
97192SOL    HW193473  14.772   8.142  12.618
97192SOL    HW293474  14.744   8.290  12.608
97193SOL     OW93475   9.950  13.632   0.997
97193SOL    HW193476  10.034  13.593   1.020
97193SOL    HW293477   9.903  13.639   1.080
97194SOL     OW93478   4.269   9.728   4.676
97194SOL    HW193479   4.361   9.756   4.681
97194SOL    HW293480   4.251   9.689   4.761
97195SOL     OW93481   7.365   9.763   1.120
97195SOL    HW193482   7.271   9.748   1.116
97195SOL    HW293483   7.403   9.679   1.093
97196SOL     OW93484  14.238   5.904   3.423
97196SOL    HW193485  14.200   5.950   3.348
97196SOL    HW293486  14.241   5.970   3.492
97197SOL     OW93487   9.552   9.116   7.517
97197SOL    HW193488   9.645   9.095   7.506
97197SOL    HW293489   9.507   9.040   7.479
97198SOL     OW93490   2.804   4.208   8.173
97198SOL    HW193491   2.729   4.265   8.189
97198SOL    HW293492   2.880   4.265   8.183
97199SOL     OW93493   6.729   1.417   7.150
97199SOL    HW193494   6.699   1.470   7.224
97199SOL    HW293495   6.667   1.436   7.080
97200SOL     OW93496   6.344   7.043   8.981
97200SOL    HW193497   6.281   7.087   9.038
97200SOL    HW293498   6.355   7.102   8.907
97201SOL     OW93499   8.297  14.132   0.782
97201SOL    HW193500   8.301  14.047   0.738
97201SOL    HW293501   8.376  14.134   0.837
97202SOL     OW93502   7.659   1.308  11.575
97202SOL    HW193503   7.669   1.399  11.603
97202SOL    HW293504   7.579   1.308  11.523
97203SOL     OW93505   9.467   6.643   5.100
97203SOL    HW193506   9.526   6.568   5.100
97203SOL    HW293507   9.431   6.644   5.189
97204SOL     OW93508  10.200   7.170   3.275
97204SOL    HW193509  10.114   7.138   3.249
97204SOL    HW293510  10.233   7.103   3.335
97205SOL     OW93511   8.472   0.732   4.883
97205SOL    HW193512   8.512   0.762   4.801
97205SOL    HW293513   8.545   0.729   4.945
97206SOL     OW93514  10.506  10.545   0.869
97206SOL    HW193515  10.475  10.473   0.925
97206SOL    HW293516  10.531  10.502   0.787
97207SOL     OW93517  14.525   5.600   4.565
97207SOL    HW193518  14.577   5.660   4.511
97207SOL    HW293519  14.444   5.648   4.581
97208SOL     OW93520   1.020  10.850   9.460
97208SOL    HW193521   0.986  10.878   9.375
97208SOL    HW293522   0.969  10.901   9.523
97209SOL     OW93523   4.963  13.186  12.778
97209SOL    HW193524   4.974  13.226  12.863
97209SOL    HW293525   4.917  13.252  12.725
97210SOL     OW93526   2.275   5.511   6.089
97210SOL    HW193527   2.360   5.544   6.119
97210SOL    HW293528   2.284   5.505   5.994
97211SOL     OW93529   2.757   7.388  14.570
97211SOL    HW193530   2.737   7.316  14.629
97211SOL    HW293531   2.743   7.467  14.623
97212SOL     OW93532   5.437   2.930   2.732
97212SOL    HW193533   5.447   3.021   2.704
97212SOL    HW293534   5.526   2.897   2.739
97213SOL     OW93535  14.033   5.720   1.426
97213SOL    HW193536  14.049   5.688   1.515
97213SOL    HW293537  14.112   5.697   1.377
97214SOL     OW93538   8.794   7.228   1.831
97214SOL    HW193539   8.750   7.309   1.857
97214SOL    HW293540   8.873   7.257   1.785
97215SOL     OW93541   2.337  11.678   1.366
97215SOL    HW193542   2.297  11.616   1.426
97215SOL    HW293543   2.300  11.763   1.390
97216SOL     OW93544  10.150   7.486   8.970
97216SOL    HW193545  10.063   7.448   8.982
97216SOL    HW293546  10.209   7.411   8.981
97217SOL     OW93547  14.172   6.508   0.220
97217SOL    HW193548  14.199   6.416   0.211
97217SOL    HW293549  14.191   6.546   0.134
97218SOL     OW93550  10.375  10.284  11.356
97218SOL    HW193551  10.392  10.378  11.357
97218SOL    HW293552  10.322  10.268  11.434
97219SOL     OW93553  11.119   2.440   7.974
97219SOL    HW193554  11.106   2.430   7.880
97219SOL    HW293555  11.068   2.518   7.998
97220SOL     OW93556  10.697   8.116   5.542
97220SOL    HW193557  10.748   8.098   5.621
97220SOL    HW293558  10.717   8.207   5.521
97221SOL     OW93559  14.315  11.097  11.530
97221SOL    HW193560  14.282  11.146  11.455
97221SOL    HW293561  14.240  11.092  11.591
97222SOL     OW93562   9.345   5.437  14.759
97222SOL    HW193563   9.293   5.498  14.707
97222SOL    HW293564   9.339   5.354  14.711
97223SOL     OW93565  12.672   8.105  11.499
97223SOL    HW193566  12.711   8.128  11.415
97223SOL    HW293567  12.746   8.093  11.558
97224SOL     OW93568   2.641  13.233   3.489
97224SOL    HW193569   2.716  13.226   3.548
97224SOL    HW293570   2.591  13.153   3.505
97225SOL     OW93571   8.145   3.467   3.724
97225SOL    HW193572   8.078   3.441   3.787
97225SOL    HW293573   8.194   3.537   3.768
97226SOL     OW93574   6.185   8.860   6.748
97226SOL    HW193575   6.101   8.820   6.774
97226SOL    HW293576   6.237   8.786   6.717
97227SOL     OW93577  10.192   1.639  12.922
97227SOL    HW193578  10.212   1.560  12.972
97227SOL    HW293579  10.249   1.706  12.959
97228SOL     OW93580  14.152  10.059   4.322
97228SOL    HW193581  14.197   9.979   4.295
97228SOL    HW293582  14.096  10.032   4.394
97229SOL     OW93583  11.795   7.543   0.981
97229SOL    HW193584  11.793   7.619   0.923
97229SOL    HW293585  11.773   7.469   0.924
97230SOL     OW93586   4.249   0.074   6.419
97230SOL    HW193587   4.309   0.074   6.494
97230SOL    HW293588   4.280   0.146   6.364
97231SOL     OW93589  12.478   5.284   6.482
97231SOL    HW193590  12.550   5.348   6.478
97231SOL    HW293591  12.510   5.216   6.541
97232SOL     OW93592   3.045   8.299   0.989
97232SOL    HW193593   3.122   8.337   1.029
97232SOL    HW293594   3.046   8.332   0.899
97233SOL     OW93595   0.752   5.673   3.239
97233SOL    HW193596   0.720   5.639   3.322
97233SOL    HW293597   0.841   5.639   3.232
97234SOL     OW93598   4.591  14.702   5.508
97234SOL    HW193599   4.552  14.631   5.558
97234SOL    HW293600   4.685  14.696   5.527
97235SOL     OW93601   1.381   7.629   3.899
97235SOL    HW193602   1.459   7.617   3.954
97235SOL    HW293603   1.363   7.542   3.864
97236SOL     OW93604   9.794   2.071  13.759
97236SOL    HW193605   9.760   1.999  13.813
97236SOL    HW293606   9.806   2.032  13.672
97237SOL     OW93607   9.130   6.359  11.938
97237SOL    HW193608   9.223   6.351  11.917
97237SOL    HW293609   9.088   6.290  11.888
97238SOL     OW93610   8.800   2.333   5.514
97238SOL    HW193611   8.707   2.310   5.514
97238SOL    HW293612   8.846   2.250   5.524
97239SOL     OW93613  14.066  14.083   8.142
97239SOL    HW193614  14.082  14.151   8.207
97239SOL    HW293615  14.090  14.124   8.059
97240SOL     OW93616   5.754   6.554   1.008
97240SOL    HW193617   5.698   6.611   0.956
97240SOL    HW293618   5.702   6.474   1.020
97241SOL     OW93619   2.673  14.486  14.449
97241SOL    HW193620   2.754  14.483  14.500
97241SOL    HW293621   2.676  14.571  14.404
97242SOL     OW93622   9.222   4.041   6.230
97242SOL    HW193623   9.308   4.013   6.200
97242SOL    HW293624   9.191   3.968   6.284
97243SOL     OW93625   6.613   0.207   9.467
97243SOL    HW193626   6.585   0.296   9.486
97243SOL    HW293627   6.625   0.166   9.552
97244SOL     OW93628  10.514   7.637  12.301
97244SOL    HW193629  10.574   7.696  12.256
97244SOL    HW293630  10.571   7.574  12.345
97245SOL     OW93631   0.749   1.517  10.152
97245SOL    HW193632   0.791   1.601  10.166
97245SOL    HW293633   0.757   1.500  10.058
97246SOL     OW93634   9.704  10.739  14.302
97246SOL    HW193635   9.643  10.694  14.244
97246SOL    HW293636   9.656  10.815  14.334
97247SOL     OW93637   6.198   5.738   5.034
97247SOL    HW193638   6.157   5.670   5.088
97247SOL    HW293639   6.194   5.704   4.945
97248SOL     OW93640   0.325   5.095   6.164
97248SOL    HW193641   0.401   5.154   6.162
97248SOL    HW293642   0.346   5.027   6.100
97249SOL     OW93643   5.292   7.407   8.743
97249SOL    HW193644   5.290   7.330   8.685
97249SOL    HW293645   5.300   7.481   8.683
97250SOL     OW93646   6.335  14.416  11.638
97250SOL    HW193647   6.415  14.369  11.613
97250SOL    HW293648   6.332  14.409  11.733
97251SOL     OW93649  10.712   1.593  10.655
97251SOL    HW193650  10.631   1.629  10.617
97251SOL    HW293651  10.757   1.670  10.691
97252SOL     OW93652   1.508   0.054   6.701
97252SOL    HW193653   1.510   0.132   6.645
97252SOL    HW293654   1.436   0.071   6.763
97253SOL     OW93655   6.527  12.039   3.457
97253SOL    HW193656   6.538  12.132   3.437
97253SOL    HW293657   6.573  11.994   3.386
97254SOL     OW93658   8.412  13.864  11.276
97254SOL    HW193659   8.505  13.888  11.285
97254SOL    HW293660   8.369  13.945  11.249
97255SOL     OW93661   7.825   6.663   1.712
97255SOL    HW193662   7.875   6.606   1.770
97255SOL    HW293663   7.734   6.634   1.722
97256SOL     OW93664  11.287   8.552   4.850
97256SOL    HW193665  11.376   8.569   4.882
97256SOL    HW293666  11.272   8.460   4.868
97257SOL     OW93667  12.586  14.049   0.023
97257SOL    HW193668  12.530  14.052  14.825
97257SOL    HW293669  12.541  14.105   0.086
97258SOL     OW93670   3.585   1.148   8.188
97258SOL    HW193671   3.518   1.083   8.209
97258SOL    HW293672   3.643   1.104   8.127
97259SOL     OW93673  11.514   1.453   2.647
97259SOL    HW193674  11.590   1.455   2.589
97259SOL    HW293675  11.465   1.375   2.620
97260SOL     OW93676   7.520   5.230   9.104
97260SOL    HW193677   7.611   5.206   9.086
97260SOL    HW293678   7.492   5.278   9.026
97261SOL     OW93679   3.884   8.773   9.408
97261SOL    HW193680   3.924   8.800   9.325
97261SOL    HW293681   3.933   8.695   9.434
97262SOL     OW93682   4.922   0.098   2.006
97262SOL    HW193683   4.870   0.159   2.058
97262SOL    HW293684   4.882   0.100   1.919
97263SOL     OW93685  13.550   4.196  10.815
97263SOL    HW193686  13.546   4.241  10.900
97263SOL    HW293687  13.575   4.106  10.837
97264SOL     OW93688  11.520  14.401   1.918
97264SOL    HW193689  11.432  14.436   1.935
97264SOL    HW293690  11.517  14.312   1.954
97265SOL     OW93691   1.547   5.218   3.907
97265SOL    HW193692   1.585   5.302   3.880
97265SOL    HW293693   1.615   5.154   3.888
97266SOL     OW93694  12.177   4.047   4.948
97266SOL    HW193695  12.237   3.996   5.002
97266SOL    HW293696  12.114   3.983   4.914
97267SOL     OW93697   9.926   8.405   7.777
97267SOL    HW193698   9.913   8.417   7.683
97267SOL    HW293699  10.014   8.366   7.784
97268SOL     OW93700   3.004  13.914   6.244
97268SOL    HW193701   3.039  14.002   6.255
97268SOL    HW293702   2.925  13.926   6.191
97269SOL     OW93703   8.745  11.114   7.338
97269SOL    HW193704   8.833  11.115   7.375
97269SOL    HW293705   8.720  11.021   7.337
97270SOL     OW93706   9.042   6.475  10.503
97270SOL    HW193707   9.062   6.384  10.527
97270SOL    HW293708   8.960   6.468  10.453
97271SOL     OW93709   7.166  11.090  13.450
97271SOL    HW193710   7.152  11.099  13.545
97271SOL    HW293711   7.199  11.001  13.440
97272SOL     OW93712   4.654   8.074   3.411
97272SOL    HW193713   4.727   8.135   3.415
97272SOL    HW293714   4.668   8.015   3.486
97273SOL     OW93715  10.322   0.078  10.592
97273SOL    HW193716  10.385   0.011  10.617
97273SOL    HW293717  10.349   0.156  10.640
97274SOL     OW93718   6.156   6.726   7.597
97274SOL    HW193719   6.163   6.674   7.677
97274SOL    HW293720   6.236   6.707   7.548
97275SOL     OW93721  13.757   9.648   3.489
97275SOL    HW193722  13.707   9.684   3.416
97275SOL    HW293723  13.825   9.713   3.506
97276SOL     OW93724  10.822  10.072   8.886
97276SOL    HW193725  10.857   9.986   8.864
97276SOL    HW293726  10.759  10.055   8.956
97277SOL     OW93727  12.901  10.471   9.070
97277SOL    HW193728  12.857  10.453   9.153
97277SOL    HW293729  12.869  10.404   9.010
97278SOL     OW93730   4.021   2.251  14.832
97278SOL    HW193731   4.097   2.269  14.777
97278SOL    HW293732   4.046   2.175   0.005
97279SOL     OW93733   8.008   5.100   9.174
97279SOL    HW193734   8.005   5.020   9.122
97279SOL    HW293735   8.062   5.160   9.122
97280SOL     OW93736  10.555   4.812   2.244
97280SOL    HW193737  10.624   4.746   2.244
97280SOL    HW293738  10.597   4.891   2.278
97281SOL     OW93739   7.161   3.129  14.460
97281SOL    HW193740   7.084   3.157  14.510
97281SOL    HW293741   7.154   3.178  14.378
97282SOL     OW93742   7.815   0.124   5.346
97282SOL    HW193743   7.808   0.055   5.280
97282SOL    HW293744   7.814   0.078   5.429
97283SOL     OW93745   3.461   9.165  12.875
97283SOL    HW193746   3.530   9.168  12.809
97283SOL    HW293747   3.507   9.168  12.959
97284SOL     OW93748   1.241  13.835   3.382
97284SOL    HW193749   1.281  13.885   3.310
97284SOL    HW293750   1.314  13.814   3.440
97285SOL     OW93751  13.811   6.648   6.729
97285SOL    HW193752  13.868   6.626   6.655
97285SOL    HW293753  13.825   6.742   6.742
97286SOL     OW93754   1.157  11.560   6.157
97286SOL    HW193755   1.167  11.573   6.062
97286SOL    HW293756   1.063  11.548   6.169
97287SOL     OW93757  12.896   0.216  10.027
97287SOL    HW193758  12.871   0.258   9.945
97287SOL    HW293759  12.983   0.180  10.010
97288SOL     OW93760   1.806  13.179  10.419
97288SOL    HW193761   1.806  13.198  10.513
97288SOL    HW293762   1.859  13.100  10.411
97289SOL     OW93763   1.099  14.443   8.085
97289SOL    HW193764   1.118  14.498   8.161
97289SOL    HW293765   1.156  14.367   8.095
97290SOL     OW93766   3.279   6.554   3.333
97290SOL    HW193767   3.226   6.572   3.410
97290SOL    HW293768   3.216   6.526   3.266
97291SOL     OW93769   6.927   8.542   7.814
97291SOL    HW193770   6.911   8.449   7.829
97291SOL    HW293771   6.944   8.549   7.720
97292SOL     OW93772  12.752   6.323   9.113
97292SOL    HW193773  12.710   6.377   9.047
97292SOL    HW293774  12.845   6.341   9.105
97293SOL     OW93775   1.065   0.340   3.983
97293SOL    HW193776   1.119   0.412   3.952
97293SOL    HW293777   1.023   0.305   3.905
97294SOL     OW93778  12.091   3.943   3.486
97294SOL    HW193779  12.178   3.968   3.515
97294SOL    HW293780  12.031   4.001   3.534
97295SOL     OW93781  10.360   0.409  10.551
97295SOL    HW193782  10.420   0.357  10.604
97295SOL    HW293783  10.416   0.471  10.505
97296SOL     OW93784  12.278  11.357   7.817
97296SOL    HW193785  12.341  11.344   7.747
97296SOL    HW293786  12.328  11.401   7.886
97297SOL     OW93787  10.629   1.250   0.309
97297SOL    HW193788  10.706   1.302   0.331
97297SOL    HW293789  10.663   1.164   0.284
97298SOL     OW93790   9.329   4.720  11.197
97298SOL    HW193791   9.403   4.661  11.177
97298SOL    HW293792   9.371   4.802  11.223
97299SOL     OW93793   6.542   4.966   2.621
97299SOL    HW193794   6.565   4.924   2.538
97299SOL    HW293795   6.569   4.904   2.688
97300SOL     OW93796   4.057   7.383   6.013
97300SOL    HW193797   3.973   7.384   6.058
97300SOL    HW293798   4.040   7.338   5.930
97301SOL     OW93799   3.337   5.706   3.823
97301SOL    HW193800   3.267   5.712   3.759
97301SOL    HW293801   3.417   5.723   3.773
97302SOL     OW93802   6.969  13.375  13.002
97302SOL    HW193803   6.972  13.445  12.937
97302SOL    HW293804   6.892  13.396  13.055
97303SOL     OW93805   9.865  14.327  14.033
97303SOL    HW193806   9.909  14.346  14.115
97303SOL    HW293807   9.829  14.410  14.004
97304SOL     OW93808   7.802  13.313  11.978
97304SOL    HW193809   7.822  13.222  12.000
97304SOL    HW293810   7.708  13.314  11.963
97305SOL     OW93811   4.703   7.636   0.977
97305SOL    HW193812   4.632   7.640   0.914
97305SOL    HW293813   4.735   7.546   0.972
97306SOL     OW93814   8.650   0.126  11.155
97306SOL    HW193815   8.727   0.108  11.209
97306SOL    HW293816   8.581   0.072  11.194
97307SOL     OW93817   5.062   3.450  12.477
97307SOL    HW193818   5.117   3.483  12.406
97307SOL    HW293819   5.122   3.440  12.551
97308SOL     OW93820   7.634   5.371  10.264
97308SOL    HW193821   7.676   5.429  10.201
97308SOL    HW293822   7.540   5.381  10.247
97309SOL     OW93823   7.690  11.109   0.794
97309SOL    HW193824   7.664  11.102   0.886
97309SOL    HW293825   7.611  11.139   0.749
97310SOL     OW93826  10.038   8.455   5.697
97310SOL    HW193827   9.973   8.402   5.743
97310SOL    HW293828  10.082   8.505   5.765
97311SOL     OW93829  13.026  13.204   8.340
97311SOL    HW193830  13.068  13.159   8.413
97311SOL    HW293831  12.935  13.176   8.344
97312SOL     OW93832   9.811  13.327   9.576
97312SOL    HW193833   9.800  13.295   9.486
97312SOL    HW293834   9.721  13.341   9.607
97313SOL     OW93835   3.975   5.126   9.053
97313SOL    HW193836   3.949   5.208   9.011
97313SOL    HW293837   4.003   5.152   9.141
97314SOL     OW93838   6.991   7.803  13.456
97314SOL    HW193839   7.020   7.874  13.512
97314SOL    HW293840   7.064   7.790  13.395
97315SOL     OW93841   2.212   8.715   2.978
97315SOL    HW193842   2.230   8.678   2.891
97315SOL    HW293843   2.290   8.766   2.999
97316SOL     OW93844   5.237  11.895   8.622
97316SOL    HW193845   5.330  11.891   8.643
97316SOL    HW293846   5.195  11.847   8.693
97317SOL     OW93847  12.346  11.414  11.237
97317SOL    HW193848  12.441  11.405  11.236
97317SOL    HW293849  12.317  11.372  11.157
97318SOL     OW93850   9.746   6.449   2.605
97318SOL    HW193851   9.698   6.388   2.548
97318SOL    HW293852   9.800   6.501   2.545
97319SOL     OW93853   4.333  14.027  14.098
97319SOL    HW193854   4.285  14.057  14.020
97319SOL    HW293855   4.407  13.977  14.063
97320SOL     OW93856   7.674  14.715  12.471
97320SOL    HW193857   7.635  14.655  12.407
97320SOL    HW293858   7.611  14.787  12.478
97321SOL     OW93859   4.707   4.136   0.956
97321SOL    HW193860   4.644   4.079   0.913
97321SOL    HW293861   4.792   4.108   0.922
97322SOL     OW93862   6.175  12.266  11.871
97322SOL    HW193863   6.203  12.299  11.786
97322SOL    HW293864   6.114  12.195  11.851
97323SOL     OW93865  12.211  10.371   1.465
97323SOL    HW193866  12.163  10.412   1.537
97323SOL    HW293867  12.175  10.413   1.386
97324SOL     OW93868  11.586   7.010   3.062
97324SOL    HW193869  11.560   6.979   3.148
97324SOL    HW293870  11.625   7.096   3.078
97325SOL     OW93871   4.895   0.945   7.956
97325SOL    HW193872   4.813   0.929   8.004
97325SOL    HW293873   4.878   0.911   7.869
97326SOL     OW93874  14.850   9.902  14.771
97326SOL    HW193875  14.829   9.996  14.776
97326SOL    HW293876  14.844   9.871  14.861
97327SOL     OW93877  10.658   5.574   8.538
97327SOL    HW193878  10.597   5.505   8.565
97327SOL    HW293879  10.727   5.572   8.604
97328SOL     OW93880  11.971   5.727  13.724
97328SOL    HW193881  11.890   5.730  13.775
97328SOL    HW293882  11.950   5.670  13.650
97329SOL     OW93883  10.499   4.128  13.009
97329SOL    HW193884  10.495   4.216  12.972
97329SOL    HW293885  10.555   4.137  13.086
97330SOL     OW93886   1.328   4.356  11.378
97330SOL    HW193887   1.411   4.313  11.400
97330SOL    HW293888   1.264   4.285  11.377
97331SOL     OW93889   9.059   4.727   7.358
97331SOL    HW193890   9.120   4.704   7.287
97331SOL    HW293891   8.974   4.734   7.315
97332SOL     OW93892  10.129   3.828   0.711
97332SOL    HW193893  10.112   3.880   0.632
97332SOL    HW293894  10.105   3.885   0.784
97333SOL     OW93895   5.956  10.119   7.784
97333SOL    HW193896   5.948  10.179   7.858
97333SOL    HW293897   5.922  10.036   7.816
97334SOL     OW93898   3.332  13.172   5.135
97334SOL    HW193899   3.244  13.177   5.171
97334SOL    HW293900   3.386  13.221   5.198
97335SOL     OW93901   7.064   7.449   9.357
97335SOL    HW193902   7.087   7.356   9.354
97335SOL    HW293903   6.993   7.455   9.420
97336SOL     OW93904   4.849  14.319   8.691
97336SOL    HW193905   4.846  14.413   8.674
97336SOL    HW293906   4.767  14.300   8.735
97337SOL     OW93907  10.506   3.024   0.910
97337SOL    HW193908  10.507   3.116   0.883
97337SOL    HW293909  10.483   2.976   0.830
97338SOL     OW93910   7.401  10.888   2.815
97338SOL    HW193911   7.321  10.856   2.857
97338SOL    HW293912   7.382  10.979   2.792
97339SOL     OW93913   2.220   3.693   8.235
97339SOL    HW193914   2.277   3.731   8.302
97339SOL    HW293915   2.148   3.654   8.285
97340SOL     OW93916   2.576  13.970  11.514
97340SOL    HW193917   2.566  14.032  11.442
97340SOL    HW293918   2.541  13.888  11.480
97341SOL     OW93919   5.200  13.009   2.719
97341SOL    HW193920   5.187  12.919   2.750
97341SOL    HW293921   5.291  13.012   2.691
97342SOL     OW93922   8.642   7.201   8.189
97342SOL    HW193923   8.708   7.196   8.120
97342SOL    HW293924   8.576   7.136   8.164
97343SOL     OW93925  13.528  10.272   5.679
97343SOL    HW193926  13.564  10.344   5.730
97343SOL    HW293927  13.436  10.293   5.667
97344SOL     OW93928  14.472   5.540   4.911
97344SOL    HW193929  14.479   5.459   4.860
97344SOL    HW293930  14.388   5.532   4.957
97345SOL     OW93931  12.399   3.359   2.994
97345SOL    HW193932  12.311   3.334   2.966
97345SOL    HW293933  12.419   3.437   2.943
97346SOL     OW93934   9.960   5.110   5.199
97346SOL    HW193935   9.987   5.061   5.121
97346SOL    HW293936   9.905   5.181   5.165
97347SOL     OW93937   8.726   6.555  13.295
97347SOL    HW193938   8.785   6.602  13.236
97347SOL    HW293939   8.781   6.489  13.336
97348SOL     OW93940   2.180   2.840  13.231
97348SOL    HW193941   2.182   2.865  13.323
97348SOL    HW293942   2.222   2.754  13.229
97349SOL     OW93943   0.506  10.334   5.577
97349SOL    HW193944   0.411  10.333   5.570
97349SOL    HW293945   0.536  10.280   5.503
97350SOL     OW93946  12.644   8.388  11.784
97350SOL    HW193947  12.617   8.408  11.874
97350SOL    HW293948  12.598   8.453  11.731
97351SOL     OW93949   8.571   3.481   1.728
97351SOL    HW193950   8.598   3.421   1.658
97351SOL    HW293951   8.650   3.494   1.780
97352SOL     OW93952   1.198   1.332  11.905
97352SOL    HW193953   1.276   1.325  11.851
97352SOL    HW293954   1.128   1.295  11.850
97353SOL     OW93955   7.071   4.154   9.818
97353SOL    HW193956   7.073   4.102   9.899
97353SOL    HW293957   7.124   4.104   9.756
97354SOL     OW93958   6.122   2.292  11.222
97354SOL    HW193959   6.055   2.228  11.243
97354SOL    HW293960   6.204   2.243  11.225
97355SOL     OW93961   7.143   9.566   4.315
97355SOL    HW193962   7.179   9.573   4.226
97355SOL    HW293963   7.213   9.597   4.372
97356SOL     OW93964   6.637   4.659   1.749
97356SOL    HW193965   6.559   4.604   1.736
97356SOL    HW293966   6.684   4.653   1.666
97357SOL     OW93967  13.147   5.818   0.794
97357SOL    HW193968  13.130   5.862   0.711
97357SOL    HW293969  13.148   5.889   0.859
97358SOL     OW93970   4.636   9.263   0.323
97358SOL    HW193971   4.732   9.269   0.324
97358SOL    HW293972   4.617   9.197   0.257
97359SOL     OW93973  14.793   5.274  14.323
97359SOL    HW193974  14.781   5.365  14.296
97359SOL    HW293975  14.743   5.267  14.405
97360SOL     OW93976  10.791   5.414  10.251
97360SOL    HW193977  10.759   5.443  10.336
97360SOL    HW293978  10.878   5.378  10.269
97361SOL     OW93979  10.016   4.553   2.880
97361SOL    HW193980  10.017   4.575   2.787
97361SOL    HW293981  10.077   4.479   2.888
97362SOL     OW93982   2.570   2.214   7.728
97362SOL    HW193983   2.511   2.149   7.765
97362SOL    HW293984   2.634   2.164   7.677
97363SOL     OW93985  12.079   5.428   2.321
97363SOL    HW193986  12.008   5.464   2.374
97363SOL    HW293987  12.047   5.342   2.293
97364SOL     OW93988   3.826   6.694   1.655
97364SOL    HW193989   3.831   6.610   1.610
97364SOL    HW293990   3.805   6.757   1.585
97365SOL     OW93991  11.310   1.185   6.006
97365SOL    HW193992  11.348   1.097   6.005
97365SOL    HW293993  11.341   1.224   6.087
97366SOL     OW93994   7.241  11.309  11.597
97366SOL    HW193995   7.332  11.316  11.626
97366SOL    HW293996   7.244  11.250  11.522
97367SOL     OW93997   0.672  14.077  13.231
97367SOL    HW193998   0.670  14.046  13.321
97367SOL    HW293999   0.675  14.172  13.239
97368SOL     OW94000   8.128   5.172   1.938
97368SOL    HW194001   8.064   5.220   1.991
97368SOL    HW294002   8.154   5.235   1.870
97369SOL     OW94003   4.101   4.651   9.880
97369SOL    HW194004   4.080   4.651   9.974
97369SOL    HW294005   4.041   4.588   9.842
97370SOL     OW94006  14.164   2.363   2.026
97370SOL    HW194007  14.253   2.359   2.062
97370SOL    HW294008  14.109   2.327   2.095
97371SOL     OW94009   8.320   1.058   6.220
97371SOL    HW194010   8.286   1.007   6.294
97371SOL    HW294011   8.243   1.102   6.184
97372SOL     OW94012   9.672   8.426   0.512
97372SOL    HW194013   9.704   8.509   0.546
97372SOL    HW294014   9.614   8.450   0.440
97373SOL     OW94015  13.007   3.026  11.120
97373SOL    HW194016  13.061   3.024  11.199
97373SOL    HW294017  12.956   2.945  11.124
97374SOL     OW94018   6.425   5.179   3.282
97374SOL    HW194019   6.392   5.266   3.257
97374SOL    HW294020   6.486   5.197   3.354
97375SOL     OW94021   8.327   0.648  11.648
97375SOL    HW194022   8.422   0.640  11.643
97375SOL    HW294023   8.299   0.577  11.705
97376SOL     OW94024  14.330   3.641  14.448
97376SOL    HW194025  14.268   3.711  14.469
97376SOL    HW294026  14.291   3.596  14.373
97377SOL     OW94027  10.213   2.311   9.442
97377SOL    HW194028  10.131   2.355   9.464
97377SOL    HW294029  10.276   2.383   9.430
97378SOL     OW94030   5.918   2.343  10.833
97378SOL    HW194031   5.843   2.366  10.778
97378SOL    HW294032   5.973   2.422  10.831
97379SOL     OW94033  11.828  10.210   5.226
97379SOL    HW194034  11.870  10.272   5.285
97379SOL    HW294035  11.782  10.149   5.284
97380SOL     OW94036  14.050   5.366   9.073
97380SOL    HW194037  14.048   5.357   8.977
97380SOL    HW294038  14.137   5.336   9.098
97381SOL     OW94039   6.224  11.250   7.946
97381SOL    HW194040   6.261  11.338   7.957
97381SOL    HW294041   6.207  11.243   7.852
97382SOL     OW94042  14.226   6.012  12.145
97382SOL    HW194043  14.268   5.966  12.072
97382SOL    HW294044  14.159   6.066  12.104
97383SOL     OW94045   6.851   3.761   7.355
97383SOL    HW194046   6.864   3.732   7.446
97383SOL    HW294047   6.868   3.683   7.302
97384SOL     OW94048   1.225   8.899   6.290
97384SOL    HW194049   1.250   8.851   6.212
97384SOL    HW294050   1.130   8.909   6.283
97385SOL     OW94051   0.810   0.339  10.932
97385SOL    HW194052   0.812   0.415  10.990
97385SOL    HW294053   0.889   0.289  10.954
97386SOL     OW94054   7.636  13.048   4.850
97386SOL    HW194055   7.626  12.957   4.822
97386SOL    HW294056   7.558  13.066   4.902
97387SOL     OW94057   6.946   2.511   2.602
97387SOL    HW194058   6.853   2.489   2.596
97387SOL    HW294059   6.989   2.429   2.623
97388SOL     OW94060  10.571  13.842   4.107
97388SOL    HW194061  10.513  13.834   4.031
97388SOL    HW294062  10.613  13.927   4.096
97389SOL     OW94063   8.357   1.913   8.765
97389SOL    HW194064   8.316   1.994   8.796
97389SOL    HW294065   8.428   1.943   8.708
97390SOL     OW94066   7.552   5.302   7.939
97390SOL    HW194067   7.551   5.333   7.848
97390SOL    HW294068   7.478   5.347   7.980
97391SOL     OW94069  13.987   8.653  11.486
97391SOL    HW194070  13.928   8.588  11.522
97391SOL    HW294071  14.074   8.616  11.499
97392SOL     OW94072   3.430  10.875   2.989
97392SOL    HW194073   3.524  10.887   3.004
97392SOL    HW294074   3.413  10.784   3.015
97393SOL     OW94075   3.345  10.490  13.039
97393SOL    HW194076   3.359  10.456  12.951
97393SOL    HW294077   3.420  10.547  13.055
97394SOL     OW94078   9.617  12.271   8.713
97394SOL    HW194079   9.600  12.182   8.745
97394SOL    HW294080   9.531  12.307   8.693
97395SOL     OW94081  13.063  11.971   7.029
97395SOL    HW194082  13.059  11.891   7.082
97395SOL    HW294083  13.006  12.033   7.075
97396SOL     OW94084  11.815   9.443   9.852
97396SOL    HW194085  11.847   9.362   9.812
97396SOL    HW294086  11.796   9.418   9.943
97397SOL     OW94087   5.034   5.416   6.569
97397SOL    HW194088   4.993   5.403   6.655
97397SOL    HW294089   5.062   5.508   6.570
97398SOL     OW94090   8.262   8.952   7.193
97398SOL    HW194091   8.227   8.888   7.255
97398SOL    HW294092   8.357   8.943   7.200
97399SOL     OW94093   5.301  14.863   6.465
97399SOL    HW194094   5.378  14.809   6.446
97399SOL    HW294095   5.269  14.830   6.549
97400SOL     OW94096   3.337   6.959  13.014
97400SOL    HW194097   3.370   6.892  12.954
97400SOL    HW294098   3.364   6.929  13.100
97401SOL     OW94099  11.889   9.459   9.414
97401SOL    HW194100  11.812   9.406   9.393
97401SOL    HW294101  11.953   9.397   9.447
97402SOL     OW94102   7.616  11.093  13.953
97402SOL    HW194103   7.620  11.022  14.016
97402SOL    HW294104   7.664  11.060  13.877
97403SOL     OW94105   9.541   9.312  12.045
97403SOL    HW194106   9.541   9.407  12.031
97403SOL    HW294107   9.575   9.300  12.133
97404SOL     OW94108   2.176  11.794   2.752
97404SOL    HW194109   2.148  11.812   2.663
97404SOL    HW294110   2.241  11.724   2.744
97405SOL     OW94111   9.928   9.960  13.055
97405SOL    HW194112   9.989   9.897  13.092
97405SOL    HW294113   9.982  10.010  12.993
97406SOL     OW94114   3.941   1.949  11.223
97406SOL    HW194115   3.863   1.961  11.278
97406SOL    HW294116   3.907   1.946  11.134
97407SOL     OW94117  12.614   1.271  11.446
97407SOL    HW194118  12.558   1.325  11.502
97407SOL    HW294119  12.670   1.333  11.400
97408SOL     OW94120   0.697  12.923   3.131
97408SOL    HW194121   0.640  12.997   3.153
97408SOL    HW294122   0.676  12.856   3.196
97409SOL     OW94123  12.233   1.246   2.472
97409SOL    HW194124  12.242   1.338   2.496
97409SOL    HW294125  12.192   1.206   2.549
97410SOL     OW94126   0.930  12.460   6.949
97410SOL    HW194127   0.916  12.375   6.991
97410SOL    HW294128   0.842  12.498   6.944
97411SOL     OW94129   6.788  12.771   3.095
97411SOL    HW194130   6.838  12.748   3.017
97411SOL    HW294131   6.831  12.849   3.130
97412SOL     OW94132   8.335  11.864   2.792
97412SOL    HW194133   8.407  11.909   2.836
97412SOL    HW294134   8.374  11.782   2.760
97413SOL     OW94135   8.205   6.241  14.327
97413SOL    HW194136   8.192   6.233  14.421
97413SOL    HW294137   8.294   6.273  14.318
97414SOL     OW94138   5.268   1.657  12.918
97414SOL    HW194139   5.203   1.657  12.988
97414SOL    HW294140   5.233   1.595  12.854
97415SOL     OW94141  14.314  12.634   2.219
97415SOL    HW194142  14.371  12.682   2.159
97415SOL    HW294143  14.275  12.565   2.166
97416SOL     OW94144   8.264   4.984   4.539
97416SOL    HW194145   8.204   4.910   4.544
97416SOL    HW294146   8.232   5.045   4.606
97417SOL     OW94147   6.339   8.325   0.460
97417SOL    HW194148   6.253   8.360   0.486
97417SOL    HW294149   6.370   8.386   0.393
97418SOL     OW94150  12.713  11.689  13.795
97418SOL    HW194151  12.689  11.761  13.738
97418SOL    HW294152  12.807  11.678  13.782
97419SOL     OW94153   9.159  10.591   2.779
97419SOL    HW194154   9.107  10.530   2.830
97419SOL    HW294155   9.247  10.555   2.781
97420SOL     OW94156   2.739  11.898   8.593
97420SOL    HW194157   2.754  11.992   8.583
97420SOL    HW294158   2.762  11.879   8.684
97421SOL     OW94159   0.724   6.874   4.546
97421SOL    HW194160   0.710   6.968   4.537
97421SOL    HW294161   0.657   6.835   4.489
97422SOL     OW94162   2.090   8.753   0.357
97422SOL    HW194163   2.134   8.744   0.273
97422SOL    HW294164   2.025   8.822   0.343
97423SOL     OW94165   3.614   9.481   0.073
97423SOL    HW194166   3.522   9.456   0.076
97423SOL    HW294167   3.635   9.507   0.162
97424SOL     OW94168  11.833   2.270   1.450
97424SOL    HW194169  11.779   2.237   1.378
97424SOL    HW294170  11.807   2.219   1.526
97425SOL     OW94171  14.331   3.322  12.434
97425SOL    HW194172  14.236   3.308  12.434
97425SOL    HW294173  14.342   3.412  12.465
97426SOL     OW94174   6.594   4.876   4.480
97426SOL    HW194175   6.665   4.861   4.543
97426SOL    HW294176   6.551   4.791   4.471
97427SOL     OW94177  14.814   5.644  13.602
97427SOL    HW194178  14.823   5.667  13.509
97427SOL    HW294179  14.864   5.563  13.612
97428SOL     OW94180  10.638   1.835  10.046
97428SOL    HW194181  10.683   1.864   9.967
97428SOL    HW294182  10.599   1.751  10.023
97429SOL     OW94183  12.003  12.634   2.441
97429SOL    HW194184  11.947  12.557   2.430
97429SOL    HW294185  12.022  12.663   2.352
97430SOL     OW94186   4.461   9.451  11.787
97430SOL    HW194187   4.403   9.388  11.744
97430SOL    HW294188   4.413   9.533  11.784
97431SOL     OW94189   9.840  12.462   3.381
97431SOL    HW194190   9.935  12.453   3.381
97431SOL    HW294191   9.822  12.528   3.448
97432SOL     OW94192   3.542   4.277   8.751
97432SOL    HW194193   3.470   4.329   8.787
97432SOL    HW294194   3.604   4.267   8.823
97433SOL     OW94195   4.552   2.265   9.417
97433SOL    HW194196   4.571   2.358   9.427
97433SOL    HW294197   4.634   2.221   9.442
97434SOL     OW94198   2.874   2.000  13.942
97434SOL    HW194199   2.946   1.941  13.921
97434SOL    HW294200   2.915   2.086  13.953
97435SOL     OW94201  11.975   3.407   4.929
97435SOL    HW194202  11.903   3.395   4.868
97435SOL    HW294203  11.965   3.497   4.960
97436SOL     OW94204  10.200  14.849   2.505
97436SOL    HW194205  10.146  14.803   2.441
97436SOL    HW294206  10.222   0.051   2.463
97437SOL     OW94207  13.816   7.902   3.269
97437SOL    HW194208  13.813   7.938   3.358
97437SOL    HW294209  13.727   7.871   3.254
97438SOL     OW94210   8.718  13.589   7.536
97438SOL    HW194211   8.769  13.539   7.473
97438SOL    HW294212   8.776  13.599   7.612
97439SOL     OW94213   8.018  10.654   4.503
97439SOL    HW194214   7.949  10.713   4.533
97439SOL    HW294215   7.972  10.579   4.467
97440SOL     OW94216   3.212   5.854   2.247
97440SOL    HW194217   3.206   5.919   2.177
97440SOL    HW294218   3.275   5.790   2.214
97441SOL     OW94219   1.960   6.539  13.161
97441SOL    HW194220   2.052   6.517  13.148
97441SOL    HW294221   1.922   6.459  13.197
97442SOL     OW94222   6.504   4.753  13.730
97442SOL    HW194223   6.449   4.831  13.722
97442SOL    HW294224   6.547   4.745  13.645
97443SOL     OW94225   0.970   4.552   7.226
97443SOL    HW194226   0.983   4.646   7.236
97443SOL    HW294227   0.977   4.517   7.314
97444SOL     OW94228   9.014  10.760   1.757
97444SOL    HW194229   9.072  10.696   1.717
97444SOL    HW294230   8.972  10.713   1.829
97445SOL     OW94231   0.579  13.937   9.419
97445SOL    HW194232   0.567  14.031   9.431
97445SOL    HW294233   0.528  13.897   9.489
97446SOL     OW94234   2.040   7.927  13.481
97446SOL    HW194235   1.964   7.918  13.539
97446SOL    HW294236   2.071   8.016  13.496
97447SOL     OW94237   6.734   6.379  13.052
97447SOL    HW194238   6.683   6.301  13.075
97447SOL    HW294239   6.668   6.443  13.024
97448SOL     OW94240  12.796   8.096  14.789
97448SOL    HW194241  12.807   8.013  14.836
97448SOL    HW294242  12.754   8.154  14.852
97449SOL     OW94243  13.245  11.975  11.133
97449SOL    HW194244  13.168  12.015  11.174
97449SOL    HW294245  13.245  11.885  11.166
97450SOL     OW94246  10.702   8.736   0.437
97450SOL    HW194247  10.643   8.698   0.502
97450SOL    HW294248  10.647   8.751   0.360
97451SOL     OW94249   4.517   3.920   8.320
97451SOL    HW194250   4.486   3.885   8.404
97451SOL    HW294251   4.497   4.014   8.324
97452SOL     OW94252   3.379   1.357   2.521
97452SOL    HW194253   3.314   1.381   2.587
97452SOL    HW294254   3.435   1.434   2.513
97453SOL     OW94255   1.714  14.638   7.318
97453SOL    HW194256   1.684  14.555   7.281
97453SOL    HW294257   1.634  14.682   7.347
97454SOL     OW94258   7.230  14.084   2.751
97454SOL    HW194259   7.221  14.085   2.847
97454SOL    HW294260   7.258  14.173   2.730
97455SOL     OW94261   4.698  10.053   9.918
97455SOL    HW194262   4.627  10.018   9.971
97455SOL    HW294263   4.686  10.013   9.832
97456SOL     OW94264  11.286   9.774   6.961
97456SOL    HW194265  11.262   9.688   6.996
97456SOL    HW294266  11.371   9.760   6.919
97457SOL     OW94267  13.654   1.986  12.842
97457SOL    HW194268  13.655   1.890  12.850
97457SOL    HW294269  13.677   2.017  12.930
97458SOL     OW94270  14.756  10.170  12.160
97458SOL    HW194271  14.692  10.238  12.181
97458SOL    HW294272  14.797  10.149  12.244
97459SOL     OW94273   3.608   4.708   9.088
97459SOL    HW194274   3.658   4.629   9.068
97459SOL    HW294275   3.671   4.779   9.075
97460SOL     OW94276   4.456  14.594  11.604
97460SOL    HW194277   4.401  14.621  11.678
97460SOL    HW294278   4.535  14.559  11.644
97461SOL     OW94279   4.344   0.755   6.264
97461SOL    HW194280   4.346   0.785   6.355
97461SOL    HW294281   4.396   0.819   6.216
97462SOL     OW94282  12.032  13.041   6.933
97462SOL    HW194283  11.997  13.068   7.018
97462SOL    HW294284  12.119  13.007   6.953
97463SOL     OW94285   5.513   0.368  14.026
97463SOL    HW194286   5.477   0.400  14.108
97463SOL    HW294287   5.437   0.333  13.979
97464SOL     OW94288   5.653  10.261  14.079
97464SOL    HW194289   5.662  10.356  14.068
97464SOL    HW294290   5.609  10.251  14.163
97465SOL     OW94291  11.211  13.525  14.465
97465SOL    HW194292  11.264  13.602  14.443
97465SOL    HW294293  11.245  13.495  14.549
97466SOL     OW94294   2.129  10.182   5.193
97466SOL    HW194295   2.065  10.152   5.259
97466SOL    HW294296   2.141  10.106   5.137
97467SOL     OW94297   8.033   7.645   3.985
97467SOL    HW194298   7.966   7.710   4.007
97467SOL    HW294299   8.103   7.696   3.944
97468SOL     OW94300   1.429   3.584   7.890
97468SOL    HW194301   1.401   3.597   7.799
97468SOL    HW294302   1.355   3.613   7.943
97469SOL     OW94303  13.292   6.101   5.821
97469SOL    HW194304  13.215   6.113   5.765
97469SOL    HW294305  13.366   6.105   5.761
97470SOL     OW94306   4.372   0.790   5.876
97470SOL    HW194307   4.367   0.785   5.781
97470SOL    HW294308   4.334   0.708   5.907
97471SOL     OW94309   8.720   8.483   8.093
97471SOL    HW194310   8.656   8.430   8.045
97471SOL    HW294311   8.740   8.431   8.171
97472SOL     OW94312   4.248   1.792  13.237
97472SOL    HW194313   4.215   1.766  13.151
97472SOL    HW294314   4.259   1.887  13.232
97473SOL     OW94315   1.801  13.451  11.825
97473SOL    HW194316   1.826  13.386  11.760
97473SOL    HW294317   1.738  13.406  11.881
97474SOL     OW94318  14.710   6.239   8.463
97474SOL    HW194319  14.664   6.234   8.380
97474SOL    HW294320  14.733   6.331   8.473
97475SOL     OW94321  10.881   6.308   3.180
97475SOL    HW194322  10.906   6.276   3.093
97475SOL    HW294323  10.914   6.398   3.183
97476SOL     OW94324   5.953  10.912   0.899
97476SOL    HW194325   6.021  10.892   0.963
97476SOL    HW294326   5.974  10.859   0.823
97477SOL     OW94327   0.026   6.991   2.926
97477SOL    HW194328   0.018   6.896   2.921
97477SOL    HW294329  14.818   7.022   2.950
97478SOL     OW94330   2.380  10.230   6.271
97478SOL    HW194331   2.421  10.235   6.357
97478SOL    HW294332   2.440  10.278   6.213
97479SOL     OW94333   7.300   0.498  13.450
97479SOL    HW194334   7.249   0.550  13.388
97479SOL    HW294335   7.305   0.411  13.411
97480SOL     OW94336  14.635   6.433   8.751
97480SOL    HW194337  14.614   6.459   8.840
97480SOL    HW294338  14.730   6.421   8.751
97481SOL     OW94339   1.855  10.866  14.215
97481SOL    HW194340   1.823  10.812  14.287
97481SOL    HW294341   1.870  10.952  14.254
97482SOL     OW94342  11.924   7.891   3.327
97482SOL    HW194343  12.013   7.926   3.334
97482SOL    HW294344  11.906   7.852   3.413
97483SOL     OW94345   2.587   5.847   2.245
97483SOL    HW194346   2.653   5.812   2.305
97483SOL    HW294347   2.623   5.831   2.157
97484SOL     OW94348   1.871  13.087   9.441
97484SOL    HW194349   1.919  13.166   9.466
97484SOL    HW294350   1.919  13.015   9.482
97485SOL     OW94351   6.763  12.189   1.053
97485SOL    HW194352   6.767  12.094   1.048
97485SOL    HW294353   6.706  12.215   0.981
97486SOL     OW94354  10.504  14.295   5.085
97486SOL    HW194355  10.417  14.309   5.123
97486SOL    HW294356  10.489  14.289   4.991
97487SOL     OW94357  10.069   1.961   3.790
97487SOL    HW194358   9.988   1.924   3.824
97487SOL    HW294359  10.101   1.896   3.727
97488SOL     OW94360  13.770   9.643   6.992
97488SOL    HW194361  13.823   9.604   6.922
97488SOL    HW294362  13.739   9.726   6.955
97489SOL     OW94363  10.332   5.214   0.737
97489SOL    HW194364  10.365   5.212   0.827
97489SOL    HW294365  10.350   5.126   0.704
97490SOL     OW94366   6.306   6.633   6.977
97490SOL    HW194367   6.360   6.588   6.911
97490SOL    HW294368   6.271   6.709   6.931
97491SOL     OW94369   5.587   2.146   2.137
97491SOL    HW194370   5.496   2.117   2.129
97491SOL    HW294371   5.613   2.121   2.226
97492SOL     OW94372   7.406  12.385   6.641
97492SOL    HW194373   7.418  12.419   6.729
97492SOL    HW294374   7.484  12.415   6.593
97493SOL     OW94375   9.236   6.092   0.172
97493SOL    HW194376   9.303   6.052   0.228
97493SOL    HW294377   9.237   6.184   0.195
97494SOL     OW94378   7.562   2.542   2.243
97494SOL    HW194379   7.522   2.518   2.160
97494SOL    HW294380   7.590   2.633   2.231
97495SOL     OW94381   9.187   8.267  13.016
97495SOL    HW194382   9.232   8.225  12.943
97495SOL    HW294383   9.124   8.326  12.974
97496SOL     OW94384   2.416   9.856   4.305
97496SOL    HW194385   2.490   9.828   4.252
97496SOL    HW294386   2.456   9.890   4.386
97497SOL     OW94387   5.162   8.057   3.062
97497SOL    HW194388   5.075   8.068   3.024
97497SOL    HW294389   5.189   8.145   3.087
97498SOL     OW94390   1.093  10.576   0.449
97498SOL    HW194391   1.030  10.520   0.403
97498SOL    HW294392   1.137  10.516   0.510
97499SOL     OW94393  10.723   5.028   3.622
97499SOL    HW194394  10.724   5.029   3.526
97499SOL    HW294395  10.693   5.116   3.646
97500SOL     OW94396  13.595  10.913   6.966
97500SOL    HW194397  13.660  10.945   7.027
97500SOL    HW294398  13.517  10.898   7.019
97501SOL     OW94399   4.078   9.491  12.600
97501SOL    HW194400   4.101   9.565  12.543
97501SOL    HW294401   4.132   9.419  12.568
97502SOL     OW94402   9.216  12.657   6.193
97502SOL    HW194403   9.307  12.685   6.198
97502SOL    HW294404   9.217  12.581   6.135
97503SOL     OW94405   8.113   8.062   2.527
97503SOL    HW194406   8.165   8.127   2.481
97503SOL    HW294407   8.176   8.015   2.582
97504SOL     OW94408  13.324   9.674  14.225
97504SOL    HW194409  13.234   9.706  14.225
97504SOL    HW294410  13.332   9.624  14.145
97505SOL     OW94411   4.681   9.671   2.422
97505SOL    HW194412   4.646   9.660   2.333
97505SOL    HW294413   4.604   9.683   2.477
97506SOL     OW94414   9.292   6.564   0.429
97506SOL    HW194415   9.214   6.613   0.457
97506SOL    HW294416   9.357   6.581   0.497
97507SOL     OW94417  13.977   8.597   1.751
97507SOL    HW194418  14.052   8.538   1.750
97507SOL    HW294419  13.942   8.591   1.840
97508SOL     OW94420   1.955  14.010  10.731
97508SOL    HW194421   1.909  14.093  10.736
97508SOL    HW294422   2.022  14.024  10.663
97509SOL     OW94423   9.076  14.338  11.137
97509SOL    HW194424   9.029  14.264  11.098
97509SOL    HW294425   9.139  14.298  11.197
97510SOL     OW94426   9.989  10.153  12.476
97510SOL    HW194427   9.942  10.070  12.461
97510SOL    HW294428   9.925  10.209  12.518
97511SOL     OW94429   2.277   0.506   7.733
97511SOL    HW194430   2.330   0.585   7.732
97511SOL    HW294431   2.293   0.468   7.820
97512SOL     OW94432   7.998  11.599   3.347
97512SOL    HW194433   8.092  11.591   3.335
97512SOL    HW294434   7.962  11.517   3.314
97513SOL     OW94435   2.339  14.372   3.684
97513SOL    HW194436   2.390  14.436   3.635
97513SOL    HW294437   2.405  14.314   3.722
97514SOL     OW94438   5.499   0.733  10.556
97514SOL    HW194439   5.436   0.798  10.525
97514SOL    HW294440   5.466   0.650  10.522
97515SOL     OW94441  14.014   0.941   0.763
97515SOL    HW194442  13.947   0.941   0.695
97515SOL    HW294443  13.968   0.918   0.843
97516SOL     OW94444  10.279  11.095   9.845
97516SOL    HW194445  10.221  11.116   9.772
97516SOL    HW294446  10.342  11.167   9.847
97517SOL     OW94447  11.564  13.870   8.647
97517SOL    HW194448  11.545  13.801   8.584
97517SOL    HW294449  11.489  13.869   8.707
97518SOL     OW94450   1.176   4.911  11.271
97518SOL    HW194451   1.170   4.957  11.355
97518SOL    HW294452   1.085   4.889  11.250
97519SOL     OW94453  14.158   1.395  10.418
97519SOL    HW194454  14.065   1.379  10.402
97519SOL    HW294455  14.159   1.444  10.501
97520SOL     OW94456   3.185   6.366   1.012
97520SOL    HW194457   3.118   6.434   1.013
97520SOL    HW294458   3.136   6.285   1.026
97521SOL     OW94459   8.727   4.703   8.097
97521SOL    HW194460   8.761   4.670   8.180
97521SOL    HW294461   8.656   4.643   8.075
97522SOL     OW94462   0.473   9.671   8.829
97522SOL    HW194463   0.398   9.725   8.804
97522SOL    HW294464   0.545   9.701   8.773
97523SOL     OW94465  10.281  13.712   2.284
97523SOL    HW194466  10.284  13.660   2.204
97523SOL    HW294467  10.373  13.733   2.302
97524SOL     OW94468   9.649   2.345   5.111
97524SOL    HW194469   9.583   2.277   5.098
97524SOL    HW294470   9.614   2.397   5.184
97525SOL     OW94471  14.000  11.237   0.423
97525SOL    HW194472  13.965  11.149   0.440
97525SOL    HW294473  13.936  11.277   0.365
97526SOL     OW94474   1.193   7.271   0.299
97526SOL    HW194475   1.115   7.316   0.266
97526SOL    HW294476   1.254   7.272   0.226
97527SOL     OW94477  14.091   1.062   7.274
97527SOL    HW194478  14.174   1.031   7.311
97527SOL    HW294479  14.099   1.158   7.276
97528SOL     OW94480  10.682   0.498   3.379
97528SOL    HW194481  10.683   0.589   3.348
97528SOL    HW294482  10.619   0.454   3.322
97529SOL     OW94483   7.806   8.311   0.835
97529SOL    HW194484   7.886   8.284   0.790
97529SOL    HW294485   7.823   8.292   0.928
97530SOL     OW94486   5.849  14.823   5.549
97530SOL    HW194487   5.894  14.858   5.472
97530SOL    HW294488   5.837  14.730   5.529
97531SOL     OW94489   5.313   2.648   5.514
97531SOL    HW194490   5.388   2.705   5.499
97531SOL    HW294491   5.238   2.707   5.521
97532SOL     OW94492   1.177   9.321   6.932
97532SOL    HW194493   1.222   9.397   6.895
97532SOL    HW294494   1.173   9.340   7.026
97533SOL     OW94495  14.439   7.756   2.914
97533SOL    HW194496  14.449   7.739   3.007
97533SOL    HW294497  14.346   7.779   2.904
97534SOL     OW94498   4.704  13.108  11.185
97534SOL    HW194499   4.685  13.156  11.266
97534SOL    HW294500   4.748  13.028  11.214
97535SOL     OW94501  12.018   5.895  14.164
97535SOL    HW194502  12.061   5.976  14.191
97535SOL    HW294503  12.061   5.871  14.082
97536SOL     OW94504   8.477   7.657   9.518
97536SOL    HW194505   8.430   7.594   9.464
97536SOL    HW294506   8.519   7.604   9.585
97537SOL     OW94507   1.159  12.491  10.541
97537SOL    HW194508   1.109  12.412  10.563
97537SOL    HW294509   1.115  12.526  10.464
97538SOL     OW94510   6.826   2.475   8.391
97538SOL    HW194511   6.845   2.382   8.387
97538SOL    HW294512   6.893   2.511   8.449
97539SOL     OW94513   2.262   4.298   5.715
97539SOL    HW194514   2.233   4.224   5.767
97539SOL    HW294515   2.328   4.262   5.656
97540SOL     OW94516   9.648   2.342   7.300
97540SOL    HW194517   9.554   2.341   7.318
97540SOL    HW294518   9.655   2.323   7.207
97541SOL     OW94519   7.527  12.530   6.171
97541SOL    HW194520   7.583  12.469   6.123
97541SOL    HW294521   7.583  12.607   6.185
97542SOL     OW94522   6.160  13.561   2.329
97542SOL    HW194523   6.167  13.654   2.351
97542SOL    HW294524   6.075  13.553   2.286
97543SOL     OW94525   1.460   4.722  14.763
97543SOL    HW194526   1.477   4.815  14.778
97543SOL    HW294527   1.429   4.718  14.672
97544SOL     OW94528   9.898  10.092   7.382
97544SOL    HW194529   9.808  10.078   7.409
97544SOL    HW294530   9.903  10.058   7.293
97545SOL     OW94531   0.852  14.847   5.664
97545SOL    HW194532   0.791   0.038   5.644
97545SOL    HW294533   0.797  14.778   5.701
97546SOL     OW94534   6.731   9.887   0.543
97546SOL    HW194535   6.657   9.828   0.530
97546SOL    HW294536   6.805   9.828   0.562
97547SOL     OW94537   0.349   3.553   3.059
97547SOL    HW194538   0.412   3.540   2.988
97547SOL    HW294539   0.366   3.641   3.092
97548SOL     OW94540   4.793  13.345   5.888
97548SOL    HW194541   4.712  13.373   5.845
97548SOL    HW294542   4.858  13.345   5.818
97549SOL     OW94543  12.856  10.729   9.270
97549SOL    HW194544  12.812  10.706   9.188
97549SOL    HW294545  12.790  10.714   9.338
97550SOL     OW94546   6.139  14.033  11.169
97550SOL    HW194547   6.120  14.109  11.114
97550SOL    HW294548   6.186  14.069  11.244
97551SOL     OW94549   8.264  10.684   1.761
97551SOL    HW194550   8.237  10.692   1.852
97551SOL    HW294551   8.184  10.658   1.715
97552SOL     OW94552   4.589   0.968  10.931
97552SOL    HW194553   4.596   0.877  10.901
97552SOL    HW294554   4.676   0.989  10.966
97553SOL     OW94555   3.726   2.762  13.473
97553SOL    HW194556   3.730   2.835  13.410
97553SOL    HW294557   3.811   2.720  13.466
97554SOL     OW94558  14.501   6.613   9.459
97554SOL    HW194559  14.570   6.677   9.476
97554SOL    HW294560  14.468   6.635   9.372
97555SOL     OW94561  11.056   4.131   3.038
97555SOL    HW194562  11.009   4.195   2.985
97555SOL    HW294563  11.144   4.168   3.047
97556SOL     OW94564  12.978  13.302   0.115
97556SOL    HW194565  13.006  13.274   0.028
97556SOL    HW294566  13.033  13.252   0.176
97557SOL     OW94567  13.993   9.842   8.808
97557SOL    HW194568  13.963   9.866   8.721
97557SOL    HW294569  13.960   9.753   8.821
97558SOL     OW94570  14.513  10.843  12.438
97558SOL    HW194571  14.550  10.879  12.519
97558SOL    HW294572  14.449  10.778  12.468
97559SOL     OW94573   5.829   0.964   9.318
97559SOL    HW194574   5.907   0.912   9.300
97559SOL    HW294575   5.857   1.055   9.310
97560SOL     OW94576   1.250   2.512   5.107
97560SOL    HW194577   1.201   2.593   5.095
97560SOL    HW294578   1.328   2.538   5.156
97561SOL     OW94579  13.897   7.058   1.044
97561SOL    HW194580  13.967   7.032   0.985
97561SOL    HW294581  13.877   7.149   1.019
97562SOL     OW94582   9.072   3.829  14.715
97562SOL    HW194583   9.047   3.833  14.623
97562SOL    HW294584   8.992   3.848  14.763
97563SOL     OW94585   5.803   5.399  11.308
97563SOL    HW194586   5.744   5.444  11.248
97563SOL    HW294587   5.752   5.389  11.389
97564SOL     OW94588   5.719  10.449  14.427
97564SOL    HW194589   5.660  10.516  14.392
97564SOL    HW294590   5.786  10.439  14.359
97565SOL     OW94591   7.413  13.480   5.619
97565SOL    HW194592   7.497  13.471   5.574
97565SOL    HW294593   7.423  13.558   5.674
97566SOL     OW94594  10.273  12.944  10.704
97566SOL    HW194595  10.351  12.911  10.748
97566SOL    HW294596  10.238  12.869  10.656
97567SOL     OW94597   8.067  14.391  12.904
97567SOL    HW194598   8.072  14.312  12.849
97567SOL    HW294599   7.984  14.432  12.877
97568SOL     OW94600  13.061  12.892   3.352
97568SOL    HW194601  13.096  12.853   3.432
97568SOL    HW294602  13.001  12.960   3.382
97569SOL     OW94603   9.281   6.219   0.769
97569SOL    HW194604   9.280   6.194   0.677
97569SOL    HW294605   9.226   6.154   0.812
97570SOL     OW94606  14.345  12.937  10.202
97570SOL    HW194607  14.329  12.930  10.108
97570SOL    HW294608  14.298  13.016  10.229
97571SOL     OW94609  13.187   5.733  14.708
97571SOL    HW194610  13.159   5.736  14.800
97571SOL    HW294611  13.106   5.725  14.658
97572SOL     OW94612   1.671   0.125   0.949
97572SOL    HW194613   1.623   0.061   0.896
97572SOL    HW294614   1.691   0.080   1.030
97573SOL     OW94615   3.081  12.414   3.462
97573SOL    HW194616   3.063  12.463   3.382
97573SOL    HW294617   3.158  12.361   3.442
97574SOL     OW94618   9.660   2.743  11.549
97574SOL    HW194619   9.639   2.664  11.599
97574SOL    HW294620   9.607   2.736  11.469
97575SOL     OW94621  10.297  10.259   3.149
97575SOL    HW194622  10.250  10.302   3.076
97575SOL    HW294623  10.254  10.175   3.159
97576SOL     OW94624   9.794  13.462   3.597
97576SOL    HW194625   9.699  13.472   3.587
97576SOL    HW294626   9.823  13.547   3.632
97577SOL     OW94627   6.827   7.189  14.592
97577SOL    HW194628   6.859   7.279  14.591
97577SOL    HW294629   6.743   7.194  14.638
97578SOL     OW94630   3.411   3.183  14.444
97578SOL    HW194631   3.414   3.260  14.501
97578SOL    HW294632   3.459   3.116  14.492
97579SOL     OW94633  10.211   7.488  14.557
97579SOL    HW194634  10.203   7.507  14.650
97579SOL    HW294635  10.125   7.511  14.521
97580SOL     OW94636   4.523   7.553  11.078
97580SOL    HW194637   4.465   7.545  11.154
97580SOL    HW294638   4.509   7.472  11.029
97581SOL     OW94639  13.158  14.457   2.416
97581SOL    HW194640  13.196  14.425   2.498
97581SOL    HW294641  13.205  14.539   2.398
97582SOL     OW94642  11.720  14.783   0.792
97582SOL    HW194643  11.661  14.858   0.795
97582SOL    HW294644  11.701  14.734   0.873
97583SOL     OW94645   7.184   9.806  14.047
97583SOL    HW194646   7.225   9.783  14.131
97583SOL    HW294647   7.132   9.884  14.067
97584SOL     OW94648   1.015   4.559  12.001
97584SOL    HW194649   0.952   4.592  12.066
97584SOL    HW294650   1.011   4.623  11.930
97585SOL     OW94651   6.402   7.207  13.874
97585SOL    HW194652   6.381   7.281  13.931
97585SOL    HW294653   6.325   7.151  13.878
97586SOL     OW94654   4.875   3.369   9.507
97586SOL    HW194655   4.936   3.299   9.488
97586SOL    HW294656   4.907   3.409   9.588
97587SOL     OW94657   9.756   3.841   3.212
97587SOL    HW194658   9.785   3.774   3.274
97587SOL    HW294659   9.770   3.924   3.259
97588SOL     OW94660   9.244   7.244   2.351
97588SOL    HW194661   9.294   7.187   2.293
97588SOL    HW294662   9.153   7.219   2.337
97589SOL     OW94663   6.433  10.809   6.361
97589SOL    HW194664   6.375  10.864   6.308
97589SOL    HW294665   6.435  10.725   6.314
97590SOL     OW94666   3.802   5.731   4.200
97590SOL    HW194667   3.769   5.641   4.203
97590SOL    HW294668   3.766   5.768   4.120
97591SOL     OW94669  12.935   6.197  10.694
97591SOL    HW194670  13.014   6.185  10.641
97591SOL    HW294671  12.905   6.286  10.673
97592SOL     OW94672  10.500   9.838   7.097
97592SOL    HW194673  10.410   9.847   7.128
97592SOL    HW294674  10.493   9.790   7.015
97593SOL     OW94675   0.970   5.596   0.977
97593SOL    HW194676   0.974   5.685   0.940
97593SOL    HW294677   0.945   5.541   0.903
97594SOL     OW94678   3.420   1.399   8.714
97594SOL    HW194679   3.509   1.434   8.725
97594SOL    HW294680   3.429   1.305   8.732
97595SOL     OW94681  13.513   1.279   3.059
97595SOL    HW194682  13.471   1.203   3.019
97595SOL    HW294683  13.551   1.327   2.985
97596SOL     OW94684   1.478   3.530   8.891
97596SOL    HW194685   1.409   3.583   8.932
97596SOL    HW294686   1.512   3.585   8.821
97597SOL     OW94687   7.534   6.575   4.002
97597SOL    HW194688   7.459   6.562   4.059
97597SOL    HW294689   7.592   6.502   4.021
97598SOL     OW94690   1.149   9.409  12.592
97598SOL    HW194691   1.160   9.376  12.681
97598SOL    HW294692   1.238   9.413  12.557
97599SOL     OW94693   6.130  14.061   1.948
97599SOL    HW194694   6.080  14.007   1.886
97599SOL    HW294695   6.063  14.113   1.992
97600SOL     OW94696  10.412   6.981   3.558
97600SOL    HW194697  10.475   6.921   3.517
97600SOL    HW294698  10.329   6.934   3.556
97601SOL     OW94699   1.181  11.308   0.547
97601SOL    HW194700   1.108  11.310   0.485
97601SOL    HW294701   1.139  11.317   0.633
97602SOL     OW94702   8.757  10.724   0.914
97602SOL    HW194703   8.763  10.635   0.948
97602SOL    HW294704   8.734  10.713   0.822
97603SOL     OW94705   6.668  14.171   4.461
97603SOL    HW194706   6.733  14.111   4.422
97603SOL    HW294707   6.586  14.149   4.417
97604SOL     OW94708   5.034  13.632  12.429
97604SOL    HW194709   4.985  13.698  12.477
97604SOL    HW294710   5.015  13.650  12.337
97605SOL     OW94711   6.326   5.339   5.731
97605SOL    HW194712   6.382   5.408   5.693
97605SOL    HW294713   6.282   5.382   5.803
97606SOL     OW94714   7.544   5.785  14.160
97606SOL    HW194715   7.629   5.746  14.176
97606SOL    HW294716   7.562   5.858  14.100
97607SOL     OW94717  11.875  13.147  13.716
97607SOL    HW194718  11.832  13.061  13.711
97607SOL    HW294719  11.948  13.140  13.653
97608SOL     OW94720   8.682   9.059   9.020
97608SOL    HW194721   8.693   9.150   8.991
97608SOL    HW294722   8.701   9.007   8.942
97609SOL     OW94723   7.838  13.186  13.329
97609SOL    HW194724   7.846  13.260  13.269
97609SOL    HW294725   7.794  13.221  13.406
97610SOL     OW94726  12.944   5.323   8.828
97610SOL    HW194727  12.968   5.394   8.768
97610SOL    HW294728  12.877   5.361   8.884
97611SOL     OW94729  13.318   8.431  10.751
97611SOL    HW194730  13.355   8.412  10.837
97611SOL    HW294731  13.374   8.500  10.715
97612SOL     OW94732   2.918  14.231  11.273
97612SOL    HW194733   2.989  14.290  11.247
97612SOL    HW294734   2.914  14.166  11.202
97613SOL     OW94735   9.383  14.354   3.106
97613SOL    HW194736   9.343  14.424   3.158
97613SOL    HW294737   9.322  14.339   3.034
97614SOL     OW94738   3.501   8.153   7.655
97614SOL    HW194739   3.564   8.179   7.721
97614SOL    HW294740   3.487   8.231   7.602
97615SOL     OW94741  11.649   4.610  10.043
97615SOL    HW194742  11.701   4.595  10.122
97615SOL    HW294743  11.568   4.562  10.057
97616SOL     OW94744   5.640  10.531  14.037
97616SOL    HW194745   5.690  10.608  14.011
97616SOL    HW294746   5.624  10.543  14.131
97617SOL     OW94747   1.039   5.498   4.897
97617SOL    HW194748   0.982   5.573   4.876
97617SOL    HW294749   1.039   5.445   4.818
97618SOL     OW94750   8.930   9.437   5.450
97618SOL    HW194751   8.905   9.425   5.358
97618SOL    HW294752   8.886   9.365   5.496
97619SOL     OW94753  10.687   6.046   5.079
97619SOL    HW194754  10.607   6.053   5.026
97619SOL    HW294755  10.664   6.084   5.163
97620SOL     OW94756  13.999  14.803   4.083
97620SOL    HW194757  14.083  14.848   4.076
97620SOL    HW294758  13.985  14.794   4.177
97621SOL     OW94759  12.034   7.151   8.348
97621SOL    HW194760  12.110   7.106   8.385
97621SOL    HW294761  11.985   7.182   8.424
97622SOL     OW94762   4.437  13.164   8.816
97622SOL    HW194763   4.380  13.093   8.845
97622SOL    HW294764   4.519  13.150   8.865
97623SOL     OW94765   8.777  10.139   2.166
97623SOL    HW194766   8.867  10.171   2.154
97623SOL    HW294767   8.786  10.064   2.225
97624SOL     OW94768  14.237   0.717   1.714
97624SOL    HW194769  14.208   0.690   1.627
97624SOL    HW294770  14.232   0.813   1.712
97625SOL     OW94771  10.679  12.645  14.272
97625SOL    HW194772  10.617  12.618  14.204
97625SOL    HW294773  10.683  12.570  14.331
97626SOL     OW94774  14.500   0.457   8.733
97626SOL    HW194775  14.469   0.368   8.748
97626SOL    HW294776  14.534   0.486   8.819
97627SOL     OW94777   6.759  13.598   3.417
97627SOL    HW194778   6.664  13.597   3.414
97627SOL    HW294779   6.781  13.539   3.490
97628SOL     OW94780   0.711  12.404   0.894
97628SOL    HW194781   0.690  12.482   0.843
97628SOL    HW294782   0.626  12.373   0.926
97629SOL     OW94783   4.980   7.245  10.133
97629SOL    HW194784   5.051   7.304  10.108
97629SOL    HW294785   4.935   7.225  10.051
97630SOL     OW94786   2.051   9.208   1.295
97630SOL    HW194787   2.059   9.298   1.263
97630SOL    HW294788   2.139   9.187   1.327
97631SOL     OW94789   0.639   4.329   2.495
97631SOL    HW194790   0.614   4.420   2.482
97631SOL    HW294791   0.658   4.323   2.589
97632SOL     OW94792  11.168   3.991  14.227
97632SOL    HW194793  11.210   4.040  14.297
97632SOL    HW294794  11.095   4.046  14.199
97633SOL     OW94795  13.000   9.057   6.586
97633SOL    HW194796  12.913   9.042   6.624
97633SOL    HW294797  13.011   9.152   6.588
97634SOL     OW94798  11.881  10.700  14.345
97634SOL    HW194799  11.908  10.709  14.437
97634SOL    HW294800  11.888  10.607  14.327
97635SOL     OW94801   2.106  13.885   1.479
97635SOL    HW194802   2.111  13.794   1.449
97635SOL    HW294803   2.013  13.899   1.497
97636SOL     OW94804   7.054   4.310   2.656
97636SOL    HW194805   6.998   4.312   2.578
97636SOL    HW294806   7.093   4.398   2.660
97637SOL     OW94807   2.943  12.551   7.231
97637SOL    HW194808   2.905  12.598   7.305
97637SOL    HW294809   2.924  12.605   7.155
97638SOL     OW94810   3.600  11.253  14.240
97638SOL    HW194811   3.509  11.223  14.245
97638SOL    HW294812   3.626  11.235  14.150
97639SOL     OW94813   9.479   0.078   2.860
97639SOL    HW194814   9.490   0.170   2.883
97639SOL    HW294815   9.563   0.037   2.883
97640SOL     OW94816   1.412   8.266   0.493
97640SOL    HW194817   1.399   8.303   0.580
97640SOL    HW294818   1.327   8.276   0.450
97641SOL     OW94819   8.343   2.340   9.751
97641SOL    HW194820   8.436   2.364   9.746
97641SOL    HW294821   8.326   2.292   9.670
97642SOL     OW94822  11.236   4.913   3.193
97642SOL    HW194823  11.144   4.914   3.218
97642SOL    HW294824  11.266   4.826   3.218
97643SOL     OW94825   6.298  11.549  14.243
97643SOL    HW194826   6.292  11.487  14.316
97643SOL    HW294827   6.384  11.530  14.204
97644SOL     OW94828  12.540   1.146   1.040
97644SOL    HW194829  12.462   1.110   1.081
97644SOL    HW294830  12.515   1.161   0.949
97645SOL     OW94831  12.623   0.345  14.078
97645SOL    HW194832  12.602   0.437  14.061
97645SOL    HW294833  12.718   0.344  14.085
97646SOL     OW94834   2.718   6.104   2.528
97646SOL    HW194835   2.786   6.092   2.462
97646SOL    HW294836   2.640   6.128   2.478
97647SOL     OW94837   3.181  12.899   1.986
97647SOL    HW194838   3.220  12.887   2.072
97647SOL    HW294839   3.232  12.970   1.946
97648SOL     OW94840  11.950  13.461   3.564
97648SOL    HW194841  11.945  13.373   3.600
97648SOL    HW294842  12.009  13.454   3.489
97649SOL     OW94843   2.363   7.855   0.973
97649SOL    HW194844   2.290   7.898   0.929
97649SOL    HW294845   2.327   7.772   1.004
97650SOL     OW94846  13.125   6.921   7.398
97650SOL    HW194847  13.212   6.943   7.430
97650SOL    HW294848  13.080   6.886   7.475
97651SOL     OW94849   4.111   3.745   7.557
97651SOL    HW194850   4.164   3.821   7.580
97651SOL    HW294851   4.138   3.677   7.619
97652SOL     OW94852   2.359   4.056  13.831
97652SOL    HW194853   2.391   4.134  13.876
97652SOL    HW294854   2.380   4.072  13.739
97653SOL     OW94855   6.858  12.543   2.393
97653SOL    HW194856   6.930  12.585   2.440
97653SOL    HW294857   6.779  12.577   2.433
97654SOL     OW94858  13.248   0.735  14.646
97654SOL    HW194859  13.217   0.826  14.646
97654SOL    HW294860  13.281   0.721  14.735
97655SOL     OW94861   9.153   5.033  10.302
97655SOL    HW194862   9.068   4.990  10.311
97655SOL    HW294863   9.209   4.987  10.363
97656SOL     OW94864   1.738  13.250  11.246
97656SOL    HW194865   1.782  13.334  11.258
97656SOL    HW294866   1.763  13.222  11.158
97657SOL     OW94867   6.851   5.140  13.038
97657SOL    HW194868   6.790   5.130  12.964
97657SOL    HW294869   6.823   5.220  13.082
97658SOL     OW94870  13.285  13.581   8.694
97658SOL    HW194871  13.344  13.571   8.619
97658SOL    HW294872  13.230  13.502   8.691
97659SOL     OW94873  10.168  10.694   6.874
97659SOL    HW194874  10.260  10.692   6.850
97659SOL    HW294875  10.140  10.603   6.869
97660SOL     OW94876   1.210   5.986  13.377
97660SOL    HW194877   1.245   5.982  13.466
97660SOL    HW294878   1.212   5.895  13.348
97661SOL     OW94879   2.576   7.120   4.271
97661SOL    HW194880   2.503   7.129   4.210
97661SOL    HW294881   2.634   7.055   4.231
97662SOL     OW94882   5.989   6.676   5.845
97662SOL    HW194883   6.053   6.643   5.908
97662SOL    HW294884   5.905   6.673   5.892
97663SOL     OW94885   8.369   5.469   1.273
97663SOL    HW194886   8.289   5.462   1.324
97663SOL    HW294887   8.380   5.384   1.231
97664SOL     OW94888   5.499   0.608  13.152
97664SOL    HW194889   5.575   0.650  13.191
97664SOL    HW294890   5.525   0.516  13.143
97665SOL     OW94891   9.846  12.668   8.125
97665SOL    HW194892   9.814  12.613   8.054
97665SOL    HW294893   9.767  12.701   8.168
97666SOL     OW94894   1.308  12.226   5.895
97666SOL    HW194895   1.292  12.252   5.804
97666SOL    HW294896   1.401  12.203   5.897
97667SOL     OW94897   8.268   3.652   3.552
97667SOL    HW194898   8.195   3.613   3.599
97667SOL    HW294899   8.262   3.746   3.572
97668SOL     OW94900   3.215  11.261   1.153
97668SOL    HW194901   3.192  11.183   1.102
97668SOL    HW294902   3.309  11.272   1.138
97669SOL     OW94903  14.845  13.837  10.967
97669SOL    HW194904  14.861  13.747  10.938
97669SOL    HW294905  14.825  13.829  11.060
97670SOL     OW94906   6.833   6.128  12.905
97670SOL    HW194907   6.807   6.210  12.947
97670SOL    HW294908   6.836   6.150  12.811
97671SOL     OW94909  10.633  12.957  12.798
97671SOL    HW194910  10.708  12.904  12.771
97671SOL    HW294911  10.556  12.909  12.766
97672SOL     OW94912   9.160   5.763   0.391
97672SOL    HW194913   9.174   5.675   0.425
97672SOL    HW294914   9.174   5.820   0.466
97673SOL     OW94915  12.269   9.257   9.991
97673SOL    HW194916  12.245   9.320   9.924
97673SOL    HW294917  12.361   9.237   9.974
97674SOL     OW94918   3.208   1.190   7.181
97674SOL    HW194919   3.207   1.100   7.214
97674SOL    HW294920   3.253   1.184   7.097
97675SOL     OW94921   5.834  14.691  14.058
97675SOL    HW194922   5.928  14.696  14.043
97675SOL    HW294923   5.826  14.651  14.145
97676SOL     OW94924  11.324   1.114   4.566
97676SOL    HW194925  11.360   1.057   4.634
97676SOL    HW294926  11.253   1.063   4.527
97677SOL     OW94927  13.501  11.299   3.075
97677SOL    HW194928  13.529  11.366   3.012
97677SOL    HW294929  13.405  11.303   3.072
97678SOL     OW94930  11.292   9.049   5.858
97678SOL    HW194931  11.286   8.968   5.808
97678SOL    HW294932  11.243   9.031   5.939
97679SOL     OW94933  10.345   8.527   1.528
97679SOL    HW194934  10.272   8.465   1.526
97679SOL    HW294935  10.310   8.603   1.575
97680SOL     OW94936   9.374   8.388  10.601
97680SOL    HW194937   9.416   8.374  10.515
97680SOL    HW294938   9.339   8.302  10.624
97681SOL     OW94939   9.984   9.729   5.520
97681SOL    HW194940  10.040   9.671   5.468
97681SOL    HW294941  10.038   9.755   5.594
97682SOL     OW94942   8.266   2.495   2.006
97682SOL    HW194943   8.242   2.458   2.091
97682SOL    HW294944   8.183   2.499   1.957
97683SOL     OW94945  14.556  14.630   4.039
97683SOL    HW194946  14.589  14.674   4.117
97683SOL    HW294947  14.471  14.594   4.065
97684SOL     OW94948   3.708  13.025   8.985
97684SOL    HW194949   3.713  13.017   8.889
97684SOL    HW294950   3.663  12.946   9.014
97685SOL     OW94951   3.190   1.853  13.019
97685SOL    HW194952   3.275   1.888  13.047
97685SOL    HW294953   3.129   1.884  13.086
97686SOL     OW94954   2.302   5.483   5.805
97686SOL    HW194955   2.221   5.451   5.764
97686SOL    HW294956   2.300   5.577   5.790
97687SOL     OW94957  12.600   6.046   5.824
97687SOL    HW194958  12.612   6.031   5.918
97687SOL    HW294959  12.505   6.042   5.810
97688SOL     OW94960   8.786   3.240   7.002
97688SOL    HW194961   8.693   3.224   7.020
97688SOL    HW294962   8.797   3.334   7.017
97689SOL     OW94963   0.388  13.050   0.870
97689SOL    HW194964   0.452  13.032   0.800
97689SOL    HW294965   0.440  13.086   0.941
97690SOL     OW94966   0.854  13.748   2.801
97690SOL    HW194967   0.869  13.746   2.706
97690SOL    HW294968   0.872  13.658   2.829
97691SOL     OW94969  11.686  13.269   1.844
97691SOL    HW194970  11.678  13.229   1.758
97691SOL    HW294971  11.598  13.265   1.881
97692SOL     OW94972   8.205   8.708  10.578
97692SOL    HW194973   8.208   8.634  10.518
97692SOL    HW294974   8.179   8.782  10.524
97693SOL     OW94975   5.679   5.963   9.500
97693SOL    HW194976   5.671   5.966   9.595
97693SOL    HW294977   5.589   5.955   9.468
97694SOL     OW94978  12.331  14.665  11.451
97694SOL    HW194979  12.397  14.611  11.494
97694SOL    HW294980  12.272  14.692  11.521
97695SOL     OW94981   5.495  12.904   4.328
97695SOL    HW194982   5.424  12.845   4.354
97695SOL    HW294983   5.521  12.874   4.241
97696SOL     OW94984  11.371   8.185   1.939
97696SOL    HW194985  11.392   8.268   1.896
97696SOL    HW294986  11.361   8.208   2.031
97697SOL     OW94987   3.002   4.282  10.223
97697SOL    HW194988   2.998   4.346  10.294
97697SOL    HW294989   3.088   4.242  10.232
97698SOL     OW94990   6.418   1.357   8.332
97698SOL    HW194991   6.453   1.268   8.319
97698SOL    HW294992   6.476   1.413   8.281
97699SOL     OW94993  12.852   2.504   5.186
97699SOL    HW194994  12.839   2.585   5.136
97699SOL    HW294995  12.942   2.478   5.167
97700SOL     OW94996  11.297  13.611   4.228
97700SOL    HW194997  11.375  13.662   4.209
97700SOL    HW294998  11.226  13.658   4.185
97701SOL     OW94999   7.163   4.155  11.598
97701SOL    HW195000   7.099   4.084  11.586
97701SOL    HW295001   7.200   4.139  11.685
97702SOL     OW95002  13.977  10.965  13.159
97702SOL    HW195003  13.903  10.977  13.218
97702SOL    HW295004  14.034  11.040  13.178
97703SOL     OW95005   4.984   9.986   5.040
97703SOL    HW195006   5.010   9.899   5.011
97703SOL    HW295007   4.974  10.037   4.959
97704SOL     OW95008   3.080   9.287  12.503
97704SOL    HW195009   3.033   9.209  12.475
97704SOL    HW295010   3.169   9.275  12.471
97705SOL     OW95011   2.515  12.134   8.988
97705SOL    HW195012   2.452  12.083   9.039
97705SOL    HW295013   2.509  12.223   9.024
97706SOL     OW95014  10.160   6.925  13.178
97706SOL    HW195015  10.220   6.916  13.252
97706SOL    HW295016  10.121   7.011  13.189
97707SOL     OW95017   5.329  14.628  11.992
97707SOL    HW195018   5.279  14.689  11.938
97707SOL    HW295019   5.419  14.660  11.985
97708SOL     OW95020   8.625  12.941  10.735
97708SOL    HW195021   8.661  12.868  10.785
97708SOL    HW295022   8.645  12.919  10.644
97709SOL     OW95023  14.100   3.053  12.010
97709SOL    HW195024  14.135   3.095  12.089
97709SOL    HW295025  14.174   3.053  11.949
97710SOL     OW95026   1.713   4.764   8.534
97710SOL    HW195027   1.695   4.672   8.557
97710SOL    HW295028   1.742   4.804   8.616
97711SOL     OW95029   5.963   6.466  11.058
97711SOL    HW195030   5.969   6.373  11.037
97711SOL    HW295031   5.946   6.508  10.974
97712SOL     OW95032  11.517  13.588   6.011
97712SOL    HW195033  11.572  13.514   5.989
97712SOL    HW295034  11.427  13.557   5.998
97713SOL     OW95035   1.087   0.009   2.588
97713SOL    HW195036   1.079  14.831   2.513
97713SOL    HW295037   1.142  14.841   2.650
97714SOL     OW95038  13.282   9.879   1.186
97714SOL    HW195039  13.296   9.882   1.091
97714SOL    HW295040  13.189   9.899   1.197
97715SOL     OW95041  10.171  11.077   8.544
97715SOL    HW195042  10.263  11.054   8.525
97715SOL    HW295043  10.122  11.041   8.470
97716SOL     OW95044   4.362  10.613   3.154
97716SOL    HW195045   4.327  10.654   3.075
97716SOL    HW295046   4.322  10.526   3.154
97717SOL     OW95047   8.433   0.189  13.507
97717SOL    HW195048   8.392   0.210  13.591
97717SOL    HW295049   8.493   0.117  13.527
97718SOL     OW95050  10.105  13.212  10.822
97718SOL    HW195051  10.167  13.157  10.868
97718SOL    HW295052  10.156  13.288  10.794
97719SOL     OW95053   2.113  13.645  10.420
97719SOL    HW195054   2.098  13.626  10.513
97719SOL    HW295055   2.208  13.649  10.411
97720SOL     OW95056   4.136   0.330   7.446
97720SOL    HW195057   4.084   0.328   7.366
97720SOL    HW295058   4.071   0.326   7.516
97721SOL     OW95059   0.490   8.928  11.383
97721SOL    HW195060   0.402   8.898  11.359
97721SOL    HW295061   0.508   8.885  11.467
97722SOL     OW95062   6.805  11.343   4.303
97722SOL    HW195063   6.829  11.363   4.212
97722SOL    HW295064   6.793  11.428   4.344
97723SOL     OW95065  10.489   3.931   0.765
97723SOL    HW195066  10.416   3.963   0.713
97723SOL    HW295067  10.455   3.924   0.854
97724SOL     OW95068   7.108   0.024   2.097
97724SOL    HW195069   7.074  14.816   2.078
97724SOL    HW295070   7.100   0.032   2.192
97725SOL     OW95071  13.692   9.125  14.002
97725SOL    HW195072  13.772   9.088  14.040
97725SOL    HW295073  13.632   9.051  13.996
97726SOL     OW95074   0.377   6.877   9.262
97726SOL    HW195075   0.294   6.832   9.242
97726SOL    HW295076   0.380   6.880   9.357
97727SOL     OW95077  10.270   0.609   4.231
97727SOL    HW195078  10.334   0.564   4.177
97727SOL    HW295079  10.224   0.668   4.171
97728SOL     OW95080   9.221   1.874   6.659
97728SOL    HW195081   9.282   1.924   6.713
97728SOL    HW295082   9.135   1.909   6.682
97729SOL     OW95083   8.023   9.360   8.956
97729SOL    HW195084   7.990   9.449   8.966
97729SOL    HW295085   8.028   9.347   8.861
97730SOL     OW95086   1.676   7.787   8.411
97730SOL    HW195087   1.605   7.810   8.351
97730SOL    HW295088   1.751   7.769   8.354
97731SOL     OW95089   9.105   6.360   0.382
97731SOL    HW195090   9.142   6.292   0.438
97731SOL    HW295091   9.165   6.434   0.391
97732SOL     OW95092   2.979  14.364  12.686
97732SOL    HW195093   3.030  14.444  12.671
97732SOL    HW295094   2.905  14.393  12.740
97733SOL     OW95095   1.094   7.129  14.805
97733SOL    HW195096   1.155   7.189  14.847
97733SOL    HW295097   1.134   7.043  14.813
97734SOL     OW95098   5.805   4.205   4.997
97734SOL    HW195099   5.761   4.192   5.082
97734SOL    HW295100   5.891   4.166   5.009
97735SOL     OW95101  12.430   8.534  13.073
97735SOL    HW195102  12.374   8.461  13.048
97735SOL    HW295103  12.404   8.606  13.016
97736SOL     OW95104   3.893   6.031  13.409
97736SOL    HW195105   3.979   6.010  13.373
97736SOL    HW295106   3.860   6.101  13.353
97737SOL     OW95107   8.751   8.942   8.778
97737SOL    HW195108   8.810   8.989   8.719
97737SOL    HW295109   8.740   8.856   8.736
97738SOL     OW95110  11.760   9.225  10.601
97738SOL    HW195111  11.779   9.133  10.580
97738SOL    HW295112  11.846   9.266  10.611
97739SOL     OW95113   6.087   2.621   7.775
97739SOL    HW195114   6.072   2.714   7.756
97739SOL    HW295115   6.000   2.581   7.766
97740SOL     OW95116  11.116   2.236  13.614
97740SOL    HW195117  11.022   2.220  13.601
97740SOL    HW295118  11.129   2.327  13.588
97741SOL     OW95119   6.129   3.618   1.177
97741SOL    HW195120   6.150   3.664   1.096
97741SOL    HW295121   6.049   3.661   1.209
97742SOL     OW95122   2.096   9.794  11.765
97742SOL    HW195123   2.185   9.823  11.788
97742SOL    HW295124   2.107   9.746  11.683
97743SOL     OW95125   5.193  10.549   9.452
97743SOL    HW195126   5.181  10.643   9.442
97743SOL    HW295127   5.275  10.540   9.501
97744SOL     OW95128  10.691   9.745   3.836
97744SOL    HW195129  10.713   9.777   3.749
97744SOL    HW295130  10.774   9.744   3.883
97745SOL     OW95131   2.088   4.336  13.482
97745SOL    HW195132   2.141   4.323  13.560
97745SOL    HW295133   2.029   4.260  13.480
97746SOL     OW95134   9.319  10.907   5.684
97746SOL    HW195135   9.236  10.874   5.718
97746SOL    HW295136   9.377  10.830   5.684
97747SOL     OW95137   0.356   9.700   1.859
97747SOL    HW195138   0.308   9.637   1.912
97747SOL    HW295139   0.439   9.657   1.840
97748SOL     OW95140   1.471  10.033  10.309
97748SOL    HW195141   1.398   9.973  10.297
97748SOL    HW295142   1.524   9.993  10.378
97749SOL     OW95143   6.904   8.988  12.518
97749SOL    HW195144   6.812   8.986  12.544
97749SOL    HW295145   6.949   8.935  12.583
97750SOL     OW95146   2.069  14.156   9.914
97750SOL    HW195147   2.157  14.182   9.942
97750SOL    HW295148   2.069  14.169   9.819
97751SOL     OW95149  10.084   6.786   5.537
97751SOL    HW195150  10.160   6.795   5.595
97751SOL    HW295151  10.054   6.876   5.524
97752SOL     OW95152   8.782   1.540  12.995
97752SOL    HW195153   8.759   1.483  13.068
97752SOL    HW295154   8.721   1.516  12.926
97753SOL     OW95155   2.671   2.851   4.818
97753SOL    HW195156   2.604   2.804   4.769
97753SOL    HW295157   2.622   2.904   4.881
97754SOL     OW95158   7.230   1.697  14.422
97754SOL    HW195159   7.196   1.707  14.333
97754SOL    HW295160   7.295   1.627  14.415
97755SOL     OW95161   5.393   5.531   7.205
97755SOL    HW195162   5.331   5.505   7.272
97755SOL    HW295163   5.339   5.555   7.130
97756SOL     OW95164   2.139   4.613  13.229
97756SOL    HW195165   2.143   4.695  13.279
97756SOL    HW295166   2.223   4.571  13.246
97757SOL     OW95167   4.954   2.377   3.671
97757SOL    HW195168   4.920   2.400   3.757
97757SOL    HW295169   5.039   2.335   3.689
97758SOL     OW95170   2.812  10.350   7.624
97758SOL    HW195171   2.816  10.443   7.646
97758SOL    HW295172   2.841  10.305   7.703
97759SOL     OW95173  10.665   7.045  14.528
97759SOL    HW195174  10.599   6.980  14.504
97759SOL    HW295175  10.618   7.109  14.581
97760SOL     OW95176  12.081   1.539   6.263
97760SOL    HW195177  12.071   1.451   6.226
97760SOL    HW295178  12.095   1.596   6.187
97761SOL     OW95179  13.967   1.643   1.110
97761SOL    HW195180  13.946   1.689   1.191
97761SOL    HW295181  14.042   1.588   1.132
97762SOL     OW95182  13.761  10.946  10.733
97762SOL    HW195183  13.673  10.968  10.763
97762SOL    HW295184  13.756  10.853  10.711
97763SOL     OW95185   8.782  13.815  12.407
97763SOL    HW195186   8.831  13.764  12.343
97763SOL    HW295187   8.742  13.750  12.465
97764SOL     OW95188  13.064   1.999  11.509
97764SOL    HW195189  12.970   2.010  11.526
97764SOL    HW295190  13.069   1.930  11.443
97765SOL     OW95191   0.806  11.424   8.898
97765SOL    HW195192   0.836  11.414   8.989
97765SOL    HW295193   0.873  11.478   8.857
97766SOL     OW95194   3.340  14.400   9.982
97766SOL    HW195195   3.318  14.448  10.062
97766SOL    HW295196   3.428  14.430   9.960
97767SOL     OW95197   3.556   1.680   4.700
97767SOL    HW195198   3.515   1.638   4.624
97767SOL    HW295199   3.644   1.703   4.669
97768SOL     OW95200   4.461  13.279  13.328
97768SOL    HW195201   4.524  13.327  13.274
97768SOL    HW295202   4.376  13.305  13.295
97769SOL     OW95203  14.355   5.833  13.964
97769SOL    HW195204  14.400   5.760  14.007
97769SOL    HW295205  14.324   5.796  13.881
97770SOL     OW95206   2.192   0.888   2.550
97770SOL    HW195207   2.099   0.874   2.533
97770SOL    HW295208   2.224   0.935   2.473
97771SOL     OW95209   4.564   4.664  13.459
97771SOL    HW195210   4.548   4.570  13.472
97771SOL    HW295211   4.660   4.671  13.456
97772SOL     OW95212   2.973   8.196   5.222
97772SOL    HW195213   3.011   8.180   5.136
97772SOL    HW295214   2.975   8.111   5.266
97773SOL     OW95215   1.977   0.596  13.086
97773SOL    HW195216   2.041   0.639  13.142
97773SOL    HW295217   1.963   0.658  13.014
97774SOL     OW95218  13.097   1.383   3.299
97774SOL    HW195219  13.152   1.368   3.376
97774SOL    HW295220  13.159   1.395   3.227
97775SOL     OW95221  10.881  12.010   2.268
97775SOL    HW195222  10.917  12.091   2.304
97775SOL    HW295223  10.787  12.014   2.289
97776SOL     OW95224   7.493   7.845  11.651
97776SOL    HW195225   7.426   7.904  11.617
97776SOL    HW295226   7.456   7.809  11.731
97777SOL     OW95227  10.595  12.872   4.317
97777SOL    HW195228  10.506  12.880   4.350
97777SOL    HW295229  10.586  12.877   4.222
97778SOL     OW95230   7.042   8.255  14.060
97778SOL    HW195231   7.006   8.339  14.091
97778SOL    HW295232   6.995   8.189  14.112
97779SOL     OW95233  13.420  11.815   2.778
97779SOL    HW195234  13.374  11.811   2.694
97779SOL    HW295235  13.447  11.906   2.787
97780SOL     OW95236  12.012   2.638   0.093
97780SOL    HW195237  12.046   2.557   0.130
97780SOL    HW295238  11.919   2.623   0.081
97781SOL     OW95239   4.946   8.695   0.341
97781SOL    HW195240   4.931   8.776   0.293
97781SOL    HW295241   4.951   8.628   0.274
97782SOL     OW95242   0.329   4.582  13.959
97782SOL    HW195243   0.292   4.545  13.880
97782SOL    HW295244   0.419   4.549  13.962
97783SOL     OW95245  13.936   3.457   8.088
97783SOL    HW195246  13.994   3.393   8.047
97783SOL    HW295247  13.967   3.542   8.055
97784SOL     OW95248  12.872  10.602   2.241
97784SOL    HW195249  12.887  10.509   2.226
97784SOL    HW295250  12.865  10.610   2.337
97785SOL     OW95251   2.739  14.590  11.335
97785SOL    HW195252   2.796  14.610  11.409
97785SOL    HW295253   2.796  14.546  11.272
97786SOL     OW95254   9.612   9.145   8.146
97786SOL    HW195255   9.519   9.167   8.133
97786SOL    HW295256   9.651   9.227   8.176
97787SOL     OW95257  10.558   9.222   2.467
97787SOL    HW195258  10.521   9.308   2.444
97787SOL    HW295259  10.512   9.197   2.547
97788SOL     OW95260   0.330   3.610   4.717
97788SOL    HW195261   0.310   3.601   4.624
97788SOL    HW295262   0.420   3.578   4.726
97789SOL     OW95263  12.833   1.751   0.547
97789SOL    HW195264  12.859   1.751   0.455
97789SOL    HW295265  12.824   1.844   0.569
97790SOL     OW95266   9.834   1.899   7.176
97790SOL    HW195267   9.893   1.893   7.101
97790SOL    HW295268   9.892   1.901   7.252
97791SOL     OW95269   1.847   3.004   5.007
97791SOL    HW195270   1.914   3.024   5.072
97791SOL    HW295271   1.770   3.052   5.036
97792SOL     OW95272  13.125  12.360  13.115
97792SOL    HW195273  13.068  12.417  13.168
97792SOL    HW295274  13.148  12.288  13.173
97793SOL     OW95275   8.722  12.831   5.033
97793SOL    HW195276   8.740  12.909   5.085
97793SOL    HW295277   8.645  12.792   5.073
97794SOL     OW95278  11.056  11.609   4.554
97794SOL    HW195279  11.050  11.527   4.504
97794SOL    HW295280  11.002  11.593   4.632
97795SOL     OW95281   7.440   4.382  10.170
97795SOL    HW195282   7.447   4.307  10.229
97795SOL    HW295283   7.423   4.343  10.084
97796SOL     OW95284  10.076   4.246   4.477
97796SOL    HW195285  10.063   4.183   4.548
97796SOL    HW295286  10.155   4.294   4.502
97797SOL     OW95287   0.042  13.473   9.478
97797SOL    HW195288   0.041  13.397   9.535
97797SOL    HW295289   0.016  13.546   9.534
97798SOL     OW95290   2.119   0.823   7.280
97798SOL    HW195291   2.145   0.730   7.281
97798SOL    HW295292   2.173   0.862   7.211
97799SOL     OW95293   0.526  13.798  12.770
97799SOL    HW195294   0.541  13.854  12.846
97799SOL    HW295295   0.557  13.711  12.797
97800SOL     OW95296   3.670  13.987  10.406
97800SOL    HW195297   3.623  14.011  10.326
97800SOL    HW295298   3.721  13.910  10.382
97801SOL     OW95299   1.713   8.424   5.949
97801SOL    HW195300   1.764   8.497   5.914
97801SOL    HW295301   1.717   8.357   5.881
97802SOL     OW95302  11.240   2.329   9.474
97802SOL    HW195303  11.285   2.352   9.555
97802SOL    HW295304  11.308   2.331   9.407
97803SOL     OW95305  13.715   7.307   1.421
97803SOL    HW195306  13.726   7.218   1.389
97803SOL    HW295307  13.803   7.343   1.424
97804SOL     OW95308  10.833   6.699  10.437
97804SOL    HW195309  10.891   6.763  10.480
97804SOL    HW295310  10.747   6.740  10.439
97805SOL     OW95311  11.696   9.964  12.896
97805SOL    HW195312  11.772   9.993  12.948
97805SOL    HW295313  11.729   9.960  12.807
97806SOL     OW95314   2.520  10.238   1.392
97806SOL    HW195315   2.541  10.299   1.322
97806SOL    HW295316   2.526  10.151   1.352
97807SOL     OW95317   6.096  14.532   6.699
97807SOL    HW195318   6.038  14.459   6.677
97807SOL    HW295319   6.171  14.521   6.641
97808SOL     OW95320   9.306   3.328   2.137
97808SOL    HW195321   9.227   3.380   2.126
97808SOL    HW295322   9.364   3.382   2.191
97809SOL     OW95323  13.167  12.469   1.708
97809SOL    HW195324  13.160  12.551   1.659
97809SOL    HW295325  13.169  12.497   1.800
97810SOL     OW95326  10.348   6.675   7.849
97810SOL    HW195327  10.365   6.652   7.757
97810SOL    HW295328  10.270   6.730   7.846
97811SOL     OW95329  12.034   1.437   7.612
97811SOL    HW195330  12.031   1.409   7.520
97811SOL    HW295331  12.096   1.377   7.653
97812SOL     OW95332   0.171   7.105  10.953
97812SOL    HW195333   0.124   7.075  10.875
97812SOL    HW295334   0.251   7.053  10.955
97813SOL     OW95335   0.491  12.118  13.497
97813SOL    HW195336   0.507  12.197  13.446
97813SOL    HW295337   0.400  12.095  13.478
97814SOL     OW95338   7.298  12.775   6.361
97814SOL    HW195339   7.365  12.746   6.422
97814SOL    HW295340   7.287  12.701   6.301
97815SOL     OW95341  13.215  14.520  12.267
97815SOL    HW195342  13.217  14.551  12.358
97815SOL    HW295343  13.159  14.443  12.269
97816SOL     OW95344  13.803   2.796   2.384
97816SOL    HW195345  13.808   2.760   2.296
97816SOL    HW295346  13.808   2.720   2.442
97817SOL     OW95347  11.827   5.944  12.028
97817SOL    HW195348  11.744   5.974  12.063
97817SOL    HW295349  11.885   6.020  12.033
97818SOL     OW95350   9.993  14.215   2.906
97818SOL    HW195351  10.055  14.267   2.958
97818SOL    HW295352   9.910  14.261   2.915
97819SOL     OW95353  11.955   6.322   7.488
97819SOL    HW195354  11.880   6.263   7.480
97819SOL    HW295355  11.990   6.328   7.399
97820SOL     OW95356  13.780   7.888   4.943
97820SOL    HW195357  13.818   7.961   4.893
97820SOL    HW295358  13.721   7.930   5.006
97821SOL     OW95359   3.797   9.752   8.820
97821SOL    HW195360   3.890   9.738   8.840
97821SOL    HW295361   3.797   9.821   8.753
97822SOL     OW95362  10.491   6.744   4.241
97822SOL    HW195363  10.397   6.738   4.221
97822SOL    HW295364  10.502   6.829   4.282
97823SOL     OW95365   5.121   3.617   7.919
97823SOL    HW195366   5.056   3.614   7.849
97823SOL    HW295367   5.073   3.646   7.996
97824SOL     OW95368   0.970  10.917   6.707
97824SOL    HW195369   0.993  11.005   6.677
97824SOL    HW295370   0.983  10.861   6.630
97825SOL     OW95371  11.563  11.387   0.281
97825SOL    HW195372  11.550  11.414   0.190
97825SOL    HW295373  11.490  11.329   0.300
97826SOL     OW95374   5.668  10.967   6.741
97826SOL    HW195375   5.587  10.955   6.692
97826SOL    HW295376   5.666  11.059   6.767
97827SOL     OW95377   9.883   1.707   6.172
97827SOL    HW195378   9.840   1.642   6.116
97827SOL    HW295379   9.941   1.656   6.228
97828SOL     OW95380   8.960   1.388   6.934
97828SOL    HW195381   8.904   1.402   7.010
97828SOL    HW295382   8.989   1.476   6.909
97829SOL     OW95383  12.251   9.647   0.010
97829SOL    HW195384  12.178   9.585   0.004
97829SOL    HW295385  12.305   9.628  14.814
97830SOL     OW95386  11.895  12.256  12.038
97830SOL    HW195387  11.936  12.171  12.057
97830SOL    HW295388  11.802  12.242  12.053
97831SOL     OW95389  14.561   7.748  10.266
97831SOL    HW195390  14.601   7.819  10.317
97831SOL    HW295391  14.568   7.671  10.323
97832SOL     OW95392   5.367   2.785   9.621
97832SOL    HW195393   5.300   2.743   9.676
97832SOL    HW295394   5.405   2.713   9.571
97833SOL     OW95395  14.067   3.985  14.147
97833SOL    HW195396  14.002   3.932  14.100
97833SOL    HW295397  14.025   4.070  14.156
97834SOL     OW95398  12.566   1.549   5.069
97834SOL    HW195399  12.489   1.529   5.122
97834SOL    HW295400  12.639   1.508   5.115
97835SOL     OW95401  14.379  14.408   3.605
97835SOL    HW195402  14.342  14.465   3.672
97835SOL    HW295403  14.319  14.415   3.531
97836SOL     OW95404   7.495   6.267  12.685
97836SOL    HW195405   7.449   6.284  12.602
97836SOL    HW295406   7.506   6.172  12.687
97837SOL     OW95407   8.378   8.227   9.397
97837SOL    HW195408   8.446   8.226   9.464
97837SOL    HW295409   8.380   8.139   9.360
97838SOL     OW95410  13.857  11.703   6.627
97838SOL    HW195411  13.934  11.738   6.672
97838SOL    HW295412  13.855  11.611   6.651
97839SOL     OW95413   6.586  13.704   6.862
97839SOL    HW195414   6.501  13.685   6.903
97839SOL    HW295415   6.620  13.618   6.837
97840SOL     OW95416  12.316   2.457  13.672
97840SOL    HW195417  12.309   2.362  13.668
97840SOL    HW295418  12.307   2.486  13.581
97841SOL     OW95419   0.775   6.983   1.046
97841SOL    HW195420   0.855   7.003   0.997
97841SOL    HW295421   0.806   6.945   1.128
97842SOL     OW95422   3.625   2.840   5.529
97842SOL    HW195423   3.669   2.831   5.613
97842SOL    HW295424   3.585   2.927   5.531
97843SOL     OW95425   0.208  11.573   6.770
97843SOL    HW195426   0.215  11.585   6.864
97843SOL    HW295427   0.149  11.498   6.759
97844SOL     OW95428  14.293   5.744   4.513
97844SOL    HW195429  14.264   5.832   4.538
97844SOL    HW295430  14.272   5.737   4.420
97845SOL     OW95431  11.181   8.233  12.057
97845SOL    HW195432  11.172   8.189  11.973
97845SOL    HW295433  11.178   8.162  12.121
97846SOL     OW95434  14.268  12.597   5.729
97846SOL    HW195435  14.173  12.582   5.722
97846SOL    HW295436  14.276  12.693   5.728
97847SOL     OW95437  14.251  11.530   9.411
97847SOL    HW195438  14.234  11.581   9.491
97847SOL    HW295439  14.285  11.446   9.443
97848SOL     OW95440  10.341   3.959  14.495
97848SOL    HW195441  10.289   3.920  14.565
97848SOL    HW295442  10.429   3.967  14.532
97849SOL     OW95443  12.506   5.884   1.900
97849SOL    HW195444  12.499   5.880   1.805
97849SOL    HW295445  12.420   5.856   1.931
97850SOL     OW95446   0.145   7.966   3.285
97850SOL    HW195447   0.186   7.935   3.204
97850SOL    HW295448   0.172   7.902   3.352
97851SOL     OW95449  13.379  10.646  10.402
97851SOL    HW195450  13.450  10.709  10.416
97851SOL    HW295451  13.339  10.672  10.319
97852SOL     OW95452  12.285   6.602  14.309
97852SOL    HW195453  12.281   6.648  14.393
97852SOL    HW295454  12.289   6.672  14.244
97853SOL     OW95455   1.696   9.175  13.636
97853SOL    HW195456   1.656   9.125  13.707
97853SOL    HW295457   1.663   9.134  13.556
97854SOL     OW95458  10.259   2.755   1.027
97854SOL    HW195459  10.310   2.675   1.037
97854SOL    HW295460  10.278   2.784   0.938
97855SOL     OW95461  14.041  13.233   9.433
97855SOL    HW195462  13.972  13.299   9.441
97855SOL    HW295463  14.122  13.281   9.448
97856SOL     OW95464   6.214   9.217  13.056
97856SOL    HW195465   6.213   9.239  13.150
97856SOL    HW295466   6.270   9.285  13.017
97857SOL     OW95467   0.212  10.802   8.907
97857SOL    HW195468   0.229  10.877   8.964
97857SOL    HW295469   0.295  10.786   8.862
97858SOL     OW95470  14.128  13.669   5.927
97858SOL    HW195471  14.121  13.760   5.895
97858SOL    HW295472  14.222  13.653   5.930
97859SOL     OW95473  13.689   2.110   5.423
97859SOL    HW195474  13.603   2.150   5.439
97859SOL    HW295475  13.751   2.180   5.443
97860SOL     OW95476   5.524   7.152   1.383
97860SOL    HW195477   5.524   7.060   1.409
97860SOL    HW295478   5.459   7.157   1.313
97861SOL     OW95479  13.365  13.410   0.358
97861SOL    HW195480  13.297  13.461   0.401
97861SOL    HW295481  13.376  13.451   0.272
97862SOL     OW95482  13.286   9.006   0.854
97862SOL    HW195483  13.288   8.972   0.943
97862SOL    HW295484  13.376   8.997   0.822
97863SOL     OW95485   3.044  12.173   5.980
97863SOL    HW195486   3.105  12.142   6.046
97863SOL    HW295487   2.968  12.116   5.988
97864SOL     OW95488   1.066   1.951  11.799
97864SOL    HW195489   1.042   2.012  11.729
97864SOL    HW295490   1.126   2.000  11.855
97865SOL     OW95491   0.665   0.999   4.908
97865SOL    HW195492   0.728   1.072   4.910
97865SOL    HW295493   0.655   0.973   4.999
97866SOL     OW95494   7.832  12.909  14.240
97866SOL    HW195495   7.869  12.821  14.251
97866SOL    HW295496   7.738  12.897  14.251
97867SOL     OW95497   1.263  13.264  13.198
97867SOL    HW195498   1.235  13.348  13.235
97867SOL    HW295499   1.190  13.205  13.215
97868SOL     OW95500   3.588   2.500  12.512
97868SOL    HW195501   3.647   2.428  12.534
97868SOL    HW295502   3.514   2.459  12.469
97869SOL     OW95503   0.508   7.997   9.185
97869SOL    HW195504   0.513   7.972   9.277
97869SOL    HW295505   0.447   8.071   9.184
97870SOL     OW95506  13.111   3.387   0.216
97870SOL    HW195507  13.120   3.426   0.128
97870SOL    HW295508  13.019   3.402   0.239
97871SOL     OW95509   4.308   7.874   5.132
97871SOL    HW195510   4.293   7.786   5.099
97871SOL    HW295511   4.403   7.880   5.142
97872SOL     OW95512  14.081  12.331   2.102
97872SOL    HW195513  14.061  12.389   2.028
97872SOL    HW295514  14.031  12.251   2.085
97873SOL     OW95515   8.877  13.741  13.532
97873SOL    HW195516   8.817  13.708  13.465
97873SOL    HW295517   8.893  13.666  13.589
97874SOL     OW95518   8.219   7.462   8.997
97874SOL    HW195519   8.200   7.502   8.912
97874SOL    HW295520   8.269   7.528   9.044
97875SOL     OW95521  13.522   1.281   4.917
97875SOL    HW195522  13.568   1.220   4.975
97875SOL    HW295523  13.515   1.361   4.968
97876SOL     OW95524   8.857  13.844  13.097
97876SOL    HW195525   8.951  13.826  13.099
97876SOL    HW295526   8.851  13.938  13.079
97877SOL     OW95527  12.828   2.407   9.895
97877SOL    HW195528  12.900   2.352   9.865
97877SOL    HW295529  12.767   2.346   9.937
97878SOL     OW95530   9.520  10.662   6.572
97878SOL    HW195531   9.559  10.670   6.485
97878SOL    HW295532   9.455  10.733   6.575
97879SOL     OW95533  12.904   6.423   5.572
97879SOL    HW195534  12.854   6.416   5.490
97879SOL    HW295535  12.856   6.367   5.634
97880SOL     OW95536  10.356  12.273   5.355
97880SOL    HW195537  10.428  12.218   5.386
97880SOL    HW295538  10.375  12.288   5.263
97881SOL     OW95539   7.502   4.926  12.254
97881SOL    HW195540   7.555   4.903  12.177
97881SOL    HW295541   7.506   4.848  12.309
97882SOL     OW95542  13.933  10.467   3.897
97882SOL    HW195543  13.893  10.381   3.883
97882SOL    HW295544  13.886  10.525   3.836
97883SOL     OW95545  13.779   3.498   4.378
97883SOL    HW195546  13.697   3.459   4.347
97883SOL    HW295547  13.840   3.485   4.306
97884SOL     OW95548  12.477   1.484  10.704
97884SOL    HW195549  12.508   1.411  10.651
97884SOL    HW295550  12.557   1.528  10.733
97885SOL     OW95551   1.740   5.583   0.486
97885SOL    HW195552   1.711   5.630   0.564
97885SOL    HW295553   1.772   5.499   0.519
97886SOL     OW95554   4.958   8.160  13.519
97886SOL    HW195555   4.905   8.092  13.561
97886SOL    HW295556   5.024   8.182  13.585
97887SOL     OW95557   3.196   1.020  11.578
97887SOL    HW195558   3.115   0.994  11.535
97887SOL    HW295559   3.232   0.938  11.613
97888SOL     OW95560   8.782   4.038   4.816
97888SOL    HW195561   8.871   4.047   4.783
97888SOL    HW295562   8.756   4.127   4.842
97889SOL     OW95563  12.354   8.659  10.293
97889SOL    HW195564  12.330   8.620  10.377
97889SOL    HW295565  12.315   8.746  10.295
97890SOL     OW95566  14.789   4.106   0.565
97890SOL    HW195567  14.710   4.055   0.584
97890SOL    HW295568  14.851   4.081   0.634
97891SOL     OW95569   3.674   3.859  14.793
97891SOL    HW195570   3.674   3.862   0.009
97891SOL    HW295571   3.591   3.816  14.771
97892SOL     OW95572   4.045  11.930   0.961
97892SOL    HW195573   3.964  11.882   0.941
97892SOL    HW295574   4.109  11.861   0.979
97893SOL     OW95575   9.001   8.678   4.018
97893SOL    HW195576   9.080   8.657   3.968
97893SOL    HW295577   8.999   8.773   4.021
97894SOL     OW95578   0.322  11.058  12.321
97894SOL    HW195579   0.245  11.083  12.269
97894SOL    HW295580   0.331  10.964  12.304
97895SOL     OW95581  14.472   0.909   0.089
97895SOL    HW195582  14.413   0.835   0.106
97895SOL    HW295583  14.559   0.876   0.111
97896SOL     OW95584  13.583   4.974   3.696
97896SOL    HW195585  13.622   4.887   3.705
97896SOL    HW295586  13.490   4.960   3.718
97897SOL     OW95587   3.384   8.260   8.470
97897SOL    HW195588   3.323   8.217   8.409
97897SOL    HW295589   3.330   8.285   8.545
97898SOL     OW95590  11.939   5.566   7.773
97898SOL    HW195591  11.875   5.494   7.771
97898SOL    HW295592  11.897   5.638   7.727
97899SOL     OW95593  12.739   4.112   2.281
97899SOL    HW195594  12.817   4.137   2.231
97899SOL    HW295595  12.764   4.126   2.373
97900SOL     OW95596   9.827   8.279   1.890
97900SOL    HW195597   9.829   8.372   1.869
97900SOL    HW295598   9.852   8.235   1.808
97901SOL     OW95599   3.295   9.799   8.516
97901SOL    HW195600   3.364   9.802   8.448
97901SOL    HW295601   3.334   9.746   8.586
97902SOL     OW95602   7.369  10.248   3.427
97902SOL    HW195603   7.282  10.250   3.467
97902SOL    HW295604   7.384  10.156   3.407
97903SOL     OW95605  12.541   9.027  13.354
97903SOL    HW195606  12.449   9.008  13.339
97903SOL    HW295607  12.587   8.980  13.284
97904SOL     OW95608   0.232   4.759   0.697
97904SOL    HW195609   0.298   4.689   0.691
97904SOL    HW295610   0.253   4.817   0.624
97905SOL     OW95611   8.360   6.489  14.880
97905SOL    HW195612   8.383   6.505   0.091
97905SOL    HW295613   8.299   6.560  14.858
97906SOL     OW95614   8.893  11.074   6.324
97906SOL    HW195615   8.942  11.016   6.382
97906SOL    HW295616   8.898  11.160   6.364
97907SOL     OW95617   0.504  13.390  12.537
97907SOL    HW195618   0.451  13.327  12.587
97907SOL    HW295619   0.466  13.475  12.559
97908SOL     OW95620   0.023   6.800   4.958
97908SOL    HW195621   0.036   6.857   5.034
97908SOL    HW295622   0.099   6.818   4.903
97909SOL     OW95623  14.034  12.835  13.328
97909SOL    HW195624  13.953  12.870  13.292
97909SOL    HW295625  14.100  12.851  13.261
97910SOL     OW95626  10.590  14.016  10.191
97910SOL    HW195627  10.608  13.986  10.102
97910SOL    HW295628  10.496  14.036  10.191
97911SOL     OW95629  13.293   1.431  11.167
97911SOL    HW195630  13.261   1.378  11.241
97911SOL    HW295631  13.217   1.440  11.110
97912SOL     OW95632   5.522   5.584  12.712
97912SOL    HW195633   5.484   5.597  12.800
97912SOL    HW295634   5.501   5.664  12.665
97913SOL     OW95635   6.853   6.728  13.102
97913SOL    HW195636   6.919   6.764  13.044
97913SOL    HW295637   6.793   6.680  13.044
97914SOL     OW95638   7.541   4.584  12.668
97914SOL    HW195639   7.453   4.547  12.664
97914SOL    HW295640   7.562   4.585  12.762
97915SOL     OW95641   9.330  14.569   8.743
97915SOL    HW195642   9.253  14.578   8.799
97915SOL    HW295643   9.316  14.631   8.672
97916SOL     OW95644   1.885  14.567   8.336
97916SOL    HW195645   1.850  14.570   8.425
97916SOL    HW295646   1.980  14.574   8.347
97917SOL     OW95647  12.367   4.299   9.437
97917SOL    HW195648  12.360   4.249   9.356
97917SOL    HW295649  12.299   4.366   9.429
97918SOL     OW95650   1.873  14.009   2.461
97918SOL    HW195651   1.862  13.973   2.549
97918SOL    HW295652   1.922  13.941   2.414
97919SOL     OW95653   2.129   4.044   2.312
97919SOL    HW195654   2.102   4.134   2.294
97919SOL    HW295655   2.048   3.994   2.312
97920SOL     OW95656   7.981   3.558   1.228
97920SOL    HW195657   8.069   3.551   1.265
97920SOL    HW295658   7.925   3.511   1.290
97921SOL     OW95659   7.321   8.461   1.002
97921SOL    HW195660   7.375   8.446   1.079
97921SOL    HW295661   7.379   8.503   0.939
97922SOL     OW95662   6.779   8.070   8.011
97922SOL    HW195663   6.730   8.032   8.084
97922SOL    HW295664   6.824   7.995   7.971
97923SOL     OW95665  11.791   5.338   7.329
97923SOL    HW195666  11.858   5.331   7.261
97923SOL    HW295667  11.809   5.421   7.372
97924SOL     OW95668  13.345  12.527   8.877
97924SOL    HW195669  13.347  12.502   8.969
97924SOL    HW295670  13.437  12.531   8.851
97925SOL     OW95671   0.915  13.782   1.859
97925SOL    HW195672   0.870  13.846   1.803
97925SOL    HW295673   0.948  13.834   1.933
97926SOL     OW95674  12.127   6.109   1.278
97926SOL    HW195675  12.124   6.045   1.349
97926SOL    HW295676  12.037   6.138   1.268
97927SOL     OW95677   6.330   0.526  14.621
97927SOL    HW195678   6.246   0.572  14.627
97927SOL    HW295679   6.354   0.509  14.712
97928SOL     OW95680  14.418   9.073   2.419
97928SOL    HW195681  14.449   9.124   2.494
97928SOL    HW295682  14.345   9.124   2.384
97929SOL     OW95683   4.159   3.975   4.116
97929SOL    HW195684   4.230   4.034   4.144
97929SOL    HW295685   4.194   3.887   4.131
97930SOL     OW95686   2.206   4.956  11.247
97930SOL    HW195687   2.199   4.903  11.327
97930SOL    HW295688   2.299   4.963  11.230
97931SOL     OW95689   8.792   3.148   1.342
97931SOL    HW195690   8.857   3.083   1.316
97931SOL    HW295691   8.753   3.176   1.259
97932SOL     OW95692   5.240   3.700   8.641
97932SOL    HW195693   5.254   3.647   8.719
97932SOL    HW295694   5.235   3.790   8.674
97933SOL     OW95695   4.093  12.428  12.181
97933SOL    HW195696   4.004  12.452  12.209
97933SOL    HW295697   4.106  12.340  12.215
97934SOL     OW95698   5.755   3.134   4.199
97934SOL    HW195699   5.694   3.130   4.126
97934SOL    HW295700   5.838   3.104   4.163
97935SOL     OW95701  10.548   2.884  13.693
97935SOL    HW195702  10.635   2.849  13.712
97935SOL    HW295703  10.520   2.837  13.615
97936SOL     OW95704   7.792  10.609  14.857
97936SOL    HW195705   7.883  10.585  14.874
97936SOL    HW295706   7.774  10.680   0.038
97937SOL     OW95707   7.643  10.252   9.849
97937SOL    HW195708   7.553  10.261   9.819
97937SOL    HW295709   7.647  10.302   9.931
97938SOL     OW95710   6.358   3.264  14.484
97938SOL    HW195711   6.418   3.203  14.440
97938SOL    HW295712   6.277   3.258  14.434
97939SOL     OW95713  14.695   5.783  11.044
97939SOL    HW195714  14.725   5.839  11.116
97939SOL    HW295715  14.776   5.744  11.009
97940SOL     OW95716   2.223   4.070   4.997
97940SOL    HW195717   2.221   4.012   5.072
97940SOL    HW295718   2.132   4.093   4.981
97941SOL     OW95719  14.519  13.204   5.626
97941SOL    HW195720  14.563  13.155   5.696
97941SOL    HW295721  14.578  13.197   5.551
97942SOL     OW95722   4.420   6.954   7.220
97942SOL    HW195723   4.488   6.901   7.262
97942SOL    HW295724   4.422   6.926   7.128
97943SOL     OW95725   9.819   8.822   0.343
97943SOL    HW195726   9.909   8.855   0.336
97943SOL    HW295727   9.798   8.830   0.436
97944SOL     OW95728   8.624   0.315  11.387
97944SOL    HW195729   8.636   0.346  11.477
97944SOL    HW295730   8.576   0.233  11.397
97945SOL     OW95731   1.660  12.088  12.159
97945SOL    HW195732   1.729  12.133  12.207
97945SOL    HW295733   1.699  12.070  12.073
97946SOL     OW95734   8.252  11.096   2.453
97946SOL    HW195735   8.156  11.091   2.450
97946SOL    HW295736   8.270  11.183   2.487
97947SOL     OW95737   5.956  13.602   7.155
97947SOL    HW195738   5.905  13.664   7.206
97947SOL    HW295739   5.892  13.554   7.104
97948SOL     OW95740   9.374  14.159   0.419
97948SOL    HW195741   9.291  14.117   0.441
97948SOL    HW295742   9.361  14.195   0.331
97949SOL     OW95743   0.531  12.706   4.834
97949SOL    HW195744   0.618  12.715   4.795
97949SOL    HW295745   0.489  12.791   4.820
97950SOL     OW95746   8.982  14.864   9.681
97950SOL    HW195747   9.077  14.873   9.693
97950SOL    HW295748   8.945   0.004   9.767
97951SOL     OW95749   2.592   8.995  11.209
97951SOL    HW195750   2.661   8.930  11.194
97951SOL    HW295751   2.635   9.079  11.196
97952SOL     OW95752   4.539   6.069   2.775
97952SOL    HW195753   4.531   6.020   2.693
97952SOL    HW295754   4.472   6.032   2.832
97953SOL     OW95755   9.281   4.480  11.681
97953SOL    HW195756   9.186   4.484  11.672
97953SOL    HW295757   9.296   4.411  11.746
97954SOL     OW95758   9.000  12.305  12.803
97954SOL    HW195759   9.027  12.214  12.808
97954SOL    HW295760   9.007  12.328  12.710
97955SOL     OW95761  11.255   5.073   8.621
97955SOL    HW195762  11.343   5.077   8.584
97955SOL    HW295763  11.198   5.066   8.544
97956SOL     OW95764  14.547   7.591   8.415
97956SOL    HW195765  14.599   7.667   8.441
97956SOL    HW295766  14.492   7.623   8.344
97957SOL     OW95767   2.380  10.093  14.391
97957SOL    HW195768   2.286  10.087  14.372
97957SOL    HW295769   2.403  10.183  14.369
97958SOL     OW95770   8.244   3.781  13.783
97958SOL    HW195771   8.259   3.861  13.732
97958SOL    HW295772   8.206   3.812  13.865
97959SOL     OW95773   4.368  11.252  10.564
97959SOL    HW195774   4.310  11.299  10.504
97959SOL    HW295775   4.453  11.249  10.519
97960SOL     OW95776   9.591  11.312  11.680
97960SOL    HW195777   9.502  11.285  11.703
97960SOL    HW295778   9.592  11.313  11.584
97961SOL     OW95779   3.805   1.118  11.975
97961SOL    HW195780   3.866   1.175  11.928
97961SOL    HW295781   3.751   1.177  12.027
97962SOL     OW95782  12.618   2.803   4.069
97962SOL    HW195783  12.540   2.774   4.116
97962SOL    HW295784  12.690   2.757   4.111
97963SOL     OW95785   8.361   0.182   5.618
97963SOL    HW195786   8.337   0.120   5.687
97963SOL    HW295787   8.456   0.178   5.615
97964SOL     OW95788  13.686  11.423  10.327
97964SOL    HW195789  13.741  11.466  10.393
97964SOL    HW295790  13.596  11.433  10.360
97965SOL     OW95791   7.929   8.309   2.777
97965SOL    HW195792   7.966   8.229   2.814
97965SOL    HW295793   8.004   8.368   2.770
97966SOL     OW95794  10.113   6.405   4.100
97966SOL    HW195795  10.033   6.397   4.151
97966SOL    HW295796  10.175   6.348   4.144
97967SOL     OW95797  13.882  11.294  10.992
97967SOL    HW195798  13.799  11.342  10.987
97967SOL    HW295799  13.933  11.327  10.918
97968SOL     OW95800   6.787  11.163   2.278
97968SOL    HW195801   6.859  11.203   2.326
97968SOL    HW295802   6.779  11.075   2.314
97969SOL     OW95803   0.617  13.687   9.290
97969SOL    HW195804   0.595  13.775   9.320
97969SOL    HW295805   0.533  13.644   9.277
97970SOL     OW95806   6.593  14.124   1.907
97970SOL    HW195807   6.518  14.174   1.874
97970SOL    HW295808   6.666  14.185   1.904
97971SOL     OW95809   5.876   6.943  11.961
97971SOL    HW195810   5.830   6.932  11.877
97971SOL    HW295811   5.854   6.863  12.010
97972SOL     OW95812   5.584  11.845   1.364
97972SOL    HW195813   5.595  11.801   1.448
97972SOL    HW295814   5.673  11.865   1.336
97973SOL     OW95815   7.486   1.961   9.369
97973SOL    HW195816   7.465   2.020   9.297
97973SOL    HW295817   7.426   1.987   9.439
97974SOL     OW95818  11.888   5.320   6.247
97974SOL    HW195819  11.875   5.279   6.161
97974SOL    HW295820  11.809   5.297   6.296
97975SOL     OW95821   0.192   3.204   6.345
97975SOL    HW195822   0.281   3.213   6.381
97975SOL    HW295823   0.206   3.201   6.250
97976SOL     OW95824   7.851  10.054   0.803
97976SOL    HW195825   7.769  10.026   0.763
97976SOL    HW295826   7.846  10.150   0.803
97977SOL     OW95827   0.034   6.032   3.304
97977SOL    HW195828   0.017   6.068   3.391
97977SOL    HW295829   0.126   6.007   3.305
97978SOL     OW95830   1.751   0.084   7.303
97978SOL    HW195831   1.731   0.095   7.396
97978SOL    HW295832   1.740   0.171   7.265
97979SOL     OW95833   5.873  10.070   1.537
97979SOL    HW195834   5.791  10.097   1.579
97979SOL    HW295835   5.937  10.133   1.568
97980SOL     OW95836   1.460  13.875   7.671
97980SOL    HW195837   1.466  13.789   7.629
97980SOL    HW295838   1.366  13.892   7.677
97981SOL     OW95839  14.837   8.253   7.364
97981SOL    HW195840   0.017   8.287   7.298
97981SOL    HW295841  14.868   8.290   7.446
97982SOL     OW95842  11.073   8.759  10.022
97982SOL    HW195843  11.111   8.746  10.109
97982SOL    HW295844  10.991   8.711  10.024
97983SOL     OW95845   4.998  10.498  14.671
97983SOL    HW195846   4.997  10.403  14.673
97983SOL    HW295847   4.982  10.520  14.579
97984SOL     OW95848  12.715   2.256  11.990
97984SOL    HW195849  12.784   2.267  11.925
97984SOL    HW295850  12.705   2.161  11.998
97985SOL     OW95851  14.511  11.717  10.452
97985SOL    HW195852  14.508  11.625  10.426
97985SOL    HW295853  14.545  11.715  10.541
97986SOL     OW95854  10.692   0.879   4.729
97986SOL    HW195855  10.619   0.899   4.788
97986SOL    HW295856  10.668   0.922   4.647
97987SOL     OW95857  11.927   8.425   4.693
97987SOL    HW195858  11.923   8.432   4.597
97987SOL    HW295859  12.011   8.464   4.716
97988SOL     OW95860   7.001   0.433  12.273
97988SOL    HW195861   7.067   0.503  12.270
97988SOL    HW295862   6.925   0.469  12.227
97989SOL     OW95863  10.400   9.525  12.319
97989SOL    HW195864  10.333   9.522  12.386
97989SOL    HW295865  10.354   9.552  12.240
97990SOL     OW95866   2.563   6.431   2.728
97990SOL    HW195867   2.575   6.346   2.772
97990SOL    HW295868   2.614   6.423   2.647
97991SOL     OW95869  13.015  14.296  12.280
97991SOL    HW195870  12.979  14.265  12.197
97991SOL    HW295871  13.081  14.231  12.304
97992SOL     OW95872   3.384   0.915   7.414
97992SOL    HW195873   3.382   0.856   7.489
97992SOL    HW295874   3.337   0.869   7.345
97993SOL     OW95875   0.196  11.156   5.301
97993SOL    HW195876   0.232  11.133   5.387
97993SOL    HW295877   0.236  11.094   5.241
97994SOL     OW95878   9.167  12.771  14.076
97994SOL    HW195879   9.141  12.803  13.989
97994SOL    HW295880   9.088  12.782  14.130
97995SOL     OW95881   6.760  14.082   6.961
97995SOL    HW195882   6.785  14.032   7.039
97995SOL    HW295883   6.785  14.172   6.982
97996SOL     OW95884  14.572  11.863   9.632
97996SOL    HW195885  14.477  11.876   9.627
97996SOL    HW295886  14.608  11.935   9.580
97997SOL     OW95887   2.860   1.983   5.400
97997SOL    HW195888   2.863   2.007   5.308
97997SOL    HW295889   2.936   1.927   5.413
97998SOL     OW95890   1.441   2.932  10.260
97998SOL    HW195891   1.502   2.931  10.186
97998SOL    HW295892   1.455   3.017  10.302
97999SOL     OW95893  10.705   6.483   5.376
97999SOL    HW195894  10.609   6.488   5.386
97999SOL    HW295895  10.738   6.559   5.424
98000SOL     OW95896  10.673  11.303  10.025
98000SOL    HW195897  10.657  11.356  10.103
98000SOL    HW295898  10.762  11.269  10.037
98001SOL     OW95899   1.048   9.558   1.669
98001SOL    HW195900   1.075   9.575   1.759
98001SOL    HW295901   1.089   9.475   1.646
98002SOL     OW95902   6.133   8.686   6.281
98002SOL    HW195903   6.054   8.663   6.331
98002SOL    HW295904   6.188   8.608   6.287
98003SOL     OW95905  12.554   8.288  10.685
98003SOL    HW195906  12.578   8.222  10.621
98003SOL    HW295907  12.555   8.370  10.636
98004SOL     OW95908   2.583   8.546  11.815
98004SOL    HW195909   2.655   8.522  11.872
98004SOL    HW295910   2.622   8.603  11.749
98005SOL     OW95911   3.127  10.446   7.902
98005SOL    HW195912   3.135  10.443   7.806
98005SOL    HW295913   3.051  10.391   7.921
98006SOL     OW95914   7.236   7.920   5.445
98006SOL    HW195915   7.237   8.013   5.424
98006SOL    HW295916   7.257   7.917   5.539
98007SOL     OW95917   2.010   1.023   8.192
98007SOL    HW195918   1.958   1.003   8.114
98007SOL    HW295919   1.961   0.983   8.264
98008SOL     OW95920   2.167   2.641   0.919
98008SOL    HW195921   2.175   2.552   0.886
98008SOL    HW295922   2.093   2.637   0.980
98009SOL     OW95923   5.331   8.921   9.710
98009SOL    HW195924   5.302   9.009   9.736
98009SOL    HW295925   5.265   8.862   9.746
98010SOL     OW95926   4.797  14.539   7.520
98010SOL    HW195927   4.713  14.512   7.559
98010SOL    HW295928   4.801  14.490   7.437
98011SOL     OW95929  13.407  13.957  10.662
98011SOL    HW195930  13.319  13.986  10.683
98011SOL    HW295931  13.441  14.025  10.604
98012SOL     OW95932   9.398   6.098   8.205
98012SOL    HW195933   9.414   6.158   8.132
98012SOL    HW295934   9.303   6.096   8.216
98013SOL     OW95935   1.267   2.749   9.528
98013SOL    HW195936   1.188   2.762   9.476
98013SOL    HW295937   1.329   2.814   9.496
98014SOL     OW95938  12.850   6.721  13.519
98014SOL    HW195939  12.941   6.718  13.488
98014SOL    HW295940  12.854   6.687  13.608
98015SOL     OW95941   1.686  13.436  12.239
98015SOL    HW195942   1.617  13.496  12.211
98015SOL    HW295943   1.676  13.430  12.334
98016SOL     OW95944   2.647   8.436   0.530
98016SOL    HW195945   2.650   8.497   0.604
98016SOL    HW295946   2.555   8.434   0.504
98017SOL     OW95947   7.057   9.855  10.781
98017SOL    HW195948   7.002   9.878  10.706
98017SOL    HW295949   7.074   9.939  10.824
98018SOL     OW95950   5.328   9.766   6.663
98018SOL    HW195951   5.405   9.804   6.704
98018SOL    HW295952   5.256   9.788   6.722
98019SOL     OW95953   2.018  10.279  13.271
98019SOL    HW195954   2.017  10.187  13.295
98019SOL    HW295955   1.967  10.322  13.339
98020SOL     OW95956   9.329   5.474   1.064
98020SOL    HW195957   9.349   5.418   0.989
98020SOL    HW295958   9.335   5.563   1.030
98021SOL     OW95959   2.255   5.176   0.945
98021SOL    HW195960   2.205   5.227   1.009
98021SOL    HW295961   2.333   5.230   0.927
98022SOL     OW95962   2.852   6.394   2.052
98022SOL    HW195963   2.878   6.476   2.010
98022SOL    HW295964   2.934   6.345   2.060
98023SOL     OW95965   1.221   7.605   8.969
98023SOL    HW195966   1.222   7.640   9.058
98023SOL    HW295967   1.173   7.523   8.975
98024SOL     OW95968  13.166  11.117   9.677
98024SOL    HW195969  13.138  11.179   9.609
98024SOL    HW295970  13.208  11.046   9.629
98025SOL     OW95971   9.245  12.464  13.952
98025SOL    HW195972   9.219  12.541  14.001
98025SOL    HW295973   9.251  12.394  14.017
98026SOL     OW95974   8.511  11.371  11.143
98026SOL    HW195975   8.444  11.369  11.213
98026SOL    HW295976   8.531  11.278  11.128
98027SOL     OW95977   7.524   4.725   7.620
98027SOL    HW195978   7.469   4.795   7.653
98027SOL    HW295979   7.469   4.647   7.625
98028SOL     OW95980  12.465   4.177  12.123
98028SOL    HW195981  12.389   4.231  12.141
98028SOL    HW295982  12.461   4.161  12.028
98029SOL     OW95983   3.518   5.623   6.663
98029SOL    HW195984   3.583   5.646   6.730
98029SOL    HW295985   3.463   5.557   6.705
98030SOL     OW95986   9.409   2.414   8.745
98030SOL    HW195987   9.454   2.375   8.820
98030SOL    HW295988   9.367   2.492   8.780
98031SOL     OW95989   4.629   1.383   3.418
98031SOL    HW195990   4.591   1.322   3.482
98031SOL    HW295991   4.708   1.416   3.461
98032SOL     OW95992  10.714  12.409  11.004
98032SOL    HW195993  10.680  12.472  11.067
98032SOL    HW295994  10.762  12.463  10.940
98033SOL     OW95995  11.086   7.142   4.433
98033SOL    HW195996  10.995   7.158   4.456
98033SOL    HW295997  11.084   7.070   4.370
98034SOL     OW95998   9.849   1.040  13.447
98034SOL    HW195999   9.903   1.110  13.410
98034SOL    HW296000   9.912   0.980  13.487
98035SOL     OW96001   3.230   6.669   0.791
98035SOL    HW196002   3.238   6.728   0.717
98035SOL    HW296003   3.315   6.624   0.795
98036SOL     OW96004   2.466   1.696   8.817
98036SOL    HW196005   2.538   1.742   8.861
98036SOL    HW296006   2.466   1.608   8.855
98037SOL     OW96007   3.410  10.466   4.990
98037SOL    HW196008   3.496  10.496   5.018
98037SOL    HW296009   3.421  10.445   4.897
98038SOL     OW96010   6.008   5.402   0.471
98038SOL    HW196011   5.945   5.461   0.511
98038SOL    HW296012   6.087   5.455   0.462
98039SOL     OW96013   4.894   5.285  11.924
98039SOL    HW196014   4.924   5.374  11.942
98039SOL    HW296015   4.932   5.232  11.994
98040SOL     OW96016   1.053   4.649  10.563
98040SOL    HW196017   1.108   4.700  10.502
98040SOL    HW296018   0.980   4.619  10.509
98041SOL     OW96019  12.173   8.008  14.747
98041SOL    HW196020  12.166   8.104  14.745
98041SOL    HW296021  12.089   7.978  14.783
98042SOL     OW96022   8.679   0.998   1.504
98042SOL    HW196023   8.709   0.927   1.448
98042SOL    HW296024   8.623   0.955   1.569
98043SOL     OW96025   5.035   8.267   4.240
98043SOL    HW196026   5.098   8.339   4.248
98043SOL    HW296027   5.089   8.190   4.221
98044SOL     OW96028  10.267   5.126  11.428
98044SOL    HW196029  10.187   5.076  11.413
98044SOL    HW296030  10.275   5.131  11.524
98045SOL     OW96031  13.518   1.223  12.502
98045SOL    HW196032  13.589   1.160  12.516
98045SOL    HW296033  13.482   1.201  12.417
98046SOL     OW96034   7.649   9.964  12.966
98046SOL    HW196035   7.588   9.903  13.009
98046SOL    HW296036   7.728   9.913  12.952
98047SOL     OW96037   2.739   4.468  10.760
98047SOL    HW196038   2.716   4.402  10.826
98047SOL    HW296039   2.675   4.538  10.773
98048SOL     OW96040  11.554   7.419  11.421
98048SOL    HW196041  11.605   7.385  11.348
98048SOL    HW296042  11.486   7.473  11.380
98049SOL     OW96043   2.076   5.139   9.357
98049SOL    HW196044   2.144   5.147   9.425
98049SOL    HW296045   2.090   5.052   9.320
98050SOL     OW96046   1.986  12.483  12.468
98050SOL    HW196047   2.038  12.560  12.487
98050SOL    HW296048   2.006  12.422  12.539
98051SOL     OW96049  11.441  11.401   5.807
98051SOL    HW196050  11.429  11.406   5.712
98051SOL    HW296051  11.354  11.419   5.843
98052SOL     OW96052  11.295   5.086   4.435
98052SOL    HW196053  11.258   5.172   4.457
98052SOL    HW296054  11.286   5.080   4.340
98053SOL     OW96055  12.903  11.817   3.855
98053SOL    HW196056  12.996  11.838   3.862
98053SOL    HW296057  12.881  11.835   3.764
98054SOL     OW96058  11.064   8.944   1.583
98054SOL    HW196059  11.083   9.025   1.536
98054SOL    HW296060  10.973   8.953   1.612
98055SOL     OW96061   3.312   2.854  10.236
98055SOL    HW196062   3.301   2.869  10.142
98055SOL    HW296063   3.405   2.872  10.252
98056SOL     OW96064   4.006  14.614  13.437
98056SOL    HW196065   3.946  14.586  13.368
98056SOL    HW296066   4.079  14.655  13.390
98057SOL     OW96067   0.373   4.045   0.575
98057SOL    HW196068   0.440   3.985   0.542
98057SOL    HW296069   0.355   4.105   0.502
98058SOL     OW96070   1.412   8.199   6.918
98058SOL    HW196071   1.353   8.128   6.944
98058SOL    HW296072   1.429   8.248   6.998
98059SOL     OW96073  14.617   8.874  10.240
98059SOL    HW196074  14.650   8.958  10.270
98059SOL    HW296075  14.538   8.895  10.190
98060SOL     OW96076   2.218   8.928  14.367
98060SOL    HW196077   2.227   8.990  14.295
98060SOL    HW296078   2.300   8.877  14.365
98061SOL     OW96079   3.935  13.574   3.663
98061SOL    HW196080   3.888  13.594   3.744
98061SOL    HW296081   3.973  13.657   3.636
98062SOL     OW96082  10.550  10.380  10.426
98062SOL    HW196083  10.595  10.433  10.361
98062SOL    HW296084  10.575  10.290  10.405
98063SOL     OW96085   2.131   5.765  10.285
98063SOL    HW196086   2.073   5.746  10.211
98063SOL    HW296087   2.172   5.849  10.262
98064SOL     OW96088   5.297  12.490  12.818
98064SOL    HW196089   5.269  12.580  12.832
98064SOL    HW296090   5.361  12.496  12.748
98065SOL     OW96091  12.170   0.714  12.680
98065SOL    HW196092  12.151   0.743  12.769
98065SOL    HW296093  12.191   0.794  12.632
98066SOL     OW96094   5.492  13.112   9.137
98066SOL    HW196095   5.474  13.028   9.180
98066SOL    HW296096   5.544  13.160   9.201
98067SOL     OW96097  12.630  13.681   3.650
98067SOL    HW196098  12.717  13.646   3.631
98067SOL    HW296099  12.618  13.666   3.743
98068SOL     OW96100  10.760   3.574  14.168
98068SOL    HW196101  10.854   3.594  14.169
98068SOL    HW296102  10.731   3.591  14.258
98069SOL     OW96103  12.373   8.224   4.299
98069SOL    HW196104  12.426   8.290   4.253
98069SOL    HW296105  12.426   8.199   4.375
98070SOL     OW96106  11.564   1.340   8.807
98070SOL    HW196107  11.591   1.276   8.874
98070SOL    HW296108  11.469   1.345   8.816
98071SOL     OW96109  13.079  11.821   2.714
98071SOL    HW196110  13.149  11.791   2.655
98071SOL    HW296111  13.003  11.769   2.689
98072SOL     OW96112   4.164  13.786  11.990
98072SOL    HW196113   4.133  13.773  11.901
98072SOL    HW296114   4.217  13.708  12.009
98073SOL     OW96115  10.000   5.460   7.847
98073SOL    HW196116   9.955   5.426   7.924
98073SOL    HW296117  10.086   5.417   7.848
98074SOL     OW96118   5.401  11.574   8.815
98074SOL    HW196119   5.391  11.667   8.796
98074SOL    HW296120   5.405  11.569   8.911
98075SOL     OW96121   6.263  12.360   6.195
98075SOL    HW196122   6.220  12.275   6.208
98075SOL    HW296123   6.353  12.346   6.225
98076SOL     OW96124  10.663   6.869   7.531
98076SOL    HW196125  10.632   6.796   7.584
98076SOL    HW296126  10.750   6.843   7.503
98077SOL     OW96127  12.700   6.496   8.905
98077SOL    HW196128  12.624   6.531   8.858
98077SOL    HW296129  12.775   6.524   8.852
98078SOL     OW96130   3.542  14.764   7.750
98078SOL    HW196131   3.585  14.730   7.671
98078SOL    HW296132   3.462  14.713   7.758
98079SOL     OW96133   9.025   9.702   2.130
98079SOL    HW196134   8.946   9.719   2.182
98079SOL    HW296135   8.999   9.633   2.069
98080SOL     OW96136  13.753  12.027   5.039
98080SOL    HW196137  13.790  11.978   4.966
98080SOL    HW296138  13.667  11.987   5.054
98081SOL     OW96139  12.245   4.379   1.178
98081SOL    HW196140  12.291   4.439   1.237
98081SOL    HW296141  12.169   4.429   1.148
98082SOL     OW96142   6.061   8.167  10.716
98082SOL    HW196143   6.115   8.239  10.681
98082SOL    HW296144   5.976   8.208  10.733
98083SOL     OW96145  12.195   1.075  12.245
98083SOL    HW196146  12.184   0.980  12.241
98083SOL    HW296147  12.271   1.092  12.189
98084SOL     OW96148   6.522  11.615  14.022
98084SOL    HW196149   6.518  11.523  14.048
98084SOL    HW296150   6.601  11.622  13.969
98085SOL     OW96151   6.345  10.759   4.326
98085SOL    HW196152   6.383  10.761   4.414
98085SOL    HW296153   6.253  10.780   4.340
98086SOL     OW96154   1.851   2.914  14.691
98086SOL    HW196155   1.945   2.906  14.705
98086SOL    HW296156   1.815   2.928  14.779
98087SOL     OW96157  11.383   0.866  11.048
98087SOL    HW196158  11.401   0.948  11.002
98087SOL    HW296159  11.456   0.856  11.109
98088SOL     OW96160   8.765   1.427   4.395
98088SOL    HW196161   8.729   1.402   4.310
98088SOL    HW296162   8.695   1.476   4.437
98089SOL     OW96163   1.630  13.695  10.922
98089SOL    HW196164   1.548  13.673  10.877
98089SOL    HW296165   1.633  13.791  10.921
98090SOL     OW96166  12.768   9.785   2.887
98090SOL    HW196167  12.775   9.698   2.927
98090SOL    HW296168  12.770   9.769   2.793
98091SOL     OW96169   4.401   1.295   4.564
98091SOL    HW196170   4.430   1.349   4.490
98091SOL    HW296171   4.339   1.233   4.526
98092SOL     OW96172  11.267   6.393   2.598
98092SOL    HW196173  11.201   6.325   2.606
98092SOL    HW296174  11.326   6.361   2.530
98093SOL     OW96175   8.007   7.083  12.624
98093SOL    HW196176   7.963   7.081  12.709
98093SOL    HW296177   8.050   6.997  12.618
98094SOL     OW96178   4.731   7.615   3.994
98094SOL    HW196179   4.815   7.658   4.006
98094SOL    HW296180   4.753   7.524   3.976
98095SOL     OW96181   5.834   8.613  14.389
98095SOL    HW196182   5.921   8.643  14.413
98095SOL    HW296183   5.843   8.518  14.379
98096SOL     OW96184   7.824   1.082   2.338
98096SOL    HW196185   7.764   1.016   2.375
98096SOL    HW296186   7.911   1.052   2.365
98097SOL     OW96187   3.112   6.622   2.855
98097SOL    HW196188   3.108   6.532   2.822
98097SOL    HW296189   3.130   6.676   2.778
98098SOL     OW96190  10.222   6.225   0.798
98098SOL    HW196191  10.287   6.291   0.774
98098SOL    HW296192  10.246   6.200   0.887
98099SOL     OW96193   7.480   1.491   8.042
98099SOL    HW196194   7.479   1.584   8.063
98099SOL    HW296195   7.394   1.474   8.005
98100SOL     OW96196   9.627  11.014   1.295
98100SOL    HW196197   9.697  10.957   1.265
98100SOL    HW296198   9.546  10.968   1.272
98101SOL     OW96199   3.291  10.865   1.015
98101SOL    HW196200   3.293  10.783   0.966
98101SOL    HW296201   3.212  10.858   1.070
98102SOL     OW96202   3.587   3.686   3.700
98102SOL    HW196203   3.537   3.649   3.773
98102SOL    HW296204   3.592   3.780   3.719
98103SOL     OW96205   5.611  12.569  11.770
98103SOL    HW196206   5.653  12.483  11.769
98103SOL    HW296207   5.677  12.628  11.733
98104SOL     OW96208   5.594   5.170   5.658
98104SOL    HW196209   5.642   5.246   5.690
98104SOL    HW296210   5.503   5.201   5.649
98105SOL     OW96211   8.569  11.507   6.826
98105SOL    HW196212   8.535  11.432   6.777
98105SOL    HW296213   8.491  11.556   6.852
98106SOL     OW96214   7.668  11.776   3.667
98106SOL    HW196215   7.594  11.723   3.638
98106SOL    HW296216   7.631  11.863   3.681
98107SOL     OW96217   8.603   9.161   4.131
98107SOL    HW196218   8.545   9.141   4.057
98107SOL    HW296219   8.680   9.199   4.090
98108SOL     OW96220  11.980   9.325   5.586
98108SOL    HW196221  12.042   9.391   5.618
98108SOL    HW296222  11.982   9.257   5.653
98109SOL     OW96223   2.088   4.575   6.988
98109SOL    HW196224   2.156   4.512   6.966
98109SOL    HW296225   2.010   4.522   7.004
98110SOL     OW96226   3.952  10.126   6.318
98110SOL    HW196227   4.006  10.048   6.329
98110SOL    HW296228   3.886  10.120   6.388
98111SOL     OW96229   3.017  13.272   3.751
98111SOL    HW196230   3.059  13.252   3.834
98111SOL    HW296231   2.942  13.212   3.746
98112SOL     OW96232  14.169  13.098  12.766
98112SOL    HW196233  14.102  13.116  12.833
98112SOL    HW296234  14.202  13.185  12.742
98113SOL     OW96235   9.640  13.412   1.062
98113SOL    HW196236   9.651  13.322   1.091
98113SOL    HW296237   9.660  13.409   0.968
98114SOL     OW96238   3.011  12.240  13.592
98114SOL    HW196239   3.066  12.264  13.517
98114SOL    HW296240   3.033  12.148  13.608
98115SOL     OW96241   4.423   5.416   6.201
98115SOL    HW196242   4.463   5.466   6.129
98115SOL    HW296243   4.489   5.417   6.270
98116SOL     OW96244  10.198   7.160  14.062
98116SOL    HW196245  10.144   7.201  14.129
98116SOL    HW296246  10.169   7.200  13.980
98117SOL     OW96247  13.290   2.656   8.834
98117SOL    HW196248  13.284   2.605   8.754
98117SOL    HW296249  13.314   2.593   8.901
98118SOL     OW96250   6.872  13.628   0.547
98118SOL    HW196251   6.961  13.643   0.516
98118SOL    HW296252   6.826  13.710   0.529
98119SOL     OW96253   9.932   3.614   7.483
98119SOL    HW196254   9.875   3.677   7.440
98119SOL    HW296255  10.001   3.597   7.419
98120SOL     OW96256   8.663   8.857   0.602
98120SOL    HW196257   8.633   8.767   0.604
98120SOL    HW296258   8.591   8.907   0.639
98121SOL     OW96259  12.937   8.558   3.328
98121SOL    HW196260  13.005   8.509   3.373
98121SOL    HW296261  12.983   8.628   3.283
98122SOL     OW96262  11.896  13.227  14.473
98122SOL    HW196263  11.922  13.210  14.564
98122SOL    HW296264  11.800  13.231  14.476
98123SOL     OW96265  10.996   9.595   0.263
98123SOL    HW196266  10.910   9.623   0.295
98123SOL    HW296267  10.977   9.548   0.182
98124SOL     OW96268  10.061   5.146   6.096
98124SOL    HW196269   9.985   5.186   6.053
98124SOL    HW296270  10.024   5.078   6.152
98125SOL     OW96271   5.457   4.684   5.677
98125SOL    HW196272   5.544   4.723   5.671
98125SOL    HW296273   5.463   4.623   5.750
98126SOL     OW96274  11.418   2.948   2.783
98126SOL    HW196275  11.433   2.856   2.759
98126SOL    HW296276  11.324   2.952   2.801
98127SOL     OW96277   0.328   6.694   1.560
98127SOL    HW196278   0.345   6.681   1.654
98127SOL    HW296279   0.305   6.786   1.554
98128SOL     OW96280  14.178   5.700   3.958
98128SOL    HW196281  14.220   5.782   3.986
98128SOL    HW296282  14.199   5.693   3.865
98129SOL     OW96283  10.490   3.060  12.283
98129SOL    HW196284  10.421   3.123  12.262
98129SOL    HW296285  10.572   3.111  12.275
98130SOL     OW96286   8.805   0.161   9.224
98130SOL    HW196287   8.843   0.092   9.169
98130SOL    HW296288   8.831   0.137   9.313
98131SOL     OW96289   9.539   1.507   5.115
98131SOL    HW196290   9.513   1.419   5.140
98131SOL    HW296291   9.506   1.563   5.185
98132SOL     OW96292   0.254   1.474   9.620
98132SOL    HW196293   0.234   1.538   9.551
98132SOL    HW296294   0.188   1.490   9.687
98133SOL     OW96295   6.778  14.035   3.465
98133SOL    HW196296   6.810  13.965   3.522
98133SOL    HW296297   6.851  14.053   3.406
98134SOL     OW96298   5.120   4.402   1.564
98134SOL    HW196299   5.198   4.456   1.548
98134SOL    HW296300   5.148   4.313   1.541
98135SOL     OW96301  11.368   4.406   5.347
98135SOL    HW196302  11.314   4.441   5.418
98135SOL    HW296303  11.305   4.383   5.278
98136SOL     OW96304  11.435  10.374  14.811
98136SOL    HW196305  11.366  10.440  14.799
98136SOL    HW296306  11.387  10.293  14.829
98137SOL     OW96307   2.735   1.776   8.355
98137SOL    HW196308   2.745   1.865   8.387
98137SOL    HW296309   2.661   1.741   8.405
98138SOL     OW96310   1.981   5.931   2.546
98138SOL    HW196311   2.029   5.848   2.541
98138SOL    HW296312   1.907   5.912   2.604
98139SOL     OW96313   8.728   8.198  12.494
98139SOL    HW196314   8.719   8.109  12.529
98139SOL    HW296315   8.678   8.198  12.413
98140SOL     OW96316   9.534   4.771  11.031
98140SOL    HW196317   9.544   4.691  11.082
98140SOL    HW296318   9.612   4.823  11.051
98141SOL     OW96319   7.301   9.597   7.130
98141SOL    HW196320   7.207   9.582   7.141
98141SOL    HW296321   7.339   9.572   7.215
98142SOL     OW96322   5.528  12.505  10.347
98142SOL    HW196323   5.466  12.448  10.392
98142SOL    HW296324   5.605  12.451  10.332
98143SOL     OW96325   4.266  11.177  14.787
98143SOL    HW196326   4.199  11.173  14.855
98143SOL    HW296327   4.312  11.093  14.793
98144SOL     OW96328   2.124  13.555  12.376
98144SOL    HW196329   2.195  13.618  12.365
98144SOL    HW296330   2.166  13.470  12.364
98145SOL     OW96331  10.623  14.057   9.163
98145SOL    HW196332  10.674  14.033   9.086
98145SOL    HW296333  10.567  13.981   9.179
98146SOL     OW96334   1.247   5.299  10.350
98146SOL    HW196335   1.157   5.324  10.372
98146SOL    HW296336   1.290   5.382  10.330
98147SOL     OW96337   9.828   2.383   8.649
98147SOL    HW196338   9.813   2.395   8.743
98147SOL    HW296339   9.818   2.471   8.612
98148SOL     OW96340  11.304   5.545  14.190
98148SOL    HW196341  11.284   5.626  14.144
98148SOL    HW296342  11.314   5.479  14.121
98149SOL     OW96343   7.054   4.012   2.773
98149SOL    HW196344   7.021   4.072   2.706
98149SOL    HW296345   7.001   4.030   2.850
98150SOL     OW96346   5.764  10.455   3.728
98150SOL    HW196347   5.857  10.475   3.738
98150SOL    HW296348   5.759  10.360   3.727
98151SOL     OW96349   8.838  10.445  10.187
98151SOL    HW196350   8.785  10.395  10.124
98151SOL    HW296351   8.885  10.378  10.237
98152SOL     OW96352  12.008   3.524   4.462
98152SOL    HW196353  12.038   3.515   4.371
98152SOL    HW296354  11.968   3.439   4.483
98153SOL     OW96355   8.536   9.985  13.125
98153SOL    HW196356   8.486  10.039  13.186
98153SOL    HW296357   8.517  10.023  13.039
98154SOL     OW96358   7.999   4.390   6.820
98154SOL    HW196359   7.976   4.455   6.753
98154SOL    HW296360   7.927   4.392   6.882
98155SOL     OW96361  10.964   5.750  11.753
98155SOL    HW196362  11.021   5.679  11.721
98155SOL    HW296363  11.025   5.817  11.783
98156SOL     OW96364  14.145   2.521   6.115
98156SOL    HW196365  14.196   2.581   6.170
98156SOL    HW296366  14.166   2.547   6.025
98157SOL     OW96367  14.592   0.676   9.769
98157SOL    HW196368  14.603   0.687   9.864
98157SOL    HW296369  14.539   0.597   9.760
98158SOL     OW96370   4.633  14.879   0.883
98158SOL    HW196371   4.618   0.094   0.883
98158SOL    HW296372   4.581  14.848   0.957
98159SOL     OW96373   8.317  11.708   9.022
98159SOL    HW196374   8.308  11.777   9.088
98159SOL    HW296375   8.280  11.630   9.064
98160SOL     OW96376   1.071   5.107   7.615
98160SOL    HW196377   1.129   5.181   7.636
98160SOL    HW296378   1.114   5.062   7.542
98161SOL     OW96379  11.550   1.463  12.193
98161SOL    HW196380  11.582   1.376  12.215
98161SOL    HW296381  11.615   1.497  12.131
98162SOL     OW96382   8.677   3.029  13.095
98162SOL    HW196383   8.688   3.123  13.083
98162SOL    HW296384   8.692   3.015  13.188
98163SOL     OW96385  13.873   4.236  13.875
98163SOL    HW196386  13.840   4.253  13.963
98163SOL    HW296387  13.797   4.249  13.818
98164SOL     OW96388  11.631  12.248  12.714
98164SOL    HW196389  11.690  12.273  12.642
98164SOL    HW296390  11.606  12.157  12.693
98165SOL     OW96391   6.433  11.137  13.330
98165SOL    HW196392   6.520  11.144  13.291
98165SOL    HW296393   6.441  11.181  13.415
98166SOL     OW96394   4.840  12.600   0.097
98166SOL    HW196395   4.930  12.592   0.068
98166SOL    HW296396   4.789  12.614   0.017
98167SOL     OW96397   4.814   4.680  12.189
98167SOL    HW196398   4.737   4.635  12.225
98167SOL    HW296399   4.789   4.772  12.190
98168SOL     OW96400   6.262   7.202  11.839
98168SOL    HW196401   6.262   7.145  11.762
98168SOL    HW296402   6.347   7.188  11.880
98169SOL     OW96403  12.128   3.214   7.041
98169SOL    HW196404  12.039   3.183   7.058
98169SOL    HW296405  12.117   3.284   6.978
98170SOL     OW96406  11.637   2.733  11.071
98170SOL    HW196407  11.578   2.719  11.144
98170SOL    HW296408  11.725   2.732  11.110
98171SOL     OW96409   1.345   0.299  13.330
98171SOL    HW196410   1.319   0.318  13.240
98171SOL    HW296411   1.393   0.377  13.359
98172SOL     OW96412   0.270   6.241  12.895
98172SOL    HW196413   0.283   6.287  12.812
98172SOL    HW296414   0.180   6.260  12.919
98173SOL     OW96415  10.409   9.463   6.451
98173SOL    HW196416  10.446   9.405   6.383
98173SOL    HW296417  10.315   9.447   6.446
98174SOL     OW96418   1.027   2.696   7.591
98174SOL    HW196419   1.031   2.618   7.535
98174SOL    HW296420   1.118   2.719   7.607
98175SOL     OW96421   1.089   9.909   2.248
98175SOL    HW196422   1.096   9.894   2.154
98175SOL    HW296423   1.145   9.984   2.265
98176SOL     OW96424  14.493   5.086  13.128
98176SOL    HW196425  14.461   5.175  13.112
98176SOL    HW296426  14.539   5.062  13.048
98177SOL     OW96427  11.163   1.411   0.744
98177SOL    HW196428  11.165   1.391   0.650
98177SOL    HW296429  11.254   1.431   0.766
98178SOL     OW96430  14.019  10.452   2.069
98178SOL    HW196431  13.940  10.469   2.018
98178SOL    HW296432  14.065  10.384   2.020
98179SOL     OW96433   2.703   1.638  11.340
98179SOL    HW196434   2.626   1.666  11.291
98179SOL    HW296435   2.772   1.699  11.314
98180SOL     OW96436  13.850  14.132   8.790
98180SOL    HW196437  13.889  14.199   8.846
98180SOL    HW296438  13.923  14.102   8.735
98181SOL     OW96439   9.791  10.953  10.229
98181SOL    HW196440   9.766  10.984  10.143
98181SOL    HW296441   9.878  10.916  10.218
98182SOL     OW96442  14.709   6.300  10.177
98182SOL    HW196443  14.694   6.376  10.120
98182SOL    HW296444  14.801   6.306  10.200
98183SOL     OW96445   9.335   3.123  11.796
98183SOL    HW196446   9.396   3.049  11.797
98183SOL    HW296447   9.254   3.088  11.834
98184SOL     OW96448   2.701  12.404  12.197
98184SOL    HW196449   2.759  12.430  12.125
98184SOL    HW296450   2.655  12.485  12.220
98185SOL     OW96451   2.911   1.671   1.363
98185SOL    HW196452   2.939   1.635   1.279
98185SOL    HW296453   2.955   1.616   1.428
98186SOL     OW96454  10.539   6.765  13.355
98186SOL    HW196455  10.557   6.715  13.276
98186SOL    HW296456  10.463   6.721  13.395
98187SOL     OW96457   0.846   0.711   0.926
98187SOL    HW196458   0.821   0.804   0.924
98187SOL    HW296459   0.933   0.710   0.965
98188SOL     OW96460  13.344   2.307   8.111
98188SOL    HW196461  13.343   2.279   8.202
98188SOL    HW296462  13.373   2.230   8.062
98189SOL     OW96463  14.736   1.695   9.145
98189SOL    HW196464  14.700   1.751   9.076
98189SOL    HW296465  14.661   1.677   9.202
98190SOL     OW96466  14.663   3.908  12.330
98190SOL    HW196467  14.647   4.000  12.310
98190SOL    HW296468  14.759   3.899  12.327
98191SOL     OW96469   4.896   8.301   8.758
98191SOL    HW196470   4.815   8.306   8.708
98191SOL    HW296471   4.890   8.218   8.806
98192SOL     OW96472  14.473   6.441  13.134
98192SOL    HW196473  14.430   6.452  13.218
98192SOL    HW296474  14.566   6.433  13.156
98193SOL     OW96475   0.014   7.949   1.924
98193SOL    HW196476  14.840   7.893   1.980
98193SOL    HW296477   0.030   7.897   1.845
98194SOL     OW96478   0.661   7.631   7.355
98194SOL    HW196479   0.627   7.643   7.443
98194SOL    HW296480   0.622   7.702   7.304
98195SOL     OW96481   0.601   3.985  12.710
98195SOL    HW196482   0.568   4.038  12.637
98195SOL    HW296483   0.632   3.904  12.669
98196SOL     OW96484  12.128   5.959  11.517
98196SOL    HW196485  12.111   5.875  11.560
98196SOL    HW296486  12.050   6.011  11.536
98197SOL     OW96487  13.578   6.579   3.839
98197SOL    HW196488  13.511   6.546   3.779
98197SOL    HW296489  13.566   6.674   3.838
98198SOL     OW96490  11.287   4.002   9.991
98198SOL    HW196491  11.356   4.014  10.057
98198SOL    HW296492  11.312   4.058   9.918
98199SOL     OW96493  11.947   1.427   4.210
98199SOL    HW196494  11.974   1.345   4.251
98199SOL    HW296495  11.888   1.468   4.274
98200SOL     OW96496   7.010   8.418  13.764
98200SOL    HW196497   7.071   8.491  13.757
98200SOL    HW296498   6.952   8.429  13.688
98201SOL     OW96499   2.112   7.769  14.840
98201SOL    HW196500   2.039   7.817  14.879
98201SOL    HW296501   2.071   7.699  14.790
98202SOL     OW96502   4.445   7.374   8.086
98202SOL    HW196503   4.369   7.404   8.137
98202SOL    HW296504   4.431   7.279   8.077
98203SOL     OW96505  11.281  12.932  13.756
98203SOL    HW196506  11.271  13.024  13.780
98203SOL    HW296507  11.254  12.884  13.834
98204SOL     OW96508   4.338   0.152   6.700
98204SOL    HW196509   4.300   0.217   6.759
98204SOL    HW296510   4.386   0.093   6.758
98205SOL     OW96511  11.704   6.530   1.449
98205SOL    HW196512  11.773   6.566   1.505
98205SOL    HW296513  11.734   6.547   1.360
98206SOL     OW96514  11.165   6.773   7.490
98206SOL    HW196515  11.259   6.785   7.506
98206SOL    HW296516  11.157   6.682   7.462
98207SOL     OW96517   5.877   9.410   1.684
98207SOL    HW196518   5.912   9.355   1.614
98207SOL    HW296519   5.800   9.362   1.715
98208SOL     OW96520   4.925   8.249  13.970
98208SOL    HW196521   4.890   8.335  13.949
98208SOL    HW296522   4.848   8.192  13.973
98209SOL     OW96523   0.295   1.860   6.362
98209SOL    HW196524   0.335   1.929   6.415
98209SOL    HW296525   0.356   1.786   6.370
98210SOL     OW96526  11.984  13.555   0.766
98210SOL    HW196527  12.062  13.604   0.793
98210SOL    HW296528  11.938  13.613   0.706
98211SOL     OW96529   5.980   7.022   8.948
98211SOL    HW196530   6.006   6.939   8.909
98211SOL    HW296531   5.909   6.999   9.008
98212SOL     OW96532   7.439  13.765   6.221
98212SOL    HW196533   7.437  13.785   6.315
98212SOL    HW296534   7.361  13.807   6.186
98213SOL     OW96535  10.757   8.434   1.270
98213SOL    HW196536  10.748   8.464   1.179
98213SOL    HW296537  10.713   8.502   1.322
98214SOL     OW96538   6.217  12.485   8.071
98214SOL    HW196539   6.245  12.574   8.047
98214SOL    HW296540   6.217  12.437   7.989
98215SOL     OW96541   1.484  12.487   6.836
98215SOL    HW196542   1.505  12.409   6.888
98215SOL    HW296543   1.464  12.555   6.901
98216SOL     OW96544   5.670  11.873   8.918
98216SOL    HW196545   5.745  11.932   8.924
98216SOL    HW296546   5.709  11.788   8.898
98217SOL     OW96547   5.275   8.305  14.256
98217SOL    HW196548   5.362   8.297  14.296
98217SOL    HW296549   5.251   8.397  14.270
98218SOL     OW96550   8.894   5.783   7.975
98218SOL    HW196551   8.826   5.850   7.975
98218SOL    HW296552   8.881   5.737   7.892
98219SOL     OW96553   9.476  13.495   2.343
98219SOL    HW196554   9.397  13.498   2.289
98219SOL    HW296555   9.452  13.441   2.418
98220SOL     OW96556  13.363   0.789   1.928
98220SOL    HW196557  13.377   0.853   1.857
98220SOL    HW296558  13.365   0.704   1.884
98221SOL     OW96559   4.972   9.849   2.086
98221SOL    HW196560   4.901   9.913   2.092
98221SOL    HW296561   4.981   9.831   1.993
98222SOL     OW96562  14.196  10.842   6.215
98222SOL    HW196563  14.130  10.911   6.202
98222SOL    HW296564  14.181  10.781   6.144
98223SOL     OW96565  11.869  11.236  14.627
98223SOL    HW196566  11.863  11.227  14.722
98223SOL    HW296567  11.946  11.185  14.602
98224SOL     OW96568  11.778   2.711  10.755
98224SOL    HW196569  11.807   2.712  10.663
98224SOL    HW296570  11.781   2.803  10.781
98225SOL     OW96571  10.974   8.432   4.575
98225SOL    HW196572  10.910   8.492   4.535
98225SOL    HW296573  10.963   8.350   4.527
98226SOL     OW96574  10.185   8.274   2.295
98226SOL    HW196575  10.113   8.291   2.234
98226SOL    HW296576  10.244   8.348   2.284
98227SOL     OW96577   5.388  14.438  10.146
98227SOL    HW196578   5.399  14.421  10.053
98227SOL    HW296579   5.473  14.472  10.174
98228SOL     OW96580   3.342   5.605   2.131
98228SOL    HW196581   3.265   5.581   2.079
98228SOL    HW296582   3.414   5.556   2.092
98229SOL     OW96583   9.310  11.562   6.673
98229SOL    HW196584   9.362  11.538   6.750
98229SOL    HW296585   9.286  11.479   6.633
98230SOL     OW96586   8.693   3.833   1.086
98230SOL    HW196587   8.753   3.775   1.133
98230SOL    HW296588   8.673   3.786   1.005
98231SOL     OW96589   0.893   0.938  10.667
98231SOL    HW196590   0.888   0.850  10.703
98231SOL    HW296591   0.877   0.996  10.742
98232SOL     OW96592   5.290  11.047   5.561
98232SOL    HW196593   5.250  11.083   5.641
98232SOL    HW296594   5.243  11.091   5.490
98233SOL     OW96595  10.224  11.566   3.924
98233SOL    HW196596  10.206  11.659   3.916
98233SOL    HW296597  10.137  11.525   3.922
98234SOL     OW96598   9.722   7.852  14.608
98234SOL    HW196599   9.671   7.933  14.603
98234SOL    HW296600   9.801   7.871  14.558
98235SOL     OW96601  13.880   8.177  10.298
98235SOL    HW196602  13.883   8.149  10.389
98235SOL    HW296603  13.873   8.272  10.302
98236SOL     OW96604   3.362   2.823  12.108
98236SOL    HW196605   3.344   2.739  12.065
98236SOL    HW296606   3.362   2.887  12.038
98237SOL     OW96607  12.921  13.028  12.210
98237SOL    HW196608  12.890  13.030  12.120
98237SOL    HW296609  13.016  13.015  12.202
98238SOL     OW96610  14.209  13.636   8.025
98238SOL    HW196611  14.293  13.653   7.983
98238SOL    HW296612  14.206  13.697   8.099
98239SOL     OW96613   1.488   0.379  10.323
98239SOL    HW196614   1.484   0.396  10.417
98239SOL    HW296615   1.455   0.459  10.282
98240SOL     OW96616   3.354   2.822   6.999
98240SOL    HW196617   3.390   2.849   7.083
98240SOL    HW296618   3.402   2.873   6.934
98241SOL     OW96619   6.708   4.186  12.865
98241SOL    HW196620   6.757   4.261  12.831
98241SOL    HW296621   6.621   4.221  12.883
98242SOL     OW96622   6.589  12.360   3.011
98242SOL    HW196623   6.536  12.439   3.009
98242SOL    HW296624   6.664  12.382   3.066
98243SOL     OW96625   6.901   4.242  11.214
98243SOL    HW196626   6.851   4.294  11.278
98243SOL    HW296627   6.907   4.155  11.253
98244SOL     OW96628   1.459   1.854   6.388
98244SOL    HW196629   1.407   1.934   6.399
98244SOL    HW296630   1.460   1.814   6.475
98245SOL     OW96631  10.173  10.344   4.371
98245SOL    HW196632  10.171  10.261   4.418
98245SOL    HW296633  10.106  10.398   4.413
98246SOL     OW96634   9.000   7.231   3.286
98246SOL    HW196635   9.045   7.148   3.302
98246SOL    HW296636   8.967   7.224   3.197
98247SOL     OW96637  13.212   8.686   0.152
98247SOL    HW196638  13.211   8.591   0.158
98247SOL    HW296639  13.202   8.704   0.058
98248SOL     OW96640  10.743   3.032   4.177
98248SOL    HW196641  10.658   3.054   4.216
98248SOL    HW296642  10.721   2.981   4.099
98249SOL     OW96643  11.470   3.648   5.333
98249SOL    HW196644  11.528   3.571   5.338
98249SOL    HW296645  11.528   3.722   5.351
98250SOL     OW96646  13.955  11.408   2.112
98250SOL    HW196647  14.016  11.390   2.041
98250SOL    HW296648  13.988  11.488   2.153
98251SOL     OW96649   8.551   8.677   7.867
98251SOL    HW196650   8.456   8.685   7.858
98251SOL    HW296651   8.566   8.585   7.891
98252SOL     OW96652   3.152  14.592   4.020
98252SOL    HW196653   3.200  14.617   4.099
98252SOL    HW296654   3.120  14.675   3.985
98253SOL     OW96655   3.198   7.355   4.632
98253SOL    HW196656   3.134   7.424   4.613
98253SOL    HW296657   3.197   7.299   4.555
98254SOL     OW96658   2.447   5.570   2.010
98254SOL    HW196659   2.407   5.594   1.927
98254SOL    HW296660   2.540   5.590   1.999
98255SOL     OW96661   8.390   7.726  11.035
98255SOL    HW196662   8.337   7.805  11.022
98255SOL    HW296663   8.349   7.681  11.109
98256SOL     OW96664   8.947  10.937   6.558
98256SOL    HW196665   8.945  10.842   6.575
98256SOL    HW296666   8.857  10.965   6.571
98257SOL     OW96667  13.502   4.206   3.930
98257SOL    HW196668  13.412   4.215   3.962
98257SOL    HW296669  13.530   4.121   3.964
98258SOL     OW96670   6.085  12.886  12.429
98258SOL    HW196671   6.161  12.861  12.376
98258SOL    HW296672   6.031  12.939  12.371
98259SOL     OW96673   5.848   3.934   3.539
98259SOL    HW196674   5.818   3.924   3.630
98259SOL    HW296675   5.940   3.959   3.547
98260SOL     OW96676   0.771   7.084   9.053
98260SOL    HW196677   0.849   7.030   9.070
98260SOL    HW296678   0.740   7.110   9.139
98261SOL     OW96679   6.113   3.374  10.376
98261SOL    HW196680   6.197   3.404  10.339
98261SOL    HW296681   6.067   3.455  10.397
98262SOL     OW96682   3.325  13.362   2.275
98262SOL    HW196683   3.299  13.432   2.216
98262SOL    HW296684   3.285  13.283   2.240
98263SOL     OW96685   1.416   0.177   7.636
98263SOL    HW196686   1.377   0.096   7.670
98263SOL    HW296687   1.372   0.246   7.685
98264SOL     OW96688   9.129   2.590  14.608
98264SOL    HW196689   9.213   2.582  14.655
98264SOL    HW296690   9.111   2.684  14.607
98265SOL     OW96691  13.420   8.958  11.630
98265SOL    HW196692  13.512   8.981  11.638
98265SOL    HW296693  13.410   8.929  11.539
98266SOL     OW96694  11.859   7.593   7.540
98266SOL    HW196695  11.861   7.651   7.464
98266SOL    HW296696  11.775   7.611   7.581
98267SOL     OW96697   4.263   8.143   5.327
98267SOL    HW196698   4.256   8.111   5.417
98267SOL    HW296699   4.342   8.101   5.293
98268SOL     OW96700  10.895   1.404   9.908
98268SOL    HW196701  10.811   1.374   9.942
98268SOL    HW296702  10.900   1.366   9.820
98269SOL     OW96703   9.625   5.745   5.865
98269SOL    HW196704   9.609   5.684   5.938
98269SOL    HW296705   9.710   5.719   5.830
98270SOL     OW96706   8.701   2.202   9.205
98270SOL    HW196707   8.714   2.134   9.271
98270SOL    HW296708   8.687   2.152   9.124
98271SOL     OW96709   0.702   3.553  14.336
98271SOL    HW196710   0.618   3.567  14.293
98271SOL    HW296711   0.688   3.477  14.393
98272SOL     OW96712   6.490   1.151   5.398
98272SOL    HW196713   6.548   1.200   5.339
98272SOL    HW296714   6.432   1.217   5.435
98273SOL     OW96715   7.871   2.626   2.125
98273SOL    HW196716   7.831   2.708   2.153
98273SOL    HW296717   7.818   2.597   2.050
98274SOL     OW96718   4.800  11.320   6.064
98274SOL    HW196719   4.822  11.404   6.025
98274SOL    HW296720   4.741  11.279   6.001
98275SOL     OW96721  11.293   2.610   2.686
98275SOL    HW196722  11.361   2.582   2.747
98275SOL    HW296723  11.221   2.547   2.700
98276SOL     OW96724   1.901   3.904   2.355
98276SOL    HW196725   1.838   3.944   2.415
98276SOL    HW296726   1.872   3.813   2.346
98277SOL     OW96727  13.063  12.205   6.627
98277SOL    HW196728  13.100  12.290   6.650
98277SOL    HW296729  13.007  12.223   6.551
98278SOL     OW96730  11.872   7.283   2.426
98278SOL    HW196731  11.936   7.214   2.441
98278SOL    HW296732  11.838   7.266   2.338
98279SOL     OW96733   9.102  13.949   7.514
98279SOL    HW196734   9.148  13.933   7.596
98279SOL    HW296735   9.164  13.998   7.460
98280SOL     OW96736   7.940   9.050  11.257
98280SOL    HW196737   7.933   9.135  11.301
98280SOL    HW296738   8.012   9.006  11.302
98281SOL     OW96739  11.158  14.167   8.358
98281SOL    HW196740  11.185  14.250   8.318
98281SOL    HW296741  11.129  14.114   8.284
98282SOL     OW96742   2.438  10.138   2.650
98282SOL    HW196743   2.488  10.149   2.569
98282SOL    HW296744   2.385  10.217   2.657
98283SOL     OW96745   6.664  10.755   0.307
98283SOL    HW196746   6.731  10.693   0.334
98283SOL    HW296747   6.671  10.827   0.370
98284SOL     OW96748   1.331  12.572   2.665
98284SOL    HW196749   1.338  12.617   2.750
98284SOL    HW296750   1.417  12.532   2.652
98285SOL     OW96751   8.489   4.577  12.338
98285SOL    HW196752   8.583   4.575  12.323
98285SOL    HW296753   8.467   4.489  12.370
98286SOL     OW96754   0.276   7.841   9.469
98286SOL    HW196755   0.243   7.784   9.538
98286SOL    HW296756   0.368   7.855   9.491
98287SOL     OW96757   1.547   8.832   9.747
98287SOL    HW196758   1.616   8.767   9.763
98287SOL    HW296759   1.480   8.784   9.698
98288SOL     OW96760   2.488  11.016  13.512
98288SOL    HW196761   2.497  11.109  13.533
98288SOL    HW296762   2.396  10.997  13.529
98289SOL     OW96763   7.103   0.144   2.389
98289SOL    HW196764   7.088   0.231   2.352
98289SOL    HW296765   7.124   0.161   2.481
98290SOL     OW96766   4.212   8.420  10.788
98290SOL    HW196767   4.284   8.472  10.753
98290SOL    HW296768   4.242   8.329  10.779
98291SOL     OW96769   3.653   1.933  11.323
98291SOL    HW196770   3.566   1.901  11.346
98291SOL    HW296771   3.649   1.949  11.229
98292SOL     OW96772  14.189  13.418  13.461
98292SOL    HW196773  14.146  13.465  13.532
98292SOL    HW296774  14.159  13.328  13.470
98293SOL     OW96775  13.081   8.544   6.429
98293SOL    HW196776  13.107   8.618   6.374
98293SOL    HW296777  13.125   8.468   6.391
98294SOL     OW96778   2.992   6.487  13.648
98294SOL    HW196779   2.997   6.564  13.704
98294SOL    HW296780   3.069   6.493  13.592
98295SOL     OW96781   8.189   2.773   7.334
98295SOL    HW196782   8.129   2.707   7.298
98295SOL    HW296783   8.140   2.815   7.405
98296SOL     OW96784  12.854   9.667   5.426
98296SOL    HW196785  12.829   9.614   5.502
98296SOL    HW296786  12.777   9.667   5.369
98297SOL     OW96787  11.676   8.934   5.263
98297SOL    HW196788  11.743   9.002   5.251
98297SOL    HW296789  11.644   8.916   5.174
98298SOL     OW96790  11.564   0.769  12.104
98298SOL    HW196791  11.586   0.861  12.096
98298SOL    HW296792  11.634   0.722  12.059
98299SOL     OW96793  13.975   1.658   3.562
98299SOL    HW196794  13.911   1.655   3.633
98299SOL    HW296795  13.923   1.669   3.483
98300SOL     OW96796   9.857   0.759   3.294
98300SOL    HW196797   9.915   0.835   3.297
98300SOL    HW296798   9.915   0.684   3.303
98301SOL     OW96799   9.023  13.241   5.473
98301SOL    HW196800   8.941  13.251   5.426
98301SOL    HW296801   9.001  13.186   5.549
98302SOL     OW96802  13.491   2.014  13.454
98302SOL    HW196803  13.579   2.002  13.418
98302SOL    HW296804  13.495   2.097  13.501
98303SOL     OW96805  11.270   4.801   0.636
98303SOL    HW196806  11.323   4.797   0.556
98303SOL    HW296807  11.244   4.710   0.652
98304SOL     OW96808  12.878   9.715   8.406
98304SOL    HW196809  12.904   9.803   8.377
98304SOL    HW296810  12.957   9.662   8.394
98305SOL     OW96811   8.877   0.182  11.737
98305SOL    HW196812   8.830   0.103  11.710
98305SOL    HW296813   8.946   0.193  11.673
98306SOL     OW96814   8.494   1.525  12.493
98306SOL    HW196815   8.504   1.565  12.579
98306SOL    HW296816   8.400   1.517  12.481
98307SOL     OW96817   9.433  14.442  12.595
98307SOL    HW196818   9.426  14.535  12.572
98307SOL    HW296819   9.526  14.421  12.584
98308SOL     OW96820   2.187  11.251   1.914
98308SOL    HW196821   2.110  11.280   1.963
98308SOL    HW296822   2.232  11.332   1.889
98309SOL     OW96823   5.828   1.903  14.554
98309SOL    HW196824   5.765   1.832  14.546
98309SOL    HW296825   5.907   1.862  14.590
98310SOL     OW96826   5.873   6.864   0.707
98310SOL    HW196827   5.915   6.896   0.787
98310SOL    HW296828   5.945   6.826   0.656
98311SOL     OW96829   2.124   6.401   2.694
98311SOL    HW196830   2.147   6.311   2.672
98311SOL    HW296831   2.029   6.404   2.688
98312SOL     OW96832   7.174   7.499  11.866
98312SOL    HW196833   7.170   7.436  11.939
98312SOL    HW296834   7.083   7.523  11.850
98313SOL     OW96835  13.218   2.298  13.838
98313SOL    HW196836  13.242   2.297  13.930
98313SOL    HW296837  13.123   2.290  13.838
98314SOL     OW96838   4.349   0.904   8.822
98314SOL    HW196839   4.393   0.829   8.783
98314SOL    HW296840   4.356   0.973   8.755
98315SOL     OW96841   5.074  14.460   9.379
98315SOL    HW196842   4.988  14.419   9.372
98315SOL    HW296843   5.133  14.388   9.398
98316SOL     OW96844   0.053  11.802  13.139
98316SOL    HW196845   0.029  11.770  13.052
98316SOL    HW296846  14.851  11.802  13.188
98317SOL     OW96847   2.568   6.951  13.756
98317SOL    HW196848   2.624   6.888  13.711
98317SOL    HW296849   2.480   6.913  13.752
98318SOL     OW96850   5.654   0.084   0.069
98318SOL    HW196851   5.563   0.111   0.086
98318SOL    HW296852   5.672   0.117  14.861
98319SOL     OW96853  10.804  11.067   1.440
98319SOL    HW196854  10.862  11.099   1.371
98319SOL    HW296855  10.783  11.144   1.492
98320SOL     OW96856  11.335   9.832   8.085
98320SOL    HW196857  11.404   9.872   8.031
98320SOL    HW296858  11.383   9.789   8.156
98321SOL     OW96859  12.731   7.641  11.896
98321SOL    HW196860  12.782   7.597  11.964
98321SOL    HW296861  12.652   7.589  11.887
98322SOL     OW96862   4.644   5.758   1.201
98322SOL    HW196863   4.615   5.847   1.219
98322SOL    HW296864   4.689   5.763   1.117
98323SOL     OW96865   5.231   8.245   9.063
98323SOL    HW196866   5.207   8.194   8.985
98323SOL    HW296867   5.187   8.329   9.050
98324SOL     OW96868   8.329  13.187  12.267
98324SOL    HW196869   8.382  13.135  12.328
98324SOL    HW296870   8.344  13.146  12.182
98325SOL     OW96871   4.325  10.047   0.491
98325SOL    HW196872   4.347   9.961   0.454
98325SOL    HW296873   4.289  10.097   0.418
98326SOL     OW96874   4.881   0.411   5.060
98326SOL    HW196875   4.898   0.472   5.132
98326SOL    HW296876   4.967   0.394   5.022
98327SOL     OW96877   5.831  11.224   9.645
98327SOL    HW196878   5.880  11.233   9.726
98327SOL    HW296879   5.795  11.312   9.629
98328SOL     OW96880  14.461   8.821   2.504
98328SOL    HW196881  14.533   8.869   2.544
98328SOL    HW296882  14.423   8.882   2.441
98329SOL     OW96883   2.837  14.741  14.427
98329SOL    HW196884   2.874  14.655  14.444
98329SOL    HW296885   2.813  14.774  14.513
98330SOL     OW96886   9.908   0.241   9.558
98330SOL    HW196887   9.824   0.266   9.598
98330SOL    HW296888   9.927   0.155   9.596
98331SOL     OW96889   7.213  14.018   8.711
98331SOL    HW196890   7.183  14.104   8.740
98331SOL    HW296891   7.299  14.007   8.751
98332SOL     OW96892   9.770   4.746  13.077
98332SOL    HW196893   9.742   4.657  13.053
98332SOL    HW296894   9.744   4.756  13.168
98333SOL     OW96895   1.764   6.810  11.288
98333SOL    HW196896   1.752   6.901  11.262
98333SOL    HW296897   1.825   6.774  11.223
98334SOL     OW96898   1.918   2.563   6.940
98334SOL    HW196899   1.964   2.626   6.996
98334SOL    HW296900   1.846   2.531   6.994
98335SOL     OW96901  12.652  13.657   0.257
98335SOL    HW196902  12.584  13.710   0.215
98335SOL    HW296903  12.612  13.628   0.339
98336SOL     OW96904   4.535   4.683   8.820
98336SOL    HW196905   4.484   4.758   8.850
98336SOL    HW296906   4.516   4.677   8.726
98337SOL     OW96907   0.007   9.833   0.906
98337SOL    HW196908   0.078   9.825   0.842
98337SOL    HW296909  14.826   9.895   0.867
98338SOL     OW96910  10.063   4.599  12.271
98338SOL    HW196911   9.975   4.561  12.273
98338SOL    HW296912  10.095   4.580  12.182
98339SOL     OW96913   3.727   0.458   0.372
98339SOL    HW196914   3.702   0.467   0.281
98339SOL    HW296915   3.816   0.423   0.370
98340SOL     OW96916  12.410   0.305  14.255
98340SOL    HW196917  12.480   0.337  14.199
98340SOL    HW296918  12.378   0.225  14.211
98341SOL     OW96919   6.685   6.464   4.192
98341SOL    HW196920   6.628   6.526   4.238
98341SOL    HW296921   6.774   6.495   4.210
98342SOL     OW96922   9.427   2.079   0.669
98342SOL    HW196923   9.401   2.103   0.757
98342SOL    HW296924   9.352   2.032   0.633
98343SOL     OW96925   1.525  10.147   5.002
98343SOL    HW196926   1.497  10.093   5.076
98343SOL    HW296927   1.614  10.174   5.025
98344SOL     OW96928  14.459  13.846  14.423
98344SOL    HW196929  14.453  13.885  14.335
98344SOL    HW296930  14.368  13.839  14.452
98345SOL     OW96931   1.469   5.654  13.112
98345SOL    HW196932   1.445   5.562  13.101
98345SOL    HW296933   1.565   5.655  13.105
98346SOL     OW96934   9.937   9.905  12.356
98346SOL    HW196935   9.845   9.905  12.384
98346SOL    HW296936   9.933   9.889  12.262
98347SOL     OW96937   2.676  13.732   6.087
98347SOL    HW196938   2.698  13.803   6.028
98347SOL    HW296939   2.759  13.684   6.098
98348SOL     OW96940  11.757  10.128  12.340
98348SOL    HW196941  11.770  10.096  12.251
98348SOL    HW296942  11.687  10.193  12.333
98349SOL     OW96943   4.842   3.483   3.880
98349SOL    HW196944   4.796   3.567   3.874
98349SOL    HW296945   4.933   3.507   3.899
98350SOL     OW96946  10.247   2.398  12.316
98350SOL    HW196947  10.284   2.486  12.305
98350SOL    HW296948  10.274   2.371  12.404
98351SOL     OW96949  14.404   9.434   1.531
98351SOL    HW196950  14.320   9.411   1.491
98351SOL    HW296951  14.384   9.443   1.625
98352SOL     OW96952   1.024   2.793   2.875
98352SOL    HW196953   1.030   2.830   2.963
98352SOL    HW296954   1.113   2.799   2.840
98353SOL     OW96955  13.664   0.384   2.128
98353SOL    HW196956  13.701   0.324   2.193
98353SOL    HW296957  13.570   0.375   2.138
98354SOL     OW96958   5.577   6.340   0.980
98354SOL    HW196959   5.546   6.336   0.890
98354SOL    HW296960   5.562   6.252   1.015
98355SOL     OW96961   8.672  12.901  12.028
98355SOL    HW196962   8.734  12.877  11.959
98355SOL    HW296963   8.611  12.828  12.032
98356SOL     OW96964  13.795  14.810   3.374
98356SOL    HW196965  13.852  14.794   3.299
98356SOL    HW296966  13.741  14.732   3.381
98357SOL     OW96967  13.071   2.734  11.360
98357SOL    HW196968  13.143   2.687  11.402
98357SOL    HW296969  13.095   2.826  11.367
98358SOL     OW96970  12.633   0.077  13.487
98358SOL    HW196971  12.703   0.120  13.535
98358SOL    HW296972  12.556   0.082  13.544
98359SOL     OW96973   6.246  12.038   8.392
98359SOL    HW196974   6.261  12.085   8.474
98359SOL    HW296975   6.257  12.105   8.324
98360SOL     OW96976  11.211  12.521  12.723
98360SOL    HW196977  11.300  12.552  12.708
98360SOL    HW296978  11.218  12.462  12.797
98361SOL     OW96979   0.009   9.598   5.074
98361SOL    HW196980   0.052   9.551   5.146
98361SOL    HW296981  14.868   9.683   5.111
98362SOL     OW96982  14.283   0.642   5.410
98362SOL    HW196983  14.329   0.686   5.482
98362SOL    HW296984  14.353   0.614   5.350
98363SOL     OW96985   8.693   2.625   7.176
98363SOL    HW196986   8.687   2.713   7.212
98363SOL    HW296987   8.621   2.577   7.217
98364SOL     OW96988  11.227   0.293   2.782
98364SOL    HW196989  11.291   0.351   2.823
98364SOL    HW296990  11.247   0.297   2.689
98365SOL     OW96991  10.010  11.708   1.833
98365SOL    HW196992  10.031  11.730   1.923
98365SOL    HW296993  10.001  11.613   1.832
98366SOL     OW96994   0.086   9.816  12.746
98366SOL    HW196995   0.053   9.764  12.819
98366SOL    HW296996   0.179   9.796  12.742
98367SOL     OW96997   5.836   7.974   0.632
98367SOL    HW196998   5.742   7.987   0.644
98367SOL    HW296999   5.868   8.059   0.601
98368SOL     OW97000  10.728  11.360  10.534
98368SOL    HW197001  10.714  11.394  10.623
98368SOL    HW297002  10.784  11.283  10.547
98369SOL     OW97003   3.931   6.680   6.401
98369SOL    HW197004   3.999   6.697   6.336
98369SOL    HW297005   3.853   6.660   6.349
98370SOL     OW97006  12.501   6.636   3.672
98370SOL    HW197007  12.547   6.665   3.751
98370SOL    HW297008  12.425   6.588   3.705
98371SOL     OW97009  13.682   6.387   2.437
98371SOL    HW197010  13.697   6.318   2.501
98371SOL    HW297011  13.590   6.376   2.411
98372SOL     OW97012   9.168   8.037   1.599
98372SOL    HW197013   9.099   8.090   1.558
98372SOL    HW297014   9.149   8.042   1.692
98373SOL     OW97015   4.527   9.792   0.847
98373SOL    HW197016   4.575   9.850   0.906
98373SOL    HW297017   4.589   9.770   0.778
98374SOL     OW97018   4.181   3.242   2.023
98374SOL    HW197019   4.105   3.184   2.015
98374SOL    HW297020   4.155   3.321   1.975
98375SOL     OW97021   0.796   3.966   8.427
98375SOL    HW197022   0.819   4.059   8.423
98375SOL    HW297023   0.708   3.964   8.464
98376SOL     OW97024  14.390   6.252  12.449
98376SOL    HW197025  14.430   6.194  12.514
98376SOL    HW297026  14.448   6.247  12.373
98377SOL     OW97027   6.080  11.321   3.304
98377SOL    HW197028   6.076  11.337   3.209
98377SOL    HW297029   6.149  11.256   3.314
98378SOL     OW97030   8.599   4.128  13.889
98378SOL    HW197031   8.602   4.198  13.824
98378SOL    HW297032   8.527   4.152  13.947
98379SOL     OW97033   3.880  14.458   9.305
98379SOL    HW197034   3.848  14.533   9.254
98379SOL    HW297035   3.809  14.439   9.367
98380SOL     OW97036   3.340   5.353   6.402
98380SOL    HW197037   3.335   5.269   6.358
98380SOL    HW297038   3.426   5.388   6.378
98381SOL     OW97039  10.600  10.691  13.793
98381SOL    HW197040  10.652  10.758  13.748
98381SOL    HW297041  10.646  10.677  13.876
98382SOL     OW97042   0.451  14.378   2.223
98382SOL    HW197043   0.525  14.402   2.167
98382SOL    HW297044   0.475  14.293   2.259
98383SOL     OW97045   4.509   0.414  13.970
98383SOL    HW197046   4.502   0.487  14.030
98383SOL    HW297047   4.596   0.378  13.986
98384SOL     OW97048   0.501   9.064   9.574
98384SOL    HW197049   0.451   9.138   9.540
98384SOL    HW297050   0.467   8.988   9.525
98385SOL     OW97051   3.457   9.678   1.608
98385SOL    HW197052   3.409   9.596   1.620
98385SOL    HW297053   3.389   9.743   1.590
98386SOL     OW97054  13.688  11.736   5.090
98386SOL    HW197055  13.608  11.683   5.086
98386SOL    HW297056  13.694  11.763   5.182
98387SOL     OW97057  11.970  13.150  14.739
98387SOL    HW197058  12.041  13.204  14.775
98387SOL    HW297059  12.015  13.083  14.688
98388SOL     OW97060   4.849  12.717   7.189
98388SOL    HW197061   4.854  12.639   7.244
98388SOL    HW297062   4.881  12.788   7.246
98389SOL     OW97063   8.392  11.114   7.399
98389SOL    HW197064   8.367  11.200   7.433
98389SOL    HW297065   8.359  11.052   7.464
98390SOL     OW97066  10.771   0.455   3.688
98390SOL    HW197067  10.757   0.364   3.663
98390SOL    HW297068  10.683   0.493   3.688
98391SOL     OW97069  11.449   7.599   2.395
98391SOL    HW197070  11.362   7.638   2.383
98391SOL    HW297071  11.470   7.560   2.311
98392SOL     OW97072   1.715   3.137  11.588
98392SOL    HW197073   1.790   3.190  11.615
98392SOL    HW297074   1.649   3.201  11.562
98393SOL     OW97075   1.073   3.084   1.440
98393SOL    HW197076   0.997   3.132   1.405
98393SOL    HW297077   1.075   3.003   1.389
98394SOL     OW97078  10.364  11.887  14.449
98394SOL    HW197079  10.389  11.859  14.536
98394SOL    HW297080  10.340  11.807  14.403
98395SOL     OW97081  11.734  13.965   5.923
98395SOL    HW197082  11.783  13.884   5.910
98395SOL    HW297083  11.678  13.947   5.998
98396SOL     OW97084   6.119  10.113   2.369
98396SOL    HW197085   6.030  10.104   2.404
98396SOL    HW297086   6.162  10.030   2.392
98397SOL     OW97087   0.038   0.925  11.196
98397SOL    HW197088   0.045   0.861  11.267
98397SOL    HW297089   0.101   0.993  11.219
98398SOL     OW97090   1.199   4.670  13.735
98398SOL    HW197091   1.195   4.641  13.643
98398SOL    HW297092   1.206   4.589  13.785
98399SOL     OW97093  11.753   6.693   0.197
98399SOL    HW197094  11.781   6.698   0.105
98399SOL    HW297095  11.741   6.784   0.223
98400SOL     OW97096   1.212   8.609   7.017
98400SOL    HW197097   1.118   8.627   7.016
98400SOL    HW297098   1.223   8.537   6.954
98401SOL     OW97099   2.727  14.316  10.793
98401SOL    HW197100   2.693  14.388  10.739
98401SOL    HW297101   2.764  14.254  10.729
98402SOL     OW97102   5.843  10.521   4.471
98402SOL    HW197103   5.880  10.518   4.559
98402SOL    HW297104   5.919  10.531   4.414
98403SOL     OW97105  11.907   9.056   8.345
98403SOL    HW197106  11.814   9.040   8.355
98403SOL    HW297107  11.924   9.136   8.394
98404SOL     OW97108   0.945   5.548   6.533
98404SOL    HW197109   0.893   5.478   6.574
98404SOL    HW297110   0.975   5.602   6.606
98405SOL     OW97111   1.902  13.643  12.212
98405SOL    HW197112   1.837  13.573  12.220
98405SOL    HW297113   1.972  13.620  12.273
98406SOL     OW97114   3.084   6.355   2.812
98406SOL    HW197115   3.102   6.319   2.899
98406SOL    HW297116   3.012   6.302   2.779
98407SOL     OW97117  11.825  12.210   8.985
98407SOL    HW197118  11.872  12.273   8.930
98407SOL    HW297119  11.779  12.263   9.049
98408SOL     OW97120  10.952   9.557   7.821
98408SOL    HW197121  10.881   9.614   7.852
98408SOL    HW297122  11.027   9.581   7.876
98409SOL     OW97123   5.039   3.881   0.358
98409SOL    HW197124   5.096   3.958   0.360
98409SOL    HW297125   5.015   3.866   0.449
98410SOL     OW97126   7.855   9.767  13.390
98410SOL    HW197127   7.787   9.828  13.418
98410SOL    HW297128   7.935   9.819  13.386
98411SOL     OW97129   7.332   8.549   9.927
98411SOL    HW197130   7.264   8.530   9.862
98411SOL    HW297131   7.295   8.617   9.982
98412SOL     OW97132   2.468  14.255  14.076
98412SOL    HW197133   2.532  14.190  14.106
98412SOL    HW297134   2.520  14.331  14.052
98413SOL     OW97135   0.508   1.673   1.870
98413SOL    HW197136   0.541   1.655   1.782
98413SOL    HW297137   0.413   1.674   1.860
98414SOL     OW97138   9.901   1.625   4.775
98414SOL    HW197139   9.903   1.670   4.691
98414SOL    HW297140   9.893   1.533   4.753
98415SOL     OW97141  11.224   1.992   1.853
98415SOL    HW197142  11.190   1.937   1.924
98415SOL    HW297143  11.163   1.978   1.781
98416SOL     OW97144   9.789   9.284   3.178
98416SOL    HW197145   9.813   9.286   3.270
98416SOL    HW297146   9.811   9.195   3.150
98417SOL     OW97147   0.173   4.354  12.453
98417SOL    HW197148   0.259   4.344  12.413
98417SOL    HW297149   0.119   4.288  12.410
98418SOL     OW97150   5.608   3.994   3.097
98418SOL    HW197151   5.526   3.947   3.085
98418SOL    HW297152   5.604   4.027   3.187
98419SOL     OW97153  12.234  12.587  14.426
98419SOL    HW197154  12.247  12.616  14.336
98419SOL    HW297155  12.231  12.491  14.420
98420SOL     OW97156  13.691   0.825  13.296
98420SOL    HW197157  13.652   0.739  13.314
98420SOL    HW297158  13.754   0.809  13.226
98421SOL     OW97159  11.806   0.753  11.877
98421SOL    HW197160  11.796   0.674  11.931
98421SOL    HW297161  11.743   0.741  11.805
98422SOL     OW97162  10.552   8.011   8.888
98422SOL    HW197163  10.523   7.979   8.974
98422SOL    HW297164  10.535   7.938   8.828
98423SOL     OW97165  14.701  11.692   1.845
98423SOL    HW197166  14.756  11.618   1.873
98423SOL    HW297167  14.740  11.721   1.763
98424SOL     OW97168  12.416   5.808   4.265
98424SOL    HW197169  12.338   5.761   4.293
98424SOL    HW297170  12.487   5.768   4.316
98425SOL     OW97171   4.391  11.445   3.153
98425SOL    HW197172   4.455  11.431   3.084
98425SOL    HW297173   4.435  11.502   3.216
98426SOL     OW97174   7.160  14.644   2.635
98426SOL    HW197175   7.157  14.620   2.542
98426SOL    HW297176   7.069  14.644   2.663
98427SOL     OW97177  10.721   6.827   1.426
98427SOL    HW197178  10.626   6.836   1.426
98427SOL    HW297179  10.738   6.754   1.486
98428SOL     OW97180   6.543  13.321   1.007
98428SOL    HW197181   6.521  13.321   0.913
98428SOL    HW297182   6.486  13.388   1.045
98429SOL     OW97183   8.231   6.554   8.624
98429SOL    HW197184   8.172   6.517   8.689
98429SOL    HW297185   8.251   6.642   8.657
98430SOL     OW97186   2.770   1.197   1.217
98430SOL    HW197187   2.829   1.218   1.144
98430SOL    HW297188   2.693   1.159   1.176
98431SOL     OW97189  10.654  14.789   9.672
98431SOL    HW197190  10.627  14.861   9.729
98431SOL    HW297191  10.741  14.766   9.703
98432SOL     OW97192   2.360   6.653   5.317
98432SOL    HW197193   2.453   6.660   5.295
98432SOL    HW297194   2.336   6.739   5.351
98433SOL     OW97195   1.979   9.924   9.098
98433SOL    HW197196   1.956   9.978   9.174
98433SOL    HW297197   1.972   9.983   9.023
98434SOL     OW97198  11.069   9.909  13.498
98434SOL    HW197199  11.042   9.944  13.583
98434SOL    HW297200  11.161   9.933  13.490
98435SOL     OW97201  11.230   8.275   9.011
98435SOL    HW197202  11.289   8.339   8.970
98435SOL    HW297203  11.233   8.296   9.104
98436SOL     OW97204   8.405   3.730   5.251
98436SOL    HW197205   8.383   3.661   5.189
98436SOL    HW297206   8.372   3.810   5.211
98437SOL     OW97207  13.797   3.493  14.768
98437SOL    HW197208  13.885   3.471  14.798
98437SOL    HW297209  13.741   3.427  14.808
98438SOL     OW97210  10.529   0.027   2.512
98438SOL    HW197211  10.498  14.830   2.466
98438SOL    HW297212  10.610  14.879   2.555
98439SOL     OW97213  14.508   5.970   7.900
98439SOL    HW197214  14.589   5.924   7.922
98439SOL    HW297215  14.473   5.922   7.825
98440SOL     OW97216   1.124   3.941  10.168
98440SOL    HW197217   1.062   3.868  10.169
98440SOL    HW297218   1.157   3.946  10.258
98441SOL     OW97219   0.241   4.592   5.007
98441SOL    HW197220   0.281   4.588   5.094
98441SOL    HW297221   0.201   4.679   5.003
98442SOL     OW97222   4.956  10.886   3.635
98442SOL    HW197223   4.995  10.812   3.589
98442SOL    HW297224   4.866  10.891   3.602
98443SOL     OW97225   2.146   8.839   3.790
98443SOL    HW197226   2.117   8.890   3.866
98443SOL    HW297227   2.130   8.748   3.815
98444SOL     OW97228   4.684  12.940   6.567
98444SOL    HW197229   4.596  12.977   6.561
98444SOL    HW297230   4.692  12.886   6.488
98445SOL     OW97231  11.393   3.310   4.957
98445SOL    HW197232  11.382   3.377   5.024
98445SOL    HW297233  11.306   3.272   4.946
98446SOL     OW97234  10.425   0.320  11.802
98446SOL    HW197235  10.426   0.415  11.816
98446SOL    HW297236  10.446   0.283  11.888
98447SOL     OW97237   2.603   3.660  10.026
98447SOL    HW197238   2.525   3.636  10.075
98447SOL    HW297239   2.574   3.728   9.965
98448SOL     OW97240   5.333  12.538   2.814
98448SOL    HW197241   5.264  12.473   2.827
98448SOL    HW297242   5.414  12.494   2.838
98449SOL     OW97243   4.693   5.971   0.465
98449SOL    HW197244   4.760   6.013   0.412
98449SOL    HW297245   4.636   5.927   0.402
98450SOL     OW97246   3.674   2.743  12.925
98450SOL    HW197247   3.666   2.650  12.905
98450SOL    HW297248   3.648   2.787  12.844
98451SOL     OW97249  11.354   9.347   9.622
98451SOL    HW197250  11.402   9.428   9.606
98451SOL    HW297251  11.281   9.349   9.560
98452SOL     OW97252   0.803   4.905  14.783
98452SOL    HW197253   0.891   4.921  14.817
98452SOL    HW297254   0.813   4.831  14.723
98453SOL     OW97255   2.349   8.277   4.083
98453SOL    HW197256   2.269   8.297   4.130
98453SOL    HW297257   2.377   8.360   4.046
98454SOL     OW97258  12.727   4.732   7.626
98454SOL    HW197259  12.756   4.645   7.653
98454SOL    HW297260  12.763   4.743   7.538
98455SOL     OW97261   9.173  10.419  11.553
98455SOL    HW197262   9.177  10.383  11.465
98455SOL    HW297263   9.138  10.507  11.542
98456SOL     OW97264   2.970   3.065  13.842
98456SOL    HW197265   2.927   3.112  13.770
98456SOL    HW297266   2.904   3.062  13.911
98457SOL     OW97267   9.004   5.696   3.691
98457SOL    HW197268   9.004   5.781   3.734
98457SOL    HW297269   9.094   5.684   3.661
98458SOL     OW97270   9.821  14.663   4.925
98458SOL    HW197271   9.745  14.646   4.981
98458SOL    HW297272   9.867  14.579   4.922
98459SOL     OW97273   3.013   1.357  11.503
98459SOL    HW197274   2.917   1.359  11.498
98459SOL    HW297275   3.032   1.305  11.582
98460SOL     OW97276   3.054   8.137   7.537
98460SOL    HW197277   3.063   8.076   7.611
98460SOL    HW297278   3.006   8.211   7.572
98461SOL     OW97279   5.388   2.376  12.629
98461SOL    HW197280   5.359   2.444  12.689
98461SOL    HW297281   5.406   2.301  12.685
98462SOL     OW97282  10.806   4.717   2.167
98462SOL    HW197283  10.787   4.749   2.079
98462SOL    HW297284  10.887   4.667   2.157
98463SOL     OW97285  10.613   2.509   0.537
98463SOL    HW197286  10.564   2.435   0.573
98463SOL    HW297287  10.670   2.469   0.471
98464SOL     OW97288   7.616   5.101   7.489
98464SOL    HW197289   7.628   5.041   7.563
98464SOL    HW297290   7.523   5.124   7.491
98465SOL     OW97291   1.645   6.283  12.884
98465SOL    HW197292   1.684   6.270  12.797
98465SOL    HW297293   1.661   6.376  12.903
98466SOL     OW97294  14.226  11.340  14.819
98466SOL    HW197295  14.236  11.293   0.022
98466SOL    HW297296  14.310  11.328  14.775
98467SOL     OW97297   9.594  14.661  11.652
98467SOL    HW197298   9.676  14.709  11.659
98467SOL    HW297299   9.603  14.587  11.712
98468SOL     OW97300   9.424   6.143   2.750
98468SOL    HW197301   9.502   6.136   2.695
98468SOL    HW297302   9.442   6.216   2.808
98469SOL     OW97303  12.880   2.132   5.875
98469SOL    HW197304  12.815   2.188   5.918
98469SOL    HW297305  12.920   2.082   5.947
98470SOL     OW97306  10.276   3.192   4.387
98470SOL    HW197307  10.220   3.116   4.400
98470SOL    HW297308  10.285   3.230   4.474
98471SOL     OW97309   1.078  13.512   6.604
98471SOL    HW197310   1.015  13.454   6.560
98471SOL    HW297311   1.070  13.595   6.558
98472SOL     OW97312   4.195  12.403   4.708
98472SOL    HW197313   4.130  12.337   4.733
98472SOL    HW297314   4.273  12.353   4.684
98473SOL     OW97315   0.876   9.241   0.303
98473SOL    HW197316   0.962   9.262   0.265
98473SOL    HW297317   0.853   9.156   0.263
98474SOL     OW97318  12.927   1.185   9.979
98474SOL    HW197319  12.886   1.261  10.020
98474SOL    HW297320  12.935   1.209   9.886
98475SOL     OW97321   5.144  12.452   2.140
98475SOL    HW197322   5.184  12.529   2.181
98475SOL    HW297323   5.206  12.381   2.155
98476SOL     OW97324   6.983   6.199  13.408
98476SOL    HW197325   7.032   6.203  13.326
98476SOL    HW297326   6.946   6.110  13.409
98477SOL     OW97327  11.196   4.709  10.087
98477SOL    HW197328  11.169   4.683   9.999
98477SOL    HW297329  11.114   4.723  10.134
98478SOL     OW97330   1.784   3.008   4.295
98478SOL    HW197331   1.790   3.055   4.378
98478SOL    HW297332   1.818   2.920   4.315
98479SOL     OW97333   0.778  12.937   4.732
98479SOL    HW197334   0.774  12.978   4.819
98479SOL    HW297335   0.857  12.884   4.734
98480SOL     OW97336   4.812   7.620   9.360
98480SOL    HW197337   4.853   7.664   9.285
98480SOL    HW297338   4.766   7.545   9.321
98481SOL     OW97339   3.411   4.654   6.150
98481SOL    HW197340   3.497   4.620   6.175
98481SOL    HW297341   3.408   4.644   6.055
98482SOL     OW97342  11.912   3.494  13.273
98482SOL    HW197343  11.973   3.428  13.307
98482SOL    HW297344  11.968   3.561  13.236
98483SOL     OW97345   1.537   6.831  14.801
98483SOL    HW197346   1.552   6.843   0.014
98483SOL    HW297347   1.546   6.737  14.787
98484SOL     OW97348   9.234   7.000   6.186
98484SOL    HW197349   9.323   7.035   6.179
98484SOL    HW297350   9.242   6.927   6.247
98485SOL     OW97351  13.508   1.058   6.668
98485SOL    HW197352  13.518   1.061   6.763
98485SOL    HW297353  13.565   0.987   6.640
98486SOL     OW97354  13.081  11.003   4.657
98486SOL    HW197355  13.102  10.917   4.621
98486SOL    HW297356  13.092  11.063   4.583
98487SOL     OW97357  11.510  12.847   8.568
98487SOL    HW197358  11.593  12.813   8.534
98487SOL    HW297359  11.536  12.914   8.632
98488SOL     OW97360   6.991  11.067   6.961
98488SOL    HW197361   7.035  11.059   7.045
98488SOL    HW297362   6.933  10.990   6.957
98489SOL     OW97363  14.472  10.083   4.157
98489SOL    HW197364  14.567  10.075   4.146
98489SOL    HW297365  14.454  10.176   4.149
98490SOL     OW97366   8.053   2.825   7.590
98490SOL    HW197367   8.106   2.767   7.644
98490SOL    HW297368   8.092   2.911   7.603
98491SOL     OW97369  11.493   2.214   8.891
98491SOL    HW197370  11.466   2.205   8.982
98491SOL    HW297371  11.424   2.268   8.851
98492SOL     OW97372   7.296  12.153  13.026
98492SOL    HW197373   7.235  12.156  12.953
98492SOL    HW297374   7.347  12.073  13.011
98493SOL     OW97375   6.051  11.433   1.457
98493SOL    HW197376   6.024  11.344   1.478
98493SOL    HW297377   6.039  11.482   1.539
98494SOL     OW97378   7.374   4.973   1.324
98494SOL    HW197379   7.318   5.039   1.364
98494SOL    HW297380   7.314   4.912   1.281
98495SOL     OW97381  14.352  14.475  14.645
98495SOL    HW197382  14.424  14.426  14.685
98495SOL    HW297383  14.358  14.454  14.552
98496SOL     OW97384  12.438  11.613  12.784
98496SOL    HW197385  12.479  11.669  12.850
98496SOL    HW297386  12.344  11.626  12.797
98497SOL     OW97387  13.679  12.664   7.298
98497SOL    HW197388  13.742  12.689   7.366
98497SOL    HW297389  13.664  12.570   7.314
98498SOL     OW97390   7.192   0.968   4.111
98498SOL    HW197391   7.152   0.922   4.185
98498SOL    HW297392   7.256   0.906   4.076
98499SOL     OW97393  11.243   0.126   0.113
98499SOL    HW197394  11.313   0.129   0.048
98499SOL    HW297395  11.206   0.215   0.112
98500SOL     OW97396   5.187   3.400   7.422
98500SOL    HW197397   5.122   3.417   7.490
98500SOL    HW297398   5.223   3.486   7.401
98501SOL     OW97399  11.839   7.703   2.290
98501SOL    HW197400  11.803   7.615   2.275
98501SOL    HW297401  11.792   7.759   2.229
98502SOL     OW97402   9.867   9.599   7.979
98502SOL    HW197403   9.800   9.540   8.013
98502SOL    HW297404   9.848   9.683   8.020
98503SOL     OW97405  11.185   6.391   3.704
98503SOL    HW197406  11.136   6.331   3.648
98503SOL    HW297407  11.149   6.477   3.684
98504SOL     OW97408   8.575   3.296   0.603
98504SOL    HW197409   8.663   3.334   0.604
98504SOL    HW297410   8.582   3.217   0.658
98505SOL     OW97411   7.887   6.529   0.084
98505SOL    HW197412   7.909   6.621   0.068
98505SOL    HW297413   7.900   6.487  14.879
98506SOL     OW97414  11.693   4.921  12.315
98506SOL    HW197415  11.726   4.852  12.371
98506SOL    HW297416  11.683   4.997  12.373
98507SOL     OW97417  13.433   1.426   5.938
98507SOL    HW197418  13.505   1.471   5.981
98507SOL    HW297419  13.357   1.483   5.953
98508SOL     OW97420   5.246   8.764  12.512
98508SOL    HW197421   5.189   8.716  12.452
98508SOL    HW297422   5.225   8.856  12.495
98509SOL     OW97423   5.964   9.495   5.596
98509SOL    HW197424   5.988   9.421   5.651
98509SOL    HW297425   6.048   9.532   5.568
98510SOL     OW97426   3.315   8.430  11.456
98510SOL    HW197427   3.410   8.439  11.469
98510SOL    HW297428   3.296   8.339  11.479
98511SOL     OW97429   0.715   8.216   1.421
98511SOL    HW197430   0.706   8.155   1.348
98511SOL    HW297431   0.809   8.235   1.424
98512SOL     OW97432  10.308   1.108  12.965
98512SOL    HW197433  10.299   1.083  13.057
98512SOL    HW297434  10.389   1.158  12.962
98513SOL     OW97435   8.016   1.889   2.067
98513SOL    HW197436   7.986   1.970   2.027
98513SOL    HW297437   8.070   1.847   1.999
98514SOL     OW97438   8.203   9.048   3.322
98514SOL    HW197439   8.168   9.041   3.233
98514SOL    HW297440   8.168   8.971   3.367
98515SOL     OW97441   7.505   8.237  11.656
98515SOL    HW197442   7.497   8.150  11.617
98515SOL    HW297443   7.479   8.225  11.747
98516SOL     OW97444   1.419   9.045   7.918
98516SOL    HW197445   1.501   9.001   7.939
98516SOL    HW297446   1.409   9.034   7.823
98517SOL     OW97447   6.361   0.182   6.592
98517SOL    HW197448   6.452   0.212   6.587
98517SOL    HW297449   6.341   0.152   6.504
98518SOL     OW97450   4.950   0.159   0.143
98518SOL    HW197451   4.937   0.230   0.205
98518SOL    HW297452   5.027   0.185   0.093
98519SOL     OW97453   4.233   4.659  11.953
98519SOL    HW197454   4.318   4.624  11.978
98519SOL    HW297455   4.197   4.595  11.892
98520SOL     OW97456  11.138  10.792   9.879
98520SOL    HW197457  11.187  10.859   9.833
98520SOL    HW297458  11.084  10.840   9.942
98521SOL     OW97459   8.328  12.203   2.999
98521SOL    HW197460   8.388  12.234   2.931
98521SOL    HW297461   8.274  12.279   3.021
98522SOL     OW97462   6.875  13.952   7.207
98522SOL    HW197463   6.810  13.896   7.164
98522SOL    HW297464   6.857  13.940   7.301
98523SOL     OW97465   0.373   3.904   9.884
98523SOL    HW197466   0.400   3.952   9.962
98523SOL    HW297467   0.381   3.968   9.813
98524SOL     OW97468   9.015   7.185   5.215
98524SOL    HW197469   9.091   7.128   5.220
98524SOL    HW297470   8.972   7.161   5.133
98525SOL     OW97471   3.258   0.893  14.301
98525SOL    HW197472   3.313   0.970  14.285
98525SOL    HW297473   3.169   0.923  14.279
98526SOL     OW97474   6.463   7.636  14.806
98526SOL    HW197475   6.459   7.610   0.018
98526SOL    HW297476   6.497   7.726  14.808
98527SOL     OW97477   8.876  14.327   6.703
98527SOL    HW197478   8.864  14.281   6.786
98527SOL    HW297479   8.970  14.321   6.687
98528SOL     OW97480  10.668   9.242  11.732
98528SOL    HW197481  10.698   9.285  11.652
98528SOL    HW297482  10.729   9.168  11.744
98529SOL     OW97483   0.164   3.872  14.697
98529SOL    HW197484   0.117   3.871  14.614
98529SOL    HW297485   0.099   3.904  14.761
98530SOL     OW97486   3.789   4.049   7.970
98530SOL    HW197487   3.805   3.961   8.003
98530SOL    HW297488   3.779   4.038   7.876
98531SOL     OW97489   2.403  13.449   8.666
98531SOL    HW197490   2.403  13.383   8.597
98531SOL    HW297491   2.488  13.440   8.709
98532SOL     OW97492   0.726   1.385  11.640
98532SOL    HW197493   0.766   1.468  11.664
98532SOL    HW297494   0.671   1.362  11.715
98533SOL     OW97495   6.127   2.458   6.396
98533SOL    HW197496   6.051   2.511   6.421
98533SOL    HW297497   6.194   2.522   6.371
98534SOL     OW97498  13.728   5.342  12.335
98534SOL    HW197499  13.796   5.374  12.396
98534SOL    HW297500  13.658   5.311  12.392
98535SOL     OW97501   7.010   7.268   6.537
98535SOL    HW197502   7.034   7.175   6.536
98535SOL    HW297503   6.947   7.276   6.609
98536SOL     OW97504   4.675  10.621  12.263
98536SOL    HW197505   4.718  10.706  12.270
98536SOL    HW297506   4.688  10.595  12.172
98537SOL     OW97507   5.266   0.101   7.153
98537SOL    HW197508   5.209   0.059   7.216
98537SOL    HW297509   5.252   0.053   7.071
98538SOL     OW97510   2.195  14.704  14.122
98538SOL    HW197511   2.134  14.770  14.152
98538SOL    HW297512   2.204  14.720  14.028
98539SOL     OW97513   8.056   8.154  14.478
98539SOL    HW197514   8.008   8.156  14.561
98539SOL    HW297515   8.116   8.229  14.483
98540SOL     OW97516   1.008   6.614   1.192
98540SOL    HW197517   0.959   6.537   1.222
98540SOL    HW297518   1.068   6.580   1.125
98541SOL     OW97519   4.431   3.749   0.017
98541SOL    HW197520   4.514   3.709  14.871
98541SOL    HW297521   4.429   3.832  14.850
98542SOL     OW97522  11.554  14.152   1.652
98542SOL    HW197523  11.625  14.187   1.706
98542SOL    HW297524  11.542  14.062   1.684
98543SOL     OW97525   9.762  13.878   7.398
98543SOL    HW197526   9.847  13.840   7.378
98543SOL    HW297527   9.759  13.959   7.347
98544SOL     OW97528   8.130   8.813   4.378
98544SOL    HW197529   8.223   8.792   4.384
98544SOL    HW297530   8.108   8.798   4.286
98545SOL     OW97531   2.771   8.815   4.628
98545SOL    HW197532   2.803   8.865   4.702
98545SOL    HW297533   2.695   8.864   4.596
98546SOL     OW97534   8.166   7.670  13.487
98546SOL    HW197535   8.137   7.729  13.557
98546SOL    HW297536   8.137   7.583  13.515
98547SOL     OW97537   7.113   8.744   3.361
98547SOL    HW197538   7.132   8.730   3.269
98547SOL    HW297539   7.134   8.661   3.404
98548SOL     OW97540   7.975   2.755   1.445
98548SOL    HW197541   8.062   2.725   1.422
98548SOL    HW297542   7.989   2.828   1.505
98549SOL     OW97543   4.903   1.531   7.247
98549SOL    HW197544   4.948   1.612   7.268
98549SOL    HW297545   4.939   1.466   7.307
98550SOL     OW97546  11.417   6.532  11.877
98550SOL    HW197547  11.330   6.494  11.888
98550SOL    HW297548  11.451   6.540  11.966
98551SOL     OW97549   5.017  12.604   8.909
98551SOL    HW197550   4.954  12.532   8.920
98551SOL    HW297551   5.091  12.564   8.864
98552SOL     OW97552   6.555   7.967   1.707
98552SOL    HW197553   6.520   7.931   1.789
98552SOL    HW297554   6.528   7.904   1.640
98553SOL     OW97555   8.630   6.738   0.054
98553SOL    HW197556   8.686   6.709  14.863
98553SOL    HW297557   8.659   6.827   0.073
98554SOL     OW97558  10.217   4.949  13.472
98554SOL    HW197559  10.292   4.908  13.430
98554SOL    HW297560  10.167   4.876  13.508
98555SOL     OW97561   7.678  11.927   4.740
98555SOL    HW197562   7.721  11.892   4.818
98555SOL    HW297563   7.665  11.851   4.684
98556SOL     OW97564   0.944  11.039   7.968
98556SOL    HW197565   1.013  11.038   7.901
98556SOL    HW297566   0.976  10.979   8.036
98557SOL     OW97567   3.841  14.423   8.568
98557SOL    HW197568   3.924  14.462   8.596
98557SOL    HW297569   3.783  14.498   8.555
98558SOL     OW97570   2.570   9.740   9.037
98558SOL    HW197571   2.603   9.817   9.084
98558SOL    HW297572   2.648   9.686   9.022
98559SOL     OW97573  13.499   8.038  14.873
98559SOL    HW197574  13.574   8.091   0.018
98559SOL    HW297575  13.535   7.974  14.811
98560SOL     OW97576   8.748   7.332  12.670
98560SOL    HW197577   8.782   7.420  12.685
98560SOL    HW297578   8.671   7.326  12.726
98561SOL     OW97579   5.964  12.417  10.456
98561SOL    HW197580   5.904  12.441  10.386
98561SOL    HW297581   5.975  12.498  10.506
98562SOL     OW97582   8.776   3.924   6.872
98562SOL    HW197583   8.685   3.894   6.879
98562SOL    HW297584   8.770   4.003   6.817
98563SOL     OW97585   9.598   0.208   0.558
98563SOL    HW197586   9.637   0.209   0.471
98563SOL    HW297587   9.508   0.237   0.544
98564SOL     OW97588   5.381  14.627  12.262
98564SOL    HW197589   5.444  14.698  12.275
98564SOL    HW297590   5.390  14.604  12.169
98565SOL     OW97591   4.701   1.492   2.513
98565SOL    HW197592   4.710   1.545   2.434
98565SOL    HW297593   4.675   1.554   2.581
98566SOL     OW97594   7.103   5.117   9.897
98566SOL    HW197595   7.119   5.206   9.866
98566SOL    HW297596   7.011   5.117   9.923
98567SOL     OW97597   7.459   9.370  13.315
98567SOL    HW197598   7.424   9.392  13.401
98567SOL    HW297599   7.482   9.277  13.321
98568SOL     OW97600   8.147  13.966  10.519
98568SOL    HW197601   8.210  14.038  10.518
98568SOL    HW297602   8.179  13.907  10.588
98569SOL     OW97603   1.948   5.747  14.406
98569SOL    HW197604   1.892   5.690  14.459
98569SOL    HW297605   1.946   5.708  14.318
98570SOL     OW97606   6.862   0.817   2.452
98570SOL    HW197607   6.916   0.763   2.509
98570SOL    HW297608   6.882   0.907   2.477
98571SOL     OW97609   8.377  10.061   5.306
98571SOL    HW197610   8.393  10.143   5.259
98571SOL    HW297611   8.315  10.084   5.375
98572SOL     OW97612   2.691   1.599  10.686
98572SOL    HW197613   2.752   1.540  10.730
98572SOL    HW297614   2.731   1.615  10.601
98573SOL     OW97615  11.831  10.169   1.532
98573SOL    HW197616  11.856  10.260   1.515
98573SOL    HW297617  11.783  10.173   1.615
98574SOL     OW97618   2.625   2.502  11.023
98574SOL    HW197619   2.610   2.570  10.957
98574SOL    HW297620   2.563   2.522  11.093
98575SOL     OW97621   0.074  13.669   4.670
98575SOL    HW197622   0.070  13.663   4.575
98575SOL    HW297623   0.166  13.683   4.690
98576SOL     OW97624   3.119   7.207  10.843
98576SOL    HW197625   3.025   7.206  10.825
98576SOL    HW297626   3.128   7.166  10.929
98577SOL     OW97627   1.360   1.664  12.202
98577SOL    HW197628   1.372   1.573  12.175
98577SOL    HW297629   1.407   1.715  12.136
98578SOL     OW97630   7.914   3.436  12.247
98578SOL    HW197631   7.981   3.452  12.314
98578SOL    HW297632   7.950   3.365  12.193
98579SOL     OW97633   4.334   6.246  10.791
98579SOL    HW197634   4.263   6.299  10.828
98579SOL    HW297635   4.372   6.201  10.866
98580SOL     OW97636   6.509  10.569   6.259
98580SOL    HW197637   6.584  10.573   6.318
98580SOL    HW297638   6.547  10.561   6.171
98581SOL     OW97639   4.180   2.319   8.432
98581SOL    HW197640   4.200   2.290   8.343
98581SOL    HW297641   4.180   2.414   8.426
98582SOL     OW97642   1.177   2.547  12.214
98582SOL    HW197643   1.225   2.473  12.177
98582SOL    HW297644   1.246   2.604  12.250
98583SOL     OW97645   2.883  10.026   2.643
98583SOL    HW197646   2.935  10.010   2.564
98583SOL    HW297647   2.792  10.014   2.614
98584SOL     OW97648  10.982   3.469   2.075
98584SOL    HW197649  10.910   3.452   2.013
98584SOL    HW297650  11.018   3.383   2.094
98585SOL     OW97651  12.065  11.409   3.259
98585SOL    HW197652  12.091  11.338   3.201
98585SOL    HW297653  11.987  11.377   3.305
98586SOL     OW97654   9.942   6.894   5.864
98586SOL    HW197655   9.967   6.945   5.787
98586SOL    HW297656   9.862   6.848   5.837
98587SOL     OW97657  14.786   1.926  10.010
98587SOL    HW197658  14.791   2.009  10.058
98587SOL    HW297659  14.697   1.895  10.025
98588SOL     OW97660   7.414   2.166  13.055
98588SOL    HW197661   7.492   2.120  13.085
98588SOL    HW297662   7.430   2.182  12.962
98589SOL     OW97663   2.204  13.250   2.530
98589SOL    HW197664   2.165  13.165   2.509
98589SOL    HW297665   2.236  13.284   2.447
98590SOL     OW97666   4.274   1.314  13.525
98590SOL    HW197667   4.279   1.218  13.518
98590SOL    HW297668   4.250   1.343  13.437
98591SOL     OW97669  14.554  14.723   7.576
98591SOL    HW197670  14.522  14.648   7.526
98591SOL    HW297671  14.475  14.774   7.595
98592SOL     OW97672  13.448  14.645   9.984
98592SOL    HW197673  13.521  14.593   9.950
98592SOL    HW297674  13.375  14.583   9.991
98593SOL     OW97675  14.285   8.539  12.777
98593SOL    HW197676  14.329   8.573  12.699
98593SOL    HW297677  14.353   8.494  12.826
98594SOL     OW97678   1.601   4.351  12.085
98594SOL    HW197679   1.635   4.283  12.144
98594SOL    HW297680   1.671   4.364  12.021
98595SOL     OW97681   9.091  13.549   5.704
98595SOL    HW197682   9.151  13.618   5.732
98595SOL    HW297683   9.117  13.473   5.755
98596SOL     OW97684   0.378   2.830  10.367
98596SOL    HW197685   0.351   2.836  10.275
98596SOL    HW297686   0.365   2.738  10.389
98597SOL     OW97687   5.277   7.875   2.027
98597SOL    HW197688   5.195   7.907   2.064
98597SOL    HW297689   5.297   7.795   2.076
98598SOL     OW97690  12.444   8.484   4.812
98598SOL    HW197691  12.521   8.492   4.756
98598SOL    HW297692  12.392   8.562   4.792
98599SOL     OW97693   8.220   6.363   7.496
98599SOL    HW197694   8.165   6.285   7.496
98599SOL    HW297695   8.216   6.394   7.587
98600SOL     OW97696   9.932   7.435   7.288
98600SOL    HW197697   9.925   7.518   7.334
98600SOL    HW297698   9.948   7.459   7.197
98601SOL     OW97699  12.026  13.646   4.954
98601SOL    HW197700  12.003  13.706   4.883
98601SOL    HW297701  12.084  13.698   5.010
98602SOL     OW97702  10.328   0.037   5.668
98602SOL    HW197703  10.405   0.039   5.611
98602SOL    HW297704  10.305   0.129   5.680
98603SOL     OW97705  12.208   8.527  13.806
98603SOL    HW197706  12.235   8.475  13.730
98603SOL    HW297707  12.230   8.473  13.882
98604SOL     OW97708   6.237   9.130   3.352
98604SOL    HW197709   6.320   9.086   3.333
98604SOL    HW297710   6.200   9.080   3.425
98605SOL     OW97711   9.227   7.919  12.635
98605SOL    HW197712   9.230   7.835  12.680
98605SOL    HW297713   9.318   7.941  12.617
98606SOL     OW97714  13.669  13.978  13.210
98606SOL    HW197715  13.754  13.975  13.165
98606SOL    HW297716  13.628  14.058  13.177
98607SOL     OW97717   3.151  14.211  10.009
98607SOL    HW197718   3.164  14.197  10.103
98607SOL    HW297719   3.233  14.250   9.979
98608SOL     OW97720  12.185  13.179   0.093
98608SOL    HW197721  12.265  13.163   0.043
98608SOL    HW297722  12.198  13.266   0.131
98609SOL     OW97723  14.854   1.364  10.484
98609SOL    HW197724   0.001   1.311  10.558
98609SOL    HW297725  14.873   1.454  10.510
98610SOL     OW97726   8.211  14.648  11.691
98610SOL    HW197727   8.203  14.564  11.647
98610SOL    HW297728   8.121  14.681  11.697
98611SOL     OW97729   6.769  10.366   7.205
98611SOL    HW197730   6.675  10.370   7.187
98611SOL    HW297731   6.784  10.275   7.230
98612SOL     OW97732   5.325  12.810  10.908
98612SOL    HW197733   5.414  12.785  10.936
98612SOL    HW297734   5.335  12.898  10.872
98613SOL     OW97735   9.708   6.920   9.177
98613SOL    HW197736   9.649   6.870   9.121
98613SOL    HW297737   9.695   6.884   9.265
98614SOL     OW97738   7.385   6.312   8.685
98614SOL    HW197739   7.476   6.328   8.711
98614SOL    HW297740   7.338   6.302   8.767
98615SOL     OW97741   7.348  10.649  11.617
98615SOL    HW197742   7.427  10.699  11.594
98615SOL    HW297743   7.381  10.569  11.657
98616SOL     OW97744   2.605   1.920   5.496
98616SOL    HW197745   2.683   1.968   5.470
98616SOL    HW297746   2.592   1.944   5.588
98617SOL     OW97747   7.276   1.425   3.847
98617SOL    HW197748   7.221   1.440   3.924
98617SOL    HW297749   7.354   1.382   3.881
98618SOL     OW97750   4.145   8.731   0.897
98618SOL    HW197751   4.091   8.675   0.952
98618SOL    HW297752   4.233   8.693   0.903
98619SOL     OW97753   5.889   7.437   1.808
98619SOL    HW197754   5.833   7.428   1.885
98619SOL    HW297755   5.882   7.529   1.784
98620SOL     OW97756   8.685  14.428  12.630
98620SOL    HW197757   8.638  14.389  12.557
98620SOL    HW297758   8.635  14.506  12.652
98621SOL     OW97759   9.219   8.476  13.748
98621SOL    HW197760   9.146   8.436  13.794
98621SOL    HW297761   9.292   8.473  13.810
98622SOL     OW97762   0.303   8.099  12.923
98622SOL    HW197763   0.224   8.109  12.977
98622SOL    HW297764   0.291   8.162  12.852
98623SOL     OW97765   3.177   3.549  14.081
98623SOL    HW197766   3.155   3.464  14.043
98623SOL    HW297767   3.209   3.529  14.169
98624SOL     OW97768   1.780  12.603   9.512
98624SOL    HW197769   1.689  12.607   9.482
98624SOL    HW297770   1.797  12.690   9.547
98625SOL     OW97771   4.802  14.624   9.310
98625SOL    HW197772   4.784  14.701   9.364
98625SOL    HW297773   4.716  14.592   9.284
98626SOL     OW97774   0.064  12.111   2.884
98626SOL    HW197775   0.065  12.037   2.822
98626SOL    HW297776  14.860  12.103   2.928
98627SOL     OW97777   1.047   5.894   8.792
98627SOL    HW197778   0.954   5.917   8.783
98627SOL    HW297779   1.056   5.869   8.884
98628SOL     OW97780  12.732  13.448   4.827
98628SOL    HW197781  12.816  13.435   4.784
98628SOL    HW297782  12.732  13.540   4.854
98629SOL     OW97783   4.926   1.908   4.046
98629SOL    HW197784   4.999   1.881   4.102
98629SOL    HW297785   4.901   1.829   3.999
98630SOL     OW97786   9.110  10.091  12.048
98630SOL    HW197787   9.020  10.119  12.063
98630SOL    HW297788   9.154  10.107  12.132
98631SOL     OW97789   9.963   1.826  12.488
98631SOL    HW197790   9.988   1.894  12.550
98631SOL    HW297791   9.903   1.869  12.428
98632SOL     OW97792  12.623   8.729  12.985
98632SOL    HW197793  12.542   8.683  13.007
98632SOL    HW297794  12.630   8.721  12.890
98633SOL     OW97795  12.992   9.940   2.045
98633SOL    HW197796  12.954   9.995   1.975
98633SOL    HW297797  12.919   9.924   2.104
98634SOL     OW97798   5.002   0.616  10.189
98634SOL    HW197799   5.037   0.706  10.192
98634SOL    HW297800   4.997   0.589  10.281
98635SOL     OW97801   3.568  11.388  13.690
98635SOL    HW197802   3.563  11.482  13.707
98635SOL    HW297803   3.659  11.373  13.665
98636SOL     OW97804   8.123   7.151  14.279
98636SOL    HW197805   8.035   7.161  14.242
98636SOL    HW297806   8.151   7.241  14.297
98637SOL     OW97807   0.831   7.180   0.617
98637SOL    HW197808   0.742   7.195   0.647
98637SOL    HW297809   0.836   7.225   0.533
98638SOL     OW97810   6.433   3.647   7.210
98638SOL    HW197811   6.480   3.616   7.132
98638SOL    HW297812   6.437   3.573   7.271
98639SOL     OW97813   1.870   5.069  10.128
98639SOL    HW197814   1.912   5.061  10.214
98639SOL    HW297815   1.942   5.078  10.067
98640SOL     OW97816   1.371   6.955   3.240
98640SOL    HW197817   1.336   6.928   3.155
98640SOL    HW297818   1.354   6.881   3.298
98641SOL     OW97819  12.259   9.971   2.324
98641SOL    HW197820  12.215   9.949   2.406
98641SOL    HW297821  12.283   9.887   2.286
98642SOL     OW97822   0.299  10.223   5.840
98642SOL    HW197823   0.234  10.153   5.850
98642SOL    HW297824   0.284  10.257   5.752
98643SOL     OW97825   2.259   5.281  10.827
98643SOL    HW197826   2.220   5.268  10.741
98643SOL    HW297827   2.323   5.210  10.836
98644SOL     OW97828   0.600   1.324   7.352
98644SOL    HW197829   0.606   1.415   7.383
98644SOL    HW297830   0.687   1.304   7.319
98645SOL     OW97831   9.835   7.289  10.199
98645SOL    HW197832   9.832   7.212  10.257
98645SOL    HW297833   9.844   7.252  10.111
98646SOL     OW97834   0.764   1.336   9.786
98646SOL    HW197835   0.846   1.374   9.757
98646SOL    HW297836   0.787   1.248   9.816
98647SOL     OW97837  10.136  11.325   2.778
98647SOL    HW197838  10.052  11.365   2.757
98647SOL    HW297839  10.183  11.392   2.827
98648SOL     OW97840   3.875  12.303   9.471
98648SOL    HW197841   3.940  12.331   9.535
98648SOL    HW297842   3.796  12.286   9.522
98649SOL     OW97843  13.461   9.371   6.160
98649SOL    HW197844  13.540   9.392   6.209
98649SOL    HW297845  13.493   9.329   6.080
98650SOL     OW97846   0.355   4.773  11.863
98650SOL    HW197847   0.412   4.747  11.791
98650SOL    HW297848   0.397   4.849  11.902
98651SOL     OW97849   5.694   4.323  11.186
98651SOL    HW197850   5.767   4.344  11.127
98651SOL    HW297851   5.650   4.407  11.199
98652SOL     OW97852   2.716  13.565  11.417
98652SOL    HW197853   2.622  13.577  11.420
98652SOL    HW297854   2.752  13.638  11.467
98653SOL     OW97855   9.399   5.816   2.680
98653SOL    HW197856   9.384   5.826   2.774
98653SOL    HW297857   9.485   5.773   2.674
98654SOL     OW97858   7.700   5.336  12.815
98654SOL    HW197859   7.712   5.431  12.816
98654SOL    HW297860   7.782   5.302  12.851
98655SOL     OW97861  13.267  12.842  12.725
98655SOL    HW197862  13.245  12.925  12.682
98655SOL    HW297863  13.314  12.792  12.658
98656SOL     OW97864  13.533   5.475  12.524
98656SOL    HW197865  13.497   5.426  12.598
98656SOL    HW297866  13.627   5.464  12.530
98657SOL     OW97867  12.450   8.472   1.785
98657SOL    HW197868  12.500   8.495   1.707
98657SOL    HW297869  12.370   8.431   1.751
98658SOL     OW97870   1.206   6.624   9.268
98658SOL    HW197871   1.156   6.691   9.315
98658SOL    HW297872   1.261   6.584   9.336
98659SOL     OW97873  14.608   7.440   4.032
98659SOL    HW197874  14.702   7.422   4.030
98659SOL    HW297875  14.589   7.478   3.946
98660SOL     OW97876  11.340  13.263  10.881
98660SOL    HW197877  11.246  13.245  10.874
98660SOL    HW297878  11.381  13.176  10.874
98661SOL     OW97879   0.842  12.217   8.658
98661SOL    HW197880   0.752  12.231   8.627
98661SOL    HW297881   0.846  12.265   8.741
98662SOL     OW97882  10.559  12.092   5.174
98662SOL    HW197883  10.652  12.106   5.188
98662SOL    HW297884  10.554  12.020   5.111
98663SOL     OW97885   6.984  13.708  13.633
98663SOL    HW197886   6.929  13.707  13.554
98663SOL    HW297887   6.924  13.735  13.703
98664SOL     OW97888   7.736  13.670   7.402
98664SOL    HW197889   7.766  13.579   7.394
98664SOL    HW297890   7.716  13.696   7.312
98665SOL     OW97891   0.471   3.844   1.196
98665SOL    HW197892   0.376   3.834   1.194
98665SOL    HW297893   0.495   3.836   1.288
98666SOL     OW97894   8.494  10.581  11.229
98666SOL    HW197895   8.444  10.507  11.264
98666SOL    HW297896   8.572  10.542  11.191
98667SOL     OW97897   0.859  14.538   1.870
98667SOL    HW197898   0.802  14.501   1.802
98667SOL    HW297899   0.911  14.463   1.901
98668SOL     OW97900   4.899  13.401  12.219
98668SOL    HW197901   4.922  13.422  12.129
98668SOL    HW297902   4.977  13.421  12.269
98669SOL     OW97903  11.605   9.441   8.062
98669SOL    HW197904  11.592   9.457   8.155
98669SOL    HW297905  11.691   9.399   8.056
98670SOL     OW97906   1.293   9.166  11.756
98670SOL    HW197907   1.323   9.192  11.669
98670SOL    HW297908   1.199   9.183  11.755
98671SOL     OW97909  14.217   6.717   7.529
98671SOL    HW197910  14.169   6.722   7.612
98671SOL    HW297911  14.272   6.796   7.529
98672SOL     OW97912   0.396   2.974   5.868
98672SOL    HW197913   0.416   3.012   5.953
98672SOL    HW297914   0.401   3.048   5.807
98673SOL     OW97915   8.168   8.698   0.921
98673SOL    HW197916   8.172   8.739   0.834
98673SOL    HW297917   8.238   8.741   0.970
98674SOL     OW97918   8.879   4.286   8.878
98674SOL    HW197919   8.864   4.210   8.934
98674SOL    HW297920   8.963   4.267   8.835
98675SOL     OW97921   9.532  10.486   2.301
98675SOL    HW197922   9.565  10.520   2.384
98675SOL    HW297923   9.479  10.410   2.326
98676SOL     OW97924   8.060   8.460   2.321
98676SOL    HW197925   8.063   8.366   2.300
98676SOL    HW297926   7.999   8.497   2.256
98677SOL     OW97927   6.803  14.400  13.119
98677SOL    HW197928   6.884  14.426  13.162
98677SOL    HW297929   6.737  14.401  13.188
98678SOL     OW97930   5.750  14.671   9.579
98678SOL    HW197931   5.771  14.632   9.663
98678SOL    HW297932   5.774  14.764   9.588
98679SOL     OW97933   8.168   6.424   9.595
98679SOL    HW197934   8.081   6.444   9.563
98679SOL    HW297935   8.216   6.507   9.590
98680SOL     OW97936   1.035   1.635   1.878
98680SOL    HW197937   1.060   1.723   1.848
98680SOL    HW297938   0.946   1.623   1.845
98681SOL     OW97939   6.064   7.319   1.038
98681SOL    HW197940   6.091   7.323   1.130
98681SOL    HW297941   6.146   7.314   0.989
98682SOL     OW97942   2.337  13.820   0.230
98682SOL    HW197943   2.319  13.740   0.179
98682SOL    HW297944   2.273  13.883   0.198
98683SOL     OW97945   1.893   1.163  13.433
98683SOL    HW197946   1.977   1.120  13.443
98683SOL    HW297947   1.857   1.167  13.522
98684SOL     OW97948  14.263  14.257   9.221
98684SOL    HW197949  14.290  14.207   9.298
98684SOL    HW297950  14.337  14.252   9.161
98685SOL     OW97951   8.145   5.219   5.127
98685SOL    HW197952   8.103   5.146   5.173
98685SOL    HW297953   8.105   5.297   5.165
98686SOL     OW97954   4.480   3.085   9.748
98686SOL    HW197955   4.544   3.076   9.677
98686SOL    HW297956   4.397   3.058   9.709
98687SOL     OW97957  10.857   1.876  10.283
98687SOL    HW197958  10.951   1.886  10.289
98687SOL    HW297959  10.834   1.911  10.197
98688SOL     OW97960   3.994   9.986  11.714
98688SOL    HW197961   4.061   9.982  11.645
98688SOL    HW297962   4.042   9.970  11.795
98689SOL     OW97963   7.964   8.009   7.208
98689SOL    HW197964   7.877   8.035   7.180
98689SOL    HW297965   8.018   8.088   7.196
98690SOL     OW97966   3.151   6.062  14.648
98690SOL    HW197967   3.099   6.063  14.728
98690SOL    HW297968   3.088   6.037  14.580
98691SOL     OW97969   0.085   4.277  11.449
98691SOL    HW197970   0.100   4.366  11.417
98691SOL    HW297971   0.069   4.289  11.543
98692SOL     OW97972  11.249   2.417   0.749
98692SOL    HW197973  11.157   2.438   0.764
98692SOL    HW297974  11.295   2.500   0.764
98693SOL     OW97975   6.629   1.007   9.206
98693SOL    HW197976   6.578   1.053   9.140
98693SOL    HW297977   6.645   1.072   9.274
98694SOL     OW97978   0.779   9.459   1.367
98694SOL    HW197979   0.753   9.375   1.330
98694SOL    HW297980   0.708   9.519   1.344
98695SOL     OW97981   4.933   2.780  12.906
98695SOL    HW197982   4.878   2.702  12.899
98695SOL    HW297983   4.898   2.828  12.982
98696SOL     OW97984  10.739   6.866   0.407
98696SOL    HW197985  10.823   6.826   0.386
98696SOL    HW297986  10.692   6.799   0.457
98697SOL     OW97987  12.214  12.309   8.082
98697SOL    HW197988  12.247  12.370   8.148
98697SOL    HW297989  12.166  12.364   8.020
98698SOL     OW97990   7.031  11.386  11.744
98698SOL    HW197991   7.094  11.375  11.673
98698SOL    HW297992   7.038  11.305  11.795
98699SOL     OW97993   3.561   7.132   2.471
98699SOL    HW197994   3.552   7.200   2.403
98699SOL    HW297995   3.515   7.056   2.434
98700SOL     OW97996  10.135   9.065  10.973
98700SOL    HW197997  10.223   9.033  10.952
98700SOL    HW297998  10.116   9.028  11.058
98701SOL     OW97999   2.557  11.765  12.022
98701SOL    HW198000   2.608  11.844  12.038
98701SOL    HW298001   2.600  11.697  12.074
98702SOL     OW98002   6.541   8.443   0.957
98702SOL    HW198003   6.626   8.448   0.999
98702SOL    HW298004   6.543   8.512   0.890
98703SOL     OW98005   8.392  10.490  14.561
98703SOL    HW198006   8.393  10.523  14.471
98703SOL    HW298007   8.350  10.559  14.612
98704SOL     OW98008   2.479  12.215  14.136
98704SOL    HW198009   2.543  12.286  14.127
98704SOL    HW298010   2.402  12.257  14.173
98705SOL     OW98011   8.251   3.148   0.150
98705SOL    HW198012   8.311   3.166   0.077
98705SOL    HW298013   8.296   3.081   0.201
98706SOL     OW98014   6.236   4.069   0.978
98706SOL    HW198015   6.235   4.048   0.884
98706SOL    HW298016   6.155   4.031   1.011
98707SOL     OW98017   1.557  12.718  14.562
98707SOL    HW198018   1.513  12.768  14.631
98707SOL    HW298019   1.570  12.631  14.599
98708SOL     OW98020  14.241   9.438   5.713
98708SOL    HW198021  14.301   9.498   5.667
98708SOL    HW298022  14.155   9.456   5.675
98709SOL     OW98023   6.726  12.165  14.338
98709SOL    HW198024   6.662  12.218  14.385
98709SOL    HW298025   6.769  12.226  14.278
98710SOL     OW98026   0.918   8.798  13.418
98710SOL    HW198027   0.846   8.854  13.445
98710SOL    HW298028   0.935   8.741  13.493
98711SOL     OW98029   6.367   9.848  10.578
98711SOL    HW198030   6.425   9.890  10.642
98711SOL    HW298031   6.384   9.754  10.590
98712SOL     OW98032  14.305   7.449   3.116
98712SOL    HW198033  14.332   7.391   3.045
98712SOL    HW298034  14.210   7.452   3.111
98713SOL     OW98035  10.897   7.831  10.141
98713SOL    HW198036  10.976   7.880  10.116
98713SOL    HW298037  10.868   7.789  10.060
98714SOL     OW98038   0.485  13.735   2.712
98714SOL    HW198039   0.551  13.766   2.650
98714SOL    HW298040   0.411  13.709   2.657
98715SOL     OW98041   9.074   1.066   4.624
98715SOL    HW198042   9.073   1.037   4.715
98715SOL    HW298043   8.982   1.075   4.601
98716SOL     OW98044  14.796   6.288  14.840
98716SOL    HW198045  14.810   6.200  14.875
98716SOL    HW298046  14.703   6.291  14.818
98717SOL     OW98047  11.369   2.281   3.457
98717SOL    HW198048  11.387   2.348   3.523
98717SOL    HW298049  11.321   2.213   3.505
98718SOL     OW98050   0.377  13.753   6.168
98718SOL    HW198051   0.414  13.672   6.202
98718SOL    HW298052   0.341  13.797   6.245
98719SOL     OW98053   2.584  12.903   6.771
98719SOL    HW198054   2.553  12.992   6.756
98719SOL    HW298055   2.559  12.884   6.862
98720SOL     OW98056  14.529   2.928  13.774
98720SOL    HW198057  14.489   2.909  13.689
98720SOL    HW298058  14.509   2.852  13.828
98721SOL     OW98059   6.729   3.706   3.502
98721SOL    HW198060   6.813   3.702   3.547
98721SOL    HW298061   6.690   3.620   3.517
98722SOL     OW98062  12.684   6.381   8.260
98722SOL    HW198063  12.622   6.454   8.268
98722SOL    HW298064  12.652   6.316   8.322
98723SOL     OW98065  12.027  10.085   0.831
98723SOL    HW198066  11.972  10.136   0.771
98723SOL    HW298067  12.056  10.010   0.780
98724SOL     OW98068   9.990   5.089   5.466
98724SOL    HW198069   9.969   5.075   5.373
98724SOL    HW298070  10.085   5.079   5.471
98725SOL     OW98071   5.405   2.979   3.613
98725SOL    HW198072   5.318   2.960   3.648
98725SOL    HW298073   5.464   2.965   3.688
98726SOL     OW98074   6.773   0.920   3.894
98726SOL    HW198075   6.837   0.919   3.823
98726SOL    HW298076   6.704   0.980   3.863
98727SOL     OW98077   9.646   9.531   1.507
98727SOL    HW198078   9.710   9.583   1.458
98727SOL    HW298079   9.695   9.456   1.539
98728SOL     OW98080   7.624   2.377   1.474
98728SOL    HW198081   7.708   2.422   1.478
98728SOL    HW298082   7.629   2.323   1.395
98729SOL     OW98083   2.257   0.019   1.905
98729SOL    HW198084   2.347  14.867   1.903
98729SOL    HW298085   2.232   0.029   1.813
98730SOL     OW98086   5.652   4.330  11.448
98730SOL    HW198087   5.719   4.305  11.512
98730SOL    HW298088   5.689   4.305  11.363
98731SOL     OW98089   0.362  14.015   1.104
98731SOL    HW198090   0.446  14.013   1.150
98731SOL    HW298091   0.303  14.062   1.163
98732SOL     OW98092   7.335   8.651   8.308
98732SOL    HW198093   7.331   8.560   8.278
98732SOL    HW298094   7.260   8.660   8.367
98733SOL     OW98095   8.183  10.365   5.413
98733SOL    HW198096   8.197  10.349   5.320
98733SOL    HW298097   8.257  10.419   5.440
98734SOL     OW98098   2.434   1.094   2.007
98734SOL    HW198099   2.446   1.036   2.082
98734SOL    HW298100   2.353   1.143   2.027
98735SOL     OW98101   8.648   6.099  12.257
98735SOL    HW198102   8.614   6.035  12.320
98735SOL    HW298103   8.736   6.068  12.237
98736SOL     OW98104   8.418   8.590   6.601
98736SOL    HW198105   8.479   8.531   6.644
98736SOL    HW298106   8.443   8.677   6.631
98737SOL     OW98107  13.404   8.413   0.407
98737SOL    HW198108  13.463   8.455   0.469
98737SOL    HW298109  13.446   8.424   0.322
98738SOL     OW98110   7.842  13.299  10.378
98738SOL    HW198111   7.889  13.382  10.384
98738SOL    HW298112   7.760  13.314  10.425
98739SOL     OW98113   5.178   9.158  12.783
98739SOL    HW198114   5.117   9.093  12.749
98739SOL    HW298115   5.215   9.199  12.705
98740SOL     OW98116   0.988  11.272  12.871
98740SOL    HW198117   0.920  11.323  12.828
98740SOL    HW298118   0.983  11.298  12.963
98741SOL     OW98119  14.308   0.950   4.440
98741SOL    HW198120  14.401   0.940   4.462
98741SOL    HW298121  14.308   0.970   4.346
98742SOL     OW98122   8.504   3.533   4.880
98742SOL    HW198123   8.473   3.620   4.902
98742SOL    HW298124   8.548   3.502   4.959
98743SOL     OW98125   6.408   4.098  11.132
98743SOL    HW198126   6.374   4.065  11.215
98743SOL    HW298127   6.467   4.170  11.157
98744SOL     OW98128   8.986  11.078  10.165
98744SOL    HW198129   9.045  11.151  10.147
98744SOL    HW298130   8.952  11.096  10.252
98745SOL     OW98131   7.360  10.127   6.056
98745SOL    HW198132   7.358  10.120   6.151
98745SOL    HW298133   7.451  10.148   6.035
98746SOL     OW98134   1.668  10.178   7.622
98746SOL    HW198135   1.634  10.119   7.689
98746SOL    HW298136   1.754  10.203   7.654
98747SOL     OW98137   4.154   1.571   8.619
98747SOL    HW198138   4.242   1.594   8.651
98747SOL    HW298139   4.171   1.516   8.542
98748SOL     OW98140   8.495  10.495   9.871
98748SOL    HW198141   8.408  10.504   9.833
98748SOL    HW298142   8.501  10.567   9.934
98749SOL     OW98143   6.244  14.784   3.080
98749SOL    HW198144   6.196  14.839   3.142
98749SOL    HW298145   6.335  14.786   3.110
98750SOL     OW98146   1.905   0.479  13.824
98750SOL    HW198147   1.894   0.489  13.730
98750SOL    HW298148   1.827   0.431  13.852
98751SOL     OW98149   8.114  11.575  13.921
98751SOL    HW198150   8.021  11.557  13.903
98751SOL    HW298151   8.150  11.489  13.944
98752SOL     OW98152   4.590   4.372  10.227
98752SOL    HW198153   4.664   4.311  10.225
98752SOL    HW298154   4.603   4.421  10.309
98753SOL     OW98155   7.170   1.527   4.479
98753SOL    HW198156   7.262   1.508   4.499
98753SOL    HW298157   7.137   1.571   4.558
98754SOL     OW98158   5.444  12.828  13.033
98754SOL    HW198159   5.496  12.789  12.963
98754SOL    HW298160   5.505  12.836  13.107
98755SOL     OW98161   1.345  11.968  12.904
98755SOL    HW198162   1.367  12.004  12.990
98755SOL    HW298163   1.287  11.895  12.923
98756SOL     OW98164   7.481   2.688   5.090
98756SOL    HW198165   7.398   2.642   5.074
98756SOL    HW298166   7.476   2.714   5.182
98757SOL     OW98167   7.968  11.785  11.736
98757SOL    HW198168   8.001  11.750  11.819
98757SOL    HW298169   8.029  11.752  11.670
98758SOL     OW98170   1.414   8.196   5.149
98758SOL    HW198171   1.334   8.144   5.147
98758SOL    HW298172   1.420   8.233   5.060
98759SOL     OW98173  12.547   2.782   3.608
98759SOL    HW198174  12.556   2.689   3.627
98759SOL    HW298175  12.541   2.823   3.695
98760SOL     OW98176  10.754   5.431   7.345
98760SOL    HW198177  10.754   5.336   7.354
98760SOL    HW298178  10.699   5.447   7.267
98761SOL     OW98179   0.147  12.165   3.657
98761SOL    HW198180   0.089  12.194   3.727
98761SOL    HW298181   0.126  12.072   3.646
98762SOL     OW98182   9.394  10.523   0.640
98762SOL    HW198183   9.423  10.513   0.731
98762SOL    HW298184   9.387  10.433   0.608
98763SOL     OW98185   3.918  14.304   9.752
98763SOL    HW198186   3.926  14.210   9.766
98763SOL    HW298187   3.924  14.315   9.657
98764SOL     OW98188  12.415   1.384   9.179
98764SOL    HW198189  12.465   1.311   9.216
98764SOL    HW298190  12.376   1.427   9.255
98765SOL     OW98191  13.444   4.568   3.641
98765SOL    HW198192  13.388   4.506   3.595
98765SOL    HW298193  13.399   4.585   3.724
98766SOL     OW98194   0.953   3.436  14.616
98766SOL    HW198195   1.021   3.430  14.548
98766SOL    HW298196   0.900   3.512  14.590
98767SOL     OW98197  12.952   6.973   1.034
98767SOL    HW198198  12.867   6.930   1.025
98767SOL    HW298199  12.995   6.928   1.106
98768SOL     OW98200  12.580   3.959  11.781
98768SOL    HW198201  12.514   4.019  11.815
98768SOL    HW298202  12.529   3.885  11.748
98769SOL     OW98203   5.855   7.748   0.782
98769SOL    HW198204   5.842   7.832   0.737
98769SOL    HW298205   5.947   7.748   0.807
98770SOL     OW98206  10.254   6.237  12.942
98770SOL    HW198207  10.200   6.307  12.979
98770SOL    HW298208  10.206   6.208  12.864
98771SOL     OW98209   0.639   6.629   4.282
98771SOL    HW198210   0.655   6.538   4.305
98771SOL    HW298211   0.565   6.655   4.336
98772SOL     OW98212   1.914   5.214   6.445
98772SOL    HW198213   1.924   5.300   6.486
98772SOL    HW298214   1.865   5.162   6.510
98773SOL     OW98215   5.703   3.654  10.845
98773SOL    HW198216   5.740   3.724  10.791
98773SOL    HW298217   5.750   3.575  10.817
98774SOL     OW98218   3.731  14.004   8.512
98774SOL    HW198219   3.791  13.955   8.457
98774SOL    HW298220   3.779  14.020   8.593
98775SOL     OW98221   8.479  13.484  12.716
98775SOL    HW198222   8.419  13.471  12.643
98775SOL    HW298223   8.520  13.399  12.730
98776SOL     OW98224   9.851   7.564   6.490
98776SOL    HW198225   9.772   7.523   6.456
98776SOL    HW298226   9.919   7.497   6.479
98777SOL     OW98227   7.432   0.798   5.438
98777SOL    HW198228   7.527   0.793   5.422
98777SOL    HW298229   7.405   0.707   5.451
98778SOL     OW98230   3.104  10.079   5.809
98778SOL    HW198231   3.147  10.164   5.814
98778SOL    HW298232   3.136  10.040   5.727
98779SOL     OW98233  11.696   3.711  14.743
98779SOL    HW198234  11.607   3.675  14.739
98779SOL    HW298235  11.722   3.700  14.834
98780SOL     OW98236   8.145  13.677   3.035
98780SOL    HW198237   8.204  13.683   3.110
98780SOL    HW298238   8.060  13.704   3.069
98781SOL     OW98239   2.482   3.799   0.539
98781SOL    HW198240   2.445   3.789   0.627
98781SOL    HW298241   2.577   3.803   0.554
98782SOL     OW98242   7.189   9.898  10.416
98782SOL    HW198243   7.099   9.880  10.388
98782SOL    HW298244   7.180   9.943  10.500
98783SOL     OW98245   4.426   0.348   7.519
98783SOL    HW198246   4.491   0.336   7.450
98783SOL    HW298247   4.343   0.322   7.478
98784SOL     OW98248   6.016  12.813  10.047
98784SOL    HW198249   6.088  12.876  10.058
98784SOL    HW298250   5.984  12.797  10.136
98785SOL     OW98251   2.585   3.006   7.458
98785SOL    HW198252   2.610   3.080   7.403
98785SOL    HW298253   2.490   3.001   7.450
98786SOL     OW98254   9.482   4.281  14.879
98786SOL    HW198255   9.565   4.326  14.866
98786SOL    HW298256   9.418   4.352   0.008
98787SOL     OW98257  10.452  11.270   9.160
98787SOL    HW198258  10.412  11.183   9.165
98787SOL    HW298259  10.411  11.319   9.231
98788SOL     OW98260  11.308   0.764   2.326
98788SOL    HW198261  11.286   0.704   2.255
98788SOL    HW298262  11.341   0.842   2.282
98789SOL     OW98263  14.647   9.309   3.593
98789SOL    HW198264  14.702   9.341   3.521
98789SOL    HW298265  14.694   9.335   3.672
98790SOL     OW98266  10.485  11.424   3.379
98790SOL    HW198267  10.555  11.368   3.414
98790SOL    HW298268  10.430  11.364   3.329
98791SOL     OW98269  14.513  12.415   9.275
98791SOL    HW198270  14.551  12.358   9.208
98791SOL    HW298271  14.418  12.408   9.262
98792SOL     OW98272   2.575  10.142   3.885
98792SOL    HW198273   2.536  10.123   3.970
98792SOL    HW298274   2.528  10.220   3.853
98793SOL     OW98275  10.381  10.866   7.590
98793SOL    HW198276  10.379  10.797   7.657
98793SOL    HW298277  10.338  10.826   7.514
98794SOL     OW98278   9.602   4.472   8.110
98794SOL    HW198279   9.550   4.394   8.092
98794SOL    HW298280   9.538   4.542   8.117
98795SOL     OW98281   9.492  14.174   6.510
98795SOL    HW198282   9.417  14.119   6.532
98795SOL    HW298283   9.470  14.260   6.545
98796SOL     OW98284   0.620   6.927   5.320
98796SOL    HW198285   0.647   6.920   5.229
98796SOL    HW298286   0.619   7.021   5.339
98797SOL     OW98287  10.313   0.475   1.204
98797SOL    HW198288  10.229   0.491   1.159
98797SOL    HW298289  10.298   0.395   1.254
98798SOL     OW98290   2.234   8.243   3.089
98798SOL    HW198291   2.246   8.245   3.184
98798SOL    HW298292   2.297   8.307   3.056
98799SOL     OW98293  10.061   2.703   9.399
98799SOL    HW198294   9.993   2.689   9.333
98799SOL    HW298295  10.138   2.660   9.363
98800SOL     OW98296   2.244  11.168   6.254
98800SOL    HW198297   2.186  11.142   6.182
98800SOL    HW298298   2.328  11.186   6.211
98801SOL     OW98299   8.043  10.297   1.686
98801SOL    HW198300   7.980  10.248   1.739
98801SOL    HW298301   8.009  10.289   1.596
98802SOL     OW98302   3.249  13.768   3.182
98802SOL    HW198303   3.281  13.758   3.093
98802SOL    HW298304   3.157  13.743   3.177
98803SOL     OW98305   7.870   0.524   7.476
98803SOL    HW198306   7.795   0.582   7.490
98803SOL    HW298307   7.898   0.541   7.386
98804SOL     OW98308   8.103  10.174   3.598
98804SOL    HW198309   8.132  10.177   3.689
98804SOL    HW298310   8.037  10.104   3.596
98805SOL     OW98311   5.441   2.103   6.221
98805SOL    HW198312   5.499   2.074   6.150
98805SOL    HW298313   5.493   2.090   6.301
98806SOL     OW98314  10.492   8.082   3.631
98806SOL    HW198315  10.452   8.016   3.576
98806SOL    HW298316  10.420   8.115   3.685
98807SOL     OW98317   9.642  10.202   3.998
98807SOL    HW198318   9.720  10.243   4.036
98807SOL    HW298319   9.619  10.133   4.060
98808SOL     OW98320   5.560  13.365  12.915
98808SOL    HW198321   5.642  13.371  12.964
98808SOL    HW298322   5.509  13.441  12.942
98809SOL     OW98323   3.256   9.685   5.596
98809SOL    HW198324   3.229   9.776   5.592
98809SOL    HW298325   3.261   9.666   5.690
98810SOL     OW98326  13.849  11.287   4.423
98810SOL    HW198327  13.843  11.336   4.504
98810SOL    HW298328  13.943  11.269   4.412
98811SOL     OW98329  10.213   9.442  14.284
98811SOL    HW198330  10.170   9.504  14.226
98811SOL    HW298331  10.296   9.421  14.240
98812SOL     OW98332   9.608  13.750   5.427
98812SOL    HW198333   9.663  13.672   5.423
98812SOL    HW298334   9.629  13.790   5.512
98813SOL     OW98335   3.400   4.526   7.095
98813SOL    HW198336   3.362   4.554   7.011
98813SOL    HW298337   3.356   4.444   7.115
98814SOL     OW98338   6.192  14.564  13.969
98814SOL    HW198339   6.265  14.547  13.909
98814SOL    HW298340   6.203  14.499  14.038
98815SOL     OW98341   7.500   3.923  10.599
98815SOL    HW198342   7.516   3.891  10.688
98815SOL    HW298343   7.423   3.979  10.607
98816SOL     OW98344   7.248  11.769   1.456
98816SOL    HW198345   7.241  11.861   1.481
98816SOL    HW298346   7.274  11.724   1.536
98817SOL     OW98347  13.392   6.071   8.889
98817SOL    HW198348  13.434   5.993   8.853
98817SOL    HW298349  13.313   6.082   8.836
98818SOL     OW98350   9.331   8.279  12.762
98818SOL    HW198351   9.266   8.307  12.698
98818SOL    HW298352   9.375   8.360  12.789
98819SOL     OW98353  14.727   5.789   4.564
98819SOL    HW198354  14.717   5.755   4.652
98819SOL    HW298355  14.818   5.820   4.560
98820SOL     OW98356   9.265   1.921  11.668
98820SOL    HW198357   9.196   1.946  11.607
98820SOL    HW298358   9.346   1.944  11.624
98821SOL     OW98359   1.702   4.425  13.352
98821SOL    HW198360   1.667   4.491  13.411
98821SOL    HW298361   1.755   4.475  13.289
98822SOL     OW98362   2.246  11.947   6.726
98822SOL    HW198363   2.237  11.937   6.821
98822SOL    HW298364   2.265  11.858   6.695
98823SOL     OW98365   8.718   7.519   2.736
98823SOL    HW198366   8.650   7.484   2.793
98823SOL    HW298367   8.687   7.607   2.713
98824SOL     OW98368  13.909   2.881   6.174
98824SOL    HW198369  13.814   2.875   6.179
98824SOL    HW298370  13.939   2.790   6.181
98825SOL     OW98371   6.661   5.688  10.385
98825SOL    HW198372   6.581   5.637  10.403
98825SOL    HW298373   6.714   5.677  10.464
98826SOL     OW98374  10.818   5.525  11.120
98826SOL    HW198375  10.789   5.597  11.176
98826SOL    HW298376  10.785   5.446  11.162
98827SOL     OW98377   5.253   7.807   1.777
98827SOL    HW198378   5.203   7.726   1.783
98827SOL    HW298379   5.285   7.823   1.865
98828SOL     OW98380   6.373  12.939   4.048
98828SOL    HW198381   6.419  12.859   4.023
98828SOL    HW298382   6.385  12.998   3.974
98829SOL     OW98383   9.059  13.545   0.440
98829SOL    HW198384   8.967  13.570   0.446
98829SOL    HW298385   9.105  13.610   0.493
98830SOL     OW98386   2.648   3.357   5.856
98830SOL    HW198387   2.715   3.294   5.880
98830SOL    HW298388   2.683   3.400   5.778
98831SOL     OW98389   7.045   2.150   1.957
98831SOL    HW198390   7.074   2.227   1.909
98831SOL    HW298391   7.117   2.131   2.017
98832SOL     OW98392  12.008   6.375   6.411
98832SOL    HW198393  11.948   6.330   6.353
98832SOL    HW298394  12.029   6.311   6.479
98833SOL     OW98395  14.372   9.638  12.994
98833SOL    HW198396  14.448   9.580  12.985
98833SOL    HW298397  14.323   9.602  13.067
98834SOL     OW98398   3.902   4.122  13.343
98834SOL    HW198399   3.953   4.194  13.305
98834SOL    HW298400   3.857   4.161  13.418
98835SOL     OW98401  12.543  13.290   2.796
98835SOL    HW198402  12.618  13.313   2.851
98835SOL    HW298403  12.503  13.374   2.773
98836SOL     OW98404  13.376  12.251   1.769
98836SOL    HW198405  13.331  12.202   1.837
98836SOL    HW298406  13.311  12.315   1.738
98837SOL     OW98407  13.267  10.619   4.898
98837SOL    HW198408  13.281  10.526   4.877
98837SOL    HW298409  13.174  10.634   4.879
98838SOL     OW98410   6.867  13.246   3.002
98838SOL    HW198411   6.915  13.200   2.933
98838SOL    HW298412   6.783  13.267   2.962
98839SOL     OW98413  11.016   4.159   1.006
98839SOL    HW198414  11.106   4.126   0.999
98839SOL    HW298415  11.019   4.221   1.079
98840SOL     OW98416  10.496   9.906  10.793
98840SOL    HW198417  10.585   9.872  10.803
98840SOL    HW298418  10.471   9.933  10.882
98841SOL     OW98419  11.677  10.971  13.069
98841SOL    HW198420  11.727  10.997  13.146
98841SOL    HW298421  11.743  10.932  13.011
98842SOL     OW98422   4.978  12.205  13.032
98842SOL    HW198423   4.938  12.259  13.099
98842SOL    HW298424   5.064  12.243  13.017
98843SOL     OW98425  10.553   3.430  11.727
98843SOL    HW198426  10.530   3.383  11.807
98843SOL    HW298427  10.643   3.402  11.708
98844SOL     OW98428   7.138   5.605   1.481
98844SOL    HW198429   7.162   5.698   1.488
98844SOL    HW298430   7.201   5.560   1.537
98845SOL     OW98431   9.077   9.920   4.429
98845SOL    HW198432   9.150   9.884   4.379
98845SOL    HW298433   8.999   9.876   4.394
98846SOL     OW98434   0.596   8.568   0.889
98846SOL    HW198435   0.666   8.536   0.946
98846SOL    HW298436   0.574   8.654   0.923
98847SOL     OW98437   8.221   8.917  12.562
98847SOL    HW198438   8.238   8.870  12.643
98847SOL    HW298439   8.308   8.945  12.532
98848SOL     OW98440   1.356  10.866   7.572
98848SOL    HW198441   1.430  10.822   7.529
98848SOL    HW298442   1.294  10.884   7.501
98849SOL     OW98443   6.020   3.006   0.818
98849SOL    HW198444   6.087   2.979   0.881
98849SOL    HW298445   6.068   3.025   0.738
98850SOL     OW98446   6.573   0.720   9.122
98850SOL    HW198447   6.480   0.743   9.114
98850SOL    HW298448   6.610   0.792   9.174
98851SOL     OW98449  13.700   8.324   5.821
98851SOL    HW198450  13.675   8.247   5.770
98851SOL    HW298451  13.680   8.301   5.911
98852SOL     OW98452   1.181  13.818   7.705
98852SOL    HW198453   1.127  13.861   7.770
98852SOL    HW298454   1.157  13.725   7.712
98853SOL     OW98455   1.822   7.215   7.379
98853SOL    HW198456   1.815   7.203   7.474
98853SOL    HW298457   1.909   7.252   7.366
98854SOL     OW98458   4.018   2.252   6.489
98854SOL    HW198459   3.926   2.257   6.516
98854SOL    HW298460   4.053   2.177   6.538
98855SOL     OW98461   9.736   0.130  10.260
98855SOL    HW198462   9.832   0.128  10.256
98855SOL    HW298463   9.710   0.186  10.187
98856SOL     OW98464  13.321   2.368   0.966
98856SOL    HW198465  13.331   2.379   0.872
98856SOL    HW298466  13.396   2.314   0.992
98857SOL     OW98467  14.100   0.253   3.296
98857SOL    HW198468  14.170   0.278   3.356
98857SOL    HW298469  14.078   0.163   3.320
98858SOL     OW98470  13.238   1.710   5.718
98858SOL    HW198471  13.160   1.763   5.736
98858SOL    HW298472  13.301   1.735   5.786
98859SOL     OW98473  14.677  14.343   8.964
98859SOL    HW198474  14.689  14.365   8.871
98859SOL    HW298475  14.760  14.368   9.005
98860SOL     OW98476   7.156   1.438  10.255
98860SOL    HW198477   7.062   1.459  10.251
98860SOL    HW298478   7.160   1.356  10.304
98861SOL     OW98479  12.761   6.960   6.245
98861SOL    HW198480  12.825   6.901   6.286
98861SOL    HW298481  12.774   6.948   6.151
98862SOL     OW98482  14.153   6.797  13.578
98862SOL    HW198483  14.220   6.735  13.608
98862SOL    HW298484  14.087   6.794  13.648
98863SOL     OW98485  10.073   0.553   2.679
98863SOL    HW198486  10.025   0.636   2.673
98863SOL    HW298487  10.114   0.556   2.765
98864SOL     OW98488  13.293   8.228   9.675
98864SOL    HW198489  13.215   8.186   9.639
98864SOL    HW298490  13.310   8.301   9.615
98865SOL     OW98491   3.891   4.603   3.618
98865SOL    HW198492   3.891   4.510   3.640
98865SOL    HW298493   3.886   4.648   3.702
98866SOL     OW98494   7.431   9.409   0.428
98866SOL    HW198495   7.463   9.495   0.403
98866SOL    HW298496   7.472   9.349   0.365
98867SOL     OW98497   2.851   8.978  10.948
98867SOL    HW198498   2.929   8.943  10.905
98867SOL    HW298499   2.818   8.905  11.001
98868SOL     OW98500   2.629   1.967   8.829
98868SOL    HW198501   2.669   1.998   8.911
98868SOL    HW298502   2.696   1.982   8.763
98869SOL     OW98503   2.572  13.745   5.689
98869SOL    HW198504   2.659  13.706   5.684
98869SOL    HW298505   2.583  13.835   5.659
98870SOL     OW98506   3.452   7.592   1.322
98870SOL    HW198507   3.388   7.521   1.336
98870SOL    HW298508   3.418   7.665   1.374
98871SOL     OW98509  12.976   8.538   9.783
98871SOL    HW198510  13.068   8.565   9.787
98871SOL    HW298511  12.979   8.451   9.744
98872SOL     OW98512   7.244   6.902  10.063
98872SOL    HW198513   7.224   6.979  10.116
98872SOL    HW298514   7.194   6.915   9.982
98873SOL     OW98515   7.506   5.483  11.099
98873SOL    HW198516   7.428   5.530  11.069
98873SOL    HW298517   7.573   5.504  11.035
98874SOL     OW98518  13.103   3.672   2.770
98874SOL    HW198519  13.118   3.580   2.793
98874SOL    HW298520  13.030   3.699   2.827
98875SOL     OW98521  14.255   5.548   0.962
98875SOL    HW198522  14.189   5.541   1.030
98875SOL    HW298523  14.338   5.545   1.009
98876SOL     OW98524  11.631  12.444  14.773
98876SOL    HW198525  11.595  12.444  14.684
98876SOL    HW298526  11.591  12.368  14.815
98877SOL     OW98527   5.676  13.117   7.206
98877SOL    HW198528   5.712  13.180   7.268
98877SOL    HW298529   5.753  13.081   7.161
98878SOL     OW98530  10.242   5.104  14.574
98878SOL    HW198531  10.275   5.053  14.648
98878SOL    HW298532  10.310   5.096  14.507
98879SOL     OW98533  14.010  10.126  10.642
98879SOL    HW198534  13.981  10.035  10.652
98879SOL    HW298535  13.972  10.154  10.559
98880SOL     OW98536  13.863   9.960   5.379
98880SOL    HW198537  13.904   9.883   5.418
98880SOL    HW298538  13.840  10.015   5.454
98881SOL     OW98539   8.491  10.261   4.903
98881SOL    HW198540   8.546  10.214   4.965
98881SOL    HW298541   8.540  10.341   4.883
98882SOL     OW98542   6.278   3.014  12.118
98882SOL    HW198543   6.339   3.002  12.046
98882SOL    HW298544   6.214   2.944  12.107
98883SOL     OW98545   7.443   1.972   8.268
98883SOL    HW198546   7.531   1.972   8.306
98883SOL    HW298547   7.401   2.049   8.307
98884SOL     OW98548   4.708   2.406   4.846
98884SOL    HW198549   4.758   2.384   4.767
98884SOL    HW298550   4.619   2.422   4.814
98885SOL     OW98551  11.035  11.939  13.694
98885SOL    HW198552  10.986  11.903  13.768
98885SOL    HW298553  11.014  11.881  13.621
98886SOL     OW98554   3.132   1.390   2.296
98886SOL    HW198555   3.078   1.454   2.250
98886SOL    HW298556   3.201   1.368   2.232
98887SOL     OW98557  12.306   2.258   9.458
98887SOL    HW198558  12.319   2.305   9.376
98887SOL    HW298559  12.241   2.309   9.506
98888SOL     OW98560   6.510  12.097  14.643
98888SOL    HW198561   6.452  12.084  14.718
98888SOL    HW298562   6.488  12.026  14.583
98889SOL     OW98563   0.702  12.366   6.223
98889SOL    HW198564   0.708  12.276   6.191
98889SOL    HW298565   0.622  12.368   6.276
98890SOL     OW98566   4.304   1.937   7.939
98890SOL    HW198567   4.345   1.937   8.026
98890SOL    HW298568   4.310   2.028   7.910
98891SOL     OW98569  12.723   9.701  12.886
98891SOL    HW198570  12.677   9.766  12.834
98891SOL    HW298571  12.694   9.717  12.976
98892SOL     OW98572   6.790  11.265   2.908
98892SOL    HW198573   6.840  11.194   2.947
98892SOL    HW298574   6.716  11.222   2.866
98893SOL     OW98575   2.239   5.450   7.139
98893SOL    HW198576   2.253   5.464   7.232
98893SOL    HW298577   2.186   5.370   7.134
98894SOL     OW98578   7.745   1.261   2.689
98894SOL    HW198579   7.788   1.298   2.613
98894SOL    HW298580   7.761   1.324   2.759
98895SOL     OW98581   5.830   8.493  11.172
98895SOL    HW198582   5.753   8.438  11.189
98895SOL    HW298583   5.857   8.522  11.259
98896SOL     OW98584  13.528   4.255  11.082
98896SOL    HW198585  13.536   4.266  11.177
98896SOL    HW298586  13.436   4.272  11.063
98897SOL     OW98587   7.601  10.997   5.058
98897SOL    HW198588   7.508  10.993   5.033
98897SOL    HW298589   7.631  11.082   5.028
98898SOL     OW98590   4.283  12.173   2.105
98898SOL    HW198591   4.371  12.177   2.143
98898SOL    HW298592   4.295  12.204   2.015
98899SOL     OW98593  11.055   7.562  11.127
98899SOL    HW198594  10.968   7.523  11.121
98899SOL    HW298595  11.039   7.650  11.162
98900SOL     OW98596  10.765   5.886   2.295
98900SOL    HW198597  10.833   5.892   2.228
98900SOL    HW298598  10.733   5.796   2.288
98901SOL     OW98599   3.540   2.526   3.675
98901SOL    HW198600   3.491   2.525   3.757
98901SOL    HW298601   3.620   2.476   3.694
98902SOL     OW98602  14.863  10.922  10.873
98902SOL    HW198603   0.036  10.879  10.806
98902SOL    HW298604  14.774  10.889  10.857
98903SOL     OW98605  14.016   7.225  13.329
98903SOL    HW198606  14.071   7.160  13.373
98903SOL    HW298607  14.021   7.201  13.237
98904SOL     OW98608  12.932   8.061   2.614
98904SOL    HW198609  12.978   8.138   2.647
98904SOL    HW298610  12.876   8.034   2.687
98905SOL     OW98611  11.597   1.655   1.579
98905SOL    HW198612  11.613   1.714   1.505
98905SOL    HW298613  11.665   1.678   1.643
98906SOL     OW98614  10.709   3.635   9.051
98906SOL    HW198615  10.744   3.639   9.140
98906SOL    HW298616  10.722   3.723   9.016
98907SOL     OW98617   3.754   7.115  14.864
98907SOL    HW198618   3.842   7.105   0.022
98907SOL    HW298619   3.701   7.150   0.055
98908SOL     OW98620  12.729   2.750   7.545
98908SOL    HW198621  12.808   2.779   7.589
98908SOL    HW298622  12.660   2.757   7.611
98909SOL     OW98623   8.411  13.597   2.890
98909SOL    HW198624   8.362  13.600   2.972
98909SOL    HW298625   8.350  13.557   2.827
98910SOL     OW98626  14.134   2.637   6.631
98910SOL    HW198627  14.151   2.584   6.554
98910SOL    HW298628  14.220   2.651   6.670
98911SOL     OW98629  12.173   1.060   8.143
98911SOL    HW198630  12.201   1.142   8.185
98911SOL    HW298631  12.189   0.993   8.209
98912SOL     OW98632   7.259  13.812  11.122
98912SOL    HW198633   7.336  13.831  11.176
98912SOL    HW298634   7.279  13.851  11.037
98913SOL     OW98635  10.681   8.225   3.067
98913SOL    HW198636  10.603   8.169   3.064
98913SOL    HW298637  10.672   8.275   3.148
98914SOL     OW98638  13.206  13.508   7.902
98914SOL    HW198639  13.176  13.424   7.936
98914SOL    HW298640  13.293  13.491   7.866
98915SOL     OW98641   0.177   0.288   6.198
98915SOL    HW198642   0.226   0.206   6.193
98915SOL    HW298643   0.242   0.353   6.225
98916SOL     OW98644   2.473  12.685  13.827
98916SOL    HW198645   2.451  12.715  13.739
98916SOL    HW298646   2.454  12.591  13.825
98917SOL     OW98647  13.841   3.578  12.938
98917SOL    HW198648  13.873   3.619  13.019
98917SOL    HW298649  13.912   3.521  12.910
98918SOL     OW98650  11.263   2.807   2.491
98918SOL    HW198651  11.227   2.886   2.530
98918SOL    HW298652  11.267   2.744   2.563
98919SOL     OW98653  12.853   3.072   1.424
98919SOL    HW198654  12.880   3.002   1.483
98919SOL    HW298655  12.829   3.027   1.343
98920SOL     OW98656   2.200   4.307   1.435
98920SOL    HW198657   2.238   4.378   1.384
98920SOL    HW298658   2.107   4.307   1.411
98921SOL     OW98659   9.026   9.692   5.837
98921SOL    HW198660   8.994   9.774   5.799
98921SOL    HW298661   9.029   9.709   5.931
98922SOL     OW98662   1.663   9.314  14.363
98922SOL    HW198663   1.650   9.405  14.389
98922SOL    HW298664   1.711   9.275  14.436
98923SOL     OW98665  10.469   7.410   1.565
98923SOL    HW198666  10.373   7.415   1.564
98923SOL    HW298667  10.497   7.494   1.601
98924SOL     OW98668   3.030  11.595   7.359
98924SOL    HW198669   3.077  11.555   7.286
98924SOL    HW298670   3.019  11.525   7.423
98925SOL     OW98671   1.534  13.804   7.911
98925SOL    HW198672   1.604  13.854   7.953
98925SOL    HW298673   1.520  13.848   7.827
98926SOL     OW98674   6.572   3.720   7.845
98926SOL    HW198675   6.623   3.801   7.840
98926SOL    HW298676   6.638   3.651   7.858
98927SOL     OW98677  13.539  10.279   4.965
98927SOL    HW198678  13.544  10.256   4.872
98927SOL    HW298679  13.577  10.203   5.009
98928SOL     OW98680   7.090   5.515  12.377
98928SOL    HW198681   7.104   5.422  12.359
98928SOL    HW298682   7.170   5.543  12.421
98929SOL     OW98683   7.295   4.078   3.242
98929SOL    HW198684   7.349   4.061   3.164
98929SOL    HW298685   7.235   4.004   3.245
98930SOL     OW98686   7.229   2.199   1.082
98930SOL    HW198687   7.162   2.266   1.067
98930SOL    HW298688   7.312   2.247   1.082
98931SOL     OW98689   9.569  12.586  10.023
98931SOL    HW198690   9.475  12.571  10.015
98931SOL    HW298691   9.608  12.532   9.954
98932SOL     OW98692   4.044   7.995  10.751
98932SOL    HW198693   4.076   7.947  10.675
98932SOL    HW298694   3.989   8.064  10.716
98933SOL     OW98695   2.371  10.350  10.300
98933SOL    HW198696   2.277  10.348  10.279
98933SOL    HW298697   2.388  10.264  10.340
98934SOL     OW98698   3.797   1.207  10.619
98934SOL    HW198699   3.717   1.261  10.615
98934SOL    HW298700   3.825   1.199  10.528
98935SOL     OW98701   1.185  11.864  11.472
98935SOL    HW198702   1.269  11.891  11.434
98935SOL    HW298703   1.142  11.815  11.402
98936SOL     OW98704  10.832   6.332  12.602
98936SOL    HW198705  10.876   6.259  12.646
98936SOL    HW298706  10.811   6.393  12.673
98937SOL     OW98707   8.755   1.679   8.657
98937SOL    HW198708   8.741   1.584   8.655
98937SOL    HW298709   8.682   1.715   8.608
98938SOL     OW98710   8.766   5.230   1.272
98938SOL    HW198711   8.737   5.321   1.271
98938SOL    HW298712   8.732   5.194   1.190
98939SOL     OW98713   7.472   6.993   0.711
98939SOL    HW198714   7.560   6.960   0.694
98939SOL    HW298715   7.417   6.915   0.716
98940SOL     OW98716   4.848   5.055  13.840
98940SOL    HW198717   4.776   4.998  13.865
98940SOL    HW298718   4.857   5.042  13.746
98941SOL     OW98719   4.416  14.770   1.560
98941SOL    HW198720   4.381  14.682   1.545
98941SOL    HW298721   4.343  14.828   1.538
98942SOL     OW98722   5.769  12.755   7.305
98942SOL    HW198723   5.828  12.804   7.362
98942SOL    HW298724   5.729  12.690   7.364
98943SOL     OW98725   8.733   1.750  10.220
98943SOL    HW198726   8.799   1.807  10.260
98943SOL    HW298727   8.651   1.797  10.233
98944SOL     OW98728   6.361  13.601  12.741
98944SOL    HW198729   6.345  13.507  12.751
98944SOL    HW298730   6.428  13.607  12.674
98945SOL     OW98731   8.501   1.127   3.081
98945SOL    HW198732   8.436   1.067   3.044
98945SOL    HW298733   8.586   1.093   3.051
98946SOL     OW98734  13.728  12.303  14.301
98946SOL    HW198735  13.668  12.239  14.262
98946SOL    HW298736  13.809  12.294  14.250
98947SOL     OW98737  11.690   9.738   9.168
98947SOL    HW198738  11.651   9.816   9.127
98947SOL    HW298739  11.627   9.713   9.236
98948SOL     OW98740   8.301   2.582  13.339
98948SOL    HW198741   8.386   2.540  13.329
98948SOL    HW298742   8.289   2.589  13.434
98949SOL     OW98743   1.881   9.635  10.274
98949SOL    HW198744   1.868   9.608  10.365
98949SOL    HW298745   1.974   9.653  10.267
98950SOL     OW98746   0.544   2.658   5.062
98950SOL    HW198747   0.544   2.570   5.101
98950SOL    HW298748   0.524   2.642   4.969
98951SOL     OW98749   1.769  12.623   5.686
98951SOL    HW198750   1.732  12.677   5.616
98951SOL    HW298751   1.818  12.555   5.640
98952SOL     OW98752   4.025  12.622  11.444
98952SOL    HW198753   4.072  12.625  11.527
98952SOL    HW298754   4.058  12.544  11.400
98953SOL     OW98755   0.173   7.046   7.531
98953SOL    HW198756   0.244   7.110   7.524
98953SOL    HW298757   0.138   7.039   7.442
98954SOL     OW98758   2.321   2.111   3.707
98954SOL    HW198759   2.410   2.146   3.715
98954SOL    HW298760   2.284   2.159   3.632
98955SOL     OW98761  10.255   7.473  10.768
98955SOL    HW198762  10.204   7.550  10.743
98955SOL    HW298763  10.344   7.507  10.783
98956SOL     OW98764   3.527  13.686   9.140
98956SOL    HW198765   3.457  13.678   9.205
98956SOL    HW298766   3.482  13.690   9.056
98957SOL     OW98767  13.709  14.616  11.479
98957SOL    HW198768  13.628  14.640  11.435
98957SOL    HW298769  13.680  14.572  11.560
98958SOL     OW98770  13.537   3.933  12.607
98958SOL    HW198771  13.510   3.956  12.518
98958SOL    HW298772  13.525   3.839  12.612
98959SOL     OW98773   3.995   1.309   4.890
98959SOL    HW198774   4.061   1.259   4.936
98959SOL    HW298775   3.912   1.277   4.924
98960SOL     OW98776   4.536   8.302   3.588
98960SOL    HW198777   4.617   8.352   3.598
98960SOL    HW298778   4.561   8.212   3.607
98961SOL     OW98779  11.884   6.262  14.050
98961SOL    HW198780  11.973   6.253  14.082
98961SOL    HW298781  11.889   6.241  13.957
98962SOL     OW98782  12.468  13.558   1.717
98962SOL    HW198783  12.550  13.569   1.668
98962SOL    HW298784  12.490  13.496   1.786
98963SOL     OW98785   4.499   9.141  13.658
98963SOL    HW198786   4.439   9.077  13.696
98963SOL    HW298787   4.586   9.105  13.675
98964SOL     OW98788   4.103   1.604  13.372
98964SOL    HW198789   4.093   1.537  13.305
98964SOL    HW298790   4.167   1.665  13.334
98965SOL     OW98791   0.413  13.119   2.574
98965SOL    HW198792   0.445  13.029   2.584
98965SOL    HW298793   0.421  13.157   2.662
98966SOL     OW98794   6.222   6.993  11.666
98966SOL    HW198795   6.274   6.985  11.586
98966SOL    HW298796   6.205   6.903  11.693
98967SOL     OW98797  13.995  10.302  11.761
98967SOL    HW198798  13.946  10.264  11.687
98967SOL    HW298799  13.971  10.247  11.836
98968SOL     OW98800   7.688   3.220   0.072
98968SOL    HW198801   7.738   3.299   0.091
98968SOL    HW298802   7.608   3.251   0.030
98969SOL     OW98803   8.299   4.959   2.054
98969SOL    HW198804   8.241   5.036   2.045
98969SOL    HW298805   8.364   4.970   1.985
98970SOL     OW98806   9.596  10.893   7.983
98970SOL    HW198807   9.533  10.960   8.007
98970SOL    HW298808   9.575  10.871   7.892
98971SOL     OW98809   6.729  12.060   7.947
98971SOL    HW198810   6.764  11.971   7.943
98971SOL    HW298811   6.635  12.049   7.957
98972SOL     OW98812   2.044   4.115   7.734
98972SOL    HW198813   2.020   4.207   7.738
98972SOL    HW298814   2.120   4.113   7.675
98973SOL     OW98815   7.878   4.526   7.030
98973SOL    HW198816   7.857   4.540   7.123
98973SOL    HW298817   7.794   4.529   6.986
98974SOL     OW98818   9.259   5.517   1.484
98974SOL    HW198819   9.194   5.555   1.424
98974SOL    HW298820   9.257   5.575   1.560
98975SOL     OW98821   2.480   6.238  10.714
98975SOL    HW198822   2.499   6.310  10.775
98975SOL    HW298823   2.566   6.211  10.682
98976SOL     OW98824   2.057   4.421   7.636
98976SOL    HW198825   2.051   4.517   7.634
98976SOL    HW298826   2.111   4.402   7.713
98977SOL     OW98827   0.990  11.106  10.419
98977SOL    HW198828   0.920  11.097  10.355
98977SOL    HW298829   0.960  11.059  10.496
98978SOL     OW98830   8.163  11.130   8.967
98978SOL    HW198831   8.163  11.056   8.906
98978SOL    HW298832   8.206  11.201   8.919
98979SOL     OW98833   3.742   0.959  12.948
98979SOL    HW198834   3.768   0.901  12.876
98979SOL    HW298835   3.748   0.904  13.026
98980SOL     OW98836   5.581   8.031   0.766
98980SOL    HW198837   5.499   8.025   0.717
98980SOL    HW298838   5.603   8.124   0.766
98981SOL     OW98839   7.585   8.917   7.193
98981SOL    HW198840   7.629   8.833   7.203
98981SOL    HW298841   7.492   8.894   7.185
98982SOL     OW98842   4.786   5.937   2.135
98982SOL    HW198843   4.799   5.939   2.040
98982SOL    HW298844   4.861   5.985   2.170
98983SOL     OW98845  13.069   5.111   2.527
98983SOL    HW198846  13.099   5.195   2.562
98983SOL    HW298847  13.099   5.110   2.436
98984SOL     OW98848   7.012   4.308  12.882
98984SOL    HW198849   7.057   4.232  12.843
98984SOL    HW298850   6.944   4.269  12.937
98985SOL     OW98851   6.746  12.600   6.756
98985SOL    HW198852   6.800  12.670   6.791
98985SOL    HW298853   6.656  12.630   6.770
98986SOL     OW98854   6.624   2.816   9.927
98986SOL    HW198855   6.691   2.762   9.970
98986SOL    HW298856   6.645   2.808   9.834
98987SOL     OW98857   8.318  10.287   1.776
98987SOL    HW198858   8.226  10.312   1.767
98987SOL    HW298859   8.363  10.370   1.792
98988SOL     OW98860   9.511  11.565   4.852
98988SOL    HW198861   9.489  11.524   4.768
98988SOL    HW298862   9.494  11.658   4.838
98989SOL     OW98863   1.375   2.715  12.327
98989SOL    HW198864   1.452   2.686  12.277
98989SOL    HW298865   1.354   2.800  12.289
98990SOL     OW98866   0.737   2.764  11.761
98990SOL    HW198867   0.795   2.776  11.836
98990SOL    HW298868   0.720   2.670  11.759
98991SOL     OW98869   3.934   4.693   3.878
98991SOL    HW198870   4.013   4.739   3.908
98991SOL    HW298871   3.944   4.604   3.911
98992SOL     OW98872   5.939  10.488   4.722
98992SOL    HW198873   5.881  10.440   4.781
98992SOL    HW298874   6.024  10.445   4.733
98993SOL     OW98875   4.035   6.002   7.339
98993SOL    HW198876   4.107   6.000   7.401
98993SOL    HW298877   3.989   6.084   7.357
98994SOL     OW98878   9.916   2.296  14.044
98994SOL    HW198879  10.011   2.282  14.048
98994SOL    HW298880   9.879   2.208  14.044
98995SOL     OW98881   2.973  14.719   2.687
98995SOL    HW198882   3.068  14.708   2.691
98995SOL    HW298883   2.959  14.810   2.712
98996SOL     OW98884  11.304  13.777   5.046
98996SOL    HW198885  11.301  13.723   5.125
98996SOL    HW298886  11.320  13.716   4.975
98997SOL     OW98887   4.637   5.736  12.106
98997SOL    HW198888   4.713   5.725  12.048
98997SOL    HW298889   4.661   5.689  12.186
98998SOL     OW98890  14.224   4.868   5.794
98998SOL    HW198891  14.263   4.955   5.784
98998SOL    HW298892  14.270   4.829   5.868
98999SOL     OW98893  11.513  13.143   0.637
98999SOL    HW198894  11.519  13.234   0.610
98999SOL    HW298895  11.599  13.123   0.674
99000SOL     OW98896  12.709   4.615   9.325
99000SOL    HW198897  12.641   4.646   9.383
99000SOL    HW298898  12.706   4.674   9.249
99001SOL     OW98899   7.375  11.289  14.103
99001SOL    HW198900   7.320  11.261  14.030
99001SOL    HW298901   7.464  11.267  14.075
99002SOL     OW98902   2.168  13.605   3.409
99002SOL    HW198903   2.246  13.619   3.462
99002SOL    HW298904   2.176  13.668   3.337
99003SOL     OW98905  13.924   9.752   3.774
99003SOL    HW198906  13.990   9.790   3.833
99003SOL    HW298907  13.913   9.818   3.706
99004SOL     OW98908   1.334  14.619   9.043
99004SOL    HW198909   1.308  14.538   9.088
99004SOL    HW298910   1.367  14.675   9.113
99005SOL     OW98911   6.361   4.722   6.547
99005SOL    HW198912   6.361   4.817   6.535
99005SOL    HW298913   6.310   4.688   6.473
99006SOL     OW98914   1.091   9.752   6.889
99006SOL    HW198915   1.139   9.824   6.849
99006SOL    HW298916   1.009   9.791   6.918
99007SOL     OW98917   3.971   0.367   9.157
99007SOL    HW198918   4.030   0.364   9.233
99007SOL    HW298919   3.936   0.455   9.157
99008SOL     OW98920   2.091   7.400   2.250
99008SOL    HW198921   2.126   7.355   2.173
99008SOL    HW298922   2.169   7.425   2.300
99009SOL     OW98923  13.683   8.711   4.923
99009SOL    HW198924  13.667   8.785   4.981
99009SOL    HW298925  13.621   8.644   4.952
99010SOL     OW98926   4.239   2.195   7.500
99010SOL    HW198927   4.221   2.137   7.426
99010SOL    HW298928   4.333   2.188   7.515
99011SOL     OW98929  11.387   0.492  13.554
99011SOL    HW198930  11.433   0.552  13.613
99011SOL    HW298931  11.400   0.405  13.592
99012SOL     OW98932  10.511  13.272   1.346
99012SOL    HW198933  10.558  13.217   1.283
99012SOL    HW298934  10.439  13.310   1.297
99013SOL     OW98935   9.062  11.442  14.811
99013SOL    HW198936   8.981  11.455  14.761
99013SOL    HW298937   9.077  11.347  14.810
99014SOL     OW98938   4.451   9.460  11.482
99014SOL    HW198939   4.490   9.384  11.438
99014SOL    HW298940   4.521   9.497  11.535
99015SOL     OW98941   7.919   5.853  11.118
99015SOL    HW198942   8.014   5.862  11.109
99015SOL    HW298943   7.884   5.927  11.068
99016SOL     OW98944   4.778   6.420  11.637
99016SOL    HW198945   4.789   6.485  11.567
99016SOL    HW298946   4.866   6.402  11.668
99017SOL     OW98947   8.548   4.832   0.738
99017SOL    HW198948   8.514   4.826   0.648
99017SOL    HW298949   8.628   4.779   0.737
99018SOL     OW98950   4.624   5.044   3.182
99018SOL    HW198951   4.713   5.078   3.173
99018SOL    HW298952   4.567   5.116   3.156
99019SOL     OW98953   9.868  11.064   3.305
99019SOL    HW198954   9.903  11.135   3.252
99019SOL    HW298955   9.944  11.009   3.326
99020SOL     OW98956   0.630  11.234   8.819
99020SOL    HW198957   0.683  11.311   8.838
99020SOL    HW298958   0.669  11.164   8.872
99021SOL     OW98959   7.349   5.986  14.464
99021SOL    HW198960   7.443   5.971  14.469
99021SOL    HW298961   7.341   6.082  14.460
99022SOL     OW98962   0.191   5.912   6.828
99022SOL    HW198963   0.240   5.830   6.825
99022SOL    HW298964   0.181   5.937   6.736
99023SOL     OW98965  12.380  14.157  12.409
99023SOL    HW198966  12.380  14.240  12.361
99023SOL    HW298967  12.377  14.090  12.341
99024SOL     OW98968   1.461   6.124   4.124
99024SOL    HW198969   1.539   6.073   4.105
99024SOL    HW298970   1.389   6.073   4.087
99025SOL     OW98971   3.322  12.331   6.159
99025SOL    HW198972   3.319  12.424   6.179
99025SOL    HW298973   3.277  12.289   6.232
99026SOL     OW98974  13.310   5.280   4.688
99026SOL    HW198975  13.240   5.343   4.707
99026SOL    HW298976  13.277   5.197   4.723
99027SOL     OW98977  13.746   8.802   3.800
99027SOL    HW198978  13.661   8.813   3.756
99027SOL    HW298979  13.738   8.852   3.881
99028SOL     OW98980  13.552  12.884   2.110
99028SOL    HW198981  13.630  12.890   2.164
99028SOL    HW298982  13.502  12.964   2.130
99029SOL     OW98983  14.097   9.657   7.425
99029SOL    HW198984  14.022   9.603   7.452
99029SOL    HW298985  14.071   9.694   7.341
99030SOL     OW98986   4.844  13.890   9.942
99030SOL    HW198987   4.833  13.966   9.884
99030SOL    HW298988   4.890  13.925  10.018
99031SOL     OW98989   4.966   1.921   1.931
99031SOL    HW198990   4.893   1.922   1.869
99031SOL    HW298991   5.033   1.867   1.889
99032SOL     OW98992   0.251   0.677  10.934
99032SOL    HW198993   0.296   0.736  10.995
99032SOL    HW298994   0.321   0.627  10.892
99033SOL     OW98995  12.104   1.713   8.558
99033SOL    HW198996  12.019   1.670   8.550
99033SOL    HW298997  12.146   1.671   8.633
99034SOL     OW98998   0.007  10.129  13.842
99034SOL    HW198999  14.826  10.113  13.913
99034SOL    HW299000  14.869  10.219  13.815
99035SOL     OW99001   3.645   9.001   3.075
99035SOL    HW199002   3.602   9.079   3.037
99035SOL    HW299003   3.573   8.951   3.113
99036SOL     OW99004  13.354   5.844   1.235
99036SOL    HW199005  13.443   5.833   1.268
99036SOL    HW299006  13.311   5.760   1.253
99037SOL     OW99007   4.978   4.698   7.795
99037SOL    HW199008   5.022   4.777   7.765
99037SOL    HW299009   4.886   4.723   7.804
99038SOL     OW99010   7.725   6.984   0.417
99038SOL    HW199011   7.713   6.978   0.511
99038SOL    HW299012   7.666   7.053   0.389
99039SOL     OW99013  10.259   0.511   2.888
99039SOL    HW199014  10.352   0.490   2.893
99039SOL    HW299015  10.228   0.504   2.978
99040SOL     OW99016   4.858  10.153   5.850
99040SOL    HW199017   4.891  10.164   5.761
99040SOL    HW299018   4.763  10.151   5.840
99041SOL     OW99019   5.871   0.187   4.107
99041SOL    HW199020   5.859   0.229   4.022
99041SOL    HW299021   5.965   0.166   4.110
99042SOL     OW99022  12.944   1.232   0.031
99042SOL    HW199023  12.976   1.319   0.052
99042SOL    HW299024  13.010   1.195  14.852
99043SOL     OW99025   3.531   0.303   9.488
99043SOL    HW199026   3.440   0.272   9.492
99043SOL    HW299027   3.535   0.357   9.409
99044SOL     OW99028  12.924   0.331   7.129
99044SOL    HW199029  12.859   0.338   7.198
99044SOL    HW299030  12.950   0.239   7.129
99045SOL     OW99031   7.251   3.850  12.450
99045SOL    HW199032   7.165   3.811  12.463
99045SOL    HW299033   7.311   3.792  12.497
99046SOL     OW99034   0.758   7.845   0.037
99046SOL    HW199035   0.822   7.895   0.088
99046SOL    HW299036   0.785   7.858  14.826
99047SOL     OW99037   3.414   6.642   1.178
99047SOL    HW199038   3.453   6.670   1.260
99047SOL    HW299039   3.326   6.611   1.202
99048SOL     OW99040   4.580  11.939   2.057
99048SOL    HW199041   4.635  11.917   1.982
99048SOL    HW299042   4.493  11.908   2.032
99049SOL     OW99043  12.386  10.305   8.067
99049SOL    HW199044  12.415  10.222   8.030
99049SOL    HW299045  12.461  10.336   8.117
99050SOL     OW99046   8.648  13.979  11.319
99050SOL    HW199047   8.671  13.978  11.412
99050SOL    HW299048   8.717  14.032  11.278
99051SOL     OW99049   4.159   0.696  10.627
99051SOL    HW199050   4.148   0.693  10.532
99051SOL    HW299051   4.091   0.757  10.657
99052SOL     OW99052  11.216  14.170   7.379
99052SOL    HW199053  11.162  14.111   7.432
99052SOL    HW299054  11.251  14.114   7.310
99053SOL     OW99055  11.741   0.197   6.590
99053SOL    HW199056  11.708   0.135   6.654
99053SOL    HW299057  11.678   0.195   6.518
99054SOL     OW99058  10.977   6.885   3.841
99054SOL    HW199059  10.981   6.789   3.840
99054SOL    HW299060  11.066   6.912   3.864
99055SOL     OW99061   5.630   2.097  10.482
99055SOL    HW199062   5.622   2.002  10.490
99055SOL    HW299063   5.674   2.111  10.398
99056SOL     OW99064   4.325  14.764   9.207
99056SOL    HW199065   4.269  14.687   9.193
99056SOL    HW299066   4.299  14.798   9.292
99057SOL     OW99067  10.666  14.184   7.816
99057SOL    HW199068  10.625  14.109   7.773
99057SOL    HW299069  10.733  14.214   7.755
99058SOL     OW99070   2.193  12.411   7.275
99058SOL    HW199071   2.262  12.344   7.271
99058SOL    HW299072   2.182  12.428   7.369
99059SOL     OW99073   8.815  12.629   9.767
99059SOL    HW199074   8.785  12.688   9.836
99059SOL    HW299075   8.897  12.592   9.801
99060SOL     OW99076   6.203   2.868   8.540
99060SOL    HW199077   6.158   2.783   8.537
99060SOL    HW299078   6.295   2.846   8.523
99061SOL     OW99079   1.687  11.771  10.120
99061SOL    HW199080   1.666  11.849  10.171
99061SOL    HW299081   1.718  11.805  10.036
99062SOL     OW99082   6.543  10.482  10.624
99062SOL    HW199083   6.545  10.478  10.529
99062SOL    HW299084   6.471  10.425  10.650
99063SOL     OW99085   2.556  10.016   4.469
99063SOL    HW199086   2.624  10.010   4.536
99063SOL    HW299087   2.577  10.095   4.420
99064SOL     OW99088   9.914  12.883  10.838
99064SOL    HW199089   9.988  12.917  10.889
99064SOL    HW299090   9.839  12.937  10.866
99065SOL     OW99091  13.028   8.975   7.056
99065SOL    HW199092  13.124   8.971   7.056
99065SOL    HW299093  13.001   8.887   7.030
99066SOL     OW99094  12.580  13.048   4.596
99066SOL    HW199095  12.557  13.055   4.688
99066SOL    HW299096  12.495  13.046   4.550
99067SOL     OW99097  10.667  13.051   1.099
99067SOL    HW199098  10.638  12.971   1.144
99067SOL    HW299099  10.693  13.021   1.012
99068SOL     OW99100  13.878   4.170   2.651
99068SOL    HW199101  13.841   4.199   2.567
99068SOL    HW299102  13.968   4.204   2.650
99069SOL     OW99103  10.217   7.103  11.237
99069SOL    HW199104  10.228   7.147  11.322
99069SOL    HW299105  10.132   7.133  11.206
99070SOL     OW99106  14.224   0.970   8.824
99070SOL    HW199107  14.253   0.882   8.846
99070SOL    HW299108  14.294   1.027   8.856
99071SOL     OW99109   4.960   7.657   8.600
99071SOL    HW199110   4.895   7.589   8.582
99071SOL    HW299111   5.044   7.616   8.579
99072SOL     OW99112   3.530  12.488  11.494
99072SOL    HW199113   3.615  12.462  11.457
99072SOL    HW299114   3.472  12.494  11.418
99073SOL     OW99115   2.553   1.203   4.662
99073SOL    HW199116   2.575   1.236   4.575
99073SOL    HW299117   2.629   1.150   4.687
99074SOL     OW99118  10.266   4.915   1.549
99074SOL    HW199119  10.177   4.889   1.568
99074SOL    HW299120  10.303   4.940   1.634
99075SOL     OW99121  11.470   6.077   4.916
99075SOL    HW199122  11.518   6.031   4.985
99075SOL    HW299123  11.533   6.138   4.879
99076SOL     OW99124   0.240   3.564   0.941
99076SOL    HW199125   0.178   3.495   0.917
99076SOL    HW299126   0.192   3.645   0.922
99077SOL     OW99127  12.942   4.309  14.563
99077SOL    HW199128  12.921   4.317  14.470
99077SOL    HW299129  12.975   4.220  14.573
99078SOL     OW99130  14.799   0.345   5.111
99078SOL    HW199131  14.742   0.302   5.048
99078SOL    HW299132  14.878   0.290   5.114
99079SOL     OW99133  13.691  11.279   9.113
99079SOL    HW199134  13.663  11.324   9.033
99079SOL    HW299135  13.785  11.295   9.118
99080SOL     OW99136  12.612   1.259   7.336
99080SOL    HW199137  12.584   1.350   7.334
99080SOL    HW299138  12.651   1.244   7.249
99081SOL     OW99139  11.554   2.044  10.542
99081SOL    HW199140  11.561   2.129  10.500
99081SOL    HW299141  11.593   2.056  10.628
99082SOL     OW99142   2.170   6.305   3.143
99082SOL    HW199143   2.247   6.362   3.137
99082SOL    HW299144   2.175   6.251   3.064
99083SOL     OW99145   5.428  13.542  11.159
99083SOL    HW199146   5.488  13.523  11.231
99083SOL    HW299147   5.428  13.637  11.153
99084SOL     OW99148   8.952   5.689  13.259
99084SOL    HW199149   8.973   5.744  13.183
99084SOL    HW299150   8.856   5.686  13.260
99085SOL     OW99151   2.071  12.710   5.033
99085SOL    HW199152   2.135  12.676   4.971
99085SOL    HW299153   1.991  12.659   5.017
99086SOL     OW99154  10.627   3.304   8.942
99086SOL    HW199155  10.538   3.281   8.919
99086SOL    HW299156  10.622   3.328   9.035
99087SOL     OW99157  10.479   8.056  13.519
99087SOL    HW199158  10.567   8.020  13.505
99087SOL    HW299159  10.463   8.111  13.442
99088SOL     OW99160  10.449   7.106  11.063
99088SOL    HW199161  10.425   7.111  10.971
99088SOL    HW299162  10.369   7.078  11.108
99089SOL     OW99163   0.515  14.649   6.762
99089SOL    HW199164   0.451  14.718   6.743
99089SOL    HW299165   0.587  14.694   6.806
99090SOL     OW99166   4.713   7.957   7.939
99090SOL    HW199167   4.676   7.895   8.002
99090SOL    HW299168   4.783   7.909   7.896
99091SOL     OW99169   4.723   2.690   5.500
99091SOL    HW199170   4.706   2.601   5.529
99091SOL    HW299171   4.738   2.739   5.581
99092SOL     OW99172   5.254   9.656   1.900
99092SOL    HW199173   5.308   9.577   1.911
99092SOL    HW299174   5.171   9.622   1.865
99093SOL     OW99175  11.224  10.053   5.668
99093SOL    HW199176  11.137  10.083   5.641
99093SOL    HW299177  11.252  10.117   5.734
99094SOL     OW99178   3.240  11.280   9.212
99094SOL    HW199179   3.283  11.222   9.275
99094SOL    HW299180   3.309  11.304   9.150
99095SOL     OW99181   7.405   0.511  13.972
99095SOL    HW199182   7.421   0.496  14.065
99095SOL    HW299183   7.434   0.430  13.929
99096SOL     OW99184   0.182  13.989  13.336
99096SOL    HW199185   0.232  14.070  13.320
99096SOL    HW299186   0.231  13.921  13.290
99097SOL     OW99187  14.662   2.246   2.810
99097SOL    HW199188  14.680   2.152   2.808
99097SOL    HW299189  14.747   2.287   2.826
99098SOL     OW99190   7.592   5.989  13.997
99098SOL    HW199191   7.685   5.990  14.020
99098SOL    HW299192   7.580   6.068  13.944
99099SOL     OW99193  10.544   9.344   4.877
99099SOL    HW199194  10.619   9.296   4.912
99099SOL    HW299195  10.485   9.275   4.845
99100SOL     OW99196  10.545   4.852   6.559
99100SOL    HW199197  10.490   4.780   6.527
99100SOL    HW299198  10.495   4.889   6.632
99101SOL     OW99199   3.401   1.797  12.460
99101SOL    HW199200   3.313   1.814  12.427
99101SOL    HW299201   3.452   1.874  12.432
99102SOL     OW99202  10.234   8.077   9.188
99102SOL    HW199203  10.170   8.133   9.144
99102SOL    HW299204  10.181   8.008   9.228
99103SOL     OW99205   8.381   9.893  13.533
99103SOL    HW199206   8.342   9.838  13.464
99103SOL    HW299207   8.470   9.909  13.502
99104SOL     OW99208   8.152   7.822  10.462
99104SOL    HW199209   8.060   7.848  10.461
99104SOL    HW299210   8.200   7.903  10.481
99105SOL     OW99211   9.547   6.543  14.187
99105SOL    HW199212   9.575   6.478  14.121
99105SOL    HW299213   9.456   6.562  14.164
99106SOL     OW99214   6.011   4.017  10.151
99106SOL    HW199215   5.969   4.086  10.203
99106SOL    HW299216   6.013   3.941  10.208
99107SOL     OW99217  12.639   7.874   0.828
99107SOL    HW199218  12.585   7.952   0.814
99107SOL    HW299219  12.679   7.857   0.743
99108SOL     OW99220   5.473  10.976   2.146
99108SOL    HW199221   5.452  11.062   2.110
99108SOL    HW299222   5.425  10.915   2.089
99109SOL     OW99223  13.360  10.582   7.191
99109SOL    HW199224  13.404  10.508   7.233
99109SOL    HW299225  13.281  10.544   7.152
99110SOL     OW99226   9.762  11.765   2.374
99110SOL    HW199227   9.793  11.823   2.304
99110SOL    HW299228   9.667  11.773   2.370
99111SOL     OW99229   2.440   6.179   0.542
99111SOL    HW199230   2.534   6.186   0.522
99111SOL    HW299231   2.401   6.147   0.461
99112SOL     OW99232   8.012   9.830   5.398
99112SOL    HW199233   8.088   9.826   5.455
99112SOL    HW299234   8.048   9.833   5.309
99113SOL     OW99235   5.454   3.996  14.339
99113SOL    HW199236   5.430   4.010  14.430
99113SOL    HW299237   5.432   3.904  14.322
99114SOL     OW99238  11.551   4.939  13.265
99114SOL    HW199239  11.606   4.872  13.305
99114SOL    HW299240  11.463   4.900  13.264
99115SOL     OW99241   1.718   7.327   9.390
99115SOL    HW199242   1.742   7.409   9.346
99115SOL    HW299243   1.625   7.317   9.374
99116SOL     OW99244   8.880   7.263   4.348
99116SOL    HW199245   8.788   7.239   4.336
99116SOL    HW299246   8.907   7.218   4.428
99117SOL     OW99247   2.574  12.665   5.470
99117SOL    HW199248   2.521  12.612   5.410
99117SOL    HW299249   2.611  12.602   5.532
99118SOL     OW99250   8.917  11.714   1.838
99118SOL    HW199251   8.928  11.726   1.744
99118SOL    HW299252   8.946  11.797   1.876
99119SOL     OW99253   9.323   5.763   7.066
99119SOL    HW199254   9.339   5.689   7.124
99119SOL    HW299255   9.353   5.839   7.115
99120SOL     OW99256  11.567  10.535   6.139
99120SOL    HW199257  11.538  10.531   6.230
99120SOL    HW299258  11.640  10.597   6.139
99121SOL     OW99259   4.947  10.897   7.683
99121SOL    HW199260   4.941  10.897   7.587
99121SOL    HW299261   5.022  10.841   7.703
99122SOL     OW99262  11.878   4.776   4.719
99122SOL    HW199263  11.970   4.747   4.718
99122SOL    HW299264  11.832   4.712   4.666
99123SOL     OW99265   7.370   0.840   6.318
99123SOL    HW199266   7.293   0.818   6.267
99123SOL    HW299267   7.429   0.883   6.256
99124SOL     OW99268   2.292   0.107   7.909
99124SOL    HW199269   2.353   0.058   7.963
99124SOL    HW299270   2.206   0.073   7.932
99125SOL     OW99271   5.185   8.933   8.450
99125SOL    HW199272   5.153   8.953   8.362
99125SOL    HW299273   5.260   8.991   8.462
99126SOL     OW99274   5.877  13.210   4.296
99126SOL    HW199275   5.793  13.240   4.330
99126SOL    HW299276   5.905  13.281   4.238
99127SOL     OW99277   0.744   2.497  11.818
99127SOL    HW199278   0.664   2.446  11.802
99127SOL    HW299279   0.745   2.511  11.912
99128SOL     OW99280  10.039   5.200   5.729
99128SOL    HW199281  10.000   5.282   5.759
99128SOL    HW299282   9.992   5.179   5.649
99129SOL     OW99283  11.621  10.851  11.369
99129SOL    HW199284  11.608  10.937  11.330
99129SOL    HW299285  11.630  10.868  11.463
99130SOL     OW99286   3.872   9.582  11.506
99130SOL    HW199287   3.954   9.532  11.502
99130SOL    HW299288   3.807   9.525  11.466
99131SOL     OW99289  12.651  12.816   7.045
99131SOL    HW199290  12.629  12.751   6.978
99131SOL    HW299291  12.739  12.791   7.073
99132SOL     OW99292   8.209   7.719   7.377
99132SOL    HW199293   8.136   7.674   7.334
99132SOL    HW299294   8.283   7.707   7.317
99133SOL     OW99295   0.875  11.406   5.132
99133SOL    HW199296   0.789  11.365   5.129
99133SOL    HW299297   0.857  11.500   5.131
99134SOL     OW99298   1.424   0.912   8.955
99134SOL    HW199299   1.423   1.006   8.936
99134SOL    HW299300   1.365   0.874   8.890
99135SOL     OW99301   1.831   4.610  13.188
99135SOL    HW199302   1.785   4.657  13.118
99135SOL    HW299303   1.923   4.635  13.176
99136SOL     OW99304   8.679   0.750  14.664
99136SOL    HW199305   8.663   0.662  14.697
99136SOL    HW299306   8.771   0.750  14.639
99137SOL     OW99307   9.497   7.416   5.864
99137SOL    HW199308   9.433   7.361   5.819
99137SOL    HW299309   9.460   7.504   5.859
99138SOL     OW99310  11.223   3.485  13.454
99138SOL    HW199311  11.260   3.573  13.461
99138SOL    HW299312  11.236   3.447  13.541
99139SOL     OW99313   9.485  14.671  10.643
99139SOL    HW199314   9.530  14.705  10.721
99139SOL    HW299315   9.510  14.730  10.573
99140SOL     OW99316   5.863   2.462   6.743
99140SOL    HW199317   5.931   2.460   6.810
99140SOL    HW299318   5.845   2.555   6.729
99141SOL     OW99319   5.684   8.225   6.063
99141SOL    HW199320   5.738   8.291   6.021
99141SOL    HW299321   5.599   8.232   6.019
99142SOL     OW99322   7.186   8.181   5.586
99142SOL    HW199323   7.129   8.128   5.642
99142SOL    HW299324   7.158   8.162   5.497
99143SOL     OW99325   9.419  11.648   4.230
99143SOL    HW199326   9.463  11.663   4.146
99143SOL    HW299327   9.451  11.562   4.258
99144SOL     OW99328   7.381   9.283   6.574
99144SOL    HW199329   7.415   9.357   6.524
99144SOL    HW299330   7.411   9.206   6.526
99145SOL     OW99331   0.231  11.805   3.061
99145SOL    HW199332   0.189  11.758   2.988
99145SOL    HW299333   0.218  11.898   3.040
99146SOL     OW99334   9.716   1.743  14.171
99146SOL    HW199335   9.729   1.710  14.082
99146SOL    HW299336   9.630   1.783  14.169
99147SOL     OW99337  13.039   5.966  12.746
99147SOL    HW199338  13.090   6.004  12.818
99147SOL    HW299339  13.096   5.900  12.708
99148SOL     OW99340   5.255   5.226   2.666
99148SOL    HW199341   5.346   5.253   2.653
99148SOL    HW299342   5.233   5.175   2.589
99149SOL     OW99343   8.341  14.632   3.642
99149SOL    HW199344   8.312  14.700   3.581
99149SOL    HW299345   8.369  14.560   3.586
99150SOL     OW99346  14.807   4.918   2.398
99150SOL    HW199347  14.804   4.944   2.490
99150SOL    HW299348  14.835   4.998   2.352
99151SOL     OW99349  13.053  14.714   0.070
99151SOL    HW199350  13.008  14.630   0.077
99151SOL    HW299351  12.982  14.779   0.067
99152SOL     OW99352   7.736  12.952   7.436
99152SOL    HW199353   7.763  13.026   7.491
99152SOL    HW299354   7.655  12.922   7.476
99153SOL     OW99355  10.433   3.221   2.089
99153SOL    HW199356  10.384   3.208   2.008
99153SOL    HW299357  10.431   3.136   2.132
99154SOL     OW99358   7.101   0.284   1.470
99154SOL    HW199359   7.070   0.375   1.467
99154SOL    HW299360   7.189   0.291   1.508
99155SOL     OW99361   3.240   8.710   1.622
99155SOL    HW199362   3.225   8.804   1.611
99155SOL    HW299363   3.194   8.688   1.703
99156SOL     OW99364  12.433  14.453  12.009
99156SOL    HW199365  12.471  14.534  11.976
99156SOL    HW299366  12.414  14.401  11.931
99157SOL     OW99367  10.983   9.618   4.988
99157SOL    HW199368  11.025   9.552   4.932
99157SOL    HW299369  11.050   9.644   5.051
99158SOL     OW99370  14.172  13.591  12.101
99158SOL    HW199371  14.204  13.682  12.101
99158SOL    HW299372  14.146  13.575  12.192
99159SOL     OW99373   4.266   1.898  10.196
99159SOL    HW199374   4.345   1.845  10.201
99159SOL    HW299375   4.220   1.865  10.118
99160SOL     OW99376   5.212   7.496  12.768
99160SOL    HW199377   5.136   7.512  12.823
99160SOL    HW299378   5.204   7.559  12.696
99161SOL     OW99379   9.095  11.296   9.637
99161SOL    HW199380   9.122  11.388   9.644
99161SOL    HW299381   9.002  11.300   9.617
99162SOL     OW99382  11.804   9.957  12.092
99162SOL    HW199383  11.822   9.882  12.148
99162SOL    HW299384  11.863   9.947  12.018
99163SOL     OW99385   0.562  11.015   5.619
99163SOL    HW199386   0.525  10.926   5.617
99163SOL    HW299387   0.486  11.073   5.618
99164SOL     OW99388  14.452  11.392   9.619
99164SOL    HW199389  14.532  11.445   9.613
99164SOL    HW299390  14.467  11.333   9.693
99165SOL     OW99391   2.958   5.009  11.391
99165SOL    HW199392   2.907   5.084  11.361
99165SOL    HW299393   3.001   4.975  11.312
99166SOL     OW99394   0.749  12.213   4.482
99166SOL    HW199395   0.746  12.141   4.546
99166SOL    HW299396   0.690  12.184   4.412
99167SOL     OW99397   7.647   6.850   1.529
99167SOL    HW199398   7.734   6.819   1.505
99167SOL    HW299399   7.588   6.779   1.504
99168SOL     OW99400   0.391  12.995   5.394
99168SOL    HW199401   0.360  12.985   5.484
99168SOL    HW299402   0.415  12.906   5.366
99169SOL     OW99403   8.780   8.983   3.893
99169SOL    HW199404   8.753   8.940   3.974
99169SOL    HW299405   8.742   8.929   3.824
99170SOL     OW99406   8.750   6.623   7.782
99170SOL    HW199407   8.676   6.565   7.766
99170SOL    HW299408   8.825   6.578   7.743
99171SOL     OW99409   7.829   7.268   9.365
99171SOL    HW199410   7.792   7.196   9.415
99171SOL    HW299411   7.854   7.229   9.281
99172SOL     OW99412  11.867   5.781   0.123
99172SOL    HW199413  11.811   5.796   0.199
99172SOL    HW299414  11.950   5.823   0.146
99173SOL     OW99415   0.017  11.910   3.693
99173SOL    HW199416   0.028  11.883   3.784
99173SOL    HW299417   0.066  11.846   3.642
99174SOL     OW99418   3.607   7.252   7.428
99174SOL    HW199419   3.657   7.178   7.395
99174SOL    HW299420   3.669   7.325   7.429
99175SOL     OW99421  12.230  10.210   5.808
99175SOL    HW199422  12.288  10.140   5.838
99175SOL    HW299423  12.279  10.291   5.827
99176SOL     OW99424   2.395   2.322   9.658
99176SOL    HW199425   2.335   2.263   9.702
99176SOL    HW299426   2.342   2.398   9.636
99177SOL     OW99427   6.771   3.243   3.019
99177SOL    HW199428   6.700   3.183   2.996
99177SOL    HW299429   6.754   3.266   3.110
99178SOL     OW99430  10.475  11.114   4.328
99178SOL    HW199431  10.453  11.036   4.379
99178SOL    HW299432  10.488  11.183   4.393
99179SOL     OW99433   9.470   0.623   5.775
99179SOL    HW199434   9.496   0.534   5.799
99179SOL    HW299435   9.538   0.653   5.715
99180SOL     OW99436  14.009   1.201   5.402
99180SOL    HW199437  13.918   1.208   5.431
99180SOL    HW299438  14.057   1.170   5.478
99181SOL     OW99439  13.749   0.464  12.192
99181SOL    HW199440  13.728   0.558  12.196
99181SOL    HW299441  13.754   0.437  12.283
99182SOL     OW99442  11.663  14.319  10.757
99182SOL    HW199443  11.712  14.283  10.831
99182SOL    HW299444  11.715  14.296  10.680
99183SOL     OW99445  14.179   0.591   4.548
99183SOL    HW199446  14.150   0.674   4.511
99183SOL    HW299447  14.098   0.546   4.572
99184SOL     OW99448   7.176   2.274   4.857
99184SOL    HW199449   7.136   2.347   4.905
99184SOL    HW299450   7.106   2.239   4.803
99185SOL     OW99451   3.611  10.240  11.202
99185SOL    HW199452   3.637  10.196  11.122
99185SOL    HW299453   3.660  10.195  11.271
99186SOL     OW99454   0.858  11.415   5.904
99186SOL    HW199455   0.931  11.418   5.841
99186SOL    HW299456   0.784  11.383   5.852
99187SOL     OW99457   3.993  14.294   1.550
99187SOL    HW199458   3.936  14.222   1.524
99187SOL    HW299459   3.937  14.350   1.603
99188SOL     OW99460  10.863   0.023   2.998
99188SOL    HW199461  10.877  14.844   2.924
99188SOL    HW299462  10.897   0.107   2.967
99189SOL     OW99463  12.099   0.991   2.910
99189SOL    HW199464  12.063   1.060   2.966
99189SOL    HW299465  12.058   0.910   2.943
99190SOL     OW99466   7.381   3.188  14.176
99190SOL    HW199467   7.318   3.164  14.244
99190SOL    HW299468   7.330   3.187  14.095
99191SOL     OW99469   1.705  10.796   3.003
99191SOL    HW199470   1.684  10.806   3.095
99191SOL    HW299471   1.777  10.858   2.987
99192SOL     OW99472  10.818   2.821  13.757
99192SOL    HW199473  10.892   2.814  13.695
99192SOL    HW299474  10.860   2.836  13.842
99193SOL     OW99475   8.067   4.007   6.177
99193SOL    HW199476   8.005   3.935   6.188
99193SOL    HW299477   8.091   4.033   6.266
99194SOL     OW99478  12.535   5.762   5.316
99194SOL    HW199479  12.519   5.685   5.261
99194SOL    HW299480  12.630   5.762   5.331
99195SOL     OW99481   3.951   8.359   6.847
99195SOL    HW199482   4.006   8.294   6.802
99195SOL    HW299483   3.947   8.327   6.937
99196SOL     OW99484   9.083   4.071   2.836
99196SOL    HW199485   9.073   4.095   2.744
99196SOL    HW299486   9.047   4.145   2.884
99197SOL     OW99487  13.920   3.578   6.518
99197SOL    HW199488  13.976   3.645   6.558
99197SOL    HW299489  13.967   3.552   6.439
99198SOL     OW99490   6.468   1.755   8.290
99198SOL    HW199491   6.502   1.678   8.245
99198SOL    HW299492   6.450   1.817   8.219
99199SOL     OW99493   1.871   4.808   1.176
99199SOL    HW199494   1.904   4.753   1.247
99199SOL    HW299495   1.776   4.797   1.180
99200SOL     OW99496   1.392   2.721  13.494
99200SOL    HW199497   1.371   2.762  13.410
99200SOL    HW299498   1.427   2.792  13.548
99201SOL     OW99499  14.515   3.901   3.195
99201SOL    HW199500  14.542   3.842   3.265
99201SOL    HW299501  14.547   3.987   3.221
99202SOL     OW99502   6.311   1.944   6.268
99202SOL    HW199503   6.399   1.977   6.251
99202SOL    HW299504   6.259   2.022   6.288
99203SOL     OW99505   1.396   8.870   7.376
99203SOL    HW199506   1.455   8.938   7.407
99203SOL    HW299507   1.341   8.913   7.311
99204SOL     OW99508   4.179   9.101   9.033
99204SOL    HW199509   4.090   9.067   9.027
99204SOL    HW299510   4.190   9.121   9.126
99205SOL     OW99511   4.576   3.218  13.211
99205SOL    HW199512   4.491   3.204  13.170
99205SOL    HW299513   4.584   3.314  13.218
99206SOL     OW99514   8.900   0.819  14.851
99206SOL    HW199515   8.900   0.905   0.014
99206SOL    HW299516   8.976   0.774   0.006
99207SOL     OW99517  12.924   8.189   6.084
99207SOL    HW199518  12.908   8.256   6.151
99207SOL    HW299519  12.875   8.218   6.008
99208SOL     OW99520   0.987  12.304   2.560
99208SOL    HW199521   1.060  12.321   2.501
99208SOL    HW299522   0.928  12.379   2.547
99209SOL     OW99523   7.073   2.388   8.820
99209SOL    HW199524   6.991   2.374   8.869
99209SOL    HW299525   7.103   2.474   8.848
99210SOL     OW99526   0.821   6.244   8.947
99210SOL    HW199527   0.879   6.319   8.953
99210SOL    HW299528   0.733   6.281   8.946
99211SOL     OW99529   1.010   9.319   3.171
99211SOL    HW199530   1.065   9.395   3.188
99211SOL    HW299531   1.039   9.254   3.235
99212SOL     OW99532  11.849  13.355  12.299
99212SOL    HW199533  11.830  13.435  12.250
99212SOL    HW299534  11.879  13.386  12.384
99213SOL     OW99535   2.132   9.820  13.025
99213SOL    HW199536   2.185   9.876  13.080
99213SOL    HW299537   2.061   9.877  12.994
99214SOL     OW99538   1.985  11.363  13.911
99214SOL    HW199539   2.065  11.411  13.890
99214SOL    HW299540   1.938  11.419  13.973
99215SOL     OW99541  11.430   0.637   6.930
99215SOL    HW199542  11.349   0.679   6.900
99215SOL    HW299543  11.484   0.628   6.852
99216SOL     OW99544   8.819   6.021   3.382
99216SOL    HW199545   8.731   5.998   3.412
99216SOL    HW299546   8.855   6.075   3.452
99217SOL     OW99547   3.722   5.576   6.046
99217SOL    HW199548   3.759   5.574   6.134
99217SOL    HW299549   3.644   5.631   6.053
99218SOL     OW99550   4.072   1.364  14.239
99218SOL    HW199551   4.107   1.282  14.205
99218SOL    HW299552   4.087   1.428  14.169
99219SOL     OW99553  12.777  11.075   9.388
99219SOL    HW199554  12.810  11.057   9.300
99219SOL    HW299555  12.714  11.147   9.376
99220SOL     OW99556   4.494   5.964  12.743
99220SOL    HW199557   4.414   5.963  12.690
99220SOL    HW299558   4.491   5.882  12.792
99221SOL     OW99559   7.342  10.423  13.302
99221SOL    HW199560   7.264  10.460  13.345
99221SOL    HW299561   7.317  10.419  13.210
99222SOL     OW99562   8.426   0.532   2.228
99222SOL    HW199563   8.341   0.489   2.222
99222SOL    HW299564   8.466   0.495   2.306
99223SOL     OW99565   6.815   0.271   2.889
99223SOL    HW199566   6.842   0.189   2.930
99223SOL    HW299567   6.889   0.330   2.902
99224SOL     OW99568   7.558   1.494  13.292
99224SOL    HW199569   7.614   1.426  13.255
99224SOL    HW299570   7.527   1.457  13.375
99225SOL     OW99571   4.373   7.750   1.582
99225SOL    HW199572   4.369   7.700   1.664
99225SOL    HW299573   4.300   7.717   1.530
99226SOL     OW99574   5.508  10.904  11.873
99226SOL    HW199575   5.559  10.939  11.801
99226SOL    HW299576   5.421  10.889  11.836
99227SOL     OW99577  11.389   8.887   4.135
99227SOL    HW199578  11.351   8.865   4.050
99227SOL    HW299579  11.361   8.816   4.193
99228SOL     OW99580  14.619  14.100  11.366
99228SOL    HW199581  14.623  14.026  11.427
99228SOL    HW299582  14.579  14.064  11.287
99229SOL     OW99583   9.939   9.101   8.467
99229SOL    HW199584   9.892   9.184   8.455
99229SOL    HW299585  10.019   9.111   8.416
99230SOL     OW99586  10.071   5.642  11.298
99230SOL    HW199587  10.053   5.623  11.206
99230SOL    HW299588  10.004   5.593  11.347
99231SOL     OW99589   9.680   2.025   3.592
99231SOL    HW199590   9.746   1.962   3.563
99231SOL    HW299591   9.724   2.077   3.660
99232SOL     OW99592  10.785  10.916   4.087
99232SOL    HW199593  10.748  10.851   4.147
99232SOL    HW299594  10.710  10.967   4.057
99233SOL     OW99595  10.787  11.965   7.408
99233SOL    HW199596  10.796  11.884   7.359
99233SOL    HW299597  10.758  12.029   7.343
99234SOL     OW99598   7.056  13.485   4.663
99234SOL    HW199599   7.108  13.408   4.680
99234SOL    HW299600   7.090  13.520   4.580
99235SOL     OW99601   6.393   5.026  14.339
99235SOL    HW199602   6.370   5.099  14.282
99235SOL    HW299603   6.488   5.023  14.337
99236SOL     OW99604   8.420   7.581   2.796
99236SOL    HW199605   8.428   7.674   2.814
99236SOL    HW299606   8.471   7.538   2.864
99237SOL     OW99607  11.753   0.498  11.524
99237SOL    HW199608  11.840   0.498  11.485
99237SOL    HW299609  11.707   0.427  11.480
99238SOL     OW99610   1.203  13.142   1.767
99238SOL    HW199611   1.251  13.136   1.850
99238SOL    HW299612   1.123  13.190   1.789
99239SOL     OW99613  12.706   0.435   6.422
99239SOL    HW199614  12.681   0.515   6.375
99239SOL    HW299615  12.730   0.465   6.509
99240SOL     OW99616  11.470   5.251   3.426
99240SOL    HW199617  11.387   5.213   3.397
99240SOL    HW299618  11.471   5.235   3.520
99241SOL     OW99619  10.471  11.428  11.131
99241SOL    HW199620  10.433  11.419  11.219
99241SOL    HW299621  10.446  11.517  11.104
99242SOL     OW99622   7.741   3.990   7.083
99242SOL    HW199623   7.730   4.075   7.125
99242SOL    HW299624   7.726   3.927   7.154
99243SOL     OW99625   6.982   0.472  13.473
99243SOL    HW199626   6.892   0.467  13.508
99243SOL    HW299627   7.010   0.381  13.465
99244SOL     OW99628   0.464   8.143   5.331
99244SOL    HW199629   0.513   8.068   5.296
99244SOL    HW299630   0.419   8.180   5.255
99245SOL     OW99631   1.900  14.821   1.350
99245SOL    HW199632   1.915  14.731   1.322
99245SOL    HW299633   1.966  14.872   1.303
99246SOL     OW99634   7.230  12.765   4.240
99246SOL    HW199635   7.313  12.765   4.288
99246SOL    HW299636   7.238  12.693   4.177
99247SOL     OW99637  12.713   2.538   7.035
99247SOL    HW199638  12.678   2.488   7.109
99247SOL    HW299639  12.695   2.483   6.958
99248SOL     OW99640   0.356  11.336  11.733
99248SOL    HW199641   0.263  11.342  11.755
99248SOL    HW299642   0.386  11.257  11.778
99249SOL     OW99643  12.033   4.943   6.351
99249SOL    HW199644  11.954   4.912   6.395
99249SOL    HW299645  12.054   5.026   6.394
99250SOL     OW99646   4.798  10.631   7.445
99250SOL    HW199647   4.750  10.569   7.390
99250SOL    HW299648   4.732  10.671   7.501
99251SOL     OW99649  11.897   1.633  11.493
99251SOL    HW199650  11.854   1.688  11.558
99251SOL    HW299651  11.916   1.692  11.420
99252SOL     OW99652   2.083   1.985   2.804
99252SOL    HW199653   2.067   1.990   2.898
99252SOL    HW299654   2.012   2.035   2.765
99253SOL     OW99655   0.956   6.229   4.375
99253SOL    HW199656   1.022   6.285   4.333
99253SOL    HW299657   0.964   6.248   4.468
99254SOL     OW99658   5.097  13.365   6.946
99254SOL    HW199659   5.029  13.303   6.918
99254SOL    HW299660   5.147  13.317   7.013
99255SOL     OW99661   2.238  11.498   2.467
99255SOL    HW199662   2.293  11.423   2.491
99255SOL    HW299663   2.216  11.483   2.375
99256SOL     OW99664  11.455   1.007  14.522
99256SOL    HW199665  11.413   1.077  14.473
99256SOL    HW299666  11.412   1.008  14.608
99257SOL     OW99667  13.050   0.966   2.808
99257SOL    HW199668  13.144   0.949   2.820
99257SOL    HW299669  13.034   0.944   2.716
99258SOL     OW99670   5.411  12.573   2.171
99258SOL    HW199671   5.486  12.562   2.230
99258SOL    HW299672   5.436  12.648   2.116
99259SOL     OW99673   9.985  11.703  13.155
99259SOL    HW199674   9.942  11.710  13.239
99259SOL    HW299675   9.955  11.619  13.119
99260SOL     OW99676   1.834   9.235   3.678
99260SOL    HW199677   1.868   9.275   3.598
99260SOL    HW299678   1.741   9.260   3.679
99261SOL     OW99679   7.357  12.934   9.074
99261SOL    HW199680   7.423  12.922   9.143
99261SOL    HW299681   7.378  13.019   9.035
99262SOL     OW99682   7.409  10.011   4.599
99262SOL    HW199683   7.371  10.003   4.511
99262SOL    HW299684   7.502  10.027   4.583
99263SOL     OW99685   0.422   3.635   6.688
99263SOL    HW199686   0.359   3.705   6.701
99263SOL    HW299687   0.487   3.649   6.757
99264SOL     OW99688  12.248   0.833  10.054
99264SOL    HW199689  12.178   0.840  10.119
99264SOL    HW299690  12.229   0.904   9.992
99265SOL     OW99691   6.324   5.800   3.370
99265SOL    HW199692   6.352   5.862   3.437
99265SOL    HW299693   6.348   5.841   3.287
99266SOL     OW99694   4.271   2.348  11.813
99266SOL    HW199695   4.204   2.416  11.804
99266SOL    HW299696   4.350   2.388  11.777
99267SOL     OW99697   7.647   1.061  13.670
99267SOL    HW199698   7.559   1.035  13.643
99267SOL    HW299699   7.687   1.096  13.591
99268SOL     OW99700   2.214   4.330   0.092
99268SOL    HW199701   2.207   4.240   0.060
99268SOL    HW299702   2.123   4.359   0.101
99269SOL     OW99703   4.867   1.062  10.722
99269SOL    HW199704   4.959   1.062  10.748
99269SOL    HW299705   4.825   1.126  10.780
99270SOL     OW99706  12.840  10.493  13.728
99270SOL    HW199707  12.779  10.441  13.781
99270SOL    HW299708  12.926  10.456  13.748
99271SOL     OW99709   4.738  13.719  13.038
99271SOL    HW199710   4.646  13.701  13.056
99271SOL    HW299711   4.784  13.690  13.117
99272SOL     OW99712   2.615   8.066  14.844
99272SOL    HW199713   2.574   8.118  14.774
99272SOL    HW299714   2.629   7.980  14.804
99273SOL     OW99715  10.465  10.533   7.514
99273SOL    HW199716  10.424  10.464   7.568
99273SOL    HW299717  10.505  10.592   7.578
99274SOL     OW99718  12.407   0.079   0.670
99274SOL    HW199719  12.394   0.061   0.763
99274SOL    HW299720  12.438   0.170   0.668
99275SOL     OW99721   9.368  10.052   7.727
99275SOL    HW199722   9.444  10.008   7.689
99275SOL    HW299723   9.405  10.115   7.788
99276SOL     OW99724   6.800   3.286   7.280
99276SOL    HW199725   6.808   3.343   7.356
99276SOL    HW299726   6.890   3.262   7.258
99277SOL     OW99727  10.709   2.636  14.377
99277SOL    HW199728  10.661   2.572  14.429
99277SOL    HW299729  10.641   2.694  14.341
99278SOL     OW99730  10.998   6.115   9.371
99278SOL    HW199731  11.010   6.054   9.443
99278SOL    HW299732  11.020   6.200   9.408
99279SOL     OW99733   1.146   7.679   9.676
99279SOL    HW199734   1.169   7.695   9.768
99279SOL    HW299735   1.050   7.680   9.676
99280SOL     OW99736   9.414   6.569   9.867
99280SOL    HW199737   9.374   6.484   9.890
99280SOL    HW299738   9.378   6.589   9.781
99281SOL     OW99739  11.650  14.670   9.645
99281SOL    HW199740  11.700  14.672   9.564
99281SOL    HW299741  11.664  14.582   9.680
99282SOL     OW99742  12.403   0.044   7.837
99282SOL    HW199743  12.386   0.047   7.743
99282SOL    HW299744  12.394   0.135   7.865
99283SOL     OW99745  14.773  11.752  11.049
99283SOL    HW199746  14.789  11.844  11.030
99283SOL    HW299747  14.755  11.712  10.964
99284SOL     OW99748   2.912   5.963   0.599
99284SOL    HW199749   3.007   5.966   0.608
99284SOL    HW299750   2.892   5.871   0.579
99285SOL     OW99751  11.266  10.275   2.240
99285SOL    HW199752  11.318  10.253   2.163
99285SOL    HW299753  11.286  10.207   2.304
99286SOL     OW99754  14.573   6.449  12.627
99286SOL    HW199755  14.596   6.359  12.650
99286SOL    HW299756  14.516   6.477  12.699
99287SOL     OW99757   5.838   0.186   7.242
99287SOL    HW199758   5.810   0.175   7.151
99287SOL    HW299759   5.846   0.281   7.252
99288SOL     OW99760   5.110  10.781  14.381
99288SOL    HW199761   5.188  10.796  14.434
99288SOL    HW299762   5.094  10.687  14.389
99289SOL     OW99763   5.043   0.999  11.796
99289SOL    HW199764   5.083   0.983  11.882
99289SOL    HW299765   5.096   0.948  11.735
99290SOL     OW99766   8.630   5.784   7.281
99290SOL    HW199767   8.569   5.774   7.354
99290SOL    HW299768   8.604   5.715   7.219
99291SOL     OW99769  13.711   8.234   6.321
99291SOL    HW199770  13.793   8.223   6.369
99291SOL    HW299771  13.660   8.155   6.341
99292SOL     OW99772  12.133   3.212   9.597
99292SOL    HW199773  12.217   3.192   9.557
99292SOL    HW299774  12.101   3.128   9.630
99293SOL     OW99775   9.466  12.946   8.984
99293SOL    HW199776   9.486  12.921   8.894
99293SOL    HW299777   9.371  12.959   8.985
99294SOL     OW99778   9.022   1.870   4.830
99294SOL    HW199779   9.059   1.799   4.778
99294SOL    HW299780   9.038   1.949   4.778
99295SOL     OW99781   1.531  13.711  12.884
99295SOL    HW199782   1.465  13.642  12.892
99295SOL    HW299783   1.595  13.676  12.822
99296SOL     OW99784   8.306  13.837  12.511
99296SOL    HW199785   8.314  13.741  12.508
99296SOL    HW299786   8.231  13.853  12.568
99297SOL     OW99787   7.438   8.730   5.878
99297SOL    HW199788   7.469   8.664   5.817
99297SOL    HW299789   7.460   8.695   5.965
99298SOL     OW99790  14.176   4.877   5.413
99298SOL    HW199791  14.183   4.842   5.325
99298SOL    HW299792  14.209   4.967   5.406
99299SOL     OW99793  10.436  14.227   6.963
99299SOL    HW199794  10.448  14.253   6.872
99299SOL    HW299795  10.517  14.180   6.985
99300SOL     OW99796  10.362  11.419   7.222
99300SOL    HW199797  10.450  11.405   7.258
99300SOL    HW299798  10.329  11.495   7.270
99301SOL     OW99799   2.276  11.332   8.793
99301SOL    HW199800   2.326  11.357   8.871
99301SOL    HW299801   2.301  11.241   8.777
99302SOL     OW99802   8.155  11.084  10.010
99302SOL    HW199803   8.219  11.034  10.060
99302SOL    HW299804   8.093  11.116  10.076
99303SOL     OW99805  13.243  10.228   1.406
99303SOL    HW199806  13.162  10.278   1.413
99303SOL    HW299807  13.304  10.272   1.464
99304SOL     OW99808  13.413   2.465   4.229
99304SOL    HW199809  13.470   2.539   4.208
99304SOL    HW299810  13.325   2.501   4.228
99305SOL     OW99811  11.786   4.277  12.023
99305SOL    HW199812  11.749   4.193  12.050
99305SOL    HW299813  11.876   4.257  11.998
99306SOL     OW99814   4.304  12.903   0.275
99306SOL    HW199815   4.239  12.868   0.336
99306SOL    HW299816   4.257  12.971   0.227
99307SOL     OW99817   3.787   4.965   8.771
99307SOL    HW199818   3.719   5.025   8.742
99307SOL    HW299819   3.806   4.911   8.694
99308SOL     OW99820  13.991   9.316  11.487
99308SOL    HW199821  13.948   9.237  11.520
99308SOL    HW299822  14.083   9.303  11.509
99309SOL     OW99823   5.399   5.683   0.124
99309SOL    HW199824   5.460   5.664   0.052
99309SOL    HW299825   5.428   5.626   0.195
99310SOL     OW99826   6.904   0.339   9.569
99310SOL    HW199827   6.967   0.305   9.633
99310SOL    HW299828   6.826   0.283   9.580
99311SOL     OW99829  10.484   7.341  12.735
99311SOL    HW199830  10.509   7.385  12.653
99311SOL    HW299831  10.493   7.408  12.802
99312SOL     OW99832   9.190   2.896  11.565
99312SOL    HW199833   9.252   2.854  11.625
99312SOL    HW299834   9.116   2.836  11.561
99313SOL     OW99835  12.012   3.742   8.254
99313SOL    HW199836  11.937   3.800   8.240
99313SOL    HW299837  11.978   3.654   8.240
99314SOL     OW99838   9.843   8.847   5.189
99314SOL    HW199839   9.810   8.909   5.254
99314SOL    HW299840   9.934   8.872   5.176
99315SOL     OW99841   4.970   5.953   0.612
99315SOL    HW199842   4.914   6.017   0.656
99315SOL    HW299843   4.941   5.955   0.520
99316SOL     OW99844  11.649  11.100   8.120
99316SOL    HW199845  11.721  11.116   8.060
99316SOL    HW299846  11.612  11.017   8.091
99317SOL     OW99847  12.663  13.084  14.684
99317SOL    HW199848  12.716  13.067  14.606
99317SOL    HW299849  12.576  13.103  14.649
99318SOL     OW99850   8.526   0.925   0.132
99318SOL    HW199851   8.573   1.003   0.101
99318SOL    HW299852   8.505   0.877   0.052
99319SOL     OW99853   3.458  10.377   6.334
99319SOL    HW199854   3.419  10.373   6.422
99319SOL    HW299855   3.467  10.471   6.316
99320SOL     OW99856   7.150   3.900   9.396
99320SOL    HW199857   7.105   3.859   9.321
99320SOL    HW299858   7.128   3.993   9.389
99321SOL     OW99859   7.695   2.155  10.581
99321SOL    HW199860   7.762   2.156  10.513
99321SOL    HW299861   7.740   2.189  10.659
99322SOL     OW99862  11.836   1.993   8.584
99322SOL    HW199863  11.879   1.926   8.638
99322SOL    HW299864  11.752   2.008   8.628
99323SOL     OW99865   4.524  14.729  13.138
99323SOL    HW199866   4.536  14.815  13.098
99323SOL    HW299867   4.607  14.683  13.121
99324SOL     OW99868   0.604   8.268  12.864
99324SOL    HW199869   0.634   8.249  12.952
99324SOL    HW299870   0.629   8.359  12.849
99325SOL     OW99871  14.663  14.482   7.948
99325SOL    HW199872  14.658  14.401   8.000
99325SOL    HW299873  14.651  14.452   7.858
99326SOL     OW99874   0.332   5.633  14.273
99326SOL    HW199875   0.401   5.576  14.307
99326SOL    HW299876   0.358   5.721  14.299
99327SOL     OW99877  14.067  10.136  11.454
99327SOL    HW199878  13.980  10.173  11.472
99327SOL    HW299879  14.095  10.100  11.538
99328SOL     OW99880   6.319   1.838  13.101
99328SOL    HW199881   6.331   1.933  13.090
99328SOL    HW299882   6.357   1.820  13.187
99329SOL     OW99883  10.226  12.132   6.440
99329SOL    HW199884  10.263  12.199   6.384
99329SOL    HW299885  10.299  12.102   6.494
99330SOL     OW99886   7.710  13.659   7.912
99330SOL    HW199887   7.655  13.582   7.921
99330SOL    HW299888   7.688  13.713   7.988
99331SOL     OW99889  13.952  10.163  12.036
99331SOL    HW199890  13.996  10.244  12.063
99331SOL    HW299891  13.892  10.143  12.108
99332SOL     OW99892   8.779   0.090   8.180
99332SOL    HW199893   8.872   0.095   8.199
99332SOL    HW299894   8.748   0.181   8.183
99333SOL     OW99895   2.480   0.679   9.056
99333SOL    HW199896   2.473   0.773   9.036
99333SOL    HW299897   2.417   0.637   8.997
99334SOL     OW99898  12.020   1.053   5.908
99334SOL    HW199899  11.945   1.072   5.852
99334SOL    HW299900  11.984   1.052   5.997
99335SOL     OW99901  11.118   4.436   4.462
99335SOL    HW199902  11.091   4.434   4.370
99335SOL    HW299903  11.190   4.373   4.467
99336SOL     OW99904  10.515   3.309   3.443
99336SOL    HW199905  10.519   3.385   3.502
99336SOL    HW299906  10.504   3.346   3.356
99337SOL     OW99907   3.420  12.682   6.358
99337SOL    HW199908   3.369  12.659   6.280
99337SOL    HW299909   3.355  12.716   6.419
99338SOL     OW99910   9.527   1.596   4.824
99338SOL    HW199911   9.589   1.665   4.847
99338SOL    HW299912   9.480   1.578   4.905
99339SOL     OW99913  13.554   0.275   5.988
99339SOL    HW199914  13.617   0.265   6.060
99339SOL    HW299915  13.469   0.279   6.031
99340SOL     OW99916   8.060   7.684   6.560
99340SOL    HW199917   8.119   7.608   6.566
99340SOL    HW299918   8.092   7.744   6.627
99341SOL     OW99919   6.310   1.493   4.886
99341SOL    HW199920   6.333   1.458   4.972
99341SOL    HW299921   6.355   1.577   4.882
99342SOL     OW99922   0.522   1.508   2.242
99342SOL    HW199923   0.435   1.527   2.206
99342SOL    HW299924   0.579   1.506   2.165
99343SOL     OW99925   2.820  14.694   0.647
99343SOL    HW199926   2.792  14.602   0.649
99343SOL    HW299927   2.913  14.690   0.624
99344SOL     OW99928   4.202  12.915   6.198
99344SOL    HW199929   4.196  12.855   6.124
99344SOL    HW299930   4.112  12.932   6.223
99345SOL     OW99931   4.931   5.508   1.378
99345SOL    HW199932   4.929   5.416   1.353
99345SOL    HW299933   5.013   5.541   1.340
99346SOL     OW99934  11.023  10.325  13.617
99346SOL    HW199935  10.956  10.258  13.608
99346SOL    HW299936  11.026  10.369  13.532
99347SOL     OW99937   1.674  14.477   2.398
99347SOL    HW199938   1.749  14.532   2.418
99347SOL    HW299939   1.708  14.387   2.402
99348SOL     OW99940   4.918   4.894   0.969
99348SOL    HW199941   4.894   4.987   0.977
99348SOL    HW299942   5.009   4.896   0.937
99349SOL     OW99943   5.309   3.434   2.880
99349SOL    HW199944   5.216   3.440   2.901
99349SOL    HW299945   5.335   3.346   2.905
99350SOL     OW99946   5.318  14.806  13.152
99350SOL    HW199947   5.231  14.845  13.143
99350SOL    HW299948   5.340  14.814  13.244
99351SOL     OW99949   0.031   8.313  10.810
99351SOL    HW199950   0.065   8.401  10.824
99351SOL    HW299951  14.848   8.301  10.881
99352SOL     OW99952   0.628   2.450   4.491
99352SOL    HW199953   0.662   2.510   4.425
99352SOL    HW299954   0.597   2.375   4.441
99353SOL     OW99955   4.748  10.787  10.340
99353SOL    HW199956   4.832  10.826  10.313
99353SOL    HW299957   4.755  10.695  10.315
99354SOL     OW99958   8.980   9.843   4.838
99354SOL    HW199959   8.944   9.926   4.809
99354SOL    HW299960   9.005   9.797   4.758
99355SOL     OW99961   2.498   4.999  11.273
99355SOL    HW199962   2.458   5.080  11.303
99355SOL    HW299963   2.525   5.017  11.183
99356SOL     OW99964   2.838  11.126   5.317
99356SOL    HW199965   2.751  11.101   5.284
99356SOL    HW299966   2.868  11.048   5.364
99357SOL     OW99967   0.970  12.056   9.022
99357SOL    HW199968   0.942  11.977   9.067
99357SOL    HW299969   0.986  12.119   9.092
99358SOL     OW99970   2.327  13.317   2.303
99358SOL    HW199971   2.405  13.372   2.313
99358SOL    HW299972   2.361  13.231   2.279
99359SOL     OW99973   4.677   7.130   2.778
99359SOL    HW199974   4.758   7.093   2.743
99359SOL    HW299975   4.617   7.055   2.784
99360SOL     OW99976   5.391  12.588  14.240
99360SOL    HW199977   5.383  12.605  14.333
99360SOL    HW299978   5.417  12.672  14.202
99361SOL     OW99979   8.216   1.704   4.095
99361SOL    HW199980   8.189   1.681   4.006
99361SOL    HW299981   8.212   1.621   4.143
99362SOL     OW99982   4.291   1.085  12.765
99362SOL    HW199983   4.346   1.130  12.829
99362SOL    HW299984   4.202   1.096  12.799
99363SOL     OW99985   0.853  13.062   0.945
99363SOL    HW199986   0.779  13.001   0.944
99363SOL    HW299987   0.901  13.040   1.025
99364SOL     OW99988   5.016  11.588   2.419
99364SOL    HW199989   4.958  11.541   2.479
99364SOL    HW299990   5.062  11.519   2.371
99365SOL     OW99991   3.261  12.230   8.720
99365SOL    HW199992   3.274  12.141   8.688
99365SOL    HW299993   3.345  12.274   8.705
99366SOL     OW99994  13.826   1.624   7.686
99366SOL    HW199995  13.848   1.540   7.645
99366SOL    HW299996  13.870   1.620   7.771
99367SOL     OW99997   9.825   6.592   4.088
99367SOL    HW199998   9.833   6.583   3.994
99367SOL    HW299999   9.775   6.672   4.101
99368SOL     OW    0   4.269  12.483   4.974
99368SOL    HW1    1   4.232  12.468   4.887
99368SOL    HW2    2   4.231  12.414   5.028
99369SOL     OW    3   7.685   9.072  11.205
99369SOL    HW1    4   7.777   9.062  11.227
99369SOL    HW2    5   7.641   9.003  11.255
99370SOL     OW    6   3.775   9.870   8.000
99370SOL    HW1    7   3.690   9.833   8.024
99370SOL    HW2    8   3.837   9.827   8.059
99371SOL     OW    9   8.391   3.982   6.542
99371SOL    HW1   10   8.371   3.892   6.564
99371SOL    HW2   11   8.399   4.027   6.626
99372SOL     OW   12   6.355   8.412   9.199
99372SOL    HW1   13   6.377   8.496   9.239
99372SOL    HW2   14   6.292   8.372   9.259
99373SOL     OW   15  14.583   2.520   2.340
99373SOL    HW1   16  14.671   2.493   2.365
99373SOL    HW2   17  14.530   2.440   2.348
99374SOL     OW   18  14.323   8.031   2.366
99374SOL    HW1   19  14.235   8.031   2.405
99374SOL    HW2   20  14.355   8.120   2.379
99375SOL     OW   21   1.134   9.546   3.254
99375SOL    HW1   22   1.100   9.617   3.200
99375SOL    HW2   23   1.227   9.564   3.263
99376SOL     OW   24   4.898  11.832   1.117
99376SOL    HW1   25   4.974  11.883   1.088
99376SOL    HW2   26   4.822  11.886   1.095
99377SOL     OW   27  14.374   5.945  13.612
99377SOL    HW1   28  14.339   6.026  13.648
99377SOL    HW2   29  14.320   5.876  13.652
99378SOL     OW   30   5.255   1.868   9.874
99378SOL    HW1   31   5.346   1.845   9.895
99378SOL    HW2   32   5.262   1.950   9.824
99379SOL     OW   33   2.689   5.419   0.096
99379SOL    HW1   34   2.749   5.368   0.042
99379SOL    HW2   35   2.604   5.377   0.083
99380SOL     OW   36   1.899  11.864  14.049
99380SOL    HW1   37   1.814  11.880  14.008
99380SOL    HW2   38   1.890  11.899  14.138
99381SOL     OW   39   4.598  13.658   5.250
99381SOL    HW1   40   4.667  13.612   5.297
99381SOL    HW2   41   4.593  13.614   5.165
99382SOL     OW   42  12.981   1.535   9.784
99382SOL    HW1   43  13.044   1.594   9.744
99382SOL    HW2   44  13.016   1.447   9.766
99383SOL     OW   45   2.231   7.039   6.425
99383SOL    HW1   46   2.208   6.947   6.438
99383SOL    HW2   47   2.324   7.044   6.447
99384SOL     OW   48   3.512   2.724   8.919
99384SOL    HW1   49   3.469   2.641   8.938
99384SOL    HW2   50   3.494   2.740   8.827
99385SOL     OW   51  13.006   3.698   3.819
99385SOL    HW1   52  13.039   3.690   3.908
99385SOL    HW2   53  13.024   3.613   3.778
99386SOL     OW   54   1.938   1.722   8.599
99386SOL    HW1   55   1.916   1.661   8.529
99386SOL    HW2   56   2.018   1.686   8.639
99387SOL     OW   57   5.890  11.389   7.246
99387SOL    HW1   58   5.834  11.463   7.269
99387SOL    HW2   59   5.940  11.420   7.171
99388SOL     OW   60   3.113   5.359  13.146
99388SOL    HW1   61   3.099   5.399  13.060
99388SOL    HW2   62   3.097   5.266  13.132
99389SOL     OW   63   3.283   5.971   4.830
99389SOL    HW1   64   3.191   5.959   4.854
99389SOL    HW2   65   3.330   5.909   4.886
99390SOL     OW   66   1.962   8.317   2.748
99390SOL    HW1   67   1.898   8.298   2.680
99390SOL    HW2   68   1.964   8.412   2.754
99391SOL     OW   69   8.575   7.106  11.383
99391SOL    HW1   70   8.600   7.063  11.301
99391SOL    HW2   71   8.614   7.193  11.378
99392SOL     OW   72   5.573   2.767   9.876
99392SOL    HW1   73   5.558   2.757   9.782
99392SOL    HW2   74   5.515   2.702   9.916
99393SOL     OW   75   0.142   1.750  10.752
99393SOL    HW1   76   0.232   1.727  10.774
99393SOL    HW2   77   0.121   1.696  10.676
99394SOL     OW   78   6.780   1.992   6.051
99394SOL    HW1   79   6.798   2.078   6.013
99394SOL    HW2   80   6.854   1.938   6.023
99395SOL     OW   81  11.787   1.536   7.349
99395SOL    HW1   82  11.863   1.594   7.344
99395SOL    HW2   83  11.783   1.495   7.262
99396SOL     OW   84   4.693   9.744  12.870
99396SOL    HW1   85   4.708   9.670  12.929
99396SOL    HW2   86   4.610   9.724  12.828
99397SOL     OW   87   2.343  12.600   6.813
99397SOL    HW1   88   2.434  12.607   6.787
99397SOL    HW2   89   2.310  12.690   6.809
99398SOL     OW   90   3.440   6.516   1.756
99398SOL    HW1   91   3.362   6.559   1.718
99398SOL    HW2   92   3.483   6.585   1.806
99399SOL     OW   93  14.377  11.374   5.211
99399SOL    HW1   94  14.294  11.340   5.179
99399SOL    HW2   95  14.434  11.373   5.134
99400SOL     OW   96   4.441  11.647   2.218
99400SOL    HW1   97   4.393  11.730   2.213
99400SOL    HW2   98   4.390  11.586   2.165
99401SOL     OW   99   5.743   9.296  11.585
99401SOL    HW1  100   5.730   9.362  11.653
99401SOL    HW2  101   5.796   9.228  11.628
99402SOL     OW  102   8.743   5.410   9.281
99402SOL    HW1  103   8.759   5.505   9.283
99402SOL    HW2  104   8.810   5.373   9.337
99403SOL     OW  105   7.990   5.155   9.455
99403SOL    HW1  106   7.980   5.250   9.457
99403SOL    HW2  107   7.992   5.132   9.362
99404SOL     OW  108  12.304  14.241   0.091
99404SOL    HW1  109  12.315  14.198   0.175
99404SOL    HW2  110  12.210  14.262   0.087
99405SOL     OW  111   4.556   2.605   5.291
99405SOL    HW1  112   4.613   2.562   5.227
99405SOL    HW2  113   4.610   2.614   5.369
99406SOL     OW  114  10.636   4.055  13.874
99406SOL    HW1  115  10.647   3.988  13.941
99406SOL    HW2  116  10.709   4.115  13.887
99407SOL     OW  117  14.205   5.955  11.692
99407SOL    HW1  118  14.197   5.880  11.633
99407SOL    HW2  119  14.114   5.975  11.718
99408SOL     OW  120   3.549  13.213   6.727
99408SOL    HW1  121   3.562  13.304   6.698
99408SOL    HW2  122   3.458  13.210   6.757
99409SOL     OW  123   1.800   5.904   5.606
99409SOL    HW1  124   1.889   5.906   5.641
99409SOL    HW2  125   1.811   5.880   5.514
99410SOL     OW  126   0.598  12.801   9.636
99410SOL    HW1  127   0.539  12.755   9.576
99410SOL    HW2  128   0.563  12.890   9.641
99411SOL     OW  129   8.951   0.136   7.914
99411SOL    HW1  130   8.972   0.213   7.861
99411SOL    HW2  131   8.881   0.165   7.972
99412SOL     OW  132  13.184   9.615  12.863
99412SOL    HW1  133  13.094   9.604  12.832
99412SOL    HW2  134  13.174   9.657  12.948
99413SOL     OW  135   8.967   3.787   5.838
99413SOL    HW1  136   8.892   3.806   5.894
99413SOL    HW2  137   9.043   3.793   5.896
99414SOL     OW  138   9.188   3.727   3.479
99414SOL    HW1  139   9.253   3.722   3.549
99414SOL    HW2  140   9.191   3.642   3.437
99415SOL     OW  141  11.854   5.066   1.804
99415SOL    HW1  142  11.881   4.988   1.853
99415SOL    HW2  143  11.791   5.110   1.862
99416SOL     OW  144  11.536   2.461  13.572
99416SOL    HW1  145  11.463   2.401  13.558
99416SOL    HW2  146  11.588   2.454  13.492
99417SOL     OW  147   2.660   8.981   6.701
99417SOL    HW1  148   2.583   8.947   6.656
99417SOL    HW2  149   2.680   8.915   6.767
99418SOL     OW  150  11.992   0.262   8.776
99418SOL    HW1  151  11.916   0.280   8.720
99418SOL    HW2  152  12.013   0.347   8.815
99419SOL     OW  153   0.978  12.575  12.901
99419SOL    HW1  154   0.958  12.626  12.823
99419SOL    HW2  155   0.894  12.537  12.927
99420SOL     OW  156   1.795   1.034   6.540
99420SOL    HW1  157   1.868   1.018   6.600
99420SOL    HW2  158   1.837   1.062   6.459
99421SOL     OW  159  10.191   9.680   7.492
99421SOL    HW1  160  10.153   9.625   7.422
99421SOL    HW2  161  10.223   9.757   7.446
99422SOL     OW  162   7.900  12.108   2.135
99422SOL    HW1  163   7.985  12.146   2.111
99422SOL    HW2  164   7.914  12.075   2.224
99423SOL     OW  165   1.099   1.657   0.534
99423SOL    HW1  166   1.034   1.605   0.582
99423SOL    HW2  167   1.080   1.748   0.559
99424SOL     OW  168   8.312   4.680  12.680
99424SOL    HW1  169   8.378   4.611  12.674
99424SOL    HW2  170   8.349   4.742  12.744
99425SOL     OW  171   2.483   4.229   3.557
99425SOL    HW1  172   2.564   4.273   3.531
99425SOL    HW2  173   2.418   4.298   3.558
99426SOL     OW  174  14.536   1.010   1.965
99426SOL    HW1  175  14.530   0.933   1.908
99426SOL    HW2  176  14.544   1.084   1.905
99427SOL     OW  177  10.734  12.083  14.187
99427SOL    HW1  178  10.780  12.052  14.265
99427SOL    HW2  179  10.686  12.160  14.217
99428SOL     OW  180  11.995   0.814   4.293
99428SOL    HW1  181  11.929   0.857   4.237
99428SOL    HW2  182  11.973   0.842   4.382
99429SOL     OW  183   2.680   0.786  12.212
99429SOL    HW1  184   2.723   0.700  12.212
99429SOL    HW2  185   2.589   0.767  12.187
99430SOL     OW  186   7.472  10.890   3.858
99430SOL    HW1  187   7.460  10.846   3.942
99430SOL    HW2  188   7.390  10.875   3.811
99431SOL     OW  189   5.837  14.042   0.687
99431SOL    HW1  190   5.819  14.133   0.661
99431SOL    HW2  191   5.828  14.042   0.783
99432SOL     OW  192  14.519   6.790   1.113
99432SOL    HW1  193  14.555   6.844   1.042
99432SOL    HW2  194  14.560   6.704   1.101
99433SOL     OW  195   5.681   2.509   2.857
99433SOL    HW1  196   5.704   2.419   2.833
99433SOL    HW2  197   5.733   2.564   2.799
99434SOL     OW  198   5.049   4.842  12.063
99434SOL    HW1  199   4.954   4.844  12.072
99434SOL    HW2  200   5.073   4.933  12.045
99435SOL     OW  201  13.279   2.625   1.113
99435SOL    HW1  202  13.273   2.530   1.099
99435SOL    HW2  203  13.198   2.647   1.160
99436SOL     OW  204   0.417   4.892   5.970
99436SOL    HW1  205   0.381   4.838   5.900
99436SOL    HW2  206   0.511   4.873   5.969
99437SOL     OW  207   6.622  12.599  13.393
99437SOL    HW1  208   6.530  12.575  13.379
99437SOL    HW2  209   6.671  12.522  13.364
99438SOL     OW  210  12.274   0.387   2.548
99438SOL    HW1  211  12.319   0.333   2.613
99438SOL    HW2  212  12.295   0.477   2.573
99439SOL     OW  213   9.077  11.341  10.162
99439SOL    HW1  214   9.089  11.418  10.106
99439SOL    HW2  215   8.994  11.357  10.207
99440SOL     OW  216   3.273   1.019  13.993
99440SOL    HW1  217   3.320   1.046  13.915
99440SOL    HW2  218   3.307   1.075  14.063
99441SOL     OW  219  14.259  10.933  10.372
99441SOL    HW1  220  14.185  10.990  10.394
99441SOL    HW2  221  14.316  10.938  10.449
99442SOL     OW  222   9.214   2.036   5.158
99442SOL    HW1  223   9.122   2.062   5.155
99442SOL    HW2  224   9.214   1.946   5.123
99443SOL     OW  225  11.992  12.708  13.644
99443SOL    HW1  226  11.951  12.682  13.726
99443SOL    HW2  227  11.965  12.799  13.631
99444SOL     OW  228  13.987   8.560   2.743
99444SOL    HW1  229  14.057   8.497   2.758
99444SOL    HW2  230  13.906   8.509   2.748
99445SOL     OW  231   2.026   5.944  14.010
99445SOL    HW1  232   1.931   5.936  14.002
99445SOL    HW2  233   2.042   6.038  14.019
99446SOL     OW  234  13.225  12.232  10.726
99446SOL    HW1  235  13.184  12.163  10.674
99446SOL    HW2  236  13.231  12.195  10.814
99447SOL     OW  237   6.291  13.578   3.738
99447SOL    HW1  238   6.316  13.669   3.747
99447SOL    HW2  239   6.246  13.557   3.821
99448SOL     OW  240   1.287   2.094  12.732
99448SOL    HW1  241   1.219   2.141  12.683
99448SOL    HW2  242   1.290   2.008  12.690
99449SOL     OW  243   3.296   0.696   1.168
99449SOL    HW1  244   3.228   0.637   1.135
99449SOL    HW2  245   3.329   0.653   1.247
99450SOL     OW  246   9.933  14.512   2.120
99450SOL    HW1  247   9.928  14.427   2.163
99450SOL    HW2  248   9.927  14.491   2.027
99451SOL     OW  249   5.576   2.160  11.577
99451SOL    HW1  250   5.611   2.077  11.546
99451SOL    HW2  251   5.624   2.227  11.528
99452SOL     OW  252   7.546  14.705  13.955
99452SOL    HW1  253   7.610  14.749  13.898
99452SOL    HW2  254   7.468  14.695  13.901
99453SOL     OW  255  10.359   6.877   7.548
99453SOL    HW1  256  10.304   6.831   7.485
99453SOL    HW2  257  10.440   6.826   7.551
99454SOL     OW  258   1.577   8.499  13.494
99454SOL    HW1  259   1.568   8.585  13.535
99454SOL    HW2  260   1.560   8.437  13.565
99455SOL     OW  261   3.348   2.133   1.551
99455SOL    HW1  262   3.356   2.054   1.605
99455SOL    HW2  263   3.424   2.186   1.574
99456SOL     OW  264   7.392   0.061   2.003
99456SOL    HW1  265   7.407  14.848   2.022
99456SOL    HW2  266   7.299   0.074   2.018
99457SOL     OW  267  10.906   4.978   7.129
99457SOL    HW1  268  10.974   5.044   7.116
99457SOL    HW2  269  10.949   4.909   7.181
99458SOL     OW  270   2.310   8.482  10.002
99458SOL    HW1  271   2.347   8.395   9.986
99458SOL    HW2  272   2.378   8.528  10.050
99459SOL     OW  273   2.379   3.990   1.724
99459SOL    HW1  274   2.401   3.989   1.817
99459SOL    HW2  275   2.325   4.069   1.713
99460SOL     OW  276  12.829  12.345   6.417
99460SOL    HW1  277  12.869  12.430   6.402
99460SOL    HW2  278  12.890  12.282   6.377
99461SOL     OW  279   1.715   7.746   9.680
99461SOL    HW1  280   1.631   7.741   9.633
99461SOL    HW2  281   1.727   7.839   9.699
99462SOL     OW  282   2.819   5.767   0.178
99462SOL    HW1  283   2.844   5.678   0.201
99462SOL    HW2  284   2.881   5.822   0.226
99463SOL     OW  285   5.797  14.852   3.398
99463SOL    HW1  286   5.797  14.871   3.492
99463SOL    HW2  287   5.849   0.043   3.359
99464SOL     OW  288   1.125  10.756   5.332
99464SOL    HW1  289   1.042  10.710   5.344
99464SOL    HW2  290   1.100  10.844   5.303
99465SOL     OW  291  12.687  10.412   9.245
99465SOL    HW1  292  12.669  10.319   9.229
99465SOL    HW2  293  12.677  10.422   9.340
99466SOL     OW  294   6.838   2.580   5.403
99466SOL    HW1  295   6.805   2.530   5.478
99466SOL    HW2  296   6.816   2.526   5.327
99467SOL     OW  297   7.082   5.508  11.385
99467SOL    HW1  298   7.092   5.463  11.469
99467SOL    HW2  299   7.169   5.539  11.364
99468SOL     OW  300  11.104  11.920   7.559
99468SOL    HW1  301  11.018  11.961   7.570
99468SOL    HW2  302  11.153  11.981   7.505
99469SOL     OW  303   1.747  11.555   0.592
99469SOL    HW1  304   1.787  11.621   0.536
99469SOL    HW2  305   1.817  11.529   0.652
99470SOL     OW  306   0.952  10.092   3.484
99470SOL    HW1  307   0.863  10.128   3.478
99470SOL    HW2  308   0.950  10.039   3.563
99471SOL     OW  309  10.167   6.087   7.838
99471SOL    HW1  310  10.195   6.040   7.916
99471SOL    HW2  311  10.171   6.179   7.862
99472SOL     OW  312   2.034   9.225  12.684
99472SOL    HW1  313   2.004   9.144  12.644
99472SOL    HW2  314   2.066   9.199  12.770
99473SOL     OW  315   6.627  14.535   3.987
99473SOL    HW1  316   6.643  14.478   4.062
99473SOL    HW2  317   6.712  14.540   3.943
99474SOL     OW  318   4.258   5.379   8.379
99474SOL    HW1  319   4.177   5.336   8.407
99474SOL    HW2  320   4.274   5.446   8.445
99475SOL     OW  321   4.045  10.540  10.474
99475SOL    HW1  322   4.103  10.536  10.398
99475SOL    HW2  323   4.035  10.449  10.501
99476SOL     OW  324   5.050  14.664  10.780
99476SOL    HW1  325   4.973  14.612  10.758
99476SOL    HW2  326   5.049  14.736  10.717
99477SOL     OW  327   6.634   8.489   5.169
99477SOL    HW1  328   6.621   8.582   5.186
99477SOL    HW2  329   6.577   8.445   5.232
99478SOL     OW  330   2.223  12.417  10.688
99478SOL    HW1  331   2.250  12.450  10.602
99478SOL    HW2  332   2.278  12.464  10.751
99479SOL     OW  333  11.604   4.301  14.447
99479SOL    HW1  334  11.532   4.357  14.420
99479SOL    HW2  335  11.568   4.248  14.518
99480SOL     OW  336  10.824   1.660  12.693
99480SOL    HW1  337  10.765   1.622  12.627
99480SOL    HW2  338  10.908   1.615  12.678
99481SOL     OW  339   4.464   3.163   2.669
99481SOL    HW1  340   4.416   3.083   2.693
99481SOL    HW2  341   4.432   3.229   2.730
99482SOL     OW  342  14.462   4.081   2.677
99482SOL    HW1  343  14.557   4.079   2.666
99482SOL    HW2  344  14.448   4.039   2.762
99483SOL     OW  345   1.477  12.360   6.187
99483SOL    HW1  346   1.572  12.347   6.181
99483SOL    HW2  347   1.456  12.420   6.116
99484SOL     OW  348  14.224   2.097  12.756
99484SOL    HW1  349  14.136   2.110  12.721
99484SOL    HW2  350  14.212   2.103  12.851
99485SOL     OW  351   7.016   6.337  11.938
99485SOL    HW1  352   6.961   6.392  11.882
99485SOL    HW2  353   6.974   6.251  11.936
99486SOL     OW  354   8.249  12.711   6.877
99486SOL    HW1  355   8.191  12.764   6.932
99486SOL    HW2  356   8.317  12.679   6.936
99487SOL     OW  357   1.060   0.709   9.755
99487SOL    HW1  358   1.115   0.711   9.677
99487SOL    HW2  359   1.043   0.802   9.775
99488SOL     OW  360   3.748  12.185  13.805
99488SOL    HW1  361   3.826  12.181  13.749
99488SOL    HW2  362   3.774  12.243  13.877
99489SOL     OW  363   3.481  13.921   5.115
99489SOL    HW1  364   3.414  13.987   5.135
99489SOL    HW2  365   3.557  13.947   5.167
99490SOL     OW  366   6.055  10.104   6.515
99490SOL    HW1  367   6.076  10.021   6.471
99490SOL    HW2  368   6.052  10.081   6.608
99491SOL     OW  369   3.704   4.772   4.195
99491SOL    HW1  370   3.731   4.681   4.206
99491SOL    HW2  371   3.752   4.802   4.117
99492SOL     OW  372  14.108  14.099  13.202
99492SOL    HW1  373  14.123  14.193  13.190
99492SOL    HW2  374  14.189  14.066  13.240
99493SOL     OW  375   2.247  11.190   8.331
99493SOL    HW1  376   2.283  11.235   8.255
99493SOL    HW2  377   2.271  11.246   8.405
99494SOL     OW  378   9.819  14.212   8.644
99494SOL    HW1  379   9.762  14.146   8.683
99494SOL    HW2  380   9.873  14.243   8.716
99495SOL     OW  381   8.732   7.823   9.773
99495SOL    HW1  382   8.672   7.885   9.730
99495SOL    HW2  383   8.676   7.777   9.835
99496SOL     OW  384   9.240   1.883   8.002
99496SOL    HW1  385   9.318   1.883   7.947
99496SOL    HW2  386   9.273   1.889   8.091
99497SOL     OW  387  13.935  11.111   7.646
99497SOL    HW1  388  13.923  11.052   7.721
99497SOL    HW2  389  13.952  11.052   7.573
99498SOL     OW  390   7.179  14.691   9.113
99498SOL    HW1  391   7.169  14.754   9.041
99498SOL    HW2  392   7.090  14.680   9.147
99499SOL     OW  393   9.334   6.876   0.279
99499SOL    HW1  394   9.265   6.896   0.217
99499SOL    HW2  395   9.400   6.828   0.229
99500SOL     OW  396   7.771   7.954   2.973
99500SOL    HW1  397   7.788   7.969   3.067
99500SOL    HW2  398   7.684   7.991   2.959
99501SOL     OW  399  14.047   0.655   8.589
99501SOL    HW1  400  13.958   0.623   8.603
99501SOL    HW2  401  14.102   0.596   8.640
99502SOL     OW  402   4.487   4.569  12.848
99502SOL    HW1  403   4.474   4.658  12.815
99502SOL    HW2  404   4.498   4.580  12.943
99503SOL     OW  405   8.696   1.229   2.896
99503SOL    HW1  406   8.739   1.314   2.894
99503SOL    HW2  407   8.746   1.178   2.960
99504SOL     OW  408   2.800   6.347   0.658
99504SOL    HW1  409   2.818   6.280   0.724
99504SOL    HW2  410   2.787   6.298   0.577
99505SOL     OW  411   2.580   8.123   2.977
99505SOL    HW1  412   2.512   8.076   3.026
99505SOL    HW2  413   2.536   8.200   2.942
99506SOL     OW  414   1.886  12.193   6.920
99506SOL    HW1  415   1.841  12.253   6.860
99506SOL    HW2  416   1.924  12.250   6.987
99507SOL     OW  417   9.050   5.862  13.801
99507SOL    HW1  418   9.003   5.923  13.858
99507SOL    HW2  419   9.133   5.847  13.846
99508SOL     OW  420   8.788   2.423   8.870
99508SOL    HW1  421   8.758   2.470   8.948
99508SOL    HW2  422   8.843   2.352   8.905
99509SOL     OW  423  13.632   4.765  12.888
99509SOL    HW1  424  13.623   4.679  12.848
99509SOL    HW2  425  13.557   4.814  12.857
99510SOL     OW  426   6.670   7.311  13.331
99510SOL    HW1  427   6.692   7.248  13.263
99510SOL    HW2  428   6.619   7.379  13.287
99511SOL     OW  429   8.989  12.953   8.901
99511SOL    HW1  430   8.923  12.933   8.968
99511SOL    HW2  431   9.059  12.999   8.949
99512SOL     OW  432   6.529  12.306  14.464
99512SOL    HW1  433   6.522  12.236  14.529
99512SOL    HW2  434   6.472  12.375  14.498
99513SOL     OW  435  11.947  14.437   3.155
99513SOL    HW1  436  11.877  14.499   3.137
99513SOL    HW2  437  12.001  14.481   3.221
99514SOL     OW  438   1.498   2.134  10.609
99514SOL    HW1  439   1.584   2.172  10.625
99514SOL    HW2  440   1.514   2.067  10.543
99515SOL     OW  441  11.411   9.769   4.385
99515SOL    HW1  442  11.379   9.738   4.470
99515SOL    HW2  443  11.368   9.854   4.373
99516SOL     OW  444   3.520  11.653  12.025
99516SOL    HW1  445   3.543  11.592  11.955
99516SOL    HW2  446   3.566  11.734  12.002
99517SOL     OW  447  12.659   6.136   2.602
99517SOL    HW1  448  12.624   6.087   2.677
99517SOL    HW2  449  12.754   6.131   2.613
99518SOL     OW  450  14.430  10.847   6.846
99518SOL    HW1  451  14.396  10.921   6.796
99518SOL    HW2  452  14.514  10.877   6.880
99519SOL     OW  453   9.427  10.658   4.583
99519SOL    HW1  454   9.425  10.627   4.493
99519SOL    HW2  455   9.460  10.583   4.633
99520SOL     OW  456   6.788   3.791   0.483
99520SOL    HW1  457   6.820   3.720   0.538
99520SOL    HW2  458   6.747   3.852   0.545
99521SOL     OW  459  13.828  13.408   3.945
99521SOL    HW1  460  13.829  13.341   4.014
99521SOL    HW2  461  13.919  13.435   3.936
99522SOL     OW  462  10.415   8.587   5.860
99522SOL    HW1  463  10.402   8.543   5.776
99522SOL    HW2  464  10.373   8.673   5.848
99523SOL     OW  465  12.969   8.236   1.577
99523SOL    HW1  466  12.966   8.204   1.487
99523SOL    HW2  467  12.889   8.202   1.617
99524SOL     OW  468   0.943  13.620   0.238
99524SOL    HW1  469   0.919  13.538   0.194
99524SOL    HW2  470   0.896  13.688   0.190
99525SOL     OW  471   0.763  11.092   5.950
99525SOL    HW1  472   0.808  11.096   5.866
99525SOL    HW2  473   0.679  11.135   5.934
99526SOL     OW  474   9.716   6.179  13.243
99526SOL    HW1  475   9.787   6.126  13.209
99526SOL    HW2  476   9.729   6.180  13.337
99527SOL     OW  477   5.827   5.975  14.110
99527SOL    HW1  478   5.792   6.040  14.049
99527SOL    HW2  479   5.890   5.925  14.059
99528SOL     OW  480  14.815   2.254   4.436
99528SOL    HW1  481  14.733   2.214   4.407
99528SOL    HW2  482  14.817   2.339   4.391
99529SOL     OW  483   4.024   6.879   9.914
99529SOL    HW1  484   4.004   6.941   9.984
99529SOL    HW2  485   4.084   6.816   9.954
99530SOL     OW  486  12.162   7.105  10.878
99530SOL    HW1  487  12.243   7.120  10.927
99530SOL    HW2  488  12.104   7.178  10.904
99531SOL     OW  489   7.064   5.458  11.672
99531SOL    HW1  490   7.109   5.384  11.712
99531SOL    HW2  491   7.108   5.535  11.708
99532SOL     OW  492   4.634   3.866   9.009
99532SOL    HW1  493   4.552   3.912   9.026
99532SOL    HW2  494   4.637   3.796   9.074
99533SOL     OW  495   2.947  13.323   9.068
99533SOL    HW1  496   3.031  13.310   9.111
99533SOL    HW2  497   2.920  13.411   9.092
99534SOL     OW  498  12.422  13.553   3.363
99534SOL    HW1  499  12.377  13.541   3.280
99534SOL    HW2  500  12.389  13.481   3.418
99535SOL     OW  501  11.898  13.901  12.433
99535SOL    HW1  502  11.948  13.978  12.458
99535SOL    HW2  503  11.917  13.836  12.501
99536SOL     OW  504   1.551   4.179   3.539
99536SOL    HW1  505   1.572   4.102   3.591
99536SOL    HW2  506   1.484   4.226   3.590
99537SOL     OW  507   1.505   7.967  10.917
99537SOL    HW1  508   1.458   8.017  10.985
99537SOL    HW2  509   1.436   7.928  10.864
99538SOL     OW  510  13.202  10.877  10.902
99538SOL    HW1  511  13.269  10.880  10.970
99538SOL    HW2  512  13.247  10.844  10.825
99539SOL     OW  513   3.210   8.102   7.321
99539SOL    HW1  514   3.245   8.190   7.308
99539SOL    HW2  515   3.161   8.106   7.403
99540SOL     OW  516   0.089   4.551   8.325
99540SOL    HW1  517   0.104   4.506   8.242
99540SOL    HW2  518   0.011   4.605   8.309
99541SOL     OW  519   9.068   7.459   6.813
99541SOL    HW1  520   9.154   7.499   6.827
99541SOL    HW2  521   9.087   7.374   6.775
99542SOL     OW  522   6.214   4.546  14.700
99542SOL    HW1  523   6.217   4.634  14.663
99542SOL    HW2  524   6.299   4.534  14.741
99543SOL     OW  525   8.474   4.053   7.729
99543SOL    HW1  526   8.558   4.098   7.733
99543SOL    HW2  527   8.413   4.120   7.699
99544SOL     OW  528   9.113   6.777   0.441
99544SOL    HW1  529   9.086   6.846   0.503
99544SOL    HW2  530   9.203   6.800   0.418
99545SOL     OW  531  10.623   9.297   6.734
99545SOL    HW1  532  10.569   9.229   6.694
99545SOL    HW2  533  10.598   9.378   6.689
99546SOL     OW  534   7.243   5.667   1.182
99546SOL    HW1  535   7.166   5.641   1.131
99546SOL    HW2  536   7.225   5.635   1.270
99547SOL     OW  537   3.965  10.355   2.569
99547SOL    HW1  538   3.933  10.265   2.565
99547SOL    HW2  539   3.928  10.397   2.492
99548SOL     OW  540   9.406   1.281   8.692
99548SOL    HW1  541   9.434   1.239   8.773
99548SOL    HW2  542   9.317   1.248   8.677
99549SOL     OW  543   4.959  13.240   1.295
99549SOL    HW1  544   4.954  13.328   1.258
99549SOL    HW2  545   5.010  13.250   1.375
99550SOL     OW  546   9.905   7.554   2.253
99550SOL    HW1  547   9.942   7.609   2.323
99550SOL    HW2  548   9.811   7.573   2.256
99551SOL     OW  549  10.618   0.336   4.770
99551SOL    HW1  550  10.594   0.311   4.859
99551SOL    HW2  551  10.691   0.398   4.782
99552SOL     OW  552   1.263   7.765   5.806
99552SOL    HW1  553   1.197   7.729   5.747
99552SOL    HW2  554   1.344   7.719   5.784
99553SOL     OW  555   5.732  10.037  13.828
99553SOL    HW1  556   5.775   9.954  13.804
99553SOL    HW2  557   5.780  10.067  13.905
99554SOL     OW  558   9.307   4.592   6.379
99554SOL    HW1  559   9.274   4.669   6.426
99554SOL    HW2  560   9.352   4.629   6.303
99555SOL     OW  561   8.034   5.030   2.721
99555SOL    HW1  562   8.127   5.007   2.722
99555SOL    HW2  563   7.989   4.946   2.729
99556SOL     OW  564  14.295  12.346   4.041
99556SOL    HW1  565  14.210  12.324   4.079
99556SOL    HW2  566  14.283  12.432   4.002
99557SOL     OW  567   5.067   4.675   4.853
99557SOL    HW1  568   5.093   4.710   4.768
99557SOL    HW2  569   5.017   4.745   4.894
99558SOL     OW  570  12.225   1.841  14.370
99558SOL    HW1  571  12.314   1.853  14.402
99558SOL    HW2  572  12.186   1.928  14.374
99559SOL     OW  573   2.505   6.309  13.496
99559SOL    HW1  574   2.508   6.404  13.482
99559SOL    HW2  575   2.455   6.297  13.576
99560SOL     OW  576  12.500   3.358   9.809
99560SOL    HW1  577  12.523   3.274   9.848
99560SOL    HW2  578  12.547   3.360   9.726
99561SOL     OW  579   0.948   2.639  10.503
99561SOL    HW1  580   0.864   2.614  10.541
99561SOL    HW2  581   0.992   2.690  10.571
99562SOL     OW  582   7.996  14.382  11.213
99562SOL    HW1  583   8.032  14.428  11.137
99562SOL    HW2  584   7.915  14.429  11.234
99563SOL     OW  585   7.572  12.490  14.537
99563SOL    HW1  586   7.628  12.461  14.609
99563SOL    HW2  587   7.488  12.509  14.577
99564SOL     OW  588   7.327   5.887   2.214
99564SOL    HW1  589   7.415   5.917   2.194
99564SOL    HW2  590   7.339   5.808   2.267
99565SOL     OW  591  11.475  10.174   9.696
99565SOL    HW1  592  11.550  10.194   9.752
99565SOL    HW2  593  11.474  10.078   9.691
99566SOL     OW  594   4.479   9.703   5.848
99566SOL    HW1  595   4.440   9.758   5.915
99566SOL    HW2  596   4.537   9.762   5.799
99567SOL     OW  597   8.399   2.911   6.070
99567SOL    HW1  598   8.410   3.002   6.043
99567SOL    HW2  599   8.311   2.906   6.107
99568SOL     OW  600  14.034   8.098   4.561
99568SOL    HW1  601  14.091   8.144   4.499
99568SOL    HW2  602  14.040   8.149   4.642
99569SOL     OW  603   5.184  11.194  11.736
99569SOL    HW1  604   5.126  11.269  11.748
99569SOL    HW2  605   5.271  11.227  11.759
99570SOL     OW  606   9.932   5.790   6.527
99570SOL    HW1  607   9.968   5.831   6.606
99570SOL    HW2  608   9.953   5.697   6.537
99571SOL     OW  609  10.479  12.997   7.818
99571SOL    HW1  610  10.543  13.044   7.765
99571SOL    HW2  611  10.416  12.963   7.755
99572SOL     OW  612  14.024  11.175   3.147
99572SOL    HW1  613  14.094  11.224   3.190
99572SOL    HW2  614  13.951  11.238   3.142
99573SOL     OW  615   5.051  11.370  12.508
99573SOL    HW1  616   5.121  11.344  12.449
99573SOL    HW2  617   5.094  11.381  12.593
99574SOL     OW  618  12.710   1.538   4.080
99574SOL    HW1  619  12.714   1.443   4.073
99574SOL    HW2  620  12.665   1.554   4.162
99575SOL     OW  621   7.162   1.548   6.028
99575SOL    HW1  622   7.209   1.478   6.074
99575SOL    HW2  623   7.180   1.531   5.935
99576SOL     OW  624   3.833  10.915   4.702
99576SOL    HW1  625   3.872  10.996   4.733
99576SOL    HW2  626   3.833  10.857   4.779
99577SOL     OW  627   8.654   6.688   1.166
99577SOL    HW1  628   8.660   6.765   1.109
99577SOL    HW2  629   8.579   6.706   1.222
99578SOL     OW  630   4.110  10.390   9.641
99578SOL    HW1  631   4.157  10.467   9.671
99578SOL    HW2  632   4.037  10.380   9.702
99579SOL     OW  633  14.481   7.749   1.936
99579SOL    HW1  634  14.454   7.679   1.878
99579SOL    HW2  635  14.399   7.780   1.976
99580SOL     OW  636  14.088  14.494   5.886
99580SOL    HW1  637  14.077  14.429   5.817
99580SOL    HW2  638  14.047  14.455   5.963
99581SOL     OW  639  11.712   1.326   7.558
99581SOL    HW1  640  11.618   1.328   7.577
99581SOL    HW2  641  11.727   1.404   7.506
99582SOL     OW  642   7.409   9.358  10.790
99582SOL    HW1  643   7.375   9.413  10.861
99582SOL    HW2  644   7.477   9.304  10.832
99583SOL     OW  645   8.121   2.533  10.518
99583SOL    HW1  646   8.096   2.442  10.501
99583SOL    HW2  647   8.213   2.529  10.543
99584SOL     OW  648   6.788   6.495   2.960
99584SOL    HW1  649   6.807   6.454   3.045
99584SOL    HW2  650   6.810   6.588   2.974
99585SOL     OW  651   7.633  10.131   5.895
99585SOL    HW1  652   7.653  10.170   5.980
99585SOL    HW2  653   7.703  10.162   5.837
99586SOL     OW  654  13.652   4.759   7.548
99586SOL    HW1  655  13.586   4.816   7.587
99586SOL    HW2  656  13.720   4.752   7.616
99587SOL     OW  657  12.207  14.765   3.457
99587SOL    HW1  658  12.264  14.750   3.532
99587SOL    HW2  659  12.186  14.677   3.425
99588SOL     OW  660   3.462   3.937   9.562
99588SOL    HW1  661   3.428   4.007   9.507
99588SOL    HW2  662   3.481   3.866   9.501
99589SOL     OW  663  12.750  12.769   1.235
99589SOL    HW1  664  12.753  12.674   1.243
99589SOL    HW2  665  12.741  12.800   1.325
99590SOL     OW  666   2.926   8.659   1.660
99590SOL    HW1  667   2.917   8.582   1.604
99590SOL    HW2  668   2.938   8.624   1.748
99591SOL     OW  669  12.917  14.370   1.350
99591SOL    HW1  670  12.923  14.284   1.392
99591SOL    HW2  671  12.824  14.389   1.345
99592SOL     OW  672   0.775   4.654   2.899
99592SOL    HW1  673   0.763   4.740   2.939
99592SOL    HW2  674   0.752   4.668   2.807
99593SOL     OW  675  11.832   8.131   3.238
99593SOL    HW1  676  11.920   8.166   3.226
99593SOL    HW2  677  11.845   8.043   3.272
99594SOL     OW  678   9.636   1.312  11.858
99594SOL    HW1  679   9.681   1.300  11.774
99594SOL    HW2  680   9.658   1.234  11.909
99595SOL     OW  681  12.432  10.218   3.650
99595SOL    HW1  682  12.472  10.301   3.677
99595SOL    HW2  683  12.351  10.213   3.701
99596SOL     OW  684   9.802   3.623   9.682
99596SOL    HW1  685   9.735   3.685   9.654
99596SOL    HW2  686   9.798   3.553   9.617
99597SOL     OW  687  13.139  11.807   2.974
99597SOL    HW1  688  13.113  11.806   2.882
99597SOL    HW2  689  13.144  11.900   2.997
99598SOL     OW  690   5.637   8.438   7.770
99598SOL    HW1  691   5.712   8.379   7.775
99598SOL    HW2  692   5.586   8.418   7.848
99599SOL     OW  693   4.842   7.426   8.816
99599SOL    HW1  694   4.760   7.398   8.858
99599SOL    HW2  695   4.815   7.457   8.729
99600SOL     OW  696   7.635   5.726   7.046
99600SOL    HW1  697   7.606   5.811   7.012
99600SOL    HW2  698   7.703   5.749   7.110
99601SOL     OW  699   2.452   5.420   2.802
99601SOL    HW1  700   2.537   5.377   2.803
99601SOL    HW2  701   2.470   5.509   2.771
99602SOL     OW  702   6.966  14.149   4.111
99602SOL    HW1  703   6.912  14.211   4.061
99602SOL    HW2  704   6.966  14.069   4.058
99603SOL     OW  705  10.380   7.284  10.632
99603SOL    HW1  706  10.360   7.194  10.660
99603SOL    HW2  707  10.321   7.339  10.684
99604SOL     OW  708   7.871   7.166  13.405
99604SOL    HW1  709   7.886   7.077  13.437
99604SOL    HW2  710   7.884   7.161  13.311
99605SOL     OW  711  10.955   7.541   9.549
99605SOL    HW1  712  10.970   7.628   9.513
99605SOL    HW2  713  10.873   7.512   9.508
99606SOL     OW  714   0.824   4.075  11.654
99606SOL    HW1  715   0.889   4.123  11.705
99606SOL    HW2  716   0.875   4.024  11.591
99607SOL     OW  717   5.418  12.593   9.277
99607SOL    HW1  718   5.439  12.566   9.367
99607SOL    HW2  719   5.322  12.601   9.276
99608SOL     OW  720   7.655   5.777   7.482
99608SOL    HW1  721   7.705   5.781   7.564
99608SOL    HW2  722   7.578   5.832   7.499
99609SOL     OW  723   4.026  14.040   7.984
99609SOL    HW1  724   4.014  14.018   8.076
99609SOL    HW2  725   4.111  14.001   7.961
99610SOL     OW  726   6.605   3.814  14.586
99610SOL    HW1  727   6.692   3.801  14.549
99610SOL    HW2  728   6.575   3.897  14.549
99611SOL     OW  729   4.446   3.588   3.524
99611SOL    HW1  730   4.363   3.630   3.548
99611SOL    HW2  731   4.453   3.513   3.583
99612SOL     OW  732  10.819  12.466   6.330
99612SOL    HW1  733  10.765  12.389   6.344
99612SOL    HW2  734  10.812  12.485   6.237
99613SOL     OW  735   3.127   7.193  14.336
99613SOL    HW1  736   3.036   7.202  14.364
99613SOL    HW2  737   3.123   7.195  14.240
99614SOL     OW  738  13.480   8.981   1.797
99614SOL    HW1  739  13.488   8.927   1.719
99614SOL    HW2  740  13.518   8.929   1.867
99615SOL     OW  741  11.053   3.570  14.145
99615SOL    HW1  742  11.133   3.599  14.188
99615SOL    HW2  743  11.064   3.475  14.136
99616SOL     OW  744   0.310  10.606  13.512
99616SOL    HW1  745   0.336  10.514  13.508
99616SOL    HW2  746   0.284  10.628  13.422
99617SOL     OW  747   4.109   2.537   6.753
99617SOL    HW1  748   4.062   2.563   6.833
99617SOL    HW2  749   4.152   2.455   6.777
99618SOL     OW  750   9.421   3.162   7.313
99618SOL    HW1  751   9.487   3.141   7.247
99618SOL    HW2  752   9.354   3.211   7.264
99619SOL     OW  753   9.266   0.868   7.864
99619SOL    HW1  754   9.296   0.835   7.779
99619SOL    HW2  755   9.256   0.790   7.918
99620SOL     OW  756   2.160   8.672  14.131
99620SOL    HW1  757   2.202   8.588  14.115
99620SOL    HW2  758   2.226   8.737  14.105
99621SOL     OW  759  14.677  14.235   4.887
99621SOL    HW1  760  14.661  14.234   4.793
99621SOL    HW2  761  14.690  14.328   4.908
99622SOL     OW  762   5.968  10.156  12.179
99622SOL    HW1  763   5.938  10.245  12.201
99622SOL    HW2  764   5.988  10.115  12.263
99623SOL     OW  765   1.820   7.088   9.479
99623SOL    HW1  766   1.786   7.170   9.444
99623SOL    HW2  767   1.743   7.034   9.495
99624SOL     OW  768   1.357  12.467   9.649
99624SOL    HW1  769   1.368  12.551   9.605
99624SOL    HW2  770   1.438  12.420   9.630
99625SOL     OW  771   5.586  13.270   1.407
99625SOL    HW1  772   5.645  13.196   1.420
99625SOL    HW2  773   5.515  13.236   1.352
99626SOL     OW  774   2.888   7.083  12.235
99626SOL    HW1  775   2.915   7.023  12.165
99626SOL    HW2  776   2.952   7.153  12.233
99627SOL     OW  777   0.151   0.728   5.618
99627SOL    HW1  778   0.125   0.738   5.526
99627SOL    HW2  779   0.112   0.803   5.663
99628SOL     OW  780  12.312   7.937   4.508
99628SOL    HW1  781  12.248   7.974   4.447
99628SOL    HW2  782  12.379   8.005   4.517
99629SOL     OW  783   5.321   2.989  12.046
99629SOL    HW1  784   5.319   2.896  12.025
99629SOL    HW2  785   5.230   3.018  12.037
99630SOL     OW  786   5.837  10.940  14.410
99630SOL    HW1  787   5.760  10.948  14.466
99630SOL    HW2  788   5.888  11.018  14.429
99631SOL     OW  789   3.177   8.448  13.044
99631SOL    HW1  790   3.254   8.501  13.064
99631SOL    HW2  791   3.180   8.438  12.948
99632SOL     OW  792   4.659   1.974  13.738
99632SOL    HW1  793   4.619   2.039  13.680
99632SOL    HW2  794   4.662   1.894  13.687
99633SOL     OW  795  10.485   7.675  10.820
99633SOL    HW1  796  10.511   7.680  10.912
99633SOL    HW2  797  10.487   7.766  10.790
99634SOL     OW  798   7.457  11.473  12.059
99634SOL    HW1  799   7.431  11.406  12.122
99634SOL    HW2  800   7.506  11.425  11.992
99635SOL     OW  801   0.503   3.980   6.237
99635SOL    HW1  802   0.549   3.896   6.242
99635SOL    HW2  803   0.509   4.005   6.145
99636SOL     OW  804  11.037   3.509  11.734
99636SOL    HW1  805  11.098   3.436  11.743
99636SOL    HW2  806  11.040   3.553  11.819
99637SOL     OW  807   8.518  14.213   0.618
99637SOL    HW1  808   8.501  14.197   0.525
99637SOL    HW2  809   8.431  14.218   0.657
99638SOL     OW  810   1.089  10.867  14.367
99638SOL    HW1  811   1.181  10.877  14.344
99638SOL    HW2  812   1.086  10.881  14.461
99639SOL     OW  813  14.351   2.435   5.417
99639SOL    HW1  814  14.390   2.373   5.478
99639SOL    HW2  815  14.280   2.387   5.375
99640SOL     OW  816   2.324   4.785   2.411
99640SOL    HW1  817   2.336   4.716   2.345
99640SOL    HW2  818   2.360   4.746   2.492
99641SOL     OW  819  14.320   6.440   2.816
99641SOL    HW1  820  14.254   6.483   2.761
99641SOL    HW2  821  14.311   6.347   2.796
99642SOL     OW  822   7.760   1.390  11.240
99642SOL    HW1  823   7.755   1.337  11.161
99642SOL    HW2  824   7.671   1.389  11.276
99643SOL     OW  825   7.782   6.785  11.958
99643SOL    HW1  826   7.807   6.775  11.867
99643SOL    HW2  827   7.844   6.731  12.006
99644SOL     OW  828   7.153  11.675   4.760
99644SOL    HW1  829   7.101  11.747   4.794
99644SOL    HW2  830   7.090  11.605   4.744
99645SOL     OW  831   4.566   3.176   3.583
99645SOL    HW1  832   4.497   3.226   3.541
99645SOL    HW2  833   4.631   3.242   3.610
99646SOL     OW  834   5.767   0.176   8.265
99646SOL    HW1  835   5.812   0.207   8.186
99646SOL    HW2  836   5.836   0.142   8.321
99647SOL     OW  837   4.002   5.986  12.576
99647SOL    HW1  838   3.963   6.072  12.557
99647SOL    HW2  839   4.096   6.000  12.565
99648SOL     OW  840  10.701  12.827  13.821
99648SOL    HW1  841  10.652  12.889  13.876
99648SOL    HW2  842  10.634  12.768  13.787
99649SOL     OW  843  14.571   0.715  13.629
99649SOL    HW1  844  14.604   0.644  13.574
99649SOL    HW2  845  14.636   0.724  13.699
99650SOL     OW  846   8.386  13.930  10.950
99650SOL    HW1  847   8.447  13.868  10.989
99650SOL    HW2  848   8.410  13.933  10.857
99651SOL     OW  849  12.396   5.772   6.440
99651SOL    HW1  850  12.383   5.693   6.494
99651SOL    HW2  851  12.347   5.754   6.360
99652SOL     OW  852   2.116   1.661   2.698
99652SOL    HW1  853   2.141   1.585   2.645
99652SOL    HW2  854   2.127   1.735   2.640
99653SOL     OW  855   5.126   2.636   8.614
99653SOL    HW1  856   5.059   2.568   8.611
99653SOL    HW2  857   5.115   2.677   8.700
99654SOL     OW  858  11.994   3.173   2.797
99654SOL    HW1  859  12.011   3.266   2.811
99654SOL    HW2  860  11.972   3.139   2.884
99655SOL     OW  861  11.819   6.568   3.602
99655SOL    HW1  862  11.737   6.612   3.578
99655SOL    HW2  863  11.880   6.640   3.618
99656SOL     OW  864  13.818  10.248   9.042
99656SOL    HW1  865  13.834  10.206   9.127
99656SOL    HW2  866  13.726  10.273   9.044
99657SOL     OW  867   4.550   7.881   6.204
99657SOL    HW1  868   4.640   7.899   6.230
99657SOL    HW2  869   4.556   7.851   6.113
99658SOL     OW  870  13.301   1.927   5.341
99658SOL    HW1  871  13.320   1.991   5.272
99658SOL    HW2  872  13.225   1.879   5.309
99659SOL     OW  873  13.089   3.586   2.138
99659SOL    HW1  874  13.137   3.528   2.196
99659SOL    HW2  875  13.001   3.546   2.132
99660SOL     OW  876  13.000   5.322   5.117
99660SOL    HW1  877  13.028   5.263   5.187
99660SOL    HW2  878  13.038   5.284   5.037
99661SOL     OW  879  12.874  11.462   5.750
99661SOL    HW1  880  12.815  11.498   5.684
99661SOL    HW2  881  12.855  11.511   5.830
99662SOL     OW  882  10.788  13.807   4.306
99662SOL    HW1  883  10.774  13.856   4.387
99662SOL    HW2  884  10.715  13.833   4.250
99663SOL     OW  885  14.597   0.816  12.405
99663SOL    HW1  886  14.592   0.805  12.310
99663SOL    HW2  887  14.512   0.785  12.437
99664SOL     OW  888   7.780   6.313   0.809
99664SOL    HW1  889   7.760   6.405   0.792
99664SOL    HW2  890   7.826   6.283   0.730
99665SOL     OW  891   1.020  11.467  12.023
99665SOL    HW1  892   0.945  11.518  11.993
99665SOL    HW2  893   1.096  11.510  11.983
99666SOL     OW  894   7.579   7.813  11.262
99666SOL    HW1  895   7.548   7.894  11.304
99666SOL    HW2  896   7.614   7.761  11.334
99667SOL     OW  897   6.213  10.281  12.727
99667SOL    HW1  898   6.174  10.346  12.785
99667SOL    HW2  899   6.154  10.206  12.732
99668SOL     OW  900   4.459   8.941   2.767
99668SOL    HW1  901   4.499   9.026   2.787
99668SOL    HW2  902   4.527   8.877   2.788
99669SOL     OW  903   7.797   8.631  10.961
99669SOL    HW1  904   7.868   8.620  10.897
99669SOL    HW2  905   7.820   8.711  11.008
99670SOL     OW  906   8.149   6.602   6.773
99670SOL    HW1  907   8.120   6.686   6.739
99670SOL    HW2  908   8.107   6.595   6.859
99671SOL     OW  909   4.064   7.505  10.445
99671SOL    HW1  910   4.002   7.441  10.410
99671SOL    HW2  911   4.108   7.541  10.368
99672SOL     OW  912   0.015   2.656   0.168
99672SOL    HW1  913   0.088   2.606   0.204
99672SOL    HW2  914   0.046   2.747   0.167
99673SOL     OW  915   7.916   8.963  13.418
99673SOL    HW1  916   7.992   8.907  13.404
99673SOL    HW2  917   7.926   9.034  13.354
99674SOL     OW  918   7.416  11.610   9.777
99674SOL    HW1  919   7.454  11.525   9.757
99674SOL    HW2  920   7.322  11.600   9.760
99675SOL     OW  921   1.116   1.996   9.621
99675SOL    HW1  922   1.136   1.980   9.529
99675SOL    HW2  923   1.194   2.041   9.655
99676SOL     OW  924   7.025   4.636   4.518
99676SOL    HW1  925   7.050   4.658   4.428
99676SOL    HW2  926   7.057   4.547   4.530
99677SOL     OW  927   7.662   8.515   3.272
99677SOL    HW1  928   7.635   8.469   3.193
99677SOL    HW2  929   7.590   8.502   3.334
99678SOL     OW  930   1.413  10.061   1.826
99678SOL    HW1  931   1.390   9.978   1.868
99678SOL    HW2  932   1.398  10.127   1.894
99679SOL     OW  933   1.054   6.379   9.217
99679SOL    HW1  934   1.054   6.462   9.265
99679SOL    HW2  935   1.003   6.397   9.138
99680SOL     OW  936   2.886  14.170  10.237
99680SOL    HW1  937   2.891  14.265  10.239
99680SOL    HW2  938   2.935  14.142  10.314
99681SOL     OW  939  14.431  14.859   9.440
99681SOL    HW1  940  14.449  14.776   9.485
99681SOL    HW2  941  14.506   0.034   9.461
99682SOL     OW  942  12.349   8.431  12.074
99682SOL    HW1  943  12.271   8.480  12.049
99682SOL    HW2  944  12.421   8.493  12.062
99683SOL     OW  945   0.025  14.354   3.726
99683SOL    HW1  946  14.811  14.363   3.717
99683SOL    HW2  947   0.061  14.387   3.643
99684SOL     OW  948  12.988   2.988   2.733
99684SOL    HW1  949  12.938   2.939   2.668
99684SOL    HW2  950  12.959   2.952   2.817
99685SOL     OW  951  13.372  14.244  14.519
99685SOL    HW1  952  13.433  14.204  14.582
99685SOL    HW2  953  13.304  14.178  14.507
99686SOL     OW  954   8.433   5.698   0.657
99686SOL    HW1  955   8.417   5.652   0.575
99686SOL    HW2  956   8.380   5.778   0.650
99687SOL     OW  957  14.733  11.223   4.212
99687SOL    HW1  958  14.755  11.212   4.305
99687SOL    HW2  959  14.638  11.212   4.209
99688SOL     OW  960  10.780   4.205   5.241
99688SOL    HW1  961  10.776   4.217   5.146
99688SOL    HW2  962  10.870   4.228   5.265
99689SOL     OW  963   2.395   0.158   8.863
99689SOL    HW1  964   2.369   0.242   8.826
99689SOL    HW2  965   2.448   0.182   8.940
99690SOL     OW  966  13.779   5.320   7.110
99690SOL    HW1  967  13.727   5.379   7.166
99690SOL    HW2  968  13.719   5.296   7.039
99691SOL     OW  969  10.730  11.980   5.657
99691SOL    HW1  970  10.729  11.943   5.569
99691SOL    HW2  971  10.806  11.940   5.699
99692SOL     OW  972   6.388  13.458   0.039
99692SOL    HW1  973   6.473  13.481   0.075
99692SOL    HW2  974   6.356  13.388   0.097
99693SOL     OW  975   2.704   8.479   6.574
99693SOL    HW1  976   2.714   8.387   6.600
99693SOL    HW2  977   2.708   8.477   6.478
99694SOL     OW  978   7.575   9.608  14.293
99694SOL    HW1  979   7.629   9.687  14.290
99694SOL    HW2  980   7.623   9.548  14.350
99695SOL     OW  981  10.279   7.212   8.787
99695SOL    HW1  982  10.326   7.251   8.860
99695SOL    HW2  983  10.334   7.231   8.710
99696SOL     OW  984   1.671  12.363  14.438
99696SOL    HW1  985   1.641  12.388  14.526
99696SOL    HW2  986   1.622  12.419  14.379
99697SOL     OW  987  13.372  13.711  12.035
99697SOL    HW1  988  13.318  13.633  12.046
99697SOL    HW2  989  13.312  13.776  11.997
99698SOL     OW  990   2.415   0.655  11.653
99698SOL    HW1  991   2.373   0.740  11.669
99698SOL    HW2  992   2.426   0.617  11.740
99699SOL     OW  993   1.662  12.666   5.950
99699SOL    HW1  994   1.718  12.650   5.874
99699SOL    HW2  995   1.582  12.617   5.930
99700SOL     OW  996  14.768  12.876   0.082
99700SOL    HW1  997  14.788  12.784   0.062
99700SOL    HW2  998  14.823  12.896   0.158
99701SOL     OW  999   0.705   5.601   2.968
99701SOL    HW1 1000   0.724   5.611   3.061
99701SOL    HW2 1001   0.619   5.642   2.957
99702SOL     OW 1002   5.743  12.437  14.550
99702SOL    HW1 1003   5.825  12.411  14.507
99702SOL    HW2 1004   5.675  12.409  14.489
99703SOL     OW 1005  10.178   9.605  11.816
99703SOL    HW1 1006  10.238   9.556  11.761
99703SOL    HW2 1007  10.116   9.540  11.849
99704SOL     OW 1008  10.011   7.741   8.508
99704SOL    HW1 1009  10.095   7.785   8.520
99704SOL    HW2 1010   9.964   7.796   8.445
99705SOL     OW 1011  12.762   6.613  14.795
99705SOL    HW1 1012  12.802   6.543  14.847
99705SOL    HW2 1013  12.820   6.688  14.807
99706SOL     OW 1014   7.377   7.675  12.868
99706SOL    HW1 1015   7.458   7.711  12.831
99706SOL    HW2 1016   7.390   7.581  12.869
99707SOL     OW 1017  13.494   5.774  11.587
99707SOL    HW1 1018  13.483   5.679  11.598
99707SOL    HW2 1019  13.515   5.785  11.495
99708SOL     OW 1020   3.750  10.460   5.894
99708SOL    HW1 1021   3.685  10.451   5.963
99708SOL    HW2 1022   3.767  10.554   5.889
99709SOL     OW 1023  11.196   9.463   7.723
99709SOL    HW1 1024  11.223   9.528   7.659
99709SOL    HW2 1025  11.102   9.478   7.735
99710SOL     OW 1026   3.298   2.894   0.613
99710SOL    HW1 1027   3.385   2.901   0.574
99710SOL    HW2 1028   3.280   2.800   0.614
99711SOL     OW 1029   7.941  11.660  13.386
99711SOL    HW1 1030   7.890  11.579  13.387
99711SOL    HW2 1031   7.965  11.672  13.294
99712SOL     OW 1032   4.648  12.826  13.411
99712SOL    HW1 1033   4.742  12.839  13.424
99712SOL    HW2 1034   4.641  12.738  13.374
99713SOL     OW 1035   8.140  11.440  10.729
99713SOL    HW1 1036   8.074  11.389  10.776
99713SOL    HW2 1037   8.223  11.417  10.770
99714SOL     OW 1038  11.620   2.050   8.723
99714SOL    HW1 1039  11.578   1.964   8.729
99714SOL    HW2 1040  11.560   2.109   8.767
99715SOL     OW 1041  12.870   0.612  10.709
99715SOL    HW1 1042  12.891   0.583  10.798
99715SOL    HW2 1043  12.950   0.594  10.659
99716SOL     OW 1044  13.931   4.761  10.535
99716SOL    HW1 1045  13.962   4.820  10.604
99716SOL    HW2 1046  13.998   4.767  10.467
99717SOL     OW 1047   6.672  12.141  12.270
99717SOL    HW1 1048   6.668  12.079  12.197
99717SOL    HW2 1049   6.750  12.115  12.318
99718SOL     OW 1050   9.006   5.735   4.713
99718SOL    HW1 1051   9.011   5.677   4.789
99718SOL    HW2 1052   9.076   5.799   4.727
99719SOL     OW 1053   9.273   8.036   9.782
99719SOL    HW1 1054   9.195   8.034   9.728
99719SOL    HW2 1055   9.291   7.943   9.801
99720SOL     OW 1056   4.169   3.788   8.946
99720SOL    HW1 1057   4.137   3.706   8.984
99720SOL    HW2 1058   4.248   3.763   8.898
99721SOL     OW 1059   8.250  12.995  12.760
99721SOL    HW1 1060   8.334  12.965  12.793
99721SOL    HW2 1061   8.186  12.968  12.826
99722SOL     OW 1062   2.685   8.907  10.475
99722SOL    HW1 1063   2.718   8.959  10.547
99722SOL    HW2 1064   2.603   8.870  10.508
99723SOL     OW 1065   1.154   1.121   3.096
99723SOL    HW1 1066   1.074   1.134   3.045
99723SOL    HW2 1067   1.225   1.140   3.034
99724SOL     OW 1068  10.854   6.643   8.123
99724SOL    HW1 1069  10.786   6.611   8.065
99724SOL    HW2 1070  10.881   6.726   8.086
99725SOL     OW 1071   4.888  12.057  14.075
99725SOL    HW1 1072   4.863  11.967  14.092
99725SOL    HW2 1073   4.941  12.053  13.996
99726SOL     OW 1074   3.994   1.025   7.558
99726SOL    HW1 1075   3.966   1.114   7.537
99726SOL    HW2 1076   4.018   1.029   7.651
99727SOL     OW 1077   3.065   4.568   3.880
99727SOL    HW1 1078   3.143   4.620   3.899
99727SOL    HW2 1079   2.996   4.632   3.864
99728SOL     OW 1080   8.115  11.614   4.772
99728SOL    HW1 1081   8.045  11.561   4.735
99728SOL    HW2 1082   8.157  11.558   4.837
99729SOL     OW 1083   8.605  14.371   2.150
99729SOL    HW1 1084   8.522  14.410   2.178
99729SOL    HW2 1085   8.591  14.346   2.059
99730SOL     OW 1086   6.011  12.676   7.862
99730SOL    HW1 1087   5.940  12.703   7.921
99730SOL    HW2 1088   5.997  12.582   7.850
99731SOL     OW 1089   1.115   8.395   6.108
99731SOL    HW1 1090   1.023   8.394   6.080
99731SOL    HW2 1091   1.122   8.321   6.169
99732SOL     OW 1092  13.485  10.126   0.325
99732SOL    HW1 1093  13.550  10.164   0.384
99732SOL    HW2 1094  13.498  10.032   0.333
99733SOL     OW 1095   4.922   3.649   5.964
99733SOL    HW1 1096   4.859   3.660   5.893
99733SOL    HW2 1097   4.978   3.726   5.958
99734SOL     OW 1098   4.906   5.491   0.566
99734SOL    HW1 1099   4.927   5.559   0.630
99734SOL    HW2 1100   4.910   5.535   0.481
99735SOL     OW 1101   2.076  13.843  10.190
99735SOL    HW1 1102   2.107  13.773  10.248
99735SOL    HW2 1103   2.059  13.917  10.248
99736SOL     OW 1104   1.821   1.302  13.660
99736SOL    HW1 1105   1.788   1.385  13.693
99736SOL    HW2 1106   1.752   1.239  13.679
99737SOL     OW 1107  11.930  11.971   9.329
99737SOL    HW1 1108  12.023  11.965   9.309
99737SOL    HW2 1109  11.910  11.890   9.375
99738SOL     OW 1110   7.936   6.235   9.967
99738SOL    HW1 1111   7.987   6.301   9.920
99738SOL    HW2 1112   7.943   6.260  10.059
99739SOL     OW 1113  14.338  10.379   2.016
99739SOL    HW1 1114  14.362  10.366   2.108
99739SOL    HW2 1115  14.275  10.310   1.998
99740SOL     OW 1116   9.926  11.629   3.958
99740SOL    HW1 1117   9.857  11.676   3.912
99740SOL    HW2 1118   9.965  11.694   4.016
99741SOL     OW 1119  14.782   5.091  14.792
99741SOL    HW1 1120  14.690   5.074  14.769
99741SOL    HW2 1121  14.815   5.006  14.820
99742SOL     OW 1122  13.936   0.103   5.382
99742SOL    HW1 1123  13.851   0.137   5.411
99742SOL    HW2 1124  13.998   0.133   5.449
99743SOL     OW 1125  12.703   9.591   8.727
99743SOL    HW1 1126  12.775   9.653   8.739
99743SOL    HW2 1127  12.706   9.535   8.804
99744SOL     OW 1128   7.583  11.358   2.244
99744SOL    HW1 1129   7.634  11.394   2.316
99744SOL    HW2 1130   7.533  11.432   2.210
99745SOL     OW 1131   1.117   3.467   6.814
99745SOL    HW1 1132   1.048   3.452   6.879
99745SOL    HW2 1133   1.070   3.492   6.735
99746SOL     OW 1134   2.779   1.338   6.443
99746SOL    HW1 1135   2.797   1.357   6.535
99746SOL    HW2 1136   2.854   1.288   6.413
99747SOL     OW 1137   9.202   1.059  11.191
99747SOL    HW1 1138   9.165   1.146  11.207
99747SOL    HW2 1139   9.293   1.075  11.166
99748SOL     OW 1140   6.001   3.356   0.005
99748SOL    HW1 1141   5.936   3.318  14.826
99748SOL    HW2 1142   5.974   3.328   0.092
99749SOL     OW 1143  12.512  14.147   1.586
99749SOL    HW1 1144  12.442  14.082   1.587
99749SOL    HW2 1145  12.468  14.230   1.605
99750SOL     OW 1146   9.917  12.388   8.716
99750SOL    HW1 1147   9.937  12.295   8.710
99750SOL    HW2 1148   9.883  12.411   8.629
99751SOL     OW 1149   0.562  14.860  12.174
99751SOL    HW1 1150   0.599   0.023  12.096
99751SOL    HW2 1151   0.500   0.044  12.210
99752SOL     OW 1152   4.468   6.594   7.393
99752SOL    HW1 1153   4.538   6.653   7.422
99752SOL    HW2 1154   4.467   6.524   7.459
99753SOL     OW 1155  13.240   6.424  13.308
99753SOL    HW1 1156  13.322   6.473  13.294
99753SOL    HW2 1157  13.262   6.360  13.375
99754SOL     OW 1158   8.535   5.036   3.564
99754SOL    HW1 1159   8.442   5.059   3.565
99754SOL    HW2 1160   8.553   5.004   3.652
99755SOL     OW 1161   0.691   2.314   2.411
99755SOL    HW1 1162   0.689   2.409   2.427
99755SOL    HW2 1163   0.599   2.288   2.412
99756SOL     OW 1164  11.995   0.701   8.682
99756SOL    HW1 1165  11.922   0.745   8.725
99756SOL    HW2 1166  11.956   0.623   8.643
99757SOL     OW 1167   1.948   3.051  13.195
99757SOL    HW1 1168   1.930   2.967  13.236
99757SOL    HW2 1169   2.010   3.094  13.253
99758SOL     OW 1170   6.062   8.127  14.109
99758SOL    HW1 1171   6.083   8.043  14.067
99758SOL    HW2 1172   5.971   8.118  14.137
99759SOL     OW 1173   4.716   3.241   4.123
99759SOL    HW1 1174   4.738   3.327   4.160
99759SOL    HW2 1175   4.688   3.260   4.033
99760SOL     OW 1176  13.220   5.146  10.438
99760SOL    HW1 1177  13.152   5.214  10.437
99760SOL    HW2 1178  13.244   5.135  10.346
99761SOL     OW 1179   2.295   5.519  14.852
99761SOL    HW1 1180   2.359   5.556   0.032
99761SOL    HW2 1181   2.317   5.426  14.847
99762SOL     OW 1182  10.260   3.130  10.605
99762SOL    HW1 1183  10.281   3.085  10.687
99762SOL    HW2 1184  10.316   3.087  10.540
99763SOL     OW 1185   0.565   4.922   6.987
99763SOL    HW1 1186   0.472   4.942   6.998
99763SOL    HW2 1187   0.600   4.919   7.076
99764SOL     OW 1188  13.633  11.066   9.287
99764SOL    HW1 1189  13.656  11.135   9.224
99764SOL    HW2 1190  13.704  11.068   9.351
99765SOL     OW 1191   9.616   8.197   7.690
99765SOL    HW1 1192   9.664   8.246   7.623
99765SOL    HW2 1193   9.564   8.263   7.735
99766SOL     OW 1194  10.519   7.302   1.294
99766SOL    HW1 1195  10.585   7.287   1.226
99766SOL    HW2 1196  10.569   7.335   1.369
99767SOL     OW 1197  14.348   2.548   7.580
99767SOL    HW1 1198  14.412   2.516   7.644
99767SOL    HW2 1199  14.266   2.505   7.603
99768SOL     OW 1200   7.068   1.101   6.994
99768SOL    HW1 1201   7.056   1.195   6.992
99768SOL    HW2 1202   7.162   1.088   6.986
99769SOL     OW 1203   7.361   4.062   5.621
99769SOL    HW1 1204   7.273   4.076   5.656
99769SOL    HW2 1205   7.365   4.117   5.543
99770SOL     OW 1206  12.767   5.105   4.898
99770SOL    HW1 1207  12.794   5.188   4.861
99770SOL    HW2 1208  12.686   5.083   4.852
99771SOL     OW 1209   5.131   8.131   6.056
99771SOL    HW1 1210   5.135   8.055   6.114
99771SOL    HW2 1211   5.048   8.121   6.008
99772SOL     OW 1212   9.229   8.350   6.694
99772SOL    HW1 1213   9.208   8.272   6.643
99772SOL    HW2 1214   9.208   8.327   6.784
99773SOL     OW 1215  14.587  12.970   7.364
99773SOL    HW1 1216  14.603  12.980   7.270
99773SOL    HW2 1217  14.614  13.053   7.402
99774SOL     OW 1218   2.698  11.219   0.372
99774SOL    HW1 1219   2.789  11.235   0.395
99774SOL    HW2 1220   2.693  11.238   0.278
99775SOL     OW 1221  14.107   3.274   7.961
99775SOL    HW1 1222  14.199   3.247   7.968
99775SOL    HW2 1223  14.079   3.243   7.875
99776SOL     OW 1224   6.431   4.883   2.381
99776SOL    HW1 1225   6.377   4.829   2.322
99776SOL    HW2 1226   6.501   4.916   2.325
99777SOL     OW 1227  11.054  11.399   6.720
99777SOL    HW1 1228  11.108  11.430   6.793
99777SOL    HW2 1229  10.987  11.345   6.761
99778SOL     OW 1230   9.141  13.210   8.454
99778SOL    HW1 1231   9.200  13.238   8.384
99778SOL    HW2 1232   9.083  13.146   8.413
99779SOL     OW 1233  14.198   7.183  12.828
99779SOL    HW1 1234  14.221   7.091  12.838
99779SOL    HW2 1235  14.164   7.209  12.914
99780SOL     OW 1236  12.714   9.937   7.695
99780SOL    HW1 1237  12.738  10.003   7.760
99780SOL    HW2 1238  12.682   9.863   7.746
99781SOL     OW 1239  12.552   9.719   9.170
99781SOL    HW1 1240  12.556   9.637   9.219
99781SOL    HW2 1241  12.641   9.733   9.140
99782SOL     OW 1242  11.568   4.016   9.640
99782SOL    HW1 1243  11.605   4.016   9.552
99782SOL    HW2 1244  11.606   3.939   9.683
99783SOL     OW 1245  10.542   1.790   5.486
99783SOL    HW1 1246  10.552   1.812   5.579
99783SOL    HW2 1247  10.628   1.759   5.459
99784SOL     OW 1248   7.977   5.755   5.126
99784SOL    HW1 1249   7.947   5.795   5.208
99784SOL    HW2 1250   8.031   5.681   5.155
99785SOL     OW 1251  14.268   7.084  13.218
99785SOL    HW1 1252  14.228   7.073  13.304
99785SOL    HW2 1253  14.219   7.026  13.160
99786SOL     OW 1254   1.230  11.529   3.301
99786SOL    HW1 1255   1.145  11.502   3.334
99786SOL    HW2 1256   1.262  11.453   3.253
99787SOL     OW 1257   6.218   2.985   6.299
99787SOL    HW1 1258   6.237   2.944   6.384
99787SOL    HW2 1259   6.201   2.912   6.240
99788SOL     OW 1260   0.785   5.707   6.842
99788SOL    HW1 1261   0.721   5.691   6.912
99788SOL    HW2 1262   0.845   5.772   6.879
99789SOL     OW 1263   3.952   3.075   9.588
99789SOL    HW1 1264   3.941   3.088   9.493
99789SOL    HW2 1265   3.963   3.163   9.623
99790SOL     OW 1266   7.407  10.811  12.359
99790SOL    HW1 1267   7.490  10.763  12.354
99790SOL    HW2 1268   7.342  10.750  12.324
99791SOL     OW 1269   6.549   0.836  14.766
99791SOL    HW1 1270   6.578   0.748  14.741
99791SOL    HW2 1271   6.453   0.830  14.765
99792SOL     OW 1272  13.656  10.250   1.182
99792SOL    HW1 1273  13.711  10.171   1.175
99792SOL    HW2 1274  13.579  10.230   1.129
99793SOL     OW 1275   0.868   4.875   8.675
99793SOL    HW1 1276   0.799   4.908   8.617
99793SOL    HW2 1277   0.870   4.781   8.658
99794SOL     OW 1278   0.242   8.638   4.666
99794SOL    HW1 1279   0.152   8.668   4.652
99794SOL    HW2 1280   0.284   8.646   4.580
99795SOL     OW 1281  10.729  11.728   8.690
99795SOL    HW1 1282  10.641  11.692   8.697
99795SOL    HW2 1283  10.787  11.652   8.692
99796SOL     OW 1284   8.798  13.966   6.415
99796SOL    HW1 1285   8.783  14.052   6.376
99796SOL    HW2 1286   8.774  13.977   6.507
99797SOL     OW 1287   6.324   3.964  10.239
99797SOL    HW1 1288   6.348   3.952  10.331
99797SOL    HW2 1289   6.293   4.054  10.234
99798SOL     OW 1290  13.075   2.006  10.772
99798SOL    HW1 1291  12.992   2.050  10.753
99798SOL    HW2 1292  13.116   1.993  10.686
99799SOL     OW 1293   8.978   4.323  10.096
99799SOL    HW1 1294   8.902   4.285  10.140
99799SOL    HW2 1295   9.053   4.279  10.135
99800SOL     OW 1296   6.802   2.828   5.527
99800SOL    HW1 1297   6.766   2.747   5.490
99800SOL    HW2 1298   6.883   2.842   5.479
99801SOL     OW 1299  12.352  10.727   3.825
99801SOL    HW1 1300  12.411  10.771   3.886
99801SOL    HW2 1301  12.407  10.706   3.749
99802SOL     OW 1302   7.590   8.863   8.039
99802SOL    HW1 1303   7.523   8.896   8.099
99802SOL    HW2 1304   7.564   8.899   7.954
99803SOL     OW 1305  13.883   9.064   9.409
99803SOL    HW1 1306  13.910   8.995   9.349
99803SOL    HW2 1307  13.793   9.085   9.382
99804SOL     OW 1308   2.255   8.426  13.069
99804SOL    HW1 1309   2.299   8.353  13.026
99804SOL    HW2 1310   2.163   8.399  13.073
99805SOL     OW 1311  14.762  13.388   1.571
99805SOL    HW1 1312  14.855  13.383   1.591
99805SOL    HW2 1313  14.731  13.298   1.575
99806SOL     OW 1314  10.472  14.445  13.070
99806SOL    HW1 1315  10.442  14.517  13.014
99806SOL    HW2 1316  10.532  14.395  13.015
99807SOL     OW 1317  10.544  14.704   2.844
99807SOL    HW1 1318  10.465  14.709   2.790
99807SOL    HW2 1319  10.574  14.614   2.835
99808SOL     OW 1320   0.130   7.700  13.502
99808SOL    HW1 1321   0.127   7.776  13.561
99808SOL    HW2 1322   0.201   7.721  13.441
99809SOL     OW 1323   0.182   8.995   3.736
99809SOL    HW1 1324   0.151   9.034   3.654
99809SOL    HW2 1325   0.269   8.960   3.714
99810SOL     OW 1326   7.296   9.362   4.041
99810SOL    HW1 1327   7.297   9.421   3.965
99810SOL    HW2 1328   7.345   9.285   4.012
99811SOL     OW 1329   0.601   4.447   6.044
99811SOL    HW1 1330   0.607   4.377   6.109
99811SOL    HW2 1331   0.538   4.509   6.081
99812SOL     OW 1332  13.130  11.515  12.216
99812SOL    HW1 1333  13.118  11.420  12.215
99812SOL    HW2 1334  13.041  11.551  12.216
99813SOL     OW 1335   6.531  14.840   4.855
99813SOL    HW1 1336   6.573  14.756   4.876
99813SOL    HW2 1337   6.485  14.825   4.772
99814SOL     OW 1338   3.049  14.571   9.622
99814SOL    HW1 1339   3.111  14.642   9.641
99814SOL    HW2 1340   3.033  14.530   9.706
99815SOL     OW 1341   1.029   8.321   0.131
99815SOL    HW1 1342   0.970   8.389   0.100
99815SOL    HW2 1343   1.113   8.341   0.090
99816SOL     OW 1344   1.886  13.207   6.374
99816SOL    HW1 1345   1.958  13.181   6.431
99816SOL    HW2 1346   1.927  13.263   6.308
99817SOL     OW 1347   9.531   0.276   4.060
99817SOL    HW1 1348   9.542   0.236   3.974
99817SOL    HW2 1349   9.450   0.238   4.094
99818SOL     OW 1350   6.024   0.894   6.872
99818SOL    HW1 1351   6.024   0.988   6.890
99818SOL    HW2 1352   6.094   0.883   6.807
99819SOL     OW 1353   1.236   6.622  13.027
99819SOL    HW1 1354   1.277   6.707  13.042
99819SOL    HW2 1355   1.290   6.560  13.075
99820SOL     OW 1356   2.758   0.575   9.078
99820SOL    HW1 1357   2.745   0.483   9.100
99820SOL    HW2 1358   2.671   0.609   9.059
99821SOL     OW 1359  11.309  14.188  11.659
99821SOL    HW1 1360  11.370  14.118  11.637
99821SOL    HW2 1361  11.343  14.264  11.612
99822SOL     OW 1362   5.661   8.578   1.576
99822SOL    HW1 1363   5.704   8.519   1.515
99822SOL    HW2 1364   5.721   8.652   1.585
99823SOL     OW 1365  10.725   5.290  13.861
99823SOL    HW1 1366  10.695   5.213  13.813
99823SOL    HW2 1367  10.648   5.317  13.913
99824SOL     OW 1368  11.872  12.101   7.057
99824SOL    HW1 1369  11.824  12.157   6.996
99824SOL    HW2 1370  11.964  12.128   7.046
99825SOL     OW 1371   5.576  14.640  14.396
99825SOL    HW1 1372   5.654  14.620  14.345
99825SOL    HW2 1373   5.542  14.554  14.423
99826SOL     OW 1374  13.124   4.663  12.824
99826SOL    HW1 1375  13.097   4.676  12.733
99826SOL    HW2 1376  13.046   4.629  12.868
99827SOL     OW 1377   1.323  14.225   8.059
99827SOL    HW1 1378   1.336  14.214   7.965
99827SOL    HW2 1379   1.399  14.274   8.089
99828SOL     OW 1380   4.849   2.243   8.473
99828SOL    HW1 1381   4.801   2.204   8.547
99828SOL    HW2 1382   4.909   2.174   8.445
99829SOL     OW 1383  13.821   5.570   6.826
99829SOL    HW1 1384  13.796   5.595   6.914
99829SOL    HW2 1385  13.786   5.639   6.770
99830SOL     OW 1386  10.413  10.414   2.192
99830SOL    HW1 1387  10.334  10.394   2.243
99830SOL    HW2 1388  10.438  10.502   2.221
99831SOL     OW 1389   8.803   7.109   5.717
99831SOL    HW1 1390   8.805   7.170   5.643
99831SOL    HW2 1391   8.800   7.022   5.676
99832SOL     OW 1392   9.331   4.570   3.136
99832SOL    HW1 1393   9.310   4.662   3.157
99832SOL    HW2 1394   9.253   4.522   3.161
99833SOL     OW 1395  12.794  14.426   2.429
99833SOL    HW1 1396  12.846  14.365   2.377
99833SOL    HW2 1397  12.734  14.466   2.366
99834SOL     OW 1398   0.868   9.211   6.196
99834SOL    HW1 1399   0.915   9.207   6.112
99834SOL    HW2 1400   0.852   9.304   6.209
99835SOL     OW 1401   6.086  10.244   4.075
99835SOL    HW1 1402   6.162  10.207   4.120
99835SOL    HW2 1403   6.115  10.330   4.045
99836SOL     OW 1404   1.081   6.324   2.358
99836SOL    HW1 1405   1.141   6.251   2.371
99836SOL    HW2 1406   1.073   6.333   2.263
99837SOL     OW 1407   8.778   2.885   4.001
99837SOL    HW1 1408   8.774   2.960   3.941
99837SOL    HW2 1409   8.719   2.910   4.074
99838SOL     OW 1410   0.059  11.489  10.480
99838SOL    HW1 1411   0.000  11.418  10.454
99838SOL    HW2 1412   0.144  11.464  10.443
99839SOL     OW 1413  11.622   1.228  13.457
99839SOL    HW1 1414  11.628   1.175  13.378
99839SOL    HW2 1415  11.553   1.186  13.509
99840SOL     OW 1416   4.814   9.559   4.470
99840SOL    HW1 1417   4.727   9.520   4.473
99840SOL    HW2 1418   4.859   9.512   4.400
99841SOL     OW 1419  13.638   3.202  12.433
99841SOL    HW1 1420  13.613   3.258  12.359
99841SOL    HW2 1421  13.676   3.263  12.497
99842SOL     OW 1422  10.720   7.890   0.483
99842SOL    HW1 1423  10.723   7.917   0.391
99842SOL    HW2 1424  10.710   7.972   0.532
99843SOL     OW 1425   6.789   0.271   2.375
99843SOL    HW1 1426   6.873   0.296   2.413
99843SOL    HW2 1427   6.724   0.315   2.429
99844SOL     OW 1428   0.443  13.306   2.859
99844SOL    HW1 1429   0.491  13.245   2.915
99844SOL    HW2 1430   0.478  13.392   2.882
99845SOL     OW 1431   1.663   0.289   4.378
99845SOL    HW1 1432   1.599   0.222   4.403
99845SOL    HW2 1433   1.612   0.354   4.329
99846SOL     OW 1434  13.504   3.045  13.601
99846SOL    HW1 1435  13.562   2.994  13.658
99846SOL    HW2 1436  13.465   3.110  13.658
99847SOL     OW 1437  13.059  13.135   2.080
99847SOL    HW1 1438  13.098  13.049   2.097
99847SOL    HW2 1439  12.970  13.116   2.051
99848SOL     OW 1440  13.406   0.970   8.679
99848SOL    HW1 1441  13.321   0.979   8.635
99848SOL    HW2 1442  13.470   0.991   8.611
99849SOL     OW 1443   2.329   2.543   5.181
99849SOL    HW1 1444   2.292   2.464   5.219
99849SOL    HW2 1445   2.390   2.511   5.114
99850SOL     OW 1446   9.690   5.813  11.940
99850SOL    HW1 1447   9.613   5.788  11.889
99850SOL    HW2 1448   9.656   5.869  12.010
99851SOL     OW 1449  14.096  14.504  13.346
99851SOL    HW1 1450  14.044  14.497  13.426
99851SOL    HW2 1451  14.127  14.595  13.345
99852SOL     OW 1452   2.064   0.347   9.319
99852SOL    HW1 1453   2.105   0.281   9.375
99852SOL    HW2 1454   2.014   0.296   9.255
99853SOL     OW 1455  10.466   8.543   3.432
99853SOL    HW1 1456  10.503   8.619   3.477
99853SOL    HW2 1457  10.420   8.579   3.356
99854SOL     OW 1458   6.771   2.901   6.659
99854SOL    HW1 1459   6.750   2.988   6.694
99854SOL    HW2 1460   6.710   2.842   6.703
99855SOL     OW 1461   1.877   6.161  12.968
99855SOL    HW1 1462   1.786   6.191  12.962
99855SOL    HW2 1463   1.927   6.226  12.918
99856SOL     OW 1464  13.702   9.485   7.486
99856SOL    HW1 1465  13.686   9.576   7.459
99856SOL    HW2 1466  13.798   9.478   7.486
99857SOL     OW 1467   0.572   9.898  11.189
99857SOL    HW1 1468   0.599   9.807  11.201
99857SOL    HW2 1469   0.614   9.924  11.107
99858SOL     OW 1470   1.839   9.283   2.317
99858SOL    HW1 1471   1.910   9.303   2.255
99858SOL    HW2 1472   1.830   9.363   2.369
99859SOL     OW 1473   4.605  13.803   3.360
99859SOL    HW1 1474   4.525  13.851   3.382
99859SOL    HW2 1475   4.574  13.717   3.332
99860SOL     OW 1476   2.618   9.680   8.083
99860SOL    HW1 1477   2.563   9.602   8.091
99860SOL    HW2 1478   2.565   9.743   8.035
99861SOL     OW 1479   9.300   1.449  10.865
99861SOL    HW1 1480   9.348   1.434  10.784
99861SOL    HW2 1481   9.356   1.507  10.916
99862SOL     OW 1482   0.891   1.812  10.523
99862SOL    HW1 1483   0.872   1.896  10.481
99862SOL    HW2 1484   0.926   1.758  10.452
99863SOL     OW 1485  10.534  10.937  10.405
99863SOL    HW1 1486  10.513  11.019  10.360
99863SOL    HW2 1487  10.621  10.952  10.441
99864SOL     OW 1488   5.912  10.434  10.652
99864SOL    HW1 1489   5.919  10.367  10.584
99864SOL    HW2 1490   5.819  10.440  10.670
99865SOL     OW 1491  13.413   5.374  13.888
99865SOL    HW1 1492  13.432   5.284  13.860
99865SOL    HW2 1493  13.493   5.403  13.931
99866SOL     OW 1494  10.670   3.266   6.377
99866SOL    HW1 1495  10.713   3.235   6.298
99866SOL    HW2 1496  10.739   3.265   6.444
99867SOL     OW 1497   0.389   6.026  11.517
99867SOL    HW1 1498   0.423   6.018  11.606
99867SOL    HW2 1499   0.438   5.961  11.467
99868SOL     OW 1500   3.360   7.193   9.466
99868SOL    HW1 1501   3.442   7.173   9.512
99868SOL    HW2 1502   3.338   7.112   9.420
99869SOL     OW 1503   8.730   5.406  14.329
99869SOL    HW1 1504   8.642   5.399  14.366
99869SOL    HW2 1505   8.717   5.402  14.234
99870SOL     OW 1506   3.006   4.428   0.874
99870SOL    HW1 1507   2.925   4.466   0.910
99870SOL    HW2 1508   3.016   4.345   0.920
99871SOL     OW 1509   6.260  14.878   9.668
99871SOL    HW1 1510   6.185   0.045   9.704
99871SOL    HW2 1511   6.251  14.789   9.702
99872SOL     OW 1512   7.531  10.389   9.543
99872SOL    HW1 1513   7.460  10.347   9.591
99872SOL    HW2 1514   7.554  10.466   9.595
99873SOL     OW 1515   2.042   4.842   6.000
99873SOL    HW1 1516   2.035   4.912   5.935
99873SOL    HW2 1517   1.956   4.839   6.042
99874SOL     OW 1518  12.346   1.356  12.864
99874SOL    HW1 1519  12.406   1.285  12.844
99874SOL    HW2 1520  12.272   1.344  12.804
99875SOL     OW 1521  14.511   0.154  10.274
99875SOL    HW1 1522  14.585   0.102  10.242
99875SOL    HW2 1523  14.541   0.188  10.358
99876SOL     OW 1524   7.874  12.395   4.876
99876SOL    HW1 1525   7.815  12.359   4.809
99876SOL    HW2 1526   7.948  12.335   4.877
99877SOL     OW 1527   8.811  13.585   6.341
99877SOL    HW1 1528   8.781  13.620   6.425
99877SOL    HW2 1529   8.770  13.499   6.335
99878SOL     OW 1530   1.046   2.315   8.319
99878SOL    HW1 1531   1.018   2.291   8.231
99878SOL    HW2 1532   1.042   2.410   8.321
99879SOL     OW 1533   8.455   3.259   5.654
99879SOL    HW1 1534   8.539   3.268   5.699
99879SOL    HW2 1535   8.441   3.343   5.611
99880SOL     OW 1536   7.377  10.463   2.624
99880SOL    HW1 1537   7.348  10.391   2.568
99880SOL    HW2 1538   7.296  10.508   2.649
99881SOL     OW 1539   3.485   4.723   2.699
99881SOL    HW1 1540   3.520   4.649   2.650
99881SOL    HW2 1541   3.472   4.690   2.787
99882SOL     OW 1542  12.583   8.476  10.513
99882SOL    HW1 1543  12.581   8.423  10.433
99882SOL    HW2 1544  12.517   8.544  10.499
99883SOL     OW 1545   8.725  10.002   3.188
99883SOL    HW1 1546   8.755  10.072   3.245
99883SOL    HW2 1547   8.780  10.010   3.110
99884SOL     OW 1548   6.638   2.121   4.286
99884SOL    HW1 1549   6.615   2.084   4.201
99884SOL    HW2 1550   6.659   2.045   4.340
99885SOL     OW 1551   5.971   0.494   8.089
99885SOL    HW1 1552   5.975   0.582   8.050
99885SOL    HW2 1553   5.880   0.469   8.081
99886SOL     OW 1554  14.074   3.706  11.501
99886SOL    HW1 1555  14.009   3.635  11.495
99886SOL    HW2 1556  14.152   3.663  11.537
99887SOL     OW 1557   6.590   6.503   2.249
99887SOL    HW1 1558   6.626   6.507   2.337
99887SOL    HW2 1559   6.558   6.413   2.240
99888SOL     OW 1560   1.745  11.464  10.184
99888SOL    HW1 1561   1.735  11.559  10.185
99888SOL    HW2 1562   1.664  11.431  10.146
99889SOL     OW 1563   5.608   0.319   3.400
99889SOL    HW1 1564   5.643   0.350   3.317
99889SOL    HW2 1565   5.563   0.395   3.438
99890SOL     OW 1566   2.341  11.482   2.789
99890SOL    HW1 1567   2.392  11.524   2.720
99890SOL    HW2 1568   2.251  11.485   2.757
99891SOL     OW 1569   1.160   2.776  13.061
99891SOL    HW1 1570   1.114   2.808  12.984
99891SOL    HW2 1571   1.133   2.685  13.069
99892SOL     OW 1572   2.490  11.015   8.059
99892SOL    HW1 1573   2.469  10.931   8.018
99892SOL    HW2 1574   2.552  11.056   7.998
99893SOL     OW 1575   7.052  10.809   3.451
99893SOL    HW1 1576   7.021  10.764   3.529
99893SOL    HW2 1577   6.983  10.796   3.386
99894SOL     OW 1578  14.140   9.356   2.710
99894SOL    HW1 1579  14.054   9.383   2.678
99894SOL    HW2 1580  14.136   9.261   2.714
99895SOL     OW 1581   8.887  12.091   9.855
99895SOL    HW1 1582   8.915  12.170   9.901
99895SOL    HW2 1583   8.841  12.039   9.921
99896SOL     OW 1584   6.646   5.370   7.075
99896SOL    HW1 1585   6.696   5.305   7.124
99896SOL    HW2 1586   6.574   5.395   7.133
99897SOL     OW 1587   9.505  10.553  11.483
99897SOL    HW1 1588   9.443  10.586  11.419
99897SOL    HW2 1589   9.571  10.507  11.432
99898SOL     OW 1590   7.057   9.298   2.384
99898SOL    HW1 1591   7.023   9.230   2.327
99898SOL    HW2 1592   7.009   9.287   2.466
99899SOL     OW 1593   5.414   3.232   3.461
99899SOL    HW1 1594   5.442   3.160   3.517
99899SOL    HW2 1595   5.418   3.197   3.372
99900SOL     OW 1596   6.987  14.811  10.640
99900SOL    HW1 1597   6.976  14.729  10.688
99900SOL    HW2 1598   6.921  14.870  10.678
99901SOL     OW 1599  14.378   5.939  11.901
99901SOL    HW1 1600  14.440   5.867  11.887
99901SOL    HW2 1601  14.310   5.924  11.835
99902SOL     OW 1602   3.041   6.126   1.083
99902SOL    HW1 1603   2.996   6.043   1.067
99902SOL    HW2 1604   2.997   6.163   1.160
99903SOL     OW 1605   6.159  11.252  11.418
99903SOL    HW1 1606   6.187  11.214  11.335
99903SOL    HW2 1607   6.069  11.282  11.402
99904SOL     OW 1608   8.780   1.413   1.740
99904SOL    HW1 1609   8.798   1.345   1.675
99904SOL    HW2 1610   8.691   1.444   1.719
99905SOL     OW 1611  10.434   2.954  11.111
99905SOL    HW1 1612  10.428   2.934  11.204
99905SOL    HW2 1613  10.526   2.935  11.089
99906SOL     OW 1614   4.199   3.092   5.321
99906SOL    HW1 1615   4.244   3.114   5.402
99906SOL    HW2 1616   4.149   3.013   5.341
99907SOL     OW 1617  10.492  14.198  10.473
99907SOL    HW1 1618  10.432  14.243  10.533
99907SOL    HW2 1619  10.437  14.165  10.403
99908SOL     OW 1620   9.731   8.645   2.608
99908SOL    HW1 1621   9.778   8.631   2.690
99908SOL    HW2 1622   9.659   8.582   2.610
99909SOL     OW 1623  11.716   1.278  11.057
99909SOL    HW1 1624  11.712   1.268  10.961
99909SOL    HW2 1625  11.746   1.368  11.069
99910SOL     OW 1626   5.391   9.197   8.859
99910SOL    HW1 1627   5.340   9.125   8.822
99910SOL    HW2 1628   5.446   9.155   8.926
99911SOL     OW 1629  10.968   0.882  14.715
99911SOL    HW1 1630  11.033   0.818  14.744
99911SOL    HW2 1631  10.994   0.904  14.625
99912SOL     OW 1632  12.702   5.800   8.493
99912SOL    HW1 1633  12.610   5.814   8.516
99912SOL    HW2 1634  12.706   5.815   8.398
99913SOL     OW 1635   1.028   0.275  10.449
99913SOL    HW1 1636   1.016   0.255  10.542
99913SOL    HW2 1637   0.972   0.213  10.403
99914SOL     OW 1638   5.998   9.401   6.994
99914SOL    HW1 1639   5.940   9.406   6.918
99914SOL    HW2 1640   5.953   9.345   7.056
99915SOL     OW 1641   3.764  12.965   5.818
99915SOL    HW1 1642   3.756  13.027   5.745
99915SOL    HW2 1643   3.694  12.902   5.804
99916SOL     OW 1644   2.598  11.381   8.655
99916SOL    HW1 1645   2.568  11.291   8.667
99916SOL    HW2 1646   2.581  11.423   8.739
99917SOL     OW 1647  10.478  14.152  12.885
99917SOL    HW1 1648  10.530  14.229  12.862
99917SOL    HW2 1649  10.523  14.079  12.843
99918SOL     OW 1650   2.434   4.204   1.305
99918SOL    HW1 1651   2.359   4.249   1.345
99918SOL    HW2 1652   2.460   4.139   1.370
99919SOL     OW 1653   5.173   8.837   9.169
99919SOL    HW1 1654   5.213   8.791   9.095
99919SOL    HW2 1655   5.198   8.785   9.245
99920SOL     OW 1656  14.271   0.013  13.576
99920SOL    HW1 1657  14.335   0.072  13.538
99920SOL    HW2 1658  14.320  14.842  13.641
99921SOL     OW 1659   6.793  12.854   0.519
99921SOL    HW1 1660   6.793  12.860   0.424
99921SOL    HW2 1661   6.801  12.761   0.538
99922SOL     OW 1662   9.021  14.869  12.707
99922SOL    HW1 1663   9.042   0.082  12.704
99922SOL    HW2 1664   9.090  14.827  12.656
99923SOL     OW 1665  12.084   3.266  10.999
99923SOL    HW1 1666  12.088   3.259  11.095
99923SOL    HW2 1667  12.096   3.176  10.969
99924SOL     OW 1668   3.706   7.529  10.587
99924SOL    HW1 1669   3.745   7.615  10.606
99924SOL    HW2 1670   3.675   7.498  10.671
99925SOL     OW 1671   1.099  12.287   3.811
99925SOL    HW1 1672   1.051  12.365   3.838
99925SOL    HW2 1673   1.036  12.215   3.820
99926SOL     OW 1674   7.153   9.511   0.525
99926SOL    HW1 1675   7.118   9.427   0.555
99926SOL    HW2 1676   7.235   9.488   0.483
99927SOL     OW 1677  13.942   3.544   3.860
99927SOL    HW1 1678  13.902   3.465   3.822
99927SOL    HW2 1679  13.908   3.616   3.807
99928SOL     OW 1680   5.404  11.828   5.799
99928SOL    HW1 1681   5.354  11.775   5.862
99928SOL    HW2 1682   5.412  11.772   5.722
99929SOL     OW 1683   7.764   3.337   2.079
99929SOL    HW1 1684   7.800   3.393   2.148
99929SOL    HW2 1685   7.769   3.249   2.115
99930SOL     OW 1686   9.224  14.586  11.349
99930SOL    HW1 1687   9.229  14.512  11.410
99930SOL    HW2 1688   9.164  14.648  11.391
99931SOL     OW 1689  12.704  10.909   0.776
99931SOL    HW1 1690  12.742  10.849   0.839
99931SOL    HW2 1691  12.682  10.854   0.700
99932SOL     OW 1692  13.794   0.119   6.562
99932SOL    HW1 1693  13.849   0.120   6.640
99932SOL    HW2 1694  13.811   0.203   6.520
99933SOL     OW 1695   8.464   1.242  13.437
99933SOL    HW1 1696   8.452   1.148  13.451
99933SOL    HW2 1697   8.558   1.253  13.428
99934SOL     OW 1698   4.184   1.789   9.978
99934SOL    HW1 1699   4.236   1.847   9.923
99934SOL    HW2 1700   4.123   1.746   9.918
99935SOL     OW 1701   7.266  10.276   2.443
99935SOL    HW1 1702   7.289  10.228   2.363
99935SOL    HW2 1703   7.222  10.211   2.498
99936SOL     OW 1704  11.316   4.552  10.334
99936SOL    HW1 1705  11.237   4.506  10.362
99936SOL    HW2 1706  11.286   4.612  10.265
99937SOL     OW 1707   6.153  13.994  10.500
99937SOL    HW1 1708   6.110  14.032  10.424
99937SOL    HW2 1709   6.154  13.900  10.481
99938SOL     OW 1710   1.289  13.560   1.795
99938SOL    HW1 1711   1.353  13.565   1.866
99938SOL    HW2 1712   1.272  13.651   1.771
99939SOL     OW 1713   8.571   0.056  10.167
99939SOL    HW1 1714   8.539   0.145  10.155
99939SOL    HW2 1715   8.498   0.000  10.140
99940SOL     OW 1716   6.292  12.770   9.310
99940SOL    HW1 1717   6.333  12.693   9.348
99940SOL    HW2 1718   6.273  12.745   9.220
99941SOL     OW 1719   3.685   7.181   6.719
99941SOL    HW1 1720   3.736   7.190   6.800
99941SOL    HW2 1721   3.602   7.224   6.738
99942SOL     OW 1722   3.702  11.123   1.163
99942SOL    HW1 1723   3.773  11.171   1.120
99942SOL    HW2 1724   3.745  11.080   1.237
99943SOL     OW 1725   4.832  13.282   4.315
99943SOL    HW1 1726   4.784  13.349   4.364
99943SOL    HW2 1727   4.855  13.217   4.380
99944SOL     OW 1728   1.637   5.760   3.537
99944SOL    HW1 1729   1.731   5.760   3.520
99944SOL    HW2 1730   1.610   5.851   3.523
99945SOL     OW 1731  12.000   1.288   6.159
99945SOL    HW1 1732  12.069   1.226   6.183
99945SOL    HW2 1733  12.021   1.312   6.068
99946SOL     OW 1734  12.701  13.721   4.397
99946SOL    HW1 1735  12.786  13.684   4.374
99946SOL    HW2 1736  12.710  13.814   4.381
99947SOL     OW 1737   5.914   1.775   6.772
99947SOL    HW1 1738   5.942   1.736   6.855
99947SOL    HW2 1739   5.972   1.736   6.706
99948SOL     OW 1740   0.930   3.942   0.242
99948SOL    HW1 1741   0.964   3.978   0.324
99948SOL    HW2 1742   0.852   3.993   0.224
99949SOL     OW 1743   6.769   3.653  12.361
99949SOL    HW1 1744   6.745   3.678  12.272
99949SOL    HW2 1745   6.689   3.666  12.412
99950SOL     OW 1746   8.621  14.451  13.274
99950SOL    HW1 1747   8.578  14.528  13.312
99950SOL    HW2 1748   8.608  14.461  13.180
99951SOL     OW 1749   3.311   4.492  13.000
99951SOL    HW1 1750   3.399   4.457  12.993
99951SOL    HW2 1751   3.301   4.550  12.924
99952SOL     OW 1752   9.630   6.427   5.506
99952SOL    HW1 1753   9.578   6.362   5.554
99952SOL    HW2 1754   9.684   6.468   5.573
99953SOL     OW 1755   8.363   9.350   8.870
99953SOL    HW1 1756   8.349   9.440   8.839
99953SOL    HW2 1757   8.281   9.305   8.850
99954SOL     OW 1758  14.828   6.083   4.415
99954SOL    HW1 1759  14.880   6.010   4.381
99954SOL    HW2 1760  14.832   6.149   4.345
99955SOL     OW 1761   5.406   1.398  11.114
99955SOL    HW1 1762   5.428   1.405  11.207
99955SOL    HW2 1763   5.317   1.365  11.112
99956SOL     OW 1764  11.469   6.905   2.446
99956SOL    HW1 1765  11.558   6.925   2.474
99956SOL    HW2 1766  11.475   6.821   2.401
99957SOL     OW 1767   9.294   2.749   9.452
99957SOL    HW1 1768   9.387   2.739   9.472
99957SOL    HW2 1769   9.251   2.678   9.501
99958SOL     OW 1770  10.664  12.618   5.412
99958SOL    HW1 1771  10.690  12.710   5.419
99958SOL    HW2 1772  10.619  12.613   5.328
99959SOL     OW 1773   5.880  10.237   0.692
99959SOL    HW1 1774   5.898  10.284   0.610
99959SOL    HW2 1775   5.832  10.300   0.746
99960SOL     OW 1776  12.808   5.935  12.431
99960SOL    HW1 1777  12.746   5.986  12.380
99960SOL    HW2 1778  12.871   5.999  12.464
99961SOL     OW 1779  11.627   1.221  12.244
99961SOL    HW1 1780  11.712   1.220  12.288
99961SOL    HW2 1781  11.627   1.143  12.188
99962SOL     OW 1782  11.783  10.267   0.387
99962SOL    HW1 1783  11.703  10.319   0.383
99962SOL    HW2 1784  11.853  10.327   0.364
99963SOL     OW 1785  10.038   1.921   7.000
99963SOL    HW1 1786  10.048   1.826   6.991
99963SOL    HW2 1787  10.125   1.955   6.980
99964SOL     OW 1788  10.113   8.909   5.097
99964SOL    HW1 1789  10.193   8.856   5.105
99964SOL    HW2 1790  10.078   8.888   5.011
99965SOL     OW 1791   6.000   5.430  11.982
99965SOL    HW1 1792   6.067   5.362  11.988
99965SOL    HW2 1793   5.949   5.421  12.063
99966SOL     OW 1794   7.790   1.958   2.553
99966SOL    HW1 1795   7.884   1.971   2.558
99966SOL    HW2 1796   7.754   2.014   2.622
99967SOL     OW 1797   7.786  10.302   2.296
99967SOL    HW1 1798   7.873  10.305   2.256
99967SOL    HW2 1799   7.803  10.301   2.390
99968SOL     OW 1800   3.392   5.938   0.448
99968SOL    HW1 1801   3.413   5.965   0.359
99968SOL    HW2 1802   3.463   5.974   0.501
99969SOL     OW 1803   9.969   9.761   4.762
99969SOL    HW1 1804   9.923   9.708   4.696
99969SOL    HW2 1805   9.899   9.795   4.819
99970SOL     OW 1806   8.413   1.359   6.255
99970SOL    HW1 1807   8.410   1.278   6.307
99970SOL    HW2 1808   8.382   1.427   6.315
99971SOL     OW 1809   9.670   9.973   0.676
99971SOL    HW1 1810   9.713   9.946   0.757
99971SOL    HW2 1811   9.713  10.054   0.651
99972SOL     OW 1812   3.490   1.207  10.386
99972SOL    HW1 1813   3.493   1.290  10.436
99972SOL    HW2 1814   3.467   1.141  10.452
99973SOL     OW 1815  13.268   6.434  13.611
99973SOL    HW1 1816  13.297   6.354  13.566
99973SOL    HW2 1817  13.286   6.417  13.704
99974SOL     OW 1818   7.627   1.900   5.003
99974SOL    HW1 1819   7.722   1.883   5.006
99974SOL    HW2 1820   7.620   1.993   4.983
99975SOL     OW 1821   7.063   9.137  13.635
99975SOL    HW1 1822   7.077   9.146  13.729
99975SOL    HW2 1823   6.968   9.128  13.626
99976SOL     OW 1824   3.470   8.531   8.660
99976SOL    HW1 1825   3.396   8.537   8.600
99976SOL    HW2 1826   3.439   8.569   8.741
99977SOL     OW 1827   2.172   7.074  13.943
99977SOL    HW1 1828   2.081   7.105  13.936
99977SOL    HW2 1829   2.217   7.142  13.992
99978SOL     OW 1830   4.271  13.672   5.663
99978SOL    HW1 1831   4.216  13.691   5.587
99978SOL    HW2 1832   4.291  13.578   5.655
99979SOL     OW 1833   6.866   0.964  13.142
99979SOL    HW1 1834   6.781   1.000  13.167
99979SOL    HW2 1835   6.854   0.869  13.148
99980SOL     OW 1836   2.974   0.209   5.991
99980SOL    HW1 1837   2.938   0.296   5.975
99980SOL    HW2 1838   3.019   0.216   6.075
99981SOL     OW 1839  13.540  13.718   2.570
99981SOL    HW1 1840  13.612  13.773   2.602
99981SOL    HW2 1841  13.513  13.667   2.646
99982SOL     OW 1842  10.017   7.241   1.398
99982SOL    HW1 1843   9.951   7.286   1.345
99982SOL    HW2 1844  10.101   7.273   1.364
99983SOL     OW 1845  10.365  11.999  13.911
99983SOL    HW1 1846  10.388  12.021  14.001
99983SOL    HW2 1847  10.412  11.917  13.894
99984SOL     OW 1848   5.603   3.320   8.768
99984SOL    HW1 1849   5.521   3.285   8.734
99984SOL    HW2 1850   5.655   3.338   8.689
99985SOL     OW 1851  10.234  14.650   2.911
99985SOL    HW1 1852  10.299  14.584   2.886
99985SOL    HW2 1853  10.271  14.692   2.989
99986SOL     OW 1854   6.307  12.195   2.022
99986SOL    HW1 1855   6.232  12.225   1.971
99986SOL    HW2 1856   6.276  12.194   2.112
99987SOL     OW 1857   3.524   6.244   9.287
99987SOL    HW1 1858   3.600   6.301   9.283
99987SOL    HW2 1859   3.482   6.265   9.371
99988SOL     OW 1860   4.271  11.060   9.782
99988SOL    HW1 1861   4.360  11.025   9.772
99988SOL    HW2 1862   4.224  11.027   9.706
99989SOL     OW 1863  14.275  11.449   4.553
99989SOL    HW1 1864  14.193  11.491   4.581
99989SOL    HW2 1865  14.252  11.403   4.472
99990SOL     OW 1866   1.689  10.182  10.845
99990SOL    HW1 1867   1.697  10.155  10.937
99990SOL    HW2 1868   1.754  10.251  10.834
99991SOL     OW 1869   3.246   4.652   7.600
99991SOL    HW1 1870   3.300   4.585   7.558
99991SOL    HW2 1871   3.305   4.726   7.613
99992SOL     OW 1872   0.377  10.886   9.971
99992SOL    HW1 1873   0.335  10.836  10.041
99992SOL    HW2 1874   0.445  10.936  10.016
99993SOL     OW 1875  12.801  14.283  13.499
99993SOL    HW1 1876  12.796  14.202  13.551
99993SOL    HW2 1877  12.893  14.310  13.507
99994SOL     OW 1878   1.344  13.923   1.347
99994SOL    HW1 1879   1.376  13.963   1.266
99994SOL    HW2 1880   1.394  13.842   1.356
99995SOL     OW 1881  13.121   5.283  11.292
99995SOL    HW1 1882  13.060   5.221  11.331
99995SOL    HW2 1883  13.088   5.296  11.203
99996SOL     OW 1884   9.893   5.702   7.356
99996SOL    HW1 1885   9.904   5.676   7.447
99996SOL    HW2 1886   9.805   5.740   7.352
99997SOL     OW 1887  10.810   4.624   6.345
99997SOL    HW1 1888  10.767   4.583   6.420
99997SOL    HW2 1889  10.792   4.564   6.272
99998SOL     OW 1890   7.940   7.066   0.030
99998SOL    HW1 1891   8.003   7.067   0.102
99998SOL    HW2 1892   7.970   7.134  14.850
99999SOL     OW 1893   7.073  11.737   9.108
99999SOL    HW1 1894   6.991  11.773   9.075
99999SOL    HW2 1895   7.080  11.651   9.067
    0SOL     OW 1896  12.616  12.167   1.211
    0SOL    HW1 1897  12.521  12.160   1.207
    0SOL    HW2 1898  12.636  12.252   1.171
    1SOL     OW 1899   9.113  10.208  14.627
    1SOL    HW1 1900   9.161  10.289  14.645
    1SOL    HW2 1901   9.157  10.142  14.681
    2SOL     OW 1902  13.631   4.643   8.488
    2SOL    HW1 1903  13.633   4.680   8.576
    2SOL    HW2 1904  13.710   4.588   8.482
    3SOL     OW 1905   8.927  14.400   5.776
    3SOL    HW1 1906   8.902  14.321   5.823
    3SOL    HW2 1907   9.014  14.381   5.741
    4SOL     OW 1908  13.136  12.122  11.673
    4SOL    HW1 1909  13.076  12.195  11.654
    4SOL    HW2 1910  13.086  12.044  11.648
    5SOL     OW 1911  13.036   8.021   8.990
    5SOL    HW1 1912  12.993   7.987   9.068
    5SOL    HW2 1913  12.985   7.987   8.917
    6SOL     OW 1914   6.206   7.523  12.337
    6SOL    HW1 1915   6.164   7.438  12.342
    6SOL    HW2 1916   6.220   7.549  12.429
    7SOL     OW 1917  10.075   8.616  10.430
    7SOL    HW1 1918  10.134   8.680  10.389
    7SOL    HW2 1919  10.008   8.669  10.473
    8SOL     OW 1920  12.883  14.530   2.675
    8SOL    HW1 1921  12.860  14.490   2.591
    8SOL    HW2 1922  12.957  14.587   2.656
    9SOL     OW 1923   1.077   7.339   1.958
    9SOL    HW1 1924   1.105   7.357   1.868
    9SOL    HW2 1925   1.118   7.409   2.010
   10SOL     OW 1926  10.343   1.528   8.857
   10SOL    HW1 1927  10.332   1.465   8.927
   10SOL    HW2 1928  10.342   1.614   8.901
   11SOL     OW 1929   0.190   2.228  14.474
   11SOL    HW1 1930   0.137   2.181  14.539
   11SOL    HW2 1931   0.207   2.313  14.513
   12SOL     OW 1932   6.774   4.034   9.235
   12SOL    HW1 1933   6.864   4.004   9.222
   12SOL    HW2 1934   6.772   4.123   9.199
   13SOL     OW 1935   6.447  12.145   9.233
   13SOL    HW1 1936   6.362  12.151   9.190
   13SOL    HW2 1937   6.427  12.159   9.326
   14SOL     OW 1938   3.099   7.114   6.403
   14SOL    HW1 1939   3.013   7.125   6.445
   14SOL    HW2 1940   3.079   7.105   6.310
   15SOL     OW 1941   0.423   3.250   4.686
   15SOL    HW1 1942   0.450   3.158   4.679
   15SOL    HW2 1943   0.369   3.265   4.609
   16SOL     OW 1944   6.594   2.347   4.535
   16SOL    HW1 1945   6.647   2.408   4.485
   16SOL    HW2 1946   6.525   2.319   4.475
   17SOL     OW 1947   4.615   7.692   1.443
   17SOL    HW1 1948   4.527   7.680   1.480
   17SOL    HW2 1949   4.599   7.727   1.355
   18SOL     OW 1950   6.483   7.461   6.620
   18SOL    HW1 1951   6.567   7.416   6.631
   18SOL    HW2 1952   6.506   7.543   6.576
   19SOL     OW 1953  11.690  13.839  11.452
   19SOL    HW1 1954  11.673  13.757  11.499
   19SOL    HW2 1955  11.748  13.888  11.511
   20SOL     OW 1956   5.636   2.560  11.185
   20SOL    HW1 1957   5.619   2.468  11.205
   20SOL    HW2 1958   5.729   2.563  11.163
   21SOL     OW 1959  13.524  11.307  14.596
   21SOL    HW1 1960  13.476  11.376  14.641
   21SOL    HW2 1961  13.554  11.348  14.515
   22SOL     OW 1962  11.509   4.385  10.277
   22SOL    HW1 1963  11.439   4.444  10.303
   22SOL    HW2 1964  11.502   4.378  10.182
   23SOL     OW 1965   3.910   6.541   5.666
   23SOL    HW1 1966   3.949   6.493   5.739
   23SOL    HW2 1967   3.872   6.472   5.610
   24SOL     OW 1968  10.534  13.251   0.949
   24SOL    HW1 1969  10.571  13.200   1.021
   24SOL    HW2 1970  10.606  13.306   0.919
   25SOL     OW 1971   8.287   7.293   7.083
   25SOL    HW1 1972   8.206   7.344   7.075
   25SOL    HW2 1973   8.271   7.233   7.155
   26SOL     OW 1974  10.502   0.624  10.421
   26SOL    HW1 1975  10.453   0.704  10.399
   26SOL    HW2 1976  10.575   0.624  10.360
   27SOL     OW 1977   3.708   2.571  14.546
   27SOL    HW1 1978   3.679   2.550  14.457
   27SOL    HW2 1979   3.736   2.663  14.541
   28SOL     OW 1980   5.068  13.641   2.311
   28SOL    HW1 1981   5.091  13.699   2.384
   28SOL    HW2 1982   5.005  13.579   2.348
   29SOL     OW 1983   8.877  13.529   0.903
   29SOL    HW1 1984   8.823  13.460   0.866
   29SOL    HW2 1985   8.962  13.487   0.919
   30SOL     OW 1986   1.242   2.812   6.204
   30SOL    HW1 1987   1.212   2.833   6.116
   30SOL    HW2 1988   1.324   2.766   6.191
   31SOL     OW 1989   6.604  12.657  11.941
   31SOL    HW1 1990   6.580  12.577  11.894
   31SOL    HW2 1991   6.576  12.641  12.031
   32SOL     OW 1992  13.854  10.460   8.523
   32SOL    HW1 1993  13.945  10.491   8.515
   32SOL    HW2 1994  13.813  10.486   8.440
   33SOL     OW 1995   6.901   6.543   9.138
   33SOL    HW1 1996   6.813   6.509   9.122
   33SOL    HW2 1997   6.908   6.549   9.233
   34SOL     OW 1998   1.534   5.490   8.422
   34SOL    HW1 1999   1.556   5.524   8.509
   34SOL    HW2 2000   1.455   5.537   8.397
   35SOL     OW 2001  13.844   4.363   1.372
   35SOL    HW1 2002  13.886   4.446   1.394
   35SOL    HW2 2003  13.905   4.322   1.310
   36SOL     OW 2004   8.946  13.852   5.756
   36SOL    HW1 2005   8.962  13.849   5.662
   36SOL    HW2 2006   8.856  13.820   5.767
   37SOL     OW 2007   8.087   8.398   8.435
   37SOL    HW1 2008   7.998   8.413   8.402
   37SOL    HW2 2009   8.079   8.323   8.493
   38SOL     OW 2010  10.399  13.419  14.670
   38SOL    HW1 2011  10.450  13.354  14.719
   38SOL    HW2 2012  10.314  13.377  14.655
   39SOL     OW 2013   1.738   5.075  12.516
   39SOL    HW1 2014   1.831   5.080  12.492
   39SOL    HW2 2015   1.692   5.096  12.435
   40SOL     OW 2016   3.001   7.589  10.005
   40SOL    HW1 2017   3.028   7.656   9.943
   40SOL    HW2 2018   3.043   7.614  10.087
   41SOL     OW 2019   4.841   1.757   5.693
   41SOL    HW1 2020   4.931   1.750   5.724
   41SOL    HW2 2021   4.826   1.852   5.684
   42SOL     OW 2022   9.796   0.315   6.631
   42SOL    HW1 2023   9.794   0.221   6.612
   42SOL    HW2 2024   9.710   0.334   6.668
   43SOL     OW 2025   5.408  11.010   2.642
   43SOL    HW1 2026   5.320  10.995   2.676
   43SOL    HW2 2027   5.403  10.985   2.550
   44SOL     OW 2028   2.890  12.051  12.390
   44SOL    HW1 2029   2.933  12.049  12.304
   44SOL    HW2 2030   2.917  12.134  12.428
   45SOL     OW 2031   6.333   2.298   0.758
   45SOL    HW1 2032   6.241   2.321   0.744
   45SOL    HW2 2033   6.379   2.341   0.686
   46SOL     OW 2034  14.648  12.154   5.010
   46SOL    HW1 2035  14.708  12.205   4.955
   46SOL    HW2 2036  14.598  12.220   5.057
   47SOL     OW 2037   9.399   7.619   7.210
   47SOL    HW1 2038   9.398   7.634   7.115
   47SOL    HW2 2039   9.311   7.587   7.231
   48SOL     OW 2040   8.106   8.266  10.076
   48SOL    HW1 2041   8.099   8.184  10.027
   48SOL    HW2 2042   8.190   8.303  10.050
   49SOL     OW 2043   9.731   3.929  13.092
   49SOL    HW1 2044   9.723   3.970  13.006
   49SOL    HW2 2045   9.751   3.838  13.073
   50SOL     OW 2046   4.261   4.626   8.997
   50SOL    HW1 2047   4.313   4.617   8.917
   50SOL    HW2 2048   4.209   4.705   8.983
   51SOL     OW 2049   8.027  10.833   8.150
   51SOL    HW1 2050   7.962  10.804   8.213
   51SOL    HW2 2051   7.992  10.806   8.065
   52SOL     OW 2052  10.711  10.142   9.567
   52SOL    HW1 2053  10.620  10.169   9.582
   52SOL    HW2 2054  10.717  10.128   9.473
   53SOL     OW 2055   6.389   9.107  10.223
   53SOL    HW1 2056   6.395   9.107  10.318
   53SOL    HW2 2057   6.353   9.193  10.201
   54SOL     OW 2058  13.819   1.240   2.392
   54SOL    HW1 2059  13.886   1.221   2.458
   54SOL    HW2 2060  13.736   1.231   2.439
   55SOL     OW 2061   8.906   4.731  14.875
   55SOL    HW1 2062   8.980   4.692   0.041
   55SOL    HW2 2063   8.935   4.734  14.784
   56SOL     OW 2064   1.092  13.885   8.715
   56SOL    HW1 2065   1.079  13.793   8.691
   56SOL    HW2 2066   1.064  13.934   8.638
   57SOL     OW 2067   0.242  12.072  13.375
   57SOL    HW1 2068   0.154  12.089  13.341
   57SOL    HW2 2069   0.255  11.978  13.364
   58SOL     OW 2070  13.669   8.139   6.935
   58SOL    HW1 2071  13.581   8.139   6.973
   58SOL    HW2 2072  13.655   8.123   6.842
   59SOL     OW 2073   5.135   6.801   9.969
   59SOL    HW1 2074   5.152   6.853   9.891
   59SOL    HW2 2075   5.209   6.820  10.027
   60SOL     OW 2076   6.526   1.154   1.463
   60SOL    HW1 2077   6.548   1.115   1.547
   60SOL    HW2 2078   6.435   1.181   1.471
   61SOL     OW 2079   1.125   0.418  11.199
   61SOL    HW1 2080   1.112   0.408  11.293
   61SOL    HW2 2081   1.219   0.403  11.185
   62SOL     OW 2082   8.899  11.719   9.490
   62SOL    HW1 2083   8.915  11.799   9.440
   62SOL    HW2 2084   8.804  11.717   9.502
   63SOL     OW 2085   4.228   6.112   5.760
   63SOL    HW1 2086   4.246   6.206   5.756
   63SOL    HW2 2087   4.272   6.076   5.684
   64SOL     OW 2088   2.475   5.501  10.523
   64SOL    HW1 2089   2.447   5.511  10.614
   64SOL    HW2 2090   2.542   5.432  10.527
   65SOL     OW 2091   6.942  13.204  13.288
   65SOL    HW1 2092   6.944  13.109  13.278
   65SOL    HW2 2093   7.028  13.233  13.258
   66SOL     OW 2094   0.188  13.797  11.851
   66SOL    HW1 2095   0.235  13.726  11.806
   66SOL    HW2 2096   0.127  13.752  11.909
   67SOL     OW 2097   9.133  13.918  12.527
   67SOL    HW1 2098   9.177  13.963  12.599
   67SOL    HW2 2099   9.072  13.857  12.570
   68SOL     OW 2100  12.547  11.014  12.045
   68SOL    HW1 2101  12.625  10.969  12.078
   68SOL    HW2 2102  12.486  11.012  12.118
   69SOL     OW 2103   4.600   5.520   6.041
   69SOL    HW1 2104   4.582   5.593   5.982
   69SOL    HW2 2105   4.693   5.530   6.064
   70SOL     OW 2106   0.076   8.381   9.063
   70SOL    HW1 2107   0.061   8.398   8.970
   70SOL    HW2 2108  14.871   8.353   9.096
   71SOL     OW 2109   8.653   3.665  14.223
   71SOL    HW1 2110   8.592   3.728  14.183
   71SOL    HW2 2111   8.612   3.579  14.207
   72SOL     OW 2112  11.917  14.742   0.265
   72SOL    HW1 2113  11.835  14.715   0.223
   72SOL    HW2 2114  11.894  14.819   0.316
   73SOL     OW 2115   5.161   9.222   5.146
   73SOL    HW1 2116   5.175   9.128   5.163
   73SOL    HW2 2117   5.105   9.224   5.068
   74SOL     OW 2118   8.306  13.750   7.487
   74SOL    HW1 2119   8.382  13.792   7.527
   74SOL    HW2 2120   8.283  13.680   7.548
   75SOL     OW 2121   2.361   0.726   4.718
   75SOL    HW1 2122   2.375   0.795   4.783
   75SOL    HW2 2123   2.431   0.663   4.735
   76SOL     OW 2124  10.016   1.465   5.727
   76SOL    HW1 2125   9.959   1.528   5.682
   76SOL    HW2 2126   9.976   1.455   5.813
   77SOL     OW 2127   4.512   1.432  13.314
   77SOL    HW1 2128   4.454   1.402  13.244
   77SOL    HW2 2129   4.594   1.385  13.299
   78SOL     OW 2130  12.635   9.720   5.251
   78SOL    HW1 2131  12.604   9.800   5.294
   78SOL    HW2 2132  12.643   9.745   5.159
   79SOL     OW 2133   1.008   5.468   7.489
   79SOL    HW1 2134   0.946   5.489   7.560
   79SOL    HW2 2135   1.074   5.413   7.531
   80SOL     OW 2136   2.964   9.050  13.917
   80SOL    HW1 2137   2.947   9.139  13.887
   80SOL    HW2 2138   2.996   9.004  13.839
   81SOL     OW 2139  13.938   6.535   6.435
   81SOL    HW1 2140  13.845   6.548   6.419
   81SOL    HW2 2141  13.943   6.455   6.486
   82SOL     OW 2142  12.899   3.833   4.333
   82SOL    HW1 2143  12.954   3.814   4.409
   82SOL    HW2 2144  12.830   3.890   4.367
   83SOL     OW 2145  12.793   1.866   3.287
   83SOL    HW1 2146  12.723   1.883   3.224
   83SOL    HW2 2147  12.824   1.953   3.312
   84SOL     OW 2148   6.533  12.126   2.740
   84SOL    HW1 2149   6.504  12.050   2.690
   84SOL    HW2 2150   6.628  12.114   2.748
   85SOL     OW 2151  13.381   8.887   9.427
   85SOL    HW1 2152  13.348   8.976   9.418
   85SOL    HW2 2153  13.461   8.896   9.479
   86SOL     OW 2154  14.224  12.932  10.893
   86SOL    HW1 2155  14.267  12.971  10.817
   86SOL    HW2 2156  14.296  12.903  10.949
   87SOL     OW 2157   6.214   3.746   6.660
   87SOL    HW1 2158   6.254   3.762   6.575
   87SOL    HW2 2159   6.250   3.815   6.716
   88SOL     OW 2160  10.081   8.684   0.829
   88SOL    HW1 2161  10.175   8.666   0.836
   88SOL    HW2 2162  10.039   8.605   0.862
   89SOL     OW 2163   7.416   5.784   4.510
   89SOL    HW1 2164   7.331   5.828   4.514
   89SOL    HW2 2165   7.434   5.757   4.600
   90SOL     OW 2166   8.843  12.658   8.346
   90SOL    HW1 2167   8.757  12.697   8.361
   90SOL    HW2 2168   8.825  12.570   8.315
   91SOL     OW 2169   8.660   9.823   1.462
   91SOL    HW1 2170   8.692   9.804   1.550
   91SOL    HW2 2171   8.727   9.879   1.423
   92SOL     OW 2172   1.945   4.664   7.739
   92SOL    HW1 2173   2.027   4.714   7.733
   92SOL    HW2 2174   1.921   4.669   7.832
   93SOL     OW 2175  13.832  13.041  10.427
   93SOL    HW1 2176  13.760  13.025  10.488
   93SOL    HW2 2177  13.804  13.118  10.378
   94SOL     OW 2178  12.512   8.582  10.072
   94SOL    HW1 2179  12.498   8.646  10.002
   94SOL    HW2 2180  12.452   8.608  10.141
   95SOL     OW 2181   1.091  13.064   2.795
   95SOL    HW1 2182   1.065  13.088   2.884
   95SOL    HW2 2183   1.057  12.976   2.782
   96SOL     OW 2184   4.552   8.690   9.061
   96SOL    HW1 2185   4.586   8.668   8.975
   96SOL    HW2 2186   4.629   8.702   9.116
   97SOL     OW 2187   4.958   1.586   6.334
   97SOL    HW1 2188   4.989   1.668   6.372
   97SOL    HW2 2189   4.874   1.608   6.293
   98SOL     OW 2190   9.514   5.713  12.721
   98SOL    HW1 2191   9.544   5.687  12.808
   98SOL    HW2 2192   9.583   5.683  12.662
   99SOL     OW 2193   3.358  11.473   4.601
   99SOL    HW1 2194   3.375  11.382   4.626
   99SOL    HW2 2195   3.442  11.517   4.614
  100SOL     OW 2196   0.818   1.899  11.657
  100SOL    HW1 2197   0.857   1.983  11.635
  100SOL    HW2 2198   0.724   1.912  11.642
  101SOL     OW 2199  14.537  11.265   5.396
  101SOL    HW1 2200  14.462  11.275   5.338
  101SOL    HW2 2201  14.610  11.245   5.337
  102SOL     OW 2202   0.852   4.082   2.508
  102SOL    HW1 2203   0.923   4.053   2.451
  102SOL    HW2 2204   0.842   4.175   2.489
  103SOL     OW 2205   1.976  13.860  13.169
  103SOL    HW1 2206   1.895  13.825  13.204
  103SOL    HW2 2207   2.037  13.787  13.172
  104SOL     OW 2208   2.465  13.900   4.368
  104SOL    HW1 2209   2.471  13.962   4.440
  104SOL    HW2 2210   2.399  13.937   4.309
  105SOL     OW 2211  12.552   9.916  13.963
  105SOL    HW1 2212  12.519   9.847  13.905
  105SOL    HW2 2213  12.475   9.941  14.015
  106SOL     OW 2214  11.220   9.368  10.014
  106SOL    HW1 2215  11.288   9.301  10.018
  106SOL    HW2 2216  11.158   9.336   9.948
  107SOL     OW 2217   2.611   7.882  14.630
  107SOL    HW1 2218   2.606   7.887  14.534
  107SOL    HW2 2219   2.523   7.860  14.657
  108SOL     OW 2220   9.639   2.784   0.928
  108SOL    HW1 2221   9.583   2.811   1.000
  108SOL    HW2 2222   9.654   2.864   0.877
  109SOL     OW 2223   5.229   8.762   3.602
  109SOL    HW1 2224   5.269   8.832   3.652
  109SOL    HW2 2225   5.292   8.689   3.608
  110SOL     OW 2226   0.976  14.543   0.966
  110SOL    HW1 2227   1.045  14.600   0.933
  110SOL    HW2 2228   0.900  14.600   0.977
  111SOL     OW 2229   4.600   9.271   6.139
  111SOL    HW1 2230   4.630   9.324   6.064
  111SOL    HW2 2231   4.609   9.330   6.214
  112SOL     OW 2232   1.695  14.551   4.872
  112SOL    HW1 2233   1.663  14.602   4.946
  112SOL    HW2 2234   1.773  14.598   4.843
  113SOL     OW 2235   3.603   4.238  11.734
  113SOL    HW1 2236   3.675   4.186  11.696
  113SOL    HW2 2237   3.529   4.177  11.737
  114SOL     OW 2238   2.077   1.057  14.825
  114SOL    HW1 2239   2.038   1.130  14.872
  114SOL    HW2 2240   2.009   1.030  14.763
  115SOL     OW 2241  10.723  10.575  13.512
  115SOL    HW1 2242  10.728  10.657  13.560
  115SOL    HW2 2243  10.779  10.588  13.435
  116SOL     OW 2244   5.434   2.845   5.395
  116SOL    HW1 2245   5.456   2.796   5.316
  116SOL    HW2 2246   5.444   2.937   5.370
  117SOL     OW 2247   3.743   7.754   1.940
  117SOL    HW1 2248   3.706   7.668   1.959
  117SOL    HW2 2249   3.671   7.802   1.898
  118SOL     OW 2250   0.202  12.020   0.816
  118SOL    HW1 2251   0.264  11.981   0.754
  118SOL    HW2 2252   0.121  11.970   0.803
  119SOL     OW 2253  10.679   2.120   5.128
  119SOL    HW1 2254  10.722   2.174   5.194
  119SOL    HW2 2255  10.589   2.153   5.126
  120SOL     OW 2256   8.340   3.634  10.043
  120SOL    HW1 2257   8.413   3.687  10.009
  120SOL    HW2 2258   8.327   3.567   9.976
  121SOL     OW 2259   9.698  10.659   7.328
  121SOL    HW1 2260   9.703  10.605   7.250
  121SOL    HW2 2261   9.782  10.704   7.332
  122SOL     OW 2262   0.675   1.724  12.747
  122SOL    HW1 2263   0.695   1.644  12.699
  122SOL    HW2 2264   0.710   1.794  12.692
  123SOL     OW 2265  13.294   3.123  12.319
  123SOL    HW1 2266  13.355   3.075  12.375
  123SOL    HW2 2267  13.208   3.100  12.353
  124SOL     OW 2268   4.002   0.217   3.414
  124SOL    HW1 2269   3.961   0.303   3.406
  124SOL    HW2 2270   4.062   0.226   3.487
  125SOL     OW 2271   9.073   8.291   7.382
  125SOL    HW1 2272   9.136   8.320   7.448
  125SOL    HW2 2273   8.989   8.328   7.410
  126SOL     OW 2274  10.726  13.254  14.710
  126SOL    HW1 2275  10.755  13.229  14.622
  126SOL    HW2 2276  10.760  13.186  14.767
  127SOL     OW 2277   1.982  13.938   6.152
  127SOL    HW1 2278   1.985  13.870   6.219
  127SOL    HW2 2279   2.051  13.999   6.176
  128SOL     OW 2280   0.232   7.380   0.715
  128SOL    HW1 2281   0.252   7.463   0.759
  128SOL    HW2 2282   0.206   7.321   0.786
  129SOL     OW 2283  11.801   5.108   4.152
  129SOL    HW1 2284  11.796   5.159   4.233
  129SOL    HW2 2285  11.880   5.055   4.163
  130SOL     OW 2286   7.900   3.148   4.658
  130SOL    HW1 2287   7.954   3.094   4.600
  130SOL    HW2 2288   7.857   3.211   4.599
  131SOL     OW 2289  13.647  13.641  13.576
  131SOL    HW1 2290  13.558  13.676  13.576
  131SOL    HW2 2291  13.690  13.686  13.504
  132SOL     OW 2292   9.086   8.174   7.131
  132SOL    HW1 2293   9.076   8.225   7.211
  132SOL    HW2 2294   9.017   8.207   7.073
  133SOL     OW 2295   3.134   9.512   8.320
  133SOL    HW1 2296   3.114   9.420   8.339
  133SOL    HW2 2297   3.055   9.546   8.278
  134SOL     OW 2298   9.037   4.569  10.689
  134SOL    HW1 2299   9.025   4.664  10.681
  134SOL    HW2 2300   9.002   4.548  10.775
  135SOL     OW 2301   4.511   2.391  11.230
  135SOL    HW1 2302   4.492   2.389  11.136
  135SOL    HW2 2303   4.606   2.407  11.234
  136SOL     OW 2304   9.946   1.816   8.366
  136SOL    HW1 2305   9.939   1.820   8.271
  136SOL    HW2 2306   9.934   1.723   8.387
  137SOL     OW 2307   2.337  13.274   4.455
  137SOL    HW1 2308   2.255  13.247   4.413
  137SOL    HW2 2309   2.310  13.332   4.526
  138SOL     OW 2310  13.450  11.985  11.356
  138SOL    HW1 2311  13.474  11.945  11.273
  138SOL    HW2 2312  13.470  12.078  11.346
  139SOL     OW 2313  12.633   1.504  12.365
  139SOL    HW1 2314  12.596   1.571  12.307
  139SOL    HW2 2315  12.707   1.468  12.316
  140SOL     OW 2316  12.534   9.777   5.855
  140SOL    HW1 2317  12.612   9.828   5.834
  140SOL    HW2 2318  12.565   9.710   5.916
  141SOL     OW 2319   8.122   3.256   9.157
  141SOL    HW1 2320   8.187   3.193   9.126
  141SOL    HW2 2321   8.041   3.206   9.166
  142SOL     OW 2322   4.269   9.036   5.025
  142SOL    HW1 2323   4.324   8.967   4.988
  142SOL    HW2 2324   4.198   8.990   5.069
  143SOL     OW 2325   8.057   0.269   2.153
  143SOL    HW1 2326   7.965   0.246   2.167
  143SOL    HW2 2327   8.088   0.205   2.089
  144SOL     OW 2328   8.314  10.996  11.685
  144SOL    HW1 2329   8.317  10.923  11.623
  144SOL    HW2 2330   8.382  10.976  11.750
  145SOL     OW 2331   4.983  10.640  10.968
  145SOL    HW1 2332   4.902  10.689  10.954
  145SOL    HW2 2333   5.018  10.674  11.050
  146SOL     OW 2334   2.594  11.785   6.216
  146SOL    HW1 2335   2.654  11.851   6.180
  146SOL    HW2 2336   2.629  11.702   6.186
  147SOL     OW 2337   4.518   4.620  10.745
  147SOL    HW1 2338   4.478   4.547  10.792
  147SOL    HW2 2339   4.466   4.697  10.770
  148SOL     OW 2340   4.480  13.934   9.618
  148SOL    HW1 2341   4.393  13.895   9.617
  148SOL    HW2 2342   4.471  14.012   9.674
  149SOL     OW 2343  13.384   7.762   9.055
  149SOL    HW1 2344  13.391   7.850   9.016
  149SOL    HW2 2345  13.306   7.766   9.109
  150SOL     OW 2346   7.441  14.523  11.958
  150SOL    HW1 2347   7.451  14.428  11.966
  150SOL    HW2 2348   7.398  14.536  11.874
  151SOL     OW 2349   8.124   4.537   0.617
  151SOL    HW1 2350   8.088   4.564   0.533
  151SOL    HW2 2351   8.048   4.518   0.671
  152SOL     OW 2352  12.282   3.930   1.979
  152SOL    HW1 2353  12.347   3.937   2.048
  152SOL    HW2 2354  12.231   3.852   2.001
  153SOL     OW 2355   0.386  12.663   7.560
  153SOL    HW1 2356   0.300  12.694   7.592
  153SOL    HW2 2357   0.410  12.593   7.621
  154SOL     OW 2358   8.026   4.217   3.175
  154SOL    HW1 2359   7.936   4.229   3.147
  154SOL    HW2 2360   8.075   4.284   3.127
  155SOL     OW 2361  10.301  13.668   0.860
  155SOL    HW1 2362  10.266  13.646   0.947
  155SOL    HW2 2363  10.374  13.607   0.848
  156SOL     OW 2364   7.994   3.329   1.019
  156SOL    HW1 2365   7.992   3.404   1.080
  156SOL    HW2 2366   7.906   3.326   0.982
  157SOL     OW 2367  12.842   7.482   0.547
  157SOL    HW1 2368  12.899   7.409   0.572
  157SOL    HW2 2369  12.848   7.544   0.619
  158SOL     OW 2370   3.557  13.260   1.174
  158SOL    HW1 2371   3.568  13.238   1.082
  158SOL    HW2 2372   3.637  13.308   1.197
  159SOL     OW 2373   7.564  13.067  11.841
  159SOL    HW1 2374   7.644  13.018  11.857
  159SOL    HW2 2375   7.535  13.038  11.754
  160SOL     OW 2376  13.722  10.055   2.997
  160SOL    HW1 2377  13.769  10.087   2.920
  160SOL    HW2 2378  13.636  10.030   2.964
  161SOL     OW 2379   5.522  13.430   2.057
  161SOL    HW1 2380   5.435  13.391   2.052
  161SOL    HW2 2381   5.513  13.503   2.118
  162SOL     OW 2382  11.977   6.562   1.899
  162SOL    HW1 2383  11.904   6.532   1.952
  162SOL    HW2 2384  11.982   6.499   1.827
  163SOL     OW 2385   0.230   9.473   7.513
  163SOL    HW1 2386   0.280   9.409   7.565
  163SOL    HW2 2387   0.162   9.422   7.470
  164SOL     OW 2388   7.444  10.546  12.121
  164SOL    HW1 2389   7.502  10.604  12.171
  164SOL    HW2 2390   7.501  10.476  12.091
  165SOL     OW 2391  14.105   7.751   5.509
  165SOL    HW1 2392  14.135   7.690   5.442
  165SOL    HW2 2393  14.010   7.749   5.503
  166SOL     OW 2394   6.394  12.434  12.989
  166SOL    HW1 2395   6.484  12.419  12.960
  166SOL    HW2 2396   6.403  12.458  13.082
  167SOL     OW 2397   9.009   6.734   6.054
  167SOL    HW1 2398   8.954   6.662   6.085
  167SOL    HW2 2399   8.979   6.810   6.105
  168SOL     OW 2400   6.030  14.518  14.819
  168SOL    HW1 2401   6.033  14.599  14.768
  168SOL    HW2 2402   5.963  14.465  14.776
  169SOL     OW 2403  12.332   0.283  10.248
  169SOL    HW1 2404  12.364   0.335  10.321
  169SOL    HW2 2405  12.239   0.307  10.241
  170SOL     OW 2406   1.904  11.045   1.478
  170SOL    HW1 2407   1.818  11.016   1.449
  170SOL    HW2 2408   1.896  11.053   1.573
  171SOL     OW 2409  10.184  10.279   4.105
  171SOL    HW1 2410  10.173  10.323   4.189
  171SOL    HW2 2411  10.252  10.214   4.120
  172SOL     OW 2412   9.704  10.730   4.641
  172SOL    HW1 2413   9.739  10.797   4.583
  172SOL    HW2 2414   9.625  10.769   4.678
  173SOL     OW 2415   9.266   6.802   6.383
  173SOL    HW1 2416   9.347   6.786   6.431
  173SOL    HW2 2417   9.198   6.798   6.450
  174SOL     OW 2418   0.903   0.052   5.330
  174SOL    HW1 2419   0.924  14.853   5.378
  174SOL    HW2 2420   0.954   0.121   5.373
  175SOL     OW 2421   9.280   7.813  10.384
  175SOL    HW1 2422   9.265   7.718  10.391
  175SOL    HW2 2423   9.304   7.827  10.292
  176SOL     OW 2424  14.686  12.728   6.829
  176SOL    HW1 2425  14.613  12.781   6.798
  176SOL    HW2 2426  14.701  12.665   6.759
  177SOL     OW 2427   4.930   4.229   6.898
  177SOL    HW1 2428   4.894   4.315   6.875
  177SOL    HW2 2429   5.007   4.220   6.841
  178SOL     OW 2430   8.760   7.571   0.387
  178SOL    HW1 2431   8.771   7.627   0.310
  178SOL    HW2 2432   8.669   7.584   0.413
  179SOL     OW 2433  10.858  14.544  10.632
  179SOL    HW1 2434  10.903  14.606  10.574
  179SOL    HW2 2435  10.817  14.599  10.698
  180SOL     OW 2436   7.871   8.666   9.742
  180SOL    HW1 2437   7.884   8.718   9.820
  180SOL    HW2 2438   7.941   8.694   9.682
  181SOL     OW 2439   6.567   9.276   3.709
  181SOL    HW1 2440   6.510   9.204   3.682
  181SOL    HW2 2441   6.601   9.250   3.794
  182SOL     OW 2442   1.787   1.221   7.443
  182SOL    HW1 2443   1.848   1.213   7.370
  182SOL    HW2 2444   1.728   1.291   7.417
  183SOL     OW 2445   5.342   9.173   4.161
  183SOL    HW1 2446   5.330   9.193   4.254
  183SOL    HW2 2447   5.297   9.243   4.114
  184SOL     OW 2448  14.239   5.753   7.488
  184SOL    HW1 2449  14.162   5.699   7.504
  184SOL    HW2 2450  14.234   5.775   7.395
  185SOL     OW 2451   9.697   6.444   6.914
  185SOL    HW1 2452   9.680   6.494   6.834
  185SOL    HW2 2453   9.790   6.455   6.930
  186SOL     OW 2454  14.595   3.821   9.987
  186SOL    HW1 2455  14.533   3.749   9.984
  186SOL    HW2 2456  14.679   3.781   9.963
  187SOL     OW 2457  12.748   9.552   4.554
  187SOL    HW1 2458  12.781   9.504   4.478
  187SOL    HW2 2459  12.690   9.619   4.517
  188SOL     OW 2460   8.200  13.718  14.163
  188SOL    HW1 2461   8.255  13.720  14.241
  188SOL    HW2 2462   8.232  13.644  14.112
  189SOL     OW 2463   9.061  14.654   8.762
  189SOL    HW1 2464   9.105  14.713   8.701
  189SOL    HW2 2465   8.979  14.699   8.783
  190SOL     OW 2466  14.270   3.620  11.926
  190SOL    HW1 2467  14.323   3.541  11.926
  190SOL    HW2 2468  14.208   3.607  11.998
  191SOL     OW 2469   7.567   7.881   5.797
  191SOL    HW1 2470   7.571   7.948   5.729
  191SOL    HW2 2471   7.626   7.812   5.767
  192SOL     OW 2472  14.472  12.351   8.502
  192SOL    HW1 2473  14.514  12.399   8.431
  192SOL    HW2 2474  14.383  12.336   8.471
  193SOL     OW 2475   7.156   1.503  13.662
  193SOL    HW1 2476   7.192   1.427  13.617
  193SOL    HW2 2477   7.215   1.575  13.639
  194SOL     OW 2478   6.185   4.839   7.075
  194SOL    HW1 2479   6.246   4.766   7.074
  194SOL    HW2 2480   6.182   4.868   7.166
  195SOL     OW 2481   4.471   4.317   4.779
  195SOL    HW1 2482   4.405   4.374   4.819
  195SOL    HW2 2483   4.486   4.249   4.845
  196SOL     OW 2484  12.244   8.272   9.628
  196SOL    HW1 2485  12.162   8.283   9.580
  196SOL    HW2 2486  12.292   8.205   9.578
  197SOL     OW 2487   5.879   4.584  12.789
  197SOL    HW1 2488   5.817   4.632  12.844
  197SOL    HW2 2489   5.843   4.496  12.783
  198SOL     OW 2490   1.476   6.493   4.457
  198SOL    HW1 2491   1.421   6.551   4.509
  198SOL    HW2 2492   1.419   6.460   4.387
  199SOL     OW 2493   6.134   2.128   7.990
  199SOL    HW1 2494   6.222   2.166   7.997
  199SOL    HW2 2495   6.080   2.200   7.956
  200SOL     OW 2496  12.429   1.993  13.644
  200SOL    HW1 2497  12.498   2.026  13.701
  200SOL    HW2 2498  12.476   1.959  13.568
  201SOL     OW 2499  10.843   5.235  10.771
  201SOL    HW1 2500  10.882   5.247  10.858
  201SOL    HW2 2501  10.811   5.322  10.747
  202SOL     OW 2502   1.490  14.054   1.852
  202SOL    HW1 2503   1.512  13.961   1.848
  202SOL    HW2 2504   1.450  14.065   1.938
  203SOL     OW 2505   8.699  13.498  10.764
  203SOL    HW1 2506   8.633  13.462  10.823
  203SOL    HW2 2507   8.674  13.590  10.754
  204SOL     OW 2508  11.054   8.865  13.206
  204SOL    HW1 2509  11.092   8.848  13.120
  204SOL    HW2 2510  10.970   8.907  13.187
  205SOL     OW 2511  14.433   2.126   3.627
  205SOL    HW1 2512  14.341   2.146   3.647
  205SOL    HW2 2513  14.432   2.097   3.536
  206SOL     OW 2514  10.282   2.745   3.045
  206SOL    HW1 2515  10.218   2.815   3.032
  206SOL    HW2 2516  10.237   2.683   3.104
  207SOL     OW 2517   7.540   0.513   5.553
  207SOL    HW1 2518   7.589   0.493   5.474
  207SOL    HW2 2519   7.605   0.509   5.623
  208SOL     OW 2520   2.762   4.658  12.535
  208SOL    HW1 2521   2.787   4.690  12.448
  208SOL    HW2 2522   2.831   4.690  12.593
  209SOL     OW 2523   4.986  11.089  13.250
  209SOL    HW1 2524   4.971  11.184  13.258
  209SOL    HW2 2525   5.043  11.081  13.173
  210SOL     OW 2526   5.603   6.633   4.882
  210SOL    HW1 2527   5.675   6.584   4.920
  210SOL    HW2 2528   5.578   6.696   4.950
  211SOL     OW 2529   2.772   9.081   3.532
  211SOL    HW1 2530   2.756   8.996   3.490
  211SOL    HW2 2531   2.846   9.118   3.484
  212SOL     OW 2532  10.884   8.850   5.388
  212SOL    HW1 2533  10.824   8.921   5.366
  212SOL    HW2 2534  10.877   8.842   5.483
  213SOL     OW 2535   3.855   4.491  12.143
  213SOL    HW1 2536   3.783   4.538  12.102
  213SOL    HW2 2537   3.915   4.471  12.071
  214SOL     OW 2538  10.884   1.772  11.255
  214SOL    HW1 2539  10.851   1.691  11.217
  214SOL    HW2 2540  10.962   1.746  11.304
  215SOL     OW 2541   3.889  13.659   7.505
  215SOL    HW1 2542   3.810  13.635   7.553
  215SOL    HW2 2543   3.859  13.721   7.438
  216SOL     OW 2544  14.485   8.145   8.394
  216SOL    HW1 2545  14.504   8.137   8.300
  216SOL    HW2 2546  14.562   8.106   8.437
  217SOL     OW 2547  13.111  10.108  14.527
  217SOL    HW1 2548  13.096  10.102  14.621
  217SOL    HW2 2549  13.136  10.019  14.502
  218SOL     OW 2550   7.621   3.523  11.061
  218SOL    HW1 2551   7.560   3.487  11.125
  218SOL    HW2 2552   7.701   3.540  11.110
  219SOL     OW 2553   8.771  12.459   9.277
  219SOL    HW1 2554   8.702  12.520   9.251
  219SOL    HW2 2555   8.783  12.402   9.201
  220SOL     OW 2556  13.475  13.220  10.595
  220SOL    HW1 2557  13.473  13.298  10.539
  220SOL    HW2 2558  13.506  13.150  10.537
  221SOL     OW 2559   6.606   3.826  11.844
  221SOL    HW1 2560   6.568   3.812  11.757
  221SOL    HW2 2561   6.667   3.899  11.832
  222SOL     OW 2562  13.625  13.335   2.547
  222SOL    HW1 2563  13.676  13.292   2.615
  222SOL    HW2 2564  13.681  13.332   2.469
  223SOL     OW 2565   7.353   2.396   7.731
  223SOL    HW1 2566   7.389   2.342   7.801
  223SOL    HW2 2567   7.416   2.387   7.659
  224SOL     OW 2568   4.483  10.993   0.553
  224SOL    HW1 2569   4.439  11.021   0.634
  224SOL    HW2 2570   4.491  10.898   0.562
  225SOL     OW 2571  11.645   8.906  14.019
  225SOL    HW1 2572  11.558   8.887  14.054
  225SOL    HW2 2573  11.671   8.825  13.975
  226SOL     OW 2574   5.090   8.287   3.596
  226SOL    HW1 2575   5.183   8.267   3.578
  226SOL    HW2 2576   5.080   8.379   3.572
  227SOL     OW 2577   6.280   6.824   8.655
  227SOL    HW1 2578   6.258   6.908   8.617
  227SOL    HW2 2579   6.225   6.818   8.734
  228SOL     OW 2580   9.034  11.543   9.309
  228SOL    HW1 2581   8.983  11.592   9.374
  228SOL    HW2 2582   9.125  11.552   9.338
  229SOL     OW 2583  12.875   2.787   6.170
  229SOL    HW1 2584  12.848   2.875   6.145
  229SOL    HW2 2585  12.894   2.794   6.264
  230SOL     OW 2586   5.936   6.294   1.151
  230SOL    HW1 2587   6.021   6.322   1.116
  230SOL    HW2 2588   5.952   6.281   1.244
  231SOL     OW 2589   2.902  12.138   0.254
  231SOL    HW1 2590   2.927  12.189   0.331
  231SOL    HW2 2591   2.935  12.189   0.180
  232SOL     OW 2592   2.564   1.331   3.922
  232SOL    HW1 2593   2.470   1.316   3.932
  232SOL    HW2 2594   2.590   1.273   3.850
  233SOL     OW 2595   4.187   3.711   3.197
  233SOL    HW1 2596   4.185   3.807   3.197
  233SOL    HW2 2597   4.276   3.689   3.224
  234SOL     OW 2598  13.400  12.351   4.898
  234SOL    HW1 2599  13.487  12.332   4.933
  234SOL    HW2 2600  13.395  12.447   4.897
  235SOL     OW 2601  14.733  13.901  10.035
  235SOL    HW1 2602  14.757  13.955   9.959
  235SOL    HW2 2603  14.804  13.915  10.098
  236SOL     OW 2604  11.865   2.721  12.767
  236SOL    HW1 2605  11.899   2.763  12.847
  236SOL    HW2 2606  11.938   2.723  12.706
  237SOL     OW 2607   0.616  13.902  11.297
  237SOL    HW1 2608   0.543  13.935  11.349
  237SOL    HW2 2609   0.617  13.959  11.219
  238SOL     OW 2610   5.503   9.684  13.502
  238SOL    HW1 2611   5.527   9.708  13.413
  238SOL    HW2 2612   5.477   9.766  13.543
  239SOL     OW 2613  14.099   5.388  12.647
  239SOL    HW1 2614  14.184   5.430  12.634
  239SOL    HW2 2615  14.087   5.387  12.742
  240SOL     OW 2616   3.860   1.109   3.025
  240SOL    HW1 2617   3.937   1.147   3.068
  240SOL    HW2 2618   3.787   1.130   3.084
  241SOL     OW 2619   3.744  11.115   9.254
  241SOL    HW1 2620   3.737  11.051   9.184
  241SOL    HW2 2621   3.683  11.185   9.229
  242SOL     OW 2622   1.558   7.060   0.898
  242SOL    HW1 2623   1.495   7.075   0.828
  242SOL    HW2 2624   1.559   6.965   0.909
  243SOL     OW 2625   8.168  11.165   6.234
  243SOL    HW1 2626   8.233  11.196   6.296
  243SOL    HW2 2627   8.122  11.244   6.205
  244SOL     OW 2628  13.076  14.015   4.541
  244SOL    HW1 2629  13.098  13.925   4.564
  244SOL    HW2 2630  13.159  14.054   4.514
  245SOL     OW 2631   2.982   8.444   5.353
  245SOL    HW1 2632   2.892   8.459   5.381
  245SOL    HW2 2633   2.980   8.357   5.312
  246SOL     OW 2634   9.551   7.773   5.248
  246SOL    HW1 2635   9.616   7.822   5.298
  246SOL    HW2 2636   9.468   7.815   5.268
  247SOL     OW 2637   8.890   9.832  14.633
  247SOL    HW1 2638   8.982   9.816  14.613
  247SOL    HW2 2639   8.891   9.876  14.718
  248SOL     OW 2640   5.992   6.581  13.053
  248SOL    HW1 2641   6.009   6.675  13.049
  248SOL    HW2 2642   5.967   6.557  12.965
  249SOL     OW 2643   3.821  12.009   8.140
  249SOL    HW1 2644   3.814  12.026   8.234
  249SOL    HW2 2645   3.743  11.957   8.120
  250SOL     OW 2646  13.955  13.434  11.254
  250SOL    HW1 2647  13.925  13.499  11.318
  250SOL    HW2 2648  13.942  13.350  11.298
  251SOL     OW 2649   0.033  14.622  14.370
  251SOL    HW1 2650   0.110  14.582  14.411
  251SOL    HW2 2651  14.845  14.617  14.437
  252SOL     OW 2652   9.922  11.299  11.074
  252SOL    HW1 2653   9.985  11.367  11.100
  252SOL    HW2 2654   9.859  11.345  11.019
  253SOL     OW 2655  11.143   0.914   2.923
  253SOL    HW1 2656  11.102   0.884   3.004
  253SOL    HW2 2657  11.111   1.004   2.912
  254SOL     OW 2658   4.363   7.461   3.334
  254SOL    HW1 2659   4.316   7.526   3.387
  254SOL    HW2 2660   4.456   7.484   3.345
  255SOL     OW 2661  11.602  11.825  12.261
  255SOL    HW1 2662  11.648  11.879  12.196
  255SOL    HW2 2663  11.667  11.761  12.290
  256SOL     OW 2664   4.516  14.681  12.832
  256SOL    HW1 2665   4.456  14.683  12.906
  256SOL    HW2 2666   4.555  14.593  12.835
  257SOL     OW 2667  10.602   7.470   6.205
  257SOL    HW1 2668  10.683   7.484   6.254
  257SOL    HW2 2669  10.614   7.519   6.124
  258SOL     OW 2670  10.282   6.699   9.790
  258SOL    HW1 2671  10.343   6.635   9.827
  258SOL    HW2 2672  10.334   6.778   9.780
  259SOL     OW 2673  12.214  13.683  11.864
  259SOL    HW1 2674  12.284  13.689  11.799
  259SOL    HW2 2675  12.134  13.674  11.812
  260SOL     OW 2676   6.268   5.428  10.223
  260SOL    HW1 2677   6.272   5.469  10.136
  260SOL    HW2 2678   6.226   5.343  10.208
  261SOL     OW 2679   7.429  14.841  13.310
  261SOL    HW1 2680   7.401  14.785  13.383
  261SOL    HW2 2681   7.348  14.859  13.262
  262SOL     OW 2682  14.576   6.014   6.851
  262SOL    HW1 2683  14.543   6.001   6.761
  262SOL    HW2 2684  14.655   6.067   6.840
  263SOL     OW 2685   7.768  11.730  10.028
  263SOL    HW1 2686   7.724  11.646  10.016
  263SOL    HW2 2687   7.703  11.796  10.004
  264SOL     OW 2688   2.825   9.195   5.040
  264SOL    HW1 2689   2.892   9.147   4.991
  264SOL    HW2 2690   2.801   9.135   5.111
  265SOL     OW 2691   7.121   8.668   3.085
  265SOL    HW1 2692   7.062   8.620   3.027
  265SOL    HW2 2693   7.205   8.668   3.039
  266SOL     OW 2694   0.675   8.037  13.744
  266SOL    HW1 2695   0.761   8.021  13.706
  266SOL    HW2 2696   0.678   7.993  13.829
  267SOL     OW 2697   4.505   0.666   7.888
  267SOL    HW1 2698   4.568   0.595   7.875
  267SOL    HW2 2699   4.440   0.654   7.819
  268SOL     OW 2700   8.982   4.883   0.623
  268SOL    HW1 2701   9.051   4.913   0.564
  268SOL    HW2 2702   8.902   4.921   0.587
  269SOL     OW 2703   7.396   3.045  10.273
  269SOL    HW1 2704   7.374   3.090  10.191
  269SOL    HW2 2705   7.403   3.115  10.338
  270SOL     OW 2706   1.985   7.623  13.511
  270SOL    HW1 2707   2.005   7.693  13.450
  270SOL    HW2 2708   1.944   7.666  13.586
  271SOL     OW 2709  13.903   8.063  10.061
  271SOL    HW1 2710  13.902   7.968  10.070
  271SOL    HW2 2711  13.874   8.096  10.146
  272SOL     OW 2712   6.938   0.678  14.524
  272SOL    HW1 2713   6.916   0.623  14.449
  272SOL    HW2 2714   7.022   0.644  14.555
  273SOL     OW 2715   7.830   8.746   6.448
  273SOL    HW1 2716   7.755   8.801   6.470
  273SOL    HW2 2717   7.803   8.657   6.474
  274SOL     OW 2718  13.694   1.114   9.384
  274SOL    HW1 2719  13.769   1.061   9.357
  274SOL    HW2 2720  13.621   1.053   9.387
  275SOL     OW 2721   6.142   9.899  11.517
  275SOL    HW1 2722   6.112   9.909  11.427
  275SOL    HW2 2723   6.062   9.904  11.569
  276SOL     OW 2724   7.803   3.134   8.234
  276SOL    HW1 2725   7.892   3.122   8.201
  276SOL    HW2 2726   7.767   3.204   8.179
  277SOL     OW 2727   0.467   3.076   3.980
  277SOL    HW1 2728   0.532   3.111   3.919
  277SOL    HW2 2729   0.383   3.089   3.936
  278SOL     OW 2730  11.316   9.152   8.514
  278SOL    HW1 2731  11.315   9.085   8.446
  278SOL    HW2 2732  11.324   9.234   8.467
  279SOL     OW 2733   2.494   4.536   6.986
  279SOL    HW1 2734   2.433   4.468   7.016
  279SOL    HW2 2735   2.518   4.584   7.065
  280SOL     OW 2736  13.712   6.629   2.666
  280SOL    HW1 2737  13.776   6.697   2.688
  280SOL    HW2 2738  13.739   6.552   2.716
  281SOL     OW 2739   8.430  11.175   6.915
  281SOL    HW1 2740   8.379  11.194   6.994
  281SOL    HW2 2741   8.364  11.167   6.846
  282SOL     OW 2742   7.463   2.102  13.403
  282SOL    HW1 2743   7.505   2.053  13.333
  282SOL    HW2 2744   7.395   2.044  13.437
  283SOL     OW 2745   0.226   7.885  10.001
  283SOL    HW1 2746   0.265   7.844   9.924
  283SOL    HW2 2747   0.277   7.965  10.013
  284SOL     OW 2748   5.826   4.817   8.418
  284SOL    HW1 2749   5.836   4.724   8.437
  284SOL    HW2 2750   5.901   4.838   8.362
  285SOL     OW 2751   9.995   4.295  14.471
  285SOL    HW1 2752   9.899   4.294  14.473
  285SOL    HW2 2753  10.019   4.215  14.425
  286SOL     OW 2754   1.633   4.496   0.370
  286SOL    HW1 2755   1.721   4.459   0.357
  286SOL    HW2 2756   1.603   4.517   0.282
  287SOL     OW 2757  10.536   1.362  12.271
  287SOL    HW1 2758  10.494   1.448  12.268
  287SOL    HW2 2759  10.470   1.302  12.236
  288SOL     OW 2760   9.683   4.543   5.892
  288SOL    HW1 2761   9.646   4.619   5.936
  288SOL    HW2 2762   9.769   4.532   5.932
  289SOL     OW 2763   0.196   5.416   8.009
  289SOL    HW1 2764   0.160   5.470   7.939
  289SOL    HW2 2765   0.166   5.458   8.090
  290SOL     OW 2766  10.023   9.714   8.769
  290SOL    HW1 2767  10.000   9.764   8.847
  290SOL    HW2 2768  10.119   9.711   8.769
  291SOL     OW 2769   3.835   0.401   2.226
  291SOL    HW1 2770   3.865   0.374   2.140
  291SOL    HW2 2771   3.793   0.486   2.212
  292SOL     OW 2772   2.691   6.908   3.455
  292SOL    HW1 2773   2.704   6.887   3.363
  292SOL    HW2 2774   2.668   7.001   3.456
  293SOL     OW 2775   4.285  12.408   4.264
  293SOL    HW1 2776   4.321  12.488   4.226
  293SOL    HW2 2777   4.360  12.364   4.303
  294SOL     OW 2778  11.063   7.476   2.163
  294SOL    HW1 2779  11.145   7.516   2.136
  294SOL    HW2 2780  11.025   7.538   2.226
  295SOL     OW 2781   8.402  10.040   1.754
  295SOL    HW1 2782   8.456  10.062   1.830
  295SOL    HW2 2783   8.371  10.125   1.722
  296SOL     OW 2784   2.622  14.463   8.243
  296SOL    HW1 2785   2.580  14.461   8.330
  296SOL    HW2 2786   2.599  14.379   8.204
  297SOL     OW 2787   7.712   4.231   8.801
  297SOL    HW1 2788   7.770   4.300   8.833
  297SOL    HW2 2789   7.712   4.165   8.870
  298SOL     OW 2790   3.616   4.491   1.140
  298SOL    HW1 2791   3.591   4.567   1.088
  298SOL    HW2 2792   3.658   4.528   1.218
  299SOL     OW 2793   7.447   3.733  13.973
  299SOL    HW1 2794   7.454   3.809  14.030
  299SOL    HW2 2795   7.449   3.770  13.884
  300SOL     OW 2796   4.348   0.267   6.202
  300SOL    HW1 2797   4.306   0.327   6.140
  300SOL    HW2 2798   4.424   0.233   6.155
  301SOL     OW 2799   3.407   8.771   4.745
  301SOL    HW1 2800   3.429   8.858   4.778
  301SOL    HW2 2801   3.401   8.717   4.824
  302SOL     OW 2802   1.324  14.644  12.202
  302SOL    HW1 2803   1.275  14.726  12.210
  302SOL    HW2 2804   1.377  14.639  12.281
  303SOL     OW 2805   8.766   2.872  11.213
  303SOL    HW1 2806   8.762   2.937  11.283
  303SOL    HW2 2807   8.769   2.788  11.260
  304SOL     OW 2808   4.848   2.188   4.058
  304SOL    HW1 2809   4.910   2.234   4.114
  304SOL    HW2 2810   4.862   2.095   4.078
  305SOL     OW 2811  14.846   7.652   5.281
  305SOL    HW1 2812  14.767   7.606   5.309
  305SOL    HW2 2813  14.851   7.729   5.337
  306SOL     OW 2814   9.923   5.589   1.543
  306SOL    HW1 2815   9.855   5.643   1.584
  306SOL    HW2 2816   9.918   5.505   1.588
  307SOL     OW 2817   6.588  10.857   1.180
  307SOL    HW1 2818   6.566  10.792   1.247
  307SOL    HW2 2819   6.678  10.883   1.200
  308SOL     OW 2820   7.707   0.324   6.101
  308SOL    HW1 2821   7.629   0.343   6.153
  308SOL    HW2 2822   7.740   0.241   6.136
  309SOL     OW 2823   6.662   2.610   4.680
  309SOL    HW1 2824   6.594   2.543   4.673
  309SOL    HW2 2825   6.678   2.637   4.589
  310SOL     OW 2826   0.140  14.577  11.853
  310SOL    HW1 2827   0.172  14.531  11.775
  310SOL    HW2 2828   0.136  14.669  11.827
  311SOL     OW 2829  11.879  14.045  11.057
  311SOL    HW1 2830  11.919  13.966  11.023
  311SOL    HW2 2831  11.936  14.071  11.130
  312SOL     OW 2832   3.773  13.624  13.436
  312SOL    HW1 2833   3.767  13.555  13.502
  312SOL    HW2 2834   3.838  13.593  13.373
  313SOL     OW 2835  14.421   3.382   4.025
  313SOL    HW1 2836  14.358   3.435   3.976
  313SOL    HW2 2837  14.453   3.440   4.093
  314SOL     OW 2838  13.574  10.074  13.520
  314SOL    HW1 2839  13.646  10.077  13.457
  314SOL    HW2 2840  13.520  10.150  13.497
  315SOL     OW 2841   7.578   9.790   2.198
  315SOL    HW1 2842   7.525   9.838   2.135
  315SOL    HW2 2843   7.600   9.854   2.265
  316SOL     OW 2844   3.590   5.994  13.051
  316SOL    HW1 2845   3.646   5.973  12.976
  316SOL    HW2 2846   3.591   6.089  13.056
  317SOL     OW 2847   3.482   5.288   7.144
  317SOL    HW1 2848   3.459   5.337   7.224
  317SOL    HW2 2849   3.505   5.201   7.176
  318SOL     OW 2850   5.414   7.324   9.467
  318SOL    HW1 2851   5.375   7.263   9.529
  318SOL    HW2 2852   5.501   7.289   9.449
  319SOL     OW 2853   9.226  13.524   9.295
  319SOL    HW1 2854   9.292  13.576   9.341
  319SOL    HW2 2855   9.162  13.588   9.264
  320SOL     OW 2856  11.436   4.957  11.684
  320SOL    HW1 2857  11.411   4.967  11.776
  320SOL    HW2 2858  11.359   4.918  11.642
  321SOL     OW 2859   5.675   8.588  13.187
  321SOL    HW1 2860   5.621   8.626  13.118
  321SOL    HW2 2861   5.628   8.607  13.268
  322SOL     OW 2862   3.688  13.864   0.745
  322SOL    HW1 2863   3.684  13.956   0.719
  322SOL    HW2 2864   3.601  13.846   0.782
  323SOL     OW 2865  14.428   2.055   5.380
  323SOL    HW1 2866  14.394   2.101   5.457
  323SOL    HW2 2867  14.493   2.116   5.343
  324SOL     OW 2868  10.821   2.314   7.765
  324SOL    HW1 2869  10.823   2.399   7.809
  324SOL    HW2 2870  10.760   2.326   7.693
  325SOL     OW 2871  13.071   6.141   0.317
  325SOL    HW1 2872  13.113   6.055   0.316
  325SOL    HW2 2873  13.143   6.204   0.309
  326SOL     OW 2874   2.692   1.162  12.513
  326SOL    HW1 2875   2.642   1.241  12.532
  326SOL    HW2 2876   2.781   1.193  12.496
  327SOL     OW 2877   2.880  13.114  11.155
  327SOL    HW1 2878   2.901  13.125  11.062
  327SOL    HW2 2879   2.843  13.198  11.181
  328SOL     OW 2880   8.230   7.493   4.281
  328SOL    HW1 2881   8.175   7.570   4.264
  328SOL    HW2 2882   8.234   7.448   4.198
  329SOL     OW 2883   9.072  14.725  12.936
  329SOL    HW1 2884   9.124  14.648  12.909
  329SOL    HW2 2885   9.051  14.769  12.854
  330SOL     OW 2886  10.131   3.639  14.142
  330SOL    HW1 2887  10.046   3.672  14.114
  330SOL    HW2 2888  10.186   3.717  14.151
  331SOL     OW 2889   2.463   0.253   3.433
  331SOL    HW1 2890   2.428   0.166   3.416
  331SOL    HW2 2891   2.558   0.242   3.431
  332SOL     OW 2892   8.241   2.285  12.585
  332SOL    HW1 2893   8.223   2.339  12.508
  332SOL    HW2 2894   8.305   2.220  12.555
  333SOL     OW 2895   3.518  11.552  13.451
  333SOL    HW1 2896   3.446  11.527  13.508
  333SOL    HW2 2897   3.479  11.613  13.388
  334SOL     OW 2898   1.405   1.863  13.586
  334SOL    HW1 2899   1.349   1.827  13.517
  334SOL    HW2 2900   1.381   1.955  13.591
  335SOL     OW 2901   6.584   2.279   7.640
  335SOL    HW1 2902   6.526   2.343   7.681
  335SOL    HW2 2903   6.646   2.331   7.589
  336SOL     OW 2904   4.136   2.527   6.217
  336SOL    HW1 2905   4.131   2.597   6.282
  336SOL    HW2 2906   4.166   2.450   6.265
  337SOL     OW 2907  10.339  10.982  12.202
  337SOL    HW1 2908  10.428  10.955  12.227
  337SOL    HW2 2909  10.351  11.030  12.120
  338SOL     OW 2910  11.774   9.444  12.351
  338SOL    HW1 2911  11.735   9.376  12.295
  338SOL    HW2 2912  11.700   9.485  12.395
  339SOL     OW 2913  13.275   1.396   6.228
  339SOL    HW1 2914  13.281   1.465   6.294
  339SOL    HW2 2915  13.269   1.315   6.279
  340SOL     OW 2916   7.995  12.208  12.417
  340SOL    HW1 2917   7.916  12.153  12.415
  340SOL    HW2 2918   7.992  12.258  12.335
  341SOL     OW 2919  12.999  13.556   1.999
  341SOL    HW1 2920  13.059  13.515   2.061
  341SOL    HW2 2921  12.985  13.644   2.034
  342SOL     OW 2922   6.266   8.373   2.685
  342SOL    HW1 2923   6.188   8.342   2.639
  342SOL    HW2 2924   6.238   8.384   2.776
  343SOL     OW 2925   1.067   8.958  11.633
  343SOL    HW1 2926   1.068   8.994  11.721
  343SOL    HW2 2927   0.994   9.003  11.589
  344SOL     OW 2928   3.384   4.462   1.880
  344SOL    HW1 2929   3.476   4.456   1.856
  344SOL    HW2 2930   3.363   4.376   1.918
  345SOL     OW 2931   1.828   2.793  10.812
  345SOL    HW1 2932   1.875   2.740  10.876
  345SOL    HW2 2933   1.835   2.745  10.730
  346SOL     OW 2934   4.949   2.290   8.927
  346SOL    HW1 2935   5.040   2.318   8.928
  346SOL    HW2 2936   4.925   2.280   9.019
  347SOL     OW 2937   4.286   4.534   5.430
  347SOL    HW1 2938   4.255   4.588   5.357
  347SOL    HW2 2939   4.304   4.449   5.392
  348SOL     OW 2940   3.614   6.700   1.859
  348SOL    HW1 2941   3.658   6.711   1.943
  348SOL    HW2 2942   3.675   6.738   1.795
  349SOL     OW 2943  14.080   0.100  11.224
  349SOL    HW1 2944  14.169   0.122  11.198
  349SOL    HW2 2945  14.030   0.097  11.142
  350SOL     OW 2946  14.289   0.073  14.351
  350SOL    HW1 2947  14.336   0.012  14.294
  350SOL    HW2 2948  14.227   0.017  14.399
  351SOL     OW 2949  12.455   8.158  14.860
  351SOL    HW1 2950  12.536   8.195   0.016
  351SOL    HW2 2951  12.395   8.153   0.055
  352SOL     OW 2952   3.358   2.503  14.635
  352SOL    HW1 2953   3.447   2.483  14.666
  352SOL    HW2 2954   3.359   2.483  14.542
  353SOL     OW 2955   8.593   8.880  10.139
  353SOL    HW1 2956   8.530   8.808  10.126
  353SOL    HW2 2957   8.538   8.959  10.144
  354SOL     OW 2958  10.751  12.708   9.222
  354SOL    HW1 2959  10.711  12.795   9.220
  354SOL    HW2 2960  10.690  12.656   9.274
  355SOL     OW 2961  11.438  11.942   7.822
  355SOL    HW1 2962  11.474  11.937   7.734
  355SOL    HW2 2963  11.373  12.012   7.818
  356SOL     OW 2964   3.661  11.573  12.949
  356SOL    HW1 2965   3.668  11.490  12.901
  356SOL    HW2 2966   3.751  11.604  12.956
  357SOL     OW 2967   9.172  13.570   1.037
  357SOL    HW1 2968   9.234  13.518   1.087
  357SOL    HW2 2969   9.226  13.625   0.981
  358SOL     OW 2970  11.804  12.542  10.062
  358SOL    HW1 2971  11.757  12.616  10.025
  358SOL    HW2 2972  11.769  12.533  10.151
  359SOL     OW 2973  11.569   9.892   1.695
  359SOL    HW1 2974  11.663   9.880   1.679
  359SOL    HW2 2975  11.528   9.874   1.610
  360SOL     OW 2976   3.709   8.364   5.783
  360SOL    HW1 2977   3.663   8.415   5.850
  360SOL    HW2 2978   3.795   8.347   5.820
  361SOL     OW 2979  13.584   9.515  11.053
  361SOL    HW1 2980  13.542   9.570  10.988
  361SOL    HW2 2981  13.564   9.557  11.137
  362SOL     OW 2982   0.579   4.977  13.208
  362SOL    HW1 2983   0.570   4.935  13.293
  362SOL    HW2 2984   0.516   4.932  13.152
  363SOL     OW 2985   5.854  12.286   9.489
  363SOL    HW1 2986   5.801  12.264   9.413
  363SOL    HW2 2987   5.851  12.382   9.493
  364SOL     OW 2988   4.138  12.825   0.986
  364SOL    HW1 2989   4.114  12.755   0.925
  364SOL    HW2 2990   4.098  12.904   0.949
  365SOL     OW 2991  10.634   5.248   0.773
  365SOL    HW1 2992  10.659   5.155   0.770
  365SOL    HW2 2993  10.628   5.268   0.867
  366SOL     OW 2994   3.780   9.312   0.868
  366SOL    HW1 2995   3.752   9.331   0.779
  366SOL    HW2 2996   3.802   9.219   0.868
  367SOL     OW 2997   0.802  14.597   4.915
  367SOL    HW1 2998   0.849  14.517   4.938
  367SOL    HW2 2999   0.717  14.587   4.958
  368SOL     OW 3000   0.671  14.782   8.074
  368SOL    HW1 3001   0.605  14.764   8.141
  368SOL    HW2 3002   0.740  14.718   8.090
  369SOL     OW 3003   8.735  11.146   5.929
  369SOL    HW1 3004   8.671  11.213   5.906
  369SOL    HW2 3005   8.754  11.101   5.847
  370SOL     OW 3006  13.542  13.604  14.810
  370SOL    HW1 3007  13.539  13.512  14.837
  370SOL    HW2 3008  13.610  13.643  14.866
  371SOL     OW 3009   5.307   8.309   4.105
  371SOL    HW1 3010   5.319   8.214   4.105
  371SOL    HW2 3011   5.265   8.328   4.022
  372SOL     OW 3012  13.634  12.345   9.492
  372SOL    HW1 3013  13.648  12.342   9.397
  372SOL    HW2 3014  13.667  12.261   9.524
  373SOL     OW 3015   1.135  13.920  14.024
  373SOL    HW1 3016   1.046  13.943  14.050
  373SOL    HW2 3017   1.137  13.825  14.023
  374SOL     OW 3018   9.299   0.302   9.823
  374SOL    HW1 3019   9.264   0.390   9.830
  374SOL    HW2 3020   9.363   0.307   9.752
  375SOL     OW 3021  10.658   8.978   4.203
  375SOL    HW1 3022  10.703   8.980   4.287
  375SOL    HW2 3023  10.607   9.059   4.201
  376SOL     OW 3024   2.878  13.440   5.490
  376SOL    HW1 3025   2.887  13.435   5.395
  376SOL    HW2 3026   2.968  13.450   5.522
  377SOL     OW 3027   3.283  11.420  14.523
  377SOL    HW1 3028   3.256  11.330  14.506
  377SOL    HW2 3029   3.325  11.448  14.442
  378SOL     OW 3030   9.753   1.489   4.355
  378SOL    HW1 3031   9.760   1.542   4.276
  378SOL    HW2 3032   9.661   1.498   4.382
  379SOL     OW 3033   3.239   1.021   4.239
  379SOL    HW1 3034   3.283   1.037   4.156
  379SOL    HW2 3035   3.157   1.069   4.232
  380SOL     OW 3036   9.488   9.513   8.452
  380SOL    HW1 3037   9.527   9.484   8.535
  380SOL    HW2 3038   9.423   9.579   8.478
  381SOL     OW 3039  10.368  13.147  14.415
  381SOL    HW1 3040  10.299  13.161  14.480
  381SOL    HW2 3041  10.340  13.196  14.338
  382SOL     OW 3042   2.011   3.966  11.193
  382SOL    HW1 3043   1.950   3.996  11.261
  382SOL    HW2 3044   1.994   3.872  11.186
  383SOL     OW 3045   3.089  10.375   4.884
  383SOL    HW1 3046   3.105  10.468   4.901
  383SOL    HW2 3047   3.079  10.369   4.789
  384SOL     OW 3048  11.457   4.926  14.105
  384SOL    HW1 3049  11.485   5.018  14.104
  384SOL    HW2 3050  11.430   4.910  14.195
  385SOL     OW 3051   4.195   2.467   4.421
  385SOL    HW1 3052   4.275   2.501   4.460
  385SOL    HW2 3053   4.198   2.373   4.437
  386SOL     OW 3054   8.182   4.399  14.839
  386SOL    HW1 3055   8.151   4.314  14.870
  386SOL    HW2 3056   8.116   4.461  14.869
  387SOL     OW 3057  10.225  13.028   3.411
  387SOL    HW1 3058  10.321  13.035   3.412
  387SOL    HW2 3059  10.195  13.095   3.472
  388SOL     OW 3060   7.778  14.596   3.629
  388SOL    HW1 3061   7.765  14.563   3.718
  388SOL    HW2 3062   7.872  14.605   3.620
  389SOL     OW 3063   7.920   4.308   3.886
  389SOL    HW1 3064   7.833   4.321   3.847
  389SOL    HW2 3065   7.903   4.298   3.979
  390SOL     OW 3066   4.410   7.783  11.381
  390SOL    HW1 3067   4.490   7.795  11.330
  390SOL    HW2 3068   4.389   7.690  11.370
  391SOL     OW 3069  13.154   8.307   7.253
  391SOL    HW1 3070  13.146   8.374   7.185
  391SOL    HW2 3071  13.147   8.224   7.207
  392SOL     OW 3072   0.908  12.088  10.354
  392SOL    HW1 3073   0.820  12.052  10.354
  392SOL    HW2 3074   0.896  12.183  10.348
  393SOL     OW 3075   8.422   5.841   9.333
  393SOL    HW1 3076   8.487   5.854   9.264
  393SOL    HW2 3077   8.367   5.919   9.329
  394SOL     OW 3078   2.471   6.040   7.532
  394SOL    HW1 3079   2.380   6.013   7.528
  394SOL    HW2 3080   2.468   6.132   7.561
  395SOL     OW 3081  13.875   3.252   1.273
  395SOL    HW1 3082  13.855   3.171   1.321
  395SOL    HW2 3083  13.916   3.309   1.338
  396SOL     OW 3084   0.870   8.067   3.619
  396SOL    HW1 3085   0.790   8.063   3.567
  396SOL    HW2 3086   0.931   8.116   3.565
  397SOL     OW 3087  12.479   9.264   9.221
  397SOL    HW1 3088  12.518   9.179   9.244
  397SOL    HW2 3089  12.417   9.243   9.151
  398SOL     OW 3090  10.433   1.881   3.694
  398SOL    HW1 3091  10.404   1.859   3.782
  398SOL    HW2 3092  10.379   1.826   3.636
  399SOL     OW 3093   6.371   0.016  11.429
  399SOL    HW1 3094   6.414  14.824  11.475
  399SOL    HW2 3095   6.279  14.870  11.425
  400SOL     OW 3096   5.429  11.048   8.360
  400SOL    HW1 3097   5.398  11.058   8.450
  400SOL    HW2 3098   5.442  11.138   8.329
  401SOL     OW 3099   8.319   8.147   4.806
  401SOL    HW1 3100   8.348   8.141   4.715
  401SOL    HW2 3101   8.225   8.134   4.802
  402SOL     OW 3102  11.743  12.779   7.515
  402SOL    HW1 3103  11.734  12.707   7.453
  402SOL    HW2 3104  11.739  12.858   7.460
  403SOL     OW 3105  10.936   8.240   5.856
  403SOL    HW1 3106  10.868   8.306   5.865
  403SOL    HW2 3107  10.958   8.215   5.945
  404SOL     OW 3108   7.494   8.050   1.508
  404SOL    HW1 3109   7.544   8.010   1.579
  404SOL    HW2 3110   7.497   8.144   1.527
  405SOL     OW 3111   8.167   2.215   0.401
  405SOL    HW1 3112   8.241   2.161   0.427
  405SOL    HW2 3113   8.139   2.179   0.317
  406SOL     OW 3114  14.061   3.327   8.451
  406SOL    HW1 3115  14.112   3.390   8.503
  406SOL    HW2 3116  14.067   3.245   8.500
  407SOL     OW 3117   2.150   0.575   9.204
  407SOL    HW1 3118   2.106   0.498   9.239
  407SOL    HW2 3119   2.208   0.541   9.136
  408SOL     OW 3120   9.751   4.514   5.364
  408SOL    HW1 3121   9.798   4.435   5.393
  408SOL    HW2 3122   9.753   4.509   5.269
  409SOL     OW 3123   1.827   9.612  14.183
  409SOL    HW1 3124   1.753   9.561  14.152
  409SOL    HW2 3125   1.852   9.570  14.265
  410SOL     OW 3126  10.939   9.658  13.467
  410SOL    HW1 3127  10.940   9.675  13.373
  410SOL    HW2 3128  10.983   9.734  13.505
  411SOL     OW 3129  10.669  14.140   3.068
  411SOL    HW1 3130  10.614  14.092   3.129
  411SOL    HW2 3131  10.720  14.200   3.123
  412SOL     OW 3132   1.211   6.842   7.851
  412SOL    HW1 3133   1.131   6.842   7.800
  412SOL    HW2 3134   1.281   6.830   7.787
  413SOL     OW 3135  10.321   7.272   9.504
  413SOL    HW1 3136  10.295   7.182   9.519
  413SOL    HW2 3137  10.377   7.295   9.578
  414SOL     OW 3138   6.396   9.179   8.811
  414SOL    HW1 3139   6.382   9.085   8.804
  414SOL    HW2 3140   6.451   9.200   8.735
  415SOL     OW 3141   0.878   1.516   3.827
  415SOL    HW1 3142   0.898   1.607   3.804
  415SOL    HW2 3143   0.809   1.523   3.893
  416SOL     OW 3144   1.885  11.532   1.513
  416SOL    HW1 3145   1.926  11.540   1.427
  416SOL    HW2 3146   1.792  11.545   1.497
  417SOL     OW 3147   3.174   6.006  14.065
  417SOL    HW1 3148   3.106   6.008  13.998
  417SOL    HW2 3149   3.151   6.077  14.125
  418SOL     OW 3150   0.764   3.213  10.280
  418SOL    HW1 3151   0.817   3.219  10.200
  418SOL    HW2 3152   0.819   3.165  10.342
  419SOL     OW 3153   3.541   9.392   9.080
  419SOL    HW1 3154   3.610   9.458   9.068
  419SOL    HW2 3155   3.523   9.394   9.174
  420SOL     OW 3156   2.530   9.483   5.764
  420SOL    HW1 3157   2.488   9.526   5.689
  420SOL    HW2 3158   2.533   9.550   5.832
  421SOL     OW 3159   6.345   4.183  11.992
  421SOL    HW1 3160   6.379   4.130  12.064
  421SOL    HW2 3161   6.275   4.235  12.031
  422SOL     OW 3162  12.038  12.234   3.232
  422SOL    HW1 3163  11.961  12.216   3.286
  422SOL    HW2 3164  12.029  12.175   3.157
  423SOL     OW 3165   0.233   5.008   0.045
  423SOL    HW1 3166   0.307   5.038  14.873
  423SOL    HW2 3167   0.197   4.934  14.876
  424SOL     OW 3168  11.013   0.549  11.550
  424SOL    HW1 3169  11.014   0.644  11.562
  424SOL    HW2 3170  10.921   0.529  11.531
  425SOL     OW 3171   9.353  10.023   1.853
  425SOL    HW1 3172   9.333   9.936   1.819
  425SOL    HW2 3173   9.314  10.024   1.940
  426SOL     OW 3174  14.241   4.228  13.109
  426SOL    HW1 3175  14.233   4.304  13.166
  426SOL    HW2 3176  14.336   4.213  13.102
  427SOL     OW 3177   5.710   6.194   0.716
  427SOL    HW1 3178   5.781   6.227   0.772
  427SOL    HW2 3179   5.651   6.269   0.706
  428SOL     OW 3180  12.068  12.928  14.584
  428SOL    HW1 3181  12.122  12.881  14.647
  428SOL    HW2 3182  11.985  12.880  14.583
  429SOL     OW 3183  10.263   4.837   2.808
  429SOL    HW1 3184  10.322   4.788   2.751
  429SOL    HW2 3185  10.309   4.918   2.827
  430SOL     OW 3186   7.223  10.959   9.141
  430SOL    HW1 3187   7.230  10.969   9.046
  430SOL    HW2 3188   7.152  10.896   9.153
  431SOL     OW 3189   7.573   8.853  10.860
  431SOL    HW1 3190   7.564   8.838  10.954
  431SOL    HW2 3191   7.490   8.824  10.823
  432SOL     OW 3192   6.163   0.396  14.056
  432SOL    HW1 3193   6.099   0.357  13.996
  432SOL    HW2 3194   6.242   0.342  14.045
  433SOL     OW 3195   9.267   9.923   6.051
  433SOL    HW1 3196   9.287   9.982   5.978
  433SOL    HW2 3197   9.275   9.978   6.129
  434SOL     OW 3198  10.219  14.621   1.430
  434SOL    HW1 3199  10.178  14.662   1.354
  434SOL    HW2 3200  10.213  14.527   1.412
  435SOL     OW 3201   1.149   8.597  12.175
  435SOL    HW1 3202   1.086   8.526  12.165
  435SOL    HW2 3203   1.162   8.605  12.269
  436SOL     OW 3204   2.830   5.635  10.484
  436SOL    HW1 3205   2.753   5.578  10.486
  436SOL    HW2 3206   2.892   5.594  10.545
  437SOL     OW 3207   0.203   2.777   9.370
  437SOL    HW1 3208   0.133   2.724   9.409
  437SOL    HW2 3209   0.240   2.825   9.444
  438SOL     OW 3210   7.702   0.398   3.997
  438SOL    HW1 3211   7.698   0.451   3.917
  438SOL    HW2 3212   7.612   0.397   4.030
  439SOL     OW 3213   2.046   7.621  11.315
  439SOL    HW1 3214   1.983   7.576  11.259
  439SOL    HW2 3215   2.129   7.574  11.301
  440SOL     OW 3216   6.171   3.017   9.475
  440SOL    HW1 3217   6.179   3.037   9.381
  440SOL    HW2 3218   6.242   3.065   9.516
  441SOL     OW 3219   4.564   1.397  10.850
  441SOL    HW1 3220   4.552   1.476  10.798
  441SOL    HW2 3221   4.475   1.363  10.863
  442SOL     OW 3222   7.276   8.130   0.654
  442SOL    HW1 3223   7.286   8.072   0.579
  442SOL    HW2 3224   7.351   8.190   0.649
  443SOL     OW 3225   3.681   2.738  12.436
  443SOL    HW1 3226   3.696   2.781  12.520
  443SOL    HW2 3227   3.650   2.650  12.460
  444SOL     OW 3228   9.759   2.568   5.560
  444SOL    HW1 3229   9.701   2.642   5.575
  444SOL    HW2 3230   9.750   2.513   5.638
  445SOL     OW 3231   5.458  10.511  13.805
  445SOL    HW1 3232   5.460  10.415  13.810
  445SOL    HW2 3233   5.474  10.540  13.895
  446SOL     OW 3234   5.101   9.344  14.767
  446SOL    HW1 3235   5.028   9.405  14.765
  446SOL    HW2 3236   5.144   9.360  14.851
  447SOL     OW 3237   8.496   0.231  12.303
  447SOL    HW1 3238   8.544   0.163  12.254
  447SOL    HW2 3239   8.461   0.289  12.235
  448SOL     OW 3240  11.522   1.025   2.862
  448SOL    HW1 3241  11.454   1.029   2.795
  448SOL    HW2 3242  11.529   0.933   2.884
  449SOL     OW 3243   0.530   7.235   0.431
  449SOL    HW1 3244   0.490   7.217   0.345
  449SOL    HW2 3245   0.623   7.242   0.413
  450SOL     OW 3246   5.964   9.408  11.855
  450SOL    HW1 3247   5.975   9.392  11.949
  450SOL    HW2 3248   5.927   9.496  11.850
  451SOL     OW 3249   0.218   0.389   5.029
  451SOL    HW1 3250   0.240   0.380   4.936
  451SOL    HW2 3251   0.167   0.311   5.050
  452SOL     OW 3252  12.693  13.225   6.779
  452SOL    HW1 3253  12.616  13.169   6.791
  452SOL    HW2 3254  12.755  13.196   6.845
  453SOL     OW 3255  14.637   3.901   0.915
  453SOL    HW1 3256  14.668   3.982   0.956
  453SOL    HW2 3257  14.717   3.858   0.883
  454SOL     OW 3258   1.347   1.713   1.543
  454SOL    HW1 3259   1.288   1.642   1.516
  454SOL    HW2 3260   1.349   1.707   1.639
  455SOL     OW 3261   0.122   8.812   6.192
  455SOL    HW1 3262   0.139   8.889   6.246
  455SOL    HW2 3263   0.032   8.824   6.161
  456SOL     OW 3264  14.563  11.879  12.573
  456SOL    HW1 3265  14.658  11.893  12.569
  456SOL    HW2 3266  14.529  11.961  12.610
  457SOL     OW 3267   4.869   9.088   9.305
  457SOL    HW1 3268   4.935   9.034   9.348
  457SOL    HW2 3269   4.918   9.162   9.269
  458SOL     OW 3270  11.081   5.576  12.030
  458SOL    HW1 3271  11.115   5.589  12.119
  458SOL    HW2 3272  11.036   5.657  12.009
  459SOL     OW 3273   2.763   1.295  14.606
  459SOL    HW1 3274   2.695   1.251  14.555
  459SOL    HW2 3275   2.752   1.262  14.695
  460SOL     OW 3276  11.951   6.569  14.109
  460SOL    HW1 3277  11.861   6.595  14.091
  460SOL    HW2 3278  11.943   6.482  14.150
  461SOL     OW 3279   0.712   7.492   3.826
  461SOL    HW1 3280   0.753   7.536   3.751
  461SOL    HW2 3281   0.693   7.563   3.888
  462SOL     OW 3282   2.147  12.224   6.106
  462SOL    HW1 3283   2.149  12.303   6.051
  462SOL    HW2 3284   2.065  12.232   6.155
  463SOL     OW 3285  14.598   4.839   0.747
  463SOL    HW1 3286  14.680   4.789   0.744
  463SOL    HW2 3287  14.547   4.796   0.816
  464SOL     OW 3288   1.636  11.415   5.507
  464SOL    HW1 3289   1.599  11.472   5.575
  464SOL    HW2 3290   1.662  11.336   5.554
  465SOL     OW 3291   5.797   4.959   7.989
  465SOL    HW1 3292   5.725   5.020   8.005
  465SOL    HW2 3293   5.876   5.013   7.993
  466SOL     OW 3294   2.668  12.126  11.552
  466SOL    HW1 3295   2.729  12.199  11.538
  466SOL    HW2 3296   2.712  12.050  11.513
  467SOL     OW 3297   5.045   7.367  10.846
  467SOL    HW1 3298   5.055   7.454  10.886
  467SOL    HW2 3299   5.109   7.313  10.892
  468SOL     OW 3300  12.213  14.049  14.698
  468SOL    HW1 3301  12.222  13.984  14.767
  468SOL    HW2 3302  12.302  14.084  14.686
  469SOL     OW 3303   4.697   4.933   1.681
  469SOL    HW1 3304   4.604   4.933   1.706
  469SOL    HW2 3305   4.714   4.843   1.654
  470SOL     OW 3306  12.079   5.635   9.611
  470SOL    HW1 3307  12.108   5.631   9.702
  470SOL    HW2 3308  12.130   5.568   9.566
  471SOL     OW 3309   9.436   8.623  11.008
  471SOL    HW1 3310   9.448   8.697  10.949
  471SOL    HW2 3311   9.503   8.560  10.982
  472SOL     OW 3312   3.919   4.371   2.178
  472SOL    HW1 3313   4.015   4.378   2.185
  472SOL    HW2 3314   3.889   4.461   2.169
  473SOL     OW 3315  10.075  12.524   7.723
  473SOL    HW1 3316  10.069  12.464   7.798
  473SOL    HW2 3317  10.169  12.534   7.708
  474SOL     OW 3318   0.454   5.193  12.307
  474SOL    HW1 3319   0.529   5.144  12.341
  474SOL    HW2 3320   0.395   5.125  12.274
  475SOL     OW 3321   0.068   6.110   0.890
  475SOL    HW1 3322   0.160   6.103   0.862
  475SOL    HW2 3323   0.035   6.021   0.884
  476SOL     OW 3324   5.239   5.922   9.879
  476SOL    HW1 3325   5.164   5.885   9.925
  476SOL    HW2 3326   5.225   6.017   9.884
  477SOL     OW 3327   7.421   2.412   1.959
  477SOL    HW1 3328   7.329   2.429   1.939
  477SOL    HW2 3329   7.427   2.317   1.970
  478SOL     OW 3330   2.823  12.274  10.042
  478SOL    HW1 3331   2.846  12.194   9.994
  478SOL    HW2 3332   2.735  12.297  10.011
  479SOL     OW 3333  11.441  10.923  12.404
  479SOL    HW1 3334  11.439  10.959  12.493
  479SOL    HW2 3335  11.378  10.977  12.355
  480SOL     OW 3336   7.617   6.248  13.409
  480SOL    HW1 3337   7.575   6.333  13.398
  480SOL    HW2 3338   7.550   6.185  13.382
  481SOL     OW 3339   0.474   9.211  13.315
  481SOL    HW1 3340   0.438   9.139  13.264
  481SOL    HW2 3341   0.471   9.181  13.405
  482SOL     OW 3342   2.244   0.740   7.598
  482SOL    HW1 3343   2.245   0.701   7.510
  482SOL    HW2 3344   2.176   0.693   7.645
  483SOL     OW 3345   1.013  12.529   9.473
  483SOL    HW1 3346   1.045  12.575   9.395
  483SOL    HW2 3347   0.942  12.584   9.505
  484SOL     OW 3348   7.179   7.560   2.123
  484SOL    HW1 3349   7.169   7.558   2.218
  484SOL    HW2 3350   7.266   7.596   2.108
  485SOL     OW 3351   6.190   5.399  10.548
  485SOL    HW1 3352   6.159   5.434  10.464
  485SOL    HW2 3353   6.192   5.475  10.606
  486SOL     OW 3354   5.412   1.578   5.867
  486SOL    HW1 3355   5.333   1.568   5.920
  486SOL    HW2 3356   5.397   1.521   5.791
  487SOL     OW 3357  12.814   1.954  14.312
  487SOL    HW1 3358  12.794   1.921  14.225
  487SOL    HW2 3359  12.733   1.997  14.341
  488SOL     OW 3360   2.961  12.323   1.051
  488SOL    HW1 3361   2.906  12.367   1.115
  488SOL    HW2 3362   2.964  12.382   0.976
  489SOL     OW 3363   5.578  10.440   3.157
  489SOL    HW1 3364   5.618  10.408   3.238
  489SOL    HW2 3365   5.570  10.535   3.170
  490SOL     OW 3366  14.625   9.132   8.809
  490SOL    HW1 3367  14.665   9.050   8.782
  490SOL    HW2 3368  14.698   9.192   8.824
  491SOL     OW 3369   5.586  12.595   1.787
  491SOL    HW1 3370   5.580  12.683   1.824
  491SOL    HW2 3371   5.496  12.562   1.787
  492SOL     OW 3372   6.673   7.602  11.390
  492SOL    HW1 3373   6.626   7.598  11.306
  492SOL    HW2 3374   6.611   7.643  11.450
  493SOL     OW 3375   7.312   7.719  11.832
  493SOL    HW1 3376   7.272   7.651  11.887
  493SOL    HW2 3377   7.270   7.709  11.747
  494SOL     OW 3378   1.374   9.333   1.347
  494SOL    HW1 3379   1.463   9.299   1.356
  494SOL    HW2 3380   1.376   9.385   1.266
  495SOL     OW 3381   6.071  12.684   1.936
  495SOL    HW1 3382   5.986  12.642   1.949
  495SOL    HW2 3383   6.134  12.621   1.971
  496SOL     OW 3384   3.035  12.198  12.848
  496SOL    HW1 3385   3.045  12.120  12.792
  496SOL    HW2 3386   2.941  12.203  12.865
  497SOL     OW 3387   2.771   6.160  14.872
  497SOL    HW1 3388   2.833   6.087  14.863
  497SOL    HW2 3389   2.725   6.163  14.788
  498SOL     OW 3390   6.301   3.497  11.466
  498SOL    HW1 3391   6.287   3.589  11.444
  498SOL    HW2 3392   6.380   3.497  11.520
  499SOL     OW 3393   3.011   1.357   5.490
  499SOL    HW1 3394   3.033   1.394   5.576
  499SOL    HW2 3395   3.089   1.310   5.463
  500SOL     OW 3396   7.531  10.050   9.308
  500SOL    HW1 3397   7.480  10.019   9.233
  500SOL    HW2 3398   7.517  10.144   9.310
  501SOL     OW 3399   7.976   9.043   1.876
  501SOL    HW1 3400   7.890   9.010   1.899
  501SOL    HW2 3401   7.987   9.122   1.928
  502SOL     OW 3402   1.086   9.521   0.740
  502SOL    HW1 3403   1.017   9.476   0.788
  502SOL    HW2 3404   1.079   9.488   0.650
  503SOL     OW 3405   8.457   2.001  11.454
  503SOL    HW1 3406   8.417   2.083  11.485
  503SOL    HW2 3407   8.533   2.029  11.403
  504SOL     OW 3408   6.564   4.090  10.584
  504SOL    HW1 3409   6.642   4.132  10.548
  504SOL    HW2 3410   6.581   4.083  10.678
  505SOL     OW 3411  12.189   9.045   6.476
  505SOL    HW1 3412  12.206   9.128   6.520
  505SOL    HW2 3413  12.094   9.032   6.486
  506SOL     OW 3414   9.868  11.494   1.546
  506SOL    HW1 3415   9.787  11.445   1.533
  506SOL    HW2 3416   9.846  11.584   1.520
  507SOL     OW 3417  12.158   6.400  12.769
  507SOL    HW1 3418  12.243   6.367  12.741
  507SOL    HW2 3419  12.151   6.374  12.861
  508SOL     OW 3420   0.304   7.106   4.146
  508SOL    HW1 3421   0.332   7.101   4.055
  508SOL    HW2 3422   0.211   7.131   4.141
  509SOL     OW 3423   5.308  12.385   4.308
  509SOL    HW1 3424   5.259  12.401   4.388
  509SOL    HW2 3425   5.263  12.312   4.265
  510SOL     OW 3426   5.800   2.953   6.653
  510SOL    HW1 3427   5.893   2.945   6.673
  510SOL    HW2 3428   5.797   2.997   6.568
  511SOL     OW 3429   8.837   5.845   8.273
  511SOL    HW1 3430   8.878   5.850   8.186
  511SOL    HW2 3431   8.876   5.767   8.313
  512SOL     OW 3432   1.109   3.660   5.828
  512SOL    HW1 3433   1.061   3.727   5.878
  512SOL    HW2 3434   1.135   3.596   5.894
  513SOL     OW 3435   6.576   9.067  14.501
  513SOL    HW1 3436   6.596   8.994  14.442
  513SOL    HW2 3437   6.561   9.142  14.442
  514SOL     OW 3438   6.305   9.596   7.781
  514SOL    HW1 3439   6.343   9.556   7.703
  514SOL    HW2 3440   6.326   9.536   7.852
  515SOL     OW 3441   6.559  14.704   5.681
  515SOL    HW1 3442   6.599  14.755   5.611
  515SOL    HW2 3443   6.568  14.613   5.653
  516SOL     OW 3444  12.224   3.821   8.007
  516SOL    HW1 3445  12.287   3.773   8.060
  516SOL    HW2 3446  12.141   3.813   8.054
  517SOL     OW 3447   2.976  12.853   0.118
  517SOL    HW1 3448   2.946  12.905   0.192
  517SOL    HW2 3449   2.907  12.863   0.052
  518SOL     OW 3450  12.282  12.392   6.096
  518SOL    HW1 3451  12.225  12.437   6.034
  518SOL    HW2 3452  12.304  12.309   6.053
  519SOL     OW 3453   0.210   3.584  14.600
  519SOL    HW1 3454   0.161   3.591  14.682
  519SOL    HW2 3455   0.273   3.656  14.603
  520SOL     OW 3456  13.395  12.967   3.266
  520SOL    HW1 3457  13.373  12.920   3.185
  520SOL    HW2 3458  13.323  13.029   3.278
  521SOL     OW 3459   5.271   0.274   3.899
  521SOL    HW1 3460   5.261   0.183   3.928
  521SOL    HW2 3461   5.299   0.268   3.808
  522SOL     OW 3462   8.177   0.407   5.668
  522SOL    HW1 3463   8.252   0.357   5.637
  522SOL    HW2 3464   8.177   0.394   5.763
  523SOL     OW 3465  11.995   2.217   6.489
  523SOL    HW1 3466  12.080   2.244   6.456
  523SOL    HW2 3467  11.954   2.170   6.416
  524SOL     OW 3468   9.570   2.789   9.519
  524SOL    HW1 3469   9.660   2.792   9.489
  524SOL    HW2 3470   9.566   2.853   9.590
  525SOL     OW 3471  11.846   8.757   0.078
  525SOL    HW1 3472  11.922   8.811   0.099
  525SOL    HW2 3473  11.784   8.775   0.149
  526SOL     OW 3474   0.401   1.063   4.819
  526SOL    HW1 3475   0.407   1.063   4.724
  526SOL    HW2 3476   0.492   1.064   4.849
  527SOL     OW 3477   4.724  14.148   6.286
  527SOL    HW1 3478   4.819  14.150   6.277
  527SOL    HW2 3479   4.691  14.189   6.206
  528SOL     OW 3480   5.761  13.485   8.322
  528SOL    HW1 3481   5.783  13.570   8.361
  528SOL    HW2 3482   5.666  13.484   8.319
  529SOL     OW 3483   0.222   2.728  14.073
  529SOL    HW1 3484   0.295   2.672  14.046
  529SOL    HW2 3485   0.205   2.784  13.998
  530SOL     OW 3486  13.723   4.526   9.953
  530SOL    HW1 3487  13.687   4.515  10.041
  530SOL    HW2 3488  13.664   4.589   9.911
  531SOL     OW 3489   6.173  14.574  10.487
  531SOL    HW1 3490   6.187  14.526  10.405
  531SOL    HW2 3491   6.215  14.520  10.554
  532SOL     OW 3492  13.303   7.747   0.212
  532SOL    HW1 3493  13.372   7.781   0.269
  532SOL    HW2 3494  13.349   7.703   0.141
  533SOL     OW 3495   6.219   6.340   3.044
  533SOL    HW1 3496   6.294   6.394   3.070
  533SOL    HW2 3497   6.228   6.329   2.950
  534SOL     OW 3498  11.060   3.431   1.506
  534SOL    HW1 3499  11.064   3.336   1.515
  534SOL    HW2 3500  11.124   3.464   1.569
  535SOL     OW 3501  14.661   2.620   6.816
  535SOL    HW1 3502  14.703   2.705   6.832
  535SOL    HW2 3503  14.622   2.597   6.900
  536SOL     OW 3504  13.064  12.255   3.989
  536SOL    HW1 3505  13.051  12.348   4.009
  536SOL    HW2 3506  13.109  12.256   3.904
  537SOL     OW 3507  12.919   8.154   0.322
  537SOL    HW1 3508  12.945   8.158   0.229
  537SOL    HW2 3509  13.000   8.131   0.368
  538SOL     OW 3510  13.510   0.271   0.647
  538SOL    HW1 3511  13.514   0.260   0.742
  538SOL    HW2 3512  13.433   0.222   0.620
  539SOL     OW 3513   2.970  10.546   2.656
  539SOL    HW1 3514   2.996  10.629   2.696
  539SOL    HW2 3515   2.957  10.567   2.564
  540SOL     OW 3516   1.027   4.849   8.248
  540SOL    HW1 3517   0.996   4.805   8.328
  540SOL    HW2 3518   1.121   4.862   8.263
  541SOL     OW 3519   6.016   4.849  13.460
  541SOL    HW1 3520   5.991   4.936  13.489
  541SOL    HW2 3521   5.938   4.815  13.415
  542SOL     OW 3522   2.617   0.238   7.737
  542SOL    HW1 3523   2.688   0.174   7.725
  542SOL    HW2 3524   2.613   0.251   7.832
  543SOL     OW 3525  10.410   2.793   6.953
  543SOL    HW1 3526  10.354   2.870   6.943
  543SOL    HW2 3527  10.473   2.800   6.881
  544SOL     OW 3528   2.655   6.108  12.800
  544SOL    HW1 3529   2.731   6.073  12.848
  544SOL    HW2 3530   2.592   6.131  12.869
  545SOL     OW 3531   8.509  12.600   9.207
  545SOL    HW1 3532   8.470  12.547   9.276
  545SOL    HW2 3533   8.509  12.689   9.242
  546SOL     OW 3534   9.088   4.338  12.711
  546SOL    HW1 3535   9.051   4.424  12.730
  546SOL    HW2 3536   9.160   4.356  12.650
  547SOL     OW 3537  10.818   4.321   1.564
  547SOL    HW1 3538  10.782   4.235   1.585
  547SOL    HW2 3539  10.901   4.324   1.611
  548SOL     OW 3540  10.327  13.043   2.917
  548SOL    HW1 3541  10.279  13.001   2.989
  548SOL    HW2 3542  10.292  13.132   2.914
  549SOL     OW 3543   6.690  11.530   4.920
  549SOL    HW1 3544   6.752  11.512   4.991
  549SOL    HW2 3545   6.667  11.622   4.931
  550SOL     OW 3546   0.161  14.808   5.085
  550SOL    HW1 3547   0.088  14.751   5.059
  550SOL    HW2 3548   0.226  14.797   5.015
  551SOL     OW 3549  13.704   6.118   6.608
  551SOL    HW1 3550  13.783   6.065   6.600
  551SOL    HW2 3551  13.642   6.079   6.546
  552SOL     OW 3552   0.534   2.152   9.010
  552SOL    HW1 3553   0.592   2.148   8.934
  552SOL    HW2 3554   0.484   2.233   8.998
  553SOL     OW 3555  12.606   2.892   8.699
  553SOL    HW1 3556  12.624   2.804   8.664
  553SOL    HW2 3557  12.648   2.951   8.636
  554SOL     OW 3558   8.147   6.317   1.206
  554SOL    HW1 3559   8.059   6.317   1.243
  554SOL    HW2 3560   8.151   6.237   1.154
  555SOL     OW 3561   9.101  14.457  14.814
  555SOL    HW1 3562   9.084  14.463   0.028
  555SOL    HW2 3563   9.029  14.505  14.774
  556SOL     OW 3564   8.097  12.951  11.219
  556SOL    HW1 3565   8.069  13.042  11.234
  556SOL    HW2 3566   8.041  12.899  11.277
  557SOL     OW 3567  12.215   0.448   1.064
  557SOL    HW1 3568  12.182   0.535   1.041
  557SOL    HW2 3569  12.283   0.465   1.130
  558SOL     OW 3570   5.742  14.205  13.521
  558SOL    HW1 3571   5.782  14.277  13.474
  558SOL    HW2 3572   5.656  14.239  13.549
  559SOL     OW 3573   4.910   6.858  14.345
  559SOL    HW1 3574   4.852   6.915  14.395
  559SOL    HW2 3575   4.987   6.847  14.401
  560SOL     OW 3576   7.825  11.591   6.393
  560SOL    HW1 3577   7.906  11.542   6.386
  560SOL    HW2 3578   7.853  11.683   6.394
  561SOL     OW 3579   8.863   9.240   6.941
  561SOL    HW1 3580   8.902   9.162   6.902
  561SOL    HW2 3581   8.937   9.291   6.972
  562SOL     OW 3582   6.961   6.316   8.701
  562SOL    HW1 3583   6.923   6.301   8.788
  562SOL    HW2 3584   6.911   6.390   8.666
  563SOL     OW 3585  14.494  10.567   8.056
  563SOL    HW1 3586  14.562  10.570   8.123
  563SOL    HW2 3587  14.468  10.658   8.043
  564SOL     OW 3588   9.110   5.010   9.348
  564SOL    HW1 3589   9.065   4.936   9.386
  564SOL    HW2 3590   9.186   4.972   9.304
  565SOL     OW 3591   2.495   5.553  13.712
  565SOL    HW1 3592   2.516   5.621  13.776
  565SOL    HW2 3593   2.400   5.542  13.720
  566SOL     OW 3594   6.084  13.668  14.136
  566SOL    HW1 3595   6.070  13.706  14.223
  566SOL    HW2 3596   6.144  13.595  14.151
  567SOL     OW 3597  10.038   0.902   0.492
  567SOL    HW1 3598   9.954   0.907   0.538
  567SOL    HW2 3599  10.084   0.981   0.518
  568SOL     OW 3600  14.182   3.457  11.576
  568SOL    HW1 3601  14.125   3.458  11.653
  568SOL    HW2 3602  14.269   3.440  11.610
  569SOL     OW 3603  14.734   2.761   0.757
  569SOL    HW1 3604  14.677   2.738   0.830
  569SOL    HW2 3605  14.820   2.776   0.797
  570SOL     OW 3606  13.435  14.176   3.469
  570SOL    HW1 3607  13.523  14.211   3.479
  570SOL    HW2 3608  13.382  14.251   3.444
  571SOL     OW 3609  13.749   6.893   5.094
  571SOL    HW1 3610  13.688   6.947   5.146
  571SOL    HW2 3611  13.693   6.853   5.027
  572SOL     OW 3612   7.411   6.870   0.077
  572SOL    HW1 3613   7.323   6.831   0.079
  572SOL    HW2 3614   7.464   6.807   0.029
  573SOL     OW 3615   1.126  10.978   4.431
  573SOL    HW1 3616   1.128  10.896   4.383
  573SOL    HW2 3617   1.118  11.045   4.363
  574SOL     OW 3618   7.170  14.278  10.284
  574SOL    HW1 3619   7.245  14.285  10.343
  574SOL    HW2 3620   7.104  14.336  10.321
  575SOL     OW 3621   9.614   0.959  13.261
  575SOL    HW1 3622   9.539   0.930  13.313
  575SOL    HW2 3623   9.675   0.996  13.325
  576SOL     OW 3624  11.656  10.788   7.774
  576SOL    HW1 3625  11.668  10.698   7.744
  576SOL    HW2 3626  11.745  10.821   7.787
  577SOL     OW 3627  12.209  10.122   3.830
  577SOL    HW1 3628  12.124  10.157   3.857
  577SOL    HW2 3629  12.193  10.030   3.810
  578SOL     OW 3630   0.725   1.100  14.727
  578SOL    HW1 3631   0.810   1.122  14.764
  578SOL    HW2 3632   0.663   1.158  14.771
  579SOL     OW 3633  11.557   7.642   6.296
  579SOL    HW1 3634  11.527   7.553   6.312
  579SOL    HW2 3635  11.583   7.674   6.383
  580SOL     OW 3636   0.531   9.115   3.100
  580SOL    HW1 3637   0.597   9.184   3.093
  580SOL    HW2 3638   0.452   9.153   3.064
  581SOL     OW 3639   5.044   2.604   5.780
  581SOL    HW1 3640   5.010   2.693   5.764
  581SOL    HW2 3641   4.990   2.571   5.852
  582SOL     OW 3642  10.353   7.980  10.004
  582SOL    HW1 3643  10.326   7.923   9.931
  582SOL    HW2 3644  10.447   7.963  10.014
  583SOL     OW 3645   2.285   4.522   1.308
  583SOL    HW1 3646   2.370   4.524   1.264
  583SOL    HW2 3647   2.254   4.612   1.305
  584SOL     OW 3648   1.919   0.148   7.856
  584SOL    HW1 3649   1.970   0.150   7.936
  584SOL    HW2 3650   1.891   0.238   7.842
  585SOL     OW 3651   7.212   2.265   9.891
  585SOL    HW1 3652   7.270   2.341   9.899
  585SOL    HW2 3653   7.267   2.190   9.912
  586SOL     OW 3654   1.137   9.551   3.825
  586SOL    HW1 3655   1.232   9.551   3.834
  586SOL    HW2 3656   1.121   9.528   3.734
  587SOL     OW 3657   2.352  10.425   7.678
  587SOL    HW1 3658   2.305  10.398   7.757
  587SOL    HW2 3659   2.338  10.354   7.616
  588SOL     OW 3660   0.245   6.137   4.102
  588SOL    HW1 3661   0.168   6.086   4.076
  588SOL    HW2 3662   0.208   6.214   4.145
  589SOL     OW 3663   0.405   7.042   5.634
  589SOL    HW1 3664   0.350   7.021   5.709
  589SOL    HW2 3665   0.345   7.077   5.569
  590SOL     OW 3666   2.373   9.234   1.038
  590SOL    HW1 3667   2.342   9.320   1.066
  590SOL    HW2 3668   2.468   9.237   1.051
  591SOL     OW 3669  13.019  12.699   8.917
  591SOL    HW1 3670  13.035  12.625   8.859
  591SOL    HW2 3671  13.058  12.673   9.000
  592SOL     OW 3672   4.799   9.233   6.767
  592SOL    HW1 3673   4.845   9.316   6.756
  592SOL    HW2 3674   4.825   9.181   6.691
  593SOL     OW 3675  12.813  11.316   2.310
  593SOL    HW1 3676  12.840  11.391   2.257
  593SOL    HW2 3677  12.893  11.265   2.322
  594SOL     OW 3678   7.832   5.414   4.767
  594SOL    HW1 3679   7.921   5.424   4.731
  594SOL    HW2 3680   7.795   5.502   4.763
  595SOL     OW 3681   5.605  14.490   9.450
  595SOL    HW1 3682   5.589  14.536   9.368
  595SOL    HW2 3683   5.654  14.553   9.503
  596SOL     OW 3684   8.523   9.813  11.447
  596SOL    HW1 3685   8.579   9.757  11.394
  596SOL    HW2 3686   8.442   9.821  11.395
  597SOL     OW 3687   5.580   2.141   7.521
  597SOL    HW1 3688   5.548   2.072   7.579
  597SOL    HW2 3689   5.628   2.201   7.579
  598SOL     OW 3690   0.098  13.559   1.402
  598SOL    HW1 3691   0.053  13.565   1.317
  598SOL    HW2 3692   0.137  13.646   1.414
  599SOL     OW 3693   8.407  12.310   1.856
  599SOL    HW1 3694   8.403  12.216   1.841
  599SOL    HW2 3695   8.420  12.348   1.768
  600SOL     OW 3696   5.001   2.257   4.922
  600SOL    HW1 3697   4.913   2.225   4.900
  600SOL    HW2 3698   4.996   2.352   4.912
  601SOL     OW 3699  11.030   8.494   6.189
  601SOL    HW1 3700  11.037   8.472   6.282
  601SOL    HW2 3701  11.037   8.410   6.144
  602SOL     OW 3702  14.013   8.498   4.323
  602SOL    HW1 3703  13.969   8.443   4.258
  602SOL    HW2 3704  14.016   8.585   4.282
  603SOL     OW 3705  13.441   7.494   6.686
  603SOL    HW1 3706  13.499   7.419   6.698
  603SOL    HW2 3707  13.362   7.471   6.735
  604SOL     OW 3708  12.294  12.986   3.135
  604SOL    HW1 3709  12.307  12.936   3.054
  604SOL    HW2 3710  12.382  12.990   3.174
  605SOL     OW 3711   4.299   6.558   6.463
  605SOL    HW1 3712   4.256   6.475   6.444
  605SOL    HW2 3713   4.237   6.606   6.517
  606SOL     OW 3714   7.566   7.313   8.451
  606SOL    HW1 3715   7.626   7.354   8.513
  606SOL    HW2 3716   7.586   7.220   8.457
  607SOL     OW 3717   1.140  12.535   6.291
  607SOL    HW1 3718   1.118  12.509   6.380
  607SOL    HW2 3719   1.133  12.454   6.240
  608SOL     OW 3720   1.538   3.497   5.522
  608SOL    HW1 3721   1.448   3.528   5.530
  608SOL    HW2 3722   1.531   3.401   5.521
  609SOL     OW 3723   9.102   6.653  12.748
  609SOL    HW1 3724   9.138   6.673  12.834
  609SOL    HW2 3725   9.098   6.738  12.704
  610SOL     OW 3726  11.226  12.135   6.390
  610SOL    HW1 3727  11.193  12.215   6.350
  610SOL    HW2 3728  11.297  12.165   6.447
  611SOL     OW 3729   5.163   9.199  11.586
  611SOL    HW1 3730   5.191   9.289  11.574
  611SOL    HW2 3731   5.240   9.153  11.618
  612SOL     OW 3732   2.239   4.825   7.178
  612SOL    HW1 3733   2.173   4.813   7.246
  612SOL    HW2 3734   2.285   4.741   7.174
  613SOL     OW 3735  11.437   9.495   8.940
  613SOL    HW1 3736  11.484   9.551   8.878
  613SOL    HW2 3737  11.396   9.428   8.885
  614SOL     OW 3738   6.459   4.220   9.636
  614SOL    HW1 3739   6.430   4.129   9.638
  614SOL    HW2 3740   6.524   4.223   9.565
  615SOL     OW 3741   5.152   7.872   9.463
  615SOL    HW1 3742   5.145   7.957   9.421
  615SOL    HW2 3743   5.073   7.865   9.517
  616SOL     OW 3744   8.479   2.218   6.093
  616SOL    HW1 3745   8.535   2.253   6.024
  616SOL    HW2 3746   8.494   2.275   6.168
  617SOL     OW 3747  11.942  14.401   1.940
  617SOL    HW1 3748  11.953  14.490   1.907
  617SOL    HW2 3749  11.928  14.413   2.034
  618SOL     OW 3750   4.412   9.711  10.038
  618SOL    HW1 3751   4.482   9.647  10.028
  618SOL    HW2 3752   4.347   9.668  10.094
  619SOL     OW 3753   7.060   6.202   7.216
  619SOL    HW1 3754   7.017   6.264   7.275
  619SOL    HW2 3755   7.153   6.223   7.224
  620SOL     OW 3756   0.220   4.106   6.687
  620SOL    HW1 3757   0.144   4.125   6.632
  620SOL    HW2 3758   0.294   4.103   6.626
  621SOL     OW 3759   0.636   0.337  12.925
  621SOL    HW1 3760   0.583   0.400  12.974
  621SOL    HW2 3761   0.661   0.384  12.845
  622SOL     OW 3762   6.802   4.844   0.509
  622SOL    HW1 3763   6.828   4.764   0.464
  622SOL    HW2 3764   6.765   4.900   0.441
  623SOL     OW 3765  13.806   8.577  10.484
  623SOL    HW1 3766  13.866   8.549  10.414
  623SOL    HW2 3767  13.719   8.562  10.448
  624SOL     OW 3768   6.269  10.469   3.035
  624SOL    HW1 3769   6.251  10.559   3.061
  624SOL    HW2 3770   6.349  10.446   3.082
  625SOL     OW 3771   8.289   1.228   4.533
  625SOL    HW1 3772   8.272   1.321   4.514
  625SOL    HW2 3773   8.315   1.227   4.625
  626SOL     OW 3774  10.105   3.836  11.525
  626SOL    HW1 3775  10.173   3.888  11.568
  626SOL    HW2 3776  10.153   3.771  11.474
  627SOL     OW 3777  13.161   9.088  12.876
  627SOL    HW1 3778  13.176   9.182  12.866
  627SOL    HW2 3779  13.245   9.054  12.907
  628SOL     OW 3780  13.509  10.200   3.827
  628SOL    HW1 3781  13.517  10.289   3.863
  628SOL    HW2 3782  13.436  10.161   3.876
  629SOL     OW 3783  10.553   5.433   0.290
  629SOL    HW1 3784  10.524   5.397   0.374
  629SOL    HW2 3785  10.492   5.397   0.226
  630SOL     OW 3786   2.530   7.665   0.632
  630SOL    HW1 3787   2.596   7.656   0.564
  630SOL    HW2 3788   2.573   7.633   0.711
  631SOL     OW 3789   9.236   2.027   0.862
  631SOL    HW1 3790   9.257   1.947   0.910
  631SOL    HW2 3791   9.207   1.997   0.776
  632SOL     OW 3792   7.247   4.892   6.395
  632SOL    HW1 3793   7.207   4.925   6.315
  632SOL    HW2 3794   7.181   4.906   6.462
  633SOL     OW 3795   5.982   0.084   8.427
  633SOL    HW1 3796   5.997   0.017   8.494
  633SOL    HW2 3797   6.039   0.157   8.453
  634SOL     OW 3798   1.932   0.561   5.795
  634SOL    HW1 3799   1.925   0.657   5.789
  634SOL    HW2 3800   1.904   0.540   5.883
  635SOL     OW 3801  11.201   2.296   0.484
  635SOL    HW1 3802  11.230   2.237   0.553
  635SOL    HW2 3803  11.256   2.374   0.496
  636SOL     OW 3804   5.188  13.250  14.389
  636SOL    HW1 3805   5.166  13.229  14.480
  636SOL    HW2 3806   5.283  13.254  14.387
  637SOL     OW 3807   3.086  13.841   5.338
  637SOL    HW1 3808   3.082  13.932   5.310
  637SOL    HW2 3809   3.004  13.802   5.307
  638SOL     OW 3810  12.377   6.883   8.600
  638SOL    HW1 3811  12.299   6.880   8.655
  638SOL    HW2 3812  12.432   6.951   8.640
  639SOL     OW 3813   2.625  10.110   5.063
  639SOL    HW1 3814   2.707  10.067   5.040
  639SOL    HW2 3815   2.560  10.069   5.006
  640SOL     OW 3816  10.113   1.290  14.518
  640SOL    HW1 3817  10.030   1.302  14.564
  640SOL    HW2 3818  10.178   1.327  14.578
  641SOL     OW 3819   7.201  11.883   7.288
  641SOL    HW1 3820   7.162  11.838   7.363
  641SOL    HW2 3821   7.127  11.924   7.243
  642SOL     OW 3822   2.917   4.686  10.947
  642SOL    HW1 3823   2.910   4.592  10.964
  642SOL    HW2 3824   2.827   4.715  10.937
  643SOL     OW 3825   6.235   1.752  14.347
  643SOL    HW1 3826   6.264   1.763  14.437
  643SOL    HW2 3827   6.232   1.841  14.312
  644SOL     OW 3828   4.911   9.206   1.020
  644SOL    HW1 3829   4.873   9.139   1.077
  644SOL    HW2 3830   4.855   9.282   1.032
  645SOL     OW 3831   8.425   6.158   7.462
  645SOL    HW1 3832   8.377   6.100   7.404
  645SOL    HW2 3833   8.367   6.233   7.474
  646SOL     OW 3834  12.447  11.660   9.949
  646SOL    HW1 3835  12.497  11.665  10.030
  646SOL    HW2 3836  12.485  11.728   9.893
  647SOL     OW 3837   3.618   6.712  13.109
  647SOL    HW1 3838   3.601   6.761  13.029
  647SOL    HW2 3839   3.583   6.766  13.179
  648SOL     OW 3840   6.021   3.687  11.590
  648SOL    HW1 3841   6.072   3.617  11.631
  648SOL    HW2 3842   5.948   3.701  11.651
  649SOL     OW 3843  12.445   3.372   3.998
  649SOL    HW1 3844  12.523   3.319   3.977
  649SOL    HW2 3845  12.462   3.405   4.086
  650SOL     OW 3846   7.969   3.063   8.005
  650SOL    HW1 3847   8.026   2.997   7.966
  650SOL    HW2 3848   7.898   3.074   7.941
  651SOL     OW 3849   9.797  10.206   9.843
  651SOL    HW1 3850   9.821  10.298   9.854
  651SOL    HW2 3851   9.879  10.159   9.850
  652SOL     OW 3852  11.068   1.592  12.685
  652SOL    HW1 3853  11.101   1.552  12.604
  652SOL    HW2 3854  11.145   1.634  12.723
  653SOL     OW 3855   3.368   9.367   0.138
  653SOL    HW1 3856   3.314   9.311   0.194
  653SOL    HW2 3857   3.389   9.312   0.063
  654SOL     OW 3858   0.653  12.236  13.167
  654SOL    HW1 3859   0.612  12.267  13.248
  654SOL    HW2 3860   0.678  12.145  13.186
  655SOL     OW 3861   0.339   6.223  13.571
  655SOL    HW1 3862   0.421   6.178  13.590
  655SOL    HW2 3863   0.271   6.163  13.604
  656SOL     OW 3864   8.739  12.467   3.075
  656SOL    HW1 3865   8.652  12.441   3.104
  656SOL    HW2 3866   8.725  12.537   3.012
  657SOL     OW 3867  11.392  13.967   0.256
  657SOL    HW1 3868  11.469  13.991   0.205
  657SOL    HW2 3869  11.342  13.910   0.197
  658SOL     OW 3870   8.448  13.834   5.650
  658SOL    HW1 3871   8.435  13.925   5.677
  658SOL    HW2 3872   8.385  13.785   5.702
  659SOL     OW 3873   9.958   6.642   4.569
  659SOL    HW1 3874   9.988   6.711   4.627
  659SOL    HW2 3875   9.873   6.673   4.537
  660SOL     OW 3876  12.786  12.009  10.122
  660SOL    HW1 3877  12.699  12.038  10.149
  660SOL    HW2 3878  12.822  11.966  10.199
  661SOL     OW 3879  14.193   6.846   4.892
  661SOL    HW1 3880  14.195   6.905   4.817
  661SOL    HW2 3881  14.210   6.759   4.855
  662SOL     OW 3882   9.388   5.631   9.976
  662SOL    HW1 3883   9.461   5.570   9.983
  662SOL    HW2 3884   9.331   5.594   9.909
  663SOL     OW 3885   4.593   8.119   3.771
  663SOL    HW1 3886   4.510   8.126   3.819
  663SOL    HW2 3887   4.659   8.154   3.831
  664SOL     OW 3888  12.633  10.112   4.683
  664SOL    HW1 3889  12.540  10.124   4.664
  664SOL    HW2 3890  12.676  10.122   4.598
  665SOL     OW 3891   3.524   7.510   5.082
  665SOL    HW1 3892   3.570   7.589   5.108
  665SOL    HW2 3893   3.570   7.439   5.126
  666SOL     OW 3894   7.572  14.086   3.965
  666SOL    HW1 3895   7.482  14.113   3.982
  666SOL    HW2 3896   7.623  14.129   4.034
  667SOL     OW 3897  14.186   8.866  10.503
  667SOL    HW1 3898  14.182   8.819  10.420
  667SOL    HW2 3899  14.146   8.806  10.566
  668SOL     OW 3900   7.438   1.790   4.032
  668SOL    HW1 3901   7.365   1.849   4.046
  668SOL    HW2 3902   7.514   1.847   4.024
  669SOL     OW 3903   0.550   9.079   9.881
  669SOL    HW1 3904   0.630   9.129   9.863
  669SOL    HW2 3905   0.572   8.990   9.856
  670SOL     OW 3906  11.668   3.747  10.110
  670SOL    HW1 3907  11.595   3.713  10.058
  670SOL    HW2 3908  11.628   3.772  10.193
  671SOL     OW 3909   8.781  14.514   1.416
  671SOL    HW1 3910   8.706  14.465   1.449
  671SOL    HW2 3911   8.835  14.449   1.373
  672SOL     OW 3912   1.187   5.152   2.776
  672SOL    HW1 3913   1.243   5.149   2.698
  672SOL    HW2 3914   1.097   5.149   2.741
  673SOL     OW 3915   8.792   1.129   4.514
  673SOL    HW1 3916   8.696   1.120   4.510
  673SOL    HW2 3917   8.819   1.135   4.423
  674SOL     OW 3918   9.651  13.919   3.345
  674SOL    HW1 3919   9.702  13.937   3.266
  674SOL    HW2 3920   9.629  14.006   3.379
  675SOL     OW 3921  11.193   6.481   1.191
  675SOL    HW1 3922  11.171   6.560   1.142
  675SOL    HW2 3923  11.185   6.507   1.283
  676SOL     OW 3924   6.252  12.999   5.463
  676SOL    HW1 3925   6.244  13.074   5.523
  676SOL    HW2 3926   6.343  13.004   5.432
  677SOL     OW 3927   6.397  13.858   6.546
  677SOL    HW1 3928   6.417  13.902   6.629
  677SOL    HW2 3929   6.441  13.774   6.552
  678SOL     OW 3930  14.467   1.024   1.572
  678SOL    HW1 3931  14.540   1.027   1.634
  678SOL    HW2 3932  14.468   1.110   1.529
  679SOL     OW 3933   6.438   1.869   5.144
  679SOL    HW1 3934   6.359   1.922   5.142
  679SOL    HW2 3935   6.510   1.932   5.150
  680SOL     OW 3936   7.094  13.453  10.934
  680SOL    HW1 3937   7.078  13.359  10.931
  680SOL    HW2 3938   7.015  13.493  10.899
  681SOL     OW 3939  10.010   2.040   0.054
  681SOL    HW1 3940  10.034   2.007  14.847
  681SOL    HW2 3941   9.930   2.089   0.040
  682SOL     OW 3942   4.591   0.143   1.316
  682SOL    HW1 3943   4.669   0.090   1.298
  682SOL    HW2 3944   4.606   0.178   1.404
  683SOL     OW 3945   1.391   2.072  12.207
  683SOL    HW1 3946   1.447   2.037  12.276
  683SOL    HW2 3947   1.303   2.040  12.228
  684SOL     OW 3948  13.686  12.591   4.721
  684SOL    HW1 3949  13.657  12.589   4.812
  684SOL    HW2 3950  13.629  12.529   4.675
  685SOL     OW 3951  10.507   1.541   8.415
  685SOL    HW1 3952  10.570   1.612   8.409
  685SOL    HW2 3953  10.524   1.486   8.340
  686SOL     OW 3954  10.711  13.462   8.264
  686SOL    HW1 3955  10.737  13.512   8.342
  686SOL    HW2 3956  10.764  13.382   8.269
  687SOL     OW 3957   9.903   2.733   0.685
  687SOL    HW1 3958   9.973   2.726   0.621
  687SOL    HW2 3959   9.858   2.649   0.682
  688SOL     OW 3960  11.258   3.432  14.376
  688SOL    HW1 3961  11.309   3.433  14.457
  688SOL    HW2 3962  11.171   3.400  14.403
  689SOL     OW 3963  11.482  12.846  11.535
  689SOL    HW1 3964  11.387  12.840  11.545
  689SOL    HW2 3965  11.501  12.794  11.456
  690SOL     OW 3966  12.459   9.341   0.575
  690SOL    HW1 3967  12.488   9.284   0.646
  690SOL    HW2 3968  12.399   9.403   0.618
  691SOL     OW 3969   0.525   1.248  11.000
  691SOL    HW1 3970   0.604   1.290  11.033
  691SOL    HW2 3971   0.515   1.170  11.055
  692SOL     OW 3972   6.375   2.988   5.515
  692SOL    HW1 3973   6.384   3.019   5.605
  692SOL    HW2 3974   6.310   3.047   5.476
  693SOL     OW 3975   3.037  13.603   9.246
  693SOL    HW1 3976   3.057  13.690   9.210
  693SOL    HW2 3977   2.942  13.602   9.253
  694SOL     OW 3978  14.738   3.785  14.799
  694SOL    HW1 3979  14.666   3.784  14.737
  694SOL    HW2 3980  14.709   3.843  14.870
  695SOL     OW 3981   6.771  11.642   5.978
  695SOL    HW1 3982   6.739  11.719   5.930
  695SOL    HW2 3983   6.692  11.603   6.016
  696SOL     OW 3984  12.099  11.570   8.099
  696SOL    HW1 3985  12.109  11.660   8.130
  696SOL    HW2 3986  12.176  11.524   8.132
  697SOL     OW 3987   0.375   5.791  11.230
  697SOL    HW1 3988   0.443   5.783  11.297
  697SOL    HW2 3989   0.421   5.784  11.147
  698SOL     OW 3990  11.254   9.409  10.320
  698SOL    HW1 3991  11.237   9.424  10.227
  698SOL    HW2 3992  11.335   9.357  10.322
  699SOL     OW 3993   6.336   4.133   2.659
  699SOL    HW1 3994   6.321   4.167   2.747
  699SOL    HW2 3995   6.380   4.206   2.613
  700SOL     OW 3996   0.727   2.535   8.215
  700SOL    HW1 3997   0.738   2.461   8.156
  700SOL    HW2 3998   0.642   2.520   8.257
  701SOL     OW 3999   4.035   0.241  14.108
  701SOL    HW1 4000   3.989   0.301  14.049
  701SOL    HW2 4001   4.128   0.257  14.089
  702SOL     OW 4002   6.280   3.020   5.011
  702SOL    HW1 4003   6.276   3.113   4.989
  702SOL    HW2 4004   6.360   3.012   5.064
  703SOL     OW 4005   5.405   1.902  14.586
  703SOL    HW1 4006   5.464   1.930  14.657
  703SOL    HW2 4007   5.456   1.917  14.506
  704SOL     OW 4008   5.979   2.175  12.102
  704SOL    HW1 4009   6.002   2.260  12.141
  704SOL    HW2 4010   5.929   2.197  12.024
  705SOL     OW 4011   3.433  10.982   3.322
  705SOL    HW1 4012   3.430  11.016   3.411
  705SOL    HW2 4013   3.400  11.053   3.268
  706SOL     OW 4014   0.529   4.626   7.922
  706SOL    HW1 4015   0.598   4.653   7.861
  706SOL    HW2 4016   0.468   4.699   7.923
  707SOL     OW 4017   5.335   9.565   0.500
  707SOL    HW1 4018   5.424   9.601   0.496
  707SOL    HW2 4019   5.328   9.530   0.589
  708SOL     OW 4020   2.232   7.017  13.286
  708SOL    HW1 4021   2.187   6.957  13.226
  708SOL    HW2 4022   2.203   6.990  13.373
  709SOL     OW 4023  13.710   3.979   5.160
  709SOL    HW1 4024  13.771   4.020   5.222
  709SOL    HW2 4025  13.705   3.887   5.189
  710SOL     OW 4026   6.371  12.647  12.585
  710SOL    HW1 4027   6.437  12.705  12.623
  710SOL    HW2 4028   6.296  12.653  12.645
  711SOL     OW 4029  10.522   9.258  12.604
  711SOL    HW1 4030  10.552   9.339  12.563
  711SOL    HW2 4031  10.579   9.190  12.568
  712SOL     OW 4032  14.216   1.925   9.165
  712SOL    HW1 4033  14.295   1.945   9.215
  712SOL    HW2 4034  14.206   1.830   9.174
  713SOL     OW 4035   7.378   6.967  10.471
  713SOL    HW1 4036   7.387   6.956  10.566
  713SOL    HW2 4037   7.309   6.904  10.446
  714SOL     OW 4038   0.143  14.191  10.797
  714SOL    HW1 4039   0.116  14.257  10.733
  714SOL    HW2 4040   0.138  14.108  10.749
  715SOL     OW 4041   6.244  13.897  12.974
  715SOL    HW1 4042   6.334  13.874  12.952
  715SOL    HW2 4043   6.253  13.962  13.044
  716SOL     OW 4044   0.514   1.827   4.707
  716SOL    HW1 4045   0.419   1.815   4.716
  716SOL    HW2 4046   0.539   1.763   4.640
  717SOL     OW 4047  11.899   7.833   7.999
  717SOL    HW1 4048  11.842   7.759   8.023
  717SOL    HW2 4049  11.876   7.854   7.909
  718SOL     OW 4050   8.733  12.134   4.847
  718SOL    HW1 4051   8.815  12.164   4.808
  718SOL    HW2 4052   8.736  12.169   4.936
  719SOL     OW 4053  11.997   6.432   0.473
  719SOL    HW1 4054  11.958   6.448   0.387
  719SOL    HW2 4055  11.934   6.374   0.516
  720SOL     OW 4056   8.232  11.223   7.163
  720SOL    HW1 4057   8.189  11.140   7.184
  720SOL    HW2 4058   8.252  11.262   7.249
  721SOL     OW 4059   4.899   9.226   0.170
  721SOL    HW1 4060   4.839   9.252   0.100
  721SOL    HW2 4061   4.962   9.298   0.175
  722SOL     OW 4062   5.671   6.110  14.855
  722SOL    HW1 4063   5.597   6.051  14.838
  722SOL    HW2 4064   5.740   6.052   0.009
  723SOL     OW 4065   0.937  14.589   6.708
  723SOL    HW1 4066   1.021  14.635   6.710
  723SOL    HW2 4067   0.943  14.524   6.778
  724SOL     OW 4068   3.665  13.340  14.186
  724SOL    HW1 4069   3.630  13.414  14.235
  724SOL    HW2 4070   3.752  13.325  14.224
  725SOL     OW 4071   9.516   4.178  12.264
  725SOL    HW1 4072   9.577   4.239  12.306
  725SOL    HW2 4073   9.572   4.106  12.234
  726SOL     OW 4074  12.109  12.354   1.795
  726SOL    HW1 4075  12.129  12.406   1.717
  726SOL    HW2 4076  12.015  12.337   1.789
  727SOL     OW 4077   6.084   3.333  12.458
  727SOL    HW1 4078   6.086   3.306  12.550
  727SOL    HW2 4079   6.022   3.274  12.417
  728SOL     OW 4080   8.319  13.794   4.122
  728SOL    HW1 4081   8.257  13.727   4.152
  728SOL    HW2 4082   8.381  13.746   4.067
  729SOL     OW 4083   3.209   9.259   7.316
  729SOL    HW1 4084   3.235   9.220   7.232
  729SOL    HW2 4085   3.196   9.351   7.297
  730SOL     OW 4086   9.673  11.276  13.388
  730SOL    HW1 4087   9.651  11.369  13.397
  730SOL    HW2 4088   9.602  11.230  13.433
  731SOL     OW 4089  11.351   2.326   1.334
  731SOL    HW1 4090  11.441   2.350   1.313
  731SOL    HW2 4091  11.349   2.323   1.430
  732SOL     OW 4092   8.804  11.483   1.443
  732SOL    HW1 4093   8.879  11.479   1.503
  732SOL    HW2 4094   8.785  11.391   1.424
  733SOL     OW 4095  10.719  13.837  12.646
  733SOL    HW1 4096  10.809  13.858  12.620
  733SOL    HW2 4097  10.705  13.748  12.614
  734SOL     OW 4098   4.515   3.947   6.655
  734SOL    HW1 4099   4.478   4.025   6.615
  734SOL    HW2 4100   4.440   3.895   6.681
  735SOL     OW 4101   8.448  13.000  12.432
  735SOL    HW1 4102   8.539  12.990  12.403
  735SOL    HW2 4103   8.425  12.914  12.467
  736SOL     OW 4104   5.172   0.352  11.143
  736SOL    HW1 4105   5.083   0.362  11.176
  736SOL    HW2 4106   5.227   0.360  11.221
  737SOL     OW 4107   6.248   2.722   3.136
  737SOL    HW1 4108   6.206   2.636   3.131
  737SOL    HW2 4109   6.292   2.732   3.051
  738SOL     OW 4110  12.989   9.494   8.573
  738SOL    HW1 4111  12.972   9.566   8.634
  738SOL    HW2 4112  13.085   9.492   8.565
  739SOL     OW 4113  10.701  10.508   4.092
  739SOL    HW1 4114  10.782  10.477   4.134
  739SOL    HW2 4115  10.632  10.452   4.129
  740SOL     OW 4116  10.388   5.090  14.364
  740SOL    HW1 4117  10.393   5.019  14.301
  740SOL    HW2 4118  10.430   5.164  14.321
  741SOL     OW 4119   3.780   5.536   4.441
  741SOL    HW1 4120   3.800   5.505   4.353
  741SOL    HW2 4121   3.730   5.617   4.427
  742SOL     OW 4122   9.941   6.199   3.745
  742SOL    HW1 4123   9.916   6.194   3.838
  742SOL    HW2 4124  10.026   6.154   3.742
  743SOL     OW 4125   7.039  12.801   4.431
  743SOL    HW1 4126   7.007  12.878   4.384
  743SOL    HW2 4127   7.101  12.760   4.371
  744SOL     OW 4128  11.682   9.314  10.857
  744SOL    HW1 4129  11.692   9.279  10.769
  744SOL    HW2 4130  11.672   9.408  10.845
  745SOL     OW 4131  13.051   8.607   9.481
  745SOL    HW1 4132  12.960   8.577   9.483
  745SOL    HW2 4133  13.067   8.642   9.568
  746SOL     OW 4134   1.934  10.958   5.014
  746SOL    HW1 4135   1.928  10.987   4.923
  746SOL    HW2 4136   1.859  10.899   5.024
  747SOL     OW 4137   3.247   4.525   9.602
  747SOL    HW1 4138   3.273   4.433   9.604
  747SOL    HW2 4139   3.250   4.549   9.509
  748SOL     OW 4140   7.597  14.334   9.561
  748SOL    HW1 4141   7.564  14.423   9.573
  748SOL    HW2 4142   7.575  14.289   9.643
  749SOL     OW 4143   6.942  14.513   9.348
  749SOL    HW1 4144   6.865  14.468   9.381
  749SOL    HW2 4145   6.936  14.601   9.387
  750SOL     OW 4146   3.847  12.323   1.424
  750SOL    HW1 4147   3.768  12.371   1.449
  750SOL    HW2 4148   3.823  12.231   1.436
  751SOL     OW 4149   8.360   6.588   7.234
  751SOL    HW1 4150   8.348   6.513   7.175
  751SOL    HW2 4151   8.277   6.596   7.280
  752SOL     OW 4152   5.274   1.914   8.533
  752SOL    HW1 4153   5.288   1.840   8.475
  752SOL    HW2 4154   5.351   1.970   8.520
  753SOL     OW 4155  11.085   9.777   7.699
  753SOL    HW1 4156  11.101   9.704   7.639
  753SOL    HW2 4157  10.994   9.765   7.728
  754SOL     OW 4158   9.319  14.586  11.717
  754SOL    HW1 4159   9.255  14.651  11.688
  754SOL    HW2 4160   9.404  14.622  11.692
  755SOL     OW 4161   2.735  14.188   1.846
  755SOL    HW1 4162   2.730  14.229   1.760
  755SOL    HW2 4163   2.710  14.257   1.907
  756SOL     OW 4164   5.528   6.454  11.367
  756SOL    HW1 4165   5.620   6.453  11.340
  756SOL    HW2 4166   5.480   6.485  11.291
  757SOL     OW 4167  14.785  10.194   8.991
  757SOL    HW1 4168  14.777  10.181   9.085
  757SOL    HW2 4169  14.828  10.279   8.982
  758SOL     OW 4170   6.519   3.838  11.580
  758SOL    HW1 4171   6.538   3.745  11.568
  758SOL    HW2 4172   6.432   3.850  11.541
  759SOL     OW 4173  10.572   0.058  11.708
  759SOL    HW1 4174  10.512   0.130  11.689
  759SOL    HW2 4175  10.571   0.004  11.629
  760SOL     OW 4176   1.738  10.204   1.848
  760SOL    HW1 4177   1.769  10.114   1.845
  760SOL    HW2 4178   1.707  10.216   1.938
  761SOL     OW 4179   0.178   9.879  14.594
  761SOL    HW1 4180   0.113   9.877  14.664
  761SOL    HW2 4181   0.176   9.970  14.563
  762SOL     OW 4182  11.141  12.454   2.620
  762SOL    HW1 4183  11.068  12.508   2.590
  762SOL    HW2 4184  11.101  12.386   2.673
  763SOL     OW 4185   2.308   4.824  10.170
  763SOL    HW1 4186   2.230   4.876  10.153
  763SOL    HW2 4187   2.275   4.742  10.207
  764SOL     OW 4188   5.480   0.904   4.449
  764SOL    HW1 4189   5.496   0.997   4.467
  764SOL    HW2 4190   5.567   0.864   4.449
  765SOL     OW 4191   9.027  12.573   1.426
  765SOL    HW1 4192   9.103  12.607   1.378
  765SOL    HW2 4193   9.033  12.478   1.415
  766SOL     OW 4194  12.955  11.640   8.088
  766SOL    HW1 4195  12.903  11.561   8.101
  766SOL    HW2 4196  13.030  11.611   8.035
  767SOL     OW 4197   8.908   4.855   8.730
  767SOL    HW1 4198   8.963   4.777   8.720
  767SOL    HW2 4199   8.877   4.851   8.820
  768SOL     OW 4200   4.195  10.715   6.693
  768SOL    HW1 4201   4.221  10.807   6.691
  768SOL    HW2 4202   4.243  10.678   6.767
  769SOL     OW 4203  14.483  13.616   7.957
  769SOL    HW1 4204  14.497  13.548   8.023
  769SOL    HW2 4205  14.511  13.576   7.875
  770SOL     OW 4206  13.741   8.312  10.668
  770SOL    HW1 4207  13.682   8.332  10.596
  770SOL    HW2 4208  13.725   8.381  10.732
  771SOL     OW 4209  10.577  13.046   1.629
  771SOL    HW1 4210  10.609  12.996   1.704
  771SOL    HW2 4211  10.507  13.101   1.665
  772SOL     OW 4212  10.380   0.341   7.146
  772SOL    HW1 4213  10.444   0.270   7.150
  772SOL    HW2 4214  10.432   0.419   7.126
  773SOL     OW 4215   1.039   2.674   3.962
  773SOL    HW1 4216   1.110   2.739   3.962
  773SOL    HW2 4217   1.082   2.592   3.983
  774SOL     OW 4218   4.167   2.587   3.598
  774SOL    HW1 4219   4.187   2.561   3.688
  774SOL    HW2 4220   4.223   2.662   3.581
  775SOL     OW 4221   7.342   0.362   6.819
  775SOL    HW1 4222   7.339   0.275   6.778
  775SOL    HW2 4223   7.415   0.406   6.777
  776SOL     OW 4224  10.844   9.805   5.147
  776SOL    HW1 4225  10.826   9.781   5.237
  776SOL    HW2 4226  10.877   9.725   5.106
  777SOL     OW 4227   4.014   1.140   3.427
  777SOL    HW1 4228   4.008   1.191   3.346
  777SOL    HW2 4229   3.924   1.110   3.443
  778SOL     OW 4230  14.055  14.461   1.510
  778SOL    HW1 4231  14.104  14.486   1.431
  778SOL    HW2 4232  13.963  14.478   1.487
  779SOL     OW 4233   2.109   1.784   5.438
  779SOL    HW1 4234   2.193   1.830   5.429
  779SOL    HW2 4235   2.083   1.765   5.348
  780SOL     OW 4236   0.199   6.019   7.081
  780SOL    HW1 4237   0.257   6.094   7.069
  780SOL    HW2 4238   0.158   6.006   6.996
  781SOL     OW 4239   6.484   7.780   1.899
  781SOL    HW1 4240   6.401   7.828   1.902
  781SOL    HW2 4241   6.485   7.731   1.981
  782SOL     OW 4242   6.386  13.650   9.753
  782SOL    HW1 4243   6.378  13.569   9.803
  782SOL    HW2 4244   6.296  13.681   9.741
  783SOL     OW 4245   7.484   3.787   8.475
  783SOL    HW1 4246   7.560   3.760   8.424
  783SOL    HW2 4247   7.431   3.708   8.484
  784SOL     OW 4248   8.404   4.737   0.976
  784SOL    HW1 4249   8.463   4.786   0.918
  784SOL    HW2 4250   8.350   4.804   1.018
  785SOL     OW 4251   5.856  12.934   0.903
  785SOL    HW1 4252   5.854  12.878   0.825
  785SOL    HW2 4253   5.863  13.023   0.868
  786SOL     OW 4254  12.094  12.865  14.107
  786SOL    HW1 4255  12.078  12.778  14.144
  786SOL    HW2 4256  12.008  12.905  14.098
  787SOL     OW 4257  13.292  13.307   9.422
  787SOL    HW1 4258  13.336  13.229   9.389
  787SOL    HW2 4259  13.258  13.351   9.344
  788SOL     OW 4260   1.980   8.522   4.895
  788SOL    HW1 4261   1.897   8.556   4.862
  788SOL    HW2 4262   2.041   8.531   4.821
  789SOL     OW 4263  10.279  13.794  10.475
  789SOL    HW1 4264  10.292  13.711  10.428
  789SOL    HW2 4265  10.362  13.810  10.519
  790SOL     OW 4266   8.862  11.667   2.332
  790SOL    HW1 4267   8.842  11.741   2.390
  790SOL    HW2 4268   8.858  11.590   2.389
  791SOL     OW 4269   3.648   1.468   6.834
  791SOL    HW1 4270   3.713   1.402   6.810
  791SOL    HW2 4271   3.620   1.506   6.751
  792SOL     OW 4272   9.583   8.438  10.807
  792SOL    HW1 4273   9.508   8.420  10.750
  792SOL    HW2 4274   9.640   8.362  10.797
  793SOL     OW 4275   7.196   2.424  13.006
  793SOL    HW1 4276   7.165   2.496  13.061
  793SOL    HW2 4277   7.290   2.418  13.026
  794SOL     OW 4278   0.415   0.419   0.663
  794SOL    HW1 4279   0.408   0.399   0.570
  794SOL    HW2 4280   0.449   0.339   0.703
  795SOL     OW 4281   7.114  10.913   7.398
  795SOL    HW1 4282   7.025  10.877   7.401
  795SOL    HW2 4283   7.115  10.978   7.469
  796SOL     OW 4284   5.506   9.007   6.608
  796SOL    HW1 4285   5.567   9.080   6.617
  796SOL    HW2 4286   5.432   9.044   6.559
  797SOL     OW 4287   4.611   8.071   8.725
  797SOL    HW1 4288   4.672   8.003   8.697
  797SOL    HW2 4289   4.613   8.068   8.821
  798SOL     OW 4290   4.832  12.816   1.937
  798SOL    HW1 4291   4.790  12.799   2.022
  798SOL    HW2 4292   4.794  12.899   1.908
  799SOL     OW 4293  10.788  13.652   0.123
  799SOL    HW1 4294  10.809  13.663   0.030
  799SOL    HW2 4295  10.745  13.566   0.127
  800SOL     OW 4296   1.464  11.489   8.856
  800SOL    HW1 4297   1.515  11.559   8.816
  800SOL    HW2 4298   1.511  11.408   8.834
  801SOL     OW 4299  14.107  11.292   8.301
  801SOL    HW1 4300  14.164  11.218   8.319
  801SOL    HW2 4301  14.101  11.295   8.205
  802SOL     OW 4302   1.115   3.736  12.172
  802SOL    HW1 4303   1.058   3.741  12.096
  802SOL    HW2 4304   1.064   3.691  12.238
  803SOL     OW 4305   5.905   1.587   3.437
  803SOL    HW1 4306   5.862   1.664   3.398
  803SOL    HW2 4307   5.880   1.514   3.379
  804SOL     OW 4308  10.234   0.890  14.098
  804SOL    HW1 4309  10.238   0.951  14.171
  804SOL    HW2 4310  10.144   0.896  14.066
  805SOL     OW 4311   2.583   4.773  10.103
  805SOL    HW1 4312   2.634   4.817  10.171
  805SOL    HW2 4313   2.493   4.801  10.119
  806SOL     OW 4314   6.948   1.605   6.908
  806SOL    HW1 4315   6.944   1.630   7.001
  806SOL    HW2 4316   7.009   1.531   6.906
  807SOL     OW 4317  13.040   7.872   9.968
  807SOL    HW1 4318  13.026   7.966   9.967
  807SOL    HW2 4319  12.962   7.836  10.009
  808SOL     OW 4320   2.824  14.511   6.651
  808SOL    HW1 4321   2.852  14.590   6.696
  808SOL    HW2 4322   2.803  14.540   6.562
  809SOL     OW 4323  14.591   9.595   6.448
  809SOL    HW1 4324  14.536   9.579   6.371
  809SOL    HW2 4325  14.532   9.634   6.512
  810SOL     OW 4326  10.649   6.787  12.064
  810SOL    HW1 4327  10.617   6.774  12.153
  810SOL    HW2 4328  10.660   6.698  12.030
  811SOL     OW 4329  10.073   0.217   0.179
  811SOL    HW1 4330  10.073   0.274   0.102
  811SOL    HW2 4331  10.144   0.251   0.234
  812SOL     OW 4332   1.663   6.096   4.400
  812SOL    HW1 4333   1.618   6.131   4.324
  812SOL    HW2 4334   1.752   6.130   4.393
  813SOL     OW 4335   3.362   9.720   2.447
  813SOL    HW1 4336   3.392   9.630   2.457
  813SOL    HW2 4337   3.271   9.712   2.420
  814SOL     OW 4338   5.708   1.519   6.757
  814SOL    HW1 4339   5.730   1.431   6.726
  814SOL    HW2 4340   5.742   1.578   6.689
  815SOL     OW 4341  11.658   8.575   0.367
  815SOL    HW1 4342  11.610   8.562   0.449
  815SOL    HW2 4343  11.726   8.507   0.368
  816SOL     OW 4344   8.384   1.981   1.404
  816SOL    HW1 4345   8.464   1.933   1.383
  816SOL    HW2 4346   8.330   1.974   1.325
  817SOL     OW 4347   8.416  13.213  10.182
  817SOL    HW1 4348   8.488  13.276  10.173
  817SOL    HW2 4349   8.339  13.267  10.199
  818SOL     OW 4350   6.576  13.084   4.841
  818SOL    HW1 4351   6.512  13.052   4.777
  818SOL    HW2 4352   6.583  13.013   4.905
  819SOL     OW 4353   2.578   4.246  11.175
  819SOL    HW1 4354   2.529   4.325  11.199
  819SOL    HW2 4355   2.652   4.245  11.235
  820SOL     OW 4356  13.464  11.204   4.433
  820SOL    HW1 4357  13.491  11.121   4.474
  820SOL    HW2 4358  13.510  11.204   4.348
  821SOL     OW 4359   7.764   2.379  13.527
  821SOL    HW1 4360   7.846   2.388  13.478
  821SOL    HW2 4361   7.766   2.451  13.590
  822SOL     OW 4362   7.487   6.490   7.720
  822SOL    HW1 4363   7.524   6.540   7.793
  822SOL    HW2 4364   7.392   6.500   7.730
  823SOL     OW 4365   7.944   8.397   5.660
  823SOL    HW1 4366   7.965   8.487   5.635
  823SOL    HW2 4367   7.849   8.393   5.655
  824SOL     OW 4368   1.531   7.257  14.262
  824SOL    HW1 4369   1.452   7.233  14.214
  824SOL    HW2 4370   1.500   7.291  14.345
  825SOL     OW 4371   7.601   2.800   3.959
  825SOL    HW1 4372   7.648   2.873   4.000
  825SOL    HW2 4373   7.563   2.838   3.880
  826SOL     OW 4374   3.780   5.002  13.545
  826SOL    HW1 4375   3.798   4.945  13.469
  826SOL    HW2 4376   3.862   5.000  13.595
  827SOL     OW 4377   3.142   8.972   4.171
  827SOL    HW1 4378   3.107   8.931   4.092
  827SOL    HW2 4379   3.225   8.927   4.188
  828SOL     OW 4380   7.697   4.286   9.429
  828SOL    HW1 4381   7.627   4.244   9.379
  828SOL    HW2 4382   7.700   4.376   9.394
  829SOL     OW 4383  13.319   4.849  13.761
  829SOL    HW1 4384  13.251   4.905  13.723
  829SOL    HW2 4385  13.359   4.805  13.686
  830SOL     OW 4386   3.446   4.909   5.757
  830SOL    HW1 4387   3.513   4.905   5.825
  830SOL    HW2 4388   3.410   4.820   5.755
  831SOL     OW 4389   1.328   3.156   4.780
  831SOL    HW1 4390   1.252   3.213   4.767
  831SOL    HW2 4391   1.293   3.067   4.779
  832SOL     OW 4392   7.534  10.680   8.457
  832SOL    HW1 4393   7.541  10.621   8.532
  832SOL    HW2 4394   7.479  10.633   8.394
  833SOL     OW 4395   7.524   6.598   0.960
  833SOL    HW1 4396   7.507   6.644   1.042
  833SOL    HW2 4397   7.438   6.591   0.918
  834SOL     OW 4398   3.486  12.078  12.081
  834SOL    HW1 4399   3.557  12.014  12.084
  834SOL    HW2 4400   3.530  12.163  12.086
  835SOL     OW 4401  12.709   2.834   3.393
  835SOL    HW1 4402  12.648   2.805   3.461
  835SOL    HW2 4403  12.692   2.928   3.385
  836SOL     OW 4404  13.957  13.531   3.575
  836SOL    HW1 4405  13.931  13.446   3.612
  836SOL    HW2 4406  13.979  13.512   3.484
  837SOL     OW 4407   0.003   2.975   3.155
  837SOL    HW1 4408  14.796   2.937   3.147
  837SOL    HW2 4409   0.057   2.904   3.189
  838SOL     OW 4410  13.729  12.211   6.464
  838SOL    HW1 4411  13.720  12.122   6.500
  838SOL    HW2 4412  13.673  12.265   6.520
  839SOL     OW 4413   9.996   1.799   0.258
  839SOL    HW1 4414   9.945   1.821   0.180
  839SOL    HW2 4415  10.087   1.816   0.232
  840SOL     OW 4416   1.379   1.228   8.344
  840SOL    HW1 4417   1.360   1.171   8.270
  840SOL    HW2 4418   1.357   1.316   8.313
  841SOL     OW 4419   4.934   3.991   4.172
  841SOL    HW1 4420   4.905   4.068   4.123
  841SOL    HW2 4421   4.927   4.018   4.264
  842SOL     OW 4422  10.424   8.602  13.746
  842SOL    HW1 4423  10.353   8.572  13.689
  842SOL    HW2 4424  10.380   8.654  13.813
  843SOL     OW 4425   1.200  10.957   1.221
  843SOL    HW1 4426   1.150  10.977   1.142
  843SOL    HW2 4427   1.135  10.954   1.291
  844SOL     OW 4428  11.630   0.709  11.654
  844SOL    HW1 4429  11.654   0.627  11.611
  844SOL    HW2 4430  11.539   0.697  11.680
  845SOL     OW 4431  13.735   5.939  13.541
  845SOL    HW1 4432  13.680   5.963  13.466
  845SOL    HW2 4433  13.822   5.925  13.503
  846SOL     OW 4434  13.252   9.662   5.674
  846SOL    HW1 4435  13.316   9.728   5.701
  846SOL    HW2 4436  13.186   9.711   5.625
  847SOL     OW 4437  10.460  10.227   2.612
  847SOL    HW1 4438  10.460  10.166   2.538
  847SOL    HW2 4439  10.456  10.171   2.689
  848SOL     OW 4440   4.152  10.881  12.680
  848SOL    HW1 4441   4.073  10.932  12.662
  848SOL    HW2 4442   4.217  10.915  12.619
  849SOL     OW 4443   5.715   9.694  14.656
  849SOL    HW1 4444   5.740   9.742  14.577
  849SOL    HW2 4445   5.678   9.612  14.624
  850SOL     OW 4446  12.419   2.307   3.530
  850SOL    HW1 4447  12.489   2.273   3.475
  850SOL    HW2 4448  12.349   2.242   3.523
  851SOL     OW 4449  12.653   0.101   0.815
  851SOL    HW1 4450  12.659   0.196   0.804
  851SOL    HW2 4451  12.599   0.088   0.893
  852SOL     OW 4452   8.938   6.941  10.681
  852SOL    HW1 4453   8.930   6.999  10.606
  852SOL    HW2 4454   9.032   6.939  10.699
  853SOL     OW 4455   0.929   3.048   1.876
  853SOL    HW1 4456   0.934   2.956   1.851
  853SOL    HW2 4457   0.961   3.050   1.967
  854SOL     OW 4458   3.552   0.421  10.387
  854SOL    HW1 4459   3.523   0.359  10.454
  854SOL    HW2 4460   3.579   0.366  10.313
  855SOL     OW 4461  12.440   7.160  10.970
  855SOL    HW1 4462  12.511   7.101  10.993
  855SOL    HW2 4463  12.447   7.171  10.876
  856SOL     OW 4464   2.093   7.296  10.449
  856SOL    HW1 4465   2.161   7.327  10.388
  856SOL    HW2 4466   2.141   7.246  10.515
  857SOL     OW 4467   1.758   4.509   5.895
  857SOL    HW1 4468   1.771   4.599   5.868
  857SOL    HW2 4469   1.724   4.465   5.818
  858SOL     OW 4470   1.118  12.484   2.371
  858SOL    HW1 4471   1.059  12.506   2.300
  858SOL    HW2 4472   1.206  12.493   2.333
  859SOL     OW 4473  12.789  12.494   1.242
  859SOL    HW1 4474  12.840  12.446   1.177
  859SOL    HW2 4475  12.846  12.498   1.318
  860SOL     OW 4476   6.805   8.898   6.721
  860SOL    HW1 4477   6.775   8.966   6.661
  860SOL    HW2 4478   6.862   8.842   6.668
  861SOL     OW 4479  14.089   5.678  14.758
  861SOL    HW1 4480  14.151   5.619  14.801
  861SOL    HW2 4481  14.011   5.676  14.814
  862SOL     OW 4482  10.840   4.187   1.278
  862SOL    HW1 4483  10.882   4.237   1.208
  862SOL    HW2 4484  10.912   4.139   1.319
  863SOL     OW 4485   4.700   4.387   5.296
  863SOL    HW1 4486   4.709   4.467   5.349
  863SOL    HW2 4487   4.770   4.330   5.328
  864SOL     OW 4488   0.875   3.399   1.725
  864SOL    HW1 4489   0.887   3.324   1.784
  864SOL    HW2 4490   0.828   3.464   1.777
  865SOL     OW 4491   1.047   1.456   4.835
  865SOL    HW1 4492   1.099   1.411   4.768
  865SOL    HW2 4493   0.967   1.481   4.789
  866SOL     OW 4494   3.012   8.369   9.256
  866SOL    HW1 4495   3.035   8.278   9.277
  866SOL    HW2 4496   2.933   8.386   9.307
  867SOL     OW 4497  14.875   6.933  11.722
  867SOL    HW1 4498   0.036   6.998  11.780
  867SOL    HW2 4499   0.022   6.958  11.634
  868SOL     OW 4500  10.201  10.608  11.351
  868SOL    HW1 4501  10.243  10.693  11.344
  868SOL    HW2 4502  10.151  10.613  11.433
  869SOL     OW 4503  14.849   9.057  10.295
  869SOL    HW1 4504   0.062   9.068  10.310
  869SOL    HW2 4505  14.838   9.074  10.201
  870SOL     OW 4506   3.733  12.337  12.929
  870SOL    HW1 4507   3.649  12.294  12.943
  870SOL    HW2 4508   3.761  12.309  12.842
  871SOL     OW 4509  10.637   8.890   9.412
  871SOL    HW1 4510  10.652   8.974   9.456
  871SOL    HW2 4511  10.722   8.847   9.414
  872SOL     OW 4512   8.665  11.184   6.574
  872SOL    HW1 4513   8.693  11.223   6.657
  872SOL    HW2 4514   8.682  11.091   6.584
  873SOL     OW 4515  11.377   1.015   7.258
  873SOL    HW1 4516  11.291   1.000   7.219
  873SOL    HW2 4517  11.438   0.967   7.202
  874SOL     OW 4518   6.836   7.470  12.546
  874SOL    HW1 4519   6.852   7.493  12.454
  874SOL    HW2 4520   6.908   7.411  12.568
  875SOL     OW 4521   1.863   9.423   1.623
  875SOL    HW1 4522   1.813   9.447   1.701
  875SOL    HW2 4523   1.839   9.332   1.606
  876SOL     OW 4524   8.323   4.240  13.823
  876SOL    HW1 4525   8.239   4.233  13.868
  876SOL    HW2 4526   8.349   4.331  13.833
  877SOL     OW 4527   9.316   2.969  13.557
  877SOL    HW1 4528   9.392   2.931  13.513
  877SOL    HW2 4529   9.349   2.997  13.643
  878SOL     OW 4530   1.270   2.560   5.548
  878SOL    HW1 4531   1.316   2.571   5.464
  878SOL    HW2 4532   1.334   2.515   5.603
  879SOL     OW 4533  12.593  10.472  11.718
  879SOL    HW1 4534  12.593  10.563  11.688
  879SOL    HW2 4535  12.539  10.426  11.654
  880SOL     OW 4536   8.202   9.828   8.321
  880SOL    HW1 4537   8.255   9.789   8.390
  880SOL    HW2 4538   8.155   9.754   8.281
  881SOL     OW 4539   7.881   3.860   9.642
  881SOL    HW1 4540   7.939   3.840   9.569
  881SOL    HW2 4541   7.859   3.953   9.632
  882SOL     OW 4542   9.910  10.526   8.185
  882SOL    HW1 4543   9.893  10.599   8.245
  882SOL    HW2 4544   9.868  10.551   8.103
  883SOL     OW 4545  13.836  10.128  13.732
  883SOL    HW1 4546  13.927  10.154  13.716
  883SOL    HW2 4547  13.784  10.204  13.706
  884SOL     OW 4548   5.910   8.845  12.110
  884SOL    HW1 4549   5.824   8.812  12.084
  884SOL    HW2 4550   5.910   8.936  12.081
  885SOL     OW 4551  10.378   8.716  10.721
  885SOL    HW1 4552  10.343   8.708  10.632
  885SOL    HW2 4553  10.459   8.665  10.720
  886SOL     OW 4554   0.799  11.261   7.636
  886SOL    HW1 4555   0.784  11.354   7.618
  886SOL    HW2 4556   0.888  11.258   7.671
  887SOL     OW 4557  12.820  11.003   3.007
  887SOL    HW1 4558  12.887  11.071   3.014
  887SOL    HW2 4559  12.802  10.977   3.097
  888SOL     OW 4560   0.329   0.271  10.631
  888SOL    HW1 4561   0.409   0.219  10.624
  888SOL    HW2 4562   0.347   0.350  10.580
  889SOL     OW 4563   3.153   7.431   8.330
  889SOL    HW1 4564   3.064   7.466   8.325
  889SOL    HW2 4565   3.141   7.340   8.358
  890SOL     OW 4566   4.390   3.319   9.496
  890SOL    HW1 4567   4.417   3.286   9.411
  890SOL    HW2 4568   4.337   3.397   9.477
  891SOL     OW 4569  12.679   2.210  11.163
  891SOL    HW1 4570  12.752   2.147  11.162
  891SOL    HW2 4571  12.650   2.213  11.072
  892SOL     OW 4572  11.421   1.595  13.089
  892SOL    HW1 4573  11.497   1.650  13.108
  892SOL    HW2 4574  11.383   1.575  13.174
  893SOL     OW 4575   3.045   9.036   3.656
  893SOL    HW1 4576   2.961   9.005   3.623
  893SOL    HW2 4577   3.022   9.091   3.731
  894SOL     OW 4578   8.350  10.513   2.989
  894SOL    HW1 4579   8.289  10.586   3.002
  894SOL    HW2 4580   8.426  10.552   2.946
  895SOL     OW 4581  11.243  12.549   4.413
  895SOL    HW1 4582  11.150  12.545   4.390
  895SOL    HW2 4583  11.247  12.515   4.503
  896SOL     OW 4584   8.821   2.650   4.790
  896SOL    HW1 4585   8.815   2.581   4.856
  896SOL    HW2 4586   8.764   2.719   4.823
  897SOL     OW 4587   5.517   1.862   2.416
  897SOL    HW1 4588   5.582   1.932   2.415
  897SOL    HW2 4589   5.514   1.830   2.326
  898SOL     OW 4590  10.950   5.424   4.396
  898SOL    HW1 4591  10.907   5.451   4.315
  898SOL    HW2 4592  10.920   5.487   4.461
  899SOL     OW 4593   3.869  13.531  12.709
  899SOL    HW1 4594   3.898  13.443  12.732
  899SOL    HW2 4595   3.861  13.577  12.792
  900SOL     OW 4596  14.567   7.253  13.763
  900SOL    HW1 4597  14.645   7.285  13.717
  900SOL    HW2 4598  14.601   7.190  13.827
  901SOL     OW 4599   5.081  13.854  12.805
  901SOL    HW1 4600   5.125  13.866  12.890
  901SOL    HW2 4601   5.151  13.828  12.745
  902SOL     OW 4602   1.021   3.792  14.597
  902SOL    HW1 4603   0.926   3.798  14.600
  902SOL    HW2 4604   1.051   3.848  14.668
  903SOL     OW 4605   9.971   5.901   0.735
  903SOL    HW1 4606  10.067   5.893   0.727
  903SOL    HW2 4607   9.955   5.899   0.829
  904SOL     OW 4608   0.630   9.049   4.719
  904SOL    HW1 4609   0.636   8.960   4.756
  904SOL    HW2 4610   0.536   9.069   4.723
  905SOL     OW 4611   4.473   0.666  13.790
  905SOL    HW1 4612   4.519   0.745  13.821
  905SOL    HW2 4613   4.442   0.623  13.870
  906SOL     OW 4614   1.912   6.319  10.447
  906SOL    HW1 4615   1.904   6.399  10.394
  906SOL    HW2 4616   1.969   6.344  10.519
  907SOL     OW 4617   8.984   7.136   8.486
  907SOL    HW1 4618   8.925   7.202   8.450
  907SOL    HW2 4619   8.926   7.075   8.533
  908SOL     OW 4620   0.123  13.577  11.049
  908SOL    HW1 4621   0.218  13.590  11.057
  908SOL    HW2 4622   0.105  13.500  11.103
  909SOL     OW 4623  11.008  10.384   8.038
  909SOL    HW1 4624  10.953  10.306   8.051
  909SOL    HW2 4625  11.092  10.359   8.076
  910SOL     OW 4626   9.283   5.255   1.562
  910SOL    HW1 4627   9.280   5.349   1.544
  910SOL    HW2 4628   9.202   5.221   1.524
  911SOL     OW 4629  14.595   1.458   4.578
  911SOL    HW1 4630  14.506   1.425   4.589
  911SOL    HW2 4631  14.600   1.535   4.634
  912SOL     OW 4632  11.931  13.032   9.506
  912SOL    HW1 4633  11.920  13.112   9.557
  912SOL    HW2 4634  11.860  13.034   9.442
  913SOL     OW 4635  10.721   7.229   9.287
  913SOL    HW1 4636  10.790   7.175   9.323
  913SOL    HW2 4637  10.648   7.169   9.272
  914SOL     OW 4638   4.453   2.485   2.110
  914SOL    HW1 4639   4.419   2.575   2.112
  914SOL    HW2 4640   4.548   2.496   2.105
  915SOL     OW 4641   0.483   4.027  12.044
  915SOL    HW1 4642   0.558   3.970  12.024
  915SOL    HW2 4643   0.505   4.111  12.003
  916SOL     OW 4644   0.715   1.246  12.279
  916SOL    HW1 4645   0.630   1.291  12.281
  916SOL    HW2 4646   0.770   1.303  12.224
  917SOL     OW 4647  11.716  11.309  14.109
  917SOL    HW1 4648  11.730  11.343  14.197
  917SOL    HW2 4649  11.780  11.238  14.100
  918SOL     OW 4650   5.654   8.762  12.036
  918SOL    HW1 4651   5.664   8.678  11.993
  918SOL    HW2 4652   5.560   8.777  12.040
  919SOL     OW 4653   7.551  10.248  10.287
  919SOL    HW1 4654   7.508  10.170  10.251
  919SOL    HW2 4655   7.488  10.319  10.274
  920SOL     OW 4656  14.183   0.135   4.907
  920SOL    HW1 4657  14.163   0.097   4.992
  920SOL    HW2 4658  14.264   0.184   4.921
  921SOL     OW 4659  10.710   8.239   7.236
  921SOL    HW1 4660  10.792   8.195   7.259
  921SOL    HW2 4661  10.684   8.199   7.153
  922SOL     OW 4662  13.780   7.663  14.456
  922SOL    HW1 4663  13.726   7.735  14.423
  922SOL    HW2 4664  13.717   7.599  14.488
  923SOL     OW 4665  11.500  13.498  10.463
  923SOL    HW1 4666  11.537  13.436  10.401
  923SOL    HW2 4667  11.406  13.489  10.454
  924SOL     OW 4668  11.048   6.178   7.267
  924SOL    HW1 4669  10.981   6.174   7.199
  924SOL    HW2 4670  11.026   6.255   7.318
  925SOL     OW 4671  12.992   9.472   4.694
  925SOL    HW1 4672  13.055   9.477   4.623
  925SOL    HW2 4673  12.909   9.500   4.655
  926SOL     OW 4674   9.490   1.511   4.428
  926SOL    HW1 4675   9.455   1.588   4.474
  926SOL    HW2 4676   9.446   1.437   4.469
  927SOL     OW 4677   3.290  10.321  13.248
  927SOL    HW1 4678   3.293  10.389  13.182
  927SOL    HW2 4679   3.365  10.264  13.228
  928SOL     OW 4680  10.046   8.375  14.151
  928SOL    HW1 4681  10.139   8.372  14.173
  928SOL    HW2 4682  10.023   8.468  14.153
  929SOL     OW 4683   8.675   7.402   6.689
  929SOL    HW1 4684   8.728   7.322   6.689
  929SOL    HW2 4685   8.688   7.439   6.776
  930SOL     OW 4686   0.402   6.982   1.952
  930SOL    HW1 4687   0.470   6.964   2.016
  930SOL    HW2 4688   0.449   6.998   1.870
  931SOL     OW 4689   7.910   2.476   0.895
  931SOL    HW1 4690   7.902   2.495   0.988
  931SOL    HW2 4691   7.820   2.471   0.863
  932SOL     OW 4692   0.116   7.094   5.016
  932SOL    HW1 4693   0.188   7.047   5.058
  932SOL    HW2 4694   0.049   7.101   5.084
  933SOL     OW 4695   0.348   2.446   4.008
  933SOL    HW1 4696   0.427   2.469   3.960
  933SOL    HW2 4697   0.355   2.351   4.022
  934SOL     OW 4698   1.757   1.281  10.221
  934SOL    HW1 4699   1.785   1.372  10.226
  934SOL    HW2 4700   1.670   1.280  10.259
  935SOL     OW 4701   3.038   2.521  12.266
  935SOL    HW1 4702   3.090   2.601  12.268
  935SOL    HW2 4703   2.958   2.546  12.220
  936SOL     OW 4704   7.384   2.199   4.517
  936SOL    HW1 4705   7.347   2.115   4.544
  936SOL    HW2 4706   7.346   2.215   4.431
  937SOL     OW 4707   1.469   7.669  13.640
  937SOL    HW1 4708   1.462   7.764  13.639
  937SOL    HW2 4709   1.466   7.646  13.733
  938SOL     OW 4710   3.231  13.961  13.873
  938SOL    HW1 4711   3.184  14.025  13.819
  938SOL    HW2 4712   3.320  13.960  13.837
  939SOL     OW 4713  10.817   1.950   1.575
  939SOL    HW1 4714  10.869   1.979   1.650
  939SOL    HW2 4715  10.817   1.855   1.581
  940SOL     OW 4716   4.528   7.269   5.341
  940SOL    HW1 4717   4.616   7.259   5.304
  940SOL    HW2 4718   4.527   7.357   5.377
  941SOL     OW 4719  14.675   3.191   0.807
  941SOL    HW1 4720  14.674   3.116   0.748
  941SOL    HW2 4721  14.676   3.152   0.895
  942SOL     OW 4722   5.808   8.753   5.343
  942SOL    HW1 4723   5.766   8.746   5.428
  942SOL    HW2 4724   5.841   8.665   5.324
  943SOL     OW 4725   7.739   2.224  12.648
  943SOL    HW1 4726   7.794   2.288  12.604
  943SOL    HW2 4727   7.765   2.140  12.610
  944SOL     OW 4728   7.178  12.115  12.763
  944SOL    HW1 4729   7.131  12.039  12.729
  944SOL    HW2 4730   7.268  12.103  12.733
  945SOL     OW 4731  10.591   0.015   0.247
  945SOL    HW1 4732  10.677   0.057   0.237
  945SOL    HW2 4733  10.533   0.067   0.192
  946SOL     OW 4734   8.287   5.151   3.846
  946SOL    HW1 4735   8.214   5.145   3.907
  946SOL    HW2 4736   8.364   5.159   3.903
  947SOL     OW 4737   1.687   1.831  13.586
  947SOL    HW1 4738   1.591   1.829  13.587
  947SOL    HW2 4739   1.710   1.823  13.493
  948SOL     OW 4740   0.652   4.117   6.604
  948SOL    HW1 4741   0.714   4.057   6.644
  948SOL    HW2 4742   0.679   4.204   6.633
  949SOL     OW 4743   3.117  13.190   9.836
  949SOL    HW1 4744   3.056  13.183   9.910
  949SOL    HW2 4745   3.072  13.246   9.774
  950SOL     OW 4746  13.645  12.042   2.836
  950SOL    HW1 4747  13.682  11.966   2.880
  950SOL    HW2 4748  13.717  12.078   2.785
  951SOL     OW 4749  11.345   3.805   6.382
  951SOL    HW1 4750  11.386   3.873   6.436
  951SOL    HW2 4751  11.343   3.842   6.294
  952SOL     OW 4752  14.168  12.296   0.602
  952SOL    HW1 4753  14.262  12.287   0.614
  952SOL    HW2 4754  14.134  12.309   0.691
  953SOL     OW 4755   1.958  11.320  12.723
  953SOL    HW1 4756   1.935  11.410  12.744
  953SOL    HW2 4757   1.886  11.268  12.759
  954SOL     OW 4758  13.540   1.938  13.741
  954SOL    HW1 4759  13.520   1.915  13.832
  954SOL    HW2 4760  13.467   1.994  13.714
  955SOL     OW 4761  14.692   8.619   5.207
  955SOL    HW1 4762  14.636   8.592   5.280
  955SOL    HW2 4763  14.698   8.714   5.216
  956SOL     OW 4764  12.889   5.043   5.312
  956SOL    HW1 4765  12.841   5.000   5.240
  956SOL    HW2 4766  12.829   5.039   5.386
  957SOL     OW 4767   4.855   9.816   0.424
  957SOL    HW1 4768   4.856   9.908   0.395
  957SOL    HW2 4769   4.918   9.813   0.496
  958SOL     OW 4770   0.837  10.518   8.235
  958SOL    HW1 4771   0.818  10.425   8.229
  958SOL    HW2 4772   0.773  10.560   8.178
  959SOL     OW 4773   9.076  11.200   6.897
  959SOL    HW1 4774   9.063  11.274   6.956
  959SOL    HW2 4775   9.091  11.239   6.811
  960SOL     OW 4776   6.715  10.868  10.416
  960SOL    HW1 4777   6.707  10.854  10.322
  960SOL    HW2 4778   6.629  10.899  10.444
  961SOL     OW 4779   7.617  13.313   6.052
  961SOL    HW1 4780   7.643  13.363   6.130
  961SOL    HW2 4781   7.583  13.380   5.992
  962SOL     OW 4782   2.827   4.758   6.575
  962SOL    HW1 4783   2.761   4.707   6.622
  962SOL    HW2 4784   2.780   4.795   6.500
  963SOL     OW 4785  14.618   6.846  14.815
  963SOL    HW1 4786  14.554   6.917  14.806
  963SOL    HW2 4787  14.575   6.770  14.776
  964SOL     OW 4788   4.751   0.530   8.892
  964SOL    HW1 4789   4.692   0.605   8.885
  964SOL    HW2 4790   4.790   0.539   8.979
  965SOL     OW 4791  12.224   9.713   7.787
  965SOL    HW1 4792  12.199   9.794   7.742
  965SOL    HW2 4793  12.287   9.739   7.853
  966SOL     OW 4794  12.357   1.709  12.641
  966SOL    HW1 4795  12.262   1.716  12.643
  966SOL    HW2 4796  12.382   1.691  12.732
  967SOL     OW 4797   8.902  11.737  13.972
  967SOL    HW1 4798   8.871  11.813  14.021
  967SOL    HW2 4799   8.876  11.662  14.026
  968SOL     OW 4800  10.685  12.088   3.423
  968SOL    HW1 4801  10.682  11.999   3.389
  968SOL    HW2 4802  10.595  12.119   3.415
  969SOL     OW 4803   2.379   2.183  13.283
  969SOL    HW1 4804   2.330   2.264  13.296
  969SOL    HW2 4805   2.442   2.181  13.355
  970SOL     OW 4806   6.911   4.393   6.852
  970SOL    HW1 4807   6.916   4.457   6.781
  970SOL    HW2 4808   6.841   4.334   6.827
  971SOL     OW 4809  11.136  12.299   0.563
  971SOL    HW1 4810  11.056  12.247   0.557
  971SOL    HW2 4811  11.206  12.240   0.535
  972SOL     OW 4812  10.040  12.906   5.266
  972SOL    HW1 4813  10.069  12.835   5.323
  972SOL    HW2 4814  10.080  12.985   5.303
  973SOL     OW 4815   2.623   3.155   6.549
  973SOL    HW1 4816   2.691   3.147   6.617
  973SOL    HW2 4817   2.639   3.240   6.509
  974SOL     OW 4818   0.103   0.214   5.772
  974SOL    HW1 4819   0.196   0.217   5.751
  974SOL    HW2 4820   0.098   0.171   5.857
  975SOL     OW 4821   4.508   7.309   2.652
  975SOL    HW1 4822   4.592   7.273   2.682
  975SOL    HW2 4823   4.445   7.239   2.670
  976SOL     OW 4824  11.577   2.281   6.513
  976SOL    HW1 4825  11.602   2.326   6.594
  976SOL    HW2 4826  11.640   2.312   6.448
  977SOL     OW 4827   8.500   5.850   9.737
  977SOL    HW1 4828   8.591   5.840   9.707
  977SOL    HW2 4829   8.463   5.762   9.731
  978SOL     OW 4830  12.482   0.822   9.220
  978SOL    HW1 4831  12.444   0.754   9.276
  978SOL    HW2 4832  12.438   0.902   9.247
  979SOL     OW 4833   9.202   4.380   7.821
  979SOL    HW1 4834   9.182   4.321   7.749
  979SOL    HW2 4835   9.171   4.466   7.792
  980SOL     OW 4836  12.524  11.603  13.235
  980SOL    HW1 4837  12.474  11.555  13.300
  980SOL    HW2 4838  12.568  11.672  13.285
  981SOL     OW 4839  12.285  11.011   1.125
  981SOL    HW1 4840  12.311  11.046   1.040
  981SOL    HW2 4841  12.209  10.957   1.106
  982SOL     OW 4842  13.153   1.015   0.164
  982SOL    HW1 4843  13.241   1.040   0.193
  982SOL    HW2 4844  13.154   1.027   0.069
  983SOL     OW 4845   9.271   0.207  14.391
  983SOL    HW1 4846   9.349   0.243  14.433
  983SOL    HW2 4847   9.300   0.123  14.354
  984SOL     OW 4848   4.584   7.838   5.143
  984SOL    HW1 4849   4.632   7.839   5.060
  984SOL    HW2 4850   4.618   7.763   5.191
  985SOL     OW 4851   8.472   4.168   8.411
  985SOL    HW1 4852   8.515   4.213   8.338
  985SOL    HW2 4853   8.392   4.132   8.373
  986SOL     OW 4854   7.704   9.437  14.508
  986SOL    HW1 4855   7.774   9.503  14.516
  986SOL    HW2 4856   7.749   9.354  14.525
  987SOL     OW 4857  14.563  14.803   1.220
  987SOL    HW1 4858  14.552  14.737   1.289
  987SOL    HW2 4859  14.519   0.000   1.255
  988SOL     OW 4860   3.075  10.316  13.445
  988SOL    HW1 4861   3.039  10.403  13.458
  988SOL    HW2 4862   3.145  10.328  13.380
  989SOL     OW 4863   9.915   9.300  10.017
  989SOL    HW1 4864   9.904   9.390  10.048
  989SOL    HW2 4865   9.985   9.306   9.952
  990SOL     OW 4866  10.992   5.880   3.910
  990SOL    HW1 4867  11.037   5.963   3.923
  990SOL    HW2 4868  11.002   5.862   3.816
  991SOL     OW 4869   0.560   9.633  11.264
  991SOL    HW1 4870   0.486   9.665  11.315
  991SOL    HW2 4871   0.636   9.641  11.323
  992SOL     OW 4872   2.158  14.454   5.570
  992SOL    HW1 4873   2.164  14.542   5.608
  992SOL    HW2 4874   2.088  14.411   5.621
  993SOL     OW 4875   7.638   7.722   9.527
  993SOL    HW1 4876   7.563   7.765   9.568
  993SOL    HW2 4877   7.689   7.688   9.601
  994SOL     OW 4878  13.782   1.896   6.339
  994SOL    HW1 4879  13.782   1.955   6.264
  994SOL    HW2 4880  13.691   1.866   6.345
  995SOL     OW 4881   9.438   4.113   3.207
  995SOL    HW1 4882   9.407   4.194   3.166
  995SOL    HW2 4883   9.513   4.086   3.154
  996SOL     OW 4884   2.260   4.479   9.466
  996SOL    HW1 4885   2.231   4.491   9.375
  996SOL    HW2 4886   2.187   4.510   9.519
  997SOL     OW 4887   8.066   8.788  14.731
  997SOL    HW1 4888   7.995   8.830  14.779
  997SOL    HW2 4889   8.051   8.812  14.639
  998SOL     OW 4890   7.700   4.013  14.364
  998SOL    HW1 4891   7.625   4.046  14.414
  998SOL    HW2 4892   7.665   3.997  14.276
  999SOL     OW 4893   6.301   2.781  11.428
  999SOL    HW1 4894   6.350   2.861  11.449
  999SOL    HW2 4895   6.214   2.812  11.403
 1000SOL     OW 4896  14.432   6.948   2.253
 1000SOL    HW1 4897  14.348   6.995   2.258
 1000SOL    HW2 4898  14.416   6.878   2.189
 1001SOL     OW 4899   5.362  13.065  13.181
 1001SOL    HW1 4900   5.387  13.044  13.271
 1001SOL    HW2 4901   5.333  12.981  13.145
 1002SOL     OW 4902   5.065   9.979   2.897
 1002SOL    HW1 4903   5.076   9.897   2.946
 1002SOL    HW2 4904   5.003   9.957   2.827
 1003SOL     OW 4905   8.733   4.929  10.545
 1003SOL    HW1 4906   8.653   4.881  10.525
 1003SOL    HW2 4907   8.706   5.021  10.548
 1004SOL     OW 4908   7.117   3.501   6.079
 1004SOL    HW1 4909   7.200   3.483   6.036
 1004SOL    HW2 4910   7.052   3.455   6.025
 1005SOL     OW 4911  12.824  11.866  10.699
 1005SOL    HW1 4912  12.769  11.819  10.637
 1005SOL    HW2 4913  12.790  11.840  10.785
 1006SOL     OW 4914  11.211   7.071   9.404
 1006SOL    HW1 4915  11.302   7.099   9.399
 1006SOL    HW2 4916  11.199   7.014   9.328
 1007SOL     OW 4917   3.924   9.690   2.799
 1007SOL    HW1 4918   3.953   9.603   2.773
 1007SOL    HW2 4919   3.988   9.718   2.865
 1008SOL     OW 4920   0.554   6.083   7.690
 1008SOL    HW1 4921   0.516   6.094   7.603
 1008SOL    HW2 4922   0.480   6.067   7.748
 1009SOL     OW 4923  13.528   6.500  10.999
 1009SOL    HW1 4924  13.611   6.548  10.998
 1009SOL    HW2 4925  13.481   6.533  10.922
 1010SOL     OW 4926  11.889   0.273   2.679
 1010SOL    HW1 4927  11.807   0.322   2.681
 1010SOL    HW2 4928  11.870   0.196   2.625
 1011SOL     OW 4929   5.866  10.754   6.707
 1011SOL    HW1 4930   5.816  10.833   6.726
 1011SOL    HW2 4931   5.894  10.722   6.793
 1012SOL     OW 4932   4.147  11.653   5.296
 1012SOL    HW1 4933   4.225  11.673   5.245
 1012SOL    HW2 4934   4.163  11.692   5.381
 1013SOL     OW 4935  14.504  12.616   4.670
 1013SOL    HW1 4936  14.554  12.628   4.751
 1013SOL    HW2 4937  14.505  12.521   4.655
 1014SOL     OW 4938   9.621   0.321   1.774
 1014SOL    HW1 4939   9.655   0.232   1.779
 1014SOL    HW2 4940   9.683   0.373   1.827
 1015SOL     OW 4941   6.598  12.871  14.368
 1015SOL    HW1 4942   6.561  12.871  14.456
 1015SOL    HW2 4943   6.691  12.857  14.380
 1016SOL     OW 4944   2.478   0.742   0.708
 1016SOL    HW1 4945   2.397   0.768   0.752
 1016SOL    HW2 4946   2.463   0.762   0.616
 1017SOL     OW 4947  14.854   6.862  13.525
 1017SOL    HW1 4948  14.850   6.886  13.618
 1017SOL    HW2 4949  14.763   6.872  13.495
 1018SOL     OW 4950   9.315   0.119   7.987
 1018SOL    HW1 4951   9.240   0.095   8.042
 1018SOL    HW2 4952   9.377   0.047   7.999
 1019SOL     OW 4953   1.635  10.520  14.746
 1019SOL    HW1 4954   1.632  10.557  14.658
 1019SOL    HW2 4955   1.711  10.461  14.744
 1020SOL     OW 4956   2.390   1.863  11.615
 1020SOL    HW1 4957   2.317   1.839  11.671
 1020SOL    HW2 4958   2.431   1.780  11.590
 1021SOL     OW 4959  10.834   9.789   5.436
 1021SOL    HW1 4960  10.900   9.763   5.500
 1021SOL    HW2 4961  10.762   9.824   5.487
 1022SOL     OW 4962   3.654   3.590   3.236
 1022SOL    HW1 4963   3.599   3.668   3.246
 1022SOL    HW2 4964   3.623   3.531   3.305
 1023SOL     OW 4965  10.060  14.403  13.207
 1023SOL    HW1 4966  10.047  14.387  13.301
 1023SOL    HW2 4967  10.010  14.483  13.190
 1024SOL     OW 4968  11.143   9.617   4.685
 1024SOL    HW1 4969  11.062   9.666   4.695
 1024SOL    HW2 4970  11.212   9.680   4.706
 1025SOL     OW 4971   6.074   8.808   8.358
 1025SOL    HW1 4972   6.131   8.742   8.399
 1025SOL    HW2 4973   5.986   8.783   8.384
 1026SOL     OW 4974  13.622   4.015   6.369
 1026SOL    HW1 4975  13.605   3.969   6.451
 1026SOL    HW2 4976  13.681   3.958   6.320
 1027SOL     OW 4977   1.726   8.164   4.998
 1027SOL    HW1 4978   1.679   8.087   4.965
 1027SOL    HW2 4979   1.681   8.187   5.079
 1028SOL     OW 4980   4.832  13.368   7.887
 1028SOL    HW1 4981   4.857  13.277   7.906
 1028SOL    HW2 4982   4.896  13.421   7.936
 1029SOL     OW 4983   4.155  11.087  11.047
 1029SOL    HW1 4984   4.161  11.060  10.955
 1029SOL    HW2 4985   4.203  11.019  11.094
 1030SOL     OW 4986   9.421   3.208   3.912
 1030SOL    HW1 4987   9.412   3.136   3.975
 1030SOL    HW2 4988   9.515   3.228   3.913
 1031SOL     OW 4989  14.410   1.992  13.329
 1031SOL    HW1 4990  14.495   2.034  13.339
 1031SOL    HW2 4991  14.357   2.025  13.401
 1032SOL     OW 4992  10.045   5.303   0.662
 1032SOL    HW1 4993  10.104   5.228   0.651
 1032SOL    HW2 4994  10.102   5.379   0.659
 1033SOL     OW 4995   5.846   7.142   1.318
 1033SOL    HW1 4996   5.900   7.214   1.350
 1033SOL    HW2 4997   5.758   7.178   1.312
 1034SOL     OW 4998  14.673   6.555   1.033
 1034SOL    HW1 4999  14.720   6.551   1.117
 1034SOL    HW2 5000  14.725   6.501   0.974
 1035SOL     OW 5001   4.250  13.884  10.722
 1035SOL    HW1 5002   4.157  13.871  10.703
 1035SOL    HW2 5003   4.256  13.976  10.748
 1036SOL     OW 5004   0.163   6.860   7.280
 1036SOL    HW1 5005   0.114   6.844   7.360
 1036SOL    HW2 5006   0.219   6.783   7.270
 1037SOL     OW 5007   7.024   0.677   2.616
 1037SOL    HW1 5008   7.097   0.655   2.559
 1037SOL    HW2 5009   7.056   0.749   2.669
 1038SOL     OW 5010   2.014   1.524   3.020
 1038SOL    HW1 5011   1.950   1.581   2.977
 1038SOL    HW2 5012   1.987   1.523   3.112
 1039SOL     OW 5013   9.709   2.242  10.289
 1039SOL    HW1 5014   9.727   2.282  10.203
 1039SOL    HW2 5015   9.624   2.277  10.314
 1040SOL     OW 5016   3.187   3.555  12.746
 1040SOL    HW1 5017   3.280   3.545  12.730
 1040SOL    HW2 5018   3.150   3.469  12.726
 1041SOL     OW 5019   7.266   3.832  14.738
 1041SOL    HW1 5020   7.208   3.756  14.734
 1041SOL    HW2 5021   7.230   3.886  14.808
 1042SOL     OW 5022   1.895   3.144  13.619
 1042SOL    HW1 5023   1.890   3.185  13.533
 1042SOL    HW2 5024   1.982   3.167  13.651
 1043SOL     OW 5025   5.366   7.025   3.957
 1043SOL    HW1 5026   5.329   7.082   4.025
 1043SOL    HW2 5027   5.330   7.059   3.876
 1044SOL     OW 5028   1.821   9.156   9.845
 1044SOL    HW1 5029   1.827   9.214   9.921
 1044SOL    HW2 5030   1.731   9.167   9.813
 1045SOL     OW 5031   7.426   7.113   3.378
 1045SOL    HW1 5032   7.371   7.122   3.300
 1045SOL    HW2 5033   7.381   7.164   3.445
 1046SOL     OW 5034  14.176   8.161  11.845
 1046SOL    HW1 5035  14.231   8.143  11.921
 1046SOL    HW2 5036  14.086   8.148  11.877
 1047SOL     OW 5037   2.980   0.488   6.002
 1047SOL    HW1 5038   3.055   0.546   6.014
 1047SOL    HW2 5039   2.923   0.508   6.076
 1048SOL     OW 5040   2.610  12.713   5.762
 1048SOL    HW1 5041   2.591  12.728   5.855
 1048SOL    HW2 5042   2.697  12.751   5.749
 1049SOL     OW 5043   1.315  11.673   7.584
 1049SOL    HW1 5044   1.358  11.600   7.538
 1049SOL    HW2 5045   1.294  11.638   7.670
 1050SOL     OW 5046   9.665   2.048   4.467
 1050SOL    HW1 5047   9.735   2.008   4.519
 1050SOL    HW2 5048   9.592   2.057   4.528
 1051SOL     OW 5049   7.037   1.465   3.990
 1051SOL    HW1 5050   7.037   1.369   3.987
 1051SOL    HW2 5051   6.947   1.490   3.969
 1052SOL     OW 5052  11.824  12.248  12.514
 1052SOL    HW1 5053  11.886  12.304  12.466
 1052SOL    HW2 5054  11.771  12.207  12.445
 1053SOL     OW 5055   5.451   9.455   2.587
 1053SOL    HW1 5056   5.442   9.396   2.512
 1053SOL    HW2 5057   5.544   9.479   2.588
 1054SOL     OW 5058  14.518   4.361   6.473
 1054SOL    HW1 5059  14.471   4.398   6.549
 1054SOL    HW2 5060  14.597   4.414   6.466
 1055SOL     OW 5061   4.383   3.951   9.079
 1055SOL    HW1 5062   4.372   4.044   9.100
 1055SOL    HW2 5063   4.303   3.928   9.031
 1056SOL     OW 5064  12.923  10.597   2.512
 1056SOL    HW1 5065  12.870  10.603   2.591
 1056SOL    HW2 5066  13.000  10.547   2.539
 1057SOL     OW 5067   7.220  14.801   9.748
 1057SOL    HW1 5068   7.313  14.805   9.723
 1057SOL    HW2 5069   7.215  14.856   9.827
 1058SOL     OW 5070  11.074   6.749  11.829
 1058SOL    HW1 5071  11.144   6.762  11.765
 1058SOL    HW2 5072  10.998   6.727  11.776
 1059SOL     OW 5073  12.452  14.708  10.246
 1059SOL    HW1 5074  12.416  14.796  10.240
 1059SOL    HW2 5075  12.547  14.721  10.253
 1060SOL     OW 5076   5.273   0.118   8.976
 1060SOL    HW1 5077   5.261   0.183   9.045
 1060SOL    HW2 5078   5.341   0.059   9.010
 1061SOL     OW 5079  13.749   6.357   3.841
 1061SOL    HW1 5080  13.700   6.439   3.853
 1061SOL    HW2 5081  13.692   6.289   3.878
 1062SOL     OW 5082  11.708   5.551  11.869
 1062SOL    HW1 5083  11.788   5.579  11.826
 1062SOL    HW2 5084  11.736   5.521  11.956
 1063SOL     OW 5085  10.977  10.490  14.088
 1063SOL    HW1 5086  10.937  10.415  14.045
 1063SOL    HW2 5087  11.063  10.458  14.117
 1064SOL     OW 5088   3.787   9.443   3.154
 1064SOL    HW1 5089   3.804   9.350   3.140
 1064SOL    HW2 5090   3.873   9.481   3.169
 1065SOL     OW 5091   3.478  11.905   1.840
 1065SOL    HW1 5092   3.574  11.903   1.849
 1065SOL    HW2 5093   3.462  11.981   1.783
 1066SOL     OW 5094   2.766   4.388  12.403
 1066SOL    HW1 5095   2.784   4.481  12.415
 1066SOL    HW2 5096   2.683   4.374  12.449
 1067SOL     OW 5097  12.903   6.162   2.401
 1067SOL    HW1 5098  12.840   6.217   2.448
 1067SOL    HW2 5099  12.870   6.073   2.411
 1068SOL     OW 5100  10.328   9.661  12.686
 1068SOL    HW1 5101  10.385   9.705  12.623
 1068SOL    HW2 5102  10.314   9.574  12.649
 1069SOL     OW 5103  11.395   9.899   9.617
 1069SOL    HW1 5104  11.490   9.887   9.606
 1069SOL    HW2 5105  11.377   9.863   9.703
 1070SOL     OW 5106   3.452  11.977   2.939
 1070SOL    HW1 5107   3.358  11.991   2.932
 1070SOL    HW2 5108   3.468  11.898   2.888
 1071SOL     OW 5109  11.350   7.179   1.408
 1071SOL    HW1 5110  11.380   7.092   1.383
 1071SOL    HW2 5111  11.422   7.216   1.458
 1072SOL     OW 5112   5.202  14.772   0.056
 1072SOL    HW1 5113   5.200  14.800   0.148
 1072SOL    HW2 5114   5.129  14.711   0.048
 1073SOL     OW 5115   2.818   2.096  12.338
 1073SOL    HW1 5116   2.758   2.156  12.294
 1073SOL    HW2 5117   2.831   2.135  12.425
 1074SOL     OW 5118  10.528   5.129   1.291
 1074SOL    HW1 5119  10.464   5.147   1.360
 1074SOL    HW2 5120  10.605   5.097   1.337
 1075SOL     OW 5121   3.909   2.380   7.167
 1075SOL    HW1 5122   3.957   2.410   7.245
 1075SOL    HW2 5123   3.857   2.306   7.198
 1076SOL     OW 5124   5.798   6.236   2.620
 1076SOL    HW1 5125   5.753   6.250   2.537
 1076SOL    HW2 5126   5.743   6.281   2.685
 1077SOL     OW 5127  10.247   5.132   7.440
 1077SOL    HW1 5128  10.199   5.087   7.509
 1077SOL    HW2 5129  10.241   5.073   7.365
 1078SOL     OW 5130  10.793   9.987   5.686
 1078SOL    HW1 5131  10.806  10.066   5.633
 1078SOL    HW2 5132  10.699   9.982   5.699
 1079SOL     OW 5133  14.247   2.871   7.644
 1079SOL    HW1 5134  14.178   2.809   7.623
 1079SOL    HW2 5135  14.264   2.857   7.737
 1080SOL     OW 5136  12.598   8.641   1.597
 1080SOL    HW1 5137  12.602   8.679   1.509
 1080SOL    HW2 5138  12.656   8.566   1.594
 1081SOL     OW 5139  13.663   4.994   2.501
 1081SOL    HW1 5140  13.585   4.982   2.554
 1081SOL    HW2 5141  13.698   5.079   2.528
 1082SOL     OW 5142   6.237  10.739   3.368
 1082SOL    HW1 5143   6.146  10.764   3.385
 1082SOL    HW2 5144   6.260  10.682   3.441
 1083SOL     OW 5145   2.513   0.752   9.643
 1083SOL    HW1 5146   2.443   0.762   9.578
 1083SOL    HW2 5147   2.468   0.758   9.727
 1084SOL     OW 5148   9.169  14.544   5.251
 1084SOL    HW1 5149   9.171  14.615   5.186
 1084SOL    HW2 5150   9.096  14.566   5.308
 1085SOL     OW 5151   4.542  14.653   6.196
 1085SOL    HW1 5152   4.567  14.741   6.169
 1085SOL    HW2 5153   4.613  14.596   6.167
 1086SOL     OW 5154  10.542   6.779   5.342
 1086SOL    HW1 5155  10.634   6.767   5.367
 1086SOL    HW2 5156  10.495   6.708   5.387
 1087SOL     OW 5157  13.495  13.612   1.141
 1087SOL    HW1 5158  13.445  13.674   1.194
 1087SOL    HW2 5159  13.456  13.617   1.054
 1088SOL     OW 5160   6.429   2.913  12.454
 1088SOL    HW1 5161   6.365   2.980  12.431
 1088SOL    HW2 5162   6.420   2.847  12.384
 1089SOL     OW 5163  14.435   7.539  14.637
 1089SOL    HW1 5164  14.491   7.467  14.666
 1089SOL    HW2 5165  14.359   7.495  14.599
 1090SOL     OW 5166   5.206  14.710   6.699
 1090SOL    HW1 5167   5.233  14.620   6.679
 1090SOL    HW2 5168   5.113  14.712   6.678
 1091SOL     OW 5169   3.290   7.856   2.386
 1091SOL    HW1 5170   3.378   7.836   2.354
 1091SOL    HW2 5171   3.302   7.933   2.441
 1092SOL     OW 5172  12.276   6.360   6.870
 1092SOL    HW1 5173  12.276   6.270   6.838
 1092SOL    HW2 5174  12.361   6.371   6.912
 1093SOL     OW 5175   8.971   7.607   7.504
 1093SOL    HW1 5176   8.890   7.622   7.552
 1093SOL    HW2 5177   9.035   7.583   7.572
 1094SOL     OW 5178   0.024   8.883   7.063
 1094SOL    HW1 5179   0.090   8.817   7.082
 1094SOL    HW2 5180  14.869   8.857   6.977
 1095SOL     OW 5181   2.898   1.304   5.206
 1095SOL    HW1 5182   2.948   1.320   5.287
 1095SOL    HW2 5183   2.817   1.353   5.219
 1096SOL     OW 5184   2.266   6.823  13.854
 1096SOL    HW1 5185   2.232   6.909  13.879
 1096SOL    HW2 5186   2.188   6.768  13.848
 1097SOL     OW 5187   2.428   4.064  13.538
 1097SOL    HW1 5188   2.516   4.027  13.543
 1097SOL    HW2 5189   2.436   4.135  13.474
 1098SOL     OW 5190   4.784  13.014   7.310
 1098SOL    HW1 5191   4.736  12.969   7.379
 1098SOL    HW2 5192   4.728  13.007   7.233
 1099SOL     OW 5193  14.852   1.902  11.313
 1099SOL    HW1 5194  14.831   1.988  11.277
 1099SOL    HW2 5195  14.772   1.873  11.355
 1100SOL     OW 5196   1.256   3.925   1.233
 1100SOL    HW1 5197   1.213   3.881   1.306
 1100SOL    HW2 5198   1.312   3.991   1.275
 1101SOL     OW 5199   7.696   2.538  12.857
 1101SOL    HW1 5200   7.732   2.613  12.810
 1101SOL    HW2 5201   7.607   2.529  12.822
 1102SOL     OW 5202   0.475   5.097   1.528
 1102SOL    HW1 5203   0.440   5.105   1.617
 1102SOL    HW2 5204   0.510   5.008   1.523
 1103SOL     OW 5205   3.412   2.904   7.711
 1103SOL    HW1 5206   3.331   2.912   7.760
 1103SOL    HW2 5207   3.434   2.993   7.684
 1104SOL     OW 5208   6.758  13.032   5.747
 1104SOL    HW1 5209   6.722  12.948   5.775
 1104SOL    HW2 5210   6.681  13.086   5.728
 1105SOL     OW 5211   8.113   5.571   1.997
 1105SOL    HW1 5212   8.018   5.558   2.005
 1105SOL    HW2 5213   8.133   5.544   1.908
 1106SOL     OW 5214  13.291   3.935  14.401
 1106SOL    HW1 5215  13.348   3.911  14.475
 1106SOL    HW2 5216  13.206   3.952  14.441
 1107SOL     OW 5217   8.286  12.323  10.258
 1107SOL    HW1 5218   8.279  12.414  10.288
 1107SOL    HW2 5219   8.336  12.279  10.326
 1108SOL     OW 5220  12.014   1.465   2.711
 1108SOL    HW1 5221  12.076   1.530   2.679
 1108SOL    HW2 5222  11.986   1.499   2.796
 1109SOL     OW 5223  12.038   9.534   2.614
 1109SOL    HW1 5224  12.092   9.471   2.661
 1109SOL    HW2 5225  11.956   9.488   2.597
 1110SOL     OW 5226   9.188   2.203  12.445
 1110SOL    HW1 5227   9.241   2.149  12.503
 1110SOL    HW2 5228   9.099   2.197  12.480
 1111SOL     OW 5229  13.790   3.004   0.929
 1111SOL    HW1 5230  13.856   3.025   0.863
 1111SOL    HW2 5231  13.752   3.089   0.953
 1112SOL     OW 5232  13.386   8.425  12.896
 1112SOL    HW1 5233  13.392   8.359  12.966
 1112SOL    HW2 5234  13.450   8.492  12.921
 1113SOL     OW 5235   4.493   6.200  13.671
 1113SOL    HW1 5236   4.556   6.266  13.699
 1113SOL    HW2 5237   4.546   6.129  13.636
 1114SOL     OW 5238   2.327  14.416  12.849
 1114SOL    HW1 5239   2.336  14.325  12.877
 1114SOL    HW2 5240   2.234  14.435  12.860
 1115SOL     OW 5241  12.337   8.048   5.018
 1115SOL    HW1 5242  12.278   7.978   5.048
 1115SOL    HW2 5243  12.379   8.080   5.098
 1116SOL     OW 5244   2.306   0.418   9.741
 1116SOL    HW1 5245   2.275   0.500   9.703
 1116SOL    HW2 5246   2.245   0.352   9.708
 1117SOL     OW 5247   5.598   6.823   5.080
 1117SOL    HW1 5248   5.520   6.865   5.117
 1117SOL    HW2 5249   5.669   6.886   5.096
 1118SOL     OW 5250   7.591   9.380   5.509
 1118SOL    HW1 5251   7.615   9.294   5.543
 1118SOL    HW2 5252   7.668   9.435   5.525
 1119SOL     OW 5253   4.116  10.121  11.018
 1119SOL    HW1 5254   4.077  10.069  11.088
 1119SOL    HW2 5255   4.208  10.095  11.017
 1120SOL     OW 5256   6.339  11.567   8.315
 1120SOL    HW1 5257   6.351  11.472   8.321
 1120SOL    HW2 5258   6.418  11.599   8.271
 1121SOL     OW 5259  11.271  10.582   8.167
 1121SOL    HW1 5260  11.277  10.667   8.210
 1121SOL    HW2 5261  11.218  10.529   8.226
 1122SOL     OW 5262   2.728   4.444   8.446
 1122SOL    HW1 5263   2.669   4.379   8.407
 1122SOL    HW2 5264   2.695   4.528   8.413
 1123SOL     OW 5265   6.630   2.589  13.513
 1123SOL    HW1 5266   6.597   2.500  13.499
 1123SOL    HW2 5267   6.692   2.603  13.442
 1124SOL     OW 5268   4.150  14.745   4.026
 1124SOL    HW1 5269   4.166  14.684   4.097
 1124SOL    HW2 5270   4.204  14.712   3.954
 1125SOL     OW 5271  13.797  10.469   5.176
 1125SOL    HW1 5272  13.837  10.523   5.245
 1125SOL    HW2 5273  13.802  10.380   5.210
 1126SOL     OW 5274   2.638   5.875   1.400
 1126SOL    HW1 5275   2.548   5.894   1.373
 1126SOL    HW2 5276   2.669   5.956   1.439
 1127SOL     OW 5277   9.724  13.492   5.383
 1127SOL    HW1 5278   9.762  13.460   5.301
 1127SOL    HW2 5279   9.639  13.449   5.389
 1128SOL     OW 5280   0.720   4.031  12.972
 1128SOL    HW1 5281   0.789   3.971  12.946
 1128SOL    HW2 5282   0.654   4.025  12.902
 1129SOL     OW 5283   2.923   7.689   4.815
 1129SOL    HW1 5284   2.859   7.740   4.864
 1129SOL    HW2 5285   2.963   7.631   4.881
 1130SOL     OW 5286  11.273   8.962   4.591
 1130SOL    HW1 5287  11.259   9.039   4.646
 1130SOL    HW2 5288  11.255   8.887   4.648
 1131SOL     OW 5289   0.490   9.699  14.138
 1131SOL    HW1 5290   0.397   9.688  14.160
 1131SOL    HW2 5291   0.536   9.690  14.221
 1132SOL     OW 5292   2.270   1.873   0.412
 1132SOL    HW1 5293   2.178   1.865   0.385
 1132SOL    HW2 5294   2.318   1.817   0.351
 1133SOL     OW 5295   9.856   9.811   7.577
 1133SOL    HW1 5296   9.919   9.884   7.578
 1133SOL    HW2 5297   9.828   9.805   7.486
 1134SOL     OW 5298   9.290   4.047  11.428
 1134SOL    HW1 5299   9.280   4.021  11.520
 1134SOL    HW2 5300   9.336   4.131  11.432
 1135SOL     OW 5301   3.928  10.513  12.064
 1135SOL    HW1 5302   3.970  10.448  12.120
 1135SOL    HW2 5303   3.869  10.463  12.008
 1136SOL     OW 5304  10.178   4.286   3.193
 1136SOL    HW1 5305  10.232   4.310   3.117
 1136SOL    HW2 5306  10.212   4.341   3.264
 1137SOL     OW 5307   5.541   4.189  14.731
 1137SOL    HW1 5308   5.516   4.277  14.705
 1137SOL    HW2 5309   5.476   4.132  14.690
 1138SOL     OW 5310  14.042   9.706   9.075
 1138SOL    HW1 5311  13.993   9.627   9.056
 1138SOL    HW2 5312  14.040   9.757   8.994
 1139SOL     OW 5313  11.889  12.112   3.445
 1139SOL    HW1 5314  11.883  12.206   3.464
 1139SOL    HW2 5315  11.816  12.073   3.494
 1140SOL     OW 5316  13.014   9.565  13.953
 1140SOL    HW1 5317  13.006   9.533  14.043
 1140SOL    HW2 5318  13.089   9.518  13.918
 1141SOL     OW 5319   4.226  11.944   6.484
 1141SOL    HW1 5320   4.178  11.884   6.428
 1141SOL    HW2 5321   4.314  11.907   6.489
 1142SOL     OW 5322  10.556  13.646  11.053
 1142SOL    HW1 5323  10.469  13.667  11.086
 1142SOL    HW2 5324  10.574  13.714  10.988
 1143SOL     OW 5325  14.116   9.890   3.296
 1143SOL    HW1 5326  14.142   9.958   3.358
 1143SOL    HW2 5327  14.197   9.864   3.253
 1144SOL     OW 5328   6.498  14.673  12.633
 1144SOL    HW1 5329   6.417  14.671  12.581
 1144SOL    HW2 5330   6.554  14.607  12.592
 1145SOL     OW 5331   1.802  14.587   8.602
 1145SOL    HW1 5332   1.872  14.644   8.634
 1145SOL    HW2 5333   1.721  14.628   8.635
 1146SOL     OW 5334   4.559  12.249   8.568
 1146SOL    HW1 5335   4.624  12.207   8.511
 1146SOL    HW2 5336   4.553  12.338   8.535
 1147SOL     OW 5337   8.919  13.817   6.231
 1147SOL    HW1 5338   8.880  13.863   6.305
 1147SOL    HW2 5339   8.891  13.726   6.240
 1148SOL     OW 5340  12.188   5.994   5.649
 1148SOL    HW1 5341  12.242   5.930   5.602
 1148SOL    HW2 5342  12.252   6.052   5.690
 1149SOL     OW 5343   7.676   4.407   3.759
 1149SOL    HW1 5344   7.712   4.491   3.787
 1149SOL    HW2 5345   7.622   4.428   3.683
 1150SOL     OW 5346  11.499   6.096   0.432
 1150SOL    HW1 5347  11.520   6.189   0.438
 1150SOL    HW2 5348  11.532   6.069   0.346
 1151SOL     OW 5349   1.926   9.848   4.295
 1151SOL    HW1 5350   1.938   9.942   4.309
 1151SOL    HW2 5351   2.014   9.811   4.302
 1152SOL     OW 5352   4.226   6.343   0.195
 1152SOL    HW1 5353   4.307   6.380   0.161
 1152SOL    HW2 5354   4.212   6.387   0.279
 1153SOL     OW 5355   8.338   9.925   4.918
 1153SOL    HW1 5356   8.347  10.019   4.907
 1153SOL    HW2 5357   8.349   9.889   4.830
 1154SOL     OW 5358  13.648  11.071  14.589
 1154SOL    HW1 5359  13.623  11.026  14.671
 1154SOL    HW2 5360  13.612  11.159  14.598
 1155SOL     OW 5361  11.093   1.942  11.826
 1155SOL    HW1 5362  11.078   1.881  11.754
 1155SOL    HW2 5363  11.010   1.989  11.835
 1156SOL     OW 5364   2.518   0.356  14.165
 1156SOL    HW1 5365   2.599   0.308  14.149
 1156SOL    HW2 5366   2.502   0.346  14.259
 1157SOL     OW 5367   2.529  12.762   7.641
 1157SOL    HW1 5368   2.601  12.753   7.705
 1157SOL    HW2 5369   2.559  12.831   7.582
 1158SOL     OW 5370   2.930  11.754   2.316
 1158SOL    HW1 5371   2.907  11.847   2.317
 1158SOL    HW2 5372   3.010  11.749   2.264
 1159SOL     OW 5373   8.786  14.475   4.789
 1159SOL    HW1 5374   8.830  14.485   4.873
 1159SOL    HW2 5375   8.698  14.511   4.804
 1160SOL     OW 5376   6.898   4.255   1.316
 1160SOL    HW1 5377   6.935   4.173   1.281
 1160SOL    HW2 5378   6.962   4.322   1.292
 1161SOL     OW 5379   9.446  10.817   1.205
 1161SOL    HW1 5380   9.380  10.862   1.151
 1161SOL    HW2 5381   9.503  10.775   1.142
 1162SOL     OW 5382   4.334  14.166   3.508
 1162SOL    HW1 5383   4.304  14.132   3.424
 1162SOL    HW2 5384   4.430  14.162   3.502
 1163SOL     OW 5385  13.703   0.221   4.067
 1163SOL    HW1 5386  13.734   0.303   4.105
 1163SOL    HW2 5387  13.619   0.204   4.110
 1164SOL     OW 5388  11.829  13.854   5.057
 1164SOL    HW1 5389  11.900  13.879   4.999
 1164SOL    HW2 5390  11.866  13.786   5.113
 1165SOL     OW 5391   2.895  12.916   1.324
 1165SOL    HW1 5392   2.958  12.888   1.390
 1165SOL    HW2 5393   2.833  12.844   1.316
 1166SOL     OW 5394   7.778   4.496   8.480
 1166SOL    HW1 5395   7.777   4.558   8.552
 1166SOL    HW2 5396   7.703   4.439   8.496
 1167SOL     OW 5397   9.478   2.559   0.886
 1167SOL    HW1 5398   9.546   2.625   0.877
 1167SOL    HW2 5399   9.500   2.493   0.820
 1168SOL     OW 5400   4.709  12.840   8.217
 1168SOL    HW1 5401   4.728  12.771   8.280
 1168SOL    HW2 5402   4.614  12.850   8.219
 1169SOL     OW 5403   7.150   1.394   6.813
 1169SOL    HW1 5404   7.209   1.392   6.889
 1169SOL    HW2 5405   7.207   1.419   6.740
 1170SOL     OW 5406   8.529   4.624   6.524
 1170SOL    HW1 5407   8.536   4.671   6.607
 1170SOL    HW2 5408   8.435   4.616   6.509
 1171SOL     OW 5409   5.239  14.519   9.744
 1171SOL    HW1 5410   5.179  14.452   9.711
 1171SOL    HW2 5411   5.299  14.471   9.801
 1172SOL     OW 5412   8.029  14.359   1.294
 1172SOL    HW1 5413   8.115  14.396   1.315
 1172SOL    HW2 5414   8.046  14.265   1.287
 1173SOL     OW 5415  14.392   5.947  13.097
 1173SOL    HW1 5416  14.477   5.986  13.119
 1173SOL    HW2 5417  14.412   5.855  13.079
 1174SOL     OW 5418   8.526   9.828   3.152
 1174SOL    HW1 5419   8.525   9.758   3.216
 1174SOL    HW2 5420   8.599   9.884   3.178
 1175SOL     OW 5421   8.709  12.313   3.535
 1175SOL    HW1 5422   8.793  12.349   3.506
 1175SOL    HW2 5423   8.704  12.227   3.493
 1176SOL     OW 5424   6.485   0.025   0.255
 1176SOL    HW1 5425   6.490  14.822   0.209
 1176SOL    HW2 5426   6.534   0.086   0.199
 1177SOL     OW 5427   8.938   9.194   3.880
 1177SOL    HW1 5428   8.893   9.275   3.905
 1177SOL    HW2 5429   8.871   9.126   3.883
 1178SOL     OW 5430   4.581   7.013   4.199
 1178SOL    HW1 5431   4.549   6.973   4.280
 1178SOL    HW2 5432   4.673   7.031   4.216
 1179SOL     OW 5433   9.629   0.149   0.195
 1179SOL    HW1 5434   9.707   0.163   0.249
 1179SOL    HW2 5435   9.642   0.062   0.157
 1180SOL     OW 5436   0.625  11.438   9.666
 1180SOL    HW1 5437   0.566  11.511   9.688
 1180SOL    HW2 5438   0.599  11.368   9.726
 1181SOL     OW 5439   8.779   1.728   4.212
 1181SOL    HW1 5440   8.774   1.690   4.124
 1181SOL    HW2 5441   8.744   1.817   4.202
 1182SOL     OW 5442  13.332  11.465  11.214
 1182SOL    HW1 5443  13.401  11.399  11.213
 1182SOL    HW2 5444  13.292  11.458  11.301
 1183SOL     OW 5445   9.817   3.015   5.575
 1183SOL    HW1 5446   9.864   2.980   5.500
 1183SOL    HW2 5447   9.859   3.099   5.593
 1184SOL     OW 5448   7.382   3.580   1.020
 1184SOL    HW1 5449   7.349   3.515   0.959
 1184SOL    HW2 5450   7.477   3.571   1.016
 1185SOL     OW 5451   7.796  13.779  13.383
 1185SOL    HW1 5452   7.751  13.831  13.450
 1185SOL    HW2 5453   7.889  13.801  13.393
 1186SOL     OW 5454   8.060   5.288   2.639
 1186SOL    HW1 5455   8.072   5.338   2.719
 1186SOL    HW2 5456   8.049   5.198   2.668
 1187SOL     OW 5457   3.191   3.268   8.481
 1187SOL    HW1 5458   3.202   3.335   8.548
 1187SOL    HW2 5459   3.115   3.218   8.509
 1188SOL     OW 5460   5.152  14.354  10.385
 1188SOL    HW1 5461   5.083  14.411  10.350
 1188SOL    HW2 5462   5.152  14.278  10.327
 1189SOL     OW 5463   2.328   7.098   2.794
 1189SOL    HW1 5464   2.241   7.124   2.763
 1189SOL    HW2 5465   2.360   7.037   2.728
 1190SOL     OW 5466   6.432  11.263  13.837
 1190SOL    HW1 5467   6.475  11.223  13.761
 1190SOL    HW2 5468   6.339  11.246  13.824
 1191SOL     OW 5469  13.366   0.023   6.063
 1191SOL    HW1 5470  13.455   0.018   6.099
 1191SOL    HW2 5471  13.358  14.826   6.009
 1192SOL     OW 5472   5.762   5.550  13.537
 1192SOL    HW1 5473   5.824   5.501  13.484
 1192SOL    HW2 5474   5.789   5.533  13.628
 1193SOL     OW 5475   7.178   5.533  10.199
 1193SOL    HW1 5476   7.087   5.549  10.226
 1193SOL    HW2 5477   7.221   5.618  10.205
 1194SOL     OW 5478   3.064   3.933  12.119
 1194SOL    HW1 5479   3.158   3.934  12.136
 1194SOL    HW2 5480   3.049   3.850  12.072
 1195SOL     OW 5481   4.903   8.538  11.133
 1195SOL    HW1 5482   4.891   8.465  11.195
 1195SOL    HW2 5483   4.870   8.615  11.180
 1196SOL     OW 5484  10.960   5.172   9.700
 1196SOL    HW1 5485  11.018   5.097   9.692
 1196SOL    HW2 5486  10.945   5.201   9.610
 1197SOL     OW 5487   9.415   0.357   9.277
 1197SOL    HW1 5488   9.413   0.308   9.359
 1197SOL    HW2 5489   9.397   0.291   9.210
 1198SOL     OW 5490   0.478   0.707   7.744
 1198SOL    HW1 5491   0.512   0.692   7.832
 1198SOL    HW2 5492   0.501   0.798   7.725
 1199SOL     OW 5493  10.659   2.582  13.786
 1199SOL    HW1 5494  10.741   2.548  13.821
 1199SOL    HW2 5495  10.682   2.616  13.699
 1200SOL     OW 5496  13.350  12.247   3.812
 1200SOL    HW1 5497  13.386  12.334   3.826
 1200SOL    HW2 5498  13.260  12.262   3.784
 1201SOL     OW 5499   3.048   2.237   9.125
 1201SOL    HW1 5500   3.076   2.251   9.035
 1201SOL    HW2 5501   2.963   2.280   9.131
 1202SOL     OW 5502  13.412   0.294   2.178
 1202SOL    HW1 5503  13.327   0.328   2.150
 1202SOL    HW2 5504  13.391   0.222   2.237
 1203SOL     OW 5505   1.439   9.905   9.703
 1203SOL    HW1 5506   1.477   9.993   9.698
 1203SOL    HW2 5507   1.497   9.858   9.763
 1204SOL     OW 5508   9.617   9.138  11.259
 1204SOL    HW1 5509   9.548   9.192  11.297
 1204SOL    HW2 5510   9.603   9.051  11.295
 1205SOL     OW 5511   0.824   2.499  12.752
 1205SOL    HW1 5512   0.753   2.501  12.817
 1205SOL    HW2 5513   0.848   2.406  12.746
 1206SOL     OW 5514   4.952  14.794   4.964
 1206SOL    HW1 5515   5.022  14.768   4.903
 1206SOL    HW2 5516   4.911  14.869   4.923
 1207SOL     OW 5517   5.543   0.865   8.500
 1207SOL    HW1 5518   5.613   0.929   8.485
 1207SOL    HW2 5519   5.584   0.780   8.481
 1208SOL     OW 5520  12.708   0.822   6.495
 1208SOL    HW1 5521  12.637   0.787   6.548
 1208SOL    HW2 5522  12.710   0.916   6.515
 1209SOL     OW 5523  13.279   4.169   7.957
 1209SOL    HW1 5524  13.232   4.235   7.905
 1209SOL    HW2 5525  13.322   4.219   8.026
 1210SOL     OW 5526   6.691  14.452   1.726
 1210SOL    HW1 5527   6.727  14.369   1.695
 1210SOL    HW2 5528   6.688  14.442   1.821
 1211SOL     OW 5529   1.291  10.783  12.391
 1211SOL    HW1 5530   1.245  10.800  12.473
 1211SOL    HW2 5531   1.383  10.799  12.412
 1212SOL     OW 5532  12.317   0.943  12.480
 1212SOL    HW1 5533  12.301   1.000  12.555
 1212SOL    HW2 5534  12.264   0.980  12.410
 1213SOL     OW 5535   0.468  11.731   2.433
 1213SOL    HW1 5536   0.441  11.780   2.511
 1213SOL    HW2 5537   0.549  11.688   2.459
 1214SOL     OW 5538   1.092   5.869  11.963
 1214SOL    HW1 5539   1.084   5.960  11.935
 1214SOL    HW2 5540   1.185   5.849  11.953
 1215SOL     OW 5541   6.143   3.968   2.570
 1215SOL    HW1 5542   6.223   4.000   2.613
 1215SOL    HW2 5543   6.076   4.031   2.597
 1216SOL     OW 5544   6.676   1.402  14.296
 1216SOL    HW1 5545   6.738   1.384  14.226
 1216SOL    HW2 5546   6.590   1.401  14.253
 1217SOL     OW 5547  11.385   8.442   0.253
 1217SOL    HW1 5548  11.442   8.505   0.297
 1217SOL    HW2 5549  11.298   8.483   0.256
 1218SOL     OW 5550  11.801   0.225   0.081
 1218SOL    HW1 5551  11.719   0.258   0.120
 1218SOL    HW2 5552  11.773   0.180   0.001
 1219SOL     OW 5553   3.619   1.190   3.783
 1219SOL    HW1 5554   3.652   1.114   3.831
 1219SOL    HW2 5555   3.616   1.260   3.849
 1220SOL     OW 5556  12.686   1.594   7.314
 1220SOL    HW1 5557  12.596   1.572   7.293
 1220SOL    HW2 5558  12.709   1.664   7.252
 1221SOL     OW 5559   9.106   9.640   0.459
 1221SOL    HW1 5560   9.188   9.597   0.484
 1221SOL    HW2 5561   9.124   9.676   0.372
 1222SOL     OW 5562   7.037   1.963   8.092
 1222SOL    HW1 5563   7.103   1.944   8.024
 1222SOL    HW2 5564   6.980   2.028   8.052
 1223SOL     OW 5565   6.962   5.028   9.280
 1223SOL    HW1 5566   7.036   4.978   9.316
 1223SOL    HW2 5567   6.892   5.016   9.344
 1224SOL     OW 5568  10.727  13.044   6.863
 1224SOL    HW1 5569  10.793  13.089   6.810
 1224SOL    HW2 5570  10.680  12.989   6.801
 1225SOL     OW 5571   6.006   0.389   1.104
 1225SOL    HW1 5572   5.918   0.354   1.113
 1225SOL    HW2 5573   5.999   0.481   1.130
 1226SOL     OW 5574   2.868   6.757  10.692
 1226SOL    HW1 5575   2.963   6.746  10.689
 1226SOL    HW2 5576   2.846   6.801  10.610
 1227SOL     OW 5577  14.545  10.351  11.485
 1227SOL    HW1 5578  14.564  10.387  11.571
 1227SOL    HW2 5579  14.606  10.396  11.426
 1228SOL     OW 5580   9.065  13.997   4.187
 1228SOL    HW1 5581   9.153  13.969   4.212
 1228SOL    HW2 5582   9.076  14.086   4.155
 1229SOL     OW 5583   7.489   8.285   0.733
 1229SOL    HW1 5584   7.562   8.323   0.683
 1229SOL    HW2 5585   7.525   8.205   0.771
 1230SOL     OW 5586   0.385   5.832  12.523
 1230SOL    HW1 5587   0.419   5.752  12.484
 1230SOL    HW2 5588   0.444   5.901  12.493
 1231SOL     OW 5589   8.566   5.684   3.037
 1231SOL    HW1 5590   8.563   5.666   3.131
 1231SOL    HW2 5591   8.635   5.750   3.027
 1232SOL     OW 5592  14.770  13.025  12.216
 1232SOL    HW1 5593  14.789  13.100  12.271
 1232SOL    HW2 5594  14.685  13.045  12.175
 1233SOL     OW 5595   3.518   5.641   3.418
 1233SOL    HW1 5596   3.584   5.575   3.441
 1233SOL    HW2 5597   3.527   5.652   3.323
 1234SOL     OW 5598  12.066   2.726   4.086
 1234SOL    HW1 5599  12.050   2.704   4.178
 1234SOL    HW2 5600  12.104   2.814   4.088
 1235SOL     OW 5601   4.566   1.170   1.947
 1235SOL    HW1 5602   4.527   1.087   1.975
 1235SOL    HW2 5603   4.493   1.232   1.949
 1236SOL     OW 5604  11.760  10.233   3.677
 1236SOL    HW1 5605  11.680  10.193   3.644
 1236SOL    HW2 5606  11.742  10.326   3.678
 1237SOL     OW 5607  11.924   7.812   5.385
 1237SOL    HW1 5608  11.858   7.860   5.336
 1237SOL    HW2 5609  11.913   7.841   5.475
 1238SOL     OW 5610   3.948  11.893   8.788
 1238SOL    HW1 5611   4.023  11.839   8.765
 1238SOL    HW2 5612   3.934  11.877   8.881
 1239SOL     OW 5613   6.231   8.738  13.115
 1239SOL    HW1 5614   6.165   8.673  13.092
 1239SOL    HW2 5615   6.306   8.687  13.144
 1240SOL     OW 5616   4.474  14.466   4.130
 1240SOL    HW1 5617   4.472  14.403   4.057
 1240SOL    HW2 5618   4.496  14.413   4.206
 1241SOL     OW 5619  10.729  12.092  13.376
 1241SOL    HW1 5620  10.808  12.145  13.391
 1241SOL    HW2 5621  10.712  12.051  13.461
 1242SOL     OW 5622  11.441   0.530   0.659
 1242SOL    HW1 5623  11.350   0.527   0.631
 1242SOL    HW2 5624  11.487   0.577   0.589
 1243SOL     OW 5625   0.740   8.721   3.478
 1243SOL    HW1 5626   0.707   8.808   3.457
 1243SOL    HW2 5627   0.676   8.661   3.441
 1244SOL     OW 5628   0.313  11.381   5.912
 1244SOL    HW1 5629   0.297  11.312   5.977
 1244SOL    HW2 5630   0.334  11.333   5.832
 1245SOL     OW 5631   2.724   1.032   4.532
 1245SOL    HW1 5632   2.689   1.078   4.456
 1245SOL    HW2 5633   2.815   1.014   4.510
 1246SOL     OW 5634   3.323  13.312   3.719
 1246SOL    HW1 5635   3.345  13.220   3.737
 1246SOL    HW2 5636   3.374  13.334   3.641
 1247SOL     OW 5637   8.469  10.527   1.835
 1247SOL    HW1 5638   8.392  10.577   1.809
 1247SOL    HW2 5639   8.487  10.554   1.925
 1248SOL     OW 5640   9.942   0.133   7.389
 1248SOL    HW1 5641   9.867   0.088   7.351
 1248SOL    HW2 5642  10.018   0.081   7.362
 1249SOL     OW 5643  10.524   7.337  11.257
 1249SOL    HW1 5644  10.477   7.255  11.245
 1249SOL    HW2 5645  10.555   7.334  11.348
 1250SOL     OW 5646   3.157   1.463  10.283
 1250SOL    HW1 5647   3.244   1.480  10.246
 1250SOL    HW2 5648   3.128   1.383  10.239
 1251SOL     OW 5649   4.361   0.538   6.463
 1251SOL    HW1 5650   4.399   0.552   6.377
 1251SOL    HW2 5651   4.409   0.599   6.520
 1252SOL     OW 5652   9.577  10.317   7.671
 1252SOL    HW1 5653   9.661  10.356   7.697
 1252SOL    HW2 5654   9.551  10.365   7.593
 1253SOL     OW 5655   2.988   9.927  11.885
 1253SOL    HW1 5656   3.005   9.966  11.799
 1253SOL    HW2 5657   3.065   9.872  11.901
 1254SOL     OW 5658   7.263   5.533   8.425
 1254SOL    HW1 5659   7.238   5.609   8.479
 1254SOL    HW2 5660   7.307   5.571   8.350
 1255SOL     OW 5661  14.870  14.549   9.411
 1255SOL    HW1 5662  14.824  14.514   9.487
 1255SOL    HW2 5663   0.080  14.560   9.441
 1256SOL     OW 5664   8.403   3.016   0.897
 1256SOL    HW1 5665   8.312   3.047   0.904
 1256SOL    HW2 5666   8.399   2.944   0.834
 1257SOL     OW 5667   3.343   8.152   8.895
 1257SOL    HW1 5668   3.262   8.190   8.861
 1257SOL    HW2 5669   3.326   8.058   8.897
 1258SOL     OW 5670   9.788  11.214  11.846
 1258SOL    HW1 5671   9.781  11.127  11.806
 1258SOL    HW2 5672   9.715  11.263  11.810
 1259SOL     OW 5673   4.439   4.739   4.859
 1259SOL    HW1 5674   4.533   4.721   4.857
 1259SOL    HW2 5675   4.399   4.655   4.884
 1260SOL     OW 5676   4.645   2.213   5.385
 1260SOL    HW1 5677   4.684   2.133   5.420
 1260SOL    HW2 5678   4.715   2.254   5.334
 1261SOL     OW 5679  10.714   9.034   8.060
 1261SOL    HW1 5680  10.751   9.089   7.991
 1261SOL    HW2 5681  10.619   9.039   8.046
 1262SOL     OW 5682   6.723   8.110  14.154
 1262SOL    HW1 5683   6.713   8.181  14.091
 1262SOL    HW2 5684   6.641   8.108  14.202
 1263SOL     OW 5685   9.108   1.255   0.550
 1263SOL    HW1 5686   9.044   1.200   0.596
 1263SOL    HW2 5687   9.192   1.233   0.591
 1264SOL     OW 5688   1.253   7.801  10.863
 1264SOL    HW1 5689   1.275   7.731  10.801
 1264SOL    HW2 5690   1.163   7.823  10.842
 1265SOL     OW 5691  14.021  12.700   3.873
 1265SOL    HW1 5692  13.955  12.673   3.937
 1265SOL    HW2 5693  14.070  12.619   3.855
 1266SOL     OW 5694   5.344   9.857  11.679
 1266SOL    HW1 5695   5.308   9.912  11.749
 1266SOL    HW2 5696   5.283   9.867  11.606
 1267SOL     OW 5697   7.512   0.640  10.949
 1267SOL    HW1 5698   7.477   0.710  11.004
 1267SOL    HW2 5699   7.462   0.647  10.867
 1268SOL     OW 5700   3.331   4.096   2.787
 1268SOL    HW1 5701   3.300   4.186   2.791
 1268SOL    HW2 5702   3.325   4.064   2.877
 1269SOL     OW 5703  12.400  12.551   2.819
 1269SOL    HW1 5704  12.341  12.494   2.868
 1269SOL    HW2 5705  12.403  12.632   2.870
 1270SOL     OW 5706  11.485  11.214   7.589
 1270SOL    HW1 5707  11.432  11.136   7.606
 1270SOL    HW2 5708  11.512  11.244   7.675
 1271SOL     OW 5709   5.904   1.849   5.535
 1271SOL    HW1 5710   5.951   1.769   5.557
 1271SOL    HW2 5711   5.963   1.895   5.474
 1272SOL     OW 5712  12.074   9.188   4.360
 1272SOL    HW1 5713  12.010   9.260   4.361
 1272SOL    HW2 5714  12.029   9.116   4.404
 1273SOL     OW 5715   4.272   9.901   2.844
 1273SOL    HW1 5716   4.275   9.894   2.749
 1273SOL    HW2 5717   4.283   9.811   2.875
 1274SOL     OW 5718   9.436   6.860  12.289
 1274SOL    HW1 5719   9.472   6.812  12.214
 1274SOL    HW2 5720   9.490   6.833  12.363
 1275SOL     OW 5721   7.891   3.110   2.939
 1275SOL    HW1 5722   7.824   3.056   2.896
 1275SOL    HW2 5723   7.910   3.065   3.021
 1276SOL     OW 5724  11.996   7.908  14.369
 1276SOL    HW1 5725  11.981   7.961  14.291
 1276SOL    HW2 5726  11.918   7.921  14.423
 1277SOL     OW 5727  14.126  14.699   8.525
 1277SOL    HW1 5728  14.178  14.692   8.445
 1277SOL    HW2 5729  14.166  14.635   8.584
 1278SOL     OW 5730  10.358  13.311  13.081
 1278SOL    HW1 5731  10.312  13.262  13.149
 1278SOL    HW2 5732  10.393  13.244  13.022
 1279SOL     OW 5733   5.450   4.957   2.771
 1279SOL    HW1 5734   5.358   4.931   2.762
 1279SOL    HW2 5735   5.447   5.047   2.803
 1280SOL     OW 5736  12.538   6.528   1.130
 1280SOL    HW1 5737  12.490   6.451   1.101
 1280SOL    HW2 5738  12.474   6.599   1.127
 1281SOL     OW 5739   0.602  13.966   4.848
 1281SOL    HW1 5740   0.561  13.897   4.901
 1281SOL    HW2 5741   0.537  13.987   4.781
 1282SOL     OW 5742   1.404   9.593   5.114
 1282SOL    HW1 5743   1.391   9.538   5.191
 1282SOL    HW2 5744   1.350   9.552   5.046
 1283SOL     OW 5745  11.158  12.257  14.001
 1283SOL    HW1 5746  11.066  12.246  14.024
 1283SOL    HW2 5747  11.205  12.249  14.084
 1284SOL     OW 5748   1.280   5.775   2.444
 1284SOL    HW1 5749   1.198   5.825   2.443
 1284SOL    HW2 5750   1.283   5.737   2.531
 1285SOL     OW 5751  12.307   1.613  11.536
 1285SOL    HW1 5752  12.242   1.665  11.584
 1285SOL    HW2 5753  12.390   1.659  11.551
 1286SOL     OW 5754  12.804  13.350  11.331
 1286SOL    HW1 5755  12.881  13.400  11.303
 1286SOL    HW2 5756  12.735  13.416  11.341
 1287SOL     OW 5757   7.617   4.850   5.392
 1287SOL    HW1 5758   7.544   4.839   5.331
 1287SOL    HW2 5759   7.650   4.937   5.374
 1288SOL     OW 5760   0.094   3.255  10.703
 1288SOL    HW1 5761   0.117   3.300  10.785
 1288SOL    HW2 5762   0.178   3.230  10.665
 1289SOL     OW 5763  12.400  10.026   7.982
 1289SOL    HW1 5764  12.381  10.050   7.891
 1289SOL    HW2 5765  12.386   9.931   7.986
 1290SOL     OW 5766  13.533  13.734   3.291
 1290SOL    HW1 5767  13.486  13.788   3.354
 1290SOL    HW2 5768  13.564  13.796   3.225
 1291SOL     OW 5769   7.442   4.598   5.476
 1291SOL    HW1 5770   7.483   4.654   5.542
 1291SOL    HW2 5771   7.502   4.601   5.401
 1292SOL     OW 5772   1.699   2.363  14.177
 1292SOL    HW1 5773   1.627   2.303  14.193
 1292SOL    HW2 5774   1.762   2.313  14.125
 1293SOL     OW 5775   3.368   6.572  10.162
 1293SOL    HW1 5776   3.330   6.609  10.241
 1293SOL    HW2 5777   3.440   6.631  10.139
 1294SOL     OW 5778   5.652   4.046   7.536
 1294SOL    HW1 5779   5.603   4.127   7.522
 1294SOL    HW2 5780   5.620   4.014   7.621
 1295SOL     OW 5781   2.918   1.884  10.542
 1295SOL    HW1 5782   2.949   1.803  10.582
 1295SOL    HW2 5783   2.919   1.948  10.613
 1296SOL     OW 5784   2.252   3.557  10.512
 1296SOL    HW1 5785   2.168   3.511  10.522
 1296SOL    HW2 5786   2.234   3.646  10.542
 1297SOL     OW 5787   9.868   1.304  12.359
 1297SOL    HW1 5788   9.876   1.394  12.389
 1297SOL    HW2 5789   9.904   1.252  12.431
 1298SOL     OW 5790  12.121  13.543   9.321
 1298SOL    HW1 5791  12.158  13.470   9.370
 1298SOL    HW2 5792  12.185  13.614   9.331
 1299SOL     OW 5793   0.009   8.592   1.032
 1299SOL    HW1 5794   0.043   8.577   1.121
 1299SOL    HW2 5795  14.833   8.669   1.041
 1300SOL     OW 5796   4.098  13.446   3.063
 1300SOL    HW1 5797   4.123  13.498   3.140
 1300SOL    HW2 5798   4.134  13.359   3.081
 1301SOL     OW 5799   8.982  14.579   9.911
 1301SOL    HW1 5800   8.886  14.575   9.909
 1301SOL    HW2 5801   9.008  14.504   9.963
 1302SOL     OW 5802   8.635   7.917   8.667
 1302SOL    HW1 5803   8.718   7.955   8.697
 1302SOL    HW2 5804   8.597   7.879   8.746
 1303SOL     OW 5805   6.453   6.845  12.033
 1303SOL    HW1 5806   6.396   6.768  12.040
 1303SOL    HW2 5807   6.451   6.884  12.120
 1304SOL     OW 5808   7.067   6.220   1.644
 1304SOL    HW1 5809   7.136   6.267   1.597
 1304SOL    HW2 5810   7.090   6.231   1.737
 1305SOL     OW 5811  12.511   3.590  12.126
 1305SOL    HW1 5812  12.575   3.563  12.059
 1305SOL    HW2 5813  12.549   3.669  12.165
 1306SOL     OW 5814  10.210   9.750  10.307
 1306SOL    HW1 5815  10.268   9.717  10.375
 1306SOL    HW2 5816  10.239   9.706  10.227
 1307SOL     OW 5817   7.867  13.594  12.860
 1307SOL    HW1 5818   7.941  13.655  12.855
 1307SOL    HW2 5819   7.906  13.508  12.844
 1308SOL     OW 5820  10.418   2.767   1.825
 1308SOL    HW1 5821  10.371   2.697   1.779
 1308SOL    HW2 5822  10.428   2.836   1.760
 1309SOL     OW 5823  13.049  13.859  10.540
 1309SOL    HW1 5824  13.041  13.789  10.605
 1309SOL    HW2 5825  13.091  13.931  10.586
 1310SOL     OW 5826   3.415   5.700  12.399
 1310SOL    HW1 5827   3.335   5.750  12.382
 1310SOL    HW2 5828   3.486   5.760  12.376
 1311SOL     OW 5829   6.679   4.471   0.885
 1311SOL    HW1 5830   6.699   4.548   0.832
 1311SOL    HW2 5831   6.672   4.504   0.975
 1312SOL     OW 5832   8.141  13.808  12.756
 1312SOL    HW1 5833   8.138  13.735  12.694
 1312SOL    HW2 5834   8.227  13.800  12.797
 1313SOL     OW 5835   5.846   1.790  11.112
 1313SOL    HW1 5836   5.909   1.862  11.113
 1313SOL    HW2 5837   5.844   1.762  11.020
 1314SOL     OW 5838   1.553   7.508  11.497
 1314SOL    HW1 5839   1.596   7.588  11.526
 1314SOL    HW2 5840   1.600   7.438  11.542
 1315SOL     OW 5841  12.222   9.582  14.282
 1315SOL    HW1 5842  12.222   9.672  14.316
 1315SOL    HW2 5843  12.202   9.529  14.359
 1316SOL     OW 5844   4.314   0.905  11.018
 1316SOL    HW1 5845   4.380   0.970  10.994
 1316SOL    HW2 5846   4.364   0.824  11.031
 1317SOL     OW 5847  14.124   2.548  12.085
 1317SOL    HW1 5848  14.121   2.550  12.180
 1317SOL    HW2 5849  14.085   2.464  12.061
 1318SOL     OW 5850   5.096   4.092   4.744
 1318SOL    HW1 5851   5.077   4.109   4.836
 1318SOL    HW2 5852   5.081   4.176   4.700
 1319SOL     OW 5853   8.637   2.981   2.666
 1319SOL    HW1 5854   8.652   2.897   2.708
 1319SOL    HW2 5855   8.542   2.988   2.658
 1320SOL     OW 5856   3.183  13.794   7.090
 1320SOL    HW1 5857   3.226  13.738   7.154
 1320SOL    HW2 5858   3.089  13.780   7.105
 1321SOL     OW 5859  12.333   3.456   1.192
 1321SOL    HW1 5860  12.294   3.486   1.274
 1321SOL    HW2 5861  12.260   3.417   1.144
 1322SOL     OW 5862  13.419   7.534   2.685
 1322SOL    HW1 5863  13.406   7.568   2.597
 1322SOL    HW2 5864  13.435   7.441   2.673
 1323SOL     OW 5865  11.905   3.236   8.248
 1323SOL    HW1 5866  11.928   3.219   8.339
 1323SOL    HW2 5867  11.953   3.316   8.225
 1324SOL     OW 5868   6.496  12.802   7.499
 1324SOL    HW1 5869   6.539  12.718   7.512
 1324SOL    HW2 5870   6.455  12.795   7.412
 1325SOL     OW 5871   1.792  14.156   1.770
 1325SOL    HW1 5872   1.698  14.138   1.774
 1325SOL    HW2 5873   1.830  14.097   1.835
 1326SOL     OW 5874   0.692   5.753   2.113
 1326SOL    HW1 5875   0.664   5.806   2.187
 1326SOL    HW2 5876   0.614   5.702   2.089
 1327SOL     OW 5877   1.807   5.248   9.717
 1327SOL    HW1 5878   1.865   5.174   9.697
 1327SOL    HW2 5879   1.723   5.207   9.739
 1328SOL     OW 5880   2.604   7.396  11.546
 1328SOL    HW1 5881   2.544   7.354  11.608
 1328SOL    HW2 5882   2.689   7.355  11.565
 1329SOL     OW 5883  13.055   9.818   5.536
 1329SOL    HW1 5884  13.018   9.883   5.596
 1329SOL    HW2 5885  12.980   9.763   5.511
 1330SOL     OW 5886  14.128  10.814   0.674
 1330SOL    HW1 5887  14.043  10.828   0.634
 1330SOL    HW2 5888  14.191  10.838   0.606
 1331SOL     OW 5889   6.295  12.729   8.600
 1331SOL    HW1 5890   6.225  12.784   8.636
 1331SOL    HW2 5891   6.289  12.647   8.649
 1332SOL     OW 5892   2.753  14.086   2.919
 1332SOL    HW1 5893   2.778  14.177   2.938
 1332SOL    HW2 5894   2.837  14.042   2.902
 1333SOL     OW 5895   8.189  13.919  11.747
 1333SOL    HW1 5896   8.103  13.885  11.773
 1333SOL    HW2 5897   8.174  13.960  11.662
 1334SOL     OW 5898   7.135   0.849   4.365
 1334SOL    HW1 5899   7.180   0.765   4.357
 1334SOL    HW2 5900   7.156   0.879   4.454
 1335SOL     OW 5901   8.851  14.263   6.978
 1335SOL    HW1 5902   8.878  14.282   7.068
 1335SOL    HW2 5903   8.755  14.261   6.982
 1336SOL     OW 5904   1.976   3.921   3.071
 1336SOL    HW1 5905   1.941   4.008   3.056
 1336SOL    HW2 5906   2.069   3.927   3.048
 1337SOL     OW 5907  14.848   5.145   7.011
 1337SOL    HW1 5908   0.036   5.090   6.974
 1337SOL    HW2 5909   0.012   5.197   7.077
 1338SOL     OW 5910   1.039   9.831  12.279
 1338SOL    HW1 5911   1.124   9.800  12.250
 1338SOL    HW2 5912   1.058   9.895  12.348
 1339SOL     OW 5913   2.530  11.609   9.186
 1339SOL    HW1 5914   2.559  11.691   9.226
 1339SOL    HW2 5915   2.574  11.541   9.235
 1340SOL     OW 5916   2.763   1.980  10.099
 1340SOL    HW1 5917   2.829   2.015  10.158
 1340SOL    HW2 5918   2.804   1.984  10.012
 1341SOL     OW 5919  14.775   2.556   6.328
 1341SOL    HW1 5920  14.706   2.621   6.320
 1341SOL    HW2 5921  14.748   2.502   6.402
 1342SOL     OW 5922   5.291  13.616  10.795
 1342SOL    HW1 5923   5.305  13.684  10.861
 1342SOL    HW2 5924   5.376  13.571  10.790
 1343SOL     OW 5925  10.052  12.360   7.959
 1343SOL    HW1 5926  10.103  12.301   7.904
 1343SOL    HW2 5927  10.088  12.347   8.047
 1344SOL     OW 5928   6.665  10.810   7.404
 1344SOL    HW1 5929   6.623  10.882   7.451
 1344SOL    HW2 5930   6.592  10.757   7.372
 1345SOL     OW 5931   4.149  12.734   0.459
 1345SOL    HW1 5932   4.161  12.675   0.384
 1345SOL    HW2 5933   4.168  12.680   0.535
 1346SOL     OW 5934   3.753   5.788  13.442
 1346SOL    HW1 5935   3.797   5.872  13.442
 1346SOL    HW2 5936   3.728   5.773  13.533
 1347SOL     OW 5937   9.775   0.002   3.541
 1347SOL    HW1 5938   9.735  14.800   3.569
 1347SOL    HW2 5939   9.843  14.856   3.478
 1348SOL     OW 5940  14.158   5.960  14.162
 1348SOL    HW1 5941  14.189   5.874  14.192
 1348SOL    HW2 5942  14.128   5.945  14.073
 1349SOL     OW 5943   6.135   4.497   4.934
 1349SOL    HW1 5944   6.214   4.548   4.945
 1349SOL    HW2 5945   6.165   4.407   4.920
 1350SOL     OW 5946   2.856   9.024   2.521
 1350SOL    HW1 5947   2.772   8.982   2.538
 1350SOL    HW2 5948   2.860   9.034   2.426
 1351SOL     OW 5949   4.362  11.136   1.930
 1351SOL    HW1 5950   4.451  11.171   1.921
 1351SOL    HW2 5951   4.347  11.133   2.024
 1352SOL     OW 5952   5.654  14.116   0.935
 1352SOL    HW1 5953   5.611  14.040   0.976
 1352SOL    HW2 5954   5.685  14.169   1.008
 1353SOL     OW 5955   2.542   4.738   1.366
 1353SOL    HW1 5956   2.516   4.694   1.446
 1353SOL    HW2 5957   2.504   4.826   1.373
 1354SOL     OW 5958   8.676   2.857   7.348
 1354SOL    HW1 5959   8.582   2.875   7.348
 1354SOL    HW2 5960   8.715   2.932   7.392
 1355SOL     OW 5961   8.593  13.159   3.868
 1355SOL    HW1 5962   8.554  13.096   3.929
 1355SOL    HW2 5963   8.541  13.239   3.879
 1356SOL     OW 5964   5.639   3.172   3.673
 1356SOL    HW1 5965   5.614   3.265   3.671
 1356SOL    HW2 5966   5.709   3.169   3.739
 1357SOL     OW 5967  11.724  11.744   8.840
 1357SOL    HW1 5968  11.651  11.698   8.880
 1357SOL    HW2 5969  11.707  11.737   8.746
 1358SOL     OW 5970   8.355   4.079  14.643
 1358SOL    HW1 5971   8.276   4.047  14.687
 1358SOL    HW2 5972   8.332   4.168  14.616
 1359SOL     OW 5973  11.373   0.724  14.564
 1359SOL    HW1 5974  11.393   0.817  14.556
 1359SOL    HW2 5975  11.280   0.722  14.586
 1360SOL     OW 5976  14.421   8.322  13.581
 1360SOL    HW1 5977  14.448   8.334  13.672
 1360SOL    HW2 5978  14.443   8.231  13.561
 1361SOL     OW 5979   8.543  14.500  13.843
 1361SOL    HW1 5980   8.559  14.408  13.826
 1361SOL    HW2 5981   8.457  14.517  13.804
 1362SOL     OW 5982  12.319  13.948   2.069
 1362SOL    HW1 5983  12.407  13.956   2.032
 1362SOL    HW2 5984  12.274  14.028   2.041
 1363SOL     OW 5985   2.036  11.938   1.719
 1363SOL    HW1 5986   1.968  11.903   1.776
 1363SOL    HW2 5987   1.992  11.950   1.635
 1364SOL     OW 5988   2.247   2.108   0.560
 1364SOL    HW1 5989   2.283   2.086   0.646
 1364SOL    HW2 5990   2.268   2.033   0.505
 1365SOL     OW 5991  13.830   8.605   0.727
 1365SOL    HW1 5992  13.799   8.687   0.764
 1365SOL    HW2 5993  13.882   8.630   0.651
 1366SOL     OW 5994   0.907   3.025   3.751
 1366SOL    HW1 5995   0.899   3.062   3.663
 1366SOL    HW2 5996   0.928   2.933   3.736
 1367SOL     OW 5997   6.522   0.586   5.457
 1367SOL    HW1 5998   6.495   0.634   5.536
 1367SOL    HW2 5999   6.602   0.630   5.429
 1368SOL     OW 6000   5.128   4.015   5.433
 1368SOL    HW1 6001   5.144   4.036   5.525
 1368SOL    HW2 6002   5.098   3.924   5.433
 1369SOL     OW 6003   3.546   4.192   7.006
 1369SOL    HW1 6004   3.454   4.212   7.024
 1369SOL    HW2 6005   3.594   4.266   7.042
 1370SOL     OW 6006   1.343   7.955   4.381
 1370SOL    HW1 6007   1.298   8.039   4.384
 1370SOL    HW2 6008   1.426   7.970   4.425
 1371SOL     OW 6009   5.137   4.664  12.952
 1371SOL    HW1 6010   5.231   4.681  12.944
 1371SOL    HW2 6011   5.098   4.709  12.877
 1372SOL     OW 6012   3.161  14.863   4.521
 1372SOL    HW1 6013   3.202   0.062   4.556
 1372SOL    HW2 6014   3.177  14.866   4.427
 1373SOL     OW 6015  12.948   3.946   1.002
 1373SOL    HW1 6016  12.935   3.917   0.912
 1373SOL    HW2 6017  12.859   3.965   1.034
 1374SOL     OW 6018   4.275  13.134  12.688
 1374SOL    HW1 6019   4.264  13.149  12.595
 1374SOL    HW2 6020   4.362  13.094  12.696
 1375SOL     OW 6021  12.898  12.883   2.229
 1375SOL    HW1 6022  12.894  12.915   2.139
 1375SOL    HW2 6023  12.806  12.879   2.257
 1376SOL     OW 6024   4.292  11.373   5.468
 1376SOL    HW1 6025   4.314  11.459   5.502
 1376SOL    HW2 6026   4.241  11.391   5.389
 1377SOL     OW 6027  14.835  13.613   3.012
 1377SOL    HW1 6028  14.773  13.586   2.944
 1377SOL    HW2 6029  14.843  13.707   3.001
 1378SOL     OW 6030   3.682  11.518   2.622
 1378SOL    HW1 6031   3.615  11.454   2.598
 1378SOL    HW2 6032   3.647  11.560   2.701
 1379SOL     OW 6033  14.251  10.026   7.584
 1379SOL    HW1 6034  14.246  10.046   7.678
 1379SOL    HW2 6035  14.343  10.003   7.570
 1380SOL     OW 6036   0.619   7.768  13.376
 1380SOL    HW1 6037   0.636   7.780  13.469
 1380SOL    HW2 6038   0.549   7.830  13.356
 1381SOL     OW 6039   9.761   4.960   0.977
 1381SOL    HW1 6040   9.692   4.952   1.043
 1381SOL    HW2 6041   9.783   5.053   0.976
 1382SOL     OW 6042   2.021  14.730   1.026
 1382SOL    HW1 6043   2.065  14.804   1.067
 1382SOL    HW2 6044   2.010  14.666   1.096
 1383SOL     OW 6045  13.080   8.162   6.641
 1383SOL    HW1 6046  13.044   8.246   6.670
 1383SOL    HW2 6047  13.061   8.102   6.713
 1384SOL     OW 6048   2.876   4.197   1.225
 1384SOL    HW1 6049   2.870   4.129   1.158
 1384SOL    HW2 6050   2.947   4.255   1.195
 1385SOL     OW 6051  12.917   0.465   2.043
 1385SOL    HW1 6052  12.859   0.530   2.083
 1385SOL    HW2 6053  12.868   0.383   2.046
 1386SOL     OW 6054   8.409  12.524   1.657
 1386SOL    HW1 6055   8.411  12.610   1.699
 1386SOL    HW2 6056   8.352  12.535   1.581
 1387SOL     OW 6057   6.600   4.355  11.029
 1387SOL    HW1 6058   6.564   4.385  11.112
 1387SOL    HW2 6059   6.664   4.422  11.004
 1388SOL     OW 6060  11.746   9.444   2.889
 1388SOL    HW1 6061  11.766   9.434   2.796
 1388SOL    HW2 6062  11.664   9.493   2.891
 1389SOL     OW 6063   8.865   4.375   4.682
 1389SOL    HW1 6064   8.855   4.460   4.639
 1389SOL    HW2 6065   8.825   4.312   4.621
 1390SOL     OW 6066   6.079   9.513   4.097
 1390SOL    HW1 6067   6.174   9.508   4.093
 1390SOL    HW2 6068   6.049   9.475   4.014
 1391SOL     OW 6069   6.297  13.145   8.576
 1391SOL    HW1 6070   6.251  13.076   8.625
 1391SOL    HW2 6071   6.365  13.099   8.527
 1392SOL     OW 6072   5.895   2.403   5.699
 1392SOL    HW1 6073   5.851   2.328   5.738
 1392SOL    HW2 6074   5.945   2.442   5.771
 1393SOL     OW 6075   6.306   3.218  11.800
 1393SOL    HW1 6076   6.344   3.140  11.840
 1393SOL    HW2 6077   6.377   3.256  11.748
 1394SOL     OW 6078  10.785  10.790   9.905
 1394SOL    HW1 6079  10.719  10.836   9.854
 1394SOL    HW2 6080  10.812  10.717   9.849
 1395SOL     OW 6081  12.721   8.846   4.832
 1395SOL    HW1 6082  12.772   8.779   4.878
 1395SOL    HW2 6083  12.782   8.882   4.768
 1396SOL     OW 6084   6.154   6.492   8.985
 1396SOL    HW1 6085   6.136   6.516   9.076
 1396SOL    HW2 6086   6.206   6.411   8.991
 1397SOL     OW 6087  12.106   0.412   8.355
 1397SOL    HW1 6088  12.165   0.479   8.388
 1397SOL    HW2 6089  12.135   0.331   8.397
 1398SOL     OW 6090   7.120   4.322   8.062
 1398SOL    HW1 6091   7.206   4.330   8.102
 1398SOL    HW2 6092   7.065   4.384   8.110
 1399SOL     OW 6093  14.307   5.170   5.418
 1399SOL    HW1 6094  14.332   5.197   5.329
 1399SOL    HW2 6095  14.373   5.210   5.474
 1400SOL     OW 6096   7.825  14.206   9.643
 1400SOL    HW1 6097   7.796  14.116   9.656
 1400SOL    HW2 6098   7.747  14.251   9.609
 1401SOL     OW 6099  14.798  14.550  12.583
 1401SOL    HW1 6100  14.771  14.593  12.664
 1401SOL    HW2 6101  14.790  14.618  12.516
 1402SOL     OW 6102  11.816   4.969   5.121
 1402SOL    HW1 6103  11.874   5.013   5.058
 1402SOL    HW2 6104  11.845   5.001   5.206
 1403SOL     OW 6105  14.085   4.027   1.740
 1403SOL    HW1 6106  13.991   4.021   1.720
 1403SOL    HW2 6107  14.100   3.962   1.808
 1404SOL     OW 6108  10.804   9.723   5.824
 1404SOL    HW1 6109  10.787   9.804   5.775
 1404SOL    HW2 6110  10.745   9.729   5.900
 1405SOL     OW 6111   3.982   0.432   8.662
 1405SOL    HW1 6112   4.014   0.522   8.669
 1405SOL    HW2 6113   4.020   0.387   8.738
 1406SOL     OW 6114   3.149  10.750   3.269
 1406SOL    HW1 6115   3.147  10.827   3.213
 1406SOL    HW2 6116   3.213  10.692   3.228
 1407SOL     OW 6117   5.899   7.666  14.184
 1407SOL    HW1 6118   5.827   7.718  14.220
 1407SOL    HW2 6119   5.905   7.695  14.092
 1408SOL     OW 6120   6.937   5.762   5.458
 1408SOL    HW1 6121   6.907   5.673   5.477
 1408SOL    HW2 6122   6.890   5.817   5.521
 1409SOL     OW 6123   4.645   3.459  14.248
 1409SOL    HW1 6124   4.723   3.419  14.288
 1409SOL    HW2 6125   4.593   3.489  14.323
 1410SOL     OW 6126   0.066   0.245  14.824
 1410SOL    HW1 6127   0.121   0.191  14.880
 1410SOL    HW2 6128   0.055   0.327  14.871
 1411SOL     OW 6129  10.606   4.936   4.025
 1411SOL    HW1 6130  10.637   4.900   4.108
 1411SOL    HW2 6131  10.686   4.966   3.981
 1412SOL     OW 6132  11.791  11.934   0.209
 1412SOL    HW1 6133  11.772  12.028   0.203
 1412SOL    HW2 6134  11.788  11.904   0.118
 1413SOL     OW 6135  12.186  13.316   8.097
 1413SOL    HW1 6136  12.262  13.359   8.058
 1413SOL    HW2 6137  12.115  13.379   8.088
 1414SOL     OW 6138   7.081   9.513  14.751
 1414SOL    HW1 6139   7.044   9.448  14.811
 1414SOL    HW2 6140   7.117   9.462  14.678
 1415SOL     OW 6141   3.346   1.149   4.466
 1415SOL    HW1 6142   3.259   1.185   4.447
 1415SOL    HW2 6143   3.387   1.137   4.380
 1416SOL     OW 6144   8.214  13.208  12.511
 1416SOL    HW1 6145   8.215  13.203  12.416
 1416SOL    HW2 6146   8.264  13.131  12.540
 1417SOL     OW 6147   5.199   4.256   8.448
 1417SOL    HW1 6148   5.131   4.240   8.384
 1417SOL    HW2 6149   5.162   4.227   8.531
 1418SOL     OW 6150  11.917   8.282  10.226
 1418SOL    HW1 6151  11.875   8.309  10.144
 1418SOL    HW2 6152  11.860   8.214  10.261
 1419SOL     OW 6153   0.378   0.551   7.223
 1419SOL    HW1 6154   0.468   0.559   7.257
 1419SOL    HW2 6155   0.379   0.603   7.143
 1420SOL     OW 6156   7.974   9.829  13.723
 1420SOL    HW1 6157   7.898   9.773  13.707
 1420SOL    HW2 6158   8.048   9.769  13.727
 1421SOL     OW 6159   7.847   9.798  12.868
 1421SOL    HW1 6160   7.833   9.703  12.863
 1421SOL    HW2 6161   7.932   9.808  12.910
 1422SOL     OW 6162   3.156   2.779   9.536
 1422SOL    HW1 6163   3.163   2.758   9.443
 1422SOL    HW2 6164   3.209   2.712   9.580
 1423SOL     OW 6165   1.713  12.880  12.339
 1423SOL    HW1 6166   1.664  12.840  12.411
 1423SOL    HW2 6167   1.651  12.939  12.297
 1424SOL     OW 6168  14.537  12.841   6.128
 1424SOL    HW1 6169  14.525  12.810   6.217
 1424SOL    HW2 6170  14.483  12.782   6.075
 1425SOL     OW 6171  13.544  14.192   1.606
 1425SOL    HW1 6172  13.536  14.193   1.702
 1425SOL    HW2 6173  13.627  14.238   1.589
 1426SOL     OW 6174   1.699   1.534  12.134
 1426SOL    HW1 6175   1.684   1.608  12.193
 1426SOL    HW2 6176   1.635   1.546  12.064
 1427SOL     OW 6177   0.024  12.119   7.706
 1427SOL    HW1 6178  14.858  12.202   7.697
 1427SOL    HW2 6179   0.111  12.144   7.737
 1428SOL     OW 6180  10.233   6.249   8.514
 1428SOL    HW1 6181  10.276   6.324   8.471
 1428SOL    HW2 6182  10.235   6.180   8.448
 1429SOL     OW 6183   7.587   3.161  14.376
 1429SOL    HW1 6184   7.586   3.152  14.471
 1429SOL    HW2 6185   7.513   3.109  14.346
 1430SOL     OW 6186   9.762   5.135   9.574
 1430SOL    HW1 6187   9.797   5.216   9.538
 1430SOL    HW2 6188   9.677   5.125   9.533
 1431SOL     OW 6189   8.409   2.880  10.205
 1431SOL    HW1 6190   8.313   2.880  10.207
 1431SOL    HW2 6191   8.432   2.963  10.164
 1432SOL     OW 6192  14.834  10.028   9.875
 1432SOL    HW1 6193  14.854  10.068   9.791
 1432SOL    HW2 6194   0.011   9.951   9.879
 1433SOL     OW 6195   4.531   6.025   2.196
 1433SOL    HW1 6196   4.620   5.999   2.173
 1433SOL    HW2 6197   4.530   6.120   2.184
 1434SOL     OW 6198   6.828  11.429   3.913
 1434SOL    HW1 6199   6.842  11.379   3.832
 1434SOL    HW2 6200   6.737  11.458   3.907
 1435SOL     OW 6201   1.767   3.804   9.690
 1435SOL    HW1 6202   1.760   3.877   9.752
 1435SOL    HW2 6203   1.859   3.781   9.690
 1436SOL     OW 6204   1.951   2.906   0.350
 1436SOL    HW1 6205   2.037   2.882   0.385
 1436SOL    HW2 6206   1.940   2.849   0.274
 1437SOL     OW 6207   7.845  12.568   5.153
 1437SOL    HW1 6208   7.839  12.562   5.248
 1437SOL    HW2 6209   7.931  12.532   5.132
 1438SOL     OW 6210   0.758   9.850  14.013
 1438SOL    HW1 6211   0.786   9.881  13.927
 1438SOL    HW2 6212   0.761   9.755  14.007
 1439SOL     OW 6213  10.770   9.546  10.695
 1439SOL    HW1 6214  10.753   9.638  10.716
 1439SOL    HW2 6215  10.865   9.540  10.692
 1440SOL     OW 6216  11.034  10.859   9.211
 1440SOL    HW1 6217  11.105  10.911   9.248
 1440SOL    HW2 6218  11.041  10.775   9.256
 1441SOL     OW 6219  12.478   9.874   2.580
 1441SOL    HW1 6220  12.544   9.940   2.558
 1441SOL    HW2 6221  12.453   9.896   2.670
 1442SOL     OW 6222   0.878   5.077   8.346
 1442SOL    HW1 6223   0.943   5.079   8.417
 1442SOL    HW2 6224   0.894   4.993   8.302
 1443SOL     OW 6225   6.055  13.243   1.868
 1443SOL    HW1 6226   6.078  13.282   1.952
 1443SOL    HW2 6227   6.137  13.241   1.819
 1444SOL     OW 6228  14.243   5.665  12.601
 1444SOL    HW1 6229  14.205   5.651  12.687
 1444SOL    HW2 6230  14.175   5.710  12.551
 1445SOL     OW 6231   1.214  12.678   1.556
 1445SOL    HW1 6232   1.252  12.734   1.488
 1445SOL    HW2 6233   1.121  12.699   1.555
 1446SOL     OW 6234  12.150   8.367   6.503
 1446SOL    HW1 6235  12.074   8.422   6.525
 1446SOL    HW2 6236  12.155   8.369   6.408
 1447SOL     OW 6237   3.702  10.256   7.248
 1447SOL    HW1 6238   3.612  10.289   7.248
 1447SOL    HW2 6239   3.708  10.202   7.327
 1448SOL     OW 6240   3.265   1.025   5.026
 1448SOL    HW1 6241   3.325   0.967   4.980
 1448SOL    HW2 6242   3.267   1.107   4.975
 1449SOL     OW 6243   3.550   9.293   1.027
 1449SOL    HW1 6244   3.624   9.314   0.970
 1449SOL    HW2 6245   3.475   9.337   0.986
 1450SOL     OW 6246   2.565  13.633   9.390
 1450SOL    HW1 6247   2.499  13.696   9.361
 1450SOL    HW2 6248   2.576  13.652   9.483
 1451SOL     OW 6249   4.112  13.662  13.812
 1451SOL    HW1 6250   4.201  13.697  13.813
 1451SOL    HW2 6251   4.064  13.718  13.752
 1452SOL     OW 6252   2.320   6.787  10.740
 1452SOL    HW1 6253   2.283   6.827  10.661
 1452SOL    HW2 6254   2.275   6.703  10.748
 1453SOL     OW 6255   3.567  13.466  14.812
 1453SOL    HW1 6256   3.652  13.510  14.819
 1453SOL    HW2 6257   3.504  13.537  14.798
 1454SOL     OW 6258   4.941  12.435  14.650
 1454SOL    HW1 6259   5.003  12.394  14.591
 1454SOL    HW2 6260   4.925  12.369  14.718
 1455SOL     OW 6261  10.800   7.419   7.645
 1455SOL    HW1 6262  10.723   7.378   7.684
 1455SOL    HW2 6263  10.813   7.373   7.562
 1456SOL     OW 6264   9.871   0.578   4.207
 1456SOL    HW1 6265   9.948   0.548   4.159
 1456SOL    HW2 6266   9.838   0.500   4.251
 1457SOL     OW 6267  12.947  10.810  10.917
 1457SOL    HW1 6268  13.038  10.815  10.945
 1457SOL    HW2 6269  12.896  10.816  10.998
 1458SOL     OW 6270  11.284   7.048   8.965
 1458SOL    HW1 6271  11.202   7.085   8.999
 1458SOL    HW2 6272  11.353   7.100   9.008
 1459SOL     OW 6273   7.579   8.179  14.416
 1459SOL    HW1 6274   7.489   8.154  14.400
 1459SOL    HW2 6275   7.609   8.119  14.485
 1460SOL     OW 6276   8.317  13.689   0.206
 1460SOL    HW1 6277   8.300  13.772   0.162
 1460SOL    HW2 6278   8.323  13.713   0.299
 1461SOL     OW 6279   1.903   1.279   1.662
 1461SOL    HW1 6280   1.904   1.353   1.722
 1461SOL    HW2 6281   1.840   1.217   1.701
 1462SOL     OW 6282  11.468   1.748   9.482
 1462SOL    HW1 6283  11.433   1.837   9.480
 1462SOL    HW2 6284  11.413   1.699   9.421
 1463SOL     OW 6285  13.691  14.529  13.618
 1463SOL    HW1 6286  13.752  14.560  13.551
 1463SOL    HW2 6287  13.676  14.437  13.596
 1464SOL     OW 6288  13.817   2.329   3.191
 1464SOL    HW1 6289  13.857   2.306   3.275
 1464SOL    HW2 6290  13.791   2.420   3.200
 1465SOL     OW 6291   8.484   7.854   2.895
 1465SOL    HW1 6292   8.564   7.895   2.926
 1465SOL    HW2 6293   8.432   7.839   2.974
 1466SOL     OW 6294  11.793   4.085   5.010
 1466SOL    HW1 6295  11.758   4.083   4.921
 1466SOL    HW2 6296  11.758   4.166   5.047
 1467SOL     OW 6297   6.737   0.085   8.225
 1467SOL    HW1 6298   6.826   0.050   8.214
 1467SOL    HW2 6299   6.726   0.144   8.150
 1468SOL     OW 6300  11.483   4.103   8.283
 1468SOL    HW1 6301  11.432   4.171   8.239
 1468SOL    HW2 6302  11.517   4.048   8.212
 1469SOL     OW 6303  13.465   2.736   9.059
 1469SOL    HW1 6304  13.555   2.729   9.027
 1469SOL    HW2 6305  13.474   2.739   9.154
 1470SOL     OW 6306   2.902  10.282   2.003
 1470SOL    HW1 6307   2.932  10.197   1.971
 1470SOL    HW2 6308   2.880  10.266   2.095
 1471SOL     OW 6309   8.703   9.253   7.633
 1471SOL    HW1 6310   8.789   9.282   7.604
 1471SOL    HW2 6311   8.664   9.212   7.555
 1472SOL     OW 6312   4.904   7.855   6.419
 1472SOL    HW1 6313   4.831   7.849   6.481
 1472SOL    HW2 6314   4.982   7.846   6.474
 1473SOL     OW 6315   4.982   8.943  10.827
 1473SOL    HW1 6316   4.926   8.963  10.752
 1473SOL    HW2 6317   4.924   8.949  10.903
 1474SOL     OW 6318   9.763   2.418   8.919
 1474SOL    HW1 6319   9.718   2.500   8.939
 1474SOL    HW2 6320   9.842   2.420   8.974
 1475SOL     OW 6321   1.870   6.668   5.831
 1475SOL    HW1 6322   1.840   6.759   5.840
 1475SOL    HW2 6323   1.864   6.632   5.919
 1476SOL     OW 6324  14.503   8.118  11.013
 1476SOL    HW1 6325  14.477   8.102  10.923
 1476SOL    HW2 6326  14.495   8.033  11.056
 1477SOL     OW 6327   2.236   1.092   9.903
 1477SOL    HW1 6328   2.318   1.045   9.884
 1477SOL    HW2 6329   2.167   1.026   9.890
 1478SOL     OW 6330   7.072   0.975   8.591
 1478SOL    HW1 6331   7.142   0.931   8.639
 1478SOL    HW2 6332   6.998   0.976   8.652
 1479SOL     OW 6333   9.344   3.546  13.459
 1479SOL    HW1 6334   9.256   3.511  13.471
 1479SOL    HW2 6335   9.366   3.583  13.545
 1480SOL     OW 6336   9.663   9.219   1.110
 1480SOL    HW1 6337   9.625   9.279   1.175
 1480SOL    HW2 6338   9.685   9.141   1.160
 1481SOL     OW 6339   8.925  12.317  11.848
 1481SOL    HW1 6340   8.950  12.228  11.875
 1481SOL    HW2 6341   8.853  12.304  11.786
 1482SOL     OW 6342   3.951  12.050   7.532
 1482SOL    HW1 6343   3.934  12.019   7.621
 1482SOL    HW2 6344   3.978  12.141   7.543
 1483SOL     OW 6345   3.382  12.393   1.797
 1483SOL    HW1 6346   3.348  12.443   1.871
 1483SOL    HW2 6347   3.442  12.453   1.752
 1484SOL     OW 6348   9.497   3.190  13.287
 1484SOL    HW1 6349   9.532   3.269  13.247
 1484SOL    HW2 6350   9.545   3.181  13.370
 1485SOL     OW 6351   6.191  12.295   4.048
 1485SOL    HW1 6352   6.126  12.284   3.978
 1485SOL    HW2 6353   6.208  12.206   4.079
 1486SOL     OW 6354  12.651   3.855   5.865
 1486SOL    HW1 6355  12.592   3.853   5.790
 1486SOL    HW2 6356  12.738   3.862   5.826
 1487SOL     OW 6357   9.132   7.220   7.346
 1487SOL    HW1 6358   9.062   7.284   7.343
 1487SOL    HW2 6359   9.188   7.249   7.419
 1488SOL     OW 6360  11.731  10.888  10.991
 1488SOL    HW1 6361  11.657  10.847  10.946
 1488SOL    HW2 6362  11.707  10.980  10.997
 1489SOL     OW 6363  12.526   9.559  10.036
 1489SOL    HW1 6364  12.489   9.590  10.119
 1489SOL    HW2 6365  12.454   9.567   9.973
 1490SOL     OW 6366  12.555   3.961   6.089
 1490SOL    HW1 6367  12.460   3.956   6.087
 1490SOL    HW2 6368  12.581   3.957   5.997
 1491SOL     OW 6369   2.366   3.657  11.476
 1491SOL    HW1 6370   2.394   3.571  11.507
 1491SOL    HW2 6371   2.384   3.655  11.382
 1492SOL     OW 6372   0.557  10.054   5.940
 1492SOL    HW1 6373   0.510  10.134   5.966
 1492SOL    HW2 6374   0.648  10.072   5.960
 1493SOL     OW 6375  13.948   4.856   7.097
 1493SOL    HW1 6376  13.909   4.792   7.157
 1493SOL    HW2 6377  13.912   4.940   7.126
 1494SOL     OW 6378   1.913   8.933  13.357
 1494SOL    HW1 6379   1.854   8.867  13.320
 1494SOL    HW2 6380   2.001   8.900  13.338
 1495SOL     OW 6381   9.888   7.665  13.203
 1495SOL    HW1 6382   9.871   7.757  13.182
 1495SOL    HW2 6383   9.982   7.660  13.218
 1496SOL     OW 6384   6.601  11.684  11.193
 1496SOL    HW1 6385   6.546  11.753  11.229
 1496SOL    HW2 6386   6.565  11.603  11.227
 1497SOL     OW 6387   4.981   7.127  11.313
 1497SOL    HW1 6388   5.014   7.216  11.304
 1497SOL    HW2 6389   4.924   7.114  11.237
 1498SOL     OW 6390   1.939   0.383   5.043
 1498SOL    HW1 6391   1.854   0.412   5.075
 1498SOL    HW2 6392   1.972   0.457   4.992
 1499SOL     OW 6393   5.090   1.632   3.764
 1499SOL    HW1 6394   5.114   1.543   3.736
 1499SOL    HW2 6395   5.164   1.686   3.737
 1500SOL     OW 6396   4.454   1.008   3.928
 1500SOL    HW1 6397   4.416   1.070   3.866
 1500SOL    HW2 6398   4.491   1.062   3.997
 1501SOL     OW 6399   1.323   3.865   0.669
 1501SOL    HW1 6400   1.381   3.940   0.658
 1501SOL    HW2 6401   1.258   3.893   0.734
 1502SOL     OW 6402  10.039   4.289  10.102
 1502SOL    HW1 6403  10.132   4.270  10.093
 1502SOL    HW2 6404   9.998   4.203  10.115
 1503SOL     OW 6405  10.427   8.967   1.432
 1503SOL    HW1 6406  10.459   9.057   1.420
 1503SOL    HW2 6407  10.465   8.939   1.516
 1504SOL     OW 6408   1.898   7.996  10.479
 1504SOL    HW1 6409   1.937   8.053  10.545
 1504SOL    HW2 6410   1.818   8.041  10.453
 1505SOL     OW 6411  10.185   5.491   1.163
 1505SOL    HW1 6412  10.091   5.487   1.178
 1505SOL    HW2 6413  10.212   5.572   1.207
 1506SOL     OW 6414  14.557   3.793  14.588
 1506SOL    HW1 6415  14.466   3.780  14.562
 1506SOL    HW2 6416  14.599   3.834  14.513
 1507SOL     OW 6417   3.777   7.191   5.573
 1507SOL    HW1 6418   3.732   7.153   5.498
 1507SOL    HW2 6419   3.851   7.238   5.536
 1508SOL     OW 6420   9.790   2.624   6.773
 1508SOL    HW1 6421   9.858   2.668   6.825
 1508SOL    HW2 6422   9.733   2.695   6.744
 1509SOL     OW 6423   3.761  12.906  13.780
 1509SOL    HW1 6424   3.711  12.967  13.727
 1509SOL    HW2 6425   3.695  12.855  13.827
 1510SOL     OW 6426   9.678   4.786   9.695
 1510SOL    HW1 6427   9.634   4.701   9.694
 1510SOL    HW2 6428   9.608   4.850   9.683
 1511SOL     OW 6429   9.244  14.819   1.579
 1511SOL    HW1 6430   9.330  14.827   1.620
 1511SOL    HW2 6431   9.193  14.767   1.642
 1512SOL     OW 6432  11.720  12.127  13.442
 1512SOL    HW1 6433  11.633  12.162  13.424
 1512SOL    HW2 6434  11.729  12.052  13.383
 1513SOL     OW 6435  12.994  10.194   9.070
 1513SOL    HW1 6436  12.923  10.198   9.006
 1513SOL    HW2 6437  13.050  10.269   9.049
 1514SOL     OW 6438  12.199   4.750   0.007
 1514SOL    HW1 6439  12.269   4.760  14.823
 1514SOL    HW2 6440  12.225   4.807   0.080
 1515SOL     OW 6441   7.099   5.482   4.685
 1515SOL    HW1 6442   7.122   5.536   4.760
 1515SOL    HW2 6443   7.069   5.400   4.723
 1516SOL     OW 6444  13.845   8.652   4.692
 1516SOL    HW1 6445  13.836   8.727   4.633
 1516SOL    HW2 6446  13.761   8.648   4.738
 1517SOL     OW 6447   9.465   1.882  10.094
 1517SOL    HW1 6448   9.540   1.846  10.140
 1517SOL    HW2 6449   9.458   1.828  10.015
 1518SOL     OW 6450   9.419  14.780   2.151
 1518SOL    HW1 6451   9.339  14.814   2.189
 1518SOL    HW2 6452   9.489  14.834   2.189
 1519SOL     OW 6453  13.161   4.365  12.586
 1519SOL    HW1 6454  13.092   4.414  12.631
 1519SOL    HW2 6455  13.182   4.293  12.645
 1520SOL     OW 6456  12.787   5.542  11.245
 1520SOL    HW1 6457  12.794   5.450  11.272
 1520SOL    HW2 6458  12.731   5.582  11.311
 1521SOL     OW 6459   8.032   2.903   2.384
 1521SOL    HW1 6460   7.945   2.867   2.399
 1521SOL    HW2 6461   8.057   2.872   2.298
 1522SOL     OW 6462   8.618   4.099   3.740
 1522SOL    HW1 6463   8.663   4.154   3.804
 1522SOL    HW2 6464   8.530   4.087   3.777
 1523SOL     OW 6465   5.538  11.180   4.912
 1523SOL    HW1 6466   5.554  11.086   4.914
 1523SOL    HW2 6467   5.623  11.220   4.933
 1524SOL     OW 6468   7.774   0.999   3.242
 1524SOL    HW1 6469   7.776   0.938   3.316
 1524SOL    HW2 6470   7.858   0.984   3.198
 1525SOL     OW 6471  13.487   3.456   8.587
 1525SOL    HW1 6472  13.491   3.475   8.494
 1525SOL    HW2 6473  13.412   3.396   8.596
 1526SOL     OW 6474  12.885   3.819   5.029
 1526SOL    HW1 6475  12.864   3.905   5.064
 1526SOL    HW2 6476  12.981   3.813   5.035
 1527SOL     OW 6477   7.566   0.730  13.737
 1527SOL    HW1 6478   7.557   0.635  13.752
 1527SOL    HW2 6479   7.560   0.739  13.642
 1528SOL     OW 6480   0.361  10.871  11.487
 1528SOL    HW1 6481   0.292  10.886  11.552
 1528SOL    HW2 6482   0.321  10.895  11.404
 1529SOL     OW 6483   2.024   8.938   7.510
 1529SOL    HW1 6484   1.994   8.878   7.441
 1529SOL    HW2 6485   1.943   8.979   7.541
 1530SOL     OW 6486  14.060   4.668  11.016
 1530SOL    HW1 6487  14.113   4.680  10.937
 1530SOL    HW2 6488  14.044   4.573  11.020
 1531SOL     OW 6489   7.394   6.917  10.730
 1531SOL    HW1 6490   7.399   6.826  10.701
 1531SOL    HW2 6491   7.336   6.915  10.807
 1532SOL     OW 6492  10.229  13.595   8.174
 1532SOL    HW1 6493  10.296  13.596   8.243
 1532SOL    HW2 6494  10.272  13.551   8.100
 1533SOL     OW 6495  11.005  13.259   3.519
 1533SOL    HW1 6496  10.986  13.165   3.521
 1533SOL    HW2 6497  10.979  13.288   3.432
 1534SOL     OW 6498   0.595  13.556   1.573
 1534SOL    HW1 6499   0.626  13.611   1.501
 1534SOL    HW2 6500   0.537  13.492   1.532
 1535SOL     OW 6501   7.051   5.309  13.512
 1535SOL    HW1 6502   7.139   5.298  13.475
 1535SOL    HW2 6503   7.034   5.402  13.504
 1536SOL     OW 6504   2.602  10.355   3.120
 1536SOL    HW1 6505   2.598  10.397   3.206
 1536SOL    HW2 6506   2.682  10.390   3.080
 1537SOL     OW 6507   0.140   2.168   1.107
 1537SOL    HW1 6508   0.047   2.187   1.093
 1537SOL    HW2 6509   0.182   2.186   1.023
 1538SOL     OW 6510   6.436  11.179   4.909
 1538SOL    HW1 6511   6.368  11.164   4.843
 1538SOL    HW2 6512   6.516  11.191   4.859
 1539SOL     OW 6513  11.139   4.400  10.642
 1539SOL    HW1 6514  11.226   4.364  10.662
 1539SOL    HW2 6515  11.129   4.386  10.548
 1540SOL     OW 6516   7.796   9.209   4.465
 1540SOL    HW1 6517   7.729   9.248   4.521
 1540SOL    HW2 6518   7.760   9.215   4.377
 1541SOL     OW 6519   2.407  14.301   2.022
 1541SOL    HW1 6520   2.381  14.230   1.964
 1541SOL    HW2 6521   2.502  14.297   2.025
 1542SOL     OW 6522  12.276   7.949  14.478
 1542SOL    HW1 6523  12.238   7.959  14.565
 1542SOL    HW2 6524  12.203   7.917  14.424
 1543SOL     OW 6525   8.498  14.845   5.445
 1543SOL    HW1 6526   8.439  14.817   5.515
 1543SOL    HW2 6527   8.577  14.875   5.490
 1544SOL     OW 6528   6.332   9.843   5.780
 1544SOL    HW1 6529   6.253   9.871   5.732
 1544SOL    HW2 6530   6.404   9.886   5.735
 1545SOL     OW 6531  12.460   1.833   9.354
 1545SOL    HW1 6532  12.545   1.857   9.389
 1545SOL    HW2 6533  12.479   1.793   9.269
 1546SOL     OW 6534  11.735  11.013   0.000
 1546SOL    HW1 6535  11.752  10.945   0.066
 1546SOL    HW2 6536  11.811  11.070   0.005
 1547SOL     OW 6537   2.954  12.619   9.882
 1547SOL    HW1 6538   3.000  12.691   9.925
 1547SOL    HW2 6539   3.006  12.541   9.902
 1548SOL     OW 6540  13.316   6.611  12.263
 1548SOL    HW1 6541  13.299   6.626  12.170
 1548SOL    HW2 6542  13.367   6.530  12.264
 1549SOL     OW 6543   9.256   3.896   8.776
 1549SOL    HW1 6544   9.342   3.868   8.746
 1549SOL    HW2 6545   9.199   3.822   8.757
 1550SOL     OW 6546   4.017   1.122   5.364
 1550SOL    HW1 6547   4.025   1.065   5.288
 1550SOL    HW2 6548   3.996   1.208   5.328
 1551SOL     OW 6549   5.915  13.891   5.202
 1551SOL    HW1 6550   5.952  13.848   5.125
 1551SOL    HW2 6551   5.907  13.821   5.267
 1552SOL     OW 6552  10.318  13.633   3.093
 1552SOL    HW1 6553  10.375  13.568   3.052
 1552SOL    HW2 6554  10.259  13.661   3.023
 1553SOL     OW 6555   5.759  11.714   1.850
 1553SOL    HW1 6556   5.838  11.761   1.877
 1553SOL    HW2 6557   5.688  11.777   1.862
 1554SOL     OW 6558   9.552  13.169   3.539
 1554SOL    HW1 6559   9.479  13.157   3.600
 1554SOL    HW2 6560   9.510  13.198   3.458
 1555SOL     OW 6561  12.579  12.769   7.531
 1555SOL    HW1 6562  12.599  12.845   7.476
 1555SOL    HW2 6563  12.502  12.730   7.491
 1556SOL     OW 6564   4.789   3.772  13.226
 1556SOL    HW1 6565   4.752   3.854  13.194
 1556SOL    HW2 6566   4.722   3.706  13.208
 1557SOL     OW 6567  11.924   9.927   8.387
 1557SOL    HW1 6568  11.869   9.991   8.342
 1557SOL    HW2 6569  12.008   9.971   8.397
 1558SOL     OW 6570   4.805   5.439   7.193
 1558SOL    HW1 6571   4.846   5.463   7.276
 1558SOL    HW2 6572   4.776   5.522   7.156
 1559SOL     OW 6573   9.387   1.640  11.518
 1559SOL    HW1 6574   9.452   1.571  11.534
 1559SOL    HW2 6575   9.319   1.624  11.584
 1560SOL     OW 6576   9.921  10.775   7.357
 1560SOL    HW1 6577   9.937  10.794   7.264
 1560SOL    HW2 6578  10.004  10.799   7.400
 1561SOL     OW 6579   5.725  12.728   7.975
 1561SOL    HW1 6580   5.725  12.648   8.028
 1561SOL    HW2 6581   5.645  12.774   8.001
 1562SOL     OW 6582   5.174  12.746   2.782
 1562SOL    HW1 6583   5.145  12.757   2.872
 1562SOL    HW2 6584   5.235  12.672   2.785
 1563SOL     OW 6585   9.682   4.606   7.433
 1563SOL    HW1 6586   9.689   4.609   7.337
 1563SOL    HW2 6587   9.624   4.533   7.451
 1564SOL     OW 6588   4.158   8.123   6.977
 1564SOL    HW1 6589   4.147   8.030   6.956
 1564SOL    HW2 6590   4.089   8.141   7.041
 1565SOL     OW 6591   6.711   5.992   2.301
 1565SOL    HW1 6592   6.649   6.004   2.374
 1565SOL    HW2 6593   6.692   6.064   2.242
 1566SOL     OW 6594   9.518   4.207  14.042
 1566SOL    HW1 6595   9.442   4.229  14.097
 1566SOL    HW2 6596   9.494   4.238  13.955
 1567SOL     OW 6597  13.348   3.707   6.684
 1567SOL    HW1 6598  13.298   3.665   6.754
 1567SOL    HW2 6599  13.334   3.801   6.698
 1568SOL     OW 6600   1.359   7.451   2.323
 1568SOL    HW1 6601   1.279   7.504   2.325
 1568SOL    HW2 6602   1.341   7.378   2.382
 1569SOL     OW 6603   2.725   1.723   5.251
 1569SOL    HW1 6604   2.679   1.794   5.296
 1569SOL    HW2 6605   2.801   1.705   5.307
 1570SOL     OW 6606   7.701   1.497  13.900
 1570SOL    HW1 6607   7.653   1.528  13.823
 1570SOL    HW2 6608   7.793   1.497  13.874
 1571SOL     OW 6609   4.031   4.836   4.836
 1571SOL    HW1 6610   3.999   4.761   4.886
 1571SOL    HW2 6611   3.954   4.867   4.788
 1572SOL     OW 6612  11.991   2.980   4.025
 1572SOL    HW1 6613  11.899   2.978   4.051
 1572SOL    HW2 6614  12.003   3.065   3.983
 1573SOL     OW 6615   1.382   4.157   2.959
 1573SOL    HW1 6616   1.298   4.131   2.920
 1573SOL    HW2 6617   1.365   4.161   3.053
 1574SOL     OW 6618  10.080   7.011   6.258
 1574SOL    HW1 6619  10.141   7.023   6.185
 1574SOL    HW2 6620  10.134   6.971   6.327
 1575SOL     OW 6621  11.597   5.961   4.082
 1575SOL    HW1 6622  11.566   5.871   4.073
 1575SOL    HW2 6623  11.690   5.956   4.058
 1576SOL     OW 6624   9.405   4.284  11.476
 1576SOL    HW1 6625   9.377   4.368  11.512
 1576SOL    HW2 6626   9.501   4.286  11.480
 1577SOL     OW 6627   8.597   9.269   1.072
 1577SOL    HW1 6628   8.578   9.201   1.008
 1577SOL    HW2 6629   8.571   9.231   1.156
 1578SOL     OW 6630   8.321  12.180   0.038
 1578SOL    HW1 6631   8.269  12.144  14.847
 1578SOL    HW2 6632   8.268  12.252   0.073
 1579SOL     OW 6633   5.493   5.012   9.851
 1579SOL    HW1 6634   5.405   4.988   9.878
 1579SOL    HW2 6635   5.481   5.074   9.780
 1580SOL     OW 6636   6.360  10.050   7.981
 1580SOL    HW1 6637   6.303   9.992   7.931
 1580SOL    HW2 6638   6.299  10.106   8.030
 1581SOL     OW 6639   2.076   0.150  12.874
 1581SOL    HW1 6640   2.070   0.243  12.855
 1581SOL    HW2 6641   2.169   0.136  12.896
 1582SOL     OW 6642   1.014  11.612   8.893
 1582SOL    HW1 6643   0.977  11.700   8.892
 1582SOL    HW2 6644   1.089  11.618   8.953
 1583SOL     OW 6645   2.253   0.941   8.157
 1583SOL    HW1 6646   2.219   0.897   8.080
 1583SOL    HW2 6647   2.179   0.989   8.193
 1584SOL     OW 6648   3.771  14.672   0.533
 1584SOL    HW1 6649   3.687  14.678   0.488
 1584SOL    HW2 6650   3.818  14.751   0.506
 1585SOL     OW 6651  11.605  10.716   0.437
 1585SOL    HW1 6652  11.572  10.806   0.429
 1585SOL    HW2 6653  11.551  10.676   0.504
 1586SOL     OW 6654   9.654  14.584   6.528
 1586SOL    HW1 6655   9.583  14.561   6.468
 1586SOL    HW2 6656   9.634  14.538   6.609
 1587SOL     OW 6657   6.423   9.823   2.894
 1587SOL    HW1 6658   6.461   9.887   2.835
 1587SOL    HW2 6659   6.380   9.760   2.837
 1588SOL     OW 6660   8.551   6.178   5.413
 1588SOL    HW1 6661   8.480   6.196   5.352
 1588SOL    HW2 6662   8.606   6.256   5.409
 1589SOL     OW 6663   1.993   4.756  13.932
 1589SOL    HW1 6664   2.038   4.684  13.888
 1589SOL    HW2 6665   1.902   4.751  13.901
 1590SOL     OW 6666   7.332  11.588   8.724
 1590SOL    HW1 6667   7.364  11.513   8.673
 1590SOL    HW2 6668   7.239  11.593   8.703
 1591SOL     OW 6669   6.291  11.703   7.671
 1591SOL    HW1 6670   6.259  11.613   7.683
 1591SOL    HW2 6671   6.283  11.718   7.576
 1592SOL     OW 6672  12.585  11.816   2.269
 1592SOL    HW1 6673  12.607  11.732   2.310
 1592SOL    HW2 6674  12.570  11.875   2.342
 1593SOL     OW 6675  11.072   2.099   8.317
 1593SOL    HW1 6676  11.129   2.046   8.261
 1593SOL    HW2 6677  11.103   2.189   8.305
 1594SOL     OW 6678   1.728  13.875  10.244
 1594SOL    HW1 6679   1.745  13.963  10.210
 1594SOL    HW2 6680   1.719  13.820  10.166
 1595SOL     OW 6681  14.205  10.259   9.327
 1595SOL    HW1 6682  14.194  10.296   9.239
 1595SOL    HW2 6683  14.279  10.308   9.364
 1596SOL     OW 6684  10.002  12.075   8.737
 1596SOL    HW1 6685  10.016  12.082   8.831
 1596SOL    HW2 6686   9.945  11.999   8.727
 1597SOL     OW 6687  12.027   6.399  10.646
 1597SOL    HW1 6688  11.942   6.384  10.689
 1597SOL    HW2 6689  12.006   6.399  10.552
 1598SOL     OW 6690  14.220   3.495   3.870
 1598SOL    HW1 6691  14.128   3.510   3.895
 1598SOL    HW2 6692  14.263   3.579   3.887
 1599SOL     OW 6693   8.251  14.093  12.048
 1599SOL    HW1 6694   8.210  14.025  11.994
 1599SOL    HW2 6695   8.274  14.048  12.130
 1600SOL     OW 6696   3.532   0.027  14.555
 1600SOL    HW1 6697   3.558  14.818  14.579
 1600SOL    HW2 6698   3.508   0.020  14.462
 1601SOL     OW 6699   9.121   3.931   6.464
 1601SOL    HW1 6700   9.068   4.000   6.504
 1601SOL    HW2 6701   9.205   3.936   6.509
 1602SOL     OW 6702   3.640  10.990   4.532
 1602SOL    HW1 6703   3.709  10.947   4.583
 1602SOL    HW2 6704   3.575  10.922   4.518
 1603SOL     OW 6705   9.296   2.974  12.900
 1603SOL    HW1 6706   9.290   3.007  12.989
 1603SOL    HW2 6707   9.328   3.048  12.848
 1604SOL     OW 6708   9.674   3.072  12.447
 1604SOL    HW1 6709   9.625   3.152  12.429
 1604SOL    HW2 6710   9.607   3.007  12.465
 1605SOL     OW 6711   8.047   2.714   3.362
 1605SOL    HW1 6712   8.116   2.708   3.295
 1605SOL    HW2 6713   8.045   2.627   3.402
 1606SOL     OW 6714   4.862  11.405   1.980
 1606SOL    HW1 6715   4.770  11.405   1.953
 1606SOL    HW2 6716   4.859  11.402   2.075
 1607SOL     OW 6717  11.017   8.429  12.083
 1607SOL    HW1 6718  11.063   8.347  12.070
 1607SOL    HW2 6719  11.086   8.496  12.083
 1608SOL     OW 6720   1.219   6.322  12.299
 1608SOL    HW1 6721   1.218   6.417  12.304
 1608SOL    HW2 6722   1.135   6.295  12.336
 1609SOL     OW 6723   7.861   6.880  11.207
 1609SOL    HW1 6724   7.871   6.973  11.186
 1609SOL    HW2 6725   7.907   6.835  11.137
 1610SOL     OW 6726   0.158  11.842   8.972
 1610SOL    HW1 6727   0.151  11.831   8.877
 1610SOL    HW2 6728   0.233  11.790   8.998
 1611SOL     OW 6729   4.554   3.919   0.467
 1611SOL    HW1 6730   4.509   4.000   0.490
 1611SOL    HW2 6731   4.563   3.872   0.549
 1612SOL     OW 6732   3.355   3.296   9.012
 1612SOL    HW1 6733   3.286   3.274   8.949
 1612SOL    HW2 6734   3.311   3.293   9.097
 1613SOL     OW 6735   6.403   7.351   7.352
 1613SOL    HW1 6736   6.451   7.280   7.394
 1613SOL    HW2 6737   6.370   7.313   7.271
 1614SOL     OW 6738   2.718   3.992  14.179
 1614SOL    HW1 6739   2.673   4.075  14.190
 1614SOL    HW2 6740   2.665   3.929  14.228
 1615SOL     OW 6741   8.664   0.231  14.273
 1615SOL    HW1 6742   8.686   0.309  14.222
 1615SOL    HW2 6743   8.571   0.217  14.258
 1616SOL     OW 6744  14.482  12.315   0.070
 1616SOL    HW1 6745  14.512  12.280   0.154
 1616SOL    HW2 6746  14.554  12.370   0.039
 1617SOL     OW 6747  11.291  10.744   6.262
 1617SOL    HW1 6748  11.211  10.770   6.216
 1617SOL    HW2 6749  11.325  10.825   6.301
 1618SOL     OW 6750  11.220   1.474  13.928
 1618SOL    HW1 6751  11.238   1.555  13.880
 1618SOL    HW2 6752  11.162   1.500  13.999
 1619SOL     OW 6753   7.048   3.823   2.313
 1619SOL    HW1 6754   6.962   3.787   2.335
 1619SOL    HW2 6755   7.051   3.907   2.359
 1620SOL     OW 6756   0.349  11.958  14.636
 1620SOL    HW1 6757   0.334  11.875  14.681
 1620SOL    HW2 6758   0.434  11.946  14.593
 1621SOL     OW 6759   3.262   3.990   1.537
 1621SOL    HW1 6760   3.356   4.003   1.527
 1621SOL    HW2 6761   3.222   4.063   1.489
 1622SOL     OW 6762   1.414   2.013  13.292
 1622SOL    HW1 6763   1.460   2.096  13.304
 1622SOL    HW2 6764   1.323   2.032  13.313
 1623SOL     OW 6765   5.179  13.462   5.603
 1623SOL    HW1 6766   5.109  13.398   5.586
 1623SOL    HW2 6767   5.177  13.475   5.698
 1624SOL     OW 6768  10.405  14.261   6.217
 1624SOL    HW1 6769  10.386  14.354   6.233
 1624SOL    HW2 6770  10.373  14.245   6.128
 1625SOL     OW 6771   4.845   0.038   1.269
 1625SOL    HW1 6772   4.847  14.856   1.197
 1625SOL    HW2 6773   4.923   0.018   1.320
 1626SOL     OW 6774   1.773  10.542  12.913
 1626SOL    HW1 6775   1.790  10.502  12.828
 1626SOL    HW2 6776   1.848  10.600  12.928
 1627SOL     OW 6777  14.391   6.824   7.244
 1627SOL    HW1 6778  14.338   6.903   7.245
 1627SOL    HW2 6779  14.443   6.829   7.325
 1628SOL     OW 6780   4.553  13.165  12.732
 1628SOL    HW1 6781   4.581  13.083  12.772
 1628SOL    HW2 6782   4.614  13.231  12.766
 1629SOL     OW 6783   0.420   9.951  14.344
 1629SOL    HW1 6784   0.326   9.945  14.326
 1629SOL    HW2 6785   0.462   9.951  14.258
 1630SOL     OW 6786   3.658   7.969   3.793
 1630SOL    HW1 6787   3.736   7.922   3.761
 1630SOL    HW2 6788   3.594   7.958   3.723
 1631SOL     OW 6789  14.648  12.664  10.022
 1631SOL    HW1 6790  14.726  12.609  10.029
 1631SOL    HW2 6791  14.682  12.754  10.027
 1632SOL     OW 6792   5.711   1.527  11.282
 1632SOL    HW1 6793   5.720   1.511  11.188
 1632SOL    HW2 6794   5.791   1.490  11.320
 1633SOL     OW 6795   9.175   3.142   0.862
 1633SOL    HW1 6796   9.260   3.185   0.854
 1633SOL    HW2 6797   9.175   3.076   0.792
 1634SOL     OW 6798  12.993   9.983   5.761
 1634SOL    HW1 6799  13.052   9.981   5.836
 1634SOL    HW2 6800  12.970  10.075   5.751
 1635SOL     OW 6801   6.153   9.956   4.929
 1635SOL    HW1 6802   6.086   9.991   4.988
 1635SOL    HW2 6803   6.126   9.986   4.842
 1636SOL     OW 6804   1.637  12.573  13.280
 1636SOL    HW1 6805   1.606  12.586  13.191
 1636SOL    HW2 6806   1.668  12.659  13.308
 1637SOL     OW 6807   9.559   9.018  11.568
 1637SOL    HW1 6808   9.573   9.079  11.641
 1637SOL    HW2 6809   9.468   8.989  11.578
 1638SOL     OW 6810  14.413   9.982   8.171
 1638SOL    HW1 6811  14.452  10.009   8.254
 1638SOL    HW2 6812  14.377   9.895   8.189
 1639SOL     OW 6813  14.500  12.790   9.833
 1639SOL    HW1 6814  14.523  12.764   9.923
 1639SOL    HW2 6815  14.452  12.872   9.843
 1640SOL     OW 6816  12.897   1.751   1.160
 1640SOL    HW1 6817  12.846   1.754   1.079
 1640SOL    HW2 6818  12.968   1.814   1.146
 1641SOL     OW 6819   5.208   3.246   7.190
 1641SOL    HW1 6820   5.296   3.211   7.197
 1641SOL    HW2 6821   5.190   3.284   7.276
 1642SOL     OW 6822  14.709   1.642  11.199
 1642SOL    HW1 6823  14.659   1.643  11.118
 1642SOL    HW2 6824  14.765   1.720  11.194
 1643SOL     OW 6825   5.776   3.971   1.862
 1643SOL    HW1 6826   5.771   4.047   1.804
 1643SOL    HW2 6827   5.725   3.903   1.819
 1644SOL     OW 6828   6.687   0.085  11.062
 1644SOL    HW1 6829   6.754   0.152  11.078
 1644SOL    HW2 6830   6.613   0.113  11.117
 1645SOL     OW 6831   4.954   5.844  12.383
 1645SOL    HW1 6832   5.000   5.815  12.305
 1645SOL    HW2 6833   4.975   5.937  12.391
 1646SOL     OW 6834   5.250   1.592  10.500
 1646SOL    HW1 6835   5.156   1.609  10.501
 1646SOL    HW2 6836   5.284   1.645  10.428
 1647SOL     OW 6837   9.402   9.318  13.767
 1647SOL    HW1 6838   9.426   9.373  13.692
 1647SOL    HW2 6839   9.414   9.374  13.843
 1648SOL     OW 6840  12.270   9.104  14.059
 1648SOL    HW1 6841  12.212   9.172  14.094
 1648SOL    HW2 6842  12.356   9.124  14.096
 1649SOL     OW 6843  12.381  11.268  12.647
 1649SOL    HW1 6844  12.381  11.347  12.593
 1649SOL    HW2 6845  12.289  11.256  12.671
 1650SOL     OW 6846   8.222  12.741   6.087
 1650SOL    HW1 6847   8.289  12.794   6.043
 1650SOL    HW2 6848   8.167  12.806   6.133
 1651SOL     OW 6849   0.233   2.412   0.032
 1651SOL    HW1 6850   0.215   2.489  14.858
 1651SOL    HW2 6851   0.217   2.441   0.122
 1652SOL     OW 6852   2.190   2.856   4.151
 1652SOL    HW1 6853   2.216   2.927   4.092
 1652SOL    HW2 6854   2.096   2.866   4.161
 1653SOL     OW 6855   5.526   2.561   4.183
 1653SOL    HW1 6856   5.554   2.474   4.155
 1653SOL    HW2 6857   5.443   2.547   4.228
 1654SOL     OW 6858   4.195   5.247   2.719
 1654SOL    HW1 6859   4.149   5.251   2.803
 1654SOL    HW2 6860   4.125   5.237   2.654
 1655SOL     OW 6861  13.285   4.912   6.838
 1655SOL    HW1 6862  13.283   4.836   6.897
 1655SOL    HW2 6863  13.375   4.942   6.841
 1656SOL     OW 6864  14.537   2.867   6.530
 1656SOL    HW1 6865  14.441   2.863   6.522
 1656SOL    HW2 6866  14.552   2.898   6.619
 1657SOL     OW 6867   5.926  13.902  10.693
 1657SOL    HW1 6868   5.916  13.807  10.695
 1657SOL    HW2 6869   6.016  13.918  10.721
 1658SOL     OW 6870   6.552  10.106   2.789
 1658SOL    HW1 6871   6.561  10.160   2.711
 1658SOL    HW2 6872   6.486  10.151   2.842
 1659SOL     OW 6873   4.261   4.592   7.338
 1659SOL    HW1 6874   4.342   4.630   7.373
 1659SOL    HW2 6875   4.191   4.640   7.382
 1660SOL     OW 6876  10.083   7.408   2.972
 1660SOL    HW1 6877  10.146   7.476   2.995
 1660SOL    HW2 6878  10.071   7.417   2.877
 1661SOL     OW 6879  14.629  12.505   5.962
 1661SOL    HW1 6880  14.560  12.561   5.999
 1661SOL    HW2 6881  14.601  12.489   5.871
 1662SOL     OW 6882   4.782   1.867   1.700
 1662SOL    HW1 6883   4.846   1.797   1.686
 1662SOL    HW2 6884   4.698   1.828   1.676
 1663SOL     OW 6885   5.968  14.202   5.495
 1663SOL    HW1 6886   5.928  14.240   5.573
 1663SOL    HW2 6887   6.056  14.178   5.524
 1664SOL     OW 6888   8.600   1.300   2.566
 1664SOL    HW1 6889   8.679   1.246   2.562
 1664SOL    HW2 6890   8.598   1.333   2.656
 1665SOL     OW 6891   7.376   6.126   9.815
 1665SOL    HW1 6892   7.427   6.083   9.884
 1665SOL    HW2 6893   7.348   6.209   9.855
 1666SOL     OW 6894   5.938   9.999   6.167
 1666SOL    HW1 6895   5.876  10.016   6.239
 1666SOL    HW2 6896   6.023   9.993   6.210
 1667SOL     OW 6897  13.471   1.587  13.459
 1667SOL    HW1 6898  13.394   1.571  13.403
 1667SOL    HW2 6899  13.443   1.558  13.546
 1668SOL     OW 6900   6.720  11.060   2.041
 1668SOL    HW1 6901   6.723  11.095   2.131
 1668SOL    HW2 6902   6.809  11.068   2.009
 1669SOL     OW 6903   1.991   6.551   6.366
 1669SOL    HW1 6904   1.950   6.623   6.414
 1669SOL    HW2 6905   1.918   6.496   6.337
 1670SOL     OW 6906  11.848   0.325   9.633
 1670SOL    HW1 6907  11.843   0.269   9.710
 1670SOL    HW2 6908  11.811   0.273   9.562
 1671SOL     OW 6909  11.917  11.602  12.811
 1671SOL    HW1 6910  11.845  11.645  12.857
 1671SOL    HW2 6911  11.989  11.603  12.874
 1672SOL     OW 6912  13.767   3.269   9.108
 1672SOL    HW1 6913  13.707   3.222   9.051
 1672SOL    HW2 6914  13.720   3.277   9.191
 1673SOL     OW 6915   6.718  11.502  13.058
 1673SOL    HW1 6916   6.684  11.424  13.014
 1673SOL    HW2 6917   6.812  11.502  13.036
 1674SOL     OW 6918   6.811   8.302   8.553
 1674SOL    HW1 6919   6.769   8.286   8.468
 1674SOL    HW2 6920   6.904   8.288   8.538
 1675SOL     OW 6921   7.963   2.352   4.376
 1675SOL    HW1 6922   7.921   2.267   4.363
 1675SOL    HW2 6923   8.057   2.335   4.370
 1676SOL     OW 6924   5.969  11.766   8.106
 1676SOL    HW1 6925   5.977  11.814   8.188
 1676SOL    HW2 6926   6.038  11.699   8.110
 1677SOL     OW 6927   9.314   0.489  14.188
 1677SOL    HW1 6928   9.283   0.422  14.127
 1677SOL    HW2 6929   9.244   0.554  14.189
 1678SOL     OW 6930   4.960   7.906   0.170
 1678SOL    HW1 6931   5.040   7.930   0.218
 1678SOL    HW2 6932   4.964   7.811   0.163
 1679SOL     OW 6933  13.872   9.172  14.492
 1679SOL    HW1 6934  13.791   9.166  14.441
 1679SOL    HW2 6935  13.915   9.251  14.459
 1680SOL     OW 6936   2.967   8.310   6.938
 1680SOL    HW1 6937   2.927   8.271   6.860
 1680SOL    HW2 6938   2.933   8.399   6.941
 1681SOL     OW 6939   8.692   6.815  10.276
 1681SOL    HW1 6940   8.686   6.897  10.227
 1681SOL    HW2 6941   8.601   6.786  10.286
 1682SOL     OW 6942   0.817   9.028   3.355
 1682SOL    HW1 6943   0.842   8.981   3.276
 1682SOL    HW2 6944   0.874   8.992   3.424
 1683SOL     OW 6945   3.386   9.033   3.947
 1683SOL    HW1 6946   3.481   9.047   3.945
 1683SOL    HW2 6947   3.376   8.942   3.919
 1684SOL     OW 6948   1.660  14.376   9.102
 1684SOL    HW1 6949   1.737  14.403   9.151
 1684SOL    HW2 6950   1.692  14.361   9.013
 1685SOL     OW 6951   3.504   2.399   3.029
 1685SOL    HW1 6952   3.549   2.418   2.947
 1685SOL    HW2 6953   3.546   2.320   3.061
 1686SOL     OW 6954  11.619  11.286  10.523
 1686SOL    HW1 6955  11.578  11.365  10.487
 1686SOL    HW2 6956  11.690  11.267  10.463
 1687SOL     OW 6957   0.344  12.859  11.246
 1687SOL    HW1 6958   0.316  12.949  11.230
 1687SOL    HW2 6959   0.439  12.866  11.262
 1688SOL     OW 6960  11.568   3.570   8.233
 1688SOL    HW1 6961  11.641   3.603   8.286
 1688SOL    HW2 6962  11.591   3.479   8.215
 1689SOL     OW 6963  12.267   9.124   0.859
 1689SOL    HW1 6964  12.361   9.138   0.849
 1689SOL    HW2 6965  12.253   9.112   0.952
 1690SOL     OW 6966   1.308   9.758   8.943
 1690SOL    HW1 6967   1.325   9.673   8.902
 1690SOL    HW2 6968   1.395   9.795   8.959
 1691SOL     OW 6969  11.689   4.124   9.988
 1691SOL    HW1 6970  11.746   4.102   9.915
 1691SOL    HW2 6971  11.664   4.040  10.026
 1692SOL     OW 6972  12.001   3.717   3.641
 1692SOL    HW1 6973  11.997   3.723   3.545
 1692SOL    HW2 6974  11.910   3.716   3.669
 1693SOL     OW 6975  10.103  13.381  12.396
 1693SOL    HW1 6976  10.158  13.459  12.391
 1693SOL    HW2 6977  10.019  13.409  12.358
 1694SOL     OW 6978   3.211   7.666  14.079
 1694SOL    HW1 6979   3.277   7.647  14.012
 1694SOL    HW2 6980   3.256   7.651  14.162
 1695SOL     OW 6981   3.702   0.132   5.809
 1695SOL    HW1 6982   3.632   0.148   5.745
 1695SOL    HW2 6983   3.660   0.081   5.878
 1696SOL     OW 6984   0.467   0.551  14.818
 1696SOL    HW1 6985   0.553   0.521  14.788
 1696SOL    HW2 6986   0.484   0.592   0.022
 1697SOL     OW 6987  14.668  11.791   8.023
 1697SOL    HW1 6988  14.750  11.744   8.039
 1697SOL    HW2 6989  14.609  11.725   7.987
 1698SOL     OW 6990   0.888   8.445  11.495
 1698SOL    HW1 6991   0.940   8.525  11.502
 1698SOL    HW2 6992   0.811   8.470  11.443
 1699SOL     OW 6993  12.222  10.551   8.895
 1699SOL    HW1 6994  12.228  10.509   8.980
 1699SOL    HW2 6995  12.308  10.592   8.882
 1700SOL     OW 6996   1.539  13.612   2.673
 1700SOL    HW1 6997   1.456  13.652   2.699
 1700SOL    HW2 6998   1.516  13.558   2.597
 1701SOL     OW 6999   0.607  13.068  10.026
 1701SOL    HW1 7000   0.586  13.113  10.108
 1701SOL    HW2 7001   0.557  13.116   9.960
 1702SOL     OW 7002   7.325   4.589   1.148
 1702SOL    HW1 7003   7.296   4.667   1.101
 1702SOL    HW2 7004   7.405   4.617   1.193
 1703SOL     OW 7005   5.637   7.980   8.809
 1703SOL    HW1 7006   5.642   7.884   8.805
 1703SOL    HW2 7007   5.562   8.002   8.754
 1704SOL     OW 7008   3.706   3.790   6.168
 1704SOL    HW1 7009   3.713   3.868   6.223
 1704SOL    HW2 7010   3.691   3.719   6.229
 1705SOL     OW 7011   8.175   2.148   6.313
 1705SOL    HW1 7012   8.099   2.135   6.370
 1705SOL    HW2 7013   8.141   2.136   6.225
 1706SOL     OW 7014  13.305  14.812  12.436
 1706SOL    HW1 7015  13.217  14.775  12.435
 1706SOL    HW2 7016  13.323  14.828  12.529
 1707SOL     OW 7017   9.822   7.685   8.133
 1707SOL    HW1 7018   9.915   7.677   8.113
 1707SOL    HW2 7019   9.818   7.749   8.203
 1708SOL     OW 7020   7.331  14.214   8.398
 1708SOL    HW1 7021   7.384  14.135   8.407
 1708SOL    HW2 7022   7.346  14.263   8.479
 1709SOL     OW 7023   8.678  14.389  10.121
 1709SOL    HW1 7024   8.594  14.350  10.095
 1709SOL    HW2 7025   8.739  14.315  10.123
 1710SOL     OW 7026   4.100   4.051   6.576
 1710SOL    HW1 7027   4.064   4.020   6.659
 1710SOL    HW2 7028   4.106   4.146   6.586
 1711SOL     OW 7029  12.639  11.433   9.870
 1711SOL    HW1 7030  12.558  11.481   9.887
 1711SOL    HW2 7031  12.706  11.479   9.921
 1712SOL     OW 7032   9.724   5.170  13.059
 1712SOL    HW1 7033   9.692   5.158  12.970
 1712SOL    HW2 7034   9.649   5.203  13.107
 1713SOL     OW 7035  11.749   1.084   3.060
 1713SOL    HW1 7036  11.821   1.146   3.050
 1713SOL    HW2 7037  11.791   0.998   3.052
 1714SOL     OW 7038   3.995  10.775   3.530
 1714SOL    HW1 7039   4.036  10.703   3.483
 1714SOL    HW2 7040   3.902  10.767   3.510
 1715SOL     OW 7041  13.239   7.817   5.798
 1715SOL    HW1 7042  13.167   7.857   5.751
 1715SOL    HW2 7043  13.214   7.823   5.891
 1716SOL     OW 7044   3.056   8.095   5.663
 1716SOL    HW1 7045   3.038   8.012   5.708
 1716SOL    HW2 7046   3.091   8.069   5.578
 1717SOL     OW 7047  11.642  11.503   7.368
 1717SOL    HW1 7048  11.666  11.412   7.387
 1717SOL    HW2 7049  11.553  11.512   7.403
 1718SOL     OW 7050   7.115   7.912   2.944
 1718SOL    HW1 7051   7.070   7.970   2.882
 1718SOL    HW2 7052   7.142   7.837   2.892
 1719SOL     OW 7053   2.166  14.604  11.110
 1719SOL    HW1 7054   2.134  14.571  11.026
 1719SOL    HW2 7055   2.200  14.526  11.154
 1720SOL     OW 7056   3.729   2.982   5.975
 1720SOL    HW1 7057   3.704   3.000   5.884
 1720SOL    HW2 7058   3.794   2.912   5.969
 1721SOL     OW 7059   4.427   0.180   0.059
 1721SOL    HW1 7060   4.522   0.168   0.064
 1721SOL    HW2 7061   4.409   0.189  14.846
 1722SOL     OW 7062   1.396   0.352   7.274
 1722SOL    HW1 7063   1.372   0.380   7.362
 1722SOL    HW2 7064   1.354   0.267   7.263
 1723SOL     OW 7065   7.057   9.070   5.314
 1723SOL    HW1 7066   7.128   9.120   5.352
 1723SOL    HW2 7067   7.091   9.039   5.230
 1724SOL     OW 7068   0.341  10.978   3.876
 1724SOL    HW1 7069   0.359  11.002   3.785
 1724SOL    HW2 7070   0.280  11.045   3.907
 1725SOL     OW 7071  12.180   3.747  11.539
 1725SOL    HW1 7072  12.269   3.776  11.557
 1725SOL    HW2 7073  12.150   3.706  11.621
 1726SOL     OW 7074   8.520   6.993   9.103
 1726SOL    HW1 7075   8.497   6.903   9.125
 1726SOL    HW2 7076   8.529   6.993   9.007
 1727SOL     OW 7077   7.284   6.930   6.387
 1727SOL    HW1 7078   7.232   6.964   6.460
 1727SOL    HW2 7079   7.267   6.836   6.387
 1728SOL     OW 7080   8.150   6.237  10.512
 1728SOL    HW1 7081   8.205   6.275  10.580
 1728SOL    HW2 7082   8.203   6.244  10.432
 1729SOL     OW 7083  11.201  11.441   5.144
 1729SOL    HW1 7084  11.111  11.432   5.175
 1729SOL    HW2 7085  11.232  11.352   5.133
 1730SOL     OW 7086   3.789   3.541  14.738
 1730SOL    HW1 7087   3.819   3.458  14.700
 1730SOL    HW2 7088   3.732   3.514  14.810
 1731SOL     OW 7089   4.324   8.748   5.522
 1731SOL    HW1 7090   4.303   8.828   5.474
 1731SOL    HW2 7091   4.317   8.774   5.614
 1732SOL     OW 7092  10.184   5.893   6.085
 1732SOL    HW1 7093  10.267   5.879   6.130
 1732SOL    HW2 7094  10.118   5.858   6.145
 1733SOL     OW 7095   4.006   2.753  10.855
 1733SOL    HW1 7096   3.958   2.784  10.932
 1733SOL    HW2 7097   3.941   2.706  10.803
 1734SOL     OW 7098  11.532   9.512  14.528
 1734SOL    HW1 7099  11.465   9.493  14.594
 1734SOL    HW2 7100  11.562   9.426  14.498
 1735SOL     OW 7101   1.439   5.447  12.065
 1735SOL    HW1 7102   1.479   5.516  12.013
 1735SOL    HW2 7103   1.501   5.432  12.136
 1736SOL     OW 7104   5.728  12.565   4.132
 1736SOL    HW1 7105   5.809  12.584   4.178
 1736SOL    HW2 7106   5.731  12.619   4.054
 1737SOL     OW 7107   3.815   6.237  12.796
 1737SOL    HW1 7108   3.779   6.148  12.799
 1737SOL    HW2 7109   3.855   6.244  12.710
 1738SOL     OW 7110  13.416   2.210   8.584
 1738SOL    HW1 7111  13.420   2.131   8.637
 1738SOL    HW2 7112  13.338   2.256   8.614
 1739SOL     OW 7113   4.436   1.596   5.085
 1739SOL    HW1 7114   4.344   1.581   5.066
 1739SOL    HW2 7115   4.477   1.605   4.999
 1740SOL     OW 7116  10.029   8.716   1.312
 1740SOL    HW1 7117   9.947   8.671   1.331
 1740SOL    HW2 7118  10.089   8.646   1.284
 1741SOL     OW 7119   3.509   5.895  13.311
 1741SOL    HW1 7120   3.529   5.966  13.249
 1741SOL    HW2 7121   3.592   5.848  13.321
 1742SOL     OW 7122   6.197   8.462   7.449
 1742SOL    HW1 7123   6.190   8.423   7.362
 1742SOL    HW2 7124   6.110   8.449   7.488
 1743SOL     OW 7125   0.156  12.095  13.744
 1743SOL    HW1 7126   0.207  12.078  13.823
 1743SOL    HW2 7127   0.097  12.020  13.737
 1744SOL     OW 7128   1.379  14.032   3.216
 1744SOL    HW1 7129   1.472  14.012   3.202
 1744SOL    HW2 7130   1.371  14.125   3.196
 1745SOL     OW 7131  10.707   5.610   9.531
 1745SOL    HW1 7132  10.660   5.554   9.469
 1745SOL    HW2 7133  10.784   5.559   9.556
 1746SOL     OW 7134  14.239  13.332   2.354
 1746SOL    HW1 7135  14.184  13.393   2.305
 1746SOL    HW2 7136  14.329  13.362   2.338
 1747SOL     OW 7137   3.049   4.379   8.186
 1747SOL    HW1 7138   2.977   4.403   8.128
 1747SOL    HW2 7139   3.127   4.412   8.142
 1748SOL     OW 7140   1.234   3.451   1.398
 1748SOL    HW1 7141   1.268   3.436   1.310
 1748SOL    HW2 7142   1.193   3.368   1.422
 1749SOL     OW 7143  10.330  13.990   8.693
 1749SOL    HW1 7144  10.356  13.995   8.601
 1749SOL    HW2 7145  10.247  14.039   8.697
 1750SOL     OW 7146   1.108   0.272   7.023
 1750SOL    HW1 7147   1.061   0.300   7.102
 1750SOL    HW2 7148   1.184   0.330   7.018
 1751SOL     OW 7149   0.643   6.424   5.725
 1751SOL    HW1 7150   0.722   6.439   5.674
 1751SOL    HW2 7151   0.653   6.335   5.759
 1752SOL     OW 7152   1.803   2.556  14.361
 1752SOL    HW1 7153   1.794   2.483  14.300
 1752SOL    HW2 7154   1.756   2.628  14.318
 1753SOL     OW 7155   8.687   3.657   7.404
 1753SOL    HW1 7156   8.630   3.646   7.328
 1753SOL    HW2 7157   8.683   3.751   7.423
 1754SOL     OW 7158   2.084   1.251   1.443
 1754SOL    HW1 7159   2.154   1.292   1.493
 1754SOL    HW2 7160   2.015   1.234   1.507
 1755SOL     OW 7161  12.411   6.907   0.469
 1755SOL    HW1 7162  12.382   6.990   0.431
 1755SOL    HW2 7163  12.447   6.931   0.555
 1756SOL     OW 7164   3.654   1.618  12.366
 1756SOL    HW1 7165   3.600   1.572  12.430
 1756SOL    HW2 7166   3.622   1.709  12.368
 1757SOL     OW 7167   4.895  11.120  12.581
 1757SOL    HW1 7168   4.937  11.073  12.654
 1757SOL    HW2 7169   4.948  11.199  12.571
 1758SOL     OW 7170   9.222   7.742   9.748
 1758SOL    HW1 7171   9.237   7.733   9.654
 1758SOL    HW2 7172   9.141   7.793   9.754
 1759SOL     OW 7173   6.125  12.117   9.282
 1759SOL    HW1 7174   6.089  12.060   9.351
 1759SOL    HW2 7175   6.128  12.061   9.204
 1760SOL     OW 7176   4.217   3.092  14.568
 1760SOL    HW1 7177   4.169   3.171  14.542
 1760SOL    HW2 7178   4.184   3.024  14.509
 1761SOL     OW 7179  11.888   9.627  11.117
 1761SOL    HW1 7180  11.951   9.582  11.174
 1761SOL    HW2 7181  11.942   9.666  11.048
 1762SOL     OW 7182   6.956   8.987   1.141
 1762SOL    HW1 7183   6.987   9.072   1.110
 1762SOL    HW2 7184   7.035   8.933   1.144
 1763SOL     OW 7185   8.459   5.788   2.108
 1763SOL    HW1 7186   8.369   5.785   2.076
 1763SOL    HW2 7187   8.466   5.870   2.155
 1764SOL     OW 7188  10.390   1.341  13.295
 1764SOL    HW1 7189  10.305   1.336  13.338
 1764SOL    HW2 7190  10.401   1.433  13.274
 1765SOL     OW 7191   1.109   0.829   6.472
 1765SOL    HW1 7192   1.046   0.876   6.526
 1765SOL    HW2 7193   1.112   0.741   6.509
 1766SOL     OW 7194   4.880  12.969   8.633
 1766SOL    HW1 7195   4.845  12.885   8.662
 1766SOL    HW2 7196   4.802  13.021   8.613
 1767SOL     OW 7197   5.870  13.229  10.621
 1767SOL    HW1 7198   5.880  13.157  10.683
 1767SOL    HW2 7199   5.928  13.207  10.548
 1768SOL     OW 7200   7.500   4.016   4.524
 1768SOL    HW1 7201   7.524   4.058   4.607
 1768SOL    HW2 7202   7.458   4.085   4.473
 1769SOL     OW 7203   5.179   9.853  12.331
 1769SOL    HW1 7204   5.238   9.882  12.261
 1769SOL    HW2 7205   5.230   9.866  12.412
 1770SOL     OW 7206   4.822  10.008   0.788
 1770SOL    HW1 7207   4.879   9.936   0.762
 1770SOL    HW2 7208   4.878  10.065   0.841
 1771SOL     OW 7209   8.636  12.296   5.346
 1771SOL    HW1 7210   8.547  12.263   5.338
 1771SOL    HW2 7211   8.627  12.391   5.340
 1772SOL     OW 7212   8.174  14.659   0.491
 1772SOL    HW1 7213   8.214  14.646   0.578
 1772SOL    HW2 7214   8.100  14.716   0.507
 1773SOL     OW 7215   6.244  10.405  10.436
 1773SOL    HW1 7216   6.267  10.361  10.518
 1773SOL    HW2 7217   6.157  10.371  10.414
 1774SOL     OW 7218  14.632   1.847  12.684
 1774SOL    HW1 7219  14.538   1.831  12.695
 1774SOL    HW2 7220  14.646   1.934  12.720
 1775SOL     OW 7221  14.623   1.389   9.265
 1775SOL    HW1 7222  14.643   1.476   9.231
 1775SOL    HW2 7223  14.709   1.348   9.279
 1776SOL     OW 7224   8.909   2.897   9.361
 1776SOL    HW1 7225   8.862   2.981   9.358
 1776SOL    HW2 7226   9.002   2.921   9.354
 1777SOL     OW 7227   8.995   6.687   3.972
 1777SOL    HW1 7228   8.997   6.707   3.878
 1777SOL    HW2 7229   9.027   6.598   3.978
 1778SOL     OW 7230  11.869   5.088   1.071
 1778SOL    HW1 7231  11.850   5.113   0.981
 1778SOL    HW2 7232  11.873   5.171   1.119
 1779SOL     OW 7233   7.814  13.938   4.528
 1779SOL    HW1 7234   7.723  13.937   4.500
 1779SOL    HW2 7235   7.811  13.952   4.623
 1780SOL     OW 7236   8.490  14.356   8.412
 1780SOL    HW1 7237   8.548  14.306   8.470
 1780SOL    HW2 7238   8.549  14.405   8.355
 1781SOL     OW 7239  14.686  13.615   2.404
 1781SOL    HW1 7240  14.694  13.701   2.446
 1781SOL    HW2 7241  14.758  13.564   2.441
 1782SOL     OW 7242   5.134   6.341   3.141
 1782SOL    HW1 7243   5.126   6.372   3.231
 1782SOL    HW2 7244   5.229   6.338   3.126
 1783SOL     OW 7245  10.352   7.720   4.274
 1783SOL    HW1 7246  10.329   7.631   4.298
 1783SOL    HW2 7247  10.445   7.728   4.294
 1784SOL     OW 7248  14.000   2.928  14.102
 1784SOL    HW1 7249  14.042   2.928  14.016
 1784SOL    HW2 7250  14.044   2.997  14.151
 1785SOL     OW 7251  12.878   7.428   3.828
 1785SOL    HW1 7252  12.820   7.362   3.866
 1785SOL    HW2 7253  12.831   7.511   3.840
 1786SOL     OW 7254   9.200   3.637  10.503
 1786SOL    HW1 7255   9.117   3.611  10.542
 1786SOL    HW2 7256   9.195   3.606  10.413
 1787SOL     OW 7257   6.125   5.313   5.526
 1787SOL    HW1 7258   6.197   5.288   5.468
 1787SOL    HW2 7259   6.159   5.299   5.615
 1788SOL     OW 7260   0.342   7.829   5.867
 1788SOL    HW1 7261   0.371   7.847   5.778
 1788SOL    HW2 7262   0.299   7.910   5.896
 1789SOL     OW 7263   3.666   0.372   6.307
 1789SOL    HW1 7264   3.651   0.329   6.391
 1789SOL    HW2 7265   3.696   0.302   6.249
 1790SOL     OW 7266   1.594  12.121   3.070
 1790SOL    HW1 7267   1.578  12.199   3.123
 1790SOL    HW2 7268   1.520  12.064   3.089
 1791SOL     OW 7269   7.336   7.496   4.965
 1791SOL    HW1 7270   7.266   7.447   4.921
 1791SOL    HW2 7271   7.359   7.443   5.041
 1792SOL     OW 7272   7.267   4.855   1.613
 1792SOL    HW1 7273   7.268   4.791   1.542
 1792SOL    HW2 7274   7.355   4.849   1.652
 1793SOL     OW 7275  10.378   3.419   1.035
 1793SOL    HW1 7276  10.418   3.502   1.010
 1793SOL    HW2 7277  10.304   3.409   0.974
 1794SOL     OW 7278   9.160   5.906  12.524
 1794SOL    HW1 7279   9.188   5.901  12.615
 1794SOL    HW2 7280   9.240   5.893  12.473
 1795SOL     OW 7281   3.381   0.313   2.867
 1795SOL    HW1 7282   3.329   0.257   2.809
 1795SOL    HW2 7283   3.435   0.366   2.808
 1796SOL     OW 7284  10.798   4.488   8.159
 1796SOL    HW1 7285  10.820   4.425   8.227
 1796SOL    HW2 7286  10.707   4.470   8.138
 1797SOL     OW 7287   3.512  12.958   6.907
 1797SOL    HW1 7288   3.556  13.037   6.937
 1797SOL    HW2 7289   3.517  12.963   6.812
 1798SOL     OW 7290  14.225   1.699  10.857
 1798SOL    HW1 7291  14.202   1.722  10.947
 1798SOL    HW2 7292  14.313   1.736  10.844
 1799SOL     OW 7293   4.113   2.735   6.423
 1799SOL    HW1 7294   4.026   2.765   6.448
 1799SOL    HW2 7295   4.156   2.715   6.506
 1800SOL     OW 7296   5.135   2.988   5.245
 1800SOL    HW1 7297   5.060   3.046   5.230
 1800SOL    HW2 7298   5.170   3.017   5.329
 1801SOL     OW 7299   0.598   6.748  14.577
 1801SOL    HW1 7300   0.533   6.681  14.599
 1801SOL    HW2 7301   0.572   6.778  14.490
 1802SOL     OW 7302  13.877   3.532   2.944
 1802SOL    HW1 7303  13.920   3.489   2.870
 1802SOL    HW2 7304  13.860   3.462   3.006
 1803SOL     OW 7305   3.791   1.456  14.210
 1803SOL    HW1 7306   3.780   1.480  14.118
 1803SOL    HW2 7307   3.882   1.427  14.216
 1804SOL     OW 7308   6.905   2.757  14.509
 1804SOL    HW1 7309   6.976   2.804  14.464
 1804SOL    HW2 7310   6.884   2.813  14.584
 1805SOL     OW 7311  12.654   7.234  11.995
 1805SOL    HW1 7312  12.636   7.301  12.060
 1805SOL    HW2 7313  12.741   7.257  11.961
 1806SOL     OW 7314  10.653   9.415  14.649
 1806SOL    HW1 7315  10.572   9.453  14.613
 1806SOL    HW2 7316  10.706   9.490  14.674
 1807SOL     OW 7317   8.454  10.679   2.332
 1807SOL    HW1 7318   8.469  10.770   2.356
 1807SOL    HW2 7319   8.444  10.633   2.415
 1808SOL     OW 7320   8.014   5.709  13.868
 1808SOL    HW1 7321   7.964   5.640  13.825
 1808SOL    HW2 7322   8.106   5.683  13.855
 1809SOL     OW 7323   8.056   6.151   5.376
 1809SOL    HW1 7324   7.996   6.168   5.448
 1809SOL    HW2 7325   8.122   6.220   5.383
 1810SOL     OW 7326  12.229   3.871   9.041
 1810SOL    HW1 7327  12.179   3.792   9.062
 1810SOL    HW2 7328  12.265   3.854   8.954
 1811SOL     OW 7329   7.093   7.575   9.038
 1811SOL    HW1 7330   7.186   7.567   9.058
 1811SOL    HW2 7331   7.050   7.520   9.103
 1812SOL     OW 7332   3.884   6.808   7.727
 1812SOL    HW1 7333   3.805   6.757   7.742
 1812SOL    HW2 7334   3.947   6.745   7.693
 1813SOL     OW 7335   9.682   9.803   4.313
 1813SOL    HW1 7336   9.683   9.772   4.222
 1813SOL    HW2 7337   9.749   9.752   4.357
 1814SOL     OW 7338  13.048   8.510   8.963
 1814SOL    HW1 7339  13.086   8.591   8.995
 1814SOL    HW2 7340  13.046   8.452   9.040
 1815SOL     OW 7341  13.351   9.735   3.746
 1815SOL    HW1 7342  13.330   9.703   3.658
 1815SOL    HW2 7343  13.445   9.719   3.755
 1816SOL     OW 7344   5.759   1.711   6.398
 1816SOL    HW1 7345   5.766   1.694   6.304
 1816SOL    HW2 7346   5.830   1.660   6.437
 1817SOL     OW 7347   3.220   6.451  10.661
 1817SOL    HW1 7348   3.180   6.364  10.658
 1817SOL    HW2 7349   3.313   6.433  10.674
 1818SOL     OW 7350   3.960  14.316   8.318
 1818SOL    HW1 7351   3.982  14.224   8.311
 1818SOL    HW2 7352   3.942  14.330   8.411
 1819SOL     OW 7353   4.826  11.038   5.780
 1819SOL    HW1 7354   4.857  11.102   5.716
 1819SOL    HW2 7355   4.800  10.962   5.728
 1820SOL     OW 7356   7.426   8.458   8.038
 1820SOL    HW1 7357   7.371   8.379   8.041
 1820SOL    HW2 7358   7.364   8.530   8.031
 1821SOL     OW 7359   1.304   4.481   0.605
 1821SOL    HW1 7360   1.219   4.492   0.647
 1821SOL    HW2 7361   1.291   4.514   0.516
 1822SOL     OW 7362  14.560   7.071   4.077
 1822SOL    HW1 7363  14.631   7.056   4.140
 1822SOL    HW2 7364  14.554   6.988   4.029
 1823SOL     OW 7365   3.496   7.605  13.289
 1823SOL    HW1 7366   3.590   7.589  13.291
 1823SOL    HW2 7367   3.479   7.640  13.201
 1824SOL     OW 7368   5.721   6.845   2.025
 1824SOL    HW1 7369   5.806   6.839   2.068
 1824SOL    HW2 7370   5.699   6.754   2.002
 1825SOL     OW 7371  13.059   3.181   9.161
 1825SOL    HW1 7372  13.153   3.198   9.168
 1825SOL    HW2 7373  13.050   3.128   9.081
 1826SOL     OW 7374   6.402   8.538   8.251
 1826SOL    HW1 7375   6.313   8.513   8.223
 1826SOL    HW2 7376   6.457   8.515   8.176
 1827SOL     OW 7377   8.665   8.033  13.358
 1827SOL    HW1 7378   8.617   8.073  13.285
 1827SOL    HW2 7379   8.634   7.942  13.360
 1828SOL     OW 7380  13.714   3.971   7.424
 1828SOL    HW1 7381  13.652   4.045   7.424
 1828SOL    HW2 7382  13.658   3.893   7.417
 1829SOL     OW 7383   2.358   5.952   6.128
 1829SOL    HW1 7384   2.348   6.045   6.108
 1829SOL    HW2 7385   2.289   5.932   6.191
 1830SOL     OW 7386   8.811   5.074  13.731
 1830SOL    HW1 7387   8.847   4.986  13.727
 1830SOL    HW2 7388   8.830   5.104  13.820
 1831SOL     OW 7389   2.457   4.179   3.903
 1831SOL    HW1 7390   2.515   4.228   3.961
 1831SOL    HW2 7391   2.514   4.144   3.835
 1832SOL     OW 7392  12.354  14.453   4.170
 1832SOL    HW1 7393  12.444  14.469   4.141
 1832SOL    HW2 7394  12.363  14.419   4.259
 1833SOL     OW 7395   1.604  14.245  10.927
 1833SOL    HW1 7396   1.511  14.237  10.905
 1833SOL    HW2 7397   1.604  14.260  11.022
 1834SOL     OW 7398   1.101   3.421   1.046
 1834SOL    HW1 7399   1.059   3.435   0.961
 1834SOL    HW2 7400   1.105   3.508   1.085
 1835SOL     OW 7401   8.382   0.900  11.777
 1835SOL    HW1 7402   8.308   0.954  11.749
 1835SOL    HW2 7403   8.361   0.813  11.743
 1836SOL     OW 7404   9.460   0.370  13.933
 1836SOL    HW1 7405   9.376   0.410  13.909
 1836SOL    HW2 7406   9.437   0.306  14.000
 1837SOL     OW 7407   8.308  14.542  13.722
 1837SOL    HW1 7408   8.248  14.603  13.766
 1837SOL    HW2 7409   8.270  14.529  13.635
 1838SOL     OW 7410   8.966   2.024   8.818
 1838SOL    HW1 7411   8.988   2.042   8.909
 1838SOL    HW2 7412   8.886   1.972   8.823
 1839SOL     OW 7413   3.160  13.956   4.568
 1839SOL    HW1 7414   3.169  13.881   4.508
 1839SOL    HW2 7415   3.114  14.022   4.516
 1840SOL     OW 7416   8.090   8.705   6.452
 1840SOL    HW1 7417   8.110   8.682   6.543
 1840SOL    HW2 7418   8.006   8.750   6.457
 1841SOL     OW 7419   1.523   1.141   8.819
 1841SOL    HW1 7420   1.614   1.141   8.789
 1841SOL    HW2 7421   1.473   1.173   8.743
 1842SOL     OW 7422  13.889   4.459   2.780
 1842SOL    HW1 7423  13.955   4.421   2.839
 1842SOL    HW2 7424  13.829   4.387   2.762
 1843SOL     OW 7425   9.222   3.126   6.834
 1843SOL    HW1 7426   9.129   3.116   6.811
 1843SOL    HW2 7427   9.226   3.208   6.884
 1844SOL     OW 7428  11.370   5.760   8.592
 1844SOL    HW1 7429  11.408   5.696   8.652
 1844SOL    HW2 7430  11.427   5.756   8.515
 1845SOL     OW 7431   8.424   7.548   5.135
 1845SOL    HW1 7432   8.421   7.550   5.040
 1845SOL    HW2 7433   8.354   7.607   5.163
 1846SOL     OW 7434   6.759   4.339   2.191
 1846SOL    HW1 7435   6.749   4.280   2.117
 1846SOL    HW2 7436   6.682   4.396   2.187
 1847SOL     OW 7437   1.116  12.738   8.673
 1847SOL    HW1 7438   1.035  12.782   8.645
 1847SOL    HW2 7439   1.152  12.700   8.593
 1848SOL     OW 7440   3.648  12.383   7.369
 1848SOL    HW1 7441   3.556  12.359   7.354
 1848SOL    HW2 7442   3.681  12.408   7.283
 1849SOL     OW 7443   9.141   4.612   0.119
 1849SOL    HW1 7444   9.186   4.693   0.096
 1849SOL    HW2 7445   9.168   4.595   0.209
 1850SOL     OW 7446  10.211   1.727  12.017
 1850SOL    HW1 7447  10.155   1.775  11.955
 1850SOL    HW2 7448  10.227   1.643  11.975
 1851SOL     OW 7449   7.878   6.629   8.356
 1851SOL    HW1 7450   7.967   6.656   8.378
 1851SOL    HW2 7451   7.855   6.684   8.282
 1852SOL     OW 7452   7.167  12.939   7.602
 1852SOL    HW1 7453   7.102  12.872   7.619
 1852SOL    HW2 7454   7.200  12.964   7.689
 1853SOL     OW 7455   9.378   1.210   1.470
 1853SOL    HW1 7456   9.354   1.121   1.495
 1853SOL    HW2 7457   9.473   1.210   1.465
 1854SOL     OW 7458  10.149  10.319  12.325
 1854SOL    HW1 7459  10.173  10.291  12.237
 1854SOL    HW2 7460  10.087  10.252  12.356
 1855SOL     OW 7461   5.656   3.711   1.651
 1855SOL    HW1 7462   5.600   3.638   1.626
 1855SOL    HW2 7463   5.742   3.687   1.617
 1856SOL     OW 7464   3.286   2.054  12.824
 1856SOL    HW1 7465   3.315   2.072  12.913
 1856SOL    HW2 7466   3.192   2.075  12.825
 1857SOL     OW 7467  13.767  11.502   0.909
 1857SOL    HW1 7468  13.804  11.464   0.989
 1857SOL    HW2 7469  13.757  11.428   0.849
 1858SOL     OW 7470  11.944   3.953   2.332
 1858SOL    HW1 7471  11.894   4.035   2.342
 1858SOL    HW2 7472  11.878   3.884   2.338
 1859SOL     OW 7473  11.457  13.784   7.485
 1859SOL    HW1 7474  11.445  13.698   7.444
 1859SOL    HW2 7475  11.433  13.770   7.577
 1860SOL     OW 7476   0.408   3.851  12.446
 1860SOL    HW1 7477   0.405   3.943  12.471
 1860SOL    HW2 7478   0.497   3.837  12.415
 1861SOL     OW 7479   6.774   6.167   8.501
 1861SOL    HW1 7480   6.801   6.076   8.488
 1861SOL    HW2 7481   6.815   6.192   8.584
 1862SOL     OW 7482   1.570  12.587   3.993
 1862SOL    HW1 7483   1.630  12.550   4.057
 1862SOL    HW2 7484   1.484  12.586   4.037
 1863SOL     OW 7485   4.802   8.357   2.677
 1863SOL    HW1 7486   4.850   8.284   2.636
 1863SOL    HW2 7487   4.728   8.372   2.618
 1864SOL     OW 7488  11.557   4.603   9.709
 1864SOL    HW1 7489  11.516   4.672   9.761
 1864SOL    HW2 7490  11.599   4.650   9.636
 1865SOL     OW 7491   4.373  10.998   2.938
 1865SOL    HW1 7492   4.349  10.906   2.952
 1865SOL    HW2 7493   4.293  11.038   2.903
 1866SOL     OW 7494   4.297  13.911  14.861
 1866SOL    HW1 7495   4.262  13.896  14.773
 1866SOL    HW2 7496   4.263  13.997   0.006
 1867SOL     OW 7497   5.468  13.164   7.861
 1867SOL    HW1 7498   5.449  13.090   7.919
 1867SOL    HW2 7499   5.549  13.202   7.897
 1868SOL     OW 7500  14.819   2.238  12.010
 1868SOL    HW1 7501  14.783   2.207  12.093
 1868SOL    HW2 7502  14.756   2.211  11.944
 1869SOL     OW 7503   0.719   4.306  13.802
 1869SOL    HW1 7504   0.770   4.372  13.755
 1869SOL    HW2 7505   0.651   4.355  13.848
 1870SOL     OW 7506  13.918   8.804  12.818
 1870SOL    HW1 7507  13.972   8.808  12.739
 1870SOL    HW2 7508  13.977   8.827  12.889
 1871SOL     OW 7509   8.279   0.402  10.250
 1871SOL    HW1 7510   8.257   0.430  10.161
 1871SOL    HW2 7511   8.212   0.442  10.305
 1872SOL     OW 7512   0.873   6.632  13.857
 1872SOL    HW1 7513   0.815   6.683  13.799
 1872SOL    HW2 7514   0.824   6.626  13.939
 1873SOL     OW 7515  12.827   6.708   5.614
 1873SOL    HW1 7516  12.828   6.613   5.602
 1873SOL    HW2 7517  12.792   6.720   5.702
 1874SOL     OW 7518   8.611   4.994   2.844
 1874SOL    HW1 7519   8.665   5.070   2.864
 1874SOL    HW2 7520   8.585   5.006   2.752
 1875SOL     OW 7521   8.575   0.758  11.349
 1875SOL    HW1 7522   8.571   0.833  11.289
 1875SOL    HW2 7523   8.614   0.794  11.429
 1876SOL     OW 7524   8.025   5.530  12.222
 1876SOL    HW1 7525   8.082   5.587  12.170
 1876SOL    HW2 7526   7.989   5.468  12.159
 1877SOL     OW 7527   0.884   0.994  13.749
 1877SOL    HW1 7528   0.921   0.907  13.763
 1877SOL    HW2 7529   0.943   1.035  13.686
 1878SOL     OW 7530   1.708   7.783   0.778
 1878SOL    HW1 7531   1.779   7.834   0.817
 1878SOL    HW2 7532   1.656   7.848   0.731
 1879SOL     OW 7533  11.513   1.941   1.206
 1879SOL    HW1 7534  11.427   1.900   1.195
 1879SOL    HW2 7535  11.558   1.925   1.122
 1880SOL     OW 7536   8.072   2.869   8.611
 1880SOL    HW1 7537   8.126   2.895   8.686
 1880SOL    HW2 7538   8.077   2.774   8.609
 1881SOL     OW 7539   6.249   9.500   5.378
 1881SOL    HW1 7540   6.251   9.406   5.391
 1881SOL    HW2 7541   6.240   9.536   5.466
 1882SOL     OW 7542   9.155  10.045  10.080
 1882SOL    HW1 7543   9.116  10.119  10.127
 1882SOL    HW2 7544   9.175  10.080   9.993
 1883SOL     OW 7545  14.347  14.735   2.685
 1883SOL    HW1 7546  14.432  14.756   2.722
 1883SOL    HW2 7547  14.298  14.817   2.687
 1884SOL     OW 7548   3.576   1.253   1.204
 1884SOL    HW1 7549   3.504   1.224   1.261
 1884SOL    HW2 7550   3.641   1.183   1.211
 1885SOL     OW 7551   1.645   7.915  12.603
 1885SOL    HW1 7552   1.672   7.825  12.587
 1885SOL    HW2 7553   1.705   7.968  12.549
 1886SOL     OW 7554  14.527  11.870  11.205
 1886SOL    HW1 7555  14.604  11.823  11.175
 1886SOL    HW2 7556  14.552  11.905  11.290
 1887SOL     OW 7557  12.625  11.602   1.433
 1887SOL    HW1 7558  12.680  11.677   1.409
 1887SOL    HW2 7559  12.674  11.526   1.403
 1888SOL     OW 7560   3.998  12.857   4.042
 1888SOL    HW1 7561   3.991  12.763   4.061
 1888SOL    HW2 7562   4.056  12.891   4.110
 1889SOL     OW 7563   9.259  12.573   4.931
 1889SOL    HW1 7564   9.190  12.511   4.911
 1889SOL    HW2 7565   9.326  12.557   4.865
 1890SOL     OW 7566   6.756  10.742  14.311
 1890SOL    HW1 7567   6.820  10.674  14.332
 1890SOL    HW2 7568   6.732  10.725  14.220
 1891SOL     OW 7569  13.957  11.306   9.157
 1891SOL    HW1 7570  14.040  11.344   9.129
 1891SOL    HW2 7571  13.980  11.222   9.197
 1892SOL     OW 7572   4.082  10.189   3.757
 1892SOL    HW1 7573   3.990  10.216   3.756
 1892SOL    HW2 7574   4.131  10.270   3.740
 1893SOL     OW 7575   2.328  13.474  10.111
 1893SOL    HW1 7576   2.415  13.481  10.151
 1893SOL    HW2 7577   2.271  13.446  10.182
 1894SOL     OW 7578   7.550   5.041   3.324
 1894SOL    HW1 7579   7.585   4.961   3.283
 1894SOL    HW2 7580   7.627   5.083   3.363
 1895SOL     OW 7581  14.600  14.517   9.797
 1895SOL    HW1 7582  14.673  14.579   9.794
 1895SOL    HW2 7583  14.557  14.527   9.712
 1896SOL     OW 7584  13.333   2.483   1.428
 1896SOL    HW1 7585  13.311   2.576   1.415
 1896SOL    HW2 7586  13.253   2.445   1.465
 1897SOL     OW 7587  12.537  14.603   9.841
 1897SOL    HW1 7588  12.539  14.512   9.811
 1897SOL    HW2 7589  12.598  14.605   9.914
 1898SOL     OW 7590   5.483   3.019   9.447
 1898SOL    HW1 7591   5.425   3.038   9.373
 1898SOL    HW2 7592   5.431   2.960   9.503
 1899SOL     OW 7593   9.669   6.574   5.968
 1899SOL    HW1 7594   9.694   6.577   6.060
 1899SOL    HW2 7595   9.656   6.480   5.950
 1900SOL     OW 7596  10.406  12.672   0.963
 1900SOL    HW1 7597  10.430  12.580   0.975
 1900SOL    HW2 7598  10.356  12.673   0.881
 1901SOL     OW 7599  10.580  10.138  13.675
 1901SOL    HW1 7600  10.550  10.060  13.721
 1901SOL    HW2 7601  10.505  10.167  13.624
 1902SOL     OW 7602  12.955   7.095  13.149
 1902SOL    HW1 7603  12.952   7.106  13.244
 1902SOL    HW2 7604  12.864   7.082  13.123
 1903SOL     OW 7605   3.331   3.525   6.038
 1903SOL    HW1 7606   3.296   3.589   5.976
 1903SOL    HW2 7607   3.420   3.507   6.007
 1904SOL     OW 7608   2.120   2.305   7.290
 1904SOL    HW1 7609   2.099   2.225   7.339
 1904SOL    HW2 7610   2.090   2.288   7.201
 1905SOL     OW 7611   8.635  11.610   3.853
 1905SOL    HW1 7612   8.619  11.587   3.762
 1905SOL    HW2 7613   8.674  11.531   3.891
 1906SOL     OW 7614   7.289  13.763  11.863
 1906SOL    HW1 7615   7.308  13.672  11.842
 1906SOL    HW2 7616   7.304  13.769  11.958
 1907SOL     OW 7617   0.126   3.460   0.522
 1907SOL    HW1 7618   0.217   3.460   0.554
 1907SOL    HW2 7619   0.134   3.487   0.430
 1908SOL     OW 7620   3.555  12.130   8.847
 1908SOL    HW1 7621   3.524  12.053   8.895
 1908SOL    HW2 7622   3.560  12.102   8.756
 1909SOL     OW 7623   1.905  13.556   3.414
 1909SOL    HW1 7624   1.876  13.498   3.485
 1909SOL    HW2 7625   2.001  13.558   3.423
 1910SOL     OW 7626  12.484  13.630   0.482
 1910SOL    HW1 7627  12.414  13.636   0.417
 1910SOL    HW2 7628  12.494  13.536   0.498
 1911SOL     OW 7629   1.464   7.602  13.899
 1911SOL    HW1 7630   1.390   7.556  13.939
 1911SOL    HW2 7631   1.499   7.657  13.970
 1912SOL     OW 7632   6.374   3.498   3.326
 1912SOL    HW1 7633   6.321   3.577   3.332
 1912SOL    HW2 7634   6.362   3.455   3.411
 1913SOL     OW 7635   0.893   0.771   2.381
 1913SOL    HW1 7636   0.834   0.701   2.408
 1913SOL    HW2 7637   0.980   0.741   2.408
 1914SOL     OW 7638  10.681  11.987  10.435
 1914SOL    HW1 7639  10.664  11.971  10.343
 1914SOL    HW2 7640  10.742  11.918  10.461
 1915SOL     OW 7641   1.088   0.543  10.807
 1915SOL    HW1 7642   1.118   0.512  10.892
 1915SOL    HW2 7643   1.049   0.467  10.765
 1916SOL     OW 7644   8.689   4.983  10.984
 1916SOL    HW1 7645   8.663   5.042  10.913
 1916SOL    HW2 7646   8.694   5.040  11.061
 1917SOL     OW 7647   4.615  11.226   0.702
 1917SOL    HW1 7648   4.632  11.241   0.609
 1917SOL    HW2 7649   4.529  11.183   0.704
 1918SOL     OW 7650  11.513  10.664  10.603
 1918SOL    HW1 7651  11.516  10.713  10.521
 1918SOL    HW2 7652  11.539  10.575  10.578
 1919SOL     OW 7653  11.605   1.854  10.951
 1919SOL    HW1 7654  11.584   1.918  10.883
 1919SOL    HW2 7655  11.670   1.898  11.006
 1920SOL     OW 7656  11.623  12.249   6.105
 1920SOL    HW1 7657  11.612  12.215   6.016
 1920SOL    HW2 7658  11.698  12.201   6.140
 1921SOL     OW 7659   7.499   7.476  12.273
 1921SOL    HW1 7660   7.426   7.427  12.233
 1921SOL    HW2 7661   7.548   7.409  12.322
 1922SOL     OW 7662   0.821  14.240   0.506
 1922SOL    HW1 7663   0.772  14.195   0.437
 1922SOL    HW2 7664   0.861  14.315   0.463
 1923SOL     OW 7665   5.487  13.762  14.667
 1923SOL    HW1 7666   5.444  13.708  14.601
 1923SOL    HW2 7667   5.525  13.699  14.729
 1924SOL     OW 7668  10.932  14.035  11.662
 1924SOL    HW1 7669  10.897  14.109  11.712
 1924SOL    HW2 7670  10.948  14.070  11.575
 1925SOL     OW 7671   1.992   7.334   8.259
 1925SOL    HW1 7672   1.997   7.331   8.163
 1925SOL    HW2 7673   2.013   7.245   8.287
 1926SOL     OW 7674   9.061   2.360   9.974
 1926SOL    HW1 7675   9.153   2.387   9.982
 1926SOL    HW2 7676   9.045   2.355   9.880
 1927SOL     OW 7677  13.601   7.990   6.686
 1927SOL    HW1 7678  13.516   8.021   6.655
 1927SOL    HW2 7679  13.605   7.898   6.657
 1928SOL     OW 7680  14.637  13.930  11.606
 1928SOL    HW1 7681  14.664  13.844  11.638
 1928SOL    HW2 7682  14.550  13.943  11.645
 1929SOL     OW 7683  11.003   6.612   9.248
 1929SOL    HW1 7684  11.052   6.649   9.175
 1929SOL    HW2 7685  11.069   6.583   9.310
 1930SOL     OW 7686   4.074  10.924   7.019
 1930SOL    HW1 7687   4.026  10.979   7.080
 1930SOL    HW2 7688   4.161  10.966   7.012
 1931SOL     OW 7689  10.504   1.908   9.509
 1931SOL    HW1 7690  10.599   1.903   9.518
 1931SOL    HW2 7691  10.483   1.840   9.445
 1932SOL     OW 7692   2.100  14.786   7.387
 1932SOL    HW1 7693   2.068  14.699   7.410
 1932SOL    HW2 7694   2.095  14.835   7.469
 1933SOL     OW 7695  10.645  14.052  14.587
 1933SOL    HW1 7696  10.661  14.010  14.502
 1933SOL    HW2 7697  10.722  14.031  14.639
 1934SOL     OW 7698   1.983   0.544  12.529
 1934SOL    HW1 7699   2.075   0.549  12.555
 1934SOL    HW2 7700   1.985   0.532  12.434
 1935SOL     OW 7701   6.784   4.063  14.787
 1935SOL    HW1 7702   6.871   4.093  14.758
 1935SOL    HW2 7703   6.799   3.973  14.816
 1936SOL     OW 7704  10.992  11.930  12.223
 1936SOL    HW1 7705  11.022  11.981  12.299
 1936SOL    HW2 7706  11.072  11.914  12.172
 1937SOL     OW 7707   1.448  10.112   7.839
 1937SOL    HW1 7708   1.454  10.022   7.806
 1937SOL    HW2 7709   1.365  10.115   7.887
 1938SOL     OW 7710   2.940   0.623   7.133
 1938SOL    HW1 7711   2.917   0.552   7.193
 1938SOL    HW2 7712   2.929   0.586   7.046
 1939SOL     OW 7713   7.324  13.751   2.780
 1939SOL    HW1 7714   7.242  13.782   2.819
 1939SOL    HW2 7715   7.340  13.810   2.707
 1940SOL     OW 7716  14.616   8.673  12.949
 1940SOL    HW1 7717  14.571   8.750  12.916
 1940SOL    HW2 7718  14.692   8.663  12.891
 1941SOL     OW 7719  11.779  14.798   7.614
 1941SOL    HW1 7720  11.833  14.773   7.689
 1941SOL    HW2 7721  11.836  14.787   7.538
 1942SOL     OW 7722  14.540   6.559   4.838
 1942SOL    HW1 7723  14.594   6.637   4.828
 1942SOL    HW2 7724  14.493   6.551   4.756
 1943SOL     OW 7725  11.513   3.444   0.368
 1943SOL    HW1 7726  11.444   3.379   0.384
 1943SOL    HW2 7727  11.472   3.528   0.387
 1944SOL     OW 7728   8.041   1.952   3.655
 1944SOL    HW1 7729   8.079   1.916   3.575
 1944SOL    HW2 7730   8.112   2.002   3.695
 1945SOL     OW 7731   2.412   7.084   4.487
 1945SOL    HW1 7732   2.393   6.991   4.476
 1945SOL    HW2 7733   2.483   7.101   4.425
 1946SOL     OW 7734   0.347  12.114   5.279
 1946SOL    HW1 7735   0.356  12.085   5.369
 1946SOL    HW2 7736   0.436  12.129   5.249
 1947SOL     OW 7737   0.986  14.089   3.465
 1947SOL    HW1 7738   1.054  14.153   3.442
 1947SOL    HW2 7739   0.906  14.140   3.472
 1948SOL     OW 7740  12.101   6.606   8.266
 1948SOL    HW1 7741  12.135   6.567   8.185
 1948SOL    HW2 7742  12.065   6.532   8.314
 1949SOL     OW 7743   3.534   9.934   3.076
 1949SOL    HW1 7744   3.593   9.859   3.063
 1949SOL    HW2 7745   3.591  10.011   3.071
 1950SOL     OW 7746  11.780  14.464  13.066
 1950SOL    HW1 7747  11.764  14.404  13.140
 1950SOL    HW2 7748  11.692  14.491  13.039
 1951SOL     OW 7749   6.949   7.124  11.453
 1951SOL    HW1 7750   6.890   7.081  11.391
 1951SOL    HW2 7751   7.027   7.145  11.401
 1952SOL     OW 7752  12.573  12.638  13.939
 1952SOL    HW1 7753  12.504  12.705  13.941
 1952SOL    HW2 7754  12.633  12.667  13.870
 1953SOL     OW 7755   2.167  13.797  11.827
 1953SOL    HW1 7756   2.156  13.884  11.788
 1953SOL    HW2 7757   2.089  13.785  11.881
 1954SOL     OW 7758   7.984   7.106   7.288
 1954SOL    HW1 7759   7.923   7.032   7.296
 1954SOL    HW2 7760   8.050   7.075   7.226
 1955SOL     OW 7761  14.586   9.105  13.938
 1955SOL    HW1 7762  14.519   9.134  13.999
 1955SOL    HW2 7763  14.600   9.012  13.959
 1956SOL     OW 7764   5.235  10.866   0.412
 1956SOL    HW1 7765   5.227  10.787   0.465
 1956SOL    HW2 7766   5.247  10.835   0.323
 1957SOL     OW 7767   9.513   9.160   3.697
 1957SOL    HW1 7768   9.578   9.230   3.708
 1957SOL    HW2 7769   9.439   9.202   3.654
 1958SOL     OW 7770   9.614   7.653  12.732
 1958SOL    HW1 7771   9.588   7.707  12.806
 1958SOL    HW2 7772   9.564   7.686  12.658
 1959SOL     OW 7773  12.215  10.893   8.211
 1959SOL    HW1 7774  12.277  10.887   8.138
 1959SOL    HW2 7775  12.165  10.812   8.208
 1960SOL     OW 7776   3.103   8.102   8.087
 1960SOL    HW1 7777   3.151   8.182   8.106
 1960SOL    HW2 7778   3.012   8.122   8.110
 1961SOL     OW 7779  13.671   5.598   4.246
 1961SOL    HW1 7780  13.688   5.578   4.338
 1961SOL    HW2 7781  13.589   5.551   4.226
 1962SOL     OW 7782   5.926   9.884   1.763
 1962SOL    HW1 7783   5.851   9.825   1.769
 1962SOL    HW2 7784   5.909   9.937   1.685
 1963SOL     OW 7785  11.006   5.908  14.686
 1963SOL    HW1 7786  10.954   5.874  14.613
 1963SOL    HW2 7787  10.950   5.896  14.763
 1964SOL     OW 7788   3.917   9.595  12.106
 1964SOL    HW1 7789   3.928   9.687  12.080
 1964SOL    HW2 7790   3.913   9.597  12.201
 1965SOL     OW 7791   8.796   7.283  11.803
 1965SOL    HW1 7792   8.851   7.278  11.881
 1965SOL    HW2 7793   8.854   7.262  11.730
 1966SOL     OW 7794   9.947   9.293   1.290
 1966SOL    HW1 7795  10.036   9.323   1.271
 1966SOL    HW2 7796   9.892   9.369   1.272
 1967SOL     OW 7797  10.622  10.424   5.505
 1967SOL    HW1 7798  10.564  10.421   5.429
 1967SOL    HW2 7799  10.599  10.347   5.557
 1968SOL     OW 7800   6.871  13.812   8.491
 1968SOL    HW1 7801   6.839  13.900   8.470
 1968SOL    HW2 7802   6.921  13.785   8.414
 1969SOL     OW 7803   2.862   2.075   7.274
 1969SOL    HW1 7804   2.864   1.979   7.274
 1969SOL    HW2 7805   2.936   2.100   7.219
 1970SOL     OW 7806   3.855   4.129  12.518
 1970SOL    HW1 7807   3.818   4.134  12.430
 1970SOL    HW2 7808   3.937   4.178  12.513
 1971SOL     OW 7809   2.803   2.312   9.055
 1971SOL    HW1 7810   2.731   2.248   9.054
 1971SOL    HW2 7811   2.764   2.391   9.094
 1972SOL     OW 7812   0.546   5.811  13.119
 1972SOL    HW1 7813   0.480   5.881  13.118
 1972SOL    HW2 7814   0.501   5.736  13.158
 1973SOL     OW 7815  14.240  10.058   3.490
 1973SOL    HW1 7816  14.329  10.088   3.476
 1973SOL    HW2 7817  14.246   9.997   3.563
 1974SOL     OW 7818  12.876   0.384  12.915
 1974SOL    HW1 7819  12.792   0.383  12.868
 1974SOL    HW2 7820  12.886   0.295  12.947
 1975SOL     OW 7821   0.772   0.543   7.057
 1975SOL    HW1 7822   0.705   0.543   6.988
 1975SOL    HW2 7823   0.757   0.625   7.104
 1976SOL     OW 7824  13.433  11.315  10.153
 1976SOL    HW1 7825  13.506  11.376  10.156
 1976SOL    HW2 7826  13.356  11.370  10.137
 1977SOL     OW 7827   1.267   8.361   2.301
 1977SOL    HW1 7828   1.312   8.442   2.326
 1977SOL    HW2 7829   1.224   8.332   2.381
 1978SOL     OW 7830   7.804   4.366   5.209
 1978SOL    HW1 7831   7.809   4.312   5.131
 1978SOL    HW2 7832   7.892   4.402   5.218
 1979SOL     OW 7833   7.120   7.585   5.462
 1979SOL    HW1 7834   7.175   7.658   5.432
 1979SOL    HW2 7835   7.103   7.604   5.554
 1980SOL     OW 7836   4.344   9.101   5.534
 1980SOL    HW1 7837   4.309   9.053   5.459
 1980SOL    HW2 7838   4.284   9.176   5.544
 1981SOL     OW 7839   5.378   5.961   4.246
 1981SOL    HW1 7840   5.406   5.871   4.229
 1981SOL    HW2 7841   5.338   5.958   4.333
 1982SOL     OW 7842   3.130   9.659  14.663
 1982SOL    HW1 7843   3.100   9.673  14.753
 1982SOL    HW2 7844   3.106   9.569  14.643
 1983SOL     OW 7845   3.500   2.614  13.629
 1983SOL    HW1 7846   3.583   2.661  13.622
 1983SOL    HW2 7847   3.478   2.591  13.539
 1984SOL     OW 7848   3.272   7.469  14.535
 1984SOL    HW1 7849   3.241   7.379  14.541
 1984SOL    HW2 7850   3.193   7.522  14.548
 1985SOL     OW 7851   3.746   0.961   3.923
 1985SOL    HW1 7852   3.818   0.932   3.980
 1985SOL    HW2 7853   3.673   0.903   3.946
 1986SOL     OW 7854   0.582  14.633   9.958
 1986SOL    HW1 7855   0.649  14.667  10.017
 1986SOL    HW2 7856   0.574  14.701   9.891
 1987SOL     OW 7857   0.785   7.769  12.878
 1987SOL    HW1 7858   0.806   7.699  12.816
 1987SOL    HW2 7859   0.822   7.739  12.961
 1988SOL     OW 7860   1.010   1.717   1.214
 1988SOL    HW1 7861   0.958   1.797   1.200
 1988SOL    HW2 7862   1.001   1.668   1.132
 1989SOL     OW 7863   4.082   3.285   1.096
 1989SOL    HW1 7864   4.162   3.294   1.147
 1989SOL    HW2 7865   4.058   3.192   1.106
 1990SOL     OW 7866  10.932  11.473  12.898
 1990SOL    HW1 7867  10.979  11.555  12.911
 1990SOL    HW2 7868  10.840  11.498  12.897
 1991SOL     OW 7869  12.978   2.172   9.135
 1991SOL    HW1 7870  13.006   2.172   9.044
 1991SOL    HW2 7871  12.911   2.104   9.140
 1992SOL     OW 7872   1.665  13.291  12.009
 1992SOL    HW1 7873   1.681  13.331  12.095
 1992SOL    HW2 7874   1.570  13.283  12.004
 1993SOL     OW 7875  12.163  12.388   6.608
 1993SOL    HW1 7876  12.166  12.478   6.643
 1993SOL    HW2 7877  12.118  12.396   6.524
 1994SOL     OW 7878  11.781   6.140   8.878
 1994SOL    HW1 7879  11.793   6.046   8.888
 1994SOL    HW2 7880  11.696   6.149   8.835
 1995SOL     OW 7881   6.109  14.245  12.041
 1995SOL    HW1 7882   6.114  14.310  12.111
 1995SOL    HW2 7883   6.082  14.164  12.085
 1996SOL     OW 7884   1.361   5.716   9.681
 1996SOL    HW1 7885   1.385   5.723   9.589
 1996SOL    HW2 7886   1.417   5.646   9.715
 1997SOL     OW 7887  13.615  12.365   0.458
 1997SOL    HW1 7888  13.684  12.339   0.519
 1997SOL    HW2 7889  13.548  12.298   0.466
 1998SOL     OW 7890   8.886   8.239   1.904
 1998SOL    HW1 7891   8.840   8.197   1.831
 1998SOL    HW2 7892   8.830   8.312   1.929
 1999SOL     OW 7893   3.764   2.356   9.673
 1999SOL    HW1 7894   3.796   2.434   9.718
 1999SOL    HW2 7895   3.749   2.384   9.583
 2000SOL     OW 7896   3.629   6.055  14.400
 2000SOL    HW1 7897   3.537   6.036  14.379
 2000SOL    HW2 7898   3.634   6.150  14.402
 2001SOL     OW 7899   3.937   4.567   8.791
 2001SOL    HW1 7900   4.000   4.631   8.757
 2001SOL    HW2 7901   3.935   4.498   8.724
 2002SOL     OW 7902  10.891   6.083  14.096
 2002SOL    HW1 7903  10.902   6.027  14.173
 2002SOL    HW2 7904  10.967   6.064  14.042
 2003SOL     OW 7905   2.527   6.455  10.866
 2003SOL    HW1 7906   2.445   6.482  10.907
 2003SOL    HW2 7907   2.590   6.522  10.893
 2004SOL     OW 7908   4.226   7.223  11.147
 2004SOL    HW1 7909   4.152   7.243  11.090
 2004SOL    HW2 7910   4.303   7.256  11.099
 2005SOL     OW 7911  11.104  14.108  11.078
 2005SOL    HW1 7912  11.138  14.111  11.168
 2005SOL    HW2 7913  11.102  14.015  11.056
 2006SOL     OW 7914   5.825   9.916   6.709
 2006SOL    HW1 7915   5.822   9.877   6.622
 2006SOL    HW2 7916   5.790  10.005   6.697
 2007SOL     OW 7917   5.220  10.016  14.635
 2007SOL    HW1 7918   5.142   9.961  14.647
 2007SOL    HW2 7919   5.293   9.953  14.634
 2008SOL     OW 7920   8.930   8.617   2.832
 2008SOL    HW1 7921   8.925   8.670   2.911
 2008SOL    HW2 7922   8.852   8.561   2.836
 2009SOL     OW 7923   6.213  10.172   8.822
 2009SOL    HW1 7924   6.189  10.093   8.871
 2009SOL    HW2 7925   6.286  10.209   8.871
 2010SOL     OW 7926  14.415  10.136   0.214
 2010SOL    HW1 7927  14.333  10.125   0.262
 2010SOL    HW2 7928  14.467  10.059   0.239
 2011SOL     OW 7929   2.938   2.020  10.771
 2011SOL    HW1 7930   2.850   2.012  10.806
 2011SOL    HW2 7931   2.992   1.962  10.826
 2012SOL     OW 7932   4.105  13.728   9.301
 2012SOL    HW1 7933   4.138  13.716   9.390
 2012SOL    HW2 7934   4.011  13.742   9.312
 2013SOL     OW 7935  11.436  14.813   2.524
 2013SOL    HW1 7936  11.526  14.819   2.492
 2013SOL    HW2 7937  11.444  14.811   2.619
 2014SOL     OW 7938   0.810   6.789   7.135
 2014SOL    HW1 7939   0.865   6.750   7.067
 2014SOL    HW2 7940   0.777   6.714   7.185
 2015SOL     OW 7941   9.446   8.155  11.667
 2015SOL    HW1 7942   9.414   8.235  11.624
 2015SOL    HW2 7943   9.391   8.085  11.632
 2016SOL     OW 7944  12.746  13.029   9.570
 2016SOL    HW1 7945  12.705  12.972   9.635
 2016SOL    HW2 7946  12.681  13.035   9.500
 2017SOL     OW 7947   1.924   3.087   4.070
 2017SOL    HW1 7948   1.871   3.086   4.150
 2017SOL    HW2 7949   1.997   3.146   4.090
 2018SOL     OW 7950   8.369   8.755   3.216
 2018SOL    HW1 7951   8.346   8.787   3.303
 2018SOL    HW2 7952   8.445   8.699   3.229
 2019SOL     OW 7953   4.193   1.017   9.032
 2019SOL    HW1 7954   4.236   1.099   9.055
 2019SOL    HW2 7955   4.260   0.965   8.990
 2020SOL     OW 7956   3.093  11.223   3.211
 2020SOL    HW1 7957   3.159  11.242   3.278
 2020SOL    HW2 7958   3.016  11.271   3.240
 2021SOL     OW 7959   0.894   4.882  11.297
 2021SOL    HW1 7960   0.903   4.836  11.380
 2021SOL    HW2 7961   0.833   4.829  11.246
 2022SOL     OW 7962  12.252   4.154   7.307
 2022SOL    HW1 7963  12.282   4.122   7.222
 2022SOL    HW2 7964  12.318   4.219   7.333
 2023SOL     OW 7965   2.432   8.644   5.502
 2023SOL    HW1 7966   2.408   8.731   5.534
 2023SOL    HW2 7967   2.394   8.639   5.414
 2024SOL     OW 7968   5.205   6.106   1.107
 2024SOL    HW1 7969   5.163   6.024   1.132
 2024SOL    HW2 7970   5.277   6.079   1.050
 2025SOL     OW 7971  14.538   4.898   3.836
 2025SOL    HW1 7972  14.520   4.853   3.753
 2025SOL    HW2 7973  14.495   4.983   3.826
 2026SOL     OW 7974   1.993   9.349   2.116
 2026SOL    HW1 7975   2.086   9.333   2.101
 2026SOL    HW2 7976   1.974   9.430   2.070
 2027SOL     OW 7977   4.541   1.403   8.095
 2027SOL    HW1 7978   4.525   1.322   8.142
 2027SOL    HW2 7979   4.636   1.407   8.083
 2028SOL     OW 7980  10.369  13.146   1.991
 2028SOL    HW1 7981  10.340  13.061   2.025
 2028SOL    HW2 7982  10.459  13.155   2.021
 2029SOL     OW 7983   2.537   0.596  13.956
 2029SOL    HW1 7984   2.450   0.635  13.955
 2029SOL    HW2 7985   2.566   0.600  13.864
 2030SOL     OW 7986   9.221   0.217  14.076
 2030SOL    HW1 7987   9.279   0.145  14.050
 2030SOL    HW2 7988   9.154   0.175  14.131
 2031SOL     OW 7989  12.545   9.263   6.720
 2031SOL    HW1 7990  12.560   9.309   6.637
 2031SOL    HW2 7991  12.567   9.327   6.787
 2032SOL     OW 7992   3.787   5.833   2.519
 2032SOL    HW1 7993   3.774   5.793   2.433
 2032SOL    HW2 7994   3.873   5.873   2.514
 2033SOL     OW 7995   5.774   7.636  13.641
 2033SOL    HW1 7996   5.840   7.686  13.592
 2033SOL    HW2 7997   5.690   7.665  13.604
 2034SOL     OW 7998   8.947   4.786   9.454
 2034SOL    HW1 7999   8.994   4.744   9.382
 2034SOL    HW2 8000   8.897   4.715   9.495
 2035SOL     OW 8001   2.566   6.380   0.243
 2035SOL    HW1 8002   2.614   6.298   0.257
 2035SOL    HW2 8003   2.474   6.356   0.256
 2036SOL     OW 8004   2.267   3.229  14.294
 2036SOL    HW1 8005   2.239   3.184  14.374
 2036SOL    HW2 8006   2.216   3.188  14.224
 2037SOL     OW 8007   3.536   4.740   5.432
 2037SOL    HW1 8008   3.603   4.704   5.491
 2037SOL    HW2 8009   3.453   4.717   5.473
 2038SOL     OW 8010   4.842   2.418   6.489
 2038SOL    HW1 8011   4.793   2.336   6.487
 2038SOL    HW2 8012   4.878   2.426   6.400
 2039SOL     OW 8013   4.844   5.039   3.987
 2039SOL    HW1 8014   4.792   5.096   4.045
 2039SOL    HW2 8015   4.931   5.078   3.987
 2040SOL     OW 8016   5.973  10.789   8.368
 2040SOL    HW1 8017   6.042  10.768   8.432
 2040SOL    HW2 8018   5.940  10.704   8.339
 2041SOL     OW 8019  10.814   5.914   0.944
 2041SOL    HW1 8020  10.802   5.824   0.913
 2041SOL    HW2 8021  10.900   5.940   0.910
 2042SOL     OW 8022  13.704   5.007  13.904
 2042SOL    HW1 8023  13.713   4.943  13.974
 2042SOL    HW2 8024  13.760   4.973  13.833
 2043SOL     OW 8025   3.458   2.510   4.425
 2043SOL    HW1 8026   3.463   2.472   4.513
 2043SOL    HW2 8027   3.452   2.434   4.367
 2044SOL     OW 8028   5.504   4.090   2.318
 2044SOL    HW1 8029   5.567   4.152   2.355
 2044SOL    HW2 8030   5.419   4.131   2.333
 2045SOL     OW 8031   6.339   2.647   6.374
 2045SOL    HW1 8032   6.430   2.620   6.358
 2045SOL    HW2 8033   6.347   2.722   6.433
 2046SOL     OW 8034  12.355   8.619   0.814
 2046SOL    HW1 8035  12.437   8.660   0.789
 2046SOL    HW2 8036  12.299   8.691   0.843
 2047SOL     OW 8037   0.639   2.205   6.667
 2047SOL    HW1 8038   0.631   2.298   6.690
 2047SOL    HW2 8039   0.680   2.206   6.580
 2048SOL     OW 8040   0.250   9.261   8.542
 2048SOL    HW1 8041   0.207   9.176   8.555
 2048SOL    HW2 8042   0.234   9.309   8.623
 2049SOL     OW 8043   4.136   4.957   7.017
 2049SOL    HW1 8044   4.168   5.030   6.965
 2049SOL    HW2 8045   4.161   4.879   6.967
 2050SOL     OW 8046   5.200   8.391  13.896
 2050SOL    HW1 8047   5.204   8.349  13.982
 2050SOL    HW2 8048   5.118   8.358  13.858
 2051SOL     OW 8049  11.257   5.899   2.002
 2051SOL    HW1 8050  11.229   5.988   2.024
 2051SOL    HW2 8051  11.283   5.904   1.910
 2052SOL     OW 8052   4.047  11.900  10.911
 2052SOL    HW1 8053   4.062  11.928  11.001
 2052SOL    HW2 8054   3.957  11.927  10.892
 2053SOL     OW 8055   0.135   8.011   5.988
 2053SOL    HW1 8056   0.125   8.082   6.051
 2053SOL    HW2 8057   0.118   8.053   5.903
 2054SOL     OW 8058   7.931   0.219   5.112
 2054SOL    HW1 8059   7.884   0.201   5.193
 2054SOL    HW2 8060   7.915   0.312   5.095
 2055SOL     OW 8061  11.376  13.443   9.929
 2055SOL    HW1 8062  11.341  13.446   9.839
 2055SOL    HW2 8063  11.335  13.516   9.973
 2056SOL     OW 8064   2.027   4.897   2.909
 2056SOL    HW1 8065   2.033   4.826   2.972
 2056SOL    HW2 8066   2.013   4.975   2.963
 2057SOL     OW 8067   1.371   0.237  10.978
 2057SOL    HW1 8068   1.397   0.243  11.070
 2057SOL    HW2 8069   1.318   0.157  10.974
 2058SOL     OW 8070  13.856  14.112   5.803
 2058SOL    HW1 8071  13.861  14.121   5.898
 2058SOL    HW2 8072  13.889  14.196   5.770
 2059SOL     OW 8073   4.752  12.986  12.955
 2059SOL    HW1 8074   4.684  13.041  12.995
 2059SOL    HW2 8075   4.714  12.959  12.871
 2060SOL     OW 8076  14.146  14.385   4.745
 2060SOL    HW1 8077  14.115  14.295   4.729
 2060SOL    HW2 8078  14.240  14.381   4.725
 2061SOL     OW 8079   4.994   9.174   6.240
 2061SOL    HW1 8080   5.060   9.217   6.185
 2061SOL    HW2 8081   4.912   9.217   6.217
 2062SOL     OW 8082   4.175   8.031   8.636
 2062SOL    HW1 8083   4.130   8.042   8.552
 2062SOL    HW2 8084   4.264   8.006   8.612
 2063SOL     OW 8085   9.906   1.983   2.379
 2063SOL    HW1 8086   9.811   1.968   2.385
 2063SOL    HW2 8087   9.931   1.940   2.297
 2064SOL     OW 8088   3.810   2.368  14.148
 2064SOL    HW1 8089   3.728   2.343  14.192
 2064SOL    HW2 8090   3.781   2.404  14.064
 2065SOL     OW 8091   7.489   6.588   2.560
 2065SOL    HW1 8092   7.560   6.556   2.615
 2065SOL    HW2 8093   7.532   6.626   2.484
 2066SOL     OW 8094  13.265   8.221   4.291
 2066SOL    HW1 8095  13.316   8.197   4.213
 2066SOL    HW2 8096  13.298   8.165   4.360
 2067SOL     OW 8097   9.992   3.772   5.686
 2067SOL    HW1 8098   9.960   3.682   5.684
 2067SOL    HW2 8099  10.064   3.774   5.623
 2068SOL     OW 8100  11.275   9.550   6.604
 2068SOL    HW1 8101  11.346   9.583   6.550
 2068SOL    HW2 8102  11.215   9.624   6.614
 2069SOL     OW 8103   6.679   9.897   2.703
 2069SOL    HW1 8104   6.749   9.868   2.762
 2069SOL    HW2 8105   6.639   9.972   2.748
 2070SOL     OW 8106   7.761   9.653   2.037
 2070SOL    HW1 8107   7.709   9.696   2.105
 2070SOL    HW2 8108   7.757   9.712   1.963
 2071SOL     OW 8109   5.486   4.928  10.917
 2071SOL    HW1 8110   5.510   4.933  11.009
 2071SOL    HW2 8111   5.446   5.012  10.897
 2072SOL     OW 8112   3.245   6.317   6.656
 2072SOL    HW1 8113   3.149   6.324   6.660
 2072SOL    HW2 8114   3.262   6.224   6.670
 2073SOL     OW 8115   7.439   6.723   8.548
 2073SOL    HW1 8116   7.529   6.751   8.566
 2073SOL    HW2 8117   7.448   6.662   8.475
 2074SOL     OW 8118  13.789   7.050  14.715
 2074SOL    HW1 8119  13.844   7.118  14.753
 2074SOL    HW2 8120  13.840   6.970  14.725
 2075SOL     OW 8121  13.447  12.488   3.842
 2075SOL    HW1 8122  13.540  12.481   3.819
 2075SOL    HW2 8123  13.430  12.582   3.843
 2076SOL     OW 8124   1.971   3.094   2.952
 2076SOL    HW1 8125   2.020   3.162   2.906
 2076SOL    HW2 8126   2.027   3.016   2.949
 2077SOL     OW 8127   0.179   7.892   4.057
 2077SOL    HW1 8128   0.123   7.932   4.123
 2077SOL    HW2 8129   0.122   7.878   3.982
 2078SOL     OW 8130   6.767  12.725   8.664
 2078SOL    HW1 8131   6.826  12.693   8.732
 2078SOL    HW2 8132   6.712  12.649   8.642
 2079SOL     OW 8133  14.860  10.526  10.570
 2079SOL    HW1 8134   0.019  10.439  10.564
 2079SOL    HW2 8135  14.840  10.549  10.479
 2080SOL     OW 8136   1.702   9.745   6.329
 2080SOL    HW1 8137   1.674   9.696   6.251
 2080SOL    HW2 8138   1.796   9.732   6.334
 2081SOL     OW 8139   8.421  12.962  10.320
 2081SOL    HW1 8140   8.431  13.042  10.268
 2081SOL    HW2 8141   8.365  12.988  10.393
 2082SOL     OW 8142  14.625  11.605  11.765
 2082SOL    HW1 8143  14.620  11.583  11.858
 2082SOL    HW2 8144  14.592  11.527  11.720
 2083SOL     OW 8145  13.911   1.948   9.493
 2083SOL    HW1 8146  13.998   1.966   9.460
 2083SOL    HW2 8147  13.919   1.953   9.588
 2084SOL     OW 8148   9.844   9.473   0.029
 2084SOL    HW1 8149   9.831   9.380   0.011
 2084SOL    HW2 8150   9.940   9.484   0.032
 2085SOL     OW 8151   8.200   9.916   6.404
 2085SOL    HW1 8152   8.175   9.951   6.490
 2085SOL    HW2 8153   8.243   9.833   6.424
 2086SOL     OW 8154   1.272   7.424   3.752
 2086SOL    HW1 8155   1.247   7.439   3.661
 2086SOL    HW2 8156   1.191   7.437   3.802
 2087SOL     OW 8157   0.655  13.618   6.728
 2087SOL    HW1 8158   0.597  13.544   6.712
 2087SOL    HW2 8159   0.636  13.680   6.658
 2088SOL     OW 8160   5.820   5.831  10.139
 2088SOL    HW1 8161   5.838   5.802  10.229
 2088SOL    HW2 8162   5.872   5.910  10.129
 2089SOL     OW 8163   1.546   7.980  10.128
 2089SOL    HW1 8164   1.529   8.074  10.119
 2089SOL    HW2 8165   1.642   7.974  10.134
 2090SOL     OW 8166   8.686   2.049   1.645
 2090SOL    HW1 8167   8.616   2.093   1.596
 2090SOL    HW2 8168   8.757   2.114   1.647
 2091SOL     OW 8169   2.252   3.089  10.994
 2091SOL    HW1 8170   2.305   3.036  11.053
 2091SOL    HW2 8171   2.204   3.026  10.940
 2092SOL     OW 8172   6.878   7.563   2.735
 2092SOL    HW1 8173   6.892   7.504   2.808
 2092SOL    HW2 8174   6.814   7.627   2.766
 2093SOL     OW 8175   9.628   2.060   3.029
 2093SOL    HW1 8176   9.643   1.966   3.031
 2093SOL    HW2 8177   9.617   2.085   3.120
 2094SOL     OW 8178   0.890   3.001  10.386
 2094SOL    HW1 8179   0.852   2.961  10.308
 2094SOL    HW2 8180   0.869   2.941  10.458
 2095SOL     OW 8181   8.619  10.222   9.288
 2095SOL    HW1 8182   8.680  10.295   9.304
 2095SOL    HW2 8183   8.545  10.263   9.244
 2096SOL     OW 8184  14.783   9.851   1.681
 2096SOL    HW1 8185  14.713   9.816   1.627
 2096SOL    HW2 8186  14.744   9.925   1.727
 2097SOL     OW 8187  14.343  13.172   1.688
 2097SOL    HW1 8188  14.417  13.231   1.677
 2097SOL    HW2 8189  14.267  13.224   1.664
 2098SOL     OW 8190   2.049   8.853  14.832
 2098SOL    HW1 8191   1.983   8.922  14.828
 2098SOL    HW2 8192   2.111   8.874  14.762
 2099SOL     OW 8193   8.832  11.518  14.136
 2099SOL    HW1 8194   8.877  11.434  14.126
 2099SOL    HW2 8195   8.827  11.532  14.230
 2100SOL     OW 8196   6.515   3.069   3.350
 2100SOL    HW1 8197   6.456   3.124   3.300
 2100SOL    HW2 8198   6.504   2.982   3.312
 2101SOL     OW 8199   5.444   0.648   9.402
 2101SOL    HW1 8200   5.441   0.654   9.306
 2101SOL    HW2 8201   5.525   0.598   9.420
 2102SOL     OW 8202  11.701   7.941  10.516
 2102SOL    HW1 8203  11.725   7.964  10.426
 2102SOL    HW2 8204  11.755   7.998  10.571
 2103SOL     OW 8205   5.729  11.300  12.268
 2103SOL    HW1 8206   5.801  11.298  12.205
 2103SOL    HW2 8207   5.680  11.380  12.247
 2104SOL     OW 8208   7.423   4.685   3.065
 2104SOL    HW1 8209   7.372   4.677   3.146
 2104SOL    HW2 8210   7.360   4.713   2.999
 2105SOL     OW 8211  10.612   9.771   5.996
 2105SOL    HW1 8212  10.633   9.863   6.014
 2105SOL    HW2 8213  10.518   9.764   6.011
 2106SOL     OW 8214  13.451   3.861  14.631
 2106SOL    HW1 8215  13.413   3.806  14.699
 2106SOL    HW2 8216  13.538   3.826  14.616
 2107SOL     OW 8217   4.100   0.994  10.354
 2107SOL    HW1 8218   4.123   0.903  10.339
 2107SOL    HW2 8219   4.004   0.994  10.359
 2108SOL     OW 8220   6.034   8.825   9.748
 2108SOL    HW1 8221   5.985   8.749   9.716
 2108SOL    HW2 8222   6.126   8.797   9.744
 2109SOL     OW 8223   6.299   2.037   4.123
 2109SOL    HW1 8224   6.362   2.108   4.105
 2109SOL    HW2 8225   6.236   2.077   4.184
 2110SOL     OW 8226   9.093   2.681   1.589
 2110SOL    HW1 8227   9.033   2.748   1.622
 2110SOL    HW2 8228   9.149   2.659   1.664
 2111SOL     OW 8229   5.547   4.512  10.580
 2111SOL    HW1 8230   5.458   4.547  10.574
 2111SOL    HW2 8231   5.555   4.454  10.504
 2112SOL     OW 8232  13.195   1.349   1.060
 2112SOL    HW1 8233  13.269   1.329   1.118
 2112SOL    HW2 8234  13.179   1.442   1.074
 2113SOL     OW 8235   6.890   4.963  11.773
 2113SOL    HW1 8236   6.930   4.889  11.819
 2113SOL    HW2 8237   6.950   4.981  11.700
 2114SOL     OW 8238   6.870   9.447   5.626
 2114SOL    HW1 8239   6.840   9.360   5.603
 2114SOL    HW2 8240   6.829   9.505   5.563
 2115SOL     OW 8241   3.167  11.112  12.849
 2115SOL    HW1 8242   3.111  11.149  12.918
 2115SOL    HW2 8243   3.200  11.188  12.802
 2116SOL     OW 8244   7.647   7.478   1.607
 2116SOL    HW1 8245   7.691   7.546   1.557
 2116SOL    HW2 8246   7.635   7.406   1.545
 2117SOL     OW 8247   3.012   9.393  11.754
 2117SOL    HW1 8248   3.023   9.488  11.763
 2117SOL    HW2 8249   3.060   9.356  11.828
 2118SOL     OW 8250  13.567   0.974   6.138
 2118SOL    HW1 8251  13.636   1.003   6.198
 2118SOL    HW2 8252  13.563   1.042   6.071
 2119SOL     OW 8253   1.795   9.318   2.978
 2119SOL    HW1 8254   1.730   9.357   3.037
 2119SOL    HW2 8255   1.878   9.355   3.006
 2120SOL     OW 8256   3.199   9.292   0.556
 2120SOL    HW1 8257   3.149   9.222   0.597
 2120SOL    HW2 8258   3.149   9.372   0.576
 2121SOL     OW 8259   9.150   1.625   5.368
 2121SOL    HW1 8260   9.145   1.649   5.461
 2121SOL    HW2 8261   9.068   1.579   5.351
 2122SOL     OW 8262   6.537   4.917   6.784
 2122SOL    HW1 8263   6.580   4.982   6.728
 2122SOL    HW2 8264   6.467   4.881   6.729
 2123SOL     OW 8265  11.906   8.898   4.085
 2123SOL    HW1 8266  11.849   8.870   4.014
 2123SOL    HW2 8267  11.853   8.957   4.138
 2124SOL     OW 8268  10.670  12.296   7.423
 2124SOL    HW1 8269  10.652  12.229   7.357
 2124SOL    HW2 8270  10.756  12.331   7.398
 2125SOL     OW 8271   3.137   1.998  11.318
 2125SOL    HW1 8272   3.195   2.052  11.371
 2125SOL    HW2 8273   3.098   2.058  11.255
 2126SOL     OW 8274   6.942   8.380   9.477
 2126SOL    HW1 8275   6.894   8.422   9.405
 2126SOL    HW2 8276   6.951   8.289   9.449
 2127SOL     OW 8277   2.378   9.410  10.392
 2127SOL    HW1 8278   2.286   9.393  10.408
 2127SOL    HW2 8279   2.391   9.391  10.299
 2128SOL     OW 8280   8.604   3.410   8.058
 2128SOL    HW1 8281   8.697   3.389   8.047
 2128SOL    HW2 8282   8.574   3.428   7.969
 2129SOL     OW 8283   3.819   9.729  10.137
 2129SOL    HW1 8284   3.735   9.744  10.094
 2129SOL    HW2 8285   3.883   9.770  10.080
 2130SOL     OW 8286   3.506   4.751   1.752
 2130SOL    HW1 8287   3.415   4.766   1.726
 2130SOL    HW2 8288   3.557   4.762   1.672
 2131SOL     OW 8289  11.730   4.761  13.102
 2131SOL    HW1 8290  11.646   4.773  13.058
 2131SOL    HW2 8291  11.769   4.684  13.060
 2132SOL     OW 8292  11.945   2.195   2.662
 2132SOL    HW1 8293  11.933   2.232   2.575
 2132SOL    HW2 8294  12.008   2.124   2.650
 2133SOL     OW 8295  13.468   3.544  14.156
 2133SOL    HW1 8296  13.502   3.498  14.233
 2133SOL    HW2 8297  13.514   3.502  14.082
 2134SOL     OW 8298  12.904   1.087   7.319
 2134SOL    HW1 8299  12.947   1.152   7.375
 2134SOL    HW2 8300  12.967   1.070   7.249
 2135SOL     OW 8301  11.117   1.843   9.466
 2135SOL    HW1 8302  11.142   1.921   9.516
 2135SOL    HW2 8303  11.133   1.770   9.526
 2136SOL     OW 8304  13.526   6.726   2.477
 2136SOL    HW1 8305  13.602   6.696   2.528
 2136SOL    HW2 8306  13.532   6.677   2.395
 2137SOL     OW 8307  11.296   7.217   6.682
 2137SOL    HW1 8308  11.353   7.275   6.733
 2137SOL    HW2 8309  11.250   7.165   6.748
 2138SOL     OW 8310   0.011  11.672   9.529
 2138SOL    HW1 8311   0.053  11.751   9.494
 2138SOL    HW2 8312   0.081  11.625   9.574
 2139SOL     OW 8313  10.588  11.986   1.670
 2139SOL    HW1 8314  10.522  12.024   1.612
 2139SOL    HW2 8315  10.652  12.056   1.682
 2140SOL     OW 8316  12.929   8.614   6.195
 2140SOL    HW1 8317  13.007   8.664   6.219
 2140SOL    HW2 8318  12.857   8.676   6.207
 2141SOL     OW 8319  12.857   1.170   3.906
 2141SOL    HW1 8320  12.804   1.184   3.984
 2141SOL    HW2 8321  12.877   1.077   3.906
 2142SOL     OW 8322  11.830   4.227  12.521
 2142SOL    HW1 8323  11.903   4.232  12.583
 2142SOL    HW2 8324  11.860   4.277  12.445
 2143SOL     OW 8325   9.867  12.060  13.116
 2143SOL    HW1 8326   9.818  12.136  13.147
 2143SOL    HW2 8327   9.836  11.987  13.171
 2144SOL     OW 8328  10.221   4.119   2.053
 2144SOL    HW1 8329  10.155   4.064   2.095
 2144SOL    HW2 8330  10.170   4.175   1.993
 2145SOL     OW 8331  11.333   6.256  10.848
 2145SOL    HW1 8332  11.245   6.240  10.812
 2145SOL    HW2 8333  11.392   6.234  10.776
 2146SOL     OW 8334   2.855  12.600  11.047
 2146SOL    HW1 8335   2.847  12.691  11.077
 2146SOL    HW2 8336   2.895  12.607  10.960
 2147SOL     OW 8337  12.209  13.491  14.170
 2147SOL    HW1 8338  12.170  13.448  14.246
 2147SOL    HW2 8339  12.144  13.481  14.101
 2148SOL     OW 8340   7.242  12.866  11.045
 2148SOL    HW1 8341   7.337  12.871  11.050
 2148SOL    HW2 8342   7.210  12.941  11.095
 2149SOL     OW 8343  12.772   4.764  11.387
 2149SOL    HW1 8344  12.843   4.812  11.429
 2149SOL    HW2 8345  12.697   4.824  11.391
 2150SOL     OW 8346   8.966  14.815   1.112
 2150SOL    HW1 8347   9.061  14.806   1.103
 2150SOL    HW2 8348   8.935  14.725   1.123
 2151SOL     OW 8349   6.830  14.503   0.136
 2151SOL    HW1 8350   6.772  14.524   0.063
 2151SOL    HW2 8351   6.833  14.583   0.188
 2152SOL     OW 8352  12.270   2.092   3.405
 2152SOL    HW1 8353  12.316   2.030   3.348
 2152SOL    HW2 8354  12.257   2.169   3.349
 2153SOL     OW 8355  11.197   0.267  14.598
 2153SOL    HW1 8356  11.234   0.280  14.511
 2153SOL    HW2 8357  11.185   0.172  14.606
 2154SOL     OW 8358   3.635   1.405  11.589
 2154SOL    HW1 8359   3.688   1.468  11.638
 2154SOL    HW2 8360   3.545   1.423  11.615
 2155SOL     OW 8361   5.491   2.090   7.860
 2155SOL    HW1 8362   5.422   2.127   7.804
 2155SOL    HW2 8363   5.537   2.166   7.895
 2156SOL     OW 8364   4.573  11.473   5.085
 2156SOL    HW1 8365   4.563  11.444   4.994
 2156SOL    HW2 8366   4.661  11.510   5.088
 2157SOL     OW 8367   4.933  14.362   1.687
 2157SOL    HW1 8368   4.866  14.308   1.730
 2157SOL    HW2 8369   4.888  14.397   1.610
 2158SOL     OW 8370  14.736  13.014  11.052
 2158SOL    HW1 8371  14.826  12.981  11.059
 2158SOL    HW2 8372  14.686  12.957  11.110
 2159SOL     OW 8373   8.761   8.021   9.999
 2159SOL    HW1 8374   8.772   7.982   9.912
 2159SOL    HW2 8375   8.847   8.013  10.039
 2160SOL     OW 8376   2.613   2.567  11.930
 2160SOL    HW1 8377   2.664   2.509  11.987
 2160SOL    HW2 8378   2.621   2.527  11.843
 2161SOL     OW 8379  13.893   3.293   3.773
 2161SOL    HW1 8380  13.942   3.220   3.736
 2161SOL    HW2 8381  13.821   3.307   3.712
 2162SOL     OW 8382  13.332   5.649   3.944
 2162SOL    HW1 8383  13.242   5.644   3.975
 2162SOL    HW2 8384  13.357   5.557   3.928
 2163SOL     OW 8385   3.215   0.487   4.079
 2163SOL    HW1 8386   3.141   0.496   4.139
 2163SOL    HW2 8387   3.211   0.565   4.024
 2164SOL     OW 8388   8.466   9.769   1.059
 2164SOL    HW1 8389   8.407   9.694   1.060
 2164SOL    HW2 8390   8.552   9.732   1.079
 2165SOL     OW 8391   0.085   5.293   5.317
 2165SOL    HW1 8392   0.164   5.255   5.277
 2165SOL    HW2 8393   0.096   5.387   5.306
 2166SOL     OW 8394  11.151   0.540  10.276
 2166SOL    HW1 8395  11.136   0.599  10.350
 2166SOL    HW2 8396  11.245   0.520  10.280
 2167SOL     OW 8397   3.530  14.806  12.667
 2167SOL    HW1 8398   3.507  14.878  12.609
 2167SOL    HW2 8399   3.490  14.729  12.628
 2168SOL     OW 8400   0.643   5.652   9.477
 2168SOL    HW1 8401   0.619   5.744   9.490
 2168SOL    HW2 8402   0.664   5.619   9.564
 2169SOL     OW 8403  12.871  13.423   2.763
 2169SOL    HW1 8404  12.803  13.489   2.750
 2169SOL    HW2 8405  12.845  13.376   2.842
 2170SOL     OW 8406   5.020   6.284   1.004
 2170SOL    HW1 8407   5.037   6.301   0.911
 2170SOL    HW2 8408   5.088   6.221   1.029
 2171SOL     OW 8409   5.737  10.800   5.947
 2171SOL    HW1 8410   5.729  10.773   5.856
 2171SOL    HW2 8411   5.832  10.808   5.962
 2172SOL     OW 8412  13.155   4.218   3.769
 2172SOL    HW1 8413  13.114   4.131   3.763
 2172SOL    HW2 8414  13.104   4.264   3.836
 2173SOL     OW 8415   1.278   7.094  14.073
 2173SOL    HW1 8416   1.238   7.106  13.988
 2173SOL    HW2 8417   1.211   7.124  14.136
 2174SOL     OW 8418   4.353   8.714  13.776
 2174SOL    HW1 8419   4.274   8.696  13.828
 2174SOL    HW2 8420   4.364   8.809  13.782
 2175SOL     OW 8421   1.861  12.846   1.745
 2175SOL    HW1 8422   1.893  12.866   1.833
 2175SOL    HW2 8423   1.767  12.838   1.756
 2176SOL     OW 8424   1.595   5.668  11.946
 2176SOL    HW1 8425   1.605   5.666  11.851
 2176SOL    HW2 8426   1.671   5.718  11.976
 2177SOL     OW 8427   2.841  10.686   4.402
 2177SOL    HW1 8428   2.807  10.759   4.351
 2177SOL    HW2 8429   2.805  10.699   4.490
 2178SOL     OW 8430  12.334   8.646   5.615
 2178SOL    HW1 8431  12.314   8.685   5.530
 2178SOL    HW2 8432  12.254   8.657   5.667
 2179SOL     OW 8433  13.510   3.689   0.601
 2179SOL    HW1 8434  13.515   3.667   0.508
 2179SOL    HW2 8435  13.522   3.606   0.646
 2180SOL     OW 8436   7.955  10.867  12.091
 2180SOL    HW1 8437   7.984  10.935  12.152
 2180SOL    HW2 8438   8.008  10.881  12.012
 2181SOL     OW 8439   9.545   1.070   9.791
 2181SOL    HW1 8440   9.515   1.159   9.770
 2181SOL    HW2 8441   9.509   1.016   9.721
 2182SOL     OW 8442   8.016   2.213  10.878
 2182SOL    HW1 8443   8.060   2.149  10.934
 2182SOL    HW2 8444   8.048   2.194  10.790
 2183SOL     OW 8445   8.373   8.669  11.421
 2183SOL    HW1 8446   8.419   8.603  11.369
 2183SOL    HW2 8447   8.435   8.741  11.429
 2184SOL     OW 8448  14.403  11.303   6.497
 2184SOL    HW1 8449  14.444  11.256   6.425
 2184SOL    HW2 8450  14.397  11.393   6.466
 2185SOL     OW 8451   5.053  11.681   8.445
 2185SOL    HW1 8452   5.086  11.769   8.462
 2185SOL    HW2 8453   5.117  11.623   8.484
 2186SOL     OW 8454  10.415  11.048  11.939
 2186SOL    HW1 8455  10.343  11.111  11.931
 2186SOL    HW2 8456  10.424  11.011  11.851
 2187SOL     OW 8457   0.025   2.693  11.158
 2187SOL    HW1 8458   0.117   2.718  11.171
 2187SOL    HW2 8459  14.861   2.775  11.138
 2188SOL     OW 8460  13.951   5.281  10.092
 2188SOL    HW1 8461  13.950   5.259   9.999
 2188SOL    HW2 8462  13.938   5.376  10.095
 2189SOL     OW 8463   0.096   4.767   8.090
 2189SOL    HW1 8464   0.191   4.766   8.103
 2189SOL    HW2 8465   0.064   4.830   8.155
 2190SOL     OW 8466   1.983   1.704  10.715
 2190SOL    HW1 8467   2.018   1.763  10.782
 2190SOL    HW2 8468   2.060   1.663  10.676
 2191SOL     OW 8469   8.849  12.208   1.966
 2191SOL    HW1 8470   8.938  12.239   1.981
 2191SOL    HW2 8471   8.795  12.260   2.026
 2192SOL     OW 8472  14.489   4.558   3.961
 2192SOL    HW1 8473  14.420   4.588   3.902
 2192SOL    HW2 8474  14.566   4.549   3.905
 2193SOL     OW 8475  10.171  10.365  12.623
 2193SOL    HW1 8476  10.111  10.355  12.549
 2193SOL    HW2 8477  10.251  10.319  12.596
 2194SOL     OW 8478  13.333  11.116  10.689
 2194SOL    HW1 8479  13.264  11.064  10.647
 2194SOL    HW2 8480  13.414  11.069  10.670
 2195SOL     OW 8481   7.892   3.357  13.514
 2195SOL    HW1 8482   7.926   3.278  13.555
 2195SOL    HW2 8483   7.820   3.385  13.569
 2196SOL     OW 8484  12.993   8.575   1.080
 2196SOL    HW1 8485  12.948   8.603   1.160
 2196SOL    HW2 8486  13.057   8.510   1.111
 2197SOL     OW 8487  13.306  14.774   5.755
 2197SOL    HW1 8488  13.384  14.726   5.726
 2197SOL    HW2 8489  13.249  14.708   5.792
 2198SOL     OW 8490   2.635   7.819   1.779
 2198SOL    HW1 8491   2.720   7.794   1.815
 2198SOL    HW2 8492   2.624   7.910   1.805
 2199SOL     OW 8493   1.020   8.952   5.415
 2199SOL    HW1 8494   1.037   9.037   5.456
 2199SOL    HW2 8495   0.941   8.920   5.458
 2200SOL     OW 8496   0.371   7.442   1.236
 2200SOL    HW1 8497   0.423   7.409   1.309
 2200SOL    HW2 8498   0.281   7.415   1.256
 2201SOL     OW 8499   9.637  13.589   9.349
 2201SOL    HW1 8500   9.639  13.494   9.352
 2201SOL    HW2 8501   9.641  13.610   9.256
 2202SOL     OW 8502   1.922   7.222   9.201
 2202SOL    HW1 8503   1.923   7.203   9.294
 2202SOL    HW2 8504   1.857   7.292   9.192
 2203SOL     OW 8505   3.282   8.093   9.465
 2203SOL    HW1 8506   3.351   8.031   9.489
 2203SOL    HW2 8507   3.313   8.132   9.383
 2204SOL     OW 8508   6.423  12.685  10.241
 2204SOL    HW1 8509   6.445  12.690  10.148
 2204SOL    HW2 8510   6.384  12.771  10.261
 2205SOL     OW 8511   5.633   6.361  12.124
 2205SOL    HW1 8512   5.635   6.315  12.208
 2205SOL    HW2 8513   5.724   6.360  12.095
 2206SOL     OW 8514  13.137   0.936   7.969
 2206SOL    HW1 8515  13.233   0.927   7.970
 2206SOL    HW2 8516  13.106   0.870   8.032
 2207SOL     OW 8517  10.758   5.273   1.521
 2207SOL    HW1 8518  10.750   5.203   1.587
 2207SOL    HW2 8519  10.667   5.293   1.497
 2208SOL     OW 8520  12.890   6.603  11.340
 2208SOL    HW1 8521  12.874   6.514  11.311
 2208SOL    HW2 8522  12.849   6.608  11.426
 2209SOL     OW 8523   4.571  13.132  13.099
 2209SOL    HW1 8524   4.506  13.114  13.167
 2209SOL    HW2 8525   4.554  13.223  13.073
 2210SOL     OW 8526   1.529  10.380  13.295
 2210SOL    HW1 8527   1.434  10.363  13.297
 2210SOL    HW2 8528   1.536  10.473  13.318
 2211SOL     OW 8529  11.771  12.906   5.092
 2211SOL    HW1 8530  11.824  12.955   5.028
 2211SOL    HW2 8531  11.732  12.974   5.147
 2212SOL     OW 8532   5.274   9.415   4.028
 2212SOL    HW1 8533   5.302   9.507   4.027
 2212SOL    HW2 8534   5.180   9.419   4.044
 2213SOL     OW 8535   5.612   9.491   3.809
 2213SOL    HW1 8536   5.633   9.491   3.903
 2213SOL    HW2 8537   5.675   9.430   3.771
 2214SOL     OW 8538  10.280   2.767   6.028
 2214SOL    HW1 8539  10.191   2.742   6.050
 2214SOL    HW2 8540  10.334   2.696   6.061
 2215SOL     OW 8541  11.891   6.422  10.972
 2215SOL    HW1 8542  11.832   6.397  10.901
 2215SOL    HW2 8543  11.949   6.487  10.934
 2216SOL     OW 8544   6.394  12.475   3.915
 2216SOL    HW1 8545   6.407  12.529   3.837
 2216SOL    HW2 8546   6.339  12.529   3.972
 2217SOL     OW 8547  14.428   0.110   1.401
 2217SOL    HW1 8548  14.386   0.195   1.389
 2217SOL    HW2 8549  14.356   0.047   1.399
 2218SOL     OW 8550   1.537   9.803   0.785
 2218SOL    HW1 8551   1.498   9.870   0.729
 2218SOL    HW2 8552   1.462   9.756   0.822
 2219SOL     OW 8553  11.327  13.371   0.080
 2219SOL    HW1 8554  11.295  13.386   0.169
 2219SOL    HW2 8555  11.248  13.367   0.026
 2220SOL     OW 8556   1.950  12.289  14.416
 2220SOL    HW1 8557   1.863  12.300  14.456
 2220SOL    HW2 8558   1.945  12.336  14.333
 2221SOL     OW 8559   9.827   4.075  14.699
 2221SOL    HW1 8560   9.785   4.144  14.648
 2221SOL    HW2 8561   9.799   3.994  14.656
 2222SOL     OW 8562  13.250   7.321  11.725
 2222SOL    HW1 8563  13.339   7.308  11.757
 2222SOL    HW2 8564  13.256   7.309  11.631
 2223SOL     OW 8565  10.925  12.763  13.263
 2223SOL    HW1 8566  10.894  12.809  13.341
 2223SOL    HW2 8567  10.857  12.779  13.197
 2224SOL     OW 8568   3.340   4.120   6.509
 2224SOL    HW1 8569   3.348   4.057   6.580
 2224SOL    HW2 8570   3.245   4.131   6.497
 2225SOL     OW 8571  11.911   7.364   8.874
 2225SOL    HW1 8572  11.948   7.340   8.789
 2225SOL    HW2 8573  11.987   7.371   8.932
 2226SOL     OW 8574  12.517   8.157  10.439
 2226SOL    HW1 8575  12.534   8.070  10.475
 2226SOL    HW2 8576  12.553   8.153  10.350
 2227SOL     OW 8577   3.771   5.437  10.329
 2227SOL    HW1 8578   3.797   5.529  10.340
 2227SOL    HW2 8579   3.754   5.406  10.418
 2228SOL     OW 8580  13.145   7.544   0.750
 2228SOL    HW1 8581  13.104   7.590   0.824
 2228SOL    HW2 8582  13.091   7.466   0.738
 2229SOL     OW 8583   7.047  10.173   3.358
 2229SOL    HW1 8584   6.969  10.182   3.303
 2229SOL    HW2 8585   7.058  10.258   3.400
 2230SOL     OW 8586   6.338  10.309   0.598
 2230SOL    HW1 8587   6.411  10.358   0.637
 2230SOL    HW2 8588   6.350  10.219   0.629
 2231SOL     OW 8589  12.475  14.168   6.965
 2231SOL    HW1 8590  12.429  14.121   7.034
 2231SOL    HW2 8591  12.564  14.131   6.966
 2232SOL     OW 8592   2.691   1.840  10.814
 2232SOL    HW1 8593   2.659   1.916  10.764
 2232SOL    HW2 8594   2.653   1.764  10.769
 2233SOL     OW 8595  12.475   5.707   7.690
 2233SOL    HW1 8596  12.523   5.779   7.730
 2233SOL    HW2 8597  12.390   5.708   7.733
 2234SOL     OW 8598   6.751   5.815  10.978
 2234SOL    HW1 8599   6.731   5.908  10.963
 2234SOL    HW2 8600   6.680   5.768  10.934
 2235SOL     OW 8601   7.360   2.576   3.795
 2235SOL    HW1 8602   7.362   2.605   3.886
 2235SOL    HW2 8603   7.320   2.489   3.798
 2236SOL     OW 8604  10.181   0.262  11.719
 2236SOL    HW1 8605  10.116   0.238  11.785
 2236SOL    HW2 8606  10.263   0.268  11.768
 2237SOL     OW 8607   8.587  12.890  13.276
 2237SOL    HW1 8608   8.649  12.938  13.220
 2237SOL    HW2 8609   8.617  12.800  13.272
 2238SOL     OW 8610   5.939  13.283   8.669
 2238SOL    HW1 8611   5.940  13.350   8.737
 2238SOL    HW2 8612   5.859  13.233   8.686
 2239SOL     OW 8613  12.782   3.308  12.237
 2239SOL    HW1 8614  12.770   3.280  12.328
 2239SOL    HW2 8615  12.753   3.399  12.235
 2240SOL     OW 8616   3.388   2.338   0.430
 2240SOL    HW1 8617   3.350   2.253   0.453
 2240SOL    HW2 8618   3.387   2.387   0.512
 2241SOL     OW 8619  14.466  12.425   0.680
 2241SOL    HW1 8620  14.546  12.385   0.646
 2241SOL    HW2 8621  14.445  12.494   0.616
 2242SOL     OW 8622   3.552  12.313  11.721
 2242SOL    HW1 8623   3.546  12.375  11.648
 2242SOL    HW2 8624   3.602  12.239  11.686
 2243SOL     OW 8625  13.633  12.168   9.960
 2243SOL    HW1 8626  13.676  12.096   9.913
 2243SOL    HW2 8627  13.582  12.124  10.028
 2244SOL     OW 8628  14.115  13.021   7.855
 2244SOL    HW1 8629  14.064  12.977   7.923
 2244SOL    HW2 8630  14.058  13.021   7.778
 2245SOL     OW 8631   8.455   0.032  13.994
 2245SOL    HW1 8632   8.449   0.002  13.903
 2245SOL    HW2 8633   8.368   0.069  14.012
 2246SOL     OW 8634   1.170   9.663  10.336
 2246SOL    HW1 8635   1.147   9.597  10.270
 2246SOL    HW2 8636   1.253   9.699  10.306
 2247SOL     OW 8637   3.983  11.111   7.169
 2247SOL    HW1 8638   4.056  11.153   7.213
 2247SOL    HW2 8639   3.907  11.164   7.192
 2248SOL     OW 8640   9.579   4.642  10.711
 2248SOL    HW1 8641   9.630   4.715  10.745
 2248SOL    HW2 8642   9.513   4.625  10.778
 2249SOL     OW 8643  13.567   9.216   0.031
 2249SOL    HW1 8644  13.634   9.207  14.843
 2249SOL    HW2 8645  13.487   9.238  14.863
 2250SOL     OW 8646   7.944   6.407   6.631
 2250SOL    HW1 8647   7.992   6.484   6.662
 2250SOL    HW2 8648   7.902   6.372   6.710
 2251SOL     OW 8649   2.782   1.387  12.873
 2251SOL    HW1 8650   2.704   1.427  12.911
 2251SOL    HW2 8651   2.840   1.372  12.948
 2252SOL     OW 8652   7.625   6.787   6.837
 2252SOL    HW1 8653   7.638   6.826   6.750
 2252SOL    HW2 8654   7.542   6.740   6.829
 2253SOL     OW 8655   8.274  12.622  11.008
 2253SOL    HW1 8656   8.367  12.608  10.987
 2253SOL    HW2 8657   8.232  12.634  10.923
 2254SOL     OW 8658  13.475   7.475  10.782
 2254SOL    HW1 8659  13.391   7.430  10.795
 2254SOL    HW2 8660  13.477   7.495  10.689
 2255SOL     OW 8661   2.942  11.562   2.884
 2255SOL    HW1 8662   2.948  11.475   2.845
 2255SOL    HW2 8663   2.950  11.546   2.978
 2256SOL     OW 8664  14.596   7.939   9.922
 2256SOL    HW1 8665  14.686   7.962   9.944
 2256SOL    HW2 8666  14.591   7.952   9.827
 2257SOL     OW 8667  13.773   0.164   8.707
 2257SOL    HW1 8668  13.743   0.127   8.789
 2257SOL    HW2 8669  13.826   0.095   8.667
 2258SOL     OW 8670  10.303   7.022  12.563
 2258SOL    HW1 8671  10.286   7.069  12.644
 2258SOL    HW2 8672  10.339   7.088  12.504
 2259SOL     OW 8673  10.082   1.572  12.604
 2259SOL    HW1 8674  10.088   1.634  12.677
 2259SOL    HW2 8675  10.055   1.626  12.530
 2260SOL     OW 8676  14.404  10.974  14.263
 2260SOL    HW1 8677  14.405  11.053  14.318
 2260SOL    HW2 8678  14.323  10.930  14.286
 2261SOL     OW 8679   9.369   8.444   2.490
 2261SOL    HW1 8680   9.459   8.444   2.456
 2261SOL    HW2 8681   9.333   8.529   2.463
 2262SOL     OW 8682   3.094   4.834   2.350
 2262SOL    HW1 8683   3.185   4.827   2.381
 2262SOL    HW2 8684   3.086   4.924   2.319
 2263SOL     OW 8685   5.909  13.617   9.264
 2263SOL    HW1 8686   5.962  13.600   9.186
 2263SOL    HW2 8687   5.861  13.697   9.242
 2264SOL     OW 8688  11.036   6.583  10.955
 2264SOL    HW1 8689  10.950   6.573  10.997
 2264SOL    HW2 8690  11.097   6.544  11.017
 2265SOL     OW 8691   0.516  14.037  11.086
 2265SOL    HW1 8692   0.424  14.021  11.065
 2265SOL    HW2 8693   0.517  14.123  11.129
 2266SOL     OW 8694   8.774   8.767   6.570
 2266SOL    HW1 8695   8.680   8.762   6.587
 2266SOL    HW2 8696   8.791   8.860   6.554
 2267SOL     OW 8697   6.461   6.371  10.039
 2267SOL    HW1 8698   6.382   6.413  10.005
 2267SOL    HW2 8699   6.524   6.443  10.048
 2268SOL     OW 8700   3.238   2.141   9.886
 2268SOL    HW1 8701   3.288   2.206   9.837
 2268SOL    HW2 8702   3.232   2.178   9.975
 2269SOL     OW 8703  11.240  11.137   4.070
 2269SOL    HW1 8704  11.280  11.192   4.002
 2269SOL    HW2 8705  11.308  11.072   4.091
 2270SOL     OW 8706   0.286   2.069   3.215
 2270SOL    HW1 8707   0.363   2.012   3.224
 2270SOL    HW2 8708   0.212   2.014   3.240
 2271SOL     OW 8709   0.872  14.750  12.686
 2271SOL    HW1 8710   0.792  14.700  12.672
 2271SOL    HW2 8711   0.938  14.704  12.634
 2272SOL     OW 8712   6.894  10.605  12.133
 2272SOL    HW1 8713   6.893  10.535  12.198
 2272SOL    HW2 8714   6.960  10.667  12.165
 2273SOL     OW 8715   5.606   5.459  11.040
 2273SOL    HW1 8716   5.684   5.515  11.036
 2273SOL    HW2 8717   5.533   5.520  11.034
 2274SOL     OW 8718   9.885   3.778  10.125
 2274SOL    HW1 8719   9.819   3.780  10.195
 2274SOL    HW2 8720   9.895   3.685  10.104
 2275SOL     OW 8721  14.530   6.385  14.244
 2275SOL    HW1 8722  14.558   6.314  14.186
 2275SOL    HW2 8723  14.441   6.406  14.215
 2276SOL     OW 8724   5.168   0.315   5.055
 2276SOL    HW1 8725   5.204   0.269   4.979
 2276SOL    HW2 8726   5.183   0.255   5.128
 2277SOL     OW 8727   9.043  12.175  13.996
 2277SOL    HW1 8728   8.964  12.164  14.049
 2277SOL    HW2 8729   9.115  12.173  14.059
 2278SOL     OW 8730   0.179  13.200   7.285
 2278SOL    HW1 8731   0.166  13.129   7.223
 2278SOL    HW2 8732   0.194  13.157   7.369
 2279SOL     OW 8733   4.146   5.897   3.910
 2279SOL    HW1 8734   4.109   5.813   3.940
 2279SOL    HW2 8735   4.240   5.889   3.930
 2280SOL     OW 8736  14.368   3.511   3.154
 2280SOL    HW1 8737  14.351   3.597   3.192
 2280SOL    HW2 8738  14.337   3.449   3.221
 2281SOL     OW 8739  10.901  14.675   1.753
 2281SOL    HW1 8740  10.983  14.723   1.760
 2281SOL    HW2 8741  10.875  14.657   1.844
 2282SOL     OW 8742   5.224  13.974   4.952
 2282SOL    HW1 8743   5.263  13.987   4.865
 2282SOL    HW2 8744   5.130  13.975   4.937
 2283SOL     OW 8745  10.339   7.180   2.688
 2283SOL    HW1 8746  10.299   7.155   2.771
 2283SOL    HW2 8747  10.359   7.273   2.697
 2284SOL     OW 8748   8.851  13.931  12.043
 2284SOL    HW1 8749   8.781  13.992  12.066
 2284SOL    HW2 8750   8.913  13.937  12.116
 2285SOL     OW 8751   1.243  14.191   8.849
 2285SOL    HW1 8752   1.299  14.148   8.784
 2285SOL    HW2 8753   1.304  14.221   8.917
 2286SOL     OW 8754  12.717   1.250  12.722
 2286SOL    HW1 8755  12.763   1.177  12.680
 2286SOL    HW2 8756  12.718   1.228  12.815
 2287SOL     OW 8757   4.903   4.922   8.367
 2287SOL    HW1 8758   4.979   4.960   8.411
 2287SOL    HW2 8759   4.866   4.994   8.316
 2288SOL     OW 8760   6.055   2.911   7.810
 2288SOL    HW1 8761   6.054   2.956   7.894
 2288SOL    HW2 8762   6.117   2.961   7.757
 2289SOL     OW 8763   7.079   3.014   5.159
 2289SOL    HW1 8764   7.157   3.069   5.162
 2289SOL    HW2 8765   7.099   2.948   5.092
 2290SOL     OW 8766  11.014  11.125   8.159
 2290SOL    HW1 8767  11.033  11.035   8.134
 2290SOL    HW2 8768  10.920  11.134   8.149
 2291SOL     OW 8769   3.882  12.556  14.876
 2291SOL    HW1 8770   3.812  12.615  14.846
 2291SOL    HW2 8771   3.962  12.607  14.866
 2292SOL     OW 8772   9.930  13.237   2.808
 2292SOL    HW1 8773   9.856  13.260   2.865
 2292SOL    HW2 8774   9.906  13.273   2.722
 2293SOL     OW 8775   9.723   6.128   5.327
 2293SOL    HW1 8776   9.803   6.079   5.344
 2293SOL    HW2 8777   9.657   6.087   5.384
 2294SOL     OW 8778   9.896   1.835   2.939
 2294SOL    HW1 8779   9.825   1.845   3.001
 2294SOL    HW2 8780   9.926   1.745   2.950
 2295SOL     OW 8781   7.582   0.098   4.678
 2295SOL    HW1 8782   7.575   0.004   4.661
 2295SOL    HW2 8783   7.670   0.110   4.712
 2296SOL     OW 8784   2.701   6.137   0.477
 2296SOL    HW1 8785   2.776   6.084   0.505
 2296SOL    HW2 8786   2.675   6.098   0.393
 2297SOL     OW 8787   7.718   5.631   4.637
 2297SOL    HW1 8788   7.748   5.721   4.622
 2297SOL    HW2 8789   7.637   5.640   4.686
 2298SOL     OW 8790   8.193   9.743  11.605
 2298SOL    HW1 8791   8.244   9.824  11.609
 2298SOL    HW2 8792   8.102   9.772  11.606
 2299SOL     OW 8793   0.515  13.607   1.843
 2299SOL    HW1 8794   0.547  13.602   1.753
 2299SOL    HW2 8795   0.447  13.540   1.848
 2300SOL     OW 8796   3.316   8.195   3.116
 2300SOL    HW1 8797   3.351   8.150   3.192
 2300SOL    HW2 8798   3.241   8.244   3.149
 2301SOL     OW 8799   2.880   9.384   7.928
 2301SOL    HW1 8800   2.888   9.289   7.920
 2301SOL    HW2 8801   2.805   9.397   7.986
 2302SOL     OW 8802   5.525   8.856   2.253
 2302SOL    HW1 8803   5.503   8.930   2.195
 2302SOL    HW2 8804   5.455   8.856   2.318
 2303SOL     OW 8805   0.827   2.443   4.694
 2303SOL    HW1 8806   0.747   2.426   4.644
 2303SOL    HW2 8807   0.824   2.381   4.767
 2304SOL     OW 8808   4.943   7.463  11.643
 2304SOL    HW1 8809   4.863   7.474  11.591
 2304SOL    HW2 8810   4.915   7.412  11.719
 2305SOL     OW 8811  11.680  12.483   2.456
 2305SOL    HW1 8812  11.622  12.434   2.515
 2305SOL    HW2 8813  11.696  12.423   2.383
 2306SOL     OW 8814  12.097   3.581   0.710
 2306SOL    HW1 8815  12.117   3.506   0.766
 2306SOL    HW2 8816  12.180   3.628   0.704
 2307SOL     OW 8817  13.685  11.930   9.833
 2307SOL    HW1 8818  13.721  11.866   9.894
 2307SOL    HW2 8819  13.623  11.880   9.780
 2308SOL     OW 8820   0.085  13.351   8.603
 2308SOL    HW1 8821   0.170  13.332   8.643
 2308SOL    HW2 8822   0.085  13.446   8.591
 2309SOL     OW 8823   4.251   3.994   3.751
 2309SOL    HW1 8824   4.234   4.086   3.771
 2309SOL    HW2 8825   4.178   3.969   3.694
 2310SOL     OW 8826   5.307   5.842   2.517
 2310SOL    HW1 8827   5.261   5.859   2.599
 2310SOL    HW2 8828   5.365   5.769   2.537
 2311SOL     OW 8829   6.447   0.632  12.354
 2311SOL    HW1 8830   6.351   0.631  12.349
 2311SOL    HW2 8831   6.474   0.547  12.319
 2312SOL     OW 8832  13.731  13.231   4.172
 2312SOL    HW1 8833  13.688  13.146   4.171
 2312SOL    HW2 8834  13.824  13.212   4.184
 2313SOL     OW 8835  13.753   7.011  14.068
 2313SOL    HW1 8836  13.733   6.968  13.985
 2313SOL    HW2 8837  13.834   7.059  14.051
 2314SOL     OW 8838   0.104  11.611   0.275
 2314SOL    HW1 8839   0.053  11.663   0.338
 2314SOL    HW2 8840   0.178  11.579   0.326
 2315SOL     OW 8841   9.193   8.101  10.257
 2315SOL    HW1 8842   9.233   8.187  10.272
 2315SOL    HW2 8843   9.237   8.043  10.318
 2316SOL     OW 8844   6.445   2.439  10.193
 2316SOL    HW1 8845   6.429   2.530  10.169
 2316SOL    HW2 8846   6.540   2.433  10.202
 2317SOL     OW 8847   9.836   6.376   8.193
 2317SOL    HW1 8848   9.810   6.334   8.275
 2317SOL    HW2 8849   9.762   6.431   8.169
 2318SOL     OW 8850  12.323   6.744   2.429
 2318SOL    HW1 8851  12.383   6.672   2.409
 2318SOL    HW2 8852  12.374   6.803   2.485
 2319SOL     OW 8853   9.631   0.924   4.504
 2319SOL    HW1 8854   9.590   1.009   4.489
 2319SOL    HW2 8855   9.564   0.873   4.551
 2320SOL     OW 8856  14.179  10.527  12.626
 2320SOL    HW1 8857  14.132  10.540  12.543
 2320SOL    HW2 8858  14.215  10.613  12.647
 2321SOL     OW 8859   2.836   2.256   2.490
 2321SOL    HW1 8860   2.758   2.308   2.471
 2321SOL    HW2 8861   2.908   2.303   2.448
 2322SOL     OW 8862  14.183  11.431   1.934
 2322SOL    HW1 8863  14.179  11.492   1.860
 2322SOL    HW2 8864  14.207  11.347   1.893
 2323SOL     OW 8865   6.662  10.217   3.051
 2323SOL    HW1 8866   6.619  10.131   3.046
 2323SOL    HW2 8867   6.727  10.207   3.121
 2324SOL     OW 8868  12.872   3.383   7.968
 2324SOL    HW1 8869  12.857   3.295   8.002
 2324SOL    HW2 8870  12.894   3.436   8.045
 2325SOL     OW 8871  12.313  13.213   9.265
 2325SOL    HW1 8872  12.268  13.191   9.346
 2325SOL    HW2 8873  12.244  13.223   9.200
 2326SOL     OW 8874  13.540  11.025   4.934
 2326SOL    HW1 8875  13.565  10.933   4.932
 2326SOL    HW2 8876  13.566  11.060   4.849
 2327SOL     OW 8877  13.238   6.428   7.713
 2327SOL    HW1 8878  13.302   6.486   7.754
 2327SOL    HW2 8879  13.259   6.430   7.620
 2328SOL     OW 8880  12.211   5.454   1.923
 2328SOL    HW1 8881  12.206   5.363   1.953
 2328SOL    HW2 8882  12.203   5.449   1.828
 2329SOL     OW 8883  12.876   6.625   1.659
 2329SOL    HW1 8884  12.944   6.649   1.597
 2329SOL    HW2 8885  12.798   6.612   1.605
 2330SOL     OW 8886   1.484  11.126  12.917
 2330SOL    HW1 8887   1.439  11.089  12.992
 2330SOL    HW2 8888   1.414  11.163  12.863
 2331SOL     OW 8889   0.262   5.553   8.488
 2331SOL    HW1 8890   0.310   5.597   8.418
 2331SOL    HW2 8891   0.196   5.617   8.516
 2332SOL     OW 8892   4.817   9.234   9.530
 2332SOL    HW1 8893   4.825   9.188   9.447
 2332SOL    HW2 8894   4.829   9.326   9.508
 2333SOL     OW 8895   3.683   5.005  14.064
 2333SOL    HW1 8896   3.638   5.036  13.985
 2333SOL    HW2 8897   3.674   4.910  14.062
 2334SOL     OW 8898   4.241   4.255  14.164
 2334SOL    HW1 8899   4.161   4.232  14.212
 2334SOL    HW2 8900   4.210   4.284  14.078
 2335SOL     OW 8901   4.320   8.837   1.537
 2335SOL    HW1 8902   4.314   8.931   1.549
 2335SOL    HW2 8903   4.324   8.824   1.442
 2336SOL     OW 8904   8.273   8.101   0.963
 2336SOL    HW1 8905   8.208   8.103   1.034
 2336SOL    HW2 8906   8.244   8.029   0.906
 2337SOL     OW 8907   0.520   2.053   7.130
 2337SOL    HW1 8908   0.598   2.102   7.156
 2337SOL    HW2 8909   0.553   1.982   7.076
 2338SOL     OW 8910  10.668   7.789  11.658
 2338SOL    HW1 8911  10.723   7.840  11.718
 2338SOL    HW2 8912  10.592   7.845  11.642
 2339SOL     OW 8913   0.199   3.821  10.561
 2339SOL    HW1 8914   0.267   3.875  10.601
 2339SOL    HW2 8915   0.231   3.731  10.571
 2340SOL     OW 8916   9.299   1.496   9.955
 2340SOL    HW1 8917   9.219   1.528   9.997
 2340SOL    HW2 8918   9.355   1.469  10.027
 2341SOL     OW 8919   8.103  10.384   7.865
 2341SOL    HW1 8920   8.145  10.447   7.924
 2341SOL    HW2 8921   8.071  10.315   7.923
 2342SOL     OW 8922   2.505   6.438   9.491
 2342SOL    HW1 8923   2.508   6.406   9.581
 2342SOL    HW2 8924   2.591   6.477   9.476
 2343SOL     OW 8925   0.983  11.789   3.119
 2343SOL    HW1 8926   0.910  11.738   3.083
 2343SOL    HW2 8927   1.060  11.755   3.074
 2344SOL     OW 8928   5.730  13.189   9.584
 2344SOL    HW1 8929   5.702  13.204   9.675
 2344SOL    HW2 8930   5.821  13.220   9.583
 2345SOL     OW 8931  13.607  12.489   7.750
 2345SOL    HW1 8932  13.662  12.495   7.828
 2345SOL    HW2 8933  13.521  12.520   7.778
 2346SOL     OW 8934   7.331   6.396   0.248
 2346SOL    HW1 8935   7.397   6.344   0.294
 2346SOL    HW2 8936   7.329   6.358   0.160
 2347SOL     OW 8937   6.343   3.068  10.252
 2347SOL    HW1 8938   6.379   3.072  10.164
 2347SOL    HW2 8939   6.256   3.107  10.244
 2348SOL     OW 8940   2.267   5.022   3.431
 2348SOL    HW1 8941   2.189   5.073   3.455
 2348SOL    HW2 8942   2.338   5.062   3.482
 2349SOL     OW 8943   7.609   3.195   9.598
 2349SOL    HW1 8944   7.589   3.128   9.664
 2349SOL    HW2 8945   7.526   3.240   9.584
 2350SOL     OW 8946   1.514   8.270  14.628
 2350SOL    HW1 8947   1.474   8.204  14.572
 2350SOL    HW2 8948   1.602   8.282  14.592
 2351SOL     OW 8949   4.388  13.628   1.290
 2351SOL    HW1 8950   4.405  13.662   1.202
 2351SOL    HW2 8951   4.296  13.650   1.307
 2352SOL     OW 8952   4.680   1.335   0.265
 2352SOL    HW1 8953   4.744   1.401   0.239
 2352SOL    HW2 8954   4.597   1.368   0.230
 2353SOL     OW 8955  12.770   1.941  12.461
 2353SOL    HW1 8956  12.705   1.992  12.414
 2353SOL    HW2 8957  12.768   1.976  12.550
 2354SOL     OW 8958   1.814  13.441   9.703
 2354SOL    HW1 8959   1.785  13.392   9.626
 2354SOL    HW2 8960   1.842  13.374   9.765
 2355SOL     OW 8961  13.901   7.504  12.510
 2355SOL    HW1 8962  13.875   7.462  12.592
 2355SOL    HW2 8963  13.935   7.589  12.536
 2356SOL     OW 8964   0.093   5.302   0.382
 2356SOL    HW1 8965   0.094   5.259   0.296
 2356SOL    HW2 8966   0.159   5.256   0.433
 2357SOL     OW 8967   0.228  10.665   3.807
 2357SOL    HW1 8968   0.208  10.696   3.895
 2357SOL    HW2 8969   0.232  10.569   3.816
 2358SOL     OW 8970  13.746   3.793  11.405
 2358SOL    HW1 8971  13.714   3.751  11.325
 2358SOL    HW2 8972  13.812   3.733  11.438
 2359SOL     OW 8973   1.332  13.525  14.186
 2359SOL    HW1 8974   1.381  13.452  14.147
 2359SOL    HW2 8975   1.306  13.493  14.272
 2360SOL     OW 8976  11.379   5.661   2.523
 2360SOL    HW1 8977  11.390   5.646   2.429
 2360SOL    HW2 8978  11.320   5.736   2.529
 2361SOL     OW 8979  13.028   4.877   3.408
 2361SOL    HW1 8980  12.966   4.871   3.336
 2361SOL    HW2 8981  13.095   4.812   3.387
 2362SOL     OW 8982   7.684   3.998  14.705
 2362SOL    HW1 8983   7.593   3.997  14.678
 2362SOL    HW2 8984   7.690   4.069  14.770
 2363SOL     OW 8985   9.073   8.375   6.156
 2363SOL    HW1 8986   9.150   8.357   6.102
 2363SOL    HW2 8987   9.045   8.463   6.130
 2364SOL     OW 8988   1.938  12.232   0.388
 2364SOL    HW1 8989   1.870  12.288   0.351
 2364SOL    HW2 8990   1.991  12.205   0.312
 2365SOL     OW 8991   2.241  10.634   3.704
 2365SOL    HW1 8992   2.309  10.679   3.654
 2365SOL    HW2 8993   2.164  10.638   3.648
 2366SOL     OW 8994  12.383   1.092  12.037
 2366SOL    HW1 8995  12.427   1.037  11.973
 2366SOL    HW2 8996  12.328   1.150  11.985
 2367SOL     OW 8997   7.465   1.745   7.666
 2367SOL    HW1 8998   7.508   1.790   7.738
 2367SOL    HW2 8999   7.534   1.694   7.624
 2368SOL     OW 9000  14.722   5.474   4.337
 2368SOL    HW1 9001  14.739   5.401   4.398
 2368SOL    HW2 9002  14.766   5.448   4.256
 2369SOL     OW 9003   0.856  13.247   3.213
 2369SOL    HW1 9004   0.814  13.162   3.225
 2369SOL    HW2 9005   0.786  13.311   3.229
 2370SOL     OW 9006   6.344   3.897   3.126
 2370SOL    HW1 9007   6.302   3.822   3.084
 2370SOL    HW2 9008   6.382   3.862   3.206
 2371SOL     OW 9009  14.749   2.310  11.282
 2371SOL    HW1 9010  14.821   2.363  11.315
 2371SOL    HW2 9011  14.787   2.258  11.211
 2372SOL     OW 9012   1.261  10.412   7.977
 2372SOL    HW1 9013   1.219  10.453   7.902
 2372SOL    HW2 9014   1.253  10.318   7.960
 2373SOL     OW 9015  11.348   2.736   7.629
 2373SOL    HW1 9016  11.340   2.660   7.571
 2373SOL    HW2 9017  11.296   2.714   7.706
 2374SOL     OW 9018   7.348   6.553  12.381
 2374SOL    HW1 9019   7.431   6.557  12.332
 2374SOL    HW2 9020   7.296   6.625  12.346
 2375SOL     OW 9021   2.449  13.820  14.823
 2375SOL    HW1 9022   2.521  13.833   0.006
 2375SOL    HW2 9023   2.383  13.770  14.872
 2376SOL     OW 9024   9.552   4.084   1.893
 2376SOL    HW1 9025   9.635   4.124   1.868
 2376SOL    HW2 9026   9.566   4.053   1.983
 2377SOL     OW 9027   4.377   2.976  10.475
 2377SOL    HW1 9028   4.313   2.907  10.492
 2377SOL    HW2 9029   4.335   3.033  10.411
 2378SOL     OW 9030   6.944   6.592   7.178
 2378SOL    HW1 9031   6.856   6.592   7.216
 2378SOL    HW2 9032   6.987   6.668   7.216
 2379SOL     OW 9033  13.699   6.725  11.002
 2379SOL    HW1 9034  13.651   6.797  11.043
 2379SOL    HW2 9035  13.714   6.754  10.912
 2380SOL     OW 9036   0.727  10.640  13.081
 2380SOL    HW1 9037   0.672  10.642  13.160
 2380SOL    HW2 9038   0.672  10.677  13.012
 2381SOL     OW 9039  14.233   8.117   3.514
 2381SOL    HW1 9040  14.306   8.097   3.573
 2381SOL    HW2 9041  14.251   8.065   3.436
 2382SOL     OW 9042   9.662  10.023   9.360
 2382SOL    HW1 9043   9.674  10.020   9.455
 2382SOL    HW2 9044   9.697  10.108   9.335
 2383SOL     OW 9045   8.519  10.662   5.763
 2383SOL    HW1 9046   8.563  10.626   5.686
 2383SOL    HW2 9047   8.495  10.751   5.738
 2384SOL     OW 9048  13.132  11.919   2.238
 2384SOL    HW1 9049  13.057  11.975   2.215
 2384SOL    HW2 9050  13.092  11.839   2.272
 2385SOL     OW 9051  12.112  13.643   4.541
 2385SOL    HW1 9052  12.070  13.723   4.510
 2385SOL    HW2 9053  12.187  13.631   4.482
 2386SOL     OW 9054   2.981   8.397   1.634
 2386SOL    HW1 9055   2.979   8.427   1.725
 2386SOL    HW2 9056   3.006   8.305   1.641
 2387SOL     OW 9057  13.724  10.509  12.470
 2387SOL    HW1 9058  13.780  10.584  12.447
 2387SOL    HW2 9059  13.635  10.539  12.453
 2388SOL     OW 9060   6.830   6.729   2.309
 2388SOL    HW1 9061   6.783   6.672   2.369
 2388SOL    HW2 9062   6.917   6.738   2.348
 2389SOL     OW 9063   8.649   8.457  11.197
 2389SOL    HW1 9064   8.597   8.425  11.270
 2389SOL    HW2 9065   8.586   8.498  11.138
 2390SOL     OW 9066   2.104  14.218   2.551
 2390SOL    HW1 9067   2.030  14.160   2.537
 2390SOL    HW2 9068   2.125  14.251   2.463
 2391SOL     OW 9069  10.349   8.131  12.664
 2391SOL    HW1 9070  10.306   8.136  12.749
 2391SOL    HW2 9071  10.278   8.143  12.601
 2392SOL     OW 9072  12.884  10.935  10.675
 2392SOL    HW1 9073  12.905  10.911  10.765
 2392SOL    HW2 9074  12.970  10.944  10.633
 2393SOL     OW 9075   6.160  11.888  11.993
 2393SOL    HW1 9076   6.109  11.812  12.023
 2393SOL    HW2 9077   6.180  11.936  12.074
 2394SOL     OW 9078   3.141   5.146   5.639
 2394SOL    HW1 9079   3.204   5.093   5.688
 2394SOL    HW2 9080   3.106   5.087   5.573
 2395SOL     OW 9081   1.041   8.563   7.684
 2395SOL    HW1 9082   1.034   8.554   7.589
 2395SOL    HW2 9083   1.134   8.548   7.703
 2396SOL     OW 9084  13.455   0.005   3.372
 2396SOL    HW1 9085  13.518  14.814   3.377
 2396SOL    HW2 9086  13.452   0.028   3.279
 2397SOL     OW 9087   6.799  14.322  12.863
 2397SOL    HW1 9088   6.791  14.359  12.951
 2397SOL    HW2 9089   6.891  14.300  12.854
 2398SOL     OW 9090   2.451   8.053   1.131
 2398SOL    HW1 9091   2.422   7.985   1.071
 2398SOL    HW2 9092   2.436   8.016   1.218
 2399SOL     OW 9093   0.219   0.135   3.457
 2399SOL    HW1 9094   0.253   0.092   3.378
 2399SOL    HW2 9095   0.177   0.215   3.424
 2400SOL     OW 9096   6.160  11.030  10.951
 2400SOL    HW1 9097   6.100  11.081  10.897
 2400SOL    HW2 9098   6.222  10.993  10.887
 2401SOL     OW 9099  14.714   8.248   1.094
 2401SOL    HW1 9100  14.620   8.250   1.075
 2401SOL    HW2 9101  14.719   8.219   1.186
 2402SOL     OW 9102  13.740   1.602   4.582
 2402SOL    HW1 9103  13.807   1.641   4.638
 2402SOL    HW2 9104  13.740   1.509   4.606
 2403SOL     OW 9105  10.018   0.632  10.458
 2403SOL    HW1 9106  10.098   0.633  10.511
 2403SOL    HW2 9107   9.949   0.662  10.518
 2404SOL     OW 9108  11.408   2.488   0.195
 2404SOL    HW1 9109  11.413   2.507   0.289
 2404SOL    HW2 9110  11.437   2.397   0.187
 2405SOL     OW 9111   9.220   3.642   9.472
 2405SOL    HW1 9112   9.137   3.667   9.513
 2405SOL    HW2 9113   9.264   3.725   9.453
 2406SOL     OW 9114   4.275   0.887  13.928
 2406SOL    HW1 9115   4.269   0.956  13.995
 2406SOL    HW2 9116   4.193   0.894  13.879
 2407SOL     OW 9117   2.181  14.812   2.153
 2407SOL    HW1 9118   2.211  14.722   2.141
 2407SOL    HW2 9119   2.179  14.849   2.065
 2408SOL     OW 9120   7.878   5.918   2.565
 2408SOL    HW1 9121   7.797   5.874   2.541
 2408SOL    HW2 9122   7.942   5.848   2.577
 2409SOL     OW 9123   8.074  14.476  10.878
 2409SOL    HW1 9124   8.051  14.475  10.785
 2409SOL    HW2 9125   8.169  14.491  10.878
 2410SOL     OW 9126   2.848   7.284   7.353
 2410SOL    HW1 9127   2.841   7.298   7.258
 2410SOL    HW2 9128   2.779   7.339   7.390
 2411SOL     OW 9129  12.508   2.432   5.960
 2411SOL    HW1 9130  12.450   2.427   5.884
 2411SOL    HW2 9131  12.480   2.511   6.006
 2412SOL     OW 9132   0.864  14.254   2.336
 2412SOL    HW1 9133   0.880  14.330   2.392
 2412SOL    HW2 9134   0.836  14.185   2.396
 2413SOL     OW 9135   7.651   1.500  14.365
 2413SOL    HW1 9136   7.636   1.593  14.381
 2413SOL    HW2 9137   7.678   1.495  14.273
 2414SOL     OW 9138   7.425  13.246  14.174
 2414SOL    HW1 9139   7.348  13.215  14.221
 2414SOL    HW2 9140   7.390  13.304  14.107
 2415SOL     OW 9141   4.336   9.813   8.856
 2415SOL    HW1 9142   4.405   9.748   8.867
 2415SOL    HW2 9143   4.345   9.843   8.766
 2416SOL     OW 9144  13.717   4.300  13.646
 2416SOL    HW1 9145  13.667   4.368  13.691
 2416SOL    HW2 9146  13.654   4.260  13.585
 2417SOL     OW 9147  10.278   0.667  12.442
 2417SOL    HW1 9148  10.304   0.749  12.485
 2417SOL    HW2 9149  10.269   0.690  12.350
 2418SOL     OW 9150  11.248  10.427  14.137
 2418SOL    HW1 9151  11.288  10.375  14.206
 2418SOL    HW2 9152  11.257  10.518  14.165
 2419SOL     OW 9153   8.818   4.918   4.349
 2419SOL    HW1 9154   8.865   5.002   4.351
 2419SOL    HW2 9155   8.884   4.855   4.319
 2420SOL     OW 9156   4.733   9.292  11.379
 2420SOL    HW1 9157   4.776   9.229  11.320
 2420SOL    HW2 9158   4.800   9.313  11.444
 2421SOL     OW 9159  13.682  14.326   3.368
 2421SOL    HW1 9160  13.773  14.300   3.350
 2421SOL    HW2 9161  13.629  14.255   3.332
 2422SOL     OW 9162  12.418  10.759   7.700
 2422SOL    HW1 9163  12.468  10.684   7.668
 2422SOL    HW2 9164  12.436  10.829   7.638
 2423SOL     OW 9165  11.437   4.770   8.737
 2423SOL    HW1 9166  11.452   4.694   8.681
 2423SOL    HW2 9167  11.352   4.753   8.779
 2424SOL     OW 9168  10.100   2.773  13.600
 2424SOL    HW1 9169  10.108   2.852  13.653
 2424SOL    HW2 9170  10.063   2.708  13.659
 2425SOL     OW 9171   4.551  10.329  11.562
 2425SOL    HW1 9172   4.628  10.347  11.616
 2425SOL    HW2 9173   4.578  10.351  11.473
 2426SOL     OW 9174   4.274  10.199  14.828
 2426SOL    HW1 9175   4.357  10.176  14.785
 2426SOL    HW2 9176   4.220  10.121  14.818
 2427SOL     OW 9177   2.857   5.530  12.532
 2427SOL    HW1 9178   2.925   5.598  12.530
 2427SOL    HW2 9179   2.869   5.486  12.616
 2428SOL     OW 9180   1.504  13.772  13.440
 2428SOL    HW1 9181   1.564  13.750  13.511
 2428SOL    HW2 9182   1.438  13.828  13.482
 2429SOL     OW 9183   7.568   2.481   5.372
 2429SOL    HW1 9184   7.508   2.517   5.306
 2429SOL    HW2 9185   7.511   2.451   5.443
 2430SOL     OW 9186   0.353  14.450   6.835
 2430SOL    HW1 9187   0.403  14.519   6.792
 2430SOL    HW2 9188   0.418  14.403   6.888
 2431SOL     OW 9189   7.822  10.459  14.233
 2431SOL    HW1 9190   7.784  10.498  14.154
 2431SOL    HW2 9191   7.821  10.529  14.298
 2432SOL     OW 9192   4.303   7.226   0.546
 2432SOL    HW1 9193   4.298   7.209   0.640
 2432SOL    HW2 9194   4.296   7.140   0.505
 2433SOL     OW 9195  11.445   7.258  12.977
 2433SOL    HW1 9196  11.439   7.218  12.890
 2433SOL    HW2 9197  11.456   7.184  13.037
 2434SOL     OW 9198  11.594   7.650   5.876
 2434SOL    HW1 9199  11.668   7.628   5.932
 2434SOL    HW2 9200  11.535   7.699   5.933
 2435SOL     OW 9201  10.267   7.935   0.999
 2435SOL    HW1 9202  10.214   7.912   1.076
 2435SOL    HW2 9203  10.349   7.886   1.012
 2436SOL     OW 9204   6.478   0.052  14.368
 2436SOL    HW1 9205   6.524   0.049  14.285
 2436SOL    HW2 9206   6.388   0.027  14.347
 2437SOL     OW 9207   8.556   3.882  10.931
 2437SOL    HW1 9208   8.560   3.939  11.008
 2437SOL    HW2 9209   8.579   3.940  10.858
 2438SOL     OW 9210   9.364  12.443   5.561
 2438SOL    HW1 9211   9.280  12.484   5.539
 2438SOL    HW2 9212   9.387  12.393   5.482
 2439SOL     OW 9213   6.994  13.073   2.187
 2439SOL    HW1 9214   6.994  13.120   2.103
 2439SOL    HW2 9215   7.075  13.022   2.186
 2440SOL     OW 9216   0.383   4.197  13.667
 2440SOL    HW1 9217   0.470   4.178  13.633
 2440SOL    HW2 9218   0.368   4.289  13.644
 2441SOL     OW 9219  14.828   4.208   9.500
 2441SOL    HW1 9220  14.806   4.279   9.560
 2441SOL    HW2 9221  14.791   4.130   9.542
 2442SOL     OW 9222   3.885   4.467   5.501
 2442SOL    HW1 9223   3.923   4.554   5.497
 2442SOL    HW2 9224   3.821   4.472   5.572
 2443SOL     OW 9225   8.859  10.636  13.900
 2443SOL    HW1 9226   8.830  10.728  13.905
 2443SOL    HW2 9227   8.808  10.599  13.827
 2444SOL     OW 9228   9.676  11.091  14.708
 2444SOL    HW1 9229   9.583  11.101  14.687
 2444SOL    HW2 9230   9.710  11.180  14.707
 2445SOL     OW 9231   1.972   8.308   8.688
 2445SOL    HW1 9232   1.980   8.215   8.665
 2445SOL    HW2 9233   1.881   8.318   8.715
 2446SOL     OW 9234   0.048   0.067  12.985
 2446SOL    HW1 9235   0.139   0.097  12.980
 2446SOL    HW2 9236   0.044   0.015  13.065
 2447SOL     OW 9237   6.751   4.714   8.729
 2447SOL    HW1 9238   6.743   4.651   8.658
 2447SOL    HW2 9239   6.842   4.742   8.727
 2448SOL     OW 9240   5.639   3.591  12.100
 2448SOL    HW1 9241   5.619   3.536  12.176
 2448SOL    HW2 9242   5.645   3.680  12.135
 2449SOL     OW 9243   8.236   0.234   9.919
 2449SOL    HW1 9244   8.256   0.283   9.839
 2449SOL    HW2 9245   8.316   0.240   9.971
 2450SOL     OW 9246   7.031   9.499  10.548
 2450SOL    HW1 9247   7.123   9.480  10.525
 2450SOL    HW2 9248   6.984   9.419  10.523
 2451SOL     OW 9249   9.462   2.948   0.278
 2451SOL    HW1 9250   9.508   2.936   0.194
 2451SOL    HW2 9251   9.473   3.041   0.298
 2452SOL     OW 9252   5.164   6.844   6.501
 2452SOL    HW1 9253   5.115   6.876   6.577
 2452SOL    HW2 9254   5.242   6.898   6.497
 2453SOL     OW 9255   8.141   2.787  14.607
 2453SOL    HW1 9256   8.229   2.751  14.622
 2453SOL    HW2 9257   8.148   2.879  14.632
 2454SOL     OW 9258   5.722  13.313  13.846
 2454SOL    HW1 9259   5.762  13.392  13.811
 2454SOL    HW2 9260   5.766  13.241  13.801
 2455SOL     OW 9261   5.213  10.362  12.640
 2455SOL    HW1 9262   5.256  10.383  12.557
 2455SOL    HW2 9263   5.135  10.312  12.616
 2456SOL     OW 9264   5.628   1.256   1.345
 2456SOL    HW1 9265   5.582   1.286   1.424
 2456SOL    HW2 9266   5.652   1.337   1.299
 2457SOL     OW 9267   7.362   4.381   0.944
 2457SOL    HW1 9268   7.419   4.362   0.869
 2457SOL    HW2 9269   7.396   4.462   0.980
 2458SOL     OW 9270   4.625   0.343   1.028
 2458SOL    HW1 9271   4.552   0.390   0.987
 2458SOL    HW2 9272   4.589   0.310   1.111
 2459SOL     OW 9273   7.263   8.533  11.674
 2459SOL    HW1 9274   7.280   8.488  11.591
 2459SOL    HW2 9275   7.219   8.467  11.728
 2460SOL     OW 9276  13.907   7.865   6.612
 2460SOL    HW1 9277  13.897   7.929   6.682
 2460SOL    HW2 9278  13.853   7.898   6.541
 2461SOL     OW 9279   6.344   8.003  10.729
 2461SOL    HW1 9280   6.267   8.044  10.690
 2461SOL    HW2 9281   6.403   8.076  10.748
 2462SOL     OW 9282   0.323   2.064  11.193
 2462SOL    HW1 9283   0.331   1.970  11.178
 2462SOL    HW2 9284   0.299   2.100  11.107
 2463SOL     OW 9285   0.869   1.316   7.253
 2463SOL    HW1 9286   0.930   1.388   7.240
 2463SOL    HW2 9287   0.924   1.239   7.262
 2464SOL     OW 9288   5.969  12.657   9.108
 2464SOL    HW1 9289   6.050  12.694   9.143
 2464SOL    HW2 9290   5.980  12.562   9.116
 2465SOL     OW 9291  10.641   2.775  11.269
 2465SOL    HW1 9292  10.587   2.837  11.319
 2465SOL    HW2 9293  10.636   2.694  11.319
 2466SOL     OW 9294  11.854  12.706   1.692
 2466SOL    HW1 9295  11.783  12.769   1.688
 2466SOL    HW2 9296  11.826  12.634   1.635
 2467SOL     OW 9297   0.050  11.485   8.909
 2467SOL    HW1 9298   0.061  11.528   8.824
 2467SOL    HW2 9299   0.140  11.466   8.938
 2468SOL     OW 9300   5.612  13.907   3.099
 2468SOL    HW1 9301   5.570  13.822   3.114
 2468SOL    HW2 9302   5.545  13.971   3.121
 2469SOL     OW 9303  14.880  10.641   3.374
 2469SOL    HW1 9304   0.026  10.664   3.285
 2469SOL    HW2 9305   0.081  10.623   3.420
 2470SOL     OW 9306   1.524  11.415  10.752
 2470SOL    HW1 9307   1.500  11.411  10.844
 2470SOL    HW2 9308   1.609  11.460  10.751
 2471SOL     OW 9309   1.557  13.593   0.534
 2471SOL    HW1 9310   1.600  13.519   0.576
 2471SOL    HW2 9311   1.541  13.564   0.444
 2472SOL     OW 9312   6.490   3.701  10.649
 2472SOL    HW1 9313   6.580   3.673  10.634
 2472SOL    HW2 9314   6.499   3.788  10.689
 2473SOL     OW 9315  10.695   1.815   8.179
 2473SOL    HW1 9316  10.732   1.875   8.243
 2473SOL    HW2 9317  10.769   1.759   8.153
 2474SOL     OW 9318  13.296  11.905   3.497
 2474SOL    HW1 9319  13.336  11.979   3.451
 2474SOL    HW2 9320  13.334  11.908   3.585
 2475SOL     OW 9321   7.463  14.482   9.849
 2475SOL    HW1 9322   7.371  14.455   9.855
 2475SOL    HW2 9323   7.473  14.513   9.759
 2476SOL     OW 9324   6.147   5.062   5.881
 2476SOL    HW1 9325   6.117   5.119   5.952
 2476SOL    HW2 9326   6.175   4.981   5.924
 2477SOL     OW 9327   0.744   5.488   5.661
 2477SOL    HW1 9328   0.675   5.554   5.665
 2477SOL    HW2 9329   0.824   5.538   5.643
 2478SOL     OW 9330  12.434   4.127   4.520
 2478SOL    HW1 9331  12.375   4.197   4.492
 2478SOL    HW2 9332  12.382   4.047   4.512
 2479SOL     OW 9333  10.190   2.213   8.124
 2479SOL    HW1 9334  10.159   2.183   8.209
 2479SOL    HW2 9335  10.150   2.299   8.112
 2480SOL     OW 9336  12.802   4.161  14.797
 2480SOL    HW1 9337  12.764   4.113  14.724
 2480SOL    HW2 9338  12.847   4.235  14.755
 2481SOL     OW 9339   9.134  10.106   9.499
 2481SOL    HW1 9340   9.211  10.162   9.495
 2481SOL    HW2 9341   9.062  10.161   9.470
 2482SOL     OW 9342   0.265   2.476  14.575
 2482SOL    HW1 9343   0.179   2.514  14.590
 2482SOL    HW2 9344   0.314   2.544  14.528
 2483SOL     OW 9345   6.917   1.053   6.454
 2483SOL    HW1 9346   6.922   1.074   6.361
 2483SOL    HW2 9347   6.968   1.122   6.497
 2484SOL     OW 9348   9.825   2.857   9.362
 2484SOL    HW1 9349   9.870   2.863   9.446
 2484SOL    HW2 9350   9.871   2.921   9.306
 2485SOL     OW 9351   2.400   1.719   7.165
 2485SOL    HW1 9352   2.465   1.748   7.229
 2485SOL    HW2 9353   2.327   1.686   7.217
 2486SOL     OW 9354   5.308  13.203   9.404
 2486SOL    HW1 9355   5.220  13.214   9.369
 2486SOL    HW2 9356   5.336  13.117   9.372
 2487SOL     OW 9357   8.571   6.182  12.908
 2487SOL    HW1 9358   8.495   6.166  12.851
 2487SOL    HW2 9359   8.575   6.277  12.916
 2488SOL     OW 9360   5.129   7.568   8.397
 2488SOL    HW1 9361   5.040   7.557   8.363
 2488SOL    HW2 9362   5.186   7.553   8.322
 2489SOL     OW 9363   7.825   8.130   3.551
 2489SOL    HW1 9364   7.862   8.122   3.463
 2489SOL    HW2 9365   7.749   8.186   3.540
 2490SOL     OW 9366  13.669   4.947   0.980
 2490SOL    HW1 9367  13.697   4.989   0.899
 2490SOL    HW2 9368  13.751   4.929   1.027
 2491SOL     OW 9369  12.639  12.784   6.751
 2491SOL    HW1 9370  12.573  12.721   6.780
 2491SOL    HW2 9371  12.643  12.773   6.656
 2492SOL     OW 9372   1.627   9.708   3.298
 2492SOL    HW1 9373   1.720   9.723   3.314
 2492SOL    HW2 9374   1.605   9.768   3.227
 2493SOL     OW 9375   1.818   7.488   3.818
 2493SOL    HW1 9376   1.816   7.474   3.913
 2493SOL    HW2 9377   1.754   7.426   3.783
 2494SOL     OW 9378   2.644   0.135   4.515
 2494SOL    HW1 9379   2.600   0.208   4.473
 2494SOL    HW2 9380   2.655   0.162   4.606
 2495SOL     OW 9381   0.199   5.488   9.143
 2495SOL    HW1 9382   0.250   5.544   9.085
 2495SOL    HW2 9383   0.116   5.535   9.155
 2496SOL     OW 9384   5.544  13.135  13.589
 2496SOL    HW1 9385   5.573  13.097  13.672
 2496SOL    HW2 9386   5.624  13.141  13.536
 2497SOL     OW 9387   5.046  10.687   2.321
 2497SOL    HW1 9388   5.055  10.625   2.393
 2497SOL    HW2 9389   5.004  10.637   2.251
 2498SOL     OW 9390  10.164   6.770  14.351
 2498SOL    HW1 9391  10.197   6.689  14.311
 2498SOL    HW2 9392  10.092   6.797  14.294
 2499SOL     OW 9393   3.403   1.210   0.497
 2499SOL    HW1 9394   3.458   1.185   0.571
 2499SOL    HW2 9395   3.430   1.300   0.476
 2500SOL     OW 9396  12.994   1.191   2.603
 2500SOL    HW1 9397  13.079   1.232   2.621
 2500SOL    HW2 9398  12.949   1.191   2.688
 2501SOL     OW 9399   1.377   2.297   4.120
 2501SOL    HW1 9400   1.406   2.217   4.077
 2501SOL    HW2 9401   1.429   2.302   4.200
 2502SOL     OW 9402  10.710  14.472   9.919
 2502SOL    HW1 9403  10.625  14.469   9.874
 2502SOL    HW2 9404  10.710  14.396   9.976
 2503SOL     OW 9405   2.947   0.930   2.932
 2503SOL    HW1 9406   2.894   1.009   2.920
 2503SOL    HW2 9407   2.883   0.859   2.931
 2504SOL     OW 9408   7.425   5.458   1.932
 2504SOL    HW1 9409   7.361   5.420   1.992
 2504SOL    HW2 9410   7.459   5.383   1.883
 2505SOL     OW 9411  12.946   5.100   9.460
 2505SOL    HW1 9412  13.001   5.040   9.409
 2505SOL    HW2 9413  12.965   5.187   9.424
 2506SOL     OW 9414  11.515   8.015   8.589
 2506SOL    HW1 9415  11.599   7.995   8.546
 2506SOL    HW2 9416  11.497   7.939   8.644
 2507SOL     OW 9417   0.358   1.953   2.227
 2507SOL    HW1 9418   0.290   2.016   2.202
 2507SOL    HW2 9419   0.315   1.896   2.291
 2508SOL     OW 9420  11.095   8.391  13.878
 2508SOL    HW1 9421  11.010   8.375  13.838
 2508SOL    HW2 9422  11.089   8.351  13.965
 2509SOL     OW 9423   3.039  14.522   9.244
 2509SOL    HW1 9424   3.022  14.612   9.216
 2509SOL    HW2 9425   3.119  14.497   9.198
 2510SOL     OW 9426  10.546   4.424   8.852
 2510SOL    HW1 9427  10.640   4.411   8.840
 2510SOL    HW2 9428  10.512   4.338   8.876
 2511SOL     OW 9429  13.235   1.146   6.762
 2511SOL    HW1 9430  13.210   1.235   6.787
 2511SOL    HW2 9431  13.331   1.147   6.760
 2512SOL     OW 9432   8.140   1.748   5.376
 2512SOL    HW1 9433   8.184   1.806   5.438
 2512SOL    HW2 9434   8.191   1.756   5.296
 2513SOL     OW 9435  10.794   2.095   3.456
 2513SOL    HW1 9436  10.769   2.184   3.481
 2513SOL    HW2 9437  10.764   2.041   3.530
 2514SOL     OW 9438   0.363   2.706   3.109
 2514SOL    HW1 9439   0.397   2.766   3.176
 2514SOL    HW2 9440   0.372   2.754   3.027
 2515SOL     OW 9441  13.112   7.221   7.911
 2515SOL    HW1 9442  13.149   7.245   7.826
 2515SOL    HW2 9443  13.021   7.251   7.908
 2516SOL     OW 9444   9.411   9.564  13.207
 2516SOL    HW1 9445   9.466   9.490  13.232
 2516SOL    HW2 9446   9.460   9.608  13.138
 2517SOL     OW 9447  11.706  10.541   3.361
 2517SOL    HW1 9448  11.762  10.575   3.292
 2517SOL    HW2 9449  11.756  10.555   3.442
 2518SOL     OW 9450   3.334   1.430  14.374
 2518SOL    HW1 9451   3.337   1.430  14.470
 2518SOL    HW2 9452   3.241   1.422  14.353
 2519SOL     OW 9453  12.515  10.948   9.032
 2519SOL    HW1 9454  12.485  11.033   9.064
 2519SOL    HW2 9455  12.609  10.961   9.017
 2520SOL     OW 9456   9.826   5.548   4.224
 2520SOL    HW1 9457   9.800   5.535   4.315
 2520SOL    HW2 9458   9.921   5.533   4.224
 2521SOL     OW 9459   6.144  10.219   9.692
 2521SOL    HW1 9460   6.099  10.208   9.609
 2521SOL    HW2 9461   6.081  10.191   9.758
 2522SOL     OW 9462   7.310  11.310   1.358
 2522SOL    HW1 9463   7.377  11.289   1.422
 2522SOL    HW2 9464   7.324  11.403   1.338
 2523SOL     OW 9465  11.720   1.222   8.252
 2523SOL    HW1 9466  11.661   1.147   8.248
 2523SOL    HW2 9467  11.710   1.257   8.340
 2524SOL     OW 9468   2.922   3.609   6.806
 2524SOL    HW1 9469   2.953   3.575   6.890
 2524SOL    HW2 9470   2.850   3.667   6.828
 2525SOL     OW 9471  12.553   1.625   0.444
 2525SOL    HW1 9472  12.582   1.596   0.358
 2525SOL    HW2 9473  12.525   1.715   0.431
 2526SOL     OW 9474   8.859  10.072   4.707
 2526SOL    HW1 9475   8.899  10.068   4.620
 2526SOL    HW2 9476   8.782  10.015   4.701
 2527SOL     OW 9477   0.351   8.117   0.816
 2527SOL    HW1 9478   0.266   8.118   0.858
 2527SOL    HW2 9479   0.390   8.203   0.837
 2528SOL     OW 9480   4.289   3.772  10.252
 2528SOL    HW1 9481   4.272   3.734  10.338
 2528SOL    HW2 9482   4.287   3.698  10.192
 2529SOL     OW 9483  12.270  14.856   5.180
 2529SOL    HW1 9484  12.175  14.841   5.181
 2529SOL    HW2 9485  12.280   0.067   5.208
 2530SOL     OW 9486   5.219   2.481  10.264
 2530SOL    HW1 9487   5.309   2.474  10.294
 2530SOL    HW2 9488   5.167   2.460  10.342
 2531SOL     OW 9489   1.685  11.251   3.318
 2531SOL    HW1 9490   1.769  11.244   3.364
 2531SOL    HW2 9491   1.692  11.332   3.267
 2532SOL     OW 9492   7.110   4.972   7.079
 2532SOL    HW1 9493   7.038   4.986   7.140
 2532SOL    HW2 9494   7.158   5.055   7.079
 2533SOL     OW 9495  14.630  13.906   5.879
 2533SOL    HW1 9496  14.689  13.893   5.953
 2533SOL    HW2 9497  14.682  13.880   5.803
 2534SOL     OW 9498  11.596  12.018  12.564
 2534SOL    HW1 9499  11.594  11.923  12.579
 2534SOL    HW2 9500  11.665  12.030  12.500
 2535SOL     OW 9501   6.250   9.242   2.304
 2535SOL    HW1 9502   6.230   9.183   2.376
 2535SOL    HW2 9503   6.221   9.195   2.225
 2536SOL     OW 9504  14.828   5.689  14.604
 2536SOL    HW1 9505  14.831   5.618  14.540
 2536SOL    HW2 9506  14.842   5.768  14.554
 2537SOL     OW 9507   8.843  11.306  10.630
 2537SOL    HW1 9508   8.874  11.316  10.720
 2537SOL    HW2 9509   8.754  11.271  10.639
 2538SOL     OW 9510   4.225   4.978   4.293
 2538SOL    HW1 9511   4.260   5.061   4.325
 2538SOL    HW2 9512   4.284   4.912   4.330
 2539SOL     OW 9513  13.250   8.817   0.451
 2539SOL    HW1 9514  13.218   8.905   0.431
 2539SOL    HW2 9515  13.258   8.774   0.366
 2540SOL     OW 9516   3.146   4.091   7.230
 2540SOL    HW1 9517   3.094   4.134   7.298
 2540SOL    HW2 9518   3.172   4.008   7.269
 2541SOL     OW 9519   0.998   5.199   5.861
 2541SOL    HW1 9520   0.918   5.249   5.875
 2541SOL    HW2 9521   1.003   5.140   5.937
 2542SOL     OW 9522  11.545   2.765  10.561
 2542SOL    HW1 9523  11.523   2.852  10.595
 2542SOL    HW2 9524  11.605   2.782  10.489
 2543SOL     OW 9525  12.590   9.948   1.448
 2543SOL    HW1 9526  12.551   9.861   1.450
 2543SOL    HW2 9527  12.525  10.003   1.405
 2544SOL     OW 9528  14.502   1.551  14.142
 2544SOL    HW1 9529  14.408   1.539  14.153
 2544SOL    HW2 9530  14.512   1.588  14.054
 2545SOL     OW 9531   8.670  13.694   0.938
 2545SOL    HW1 9532   8.669  13.691   1.034
 2545SOL    HW2 9533   8.749  13.646   0.914
 2546SOL     OW 9534   2.687   3.863   2.700
 2546SOL    HW1 9535   2.691   3.959   2.703
 2546SOL    HW2 9536   2.680   3.843   2.607
 2547SOL     OW 9537  13.976   9.765  14.809
 2547SOL    HW1 9538  13.960   9.748   0.021
 2547SOL    HW2 9539  13.961   9.859  14.798
 2548SOL     OW 9540   2.444   3.348   2.942
 2548SOL    HW1 9541   2.390   3.280   2.901
 2548SOL    HW2 9542   2.533   3.313   2.941
 2549SOL     OW 9543  13.948   1.617   0.679
 2549SOL    HW1 9544  14.022   1.644   0.733
 2549SOL    HW2 9545  13.917   1.698   0.639
 2550SOL     OW 9546   4.182   1.153   4.993
 2550SOL    HW1 9547   4.217   1.064   5.002
 2550SOL    HW2 9548   4.259   1.208   4.982
 2551SOL     OW 9549   1.556  10.740   7.405
 2551SOL    HW1 9550   1.644  10.709   7.427
 2551SOL    HW2 9551   1.502  10.660   7.404
 2552SOL     OW 9552   0.004  12.839   6.957
 2552SOL    HW1 9553  14.820  12.784   6.912
 2552SOL    HW2 9554   0.078  12.843   6.895
 2553SOL     OW 9555   3.040  13.230   4.911
 2553SOL    HW1 9556   3.050  13.214   4.817
 2553SOL    HW2 9557   3.022  13.144   4.949
 2554SOL     OW 9558   0.908  11.293  11.063
 2554SOL    HW1 9559   0.815  11.289  11.044
 2554SOL    HW2 9560   0.940  11.204  11.050
 2555SOL     OW 9561  11.582  11.925   5.363
 2555SOL    HW1 9562  11.672  11.908   5.388
 2555SOL    HW2 9563  11.535  11.935   5.446
 2556SOL     OW 9564   2.784   3.619  12.859
 2556SOL    HW1 9565   2.709   3.622  12.801
 2556SOL    HW2 9566   2.787   3.529  12.891
 2557SOL     OW 9567   9.295   8.392   4.826
 2557SOL    HW1 9568   9.374   8.447   4.823
 2557SOL    HW2 9569   9.303   8.335   4.750
 2558SOL     OW 9570   7.241   2.788  14.037
 2558SOL    HW1 9571   7.249   2.777  13.942
 2558SOL    HW2 9572   7.182   2.719  14.064
 2559SOL     OW 9573  12.304   2.952   4.175
 2559SOL    HW1 9574  12.354   2.996   4.244
 2559SOL    HW2 9575  12.287   3.019   4.110
 2560SOL     OW 9576   9.146  13.858   4.513
 2560SOL    HW1 9577   9.106  13.808   4.442
 2560SOL    HW2 9578   9.212  13.912   4.471
 2561SOL     OW 9579   8.666   2.684   3.361
 2561SOL    HW1 9580   8.679   2.779   3.365
 2561SOL    HW2 9581   8.675   2.663   3.268
 2562SOL     OW 9582   3.825   9.633   4.406
 2562SOL    HW1 9583   3.875   9.668   4.480
 2562SOL    HW2 9584   3.736   9.623   4.440
 2563SOL     OW 9585   4.956  10.384   2.458
 2563SOL    HW1 9586   4.873  10.357   2.498
 2563SOL    HW2 9587   4.949  10.356   2.367
 2564SOL     OW 9588   2.982   5.034   2.078
 2564SOL    HW1 9589   3.070   5.000   2.063
 2564SOL    HW2 9590   2.925   4.956   2.076
 2565SOL     OW 9591   3.598  14.637  13.464
 2565SOL    HW1 9592   3.613  14.609  13.554
 2565SOL    HW2 9593   3.555  14.562  13.423
 2566SOL     OW 9594  13.178   7.041   1.478
 2566SOL    HW1 9595  13.095   7.014   1.440
 2566SOL    HW2 9596  13.233   7.064   1.403
 2567SOL     OW 9597   5.238   4.963  13.201
 2567SOL    HW1 9598   5.161   5.007  13.165
 2567SOL    HW2 9599   5.313   5.010  13.165
 2568SOL     OW 9600   0.575  11.649  10.003
 2568SOL    HW1 9601   0.531  11.568   9.977
 2568SOL    HW2 9602   0.516  11.690  10.065
 2569SOL     OW 9603   9.557  12.283   9.305
 2569SOL    HW1 9604   9.627  12.347   9.314
 2569SOL    HW2 9605   9.477  12.335   9.306
 2570SOL     OW 9606   4.650  11.171   0.036
 2570SOL    HW1 9607   4.660  11.105   0.105
 2570SOL    HW2 9608   4.702  11.138  14.843
 2571SOL     OW 9609  11.037  10.879  13.040
 2571SOL    HW1 9610  11.049  10.853  13.131
 2571SOL    HW2 9611  10.955  10.837  13.013
 2572SOL     OW 9612  11.084  12.470   2.020
 2572SOL    HW1 9613  11.064  12.510   2.105
 2572SOL    HW2 9614  11.179  12.477   2.011
 2573SOL     OW 9615  10.716   5.504  10.812
 2573SOL    HW1 9616  10.715   5.562  10.889
 2573SOL    HW2 9617  10.660   5.430  10.838
 2574SOL     OW 9618   5.292  10.140   6.355
 2574SOL    HW1 9619   5.229  10.090   6.406
 2574SOL    HW2 9620   5.255  10.228   6.348
 2575SOL     OW 9621   9.962   5.867  10.052
 2575SOL    HW1 9622   9.954   5.773  10.068
 2575SOL    HW2 9623  10.053   5.878  10.022
 2576SOL     OW 9624   0.383   4.821  13.106
 2576SOL    HW1 9625   0.328   4.743  13.121
 2576SOL    HW2 9626   0.337   4.870  13.038
 2577SOL     OW 9627   3.140   3.159  11.367
 2577SOL    HW1 9628   3.130   3.235  11.425
 2577SOL    HW2 9629   3.150   3.196  11.280
 2578SOL     OW 9630   5.211   3.287   8.239
 2578SOL    HW1 9631   5.151   3.304   8.167
 2578SOL    HW2 9632   5.239   3.374   8.268
 2579SOL     OW 9633  14.072   5.589   6.695
 2579SOL    HW1 9634  14.016   5.588   6.617
 2579SOL    HW2 9635  14.011   5.577   6.768
 2580SOL     OW 9636  13.091   3.002   9.531
 2580SOL    HW1 9637  13.143   2.930   9.568
 2580SOL    HW2 9638  13.010   2.960   9.501
 2581SOL     OW 9639   6.343   3.269   2.531
 2581SOL    HW1 9640   6.301   3.288   2.447
 2581SOL    HW2 9641   6.431   3.240   2.509
 2582SOL     OW 9642   1.027   5.548   3.319
 2582SOL    HW1 9643   1.112   5.507   3.335
 2582SOL    HW2 9644   0.976   5.480   3.275
 2583SOL     OW 9645   4.956  11.200  11.356
 2583SOL    HW1 9646   4.878  11.203  11.301
 2583SOL    HW2 9647   4.964  11.288  11.392
 2584SOL     OW 9648   7.215   2.078   3.804
 2584SOL    HW1 9649   7.299   2.083   3.851
 2584SOL    HW2 9650   7.193   2.169   3.786
 2585SOL     OW 9651   6.848  10.325  13.143
 2585SOL    HW1 9652   6.847  10.285  13.230
 2585SOL    HW2 9653   6.895  10.263  13.088
 2586SOL     OW 9654  11.918   5.833   7.320
 2586SOL    HW1 9655  11.844   5.876   7.277
 2586SOL    HW2 9656  11.992   5.892   7.304
 2587SOL     OW 9657   0.047  10.706   9.939
 2587SOL    HW1 9658   0.044  10.765   9.863
 2587SOL    HW2 9659   0.096  10.754  10.005
 2588SOL     OW 9660  12.470  11.120  11.512
 2588SOL    HW1 9661  12.485  11.088  11.601
 2588SOL    HW2 9662  12.377  11.144  11.510
 2589SOL     OW 9663  11.207  13.087  13.179
 2589SOL    HW1 9664  11.286  13.138  13.198
 2589SOL    HW2 9665  11.214  13.010  13.236
 2590SOL     OW 9666   1.392   7.054   1.766
 2590SOL    HW1 9667   1.379   7.031   1.673
 2590SOL    HW2 9668   1.303   7.057   1.801
 2591SOL     OW 9669  10.971  12.534   4.369
 2591SOL    HW1 9670  10.959  12.451   4.415
 2591SOL    HW2 9671  10.894  12.586   4.392
 2592SOL     OW 9672   4.047   8.761   8.273
 2592SOL    HW1 9673   4.094   8.840   8.248
 2592SOL    HW2 9674   3.987   8.745   8.200
 2593SOL     OW 9675   7.619   2.084   7.018
 2593SOL    HW1 9676   7.592   2.077   6.926
 2593SOL    HW2 9677   7.568   2.016   7.063
 2594SOL     OW 9678  11.093   7.713  14.524
 2594SOL    HW1 9679  11.045   7.697  14.442
 2594SOL    HW2 9680  11.069   7.803  14.547
 2595SOL     OW 9681  14.026   7.202   7.545
 2595SOL    HW1 9682  13.937   7.176   7.522
 2595SOL    HW2 9683  14.039   7.166   7.633
 2596SOL     OW 9684   7.490   9.359   7.680
 2596SOL    HW1 9685   7.558   9.387   7.741
 2596SOL    HW2 9686   7.452   9.281   7.721
 2597SOL     OW 9687   9.473   4.767  12.098
 2597SOL    HW1 9688   9.530   4.828  12.050
 2597SOL    HW2 9689   9.394   4.760  12.045
 2598SOL     OW 9690   4.290   7.377  11.927
 2598SOL    HW1 9691   4.304   7.465  11.893
 2598SOL    HW2 9692   4.210   7.347  11.883
 2599SOL     OW 9693   5.262   5.520   4.109
 2599SOL    HW1 9694   5.229   5.608   4.089
 2599SOL    HW2 9695   5.249   5.510   4.203
 2600SOL     OW 9696   9.915  14.434   4.572
 2600SOL    HW1 9697   9.865  14.448   4.491
 2600SOL    HW2 9698   9.981  14.370   4.548
 2601SOL     OW 9699   2.372   1.418  10.192
 2601SOL    HW1 9700   2.452   1.427  10.244
 2601SOL    HW2 9701   2.356   1.323  10.190
 2602SOL     OW 9702   4.998   5.246   0.510
 2602SOL    HW1 9703   5.034   5.257   0.421
 2602SOL    HW2 9704   4.977   5.335   0.538
 2603SOL     OW 9705   0.187   2.177   3.552
 2603SOL    HW1 9706   0.215   2.230   3.477
 2603SOL    HW2 9707   0.140   2.103   3.513
 2604SOL     OW 9708  11.842  11.624  11.681
 2604SOL    HW1 9709  11.777  11.606  11.613
 2604SOL    HW2 9710  11.819  11.565  11.753
 2605SOL     OW 9711  13.134   4.569   6.830
 2605SOL    HW1 9712  13.150   4.583   6.737
 2605SOL    HW2 9713  13.219   4.583   6.872
 2606SOL     OW 9714   0.525  10.775   3.218
 2606SOL    HW1 9715   0.508  10.770   3.124
 2606SOL    HW2 9716   0.454  10.830   3.252
 2607SOL     OW 9717  14.251   1.022   1.765
 2607SOL    HW1 9718  14.340   1.043   1.737
 2607SOL    HW2 9719  14.218   1.104   1.803
 2608SOL     OW 9720  14.371  10.473   5.921
 2608SOL    HW1 9721  14.443  10.536   5.930
 2608SOL    HW2 9722  14.359  10.437   6.008
 2609SOL     OW 9723   4.888  11.223   5.153
 2609SOL    HW1 9724   4.885  11.297   5.213
 2609SOL    HW2 9725   4.935  11.255   5.076
 2610SOL     OW 9726   7.725  12.720  11.559
 2610SOL    HW1 9727   7.769  12.679  11.634
 2610SOL    HW2 9728   7.651  12.662  11.540
 2611SOL     OW 9729   0.141   1.073   9.767
 2611SOL    HW1 9730   0.174   1.121   9.844
 2611SOL    HW2 9731   0.198   1.101   9.695
 2612SOL     OW 9732  12.817  11.601   9.253
 2612SOL    HW1 9733  12.762  11.561   9.320
 2612SOL    HW2 9734  12.890  11.640   9.302
 2613SOL     OW 9735   4.555  11.503   1.332
 2613SOL    HW1 9736   4.508  11.472   1.254
 2613SOL    HW2 9737   4.486  11.527   1.394
 2614SOL     OW 9738  11.769  10.055  13.768
 2614SOL    HW1 9739  11.823  10.093  13.699
 2614SOL    HW2 9740  11.724   9.982  13.726
 2615SOL     OW 9741  14.664   4.425  11.982
 2615SOL    HW1 9742  14.670   4.365  11.908
 2615SOL    HW2 9743  14.704   4.506  11.952
 2616SOL     OW 9744  13.384   9.846   4.040
 2616SOL    HW1 9745  13.424   9.770   4.082
 2616SOL    HW2 9746  13.454   9.885   3.988
 2617SOL     OW 9747   4.463   3.425  12.154
 2617SOL    HW1 9748   4.431   3.512  12.179
 2617SOL    HW2 9749   4.488   3.434  12.062
 2618SOL     OW 9750   8.255  12.665   0.547
 2618SOL    HW1 9751   8.237  12.756   0.568
 2618SOL    HW2 9752   8.173  12.619   0.566
 2619SOL     OW 9753  14.236  13.102   3.325
 2619SOL    HW1 9754  14.201  13.152   3.252
 2619SOL    HW2 9755  14.265  13.169   3.388
 2620SOL     OW 9756   4.041   9.603   0.378
 2620SOL    HW1 9757   4.026   9.520   0.424
 2620SOL    HW2 9758   3.977   9.663   0.415
 2621SOL     OW 9759   4.712   7.008   4.724
 2621SOL    HW1 9760   4.769   7.074   4.762
 2621SOL    HW2 9761   4.770   6.953   4.671
 2622SOL     OW 9762  10.511   4.944   7.132
 2622SOL    HW1 9763  10.596   4.901   7.121
 2622SOL    HW2 9764  10.447   4.876   7.111
 2623SOL     OW 9765   9.211   1.302   2.198
 2623SOL    HW1 9766   9.178   1.306   2.108
 2623SOL    HW2 9767   9.298   1.341   2.194
 2624SOL     OW 9768  12.878   6.728   2.056
 2624SOL    HW1 9769  12.855   6.797   1.994
 2624SOL    HW2 9770  12.895   6.774   2.138
 2625SOL     OW 9771  14.422   4.789   4.082
 2625SOL    HW1 9772  14.443   4.702   4.049
 2625SOL    HW2 9773  14.484   4.848   4.039
 2626SOL     OW 9774   0.625   1.317   6.186
 2626SOL    HW1 9775   0.570   1.250   6.145
 2626SOL    HW2 9776   0.571   1.396   6.187
 2627SOL     OW 9777   7.844  13.894   9.082
 2627SOL    HW1 9778   7.843  13.803   9.111
 2627SOL    HW2 9779   7.914  13.935   9.133
 2628SOL     OW 9780  11.302   9.611   7.498
 2628SOL    HW1 9781  11.311   9.521   7.465
 2628SOL    HW2 9782  11.321   9.666   7.422
 2629SOL     OW 9783   7.284   8.904  14.844
 2629SOL    HW1 9784   7.350   8.908   0.033
 2629SOL    HW2 9785   7.275   8.995  14.816
 2630SOL     OW 9786   8.280  11.732   8.397
 2630SOL    HW1 9787   8.376  11.740   8.398
 2630SOL    HW2 9788   8.264  11.642   8.370
 2631SOL     OW 9789   5.198   5.908   6.385
 2631SOL    HW1 9790   5.213   5.971   6.456
 2631SOL    HW2 9791   5.249   5.943   6.311
 2632SOL     OW 9792   4.199   6.049  13.586
 2632SOL    HW1 9793   4.183   6.039  13.492
 2632SOL    HW2 9794   4.290   6.022  13.598
 2633SOL     OW 9795   0.424   8.742  13.553
 2633SOL    HW1 9796   0.504   8.725  13.603
 2633SOL    HW2 9797   0.355   8.698  13.603
 2634SOL     OW 9798   6.034   0.105   8.989
 2634SOL    HW1 9799   6.094   0.039   9.023
 2634SOL    HW2 9800   6.083   0.150   8.920
 2635SOL     OW 9801   4.927  13.983   7.027
 2635SOL    HW1 9802   4.994  13.915   7.029
 2635SOL    HW2 9803   4.846  13.937   7.005
 2636SOL     OW 9804   4.606   3.969  11.168
 2636SOL    HW1 9805   4.612   4.005  11.080
 2636SOL    HW2 9806   4.631   4.041  11.226
 2637SOL     OW 9807  12.058  14.389   2.429
 2637SOL    HW1 9808  12.015  14.304   2.429
 2637SOL    HW2 9809  12.146  14.372   2.463
 2638SOL     OW 9810   1.980  10.224   2.825
 2638SOL    HW1 9811   1.923  10.164   2.875
 2638SOL    HW2 9812   1.997  10.296   2.886
 2639SOL     OW 9813   4.463  12.158   2.982
 2639SOL    HW1 9814   4.530  12.107   2.937
 2639SOL    HW2 9815   4.380  12.114   2.960
 2640SOL     OW 9816   6.222   2.678   4.639
 2640SOL    HW1 9817   6.244   2.758   4.686
 2640SOL    HW2 9818   6.185   2.620   4.706
 2641SOL     OW 9819  13.846  14.642  10.374
 2641SOL    HW1 9820  13.909  14.604  10.313
 2641SOL    HW2 9821  13.809  14.717  10.326
 2642SOL     OW 9822   5.016  14.233   7.163
 2642SOL    HW1 9823   5.101  14.212   7.202
 2642SOL    HW2 9824   4.981  14.147   7.138
 2643SOL     OW 9825   7.661   5.798   0.957
 2643SOL    HW1 9826   7.708   5.735   1.012
 2643SOL    HW2 9827   7.578   5.756   0.937
 2644SOL     OW 9828   1.066   1.239   4.655
 2644SOL    HW1 9829   0.988   1.234   4.600
 2644SOL    HW2 9830   1.077   1.151   4.690
 2645SOL     OW 9831   7.333  11.470   6.375
 2645SOL    HW1 9832   7.317  11.524   6.453
 2645SOL    HW2 9833   7.261  11.406   6.376
 2646SOL     OW 9834  11.716   8.297  10.509
 2646SOL    HW1 9835  11.716   8.261  10.420
 2646SOL    HW2 9836  11.769   8.235  10.560
 2647SOL     OW 9837   1.913   4.452  11.652
 2647SOL    HW1 9838   1.929   4.524  11.591
 2647SOL    HW2 9839   1.923   4.491  11.739
 2648SOL     OW 9840  13.514  10.555  13.275
 2648SOL    HW1 9841  13.433  10.598  13.246
 2648SOL    HW2 9842  13.580  10.625  13.272
 2649SOL     OW 9843   6.530   4.047   6.601
 2649SOL    HW1 9844   6.530   3.968   6.657
 2649SOL    HW2 9845   6.611   4.039   6.550
 2650SOL     OW 9846  10.582   9.691  13.245
 2650SOL    HW1 9847  10.585   9.779  13.282
 2650SOL    HW2 9848  10.661   9.684  13.193
 2651SOL     OW 9849  12.897   0.279   5.782
 2651SOL    HW1 9850  12.887   0.365   5.823
 2651SOL    HW2 9851  12.884   0.217   5.853
 2652SOL     OW 9852   6.844   9.048   5.142
 2652SOL    HW1 9853   6.897   9.054   5.221
 2652SOL    HW2 9854   6.827   8.954   5.132
 2653SOL     OW 9855   0.595   7.700   3.984
 2653SOL    HW1 9856   0.554   7.751   4.054
 2653SOL    HW2 9857   0.611   7.764   3.914
 2654SOL     OW 9858  10.192   7.297  12.384
 2654SOL    HW1 9859  10.283   7.271  12.372
 2654SOL    HW2 9860  10.196   7.392  12.396
 2655SOL     OW 9861   8.939   6.979  12.469
 2655SOL    HW1 9862   8.983   7.062  12.491
 2655SOL    HW2 9863   8.877   6.965  12.541
 2656SOL     OW 9864  10.940  11.226   8.702
 2656SOL    HW1 9865  10.950  11.205   8.795
 2656SOL    HW2 9866  10.918  11.142   8.661
 2657SOL     OW 9867  14.076   3.897   9.572
 2657SOL    HW1 9868  14.020   3.868   9.644
 2657SOL    HW2 9869  14.060   3.991   9.566
 2658SOL     OW 9870   0.499  11.902   0.405
 2658SOL    HW1 9871   0.520  11.809   0.416
 2658SOL    HW2 9872   0.456  11.907   0.320
 2659SOL     OW 9873  11.313  14.658   8.851
 2659SOL    HW1 9874  11.371  14.666   8.927
 2659SOL    HW2 9875  11.321  14.741   8.806
 2660SOL     OW 9876  12.854  14.695   7.717
 2660SOL    HW1 9877  12.820  14.606   7.712
 2660SOL    HW2 9878  12.784  14.745   7.759
 2661SOL     OW 9879  13.885  11.681  12.670
 2661SOL    HW1 9880  13.885  11.629  12.589
 2661SOL    HW2 9881  13.866  11.618  12.739
 2662SOL     OW 9882  14.597  12.766   3.702
 2662SOL    HW1 9883  14.552  12.690   3.739
 2662SOL    HW2 9884  14.688  12.757   3.730
 2663SOL     OW 9885  10.162   4.973   6.748
 2663SOL    HW1 9886  10.092   5.031   6.779
 2663SOL    HW2 9887  10.147   4.965   6.654
 2664SOL     OW 9888   3.580   4.303   0.017
 2664SOL    HW1 9889   3.488   4.327   0.008
 2664SOL    HW2 9890   3.584   4.250   0.097
 2665SOL     OW 9891  10.483  12.578  11.932
 2665SOL    HW1 9892  10.491  12.673  11.920
 2665SOL    HW2 9893  10.453  12.546  11.847
 2666SOL     OW 9894  11.157   9.333   2.816
 2666SOL    HW1 9895  11.194   9.378   2.892
 2666SOL    HW2 9896  11.063   9.335   2.830
 2667SOL     OW 9897   2.319  10.534   3.310
 2667SOL    HW1 9898   2.266  10.463   3.275
 2667SOL    HW2 9899   2.407  10.497   3.319
 2668SOL     OW 9900   7.615   1.834   9.041
 2668SOL    HW1 9901   7.680   1.895   9.006
 2668SOL    HW2 9902   7.557   1.815   8.967
 2669SOL     OW 9903  11.646   2.167   4.815
 2669SOL    HW1 9904  11.681   2.167   4.904
 2669SOL    HW2 9905  11.571   2.227   4.820
 2670SOL     OW 9906   7.127   1.112  13.244
 2670SOL    HW1 9907   7.162   1.026  13.224
 2670SOL    HW2 9908   7.033   1.099  13.254
 2671SOL     OW 9909   3.356   5.724   4.337
 2671SOL    HW1 9910   3.260   5.721   4.336
 2671SOL    HW2 9911   3.383   5.671   4.262
 2672SOL     OW 9912   1.141  13.615  12.878
 2672SOL    HW1 9913   1.225  13.580  12.908
 2672SOL    HW2 9914   1.148  13.613  12.782
 2673SOL     OW 9915   8.672   4.579  10.254
 2673SOL    HW1 9916   8.591   4.566  10.304
 2673SOL    HW2 9917   8.661   4.524  10.177
 2674SOL     OW 9918   9.140   5.717   7.655
 2674SOL    HW1 9919   9.056   5.759   7.636
 2674SOL    HW2 9920   9.148   5.721   7.750
 2675SOL     OW 9921  12.152   9.725   9.492
 2675SOL    HW1 9922  12.168   9.773   9.411
 2675SOL    HW2 9923  12.222   9.660   9.496
 2676SOL     OW 9924   3.270   4.688   5.541
 2676SOL    HW1 9925   3.286   4.656   5.630
 2676SOL    HW2 9926   3.210   4.761   5.553
 2677SOL     OW 9927   1.392   2.158   8.779
 2677SOL    HW1 9928   1.340   2.189   8.705
 2677SOL    HW2 9929   1.354   2.204   8.855
 2678SOL     OW 9930  10.381  10.673  13.966
 2678SOL    HW1 9931  10.450  10.703  13.907
 2678SOL    HW2 9932  10.343  10.597  13.923
 2679SOL     OW 9933  11.178   5.137   1.116
 2679SOL    HW1 9934  11.177   5.223   1.076
 2679SOL    HW2 9935  11.226   5.082   1.055
 2680SOL     OW 9936   0.814   0.082  11.951
 2680SOL    HW1 9937   0.735   0.136  11.953
 2680SOL    HW2 9938   0.827   0.062  11.858
 2681SOL     OW 9939   6.535   5.012   6.276
 2681SOL    HW1 9940   6.453   5.004   6.227
 2681SOL    HW2 9941   6.569   5.098   6.251
 2682SOL     OW 9942   7.577  14.766  11.554
 2682SOL    HW1 9943   7.496  14.717  11.569
 2682SOL    HW2 9944   7.573  14.791  11.462
 2683SOL     OW 9945  13.612   2.364   4.404
 2683SOL    HW1 9946  13.685   2.419   4.375
 2683SOL    HW2 9947  13.535   2.403   4.364
 2684SOL     OW 9948  12.591   3.640  11.221
 2684SOL    HW1 9949  12.589   3.714  11.160
 2684SOL    HW2 9950  12.499   3.628  11.246
 2685SOL     OW 9951  13.457   6.718  10.778
 2685SOL    HW1 9952  13.374   6.678  10.805
 2685SOL    HW2 9953  13.438   6.757  10.693
 2686SOL     OW 9954  10.615   8.132   6.977
 2686SOL    HW1 9955  10.561   8.164   6.905
 2686SOL    HW2 9956  10.659   8.055   6.942
 2687SOL     OW 9957   5.830   4.153   5.483
 2687SOL    HW1 9958   5.918   4.164   5.449
 2687SOL    HW2 9959   5.836   4.078   5.542
 2688SOL     OW 9960   4.286  10.586  10.296
 2688SOL    HW1 9961   4.326  10.550  10.375
 2688SOL    HW2 9962   4.235  10.661  10.327
 2689SOL     OW 9963   0.231  14.840   4.714
 2689SOL    HW1 9964   0.288  14.839   4.790
 2689SOL    HW2 9965   0.288  14.864   4.641
 2690SOL     OW 9966   0.404   9.590   7.889
 2690SOL    HW1 9967   0.430   9.517   7.833
 2690SOL    HW2 9968   0.329   9.557   7.939
 2691SOL     OW 9969  13.660   2.638  12.197
 2691SOL    HW1 9970  13.573   2.599  12.210
 2691SOL    HW2 9971  13.711   2.568  12.156
 2692SOL     OW 9972   2.097   9.433  14.574
 2692SOL    HW1 9973   2.083   9.342  14.598
 2692SOL    HW2 9974   2.157   9.467  14.641
 2693SOL     OW 9975   3.134  13.425   3.489
 2693SOL    HW1 9976   3.226  13.402   3.471
 2693SOL    HW2 9977   3.124  13.408   3.583
 2694SOL     OW 9978   3.719   6.574   6.149
 2694SOL    HW1 9979   3.645   6.585   6.208
 2694SOL    HW2 9980   3.743   6.481   6.156
 2695SOL     OW 9981   7.749   0.286   4.412
 2695SOL    HW1 9982   7.770   0.314   4.501
 2695SOL    HW2 9983   7.819   0.226   4.388
 2696SOL     OW 9984   2.751   1.803   6.013
 2696SOL    HW1 9985   2.785   1.729   6.064
 2696SOL    HW2 9986   2.826   1.861   6.002
 2697SOL     OW 9987  11.025   7.404   6.569
 2697SOL    HW1 9988  11.078   7.456   6.629
 2697SOL    HW2 9989  10.943   7.452   6.562
 2698SOL     OW 9990   0.018  10.494   0.323
 2698SOL    HW1 9991  14.872  10.582   0.351
 2698SOL    HW2 9992   0.089  10.510   0.260
 2699SOL     OW 9993   2.513   8.062   3.896
 2699SOL    HW1 9994   2.585   8.121   3.916
 2699SOL    HW2 9995   2.554   7.978   3.875
 2700SOL     OW 9996  11.855  14.243  14.823
 2700SOL    HW1 9997  11.763  14.265  14.814
 2700SOL    HW2 9998  11.876  14.194  14.743
 2701SOL     OW 9999   5.022   7.441   2.928
 2701SOL    HW110000   4.995   7.528   2.956
 2701SOL    HW210001   4.941   7.391   2.923
 2702SOL     OW10002   7.052  11.504   6.858
 2702SOL    HW110003   7.090  11.428   6.813
 2702SOL    HW210004   7.126  11.563   6.871
 2703SOL     OW10005   4.737   5.735   7.768
 2703SOL    HW110006   4.668   5.801   7.774
 2703SOL    HW210007   4.736   5.708   7.676
 2704SOL     OW10008   7.910  12.281   5.732
 2704SOL    HW110009   7.933  12.313   5.819
 2704SOL    HW210010   7.901  12.186   5.742
 2705SOL     OW10011   4.081  10.015  10.205
 2705SOL    HW110012   4.072  10.104  10.172
 2705SOL    HW210013   4.000   9.999  10.254
 2706SOL     OW10014   2.566   7.067  10.373
 2706SOL    HW110015   2.581   7.142  10.316
 2706SOL    HW210016   2.498   7.016  10.328
 2707SOL     OW10017   4.932  12.163   2.558
 2707SOL    HW110018   4.949  12.086   2.612
 2707SOL    HW210019   4.985  12.150   2.479
 2708SOL     OW10020   0.948   5.957  12.963
 2708SOL    HW110021   1.029   6.008  12.952
 2708SOL    HW210022   0.882   6.021  12.988
 2709SOL     OW10023   1.097   9.071   3.265
 2709SOL    HW110024   1.069   9.027   3.185
 2709SOL    HW210025   1.157   9.010   3.307
 2710SOL     OW10026   5.673  14.641  13.208
 2710SOL    HW110027   5.678  14.728  13.246
 2710SOL    HW210028   5.587  14.608  13.235
 2711SOL     OW10029   4.487   0.868   2.982
 2711SOL    HW110030   4.452   0.841   2.897
 2711SOL    HW210031   4.560   0.927   2.960
 2712SOL     OW10032   7.773   5.619   5.018
 2712SOL    HW110033   7.761   5.713   5.008
 2712SOL    HW210034   7.863   5.609   5.047
 2713SOL     OW10035   3.904  11.621   1.667
 2713SOL    HW110036   3.849  11.591   1.740
 2713SOL    HW210037   3.871  11.573   1.591
 2714SOL     OW10038   4.877   9.625  12.708
 2714SOL    HW110039   4.808   9.684  12.738
 2714SOL    HW210040   4.867   9.623  12.613
 2715SOL     OW10041   3.342   3.364  13.052
 2715SOL    HW110042   3.247   3.372  13.053
 2715SOL    HW210043   3.374   3.443  13.096
 2716SOL     OW10044   5.603   9.685  10.278
 2716SOL    HW110045   5.595   9.695  10.373
 2716SOL    HW210046   5.514   9.692  10.245
 2717SOL     OW10047   4.766   6.432   0.052
 2717SOL    HW110048   4.750   6.444  14.839
 2717SOL    HW210049   4.769   6.520   0.088
 2718SOL     OW10050   0.093   4.975   2.092
 2718SOL    HW110051   0.124   4.921   2.165
 2718SOL    HW210052   0.153   4.956   2.021
 2719SOL     OW10053   2.086   1.199   7.438
 2719SOL    HW110054   2.168   1.171   7.398
 2719SOL    HW210055   2.042   1.118   7.462
 2720SOL     OW10056  11.316  12.181   7.868
 2720SOL    HW110057  11.290  12.252   7.926
 2720SOL    HW210058  11.240  12.123   7.865
 2721SOL     OW10059  12.730   6.894   4.540
 2721SOL    HW110060  12.799   6.932   4.594
 2721SOL    HW210061  12.649   6.911   4.588
 2722SOL     OW10062   2.877  12.543   2.124
 2722SOL    HW110063   2.871  12.631   2.161
 2722SOL    HW210064   2.949  12.548   2.061
 2723SOL     OW10065  14.685   7.972   6.381
 2723SOL    HW110066  14.590   7.957   6.379
 2723SOL    HW210067  14.723   7.884   6.387
 2724SOL     OW10068   2.329   4.492   4.692
 2724SOL    HW110069   2.362   4.503   4.781
 2724SOL    HW210070   2.240   4.457   4.704
 2725SOL     OW10071   6.732  10.526  13.547
 2725SOL    HW110072   6.667  10.547  13.614
 2725SOL    HW210073   6.710  10.438  13.519
 2726SOL     OW10074  10.084  11.483   5.559
 2726SOL    HW110075  10.107  11.527   5.640
 2726SOL    HW210076  10.008  11.429   5.582
 2727SOL     OW10077  14.062   5.531  11.892
 2727SOL    HW110078  14.066   5.508  11.799
 2727SOL    HW210079  13.969   5.538  11.911
 2728SOL     OW10080   6.065   4.136   5.043
 2728SOL    HW110081   6.107   4.051   5.055
 2728SOL    HW210082   6.131   4.189   4.998
 2729SOL     OW10083   6.453   3.763   4.092
 2729SOL    HW110084   6.525   3.759   4.028
 2729SOL    HW210085   6.490   3.811   4.166
 2730SOL     OW10086   2.744   9.250   1.757
 2730SOL    HW110087   2.730   9.156   1.743
 2730SOL    HW210088   2.717   9.290   1.675
 2731SOL     OW10089   8.142   3.123   8.869
 2731SOL    HW110090   8.225   3.079   8.882
 2731SOL    HW210091   8.164   3.216   8.869
 2732SOL     OW10092  10.977   1.292   1.511
 2732SOL    HW110093  11.049   1.247   1.467
 2732SOL    HW210094  10.997   1.283   1.605
 2733SOL     OW10095   3.366  13.363  11.703
 2733SOL    HW110096   3.398  13.417  11.631
 2733SOL    HW210097   3.413  13.279  11.693
 2734SOL     OW10098   5.853   8.418   5.270
 2734SOL    HW110099   5.889   8.352   5.329
 2734SOL    HW210100   5.759   8.399   5.266
 2735SOL     OW10101   8.817  14.131  10.150
 2735SOL    HW110102   8.834  14.081  10.070
 2735SOL    HW210103   8.857  14.080  10.220
 2736SOL     OW10104   9.124   6.776   6.615
 2736SOL    HW110105   9.188   6.754   6.683
 2736SOL    HW210106   9.047   6.724   6.638
 2737SOL     OW10107  10.560   7.366  13.461
 2737SOL    HW110108  10.568   7.460  13.475
 2737SOL    HW210109  10.649   7.332  13.472
 2738SOL     OW10110  12.540   3.821   8.438
 2738SOL    HW110111  12.471   3.856   8.382
 2738SOL    HW210112  12.496   3.800   8.520
 2739SOL     OW10113  10.371   1.565   1.188
 2739SOL    HW110114  10.395   1.566   1.095
 2739SOL    HW210115  10.310   1.492   1.196
 2740SOL     OW10116   6.127   8.678  11.146
 2740SOL    HW110117   6.199   8.620  11.119
 2740SOL    HW210118   6.110   8.733  11.070
 2741SOL     OW10119   0.419   1.830   7.252
 2741SOL    HW110120   0.452   1.917   7.227
 2741SOL    HW210121   0.406   1.836   7.347
 2742SOL     OW10122   1.303  11.413  13.006
 2742SOL    HW110123   1.389  11.404  12.966
 2742SOL    HW210124   1.242  11.417  12.932
 2743SOL     OW10125   8.235   2.280   4.671
 2743SOL    HW110126   8.206   2.229   4.595
 2743SOL    HW210127   8.287   2.351   4.634
 2744SOL     OW10128   5.254   0.417   2.742
 2744SOL    HW110129   5.341   0.441   2.773
 2744SOL    HW210130   5.205   0.499   2.739
 2745SOL     OW10131  14.212   3.137  14.122
 2745SOL    HW110132  14.204   3.231  14.134
 2745SOL    HW210133  14.231   3.126  14.029
 2746SOL     OW10134  10.095   3.699  10.510
 2746SOL    HW110135  10.176   3.740  10.542
 2746SOL    HW210136  10.028   3.766  10.523
 2747SOL     OW10137   8.470  14.745  11.646
 2747SOL    HW110138   8.397  14.692  11.676
 2747SOL    HW210139   8.546  14.708  11.692
 2748SOL     OW10140  12.770  12.417  12.972
 2748SOL    HW110141  12.684  12.410  13.015
 2748SOL    HW210142  12.755  12.476  12.899
 2749SOL     OW10143  13.538   9.315   7.342
 2749SOL    HW110144  13.601   9.384   7.364
 2749SOL    HW210145  13.481   9.310   7.419
 2750SOL     OW10146   1.924   9.520   6.689
 2750SOL    HW110147   1.955   9.445   6.740
 2750SOL    HW210148   1.881   9.480   6.613
 2751SOL     OW10149   1.903   4.929  14.366
 2751SOL    HW110150   1.813   4.906  14.390
 2751SOL    HW210151   1.895   4.972  14.281
 2752SOL     OW10152   1.727  11.490  12.568
 2752SOL    HW110153   1.701  11.465  12.656
 2752SOL    HW210154   1.758  11.408  12.528
 2753SOL     OW10155   2.283  13.308   8.067
 2753SOL    HW110156   2.190  13.330   8.063
 2753SOL    HW210157   2.284  13.212   8.078
 2754SOL     OW10158   3.828  14.235  14.137
 2754SOL    HW110159   3.899  14.253  14.199
 2754SOL    HW210160   3.871  14.187  14.066
 2755SOL     OW10161   3.088  10.358  12.035
 2755SOL    HW110162   3.085  10.268  12.067
 2755SOL    HW210163   3.134  10.353  11.951
 2756SOL     OW10164   7.540   9.033  11.530
 2756SOL    HW110165   7.596   8.965  11.493
 2756SOL    HW210166   7.489   8.989  11.597
 2757SOL     OW10167   5.302  14.767  11.347
 2757SOL    HW110168   5.237  14.789  11.413
 2757SOL    HW210169   5.262  14.792  11.264
 2758SOL     OW10170  12.050   5.596  13.035
 2758SOL    HW110171  12.132   5.548  13.038
 2758SOL    HW210172  11.983   5.531  13.055
 2759SOL     OW10173   3.821   4.451  14.196
 2759SOL    HW110174   3.763   4.433  14.269
 2759SOL    HW210175   3.892   4.503  14.234
 2760SOL     OW10176   5.610   6.155  14.228
 2760SOL    HW110177   5.678   6.121  14.287
 2760SOL    HW210178   5.599   6.246  14.254
 2761SOL     OW10179   1.663   8.983   8.953
 2761SOL    HW110180   1.727   8.912   8.959
 2761SOL    HW210181   1.715   9.062   8.966
 2762SOL     OW10182   1.720  12.926  14.502
 2762SOL    HW110183   1.752  12.909  14.413
 2762SOL    HW210184   1.667  12.849  14.523
 2763SOL     OW10185   9.447   4.699   8.213
 2763SOL    HW110186   9.377   4.666   8.269
 2763SOL    HW210187   9.509   4.740   8.273
 2764SOL     OW10188   9.721   4.815   8.799
 2764SOL    HW110189   9.746   4.903   8.771
 2764SOL    HW210190   9.663   4.783   8.730
 2765SOL     OW10191  12.854   7.408  12.693
 2765SOL    HW110192  12.884   7.341  12.631
 2765SOL    HW210193  12.831   7.359  12.772
 2766SOL     OW10194  10.417   5.282  14.149
 2766SOL    HW110195  10.328   5.250  14.140
 2766SOL    HW210196  10.418   5.367  14.103
 2767SOL     OW10197  11.356   0.977  14.776
 2767SOL    HW110198  11.282   1.038  14.775
 2767SOL    HW210199  11.328   0.906  14.833
 2768SOL     OW10200   7.969  11.272  11.087
 2768SOL    HW110201   8.006  11.360  11.097
 2768SOL    HW210202   7.892  11.271  11.143
 2769SOL     OW10203   9.457   1.152   2.765
 2769SOL    HW110204   9.430   1.216   2.699
 2769SOL    HW210205   9.501   1.204   2.832
 2770SOL     OW10206   1.174  11.493   2.905
 2770SOL    HW110207   1.252  11.489   2.850
 2770SOL    HW210208   1.101  11.496   2.843
 2771SOL     OW10209  13.347   7.838  11.805
 2771SOL    HW110210  13.340   7.857  11.898
 2771SOL    HW210211  13.272   7.781  11.786
 2772SOL     OW10212   9.769   4.459   8.361
 2772SOL    HW110213   9.851   4.472   8.314
 2772SOL    HW210214   9.702   4.451   8.293
 2773SOL     OW10215   4.046   2.921   3.882
 2773SOL    HW110216   3.962   2.880   3.863
 2773SOL    HW210217   4.038   2.953   3.972
 2774SOL     OW10218   8.467   9.785   9.948
 2774SOL    HW110219   8.466   9.858   9.886
 2774SOL    HW210220   8.529   9.723   9.911
 2775SOL     OW10221  11.516   1.988   5.676
 2775SOL    HW110222  11.441   1.936   5.647
 2775SOL    HW210223  11.480   2.075   5.694
 2776SOL     OW10224   5.651   9.249   6.616
 2776SOL    HW110225   5.737   9.221   6.585
 2776SOL    HW210226   5.620   9.312   6.550
 2777SOL     OW10227  14.041   0.865   4.209
 2777SOL    HW110228  13.995   0.923   4.269
 2777SOL    HW210229  14.133   0.890   4.216
 2778SOL     OW10230   8.054   8.363   8.023
 2778SOL    HW110231   7.993   8.347   7.950
 2778SOL    HW210232   8.138   8.329   7.992
 2779SOL     OW10233   6.729   3.659   8.159
 2779SOL    HW110234   6.762   3.610   8.234
 2779SOL    HW210235   6.725   3.749   8.190
 2780SOL     OW10236  10.964   7.522   7.316
 2780SOL    HW110237  10.932   7.432   7.321
 2780SOL    HW210238  11.045   7.522   7.366
 2781SOL     OW10239   7.306  11.855  11.609
 2781SOL    HW110240   7.257  11.804  11.672
 2781SOL    HW210241   7.303  11.804  11.528
 2782SOL     OW10242   4.138   8.939   6.565
 2782SOL    HW110243   4.220   8.916   6.607
 2782SOL    HW210244   4.070   8.897   6.618
 2783SOL     OW10245   0.104   9.044   1.213
 2783SOL    HW110246   0.143   8.980   1.273
 2783SOL    HW210247   0.063   9.108   1.271
 2784SOL     OW10248  10.122  11.950   0.148
 2784SOL    HW110249  10.113  12.045   0.141
 2784SOL    HW210250  10.045  11.915   0.104
 2785SOL     OW10251   9.525   7.673   4.258
 2785SOL    HW110252   9.461   7.698   4.192
 2785SOL    HW210253   9.535   7.578   4.247
 2786SOL     OW10254   2.548  14.107  12.170
 2786SOL    HW110255   2.568  14.163  12.244
 2786SOL    HW210256   2.467  14.062  12.194
 2787SOL     OW10257   5.098  12.402  10.158
 2787SOL    HW110258   5.014  12.444  10.138
 2787SOL    HW210259   5.073  12.312  10.182
 2788SOL     OW10260  13.840   4.104   1.992
 2788SOL    HW110261  13.855   4.079   1.901
 2788SOL    HW210262  13.859   4.025   2.042
 2789SOL     OW10263  14.390   7.657   5.821
 2789SOL    HW110264  14.483   7.645   5.840
 2789SOL    HW210265  14.346   7.585   5.867
 2790SOL     OW10266   5.263  10.839  13.159
 2790SOL    HW110267   5.337  10.858  13.102
 2790SOL    HW210268   5.262  10.744  13.165
 2791SOL     OW10269   1.758  12.511  12.130
 2791SOL    HW110270   1.829  12.569  12.158
 2791SOL    HW210271   1.759  12.439  12.193
 2792SOL     OW10272   1.028   2.537   9.148
 2792SOL    HW110273   1.021   2.633   9.154
 2792SOL    HW210274   0.989   2.515   9.064
 2793SOL     OW10275  14.705   1.676  11.480
 2793SOL    HW110276  14.688   1.656  11.388
 2793SOL    HW210277  14.751   1.599  11.513
 2794SOL     OW10278  10.190  14.683   1.122
 2794SOL    HW110279  10.224  14.617   1.061
 2794SOL    HW210280  10.096  14.667   1.126
 2795SOL     OW10281   5.400   6.796   0.761
 2795SOL    HW110282   5.406   6.779   0.667
 2795SOL    HW210283   5.365   6.714   0.797
 2796SOL     OW10284   1.714   4.369   6.458
 2796SOL    HW110285   1.678   4.387   6.371
 2796SOL    HW210286   1.649   4.404   6.519
 2797SOL     OW10287  10.922  12.035   0.271
 2797SOL    HW110288  10.952  12.110   0.219
 2797SOL    HW210289  10.873  12.075   0.344
 2798SOL     OW10290   4.322   3.577   9.468
 2798SOL    HW110291   4.314   3.614   9.380
 2798SOL    HW210292   4.319   3.652   9.527
 2799SOL     OW10293  11.555   5.018   5.237
 2799SOL    HW110294  11.538   5.111   5.244
 2799SOL    HW210295  11.648   5.012   5.213
 2800SOL     OW10296  13.128   6.286   2.562
 2800SOL    HW110297  13.153   6.236   2.485
 2800SOL    HW210298  13.211   6.315   2.600
 2801SOL     OW10299   0.135   3.032   5.044
 2801SOL    HW110300   0.178   3.104   4.997
 2801SOL    HW210301   0.175   2.953   5.008
 2802SOL     OW10302   5.798  14.294   8.484
 2802SOL    HW110303   5.744  14.233   8.435
 2802SOL    HW210304   5.735  14.351   8.528
 2803SOL     OW10305   6.060   8.873   8.087
 2803SOL    HW110306   6.062   8.854   8.181
 2803SOL    HW210307   6.003   8.806   8.050
 2804SOL     OW10308   2.692   5.717   0.826
 2804SOL    HW110309   2.642   5.797   0.811
 2804SOL    HW210310   2.686   5.669   0.743
 2805SOL     OW10311  11.603   5.400  11.329
 2805SOL    HW110312  11.643   5.424  11.245
 2805SOL    HW210313  11.648   5.320  11.355
 2806SOL     OW10314   7.050   3.101  14.845
 2806SOL    HW110315   7.072   3.071   0.053
 2806SOL    HW210316   7.117   3.061  14.788
 2807SOL     OW10317   5.649   2.435   4.955
 2807SOL    HW110318   5.627   2.400   5.041
 2807SOL    HW210319   5.736   2.474   4.967
 2808SOL     OW10320   5.948   1.938   6.297
 2808SOL    HW110321   5.902   2.021   6.313
 2808SOL    HW210322   5.928   1.884   6.374
 2809SOL     OW10323   7.640   2.459   0.827
 2809SOL    HW110324   7.641   2.549   0.795
 2809SOL    HW210325   7.548   2.432   0.821
 2810SOL     OW10326  11.931  14.263   8.697
 2810SOL    HW110327  11.964  14.219   8.619
 2810SOL    HW210328  12.008  14.303   8.737
 2811SOL     OW10329   2.835  11.688   4.931
 2811SOL    HW110330   2.796  11.601   4.918
 2811SOL    HW210331   2.871  11.685   5.020
 2812SOL     OW10332  10.973  10.717  12.448
 2812SOL    HW110333  10.973  10.668  12.366
 2812SOL    HW210334  10.896  10.774  12.443
 2813SOL     OW10335  13.053   3.358   0.511
 2813SOL    HW110336  13.118   3.384   0.446
 2813SOL    HW210337  13.104   3.319   0.582
 2814SOL     OW10338  14.676   5.451   6.067
 2814SOL    HW110339  14.627   5.513   6.014
 2814SOL    HW210340  14.734   5.506   6.120
 2815SOL     OW10341  14.022  13.170  11.806
 2815SOL    HW110342  13.966  13.238  11.843
 2815SOL    HW210343  13.984  13.088  11.837
 2816SOL     OW10344   3.594  11.043   2.396
 2816SOL    HW110345   3.510  11.088   2.404
 2816SOL    HW210346   3.624  11.032   2.487
 2817SOL     OW10347  10.014   2.712  12.896
 2817SOL    HW110348   9.941   2.774  12.903
 2817SOL    HW210349  10.071   2.751  12.829
 2818SOL     OW10350  14.367   5.348   3.413
 2818SOL    HW110351  14.334   5.263   3.384
 2818SOL    HW210352  14.422   5.329   3.488
 2819SOL     OW10353   5.985   5.565   8.186
 2819SOL    HW110354   6.010   5.657   8.180
 2819SOL    HW210355   6.047   5.527   8.248
 2820SOL     OW10356   1.035   0.028   6.929
 2820SOL    HW110357   1.066   0.097   6.988
 2820SOL    HW210358   1.021  14.832   6.986
 2821SOL     OW10359  12.286   2.756   5.478
 2821SOL    HW110360  12.343   2.774   5.554
 2821SOL    HW210361  12.325   2.806   5.407
 2822SOL     OW10362   7.140   2.090  10.509
 2822SOL    HW110363   7.204   2.114  10.442
 2822SOL    HW210364   7.182   2.112  10.592
 2823SOL     OW10365   4.142   0.295   8.497
 2823SOL    HW110366   4.104   0.372   8.540
 2823SOL    HW210367   4.185   0.330   8.419
 2824SOL     OW10368   1.945   2.138  13.291
 2824SOL    HW110369   1.932   2.217  13.343
 2824SOL    HW210370   2.015   2.090  13.337
 2825SOL     OW10371   0.883   2.089   5.500
 2825SOL    HW110372   0.852   2.022   5.561
 2825SOL    HW210373   0.814   2.155   5.499
 2826SOL     OW10374   1.895   9.992  11.254
 2826SOL    HW110375   1.918   9.906  11.290
 2826SOL    HW210376   1.980  10.033  11.235
 2827SOL     OW10377   0.136  11.764   1.942
 2827SOL    HW110378   0.156  11.711   1.865
 2827SOL    HW210379   0.050  11.801   1.923
 2828SOL     OW10380   8.044   4.995   6.794
 2828SOL    HW110381   8.134   4.962   6.804
 2828SOL    HW210382   7.994   4.948   6.860
 2829SOL     OW10383  11.318   4.107   2.741
 2829SOL    HW110384  11.406   4.119   2.704
 2829SOL    HW210385  11.262   4.162   2.686
 2830SOL     OW10386   0.060   8.747  10.222
 2830SOL    HW110387   0.047   8.694  10.300
 2830SOL    HW210388   0.037   8.836  10.249
 2831SOL     OW10389  10.135  13.619  10.715
 2831SOL    HW110390  10.172  13.532  10.727
 2831SOL    HW210391  10.211  13.676  10.702
 2832SOL     OW10392  11.758  10.224   1.783
 2832SOL    HW110393  11.796  10.311   1.791
 2832SOL    HW210394  11.679  10.227   1.837
 2833SOL     OW10395   8.987   8.557   5.155
 2833SOL    HW110396   8.908   8.508   5.133
 2833SOL    HW210397   9.044   8.545   5.079
 2834SOL     OW10398  12.412   7.320  10.007
 2834SOL    HW110399  12.340   7.294  10.064
 2834SOL    HW210400  12.408   7.258   9.934
 2835SOL     OW10401   4.750  12.419   6.970
 2835SOL    HW110402   4.706  12.455   6.893
 2835SOL    HW210403   4.843  12.419   6.948
 2836SOL     OW10404   8.047   8.867   3.465
 2836SOL    HW110405   8.027   8.959   3.482
 2836SOL    HW210406   7.971   8.834   3.418
 2837SOL     OW10407   2.291   7.478   0.630
 2837SOL    HW110408   2.367   7.536   0.620
 2837SOL    HW210409   2.228   7.530   0.680
 2838SOL     OW10410   3.506   5.185  13.287
 2838SOL    HW110411   3.492   5.276  13.260
 2838SOL    HW210412   3.418   5.148  13.293
 2839SOL     OW10413   3.971   6.378   2.405
 2839SOL    HW110414   4.060   6.376   2.372
 2839SOL    HW210415   3.971   6.315   2.477
 2840SOL     OW10416   6.668   5.566   1.228
 2840SOL    HW110417   6.682   5.638   1.167
 2840SOL    HW210418   6.665   5.607   1.314
 2841SOL     OW10419   2.874  11.786   7.806
 2841SOL    HW110420   2.915  11.773   7.892
 2841SOL    HW210421   2.916  11.865   7.772
 2842SOL     OW10422  12.852  10.532  10.440
 2842SOL    HW110423  12.793  10.456  10.439
 2842SOL    HW210424  12.844  10.568  10.529
 2843SOL     OW10425   0.016   6.054  13.865
 2843SOL    HW110426  14.813   6.019  13.833
 2843SOL    HW210427  14.871   6.118  13.932
 2844SOL     OW10428   7.885   3.942  10.630
 2844SOL    HW110429   7.926   3.872  10.579
 2844SOL    HW210430   7.803   3.961  10.583
 2845SOL     OW10431   9.811  13.572  14.102
 2845SOL    HW110432   9.743  13.639  14.110
 2845SOL    HW210433   9.882  13.615  14.054
 2846SOL     OW10434  11.106  11.871   0.477
 2846SOL    HW110435  11.174  11.851   0.413
 2846SOL    HW210436  11.074  11.957   0.452
 2847SOL     OW10437   6.818  13.414   2.236
 2847SOL    HW110438   6.733  13.372   2.218
 2847SOL    HW210439   6.837  13.463   2.156
 2848SOL     OW10440   8.432   0.047   1.762
 2848SOL    HW110441   8.357   0.106   1.755
 2848SOL    HW210442   8.506   0.100   1.734
 2849SOL     OW10443   1.252   7.583   3.524
 2849SOL    HW110444   1.346   7.564   3.531
 2849SOL    HW210445   1.246   7.678   3.527
 2850SOL     OW10446   4.532   3.159   9.013
 2850SOL    HW110447   4.557   3.170   8.921
 2850SOL    HW210448   4.615   3.159   9.061
 2851SOL     OW10449  12.117   5.926   6.547
 2851SOL    HW110450  12.059   5.851   6.562
 2851SOL    HW210451  12.168   5.902   6.470
 2852SOL     OW10452   9.916   3.560   3.280
 2852SOL    HW110453   9.826   3.551   3.251
 2852SOL    HW210454   9.964   3.491   3.233
 2853SOL     OW10455   8.170   7.133  13.363
 2853SOL    HW110456   8.136   7.210  13.317
 2853SOL    HW210457   8.196   7.165  13.449
 2854SOL     OW10458  11.336   1.376   2.233
 2854SOL    HW110459  11.418   1.337   2.264
 2854SOL    HW210460  11.273   1.304   2.237
 2855SOL     OW10461  13.903  14.352   4.368
 2855SOL    HW110462  13.813  14.362   4.340
 2855SOL    HW210463  13.902  14.372   4.462
 2856SOL     OW10464  13.018  14.800   1.093
 2856SOL    HW110465  12.959  14.729   1.067
 2856SOL    HW210466  12.971  14.880   1.068
 2857SOL     OW10467   1.049  12.475   3.544
 2857SOL    HW110468   1.052  12.525   3.463
 2857SOL    HW210469   1.119  12.410   3.535
 2858SOL     OW10470  13.548   3.336  10.781
 2858SOL    HW110471  13.478   3.400  10.766
 2858SOL    HW210472  13.504   3.260  10.818
 2859SOL     OW10473  14.107   7.266   1.193
 2859SOL    HW110474  14.128   7.177   1.219
 2859SOL    HW210475  14.043   7.296   1.259
 2860SOL     OW10476   0.236  11.317   4.940
 2860SOL    HW110477   0.271  11.391   4.990
 2860SOL    HW210478   0.311  11.285   4.890
 2861SOL     OW10479   0.478   0.183   0.808
 2861SOL    HW110480   0.465   0.096   0.771
 2861SOL    HW210481   0.440   0.177   0.896
 2862SOL     OW10482   0.954   0.619   3.512
 2862SOL    HW110483   0.960   0.698   3.565
 2862SOL    HW210484   0.954   0.548   3.575
 2863SOL     OW10485  12.386   7.662  12.678
 2863SOL    HW110486  12.329   7.610  12.735
 2863SOL    HW210487  12.369   7.753  12.706
 2864SOL     OW10488  13.518   0.517  14.636
 2864SOL    HW110489  13.576   0.454  14.594
 2864SOL    HW210490  13.574   0.593  14.653
 2865SOL     OW10491   6.182   1.928   3.624
 2865SOL    HW110492   6.169   2.020   3.601
 2865SOL    HW210493   6.269   1.907   3.590
 2866SOL     OW10494  12.118   7.905   7.536
 2866SOL    HW110495  12.033   7.888   7.495
 2866SOL    HW210496  12.117   7.999   7.555
 2867SOL     OW10497   6.902   2.171   7.366
 2867SOL    HW110498   6.910   2.169   7.461
 2867SOL    HW210499   6.808   2.176   7.350
 2868SOL     OW10500   0.764   4.941   2.890
 2868SOL    HW110501   0.778   5.034   2.907
 2868SOL    HW210502   0.689   4.938   2.831
 2869SOL     OW10503   9.318   4.836   3.767
 2869SOL    HW110504   9.284   4.754   3.730
 2869SOL    HW210505   9.329   4.893   3.691
 2870SOL     OW10506  14.342  11.825   7.364
 2870SOL    HW110507  14.281  11.783   7.424
 2870SOL    HW210508  14.388  11.889   7.418
 2871SOL     OW10509  10.700   8.288   8.248
 2871SOL    HW110510  10.746   8.364   8.212
 2871SOL    HW210511  10.761   8.252   8.313
 2872SOL     OW10512   1.219  14.088   2.187
 2872SOL    HW110513   1.280  14.015   2.180
 2872SOL    HW210514   1.259  14.158   2.135
 2873SOL     OW10515   6.265   6.258   4.302
 2873SOL    HW110516   6.359   6.242   4.295
 2873SOL    HW210517   6.225   6.171   4.299
 2874SOL     OW10518  13.385   8.648   0.880
 2874SOL    HW110519  13.318   8.668   0.815
 2874SOL    HW210520  13.466   8.683   0.844
 2875SOL     OW10521  11.015   1.740   4.910
 2875SOL    HW110522  11.090   1.778   4.956
 2875SOL    HW210523  11.053   1.702   4.831
 2876SOL     OW10524  11.064   8.585  13.631
 2876SOL    HW110525  11.076   8.527  13.706
 2876SOL    HW210526  11.151   8.592  13.592
 2877SOL     OW10527   5.318   5.194  13.832
 2877SOL    HW110528   5.402   5.154  13.855
 2877SOL    HW210529   5.255   5.151  13.890
 2878SOL     OW10530   8.333   2.141   7.683
 2878SOL    HW110531   8.373   2.055   7.696
 2878SOL    HW210532   8.241   2.121   7.662
 2879SOL     OW10533   9.542   7.223  13.166
 2879SOL    HW110534   9.451   7.226  13.137
 2879SOL    HW210535   9.543   7.276  13.246
 2880SOL     OW10536  11.776   8.202   9.440
 2880SOL    HW110537  11.748   8.121   9.483
 2880SOL    HW210538  11.700   8.229   9.388
 2881SOL     OW10539  13.952  11.935   7.635
 2881SOL    HW110540  13.888  11.983   7.687
 2881SOL    HW210541  14.035  11.945   7.683
 2882SOL     OW10542  13.388   0.139   3.865
 2882SOL    HW110543  13.462   0.106   3.815
 2882SOL    HW210544  13.318   0.150   3.801
 2883SOL     OW10545   8.604   5.988   3.560
 2883SOL    HW110546   8.532   6.044   3.590
 2883SOL    HW210547   8.614   5.923   3.629
 2884SOL     OW10548   6.469  14.624   9.575
 2884SOL    HW110549   6.422  14.621   9.658
 2884SOL    HW210550   6.534  14.553   9.582
 2885SOL     OW10551  12.529  14.606   4.567
 2885SOL    HW110552  12.506  14.550   4.642
 2885SOL    HW210553  12.602  14.561   4.524
 2886SOL     OW10554  13.670   5.736   9.634
 2886SOL    HW110555  13.612   5.673   9.591
 2886SOL    HW210556  13.758   5.712   9.604
 2887SOL     OW10557   3.368  12.904   5.461
 2887SOL    HW110558   3.276  12.929   5.465
 2887SOL    HW210559   3.380  12.842   5.533
 2888SOL     OW10560   1.724  12.870   2.048
 2888SOL    HW110561   1.712  12.797   2.110
 2888SOL    HW210562   1.666  12.938   2.081
 2889SOL     OW10563   0.126   3.461   4.840
 2889SOL    HW110564   0.055   3.501   4.890
 2889SOL    HW210565   0.200   3.520   4.852
 2890SOL     OW10566  12.033  14.421  14.123
 2890SOL    HW110567  11.987  14.349  14.166
 2890SOL    HW210568  11.986  14.435  14.041
 2891SOL     OW10569  12.441   1.370   3.776
 2891SOL    HW110570  12.526   1.370   3.733
 2891SOL    HW210571  12.387   1.310   3.722
 2892SOL     OW10572   5.316   1.325   1.528
 2892SOL    HW110573   5.245   1.311   1.590
 2892SOL    HW210574   5.391   1.349   1.583
 2893SOL     OW10575   2.671  13.185   9.009
 2893SOL    HW110576   2.750  13.222   9.050
 2893SOL    HW210577   2.689  13.091   9.002
 2894SOL     OW10578  12.158  10.269  12.737
 2894SOL    HW110579  12.103  10.268  12.659
 2894SOL    HW210580  12.136  10.188  12.782
 2895SOL     OW10581   1.148   7.082   9.890
 2895SOL    HW110582   1.108   7.005   9.931
 2895SOL    HW210583   1.124   7.075   9.797
 2896SOL     OW10584   5.910  12.958   9.822
 2896SOL    HW110585   5.821  12.925   9.814
 2896SOL    HW210586   5.958  12.888   9.867
 2897SOL     OW10587   0.173   1.254   9.439
 2897SOL    HW110588   0.234   1.310   9.488
 2897SOL    HW210589   0.227   1.217   9.368
 2898SOL     OW10590   7.635   5.050  12.488
 2898SOL    HW110591   7.562   5.037  12.428
 2898SOL    HW210592   7.682   4.967  12.487
 2899SOL     OW10593  12.102   9.856   4.608
 2899SOL    HW110594  12.148   9.811   4.537
 2899SOL    HW210595  12.169   9.870   4.675
 2900SOL     OW10596   3.535   8.701   2.922
 2900SOL    HW110597   3.462   8.673   2.868
 2900SOL    HW210598   3.562   8.623   2.970
 2901SOL     OW10599  12.100   9.803   2.521
 2901SOL    HW110600  12.114   9.717   2.562
 2901SOL    HW210601  12.072   9.860   2.593
 2902SOL     OW10602   4.215   0.669   9.013
 2902SOL    HW110603   4.179   0.685   8.925
 2902SOL    HW210604   4.252   0.581   9.008
 2903SOL     OW10605  14.445  13.323   9.098
 2903SOL    HW110606  14.472  13.269   9.024
 2903SOL    HW210607  14.415  13.261   9.164
 2904SOL     OW10608  10.837  13.892  11.044
 2904SOL    HW110609  10.782  13.815  11.030
 2904SOL    HW210610  10.927  13.857  11.040
 2905SOL     OW10611   4.985   4.090   1.705
 2905SOL    HW110612   5.020   4.009   1.669
 2905SOL    HW210613   5.061   4.138   1.736
 2906SOL     OW10614   0.324   0.945  13.988
 2906SOL    HW110615   0.320   0.955  13.893
 2906SOL    HW210616   0.399   0.998  14.015
 2907SOL     OW10617   5.090  14.091   9.965
 2907SOL    HW110618   5.148  14.095   9.889
 2907SOL    HW210619   5.064  14.182   9.980
 2908SOL     OW10620   0.285   7.442  11.706
 2908SOL    HW110621   0.199   7.475  11.733
 2908SOL    HW210622   0.285   7.350  11.735
 2909SOL     OW10623   6.607   6.336  10.443
 2909SOL    HW110624   6.541   6.397  10.411
 2909SOL    HW210625   6.682   6.349  10.384
 2910SOL     OW10626   4.777   5.432   3.103
 2910SOL    HW110627   4.755   5.507   3.047
 2910SOL    HW210628   4.828   5.470   3.174
 2911SOL     OW10629  11.964   7.451   2.927
 2911SOL    HW110630  11.990   7.481   3.014
 2911SOL    HW210631  11.884   7.500   2.907
 2912SOL     OW10632   3.509   7.895   8.124
 2912SOL    HW110633   3.486   7.900   8.217
 2912SOL    HW210634   3.604   7.885   8.124
 2913SOL     OW10635   6.133   0.474  10.635
 2913SOL    HW110636   6.097   0.406  10.578
 2913SOL    HW210637   6.158   0.544  10.575
 2914SOL     OW10638  11.374  12.528   3.409
 2914SOL    HW110639  11.459  12.505   3.447
 2914SOL    HW210640  11.327  12.572   3.480
 2915SOL     OW10641   4.762   8.137  12.128
 2915SOL    HW110642   4.686   8.086  12.101
 2915SOL    HW210643   4.755   8.219  12.079
 2916SOL     OW10644   1.124  12.874   2.352
 2916SOL    HW110645   1.189  12.815   2.390
 2916SOL    HW210646   1.042  12.850   2.395
 2917SOL     OW10647   0.965  10.973   9.237
 2917SOL    HW110648   1.038  10.990   9.177
 2917SOL    HW210649   0.942  11.060   9.271
 2918SOL     OW10650  13.750  13.213   9.286
 2918SOL    HW110651  13.824  13.152   9.286
 2918SOL    HW210652  13.743  13.243   9.196
 2919SOL     OW10653   2.214   8.363  11.115
 2919SOL    HW110654   2.252   8.388  11.199
 2919SOL    HW210655   2.166   8.282  11.132
 2920SOL     OW10656   9.951   0.221   5.594
 2920SOL    HW110657   9.868   0.267   5.580
 2920SOL    HW210658  10.013   0.267   5.538
 2921SOL     OW10659   5.393   8.419   8.645
 2921SOL    HW110660   5.323   8.407   8.579
 2921SOL    HW210661   5.391   8.512   8.666
 2922SOL     OW10662  11.694   6.290  10.190
 2922SOL    HW110663  11.750   6.213  10.196
 2922SOL    HW210664  11.708   6.323  10.101
 2923SOL     OW10665   3.647  14.203   6.344
 2923SOL    HW110666   3.605  14.194   6.258
 2923SOL    HW210667   3.738  14.226   6.323
 2924SOL     OW10668  14.761  12.547   2.619
 2924SOL    HW110669  14.756  12.462   2.663
 2924SOL    HW210670  14.715  12.535   2.536
 2925SOL     OW10671  14.422   8.060   4.450
 2925SOL    HW110672  14.406   8.021   4.364
 2925SOL    HW210673  14.489   8.126   4.434
 2926SOL     OW10674   0.817  12.952   9.010
 2926SOL    HW110675   0.893  12.979   9.061
 2926SOL    HW210676   0.741  12.985   9.059
 2927SOL     OW10677   6.478   5.997   0.307
 2927SOL    HW110678   6.536   6.020   0.379
 2927SOL    HW210679   6.532   6.004   0.228
 2928SOL     OW10680  10.693   0.655   4.568
 2928SOL    HW110681  10.706   0.740   4.610
 2928SOL    HW210682  10.619   0.616   4.614
 2929SOL     OW10683   7.503   7.459   0.716
 2929SOL    HW110684   7.535   7.409   0.641
 2929SOL    HW210685   7.578   7.466   0.774
 2930SOL     OW10686  10.652   8.389  13.145
 2930SOL    HW110687  10.669   8.483  13.138
 2930SOL    HW210688  10.737   8.348  13.132
 2931SOL     OW10689   7.187   7.713  10.917
 2931SOL    HW110690   7.177   7.638  10.976
 2931SOL    HW210691   7.099   7.749  10.908
 2932SOL     OW10692   8.658   3.294   4.604
 2932SOL    HW110693   8.675   3.345   4.683
 2932SOL    HW210694   8.564   3.302   4.590
 2933SOL     OW10695   2.514   5.201   9.242
 2933SOL    HW110696   2.578   5.214   9.171
 2933SOL    HW210697   2.451   5.139   9.205
 2934SOL     OW10698  14.744   1.025   9.944
 2934SOL    HW110699  14.835   1.026   9.914
 2934SOL    HW210700  14.694   1.065   9.873
 2935SOL     OW10701  13.250   6.004   3.303
 2935SOL    HW110702  13.192   6.023   3.378
 2935SOL    HW210703  13.227   5.914   3.278
 2936SOL     OW10704  12.709   1.923   1.395
 2936SOL    HW110705  12.624   1.942   1.357
 2936SOL    HW210706  12.737   1.841   1.354
 2937SOL     OW10707  13.407   3.183   2.456
 2937SOL    HW110708  13.323   3.167   2.499
 2937SOL    HW210709  13.390   3.168   2.363
 2938SOL     OW10710   3.735   0.086   8.641
 2938SOL    HW110711   3.678   0.098   8.565
 2938SOL    HW210712   3.823   0.079   8.604
 2939SOL     OW10713   6.675   5.795   7.515
 2939SOL    HW110714   6.710   5.753   7.437
 2939SOL    HW210715   6.734   5.769   7.586
 2940SOL     OW10716   1.472  11.718   6.659
 2940SOL    HW110717   1.542  11.741   6.720
 2940SOL    HW210718   1.392  11.720   6.711
 2941SOL     OW10719   6.606  12.138   7.557
 2941SOL    HW110720   6.678  12.200   7.545
 2941SOL    HW210721   6.647  12.052   7.544
 2942SOL     OW10722   4.965   0.382   8.286
 2942SOL    HW110723   4.904   0.315   8.317
 2942SOL    HW210724   4.951   0.456   8.346
 2943SOL     OW10725   5.507   9.765   8.877
 2943SOL    HW110726   5.573   9.699   8.856
 2943SOL    HW210727   5.515   9.830   8.807
 2944SOL     OW10728   1.144   0.994   4.062
 2944SOL    HW110729   1.098   0.956   3.987
 2944SOL    HW210730   1.168   0.919   4.116
 2945SOL     OW10731   8.613   1.798   0.717
 2945SOL    HW110732   8.629   1.748   0.637
 2945SOL    HW210733   8.605   1.732   0.785
 2946SOL     OW10734   2.352   8.227   0.917
 2946SOL    HW110735   2.424   8.200   0.974
 2946SOL    HW210736   2.379   8.200   0.830
 2947SOL     OW10737  11.479   3.089   5.922
 2947SOL    HW110738  11.494   3.163   5.981
 2947SOL    HW210739  11.442   3.130   5.843
 2948SOL     OW10740  11.804  12.450   2.868
 2948SOL    HW110741  11.832  12.524   2.921
 2948SOL    HW210742  11.756  12.488   2.795
 2949SOL     OW10743   2.498   0.499   7.288
 2949SOL    HW110744   2.497   0.498   7.384
 2949SOL    HW210745   2.563   0.433   7.264
 2950SOL     OW10746  11.984   2.115   7.600
 2950SOL    HW110747  11.931   2.078   7.529
 2950SOL    HW210748  11.977   2.050   7.671
 2951SOL     OW10749   9.662  11.932  12.811
 2951SOL    HW110750   9.665  11.900  12.901
 2951SOL    HW210751   9.750  11.966  12.794
 2952SOL     OW10752   1.299   0.133  11.528
 2952SOL    HW110753   1.366   0.102  11.468
 2952SOL    HW210754   1.334   0.115  11.615
 2953SOL     OW10755   9.329   5.265   2.699
 2953SOL    HW110756   9.261   5.266   2.630
 2953SOL    HW210757   9.283   5.293   2.778
 2954SOL     OW10758  12.460   1.239  10.436
 2954SOL    HW110759  12.411   1.168  10.477
 2954SOL    HW210760  12.396   1.286  10.384
 2955SOL     OW10761   6.311   0.592   6.756
 2955SOL    HW110762   6.309   0.594   6.852
 2955SOL    HW210763   6.233   0.641   6.730
 2956SOL     OW10764   3.139   5.354   7.186
 2956SOL    HW110765   3.205   5.422   7.171
 2956SOL    HW210766   3.138   5.302   7.106
 2957SOL     OW10767  13.044   7.622   0.044
 2957SOL    HW110768  13.037   7.591  14.834
 2957SOL    HW210769  13.113   7.688   0.043
 2958SOL     OW10770  10.422   7.787  13.571
 2958SOL    HW110771  10.414   7.882  13.580
 2958SOL    HW210772  10.336   7.757  13.544
 2959SOL     OW10773   8.821   3.501  14.628
 2959SOL    HW110774   8.803   3.507  14.722
 2959SOL    HW210775   8.766   3.568  14.589
 2960SOL     OW10776   9.065  14.096   2.797
 2960SOL    HW110777   8.976  14.117   2.768
 2960SOL    HW210778   9.093  14.173   2.846
 2961SOL     OW10779   9.105   2.025  14.044
 2961SOL    HW110780   9.087   2.111  14.005
 2961SOL    HW210781   9.023   1.999  14.086
 2962SOL     OW10782   0.500   8.573  12.232
 2962SOL    HW110783   0.429   8.551  12.172
 2962SOL    HW210784   0.480   8.661  12.262
 2963SOL     OW10785   7.154   6.085   2.505
 2963SOL    HW110786   7.121   6.117   2.589
 2963SOL    HW210787   7.107   6.137   2.440
 2964SOL     OW10788   8.428   3.485   0.714
 2964SOL    HW110789   8.455   3.406   0.668
 2964SOL    HW210790   8.396   3.454   0.798
 2965SOL     OW10791  11.961  10.812   7.957
 2965SOL    HW110792  11.924  10.748   8.018
 2965SOL    HW210793  12.044  10.773   7.929
 2966SOL     OW10794  12.601   4.056   5.479
 2966SOL    HW110795  12.653   4.133   5.453
 2966SOL    HW210796  12.575   4.074   5.569
 2967SOL     OW10797   3.401  10.361   5.564
 2967SOL    HW110798   3.484  10.395   5.596
 2967SOL    HW210799   3.335  10.420   5.601
 2968SOL     OW10800   0.474   2.590  12.208
 2968SOL    HW110801   0.416   2.664  12.193
 2968SOL    HW210802   0.474   2.578  12.303
 2969SOL     OW10803   1.132   9.057   6.952
 2969SOL    HW110804   1.146   9.017   6.866
 2969SOL    HW210805   1.146   9.151   6.938
 2970SOL     OW10806   2.835  13.201   7.674
 2970SOL    HW110807   2.827  13.274   7.734
 2970SOL    HW210808   2.749  13.160   7.673
 2971SOL     OW10809   3.182   8.770   9.575
 2971SOL    HW110810   3.273   8.797   9.569
 2971SOL    HW210811   3.158   8.784   9.667
 2972SOL     OW10812   2.048  14.232   1.295
 2972SOL    HW110813   2.092  14.276   1.222
 2972SOL    HW210814   2.007  14.155   1.256
 2973SOL     OW10815   8.013   5.272   5.924
 2973SOL    HW110816   7.998   5.192   5.873
 2973SOL    HW210817   7.951   5.335   5.888
 2974SOL     OW10818   2.274   3.091  11.692
 2974SOL    HW110819   2.337   3.020  11.678
 2974SOL    HW210820   2.211   3.053  11.754
 2975SOL     OW10821   1.435  14.194   7.535
 2975SOL    HW110822   1.480  14.267   7.577
 2975SOL    HW210823   1.400  14.230   7.454
 2976SOL     OW10824   0.792  14.576   9.522
 2976SOL    HW110825   0.820  14.665   9.501
 2976SOL    HW210826   0.874  14.527   9.530
 2977SOL     OW10827  11.535  10.079   4.088
 2977SOL    HW110828  11.495  10.157   4.125
 2977SOL    HW210829  11.519  10.086   3.994
 2978SOL     OW10830  12.490   0.976  10.235
 2978SOL    HW110831  12.439   1.003  10.311
 2978SOL    HW210832  12.508   1.057  10.188
 2979SOL     OW10833   0.079   1.176   6.710
 2979SOL    HW110834   0.129   1.094   6.704
 2979SOL    HW210835   0.132   1.240   6.663
 2980SOL     OW10836  13.576  10.304   0.133
 2980SOL    HW110837  13.518  10.238   0.171
 2980SOL    HW210838  13.640  10.254   0.083
 2981SOL     OW10839   2.601   8.662   2.956
 2981SOL    HW110840   2.589   8.650   2.861
 2981SOL    HW210841   2.694   8.646   2.971
 2982SOL     OW10842  13.118   7.829   1.290
 2982SOL    HW110843  13.166   7.839   1.208
 2982SOL    HW210844  13.026   7.825   1.264
 2983SOL     OW10845   7.260   8.833   4.765
 2983SOL    HW110846   7.221   8.896   4.704
 2983SOL    HW210847   7.202   8.758   4.763
 2984SOL     OW10848   0.470   8.632   3.344
 2984SOL    HW110849   0.447   8.609   3.434
 2984SOL    HW210850   0.415   8.707   3.323
 2985SOL     OW10851   2.372   7.727   4.865
 2985SOL    HW110852   2.435   7.738   4.936
 2985SOL    HW210853   2.287   7.725   4.909
 2986SOL     OW10854  10.223   7.915   8.498
 2986SOL    HW110855  10.300   7.858   8.497
 2986SOL    HW210856  10.250   7.991   8.551
 2987SOL     OW10857   2.111   6.784  14.852
 2987SOL    HW110858   2.127   6.793  14.758
 2987SOL    HW210859   2.159   6.705  14.876
 2988SOL     OW10860  13.448  13.671  13.870
 2988SOL    HW110861  13.393  13.705  13.941
 2988SOL    HW210862  13.445  13.738  13.802
 2989SOL     OW10863   4.215  12.251   1.510
 2989SOL    HW110864   4.143  12.232   1.571
 2989SOL    HW210865   4.179  12.318   1.452
 2990SOL     OW10866  12.384   4.108   1.784
 2990SOL    HW110867  12.449   4.057   1.736
 2990SOL    HW210868  12.349   4.047   1.849
 2991SOL     OW10869  11.870  10.978   3.778
 2991SOL    HW110870  11.965  10.968   3.774
 2991SOL    HW210871  11.855  11.072   3.776
 2992SOL     OW10872   8.038   2.213   3.216
 2992SOL    HW110873   8.027   2.129   3.171
 2992SOL    HW210874   8.072   2.189   3.302
 2993SOL     OW10875   2.582   4.005   8.229
 2993SOL    HW110876   2.598   3.975   8.318
 2993SOL    HW210877   2.669   4.013   8.190
 2994SOL     OW10878  13.460   7.133   8.708
 2994SOL    HW110879  13.442   7.180   8.790
 2994SOL    HW210880  13.373   7.116   8.672
 2995SOL     OW10881   9.704   5.610  10.048
 2995SOL    HW110882   9.781   5.557  10.065
 2995SOL    HW210883   9.682   5.650  10.132
 2996SOL     OW10884  12.689  14.661  12.710
 2996SOL    HW110885  12.700  14.601  12.636
 2996SOL    HW210886  12.712  14.747  12.675
 2997SOL     OW10887   1.319   2.008   0.582
 2997SOL    HW110888   1.285   2.092   0.613
 2997SOL    HW210889   1.381   1.981   0.649
 2998SOL     OW10890   7.265   7.170   5.826
 2998SOL    HW110891   7.307   7.230   5.887
 2998SOL    HW210892   7.226   7.102   5.881
 2999SOL     OW10893   4.439  13.938   7.006
 2999SOL    HW110894   4.473  14.026   7.019
 2999SOL    HW210895   4.371  13.948   6.939
 3000SOL     OW10896  12.913  11.140  11.149
 3000SOL    HW110897  12.904  11.104  11.061
 3000SOL    HW210898  12.998  11.107  11.180
 3001SOL     OW10899   2.129  12.536  11.780
 3001SOL    HW110900   2.043  12.512  11.744
 3001SOL    HW210901   2.123  12.513  11.873
 3002SOL     OW10902   7.553  11.939  10.110
 3002SOL    HW110903   7.491  11.972  10.176
 3002SOL    HW210904   7.639  11.961  10.145
 3003SOL     OW10905   3.820  14.100  11.384
 3003SOL    HW110906   3.858  14.025  11.338
 3003SOL    HW210907   3.878  14.114  11.459
 3004SOL     OW10908   6.986  10.449   7.019
 3004SOL    HW110909   7.012  10.381   6.956
 3004SOL    HW210910   6.922  10.406   7.075
 3005SOL     OW10911  12.763  10.875  11.123
 3005SOL    HW110912  12.759  10.951  11.181
 3005SOL    HW210913  12.695  10.816  11.156
 3006SOL     OW10914  11.218   7.261  13.917
 3006SOL    HW110915  11.146   7.252  13.854
 3006SOL    HW210916  11.285   7.310  13.870
 3007SOL     OW10917  13.427   0.913  14.842
 3007SOL    HW110918  13.450   0.833   0.009
 3007SOL    HW210919  13.339   0.935  14.873
 3008SOL     OW10920   7.754   4.126   7.980
 3008SOL    HW110921   7.695   4.052   7.999
 3008SOL    HW210922   7.827   4.086   7.932
 3009SOL     OW10923  13.677  12.324   4.138
 3009SOL    HW110924  13.661  12.418   4.141
 3009SOL    HW210925  13.765  12.316   4.101
 3010SOL     OW10926   7.820   2.586   5.674
 3010SOL    HW110927   7.736   2.599   5.717
 3010SOL    HW210928   7.837   2.668   5.628
 3011SOL     OW10929  12.662   0.293   1.632
 3011SOL    HW110930  12.659   0.363   1.697
 3011SOL    HW210931  12.740   0.242   1.654
 3012SOL     OW10932   2.719   5.960   9.184
 3012SOL    HW110933   2.708   5.902   9.260
 3012SOL    HW210934   2.814   5.965   9.171
 3013SOL     OW10935   8.509   2.375   1.565
 3013SOL    HW110936   8.534   2.377   1.473
 3013SOL    HW210937   8.572   2.434   1.608
 3014SOL     OW10938   6.469   4.167   3.462
 3014SOL    HW110939   6.559   4.140   3.481
 3014SOL    HW210940   6.474   4.262   3.453
 3015SOL     OW10941   7.750   5.965   2.821
 3015SOL    HW110942   7.814   6.033   2.843
 3015SOL    HW210943   7.787   5.922   2.743
 3016SOL     OW10944  11.549   6.407  11.426
 3016SOL    HW110945  11.567   6.319  11.459
 3016SOL    HW210946  11.509   6.453  11.500
 3017SOL     OW10947   7.681   4.771   1.981
 3017SOL    HW110948   7.639   4.753   2.065
 3017SOL    HW210949   7.770   4.800   2.004
 3018SOL     OW10950  12.236  12.385   2.970
 3018SOL    HW110951  12.204  12.411   3.057
 3018SOL    HW210952  12.215  12.291   2.965
 3019SOL     OW10953   1.165   0.585   6.570
 3019SOL    HW110954   1.248   0.548   6.599
 3019SOL    HW210955   1.101   0.551   6.633
 3020SOL     OW10956   0.519   6.054  12.433
 3020SOL    HW110957   0.590   6.041  12.371
 3020SOL    HW210958   0.524   6.147  12.455
 3021SOL     OW10959  14.516  11.189   8.415
 3021SOL    HW110960  14.563  11.134   8.353
 3021SOL    HW210961  14.490  11.266   8.364
 3022SOL     OW10962  14.663   2.468   5.875
 3022SOL    HW110963  14.610   2.435   5.948
 3022SOL    HW210964  14.752   2.439   5.895
 3023SOL     OW10965  14.264   7.410   0.733
 3023SOL    HW110966  14.271   7.408   0.829
 3023SOL    HW210967  14.189   7.467   0.716
 3024SOL     OW10968  14.041  11.356   4.953
 3024SOL    HW110969  13.952  11.389   4.937
 3024SOL    HW210970  14.028  11.266   4.982
 3025SOL     OW10971   2.929  14.354  14.778
 3025SOL    HW110972   2.848  14.349  14.830
 3025SOL    HW210973   2.997  14.373  14.842
 3026SOL     OW10974  13.805  13.563  13.320
 3026SOL    HW110975  13.789  13.490  13.381
 3026SOL    HW210976  13.717  13.593  13.296
 3027SOL     OW10977   0.516   1.301   8.104
 3027SOL    HW110978   0.541   1.353   8.180
 3027SOL    HW210979   0.439   1.345   8.069
 3028SOL     OW10980  13.489  14.172  10.085
 3028SOL    HW110981  13.510  14.088  10.126
 3028SOL    HW210982  13.527  14.165   9.997
 3029SOL     OW10983   0.857  10.963  10.610
 3029SOL    HW110984   0.880  10.941  10.700
 3029SOL    HW210985   0.803  10.890  10.580
 3030SOL     OW10986  12.072   8.940  12.917
 3030SOL    HW110987  11.999   9.002  12.910
 3030SOL    HW210988  12.047   8.881  12.988
 3031SOL     OW10989   2.351  12.434  10.964
 3031SOL    HW110990   2.441  12.463  10.975
 3031SOL    HW210991   2.298  12.506  10.999
 3032SOL     OW10992  14.444   9.075   7.795
 3032SOL    HW110993  14.526   9.114   7.765
 3032SOL    HW210994  14.376   9.134   7.763
 3033SOL     OW10995  14.634   1.725   7.800
 3033SOL    HW110996  14.706   1.687   7.750
 3033SOL    HW210997  14.641   1.685   7.887
 3034SOL     OW10998  11.177   2.758   9.627
 3034SOL    HW110999  11.143   2.765   9.537
 3034SOL    HW211000  11.121   2.693   9.669
 3035SOL     OW11001   3.184  11.874  14.188
 3035SOL    HW111002   3.263  11.915  14.224
 3035SOL    HW211003   3.216  11.818  14.118
 3036SOL     OW11004   2.217   8.951  14.639
 3036SOL    HW111005   2.311   8.945  14.624
 3036SOL    HW211006   2.178   8.932  14.553
 3037SOL     OW11007   8.186  13.593   9.968
 3037SOL    HW111008   8.111  13.641   9.934
 3037SOL    HW211009   8.196  13.519   9.909
 3038SOL     OW11010  10.186   9.391  10.261
 3038SOL    HW111011  10.189   9.304  10.300
 3038SOL    HW211012  10.093   9.408  10.247
 3039SOL     OW11013  10.191  11.969   0.953
 3039SOL    HW111014  10.180  11.993   1.045
 3039SOL    HW211015  10.283  11.943   0.945
 3040SOL     OW11016   3.123   1.320   7.403
 3040SOL    HW111017   3.157   1.282   7.322
 3040SOL    HW211018   3.202   1.345   7.452
 3041SOL     OW11019   0.263   5.742   0.922
 3041SOL    HW111020   0.348   5.700   0.909
 3041SOL    HW211021   0.277   5.833   0.894
 3042SOL     OW11022   8.784   2.233   6.399
 3042SOL    HW111023   8.735   2.155   6.376
 3042SOL    HW211024   8.758   2.299   6.334
 3043SOL     OW11025   0.705  11.426   4.872
 3043SOL    HW111026   0.657  11.391   4.797
 3043SOL    HW211027   0.725  11.348   4.925
 3044SOL     OW11028   4.603   7.552  10.672
 3044SOL    HW111029   4.627   7.478  10.728
 3044SOL    HW211030   4.538   7.601  10.724
 3045SOL     OW11031   8.681  10.306  13.852
 3045SOL    HW111032   8.717  10.348  13.774
 3045SOL    HW211033   8.612  10.365  13.882
 3046SOL     OW11034   2.677   1.192  10.150
 3046SOL    HW111035   2.617   1.119  10.164
 3046SOL    HW211036   2.697   1.188  10.056
 3047SOL     OW11037   6.840   5.669   3.536
 3047SOL    HW111038   6.932   5.693   3.552
 3047SOL    HW211039   6.819   5.609   3.608
 3048SOL     OW11040  13.424   0.107  11.545
 3048SOL    HW111041  13.496   0.125  11.484
 3048SOL    HW211042  13.461   0.127  11.631
 3049SOL     OW11043   7.375  12.380   2.254
 3049SOL    HW111044   7.360  12.464   2.210
 3049SOL    HW211045   7.291  12.359   2.294
 3050SOL     OW11046   0.589   5.545  14.724
 3050SOL    HW111047   0.656   5.492  14.767
 3050SOL    HW211048   0.595   5.522  14.631
 3051SOL     OW11049  12.304   0.436   8.756
 3051SOL    HW111050  12.215   0.471   8.758
 3051SOL    HW211051  12.343   0.465   8.838
 3052SOL     OW11052  14.659  10.094   2.329
 3052SOL    HW111053  14.612  10.176   2.321
 3052SOL    HW211054  14.657  10.074   2.423
 3053SOL     OW11055   4.936  11.558   3.931
 3053SOL    HW111056   5.010  11.616   3.916
 3053SOL    HW211057   4.933  11.502   3.853
 3054SOL     OW11058   8.074  11.677   0.865
 3054SOL    HW111059   8.120  11.740   0.921
 3054SOL    HW211060   8.005  11.640   0.922
 3055SOL     OW11061   7.804  11.944   7.471
 3055SOL    HW111062   7.880  11.893   7.499
 3055SOL    HW211063   7.830  11.983   7.388
 3056SOL     OW11064  12.890   7.899   2.924
 3056SOL    HW111065  12.977   7.928   2.898
 3056SOL    HW211066  12.905   7.822   2.978
 3057SOL     OW11067   2.931   2.704   2.109
 3057SOL    HW111068   2.934   2.734   2.200
 3057SOL    HW211069   3.019   2.668   2.094
 3058SOL     OW11070  12.671   5.454   7.424
 3058SOL    HW111071  12.728   5.530   7.413
 3058SOL    HW211072  12.597   5.488   7.475
 3059SOL     OW11073  14.378  10.821   4.951
 3059SOL    HW111074  14.448  10.882   4.929
 3059SOL    HW211075  14.399  10.792   5.040
 3060SOL     OW11076  11.554  10.357  12.425
 3060SOL    HW111077  11.608  10.395  12.494
 3060SOL    HW211078  11.511  10.432  12.384
 3061SOL     OW11079  13.391  11.540   2.311
 3061SOL    HW111080  13.420  11.450   2.296
 3061SOL    HW211081  13.468  11.594   2.293
 3062SOL     OW11082   4.748  10.912   9.906
 3062SOL    HW111083   4.783  10.825   9.889
 3062SOL    HW211084   4.809  10.972   9.862
 3063SOL     OW11085  11.499   5.630   7.388
 3063SOL    HW111086  11.487   5.724   7.402
 3063SOL    HW211087  11.577   5.607   7.439
 3064SOL     OW11088   2.732  11.886  13.514
 3064SOL    HW111089   2.704  11.795  13.526
 3064SOL    HW211090   2.687  11.915  13.435
 3065SOL     OW11091  13.275  14.317  11.691
 3065SOL    HW111092  13.190  14.322  11.736
 3065SOL    HW211093  13.269  14.238  11.638
 3066SOL     OW11094  10.563  12.045  11.281
 3066SOL    HW111095  10.629  11.982  11.254
 3066SOL    HW211096  10.479  12.003  11.260
 3067SOL     OW11097   4.988   2.370   2.309
 3067SOL    HW111098   5.059   2.365   2.245
 3067SOL    HW211099   5.024   2.422   2.381
 3068SOL     OW11100   9.373   0.217   1.135
 3068SOL    HW111101   9.412   0.132   1.113
 3068SOL    HW211102   9.447   0.277   1.140
 3069SOL     OW11103   2.602  14.688   0.921
 3069SOL    HW111104   2.682  14.684   0.869
 3069SOL    HW211105   2.583  14.782   0.928
 3070SOL     OW11106   2.870  14.494   4.305
 3070SOL    HW111107   2.844  14.578   4.266
 3070SOL    HW211108   2.789  14.443   4.309
 3071SOL     OW11109   7.676  14.733   8.663
 3071SOL    HW111110   7.636  14.732   8.576
 3071SOL    HW211111   7.766  14.704   8.649
 3072SOL     OW11112   9.779   6.074   8.902
 3072SOL    HW111113   9.862   6.028   8.916
 3072SOL    HW211114   9.714   6.004   8.897
 3073SOL     OW11115   6.854   9.174  13.855
 3073SOL    HW111116   6.863   9.269  13.851
 3073SOL    HW211117   6.768   9.157  13.817
 3074SOL     OW11118  11.274   0.214   8.425
 3074SOL    HW111119  11.362   0.237   8.395
 3074SOL    HW211120  11.247   0.141   8.369
 3075SOL     OW11121   3.689   0.423  10.817
 3075SOL    HW111122   3.687   0.511  10.781
 3075SOL    HW211123   3.610   0.416  10.871
 3076SOL     OW11124  10.934   3.836   2.409
 3076SOL    HW111125  10.959   3.928   2.421
 3076SOL    HW211126  10.866   3.838   2.343
 3077SOL     OW11127  11.240  14.025   9.873
 3077SOL    HW111128  11.245  13.946   9.926
 3077SOL    HW211129  11.201  13.996   9.791
 3078SOL     OW11130   0.622   3.714   6.184
 3078SOL    HW111131   0.712   3.744   6.169
 3078SOL    HW211132   0.620   3.691   6.277
 3079SOL     OW11133   4.992  13.043   3.358
 3079SOL    HW111134   5.008  13.090   3.440
 3079SOL    HW211135   4.933  12.971   3.383
 3080SOL     OW11136  11.544  11.587   4.560
 3080SOL    HW111137  11.570  11.515   4.617
 3080SOL    HW211138  11.594  11.573   4.480
 3081SOL     OW11139   0.134  10.198   1.487
 3081SOL    HW111140   0.153  10.116   1.532
 3081SOL    HW211141   0.180  10.190   1.403
 3082SOL     OW11142   3.547  14.062   3.893
 3082SOL    HW111143   3.546  13.966   3.898
 3082SOL    HW211144   3.457  14.085   3.871
 3083SOL     OW11145   6.110   4.308   3.163
 3083SOL    HW111146   6.056   4.254   3.221
 3083SOL    HW211147   6.194   4.262   3.159
 3084SOL     OW11148   8.949   9.439   4.794
 3084SOL    HW111149   8.936   9.345   4.808
 3084SOL    HW211150   8.881   9.480   4.847
 3085SOL     OW11151   6.927   1.870  11.137
 3085SOL    HW111152   6.862   1.925  11.180
 3085SOL    HW211153   6.932   1.903  11.047
 3086SOL     OW11154   0.701  12.007   4.659
 3086SOL    HW111155   0.773  11.947   4.679
 3086SOL    HW211156   0.627  11.973   4.709
 3087SOL     OW11157   2.410   2.110   4.539
 3087SOL    HW111158   2.326   2.068   4.523
 3087SOL    HW211159   2.395   2.203   4.521
 3088SOL     OW11160   9.394   1.194   6.147
 3088SOL    HW111161   9.310   1.148   6.150
 3088SOL    HW211162   9.450   1.147   6.208
 3089SOL     OW11163   5.381   8.533   3.584
 3089SOL    HW111164   5.414   8.452   3.622
 3089SOL    HW211165   5.367   8.512   3.492
 3090SOL     OW11166   2.112   7.497   3.019
 3090SOL    HW111167   2.206   7.478   3.018
 3090SOL    HW211168   2.094   7.522   3.110
 3091SOL     OW11169   8.368   0.731   2.559
 3091SOL    HW111170   8.361   0.648   2.607
 3091SOL    HW211171   8.280   0.746   2.524
 3092SOL     OW11172  11.848  14.739  12.974
 3092SOL    HW111173  11.930  14.692  12.986
 3092SOL    HW211174  11.811  14.745  13.062
 3093SOL     OW11175  13.397   9.271  12.182
 3093SOL    HW111176  13.306   9.290  12.158
 3093SOL    HW211177  13.447   9.347  12.151
 3094SOL     OW11178  12.894  11.874  14.818
 3094SOL    HW111179  12.809  11.882  14.862
 3094SOL    HW211180  12.957  11.866   0.010
 3095SOL     OW11181  11.359   5.613   2.264
 3095SOL    HW111182  11.392   5.697   2.232
 3095SOL    HW211183  11.274   5.603   2.222
 3096SOL     OW11184  10.734  13.823   5.507
 3096SOL    HW111185  10.656  13.841   5.560
 3096SOL    HW211186  10.751  13.905   5.461
 3097SOL     OW11187   6.842   1.857   1.442
 3097SOL    HW111188   6.936   1.865   1.425
 3097SOL    HW211189   6.836   1.817   1.529
 3098SOL     OW11190   3.671   6.339  14.443
 3098SOL    HW111191   3.604   6.360  14.378
 3098SOL    HW211192   3.643   6.385  14.522
 3099SOL     OW11193   8.317  10.117   7.773
 3099SOL    HW111194   8.276  10.051   7.717
 3099SOL    HW211195   8.388  10.153   7.721
 3100SOL     OW11196  13.170   1.239  12.975
 3100SOL    HW111197  13.227   1.256  12.900
 3100SOL    HW211198  13.117   1.318  12.982
 3101SOL     OW11199  12.898   8.267   9.368
 3101SOL    HW111200  12.833   8.196   9.365
 3101SOL    HW211201  12.850   8.342   9.403
 3102SOL     OW11202   9.458  10.209  14.747
 3102SOL    HW111203   9.549  10.190  14.724
 3102SOL    HW211204   9.439  10.292  14.704
 3103SOL     OW11205  10.392   1.703   7.128
 3103SOL    HW111206  10.299   1.710   7.110
 3103SOL    HW211207  10.435   1.720   7.044
 3104SOL     OW11208   1.488   5.683   1.778
 3104SOL    HW111209   1.559   5.719   1.832
 3104SOL    HW211210   1.533   5.631   1.712
 3105SOL     OW11211   9.930   3.734   6.657
 3105SOL    HW111212   9.918   3.815   6.708
 3105SOL    HW211213   9.900   3.756   6.569
 3106SOL     OW11214  12.560  14.589   6.560
 3106SOL    HW111215  12.654  14.573   6.557
 3106SOL    HW211216  12.551  14.674   6.603
 3107SOL     OW11217  13.886   6.804   9.073
 3107SOL    HW111218  13.826   6.792   9.146
 3107SOL    HW211219  13.840   6.768   8.997
 3108SOL     OW11220  14.077  11.222   5.690
 3108SOL    HW111221  14.153  11.242   5.635
 3108SOL    HW211222  14.040  11.308   5.712
 3109SOL     OW11223   3.200  14.193   7.204
 3109SOL    HW111224   3.266  14.134   7.167
 3109SOL    HW211225   3.117  14.160   7.169
 3110SOL     OW11226  14.611   0.875   4.512
 3110SOL    HW111227  14.653   0.797   4.475
 3110SOL    HW211228  14.658   0.889   4.595
 3111SOL     OW11229  13.971  14.143   1.363
 3111SOL    HW111230  14.053  14.132   1.316
 3111SOL    HW211231  13.914  14.190   1.303
 3112SOL     OW11232   9.893  14.825  10.469
 3112SOL    HW111233   9.981  14.796  10.491
 3112SOL    HW211234   9.905   0.006  10.396
 3113SOL     OW11235   9.716  14.288   4.948
 3113SOL    HW111236   9.711  14.237   4.867
 3113SOL    HW211237   9.777  14.360   4.927
 3114SOL     OW11238   2.111   0.529   5.583
 3114SOL    HW111239   2.121   0.439   5.550
 3114SOL    HW211240   2.054   0.519   5.660
 3115SOL     OW11241   3.538   8.804  10.211
 3115SOL    HW111242   3.541   8.881  10.154
 3115SOL    HW211243   3.489   8.739  10.161
 3116SOL     OW11244   3.530   2.194  12.345
 3116SOL    HW111245   3.487   2.278  12.327
 3116SOL    HW211246   3.494   2.165  12.428
 3117SOL     OW11247   0.686  12.845   0.172
 3117SOL    HW111248   0.711  12.904   0.242
 3117SOL    HW211249   0.591  12.838   0.178
 3118SOL     OW11250  13.292   7.560   8.219
 3118SOL    HW111251  13.369   7.608   8.188
 3118SOL    HW211252  13.298   7.475   8.175
 3119SOL     OW11253   7.088   4.386   0.419
 3119SOL    HW111254   7.036   4.313   0.387
 3119SOL    HW211255   7.128   4.424   0.341
 3120SOL     OW11256   8.583   1.530   9.432
 3120SOL    HW111257   8.518   1.460   9.431
 3120SOL    HW211258   8.667   1.485   9.432
 3121SOL     OW11259   4.854   3.471   0.505
 3121SOL    HW111260   4.807   3.389   0.518
 3121SOL    HW211261   4.787   3.532   0.474
 3122SOL     OW11262  11.066   3.130  14.754
 3122SOL    HW111263  11.032   3.175  14.831
 3122SOL    HW211264  11.110   3.198  14.703
 3123SOL     OW11265   9.502   5.862  14.878
 3123SOL    HW111266   9.527   5.861   0.090
 3123SOL    HW211267   9.499   5.955  14.855
 3124SOL     OW11268   2.788   0.467  13.087
 3124SOL    HW111269   2.714   0.525  13.106
 3124SOL    HW211270   2.752   0.379  13.099
 3125SOL     OW11271   2.093   6.213  14.018
 3125SOL    HW111272   2.182   6.234  14.048
 3125SOL    HW211273   2.036   6.260  14.077
 3126SOL     OW11274  12.201   8.986   1.635
 3126SOL    HW111275  12.286   9.030   1.628
 3126SOL    HW211276  12.153   9.037   1.701
 3127SOL     OW11277  11.817  13.753   9.552
 3127SOL    HW111278  11.754  13.823   9.568
 3127SOL    HW211279  11.813  13.738   9.457
 3128SOL     OW11280   7.206  11.462   7.426
 3128SOL    HW111281   7.257  11.454   7.345
 3128SOL    HW211282   7.181  11.372   7.447
 3129SOL     OW11283   8.472  12.542   7.888
 3129SOL    HW111284   8.492  12.550   7.795
 3129SOL    HW211285   8.435  12.454   7.897
 3130SOL     OW11286   9.818   9.696  13.583
 3130SOL    HW111287   9.785   9.641  13.654
 3130SOL    HW211288   9.912   9.677  13.579
 3131SOL     OW11289   2.722  10.357  13.849
 3131SOL    HW111290   2.676  10.279  13.879
 3131SOL    HW211291   2.659  10.402  13.794
 3132SOL     OW11292   9.594   1.927  14.766
 3132SOL    HW111293   9.667   1.933  14.828
 3132SOL    HW211294   9.620   1.982  14.692
 3133SOL     OW11295   3.426   2.590   6.668
 3133SOL    HW111296   3.432   2.684   6.651
 3133SOL    HW211297   3.448   2.549   6.584
 3134SOL     OW11298   7.160   4.831  12.840
 3134SOL    HW111299   7.226   4.885  12.884
 3134SOL    HW211300   7.123   4.777  12.909
 3135SOL     OW11301  14.586   4.013  14.435
 3135SOL    HW111302  14.510   4.065  14.408
 3135SOL    HW211303  14.603   4.043  14.525
 3136SOL     OW11304  12.385   5.156   3.775
 3136SOL    HW111305  12.323   5.122   3.840
 3136SOL    HW211306  12.442   5.082   3.755
 3137SOL     OW11307  11.146  13.339  13.334
 3137SOL    HW111308  11.089  13.414  13.354
 3137SOL    HW211309  11.089  13.263  13.341
 3138SOL     OW11310   4.961  11.446  11.497
 3138SOL    HW111311   5.009  11.472  11.576
 3138SOL    HW211312   4.869  11.460  11.520
 3139SOL     OW11313   7.258   4.911   7.533
 3139SOL    HW111314   7.260   4.828   7.486
 3139SOL    HW211315   7.245   4.886   7.625
 3140SOL     OW11316   7.186   6.945  13.788
 3140SOL    HW111317   7.186   7.027  13.737
 3140SOL    HW211318   7.272   6.906  13.770
 3141SOL     OW11319   5.274  13.041   0.120
 3141SOL    HW111320   5.210  13.041   0.191
 3141SOL    HW211321   5.335  12.970   0.142
 3142SOL     OW11322   8.192   2.394   5.362
 3142SOL    HW111323   8.169   2.323   5.421
 3142SOL    HW211324   8.236   2.351   5.289
 3143SOL     OW11325   8.010  14.740   9.680
 3143SOL    HW111326   8.074  14.751   9.610
 3143SOL    HW211327   8.007  14.645   9.694
 3144SOL     OW11328  10.741  10.163   3.763
 3144SOL    HW111329  10.797  10.231   3.801
 3144SOL    HW211330  10.792  10.128   3.690
 3145SOL     OW11331  11.866  13.223   9.033
 3145SOL    HW111332  11.960  13.208   9.030
 3145SOL    HW211333  11.850  13.291   8.968
 3146SOL     OW11334  13.769   7.188   4.689
 3146SOL    HW111335  13.718   7.116   4.652
 3146SOL    HW211336  13.845   7.145   4.729
 3147SOL     OW11337   3.220   3.780  14.449
 3147SOL    HW111338   3.194   3.798  14.540
 3147SOL    HW211339   3.215   3.865  14.406
 3148SOL     OW11340   5.863  13.778  10.239
 3148SOL    HW111341   5.830  13.836  10.307
 3148SOL    HW211342   5.792  13.716  10.223
 3149SOL     OW11343   8.234  12.002   4.829
 3149SOL    HW111344   8.213  11.956   4.748
 3149SOL    HW211345   8.328  11.989   4.840
 3150SOL     OW11346   4.725   7.952  10.587
 3150SOL    HW111347   4.802   8.008  10.588
 3150SOL    HW211348   4.651   8.012  10.592
 3151SOL     OW11349  10.091   9.573   3.800
 3151SOL    HW111350  10.076   9.501   3.738
 3151SOL    HW211351  10.185   9.589   3.796
 3152SOL     OW11352  13.792   3.005   9.874
 3152SOL    HW111353  13.738   3.071   9.830
 3152SOL    HW211354  13.882   3.029   9.853
 3153SOL     OW11355   2.849  13.494   4.682
 3153SOL    HW111356   2.934  13.535   4.699
 3153SOL    HW211357   2.826  13.524   4.594
 3154SOL     OW11358  12.348   3.140  13.387
 3154SOL    HW111359  12.284   3.125  13.317
 3154SOL    HW211360  12.367   3.053  13.421
 3155SOL     OW11361   1.372   4.582  11.526
 3155SOL    HW111362   1.451   4.628  11.499
 3155SOL    HW211363   1.357   4.517  11.457
 3156SOL     OW11364   8.872   2.145   0.911
 3156SOL    HW111365   8.933   2.216   0.892
 3156SOL    HW211366   8.922   2.065   0.890
 3157SOL     OW11367  13.486  10.556  13.542
 3157SOL    HW111368  13.503  10.552  13.448
 3157SOL    HW211369  13.417  10.492  13.557
 3158SOL     OW11370   5.915   3.430   6.655
 3158SOL    HW111371   5.838   3.390   6.695
 3158SOL    HW211372   5.912   3.521   6.683
 3159SOL     OW11373  11.641   6.998  12.749
 3159SOL    HW111374  11.668   7.070  12.693
 3159SOL    HW211375  11.723   6.954  12.774
 3160SOL     OW11376   8.340  12.038   0.360
 3160SOL    HW111377   8.256  11.992   0.352
 3160SOL    HW211378   8.359  12.069   0.271
 3161SOL     OW11379   0.139   0.773  12.801
 3161SOL    HW111380   0.131   0.830  12.878
 3161SOL    HW211381   0.067   0.799  12.744
 3162SOL     OW11382   6.102   4.963   7.773
 3162SOL    HW111383   6.149   4.880   7.766
 3162SOL    HW211384   6.085   4.973   7.866
 3163SOL     OW11385   6.540   9.295  11.326
 3163SOL    HW111386   6.455   9.319  11.289
 3163SOL    HW211387   6.554   9.358  11.397
 3164SOL     OW11388   3.694   3.325   5.681
 3164SOL    HW111389   3.742   3.283   5.609
 3164SOL    HW211390   3.744   3.404   5.700
 3165SOL     OW11391  13.964   5.178   8.546
 3165SOL    HW111392  13.898   5.123   8.588
 3165SOL    HW211393  13.946   5.171   8.452
 3166SOL     OW11394   4.059  13.255   2.295
 3166SOL    HW111395   4.139  13.217   2.258
 3166SOL    HW211396   4.020  13.304   2.223
 3167SOL     OW11397   8.796  13.216  13.608
 3167SOL    HW111398   8.745  13.257  13.677
 3167SOL    HW211399   8.741  13.223  13.530
 3168SOL     OW11400   6.810   0.038   4.325
 3168SOL    HW111401   6.806   0.115   4.269
 3168SOL    HW211402   6.789  14.845   4.267
 3169SOL     OW11403   0.484  13.780   8.127
 3169SOL    HW111404   0.405  13.828   8.103
 3169SOL    HW211405   0.488  13.785   8.222
 3170SOL     OW11406  11.705   9.139   9.594
 3170SOL    HW111407  11.703   9.215   9.535
 3170SOL    HW211408  11.762   9.076   9.551
 3171SOL     OW11409   5.323   8.743   6.608
 3171SOL    HW111410   5.351   8.819   6.558
 3171SOL    HW211411   5.227   8.748   6.608
 3172SOL     OW11412  14.452  13.841   8.609
 3172SOL    HW111413  14.527  13.782   8.607
 3172SOL    HW211414  14.384  13.791   8.655
 3173SOL     OW11415   7.028  14.691   6.385
 3173SOL    HW111416   6.935  14.703   6.364
 3173SOL    HW211417   7.073  14.759   6.336
 3174SOL     OW11418   7.547   9.573   4.622
 3174SOL    HW111419   7.592   9.637   4.567
 3174SOL    HW211420   7.511   9.625   4.694
 3175SOL     OW11421   4.851   1.319   7.052
 3175SOL    HW111422   4.853   1.390   7.116
 3175SOL    HW211423   4.914   1.345   6.985
 3176SOL     OW11424   4.125   0.779   4.712
 3176SOL    HW111425   4.086   0.856   4.671
 3176SOL    HW211426   4.054   0.740   4.762
 3177SOL     OW11427  10.118   9.002   8.226
 3177SOL    HW111428  10.056   8.952   8.174
 3177SOL    HW211429  10.131   8.950   8.305
 3178SOL     OW11430   0.725  12.837   6.170
 3178SOL    HW111431   0.768  12.753   6.188
 3178SOL    HW211432   0.708  12.835   6.076
 3179SOL     OW11433  12.094   7.162   2.122
 3179SOL    HW111434  12.184   7.129   2.132
 3179SOL    HW211435  12.050   7.095   2.069
 3180SOL     OW11436  12.614   7.718   1.319
 3180SOL    HW111437  12.629   7.772   1.396
 3180SOL    HW211438  12.666   7.640   1.334
 3181SOL     OW11439   8.659  12.605   5.397
 3181SOL    HW111440   8.589  12.580   5.457
 3181SOL    HW211441   8.643  12.698   5.379
 3182SOL     OW11442   8.044   0.956  11.267
 3182SOL    HW111443   8.137   0.965  11.247
 3182SOL    HW211444   8.002   1.030  11.223
 3183SOL     OW11445   0.829  14.254  14.778
 3183SOL    HW111446   0.819  14.169  14.736
 3183SOL    HW211447   0.880  14.236  14.857
 3184SOL     OW11448   6.215  10.769   7.791
 3184SOL    HW111449   6.204  10.841   7.853
 3184SOL    HW211450   6.174  10.800   7.711
 3185SOL     OW11451  12.262   3.775  12.120
 3185SOL    HW111452  12.187   3.776  12.179
 3185SOL    HW211453  12.337   3.762  12.178
 3186SOL     OW11454   1.973  13.011  12.463
 3186SOL    HW111455   1.896  12.959  12.440
 3186SOL    HW211456   1.960  13.031  12.556
 3187SOL     OW11457   0.556  14.391  10.986
 3187SOL    HW111458   0.590  14.423  11.069
 3187SOL    HW211459   0.480  14.338  11.010
 3188SOL     OW11460  12.150  13.758   8.161
 3188SOL    HW111461  12.237  13.760   8.122
 3188SOL    HW211462  12.099  13.822   8.111
 3189SOL     OW11463   2.564   6.153   7.071
 3189SOL    HW111464   2.624   6.082   7.094
 3189SOL    HW211465   2.502   6.113   7.010
 3190SOL     OW11466   4.804   6.652   2.352
 3190SOL    HW111467   4.849   6.731   2.321
 3190SOL    HW211468   4.852   6.626   2.430
 3191SOL     OW11469   6.189   6.199  10.741
 3191SOL    HW111470   6.133   6.271  10.715
 3191SOL    HW211471   6.264   6.203  10.681
 3192SOL     OW11472   6.221   9.933  13.128
 3192SOL    HW111473   6.308   9.907  13.098
 3192SOL    HW211474   6.179   9.970  13.050
 3193SOL     OW11475  11.838   6.717   4.402
 3193SOL    HW111476  11.899   6.745   4.333
 3193SOL    HW211477  11.884   6.646   4.447
 3194SOL     OW11478   8.585   7.794   4.814
 3194SOL    HW111479   8.662   7.740   4.831
 3194SOL    HW211480   8.589   7.863   4.880
 3195SOL     OW11481  13.431   4.034  11.784
 3195SOL    HW111482  13.512   4.068  11.821
 3195SOL    HW211483  13.388   4.112  11.747
 3196SOL     OW11484   0.729   9.233   2.217
 3196SOL    HW111485   0.736   9.245   2.123
 3196SOL    HW211486   0.671   9.303   2.246
 3197SOL     OW11487   9.251   5.265  10.443
 3197SOL    HW111488   9.271   5.324  10.370
 3197SOL    HW211489   9.185   5.205  10.407
 3198SOL     OW11490  10.111   2.439   0.554
 3198SOL    HW111491  10.110   2.533   0.537
 3198SOL    HW211492  10.201   2.413   0.534
 3199SOL     OW11493  14.216   0.759   2.250
 3199SOL    HW111494  14.191   0.738   2.340
 3199SOL    HW211495  14.253   0.847   2.256
 3200SOL     OW11496  11.459  14.814   7.590
 3200SOL    HW111497  11.435  14.777   7.505
 3200SOL    HW211498  11.551  14.788   7.602
 3201SOL     OW11499  11.354   0.908   9.176
 3201SOL    HW111500  11.394   0.862   9.102
 3201SOL    HW211501  11.425   0.917   9.239
 3202SOL     OW11502  11.480   6.858  14.717
 3202SOL    HW111503  11.545   6.927  14.729
 3202SOL    HW211504  11.414   6.896  14.660
 3203SOL     OW11505  13.380   4.499   9.942
 3203SOL    HW111506  13.424   4.582   9.923
 3203SOL    HW211507  13.450   4.435   9.946
 3204SOL     OW11508   0.672  14.618   1.241
 3204SOL    HW111509   0.703  14.625   1.151
 3204SOL    HW211510   0.593  14.673   1.244
 3205SOL     OW11511   6.476   1.344  13.444
 3205SOL    HW111512   6.382   1.362  13.447
 3205SOL    HW211513   6.487   1.288  13.368
 3206SOL     OW11514  13.490  13.217  13.934
 3206SOL    HW111515  13.509  13.129  13.968
 3206SOL    HW211516  13.479  13.271  14.012
 3207SOL     OW11517   1.699   6.007   2.660
 3207SOL    HW111518   1.631   5.981   2.722
 3207SOL    HW211519   1.651   6.045   2.586
 3208SOL     OW11520  10.014  12.859   9.795
 3208SOL    HW111521   9.935  12.808   9.815
 3208SOL    HW211522  10.083  12.793   9.788
 3209SOL     OW11523   2.687   5.688   3.488
 3209SOL    HW111524   2.603   5.647   3.509
 3209SOL    HW211525   2.749   5.615   3.487
 3210SOL     OW11526  14.380   1.069   1.221
 3210SOL    HW111527  14.455   1.127   1.205
 3210SOL    HW211528  14.396   0.993   1.166
 3211SOL     OW11529   2.895  11.571  11.617
 3211SOL    HW111530   2.869  11.662  11.599
 3211SOL    HW211531   2.898  11.530  11.531
 3212SOL     OW11532   5.444   6.292   5.062
 3212SOL    HW111533   5.489   6.310   4.979
 3212SOL    HW211534   5.486   6.350   5.125
 3213SOL     OW11535   6.487   0.074   4.378
 3213SOL    HW111536   6.535   0.084   4.461
 3213SOL    HW211537   6.497  14.862   4.356
 3214SOL     OW11538   2.280   5.121   6.204
 3214SOL    HW111539   2.218   5.178   6.249
 3214SOL    HW211540   2.278   5.040   6.255
 3215SOL     OW11541   8.183   1.331  11.853
 3215SOL    HW111542   8.145   1.331  11.941
 3215SOL    HW211543   8.126   1.389  11.802
 3216SOL     OW11544  12.234  14.072  10.637
 3216SOL    HW111545  12.321  14.108  10.650
 3216SOL    HW211546  12.185  14.142  10.594
 3217SOL     OW11547   1.848   6.662   9.476
 3217SOL    HW111548   1.805   6.582   9.508
 3217SOL    HW211549   1.941   6.645   9.491
 3218SOL     OW11550   8.521  12.267   9.222
 3218SOL    HW111551   8.549  12.198   9.162
 3218SOL    HW211552   8.598  12.283   9.278
 3219SOL     OW11553   6.184   2.481   0.261
 3219SOL    HW111554   6.221   2.516   0.342
 3219SOL    HW211555   6.102   2.530   0.249
 3220SOL     OW11556   1.129   1.729   6.303
 3220SOL    HW111557   1.218   1.715   6.335
 3220SOL    HW211558   1.073   1.685   6.367
 3221SOL     OW11559   3.592  14.840  10.038
 3221SOL    HW111560   3.685  14.838  10.060
 3221SOL    HW211561   3.553  14.772  10.093
 3222SOL     OW11562   2.822  12.106   8.396
 3222SOL    HW111563   2.752  12.171   8.397
 3222SOL    HW211564   2.777  12.023   8.378
 3223SOL     OW11565  12.294  10.103  10.259
 3223SOL    HW111566  12.332  10.165  10.196
 3223SOL    HW211567  12.222  10.062  10.212
 3224SOL     OW11568   2.277   1.082   8.838
 3224SOL    HW111569   2.307   1.172   8.826
 3224SOL    HW211570   2.227   1.085   8.920
 3225SOL     OW11571   4.927   8.358   7.586
 3225SOL    HW111572   4.957   8.288   7.527
 3225SOL    HW211573   4.835   8.370   7.563
 3226SOL     OW11574   1.764   3.431   1.977
 3226SOL    HW111575   1.701   3.372   1.934
 3226SOL    HW211576   1.813   3.470   1.905
 3227SOL     OW11577  10.256   8.442   3.553
 3227SOL    HW111578  10.276   8.355   3.589
 3227SOL    HW211579  10.336   8.468   3.508
 3228SOL     OW11580   8.904   2.579   6.544
 3228SOL    HW111581   8.963   2.647   6.513
 3228SOL    HW211582   8.819   2.623   6.552
 3229SOL     OW11583   6.557   1.579   6.992
 3229SOL    HW111584   6.499   1.651   6.965
 3229SOL    HW211585   6.618   1.569   6.920
 3230SOL     OW11586   5.404  13.150   4.874
 3230SOL    HW111587   5.452  13.092   4.933
 3230SOL    HW211588   5.343  13.092   4.828
 3231SOL     OW11589   3.262   0.556   9.727
 3231SOL    HW111590   3.269   0.630   9.788
 3231SOL    HW211591   3.348   0.516   9.728
 3232SOL     OW11592   6.353   4.160   3.165
 3232SOL    HW111593   6.348   4.142   3.259
 3232SOL    HW211594   6.331   4.076   3.124
 3233SOL     OW11595   5.343   3.668   7.304
 3233SOL    HW111596   5.432   3.688   7.333
 3233SOL    HW211597   5.303   3.754   7.288
 3234SOL     OW11598   3.493   2.473   6.432
 3234SOL    HW111599   3.443   2.396   6.408
 3234SOL    HW211600   3.544   2.495   6.354
 3235SOL     OW11601  12.105   8.077   4.697
 3235SOL    HW111602  12.167   8.150   4.702
 3235SOL    HW211603  12.066   8.072   4.784
 3236SOL     OW11604   2.989   2.045   5.998
 3236SOL    HW111605   3.060   2.093   6.041
 3236SOL    HW211606   2.910   2.090   6.026
 3237SOL     OW11607  11.097   3.042  12.479
 3237SOL    HW111608  11.184   3.077  12.500
 3237SOL    HW211609  11.068   3.003  12.561
 3238SOL     OW11610  12.488  13.631  13.371
 3238SOL    HW111611  12.470  13.604  13.461
 3238SOL    HW211612  12.431  13.706  13.356
 3239SOL     OW11613   0.077   2.306   1.831
 3239SOL    HW111614   0.118   2.384   1.791
 3239SOL    HW211615   0.094   2.236   1.768
 3240SOL     OW11616   3.914   4.573   4.863
 3240SOL    HW111617   3.819   4.581   4.869
 3240SOL    HW211618   3.930   4.529   4.779
 3241SOL     OW11619   1.202   3.908   7.727
 3241SOL    HW111620   1.287   3.883   7.763
 3241SOL    HW211621   1.219   3.922   7.633
 3242SOL     OW11622  12.039  12.686   9.214
 3242SOL    HW111623  12.042  12.779   9.236
 3242SOL    HW211624  12.049  12.683   9.119
 3243SOL     OW11625   9.377  11.494   9.687
 3243SOL    HW111626   9.365  11.441   9.766
 3243SOL    HW211627   9.409  11.578   9.719
 3244SOL     OW11628   7.817   9.851   5.162
 3244SOL    HW111629   7.807   9.769   5.113
 3244SOL    HW211630   7.808   9.825   5.253
 3245SOL     OW11631   1.335   3.950  11.434
 3245SOL    HW111632   1.388   3.951  11.514
 3245SOL    HW211633   1.396   3.972  11.364
 3246SOL     OW11634   3.939  12.984   2.305
 3246SOL    HW111635   4.005  12.929   2.348
 3246SOL    HW211636   3.979  13.071   2.304
 3247SOL     OW11637  11.107   3.576  10.576
 3247SOL    HW111638  11.194   3.611  10.555
 3247SOL    HW211639  11.095   3.596  10.669
 3248SOL     OW11640   4.671   0.794   1.724
 3248SOL    HW111641   4.674   0.842   1.642
 3248SOL    HW211642   4.578   0.782   1.742
 3249SOL     OW11643   2.980  11.182   5.838
 3249SOL    HW111644   3.008  11.248   5.775
 3249SOL    HW211645   3.027  11.203   5.918
 3250SOL     OW11646  10.734   9.078   4.453
 3250SOL    HW111647  10.783   9.064   4.533
 3250SOL    HW211648  10.753   9.169   4.429
 3251SOL     OW11649   6.135   3.143  13.433
 3251SOL    HW111650   6.073   3.169  13.365
 3251SOL    HW211651   6.172   3.061  13.402
 3252SOL     OW11652   4.959   7.215   2.612
 3252SOL    HW111653   4.892   7.146   2.609
 3252SOL    HW211654   5.027   7.184   2.552
 3253SOL     OW11655   5.901   1.485   2.336
 3253SOL    HW111656   5.921   1.493   2.243
 3253SOL    HW211657   5.811   1.450   2.338
 3254SOL     OW11658  12.714   1.737   6.754
 3254SOL    HW111659  12.668   1.807   6.799
 3254SOL    HW211660  12.649   1.696   6.698
 3255SOL     OW11661  10.257   9.446   4.600
 3255SOL    HW111662  10.229   9.444   4.692
 3255SOL    HW211663  10.223   9.529   4.566
 3256SOL     OW11664   5.998  13.546  11.894
 3256SOL    HW111665   5.950  13.563  11.814
 3256SOL    HW211666   5.939  13.574  11.964
 3257SOL     OW11667   7.765   0.064  10.588
 3257SOL    HW111668   7.738   0.137  10.644
 3257SOL    HW211669   7.788   0.105  10.505
 3258SOL     OW11670   1.857   0.520   3.886
 3258SOL    HW111671   1.900   0.435   3.895
 3258SOL    HW211672   1.766   0.503   3.909
 3259SOL     OW11673   1.594   7.010   2.133
 3259SOL    HW111674   1.552   6.940   2.184
 3259SOL    HW211675   1.598   7.084   2.193
 3260SOL     OW11676  14.214  14.291  13.641
 3260SOL    HW111677  14.185  14.209  13.680
 3260SOL    HW211678  14.154  14.305  13.567
 3261SOL     OW11679   3.161  11.717   0.888
 3261SOL    HW111680   3.196  11.801   0.857
 3261SOL    HW211681   3.083  11.703   0.834
 3262SOL     OW11682   2.281  11.383   0.386
 3262SOL    HW111683   2.324  11.298   0.386
 3262SOL    HW211684   2.211  11.374   0.321
 3263SOL     OW11685   3.642  11.010   8.289
 3263SOL    HW111686   3.628  10.976   8.201
 3263SOL    HW211687   3.716  10.959   8.323
 3264SOL     OW11688   2.600   5.086  13.661
 3264SOL    HW111689   2.583   5.170  13.705
 3264SOL    HW211690   2.528   5.078  13.597
 3265SOL     OW11691   8.572  10.136   8.474
 3265SOL    HW111692   8.553  10.163   8.384
 3265SOL    HW211693   8.489  10.101   8.507
 3266SOL     OW11694   1.906   0.910   8.902
 3266SOL    HW111695   1.911   0.935   8.810
 3266SOL    HW211696   1.996   0.885   8.925
 3267SOL     OW11697   2.768  14.342   3.003
 3267SOL    HW111698   2.808  14.403   3.065
 3267SOL    HW211699   2.728  14.398   2.937
 3268SOL     OW11700  14.793  10.709   7.070
 3268SOL    HW111701  14.810  10.676   6.982
 3268SOL    HW211702  14.838  10.648   7.128
 3269SOL     OW11703   3.556  11.723   2.352
 3269SOL    HW111704   3.474  11.735   2.400
 3269SOL    HW211705   3.598  11.809   2.355
 3270SOL     OW11706  12.575  12.396  10.571
 3270SOL    HW111707  12.670  12.396  10.582
 3270SOL    HW211708  12.562  12.416  10.479
 3271SOL     OW11709  11.952   4.191  11.350
 3271SOL    HW111710  11.913   4.224  11.431
 3271SOL    HW211711  11.995   4.110  11.376
 3272SOL     OW11712   1.556   4.402   1.122
 3272SOL    HW111713   1.643   4.407   1.082
 3272SOL    HW211714   1.557   4.471   1.189
 3273SOL     OW11715   5.804   3.981   2.111
 3273SOL    HW111716   5.721   3.942   2.136
 3273SOL    HW211717   5.801   3.988   2.016
 3274SOL     OW11718   4.797   2.799   1.407
 3274SOL    HW111719   4.766   2.719   1.450
 3274SOL    HW211720   4.790   2.866   1.475
 3275SOL     OW11721   4.038  13.031   3.339
 3275SOL    HW111722   4.099  13.104   3.327
 3275SOL    HW211723   4.093  12.953   3.334
 3276SOL     OW11724  11.617   7.789   2.477
 3276SOL    HW111725  11.666   7.802   2.396
 3276SOL    HW211726  11.550   7.725   2.454
 3277SOL     OW11727   5.348   7.526  10.298
 3277SOL    HW111728   5.253   7.530  10.310
 3277SOL    HW211729   5.363   7.555  10.208
 3278SOL     OW11730   5.471   7.699   7.052
 3278SOL    HW111731   5.436   7.784   7.025
 3278SOL    HW211732   5.565   7.712   7.057
 3279SOL     OW11733  12.478   2.415   5.687
 3279SOL    HW111734  12.429   2.418   5.604
 3279SOL    HW211735  12.470   2.325   5.716
 3280SOL     OW11736   5.180   9.059  14.833
 3280SOL    HW111737   5.163   9.151  14.816
 3280SOL    HW211738   5.172   9.016  14.748
 3281SOL     OW11739   4.274  12.512   2.037
 3281SOL    HW111740   4.207  12.569   1.998
 3281SOL    HW211741   4.336  12.495   1.966
 3282SOL     OW11742  11.262  14.222   1.773
 3282SOL    HW111743  11.195  14.235   1.706
 3282SOL    HW211744  11.286  14.311   1.801
 3283SOL     OW11745  14.678  10.049   9.517
 3283SOL    HW111746  14.736  10.039   9.593
 3283SOL    HW211747  14.602  10.096   9.551
 3284SOL     OW11748   6.296   4.047  13.472
 3284SOL    HW111749   6.287   4.028  13.378
 3284SOL    HW211750   6.388   4.069  13.483
 3285SOL     OW11751   3.101   8.310   9.732
 3285SOL    HW111752   3.174   8.359   9.696
 3285SOL    HW211753   3.035   8.376   9.753
 3286SOL     OW11754  11.034   5.473   7.342
 3286SOL    HW111755  10.939   5.463   7.351
 3286SOL    HW211756  11.044   5.535   7.269
 3287SOL     OW11757   9.526   0.253   4.760
 3287SOL    HW111758   9.434   0.270   4.740
 3287SOL    HW211759   9.574   0.321   4.712
 3288SOL     OW11760   9.428   5.487   5.585
 3288SOL    HW111761   9.516   5.450   5.580
 3288SOL    HW211762   9.442   5.578   5.611
 3289SOL     OW11763   5.449   5.614   5.561
 3289SOL    HW111764   5.404   5.669   5.626
 3289SOL    HW211765   5.432   5.525   5.590
 3290SOL     OW11766   2.376   3.902   5.199
 3290SOL    HW111767   2.462   3.934   5.169
 3290SOL    HW211768   2.374   3.924   5.292
 3291SOL     OW11769   1.370  11.520   5.165
 3291SOL    HW111770   1.406  11.555   5.083
 3291SOL    HW211771   1.419  11.440   5.180
 3292SOL     OW11772   1.422  13.306  11.096
 3292SOL    HW111773   1.462  13.240  11.153
 3292SOL    HW211774   1.464  13.388  11.121
 3293SOL     OW11775   0.759   5.983   9.667
 3293SOL    HW111776   0.772   5.932   9.748
 3293SOL    HW211777   0.812   5.937   9.602
 3294SOL     OW11778   8.079   9.541   5.217
 3294SOL    HW111779   7.987   9.539   5.243
 3294SOL    HW211780   8.082   9.489   5.136
 3295SOL     OW11781  12.898  10.417  14.023
 3295SOL    HW111782  12.940  10.407  14.109
 3295SOL    HW211783  12.933  10.499  13.989
 3296SOL     OW11784   4.409  13.031  14.845
 3296SOL    HW111785   4.431  12.973   0.037
 3296SOL    HW211786   4.475  13.100  14.848
 3297SOL     OW11787   4.826   1.018  11.057
 3297SOL    HW111788   4.852   0.926  11.061
 3297SOL    HW211789   4.836   1.050  11.146
 3298SOL     OW11790  13.283   0.463   2.758
 3298SOL    HW111791  13.207   0.408   2.736
 3298SOL    HW211792  13.290   0.455   2.853
 3299SOL     OW11793   9.886   5.976   8.558
 3299SOL    HW111794   9.961   5.960   8.615
 3299SOL    HW211795   9.921   5.975   8.469
 3300SOL     OW11796   0.799  12.343   3.668
 3300SOL    HW111797   0.863  12.404   3.630
 3300SOL    HW211798   0.796  12.270   3.606
 3301SOL     OW11799  11.900   5.050   4.871
 3301SOL    HW111800  11.943   5.109   4.809
 3301SOL    HW211801  11.893   4.967   4.823
 3302SOL     OW11802  12.231   2.897   7.105
 3302SOL    HW111803  12.180   2.882   7.026
 3302SOL    HW211804  12.288   2.971   7.084
 3303SOL     OW11805  11.744   8.887  14.570
 3303SOL    HW111806  11.809   8.946  14.608
 3303SOL    HW211807  11.794   8.835  14.507
 3304SOL     OW11808   0.844   0.671  10.768
 3304SOL    HW111809   0.893   0.695  10.847
 3304SOL    HW211810   0.753   0.668  10.797
 3305SOL     OW11811   9.450   0.689  12.384
 3305SOL    HW111812   9.530   0.742  12.375
 3305SOL    HW211813   9.458   0.649  12.471
 3306SOL     OW11814  13.430   2.415  14.304
 3306SOL    HW111815  13.358   2.447  14.357
 3306SOL    HW211816  13.458   2.334  14.347
 3307SOL     OW11817   0.650  12.885   2.470
 3307SOL    HW111818   0.623  12.924   2.386
 3307SOL    HW211819   0.735  12.844   2.451
 3308SOL     OW11820   5.348  12.441  11.400
 3308SOL    HW111821   5.338  12.535  11.383
 3308SOL    HW211822   5.410  12.438  11.473
 3309SOL     OW11823   6.496   8.833  10.984
 3309SOL    HW111824   6.472   8.762  11.044
 3309SOL    HW211825   6.414   8.855  10.940
 3310SOL     OW11826   7.811   5.830  13.057
 3310SOL    HW111827   7.864   5.909  13.065
 3310SOL    HW211828   7.772   5.819  13.144
 3311SOL     OW11829  12.513   5.010   2.647
 3311SOL    HW111830  12.419   5.031   2.641
 3311SOL    HW211831  12.557   5.084   2.604
 3312SOL     OW11832   1.833  14.790   6.482
 3312SOL    HW111833   1.762  14.730   6.503
 3312SOL    HW211834   1.885  14.744   6.416
 3313SOL     OW11835   9.743   4.761   2.422
 3313SOL    HW111836   9.695   4.823   2.478
 3313SOL    HW211837   9.676   4.722   2.366
 3314SOL     OW11838   3.739   1.236  14.870
 3314SOL    HW111839   3.810   1.301  14.869
 3314SOL    HW211840   3.714   1.229   0.082
 3315SOL     OW11841  10.704   3.340  14.039
 3315SOL    HW111842  10.609   3.352  14.037
 3315SOL    HW211843  10.737   3.421  14.079
 3316SOL     OW11844   3.940   1.661   8.406
 3316SOL    HW111845   3.993   1.620   8.474
 3316SOL    HW211846   3.856   1.616   8.411
 3317SOL     OW11847   2.718   1.982  13.282
 3317SOL    HW111848   2.712   2.067  13.326
 3317SOL    HW211849   2.628   1.950  13.278
 3318SOL     OW11850   7.709   6.834   4.324
 3318SOL    HW111851   7.686   6.747   4.356
 3318SOL    HW211852   7.698   6.892   4.399
 3319SOL     OW11853   9.818   9.346   1.598
 3319SOL    HW111854   9.797   9.259   1.633
 3319SOL    HW211855   9.879   9.329   1.526
 3320SOL     OW11856   2.042   8.560   1.363
 3320SOL    HW111857   2.095   8.612   1.303
 3320SOL    HW211858   1.952   8.575   1.334
 3321SOL     OW11859  10.529   6.513  12.554
 3321SOL    HW111860  10.477   6.591  12.573
 3321SOL    HW211861  10.492   6.478  12.474
 3322SOL     OW11862  11.310   3.869   7.055
 3322SOL    HW111863  11.314   3.913   6.970
 3322SOL    HW211864  11.296   3.940   7.118
 3323SOL     OW11865   9.811   4.076   8.831
 3323SOL    HW111866   9.881   4.023   8.870
 3323SOL    HW211867   9.847   4.164   8.826
 3324SOL     OW11868   1.826   8.329  11.696
 3324SOL    HW111869   1.918   8.351  11.704
 3324SOL    HW211870   1.780   8.405  11.733
 3325SOL     OW11871   4.375  13.411   4.348
 3325SOL    HW111872   4.311  13.480   4.365
 3325SOL    HW211873   4.456  13.458   4.329
 3326SOL     OW11874   8.775   7.126   9.161
 3326SOL    HW111875   8.732   7.048   9.127
 3326SOL    HW211876   8.724   7.199   9.124
 3327SOL     OW11877  14.504   5.645   0.462
 3327SOL    HW111878  14.541   5.627   0.548
 3327SOL    HW211879  14.565   5.707   0.421
 3328SOL     OW11880   1.344   8.975   3.838
 3328SOL    HW111881   1.439   8.973   3.823
 3328SOL    HW211882   1.328   8.899   3.895
 3329SOL     OW11883  14.687  11.084   5.786
 3329SOL    HW111884  14.711  11.059   5.875
 3329SOL    HW211885  14.629  11.014   5.756
 3330SOL     OW11886   2.758   0.683  11.546
 3330SOL    HW111887   2.694   0.749  11.571
 3330SOL    HW211888   2.708   0.601  11.543
 3331SOL     OW11889  12.276  14.027   3.632
 3331SOL    HW111890  12.292  14.011   3.539
 3331SOL    HW211891  12.276  13.940   3.672
 3332SOL     OW11892  10.893   7.282   7.348
 3332SOL    HW111893  10.965   7.220   7.338
 3332SOL    HW211894  10.814   7.228   7.344
 3333SOL     OW11895   9.891   3.688  14.701
 3333SOL    HW111896   9.825   3.695  14.632
 3333SOL    HW211897   9.844   3.707  14.782
 3334SOL     OW11898   9.257   6.225   2.473
 3334SOL    HW111899   9.215   6.148   2.511
 3334SOL    HW211900   9.225   6.298   2.525
 3335SOL     OW11901   0.822   2.719   6.345
 3335SOL    HW111902   0.838   2.679   6.260
 3335SOL    HW211903   0.863   2.805   6.340
 3336SOL     OW11904   5.512  14.803  10.795
 3336SOL    HW111905   5.580  14.761  10.848
 3336SOL    HW211906   5.541   0.014  10.785
 3337SOL     OW11907  14.390  12.660  12.519
 3337SOL    HW111908  14.463  12.646  12.580
 3337SOL    HW211909  14.326  12.594  12.543
 3338SOL     OW11910   7.299   0.833   6.640
 3338SOL    HW111911   7.369   0.791   6.690
 3338SOL    HW211912   7.294   0.784   6.558
 3339SOL     OW11913   6.628  14.856   7.170
 3339SOL    HW111914   6.580   0.048   7.128
 3339SOL    HW211915   6.578  14.778   7.145
 3340SOL     OW11916   3.102   7.586   9.567
 3340SOL    HW111917   3.054   7.668   9.560
 3340SOL    HW211918   3.039   7.519   9.542
 3341SOL     OW11919  12.197  12.607  10.919
 3341SOL    HW111920  12.135  12.534  10.916
 3341SOL    HW211921  12.276  12.574  10.877
 3342SOL     OW11922   1.462  11.701  13.500
 3342SOL    HW111923   1.369  11.690  13.518
 3342SOL    HW211924   1.479  11.794  13.515
 3343SOL     OW11925  13.999   9.171  12.044
 3343SOL    HW111926  13.917   9.131  12.073
 3343SOL    HW211927  14.060   9.156  12.116
 3344SOL     OW11928  10.981   2.155   8.899
 3344SOL    HW111929  11.070   2.147   8.864
 3344SOL    HW211930  10.949   2.238   8.863
 3345SOL     OW11931   0.308   5.356   0.134
 3345SOL    HW111932   0.336   5.274   0.175
 3345SOL    HW211933   0.318   5.422   0.203
 3346SOL     OW11934   6.307   4.460  13.319
 3346SOL    HW111935   6.226   4.407  13.319
 3346SOL    HW211936   6.302   4.511  13.400
 3347SOL     OW11937   6.780   5.636   4.344
 3347SOL    HW111938   6.733   5.700   4.292
 3347SOL    HW211939   6.785   5.674   4.431
 3348SOL     OW11940   5.673   6.858  13.355
 3348SOL    HW111941   5.621   6.801  13.411
 3348SOL    HW211942   5.695   6.932  13.411
 3349SOL     OW11943  13.963   4.633  13.809
 3349SOL    HW111944  14.034   4.606  13.751
 3349SOL    HW211945  13.891   4.574  13.788
 3350SOL     OW11946  14.056  12.706   6.567
 3350SOL    HW111947  13.989  12.642   6.542
 3350SOL    HW211948  14.027  12.788   6.528
 3351SOL     OW11949   6.491   2.164  11.469
 3351SOL    HW111950   6.408   2.161  11.515
 3351SOL    HW211951   6.493   2.250  11.428
 3352SOL     OW11952   7.895   6.010   2.297
 3352SOL    HW111953   7.932   5.972   2.376
 3352SOL    HW211954   7.926   6.100   2.296
 3353SOL     OW11955  10.348  10.762   0.948
 3353SOL    HW111956  10.397  10.681   0.932
 3353SOL    HW211957  10.263  10.747   0.905
 3354SOL     OW11958   4.765   9.208   5.409
 3354SOL    HW111959   4.740   9.297   5.383
 3354SOL    HW211960   4.857   9.216   5.434
 3355SOL     OW11961  11.135   2.798  12.077
 3355SOL    HW111962  11.057   2.834  12.121
 3355SOL    HW211963  11.100   2.733  12.016
 3356SOL     OW11964   4.451  12.670   9.556
 3356SOL    HW111965   4.544  12.691   9.569
 3356SOL    HW211966   4.432  12.604   9.623
 3357SOL     OW11967   8.610   0.419   9.083
 3357SOL    HW111968   8.619   0.402   9.177
 3357SOL    HW211969   8.692   0.461   9.058
 3358SOL     OW11970  10.762   5.004  10.363
 3358SOL    HW111971  10.823   5.045  10.424
 3358SOL    HW211972  10.698   5.072  10.342
 3359SOL     OW11973  14.149   3.587   2.235
 3359SOL    HW111974  14.163   3.510   2.179
 3359SOL    HW211975  14.054   3.593   2.242
 3360SOL     OW11976   1.923   0.927   9.712
 3360SOL    HW111977   1.832   0.937   9.742
 3360SOL    HW211978   1.923   0.960   9.623
 3361SOL     OW11979   1.059  11.991   5.896
 3361SOL    HW111980   1.139  12.023   5.938
 3361SOL    HW211981   1.050  12.045   5.818
 3362SOL     OW11982   7.570   4.009   6.132
 3362SOL    HW111983   7.638   4.074   6.112
 3362SOL    HW211984   7.604   3.961   6.207
 3363SOL     OW11985   8.031   6.437   8.840
 3363SOL    HW111986   7.962   6.416   8.903
 3363SOL    HW211987   7.984   6.456   8.759
 3364SOL     OW11988  14.204  13.380   7.689
 3364SOL    HW111989  14.147  13.381   7.612
 3364SOL    HW211990  14.148  13.409   7.761
 3365SOL     OW11991   5.077   6.706   2.719
 3365SOL    HW111992   5.166   6.738   2.703
 3365SOL    HW211993   5.065   6.713   2.814
 3366SOL     OW11994   4.460  10.196   4.963
 3366SOL    HW111995   4.417  10.125   5.011
 3366SOL    HW211996   4.417  10.197   4.877
 3367SOL     OW11997   0.314  14.700   9.840
 3367SOL    HW111998   0.386  14.734   9.787
 3367SOL    HW211999   0.281  14.626   9.789
 3368SOL     OW12000   1.422   6.673  11.575
 3368SOL    HW112001   1.513   6.671  11.604
 3368SOL    HW212002   1.413   6.593  11.523
 3369SOL     OW12003   8.549  10.989   1.810
 3369SOL    HW112004   8.518  11.053   1.746
 3369SOL    HW212005   8.643  10.984   1.796
 3370SOL     OW12006   2.776  14.448  13.405
 3370SOL    HW112007   2.697  14.398  13.383
 3370SOL    HW212008   2.763  14.533  13.362
 3371SOL     OW12009  11.925   0.576   3.193
 3371SOL    HW112010  12.015   0.588   3.222
 3371SOL    HW212011  11.929   0.503   3.132
 3372SOL     OW12012   3.120   4.865   0.201
 3372SOL    HW112013   3.116   4.804   0.127
 3372SOL    HW212014   3.066   4.825   0.269
 3373SOL     OW12015   3.645  10.299   2.489
 3373SOL    HW112016   3.645  10.229   2.424
 3373SOL    HW212017   3.570  10.280   2.545
 3374SOL     OW12018  10.413   1.896  11.827
 3374SOL    HW112019  10.397   1.983  11.792
 3374SOL    HW212020  10.396   1.903  11.921
 3375SOL     OW12021  11.649  10.373  11.807
 3375SOL    HW112022  11.567  10.415  11.832
 3375SOL    HW212023  11.625  10.281  11.793
 3376SOL     OW12024   5.551   1.892   7.653
 3376SOL    HW112025   5.502   1.854   7.726
 3376SOL    HW212026   5.598   1.818   7.615
 3377SOL     OW12027  11.255   6.240   8.411
 3377SOL    HW112028  11.223   6.281   8.491
 3377SOL    HW212029  11.254   6.146   8.431
 3378SOL     OW12030  13.622  14.460  10.545
 3378SOL    HW112031  13.685  14.528  10.572
 3378SOL    HW212032  13.573  14.440  10.625
 3379SOL     OW12033   9.650  11.345  10.617
 3379SOL    HW112034   9.668  11.413  10.552
 3379SOL    HW212035   9.658  11.263  10.569
 3380SOL     OW12036   3.677   7.622   2.664
 3380SOL    HW112037   3.610   7.558   2.638
 3380SOL    HW212038   3.669   7.628   2.759
 3381SOL     OW12039   6.494   6.495  13.995
 3381SOL    HW112040   6.555   6.533  14.057
 3381SOL    HW212041   6.415   6.477  14.047
 3382SOL     OW12042  14.474   6.926   8.174
 3382SOL    HW112043  14.401   6.932   8.236
 3382SOL    HW212044  14.450   6.852   8.117
 3383SOL     OW12045  11.276   5.431   7.478
 3383SOL    HW112046  11.338   5.495   7.442
 3383SOL    HW212047  11.191   5.458   7.443
 3384SOL     OW12048  13.369   3.702   8.511
 3384SOL    HW112049  13.316   3.776   8.541
 3384SOL    HW212050  13.365   3.639   8.583
 3385SOL     OW12051   6.437   1.863  14.860
 3385SOL    HW112052   6.385   1.942  14.873
 3385SOL    HW212053   6.524   1.885   0.012
 3386SOL     OW12054   5.281   3.208  11.370
 3386SOL    HW112055   5.201   3.223  11.420
 3386SOL    HW212056   5.347   3.263  11.412
 3387SOL     OW12057   9.700   6.302   9.971
 3387SOL    HW112058   9.766   6.235   9.985
 3387SOL    HW212059   9.635   6.261   9.914
 3388SOL     OW12060   0.932   6.628   2.278
 3388SOL    HW112061   0.844   6.594   2.291
 3388SOL    HW212062   0.920   6.703   2.218
 3389SOL     OW12063  14.096  12.438  13.143
 3389SOL    HW112064  14.125  12.528  13.151
 3389SOL    HW212065  14.108  12.417  13.050
 3390SOL     OW12066  12.913   6.583   7.136
 3390SOL    HW112067  12.873   6.664   7.104
 3390SOL    HW212068  12.998   6.610   7.171
 3391SOL     OW12069   7.582  12.022   0.063
 3391SOL    HW112070   7.597  12.025  14.849
 3391SOL    HW212071   7.635  11.949   0.094
 3392SOL     OW12072   8.376   3.480   0.257
 3392SOL    HW112073   8.378   3.568   0.293
 3392SOL    HW212074   8.293   3.443   0.289
 3393SOL     OW12075   5.762   4.003  12.375
 3393SOL    HW112076   5.724   3.975  12.459
 3393SOL    HW212077   5.841   3.950  12.366
 3394SOL     OW12078   2.218   6.839  14.309
 3394SOL    HW112079   2.208   6.765  14.249
 3394SOL    HW212080   2.139   6.891  14.296
 3395SOL     OW12081   2.908   6.734   4.226
 3395SOL    HW112082   2.929   6.688   4.145
 3395SOL    HW212083   2.907   6.665   4.293
 3396SOL     OW12084   4.612   0.062  13.627
 3396SOL    HW112085   4.587   0.047  13.718
 3396SOL    HW212086   4.530   0.054  13.578
 3397SOL     OW12087  10.551   5.937   9.861
 3397SOL    HW112088  10.515   5.848   9.866
 3397SOL    HW212089  10.477   5.991   9.835
 3398SOL     OW12090  14.474  11.238   0.186
 3398SOL    HW112091  14.516  11.202   0.107
 3398SOL    HW212092  14.386  11.200   0.185
 3399SOL     OW12093   5.636  14.821   0.889
 3399SOL    HW112094   5.677   0.025   0.910
 3399SOL    HW212095   5.584  14.800   0.966
 3400SOL     OW12096   8.470  13.385   0.857
 3400SOL    HW112097   8.466  13.297   0.895
 3400SOL    HW212098   8.385  13.424   0.878
 3401SOL     OW12099  14.071   2.560   4.592
 3401SOL    HW112100  14.149   2.521   4.630
 3401SOL    HW212101  13.998   2.520   4.640
 3402SOL     OW12102  11.675  12.323   7.661
 3402SOL    HW112103  11.740  12.393   7.662
 3402SOL    HW212104  11.685  12.279   7.746
 3403SOL     OW12105   2.329   1.909  14.392
 3403SOL    HW112106   2.356   1.867  14.474
 3403SOL    HW212107   2.407   1.955  14.362
 3404SOL     OW12108  13.289   7.072   9.753
 3404SOL    HW112109  13.345   7.092   9.678
 3404SOL    HW212110  13.200   7.087   9.722
 3405SOL     OW12111   0.558   8.557   5.392
 3405SOL    HW112112   0.475   8.600   5.374
 3405SOL    HW212113   0.533   8.468   5.419
 3406SOL     OW12114  10.152   9.489  13.018
 3406SOL    HW112115  10.087   9.558  13.004
 3406SOL    HW212116  10.105   9.421  13.067
 3407SOL     OW12117   5.388  11.295   6.703
 3407SOL    HW112118   5.413  11.240   6.778
 3407SOL    HW212119   5.431  11.253   6.628
 3408SOL     OW12120  12.109   8.158   3.738
 3408SOL    HW112121  12.178   8.091   3.734
 3408SOL    HW212122  12.056   8.141   3.661
 3409SOL     OW12123   4.031   0.432  11.615
 3409SOL    HW112124   4.111   0.405  11.660
 3409SOL    HW212125   4.061   0.491  11.546
 3410SOL     OW12126   9.269   0.684   1.551
 3410SOL    HW112127   9.330   0.711   1.482
 3410SOL    HW212128   9.201   0.635   1.505
 3411SOL     OW12129   3.517   9.521   9.332
 3411SOL    HW112130   3.448   9.544   9.394
 3411SOL    HW212131   3.515   9.592   9.267
 3412SOL     OW12132  13.529   2.840   5.750
 3412SOL    HW112133  13.481   2.887   5.818
 3412SOL    HW212134  13.477   2.853   5.671
 3413SOL     OW12135   7.915   7.077   0.777
 3413SOL    HW112136   7.991   7.052   0.724
 3413SOL    HW212137   7.942   7.158   0.821
 3414SOL     OW12138   0.146   6.896   6.016
 3414SOL    HW112139   0.224   6.866   5.971
 3414SOL    HW212140   0.157   6.991   6.022
 3415SOL     OW12141   1.168  13.125   8.424
 3415SOL    HW112142   1.197  13.183   8.495
 3415SOL    HW212143   1.182  13.176   8.344
 3416SOL     OW12144  14.374   3.426  13.427
 3416SOL    HW112145  14.409   3.337  13.424
 3416SOL    HW212146  14.396   3.463  13.342
 3417SOL     OW12147   7.726  10.655  14.408
 3417SOL    HW112148   7.642  10.699  14.422
 3417SOL    HW212149   7.778  10.719  14.360
 3418SOL     OW12150   5.756   5.234   3.073
 3418SOL    HW112151   5.726   5.240   2.982
 3418SOL    HW212152   5.852   5.233   3.065
 3419SOL     OW12153  11.130  12.680  14.799
 3419SOL    HW112154  11.171  12.606  14.844
 3419SOL    HW212155  11.051  12.643  14.759
 3420SOL     OW12156   5.036  11.114   6.366
 3420SOL    HW112157   4.946  11.146   6.374
 3420SOL    HW212158   5.090  11.187   6.397
 3421SOL     OW12159   7.266   5.693   6.096
 3421SOL    HW112160   7.311   5.660   6.018
 3421SOL    HW212161   7.241   5.615   6.145
 3422SOL     OW12162   6.185  13.611  11.121
 3422SOL    HW112163   6.097  13.605  11.084
 3422SOL    HW212164   6.182  13.689  11.177
 3423SOL     OW12165   0.609   9.546  12.085
 3423SOL    HW112166   0.577   9.461  12.053
 3423SOL    HW212167   0.591   9.545  12.179
 3424SOL     OW12168   2.356   9.538  14.682
 3424SOL    HW112169   2.320   9.624  14.660
 3424SOL    HW212170   2.450   9.548  14.675
 3425SOL     OW12171  14.180  13.478  14.159
 3425SOL    HW112172  14.154  13.501  14.248
 3425SOL    HW212173  14.153  13.552  14.105
 3426SOL     OW12174   7.632  14.649  12.740
 3426SOL    HW112175   7.635  14.703  12.661
 3426SOL    HW212176   7.547  14.607  12.737
 3427SOL     OW12177   3.135   4.271   1.454
 3427SOL    HW112178   3.168   4.356   1.482
 3427SOL    HW212179   3.092   4.288   1.370
 3428SOL     OW12180  12.378  10.570   9.285
 3428SOL    HW112181  12.327  10.642   9.246
 3428SOL    HW212182  12.383  10.505   9.215
 3429SOL     OW12183   8.899   8.645   3.394
 3429SOL    HW112184   8.875   8.738   3.392
 3429SOL    HW212185   8.851   8.610   3.470
 3430SOL     OW12186   8.649   1.647  14.787
 3430SOL    HW112187   8.605   1.665  14.870
 3430SOL    HW212188   8.736   1.684  14.797
 3431SOL     OW12189   1.469   7.299   7.981
 3431SOL    HW112190   1.431   7.224   7.935
 3431SOL    HW212191   1.510   7.262   8.058
 3432SOL     OW12192   0.895  12.556  14.099
 3432SOL    HW112193   0.845  12.475  14.111
 3432SOL    HW212194   0.896  12.596  14.186
 3433SOL     OW12195   8.058   3.924  13.320
 3433SOL    HW112196   8.025   4.010  13.349
 3433SOL    HW212197   7.996   3.861  13.357
 3434SOL     OW12198   5.801   1.217  14.158
 3434SOL    HW112199   5.761   1.156  14.220
 3434SOL    HW212200   5.865   1.165  14.110
 3435SOL     OW12201   2.447   6.630  12.348
 3435SOL    HW112202   2.383   6.563  12.373
 3435SOL    HW212203   2.522   6.581  12.314
 3436SOL     OW12204   5.201  10.163   1.089
 3436SOL    HW112205   5.238  10.076   1.101
 3436SOL    HW212206   5.222  10.210   1.170
 3437SOL     OW12207  11.846   7.073  14.061
 3437SOL    HW112208  11.902   7.135  14.014
 3437SOL    HW212209  11.790   7.035  13.993
 3438SOL     OW12210   1.441   7.492   2.877
 3438SOL    HW112211   1.506   7.524   2.816
 3438SOL    HW212212   1.415   7.407   2.843
 3439SOL     OW12213  14.543   1.118   9.435
 3439SOL    HW112214  14.639   1.116   9.424
 3439SOL    HW212215  14.524   1.046   9.495
 3440SOL     OW12216   3.631   1.100  14.106
 3440SOL    HW112217   3.559   1.082  14.165
 3440SOL    HW212218   3.709   1.101  14.162
 3441SOL     OW12219   5.225   7.221  11.922
 3441SOL    HW112220   5.307   7.267  11.903
 3441SOL    HW212221   5.239   7.180  12.007
 3442SOL     OW12222  14.123   0.979   8.128
 3442SOL    HW112223  14.136   0.894   8.087
 3442SOL    HW212224  14.204   0.995   8.177
 3443SOL     OW12225   7.482   9.776   2.954
 3443SOL    HW112226   7.412   9.833   2.985
 3443SOL    HW212227   7.504   9.722   3.029
 3444SOL     OW12228  13.787  10.621   6.185
 3444SOL    HW112229  13.697  10.588   6.179
 3444SOL    HW212230  13.795  10.683   6.113
 3445SOL     OW12231   0.992   6.375   0.154
 3445SOL    HW112232   1.047   6.413   0.222
 3445SOL    HW212233   0.903   6.397   0.180
 3446SOL     OW12234   2.887   5.377   1.460
 3446SOL    HW112235   2.929   5.415   1.538
 3446SOL    HW212236   2.901   5.442   1.391
 3447SOL     OW12237  14.717   9.005  14.277
 3447SOL    HW112238  14.807   9.002  14.245
 3447SOL    HW212239  14.664   9.025  14.200
 3448SOL     OW12240   9.728   7.248   6.030
 3448SOL    HW112241   9.715   7.334   5.991
 3448SOL    HW212242   9.666   7.191   5.983
 3449SOL     OW12243  11.996   7.954   0.707
 3449SOL    HW112244  12.019   8.007   0.631
 3449SOL    HW212245  12.038   7.998   0.781
 3450SOL     OW12246   5.255  11.961   3.119
 3450SOL    HW112247   5.349  11.952   3.106
 3450SOL    HW212248   5.244  12.049   3.155
 3451SOL     OW12249   4.769  11.082   9.232
 3451SOL    HW112250   4.758  11.042   9.145
 3451SOL    HW212251   4.828  11.023   9.278
 3452SOL     OW12252   6.624   9.540   3.020
 3452SOL    HW112253   6.553   9.516   2.962
 3452SOL    HW212254   6.700   9.548   2.963
 3453SOL     OW12255   5.869   1.644   1.426
 3453SOL    HW112256   5.957   1.681   1.436
 3453SOL    HW212257   5.880   1.550   1.444
 3454SOL     OW12258   7.434   5.761   6.510
 3454SOL    HW112259   7.393   5.675   6.518
 3454SOL    HW212260   7.431   5.781   6.417
 3455SOL     OW12261   6.651  13.065   6.033
 3455SOL    HW112262   6.686  13.132   5.975
 3455SOL    HW212263   6.596  13.010   5.977
 3456SOL     OW12264   0.405  14.188   4.356
 3456SOL    HW112265   0.470  14.211   4.423
 3456SOL    HW212266   0.456  14.184   4.275
 3457SOL     OW12267  14.655   2.607   2.808
 3457SOL    HW112268  14.714   2.586   2.736
 3457SOL    HW212269  14.582   2.545   2.798
 3458SOL     OW12270  11.302   7.305   7.204
 3458SOL    HW112271  11.315   7.216   7.172
 3458SOL    HW212272  11.387   7.330   7.240
 3459SOL     OW12273  13.744   6.067   9.480
 3459SOL    HW112274  13.673   6.026   9.529
 3459SOL    HW212275  13.816   6.004   9.484
 3460SOL     OW12276  12.144   0.953  10.804
 3460SOL    HW112277  12.118   0.920  10.718
 3460SOL    HW212278  12.190   0.879  10.845
 3461SOL     OW12279   5.530  13.841   5.230
 3461SOL    HW112280   5.561  13.931   5.232
 3461SOL    HW212281   5.594  13.794   5.177
 3462SOL     OW12282   7.809   7.470   9.075
 3462SOL    HW112283   7.790   7.501   9.164
 3462SOL    HW212284   7.777   7.380   9.074
 3463SOL     OW12285   5.217   8.281   8.272
 3463SOL    HW112286   5.307   8.299   8.243
 3463SOL    HW212287   5.228   8.242   8.359
 3464SOL     OW12288   3.409  10.926   5.832
 3464SOL    HW112289   3.401  10.845   5.781
 3464SOL    HW212290   3.405  10.898   5.923
 3465SOL     OW12291   3.734  10.634  10.206
 3465SOL    HW112292   3.717  10.608  10.116
 3465SOL    HW212293   3.813  10.689  10.200
 3466SOL     OW12294   8.830  13.928   1.758
 3466SOL    HW112295   8.745  13.885   1.743
 3466SOL    HW212296   8.891  13.881   1.701
 3467SOL     OW12297   3.011   0.568  14.622
 3467SOL    HW112298   3.063   0.632  14.574
 3467SOL    HW212299   3.072   0.528  14.684
 3468SOL     OW12300   2.888   3.751   9.276
 3468SOL    HW112301   2.831   3.786   9.345
 3468SOL    HW212302   2.886   3.656   9.290
 3469SOL     OW12303  11.727   5.693   4.708
 3469SOL    HW112304  11.689   5.609   4.682
 3469SOL    HW212305  11.653   5.752   4.716
 3470SOL     OW12306  11.931  14.240   2.959
 3470SOL    HW112307  11.943  14.306   3.028
 3470SOL    HW212308  11.855  14.271   2.910
 3471SOL     OW12309   1.302   5.630  11.345
 3471SOL    HW112310   1.339   5.547  11.315
 3471SOL    HW212311   1.348   5.697  11.295
 3472SOL     OW12312   8.824   4.883   7.185
 3472SOL    HW112313   8.878   4.860   7.109
 3472SOL    HW212314   8.810   4.977   7.177
 3473SOL     OW12315   8.612   7.153   8.754
 3473SOL    HW112316   8.588   7.235   8.711
 3473SOL    HW212317   8.703   7.166   8.782
 3474SOL     OW12318  14.723   6.480   7.621
 3474SOL    HW112319  14.643   6.533   7.617
 3474SOL    HW212320  14.692   6.390   7.613
 3475SOL     OW12321   6.203   8.362   8.796
 3475SOL    HW112322   6.138   8.317   8.850
 3475SOL    HW212323   6.212   8.308   8.718
 3476SOL     OW12324   5.836   5.803   1.852
 3476SOL    HW112325   5.900   5.737   1.825
 3476SOL    HW212326   5.797   5.833   1.770
 3477SOL     OW12327   4.996   5.927   1.126
 3477SOL    HW112328   5.065   5.862   1.115
 3477SOL    HW212329   4.918   5.886   1.089
 3478SOL     OW12330   0.660   4.152   5.506
 3478SOL    HW112331   0.711   4.144   5.425
 3478SOL    HW212332   0.576   4.112   5.485
 3479SOL     OW12333   7.517   1.882   1.120
 3479SOL    HW112334   7.585   1.820   1.146
 3479SOL    HW212335   7.481   1.844   1.040
 3480SOL     OW12336   5.607   8.395   8.787
 3480SOL    HW112337   5.517   8.398   8.755
 3480SOL    HW212338   5.609   8.459   8.858
 3481SOL     OW12339   5.427  10.552   9.889
 3481SOL    HW112340   5.510  10.544   9.843
 3481SOL    HW212341   5.401  10.643   9.877
 3482SOL     OW12342  14.380  13.039  10.696
 3482SOL    HW112343  14.463  13.069  10.660
 3482SOL    HW212344  14.349  12.974  10.633
 3483SOL     OW12345  13.469   2.878   1.813
 3483SOL    HW112346  13.555   2.895   1.851
 3483SOL    HW212347  13.448   2.958   1.763
 3484SOL     OW12348   2.861   2.265  12.708
 3484SOL    HW112349   2.773   2.229  12.718
 3484SOL    HW212350   2.863   2.295  12.617
 3485SOL     OW12351  11.991   2.541   2.484
 3485SOL    HW112352  12.010   2.590   2.404
 3485SOL    HW212353  11.917   2.588   2.523
 3486SOL     OW12354   7.727   9.853   0.196
 3486SOL    HW112355   7.762   9.941   0.180
 3486SOL    HW212356   7.703   9.821   0.109
 3487SOL     OW12357   7.533   0.442   3.095
 3487SOL    HW112358   7.505   0.514   3.152
 3487SOL    HW212359   7.629   0.451   3.091
 3488SOL     OW12360   1.511   5.378  12.963
 3488SOL    HW112361   1.575   5.309  12.948
 3488SOL    HW212362   1.512   5.431  12.883
 3489SOL     OW12363  12.211   0.128   8.417
 3489SOL    HW112364  12.275   0.058   8.425
 3489SOL    HW212365  12.127   0.088   8.437
 3490SOL     OW12366  11.185  10.013   7.578
 3490SOL    HW112367  11.172   9.928   7.620
 3490SOL    HW212368  11.251   9.996   7.511
 3491SOL     OW12369   4.969  12.938  14.869
 3491SOL    HW112370   5.007  12.859  14.830
 3491SOL    HW212371   5.038  13.003  14.864
 3492SOL     OW12372  12.859  12.434   4.913
 3492SOL    HW112373  12.889  12.522   4.890
 3492SOL    HW212374  12.794  12.449   4.982
 3493SOL     OW12375  12.717  10.024  12.305
 3493SOL    HW112376  12.718  10.108  12.260
 3493SOL    HW212377  12.804   9.988  12.290
 3494SOL     OW12378   2.397  11.545   1.142
 3494SOL    HW112379   2.393  11.597   1.222
 3494SOL    HW212380   2.445  11.600   1.080
 3495SOL     OW12381   0.694   3.337   4.574
 3495SOL    HW112382   0.625   3.283   4.613
 3495SOL    HW212383   0.766   3.332   4.636
 3496SOL     OW12384   3.883   7.620   7.299
 3496SOL    HW112385   3.811   7.623   7.363
 3496SOL    HW212386   3.890   7.527   7.276
 3497SOL     OW12387  10.855  10.930  14.748
 3497SOL    HW112388  10.869  10.862  14.683
 3497SOL    HW212389  10.879  11.012  14.703
 3498SOL     OW12390  10.695  12.575   8.084
 3498SOL    HW112391  10.612  12.542   8.117
 3498SOL    HW212392  10.681  12.583   7.989
 3499SOL     OW12393   8.591   2.366   0.544
 3499SOL    HW112394   8.652   2.408   0.483
 3499SOL    HW212395   8.544   2.439   0.585
 3500SOL     OW12396   6.133   2.432  14.081
 3500SOL    HW112397   6.211   2.401  14.036
 3500SOL    HW212398   6.127   2.378  14.160
 3501SOL     OW12399  13.208   3.179   3.361
 3501SOL    HW112400  13.142   3.148   3.299
 3501SOL    HW212401  13.282   3.120   3.348
 3502SOL     OW12402   5.899   5.118  13.585
 3502SOL    HW112403   5.821   5.151  13.630
 3502SOL    HW212404   5.960   5.098  13.656
 3503SOL     OW12405   0.496   7.765   7.161
 3503SOL    HW112406   0.478   7.851   7.198
 3503SOL    HW212407   0.413   7.737   7.123
 3504SOL     OW12408  11.337   5.632  10.142
 3504SOL    HW112409  11.414   5.689  10.134
 3504SOL    HW212410  11.324   5.598  10.053
 3505SOL     OW12411  14.075  12.172  14.348
 3505SOL    HW112412  14.169  12.190  14.353
 3505SOL    HW212413  14.042  12.194  14.436
 3506SOL     OW12414   2.516  12.325  11.699
 3506SOL    HW112415   2.574  12.250  11.690
 3506SOL    HW212416   2.457  12.301  11.770
 3507SOL     OW12417   2.299   0.499   8.967
 3507SOL    HW112418   2.247   0.419   8.971
 3507SOL    HW212419   2.310   0.515   8.873
 3508SOL     OW12420   7.897  14.573   8.613
 3508SOL    HW112421   7.927  14.546   8.526
 3508SOL    HW212422   7.857  14.494   8.650
 3509SOL     OW12423   0.252  11.295   8.557
 3509SOL    HW112424   0.278  11.279   8.466
 3509SOL    HW212425   0.228  11.209   8.591
 3510SOL     OW12426  13.557  10.945   7.398
 3510SOL    HW112427  13.493  10.912   7.335
 3510SOL    HW212428  13.615  10.871   7.416
 3511SOL     OW12429  10.046  14.606  11.370
 3511SOL    HW112430   9.981  14.594  11.301
 3511SOL    HW212431  10.008  14.673  11.427
 3512SOL     OW12432   2.209   2.184   3.437
 3512SOL    HW112433   2.275   2.232   3.388
 3512SOL    HW212434   2.184   2.112   3.379
 3513SOL     OW12435   7.879   6.090   5.580
 3513SOL    HW112436   7.915   6.165   5.626
 3513SOL    HW212437   7.920   6.014   5.621
 3514SOL     OW12438   0.311  12.584   4.675
 3514SOL    HW112439   0.363  12.613   4.750
 3514SOL    HW212440   0.376  12.554   4.611
 3515SOL     OW12441  14.117   8.303  12.110
 3515SOL    HW112442  14.042   8.353  12.078
 3515SOL    HW212443  14.079   8.239  12.171
 3516SOL     OW12444   8.105  12.409   9.361
 3516SOL    HW112445   8.073  12.329   9.402
 3516SOL    HW212446   8.200  12.406   9.374
 3517SOL     OW12447   1.198   0.254   9.930
 3517SOL    HW112448   1.149   0.265  10.012
 3517SOL    HW212449   1.236   0.340   9.913
 3518SOL     OW12450  11.638   6.783   1.913
 3518SOL    HW112451  11.592   6.792   1.997
 3518SOL    HW212452  11.583   6.831   1.851
 3519SOL     OW12453   9.639   8.162  13.104
 3519SOL    HW112454   9.556   8.136  13.144
 3519SOL    HW212455   9.615   8.195  13.017
 3520SOL     OW12456   8.023   3.503  13.815
 3520SOL    HW112457   7.952   3.439  13.827
 3520SOL    HW212458   8.012   3.564  13.888
 3521SOL     OW12459  12.916  13.492  11.029
 3521SOL    HW112460  12.915  13.400  11.001
 3521SOL    HW212461  12.828  13.524  11.009
 3522SOL     OW12462  13.636   5.281   7.852
 3522SOL    HW112463  13.570   5.213   7.859
 3522SOL    HW212464  13.681   5.280   7.937
 3523SOL     OW12465  11.707   9.591   7.059
 3523SOL    HW112466  11.793   9.625   7.035
 3523SOL    HW212467  11.720   9.551   7.145
 3524SOL     OW12468  12.177   2.892   2.000
 3524SOL    HW112469  12.115   2.913   1.929
 3524SOL    HW212470  12.253   2.948   1.982
 3525SOL     OW12471   4.440  13.241   9.614
 3525SOL    HW112472   4.431  13.221   9.520
 3525SOL    HW212473   4.362  13.201   9.654
 3526SOL     OW12474  10.680   9.975  11.918
 3526SOL    HW112475  10.706   9.954  11.828
 3526SOL    HW212476  10.747  10.038  11.948
 3527SOL     OW12477  14.083   6.640   8.945
 3527SOL    HW112478  14.099   6.670   8.856
 3527SOL    HW212479  14.061   6.719   8.994
 3528SOL     OW12480  11.462   1.289  12.551
 3528SOL    HW112481  11.473   1.384  12.550
 3528SOL    HW212482  11.382   1.274  12.501
 3529SOL     OW12483   6.071   4.405   0.493
 3529SOL    HW112484   5.981   4.437   0.500
 3529SOL    HW212485   6.075   4.359   0.410
 3530SOL     OW12486   0.653   0.923   9.862
 3530SOL    HW112487   0.700   0.907   9.944
 3530SOL    HW212488   0.597   0.998   9.882
 3531SOL     OW12489  13.529   1.552   7.502
 3531SOL    HW112490  13.448   1.509   7.475
 3531SOL    HW212491  13.596   1.484   7.497
 3532SOL     OW12492  12.537  14.224  10.812
 3532SOL    HW112493  12.550  14.319  10.813
 3532SOL    HW212494  12.523  14.203  10.719
 3533SOL     OW12495  14.670   6.637   5.794
 3533SOL    HW112496  14.662   6.596   5.881
 3533SOL    HW212497  14.678   6.730   5.812
 3534SOL     OW12498   2.932   8.469  11.494
 3534SOL    HW112499   2.840   8.494  11.486
 3534SOL    HW212500   2.972   8.540  11.544
 3535SOL     OW12501   1.314  10.074   2.114
 3535SOL    HW112502   1.324  10.098   2.206
 3535SOL    HW212503   1.387  10.013   2.098
 3536SOL     OW12504   5.031   9.286  13.618
 3536SOL    HW112505   5.088   9.362  13.606
 3536SOL    HW212506   5.043   9.262  13.710
 3537SOL     OW12507  13.877  14.085  14.691
 3537SOL    HW112508  13.972  14.097  14.698
 3537SOL    HW212509  13.844  14.109  14.778
 3538SOL     OW12510   0.087   1.169   0.496
 3538SOL    HW112511   0.166   1.123   0.465
 3538SOL    HW212512   0.025   1.161   0.423
 3539SOL     OW12513  11.165   8.134  10.462
 3539SOL    HW112514  11.231   8.082  10.508
 3539SOL    HW212515  11.215   8.201  10.415
 3540SOL     OW12516   6.465  11.608  11.446
 3540SOL    HW112517   6.474  11.580  11.538
 3540SOL    HW212518   6.502  11.696  11.444
 3541SOL     OW12519   7.605   3.349  14.194
 3541SOL    HW112520   7.644   3.307  14.271
 3541SOL    HW212521   7.525   3.301  14.178
 3542SOL     OW12522  12.553   8.761  14.576
 3542SOL    HW112523  12.497   8.773  14.653
 3542SOL    HW212524  12.528   8.833  14.518
 3543SOL     OW12525   3.245   8.957  12.596
 3543SOL    HW112526   3.165   8.921  12.635
 3543SOL    HW212527   3.315   8.933  12.656
 3544SOL     OW12528   5.076  10.341   1.530
 3544SOL    HW112529   5.120  10.426   1.525
 3544SOL    HW212530   5.138  10.279   1.492
 3545SOL     OW12531  14.838  10.803  11.136
 3545SOL    HW112532  14.797  10.731  11.088
 3545SOL    HW212533  14.832  10.878  11.077
 3546SOL     OW12534   0.472   4.216   5.714
 3546SOL    HW112535   0.388   4.225   5.671
 3546SOL    HW212536   0.536   4.235   5.646
 3547SOL     OW12537  10.981   3.761  14.448
 3547SOL    HW112538  11.001   3.751  14.355
 3547SOL    HW212539  10.914   3.695  14.466
 3548SOL     OW12540  10.142   9.131  11.761
 3548SOL    HW112541  10.209   9.164  11.701
 3548SOL    HW212542  10.179   9.145  11.848
 3549SOL     OW12543  11.378  12.920  14.880
 3549SOL    HW112544  11.346  12.903  14.791
 3549SOL    HW212545  11.414  13.008  14.877
 3550SOL     OW12546  13.640   6.281   9.591
 3550SOL    HW112547  13.562   6.251   9.545
 3550SOL    HW212548  13.698   6.205   9.592
 3551SOL     OW12549   9.332   1.218  13.378
 3551SOL    HW112550   9.330   1.166  13.458
 3551SOL    HW212551   9.326   1.154  13.307
 3552SOL     OW12552   4.228   4.751   4.668
 3552SOL    HW112553   4.308   4.725   4.713
 3552SOL    HW212554   4.167   4.777   4.737
 3553SOL     OW12555   8.337   2.479   0.224
 3553SOL    HW112556   8.424   2.460   0.190
 3553SOL    HW212557   8.283   2.406   0.195
 3554SOL     OW12558   2.531   5.011  10.727
 3554SOL    HW112559   2.565   5.069  10.796
 3554SOL    HW212560   2.603   5.003  10.665
 3555SOL     OW12561   7.097   1.826   8.368
 3555SOL    HW112562   7.110   1.873   8.286
 3555SOL    HW212563   7.179   1.839   8.416
 3556SOL     OW12564  14.150  13.475   6.659
 3556SOL    HW112565  14.069  13.477   6.609
 3556SOL    HW212566  14.122  13.482   6.750
 3557SOL     OW12567   4.298  11.083   5.528
 3557SOL    HW112568   4.314  11.168   5.486
 3557SOL    HW212569   4.303  11.102   5.622
 3558SOL     OW12570   8.245  11.452   8.275
 3558SOL    HW112571   8.323  11.445   8.219
 3558SOL    HW212572   8.224  11.362   8.298
 3559SOL     OW12573   3.857  10.836   5.169
 3559SOL    HW112574   3.895  10.882   5.094
 3559SOL    HW212575   3.775  10.882   5.187
 3560SOL     OW12576   8.704   5.920   5.239
 3560SOL    HW112577   8.734   5.856   5.175
 3560SOL    HW212578   8.616   5.892   5.264
 3561SOL     OW12579   0.222   7.081   5.390
 3561SOL    HW112580   0.158   7.026   5.436
 3561SOL    HW212581   0.248   7.030   5.314
 3562SOL     OW12582   4.142   8.584  10.276
 3562SOL    HW112583   4.108   8.505  10.319
 3562SOL    HW212584   4.228   8.558  10.244
 3563SOL     OW12585   5.464   1.792   9.543
 3563SOL    HW112586   5.535   1.734   9.569
 3563SOL    HW212587   5.416   1.743   9.476
 3564SOL     OW12588   8.294   1.119   1.333
 3564SOL    HW112589   8.261   1.150   1.249
 3564SOL    HW212590   8.319   1.027   1.317
 3565SOL     OW12591   8.097   9.885  10.688
 3565SOL    HW112592   8.106   9.888  10.593
 3565SOL    HW212593   8.070   9.795  10.708
 3566SOL     OW12594  13.491  10.479   0.328
 3566SOL    HW112595  13.516  10.417   0.259
 3566SOL    HW212596  13.431  10.430   0.384
 3567SOL     OW12597  12.812   4.233   5.541
 3567SOL    HW112598  12.867   4.186   5.478
 3567SOL    HW212599  12.847   4.208   5.627
 3568SOL     OW12600   2.153  10.053  13.708
 3568SOL    HW112601   2.197  10.130  13.743
 3568SOL    HW212602   2.096  10.023  13.779
 3569SOL     OW12603   3.798   3.868   1.300
 3569SOL    HW112604   3.781   3.958   1.329
 3569SOL    HW212605   3.858   3.878   1.226
 3570SOL     OW12606   8.468  13.646  10.015
 3570SOL    HW112607   8.373  13.644  10.027
 3570SOL    HW212608   8.492  13.555   9.996
 3571SOL     OW12609  14.787  12.678   2.029
 3571SOL    HW112610  14.821  12.763   2.002
 3571SOL    HW212611  14.743  12.695   2.113
 3572SOL     OW12612   4.186  13.743   9.573
 3572SOL    HW112613   4.157  13.653   9.587
 3572SOL    HW212614   4.205  13.776   9.661
 3573SOL     OW12615   1.416   6.198   7.766
 3573SOL    HW112616   1.482   6.253   7.723
 3573SOL    HW212617   1.442   6.197   7.858
 3574SOL     OW12618  10.053   7.615   1.376
 3574SOL    HW112619  10.082   7.653   1.293
 3574SOL    HW212620   9.992   7.680   1.413
 3575SOL     OW12621   6.112   1.305   1.302
 3575SOL    HW112622   6.146   1.246   1.235
 3575SOL    HW212623   6.149   1.390   1.279
 3576SOL     OW12624  13.456  13.532  12.507
 3576SOL    HW112625  13.419  13.606  12.459
 3576SOL    HW212626  13.540  13.565  12.540
 3577SOL     OW12627  13.857  14.307   0.402
 3577SOL    HW112628  13.915  14.327   0.328
 3577SOL    HW212629  13.797  14.241   0.367
 3578SOL     OW12630   0.200  10.906   6.612
 3578SOL    HW112631   0.119  10.917   6.663
 3578SOL    HW212632   0.269  10.899   6.678
 3579SOL     OW12633   9.248  14.863   9.710
 3579SOL    HW112634   9.269  14.814   9.789
 3579SOL    HW212635   9.328  14.857   9.657
 3580SOL     OW12636   5.299  11.284  10.671
 3580SOL    HW112637   5.220  11.291  10.723
 3580SOL    HW212638   5.329  11.194  10.685
 3581SOL     OW12639   8.472   6.717   1.535
 3581SOL    HW112640   8.450   6.757   1.619
 3581SOL    HW212641   8.392   6.727   1.482
 3582SOL     OW12642  13.589  13.487  11.324
 3582SOL    HW112643  13.678  13.520  11.310
 3582SOL    HW212644  13.545  13.555  11.375
 3583SOL     OW12645   4.860   1.458   5.051
 3583SOL    HW112646   4.797   1.406   5.101
 3583SOL    HW212647   4.853   1.546   5.088
 3584SOL     OW12648  11.843   1.975  12.762
 3584SOL    HW112649  11.758   2.016  12.747
 3584SOL    HW212650  11.900   2.048  12.787
 3585SOL     OW12651   1.066   7.796   1.163
 3585SOL    HW112652   1.035   7.762   1.079
 3585SOL    HW212653   1.137   7.738   1.189
 3586SOL     OW12654   6.063  10.408  13.306
 3586SOL    HW112655   6.140  10.424  13.360
 3586SOL    HW212656   6.082  10.325  13.262
 3587SOL     OW12657  13.452   6.469  11.595
 3587SOL    HW112658  13.395   6.544  11.610
 3587SOL    HW212659  13.523   6.479  11.659
 3588SOL     OW12660   5.550   8.362   3.841
 3588SOL    HW112661   5.523   8.454   3.831
 3588SOL    HW212662   5.513   8.318   3.765
 3589SOL     OW12663  11.297   6.183   7.060
 3589SOL    HW112664  11.358   6.172   6.987
 3589SOL    HW212665  11.210   6.172   7.020
 3590SOL     OW12666   4.523  14.542  12.096
 3590SOL    HW112667   4.590  14.562  12.161
 3590SOL    HW212668   4.519  14.619  12.040
 3591SOL     OW12669   7.304   7.419   1.830
 3591SOL    HW112670   7.219   7.401   1.871
 3591SOL    HW212671   7.290   7.400   1.737
 3592SOL     OW12672   2.166  12.252  11.324
 3592SOL    HW112673   2.112  12.175  11.339
 3592SOL    HW212674   2.245  12.237  11.376
 3593SOL     OW12675  10.245  10.986   1.448
 3593SOL    HW112676  10.272  10.960   1.360
 3593SOL    HW212677  10.272  10.914   1.504
 3594SOL     OW12678  14.092   5.118   2.670
 3594SOL    HW112679  13.997   5.121   2.672
 3594SOL    HW212680  14.113   5.085   2.582
 3595SOL     OW12681   1.411  13.230  13.605
 3595SOL    HW112682   1.340  13.201  13.661
 3595SOL    HW212683   1.383  13.316  13.573
 3596SOL     OW12684  13.016   5.288  11.048
 3596SOL    HW112685  13.005   5.200  11.012
 3596SOL    HW212686  13.029   5.344  10.972
 3597SOL     OW12687  14.035   3.446   5.060
 3597SOL    HW112688  14.115   3.470   5.013
 3597SOL    HW212689  13.978   3.523   5.052
 3598SOL     OW12690  13.265   4.737   5.110
 3598SOL    HW112691  13.205   4.664   5.094
 3598SOL    HW212692  13.226   4.784   5.184
 3599SOL     OW12693   8.660  14.504   0.538
 3599SOL    HW112694   8.665  14.435   0.604
 3599SOL    HW212695   8.682  14.584   0.585
 3600SOL     OW12696   8.448  12.158  10.442
 3600SOL    HW112697   8.528  12.202  10.414
 3600SOL    HW212698   8.478  12.083  10.493
 3601SOL     OW12699   3.536   3.428   7.823
 3601SOL    HW112700   3.584   3.503   7.857
 3601SOL    HW212701   3.469   3.410   7.889
 3602SOL     OW12702   0.679   6.170   5.807
 3602SOL    HW112703   0.627   6.098   5.842
 3602SOL    HW212704   0.769   6.138   5.810
 3603SOL     OW12705   8.315   8.314   2.163
 3603SOL    HW112706   8.376   8.243   2.145
 3603SOL    HW212707   8.231   8.283   2.129
 3604SOL     OW12708  11.444  12.351  13.069
 3604SOL    HW112709  11.491  12.267  13.061
 3604SOL    HW212710  11.392  12.356  12.989
 3605SOL     OW12711   0.303   0.477   1.476
 3605SOL    HW112712   0.317   0.414   1.547
 3605SOL    HW212713   0.285   0.559   1.520
 3606SOL     OW12714   7.099   6.594   4.657
 3606SOL    HW112715   7.068   6.554   4.738
 3606SOL    HW212716   7.059   6.681   4.656
 3607SOL     OW12717   3.323   5.480   9.336
 3607SOL    HW112718   3.266   5.556   9.348
 3607SOL    HW212719   3.380   5.480   9.413
 3608SOL     OW12720   4.363   9.184   6.322
 3608SOL    HW112721   4.382   9.143   6.238
 3608SOL    HW212722   4.375   9.278   6.306
 3609SOL     OW12723  10.357   2.569  10.257
 3609SOL    HW112724  10.419   2.619  10.310
 3609SOL    HW212725  10.398   2.564  10.170
 3610SOL     OW12726   7.172  11.646  12.763
 3610SOL    HW112727   7.195  11.728  12.719
 3610SOL    HW212728   7.217  11.579  12.712
 3611SOL     OW12729   8.647   6.320  12.079
 3611SOL    HW112730   8.596   6.301  12.001
 3611SOL    HW212731   8.629   6.247  12.138
 3612SOL     OW12732   7.281   2.972   7.139
 3612SOL    HW112733   7.352   3.019   7.096
 3612SOL    HW212734   7.300   2.980   7.233
 3613SOL     OW12735  13.350  11.909  12.419
 3613SOL    HW112736  13.371  11.937  12.330
 3613SOL    HW212737  13.435  11.894  12.460
 3614SOL     OW12738  11.426  11.543   2.724
 3614SOL    HW112739  11.486  11.510   2.657
 3614SOL    HW212740  11.480  11.599   2.779
 3615SOL     OW12741   6.439   5.439   7.463
 3615SOL    HW112742   6.443   5.522   7.511
 3615SOL    HW212743   6.427   5.465   7.372
 3616SOL     OW12744   4.158   4.152   3.245
 3616SOL    HW112745   4.246   4.183   3.223
 3616SOL    HW212746   4.118   4.224   3.294
 3617SOL     OW12747  13.258   2.328  12.779
 3617SOL    HW112748  13.181   2.286  12.740
 3617SOL    HW212749  13.328   2.314  12.715
 3618SOL     OW12750   4.186  10.845   5.112
 3618SOL    HW112751   4.236  10.889   5.180
 3618SOL    HW212752   4.247  10.780   5.076
 3619SOL     OW12753   9.202   9.195   2.317
 3619SOL    HW112754   9.169   9.152   2.238
 3619SOL    HW212755   9.175   9.286   2.307
 3620SOL     OW12756  12.375   4.815   1.951
 3620SOL    HW112757  12.334   4.751   2.009
 3620SOL    HW212758  12.419   4.876   2.009
 3621SOL     OW12759   3.798   5.794   5.273
 3621SOL    HW112760   3.791   5.887   5.251
 3621SOL    HW212761   3.715   5.756   5.244
 3622SOL     OW12762  11.557  13.932   7.787
 3622SOL    HW112763  11.587  13.843   7.770
 3622SOL    HW212764  11.592  13.984   7.714
 3623SOL     OW12765  10.404   4.562   8.666
 3623SOL    HW112766  10.450   4.571   8.583
 3623SOL    HW212767  10.464   4.513   8.722
 3624SOL     OW12768   9.426  11.036   1.651
 3624SOL    HW112769   9.343  11.027   1.697
 3624SOL    HW212770   9.401  11.044   1.559
 3625SOL     OW12771  12.762  14.298   9.172
 3625SOL    HW112772  12.812  14.314   9.252
 3625SOL    HW212773  12.743  14.385   9.137
 3626SOL     OW12774   4.079   1.506   6.418
 3626SOL    HW112775   4.141   1.495   6.346
 3626SOL    HW212776   4.095   1.429   6.474
 3627SOL     OW12777   0.034   4.002   3.250
 3627SOL    HW112778   0.048   4.026   3.158
 3627SOL    HW212779  14.873   3.916   3.246
 3628SOL     OW12780  13.256   2.800   9.657
 3628SOL    HW112781  13.350   2.788   9.646
 3628SOL    HW212782  13.219   2.712   9.650
 3629SOL     OW12783  13.492  11.397   4.904
 3629SOL    HW112784  13.457  11.390   4.815
 3629SOL    HW212785  13.424  11.442   4.953
 3630SOL     OW12786   1.022  10.157   6.634
 3630SOL    HW112787   1.106  10.187   6.599
 3630SOL    HW212788   1.040  10.136   6.726
 3631SOL     OW12789  13.593   1.305   8.095
 3631SOL    HW112790  13.555   1.240   8.035
 3631SOL    HW212791  13.671   1.336   8.050
 3632SOL     OW12792   1.191   2.548  10.018
 3632SOL    HW112793   1.193   2.641  10.039
 3632SOL    HW212794   1.169   2.505  10.101
 3633SOL     OW12795   3.401   3.638  13.825
 3633SOL    HW112796   3.319   3.618  13.779
 3633SOL    HW212797   3.431   3.554  13.858
 3634SOL     OW12798   4.103   3.478   7.424
 3634SOL    HW112799   4.084   3.532   7.500
 3634SOL    HW212800   4.199   3.471   7.423
 3635SOL     OW12801   9.589   7.442   9.868
 3635SOL    HW112802   9.515   7.468   9.815
 3635SOL    HW212803   9.623   7.363   9.825
 3636SOL     OW12804  14.383  14.050   1.482
 3636SOL    HW112805  14.363  14.134   1.524
 3636SOL    HW212806  14.298  14.019   1.451
 3637SOL     OW12807   6.261   2.654   0.464
 3637SOL    HW112808   6.332   2.670   0.525
 3637SOL    HW212809   6.182   2.651   0.518
 3638SOL     OW12810   8.769  13.731  11.883
 3638SOL    HW112811   8.798  13.803  11.939
 3638SOL    HW212812   8.673  13.734  11.888
 3639SOL     OW12813  11.736   8.392   9.711
 3639SOL    HW112814  11.668   8.343   9.665
 3639SOL    HW212815  11.789   8.430   9.642
 3640SOL     OW12816  12.879   1.489  12.739
 3640SOL    HW112817  12.804   1.429  12.731
 3640SOL    HW212818  12.858   1.561  12.679
 3641SOL     OW12819  10.384   7.815   2.486
 3641SOL    HW112820  10.371   7.908   2.465
 3641SOL    HW212821  10.409   7.814   2.578
 3642SOL     OW12822  12.815   4.599   2.608
 3642SOL    HW112823  12.790   4.677   2.659
 3642SOL    HW212824  12.852   4.540   2.673
 3643SOL     OW12825   5.490   8.558   9.849
 3643SOL    HW112826   5.500   8.649   9.875
 3643SOL    HW212827   5.566   8.539   9.794
 3644SOL     OW12828   5.329   5.297   6.689
 3644SOL    HW112829   5.248   5.315   6.641
 3644SOL    HW212830   5.398   5.314   6.626
 3645SOL     OW12831  13.329   4.192  13.626
 3645SOL    HW112832  13.270   4.135  13.577
 3645SOL    HW212833  13.333   4.272  13.575
 3646SOL     OW12834   5.381   8.957  10.602
 3646SOL    HW112835   5.336   9.004  10.672
 3646SOL    HW212836   5.472   8.987  10.606
 3647SOL     OW12837   6.905   5.240   5.991
 3647SOL    HW112838   6.963   5.305   6.030
 3647SOL    HW212839   6.964   5.172   5.959
 3648SOL     OW12840  13.321   6.061   2.399
 3648SOL    HW112841  13.376   5.996   2.354
 3648SOL    HW212842  13.305   6.023   2.486
 3649SOL     OW12843   1.872  14.835  10.659
 3649SOL    HW112844   1.943   0.017  10.646
 3649SOL    HW212845   1.910  14.750  10.637
 3650SOL     OW12846  14.479   5.317   5.576
 3650SOL    HW112847  14.526   5.330   5.658
 3650SOL    HW212848  14.544   5.281   5.516
 3651SOL     OW12849   9.304   4.330   2.788
 3651SOL    HW112850   9.376   4.348   2.848
 3651SOL    HW212851   9.225   4.348   2.840
 3652SOL     OW12852  12.441  14.269  14.396
 3652SOL    HW112853  12.416  14.221  14.317
 3652SOL    HW212854  12.390  14.350  14.393
 3653SOL     OW12855   6.580   6.982   8.658
 3653SOL    HW112856   6.585   6.927   8.580
 3653SOL    HW212857   6.637   6.939   8.722
 3654SOL     OW12858   7.273   3.632   1.887
 3654SOL    HW112859   7.215   3.565   1.925
 3654SOL    HW212860   7.250   3.712   1.934
 3655SOL     OW12861   3.499  11.535  12.290
 3655SOL    HW112862   3.515  11.443  12.273
 3655SOL    HW212863   3.522  11.580  12.209
 3656SOL     OW12864   1.845  14.310  14.793
 3656SOL    HW112865   1.878  14.375  14.731
 3656SOL    HW212866   1.776  14.355  14.842
 3657SOL     OW12867   9.543   8.217   8.773
 3657SOL    HW112868   9.605   8.150   8.747
 3657SOL    HW212869   9.582   8.299   8.741
 3658SOL     OW12870   9.338   9.163  11.705
 3658SOL    HW112871   9.304   9.181  11.793
 3658SOL    HW212872   9.420   9.212  11.701
 3659SOL     OW12873  10.640   8.378   4.831
 3659SOL    HW112874  10.616   8.297   4.876
 3659SOL    HW212875  10.736   8.377   4.830
 3660SOL     OW12876   3.771  10.181   1.715
 3660SOL    HW112877   3.775  10.149   1.805
 3660SOL    HW212878   3.709  10.254   1.719
 3661SOL     OW12879   6.838   6.822   1.354
 3661SOL    HW112880   6.825   6.786   1.267
 3661SOL    HW212881   6.804   6.911   1.349
 3662SOL     OW12882   0.828   1.123   4.536
 3662SOL    HW112883   0.757   1.187   4.541
 3662SOL    HW212884   0.839   1.106   4.442
 3663SOL     OW12885  14.348   1.406   8.261
 3663SOL    HW112886  14.306   1.326   8.292
 3663SOL    HW212887  14.278   1.456   8.219
 3664SOL     OW12888  12.177   0.685   9.435
 3664SOL    HW112889  12.240   0.613   9.437
 3664SOL    HW212890  12.101   0.649   9.391
 3665SOL     OW12891   2.785  10.348  14.702
 3665SOL    HW112892   2.703  10.376  14.660
 3665SOL    HW212893   2.829  10.430  14.725
 3666SOL     OW12894  14.323   1.218  14.405
 3666SOL    HW112895  14.243   1.190  14.362
 3666SOL    HW212896  14.388   1.154  14.379
 3667SOL     OW12897   6.080   1.823   4.406
 3667SOL    HW112898   6.077   1.918   4.418
 3667SOL    HW212899   5.998   1.792   4.446
 3668SOL     OW12900   8.927   8.298  12.277
 3668SOL    HW112901   8.919   8.286  12.371
 3668SOL    HW212902   9.021   8.287  12.259
 3669SOL     OW12903  14.772   5.456   2.224
 3669SOL    HW112904  14.823   5.378   2.202
 3669SOL    HW212905  14.731   5.482   2.141
 3670SOL     OW12906  14.813   4.306   3.200
 3670SOL    HW112907  14.836   4.231   3.146
 3670SOL    HW212908  14.835   4.382   3.147
 3671SOL     OW12909   3.181  12.252  10.185
 3671SOL    HW112910   3.142  12.218  10.265
 3671SOL    HW212911   3.252  12.309  10.214
 3672SOL     OW12912   4.428   4.304   5.350
 3672SOL    HW112913   4.513   4.344   5.331
 3672SOL    HW212914   4.450   4.222   5.396
 3673SOL     OW12915   7.428   8.883   2.274
 3673SOL    HW112916   7.512   8.872   2.320
 3673SOL    HW212917   7.366   8.906   2.342
 3674SOL     OW12918  12.643   1.625   2.570
 3674SOL    HW112919  12.736   1.609   2.553
 3674SOL    HW212920  12.598   1.577   2.500
 3675SOL     OW12921   5.823   2.713  11.418
 3675SOL    HW112922   5.728   2.720  11.407
 3675SOL    HW212923   5.847   2.638  11.364
 3676SOL     OW12924  11.276  12.625   6.716
 3676SOL    HW112925  11.199  12.615   6.773
 3676SOL    HW212926  11.281  12.543   6.669
 3677SOL     OW12927   7.586   3.925  13.592
 3677SOL    HW112928   7.667   3.877  13.609
 3677SOL    HW212929   7.539   3.923  13.675
 3678SOL     OW12930  10.528  13.861   1.379
 3678SOL    HW112931  10.443  13.825   1.405
 3678SOL    HW212932  10.511  13.902   1.293
 3679SOL     OW12933   9.509  11.887   2.251
 3679SOL    HW112934   9.532  11.839   2.172
 3679SOL    HW212935   9.477  11.972   2.220
 3680SOL     OW12936   2.889   5.625   5.854
 3680SOL    HW112937   2.858   5.624   5.763
 3680SOL    HW212938   2.814   5.654   5.905
 3681SOL     OW12939   0.308   2.222  14.757
 3681SOL    HW112940   0.336   2.284  14.690
 3681SOL    HW212941   0.277   2.278  14.829
 3682SOL     OW12942   2.646   0.917   8.483
 3682SOL    HW112943   2.597   0.975   8.541
 3682SOL    HW212944   2.703   0.975   8.432
 3683SOL     OW12945   2.883   2.561  11.102
 3683SOL    HW112946   2.820   2.572  11.173
 3683SOL    HW212947   2.842   2.499  11.042
 3684SOL     OW12948   4.538   5.468  11.881
 3684SOL    HW112949   4.594   5.451  11.956
 3684SOL    HW212950   4.450   5.475  11.918
 3685SOL     OW12951  10.619   8.733  10.148
 3685SOL    HW112952  10.542   8.779  10.115
 3685SOL    HW212953  10.585   8.652  10.185
 3686SOL     OW12954  11.755   8.420  12.258
 3686SOL    HW112955  11.784   8.510  12.275
 3686SOL    HW212956  11.686   8.430  12.191
 3687SOL     OW12957   6.583   3.059  14.580
 3687SOL    HW112958   6.557   3.044  14.489
 3687SOL    HW212959   6.639   2.984  14.602
 3688SOL     OW12960   7.500   8.550   6.109
 3688SOL    HW112961   7.574   8.512   6.158
 3688SOL    HW212962   7.435   8.480   6.106
 3689SOL     OW12963  13.398  12.482  10.957
 3689SOL    HW112964  13.337  12.456  11.026
 3689SOL    HW212965  13.360  12.560  10.918
 3690SOL     OW12966  12.320  12.061  14.371
 3690SOL    HW112967  12.390  12.000  14.394
 3690SOL    HW212968  12.361  12.122  14.309
 3691SOL     OW12969   8.306   5.072   5.943
 3691SOL    HW112970   8.331   5.028   5.861
 3691SOL    HW212971   8.214   5.047   5.956
 3692SOL     OW12972   4.212   9.393   0.897
 3692SOL    HW112973   4.271   9.463   0.926
 3692SOL    HW212974   4.228   9.386   0.803
 3693SOL     OW12975   5.862   2.943  11.628
 3693SOL    HW112976   5.870   2.896  11.545
 3693SOL    HW212977   5.938   3.001  11.630
 3694SOL     OW12978  10.037   5.161   2.059
 3694SOL    HW112979  10.048   5.182   2.152
 3694SOL    HW212980  10.004   5.071   2.059
 3695SOL     OW12981   3.518  13.448  10.390
 3695SOL    HW112982   3.490  13.511  10.456
 3695SOL    HW212983   3.443  13.390  10.378
 3696SOL     OW12984   4.043  13.393   9.047
 3696SOL    HW112985   4.038  13.345   9.131
 3696SOL    HW212986   4.114  13.349   8.999
 3697SOL     OW12987  11.094  13.547  11.768
 3697SOL    HW112988  11.087  13.631  11.814
 3697SOL    HW212989  11.094  13.571  11.675
 3698SOL     OW12990   4.577   1.191  14.855
 3698SOL    HW112991   4.514   1.165   0.042
 3698SOL    HW212992   4.663   1.174   0.014
 3699SOL     OW12993  14.071   9.190   0.962
 3699SOL    HW112994  14.045   9.159   1.049
 3699SOL    HW212995  13.989   9.198   0.914
 3700SOL     OW12996   1.577   6.044   0.448
 3700SOL    HW112997   1.552   6.092   0.527
 3700SOL    HW212998   1.539   5.957   0.460
 3701SOL     OW12999  14.225   1.794   2.342
 3701SOL    HW113000  14.211   1.700   2.344
 3701SOL    HW213001  14.138   1.832   2.353
 3702SOL     OW13002   6.197   5.064   6.946
 3702SOL    HW113003   6.183   4.988   7.002
 3702SOL    HW213004   6.241   5.028   6.868
 3703SOL     OW13005   6.625   6.597  11.144
 3703SOL    HW113006   6.579   6.590  11.228
 3703SOL    HW213007   6.630   6.507  11.112
 3704SOL     OW13008   8.169  14.750  11.134
 3704SOL    HW113009   8.170  14.656  11.116
 3704SOL    HW213010   8.086  14.765  11.179
 3705SOL     OW13011   8.556   6.636  11.142
 3705SOL    HW113012   8.618   6.697  11.180
 3705SOL    HW213013   8.495   6.692  11.093
 3706SOL     OW13014   8.964   1.581   7.208
 3706SOL    HW113015   9.032   1.598   7.143
 3706SOL    HW213016   8.882   1.585   7.159
 3707SOL     OW13017  14.646   3.322   4.288
 3707SOL    HW113018  14.676   3.351   4.202
 3707SOL    HW213019  14.726   3.298   4.334
 3708SOL     OW13020  14.846  12.170   1.077
 3708SOL    HW113021  14.765  12.220   1.080
 3708SOL    HW213022   0.017  12.210   1.007
 3709SOL     OW13023  11.334  13.711  12.021
 3709SOL    HW113024  11.302  13.740  12.106
 3709SOL    HW213025  11.298  13.623  12.010
 3710SOL     OW13026   6.171  12.282  12.902
 3710SOL    HW113027   6.096  12.336  12.929
 3710SOL    HW213028   6.248  12.330  12.934
 3711SOL     OW13029   3.897   1.734   4.952
 3711SOL    HW113030   3.826   1.734   5.016
 3711SOL    HW213031   3.889   1.649   4.908
 3712SOL     OW13032   5.884   6.004   0.122
 3712SOL    HW113033   5.917   6.047   0.201
 3712SOL    HW213034   5.957   6.006   0.061
 3713SOL     OW13035   3.706   1.851   0.026
 3713SOL    HW113036   3.752   1.783  14.856
 3713SOL    HW213037   3.671   1.805   0.102
 3714SOL     OW13038  13.924   9.236   2.245
 3714SOL    HW113039  13.853   9.287   2.206
 3714SOL    HW213040  13.994   9.300   2.260
 3715SOL     OW13041   6.481  11.526  11.710
 3715SOL    HW113042   6.513  11.496  11.795
 3715SOL    HW213043   6.437  11.608  11.729
 3716SOL     OW13044   1.349  14.168  10.878
 3716SOL    HW113045   1.260  14.200  10.893
 3716SOL    HW213046   1.348  14.079  10.912
 3717SOL     OW13047  13.195   4.193   4.931
 3717SOL    HW113048  13.264   4.197   4.997
 3717SOL    HW213049  13.128   4.253   4.962
 3718SOL     OW13050   3.457   6.213   7.334
 3718SOL    HW113051   3.409   6.145   7.287
 3718SOL    HW213052   3.549   6.186   7.327
 3719SOL     OW13053   2.691  13.553   7.030
 3719SOL    HW113054   2.644  13.578   7.110
 3719SOL    HW213055   2.623  13.516   6.974
 3720SOL     OW13056   0.631   7.657  12.138
 3720SOL    HW113057   0.630   7.562  12.145
 3720SOL    HW213058   0.699   7.676  12.074
 3721SOL     OW13059   9.581   0.205  12.314
 3721SOL    HW113060   9.673   0.206  12.338
 3721SOL    HW213061   9.534   0.201  12.398
 3722SOL     OW13062  10.606  14.375  12.760
 3722SOL    HW113063  10.693  14.380  12.721
 3722SOL    HW213064  10.551  14.429  12.703
 3723SOL     OW13065   5.234  12.816   6.151
 3723SOL    HW113066   5.238  12.756   6.076
 3723SOL    HW213067   5.147  12.855   6.145
 3724SOL     OW13068   3.922   8.809   6.673
 3724SOL    HW113069   3.971   8.727   6.671
 3724SOL    HW213070   3.876   8.812   6.589
 3725SOL     OW13071   4.386   9.437   2.020
 3725SOL    HW113072   4.416   9.472   2.104
 3725SOL    HW213073   4.294   9.417   2.035
 3726SOL     OW13074  10.679   6.380   0.924
 3726SOL    HW113075  10.752   6.343   0.874
 3726SOL    HW213076  10.718   6.405   1.008
 3727SOL     OW13077   1.894   3.121  12.223
 3727SOL    HW113078   1.953   3.046  12.223
 3727SOL    HW213079   1.922   3.174  12.297
 3728SOL     OW13080  10.775   7.073  13.577
 3728SOL    HW113081  10.800   6.986  13.546
 3728SOL    HW213082  10.682   7.080  13.558
 3729SOL     OW13083  10.233  12.988   4.955
 3729SOL    HW113084  10.273  13.043   5.023
 3729SOL    HW213085  10.282  13.008   4.876
 3730SOL     OW13086   7.755   1.935  12.129
 3730SOL    HW113087   7.834   1.989  12.134
 3730SOL    HW213088   7.685   1.997  12.112
 3731SOL     OW13089  12.540   9.366   7.019
 3731SOL    HW113090  12.599   9.400   7.087
 3731SOL    HW213091  12.505   9.285   7.056
 3732SOL     OW13092   1.989  12.514   5.537
 3732SOL    HW113093   2.018  12.482   5.452
 3732SOL    HW213094   2.018  12.606   5.539
 3733SOL     OW13095   3.989   3.980   9.930
 3733SOL    HW113096   3.924   3.953   9.994
 3733SOL    HW213097   4.063   4.010   9.982
 3734SOL     OW13098   1.374   9.553  14.755
 3734SOL    HW113099   1.428   9.475  14.771
 3734SOL    HW213100   1.295   9.538  14.807
 3735SOL     OW13101  11.769   7.491  11.603
 3735SOL    HW113102  11.679   7.479  11.574
 3735SOL    HW213103  11.803   7.561  11.547
 3736SOL     OW13104   5.484   7.833   6.065
 3736SOL    HW113105   5.502   7.799   6.153
 3736SOL    HW213106   5.399   7.796   6.042
 3737SOL     OW13107  10.522   9.796  12.529
 3737SOL    HW113108  10.596   9.785  12.588
 3737SOL    HW213109  10.541   9.739  12.455
 3738SOL     OW13110  13.563   9.061   0.646
 3738SOL    HW113111  13.474   9.090   0.625
 3738SOL    HW213112  13.618   9.136   0.624
 3739SOL     OW13113  10.305   3.659   8.288
 3739SOL    HW113114  10.380   3.603   8.307
 3739SOL    HW213115  10.325   3.697   8.202
 3740SOL     OW13116  12.980  10.668   7.481
 3740SOL    HW113117  12.911  10.700   7.422
 3740SOL    HW213118  13.027  10.603   7.429
 3741SOL     OW13119  12.779  10.663  13.404
 3741SOL    HW113120  12.767  10.574  13.437
 3741SOL    HW213121  12.826  10.708  13.474
 3742SOL     OW13122  13.810  11.456   0.304
 3742SOL    HW113123  13.855  11.478   0.223
 3742SOL    HW213124  13.757  11.379   0.283
 3743SOL     OW13125  12.363   2.323   4.912
 3743SOL    HW113126  12.389   2.231   4.915
 3743SOL    HW213127  12.422   2.362   4.847
 3744SOL     OW13128   5.861  14.182   3.717
 3744SOL    HW113129   5.861  14.089   3.693
 3744SOL    HW213130   5.944  14.215   3.683
 3745SOL     OW13131   9.812   9.648   6.177
 3745SOL    HW113132   9.816   9.736   6.141
 3745SOL    HW213133   9.746   9.653   6.246
 3746SOL     OW13134   7.979   3.931   7.885
 3746SOL    HW113135   8.002   3.931   7.793
 3746SOL    HW213136   8.058   3.959   7.930
 3747SOL     OW13137  11.652   7.132   8.247
 3747SOL    HW113138  11.696   7.063   8.296
 3747SOL    HW213139  11.651   7.100   8.157
 3748SOL     OW13140   4.708   5.450  10.055
 3748SOL    HW113141   4.675   5.371  10.013
 3748SOL    HW213142   4.636   5.479  10.111
 3749SOL     OW13143  14.257   4.012   5.839
 3749SOL    HW113144  14.232   3.986   5.928
 3749SOL    HW213145  14.214   3.948   5.783
 3750SOL     OW13146   7.843   7.384  12.221
 3750SOL    HW113147   7.898   7.309  12.201
 3750SOL    HW213148   7.791   7.357  12.297
 3751SOL     OW13149   4.263   4.719   1.027
 3751SOL    HW113150   4.253   4.674   0.944
 3751SOL    HW213151   4.186   4.695   1.077
 3752SOL     OW13152  10.441   4.446   8.288
 3752SOL    HW113153  10.385   4.398   8.226
 3752SOL    HW213154  10.431   4.399   8.371
 3753SOL     OW13155   7.285  14.378  14.539
 3753SOL    HW113156   7.277  14.423  14.455
 3753SOL    HW213157   7.319  14.445  14.599
 3754SOL     OW13158   3.354   4.917  14.794
 3754SOL    HW113159   3.431   4.870  14.763
 3754SOL    HW213160   3.286   4.851  14.801
 3755SOL     OW13161  10.369  10.793   2.547
 3755SOL    HW113162  10.385  10.837   2.631
 3755SOL    HW213163  10.287  10.745   2.561
 3756SOL     OW13164  11.680   5.515   8.272
 3756SOL    HW113165  11.682   5.426   8.309
 3756SOL    HW213166  11.721   5.506   8.186
 3757SOL     OW13167   4.025  14.657   1.644
 3757SOL    HW113168   3.943  14.625   1.606
 3757SOL    HW213169   4.007  14.661   1.738
 3758SOL     OW13170   2.825   9.378  11.556
 3758SOL    HW113171   2.783   9.297  11.528
 3758SOL    HW213172   2.875   9.353  11.634
 3759SOL     OW13173  11.601  11.177   3.437
 3759SOL    HW113174  11.624  11.131   3.518
 3759SOL    HW213175  11.532  11.124   3.398
 3760SOL     OW13176   3.190  12.898  14.044
 3760SOL    HW113177   3.231  12.908  14.130
 3760SOL    HW213178   3.096  12.908  14.061
 3761SOL     OW13179  11.606   5.638   6.936
 3761SOL    HW113180  11.694   5.614   6.905
 3761SOL    HW213181  11.582   5.567   6.995
 3762SOL     OW13182   3.439   9.831  13.917
 3762SOL    HW113183   3.529   9.817  13.888
 3762SOL    HW213184   3.395   9.868  13.840
 3763SOL     OW13185   4.312   5.489   9.605
 3763SOL    HW113186   4.251   5.458   9.538
 3763SOL    HW213187   4.367   5.412   9.624
 3764SOL     OW13188   3.713  12.677   8.007
 3764SOL    HW113189   3.625  12.675   8.045
 3764SOL    HW213190   3.709  12.615   7.934
 3765SOL     OW13191   1.981  13.989   5.148
 3765SOL    HW113192   1.907  13.936   5.178
 3765SOL    HW213193   2.055  13.928   5.148
 3766SOL     OW13194  13.197  13.280  12.813
 3766SOL    HW113195  13.106  13.292  12.784
 3766SOL    HW213196  13.190  13.224  12.890
 3767SOL     OW13197  11.466   4.455   6.730
 3767SOL    HW113198  11.525   4.470   6.805
 3767SOL    HW213199  11.434   4.541   6.706
 3768SOL     OW13200   5.716   5.388   5.289
 3768SOL    HW113201   5.744   5.303   5.254
 3768SOL    HW213202   5.770   5.400   5.367
 3769SOL     OW13203  14.510  13.394  11.647
 3769SOL    HW113204  14.422  13.357  11.636
 3769SOL    HW213205  14.536  13.421  11.559
 3770SOL     OW13206  11.357   0.710  12.421
 3770SOL    HW113207  11.303   0.746  12.491
 3770SOL    HW213208  11.335   0.761  12.343
 3771SOL     OW13209   6.034   1.198   0.706
 3771SOL    HW113210   5.953   1.244   0.726
 3771SOL    HW213211   6.056   1.226   0.617
 3772SOL     OW13212   5.651   5.267  10.526
 3772SOL    HW113213   5.745   5.257  10.543
 3772SOL    HW213214   5.611   5.189  10.564
 3773SOL     OW13215   5.514  12.792  11.926
 3773SOL    HW113216   5.559  12.712  11.899
 3773SOL    HW213217   5.479  12.829  11.845
 3774SOL     OW13218   3.523   7.615   9.674
 3774SOL    HW113219   3.452   7.551   9.668
 3774SOL    HW213220   3.480   7.700   9.664
 3775SOL     OW13221   8.811   4.887   6.226
 3775SOL    HW113222   8.727   4.842   6.230
 3775SOL    HW213223   8.814   4.939   6.306
 3776SOL     OW13224   2.600   1.882   0.875
 3776SOL    HW113225   2.667   1.882   0.808
 3776SOL    HW213226   2.583   1.790   0.893
 3777SOL     OW13227   2.416   8.534   2.293
 3777SOL    HW113228   2.323   8.530   2.271
 3777SOL    HW213229   2.444   8.443   2.297
 3778SOL     OW13230   7.545   2.364   4.093
 3778SOL    HW113231   7.604   2.437   4.111
 3778SOL    HW213232   7.476   2.373   4.159
 3779SOL     OW13233   6.599  12.897   1.275
 3779SOL    HW113234   6.685  12.894   1.234
 3779SOL    HW213235   6.602  12.831   1.344
 3780SOL     OW13236   2.058  11.587  10.477
 3780SOL    HW113237   2.134  11.554  10.526
 3780SOL    HW213238   2.049  11.678  10.504
 3781SOL     OW13239   7.018  13.018   5.853
 3781SOL    HW113240   6.930  13.010   5.815
 3781SOL    HW213241   7.005  13.071   5.932
 3782SOL     OW13242  11.174   3.180   4.858
 3782SOL    HW113243  11.101   3.181   4.920
 3782SOL    HW213244  11.132   3.175   4.772
 3783SOL     OW13245  14.056  12.254  13.759
 3783SOL    HW113246  14.088  12.324  13.816
 3783SOL    HW213247  14.121  12.251  13.688
 3784SOL     OW13248  10.848  13.609   5.622
 3784SOL    HW113249  10.814  13.693   5.591
 3784SOL    HW213250  10.891  13.629   5.705
 3785SOL     OW13251  14.122   7.746  10.234
 3785SOL    HW113252  14.173   7.827  10.233
 3785SOL    HW213253  14.166   7.690  10.170
 3786SOL     OW13254   0.209   6.616  14.115
 3786SOL    HW113255   0.216   6.540  14.057
 3786SOL    HW213256   0.239   6.690  14.061
 3787SOL     OW13257   5.201   2.231   2.898
 3787SOL    HW113258   5.211   2.189   2.984
 3787SOL    HW213259   5.227   2.322   2.913
 3788SOL     OW13260   5.813   5.909  13.140
 3788SOL    HW113261   5.872   5.881  13.210
 3788SOL    HW213262   5.752   5.836  13.130
 3789SOL     OW13263   6.951   1.482   2.996
 3789SOL    HW113264   6.994   1.562   2.965
 3789SOL    HW213265   6.974   1.415   2.933
 3790SOL     OW13266   8.076   0.018  11.487
 3790SOL    HW113267   8.095   0.070  11.409
 3790SOL    HW213268   8.052  14.812  11.453
 3791SOL     OW13269   0.143   3.884   2.402
 3791SOL    HW113270   0.083   3.926   2.340
 3791SOL    HW213271   0.215   3.851   2.348
 3792SOL     OW13272  11.411  14.352   5.841
 3792SOL    HW113273  11.411  14.274   5.784
 3792SOL    HW213274  11.397  14.425   5.781
 3793SOL     OW13275   1.473   1.936  11.486
 3793SOL    HW113276   1.383   1.934  11.518
 3793SOL    HW213277   1.474   2.009  11.424
 3794SOL     OW13278   7.356  10.315   0.355
 3794SOL    HW113279   7.449  10.310   0.375
 3794SOL    HW213280   7.352  10.347   0.265
 3795SOL     OW13281   5.379  12.904  14.556
 3795SOL    HW113282   5.385  12.966  14.629
 3795SOL    HW213283   5.314  12.942  14.497
 3796SOL     OW13284  11.175  14.187   2.291
 3796SOL    HW113285  11.103  14.234   2.248
 3796SOL    HW213286  11.249  14.248   2.287
 3797SOL     OW13287  11.937   8.972   6.489
 3797SOL    HW113288  11.906   9.025   6.563
 3797SOL    HW213289  11.862   8.920   6.463
 3798SOL     OW13290   9.322   2.613  10.843
 3798SOL    HW113291   9.371   2.593  10.762
 3798SOL    HW213292   9.230   2.605  10.818
 3799SOL     OW13293   1.696   0.450  14.284
 3799SOL    HW113294   1.710   0.472  14.376
 3799SOL    HW213295   1.606   0.419  14.280
 3800SOL     OW13296  13.541   6.179   8.451
 3800SOL    HW113297  13.570   6.239   8.382
 3800SOL    HW213298  13.621   6.158   8.500
 3801SOL     OW13299   7.820   9.577  12.015
 3801SOL    HW113300   7.907   9.584  12.054
 3801SOL    HW213301   7.822   9.492  11.969
 3802SOL     OW13302  12.351   4.449  13.693
 3802SOL    HW113303  12.341   4.514  13.624
 3802SOL    HW213304  12.425   4.479  13.745
 3803SOL     OW13305  14.422   8.696   3.714
 3803SOL    HW113306  14.481   8.640   3.663
 3803SOL    HW213307  14.474   8.774   3.733
 3804SOL     OW13308   2.543  14.812  10.029
 3804SOL    HW113309   2.586  14.835   9.947
 3804SOL    HW213310   2.462  14.767  10.001
 3805SOL     OW13311   3.487  13.303  13.415
 3805SOL    HW113312   3.515  13.379  13.364
 3805SOL    HW213313   3.451  13.340  13.496
 3806SOL     OW13314   8.338  14.358   9.554
 3806SOL    HW113315   8.379  14.383   9.471
 3806SOL    HW213316   8.248  14.338   9.531
 3807SOL     OW13317  14.660   1.237   9.718
 3807SOL    HW113318  14.628   1.160   9.671
 3807SOL    HW213319  14.714   1.283   9.654
 3808SOL     OW13320  12.360   5.866   2.975
 3808SOL    HW113321  12.342   5.958   2.993
 3808SOL    HW213322  12.274   5.828   2.959
 3809SOL     OW13323  12.100   0.453  11.849
 3809SOL    HW113324  12.154   0.502  11.911
 3809SOL    HW213325  12.010   0.472  11.875
 3810SOL     OW13326   9.071   7.600   6.444
 3810SOL    HW113327   9.100   7.533   6.382
 3810SOL    HW213328   9.098   7.683   6.404
 3811SOL     OW13329   6.793  11.969  11.958
 3811SOL    HW113330   6.832  12.051  11.988
 3811SOL    HW213331   6.853  11.901  11.988
 3812SOL     OW13332   1.685  13.246   1.898
 3812SOL    HW113333   1.774  13.266   1.927
 3812SOL    HW213334   1.697  13.192   1.819
 3813SOL     OW13335   4.406  11.754   8.409
 3813SOL    HW113336   4.388  11.848   8.416
 3813SOL    HW213337   4.473  11.737   8.474
 3814SOL     OW13338   5.643  14.553   2.896
 3814SOL    HW113339   5.588  14.581   2.970
 3814SOL    HW213340   5.590  14.572   2.819
 3815SOL     OW13341  11.395   1.534   0.826
 3815SOL    HW113342  11.449   1.537   0.904
 3815SOL    HW213343  11.342   1.614   0.830
 3816SOL     OW13344   2.916   7.358  11.788
 3816SOL    HW113345   2.946   7.363  11.879
 3816SOL    HW213346   2.849   7.426  11.782
 3817SOL     OW13347   9.858   8.484  11.639
 3817SOL    HW113348   9.841   8.424  11.566
 3817SOL    HW213349   9.952   8.502  11.634
 3818SOL     OW13350   4.085  12.271   1.133
 3818SOL    HW113351   3.992  12.247   1.133
 3818SOL    HW213352   4.097  12.320   1.052
 3819SOL     OW13353   2.230   7.887   7.571
 3819SOL    HW113354   2.206   7.950   7.504
 3819SOL    HW213355   2.321   7.863   7.550
 3820SOL     OW13356  13.576  11.014   8.313
 3820SOL    HW113357  13.611  10.974   8.234
 3820SOL    HW213358  13.636  10.989   8.382
 3821SOL     OW13359   0.949  14.403  10.832
 3821SOL    HW113360   0.976  14.407  10.740
 3821SOL    HW213361   0.870  14.456  10.836
 3822SOL     OW13362   0.325  13.186   3.335
 3822SOL    HW113363   0.316  13.187   3.430
 3822SOL    HW213364   0.275  13.262   3.305
 3823SOL     OW13365  11.355   2.659   9.356
 3823SOL    HW113366  11.393   2.637   9.441
 3823SOL    HW213367  11.284   2.595   9.343
 3824SOL     OW13368   3.336  12.278   4.132
 3824SOL    HW113369   3.261  12.220   4.130
 3824SOL    HW213370   3.323  12.333   4.209
 3825SOL     OW13371   1.119   3.819   2.569
 3825SOL    HW113372   1.157   3.898   2.608
 3825SOL    HW213373   1.183   3.750   2.586
 3826SOL     OW13374   9.815   4.039   6.300
 3826SOL    HW113375   9.895   4.086   6.277
 3826SOL    HW213376   9.781   4.008   6.216
 3827SOL     OW13377   1.447   3.092   8.939
 3827SOL    HW113378   1.412   3.105   9.027
 3827SOL    HW213379   1.515   3.158   8.929
 3828SOL     OW13380  11.576   1.954   5.398
 3828SOL    HW113381  11.522   1.971   5.475
 3828SOL    HW213382  11.555   2.026   5.338
 3829SOL     OW13383   6.427  12.973   0.803
 3829SOL    HW113384   6.474  12.935   0.876
 3829SOL    HW213385   6.362  13.031   0.843
 3830SOL     OW13386   1.785   3.481  13.887
 3830SOL    HW113387   1.713   3.475  13.950
 3830SOL    HW213388   1.742   3.481  13.801
 3831SOL     OW13389   3.869   1.328  12.628
 3831SOL    HW113390   3.775   1.311  12.620
 3831SOL    HW213391   3.880   1.418  12.597
 3832SOL     OW13392   5.431   9.920   9.501
 3832SOL    HW113393   5.371   9.985   9.537
 3832SOL    HW213394   5.377   9.843   9.484
 3833SOL     OW13395  12.405   5.720   4.650
 3833SOL    HW113396  12.479   5.726   4.711
 3833SOL    HW213397  12.330   5.698   4.706
 3834SOL     OW13398   0.481   9.291   1.381
 3834SOL    HW113399   0.500   9.254   1.295
 3834SOL    HW213400   0.506   9.223   1.444
 3835SOL     OW13401  10.499   5.015   8.291
 3835SOL    HW113402  10.594   5.003   8.293
 3835SOL    HW213403  10.478   5.024   8.198
 3836SOL     OW13404  10.941   9.174   0.401
 3836SOL    HW113405  10.917   9.089   0.438
 3836SOL    HW213406  10.897   9.176   0.316
 3837SOL     OW13407  14.769  11.243  13.761
 3837SOL    HW113408  14.803  11.165  13.806
 3837SOL    HW213409  14.811  11.241  13.675
 3838SOL     OW13410  14.500   7.502   2.836
 3838SOL    HW113411  14.424   7.484   2.780
 3838SOL    HW213412  14.493   7.596   2.856
 3839SOL     OW13413   1.817  10.823   9.130
 3839SOL    HW113414   1.863  10.844   9.211
 3839SOL    HW213415   1.815  10.728   9.126
 3840SOL     OW13416  12.710   9.391   7.585
 3840SOL    HW113417  12.747   9.310   7.550
 3840SOL    HW213418  12.626   9.364   7.622
 3841SOL     OW13419  12.879  12.783   6.130
 3841SOL    HW113420  12.946  12.850   6.117
 3841SOL    HW213421  12.925  12.700   6.115
 3842SOL     OW13422  12.661   9.340   4.853
 3842SOL    HW113423  12.600   9.357   4.782
 3842SOL    HW213424  12.606   9.310   4.925
 3843SOL     OW13425   0.988   2.329   0.014
 3843SOL    HW113426   1.080   2.306   0.003
 3843SOL    HW213427   0.942   2.282  14.826
 3844SOL     OW13428   9.387   7.636   8.360
 3844SOL    HW113429   9.414   7.549   8.387
 3844SOL    HW213430   9.369   7.628   8.266
 3845SOL     OW13431  13.846   1.024   6.212
 3845SOL    HW113432  13.869   0.933   6.190
 3845SOL    HW213433  13.928   1.063   6.240
 3846SOL     OW13434  13.481   8.214   4.595
 3846SOL    HW113435  13.436   8.170   4.668
 3846SOL    HW213436  13.499   8.144   4.532
 3847SOL     OW13437  14.349   0.588   7.051
 3847SOL    HW113438  14.437   0.626   7.040
 3847SOL    HW213439  14.300   0.620   6.976
 3848SOL     OW13440   6.963   3.720   1.993
 3848SOL    HW113441   7.033   3.764   2.042
 3848SOL    HW213442   6.924   3.789   1.939
 3849SOL     OW13443  10.936  13.760   9.441
 3849SOL    HW113444  10.927  13.667   9.459
 3849SOL    HW213445  10.883  13.804   9.508
 3850SOL     OW13446   3.612  12.520  10.304
 3850SOL    HW113447   3.537  12.462  10.314
 3850SOL    HW213448   3.647  12.530  10.393
 3851SOL     OW13449   8.001  11.201   2.691
 3851SOL    HW113450   7.995  11.295   2.704
 3851SOL    HW213451   8.027  11.191   2.599
 3852SOL     OW13452   9.994   1.384  11.160
 3852SOL    HW113453   9.999   1.289  11.170
 3852SOL    HW213454   9.906   1.400  11.128
 3853SOL     OW13455   8.672   4.239   7.721
 3853SOL    HW113456   8.751   4.277   7.761
 3853SOL    HW213457   8.628   4.314   7.680
 3854SOL     OW13458   6.515   7.553   0.191
 3854SOL    HW113459   6.457   7.485   0.223
 3854SOL    HW213460   6.512   7.621   0.258
 3855SOL     OW13461   9.595   6.386   7.605
 3855SOL    HW113462   9.506   6.383   7.638
 3855SOL    HW213463   9.621   6.294   7.597
 3856SOL     OW13464   1.719   6.650  10.828
 3856SOL    HW113465   1.799   6.632  10.877
 3856SOL    HW213466   1.678   6.565  10.815
 3857SOL     OW13467  14.317   8.428   0.058
 3857SOL    HW113468  14.316   8.446   0.152
 3857SOL    HW213469  14.302   8.514   0.018
 3858SOL     OW13470   7.455   4.369   2.448
 3858SOL    HW113471   7.394   4.355   2.521
 3858SOL    HW213472   7.423   4.310   2.379
 3859SOL     OW13473   9.337   7.365   7.475
 3859SOL    HW113474   9.346   7.403   7.562
 3859SOL    HW213475   9.428   7.354   7.445
 3860SOL     OW13476  13.036   4.129   3.487
 3860SOL    HW113477  12.981   4.118   3.564
 3860SOL    HW213478  13.068   4.041   3.468
 3861SOL     OW13479   0.316   9.319   5.812
 3861SOL    HW113480   0.298   9.235   5.854
 3861SOL    HW213481   0.382   9.360   5.868
 3862SOL     OW13482  11.927  11.809   2.441
 3862SOL    HW113483  11.941  11.820   2.347
 3862SOL    HW213484  11.952  11.718   2.458
 3863SOL     OW13485   3.311  11.555  11.194
 3863SOL    HW113486   3.360  11.484  11.234
 3863SOL    HW213487   3.323  11.629  11.253
 3864SOL     OW13488  13.989   6.425  10.014
 3864SOL    HW113489  13.958   6.438   9.924
 3864SOL    HW213490  13.991   6.330  10.025
 3865SOL     OW13491   8.277  14.516  11.188
 3865SOL    HW113492   8.320  14.435  11.163
 3865SOL    HW213493   8.345  14.568  11.232
 3866SOL     OW13494   2.666   9.434  13.779
 3866SOL    HW113495   2.737   9.490  13.809
 3866SOL    HW213496   2.656   9.456  13.686
 3867SOL     OW13497   2.279   0.716  13.898
 3867SOL    HW113498   2.231   0.691  13.818
 3867SOL    HW213499   2.215   0.767  13.948
 3868SOL     OW13500   3.132  11.332  13.888
 3868SOL    HW113501   3.175  11.376  13.962
 3868SOL    HW213502   3.091  11.403  13.838
 3869SOL     OW13503   7.532  10.384   3.144
 3869SOL    HW113504   7.562  10.401   3.233
 3869SOL    HW213505   7.528  10.470   3.103
 3870SOL     OW13506   9.590  10.648   4.915
 3870SOL    HW113507   9.660  10.695   4.961
 3870SOL    HW213508   9.630  10.565   4.890
 3871SOL     OW13509  12.573   5.012   6.242
 3871SOL    HW113510  12.535   5.004   6.155
 3871SOL    HW213511  12.502   4.986   6.301
 3872SOL     OW13512  13.640   4.101   3.678
 3872SOL    HW113513  13.642   4.194   3.701
 3872SOL    HW213514  13.732   4.074   3.682
 3873SOL     OW13515  14.044  14.291   8.893
 3873SOL    HW113516  14.115  14.355   8.898
 3873SOL    HW213517  14.038  14.255   8.981
 3874SOL     OW13518   0.882   0.587  14.610
 3874SOL    HW113519   0.912   0.669  14.570
 3874SOL    HW213520   0.810   0.613  14.667
 3875SOL     OW13521   0.886  11.576  11.160
 3875SOL    HW113522   0.831  11.587  11.238
 3875SOL    HW213523   0.871  11.486  11.132
 3876SOL     OW13524   9.792   4.832  10.796
 3876SOL    HW113525   9.826   4.743  10.802
 3876SOL    HW213526   9.760   4.851  10.885
 3877SOL     OW13527  10.461   8.944   4.969
 3877SOL    HW113528  10.414   8.872   5.011
 3877SOL    HW213529  10.536   8.902   4.926
 3878SOL     OW13530  10.828   8.416   7.052
 3878SOL    HW113531  10.760   8.419   7.120
 3878SOL    HW213532  10.791   8.363   6.983
 3879SOL     OW13533   9.937   6.097   2.524
 3879SOL    HW113534   9.909   6.134   2.440
 3879SOL    HW213535   9.866   6.038   2.549
 3880SOL     OW13536   2.661  14.170   7.382
 3880SOL    HW113537   2.671  14.101   7.448
 3880SOL    HW213538   2.624  14.244   7.430
 3881SOL     OW13539  14.769  10.579   7.634
 3881SOL    HW113540  14.823  10.525   7.577
 3881SOL    HW213541  14.829  10.613   7.701
 3882SOL     OW13542  11.424   4.359  13.067
 3882SOL    HW113543  11.469   4.404  13.139
 3882SOL    HW213544  11.494   4.313  13.020
 3883SOL     OW13545   0.043  10.953  12.075
 3883SOL    HW113546  14.851  10.897  12.047
 3883SOL    HW213547   0.100  10.895  12.125
 3884SOL     OW13548  14.090  13.643  10.282
 3884SOL    HW113549  14.143  13.564  10.278
 3884SOL    HW213550  14.152  13.713  10.304
 3885SOL     OW13551   3.120   6.609   8.594
 3885SOL    HW113552   3.036   6.641   8.564
 3885SOL    HW213553   3.103   6.519   8.622
 3886SOL     OW13554   9.693   8.630  10.535
 3886SOL    HW113555   9.702   8.696  10.604
 3886SOL    HW213556   9.674   8.549  10.582
 3887SOL     OW13557   5.532  14.603  11.198
 3887SOL    HW113558   5.605  14.570  11.250
 3887SOL    HW213559   5.567  14.612  11.110
 3888SOL     OW13560   3.819   6.258   7.074
 3888SOL    HW113561   3.882   6.311   7.123
 3888SOL    HW213562   3.738   6.309   7.077
 3889SOL     OW13563  12.831   8.499  10.855
 3889SOL    HW113564  12.883   8.493  10.775
 3889SOL    HW213565  12.890   8.538  10.920
 3890SOL     OW13566  11.289   3.551  12.517
 3890SOL    HW113567  11.349   3.566  12.444
 3890SOL    HW213568  11.218   3.500  12.479
 3891SOL     OW13569  14.587   4.194   3.856
 3891SOL    HW113570  14.674   4.155   3.864
 3891SOL    HW213571  14.547   4.181   3.942
 3892SOL     OW13572   6.794   2.997   5.134
 3892SOL    HW113573   6.790   3.015   5.040
 3892SOL    HW213574   6.885   3.013   5.159
 3893SOL     OW13575   9.483   8.250   7.237
 3893SOL    HW113576   9.564   8.226   7.194
 3893SOL    HW213577   9.466   8.178   7.298
 3894SOL     OW13578   2.516   3.129  13.661
 3894SOL    HW113579   2.558   3.051  13.698
 3894SOL    HW213580   2.430   3.098  13.632
 3895SOL     OW13581   2.765   9.191  12.172
 3895SOL    HW113582   2.841   9.187  12.230
 3895SOL    HW213583   2.753   9.285  12.156
 3896SOL     OW13584   9.699   6.784   5.764
 3896SOL    HW113585   9.615   6.803   5.806
 3896SOL    HW213586   9.726   6.699   5.799
 3897SOL     OW13587   5.576   3.869   9.880
 3897SOL    HW113588   5.550   3.947   9.831
 3897SOL    HW213589   5.663   3.848   9.848
 3898SOL     OW13590   7.353   1.274   3.281
 3898SOL    HW113591   7.385   1.349   3.332
 3898SOL    HW213592   7.429   1.216   3.273
 3899SOL     OW13593   1.726   6.059   7.736
 3899SOL    HW113594   1.688   5.991   7.680
 3899SOL    HW213595   1.707   6.030   7.825
 3900SOL     OW13596  12.913   8.360   7.583
 3900SOL    HW113597  12.971   8.289   7.555
 3900SOL    HW213598  12.867   8.386   7.504
 3901SOL     OW13599   2.043   3.560   2.666
 3901SOL    HW113600   2.105   3.630   2.650
 3901SOL    HW213601   2.050   3.502   2.590
 3902SOL     OW13602   3.418  13.574   0.814
 3902SOL    HW113603   3.412  13.497   0.759
 3902SOL    HW213604   3.492  13.555   0.873
 3903SOL     OW13605  13.091   7.131   3.876
 3903SOL    HW113606  13.107   7.037   3.889
 3903SOL    HW213607  13.011   7.148   3.925
 3904SOL     OW13608  12.843   7.028  10.778
 3904SOL    HW113609  12.833   7.113  10.737
 3904SOL    HW213610  12.800   6.967  10.719
 3905SOL     OW13611   3.273   0.744  13.909
 3905SOL    HW113612   3.349   0.737  13.851
 3905SOL    HW213613   3.272   0.837  13.935
 3906SOL     OW13614   3.749   7.359   3.595
 3906SOL    HW113615   3.789   7.310   3.523
 3906SOL    HW213616   3.726   7.292   3.660
 3907SOL     OW13617  12.028   7.221   9.964
 3907SOL    HW113618  12.088   7.273   9.910
 3907SOL    HW213619  11.955   7.281   9.982
 3908SOL     OW13620   9.627   1.452   7.825
 3908SOL    HW113621   9.569   1.527   7.818
 3908SOL    HW213622   9.675   1.468   7.907
 3909SOL     OW13623   2.071   2.999   6.658
 3909SOL    HW113624   2.046   3.040   6.741
 3909SOL    HW213625   2.039   2.909   6.664
 3910SOL     OW13626   4.368   2.274  12.585
 3910SOL    HW113627   4.397   2.238  12.669
 3910SOL    HW213628   4.284   2.231  12.569
 3911SOL     OW13629  11.239   1.868   4.987
 3911SOL    HW113630  11.324   1.877   4.944
 3911SOL    HW213631  11.259   1.833   5.074
 3912SOL     OW13632   6.349   2.088  13.208
 3912SOL    HW113633   6.427   2.055  13.253
 3912SOL    HW213634   6.287   2.106  13.279
 3913SOL     OW13635  14.681   9.399   2.797
 3913SOL    HW113636  14.680   9.366   2.887
 3913SOL    HW213637  14.730   9.482   2.803
 3914SOL     OW13638   3.557   5.761   3.668
 3914SOL    HW113639   3.560   5.856   3.664
 3914SOL    HW213640   3.564   5.732   3.577
 3915SOL     OW13641   6.396   7.509   9.211
 3915SOL    HW113642   6.456   7.440   9.185
 3915SOL    HW213643   6.365   7.482   9.298
 3916SOL     OW13644   2.133   0.989   1.103
 3916SOL    HW113645   2.168   0.902   1.121
 3916SOL    HW213646   2.206   1.048   1.119
 3917SOL     OW13647   2.315   7.674   8.424
 3917SOL    HW113648   2.220   7.668   8.435
 3917SOL    HW213649   2.344   7.727   8.499
 3918SOL     OW13650   3.259   1.695  10.894
 3918SOL    HW113651   3.275   1.603  10.877
 3918SOL    HW213652   3.242   1.699  10.989
 3919SOL     OW13653  11.339  13.230   5.576
 3919SOL    HW113654  11.434  13.228   5.585
 3919SOL    HW213655  11.308  13.276   5.654
 3920SOL     OW13656   9.969   8.344   6.896
 3920SOL    HW113657   9.935   8.428   6.928
 3920SOL    HW213658   9.908   8.279   6.930
 3921SOL     OW13659   6.755   9.263   1.242
 3921SOL    HW113660   6.767   9.217   1.325
 3921SOL    HW213661   6.694   9.208   1.193
 3922SOL     OW13662   3.768  14.527   7.036
 3922SOL    HW113663   3.850  14.543   7.083
 3922SOL    HW213664   3.716  14.606   7.051
 3923SOL     OW13665  10.757   3.121   8.211
 3923SOL    HW113666  10.730   3.208   8.240
 3923SOL    HW213667  10.675   3.073   8.200
 3924SOL     OW13668   6.377   2.913   7.634
 3924SOL    HW113669   6.344   3.002   7.646
 3924SOL    HW213670   6.340   2.884   7.551
 3925SOL     OW13671   0.491  11.960  11.677
 3925SOL    HW113672   0.508  11.982  11.585
 3925SOL    HW213673   0.571  11.984  11.723
 3926SOL     OW13674  14.146   8.175   0.245
 3926SOL    HW113675  14.219   8.171   0.308
 3926SOL    HW213676  14.155   8.095   0.193
 3927SOL     OW13677  14.740   8.306  12.022
 3927SOL    HW113678  14.676   8.243  11.990
 3927SOL    HW213679  14.822   8.280  11.982
 3928SOL     OW13680  11.523   4.896   2.396
 3928SOL    HW113681  11.565   4.967   2.445
 3928SOL    HW213682  11.515   4.825   2.460
 3929SOL     OW13683   3.128   0.559   8.015
 3929SOL    HW113684   3.222   0.546   8.026
 3929SOL    HW213685   3.092   0.471   8.004
 3930SOL     OW13686  13.939   3.495   9.134
 3930SOL    HW113687  13.882   3.418   9.140
 3930SOL    HW213688  14.023   3.464   9.168
 3931SOL     OW13689   1.276   0.500   6.036
 3931SOL    HW113690   1.300   0.518   5.945
 3931SOL    HW213691   1.313   0.413   6.053
 3932SOL     OW13692   2.728  14.068  14.402
 3932SOL    HW113693   2.790  14.057  14.330
 3932SOL    HW213694   2.650  14.104  14.360
 3933SOL     OW13695  12.682   8.425   3.922
 3933SOL    HW113696  12.641   8.387   3.844
 3933SOL    HW213697  12.714   8.349   3.971
 3934SOL     OW13698  11.531   7.726  11.562
 3934SOL    HW113699  11.513   7.643  11.606
 3934SOL    HW213700  11.451   7.746  11.513
 3935SOL     OW13701   9.974   4.280  10.727
 3935SOL    HW113702  10.014   4.294  10.642
 3935SOL    HW213703   9.898   4.339  10.728
 3936SOL     OW13704   2.094  10.736   4.440
 3936SOL    HW113705   2.127  10.762   4.354
 3936SOL    HW213706   2.173  10.707   4.488
 3937SOL     OW13707  12.090   1.745  11.705
 3937SOL    HW113708  12.091   1.668  11.763
 3937SOL    HW213709  12.041   1.811  11.755
 3938SOL     OW13710   7.216  12.194   1.774
 3938SOL    HW113711   7.166  12.276   1.776
 3938SOL    HW213712   7.183  12.145   1.849
 3939SOL     OW13713  13.506   6.221   3.200
 3939SOL    HW113714  13.542   6.307   3.179
 3939SOL    HW213715  13.583   6.170   3.227
 3940SOL     OW13716   1.458   9.142  13.107
 3940SOL    HW113717   1.436   9.172  13.195
 3940SOL    HW213718   1.497   9.218  13.064
 3941SOL     OW13719   6.377   9.924   4.519
 3941SOL    HW113720   6.354   9.912   4.611
 3941SOL    HW213721   6.470   9.945   4.520
 3942SOL     OW13722   0.192   1.216   8.040
 3942SOL    HW113723   0.140   1.243   7.965
 3942SOL    HW213724   0.232   1.296   8.073
 3943SOL     OW13725   3.299  12.970   9.719
 3943SOL    HW113726   3.251  12.887   9.726
 3943SOL    HW213727   3.266  13.022   9.792
 3944SOL     OW13728  10.572   1.472  11.818
 3944SOL    HW113729  10.505   1.524  11.863
 3944SOL    HW213730  10.587   1.517  11.735
 3945SOL     OW13731  11.078   8.418  11.678
 3945SOL    HW113732  11.001   8.413  11.622
 3945SOL    HW213733  11.144   8.365  11.632
 3946SOL     OW13734  12.648  13.639   9.633
 3946SOL    HW113735  12.661  13.584   9.711
 3946SOL    HW213736  12.730  13.630   9.584
 3947SOL     OW13737   8.547   9.155   5.499
 3947SOL    HW113738   8.555   9.232   5.443
 3947SOL    HW213739   8.519   9.190   5.584
 3948SOL     OW13740   4.092  14.272   9.282
 3948SOL    HW113741   4.020  14.334   9.280
 3948SOL    HW213742   4.053  14.188   9.257
 3949SOL     OW13743   2.985   5.084   1.700
 3949SOL    HW113744   2.955   5.049   1.617
 3949SOL    HW213745   3.080   5.082   1.695
 3950SOL     OW13746  10.436  13.482   6.560
 3950SOL    HW113747  10.407  13.440   6.480
 3950SOL    HW213748  10.422  13.417   6.628
 3951SOL     OW13749   3.508   9.609   6.397
 3951SOL    HW113750   3.473   9.617   6.308
 3951SOL    HW213751   3.597   9.576   6.385
 3952SOL     OW13752   3.081  10.157   4.034
 3952SOL    HW113753   3.045  10.239   3.998
 3952SOL    HW213754   3.014  10.092   4.015
 3953SOL     OW13755  12.812   9.843  13.993
 3953SOL    HW113756  12.872   9.851  13.919
 3953SOL    HW213757  12.731   9.884  13.963
 3954SOL     OW13758   3.799   8.299  12.205
 3954SOL    HW113759   3.772   8.361  12.138
 3954SOL    HW213760   3.810   8.216  12.158
 3955SOL     OW13761   8.422  10.940   3.131
 3955SOL    HW113762   8.442  10.942   3.225
 3955SOL    HW213763   8.481  11.005   3.093
 3956SOL     OW13764   2.419   1.337  10.874
 3956SOL    HW113765   2.401   1.368  10.785
 3956SOL    HW213766   2.358   1.388  10.929
 3957SOL     OW13767  10.637   0.655  14.504
 3957SOL    HW113768  10.655   0.748  14.517
 3957SOL    HW213769  10.544   0.646  14.525
 3958SOL     OW13770   0.394   4.591  14.232
 3958SOL    HW113771   0.466   4.610  14.173
 3958SOL    HW213772   0.325   4.556  14.176
 3959SOL     OW13773   3.390   0.223  13.293
 3959SOL    HW113774   3.435   0.298  13.331
 3959SOL    HW213775   3.389   0.158  13.363
 3960SOL     OW13776  12.241  10.852   7.404
 3960SOL    HW113777  12.200  10.903   7.474
 3960SOL    HW213778  12.182  10.861   7.330
 3961SOL     OW13779   2.576   2.898  13.234
 3961SOL    HW113780   2.543   2.987  13.245
 3961SOL    HW213781   2.621   2.878  13.316
 3962SOL     OW13782   6.333   8.890   2.110
 3962SOL    HW113783   6.421   8.873   2.077
 3962SOL    HW213784   6.278   8.823   2.069
 3963SOL     OW13785   3.803   8.315   1.283
 3963SOL    HW113786   3.786   8.384   1.347
 3963SOL    HW213787   3.815   8.236   1.335
 3964SOL     OW13788   9.385   3.402   2.773
 3964SOL    HW113789   9.343   3.388   2.688
 3964SOL    HW213790   9.451   3.469   2.756
 3965SOL     OW13791   2.787   1.764   4.979
 3965SOL    HW113792   2.772   1.734   5.068
 3965SOL    HW213793   2.713   1.728   4.929
 3966SOL     OW13794   0.455  14.375  11.911
 3966SOL    HW113795   0.518  14.330  11.967
 3966SOL    HW213796   0.384  14.399  11.970
 3967SOL     OW13797   4.741  12.868  14.721
 3967SOL    HW113798   4.816  12.891  14.776
 3967SOL    HW213799   4.750  12.773  14.707
 3968SOL     OW13800   8.789   4.876  12.091
 3968SOL    HW113801   8.731   4.850  12.163
 3968SOL    HW213802   8.854   4.806  12.087
 3969SOL     OW13803  13.236  11.221   7.007
 3969SOL    HW113804  13.283  11.208   6.925
 3969SOL    HW213805  13.158  11.271   6.984
 3970SOL     OW13806   0.707   5.722   4.624
 3970SOL    HW113807   0.777   5.748   4.563
 3970SOL    HW213808   0.752   5.707   4.707
 3971SOL     OW13809   0.770   7.778   6.529
 3971SOL    HW113810   0.824   7.736   6.463
 3971SOL    HW213811   0.760   7.868   6.498
 3972SOL     OW13812   1.634  13.914  10.606
 3972SOL    HW113813   1.624  13.822  10.579
 3972SOL    HW213814   1.659  13.910  10.698
 3973SOL     OW13815  11.190  14.543  14.629
 3973SOL    HW113816  11.226  14.631  14.626
 3973SOL    HW213817  11.191  14.519  14.722
 3974SOL     OW13818  11.791   4.050   7.949
 3974SOL    HW113819  11.832   4.023   7.867
 3974SOL    HW213820  11.722   4.111   7.921
 3975SOL     OW13821   6.502  10.697   5.352
 3975SOL    HW113822   6.526  10.739   5.269
 3975SOL    HW213823   6.585  10.682   5.396
 3976SOL     OW13824  13.572  11.073   8.840
 3976SOL    HW113825  13.643  11.035   8.893
 3976SOL    HW213826  13.576  11.167   8.858
 3977SOL     OW13827   3.554  14.347   0.733
 3977SOL    HW113828   3.643  14.382   0.730
 3977SOL    HW213829   3.527  14.343   0.641
 3978SOL     OW13830   9.920   5.541  14.354
 3978SOL    HW113831  10.003   5.501  14.382
 3978SOL    HW213832   9.928   5.549  14.259
 3979SOL     OW13833   8.980  13.069  13.480
 3979SOL    HW113834   9.056  13.093  13.534
 3979SOL    HW213835   8.909  13.125  13.513
 3980SOL     OW13836   4.144   1.687  10.743
 3980SOL    HW113837   4.107   1.775  10.745
 3980SOL    HW213838   4.072   1.631  10.716
 3981SOL     OW13839  13.663   0.155  13.351
 3981SOL    HW113840  13.732   0.212  13.316
 3981SOL    HW213841  13.664   0.079  13.292
 3982SOL     OW13842   9.067  10.124  11.431
 3982SOL    HW113843   8.976  10.139  11.460
 3982SOL    HW213844   9.064  10.140  11.337
 3983SOL     OW13845   8.287  14.461  10.485
 3983SOL    HW113846   8.370  14.501  10.461
 3983SOL    HW213847   8.225  14.534  10.486
 3984SOL     OW13848   2.949  11.875   6.611
 3984SOL    HW113849   2.904  11.878   6.526
 3984SOL    HW213850   3.033  11.917   6.596
 3985SOL     OW13851  13.830  13.049   5.495
 3985SOL    HW113852  13.757  13.089   5.447
 3985SOL    HW213853  13.894  13.028   5.428
 3986SOL     OW13854   3.513   0.762  10.506
 3986SOL    HW113855   3.562   0.773  10.425
 3986SOL    HW213856   3.433   0.716  10.480
 3987SOL     OW13857  13.016   2.535   2.281
 3987SOL    HW113858  13.061   2.578   2.353
 3987SOL    HW213859  13.085   2.521   2.215
 3988SOL     OW13860   2.280   1.925  12.635
 3988SOL    HW113861   2.242   1.946  12.550
 3988SOL    HW213862   2.279   1.830  12.639
 3989SOL     OW13863  10.026   8.263   6.431
 3989SOL    HW113864  10.086   8.217   6.372
 3989SOL    HW213865  10.013   8.202   6.504
 3990SOL     OW13866  10.178   8.347   6.736
 3990SOL    HW113867  10.189   8.256   6.706
 3990SOL    HW213868  10.119   8.340   6.811
 3991SOL     OW13869  14.137   6.670  11.579
 3991SOL    HW113870  14.053   6.655  11.536
 3991SOL    HW213871  14.119   6.737  11.645
 3992SOL     OW13872  12.573   7.468  13.784
 3992SOL    HW113873  12.613   7.508  13.861
 3992SOL    HW213874  12.632   7.490  13.712
 3993SOL     OW13875   4.303   8.745  14.739
 3993SOL    HW113876   4.326   8.655  14.715
 3993SOL    HW213877   4.348   8.759  14.822
 3994SOL     OW13878   5.599   8.345   9.241
 3994SOL    HW113879   5.533   8.298   9.290
 3994SOL    HW213880   5.620   8.288   9.167
 3995SOL     OW13881   7.782   9.565   2.982
 3995SOL    HW113882   7.826   9.479   2.989
 3995SOL    HW213883   7.693   9.548   3.012
 3996SOL     OW13884   4.268  14.876   8.234
 3996SOL    HW113885   4.277   0.062   8.302
 3996SOL    HW213886   4.251  14.795   8.281
 3997SOL     OW13887   1.489   0.256   6.955
 3997SOL    HW113888   1.532   0.176   6.984
 3997SOL    HW213889   1.408   0.226   6.913
 3998SOL     OW13890   2.312   5.599   0.373
 3998SOL    HW113891   2.368   5.620   0.299
 3998SOL    HW213892   2.331   5.667   0.438
 3999SOL     OW13893   5.051   2.824   5.539
 3999SOL    HW113894   4.975   2.872   5.506
 3999SOL    HW213895   5.058   2.849   5.630
 4000SOL     OW13896   6.791   0.468  14.036
 4000SOL    HW113897   6.703   0.483  14.072
 4000SOL    HW213898   6.808   0.376  14.053
 4001SOL     OW13899  10.558  14.032   6.683
 4001SOL    HW113900  10.652  14.051   6.689
 4001SOL    HW213901  10.517  14.119   6.686
 4002SOL     OW13902  13.128   4.479   9.835
 4002SOL    HW113903  13.199   4.468   9.898
 4002SOL    HW213904  13.154   4.426   9.760
 4003SOL     OW13905  11.828   8.806   2.287
 4003SOL    HW113906  11.801   8.771   2.203
 4003SOL    HW213907  11.750   8.802   2.342
 4004SOL     OW13908   6.372   4.912   1.567
 4004SOL    HW113909   6.451   4.965   1.571
 4004SOL    HW213910   6.400   4.829   1.528
 4005SOL     OW13911  10.726  11.833   0.976
 4005SOL    HW113912  10.774  11.751   0.968
 4005SOL    HW213913  10.793  11.901   0.972
 4006SOL     OW13914  10.568   4.479   3.825
 4006SOL    HW113915  10.650   4.430   3.834
 4006SOL    HW213916  10.553   4.517   3.912
 4007SOL     OW13917  13.255   2.938   4.369
 4007SOL    HW113918  13.335   2.940   4.317
 4007SOL    HW213919  13.281   2.896   4.451
 4008SOL     OW13920   1.600  14.780  10.859
 4008SOL    HW113921   1.600  14.759  10.765
 4008SOL    HW213922   1.638  14.868  10.863
 4009SOL     OW13923   8.296   6.591   4.441
 4009SOL    HW113924   8.341   6.513   4.409
 4009SOL    HW213925   8.290   6.579   4.536
 4010SOL     OW13926   9.910   4.788   4.424
 4010SOL    HW113927   9.937   4.701   4.453
 4010SOL    HW213928   9.844   4.815   4.488
 4011SOL     OW13929   2.459  14.097   6.370
 4011SOL    HW113930   2.377  14.126   6.331
 4011SOL    HW213931   2.491  14.173   6.418
 4012SOL     OW13932   1.986  12.088   7.290
 4012SOL    HW113933   1.948  12.173   7.313
 4012SOL    HW213934   1.949  12.027   7.354
 4013SOL     OW13935   2.777  12.389   8.493
 4013SOL    HW113936   2.785  12.481   8.468
 4013SOL    HW213937   2.693  12.384   8.539
 4014SOL     OW13938   4.807  12.265  11.802
 4014SOL    HW113939   4.790  12.352  11.764
 4014SOL    HW213940   4.774  12.272  11.892
 4015SOL     OW13941  10.097   7.052  11.703
 4015SOL    HW113942  10.020   7.039  11.647
 4015SOL    HW213943  10.070   7.119  11.766
 4016SOL     OW13944   2.462  12.332   5.023
 4016SOL    HW113945   2.509  12.398   5.074
 4016SOL    HW213946   2.528  12.296   4.964
 4017SOL     OW13947   9.960  11.430  14.232
 4017SOL    HW113948   9.918  11.431  14.318
 4017SOL    HW213949   9.894  11.393  14.174
 4018SOL     OW13950   8.300   7.337  14.357
 4018SOL    HW113951   8.316   7.360  14.265
 4018SOL    HW213952   8.381   7.360  14.402
 4019SOL     OW13953   2.107   1.789   6.949
 4019SOL    HW113954   2.147   1.845   6.883
 4019SOL    HW213955   2.031   1.838   6.979
 4020SOL     OW13956   8.483   7.703   6.851
 4020SOL    HW113957   8.553   7.660   6.900
 4020SOL    HW213958   8.524   7.731   6.769
 4021SOL     OW13959  13.635   0.550   7.394
 4021SOL    HW113960  13.642   0.455   7.387
 4021SOL    HW213961  13.681   0.571   7.475
 4022SOL     OW13962   0.940   8.184   2.355
 4022SOL    HW113963   0.857   8.150   2.389
 4022SOL    HW213964   0.957   8.132   2.276
 4023SOL     OW13965   9.556   2.909   0.025
 4023SOL    HW113966   9.486   2.914  14.841
 4023SOL    HW213967   9.565   2.815   0.045
 4024SOL     OW13968  14.681   2.047   3.950
 4024SOL    HW113969  14.760   2.058   3.897
 4024SOL    HW213970  14.618   2.004   3.892
 4025SOL     OW13971   4.650   4.527   7.314
 4025SOL    HW113972   4.591   4.595   7.345
 4025SOL    HW213973   4.642   4.457   7.379
 4026SOL     OW13974  13.575   3.703   8.959
 4026SOL    HW113975  13.586   3.750   8.876
 4026SOL    HW213976  13.562   3.612   8.933
 4027SOL     OW13977   2.231  12.432  12.763
 4027SOL    HW113978   2.185  12.355  12.729
 4027SOL    HW213979   2.201  12.440  12.853
 4028SOL     OW13980   8.337   1.775  13.297
 4028SOL    HW113981   8.318   1.804  13.208
 4028SOL    HW213982   8.373   1.687  13.286
 4029SOL     OW13983  12.918   6.148  12.585
 4029SOL    HW113984  12.978   6.104  12.646
 4029SOL    HW213985  12.881   6.221  12.636
 4030SOL     OW13986   8.199   5.811   8.757
 4030SOL    HW113987   8.131   5.867   8.720
 4030SOL    HW213988   8.151   5.736   8.793
 4031SOL     OW13989   2.523   5.132  13.113
 4031SOL    HW113990   2.481   5.067  13.056
 4031SOL    HW213991   2.609   5.095  13.132
 4032SOL     OW13992  12.352   7.963   4.184
 4032SOL    HW113993  12.439   7.945   4.221
 4032SOL    HW213994  12.348   8.058   4.178
 4033SOL     OW13995   9.508   2.475   1.926
 4033SOL    HW113996   9.540   2.560   1.896
 4033SOL    HW213997   9.574   2.412   1.896
 4034SOL     OW13998   3.935  13.676   5.214
 4034SOL    HW113999   3.850  13.653   5.253
 4034SOL    HW214000   3.949  13.609   5.147
 4035SOL     OW14001   6.481   8.820   7.297
 4035SOL    HW114002   6.443   8.908   7.304
 4035SOL    HW214003   6.572   8.836   7.273
 4036SOL     OW14004  10.387   1.925   1.728
 4036SOL    HW114005  10.302   1.885   1.714
 4036SOL    HW214006  10.450   1.859   1.699
 4037SOL     OW14007   6.937  13.649   0.004
 4037SOL    HW114008   6.890  13.670   0.085
 4037SOL    HW214009   7.001  13.719  14.874
 4038SOL     OW14010  13.344   5.354  14.211
 4038SOL    HW114011  13.295   5.282  14.249
 4038SOL    HW214012  13.377   5.320  14.128
 4039SOL     OW14013   8.047   7.272   3.777
 4039SOL    HW114014   8.043   7.361   3.812
 4039SOL    HW214015   8.141   7.257   3.762
 4040SOL     OW14016   2.607   6.752   8.870
 4040SOL    HW114017   2.678   6.708   8.824
 4040SOL    HW214018   2.644   6.773   8.956
 4041SOL     OW14019   0.140  12.430  12.234
 4041SOL    HW114020   0.101  12.500  12.181
 4041SOL    HW214021   0.071  12.404  12.294
 4042SOL     OW14022  11.476  13.885   2.732
 4042SOL    HW114023  11.479  13.835   2.650
 4042SOL    HW214024  11.384  13.884   2.757
 4043SOL     OW14025   6.047   9.509   3.670
 4043SOL    HW114026   6.111   9.580   3.681
 4043SOL    HW214027   6.077   9.440   3.729
 4044SOL     OW14028   9.494   9.381   7.865
 4044SOL    HW114029   9.460   9.292   7.877
 4044SOL    HW214030   9.475   9.401   7.774
 4045SOL     OW14031   7.443  11.650   8.151
 4045SOL    HW114032   7.500  11.645   8.074
 4045SOL    HW214033   7.357  11.620   8.120
 4046SOL     OW14034   1.645  12.360   4.800
 4046SOL    HW114035   1.702  12.283   4.805
 4046SOL    HW214036   1.637  12.390   4.890
 4047SOL     OW14037  11.736  14.008  13.810
 4047SOL    HW114038  11.791  13.955  13.868
 4047SOL    HW214039  11.667  14.042  13.868
 4048SOL     OW14040   1.952  11.320   3.998
 4048SOL    HW114041   1.978  11.404   4.033
 4048SOL    HW214042   2.033  11.269   3.993
 4049SOL     OW14043  14.371   1.486  11.132
 4049SOL    HW114044  14.286   1.530  11.127
 4049SOL    HW214045  14.351   1.393  11.134
 4050SOL     OW14046  13.316   8.626   9.430
 4050SOL    HW114047  13.221   8.628   9.438
 4050SOL    HW214048  13.341   8.717   9.414
 4051SOL     OW14049   9.050  10.993  13.148
 4051SOL    HW114050   9.062  11.018  13.057
 4051SOL    HW214051   8.956  10.991  13.161
 4052SOL     OW14052  10.304   4.362   9.868
 4052SOL    HW114053  10.238   4.295   9.851
 4052SOL    HW214054  10.340   4.384   9.782
 4053SOL     OW14055  11.016  13.077   3.878
 4053SOL    HW114056  10.925  13.106   3.876
 4053SOL    HW214057  11.064  13.154   3.909
 4054SOL     OW14058   3.746   3.576   5.466
 4054SOL    HW114059   3.655   3.606   5.465
 4054SOL    HW214060   3.779   3.603   5.552
 4055SOL     OW14061  10.813  10.572   6.472
 4055SOL    HW114062  10.815  10.477   6.487
 4055SOL    HW214063  10.843  10.583   6.382
 4056SOL     OW14064   0.692  12.859   0.853
 4056SOL    HW114065   0.739  12.777   0.837
 4056SOL    HW214066   0.611  12.832   0.897
 4057SOL     OW14067   6.246   7.665  10.738
 4057SOL    HW114068   6.296   7.700  10.665
 4057SOL    HW214069   6.170   7.624  10.698
 4058SOL     OW14070   9.101  12.292   7.948
 4058SOL    HW114071   9.118  12.314   7.857
 4058SOL    HW214072   9.140  12.364   7.998
 4059SOL     OW14073  14.731  10.076   0.887
 4059SOL    HW114074  14.637  10.060   0.872
 4059SOL    HW214075  14.739  10.171   0.885
 4060SOL     OW14076   6.472   3.716  13.563
 4060SOL    HW114077   6.532   3.785  13.537
 4060SOL    HW214078   6.396   3.763  13.598
 4061SOL     OW14079   6.867  11.446   8.168
 4061SOL    HW114080   6.800  11.466   8.104
 4061SOL    HW214081   6.834  11.482   8.250
 4062SOL     OW14082   6.602   3.972   0.736
 4062SOL    HW114083   6.541   3.900   0.747
 4062SOL    HW214084   6.632   3.992   0.825
 4063SOL     OW14085   8.679   2.002   5.311
 4063SOL    HW114086   8.672   2.031   5.220
 4063SOL    HW214087   8.589   2.006   5.343
 4064SOL     OW14088   4.780   0.030  10.101
 4064SOL    HW114089   4.866   0.064  10.128
 4064SOL    HW214090   4.774   0.052  10.008
 4065SOL     OW14091  13.178   0.866   6.829
 4065SOL    HW114092  13.257   0.814   6.844
 4065SOL    HW214093  13.207   0.939   6.774
 4066SOL     OW14094   7.897  14.313   0.020
 4066SOL    HW114095   7.858  14.300  14.814
 4066SOL    HW214096   7.822  14.321   0.079
 4067SOL     OW14097  10.697  10.363  13.297
 4067SOL    HW114098  10.737  10.425  13.235
 4067SOL    HW214099  10.660  10.419  13.365
 4068SOL     OW14100   6.175  11.246   9.947
 4068SOL    HW114101   6.156  11.285  10.032
 4068SOL    HW214102   6.095  11.197   9.925
 4069SOL     OW14103   0.222  10.578  13.002
 4069SOL    HW114104   0.179  10.608  12.922
 4069SOL    HW214105   0.253  10.489  12.980
 4070SOL     OW14106   8.740   0.623   2.258
 4070SOL    HW114107   8.654   0.650   2.291
 4070SOL    HW214108   8.796   0.623   2.336
 4071SOL     OW14109   8.838   4.249   8.552
 4071SOL    HW114110   8.873   4.183   8.612
 4071SOL    HW214111   8.877   4.227   8.467
 4072SOL     OW14112   8.812   2.851   6.905
 4072SOL    HW114113   8.841   2.867   6.995
 4072SOL    HW214114   8.851   2.768   6.881
 4073SOL     OW14115   3.943  13.410  10.265
 4073SOL    HW114116   3.910  13.489  10.308
 4073SOL    HW214117   4.038  13.421  10.265
 4074SOL     OW14118   1.224   7.561   1.197
 4074SOL    HW114119   1.206   7.526   1.284
 4074SOL    HW214120   1.299   7.510   1.166
 4075SOL     OW14121   7.745   3.107   7.840
 4075SOL    HW114122   7.722   3.200   7.840
 4075SOL    HW214123   7.770   3.089   7.749
 4076SOL     OW14124   5.617   9.508   5.769
 4076SOL    HW114125   5.640   9.523   5.678
 4076SOL    HW214126   5.548   9.572   5.787
 4077SOL     OW14127  10.427   2.084   8.386
 4077SOL    HW114128  10.399   2.109   8.475
 4077SOL    HW214129  10.407   2.160   8.332
 4078SOL     OW14130   3.067   0.277   2.988
 4078SOL    HW114131   3.040   0.336   3.059
 4078SOL    HW214132   3.130   0.218   3.028
 4079SOL     OW14133   8.886   1.094  12.796
 4079SOL    HW114134   8.866   1.185  12.776
 4079SOL    HW214135   8.930   1.061  12.718
 4080SOL     OW14136   7.456   7.508   0.327
 4080SOL    HW114137   7.396   7.524   0.401
 4080SOL    HW214138   7.540   7.542   0.357
 4081SOL     OW14139   2.785   1.389  11.250
 4081SOL    HW114140   2.774   1.466  11.306
 4081SOL    HW214141   2.839   1.420  11.177
 4082SOL     OW14142  10.049   7.941   1.787
 4082SOL    HW114143  10.137   7.922   1.755
 4082SOL    HW214144  10.060   7.957   1.881
 4083SOL     OW14145   2.726   0.550  14.570
 4083SOL    HW114146   2.694   0.632  14.532
 4083SOL    HW214147   2.813   0.571  14.604
 4084SOL     OW14148  14.064   9.803   7.979
 4084SOL    HW114149  14.124   9.863   7.935
 4084SOL    HW214150  14.115   9.723   7.992
 4085SOL     OW14151   4.638   9.594   9.739
 4085SOL    HW114152   4.546   9.569   9.742
 4085SOL    HW214153   4.676   9.539   9.670
 4086SOL     OW14154   2.443   2.213  10.034
 4086SOL    HW114155   2.511   2.189   9.971
 4086SOL    HW214156   2.442   2.309  10.032
 4087SOL     OW14157   5.769  14.188   4.458
 4087SOL    HW114158   5.799  14.279   4.457
 4087SOL    HW214159   5.674  14.195   4.457
 4088SOL     OW14160  12.738  10.347   0.391
 4088SOL    HW114161  12.651  10.310   0.410
 4088SOL    HW214162  12.731  10.378   0.301
 4089SOL     OW14163   5.828   9.910   3.275
 4089SOL    HW114164   5.843   9.979   3.211
 4089SOL    HW214165   5.793   9.837   3.224
 4090SOL     OW14166   2.382   4.815  13.844
 4090SOL    HW114167   2.441   4.885  13.873
 4090SOL    HW214168   2.341   4.851  13.764
 4091SOL     OW14169   5.866   9.539   7.760
 4091SOL    HW114170   5.855   9.456   7.715
 4091SOL    HW214171   5.810   9.532   7.837
 4092SOL     OW14172  11.408   2.075  10.969
 4092SOL    HW114173  11.390   2.133  11.043
 4092SOL    HW214174  11.488   2.109  10.930
 4093SOL     OW14175   4.652   5.325  14.075
 4093SOL    HW114176   4.591   5.327  14.148
 4093SOL    HW214177   4.710   5.251  14.095
 4094SOL     OW14178  12.612  14.547   2.252
 4094SOL    HW114179  12.626  14.626   2.200
 4094SOL    HW214180  12.573  14.579   2.334
 4095SOL     OW14181   3.456  12.917   4.515
 4095SOL    HW114182   3.464  12.943   4.423
 4095SOL    HW214183   3.508  12.982   4.563
 4096SOL     OW14184   9.198  11.320   5.519
 4096SOL    HW114185   9.133  11.343   5.585
 4096SOL    HW214186   9.162  11.352   5.437
 4097SOL     OW14187   2.947  14.539   2.301
 4097SOL    HW114188   2.868  14.585   2.327
 4097SOL    HW214189   2.920  14.447   2.291
 4098SOL     OW14190   3.617   0.839  12.463
 4098SOL    HW114191   3.553   0.859  12.394
 4098SOL    HW214192   3.700   0.871  12.429
 4099SOL     OW14193   6.940   3.561   0.049
 4099SOL    HW114194   7.020   3.513   0.067
 4099SOL    HW214195   6.870   3.509   0.090
 4100SOL     OW14196  12.502  10.774   6.010
 4100SOL    HW114197  12.485  10.819   5.927
 4100SOL    HW214198  12.426  10.718   6.022
 4101SOL     OW14199  13.058   8.015  10.662
 4101SOL    HW114200  13.016   8.037  10.579
 4101SOL    HW214201  13.062   8.097  10.710
 4102SOL     OW14202   9.338   5.287   9.939
 4102SOL    HW114203   9.349   5.229   9.863
 4102SOL    HW214204   9.244   5.295   9.951
 4103SOL     OW14205   6.867  14.174   2.695
 4103SOL    HW114206   6.853  14.089   2.737
 4103SOL    HW214207   6.791  14.226   2.721
 4104SOL     OW14208   1.699   4.346   6.830
 4104SOL    HW114209   1.609   4.361   6.802
 4104SOL    HW214210   1.723   4.263   6.789
 4105SOL     OW14211   6.911  13.536   2.461
 4105SOL    HW114212   6.889  13.524   2.369
 4105SOL    HW214213   6.833  13.509   2.509
 4106SOL     OW14214   0.525   2.407  10.977
 4106SOL    HW114215   0.588   2.342  10.946
 4106SOL    HW214216   0.447   2.392  10.924
 4107SOL     OW14217   9.912   8.471   6.298
 4107SOL    HW114218   9.850   8.499   6.366
 4107SOL    HW214219   9.956   8.395   6.335
 4108SOL     OW14220  10.970   1.734  10.548
 4108SOL    HW114221  10.956   1.651  10.501
 4108SOL    HW214222  11.052   1.722  10.594
 4109SOL     OW14223   6.237  14.756   1.631
 4109SOL    HW114224   6.298  14.729   1.562
 4109SOL    HW214225   6.289  14.813   1.688
 4110SOL     OW14226   8.037   0.412  12.719
 4110SOL    HW114227   7.964   0.465  12.687
 4110SOL    HW214228   8.007   0.379  12.804
 4111SOL     OW14229   8.139  12.423   7.280
 4111SOL    HW114230   8.118  12.365   7.207
 4111SOL    HW214231   8.161  12.507   7.239
 4112SOL     OW14232   1.078   7.944  14.809
 4112SOL    HW114233   1.076   7.956   0.024
 4112SOL    HW214234   1.103   8.030  14.775
 4113SOL     OW14235   5.391   6.923  11.265
 4113SOL    HW114236   5.423   6.869  11.337
 4113SOL    HW214237   5.302   6.947  11.290
 4114SOL     OW14238   8.443   9.198  12.960
 4114SOL    HW114239   8.529   9.158  12.971
 4114SOL    HW214240   8.398   9.180  13.042
 4115SOL     OW14241  13.732  11.914  13.880
 4115SOL    HW114242  13.817  11.882  13.850
 4115SOL    HW214243  13.686  11.836  13.911
 4116SOL     OW14244   2.619  14.259  13.702
 4116SOL    HW114245   2.568  14.335  13.731
 4116SOL    HW214246   2.710  14.281  13.724
 4117SOL     OW14247  14.178   2.159   9.787
 4117SOL    HW114248  14.253   2.102   9.803
 4117SOL    HW214249  14.108   2.100   9.760
 4118SOL     OW14250  12.223   4.182   9.026
 4118SOL    HW114251  12.196   4.090   9.020
 4118SOL    HW214252  12.247   4.194   9.118
 4119SOL     OW14253  11.000   6.808   8.853
 4119SOL    HW114254  10.946   6.730   8.840
 4119SOL    HW214255  10.954   6.857   8.922
 4120SOL     OW14256   4.690   9.579  13.068
 4120SOL    HW114257   4.752   9.582  13.141
 4120SOL    HW214258   4.630   9.508  13.090
 4121SOL     OW14259   9.741   1.243  12.137
 4121SOL    HW114260   9.806   1.271  12.202
 4121SOL    HW214261   9.688   1.321  12.120
 4122SOL     OW14262   7.385   9.036   9.502
 4122SOL    HW114263   7.294   9.035   9.472
 4122SOL    HW214264   7.416   9.124   9.481
 4123SOL     OW14265  12.358   6.687   6.708
 4123SOL    HW114266  12.416   6.616   6.738
 4123SOL    HW214267  12.381   6.762   6.763
 4124SOL     OW14268  12.050   2.949   1.503
 4124SOL    HW114269  11.981   3.008   1.475
 4124SOL    HW214270  12.048   2.877   1.440
 4125SOL     OW14271   2.084   5.779   5.706
 4125SOL    HW114272   2.088   5.872   5.726
 4125SOL    HW214273   2.124   5.737   5.782
 4126SOL     OW14274  13.194   2.537   2.088
 4126SOL    HW114275  13.146   2.579   2.018
 4126SOL    HW214276  13.286   2.550   2.065
 4127SOL     OW14277   7.829  12.032  10.184
 4127SOL    HW114278   7.909  12.084  10.172
 4127SOL    HW214279   7.847  11.979  10.262
 4128SOL     OW14280   8.709  14.758   2.004
 4128SOL    HW114281   8.772  14.789   2.069
 4128SOL    HW214282   8.747  14.782   1.920
 4129SOL     OW14283   7.684   9.331  11.334
 4129SOL    HW114284   7.679   9.247  11.289
 4129SOL    HW214285   7.766   9.328  11.382
 4130SOL     OW14286   2.564   1.720   9.724
 4130SOL    HW114287   2.509   1.719   9.802
 4130SOL    HW214288   2.638   1.776   9.747
 4131SOL     OW14289   8.496   6.456   6.873
 4131SOL    HW114290   8.406   6.464   6.904
 4131SOL    HW214291   8.529   6.377   6.916
 4132SOL     OW14292   7.588  13.008  13.454
 4132SOL    HW114293   7.625  13.091  13.424
 4132SOL    HW214294   7.498  13.008  13.421
 4133SOL     OW14295   8.745   2.920  10.605
 4133SOL    HW114296   8.812   2.953  10.665
 4133SOL    HW214297   8.791   2.857  10.550
 4134SOL     OW14298   6.995   7.351  14.822
 4134SOL    HW114299   6.928   7.412  14.854
 4134SOL    HW214300   6.996   7.363  14.727
 4135SOL     OW14301   7.345   5.109   5.317
 4135SOL    HW114302   7.351   5.199   5.348
 4135SOL    HW214303   7.307   5.061   5.391
 4136SOL     OW14304  10.373   0.709   1.828
 4136SOL    HW114305  10.340   0.739   1.912
 4136SOL    HW214306  10.396   0.789   1.781
 4137SOL     OW14307   1.998   1.081   7.820
 4137SOL    HW114308   1.949   1.069   7.738
 4137SOL    HW214309   1.930   1.098   7.886
 4138SOL     OW14310   9.298  12.289  14.704
 4138SOL    HW114311   9.269  12.202  14.674
 4138SOL    HW214312   9.388  12.275  14.732
 4139SOL     OW14313   4.558  12.348   5.378
 4139SOL    HW114314   4.498  12.320   5.310
 4139SOL    HW214315   4.562  12.274   5.439
 4140SOL     OW14316   8.819   7.976   9.348
 4140SOL    HW114317   8.799   8.069   9.337
 4140SOL    HW214318   8.760   7.947   9.417
 4141SOL     OW14319  13.379  13.145   3.009
 4141SOL    HW114320  13.358  13.182   2.923
 4141SOL    HW214321  13.400  13.053   2.992
 4142SOL     OW14322  12.567   8.746   9.099
 4142SOL    HW114323  12.654   8.758   9.061
 4142SOL    HW214324  12.507   8.757   9.024
 4143SOL     OW14325  13.061  13.133   3.918
 4143SOL    HW114326  13.092  13.094   3.836
 4143SOL    HW214327  13.018  13.214   3.891
 4144SOL     OW14328  14.692  10.363   7.010
 4144SOL    HW114329  14.662  10.390   7.097
 4144SOL    HW214330  14.615  10.323   6.969
 4145SOL     OW14331   4.567  11.304   5.642
 4145SOL    HW114332   4.499  11.342   5.585
 4145SOL    HW214333   4.605  11.234   5.591
 4146SOL     OW14334  14.417  12.140   8.241
 4146SOL    HW114335  14.428  12.179   8.328
 4146SOL    HW214336  14.376  12.055   8.258
 4147SOL     OW14337   1.122   3.253  12.053
 4147SOL    HW114338   1.113   3.265  12.148
 4147SOL    HW214339   1.125   3.158  12.042
 4148SOL     OW14340   2.311  10.214  13.519
 4148SOL    HW114341   2.222  10.178  13.526
 4148SOL    HW214342   2.368  10.142  13.543
 4149SOL     OW14343  11.607   0.498   7.896
 4149SOL    HW114344  11.570   0.450   7.822
 4149SOL    HW214345  11.555   0.469   7.972
 4150SOL     OW14346   3.403  10.836  14.856
 4150SOL    HW114347   3.397  10.912  14.798
 4150SOL    HW214348   3.490  10.842   0.014
 4151SOL     OW14349   2.401   5.672   2.694
 4151SOL    HW114350   2.326   5.684   2.636
 4151SOL    HW214351   2.450   5.754   2.687
 4152SOL     OW14352   7.799  11.153   2.865
 4152SOL    HW114353   7.798  11.218   2.935
 4152SOL    HW214354   7.876  11.175   2.812
 4153SOL     OW14355   8.312  10.764   1.366
 4153SOL    HW114356   8.264  10.682   1.375
 4153SOL    HW214357   8.404  10.738   1.374
 4154SOL     OW14358   8.311   9.630  11.385
 4154SOL    HW114359   8.276   9.690  11.319
 4154SOL    HW214360   8.269   9.657  11.467
 4155SOL     OW14361  13.500  14.742  14.645
 4155SOL    HW114362  13.551  14.823  14.640
 4155SOL    HW214363  13.435  14.759  14.713
 4156SOL     OW14364  11.209   1.598  11.148
 4156SOL    HW114365  11.264   1.540  11.202
 4156SOL    HW214366  11.258   1.681  11.146
 4157SOL     OW14367   9.982  13.059   2.275
 4157SOL    HW114368   9.894  13.077   2.243
 4157SOL    HW214369   9.989  12.964   2.273
 4158SOL     OW14370  12.544   9.602   7.411
 4158SOL    HW114371  12.635   9.615   7.441
 4158SOL    HW214372  12.537   9.508   7.398
 4159SOL     OW14373  10.245   9.618   3.251
 4159SOL    HW114374  10.161   9.580   3.274
 4159SOL    HW214375  10.293   9.626   3.334
 4160SOL     OW14376   0.158   6.381   0.835
 4160SOL    HW114377   0.183   6.447   0.900
 4160SOL    HW214378   0.166   6.298   0.882
 4161SOL     OW14379   8.916   9.723   5.490
 4161SOL    HW114380   8.840   9.726   5.548
 4161SOL    HW214381   8.931   9.630   5.474
 4162SOL     OW14382   0.786  12.496   6.533
 4162SOL    HW114383   0.874  12.497   6.571
 4162SOL    HW214384   0.761  12.403   6.532
 4163SOL     OW14385  13.108   4.310   0.752
 4163SOL    HW114386  13.022   4.307   0.710
 4163SOL    HW214387  13.091   4.341   0.841
 4164SOL     OW14388  14.506   4.978  10.905
 4164SOL    HW114389  14.515   5.038  10.979
 4164SOL    HW214390  14.434   5.014  10.853
 4165SOL     OW14391   1.199  12.027   8.369
 4165SOL    HW114392   1.128  12.092   8.372
 4165SOL    HW214393   1.264  12.066   8.311
 4166SOL     OW14394   0.524  13.972  13.016
 4166SOL    HW114395   0.576  14.006  13.089
 4166SOL    HW214396   0.445  13.937  13.056
 4167SOL     OW14397   4.816   6.274   5.310
 4167SOL    HW114398   4.889   6.288   5.369
 4167SOL    HW214399   4.740   6.309   5.356
 4168SOL     OW14400   8.153   0.297   3.685
 4168SOL    HW114401   8.187   0.262   3.767
 4168SOL    HW214402   8.070   0.251   3.672
 4169SOL     OW14403  13.091   1.267   2.888
 4169SOL    HW114404  13.171   1.214   2.881
 4169SOL    HW214405  13.042   1.227   2.960
 4170SOL     OW14406   0.973   9.765   4.073
 4170SOL    HW114407   0.878   9.772   4.071
 4170SOL    HW214408   0.999   9.814   4.151
 4171SOL     OW14409  11.697  14.677  12.473
 4171SOL    HW114410  11.670  14.764  12.445
 4171SOL    HW214411  11.679  14.676  12.568
 4172SOL     OW14412   1.212   3.317   7.924
 4172SOL    HW114413   1.231   3.226   7.945
 4172SOL    HW214414   1.296   3.352   7.894
 4173SOL     OW14415   0.238  11.519   2.766
 4173SOL    HW114416   0.272  11.512   2.855
 4173SOL    HW214417   0.220  11.429   2.739
 4174SOL     OW14418   8.980   7.675   8.795
 4174SOL    HW114419   9.008   7.586   8.777
 4174SOL    HW214420   8.941   7.706   8.713
 4175SOL     OW14421   7.285   6.287   9.353
 4175SOL    HW114422   7.281   6.383   9.358
 4175SOL    HW214423   7.199   6.262   9.317
 4176SOL     OW14424   4.741   8.739  11.421
 4176SOL    HW114425   4.766   8.779  11.337
 4176SOL    HW214426   4.760   8.807  11.486
 4177SOL     OW14427   8.210  11.784   5.161
 4177SOL    HW114428   8.256  11.867   5.172
 4177SOL    HW214429   8.280  11.720   5.144
 4178SOL     OW14430   6.831   9.934   5.758
 4178SOL    HW114431   6.777   9.856   5.774
 4178SOL    HW214432   6.784  10.005   5.801
 4179SOL     OW14433   0.736   6.605   1.704
 4179SOL    HW114434   0.736   6.695   1.736
 4179SOL    HW214435   0.702   6.611   1.615
 4180SOL     OW14436   6.278   4.567   7.203
 4180SOL    HW114437   6.290   4.518   7.122
 4180SOL    HW214438   6.184   4.564   7.219
 4181SOL     OW14439   0.303   4.554   3.821
 4181SOL    HW114440   0.306   4.462   3.848
 4181SOL    HW214441   0.249   4.596   3.888
 4182SOL     OW14442   5.421  14.740   0.704
 4182SOL    HW114443   5.495  14.752   0.764
 4182SOL    HW214444   5.378  14.826   0.701
 4183SOL     OW14445  11.822   0.376  11.827
 4183SOL    HW114446  11.862   0.335  11.750
 4183SOL    HW214447  11.729   0.383  11.804
 4184SOL     OW14448  13.696   2.093   9.372
 4184SOL    HW114449  13.778   2.045   9.383
 4184SOL    HW214450  13.709   2.174   9.421
 4185SOL     OW14451  10.709   6.312  14.754
 4185SOL    HW114452  10.635   6.252  14.765
 4185SOL    HW214453  10.777   6.276  14.810
 4186SOL     OW14454   3.773   1.263   5.047
 4186SOL    HW114455   3.744   1.338   5.099
 4186SOL    HW214456   3.693   1.228   5.007
 4187SOL     OW14457   3.079  12.133  10.431
 4187SOL    HW114458   3.119  12.140  10.518
 4187SOL    HW214459   3.097  12.044  10.403
 4188SOL     OW14460   3.235   6.978   4.038
 4188SOL    HW114461   3.168   6.913   4.020
 4188SOL    HW214462   3.221   7.004   4.129
 4189SOL     OW14463   3.771  13.405  13.598
 4189SOL    HW114464   3.807  13.341  13.536
 4189SOL    HW214465   3.838  13.412  13.666
 4190SOL     OW14466  12.717   4.853  14.086
 4190SOL    HW114467  12.704   4.823  13.996
 4190SOL    HW214468  12.657   4.928  14.095
 4191SOL     OW14469  12.769  10.133  14.342
 4191SOL    HW114470  12.692  10.164  14.295
 4191SOL    HW214471  12.770  10.039  14.327
 4192SOL     OW14472  11.996   2.468   9.982
 4192SOL    HW114473  11.958   2.390  10.022
 4192SOL    HW214474  12.037   2.514  10.056
 4193SOL     OW14475   6.311  12.471  10.112
 4193SOL    HW114476   6.321  12.548  10.168
 4193SOL    HW214477   6.242  12.420  10.154
 4194SOL     OW14478   6.352  14.147  11.357
 4194SOL    HW114479   6.403  14.199  11.294
 4194SOL    HW214480   6.394  14.061  11.356
 4195SOL     OW14481   3.077  13.250  11.336
 4195SOL    HW114482   3.020  13.188  11.291
 4195SOL    HW214483   3.020  13.292  11.401
 4196SOL     OW14484  11.492  10.217   2.597
 4196SOL    HW114485  11.447  10.165   2.663
 4196SOL    HW214486  11.472  10.175   2.514
 4197SOL     OW14487   3.892  10.500   6.911
 4197SOL    HW114488   3.978  10.524   6.945
 4197SOL    HW214489   3.896  10.524   6.818
 4198SOL     OW14490   7.015   7.814   0.114
 4198SOL    HW114491   6.979   7.781   0.031
 4198SOL    HW214492   6.940   7.847   0.162
 4199SOL     OW14493   2.777   6.544   3.742
 4199SOL    HW114494   2.707   6.522   3.681
 4199SOL    HW214495   2.858   6.526   3.694
 4200SOL     OW14496   5.718   0.917  12.493
 4200SOL    HW114497   5.739   0.981  12.561
 4200SOL    HW214498   5.791   0.924  12.431
 4201SOL     OW14499   6.829   7.187  14.296
 4201SOL    HW114500   6.778   7.264  14.272
 4201SOL    HW214501   6.824   7.183  14.392
 4202SOL     OW14502   5.147  11.421   9.246
 4202SOL    HW114503   5.196  11.375   9.314
 4202SOL    HW214504   5.134  11.509   9.281
 4203SOL     OW14505   7.885  10.259   7.544
 4203SOL    HW114506   7.810  10.276   7.487
 4203SOL    HW214507   7.846  10.236   7.629
 4204SOL     OW14508   1.160   7.827   3.859
 4204SOL    HW114509   1.218   7.766   3.904
 4204SOL    HW214510   1.078   7.779   3.849
 4205SOL     OW14511   4.722   7.389  12.024
 4205SOL    HW114512   4.715   7.468  11.971
 4205SOL    HW214513   4.773   7.415  12.101
 4206SOL     OW14514   0.053  14.777  11.251
 4206SOL    HW114515   0.005  14.817  11.179
 4206SOL    HW214516  14.877  14.788  11.327
 4207SOL     OW14517   8.763   4.075   1.394
 4207SOL    HW114518   8.776   4.026   1.474
 4207SOL    HW214519   8.683   4.125   1.408
 4208SOL     OW14520   8.788   7.948   0.429
 4208SOL    HW114521   8.784   7.884   0.358
 4208SOL    HW214522   8.832   7.902   0.501
 4209SOL     OW14523   2.123   8.057  13.114
 4209SOL    HW114524   2.112   7.984  13.053
 4209SOL    HW214525   2.037   8.067  13.155
 4210SOL     OW14526  14.878   8.207  11.592
 4210SOL    HW114527  14.832   8.279  11.548
 4210SOL    HW214528   0.011   8.141  11.524
 4211SOL     OW14529   0.126   6.956   0.911
 4211SOL    HW114530   0.090   6.869   0.892
 4211SOL    HW214531   0.177   6.978   0.834
 4212SOL     OW14532   5.244  13.707   1.886
 4212SOL    HW114533   5.187  13.652   1.940
 4212SOL    HW214534   5.252  13.659   1.803
 4213SOL     OW14535  10.137  11.390   8.521
 4213SOL    HW114536  10.052  11.355   8.548
 4213SOL    HW214537  10.146  11.361   8.430
 4214SOL     OW14538  11.032   6.344   6.133
 4214SOL    HW114539  11.064   6.358   6.044
 4214SOL    HW214540  10.976   6.420   6.150
 4215SOL     OW14541   6.701   3.026   7.937
 4215SOL    HW114542   6.797   3.025   7.938
 4215SOL    HW214543   6.678   3.030   7.844
 4216SOL     OW14544   3.339   4.439   9.906
 4216SOL    HW114545   3.352   4.373   9.838
 4216SOL    HW214546   3.342   4.390   9.988
 4217SOL     OW14547  14.710   6.479  12.386
 4217SOL    HW114548  14.749   6.392  12.379
 4217SOL    HW214549  14.650   6.472  12.460
 4218SOL     OW14550   0.427   8.349   0.938
 4218SOL    HW114551   0.494   8.410   0.906
 4218SOL    HW214552   0.392   8.391   1.017
 4219SOL     OW14553   4.351   8.074   3.389
 4219SOL    HW114554   4.348   7.999   3.447
 4219SOL    HW214555   4.445   8.092   3.378
 4220SOL     OW14556   9.457  12.960  14.690
 4220SOL    HW114557   9.448  12.870  14.720
 4220SOL    HW214558   9.549  12.968  14.663
 4221SOL     OW14559   1.716   1.617   5.563
 4221SOL    HW114560   1.796   1.570   5.586
 4221SOL    HW214561   1.743   1.709   5.554
 4222SOL     OW14562   9.904   8.879   8.638
 4222SOL    HW114563   9.939   8.948   8.581
 4222SOL    HW214564   9.974   8.861   8.700
 4223SOL     OW14565  13.952   0.101   0.071
 4223SOL    HW114566  13.911   0.058   0.146
 4223SOL    HW214567  14.045   0.105   0.094
 4224SOL     OW14568   4.247   0.401   1.918
 4224SOL    HW114569   4.288   0.405   1.831
 4224SOL    HW214570   4.179   0.335   1.909
 4225SOL     OW14571  12.556  12.659   8.006
 4225SOL    HW114572  12.496  12.715   7.957
 4225SOL    HW214573  12.540  12.571   7.971
 4226SOL     OW14574   6.132   0.675  14.736
 4226SOL    HW114575   6.195   0.744  14.713
 4226SOL    HW214576   6.051   0.703  14.695
 4227SOL     OW14577   2.183   8.070  10.273
 4227SOL    HW114578   2.187   8.067  10.368
 4227SOL    HW214579   2.094   8.098  10.254
 4228SOL     OW14580   3.983  14.732   2.542
 4228SOL    HW114581   4.004  14.671   2.472
 4228SOL    HW214582   4.010  14.687   2.622
 4229SOL     OW14583   1.674   4.682  11.533
 4229SOL    HW114584   1.636   4.657  11.617
 4229SOL    HW214585   1.769   4.677  11.547
 4230SOL     OW14586  10.743  13.550  12.815
 4230SOL    HW114587  10.692  13.588  12.887
 4230SOL    HW214588  10.757  13.459  12.841
 4231SOL     OW14589   4.167   1.778   6.525
 4231SOL    HW114590   4.111   1.703   6.503
 4231SOL    HW214591   4.159   1.837   6.450
 4232SOL     OW14592   2.388   0.290   0.995
 4232SOL    HW114593   2.299   0.323   1.000
 4232SOL    HW214594   2.418   0.290   1.086
 4233SOL     OW14595   5.221  11.896   6.996
 4233SOL    HW114596   5.253  11.828   7.055
 4233SOL    HW214597   5.239  11.863   6.909
 4234SOL     OW14598  10.609   8.478   4.593
 4234SOL    HW114599  10.609   8.450   4.685
 4234SOL    HW214600  10.582   8.570   4.596
 4235SOL     OW14601   0.722  13.043  14.766
 4235SOL    HW114602   0.678  12.965  14.733
 4235SOL    HW214603   0.729  13.029  14.860
 4236SOL     OW14604   1.591  12.380   0.102
 4236SOL    HW114605   1.556  12.316   0.165
 4236SOL    HW214606   1.671  12.338   0.069
 4237SOL     OW14607   1.393   1.120   6.859
 4237SOL    HW114608   1.407   1.066   6.781
 4237SOL    HW214609   1.388   1.210   6.826
 4238SOL     OW14610   5.381   8.574   2.826
 4238SOL    HW114611   5.433   8.590   2.748
 4238SOL    HW214612   5.345   8.486   2.813
 4239SOL     OW14613   2.401   6.817   4.412
 4239SOL    HW114614   2.450   6.759   4.353
 4239SOL    HW214615   2.361   6.882   4.354
 4240SOL     OW14616   7.117   1.881   3.436
 4240SOL    HW114617   7.072   1.965   3.442
 4240SOL    HW214618   7.074   1.826   3.501
 4241SOL     OW14619   5.243  10.740  12.706
 4241SOL    HW114620   5.220  10.674  12.772
 4241SOL    HW214621   5.338  10.750  12.715
 4242SOL     OW14622  10.155   4.653  10.564
 4242SOL    HW114623  10.102   4.632  10.487
 4242SOL    HW214624  10.232   4.595  10.556
 4243SOL     OW14625   8.390   0.329   1.065
 4243SOL    HW114626   8.437   0.309   1.146
 4243SOL    HW214627   8.325   0.259   1.057
 4244SOL     OW14628  11.051  14.278   0.785
 4244SOL    HW114629  11.110  14.323   0.846
 4244SOL    HW214630  11.066  14.322   0.701
 4245SOL     OW14631   5.452   2.790   4.040
 4245SOL    HW114632   5.357   2.785   4.028
 4245SOL    HW214633   5.474   2.710   4.088
 4246SOL     OW14634  10.255  11.041   0.067
 4246SOL    HW114635  10.315  11.005   0.002
 4246SOL    HW214636  10.281  11.133   0.075
 4247SOL     OW14637   8.958   4.626   4.971
 4247SOL    HW114638   8.982   4.593   4.885
 4247SOL    HW214639   8.873   4.668   4.959
 4248SOL     OW14640   3.393   5.917   8.479
 4248SOL    HW114641   3.477   5.872   8.467
 4248SOL    HW214642   3.418   6.009   8.492
 4249SOL     OW14643   3.234  11.000   1.579
 4249SOL    HW114644   3.260  11.038   1.662
 4249SOL    HW214645   3.281  10.916   1.575
 4250SOL     OW14646  11.198   8.344   8.125
 4250SOL    HW114647  11.214   8.348   8.219
 4250SOL    HW214648  11.111   8.304   8.117
 4251SOL     OW14649   4.902   8.125   8.457
 4251SOL    HW114650   4.876   8.051   8.511
 4251SOL    HW214651   4.834   8.131   8.390
 4252SOL     OW14652  11.855   4.581  12.179
 4252SOL    HW114653  11.764   4.564  12.154
 4252SOL    HW214654  11.891   4.629  12.104
 4253SOL     OW14655   1.658   9.395   8.253
 4253SOL    HW114656   1.648   9.333   8.325
 4253SOL    HW214657   1.569   9.420   8.230
 4254SOL     OW14658  14.764  11.141  13.480
 4254SOL    HW114659  14.757  11.045  13.472
 4254SOL    HW214660  14.845  11.163  13.434
 4255SOL     OW14661   3.450   0.063   5.012
 4255SOL    HW114662   3.471  14.874   4.949
 4255SOL    HW214663   3.493   0.141   4.976
 4256SOL     OW14664  10.919   8.344   0.463
 4256SOL    HW114665  10.989   8.286   0.492
 4256SOL    HW214666  10.894   8.310   0.377
 4257SOL     OW14667   0.275   5.623   7.356
 4257SOL    HW114668   0.331   5.546   7.350
 4257SOL    HW214669   0.314   5.686   7.295
 4258SOL     OW14670   4.131   9.598  11.287
 4258SOL    HW114671   4.219   9.636  11.282
 4258SOL    HW214672   4.133   9.542  11.364
 4259SOL     OW14673  11.046  10.478   0.395
 4259SOL    HW114674  11.117  10.415   0.383
 4259SOL    HW214675  11.085  10.563   0.375
 4260SOL     OW14676   5.989  10.934  10.023
 4260SOL    HW114677   6.076  10.911  10.056
 4260SOL    HW214678   5.928  10.892  10.084
 4261SOL     OW14679   5.289   8.394   5.986
 4261SOL    HW114680   5.342   8.352   5.918
 4261SOL    HW214681   5.247   8.321   6.032
 4262SOL     OW14682  14.649   3.730   2.395
 4262SOL    HW114683  14.608   3.790   2.457
 4262SOL    HW214684  14.627   3.764   2.309
 4263SOL     OW14685   7.663   8.750   2.381
 4263SOL    HW114686   7.723   8.692   2.428
 4263SOL    HW214687   7.714   8.783   2.307
 4264SOL     OW14688  12.711   4.337   3.778
 4264SOL    HW114689  12.664   4.260   3.812
 4264SOL    HW214690  12.647   4.383   3.725
 4265SOL     OW14691  13.161  10.969  10.501
 4265SOL    HW114692  13.088  10.920  10.466
 4265SOL    HW214693  13.217  10.986  10.424
 4266SOL     OW14694   9.008   8.033   1.179
 4266SOL    HW114695   9.039   8.071   1.261
 4266SOL    HW214696   8.918   8.066   1.169
 4267SOL     OW14697   4.074  11.680   3.832
 4267SOL    HW114698   4.134  11.640   3.895
 4267SOL    HW214699   3.998  11.706   3.885
 4268SOL     OW14700   2.091  11.382   7.342
 4268SOL    HW114701   2.184  11.360   7.338
 4268SOL    HW214702   2.046  11.298   7.346
 4269SOL     OW14703   6.902   0.065   6.549
 4269SOL    HW114704   6.843  14.869   6.554
 4269SOL    HW214705   6.936   0.061   6.460
 4270SOL     OW14706   5.675   1.673   7.574
 4270SOL    HW114707   5.683   1.610   7.646
 4270SOL    HW214708   5.700   1.623   7.496
 4271SOL     OW14709  10.252  12.057   5.107
 4271SOL    HW114710  10.185  12.028   5.169
 4271SOL    HW214711  10.311  11.982   5.097
 4272SOL     OW14712  14.318   7.219  13.693
 4272SOL    HW114713  14.408   7.219  13.726
 4272SOL    HW214714  14.266   7.251  13.766
 4273SOL     OW14715   6.681   2.486   3.613
 4273SOL    HW114716   6.655   2.564   3.564
 4273SOL    HW214717   6.604   2.429   3.610
 4274SOL     OW14718   4.177   1.407  12.643
 4274SOL    HW114719   4.124   1.345  12.594
 4274SOL    HW214720   4.137   1.410  12.730
 4275SOL     OW14721  10.692  13.340   5.234
 4275SOL    HW114722  10.749  13.394   5.179
 4275SOL    HW214723  10.751  13.278   5.276
 4276SOL     OW14724  10.431   1.284   4.080
 4276SOL    HW114725  10.470   1.198   4.097
 4276SOL    HW214726  10.469   1.311   3.997
 4277SOL     OW14727   2.611  11.058   6.729
 4277SOL    HW114728   2.704  11.039   6.718
 4277SOL    HW214729   2.597  11.138   6.679
 4278SOL     OW14730   3.645  13.454   7.728
 4278SOL    HW114731   3.616  13.363   7.731
 4278SOL    HW214732   3.741  13.448   7.729
 4279SOL     OW14733   8.898   8.435   1.679
 4279SOL    HW114734   8.966   8.474   1.624
 4279SOL    HW214735   8.817   8.479   1.653
 4280SOL     OW14736   5.314   9.990  11.899
 4280SOL    HW114737   5.234  10.020  11.943
 4280SOL    HW214738   5.372  10.067  11.900
 4281SOL     OW14739  10.179   5.491   2.685
 4281SOL    HW114740  10.124   5.569   2.688
 4281SOL    HW214741  10.203   5.482   2.593
 4282SOL     OW14742  14.474  14.587  12.026
 4282SOL    HW114743  14.438  14.654  12.084
 4282SOL    HW214744  14.500  14.516  12.085
 4283SOL     OW14745   8.570   0.852   4.650
 4283SOL    HW114746   8.617   0.781   4.606
 4283SOL    HW214747   8.567   0.922   4.584
 4284SOL     OW14748   6.804  11.341   3.679
 4284SOL    HW114749   6.726  11.286   3.670
 4284SOL    HW214750   6.873  11.293   3.633
 4285SOL     OW14751   7.814   9.294   9.139
 4285SOL    HW114752   7.850   9.241   9.210
 4285SOL    HW214753   7.877   9.284   9.067
 4286SOL     OW14754   0.452   6.981   3.853
 4286SOL    HW114755   0.411   6.913   3.907
 4286SOL    HW214756   0.380   7.013   3.798
 4287SOL     OW14757   4.567  14.525  11.254
 4287SOL    HW114758   4.539  14.438  11.226
 4287SOL    HW214759   4.648  14.541  11.207
 4288SOL     OW14760  12.488   0.376   8.246
 4288SOL    HW114761  12.460   0.467   8.235
 4288SOL    HW214762  12.435   0.326   8.185
 4289SOL     OW14763  13.047   2.070   8.077
 4289SOL    HW114764  13.101   2.026   8.143
 4289SOL    HW214765  13.012   1.999   8.023
 4290SOL     OW14766   0.379  14.641  12.259
 4290SOL    HW114767   0.425  14.711  12.213
 4290SOL    HW214768   0.443  14.569  12.263
 4291SOL     OW14769   2.386   3.987   9.069
 4291SOL    HW114770   2.421   4.075   9.052
 4291SOL    HW214771   2.460   3.929   9.058
 4292SOL     OW14772  14.347   1.904   9.780
 4292SOL    HW114773  14.292   1.846   9.833
 4292SOL    HW214774  14.374   1.851   9.706
 4293SOL     OW14775   2.579  11.162  11.333
 4293SOL    HW114776   2.590  11.163  11.428
 4293SOL    HW214777   2.567  11.254  11.310
 4294SOL     OW14778  12.945  13.168   6.941
 4294SOL    HW114779  12.911  13.093   6.991
 4294SOL    HW214780  13.019  13.132   6.892
 4295SOL     OW14781  13.768  12.916  12.935
 4295SOL    HW114782  13.681  12.929  12.898
 4295SOL    HW214783  13.752  12.898  13.028
 4296SOL     OW14784   6.503   7.194  14.397
 4296SOL    HW114785   6.417   7.215  14.361
 4296SOL    HW214786   6.551   7.278  14.396
 4297SOL     OW14787   2.944   7.836   9.550
 4297SOL    HW114788   2.982   7.850   9.463
 4297SOL    HW214789   2.951   7.921   9.593
 4298SOL     OW14790   4.858   2.396   2.948
 4298SOL    HW114791   4.953   2.384   2.949
 4298SOL    HW214792   4.829   2.366   3.034
 4299SOL     OW14793   1.882   4.450   9.116
 4299SOL    HW114794   1.926   4.504   9.180
 4299SOL    HW214795   1.796   4.432   9.154
 4300SOL     OW14796   2.422   2.337  11.292
 4300SOL    HW114797   2.465   2.289  11.363
 4300SOL    HW214798   2.329   2.320  11.305
 4301SOL     OW14799  10.555   4.464   9.211
 4301SOL    HW114800  10.476   4.419   9.240
 4301SOL    HW214801  10.524   4.547   9.175
 4302SOL     OW14802   0.369  14.202  12.148
 4302SOL    HW114803   0.401  14.237  12.232
 4302SOL    HW214804   0.285  14.247  12.134
 4303SOL     OW14805  14.020   6.047   9.008
 4303SOL    HW114806  13.994   6.093   9.087
 4303SOL    HW214807  13.944   5.994   8.984
 4304SOL     OW14808   8.616  12.614   0.322
 4304SOL    HW114809   8.623  12.519   0.333
 4304SOL    HW214810   8.705  12.641   0.299
 4305SOL     OW14811   3.798  13.496  13.875
 4305SOL    HW114812   3.797  13.547  13.957
 4305SOL    HW214813   3.753  13.552  13.812
 4306SOL     OW14814   5.532   7.636   5.864
 4306SOL    HW114815   5.543   7.719   5.911
 4306SOL    HW214816   5.551   7.657   5.773
 4307SOL     OW14817  13.661  10.413  13.093
 4307SOL    HW114818  13.605  10.465  13.152
 4307SOL    HW214819  13.599  10.364  13.039
 4308SOL     OW14820   6.660  14.431  13.337
 4308SOL    HW114821   6.567  14.418  13.319
 4308SOL    HW214822   6.680  14.374  13.411
 4309SOL     OW14823  14.010  13.239   6.989
 4309SOL    HW114824  14.016  13.186   6.909
 4309SOL    HW214825  14.070  13.313   6.973
 4310SOL     OW14826   1.547   8.488  11.719
 4310SOL    HW114827   1.590   8.573  11.719
 4310SOL    HW214828   1.463   8.503  11.762
 4311SOL     OW14829   2.996   6.386   5.064
 4311SOL    HW114830   3.074   6.349   5.106
 4311SOL    HW214831   2.979   6.467   5.113
 4312SOL     OW14832   1.928   1.269   4.768
 4312SOL    HW114833   1.898   1.245   4.680
 4312SOL    HW214834   1.959   1.359   4.759
 4313SOL     OW14835   2.985   3.889   3.961
 4313SOL    HW114836   2.934   3.968   3.978
 4313SOL    HW214837   3.069   3.905   4.005
 4314SOL     OW14838   3.906   7.711  12.628
 4314SOL    HW114839   3.952   7.676  12.704
 4314SOL    HW214840   3.937   7.802  12.621
 4315SOL     OW14841   3.380   8.083   1.066
 4315SOL    HW114842   3.367   8.150   1.133
 4315SOL    HW214843   3.422   8.129   0.994
 4316SOL     OW14844  13.667   2.167   3.031
 4316SOL    HW114845  13.713   2.223   3.093
 4316SOL    HW214846  13.595   2.221   2.998
 4317SOL     OW14847   9.661   9.661  14.562
 4317SOL    HW114848   9.620   9.714  14.630
 4317SOL    HW214849   9.651   9.712  14.482
 4318SOL     OW14850   7.744  13.200  12.315
 4318SOL    HW114851   7.829  13.191  12.271
 4318SOL    HW214852   7.720  13.111  12.340
 4319SOL     OW14853   8.281   3.921   3.261
 4319SOL    HW114854   8.308   3.848   3.316
 4319SOL    HW214855   8.311   3.999   3.308
 4320SOL     OW14856   6.510   0.146  11.241
 4320SOL    HW114857   6.445   0.206  11.204
 4320SOL    HW214858   6.460   0.092  11.302
 4321SOL     OW14859   4.088  14.569   7.511
 4321SOL    HW114860   4.128  14.592   7.427
 4321SOL    HW214861   4.163  14.546   7.567
 4322SOL     OW14862   9.390  14.710   5.577
 4322SOL    HW114863   9.418  14.761   5.501
 4322SOL    HW214864   9.396  14.619   5.547
 4323SOL     OW14865   6.103  11.042  11.837
 4323SOL    HW114866   6.103  11.132  11.806
 4323SOL    HW214867   6.065  10.991  11.765
 4324SOL     OW14868   9.282  13.381   5.995
 4324SOL    HW114869   9.326  13.466   6.004
 4324SOL    HW214870   9.243  13.365   6.081
 4325SOL     OW14871   3.186   3.794  12.400
 4325SOL    HW114872   3.152   3.770  12.486
 4325SOL    HW214873   3.166   3.888  12.391
 4326SOL     OW14874   0.819  11.748  10.630
 4326SOL    HW114875   0.744  11.759  10.688
 4326SOL    HW214876   0.874  11.825  10.645
 4327SOL     OW14877   2.659   4.773   8.848
 4327SOL    HW114878   2.722   4.701   8.851
 4327SOL    HW214879   2.671   4.812   8.761
 4328SOL     OW14880   1.559   8.445   3.270
 4328SOL    HW114881   1.535   8.378   3.205
 4328SOL    HW214882   1.644   8.416   3.303
 4329SOL     OW14883  14.324   1.804   4.267
 4329SOL    HW114884  14.324   1.734   4.332
 4329SOL    HW214885  14.350   1.761   4.185
 4330SOL     OW14886  11.873   9.151   2.528
 4330SOL    HW114887  11.964   9.121   2.527
 4330SOL    HW214888  11.832   9.102   2.599
 4331SOL     OW14889   2.714   4.801  12.076
 4331SOL    HW114890   2.634   4.848  12.101
 4331SOL    HW214891   2.732   4.830  11.986
 4332SOL     OW14892  14.176   7.856   2.950
 4332SOL    HW114893  14.116   7.920   2.989
 4332SOL    HW214894  14.119   7.783   2.926
 4333SOL     OW14895   9.155   4.993  12.657
 4333SOL    HW114896   9.106   5.039  12.588
 4333SOL    HW214897   9.101   5.002  12.735
 4334SOL     OW14898  13.518   2.916   9.636
 4334SOL    HW114899  13.613   2.925   9.629
 4334SOL    HW214900  13.502   2.904   9.730
 4335SOL     OW14901   4.625   2.061   8.116
 4335SOL    HW114902   4.585   1.978   8.143
 4335SOL    HW214903   4.718   2.050   8.136
 4336SOL     OW14904  11.044  14.798   3.926
 4336SOL    HW114905  10.955  14.780   3.896
 4336SOL    HW214906  11.048   0.013   3.933
 4337SOL     OW14907   4.411   3.155   1.755
 4337SOL    HW114908   4.450   3.120   1.674
 4337SOL    HW214909   4.329   3.106   1.765
 4338SOL     OW14910  10.693   8.058  12.353
 4338SOL    HW114911  10.765   8.099  12.305
 4338SOL    HW214912  10.724   8.053  12.444
 4339SOL     OW14913   5.410  14.027   1.081
 4339SOL    HW114914   5.419  14.121   1.101
 4339SOL    HW214915   5.441  13.983   1.161
 4340SOL     OW14916  10.342  14.043  12.509
 4340SOL    HW114917  10.268  14.083  12.555
 4340SOL    HW214918  10.348  14.093  12.427
 4341SOL     OW14919   5.567   4.657  12.534
 4341SOL    HW114920   5.507   4.708  12.588
 4341SOL    HW214921   5.590   4.581  12.588
 4342SOL     OW14922   6.671   6.469   0.042
 4342SOL    HW114923   6.623   6.422   0.110
 4342SOL    HW214924   6.748   6.504   0.086
 4343SOL     OW14925   4.034  13.094  11.530
 4343SOL    HW114926   4.005  13.148  11.456
 4343SOL    HW214927   4.074  13.017  11.489
 4344SOL     OW14928   9.942   2.489  12.287
 4344SOL    HW114929   9.997   2.470  12.362
 4344SOL    HW214930   9.874   2.547  12.322
 4345SOL     OW14931   1.187  13.128   4.641
 4345SOL    HW114932   1.220  13.039   4.633
 4345SOL    HW214933   1.123  13.125   4.712
 4346SOL     OW14934   7.627   7.864   4.192
 4346SOL    HW114935   7.583   7.927   4.248
 4346SOL    HW214936   7.619   7.781   4.239
 4347SOL     OW14937  10.258  11.554   5.936
 4347SOL    HW114938  10.323  11.625   5.935
 4347SOL    HW214939  10.187  11.586   5.881
 4348SOL     OW14940   4.771   6.096  13.897
 4348SOL    HW114941   4.698   6.060  13.946
 4348SOL    HW214942   4.830   6.132  13.964
 4349SOL     OW14943  13.776   7.427  11.541
 4349SOL    HW114944  13.833   7.441  11.465
 4349SOL    HW214945  13.701   7.380  11.506
 4350SOL     OW14946   8.973   7.896   7.150
 4350SOL    HW114947   9.020   7.822   7.188
 4350SOL    HW214948   8.941   7.863   7.066
 4351SOL     OW14949   6.064   2.108   1.884
 4351SOL    HW114950   6.006   2.138   1.955
 4351SOL    HW214951   6.011   2.117   1.805
 4352SOL     OW14952   5.628   0.707  10.267
 4352SOL    HW114953   5.668   0.648  10.331
 4352SOL    HW214954   5.640   0.794  10.304
 4353SOL     OW14955   1.957   8.052   0.636
 4353SOL    HW114956   1.931   7.991   0.567
 4353SOL    HW214957   1.875   8.095   0.662
 4354SOL     OW14958   4.133   2.513   9.927
 4354SOL    HW114959   4.124   2.554  10.013
 4354SOL    HW214960   4.145   2.586   9.867
 4355SOL     OW14961   7.890   4.772  10.726
 4355SOL    HW114962   7.985   4.772  10.712
 4355SOL    HW214963   7.877   4.723  10.807
 4356SOL     OW14964   8.279   1.390  10.698
 4356SOL    HW114965   8.250   1.453  10.763
 4356SOL    HW214966   8.208   1.387  10.634
 4357SOL     OW14967   8.203   8.043   1.470
 4357SOL    HW114968   8.216   7.948   1.470
 4357SOL    HW214969   8.288   8.079   1.447
 4358SOL     OW14970   4.213  11.568   6.098
 4358SOL    HW114971   4.125  11.533   6.110
 4358SOL    HW214972   4.268  11.492   6.081
 4359SOL     OW14973   8.287  14.692   0.757
 4359SOL    HW114974   8.375  14.664   0.781
 4359SOL    HW214975   8.276  14.776   0.800
 4360SOL     OW14976   9.140   0.377   5.816
 4360SOL    HW114977   9.192   0.449   5.781
 4360SOL    HW214978   9.063   0.419   5.854
 4361SOL     OW14979   7.401   8.145   6.021
 4361SOL    HW114980   7.375   8.211   6.084
 4361SOL    HW214981   7.496   8.136   6.033
 4362SOL     OW14982   6.936   5.104   3.069
 4362SOL    HW114983   6.861   5.161   3.054
 4362SOL    HW214984   6.927   5.075   3.159
 4363SOL     OW14985   1.299  13.220  11.474
 4363SOL    HW114986   1.382  13.209  11.428
 4363SOL    HW214987   1.323  13.225  11.567
 4364SOL     OW14988   6.300   3.301   4.947
 4364SOL    HW114989   6.272   3.383   4.988
 4364SOL    HW214990   6.394   3.298   4.961
 4365SOL     OW14991   9.696   3.719  14.523
 4365SOL    HW114992   9.736   3.756  14.444
 4365SOL    HW214993   9.634   3.786  14.552
 4366SOL     OW14994   0.576   7.318   3.166
 4366SOL    HW114995   0.505   7.380   3.151
 4366SOL    HW214996   0.642   7.339   3.100
 4367SOL     OW14997   4.564   2.053   4.643
 4367SOL    HW114998   4.547   2.091   4.557
 4367SOL    HW214999   4.504   1.978   4.648
 4368SOL     OW15000  14.781   9.420   5.953
 4368SOL    HW115001  14.781   9.408   6.048
 4368SOL    HW215002  14.707   9.367   5.922
 4369SOL     OW15003   6.827  13.944   4.400
 4369SOL    HW115004   6.890  13.940   4.329
 4369SOL    HW215005   6.794  13.854   4.408
 4370SOL     OW15006   2.174   6.344  10.800
 4370SOL    HW115007   2.212   6.259  10.821
 4370SOL    HW215008   2.211   6.404  10.865
 4371SOL     OW15009   5.095   8.494   6.542
 4371SOL    HW115010   5.032   8.557   6.508
 4371SOL    HW215011   5.083   8.416   6.489
 4372SOL     OW15012  13.257   4.122   6.579
 4372SOL    HW115013  13.192   4.079   6.633
 4372SOL    HW215014  13.273   4.061   6.507
 4373SOL     OW15015  10.792  12.723   8.487
 4373SOL    HW115016  10.741  12.778   8.427
 4373SOL    HW215017  10.804  12.640   8.440
 4374SOL     OW15018   2.971   1.878  13.242
 4374SOL    HW115019   3.013   1.819  13.304
 4374SOL    HW215020   2.881   1.884  13.272
 4375SOL     OW15021   7.438  12.049   7.399
 4375SOL    HW115022   7.470  11.966   7.435
 4375SOL    HW215023   7.350  12.030   7.368
 4376SOL     OW15024   2.482   5.165  12.362
 4376SOL    HW115025   2.478   5.252  12.323
 4376SOL    HW215026   2.575   5.141  12.357
 4377SOL     OW15027  10.030  12.212   7.625
 4377SOL    HW115028  10.092  12.180   7.560
 4377SOL    HW215029  10.078  12.210   7.708
 4378SOL     OW15030   1.733   1.977   3.650
 4378SOL    HW115031   1.758   1.886   3.670
 4378SOL    HW215032   1.816   2.021   3.633
 4379SOL     OW15033  10.802  12.400   8.428
 4379SOL    HW115034  10.718  12.420   8.470
 4379SOL    HW215035  10.810  12.305   8.438
 4380SOL     OW15036   0.322  12.806  10.973
 4380SOL    HW115037   0.354  12.849  11.053
 4380SOL    HW215038   0.398  12.801  10.916
 4381SOL     OW15039  11.701  11.604   3.135
 4381SOL    HW115040  11.751  11.523   3.120
 4381SOL    HW215041  11.720  11.627   3.226
 4382SOL     OW15042   6.842  11.853   4.291
 4382SOL    HW115043   6.753  11.871   4.261
 4382SOL    HW215044   6.894  11.849   4.211
 4383SOL     OW15045   9.275   3.328   8.877
 4383SOL    HW115046   9.186   3.297   8.895
 4383SOL    HW215047   9.269   3.423   8.882
 4384SOL     OW15048   1.191  12.298   9.244
 4384SOL    HW115049   1.097  12.312   9.257
 4384SOL    HW215050   1.229  12.385   9.243
 4385SOL     OW15051   3.426   3.341   0.263
 4385SOL    HW115052   3.454   3.251   0.251
 4385SOL    HW215053   3.428   3.355   0.358
 4386SOL     OW15054   6.172   3.435  13.329
 4386SOL    HW115055   6.267   3.448  13.332
 4386SOL    HW215056   6.151   3.387  13.409
 4387SOL     OW15057   9.735   4.347   1.503
 4387SOL    HW115058   9.693   4.407   1.564
 4387SOL    HW215059   9.823   4.383   1.492
 4388SOL     OW15060   6.654   3.713   2.766
 4388SOL    HW115061   6.582   3.692   2.706
 4388SOL    HW215062   6.629   3.798   2.803
 4389SOL     OW15063  13.248   8.848   3.494
 4389SOL    HW115064  13.241   8.933   3.450
 4389SOL    HW215065  13.163   8.836   3.537
 4390SOL     OW15066  13.638  10.859   5.620
 4390SOL    HW115067  13.621  10.776   5.574
 4390SOL    HW215068  13.728  10.882   5.596
 4391SOL     OW15069  10.646   2.708  12.596
 4391SOL    HW115070  10.711   2.749  12.652
 4391SOL    HW215071  10.696   2.645  12.543
 4392SOL     OW15072   9.306  12.245  10.550
 4392SOL    HW115073   9.335  12.290  10.471
 4392SOL    HW215074   9.377  12.257  10.613
 4393SOL     OW15075   7.327   7.225  14.057
 4393SOL    HW115076   7.293   7.140  14.086
 4393SOL    HW215077   7.374   7.205  13.976
 4394SOL     OW15078  12.125   3.113  10.718
 4394SOL    HW115079  12.183   3.136  10.790
 4394SOL    HW215080  12.153   3.168  10.645
 4395SOL     OW15081   7.860   2.879   4.949
 4395SOL    HW115082   7.881   2.814   4.882
 4395SOL    HW215083   7.823   2.953   4.900
 4396SOL     OW15084   0.695  11.621   8.124
 4396SOL    HW115085   0.711  11.540   8.173
 4396SOL    HW215086   0.626  11.598   8.062
 4397SOL     OW15087  14.153  11.556  10.155
 4397SOL    HW115088  14.084  11.562  10.222
 4397SOL    HW215089  14.221  11.616  10.185
 4398SOL     OW15090  10.625   0.873  10.043
 4398SOL    HW115091  10.583   0.864   9.957
 4398SOL    HW215092  10.556   0.909  10.099
 4399SOL     OW15093  12.434   8.860   2.997
 4399SOL    HW115094  12.514   8.861   2.944
 4399SOL    HW215095  12.364   8.874   2.933
 4400SOL     OW15096   7.210   3.730   4.420
 4400SOL    HW115097   7.248   3.798   4.364
 4400SOL    HW215098   7.255   3.650   4.394
 4401SOL     OW15099   6.567   1.683  14.691
 4401SOL    HW115100   6.524   1.746  14.748
 4401SOL    HW215101   6.652   1.668  14.732
 4402SOL     OW15102   5.647   9.948  14.243
 4402SOL    HW115103   5.663  10.042  14.236
 4402SOL    HW215104   5.688   9.911  14.166
 4403SOL     OW15105   9.518  11.477   7.693
 4403SOL    HW115106   9.609  11.451   7.681
 4403SOL    HW215107   9.523  11.568   7.721
 4404SOL     OW15108   7.194  14.844   8.867
 4404SOL    HW115109   7.133   0.018   8.917
 4404SOL    HW215110   7.274   0.017   8.862
 4405SOL     OW15111   5.917   5.093  12.067
 4405SOL    HW115112   5.849   5.044  12.113
 4405SOL    HW215113   5.985   5.107  12.132
 4406SOL     OW15114  12.012   9.162  13.763
 4406SOL    HW115115  12.030   9.223  13.692
 4406SOL    HW215116  12.093   9.160  13.814
 4407SOL     OW15117  12.298   2.250  11.638
 4407SOL    HW115118  12.259   2.240  11.725
 4407SOL    HW215119  12.381   2.296  11.653
 4408SOL     OW15120   2.663   5.312  10.528
 4408SOL    HW115121   2.749   5.297  10.487
 4408SOL    HW215122   2.636   5.226  10.559
 4409SOL     OW15123   9.268   8.403   9.119
 4409SOL    HW115124   9.312   8.414   9.035
 4409SOL    HW215125   9.278   8.310   9.140
 4410SOL     OW15126   6.005  13.062   9.600
 4410SOL    HW115127   6.092  13.060   9.639
 4410SOL    HW215128   5.947  13.028   9.668
 4411SOL     OW15129  11.612  10.994   3.692
 4411SOL    HW115130  11.593  10.909   3.651
 4411SOL    HW215131  11.684  10.976   3.752
 4412SOL     OW15132  11.306   8.502  14.547
 4412SOL    HW115133  11.230   8.513  14.605
 4412SOL    HW215134  11.381   8.527  14.602
 4413SOL     OW15135   2.143   6.628  12.859
 4413SOL    HW115136   2.110   6.717  12.844
 4413SOL    HW215137   2.230   6.628  12.819
 4414SOL     OW15138   0.523   0.094   9.084
 4414SOL    HW115139   0.597   0.048   9.122
 4414SOL    HW215140   0.447   0.068   9.137
 4415SOL     OW15141   1.335   7.660   0.874
 4415SOL    HW115142   1.246   7.642   0.903
 4415SOL    HW215143   1.370   7.719   0.940
 4416SOL     OW15144   0.709   4.406   1.826
 4416SOL    HW115145   0.748   4.367   1.905
 4416SOL    HW215146   0.734   4.498   1.831
 4417SOL     OW15147  11.552  10.651  12.385
 4417SOL    HW115148  11.633  10.696  12.410
 4417SOL    HW215149  11.486  10.720  12.381
 4418SOL     OW15150  13.402   2.113  11.164
 4418SOL    HW115151  13.313   2.094  11.133
 4418SOL    HW215152  13.444   2.027  11.167
 4419SOL     OW15153   6.612  12.074  11.615
 4419SOL    HW115154   6.692  12.047  11.661
 4419SOL    HW215155   6.543  12.069  11.682
 4420SOL     OW15156   0.202   9.584   7.201
 4420SOL    HW115157   0.160   9.658   7.243
 4420SOL    HW215158   0.140   9.512   7.211
 4421SOL     OW15159   7.262  13.351   4.078
 4421SOL    HW115160   7.355  13.375   4.084
 4421SOL    HW215161   7.262  13.255   4.071
 4422SOL     OW15162  12.482   1.653  11.155
 4422SOL    HW115163  12.439   1.721  11.103
 4422SOL    HW215164  12.473   1.573  11.103
 4423SOL     OW15165   5.055  14.652   2.925
 4423SOL    HW115166   5.027  14.660   2.833
 4423SOL    HW215167   5.126  14.716   2.934
 4424SOL     OW15168  10.037  11.679   8.475
 4424SOL    HW115169   9.969  11.711   8.534
 4424SOL    HW215170  10.062  11.594   8.512
 4425SOL     OW15171   6.390   0.993  14.399
 4425SOL    HW115172   6.425   1.033  14.478
 4425SOL    HW215173   6.329   1.058  14.364
 4426SOL     OW15174  14.012   3.359   5.996
 4426SOL    HW115175  13.948   3.350   6.067
 4426SOL    HW215176  14.095   3.331   6.036
 4427SOL     OW15177   7.666  11.766   2.884
 4427SOL    HW115178   7.734  11.721   2.934
 4427SOL    HW215179   7.623  11.823   2.948
 4428SOL     OW15180   8.620  10.303   8.871
 4428SOL    HW115181   8.673  10.337   8.943
 4428SOL    HW215182   8.624  10.208   8.881
 4429SOL     OW15183  10.584   5.152   1.733
 4429SOL    HW115184  10.508   5.208   1.746
 4429SOL    HW215185  10.633   5.158   1.815
 4430SOL     OW15186   8.716   7.044   9.455
 4430SOL    HW115187   8.739   7.057   9.363
 4430SOL    HW215188   8.636   7.095   9.468
 4431SOL     OW15189  14.275  12.822   0.057
 4431SOL    HW115190  14.244  12.732   0.047
 4431SOL    HW215191  14.348  12.815   0.118
 4432SOL     OW15192  13.966   0.538   2.691
 4432SOL    HW115193  14.014   0.484   2.754
 4432SOL    HW215194  13.907   0.590   2.745
 4433SOL     OW15195   1.101   5.282   6.801
 4433SOL    HW115196   1.051   5.201   6.805
 4433SOL    HW215197   1.066   5.335   6.872
 4434SOL     OW15198   2.297  11.385   8.505
 4434SOL    HW115199   2.278  11.387   8.599
 4434SOL    HW215200   2.381  11.431   8.497
 4435SOL     OW15201  10.542  11.979  12.635
 4435SOL    HW115202  10.563  12.004  12.725
 4435SOL    HW215203  10.510  12.060  12.595
 4436SOL     OW15204   5.653  10.333   3.416
 4436SOL    HW115205   5.697  10.256   3.452
 4436SOL    HW215206   5.560  10.319   3.435
 4437SOL     OW15207  14.639   8.494   3.904
 4437SOL    HW115208  14.671   8.544   3.829
 4437SOL    HW215209  14.566   8.442   3.869
 4438SOL     OW15210  10.612   7.351  13.946
 4438SOL    HW115211  10.546   7.284  13.927
 4438SOL    HW215212  10.636   7.336  14.037
 4439SOL     OW15213   5.441   7.917   4.208
 4439SOL    HW115214   5.461   7.837   4.159
 4439SOL    HW215215   5.494   7.911   4.287
 4440SOL     OW15216   6.654  14.161  11.369
 4440SOL    HW115217   6.741  14.124  11.381
 4440SOL    HW215218   6.617  14.114  11.295
 4441SOL     OW15219   5.020   6.640  11.191
 4441SOL    HW115220   5.017   6.592  11.274
 4441SOL    HW215221   5.087   6.707  11.204
 4442SOL     OW15222  13.308   7.224  10.798
 4442SOL    HW115223  13.270   7.199  10.714
 4442SOL    HW215224  13.235   7.220  10.860
 4443SOL     OW15225   4.527   2.369   8.545
 4443SOL    HW115226   4.564   2.302   8.603
 4443SOL    HW215227   4.492   2.435   8.605
 4444SOL     OW15228  12.368   5.358   7.315
 4444SOL    HW115229  12.371   5.391   7.404
 4444SOL    HW215230  12.404   5.428   7.261
 4445SOL     OW15231   5.271   4.837   0.144
 4445SOL    HW115232   5.191   4.879   0.176
 4445SOL    HW215233   5.308   4.792   0.221
 4446SOL     OW15234   1.978   8.359   3.515
 4446SOL    HW115235   1.958   8.273   3.552
 4446SOL    HW215236   1.912   8.417   3.554
 4447SOL     OW15237   2.501   2.337   3.926
 4447SOL    HW115238   2.414   2.376   3.920
 4447SOL    HW215239   2.523   2.312   3.836
 4448SOL     OW15240   2.965  11.392  12.314
 4448SOL    HW115241   3.026  11.455  12.353
 4448SOL    HW215242   2.924  11.349  12.389
 4449SOL     OW15243   8.205   3.886   9.832
 4449SOL    HW115244   8.210   3.981   9.846
 4449SOL    HW215245   8.131   3.858   9.886
 4450SOL     OW15246   8.186   7.441   1.405
 4450SOL    HW115247   8.206   7.482   1.321
 4450SOL    HW215248   8.248   7.480   1.466
 4451SOL     OW15249   5.794   8.328  11.956
 4451SOL    HW115250   5.863   8.318  12.022
 4451SOL    HW215251   5.788   8.242  11.915
 4452SOL     OW15252  10.487  11.368  12.171
 4452SOL    HW115253  10.556  11.316  12.214
 4452SOL    HW215254  10.487  11.451  12.217
 4453SOL     OW15255   6.071  11.129   2.294
 4453SOL    HW115256   6.161  11.145   2.264
 4453SOL    HW215257   6.080  11.117   2.389
 4454SOL     OW15258  13.617  12.963   7.365
 4454SOL    HW115259  13.608  12.902   7.292
 4454SOL    HW215260  13.711  12.968   7.381
 4455SOL     OW15261   2.321   2.839   4.375
 4455SOL    HW115262   2.261   2.852   4.302
 4455SOL    HW215263   2.273   2.870   4.452
 4456SOL     OW15264   6.383   2.694   2.551
 4456SOL    HW115265   6.302   2.688   2.602
 4456SOL    HW215266   6.361   2.652   2.468
 4457SOL     OW15267  12.033  13.885   4.426
 4457SOL    HW115268  12.078  13.968   4.441
 4457SOL    HW215269  12.029  13.877   4.331
 4458SOL     OW15270  14.103   1.704   6.309
 4458SOL    HW115271  14.115   1.788   6.266
 4458SOL    HW215272  14.185   1.688   6.356
 4459SOL     OW15273  11.196   3.925  10.606
 4459SOL    HW115274  11.250   3.986  10.656
 4459SOL    HW215275  11.244   3.842  10.608
 4460SOL     OW15276  11.044   6.827   5.875
 4460SOL    HW115277  10.980   6.895   5.854
 4460SOL    HW215278  11.080   6.854   5.959
 4461SOL     OW15279  14.484  10.080   7.861
 4461SOL    HW115280  14.407  10.031   7.889
 4461SOL    HW215281  14.542  10.080   7.937
 4462SOL     OW15282  14.522   2.268  10.632
 4462SOL    HW115283  14.590   2.289  10.696
 4462SOL    HW215284  14.467   2.346  10.630
 4463SOL     OW15285  14.519  13.556   6.173
 4463SOL    HW115286  14.542  13.568   6.265
 4463SOL    HW215287  14.517  13.644   6.136
 4464SOL     OW15288   5.960   6.712   1.080
 4464SOL    HW115289   5.909   6.761   1.145
 4464SOL    HW215290   5.897   6.653   1.040
 4465SOL     OW15291   2.555   5.534   2.473
 4465SOL    HW115292   2.555   5.451   2.520
 4465SOL    HW215293   2.519   5.597   2.535
 4466SOL     OW15294  11.106   4.746  14.333
 4466SOL    HW115295  11.164   4.753  14.257
 4466SOL    HW215296  11.019   4.763  14.299
 4467SOL     OW15297   2.536  13.557  13.408
 4467SOL    HW115298   2.557  13.643  13.370
 4467SOL    HW215299   2.609  13.501  13.383
 4468SOL     OW15300  10.470   6.462  12.293
 4468SOL    HW115301  10.472   6.525  12.222
 4468SOL    HW215302  10.481   6.377  12.250
 4469SOL     OW15303  14.542   2.253  11.867
 4469SOL    HW115304  14.498   2.336  11.884
 4469SOL    HW215305  14.582   2.265  11.781
 4470SOL     OW15306   4.295  10.421  10.897
 4470SOL    HW115307   4.224  10.479  10.925
 4470SOL    HW215308   4.266  10.388  10.812
 4471SOL     OW15309   9.493  14.183   1.081
 4471SOL    HW115310   9.523  14.096   1.108
 4471SOL    HW215311   9.508  14.184   0.986
 4472SOL     OW15312  11.821   0.947   7.910
 4472SOL    HW115313  11.867   0.865   7.891
 4472SOL    HW215314  11.735   0.935   7.871
 4473SOL     OW15315  14.617  14.491  12.236
 4473SOL    HW115316  14.661  14.443  12.306
 4473SOL    HW215317  14.686  14.544  12.196
 4474SOL     OW15318   8.662   9.547  12.400
 4474SOL    HW115319   8.708   9.628  12.380
 4474SOL    HW215320   8.576   9.558  12.359
 4475SOL     OW15321   3.952   8.759   2.657
 4475SOL    HW115322   3.913   8.787   2.740
 4475SOL    HW215323   4.045   8.776   2.668
 4476SOL     OW15324  12.800  12.058   2.945
 4476SOL    HW115325  12.711  12.044   2.914
 4476SOL    HW215326  12.838  12.119   2.881
 4477SOL     OW15327  11.656   6.591   2.258
 4477SOL    HW115328  11.588   6.620   2.319
 4477SOL    HW215329  11.679   6.503   2.289
 4478SOL     OW15330   2.166  11.676  10.168
 4478SOL    HW115331   2.118  11.703  10.246
 4478SOL    HW215332   2.244  11.731  10.166
 4479SOL     OW15333   8.512   0.602   5.269
 4479SOL    HW115334   8.559   0.533   5.316
 4479SOL    HW215335   8.456   0.555   5.207
 4480SOL     OW15336  10.891   0.403   5.096
 4480SOL    HW115337  10.860   0.321   5.058
 4480SOL    HW215338  10.972   0.380   5.141
 4481SOL     OW15339   0.304   2.908   6.447
 4481SOL    HW115340   0.393   2.920   6.416
 4481SOL    HW215341   0.312   2.845   6.519
 4482SOL     OW15342   1.198   6.853   8.891
 4482SOL    HW115343   1.290   6.859   8.916
 4482SOL    HW215344   1.172   6.764   8.913
 4483SOL     OW15345   1.587   8.310   0.974
 4483SOL    HW115346   1.614   8.297   1.065
 4483SOL    HW215347   1.621   8.396   0.951
 4484SOL     OW15348   1.598   2.584   8.469
 4484SOL    HW115349   1.611   2.674   8.439
 4484SOL    HW215350   1.520   2.555   8.421
 4485SOL     OW15351  13.258   5.975  14.220
 4485SOL    HW115352  13.233   5.956  14.130
 4485SOL    HW215353  13.231   5.898  14.270
 4486SOL     OW15354  10.002  14.651   6.449
 4486SOL    HW115355   9.935  14.677   6.514
 4486SOL    HW215356  10.002  14.723   6.386
 4487SOL     OW15357   5.125  12.426   8.717
 4487SOL    HW115358   5.031  12.408   8.715
 4487SOL    HW215359   5.166  12.339   8.721
 4488SOL     OW15360   5.884   3.452   7.989
 4488SOL    HW115361   5.799   3.488   7.964
 4488SOL    HW215362   5.870   3.413   8.075
 4489SOL     OW15363  11.858  12.939   2.956
 4489SOL    HW115364  11.865  12.911   2.865
 4489SOL    HW215365  11.776  12.989   2.960
 4490SOL     OW15366   8.650  13.620   9.320
 4490SOL    HW115367   8.655  13.689   9.254
 4490SOL    HW215368   8.558  13.618   9.345
 4491SOL     OW15369  14.705  10.954   7.030
 4491SOL    HW115370  14.729  10.866   7.057
 4491SOL    HW215371  14.740  11.011   7.099
 4492SOL     OW15372   7.158  14.736   0.886
 4492SOL    HW115373   7.117  14.777   0.963
 4492SOL    HW215374   7.251  14.755   0.895
 4493SOL     OW15375  12.124   0.260   0.496
 4493SOL    HW115376  12.104   0.176   0.455
 4493SOL    HW215377  12.189   0.300   0.438
 4494SOL     OW15378   0.900   3.378   7.563
 4494SOL    HW115379   0.961   3.436   7.608
 4494SOL    HW215380   0.816   3.425   7.565
 4495SOL     OW15381  14.003  11.097  10.694
 4495SOL    HW115382  14.015  11.119  10.602
 4495SOL    HW215383  13.910  11.081  10.704
 4496SOL     OW15384   9.340   2.513   3.897
 4496SOL    HW115385   9.380   2.585   3.945
 4496SOL    HW215386   9.246   2.523   3.911
 4497SOL     OW15387   7.703   3.784  11.394
 4497SOL    HW115388   7.693   3.695  11.428
 4497SOL    HW215389   7.789   3.812  11.427
 4498SOL     OW15390   4.611   1.716   3.435
 4498SOL    HW115391   4.669   1.640   3.439
 4498SOL    HW215392   4.586   1.733   3.526
 4499SOL     OW15393  12.324   6.711   1.062
 4499SOL    HW115394  12.386   6.740   0.994
 4499SOL    HW215395  12.240   6.748   1.035
 4500SOL     OW15396   3.101   4.232   1.996
 4500SOL    HW115397   3.080   4.205   1.907
 4500SOL    HW215398   3.193   4.210   2.006
 4501SOL     OW15399   6.589   5.053   5.462
 4501SOL    HW115400   6.616   4.996   5.390
 4501SOL    HW215401   6.575   4.993   5.536
 4502SOL     OW15402   4.827   7.682  10.594
 4502SOL    HW115403   4.752   7.631  10.625
 4502SOL    HW215404   4.804   7.773  10.614
 4503SOL     OW15405   3.651   7.583   8.818
 4503SOL    HW115406   3.557   7.568   8.812
 4503SOL    HW215407   3.691   7.498   8.798
 4504SOL     OW15408   5.653   4.691  10.413
 4504SOL    HW115409   5.576   4.744  10.394
 4504SOL    HW215410   5.632   4.648  10.496
 4505SOL     OW15411   4.156  14.274  12.910
 4505SOL    HW115412   4.130  14.366  12.899
 4505SOL    HW215413   4.150  14.259  13.004
 4506SOL     OW15414   8.492   9.918  10.178
 4506SOL    HW115415   8.452  10.003  10.164
 4506SOL    HW215416   8.498   9.879  10.091
 4507SOL     OW15417   2.459   8.874  14.657
 4507SOL    HW115418   2.544   8.918  14.656
 4507SOL    HW215419   2.478   8.786  14.688
 4508SOL     OW15420   9.336  13.542   7.814
 4508SOL    HW115421   9.321  13.599   7.889
 4508SOL    HW215422   9.248  13.518   7.784
 4509SOL     OW15423   2.493   8.789  12.088
 4509SOL    HW115424   2.531   8.855  12.146
 4509SOL    HW215425   2.569   8.751  12.042
 4510SOL     OW15426   5.110   5.798  12.184
 4510SOL    HW115427   5.201   5.790  12.212
 4510SOL    HW215428   5.110   5.868  12.119
 4511SOL     OW15429   2.845  14.546  11.081
 4511SOL    HW115430   2.899  14.576  11.008
 4511SOL    HW215431   2.855  14.451  11.081
 4512SOL     OW15432   5.906  11.311   6.951
 4512SOL    HW115433   5.956  11.313   6.869
 4512SOL    HW215434   5.930  11.392   6.996
 4513SOL     OW15435   7.912   9.596  11.402
 4513SOL    HW115436   7.871   9.566  11.321
 4513SOL    HW215437   7.840   9.630  11.455
 4514SOL     OW15438  13.749   0.574   8.437
 4514SOL    HW115439  13.710   0.648   8.484
 4514SOL    HW215440  13.787   0.520   8.507
 4515SOL     OW15441  14.044  10.769   9.240
 4515SOL    HW115442  14.133  10.799   9.257
 4515SOL    HW215443  13.994  10.798   9.316
 4516SOL     OW15444   5.127   5.685   3.326
 4516SOL    HW115445   5.163   5.747   3.389
 4516SOL    HW215446   5.202   5.661   3.271
 4517SOL     OW15447   1.613   0.124   6.197
 4517SOL    HW115448   1.629   0.035   6.166
 4517SOL    HW215449   1.674   0.178   6.146
 4518SOL     OW15450   0.223  13.105   7.554
 4518SOL    HW115451   0.307  13.150   7.557
 4518SOL    HW215452   0.167  13.154   7.614
 4519SOL     OW15453   2.620   9.448   0.410
 4519SOL    HW115454   2.623   9.371   0.467
 4519SOL    HW215455   2.707   9.453   0.371
 4520SOL     OW15456   9.782  12.887   2.460
 4520SOL    HW115457   9.755  12.863   2.548
 4520SOL    HW215458   9.874  12.860   2.454
 4521SOL     OW15459   0.639   1.063  10.216
 4521SOL    HW115460   0.659   1.149  10.253
 4521SOL    HW215461   0.721   1.015  10.221
 4522SOL     OW15462   0.106   1.485   8.314
 4522SOL    HW115463   0.017   1.505   8.287
 4522SOL    HW215464   0.135   1.564   8.360
 4523SOL     OW15465  13.780  12.923   9.122
 4523SOL    HW115466  13.736  12.975   9.055
 4523SOL    HW215467  13.855  12.976   9.148
 4524SOL     OW15468   6.570   2.776   7.006
 4524SOL    HW115469   6.488   2.761   7.052
 4524SOL    HW215470   6.635   2.723   7.053
 4525SOL     OW15471   4.048  13.259   5.978
 4525SOL    HW115472   4.039  13.246   5.883
 4525SOL    HW215473   4.051  13.354   5.989
 4526SOL     OW15474   8.071  14.289  11.721
 4526SOL    HW115475   8.118  14.350  11.779
 4526SOL    HW215476   8.100  14.314  11.633
 4527SOL     OW15477   9.485  12.082   0.975
 4527SOL    HW115478   9.521  12.103   0.889
 4527SOL    HW215479   9.452  11.993   0.966
 4528SOL     OW15480   5.717   3.920  13.184
 4528SOL    HW115481   5.711   3.836  13.138
 4528SOL    HW215482   5.724   3.985  13.114
 4529SOL     OW15483  13.057  11.307   3.437
 4529SOL    HW115484  13.152  11.318   3.434
 4529SOL    HW215485  13.036  11.307   3.530
 4530SOL     OW15486   0.677   4.715  10.574
 4530SOL    HW115487   0.657   4.625  10.601
 4530SOL    HW215488   0.660   4.716  10.480
 4531SOL     OW15489   3.422   7.416   1.971
 4531SOL    HW115490   3.512   7.435   1.946
 4531SOL    HW215491   3.377   7.501   1.964
 4532SOL     OW15492   8.763  12.925  13.990
 4532SOL    HW115493   8.752  13.020  13.991
 4532SOL    HW215494   8.776  12.903  13.897
 4533SOL     OW15495  14.816  10.319   0.509
 4533SOL    HW115496  14.842  10.376   0.437
 4533SOL    HW215497  14.730  10.284   0.483
 4534SOL     OW15498  12.569   0.235  10.121
 4534SOL    HW115499  12.482   0.251  10.158
 4534SOL    HW215500  12.600   0.321  10.093
 4535SOL     OW15501   4.136   5.304  10.673
 4535SOL    HW115502   4.046   5.301  10.639
 4535SOL    HW215503   4.184   5.242  10.618
 4536SOL     OW15504   7.914  12.323   7.758
 4536SOL    HW115505   7.860  12.256   7.716
 4536SOL    HW215506   7.967  12.274   7.821
 4537SOL     OW15507   7.245  12.786  13.089
 4537SOL    HW115508   7.300  12.791  13.010
 4537SOL    HW215509   7.156  12.799  13.056
 4538SOL     OW15510   5.576   7.219   7.954
 4538SOL    HW115511   5.578   7.193   8.046
 4538SOL    HW215512   5.615   7.307   7.953
 4539SOL     OW15513  10.379   8.139  10.298
 4539SOL    HW115514  10.327   8.058  10.295
 4539SOL    HW215515  10.314   8.209  10.296
 4540SOL     OW15516   7.411   9.368   0.038
 4540SOL    HW115517   7.439   9.306   0.106
 4540SOL    HW215518   7.356   9.431   0.084
 4541SOL     OW15519   5.542   3.748   1.376
 4541SOL    HW115520   5.468   3.806   1.396
 4541SOL    HW215521   5.578   3.726   1.462
 4542SOL     OW15522   3.794   4.109   1.688
 4542SOL    HW115523   3.828   4.187   1.732
 4542SOL    HW215524   3.796   4.041   1.755
 4543SOL     OW15525   5.783  14.472  13.896
 4543SOL    HW115526   5.804  14.398  13.953
 4543SOL    HW215527   5.775  14.547  13.955
 4544SOL     OW15528   1.280   5.810  12.971
 4544SOL    HW115529   1.320   5.897  12.965
 4544SOL    HW215530   1.348   5.756  13.011
 4545SOL     OW15531  13.744  12.555  14.200
 4545SOL    HW115532  13.720  12.463  14.202
 4545SOL    HW215533  13.672  12.598  14.153
 4546SOL     OW15534   1.065   7.446  11.736
 4546SOL    HW115535   1.112   7.423  11.655
 4546SOL    HW215536   1.034   7.535  11.720
 4547SOL     OW15537  12.637  14.847  12.276
 4547SOL    HW115538  12.651   0.019  12.354
 4547SOL    HW215539  12.543  14.830  12.274
 4548SOL     OW15540   0.274   7.608  10.831
 4548SOL    HW115541   0.268   7.520  10.796
 4548SOL    HW215542   0.366   7.619  10.855
 4549SOL     OW15543  14.253   0.335   3.503
 4549SOL    HW115544  14.343   0.312   3.522
 4549SOL    HW215545  14.247   0.428   3.525
 4550SOL     OW15546   9.926  14.341  12.355
 4550SOL    HW115547  10.002  14.389  12.388
 4550SOL    HW215548   9.928  14.355  12.261
 4551SOL     OW15549   6.210   6.575  12.322
 4551SOL    HW115550   6.161   6.493  12.324
 4551SOL    HW215551   6.195   6.614  12.408
 4552SOL     OW15552   2.012  12.974   9.053
 4552SOL    HW115553   2.085  13.000   8.996
 4552SOL    HW215554   1.941  13.033   9.030
 4553SOL     OW15555   3.659   7.103   4.320
 4553SOL    HW115556   3.602   7.177   4.340
 4553SOL    HW215557   3.640   7.082   4.228
 4554SOL     OW15558   2.861  14.058   4.528
 4554SOL    HW115559   2.943  14.107   4.524
 4554SOL    HW215560   2.824  14.079   4.614
 4555SOL     OW15561  10.803   5.881  13.128
 4555SOL    HW115562  10.883   5.850  13.084
 4555SOL    HW215563  10.832   5.900  13.217
 4556SOL     OW15564   6.794  13.666   0.247
 4556SOL    HW115565   6.726  13.600   0.262
 4556SOL    HW215566   6.778  13.732   0.314
 4557SOL     OW15567   0.883  14.648   9.034
 4557SOL    HW115568   0.808  14.592   9.015
 4557SOL    HW215569   0.854  14.736   9.013
 4558SOL     OW15570   0.571   8.474   1.511
 4558SOL    HW115571   0.613   8.390   1.530
 4558SOL    HW215572   0.571   8.520   1.594
 4559SOL     OW15573   3.882   9.966  10.644
 4559SOL    HW115574   3.972   9.939  10.665
 4559SOL    HW215575   3.827   9.912  10.701
 4560SOL     OW15576  11.183   8.870   9.516
 4560SOL    HW115577  11.168   8.939   9.452
 4560SOL    HW215578  11.248   8.905   9.575
 4561SOL     OW15579   8.733  10.603   8.484
 4561SOL    HW115580   8.800  10.554   8.532
 4561SOL    HW215581   8.654  10.591   8.537
 4562SOL     OW15582   7.819   0.874   9.244
 4562SOL    HW115583   7.868   0.954   9.260
 4562SOL    HW215584   7.804   0.873   9.149
 4563SOL     OW15585   8.889   7.659   6.649
 4563SOL    HW115586   8.908   7.582   6.701
 4563SOL    HW215587   8.915   7.636   6.560
 4564SOL     OW15588  11.158  13.071   2.033
 4564SOL    HW115589  11.175  12.980   2.057
 4564SOL    HW215590  11.110  13.065   1.950
 4565SOL     OW15591   9.670  10.252  11.558
 4565SOL    HW115592   9.698  10.324  11.616
 4565SOL    HW215593   9.737  10.249  11.490
 4566SOL     OW15594   4.820  12.509  11.645
 4566SOL    HW115595   4.751  12.572  11.626
 4566SOL    HW215596   4.891  12.533  11.585
 4567SOL     OW15597  12.752  12.491   9.154
 4567SOL    HW115598  12.701  12.556   9.203
 4567SOL    HW215599  12.720  12.499   9.064
 4568SOL     OW15600   7.694  11.572  10.304
 4568SOL    HW115601   7.717  11.663  10.285
 4568SOL    HW215602   7.764  11.521  10.263
 4569SOL     OW15603   9.284   6.587   1.495
 4569SOL    HW115604   9.271   6.498   1.526
 4569SOL    HW215605   9.316   6.577   1.406
 4570SOL     OW15606   3.452  13.742   9.744
 4570SOL    HW115607   3.499  13.661   9.723
 4570SOL    HW215608   3.461  13.751   9.839
 4571SOL     OW15609   1.724  10.742   9.502
 4571SOL    HW115610   1.795  10.745   9.437
 4571SOL    HW215611   1.720  10.831   9.537
 4572SOL     OW15612  14.166   1.288   8.889
 4572SOL    HW115613  14.191   1.206   8.932
 4572SOL    HW215614  14.220   1.291   8.810
 4573SOL     OW15615  10.064  10.193   1.784
 4573SOL    HW115616  10.110  10.258   1.731
 4573SOL    HW215617   9.973  10.200   1.756
 4574SOL     OW15618  11.312  10.378   1.523
 4574SOL    HW115619  11.311  10.289   1.486
 4574SOL    HW215620  11.320  10.364   1.617
 4575SOL     OW15621   1.383  12.080   5.609
 4575SOL    HW115622   1.454  12.028   5.573
 4575SOL    HW215623   1.425  12.159   5.641
 4576SOL     OW15624   9.866   5.089  13.279
 4576SOL    HW115625   9.956   5.120  13.280
 4576SOL    HW215626   9.827   5.132  13.202
 4577SOL     OW15627  14.308   9.997   2.907
 4577SOL    HW115628  14.289   9.958   2.993
 4577SOL    HW215629  14.313   9.922   2.848
 4578SOL     OW15630   7.424   4.191  14.311
 4578SOL    HW115631   7.460   4.276  14.288
 4578SOL    HW215632   7.425   4.188  14.406
 4579SOL     OW15633   4.030   8.804   0.598
 4579SOL    HW115634   3.950   8.754   0.582
 4579SOL    HW215635   4.054   8.785   0.688
 4580SOL     OW15636  11.123   2.671  12.631
 4580SOL    HW115637  11.172   2.618  12.694
 4580SOL    HW215638  11.032   2.643  12.643
 4581SOL     OW15639   3.023   0.645  11.492
 4581SOL    HW115640   3.015   0.696  11.572
 4581SOL    HW215641   2.937   0.653  11.450
 4582SOL     OW15642  13.936   6.369   1.681
 4582SOL    HW115643  13.853   6.323   1.674
 4582SOL    HW215644  13.955   6.371   1.775
 4583SOL     OW15645   7.157   9.036  12.966
 4583SOL    HW115646   7.155   9.096  12.892
 4583SOL    HW215647   7.194   9.088  13.038
 4584SOL     OW15648   4.834  12.441  13.588
 4584SOL    HW115649   4.771  12.382  13.546
 4584SOL    HW215650   4.918  12.420  13.547
 4585SOL     OW15651  12.255  12.926  14.371
 4585SOL    HW115652  12.202  12.896  14.446
 4585SOL    HW215653  12.192  12.962  14.310
 4586SOL     OW15654  14.335  14.780  11.525
 4586SOL    HW115655  14.392  14.854  11.505
 4586SOL    HW215656  14.366  14.748  11.610
 4587SOL     OW15657  11.330  10.055  11.939
 4587SOL    HW115658  11.282  10.107  12.003
 4587SOL    HW215659  11.265  10.031  11.873
 4588SOL     OW15660   7.476   6.774   4.792
 4588SOL    HW115661   7.532   6.733   4.858
 4588SOL    HW215662   7.429   6.701   4.751
 4589SOL     OW15663   9.278   7.982  12.126
 4589SOL    HW115664   9.355   8.039  12.116
 4589SOL    HW215665   9.236   8.013  12.207
 4590SOL     OW15666  14.037   6.728   1.156
 4590SOL    HW115667  14.027   6.786   1.080
 4590SOL    HW215668  14.121   6.684   1.141
 4591SOL     OW15669  10.466  12.663   3.593
 4591SOL    HW115670  10.526  12.690   3.524
 4591SOL    HW215671  10.386  12.711   3.575
 4592SOL     OW15672   8.814   8.383   7.495
 4592SOL    HW115673   8.748   8.373   7.426
 4592SOL    HW215674   8.769   8.355   7.575
 4593SOL     OW15675   7.466   7.615   1.773
 4593SOL    HW115676   7.404   7.545   1.793
 4593SOL    HW215677   7.522   7.579   1.704
 4594SOL     OW15678   4.505   7.473  13.934
 4594SOL    HW115679   4.537   7.501  14.020
 4594SOL    HW215680   4.571   7.412  13.902
 4595SOL     OW15681   6.559   5.522  14.243
 4595SOL    HW115682   6.643   5.526  14.197
 4595SOL    HW215683   6.564   5.441  14.294
 4596SOL     OW15684   1.685   6.721   2.498
 4596SOL    HW115685   1.735   6.723   2.417
 4596SOL    HW215686   1.734   6.777   2.558
 4597SOL     OW15687   0.099   6.745  10.561
 4597SOL    HW115688   0.061   6.718  10.477
 4597SOL    HW215689   0.024   6.767  10.616
 4598SOL     OW15690   6.303  10.974   8.213
 4598SOL    HW115691   6.316  10.958   8.307
 4598SOL    HW215692   6.351  10.904   8.169
 4599SOL     OW15693  10.290  12.483   2.206
 4599SOL    HW115694  10.360  12.420   2.219
 4599SOL    HW215695  10.334  12.564   2.181
 4600SOL     OW15696   8.541  11.199   2.689
 4600SOL    HW115697   8.562  11.112   2.722
 4600SOL    HW215698   8.463  11.226   2.737
 4601SOL     OW15699   8.941   1.537   2.353
 4601SOL    HW115700   8.967   1.606   2.291
 4601SOL    HW215701   8.873   1.578   2.407
 4602SOL     OW15702   6.612   9.117  10.801
 4602SOL    HW115703   6.518   9.121  10.784
 4602SOL    HW215704   6.632   9.202  10.841
 4603SOL     OW15705  10.913   0.771   3.025
 4603SOL    HW115706  10.913   0.729   2.939
 4603SOL    HW215707  10.946   0.704   3.085
 4604SOL     OW15708   4.694   3.132   4.409
 4604SOL    HW115709   4.763   3.130   4.342
 4604SOL    HW215710   4.738   3.164   4.487
 4605SOL     OW15711  14.086   6.262  14.100
 4605SOL    HW115712  13.991   6.264  14.094
 4605SOL    HW215713  14.106   6.175  14.134
 4606SOL     OW15714   4.576   1.637   0.857
 4606SOL    HW115715   4.609   1.548   0.841
 4606SOL    HW215716   4.616   1.690   0.789
 4607SOL     OW15717  13.635  11.868   6.348
 4607SOL    HW115718  13.627  11.772   6.344
 4607SOL    HW215719  13.686  11.891   6.270
 4608SOL     OW15720  10.756   1.909   9.220
 4608SOL    HW115721  10.702   1.845   9.267
 4608SOL    HW215722  10.776   1.867   9.136
 4609SOL     OW15723   0.470   0.684   0.556
 4609SOL    HW115724   0.476   0.701   0.462
 4609SOL    HW215725   0.462   0.589   0.564
 4610SOL     OW15726   7.517  10.830   3.187
 4610SOL    HW115727   7.459  10.794   3.254
 4610SOL    HW215728   7.485  10.794   3.104
 4611SOL     OW15729  14.669  10.611   3.682
 4611SOL    HW115730  14.706  10.657   3.606
 4611SOL    HW215731  14.664  10.677   3.750
 4612SOL     OW15732  14.471  11.618   9.935
 4612SOL    HW115733  14.524  11.608   9.856
 4612SOL    HW215734  14.501  11.547   9.993
 4613SOL     OW15735   3.788   0.557   0.638
 4613SOL    HW115736   3.759   0.524   0.554
 4613SOL    HW215737   3.745   0.643   0.646
 4614SOL     OW15738  12.561  10.275   5.466
 4614SOL    HW115739  12.553  10.315   5.553
 4614SOL    HW215740  12.560  10.181   5.483
 4615SOL     OW15741   1.357  12.857  10.874
 4615SOL    HW115742   1.373  12.799  10.799
 4615SOL    HW215743   1.381  12.804  10.950
 4616SOL     OW15744   8.336   8.977  11.565
 4616SOL    HW115745   8.342   8.908  11.631
 4616SOL    HW215746   8.327   9.058  11.616
 4617SOL     OW15747   8.217   6.232  14.868
 4617SOL    HW115748   8.238   6.325  14.858
 4617SOL    HW215749   8.135   6.231   0.038
 4618SOL     OW15750   4.102   3.696  11.608
 4618SOL    HW115751   4.051   3.731  11.534
 4618SOL    HW215752   4.048   3.624  11.641
 4619SOL     OW15753   5.688  13.204  11.891
 4619SOL    HW115754   5.618  13.254  11.932
 4619SOL    HW215755   5.729  13.156  11.963
 4620SOL     OW15756   8.953  10.743   4.497
 4620SOL    HW115757   9.033  10.690   4.504
 4620SOL    HW215758   8.888  10.682   4.463
 4621SOL     OW15759  10.518   2.133   0.898
 4621SOL    HW115760  10.584   2.106   0.961
 4621SOL    HW215761  10.447   2.169   0.952
 4622SOL     OW15762  14.816   6.704   2.665
 4622SOL    HW115763  14.768   6.787   2.669
 4622SOL    HW215764  14.755   6.643   2.623
 4623SOL     OW15765   4.267   6.631  13.393
 4623SOL    HW115766   4.278   6.683  13.473
 4623SOL    HW215767   4.313   6.549  13.412
 4624SOL     OW15768   3.715   8.978   8.339
 4624SOL    HW115769   3.769   8.991   8.417
 4624SOL    HW215770   3.693   9.066   8.309
 4625SOL     OW15771   9.079  10.792  10.266
 4625SOL    HW115772   9.018  10.826  10.202
 4625SOL    HW215773   9.150  10.856  10.268
 4626SOL     OW15774   2.507   0.700   5.123
 4626SOL    HW115775   2.582   0.725   5.069
 4626SOL    HW215776   2.535   0.717   5.213
 4627SOL     OW15777   2.057   5.749  10.775
 4627SOL    HW115778   2.024   5.666  10.810
 4627SOL    HW215779   1.995   5.814  10.807
 4628SOL     OW15780   4.483  14.447  10.997
 4628SOL    HW115781   4.567  14.414  10.966
 4628SOL    HW215782   4.419  14.411  10.936
 4629SOL     OW15783   0.621   3.285  12.964
 4629SOL    HW115784   0.529   3.311  12.973
 4629SOL    HW215785   0.651   3.328  12.884
 4630SOL     OW15786   0.285  11.172   2.211
 4630SOL    HW115787   0.317  11.210   2.294
 4630SOL    HW215788   0.353  11.195   2.147
 4631SOL     OW15789   1.299   2.568   4.031
 4631SOL    HW115790   1.339   2.484   4.055
 4631SOL    HW215791   1.288   2.614   4.115
 4632SOL     OW15792   7.563   1.533  13.664
 4632SOL    HW115793   7.521   1.454  13.629
 4632SOL    HW215794   7.493   1.598  13.668
 4633SOL     OW15795   1.240   4.132  11.656
 4633SOL    HW115796   1.275   4.212  11.697
 4633SOL    HW215797   1.235   4.153  11.563
 4634SOL     OW15798   7.502   2.170   2.970
 4634SOL    HW115799   7.515   2.104   2.901
 4634SOL    HW215800   7.584   2.170   3.019
 4635SOL     OW15801  12.504   8.520  11.603
 4635SOL    HW115802  12.524   8.563  11.519
 4635SOL    HW215803  12.460   8.587  11.654
 4636SOL     OW15804   6.529  13.386   5.930
 4636SOL    HW115805   6.557  13.430   5.850
 4636SOL    HW215806   6.508  13.457   5.991
 4637SOL     OW15807   9.455   4.172   8.683
 4637SOL    HW115808   9.360   4.157   8.680
 4637SOL    HW215809   9.483   4.163   8.591
 4638SOL     OW15810  13.181   8.647   7.748
 4638SOL    HW115811  13.131   8.678   7.673
 4638SOL    HW215812  13.269   8.633   7.713
 4639SOL     OW15813   0.543   9.420   5.248
 4639SOL    HW115814   0.587   9.415   5.333
 4639SOL    HW215815   0.503   9.507   5.248
 4640SOL     OW15816   5.449  10.749   1.208
 4640SOL    HW115817   5.529  10.770   1.257
 4640SOL    HW215818   5.388  10.819   1.232
 4641SOL     OW15819  14.670   0.776  11.841
 4641SOL    HW115820  14.676   0.850  11.780
 4641SOL    HW215821  14.588   0.733  11.817
 4642SOL     OW15822   6.247   5.169   9.144
 4642SOL    HW115823   6.222   5.144   9.055
 4642SOL    HW215824   6.332   5.212   9.134
 4643SOL     OW15825   4.689   4.597   5.476
 4643SOL    HW115826   4.656   4.572   5.562
 4643SOL    HW215827   4.655   4.685   5.462
 4644SOL     OW15828  11.473  13.967   5.776
 4644SOL    HW115829  11.562  13.970   5.812
 4644SOL    HW215830  11.454  14.058   5.752
 4645SOL     OW15831   4.335  12.428   2.851
 4645SOL    HW115832   4.304  12.403   2.764
 4645SOL    HW215833   4.380  12.349   2.883
 4646SOL     OW15834   5.923  10.986   2.786
 4646SOL    HW115835   5.852  10.924   2.768
 4646SOL    HW215836   5.984  10.937   2.841
 4647SOL     OW15837   2.794  11.156  11.741
 4647SOL    HW115838   2.737  11.148  11.818
 4647SOL    HW215839   2.882  11.153  11.777
 4648SOL     OW15840   8.011  14.835   9.022
 4648SOL    HW115841   8.040  14.790   8.942
 4648SOL    HW215842   7.952  14.773   9.064
 4649SOL     OW15843   4.571   2.779   5.859
 4649SOL    HW115844   4.656   2.809   5.827
 4649SOL    HW215845   4.512   2.852   5.841
 4650SOL     OW15846   1.300  11.481  13.795
 4650SOL    HW115847   1.287  11.411  13.732
 4650SOL    HW215848   1.391  11.471  13.824
 4651SOL     OW15849  14.070  13.814   4.327
 4651SOL    HW115850  14.063  13.909   4.321
 4651SOL    HW215851  14.129  13.799   4.401
 4652SOL     OW15852  10.726   2.846   2.366
 4652SOL    HW115853  10.733   2.887   2.452
 4652SOL    HW215854  10.642   2.800   2.368
 4653SOL     OW15855   3.657   7.752   5.103
 4653SOL    HW115856   3.605   7.827   5.073
 4653SOL    HW215857   3.704   7.722   5.025
 4654SOL     OW15858   3.616   4.765  11.182
 4654SOL    HW115859   3.653   4.775  11.095
 4654SOL    HW215860   3.572   4.848  11.199
 4655SOL     OW15861  12.911  10.998   7.241
 4655SOL    HW115862  12.991  11.050   7.245
 4655SOL    HW215863  12.868  11.025   7.160
 4656SOL     OW15864   4.487  10.843   2.039
 4656SOL    HW115865   4.565  10.876   1.995
 4656SOL    HW215866   4.438  10.921   2.064
 4657SOL     OW15867  14.628  12.552  11.079
 4657SOL    HW115868  14.624  12.562  10.984
 4657SOL    HW215869  14.536  12.539  11.105
 4658SOL     OW15870  12.347  12.577  14.122
 4658SOL    HW115871  12.347  12.643  14.053
 4658SOL    HW215872  12.435  12.538  14.119
 4659SOL     OW15873   8.769  11.598  13.143
 4659SOL    HW115874   8.859  11.597  13.109
 4659SOL    HW215875   8.779  11.609  13.237
 4660SOL     OW15876  13.711   1.244   9.878
 4660SOL    HW115877  13.695   1.158   9.917
 4660SOL    HW215878  13.631   1.264   9.829
 4661SOL     OW15879   5.521   0.207  11.389
 4661SOL    HW115880   5.552   0.117  11.391
 4661SOL    HW215881   5.600   0.261  11.384
 4662SOL     OW15882   9.404   8.704   1.704
 4662SOL    HW115883   9.353   8.643   1.649
 4662SOL    HW215884   9.337   8.755   1.750
 4663SOL     OW15885  13.144  13.318   8.883
 4663SOL    HW115886  13.186  13.278   8.959
 4663SOL    HW215887  13.056  13.340   8.913
 4664SOL     OW15888  13.663   7.406   9.682
 4664SOL    HW115889  13.740   7.350   9.680
 4664SOL    HW215890  13.695   7.492   9.709
 4665SOL     OW15891  14.763   9.047   6.090
 4665SOL    HW115892  14.745   9.088   6.005
 4665SOL    HW215893  14.731   8.957   6.081
 4666SOL     OW15894  10.951   3.456   9.634
 4666SOL    HW115895  10.992   3.492   9.713
 4666SOL    HW215896  11.021   3.457   9.569
 4667SOL     OW15897   3.932   7.937   4.970
 4667SOL    HW115898   3.976   7.946   5.055
 4667SOL    HW215899   3.936   8.025   4.932
 4668SOL     OW15900   8.635   2.498  13.787
 4668SOL    HW115901   8.681   2.461  13.712
 4668SOL    HW215902   8.604   2.423  13.837
 4669SOL     OW15903   2.432   0.398   5.097
 4669SOL    HW115904   2.497   0.466   5.079
 4669SOL    HW215905   2.394   0.378   5.012
 4670SOL     OW15906   1.057  13.316  11.392
 4670SOL    HW115907   1.014  13.271  11.464
 4670SOL    HW215908   1.150  13.295  11.403
 4671SOL     OW15909   3.890   9.182   6.827
 4671SOL    HW115910   3.966   9.167   6.883
 4671SOL    HW215911   3.925   9.187   6.738
 4672SOL     OW15912   9.353   3.854   0.544
 4672SOL    HW115913   9.293   3.928   0.539
 4672SOL    HW215914   9.439   3.893   0.558
 4673SOL     OW15915   5.612  13.024  11.715
 4673SOL    HW115916   5.616  13.064  11.628
 4673SOL    HW215917   5.643  13.092  11.774
 4674SOL     OW15918   9.001  10.421   8.814
 4674SOL    HW115919   8.923  10.409   8.868
 4674SOL    HW215920   9.074  10.410   8.875
 4675SOL     OW15921  12.456  13.604   6.926
 4675SOL    HW115922  12.464  13.685   6.976
 4675SOL    HW215923  12.365  13.601   6.898
 4676SOL     OW15924   4.131  11.943  10.407
 4676SOL    HW115925   4.110  11.993  10.486
 4676SOL    HW215926   4.061  11.965  10.345
 4677SOL     OW15927  10.171   2.053  11.269
 4677SOL    HW115928  10.097   2.079  11.214
 4677SOL    HW215929  10.168   2.114  11.343
 4678SOL     OW15930  13.419  13.639  10.579
 4678SOL    HW115931  13.511  13.621  10.561
 4678SOL    HW215932  13.416  13.733  10.597
 4679SOL     OW15933   4.845   2.265  13.617
 4679SOL    HW115934   4.886   2.204  13.556
 4679SOL    HW215935   4.845   2.349  13.571
 4680SOL     OW15936   5.484   3.473   2.421
 4680SOL    HW115937   5.393   3.443   2.421
 4680SOL    HW215938   5.521   3.437   2.502
 4681SOL     OW15939   2.314   1.437   6.382
 4681SOL    HW115940   2.219   1.427   6.387
 4681SOL    HW215941   2.348   1.359   6.425
 4682SOL     OW15942   8.515   8.321   2.540
 4682SOL    HW115943   8.524   8.382   2.614
 4682SOL    HW215944   8.598   8.327   2.494
 4683SOL     OW15945   6.442   0.611  10.820
 4683SOL    HW115946   6.483   0.616  10.906
 4683SOL    HW215947   6.514   0.624  10.758
 4684SOL     OW15948   9.235  13.875  11.387
 4684SOL    HW115949   9.202  13.932  11.455
 4684SOL    HW215950   9.237  13.929  11.308
 4685SOL     OW15951   8.775  11.939   4.147
 4685SOL    HW115952   8.808  11.863   4.195
 4685SOL    HW215953   8.772  11.911   4.056
 4686SOL     OW15954   8.635   1.337   4.185
 4686SOL    HW115955   8.546   1.366   4.206
 4686SOL    HW215956   8.624   1.278   4.110
 4687SOL     OW15957   5.437   5.863   1.678
 4687SOL    HW115958   5.524   5.902   1.690
 4687SOL    HW215959   5.418   5.874   1.585
 4688SOL     OW15960   6.992  10.834   2.149
 4688SOL    HW115961   6.920  10.798   2.097
 4688SOL    HW215962   7.017  10.914   2.103
 4689SOL     OW15963   6.252   2.384   3.727
 4689SOL    HW115964   6.180   2.447   3.727
 4689SOL    HW215965   6.231   2.324   3.798
 4690SOL     OW15966   7.985   7.536   5.139
 4690SOL    HW115967   7.947   7.573   5.059
 4690SOL    HW215968   7.929   7.567   5.209
 4691SOL     OW15969  14.813   3.961   4.972
 4691SOL    HW115970  14.795   3.971   5.065
 4691SOL    HW215971   0.013   4.010   4.957
 4692SOL     OW15972   1.115   8.286   5.454
 4692SOL    HW115973   1.037   8.240   5.422
 4692SOL    HW215974   1.082   8.348   5.519
 4693SOL     OW15975   3.609  10.923   0.167
 4693SOL    HW115976   3.642  11.012   0.154
 4693SOL    HW215977   3.687  10.871   0.184
 4694SOL     OW15978  11.593   4.308  12.669
 4694SOL    HW115979  11.666   4.272  12.618
 4694SOL    HW215980  11.617   4.289  12.760
 4695SOL     OW15981   0.839   0.411   5.271
 4695SOL    HW115982   0.858   0.344   5.336
 4695SOL    HW215983   0.840   0.364   5.187
 4696SOL     OW15984   8.236  10.679  13.927
 4696SOL    HW115985   8.152  10.639  13.947
 4696SOL    HW215986   8.219  10.773  13.930
 4697SOL     OW15987  13.167   0.341  14.807
 4697SOL    HW115988  13.207   0.279  14.747
 4697SOL    HW215989  13.082   0.361  14.769
 4698SOL     OW15990  14.633   9.162   9.111
 4698SOL    HW115991  14.702   9.171   9.046
 4698SOL    HW215992  14.568   9.105   9.070
 4699SOL     OW15993   5.566  12.010   6.188
 4699SOL    HW115994   5.555  12.049   6.101
 4699SOL    HW215995   5.512  12.064   6.245
 4700SOL     OW15996   0.293   4.958   0.880
 4700SOL    HW115997   0.238   4.971   0.958
 4700SOL    HW215998   0.258   4.879   0.840
 4701SOL     OW15999   7.223   0.748   3.196
 4701SOL    HW116000   7.160   0.801   3.245
 4701SOL    HW216001   7.308   0.784   3.220
 4702SOL     OW16002   0.738   7.184  11.534
 4702SOL    HW116003   0.767   7.275  11.538
 4702SOL    HW216004   0.660   7.182  11.590
 4703SOL     OW16005   9.090  11.088   1.401
 4703SOL    HW116006   9.004  11.069   1.365
 4703SOL    HW216007   9.071  11.141   1.479
 4704SOL     OW16008   9.720   3.466   2.818
 4704SOL    HW116009   9.741   3.373   2.821
 4704SOL    HW216010   9.684   3.479   2.730
 4705SOL     OW16011  13.769   7.169   2.826
 4705SOL    HW116012  13.758   7.211   2.911
 4705SOL    HW216013  13.705   7.213   2.769
 4706SOL     OW16014   7.601   1.549   9.904
 4706SOL    HW116015   7.661   1.589   9.842
 4706SOL    HW216016   7.658   1.500   9.964
 4707SOL     OW16017  11.969   9.599   2.996
 4707SOL    HW116018  11.949   9.689   2.971
 4707SOL    HW216019  11.900   9.546   2.956
 4708SOL     OW16020   9.652   7.093   8.057
 4708SOL    HW116021   9.641   7.120   8.148
 4708SOL    HW216022   9.744   7.069   8.050
 4709SOL     OW16023   8.654   1.928  11.270
 4709SOL    HW116024   8.716   1.871  11.225
 4709SOL    HW216025   8.577   1.929  11.213
 4710SOL     OW16026  11.603   8.876   2.436
 4710SOL    HW116027  11.539   8.922   2.381
 4710SOL    HW216028  11.611   8.929   2.515
 4711SOL     OW16029   1.134  14.646   3.512
 4711SOL    HW116030   1.169  14.661   3.424
 4711SOL    HW216031   1.208  14.612   3.562
 4712SOL     OW16032   8.658   2.577   1.730
 4712SOL    HW116033   8.598   2.533   1.790
 4712SOL    HW216034   8.745   2.563   1.768
 4713SOL     OW16035  12.841  10.756  14.606
 4713SOL    HW116036  12.908  10.820  14.630
 4713SOL    HW216037  12.870  10.721  14.522
 4714SOL     OW16038   3.469  12.279  10.968
 4714SOL    HW116039   3.379  12.272  10.999
 4714SOL    HW216040   3.522  12.249  11.041
 4715SOL     OW16041  12.138  12.100   8.504
 4715SOL    HW116042  12.161  12.158   8.431
 4715SOL    HW216043  12.186  12.136   8.579
 4716SOL     OW16044   1.094   3.487   0.182
 4716SOL    HW116045   1.057   3.499   0.270
 4716SOL    HW216046   1.093   3.574   0.143
 4717SOL     OW16047   8.775   0.469   4.177
 4717SOL    HW116048   8.731   0.507   4.253
 4717SOL    HW216049   8.756   0.376   4.182
 4718SOL     OW16050  12.673  12.962   2.607
 4718SOL    HW116051  12.647  12.873   2.584
 4718SOL    HW216052  12.768  12.960   2.608
 4719SOL     OW16053   6.830   0.180   3.337
 4719SOL    HW116054   6.821   0.087   3.359
 4719SOL    HW216055   6.831   0.182   3.242
 4720SOL     OW16056   2.814  12.523  10.143
 4720SOL    HW116057   2.837  12.430  10.135
 4720SOL    HW216058   2.889  12.569  10.106
 4721SOL     OW16059  12.220  11.103   4.839
 4721SOL    HW116060  12.311  11.081   4.822
 4721SOL    HW216061  12.173  11.020   4.825
 4722SOL     OW16062   2.682   0.257   7.393
 4722SOL    HW116063   2.589   0.250   7.414
 4722SOL    HW216064   2.727   0.248   7.477
 4723SOL     OW16065   1.124   3.143   0.887
 4723SOL    HW116066   1.157   3.223   0.848
 4723SOL    HW216067   1.048   3.170   0.939
 4724SOL     OW16068  13.749  10.115   5.599
 4724SOL    HW116069  13.825  10.149   5.646
 4724SOL    HW216070  13.687  10.187   5.597
 4725SOL     OW16071   8.554  11.172  11.572
 4725SOL    HW116072   8.497  11.099  11.549
 4725SOL    HW216073   8.494  11.239  11.605
 4726SOL     OW16074   8.564   3.404  13.248
 4726SOL    HW116075   8.630   3.335  13.242
 4726SOL    HW216076   8.614   3.485  13.260
 4727SOL     OW16077   9.636   5.680   6.409
 4727SOL    HW116078   9.606   5.723   6.489
 4727SOL    HW216079   9.653   5.751   6.347
 4728SOL     OW16080   6.020   6.323   1.452
 4728SOL    HW116081   5.975   6.392   1.501
 4728SOL    HW216082   5.991   6.242   1.494
 4729SOL     OW16083   8.635   3.838   4.099
 4729SOL    HW116084   8.596   3.787   4.028
 4729SOL    HW216085   8.715   3.874   4.060
 4730SOL     OW16086  13.595   0.908  11.033
 4730SOL    HW116087  13.504   0.923  11.056
 4730SOL    HW216088  13.641   0.903  11.117
 4731SOL     OW16089   7.005   6.837   4.023
 4731SOL    HW116090   6.961   6.868   3.944
 4731SOL    HW216091   7.093   6.874   4.017
 4732SOL     OW16092  14.761   0.207   4.254
 4732SOL    HW116093  14.708   0.270   4.205
 4732SOL    HW216094  14.743   0.226   4.346
 4733SOL     OW16095   2.862   8.573  10.080
 4733SOL    HW116096   2.869   8.621  10.163
 4733SOL    HW216097   2.839   8.483  10.107
 4734SOL     OW16098   7.865  10.037   9.879
 4734SOL    HW116099   7.827  10.068   9.961
 4734SOL    HW216100   7.902  10.115   9.838
 4735SOL     OW16101   9.631   5.231   3.692
 4735SOL    HW116102   9.668   5.295   3.753
 4735SOL    HW216103   9.674   5.149   3.714
 4736SOL     OW16104   0.071   8.364  14.319
 4736SOL    HW116105  14.862   8.370  14.284
 4736SOL    HW216106   0.107   8.284  14.282
 4737SOL     OW16107  14.492   5.625   1.547
 4737SOL    HW116108  14.436   5.548   1.547
 4737SOL    HW216109  14.436   5.696   1.516
 4738SOL     OW16110   0.084   6.722   7.813
 4738SOL    HW116111   0.017   6.687   7.871
 4738SOL    HW216112   0.036   6.774   7.749
 4739SOL     OW16113   5.053   2.575   2.556
 4739SOL    HW116114   5.142   2.542   2.565
 4739SOL    HW216115   5.052   2.656   2.607
 4740SOL     OW16116  13.997   5.526   7.624
 4740SOL    HW116117  13.921   5.498   7.573
 4740SOL    HW216118  14.072   5.505   7.569
 4741SOL     OW16119  11.579   7.352   7.300
 4741SOL    HW116120  11.598   7.399   7.382
 4741SOL    HW216121  11.605   7.413   7.231
 4742SOL     OW16122  13.903  12.354   1.515
 4742SOL    HW116123  13.862  12.294   1.577
 4742SOL    HW216124  13.994  12.361   1.544
 4743SOL     OW16125   3.416   3.431  12.098
 4743SOL    HW116126   3.366   3.510  12.075
 4743SOL    HW216127   3.504   3.463  12.115
 4744SOL     OW16128   6.790   5.240   0.766
 4744SOL    HW116129   6.862   5.249   0.704
 4744SOL    HW216130   6.766   5.148   0.763
 4745SOL     OW16131  12.503  13.168   7.512
 4745SOL    HW116132  12.587  13.211   7.495
 4745SOL    HW216133  12.476  13.135   7.427
 4746SOL     OW16134  13.187  10.473  10.790
 4746SOL    HW116135  13.135  10.506  10.717
 4746SOL    HW216136  13.210  10.384  10.765
 4747SOL     OW16137   5.220   9.054  12.368
 4747SOL    HW116138   5.300   9.070  12.418
 4747SOL    HW216139   5.168   9.133  12.379
 4748SOL     OW16140  12.289   8.036   0.257
 4748SOL    HW116141  12.328   7.994   0.180
 4748SOL    HW216142  12.199   8.005   0.258
 4749SOL     OW16143  12.134   1.007  12.771
 4749SOL    HW116144  12.222   1.042  12.756
 4749SOL    HW216145  12.127   0.999  12.866
 4750SOL     OW16146   1.893   7.940   5.989
 4750SOL    HW116147   1.948   7.928   5.912
 4750SOL    HW216148   1.949   7.919   6.063
 4751SOL     OW16149   2.788   3.009   8.692
 4751SOL    HW116150   2.818   2.959   8.616
 4751SOL    HW216151   2.696   2.984   8.703
 4752SOL     OW16152  13.306   4.960   9.924
 4752SOL    HW116153  13.270   4.931   9.840
 4752SOL    HW216154  13.333   5.051   9.908
 4753SOL     OW16155   9.959  12.319  12.217
 4753SOL    HW116156  10.050  12.296  12.196
 4753SOL    HW216157   9.963  12.357  12.305
 4754SOL     OW16158   5.907   9.184  11.010
 4754SOL    HW116159   5.884   9.195  11.102
 4754SOL    HW216160   5.937   9.271  10.982
 4755SOL     OW16161   3.036   6.176  10.169
 4755SOL    HW116162   3.067   6.129  10.092
 4755SOL    HW216163   3.000   6.107  10.226
 4756SOL     OW16164   0.677  13.933  13.855
 4756SOL    HW116165   0.601  13.900  13.806
 4756SOL    HW216166   0.695  14.018  13.816
 4757SOL     OW16167   3.125   2.588   6.307
 4757SOL    HW116168   3.048   2.641   6.330
 4757SOL    HW216169   3.164   2.635   6.233
 4758SOL     OW16170  11.395  12.159   3.595
 4758SOL    HW116171  11.462  12.223   3.571
 4758SOL    HW216172  11.369  12.183   3.684
 4759SOL     OW16173   8.211   2.930   2.808
 4759SOL    HW116174   8.236   2.985   2.733
 4759SOL    HW216175   8.136   2.880   2.776
 4760SOL     OW16176   5.055   8.313   7.818
 4760SOL    HW116177   5.122   8.360   7.768
 4760SOL    HW216178   4.978   8.316   7.762
 4761SOL     OW16179   0.210  11.322  13.071
 4761SOL    HW116180   0.155  11.324  12.993
 4761SOL    HW216181   0.299  11.316  13.037
 4762SOL     OW16182   3.784   3.609   7.810
 4762SOL    HW116183   3.714   3.645   7.865
 4762SOL    HW216184   3.763   3.639   7.722
 4763SOL     OW16185  14.254   8.833  11.296
 4763SOL    HW116186  14.175   8.804  11.251
 4763SOL    HW216187  14.317   8.762  11.283
 4764SOL     OW16188   0.381  13.030   6.907
 4764SOL    HW116189   0.468  12.991   6.912
 4764SOL    HW216190   0.379  13.072   6.822
 4765SOL     OW16191   3.744  10.696   4.526
 4765SOL    HW116192   3.759  10.619   4.581
 4765SOL    HW216193   3.774  10.770   4.579
 4766SOL     OW16194   2.179   7.455  10.044
 4766SOL    HW116195   2.114   7.475   9.977
 4766SOL    HW216196   2.229   7.536  10.055
 4767SOL     OW16197   4.448   1.677   7.933
 4767SOL    HW116198   4.399   1.752   7.965
 4767SOL    HW216199   4.514   1.661   8.000
 4768SOL     OW16200   4.547  14.752  11.925
 4768SOL    HW116201   4.614  14.795  11.979
 4768SOL    HW216202   4.479  14.818  11.915
 4769SOL     OW16203  10.368  11.596   4.158
 4769SOL    HW116204  10.333  11.594   4.069
 4769SOL    HW216205  10.326  11.671   4.199
 4770SOL     OW16206   0.674   8.219   5.855
 4770SOL    HW116207   0.717   8.268   5.925
 4770SOL    HW216208   0.704   8.262   5.774
 4771SOL     OW16209   7.387   4.079   7.809
 4771SOL    HW116210   7.406   4.019   7.881
 4771SOL    HW216211   7.303   4.118   7.832
 4772SOL     OW16212   8.480   5.789  11.001
 4772SOL    HW116213   8.445   5.784  11.090
 4772SOL    HW216214   8.490   5.698  10.974
 4773SOL     OW16215   1.055  13.389   3.434
 4773SOL    HW116216   1.122  13.447   3.397
 4773SOL    HW216217   1.028  13.334   3.361
 4774SOL     OW16218   6.235   6.901   0.759
 4774SOL    HW116219   6.165   6.917   0.821
 4774SOL    HW216220   6.192   6.858   0.685
 4775SOL     OW16221   1.657   2.603   5.189
 4775SOL    HW116222   1.752   2.608   5.180
 4775SOL    HW216223   1.624   2.599   5.099
 4776SOL     OW16224   6.152  11.170   6.103
 4776SOL    HW116225   6.211  11.171   6.027
 4776SOL    HW216226   6.098  11.092   6.090
 4777SOL     OW16227   4.930  11.233   6.997
 4777SOL    HW116228   4.926  11.316   7.045
 4777SOL    HW216229   4.867  11.176   7.042
 4778SOL     OW16230   6.808   7.609   7.414
 4778SOL    HW116231   6.899   7.589   7.438
 4778SOL    HW216232   6.812   7.700   7.384
 4779SOL     OW16233  13.847   2.320   5.522
 4779SOL    HW116234  13.910   2.391   5.532
 4779SOL    HW216235  13.771   2.360   5.479
 4780SOL     OW16236   2.367   2.579  11.593
 4780SOL    HW116237   2.301   2.541  11.536
 4780SOL    HW216238   2.327   2.581  11.680
 4781SOL     OW16239   6.405   6.799  13.092
 4781SOL    HW116240   6.342   6.771  13.158
 4781SOL    HW216241   6.394   6.894  13.086
 4782SOL     OW16242   2.892   6.380   3.193
 4782SOL    HW116243   2.799   6.381   3.168
 4782SOL    HW216244   2.912   6.287   3.205
 4783SOL     OW16245   1.664   3.459  13.622
 4783SOL    HW116246   1.629   3.515  13.552
 4783SOL    HW216247   1.695   3.381  13.577
 4784SOL     OW16248  13.550   1.224   6.437
 4784SOL    HW116249  13.457   1.205   6.425
 4784SOL    HW216250  13.577   1.166   6.508
 4785SOL     OW16251   9.658   2.627   6.003
 4785SOL    HW116252   9.619   2.596   5.921
 4785SOL    HW216253   9.619   2.713   6.017
 4786SOL     OW16254   8.654   9.439   9.530
 4786SOL    HW116255   8.575   9.480   9.565
 4786SOL    HW216256   8.678   9.493   9.455
 4787SOL     OW16257  10.892   1.494   5.036
 4787SOL    HW116258  10.912   1.582   5.004
 4787SOL    HW216259  10.955   1.437   4.991
 4788SOL     OW16260   0.790   7.194   3.563
 4788SOL    HW116261   0.821   7.278   3.596
 4788SOL    HW216262   0.835   7.129   3.617
 4789SOL     OW16263  13.629  11.936   1.730
 4789SOL    HW116264  13.654  11.843   1.730
 4789SOL    HW216265  13.533  11.935   1.724
 4790SOL     OW16266   4.291   7.624   5.018
 4790SOL    HW116267   4.345   7.566   5.072
 4790SOL    HW216268   4.330   7.620   4.931
 4791SOL     OW16269   5.463   7.607   2.857
 4791SOL    HW116270   5.405   7.647   2.793
 4791SOL    HW216271   5.405   7.554   2.912
 4792SOL     OW16272   0.897  13.331   0.875
 4792SOL    HW116273   0.888  13.239   0.897
 4792SOL    HW216274   0.821  13.350   0.819
 4793SOL     OW16275   3.545  11.863   3.736
 4793SOL    HW116276   3.544  11.917   3.657
 4793SOL    HW216277   3.614  11.799   3.721
 4794SOL     OW16278   6.529   8.669  12.204
 4794SOL    HW116279   6.588   8.735  12.239
 4794SOL    HW216280   6.478   8.715  12.136
 4795SOL     OW16281  10.916  12.171   6.151
 4795SOL    HW116282  10.829  12.141   6.177
 4795SOL    HW216283  10.899  12.240   6.086
 4796SOL     OW16284   8.185   5.096   3.345
 4796SOL    HW116285   8.200   5.079   3.438
 4796SOL    HW216286   8.089   5.096   3.336
 4797SOL     OW16287   3.856   0.231   1.548
 4797SOL    HW116288   3.798   0.169   1.592
 4797SOL    HW216289   3.841   0.216   1.455
 4798SOL     OW16290  13.131   3.243  14.259
 4798SOL    HW116291  13.176   3.319  14.222
 4798SOL    HW216292  13.169   3.168  14.213
 4799SOL     OW16293   7.271  14.789   1.721
 4799SOL    HW116294   7.202  14.848   1.695
 4799SOL    HW216295   7.309  14.829   1.799
 4800SOL     OW16296   1.813  11.057   5.903
 4800SOL    HW116297   1.763  10.987   5.860
 4800SOL    HW216298   1.888  11.072   5.846
 4801SOL     OW16299   8.783   5.184   2.905
 4801SOL    HW116300   8.761   5.273   2.878
 4801SOL    HW216301   8.782   5.187   3.000
 4802SOL     OW16302  13.134   7.039  14.635
 4802SOL    HW116303  13.228   7.026  14.644
 4802SOL    HW216304  13.123   7.072  14.545
 4803SOL     OW16305  11.847   4.103   3.492
 4803SOL    HW116306  11.762   4.138   3.519
 4803SOL    HW216307  11.887   4.175   3.443
 4804SOL     OW16308   6.412   8.916   5.862
 4804SOL    HW116309   6.443   8.863   5.935
 4804SOL    HW216310   6.482   8.911   5.797
 4805SOL     OW16311   4.520   4.642   0.921
 4805SOL    HW116312   4.436   4.652   0.966
 4805SOL    HW216313   4.561   4.567   0.964
 4806SOL     OW16314   8.551   1.221  12.684
 4806SOL    HW116315   8.560   1.152  12.750
 4806SOL    HW216316   8.607   1.193  12.612
 4807SOL     OW16317   1.241   2.677   1.926
 4807SOL    HW116318   1.286   2.708   1.847
 4807SOL    HW216319   1.168   2.738   1.938
 4808SOL     OW16320  13.142  13.997   0.805
 4808SOL    HW116321  13.101  14.060   0.864
 4808SOL    HW216322  13.232  14.027   0.796
 4809SOL     OW16323   8.945   5.968   4.976
 4809SOL    HW116324   8.877   5.909   5.009
 4809SOL    HW216325   8.988   6.002   5.055
 4810SOL     OW16326   3.610   9.612  14.311
 4810SOL    HW116327   3.652   9.538  14.268
 4810SOL    HW216328   3.545   9.643  14.249
 4811SOL     OW16329   5.750   0.236  10.736
 4811SOL    HW116330   5.798   0.305  10.782
 4811SOL    HW216331   5.681   0.282  10.689
 4812SOL     OW16332   5.417  10.768   7.669
 4812SOL    HW116333   5.495  10.795   7.717
 4812SOL    HW216334   5.403  10.838   7.605
 4813SOL     OW16335   1.191   3.728  14.410
 4813SOL    HW116336   1.175   3.780  14.331
 4813SOL    HW216337   1.109   3.735  14.460
 4814SOL     OW16338  11.813  10.890   0.431
 4814SOL    HW116339  11.894  10.884   0.380
 4814SOL    HW216340  11.782  10.800   0.438
 4815SOL     OW16341   5.535   5.029   7.392
 4815SOL    HW116342   5.506   5.099   7.334
 4815SOL    HW216343   5.527   5.066   7.480
 4816SOL     OW16344   8.899  12.979   9.761
 4816SOL    HW116345   8.924  12.923   9.834
 4816SOL    HW216346   8.943  12.941   9.685
 4817SOL     OW16347   0.494  11.224   2.057
 4817SOL    HW116348   0.540  11.202   2.137
 4817SOL    HW216349   0.492  11.142   2.007
 4818SOL     OW16350   1.431   5.001   7.019
 4818SOL    HW116351   1.415   5.077   6.964
 4818SOL    HW216352   1.518   4.971   6.993
 4819SOL     OW16353  13.533   2.278  12.901
 4819SOL    HW116354  13.496   2.363  12.924
 4819SOL    HW216355  13.472   2.242  12.837
 4820SOL     OW16356   7.045   0.975  11.234
 4820SOL    HW116357   7.051   1.001  11.142
 4820SOL    HW216358   7.136   0.978  11.266
 4821SOL     OW16359  14.255   9.140  12.525
 4821SOL    HW116360  14.267   9.212  12.587
 4821SOL    HW216361  14.313   9.070  12.558
 4822SOL     OW16362   1.189   1.205  10.656
 4822SOL    HW116363   1.205   1.122  10.610
 4822SOL    HW216364   1.269   1.255  10.643
 4823SOL     OW16365   5.830   0.261   6.152
 4823SOL    HW116366   5.837   0.191   6.087
 4823SOL    HW216367   5.746   0.246   6.195
 4824SOL     OW16368   7.830   0.031   5.922
 4824SOL    HW116369   7.835  14.867   6.007
 4824SOL    HW216370   7.738   0.056   5.913
 4825SOL     OW16371   0.751   9.359  12.926
 4825SOL    HW116372   0.836   9.349  12.881
 4825SOL    HW216373   0.735   9.273  12.965
 4826SOL     OW16374   5.457  10.623   5.271
 4826SOL    HW116375   5.418  10.693   5.324
 4826SOL    HW216376   5.526  10.667   5.221
 4827SOL     OW16377   9.821   3.429   9.499
 4827SOL    HW116378   9.875   3.362   9.457
 4827SOL    HW216379   9.735   3.420   9.458
 4828SOL     OW16380  13.821  11.647   7.641
 4828SOL    HW116381  13.792  11.636   7.551
 4828SOL    HW216382  13.856  11.736   7.645
 4829SOL     OW16383   2.554   5.097   4.446
 4829SOL    HW116384   2.572   5.009   4.413
 4829SOL    HW216385   2.592   5.155   4.379
 4830SOL     OW16386   6.866  10.110   7.350
 4830SOL    HW116387   6.843  10.125   7.442
 4830SOL    HW216388   6.827  10.026   7.329
 4831SOL     OW16389   3.327   4.250  12.118
 4831SOL    HW116390   3.275   4.331  12.113
 4831SOL    HW216391   3.399   4.265  12.058
 4832SOL     OW16392   8.346  11.840   9.644
 4832SOL    HW116393   8.403  11.796   9.707
 4832SOL    HW216394   8.304  11.768   9.596
 4833SOL     OW16395   6.841  14.101  11.705
 4833SOL    HW116396   6.818  14.179  11.755
 4833SOL    HW216397   6.890  14.047  11.767
 4834SOL     OW16398  13.610   9.625   5.970
 4834SOL    HW116399  13.684   9.645   5.913
 4834SOL    HW216400  13.646   9.566   6.036
 4835SOL     OW16401   3.117  11.435   5.945
 4835SOL    HW116402   3.117  11.529   5.961
 4835SOL    HW216403   3.038  11.419   5.893
 4836SOL     OW16404  10.079   5.315   4.170
 4836SOL    HW116405  10.015   5.264   4.119
 4836SOL    HW216406  10.078   5.275   4.257
 4837SOL     OW16407  11.735  11.623  13.228
 4837SOL    HW116408  11.803  11.690  13.224
 4837SOL    HW216409  11.781  11.541  13.207
 4838SOL     OW16410   2.992   5.478  14.143
 4838SOL    HW116411   2.959   5.562  14.111
 4838SOL    HW216412   3.073   5.501  14.189
 4839SOL     OW16413   3.501   1.384  14.166
 4839SOL    HW116414   3.581   1.431  14.189
 4839SOL    HW216415   3.443   1.398  14.241
 4840SOL     OW16416   9.059   9.179   0.608
 4840SOL    HW116417   8.964   9.178   0.593
 4840SOL    HW216418   9.097   9.179   0.520
 4841SOL     OW16419   2.649   0.602  13.668
 4841SOL    HW116420   2.596   0.542  13.615
 4841SOL    HW216421   2.739   0.589  13.636
 4842SOL     OW16422  10.963   1.716   8.113
 4842SOL    HW116423  11.054   1.741   8.104
 4842SOL    HW216424  10.939   1.681   8.027
 4843SOL     OW16425   3.317  11.437   0.524
 4843SOL    HW116426   3.381  11.367   0.507
 4843SOL    HW216427   3.250  11.424   0.457
 4844SOL     OW16428   3.346   1.470   7.107
 4844SOL    HW116429   3.322   1.432   7.023
 4844SOL    HW216430   3.406   1.406   7.146
 4845SOL     OW16431   0.837   5.648   1.664
 4845SOL    HW116432   0.869   5.653   1.574
 4845SOL    HW216433   0.867   5.730   1.704
 4846SOL     OW16434   8.532  11.809   6.692
 4846SOL    HW116435   8.485  11.732   6.724
 4846SOL    HW216436   8.560  11.855   6.771
 4847SOL     OW16437  14.077  12.348   7.018
 4847SOL    HW116438  14.152  12.365   7.074
 4847SOL    HW216439  14.001  12.360   7.074
 4848SOL     OW16440  11.175   4.316  11.556
 4848SOL    HW116441  11.203   4.407  11.553
 4848SOL    HW216442  11.108   4.314  11.625
 4849SOL     OW16443  13.612   0.916   5.195
 4849SOL    HW116444  13.549   0.947   5.261
 4849SOL    HW216445  13.640   0.830   5.228
 4850SOL     OW16446   7.686   6.724   9.720
 4850SOL    HW116447   7.658   6.815   9.728
 4850SOL    HW216448   7.640   6.691   9.643
 4851SOL     OW16449   6.581   6.366   3.174
 4851SOL    HW116450   6.544   6.451   3.152
 4851SOL    HW216451   6.659   6.386   3.226
 4852SOL     OW16452   3.601   5.064   4.197
 4852SOL    HW116453   3.641   4.980   4.221
 4852SOL    HW216454   3.598   5.063   4.102
 4853SOL     OW16455   6.126  14.527   0.444
 4853SOL    HW116456   6.134  14.485   0.358
 4853SOL    HW216457   6.053  14.588   0.434
 4854SOL     OW16458   4.613   5.569  10.590
 4854SOL    HW116459   4.529   5.613  10.594
 4854SOL    HW216460   4.674   5.637  10.562
 4855SOL     OW16461  12.645  14.088   6.006
 4855SOL    HW116462  12.687  14.025   5.947
 4855SOL    HW216463  12.644  14.170   5.957
 4856SOL     OW16464   6.753   0.868   1.930
 4856SOL    HW116465   6.800   0.835   1.854
 4856SOL    HW216466   6.712   0.791   1.968
 4857SOL     OW16467   4.528   7.645   0.284
 4857SOL    HW116468   4.455   7.653   0.222
 4857SOL    HW216469   4.579   7.726   0.271
 4858SOL     OW16470   9.610   1.357   8.241
 4858SOL    HW116471   9.676   1.328   8.178
 4858SOL    HW216472   9.660   1.404   8.308
 4859SOL     OW16473  11.604   8.720  12.721
 4859SOL    HW116474  11.571   8.705  12.810
 4859SOL    HW216475  11.539   8.677  12.665
 4860SOL     OW16476   6.439   1.406   1.079
 4860SOL    HW116477   6.351   1.407   1.043
 4860SOL    HW216478   6.443   1.327   1.132
 4861SOL     OW16479   6.049   2.566   3.801
 4861SOL    HW116480   6.043   2.662   3.802
 4861SOL    HW216481   6.037   2.540   3.892
 4862SOL     OW16482   5.574  12.032   0.972
 4862SOL    HW116483   5.505  12.037   0.906
 4862SOL    HW216484   5.608  11.943   0.964
 4863SOL     OW16485   3.532  12.298   3.740
 4863SOL    HW116486   3.504  12.379   3.783
 4863SOL    HW216487   3.561  12.241   3.812
 4864SOL     OW16488   4.776  14.560  10.696
 4864SOL    HW116489   4.788  14.477  10.741
 4864SOL    HW216490   4.683  14.563  10.674
 4865SOL     OW16491  10.035  12.990  12.020
 4865SOL    HW116492  10.083  12.943  12.088
 4865SOL    HW216493   9.997  13.065  12.065
 4866SOL     OW16494   2.584   9.425  11.368
 4866SOL    HW116495   2.497   9.445  11.334
 4866SOL    HW216496   2.608   9.503  11.418
 4867SOL     OW16497  11.333   2.510   6.107
 4867SOL    HW116498  11.262   2.465   6.153
 4867SOL    HW216499  11.308   2.507   6.014
 4868SOL     OW16500   4.834  12.422  10.126
 4868SOL    HW116501   4.777  12.499  10.136
 4868SOL    HW216502   4.778  12.357  10.082
 4869SOL     OW16503   8.539   8.915   7.169
 4869SOL    HW116504   8.615   8.859   7.181
 4869SOL    HW216505   8.575   8.999   7.141
 4870SOL     OW16506  13.584   3.561   7.859
 4870SOL    HW116507  13.533   3.493   7.903
 4870SOL    HW216508  13.674   3.528   7.860
 4871SOL     OW16509  14.246  11.722  13.190
 4871SOL    HW116510  14.280  11.723  13.279
 4871SOL    HW216511  14.156  11.692  13.198
 4872SOL     OW16512   1.808   2.035   7.646
 4872SOL    HW116513   1.819   2.120   7.604
 4872SOL    HW216514   1.714   2.017   7.639
 4873SOL     OW16515  10.598   0.061   7.850
 4873SOL    HW116516  10.669   0.068   7.786
 4873SOL    HW216517  10.576  14.848   7.852
 4874SOL     OW16518   1.550   2.626   1.349
 4874SOL    HW116519   1.575   2.712   1.315
 4874SOL    HW216520   1.603   2.614   1.427
 4875SOL     OW16521  12.476  12.015   7.697
 4875SOL    HW116522  12.536  12.050   7.762
 4875SOL    HW216523  12.501  11.923   7.688
 4876SOL     OW16524   8.247  14.024  14.424
 4876SOL    HW116525   8.236  13.943  14.475
 4876SOL    HW216526   8.206  14.092  14.477
 4877SOL     OW16527  11.183  14.742  12.882
 4877SOL    HW116528  11.201  14.826  12.841
 4877SOL    HW216529  11.229  14.678  12.827
 4878SOL     OW16530  12.651  11.321   5.092
 4878SOL    HW116531  12.570  11.271   5.081
 4878SOL    HW216532  12.719  11.263   5.058
 4879SOL     OW16533   2.812   7.015  10.775
 4879SOL    HW116534   2.720   6.991  10.773
 4879SOL    HW216535   2.857   6.943  10.731
 4880SOL     OW16536   7.443   9.706   3.392
 4880SOL    HW116537   7.352   9.681   3.406
 4880SOL    HW216538   7.457   9.690   3.298
 4881SOL     OW16539   6.783   7.905  11.706
 4881SOL    HW116540   6.717   7.886  11.638
 4881SOL    HW216541   6.732   7.933  11.781
 4882SOL     OW16542   5.560   4.783   3.145
 4882SOL    HW116543   5.624   4.735   3.197
 4882SOL    HW216544   5.604   4.799   3.061
 4883SOL     OW16545   9.577   7.888   6.669
 4883SOL    HW116546   9.596   7.795   6.659
 4883SOL    HW216547   9.536   7.895   6.755
 4884SOL     OW16548  14.088   1.069   2.172
 4884SOL    HW116549  14.178   1.037   2.176
 4884SOL    HW216550  14.095   1.153   2.128
 4885SOL     OW16551   9.884  10.316   4.099
 4885SOL    HW116552   9.924  10.393   4.058
 4885SOL    HW216553   9.956  10.252   4.104
 4886SOL     OW16554  12.732   4.928   7.899
 4886SOL    HW116555  12.726   4.836   7.875
 4886SOL    HW216556  12.657   4.969   7.856
 4887SOL     OW16557  10.432   7.897   7.689
 4887SOL    HW116558  10.501   7.834   7.670
 4887SOL    HW216559  10.353   7.844   7.699
 4888SOL     OW16560   9.119  13.861   7.065
 4888SOL    HW116561   9.141  13.772   7.091
 4888SOL    HW216562   9.192  13.889   7.010
 4889SOL     OW16563  13.433  12.221  13.041
 4889SOL    HW116564  13.354  12.200  13.089
 4889SOL    HW216565  13.414  12.305  12.999
 4890SOL     OW16566   7.762   9.387  13.015
 4890SOL    HW116567   7.810   9.305  13.003
 4890SOL    HW216568   7.805   9.430  13.089
 4891SOL     OW16569   6.367  11.196  12.848
 4891SOL    HW116570   6.359  11.240  12.763
 4891SOL    HW216571   6.287  11.219  12.894
 4892SOL     OW16572  10.367  14.663   2.638
 4892SOL    HW116573  10.433  14.637   2.574
 4892SOL    HW216574  10.316  14.731   2.595
 4893SOL     OW16575  13.745  13.103   0.106
 4893SOL    HW116576  13.814  13.122   0.043
 4893SOL    HW216577  13.791  13.080   0.186
 4894SOL     OW16578   7.286  14.301   5.469
 4894SOL    HW116579   7.355  14.355   5.431
 4894SOL    HW216580   7.250  14.354   5.540
 4895SOL     OW16581   0.646  10.943  13.446
 4895SOL    HW116582   0.658  10.864  13.394
 4895SOL    HW216583   0.622  10.912  13.533
 4896SOL     OW16584   0.166  12.068   8.519
 4896SOL    HW116585   0.150  12.016   8.440
 4896SOL    HW216586   0.167  12.159   8.487
 4897SOL     OW16587   6.590  11.835   1.581
 4897SOL    HW116588   6.631  11.918   1.607
 4897SOL    HW216589   6.502  11.839   1.619
 4898SOL     OW16590   4.886  14.029   8.403
 4898SOL    HW116591   4.932  14.078   8.471
 4898SOL    HW216592   4.929  14.054   8.322
 4899SOL     OW16593   7.775   8.206   4.423
 4899SOL    HW116594   7.760   8.242   4.335
 4899SOL    HW216595   7.688   8.195   4.460
 4900SOL     OW16596   1.590  12.420   0.665
 4900SOL    HW116597   1.683  12.424   0.642
 4900SOL    HW216598   1.588  12.426   0.760
 4901SOL     OW16599   4.819   3.439   0.836
 4901SOL    HW116600   4.841   3.448   0.929
 4901SOL    HW216601   4.897   3.469   0.790
 4902SOL     OW16602   3.715  12.030   0.927
 4902SOL    HW116603   3.757  11.945   0.944
 4902SOL    HW216604   3.622  12.013   0.935
 4903SOL     OW16605   0.531  14.581   6.350
 4903SOL    HW116606   0.563  14.523   6.419
 4903SOL    HW216607   0.556  14.537   6.269
 4904SOL     OW16608   8.306   6.558   4.707
 4904SOL    HW116609   8.342   6.623   4.767
 4904SOL    HW216610   8.232   6.519   4.754
 4905SOL     OW16611  12.851   7.948   4.315
 4905SOL    HW116612  12.856   8.029   4.367
 4905SOL    HW216613  12.939   7.934   4.283
 4906SOL     OW16614   7.674  13.017   8.812
 4906SOL    HW116615   7.764  13.000   8.840
 4906SOL    HW216616   7.675  13.108   8.782
 4907SOL     OW16617  12.080  11.758  13.748
 4907SOL    HW116618  12.062  11.784  13.838
 4907SOL    HW216619  11.996  11.766  13.703
 4908SOL     OW16620   5.453  10.175   7.674
 4908SOL    HW116621   5.367  10.200   7.708
 4908SOL    HW216622   5.515  10.211   7.738
 4909SOL     OW16623   8.274  11.041  14.781
 4909SOL    HW116624   8.345  11.097  14.813
 4909SOL    HW216625   8.220  11.024  14.858
 4910SOL     OW16626  14.585   9.920  11.051
 4910SOL    HW116627  14.617   9.974  10.978
 4910SOL    HW216628  14.491   9.938  11.053
 4911SOL     OW16629   9.681  11.251   1.106
 4911SOL    HW116630   9.679  11.159   1.082
 4911SOL    HW216631   9.738  11.255   1.183
 4912SOL     OW16632  13.802  13.706   9.018
 4912SOL    HW116633  13.863  13.712   9.091
 4912SOL    HW216634  13.772  13.796   9.003
 4913SOL     OW16635  12.934  14.538   1.040
 4913SOL    HW116636  12.991  14.552   1.116
 4913SOL    HW216637  12.870  14.473   1.070
 4914SOL     OW16638   9.265  11.341   8.503
 4914SOL    HW116639   9.336  11.319   8.563
 4914SOL    HW216640   9.239  11.430   8.527
 4915SOL     OW16641   7.171   2.990   5.759
 4915SOL    HW116642   7.207   3.045   5.829
 4915SOL    HW216643   7.121   2.923   5.805
 4916SOL     OW16644   2.181   6.510   8.703
 4916SOL    HW116645   2.271   6.507   8.737
 4916SOL    HW216646   2.169   6.601   8.675
 4917SOL     OW16647   4.536   4.899   0.577
 4917SOL    HW116648   4.529   4.811   0.540
 4917SOL    HW216649   4.627   4.924   0.563
 4918SOL     OW16650   9.138   2.550   4.189
 4918SOL    HW116651   9.192   2.472   4.173
 4918SOL    HW216652   9.109   2.577   4.101
 4919SOL     OW16653   6.850   0.140   3.921
 4919SOL    HW116654   6.774   0.173   3.874
 4919SOL    HW216655   6.833   0.161   4.013
 4920SOL     OW16656   5.206  13.855  13.030
 4920SOL    HW116657   5.279  13.916  13.039
 4920SOL    HW216658   5.143  13.883  13.096
 4921SOL     OW16659  13.003  11.872   1.773
 4921SOL    HW116660  13.052  11.812   1.830
 4921SOL    HW216661  13.050  11.868   1.690
 4922SOL     OW16662  13.655  11.574   2.542
 4922SOL    HW116663  13.595  11.554   2.614
 4922SOL    HW216664  13.740  11.590   2.585
 4923SOL     OW16665   5.681  12.315   3.373
 4923SOL    HW116666   5.642  12.299   3.459
 4923SOL    HW216667   5.614  12.365   3.325
 4924SOL     OW16668  11.488   9.655  11.684
 4924SOL    HW116669  11.472   9.565  11.711
 4924SOL    HW216670  11.522   9.698  11.763
 4925SOL     OW16671   9.706  13.807  10.756
 4925SOL    HW116672   9.636  13.851  10.709
 4925SOL    HW216673   9.760  13.879  10.791
 4926SOL     OW16674  12.909   6.088  10.975
 4926SOL    HW116675  12.916   6.122  10.885
 4926SOL    HW216676  12.999   6.071  11.000
 4927SOL     OW16677   4.209   6.049   1.709
 4927SOL    HW116678   4.230   6.121   1.769
 4927SOL    HW216679   4.267   6.064   1.634
 4928SOL     OW16680   1.186   1.619  10.597
 4928SOL    HW116681   1.165   1.653  10.510
 4928SOL    HW216682   1.175   1.524  10.589
 4929SOL     OW16683   9.832   5.529  11.371
 4929SOL    HW116684   9.811   5.439  11.397
 4929SOL    HW216685   9.747   5.568  11.352
 4930SOL     OW16686   2.087   7.078   4.621
 4930SOL    HW116687   2.158   7.016   4.607
 4930SOL    HW216688   2.022   7.029   4.671
 4931SOL     OW16689   9.650   5.121  10.042
 4931SOL    HW116690   9.613   5.099  10.128
 4931SOL    HW216691   9.583   5.093   9.979
 4932SOL     OW16692   4.623   0.307   1.543
 4932SOL    HW116693   4.543   0.350   1.511
 4932SOL    HW216694   4.671   0.377   1.588
 4933SOL     OW16695   2.362   9.621   6.200
 4933SOL    HW116696   2.270   9.620   6.226
 4933SOL    HW216697   2.407   9.669   6.270
 4934SOL     OW16698   8.372  12.398   9.428
 4934SOL    HW116699   8.389  12.370   9.518
 4934SOL    HW216700   8.427  12.341   9.374
 4935SOL     OW16701   0.084  13.846   2.895
 4935SOL    HW116702   0.146  13.883   2.958
 4935SOL    HW216703   0.045  13.923   2.852
 4936SOL     OW16704   9.184   9.772  10.067
 4936SOL    HW116705   9.164   9.866  10.061
 4936SOL    HW216706   9.102   9.729  10.043
 4937SOL     OW16707   8.446   1.336  11.884
 4937SOL    HW116708   8.355   1.325  11.853
 4937SOL    HW216709   8.437   1.380  11.968
 4938SOL     OW16710  12.670  12.858  12.122
 4938SOL    HW116711  12.716  12.912  12.058
 4938SOL    HW216712  12.688  12.900  12.206
 4939SOL     OW16713  10.260   9.012   7.655
 4939SOL    HW116714  10.335   8.958   7.681
 4939SOL    HW216715  10.257   9.004   7.560
 4940SOL     OW16716  14.714   8.096   0.014
 4940SOL    HW116717  14.664   8.174   0.040
 4940SOL    HW216718  14.647   8.034  14.865
 4941SOL     OW16719   3.956  13.139  10.383
 4941SOL    HW116720   3.958  13.230  10.352
 4941SOL    HW216721   3.966  13.087  10.303
 4942SOL     OW16722   9.586   4.717   5.034
 4942SOL    HW116723   9.573   4.787   4.970
 4942SOL    HW216724   9.659   4.748   5.088
 4943SOL     OW16725   0.040   9.027   7.342
 4943SOL    HW116726   0.065   9.050   7.431
 4943SOL    HW216727   0.121   8.995   7.302
 4944SOL     OW16728  12.414  13.739  12.404
 4944SOL    HW116729  12.373  13.661  12.440
 4944SOL    HW216730  12.341  13.790  12.369
 4945SOL     OW16731  13.759  11.512  11.973
 4945SOL    HW116732  13.695  11.581  11.993
 4945SOL    HW216733  13.724  11.469  11.895
 4946SOL     OW16734   1.808   6.739  14.458
 4946SOL    HW116735   1.740   6.806  14.467
 4946SOL    HW216736   1.861   6.770  14.384
 4947SOL     OW16737  13.618   0.410  13.036
 4947SOL    HW116738  13.561   0.473  13.081
 4947SOL    HW216739  13.619   0.440  12.945
 4948SOL     OW16740   4.329   8.172   1.095
 4948SOL    HW116741   4.373   8.257   1.094
 4948SOL    HW216742   4.244   8.190   1.134
 4949SOL     OW16743  11.409  12.242   7.627
 4949SOL    HW116744  11.500  12.269   7.612
 4949SOL    HW216745  11.398  12.248   7.722
 4950SOL     OW16746   3.692  10.581   0.984
 4950SOL    HW116747   3.676  10.489   1.007
 4950SOL    HW216748   3.782  10.598   1.011
 4951SOL     OW16749  11.019  12.045  11.533
 4951SOL    HW116750  10.976  11.981  11.590
 4951SOL    HW216751  11.090  11.996  11.491
 4952SOL     OW16752   8.815   0.085   8.523
 4952SOL    HW116753   8.728   0.096   8.482
 4952SOL    HW216754   8.850   0.174   8.527
 4953SOL     OW16755   4.139   3.662  12.626
 4953SOL    HW116756   4.043   3.661  12.623
 4953SOL    HW216757   4.162   3.750  12.596
 4954SOL     OW16758   4.022   9.535   3.398
 4954SOL    HW116759   4.044   9.509   3.488
 4954SOL    HW216760   4.052   9.625   3.391
 4955SOL     OW16761   5.786   0.095  11.030
 4955SOL    HW116762   5.785   0.151  10.953
 4955SOL    HW216763   5.782   0.156  11.104
 4956SOL     OW16764   9.787  11.991   4.773
 4956SOL    HW116765   9.777  11.908   4.728
 4956SOL    HW216766   9.842  12.044   4.715
 4957SOL     OW16767   9.245   6.762   3.580
 4957SOL    HW116768   9.256   6.793   3.490
 4957SOL    HW216769   9.333   6.770   3.618
 4958SOL     OW16770  10.279   8.720   8.302
 4958SOL    HW116771  10.364   8.748   8.268
 4958SOL    HW216772  10.244   8.798   8.345
 4959SOL     OW16773   6.866   1.861   3.766
 4959SOL    HW116774   6.805   1.792   3.741
 4959SOL    HW216775   6.944   1.814   3.796
 4960SOL     OW16776   5.157   4.719   9.453
 4960SOL    HW116777   5.142   4.625   9.460
 4960SOL    HW216778   5.090   4.759   9.509
 4961SOL     OW16779   4.809   9.294   0.718
 4961SOL    HW116780   4.849   9.252   0.795
 4961SOL    HW216781   4.822   9.230   0.648
 4962SOL     OW16782  12.614   0.903  14.136
 4962SOL    HW116783  12.573   0.908  14.050
 4962SOL    HW216784  12.558   0.955  14.194
 4963SOL     OW16785  11.601   3.037   5.569
 4963SOL    HW116786  11.645   3.039   5.484
 4963SOL    HW216787  11.672   3.028   5.632
 4964SOL     OW16788   3.926   2.018  12.460
 4964SOL    HW116789   3.977   1.945  12.423
 4964SOL    HW216790   3.939   2.010  12.555
 4965SOL     OW16791   4.500   1.057   0.347
 4965SOL    HW116792   4.465   1.071   0.259
 4965SOL    HW216793   4.595   1.053   0.335
 4966SOL     OW16794  13.484   9.687  11.750
 4966SOL    HW116795  13.405   9.717  11.796
 4966SOL    HW216796  13.556   9.722  11.802
 4967SOL     OW16797  10.071  10.145   1.175
 4967SOL    HW116798  10.090  10.051   1.186
 4967SOL    HW216799  10.071  10.180   1.263
 4968SOL     OW16800   0.579  12.267  14.465
 4968SOL    HW116801   0.561  12.173  14.462
 4968SOL    HW216802   0.529  12.303  14.392
 4969SOL     OW16803  12.528   4.712   4.679
 4969SOL    HW116804  12.524   4.718   4.583
 4969SOL    HW216805  12.484   4.629   4.699
 4970SOL     OW16806  13.231   3.737   0.322
 4970SOL    HW116807  13.306   3.697   0.278
 4970SOL    HW216808  13.185   3.785   0.253
 4971SOL     OW16809   4.769  13.282  10.256
 4971SOL    HW116810   4.694  13.240  10.298
 4971SOL    HW216811   4.730  13.342  10.192
 4972SOL     OW16812   1.761  10.777   5.566
 4972SOL    HW116813   1.794  10.744   5.649
 4972SOL    HW216814   1.785  10.711   5.501
 4973SOL     OW16815   1.186   3.772   4.618
 4973SOL    HW116816   1.234   3.797   4.698
 4973SOL    HW216817   1.115   3.835   4.611
 4974SOL     OW16818   5.333   4.341   0.140
 4974SOL    HW116819   5.330   4.418   0.083
 4974SOL    HW216820   5.242   4.320   0.157
 4975SOL     OW16821   1.824  11.638   7.122
 4975SOL    HW116822   1.742  11.667   7.161
 4975SOL    HW216823   1.853  11.712   7.069
 4976SOL     OW16824  12.214   1.890   3.610
 4976SOL    HW116825  12.230   1.930   3.524
 4976SOL    HW216826  12.176   1.960   3.663
 4977SOL     OW16827   6.764  12.558   1.607
 4977SOL    HW116828   6.837  12.610   1.641
 4977SOL    HW216829   6.785  12.468   1.631
 4978SOL     OW16830   5.363   2.517   6.976
 4978SOL    HW116831   5.343   2.594   7.030
 4978SOL    HW216832   5.365   2.444   7.038
 4979SOL     OW16833   5.089   6.541  11.472
 4979SOL    HW116834   5.168   6.595  11.469
 4979SOL    HW216835   5.053   6.556  11.560
 4980SOL     OW16836   8.695   8.733   2.041
 4980SOL    HW116837   8.671   8.641   2.049
 4980SOL    HW216838   8.745   8.753   2.120
 4981SOL     OW16839  10.946  11.017   3.109
 4981SOL    HW116840  10.951  11.066   3.191
 4981SOL    HW216841  11.035  10.986   3.093
 4982SOL     OW16842   7.042  14.583   0.572
 4982SOL    HW116843   7.040  14.541   0.486
 4982SOL    HW216844   7.110  14.650   0.564
 4983SOL     OW16845   1.217  11.739   1.981
 4983SOL    HW116846   1.199  11.833   1.987
 4983SOL    HW216847   1.159  11.699   2.046
 4984SOL     OW16848  12.662   9.157  10.057
 4984SOL    HW116849  12.622   9.194  10.135
 4984SOL    HW216850  12.756   9.157  10.075
 4985SOL     OW16851   6.998   1.244   6.656
 4985SOL    HW116852   7.054   1.296   6.715
 4985SOL    HW216853   6.923   1.220   6.711
 4986SOL     OW16854   1.361  10.485  13.995
 4986SOL    HW116855   1.388  10.556  13.937
 4986SOL    HW216856   1.318  10.529  14.069
 4987SOL     OW16857  13.197   1.977   5.067
 4987SOL    HW116858  13.171   1.977   4.975
 4987SOL    HW216859  13.115   1.987   5.115
 4988SOL     OW16860   9.260   9.516  11.757
 4988SOL    HW116861   9.350   9.498  11.784
 4988SOL    HW216862   9.267   9.596  11.704
 4989SOL     OW16863  14.510   2.390   7.794
 4989SOL    HW116864  14.572   2.318   7.785
 4989SOL    HW216865  14.472   2.377   7.881
 4990SOL     OW16866   5.650   2.027   0.372
 4990SOL    HW116867   5.650   2.073   0.288
 4990SOL    HW216868   5.667   1.935   0.350
 4991SOL     OW16869  10.493   6.282   7.940
 4991SOL    HW116870  10.543   6.229   8.002
 4991SOL    HW216871  10.556   6.305   7.872
 4992SOL     OW16872  12.438  12.446   1.655
 4992SOL    HW116873  12.346  12.436   1.631
 4992SOL    HW216874  12.441  12.421   1.748
 4993SOL     OW16875  12.339   7.324  11.291
 4993SOL    HW116876  12.247   7.324  11.265
 4993SOL    HW216877  12.338   7.344  11.384
 4994SOL     OW16878   0.139  10.669   5.440
 4994SOL    HW116879   0.205  10.653   5.373
 4994SOL    HW216880   0.085  10.589   5.441
 4995SOL     OW16881  10.881   1.511   1.777
 4995SOL    HW116882  10.920   1.472   1.855
 4995SOL    HW216883  10.892   1.445   1.709
 4996SOL     OW16884   2.978  12.158   3.153
 4996SOL    HW116885   2.926  12.093   3.200
 4996SOL    HW216886   3.050  12.107   3.115
 4997SOL     OW16887   4.705   5.246  12.674
 4997SOL    HW116888   4.620   5.214  12.643
 4997SOL    HW216889   4.687   5.282  12.761
 4998SOL     OW16890   0.451   4.234   8.845
 4998SOL    HW116891   0.461   4.183   8.926
 4998SOL    HW216892   0.385   4.185   8.795
 4999SOL     OW16893   2.629   4.800  14.508
 4999SOL    HW116894   2.710   4.806  14.459
 4999SOL    HW216895   2.560   4.799  14.441
 5000SOL     OW16896  10.938   5.110  10.561
 5000SOL    HW116897  10.919   5.152  10.645
 5000SOL    HW216898  11.000   5.041  10.583
 5001SOL     OW16899   5.991   5.680  13.633
 5001SOL    HW116900   6.033   5.761  13.662
 5001SOL    HW216901   6.031   5.611  13.685
 5002SOL     OW16902  11.146   9.103   2.058
 5002SOL    HW116903  11.143   9.095   1.963
 5002SOL    HW216904  11.130   9.014   2.090
 5003SOL     OW16905   6.153   9.127   0.561
 5003SOL    HW116906   6.156   9.032   0.554
 5003SOL    HW216907   6.155   9.158   0.470
 5004SOL     OW16908   1.068  14.397   3.097
 5004SOL    HW116909   0.983  14.439   3.082
 5004SOL    HW216910   1.071  14.325   3.034
 5005SOL     OW16911  12.365   4.784  13.793
 5005SOL    HW116912  12.358   4.879  13.797
 5005SOL    HW216913  12.458   4.768  13.773
 5006SOL     OW16914   8.094   0.435   8.726
 5006SOL    HW116915   8.045   0.399   8.800
 5006SOL    HW216916   8.134   0.359   8.684
 5007SOL     OW16917   9.162   5.896   6.881
 5007SOL    HW116918   9.213   5.975   6.866
 5007SOL    HW216919   9.210   5.849   6.950
 5008SOL     OW16920  10.521   3.503   0.747
 5008SOL    HW116921  10.507   3.410   0.769
 5008SOL    HW216922  10.511   3.548   0.831
 5009SOL     OW16923  10.396   5.597   5.100
 5009SOL    HW116924  10.313   5.625   5.138
 5009SOL    HW216925  10.376   5.515   5.055
 5010SOL     OW16926  10.211   0.195   1.732
 5010SOL    HW116927  10.117   0.200   1.750
 5010SOL    HW216928  10.229   0.102   1.722
 5011SOL     OW16929   0.084  10.316   7.017
 5011SOL    HW116930  14.870  10.317   6.997
 5011SOL    HW216931   0.113  10.228   6.994
 5012SOL     OW16932  13.221   3.733   8.275
 5012SOL    HW116933  13.167   3.654   8.287
 5012SOL    HW216934  13.297   3.719   8.331
 5013SOL     OW16935   5.474   1.379   6.508
 5013SOL    HW116936   5.481   1.463   6.555
 5013SOL    HW216937   5.524   1.392   6.428
 5014SOL     OW16938  12.227   1.591  10.734
 5014SOL    HW116939  12.175   1.532  10.680
 5014SOL    HW216940  12.316   1.558  10.727
 5015SOL     OW16941  14.772   6.768  14.227
 5015SOL    HW116942  14.860   6.804  14.240
 5015SOL    HW216943  14.773   6.684  14.273
 5016SOL     OW16944  13.804   4.716   2.165
 5016SOL    HW116945  13.791   4.623   2.147
 5016SOL    HW216946  13.816   4.721   2.260
 5017SOL     OW16947  10.162   4.114   3.698
 5017SOL    HW116948  10.184   4.040   3.754
 5017SOL    HW216949  10.166   4.079   3.609
 5018SOL     OW16950  11.655   2.426   1.184
 5018SOL    HW116951  11.652   2.428   1.089
 5018SOL    HW216952  11.686   2.339   1.206
 5019SOL     OW16953   3.576  12.905   8.362
 5019SOL    HW116954   3.537  12.929   8.279
 5019SOL    HW216955   3.653  12.962   8.370
 5020SOL     OW16956   3.121   8.335   6.156
 5020SOL    HW116957   3.085   8.355   6.242
 5020SOL    HW216958   3.061   8.378   6.095
 5021SOL     OW16959   5.049  13.026   0.332
 5021SOL    HW116960   4.957  13.031   0.304
 5021SOL    HW216961   5.062  12.934   0.354
 5022SOL     OW16962   1.828   9.684   9.699
 5022SOL    HW116963   1.743   9.705   9.737
 5022SOL    HW216964   1.857   9.606   9.746
 5023SOL     OW16965   9.198   6.126  12.305
 5023SOL    HW116966   9.140   6.173  12.245
 5023SOL    HW216967   9.141   6.097  12.376
 5024SOL     OW16968   4.994   6.121  11.505
 5024SOL    HW116969   4.964   6.159  11.423
 5024SOL    HW216970   5.083   6.156  11.517
 5025SOL     OW16971  11.342  12.156   9.608
 5025SOL    HW116972  11.295  12.081   9.571
 5025SOL    HW216973  11.336  12.223   9.540
 5026SOL     OW16974   5.126  14.864  13.997
 5026SOL    HW116975   5.138  14.798  14.065
 5026SOL    HW216976   5.093  14.816  13.921
 5027SOL     OW16977  13.828   2.064   6.139
 5027SOL    HW116978  13.834   2.086   6.045
 5027SOL    HW216979  13.894   2.120   6.180
 5028SOL     OW16980  10.998   5.157   2.582
 5028SOL    HW116981  11.051   5.112   2.517
 5028SOL    HW216982  10.975   5.089   2.646
 5029SOL     OW16983   0.197  13.121  14.208
 5029SOL    HW116984   0.196  13.178  14.132
 5029SOL    HW216985   0.274  13.148  14.258
 5030SOL     OW16986   4.283   0.226  11.397
 5030SOL    HW116987   4.320   0.313  11.410
 5030SOL    HW216988   4.190   0.237  11.414
 5031SOL     OW16989  11.763  14.082  14.608
 5031SOL    HW116990  11.690  14.075  14.547
 5031SOL    HW216991  11.805  13.996  14.605
 5032SOL     OW16992   0.523   8.001   0.439
 5032SOL    HW116993   0.534   7.938   0.511
 5032SOL    HW216994   0.436   8.038   0.453
 5033SOL     OW16995  14.309   1.254   5.151
 5033SOL    HW116996  14.241   1.263   5.085
 5033SOL    HW216997  14.299   1.164   5.184
 5034SOL     OW16998   4.352   1.167   0.137
 5034SOL    HW116999   4.289   1.167   0.210
 5034SOL    HW217000   4.389   1.255   0.137
 5035SOL     OW17001  13.443   6.425  10.471
 5035SOL    HW117002  13.516   6.448  10.529
 5035SOL    HW217003  13.392   6.506  10.465
 5036SOL     OW17004   4.483   4.448   9.668
 5036SOL    HW117005   4.501   4.494   9.586
 5036SOL    HW217006   4.514   4.508   9.736
 5037SOL     OW17007   4.361   9.756  12.405
 5037SOL    HW117008   4.389   9.808  12.480
 5037SOL    HW217009   4.442   9.735  12.358
 5038SOL     OW17010   6.982   3.024   2.980
 5038SOL    HW117011   7.038   3.064   3.045
 5038SOL    HW217012   6.902   3.076   2.982
 5039SOL     OW17013  13.052  13.718   8.564
 5039SOL    HW117014  13.045  13.678   8.651
 5039SOL    HW217015  13.069  13.645   8.505
 5040SOL     OW17016   9.615  12.242  12.953
 5040SOL    HW117017   9.539  12.230  12.897
 5040SOL    HW217018   9.611  12.169  13.015
 5041SOL     OW17019  10.086  12.544   4.762
 5041SOL    HW117020  10.077  12.462   4.810
 5041SOL    HW217021  10.056  12.524   4.673
 5042SOL     OW17022   7.961   8.810   3.013
 5042SOL    HW117023   7.872   8.796   3.046
 5042SOL    HW217024   7.952   8.800   2.918
 5043SOL     OW17025  10.103   5.879   1.246
 5043SOL    HW117026  10.044   5.906   1.317
 5043SOL    HW217027  10.118   5.958   1.196
 5044SOL     OW17028   9.243   1.434   0.253
 5044SOL    HW117029   9.178   1.365   0.265
 5044SOL    HW217030   9.327   1.390   0.268
 5045SOL     OW17031   4.510  14.430   7.490
 5045SOL    HW117032   4.444  14.440   7.559
 5045SOL    HW217033   4.472  14.365   7.431
 5046SOL     OW17034  14.482  13.909   7.959
 5046SOL    HW117035  14.529  13.929   7.878
 5046SOL    HW217036  14.479  13.813   7.961
 5047SOL     OW17037   7.278   0.805   1.744
 5047SOL    HW117038   7.288   0.899   1.731
 5047SOL    HW217039   7.189   0.786   1.717
 5048SOL     OW17040   0.583   3.604  11.471
 5048SOL    HW117041   0.638   3.525  11.476
 5048SOL    HW217042   0.614   3.650  11.393
 5049SOL     OW17043  10.765   9.862   3.162
 5049SOL    HW117044  10.768   9.843   3.068
 5049SOL    HW217045  10.857   9.867   3.188
 5050SOL     OW17046   9.147   4.158   0.192
 5050SOL    HW117047   9.139   4.212   0.270
 5050SOL    HW217048   9.188   4.215   0.127
 5051SOL     OW17049   5.376   1.461   5.639
 5051SOL    HW117050   5.464   1.433   5.613
 5051SOL    HW217051   5.332   1.480   5.556
 5052SOL     OW17052  13.624   5.084  10.848
 5052SOL    HW117053  13.552   5.083  10.911
 5052SOL    HW217054  13.581   5.090  10.762
 5053SOL     OW17055  10.011   9.153   4.773
 5053SOL    HW117056  10.061   9.083   4.732
 5053SOL    HW217057   9.923   9.117   4.784
 5054SOL     OW17058   2.907  10.086   8.338
 5054SOL    HW117059   2.875  10.087   8.428
 5054SOL    HW217060   2.999  10.061   8.346
 5055SOL     OW17061  10.750   0.671   7.019
 5055SOL    HW117062  10.691   0.595   7.015
 5055SOL    HW217063  10.748   0.706   6.930
 5056SOL     OW17064   5.486  13.741  12.221
 5056SOL    HW117065   5.420  13.675  12.241
 5056SOL    HW217066   5.436  13.820  12.201
 5057SOL     OW17067   0.257  12.508   8.241
 5057SOL    HW117068   0.296  12.420   8.241
 5057SOL    HW217069   0.312  12.558   8.301
 5058SOL     OW17070  12.825   8.011   3.637
 5058SOL    HW117071  12.857   8.100   3.654
 5058SOL    HW217072  12.904   7.960   3.621
 5059SOL     OW17073  14.013   7.071   7.820
 5059SOL    HW117074  13.984   7.086   7.910
 5059SOL    HW217075  14.083   7.005   7.829
 5060SOL     OW17076  14.183   0.022  14.037
 5060SOL    HW117077  14.181   0.092  13.971
 5060SOL    HW217078  14.214  14.826  13.989
 5061SOL     OW17079  11.282  13.408   1.859
 5061SOL    HW117080  11.334  13.343   1.905
 5061SOL    HW217081  11.243  13.359   1.786
 5062SOL     OW17082   5.230   4.335   4.570
 5062SOL    HW117083   5.309   4.364   4.616
 5062SOL    HW217084   5.158   4.382   4.614
 5063SOL     OW17085   2.462   1.622  10.874
 5063SOL    HW117086   2.502   1.664  10.950
 5063SOL    HW217087   2.504   1.536  10.869
 5064SOL     OW17088  12.167   2.001   2.656
 5064SOL    HW117089  12.189   2.076   2.711
 5064SOL    HW217090  12.231   2.004   2.586
 5065SOL     OW17091  12.654   6.371   3.593
 5065SOL    HW117092  12.597   6.448   3.602
 5065SOL    HW217093  12.684   6.375   3.502
 5066SOL     OW17094   2.174  13.470   1.628
 5066SOL    HW117095   2.110  13.489   1.697
 5066SOL    HW217096   2.259  13.481   1.671
 5067SOL     OW17097  14.167   3.689  10.914
 5067SOL    HW117098  14.189   3.622  10.979
 5067SOL    HW217099  14.228   3.674  10.842
 5068SOL     OW17100  14.207   5.817   0.418
 5068SOL    HW117101  14.202   5.814   0.322
 5068SOL    HW217102  14.143   5.883   0.444
 5069SOL     OW17103  13.668   7.179  12.208
 5069SOL    HW117104  13.732   7.203  12.141
 5069SOL    HW217105  13.720   7.160  12.286
 5070SOL     OW17106   0.576   7.266  14.291
 5070SOL    HW117107   0.618   7.180  14.299
 5070SOL    HW217108   0.609   7.301  14.208
 5071SOL     OW17109   0.457  10.769  14.234
 5071SOL    HW117110   0.528  10.746  14.295
 5071SOL    HW217111   0.394  10.698  14.243
 5072SOL     OW17112  12.279  10.298   6.439
 5072SOL    HW117113  12.306  10.362   6.505
 5072SOL    HW217114  12.194  10.330   6.408
 5073SOL     OW17115   2.838   3.076   2.858
 5073SOL    HW117116   2.807   3.057   2.946
 5073SOL    HW217117   2.850   3.171   2.856
 5074SOL     OW17118   6.675  11.671  13.308
 5074SOL    HW117119   6.746  11.721  13.349
 5074SOL    HW217120   6.720  11.601  13.260
 5075SOL     OW17121  11.178   2.155   8.647
 5075SOL    HW117122  11.242   2.216   8.685
 5075SOL    HW217123  11.115   2.212   8.602
 5076SOL     OW17124   6.130  13.036  12.676
 5076SOL    HW117125   6.108  12.985  12.598
 5076SOL    HW217126   6.200  13.095  12.647
 5077SOL     OW17127  11.681   1.812   9.065
 5077SOL    HW117128  11.588   1.806   9.043
 5077SOL    HW217129  11.713   1.722   9.056
 5078SOL     OW17130  12.313   7.410   8.943
 5078SOL    HW117131  12.351   7.325   8.962
 5078SOL    HW217132  12.243   7.420   9.008
 5079SOL     OW17133   3.430   3.047   5.583
 5079SOL    HW117134   3.404   3.084   5.499
 5079SOL    HW217135   3.354   2.997   5.612
 5080SOL     OW17136   7.070   4.433  10.185
 5080SOL    HW117137   7.033   4.434  10.097
 5080SOL    HW217138   7.158   4.468  10.175
 5081SOL     OW17139  12.534  12.315   4.388
 5081SOL    HW117140  12.587  12.298   4.310
 5081SOL    HW217141  12.575  12.262   4.456
 5082SOL     OW17142   6.848   4.951   6.363
 5082SOL    HW117143   6.921   4.953   6.424
 5082SOL    HW217144   6.770   4.965   6.417
 5083SOL     OW17145  11.908   5.541  10.458
 5083SOL    HW117146  11.865   5.616  10.418
 5083SOL    HW217147  11.845   5.508  10.522
 5084SOL     OW17148   2.097  13.806   3.227
 5084SOL    HW117149   2.066  13.764   3.146
 5084SOL    HW217150   2.022  13.859   3.256
 5085SOL     OW17151  12.265   5.512   3.250
 5085SOL    HW117152  12.222   5.428   3.264
 5085SOL    HW217153  12.199   5.577   3.273
 5086SOL     OW17154   5.010  14.184  13.257
 5086SOL    HW117155   4.915  14.177  13.265
 5086SOL    HW217156   5.040  14.094  13.240
 5087SOL     OW17157  13.674   3.968  13.889
 5087SOL    HW117158  13.644   4.050  13.929
 5087SOL    HW217159  13.624   3.962  13.808
 5088SOL     OW17160  14.061  14.666   6.592
 5088SOL    HW117161  14.058  14.739   6.653
 5088SOL    HW217162  14.075  14.707   6.506
 5089SOL     OW17163  12.476   1.071   6.115
 5089SOL    HW117164  12.455   0.984   6.080
 5089SOL    HW217165  12.418   1.131   6.068
 5090SOL     OW17166  14.357   3.783   7.925
 5090SOL    HW117167  14.281   3.812   7.975
 5090SOL    HW217168  14.396   3.864   7.892
 5091SOL     OW17169  13.864   9.003   7.683
 5091SOL    HW117170  13.851   9.013   7.778
 5091SOL    HW217171  13.959   9.008   7.672
 5092SOL     OW17172   9.207   3.797   2.639
 5092SOL    HW117173   9.265   3.809   2.715
 5092SOL    HW217174   9.124   3.768   2.677
 5093SOL     OW17175   5.411  12.201   6.331
 5093SOL    HW117176   5.323  12.212   6.295
 5093SOL    HW217177   5.397  12.188   6.425
 5094SOL     OW17178   9.146   2.760   4.370
 5094SOL    HW117179   9.070   2.818   4.363
 5094SOL    HW217180   9.133   2.695   4.301
 5095SOL     OW17181   6.830  14.296   5.392
 5095SOL    HW117182   6.759  14.248   5.350
 5095SOL    HW217183   6.789  14.339   5.468
 5096SOL     OW17184   9.381  12.606  13.415
 5096SOL    HW117185   9.389  12.690  13.370
 5096SOL    HW217186   9.379  12.628  13.508
 5097SOL     OW17187   6.800  11.869   9.118
 5097SOL    HW117188   6.742  11.945   9.115
 5097SOL    HW217189   6.744  11.797   9.145
 5098SOL     OW17190   6.493   2.102  13.947
 5098SOL    HW117191   6.494   2.021  13.897
 5098SOL    HW217192   6.476   2.075  14.037
 5099SOL     OW17193   9.318   0.423   4.693
 5099SOL    HW117194   9.256   0.495   4.678
 5099SOL    HW217195   9.372   0.454   4.766
 5100SOL     OW17196  12.567   1.724   8.174
 5100SOL    HW117197  12.525   1.671   8.107
 5100SOL    HW217198  12.637   1.770   8.128
 5101SOL     OW17199   2.298  10.635  11.037
 5101SOL    HW117200   2.320  10.713  10.986
 5101SOL    HW217201   2.331  10.653  11.125
 5102SOL     OW17202   2.666   2.697   1.549
 5102SOL    HW117203   2.694   2.742   1.470
 5102SOL    HW217204   2.739   2.639   1.571
 5103SOL     OW17205   0.003   6.544   9.447
 5103SOL    HW117206   0.093   6.564   9.423
 5103SOL    HW217207  14.862   6.465   9.397
 5104SOL     OW17208  13.251  11.524   2.550
 5104SOL    HW117209  13.308  11.559   2.481
 5104SOL    HW217210  13.297  11.448   2.583
 5105SOL     OW17211   3.558   5.382   1.604
 5105SOL    HW117212   3.624   5.360   1.670
 5105SOL    HW217213   3.483   5.325   1.625
 5106SOL     OW17214   5.891   0.412   0.304
 5106SOL    HW117215   5.875   0.318   0.310
 5106SOL    HW217216   5.936   0.435   0.385
 5107SOL     OW17217   2.312   5.723  14.264
 5107SOL    HW117218   2.322   5.681  14.350
 5107SOL    HW217219   2.255   5.664  14.215
 5108SOL     OW17220   0.077   1.817  14.594
 5108SOL    HW117221  14.868   1.819  14.627
 5108SOL    HW217222   0.111   1.904  14.614
 5109SOL     OW17223   9.464   0.514   2.714
 5109SOL    HW117224   9.480   0.557   2.798
 5109SOL    HW217225   9.551   0.506   2.674
 5110SOL     OW17226  13.483   7.035   2.556
 5110SOL    HW117227  13.473   6.940   2.558
 5110SOL    HW217228  13.528   7.053   2.474
 5111SOL     OW17229   5.182  11.362   3.563
 5111SOL    HW117230   5.098  11.408   3.569
 5111SOL    HW217231   5.171  11.286   3.621
 5112SOL     OW17232  13.407   0.321  13.741
 5112SOL    HW117233  13.361   0.404  13.750
 5112SOL    HW217234  13.367   0.279  13.664
 5113SOL     OW17235  13.417  12.635  11.432
 5113SOL    HW117236  13.383  12.547  11.449
 5113SOL    HW217237  13.492  12.620  11.374
 5114SOL     OW17238   2.634   4.650   6.730
 5114SOL    HW117239   2.625   4.599   6.811
 5114SOL    HW217240   2.544   4.659   6.697
 5115SOL     OW17241  12.377   5.451   0.161
 5115SOL    HW117242  12.435   5.487   0.229
 5115SOL    HW217243  12.299   5.424   0.208
 5116SOL     OW17244  13.292   7.429   4.965
 5116SOL    HW117245  13.240   7.360   5.004
 5116SOL    HW217246  13.232   7.474   4.906
 5117SOL     OW17247  10.915   1.282   4.140
 5117SOL    HW117248  10.915   1.366   4.185
 5117SOL    HW217249  10.870   1.298   4.057
 5118SOL     OW17250   3.918  11.648   2.557
 5118SOL    HW117251   3.831  11.608   2.563
 5118SOL    HW217252   3.941  11.671   2.647
 5119SOL     OW17253   6.070  12.999   8.332
 5119SOL    HW117254   6.104  12.981   8.420
 5119SOL    HW217255   5.984  13.038   8.347
 5120SOL     OW17256  14.832   9.838  12.525
 5120SOL    HW117257   0.018   9.833  12.593
 5120SOL    HW217258  14.749   9.824  12.570
 5121SOL     OW17259  13.937   5.943   6.522
 5121SOL    HW117260  13.888   5.873   6.479
 5121SOL    HW217261  13.986   5.985   6.451
 5122SOL     OW17262   4.957   8.002   3.599
 5122SOL    HW117263   4.992   8.050   3.674
 5122SOL    HW217264   5.019   8.020   3.528
 5123SOL     OW17265   3.564   2.138   1.122
 5123SOL    HW117266   3.485   2.144   1.068
 5123SOL    HW217267   3.589   2.229   1.137
 5124SOL     OW17268   6.215  14.577   6.956
 5124SOL    HW117269   6.174  14.581   6.870
 5124SOL    HW217270   6.213  14.484   6.979
 5125SOL     OW17271  12.508  12.016   6.245
 5125SOL    HW117272  12.457  12.033   6.166
 5125SOL    HW217273  12.487  12.089   6.303
 5126SOL     OW17274   9.164  10.306   8.300
 5126SOL    HW117275   9.248  10.339   8.331
 5126SOL    HW217276   9.126  10.380   8.253
 5127SOL     OW17277   6.001   4.896   8.237
 5127SOL    HW117278   5.966   4.915   8.150
 5127SOL    HW217279   6.086   4.939   8.239
 5128SOL     OW17280   0.994   3.998   4.626
 5128SOL    HW117281   0.913   3.990   4.576
 5128SOL    HW217282   1.019   4.090   4.617
 5129SOL     OW17283   6.077  10.615   5.352
 5129SOL    HW117284   6.121  10.682   5.404
 5129SOL    HW217285   6.129  10.536   5.366
 5130SOL     OW17286  10.903   1.616  14.636
 5130SOL    HW117287  10.876   1.616  14.544
 5130SOL    HW217288  10.854   1.688  14.675
 5131SOL     OW17289  11.035   9.960  10.119
 5131SOL    HW117290  11.005  10.026  10.181
 5131SOL    HW217291  10.956   9.937  10.070
 5132SOL     OW17292   2.821  11.315   2.621
 5132SOL    HW117293   2.862  11.390   2.579
 5132SOL    HW217294   2.894  11.263   2.653
 5133SOL     OW17295   9.634   9.464   9.057
 5133SOL    HW117296   9.611   9.557   9.058
 5133SOL    HW217297   9.715   9.460   9.006
 5134SOL     OW17298  11.880  13.798  13.224
 5134SOL    HW117299  11.838  13.883  13.238
 5134SOL    HW217300  11.950  13.817  13.161
 5135SOL     OW17301   0.559  13.418  10.925
 5135SOL    HW117302   0.520  13.458  11.003
 5135SOL    HW217303   0.652  13.439  10.933
 5136SOL     OW17304  12.301   8.931  11.813
 5136SOL    HW117305  12.334   9.010  11.772
 5136SOL    HW217306  12.215   8.917  11.773
 5137SOL     OW17307  13.902   4.304   6.361
 5137SOL    HW117308  13.939   4.267   6.441
 5137SOL    HW217309  13.915   4.398   6.369
 5138SOL     OW17310   5.117   2.060  10.300
 5138SOL    HW117311   5.103   1.966  10.286
 5138SOL    HW217312   5.032   2.100  10.281
 5139SOL     OW17313   0.737  13.084   7.146
 5139SOL    HW117314   0.702  13.149   7.085
 5139SOL    HW217315   0.832  13.092   7.138
 5140SOL     OW17316   8.777   5.104   1.511
 5140SOL    HW117317   8.740   5.018   1.491
 5140SOL    HW217318   8.763   5.156   1.432
 5141SOL     OW17319   9.754   9.459  11.429
 5141SOL    HW117320   9.683   9.395  11.424
 5141SOL    HW217321   9.711   9.540  11.456
 5142SOL     OW17322   3.717   5.236   4.881
 5142SOL    HW117323   3.710   5.249   4.787
 5142SOL    HW217324   3.804   5.267   4.904
 5143SOL     OW17325   0.780   2.635   5.571
 5143SOL    HW117326   0.809   2.603   5.656
 5143SOL    HW217327   0.761   2.728   5.585
 5144SOL     OW17328   6.373   4.277   6.520
 5144SOL    HW117329   6.457   4.319   6.505
 5144SOL    HW217330   6.395   4.189   6.552
 5145SOL     OW17331   4.231   2.077   0.584
 5145SOL    HW117332   4.256   2.089   0.493
 5145SOL    HW217333   4.304   2.112   0.635
 5146SOL     OW17334   7.841   5.946  14.313
 5146SOL    HW117335   7.850   6.038  14.287
 5146SOL    HW217336   7.930   5.917  14.333
 5147SOL     OW17337  14.869   4.789  14.867
 5147SOL    HW117338  14.795   4.743  14.829
 5147SOL    HW217339   0.045   4.811  14.793
 5148SOL     OW17340  10.508  10.495  12.027
 5148SOL    HW117341  10.447  10.567  12.042
 5148SOL    HW217342  10.499  10.439  12.104
 5149SOL     OW17343  12.836   2.996   1.746
 5149SOL    HW117344  12.788   2.932   1.695
 5149SOL    HW217345  12.925   2.993   1.710
 5150SOL     OW17346  11.668   7.542  12.665
 5150SOL    HW117347  11.665   7.467  12.606
 5150SOL    HW217348  11.679   7.504  12.752
 5151SOL     OW17349   9.074  10.040   0.712
 5151SOL    HW117350   9.117  10.114   0.754
 5151SOL    HW217351   9.114   9.963   0.754
 5152SOL     OW17352   8.803   6.512   3.674
 5152SOL    HW117353   8.736   6.542   3.735
 5152SOL    HW217354   8.880   6.565   3.695
 5153SOL     OW17355  14.299   9.366   1.932
 5153SOL    HW117356  14.298   9.331   2.021
 5153SOL    HW217357  14.283   9.289   1.876
 5154SOL     OW17358   1.466  10.463   4.137
 5154SOL    HW117359   1.550  10.456   4.181
 5154SOL    HW217360   1.486  10.508   4.055
 5155SOL     OW17361   3.359   2.928   4.627
 5155SOL    HW117362   3.305   2.945   4.550
 5155SOL    HW217363   3.326   2.846   4.662
 5156SOL     OW17364   0.096   5.491   8.241
 5156SOL    HW117365   0.070   5.407   8.280
 5156SOL    HW217366   0.128   5.543   8.315
 5157SOL     OW17367   0.222  13.399  10.552
 5157SOL    HW117368   0.307  13.399  10.596
 5157SOL    HW217369   0.161  13.433  10.618
 5158SOL     OW17370   3.870  10.646   2.147
 5158SOL    HW117371   3.846  10.657   2.055
 5158SOL    HW217372   3.878  10.735   2.180
 5159SOL     OW17373  13.913   7.458  13.729
 5159SOL    HW117374  13.831   7.410  13.723
 5159SOL    HW217375  13.950   7.456  13.641
 5160SOL     OW17376   9.934   9.743   0.655
 5160SOL    HW117377   9.884   9.761   0.575
 5160SOL    HW217378   9.946   9.829   0.695
 5161SOL     OW17379   0.951   6.992  12.005
 5161SOL    HW117380   0.866   6.970  12.044
 5161SOL    HW217381   0.992   6.907  11.989
 5162SOL     OW17382  14.873   2.633   9.542
 5162SOL    HW117383   0.035   2.701   9.593
 5162SOL    HW217384  14.864   2.559   9.602
 5163SOL     OW17385   5.398   4.578  14.007
 5163SOL    HW117386   5.357   4.495  14.033
 5163SOL    HW217387   5.492   4.559  14.006
 5164SOL     OW17388  11.007   8.507  13.293
 5164SOL    HW117389  11.054   8.494  13.211
 5164SOL    HW217390  11.051   8.582  13.334
 5165SOL     OW17391   0.892   6.327  11.790
 5165SOL    HW117392   0.892   6.319  11.695
 5165SOL    HW217393   0.971   6.281  11.818
 5166SOL     OW17394  14.803  11.802   9.129
 5166SOL    HW117395  14.790  11.893   9.154
 5166SOL    HW217396   0.009  11.800   9.087
 5167SOL     OW17397  12.152  10.741  11.309
 5167SOL    HW117398  12.193  10.668  11.262
 5167SOL    HW217399  12.225  10.784  11.354
 5168SOL     OW17400  12.894  12.094   1.044
 5168SOL    HW117401  12.984  12.073   1.017
 5168SOL    HW217402  12.889  12.066   1.136
 5169SOL     OW17403   4.431  14.880   5.408
 5169SOL    HW117404   4.482   0.064   5.358
 5169SOL    HW217405   4.496  14.820   5.444
 5170SOL     OW17406  12.420   9.416   3.741
 5170SOL    HW117407  12.328   9.444   3.746
 5170SOL    HW217408  12.443   9.391   3.831
 5171SOL     OW17409   3.982  10.330   6.142
 5171SOL    HW117410   3.972  10.253   6.197
 5171SOL    HW217411   3.904  10.383   6.160
 5172SOL     OW17412  13.029   1.250  14.628
 5172SOL    HW117413  12.966   1.320  14.642
 5172SOL    HW217414  13.100   1.291  14.578
 5173SOL     OW17415  13.750  10.667  11.580
 5173SOL    HW117416  13.666  10.706  11.561
 5173SOL    HW217417  13.755  10.664  11.676
 5174SOL     OW17418   9.389   2.976   4.106
 5174SOL    HW117419   9.302   2.953   4.073
 5174SOL    HW217420   9.397   2.925   4.187
 5175SOL     OW17421  13.391   7.156   9.982
 5175SOL    HW117422  13.417   7.245   9.958
 5175SOL    HW217423  13.333   7.128   9.912
 5176SOL     OW17424  12.615   6.483  12.436
 5176SOL    HW117425  12.674   6.474  12.361
 5176SOL    HW217426  12.530   6.499  12.397
 5177SOL     OW17427   4.611   3.072  11.127
 5177SOL    HW117428   4.684   3.020  11.093
 5177SOL    HW217429   4.650   3.154  11.156
 5178SOL     OW17430  12.938  13.834   8.812
 5178SOL    HW117431  12.864  13.885   8.844
 5178SOL    HW217432  12.898  13.765   8.758
 5179SOL     OW17433  14.570   3.234   3.344
 5179SOL    HW117434  14.512   3.192   3.281
 5179SOL    HW217435  14.559   3.182   3.424
 5180SOL     OW17436   4.610  10.177   8.797
 5180SOL    HW117437   4.547  10.151   8.864
 5180SOL    HW217438   4.556  10.202   8.722
 5181SOL     OW17439  13.571   1.705  12.523
 5181SOL    HW117440  13.544   1.797  12.519
 5181SOL    HW217441  13.660   1.704  12.489
 5182SOL     OW17442   3.736   1.962   8.591
 5182SOL    HW117443   3.817   1.910   8.596
 5182SOL    HW217444   3.766   2.052   8.584
 5183SOL     OW17445   7.713  11.417   4.337
 5183SOL    HW117446   7.649  11.403   4.406
 5183SOL    HW217447   7.670  11.388   4.257
 5184SOL     OW17448  11.372  11.885  10.350
 5184SOL    HW117449  11.456  11.905  10.307
 5184SOL    HW217450  11.349  11.798  10.317
 5185SOL     OW17451  13.712   1.988   4.926
 5185SOL    HW117452  13.636   2.031   4.966
 5185SOL    HW217453  13.685   1.897   4.916
 5186SOL     OW17454   7.568   7.446  13.883
 5186SOL    HW117455   7.588   7.493  13.802
 5186SOL    HW217456   7.543   7.358  13.854
 5187SOL     OW17457  11.573   6.934   8.879
 5187SOL    HW117458  11.530   7.015   8.851
 5187SOL    HW217459  11.600   6.891   8.798
 5188SOL     OW17460  11.467  11.393   8.740
 5188SOL    HW117461  11.390  11.341   8.717
 5188SOL    HW217462  11.458  11.473   8.689
 5189SOL     OW17463  12.649   2.118  13.760
 5189SOL    HW117464  12.578   2.174  13.793
 5189SOL    HW217465  12.705   2.105  13.836
 5190SOL     OW17466  11.758   1.226   6.965
 5190SOL    HW117467  11.716   1.240   6.881
 5190SOL    HW217468  11.805   1.143   6.955
 5191SOL     OW17469   1.544  11.775   9.259
 5191SOL    HW117470   1.523  11.797   9.168
 5191SOL    HW217471   1.507  11.848   9.309
 5192SOL     OW17472   4.808  13.845  11.553
 5192SOL    HW117473   4.733  13.903  11.538
 5192SOL    HW217474   4.877  13.879  11.496
 5193SOL     OW17475  14.724   9.078   0.690
 5193SOL    HW117476  14.673   9.064   0.610
 5193SOL    HW217477  14.690   9.159   0.726
 5194SOL     OW17478  12.739   7.418   9.790
 5194SOL    HW117479  12.833   7.408   9.798
 5194SOL    HW217480  12.709   7.435   9.879
 5195SOL     OW17481   6.975   6.857  12.889
 5195SOL    HW117482   7.019   6.883  12.808
 5195SOL    HW217483   6.964   6.938  12.938
 5196SOL     OW17484   3.929   9.078   3.725
 5196SOL    HW117485   3.974   9.162   3.728
 5196SOL    HW217486   3.844   9.094   3.765
 5197SOL     OW17487  12.189  12.048   3.734
 5197SOL    HW117488  12.164  11.975   3.791
 5197SOL    HW217489  12.122  12.115   3.751
 5198SOL     OW17490  14.723   3.160  14.131
 5198SOL    HW117491  14.741   3.070  14.103
 5198SOL    HW217492  14.808   3.196  14.155
 5199SOL     OW17493   4.993   9.067   7.159
 5199SOL    HW117494   4.955   9.120   7.089
 5199SOL    HW217495   4.920   9.046   7.216
 5200SOL     OW17496   8.945   2.929  14.329
 5200SOL    HW117497   8.901   2.939  14.414
 5200SOL    HW217498   8.890   2.867  14.281
 5201SOL     OW17499   3.407   5.252  12.688
 5201SOL    HW117500   3.324   5.204  12.687
 5201SOL    HW217501   3.389   5.333  12.641
 5202SOL     OW17502  14.220  11.188  14.116
 5202SOL    HW117503  14.292  11.249  14.100
 5202SOL    HW217504  14.263  11.110  14.151
 5203SOL     OW17505   6.794  11.498  12.281
 5203SOL    HW117506   6.817  11.488  12.373
 5203SOL    HW217507   6.860  11.446  12.234
 5204SOL     OW17508   2.919   3.260  10.729
 5204SOL    HW117509   3.012   3.246  10.709
 5204SOL    HW217510   2.917   3.278  10.823
 5205SOL     OW17511  11.891  12.669   3.058
 5205SOL    HW117512  11.924  12.738   3.001
 5205SOL    HW217513  11.798  12.688   3.069
 5206SOL     OW17514   1.244   1.921   6.618
 5206SOL    HW117515   1.226   1.964   6.535
 5206SOL    HW217516   1.161   1.927   6.666
 5207SOL     OW17517   1.108  10.970   7.756
 5207SOL    HW117518   1.159  10.970   7.675
 5207SOL    HW217519   1.046  10.899   7.745
 5208SOL     OW17520   2.394  13.371   5.619
 5208SOL    HW117521   2.343  13.338   5.693
 5208SOL    HW217522   2.338  13.437   5.579
 5209SOL     OW17523  12.346   0.845  13.675
 5209SOL    HW117524  12.326   0.755  13.650
 5209SOL    HW217525  12.260   0.885  13.692
 5210SOL     OW17526   4.583   9.074  12.369
 5210SOL    HW117527   4.494   9.091  12.336
 5210SOL    HW217528   4.640   9.120  12.307
 5211SOL     OW17529  12.116  13.435   6.360
 5211SOL    HW117530  12.180  13.402   6.423
 5211SOL    HW217531  12.105  13.527   6.384
 5212SOL     OW17532   2.214  11.123  10.547
 5212SOL    HW117533   2.167  11.093  10.625
 5212SOL    HW217534   2.202  11.052  10.484
 5213SOL     OW17535  14.130  11.575  13.624
 5213SOL    HW117536  14.199  11.514  13.597
 5213SOL    HW217537  14.049  11.529  13.602
 5214SOL     OW17538   0.476  14.759   0.215
 5214SOL    HW117539   0.436  14.777   0.130
 5214SOL    HW217540   0.454  14.668   0.233
 5215SOL     OW17541  13.103  14.669  12.728
 5215SOL    HW117542  13.065  14.665  12.640
 5215SOL    HW217543  13.038  14.626  12.783
 5216SOL     OW17544   9.054   0.053   2.762
 5216SOL    HW117545   9.110   0.088   2.693
 5216SOL    HW217546   8.981   0.012   2.716
 5217SOL     OW17547  12.394   5.461   7.891
 5217SOL    HW117548  12.346   5.379   7.881
 5217SOL    HW217549  12.331   5.529   7.867
 5218SOL     OW17550   0.255   3.461  11.361
 5218SOL    HW117551   0.248   3.556  11.352
 5218SOL    HW217552   0.340   3.447  11.403
 5219SOL     OW17553   0.198  13.719  10.810
 5219SOL    HW117554   0.264  13.721  10.741
 5219SOL    HW217555   0.228  13.651  10.871
 5220SOL     OW17556  11.231   3.220   9.142
 5220SOL    HW117557  11.232   3.136   9.188
 5220SOL    HW217558  11.152   3.264   9.174
 5221SOL     OW17559  14.247   1.001   0.635
 5221SOL    HW117560  14.170   0.947   0.654
 5221SOL    HW217561  14.320   0.951   0.671
 5222SOL     OW17562   2.905   5.904   5.551
 5222SOL    HW117563   2.896   5.810   5.567
 5222SOL    HW217564   2.830   5.927   5.497
 5223SOL     OW17565   9.179   4.362   7.340
 5223SOL    HW117566   9.239   4.315   7.283
 5223SOL    HW217567   9.094   4.355   7.297
 5224SOL     OW17568  10.713   1.007   0.185
 5224SOL    HW117569  10.802   0.975   0.189
 5224SOL    HW217570  10.676   0.966   0.106
 5225SOL     OW17571   0.800  13.560  10.982
 5225SOL    HW117572   0.811  13.519  11.068
 5225SOL    HW217573   0.879  13.614  10.971
 5226SOL     OW17574   2.015   2.143   5.686
 5226SOL    HW117575   2.102   2.117   5.655
 5226SOL    HW217576   1.980   2.064   5.727
 5227SOL     OW17577   9.102  11.613   5.091
 5227SOL    HW117578   9.174  11.617   5.154
 5227SOL    HW217579   9.144  11.595   5.007
 5228SOL     OW17580   3.220   4.638  11.525
 5228SOL    HW117581   3.265   4.706  11.475
 5228SOL    HW217582   3.205   4.568  11.461
 5229SOL     OW17583   3.591   0.936  12.172
 5229SOL    HW117584   3.508   0.949  12.218
 5229SOL    HW217585   3.601   1.013  12.117
 5230SOL     OW17586   2.867   5.549   9.331
 5230SOL    HW117587   2.824   5.568   9.414
 5230SOL    HW217588   2.903   5.461   9.343
 5231SOL     OW17589  11.435   8.952   1.974
 5231SOL    HW117590  11.372   8.946   1.902
 5231SOL    HW217591  11.447   9.047   1.986
 5232SOL     OW17592   7.865   2.729  11.563
 5232SOL    HW117593   7.788   2.721  11.619
 5232SOL    HW217594   7.864   2.651  11.508
 5233SOL     OW17595   9.106   0.526   5.047
 5233SOL    HW117596   9.098   0.606   4.995
 5233SOL    HW217597   9.200   0.505   5.044
 5234SOL     OW17598  13.474   8.893   1.022
 5234SOL    HW117599  13.466   8.798   1.031
 5234SOL    HW217600  13.566   8.907   0.997
 5235SOL     OW17601   2.290  14.612   7.985
 5235SOL    HW117602   2.230  14.648   7.919
 5235SOL    HW217603   2.336  14.689   8.020
 5236SOL     OW17604   1.324   0.909   3.081
 5236SOL    HW117605   1.382   0.917   3.156
 5236SOL    HW217606   1.254   0.972   3.098
 5237SOL     OW17607   7.740   8.809   0.332
 5237SOL    HW117608   7.688   8.742   0.286
 5237SOL    HW217609   7.717   8.798   0.424
 5238SOL     OW17610  14.472  10.919   6.157
 5238SOL    HW117611  14.385  10.881   6.141
 5238SOL    HW217612  14.524  10.846   6.191
 5239SOL     OW17613   8.447   3.773  12.070
 5239SOL    HW117614   8.538   3.744  12.077
 5239SOL    HW217615   8.450   3.866  12.090
 5240SOL     OW17616   1.984   7.957  14.130
 5240SOL    HW117617   2.024   7.975  14.045
 5240SOL    HW217618   1.952   8.043  14.160
 5241SOL     OW17619  11.956   7.533  11.802
 5241SOL    HW117620  11.881   7.535  11.742
 5241SOL    HW217621  11.918   7.544  11.889
 5242SOL     OW17622  10.607   8.517   7.907
 5242SOL    HW117623  10.604   8.542   7.814
 5242SOL    HW217624  10.515   8.520   7.935
 5243SOL     OW17625  12.402   3.589   0.785
 5243SOL    HW117626  12.386   3.502   0.749
 5243SOL    HW217627  12.496   3.593   0.798
 5244SOL     OW17628   6.407   9.402  11.707
 5244SOL    HW117629   6.340   9.352  11.661
 5244SOL    HW217630   6.479   9.339  11.720
 5245SOL     OW17631   8.224   9.642   4.851
 5245SOL    HW117632   8.277   9.719   4.869
 5245SOL    HW217633   8.211   9.644   4.756
 5246SOL     OW17634  10.038   6.742   9.124
 5246SOL    HW117635  10.111   6.741   9.063
 5246SOL    HW217636  10.002   6.654   9.120
 5247SOL     OW17637   3.069  12.526   6.779
 5247SOL    HW117638   3.152  12.496   6.816
 5247SOL    HW217639   3.002  12.480   6.830
 5248SOL     OW17640  13.771   6.689   8.348
 5248SOL    HW117641  13.767   6.670   8.254
 5248SOL    HW217642  13.853   6.650   8.377
 5249SOL     OW17643   0.327  13.239   8.691
 5249SOL    HW117644   0.352  13.154   8.726
 5249SOL    HW217645   0.390  13.300   8.729
 5250SOL     OW17646   7.083   9.582   6.030
 5250SOL    HW117647   7.156   9.545   6.080
 5250SOL    HW217648   7.056   9.658   6.082
 5251SOL     OW17649  11.243   8.723  11.044
 5251SOL    HW117650  11.153   8.744  11.066
 5251SOL    HW217651  11.271   8.661  11.112
 5252SOL     OW17652   3.788   1.800  10.028
 5252SOL    HW117653   3.854   1.809  10.097
 5252SOL    HW217654   3.839   1.789   9.948
 5253SOL     OW17655  11.763   9.263  14.735
 5253SOL    HW117656  11.719   9.348  14.745
 5253SOL    HW217657  11.709   9.202  14.785
 5254SOL     OW17658   2.772   7.508  13.268
 5254SOL    HW117659   2.867   7.504  13.281
 5254SOL    HW217660   2.761   7.565  13.192
 5255SOL     OW17661  14.243   7.501  11.040
 5255SOL    HW117662  14.256   7.562  11.112
 5255SOL    HW217663  14.300   7.427  11.061
 5256SOL     OW17664   9.159  10.864   9.538
 5256SOL    HW117665   9.066  10.877   9.558
 5256SOL    HW217666   9.186  10.793   9.597
 5257SOL     OW17667  11.318  11.943  12.785
 5257SOL    HW117668  11.319  11.857  12.744
 5257SOL    HW217669  11.328  12.005  12.713
 5258SOL     OW17670   2.379   0.909  14.237
 5258SOL    HW117671   2.325   0.953  14.170
 5258SOL    HW217672   2.356   0.816  14.228
 5259SOL     OW17673  14.567   2.870   3.202
 5259SOL    HW117674  14.594   2.782   3.229
 5259SOL    HW217675  14.539   2.912   3.283
 5260SOL     OW17676   5.060   4.818  12.740
 5260SOL    HW117677   5.066   4.773  12.656
 5260SOL    HW217678   5.005   4.894  12.723
 5261SOL     OW17679   6.413  10.321  11.469
 5261SOL    HW117680   6.444  10.399  11.516
 5261SOL    HW217681   6.373  10.355  11.389
 5262SOL     OW17682   2.843   1.823  12.292
 5262SOL    HW117683   2.834   1.916  12.271
 5262SOL    HW217684   2.935   1.813  12.315
 5263SOL     OW17685   4.249  10.296   4.375
 5263SOL    HW117686   4.235  10.224   4.313
 5263SOL    HW217687   4.204  10.268   4.455
 5264SOL     OW17688  13.158   3.832   1.146
 5264SOL    HW117689  13.078   3.849   1.096
 5264SOL    HW217690  13.130   3.840   1.238
 5265SOL     OW17691   4.971   4.054   2.187
 5265SOL    HW117692   4.946   4.115   2.257
 5265SOL    HW217693   4.979   4.109   2.109
 5266SOL     OW17694  12.403   9.018   8.549
 5266SOL    HW117695  12.310   9.023   8.528
 5266SOL    HW217696  12.435   9.108   8.544
 5267SOL     OW17697  11.910  12.144   5.323
 5267SOL    HW117698  11.937  12.211   5.385
 5267SOL    HW217699  11.940  12.062   5.361
 5268SOL     OW17700  13.135  10.428   3.173
 5268SOL    HW117701  13.206  10.368   3.197
 5268SOL    HW217702  13.055  10.377   3.186
 5269SOL     OW17703   2.053   1.543   6.157
 5269SOL    HW117704   2.144   1.565   6.177
 5269SOL    HW217705   2.035   1.586   6.073
 5270SOL     OW17706  13.352  14.248  12.784
 5270SOL    HW117707  13.377  14.336  12.755
 5270SOL    HW217708  13.349  14.255  12.880
 5271SOL     OW17709   9.588  14.680  13.779
 5271SOL    HW117710   9.530  14.664  13.853
 5271SOL    HW217711   9.580  14.601  13.724
 5272SOL     OW17712   1.086  10.864  13.980
 5272SOL    HW117713   1.041  10.947  13.997
 5272SOL    HW217714   1.164  10.888  13.931
 5273SOL     OW17715   4.380   6.276  10.509
 5273SOL    HW117716   4.389   6.257  10.603
 5273SOL    HW217717   4.289   6.256  10.489
 5274SOL     OW17718  13.508   3.972  13.664
 5274SOL    HW117719  13.432   3.918  13.686
 5274SOL    HW217720  13.471   4.053  13.628
 5275SOL     OW17721   6.357   0.694  11.572
 5275SOL    HW117722   6.311   0.641  11.507
 5275SOL    HW217723   6.308   0.777  11.574
 5276SOL     OW17724   0.456   4.270  13.948
 5276SOL    HW117725   0.417   4.249  13.863
 5276SOL    HW217726   0.441   4.191  14.001
 5277SOL     OW17727   7.176  13.530   8.686
 5277SOL    HW117728   7.184  13.621   8.714
 5277SOL    HW217729   7.110  13.531   8.617
 5278SOL     OW17730  11.383   1.054   0.763
 5278SOL    HW117731  11.419   1.136   0.728
 5278SOL    HW217732  11.298   1.078   0.798
 5279SOL     OW17733  12.829   9.540  10.776
 5279SOL    HW117734  12.916   9.503  10.762
 5279SOL    HW217735  12.802   9.506  10.861
 5280SOL     OW17736   9.162  10.368  11.966
 5280SOL    HW117737   9.246  10.396  12.002
 5280SOL    HW217738   9.162  10.273  11.978
 5281SOL     OW17739   7.519   5.650   2.117
 5281SOL    HW117740   7.537   5.724   2.058
 5281SOL    HW217741   7.509   5.575   2.059
 5282SOL     OW17742   3.571   7.076   6.354
 5282SOL    HW117743   3.613   7.022   6.421
 5282SOL    HW217744   3.509   7.016   6.311
 5283SOL     OW17745   2.038   7.729   5.873
 5283SOL    HW117746   1.964   7.729   5.812
 5283SOL    HW217747   2.094   7.801   5.843
 5284SOL     OW17748   8.926   2.514   3.781
 5284SOL    HW117749   8.916   2.537   3.688
 5284SOL    HW217750   8.900   2.422   3.785
 5285SOL     OW17751  13.791   6.490  14.545
 5285SOL    HW117752  13.707   6.461  14.510
 5285SOL    HW217753  13.855   6.463  14.479
 5286SOL     OW17754   4.936   5.465   3.318
 5286SOL    HW117755   4.991   5.543   3.326
 5286SOL    HW217756   4.991   5.394   3.351
 5287SOL     OW17757   8.847  10.617   2.941
 5287SOL    HW117758   8.895  10.584   3.016
 5287SOL    HW217759   8.859  10.551   2.873
 5288SOL     OW17760  12.558   6.881  10.409
 5288SOL    HW117761  12.476   6.923  10.438
 5288SOL    HW217762  12.535   6.839  10.325
 5289SOL     OW17763   5.449   5.608  12.979
 5289SOL    HW117764   5.379   5.668  13.007
 5289SOL    HW217765   5.430   5.526  13.023
 5290SOL     OW17766  11.872   8.162  12.305
 5290SOL    HW117767  11.813   8.236  12.315
 5290SOL    HW217768  11.919   8.180  12.224
 5291SOL     OW17769  14.823   9.365  13.625
 5291SOL    HW117770  14.785   9.285  13.662
 5291SOL    HW217771   0.036   9.344  13.615
 5292SOL     OW17772  13.855  13.068   3.969
 5292SOL    HW117773  13.948  13.043   3.969
 5292SOL    HW217774  13.844  13.117   3.888
 5293SOL     OW17775  14.191   0.657  10.463
 5293SOL    HW117776  14.151   0.668  10.377
 5293SOL    HW217777  14.137   0.709  10.522
 5294SOL     OW17778   0.864   8.273  10.290
 5294SOL    HW117779   0.842   8.206  10.227
 5294SOL    HW217780   0.899   8.225  10.365
 5295SOL     OW17781   4.390   3.506   1.267
 5295SOL    HW117782   4.314   3.535   1.319
 5295SOL    HW217783   4.398   3.572   1.198
 5296SOL     OW17784  14.410   5.527  11.364
 5296SOL    HW117785  14.455   5.516  11.281
 5296SOL    HW217786  14.406   5.622  11.377
 5297SOL     OW17787   8.527   7.025  14.801
 5297SOL    HW117788   8.539   6.946  14.854
 5297SOL    HW217789   8.615   7.062  14.792
 5298SOL     OW17790   9.561   6.142   9.352
 5298SOL    HW117791   9.496   6.152   9.283
 5298SOL    HW217792   9.586   6.232   9.374
 5299SOL     OW17793  13.452   8.189   7.110
 5299SOL    HW117794  13.474   8.161   7.199
 5299SOL    HW217795  13.356   8.186   7.107
 5300SOL     OW17796   4.503   0.340  11.624
 5300SOL    HW117797   4.527   0.364  11.534
 5300SOL    HW217798   4.527   0.416  11.676
 5301SOL     OW17799   4.683  10.249   3.353
 5301SOL    HW117800   4.742  10.186   3.393
 5301SOL    HW217801   4.597  10.228   3.391
 5302SOL     OW17802   3.451   0.157   5.628
 5302SOL    HW117803   3.416   0.132   5.542
 5302SOL    HW217804   3.377   0.146   5.688
 5303SOL     OW17805   4.728  14.165   1.829
 5303SOL    HW117806   4.727  14.189   1.921
 5303SOL    HW217807   4.808  14.113   1.818
 5304SOL     OW17808   8.347   6.663   2.150
 5304SOL    HW117809   8.284   6.678   2.081
 5304SOL    HW217810   8.361   6.568   2.150
 5305SOL     OW17811  13.964  12.536  13.372
 5305SOL    HW117812  14.002  12.479  13.304
 5305SOL    HW217813  13.989  12.624  13.345
 5306SOL     OW17814   2.582   3.298   9.916
 5306SOL    HW117815   2.548   3.225   9.967
 5306SOL    HW217816   2.630   3.352   9.979
 5307SOL     OW17817  12.059   4.224   9.307
 5307SOL    HW117818  12.068   4.272   9.389
 5307SOL    HW217819  11.988   4.268   9.261
 5308SOL     OW17820  11.002   8.619   0.515
 5308SOL    HW117821  10.993   8.596   0.608
 5308SOL    HW217822  10.969   8.543   0.468
 5309SOL     OW17823  10.571  13.201   9.146
 5309SOL    HW117824  10.605  13.287   9.120
 5309SOL    HW217825  10.507  13.180   9.078
 5310SOL     OW17826   7.954  11.513   7.234
 5310SOL    HW117827   7.938  11.605   7.214
 5310SOL    HW217828   7.869  11.479   7.261
 5311SOL     OW17829   5.195  10.085   7.899
 5311SOL    HW117830   5.276  10.063   7.853
 5311SOL    HW217831   5.224  10.102   7.989
 5312SOL     OW17832   8.130   9.921  10.138
 5312SOL    HW117833   8.049   9.945  10.093
 5312SOL    HW217834   8.148   9.831  10.110
 5313SOL     OW17835   7.343   0.732   2.643
 5313SOL    HW117836   7.345   0.697   2.732
 5313SOL    HW217837   7.304   0.819   2.652
 5314SOL     OW17838  14.293   4.762   4.966
 5314SOL    HW117839  14.376   4.733   4.928
 5314SOL    HW217840  14.228   4.742   4.899
 5315SOL     OW17841   7.308  11.047   5.221
 5315SOL    HW117842   7.273  11.136   5.217
 5315SOL    HW217843   7.379  11.052   5.285
 5316SOL     OW17844   4.324  14.482   0.431
 5316SOL    HW117845   4.320  14.402   0.483
 5316SOL    HW217846   4.374  14.544   0.485
 5317SOL     OW17847   3.547  11.318   0.863
 5317SOL    HW117848   3.554  11.225   0.881
 5317SOL    HW217849   3.500  11.323   0.780
 5318SOL     OW17850   3.075  11.965   8.788
 5318SOL    HW117851   3.159  11.975   8.744
 5318SOL    HW217852   3.087  11.890   8.846
 5319SOL     OW17853   6.140   2.573  10.470
 5319SOL    HW117854   6.154   2.522  10.390
 5319SOL    HW217855   6.179   2.658  10.453
 5320SOL     OW17856   9.298   0.581   9.826
 5320SOL    HW117857   9.275   0.598   9.735
 5320SOL    HW217858   9.338   0.662   9.856
 5321SOL     OW17859   6.028  13.825   0.979
 5321SOL    HW117860   5.985  13.827   1.064
 5321SOL    HW217861   6.055  13.915   0.963
 5322SOL     OW17862   7.481   1.625   2.668
 5322SOL    HW117863   7.484   1.604   2.761
 5322SOL    HW217864   7.571   1.651   2.647
 5323SOL     OW17865   1.571   6.423  14.117
 5323SOL    HW117866   1.532   6.495  14.068
 5323SOL    HW217867   1.497   6.365  14.137
 5324SOL     OW17868   1.558  10.043   7.398
 5324SOL    HW117869   1.617   9.993   7.341
 5324SOL    HW217870   1.615  10.081   7.465
 5325SOL     OW17871   2.085   3.941   9.067
 5325SOL    HW117872   2.061   3.925   8.975
 5325SOL    HW217873   2.178   3.963   9.064
 5326SOL     OW17874   6.302  13.754   9.185
 5326SOL    HW117875   6.233  13.709   9.136
 5326SOL    HW217876   6.378  13.751   9.127
 5327SOL     OW17877  13.238   4.109   3.092
 5327SOL    HW117878  13.159   4.063   3.121
 5327SOL    HW217879  13.294   4.040   3.056
 5328SOL     OW17880  14.209   7.044  13.471
 5328SOL    HW117881  14.225   7.082  13.557
 5328SOL    HW217882  14.188   6.952  13.487
 5329SOL     OW17883   9.787   8.330  11.859
 5329SOL    HW117884   9.781   8.282  11.777
 5329SOL    HW217885   9.799   8.421  11.833
 5330SOL     OW17886  13.506   3.303   3.205
 5330SOL    HW117887  13.470   3.225   3.246
 5330SOL    HW217888  13.601   3.295   3.217
 5331SOL     OW17889   9.028   4.173   2.499
 5331SOL    HW117890   8.952   4.141   2.546
 5331SOL    HW217891   8.991   4.219   2.423
 5332SOL     OW17892   3.402   9.670   8.715
 5332SOL    HW117893   3.490   9.633   8.700
 5332SOL    HW217894   3.364   9.614   8.781
 5333SOL     OW17895   0.596  13.748  13.485
 5333SOL    HW117896   0.508  13.773  13.457
 5333SOL    HW217897   0.587  13.657  13.513
 5334SOL     OW17898   8.570   4.107   4.249
 5334SOL    HW117899   8.663   4.112   4.272
 5334SOL    HW217900   8.560   4.021   4.210
 5335SOL     OW17901   7.872  12.969   9.592
 5335SOL    HW117902   7.853  13.062   9.601
 5335SOL    HW217903   7.853  12.948   9.501
 5336SOL     OW17904  14.131  13.639   3.263
 5336SOL    HW117905  14.070  13.572   3.292
 5336SOL    HW217906  14.141  13.624   3.169
 5337SOL     OW17907   6.241   0.396   1.018
 5337SOL    HW117908   6.268   0.305   1.002
 5337SOL    HW217909   6.152   0.389   1.052
 5338SOL     OW17910  12.645   2.327   5.103
 5338SOL    HW117911  12.693   2.258   5.057
 5338SOL    HW217912  12.713   2.391   5.127
 5339SOL     OW17913   4.809  13.994  13.035
 5339SOL    HW117914   4.782  13.903  13.026
 5339SOL    HW217915   4.902  13.994  13.012
 5340SOL     OW17916   5.181  12.715  12.908
 5340SOL    HW117917   5.136  12.765  12.840
 5340SOL    HW217918   5.241  12.779  12.948
 5341SOL     OW17919   7.284  13.954   3.774
 5341SOL    HW117920   7.301  13.954   3.680
 5341SOL    HW217921   7.195  13.989   3.783
 5342SOL     OW17922   8.917   9.647   0.098
 5342SOL    HW117923   8.827   9.679   0.096
 5342SOL    HW217924   8.966   9.717   0.141
 5343SOL     OW17925   9.681   5.522   8.847
 5343SOL    HW117926   9.699   5.565   8.930
 5343SOL    HW217927   9.734   5.569   8.783
 5344SOL     OW17928   8.780   7.977   6.429
 5344SOL    HW117929   8.707   7.949   6.374
 5344SOL    HW217930   8.760   8.068   6.451
 5345SOL     OW17931   5.545  11.351  11.498
 5345SOL    HW117932   5.570  11.412  11.429
 5345SOL    HW217933   5.573  11.395  11.579
 5346SOL     OW17934  11.672   5.861   1.521
 5346SOL    HW117935  11.582   5.890   1.505
 5346SOL    HW217936  11.687   5.881   1.614
 5347SOL     OW17937  12.001  11.792   7.250
 5347SOL    HW117938  11.998  11.856   7.321
 5347SOL    HW217939  12.094  11.770   7.241
 5348SOL     OW17940   5.295  13.439   7.731
 5348SOL    HW117941   5.240  13.423   7.654
 5348SOL    HW217942   5.240  13.413   7.806
 5349SOL     OW17943   5.689   8.660  11.551
 5349SOL    HW117944   5.615   8.661  11.489
 5349SOL    HW217945   5.753   8.602  11.510
 5350SOL     OW17946   0.790  12.330  10.317
 5350SOL    HW117947   0.773  12.417  10.281
 5350SOL    HW217948   0.724  12.320  10.386
 5351SOL     OW17949   5.264   7.048   1.672
 5351SOL    HW117950   5.353   7.022   1.696
 5351SOL    HW217951   5.275   7.134   1.632
 5352SOL     OW17952   2.811  12.096   1.039
 5352SOL    HW117953   2.716  12.101   1.052
 5352SOL    HW217954   2.840  12.187   1.036
 5353SOL     OW17955   3.604  12.564   4.690
 5353SOL    HW117956   3.528  12.512   4.715
 5353SOL    HW217957   3.584  12.598   4.603
 5354SOL     OW17958   9.736   0.133   9.867
 5354SOL    HW117959   9.792   0.204   9.837
 5354SOL    HW217960   9.797   0.064   9.894
 5355SOL     OW17961   5.121  12.817  13.920
 5355SOL    HW117962   5.162  12.735  13.890
 5355SOL    HW217963   5.028  12.795  13.929
 5356SOL     OW17964  12.673   8.185   6.265
 5356SOL    HW117965  12.608   8.249   6.237
 5356SOL    HW217966  12.756   8.232   6.264
 5357SOL     OW17967  10.556  14.133  13.630
 5357SOL    HW117968  10.596  14.103  13.548
 5357SOL    HW217969  10.594  14.076  13.697
 5358SOL     OW17970  12.975   3.149  13.323
 5358SOL    HW117971  13.031   3.093  13.376
 5358SOL    HW217972  12.908   3.091  13.288
 5359SOL     OW17973   4.265   9.227   5.874
 5359SOL    HW117974   4.276   9.312   5.917
 5359SOL    HW217975   4.325   9.168   5.920
 5360SOL     OW17976   5.778  11.165  12.701
 5360SOL    HW117977   5.785  11.229  12.771
 5360SOL    HW217978   5.684  11.155  12.686
 5361SOL     OW17979  14.130  13.053  11.135
 5361SOL    HW117980  14.040  13.065  11.164
 5361SOL    HW217981  14.122  13.022  11.044
 5362SOL     OW17982   7.509   0.447  13.625
 5362SOL    HW117983   7.513   0.461  13.531
 5362SOL    HW217984   7.596   0.417  13.649
 5363SOL     OW17985  11.879   1.312  11.914
 5363SOL    HW117986  11.952   1.291  11.857
 5363SOL    HW217987  11.896   1.263  11.995
 5364SOL     OW17988   6.372   7.149   2.229
 5364SOL    HW117989   6.461   7.169   2.258
 5364SOL    HW217990   6.316   7.210   2.277
 5365SOL     OW17991  12.359   3.077   9.518
 5365SOL    HW117992  12.353   3.114   9.430
 5365SOL    HW217993  12.453   3.068   9.534
 5366SOL     OW17994   3.761   0.308  11.511
 5366SOL    HW117995   3.772   0.390  11.560
 5366SOL    HW217996   3.714   0.334  11.432
 5367SOL     OW17997   5.369  14.766   7.742
 5367SOL    HW117998   5.385  14.678   7.710
 5367SOL    HW217999   5.325  14.810   7.669
 5368SOL     OW18000  11.738   2.978  12.089
 5368SOL    HW118001  11.700   2.947  12.006
 5368SOL    HW218002  11.728   2.904  12.149
 5369SOL     OW18003   6.727   7.461  14.832
 5369SOL    HW118004   6.696   7.408  14.759
 5369SOL    HW218005   6.648   7.489  14.877
 5370SOL     OW18006   7.153   1.422   0.328
 5370SOL    HW118007   7.156   1.329   0.347
 5370SOL    HW218008   7.060   1.440   0.308
 5371SOL     OW18009   6.098   6.419  11.625
 5371SOL    HW118010   6.028   6.468  11.669
 5371SOL    HW218011   6.103   6.457  11.538
 5372SOL     OW18012   4.736   9.297   3.019
 5372SOL    HW118013   4.803   9.257   2.963
 5372SOL    HW218014   4.747   9.391   3.007
 5373SOL     OW18015   0.256   8.330   4.788
 5373SOL    HW118016   0.298   8.408   4.751
 5373SOL    HW218017   0.296   8.257   4.742
 5374SOL     OW18018   6.446  13.319  12.411
 5374SOL    HW118019   6.378  13.309  12.477
 5374SOL    HW218020   6.513  13.374  12.454
 5375SOL     OW18021   6.824   4.218   9.698
 5375SOL    HW118022   6.774   4.285   9.744
 5375SOL    HW218023   6.900   4.202   9.754
 5376SOL     OW18024   6.970  12.498   8.641
 5376SOL    HW118025   6.911  12.429   8.671
 5376SOL    HW218026   7.050  12.486   8.692
 5377SOL     OW18027  13.291   1.276  12.750
 5377SOL    HW118028  13.338   1.359  12.750
 5377SOL    HW218029  13.351   1.214  12.708
 5378SOL     OW18030   3.368  12.314   9.143
 5378SOL    HW118031   3.285  12.327   9.098
 5378SOL    HW218032   3.430  12.368   9.094
 5379SOL     OW18033  12.837   2.222   8.747
 5379SOL    HW118034  12.876   2.308   8.731
 5379SOL    HW218035  12.765   2.240   8.808
 5380SOL     OW18036  13.281   5.784   8.037
 5380SOL    HW118037  13.256   5.872   8.064
 5380SOL    HW218038  13.318   5.795   7.949
 5381SOL     OW18039   7.518   1.359  12.101
 5381SOL    HW118040   7.588   1.409  12.059
 5381SOL    HW218041   7.478   1.309  12.031
 5382SOL     OW18042   3.524   4.859   0.700
 5382SOL    HW118043   3.514   4.847   0.606
 5382SOL    HW218044   3.599   4.918   0.708
 5383SOL     OW18045   7.423   3.815  14.341
 5383SOL    HW118046   7.442   3.871  14.266
 5383SOL    HW218047   7.456   3.729  14.316
 5384SOL     OW18048  10.493  13.701  14.702
 5384SOL    HW118049  10.456  13.653  14.776
 5384SOL    HW218050  10.464  13.653  14.625
 5385SOL     OW18051   2.676   8.110  13.705
 5385SOL    HW118052   2.627   8.071  13.633
 5385SOL    HW218053   2.763   8.069  13.701
 5386SOL     OW18054  13.919   3.740   4.316
 5386SOL    HW118055  13.964   3.793   4.382
 5386SOL    HW218056  13.860   3.684   4.366
 5387SOL     OW18057   8.540  12.916   7.947
 5387SOL    HW118058   8.592  12.986   7.987
 5387SOL    HW218059   8.592  12.837   7.960
 5388SOL     OW18060   0.730   0.819   6.904
 5388SOL    HW118061   0.685   0.895   6.867
 5388SOL    HW218062   0.798   0.857   6.960
 5389SOL     OW18063   2.061  11.690  13.905
 5389SOL    HW118064   2.006  11.742  13.964
 5389SOL    HW218065   2.143  11.679  13.953
 5390SOL     OW18066   8.875   1.932  13.324
 5390SOL    HW118067   8.918   2.006  13.281
 5390SOL    HW218068   8.802   1.910  13.265
 5391SOL     OW18069   7.627  14.096   7.040
 5391SOL    HW118070   7.534  14.092   7.019
 5391SOL    HW218071   7.630  14.109   7.135
 5392SOL     OW18072  13.347   9.185   7.184
 5392SOL    HW118073  13.401   9.239   7.241
 5392SOL    HW218074  13.268   9.236   7.169
 5393SOL     OW18075  10.486  14.493   3.340
 5393SOL    HW118076  10.496  14.587   3.327
 5393SOL    HW218077  10.402  14.471   3.299
 5394SOL     OW18078   9.075   9.458   8.373
 5394SOL    HW118079   9.034   9.513   8.439
 5394SOL    HW218080   9.025   9.475   8.293
 5395SOL     OW18081   0.243  10.384   4.704
 5395SOL    HW118082   0.166  10.333   4.683
 5395SOL    HW218083   0.314  10.320   4.707
 5396SOL     OW18084   1.667   6.543   7.346
 5396SOL    HW118085   1.581   6.514   7.375
 5396SOL    HW218086   1.725   6.469   7.364
 5397SOL     OW18087  12.727   9.453   3.425
 5397SOL    HW118088  12.806   9.498   3.397
 5397SOL    HW218089  12.757   9.366   3.452
 5398SOL     OW18090   1.795   7.901   0.472
 5398SOL    HW118091   1.775   7.860   0.388
 5398SOL    HW218092   1.716   7.951   0.494
 5399SOL     OW18093  11.432   9.782  11.020
 5399SOL    HW118094  11.508   9.747  10.971
 5399SOL    HW218095  11.442   9.877  11.014
 5400SOL     OW18096   0.558   4.727   2.042
 5400SOL    HW118097   0.498   4.707   2.114
 5400SOL    HW218098   0.502   4.729   1.964
 5401SOL     OW18099   8.767   3.011  14.830
 5401SOL    HW118100   8.742   3.101  14.808
 5401SOL    HW218101   8.684   2.966  14.847
 5402SOL     OW18102   1.683   6.657  13.747
 5402SOL    HW118103   1.686   6.734  13.690
 5402SOL    HW218104   1.639   6.590  13.695
 5403SOL     OW18105   1.152   9.333   2.580
 5403SOL    HW118106   1.116   9.258   2.531
 5403SOL    HW218107   1.076   9.374   2.621
 5404SOL     OW18108  12.037   7.320   7.831
 5404SOL    HW118109  12.044   7.409   7.796
 5404SOL    HW218110  12.070   7.328   7.920
 5405SOL     OW18111  11.944   3.663   5.018
 5405SOL    HW118112  11.861   3.671   5.066
 5405SOL    HW218113  11.949   3.742   4.965
 5406SOL     OW18114   3.899  10.780  11.956
 5406SOL    HW118115   3.883  10.688  11.979
 5406SOL    HW218116   3.814  10.811  11.925
 5407SOL     OW18117  11.070   6.038   7.840
 5407SOL    HW118118  11.077   6.019   7.747
 5407SOL    HW218119  11.161   6.041   7.871
 5408SOL     OW18120  10.781  13.578   7.990
 5408SOL    HW118121  10.780  13.525   8.070
 5408SOL    HW218122  10.745  13.520   7.923
 5409SOL     OW18123   6.074   0.029   7.344
 5409SOL    HW118124   6.021   0.096   7.302
 5409SOL    HW218125   6.125  14.870   7.273
 5410SOL     OW18126   1.985  12.478   4.688
 5410SOL    HW118127   2.001  12.545   4.621
 5410SOL    HW218128   2.038  12.403   4.660
 5411SOL     OW18129   7.408   9.450   1.983
 5411SOL    HW118130   7.476   9.390   1.953
 5411SOL    HW218131   7.399   9.515   1.914
 5412SOL     OW18132  13.796  12.969  10.713
 5412SOL    HW118133  13.764  13.059  10.716
 5412SOL    HW218134  13.718  12.916  10.696
 5413SOL     OW18135   8.787   8.215   1.150
 5413SOL    HW118136   8.726   8.181   1.085
 5413SOL    HW218137   8.842   8.278   1.102
 5414SOL     OW18138   8.726  13.553   9.723
 5414SOL    HW118139   8.647  13.535   9.671
 5414SOL    HW218140   8.799  13.535   9.664
 5415SOL     OW18141   5.722  10.765   6.315
 5415SOL    HW118142   5.762  10.685   6.279
 5415SOL    HW218143   5.796  10.821   6.335
 5416SOL     OW18144   9.222   9.864   8.034
 5416SOL    HW118145   9.297   9.876   8.092
 5416SOL    HW218146   9.198   9.772   8.045
 5417SOL     OW18147   8.957   3.089   6.819
 5417SOL    HW118148   8.885   3.137   6.859
 5417SOL    HW218149   8.953   3.002   6.859
 5418SOL     OW18150  10.617   4.627  14.108
 5418SOL    HW118151  10.538   4.607  14.160
 5418SOL    HW218152  10.584   4.643  14.020
 5419SOL     OW18153  11.024   7.443   5.344
 5419SOL    HW118154  11.093   7.503   5.315
 5419SOL    HW218155  11.005   7.389   5.267
 5420SOL     OW18156   4.936  10.816   0.140
 5420SOL    HW118157   4.919  10.773   0.224
 5420SOL    HW218158   4.907  10.753   0.075
 5421SOL     OW18159   1.667   0.711   4.427
 5421SOL    HW118160   1.718   0.774   4.477
 5421SOL    HW218161   1.648   0.756   4.344
 5422SOL     OW18162  13.533   6.561   0.902
 5422SOL    HW118163  13.592   6.601   0.966
 5422SOL    HW218164  13.502   6.481   0.944
 5423SOL     OW18165   8.360   7.518   1.601
 5423SOL    HW118166   8.370   7.454   1.671
 5423SOL    HW218167   8.450   7.540   1.575
 5424SOL     OW18168   3.362  12.835   0.118
 5424SOL    HW118169   3.409  12.770   0.066
 5424SOL    HW218170   3.411  12.843   0.199
 5425SOL     OW18171   3.060   4.877   4.760
 5425SOL    HW118172   2.982   4.848   4.713
 5425SOL    HW218173   3.074   4.809   4.827
 5426SOL     OW18174  10.868  12.147   9.669
 5426SOL    HW118175  10.940  12.142   9.606
 5426SOL    HW218176  10.868  12.237   9.699
 5427SOL     OW18177  13.361   7.425   7.447
 5427SOL    HW118178  13.318   7.510   7.449
 5427SOL    HW218179  13.334   7.386   7.363
 5428SOL     OW18180   3.066   5.195   7.779
 5428SOL    HW118181   3.110   5.152   7.852
 5428SOL    HW218182   3.099   5.285   7.781
 5429SOL     OW18183  11.524   5.166   2.515
 5429SOL    HW118184  11.466   5.217   2.572
 5429SOL    HW218185  11.612   5.190   2.545
 5430SOL     OW18186   9.026  11.070  12.408
 5430SOL    HW118187   9.048  11.016  12.332
 5430SOL    HW218188   8.936  11.097  12.393
 5431SOL     OW18189   5.219  14.533   1.430
 5431SOL    HW118190   5.279  14.462   1.408
 5431SOL    HW218191   5.266  14.613   1.404
 5432SOL     OW18192   6.733  13.191   3.232
 5432SOL    HW118193   6.656  13.141   3.204
 5432SOL    HW218194   6.769  13.225   3.150
 5433SOL     OW18195   1.620   1.497   0.855
 5433SOL    HW118196   1.597   1.522   0.765
 5433SOL    HW218197   1.577   1.562   0.910
 5434SOL     OW18198   5.417   9.957   8.678
 5434SOL    HW118199   5.374   9.999   8.752
 5434SOL    HW218200   5.354   9.965   8.606
 5435SOL     OW18201  13.858   6.630   4.309
 5435SOL    HW118202  13.840   6.707   4.363
 5435SOL    HW218203  13.773   6.606   4.273
 5436SOL     OW18204  14.781  12.064   8.049
 5436SOL    HW118205  14.872  12.039   8.033
 5436SOL    HW218206  14.736  11.980   8.065
 5437SOL     OW18207  11.392  10.796  11.687
 5437SOL    HW118208  11.370  10.804  11.780
 5437SOL    HW218209  11.311  10.765  11.646
 5438SOL     OW18210  13.936   4.428  11.677
 5438SOL    HW118211  13.996   4.477  11.732
 5438SOL    HW218212  13.963   4.336  11.687
 5439SOL     OW18213   6.952   7.757   2.253
 5439SOL    HW118214   7.045   7.735   2.254
 5439SOL    HW218215   6.928   7.761   2.346
 5440SOL     OW18216   7.630  14.122   9.085
 5440SOL    HW118217   7.704  14.076   9.124
 5440SOL    HW218218   7.572  14.140   9.159
 5441SOL     OW18219   7.105   3.478   8.053
 5441SOL    HW118220   7.193   3.514   8.064
 5441SOL    HW218221   7.050   3.554   8.036
 5442SOL     OW18222   9.820  11.516   4.639
 5442SOL    HW118223   9.886  11.448   4.652
 5442SOL    HW218224   9.753  11.473   4.586
 5443SOL     OW18225   8.942   9.430   2.949
 5443SOL    HW118226   8.854   9.391   2.954
 5443SOL    HW218227   8.994   9.365   2.902
 5444SOL     OW18228   9.064   9.951   7.031
 5444SOL    HW118229   8.988   9.996   6.993
 5444SOL    HW218230   9.059   9.862   6.997
 5445SOL     OW18231   0.925  11.615   0.829
 5445SOL    HW118232   0.850  11.674   0.817
 5445SOL    HW218233   0.946  11.621   0.922
 5446SOL     OW18234   9.532   0.009   0.737
 5446SOL    HW118235   9.547  14.812   0.683
 5446SOL    HW218236   9.542   0.082   0.677
 5447SOL     OW18237   1.475   7.031   5.298
 5447SOL    HW118238   1.424   7.085   5.358
 5447SOL    HW218239   1.473   6.943   5.337
 5448SOL     OW18240   8.128  12.254   2.038
 5448SOL    HW118241   8.142  12.339   1.995
 5448SOL    HW218242   8.214  12.211   2.035
 5449SOL     OW18243   8.138   7.609   9.356
 5449SOL    HW118244   8.140   7.668   9.432
 5449SOL    HW218245   8.144   7.668   9.280
 5450SOL     OW18246  13.665  13.872   0.904
 5450SOL    HW118247  13.710  13.925   0.970
 5450SOL    HW218248  13.694  13.783   0.921
 5451SOL     OW18249  10.868   1.333  11.987
 5451SOL    HW118250  10.956   1.348  12.022
 5451SOL    HW218251  10.827   1.419  11.985
 5452SOL     OW18252  10.683  10.283   1.669
 5452SOL    HW118253  10.658  10.193   1.685
 5452SOL    HW218254  10.773  10.290   1.702
 5453SOL     OW18255  11.469  10.525   9.554
 5453SOL    HW118256  11.505  10.544   9.641
 5453SOL    HW218257  11.414  10.448   9.567
 5454SOL     OW18258  13.425   6.942  12.089
 5454SOL    HW118259  13.439   7.037  12.082
 5454SOL    HW218260  13.361   6.922  12.021
 5455SOL     OW18261   9.191  10.642   9.713
 5455SOL    HW118262   9.233  10.626   9.798
 5455SOL    HW218263   9.107  10.596   9.718
 5456SOL     OW18264  14.460   3.743   8.551
 5456SOL    HW118265  14.519   3.758   8.625
 5456SOL    HW218266  14.504   3.676   8.499
 5457SOL     OW18267   2.604   6.653  10.001
 5457SOL    HW118268   2.676   6.715   9.995
 5457SOL    HW218269   2.590   6.623   9.911
 5458SOL     OW18270  13.413  14.076   1.093
 5458SOL    HW118271  13.460  14.011   1.145
 5458SOL    HW218272  13.427  14.050   1.003
 5459SOL     OW18273   5.800   2.037   6.658
 5459SOL    HW118274   5.835   2.124   6.639
 5459SOL    HW218275   5.877   1.983   6.674
 5460SOL     OW18276   2.358   2.512   8.879
 5460SOL    HW118277   2.440   2.535   8.836
 5460SOL    HW218278   2.330   2.593   8.923
 5461SOL     OW18279  10.774   4.770   8.380
 5461SOL    HW118280  10.772   4.862   8.355
 5461SOL    HW218281  10.796   4.771   8.473
 5462SOL     OW18282   9.325   3.372   5.653
 5462SOL    HW118283   9.358   3.282   5.660
 5462SOL    HW218284   9.353   3.401   5.566
 5463SOL     OW18285   5.430   5.678  14.225
 5463SOL    HW118286   5.463   5.731  14.152
 5463SOL    HW218287   5.337   5.665  14.204
 5464SOL     OW18288   2.737   2.802   7.597
 5464SOL    HW118289   2.673   2.858   7.552
 5464SOL    HW218290   2.765   2.739   7.530
 5465SOL     OW18291   9.409   9.734  10.925
 5465SOL    HW118292   9.494   9.777  10.930
 5465SOL    HW218293   9.428   9.643  10.903
 5466SOL     OW18294  13.601  10.940  13.254
 5466SOL    HW118295  13.589  11.007  13.187
 5466SOL    HW218296  13.517  10.935  13.299
 5467SOL     OW18297   5.344  11.944  10.491
 5467SOL    HW118298   5.325  11.860  10.449
 5467SOL    HW218299   5.318  12.010  10.427
 5468SOL     OW18300   6.004   1.147   0.407
 5468SOL    HW118301   6.044   1.137   0.321
 5468SOL    HW218302   5.951   1.227   0.400
 5469SOL     OW18303   3.344  14.817  12.192
 5469SOL    HW118304   3.375  14.729  12.172
 5469SOL    HW218305   3.264  14.827  12.141
 5470SOL     OW18306   5.860  12.746   6.241
 5470SOL    HW118307   5.882  12.668   6.293
 5470SOL    HW218308   5.830  12.711   6.157
 5471SOL     OW18309   5.499   6.504   2.532
 5471SOL    HW118310   5.440   6.473   2.463
 5471SOL    HW218311   5.477   6.451   2.608
 5472SOL     OW18312   6.421  12.391  12.600
 5472SOL    HW118313   6.495  12.425  12.550
 5472SOL    HW218314   6.356  12.461  12.598
 5473SOL     OW18315   4.830   8.038   6.034
 5473SOL    HW118316   4.826   8.091   6.114
 5473SOL    HW218317   4.751   8.064   5.985
 5474SOL     OW18318   3.187  10.470   3.891
 5474SOL    HW118319   3.233  10.387   3.883
 5474SOL    HW218320   3.180  10.501   3.801
 5475SOL     OW18321  13.438  13.902  12.234
 5475SOL    HW118322  13.436  13.825  12.177
 5475SOL    HW218323  13.382  13.965  12.190
 5476SOL     OW18324   3.298  14.808   8.420
 5476SOL    HW118325   3.232  14.780   8.356
 5476SOL    HW218326   3.247  14.829   8.498
 5477SOL     OW18327   0.323  11.235   3.416
 5477SOL    HW118328   0.238  11.246   3.458
 5477SOL    HW218329   0.303  11.223   3.323
 5478SOL     OW18330   4.201   3.996   6.893
 5478SOL    HW118331   4.238   4.080   6.864
 5478SOL    HW218332   4.159   4.016   6.977
 5479SOL     OW18333   0.812   0.892  14.192
 5479SOL    HW118334   0.789   0.887  14.099
 5479SOL    HW218335   0.729   0.907  14.237
 5480SOL     OW18336   7.057  10.417   1.934
 5480SOL    HW118337   7.094  10.471   2.004
 5480SOL    HW218338   6.968  10.397   1.963
 5481SOL     OW18339  14.722   6.390   5.514
 5481SOL    HW118340  14.747   6.317   5.457
 5481SOL    HW218341  14.801   6.410   5.564
 5482SOL     OW18342  13.531   1.264   2.206
 5482SOL    HW118343  13.444   1.298   2.182
 5482SOL    HW218344  13.561   1.217   2.129
 5483SOL     OW18345  14.645  11.635   2.532
 5483SOL    HW118346  14.591  11.593   2.465
 5483SOL    HW218347  14.734  11.606   2.512
 5484SOL     OW18348   1.836   0.800   0.613
 5484SOL    HW118349   1.744   0.787   0.636
 5484SOL    HW218350   1.848   0.895   0.617
 5485SOL     OW18351  13.918   5.291   3.670
 5485SOL    HW118352  13.932   5.336   3.587
 5485SOL    HW218353  13.916   5.198   3.648
 5486SOL     OW18354   3.813   6.154   5.457
 5486SOL    HW118355   3.777   6.242   5.474
 5486SOL    HW218356   3.890   6.169   5.402
 5487SOL     OW18357  11.362   5.938   1.733
 5487SOL    HW118358  11.365   5.871   1.664
 5487SOL    HW218359  11.375   6.020   1.686
 5488SOL     OW18360   6.128  11.941   1.391
 5488SOL    HW118361   6.112  11.914   1.300
 5488SOL    HW218362   6.102  11.865   1.443
 5489SOL     OW18363   6.668  10.971   4.900
 5489SOL    HW118364   6.752  11.016   4.891
 5489SOL    HW218365   6.640  10.954   4.810
 5490SOL     OW18366   1.189   0.989   2.445
 5490SOL    HW118367   1.208   0.895   2.440
 5490SOL    HW218368   1.094   0.994   2.453
 5491SOL     OW18369   6.357   7.265   7.761
 5491SOL    HW118370   6.308   7.249   7.681
 5491SOL    HW218371   6.311   7.214   7.828
 5492SOL     OW18372   8.829   4.621  11.366
 5492SOL    HW118373   8.806   4.607  11.458
 5492SOL    HW218374   8.915   4.580  11.356
 5493SOL     OW18375  14.545   4.660  14.234
 5493SOL    HW118376  14.625   4.682  14.283
 5493SOL    HW218377  14.573   4.657  14.143
 5494SOL     OW18378  10.951   2.034   5.130
 5494SOL    HW118379  10.988   2.085   5.058
 5494SOL    HW218380  10.859   2.060   5.134
 5495SOL     OW18381  12.406   2.174   2.824
 5495SOL    HW118382  12.344   2.211   2.886
 5495SOL    HW218383  12.410   2.081   2.847
 5496SOL     OW18384  11.677  10.316  14.675
 5496SOL    HW118385  11.723  10.232  14.680
 5496SOL    HW218386  11.592  10.299  14.716
 5497SOL     OW18387   7.660   5.477   3.745
 5497SOL    HW118388   7.643   5.420   3.820
 5497SOL    HW218389   7.712   5.549   3.782
 5498SOL     OW18390   1.673   4.672  10.748
 5498SOL    HW118391   1.762   4.704  10.732
 5498SOL    HW218392   1.621   4.751  10.763
 5499SOL     OW18393  10.984   4.473  12.959
 5499SOL    HW118394  10.893   4.498  12.975
 5499SOL    HW218395  10.987   4.379  12.979
 5500SOL     OW18396  12.854   9.651  11.686
 5500SOL    HW118397  12.810   9.703  11.618
 5500SOL    HW218398  12.790   9.584  11.709
 5501SOL     OW18399  12.147   2.888   0.416
 5501SOL    HW118400  12.180   2.936   0.492
 5501SOL    HW218401  12.112   2.956   0.358
 5502SOL     OW18402   4.949   9.095  11.411
 5502SOL    HW118403   4.934   9.020  11.469
 5502SOL    HW218404   5.001   9.156  11.464
 5503SOL     OW18405  14.403   1.340  10.314
 5503SOL    HW118406  14.379   1.267  10.256
 5503SOL    HW218407  14.328   1.348  10.374
 5504SOL     OW18408   5.352   3.792  12.282
 5504SOL    HW118409   5.308   3.805  12.198
 5504SOL    HW218410   5.309   3.715  12.320
 5505SOL     OW18411   7.605  14.636   1.195
 5505SOL    HW118412   7.653  14.718   1.187
 5505SOL    HW218413   7.654  14.574   1.143
 5506SOL     OW18414   5.019   3.401   6.281
 5506SOL    HW118415   5.109   3.367   6.285
 5506SOL    HW218416   5.019   3.474   6.343
 5507SOL     OW18417  10.353  10.066   9.867
 5507SOL    HW118418  10.404   9.986   9.881
 5507SOL    HW218419  10.361  10.113   9.950
 5508SOL     OW18420   9.994   2.222   2.513
 5508SOL    HW118421   9.996   2.134   2.475
 5508SOL    HW218422   9.916   2.262   2.475
 5509SOL     OW18423  11.870   8.575  13.519
 5509SOL    HW118424  11.861   8.595  13.426
 5509SOL    HW218425  11.958   8.605  13.541
 5510SOL     OW18426  11.478   9.188  10.650
 5510SOL    HW118427  11.557   9.216  10.603
 5510SOL    HW218428  11.452   9.265  10.700
 5511SOL     OW18429   2.522  13.305   9.483
 5511SOL    HW118430   2.578  13.329   9.409
 5511SOL    HW218431   2.542  13.212   9.499
 5512SOL     OW18432   2.778   5.727   8.370
 5512SOL    HW118433   2.860   5.714   8.323
 5512SOL    HW218434   2.712   5.686   8.315
 5513SOL     OW18435   4.623   2.136   9.948
 5513SOL    HW118436   4.578   2.174   9.873
 5513SOL    HW218437   4.629   2.208  10.011
 5514SOL     OW18438   5.418   9.615  11.749
 5514SOL    HW118439   5.413   9.634  11.843
 5514SOL    HW218440   5.401   9.699  11.707
 5515SOL     OW18441  11.070   1.289   8.187
 5515SOL    HW118442  10.992   1.257   8.142
 5515SOL    HW218443  11.131   1.313   8.116
 5516SOL     OW18444   7.201  13.900   0.512
 5516SOL    HW118445   7.276  13.943   0.555
 5516SOL    HW218446   7.233  13.878   0.425
 5517SOL     OW18447  11.617   7.428   4.739
 5517SOL    HW118448  11.618   7.344   4.786
 5517SOL    HW218449  11.524   7.444   4.721
 5518SOL     OW18450   8.219   9.547  12.585
 5518SOL    HW118451   8.210   9.478  12.519
 5518SOL    HW218452   8.304   9.530  12.627
 5519SOL     OW18453   1.713  12.427   4.201
 5519SOL    HW118454   1.711  12.374   4.120
 5519SOL    HW218455   1.796  12.403   4.242
 5520SOL     OW18456   4.791  14.848  12.519
 5520SOL    HW118457   4.870   0.012  12.549
 5520SOL    HW218458   4.820  14.761  12.495
 5521SOL     OW18459  13.847   7.885   7.546
 5521SOL    HW118460  13.918   7.864   7.607
 5521SOL    HW218461  13.892   7.909   7.465
 5522SOL     OW18462   7.225   1.192   6.179
 5522SOL    HW118463   7.218   1.223   6.269
 5522SOL    HW218464   7.142   1.149   6.161
 5523SOL     OW18465   1.601  14.095  11.986
 5523SOL    HW118466   1.650  14.174  12.006
 5523SOL    HW218467   1.553  14.116  11.906
 5524SOL     OW18468   1.122   8.123  11.428
 5524SOL    HW118469   1.185   8.114  11.500
 5524SOL    HW218470   1.154   8.198  11.378
 5525SOL     OW18471   9.565  14.585   1.276
 5525SOL    HW118472   9.579  14.584   1.181
 5525SOL    HW218473   9.511  14.664   1.290
 5526SOL     OW18474   0.531   0.753   4.748
 5526SOL    HW118475   0.618   0.745   4.787
 5526SOL    HW218476   0.481   0.805   4.810
 5527SOL     OW18477   0.101  13.164   1.050
 5527SOL    HW118478   0.158  13.160   1.127
 5527SOL    HW218479   0.097  13.074   1.019
 5528SOL     OW18480  14.698   4.481   8.675
 5528SOL    HW118481  14.750   4.561   8.685
 5528SOL    HW218482  14.702   4.438   8.761
 5529SOL     OW18483  13.897  13.889   3.952
 5529SOL    HW118484  13.959  13.961   3.960
 5529SOL    HW218485  13.914  13.852   3.865
 5530SOL     OW18486   2.322  11.951   2.349
 5530SOL    HW118487   2.324  12.045   2.334
 5530SOL    HW218488   2.244  11.937   2.403
 5531SOL     OW18489   3.718   4.052  11.499
 5531SOL    HW118490   3.672   4.132  11.473
 5531SOL    HW218491   3.769   4.027  11.423
 5532SOL     OW18492   1.901  13.265   5.873
 5532SOL    HW118493   1.938  13.341   5.918
 5532SOL    HW218494   1.977  13.212   5.849
 5533SOL     OW18495   2.655  14.338   8.504
 5533SOL    HW118496   2.666  14.302   8.592
 5533SOL    HW218497   2.744  14.352   8.472
 5534SOL     OW18498   4.084   1.155   2.819
 5534SOL    HW118499   4.005   1.163   2.873
 5534SOL    HW218500   4.054   1.113   2.739
 5535SOL     OW18501  14.069  13.086   6.757
 5535SOL    HW118502  14.112  13.012   6.800
 5535SOL    HW218503  14.022  13.047   6.683
 5536SOL     OW18504   1.147   3.626   4.903
 5536SOL    HW118505   1.236   3.663   4.899
 5536SOL    HW218506   1.092   3.693   4.864
 5537SOL     OW18507   5.725  13.993   1.386
 5537SOL    HW118508   5.821  13.994   1.385
 5537SOL    HW218509   5.700  14.080   1.417
 5538SOL     OW18510  10.210   3.322   1.435
 5538SOL    HW118511  10.290   3.369   1.416
 5538SOL    HW218512  10.206   3.317   1.531
 5539SOL     OW18513   1.932  13.516   3.760
 5539SOL    HW118514   1.909  13.441   3.706
 5539SOL    HW218515   2.027  13.522   3.754
 5540SOL     OW18516   9.355   4.397   3.470
 5540SOL    HW118517   9.377   4.304   3.476
 5540SOL    HW218518   9.426   4.441   3.516
 5541SOL     OW18519   3.374   0.665   7.558
 5541SOL    HW118520   3.348   0.609   7.484
 5541SOL    HW218521   3.305   0.654   7.622
 5542SOL     OW18522   7.299   2.311   0.165
 5542SOL    HW118523   7.213   2.344   0.139
 5542SOL    HW218524   7.352   2.320   0.086
 5543SOL     OW18525   5.928  11.762  10.401
 5543SOL    HW118526   5.850  11.783  10.348
 5543SOL    HW218527   5.985  11.838  10.391
 5544SOL     OW18528  10.336  13.565   3.550
 5544SOL    HW118529  10.351  13.629   3.480
 5544SOL    HW218530  10.417  13.566   3.601
 5545SOL     OW18531   5.360   6.444  12.375
 5545SOL    HW118532   5.329   6.389  12.303
 5545SOL    HW218533   5.356   6.388  12.452
 5546SOL     OW18534   5.717   1.194   5.316
 5546SOL    HW118535   5.664   1.180   5.237
 5546SOL    HW218536   5.790   1.132   5.306
 5547SOL     OW18537  12.345   2.758  12.973
 5547SOL    HW118538  12.435   2.778  12.998
 5547SOL    HW218539  12.323   2.825  12.908
 5548SOL     OW18540  13.682   9.685   4.490
 5548SOL    HW118541  13.652   9.730   4.569
 5548SOL    HW218542  13.730   9.753   4.441
 5549SOL     OW18543   4.727  11.815   1.492
 5549SOL    HW118544   4.685  11.754   1.553
 5549SOL    HW218545   4.819  11.788   1.492
 5550SOL     OW18546   6.807   9.121  14.131
 5550SOL    HW118547   6.753   9.043  14.143
 5550SOL    HW218548   6.861   9.102  14.054
 5551SOL     OW18549   8.284   5.353   4.234
 5551SOL    HW118550   8.240   5.435   4.209
 5551SOL    HW218551   8.363   5.351   4.180
 5552SOL     OW18552   4.111  10.333   7.210
 5552SOL    HW118553   4.104  10.303   7.300
 5552SOL    HW218554   4.105  10.429   7.216
 5553SOL     OW18555   7.487   1.622  11.373
 5553SOL    HW118556   7.407   1.631  11.320
 5553SOL    HW218557   7.495   1.707  11.417
 5554SOL     OW18558   3.801   9.110   7.502
 5554SOL    HW118559   3.839   9.197   7.488
 5554SOL    HW218560   3.707   9.127   7.513
 5555SOL     OW18561   5.013  11.239   1.690
 5555SOL    HW118562   4.940  11.197   1.644
 5555SOL    HW218563   4.990  11.332   1.691
 5556SOL     OW18564  12.985   0.503  10.281
 5556SOL    HW118565  12.996   0.512  10.186
 5556SOL    HW218566  12.982   0.593  10.314
 5557SOL     OW18567   5.628   9.033   3.812
 5557SOL    HW118568   5.688   8.971   3.855
 5557SOL    HW218569   5.652   9.029   3.720
 5558SOL     OW18570   8.869   1.931   0.362
 5558SOL    HW118571   8.955   1.918   0.322
 5558SOL    HW218572   8.881   1.904   0.453
 5559SOL     OW18573   9.933  10.527  12.612
 5559SOL    HW118574   9.915  10.607  12.661
 5559SOL    HW218575  10.007  10.488  12.658
 5560SOL     OW18576   1.672   4.444   2.867
 5560SOL    HW118577   1.730   4.451   2.791
 5560SOL    HW218578   1.661   4.350   2.881
 5561SOL     OW18579   6.231   0.298   6.144
 5561SOL    HW118580   6.195   0.226   6.196
 5561SOL    HW218581   6.320   0.270   6.124
 5562SOL     OW18582  10.337   5.923  10.468
 5562SOL    HW118583  10.363   5.855  10.405
 5562SOL    HW218584  10.255   5.890  10.506
 5563SOL     OW18585  11.964   8.865   7.446
 5563SOL    HW118586  12.012   8.783   7.459
 5563SOL    HW218587  12.025   8.933   7.474
 5564SOL     OW18588   4.777   5.769  10.496
 5564SOL    HW118589   4.868   5.774  10.525
 5564SOL    HW218590   4.744   5.858  10.508
 5565SOL     OW18591  12.380   1.267   5.155
 5565SOL    HW118592  12.468   1.270   5.194
 5565SOL    HW218593  12.396   1.263   5.060
 5566SOL     OW18594   6.856   0.757   5.925
 5566SOL    HW118595   6.817   0.682   5.880
 5566SOL    HW218596   6.789   0.785   5.987
 5567SOL     OW18597   7.922  14.139  11.359
 5567SOL    HW118598   7.934  14.166  11.268
 5567SOL    HW218599   7.890  14.218  11.403
 5568SOL     OW18600   1.666   3.274  12.656
 5568SOL    HW118601   1.710   3.254  12.738
 5568SOL    HW218602   1.576   3.243  12.669
 5569SOL     OW18603  13.567   9.302   2.840
 5569SOL    HW118604  13.517   9.300   2.759
 5569SOL    HW218605  13.525   9.370   2.893
 5570SOL     OW18606   3.969  11.519   0.124
 5570SOL    HW118607   4.037  11.526   0.190
 5570SOL    HW218608   4.013  11.536   0.041
 5571SOL     OW18609  13.909   1.589   5.050
 5571SOL    HW118610  13.931   1.505   5.092
 5571SOL    HW218611  13.994   1.623   5.021
 5572SOL     OW18612   2.962   1.526   9.576
 5572SOL    HW118613   3.034   1.528   9.639
 5572SOL    HW218614   2.884   1.514   9.630
 5573SOL     OW18615   8.253   7.480   3.149
 5573SOL    HW118616   8.241   7.412   3.216
 5573SOL    HW218617   8.245   7.433   3.066
 5574SOL     OW18618   4.838   4.914   3.526
 5574SOL    HW118619   4.802   4.833   3.489
 5574SOL    HW218620   4.931   4.911   3.505
 5575SOL     OW18621   8.861  11.013   2.576
 5575SOL    HW118622   8.845  10.971   2.660
 5575SOL    HW218623   8.894  10.943   2.520
 5576SOL     OW18624  10.286  10.295   0.550
 5576SOL    HW118625  10.268  10.322   0.641
 5576SOL    HW218626  10.289  10.199   0.554
 5577SOL     OW18627  13.954  11.525  12.150
 5577SOL    HW118628  13.882  11.485  12.100
 5577SOL    HW218629  14.005  11.573  12.085
 5578SOL     OW18630   9.771   5.910   1.957
 5578SOL    HW118631   9.747   5.964   2.032
 5578SOL    HW218632   9.723   5.948   1.884
 5579SOL     OW18633   4.817  11.080   4.231
 5579SOL    HW118634   4.731  11.077   4.190
 5579SOL    HW218635   4.843  11.172   4.225
 5580SOL     OW18636  11.843   3.337   9.328
 5580SOL    HW118637  11.832   3.406   9.263
 5580SOL    HW218638  11.895   3.270   9.283
 5581SOL     OW18639   0.610  12.083   6.198
 5581SOL    HW118640   0.668  12.008   6.185
 5581SOL    HW218641   0.558  12.087   6.118
 5582SOL     OW18642  13.151  11.584   7.908
 5582SOL    HW118643  13.085  11.621   7.850
 5582SOL    HW218644  13.186  11.509   7.860
 5583SOL     OW18645  11.891   3.932   6.008
 5583SOL    HW118646  11.882   3.838   6.024
 5583SOL    HW218647  11.900   3.970   6.095
 5584SOL     OW18648   9.763  14.151  14.843
 5584SOL    HW118649   9.739  14.229   0.012
 5584SOL    HW218650   9.681  14.101  14.837
 5585SOL     OW18651   6.637   3.092   7.370
 5585SOL    HW118652   6.691   3.162   7.335
 5585SOL    HW218653   6.547   3.118   7.350
 5586SOL     OW18654   0.311   0.371   7.868
 5586SOL    HW118655   0.234   0.389   7.814
 5586SOL    HW218656   0.384   0.408   7.818
 5587SOL     OW18657  12.206   9.895   7.235
 5587SOL    HW118658  12.137   9.839   7.199
 5587SOL    HW218659  12.195   9.979   7.190
 5588SOL     OW18660   5.477   6.894  10.818
 5588SOL    HW118661   5.509   6.842  10.892
 5588SOL    HW218662   5.474   6.832  10.745
 5589SOL     OW18663   0.148  12.370   6.033
 5589SOL    HW118664   0.178  12.306   5.969
 5589SOL    HW218665   0.094  12.431   5.982
 5590SOL     OW18666   3.491  12.779  13.831
 5590SOL    HW118667   3.400  12.776  13.860
 5590SOL    HW218668   3.541  12.755  13.909
 5591SOL     OW18669  14.282  12.273  10.067
 5591SOL    HW118670  14.333  12.340  10.021
 5591SOL    HW218671  14.348  12.212  10.101
 5592SOL     OW18672   1.475   2.905   2.977
 5592SOL    HW118673   1.549   2.957   2.945
 5592SOL    HW218674   1.515   2.831   3.021
 5593SOL     OW18675  13.457   4.486   5.333
 5593SOL    HW118676  13.412   4.570   5.342
 5593SOL    HW218677  13.525   4.487   5.399
 5594SOL     OW18678   3.715  10.740   5.842
 5594SOL    HW118679   3.753  10.806   5.900
 5594SOL    HW218680   3.757  10.755   5.758
 5595SOL     OW18681   8.782   8.657   4.588
 5595SOL    HW118682   8.821   8.733   4.632
 5595SOL    HW218683   8.718   8.696   4.528
 5596SOL     OW18684   2.480  14.657  12.359
 5596SOL    HW118685   2.434  14.605  12.425
 5596SOL    HW218686   2.411  14.687  12.300
 5597SOL     OW18687  12.441  10.610  11.987
 5597SOL    HW118688  12.506  10.632  11.920
 5597SOL    HW218689  12.492  10.594  12.066
 5598SOL     OW18690   2.917  10.535  11.878
 5598SOL    HW118691   2.930  10.581  11.796
 5598SOL    HW218692   2.984  10.466  11.877
 5599SOL     OW18693   3.406   3.638   6.274
 5599SOL    HW118694   3.383   3.588   6.195
 5599SOL    HW218695   3.330   3.694   6.289
 5600SOL     OW18696   1.988   8.850  11.914
 5600SOL    HW118697   2.068   8.887  11.952
 5600SOL    HW218698   1.957   8.789  11.981
 5601SOL     OW18699   8.111   8.880   1.656
 5601SOL    HW118700   8.055   8.915   1.726
 5601SOL    HW218701   8.051   8.861   1.584
 5602SOL     OW18702   4.745   2.519   5.087
 5602SOL    HW118703   4.697   2.490   5.009
 5602SOL    HW218704   4.780   2.438   5.124
 5603SOL     OW18705   6.591   9.986  12.614
 5603SOL    HW118706   6.596   9.927  12.689
 5603SOL    HW218707   6.550   9.933  12.545
 5604SOL     OW18708  11.840   7.495   4.568
 5604SOL    HW118709  11.750   7.472   4.587
 5604SOL    HW218710  11.892   7.451   4.636
 5605SOL     OW18711   9.521   4.740   5.489
 5605SOL    HW118712   9.477   4.718   5.406
 5605SOL    HW218713   9.536   4.656   5.531
 5606SOL     OW18714   8.525  13.819  14.237
 5606SOL    HW118715   8.476  13.842  14.158
 5606SOL    HW218716   8.551  13.728  14.224
 5607SOL     OW18717  14.303  14.099   4.842
 5607SOL    HW118718  14.379  14.046   4.816
 5607SOL    HW218719  14.338  14.163   4.904
 5608SOL     OW18720   9.425   6.566   1.259
 5608SOL    HW118721   9.521   6.573   1.265
 5608SOL    HW218722   9.403   6.616   1.180
 5609SOL     OW18723   7.769   8.339  11.351
 5609SOL    HW118724   7.834   8.403  11.380
 5609SOL    HW218725   7.773   8.342  11.256
 5610SOL     OW18726   8.076  13.065   3.452
 5610SOL    HW118727   8.141  13.135   3.448
 5610SOL    HW218728   7.992  13.110   3.464
 5611SOL     OW18729   9.753   6.883  13.593
 5611SOL    HW118730   9.849   6.880  13.599
 5611SOL    HW218731   9.726   6.932  13.670
 5612SOL     OW18732  13.785  11.101   5.095
 5612SOL    HW118733  13.743  11.182   5.126
 5612SOL    HW218734  13.713  11.048   5.063
 5613SOL     OW18735   4.665   6.828   7.295
 5613SOL    HW118736   4.684   6.767   7.224
 5613SOL    HW218737   4.691   6.782   7.374
 5614SOL     OW18738   1.973  12.158   8.504
 5614SOL    HW118739   1.990  12.190   8.593
 5614SOL    HW218740   2.044  12.096   8.487
 5615SOL     OW18741   9.069   3.416   2.588
 5615SOL    HW118742   9.111   3.472   2.653
 5615SOL    HW218743   9.000   3.370   2.635
 5616SOL     OW18744  10.168   6.586   5.015
 5616SOL    HW118745  10.115   6.632   5.080
 5616SOL    HW218746  10.255   6.580   5.054
 5617SOL     OW18747   7.648  14.698   9.223
 5617SOL    HW118748   7.553  14.700   9.219
 5617SOL    HW218749   7.670  14.709   9.315
 5618SOL     OW18750   8.153   7.915  11.032
 5618SOL    HW118751   8.062   7.886  11.021
 5618SOL    HW218752   8.188   7.919  10.943
 5619SOL     OW18753   4.074  12.060  12.052
 5619SOL    HW118754   4.113  11.990  11.999
 5619SOL    HW218755   4.023  12.112  11.990
 5620SOL     OW18756   4.337  13.096   2.408
 5620SOL    HW118757   4.348  13.122   2.499
 5620SOL    HW218758   4.317  13.002   2.411
 5621SOL     OW18759  11.791   2.802   1.228
 5621SOL    HW118760  11.747   2.804   1.313
 5621SOL    HW218761  11.884   2.806   1.248
 5622SOL     OW18762  14.692   1.784   1.851
 5622SOL    HW118763  14.703   1.696   1.886
 5622SOL    HW218764  14.680   1.839   1.928
 5623SOL     OW18765   9.393  11.520  11.852
 5623SOL    HW118766   9.325  11.566  11.901
 5623SOL    HW218767   9.407  11.439  11.900
 5624SOL     OW18768   6.818   3.744   4.873
 5624SOL    HW118769   6.819   3.811   4.942
 5624SOL    HW218770   6.736   3.697   4.888
 5625SOL     OW18771   1.017  13.845   2.378
 5625SOL    HW118772   1.084  13.908   2.403
 5625SOL    HW218773   0.960  13.894   2.318
 5626SOL     OW18774   7.770   5.499   0.053
 5626SOL    HW118775   7.687   5.476   0.011
 5626SOL    HW218776   7.799   5.418   0.095
 5627SOL     OW18777   4.188  10.985   4.087
 5627SOL    HW118778   4.232  10.997   4.003
 5627SOL    HW218779   4.251  10.934   4.139
 5628SOL     OW18780   9.141   0.793   0.929
 5628SOL    HW118781   9.150   0.884   0.958
 5628SOL    HW218782   9.199   0.743   0.986
 5629SOL     OW18783   4.741  14.848   3.390
 5629SOL    HW118784   4.701   0.020   3.459
 5629SOL    HW218785   4.772  14.769   3.434
 5630SOL     OW18786  13.842  13.863  14.514
 5630SOL    HW118787  13.766  13.811  14.541
 5630SOL    HW218788  13.851  13.929  14.583
 5631SOL     OW18789   9.274  10.042   9.049
 5631SOL    HW118790   9.315   9.987   9.116
 5631SOL    HW218791   9.309  10.129   9.064
 5632SOL     OW18792  12.564   9.699  11.049
 5632SOL    HW118793  12.540   9.606  11.048
 5632SOL    HW218794  12.569   9.722  11.142
 5633SOL     OW18795  13.011  11.078  11.961
 5633SOL    HW118796  13.008  11.126  12.044
 5633SOL    HW218797  12.986  10.989  11.984
 5634SOL     OW18798  13.343   5.765   5.266
 5634SOL    HW118799  13.409   5.711   5.221
 5634SOL    HW218800  13.301   5.814   5.195
 5635SOL     OW18801   1.511   8.811   4.112
 5635SOL    HW118802   1.520   8.732   4.059
 5635SOL    HW218803   1.600   8.848   4.115
 5636SOL     OW18804  11.613   6.849   6.017
 5636SOL    HW118805  11.673   6.820   6.085
 5636SOL    HW218806  11.669   6.864   5.941
 5637SOL     OW18807   4.617  11.592  10.207
 5637SOL    HW118808   4.650  11.588  10.297
 5637SOL    HW218809   4.581  11.505  10.192
 5638SOL     OW18810   7.322   6.237   7.600
 5638SOL    HW118811   7.416   6.246   7.585
 5638SOL    HW218812   7.312   6.243   7.695
 5639SOL     OW18813   5.942   7.099   3.642
 5639SOL    HW118814   5.847   7.105   3.636
 5639SOL    HW218815   5.958   7.074   3.733
 5640SOL     OW18816  12.458   3.822   9.489
 5640SOL    HW118817  12.368   3.798   9.508
 5640SOL    HW218818  12.489   3.866   9.568
 5641SOL     OW18819  11.785   9.600   1.320
 5641SOL    HW118820  11.757   9.625   1.408
 5641SOL    HW218821  11.808   9.507   1.327
 5642SOL     OW18822   9.400   1.640   1.163
 5642SOL    HW118823   9.410   1.575   1.233
 5642SOL    HW218824   9.367   1.718   1.207
 5643SOL     OW18825   6.551   7.838  11.217
 5643SOL    HW118826   6.540   7.819  11.124
 5643SOL    HW218827   6.646   7.840  11.230
 5644SOL     OW18828  12.676   1.924   7.949
 5644SOL    HW118829  12.730   1.944   8.026
 5644SOL    HW218830  12.657   2.010   7.911
 5645SOL     OW18831   9.311   6.996   1.523
 5645SOL    HW118832   9.317   6.969   1.614
 5645SOL    HW218833   9.217   7.002   1.505
 5646SOL     OW18834  10.329  13.041  14.113
 5646SOL    HW118835  10.395  12.997  14.060
 5646SOL    HW218836  10.330  12.992  14.196
 5647SOL     OW18837   9.917   5.248   6.359
 5647SOL    HW118838   9.885   5.243   6.269
 5647SOL    HW218839   9.881   5.331   6.391
 5648SOL     OW18840  10.587  11.612   3.775
 5648SOL    HW118841  10.670  11.624   3.821
 5648SOL    HW218842  10.596  11.665   3.696
 5649SOL     OW18843   5.538   8.776   3.587
 5649SOL    HW118844   5.512   8.707   3.527
 5649SOL    HW218845   5.616   8.814   3.549
 5650SOL     OW18846  12.199   6.667  12.947
 5650SOL    HW118847  12.149   6.640  12.870
 5650SOL    HW218848  12.281   6.701  12.912
 5651SOL     OW18849   1.127   8.371   3.833
 5651SOL    HW118850   1.143   8.320   3.753
 5651SOL    HW218851   1.076   8.312   3.889
 5652SOL     OW18852   7.727   4.626  10.918
 5652SOL    HW118853   7.706   4.551  10.862
 5652SOL    HW218854   7.644   4.674  10.925
 5653SOL     OW18855   6.182  11.727  11.358
 5653SOL    HW118856   6.212  11.692  11.274
 5653SOL    HW218857   6.089  11.744  11.346
 5654SOL     OW18858   3.778   8.280  10.986
 5654SOL    HW118859   3.810   8.273  10.897
 5654SOL    HW218860   3.855   8.265  11.041
 5655SOL     OW18861   1.726   1.164   5.597
 5655SOL    HW118862   1.734   1.079   5.554
 5655SOL    HW218863   1.794   1.218   5.557
 5656SOL     OW18864   6.919   7.319  11.789
 5656SOL    HW118865   6.853   7.381  11.820
 5656SOL    HW218866   6.872   7.236  11.780
 5657SOL     OW18867   2.057   7.048  13.010
 5657SOL    HW118868   2.003   6.970  13.002
 5657SOL    HW218869   2.128   7.035  12.947
 5658SOL     OW18870  12.529  12.351   0.525
 5658SOL    HW118871  12.550  12.362   0.433
 5658SOL    HW218872  12.502  12.260   0.534
 5659SOL     OW18873   8.900   2.889   9.061
 5659SOL    HW118874   8.887   2.893   8.967
 5659SOL    HW218875   8.991   2.860   9.072
 5660SOL     OW18876   2.154   3.287  12.020
 5660SOL    HW118877   2.162   3.376  11.985
 5660SOL    HW218878   2.063   3.263  12.004
 5661SOL     OW18879   9.117  13.398   2.854
 5661SOL    HW118880   9.027  13.430   2.863
 5661SOL    HW218881   9.116  13.311   2.893
 5662SOL     OW18882  12.199  11.057  13.026
 5662SOL    HW118883  12.172  10.981  13.077
 5662SOL    HW218884  12.261  11.103  13.083
 5663SOL     OW18885   7.196   2.783   0.657
 5663SOL    HW118886   7.207   2.690   0.636
 5663SOL    HW218887   7.278   2.824   0.630
 5664SOL     OW18888   9.341  10.964   8.704
 5664SOL    HW118889   9.389  10.934   8.781
 5664SOL    HW218890   9.371  11.054   8.691
 5665SOL     OW18891  10.204   9.377   0.056
 5665SOL    HW118892  10.155   9.369  14.854
 5665SOL    HW218893  10.205   9.288   0.092
 5666SOL     OW18894   8.795   7.936   7.574
 5666SOL    HW118895   8.870   7.925   7.515
 5666SOL    HW218896   8.737   7.864   7.552
 5667SOL     OW18897  14.627   0.797  10.063
 5667SOL    HW118898  14.659   0.881  10.031
 5667SOL    HW218899  14.601   0.814  10.154
 5668SOL     OW18900  11.257  12.266   8.393
 5668SOL    HW118901  11.224  12.232   8.476
 5668SOL    HW218902  11.265  12.188   8.337
 5669SOL     OW18903   0.011   6.737   4.470
 5669SOL    HW118904  14.856   6.798   4.535
 5669SOL    HW218905  14.865   6.651   4.501
 5670SOL     OW18906   1.931   8.184   4.829
 5670SOL    HW118907   1.923   8.278   4.819
 5670SOL    HW218908   1.879   8.163   4.907
 5671SOL     OW18909  12.568  11.243   0.585
 5671SOL    HW118910  12.488  11.294   0.573
 5671SOL    HW218911  12.562  11.212   0.675
 5672SOL     OW18912   3.236   1.110  12.760
 5672SOL    HW118913   3.143   1.100  12.775
 5672SOL    HW218914   3.261   1.032  12.710
 5673SOL     OW18915   9.779  11.000   7.030
 5673SOL    HW118916   9.866  10.965   7.011
 5673SOL    HW218917   9.789  11.045   7.114
 5674SOL     OW18918  12.230  11.753   2.319
 5674SOL    HW118919  12.209  11.819   2.254
 5674SOL    HW218920  12.243  11.672   2.269
 5675SOL     OW18921   9.971  13.820   9.795
 5675SOL    HW118922   9.900  13.767   9.830
 5675SOL    HW218923  10.003  13.771   9.719
 5676SOL     OW18924   4.278   6.054   5.136
 5676SOL    HW118925   4.270   5.976   5.191
 5676SOL    HW218926   4.300   6.125   5.198
 5677SOL     OW18927   2.596   1.497   7.045
 5677SOL    HW118928   2.552   1.552   7.110
 5677SOL    HW218929   2.687   1.494   7.074
 5678SOL     OW18930   3.063  13.348   8.312
 5678SOL    HW118931   3.025  13.432   8.338
 5678SOL    HW218932   3.096  13.310   8.394
 5679SOL     OW18933   2.111   4.660   3.078
 5679SOL    HW118934   2.065   4.678   3.160
 5679SOL    HW218935   2.200   4.638   3.105
 5680SOL     OW18936   5.008  10.424  10.724
 5680SOL    HW118937   4.960  10.347  10.696
 5680SOL    HW218938   4.951  10.498  10.702
 5681SOL     OW18939   8.678  13.176   9.111
 5681SOL    HW118940   8.758  13.126   9.126
 5681SOL    HW218941   8.678  13.243   9.180
 5682SOL     OW18942   7.609   9.635  11.795
 5682SOL    HW118943   7.681   9.628  11.858
 5682SOL    HW218944   7.540   9.580  11.832
 5683SOL     OW18945   6.049  10.799   7.547
 5683SOL    HW118946   6.014  10.873   7.497
 5683SOL    HW218947   5.973  10.765   7.596
 5684SOL     OW18948   0.341   5.799   7.172
 5684SOL    HW118949   0.279   5.851   7.120
 5684SOL    HW218950   0.425   5.811   7.128
 5685SOL     OW18951   1.166   4.222   0.520
 5685SOL    HW118952   1.235   4.195   0.460
 5685SOL    HW218953   1.212   4.247   0.600
 5686SOL     OW18954  13.269  11.198   1.470
 5686SOL    HW118955  13.347  11.244   1.501
 5686SOL    HW218956  13.204  11.211   1.539
 5687SOL     OW18957   2.643   3.489   3.743
 5687SOL    HW118958   2.586   3.417   3.717
 5687SOL    HW218959   2.615   3.563   3.688
 5688SOL     OW18960   7.463   5.422   2.481
 5688SOL    HW118961   7.503   5.464   2.557
 5688SOL    HW218962   7.380   5.387   2.514
 5689SOL     OW18963   2.322  13.586   6.453
 5689SOL    HW118964   2.346  13.679   6.450
 5689SOL    HW218965   2.269  13.572   6.375
 5690SOL     OW18966   8.431   6.269  13.744
 5690SOL    HW118967   8.410   6.235  13.657
 5690SOL    HW218968   8.351   6.255  13.795
 5691SOL     OW18969   0.259   7.075  13.328
 5691SOL    HW118970   0.329   7.132  13.361
 5691SOL    HW218971   0.236   7.020  13.403
 5692SOL     OW18972   3.812  11.777   0.982
 5692SOL    HW118973   3.766  11.701   0.948
 5692SOL    HW218974   3.840  11.751   1.070
 5693SOL     OW18975  11.849  14.012   3.188
 5693SOL    HW118976  11.921  13.998   3.126
 5693SOL    HW218977  11.813  13.924   3.202
 5694SOL     OW18978   8.905   0.823  11.291
 5694SOL    HW118979   8.957   0.751  11.327
 5694SOL    HW218980   8.823   0.821  11.341
 5695SOL     OW18981   7.427   3.191   2.357
 5695SOL    HW118982   7.444   3.102   2.387
 5695SOL    HW218983   7.513   3.232   2.352
 5696SOL     OW18984   6.288   6.110  14.704
 5696SOL    HW118985   6.344   6.175  14.745
 5696SOL    HW218986   6.330   6.090  14.620
 5697SOL     OW18987  12.019  13.258   7.410
 5697SOL    HW118988  11.999  13.280   7.501
 5697SOL    HW218989  12.020  13.342   7.365
 5698SOL     OW18990   0.282   0.010   8.263
 5698SOL    HW118991   0.231   0.090   8.254
 5698SOL    HW218992   0.253  14.835   8.190
 5699SOL     OW18993   3.318   2.961  11.224
 5699SOL    HW118994   3.324   2.985  11.316
 5699SOL    HW218995   3.226   2.975  11.201
 5700SOL     OW18996   6.833   2.893  11.150
 5700SOL    HW118997   6.859   2.874  11.240
 5700SOL    HW218998   6.901   2.852  11.096
 5701SOL     OW18999   6.911  12.322   2.235
 5701SOL    HW119000   6.828  12.276   2.222
 5701SOL    HW219001   6.888  12.398   2.289
 5702SOL     OW19002  11.147   3.094   3.110
 5702SOL    HW119003  11.063   3.065   3.146
 5702SOL    HW219004  11.157   3.043   3.029
 5703SOL     OW19005  11.168   1.633   7.220
 5703SOL    HW119006  11.085   1.586   7.215
 5703SOL    HW219007  11.184   1.643   7.314
 5704SOL     OW19008   7.088   7.424   3.745
 5704SOL    HW119009   7.101   7.463   3.658
 5704SOL    HW219010   7.038   7.344   3.728
 5705SOL     OW19011   3.523  13.375   9.348
 5705SOL    HW119012   3.548  13.285   9.324
 5705SOL    HW219013   3.436  13.386   9.309
 5706SOL     OW19014  13.594  11.900  12.516
 5706SOL    HW119015  13.678  11.931  12.551
 5706SOL    HW219016  13.618  11.830  12.455
 5707SOL     OW19017   9.639   5.133  12.797
 5707SOL    HW119018   9.699   5.179  12.739
 5707SOL    HW219019   9.568   5.103  12.739
 5708SOL     OW19020  12.462   9.692  13.813
 5708SOL    HW119021  12.465   9.697  13.717
 5708SOL    HW219022  12.370   9.677  13.833
 5709SOL     OW19023  10.034   5.248   0.259
 5709SOL    HW119024  10.118   5.204   0.248
 5709SOL    HW219025   9.979   5.183   0.304
 5710SOL     OW19026  13.155   2.866  10.620
 5710SOL    HW119027  13.065   2.873  10.589
 5710SOL    HW219028  13.192   2.953  10.606
 5711SOL     OW19029  10.502   8.864   8.243
 5711SOL    HW119030  10.522   8.954   8.268
 5711SOL    HW219031  10.580   8.834   8.196
 5712SOL     OW19032  10.663   9.958  13.310
 5712SOL    HW119033  10.732   9.997  13.363
 5712SOL    HW219034  10.641  10.025  13.246
 5713SOL     OW19035   1.044  10.510   5.462
 5713SOL    HW119036   1.097  10.485   5.538
 5713SOL    HW219037   1.099  10.490   5.386
 5714SOL     OW19038   7.558  13.032  14.732
 5714SOL    HW119039   7.574  13.124  14.711
 5714SOL    HW219040   7.537  12.992  14.648
 5715SOL     OW19041   6.644   1.878   9.868
 5715SOL    HW119042   6.734   1.848   9.881
 5715SOL    HW219043   6.651   1.973   9.862
 5716SOL     OW19044   3.866  11.221   3.160
 5716SOL    HW119045   3.925  11.153   3.191
 5716SOL    HW219046   3.781  11.198   3.196
 5717SOL     OW19047   3.381   5.544   0.749
 5717SOL    HW119048   3.427   5.611   0.699
 5717SOL    HW219049   3.342   5.487   0.684
 5718SOL     OW19050   2.635  14.711   7.697
 5718SOL    HW119051   2.692  14.692   7.623
 5718SOL    HW219052   2.684  14.774   7.750
 5719SOL     OW19053   3.208   9.642   6.065
 5719SOL    HW119054   3.265   9.628   5.990
 5719SOL    HW219055   3.153   9.564   6.069
 5720SOL     OW19056   8.077   8.926  10.429
 5720SOL    HW119057   8.034   8.975  10.499
 5720SOL    HW219058   8.008   8.869  10.393
 5721SOL     OW19059  10.235   5.318   2.224
 5721SOL    HW119060  10.303   5.251   2.213
 5721SOL    HW219061  10.256   5.384   2.159
 5722SOL     OW19062   0.218  12.862   7.659
 5722SOL    HW119063   0.207  12.888   7.750
 5722SOL    HW219064   0.237  12.944   7.613
 5723SOL     OW19065   0.712   1.978   1.693
 5723SOL    HW119066   0.691   1.888   1.667
 5723SOL    HW219067   0.726   1.973   1.787
 5724SOL     OW19068  11.963   4.299   9.881
 5724SOL    HW119069  11.896   4.238   9.852
 5724SOL    HW219070  12.035   4.244   9.913
 5725SOL     OW19071   9.839  14.808   8.555
 5725SOL    HW119072   9.882  14.763   8.483
 5725SOL    HW219073   9.829  14.741   8.623
 5726SOL     OW19074   8.736   6.934  10.871
 5726SOL    HW119075   8.775   6.952  10.785
 5726SOL    HW219076   8.805   6.891  10.920
 5727SOL     OW19077  11.425  13.922   2.120
 5727SOL    HW119078  11.450  14.003   2.076
 5727SOL    HW219079  11.431  13.942   2.214
 5728SOL     OW19080  12.193  13.436   4.829
 5728SOL    HW119081  12.184  13.527   4.857
 5728SOL    HW219082  12.277  13.434   4.784
 5729SOL     OW19083   7.735   0.398   7.058
 5729SOL    HW119084   7.795   0.326   7.079
 5729SOL    HW219085   7.648   0.361   7.070
 5730SOL     OW19086  13.205   6.519   5.223
 5730SOL    HW119087  13.247   6.595   5.182
 5730SOL    HW219088  13.232   6.445   5.168
 5731SOL     OW19089   3.257   9.966  13.717
 5731SOL    HW119090   3.175   9.996  13.757
 5731SOL    HW219091   3.288  10.041  13.666
 5732SOL     OW19092   8.383   0.964  13.467
 5732SOL    HW119093   8.428   0.954  13.383
 5732SOL    HW219094   8.297   0.923  13.453
 5733SOL     OW19095  12.293   9.824   9.220
 5733SOL    HW119096  12.253   9.829   9.133
 5733SOL    HW219097  12.385   9.803   9.203
 5734SOL     OW19098  14.556  12.448   8.797
 5734SOL    HW119099  14.560  12.358   8.828
 5734SOL    HW219100  14.534  12.441   8.704
 5735SOL     OW19101  14.334  11.114  13.339
 5735SOL    HW119102  14.317  11.206  13.316
 5735SOL    HW219103  14.318  11.109  13.433
 5736SOL     OW19104   2.603   7.413   8.998
 5736SOL    HW119105   2.576   7.504   9.004
 5736SOL    HW219106   2.529   7.368   8.959
 5737SOL     OW19107   5.853   8.233  10.489
 5737SOL    HW119108   5.837   8.328  10.491
 5737SOL    HW219109   5.777   8.196  10.445
 5738SOL     OW19110  13.679   7.426   7.377
 5738SOL    HW119111  13.676   7.517   7.405
 5738SOL    HW219112  13.588   7.397   7.381
 5739SOL     OW19113   2.983   5.092   2.706
 5739SOL    HW119114   3.047   5.034   2.746
 5739SOL    HW219115   2.930   5.035   2.650
 5740SOL     OW19116   6.862   2.426  11.772
 5740SOL    HW119117   6.815   2.505  11.747
 5740SOL    HW219118   6.797   2.356  11.764
 5741SOL     OW19119   9.846  11.370   5.616
 5741SOL    HW119120   9.793  11.437   5.573
 5741SOL    HW219121   9.792  11.292   5.615
 5742SOL     OW19122   0.360   4.711   9.818
 5742SOL    HW119123   0.290   4.651   9.793
 5742SOL    HW219124   0.439   4.676   9.777
 5743SOL     OW19125  12.343   0.170   9.022
 5743SOL    HW119126  12.396   0.142   9.097
 5743SOL    HW219127  12.384   0.252   8.994
 5744SOL     OW19128   1.061   7.304  10.468
 5744SOL    HW119129   1.147   7.264  10.482
 5744SOL    HW219130   1.072   7.360  10.392
 5745SOL     OW19131   0.065   8.592   3.504
 5745SOL    HW119132   0.086   8.537   3.429
 5745SOL    HW219133   0.077   8.682   3.472
 5746SOL     OW19134   4.726  13.186   8.327
 5746SOL    HW119135   4.742  13.189   8.233
 5746SOL    HW219136   4.729  13.093   8.349
 5747SOL     OW19137   0.878   7.697   9.659
 5747SOL    HW119138   0.849   7.753   9.732
 5747SOL    HW219139   0.885   7.610   9.698
 5748SOL     OW19140   8.890   3.518   9.102
 5748SOL    HW119141   8.817   3.576   9.079
 5748SOL    HW219142   8.956   3.576   9.139
 5749SOL     OW19143   6.274   6.334   5.792
 5749SOL    HW119144   6.296   6.373   5.876
 5749SOL    HW219145   6.350   6.279   5.770
 5750SOL     OW19146   8.465  10.921  11.900
 5750SOL    HW119147   8.513  10.957  11.974
 5750SOL    HW219148   8.457  10.827  11.920
 5751SOL     OW19149  11.068   5.620   0.058
 5751SOL    HW119150  10.991   5.582   0.015
 5751SOL    HW219151  11.032   5.684   0.120
 5752SOL     OW19152   2.759   4.142   0.369
 5752SOL    HW119153   2.760   4.120   0.462
 5752SOL    HW219154   2.666   4.155   0.349
 5753SOL     OW19155   9.608   6.643  14.638
 5753SOL    HW119156   9.670   6.619  14.707
 5753SOL    HW219157   9.651   6.617  14.556
 5754SOL     OW19158  10.990   7.214   8.229
 5754SOL    HW119159  11.021   7.283   8.288
 5754SOL    HW219160  11.061   7.203   8.165
 5755SOL     OW19161   5.428  13.802  11.254
 5755SOL    HW119162   5.490  13.788  11.325
 5755SOL    HW219163   5.388  13.887  11.274
 5756SOL     OW19164  12.280  14.234  13.469
 5756SOL    HW119165  12.303  14.222  13.561
 5756SOL    HW219166  12.364  14.251  13.426
 5757SOL     OW19167   6.189   8.017   6.180
 5757SOL    HW119168   6.276   7.991   6.150
 5757SOL    HW219169   6.134   8.014   6.102
 5758SOL     OW19170   2.043  10.017  13.435
 5758SOL    HW119171   2.072   9.930  13.409
 5758SOL    HW219172   2.058  10.021  13.529
 5759SOL     OW19173   4.589   4.131   9.284
 5759SOL    HW119174   4.636   4.052   9.258
 5759SOL    HW219175   4.509   4.100   9.327
 5760SOL     OW19176   9.141   4.288   0.749
 5760SOL    HW119177   9.191   4.353   0.700
 5760SOL    HW219178   9.173   4.295   0.839
 5761SOL     OW19179  13.885  14.459   9.377
 5761SOL    HW119180  13.960  14.465   9.436
 5761SOL    HW219181  13.829  14.392   9.417
 5762SOL     OW19182   5.847   1.727   9.405
 5762SOL    HW119183   5.763   1.718   9.359
 5762SOL    HW219184   5.904   1.662   9.364
 5763SOL     OW19185  13.643   1.188   1.513
 5763SOL    HW119186  13.697   1.206   1.436
 5763SOL    HW219187  13.629   1.093   1.511
 5764SOL     OW19188   1.013   3.390  13.578
 5764SOL    HW119189   1.107   3.401  13.565
 5764SOL    HW219190   0.986   3.329  13.509
 5765SOL     OW19191   9.502  11.469   2.046
 5765SOL    HW119192   9.517  11.402   2.112
 5765SOL    HW219193   9.420  11.443   2.003
 5766SOL     OW19194  10.970   6.884   8.034
 5766SOL    HW119195  10.971   6.862   7.940
 5766SOL    HW219196  10.890   6.935   8.046
 5767SOL     OW19197   2.616  14.397   4.324
 5767SOL    HW119198   2.580  14.315   4.289
 5767SOL    HW219199   2.586  14.400   4.415
 5768SOL     OW19200  11.414   9.213   4.866
 5768SOL    HW119201  11.450   9.301   4.860
 5768SOL    HW219202  11.478   9.164   4.918
 5769SOL     OW19203   1.190   1.757   3.059
 5769SOL    HW119204   1.275   1.745   3.103
 5769SOL    HW219205   1.126   1.753   3.130
 5770SOL     OW19206   9.646  13.637   8.370
 5770SOL    HW119207   9.601  13.553   8.370
 5770SOL    HW219208   9.631  13.673   8.283
 5771SOL     OW19209   5.429  11.382   5.331
 5771SOL    HW119210   5.428  11.298   5.285
 5771SOL    HW219211   5.463  11.444   5.267
 5772SOL     OW19212   1.564   0.634   2.831
 5772SOL    HW119213   1.515   0.618   2.911
 5772SOL    HW219214   1.623   0.706   2.852
 5773SOL     OW19215  10.609   9.085   8.665
 5773SOL    HW119216  10.562   9.143   8.606
 5773SOL    HW219217  10.571   8.999   8.650
 5774SOL     OW19218   4.005   8.462  10.500
 5774SOL    HW119219   3.991   8.486  10.591
 5774SOL    HW219220   3.921   8.475  10.458
 5775SOL     OW19221  11.482  14.718  10.744
 5775SOL    HW119222  11.469  14.665  10.823
 5775SOL    HW219223  11.429  14.796  10.760
 5776SOL     OW19224   6.969   3.923   6.096
 5776SOL    HW119225   6.950   3.831   6.075
 5776SOL    HW219226   6.890   3.970   6.072
 5777SOL     OW19227   0.042   2.845  14.270
 5777SOL    HW119228   0.090   2.802  14.199
 5777SOL    HW219229   0.104   2.909  14.305
 5778SOL     OW19230  13.368   9.831   4.413
 5778SOL    HW119231  13.447   9.849   4.465
 5778SOL    HW219232  13.395   9.762   4.353
 5779SOL     OW19233  14.387   1.337  10.699
 5779SOL    HW119234  14.453   1.332  10.767
 5779SOL    HW219235  14.417   1.275  10.632
 5780SOL     OW19236  13.917   7.225   8.956
 5780SOL    HW119237  13.842   7.211   9.014
 5780SOL    HW219238  13.943   7.316   8.972
 5781SOL     OW19239  12.665   0.015   8.942
 5781SOL    HW119240  12.617   0.096   8.930
 5781SOL    HW219241  12.728   0.013   8.870
 5782SOL     OW19242  10.481  14.677   7.924
 5782SOL    HW119243  10.409  14.642   7.976
 5782SOL    HW219244  10.533  14.600   7.900
 5783SOL     OW19245   9.124   4.820   3.472
 5783SOL    HW119246   9.201   4.877   3.483
 5783SOL    HW219247   9.061   4.874   3.424
 5784SOL     OW19248   2.290   1.470  12.114
 5784SOL    HW119249   2.250   1.531  12.177
 5784SOL    HW219250   2.351   1.419  12.167
 5785SOL     OW19251   7.487  10.550  14.820
 5785SOL    HW119252   7.549  10.610  14.776
 5785SOL    HW219253   7.456  10.599   0.015
 5786SOL     OW19254   9.515   9.095   2.294
 5786SOL    HW119255   9.468   9.039   2.231
 5786SOL    HW219256   9.447   9.126   2.353
 5787SOL     OW19257   1.814   9.012  14.834
 5787SOL    HW119258   1.781   8.980   0.037
 5787SOL    HW219259   1.857   9.095  14.855
 5788SOL     OW19260   3.008   4.667  10.626
 5788SOL    HW119261   3.046   4.673  10.714
 5788SOL    HW219262   3.022   4.754  10.588
 5789SOL     OW19263   5.299  12.884   3.032
 5789SOL    HW119264   5.303  12.975   3.003
 5789SOL    HW219265   5.347  12.882   3.114
 5790SOL     OW19266   4.348   9.366   8.767
 5790SOL    HW119267   4.351   9.280   8.726
 5790SOL    HW219268   4.263   9.402   8.742
 5791SOL     OW19269  11.218   4.898  11.509
 5791SOL    HW119270  11.140   4.954  11.518
 5791SOL    HW219271  11.214   4.867  11.419
 5792SOL     OW19272   0.913   4.463  11.574
 5792SOL    HW119273   0.934   4.370  11.564
 5792SOL    HW219274   0.988   4.500  11.620
 5793SOL     OW19275   5.611  13.770   9.389
 5793SOL    HW119276   5.651  13.856   9.404
 5793SOL    HW219277   5.570  13.748   9.473
 5794SOL     OW19278   0.172   4.910   0.417
 5794SOL    HW119279   0.204   4.821   0.427
 5794SOL    HW219280   0.109   4.906   0.345
 5795SOL     OW19281   6.406   0.320   3.022
 5795SOL    HW119282   6.481   0.321   3.082
 5795SOL    HW219283   6.401   0.409   2.988
 5796SOL     OW19284   9.194  14.024  10.325
 5796SOL    HW119285   9.219  14.002  10.415
 5796SOL    HW219286   9.211  14.118  10.318
 5797SOL     OW19287  13.192  12.705  12.415
 5797SOL    HW119288  13.192  12.609  12.412
 5797SOL    HW219289  13.282  12.727  12.440
 5798SOL     OW19290   3.418  13.658   8.875
 5798SOL    HW119291   3.422  13.643   8.780
 5798SOL    HW219292   3.380  13.577   8.910
 5799SOL     OW19293   0.413  12.288   3.153
 5799SOL    HW119294   0.480  12.288   3.221
 5799SOL    HW219295   0.339  12.334   3.193
 5800SOL     OW19296   7.431   5.341   8.868
 5800SOL    HW119297   7.386   5.410   8.915
 5800SOL    HW219298   7.418   5.362   8.775
 5801SOL     OW19299   7.854  11.060  13.765
 5801SOL    HW119300   7.872  11.059  13.859
 5801SOL    HW219301   7.894  11.141  13.734
 5802SOL     OW19302  13.005  13.782   2.200
 5802SOL    HW119303  13.093  13.803   2.230
 5802SOL    HW219304  12.950  13.855   2.230
 5803SOL     OW19305   0.541   4.106   1.148
 5803SOL    HW119306   0.520   4.019   1.181
 5803SOL    HW219307   0.618   4.093   1.093
 5804SOL     OW19308   6.278   2.131   6.906
 5804SOL    HW119309   6.329   2.110   6.828
 5804SOL    HW219310   6.247   2.046   6.938
 5805SOL     OW19311  12.994   2.265   2.420
 5805SOL    HW119312  12.965   2.231   2.504
 5805SOL    HW219313  13.079   2.224   2.405
 5806SOL     OW19314  14.316   2.710  14.213
 5806SOL    HW119315  14.318   2.803  14.236
 5806SOL    HW219316  14.280   2.667  14.291
 5807SOL     OW19317   6.422   4.618   0.665
 5807SOL    HW119318   6.510   4.608   0.629
 5807SOL    HW219319   6.428   4.695   0.722
 5808SOL     OW19320   2.460  13.772  13.184
 5808SOL    HW119321   2.506  13.707  13.131
 5808SOL    HW219322   2.522  13.793  13.255
 5809SOL     OW19323  12.408   3.797   0.207
 5809SOL    HW119324  12.425   3.746   0.286
 5809SOL    HW219325  12.313   3.806   0.205
 5810SOL     OW19326   0.155  14.386   7.398
 5810SOL    HW119327   0.117  14.474   7.399
 5810SOL    HW219328   0.239  14.395   7.442
 5811SOL     OW19329   6.155   4.763  13.230
 5811SOL    HW119330   6.114   4.797  13.309
 5811SOL    HW219331   6.114   4.677  13.217
 5812SOL     OW19332   2.276   4.351   7.017
 5812SOL    HW119333   2.343   4.285   7.035
 5812SOL    HW219334   2.212   4.306   6.962
 5813SOL     OW19335   9.256   6.879   9.318
 5813SOL    HW119336   9.165   6.899   9.336
 5813SOL    HW219337   9.305   6.933   9.381
 5814SOL     OW19338  12.168   8.318   1.355
 5814SOL    HW119339  12.256   8.288   1.332
 5814SOL    HW219340  12.179   8.411   1.373
 5815SOL     OW19341  13.719  13.950   8.972
 5815SOL    HW119342  13.737  14.021   8.910
 5815SOL    HW219343  13.660  13.990   9.037
 5816SOL     OW19344   7.273   2.139   6.976
 5816SOL    HW119345   7.327   2.196   6.923
 5816SOL    HW219346   7.241   2.195   7.047
 5817SOL     OW19347   0.304  12.517   3.327
 5817SOL    HW119348   0.334  12.577   3.395
 5817SOL    HW219349   0.235  12.466   3.369
 5818SOL     OW19350   2.743  13.293   5.756
 5818SOL    HW119351   2.687  13.358   5.714
 5818SOL    HW219352   2.829  13.334   5.759
 5819SOL     OW19353  13.646   4.354   3.769
 5819SOL    HW119354  13.584   4.413   3.727
 5819SOL    HW219355  13.594   4.303   3.831
 5820SOL     OW19356   7.124  10.070  14.030
 5820SOL    HW119357   7.206  10.118  14.025
 5820SOL    HW219358   7.072  10.102  13.956
 5821SOL     OW19359   7.615   0.735   5.960
 5821SOL    HW119360   7.530   0.692   5.947
 5821SOL    HW219361   7.672   0.666   5.994
 5822SOL     OW19362   6.038   9.147   1.859
 5822SOL    HW119363   6.032   9.141   1.954
 5822SOL    HW219364   6.071   9.236   1.844
 5823SOL     OW19365   7.821  10.013  12.071
 5823SOL    HW119366   7.916   9.999  12.069
 5823SOL    HW219367   7.787   9.934  12.112
 5824SOL     OW19368  14.760   0.998  11.702
 5824SOL    HW119369  14.764   0.920  11.648
 5824SOL    HW219370  14.842   1.044  11.684
 5825SOL     OW19371   6.634   1.583   2.034
 5825SOL    HW119372   6.675   1.669   2.048
 5825SOL    HW219373   6.640   1.568   1.940
 5826SOL     OW19374  14.192   2.134   4.423
 5826SOL    HW119375  14.276   2.103   4.389
 5826SOL    HW219376  14.214   2.175   4.507
 5827SOL     OW19377   1.578   5.951   6.639
 5827SOL    HW119378   1.486   5.965   6.617
 5827SOL    HW219379   1.578   5.925   6.731
 5828SOL     OW19380  10.189   4.441   4.842
 5828SOL    HW119381  10.103   4.453   4.800
 5828SOL    HW219382  10.214   4.529   4.870
 5829SOL     OW19383  12.218   9.239   8.088
 5829SOL    HW119384  12.301   9.256   8.043
 5829SOL    HW219385  12.207   9.144   8.083
 5830SOL     OW19386  14.459   1.626  12.202
 5830SOL    HW119387  14.424   1.696  12.147
 5830SOL    HW219388  14.483   1.670  12.284
 5831SOL     OW19389   6.816  11.199  10.514
 5831SOL    HW119390   6.898  11.155  10.494
 5831SOL    HW219391   6.762  11.187  10.436
 5832SOL     OW19392   9.998   5.939   3.202
 5832SOL    HW119393   9.928   5.877   3.184
 5832SOL    HW219394  10.078   5.894   3.176
 5833SOL     OW19395  11.579   6.581  14.145
 5833SOL    HW119396  11.631   6.560  14.223
 5833SOL    HW219397  11.572   6.498  14.098
 5834SOL     OW19398  10.878   2.177   6.502
 5834SOL    HW119399  10.934   2.254   6.511
 5834SOL    HW219400  10.791   2.213   6.483
 5835SOL     OW19401   0.339   8.488   8.015
 5835SOL    HW119402   0.415   8.454   8.061
 5835SOL    HW219403   0.267   8.479   8.078
 5836SOL     OW19404  10.639  11.178   4.816
 5836SOL    HW119405  10.729  11.149   4.833
 5836SOL    HW219406  10.646  11.273   4.809
 5837SOL     OW19407  10.002   6.730  11.546
 5837SOL    HW119408   9.916   6.741  11.506
 5837SOL    HW219409  10.063   6.767  11.483
 5838SOL     OW19410  14.563  13.519  12.455
 5838SOL    HW119411  14.545  13.433  12.416
 5838SOL    HW219412  14.558  13.504  12.549
 5839SOL     OW19413   6.817  12.744  13.833
 5839SOL    HW119414   6.748  12.700  13.783
 5839SOL    HW219415   6.805  12.837  13.812
 5840SOL     OW19416  10.666   9.449   2.990
 5840SOL    HW119417  10.658   9.478   3.080
 5840SOL    HW219418  10.628   9.361   2.990
 5841SOL     OW19419  12.977  10.307  14.261
 5841SOL    HW119420  12.919  10.236  14.288
 5841SOL    HW219421  13.065  10.275  14.281
 5842SOL     OW19422   8.627   2.965   4.200
 5842SOL    HW119423   8.597   3.050   4.233
 5842SOL    HW219424   8.628   2.909   4.277
 5843SOL     OW19425   1.946   7.279   2.497
 5843SOL    HW119426   1.988   7.346   2.550
 5843SOL    HW219427   1.946   7.315   2.408
 5844SOL     OW19428   1.642  12.988  12.047
 5844SOL    HW119429   1.732  13.017  12.031
 5844SOL    HW219430   1.647  12.893  12.048
 5845SOL     OW19431  12.706   6.845  10.634
 5845SOL    HW119432  12.640   6.860  10.567
 5845SOL    HW219433  12.656   6.816  10.711
 5846SOL     OW19434  13.462   3.439   2.065
 5846SOL    HW119435  13.450   3.477   1.979
 5846SOL    HW219436  13.428   3.506   2.126
 5847SOL     OW19437   1.403   7.173   1.155
 5847SOL    HW119438   1.423   7.080   1.171
 5847SOL    HW219439   1.419   7.185   1.062
 5848SOL     OW19440   6.842  13.605   6.468
 5848SOL    HW119441   6.889  13.593   6.551
 5848SOL    HW219442   6.873  13.533   6.413
 5849SOL     OW19443   3.967   6.560   5.359
 5849SOL    HW119444   4.045   6.550   5.305
 5849SOL    HW219445   4.000   6.595   5.442
 5850SOL     OW19446   4.024  12.227  12.356
 5850SOL    HW119447   4.063  12.249  12.441
 5850SOL    HW219448   3.938  12.268  12.358
 5851SOL     OW19449   6.189   7.875   5.813
 5851SOL    HW119450   6.151   7.952   5.856
 5851SOL    HW219451   6.132   7.859   5.738
 5852SOL     OW19452  13.259  13.356   7.189
 5852SOL    HW119453  13.330  13.297   7.213
 5852SOL    HW219454  13.238  13.333   7.099
 5853SOL     OW19455   8.103   3.955   4.901
 5853SOL    HW119456   8.023   3.981   4.948
 5853SOL    HW219457   8.073   3.891   4.837
 5854SOL     OW19458  10.125   8.057   3.271
 5854SOL    HW119459  10.081   8.099   3.345
 5854SOL    HW219460  10.134   7.965   3.296
 5855SOL     OW19461   3.681   3.207   9.569
 5855SOL    HW119462   3.709   3.277   9.511
 5855SOL    HW219463   3.720   3.228   9.654
 5856SOL     OW19464  14.610   4.915  11.650
 5856SOL    HW119465  14.573   4.863  11.722
 5856SOL    HW219466  14.575   4.873  11.571
 5857SOL     OW19467   0.807  12.120  12.939
 5857SOL    HW119468   0.761  12.183  12.995
 5857SOL    HW219469   0.880  12.088  12.993
 5858SOL     OW19470   0.298  14.277   8.546
 5858SOL    HW119471   0.330  14.355   8.502
 5858SOL    HW219472   0.375  14.241   8.590
 5859SOL     OW19473   2.728   7.652  13.050
 5859SOL    HW119474   2.658   7.708  13.085
 5859SOL    HW219475   2.707   7.644  12.957
 5860SOL     OW19476   4.079   8.648  11.280
 5860SOL    HW119477   3.985   8.631  11.285
 5860SOL    HW219478   4.100   8.634  11.187
 5861SOL     OW19479   3.036  12.479   3.179
 5861SOL    HW119480   3.082  12.516   3.103
 5861SOL    HW219481   3.011  12.391   3.151
 5862SOL     OW19482   6.162  11.862   9.142
 5862SOL    HW119483   6.185  11.834   9.231
 5862SOL    HW219484   6.209  11.801   9.085
 5863SOL     OW19485  13.723   9.078  10.356
 5863SOL    HW119486  13.767   9.118  10.281
 5863SOL    HW219487  13.795   9.044  10.410
 5864SOL     OW19488  12.897  13.736   5.706
 5864SOL    HW119489  12.929  13.743   5.616
 5864SOL    HW219490  12.975  13.720   5.759
 5865SOL     OW19491  14.109   2.187  13.828
 5865SOL    HW119492  14.170   2.114  13.815
 5865SOL    HW219493  14.103   2.229  13.743
 5866SOL     OW19494  12.443   5.725  10.245
 5866SOL    HW119495  12.477   5.744  10.157
 5866SOL    HW219496  12.449   5.809  10.291
 5867SOL     OW19497   4.889  11.752  14.640
 5867SOL    HW119498   4.818  11.807  14.672
 5867SOL    HW219499   4.952  11.750  14.713
 5868SOL     OW19500   6.992  14.304   3.102
 5868SOL    HW119501   7.049  14.231   3.080
 5868SOL    HW219502   6.989  14.306   3.197
 5869SOL     OW19503  12.165   1.983   4.205
 5869SOL    HW119504  12.087   1.988   4.150
 5869SOL    HW219505  12.216   1.911   4.168
 5870SOL     OW19506   2.535   7.994   0.452
 5870SOL    HW119507   2.469   7.938   0.493
 5870SOL    HW219508   2.509   7.997   0.359
 5871SOL     OW19509   2.097  11.564   8.834
 5871SOL    HW119510   2.145  11.484   8.812
 5871SOL    HW219511   2.155  11.635   8.806
 5872SOL     OW19512   1.491   3.747   6.735
 5872SOL    HW119513   1.432   3.812   6.697
 5872SOL    HW219514   1.543   3.716   6.661
 5873SOL     OW19515   4.632   8.225  13.072
 5873SOL    HW119516   4.562   8.182  13.122
 5873SOL    HW219517   4.704   8.161  13.071
 5874SOL     OW19518   7.030  12.655   6.421
 5874SOL    HW119519   7.009  12.693   6.336
 5874SOL    HW219520   7.109  12.701   6.449
 5875SOL     OW19521  10.962   7.636  13.722
 5875SOL    HW119522  10.869   7.628  13.742
 5875SOL    HW219523  10.998   7.686  13.796
 5876SOL     OW19524  11.609  13.558  12.477
 5876SOL    HW119525  11.514  13.560  12.493
 5876SOL    HW219526  11.621  13.621  12.406
 5877SOL     OW19527  14.350   3.256   9.029
 5877SOL    HW119528  14.407   3.303   8.968
 5877SOL    HW219529  14.410   3.209   9.087
 5878SOL     OW19530   8.670  14.416   3.694
 5878SOL    HW119531   8.663  14.338   3.748
 5878SOL    HW219532   8.600  14.406   3.629
 5879SOL     OW19533   5.668   9.007  11.276
 5879SOL    HW119534   5.760   8.979  11.275
 5879SOL    HW219535   5.660   9.061  11.354
 5880SOL     OW19536  12.916  13.439   8.268
 5880SOL    HW119537  12.940  13.347   8.263
 5880SOL    HW219538  12.826  13.439   8.300
 5881SOL     OW19539  11.122   3.092   8.881
 5881SOL    HW119540  11.164   3.138   8.954
 5881SOL    HW219541  11.133   3.150   8.806
 5882SOL     OW19542  14.109   6.730   7.782
 5882SOL    HW119543  14.128   6.783   7.859
 5882SOL    HW219544  14.144   6.644   7.803
 5883SOL     OW19545   4.340  10.166  12.492
 5883SOL    HW119546   4.320  10.258  12.507
 5883SOL    HW219547   4.435  10.160  12.499
 5884SOL     OW19548   7.629   3.077  10.123
 5884SOL    HW119549   7.548   3.099  10.169
 5884SOL    HW219550   7.657   2.994  10.160
 5885SOL     OW19551   2.006   3.539   4.005
 5885SOL    HW119552   2.052   3.535   4.089
 5885SOL    HW219553   2.034   3.621   3.965
 5886SOL     OW19554   6.432   1.337   1.860
 5886SOL    HW119555   6.376   1.364   1.933
 5886SOL    HW219556   6.376   1.347   1.783
 5887SOL     OW19557  12.486  13.518   5.931
 5887SOL    HW119558  12.463  13.435   5.891
 5887SOL    HW219559  12.573  13.538   5.896
 5888SOL     OW19560   6.692  10.043  12.187
 5888SOL    HW119561   6.607  10.034  12.144
 5888SOL    HW219562   6.742   9.967  12.157
 5889SOL     OW19563  12.912   3.093  11.424
 5889SOL    HW119564  12.873   3.071  11.340
 5889SOL    HW219565  13.006   3.083  11.410
 5890SOL     OW19566  13.646  14.053   4.478
 5890SOL    HW119567  13.594  14.125   4.513
 5890SOL    HW219568  13.591  14.013   4.411
 5891SOL     OW19569   1.420   9.874   5.086
 5891SOL    HW119570   1.415   9.783   5.115
 5891SOL    HW219571   1.354   9.881   5.017
 5892SOL     OW19572  13.585   6.986   2.863
 5892SOL    HW119573  13.535   6.977   2.782
 5892SOL    HW219574  13.657   7.045   2.840
 5893SOL     OW19575   0.016   6.423   1.668
 5893SOL    HW119576  14.869   6.348   1.722
 5893SOL    HW219577   0.020   6.496   1.729
 5894SOL     OW19578  11.472   3.436   7.134
 5894SOL    HW119579  11.380   3.455   7.152
 5894SOL    HW219580  11.499   3.376   7.205
 5895SOL     OW19581  12.889   7.066  11.755
 5895SOL    HW119582  12.810   7.015  11.768
 5895SOL    HW219583  12.859   7.151  11.723
 5896SOL     OW19584  13.140   3.990   6.056
 5896SOL    HW119585  13.189   4.037   5.989
 5896SOL    HW219586  13.091   4.058   6.102
 5897SOL     OW19587  12.579   5.378  12.706
 5897SOL    HW119588  12.624   5.442  12.762
 5897SOL    HW219589  12.646   5.312  12.687
 5898SOL     OW19590  14.617  13.464  11.896
 5898SOL    HW119591  14.567  13.537  11.933
 5898SOL    HW219592  14.567  13.438  11.818
 5899SOL     OW19593  14.424   2.730   3.540
 5899SOL    HW119594  14.371   2.654   3.566
 5899SOL    HW219595  14.509   2.692   3.515
 5900SOL     OW19596   0.211  12.587  12.602
 5900SOL    HW119597   0.234  12.646  12.531
 5900SOL    HW219598   0.274  12.515  12.596
 5901SOL     OW19599  14.730   0.114   2.531
 5901SOL    HW119600  14.721   0.127   2.436
 5901SOL    HW219601  14.653   0.062   2.555
 5902SOL     OW19602  10.721   4.477   0.746
 5902SOL    HW119603  10.721   4.387   0.714
 5902SOL    HW219604  10.756   4.528   0.674
 5903SOL     OW19605   7.150   2.612   8.008
 5903SOL    HW119606   7.157   2.648   8.096
 5903SOL    HW219607   7.083   2.665   7.966
 5904SOL     OW19608  11.138   3.347   0.421
 5904SOL    HW119609  11.062   3.401   0.401
 5904SOL    HW219610  11.136   3.338   0.517
 5905SOL     OW19611   5.020   0.937   2.418
 5905SOL    HW119612   5.080   0.976   2.482
 5905SOL    HW219613   5.077   0.906   2.348
 5906SOL     OW19614   3.378  10.426  12.684
 5906SOL    HW119615   3.345  10.336  12.693
 5906SOL    HW219616   3.300  10.478  12.665
 5907SOL     OW19617   0.876   8.513   4.286
 5907SOL    HW119618   0.863   8.608   4.291
 5907SOL    HW219619   0.919   8.500   4.202
 5908SOL     OW19620   8.701  12.758  12.937
 5908SOL    HW119621   8.689  12.683  12.996
 5908SOL    HW219622   8.796  12.762  12.923
 5909SOL     OW19623   3.888   6.915   0.108
 5909SOL    HW119624   3.882   6.956   0.194
 5909SOL    HW219625   3.809   6.862   0.101
 5910SOL     OW19626   5.526  12.591   6.382
 5910SOL    HW119627   5.567  12.646   6.315
 5910SOL    HW219628   5.557  12.502   6.361
 5911SOL     OW19629   9.687   6.986   1.027
 5911SOL    HW119630   9.781   6.977   1.016
 5911SOL    HW219631   9.650   6.908   0.985
 5912SOL     OW19632   3.922  11.602   2.096
 5912SOL    HW119633   3.879  11.601   2.181
 5912SOL    HW219634   3.856  11.569   2.034
 5913SOL     OW19635   5.078  12.591   5.088
 5913SOL    HW119636   5.101  12.568   4.998
 5913SOL    HW219637   5.017  12.522   5.115
 5914SOL     OW19638   1.742  14.855   7.717
 5914SOL    HW119639   1.804   0.023   7.773
 5914SOL    HW219640   1.729   0.032   7.641
 5915SOL     OW19641  11.674  11.675  13.545
 5915SOL    HW119642  11.730  11.650  13.472
 5915SOL    HW219643  11.599  11.719  13.504
 5916SOL     OW19644  12.346  14.392   3.393
 5916SOL    HW119645  12.329  14.333   3.319
 5916SOL    HW219646  12.434  14.370   3.422
 5917SOL     OW19647   9.115  11.716   0.876
 5917SOL    HW119648   9.146  11.804   0.897
 5917SOL    HW219649   9.046  11.699   0.940
 5918SOL     OW19650   3.526   6.875   6.135
 5918SOL    HW119651   3.524   6.784   6.162
 5918SOL    HW219652   3.617   6.903   6.149
 5919SOL     OW19653  11.867   6.866   9.295
 5919SOL    HW119654  11.904   6.866   9.206
 5919SOL    HW219655  11.914   6.796   9.340
 5920SOL     OW19656   9.929   8.412  14.470
 5920SOL    HW119657   9.991   8.434  14.400
 5920SOL    HW219658   9.968   8.449  14.549
 5921SOL     OW19659   3.230   1.093   7.892
 5921SOL    HW119660   3.225   1.012   7.842
 5921SOL    HW219661   3.302   1.141   7.852
 5922SOL     OW19662   5.101   3.294   1.399
 5922SOL    HW119663   5.172   3.250   1.446
 5922SOL    HW219664   5.026   3.290   1.458
 5923SOL     OW19665   6.870   6.610  12.446
 5923SOL    HW119666   6.881   6.618  12.541
 5923SOL    HW219667   6.777   6.589  12.435
 5924SOL     OW19668   2.093  12.817  10.815
 5924SOL    HW119669   2.034  12.880  10.857
 5924SOL    HW219670   2.176  12.864  10.806
 5925SOL     OW19671  13.776  12.543   0.136
 5925SOL    HW119672  13.755  12.591   0.216
 5925SOL    HW219673  13.851  12.489   0.160
 5926SOL     OW19674  12.420  10.911   9.271
 5926SOL    HW119675  12.438  10.910   9.177
 5926SOL    HW219676  12.505  10.931   9.312
 5927SOL     OW19677   2.253  13.112   7.839
 5927SOL    HW119678   2.248  13.202   7.807
 5927SOL    HW219679   2.188  13.064   7.787
 5928SOL     OW19680   5.681   2.843   2.752
 5928SOL    HW119681   5.732   2.770   2.715
 5928SOL    HW219682   5.722   2.921   2.717
 5929SOL     OW19683  11.345   7.057   0.339
 5929SOL    HW119684  11.412   7.122   0.317
 5929SOL    HW219685  11.265   7.091   0.298
 5930SOL     OW19686   5.880  10.221   2.483
 5930SOL    HW119687   5.935  10.215   2.561
 5930SOL    HW219688   5.796  10.186   2.510
 5931SOL     OW19689   8.346   2.344  11.921
 5931SOL    HW119690   8.251   2.358  11.917
 5931SOL    HW219691   8.359   2.259  11.878
 5932SOL     OW19692   9.891  13.625   6.581
 5932SOL    HW119693   9.938  13.683   6.522
 5932SOL    HW219694   9.803  13.663   6.588
 5933SOL     OW19695   4.439  12.604   1.343
 5933SOL    HW119696   4.463  12.546   1.415
 5933SOL    HW219697   4.485  12.568   1.267
 5934SOL     OW19698   0.887   0.929   1.185
 5934SOL    HW119699   0.943   0.924   1.107
 5934SOL    HW219700   0.813   0.982   1.157
 5935SOL     OW19701   1.533   5.844   0.942
 5935SOL    HW119702   1.574   5.923   0.976
 5935SOL    HW219703   1.581   5.772   0.984
 5936SOL     OW19704  12.502   4.357  14.206
 5936SOL    HW119705  12.409   4.368  14.184
 5936SOL    HW219706  12.533   4.446  14.224
 5937SOL     OW19707   6.735   5.555  11.327
 5937SOL    HW119708   6.821   5.515  11.343
 5937SOL    HW219709   6.754   5.632  11.273
 5938SOL     OW19710   3.377   2.923   6.243
 5938SOL    HW119711   3.311   2.877   6.191
 5938SOL    HW219712   3.326   2.976   6.304
 5939SOL     OW19713   2.391   2.764   4.855
 5939SOL    HW119714   2.352   2.831   4.799
 5939SOL    HW219715   2.377   2.797   4.944
 5940SOL     OW19716  11.091  10.001   0.416
 5940SOL    HW119717  11.104  10.043   0.501
 5940SOL    HW219718  11.150   9.926   0.416
 5941SOL     OW19719   0.294   2.116   8.339
 5941SOL    HW119720   0.282   2.042   8.399
 5941SOL    HW219721   0.224   2.177   8.362
 5942SOL     OW19722   7.414  14.591   3.385
 5942SOL    HW119723   7.327  14.554   3.372
 5942SOL    HW219724   7.426  14.649   3.310
 5943SOL     OW19725   0.347   1.330   7.556
 5943SOL    HW119726   0.359   1.257   7.494
 5943SOL    HW219727   0.320   1.403   7.501
 5944SOL     OW19728   4.279   2.413  10.238
 5944SOL    HW119729   4.236   2.496  10.218
 5944SOL    HW219730   4.282   2.367  10.155
 5945SOL     OW19731  14.314   5.448   2.542
 5945SOL    HW119732  14.353   5.505   2.476
 5945SOL    HW219733  14.299   5.505   2.618
 5946SOL     OW19734   8.644   0.301  13.275
 5946SOL    HW119735   8.554   0.270  13.272
 5946SOL    HW219736   8.692   0.233  13.323
 5947SOL     OW19737   6.565   1.390   6.223
 5947SOL    HW119738   6.640   1.342   6.188
 5947SOL    HW219739   6.595   1.481   6.228
 5948SOL     OW19740  12.727   0.073  12.723
 5948SOL    HW119741  12.682   0.109  12.647
 5948SOL    HW219742  12.820   0.084  12.704
 5949SOL     OW19743   7.912  12.260   8.138
 5949SOL    HW119744   7.825  12.228   8.114
 5949SOL    HW219745   7.932  12.217   8.221
 5950SOL     OW19746   2.180   9.039   9.484
 5950SOL    HW119747   2.170   8.944   9.488
 5950SOL    HW219748   2.254   9.053   9.425
 5951SOL     OW19749  11.838  13.419  13.727
 5951SOL    HW119750  11.773  13.429  13.657
 5951SOL    HW219751  11.851  13.324  13.733
 5952SOL     OW19752   8.957  10.667  12.312
 5952SOL    HW119753   9.044  10.668  12.352
 5952SOL    HW219754   8.899  10.635  12.381
 5953SOL     OW19755  12.385   3.924   3.888
 5953SOL    HW119756  12.400   3.846   3.941
 5953SOL    HW219757  12.350   3.989   3.949
 5954SOL     OW19758   2.366  12.046   3.665
 5954SOL    HW119759   2.448  12.051   3.616
 5954SOL    HW219760   2.360  12.130   3.711
 5955SOL     OW19761   0.883   8.892   1.663
 5955SOL    HW119762   0.918   8.849   1.741
 5955SOL    HW219763   0.918   8.843   1.590
 5956SOL     OW19764   1.751   5.608   1.322
 5956SOL    HW119765   1.761   5.668   1.396
 5956SOL    HW219766   1.669   5.561   1.340
 5957SOL     OW19767   2.385  12.813  11.453
 5957SOL    HW119768   2.383  12.795  11.547
 5957SOL    HW219769   2.473  12.846  11.437
 5958SOL     OW19770   1.572   5.373   3.248
 5958SOL    HW119771   1.547   5.458   3.211
 5958SOL    HW219772   1.655   5.389   3.293
 5959SOL     OW19773  10.669   5.749  13.665
 5959SOL    HW119774  10.609   5.823  13.660
 5959SOL    HW219775  10.665   5.709  13.578
 5960SOL     OW19776   0.921   3.323   3.286
 5960SOL    HW119777   0.852   3.306   3.222
 5960SOL    HW219778   0.984   3.379   3.240
 5961SOL     OW19779   4.735  12.699  12.459
 5961SOL    HW119780   4.662  12.756  12.486
 5961SOL    HW219781   4.757  12.728  12.370
 5962SOL     OW19782  10.876   9.329   2.611
 5962SOL    HW119783  10.804   9.378   2.650
 5962SOL    HW219784  10.884   9.364   2.522
 5963SOL     OW19785  14.711  10.773   1.678
 5963SOL    HW119786  14.688  10.796   1.768
 5963SOL    HW219787  14.715  10.677   1.678
 5964SOL     OW19788   0.377   7.388   6.106
 5964SOL    HW119789   0.350   7.456   6.169
 5964SOL    HW219790   0.427   7.436   6.040
 5965SOL     OW19791   5.061   8.567   3.507
 5965SOL    HW119792   4.994   8.627   3.474
 5965SOL    HW219793   5.126   8.624   3.547
 5966SOL     OW19794  14.858   7.994   9.908
 5966SOL    HW119795   0.009   8.083   9.920
 5966SOL    HW219796   0.055   7.939   9.923
 5967SOL     OW19797   2.669   7.917   2.312
 5967SOL    HW119798   2.720   7.851   2.265
 5967SOL    HW219799   2.621   7.867   2.378
 5968SOL     OW19800   4.099  12.262   5.081
 5968SOL    HW119801   4.021  12.213   5.107
 5968SOL    HW219802   4.138  12.211   5.010
 5969SOL     OW19803   0.211   5.374  14.442
 5969SOL    HW119804   0.183   5.443  14.381
 5969SOL    HW219805   0.142   5.371  14.508
 5970SOL     OW19806   9.849   2.362   5.766
 5970SOL    HW119807   9.800   2.333   5.843
 5970SOL    HW219808   9.846   2.287   5.707
 5971SOL     OW19809   4.218   5.012  12.713
 5971SOL    HW119810   4.161   4.937  12.732
 5971SOL    HW219811   4.200   5.033  12.621
 5972SOL     OW19812   1.930  14.726   7.137
 5972SOL    HW119813   1.992  14.748   7.207
 5972SOL    HW219814   1.846  14.720   7.181
 5973SOL     OW19815   8.129   2.865  10.210
 5973SOL    HW119816   8.066   2.835  10.275
 5973SOL    HW219817   8.139   2.791  10.150
 5974SOL     OW19818   2.953   8.305  12.154
 5974SOL    HW119819   2.927   8.213  12.160
 5974SOL    HW219820   3.032   8.312  12.208
 5975SOL     OW19821   2.315  14.417   4.196
 5975SOL    HW119822   2.238  14.384   4.149
 5975SOL    HW219823   2.378  14.344   4.193
 5976SOL     OW19824  13.016   1.650   4.725
 5976SOL    HW119825  13.110   1.655   4.743
 5976SOL    HW219826  12.983   1.737   4.748
 5977SOL     OW19827   9.704   1.492   0.279
 5977SOL    HW119828   9.797   1.472   0.273
 5977SOL    HW219829   9.691   1.565   0.218
 5978SOL     OW19830   1.279   5.262  13.041
 5978SOL    HW119831   1.365   5.285  13.007
 5978SOL    HW219832   1.246   5.343  13.079
 5979SOL     OW19833   9.861   4.546  11.553
 5979SOL    HW119834   9.937   4.559  11.497
 5979SOL    HW219835   9.872   4.609  11.624
 5980SOL     OW19836   8.593  13.494   4.660
 5980SOL    HW119837   8.583  13.445   4.741
 5980SOL    HW219838   8.638  13.575   4.686
 5981SOL     OW19839   3.290   2.118   6.956
 5981SOL    HW119840   3.309   2.209   6.936
 5981SOL    HW219841   3.222   2.121   7.024
 5982SOL     OW19842   4.571   8.119   5.153
 5982SOL    HW119843   4.590   8.035   5.197
 5982SOL    HW219844   4.581   8.185   5.222
 5983SOL     OW19845  11.833  14.355   9.102
 5983SOL    HW119846  11.805  14.446   9.110
 5983SOL    HW219847  11.766  14.305   9.150
 5984SOL     OW19848   4.634   6.273   1.918
 5984SOL    HW119849   4.647   6.353   1.968
 5984SOL    HW219850   4.668   6.293   1.831
 5985SOL     OW19851   6.366  12.356  12.032
 5985SOL    HW119852   6.373  12.318  12.119
 5985SOL    HW219853   6.279  12.332  12.002
 5986SOL     OW19854  12.772   3.122   5.178
 5986SOL    HW119855  12.687   3.164   5.186
 5986SOL    HW219856  12.805   3.117   5.268
 5987SOL     OW19857  12.823   5.918   2.452
 5987SOL    HW119858  12.812   5.904   2.546
 5987SOL    HW219859  12.734   5.920   2.417
 5988SOL     OW19860   7.381   8.882   3.465
 5988SOL    HW119861   7.299   8.833   3.469
 5988SOL    HW219862   7.405   8.882   3.372
 5989SOL     OW19863   4.283   5.410  14.807
 5989SOL    HW119864   4.214   5.368  14.860
 5989SOL    HW219865   4.332   5.463  14.869
 5990SOL     OW19866   7.270  10.516   8.905
 5990SOL    HW119867   7.183  10.523   8.866
 5990SOL    HW219868   7.309  10.603   8.895
 5991SOL     OW19869   6.514   8.789  14.410
 5991SOL    HW119870   6.565   8.741  14.475
 5991SOL    HW219871   6.532   8.745  14.327
 5992SOL     OW19872   0.098   9.178   8.110
 5992SOL    HW119873   0.041   9.101   8.120
 5992SOL    HW219874   0.169   9.147   8.053
 5993SOL     OW19875  13.683   0.494   2.598
 5993SOL    HW119876  13.706   0.576   2.641
 5993SOL    HW219877  13.636   0.520   2.518
 5994SOL     OW19878   6.135   1.115   6.674
 5994SOL    HW119879   6.167   1.196   6.633
 5994SOL    HW219880   6.061   1.089   6.621
 5995SOL     OW19881  11.302   7.209   5.360
 5995SOL    HW119882  11.363   7.282   5.375
 5995SOL    HW219883  11.250   7.238   5.285
 5996SOL     OW19884  13.255   2.573  14.446
 5996SOL    HW119885  13.318   2.600  14.513
 5996SOL    HW219886  13.217   2.654  14.414
 5997SOL     OW19887   0.544  12.800   6.408
 5997SOL    HW119888   0.593  12.798   6.326
 5997SOL    HW219889   0.461  12.756   6.388
 5998SOL     OW19890   8.621  10.938   3.396
 5998SOL    HW119891   8.714  10.925   3.375
 5998SOL    HW219892   8.586  10.849   3.402
 5999SOL     OW19893   7.358  12.323  13.589
 5999SOL    HW119894   7.340  12.417  13.583
 5999SOL    HW219895   7.438  12.311  13.539
 6000SOL     OW19896   5.440   3.227   0.212
 6000SOL    HW119897   5.473   3.309   0.249
 6000SOL    HW219898   5.459   3.162   0.279
 6001SOL     OW19899   9.037   3.146  12.430
 6001SOL    HW119900   9.057   3.080  12.497
 6001SOL    HW219901   9.049   3.230  12.475
 6002SOL     OW19902   9.002   8.240   8.626
 6002SOL    HW119903   9.035   8.166   8.574
 6002SOL    HW219904   9.052   8.315   8.595
 6003SOL     OW19905   0.897   7.806   9.242
 6003SOL    HW119906   0.992   7.805   9.235
 6003SOL    HW219907   0.866   7.790   9.153
 6004SOL     OW19908   4.405   4.869   6.207
 6004SOL    HW119909   4.316   4.859   6.243
 6004SOL    HW219910   4.429   4.959   6.228
 6005SOL     OW19911   1.456   0.961  14.036
 6005SOL    HW119912   1.443   1.029  13.970
 6005SOL    HW219913   1.447   0.879  13.989
 6006SOL     OW19914   4.837   4.501   9.312
 6006SOL    HW119915   4.828   4.571   9.247
 6006SOL    HW219916   4.788   4.533   9.388
 6007SOL     OW19917   5.463   5.843  13.533
 6007SOL    HW119918   5.550   5.829  13.570
 6007SOL    HW219919   5.403   5.828  13.607
 6008SOL     OW19920  10.833  10.162  10.771
 6008SOL    HW119921  10.869  10.131  10.854
 6008SOL    HW219922  10.739  10.168  10.786
 6009SOL     OW19923  12.833   3.376  14.474
 6009SOL    HW119924  12.751   3.346  14.514
 6009SOL    HW219925  12.811   3.460  14.435
 6010SOL     OW19926  14.615   0.449  14.379
 6010SOL    HW119927  14.607   0.443  14.284
 6010SOL    HW219928  14.538   0.401  14.412
 6011SOL     OW19929  11.959  11.665  13.471
 6011SOL    HW119930  12.047  11.677  13.436
 6011SOL    HW219931  11.960  11.577  13.510
 6012SOL     OW19932   8.533   6.339  14.017
 6012SOL    HW119933   8.549   6.403  13.948
 6012SOL    HW219934   8.502   6.262  13.971
 6013SOL     OW19935   3.112   9.984  11.597
 6013SOL    HW119936   3.041   9.995  11.534
 6013SOL    HW219937   3.155   9.904  11.571
 6014SOL     OW19938   3.151   3.995   4.509
 6014SOL    HW119939   3.156   4.074   4.563
 6014SOL    HW219940   3.084   4.015   4.444
 6015SOL     OW19941  11.067  12.308   5.639
 6015SOL    HW119942  11.016  12.389   5.634
 6015SOL    HW219943  11.067  12.274   5.550
 6016SOL     OW19944   9.598  10.126   6.198
 6016SOL    HW119945   9.521  10.169   6.162
 6016SOL    HW219946   9.564  10.050   6.244
 6017SOL     OW19947  11.560  14.140  10.188
 6017SOL    HW119948  11.622  14.122  10.258
 6017SOL    HW219949  11.572  14.068  10.126
 6018SOL     OW19950  13.673   4.883  12.428
 6018SOL    HW119951  13.688   4.870  12.521
 6018SOL    HW219952  13.752   4.929  12.397
 6019SOL     OW19953   5.683   4.241   6.070
 6019SOL    HW119954   5.727   4.323   6.048
 6019SOL    HW219955   5.752   4.175   6.068
 6020SOL     OW19956  12.402  11.168  14.488
 6020SOL    HW119957  12.449  11.200  14.411
 6020SOL    HW219958  12.400  11.073  14.477
 6021SOL     OW19959  12.191   4.214   5.698
 6021SOL    HW119960  12.195   4.201   5.793
 6021SOL    HW219961  12.180   4.308   5.687
 6022SOL     OW19962   7.202   7.257  12.900
 6022SOL    HW119963   7.113   7.245  12.935
 6022SOL    HW219964   7.197   7.339  12.850
 6023SOL     OW19965   9.802  11.165  11.288
 6023SOL    HW119966   9.852  11.217  11.225
 6023SOL    HW219967   9.857  11.089  11.306
 6024SOL     OW19968   0.859   0.891   4.728
 6024SOL    HW119969   0.814   0.964   4.685
 6024SOL    HW219970   0.829   0.895   4.819
 6025SOL     OW19971  10.087   8.028  11.797
 6025SOL    HW119972  10.030   7.976  11.740
 6025SOL    HW219973  10.103   7.972  11.873
 6026SOL     OW19974  12.289   5.685   9.328
 6026SOL    HW119975  12.203   5.662   9.363
 6026SOL    HW219976  12.291   5.647   9.241
 6027SOL     OW19977   6.108   1.351  10.183
 6027SOL    HW119978   6.054   1.352  10.262
 6027SOL    HW219979   6.171   1.422  10.196
 6028SOL     OW19980   5.057   0.400   7.070
 6028SOL    HW119981   5.125   0.450   7.116
 6028SOL    HW219982   5.082   0.309   7.083
 6029SOL     OW19983   1.001   2.948   3.093
 6029SOL    HW119984   0.991   3.025   3.037
 6029SOL    HW219985   1.090   2.954   3.127
 6030SOL     OW19986   6.595   4.512   4.121
 6030SOL    HW119987   6.623   4.424   4.146
 6030SOL    HW219988   6.655   4.571   4.167
 6031SOL     OW19989   6.672   9.153   5.901
 6031SOL    HW119990   6.673   9.057   5.907
 6031SOL    HW219991   6.748   9.174   5.847
 6032SOL     OW19992  10.458   6.155   2.824
 6032SOL    HW119993  10.479   6.146   2.730
 6032SOL    HW219994  10.363   6.166   2.826
 6033SOL     OW19995  12.183   8.220  10.223
 6033SOL    HW119996  12.207   8.196  10.313
 6033SOL    HW219997  12.095   8.256  10.231
 6034SOL     OW19998   5.039  11.712   5.268
 6034SOL    HW119999   5.054  11.662   5.349
 6034SOL    HW220000   5.078  11.659   5.199
 6035SOL     OW20001  13.402  12.485   2.195
 6035SOL    HW120002  13.450  12.481   2.278
 6035SOL    HW220003  13.463  12.452   2.129
 6036SOL     OW20004   2.260  12.867  12.111
 6036SOL    HW120005   2.183  12.923  12.100
 6036SOL    HW220006   2.260  12.842  12.203
 6037SOL     OW20007   0.226   7.935   4.885
 6037SOL    HW120008   0.280   7.917   4.962
 6037SOL    HW220009   0.162   7.864   4.884
 6038SOL     OW20010   0.471   9.745   6.066
 6038SOL    HW120011   0.515   9.774   6.145
 6038SOL    HW220012   0.386   9.791   6.067
 6039SOL     OW20013   1.983  10.539   2.476
 6039SOL    HW120014   2.012  10.449   2.462
 6039SOL    HW220015   1.977  10.576   2.388
 6040SOL     OW20016   6.481   4.532  11.499
 6040SOL    HW120017   6.445   4.614  11.533
 6040SOL    HW220018   6.515   4.556  11.412
 6041SOL     OW20019   2.597   1.235   1.872
 6041SOL    HW120020   2.614   1.301   1.940
 6041SOL    HW220021   2.538   1.172   1.914
 6042SOL     OW20022  14.472   1.878   6.098
 6042SOL    HW120023  14.447   1.915   6.183
 6042SOL    HW220024  14.522   1.800   6.120
 6043SOL     OW20025  10.834   6.899   4.661
 6043SOL    HW120026  10.845   6.949   4.580
 6043SOL    HW220027  10.776   6.953   4.715
 6044SOL     OW20028   5.941   2.941   0.377
 6044SOL    HW120029   6.009   2.875   0.389
 6044SOL    HW220030   5.914   2.933   0.286
 6045SOL     OW20031   4.088  10.002   1.117
 6045SOL    HW120032   4.041   9.922   1.095
 6045SOL    HW220033   4.142   9.979   1.193
 6046SOL     OW20034   4.447   6.062   0.335
 6046SOL    HW120035   4.411   6.052   0.424
 6046SOL    HW220036   4.392   6.005   0.281
 6047SOL     OW20037   7.471  14.799   3.193
 6047SOL    HW120038   7.404  14.811   3.125
 6047SOL    HW220039   7.484   0.006   3.229
 6048SOL     OW20040   8.040  10.498  11.038
 6048SOL    HW120041   8.095  10.492  11.116
 6048SOL    HW220042   8.099  10.482  10.965
 6049SOL     OW20043   1.978   8.367  13.119
 6049SOL    HW120044   1.930   8.312  13.057
 6049SOL    HW220045   1.916   8.379  13.192
 6050SOL     OW20046   3.364   5.978   2.451
 6050SOL    HW120047   3.315   5.982   2.533
 6050SOL    HW220048   3.297   5.967   2.384
 6051SOL     OW20049   4.116   3.150   5.783
 6051SOL    HW120050   4.102   3.118   5.872
 6051SOL    HW220051   4.047   3.107   5.732
 6052SOL     OW20052  11.806   4.098   7.085
 6052SOL    HW120053  11.895   4.114   7.054
 6052SOL    HW220054  11.809   4.010   7.122
 6053SOL     OW20055   0.004  12.853   2.977
 6053SOL    HW120056  14.832  12.781   2.941
 6053SOL    HW220057  14.827  12.893   3.043
 6054SOL     OW20058   2.627  11.958   3.044
 6054SOL    HW120059   2.651  11.994   2.959
 6054SOL    HW220060   2.585  12.030   3.090
 6055SOL     OW20061   0.605  14.754  13.465
 6055SOL    HW120062   0.654  14.781  13.542
 6055SOL    HW220063   0.599  14.659  13.472
 6056SOL     OW20064  13.469  14.049   2.875
 6056SOL    HW120065  13.557  14.086   2.878
 6056SOL    HW220066  13.444  14.055   2.783
 6057SOL     OW20067  10.817   9.362   5.971
 6057SOL    HW120068  10.819   9.406   6.056
 6057SOL    HW220069  10.878   9.289   5.981
 6058SOL     OW20070   2.720   8.964   1.664
 6058SOL    HW120071   2.810   8.935   1.647
 6058SOL    HW220072   2.669   8.884   1.667
 6059SOL     OW20073   8.174  12.587   1.121
 6059SOL    HW120074   8.122  12.537   1.184
 6059SOL    HW220075   8.176  12.532   1.043
 6060SOL     OW20076   7.195   2.990   4.868
 6060SOL    HW120077   7.209   3.062   4.807
 6060SOL    HW220078   7.272   2.991   4.925
 6061SOL     OW20079   8.625   6.311   4.967
 6061SOL    HW120080   8.612   6.378   4.900
 6061SOL    HW220081   8.594   6.230   4.926
 6062SOL     OW20082   3.601   9.588  13.231
 6062SOL    HW120083   3.527   9.562  13.177
 6062SOL    HW220084   3.677   9.546  13.190
 6063SOL     OW20085   4.886   3.268   3.524
 6063SOL    HW120086   4.919   3.266   3.613
 6063SOL    HW220087   4.964   3.272   3.469
 6064SOL     OW20088   2.472   4.942   6.793
 6064SOL    HW120089   2.405   4.880   6.821
 6064SOL    HW220090   2.438   5.027   6.819
 6065SOL     OW20091  12.252  13.315   6.542
 6065SOL    HW120092  12.314  13.251   6.508
 6065SOL    HW220093  12.243  13.294   6.634
 6066SOL     OW20094   2.827  11.402  13.509
 6066SOL    HW120095   2.870  11.338  13.565
 6066SOL    HW220096   2.733  11.390  13.526
 6067SOL     OW20097  10.804   5.370   4.759
 6067SOL    HW120098  10.742   5.364   4.832
 6067SOL    HW220099  10.889   5.386   4.800
 6068SOL     OW20100   3.130   3.806   4.947
 6068SOL    HW120101   3.192   3.867   4.988
 6068SOL    HW220102   3.160   3.799   4.856
 6069SOL     OW20103   8.704   6.780   6.772
 6069SOL    HW120104   8.614   6.814   6.771
 6069SOL    HW220105   8.700   6.703   6.715
 6070SOL     OW20106  13.524   7.852   5.729
 6070SOL    HW120107  13.591   7.787   5.751
 6070SOL    HW220108  13.442   7.803   5.731
 6071SOL     OW20109   1.456  11.715  11.036
 6071SOL    HW120110   1.506  11.779  11.085
 6071SOL    HW220111   1.520  11.648  11.011
 6072SOL     OW20112   0.094   6.052   9.342
 6072SOL    HW120113   0.017   6.029   9.394
 6072SOL    HW220114   0.137   6.121   9.393
 6073SOL     OW20115  14.764   0.444  13.200
 6073SOL    HW120116  14.799   0.436  13.289
 6073SOL    HW220117  14.827   0.502  13.155
 6074SOL     OW20118  14.391   0.507   4.305
 6074SOL    HW120119  14.351   0.585   4.266
 6074SOL    HW220120  14.401   0.529   4.398
 6075SOL     OW20121   8.900  10.294   2.670
 6075SOL    HW120122   8.888  10.366   2.607
 6075SOL    HW220123   8.831  10.231   2.648
 6076SOL     OW20124   4.575   2.286  11.632
 6076SOL    HW120125   4.511   2.255  11.567
 6076SOL    HW220126   4.591   2.377  11.607
 6077SOL     OW20127   8.794  13.480   8.966
 6077SOL    HW120128   8.771  13.437   8.884
 6077SOL    HW220129   8.729  13.448   9.029
 6078SOL     OW20130   3.807   3.258  12.017
 6078SOL    HW120131   3.806   3.163  12.030
 6078SOL    HW220132   3.851   3.270  11.933
 6079SOL     OW20133  11.664   6.349   8.552
 6079SOL    HW120134  11.609   6.376   8.479
 6079SOL    HW220135  11.611   6.285   8.600
 6080SOL     OW20136  10.583   9.843   4.926
 6080SOL    HW120137  10.566   9.752   4.953
 6080SOL    HW220138  10.599   9.889   5.008
 6081SOL     OW20139  13.648   8.247   3.805
 6081SOL    HW120140  13.652   8.282   3.894
 6081SOL    HW220141  13.567   8.284   3.769
 6082SOL     OW20142  13.358   5.915  12.097
 6082SOL    HW120143  13.421   5.844  12.099
 6082SOL    HW220144  13.290   5.885  12.036
 6083SOL     OW20145  13.701  11.068  12.822
 6083SOL    HW120146  13.752  11.136  12.867
 6083SOL    HW220147  13.763  10.996  12.812
 6084SOL     OW20148   5.746   0.653   2.203
 6084SOL    HW120149   5.831   0.611   2.219
 6084SOL    HW220150   5.739   0.658   2.108
 6085SOL     OW20151   6.454   0.039  10.272
 6085SOL    HW120152   6.535  14.869  10.267
 6085SOL    HW220153   6.410   0.022  10.189
 6086SOL     OW20154   3.996   8.539   9.418
 6086SOL    HW120155   3.943   8.463   9.443
 6086SOL    HW220156   4.068   8.502   9.367
 6087SOL     OW20157   4.216   1.876  11.846
 6087SOL    HW120158   4.172   1.795  11.871
 6087SOL    HW220159   4.182   1.896  11.759
 6088SOL     OW20160   2.573   4.284   0.745
 6088SOL    HW120161   2.562   4.355   0.683
 6088SOL    HW220162   2.509   4.303   0.815
 6089SOL     OW20163   6.166  12.433   1.447
 6089SOL    HW120164   6.221  12.509   1.430
 6089SOL    HW220165   6.183  12.374   1.373
 6090SOL     OW20166   4.957  12.398   9.755
 6090SOL    HW120167   4.925  12.370   9.841
 6090SOL    HW220168   4.951  12.493   9.757
 6091SOL     OW20169  11.059   5.625  12.322
 6091SOL    HW120170  10.970   5.654  12.301
 6091SOL    HW220171  11.052   5.530  12.330
 6092SOL     OW20172   1.523   1.436  14.752
 6092SOL    HW120173   1.567   1.421  14.835
 6092SOL    HW220174   1.472   1.516  14.766
 6093SOL     OW20175  11.301  10.370   0.661
 6093SOL    HW120176  11.391  10.351   0.690
 6093SOL    HW220177  11.301  10.349   0.567
 6094SOL     OW20178   9.878   3.744   4.792
 6094SOL    HW120179   9.874   3.838   4.773
 6094SOL    HW220180   9.970   3.727   4.809
 6095SOL     OW20181   0.530   4.438  10.113
 6095SOL    HW120182   0.443   4.408  10.086
 6095SOL    HW220183   0.549   4.386  10.192
 6096SOL     OW20184   7.824   5.440   7.294
 6096SOL    HW120185   7.801   5.403   7.380
 6096SOL    HW220186   7.907   5.397   7.272
 6097SOL     OW20187   2.025   6.227   5.104
 6097SOL    HW120188   2.113   6.260   5.126
 6097SOL    HW220189   1.996   6.182   5.184
 6098SOL     OW20190   0.976   3.808   4.836
 6098SOL    HW120191   0.888   3.794   4.872
 6098SOL    HW220192   0.965   3.875   4.769
 6099SOL     OW20193  10.761  12.245   0.343
 6099SOL    HW120194  10.719  12.294   0.414
 6099SOL    HW220195  10.790  12.312   0.281
 6100SOL     OW20196   4.795   2.541  12.237
 6100SOL    HW120197   4.813   2.634  12.218
 6100SOL    HW220198   4.765   2.506  12.153
 6101SOL     OW20199   9.929  11.465  12.999
 6101SOL    HW120200   9.924  11.371  12.982
 6101SOL    HW220201   9.878  11.505  12.929
 6102SOL     OW20202   1.695   2.569  11.126
 6102SOL    HW120203   1.606   2.595  11.100
 6102SOL    HW220204   1.682   2.514  11.203
 6103SOL     OW20205  11.424  10.291  10.496
 6103SOL    HW120206  11.360  10.309  10.426
 6103SOL    HW220207  11.505  10.271  10.449
 6104SOL     OW20208   7.050  11.509   3.045
 6104SOL    HW120209   6.981  11.560   3.087
 6104SOL    HW220210   7.078  11.565   2.972
 6105SOL     OW20211   6.131   7.745   0.860
 6105SOL    HW120212   6.200   7.811   0.860
 6105SOL    HW220213   6.175   7.663   0.881
 6106SOL     OW20214   3.758  11.947   8.989
 6106SOL    HW120215   3.712  11.866   9.006
 6106SOL    HW220216   3.724  11.978   8.905
 6107SOL     OW20217   0.557  12.009  14.410
 6107SOL    HW120218   0.620  12.042  14.345
 6107SOL    HW220219   0.555  11.915  14.395
 6108SOL     OW20220  13.142   9.348   9.946
 6108SOL    HW120221  13.120   9.391   9.863
 6108SOL    HW220222  13.212   9.287   9.923
 6109SOL     OW20223   2.665   3.329  13.163
 6109SOL    HW120224   2.604   3.385  13.115
 6109SOL    HW220225   2.622   3.311  13.246
 6110SOL     OW20226  11.862   5.924   3.187
 6110SOL    HW120227  11.834   5.894   3.273
 6110SOL    HW220228  11.872   6.019   3.197
 6111SOL     OW20229   6.502  10.066   3.674
 6111SOL    HW120230   6.532  10.022   3.753
 6111SOL    HW220231   6.555  10.146   3.670
 6112SOL     OW20232   7.392   8.306   9.576
 6112SOL    HW120233   7.412   8.222   9.616
 6112SOL    HW220234   7.476   8.353   9.576
 6113SOL     OW20235  11.584   5.037   8.701
 6113SOL    HW120236  11.537   4.954   8.706
 6113SOL    HW220237  11.624   5.049   8.787
 6114SOL     OW20238   8.963   2.048  10.730
 6114SOL    HW120239   8.886   2.057  10.673
 6114SOL    HW220240   8.956   1.960  10.767
 6115SOL     OW20241  11.744  10.205   0.937
 6115SOL    HW120242  11.764  10.272   1.003
 6115SOL    HW220243  11.811  10.216   0.870
 6116SOL     OW20244  13.600   4.310   1.239
 6116SOL    HW120245  13.564   4.273   1.319
 6116SOL    HW220246  13.688   4.338   1.263
 6117SOL     OW20247   2.612  14.561   4.758
 6117SOL    HW120248   2.638  14.616   4.683
 6117SOL    HW220249   2.680  14.577   4.823
 6118SOL     OW20250   3.658   8.722  11.904
 6118SOL    HW120251   3.584   8.667  11.877
 6118SOL    HW220252   3.662   8.791  11.838
 6119SOL     OW20253  14.348  12.246   3.309
 6119SOL    HW120254  14.307  12.319   3.263
 6119SOL    HW220255  14.325  12.169   3.257
 6120SOL     OW20256  10.235  11.741   3.164
 6120SOL    HW120257  10.173  11.814   3.162
 6120SOL    HW220258  10.313  11.773   3.120
 6121SOL     OW20259  13.629  13.349   0.011
 6121SOL    HW120260  13.652  13.272   0.063
 6121SOL    HW220261  13.713  13.388  14.867
 6122SOL     OW20262  14.341   0.691   9.041
 6122SOL    HW120263  14.322   0.756   9.108
 6122SOL    HW220264  14.374   0.741   8.967
 6123SOL     OW20265   1.384   0.819   7.258
 6123SOL    HW120266   1.412   0.755   7.193
 6123SOL    HW220267   1.346   0.890   7.206
 6124SOL     OW20268   8.699   3.135   7.923
 6124SOL    HW120269   8.773   3.138   7.862
 6124SOL    HW220270   8.738   3.148   8.009
 6125SOL     OW20271   4.166   4.086  13.708
 6125SOL    HW120272   4.176   4.099  13.613
 6125SOL    HW220273   4.252   4.109  13.744
 6126SOL     OW20274   7.940   8.911   2.505
 6126SOL    HW120275   8.018   8.873   2.464
 6126SOL    HW220276   7.973   8.952   2.585
 6127SOL     OW20277   1.899  14.856   6.068
 6127SOL    HW120278   1.858  14.782   6.024
 6127SOL    HW220279   1.849   0.052   6.037
 6128SOL     OW20280   5.150  11.927   0.979
 6128SOL    HW120281   5.195  11.843   0.992
 6128SOL    HW220282   5.216  11.984   0.939
 6129SOL     OW20283  12.766   5.505   8.531
 6129SOL    HW120284  12.763   5.592   8.493
 6129SOL    HW220285  12.676   5.473   8.524
 6130SOL     OW20286  10.790   1.040   3.036
 6130SOL    HW120287  10.868   1.025   3.089
 6130SOL    HW220288  10.768   0.954   3.001
 6131SOL     OW20289   6.062   7.492   9.936
 6131SOL    HW120290   6.031   7.540   9.859
 6131SOL    HW220291   6.056   7.556  10.007
 6132SOL     OW20292   3.457   3.693   7.464
 6132SOL    HW120293   3.416   3.641   7.533
 6132SOL    HW220294   3.486   3.628   7.399
 6133SOL     OW20295   4.825   9.686   0.899
 6133SOL    HW120296   4.789   9.679   0.988
 6133SOL    HW220297   4.754   9.656   0.843
 6134SOL     OW20298  12.474   3.130   1.175
 6134SOL    HW120299  12.517   3.216   1.178
 6134SOL    HW220300  12.382   3.149   1.193
 6135SOL     OW20301   7.563   2.683   5.895
 6135SOL    HW120302   7.580   2.681   5.989
 6135SOL    HW220303   7.624   2.747   5.861
 6136SOL     OW20304   5.225  13.705   9.142
 6136SOL    HW120305   5.210  13.623   9.096
 6136SOL    HW220306   5.265  13.679   9.225
 6137SOL     OW20307  13.252  12.235  11.913
 6137SOL    HW120308  13.229  12.206  11.825
 6137SOL    HW220309  13.345  12.258  11.907
 6138SOL     OW20310  12.778   7.150  14.325
 6138SOL    HW120311  12.735   7.066  14.337
 6138SOL    HW220312  12.745   7.205  14.397
 6139SOL     OW20313  14.088  11.150   4.377
 6139SOL    HW120314  14.143  11.075   4.356
 6139SOL    HW220315  14.116  11.177   4.464
 6140SOL     OW20316  11.065   2.093   4.888
 6140SOL    HW120317  11.102   2.010   4.918
 6140SOL    HW220318  11.118   2.117   4.811
 6141SOL     OW20319   2.111  11.167   9.302
 6141SOL    HW120320   2.118  11.128   9.389
 6141SOL    HW220321   2.069  11.251   9.317
 6142SOL     OW20322  10.177   3.764  12.532
 6142SOL    HW120323  10.191   3.859  12.530
 6142SOL    HW220324  10.142   3.744  12.445
 6143SOL     OW20325   7.434  13.105  10.430
 6143SOL    HW120326   7.464  13.178  10.484
 6143SOL    HW220327   7.515  13.063  10.399
 6144SOL     OW20328  12.636   7.350   5.681
 6144SOL    HW120329  12.616   7.390   5.596
 6144SOL    HW220330  12.725   7.315   5.670
 6145SOL     OW20331  10.631  12.650   0.604
 6145SOL    HW120332  10.687  12.593   0.550
 6145SOL    HW220333  10.675  12.735   0.602
 6146SOL     OW20334  12.111   8.424   5.645
 6146SOL    HW120335  12.037   8.442   5.587
 6146SOL    HW220336  12.089   8.468   5.727
 6147SOL     OW20337  11.157   9.315   9.436
 6147SOL    HW120338  11.168   9.239   9.379
 6147SOL    HW220339  11.113   9.380   9.382
 6148SOL     OW20340   8.580  14.302   6.981
 6148SOL    HW120341   8.543  14.302   7.069
 6148SOL    HW220342   8.590  14.395   6.959
 6149SOL     OW20343   7.602   3.646   2.309
 6149SOL    HW120344   7.586   3.647   2.214
 6149SOL    HW220345   7.529   3.596   2.345
 6150SOL     OW20346   9.106   8.068   1.859
 6150SOL    HW120347   9.021   8.097   1.893
 6150SOL    HW220348   9.170   8.098   1.923
 6151SOL     OW20349  14.101  10.356   5.091
 6151SOL    HW120350  14.160  10.348   5.166
 6151SOL    HW220351  14.017  10.325   5.124
 6152SOL     OW20352   3.685   4.879  14.544
 6152SOL    HW120353   3.594   4.855  14.528
 6152SOL    HW220354   3.704   4.947  14.480
 6153SOL     OW20355   0.549   1.066   8.975
 6153SOL    HW120356   0.572   1.144   8.923
 6153SOL    HW220357   0.567   0.992   8.916
 6154SOL     OW20358  12.574   3.499   2.093
 6154SOL    HW120359  12.480   3.497   2.076
 6154SOL    HW220360  12.583   3.540   2.179
 6155SOL     OW20361   2.405  10.440  13.986
 6155SOL    HW120362   2.319  10.480  13.971
 6155SOL    HW220363   2.467  10.504  13.953
 6156SOL     OW20364   9.629  14.121  12.227
 6156SOL    HW120365   9.540  14.133  12.259
 6156SOL    HW220366   9.685  14.146  12.301
 6157SOL     OW20367   0.808   8.269   7.864
 6157SOL    HW120368   0.878   8.309   7.916
 6157SOL    HW220369   0.812   8.176   7.886
 6158SOL     OW20370  14.349  10.526   7.644
 6158SOL    HW120371  14.359  10.478   7.727
 6158SOL    HW220372  14.355  10.459   7.577
 6159SOL     OW20373  10.605   6.320   4.797
 6159SOL    HW120374  10.546   6.390   4.825
 6159SOL    HW220375  10.605   6.325   4.702
 6160SOL     OW20376   8.470   0.863  14.173
 6160SOL    HW120377   8.492   0.866  14.080
 6160SOL    HW220378   8.471   0.770  14.195
 6161SOL     OW20379   7.421  13.088  12.744
 6161SOL    HW120380   7.461  13.124  12.823
 6161SOL    HW220381   7.478  13.117  12.673
 6162SOL     OW20382   6.429   2.316  13.707
 6162SOL    HW120383   6.464   2.318  13.618
 6162SOL    HW220384   6.445   2.226  13.737
 6163SOL     OW20385   3.376   5.834   6.561
 6163SOL    HW120386   3.443   5.765   6.567
 6163SOL    HW220387   3.407   5.891   6.490
 6164SOL     OW20388   6.326   0.016   8.695
 6164SOL    HW120389   6.392   0.084   8.684
 6164SOL    HW220390   6.343  14.860   8.782
 6165SOL     OW20391   7.413   2.693  11.543
 6165SOL    HW120392   7.400   2.606  11.581
 6165SOL    HW220393   7.464   2.678  11.463
 6166SOL     OW20394   7.287   7.750  13.818
 6166SOL    HW120395   7.235   7.761  13.897
 6166SOL    HW220396   7.249   7.812  13.755
 6167SOL     OW20397  10.078  13.047  13.589
 6167SOL    HW120398  10.014  12.977  13.577
 6167SOL    HW220399  10.032  13.127  13.564
 6168SOL     OW20400   7.853   9.336   5.821
 6168SOL    HW120401   7.907   9.347   5.743
 6168SOL    HW220402   7.913   9.305   5.888
 6169SOL     OW20403   6.745   5.007  10.651
 6169SOL    HW120404   6.686   5.049  10.588
 6169SOL    HW220405   6.832   5.040  10.629
 6170SOL     OW20406  14.238  10.952   0.979
 6170SOL    HW120407  14.318  10.931   0.932
 6170SOL    HW220408  14.185  10.872   0.975
 6171SOL     OW20409   8.492  11.843  14.663
 6171SOL    HW120410   8.518  11.933  14.684
 6171SOL    HW220411   8.490  11.798  14.748
 6172SOL     OW20412   7.073   9.228   6.566
 6172SOL    HW120413   7.053   9.245   6.474
 6172SOL    HW220414   7.168   9.230   6.571
 6173SOL     OW20415  10.095   6.680  12.298
 6173SOL    HW120416  10.014   6.710  12.340
 6173SOL    HW220417  10.081   6.695  12.205
 6174SOL     OW20418   9.272   9.453   8.131
 6174SOL    HW120419   9.346   9.502   8.095
 6174SOL    HW220420   9.270   9.478   8.224
 6175SOL     OW20421   5.360   7.811  13.732
 6175SOL    HW120422   5.425   7.879  13.715
 6175SOL    HW220423   5.397   7.733  13.692
 6176SOL     OW20424   4.511   0.762   4.968
 6176SOL    HW120425   4.498   0.755   4.873
 6176SOL    HW220426   4.601   0.794   4.977
 6177SOL     OW20427   5.844  12.298  12.384
 6177SOL    HW120428   5.823  12.242  12.309
 6177SOL    HW220429   5.935  12.279  12.403
 6178SOL     OW20430  14.306   6.385   3.868
 6178SOL    HW120431  14.223   6.345   3.897
 6178SOL    HW220432  14.326   6.450   3.936
 6179SOL     OW20433   3.656   6.898   4.978
 6179SOL    HW120434   3.633   6.880   4.887
 6179SOL    HW220435   3.701   6.983   4.975
 6180SOL     OW20436   6.419   0.066  11.811
 6180SOL    HW120437   6.494   0.042  11.758
 6180SOL    HW220438   6.359  14.872  11.803
 6181SOL     OW20439  13.678  11.701   9.442
 6181SOL    HW120440  13.737  11.653   9.383
 6181SOL    HW220441  13.653  11.636   9.508
 6182SOL     OW20442   6.118  14.843  10.456
 6182SOL    HW120443   6.202   0.001  10.480
 6182SOL    HW220444   6.128  14.749  10.471
 6183SOL     OW20445   3.218  14.497  13.061
 6183SOL    HW120446   3.260  14.572  13.018
 6183SOL    HW220447   3.133  14.529  13.088
 6184SOL     OW20448   8.804   0.186  13.679
 6184SOL    HW120449   8.736   0.184  13.746
 6184SOL    HW220450   8.884   0.206  13.728
 6185SOL     OW20451   5.166   5.431  12.086
 6185SOL    HW120452   5.091   5.480  12.054
 6185SOL    HW220453   5.138   5.398  12.172
 6186SOL     OW20454  11.028   0.086   6.177
 6186SOL    HW120455  11.121   0.068   6.160
 6186SOL    HW220456  10.982   0.013   6.136
 6187SOL     OW20457  14.066  10.085   3.082
 6187SOL    HW120458  14.060  10.044   3.168
 6187SOL    HW220459  14.047  10.178   3.097
 6188SOL     OW20460   1.947  10.088   4.402
 6188SOL    HW120461   2.017  10.080   4.466
 6188SOL    HW220462   1.932  10.182   4.395
 6189SOL     OW20463  11.096   1.631   1.563
 6189SOL    HW120464  11.035   1.590   1.623
 6189SOL    HW220465  11.063   1.610   1.476
 6190SOL     OW20466  10.542  10.006   7.578
 6190SOL    HW120467  10.499  10.064   7.514
 6190SOL    HW220468  10.472   9.981   7.638
 6191SOL     OW20469   0.317   0.460  13.299
 6191SOL    HW120470   0.223   0.443  13.298
 6191SOL    HW220471   0.352   0.398  13.363
 6192SOL     OW20472   4.073   4.394   6.032
 6192SOL    HW120473   4.113   4.310   6.008
 6192SOL    HW220474   4.111   4.457   5.970
 6193SOL     OW20475   6.624  14.785   1.038
 6193SOL    HW120476   6.574  14.832   0.971
 6193SOL    HW220477   6.706  14.833   1.045
 6194SOL     OW20478   5.032   6.978   3.123
 6194SOL    HW120479   5.054   7.026   3.043
 6194SOL    HW220480   4.942   7.003   3.142
 6195SOL     OW20481   0.678   9.567  10.735
 6195SOL    HW120482   0.591   9.528  10.738
 6195SOL    HW220483   0.733   9.508  10.787
 6196SOL     OW20484   2.313   4.292  10.604
 6196SOL    HW120485   2.388   4.343  10.574
 6196SOL    HW220486   2.302   4.317  10.696
 6197SOL     OW20487  10.038   6.734   8.749
 6197SOL    HW120488  10.027   6.778   8.664
 6197SOL    HW220489   9.986   6.787   8.810
 6198SOL     OW20490   8.092  10.922   3.230
 6198SOL    HW120491   8.049  10.844   3.264
 6198SOL    HW220492   8.092  10.984   3.304
 6199SOL     OW20493  12.826   3.290   1.583
 6199SOL    HW120494  12.881   3.227   1.538
 6199SOL    HW220495  12.745   3.243   1.601
 6200SOL     OW20496   2.272   1.310  12.467
 6200SOL    HW120497   2.180   1.337  12.458
 6200SOL    HW220498   2.292   1.324  12.560
 6201SOL     OW20499  14.330   5.845   1.443
 6201SOL    HW120500  14.291   5.885   1.520
 6201SOL    HW220501  14.328   5.913   1.376
 6202SOL     OW20502   2.104   1.498   4.026
 6202SOL    HW120503   2.182   1.548   4.002
 6202SOL    HW220504   2.122   1.410   3.993
 6203SOL     OW20505  10.219   8.198  12.971
 6203SOL    HW120506  10.173   8.219  13.053
 6203SOL    HW220507  10.307   8.234  12.982
 6204SOL     OW20508  14.824   4.254   9.113
 6204SOL    HW120509   0.015   4.221   9.168
 6204SOL    HW220510  14.757   4.185   9.117
 6205SOL     OW20511  11.229   0.764  10.853
 6205SOL    HW120512  11.262   0.808  10.931
 6205SOL    HW220513  11.157   0.819  10.822
 6206SOL     OW20514  13.375  14.565   0.089
 6206SOL    HW120515  13.281  14.548   0.088
 6206SOL    HW220516  13.386  14.642   0.034
 6207SOL     OW20517  13.748   4.166  14.321
 6207SOL    HW120518  13.760   4.142  14.413
 6207SOL    HW220519  13.661   4.132  14.299
 6208SOL     OW20520   9.048   9.356  13.622
 6208SOL    HW120521   9.090   9.405  13.552
 6208SOL    HW220522   9.022   9.422  13.686
 6209SOL     OW20523   9.973   9.380   8.657
 6209SOL    HW120524  10.035   9.358   8.587
 6209SOL    HW220525   9.908   9.436   8.614
 6210SOL     OW20526   2.713  14.083  13.402
 6210SOL    HW120527   2.625  14.091  13.438
 6210SOL    HW220528   2.714  14.146  13.330
 6211SOL     OW20529  11.096   3.417   1.208
 6211SOL    HW120530  11.076   3.424   1.301
 6211SOL    HW220531  11.057   3.495   1.169
 6212SOL     OW20532   1.894   3.538   7.205
 6212SOL    HW120533   1.944   3.466   7.166
 6212SOL    HW220534   1.920   3.539   7.297
 6213SOL     OW20535  12.387   1.148   2.721
 6213SOL    HW120536  12.418   1.224   2.672
 6213SOL    HW220537  12.300   1.130   2.685
 6214SOL     OW20538   1.618  11.808  13.937
 6214SOL    HW120539   1.554  11.794  13.867
 6214SOL    HW220540   1.564  11.825  14.015
 6215SOL     OW20541   2.802   6.008   4.473
 6215SOL    HW120542   2.881   5.973   4.512
 6215SOL    HW220543   2.813   5.994   4.379
 6216SOL     OW20544   4.717   6.757   2.876
 6216SOL    HW120545   4.795   6.812   2.886
 6216SOL    HW220546   4.658   6.787   2.945
 6217SOL     OW20547  12.427   8.161   5.652
 6217SOL    HW120548  12.420   8.083   5.597
 6217SOL    HW220549  12.338   8.174   5.686
 6218SOL     OW20550   9.713  11.376   9.559
 6218SOL    HW120551   9.634  11.396   9.510
 6218SOL    HW220552   9.717  11.280   9.562
 6219SOL     OW20553   5.892   5.761   3.551
 6219SOL    HW120554   5.911   5.724   3.465
 6219SOL    HW220555   5.976   5.797   3.581
 6220SOL     OW20556   6.849   8.192   0.158
 6220SOL    HW120557   6.928   8.212   0.108
 6220SOL    HW220558   6.879   8.186   0.249
 6221SOL     OW20559   3.263   9.822   4.125
 6221SOL    HW120560   3.188   9.843   4.181
 6221SOL    HW220561   3.276   9.728   4.137
 6222SOL     OW20562   1.420   3.653   2.065
 6222SOL    HW120563   1.359   3.639   2.138
 6222SOL    HW220564   1.383   3.726   2.016
 6223SOL     OW20565  13.881   1.370   1.171
 6223SOL    HW120566  13.926   1.397   1.091
 6223SOL    HW220567  13.875   1.449   1.224
 6224SOL     OW20568  12.375  13.062   5.104
 6224SOL    HW120569  12.291  13.099   5.079
 6224SOL    HW220570  12.440  13.128   5.080
 6225SOL     OW20571  12.654   7.803  13.263
 6225SOL    HW120572  12.571   7.795  13.216
 6225SOL    HW220573  12.697   7.878  13.222
 6226SOL     OW20574   6.956   2.290  11.447
 6226SOL    HW120575   6.887   2.355  11.438
 6226SOL    HW220576   6.913   2.214  11.485
 6227SOL     OW20577   2.623   1.761   7.330
 6227SOL    HW120578   2.625   1.677   7.374
 6227SOL    HW220579   2.703   1.762   7.276
 6228SOL     OW20580   3.531   0.674  13.050
 6228SOL    HW120581   3.469   0.724  12.998
 6228SOL    HW220582   3.616   0.711  13.028
 6229SOL     OW20583   1.415   3.062  12.043
 6229SOL    HW120584   1.469   2.990  12.009
 6229SOL    HW220585   1.325   3.033  12.029
 6230SOL     OW20586  13.180  11.052   2.065
 6230SOL    HW120587  13.188  10.963   2.098
 6230SOL    HW220588  13.098  11.051   2.015
 6231SOL     OW20589   0.721   6.544   7.739
 6231SOL    HW120590   0.719   6.449   7.750
 6231SOL    HW220591   0.800   6.559   7.686
 6232SOL     OW20592   2.605   7.934   6.585
 6232SOL    HW120593   2.592   7.894   6.499
 6232SOL    HW220594   2.590   8.027   6.570
 6233SOL     OW20595   1.646  14.274   0.343
 6233SOL    HW120596   1.624  14.356   0.299
 6233SOL    HW220597   1.563  14.245   0.382
 6234SOL     OW20598  12.824   9.444   5.223
 6234SOL    HW120599  12.832   9.448   5.128
 6234SOL    HW220600  12.734   9.415   5.238
 6235SOL     OW20601   9.799  11.002   3.941
 6235SOL    HW120602   9.719  10.967   3.900
 6235SOL    HW220603   9.781  10.998   4.035
 6236SOL     OW20604   0.767  13.242   1.884
 6236SOL    HW120605   0.853  13.270   1.853
 6236SOL    HW220606   0.739  13.176   1.820
 6237SOL     OW20607  14.163   0.920   3.465
 6237SOL    HW120608  14.115   0.847   3.505
 6237SOL    HW220609  14.139   0.917   3.373
 6238SOL     OW20610   8.294  14.618   6.926
 6238SOL    HW120611   8.286  14.612   7.021
 6238SOL    HW220612   8.270  14.530   6.895
 6239SOL     OW20613   9.497  12.204  12.524
 6239SOL    HW120614   9.412  12.203  12.568
 6239SOL    HW220615   9.502  12.291  12.484
 6240SOL     OW20616  13.958  12.936   8.482
 6240SOL    HW120617  14.032  12.876   8.497
 6240SOL    HW220618  13.934  12.967   8.569
 6241SOL     OW20619   3.788   6.935   7.499
 6241SOL    HW120620   3.787   6.863   7.435
 6241SOL    HW220621   3.803   6.892   7.583
 6242SOL     OW20622  13.339   4.515  10.869
 6242SOL    HW120623  13.317   4.606  10.890
 6242SOL    HW220624  13.401   4.521  10.797
 6243SOL     OW20625   9.929  12.846   7.175
 6243SOL    HW120626   9.855  12.906   7.176
 6243SOL    HW220627   9.987  12.882   7.108
 6244SOL     OW20628   2.552   9.004   7.384
 6244SOL    HW120629   2.614   9.014   7.312
 6244SOL    HW220630   2.466   9.010   7.343
 6245SOL     OW20631  14.119  12.617   4.874
 6245SOL    HW120632  14.036  12.598   4.918
 6245SOL    HW220633  14.094  12.640   4.785
 6246SOL     OW20634   6.299   0.109   2.419
 6246SOL    HW120635   6.232   0.045   2.445
 6246SOL    HW220636   6.325   0.151   2.501
 6247SOL     OW20637  11.544  12.434   7.024
 6247SOL    HW120638  11.591  12.374   6.967
 6247SOL    HW220639  11.530  12.512   6.971
 6248SOL     OW20640   8.763   8.563   4.106
 6248SOL    HW120641   8.855   8.553   4.084
 6248SOL    HW220642   8.746   8.657   4.094
 6249SOL     OW20643   1.061   9.174   5.591
 6249SOL    HW120644   1.128   9.162   5.658
 6249SOL    HW220645   0.983   9.202   5.639
 6250SOL     OW20646  12.446   5.899   7.255
 6250SOL    HW120647  12.493   5.839   7.312
 6250SOL    HW220648  12.512   5.961   7.224
 6251SOL     OW20649  11.674   6.012   6.855
 6251SOL    HW120650  11.752   6.067   6.861
 6251SOL    HW220651  11.605   6.071   6.824
 6252SOL     OW20652  14.271   6.250   0.321
 6252SOL    HW120653  14.334   6.188   0.287
 6252SOL    HW220654  14.288   6.253   0.415
 6253SOL     OW20655  14.675  11.281  10.714
 6253SOL    HW120656  14.764  11.284  10.679
 6253SOL    HW220657  14.687  11.258  10.806
 6254SOL     OW20658   3.441   7.207   5.087
 6254SOL    HW120659   3.408   7.173   5.004
 6254SOL    HW220660   3.370   7.263   5.120
 6255SOL     OW20661   1.768   9.042   7.494
 6255SOL    HW120662   1.798   9.010   7.409
 6255SOL    HW220663   1.759   9.137   7.482
 6256SOL     OW20664  10.592   8.491   7.248
 6256SOL    HW120665  10.531   8.495   7.174
 6256SOL    HW220666  10.634   8.405   7.239
 6257SOL     OW20667   5.494   5.514   0.288
 6257SOL    HW120668   5.457   5.428   0.266
 6257SOL    HW220669   5.460   5.533   0.375
 6258SOL     OW20670   7.453  14.522   4.194
 6258SOL    HW120671   7.438  14.617   4.193
 6258SOL    HW220672   7.433  14.495   4.104
 6259SOL     OW20673   0.503   4.464  12.990
 6259SOL    HW120674   0.441   4.413  13.041
 6259SOL    HW220675   0.549   4.400  12.936
 6260SOL     OW20676   6.897  13.558   4.882
 6260SOL    HW120677   6.955  13.530   4.811
 6260SOL    HW220678   6.810  13.559   4.842
 6261SOL     OW20679  10.750   3.438   4.461
 6261SOL    HW120680  10.663   3.440   4.420
 6261SOL    HW220681  10.739   3.384   4.539
 6262SOL     OW20682  12.493   5.032  14.089
 6262SOL    HW120683  12.424   5.033  14.023
 6262SOL    HW220684  12.506   5.124  14.111
 6263SOL     OW20685   9.658  10.236   5.670
 6263SOL    HW120686   9.687  10.243   5.761
 6263SOL    HW220687   9.602  10.312   5.656
 6264SOL     OW20688  12.748   0.909   3.658
 6264SOL    HW120689  12.690   0.970   3.611
 6264SOL    HW220690  12.830   0.912   3.610
 6265SOL     OW20691  10.440   1.807   6.095
 6265SOL    HW120692  10.437   1.893   6.054
 6265SOL    HW220693  10.355   1.799   6.139
 6266SOL     OW20694  12.981  12.329  11.581
 6266SOL    HW120695  12.896  12.361  11.611
 6266SOL    HW220696  12.974  12.332  11.485
 6267SOL     OW20697   9.041   7.526  11.062
 6267SOL    HW120698   9.048   7.607  11.013
 6267SOL    HW220699   8.957   7.488  11.034
 6268SOL     OW20700  11.334  10.420   7.874
 6268SOL    HW120701  11.393  10.370   7.930
 6268SOL    HW220702  11.270  10.357   7.843
 6269SOL     OW20703  11.448   9.810  11.282
 6269SOL    HW120704  11.395   9.733  11.301
 6269SOL    HW220705  11.452   9.814  11.186
 6270SOL     OW20706  11.501   8.290   2.317
 6270SOL    HW120707  11.407   8.275   2.318
 6270SOL    HW220708  11.524   8.311   2.407
 6271SOL     OW20709   3.035  13.702   2.141
 6271SOL    HW120710   3.055  13.773   2.079
 6271SOL    HW220711   2.974  13.646   2.094
 6272SOL     OW20712   4.570   0.982  12.312
 6272SOL    HW120713   4.491   0.975  12.259
 6272SOL    HW220714   4.635   0.928  12.267
 6273SOL     OW20715   9.670   8.129  14.765
 6273SOL    HW120716   9.747   8.130  14.709
 6273SOL    HW220717   9.701   8.162  14.849
 6274SOL     OW20718   6.804   6.092   5.346
 6274SOL    HW120719   6.712   6.116   5.333
 6274SOL    HW220720   6.829   6.049   5.264
 6275SOL     OW20721   8.644   6.963  11.147
 6275SOL    HW120722   8.736   6.938  11.157
 6275SOL    HW220723   8.630   6.964  11.052
 6276SOL     OW20724   3.454  13.471   4.972
 6276SOL    HW120725   3.395  13.462   5.047
 6276SOL    HW220726   3.510  13.545   4.995
 6277SOL     OW20727   1.612   6.801   7.887
 6277SOL    HW120728   1.537   6.795   7.946
 6277SOL    HW220729   1.652   6.714   7.890
 6278SOL     OW20730   9.626  13.606  14.866
 6278SOL    HW120731   9.570  13.669   0.030
 6278SOL    HW220732   9.668  13.656  14.796
 6279SOL     OW20733   7.547   4.122   0.711
 6279SOL    HW120734   7.512   4.053   0.767
 6279SOL    HW220735   7.642   4.119   0.724
 6280SOL     OW20736  12.290   7.086   7.065
 6280SOL    HW120737  12.345   7.147   7.115
 6280SOL    HW220738  12.248   7.031   7.131
 6281SOL     OW20739  14.777  11.237   2.425
 6281SOL    HW120740  14.685  11.254   2.443
 6281SOL    HW220741  14.793  11.148   2.458
 6282SOL     OW20742  13.748   6.120   3.297
 6282SOL    HW120743  13.689   6.061   3.346
 6282SOL    HW220744  13.800   6.163   3.365
 6283SOL     OW20745  13.881  13.206   6.160
 6283SOL    HW120746  13.849  13.274   6.218
 6283SOL    HW220747  13.856  13.234   6.072
 6284SOL     OW20748  11.393  13.993   9.114
 6284SOL    HW120749  11.365  14.071   9.161
 6284SOL    HW220750  11.351  13.921   9.161
 6285SOL     OW20751   9.876   2.458   4.851
 6285SOL    HW120752   9.837   2.426   4.933
 6285SOL    HW220753   9.872   2.383   4.792
 6286SOL     OW20754  11.207   4.807  11.234
 6286SOL    HW120755  11.233   4.715  11.230
 6286SOL    HW220756  11.254   4.848  11.162
 6287SOL     OW20757  10.134   6.807   4.733
 6287SOL    HW120758  10.226   6.832   4.736
 6287SOL    HW220759  10.098   6.836   4.817
 6288SOL     OW20760   5.290   2.326  11.020
 6288SOL    HW120761   5.237   2.282  11.087
 6288SOL    HW220762   5.380   2.313  11.049
 6289SOL     OW20763  10.754  14.595  14.125
 6289SOL    HW120764  10.807  14.516  14.124
 6289SOL    HW220765  10.666  14.564  14.146
 6290SOL     OW20766   5.101   4.954   3.478
 6290SOL    HW120767   5.181   4.904   3.494
 6290SOL    HW220768   5.091   4.953   3.382
 6291SOL     OW20769   7.650   7.338  11.992
 6291SOL    HW120770   7.714   7.347  12.062
 6291SOL    HW220771   7.618   7.427  11.978
 6292SOL     OW20772   6.019   3.814  14.820
 6292SOL    HW120773   6.091   3.765  14.781
 6292SOL    HW220774   5.945   3.753  14.819
 6293SOL     OW20775  11.674   9.766  14.513
 6293SOL    HW120776  11.768   9.758  14.531
 6293SOL    HW220777  11.642   9.676  14.514
 6294SOL     OW20778   0.904   9.039   0.527
 6294SOL    HW120779   0.839   8.981   0.486
 6294SOL    HW220780   0.935   8.990   0.603
 6295SOL     OW20781  13.739   6.962  10.295
 6295SOL    HW120782  13.657   7.011  10.305
 6295SOL    HW220783  13.758   6.967  10.202
 6296SOL     OW20784  13.469   4.353   2.020
 6296SOL    HW120785  13.427   4.346   2.106
 6296SOL    HW220786  13.403   4.397   1.966
 6297SOL     OW20787   2.345   3.691   0.275
 6297SOL    HW120788   2.402   3.764   0.299
 6297SOL    HW220789   2.402   3.629   0.230
 6298SOL     OW20790   1.459   6.625  11.992
 6298SOL    HW120791   1.365   6.615  11.982
 6298SOL    HW220792   1.480   6.706  11.946
 6299SOL     OW20793   4.825  13.438   1.977
 6299SOL    HW120794   4.754  13.461   1.917
 6299SOL    HW220795   4.801  13.351   2.009
 6300SOL     OW20796   2.284  11.847  11.963
 6300SOL    HW120797   2.333  11.909  11.909
 6300SOL    HW220798   2.345  11.822  12.032
 6301SOL     OW20799   4.735   6.279   7.702
 6301SOL    HW120800   4.736   6.303   7.794
 6301SOL    HW220801   4.815   6.227   7.689
 6302SOL     OW20802   3.467   2.142   8.668
 6302SOL    HW120803   3.494   2.138   8.759
 6302SOL    HW220804   3.406   2.069   8.658
 6303SOL     OW20805  11.078   0.233  12.548
 6303SOL    HW120806  11.084   0.325  12.523
 6303SOL    HW220807  11.026   0.192  12.479
 6304SOL     OW20808  13.101   6.951  13.604
 6304SOL    HW120809  13.104   6.921  13.695
 6304SOL    HW220810  13.093   6.871  13.553
 6305SOL     OW20811  11.921   1.485   1.190
 6305SOL    HW120812  11.977   1.506   1.265
 6305SOL    HW220813  11.833   1.507   1.220
 6306SOL     OW20814  13.542  13.302   6.040
 6306SOL    HW120815  13.518  13.346   5.958
 6306SOL    HW220816  13.598  13.229   6.013
 6307SOL     OW20817   2.792  10.274  11.958
 6307SOL    HW120818   2.877  10.306  11.986
 6307SOL    HW220819   2.790  10.291  11.864
 6308SOL     OW20820   2.882   1.164  11.894
 6308SOL    HW120821   2.899   1.241  11.948
 6308SOL    HW220822   2.815   1.115  11.942
 6309SOL     OW20823  14.170  12.947   3.537
 6309SOL    HW120824  14.101  12.887   3.513
 6309SOL    HW220825  14.172  13.012   3.466
 6310SOL     OW20826  13.259  13.853  14.639
 6310SOL    HW120827  13.174  13.810  14.626
 6310SOL    HW220828  13.304  13.843  14.555
 6311SOL     OW20829   9.640   5.695   4.937
 6311SOL    HW120830   9.664   5.788   4.940
 6311SOL    HW220831   9.627   5.670   5.028
 6312SOL     OW20832   4.675  10.405   7.334
 6312SOL    HW120833   4.738  10.371   7.397
 6312SOL    HW220834   4.626  10.328   7.306
 6313SOL     OW20835   3.581   4.308   3.039
 6313SOL    HW120836   3.594   4.365   3.115
 6313SOL    HW220837   3.544   4.227   3.075
 6314SOL     OW20838   1.839  10.862  10.262
 6314SOL    HW120839   1.769  10.902  10.313
 6314SOL    HW220840   1.847  10.774  10.298
 6315SOL     OW20841   1.088  14.202   0.953
 6315SOL    HW120842   1.114  14.111   0.967
 6315SOL    HW220843   1.053  14.204   0.864
 6316SOL     OW20844   5.445   6.065  13.847
 6316SOL    HW120845   5.383   6.137  13.857
 6316SOL    HW220846   5.509   6.098  13.783
 6317SOL     OW20847  13.836  10.995  10.230
 6317SOL    HW120848  13.876  10.979  10.144
 6317SOL    HW220849  13.742  10.983  10.214
 6318SOL     OW20850   2.355   7.997   7.059
 6318SOL    HW120851   2.372   7.955   6.975
 6318SOL    HW220852   2.265   7.975   7.080
 6319SOL     OW20853   2.151   8.655   8.101
 6319SOL    HW120854   2.162   8.726   8.164
 6319SOL    HW220855   2.185   8.690   8.018
 6320SOL     OW20856   0.860  11.468  13.915
 6320SOL    HW120857   0.804  11.394  13.937
 6320SOL    HW220858   0.853  11.527  13.990
 6321SOL     OW20859  11.656  11.309   1.055
 6321SOL    HW120860  11.642  11.215   1.046
 6321SOL    HW220861  11.568  11.345   1.070
 6322SOL     OW20862   0.157  13.594  13.548
 6322SOL    HW120863   0.062  13.604  13.563
 6322SOL    HW220864   0.166  13.509  13.506
 6323SOL     OW20865  10.641   8.795  13.818
 6323SOL    HW120866  10.730   8.789  13.783
 6323SOL    HW220867  10.602   8.709  13.799
 6324SOL     OW20868  10.975   3.626   3.178
 6324SOL    HW120869  10.882   3.646   3.183
 6324SOL    HW220870  10.986   3.584   3.092
 6325SOL     OW20871   1.782   9.518   1.310
 6325SOL    HW120872   1.710   9.555   1.258
 6325SOL    HW220873   1.824   9.594   1.351
 6326SOL     OW20874  12.523   7.617   0.220
 6326SOL    HW120875  12.609   7.592   0.186
 6326SOL    HW220876  12.537   7.634   0.313
 6327SOL     OW20877  14.590   4.739  13.284
 6327SOL    HW120878  14.578   4.645  13.269
 6327SOL    HW220879  14.518   4.780  13.236
 6328SOL     OW20880   7.806   0.190  13.853
 6328SOL    HW120881   7.778   0.255  13.788
 6328SOL    HW220882   7.828   0.241  13.930
 6329SOL     OW20883   9.465   2.817  10.561
 6329SOL    HW120884   9.539   2.818  10.500
 6329SOL    HW220885   9.394   2.860  10.513
 6330SOL     OW20886  13.142  11.796   6.138
 6330SOL    HW120887  13.235  11.798   6.157
 6330SOL    HW220888  13.106  11.732   6.200
 6331SOL     OW20889  10.638   4.293   2.665
 6331SOL    HW120890  10.566   4.235   2.642
 6331SOL    HW220891  10.596   4.370   2.704
 6332SOL     OW20892  12.299  12.847   6.442
 6332SOL    HW120893  12.243  12.894   6.381
 6332SOL    HW220894  12.239  12.800   6.500
 6333SOL     OW20895   5.410   7.666   9.238
 6333SOL    HW120896   5.387   7.736   9.176
 6333SOL    HW220897   5.467   7.608   9.188
 6334SOL     OW20898   0.345   4.065   9.656
 6334SOL    HW120899   0.335   4.160   9.659
 6334SOL    HW220900   0.410   4.050   9.587
 6335SOL     OW20901   5.213   5.051   8.724
 6335SOL    HW120902   5.266   5.128   8.704
 6335SOL    HW220903   5.142   5.053   8.661
 6336SOL     OW20904  13.995  13.433   7.235
 6336SOL    HW120905  14.068  13.495   7.232
 6336SOL    HW220906  13.987  13.400   7.146
 6337SOL     OW20907  10.103  10.881   0.670
 6337SOL    HW120908  10.051  10.900   0.592
 6337SOL    HW220909  10.131  10.790   0.659
 6338SOL     OW20910   2.576   6.887  10.811
 6338SOL    HW120911   2.499   6.851  10.769
 6338SOL    HW220912   2.607   6.818  10.869
 6339SOL     OW20913  14.851   3.172  13.718
 6339SOL    HW120914  14.860   3.267  13.732
 6339SOL    HW220915   0.046   3.149  13.663
 6340SOL     OW20916   0.937   1.921   6.178
 6340SOL    HW120917   0.998   1.850   6.200
 6340SOL    HW220918   0.934   1.921   6.082
 6341SOL     OW20919  11.604   0.869  13.900
 6341SOL    HW120920  11.686   0.899  13.860
 6341SOL    HW220921  11.571   0.946  13.947
 6342SOL     OW20922   2.966  12.037   4.470
 6342SOL    HW120923   2.945  11.947   4.495
 6342SOL    HW220924   2.886  12.071   4.429
 6343SOL     OW20925  13.336   7.764  13.163
 6343SOL    HW120926  13.326   7.835  13.100
 6343SOL    HW220927  13.336   7.685  13.109
 6344SOL     OW20928   4.766  11.186   6.299
 6344SOL    HW120929   4.697  11.126   6.269
 6344SOL    HW220930   4.787  11.238   6.222
 6345SOL     OW20931  11.094   8.915  12.619
 6345SOL    HW120932  11.150   8.838  12.624
 6345SOL    HW220933  11.133   8.977  12.679
 6346SOL     OW20934   8.609   8.203  10.331
 6346SOL    HW120935   8.653   8.118  10.331
 6346SOL    HW220936   8.664   8.258  10.274
 6347SOL     OW20937   3.827   1.978   0.422
 6347SOL    HW120938   3.916   1.981   0.387
 6347SOL    HW220939   3.773   2.017   0.353
 6348SOL     OW20940   5.968  13.925   7.777
 6348SOL    HW120941   5.958  13.838   7.815
 6348SOL    HW220942   5.964  13.911   7.683
 6349SOL     OW20943   5.293  13.630   4.484
 6349SOL    HW120944   5.353  13.569   4.439
 6349SOL    HW220945   5.270  13.586   4.565
 6350SOL     OW20946   7.091   6.821   2.402
 6350SOL    HW120947   7.093   6.895   2.342
 6350SOL    HW220948   7.149   6.756   2.363
 6351SOL     OW20949  13.153   6.330  10.582
 6351SOL    HW120950  13.224   6.272  10.559
 6351SOL    HW220951  13.159   6.402  10.519
 6352SOL     OW20952   1.169  10.195  13.639
 6352SOL    HW120953   1.170  10.241  13.723
 6352SOL    HW220954   1.260  10.170  13.624
 6353SOL     OW20955   3.965   7.203   8.696
 6353SOL    HW120956   3.980   7.217   8.790
 6353SOL    HW220957   4.029   7.137   8.671
 6354SOL     OW20958  13.394   9.275   5.796
 6354SOL    HW120959  13.362   9.365   5.791
 6354SOL    HW220960  13.354   9.231   5.721
 6355SOL     OW20961  10.871   0.275   2.583
 6355SOL    HW120962  10.788   0.320   2.594
 6355SOL    HW220963  10.924   0.335   2.530
 6356SOL     OW20964   8.488   4.330   3.594
 6356SOL    HW120965   8.554   4.395   3.568
 6356SOL    HW220966   8.464   4.356   3.683
 6357SOL     OW20967  14.025   3.571   9.525
 6357SOL    HW120968  14.092   3.636   9.548
 6357SOL    HW220969  13.960   3.621   9.476
 6358SOL     OW20970   9.428   6.925   3.006
 6358SOL    HW120971   9.369   6.997   3.026
 6358SOL    HW220972   9.373   6.847   3.006
 6359SOL     OW20973  11.286  14.839  14.566
 6359SOL    HW120974  11.360  14.855  14.625
 6359SOL    HW220975  11.323  14.790  14.493
 6360SOL     OW20976   0.503   6.889   6.118
 6360SOL    HW120977   0.577   6.871   6.175
 6360SOL    HW220978   0.489   6.983   6.125
 6361SOL     OW20979   7.661  13.916   1.974
 6361SOL    HW120980   7.662  13.943   2.065
 6361SOL    HW220981   7.747  13.942   1.940
 6362SOL     OW20982   9.601   2.934   9.770
 6362SOL    HW120983   9.572   2.919   9.860
 6362SOL    HW220984   9.697   2.940   9.776
 6363SOL     OW20985   9.877   8.930   7.364
 6363SOL    HW120986   9.794   8.883   7.366
 6363SOL    HW220987   9.866   9.002   7.426
 6364SOL     OW20988   7.856   6.561   9.947
 6364SOL    HW120989   7.783   6.592  10.000
 6364SOL    HW220990   7.847   6.608   9.864
 6365SOL     OW20991   0.767  14.127   7.471
 6365SOL    HW120992   0.863  14.120   7.475
 6365SOL    HW220993   0.739  14.121   7.562
 6366SOL     OW20994   1.684  12.483   3.123
 6366SOL    HW120995   1.595  12.511   3.146
 6366SOL    HW220996   1.740  12.524   3.189
 6367SOL     OW20997   8.983   9.564   6.664
 6367SOL    HW120998   8.934   9.627   6.611
 6367SOL    HW220999   9.062   9.547   6.613
 6368SOL     OW21000   3.040   5.781  13.188
 6368SOL    HW121001   3.093   5.860  13.191
 6368SOL    HW221002   3.096   5.714  13.228
 6369SOL     OW21003   3.541   2.591   6.930
 6369SOL    HW121004   3.541   2.585   6.835
 6369SOL    HW221005   3.586   2.674   6.949
 6370SOL     OW21006   9.876   7.817   7.436
 6370SOL    HW121007   9.901   7.740   7.486
 6370SOL    HW221008   9.815   7.784   7.370
 6371SOL     OW21009   6.793  13.946   2.788
 6371SOL    HW121010   6.731  13.960   2.859
 6371SOL    HW221011   6.756  13.874   2.736
 6372SOL     OW21012  13.755   2.124   6.555
 6372SOL    HW121013  13.752   2.042   6.506
 6372SOL    HW221014  13.698   2.110   6.630
 6373SOL     OW21015   3.507   3.690   2.731
 6373SOL    HW121016   3.497   3.710   2.824
 6373SOL    HW221017   3.509   3.594   2.728
 6374SOL     OW21018   5.487  12.283   1.471
 6374SOL    HW121019   5.451  12.212   1.418
 6374SOL    HW221020   5.496  12.356   1.411
 6375SOL     OW21021   7.541  12.601  10.403
 6375SOL    HW121022   7.495  12.517  10.403
 6375SOL    HW221023   7.634  12.577  10.409
 6376SOL     OW21024   4.300  10.966   1.316
 6376SOL    HW121025   4.223  11.023   1.316
 6376SOL    HW221026   4.264  10.877   1.318
 6377SOL     OW21027   9.660   7.269   8.333
 6377SOL    HW121028   9.595   7.322   8.378
 6377SOL    HW221029   9.729   7.332   8.308
 6378SOL     OW21030   5.814   1.234   2.192
 6378SOL    HW121031   5.758   1.270   2.261
 6378SOL    HW221032   5.759   1.172   2.145
 6379SOL     OW21033  12.682   2.409  10.760
 6379SOL    HW121034  12.732   2.401  10.679
 6379SOL    HW221035  12.615   2.475  10.741
 6380SOL     OW21036   0.981   7.589   1.782
 6380SOL    HW121037   0.942   7.634   1.857
 6380SOL    HW221038   1.075   7.591   1.798
 6381SOL     OW21039  11.518   4.344  10.015
 6381SOL    HW121040  11.557   4.258  10.000
 6381SOL    HW221041  11.476   4.367   9.932
 6382SOL     OW21042  10.420   2.130  13.904
 6382SOL    HW121043  10.466   2.097  13.981
 6382SOL    HW221044  10.420   2.057  13.842
 6383SOL     OW21045   5.125  11.917  11.695
 6383SOL    HW121046   5.111  11.914  11.789
 6383SOL    HW221047   5.056  11.974  11.662
 6384SOL     OW21048   4.357   7.727   4.708
 6384SOL    HW121049   4.305   7.672   4.649
 6384SOL    HW221050   4.293   7.786   4.748
 6385SOL     OW21051   9.332  14.674   3.276
 6385SOL    HW121052   9.264  14.609   3.291
 6385SOL    HW221053   9.288  14.744   3.227
 6386SOL     OW21054   1.039   7.359   1.030
 6386SOL    HW121055   1.083   7.425   1.084
 6386SOL    HW221056   0.953   7.397   1.011
 6387SOL     OW21057   9.237  14.280  12.512
 6387SOL    HW121058   9.244  14.233  12.595
 6387SOL    HW221059   9.310  14.343  12.514
 6388SOL     OW21060  10.195  11.219   5.508
 6388SOL    HW121061  10.238  11.151   5.561
 6388SOL    HW221062  10.191  11.295   5.566
 6389SOL     OW21063  10.406  10.661   7.185
 6389SOL    HW121064  10.496  10.668   7.216
 6389SOL    HW221065  10.414  10.648   7.090
 6390SOL     OW21066  10.900  10.361   3.817
 6390SOL    HW121067  10.880  10.451   3.788
 6390SOL    HW221068  10.969  10.332   3.757
 6391SOL     OW21069  10.457   9.773   9.847
 6391SOL    HW121070  10.393   9.768   9.776
 6391SOL    HW221071  10.409   9.746   9.925
 6392SOL     OW21072   8.361   1.386  12.142
 6392SOL    HW121073   8.292   1.343  12.193
 6392SOL    HW221074   8.357   1.477  12.169
 6393SOL     OW21075  11.851  12.651   9.441
 6393SOL    HW121076  11.923  12.659   9.378
 6393SOL    HW221077  11.876  12.708   9.513
 6394SOL     OW21078   2.096  14.829   8.283
 6394SOL    HW121079   2.112  14.744   8.325
 6394SOL    HW221080   2.104  14.810   8.189
 6395SOL     OW21081  12.721   1.161  11.874
 6395SOL    HW121082  12.813   1.142  11.891
 6395SOL    HW221083  12.714   1.165  11.778
 6396SOL     OW21084  10.955   9.836  10.658
 6396SOL    HW121085  11.009   9.771  10.613
 6396SOL    HW221086  10.922   9.893  10.588
 6397SOL     OW21087   3.807   3.252   3.015
 6397SOL    HW121088   3.713   3.266   3.006
 6397SOL    HW221089   3.821   3.162   2.987
 6398SOL     OW21090  14.374  11.050   7.816
 6398SOL    HW121091  14.398  11.119   7.755
 6398SOL    HW221092  14.416  10.971   7.782
 6399SOL     OW21093  10.032  11.041  11.057
 6399SOL    HW121094  10.111  11.091  11.075
 6399SOL    HW221095   9.974  11.104  11.013
 6400SOL     OW21096   9.317   0.167  10.452
 6400SOL    HW121097   9.391   0.219  10.484
 6400SOL    HW221098   9.343   0.140  10.364
 6401SOL     OW21099   4.156   1.724  12.095
 6401SOL    HW121100   4.179   1.633  12.074
 6401SOL    HW221101   4.237   1.763  12.127
 6402SOL     OW21102  11.965   7.899   4.569
 6402SOL    HW121103  12.011   7.961   4.626
 6402SOL    HW221104  11.981   7.814   4.609
 6403SOL     OW21105   9.123   4.473   3.288
 6403SOL    HW121106   9.069   4.509   3.358
 6403SOL    HW221107   9.192   4.424   3.333
 6404SOL     OW21108  12.926  13.135  14.191
 6404SOL    HW121109  12.963  13.142  14.102
 6404SOL    HW221110  12.979  13.067  14.233
 6405SOL     OW21111   6.685   2.753   2.986
 6405SOL    HW121112   6.781   2.752   2.985
 6405SOL    HW221113   6.660   2.696   2.914
 6406SOL     OW21114   1.986   4.797   0.920
 6406SOL    HW121115   2.071   4.839   0.933
 6406SOL    HW221116   1.943   4.802   1.005
 6407SOL     OW21117  10.142  12.617  11.796
 6407SOL    HW121118  10.047  12.614  11.790
 6407SOL    HW221119  10.164  12.710  11.797
 6408SOL     OW21120   3.001   1.740   3.468
 6408SOL    HW121121   2.989   1.680   3.394
 6408SOL    HW221122   3.004   1.827   3.428
 6409SOL     OW21123   4.190   4.747   7.925
 6409SOL    HW121124   4.177   4.792   8.008
 6409SOL    HW221125   4.163   4.657   7.942
 6410SOL     OW21126  14.312   2.838   8.901
 6410SOL    HW121127  14.273   2.919   8.933
 6410SOL    HW221128  14.266   2.769   8.948
 6411SOL     OW21129   9.243   7.055   5.228
 6411SOL    HW121130   9.326   7.068   5.274
 6411SOL    HW221131   9.261   6.982   5.168
 6412SOL     OW21132   9.858   7.986   2.385
 6412SOL    HW121133   9.811   8.060   2.347
 6412SOL    HW221134   9.945   7.990   2.344
 6413SOL     OW21135  12.624  10.728   6.481
 6413SOL    HW121136  12.661  10.668   6.546
 6413SOL    HW221137  12.540  10.688   6.456
 6414SOL     OW21138   2.642   8.381  10.093
 6414SOL    HW121139   2.591   8.460  10.072
 6414SOL    HW221140   2.657   8.339  10.008
 6415SOL     OW21141   9.343   0.978   4.258
 6415SOL    HW121142   9.334   1.054   4.201
 6415SOL    HW221143   9.420   0.997   4.312
 6416SOL     OW21144   5.541   4.058   6.466
 6416SOL    HW121145   5.628   4.032   6.496
 6416SOL    HW221146   5.484   4.043   6.542
 6417SOL     OW21147  11.169   9.965   4.389
 6417SOL    HW121148  11.226  10.009   4.453
 6417SOL    HW221149  11.100   9.927   4.442
 6418SOL     OW21150   7.735   7.663   9.775
 6418SOL    HW121151   7.802   7.594   9.770
 6418SOL    HW221152   7.670   7.627   9.836
 6419SOL     OW21153   8.523   7.847   8.038
 6419SOL    HW121154   8.495   7.936   8.018
 6419SOL    HW221155   8.465   7.819   8.108
 6420SOL     OW21156   8.327   2.841  11.725
 6420SOL    HW121157   8.257   2.807  11.670
 6420SOL    HW221158   8.383   2.765  11.741
 6421SOL     OW21159   5.209  12.287   6.157
 6421SOL    HW121160   5.142  12.225   6.187
 6421SOL    HW221161   5.165  12.372   6.158
 6422SOL     OW21162   7.327   3.467  10.732
 6422SOL    HW121163   7.409   3.500  10.694
 6422SOL    HW221164   7.349   3.450  10.824
 6423SOL     OW21165   9.587   1.148   5.074
 6423SOL    HW121166   9.658   1.153   5.138
 6423SOL    HW221167   9.507   1.147   5.127
 6424SOL     OW21168   7.798  10.907   6.615
 6424SOL    HW121169   7.724  10.922   6.674
 6424SOL    HW221170   7.763  10.926   6.528
 6425SOL     OW21171  12.080   9.626   4.195
 6425SOL    HW121172  12.003   9.629   4.251
 6425SOL    HW221173  12.045   9.633   4.106
 6426SOL     OW21174   6.894   0.662   3.230
 6426SOL    HW121175   6.879   0.572   3.259
 6426SOL    HW221176   6.932   0.706   3.306
 6427SOL     OW21177   5.964   8.411   3.934
 6427SOL    HW121178   6.039   8.462   3.903
 6427SOL    HW221179   5.933   8.457   4.012
 6428SOL     OW21180   7.890   6.147  14.577
 6428SOL    HW121181   7.801   6.147  14.612
 6428SOL    HW221182   7.880   6.177  14.487
 6429SOL     OW21183  13.803   6.006   9.925
 6429SOL    HW121184  13.711   6.023   9.903
 6429SOL    HW221185  13.799   5.934   9.988
 6430SOL     OW21186  14.364   8.844   0.817
 6430SOL    HW121187  14.414   8.924   0.832
 6430SOL    HW221188  14.393   8.784   0.885
 6431SOL     OW21189   1.616   7.598   2.373
 6431SOL    HW121190   1.532   7.558   2.350
 6431SOL    HW221191   1.665   7.529   2.417
 6432SOL     OW21192   9.650   8.208   5.895
 6432SOL    HW121193   9.598   8.196   5.974
 6432SOL    HW221194   9.688   8.122   5.877
 6433SOL     OW21195   0.424  14.053   0.276
 6433SOL    HW121196   0.384  13.976   0.236
 6433SOL    HW221197   0.362  14.081   0.343
 6434SOL     OW21198   6.113   7.110  14.068
 6434SOL    HW121199   6.042   7.055  14.102
 6434SOL    HW221200   6.131   7.075  13.981
 6435SOL     OW21201   4.235   7.997  11.433
 6435SOL    HW121202   4.255   8.004  11.526
 6435SOL    HW221203   4.286   7.922  11.403
 6436SOL     OW21204   2.024   9.717  11.306
 6436SOL    HW121205   2.042   9.642  11.363
 6436SOL    HW221206   2.105   9.729  11.256
 6437SOL     OW21207  13.510   1.675   4.103
 6437SOL    HW121208  13.555   1.682   4.186
 6437SOL    HW221209  13.499   1.581   4.089
 6438SOL     OW21210  13.014   8.970  11.529
 6438SOL    HW121211  12.971   9.049  11.562
 6438SOL    HW221212  13.098   9.000  11.495
 6439SOL     OW21213   1.926   4.893  11.149
 6439SOL    HW121214   1.953   4.910  11.239
 6439SOL    HW221215   1.920   4.797  11.143
 6440SOL     OW21216   5.247   8.698   8.912
 6440SOL    HW121217   5.200   8.656   8.840
 6440SOL    HW221218   5.339   8.677   8.896
 6441SOL     OW21219   5.604  11.224  13.419
 6441SOL    HW121220   5.560  11.219  13.503
 6441SOL    HW221221   5.674  11.159  13.424
 6442SOL     OW21222  11.790   8.000  11.829
 6442SOL    HW121223  11.722   8.066  11.844
 6442SOL    HW221224  11.853   8.014  11.900
 6443SOL     OW21225   4.805   0.678  12.102
 6443SOL    HW121226   4.790   0.773  12.107
 6443SOL    HW221227   4.727   0.640  12.143
 6444SOL     OW21228   7.371   4.308   6.297
 6444SOL    HW121229   7.412   4.268   6.374
 6444SOL    HW221230   7.370   4.401   6.316
 6445SOL     OW21231  11.435   2.319   7.337
 6445SOL    HW121232  11.392   2.234   7.326
 6445SOL    HW221233  11.425   2.362   7.253
 6446SOL     OW21234   2.809   3.278   0.483
 6446SOL    HW121235   2.881   3.251   0.426
 6446SOL    HW221236   2.842   3.357   0.527
 6447SOL     OW21237  11.540  14.247   8.339
 6447SOL    HW121238  11.495  14.323   8.375
 6447SOL    HW221239  11.491  14.225   8.260
 6448SOL     OW21240   1.495   4.767   6.659
 6448SOL    HW121241   1.497   4.826   6.583
 6448SOL    HW221242   1.412   4.721   6.651
 6449SOL     OW21243  10.993   7.769   3.749
 6449SOL    HW121244  11.028   7.825   3.679
 6449SOL    HW221245  10.932   7.826   3.797
 6450SOL     OW21246   5.780  12.840   1.313
 6450SOL    HW121247   5.849  12.837   1.246
 6450SOL    HW221248   5.704  12.800   1.271
 6451SOL     OW21249  12.970   4.516   2.949
 6451SOL    HW121250  12.917   4.451   2.902
 6451SOL    HW221251  12.990   4.473   3.033
 6452SOL     OW21252   3.203   5.051   3.244
 6452SOL    HW121253   3.279   5.009   3.204
 6452SOL    HW221254   3.153   5.084   3.169
 6453SOL     OW21255   5.148   6.482   1.166
 6453SOL    HW121256   5.219   6.534   1.127
 6453SOL    HW221257   5.097   6.452   1.091
 6454SOL     OW21258  13.953   1.873   1.369
 6454SOL    HW121259  14.029   1.849   1.421
 6454SOL    HW221260  13.980   1.953   1.323
 6455SOL     OW21261   5.532   1.463   1.626
 6455SOL    HW121262   5.614   1.512   1.624
 6455SOL    HW221263   5.486   1.496   1.703
 6456SOL     OW21264   8.473  10.976   8.884
 6456SOL    HW121265   8.400  10.972   8.822
 6456SOL    HW221266   8.532  10.907   8.856
 6457SOL     OW21267   2.019  11.700   9.679
 6457SOL    HW121268   2.036  11.794   9.681
 6457SOL    HW221269   1.993  11.682   9.588
 6458SOL     OW21270   9.101   6.123  11.098
 6458SOL    HW121271   9.111   6.030  11.118
 6458SOL    HW221272   9.089   6.165  11.183
 6459SOL     OW21273   6.956  14.860  13.625
 6459SOL    HW121274   7.001   0.060  13.599
 6459SOL    HW221275   6.865   0.005  13.633
 6460SOL     OW21276   9.048   9.507   1.181
 6460SOL    HW121277   8.986   9.446   1.141
 6460SOL    HW221278   9.051   9.581   1.121
 6461SOL     OW21279   3.058  10.731  11.182
 6461SOL    HW121280   3.102  10.701  11.261
 6461SOL    HW221281   3.128  10.771  11.130
 6462SOL     OW21282  12.359   7.473   2.219
 6462SOL    HW121283  12.265   7.475   2.203
 6462SOL    HW221284  12.382   7.380   2.218
 6463SOL     OW21285  14.460  13.960   9.231
 6463SOL    HW121286  14.546  13.983   9.268
 6463SOL    HW221287  14.479  13.891   9.168
 6464SOL     OW21288  14.238   0.210   8.424
 6464SOL    HW121289  14.186   0.281   8.386
 6464SOL    HW221290  14.175   0.155   8.470
 6465SOL     OW21291  13.986   7.610   2.292
 6465SOL    HW121292  14.002   7.675   2.360
 6465SOL    HW221293  14.071   7.602   2.246
 6466SOL     OW21294   1.668   2.773  12.263
 6466SOL    HW121295   1.685   2.727  12.181
 6466SOL    HW221296   1.715   2.856  12.255
 6467SOL     OW21297   4.665   8.993   2.546
 6467SOL    HW121298   4.739   9.051   2.530
 6467SOL    HW221299   4.630   9.021   2.630
 6468SOL     OW21300   0.261   1.229   3.715
 6468SOL    HW121301   0.170   1.249   3.696
 6468SOL    HW221302   0.277   1.263   3.803
 6469SOL     OW21303  11.658   4.522   4.024
 6469SOL    HW121304  11.750   4.502   4.007
 6469SOL    HW221305  11.653   4.535   4.118
 6470SOL     OW21306   7.125   4.401   4.951
 6470SOL    HW121307   7.049   4.405   5.008
 6470SOL    HW221308   7.171   4.322   4.978
 6471SOL     OW21309   5.959  13.731   4.221
 6471SOL    HW121310   5.865  13.745   4.235
 6471SOL    HW221311   5.983  13.796   4.155
 6472SOL     OW21312  10.674  12.912  14.809
 6472SOL    HW121313  10.652  12.890  14.718
 6472SOL    HW221314  10.589  12.914  14.854
 6473SOL     OW21315  14.866   8.988   4.212
 6473SOL    HW121316   0.012   9.073   4.178
 6473SOL    HW221317  14.777   8.975   4.179
 6474SOL     OW21318  10.242  13.002  14.691
 6474SOL    HW121319  10.299  12.941  14.737
 6474SOL    HW221320  10.257  13.086  14.733
 6475SOL     OW21321   4.363   9.232   1.340
 6475SOL    HW121322   4.392   9.186   1.261
 6475SOL    HW221323   4.353   9.323   1.312
 6476SOL     OW21324   9.003   9.964  11.838
 6476SOL    HW121325   9.032  10.021  11.766
 6476SOL    HW221326   9.044  10.002  11.916
 6477SOL     OW21327  13.827   1.882  11.013
 6477SOL    HW121328  13.862   1.915  10.930
 6477SOL    HW221329  13.902   1.839  11.055
 6478SOL     OW21330   9.279  13.305   8.233
 6478SOL    HW121331   9.231  13.350   8.163
 6478SOL    HW221332   9.290  13.215   8.200
 6479SOL     OW21333   8.171   5.942   9.098
 6479SOL    HW121334   8.105   5.878   9.074
 6479SOL    HW221335   8.141   5.978   9.181
 6480SOL     OW21336   2.184   3.093   3.972
 6480SOL    HW121337   2.131   3.128   3.901
 6480SOL    HW221338   2.198   3.168   4.030
 6481SOL     OW21339   0.692   8.244  10.911
 6481SOL    HW121340   0.757   8.195  10.861
 6481SOL    HW221341   0.740   8.276  10.988
 6482SOL     OW21342   7.750  12.162   5.065
 6482SOL    HW121343   7.845  12.147   5.063
 6482SOL    HW221344   7.741  12.257   5.054
 6483SOL     OW21345  14.353   7.999   8.061
 6483SOL    HW121346  14.386   7.937   7.996
 6483SOL    HW221347  14.316   7.945   8.130
 6484SOL     OW21348   9.098  11.862  13.211
 6484SOL    HW121349   9.022  11.899  13.256
 6484SOL    HW221350   9.069  11.850  13.121
 6485SOL     OW21351   9.782   0.318  11.373
 6485SOL    HW121352   9.734   0.383  11.322
 6485SOL    HW221353   9.768   0.345  11.464
 6486SOL     OW21354  11.719   0.761   2.123
 6486SOL    HW121355  11.754   0.832   2.069
 6486SOL    HW221356  11.629   0.787   2.141
 6487SOL     OW21357   6.615   6.168  13.173
 6487SOL    HW121358   6.581   6.097  13.119
 6487SOL    HW221359   6.591   6.144  13.263
 6488SOL     OW21360   3.206   3.457  14.665
 6488SOL    HW121361   3.199   3.405  14.745
 6488SOL    HW221362   3.296   3.442  14.635
 6489SOL     OW21363   9.188  12.275   3.492
 6489SOL    HW121364   9.225  12.238   3.572
 6489SOL    HW221365   9.264  12.305   3.443
 6490SOL     OW21366   4.373  12.730   8.972
 6490SOL    HW121367   4.290  12.751   8.929
 6490SOL    HW221368   4.425  12.688   8.904
 6491SOL     OW21369   0.778  10.223   8.080
 6491SOL    HW121370   0.703  10.268   8.119
 6491SOL    HW221371   0.751  10.131   8.077
 6492SOL     OW21372   7.169  11.874   8.129
 6492SOL    HW121373   7.095  11.901   8.074
 6492SOL    HW221374   7.162  11.778   8.131
 6493SOL     OW21375   4.937   0.814   1.071
 6493SOL    HW121376   4.897   0.728   1.085
 6493SOL    HW221377   4.935   0.856   1.158
 6494SOL     OW21378   2.161  12.140   9.744
 6494SOL    HW121379   2.077  12.122   9.701
 6494SOL    HW221380   2.172  12.068   9.806
 6495SOL     OW21381   7.652   2.351  11.118
 6495SOL    HW121382   7.609   2.377  11.199
 6495SOL    HW221383   7.600   2.277  11.086
 6496SOL     OW21384   8.024  10.994  14.669
 6496SOL    HW121385   8.066  11.001  14.754
 6496SOL    HW221386   8.006  10.900  14.659
 6497SOL     OW21387  12.311   4.723   7.471
 6497SOL    HW121388  12.222   4.705   7.441
 6497SOL    HW221389  12.362   4.648   7.441
 6498SOL     OW21390   4.524   5.331  10.786
 6498SOL    HW121391   4.580   5.256  10.765
 6498SOL    HW221392   4.474   5.347  10.705
 6499SOL     OW21393   7.238   1.940   0.444
 6499SOL    HW121394   7.282   2.022   0.420
 6499SOL    HW221395   7.229   1.893   0.361
 6500SOL     OW21396  11.884  12.018   4.735
 6500SOL    HW121397  11.946  11.966   4.683
 6500SOL    HW221398  11.911  12.109   4.720
 6501SOL     OW21399  14.866   1.921   2.252
 6501SOL    HW121400   0.039   1.957   2.180
 6501SOL    HW221401  14.844   1.997   2.306
 6502SOL     OW21402  11.811  12.038   6.181
 6502SOL    HW121403  11.823  12.098   6.254
 6502SOL    HW221404  11.898  11.999   6.168
 6503SOL     OW21405  14.530  13.126   3.293
 6503SOL    HW121406  14.473  13.200   3.314
 6503SOL    HW221407  14.554  13.089   3.377
 6504SOL     OW21408  14.604   1.786   2.511
 6504SOL    HW121409  14.593   1.743   2.596
 6504SOL    HW221410  14.610   1.879   2.533
 6505SOL     OW21411   7.281   5.953  14.195
 6505SOL    HW121412   7.216   5.907  14.247
 6505SOL    HW221413   7.365   5.925  14.230
 6506SOL     OW21414   4.269   6.484   7.896
 6506SOL    HW121415   4.315   6.541   7.834
 6506SOL    HW221416   4.179   6.516   7.896
 6507SOL     OW21417   2.607   3.740   9.351
 6507SOL    HW121418   2.625   3.665   9.406
 6507SOL    HW221419   2.583   3.810   9.412
 6508SOL     OW21420   0.673  12.347  11.738
 6508SOL    HW121421   0.629  12.327  11.655
 6508SOL    HW221422   0.755  12.299  11.733
 6509SOL     OW21423  13.405   4.968  13.351
 6509SOL    HW121424  13.457   4.970  13.270
 6509SOL    HW221425  13.462   5.005  13.418
 6510SOL     OW21426   2.244   0.023  11.910
 6510SOL    HW121427   2.334   0.006  11.880
 6510SOL    HW221428   2.231   0.116  11.894
 6511SOL     OW21429   7.663   8.724  12.677
 6511SOL    HW121430   7.689   8.638  12.643
 6511SOL    HW221431   7.568   8.719  12.687
 6512SOL     OW21432   9.816   4.797   6.946
 6512SOL    HW121433   9.822   4.825   6.855
 6512SOL    HW221434   9.733   4.832   6.977
 6513SOL     OW21435  13.079   5.067   4.713
 6513SOL    HW121436  13.078   5.009   4.636
 6513SOL    HW221437  13.059   5.154   4.678
 6514SOL     OW21438   0.036   9.349   7.295
 6514SOL    HW121439  14.860   9.320   7.224
 6514SOL    HW221440  14.877   9.312   7.374
 6515SOL     OW21441  12.100   4.677   3.191
 6515SOL    HW121442  12.130   4.669   3.101
 6515SOL    HW221443  12.168   4.728   3.235
 6516SOL     OW21444  12.961   7.379  13.262
 6516SOL    HW121445  12.932   7.289  13.247
 6516SOL    HW221446  12.886   7.421  13.303
 6517SOL     OW21447   5.640   5.759   9.962
 6517SOL    HW121448   5.690   5.760  10.044
 6517SOL    HW221449   5.551   5.780   9.988
 6518SOL     OW21450   8.352  12.056  10.896
 6518SOL    HW121451   8.367  11.967  10.927
 6518SOL    HW221452   8.294  12.045  10.820
 6519SOL     OW21453   8.573   3.079  14.199
 6519SOL    HW121454   8.661   3.113  14.216
 6519SOL    HW221455   8.572   3.059  14.105
 6520SOL     OW21456   5.291   9.341   1.064
 6520SOL    HW121457   5.280   9.362   0.971
 6520SOL    HW221458   5.385   9.321   1.072
 6521SOL     OW21459   4.410   7.945   0.714
 6521SOL    HW121460   4.489   7.892   0.713
 6521SOL    HW221461   4.387   7.954   0.621
 6522SOL     OW21462   1.331  13.914  11.014
 6522SOL    HW121463   1.346  13.901  11.107
 6522SOL    HW221464   1.258  13.856  10.993
 6523SOL     OW21465  12.247   4.181  11.580
 6523SOL    HW121466  12.198   4.260  11.559
 6523SOL    HW221467  12.320   4.181  11.517
 6524SOL     OW21468   7.965   6.228   0.096
 6524SOL    HW121469   7.918   6.311   0.091
 6524SOL    HW221470   7.902   6.162   0.069
 6525SOL     OW21471   9.957   7.471  14.477
 6525SOL    HW121472   9.904   7.461  14.556
 6525SOL    HW221473   9.906   7.530  14.421
 6526SOL     OW21474   4.582   0.915  13.893
 6526SOL    HW121475   4.563   0.974  13.820
 6526SOL    HW221476   4.501   0.913  13.944
 6527SOL     OW21477   3.632   1.139   5.288
 6527SOL    HW121478   3.563   1.165   5.227
 6527SOL    HW221479   3.713   1.166   5.246
 6528SOL     OW21480   1.696  11.599  13.654
 6528SOL    HW121481   1.640  11.559  13.720
 6528SOL    HW221482   1.638  11.658  13.606
 6529SOL     OW21483  10.663  14.315   1.435
 6529SOL    HW121484  10.632  14.405   1.432
 6529SOL    HW221485  10.594  14.263   1.393
 6530SOL     OW21486   1.475  14.164  11.314
 6530SOL    HW121487   1.561  14.123  11.309
 6530SOL    HW221488   1.486  14.249  11.272
 6531SOL     OW21489  11.755   3.814   5.137
 6531SOL    HW121490  11.769   3.832   5.229
 6531SOL    HW221491  11.773   3.897   5.093
 6532SOL     OW21492  12.872   9.123   3.061
 6532SOL    HW121493  12.833   9.128   2.975
 6532SOL    HW221494  12.803   9.151   3.121
 6533SOL     OW21495  12.709   3.415   7.040
 6533SOL    HW121496  12.636   3.377   6.990
 6533SOL    HW221497  12.787   3.380   6.998
 6534SOL     OW21498   5.245   3.105  14.346
 6534SOL    HW121499   5.241   3.010  14.334
 6534SOL    HW221500   5.185   3.123  14.418
 6535SOL     OW21501   1.378   0.739  13.510
 6535SOL    HW121502   1.423   0.824  13.506
 6535SOL    HW221503   1.285   0.760  13.502
 6536SOL     OW21504   1.106   4.455  11.245
 6536SOL    HW121505   1.170   4.516  11.207
 6536SOL    HW221506   1.158   4.393  11.295
 6537SOL     OW21507  13.636  10.439   5.867
 6537SOL    HW121508  13.614  10.463   5.957
 6537SOL    HW221509  13.686  10.514   5.834
 6538SOL     OW21510   4.228  12.772   6.543
 6538SOL    HW121511   4.183  12.766   6.458
 6538SOL    HW221512   4.168  12.821   6.599
 6539SOL     OW21513  12.104   2.983   3.185
 6539SOL    HW121514  12.198   2.977   3.166
 6539SOL    HW221515  12.095   2.948   3.273
 6540SOL     OW21516  13.634   1.293   7.373
 6540SOL    HW121517  13.608   1.201   7.367
 6540SOL    HW221518  13.669   1.303   7.461
 6541SOL     OW21519  14.345  14.876   7.687
 6541SOL    HW121520  14.318  14.877   7.778
 6541SOL    HW221521  14.305   0.074   7.649
 6542SOL     OW21522  14.583   2.755  10.339
 6542SOL    HW121523  14.521   2.825  10.359
 6542SOL    HW221524  14.532   2.674  10.346
 6543SOL     OW21525  11.683  13.670   4.905
 6543SOL    HW121526  11.642  13.636   4.984
 6543SOL    HW221527  11.724  13.752   4.932
 6544SOL     OW21528   2.948   0.501   8.889
 6544SOL    HW121529   2.902   0.582   8.910
 6544SOL    HW221530   2.964   0.459   8.973
 6545SOL     OW21531   2.498   8.184  14.604
 6545SOL    HW121532   2.402   8.189  14.605
 6545SOL    HW221533   2.525   8.265  14.560
 6546SOL     OW21534   0.239   3.540   8.740
 6546SOL    HW121535   0.329   3.506   8.745
 6546SOL    HW221536   0.222   3.549   8.646
 6547SOL     OW21537   8.104   2.323   5.829
 6547SOL    HW121538   8.140   2.288   5.911
 6547SOL    HW221539   8.012   2.339   5.848
 6548SOL     OW21540   6.893   8.529   5.319
 6548SOL    HW121541   6.887   8.487   5.233
 6548SOL    HW221542   6.944   8.468   5.372
 6549SOL     OW21543   7.835  11.396   5.455
 6549SOL    HW121544   7.816  11.442   5.537
 6549SOL    HW221545   7.755  11.346   5.437
 6550SOL     OW21546   5.860   3.402   1.116
 6550SOL    HW121547   5.794   3.464   1.145
 6550SOL    HW221548   5.878   3.348   1.193
 6551SOL     OW21549   4.898   0.795   8.939
 6551SOL    HW121550   4.825   0.830   8.989
 6551SOL    HW221551   4.881   0.821   8.849
 6552SOL     OW21552   7.489   3.197   4.173
 6552SOL    HW121553   7.548   3.234   4.107
 6552SOL    HW221554   7.521   3.232   4.256
 6553SOL     OW21555  10.149   3.783   7.681
 6553SOL    HW121556  10.069   3.755   7.637
 6553SOL    HW221557  10.160   3.875   7.656
 6554SOL     OW21558   9.122   5.532   8.874
 6554SOL    HW121559   9.164   5.446   8.881
 6554SOL    HW221560   9.151   5.579   8.952
 6555SOL     OW21561   8.880   0.942   9.428
 6555SOL    HW121562   8.956   0.949   9.370
 6555SOL    HW221563   8.881   1.024   9.477
 6556SOL     OW21564  10.344   8.118   8.649
 6556SOL    HW121565  10.313   8.208   8.634
 6556SOL    HW221566  10.430   8.129   8.689
 6557SOL     OW21567   0.615   6.568  14.067
 6557SOL    HW121568   0.667   6.618  14.130
 6557SOL    HW221569   0.531   6.556  14.110
 6558SOL     OW21570   3.730   2.845   8.579
 6558SOL    HW121571   3.733   2.875   8.488
 6558SOL    HW221572   3.670   2.906   8.621
 6559SOL     OW21573  13.389   6.217   0.007
 6559SOL    HW121574  13.479   6.249   0.001
 6559SOL    HW221575  13.388   6.161   0.085
 6560SOL     OW21576  14.283   1.126  11.407
 6560SOL    HW121577  14.355   1.106  11.467
 6560SOL    HW221578  14.250   1.041  11.380
 6561SOL     OW21579  11.283   2.401  12.472
 6561SOL    HW121580  11.250   2.312  12.484
 6561SOL    HW221581  11.232   2.436  12.399
 6562SOL     OW21582   2.194   8.782   6.993
 6562SOL    HW121583   2.289   8.772   6.988
 6562SOL    HW221584   2.168   8.816   6.908
 6563SOL     OW21585   9.475   1.290   3.695
 6563SOL    HW121586   9.431   1.309   3.778
 6563SOL    HW221587   9.413   1.236   3.646
 6564SOL     OW21588  12.886   9.838  13.171
 6564SOL    HW121589  12.898   9.772  13.240
 6564SOL    HW221590  12.873   9.787  13.091
 6565SOL     OW21591  11.246   0.017   1.487
 6565SOL    HW121592  11.254   0.020   1.391
 6565SOL    HW221593  11.312  14.833   1.514
 6566SOL     OW21594   2.385   2.835  11.410
 6566SOL    HW121595   2.338   2.755  11.431
 6566SOL    HW221596   2.462   2.833  11.468
 6567SOL     OW21597   3.910   4.990   7.895
 6567SOL    HW121598   3.894   5.064   7.954
 6567SOL    HW221599   3.995   4.956   7.923
 6568SOL     OW21600   6.123  13.562   0.388
 6568SOL    HW121601   6.087  13.600   0.308
 6568SOL    HW221602   6.148  13.473   0.364
 6569SOL     OW21603   6.975   7.188   0.514
 6569SOL    HW121604   6.955   7.159   0.425
 6569SOL    HW221605   7.019   7.272   0.503
 6570SOL     OW21606   2.438   2.922  14.278
 6570SOL    HW121607   2.400   2.971  14.351
 6570SOL    HW221608   2.406   2.967  14.200
 6571SOL     OW21609   4.242   4.086   8.326
 6571SOL    HW121610   4.289   4.151   8.378
 6571SOL    HW221611   4.235   4.010   8.383
 6572SOL     OW21612   9.810   6.768   5.170
 6572SOL    HW121613   9.767   6.739   5.090
 6572SOL    HW221614   9.751   6.742   5.241
 6573SOL     OW21615   5.497   3.479   5.015
 6573SOL    HW121616   5.455   3.395   5.031
 6573SOL    HW221617   5.495   3.490   4.920
 6574SOL     OW21618   8.458   2.343   4.154
 6574SOL    HW121619   8.546   2.342   4.194
 6574SOL    HW221620   8.471   2.387   4.070
 6575SOL     OW21621  14.697  12.504  13.294
 6575SOL    HW121622  14.663  12.580  13.342
 6575SOL    HW221623  14.759  12.463  13.355
 6576SOL     OW21624  12.714   1.508   0.245
 6576SOL    HW121625  12.773   1.583   0.250
 6576SOL    HW221626  12.762   1.437   0.288
 6577SOL     OW21627   7.891  12.514  10.157
 6577SOL    HW121628   7.830  12.505  10.084
 6577SOL    HW221629   7.972  12.546  10.117
 6578SOL     OW21630   0.139   0.265  10.301
 6578SOL    HW121631   0.155   0.299  10.213
 6578SOL    HW221632   0.166   0.173  10.297
 6579SOL     OW21633   4.869   6.367   3.095
 6579SOL    HW121634   4.963   6.350   3.104
 6579SOL    HW221635   4.854   6.369   3.000
 6580SOL     OW21636   1.556   7.402   7.596
 6580SOL    HW121637   1.552   7.380   7.503
 6580SOL    HW221638   1.468   7.433   7.617
 6581SOL     OW21639   2.278   6.733  10.045
 6581SOL    HW121640   2.363   6.691  10.037
 6581SOL    HW221641   2.258   6.763   9.956
 6582SOL     OW21642  12.943   4.997   7.683
 6582SOL    HW121643  12.920   5.053   7.757
 6582SOL    HW221644  12.869   5.005   7.622
 6583SOL     OW21645   6.952   1.507   2.478
 6583SOL    HW121646   6.997   1.570   2.534
 6583SOL    HW221647   7.017   1.483   2.411
 6584SOL     OW21648   7.797  12.039   8.844
 6584SOL    HW121649   7.875  12.006   8.799
 6584SOL    HW221650   7.797  12.133   8.825
 6585SOL     OW21651   3.437   0.620  10.718
 6585SOL    HW121652   3.404   0.708  10.737
 6585SOL    HW221653   3.495   0.633  10.643
 6586SOL     OW21654   5.782   6.098  13.417
 6586SOL    HW121655   5.738   6.023  13.378
 6586SOL    HW221656   5.875   6.083  13.400
 6587SOL     OW21657  11.792   1.539  14.271
 6587SOL    HW121658  11.788   1.590  14.190
 6587SOL    HW221659  11.873   1.569  14.314
 6588SOL     OW21660   8.804  11.132   9.161
 6588SOL    HW121661   8.735  11.198   9.158
 6588SOL    HW221662   8.872  11.170   9.217
 6589SOL     OW21663  12.335   2.809  12.555
 6589SOL    HW121664  12.391   2.870  12.507
 6589SOL    HW221665  12.393   2.769  12.620
 6590SOL     OW21666   9.943   7.906  13.679
 6590SOL    HW121667   9.909   7.881  13.593
 6590SOL    HW221668  10.016   7.965  13.660
 6591SOL     OW21669   3.149   4.731  14.843
 6591SOL    HW121670   3.089   4.765  14.777
 6591SOL    HW221671   3.111   4.649  14.871
 6592SOL     OW21672  10.760   7.871  13.825
 6592SOL    HW121673  10.803   7.957  13.820
 6592SOL    HW221674  10.702   7.878  13.901
 6593SOL     OW21675   2.091   6.851  12.649
 6593SOL    HW121676   2.051   6.807  12.574
 6593SOL    HW221677   2.182   6.823  12.647
 6594SOL     OW21678   4.457  12.813  14.109
 6594SOL    HW121679   4.430  12.769  14.028
 6594SOL    HW221680   4.390  12.789  14.173
 6595SOL     OW21681  14.332   5.124  13.606
 6595SOL    HW121682  14.240   5.148  13.606
 6595SOL    HW221683  14.368   5.165  13.527
 6596SOL     OW21684   1.408   2.493   3.276
 6596SOL    HW121685   1.394   2.487   3.370
 6596SOL    HW221686   1.380   2.582   3.253
 6597SOL     OW21687   1.107   5.281   9.141
 6597SOL    HW121688   1.137   5.364   9.104
 6597SOL    HW221689   1.159   5.271   9.221
 6598SOL     OW21690   5.128   3.429   1.855
 6598SOL    HW121691   5.179   3.421   1.775
 6598SOL    HW221692   5.047   3.381   1.837
 6599SOL     OW21693  12.993   1.919   3.810
 6599SOL    HW121694  12.987   1.836   3.764
 6599SOL    HW221695  12.904   1.956   3.806
 6600SOL     OW21696   3.701   0.394   5.068
 6600SOL    HW121697   3.794   0.409   5.053
 6600SOL    HW221698   3.697   0.321   5.129
 6601SOL     OW21699  11.877   2.942   4.843
 6601SOL    HW121700  11.788   2.967   4.818
 6601SOL    HW221701  11.929   3.020   4.825
 6602SOL     OW21702   8.686   5.714  13.741
 6602SOL    HW121703   8.701   5.631  13.787
 6602SOL    HW221704   8.665   5.776  13.811
 6603SOL     OW21705   6.874   1.465   5.490
 6603SOL    HW121706   6.924   1.449   5.569
 6603SOL    HW221707   6.935   1.445   5.418
 6604SOL     OW21708  12.827   5.823   0.618
 6604SOL    HW121709  12.808   5.797   0.708
 6604SOL    HW221710  12.902   5.883   0.625
 6605SOL     OW21711   2.541   5.609   5.685
 6605SOL    HW121712   2.481   5.568   5.623
 6605SOL    HW221713   2.525   5.563   5.768
 6606SOL     OW21714   6.949   8.403   4.037
 6606SOL    HW121715   7.019   8.339   4.027
 6606SOL    HW221716   6.871   8.351   4.056
 6607SOL     OW21717   3.640  11.011   9.888
 6607SOL    HW121718   3.735  11.000   9.896
 6607SOL    HW221719   3.614  11.051   9.971
 6608SOL     OW21720   5.083   7.018   9.562
 6608SOL    HW121721   5.139   6.970   9.501
 6608SOL    HW221722   5.047   7.090   9.511
 6609SOL     OW21723  14.181   7.065   4.115
 6609SOL    HW121724  14.178   7.051   4.020
 6609SOL    HW221725  14.228   6.989   4.149
 6610SOL     OW21726   1.854  12.495  11.694
 6610SOL    HW121727   1.782  12.544  11.732
 6610SOL    HW221728   1.815  12.449  11.620
 6611SOL     OW21729  13.785   7.687  12.285
 6611SOL    HW121730  13.752   7.675  12.374
 6611SOL    HW221731  13.707   7.705  12.233
 6612SOL     OW21732   5.224   6.721   9.695
 6612SOL    HW121733   5.192   6.696   9.608
 6612SOL    HW221734   5.291   6.787   9.677
 6613SOL     OW21735   4.843   5.292   7.981
 6613SOL    HW121736   4.905   5.363   7.965
 6613SOL    HW221737   4.825   5.298   8.075
 6614SOL     OW21738  10.746  14.508   1.999
 6614SOL    HW121739  10.661  14.541   1.971
 6614SOL    HW221740  10.734  14.413   2.005
 6615SOL     OW21741   5.978   0.853  12.291
 6615SOL    HW121742   6.060   0.901  12.277
 6615SOL    HW221743   5.915   0.897  12.234
 6616SOL     OW21744  13.090  12.637   3.792
 6616SOL    HW121745  13.080  12.611   3.884
 6616SOL    HW221746  13.033  12.578   3.743
 6617SOL     OW21747   0.671   5.478   2.202
 6617SOL    HW121748   0.712   5.552   2.246
 6617SOL    HW221749   0.745   5.422   2.177
 6618SOL     OW21750   6.021   4.744   0.248
 6618SOL    HW121751   6.052   4.835   0.244
 6618SOL    HW221752   6.095   4.692   0.218
 6619SOL     OW21753   9.249  11.645   5.654
 6619SOL    HW121754   9.285  11.654   5.742
 6619SOL    HW221755   9.314  11.594   5.606
 6620SOL     OW21756   6.200  11.159   9.536
 6620SOL    HW121757   6.145  11.108   9.476
 6620SOL    HW221758   6.254  11.093   9.581
 6621SOL     OW21759   4.332   5.743   7.952
 6621SOL    HW121760   4.421   5.708   7.952
 6621SOL    HW221761   4.326   5.793   8.034
 6622SOL     OW21762  10.157   5.121   0.998
 6622SOL    HW121763  10.206   5.197   0.968
 6622SOL    HW221764  10.070   5.154   1.018
 6623SOL     OW21765   5.671  12.342   6.341
 6623SOL    HW121766   5.607  12.272   6.348
 6623SOL    HW221767   5.727  12.316   6.268
 6624SOL     OW21768   9.595   4.277   5.963
 6624SOL    HW121769   9.566   4.360   5.924
 6624SOL    HW221770   9.676   4.300   6.009
 6625SOL     OW21771  12.205   9.030   8.879
 6625SOL    HW121772  12.130   8.972   8.864
 6625SOL    HW221773  12.197   9.097   8.812
 6626SOL     OW21774   2.179  13.823   4.497
 6626SOL    HW121775   2.270  13.830   4.467
 6626SOL    HW221776   2.145  13.746   4.452
 6627SOL     OW21777   2.205   3.166   6.258
 6627SOL    HW121778   2.256   3.117   6.322
 6627SOL    HW221779   2.243   3.143   6.174
 6628SOL     OW21780   4.163   0.745   1.348
 6628SOL    HW121781   4.172   0.798   1.269
 6628SOL    HW221782   4.157   0.655   1.315
 6629SOL     OW21783  12.822   4.952  13.305
 6629SOL    HW121784  12.914   4.977  13.296
 6629SOL    HW221785  12.789   5.007  13.375
 6630SOL     OW21786   8.334   0.540  14.665
 6630SOL    HW121787   8.296   0.626  14.648
 6630SOL    HW221788   8.289   0.481  14.604
 6631SOL     OW21789   8.958  14.755   3.561
 6631SOL    HW121790   8.972  14.846   3.533
 6631SOL    HW221791   9.031  14.737   3.621
 6632SOL     OW21792   0.043   5.558  14.279
 6632SOL    HW121793  14.860   5.602  14.222
 6632SOL    HW221794   0.122   5.611  14.274
 6633SOL     OW21795  10.511   4.819   6.054
 6633SOL    HW121796  10.592   4.819   6.104
 6633SOL    HW221797  10.528   4.761   5.980
 6634SOL     OW21798   9.231  12.992  13.018
 6634SOL    HW121799   9.225  12.898  13.029
 6634SOL    HW221800   9.326  13.010  13.017
 6635SOL     OW21801   2.295  13.238   4.134
 6635SOL    HW121802   2.202  13.232   4.113
 6635SOL    HW221803   2.327  13.148   4.132
 6636SOL     OW21804  12.475   8.671   1.129
 6636SOL    HW121805  12.543   8.701   1.190
 6636SOL    HW221806  12.465   8.744   1.068
 6637SOL     OW21807  12.559  10.651   1.061
 6637SOL    HW121808  12.627  10.593   1.094
 6637SOL    HW221809  12.542  10.620   0.972
 6638SOL     OW21810  13.536   6.145  11.742
 6638SOL    HW121811  13.453   6.098  11.731
 6638SOL    HW221812  13.511   6.234  11.763
 6639SOL     OW21813   2.340  10.965   2.673
 6639SOL    HW121814   2.250  10.934   2.665
 6639SOL    HW221815   2.332  11.058   2.694
 6640SOL     OW21816   6.314  11.483  11.935
 6640SOL    HW121817   6.372  11.534  11.990
 6640SOL    HW221818   6.351  11.395  11.935
 6641SOL     OW21819   8.579   3.016   0.624
 6641SOL    HW121820   8.653   2.996   0.567
 6641SOL    HW221821   8.565   2.937   0.675
 6642SOL     OW21822   3.097   3.138   6.457
 6642SOL    HW121823   3.142   3.083   6.521
 6642SOL    HW221824   3.095   3.225   6.496
 6643SOL     OW21825  13.124   2.308   1.175
 6643SOL    HW121826  13.042   2.292   1.130
 6643SOL    HW221827  13.188   2.323   1.105
 6644SOL     OW21828  14.150   9.553  11.748
 6644SOL    HW121829  14.072   9.591  11.708
 6644SOL    HW221830  14.124   9.464  11.772
 6645SOL     OW21831  13.228   0.374   9.402
 6645SOL    HW121832  13.237   0.444   9.466
 6645SOL    HW221833  13.134   0.372   9.382
 6646SOL     OW21834   9.967   0.294   3.094
 6646SOL    HW121835   9.908   0.316   3.022
 6646SOL    HW221836   9.996   0.205   3.075
 6647SOL     OW21837  10.277  12.845  13.568
 6647SOL    HW121838  10.221  12.905  13.616
 6647SOL    HW221839  10.224  12.817  13.493
 6648SOL     OW21840  13.512   0.097   1.402
 6648SOL    HW121841  13.445   0.146   1.354
 6648SOL    HW221842  13.582   0.084   1.338
 6649SOL     OW21843   5.918  11.031  10.689
 6649SOL    HW121844   5.992  11.092  10.689
 6649SOL    HW221845   5.910  11.003  10.598
 6650SOL     OW21846   1.741   4.974   3.150
 6650SOL    HW121847   1.693   4.891   3.159
 6650SOL    HW221848   1.787   4.984   3.233
 6651SOL     OW21849   1.116  13.064   9.601
 6651SOL    HW121850   1.096  12.993   9.540
 6651SOL    HW221851   1.101  13.144   9.550
 6652SOL     OW21852   0.327   5.853   6.427
 6652SOL    HW121853   0.294   5.881   6.342
 6652SOL    HW221854   0.311   5.928   6.485
 6653SOL     OW21855   8.073   3.273  14.030
 6653SOL    HW121856   8.146   3.250  13.972
 6653SOL    HW221857   8.106   3.348  14.080
 6654SOL     OW21858  11.446  10.917   2.847
 6654SOL    HW121859  11.412  10.916   2.758
 6654SOL    HW221860  11.538  10.941   2.837
 6655SOL     OW21861  14.717   4.228   4.602
 6655SOL    HW121862  14.646   4.258   4.658
 6655SOL    HW221863  14.729   4.298   4.538
 6656SOL     OW21864   2.735   5.593   2.046
 6656SOL    HW121865   2.788   5.665   2.083
 6656SOL    HW221866   2.777   5.573   1.962
 6657SOL     OW21867   1.391   1.530   9.528
 6657SOL    HW121868   1.357   1.469   9.462
 6657SOL    HW221869   1.331   1.605   9.524
 6658SOL     OW21870   3.795   1.001  14.757
 6658SOL    HW121871   3.815   0.942  14.830
 6658SOL    HW221872   3.783   1.087  14.798
 6659SOL     OW21873  12.581  14.790   0.174
 6659SOL    HW121874  12.522  14.825   0.240
 6659SOL    HW221875  12.599  14.700   0.202
 6660SOL     OW21876   2.378  11.649   7.624
 6660SOL    HW121877   2.322  11.584   7.666
 6660SOL    HW221878   2.433  11.683   7.694
 6661SOL     OW21879   4.032   6.435  10.556
 6661SOL    HW121880   4.057   6.448  10.647
 6661SOL    HW221881   4.076   6.506  10.509
 6662SOL     OW21882   8.164   9.939   5.146
 6662SOL    HW121883   8.232   9.938   5.214
 6662SOL    HW221884   8.208   9.904   5.068
 6663SOL     OW21885  13.254   9.603   7.057
 6663SOL    HW121886  13.238   9.567   6.970
 6663SOL    HW221887  13.325   9.666   7.044
 6664SOL     OW21888   0.016   5.253  11.248
 6664SOL    HW121889   0.007   5.158  11.258
 6664SOL    HW221890   0.021   5.285  11.338
 6665SOL     OW21891   2.179   9.639   8.659
 6665SOL    HW121892   2.230   9.562   8.685
 6665SOL    HW221893   2.215   9.710   8.713
 6666SOL     OW21894  13.311   2.400   6.588
 6666SOL    HW121895  13.343   2.436   6.505
 6666SOL    HW221896  13.237   2.456   6.611
 6667SOL     OW21897   4.625  14.625  13.428
 6667SOL    HW121898   4.534  14.654  13.432
 6667SOL    HW221899   4.651  14.614  13.520
 6668SOL     OW21900  11.820   4.263   5.618
 6668SOL    HW121901  11.892   4.222   5.668
 6668SOL    HW221902  11.815   4.212   5.538
 6669SOL     OW21903   1.344   8.718   8.118
 6669SOL    HW121904   1.305   8.805   8.116
 6669SOL    HW221905   1.423   8.728   8.172
 6670SOL     OW21906   6.542   4.625   5.262
 6670SOL    HW121907   6.447   4.624   5.258
 6670SOL    HW221908   6.563   4.586   5.347
 6671SOL     OW21909  11.153   5.006  14.375
 6671SOL    HW121910  11.114   5.012  14.288
 6671SOL    HW221911  11.163   4.912  14.390
 6672SOL     OW21912  11.994   7.495   6.454
 6672SOL    HW121913  12.062   7.504   6.521
 6672SOL    HW221914  11.981   7.584   6.422
 6673SOL     OW21915   7.468   3.917   2.410
 6673SOL    HW121916   7.478   3.923   2.315
 6673SOL    HW221917   7.399   3.852   2.423
 6674SOL     OW21918  13.487   5.617   3.112
 6674SOL    HW121919  13.492   5.543   3.172
 6674SOL    HW221920  13.542   5.684   3.151
 6675SOL     OW21921   1.089  12.176   3.435
 6675SOL    HW121922   1.154  12.114   3.470
 6675SOL    HW221923   1.136  12.227   3.370
 6676SOL     OW21924   6.497  10.474  10.109
 6676SOL    HW121925   6.408  10.444  10.094
 6676SOL    HW221926   6.508  10.548  10.050
 6677SOL     OW21927   8.347   2.212   9.500
 6677SOL    HW121928   8.366   2.129   9.544
 6677SOL    HW221929   8.274   2.192   9.442
 6678SOL     OW21930   0.076   7.069  12.585
 6678SOL    HW121931   0.163   7.042  12.555
 6678SOL    HW221932   0.070   7.161  12.563
 6679SOL     OW21933   1.496   9.546  11.206
 6679SOL    HW121934   1.404   9.567  11.192
 6679SOL    HW221935   1.544   9.608  11.152
 6680SOL     OW21936   8.844   5.682   9.259
 6680SOL    HW121937   8.931   5.712   9.285
 6680SOL    HW221938   8.803   5.760   9.220
 6681SOL     OW21939   7.829  11.789  14.877
 6681SOL    HW121940   7.895  11.720   0.005
 6681SOL    HW221941   7.830  11.812  14.785
 6682SOL     OW21942   6.353   3.748  13.011
 6682SOL    HW121943   6.421   3.772  13.074
 6682SOL    HW221944   6.374   3.658  12.986
 6683SOL     OW21945  12.304   5.606  13.686
 6683SOL    HW121946  12.252   5.672  13.640
 6683SOL    HW221947  12.374   5.583  13.625
 6684SOL     OW21948   2.976   0.345   6.553
 6684SOL    HW121949   2.910   0.414   6.552
 6684SOL    HW221950   3.018   0.351   6.467
 6685SOL     OW21951   4.286   8.603   6.445
 6685SOL    HW121952   4.254   8.512   6.445
 6685SOL    HW221953   4.306   8.621   6.537
 6686SOL     OW21954   2.963   9.191   4.135
 6686SOL    HW121955   3.031   9.132   4.167
 6686SOL    HW221956   2.917   9.141   4.067
 6687SOL     OW21957  14.295   5.022   9.312
 6687SOL    HW121958  14.358   5.081   9.269
 6687SOL    HW221959  14.344   4.941   9.325
 6688SOL     OW21960   8.692  14.773   4.791
 6688SOL    HW121961   8.608  14.746   4.754
 6688SOL    HW221962   8.672  14.853   4.840
 6689SOL     OW21963   8.271   9.684   6.130
 6689SOL    HW121964   8.201   9.677   6.066
 6689SOL    HW221965   8.271   9.776   6.157
 6690SOL     OW21966   6.296   0.277   4.300
 6690SOL    HW121967   6.350   0.209   4.341
 6690SOL    HW221968   6.359   0.339   4.264
 6691SOL     OW21969   1.573   1.541   4.669
 6691SOL    HW121970   1.575   1.555   4.764
 6691SOL    HW221971   1.496   1.589   4.639
 6692SOL     OW21972   8.802  13.479   3.806
 6692SOL    HW121973   8.729  13.423   3.833
 6692SOL    HW221974   8.796  13.555   3.863
 6693SOL     OW21975   1.419  11.023   0.798
 6693SOL    HW121976   1.344  11.075   0.769
 6693SOL    HW221977   1.425  11.041   0.892
 6694SOL     OW21978   7.884   9.726   9.216
 6694SOL    HW121979   7.968   9.736   9.262
 6694SOL    HW221980   7.820   9.766   9.276
 6695SOL     OW21981   6.195   7.332   0.027
 6695SOL    HW121982   6.211   7.261   0.089
 6695SOL    HW221983   6.264   7.323  14.842
 6696SOL     OW21984  13.613  14.481   2.882
 6696SOL    HW121985  13.702  14.482   2.916
 6696SOL    HW221986  13.560  14.444   2.953
 6697SOL     OW21987  12.726  10.544   3.120
 6697SOL    HW121988  12.646  10.529   3.070
 6697SOL    HW221989  12.770  10.460   3.120
 6698SOL     OW21990   2.468   6.637   0.151
 6698SOL    HW121991   2.507   6.559   0.191
 6698SOL    HW221992   2.374   6.623   0.156
 6699SOL     OW21993   0.419   2.345   0.415
 6699SOL    HW121994   0.488   2.314   0.356
 6699SOL    HW221995   0.362   2.270   0.428
 6700SOL     OW21996   9.745  11.763   0.914
 6700SOL    HW121997   9.738  11.727   0.826
 6700SOL    HW221998   9.725  11.688   0.972
 6701SOL     OW21999   2.594   8.383   2.602
 6701SOL    HW122000   2.552   8.347   2.524
 6701SOL    HW222001   2.678   8.337   2.609
 6702SOL     OW22002  12.196  11.157  11.446
 6702SOL    HW122003  12.133  11.109  11.499
 6702SOL    HW222004  12.184  11.249  11.471
 6703SOL     OW22005   8.225   3.700   7.945
 6703SOL    HW122006   8.229   3.613   7.986
 6703SOL    HW222007   8.317   3.724   7.933
 6704SOL     OW22008  10.125   9.757  12.823
 6704SOL    HW122009  10.199   9.731  12.768
 6704SOL    HW222010  10.068   9.809  12.766
 6705SOL     OW22011  14.654   0.369   7.439
 6705SOL    HW122012  14.726   0.367   7.376
 6705SOL    HW222013  14.680   0.306   7.506
 6706SOL     OW22014   0.800  14.748   7.154
 6706SOL    HW122015   0.797  14.807   7.229
 6706SOL    HW222016   0.840  14.668   7.188
 6707SOL     OW22017   8.182  13.295   8.560
 6707SOL    HW122018   8.107  13.277   8.503
 6707SOL    HW222019   8.157  13.258   8.645
 6708SOL     OW22020   2.715  12.246   2.569
 6708SOL    HW122021   2.701  12.269   2.478
 6708SOL    HW222022   2.707  12.329   2.617
 6709SOL     OW22023   3.705   0.411  14.633
 6709SOL    HW122024   3.779   0.436  14.578
 6709SOL    HW222025   3.633   0.398  14.571
 6710SOL     OW22026  13.581  14.791   6.192
 6710SOL    HW122027  13.674  14.795   6.172
 6710SOL    HW222028  13.547  14.723   6.133
 6711SOL     OW22029   9.051   4.386   2.081
 6711SOL    HW122030   9.036   4.291   2.078
 6711SOL    HW222031   8.971   4.421   2.121
 6712SOL     OW22032  13.544   2.932   2.762
 6712SOL    HW122033  13.474   2.993   2.741
 6712SOL    HW222034  13.613   2.952   2.699
 6713SOL     OW22035  11.728   5.493   0.261
 6713SOL    HW122036  11.653   5.457   0.307
 6713SOL    HW222037  11.724   5.587   0.278
 6714SOL     OW22038   9.633   1.618  11.212
 6714SOL    HW122039   9.690   1.625  11.135
 6714SOL    HW222040   9.545   1.631  11.178
 6715SOL     OW22041  14.685   6.499  11.157
 6715SOL    HW122042  14.678   6.440  11.082
 6715SOL    HW222043  14.759   6.466  11.207
 6716SOL     OW22044  13.271   5.086   6.238
 6716SOL    HW122045  13.312   5.162   6.197
 6716SOL    HW222046  13.178   5.110   6.246
 6717SOL     OW22047   6.910  10.471   3.902
 6717SOL    HW122048   7.005  10.457   3.902
 6717SOL    HW222049   6.877  10.407   3.964
 6718SOL     OW22050   9.335   2.517  10.575
 6718SOL    HW122051   9.419   2.493  10.536
 6718SOL    HW222052   9.287   2.561  10.504
 6719SOL     OW22053   2.719   8.554   7.893
 6719SOL    HW122054   2.655   8.569   7.823
 6719SOL    HW222055   2.796   8.604   7.866
 6720SOL     OW22056   5.657   7.597   3.106
 6720SOL    HW122057   5.735   7.604   3.050
 6720SOL    HW222058   5.584   7.614   3.046
 6721SOL     OW22059   4.426   4.711   7.780
 6721SOL    HW122060   4.376   4.720   7.861
 6721SOL    HW222061   4.367   4.667   7.720
 6722SOL     OW22062   8.089  12.733  10.287
 6722SOL    HW122063   8.112  12.793  10.358
 6722SOL    HW222064   7.995  12.744  10.276
 6723SOL     OW22065   7.731   3.208   5.203
 6723SOL    HW122066   7.671   3.283   5.199
 6723SOL    HW222067   7.787   3.219   5.126
 6724SOL     OW22068   4.652   9.433   2.677
 6724SOL    HW122069   4.731   9.488   2.672
 6724SOL    HW222070   4.607   9.464   2.755
 6725SOL     OW22071   9.081  13.374  14.272
 6725SOL    HW122072   9.093  13.410  14.184
 6725SOL    HW222073   9.120  13.286  14.267
 6726SOL     OW22074   7.885   8.233   1.085
 6726SOL    HW122075   7.945   8.167   1.117
 6726SOL    HW222076   7.940   8.310   1.068
 6727SOL     OW22077   9.449   8.900   9.087
 6727SOL    HW122078   9.463   8.872   9.177
 6727SOL    HW222079   9.538   8.911   9.052
 6728SOL     OW22080   3.810  10.400   4.957
 6728SOL    HW122081   3.787  10.417   5.048
 6728SOL    HW222082   3.756  10.326   4.931
 6729SOL     OW22083   6.337   9.199   7.996
 6729SOL    HW122084   6.385   9.267   8.044
 6729SOL    HW222085   6.246   9.228   7.998
 6730SOL     OW22086   8.326   5.250   4.928
 6730SOL    HW122087   8.270   5.244   5.006
 6730SOL    HW222088   8.393   5.313   4.952
 6731SOL     OW22089   2.236  12.734   9.370
 6731SOL    HW122090   2.148  12.751   9.337
 6731SOL    HW222091   2.231  12.750   9.464
 6732SOL     OW22092   9.978   1.832   9.803
 6732SOL    HW122093   9.930   1.828   9.720
 6732SOL    HW222094  10.053   1.889   9.785
 6733SOL     OW22095  14.319   1.835  12.839
 6733SOL    HW122096  14.296   1.805  12.927
 6733SOL    HW222097  14.320   1.931  12.846
 6734SOL     OW22098   3.997   4.616   0.064
 6734SOL    HW122099   3.917   4.580   0.026
 6734SOL    HW222100   4.064   4.604  14.876
 6735SOL     OW22101   4.768   0.380  11.868
 6735SOL    HW122102   4.703   0.449  11.859
 6735SOL    HW222103   4.769   0.359  11.961
 6736SOL     OW22104   7.566   6.207   8.037
 6736SOL    HW122105   7.606   6.221   8.122
 6736SOL    HW222106   7.613   6.132   8.000
 6737SOL     OW22107   5.902   6.532   1.575
 6737SOL    HW122108   5.924   6.625   1.576
 6737SOL    HW222109   5.814   6.527   1.611
 6738SOL     OW22110   0.469   1.958   3.579
 6738SOL    HW122111   0.389   1.972   3.629
 6738SOL    HW222112   0.534   2.015   3.621
 6739SOL     OW22113  11.980   5.327  10.215
 6739SOL    HW122114  11.920   5.399  10.237
 6739SOL    HW222115  12.059   5.345  10.266
 6740SOL     OW22116  12.302  13.750   7.625
 6740SOL    HW122117  12.253  13.830   7.603
 6740SOL    HW222118  12.377  13.751   7.565
 6741SOL     OW22119  11.300   4.127  14.872
 6741SOL    HW122120  11.351   4.053   0.024
 6741SOL    HW222121  11.357   4.203   0.004
 6742SOL     OW22122   9.521   2.947   3.719
 6742SOL    HW122123   9.549   2.989   3.638
 6742SOL    HW222124   9.427   2.936   3.709
 6743SOL     OW22125  13.479  11.757   0.344
 6743SOL    HW122126  13.531  11.690   0.388
 6743SOL    HW222127  13.418  11.788   0.411
 6744SOL     OW22128  11.178   9.849   2.510
 6744SOL    HW122129  11.102   9.898   2.542
 6744SOL    HW222130  11.147   9.810   2.428
 6745SOL     OW22131   8.644  13.138  14.258
 6745SOL    HW122132   8.626  13.190  14.336
 6745SOL    HW222133   8.707  13.072  14.286
 6746SOL     OW22134   3.194  10.682   8.628
 6746SOL    HW122135   3.149  10.764   8.648
 6746SOL    HW222136   3.277  10.689   8.674
 6747SOL     OW22137   6.895  14.046   4.936
 6747SOL    HW122138   6.936  14.131   4.919
 6747SOL    HW222139   6.819  14.066   4.990
 6748SOL     OW22140  13.495   0.466   9.115
 6748SOL    HW122141  13.541   0.397   9.162
 6748SOL    HW222142  13.488   0.538   9.178
 6749SOL     OW22143  14.113   1.112   6.237
 6749SOL    HW122144  14.165   1.065   6.302
 6749SOL    HW222145  14.113   1.054   6.160
 6750SOL     OW22146   0.040  14.804  11.721
 6750SOL    HW122147  14.836  14.758  11.729
 6750SOL    HW222148   0.018   0.016  11.728
 6751SOL     OW22149  10.880   3.686   8.630
 6751SOL    HW122150  10.920   3.749   8.571
 6751SOL    HW222151  10.942   3.677   8.702
 6752SOL     OW22152   5.835   7.751  12.809
 6752SOL    HW122153   5.885   7.829  12.835
 6752SOL    HW222154   5.788   7.725  12.888
 6753SOL     OW22155  12.080   9.906   8.104
 6753SOL    HW122156  12.145   9.949   8.160
 6753SOL    HW222157  12.118   9.909   8.016
 6754SOL     OW22158  14.602   6.019   6.076
 6754SOL    HW122159  14.536   5.979   6.019
 6754SOL    HW222160  14.680   5.966   6.063
 6755SOL     OW22161  13.419   7.462  11.888
 6755SOL    HW122162  13.501   7.510  11.891
 6755SOL    HW222163  13.379   7.486  11.805
 6756SOL     OW22164   8.881   3.168   7.706
 6756SOL    HW122165   8.871   3.219   7.626
 6756SOL    HW222166   8.975   3.171   7.725
 6757SOL     OW22167   1.065   0.528   2.716
 6757SOL    HW122168   1.125   0.464   2.678
 6757SOL    HW222169   1.118   0.573   2.782
 6758SOL     OW22170   5.101   6.830  14.533
 6758SOL    HW122171   5.129   6.854  14.621
 6758SOL    HW222172   5.158   6.879  14.474
 6759SOL     OW22173  13.464   6.504   7.431
 6759SOL    HW122174  13.535   6.460   7.479
 6759SOL    HW222175  13.505   6.581   7.393
 6760SOL     OW22176   9.633   2.725  11.227
 6760SOL    HW122177   9.723   2.701  11.251
 6760SOL    HW222178   9.604   2.655  11.169
 6761SOL     OW22179   8.852   6.032  11.236
 6761SOL    HW122180   8.803   5.959  11.199
 6761SOL    HW222181   8.830   6.106  11.180
 6762SOL     OW22182   4.888   9.285   3.305
 6762SOL    HW122183   4.889   9.212   3.243
 6762SOL    HW222184   4.911   9.361   3.252
 6763SOL     OW22185  13.976   5.257   1.430
 6763SOL    HW122186  13.886   5.287   1.441
 6763SOL    HW222187  14.030   5.327   1.467
 6764SOL     OW22188   3.047   7.918  10.487
 6764SOL    HW122189   2.982   7.989  10.484
 6764SOL    HW222190   3.065   7.906  10.580
 6765SOL     OW22191  13.848   3.616   8.544
 6765SOL    HW122192  13.891   3.585   8.465
 6765SOL    HW222193  13.757   3.627   8.519
 6766SOL     OW22194   5.907   3.379   6.969
 6766SOL    HW122195   5.845   3.345   6.906
 6766SOL    HW222196   5.952   3.450   6.922
 6767SOL     OW22197   4.281   2.674  14.228
 6767SOL    HW122198   4.342   2.612  14.269
 6767SOL    HW222199   4.194   2.641  14.251
 6768SOL     OW22200   7.686  13.337  13.162
 6768SOL    HW122201   7.733  13.420  13.158
 6768SOL    HW222202   7.619  13.351  13.230
 6769SOL     OW22203  10.813   8.963  13.107
 6769SOL    HW122204  10.798   8.905  13.032
 6769SOL    HW222205  10.761   9.041  13.087
 6770SOL     OW22206  14.510   1.730   3.477
 6770SOL    HW122207  14.463   1.672   3.417
 6770SOL    HW222208  14.497   1.818   3.440
 6771SOL     OW22209   9.999  14.552   9.367
 6771SOL    HW122210  10.065  14.517   9.308
 6771SOL    HW222211  10.049  14.586   9.442
 6772SOL     OW22212   0.062   3.596  14.859
 6772SOL    HW122213  14.874   3.657  14.833
 6772SOL    HW222214   0.095   3.631   0.061
 6773SOL     OW22215   7.025  11.056   1.986
 6773SOL    HW122216   7.098  11.018   1.937
 6773SOL    HW222217   7.023  11.148   1.957
 6774SOL     OW22218   6.782   2.971   4.842
 6774SOL    HW122219   6.714   2.921   4.797
 6774SOL    HW222220   6.855   2.911   4.849
 6775SOL     OW22221   4.147   8.925   4.574
 6775SOL    HW122222   4.210   8.924   4.646
 6775SOL    HW222223   4.076   8.869   4.605
 6776SOL     OW22224  13.496  10.710  11.262
 6776SOL    HW122225  13.494  10.705  11.357
 6776SOL    HW222226  13.588  10.724  11.240
 6777SOL     OW22227   0.900   7.718   2.361
 6777SOL    HW122228   0.872   7.772   2.287
 6777SOL    HW222229   0.819   7.678   2.393
 6778SOL     OW22230  14.580  10.893   1.912
 6778SOL    HW122231  14.487  10.905   1.896
 6778SOL    HW222232  14.584  10.846   1.995
 6779SOL     OW22233   1.373   0.403  13.957
 6779SOL    HW122234   1.317   0.422  13.882
 6779SOL    HW222235   1.330   0.447  14.030
 6780SOL     OW22236   0.927   6.470  10.682
 6780SOL    HW122237   0.965   6.504  10.601
 6780SOL    HW222238   0.968   6.523  10.751
 6781SOL     OW22239   8.015  13.753   3.933
 6781SOL    HW122240   7.962  13.759   4.013
 6781SOL    HW222241   8.090  13.700   3.957
 6782SOL     OW22242   4.956   9.537   3.668
 6782SOL    HW122243   5.026   9.473   3.650
 6782SOL    HW222244   4.917   9.554   3.582
 6783SOL     OW22245   2.821   6.655  14.677
 6783SOL    HW122246   2.791   6.670  14.767
 6783SOL    HW222247   2.766   6.713  14.624
 6784SOL     OW22248  11.194  13.513   6.894
 6784SOL    HW122249  11.215  13.571   6.821
 6784SOL    HW222250  11.257  13.441   6.887
 6785SOL     OW22251  13.118   0.118   8.318
 6785SOL    HW122252  13.104   0.203   8.361
 6785SOL    HW222253  13.095   0.053   8.384
 6786SOL     OW22254   1.034  13.140   9.834
 6786SOL    HW122255   1.103  13.204   9.851
 6786SOL    HW222256   1.054  13.107   9.746
 6787SOL     OW22257   8.189  14.174  12.812
 6787SOL    HW122258   8.137  14.096  12.797
 6787SOL    HW222259   8.279  14.148  12.793
 6788SOL     OW22260   6.740  13.244  11.414
 6788SOL    HW122261   6.648  13.268  11.405
 6788SOL    HW222262   6.763  13.268  11.504
 6789SOL     OW22263  13.157   2.999  11.366
 6789SOL    HW122264  13.181   3.002  11.459
 6789SOL    HW222265  13.234   3.031  11.320
 6790SOL     OW22266  11.260  10.819   6.994
 6790SOL    HW122267  11.272  10.774   7.078
 6790SOL    HW222268  11.343  10.864   6.979
 6791SOL     OW22269  14.256   6.188   2.768
 6791SOL    HW122270  14.237   6.095   2.778
 6791SOL    HW222271  14.223   6.210   2.681
 6792SOL     OW22272   3.270   5.453   0.543
 6792SOL    HW122273   3.240   5.370   0.508
 6792SOL    HW222274   3.284   5.509   0.466
 6793SOL     OW22275   0.546   5.799  11.475
 6793SOL    HW122276   0.626   5.788  11.424
 6793SOL    HW222277   0.574   5.799  11.566
 6794SOL     OW22278  14.225  12.552   6.387
 6794SOL    HW122279  14.172  12.553   6.467
 6794SOL    HW222280  14.177  12.608   6.326
 6795SOL     OW22281  14.704   1.846  14.653
 6795SOL    HW122282  14.650   1.918  14.619
 6795SOL    HW222283  14.651   1.808  14.723
 6796SOL     OW22284   7.319   3.117   0.225
 6796SOL    HW122285   7.313   3.199   0.176
 6796SOL    HW222286   7.394   3.129   0.283
 6797SOL     OW22287   0.893   8.044   4.891
 6797SOL    HW122288   0.854   7.987   4.824
 6797SOL    HW222289   0.978   8.068   4.855
 6798SOL     OW22290   0.370   6.831   2.592
 6798SOL    HW122291   0.434   6.813   2.661
 6798SOL    HW222292   0.307   6.891   2.632
 6799SOL     OW22293   7.472   8.666   5.443
 6799SOL    HW122294   7.462   8.608   5.519
 6799SOL    HW222295   7.456   8.754   5.477
 6800SOL     OW22296  11.838   2.780  11.445
 6800SOL    HW122297  11.889   2.789  11.526
 6800SOL    HW222298  11.760   2.834  11.460
 6801SOL     OW22299   7.265   9.514   7.549
 6801SOL    HW122300   7.177   9.531   7.516
 6801SOL    HW222301   7.251   9.479   7.638
 6802SOL     OW22302   4.353   2.958   9.041
 6802SOL    HW122303   4.419   3.027   9.032
 6802SOL    HW222304   4.289   2.993   9.103
 6803SOL     OW22305   5.875  10.125   3.119
 6803SOL    HW122306   5.933  10.189   3.158
 6803SOL    HW222307   5.812  10.177   3.069
 6804SOL     OW22308   7.070   4.121   1.144
 6804SOL    HW122309   7.135   4.150   1.209
 6804SOL    HW222310   7.108   4.146   1.060
 6805SOL     OW22311  10.764  14.430   0.750
 6805SOL    HW122312  10.809  14.381   0.819
 6805SOL    HW222313  10.784  14.382   0.669
 6806SOL     OW22314   6.215  13.860  11.602
 6806SOL    HW122315   6.154  13.890  11.669
 6806SOL    HW222316   6.293  13.914  11.613
 6807SOL     OW22317   0.334   3.583   2.351
 6807SOL    HW122318   0.355   3.536   2.270
 6807SOL    HW222319   0.239   3.596   2.347
 6808SOL     OW22320   8.572   5.361  13.502
 6808SOL    HW122321   8.505   5.416  13.461
 6808SOL    HW222322   8.573   5.282  13.450
 6809SOL     OW22323   2.980  14.731   8.826
 6809SOL    HW122324   2.901  14.768   8.866
 6809SOL    HW222325   3.018  14.677   8.895
 6810SOL     OW22326   3.939  14.299  14.442
 6810SOL    HW122327   3.983  14.339  14.367
 6810SOL    HW222328   3.861  14.353  14.456
 6811SOL     OW22329  14.454   5.497   8.359
 6811SOL    HW122330  14.410   5.579   8.381
 6811SOL    HW222331  14.546   5.522   8.346
 6812SOL     OW22332   2.916   8.315  11.256
 6812SOL    HW122333   2.886   8.322  11.346
 6812SOL    HW222334   2.885   8.230  11.226
 6813SOL     OW22335   1.882   1.231   4.497
 6813SOL    HW122336   1.786   1.227   4.496
 6813SOL    HW222337   1.905   1.269   4.412
 6814SOL     OW22338   3.690   8.475  13.073
 6814SOL    HW122339   3.692   8.559  13.119
 6814SOL    HW222340   3.738   8.415  13.130
 6815SOL     OW22341   1.872   1.592   7.403
 6815SOL    HW122342   1.858   1.511   7.452
 6815SOL    HW222343   1.915   1.650   7.466
 6816SOL     OW22344   0.311  14.730   6.439
 6816SOL    HW122345   0.236  14.673   6.453
 6816SOL    HW222346   0.386  14.671   6.428
 6817SOL     OW22347   4.306   9.644   8.379
 6817SOL    HW122348   4.394   9.612   8.398
 6817SOL    HW222349   4.309   9.737   8.398
 6818SOL     OW22350  10.156  12.408   8.863
 6818SOL    HW122351  10.101  12.413   8.785
 6818SOL    HW222352  10.179  12.316   8.871
 6819SOL     OW22353   4.051  12.319   4.084
 6819SOL    HW122354   4.129  12.305   4.137
 6819SOL    HW222355   4.011  12.232   4.076
 6820SOL     OW22356   2.911  11.276   7.934
 6820SOL    HW122357   2.991  11.322   7.906
 6820SOL    HW222358   2.943  11.193   7.968
 6821SOL     OW22359   6.460   8.973   1.539
 6821SOL    HW122360   6.537   9.027   1.523
 6821SOL    HW222361   6.480   8.926   1.619
 6822SOL     OW22362  12.858   6.980   5.254
 6822SOL    HW122363  12.833   7.073   5.254
 6822SOL    HW222364  12.777   6.933   5.235
 6823SOL     OW22365   3.424  11.562   9.277
 6823SOL    HW122366   3.434  11.486   9.219
 6823SOL    HW222367   3.510  11.575   9.315
 6824SOL     OW22368   3.841  12.499  13.174
 6824SOL    HW122369   3.928  12.478  13.208
 6824SOL    HW222370   3.788  12.423  13.195
 6825SOL     OW22371   2.273  10.482  13.507
 6825SOL    HW122372   2.293  10.390  13.491
 6825SOL    HW222373   2.191  10.481  13.556
 6826SOL     OW22374  11.031   1.178   2.893
 6826SOL    HW122375  10.947   1.188   2.849
 6826SOL    HW222376  11.048   1.264   2.933
 6827SOL     OW22377   1.237  12.329  14.669
 6827SOL    HW122378   1.201  12.417  14.660
 6827SOL    HW222379   1.241  12.295  14.580
 6828SOL     OW22380  10.265   9.559   2.819
 6828SOL    HW122381  10.329   9.586   2.754
 6828SOL    HW222382  10.180   9.577   2.778
 6829SOL     OW22383   7.951  10.128  14.459
 6829SOL    HW122384   7.988  10.045  14.489
 6829SOL    HW222385   7.967  10.189  14.531
 6830SOL     OW22386  10.075  12.943  10.412
 6830SOL    HW122387  10.039  12.979  10.493
 6830SOL    HW222388  10.030  12.859  10.401
 6831SOL     OW22389  10.187  14.830  13.947
 6831SOL    HW122390  10.100  14.858  13.916
 6831SOL    HW222391  10.245   0.023  13.925
 6832SOL     OW22392  12.274  12.092  12.676
 6832SOL    HW122393  12.210  12.081  12.746
 6832SOL    HW222394  12.358  12.071  12.716
 6833SOL     OW22395  11.063  12.828  10.405
 6833SOL    HW122396  11.122  12.753  10.400
 6833SOL    HW222397  11.005  12.817  10.330
 6834SOL     OW22398   8.659   4.325  14.732
 6834SOL    HW122399   8.639   4.234  14.753
 6834SOL    HW222400   8.628   4.375  14.808
 6835SOL     OW22401  11.117  13.726   4.028
 6835SOL    HW122402  11.052  13.661   4.002
 6835SOL    HW222403  11.066  13.806   4.040
 6836SOL     OW22404   9.022   3.139   8.633
 6836SOL    HW122405   9.036   3.158   8.726
 6836SOL    HW222406   9.014   3.043   8.630
 6837SOL     OW22407  12.205   2.532   2.215
 6837SOL    HW122408  12.173   2.613   2.255
 6837SOL    HW222409  12.295   2.552   2.189
 6838SOL     OW22410   7.666   7.523   4.048
 6838SOL    HW122411   7.678   7.526   3.953
 6838SOL    HW222412   7.572   7.512   4.061
 6839SOL     OW22413   4.456   1.319   6.644
 6839SOL    HW122414   4.434   1.384   6.711
 6839SOL    HW222415   4.533   1.274   6.679
 6840SOL     OW22416   4.666   8.594   5.598
 6840SOL    HW122417   4.670   8.590   5.502
 6840SOL    HW222418   4.682   8.686   5.619
 6841SOL     OW22419   0.125  11.572   3.232
 6841SOL    HW122420   0.172  11.558   3.314
 6841SOL    HW222421   0.118  11.667   3.225
 6842SOL     OW22422   0.561   5.453  13.151
 6842SOL    HW122423   0.591   5.368  13.118
 6842SOL    HW222424   0.638   5.491  13.193
 6843SOL     OW22425   3.442   3.427   2.499
 6843SOL    HW122426   3.501   3.423   2.574
 6843SOL    HW222427   3.499   3.454   2.426
 6844SOL     OW22428   9.253   6.607  11.734
 6844SOL    HW122429   9.241   6.519  11.701
 6844SOL    HW222430   9.317   6.597  11.805
 6845SOL     OW22431  10.916  12.047  10.749
 6845SOL    HW122432  10.878  12.080  10.831
 6845SOL    HW222433  11.001  12.011  10.774
 6846SOL     OW22434  13.580  14.128   3.197
 6846SOL    HW122435  13.602  14.133   3.104
 6846SOL    HW222436  13.517  14.056   3.202
 6847SOL     OW22437   0.384  12.126  10.582
 6847SOL    HW122438   0.459  12.158  10.532
 6847SOL    HW222439   0.325  12.201  10.588
 6848SOL     OW22440  13.852  13.398   8.003
 6848SOL    HW122441  13.946  13.383   7.997
 6848SOL    HW222442  13.819  13.373   7.917
 6849SOL     OW22443   7.925   3.395   3.085
 6849SOL    HW122444   7.833   3.394   3.059
 6849SOL    HW222445   7.973   3.383   3.004
 6850SOL     OW22446   4.906   0.523  11.367
 6850SOL    HW122447   5.000   0.510  11.355
 6850SOL    HW222448   4.899   0.606  11.414
 6851SOL     OW22449   0.750  13.112   2.661
 6851SOL    HW122450   0.689  13.067   2.720
 6851SOL    HW222451   0.782  13.043   2.603
 6852SOL     OW22452   6.012  13.853   1.796
 6852SOL    HW122453   6.058  13.863   1.713
 6852SOL    HW222454   5.921  13.834   1.772
 6853SOL     OW22455   2.887   8.895   6.532
 6853SOL    HW122456   2.980   8.911   6.518
 6853SOL    HW222457   2.856   8.973   6.579
 6854SOL     OW22458   2.090  14.071   4.448
 6854SOL    HW122459   2.121  13.981   4.445
 6854SOL    HW222460   2.126  14.107   4.529
 6855SOL     OW22461   1.216   0.685  13.240
 6855SOL    HW122462   1.177   0.666  13.325
 6855SOL    HW222463   1.164   0.758  13.206
 6856SOL     OW22464   4.877   9.159   8.292
 6856SOL    HW122465   4.796   9.201   8.262
 6856SOL    HW222466   4.874   9.168   8.388
 6857SOL     OW22467  12.758  12.603  12.200
 6857SOL    HW122468  12.825  12.651  12.248
 6857SOL    HW222469  12.712  12.670  12.149
 6858SOL     OW22470   8.590   8.905  10.899
 6858SOL    HW122471   8.540   8.826  10.921
 6858SOL    HW222472   8.540   8.946  10.828
 6859SOL     OW22473   3.943  10.117   4.245
 6859SOL    HW122474   4.003  10.042   4.242
 6859SOL    HW222475   3.901  10.110   4.331
 6860SOL     OW22476   8.214   8.311  13.931
 6860SOL    HW122477   8.124   8.292  13.957
 6860SOL    HW222478   8.226   8.266  13.848
 6861SOL     OW22479  14.360  13.201   8.059
 6861SOL    HW122480  14.343  13.121   8.108
 6861SOL    HW222481  14.404  13.171   7.979
 6862SOL     OW22482   3.646  14.746   2.392
 6862SOL    HW122483   3.652  14.652   2.375
 6862SOL    HW222484   3.577  14.777   2.333
 6863SOL     OW22485   7.093   5.594   2.048
 6863SOL    HW122486   7.088   5.585   2.143
 6863SOL    HW222487   7.152   5.524   2.020
 6864SOL     OW22488  11.631   7.010  10.510
 6864SOL    HW122489  11.722   6.989  10.489
 6864SOL    HW222490  11.583   6.990  10.431
 6865SOL     OW22491   9.439   9.535   2.478
 6865SOL    HW122492   9.444   9.446   2.515
 6865SOL    HW222493   9.360   9.572   2.519
 6866SOL     OW22494   3.872   7.370   6.738
 6866SOL    HW122495   3.829   7.303   6.685
 6866SOL    HW222496   3.907   7.432   6.675
 6867SOL     OW22497   7.726   8.123   3.820
 6867SOL    HW122498   7.814   8.089   3.836
 6867SOL    HW222499   7.722   8.135   3.725
 6868SOL     OW22500   6.252   1.793  11.697
 6868SOL    HW122501   6.335   1.745  11.696
 6868SOL    HW222502   6.273   1.875  11.742
 6869SOL     OW22503  11.004  12.887   8.590
 6869SOL    HW122504  11.062  12.901   8.515
 6869SOL    HW222505  10.924  12.852   8.551
 6870SOL     OW22506  12.461   6.910   1.377
 6870SOL    HW122507  12.436   6.927   1.468
 6870SOL    HW222508  12.467   6.815   1.371
 6871SOL     OW22509  11.067   4.508   0.040
 6871SOL    HW122510  11.076   4.584  14.864
 6871SOL    HW222511  11.156   4.478   0.055
 6872SOL     OW22512  14.416   4.050  10.736
 6872SOL    HW122513  14.450   3.967  10.702
 6872SOL    HW222514  14.432   4.045  10.830
 6873SOL     OW22515   6.888   1.322  14.111
 6873SOL    HW122516   6.886   1.380  14.035
 6873SOL    HW222517   6.981   1.305  14.125
 6874SOL     OW22518  11.816   3.816  12.401
 6874SOL    HW122519  11.797   3.803  12.494
 6874SOL    HW222520  11.740   3.780  12.355
 6875SOL     OW22521   9.304   2.048   9.924
 6875SOL    HW122522   9.366   1.986   9.961
 6875SOL    HW222523   9.305   2.031   9.830
 6876SOL     OW22524   7.692   7.080   5.068
 6876SOL    HW122525   7.736   6.998   5.045
 6876SOL    HW222526   7.761   7.146   5.064
 6877SOL     OW22527   2.846  10.257  13.169
 6877SOL    HW122528   2.862  10.340  13.214
 6877SOL    HW222529   2.824  10.195  13.240
 6878SOL     OW22530   6.184   1.797   2.525
 6878SOL    HW122531   6.097   1.767   2.500
 6878SOL    HW222532   6.244   1.744   2.473
 6879SOL     OW22533  12.832   8.293  10.474
 6879SOL    HW122534  12.759   8.345  10.441
 6879SOL    HW222535  12.808   8.272  10.564
 6880SOL     OW22536  12.601   5.703   2.896
 6880SOL    HW122537  12.608   5.656   2.980
 6880SOL    HW222538  12.516   5.747   2.901
 6881SOL     OW22539  10.775   7.854  14.780
 6881SOL    HW122540  10.700   7.914  14.776
 6881SOL    HW222541  10.736   7.767  14.778
 6882SOL     OW22542   4.352   6.370  12.647
 6882SOL    HW122543   4.365   6.457  12.612
 6882SOL    HW222544   4.341   6.314  12.570
 6883SOL     OW22545  10.286   7.872  13.137
 6883SOL    HW122546  10.376   7.880  13.167
 6883SOL    HW222547  10.235   7.928  13.195
 6884SOL     OW22548   8.880   5.676   0.923
 6884SOL    HW122549   8.810   5.720   0.874
 6884SOL    HW222550   8.958   5.729   0.907
 6885SOL     OW22551   8.346   4.194   9.428
 6885SOL    HW122552   8.312   4.243   9.353
 6885SOL    HW222553   8.413   4.137   9.391
 6886SOL     OW22554  12.121   5.575   1.654
 6886SOL    HW122555  12.044   5.606   1.703
 6886SOL    HW222556  12.097   5.585   1.562
 6887SOL     OW22557  13.656   0.639   2.003
 6887SOL    HW122558  13.687   0.555   2.036
 6887SOL    HW222559  13.716   0.703   2.041
 6888SOL     OW22560   4.372  10.644   7.372
 6888SOL    HW122561   4.400  10.593   7.296
 6888SOL    HW222562   4.435  10.715   7.378
 6889SOL     OW22563   0.385  11.922   9.890
 6889SOL    HW122564   0.306  11.930   9.943
 6889SOL    HW222565   0.452  11.969   9.940
 6890SOL     OW22566   7.723   1.974  11.358
 6890SOL    HW122567   7.741   1.931  11.441
 6890SOL    HW222568   7.704   2.065  11.381
 6891SOL     OW22569   9.223   9.406   6.839
 6891SOL    HW122570   9.157   9.348   6.801
 6891SOL    HW222571   9.195   9.418   6.930
 6892SOL     OW22572   8.857   5.792   7.603
 6892SOL    HW122573   8.774   5.753   7.576
 6892SOL    HW222574   8.838   5.885   7.615
 6893SOL     OW22575   5.194  11.308  12.752
 6893SOL    HW122576   5.215  11.215  12.746
 6893SOL    HW222577   5.120  11.313  12.812
 6894SOL     OW22578  12.642   6.147   0.746
 6894SOL    HW122579  12.724   6.157   0.795
 6894SOL    HW222580  12.587   6.093   0.803
 6895SOL     OW22581   8.430   5.427   4.688
 6895SOL    HW122582   8.360   5.373   4.725
 6895SOL    HW222583   8.508   5.372   4.695
 6896SOL     OW22584  10.929  13.077  10.423
 6896SOL    HW122585  10.962  13.108  10.339
 6896SOL    HW222586  10.967  12.989  10.432
 6897SOL     OW22587   0.838   2.424   4.043
 6897SOL    HW122588   0.773   2.402   3.976
 6897SOL    HW222589   0.922   2.418   3.998
 6898SOL     OW22590  13.896   7.260   9.543
 6898SOL    HW122591  13.878   7.188   9.482
 6898SOL    HW222592  13.863   7.338   9.499
 6899SOL     OW22593  11.337  10.328   7.083
 6899SOL    HW122594  11.291  10.412   7.088
 6899SOL    HW222595  11.273  10.264   7.113
 6900SOL     OW22596   9.185   1.111   2.425
 6900SOL    HW122597   9.142   1.196   2.431
 6900SOL    HW222598   9.257   1.124   2.364
 6901SOL     OW22599   8.546   1.792   3.458
 6901SOL    HW122600   8.460   1.766   3.490
 6901SOL    HW222601   8.542   1.776   3.364
 6902SOL     OW22602  10.560   2.988  13.340
 6902SOL    HW122603  10.496   3.042  13.388
 6902SOL    HW222604  10.642   3.038  13.346
 6903SOL     OW22605  10.143   7.131   2.152
 6903SOL    HW122606  10.234   7.103   2.165
 6903SOL    HW222607  10.123   7.184   2.229
 6904SOL     OW22608  11.617  13.601   5.454
 6904SOL    HW122609  11.537  13.640   5.490
 6904SOL    HW222610  11.604  13.603   5.359
 6905SOL     OW22611  10.843  10.506  11.139
 6905SOL    HW122612  10.858  10.599  11.159
 6905SOL    HW222613  10.838  10.464  11.225
 6906SOL     OW22614   0.973   3.042   8.150
 6906SOL    HW122615   0.969   3.131   8.114
 6906SOL    HW222616   1.043   3.046   8.214
 6907SOL     OW22617   3.338   0.757  12.398
 6907SOL    HW122618   3.360   0.672  12.358
 6907SOL    HW222619   3.243   0.764  12.389
 6908SOL     OW22620  14.713   7.564   3.275
 6908SOL    HW122621  14.699   7.507   3.350
 6908SOL    HW222622  14.795   7.533   3.236
 6909SOL     OW22623   5.801   1.507   7.730
 6909SOL    HW122624   5.875   1.560   7.760
 6909SOL    HW222625   5.841   1.431   7.688
 6910SOL     OW22626   5.110   4.704   9.891
 6910SOL    HW122627   5.122   4.793   9.926
 6910SOL    HW222628   5.027   4.676   9.927
 6911SOL     OW22629   4.712  12.133   4.713
 6911SOL    HW122630   4.630  12.139   4.760
 6911SOL    HW222631   4.768  12.200   4.752
 6912SOL     OW22632  10.306   3.000  10.849
 6912SOL    HW122633  10.214   3.001  10.875
 6912SOL    HW222634  10.350   2.950  10.917
 6913SOL     OW22635  12.192  12.844  11.699
 6913SOL    HW122636  12.198  12.940  11.706
 6913SOL    HW222637  12.105  12.823  11.733
 6914SOL     OW22638   6.104   7.611   7.446
 6914SOL    HW122639   6.138   7.695   7.477
 6914SOL    HW222640   6.057   7.632   7.366
 6915SOL     OW22641  14.290   6.405   6.526
 6915SOL    HW122642  14.214   6.349   6.516
 6915SOL    HW222643  14.285   6.436   6.617
 6916SOL     OW22644  14.693   2.669   9.322
 6916SOL    HW122645  14.745   2.646   9.399
 6916SOL    HW222646  14.754   2.715   9.265
 6917SOL     OW22647  14.292  12.996   2.685
 6917SOL    HW122648  14.379  12.957   2.699
 6917SOL    HW222649  14.245  12.980   2.766
 6918SOL     OW22650  14.526   4.559  12.929
 6918SOL    HW122651  14.572   4.600  12.856
 6918SOL    HW222652  14.449   4.613  12.943
 6919SOL     OW22653   0.546   6.436   8.512
 6919SOL    HW122654   0.504   6.426   8.598
 6919SOL    HW222655   0.634   6.402   8.524
 6920SOL     OW22656  14.057   8.711   4.847
 6920SOL    HW122657  13.985   8.670   4.800
 6920SOL    HW222658  14.133   8.697   4.792
 6921SOL     OW22659   3.918  14.018  13.936
 6921SOL    HW122660   4.009  14.048  13.935
 6921SOL    HW222661   3.902  13.983  13.848
 6922SOL     OW22662   1.307   3.049  11.484
 6922SOL    HW122663   1.327   3.076  11.573
 6922SOL    HW222664   1.391   3.023  11.447
 6923SOL     OW22665   3.673   3.774  11.288
 6923SOL    HW122666   3.695   3.759  11.196
 6923SOL    HW222667   3.605   3.842  11.286
 6924SOL     OW22668   7.435   9.110   2.652
 6924SOL    HW122669   7.442   9.194   2.606
 6924SOL    HW222670   7.406   9.048   2.585
 6925SOL     OW22671  10.444  11.715   5.815
 6925SOL    HW122672  10.388  11.738   5.741
 6925SOL    HW222673  10.522  11.770   5.803
 6926SOL     OW22674   2.575  13.506   6.415
 6926SOL    HW122675   2.482  13.526   6.419
 6926SOL    HW222676   2.592  13.490   6.322
 6927SOL     OW22677  11.996  13.773   1.448
 6927SOL    HW122678  12.071  13.722   1.480
 6927SOL    HW222679  11.925  13.708   1.440
 6928SOL     OW22680   3.001   3.546   3.176
 6928SOL    HW122681   3.088   3.511   3.160
 6928SOL    HW222682   2.977   3.512   3.263
 6929SOL     OW22683   3.086  10.381  10.388
 6929SOL    HW122684   3.022  10.310  10.393
 6929SOL    HW222685   3.034  10.457  10.360
 6930SOL     OW22686   3.482  13.919   8.626
 6930SOL    HW122687   3.552  13.963   8.579
 6930SOL    HW222688   3.430  13.991   8.663
 6931SOL     OW22689   1.874   9.811  13.560
 6931SOL    HW122690   1.843   9.750  13.627
 6931SOL    HW222691   1.820   9.792  13.483
 6932SOL     OW22692  14.497   7.893   0.963
 6932SOL    HW122693  14.574   7.913   0.910
 6932SOL    HW222694  14.465   7.979   0.991
 6933SOL     OW22695   0.073   7.104   3.988
 6933SOL    HW122696   0.043   7.171   4.050
 6933SOL    HW222697   0.022   7.026   4.012
 6934SOL     OW22698   8.215   6.451  13.392
 6934SOL    HW122699   8.174   6.510  13.456
 6934SOL    HW222700   8.308   6.471  13.396
 6935SOL     OW22701  14.366   6.985   8.614
 6935SOL    HW122702  14.354   6.953   8.704
 6935SOL    HW222703  14.278   6.986   8.577
 6936SOL     OW22704   3.033   7.236  14.720
 6936SOL    HW122705   2.979   7.175  14.669
 6936SOL    HW222706   3.121   7.223  14.686
 6937SOL     OW22707  11.203  12.409  14.617
 6937SOL    HW122708  11.133  12.465  14.583
 6937SOL    HW222709  11.246  12.463  14.683
 6938SOL     OW22710   4.238   2.167   1.707
 6938SOL    HW122711   4.297   2.092   1.717
 6938SOL    HW222712   4.294   2.244   1.713
 6939SOL     OW22713   7.864  11.102   8.259
 6939SOL    HW122714   7.902  11.023   8.220
 6939SOL    HW222715   7.770  11.089   8.252
 6940SOL     OW22716   6.022  14.029  12.184
 6940SOL    HW122717   6.036  14.017  12.278
 6940SOL    HW222718   5.928  14.015  12.172
 6941SOL     OW22719   3.054   0.080  10.674
 6941SOL    HW122720   2.988   0.019  10.641
 6941SOL    HW222721   3.134   0.027  10.682
 6942SOL     OW22722   6.535   1.170   8.993
 6942SOL    HW122723   6.572   1.258   8.994
 6942SOL    HW222724   6.592   1.121   8.933
 6943SOL     OW22725  13.580   5.547   0.314
 6943SOL    HW122726  13.625   5.616   0.266
 6943SOL    HW222727  13.549   5.590   0.394
 6944SOL     OW22728  11.529   9.573   5.819
 6944SOL    HW122729  11.549   9.532   5.734
 6944SOL    HW222730  11.532   9.500   5.881
 6945SOL     OW22731   8.796  11.490  11.492
 6945SOL    HW122732   8.806  11.490  11.397
 6945SOL    HW222733   8.843  11.568  11.521
 6946SOL     OW22734   5.692   9.823   8.582
 6946SOL    HW122735   5.683   9.735   8.619
 6946SOL    HW222736   5.686   9.881   8.658
 6947SOL     OW22737  12.867   5.967  11.220
 6947SOL    HW122738  12.934   6.032  11.237
 6947SOL    HW222739  12.841   5.981  11.129
 6948SOL     OW22740   7.176   4.416   4.692
 6948SOL    HW122741   7.196   4.330   4.656
 6948SOL    HW222742   7.170   4.402   4.787
 6949SOL     OW22743   0.006  11.653  12.539
 6949SOL    HW122744  14.794  11.626  12.535
 6949SOL    HW222745   0.010  11.733  12.487
 6950SOL     OW22746   1.570  14.649   6.493
 6950SOL    HW122747   1.565  14.713   6.422
 6950SOL    HW222748   1.604  14.570   6.451
 6951SOL     OW22749   4.654   2.674   6.286
 6951SOL    HW122750   4.644   2.621   6.206
 6951SOL    HW222751   4.623   2.761   6.261
 6952SOL     OW22752   8.893   1.136   1.094
 6952SOL    HW122753   8.919   1.204   1.157
 6952SOL    HW222754   8.814   1.169   1.054
 6953SOL     OW22755   4.466  11.176   7.211
 6953SOL    HW122756   4.461  11.250   7.272
 6953SOL    HW222757   4.549  11.189   7.164
 6954SOL     OW22758  11.854  12.133  14.815
 6954SOL    HW122759  11.804  12.186  14.753
 6954SOL    HW222760  11.824  12.163   0.020
 6955SOL     OW22761   8.331   5.895  13.737
 6955SOL    HW122762   8.241   5.926  13.738
 6955SOL    HW222763   8.353   5.882  13.829
 6956SOL     OW22764   1.342  10.057  12.789
 6956SOL    HW122765   1.395  10.125  12.831
 6956SOL    HW222766   1.256  10.063  12.831
 6957SOL     OW22767   4.829   1.797  10.264
 6957SOL    HW122768   4.758   1.744  10.302
 6957SOL    HW222769   4.823   1.881  10.312
 6958SOL     OW22770   1.282  12.708   7.709
 6958SOL    HW122771   1.354  12.697   7.646
 6958SOL    HW222772   1.251  12.797   7.694
 6959SOL     OW22773  13.327   9.068   4.378
 6959SOL    HW122774  13.255   9.105   4.428
 6959SOL    HW222775  13.324   8.974   4.398
 6960SOL     OW22776   8.567   1.626   5.291
 6960SOL    HW122777   8.573   1.714   5.253
 6960SOL    HW222778   8.567   1.641   5.386
 6961SOL     OW22779   9.309  12.715   2.830
 6961SOL    HW122780   9.298  12.671   2.746
 6961SOL    HW222781   9.258  12.663   2.892
 6962SOL     OW22782   7.685  11.015   3.735
 6962SOL    HW122783   7.643  11.092   3.695
 6962SOL    HW222784   7.613  10.964   3.772
 6963SOL     OW22785   5.129   3.076   2.486
 6963SOL    HW122786   5.073   3.049   2.413
 6963SOL    HW222787   5.069   3.090   2.559
 6964SOL     OW22788   3.575   9.096   2.700
 6964SOL    HW122789   3.655   9.045   2.715
 6964SOL    HW222790   3.510   9.056   2.758
 6965SOL     OW22791  14.148   3.297   3.223
 6965SOL    HW122792  14.079   3.348   3.182
 6965SOL    HW222793  14.135   3.309   3.317
 6966SOL     OW22794   1.837   0.115   9.355
 6966SOL    HW122795   1.867   0.029   9.384
 6966SOL    HW222796   1.797   0.154   9.433
 6967SOL     OW22797   8.943   9.394   9.509
 6967SOL    HW122798   9.006   9.343   9.560
 6967SOL    HW222799   8.882   9.428   9.574
 6968SOL     OW22800   5.012   9.385   8.195
 6968SOL    HW122801   4.952   9.377   8.121
 6968SOL    HW222802   4.998   9.305   8.246
 6969SOL     OW22803   2.108   4.561   1.038
 6969SOL    HW122804   2.086   4.649   1.009
 6969SOL    HW222805   2.179   4.572   1.101
 6970SOL     OW22806   1.752   3.817  13.837
 6970SOL    HW122807   1.778   3.751  13.900
 6970SOL    HW222808   1.819   3.812  13.768
 6971SOL     OW22809   1.732   4.121   0.818
 6971SOL    HW122810   1.734   4.216   0.828
 6971SOL    HW222811   1.814   4.099   0.775
 6972SOL     OW22812  14.610  14.753   8.126
 6972SOL    HW122813  14.514  14.752   8.131
 6972SOL    HW222814  14.635  14.662   8.109
 6973SOL     OW22815   9.010  13.071   3.928
 6973SOL    HW122816   9.104  13.052   3.939
 6973SOL    HW222817   8.976  12.994   3.883
 6974SOL     OW22818  14.021  11.347  14.246
 6974SOL    HW122819  14.085  11.417  14.259
 6974SOL    HW222820  14.072  11.274  14.211
 6975SOL     OW22821  11.034   7.802   9.479
 6975SOL    HW122822  10.960   7.829   9.425
 6975SOL    HW222823  11.067   7.883   9.517
 6976SOL     OW22824   0.950   6.946   1.619
 6976SOL    HW122825   0.956   7.041   1.617
 6976SOL    HW222826   1.035   6.916   1.587
 6977SOL     OW22827  11.585  12.396   0.215
 6977SOL    HW122828  11.597  12.485   0.181
 6977SOL    HW222829  11.629  12.397   0.301
 6978SOL     OW22830  10.955   1.307  10.202
 6978SOL    HW122831  10.960   1.398  10.233
 6978SOL    HW222832  10.890   1.310  10.132
 6979SOL     OW22833   4.823   4.260   9.904
 6979SOL    HW122834   4.835   4.246   9.999
 6979SOL    HW222835   4.896   4.212   9.864
 6980SOL     OW22836   9.857   4.112  11.895
 6980SOL    HW122837   9.807   4.031  11.885
 6980SOL    HW222838   9.837   4.142  11.984
 6981SOL     OW22839   9.210   6.721  11.015
 6981SOL    HW122840   9.120   6.696  10.996
 6981SOL    HW222841   9.220   6.807  10.975
 6982SOL     OW22842  13.899   3.664   5.035
 6982SOL    HW122843  13.826   3.659   5.096
 6982SOL    HW222844  13.862   3.701   4.955
 6983SOL     OW22845   7.247  12.215   0.642
 6983SOL    HW122846   7.264  12.235   0.734
 6983SOL    HW222847   7.255  12.120   0.636
 6984SOL     OW22848  10.164  13.472  13.557
 6984SOL    HW122849  10.177  13.489  13.650
 6984SOL    HW222850  10.198  13.383  13.544
 6985SOL     OW22851   0.659   3.969  10.871
 6985SOL    HW122852   0.720   4.034  10.907
 6985SOL    HW222853   0.600   4.019  10.815
 6986SOL     OW22854   4.363  13.391   1.429
 6986SOL    HW122855   4.387  13.471   1.384
 6986SOL    HW222856   4.358  13.325   1.360
 6987SOL     OW22857  12.715   1.609  14.099
 6987SOL    HW122858  12.738   1.644  14.185
 6987SOL    HW222859  12.660   1.532  14.119
 6988SOL     OW22860   6.649   0.387   4.561
 6988SOL    HW122861   6.684   0.301   4.584
 6988SOL    HW222862   6.568   0.396   4.611
 6989SOL     OW22863   4.489  10.494   1.575
 6989SOL    HW122864   4.450  10.440   1.507
 6989SOL    HW222865   4.538  10.561   1.528
 6990SOL     OW22866   9.463   3.798   7.259
 6990SOL    HW122867   9.369   3.815   7.271
 6990SOL    HW222868   9.497   3.877   7.217
 6991SOL     OW22869   8.627   5.076   5.938
 6991SOL    HW122870   8.537   5.105   5.951
 6991SOL    HW222871   8.623   4.981   5.941
 6992SOL     OW22872  12.032   5.039  10.710
 6992SOL    HW122873  12.120   5.003  10.698
 6992SOL    HW222874  11.999   5.053  10.621
 6993SOL     OW22875   4.651   7.542   8.169
 6993SOL    HW122876   4.718   7.490   8.214
 6993SOL    HW222877   4.578   7.481   8.156
 6994SOL     OW22878   5.603   3.067   1.940
 6994SOL    HW122879   5.662   3.135   1.906
 6994SOL    HW222880   5.580   3.015   1.863
 6995SOL     OW22881   1.106   6.990  10.534
 6995SOL    HW122882   1.173   6.941  10.487
 6995SOL    HW222883   1.132   6.984  10.626
 6996SOL     OW22884   2.215  10.534   1.110
 6996SOL    HW122885   2.179  10.619   1.084
 6996SOL    HW222886   2.138  10.478   1.119
 6997SOL     OW22887   3.838   0.064  11.862
 6997SOL    HW122888   3.905   0.001  11.838
 6997SOL    HW222889   3.800   0.029  11.943
 6998SOL     OW22890   0.337   9.680   3.450
 6998SOL    HW122891   0.383   9.618   3.507
 6998SOL    HW222892   0.396   9.692   3.376
 6999SOL     OW22893  11.864   0.071   1.639
 6999SOL    HW122894  11.918   0.066   1.718
 6999SOL    HW222895  11.878   0.160   1.606
 7000SOL     OW22896   7.148   8.774  11.722
 7000SOL    HW122897   7.230   8.820  11.707
 7000SOL    HW222898   7.170   8.682  11.708
 7001SOL     OW22899   4.312   3.177   3.093
 7001SOL    HW122900   4.233   3.154   3.141
 7001SOL    HW222901   4.363   3.096   3.092
 7002SOL     OW22902   6.455  10.743   4.624
 7002SOL    HW122903   6.479  10.831   4.596
 7002SOL    HW222904   6.415  10.755   4.710
 7003SOL     OW22905   8.948   2.380  12.174
 7003SOL    HW122906   8.999   2.460  12.184
 7003SOL    HW222907   8.873   2.391  12.233
 7004SOL     OW22908   1.109  11.624   7.791
 7004SOL    HW122909   1.191  11.591   7.828
 7004SOL    HW222910   1.077  11.552   7.737
 7005SOL     OW22911   6.179   4.746  14.130
 7005SOL    HW122912   6.170   4.667  14.182
 7005SOL    HW222913   6.239   4.722  14.059
 7006SOL     OW22914   6.740   9.817   7.391
 7006SOL    HW122915   6.735   9.777   7.305
 7006SOL    HW222916   6.648   9.827   7.418
 7007SOL     OW22917   9.903   1.877   4.258
 7007SOL    HW122918   9.925   1.946   4.195
 7007SOL    HW222919   9.817   1.902   4.292
 7008SOL     OW22920  10.773   4.904   9.696
 7008SOL    HW122921  10.855   4.892   9.743
 7008SOL    HW222922  10.711   4.846   9.740
 7009SOL     OW22923  12.284  12.101  10.800
 7009SOL    HW122924  12.282  12.016  10.843
 7009SOL    HW222925  12.326  12.159  10.863
 7010SOL     OW22926   5.698   3.805   0.264
 7010SOL    HW122927   5.702   3.733   0.202
 7010SOL    HW222928   5.729   3.768   0.346
 7011SOL     OW22929   3.990  14.013   9.714
 7011SOL    HW122930   3.925  13.951   9.683
 7011SOL    HW222931   4.057  14.014   9.645
 7012SOL     OW22932   4.150   0.731  10.347
 7012SOL    HW122933   4.126   0.640  10.361
 7012SOL    HW222934   4.202   0.731  10.267
 7013SOL     OW22935   9.215   0.358   8.268
 7013SOL    HW122936   9.153   0.291   8.297
 7013SOL    HW222937   9.301   0.318   8.278
 7014SOL     OW22938   6.066   4.304   1.961
 7014SOL    HW122939   6.031   4.278   2.046
 7014SOL    HW222940   6.101   4.223   1.924
 7015SOL     OW22941  10.873   8.791   3.774
 7015SOL    HW122942  10.883   8.716   3.832
 7015SOL    HW222943  10.963   8.815   3.750
 7016SOL     OW22944   8.196  12.859   9.838
 7016SOL    HW122945   8.238  12.881   9.922
 7016SOL    HW222946   8.265  12.816   9.788
 7017SOL     OW22947   1.029   3.256  14.795
 7017SOL    HW122948   1.004   3.183  14.738
 7017SOL    HW222949   0.997   3.334  14.749
 7018SOL     OW22950  13.886   8.023  10.887
 7018SOL    HW122951  13.962   8.012  10.829
 7018SOL    HW222952  13.913   8.090  10.949
 7019SOL     OW22953   3.563  13.794   6.896
 7019SOL    HW122954   3.578  13.834   6.810
 7019SOL    HW222955   3.567  13.867   6.957
 7020SOL     OW22956   3.760   6.671  11.713
 7020SOL    HW122957   3.760   6.575  11.715
 7020SOL    HW222958   3.733   6.692  11.624
 7021SOL     OW22959   2.016  13.218   1.197
 7021SOL    HW122960   2.073  13.273   1.145
 7021SOL    HW222961   2.050  13.226   1.287
 7022SOL     OW22962   0.171   4.166   8.759
 7022SOL    HW122963   0.124   4.087   8.730
 7022SOL    HW222964   0.136   4.236   8.705
 7023SOL     OW22965  14.663  14.251   9.333
 7023SOL    HW122966  14.723  14.287   9.268
 7023SOL    HW222967  14.653  14.160   9.309
 7024SOL     OW22968  14.447   9.839  11.559
 7024SOL    HW122969  14.446   9.837  11.463
 7024SOL    HW222970  14.539   9.852  11.581
 7025SOL     OW22971   8.971   4.145   8.343
 7025SOL    HW122972   8.953   4.057   8.377
 7025SOL    HW222973   8.953   4.137   8.249
 7026SOL     OW22974   4.814  14.370   9.369
 7026SOL    HW122975   4.746  14.316   9.328
 7026SOL    HW222976   4.803  14.456   9.330
 7027SOL     OW22977   3.791   2.834  13.954
 7027SOL    HW122978   3.811   2.879  13.872
 7027SOL    HW222979   3.874   2.836  14.004
 7028SOL     OW22980   4.297  11.825   9.935
 7028SOL    HW122981   4.327  11.803  10.023
 7028SOL    HW222982   4.271  11.741   9.897
 7029SOL     OW22983   3.206   2.971   6.654
 7029SOL    HW122984   3.158   2.889   6.642
 7029SOL    HW222985   3.296   2.950   6.629
 7030SOL     OW22986   4.663  12.864   7.039
 7030SOL    HW122987   4.716  12.860   6.960
 7030SOL    HW222988   4.705  12.802   7.099
 7031SOL     OW22989   1.586   9.089   9.708
 7031SOL    HW122990   1.580   8.994   9.723
 7031SOL    HW222991   1.525   9.105   9.636
 7032SOL     OW22992   3.285   3.615   0.398
 7032SOL    HW122993   3.368   3.651   0.427
 7032SOL    HW222994   3.277   3.532   0.444
 7033SOL     OW22995  10.309  12.734   1.387
 7033SOL    HW122996  10.237  12.708   1.445
 7033SOL    HW222997  10.367  12.659   1.385
 7034SOL     OW22998   9.828  12.364  11.602
 7034SOL    HW122999   9.841  12.443  11.655
 7034SOL    HW223000   9.877  12.296  11.648
 7035SOL     OW23001  14.276  10.065  10.041
 7035SOL    HW123002  14.237  10.013  10.112
 7035SOL    HW223003  14.206  10.124  10.013
 7036SOL     OW23004   2.097   8.109  11.125
 7036SOL    HW123005   2.047   8.027  11.125
 7036SOL    HW223006   2.177   8.088  11.076
 7037SOL     OW23007  10.494  13.331  11.421
 7037SOL    HW123008  10.511  13.306  11.331
 7037SOL    HW223009  10.405  13.367  11.420
 7038SOL     OW23010   7.192   6.069  14.752
 7038SOL    HW123011   7.227   5.979  14.751
 7038SOL    HW223012   7.134   6.073  14.677
 7039SOL     OW23013   2.987  10.698  14.398
 7039SOL    HW123014   3.008  10.777  14.348
 7039SOL    HW223015   3.035  10.628  14.353
 7040SOL     OW23016   3.642   0.579   4.490
 7040SOL    HW123017   3.552   0.590   4.459
 7040SOL    HW223018   3.692   0.648   4.447
 7041SOL     OW23019  10.813  14.106   5.710
 7041SOL    HW123020  10.745  14.126   5.775
 7041SOL    HW223021  10.865  14.186   5.705
 7042SOL     OW23022  10.716   8.788   7.400
 7042SOL    HW123023  10.771   8.858   7.437
 7042SOL    HW223024  10.769   8.709   7.411
 7043SOL     OW23025   1.766   2.063   1.581
 7043SOL    HW123026   1.749   2.127   1.512
 7043SOL    HW223027   1.728   1.982   1.548
 7044SOL     OW23028   6.446   9.530  14.072
 7044SOL    HW123029   6.512   9.489  14.128
 7044SOL    HW223030   6.463   9.495  13.985
 7045SOL     OW23031   7.811   2.471   7.379
 7045SOL    HW123032   7.754   2.526   7.327
 7045SOL    HW223033   7.788   2.381   7.354
 7046SOL     OW23034   5.828   0.576   5.023
 7046SOL    HW123035   5.902   0.589   4.963
 7046SOL    HW223036   5.785   0.496   4.992
 7047SOL     OW23037   3.493  10.452   2.934
 7047SOL    HW123038   3.432  10.382   2.911
 7047SOL    HW223039   3.532  10.478   2.851
 7048SOL     OW23040   6.132   9.709  11.851
 7048SOL    HW123041   6.135   9.777  11.918
 7048SOL    HW223042   6.222   9.702  11.820
 7049SOL     OW23043   6.084   5.638   1.810
 7049SOL    HW123044   6.083   5.589   1.892
 7049SOL    HW223045   6.160   5.604   1.762
 7050SOL     OW23046   9.010  13.919   6.689
 7050SOL    HW123047   8.923  13.959   6.687
 7050SOL    HW223048   8.994  13.825   6.681
 7051SOL     OW23049   2.040  12.838   3.972
 7051SOL    HW123050   2.009  12.756   3.934
 7051SOL    HW223051   1.960  12.890   3.984
 7052SOL     OW23052   6.916   7.958   2.659
 7052SOL    HW123053   6.907   8.006   2.742
 7052SOL    HW223054   6.837   7.980   2.610
 7053SOL     OW23055   9.079   0.643   0.424
 7053SOL    HW123056   9.009   0.582   0.446
 7053SOL    HW223057   9.080   0.706   0.496
 7054SOL     OW23058   4.961   8.175   7.104
 7054SOL    HW123059   5.031   8.145   7.046
 7054SOL    HW223060   4.886   8.121   7.081
 7055SOL     OW23061   2.555   3.613  11.280
 7055SOL    HW123062   2.625   3.591  11.342
 7055SOL    HW223063   2.576   3.562  11.201
 7056SOL     OW23064   1.310  14.663   0.757
 7056SOL    HW123065   1.380  14.611   0.717
 7056SOL    HW223066   1.286  14.614   0.836
 7057SOL     OW23067   3.087  14.120  13.679
 7057SOL    HW123068   3.143  14.196  13.663
 7057SOL    HW223069   3.082  14.076  13.595
 7058SOL     OW23070   9.062   0.278  11.510
 7058SOL    HW123071   9.143   0.227  11.508
 7058SOL    HW223072   9.006   0.236  11.445
 7059SOL     OW23073   6.384   8.837  12.062
 7059SOL    HW123074   6.408   8.928  12.073
 7059SOL    HW223075   6.373   8.826  11.967
 7060SOL     OW23076   6.095   4.375   8.380
 7060SOL    HW123077   6.117   4.445   8.442
 7060SOL    HW223078   6.110   4.294   8.428
 7061SOL     OW23079   6.127   1.746  10.204
 7061SOL    HW123080   6.136   1.839  10.184
 7061SOL    HW223081   6.077   1.744  10.286
 7062SOL     OW23082  14.393   8.246   5.310
 7062SOL    HW123083  14.348   8.162   5.320
 7062SOL    HW223084  14.413   8.250   5.216
 7063SOL     OW23085   7.690   2.340  14.745
 7063SOL    HW123086   7.773   2.376  14.714
 7063SOL    HW223087   7.715   2.258  14.789
 7064SOL     OW23088   9.016  14.381   8.907
 7064SOL    HW123089   8.985  14.400   8.819
 7064SOL    HW223090   9.094  14.437   8.918
 7065SOL     OW23091  11.956   3.411  10.281
 7065SOL    HW123092  12.050   3.391  10.280
 7065SOL    HW223093  11.948   3.491  10.230
 7066SOL     OW23094  13.014   3.587   7.357
 7066SOL    HW123095  13.000   3.579   7.452
 7066SOL    HW223096  13.094   3.639   7.348
 7067SOL     OW23097  14.726   3.465   2.517
 7067SOL    HW123098  14.693   3.537   2.464
 7067SOL    HW223099  14.725   3.499   2.607
 7068SOL     OW23100   3.074   9.400   3.983
 7068SOL    HW123101   3.054   9.350   4.062
 7068SOL    HW223102   3.134   9.343   3.934
 7069SOL     OW23103   5.820   8.178   9.958
 7069SOL    HW123104   5.877   8.189   9.882
 7069SOL    HW223105   5.747   8.237   9.941
 7070SOL     OW23106  13.879  12.748  13.633
 7070SOL    HW123107  13.934  12.756  13.555
 7070SOL    HW223108  13.835  12.664  13.622
 7071SOL     OW23109  10.321   2.217  14.256
 7071SOL    HW123110  10.246   2.226  14.198
 7071SOL    HW223111  10.363   2.303  14.256
 7072SOL     OW23112   7.659   3.334   2.404
 7072SOL    HW123113   7.718   3.406   2.382
 7072SOL    HW223114   7.680   3.313   2.495
 7073SOL     OW23115   8.548   5.113   6.440
 7073SOL    HW123116   8.615   5.097   6.373
 7073SOL    HW223117   8.475   5.151   6.392
 7074SOL     OW23118   7.339   3.321   0.928
 7074SOL    HW123119   7.288   3.292   1.004
 7074SOL    HW223120   7.300   3.274   0.854
 7075SOL     OW23121   5.114  11.831   2.460
 7075SOL    HW123122   5.174  11.850   2.389
 7075SOL    HW223123   5.082  11.743   2.442
 7076SOL     OW23124   9.920   2.678   2.064
 7076SOL    HW123125   9.844   2.729   2.035
 7076SOL    HW223126   9.957   2.729   2.136
 7077SOL     OW23127   0.124   8.614   7.112
 7077SOL    HW123128   0.178   8.631   7.189
 7077SOL    HW223129   0.179   8.639   7.038
 7078SOL     OW23130   8.570   8.071   0.564
 7078SOL    HW123131   8.619   8.137   0.614
 7078SOL    HW223132   8.626   8.052   0.489
 7079SOL     OW23133   6.788  10.237   4.050
 7079SOL    HW123134   6.862  10.204   4.100
 7079SOL    HW223135   6.728  10.162   4.043
 7080SOL     OW23136   3.052   4.909   6.560
 7080SOL    HW123137   2.978   4.852   6.537
 7080SOL    HW223138   3.090   4.934   6.475
 7081SOL     OW23139   7.245   6.325   9.959
 7081SOL    HW123140   7.292   6.334  10.042
 7081SOL    HW223141   7.228   6.415   9.932
 7082SOL     OW23142  11.835  11.093   3.073
 7082SOL    HW123143  11.815  11.039   2.997
 7082SOL    HW223144  11.796  11.046   3.147
 7083SOL     OW23145   5.719   0.058   4.809
 7083SOL    HW123146   5.665  14.869   4.847
 7083SOL    HW223147   5.662   0.099   4.744
 7084SOL     OW23148   2.546   1.344   7.480
 7084SOL    HW123149   2.544   1.265   7.534
 7084SOL    HW223150   2.544   1.311   7.390
 7085SOL     OW23151  11.139   4.606  12.786
 7085SOL    HW123152  11.073   4.563  12.840
 7085SOL    HW223153  11.169   4.680  12.839
 7086SOL     OW23154  10.198  11.585  13.004
 7086SOL    HW123155  10.146  11.536  12.940
 7086SOL    HW223156  10.134  11.637  13.053
 7087SOL     OW23157   1.865   8.640   7.834
 7087SOL    HW123158   1.907   8.616   7.752
 7087SOL    HW223159   1.915   8.716   7.865
 7088SOL     OW23160  13.122  14.706   7.694
 7088SOL    HW123161  13.028  14.693   7.684
 7088SOL    HW223162  13.131  14.774   7.760
 7089SOL     OW23163  13.726  11.101   6.818
 7089SOL    HW123164  13.766  11.150   6.891
 7089SOL    HW223165  13.676  11.032   6.861
 7090SOL     OW23166  13.001   3.184  14.512
 7090SOL    HW123167  13.059   3.210  14.440
 7090SOL    HW223168  12.932   3.251  14.512
 7091SOL     OW23169   5.905   2.347   8.003
 7091SOL    HW123170   5.942   2.420   8.052
 7091SOL    HW223171   5.915   2.373   7.911
 7092SOL     OW23172   7.911  10.099  10.827
 7092SOL    HW123173   7.975  10.037  10.791
 7092SOL    HW223174   7.926  10.180  10.778
 7093SOL     OW23175   7.552  11.812   2.609
 7093SOL    HW123176   7.539  11.907   2.600
 7093SOL    HW223177   7.609  11.803   2.685
 7094SOL     OW23178   5.466  13.567   6.408
 7094SOL    HW123179   5.506  13.616   6.336
 7094SOL    HW223180   5.497  13.477   6.397
 7095SOL     OW23181  11.912   8.736  14.397
 7095SOL    HW123182  11.889   8.654  14.352
 7095SOL    HW223183  11.969   8.782  14.336
 7096SOL     OW23184   9.291  14.261   0.176
 7096SOL    HW123185   9.214  14.255   0.120
 7096SOL    HW223186   9.327  14.348   0.158
 7097SOL     OW23187   2.763   7.287   4.722
 7097SOL    HW123188   2.724   7.199   4.723
 7097SOL    HW223189   2.812   7.292   4.804
 7098SOL     OW23190   9.271   7.147   1.957
 7098SOL    HW123191   9.182   7.124   1.982
 7098SOL    HW223192   9.321   7.137   2.038
 7099SOL     OW23193   8.455   8.323   8.201
 7099SOL    HW123194   8.510   8.321   8.279
 7099SOL    HW223195   8.374   8.279   8.228
 7100SOL     OW23196   2.157  13.517   9.043
 7100SOL    HW123197   2.231  13.487   9.095
 7100SOL    HW223198   2.102  13.566   9.104
 7101SOL     OW23199  13.851   3.083  13.863
 7101SOL    HW123200  13.818   3.171  13.878
 7101SOL    HW223201  13.807   3.029  13.929
 7102SOL     OW23202  11.029   5.061  14.119
 7102SOL    HW123203  10.939   5.072  14.089
 7102SOL    HW223204  11.067   5.149  14.114
 7103SOL     OW23205  12.764  13.773  14.260
 7103SOL    HW123206  12.762  13.692  14.310
 7103SOL    HW223207  12.711  13.754  14.182
 7104SOL     OW23208  10.253  11.795   8.318
 7104SOL    HW123209  10.184  11.760   8.375
 7104SOL    HW223210  10.328  11.738   8.334
 7105SOL     OW23211   5.837   2.222   5.959
 7105SOL    HW123212   5.753   2.268   5.951
 7105SOL    HW223213   5.829   2.169   6.039
 7106SOL     OW23214   4.942  12.040   4.012
 7106SOL    HW123215   4.921  12.013   4.102
 7106SOL    HW223216   4.870  12.006   3.959
 7107SOL     OW23217  14.417  12.732   6.357
 7107SOL    HW123218  14.361  12.773   6.423
 7107SOL    HW223219  14.380  12.644   6.346
 7108SOL     OW23220  14.595   8.956  12.867
 7108SOL    HW123221  14.649   9.035  12.857
 7108SOL    HW223222  14.511   8.989  12.898
 7109SOL     OW23223   0.384  10.293  11.302
 7109SOL    HW123224   0.478  10.283  11.292
 7109SOL    HW223225   0.347  10.213  11.263
 7110SOL     OW23226   9.710   7.742  13.771
 7110SOL    HW123227   9.759   7.670  13.731
 7110SOL    HW223228   9.776   7.809  13.788
 7111SOL     OW23229   0.998  11.200  12.029
 7111SOL    HW123230   1.079  11.196  11.979
 7111SOL    HW223231   0.979  11.294  12.036
 7112SOL     OW23232   6.775   3.621  11.330
 7112SOL    HW123233   6.688   3.638  11.295
 7112SOL    HW223234   6.761   3.557  11.400
 7113SOL     OW23235   5.636  10.070  10.491
 7113SOL    HW123236   5.709  10.094  10.548
 7113SOL    HW223237   5.613   9.981  10.518
 7114SOL     OW23238   0.971  14.371  14.483
 7114SOL    HW123239   0.894  14.324  14.514
 7114SOL    HW223240   1.045  14.321  14.517
 7115SOL     OW23241  10.067  10.251  11.837
 7115SOL    HW123242  10.025  10.337  11.841
 7115SOL    HW223243  10.001  10.194  11.800
 7116SOL     OW23244  10.110   8.525   2.611
 7116SOL    HW123245  10.129   8.530   2.705
 7116SOL    HW223246  10.098   8.617   2.584
 7117SOL     OW23247   6.688   0.686   6.799
 7117SOL    HW123248   6.669   0.699   6.892
 7117SOL    HW223249   6.763   0.743   6.781
 7118SOL     OW23250  11.951  13.730  12.643
 7118SOL    HW123251  11.907  13.706  12.725
 7118SOL    HW223252  11.958  13.648  12.594
 7119SOL     OW23253   2.198  14.831  14.671
 7119SOL    HW123254   2.191  14.786  14.755
 7119SOL    HW223255   2.273  14.790  14.628
 7120SOL     OW23256   1.198   1.694   8.753
 7120SOL    HW123257   1.249   1.673   8.674
 7120SOL    HW223258   1.233   1.778   8.782
 7121SOL     OW23259   8.292  13.345  13.489
 7121SOL    HW123260   8.246  13.382  13.564
 7121SOL    HW223261   8.251  13.259  13.476
 7122SOL     OW23262   6.875  12.096   3.334
 7122SOL    HW123263   6.886  12.006   3.366
 7122SOL    HW223264   6.947  12.108   3.272
 7123SOL     OW23265   4.116  13.444   3.809
 7123SOL    HW123266   4.140  13.526   3.852
 7123SOL    HW223267   4.052  13.469   3.743
 7124SOL     OW23268  14.347  11.424  13.596
 7124SOL    HW123269  14.417  11.366  13.567
 7124SOL    HW223270  14.338  11.407  13.690
 7125SOL     OW23271   3.939   1.828  10.296
 7125SOL    HW123272   4.005   1.829  10.364
 7125SOL    HW223273   3.905   1.917  10.292
 7126SOL     OW23274  11.614  11.929  10.220
 7126SOL    HW123275  11.623  12.024  10.221
 7126SOL    HW223276  11.702  11.897  10.241
 7127SOL     OW23277   1.121   6.983   7.384
 7127SOL    HW123278   1.208   6.951   7.405
 7127SOL    HW223279   1.134   7.075   7.361
 7128SOL     OW23280  14.562   8.475  12.106
 7128SOL    HW123281  14.637   8.416  12.094
 7128SOL    HW223282  14.490   8.430  12.061
 7129SOL     OW23283   1.306  11.515   8.126
 7129SOL    HW123284   1.216  11.500   8.154
 7129SOL    HW223285   1.301  11.515   8.030
 7130SOL     OW23286  13.922   2.301   2.165
 7130SOL    HW123287  13.863   2.297   2.240
 7130SOL    HW223288  13.971   2.219   2.169
 7131SOL     OW23289  11.917   1.038   7.303
 7131SOL    HW123290  11.832   1.077   7.321
 7131SOL    HW223291  11.910   1.003   7.214
 7132SOL     OW23292   8.893   5.209   4.367
 7132SOL    HW123293   8.961   5.224   4.301
 7132SOL    HW223294   8.833   5.283   4.357
 7133SOL     OW23295  11.738  13.726  10.792
 7133SOL    HW123296  11.822  13.751  10.831
 7133SOL    HW223297  11.734  13.631  10.801
 7134SOL     OW23298  10.436   9.913  14.103
 7134SOL    HW123299  10.353   9.887  14.064
 7134SOL    HW223300  10.495   9.926  14.028
 7135SOL     OW23301  10.630  11.343   7.268
 7135SOL    HW123302  10.624  11.254   7.234
 7135SOL    HW223303  10.712  11.344   7.318
 7136SOL     OW23304  11.655   3.974   5.347
 7136SOL    HW123305  11.704   4.048   5.313
 7136SOL    HW223306  11.580   4.012   5.393
 7137SOL     OW23307  10.428   2.730   9.720
 7137SOL    HW123308  10.418   2.825   9.716
 7137SOL    HW223309  10.520   2.715   9.697
 7138SOL     OW23310   9.305   3.554  14.323
 7138SOL    HW123311   9.246   3.578  14.395
 7138SOL    HW223312   9.325   3.638  14.280
 7139SOL     OW23313   8.231  10.061  13.041
 7139SOL    HW123314   8.184  10.125  12.986
 7139SOL    HW223315   8.271  10.114  13.109
 7140SOL     OW23316   9.482   8.220  13.406
 7140SOL    HW123317   9.451   8.311  13.403
 7140SOL    HW223318   9.430   8.175  13.340
 7141SOL     OW23319   5.380  11.450  10.455
 7141SOL    HW123320   5.468  11.483  10.473
 7141SOL    HW223321   5.357  11.399  10.532
 7142SOL     OW23322   7.132  14.302   0.751
 7142SOL    HW123323   7.106  14.250   0.827
 7142SOL    HW223324   7.056  14.298   0.692
 7143SOL     OW23325   5.246   3.360   9.571
 7143SOL    HW123326   5.320   3.349   9.630
 7143SOL    HW223327   5.196   3.432   9.608
 7144SOL     OW23328   2.307  11.853  11.347
 7144SOL    HW123329   2.223  11.810  11.365
 7144SOL    HW223330   2.350  11.796  11.283
 7145SOL     OW23331   4.241  13.315   4.749
 7145SOL    HW123332   4.304  13.248   4.778
 7145SOL    HW223333   4.274  13.397   4.786
 7146SOL     OW23334  11.606   2.180  12.361
 7146SOL    HW123335  11.519   2.173  12.402
 7146SOL    HW223336  11.623   2.093  12.326
 7147SOL     OW23337   0.568   4.755   5.229
 7147SOL    HW123338   0.599   4.711   5.149
 7147SOL    HW223339   0.548   4.845   5.201
 7148SOL     OW23340   5.657   8.987   0.152
 7148SOL    HW123341   5.673   9.064   0.097
 7148SOL    HW223342   5.565   8.966   0.139
 7149SOL     OW23343   2.187   5.361   0.568
 7149SOL    HW123344   2.217   5.282   0.614
 7149SOL    HW223345   2.224   5.354   0.480
 7150SOL     OW23346  10.827   0.893  13.237
 7150SOL    HW123347  10.884   0.816  13.244
 7150SOL    HW223348  10.887   0.967  13.235
 7151SOL     OW23349   9.810   2.301   9.719
 7151SOL    HW123350   9.898   2.323   9.750
 7151SOL    HW223351   9.755   2.308   9.797
 7152SOL     OW23352   0.877  10.734  13.638
 7152SOL    HW123353   0.828  10.761  13.716
 7152SOL    HW223354   0.933  10.810  13.618
 7153SOL     OW23355  13.885  11.231  12.958
 7153SOL    HW123356  13.942  11.158  12.934
 7153SOL    HW223357  13.866  11.218  13.051
 7154SOL     OW23358  11.142   3.888  11.539
 7154SOL    HW123359  11.047   3.887  11.555
 7154SOL    HW223360  11.159   3.972  11.497
 7155SOL     OW23361   6.037  13.363   0.061
 7155SOL    HW123362   6.119  13.381   0.014
 7155SOL    HW223363   6.011  13.447   0.098
 7156SOL     OW23364  11.032   5.881   7.580
 7156SOL    HW123365  10.942   5.860   7.604
 7156SOL    HW223366  11.085   5.815   7.625
 7157SOL     OW23367   4.374   2.784   0.247
 7157SOL    HW123368   4.419   2.712   0.202
 7157SOL    HW223369   4.421   2.793   0.329
 7158SOL     OW23370  13.802   8.629   3.585
 7158SOL    HW123371  13.715   8.594   3.603
 7158SOL    HW223372  13.823   8.682   3.662
 7159SOL     OW23373   5.165   5.808   1.464
 7159SOL    HW123374   5.251   5.842   1.440
 7159SOL    HW223375   5.160   5.723   1.421
 7160SOL     OW23376   0.237   4.339   3.131
 7160SOL    HW123377   0.179   4.320   3.204
 7160SOL    HW223378   0.297   4.406   3.165
 7161SOL     OW23379   6.760   5.381  10.974
 7161SOL    HW123380   6.818   5.452  11.000
 7161SOL    HW223381   6.798   5.303  11.013
 7162SOL     OW23382  10.681  14.403  13.583
 7162SOL    HW123383  10.645  14.314  13.580
 7162SOL    HW223384  10.669  14.437  13.494
 7163SOL     OW23385  14.505  13.386   7.749
 7163SOL    HW123386  14.412  13.402   7.761
 7163SOL    HW223387  14.518  13.296   7.777
 7164SOL     OW23388   4.728  10.010  12.929
 7164SOL    HW123389   4.791  10.041  12.863
 7164SOL    HW223390   4.725   9.915  12.915
 7165SOL     OW23391   2.609  12.291   3.752
 7165SOL    HW123392   2.616  12.230   3.826
 7165SOL    HW223393   2.694  12.336   3.750
 7166SOL     OW23394   4.103   9.173   1.029
 7166SOL    HW123395   4.147   9.241   0.978
 7166SOL    HW223396   4.061   9.117   0.964
 7167SOL     OW23397   8.671   8.307  10.591
 7167SOL    HW123398   8.766   8.311  10.583
 7167SOL    HW223399   8.640   8.286  10.503
 7168SOL     OW23400  12.343  10.358   9.084
 7168SOL    HW123401  12.377  10.272   9.058
 7168SOL    HW223402  12.248  10.348   9.083
 7169SOL     OW23403  11.904   9.048   1.370
 7169SOL    HW123404  11.928   9.043   1.278
 7169SOL    HW223405  11.973   9.001   1.416
 7170SOL     OW23406  12.567   2.644  11.771
 7170SOL    HW123407  12.625   2.691  11.832
 7170SOL    HW223408  12.626   2.610  11.704
 7171SOL     OW23409  13.871  11.676  11.557
 7171SOL    HW123410  13.845  11.612  11.624
 7171SOL    HW223411  13.801  11.673  11.492
 7172SOL     OW23412   3.843   0.661   8.039
 7172SOL    HW123413   3.933   0.652   8.072
 7172SOL    HW223414   3.852   0.674   7.945
 7173SOL     OW23415  13.619   9.988  13.878
 7173SOL    HW123416  13.640   9.895  13.886
 7173SOL    HW223417  13.675  10.020  13.807
 7174SOL     OW23418   6.976   7.415  14.562
 7174SOL    HW123419   6.931   7.499  14.549
 7174SOL    HW223420   7.056   7.423  14.509
 7175SOL     OW23421   9.384   4.631   5.242
 7175SOL    HW123422   9.305   4.637   5.188
 7175SOL    HW223423   9.455   4.616   5.178
 7176SOL     OW23424   6.996   3.800   9.186
 7176SOL    HW123425   7.065   3.806   9.121
 7176SOL    HW223426   6.954   3.716   9.169
 7177SOL     OW23427   5.090   9.417  11.883
 7177SOL    HW123428   5.172   9.378  11.851
 7177SOL    HW223429   5.086   9.391  11.975
 7178SOL     OW23430   6.527   9.590  10.909
 7178SOL    HW123431   6.528   9.629  10.822
 7178SOL    HW223432   6.586   9.515  10.903
 7179SOL     OW23433   9.506  13.528   8.745
 7179SOL    HW123434   9.484  13.439   8.720
 7179SOL    HW223435   9.425  13.564   8.782
 7180SOL     OW23436  14.317  14.012  13.370
 7180SOL    HW123437  14.387  13.992  13.307
 7180SOL    HW223438  14.345  13.968  13.451
 7181SOL     OW23439   5.558  14.456   0.691
 7181SOL    HW123440   5.556  14.530   0.752
 7181SOL    HW223441   5.557  14.497   0.604
 7182SOL     OW23442   5.830  10.994   4.939
 7182SOL    HW123443   5.822  11.002   4.844
 7182SOL    HW223444   5.765  10.928   4.963
 7183SOL     OW23445  12.279   2.280   1.381
 7183SOL    HW123446  12.234   2.268   1.465
 7183SOL    HW223447  12.315   2.194   1.360
 7184SOL     OW23448  12.629   5.518   6.456
 7184SOL    HW123449  12.599   5.529   6.366
 7184SOL    HW223450  12.723   5.532   6.452
 7185SOL     OW23451  11.914   6.852  13.646
 7185SOL    HW123452  11.914   6.763  13.682
 7185SOL    HW223453  11.895   6.908  13.721
 7186SOL     OW23454   9.168   8.867   1.736
 7186SOL    HW123455   9.099   8.933   1.738
 7186SOL    HW223456   9.148   8.814   1.659
 7187SOL     OW23457  10.216  13.489  12.124
 7187SOL    HW123458  10.310  13.493  12.110
 7187SOL    HW223459  10.197  13.563  12.182
 7188SOL     OW23460   3.045   1.232  13.803
 7188SOL    HW123461   3.047   1.319  13.763
 7188SOL    HW223462   3.014   1.247  13.892
 7189SOL     OW23463   8.355   9.715   7.723
 7189SOL    HW123464   8.418   9.765   7.671
 7189SOL    HW223465   8.380   9.731   7.814
 7190SOL     OW23466   4.918  13.458  12.611
 7190SOL    HW123467   4.893  13.534  12.663
 7190SOL    HW223468   4.984  13.490  12.550
 7191SOL     OW23469  12.238  13.203  10.722
 7191SOL    HW123470  12.303  13.133  10.720
 7191SOL    HW223471  12.155  13.160  10.699
 7192SOL     OW23472   5.165   2.820   4.991
 7192SOL    HW123473   5.176   2.861   5.076
 7192SOL    HW223474   5.239   2.760   4.983
 7193SOL     OW23475   3.295   8.554   9.423
 7193SOL    HW123476   3.354   8.511   9.485
 7193SOL    HW223477   3.231   8.599   9.479
 7194SOL     OW23478  14.599   2.489   5.223
 7194SOL    HW123479  14.519   2.521   5.264
 7194SOL    HW223480  14.670   2.529   5.274
 7195SOL     OW23481  11.048   1.241   6.461
 7195SOL    HW123482  10.978   1.228   6.526
 7195SOL    HW223483  11.043   1.334   6.439
 7196SOL     OW23484  11.561   1.177  11.859
 7196SOL    HW123485  11.528   1.251  11.909
 7196SOL    HW223486  11.484   1.142  11.814
 7197SOL     OW23487  10.200   6.963   1.470
 7197SOL    HW123488  10.172   6.883   1.426
 7197SOL    HW223489  10.140   7.030   1.439
 7198SOL     OW23490  14.852   0.010   2.936
 7198SOL    HW123491   0.032   0.084   2.926
 7198SOL    HW223492   0.018  14.830   2.993
 7199SOL     OW23493   3.772  11.270  10.130
 7199SOL    HW123494   3.732  11.288  10.046
 7199SOL    HW223495   3.791  11.176  10.129
 7200SOL     OW23496   7.002   3.078   7.856
 7200SOL    HW123497   7.084   3.034   7.879
 7200SOL    HW223498   6.994   3.067   7.761
 7201SOL     OW23499   5.835  14.031   6.787
 7201SOL    HW123500   5.741  14.041   6.772
 7201SOL    HW223501   5.855  13.942   6.760
 7202SOL     OW23502  14.331  13.638   7.584
 7202SOL    HW123503  14.293  13.589   7.657
 7202SOL    HW223504  14.332  13.576   7.511
 7203SOL     OW23505   0.218  10.880  11.841
 7203SOL    HW123506   0.296  10.827  11.857
 7203SOL    HW223507   0.172  10.879  11.925
 7204SOL     OW23508  13.555   1.946  14.282
 7204SOL    HW123509  13.564   1.967  14.189
 7204SOL    HW223510  13.509   1.862  14.283
 7205SOL     OW23511  12.130   6.617   6.366
 7205SOL    HW123512  12.217   6.583   6.387
 7205SOL    HW223513  12.070   6.545   6.385
 7206SOL     OW23514   1.365   9.050   7.602
 7206SOL    HW123515   1.270   9.043   7.611
 7206SOL    HW223516   1.384   9.142   7.622
 7207SOL     OW23517  13.576   6.377   9.968
 7207SOL    HW123518  13.652   6.419   9.928
 7207SOL    HW223519  13.579   6.404  10.060
 7208SOL     OW23520   4.536   7.705   3.227
 7208SOL    HW123521   4.520   7.667   3.140
 7208SOL    HW223522   4.631   7.700   3.239
 7209SOL     OW23523  11.869   1.300  13.556
 7209SOL    HW123524  11.785   1.264  13.531
 7209SOL    HW223525  11.863   1.312  13.651
 7210SOL     OW23526  11.340   6.820   4.340
 7210SOL    HW123527  11.398   6.758   4.294
 7210SOL    HW223528  11.345   6.900   4.288
 7211SOL     OW23529   3.209   7.068  12.772
 7211SOL    HW123530   3.141   7.111  12.721
 7211SOL    HW223531   3.206   7.110  12.858
 7212SOL     OW23532   9.871   6.056   6.176
 7212SOL    HW123533   9.836   6.044   6.088
 7212SOL    HW223534   9.881   6.151   6.186
 7213SOL     OW23535  11.163   8.230   4.480
 7213SOL    HW123536  11.213   8.309   4.501
 7213SOL    HW223537  11.177   8.217   4.386
 7214SOL     OW23538   9.807   2.942  14.504
 7214SOL    HW123539   9.717   2.959  14.477
 7214SOL    HW223540   9.806   2.958  14.599
 7215SOL     OW23541  12.328   9.146   4.586
 7215SOL    HW123542  12.276   9.206   4.639
 7215SOL    HW223543  12.295   9.158   4.497
 7216SOL     OW23544  13.071  10.240  12.969
 7216SOL    HW123545  13.130  10.290  12.913
 7216SOL    HW223546  12.984  10.254  12.930
 7217SOL     OW23547   6.255   3.043  11.140
 7217SOL    HW123548   6.211   2.975  11.190
 7217SOL    HW223549   6.268   3.005  11.053
 7218SOL     OW23550  10.860   5.931   0.098
 7218SOL    HW123551  10.872   6.023   0.076
 7218SOL    HW223552  10.870   5.927   0.193
 7219SOL     OW23553   8.584  12.633  12.307
 7219SOL    HW123554   8.586  12.650  12.213
 7219SOL    HW223555   8.493  12.608  12.325
 7220SOL     OW23556   6.275  13.799  13.666
 7220SOL    HW123557   6.365  13.769  13.655
 7220SOL    HW223558   6.246  13.759  13.748
 7221SOL     OW23559   9.429  14.842   5.341
 7221SOL    HW123560   9.472  14.783   5.279
 7221SOL    HW223561   9.459   0.049   5.317
 7222SOL     OW23562   4.475   2.830  12.125
 7222SOL    HW123563   4.542   2.808  12.061
 7222SOL    HW223564   4.430   2.906  12.088
 7223SOL     OW23565  14.246   0.508   1.895
 7223SOL    HW123566  14.280   0.437   1.841
 7223SOL    HW223567  14.232   0.580   1.834
 7224SOL     OW23568  11.328   8.733   0.477
 7224SOL    HW123569  11.288   8.683   0.548
 7224SOL    HW223570  11.289   8.698   0.397
 7225SOL     OW23571  11.212  13.322   2.566
 7225SOL    HW123572  11.156  13.305   2.490
 7225SOL    HW223573  11.218  13.238   2.610
 7226SOL     OW23574   1.088   6.567   3.034
 7226SOL    HW123575   1.104   6.617   2.954
 7226SOL    HW223576   1.015   6.613   3.077
 7227SOL     OW23577  12.268   9.159   4.180
 7227SOL    HW123578  12.182   9.171   4.220
 7227SOL    HW223579  12.267   9.069   4.148
 7228SOL     OW23580  12.715  11.192   8.991
 7228SOL    HW123581  12.652  11.219   8.925
 7228SOL    HW223582  12.756  11.273   9.020
 7229SOL     OW23583   0.130   0.752  14.772
 7229SOL    HW123584   0.134   0.795  14.686
 7229SOL    HW223585   0.218   0.718  14.786
 7230SOL     OW23586  11.328  12.574   2.795
 7230SOL    HW123587  11.381  12.546   2.869
 7230SOL    HW223588  11.273  12.498   2.774
 7231SOL     OW23589   5.694   5.463  13.265
 7231SOL    HW123590   5.693   5.506  13.350
 7231SOL    HW223591   5.759   5.393  13.274
 7232SOL     OW23592   9.130  12.408   8.541
 7232SOL    HW123593   9.140  12.495   8.503
 7232SOL    HW223594   9.126  12.349   8.466
 7233SOL     OW23595  13.232   8.728   0.690
 7233SOL    HW123596  13.145   8.746   0.725
 7233SOL    HW223597  13.226   8.751   0.597
 7234SOL     OW23598  12.790  10.387  14.508
 7234SOL    HW123599  12.737  10.334  14.568
 7234SOL    HW223600  12.855  10.326  14.473
 7235SOL     OW23601   1.225   2.422  14.519
 7235SOL    HW123602   1.300   2.448  14.465
 7235SOL    HW223603   1.186   2.506  14.546
 7236SOL     OW23604   9.718  10.777  14.645
 7236SOL    HW123605   9.728  10.831  14.723
 7236SOL    HW223606   9.657  10.825  14.590
 7237SOL     OW23607  11.260   6.163  11.848
 7237SOL    HW123608  11.348   6.201  11.844
 7237SOL    HW223609  11.203   6.232  11.813
 7238SOL     OW23610   8.596  12.645   7.166
 7238SOL    HW123611   8.647  12.583   7.218
 7238SOL    HW223612   8.550  12.591   7.102
 7239SOL     OW23613  12.892   6.822  11.120
 7239SOL    HW123614  12.867   6.756  11.056
 7239SOL    HW223615  12.978   6.795  11.150
 7240SOL     OW23616   1.188   8.851   7.129
 7240SOL    HW123617   1.211   8.761   7.109
 7240SOL    HW223618   1.177   8.893   7.044
 7241SOL     OW23619   1.690   0.767   7.976
 7241SOL    HW123620   1.662   0.844   7.927
 7241SOL    HW223621   1.760   0.729   7.924
 7242SOL     OW23622  11.132  12.606  14.258
 7242SOL    HW123623  11.095  12.598  14.170
 7242SOL    HW223624  11.220  12.639  14.245
 7243SOL     OW23625  14.696   8.269   9.111
 7243SOL    HW123626  14.695   8.181   9.074
 7243SOL    HW223627  14.609   8.303   9.094
 7244SOL     OW23628   3.978   9.446   7.708
 7244SOL    HW123629   3.889   9.425   7.680
 7244SOL    HW223630   4.022   9.361   7.712
 7245SOL     OW23631   7.507   0.595  14.320
 7245SOL    HW123632   7.468   0.680  14.337
 7245SOL    HW223633   7.437   0.532  14.336
 7246SOL     OW23634   0.985  10.400   9.638
 7246SOL    HW123635   0.979  10.307   9.660
 7246SOL    HW223636   1.076  10.423   9.655
 7247SOL     OW23637   2.826  10.361   5.108
 7247SOL    HW123638   2.859  10.444   5.073
 7247SOL    HW223639   2.738  10.354   5.071
 7248SOL     OW23640  12.810   5.033   7.457
 7248SOL    HW123641  12.723   4.995   7.443
 7248SOL    HW223642  12.834   5.070   7.372
 7249SOL     OW23643   2.351  14.105   1.819
 7249SOL    HW123644   2.396  14.171   1.766
 7249SOL    HW223645   2.343  14.029   1.760
 7250SOL     OW23646   9.920   2.736  12.543
 7250SOL    HW123647   9.972   2.816  12.548
 7250SOL    HW223648   9.837   2.760  12.584
 7251SOL     OW23649   7.395  13.316  11.276
 7251SOL    HW123650   7.478  13.358  11.300
 7251SOL    HW223651   7.329  13.385  11.284
 7252SOL     OW23652  14.762   2.771  12.077
 7252SOL    HW123653  14.675   2.772  12.117
 7252SOL    HW223654  14.798   2.685  12.100
 7253SOL     OW23655   6.210  13.798  11.333
 7253SOL    HW123656   6.207  13.816  11.427
 7253SOL    HW223657   6.181  13.880  11.292
 7254SOL     OW23658   7.463   0.946   8.254
 7254SOL    HW123659   7.448   1.040   8.251
 7254SOL    HW223660   7.412   0.911   8.181
 7255SOL     OW23661   2.653   9.795   0.297
 7255SOL    HW123662   2.619   9.741   0.226
 7255SOL    HW223663   2.634   9.745   0.377
 7256SOL     OW23664   6.667  12.325   3.656
 7256SOL    HW123665   6.573  12.341   3.665
 7256SOL    HW223666   6.683  12.325   3.562
 7257SOL     OW23667   0.875   7.014   7.290
 7257SOL    HW123668   0.957   7.012   7.339
 7257SOL    HW223669   0.881   6.939   7.231
 7258SOL     OW23670   8.217   3.050   3.363
 7258SOL    HW123671   8.157   3.087   3.427
 7258SOL    HW223672   8.168   3.048   3.281
 7259SOL     OW23673   6.866  10.190   5.284
 7259SOL    HW123674   6.916  10.127   5.233
 7259SOL    HW223675   6.903  10.184   5.372
 7260SOL     OW23676  12.106  13.760  13.968
 7260SOL    HW123677  12.094  13.665  13.965
 7260SOL    HW223678  12.021  13.796  13.943
 7261SOL     OW23679   5.146  11.923   8.264
 7261SOL    HW123680   5.210  11.856   8.288
 7261SOL    HW223681   5.102  11.888   8.186
 7262SOL     OW23682   4.902   7.604  13.982
 7262SOL    HW123683   4.845   7.543  13.937
 7262SOL    HW223684   4.989   7.564  13.977
 7263SOL     OW23685   2.868   0.445   7.318
 7263SOL    HW123686   2.872   0.519   7.379
 7263SOL    HW223687   2.791   0.396   7.347
 7264SOL     OW23688   6.281   3.498   6.741
 7264SOL    HW123689   6.285   3.436   6.669
 7264SOL    HW223690   6.286   3.584   6.698
 7265SOL     OW23691  14.447   5.312   5.229
 7265SOL    HW123692  14.501   5.256   5.284
 7265SOL    HW223693  14.509   5.373   5.189
 7266SOL     OW23694   9.127  11.503   4.830
 7266SOL    HW123695   9.156  11.423   4.785
 7266SOL    HW223696   9.037  11.484   4.855
 7267SOL     OW23697   5.442   5.255  11.315
 7267SOL    HW123698   5.489   5.244  11.232
 7267SOL    HW223699   5.378   5.184  11.316
 7268SOL     OW23700  10.270  13.328   0.805
 7268SOL    HW123701  10.326  13.403   0.825
 7268SOL    HW223702  10.275  13.274   0.884
 7269SOL     OW23703   8.507  12.065   3.687
 7269SOL    HW123704   8.546  12.116   3.758
 7269SOL    HW223705   8.512  11.974   3.717
 7270SOL     OW23706   2.211   0.505   4.690
 7270SOL    HW123707   2.197   0.483   4.598
 7270SOL    HW223708   2.244   0.595   4.688
 7271SOL     OW23709   2.188   1.130   4.828
 7271SOL    HW123710   2.161   1.132   4.737
 7271SOL    HW223711   2.119   1.177   4.875
 7272SOL     OW23712   5.982  11.756   9.758
 7272SOL    HW123713   5.928  11.688   9.719
 7272SOL    HW223714   5.931  11.787   9.833
 7273SOL     OW23715   1.376   2.858   5.812
 7273SOL    HW123716   1.392   2.926   5.878
 7273SOL    HW223717   1.338   2.786   5.861
 7274SOL     OW23718   5.961   5.861  11.459
 7274SOL    HW123719   5.996   5.888  11.544
 7274SOL    HW223720   5.925   5.774  11.475
 7275SOL     OW23721   7.356   0.470  11.155
 7275SOL    HW123722   7.441   0.501  11.126
 7275SOL    HW223723   7.352   0.378  11.126
 7276SOL     OW23724   5.040   3.008   0.037
 7276SOL    HW123725   5.040   2.917   0.006
 7276SOL    HW223726   5.083   3.057  14.847
 7277SOL     OW23727   5.800   4.726   9.460
 7277SOL    HW123728   5.704   4.728   9.466
 7277SOL    HW223729   5.830   4.729   9.550
 7278SOL     OW23730  14.016   5.953   5.662
 7278SOL    HW123731  14.093   5.897   5.672
 7278SOL    HW223732  13.986   5.937   5.573
 7279SOL     OW23733   7.242  10.525   3.176
 7279SOL    HW123734   7.286  10.606   3.202
 7279SOL    HW223735   7.266  10.514   3.083
 7280SOL     OW23736   9.105  13.715  13.057
 7280SOL    HW123737   9.112  13.645  12.992
 7280SOL    HW223738   9.079  13.671  13.138
 7281SOL     OW23739   7.368   7.942  12.609
 7281SOL    HW123740   7.318   7.948  12.528
 7281SOL    HW223741   7.437   7.878  12.589
 7282SOL     OW23742   9.224   5.953   8.897
 7282SOL    HW123743   9.259   5.956   8.808
 7282SOL    HW223744   9.145   5.899   8.889
 7283SOL     OW23745   8.541   5.757   4.259
 7283SOL    HW123746   8.496   5.836   4.291
 7283SOL    HW223747   8.618   5.791   4.213
 7284SOL     OW23748  11.811   9.669   3.870
 7284SOL    HW123749  11.774   9.739   3.817
 7284SOL    HW223750  11.866   9.715   3.934
 7285SOL     OW23751  11.340  14.285  13.935
 7285SOL    HW123752  11.413  14.317  13.882
 7285SOL    HW223753  11.309  14.208  13.889
 7286SOL     OW23754   9.151   8.975   5.248
 7286SOL    HW123755   9.133   8.916   5.321
 7286SOL    HW223756   9.204   9.045   5.286
 7287SOL     OW23757   2.915   1.529   3.295
 7287SOL    HW123758   2.914   1.441   3.331
 7287SOL    HW223759   2.999   1.536   3.250
 7288SOL     OW23760   3.811  14.387   1.898
 7288SOL    HW123761   3.752  14.422   1.966
 7288SOL    HW223762   3.897  14.386   1.939
 7289SOL     OW23763   9.857  12.585   6.775
 7289SOL    HW123764   9.945  12.620   6.785
 7289SOL    HW223765   9.834  12.603   6.684
 7290SOL     OW23766  10.851   9.757  11.080
 7290SOL    HW123767  10.801   9.792  11.154
 7290SOL    HW223768  10.942   9.756  11.110
 7291SOL     OW23769  14.587   4.178   3.579
 7291SOL    HW123770  14.640   4.102   3.554
 7291SOL    HW223771  14.598   4.184   3.674
 7292SOL     OW23772   6.820  14.229   8.803
 7292SOL    HW123773   6.769  14.235   8.884
 7292SOL    HW223774   6.910  14.212   8.832
 7293SOL     OW23775   7.068  11.970   8.395
 7293SOL    HW123776   7.123  11.944   8.321
 7293SOL    HW223777   7.005  11.899   8.404
 7294SOL     OW23778   4.588   4.827  11.428
 7294SOL    HW123779   4.587   4.846  11.334
 7294SOL    HW223780   4.532   4.750  11.437
 7295SOL     OW23781   8.282   7.700   1.874
 7295SOL    HW123782   8.250   7.610   1.885
 7295SOL    HW223783   8.375   7.690   1.857
 7296SOL     OW23784   9.179   1.167  13.002
 7296SOL    HW123785   9.115   1.234  12.977
 7296SOL    HW223786   9.259   1.217  13.020
 7297SOL     OW23787   6.129  12.977  10.879
 7297SOL    HW123788   6.156  13.064  10.851
 7297SOL    HW223789   6.174  12.917  10.818
 7298SOL     OW23790   0.441  10.741  13.931
 7298SOL    HW123791   0.462  10.649  13.947
 7298SOL    HW223792   0.444  10.782  14.017
 7299SOL     OW23793  11.194   1.068   7.764
 7299SOL    HW123794  11.254   1.109   7.701
 7299SOL    HW223795  11.237   0.987   7.789
 7300SOL     OW23796   0.453  11.639   6.642
 7300SOL    HW123797   0.361  11.645   6.668
 7300SOL    HW223798   0.487  11.564   6.691
 7301SOL     OW23799  13.316   9.563   3.991
 7301SOL    HW123800  13.317   9.620   3.914
 7301SOL    HW223801  13.406   9.530   3.998
 7302SOL     OW23802   8.514   4.126   1.476
 7302SOL    HW123803   8.480   4.037   1.467
 7302SOL    HW223804   8.444   4.181   1.443
 7303SOL     OW23805   4.743   1.486   1.888
 7303SOL    HW123806   4.688   1.478   1.810
 7303SOL    HW223807   4.682   1.475   1.961
 7304SOL     OW23808   9.407  10.304   3.874
 7304SOL    HW123809   9.367  10.222   3.845
 7304SOL    HW223810   9.494  10.280   3.904
 7305SOL     OW23811  12.506  13.127   1.022
 7305SOL    HW123812  12.526  13.055   1.082
 7305SOL    HW223813  12.554  13.202   1.057
 7306SOL     OW23814  13.309   9.938   8.921
 7306SOL    HW123815  13.320  10.005   8.852
 7306SOL    HW223816  13.365   9.968   8.992
 7307SOL     OW23817  11.730  10.945   2.847
 7307SOL    HW123818  11.731  10.850   2.841
 7307SOL    HW223819  11.776  10.975   2.769
 7308SOL     OW23820   2.090  11.048  10.791
 7308SOL    HW123821   2.147  11.094  10.852
 7308SOL    HW223822   2.001  11.070  10.820
 7309SOL     OW23823   2.002   7.247   6.993
 7309SOL    HW123824   2.016   7.228   6.900
 7309SOL    HW223825   2.090   7.242   7.032
 7310SOL     OW23826   6.645   0.271   8.907
 7310SOL    HW123827   6.729   0.243   8.871
 7310SOL    HW223828   6.665   0.347   8.962
 7311SOL     OW23829   3.841   6.862  10.255
 7311SOL    HW123830   3.808   6.944  10.216
 7311SOL    HW223831   3.842   6.800  10.182
 7312SOL     OW23832   8.915  14.056  13.407
 7312SOL    HW123833   8.957  14.078  13.324
 7312SOL    HW223834   8.823  14.039  13.383
 7313SOL     OW23835   6.732  12.607   3.718
 7313SOL    HW123836   6.828  12.611   3.726
 7313SOL    HW223837   6.714  12.519   3.688
 7314SOL     OW23838  14.784   2.677  13.919
 7314SOL    HW123839  14.735   2.740  13.971
 7314SOL    HW223840  14.842   2.730  13.865
 7315SOL     OW23841   0.368  12.703   5.679
 7315SOL    HW123842   0.408  12.700   5.766
 7315SOL    HW223843   0.425  12.649   5.624
 7316SOL     OW23844   0.390  14.850   0.648
 7316SOL    HW123845   0.445  14.843   0.570
 7316SOL    HW223846   0.318   0.027   0.621
 7317SOL     OW23847  11.972   7.904   6.577
 7317SOL    HW123848  11.967   7.908   6.673
 7317SOL    HW223849  12.036   7.971   6.554
 7318SOL     OW23850   3.975   4.930   4.422
 7318SOL    HW123851   3.953   4.840   4.444
 7318SOL    HW223852   4.062   4.925   4.383
 7319SOL     OW23853  10.389  10.190   1.771
 7319SOL    HW123854  10.326  10.257   1.796
 7319SOL    HW223855  10.381  10.123   1.839
 7320SOL     OW23856  11.587  10.282   8.593
 7320SOL    HW123857  11.510  10.246   8.549
 7320SOL    HW223858  11.632  10.205   8.628
 7321SOL     OW23859   6.470   9.872  12.388
 7321SOL    HW123860   6.396   9.819  12.416
 7321SOL    HW223861   6.521   9.814  12.331
 7322SOL     OW23862  13.709   9.771  13.762
 7322SOL    HW123863  13.660   9.715  13.702
 7322SOL    HW223864  13.779   9.809  13.709
 7323SOL     OW23865   9.036   9.204   3.611
 7323SOL    HW123866   8.978   9.234   3.680
 7323SOL    HW223867   9.038   9.109   3.620
 7324SOL     OW23868  14.177   5.700   1.934
 7324SOL    HW123869  14.253   5.660   1.976
 7324SOL    HW223870  14.125   5.733   2.007
 7325SOL     OW23871   9.307  11.747  14.359
 7325SOL    HW123872   9.215  11.738  14.334
 7325SOL    HW223873   9.309  11.823  14.417
 7326SOL     OW23874   9.774   3.947   0.859
 7326SOL    HW123875   9.785   3.985   0.946
 7326SOL    HW223876   9.749   4.020   0.803
 7327SOL     OW23877   5.927   9.342   8.266
 7327SOL    HW123878   5.894   9.417   8.317
 7327SOL    HW223879   5.974   9.288   8.331
 7328SOL     OW23880   2.143   4.487  12.672
 7328SOL    HW123881   2.199   4.558  12.641
 7328SOL    HW223882   2.204   4.426  12.715
 7329SOL     OW23883  14.877   3.992   4.649
 7329SOL    HW123884   0.023   4.060   4.712
 7329SOL    HW223885  14.819   4.038   4.588
 7330SOL     OW23886   7.697   0.795   7.516
 7330SOL    HW123887   7.604   0.803   7.495
 7330SOL    HW223888   7.701   0.729   7.585
 7331SOL     OW23889   7.905   3.647  13.991
 7331SOL    HW123890   7.823   3.645  14.040
 7331SOL    HW223891   7.972   3.662  14.058
 7332SOL     OW23892   3.012   2.334   8.156
 7332SOL    HW123893   3.077   2.297   8.215
 7332SOL    HW223894   3.029   2.290   8.072
 7333SOL     OW23895   9.091  14.261   3.465
 7333SOL    HW123896   9.084  14.166   3.450
 7333SOL    HW223897   9.043  14.275   3.547
 7334SOL     OW23898   9.317  11.916   1.257
 7334SOL    HW123899   9.318  12.011   1.257
 7334SOL    HW223900   9.356  11.891   1.341
 7335SOL     OW23901   6.638   8.515  10.907
 7335SOL    HW123902   6.551   8.507  10.868
 7335SOL    HW223903   6.664   8.606  10.889
 7336SOL     OW23904   8.150   5.172   7.590
 7336SOL    HW123905   8.143   5.210   7.502
 7336SOL    HW223906   8.158   5.078   7.575
 7337SOL     OW23907   8.507   6.425  10.962
 7337SOL    HW123908   8.523   6.469  11.045
 7337SOL    HW223909   8.519   6.494  10.896
 7338SOL     OW23910  11.167  10.663  11.618
 7338SOL    HW123911  11.093  10.614  11.654
 7338SOL    HW223912  11.151  10.665  11.524
 7339SOL     OW23913   0.972   1.969  11.115
 7339SOL    HW123914   0.961   1.874  11.108
 7339SOL    HW223915   1.048   1.981  11.172
 7340SOL     OW23916   2.054   3.697  11.520
 7340SOL    HW123917   2.148   3.690  11.501
 7340SOL    HW223918   2.015   3.621  11.477
 7341SOL     OW23919   9.020   7.879  10.125
 7341SOL    HW123920   9.102   7.925  10.107
 7341SOL    HW223921   9.021   7.862  10.219
 7342SOL     OW23922   2.121   9.851   0.227
 7342SOL    HW123923   2.095   9.896   0.307
 7342SOL    HW223924   2.096   9.760   0.242
 7343SOL     OW23925  14.327   7.159   3.109
 7343SOL    HW123926  14.272   7.093   3.151
 7343SOL    HW223927  14.398   7.174   3.172
 7344SOL     OW23928   2.883   4.267   9.698
 7344SOL    HW123929   2.959   4.298   9.747
 7344SOL    HW223930   2.826   4.344   9.691
 7345SOL     OW23931   4.439  13.361  13.052
 7345SOL    HW123932   4.428  13.446  13.094
 7345SOL    HW223933   4.393  13.370  12.968
 7346SOL     OW23934   3.880   0.452   9.473
 7346SOL    HW123935   3.816   0.511   9.434
 7346SOL    HW223936   3.850   0.440   9.563
 7347SOL     OW23937   0.899   4.506  14.816
 7347SOL    HW123938   0.855   4.535  14.736
 7347SOL    HW223939   0.976   4.562  14.823
 7348SOL     OW23940   8.056   5.385  10.093
 7348SOL    HW123941   8.005   5.404  10.014
 7348SOL    HW223942   7.999   5.329  10.145
 7349SOL     OW23943   1.506   3.661  11.274
 7349SOL    HW123944   1.508   3.680  11.368
 7349SOL    HW223945   1.423   3.615  11.261
 7350SOL     OW23946  12.849   0.374   0.522
 7350SOL    HW123947  12.931   0.337   0.554
 7350SOL    HW223948  12.862   0.468   0.523
 7351SOL     OW23949   4.444   9.082   6.011
 7351SOL    HW123950   4.444   9.005   6.067
 7351SOL    HW223951   4.517   9.136   6.042
 7352SOL     OW23952  11.677  11.155   9.846
 7352SOL    HW123953  11.604  11.216   9.835
 7352SOL    HW223954  11.656  11.106   9.925
 7353SOL     OW23955   2.728  12.947  10.189
 7353SOL    HW123956   2.715  12.978  10.279
 7353SOL    HW223957   2.665  12.876  10.179
 7354SOL     OW23958   7.816   8.757   3.362
 7354SOL    HW123959   7.770   8.789   3.440
 7354SOL    HW223960   7.764   8.682   3.333
 7355SOL     OW23961  13.186   6.396   5.478
 7355SOL    HW123962  13.092   6.403   5.493
 7355SOL    HW223963  13.200   6.431   5.390
 7356SOL     OW23964   7.476   4.391   3.182
 7356SOL    HW123965   7.544   4.455   3.161
 7356SOL    HW223966   7.417   4.393   3.107
 7357SOL     OW23967  11.945   1.027   6.948
 7357SOL    HW123968  12.008   0.961   6.920
 7357SOL    HW223969  11.997   1.093   6.994
 7358SOL     OW23970   3.959   7.620  14.482
 7358SOL    HW123971   4.014   7.677  14.536
 7358SOL    HW223972   3.965   7.658  14.394
 7359SOL     OW23973   9.261   0.868  10.303
 7359SOL    HW123974   9.172   0.890  10.274
 7359SOL    HW223975   9.304   0.833  10.225
 7360SOL     OW23976   4.142   6.094   2.363
 7360SOL    HW123977   4.096   6.068   2.283
 7360SOL    HW223978   4.166   6.186   2.348
 7361SOL     OW23979  13.692   9.078   5.924
 7361SOL    HW123980  13.664   9.090   5.833
 7361SOL    HW223981  13.699   9.167   5.959
 7362SOL     OW23982  14.120   6.831  12.417
 7362SOL    HW123983  14.043   6.790  12.380
 7362SOL    HW223984  14.143   6.777  12.492
 7363SOL     OW23985   4.203  11.337   3.577
 7363SOL    HW123986   4.179  11.345   3.669
 7363SOL    HW223987   4.204  11.243   3.560
 7364SOL     OW23988   4.564  13.914  13.983
 7364SOL    HW123989   4.648  13.931  13.940
 7364SOL    HW223990   4.556  13.818  13.981
 7365SOL     OW23991  13.371  11.153   7.444
 7365SOL    HW123992  13.446  11.095   7.428
 7365SOL    HW223993  13.339  11.126   7.531
 7366SOL     OW23994   5.010  11.653  12.291
 7366SOL    HW123995   4.980  11.686  12.376
 7366SOL    HW223996   4.931  11.649  12.238
 7367SOL     OW23997  13.035  13.847  14.224
 7367SOL    HW123998  12.941  13.830  14.225
 7367SOL    HW223999  13.046  13.919  14.162
 7368SOL     OW24000   5.439   0.287   4.190
 7368SOL    HW124001   5.423   0.374   4.226
 7368SOL    HW224002   5.353   0.257   4.161
 7369SOL     OW24003  12.261  14.592   4.471
 7369SOL    HW124004  12.245  14.565   4.562
 7369SOL    HW224005  12.355  14.613   4.469
 7370SOL     OW24006  11.942   3.798   1.957
 7370SOL    HW124007  12.032   3.770   1.943
 7370SOL    HW224008  11.925   3.781   2.049
 7371SOL     OW24009   8.801   9.480  14.302
 7371SOL    HW124010   8.754   9.398  14.321
 7371SOL    HW224011   8.821   9.516  14.388
 7372SOL     OW24012   1.660   7.865   2.406
 7372SOL    HW124013   1.662   7.833   2.496
 7372SOL    HW224014   1.659   7.786   2.352
 7373SOL     OW24015   9.101   2.035   9.199
 7373SOL    HW124016   9.176   2.066   9.149
 7373SOL    HW224017   9.078   1.951   9.158
 7374SOL     OW24018  12.861   5.265   8.376
 7374SOL    HW124019  12.917   5.193   8.402
 7374SOL    HW224020  12.829   5.302   8.458
 7375SOL     OW24021   2.314   8.188   3.354
 7375SOL    HW124022   2.298   8.126   3.426
 7375SOL    HW224023   2.394   8.155   3.313
 7376SOL     OW24024  10.401   3.460  10.960
 7376SOL    HW124025  10.456   3.439  10.884
 7376SOL    HW224026  10.372   3.376  10.993
 7377SOL     OW24027  13.206   6.458   4.356
 7377SOL    HW124028  13.274   6.526   4.358
 7377SOL    HW224029  13.207   6.425   4.267
 7378SOL     OW24030   1.925  10.766   6.611
 7378SOL    HW124031   1.990  10.696   6.603
 7378SOL    HW224032   1.921  10.786   6.704
 7379SOL     OW24033  12.069   3.766   6.211
 7379SOL    HW124034  12.163   3.767   6.228
 7379SOL    HW224035  12.060   3.718   6.129
 7380SOL     OW24036   0.717   3.809   9.119
 7380SOL    HW124037   0.767   3.868   9.175
 7380SOL    HW224038   0.729   3.722   9.159
 7381SOL     OW24039  12.546   4.295   7.279
 7381SOL    HW124040  12.579   4.274   7.366
 7381SOL    HW224041  12.603   4.246   7.219
 7382SOL     OW24042   2.066  10.358  12.621
 7382SOL    HW124043   2.127  10.388  12.689
 7382SOL    HW224044   2.078  10.263  12.619
 7383SOL     OW24045   3.495  11.395   4.875
 7383SOL    HW124046   3.528  11.342   4.802
 7383SOL    HW224047   3.551  11.372   4.949
 7384SOL     OW24048   4.199  11.358   5.175
 7384SOL    HW124049   4.242  11.322   5.098
 7384SOL    HW224050   4.144  11.429   5.141
 7385SOL     OW24051   8.183  13.080   1.479
 7385SOL    HW124052   8.197  13.049   1.569
 7385SOL    HW224053   8.227  13.165   1.476
 7386SOL     OW24054   7.895   7.655  12.203
 7386SOL    HW124055   7.921   7.673  12.112
 7386SOL    HW224056   7.929   7.567  12.220
 7387SOL     OW24057  12.355   9.784   3.385
 7387SOL    HW124058  12.316   9.856   3.435
 7387SOL    HW224059  12.422   9.747   3.443
 7388SOL     OW24060   0.608   3.890   1.794
 7388SOL    HW124061   0.689   3.935   1.769
 7388SOL    HW224062   0.538   3.950   1.769
 7389SOL     OW24063   5.453  11.346  13.252
 7389SOL    HW124064   5.506  11.295  13.314
 7389SOL    HW224065   5.368  11.355  13.295
 7390SOL     OW24066   1.159  11.815   3.423
 7390SOL    HW124067   1.227  11.882   3.420
 7390SOL    HW224068   1.201  11.737   3.388
 7391SOL     OW24069  13.492   0.079   9.513
 7391SOL    HW124070  13.520  14.877   9.552
 7391SOL    HW224071  13.483   0.139   9.587
 7392SOL     OW24072   2.922   6.764   7.275
 7392SOL    HW124073   2.962   6.690   7.323
 7392SOL    HW224074   2.935   6.839   7.333
 7393SOL     OW24075   7.193   4.621  14.125
 7393SOL    HW124076   7.231   4.578  14.048
 7393SOL    HW224077   7.099   4.622  14.107
 7394SOL     OW24078   2.846   2.022   5.134
 7394SOL    HW124079   2.800   1.974   5.065
 7394SOL    HW224080   2.929   2.047   5.095
 7395SOL     OW24081   1.115   7.851   4.651
 7395SOL    HW124082   1.181   7.804   4.600
 7395SOL    HW224083   1.160   7.930   4.680
 7396SOL     OW24084   7.383  14.117  12.290
 7396SOL    HW124085   7.466  14.083  12.322
 7396SOL    HW224086   7.360  14.187  12.352
 7397SOL     OW24087  12.367  12.306   1.877
 7397SOL    HW124088  12.428  12.232   1.882
 7397SOL    HW224089  12.290  12.271   1.833
 7398SOL     OW24090  14.081   8.581   6.709
 7398SOL    HW124091  14.025   8.504   6.697
 7398SOL    HW224092  14.042   8.628   6.782
 7399SOL     OW24093   0.183   3.181   8.523
 7399SOL    HW124094   0.204   3.139   8.439
 7399SOL    HW224095   0.221   3.269   8.516
 7400SOL     OW24096  13.454   5.804   8.740
 7400SOL    HW124097  13.392   5.736   8.768
 7400SOL    HW224098  13.420   5.833   8.655
 7401SOL     OW24099  11.342  10.000  13.402
 7401SOL    HW124100  11.320  10.074  13.346
 7401SOL    HW224101  11.418  10.029  13.452
 7402SOL     OW24102   6.177   4.648  13.592
 7402SOL    HW124103   6.224   4.729  13.612
 7402SOL    HW224104   6.108   4.674  13.531
 7403SOL     OW24105   7.862  12.191   1.381
 7403SOL    HW124106   7.892  12.282   1.385
 7403SOL    HW224107   7.766  12.198   1.388
 7404SOL     OW24108   2.645   9.160  13.846
 7404SOL    HW124109   2.676   9.115  13.767
 7404SOL    HW224110   2.662   9.253  13.828
 7405SOL     OW24111   1.228   8.273   3.578
 7405SOL    HW124112   1.299   8.317   3.624
 7405SOL    HW224113   1.270   8.233   3.501
 7406SOL     OW24114   2.412  10.316  14.239
 7406SOL    HW124115   2.425  10.346  14.149
 7406SOL    HW224116   2.334  10.364  14.269
 7407SOL     OW24117   4.327   0.855   6.833
 7407SOL    HW124118   4.251   0.907   6.860
 7407SOL    HW224119   4.322   0.854   6.737
 7408SOL     OW24120   4.269   0.017   0.190
 7408SOL    HW124121   4.307   0.093   0.146
 7408SOL    HW224122   4.335  14.828   0.178
 7409SOL     OW24123   5.262   9.825  14.146
 7409SOL    HW124124   5.261   9.732  14.172
 7409SOL    HW224125   5.332   9.863  14.200
 7410SOL     OW24126   9.340   7.345  12.011
 7410SOL    HW124127   9.405   7.386  11.955
 7410SOL    HW224128   9.353   7.251  11.998
 7411SOL     OW24129  13.632   1.512   2.531
 7411SOL    HW124130  13.598   1.432   2.490
 7411SOL    HW224131  13.727   1.505   2.523
 7412SOL     OW24132  11.504  11.835   1.680
 7412SOL    HW124133  11.559  11.760   1.655
 7412SOL    HW224134  11.437  11.798   1.737
 7413SOL     OW24135   5.528   4.381   5.137
 7413SOL    HW124136   5.526   4.466   5.182
 7413SOL    HW224137   5.593   4.330   5.187
 7414SOL     OW24138   7.905   8.691  12.397
 7414SOL    HW124139   7.820   8.662  12.433
 7414SOL    HW224140   7.920   8.776  12.437
 7415SOL     OW24141   9.186   2.854   1.400
 7415SOL    HW124142   9.214   2.917   1.465
 7415SOL    HW224143   9.157   2.778   1.450
 7416SOL     OW24144  13.821   4.717   1.502
 7416SOL    HW124145  13.784   4.767   1.575
 7416SOL    HW224146  13.751   4.714   1.437
 7417SOL     OW24147   2.896   5.601   1.771
 7417SOL    HW124148   2.841   5.622   1.695
 7417SOL    HW224149   2.915   5.508   1.762
 7418SOL     OW24150   0.239  11.034   5.543
 7418SOL    HW124151   0.157  11.055   5.589
 7418SOL    HW224152   0.263  10.948   5.575
 7419SOL     OW24153  13.661  10.102   9.682
 7419SOL    HW124154  13.607  10.042   9.630
 7419SOL    HW224155  13.732  10.048   9.715
 7420SOL     OW24156   7.552   4.800   5.986
 7420SOL    HW124157   7.629   4.852   6.005
 7420SOL    HW224158   7.489   4.862   5.949
 7421SOL     OW24159   5.257  14.497  13.801
 7421SOL    HW124160   5.266  14.407  13.831
 7421SOL    HW224161   5.246  14.490  13.706
 7422SOL     OW24162   5.781   9.808   6.440
 7422SOL    HW124163   5.802   9.714   6.445
 7422SOL    HW224164   5.686   9.811   6.451
 7423SOL     OW24165  11.101  12.738  10.883
 7423SOL    HW124166  11.161  12.761  10.811
 7423SOL    HW224167  11.126  12.649  10.907
 7424SOL     OW24168   9.007   0.694   7.464
 7424SOL    HW124169   8.963   0.693   7.379
 7424SOL    HW224170   8.972   0.618   7.511
 7425SOL     OW24171   3.893   5.632  14.135
 7425SOL    HW124172   3.890   5.541  14.165
 7425SOL    HW224173   3.978   5.640  14.093
 7426SOL     OW24174   1.312   9.246  14.599
 7426SOL    HW124175   1.239   9.304  14.578
 7426SOL    HW224176   1.362   9.240  14.518
 7427SOL     OW24177  13.880   4.258   3.968
 7427SOL    HW124178  13.805   4.300   4.010
 7427SOL    HW224179  13.843   4.184   3.921
 7428SOL     OW24180   5.106   7.570   4.964
 7428SOL    HW124181   5.057   7.577   4.882
 7428SOL    HW224182   5.174   7.637   4.957
 7429SOL     OW24183   2.776  13.184   8.004
 7429SOL    HW124184   2.773  13.267   7.957
 7429SOL    HW224185   2.801  13.208   8.093
 7430SOL     OW24186  13.404  12.121   6.200
 7430SOL    HW124187  13.371  12.155   6.283
 7430SOL    HW224188  13.490  12.161   6.190
 7431SOL     OW24189   2.766  13.677  12.068
 7431SOL    HW124190   2.735  13.765  12.047
 7431SOL    HW224191   2.839  13.663  12.008
 7432SOL     OW24192  13.963   5.683   9.517
 7432SOL    HW124193  14.007   5.752   9.467
 7432SOL    HW224194  13.940   5.617   9.452
 7433SOL     OW24195   9.394   7.168   4.664
 7433SOL    HW124196   9.339   7.198   4.591
 7433SOL    HW224197   9.338   7.177   4.741
 7434SOL     OW24198   4.160   1.954  10.448
 7434SOL    HW124199   4.205   1.904  10.380
 7434SOL    HW224200   4.229   1.976  10.512
 7435SOL     OW24201   7.945   8.935  12.582
 7435SOL    HW124202   7.950   9.031  12.579
 7435SOL    HW224203   8.032   8.906  12.556
 7436SOL     OW24204   1.944  11.689  13.640
 7436SOL    HW124205   2.010  11.680  13.708
 7436SOL    HW224206   1.873  11.630  13.666
 7437SOL     OW24207  10.762  10.914   4.580
 7437SOL    HW124208  10.679  10.869   4.598
 7437SOL    HW224209  10.824  10.875   4.642
 7438SOL     OW24210   3.760  10.774   7.839
 7438SOL    HW124211   3.768  10.695   7.893
 7438SOL    HW224212   3.721  10.743   7.757
 7439SOL     OW24213   1.155  10.564   7.456
 7439SOL    HW124214   1.060  10.561   7.462
 7439SOL    HW224215   1.179  10.649   7.493
 7440SOL     OW24216   1.185  11.866   6.719
 7440SOL    HW124217   1.089  11.866   6.718
 7440SOL    HW224218   1.210  11.876   6.627
 7441SOL     OW24219  12.236   2.236   6.935
 7441SOL    HW124220  12.190   2.153   6.948
 7441SOL    HW224221  12.264   2.233   6.843
 7442SOL     OW24222  12.123   5.048   3.555
 7442SOL    HW124223  12.117   5.045   3.650
 7442SOL    HW224224  12.097   5.137   3.532
 7443SOL     OW24225   9.640   5.171  10.520
 7443SOL    HW124226   9.597   5.235  10.463
 7443SOL    HW224227   9.571   5.139  10.577
 7444SOL     OW24228   0.125   7.521  10.223
 7444SOL    HW124229   0.048   7.552  10.175
 7444SOL    HW224230   0.161   7.452  10.169
 7445SOL     OW24231  10.000   9.750   8.500
 7445SOL    HW124232  10.075   9.799   8.466
 7445SOL    HW224233  10.030   9.716   8.584
 7446SOL     OW24234  14.300  12.055   6.611
 7446SOL    HW124235  14.328  12.129   6.665
 7446SOL    HW224236  14.369  11.990   6.621
 7447SOL     OW24237   2.370  12.239   4.327
 7447SOL    HW124238   2.314  12.207   4.256
 7447SOL    HW224239   2.366  12.171   4.394
 7448SOL     OW24240   9.797   0.987   9.584
 7448SOL    HW124241   9.813   0.923   9.653
 7448SOL    HW224242   9.709   0.966   9.552
 7449SOL     OW24243   6.679   9.526   4.953
 7449SOL    HW124244   6.747   9.473   4.912
 7449SOL    HW224245   6.629   9.464   5.006
 7450SOL     OW24246  11.011   1.574   5.606
 7450SOL    HW124247  11.055   1.496   5.572
 7450SOL    HW224248  11.019   1.566   5.701
 7451SOL     OW24249   7.400  13.107   9.422
 7451SOL    HW124250   7.461  13.053   9.473
 7451SOL    HW224251   7.368  13.171   9.485
 7452SOL     OW24252  14.476   8.239   1.793
 7452SOL    HW124253  14.558   8.237   1.842
 7452SOL    HW224254  14.442   8.150   1.798
 7453SOL     OW24255   7.682   7.121   5.620
 7453SOL    HW124256   7.615   7.066   5.662
 7453SOL    HW224257   7.656   7.125   5.528
 7454SOL     OW24258   5.096  13.191  10.897
 7454SOL    HW124259   5.021  13.190  10.956
 7454SOL    HW224260   5.065  13.239  10.820
 7455SOL     OW24261   8.426   5.642   5.279
 7455SOL    HW124262   8.406   5.701   5.207
 7455SOL    HW224263   8.340   5.615   5.312
 7456SOL     OW24264   0.333   5.253  13.744
 7456SOL    HW124265   0.286   5.323  13.699
 7456SOL    HW224266   0.417   5.248  13.698
 7457SOL     OW24267  12.613   5.826  12.249
 7457SOL    HW124268  12.623   5.918  12.222
 7457SOL    HW224269  12.647   5.776  12.175
 7458SOL     OW24270   0.755   1.615   5.370
 7458SOL    HW124271   0.726   1.588   5.283
 7458SOL    HW224272   0.768   1.533   5.418
 7459SOL     OW24273   7.206   4.867   2.587
 7459SOL    HW124274   7.264   4.930   2.544
 7459SOL    HW224275   7.169   4.815   2.515
 7460SOL     OW24276  10.219   0.823   6.619
 7460SOL    HW124277  10.224   0.917   6.639
 7460SOL    HW224278  10.137   0.794   6.661
 7461SOL     OW24279   9.428   3.227  12.983
 7461SOL    HW124280   9.392   3.275  12.908
 7461SOL    HW224281   9.416   3.286  13.058
 7462SOL     OW24282   0.337   1.891  12.921
 7462SOL    HW124283   0.321   1.932  12.836
 7462SOL    HW224284   0.410   1.940  12.958
 7463SOL     OW24285   3.786  11.661  12.634
 7463SOL    HW124286   3.866  11.621  12.666
 7463SOL    HW224287   3.814  11.740  12.587
 7464SOL     OW24288   6.828   1.193   7.275
 7464SOL    HW124289   6.800   1.244   7.199
 7464SOL    HW224290   6.867   1.258   7.334
 7465SOL     OW24291   8.262   4.805  10.875
 7465SOL    HW124292   8.248   4.816  10.781
 7465SOL    HW224293   8.357   4.807  10.887
 7466SOL     OW24294   8.638   5.768   3.740
 7466SOL    HW124295   8.678   5.692   3.699
 7466SOL    HW224296   8.547   5.741   3.757
 7467SOL     OW24297   9.786   9.156   5.739
 7467SOL    HW124298   9.710   9.162   5.797
 7467SOL    HW224299   9.831   9.240   5.749
 7468SOL     OW24300   4.368   2.710   1.379
 7468SOL    HW124301   4.327   2.794   1.360
 7468SOL    HW224302   4.376   2.667   1.294
 7469SOL     OW24303   5.021  10.495   4.253
 7469SOL    HW124304   5.102  10.448   4.272
 7469SOL    HW224305   5.050  10.583   4.230
 7470SOL     OW24306   2.764   8.487   5.600
 7470SOL    HW124307   2.755   8.578   5.626
 7470SOL    HW224308   2.848   8.459   5.638
 7471SOL     OW24309   1.503   1.645   2.388
 7471SOL    HW124310   1.498   1.553   2.361
 7471SOL    HW224311   1.459   1.646   2.473
 7472SOL     OW24312   7.448   0.724   3.722
 7472SOL    HW124313   7.445   0.819   3.714
 7472SOL    HW224314   7.437   0.692   3.632
 7473SOL     OW24315   9.241  11.101   4.351
 7473SOL    HW124316   9.202  11.189   4.359
 7473SOL    HW224317   9.262  11.076   4.441
 7474SOL     OW24318   4.433  10.543  14.595
 7474SOL    HW124319   4.355  10.572  14.642
 7474SOL    HW224320   4.493  10.617  14.600
 7475SOL     OW24321  10.019   6.140   2.827
 7475SOL    HW124322   9.952   6.164   2.891
 7475SOL    HW224323   9.971   6.128   2.745
 7476SOL     OW24324  11.413  13.928  11.837
 7476SOL    HW124325  11.384  13.844  11.873
 7476SOL    HW224326  11.471  13.964  11.904
 7477SOL     OW24327   4.128  13.316   8.407
 7477SOL    HW124328   4.205  13.326   8.464
 7477SOL    HW224329   4.164  13.320   8.318
 7478SOL     OW24330   5.328   9.897   1.193
 7478SOL    HW124331   5.328   9.806   1.164
 7478SOL    HW224332   5.275   9.897   1.273
 7479SOL     OW24333   5.846  13.942   8.829
 7479SOL    HW124334   5.765  13.985   8.855
 7479SOL    HW224335   5.855  13.964   8.736
 7480SOL     OW24336  14.855   4.757  13.300
 7480SOL    HW124337   0.004   4.848  13.297
 7480SOL    HW224338  14.761   4.762  13.283
 7481SOL     OW24339   5.548   9.638   2.886
 7481SOL    HW124340   5.591   9.692   2.819
 7481SOL    HW224341   5.459   9.673   2.891
 7482SOL     OW24342   7.372   3.903  13.772
 7482SOL    HW124343   7.327   3.986  13.788
 7482SOL    HW224344   7.323   3.862  13.702
 7483SOL     OW24345  12.824   6.172   9.337
 7483SOL    HW124346  12.801   6.237   9.270
 7483SOL    HW224347  12.787   6.090   9.304
 7484SOL     OW24348  13.312  11.429   4.128
 7484SOL    HW124349  13.386  11.371   4.113
 7484SOL    HW224350  13.239  11.370   4.147
 7485SOL     OW24351   2.386   6.925   8.410
 7485SOL    HW124352   2.310   6.880   8.373
 7485SOL    HW224353   2.375   6.916   8.504
 7486SOL     OW24354   7.679   5.474   9.473
 7486SOL    HW124355   7.610   5.503   9.413
 7486SOL    HW224356   7.742   5.546   9.475
 7487SOL     OW24357   2.669   8.100   1.794
 7487SOL    HW124358   2.762   8.108   1.815
 7487SOL    HW224359   2.625   8.163   1.851
 7488SOL     OW24360  13.941  13.570   9.698
 7488SOL    HW124361  13.923  13.498   9.758
 7488SOL    HW224362  13.920  13.534   9.611
 7489SOL     OW24363   9.395  10.111   1.356
 7489SOL    HW124364   9.326  10.115   1.423
 7489SOL    HW224365   9.477  10.113   1.407
 7490SOL     OW24366   3.072  10.718   1.112
 7490SOL    HW124367   3.126  10.648   1.150
 7490SOL    HW224368   3.045  10.684   1.027
 7491SOL     OW24369   8.984  14.594   9.640
 7491SOL    HW124370   8.951  14.682   9.657
 7491SOL    HW224371   8.996  14.556   9.727
 7492SOL     OW24372   4.986  13.084   4.828
 7492SOL    HW124373   5.019  13.125   4.748
 7492SOL    HW224374   4.927  13.015   4.797
 7493SOL     OW24375  12.534   0.972   0.263
 7493SOL    HW124376  12.610   0.984   0.205
 7493SOL    HW224377  12.484   1.053   0.255
 7494SOL     OW24378   1.518  14.471   9.355
 7494SOL    HW124379   1.520  14.450   9.262
 7494SOL    HW224380   1.570  14.552   9.362
 7495SOL     OW24381   2.913  10.896   8.363
 7495SOL    HW124382   2.893  10.857   8.278
 7495SOL    HW224383   2.863  10.978   8.364
 7496SOL     OW24384  13.466  10.493   3.331
 7496SOL    HW124385  13.466  10.546   3.251
 7496SOL    HW224386  13.508  10.549   3.396
 7497SOL     OW24387   0.110  14.807  10.013
 7497SOL    HW124388   0.106  14.773  10.102
 7497SOL    HW224389   0.180  14.757   9.971
 7498SOL     OW24390   4.783  12.010  11.602
 7498SOL    HW124391   4.857  12.069  11.610
 7498SOL    HW224392   4.725  12.052  11.538
 7499SOL     OW24393   1.788  14.311  13.333
 7499SOL    HW124394   1.778  14.240  13.269
 7499SOL    HW224395   1.881  14.334  13.329
 7500SOL     OW24396   6.139   5.155  13.202
 7500SOL    HW124397   6.178   5.114  13.125
 7500SOL    HW224398   6.046   5.131  13.198
 7501SOL     OW24399  12.374   0.682   7.478
 7501SOL    HW124400  12.291   0.729   7.469
 7501SOL    HW224401  12.398   0.658   7.389
 7502SOL     OW24402  12.296   3.209   6.019
 7502SOL    HW124403  12.289   3.136   6.080
 7502SOL    HW224404  12.352   3.177   5.948
 7503SOL     OW24405  11.576   0.089  12.745
 7503SOL    HW124406  11.623   0.103  12.663
 7503SOL    HW224407  11.485   0.111  12.726
 7504SOL     OW24408   3.976   5.706  14.663
 7504SOL    HW124409   3.932   5.626  14.692
 7504SOL    HW224410   4.009   5.685  14.575
 7505SOL     OW24411   5.166   2.079  12.753
 7505SOL    HW124412   5.124   1.993  12.760
 7505SOL    HW224413   5.169   2.112  12.843
 7506SOL     OW24414   5.235   3.524  12.266
 7506SOL    HW124415   5.185   3.551  12.189
 7506SOL    HW224416   5.271   3.438  12.243
 7507SOL     OW24417   5.812   7.271   2.532
 7507SOL    HW124418   5.802   7.177   2.522
 7507SOL    HW224419   5.877   7.282   2.602
 7508SOL     OW24420   9.995   9.992  10.910
 7508SOL    HW124421  10.032  10.071  10.872
 7508SOL    HW224422  10.071   9.942  10.940
 7509SOL     OW24423   0.320   0.391  14.312
 7509SOL    HW124424   0.265   0.397  14.390
 7509SOL    HW224425   0.403   0.432  14.338
 7510SOL     OW24426   1.605  12.357  11.967
 7510SOL    HW124427   1.543  12.400  11.907
 7510SOL    HW224428   1.667  12.426  11.990
 7511SOL     OW24429   6.154   4.677   1.804
 7511SOL    HW124430   6.239   4.656   1.767
 7511SOL    HW224431   6.156   4.772   1.817
 7512SOL     OW24432   4.928  11.411   8.304
 7512SOL    HW124433   4.857  11.368   8.258
 7512SOL    HW224434   4.989  11.437   8.235
 7513SOL     OW24435  10.525  10.162   5.587
 7513SOL    HW124436  10.519  10.107   5.665
 7513SOL    HW224437  10.530  10.101   5.514
 7514SOL     OW24438   9.032  13.335   9.270
 7514SOL    HW124439   9.066  13.258   9.315
 7514SOL    HW224440   9.108  13.393   9.261
 7515SOL     OW24441   2.749   5.132  12.334
 7515SOL    HW124442   2.753   5.108  12.427
 7515SOL    HW224443   2.812   5.204  12.325
 7516SOL     OW24444   5.873   7.115   1.008
 7516SOL    HW124445   5.804   7.171   1.044
 7516SOL    HW224446   5.952   7.169   1.013
 7517SOL     OW24447   5.883  14.387   9.459
 7517SOL    HW124448   5.924  14.383   9.545
 7517SOL    HW224449   5.792  14.410   9.477
 7518SOL     OW24450  12.517   1.695   1.273
 7518SOL    HW124451  12.589   1.632   1.265
 7518SOL    HW224452  12.476   1.694   1.186
 7519SOL     OW24453   4.354   8.257   9.503
 7519SOL    HW124454   4.306   8.180   9.535
 7519SOL    HW224455   4.298   8.292   9.434
 7520SOL     OW24456   4.841  14.722  14.749
 7520SOL    HW124457   4.875  14.740  14.662
 7520SOL    HW224458   4.908  14.666  14.790
 7521SOL     OW24459   2.013  11.030   8.259
 7521SOL    HW124460   2.025  10.941   8.226
 7521SOL    HW224461   2.101  11.061   8.278
 7522SOL     OW24462  14.875  10.765  11.580
 7522SOL    HW124463   0.053  10.752  11.505
 7522SOL    HW224464   0.003  10.684  11.631
 7523SOL     OW24465   7.059   6.951   3.315
 7523SOL    HW124466   6.984   6.891   3.314
 7523SOL    HW224467   7.081   6.960   3.408
 7524SOL     OW24468   9.595  12.731   7.385
 7524SOL    HW124469   9.544  12.651   7.376
 7524SOL    HW224470   9.589  12.772   7.298
 7525SOL     OW24471  10.628   7.020   3.144
 7525SOL    HW124472  10.660   6.944   3.193
 7525SOL    HW224473  10.691   7.090   3.164
 7526SOL     OW24474   1.493  10.874   9.835
 7526SOL    HW124475   1.582  10.906   9.842
 7526SOL    HW224476   1.443  10.928   9.896
 7527SOL     OW24477   0.541   1.111  14.071
 7527SOL    HW124478   0.569   1.075  14.156
 7527SOL    HW224479   0.581   1.198  14.069
 7528SOL     OW24480   9.073  12.843   3.762
 7528SOL    HW124481   9.074  12.750   3.742
 7528SOL    HW224482   9.056  12.886   3.678
 7529SOL     OW24483  10.577  10.244   3.113
 7529SOL    HW124484  10.577  10.339   3.124
 7529SOL    HW224485  10.503  10.213   3.164
 7530SOL     OW24486   0.807   8.828   5.555
 7530SOL    HW124487   0.716   8.859   5.561
 7530SOL    HW224488   0.812   8.758   5.620
 7531SOL     OW24489  12.537  13.708   5.181
 7531SOL    HW124490  12.597  13.658   5.237
 7531SOL    HW224491  12.465  13.648   5.163
 7532SOL     OW24492   3.762  11.996  13.340
 7532SOL    HW124493   3.726  11.999  13.428
 7532SOL    HW224494   3.719  11.922  13.298
 7533SOL     OW24495   2.686   5.335   6.525
 7533SOL    HW124496   2.719   5.292   6.604
 7533SOL    HW224497   2.760   5.335   6.464
 7534SOL     OW24498   3.664   1.540   4.904
 7534SOL    HW124499   3.618   1.591   4.837
 7534SOL    HW224500   3.671   1.452   4.866
 7535SOL     OW24501   2.972   7.370  12.301
 7535SOL    HW124502   2.921   7.416  12.235
 7535SOL    HW224503   3.053   7.346  12.256
 7536SOL     OW24504   1.102   2.502   6.263
 7536SOL    HW124505   1.050   2.426   6.290
 7536SOL    HW224506   1.139   2.536   6.345
 7537SOL     OW24507   8.333   3.127  11.110
 7537SOL    HW124508   8.408   3.186  11.101
 7537SOL    HW224509   8.279   3.167  11.178
 7538SOL     OW24510   5.648   3.432   9.853
 7538SOL    HW124511   5.705   3.470   9.920
 7538SOL    HW224512   5.582   3.383   9.901
 7539SOL     OW24513   2.849   5.291   3.220
 7539SOL    HW124514   2.888   5.250   3.143
 7539SOL    HW224515   2.800   5.221   3.263
 7540SOL     OW24516  11.075   0.695   7.829
 7540SOL    HW124517  11.042   0.730   7.912
 7540SOL    HW224518  11.161   0.735   7.818
 7541SOL     OW24519   5.786  10.619  10.976
 7541SOL    HW124520   5.706  10.570  10.989
 7541SOL    HW224521   5.766  10.707  11.008
 7542SOL     OW24522   6.880   6.131   1.477
 7542SOL    HW124523   6.944   6.175   1.532
 7542SOL    HW224524   6.797   6.174   1.498
 7543SOL     OW24525   2.817   3.308   8.404
 7543SOL    HW124526   2.896   3.357   8.383
 7543SOL    HW224527   2.838   3.218   8.381
 7544SOL     OW24528  14.278  11.615  14.779
 7544SOL    HW124529  14.244  11.543  14.833
 7544SOL    HW224530  14.372  11.617  14.798
 7545SOL     OW24531   3.227  12.672   9.437
 7545SOL    HW124532   3.299  12.626   9.395
 7545SOL    HW224533   3.153  12.662   9.377
 7546SOL     OW24534   5.416   8.522  12.174
 7546SOL    HW124535   5.377   8.436  12.157
 7546SOL    HW224536   5.479   8.535  12.104
 7547SOL     OW24537   8.794  12.229  14.172
 7547SOL    HW124538   8.795  12.310  14.121
 7547SOL    HW224539   8.709  12.189  14.153
 7548SOL     OW24540   9.326   8.050   3.462
 7548SOL    HW124541   9.261   8.065   3.530
 7548SOL    HW224542   9.374   7.972   3.491
 7549SOL     OW24543   6.496   0.714   9.570
 7549SOL    HW124544   6.577   0.716   9.620
 7549SOL    HW224545   6.494   0.798   9.523
 7550SOL     OW24546  11.152   8.273   9.873
 7550SOL    HW124547  11.198   8.328   9.808
 7550SOL    HW224548  11.068   8.317   9.885
 7551SOL     OW24549  12.434   1.161  14.036
 7551SOL    HW124550  12.409   1.073  14.061
 7551SOL    HW224551  12.382   1.181  13.959
 7552SOL     OW24552   9.347   5.434  10.194
 7552SOL    HW124553   9.339   5.523  10.160
 7552SOL    HW224554   9.341   5.377  10.117
 7553SOL     OW24555   6.260  10.351   1.693
 7553SOL    HW124556   6.348  10.334   1.660
 7553SOL    HW224557   6.271  10.362   1.788
 7554SOL     OW24558   9.325   6.770   6.821
 7554SOL    HW124559   9.394   6.710   6.848
 7554SOL    HW224560   9.272   6.782   6.900
 7555SOL     OW24561   1.992   7.515   0.100
 7555SOL    HW124562   2.027   7.571   0.169
 7555SOL    HW224563   2.032   7.430   0.114
 7556SOL     OW24564   1.313   9.800   1.880
 7556SOL    HW124565   1.227   9.758   1.871
 7556SOL    HW224566   1.338   9.785   1.971
 7557SOL     OW24567  11.680  12.745   9.937
 7557SOL    HW124568  11.626  12.748   9.858
 7557SOL    HW224569  11.677  12.835   9.971
 7558SOL     OW24570  12.789  12.087   8.025
 7558SOL    HW124571  12.791  11.998   7.989
 7558SOL    HW224572  12.782  12.074   8.119
 7559SOL     OW24573  11.761   0.841   6.947
 7559SOL    HW124574  11.804   0.756   6.950
 7559SOL    HW224575  11.832   0.903   6.930
 7560SOL     OW24576   4.249  12.277  10.775
 7560SOL    HW124577   4.156  12.299  10.768
 7560SOL    HW224578   4.259  12.200  10.719
 7561SOL     OW24579   7.625   3.357   5.757
 7561SOL    HW124580   7.539   3.320   5.780
 7561SOL    HW224581   7.687   3.288   5.781
 7562SOL     OW24582  12.646   4.315  11.254
 7562SOL    HW124583  12.657   4.409  11.245
 7562SOL    HW224584  12.723   4.286  11.303
 7563SOL     OW24585  10.073  11.234   1.185
 7563SOL    HW124586  10.075  11.256   1.278
 7563SOL    HW224587  10.035  11.310   1.142
 7564SOL     OW24588   3.320  10.323   6.569
 7564SOL    HW124589   3.268  10.403   6.558
 7564SOL    HW224590   3.259  10.251   6.554
 7565SOL     OW24591   2.461   9.386   7.230
 7565SOL    HW124592   2.505   9.387   7.315
 7565SOL    HW224593   2.368   9.390   7.251
 7566SOL     OW24594   8.873   6.661   0.367
 7566SOL    HW124595   8.945   6.698   0.418
 7566SOL    HW224596   8.914   6.636   0.284
 7567SOL     OW24597  14.030  10.398   3.263
 7567SOL    HW124598  14.062  10.459   3.196
 7567SOL    HW224599  13.953  10.358   3.223
 7568SOL     OW24600   6.688  11.460   1.362
 7568SOL    HW124601   6.777  11.458   1.397
 7568SOL    HW224602   6.654  11.373   1.380
 7569SOL     OW24603   0.700   4.788   0.493
 7569SOL    HW124604   0.739   4.817   0.575
 7569SOL    HW224605   0.759   4.720   0.460
 7570SOL     OW24606   5.249   3.569   6.190
 7570SOL    HW124607   5.274   3.649   6.143
 7570SOL    HW224608   5.286   3.498   6.138
 7571SOL     OW24609   6.464  14.217   5.768
 7571SOL    HW124610   6.495  14.260   5.848
 7571SOL    HW224611   6.420  14.137   5.799
 7572SOL     OW24612   6.337   9.149  10.659
 7572SOL    HW124613   6.298   9.213  10.719
 7572SOL    HW224614   6.296   9.066  10.682
 7573SOL     OW24615  12.311   1.263   5.978
 7573SOL    HW124616  12.264   1.339   5.944
 7573SOL    HW224617  12.244   1.195   5.987
 7574SOL     OW24618  13.961   9.215   0.343
 7574SOL    HW124619  13.866   9.210   0.333
 7574SOL    HW224620  13.993   9.131   0.311
 7575SOL     OW24621   0.472   7.541  10.009
 7575SOL    HW124622   0.566   7.531   9.993
 7575SOL    HW224623   0.441   7.593   9.935
 7576SOL     OW24624   7.230   5.993   5.522
 7576SOL    HW124625   7.188   5.944   5.594
 7576SOL    HW224626   7.161   6.050   5.489
 7577SOL     OW24627   0.150   0.749  12.499
 7577SOL    HW124628   0.122   0.714  12.414
 7577SOL    HW224629   0.077   0.804  12.528
 7578SOL     OW24630  13.563  13.713  13.270
 7578SOL    HW124631  13.597  13.801  13.254
 7578SOL    HW224632  13.525  13.686  13.187
 7579SOL     OW24633   6.735  12.597   2.058
 7579SOL    HW124634   6.755  12.688   2.080
 7579SOL    HW224635   6.726  12.597   1.963
 7580SOL     OW24636   3.862  11.284   7.668
 7580SOL    HW124637   3.816  11.314   7.589
 7580SOL    HW224638   3.926  11.353   7.686
 7581SOL     OW24639  11.055   6.334   9.519
 7581SOL    HW124640  11.125   6.380   9.473
 7581SOL    HW224641  11.077   6.341   9.612
 7582SOL     OW24642   8.561   2.617  11.245
 7582SOL    HW124643   8.558   2.678  11.171
 7582SOL    HW224644   8.634   2.559  11.225
 7583SOL     OW24645  10.377   6.967  10.211
 7583SOL    HW124646  10.461   6.934  10.177
 7583SOL    HW224647  10.335   6.890  10.249
 7584SOL     OW24648  11.915   9.540   6.210
 7584SOL    HW124649  11.898   9.545   6.305
 7584SOL    HW224650  11.967   9.618   6.192
 7585SOL     OW24651   9.337   8.967   1.000
 7585SOL    HW124652   9.406   9.028   0.973
 7585SOL    HW224653   9.279   8.962   0.924
 7586SOL     OW24654   6.509   6.338  11.052
 7586SOL    HW124655   6.551   6.293  11.125
 7586SOL    HW224656   6.429   6.289  11.036
 7587SOL     OW24657   6.034   0.391  10.262
 7587SOL    HW124658   6.060   0.335  10.189
 7587SOL    HW224659   6.006   0.473  10.220
 7588SOL     OW24660   6.549   0.955   4.825
 7588SOL    HW124661   6.486   0.913   4.766
 7588SOL    HW224662   6.627   0.969   4.772
 7589SOL     OW24663   5.304   8.532   3.332
 7589SOL    HW124664   5.337   8.481   3.258
 7589SOL    HW224665   5.210   8.536   3.318
 7590SOL     OW24666   7.638   7.695   5.047
 7590SOL    HW124667   7.700   7.747   5.098
 7590SOL    HW224668   7.690   7.622   5.013
 7591SOL     OW24669  14.649   3.195   6.488
 7591SOL    HW124670  14.574   3.203   6.428
 7591SOL    HW224671  14.684   3.108   6.470
 7592SOL     OW24672  12.221  12.883   1.365
 7592SOL    HW124673  12.128  12.892   1.386
 7592SOL    HW224674  12.228  12.910   1.274
 7593SOL     OW24675   8.396   7.700   5.675
 7593SOL    HW124676   8.393   7.608   5.647
 7593SOL    HW224677   8.379   7.749   5.595
 7594SOL     OW24678   0.411   1.542  11.361
 7594SOL    HW124679   0.321   1.520  11.338
 7594SOL    HW224680   0.455   1.556  11.276
 7595SOL     OW24681  12.052   0.103   2.829
 7595SOL    HW124682  12.001   0.169   2.783
 7595SOL    HW224683  11.988   0.044   2.867
 7596SOL     OW24684   7.001  12.289   0.880
 7596SOL    HW124685   6.956  12.229   0.820
 7596SOL    HW224686   6.947  12.290   0.958
 7597SOL     OW24687   8.653   7.408   8.610
 7597SOL    HW124688   8.731   7.387   8.559
 7597SOL    HW224689   8.687   7.438   8.695
 7598SOL     OW24690  11.712  12.113  12.315
 7598SOL    HW124691  11.635  12.076  12.273
 7598SOL    HW224692  11.786  12.067  12.275
 7599SOL     OW24693  12.813  11.962   6.529
 7599SOL    HW124694  12.866  12.011   6.593
 7599SOL    HW224695  12.732  12.012   6.522
 7600SOL     OW24696  10.796  11.589  10.853
 7600SOL    HW124697  10.772  11.681  10.843
 7600SOL    HW224698  10.729  11.541  10.804
 7601SOL     OW24699  13.612  13.798   0.140
 7601SOL    HW124700  13.546  13.756   0.196
 7601SOL    HW224701  13.561  13.843   0.072
 7602SOL     OW24702  14.708   8.532   7.429
 7602SOL    HW124703  14.794   8.561   7.459
 7602SOL    HW224704  14.715   8.530   7.333
 7603SOL     OW24705   5.682  14.182   7.490
 7603SOL    HW124706   5.627  14.227   7.426
 7603SOL    HW224707   5.708  14.251   7.552
 7604SOL     OW24708   5.385  13.716   6.625
 7604SOL    HW124709   5.324  13.651   6.659
 7604SOL    HW224710   5.417  13.678   6.543
 7605SOL     OW24711  10.640  10.240  11.558
 7605SOL    HW124712  10.619  10.259  11.650
 7605SOL    HW224713  10.556  10.247  11.513
 7606SOL     OW24714   4.527   0.378   3.947
 7606SOL    HW124715   4.527   0.301   4.004
 7606SOL    HW224716   4.618   0.406   3.944
 7607SOL     OW24717   5.574   0.630   8.137
 7607SOL    HW124718   5.620   0.561   8.089
 7607SOL    HW224719   5.509   0.583   8.189
 7608SOL     OW24720   3.078   2.700   9.135
 7608SOL    HW124721   3.017   2.691   9.208
 7608SOL    HW224722   3.090   2.795   9.126
 7609SOL     OW24723  11.698   9.199  13.571
 7609SOL    HW124724  11.767   9.139  13.599
 7609SOL    HW224725  11.660   9.233  13.652
 7610SOL     OW24726  10.595   0.629   5.128
 7610SOL    HW124727  10.626   0.716   5.155
 7610SOL    HW224728  10.613   0.626   5.034
 7611SOL     OW24729   0.275   5.193  10.659
 7611SOL    HW124730   0.326   5.128  10.611
 7611SOL    HW224731   0.341   5.245  10.705
 7612SOL     OW24732  10.509  14.137   8.856
 7612SOL    HW124733  10.441  14.082   8.816
 7612SOL    HW224734  10.580  14.076   8.876
 7613SOL     OW24735   3.544   7.293  11.376
 7613SOL    HW124736   3.550   7.337  11.291
 7613SOL    HW224737   3.559   7.201  11.357
 7614SOL     OW24738   2.247  12.990  12.830
 7614SOL    HW124739   2.266  13.079  12.799
 7614SOL    HW224740   2.303  12.978  12.906
 7615SOL     OW24741   3.937   8.893   7.392
 7615SOL    HW124742   3.946   8.897   7.297
 7615SOL    HW224743   3.897   8.977   7.415
 7616SOL     OW24744   0.681   4.867   3.855
 7616SOL    HW124745   0.627   4.934   3.812
 7616SOL    HW224746   0.629   4.787   3.850
 7617SOL     OW24747   7.526   1.128  11.097
 7617SOL    HW124748   7.543   1.063  11.164
 7617SOL    HW224749   7.465   1.085  11.037
 7618SOL     OW24750   9.967   1.551   9.951
 7618SOL    HW124751  10.028   1.623   9.937
 7618SOL    HW224752  10.005   1.477   9.904
 7619SOL     OW24753   3.443   0.698   0.869
 7619SOL    HW124754   3.498   0.731   0.940
 7619SOL    HW224755   3.408   0.615   0.902
 7620SOL     OW24756  10.557   2.902   3.444
 7620SOL    HW124757  10.556   2.824   3.499
 7620SOL    HW224758  10.561   2.869   3.354
 7621SOL     OW24759  11.396   3.474   8.554
 7621SOL    HW124760  11.468   3.525   8.591
 7621SOL    HW224761  11.438   3.403   8.506
 7622SOL     OW24762  11.554  10.376   3.215
 7622SOL    HW124763  11.615  10.345   3.148
 7622SOL    HW224764  11.601  10.445   3.261
 7623SOL     OW24765   2.863   6.466  10.147
 7623SOL    HW124766   2.817   6.544  10.178
 7623SOL    HW224767   2.897   6.492  10.061
 7624SOL     OW24768   1.217   6.555   2.268
 7624SOL    HW124769   1.129   6.586   2.292
 7624SOL    HW224770   1.203   6.500   2.191
 7625SOL     OW24771   3.039  12.316  12.499
 7625SOL    HW124772   3.071  12.397  12.538
 7625SOL    HW224773   3.116  12.260  12.494
 7626SOL     OW24774   5.131  11.620   5.539
 7626SOL    HW124775   5.098  11.696   5.588
 7626SOL    HW224776   5.217  11.602   5.578
 7627SOL     OW24777  10.120   2.193   1.567
 7627SOL    HW124778  10.181   2.239   1.509
 7627SOL    HW224779  10.108   2.107   1.526
 7628SOL     OW24780   5.740   6.980   9.068
 7628SOL    HW124781   5.691   7.046   9.019
 7628SOL    HW224782   5.674   6.918   9.098
 7629SOL     OW24783  10.653   8.197   1.984
 7629SOL    HW124784  10.627   8.121   1.933
 7629SOL    HW224785  10.681   8.162   2.068
 7630SOL     OW24786   6.035   3.583  10.144
 7630SOL    HW124787   6.056   3.496  10.109
 7630SOL    HW224788   5.945   3.598  10.116
 7631SOL     OW24789   8.099  12.810   3.430
 7631SOL    HW124790   8.185  12.774   3.407
 7631SOL    HW224791   8.109  12.904   3.423
 7632SOL     OW24792  11.086   3.697   6.443
 7632SOL    HW124793  11.089   3.622   6.384
 7632SOL    HW224794  11.169   3.742   6.429
 7633SOL     OW24795  12.056  13.690   9.706
 7633SOL    HW124796  11.978  13.736   9.675
 7633SOL    HW224797  12.128  13.731   9.659
 7634SOL     OW24798   2.582   6.540   3.161
 7634SOL    HW124799   2.523   6.550   3.236
 7634SOL    HW224800   2.533   6.485   3.100
 7635SOL     OW24801  12.046   7.122   6.364
 7635SOL    HW124802  11.987   7.060   6.321
 7635SOL    HW224803  12.035   7.104   6.457
 7636SOL     OW24804  13.816   1.862   7.448
 7636SOL    HW124805  13.800   1.808   7.371
 7636SOL    HW224806  13.910   1.881   7.446
 7637SOL     OW24807  12.792   4.845  10.452
 7637SOL    HW124808  12.866   4.832  10.393
 7637SOL    HW224809  12.765   4.936  10.436
 7638SOL     OW24810  11.304   1.956   0.559
 7638SOL    HW124811  11.216   1.936   0.528
 7638SOL    HW224812  11.361   1.901   0.505
 7639SOL     OW24813  12.406  11.187   3.099
 7639SOL    HW124814  12.409  11.254   3.030
 7639SOL    HW224815  12.313  11.174   3.116
 7640SOL     OW24816   3.759   1.496   1.301
 7640SOL    HW124817   3.838   1.443   1.304
 7640SOL    HW224818   3.720   1.476   1.216
 7641SOL     OW24819   9.055  14.112   3.855
 7641SOL    HW124820   9.149  14.127   3.870
 7641SOL    HW224821   9.012  14.190   3.890
 7642SOL     OW24822  12.330   7.742  11.131
 7642SOL    HW124823  12.243   7.751  11.092
 7642SOL    HW224824  12.339   7.648  11.149
 7643SOL     OW24825  10.465   5.401  14.665
 7643SOL    HW124826  10.509   5.317  14.680
 7643SOL    HW224827  10.506   5.435  14.585
 7644SOL     OW24828  10.635   3.843  11.742
 7644SOL    HW124829  10.641   3.938  11.737
 7644SOL    HW224830  10.543   3.826  11.760
 7645SOL     OW24831   8.933   9.581   5.072
 7645SOL    HW124832   8.963   9.665   5.108
 7645SOL    HW224833   8.863   9.605   5.011
 7646SOL     OW24834   8.126  11.176  13.244
 7646SOL    HW124835   8.072  11.101  13.268
 7646SOL    HW224836   8.066  11.251  13.250
 7647SOL     OW24837   1.125  14.532   6.903
 7647SOL    HW124838   1.193  14.588   6.866
 7647SOL    HW224839   1.166  14.445   6.908
 7648SOL     OW24840  12.848  10.992   8.280
 7648SOL    HW124841  12.837  10.959   8.191
 7648SOL    HW224842  12.930  10.953   8.310
 7649SOL     OW24843   7.704   6.789   8.495
 7649SOL    HW124844   7.759   6.836   8.558
 7649SOL    HW224845   7.765   6.742   8.439
 7650SOL     OW24846   1.270   3.476   5.583
 7650SOL    HW124847   1.278   3.522   5.666
 7650SOL    HW224848   1.237   3.541   5.521
 7651SOL     OW24849  13.869   1.647   8.209
 7651SOL    HW124850  13.860   1.739   8.185
 7651SOL    HW224851  13.827   1.640   8.295
 7652SOL     OW24852   9.682   5.302   2.459
 7652SOL    HW124853   9.678   5.368   2.529
 7652SOL    HW224854   9.737   5.233   2.495
 7653SOL     OW24855   0.439   7.896  13.601
 7653SOL    HW124856   0.367   7.862  13.654
 7653SOL    HW224857   0.507   7.919  13.664
 7654SOL     OW24858   2.953   5.214  10.695
 7654SOL    HW124859   2.908   5.133  10.672
 7654SOL    HW224860   3.026   5.185  10.750
 7655SOL     OW24861   8.399  12.247   7.354
 7655SOL    HW124862   8.330  12.278   7.295
 7655SOL    HW224863   8.374  12.279   7.440
 7656SOL     OW24864  10.332   7.578   1.835
 7656SOL    HW124865  10.266   7.572   1.766
 7656SOL    HW224866  10.341   7.671   1.852
 7657SOL     OW24867   9.093  12.725   0.886
 7657SOL    HW124868   9.109  12.684   0.971
 7657SOL    HW224869   9.098  12.652   0.824
 7658SOL     OW24870   8.809  10.994   1.724
 7658SOL    HW124871   8.819  10.916   1.669
 7658SOL    HW224872   8.871  10.980   1.796
 7659SOL     OW24873   1.268   8.501   6.574
 7659SOL    HW124874   1.236   8.559   6.643
 7659SOL    HW224875   1.342   8.455   6.613
 7660SOL     OW24876  10.248   2.233   2.918
 7660SOL    HW124877  10.318   2.173   2.942
 7660SOL    HW224878  10.168   2.184   2.933
 7661SOL     OW24879   2.562   4.768   0.488
 7661SOL    HW124880   2.603   4.827   0.552
 7661SOL    HW224881   2.635   4.727   0.443
 7662SOL     OW24882  11.856  11.606   0.489
 7662SOL    HW124883  11.776  11.659   0.488
 7662SOL    HW224884  11.828  11.521   0.524
 7663SOL     OW24885  12.846   5.964  11.895
 7663SOL    HW124886  12.883   6.023  11.961
 7663SOL    HW224887  12.891   5.881  11.909
 7664SOL     OW24888   1.177   6.050   1.046
 7664SOL    HW124889   1.175   5.954   1.045
 7664SOL    HW224890   1.264   6.072   1.079
 7665SOL     OW24891  14.396   9.711   1.112
 7665SOL    HW124892  14.323   9.773   1.113
 7665SOL    HW224893  14.466   9.757   1.066
 7666SOL     OW24894   0.115   5.890  11.641
 7666SOL    HW124895   0.051   5.889  11.712
 7666SOL    HW224896   0.185   5.946  11.673
 7667SOL     OW24897  10.385   3.789  11.828
 7667SOL    HW124898  10.334   3.818  11.904
 7667SOL    HW224899  10.346   3.836  11.754
 7668SOL     OW24900  10.000   2.340   1.263
 7668SOL    HW124901  10.091   2.339   1.294
 7668SOL    HW224902   9.977   2.248   1.255
 7669SOL     OW24903   7.859   9.526  12.804
 7669SOL    HW124904   7.953   9.510  12.813
 7669SOL    HW224905   7.820   9.478  12.877
 7670SOL     OW24906   0.602   5.917   6.083
 7670SOL    HW124907   0.580   5.863   6.007
 7670SOL    HW224908   0.636   5.855   6.148
 7671SOL     OW24909   9.309   0.790  11.789
 7671SOL    HW124910   9.358   0.854  11.738
 7671SOL    HW224911   9.226   0.834  11.807
 7672SOL     OW24912  13.400   4.661   6.969
 7672SOL    HW124913  13.409   4.593   7.036
 7672SOL    HW224914  13.469   4.642   6.906
 7673SOL     OW24915   4.312   1.338   4.153
 7673SOL    HW124916   4.309   1.248   4.185
 7673SOL    HW224917   4.303   1.331   4.058
 7674SOL     OW24918   0.145   6.383   6.567
 7674SOL    HW124919   0.211   6.331   6.613
 7674SOL    HW224920   0.107   6.323   6.504
 7675SOL     OW24921  14.784  14.213   0.645
 7675SOL    HW124922  14.826  14.249   0.566
 7675SOL    HW224923  14.691  14.228   0.631
 7676SOL     OW24924   3.706   6.126   4.517
 7676SOL    HW124925   3.705   6.064   4.445
 7676SOL    HW224926   3.650   6.087   4.584
 7677SOL     OW24927   6.744  12.041   2.972
 7677SOL    HW124928   6.663  12.027   3.020
 7677SOL    HW224929   6.788  12.113   3.018
 7678SOL     OW24930   9.354   1.414   3.930
 7678SOL    HW124931   9.261   1.410   3.953
 7678SOL    HW224932   9.394   1.466   4.000
 7679SOL     OW24933   5.888   0.281  12.315
 7679SOL    HW124934   5.807   0.325  12.289
 7679SOL    HW224935   5.915   0.232  12.237
 7680SOL     OW24936   8.572   5.428   2.850
 7680SOL    HW124937   8.592   5.511   2.893
 7680SOL    HW224938   8.503   5.389   2.904
 7681SOL     OW24939   9.908   7.321   8.675
 7681SOL    HW124940   9.966   7.263   8.626
 7681SOL    HW224941   9.861   7.370   8.608
 7682SOL     OW24942   8.329   9.494  12.940
 7682SOL    HW124943   8.405   9.441  12.964
 7682SOL    HW224944   8.353   9.533  12.855
 7683SOL     OW24945   7.749  10.019   7.288
 7683SOL    HW124946   7.669   9.968   7.281
 7683SOL    HW224947   7.723  10.107   7.259
 7684SOL     OW24948  14.866   3.673  13.547
 7684SOL    HW124949  14.873   3.762  13.512
 7684SOL    HW224950   0.024   3.679  13.635
 7685SOL     OW24951   4.962  12.151  10.162
 7685SOL    HW124952   4.963  12.076  10.222
 7685SOL    HW224953   4.885  12.202  10.189
 7686SOL     OW24954   0.477  10.515   6.090
 7686SOL    HW124955   0.565  10.542   6.064
 7686SOL    HW224956   0.423  10.594   6.078
 7687SOL     OW24957   0.752   1.160  11.253
 7687SOL    HW124958   0.715   1.072  11.261
 7687SOL    HW224959   0.681   1.218  11.282
 7688SOL     OW24960   1.841   0.800   7.683
 7688SOL    HW124961   1.877   0.870   7.628
 7688SOL    HW224962   1.907   0.731   7.679
 7689SOL     OW24963  10.587  14.747  12.708
 7689SOL    HW124964  10.575  14.680  12.641
 7689SOL    HW224965  10.676  14.780  12.694
 7690SOL     OW24966   6.682   9.106   3.899
 7690SOL    HW124967   6.594   9.092   3.934
 7690SOL    HW224968   6.716   9.018   3.884
 7691SOL     OW24969  10.623   4.595   5.248
 7691SOL    HW124970  10.632   4.687   5.274
 7691SOL    HW224971  10.530   4.585   5.227
 7692SOL     OW24972   9.484  11.078   7.217
 7692SOL    HW124973   9.510  11.167   7.194
 7692SOL    HW224974   9.400  11.065   7.173
 7693SOL     OW24975   4.089  10.784   4.562
 7693SOL    HW124976   3.995  10.798   4.575
 7693SOL    HW224977   4.130  10.849   4.619
 7694SOL     OW24978   1.336   3.811   4.841
 7694SOL    HW124979   1.340   3.866   4.919
 7694SOL    HW224980   1.427   3.786   4.825
 7695SOL     OW24981   7.806   8.963   4.157
 7695SOL    HW124982   7.850   9.041   4.191
 7695SOL    HW224983   7.845   8.949   4.071
 7696SOL     OW24984  10.306   9.542   8.276
 7696SOL    HW124985  10.232   9.558   8.217
 7696SOL    HW224986  10.383   9.541   8.219
 7697SOL     OW24987   3.073  14.374   5.851
 7697SOL    HW124988   3.045  14.312   5.784
 7697SOL    HW224989   3.002  14.437   5.857
 7698SOL     OW24990   2.845   2.832  13.722
 7698SOL    HW124991   2.765   2.849  13.772
 7698SOL    HW224992   2.912   2.884  13.766
 7699SOL     OW24993  11.657   4.678   6.447
 7699SOL    HW124994  11.708   4.597   6.453
 7699SOL    HW224995  11.600   4.666   6.371
 7700SOL     OW24996   7.689   5.643   5.958
 7700SOL    HW124997   7.715   5.725   5.999
 7700SOL    HW224998   7.609   5.664   5.911
 7701SOL     OW24999   6.859  11.554  11.460
 7701SOL    HW125000   6.953  11.538  11.452
 7701SOL    HW225001   6.819  11.502  11.389
 7702SOL     OW25002   6.476   8.416   6.103
 7702SOL    HW125003   6.478   8.376   6.016
 7702SOL    HW225004   6.383   8.418   6.126
 7703SOL     OW25005   9.379   6.182  10.071
 7703SOL    HW125006   9.435   6.127  10.016
 7703SOL    HW225007   9.355   6.256  10.015
 7704SOL     OW25008  12.429   1.872   6.557
 7704SOL    HW125009  12.442   1.875   6.652
 7704SOL    HW225010  12.442   1.780   6.533
 7705SOL     OW25011   3.769  11.662   3.087
 7705SOL    HW125012   3.840  11.603   3.112
 7705SOL    HW225013   3.742  11.704   3.168
 7706SOL     OW25014  12.401   4.654   0.692
 7706SOL    HW125015  12.315   4.687   0.717
 7706SOL    HW225016  12.440   4.726   0.641
 7707SOL     OW25017   1.502  14.753  14.154
 7707SOL    HW125018   1.507  14.754  14.058
 7707SOL    HW225019   1.437  14.687  14.174
 7708SOL     OW25020   6.732   1.905  10.840
 7708SOL    HW125021   6.669   1.887  10.770
 7708SOL    HW225022   6.708   1.992  10.872
 7709SOL     OW25023   4.159   8.600  11.033
 7709SOL    HW125024   4.173   8.517  10.987
 7709SOL    HW225025   4.240   8.649  11.019
 7710SOL     OW25026  14.286   3.774  14.140
 7710SOL    HW125027  14.266   3.868  14.137
 7710SOL    HW225028  14.241   3.742  14.218
 7711SOL     OW25029   2.149   3.147  13.362
 7711SOL    HW125030   2.161   3.242  13.365
 7711SOL    HW225031   2.175   3.117  13.450
 7712SOL     OW25032   7.114   0.875   9.799
 7712SOL    HW125033   7.154   0.852   9.714
 7712SOL    HW225034   7.038   0.928   9.776
 7713SOL     OW25035   9.032   0.420   3.239
 7713SOL    HW125036   9.090   0.496   3.251
 7713SOL    HW225037   8.970   0.425   3.312
 7714SOL     OW25038   7.614   9.857  10.000
 7714SOL    HW125039   7.679   9.926   9.984
 7714SOL    HW225040   7.601   9.815   9.915
 7715SOL     OW25041   5.572  13.395  10.158
 7715SOL    HW125042   5.576  13.328  10.226
 7715SOL    HW225043   5.502  13.366  10.099
 7716SOL     OW25044   4.452  10.261   1.423
 7716SOL    HW125045   4.488  10.197   1.361
 7716SOL    HW225046   4.364  10.228   1.442
 7717SOL     OW25047   7.172   0.381   7.028
 7717SOL    HW125048   7.096   0.436   7.010
 7717SOL    HW225049   7.224   0.386   6.947
 7718SOL     OW25050   6.932   9.376   4.781
 7718SOL    HW125051   6.960   9.366   4.691
 7718SOL    HW225052   6.901   9.289   4.807
 7719SOL     OW25053   5.719   9.733   0.782
 7719SOL    HW125054   5.759   9.805   0.733
 7719SOL    HW225055   5.694   9.670   0.715
 7720SOL     OW25056  10.895   8.400   8.955
 7720SOL    HW125057  10.832   8.359   9.014
 7720SOL    HW225058  10.912   8.334   8.888
 7721SOL     OW25059  12.480   8.967  12.191
 7721SOL    HW125060  12.524   8.886  12.167
 7721SOL    HW225061  12.435   8.946  12.273
 7722SOL     OW25062   5.204   8.132   7.540
 7722SOL    HW125063   5.136   8.156   7.477
 7722SOL    HW225064   5.269   8.203   7.533
 7723SOL     OW25065   2.573  11.926  12.698
 7723SOL    HW125066   2.483  11.946  12.674
 7723SOL    HW225067   2.627  11.981  12.641
 7724SOL     OW25068  13.168  11.827   3.882
 7724SOL    HW125069  13.190  11.915   3.851
 7724SOL    HW225070  13.252  11.784   3.896
 7725SOL     OW25071   4.706   7.577   6.796
 7725SOL    HW125072   4.729   7.484   6.795
 7725SOL    HW225073   4.758   7.613   6.869
 7726SOL     OW25074   9.182   3.145   6.549
 7726SOL    HW125075   9.261   3.130   6.496
 7726SOL    HW225076   9.210   3.126   6.639
 7727SOL     OW25077   4.399  13.560   3.026
 7727SOL    HW125078   4.377  13.541   2.935
 7727SOL    HW225079   4.448  13.643   3.022
 7728SOL     OW25080   7.112   4.328   9.088
 7728SOL    HW125081   7.053   4.402   9.101
 7728SOL    HW225082   7.065   4.270   9.029
 7729SOL     OW25083   2.283   2.065   5.544
 7729SOL    HW125084   2.342   2.139   5.555
 7729SOL    HW225085   2.300   2.009   5.620
 7730SOL     OW25086   8.628  10.379   5.914
 7730SOL    HW125087   8.557  10.420   5.865
 7730SOL    HW225088   8.606  10.394   6.006
 7731SOL     OW25089   0.211   2.306  12.816
 7731SOL    HW125090   0.241   2.315  12.907
 7731SOL    HW225091   0.156   2.383  12.802
 7732SOL     OW25092  12.557   2.694  12.265
 7732SOL    HW125093  12.598   2.773  12.300
 7732SOL    HW225094  12.489   2.672  12.328
 7733SOL     OW25095   2.724   6.758   3.889
 7733SOL    HW125096   2.629   6.769   3.880
 7733SOL    HW225097   2.742   6.676   3.843
 7734SOL     OW25098   1.631   7.652   5.945
 7734SOL    HW125099   1.697   7.602   5.994
 7734SOL    HW225100   1.649   7.743   5.967
 7735SOL     OW25101  10.514  10.786  11.805
 7735SOL    HW125102  10.523  10.856  11.740
 7735SOL    HW225103  10.560  10.820  11.882
 7736SOL     OW25104   1.312   8.082   8.844
 7736SOL    HW125105   1.325   8.173   8.818
 7736SOL    HW225106   1.217   8.071   8.845
 7737SOL     OW25107   7.208   9.271  11.066
 7737SOL    HW125108   7.193   9.243  10.976
 7737SOL    HW225109   7.285   9.221  11.094
 7738SOL     OW25110  10.504  14.783   9.200
 7738SOL    HW125111  10.558  14.802   9.277
 7738SOL    HW225112  10.550  14.713   9.154
 7739SOL     OW25113   3.158   0.103  13.166
 7739SOL    HW125114   3.227   0.164  13.139
 7739SOL    HW225115   3.111   0.150  13.235
 7740SOL     OW25116  14.112   4.205   3.631
 7740SOL    HW125117  14.181   4.227   3.694
 7740SOL    HW225118  14.136   4.253   3.551
 7741SOL     OW25119  10.844  14.297   4.022
 7741SOL    HW125120  10.771  14.358   4.030
 7741SOL    HW225121  10.877  14.288   4.112
 7742SOL     OW25122   6.746   1.148  11.780
 7742SOL    HW125123   6.803   1.124  11.706
 7742SOL    HW225124   6.681   1.207  11.742
 7743SOL     OW25125  10.787   7.256  11.412
 7743SOL    HW125126  10.704   7.271  11.457
 7743SOL    HW225127  10.802   7.162  11.421
 7744SOL     OW25128   9.897   5.500  10.403
 7744SOL    HW125129   9.982   5.458  10.417
 7744SOL    HW225130   9.841   5.431  10.367
 7745SOL     OW25131  14.716   3.804   2.821
 7745SOL    HW125132  14.764   3.843   2.748
 7745SOL    HW225133  14.626   3.795   2.788
 7746SOL     OW25134   1.860   1.820   6.102
 7746SOL    HW125135   1.844   1.755   6.171
 7746SOL    HW225136   1.776   1.830   6.059
 7747SOL     OW25137   6.435   9.656  12.056
 7747SOL    HW125138   6.435   9.676  11.962
 7747SOL    HW225139   6.367   9.590  12.067
 7748SOL     OW25140  10.202   9.861  13.973
 7748SOL    HW125141  10.148   9.940  13.978
 7748SOL    HW225142  10.219   9.850  13.880
 7749SOL     OW25143   6.403  12.516  11.213
 7749SOL    HW125144   6.325  12.545  11.260
 7749SOL    HW225145   6.436  12.442  11.264
 7750SOL     OW25146   8.134   9.356  13.914
 7750SOL    HW125147   8.208   9.367  13.854
 7750SOL    HW225148   8.067   9.310  13.863
 7751SOL     OW25149   5.653   0.020  14.073
 7751SOL    HW125150   5.595  14.846  14.020
 7751SOL    HW225151   5.737  14.855  14.072
 7752SOL     OW25152  13.016   4.526   6.327
 7752SOL    HW125153  12.964   4.478   6.392
 7752SOL    HW225154  13.008   4.617   6.354
 7753SOL     OW25155   5.529   1.577   3.919
 7753SOL    HW125156   5.519   1.513   3.848
 7753SOL    HW225157   5.608   1.549   3.965
 7754SOL     OW25158   3.700  10.924   6.330
 7754SOL    HW125159   3.676  10.974   6.407
 7754SOL    HW225160   3.794  10.909   6.340
 7755SOL     OW25161  10.365   6.309   5.976
 7755SOL    HW125162  10.281   6.316   5.931
 7755SOL    HW225163  10.375   6.394   6.020
 7756SOL     OW25164   9.890  12.117   1.515
 7756SOL    HW125165   9.902  12.031   1.474
 7756SOL    HW225166   9.813  12.154   1.471
 7757SOL     OW25167   3.816   4.660   1.795
 7757SOL    HW125168   3.787   4.710   1.719
 7757SOL    HW225169   3.746   4.670   1.859
 7758SOL     OW25170  14.491   7.182  10.245
 7758SOL    HW125171  14.521   7.157  10.332
 7758SOL    HW225172  14.395   7.185  10.252
 7759SOL     OW25173  11.206   1.528  14.411
 7759SOL    HW125174  11.136   1.591  14.425
 7759SOL    HW225175  11.208   1.515  14.316
 7760SOL     OW25176  10.135   4.978   5.818
 7760SOL    HW125177  10.153   4.928   5.739
 7760SOL    HW225178  10.083   5.053   5.788
 7761SOL     OW25179   0.459   5.017   4.823
 7761SOL    HW125180   0.447   5.106   4.857
 7761SOL    HW225181   0.380   4.999   4.772
 7762SOL     OW25182   8.671   9.909   6.773
 7762SOL    HW125183   8.668   9.973   6.703
 7762SOL    HW225184   8.581   9.879   6.783
 7763SOL     OW25185  12.578  11.118  12.559
 7763SOL    HW125186  12.631  11.190  12.525
 7763SOL    HW225187  12.507  11.161  12.607
 7764SOL     OW25188   3.949   8.668   4.366
 7764SOL    HW125189   4.008   8.659   4.441
 7764SOL    HW225190   4.004   8.650   4.290
 7765SOL     OW25191   4.009   0.103   6.785
 7765SOL    HW125192   4.063   0.163   6.837
 7765SOL    HW225193   4.053   0.098   6.700
 7766SOL     OW25194   2.702   1.692  13.670
 7766SOL    HW125195   2.642   1.759  13.638
 7766SOL    HW225196   2.655   1.650  13.743
 7767SOL     OW25197  13.345  10.773  10.693
 7767SOL    HW125198  13.305  10.690  10.668
 7767SOL    HW225199  13.427  10.776  10.645
 7768SOL     OW25200   8.293  11.005   4.994
 7768SOL    HW125201   8.305  11.058   5.072
 7768SOL    HW225202   8.343  11.050   4.926
 7769SOL     OW25203   9.602   4.781  10.115
 7769SOL    HW125204   9.518   4.750  10.081
 7769SOL    HW225205   9.578   4.849  10.178
 7770SOL     OW25206  13.216  14.286   6.994
 7770SOL    HW125207  13.202  14.238   7.076
 7770SOL    HW225208  13.147  14.254   6.937
 7771SOL     OW25209   4.115   5.686   0.501
 7771SOL    HW125210   4.116   5.705   0.407
 7771SOL    HW225211   4.095   5.593   0.506
 7772SOL     OW25212   8.276   7.940   0.502
 7772SOL    HW125213   8.367   7.944   0.531
 7772SOL    HW225214   8.282   7.940   0.407
 7773SOL     OW25215   9.568   4.929   4.336
 7773SOL    HW125216   9.661   4.928   4.357
 7773SOL    HW225217   9.561   4.988   4.261
 7774SOL     OW25218   6.669   7.295   5.181
 7774SOL    HW125219   6.636   7.222   5.234
 7774SOL    HW225220   6.597   7.318   5.122
 7775SOL     OW25221   4.660   8.778   2.828
 7775SOL    HW125222   4.633   8.726   2.904
 7775SOL    HW225223   4.752   8.799   2.844
 7776SOL     OW25224  13.722   0.535   0.083
 7776SOL    HW125225  13.665   0.462   0.110
 7776SOL    HW225226  13.721   0.532  14.867
 7777SOL     OW25227   0.381   6.288   8.955
 7777SOL    HW125228   0.402   6.194   8.958
 7777SOL    HW225229   0.373   6.313   9.047
 7778SOL     OW25230  13.829   6.924   6.766
 7778SOL    HW125231  13.879   6.940   6.686
 7778SOL    HW225232  13.763   6.993   6.767
 7779SOL     OW25233   7.645   1.469  10.189
 7779SOL    HW125234   7.683   1.430  10.267
 7779SOL    HW225235   7.565   1.512  10.219
 7780SOL     OW25236   9.526  10.827   4.281
 7780SOL    HW125237   9.505  10.734   4.274
 7780SOL    HW225238   9.443  10.869   4.306
 7781SOL     OW25239  12.835   1.216   9.509
 7781SOL    HW125240  12.793   1.175   9.433
 7781SOL    HW225241  12.777   1.196   9.582
 7782SOL     OW25242   3.263  14.467   6.366
 7782SOL    HW125243   3.298  14.494   6.281
 7782SOL    HW225244   3.213  14.543   6.397
 7783SOL     OW25245   4.805   4.594   7.108
 7783SOL    HW125246   4.760   4.577   7.191
 7783SOL    HW225247   4.750   4.554   7.041
 7784SOL     OW25248  14.178   1.370   7.920
 7784SOL    HW125249  14.148   1.280   7.917
 7784SOL    HW225250  14.187   1.389   8.014
 7785SOL     OW25251   4.098   7.727   8.091
 7785SOL    HW125252   4.080   7.720   7.997
 7785SOL    HW225253   4.085   7.639   8.125
 7786SOL     OW25254   5.466  10.853  13.738
 7786SOL    HW125255   5.373  10.869  13.719
 7786SOL    HW225256   5.492  10.783  13.679
 7787SOL     OW25257   3.458   7.110   6.017
 7787SOL    HW125258   3.488   7.089   5.929
 7787SOL    HW225259   3.497   7.043   6.073
 7788SOL     OW25260   3.611   7.352  11.111
 7788SOL    HW125261   3.671   7.424  11.130
 7788SOL    HW225262   3.667   7.279  11.087
 7789SOL     OW25263  12.799  11.872   7.165
 7789SOL    HW125264  12.830  11.961   7.152
 7789SOL    HW225265  12.870  11.828   7.211
 7790SOL     OW25266   1.837  13.703  10.455
 7790SOL    HW125267   1.920  13.673  10.420
 7790SOL    HW225268   1.804  13.765  10.390
 7791SOL     OW25269   3.371   4.094  12.899
 7791SOL    HW125270   3.333   4.010  12.921
 7791SOL    HW225271   3.426   4.116  12.975
 7792SOL     OW25272  13.649   4.623  12.066
 7792SOL    HW125273  13.640   4.535  12.103
 7792SOL    HW225274  13.582   4.675  12.111
 7793SOL     OW25275  12.639   6.191   2.250
 7793SOL    HW125276  12.612   6.197   2.158
 7793SOL    HW225277  12.730   6.219   2.250
 7794SOL     OW25278   2.517  14.419  11.252
 7794SOL    HW125279   2.589  14.482  11.258
 7794SOL    HW225280   2.547  14.343  11.303
 7795SOL     OW25281   2.289  10.214  12.428
 7795SOL    HW125282   2.336  10.290  12.463
 7795SOL    HW225283   2.299  10.147  12.496
 7796SOL     OW25284   1.380   5.351  11.683
 7796SOL    HW125285   1.313   5.387  11.741
 7796SOL    HW225286   1.334   5.328  11.603
 7797SOL     OW25287   6.317  10.991   3.848
 7797SOL    HW125288   6.359  11.062   3.896
 7797SOL    HW225289   6.316  10.918   3.909
 7798SOL     OW25290   4.638  13.111   9.040
 7798SOL    HW125291   4.673  13.035   9.087
 7798SOL    HW225292   4.597  13.165   9.108
 7799SOL     OW25293  10.427  13.712   9.265
 7799SOL    HW125294  10.357  13.653   9.294
 7799SOL    HW225295  10.408  13.794   9.311
 7800SOL     OW25296  11.236  11.215  12.652
 7800SOL    HW125297  11.193  11.272  12.716
 7800SOL    HW225298  11.216  11.126  12.681
 7801SOL     OW25299  10.788   5.524  11.804
 7801SOL    HW125300  10.718   5.512  11.740
 7801SOL    HW225301  10.846   5.589  11.765
 7802SOL     OW25302  13.798   0.726   1.442
 7802SOL    HW125303  13.769   0.751   1.530
 7802SOL    HW225304  13.718   0.725   1.390
 7803SOL     OW25305   6.794   5.580   4.028
 7803SOL    HW125306   6.805   5.538   4.113
 7803SOL    HW225307   6.716   5.540   3.992
 7804SOL     OW25308   2.086  14.113   6.604
 7804SOL    HW125309   2.087  14.205   6.628
 7804SOL    HW225310   1.993  14.089   6.603
 7805SOL     OW25311   3.706   0.287   1.111
 7805SOL    HW125312   3.660   0.298   1.027
 7805SOL    HW225313   3.637   0.258   1.171
 7806SOL     OW25314   4.323  14.664  14.828
 7806SOL    HW125315   4.388  14.717  14.781
 7806SOL    HW225316   4.347  14.673   0.040
 7807SOL     OW25317   8.486  14.001   8.881
 7807SOL    HW125318   8.467  13.931   8.818
 7807SOL    HW225319   8.399  14.034   8.906
 7808SOL     OW25320   9.167   7.023   3.346
 7808SOL    HW125321   9.218   7.074   3.410
 7808SOL    HW225322   9.227   6.954   3.317
 7809SOL     OW25323   0.214   1.159   4.165
 7809SOL    HW125324   0.249   1.105   4.094
 7809SOL    HW225325   0.175   1.234   4.120
 7810SOL     OW25326   3.630  13.537   9.789
 7810SOL    HW125327   3.642  13.485   9.710
 7810SOL    HW225328   3.710  13.523   9.840
 7811SOL     OW25329   6.554  14.092   7.282
 7811SOL    HW125330   6.574  14.165   7.340
 7811SOL    HW225331   6.575  14.124   7.194
 7812SOL     OW25332   3.713  11.276   1.956
 7812SOL    HW125333   3.637  11.219   1.961
 7812SOL    HW225334   3.748  11.277   2.046
 7813SOL     OW25335  13.965  14.461  13.571
 7813SOL    HW125336  13.940  14.389  13.628
 7813SOL    HW225337  13.946  14.540  13.621
 7814SOL     OW25338   8.521   3.423   2.204
 7814SOL    HW125339   8.446   3.401   2.260
 7814SOL    HW225340   8.583   3.466   2.263
 7815SOL     OW25341  13.330  12.436   9.994
 7815SOL    HW125342  13.419  12.415   9.967
 7815SOL    HW225343  13.320  12.390  10.078
 7816SOL     OW25344   1.677  11.985  14.530
 7816SOL    HW125345   1.623  12.025  14.598
 7816SOL    HW225346   1.755  11.955  14.576
 7817SOL     OW25347   3.472   0.935   1.439
 7817SOL    HW125348   3.491   0.975   1.524
 7817SOL    HW225349   3.549   0.882   1.419
 7818SOL     OW25350   7.088  11.256  12.670
 7818SOL    HW125351   7.060  11.324  12.608
 7818SOL    HW225352   7.010  11.201  12.681
 7819SOL     OW25353   7.393   2.664   4.048
 7819SOL    HW125354   7.477   2.701   4.020
 7819SOL    HW225355   7.330   2.735   4.035
 7820SOL     OW25356  12.923   2.632   6.870
 7820SOL    HW125357  12.883   2.670   6.792
 7820SOL    HW225358  12.850   2.619   6.930
 7821SOL     OW25359   3.709   3.922   3.069
 7821SOL    HW125360   3.750   3.937   2.984
 7821SOL    HW225361   3.751   3.985   3.128
 7822SOL     OW25362   3.426   5.170   9.403
 7822SOL    HW125363   3.473   5.246   9.438
 7822SOL    HW225364   3.475   5.095   9.436
 7823SOL     OW25365   0.857   3.305  12.747
 7823SOL    HW125366   0.841   3.215  12.718
 7823SOL    HW225367   0.952   3.308  12.760
 7824SOL     OW25368   9.063   1.022   9.244
 7824SOL    HW125369   9.037   0.973   9.166
 7824SOL    HW225370   9.032   1.111   9.228
 7825SOL     OW25371   2.866   7.336  10.283
 7825SOL    HW125372   2.876   7.423  10.321
 7825SOL    HW225373   2.955   7.299  10.284
 7826SOL     OW25374  10.237   4.004   3.441
 7826SOL    HW125375  10.188   3.923   3.454
 7826SOL    HW225376  10.324   3.975   3.415
 7827SOL     OW25377   0.178   9.599  14.509
 7827SOL    HW125378   0.207   9.604  14.418
 7827SOL    HW225379   0.177   9.690  14.539
 7828SOL     OW25380   8.897   5.464   8.707
 7828SOL    HW125381   8.874   5.553   8.681
 7828SOL    HW225382   8.936   5.473   8.794
 7829SOL     OW25383   3.909   3.951  14.379
 7829SOL    HW125384   3.960   3.891  14.324
 7829SOL    HW225385   3.929   3.923  14.469
 7830SOL     OW25386   7.155   1.959   4.283
 7830SOL    HW125387   7.217   1.911   4.338
 7830SOL    HW225388   7.109   1.890   4.234
 7831SOL     OW25389   8.095  14.235   1.647
 7831SOL    HW125390   8.001  14.223   1.632
 7831SOL    HW225391   8.110  14.328   1.632
 7832SOL     OW25392   1.984  11.129  12.972
 7832SOL    HW125393   1.944  11.051  12.933
 7832SOL    HW225394   2.077  11.121  12.953
 7833SOL     OW25395   8.228   3.291  10.822
 7833SOL    HW125396   8.305   3.267  10.873
 7833SOL    HW225397   8.261   3.308  10.734
 7834SOL     OW25398   9.948  13.197  12.179
 7834SOL    HW125399   9.893  13.275  12.178
 7834SOL    HW225400   9.913  13.144  12.251
 7835SOL     OW25401  10.722   2.638   7.275
 7835SOL    HW125402  10.732   2.697   7.201
 7835SOL    HW225403  10.805   2.643   7.322
 7836SOL     OW25404   0.230   1.891   4.374
 7836SOL    HW125405   0.243   1.877   4.468
 7836SOL    HW225406   0.261   1.810   4.334
 7837SOL     OW25407  13.016   7.300  10.811
 7837SOL    HW125408  13.006   7.269  10.901
 7837SOL    HW225409  13.071   7.378  10.818
 7838SOL     OW25410   8.646  11.725   3.408
 7838SOL    HW125411   8.630  11.698   3.317
 7838SOL    HW225412   8.591  11.803   3.419
 7839SOL     OW25413   0.529  11.600   3.194
 7839SOL    HW125414   0.571  11.522   3.230
 7839SOL    HW225415   0.496  11.646   3.271
 7840SOL     OW25416   8.329  14.289   6.262
 7840SOL    HW125417   8.248  14.273   6.311
 7840SOL    HW225418   8.383  14.341   6.321
 7841SOL     OW25419  14.561   0.591   1.640
 7841SOL    HW125420  14.537   0.639   1.719
 7841SOL    HW225421  14.546   0.654   1.569
 7842SOL     OW25422  13.944   9.860   3.514
 7842SOL    HW125423  13.975   9.841   3.425
 7842SOL    HW225424  13.909   9.950   3.508
 7843SOL     OW25425   8.640   2.016   6.322
 7843SOL    HW125426   8.710   1.963   6.283
 7843SOL    HW225427   8.560   1.966   6.305
 7844SOL     OW25428   8.093  12.150   3.386
 7844SOL    HW125429   8.058  12.229   3.345
 7844SOL    HW225430   8.136  12.103   3.315
 7845SOL     OW25431  11.014   4.892  13.636
 7845SOL    HW125432  11.085   4.849  13.683
 7845SOL    HW225433  11.026   4.866  13.545
 7846SOL     OW25434   6.378   5.571  14.037
 7846SOL    HW125435   6.356   5.481  14.010
 7846SOL    HW225436   6.442   5.561  14.107
 7847SOL     OW25437  14.185  10.491  12.927
 7847SOL    HW125438  14.257  10.547  12.955
 7847SOL    HW225439  14.219  10.446  12.849
 7848SOL     OW25440   9.746   3.416  10.496
 7848SOL    HW125441   9.802   3.353  10.540
 7848SOL    HW225442   9.708   3.468  10.568
 7849SOL     OW25443  13.011   7.453  11.709
 7849SOL    HW125444  13.080   7.395  11.742
 7849SOL    HW225445  13.058   7.517  11.656
 7850SOL     OW25446   4.350  11.979   3.672
 7850SOL    HW125447   4.361  11.984   3.577
 7850SOL    HW225448   4.355  11.885   3.692
 7851SOL     OW25449  13.150  13.083   0.945
 7851SOL    HW125450  13.160  13.050   1.035
 7851SOL    HW225451  13.226  13.050   0.899
 7852SOL     OW25452  10.216   5.823   4.912
 7852SOL    HW125453  10.289   5.792   4.857
 7852SOL    HW225454  10.199   5.912   4.881
 7853SOL     OW25455   3.295   1.814   3.988
 7853SOL    HW125456   3.344   1.894   3.970
 7853SOL    HW225457   3.212   1.825   3.940
 7854SOL     OW25458   6.212  13.145  13.019
 7854SOL    HW125459   6.260  13.127  13.100
 7854SOL    HW225460   6.156  13.068  13.008
 7855SOL     OW25461   3.578   5.084   0.100
 7855SOL    HW125462   3.517   5.028   0.149
 7855SOL    HW225463   3.632   5.023   0.050
 7856SOL     OW25464   1.344   3.794   3.615
 7856SOL    HW125465   1.284   3.830   3.550
 7856SOL    HW225466   1.426   3.839   3.599
 7857SOL     OW25467   5.308  11.925   3.436
 7857SOL    HW125468   5.290  11.852   3.377
 7857SOL    HW225469   5.222  11.960   3.458
 7858SOL     OW25470   2.635  13.219   0.281
 7858SOL    HW125471   2.601  13.158   0.347
 7858SOL    HW225472   2.563  13.230   0.219
 7859SOL     OW25473  13.873  14.154   7.703
 7859SOL    HW125474  13.885  14.121   7.614
 7859SOL    HW225475  13.933  14.103   7.757
 7860SOL     OW25476  13.519  12.763  12.128
 7860SOL    HW125477  13.446  12.769  12.066
 7860SOL    HW225478  13.551  12.673  12.119
 7861SOL     OW25479   5.573   4.971   0.609
 7861SOL    HW125480   5.666   4.965   0.588
 7861SOL    HW225481   5.557   5.064   0.622
 7862SOL     OW25482   0.620   6.379  11.096
 7862SOL    HW125483   0.652   6.296  11.062
 7862SOL    HW225484   0.533   6.360  11.131
 7863SOL     OW25485  13.353  10.578   8.328
 7863SOL    HW125486  13.309  10.517   8.268
 7863SOL    HW225487  13.282  10.629   8.367
 7864SOL     OW25488   8.268  10.477   0.820
 7864SOL    HW125489   8.336  10.411   0.806
 7864SOL    HW225490   8.277  10.501   0.913
 7865SOL     OW25491  11.814   6.341   1.073
 7865SOL    HW125492  11.863   6.297   1.003
 7865SOL    HW225493  11.851   6.430   1.075
 7866SOL     OW25494   6.954  12.833  10.481
 7866SOL    HW125495   6.950  12.919  10.440
 7866SOL    HW225496   6.983  12.850  10.570
 7867SOL     OW25497   6.518  11.473  13.553
 7867SOL    HW125498   6.480  11.559  13.570
 7867SOL    HW225499   6.449  11.411  13.577
 7868SOL     OW25500   0.037  12.581   9.274
 7868SOL    HW125501   0.091  12.657   9.252
 7868SOL    HW225502  14.833  12.618   9.302
 7869SOL     OW25503  11.632   9.710   0.332
 7869SOL    HW125504  11.648   9.621   0.365
 7869SOL    HW225505  11.555   9.700   0.276
 7870SOL     OW25506  14.466   2.979   3.420
 7870SOL    HW125507  14.471   2.891   3.457
 7870SOL    HW225508  14.400   3.023   3.473
 7871SOL     OW25509   2.542   4.054   4.288
 7871SOL    HW125510   2.595   4.133   4.301
 7871SOL    HW225511   2.589   3.987   4.338
 7872SOL     OW25512   2.446  12.565  12.264
 7872SOL    HW125513   2.455  12.603  12.351
 7872SOL    HW225514   2.383  12.494  12.275
 7873SOL     OW25515   6.758  12.473   5.036
 7873SOL    HW125516   6.683  12.456   4.979
 7873SOL    HW225517   6.758  12.568   5.047
 7874SOL     OW25518  12.080   7.558   1.611
 7874SOL    HW125519  12.036   7.545   1.527
 7874SOL    HW225520  12.009   7.574   1.673
 7875SOL     OW25521   3.687  10.617   6.529
 7875SOL    HW125522   3.710  10.527   6.553
 7875SOL    HW225523   3.637  10.608   6.448
 7876SOL     OW25524   2.225   9.496   4.948
 7876SOL    HW125525   2.154   9.440   4.981
 7876SOL    HW225526   2.280   9.436   4.897
 7877SOL     OW25527   6.205   7.181  14.321
 7877SOL    HW125528   6.235   7.098  14.356
 7877SOL    HW225529   6.198   7.167  14.227
 7878SOL     OW25530   4.582   2.629   0.571
 7878SOL    HW125531   4.592   2.710   0.621
 7878SOL    HW225532   4.604   2.654   0.481
 7879SOL     OW25533   4.921   0.287   2.564
 7879SOL    HW125534   4.905   0.375   2.531
 7879SOL    HW225535   4.851   0.234   2.525
 7880SOL     OW25536   2.240   9.270  11.249
 7880SOL    HW125537   2.148   9.243  11.248
 7880SOL    HW225538   2.287   9.195  11.285
 7881SOL     OW25539  11.413   7.475   5.768
 7881SOL    HW125540  11.442   7.389   5.739
 7881SOL    HW225541  11.495   7.524   5.782
 7882SOL     OW25542   5.900   0.902   2.113
 7882SOL    HW125543   5.982   0.948   2.091
 7882SOL    HW225544   5.929   0.826   2.164
 7883SOL     OW25545  10.245  13.145  13.247
 7883SOL    HW125546  10.287  13.141  13.333
 7883SOL    HW225547  10.199  13.061  13.239
 7884SOL     OW25548   7.076   7.133  11.039
 7884SOL    HW125549   7.001   7.157  11.093
 7884SOL    HW225550   7.061   7.178  10.956
 7885SOL     OW25551   7.125   6.894   2.888
 7885SOL    HW125552   7.084   6.847   2.815
 7885SOL    HW225553   7.196   6.944   2.847
 7886SOL     OW25554   8.791  12.557  11.647
 7886SOL    HW125555   8.826  12.487  11.592
 7886SOL    HW225556   8.697  12.557  11.629
 7887SOL     OW25557  13.336   7.171   1.307
 7887SOL    HW125558  13.331   7.267   1.310
 7887SOL    HW225559  13.421   7.153   1.266
 7888SOL     OW25560   7.194   7.801   3.964
 7888SOL    HW125561   7.158   7.714   3.981
 7888SOL    HW225562   7.149   7.830   3.885
 7889SOL     OW25563   6.773  14.567   7.797
 7889SOL    HW125564   6.792  14.647   7.748
 7889SOL    HW225565   6.773  14.594   7.888
 7890SOL     OW25566   3.247  11.160  14.487
 7890SOL    HW125567   3.231  11.083  14.541
 7890SOL    HW225568   3.287  11.126  14.407
 7891SOL     OW25569   9.797  11.874  14.172
 7891SOL    HW125570   9.753  11.858  14.255
 7891SOL    HW225571   9.817  11.967  14.172
 7892SOL     OW25572   4.003   8.702   5.745
 7892SOL    HW125573   3.987   8.743   5.830
 7892SOL    HW225574   4.051   8.622   5.767
 7893SOL     OW25575   0.574   0.134   2.938
 7893SOL    HW125576   0.502   0.146   2.876
 7893SOL    HW225577   0.645   0.097   2.884
 7894SOL     OW25578   1.968   0.857  10.839
 7894SOL    HW125579   1.918   0.938  10.828
 7894SOL    HW225580   1.938   0.800  10.769
 7895SOL     OW25581   8.428   8.601  10.714
 7895SOL    HW125582   8.335   8.611  10.690
 7895SOL    HW225583   8.475   8.650  10.647
 7896SOL     OW25584   7.341  12.150   7.834
 7896SOL    HW125585   7.431  12.134   7.805
 7896SOL    HW225586   7.349  12.220   7.898
 7897SOL     OW25587  10.358  13.172   8.976
 7897SOL    HW125588  10.404  13.222   8.910
 7897SOL    HW225589  10.271  13.212   8.981
 7898SOL     OW25590   2.266   3.996   0.447
 7898SOL    HW125591   2.276   4.089   0.430
 7898SOL    HW225592   2.344   3.971   0.495
 7899SOL     OW25593  14.868   7.477  13.552
 7899SOL    HW125594   0.016   7.561  13.517
 7899SOL    HW225595   0.001   7.485  13.647
 7900SOL     OW25596   6.409   4.859   9.116
 7900SOL    HW125597   6.324   4.814   9.114
 7900SOL    HW225598   6.464   4.809   9.056
 7901SOL     OW25599   8.334   7.854   4.408
 7901SOL    HW125600   8.359   7.873   4.499
 7901SOL    HW225601   8.307   7.762   4.411
 7902SOL     OW25602  13.502  10.626   9.421
 7902SOL    HW125603  13.443  10.604   9.492
 7902SOL    HW225604  13.483  10.718   9.401
 7903SOL     OW25605   4.584   8.589  13.900
 7903SOL    HW125606   4.499   8.617  13.867
 7903SOL    HW225607   4.579   8.604  13.994
 7904SOL     OW25608   6.191  13.631   6.694
 7904SOL    HW125609   6.130  13.560   6.671
 7904SOL    HW225610   6.224  13.606   6.781
 7905SOL     OW25611   0.463   9.745   4.105
 7905SOL    HW125612   0.540   9.731   4.160
 7905SOL    HW225613   0.469   9.676   4.038
 7906SOL     OW25614  11.847  13.079   4.896
 7906SOL    HW125615  11.782  13.149   4.905
 7906SOL    HW225616  11.836  13.048   4.806
 7907SOL     OW25617   2.855   1.479   2.849
 7907SOL    HW125618   2.931   1.434   2.813
 7907SOL    HW225619   2.868   1.571   2.825
 7908SOL     OW25620   2.286   8.943   5.314
 7908SOL    HW125621   2.299   9.014   5.252
 7908SOL    HW225622   2.313   8.980   5.398
 7909SOL     OW25623  13.196  10.414  12.801
 7909SOL    HW125624  13.181  10.391  12.710
 7909SOL    HW225625  13.261  10.484  12.798
 7910SOL     OW25626   7.626  11.302   5.320
 7910SOL    HW125627   7.581  11.222   5.344
 7910SOL    HW225628   7.575  11.337   5.247
 7911SOL     OW25629   2.047   7.832  12.595
 7911SOL    HW125630   2.117   7.880  12.641
 7911SOL    HW225631   1.987   7.900  12.565
 7912SOL     OW25632   7.114   2.239  12.005
 7912SOL    HW125633   7.032   2.199  11.977
 7912SOL    HW225634   7.116   2.324  11.960
 7913SOL     OW25635   9.152  13.877   9.297
 7913SOL    HW125636   9.192  13.948   9.247
 7913SOL    HW225637   9.160  13.904   9.388
 7914SOL     OW25638   7.650   3.126  11.990
 7914SOL    HW125639   7.713   3.103  11.923
 7914SOL    HW225640   7.617   3.212  11.964
 7915SOL     OW25641   1.407  12.409   5.245
 7915SOL    HW125642   1.414  12.466   5.322
 7915SOL    HW225643   1.475  12.440   5.185
 7916SOL     OW25644   0.410  10.211   6.873
 7916SOL    HW125645   0.455  10.175   6.797
 7916SOL    HW225646   0.333  10.156   6.885
 7917SOL     OW25647   0.262   3.961   3.060
 7917SOL    HW125648   0.340   3.908   3.041
 7917SOL    HW225649   0.284   4.008   3.141
 7918SOL     OW25650   5.877   0.348   3.889
 7918SOL    HW125651   5.825   0.325   3.812
 7918SOL    HW225652   5.923   0.428   3.864
 7919SOL     OW25653   9.666   8.087  13.526
 7919SOL    HW125654   9.617   8.145  13.468
 7919SOL    HW225655   9.601   8.024  13.558
 7920SOL     OW25656   1.853  12.533   8.981
 7920SOL    HW125657   1.768  12.545   8.938
 7920SOL    HW225658   1.912  12.590   8.932
 7921SOL     OW25659   5.174   7.019   3.427
 7921SOL    HW125660   5.263   6.994   3.403
 7921SOL    HW225661   5.120   6.986   3.355
 7922SOL     OW25662   4.454   2.526   9.903
 7922SOL    HW125663   4.373   2.483   9.876
 7922SOL    HW225664   4.425   2.611   9.936
 7923SOL     OW25665   9.790   3.807   0.606
 7923SOL    HW125666   9.824   3.843   0.688
 7923SOL    HW225667   9.722   3.868   0.579
 7924NA      NA25668   5.362   7.733   7.534
 7925NA      NA25669   6.859   7.344   5.070
 7926NA      NA25670   6.325   8.672   7.385
 7927NA      NA25671   6.246   0.163   7.482
 7928NA      NA25672   2.170   6.866  11.154
 7929NA      NA25673   3.921   7.377   6.979
 7930NA      NA25674   5.331   5.736   9.501
 7931NA      NA25675   6.106   7.421   8.737
 7932NA      NA25676   2.579   7.189   9.092
 7933NA      NA25677   1.251  11.744  10.250
 7934NA      NA25678   1.169   0.163   4.672
 7935NA      NA25679   6.072   6.204   5.701
 7936NA      NA25680   4.529   6.635   6.364
 7937NA      NA25681   4.929   9.683   9.119
 7938NA      NA25682   2.115   3.082   0.725
 7939NA      NA25683   7.411   7.714   5.002
 7940NA      NA25684   7.976   8.753   4.530
 7941NA      NA25685  11.797   1.352   8.061
 7942NA      NA25686   6.761   5.665  10.122
 7943NA      NA25687   3.447   5.210   8.933
 7944NA      NA25688   0.668   3.290   2.077
 7945NA      NA25689   4.644   2.526  12.432
 7946NA      NA25690  12.291   1.506   3.896
 7947NA      NA25691   3.466   6.108   9.112
 7948NA      NA25692   6.429  12.264   4.028
 7949NA      NA25693   4.087   5.383  10.890
 7950NA      NA25694  11.986  14.713   4.251
 7951NA      NA25695   2.619   5.488   9.680
 7952NA      NA25696   4.267   4.489   9.745
 7953NA      NA25697   5.445   8.933   5.056
 7954NA      NA25698   2.742   1.672   8.155
 7955NA      NA25699   7.990   5.977  11.824
 7956NA      NA25700  14.004   1.541   6.155
 7957NA      NA25701   2.963   6.357  11.670
 7958NA      NA25702   6.521   6.860   3.967
 7959NA      NA25703   3.402   7.281   7.560
 7960NA      NA25704   6.104   7.224   3.547
 7961NA      NA25705   6.270   6.664   8.462
 7962NA      NA25706   8.401  14.015   4.533
 7963NA      NA25707   3.627   8.216   8.559
 7964NA      NA25708  14.837   8.384   0.954
 7965NA      NA25709   2.262   6.822   2.774
 7966NA      NA25710   7.504   8.006   1.057
 7967NA      NA25711   2.527   4.003  11.091
 7968NA      NA25712   8.180   9.439   7.228
 7969NA      NA25713   1.137   7.129  11.930
 7970NA      NA25714   3.353  14.021   4.685
 7971NA      NA25715   4.130   7.711   9.293
 7972NA      NA25716   5.954   6.402   4.135
 7973NA      NA25717   6.652   3.657   3.007
 7974NA      NA25718   5.733   6.111   7.486
 7975NA      NA25719   1.064  11.969   1.127
 7976NA      NA25720   5.513   5.209   8.553
 7977NA      NA25721   2.979   6.777  13.046
 7978NA      NA25722   3.003   6.356  10.315
 7979NA      NA25723   4.854   5.594   5.597
 7980NA      NA25724   6.264   5.802   7.684
 7981NA      NA25725  11.242   7.401  13.021
 7982NA      NA25726   3.862   5.411   6.936
 7983NA      NA25727   1.874   2.717   8.686
 7984NA      NA25728   5.651   7.498   6.019
 7985NA      NA25729   5.892   7.122   7.000
 7986NA      NA25730   6.554   9.286   6.040
 7987NA      NA25731   6.125   6.134   2.284
  14.88027  14.88027  14.88027
